Protein in water t=   0.00000 step= 0
325731
    1DC5    H5T    1   8.407   0.989   3.136
    1DC5    O5'    2   8.478   1.018   3.193
    1DC5    C5'    3   8.573   0.908   3.207
    1DC5   H5'1    4   8.625   0.884   3.114
    1DC5   H5'2    5   8.525   0.816   3.239
    1DC5    C4'    6   8.668   0.936   3.322
    1DC5    H4'    7   8.728   0.847   3.344
    1DC5    O4'    8   8.757   1.038   3.279
    1DC5    C1'    9   8.784   1.127   3.386
    1DC5    H1'   10   8.855   1.077   3.452
    1DC5     N1   11   8.852   1.260   3.354
    1DC5     C6   12   8.788   1.357   3.283
    1DC5     H6   13   8.683   1.342   3.260
    1DC5     C5   14   8.860   1.465   3.246
    1DC5     H5   15   8.813   1.548   3.195
    1DC5     C4   16   8.996   1.475   3.284
    1DC5     N4   17   9.066   1.580   3.259
    1DC5    H41   18   9.159   1.586   3.300
    1DC5    H42   19   9.021   1.660   3.217
    1DC5     N3   20   9.058   1.383   3.358
    1DC5     C2   21   8.985   1.271   3.391
    1DC5     O2   22   9.051   1.185   3.452
    1DC5    C3'   23   8.601   0.985   3.453
    1DC5    H3'   24   8.492   0.978   3.446
    1DC5    C2'   25   8.641   1.130   3.449
    1DC5   H2'1   26   8.574   1.191   3.388
    1DC5   H2'2   27   8.643   1.180   3.546
    1DC5    O3'   28   8.653   0.906   3.565
    2DG       P   29   8.621   0.931   3.719
    2DG     O1P   30   8.586   0.798   3.774
    2DG     O2P   31   8.515   1.029   3.737
    2DG     O5'   32   8.756   0.980   3.778
    2DG     C5'   33   8.867   0.894   3.761
    2DG    H5'1   34   8.900   0.909   3.658
    2DG    H5'2   35   8.835   0.789   3.767
    2DG     C4'   36   8.979   0.925   3.861
    2DG     H4'   37   9.038   0.833   3.867
    2DG     O4'   38   9.056   1.029   3.820
    2DG     C1'   39   9.036   1.144   3.893
    2DG     H1'   40   9.123   1.165   3.955
    2DG      N9   41   8.989   1.250   3.801
    2DG      C8   42   8.869   1.268   3.743
    2DG      H8   43   8.785   1.201   3.756
    2DG      N7   44   8.858   1.378   3.671
    2DG      C5   45   8.983   1.439   3.684
    2DG      C6   46   9.041   1.561   3.640
    2DG      O6   47   8.980   1.652   3.576
    2DG      N1   48   9.178   1.573   3.664
    2DG      H1   49   9.229   1.653   3.627
    2DG      C2   50   9.256   1.480   3.727
    2DG      N2   51   9.380   1.511   3.739
    2DG     H21   52   9.420   1.594   3.699
    2DG     H22   53   9.439   1.455   3.799
    2DG      N3   54   9.202   1.371   3.776
    2DG      C4   55   9.066   1.354   3.751
    2DG     C3'   56   8.928   0.950   4.003
    2DG     H3'   57   8.824   0.916   4.009
    2DG     C2'   58   8.928   1.104   4.000
    2DG    H2'1   59   8.828   1.131   3.966
    2DG    H2'2   60   8.934   1.150   4.098
    2DG     O3'   61   9.017   0.883   4.099
    3DC       P   62   8.994   0.909   4.255
    3DC     O1P   63   9.059   0.792   4.321
    3DC     O2P   64   8.853   0.931   4.278
    3DC     O5'   65   9.083   1.044   4.273
    3DC     C5'   66   9.216   1.057   4.231
    3DC    H5'1   67   9.224   1.026   4.126
    3DC    H5'2   68   9.267   0.991   4.302
    3DC     C4'   69   9.270   1.197   4.252
    3DC     H4'   70   9.378   1.190   4.259
    3DC     O4'   71   9.233   1.287   4.145
    3DC     C1'   72   9.182   1.406   4.208
    3DC     H1'   73   9.261   1.474   4.239
    3DC      N1   74   9.098   1.486   4.112
    3DC      C6   75   8.968   1.460   4.095
    3DC      H6   76   8.923   1.372   4.138
    3DC      C5   77   8.896   1.539   4.014
    3DC      H5   78   8.790   1.527   3.996
    3DC      C4   79   8.961   1.646   3.945
    3DC      N4   80   8.883   1.731   3.871
    3DC     H41   81   8.937   1.797   3.817
    3DC     H42   82   8.786   1.740   3.896
    3DC      N3   83   9.084   1.672   3.960
    3DC      C2   84   9.156   1.593   4.043
    3DC      O2   85   9.278   1.615   4.056
    3DC     C3'   86   9.220   1.270   4.376
    3DC     H3'   87   9.184   1.199   4.450
    3DC     C2'   88   9.106   1.354   4.334
    3DC    H2'1   89   9.020   1.293   4.309
    3DC    H2'2   90   9.092   1.442   4.397
    3DC     O3'   91   9.326   1.346   4.424
    4DA       P   92   9.381   1.332   4.571
    4DA     O1P   93   9.462   1.215   4.573
    4DA     O2P   94   9.269   1.344   4.674
    4DA     O5'   95   9.477   1.462   4.587
    4DA     C5'   96   9.600   1.475   4.519
    4DA    H5'1   97   9.592   1.421   4.425
    4DA    H5'2   98   9.684   1.434   4.574
    4DA     C4'   99   9.637   1.623   4.484
    4DA     H4'  100   9.739   1.621   4.447
    4DA     O4'  101   9.549   1.680   4.397
    4DA     C1'  102   9.492   1.792   4.456
    4DA     H1'  103   9.550   1.878   4.422
    4DA      N9  104   9.351   1.791   4.417
    4DA      C8  105   9.258   1.700   4.453
    4DA      H8  106   9.270   1.630   4.534
    4DA      N7  107   9.147   1.715   4.389
    4DA      C5  108   9.170   1.829   4.307
    4DA      C6  109   9.093   1.900   4.214
    4DA      N6  110   8.963   1.880   4.190
    4DA     H61  111   8.927   1.918   4.103
    4DA     H62  112   8.909   1.826   4.256
    4DA      N1  113   9.150   2.005   4.146
    4DA      C2  114   9.275   2.033   4.166
    4DA      H2  115   9.315   2.111   4.102
    4DA      N3  116   9.352   1.980   4.263
    4DA      C4  117   9.296   1.869   4.323
    4DA     C3'  118   9.642   1.704   4.614
    4DA     H3'  119   9.640   1.639   4.701
    4DA     C2'  120   9.510   1.788   4.601
    4DA    H2'1  121   9.436   1.727   4.653
    4DA    H2'2  122   9.523   1.882   4.655
    4DA     O3'  123   9.761   1.787   4.604
    5DT       P  124   9.795   1.890   4.716
    5DT     O1P  125   9.944   1.905   4.724
    5DT     O2P  126   9.730   1.860   4.844
    5DT     O5'  127   9.733   2.028   4.659
    5DT     C5'  128   9.782   2.087   4.539
    5DT    H5'1  129   9.797   2.004   4.470
    5DT    H5'2  130   9.882   2.123   4.563
    5DT     C4'  131   9.703   2.198   4.478
    5DT     H4'  132   9.747   2.223   4.381
    5DT     O4'  133   9.573   2.142   4.443
    5DT     C1'  134   9.480   2.234   4.498
    5DT     H1'  135   9.479   2.323   4.435
    5DT      N1  136   9.348   2.180   4.525
    5DT      C6  137   9.312   2.090   4.630
    5DT      H6  138   9.382   2.053   4.703
    5DT      C5  139   9.180   2.052   4.639
    5DT      C7  140   9.150   1.944   4.740
    5DT     H71  141   9.235   1.887   4.778
    5DT     H72  142   9.097   1.987   4.826
    5DT     H73  143   9.087   1.863   4.703
    5DT      C4  144   9.080   2.101   4.548
    5DT      O4  145   8.962   2.068   4.540
    5DT      N3  146   9.125   2.192   4.451
    5DT      H3  147   9.057   2.235   4.390
    5DT      C2  148   9.250   2.246   4.442
    5DT      O2  149   9.269   2.345   4.366
    5DT     C3'  150   9.690   2.315   4.570
    5DT     H3'  151   9.765   2.309   4.649
    5DT     C2'  152   9.554   2.278   4.624
    5DT    H2'1  153   9.557   2.195   4.695
    5DT    H2'2  154   9.505   2.372   4.649
    5DT     O3'  155   9.701   2.442   4.503
    6DG       P  156   9.766   2.566   4.588
    6DG     O1P  157   9.904   2.583   4.542
    6DG     O2P  158   9.744   2.549   4.733
    6DG     O5'  159   9.677   2.694   4.533
    6DG     C5'  160   9.683   2.739   4.398
    6DG    H5'1  161   9.734   2.666   4.336
    6DG    H5'2  162   9.754   2.822   4.394
    6DG     C4'  163   9.557   2.796   4.342
    6DG     H4'  164   9.571   2.829   4.239
    6DG     O4'  165   9.454   2.700   4.357
    6DG     C1'  166   9.343   2.756   4.429
    6DG     H1'  167   9.271   2.796   4.359
    6DG      N9  168   9.284   2.648   4.509
    6DG      C8  169   9.347   2.567   4.596
    6DG      H8  170   9.451   2.567   4.622
    6DG      N7  171   9.270   2.486   4.661
    6DG      C5  172   9.141   2.520   4.612
    6DG      C6  173   9.012   2.473   4.649
    6DG      O6  174   8.976   2.388   4.730
    6DG      N1  175   8.916   2.530   4.574
    6DG      H1  176   8.822   2.495   4.586
    6DG      C2  177   8.931   2.621   4.482
    6DG      N2  178   8.820   2.670   4.431
    6DG     H21  179   8.728   2.637   4.460
    6DG     H22  180   8.828   2.745   4.364
    6DG      N3  181   9.044   2.668   4.440
    6DG      C4  182   9.151   2.610   4.512
    6DG     C3'  183   9.512   2.917   4.423
    6DG     H3'  184   9.602   2.952   4.473
    6DG     C2'  185   9.412   2.861   4.521
    6DG    H2'1  186   9.453   2.819   4.613
    6DG    H2'2  187   9.341   2.939   4.546
    6DG     O3'  188   9.462   3.022   4.343
    7DT       P  189   9.415   3.162   4.420
    7DT     O1P  190   9.461   3.270   4.331
    7DT     O2P  191   9.467   3.167   4.559
    7DT     O5'  192   9.252   3.154   4.423
    7DT     C5'  193   9.193   3.130   4.298
    7DT    H5'1  194   9.215   3.028   4.266
    7DT    H5'2  195   9.228   3.207   4.230
    7DT     C4'  196   9.039   3.134   4.309
    7DT     H4'  197   8.996   3.133   4.209
    7DT     O4'  198   8.994   3.013   4.375
    7DT     C1'  199   8.902   3.048   4.483
    7DT     H1'  200   8.799   3.036   4.449
    7DT      N1  201   8.914   2.961   4.603
    7DT      C6  202   9.037   2.947   4.665
    7DT      H6  203   9.122   3.008   4.636
    7DT      C5  204   9.052   2.863   4.770
    7DT      C7  205   9.185   2.848   4.838
    7DT     H71  206   9.261   2.914   4.795
    7DT     H72  207   9.167   2.873   4.942
    7DT     H73  208   9.230   2.749   4.823
    7DT      C4  209   8.937   2.789   4.822
    7DT      O4  210   8.939   2.713   4.919
    7DT      N3  211   8.820   2.810   4.759
    7DT      H3  212   8.741   2.764   4.802
    7DT      C2  213   8.804   2.895   4.649
    7DT      O2  214   8.689   2.893   4.601
    7DT     C3'  215   8.981   3.265   4.376
    7DT     H3'  216   9.063   3.336   4.384
    7DT     C2'  217   8.937   3.201   4.512
    7DT    H2'1  218   9.021   3.221   4.579
    7DT    H2'2  219   8.848   3.252   4.550
    7DT     O3'  220   8.877   3.318   4.297
    8DG       P  221   8.825   3.470   4.311
    8DG     O1P  222   8.750   3.506   4.183
    8DG     O2P  223   8.942   3.555   4.356
    8DG     O5'  224   8.723   3.458   4.433
    8DG     C5'  225   8.588   3.449   4.418
    8DG    H5'1  226   8.566   3.358   4.363
    8DG    H5'2  227   8.557   3.542   4.370
    8DG     C4'  228   8.518   3.438   4.562
    8DG     H4'  229   8.410   3.433   4.557
    8DG     O4'  230   8.569   3.325   4.622
    8DG     C1'  231   8.580   3.351   4.762
    8DG     H1'  232   8.480   3.346   4.807
    8DG      N9  233   8.666   3.257   4.834
    8DG      C8  234   8.802   3.247   4.833
    8DG      H8  235   8.871   3.309   4.778
    8DG      N7  236   8.845   3.145   4.900
    8DG      C5  237   8.730   3.091   4.965
    8DG      C6  238   8.711   2.986   5.055
    8DG      O6  239   8.803   2.921   5.112
    8DG      N1  240   8.581   2.954   5.087
    8DG      H1  241   8.573   2.873   5.146
    8DG      C2  242   8.483   3.002   5.016
    8DG      N2  243   8.367   2.942   5.038
    8DG     H21  244   8.360   2.864   5.102
    8DG     H22  245   8.282   2.988   5.009
    8DG      N3  246   8.495   3.101   4.925
    8DG      C4  247   8.624   3.156   4.912
    8DG     C3'  248   8.544   3.558   4.659
    8DG     H3'  249   8.607   3.635   4.613
    8DG     C2'  250   8.623   3.494   4.773
    8DG    H2'1  251   8.729   3.507   4.751
    8DG    H2'2  252   8.602   3.536   4.872
    8DG     O3'  253   8.437   3.616   4.729
    9DC       P  254   8.317   3.697   4.665
    9DC     O1P  255   8.329   3.681   4.513
    9DC     O2P  256   8.322   3.837   4.710
    9DC     O5'  257   8.174   3.648   4.715
    9DC     C5'  258   8.138   3.515   4.724
    9DC    H5'1  259   8.200   3.446   4.666
    9DC    H5'2  260   8.036   3.508   4.685
    9DC     C4'  261   8.146   3.456   4.871
    9DC     H4'  262   8.071   3.377   4.883
    9DC     O4'  263   8.272   3.416   4.906
    9DC     C1'  264   8.264   3.395   5.048
    9DC     H1'  265   8.209   3.301   5.044
    9DC      N1  266   8.395   3.368   5.123
    9DC      C6  267   8.498   3.445   5.104
    9DC      H6  268   8.479   3.524   5.032
    9DC      C5  269   8.624   3.416   5.151
    9DC      H5  270   8.704   3.483   5.125
    9DC      C4  271   8.630   3.297   5.229
    9DC      N4  272   8.738   3.243   5.274
    9DC     H41  273   8.729   3.156   5.325
    9DC     H42  274   8.826   3.292   5.276
    9DC      N3  275   8.519   3.237   5.273
    9DC      C2  276   8.400   3.271   5.215
    9DC      O2  277   8.302   3.204   5.248
    9DC     C3'  278   8.101   3.557   4.973
    9DC     H3'  279   8.144   3.654   4.948
    9DC     C2'  280   8.180   3.505   5.104
    9DC    H2'1  281   8.249   3.581   5.140
    9DC    H2'2  282   8.117   3.456   5.179
    9DC     O3'  283   7.963   3.561   4.993
   10DG       P  284   7.891   3.654   5.103
   10DG     O1P  285   7.760   3.696   5.051
   10DG     O2P  286   7.994   3.754   5.144
   10DG     O5'  287   7.855   3.569   5.246
   10DG     C5'  288   7.778   3.449   5.257
   10DG    H5'1  289   7.671   3.465   5.244
   10DG    H5'2  290   7.803   3.381   5.175
   10DG     C4'  291   7.801   3.368   5.382
   10DG     H4'  292   7.741   3.277   5.378
   10DG     O4'  293   7.939   3.324   5.389
   10DG     C1'  294   7.977   3.377   5.518
   10DG     H1'  295   7.966   3.299   5.594
   10DG      N9  296   8.115   3.404   5.494
   10DG      C8  297   8.174   3.507   5.427
   10DG      H8  298   8.115   3.581   5.376
   10DG      N7  299   8.301   3.512   5.437
   10DG      C5  300   8.334   3.401   5.521
   10DG      C6  301   8.456   3.347   5.577
   10DG      O6  302   8.570   3.386   5.562
   10DG      N1  303   8.439   3.239   5.652
   10DG      H1  304   8.525   3.192   5.673
   10DG      C2  305   8.322   3.171   5.677
   10DG      N2  306   8.328   3.081   5.773
   10DG     H21  307   8.420   3.047   5.796
   10DG     H22  308   8.244   3.033   5.801
   10DG      N3  309   8.208   3.217   5.628
   10DG      C4  310   8.218   3.329   5.553
   10DG     C3'  311   7.761   3.444   5.510
   10DG     H3'  312   7.686   3.520   5.486
   10DG     C2'  313   7.896   3.497   5.555
   10DG    H2'1  314   7.930   3.588   5.505
   10DG    H2'2  315   7.893   3.517   5.662
   10DG     O3'  316   7.698   3.359   5.615
   11DT       P  317   7.613   3.428   5.727
   11DT     O1P  318   7.485   3.355   5.715
   11DT     O2P  319   7.601   3.574   5.706
   11DT     O5'  320   7.690   3.395   5.869
   11DT     C5'  321   7.680   3.260   5.923
   11DT    H5'1  322   7.704   3.190   5.842
   11DT    H5'2  323   7.577   3.226   5.931
   11DT     C4'  324   7.769   3.221   6.041
   11DT     H4'  325   7.746   3.117   6.066
   11DT     O4'  326   7.911   3.237   6.010
   11DT     C1'  327   7.976   3.344   6.080
   11DT     H1'  328   8.023   3.287   6.160
   11DT      N1  329   8.069   3.426   5.991
   11DT      C6  330   8.020   3.535   5.920
   11DT      H6  331   7.913   3.548   5.912
   11DT      C5  332   8.109   3.618   5.856
   11DT      C7  333   8.043   3.726   5.778
   11DT     H71  334   8.052   3.713   5.670
   11DT     H72  335   7.941   3.728   5.815
   11DT     H73  336   8.088   3.817   5.817
   11DT      C4  337   8.252   3.594   5.853
   11DT      O4  338   8.337   3.651   5.776
   11DT      N3  339   8.293   3.486   5.933
   11DT      H3  340   8.391   3.463   5.937
   11DT      C2  341   8.205   3.405   6.003
   11DT      O2  342   8.252   3.305   6.056
   11DT     C3'  343   7.752   3.306   6.169
   11DT     H3'  344   7.650   3.343   6.182
   11DT     C2'  345   7.854   3.415   6.135
   11DT    H2'1  346   7.817   3.491   6.066
   11DT    H2'2  347   7.890   3.467   6.224
   11DT     O3'  348   7.781   3.217   6.279
   12DA       P  349   7.841   3.252   6.417
   12DA     O1P  350   7.788   3.144   6.502
   12DA     O2P  351   7.811   3.392   6.454
   12DA     O5'  352   8.000   3.239   6.415
   12DA     C5'  353   8.065   3.113   6.386
   12DA    H5'1  354   8.080   3.110   6.278
   12DA    H5'2  355   8.001   3.029   6.411
   12DA     C4'  356   8.201   3.079   6.448
   12DA     H4'  357   8.213   2.971   6.439
   12DA     O4'  358   8.310   3.148   6.376
   12DA     C1'  359   8.350   3.264   6.450
   12DA     H1'  360   8.456   3.248   6.469
   12DA      N9  361   8.338   3.391   6.373
   12DA      C8  362   8.226   3.474   6.357
   12DA      H8  363   8.133   3.445   6.402
   12DA      N7  364   8.248   3.583   6.283
   12DA      C5  365   8.389   3.573   6.255
   12DA      C6  366   8.475   3.652   6.180
   12DA      N6  367   8.458   3.763   6.106
   12DA     H61  368   8.542   3.786   6.054
   12DA     H62  369   8.368   3.806   6.089
   12DA      N1  370   8.602   3.620   6.183
   12DA      C2  371   8.649   3.506   6.246
   12DA      H2  372   8.753   3.481   6.229
   12DA      N3  373   8.573   3.419   6.314
   12DA      C4  374   8.442   3.458   6.311
   12DA     C3'  375   8.215   3.123   6.597
   12DA     H3'  376   8.118   3.123   6.647
   12DA     C2'  377   8.278   3.261   6.583
   12DA    H2'1  378   8.196   3.333   6.577
   12DA    H2'2  379   8.331   3.286   6.674
   12DA     O3'  380   8.293   3.029   6.667
   13DT       P  381   8.344   3.044   6.814
   13DT     O1P  382   8.387   2.902   6.842
   13DT     O2P  383   8.238   3.105   6.892
   13DT     O5'  384   8.471   3.141   6.812
   13DT     C5'  385   8.580   3.109   6.730
   13DT    H5'1  386   8.547   3.091   6.628
   13DT    H5'2  387   8.633   3.024   6.774
   13DT     C4'  388   8.688   3.225   6.721
   13DT     H4'  389   8.766   3.198   6.649
   13DT     O4'  390   8.623   3.329   6.647
   13DT     C1'  391   8.691   3.455   6.677
   13DT     H1'  392   8.794   3.459   6.640
   13DT      N1  393   8.610   3.572   6.632
   13DT      C6  394   8.474   3.577   6.665
   13DT      H6  395   8.424   3.498   6.719
   13DT      C5  396   8.395   3.678   6.613
   13DT      C7  397   8.252   3.691   6.668
   13DT     H71  398   8.229   3.624   6.750
   13DT     H72  399   8.237   3.795   6.700
   13DT     H73  400   8.173   3.667   6.598
   13DT      C4  401   8.459   3.788   6.531
   13DT      O4  402   8.404   3.883   6.478
   13DT      N3  403   8.595   3.764   6.506
   13DT      H3  404   8.637   3.831   6.443
   13DT      C2  405   8.670   3.665   6.548
   13DT      O2  406   8.792   3.666   6.522
   13DT     C3'  407   8.749   3.290   6.848
   13DT     H3'  408   8.711   3.242   6.938
   13DT     C2'  409   8.700   3.437   6.833
   13DT    H2'1  410   8.603   3.455   6.879
   13DT    H2'2  411   8.770   3.510   6.875
   13DT     O3'  412   8.896   3.282   6.837
   14DT       P  413   9.001   3.335   6.939
   14DT     O1P  414   9.104   3.232   6.937
   14DT     O2P  415   8.933   3.363   7.070
   14DT     O5'  416   9.050   3.473   6.882
   14DT     C5'  417   9.157   3.498   6.794
   14DT    H5'1  418   9.141   3.466   6.691
   14DT    H5'2  419   9.241   3.434   6.818
   14DT     C4'  420   9.197   3.646   6.805
   14DT     H4'  421   9.283   3.667   6.741
   14DT     O4'  422   9.081   3.715   6.761
   14DT     C1'  423   9.058   3.834   6.834
   14DT     H1'  424   9.122   3.913   6.796
   14DT      N1  425   8.923   3.878   6.800
   14DT      C6  426   8.808   3.813   6.860
   14DT      H6  427   8.832   3.726   6.918
   14DT      C5  428   8.682   3.864   6.842
   14DT      C7  429   8.573   3.809   6.926
   14DT     H71  430   8.611   3.750   7.010
   14DT     H72  431   8.505   3.888   6.957
   14DT     H73  432   8.506   3.738   6.878
   14DT      C4  433   8.663   3.982   6.757
   14DT      O4  434   8.556   4.037   6.739
   14DT      N3  435   8.779   4.025   6.701
   14DT      H3  436   8.771   4.104   6.639
   14DT      C2  437   8.906   3.993   6.731
   14DT      O2  438   8.993   4.072   6.699
   14DT     C3'  439   9.221   3.703   6.944
   14DT     H3'  440   9.237   3.621   7.015
   14DT     C2'  441   9.093   3.785   6.969
   14DT    H2'1  442   9.024   3.709   7.007
   14DT    H2'2  443   9.106   3.866   7.041
   14DT     O3'  444   9.343   3.787   6.931
   15DA       P  445   9.392   3.897   7.039
   15DA     O1P  446   9.537   3.903   7.030
   15DA     O2P  447   9.343   3.880   7.177
   15DA     O5'  448   9.330   4.037   6.968
   15DA     C5'  449   9.401   4.086   6.855
   15DA    H5'1  450   9.364   4.029   6.771
   15DA    H5'2  451   9.508   4.083   6.876
   15DA     C4'  452   9.364   4.229   6.837
   15DA     H4'  453   9.430   4.259   6.755
   15DA     O4'  454   9.229   4.251   6.801
   15DA     C1'  455   9.174   4.357   6.887
   15DA     H1'  456   9.179   4.459   6.848
   15DA      N9  457   9.029   4.321   6.907
   15DA      C8  458   8.983   4.213   6.979
   15DA      H8  459   9.048   4.135   7.016
   15DA      N7  460   8.849   4.209   6.985
   15DA      C5  461   8.811   4.318   6.906
   15DA      C6  462   8.691   4.375   6.868
   15DA      N6  463   8.570   4.332   6.903
   15DA     H61  464   8.502   4.392   6.857
   15DA     H62  465   8.546   4.242   6.942
   15DA      N1  466   8.687   4.486   6.798
   15DA      C2  467   8.795   4.544   6.754
   15DA      H2  468   8.777   4.627   6.686
   15DA      N3  469   8.922   4.501   6.784
   15DA      C4  470   8.923   4.390   6.861
   15DA     C3'  471   9.392   4.325   6.951
   15DA     H3'  472   9.457   4.275   7.024
   15DA     C2'  473   9.250   4.353   7.012
   15DA    H2'1  474   9.221   4.270   7.076
   15DA    H2'2  475   9.251   4.452   7.058
   15DA     O3'  476   9.461   4.438   6.903
   16DT       P  477   9.554   4.541   6.992
   16DT     O1P  478   9.652   4.600   6.902
   16DT     O2P  479   9.600   4.478   7.109
   16DT     O5'  480   9.451   4.662   7.038
   16DT     C5'  481   9.415   4.757   6.937
   16DT    H5'1  482   9.392   4.714   6.840
   16DT    H5'2  483   9.492   4.833   6.924
   16DT     C4'  484   9.284   4.824   6.978
   16DT     H4'  485   9.264   4.900   6.902
   16DT     O4'  486   9.180   4.725   6.985
   16DT     C1'  487   9.095   4.774   7.090
   16DT     H1'  488   9.045   4.859   7.045
   16DT      N1  489   8.990   4.674   7.129
   16DT      C6  490   9.025   4.566   7.212
   16DT      H6  491   9.128   4.555   7.242
   16DT      C5  492   8.933   4.478   7.256
   16DT      C7  493   8.974   4.364   7.347
   16DT     H71  494   8.897   4.363   7.424
   16DT     H72  495   8.966   4.272   7.288
   16DT     H73  496   9.071   4.384   7.391
   16DT      C4  497   8.797   4.492   7.205
   16DT      O4  498   8.701   4.420   7.230
   16DT      N3  499   8.770   4.601   7.125
   16DT      H3  500   8.673   4.623   7.109
   16DT      C2  501   8.861   4.690   7.076
   16DT      O2  502   8.823   4.791   7.019
   16DT     C3'  503   9.291   4.901   7.112
   16DT     H3'  504   9.394   4.904   7.146
   16DT     C2'  505   9.196   4.812   7.197
   16DT    H2'1  506   9.255   4.727   7.232
   16DT    H2'2  507   9.140   4.851   7.283
   16DT     O3'  508   9.236   5.029   7.102
   17DA       P  509   9.334   5.160   7.110
   17DA     O1P  510   9.422   5.154   6.993
   17DA     O2P  511   9.392   5.158   7.247
   17DA     O5'  512   9.238   5.291   7.104
   17DA     C5'  513   9.163   5.321   6.989
   17DA    H5'1  514   9.137   5.225   6.944
   17DA    H5'2  515   9.201   5.396   6.920
   17DA     C4'  516   9.020   5.383   7.024
   17DA     H4'  517   8.989   5.431   6.931
   17DA     O4'  518   8.924   5.286   7.056
   17DA     C1'  519   8.885   5.304   7.197
   17DA     H1'  520   8.788   5.352   7.201
   17DA      N9  521   8.869   5.171   7.260
   17DA      C8  522   8.963   5.099   7.329
   17DA      H8  523   9.065   5.135   7.331
   17DA      N7  524   8.926   4.980   7.366
   17DA      C5  525   8.794   4.968   7.327
   17DA      C6  526   8.687   4.877   7.338
   17DA      N6  527   8.692   4.763   7.406
   17DA     H61  528   8.611   4.703   7.410
   17DA     H62  529   8.769   4.733   7.464
   17DA      N1  530   8.570   4.896   7.273
   17DA      C2  531   8.555   5.007   7.205
   17DA      H2  532   8.467   5.019   7.143
   17DA      N3  533   8.639   5.111   7.195
   17DA      C4  534   8.759   5.082   7.259
   17DA     C3'  535   9.016   5.480   7.146
   17DA     H3'  536   9.116   5.521   7.159
   17DA     C2'  537   8.988   5.392   7.265
   17DA    H2'1  538   9.086   5.353   7.289
   17DA    H2'2  539   8.943   5.446   7.348
   17DA     O3'  540   8.929   5.593   7.117
   18DC       P  541   8.917   5.711   7.222
   18DC     O1P  542   8.863   5.832   7.156
   18DC     O2P  543   9.046   5.713   7.296
   18DC     O5'  544   8.804   5.678   7.330
   18DC     C5'  545   8.673   5.647   7.277
   18DC    H5'1  546   8.695   5.594   7.185
   18DC    H5'2  547   8.610   5.729   7.244
   18DC     C4'  548   8.593   5.561   7.371
   18DC     H4'  549   8.501   5.529   7.323
   18DC     O4'  550   8.663   5.442   7.400
   18DC     C1'  551   8.588   5.386   7.504
   18DC     H1'  552   8.493   5.362   7.457
   18DC      N1  553   8.655   5.264   7.548
   18DC      C6  554   8.788   5.259   7.577
   18DC      H6  555   8.845   5.343   7.541
   18DC      C5  556   8.846   5.160   7.654
   18DC      H5  557   8.951   5.151   7.678
   18DC      C4  558   8.752   5.059   7.690
   18DC      N4  559   8.795   4.946   7.734
   18DC     H41  560   8.727   4.872   7.744
   18DC     H42  561   8.893   4.925   7.736
   18DC      N3  562   8.621   5.053   7.661
   18DC      C2  563   8.576   5.158   7.596
   18DC      O2  564   8.453   5.157   7.573
   18DC     C3'  565   8.559   5.625   7.506
   18DC     H3'  566   8.637   5.697   7.530
   18DC     C2'  567   8.564   5.507   7.604
   18DC    H2'1  568   8.647   5.519   7.673
   18DC    H2'2  569   8.471   5.494   7.659
   18DC     O3'  570   8.427   5.688   7.510
   19DA       P  571   8.384   5.782   7.631
   19DA     O1P  572   8.310   5.892   7.560
   19DA     O2P  573   8.496   5.821   7.720
   19DA     O5'  574   8.286   5.690   7.726
   19DA     C5'  575   8.163   5.625   7.691
   19DA    H5'1  576   8.172   5.600   7.585
   19DA    H5'2  577   8.093   5.703   7.719
   19DA     C4'  578   8.125   5.507   7.782
   19DA     H4'  579   8.026   5.473   7.752
   19DA     O4'  580   8.219   5.400   7.775
   19DA     C1'  581   8.242   5.355   7.910
   19DA     H1'  582   8.156   5.296   7.943
   19DA      N9  583   8.369   5.283   7.926
   19DA      C8  584   8.502   5.321   7.903
   19DA      H8  585   8.524   5.422   7.874
   19DA      N7  586   8.585   5.222   7.922
   19DA      C5  587   8.503   5.115   7.963
   19DA      C6  588   8.534   4.985   8.011
   19DA      N6  589   8.652   4.932   8.004
   19DA     H61  590   8.661   4.836   8.037
   19DA     H62  591   8.728   4.981   7.959
   19DA      N1  592   8.436   4.909   8.056
   19DA      C2  593   8.314   4.950   8.044
   19DA      H2  594   8.242   4.888   8.095
   19DA      N3  595   8.269   5.068   8.006
   19DA      C4  596   8.371   5.153   7.964
   19DA     C3'  597   8.116   5.556   7.928
   19DA     H3'  598   8.132   5.663   7.944
   19DA     C2'  599   8.231   5.482   8.001
   19DA    H2'1  600   8.323   5.535   7.978
   19DA    H2'2  601   8.212   5.458   8.106
   19DA     O3'  602   7.981   5.525   7.972
   20DT       P  603   7.930   5.542   8.121
   20DT     O1P  604   7.784   5.575   8.134
   20DT     O2P  605   8.027   5.630   8.197
   20DT     O5'  606   7.944   5.389   8.169
   20DT     C5'  607   7.865   5.281   8.117
   20DT    H5'1  608   7.903   5.265   8.016
   20DT    H5'2  609   7.762   5.316   8.108
   20DT     C4'  610   7.852   5.153   8.203
   20DT     H4'  611   7.770   5.093   8.162
   20DT     O4'  612   7.982   5.087   8.202
   20DT     C1'  613   8.025   5.074   8.333
   20DT     H1'  614   7.995   4.982   8.382
   20DT      N1  615   8.170   5.088   8.341
   20DT      C6  616   8.234   5.210   8.326
   20DT      H6  617   8.176   5.298   8.305
   20DT      C5  618   8.371   5.220   8.330
   20DT      C7  619   8.424   5.359   8.329
   20DT     H71  620   8.477   5.386   8.420
   20DT     H72  621   8.494   5.358   8.246
   20DT     H73  622   8.344   5.431   8.308
   20DT      C4  623   8.452   5.100   8.348
   20DT      O4  624   8.574   5.094   8.344
   20DT      N3  625   8.384   4.992   8.381
   20DT      H3  626   8.441   4.910   8.390
   20DT      C2  627   8.249   4.974   8.361
   20DT      O2  628   8.193   4.862   8.372
   20DT     C3'  629   7.816   5.196   8.346
   20DT     H3'  630   7.795   5.303   8.352
   20DT     C2'  631   7.956   5.181   8.415
   20DT    H2'1  632   8.005   5.278   8.407
   20DT    H2'2  633   7.949   5.143   8.517
   20DT     O3'  634   7.711   5.124   8.408
   21DT       P  635   7.687   5.107   8.563
   21DT     O1P  636   7.544   5.072   8.580
   21DT     O2P  637   7.742   5.223   8.632
   21DT     O5'  638   7.776   4.980   8.605
   21DT     C5'  639   7.741   4.849   8.547
   21DT    H5'1  640   7.738   4.854   8.438
   21DT    H5'2  641   7.640   4.813   8.563
   21DT     C4'  642   7.828   4.734   8.599
   21DT     H4'  643   7.795   4.639   8.559
   21DT     O4'  644   7.967   4.764   8.578
   21DT     C1'  645   8.042   4.759   8.696
   21DT     H1'  646   8.088   4.660   8.697
   21DT      N1  647   8.145   4.863   8.705
   21DT      C6  648   8.103   4.998   8.712
   21DT      H6  649   8.005   5.038   8.733
   21DT      C5  650   8.197   5.097   8.697
   21DT      C7  651   8.154   5.244   8.710
   21DT     H71  652   8.048   5.250   8.734
   21DT     H72  653   8.213   5.288   8.790
   21DT     H73  654   8.178   5.305   8.622
   21DT      C4  655   8.339   5.063   8.680
   21DT      O4  656   8.428   5.151   8.658
   21DT      N3  657   8.372   4.928   8.678
   21DT      H3  658   8.470   4.905   8.667
   21DT      C2  659   8.282   4.828   8.687
   21DT      O2  660   8.312   4.714   8.672
   21DT     C3'  661   7.821   4.703   8.749
   21DT     H3'  662   7.727   4.746   8.782
   21DT     C2'  663   7.943   4.772   8.812
   21DT    H2'1  664   7.921   4.876   8.835
   21DT    H2'2  665   7.975   4.718   8.902
   21DT     O3'  666   7.809   4.561   8.775
   22DG       P  667   7.775   4.512   8.926
   22DG     O1P  668   7.718   4.374   8.924
   22DG     O2P  669   7.713   4.619   9.000
   22DG     O5'  670   7.921   4.497   8.979
   22DG     C5'  671   8.023   4.408   8.922
   22DG    H5'1  672   8.020   4.416   8.813
   22DG    H5'2  673   7.988   4.316   8.968
   22DG     C4'  674   8.160   4.417   8.979
   22DG     H4'  675   8.228   4.348   8.929
   22DG     O4'  676   8.216   4.541   8.943
   22DG     C1'  677   8.299   4.587   9.049
   22DG     H1'  678   8.392   4.531   9.048
   22DG      N9  679   8.342   4.723   9.030
   22DG      C8  680   8.265   4.834   9.014
   22DG      H8  681   8.160   4.841   9.035
   22DG      N7  682   8.328   4.944   9.003
   22DG      C5  683   8.462   4.904   8.999
   22DG      C6  684   8.584   4.989   9.003
   22DG      O6  685   8.586   5.116   9.003
   22DG      N1  686   8.704   4.919   9.018
   22DG      H1  687   8.792   4.967   9.017
   22DG      C2  688   8.703   4.783   9.027
   22DG      N2  689   8.811   4.716   9.045
   22DG     H21  690   8.905   4.753   9.038
   22DG     H22  691   8.795   4.618   9.063
   22DG      N3  692   8.590   4.705   9.037
   22DG      C4  693   8.473   4.771   9.014
   22DG     C3'  694   8.159   4.420   9.129
   22DG     H3'  695   8.054   4.417   9.161
   22DG     C2'  696   8.217   4.555   9.173
   22DG    H2'1  697   8.128   4.618   9.175
   22DG    H2'2  698   8.276   4.560   9.265
   22DG     O3'  699   8.235   4.308   9.179
   23DT       P  700   8.243   4.275   9.334
   23DT     O1P  701   8.274   4.133   9.346
   23DT     O2P  702   8.123   4.325   9.402
   23DT     O5'  703   8.360   4.355   9.391
   23DT     C5'  704   8.496   4.338   9.351
   23DT    H5'1  705   8.492   4.363   9.245
   23DT    H5'2  706   8.532   4.235   9.354
   23DT     C4'  707   8.604   4.427   9.415
   23DT     H4'  708   8.700   4.387   9.380
   23DT     O4'  709   8.585   4.551   9.344
   23DT     C1'  710   8.651   4.647   9.427
   23DT     H1'  711   8.759   4.644   9.416
   23DT      N1  712   8.596   4.778   9.389
   23DT      C6  713   8.458   4.804   9.404
   23DT      H6  714   8.388   4.727   9.430
   23DT      C5  715   8.408   4.925   9.379
   23DT      C7  716   8.263   4.949   9.384
   23DT     H71  717   8.232   5.004   9.473
   23DT     H72  718   8.239   4.997   9.289
   23DT     H73  719   8.214   4.851   9.391
   23DT      C4  720   8.499   5.035   9.331
   23DT      O4  721   8.469   5.153   9.308
   23DT      N3  722   8.629   5.003   9.305
   23DT      H3  723   8.692   5.080   9.286
   23DT      C2  724   8.685   4.886   9.345
   23DT      O2  725   8.809   4.874   9.343
   23DT     C3'  726   8.612   4.451   9.566
   23DT     H3'  727   8.518   4.431   9.618
   23DT     C2'  728   8.617   4.604   9.569
   23DT    H2'1  729   8.523   4.645   9.606
   23DT    H2'2  730   8.694   4.645   9.635
   23DT     O3'  731   8.728   4.382   9.610
   24DA       P  732   8.789   4.390   9.763
   24DA     O1P  733   8.816   4.249   9.803
   24DA     O2P  734   8.706   4.478   9.846
   24DA     O5'  735   8.926   4.464   9.754
   24DA     C5'  736   9.048   4.402   9.731
   24DA    H5'1  737   9.049   4.357   9.632
   24DA    H5'2  738   9.063   4.322   9.803
   24DA     C4'  739   9.176   4.489   9.735
   24DA     H4'  740   9.255   4.433   9.685
   24DA     O4'  741   9.147   4.617   9.675
   24DA     C1'  742   9.127   4.712   9.790
   24DA     H1'  743   9.206   4.786   9.782
   24DA      N9  744   9.008   4.791   9.775
   24DA      C8  745   8.874   4.757   9.806
   24DA      H8  746   8.845   4.673   9.868
   24DA      N7  747   8.784   4.838   9.753
   24DA      C5  748   8.872   4.938   9.702
   24DA      C6  749   8.848   5.063   9.631
   24DA      N6  750   8.731   5.111   9.607
   24DA     H61  751   8.720   5.198   9.558
   24DA     H62  752   8.657   5.074   9.666
   24DA      N1  753   8.948   5.135   9.576
   24DA      C2  754   9.070   5.093   9.596
   24DA      H2  755   9.149   5.154   9.556
   24DA      N3  756   9.105   4.978   9.654
   24DA      C4  757   9.004   4.908   9.707
   24DA     C3'  758   9.219   4.509   9.888
   24DA     H3'  759   9.188   4.420   9.942
   24DA     C2'  760   9.132   4.628   9.921
   24DA    H2'1  761   9.031   4.595   9.944
   24DA    H2'2  762   9.170   4.693  10.000
   24DA     O3'  763   9.358   4.537   9.899
   25DC       P  764   9.434   4.537  10.039
   25DC     O1P  765   9.578   4.518  10.015
   25DC     O2P  766   9.366   4.464  10.143
   25DC     O5'  767   9.413   4.698  10.067
   25DC     C5'  768   9.475   4.794   9.983
   25DC    H5'1  769   9.440   4.771   9.882
   25DC    H5'2  770   9.582   4.781   9.999
   25DC     C4'  771   9.437   4.933  10.020
   25DC     H4'  772   9.497   5.003   9.962
   25DC     O4'  773   9.304   4.954   9.974
   25DC     C1'  774   9.237   5.026  10.062
   25DC     H1'  775   9.272   5.128  10.053
   25DC      N1  776   9.089   5.024  10.047
   25DC      C6  777   9.006   4.927  10.103
   25DC      H6  778   9.049   4.839  10.148
   25DC      C5  779   8.873   4.953  10.118
   25DC      H5  780   8.812   4.879  10.167
   25DC      C4  781   8.822   5.065  10.053
   25DC      N4  782   8.692   5.088  10.076
   25DC     H41  783   8.639   5.162  10.033
   25DC     H42  784   8.641   5.036  10.146
   25DC      N3  785   8.899   5.150   9.979
   25DC      C2  786   9.031   5.131   9.975
   25DC      O2  787   9.106   5.216   9.932
   25DC     C3'  788   9.438   4.967  10.168
   25DC     H3'  789   9.490   4.887  10.219
   25DC     C2'  790   9.288   4.967  10.194
   25DC    H2'1  791   9.249   4.866  10.202
   25DC    H2'2  792   9.247   5.022  10.278
   25DC     O3'  793   9.495   5.094  10.196
   26DG       P  794   9.563   5.123  10.334
   26DG     O1P  795   9.707   5.087  10.330
   26DG     O2P  796   9.471   5.064  10.441
   26DG     O5'  797   9.538   5.284  10.334
   26DG     C5'  798   9.632   5.375  10.286
   26DG    H5'1  799   9.657   5.349  10.183
   26DG    H5'2  800   9.731   5.375  10.331
   26DG     C4'  801   9.583   5.521  10.290
   26DG     H4'  802   9.662   5.592  10.264
   26DG     O4'  803   9.467   5.534  10.213
   26DG     C1'  804   9.364   5.594  10.287
   26DG     H1'  805   9.337   5.696  10.261
   26DG      N9  806   9.242   5.511  10.267
   26DG      C8  807   9.232   5.372  10.254
   26DG      H8  808   9.320   5.310  10.259
   26DG      N7  809   9.110   5.331  10.241
   26DG      C5  810   9.033   5.445  10.240
   26DG      C6  811   8.887   5.469  10.231
   26DG      O6  812   8.797   5.393  10.211
   26DG      N1  813   8.852   5.603  10.234
   26DG      H1  814   8.754   5.626  10.231
   26DG      C2  815   8.945   5.701  10.259
   26DG      N2  816   8.905   5.820  10.275
   26DG     H21  817   8.807   5.846  10.280
   26DG     H22  818   8.982   5.874  10.311
   26DG      N3  819   9.076   5.688  10.255
   26DG      C4  820   9.114   5.557  10.252
   26DG     C3'  821   9.555   5.553  10.434
   26DG     H3'  822   9.568   5.468  10.501
   26DG     C2'  823   9.412   5.588  10.432
   26DG    H2'1  824   9.357   5.506  10.479
   26DG    H2'2  825   9.399   5.685  10.478
   26DG     O3'  826   9.633   5.664  10.468
   27DC       P  827   9.657   5.717  10.615
   27DC     O1P  828   9.773   5.808  10.614
   27DC     O2P  829   9.662   5.602  10.704
   27DC     O5'  830   9.530   5.804  10.653
   27DC     C5'  831   9.501   5.932  10.592
   27DC    H5'1  832   9.521   5.938  10.485
   27DC    H5'2  833   9.571   6.001  10.640
   27DC     C4'  834   9.353   5.980  10.605
   27DC     H4'  835   9.348   6.076  10.553
   27DC     O4'  836   9.256   5.888  10.549
   27DC     C1'  837   9.156   5.863  10.646
   27DC     H1'  838   9.080   5.940  10.641
   27DC      N1  839   9.096   5.726  10.620
   27DC      C6  840   9.158   5.605  10.642
   27DC      H6  841   9.262   5.594  10.666
   27DC      C5  842   9.089   5.492  10.624
   27DC      H5  843   9.143   5.399  10.638
   27DC      C4  844   8.951   5.502  10.587
   27DC      N4  845   8.873   5.404  10.582
   27DC     H41  846   8.778   5.422  10.555
   27DC     H42  847   8.902   5.312  10.611
   27DC      N3  848   8.891   5.618  10.559
   27DC      C2  849   8.963   5.732  10.584
   27DC      O2  850   8.902   5.837  10.585
   27DC     C3'  851   9.328   5.995  10.755
   27DC     H3'  852   9.422   5.980  10.808
   27DC     C2'  853   9.233   5.872  10.779
   27DC    H2'1  854   9.291   5.782  10.799
   27DC    H2'2  855   9.171   5.897  10.866
   27DC     O3'  856   9.261   6.117  10.792
   28DA       P  857   9.253   6.170  10.946
   28DA     O1P  858   9.343   6.281  10.946
   28DA     O2P  859   9.280   6.062  11.045
   28DA     O5'  860   9.101   6.218  10.962
   28DA     C5'  861   9.042   6.328  10.891
   28DA    H5'1  862   9.083   6.326  10.790
   28DA    H5'2  863   9.062   6.423  10.941
   28DA     C4'  864   8.888   6.313  10.871
   28DA     H4'  865   8.867   6.404  10.816
   28DA     O4'  866   8.841   6.193  10.811
   28DA     C1'  867   8.763   6.125  10.906
   28DA     H1'  868   8.659   6.137  10.877
   28DA      N9  869   8.806   5.979  10.909
   28DA      C8  870   8.916   5.926  10.970
   28DA      H8  871   8.996   5.982  11.015
   28DA      N7  872   8.911   5.797  10.977
   28DA      C5  873   8.785   5.769  10.925
   28DA      C6  874   8.713   5.649  10.908
   28DA      N6  875   8.755   5.529  10.954
   28DA     H61  876   8.696   5.449  10.934
   28DA     H62  877   8.849   5.517  10.989
   28DA      N1  878   8.589   5.651  10.847
   28DA      C2  879   8.534   5.768  10.819
   28DA      H2  880   8.433   5.762  10.781
   28DA      N3  881   8.589   5.887  10.832
   28DA      C4  882   8.717   5.880  10.881
   28DA     C3'  883   8.821   6.327  11.012
   28DA     H3'  884   8.890   6.366  11.087
   28DA     C2'  885   8.783   6.190  11.043
   28DA    H2'1  886   8.865   6.145  11.099
   28DA    H2'2  887   8.688   6.179  11.096
   28DA     O3'  888   8.710   6.418  10.999
   29DT       P  889   8.623   6.466  11.122
   29DT     O1P  890   8.575   6.601  11.086
   29DT     O2P  891   8.698   6.449  11.247
   29DT     O5'  892   8.499   6.375  11.117
   29DT     C5'  893   8.416   6.363  11.014
   29DT    H5'1  894   8.471   6.321  10.929
   29DT    H5'2  895   8.383   6.463  10.986
   29DT     C4'  896   8.286   6.280  11.048
   29DT     H4'  897   8.206   6.297  10.977
   29DT     O4'  898   8.324   6.142  11.053
   29DT     C1'  899   8.292   6.093  11.181
   29DT     H1'  900   8.192   6.050  11.182
   29DT      N1  901   8.380   5.970  11.212
   29DT      C6  902   8.508   5.981  11.262
   29DT      H6  903   8.541   6.082  11.282
   29DT      C5  904   8.596   5.876  11.269
   29DT      C7  905   8.733   5.895  11.329
   29DT     H71  906   8.752   5.998  11.359
   29DT     H72  907   8.736   5.839  11.422
   29DT     H73  908   8.816   5.857  11.270
   29DT      C4  909   8.557   5.739  11.242
   29DT      O4  910   8.616   5.637  11.270
   29DT      N3  911   8.431   5.731  11.186
   29DT      H3  912   8.391   5.640  11.170
   29DT      C2  913   8.341   5.838  11.173
   29DT      O2  914   8.235   5.813  11.110
   29DT     C3'  915   8.235   6.326  11.184
   29DT     H3'  916   8.275   6.424  11.209
   29DT     C2'  917   8.289   6.214  11.276
   29DT    H2'1  918   8.387   6.245  11.310
   29DT    H2'2  919   8.213   6.200  11.353
   29DT     O3'  920   8.090   6.334  11.180
   30DA       P  921   7.994   6.363  11.308
   30DA     O1P  922   7.880   6.424  11.244
   30DA     O2P  923   8.065   6.432  11.415
   30DA     O5'  924   7.947   6.224  11.366
   30DA     C5'  925   7.904   6.125  11.271
   30DA    H5'1  926   7.971   6.129  11.185
   30DA    H5'2  927   7.801   6.142  11.240
   30DA     C4'  928   7.908   5.979  11.325
   30DA     H4'  929   7.847   5.929  11.249
   30DA     O4'  930   8.047   5.934  11.329
   30DA     C1'  931   8.051   5.866  11.460
   30DA     H1'  932   8.007   5.767  11.449
   30DA      N9  933   8.185   5.866  11.514
   30DA      C8  934   8.263   5.975  11.550
   30DA      H8  935   8.228   6.077  11.554
   30DA      N7  936   8.384   5.942  11.596
   30DA      C5  937   8.388   5.802  11.577
   30DA      C6  938   8.487   5.697  11.594
   30DA      N6  939   8.606   5.727  11.638
   30DA     H61  940   8.675   5.654  11.648
   30DA     H62  941   8.629   5.822  11.664
   30DA      N1  942   8.457   5.575  11.554
   30DA      C2  943   8.334   5.546  11.513
   30DA      H2  944   8.292   5.448  11.495
   30DA      N3  945   8.240   5.631  11.503
   30DA      C4  946   8.271   5.758  11.530
   30DA     C3'  947   7.842   5.973  11.461
   30DA     H3'  948   7.791   6.067  11.478
   30DA     C2'  949   7.959   5.940  11.550
   30DA    H2'1  950   7.999   6.033  11.591
   30DA    H2'2  951   7.929   5.889  11.641
   30DA     O3'  952   7.762   5.863  11.453
   31DT       P  953   7.626   5.861  11.543
   31DT     O1P  954   7.512   5.839  11.451
   31DT     O2P  955   7.626   5.975  11.640
   31DT     O5'  956   7.643   5.730  11.636
   31DT     C5'  957   7.643   5.602  11.573
   31DT    H5'1  958   7.673   5.616  11.469
   31DT    H5'2  959   7.544   5.556  11.577
   31DT     C4'  960   7.739   5.500  11.630
   31DT     H4'  961   7.733   5.415  11.563
   31DT     O4'  962   7.872   5.541  11.646
   31DT     C1'  963   7.945   5.451  11.720
   31DT     H1'  964   7.967   5.361  11.663
   31DT      N1  965   8.063   5.517  11.777
   31DT      C6  966   8.060   5.643  11.834
   31DT      H6  967   7.965   5.695  11.827
   31DT      C5  968   8.170   5.703  11.887
   31DT      C7  969   8.159   5.845  11.931
   31DT     H71  970   8.157   5.914  11.847
   31DT     H72  971   8.072   5.861  11.995
   31DT     H73  972   8.249   5.874  11.986
   31DT      C4  973   8.294   5.635  11.889
   31DT      O4  974   8.403   5.679  11.911
   31DT      N3  975   8.291   5.506  11.852
   31DT      H3  976   8.373   5.450  11.869
   31DT      C2  977   8.183   5.441  11.789
   31DT      O2  978   8.198   5.330  11.736
   31DT     C3'  979   7.706   5.460  11.772
   31DT     H3'  980   7.656   5.537  11.830
   31DT     C2'  981   7.843   5.415  11.824
   31DT    H2'1  982   7.857   5.467  11.918
   31DT    H2'2  983   7.849   5.307  11.842
   31DT     O3'  984   7.608   5.358  11.766
   32DG       P  985   7.540   5.275  11.886
   32DG     O1P  986   7.405   5.224  11.843
   32DG     O2P  987   7.552   5.372  11.999
   32DG     O5'  988   7.639   5.157  11.903
   32DG     C5'  989   7.641   5.060  11.806
   32DG    H5'1  990   7.688   5.104  11.718
   32DG    H5'2  991   7.542   5.019  11.786
   32DG     C4'  992   7.729   4.941  11.851
   32DG     H4'  993   7.733   4.868  11.770
   32DG     O4'  994   7.850   5.001  11.875
   32DG     C1'  995   7.899   4.969  12.008
   32DG     H1'  996   7.959   4.879  12.004
   32DG      N9  997   7.975   5.087  12.059
   32DG      C8  998   7.919   5.210  12.074
   32DG      H8  999   7.812   5.227  12.072
   32DG      N7 1000   8.008   5.304  12.102
   32DG      C5 1001   8.130   5.239  12.105
   32DG      C6 1002   8.266   5.291  12.128
   32DG      O6 1003   8.308   5.406  12.143
   32DG      N1 1004   8.365   5.189  12.138
   32DG      H1 1005   8.460   5.214  12.157
   32DG      C2 1006   8.336   5.061  12.113
   32DG      N2 1007   8.436   4.981  12.110
   32DG     H21 1008   8.529   5.020  12.116
   32DG     H22 1009   8.411   4.884  12.092
   32DG      N3 1010   8.213   5.016  12.075
   32DG      C4 1011   8.111   5.103  12.086
   32DG     C3' 1012   7.680   4.873  11.984
   32DG     H3' 1013   7.573   4.884  11.999
   32DG     C2' 1014   7.774   4.937  12.089
   32DG    H2'1 1015   7.730   5.032  12.120
   32DG    H2'2 1016   7.800   4.870  12.171
   32DG     O3' 1017   7.719   4.732  11.977
   33DC3      P 1018   7.654   4.623  12.073
   33DC3    O1P 1019   7.634   4.498  11.993
   33DC3    O2P 1020   7.531   4.687  12.129
   33DC3    O5' 1021   7.759   4.595  12.192
   33DC3    C5' 1022   7.878   4.531  12.168
   33DC3   H5'1 1023   7.919   4.548  12.069
   33DC3   H5'2 1024   7.848   4.426  12.178
   33DC3    C4' 1025   7.969   4.540  12.290
   33DC3    H4' 1026   8.052   4.474  12.269
   33DC3    O4' 1027   8.026   4.665  12.301
   33DC3    C1' 1028   8.017   4.710  12.436
   33DC3    H1' 1029   8.104   4.686  12.498
   33DC3     N1 1030   8.011   4.862  12.441
   33DC3     C6 1031   7.896   4.931  12.422
   33DC3     H6 1032   7.802   4.878  12.418
   33DC3     C5 1033   7.897   5.065  12.412
   33DC3     H5 1034   7.807   5.124  12.405
   33DC3     C4 1035   8.026   5.130  12.417
   33DC3     N4 1036   8.037   5.262  12.415
   33DC3    H41 1037   8.125   5.302  12.444
   33DC3    H42 1038   7.955   5.319  12.431
   33DC3     N3 1039   8.140   5.065  12.411
   33DC3     C2 1040   8.133   4.926  12.425
   33DC3     O2 1041   8.243   4.872  12.425
   33DC3    C3' 1042   7.923   4.505  12.426
   33DC3    H3' 1043   7.830   4.450  12.412
   33DC3    C2' 1044   7.900   4.637  12.497
   33DC3   H2'1 1045   7.805   4.675  12.462
   33DC3   H2'2 1046   7.902   4.635  12.606
   33DC3    O3' 1047   8.024   4.435  12.499
   33DC3    H3T 1048   8.017   4.341  12.486
   34DG5    H5T 1049   8.909   5.433  12.954
   34DG5    O5' 1050   9.004   5.417  12.953
   34DG5    C5' 1051   9.024   5.290  12.915
   34DG5   H5'1 1052   8.953   5.222  12.963
   34DG5   H5'2 1053   9.123   5.254  12.940
   34DG5    C4' 1054   9.010   5.269  12.762
   34DG5    H4' 1055   9.045   5.168  12.745
   34DG5    O4' 1056   8.877   5.279  12.726
   34DG5    C1' 1057   8.880   5.344  12.600
   34DG5    H1' 1058   8.906   5.270  12.524
   34DG5     N9 1059   8.742   5.384  12.574
   34DG5     C8 1060   8.684   5.502  12.608
   34DG5     H8 1061   8.736   5.585  12.653
   34DG5     N7 1062   8.555   5.517  12.575
   34DG5     C5 1063   8.529   5.384  12.530
   34DG5     C6 1064   8.402   5.338  12.484
   34DG5     O6 1065   8.301   5.393  12.466
   34DG5     N1 1066   8.408   5.202  12.455
   34DG5     H1 1067   8.322   5.151  12.442
   34DG5     C2 1068   8.520   5.127  12.474
   34DG5     N2 1069   8.509   4.997  12.443
   34DG5    H21 1070   8.419   4.959  12.416
   34DG5    H22 1071   8.593   4.941  12.447
   34DG5     N3 1072   8.642   5.168  12.504
   34DG5     C4 1073   8.641   5.300  12.534
   34DG5    C3' 1074   9.095   5.369  12.675
   34DG5    H3' 1075   9.164   5.435  12.727
   34DG5    C2' 1076   8.978   5.456  12.608
   34DG5   H2'1 1077   8.948   5.522  12.689
   34DG5   H2'2 1078   9.005   5.498  12.511
   34DG5    O3' 1079   9.160   5.305  12.564
   35DC       P 1080   9.294   5.222  12.577
   35DC     O1P 1081   9.305   5.148  12.706
   35DC     O2P 1082   9.400   5.324  12.541
   35DC     O5' 1083   9.282   5.128  12.452
   35DC     C5' 1084   9.191   5.019  12.449
   35DC    H5'1 1085   9.119   5.027  12.531
   35DC    H5'2 1086   9.247   4.927  12.463
   35DC     C4' 1087   9.111   5.000  12.322
   35DC     H4' 1088   9.102   4.892  12.310
   35DC     O4' 1089   8.982   5.069  12.338
   35DC     C1' 1090   8.968   5.155  12.224
   35DC     H1' 1091   8.945   5.104  12.130
   35DC      N1 1092   8.858   5.245  12.237
   35DC      C6 1093   8.877   5.374  12.281
   35DC      H6 1094   8.973   5.396  12.324
   35DC      C5 1095   8.776   5.468  12.273
   35DC      H5 1096   8.792   5.572  12.297
   35DC      C4 1097   8.649   5.426  12.217
   35DC      N4 1098   8.559   5.520  12.195
   35DC     H41 1099   8.463   5.500  12.169
   35DC     H42 1100   8.594   5.615  12.194
   35DC      N3 1101   8.623   5.297  12.194
   35DC      C2 1102   8.728   5.206  12.205
   35DC      O2 1103   8.697   5.091  12.175
   35DC     C3' 1104   9.186   5.063  12.201
   35DC     H3' 1105   9.292   5.081  12.219
   35DC     C2' 1106   9.111   5.198  12.192
   35DC    H2'1 1107   9.145   5.269  12.267
   35DC    H2'2 1108   9.126   5.244  12.094
   35DC     O3' 1109   9.168   4.986  12.087
   36DA       P 1110   9.261   4.866  12.043
   36DA     O1P 1111   9.302   4.777  12.151
   36DA     O2P 1112   9.360   4.913  11.944
   36DA     O5' 1113   9.156   4.783  11.951
   36DA     C5' 1114   9.046   4.708  12.010
   36DA    H5'1 1115   9.028   4.736  12.114
   36DA    H5'2 1116   9.070   4.602  12.011
   36DA     C4' 1117   8.905   4.729  11.935
   36DA     H4' 1118   8.839   4.651  11.973
   36DA     O4' 1119   8.857   4.861  11.959
   36DA     C1' 1120   8.840   4.927  11.837
   36DA     H1' 1121   8.742   4.896  11.801
   36DA      N9 1122   8.843   5.073  11.863
   36DA      C8 1123   8.947   5.165  11.865
   36DA      H8 1124   9.052   5.141  11.860
   36DA      N7 1125   8.911   5.292  11.871
   36DA      C5 1126   8.772   5.283  11.866
   36DA      C6 1127   8.659   5.370  11.883
   36DA      N6 1128   8.664   5.502  11.905
   36DA     H61 1129   8.577   5.552  11.898
   36DA     H62 1130   8.753   5.548  11.916
   36DA      N1 1131   8.534   5.334  11.858
   36DA      C2 1132   8.516   5.206  11.835
   36DA      H2 1133   8.416   5.171  11.815
   36DA      N3 1134   8.606   5.107  11.830
   36DA      C4 1135   8.733   5.151  11.848
   36DA     C3' 1136   8.929   4.719  11.786
   36DA     H3' 1137   9.024   4.668  11.769
   36DA     C2' 1138   8.938   4.869  11.742
   36DA    H2'1 1139   9.034   4.914  11.767
   36DA    H2'2 1140   8.919   4.887  11.636
   36DA     O3' 1141   8.825   4.654  11.721
   37DT       P 1142   8.836   4.591  11.577
   37DT     O1P 1143   8.807   4.447  11.586
   37DT     O2P 1144   8.953   4.641  11.500
   37DT     O5' 1145   8.704   4.664  11.522
   37DT     C5' 1146   8.571   4.634  11.566
   37DT    H5'1 1147   8.554   4.639  11.674
   37DT    H5'2 1148   8.546   4.531  11.540
   37DT     C4' 1149   8.463   4.721  11.494
   37DT     H4' 1150   8.366   4.675  11.511
   37DT     O4' 1151   8.465   4.855  11.532
   37DT     C1' 1152   8.501   4.944  11.425
   37DT     H1' 1153   8.412   4.986  11.378
   37DT      N1 1154   8.584   5.069  11.472
   37DT      C6 1155   8.724   5.078  11.479
   37DT      H6 1156   8.782   4.991  11.454
   37DT      C5 1157   8.786   5.199  11.495
   37DT      C7 1158   8.935   5.211  11.464
   37DT     H71 1159   8.981   5.227  11.561
   37DT     H72 1160   8.984   5.132  11.407
   37DT     H73 1161   8.956   5.299  11.402
   37DT      C4 1162   8.706   5.323  11.517
   37DT      O4 1163   8.747   5.436  11.536
   37DT      N3 1164   8.574   5.303  11.524
   37DT      H3 1165   8.521   5.389  11.521
   37DT      C2 1166   8.508   5.179  11.503
   37DT      O2 1167   8.387   5.176  11.509
   37DT     C3' 1168   8.489   4.731  11.345
   37DT     H3' 1169   8.541   4.643  11.308
   37DT     C2' 1170   8.569   4.855  11.316
   37DT    H2'1 1171   8.669   4.832  11.352
   37DT    H2'2 1172   8.560   4.885  11.212
   37DT     O3' 1173   8.355   4.743  11.290
   38DA       P 1174   8.321   4.655  11.170
   38DA     O1P 1175   8.295   4.522  11.231
   38DA     O2P 1176   8.427   4.663  11.067
   38DA     O5' 1177   8.191   4.719  11.107
   38DA     C5' 1178   8.067   4.705  11.172
   38DA    H5'1 1179   8.079   4.717  11.279
   38DA    H5'2 1180   8.028   4.605  11.156
   38DA     C4' 1181   7.974   4.823  11.126
   38DA     H4' 1182   7.869   4.809  11.153
   38DA     O4' 1183   8.025   4.947  11.183
   38DA     C1' 1184   8.066   5.030  11.069
   38DA     H1' 1185   8.000   5.117  11.060
   38DA      N9 1186   8.196   5.088  11.093
   38DA      C8 1187   8.320   5.037  11.098
   38DA      H8 1188   8.333   4.932  11.079
   38DA      N7 1189   8.419   5.119  11.114
   38DA      C5 1190   8.353   5.241  11.124
   38DA      C6 1191   8.391   5.370  11.153
   38DA      N6 1192   8.517   5.403  11.159
   38DA     H61 1193   8.547   5.499  11.161
   38DA     H62 1194   8.586   5.332  11.139
   38DA      N1 1195   8.309   5.471  11.167
   38DA      C2 1196   8.178   5.448  11.156
   38DA      H2 1197   8.113   5.534  11.159
   38DA      N3 1198   8.122   5.332  11.131
   38DA      C4 1199   8.214   5.225  11.118
   38DA     C3' 1200   7.960   4.838  10.971
   38DA     H3' 1201   7.983   4.747  10.915
   38DA     C2' 1202   8.059   4.948  10.935
   38DA    H2'1 1203   8.155   4.901  10.914
   38DA    H2'2 1204   8.026   5.001  10.845
   38DA     O3' 1205   7.821   4.878  10.947
   39DT       P 1206   7.758   4.906  10.807
   39DT     O1P 1207   7.607   4.911  10.819
   39DT     O2P 1208   7.813   4.807  10.714
   39DT     O5' 1209   7.793   5.048  10.770
   39DT     C5' 1210   7.743   5.157  10.846
   39DT    H5'1 1211   7.745   5.133  10.952
   39DT    H5'2 1212   7.639   5.174  10.818
   39DT     C4' 1213   7.816   5.291  10.834
   39DT     H4' 1214   7.759   5.359  10.896
   39DT     O4' 1215   7.947   5.288  10.874
   39DT     C1' 1216   8.012   5.379  10.782
   39DT     H1' 1217   7.984   5.480  10.811
   39DT      N1 1218   8.164   5.364  10.782
   39DT      C6 1219   8.219   5.240  10.755
   39DT      H6 1220   8.157   5.157  10.728
   39DT      C5 1221   8.352   5.227  10.768
   39DT      C7 1222   8.418   5.084  10.760
   39DT     H71 1223   8.472   5.066  10.668
   39DT     H72 1224   8.485   5.072  10.845
   39DT     H73 1225   8.333   5.016  10.754
   39DT      C4 1226   8.438   5.341  10.796
   39DT      O4 1227   8.561   5.333  10.825
   39DT      N3 1228   8.377   5.462  10.814
   39DT      H3 1229   8.437   5.538  10.841
   39DT      C2 1230   8.239   5.479  10.812
   39DT      O2 1231   8.189   5.591  10.835
   39DT     C3' 1232   7.808   5.332  10.680
   39DT     H3' 1233   7.774   5.252  10.614
   39DT     C2' 1234   7.954   5.355  10.644
   39DT    H2'1 1235   7.989   5.272  10.582
   39DT    H2'2 1236   7.969   5.444  10.583
   39DT     O3' 1237   7.723   5.448  10.662
   40DG       P 1238   7.711   5.524  10.524
   40DG     O1P 1239   7.581   5.595  10.529
   40DG     O2P 1240   7.725   5.425  10.414
   40DG     O5' 1241   7.823   5.632  10.519
   40DG     C5' 1242   7.818   5.746  10.599
   40DG    H5'1 1243   7.839   5.725  10.704
   40DG    H5'2 1244   7.717   5.786  10.596
   40DG     C4' 1245   7.912   5.855  10.541
   40DG     H4' 1246   7.901   5.955  10.581
   40DG     O4' 1247   8.050   5.823  10.561
   40DG     C1' 1248   8.124   5.805  10.436
   40DG     H1' 1249   8.183   5.895  10.419
   40DG      N9 1250   8.211   5.684  10.453
   40DG      C8 1251   8.186   5.548  10.437
   40DG      H8 1252   8.090   5.498  10.428
   40DG      N7 1253   8.289   5.475  10.453
   40DG      C5 1254   8.391   5.566  10.484
   40DG      C6 1255   8.534   5.548  10.494
   40DG      O6 1256   8.595   5.442  10.494
   40DG      N1 1257   8.605   5.665  10.498
   40DG      H1 1258   8.705   5.653  10.505
   40DG      C2 1259   8.549   5.784  10.492
   40DG      N2 1260   8.630   5.876  10.533
   40DG     H21 1261   8.729   5.853  10.536
   40DG     H22 1262   8.602   5.972  10.543
   40DG      N3 1263   8.424   5.808  10.474
   40DG      C4 1264   8.347   5.695  10.470
   40DG     C3' 1265   7.890   5.875  10.390
   40DG     H3' 1266   7.796   5.831  10.358
   40DG     C2' 1267   8.011   5.796  10.337
   40DG    H2'1 1268   7.987   5.691  10.326
   40DG    H2'2 1269   8.043   5.841  10.243
   40DG     O3' 1270   7.898   6.013  10.348
   41DC       P 1271   7.873   6.053  10.196
   41DC     O1P 1272   7.809   6.183  10.192
   41DC     O2P 1273   7.808   5.940  10.127
   41DC     O5' 1274   8.014   6.066  10.137
   41DC     C5' 1275   8.108   6.162  10.177
   41DC    H5'1 1276   8.128   6.143  10.283
   41DC    H5'2 1277   8.067   6.262  10.168
   41DC     C4' 1278   8.239   6.137  10.106
   41DC     H4' 1279   8.306   6.222  10.114
   41DC     O4' 1280   8.311   6.026  10.165
   41DC     C1' 1281   8.359   5.943  10.055
   41DC     H1' 1282   8.457   5.977  10.023
   41DC      N1 1283   8.381   5.800  10.098
   41DC      C6 1284   8.288   5.707  10.084
   41DC      H6 1285   8.194   5.743  10.045
   41DC      C5 1286   8.309   5.574  10.102
   41DC      H5 1287   8.236   5.499  10.080
   41DC      C4 1288   8.439   5.547  10.154
   41DC      N4 1289   8.482   5.427  10.163
   41DC     H41 1290   8.578   5.420  10.194
   41DC     H42 1291   8.432   5.351  10.120
   41DC      N3 1292   8.538   5.632  10.182
   41DC      C2 1293   8.507   5.763  10.158
   41DC      O2 1294   8.599   5.842  10.179
   41DC     C3' 1295   8.222   6.120   9.951
   41DC     H3' 1296   8.117   6.131   9.923
   41DC     C2' 1297   8.266   5.970   9.931
   41DC    H2'1 1298   8.173   5.913   9.931
   41DC    H2'2 1299   8.318   5.957   9.836
   41DC     O3' 1300   8.314   6.211   9.884
   42DG       P 1301   8.309   6.235   9.730
   42DG     O1P 1302   8.303   6.377   9.713
   42DG     O2P 1303   8.199   6.149   9.672
   42DG     O5' 1304   8.452   6.175   9.689
   42DG     C5' 1305   8.568   6.233   9.750
   42DG    H5'1 1306   8.547   6.279   9.846
   42DG    H5'2 1307   8.605   6.305   9.677
   42DG     C4' 1308   8.681   6.135   9.786
   42DG     H4' 1309   8.738   6.184   9.866
   42DG     O4' 1310   8.618   6.018   9.838
   42DG     C1' 1311   8.706   5.916   9.826
   42DG     H1' 1312   8.777   5.909   9.909
   42DG      N9 1313   8.644   5.784   9.815
   42DG      C8 1314   8.525   5.755   9.758
   42DG      H8 1315   8.466   5.830   9.707
   42DG      N7 1316   8.490   5.628   9.770
   42DG      C5 1317   8.611   5.566   9.812
   42DG      C6 1318   8.646   5.430   9.833
   42DG      O6 1319   8.584   5.326   9.812
   42DG      N1 1320   8.769   5.412   9.886
   42DG      H1 1321   8.795   5.323   9.928
   42DG      C2 1322   8.861   5.507   9.897
   42DG      N2 1323   8.983   5.469   9.924
   42DG     H21 1324   9.004   5.374   9.949
   42DG     H22 1325   9.061   5.534   9.921
   42DG      N3 1326   8.846   5.638   9.867
   42DG      C4 1327   8.709   5.659   9.833
   42DG     C3' 1328   8.760   6.093   9.663
   42DG     H3' 1329   8.704   6.105   9.571
   42DG     C2' 1330   8.789   5.948   9.699
   42DG    H2'1 1331   8.748   5.901   9.609
   42DG    H2'2 1332   8.894   5.930   9.720
   42DG     O3' 1333   8.884   6.159   9.662
   43DT       P 1334   8.978   6.171   9.534
   43DT     O1P 1335   9.051   6.298   9.543
   43DT     O2P 1336   8.892   6.148   9.419
   43DT     O5' 1337   9.084   6.050   9.557
   43DT     C5' 1338   9.165   6.032   9.672
   43DT    H5'1 1339   9.105   6.035   9.764
   43DT    H5'2 1340   9.240   6.111   9.676
   43DT     C4' 1341   9.247   5.903   9.668
   43DT     H4' 1342   9.336   5.907   9.731
   43DT     O4' 1343   9.172   5.790   9.700
   43DT     C1' 1344   9.181   5.705   9.583
   43DT     H1' 1345   9.263   5.636   9.602
   43DT      N1 1346   9.057   5.625   9.555
   43DT      C6 1347   8.941   5.682   9.495
   43DT      H6 1348   8.941   5.787   9.469
   43DT      C5 1349   8.819   5.612   9.492
   43DT      C7 1350   8.696   5.686   9.448
   43DT     H71 1351   8.711   5.785   9.406
   43DT     H72 1352   8.672   5.627   9.360
   43DT     H73 1353   8.609   5.679   9.514
   43DT      C4 1354   8.810   5.474   9.540
   43DT      O4 1355   8.715   5.398   9.526
   43DT      N3 1356   8.927   5.424   9.586
   43DT      H3 1357   8.931   5.324   9.598
   43DT      C2 1358   9.051   5.490   9.606
   43DT      O2 1359   9.149   5.436   9.661
   43DT     C3' 1360   9.314   5.879   9.528
   43DT     H3' 1361   9.323   5.970   9.470
   43DT     C2' 1362   9.220   5.787   9.462
   43DT    H2'1 1363   9.131   5.838   9.425
   43DT    H2'2 1364   9.273   5.734   9.384
   43DT     O3' 1365   9.444   5.825   9.549
   44DA       P 1366   9.548   5.830   9.424
   44DA     O1P 1367   9.684   5.792   9.471
   44DA     O2P 1368   9.526   5.960   9.350
   44DA     O5' 1369   9.499   5.717   9.321
   44DA     C5' 1370   9.538   5.580   9.352
   44DA    H5'1 1371   9.639   5.562   9.316
   44DA    H5'2 1372   9.533   5.568   9.460
   44DA     C4' 1373   9.450   5.481   9.281
   44DA     H4' 1374   9.478   5.383   9.319
   44DA     O4' 1375   9.309   5.505   9.307
   44DA     C1' 1376   9.248   5.455   9.191
   44DA     H1' 1377   9.255   5.346   9.201
   44DA      N9 1378   9.107   5.491   9.184
   44DA      C8 1379   9.042   5.605   9.137
   44DA      H8 1380   9.095   5.691   9.098
   44DA      N7 1381   8.907   5.583   9.129
   44DA      C5 1382   8.892   5.450   9.178
   44DA      C6 1383   8.781   5.364   9.193
   44DA      N6 1384   8.655   5.394   9.164
   44DA     H61 1385   8.595   5.313   9.165
   44DA     H62 1386   8.627   5.486   9.134
   44DA      N1 1387   8.791   5.242   9.243
   44DA      C2 1388   8.913   5.204   9.278
   44DA      H2 1389   8.923   5.105   9.320
   44DA      N3 1390   9.026   5.270   9.266
   44DA      C4 1391   9.011   5.394   9.212
   44DA     C3' 1392   9.474   5.476   9.127
   44DA     H3' 1393   9.541   5.554   9.091
   44DA     C2' 1394   9.333   5.502   9.075
   44DA    H2'1 1395   9.312   5.608   9.065
   44DA    H2'2 1396   9.308   5.453   8.981
   44DA     O3' 1397   9.517   5.337   9.089
   45DC       P 1398   9.636   5.323   8.984
   45DC     O1P 1399   9.767   5.338   9.050
   45DC     O2P 1400   9.598   5.397   8.862
   45DC     O5' 1401   9.620   5.170   8.943
   45DC     C5' 1402   9.641   5.061   9.033
   45DC    H5'1 1403   9.639   5.095   9.137
   45DC    H5'2 1404   9.743   5.028   9.014
   45DC     C4' 1405   9.541   4.944   9.037
   45DC     H4' 1406   9.574   4.879   9.118
   45DC     O4' 1407   9.410   4.988   9.065
   45DC     C1' 1408   9.338   4.919   8.966
   45DC     H1' 1409   9.315   4.818   9.000
   45DC      N1 1410   9.212   5.001   8.950
   45DC      C6 1411   9.220   5.134   8.927
   45DC      H6 1412   9.318   5.179   8.925
   45DC      C5 1413   9.103   5.209   8.916
   45DC      H5 1414   9.108   5.317   8.907
   45DC      C4 1415   8.982   5.131   8.916
   45DC      N4 1416   8.873   5.201   8.937
   45DC     H41 1417   8.790   5.152   8.970
   45DC     H42 1418   8.874   5.300   8.919
   45DC      N3 1419   8.976   5.008   8.954
   45DC      C2 1420   9.089   4.936   8.971
   45DC      O2 1421   9.080   4.817   9.004
   45DC     C3' 1422   9.553   4.876   8.898
   45DC     H3' 1423   9.641   4.918   8.847
   45DC     C2' 1424   9.423   4.910   8.841
   45DC    H2'1 1425   9.429   5.001   8.781
   45DC    H2'2 1426   9.377   4.829   8.785
   45DC     O3' 1427   9.557   4.731   8.924
   46DA       P 1428   9.584   4.622   8.805
   46DA     O1P 1429   9.642   4.507   8.876
   46DA     O2P 1430   9.654   4.685   8.687
   46DA     O5' 1431   9.446   4.575   8.760
   46DA     C5' 1432   9.363   4.488   8.841
   46DA    H5'1 1433   9.422   4.397   8.848
   46DA    H5'2 1434   9.354   4.526   8.943
   46DA     C4' 1435   9.230   4.462   8.788
   46DA     H4' 1436   9.175   4.384   8.841
   46DA     O4' 1437   9.143   4.570   8.808
   46DA     C1' 1438   9.081   4.595   8.681
   46DA     H1' 1439   8.998   4.525   8.671
   46DA      N9 1440   9.025   4.728   8.678
   46DA      C8 1441   9.093   4.846   8.655
   46DA      H8 1442   9.200   4.834   8.653
   46DA      N7 1443   9.020   4.951   8.625
   46DA      C5 1444   8.890   4.903   8.642
   46DA      C6 1445   8.759   4.959   8.643
   46DA      N6 1446   8.725   5.081   8.610
   46DA     H61 1447   8.626   5.098   8.619
   46DA     H62 1448   8.796   5.150   8.591
   46DA      N1 1449   8.654   4.887   8.679
   46DA      C2 1450   8.678   4.758   8.706
   46DA      H2 1451   8.591   4.699   8.727
   46DA      N3 1452   8.792   4.694   8.719
   46DA      C4 1453   8.895   4.775   8.689
   46DA     C3' 1454   9.230   4.428   8.635
   46DA     H3' 1455   9.326   4.389   8.600
   46DA     C2' 1456   9.180   4.562   8.581
   46DA    H2'1 1457   9.262   4.633   8.587
   46DA    H2'2 1458   9.128   4.554   8.486
   46DA     O3' 1459   9.134   4.331   8.620
   47DA       P 1460   9.164   4.191   8.542
   47DA     O1P 1461   9.229   4.088   8.623
   47DA     O2P 1462   9.222   4.219   8.408
   47DA     O5' 1463   9.018   4.149   8.523
   47DA     C5' 1464   8.938   4.094   8.627
   47DA    H5'1 1465   8.955   4.149   8.720
   47DA    H5'2 1466   8.965   3.992   8.653
   47DA     C4' 1467   8.784   4.099   8.616
   47DA     H4' 1468   8.730   4.052   8.699
   47DA     O4' 1469   8.742   4.236   8.622
   47DA     C1' 1470   8.685   4.283   8.502
   47DA     H1' 1471   8.577   4.287   8.512
   47DA      N9 1472   8.741   4.416   8.466
   47DA      C8 1473   8.871   4.455   8.427
   47DA      H8 1474   8.958   4.391   8.427
   47DA      N7 1475   8.870   4.574   8.367
   47DA      C5 1476   8.738   4.617   8.381
   47DA      C6 1477   8.667   4.733   8.348
   47DA      N6 1478   8.723   4.837   8.289
   47DA     H61 1479   8.664   4.917   8.268
   47DA     H62 1480   8.823   4.838   8.278
   47DA      N1 1481   8.540   4.750   8.367
   47DA      C2 1482   8.474   4.647   8.409
   47DA      H2 1483   8.368   4.656   8.425
   47DA      N3 1484   8.525   4.538   8.456
   47DA      C4 1485   8.659   4.524   8.437
   47DA     C3' 1486   8.725   4.049   8.485
   47DA     H3' 1487   8.805   3.984   8.448
   47DA     C2' 1488   8.718   4.179   8.400
   47DA    H2'1 1489   8.813   4.199   8.351
   47DA    H2'2 1490   8.639   4.180   8.325
   47DA     O3' 1491   8.601   3.982   8.501
   48DT       P 1492   8.529   3.900   8.383
   48DT     O1P 1493   8.461   3.780   8.435
   48DT     O2P 1494   8.637   3.879   8.282
   48DT     O5' 1495   8.416   4.000   8.328
   48DT     C5' 1496   8.316   4.055   8.410
   48DT    H5'1 1497   8.373   4.118   8.478
   48DT    H5'2 1498   8.253   3.980   8.458
   48DT     C4' 1499   8.217   4.147   8.331
   48DT     H4' 1500   8.138   4.152   8.405
   48DT     O4' 1501   8.279   4.276   8.314
   48DT     C1' 1502   8.269   4.317   8.179
   48DT     H1' 1503   8.175   4.370   8.170
   48DT      N1 1504   8.383   4.397   8.129
   48DT      C6 1505   8.511   4.345   8.119
   48DT      H6 1506   8.528   4.240   8.138
   48DT      C5 1507   8.618   4.422   8.092
   48DT      C7 1508   8.752   4.364   8.097
   48DT     H71 1509   8.807   4.408   8.181
   48DT     H72 1510   8.760   4.256   8.108
   48DT     H73 1511   8.806   4.400   8.009
   48DT      C4 1512   8.600   4.566   8.072
   48DT      O4 1513   8.689   4.642   8.035
   48DT      N3 1514   8.478   4.615   8.099
   48DT      H3 1515   8.467   4.715   8.088
   48DT      C2 1516   8.363   4.538   8.117
   48DT      O2 1517   8.260   4.588   8.143
   48DT     C3' 1518   8.170   4.094   8.194
   48DT     H3' 1519   8.192   3.988   8.182
   48DT     C2' 1520   8.251   4.187   8.099
   48DT    H2'1 1521   8.344   4.134   8.082
   48DT    H2'2 1522   8.196   4.208   8.007
   48DT     O3' 1523   8.029   4.103   8.180
   49DG       P 1524   7.945   4.055   8.045
   49DG     O1P 1525   7.815   4.009   8.089
   49DG     O2P 1526   8.035   3.970   7.967
   49DG     O5' 1527   7.927   4.198   7.971
   49DG     C5' 1528   7.845   4.299   8.024
   49DG    H5'1 1529   7.858   4.298   8.133
   49DG    H5'2 1530   7.738   4.283   8.009
   49DG     C4' 1531   7.882   4.438   7.974
   49DG     H4' 1532   7.822   4.511   8.029
   49DG     O4' 1533   8.023   4.461   7.975
   49DG     C1' 1534   8.042   4.551   7.865
   49DG     H1' 1535   8.019   4.648   7.909
   49DG      N9 1536   8.181   4.552   7.815
   49DG      C8 1537   8.273   4.445   7.810
   49DG      H8 1538   8.242   4.344   7.832
   49DG      N7 1539   8.399   4.484   7.784
   49DG      C5 1540   8.385   4.625   7.766
   49DG      C6 1541   8.477   4.731   7.733
   49DG      O6 1542   8.602   4.720   7.718
   49DG      N1 1543   8.418   4.853   7.699
   49DG      H1 1544   8.484   4.924   7.669
   49DG      C2 1545   8.288   4.875   7.722
   49DG      N2 1546   8.244   4.991   7.685
   49DG     H21 1547   8.311   5.060   7.654
   49DG     H22 1548   8.147   5.020   7.688
   49DG      N3 1549   8.196   4.789   7.763
   49DG      C4 1550   8.250   4.664   7.779
   49DG     C3' 1551   7.828   4.452   7.832
   49DG     H3' 1552   7.822   4.355   7.782
   49DG     C2' 1553   7.939   4.527   7.762
   49DG    H2'1 1554   7.980   4.473   7.676
   49DG    H2'2 1555   7.904   4.620   7.717
   49DG     O3' 1556   7.705   4.525   7.835
   50DT       P 1557   7.613   4.537   7.702
   50DT     O1P 1558   7.483   4.577   7.760
   50DT     O2P 1559   7.623   4.419   7.616
   50DT     O5' 1560   7.660   4.656   7.612
   50DT     C5' 1561   7.679   4.782   7.658
   50DT    H5'1 1562   7.739   4.786   7.749
   50DT    H5'2 1563   7.578   4.820   7.675
   50DT     C4' 1564   7.748   4.871   7.554
   50DT     H4' 1565   7.719   4.976   7.563
   50DT     O4' 1566   7.889   4.861   7.564
   50DT     C1' 1567   7.937   4.856   7.435
   50DT     H1' 1568   7.958   4.952   7.389
   50DT      N1 1569   8.066   4.778   7.428
   50DT      C6 1570   8.072   4.643   7.443
   50DT      H6 1571   7.977   4.596   7.459
   50DT      C5 1572   8.192   4.574   7.440
   50DT      C7 1573   8.196   4.422   7.464
   50DT     H71 1574   8.266   4.387   7.541
   50DT     H72 1575   8.098   4.386   7.496
   50DT     H73 1576   8.223   4.379   7.368
   50DT      C4 1577   8.317   4.646   7.422
   50DT      O4 1578   8.434   4.605   7.428
   50DT      N3 1579   8.299   4.777   7.400
   50DT      H3 1580   8.385   4.829   7.407
   50DT      C2 1581   8.186   4.849   7.410
   50DT      O2 1582   8.181   4.972   7.402
   50DT     C3' 1583   7.696   4.845   7.410
   50DT     H3' 1584   7.623   4.764   7.411
   50DT     C2' 1585   7.826   4.790   7.352
   50DT    H2'1 1586   7.827   4.681   7.356
   50DT    H2'2 1587   7.839   4.825   7.250
   50DT     O3' 1588   7.652   4.959   7.330
   51DA       P 1589   7.590   4.940   7.181
   51DA     O1P 1590   7.487   5.043   7.167
   51DA     O2P 1591   7.551   4.799   7.152
   51DA     O5' 1592   7.721   4.980   7.090
   51DA     C5' 1593   7.793   5.104   7.092
   51DA    H5'1 1594   7.829   5.133   7.190
   51DA    H5'2 1595   7.728   5.187   7.063
   51DA     C4' 1596   7.923   5.089   7.008
   51DA     H4' 1597   7.973   5.184   6.988
   51DA     O4' 1598   8.015   5.000   7.065
   51DA     C1' 1599   8.065   4.913   6.965
   51DA     H1' 1600   8.147   4.953   6.906
   51DA      N9 1601   8.110   4.792   7.033
   51DA      C8 1602   8.032   4.690   7.078
   51DA      H8 1603   7.924   4.701   7.075
   51DA      N7 1604   8.097   4.579   7.110
   51DA      C5 1605   8.228   4.615   7.080
   51DA      C6 1606   8.356   4.557   7.102
   51DA      N6 1607   8.371   4.430   7.145
   51DA     H61 1608   8.464   4.397   7.165
   51DA     H62 1609   8.285   4.377   7.149
   51DA      N1 1610   8.471   4.627   7.086
   51DA      C2 1611   8.462   4.743   7.032
   51DA      H2 1612   8.557   4.791   7.014
   51DA      N3 1613   8.355   4.814   6.995
   51DA      C4 1614   8.240   4.744   7.028
   51DA     C3' 1615   7.891   5.031   6.871
   51DA     H3' 1616   7.785   5.030   6.847
   51DA     C2' 1617   7.947   4.892   6.871
   51DA    H2'1 1618   7.876   4.815   6.899
   51DA    H2'2 1619   7.988   4.863   6.774
   51DA     O3' 1620   7.980   5.102   6.778
   52DT       P 1621   7.932   5.113   6.629
   52DT     O1P 1622   7.875   5.254   6.618
   52DT     O2P 1623   7.838   5.007   6.612
   52DT     O5' 1624   8.052   5.093   6.518
   52DT     C5' 1625   8.152   5.192   6.498
   52DT    H5'1 1626   8.158   5.256   6.586
   52DT    H5'2 1627   8.126   5.247   6.407
   52DT     C4' 1628   8.297   5.146   6.459
   52DT     H4' 1629   8.359   5.234   6.471
   52DT     O4' 1630   8.339   5.066   6.561
   52DT     C1' 1631   8.394   4.953   6.498
   52DT     H1' 1632   8.500   4.969   6.480
   52DT      N1 1633   8.365   4.836   6.589
   52DT      C6 1634   8.237   4.779   6.592
   52DT      H6 1635   8.153   4.839   6.558
   52DT      C5 1636   8.222   4.657   6.651
   52DT      C7 1637   8.080   4.596   6.666
   52DT     H71 1638   8.042   4.634   6.761
   52DT     H72 1639   8.016   4.630   6.585
   52DT     H73 1640   8.093   4.489   6.652
   52DT      C4 1641   8.335   4.584   6.715
   52DT      O4 1642   8.326   4.478   6.780
   52DT      N3 1643   8.449   4.663   6.727
   52DT      H3 1644   8.526   4.613   6.770
   52DT      C2 1645   8.473   4.783   6.660
   52DT      O2 1646   8.583   4.826   6.651
   52DT     C3' 1647   8.305   5.085   6.323
   52DT     H3' 1648   8.211   5.086   6.267
   52DT     C2' 1649   8.327   4.936   6.357
   52DT    H2'1 1650   8.227   4.892   6.358
   52DT    H2'2 1651   8.388   4.882   6.284
   52DT     O3' 1652   8.416   5.151   6.253
   53DA       P 1653   8.492   5.087   6.131
   53DA     O1P 1654   8.557   5.197   6.059
   53DA     O2P 1655   8.407   4.996   6.063
   53DA     O5' 1656   8.608   5.002   6.203
   53DA     C5' 1657   8.707   5.058   6.286
   53DA    H5'1 1658   8.653   5.096   6.372
   53DA    H5'2 1659   8.751   5.135   6.222
   53DA     C4' 1660   8.823   4.952   6.316
   53DA     H4' 1661   8.907   5.003   6.362
   53DA     O4' 1662   8.766   4.845   6.394
   53DA     C1' 1663   8.797   4.724   6.328
   53DA     H1' 1664   8.892   4.686   6.365
   53DA      N9 1665   8.700   4.618   6.355
   53DA      C8 1666   8.570   4.607   6.315
   53DA      H8 1667   8.527   4.683   6.251
   53DA      N7 1668   8.507   4.502   6.371
   53DA      C5 1669   8.612   4.429   6.432
   53DA      C6 1670   8.631   4.302   6.502
   53DA      N6 1671   8.538   4.204   6.519
   53DA     H61 1672   8.550   4.123   6.579
   53DA     H62 1673   8.442   4.219   6.491
   53DA      N1 1674   8.747   4.272   6.552
   53DA      C2 1675   8.849   4.349   6.529
   53DA      H2 1676   8.950   4.325   6.560
   53DA      N3 1677   8.853   4.465   6.462
   53DA      C4 1678   8.727   4.499   6.414
   53DA     C3' 1679   8.873   4.896   6.177
   53DA     H3' 1680   8.839   4.953   6.091
   53DA     C2' 1681   8.798   4.766   6.178
   53DA    H2'1 1682   8.698   4.784   6.138
   53DA    H2'2 1683   8.850   4.696   6.113
   53DA     O3' 1684   9.011   4.881   6.161
   54DA       P 1685   9.073   4.804   6.032
   54DA     O1P 1686   9.207   4.860   6.009
   54DA     O2P 1687   8.971   4.814   5.921
   54DA     O5' 1688   9.090   4.656   6.085
   54DA     C5' 1689   9.194   4.626   6.185
   54DA    H5'1 1690   9.167   4.670   6.281
   54DA    H5'2 1691   9.287   4.668   6.146
   54DA     C4' 1692   9.215   4.471   6.211
   54DA     H4' 1693   9.284   4.458   6.294
   54DA     O4' 1694   9.090   4.424   6.258
   54DA     C1' 1695   9.064   4.307   6.187
   54DA     H1' 1696   9.119   4.228   6.237
   54DA      N9 1697   8.917   4.274   6.185
   54DA      C8 1698   8.820   4.343   6.123
   54DA      H8 1699   8.843   4.432   6.066
   54DA      N7 1700   8.708   4.274   6.126
   54DA      C5 1701   8.730   4.164   6.204
   54DA      C6 1702   8.662   4.051   6.249
   54DA      N6 1703   8.535   4.020   6.228
   54DA     H61 1704   8.496   3.938   6.272
   54DA     H62 1705   8.480   4.082   6.170
   54DA      N1 1706   8.723   3.959   6.325
   54DA      C2 1707   8.849   3.977   6.365
   54DA      H2 1708   8.891   3.903   6.432
   54DA      N3 1709   8.926   4.079   6.334
   54DA      C4 1710   8.859   4.163   6.248
   54DA     C3' 1711   9.244   4.401   6.083
   54DA     H3' 1712   9.262   4.482   6.012
   54DA     C2' 1713   9.116   4.331   6.043
   54DA    H2'1 1714   9.053   4.396   5.982
   54DA    H2'2 1715   9.143   4.241   5.988
   54DA     O3' 1716   9.365   4.326   6.094
   55DT       P 1717   9.423   4.233   5.982
   55DT     O1P 1718   9.572   4.218   5.985
   55DT     O2P 1719   9.361   4.250   5.850
   55DT     O5' 1720   9.364   4.102   6.045
   55DT     C5' 1721   9.402   4.052   6.170
   55DT    H5'1 1722   9.361   4.125   6.240
   55DT    H5'2 1723   9.510   4.055   6.183
   55DT     C4' 1724   9.357   3.905   6.195
   55DT     H4' 1725   9.400   3.866   6.287
   55DT     O4' 1726   9.216   3.921   6.202
   55DT     C1' 1727   9.170   3.819   6.117
   55DT     H1' 1728   9.168   3.724   6.171
   55DT      N1 1729   9.023   3.845   6.070
   55DT      C6 1730   9.002   3.941   5.979
   55DT      H6 1731   9.079   4.015   5.962
   55DT      C5 1732   8.874   3.961   5.936
   55DT      C7 1733   8.858   4.081   5.847
   55DT     H71 1734   8.842   4.046   5.745
   55DT     H72 1735   8.770   4.138   5.879
   55DT     H73 1736   8.944   4.147   5.845
   55DT      C4 1737   8.764   3.875   5.974
   55DT      O4 1738   8.648   3.888   5.937
   55DT      N3 1739   8.802   3.779   6.065
   55DT      H3 1740   8.725   3.728   6.107
   55DT      C2 1741   8.923   3.765   6.119
   55DT      O2 1742   8.942   3.681   6.207
   55DT     C3' 1743   9.400   3.816   6.079
   55DT     H3' 1744   9.472   3.873   6.021
   55DT     C2' 1745   9.267   3.814   6.003
   55DT    H2'1 1746   9.264   3.906   5.946
   55DT    H2'2 1747   9.262   3.727   5.938
   55DT     O3' 1748   9.464   3.701   6.127
   56DA       P 1749   9.454   3.561   6.049
   56DA     O1P 1750   9.564   3.483   6.102
   56DA     O2P 1751   9.453   3.590   5.902
   56DA     O5' 1752   9.315   3.500   6.090
   56DA     C5' 1753   9.290   3.473   6.232
   56DA    H5'1 1754   9.262   3.564   6.284
   56DA    H5'2 1755   9.381   3.444   6.283
   56DA     C4' 1756   9.180   3.365   6.257
   56DA     H4' 1757   9.165   3.350   6.363
   56DA     O4' 1758   9.048   3.382   6.207
   56DA     C1' 1759   9.022   3.293   6.099
   56DA     H1' 1760   8.958   3.209   6.131
   56DA      N9 1761   8.956   3.379   5.996
   56DA      C8 1762   9.013   3.486   5.922
   56DA      H8 1763   9.114   3.519   5.939
   56DA      N7 1764   8.925   3.561   5.859
   56DA      C5 1765   8.797   3.496   5.892
   56DA      C6 1766   8.662   3.507   5.852
   56DA      N6 1767   8.624   3.611   5.781
   56DA     H61 1768   8.525   3.624   5.769
   56DA     H62 1769   8.694   3.668   5.735
   56DA      N1 1770   8.565   3.424   5.899
   56DA      C2 1771   8.605   3.325   5.978
   56DA      H2 1772   8.532   3.251   6.008
   56DA      N3 1773   8.724   3.305   6.029
   56DA      C4 1774   8.822   3.392   5.979
   56DA     C3' 1775   9.239   3.236   6.186
   56DA     H3' 1776   9.347   3.236   6.168
   56DA     C2' 1777   9.161   3.237   6.057
   56DA    H2'1 1778   9.208   3.301   5.983
   56DA    H2'2 1779   9.149   3.134   6.023
   56DA     O3' 1780   9.209   3.122   6.274
   57DC       P 1781   9.237   2.976   6.246
   57DC     O1P 1782   9.266   2.927   6.374
   57DC     O2P 1783   9.338   2.962   6.138
   57DC     O5' 1784   9.101   2.920   6.195
   57DC     C5' 1785   8.979   2.904   6.277
   57DC    H5'1 1786   8.958   3.004   6.314
   57DC    H5'2 1787   8.992   2.824   6.350
   57DC     C4' 1788   8.870   2.861   6.181
   57DC     H4' 1789   8.775   2.869   6.235
   57DC     O4' 1790   8.847   2.958   6.083
   57DC     C1' 1791   8.809   2.892   5.967
   57DC     H1' 1792   8.704   2.865   5.974
   57DC      N1 1793   8.820   2.997   5.861
   57DC      C6 1794   8.942   3.049   5.826
   57DC      H6 1795   9.032   3.014   5.874
   57DC      C5 1796   8.952   3.150   5.733
   57DC      H5 1797   9.050   3.190   5.711
   57DC      C4 1798   8.834   3.192   5.667
   57DC      N4 1799   8.843   3.294   5.586
   57DC     H41 1800   8.759   3.327   5.541
   57DC     H42 1801   8.932   3.340   5.573
   57DC      N3 1802   8.717   3.138   5.691
   57DC      C2 1803   8.711   3.043   5.789
   57DC      O2 1804   8.595   3.008   5.823
   57DC     C3' 1805   8.901   2.729   6.110
   57DC     H3' 1806   9.006   2.705   6.131
   57DC     C2' 1807   8.886   2.761   5.965
   57DC    H2'1 1808   8.982   2.770   5.915
   57DC    H2'2 1809   8.827   2.684   5.915
   57DC     O3' 1810   8.818   2.622   6.171
   58DG       P 1811   8.807   2.475   6.112
   58DG     O1P 1812   8.773   2.380   6.218
   58DG     O2P 1813   8.930   2.453   6.029
   58DG     O5' 1814   8.677   2.487   6.008
   58DG     C5' 1815   8.560   2.551   6.063
   58DG    H5'1 1816   8.599   2.652   6.075
   58DG    H5'2 1817   8.536   2.503   6.158
   58DG     C4' 1818   8.435   2.551   5.974
   58DG     H4' 1819   8.344   2.572   6.031
   58DG     O4' 1820   8.446   2.651   5.874
   58DG     C1' 1821   8.443   2.588   5.747
   58DG     H1' 1822   8.342   2.597   5.706
   58DG      N9 1823   8.545   2.668   5.670
   58DG      C8 1824   8.683   2.657   5.680
   58DG      H8 1825   8.734   2.592   5.749
   58DG      N7 1826   8.747   2.748   5.608
   58DG      C5 1827   8.637   2.824   5.547
   58DG      C6 1828   8.643   2.924   5.442
   58DG      O6 1829   8.739   2.978   5.388
   58DG      N1 1830   8.518   2.974   5.410
   58DG      H1 1831   8.510   3.053   5.347
   58DG      C2 1832   8.398   2.919   5.458
   58DG      N2 1833   8.291   2.975   5.417
   58DG     H21 1834   8.298   3.049   5.348
   58DG     H22 1835   8.207   2.926   5.443
   58DG      N3 1836   8.393   2.818   5.544
   58DG      C4 1837   8.520   2.778   5.590
   58DG     C3' 1838   8.417   2.425   5.902
   58DG     H3' 1839   8.473   2.350   5.956
   58DG     C2' 1840   8.473   2.437   5.763
   58DG    H2'1 1841   8.575   2.398   5.765
   58DG    H2'2 1842   8.421   2.379   5.687
   58DG     O3' 1843   8.284   2.392   5.915
   59DC       P 1844   8.221   2.261   5.854
   59DC     O1P 1845   8.103   2.235   5.933
   59DC     O2P 1846   8.328   2.159   5.844
   59DC     O5' 1847   8.180   2.299   5.706
   59DC     C5' 1848   8.083   2.407   5.692
   59DC    H5'1 1849   8.117   2.489   5.755
   59DC    H5'2 1850   7.985   2.376   5.730
   59DC     C4' 1851   8.078   2.457   5.543
   59DC     H4' 1852   7.988   2.518   5.544
   59DC     O4' 1853   8.185   2.548   5.512
   59DC     C1' 1854   8.237   2.520   5.381
   59DC     H1' 1855   8.179   2.572   5.305
   59DC      N1 1856   8.379   2.556   5.349
   59DC      C6 1857   8.483   2.484   5.390
   59DC      H6 1858   8.478   2.409   5.467
   59DC      C5 1859   8.610   2.524   5.347
   59DC      H5 1860   8.688   2.469   5.396
   59DC      C4 1861   8.625   2.631   5.255
   59DC      N4 1862   8.743   2.670   5.222
   59DC     H41 1863   8.747   2.740   5.149
   59DC     H42 1864   8.823   2.635   5.272
   59DC      N3 1865   8.526   2.699   5.212
   59DC      C2 1866   8.405   2.662   5.253
   59DC      O2 1867   8.312   2.726   5.210
   59DC     C3' 1868   8.065   2.349   5.433
   59DC     H3' 1869   8.078   2.254   5.484
   59DC     C2' 1870   8.194   2.377   5.356
   59DC    H2'1 1871   8.262   2.307   5.406
   59DC    H2'2 1872   8.192   2.357   5.249
   59DC     O3' 1873   7.933   2.362   5.359
   60DA       P 1874   7.898   2.252   5.245
   60DA     O1P 1875   7.749   2.250   5.243
   60DA     O2P 1876   7.974   2.120   5.253
   60DA     O5' 1877   7.935   2.329   5.111
   60DA     C5' 1878   7.877   2.455   5.083
   60DA    H5'1 1879   7.911   2.527   5.158
   60DA    H5'2 1880   7.769   2.441   5.092
   60DA     C4' 1881   7.902   2.507   4.941
   60DA     H4' 1882   7.830   2.587   4.924
   60DA     O4' 1883   8.038   2.552   4.933
   60DA     C1' 1884   8.108   2.494   4.826
   60DA     H1' 1885   8.105   2.564   4.742
   60DA      N9 1886   8.246   2.470   4.870
   60DA      C8 1887   8.300   2.360   4.918
   60DA      H8 1888   8.243   2.274   4.950
   60DA      N7 1889   8.433   2.364   4.933
   60DA      C5 1890   8.462   2.489   4.887
   60DA      C6 1891   8.580   2.570   4.877
   60DA      N6 1892   8.699   2.526   4.907
   60DA     H61 1893   8.782   2.584   4.903
   60DA     H62 1894   8.691   2.445   4.967
   60DA      N1 1895   8.572   2.701   4.844
   60DA      C2 1896   8.453   2.756   4.822
   60DA      H2 1897   8.464   2.860   4.797
   60DA      N3 1898   8.335   2.687   4.827
   60DA      C4 1899   8.351   2.558   4.860
   60DA     C3' 1900   7.885   2.411   4.823
   60DA     H3' 1901   7.831   2.319   4.843
   60DA     C2' 1902   8.025   2.368   4.803
   60DA    H2'1 1903   8.046   2.287   4.874
   60DA    H2'2 1904   8.036   2.338   4.699
   60DA     O3' 1905   7.837   2.488   4.715
   61DC       P 1906   7.814   2.432   4.563
   61DC     O1P 1907   7.703   2.504   4.501
   61DC     O2P 1908   7.802   2.286   4.564
   61DC     O5' 1909   7.953   2.469   4.481
   61DC     C5' 1910   7.996   2.604   4.468
   61DC    H5'1 1911   8.015   2.651   4.564
   61DC    H5'2 1912   7.928   2.654   4.399
   61DC     C4' 1913   8.130   2.607   4.389
   61DC     H4' 1914   8.152   2.709   4.358
   61DC     O4' 1915   8.236   2.569   4.471
   61DC     C1' 1916   8.324   2.492   4.400
   61DC     H1' 1917   8.371   2.563   4.333
   61DC      N1 1918   8.418   2.420   4.492
   61DC      C6 1919   8.400   2.290   4.534
   61DC      H6 1920   8.306   2.239   4.518
   61DC      C5 1921   8.498   2.230   4.608
   61DC      H5 1922   8.483   2.132   4.650
   61DC      C4 1923   8.618   2.299   4.638
   61DC      N4 1924   8.705   2.235   4.706
   61DC     H41 1925   8.795   2.279   4.721
   61DC     H42 1926   8.696   2.141   4.741
   61DC      N3 1927   8.637   2.426   4.601
   61DC      C2 1928   8.537   2.486   4.528
   61DC      O2 1929   8.550   2.606   4.498
   61DC     C3' 1930   8.137   2.512   4.265
   61DC     H3' 1931   8.037   2.475   4.242
   61DC     C2' 1932   8.231   2.403   4.317
   61DC    H2'1 1933   8.172   2.332   4.375
   61DC    H2'2 1934   8.276   2.337   4.244
   61DC     O3' 1935   8.204   2.584   4.156
   62DA       P 1936   8.160   2.585   4.005
   62DA     O1P 1937   8.044   2.675   3.992
   62DA     O2P 1938   8.149   2.445   3.957
   62DA     O5' 1939   8.286   2.648   3.920
   62DA     C5' 1940   8.312   2.788   3.932
   62DA    H5'1 1941   8.293   2.820   4.034
   62DA    H5'2 1942   8.254   2.829   3.849
   62DA     C4' 1943   8.465   2.810   3.901
   62DA     H4' 1944   8.473   2.919   3.897
   62DA     O4' 1945   8.548   2.759   4.008
   62DA     C1' 1946   8.642   2.662   3.968
   62DA     H1' 1947   8.738   2.712   3.955
   62DA      N9 1948   8.645   2.545   4.058
   62DA      C8 1949   8.538   2.462   4.072
   62DA      H8 1950   8.439   2.475   4.030
   62DA      N7 1951   8.569   2.366   4.160
   62DA      C5 1952   8.705   2.383   4.191
   62DA      C6 1953   8.795   2.324   4.280
   62DA      N6 1954   8.770   2.205   4.342
   62DA     H61 1955   8.843   2.176   4.405
   62DA     H62 1956   8.675   2.171   4.338
   62DA      N1 1957   8.920   2.362   4.293
   62DA      C2 1958   8.954   2.470   4.228
   62DA      H2 1959   9.060   2.488   4.244
   62DA      N3 1960   8.877   2.543   4.150
   62DA      C4 1961   8.748   2.495   4.132
   62DA     C3' 1962   8.517   2.741   3.771
   62DA     H3' 1963   8.435   2.703   3.709
   62DA     C2' 1964   8.591   2.619   3.830
   62DA    H2'1 1965   8.528   2.531   3.823
   62DA    H2'2 1966   8.680   2.600   3.769
   62DA     O3' 1967   8.622   2.828   3.709
   63DT       P 1968   8.702   2.799   3.579
   63DT     O1P 1969   8.734   2.928   3.512
   63DT     O2P 1970   8.633   2.694   3.495
   63DT     O5' 1971   8.841   2.735   3.617
   63DT     C5' 1972   8.915   2.807   3.720
   63DT    H5'1 1973   8.850   2.831   3.804
   63DT    H5'2 1974   8.944   2.895   3.663
   63DT     C4' 1975   9.037   2.731   3.770
   63DT     H4' 1976   9.087   2.802   3.837
   63DT     O4' 1977   8.995   2.619   3.843
   63DT     C1' 1978   9.094   2.528   3.836
   63DT     H1' 1979   9.163   2.553   3.916
   63DT      N1 1980   9.020   2.401   3.861
   63DT      C6 1981   8.879   2.380   3.826
   63DT      H6 1982   8.830   2.444   3.754
   63DT      C5 1983   8.811   2.268   3.874
   63DT      C7 1984   8.667   2.226   3.832
   63DT     H71 1985   8.682   2.128   3.786
   63DT     H72 1986   8.601   2.212   3.919
   63DT     H73 1987   8.615   2.299   3.770
   63DT      C4 1988   8.875   2.173   3.966
   63DT      O4 1989   8.821   2.071   4.012
   63DT      N3 1990   9.012   2.202   3.990
   63DT      H3 1991   9.051   2.133   4.052
   63DT      C2 1992   9.089   2.301   3.933
   63DT      O2 1993   9.211   2.300   3.952
   63DT     C3' 1994   9.131   2.690   3.659
   63DT     H3' 1995   9.092   2.686   3.557
   63DT     C2' 1996   9.153   2.543   3.694
   63DT    H2'1 1997   9.100   2.482   3.621
   63DT    H2'2 1998   9.258   2.513   3.692
   63DT     O3' 1999   9.248   2.761   3.668
   64DG       P 2000   9.373   2.761   3.571
   64DG     O1P 2001   9.465   2.872   3.602
   64DG     O2P 2002   9.326   2.742   3.434
   64DG     O5' 2003   9.453   2.640   3.617
   64DG     C5' 2004   9.541   2.627   3.733
   64DG    H5'1 2005   9.474   2.631   3.819
   64DG    H5'2 2006   9.614   2.708   3.737
   64DG     C4' 2007   9.607   2.487   3.734
   64DG     H4' 2008   9.690   2.499   3.804
   64DG     O4' 2009   9.524   2.374   3.765
   64DG     C1' 2010   9.529   2.279   3.661
   64DG     H1' 2011   9.602   2.205   3.694
   64DG      N9 2012   9.393   2.216   3.646
   64DG      C8 2013   9.286   2.260   3.574
   64DG      H8 2014   9.286   2.346   3.509
   64DG      N7 2015   9.177   2.194   3.599
   64DG      C5 2016   9.216   2.092   3.692
   64DG      C6 2017   9.152   1.976   3.756
   64DG      O6 2018   9.034   1.940   3.749
   64DG      N1 2019   9.237   1.901   3.841
   64DG      H1 2020   9.201   1.828   3.901
   64DG      C2 2021   9.361   1.938   3.865
   64DG      N2 2022   9.420   1.849   3.939
   64DG     H21 2023   9.379   1.757   3.941
   64DG     H22 2024   9.517   1.857   3.967
   64DG      N3 2025   9.428   2.041   3.815
   64DG      C4 2026   9.349   2.112   3.725
   64DG     C3' 2027   9.671   2.456   3.601
   64DG     H3' 2028   9.670   2.548   3.542
   64DG     C2' 2029   9.581   2.353   3.541
   64DG    H2'1 2030   9.501   2.404   3.487
   64DG    H2'2 2031   9.627   2.289   3.465
   64DG     O3' 2032   9.804   2.401   3.623
   65DC       P 2033   9.921   2.379   3.521
   65DC     O1P 2034  10.053   2.413   3.581
   65DC     O2P 2035   9.889   2.444   3.387
   65DC     O5' 2036   9.928   2.217   3.508
   65DC     C5' 2037   9.931   2.117   3.610
   65DC    H5'1 2038   9.866   2.153   3.690
   65DC    H5'2 2039  10.029   2.105   3.656
   65DC     C4' 2040   9.875   1.977   3.568
   65DC     H4' 2041   9.921   1.900   3.630
   65DC     O4' 2042   9.732   1.971   3.582
   65DC     C1' 2043   9.684   1.886   3.482
   65DC     H1' 2044   9.713   1.783   3.503
   65DC      N1 2045   9.532   1.885   3.472
   65DC      C6 2046   9.468   1.969   3.381
   65DC      H6 2047   9.524   2.044   3.326
   65DC      C5 2048   9.337   1.963   3.376
   65DC      H5 2049   9.282   2.028   3.310
   65DC      C4 2050   9.271   1.864   3.452
   65DC      N4 2051   9.143   1.846   3.442
   65DC     H41 2052   9.094   1.785   3.506
   65DC     H42 2053   9.090   1.927   3.412
   65DC      N3 2054   9.331   1.786   3.537
   65DC      C2 2055   9.464   1.792   3.545
   65DC      O2 2056   9.521   1.711   3.621
   65DC     C3' 2057   9.902   1.933   3.426
   65DC     H3' 2058   9.959   2.001   3.362
   65DC     C2' 2059   9.770   1.929   3.362
   65DC    H2'1 2060   9.745   2.025   3.315
   65DC    H2'2 2061   9.775   1.854   3.283
   65DC     O3' 2062   9.954   1.799   3.432
   66DG3      P 2063  10.113   1.762   3.453
   66DG3    O1P 2064  10.172   1.859   3.546
   66DG3    O2P 2065  10.163   1.755   3.314
   66DG3    O5' 2066  10.102   1.615   3.510
   66DG3    C5' 2067  10.095   1.592   3.649
   66DG3   H5'1 2068  10.042   1.673   3.698
   66DG3   H5'2 2069  10.194   1.596   3.692
   66DG3    C4' 2070  10.017   1.467   3.678
   66DG3    H4' 2071  10.028   1.443   3.783
   66DG3    O4' 2072   9.883   1.492   3.652
   66DG3    C1' 2073   9.835   1.389   3.569
   66DG3    H1' 2074   9.789   1.307   3.625
   66DG3     N9 2075   9.743   1.452   3.472
   66DG3     C8 2076   9.755   1.550   3.372
   66DG3     H8 2077   9.852   1.597   3.361
   66DG3     N7 2078   9.645   1.594   3.323
   66DG3     C5 2079   9.546   1.511   3.379
   66DG3     C6 2080   9.403   1.508   3.363
   66DG3     O6 2081   9.335   1.580   3.286
   66DG3     N1 2082   9.340   1.397   3.423
   66DG3     H1 2083   9.241   1.381   3.425
   66DG3     C2 2084   9.409   1.306   3.497
   66DG3     N2 2085   9.337   1.200   3.540
   66DG3    H21 2086   9.240   1.184   3.517
   66DG3    H22 2087   9.400   1.128   3.574
   66DG3     N3 2088   9.540   1.311   3.527
   66DG3     C4 2089   9.608   1.416   3.464
   66DG3    C3' 2090  10.066   1.348   3.600
   66DG3    H3' 2091  10.167   1.355   3.560
   66DG3    C2' 2092   9.961   1.342   3.491
   66DG3   H2'1 2093   9.993   1.402   3.406
   66DG3   H2'2 2094   9.946   1.236   3.466
   66DG3    O3' 2095  10.053   1.234   3.686
   66DG3    H3T 2096  10.063   1.158   3.628
   67SOL     OW 2097  11.397   1.223   6.446
   67SOL    HW1 2098  11.475   1.275   6.426
   67SOL    HW2 2099  11.375   1.182   6.362
   68SOL     OW 2100  13.975  11.595   1.111
   68SOL    HW1 2101  14.064  11.598   1.144
   68SOL    HW2 2102  13.929  11.663   1.160
   69SOL     OW 2103   2.948   3.229  10.880
   69SOL    HW1 2104   3.022   3.289  10.872
   69SOL    HW2 2105   2.985   3.142  10.860
   70SOL     OW 2106   9.099  10.059  11.199
   70SOL    HW1 2107   9.005  10.071  11.183
   70SOL    HW2 2108   9.135  10.033  11.114
   71SOL     OW 2109   6.879  12.015   7.914
   71SOL    HW1 2110   6.849  11.970   7.835
   71SOL    HW2 2111   6.974  12.012   7.909
   72SOL     OW 2112   9.898  11.150   1.278
   72SOL    HW1 2113   9.852  11.233   1.277
   72SOL    HW2 2114   9.831  11.085   1.299
   73SOL     OW 2115  13.124   1.007   4.139
   73SOL    HW1 2116  13.113   1.010   4.044
   73SOL    HW2 2117  13.116   1.098   4.167
   74SOL     OW 2118   4.921   3.325  10.804
   74SOL    HW1 2119   5.000   3.377  10.790
   74SOL    HW2 2120   4.852   3.390  10.819
   75SOL     OW 2121   5.882   0.085  14.802
   75SOL    HW1 2122   5.968   0.098  14.842
   75SOL    HW2 2123   5.895   0.014  14.739
   76SOL     OW 2124  10.083   1.284   0.449
   76SOL    HW1 2125  10.085   1.378   0.467
   76SOL    HW2 2126  10.165   1.267   0.401
   77SOL     OW 2127   5.597  13.087   1.197
   77SOL    HW1 2128   5.676  13.063   1.245
   77SOL    HW2 2129   5.525  13.058   1.253
   78SOL     OW 2130   4.862   5.102  10.680
   78SOL    HW1 2131   4.824   5.040  10.618
   78SOL    HW2 2132   4.883   5.049  10.757
   79SOL     OW 2133  13.404  10.262   2.869
   79SOL    HW1 2134  13.438  10.175   2.850
   79SOL    HW2 2135  13.459  10.321   2.819
   80SOL     OW 2136   5.289   4.996   8.897
   80SOL    HW1 2137   5.336   4.915   8.878
   80SOL    HW2 2138   5.357   5.060   8.916
   81SOL     OW 2139   2.108   8.956  11.451
   81SOL    HW1 2140   2.156   8.897  11.394
   81SOL    HW2 2141   2.030   8.981  11.401
   82SOL     OW 2142  10.427   8.190  13.182
   82SOL    HW1 2143  10.408   8.184  13.276
   82SOL    HW2 2144  10.368   8.259  13.150
   83SOL     OW 2145  14.465   0.188   3.133
   83SOL    HW1 2146  14.515   0.136   3.070
   83SOL    HW2 2147  14.412   0.247   3.078
   84SOL     OW 2148  13.739   5.251  14.716
   84SOL    HW1 2149  13.667   5.248  14.654
   84SOL    HW2 2150  13.726   5.334  14.764
   85SOL     OW 2151   4.853   3.745   6.621
   85SOL    HW1 2152   4.862   3.650   6.607
   85SOL    HW2 2153   4.861   3.756   6.716
   86SOL     OW 2154   4.716   7.568  13.974
   86SOL    HW1 2155   4.623   7.585  13.991
   86SOL    HW2 2156   4.759   7.652  13.990
   87SOL     OW 2157  12.107  13.429  13.184
   87SOL    HW1 2158  12.200  13.448  13.197
   87SOL    HW2 2159  12.081  13.377  13.260
   88SOL     OW 2160   5.243   9.870   0.209
   88SOL    HW1 2161   5.214   9.873   0.118
   88SOL    HW2 2162   5.195   9.797   0.248
   89SOL     OW 2163   4.857   1.696   4.173
   89SOL    HW1 2164   4.773   1.696   4.126
   89SOL    HW2 2165   4.903   1.773   4.139
   90SOL     OW 2166   6.261   4.479   0.093
   90SOL    HW1 2167   6.251   4.574   0.100
   90SOL    HW2 2168   6.281   4.451   0.182
   91SOL     OW 2169   5.587  11.009   7.111
   91SOL    HW1 2170   5.592  11.019   7.206
   91SOL    HW2 2171   5.525  10.936   7.099
   92SOL     OW 2172   8.843  13.091   5.896
   92SOL    HW1 2173   8.835  13.153   5.968
   92SOL    HW2 2174   8.799  13.012   5.926
   93SOL     OW 2175   1.201  12.180   8.805
   93SOL    HW1 2176   1.174  12.268   8.779
   93SOL    HW2 2177   1.181  12.175   8.898
   94SOL     OW 2178  10.177   7.733   1.007
   94SOL    HW1 2179  10.131   7.786   0.941
   94SOL    HW2 2180  10.151   7.771   1.091
   95SOL     OW 2181   2.093   3.197  10.855
   95SOL    HW1 2182   2.185   3.168  10.856
   95SOL    HW2 2183   2.054   3.151  10.781
   96SOL     OW 2184   5.425   8.963   2.731
   96SOL    HW1 2185   5.349   8.929   2.778
   96SOL    HW2 2186   5.460   9.032   2.786
   97SOL     OW 2187  10.541  13.535   5.766
   97SOL    HW1 2188  10.598  13.606   5.796
   97SOL    HW2 2189  10.481  13.576   5.704
   98SOL     OW 2190   4.971   1.359   5.955
   98SOL    HW1 2191   5.058   1.387   5.929
   98SOL    HW2 2192   4.912   1.410   5.899
   99SOL     OW 2193   4.000  11.307   4.911
   99SOL    HW1 2194   4.036  11.224   4.943
   99SOL    HW2 2195   3.998  11.297   4.816
  100SOL     OW 2196  12.851   3.933  12.763
  100SOL    HW1 2197  12.874   3.994  12.834
  100SOL    HW2 2198  12.761   3.908  12.782
  101SOL     OW 2199   0.192   0.245   8.259
  101SOL    HW1 2200   0.115   0.201   8.295
  101SOL    HW2 2201   0.246   0.175   8.224
  102SOL     OW 2202   0.724  12.880  13.830
  102SOL    HW1 2203   0.776  12.826  13.889
  102SOL    HW2 2204   0.647  12.904  13.882
  103SOL     OW 2205   4.374   5.889  13.535
  103SOL    HW1 2206   4.347   5.799  13.553
  103SOL    HW2 2207   4.341   5.907  13.447
  104SOL     OW 2208   0.474   4.388   7.670
  104SOL    HW1 2209   0.379   4.400   7.668
  104SOL    HW2 2210   0.489   4.308   7.619
  105SOL     OW 2211   0.638  13.289  11.758
  105SOL    HW1 2212   0.625  13.380  11.732
  105SOL    HW2 2213   0.572  13.240  11.710
  106SOL     OW 2214  13.647  11.413   1.695
  106SOL    HW1 2215  13.577  11.369   1.743
  106SOL    HW2 2216  13.669  11.489   1.750
  107SOL     OW 2217   6.256   6.346  13.281
  107SOL    HW1 2218   6.217   6.261  13.302
  107SOL    HW2 2219   6.187   6.409  13.303
  108SOL     OW 2220   2.954   6.004   2.175
  108SOL    HW1 2221   2.943   5.909   2.166
  108SOL    HW2 2222   3.035   6.014   2.226
  109SOL     OW 2223   3.005  10.460   8.636
  109SOL    HW1 2224   3.021  10.437   8.727
  109SOL    HW2 2225   3.087  10.439   8.591
  110SOL     OW 2226   8.722   0.252   5.768
  110SOL    HW1 2227   8.782   0.326   5.764
  110SOL    HW2 2228   8.752   0.193   5.699
  111SOL     OW 2229   6.241   6.737   5.842
  111SOL    HW1 2230   6.160   6.702   5.804
  111SOL    HW2 2231   6.303   6.664   5.839
  112SOL     OW 2232  14.327  10.938  10.644
  112SOL    HW1 2233  14.342  10.994  10.720
  112SOL    HW2 2234  14.236  10.908  10.654
  113SOL     OW 2235   9.290   2.272   8.269
  113SOL    HW1 2236   9.262   2.363   8.263
  113SOL    HW2 2237   9.210   2.225   8.293
  114SOL     OW 2238   1.362   2.412   7.167
  114SOL    HW1 2239   1.317   2.483   7.213
  114SOL    HW2 2240   1.436   2.391   7.224
  115SOL     OW 2241   1.057   6.099   4.440
  115SOL    HW1 2242   1.005   6.106   4.360
  115SOL    HW2 2243   0.996   6.118   4.511
  116SOL     OW 2244   7.097   5.333  14.234
  116SOL    HW1 2245   7.158   5.264  14.206
  116SOL    HW2 2246   7.124   5.410  14.184
  117SOL     OW 2247   9.335  12.637   2.882
  117SOL    HW1 2248   9.386  12.638   2.963
  117SOL    HW2 2249   9.331  12.545   2.857
  118SOL     OW 2250   6.993  10.155   1.659
  118SOL    HW1 2251   6.966  10.168   1.750
  118SOL    HW2 2252   7.006  10.244   1.626
  119SOL     OW 2253   7.313  13.054   0.061
  119SOL    HW1 2254   7.383  13.107   0.098
  119SOL    HW2 2255   7.331  13.053  14.842
  120SOL     OW 2256   6.230   7.978   9.684
  120SOL    HW1 2257   6.323   7.986   9.660
  120SOL    HW2 2258   6.195   8.066   9.675
  121SOL     OW 2259   7.606   9.742   2.116
  121SOL    HW1 2260   7.560   9.674   2.067
  121SOL    HW2 2261   7.562   9.745   2.201
  122SOL     OW 2262   0.931   0.502   2.326
  122SOL    HW1 2263   1.006   0.547   2.364
  122SOL    HW2 2264   0.886   0.569   2.276
  123SOL     OW 2265   5.277   3.061   2.724
  123SOL    HW1 2266   5.316   3.041   2.639
  123SOL    HW2 2267   5.296   2.985   2.778
  124SOL     OW 2268   6.836   0.796   5.732
  124SOL    HW1 2269   6.825   0.891   5.723
  124SOL    HW2 2270   6.930   0.783   5.730
  125SOL     OW 2271  13.327  10.834   0.502
  125SOL    HW1 2272  13.422  10.824   0.497
  125SOL    HW2 2273  13.297  10.825   0.411
  126SOL     OW 2274   4.781   1.713  14.854
  126SOL    HW1 2275   4.834   1.736   0.056
  126SOL    HW2 2276   4.819   1.632  14.822
  127SOL     OW 2277   5.749   7.922  11.428
  127SOL    HW1 2278   5.705   7.962  11.353
  127SOL    HW2 2279   5.772   7.996  11.485
  128SOL     OW 2280   7.332  11.136  14.314
  128SOL    HW1 2281   7.357  11.051  14.277
  128SOL    HW2 2282   7.271  11.115  14.384
  129SOL     OW 2283   0.554   4.640   0.740
  129SOL    HW1 2284   0.621   4.701   0.708
  129SOL    HW2 2285   0.598   4.554   0.739
  130SOL     OW 2286  12.433   1.071   4.298
  130SOL    HW1 2287  12.419   1.150   4.350
  130SOL    HW2 2288  12.363   1.011   4.327
  131SOL     OW 2289  12.963   5.803   1.263
  131SOL    HW1 2290  13.051   5.765   1.272
  131SOL    HW2 2291  12.905   5.728   1.254
  132SOL     OW 2292   0.020   5.134  10.922
  132SOL    HW1 2293  14.849   5.064  10.875
  132SOL    HW2 2294  14.870   5.123  11.013
  133SOL     OW 2295   0.980  14.495  10.487
  133SOL    HW1 2296   0.957  14.584  10.462
  133SOL    HW2 2297   0.908  14.468  10.545
  134SOL     OW 2298   3.486   7.451   9.547
  134SOL    HW1 2299   3.436   7.465   9.466
  134SOL    HW2 2300   3.480   7.534   9.594
  135SOL     OW 2301   3.602  10.250   6.899
  135SOL    HW1 2302   3.669  10.318   6.909
  135SOL    HW2 2303   3.559  10.246   6.984
  136SOL     OW 2304  13.751  13.938   6.886
  136SOL    HW1 2305  13.843  13.949   6.909
  136SOL    HW2 2306  13.753  13.883   6.808
  137SOL     OW 2307  13.346   6.110   7.406
  137SOL    HW1 2308  13.364   6.019   7.426
  137SOL    HW2 2309  13.409   6.159   7.459
  138SOL     OW 2310  14.100   9.547  10.015
  138SOL    HW1 2311  14.083   9.464   9.970
  138SOL    HW2 2312  14.150   9.599   9.952
  139SOL     OW 2313   6.590   8.707   7.473
  139SOL    HW1 2314   6.620   8.769   7.540
  139SOL    HW2 2315   6.589   8.758   7.392
  140SOL     OW 2316   8.666  13.592   4.677
  140SOL    HW1 2317   8.698  13.558   4.761
  140SOL    HW2 2318   8.590  13.646   4.700
  141SOL     OW 2319  11.027   2.059  12.600
  141SOL    HW1 2320  11.004   2.080  12.691
  141SOL    HW2 2321  10.946   2.025  12.562
  142SOL     OW 2322   9.328   1.332  13.182
  142SOL    HW1 2323   9.367   1.417  13.202
  142SOL    HW2 2324   9.350   1.277  13.257
  143SOL     OW 2325   2.615   3.256  12.426
  143SOL    HW1 2326   2.551   3.237  12.358
  143SOL    HW2 2327   2.670   3.325  12.389
  144SOL     OW 2328   7.011   9.921   5.197
  144SOL    HW1 2329   7.057   9.974   5.132
  144SOL    HW2 2330   7.077   9.901   5.263
  145SOL     OW 2331   6.773  10.382   4.534
  145SOL    HW1 2332   6.773  10.478   4.537
  145SOL    HW2 2333   6.776  10.361   4.441
  146SOL     OW 2334   4.421   1.692  13.827
  146SOL    HW1 2335   4.347   1.692  13.888
  146SOL    HW2 2336   4.394   1.751  13.757
  147SOL     OW 2337   5.286  13.396  13.436
  147SOL    HW1 2338   5.374  13.396  13.473
  147SOL    HW2 2339   5.300  13.393  13.341
  148SOL     OW 2340   5.408   3.477   7.069
  148SOL    HW1 2341   5.424   3.546   7.005
  148SOL    HW2 2342   5.407   3.396   7.017
  149SOL     OW 2343  13.205   4.508   9.518
  149SOL    HW1 2344  13.244   4.510   9.606
  149SOL    HW2 2345  13.110   4.512   9.534
  150SOL     OW 2346   4.393  11.155  13.502
  150SOL    HW1 2347   4.345  11.224  13.456
  150SOL    HW2 2348   4.485  11.175  13.486
  151SOL     OW 2349   3.592   5.684  10.760
  151SOL    HW1 2350   3.685   5.696  10.741
  151SOL    HW2 2351   3.550   5.761  10.721
  152SOL     OW 2352   0.086  11.684   3.694
  152SOL    HW1 2353   0.056  11.749   3.630
  152SOL    HW2 2354   0.168  11.720   3.728
  153SOL     OW 2355   5.920   9.776  12.250
  153SOL    HW1 2356   5.940   9.778  12.156
  153SOL    HW2 2357   5.824   9.779  12.254
  154SOL     OW 2358   0.055   3.504   1.913
  154SOL    HW1 2359   0.144   3.470   1.903
  154SOL    HW2 2360  14.874   3.432   1.885
  155SOL     OW 2361   6.315   1.701   0.453
  155SOL    HW1 2362   6.352   1.760   0.388
  155SOL    HW2 2363   6.224   1.729   0.462
  156SOL     OW 2364   2.889  13.506  12.246
  156SOL    HW1 2365   2.848  13.492  12.160
  156SOL    HW2 2366   2.820  13.484  12.309
  157SOL     OW 2367   6.778   8.833   4.819
  157SOL    HW1 2368   6.716   8.763   4.837
  157SOL    HW2 2369   6.817   8.854   4.904
  158SOL     OW 2370   7.486  10.840   6.001
  158SOL    HW1 2371   7.457  10.928   5.977
  158SOL    HW2 2372   7.524  10.851   6.088
  159SOL     OW 2373   9.659   3.312  14.496
  159SOL    HW1 2374   9.596   3.369  14.451
  159SOL    HW2 2375   9.672   3.354  14.581
  160SOL     OW 2376   5.466  14.598   6.007
  160SOL    HW1 2377   5.464  14.502   6.006
  160SOL    HW2 2378   5.557  14.620   5.985
  161SOL     OW 2379   0.285   1.131   6.114
  161SOL    HW1 2380   0.215   1.130   6.048
  161SOL    HW2 2381   0.302   1.039   6.132
  162SOL     OW 2382   1.439  14.490   3.677
  162SOL    HW1 2383   1.406  14.420   3.621
  162SOL    HW2 2384   1.413  14.466   3.765
  163SOL     OW 2385   5.524  11.010  13.849
  163SOL    HW1 2386   5.461  10.981  13.783
  163SOL    HW2 2387   5.476  11.004  13.931
  164SOL     OW 2388  11.779  11.557  12.293
  164SOL    HW1 2389  11.859  11.580  12.245
  164SOL    HW2 2390  11.745  11.480  12.246
  165SOL     OW 2391   5.022  14.809   0.788
  165SOL    HW1 2392   5.090   0.001   0.796
  165SOL    HW2 2393   4.946  14.856   0.752
  166SOL     OW 2394   2.862  10.934   8.337
  166SOL    HW1 2395   2.897  11.018   8.306
  166SOL    HW2 2396   2.902  10.923   8.424
  167SOL     OW 2397  12.767  13.467  14.754
  167SOL    HW1 2398  12.683  13.451  14.797
  167SOL    HW2 2399  12.814  13.525  14.814
  168SOL     OW 2400  10.369   5.136   5.086
  168SOL    HW1 2401  10.278   5.164   5.076
  168SOL    HW2 2402  10.389   5.091   5.004
  169SOL     OW 2403   0.464  14.061  11.921
  169SOL    HW1 2404   0.469  14.006  11.999
  169SOL    HW2 2405   0.372  14.087  11.917
  170SOL     OW 2406   0.273  11.336   0.626
  170SOL    HW1 2407   0.314  11.422   0.622
  170SOL    HW2 2408   0.322  11.283   0.563
  171SOL     OW 2409   5.848   3.779   4.693
  171SOL    HW1 2410   5.756   3.768   4.670
  171SOL    HW2 2411   5.871   3.866   4.661
  172SOL     OW 2412   0.183   2.902   3.735
  172SOL    HW1 2413   0.161   2.994   3.721
  172SOL    HW2 2414   0.099   2.856   3.728
  173SOL     OW 2415   0.465  14.764  10.650
  173SOL    HW1 2416   0.499  14.684  10.609
  173SOL    HW2 2417   0.431  14.816  10.578
  174SOL     OW 2418   7.479   6.703  12.745
  174SOL    HW1 2419   7.453   6.625  12.793
  174SOL    HW2 2420   7.423   6.773  12.780
  175SOL     OW 2421   5.917  11.926   8.595
  175SOL    HW1 2422   5.835  11.934   8.545
  175SOL    HW2 2423   5.904  11.981   8.672
  176SOL     OW 2424   8.981  13.569   4.898
  176SOL    HW1 2425   8.914  13.504   4.918
  176SOL    HW2 2426   9.053  13.518   4.860
  177SOL     OW 2427   2.183  13.064  12.330
  177SOL    HW1 2428   2.135  13.124  12.273
  177SOL    HW2 2429   2.146  13.080  12.417
  178SOL     OW 2430   3.069   0.938   9.858
  178SOL    HW1 2431   3.061   0.969   9.949
  178SOL    HW2 2432   3.029   1.007   9.805
  179SOL     OW 2433   9.494  12.155   4.900
  179SOL    HW1 2434   9.570  12.096   4.904
  179SOL    HW2 2435   9.423  12.101   4.867
  180SOL     OW 2436  13.941  11.293   4.610
  180SOL    HW1 2437  13.958  11.300   4.517
  180SOL    HW2 2438  13.944  11.199   4.628
  181SOL     OW 2439   5.243  11.595   9.779
  181SOL    HW1 2440   5.210  11.683   9.765
  181SOL    HW2 2441   5.184  11.539   9.727
  182SOL     OW 2442   8.019  11.154   1.416
  182SOL    HW1 2443   8.044  11.195   1.499
  182SOL    HW2 2444   7.974  11.074   1.442
  183SOL     OW 2445  11.851   4.156   1.900
  183SOL    HW1 2446  11.861   4.119   1.812
  183SOL    HW2 2447  11.801   4.237   1.885
  184SOL     OW 2448  11.575   8.777   9.632
  184SOL    HW1 2449  11.508   8.832   9.591
  184SOL    HW2 2450  11.630   8.748   9.559
  185SOL     OW 2451  14.508  10.108   8.824
  185SOL    HW1 2452  14.431  10.061   8.856
  185SOL    HW2 2453  14.565  10.117   8.900
  186SOL     OW 2454   3.077   2.276   0.773
  186SOL    HW1 2455   3.070   2.181   0.780
  186SOL    HW2 2456   3.111   2.304   0.858
  187SOL     OW 2457   0.972  14.486   1.096
  187SOL    HW1 2458   0.889  14.472   1.051
  187SOL    HW2 2459   1.013  14.558   1.048
  188SOL     OW 2460   3.868  11.700  11.886
  188SOL    HW1 2461   3.831  11.613  11.899
  188SOL    HW2 2462   3.942  11.704  11.947
  189SOL     OW 2463   1.465   9.054   0.029
  189SOL    HW1 2464   1.446   9.112  14.831
  189SOL    HW2 2465   1.386   9.055   0.083
  190SOL     OW 2466   3.368   2.552   6.648
  190SOL    HW1 2467   3.279   2.525   6.627
  190SOL    HW2 2468   3.371   2.645   6.624
  191SOL     OW 2469   2.594   5.074   2.124
  191SOL    HW1 2470   2.512   5.060   2.077
  191SOL    HW2 2471   2.649   5.001   2.098
  192SOL     OW 2472  11.891  11.892   3.145
  192SOL    HW1 2473  11.946  11.815   3.161
  192SOL    HW2 2474  11.861  11.882   3.054
  193SOL     OW 2475  13.690  13.702  12.797
  193SOL    HW1 2476  13.662  13.666  12.881
  193SOL    HW2 2477  13.682  13.797  12.808
  194SOL     OW 2478   5.307   7.125  10.229
  194SOL    HW1 2479   5.395   7.123  10.268
  194SOL    HW2 2480   5.290   7.034  10.205
  195SOL     OW 2481  12.366  13.243  12.310
  195SOL    HW1 2482  12.318  13.180  12.363
  195SOL    HW2 2483  12.427  13.284  12.371
  196SOL     OW 2484  12.855  10.545   9.079
  196SOL    HW1 2485  12.838  10.503   9.164
  196SOL    HW2 2486  12.866  10.638   9.100
  197SOL     OW 2487   9.164   2.031   6.474
  197SOL    HW1 2488   9.158   2.089   6.398
  197SOL    HW2 2489   9.173   1.943   6.437
  198SOL     OW 2490  12.583  10.058   1.031
  198SOL    HW1 2491  12.534   9.976   1.031
  198SOL    HW2 2492  12.568  10.096   1.117
  199SOL     OW 2493   7.728  14.779   0.433
  199SOL    HW1 2494   7.701  14.803   0.344
  199SOL    HW2 2495   7.819  14.810   0.439
  200SOL     OW 2496   3.920   1.067  13.667
  200SOL    HW1 2497   3.845   1.024  13.624
  200SOL    HW2 2498   3.902   1.161  13.657
  201SOL     OW 2499  10.101   6.181   1.778
  201SOL    HW1 2500  10.121   6.270   1.751
  201SOL    HW2 2501  10.186   6.136   1.777
  202SOL     OW 2502   2.063   0.621   7.424
  202SOL    HW1 2503   2.129   0.558   7.452
  202SOL    HW2 2504   1.987   0.603   7.479
  203SOL     OW 2505   1.801  10.162   3.961
  203SOL    HW1 2506   1.839  10.215   4.031
  203SOL    HW2 2507   1.849  10.189   3.882
  204SOL     OW 2508   0.775   5.882  12.417
  204SOL    HW1 2509   0.803   5.793  12.396
  204SOL    HW2 2510   0.694   5.894  12.367
  205SOL     OW 2511   9.795   9.624   3.430
  205SOL    HW1 2512   9.734   9.585   3.369
  205SOL    HW2 2513   9.808   9.558   3.498
  206SOL     OW 2514  11.067   8.562   6.275
  206SOL    HW1 2515  11.152   8.523   6.254
  206SOL    HW2 2516  11.017   8.491   6.315
  207SOL     OW 2517   6.204   6.566   1.268
  207SOL    HW1 2518   6.225   6.658   1.285
  207SOL    HW2 2519   6.125   6.569   1.214
  208SOL     OW 2520   8.808   6.297   0.910
  208SOL    HW1 2521   8.815   6.221   0.968
  208SOL    HW2 2522   8.716   6.324   0.916
  209SOL     OW 2523   1.086  13.406   9.328
  209SOL    HW1 2524   1.018  13.458   9.283
  209SOL    HW2 2525   1.165  13.422   9.277
  210SOL     OW 2526   3.024   7.350   2.898
  210SOL    HW1 2527   2.962   7.368   2.828
  210SOL    HW2 2528   3.005   7.416   2.964
  211SOL     OW 2529  13.204  12.493   7.933
  211SOL    HW1 2530  13.164  12.579   7.917
  211SOL    HW2 2531  13.133  12.431   7.914
  212SOL     OW 2532   9.489   2.237   8.708
  212SOL    HW1 2533   9.513   2.260   8.618
  212SOL    HW2 2534   9.525   2.308   8.761
  213SOL     OW 2535   7.084  10.561   6.904
  213SOL    HW1 2536   6.993  10.565   6.874
  213SOL    HW2 2537   7.124  10.640   6.869
  214SOL     OW 2538  10.978  14.357   6.122
  214SOL    HW1 2539  10.987  14.366   6.027
  214SOL    HW2 2540  11.033  14.282   6.144
  215SOL     OW 2541   5.656   6.144   5.017
  215SOL    HW1 2542   5.708   6.222   4.997
  215SOL    HW2 2543   5.719   6.082   5.055
  216SOL     OW 2544  14.167  11.902  11.095
  216SOL    HW1 2545  14.158  11.932  11.185
  216SOL    HW2 2546  14.238  11.839  11.097
  217SOL     OW 2547   4.026   6.152  12.975
  217SOL    HW1 2548   3.962   6.182  12.911
  217SOL    HW2 2549   4.038   6.059  12.956
  218SOL     OW 2550   6.989  11.781   9.517
  218SOL    HW1 2551   7.053  11.711   9.506
  218SOL    HW2 2552   6.911  11.737   9.550
  219SOL     OW 2553  10.388   9.027   0.601
  219SOL    HW1 2554  10.446   8.952   0.613
  219SOL    HW2 2555  10.431   9.099   0.647
  220SOL     OW 2556   2.132  10.364  12.029
  220SOL    HW1 2557   2.222  10.355  11.997
  220SOL    HW2 2558   2.078  10.352  11.951
  221SOL     OW 2559   3.320   6.555   1.191
  221SOL    HW1 2560   3.296   6.606   1.269
  221SOL    HW2 2561   3.369   6.480   1.227
  222SOL     OW 2562  12.795   4.807  12.555
  222SOL    HW1 2563  12.797   4.730  12.612
  222SOL    HW2 2564  12.884   4.841  12.556
  223SOL     OW 2565   8.765   6.363   5.818
  223SOL    HW1 2566   8.788   6.368   5.725
  223SOL    HW2 2567   8.783   6.272   5.842
  224SOL     OW 2568  10.785  12.617   0.720
  224SOL    HW1 2569  10.830  12.693   0.683
  224SOL    HW2 2570  10.838  12.543   0.693
  225SOL     OW 2571   8.087   8.376   3.671
  225SOL    HW1 2572   8.143   8.299   3.660
  225SOL    HW2 2573   8.141   8.450   3.643
  226SOL     OW 2574  10.731   4.183  12.998
  226SOL    HW1 2575  10.689   4.269  13.002
  226SOL    HW2 2576  10.819   4.197  13.031
  227SOL     OW 2577   9.465  13.668  12.601
  227SOL    HW1 2578   9.521  13.699  12.672
  227SOL    HW2 2579   9.442  13.578  12.625
  228SOL     OW 2580   1.720  14.096  11.305
  228SOL    HW1 2581   1.666  14.143  11.241
  228SOL    HW2 2582   1.791  14.157  11.325
  229SOL     OW 2583   9.723   8.439   5.534
  229SOL    HW1 2584   9.797   8.500   5.529
  229SOL    HW2 2585   9.761   8.359   5.572
  230SOL     OW 2586   4.816  11.293   5.334
  230SOL    HW1 2587   4.764  11.223   5.295
  230SOL    HW2 2588   4.857  11.337   5.260
  231SOL     OW 2589   4.535  12.192   4.588
  231SOL    HW1 2590   4.555  12.119   4.646
  231SOL    HW2 2591   4.593  12.180   4.513
  232SOL     OW 2592   2.401   4.845  12.306
  232SOL    HW1 2593   2.444   4.910  12.251
  232SOL    HW2 2594   2.411   4.878  12.395
  233SOL     OW 2595   2.122   7.627  12.429
  233SOL    HW1 2596   2.171   7.706  12.407
  233SOL    HW2 2597   2.032   7.647  12.401
  234SOL     OW 2598   5.751   4.433   5.369
  234SOL    HW1 2599   5.690   4.470   5.433
  234SOL    HW2 2600   5.762   4.342   5.396
  235SOL     OW 2601   1.951   0.988   5.376
  235SOL    HW1 2602   1.951   0.999   5.471
  235SOL    HW2 2603   1.952   0.893   5.363
  236SOL     OW 2604   7.154  12.637   3.820
  236SOL    HW1 2605   7.121  12.548   3.825
  236SOL    HW2 2606   7.082  12.692   3.851
  237SOL     OW 2607   0.044   7.491   9.168
  237SOL    HW1 2608  14.847   7.527   9.219
  237SOL    HW2 2609   0.003   7.427   9.110
  238SOL     OW 2610  13.030   8.831   3.840
  238SOL    HW1 2611  12.954   8.779   3.816
  238SOL    HW2 2612  12.994   8.916   3.866
  239SOL     OW 2613   3.195   1.277   7.478
  239SOL    HW1 2614   3.143   1.251   7.402
  239SOL    HW2 2615   3.130   1.311   7.540
  240SOL     OW 2616  14.854   0.772   7.722
  240SOL    HW1 2617   0.066   0.773   7.761
  240SOL    HW2 2618  14.811   0.697   7.761
  241SOL     OW 2619   8.029   9.013   5.494
  241SOL    HW1 2620   8.072   9.098   5.510
  241SOL    HW2 2621   8.048   8.962   5.573
  242SOL     OW 2622  11.607  12.698   8.623
  242SOL    HW1 2623  11.536  12.754   8.592
  242SOL    HW2 2624  11.611  12.713   8.717
  243SOL     OW 2625   5.191  10.606   5.422
  243SOL    HW1 2626   5.280  10.613   5.458
  243SOL    HW2 2627   5.189  10.521   5.380
  244SOL     OW 2628   4.094   3.387   0.468
  244SOL    HW1 2629   4.005   3.419   0.452
  244SOL    HW2 2630   4.150   3.445   0.416
  245SOL     OW 2631   6.508   8.875  14.541
  245SOL    HW1 2632   6.509   8.969  14.559
  245SOL    HW2 2633   6.543   8.866  14.453
  246SOL     OW 2634  13.053  11.980   8.975
  246SOL    HW1 2635  13.112  12.046   8.937
  246SOL    HW2 2636  13.020  12.020   9.055
  247SOL     OW 2637  10.157   5.158  13.166
  247SOL    HW1 2638  10.065   5.144  13.145
  247SOL    HW2 2639  10.173   5.251  13.146
  248SOL     OW 2640   2.956   7.005   0.534
  248SOL    HW1 2641   2.876   6.989   0.485
  248SOL    HW2 2642   2.976   7.097   0.518
  249SOL     OW 2643   7.398  13.059   6.367
  249SOL    HW1 2644   7.462  13.020   6.427
  249SOL    HW2 2645   7.389  13.150   6.397
  250SOL     OW 2646   5.858  14.190  14.146
  250SOL    HW1 2647   5.930  14.212  14.086
  250SOL    HW2 2648   5.867  14.095  14.159
  251SOL     OW 2649   1.435   7.071   4.149
  251SOL    HW1 2650   1.480   6.987   4.142
  251SOL    HW2 2651   1.465   7.120   4.073
  252SOL     OW 2652  13.116   5.608   3.725
  252SOL    HW1 2653  13.033   5.602   3.772
  252SOL    HW2 2654  13.160   5.683   3.765
  253SOL     OW 2655   6.856   6.020  11.524
  253SOL    HW1 2656   6.945   6.014  11.560
  253SOL    HW2 2657   6.799   5.994  11.596
  254SOL     OW 2658   1.721   9.324   5.402
  254SOL    HW1 2659   1.627   9.312   5.394
  254SOL    HW2 2660   1.751   9.248   5.451
  255SOL     OW 2661   5.986   6.470   1.670
  255SOL    HW1 2662   5.941   6.476   1.586
  255SOL    HW2 2663   6.069   6.426   1.650
  256SOL     OW 2664   6.548   4.105  13.078
  256SOL    HW1 2665   6.586   4.058  13.004
  256SOL    HW2 2666   6.456   4.116  13.054
  257SOL     OW 2667   4.588  13.470   4.892
  257SOL    HW1 2668   4.519  13.429   4.943
  257SOL    HW2 2669   4.669  13.442   4.934
  258SOL     OW 2670  14.024   0.050   3.703
  258SOL    HW1 2671  14.029  14.837   3.665
  258SOL    HW2 2672  13.947   0.089   3.662
  259SOL     OW 2673   6.607   7.039  11.077
  259SOL    HW1 2674   6.641   7.077  11.158
  259SOL    HW2 2675   6.606   6.945  11.094
  260SOL     OW 2676   1.342  13.109   4.222
  260SOL    HW1 2677   1.418  13.085   4.275
  260SOL    HW2 2678   1.286  13.159   4.282
  261SOL     OW 2679   4.912   3.652  11.552
  261SOL    HW1 2680   4.971   3.602  11.495
  261SOL    HW2 2681   4.940   3.743  11.541
  262SOL     OW 2682   1.861   4.562   2.169
  262SOL    HW1 2683   1.904   4.648   2.174
  262SOL    HW2 2684   1.806   4.558   2.247
  263SOL     OW 2685  13.048  13.864  11.897
  263SOL    HW1 2686  13.000  13.836  11.975
  263SOL    HW2 2687  13.020  13.803  11.828
  264SOL     OW 2688   8.150   5.482   1.151
  264SOL    HW1 2689   8.203   5.532   1.089
  264SOL    HW2 2690   8.072   5.459   1.102
  265SOL     OW 2691  10.172  10.818   6.621
  265SOL    HW1 2692  10.135  10.748   6.567
  265SOL    HW2 2693  10.101  10.881   6.630
  266SOL     OW 2694   7.169  12.664   4.819
  266SOL    HW1 2695   7.154  12.725   4.746
  266SOL    HW2 2696   7.256  12.687   4.852
  267SOL     OW 2697   7.069  11.064  11.156
  267SOL    HW1 2698   7.096  11.054  11.247
  267SOL    HW2 2699   7.005  11.136  11.159
  268SOL     OW 2700  12.400  10.671   5.313
  268SOL    HW1 2701  12.334  10.704   5.251
  268SOL    HW2 2702  12.428  10.748   5.361
  269SOL     OW 2703  12.950   1.515   4.628
  269SOL    HW1 2704  12.919   1.436   4.671
  269SOL    HW2 2705  12.944   1.583   4.695
  270SOL     OW 2706   2.560   6.207  13.897
  270SOL    HW1 2707   2.639   6.261  13.890
  270SOL    HW2 2708   2.554   6.185  13.990
  271SOL     OW 2709   3.029   3.187   5.001
  271SOL    HW1 2710   3.117   3.155   4.984
  271SOL    HW2 2711   3.027   3.205   5.095
  272SOL     OW 2712  11.385   5.481  13.375
  272SOL    HW1 2713  11.357   5.556  13.427
  272SOL    HW2 2714  11.476   5.466  13.400
  273SOL     OW 2715   7.098  14.437   1.184
  273SOL    HW1 2716   7.185  14.460   1.151
  273SOL    HW2 2717   7.072  14.361   1.132
  274SOL     OW 2718   6.630   3.402  11.370
  274SOL    HW1 2719   6.544   3.403  11.413
  274SOL    HW2 2720   6.612   3.418  11.278
  275SOL     OW 2721   7.225   6.269   0.929
  275SOL    HW1 2722   7.138   6.238   0.904
  275SOL    HW2 2723   7.233   6.245   1.022
  276SOL     OW 2724   6.637   0.702  12.851
  276SOL    HW1 2725   6.673   0.615  12.868
  276SOL    HW2 2726   6.573   0.688  12.781
  277SOL     OW 2727   1.624   0.065   4.597
  277SOL    HW1 2728   1.648   0.064   4.690
  277SOL    HW2 2729   1.696   0.111   4.554
  278SOL     OW 2730  10.786   9.566   0.186
  278SOL    HW1 2731  10.756   9.524   0.267
  278SOL    HW2 2732  10.714   9.622   0.160
  279SOL     OW 2733   6.043  14.372  10.680
  279SOL    HW1 2734   6.020  14.311  10.750
  279SOL    HW2 2735   6.012  14.457  10.712
  280SOL     OW 2736   3.520   9.438  12.625
  280SOL    HW1 2737   3.469   9.470  12.551
  280SOL    HW2 2738   3.468   9.366  12.661
  281SOL     OW 2739  14.836   4.566   2.924
  281SOL    HW1 2740   0.055   4.561   2.940
  281SOL    HW2 2741  14.806   4.475   2.926
  282SOL     OW 2742   8.187   4.500   1.446
  282SOL    HW1 2743   8.174   4.468   1.356
  282SOL    HW2 2744   8.139   4.583   1.449
  283SOL     OW 2745   5.424  13.110   8.605
  283SOL    HW1 2746   5.352  13.084   8.548
  283SOL    HW2 2747   5.420  13.048   8.679
  284SOL     OW 2748   2.989   7.245   9.571
  284SOL    HW1 2749   3.034   7.329   9.584
  284SOL    HW2 2750   3.055   7.179   9.593
  285SOL     OW 2751   9.766   1.548  12.864
  285SOL    HW1 2752   9.714   1.538  12.943
  285SOL    HW2 2753   9.838   1.486  12.874
  286SOL     OW 2754   4.885   7.912   0.012
  286SOL    HW1 2755   4.802   7.954   0.035
  286SOL    HW2 2756   4.863   7.819   0.004
  287SOL     OW 2757  11.069  12.885   8.520
  287SOL    HW1 2758  11.001  12.919   8.462
  287SOL    HW2 2759  11.085  12.796   8.488
  288SOL     OW 2760  11.400  13.892   2.079
  288SOL    HW1 2761  11.356  13.952   2.019
  288SOL    HW2 2762  11.460  13.947   2.129
  289SOL     OW 2763   8.008   1.462   6.715
  289SOL    HW1 2764   7.924   1.417   6.722
  289SOL    HW2 2765   7.989   1.551   6.746
  290SOL     OW 2766  14.262  10.510   0.534
  290SOL    HW1 2767  14.320  10.515   0.611
  290SOL    HW2 2768  14.303  10.568   0.470
  291SOL     OW 2769   7.519  13.830   8.209
  291SOL    HW1 2770   7.543  13.831   8.302
  291SOL    HW2 2771   7.525  13.921   8.181
  292SOL     OW 2772   7.379  12.769  11.175
  292SOL    HW1 2773   7.351  12.770  11.083
  292SOL    HW2 2774   7.374  12.676  11.200
  293SOL     OW 2775  14.680  10.734  12.981
  293SOL    HW1 2776  14.685  10.656  13.037
  293SOL    HW2 2777  14.607  10.717  12.921
  294SOL     OW 2778   0.982   7.945   1.360
  294SOL    HW1 2779   0.929   8.013   1.403
  294SOL    HW2 2780   0.921   7.872   1.348
  295SOL     OW 2781   7.979   6.899  12.242
  295SOL    HW1 2782   7.932   6.951  12.177
  295SOL    HW2 2783   8.000   6.962  12.312
  296SOL     OW 2784   2.554   5.124   9.506
  296SOL    HW1 2785   2.562   5.190   9.575
  296SOL    HW2 2786   2.587   5.168   9.427
  297SOL     OW 2787  11.024  13.264  10.544
  297SOL    HW1 2788  11.024  13.328  10.473
  297SOL    HW2 2789  11.112  13.271  10.583
  298SOL     OW 2790   8.581   8.595  13.697
  298SOL    HW1 2791   8.604   8.572  13.607
  298SOL    HW2 2792   8.662   8.629  13.735
  299SOL     OW 2793  12.662  10.363   2.964
  299SOL    HW1 2794  12.707  10.380   2.881
  299SOL    HW2 2795  12.674  10.269   2.980
  300SOL     OW 2796   8.333   9.191  13.694
  300SOL    HW1 2797   8.288   9.179  13.778
  300SOL    HW2 2798   8.425   9.198  13.716
  301SOL     OW 2799   3.131   5.694   9.266
  301SOL    HW1 2800   3.114   5.772   9.318
  301SOL    HW2 2801   3.092   5.713   9.181
  302SOL     OW 2802  14.534   8.467  12.498
  302SOL    HW1 2803  14.542   8.372  12.503
  302SOL    HW2 2804  14.572   8.499  12.580
  303SOL     OW 2805  13.546   8.790   0.999
  303SOL    HW1 2806  13.636   8.800   1.029
  303SOL    HW2 2807  13.527   8.697   1.009
  304SOL     OW 2808   1.435   0.509   2.643
  304SOL    HW1 2809   1.492   0.494   2.718
  304SOL    HW2 2810   1.478   0.464   2.570
  305SOL     OW 2811  11.445  12.228  11.482
  305SOL    HW1 2812  11.462  12.320  11.502
  305SOL    HW2 2813  11.365  12.229  11.429
  306SOL     OW 2814   6.620   1.163   2.938
  306SOL    HW1 2815   6.714   1.154   2.924
  306SOL    HW2 2816   6.611   1.247   2.983
  307SOL     OW 2817  13.685  10.863   4.671
  307SOL    HW1 2818  13.667  10.826   4.584
  307SOL    HW2 2819  13.670  10.791   4.732
  308SOL     OW 2820   8.521  13.437  12.181
  308SOL    HW1 2821   8.566  13.472  12.257
  308SOL    HW2 2822   8.514  13.512  12.121
  309SOL     OW 2823  13.537   0.129   9.310
  309SOL    HW1 2824  13.488   0.204   9.342
  309SOL    HW2 2825  13.491   0.101   9.231
  310SOL     OW 2826   7.273   5.737   2.161
  310SOL    HW1 2827   7.333   5.691   2.102
  310SOL    HW2 2828   7.314   5.730   2.247
  311SOL     OW 2829  10.009   8.206   7.978
  311SOL    HW1 2830  10.039   8.161   8.058
  311SOL    HW2 2831   9.941   8.149   7.943
  312SOL     OW 2832   2.342   5.223  13.938
  312SOL    HW1 2833   2.309   5.171  14.012
  312SOL    HW2 2834   2.295   5.306  13.945
  313SOL     OW 2835   8.578  12.056   8.991
  313SOL    HW1 2836   8.502  11.997   8.991
  313SOL    HW2 2837   8.546  12.137   9.030
  314SOL     OW 2838   4.514   3.734  13.259
  314SOL    HW1 2839   4.428   3.760  13.292
  314SOL    HW2 2840   4.572   3.806  13.284
  315SOL     OW 2841   4.512   1.838   9.622
  315SOL    HW1 2842   4.577   1.909   9.631
  315SOL    HW2 2843   4.563   1.763   9.592
  316SOL     OW 2844   9.006  13.358   8.443
  316SOL    HW1 2845   9.041  13.272   8.466
  316SOL    HW2 2846   9.052  13.419   8.501
  317SOL     OW 2847   0.987   7.416  10.342
  317SOL    HW1 2848   0.943   7.382  10.420
  317SOL    HW2 2849   0.944   7.500  10.325
  318SOL     OW 2850   5.407  13.132  12.064
  318SOL    HW1 2851   5.455  13.105  12.141
  318SOL    HW2 2852   5.320  13.155  12.096
  319SOL     OW 2853  12.840  14.462   1.541
  319SOL    HW1 2854  12.827  14.459   1.636
  319SOL    HW2 2855  12.761  14.506   1.508
  320SOL     OW 2856   5.981   5.430  13.729
  320SOL    HW1 2857   5.931   5.372  13.671
  320SOL    HW2 2858   6.050   5.375  13.765
  321SOL     OW 2859   7.965  10.346   1.106
  321SOL    HW1 2860   7.957  10.425   1.053
  321SOL    HW2 2861   7.968  10.377   1.196
  322SOL     OW 2862   1.090   0.259  10.989
  322SOL    HW1 2863   1.165   0.222  10.942
  322SOL    HW2 2864   1.093   0.216  11.075
  323SOL     OW 2865   0.114  13.832   9.570
  323SOL    HW1 2866   0.128  13.738   9.582
  323SOL    HW2 2867   0.062  13.838   9.489
  324SOL     OW 2868   1.689  12.971  12.788
  324SOL    HW1 2869   1.630  13.042  12.814
  324SOL    HW2 2870   1.702  12.984  12.694
  325SOL     OW 2871   0.586   1.444  11.530
  325SOL    HW1 2872   0.530   1.464  11.455
  325SOL    HW2 2873   0.674   1.470  11.502
  326SOL     OW 2874   8.146   0.004   9.939
  326SOL    HW1 2875   8.128  14.860  10.031
  326SOL    HW2 2876   8.189  14.801   9.905
  327SOL     OW 2877   7.931  13.056   9.918
  327SOL    HW1 2878   8.010  13.060   9.864
  327SOL    HW2 2879   7.884  13.137   9.898
  328SOL     OW 2880  11.843  12.498  13.828
  328SOL    HW1 2881  11.833  12.417  13.778
  328SOL    HW2 2882  11.838  12.567  13.762
  329SOL     OW 2883   2.273  14.030   3.684
  329SOL    HW1 2884   2.273  13.999   3.774
  329SOL    HW2 2885   2.335  14.102   3.683
  330SOL     OW 2886   1.923  13.352  12.640
  330SOL    HW1 2887   1.849  13.298  12.611
  330SOL    HW2 2888   1.905  13.371  12.732
  331SOL     OW 2889  11.751  13.308   7.412
  331SOL    HW1 2890  11.765  13.366   7.487
  331SOL    HW2 2891  11.723  13.225   7.451
  332SOL     OW 2892   8.904   8.545   2.222
  332SOL    HW1 2893   8.858   8.606   2.279
  332SOL    HW2 2894   8.995   8.576   2.221
  333SOL     OW 2895   9.024   6.156   9.059
  333SOL    HW1 2896   8.988   6.225   9.114
  333SOL    HW2 2897   9.119   6.165   9.068
  334SOL     OW 2898  10.233   0.809  14.809
  334SOL    HW1 2899  10.308   0.796  14.866
  334SOL    HW2 2900  10.206   0.720  14.785
  335SOL     OW 2901   1.669  12.174   8.917
  335SOL    HW1 2902   1.633  12.117   8.985
  335SOL    HW2 2903   1.713  12.114   8.856
  336SOL     OW 2904   2.555  10.382  14.797
  336SOL    HW1 2905   2.583  10.442  14.867
  336SOL    HW2 2906   2.620  10.312  14.798
  337SOL     OW 2907   3.478   6.702  11.993
  337SOL    HW1 2908   3.518   6.660  12.068
  337SOL    HW2 2909   3.544   6.765  11.962
  338SOL     OW 2910  10.693  14.675  13.499
  338SOL    HW1 2911  10.628  14.614  13.463
  338SOL    HW2 2912  10.642  14.753  13.522
  339SOL     OW 2913   7.092  13.144  13.714
  339SOL    HW1 2914   7.022  13.150  13.780
  339SOL    HW2 2915   7.170  13.122  13.765
  340SOL     OW 2916   5.954   5.552  14.134
  340SOL    HW1 2917   6.041   5.591  14.126
  340SOL    HW2 2918   5.917   5.557  14.046
  341SOL     OW 2919   2.275   4.629   9.505
  341SOL    HW1 2920   2.256   4.642   9.598
  341SOL    HW2 2921   2.248   4.712   9.463
  342SOL     OW 2922   8.423   0.548   0.980
  342SOL    HW1 2923   8.368   0.620   1.011
  342SOL    HW2 2924   8.362   0.478   0.957
  343SOL     OW 2925   9.074   6.048   5.185
  343SOL    HW1 2926   9.045   6.041   5.095
  343SOL    HW2 2927   9.164   6.082   5.179
  344SOL     OW 2928   3.107   7.989   3.733
  344SOL    HW1 2929   3.152   7.998   3.817
  344SOL    HW2 2930   3.087   7.896   3.726
  345SOL     OW 2931   1.616   7.982   4.430
  345SOL    HW1 2932   1.689   8.037   4.402
  345SOL    HW2 2933   1.611   7.913   4.364
  346SOL     OW 2934   1.256  12.451   1.601
  346SOL    HW1 2935   1.307  12.379   1.563
  346SOL    HW2 2936   1.203  12.484   1.528
  347SOL     OW 2937   3.083  10.090  12.081
  347SOL    HW1 2938   3.039  10.006  12.070
  347SOL    HW2 2939   3.064  10.137  11.999
  348SOL     OW 2940  12.923   9.896   6.384
  348SOL    HW1 2941  12.983   9.955   6.428
  348SOL    HW2 2942  12.914   9.932   6.296
  349SOL     OW 2943  11.697   4.700   3.011
  349SOL    HW1 2944  11.773   4.749   2.982
  349SOL    HW2 2945  11.733   4.618   3.045
  350SOL     OW 2946   2.935  11.228   7.640
  350SOL    HW1 2947   2.984  11.197   7.564
  350SOL    HW2 2948   2.959  11.167   7.710
  351SOL     OW 2949   6.559  12.615  12.895
  351SOL    HW1 2950   6.592  12.687  12.841
  351SOL    HW2 2951   6.540  12.656  12.979
  352SOL     OW 2952   0.485  10.781   8.477
  352SOL    HW1 2953   0.405  10.818   8.513
  352SOL    HW2 2954   0.555  10.840   8.506
  353SOL     OW 2955   1.009  13.284   5.731
  353SOL    HW1 2956   0.937  13.228   5.760
  353SOL    HW2 2957   1.079  13.223   5.709
  354SOL     OW 2958  14.490   4.536   3.809
  354SOL    HW1 2959  14.545   4.494   3.743
  354SOL    HW2 2960  14.428   4.589   3.759
  355SOL     OW 2961  14.322   0.338   2.935
  355SOL    HW1 2962  14.240   0.388   2.941
  355SOL    HW2 2963  14.322   0.302   2.847
  356SOL     OW 2964   8.399   9.332   0.444
  356SOL    HW1 2965   8.355   9.281   0.376
  356SOL    HW2 2966   8.334   9.340   0.513
  357SOL     OW 2967   8.254   3.248  11.004
  357SOL    HW1 2968   8.233   3.164  11.046
  357SOL    HW2 2969   8.245   3.313  11.074
  358SOL     OW 2970  11.407  14.835   3.752
  358SOL    HW1 2971  11.323  14.845   3.707
  358SOL    HW2 2972  11.408  14.744   3.781
  359SOL     OW 2973   0.170   3.559   0.990
  359SOL    HW1 2974   0.083   3.517   0.989
  359SOL    HW2 2975   0.154   3.647   0.957
  360SOL     OW 2976   0.853   9.205   1.977
  360SOL    HW1 2977   0.886   9.174   2.061
  360SOL    HW2 2978   0.759   9.184   1.979
  361SOL     OW 2979   1.790   8.979   3.305
  361SOL    HW1 2980   1.744   9.062   3.317
  361SOL    HW2 2981   1.737   8.930   3.241
  362SOL     OW 2982   6.419   7.988   0.708
  362SOL    HW1 2983   6.341   7.998   0.652
  362SOL    HW2 2984   6.434   7.894   0.712
  363SOL     OW 2985   2.374   8.362   6.351
  363SOL    HW1 2986   2.468   8.360   6.368
  363SOL    HW2 2987   2.362   8.309   6.272
  364SOL     OW 2988   8.434   9.166  10.289
  364SOL    HW1 2989   8.457   9.258  10.283
  364SOL    HW2 2990   8.422   9.138  10.198
  365SOL     OW 2991   5.890   4.834   3.461
  365SOL    HW1 2992   5.972   4.883   3.457
  365SOL    HW2 2993   5.881   4.795   3.375
  366SOL     OW 2994   8.730   7.904   0.728
  366SOL    HW1 2995   8.707   7.928   0.817
  366SOL    HW2 2996   8.708   7.811   0.721
  367SOL     OW 2997   9.417   7.446   7.184
  367SOL    HW1 2998   9.486   7.446   7.117
  367SOL    HW2 2999   9.463   7.429   7.266
  368SOL     OW 3000   0.950   5.785  11.687
  368SOL    HW1 3001   1.001   5.806  11.609
  368SOL    HW2 3002   0.909   5.701  11.667
  369SOL     OW 3003   2.115   3.835   8.487
  369SOL    HW1 3004   2.032   3.800   8.454
  369SOL    HW2 3005   2.170   3.844   8.409
  370SOL     OW 3006  10.140   7.118  11.773
  370SOL    HW1 3007  10.160   7.154  11.686
  370SOL    HW2 3008  10.201   7.045  11.784
  371SOL     OW 3009  13.181   0.819   1.754
  371SOL    HW1 3010  13.210   0.779   1.836
  371SOL    HW2 3011  13.105   0.767   1.728
  372SOL     OW 3012   7.510   6.876   6.719
  372SOL    HW1 3013   7.545   6.833   6.640
  372SOL    HW2 3014   7.519   6.809   6.787
  373SOL     OW 3015   7.496  14.821  12.162
  373SOL    HW1 3016   7.556   0.016  12.136
  373SOL    HW2 3017   7.517  14.748  12.104
  374SOL     OW 3018   9.032   3.499  13.355
  374SOL    HW1 3019   8.982   3.442  13.295
  374SOL    HW2 3020   8.974   3.573  13.372
  375SOL     OW 3021  10.529   9.937   4.389
  375SOL    HW1 3022  10.502  10.016   4.434
  375SOL    HW2 3023  10.543   9.964   4.299
  376SOL     OW 3024  11.844   7.111   8.164
  376SOL    HW1 3025  11.888   7.056   8.229
  376SOL    HW2 3026  11.898   7.104   8.086
  377SOL     OW 3027  13.226   4.539   8.768
  377SOL    HW1 3028  13.310   4.583   8.757
  377SOL    HW2 3029  13.240   4.451   8.732
  378SOL     OW 3030   6.194  11.551   2.704
  378SOL    HW1 3031   6.148  11.598   2.634
  378SOL    HW2 3032   6.137  11.559   2.780
  379SOL     OW 3033   9.203  14.150   2.932
  379SOL    HW1 3034   9.230  14.240   2.913
  379SOL    HW2 3035   9.133  14.133   2.869
  380SOL     OW 3036  14.777   2.202   5.171
  380SOL    HW1 3037  14.846   2.264   5.194
  380SOL    HW2 3038  14.755   2.224   5.080
  381SOL     OW 3039  12.020  12.597  12.362
  381SOL    HW1 3040  12.048  12.556  12.280
  381SOL    HW2 3041  11.983  12.526  12.413
  382SOL     OW 3042   4.835   0.270   8.048
  382SOL    HW1 3043   4.877   0.198   8.001
  382SOL    HW2 3044   4.829   0.340   7.984
  383SOL     OW 3045   1.393   1.325  13.827
  383SOL    HW1 3046   1.378   1.396  13.889
  383SOL    HW2 3047   1.464   1.357  13.771
  384SOL     OW 3048   6.440   6.191   5.535
  384SOL    HW1 3049   6.418   6.217   5.445
  384SOL    HW2 3050   6.361   6.209   5.585
  385SOL     OW 3051   4.347   4.508   7.687
  385SOL    HW1 3052   4.416   4.516   7.621
  385SOL    HW2 3053   4.276   4.463   7.642
  386SOL     OW 3054   9.557   4.290   0.285
  386SOL    HW1 3055   9.633   4.293   0.342
  386SOL    HW2 3056   9.583   4.231   0.214
  387SOL     OW 3057  13.679   2.244   6.038
  387SOL    HW1 3058  13.587   2.265   6.021
  387SOL    HW2 3059  13.711   2.317   6.090
  388SOL     OW 3060   5.873  12.105   8.771
  388SOL    HW1 3061   5.788  12.144   8.792
  388SOL    HW2 3062   5.921  12.107   8.853
  389SOL     OW 3063   9.668  10.948   5.216
  389SOL    HW1 3064   9.709  10.869   5.252
  389SOL    HW2 3065   9.575  10.925   5.207
  390SOL     OW 3066   7.765   7.065  12.106
  390SOL    HW1 3067   7.687   7.107  12.069
  390SOL    HW2 3068   7.730   6.997  12.164
  391SOL     OW 3069   8.730  12.530   3.004
  391SOL    HW1 3070   8.662  12.498   3.063
  391SOL    HW2 3071   8.733  12.466   2.933
  392SOL     OW 3072  12.107   7.829  12.250
  392SOL    HW1 3073  12.047   7.756  12.232
  392SOL    HW2 3074  12.058   7.907  12.225
  393SOL     OW 3075   0.559  12.446   1.555
  393SOL    HW1 3076   0.607  12.510   1.608
  393SOL    HW2 3077   0.473  12.440   1.596
  394SOL     OW 3078  12.533   8.536   1.957
  394SOL    HW1 3079  12.528   8.625   1.923
  394SOL    HW2 3080  12.457   8.527   2.014
  395SOL     OW 3081   7.475  10.405  10.239
  395SOL    HW1 3082   7.394  10.431  10.197
  395SOL    HW2 3083   7.501  10.480  10.292
  396SOL     OW 3084  10.414   3.889   5.270
  396SOL    HW1 3085  10.457   3.892   5.184
  396SOL    HW2 3086  10.350   3.818   5.261
  397SOL     OW 3087  10.467   4.075   8.918
  397SOL    HW1 3088  10.498   4.014   8.985
  397SOL    HW2 3089  10.456   4.021   8.840
  398SOL     OW 3090  11.377   8.874   2.122
  398SOL    HW1 3091  11.423   8.956   2.107
  398SOL    HW2 3092  11.351   8.844   2.034
  399SOL     OW 3093   1.178   4.966   3.666
  399SOL    HW1 3094   1.189   5.060   3.683
  399SOL    HW2 3095   1.172   4.959   3.571
  400SOL     OW 3096  11.374   1.064  12.181
  400SOL    HW1 3097  11.337   1.105  12.103
  400SOL    HW2 3098  11.314   0.993  12.202
  401SOL     OW 3099  14.784   1.261  13.898
  401SOL    HW1 3100  14.788   1.249  13.803
  401SOL    HW2 3101  14.808   1.176  13.934
  402SOL     OW 3102   6.552   2.904   9.190
  402SOL    HW1 3103   6.559   2.968   9.261
  402SOL    HW2 3104   6.642   2.875   9.175
  403SOL     OW 3105  14.832   2.459   5.000
  403SOL    HW1 3106  14.783   2.540   5.012
  403SOL    HW2 3107  14.800   2.424   4.917
  404SOL     OW 3108   7.660   0.045   1.713
  404SOL    HW1 3109   7.667   0.079   1.624
  404SOL    HW2 3110   7.730   0.088   1.761
  405SOL     OW 3111   7.959   3.047   5.618
  405SOL    HW1 3112   8.045   3.090   5.613
  405SOL    HW2 3113   7.958   2.985   5.545
  406SOL     OW 3114   6.204   7.563   1.640
  406SOL    HW1 3115   6.127   7.507   1.636
  406SOL    HW2 3116   6.266   7.515   1.694
  407SOL     OW 3117   5.546   9.639  10.072
  407SOL    HW1 3118   5.548   9.573  10.141
  407SOL    HW2 3119   5.511   9.593   9.996
  408SOL     OW 3120  14.366   1.234  12.056
  408SOL    HW1 3121  14.402   1.175  12.123
  408SOL    HW2 3122  14.273   1.238  12.076
  409SOL     OW 3123   8.644  11.041  12.740
  409SOL    HW1 3124   8.602  11.069  12.658
  409SOL    HW2 3125   8.607  11.098  12.807
  410SOL     OW 3126   6.113   1.786  11.268
  410SOL    HW1 3127   6.108   1.823  11.356
  410SOL    HW2 3128   6.189   1.829  11.228
  411SOL     OW 3129   8.114  12.477   7.073
  411SOL    HW1 3130   8.147  12.401   7.119
  411SOL    HW2 3131   8.087  12.444   6.987
  412SOL     OW 3132   4.521  10.527   7.343
  412SOL    HW1 3133   4.557  10.439   7.352
  412SOL    HW2 3134   4.482  10.545   7.428
  413SOL     OW 3135  13.094   2.204  10.433
  413SOL    HW1 3136  13.183   2.215  10.465
  413SOL    HW2 3137  13.048   2.160  10.505
  414SOL     OW 3138  10.129   0.500   8.866
  414SOL    HW1 3139  10.138   0.575   8.807
  414SOL    HW2 3140  10.062   0.445   8.825
  415SOL     OW 3141   9.444  12.219  13.123
  415SOL    HW1 3142   9.537  12.204  13.134
  415SOL    HW2 3143   9.431  12.221  13.028
  416SOL     OW 3144   7.924   8.118   5.603
  416SOL    HW1 3145   7.933   8.042   5.660
  416SOL    HW2 3146   7.973   8.187   5.647
  417SOL     OW 3147  11.867  14.204  14.852
  417SOL    HW1 3148  11.952  14.228   0.013
  417SOL    HW2 3149  11.821  14.164   0.051
  418SOL     OW 3150   3.612  13.776  13.879
  418SOL    HW1 3151   3.707  13.775  13.873
  418SOL    HW2 3152   3.587  13.866  13.857
  419SOL     OW 3153   3.618   0.792  13.949
  419SOL    HW1 3154   3.592   0.877  13.985
  419SOL    HW2 3155   3.538   0.755  13.913
  420SOL     OW 3156  13.180   1.476  10.385
  420SOL    HW1 3157  13.101   1.503  10.432
  420SOL    HW2 3158  13.243   1.452  10.453
  421SOL     OW 3159  14.447   2.401   2.520
  421SOL    HW1 3160  14.518   2.337   2.511
  421SOL    HW2 3161  14.381   2.371   2.458
  422SOL     OW 3162   6.966  13.670  14.045
  422SOL    HW1 3163   6.939  13.711  13.963
  422SOL    HW2 3164   6.942  13.732  14.113
  423SOL     OW 3165   5.337  14.176  13.046
  423SOL    HW1 3166   5.367  14.259  13.082
  423SOL    HW2 3167   5.372  14.110  13.107
  424SOL     OW 3168  10.018  10.202   5.173
  424SOL    HW1 3169   9.967  10.236   5.100
  424SOL    HW2 3170  10.108  10.229   5.155
  425SOL     OW 3171  11.020   8.644  11.295
  425SOL    HW1 3172  11.083   8.700  11.341
  425SOL    HW2 3173  11.019   8.562  11.345
  426SOL     OW 3174  13.497   0.432   5.230
  426SOL    HW1 3175  13.531   0.465   5.313
  426SOL    HW2 3176  13.515   0.501   5.167
  427SOL     OW 3177   1.787  13.394  14.820
  427SOL    HW1 3178   1.766  13.301  14.808
  427SOL    HW2 3179   1.779  13.408   0.039
  428SOL     OW 3180   1.090   1.902   7.621
  428SOL    HW1 3181   1.168   1.860   7.657
  428SOL    HW2 3182   1.048   1.834   7.568
  429SOL     OW 3183  11.903   0.999   5.347
  429SOL    HW1 3184  11.879   0.913   5.313
  429SOL    HW2 3185  11.934   1.047   5.271
  430SOL     OW 3186   3.170   7.388   0.029
  430SOL    HW1 3187   3.162   7.373  14.810
  430SOL    HW2 3188   3.262   7.369   0.049
  431SOL     OW 3189  13.925   6.499  12.492
  431SOL    HW1 3190  13.835   6.476  12.517
  431SOL    HW2 3191  13.943   6.580  12.540
  432SOL     OW 3192   1.222   5.236   0.705
  432SOL    HW1 3193   1.197   5.259   0.795
  432SOL    HW2 3194   1.245   5.143   0.711
  433SOL     OW 3195  13.990   8.163  10.340
  433SOL    HW1 3196  14.077   8.138  10.309
  433SOL    HW2 3197  13.963   8.091  10.397
  434SOL     OW 3198   3.393   0.111  14.867
  434SOL    HW1 3199   3.305   0.149  14.861
  434SOL    HW2 3200   3.429   0.119  14.779
  435SOL     OW 3201   2.169   1.963   1.920
  435SOL    HW1 3202   2.263   1.961   1.942
  435SOL    HW2 3203   2.154   1.883   1.870
  436SOL     OW 3204   9.455   5.608   8.786
  436SOL    HW1 3205   9.503   5.546   8.841
  436SOL    HW2 3206   9.363   5.593   8.808
  437SOL     OW 3207  12.264  13.710   0.774
  437SOL    HW1 3208  12.295  13.647   0.839
  437SOL    HW2 3209  12.333  13.712   0.708
  438SOL     OW 3210  14.245   2.418   1.806
  438SOL    HW1 3211  14.174   2.437   1.745
  438SOL    HW2 3212  14.325   2.441   1.759
  439SOL     OW 3213  10.320  13.411   3.887
  439SOL    HW1 3214  10.314  13.440   3.979
  439SOL    HW2 3215  10.405  13.442   3.858
  440SOL     OW 3216   9.228   9.546   9.867
  440SOL    HW1 3217   9.265   9.458   9.857
  440SOL    HW2 3218   9.205   9.572   9.777
  441SOL     OW 3219   3.189   9.107   4.383
  441SOL    HW1 3220   3.211   9.140   4.471
  441SOL    HW2 3221   3.237   9.024   4.376
  442SOL     OW 3222   4.286   7.604   6.580
  442SOL    HW1 3223   4.234   7.682   6.600
  442SOL    HW2 3224   4.251   7.574   6.496
  443SOL     OW 3225  14.648   7.113   0.877
  443SOL    HW1 3226  14.629   7.094   0.969
  443SOL    HW2 3227  14.589   7.055   0.828
  444SOL     OW 3228   1.073   4.449   8.882
  444SOL    HW1 3229   1.111   4.534   8.859
  444SOL    HW2 3230   1.096   4.391   8.809
  445SOL     OW 3231  13.292   7.314   0.370
  445SOL    HW1 3232  13.360   7.357   0.421
  445SOL    HW2 3233  13.295   7.358   0.285
  446SOL     OW 3234  11.696   6.865   1.267
  446SOL    HW1 3235  11.721   6.775   1.250
  446SOL    HW2 3236  11.762   6.898   1.327
  447SOL     OW 3237   7.972   3.028   8.579
  447SOL    HW1 3238   7.951   2.951   8.526
  447SOL    HW2 3239   7.887   3.064   8.604
  448SOL     OW 3240   0.365   8.098  13.809
  448SOL    HW1 3241   0.307   8.040  13.859
  448SOL    HW2 3242   0.453   8.069  13.832
  449SOL     OW 3243   7.119   9.498   9.838
  449SOL    HW1 3244   7.141   9.499   9.931
  449SOL    HW2 3245   7.098   9.589   9.817
  450SOL     OW 3246   2.573  11.604   6.280
  450SOL    HW1 3247   2.643  11.538   6.277
  450SOL    HW2 3248   2.525  11.591   6.199
  451SOL     OW 3249  14.211   4.175   3.450
  451SOL    HW1 3250  14.199   4.160   3.356
  451SOL    HW2 3251  14.219   4.270   3.459
  452SOL     OW 3252   3.362   5.632   5.094
  452SOL    HW1 3253   3.423   5.594   5.032
  452SOL    HW2 3254   3.399   5.610   5.180
  453SOL     OW 3255  14.012  12.866   6.992
  453SOL    HW1 3256  14.051  12.880   7.078
  453SOL    HW2 3257  13.920  12.846   7.010
  454SOL     OW 3258   5.993   9.180  13.816
  454SOL    HW1 3259   5.940   9.252  13.851
  454SOL    HW2 3260   5.986   9.112  13.882
  455SOL     OW 3261   2.878  11.268   1.626
  455SOL    HW1 3262   2.823  11.343   1.649
  455SOL    HW2 3263   2.968  11.300   1.638
  456SOL     OW 3264   6.869   9.218   0.512
  456SOL    HW1 3265   6.842   9.310   0.512
  456SOL    HW2 3266   6.791   9.171   0.543
  457SOL     OW 3267  12.313   5.676   7.694
  457SOL    HW1 3268  12.249   5.643   7.630
  457SOL    HW2 3269  12.270   5.751   7.733
  458SOL     OW 3270   8.383   4.027   1.860
  458SOL    HW1 3271   8.457   3.976   1.828
  458SOL    HW2 3272   8.415   4.117   1.866
  459SOL     OW 3273  13.761  12.915   6.846
  459SOL    HW1 3274  13.752  12.823   6.871
  459SOL    HW2 3275  13.712  12.924   6.764
  460SOL     OW 3276   0.804  10.073   0.790
  460SOL    HW1 3277   0.831  10.063   0.881
  460SOL    HW2 3278   0.875  10.035   0.739
  461SOL     OW 3279   4.421  14.252   5.967
  461SOL    HW1 3280   4.412  14.169   6.013
  461SOL    HW2 3281   4.368  14.314   6.018
  462SOL     OW 3282   1.684   5.949  11.737
  462SOL    HW1 3283   1.713   6.015  11.800
  462SOL    HW2 3284   1.760   5.934  11.681
  463SOL     OW 3285   4.081  12.659   6.087
  463SOL    HW1 3286   4.062  12.753   6.077
  463SOL    HW2 3287   4.102  12.649   6.180
  464SOL     OW 3288  11.204  14.294   7.542
  464SOL    HW1 3289  11.268  14.225   7.524
  464SOL    HW2 3290  11.251  14.375   7.523
  465SOL     OW 3291  14.676   4.894   9.863
  465SOL    HW1 3292  14.656   4.828   9.930
  465SOL    HW2 3293  14.733   4.847   9.801
  466SOL     OW 3294   8.321   2.266   0.727
  466SOL    HW1 3295   8.243   2.304   0.685
  466SOL    HW2 3296   8.344   2.192   0.672
  467SOL     OW 3297   5.172   6.858  13.784
  467SOL    HW1 3298   5.080   6.833  13.785
  467SOL    HW2 3299   5.189   6.894  13.871
  468SOL     OW 3300   9.703   0.785   0.831
  468SOL    HW1 3301   9.782   0.838   0.819
  468SOL    HW2 3302   9.737   0.696   0.845
  469SOL     OW 3303   1.885  14.470   2.888
  469SOL    HW1 3304   1.937  14.470   2.808
  469SOL    HW2 3305   1.882  14.379   2.914
  470SOL     OW 3306   4.391   0.863   8.374
  470SOL    HW1 3307   4.327   0.898   8.312
  470SOL    HW2 3308   4.399   0.771   8.350
  471SOL     OW 3309   3.333   8.098  12.203
  471SOL    HW1 3310   3.369   8.048  12.276
  471SOL    HW2 3311   3.266   8.154  12.242
  472SOL     OW 3312   4.635   9.687   3.881
  472SOL    HW1 3313   4.604   9.672   3.970
  472SOL    HW2 3314   4.556   9.700   3.830
  473SOL     OW 3315   5.887   2.897   4.722
  473SOL    HW1 3316   5.955   2.905   4.789
  473SOL    HW2 3317   5.930   2.855   4.648
  474SOL     OW 3318  11.248  10.063   7.900
  474SOL    HW1 3319  11.154  10.065   7.879
  474SOL    HW2 3320  11.262  10.139   7.955
  475SOL     OW 3321   7.854  12.833  13.805
  475SOL    HW1 3322   7.809  12.785  13.735
  475SOL    HW2 3323   7.859  12.923  13.773
  476SOL     OW 3324   4.201   8.825   7.636
  476SOL    HW1 3325   4.245   8.761   7.692
  476SOL    HW2 3326   4.243   8.908   7.657
  477SOL     OW 3327   4.385  13.141  10.075
  477SOL    HW1 3328   4.297  13.152  10.113
  477SOL    HW2 3329   4.444  13.181  10.138
  478SOL     OW 3330  10.445  14.148   6.133
  478SOL    HW1 3331  10.355  14.170   6.158
  478SOL    HW2 3332  10.493  14.231   6.140
  479SOL     OW 3333   4.611  11.579  11.516
  479SOL    HW1 3334   4.633  11.640  11.446
  479SOL    HW2 3335   4.554  11.514  11.474
  480SOL     OW 3336   8.558   3.588  13.983
  480SOL    HW1 3337   8.608   3.660  13.944
  480SOL    HW2 3338   8.483   3.576  13.925
  481SOL     OW 3339   7.014   0.111   3.101
  481SOL    HW1 3340   7.093   0.145   3.144
  481SOL    HW2 3341   6.967   0.189   3.073
  482SOL     OW 3342   7.080  13.604  11.369
  482SOL    HW1 3343   7.084  13.526  11.424
  482SOL    HW2 3344   7.164  13.648  11.382
  483SOL     OW 3345   5.097  12.367   9.601
  483SOL    HW1 3346   5.166  12.426   9.572
  483SOL    HW2 3347   5.112  12.287   9.551
  484SOL     OW 3348  11.513   6.532   5.715
  484SOL    HW1 3349  11.419   6.524   5.698
  484SOL    HW2 3350  11.549   6.446   5.692
  485SOL     OW 3351   9.669   9.011   1.970
  485SOL    HW1 3352   9.715   9.078   2.021
  485SOL    HW2 3353   9.705   9.020   1.882
  486SOL     OW 3354   9.500  10.846   4.531
  486SOL    HW1 3355   9.447  10.807   4.601
  486SOL    HW2 3356   9.499  10.940   4.549
  487SOL     OW 3357  12.602   9.050   0.360
  487SOL    HW1 3358  12.659   9.063   0.285
  487SOL    HW2 3359  12.658   9.066   0.436
  488SOL     OW 3360   0.338   0.955   4.393
  488SOL    HW1 3361   0.359   1.041   4.428
  488SOL    HW2 3362   0.242   0.953   4.392
  489SOL     OW 3363  11.566  14.435  10.918
  489SOL    HW1 3364  11.661  14.447  10.915
  489SOL    HW2 3365  11.546  14.385  10.838
  490SOL     OW 3366   5.504   1.443   3.473
  490SOL    HW1 3367   5.419   1.473   3.504
  490SOL    HW2 3368   5.489   1.352   3.446
  491SOL     OW 3369   0.785   2.026   8.602
  491SOL    HW1 3370   0.749   2.031   8.513
  491SOL    HW2 3371   0.789   1.933   8.621
  492SOL     OW 3372  12.427   0.963  14.790
  492SOL    HW1 3373  12.461   0.987   0.001
  492SOL    HW2 3374  12.413   0.868  14.795
  493SOL     OW 3375   5.721  11.679  10.627
  493SOL    HW1 3376   5.719  11.756  10.570
  493SOL    HW2 3377   5.755  11.609  10.571
  494SOL     OW 3378  13.571   5.305   4.385
  494SOL    HW1 3379  13.509   5.302   4.459
  494SOL    HW2 3380  13.555   5.390   4.344
  495SOL     OW 3381   0.476   4.683   2.790
  495SOL    HW1 3382   0.548   4.656   2.847
  495SOL    HW2 3383   0.488   4.777   2.780
  496SOL     OW 3384   6.072   1.104  11.807
  496SOL    HW1 3385   6.056   1.098  11.712
  496SOL    HW2 3386   6.082   1.013  11.835
  497SOL     OW 3387   8.623   8.971   8.233
  497SOL    HW1 3388   8.697   8.911   8.244
  497SOL    HW2 3389   8.602   9.000   8.321
  498SOL     OW 3390  11.326  12.711   8.916
  498SOL    HW1 3391  11.305  12.618   8.916
  498SOL    HW2 3392  11.251  12.753   8.957
  499SOL     OW 3393   4.247  14.799   0.509
  499SOL    HW1 3394   4.239  14.836   0.597
  499SOL    HW2 3395   4.325  14.841   0.473
  500SOL     OW 3396  11.949   0.633  14.318
  500SOL    HW1 3397  11.860   0.667  14.320
  500SOL    HW2 3398  11.994   0.685  14.252
  501SOL     OW 3399   5.160   1.735   0.081
  501SOL    HW1 3400   5.082   1.733   0.136
  501SOL    HW2 3401   5.234   1.730   0.143
  502SOL     OW 3402   7.228   9.073   4.264
  502SOL    HW1 3403   7.151   9.021   4.242
  502SOL    HW2 3404   7.207   9.111   4.349
  503SOL     OW 3405   1.152   4.072  10.212
  503SOL    HW1 3406   1.167   4.166  10.215
  503SOL    HW2 3407   1.086   4.056  10.280
  504SOL     OW 3408  11.128   4.180   0.959
  504SOL    HW1 3409  11.202   4.238   0.979
  504SOL    HW2 3410  11.069   4.235   0.907
  505SOL     OW 3411  10.911   8.365   3.845
  505SOL    HW1 3412  10.859   8.300   3.892
  505SOL    HW2 3413  10.970   8.401   3.911
  506SOL     OW 3414  14.128  11.315   7.557
  506SOL    HW1 3415  14.087  11.265   7.487
  506SOL    HW2 3416  14.172  11.388   7.512
  507SOL     OW 3417   0.339   7.588   9.263
  507SOL    HW1 3418   0.303   7.674   9.244
  507SOL    HW2 3419   0.270   7.527   9.239
  508SOL     OW 3420   2.960  12.517   1.800
  508SOL    HW1 3421   2.969  12.607   1.770
  508SOL    HW2 3422   3.008  12.465   1.736
  509SOL     OW 3423   3.331   8.365  13.124
  509SOL    HW1 3424   3.401   8.419  13.160
  509SOL    HW2 3425   3.254   8.422  13.125
  510SOL     OW 3426   6.871   0.524   6.777
  510SOL    HW1 3427   6.956   0.557   6.748
  510SOL    HW2 3428   6.825   0.501   6.696
  511SOL     OW 3429  14.127  11.643   8.157
  511SOL    HW1 3430  14.110  11.555   8.124
  511SOL    HW2 3431  14.220  11.643   8.180
  512SOL     OW 3432  13.003   2.297   1.869
  512SOL    HW1 3433  12.989   2.343   1.786
  512SOL    HW2 3434  12.962   2.212   1.856
  513SOL     OW 3435   8.946  10.750   9.715
  513SOL    HW1 3436   8.926  10.783   9.803
  513SOL    HW2 3437   8.908  10.662   9.714
  514SOL     OW 3438   0.776  11.117   0.123
  514SOL    HW1 3439   0.775  11.088   0.214
  514SOL    HW2 3440   0.706  11.066   0.081
  515SOL     OW 3441   6.190  12.832   2.775
  515SOL    HW1 3442   6.131  12.865   2.708
  515SOL    HW2 3443   6.148  12.753   2.808
  516SOL     OW 3444  14.520  12.410  12.942
  516SOL    HW1 3445  14.614  12.392  12.938
  516SOL    HW2 3446  14.480  12.326  12.962
  517SOL     OW 3447   3.326  11.227   2.647
  517SOL    HW1 3448   3.374  11.220   2.729
  517SOL    HW2 3449   3.282  11.142   2.637
  518SOL     OW 3450   6.748   5.297  11.938
  518SOL    HW1 3451   6.677   5.239  11.909
  518SOL    HW2 3452   6.813   5.293  11.868
  519SOL     OW 3453   4.860  13.466  13.354
  519SOL    HW1 3454   4.788  13.469  13.292
  519SOL    HW2 3455   4.899  13.379  13.342
  520SOL     OW 3456   4.752   2.867  14.835
  520SOL    HW1 3457   4.796   2.784  14.820
  520SOL    HW2 3458   4.791   2.927  14.772
  521SOL     OW 3459  14.113   4.543   6.285
  521SOL    HW1 3460  14.034   4.539   6.230
  521SOL    HW2 3461  14.138   4.635   6.284
  522SOL     OW 3462  11.287  11.820  11.698
  522SOL    HW1 3463  11.307  11.888  11.763
  522SOL    HW2 3464  11.206  11.781  11.729
  523SOL     OW 3465   1.130   9.708   8.452
  523SOL    HW1 3466   1.076   9.638   8.415
  523SOL    HW2 3467   1.219   9.673   8.451
  524SOL     OW 3468   8.794   0.439   0.010
  524SOL    HW1 3469   8.839   0.366   0.053
  524SOL    HW2 3470   8.852   0.514   0.025
  525SOL     OW 3471   5.446   3.274   5.533
  525SOL    HW1 3472   5.394   3.262   5.613
  525SOL    HW2 3473   5.402   3.220   5.468
  526SOL     OW 3474  11.352   6.790   1.331
  526SOL    HW1 3475  11.374   6.876   1.366
  526SOL    HW2 3476  11.429   6.736   1.347
  527SOL     OW 3477   1.808   7.897  10.605
  527SOL    HW1 3478   1.773   7.828  10.548
  527SOL    HW2 3479   1.762   7.976  10.578
  528SOL     OW 3480   0.279   6.382   2.108
  528SOL    HW1 3481   0.335   6.442   2.058
  528SOL    HW2 3482   0.307   6.295   2.080
  529SOL     OW 3483   9.595   9.678  10.899
  529SOL    HW1 3484   9.605   9.772  10.883
  529SOL    HW2 3485   9.597   9.638  10.812
  530SOL     OW 3486   0.028  10.505   5.141
  530SOL    HW1 3487   0.044  10.549   5.224
  530SOL    HW2 3488  14.868  10.419   5.165
  531SOL     OW 3489   0.383  10.831   6.381
  531SOL    HW1 3490   0.295  10.833   6.419
  531SOL    HW2 3491   0.415  10.743   6.399
  532SOL     OW 3492  14.022  10.535   0.047
  532SOL    HW1 3493  14.016  10.492  14.837
  532SOL    HW2 3494  14.112  10.567   0.051
  533SOL     OW 3495   7.423   7.111  13.219
  533SOL    HW1 3496   7.517   7.092  13.212
  533SOL    HW2 3497   7.415   7.202  13.191
  534SOL     OW 3498   0.522   5.851   4.949
  534SOL    HW1 3499   0.529   5.944   4.928
  534SOL    HW2 3500   0.595   5.810   4.901
  535SOL     OW 3501   9.694  12.197  11.080
  535SOL    HW1 3502   9.657  12.242  11.004
  535SOL    HW2 3503   9.785  12.227  11.083
  536SOL     OW 3504   6.490   2.326   8.300
  536SOL    HW1 3505   6.555   2.284   8.355
  536SOL    HW2 3506   6.541   2.377   8.237
  537SOL     OW 3507  11.803   9.477   5.001
  537SOL    HW1 3508  11.790   9.405   5.062
  537SOL    HW2 3509  11.798   9.556   5.055
  538SOL     OW 3510  10.788   4.974  12.898
  538SOL    HW1 3511  10.712   4.944  12.847
  538SOL    HW2 3512  10.757   4.974  12.988
  539SOL     OW 3513   7.749   2.208   9.054
  539SOL    HW1 3514   7.663   2.184   9.091
  539SOL    HW2 3515   7.768   2.293   9.093
  540SOL     OW 3516   4.876   7.120   8.701
  540SOL    HW1 3517   4.847   7.041   8.655
  540SOL    HW2 3518   4.806   7.138   8.764
  541SOL     OW 3519   7.608   9.767  11.495
  541SOL    HW1 3520   7.623   9.842  11.552
  541SOL    HW2 3521   7.513   9.766  11.482
  542SOL     OW 3522  12.448   6.809   7.289
  542SOL    HW1 3523  12.517   6.760   7.244
  542SOL    HW2 3524  12.462   6.789   7.381
  543SOL     OW 3525  10.835   5.751  14.621
  543SOL    HW1 3526  10.866   5.708  14.542
  543SOL    HW2 3527  10.840   5.845  14.601
  544SOL     OW 3528  12.980   7.908   7.085
  544SOL    HW1 3529  12.992   7.976   7.018
  544SOL    HW2 3530  12.951   7.832   7.035
  545SOL     OW 3531   1.200   2.000  11.739
  545SOL    HW1 3532   1.274   1.967  11.789
  545SOL    HW2 3533   1.174   1.927  11.683
  546SOL     OW 3534  11.770   1.855   3.310
  546SOL    HW1 3535  11.692   1.842   3.364
  546SOL    HW2 3536  11.751   1.806   3.229
  547SOL     OW 3537  10.991  11.826  12.981
  547SOL    HW1 3538  11.066  11.883  12.999
  547SOL    HW2 3539  10.955  11.858  12.898
  548SOL     OW 3540   4.862   4.633   0.380
  548SOL    HW1 3541   4.766   4.640   0.380
  548SOL    HW2 3542   4.880   4.557   0.435
  549SOL     OW 3543  13.814  13.068  14.761
  549SOL    HW1 3544  13.868  13.147  14.761
  549SOL    HW2 3545  13.874  12.998  14.734
  550SOL     OW 3546   6.880   9.630   0.326
  550SOL    HW1 3547   6.850   9.573   0.397
  550SOL    HW2 3548   6.848   9.588   0.246
  551SOL     OW 3549   3.196  12.231  10.343
  551SOL    HW1 3550   3.275  12.258  10.390
  551SOL    HW2 3551   3.204  12.272  10.257
  552SOL     OW 3552  14.222   4.723   4.750
  552SOL    HW1 3553  14.161   4.657   4.717
  552SOL    HW2 3554  14.190   4.805   4.714
  553SOL     OW 3555  11.784  10.340   9.370
  553SOL    HW1 3556  11.859  10.280   9.371
  553SOL    HW2 3557  11.768  10.357   9.277
  554SOL     OW 3558   7.285   7.805  11.794
  554SOL    HW1 3559   7.229   7.864  11.744
  554SOL    HW2 3560   7.346   7.769  11.730
  555SOL     OW 3561   7.496   1.017   6.409
  555SOL    HW1 3562   7.525   1.071   6.483
  555SOL    HW2 3563   7.403   1.039   6.398
  556SOL     OW 3564   4.004   6.510  12.502
  556SOL    HW1 3565   3.926   6.563  12.490
  556SOL    HW2 3566   4.022   6.473  12.416
  557SOL     OW 3567   5.534   7.868   1.050
  557SOL    HW1 3568   5.510   7.802   1.116
  557SOL    HW2 3569   5.568   7.817   0.977
  558SOL     OW 3570   1.563   1.512   8.996
  558SOL    HW1 3571   1.587   1.530   8.905
  558SOL    HW2 3572   1.582   1.593   9.043
  559SOL     OW 3573   8.071   8.929  13.048
  559SOL    HW1 3574   8.150   8.895  13.089
  559SOL    HW2 3575   8.102   8.989  12.980
  560SOL     OW 3576   6.815   9.671   6.484
  560SOL    HW1 3577   6.735   9.624   6.461
  560SOL    HW2 3578   6.789   9.727   6.558
  561SOL     OW 3579  12.346  14.267  14.544
  561SOL    HW1 3580  12.406  14.333  14.509
  561SOL    HW2 3581  12.404  14.201  14.583
  562SOL     OW 3582   2.593   9.771   6.218
  562SOL    HW1 3583   2.628   9.830   6.151
  562SOL    HW2 3584   2.633   9.686   6.198
  563SOL     OW 3585   7.712  13.718   3.177
  563SOL    HW1 3586   7.657  13.770   3.236
  563SOL    HW2 3587   7.751  13.782   3.118
  564SOL     OW 3588   2.567   2.483   3.478
  564SOL    HW1 3589   2.591   2.428   3.403
  564SOL    HW2 3590   2.513   2.427   3.533
  565SOL     OW 3591   3.590   4.663   3.422
  565SOL    HW1 3592   3.607   4.690   3.331
  565SOL    HW2 3593   3.538   4.735   3.458
  566SOL     OW 3594   2.593   0.289   1.252
  566SOL    HW1 3595   2.644   0.368   1.239
  566SOL    HW2 3596   2.564   0.264   1.164
  567SOL     OW 3597  11.772  11.667   0.266
  567SOL    HW1 3598  11.817  11.747   0.238
  567SOL    HW2 3599  11.708  11.698   0.330
  568SOL     OW 3600  14.837   3.563  14.408
  568SOL    HW1 3601   0.056   3.546  14.400
  568SOL    HW2 3602  14.796   3.490  14.362
  569SOL     OW 3603  12.818  14.138   4.596
  569SOL    HW1 3604  12.780  14.201   4.535
  569SOL    HW2 3605  12.908  14.168   4.607
  570SOL     OW 3606   2.548   8.776  13.097
  570SOL    HW1 3607   2.556   8.860  13.051
  570SOL    HW2 3608   2.456   8.771  13.121
  571SOL     OW 3609   9.449  11.916  14.358
  571SOL    HW1 3610   9.444  11.896  14.264
  571SOL    HW2 3611   9.405  11.843  14.400
  572SOL     OW 3612  10.660   6.380   5.489
  572SOL    HW1 3613  10.595   6.417   5.430
  572SOL    HW2 3614  10.618   6.302   5.525
  573SOL     OW 3615   8.188   0.349   7.143
  573SOL    HW1 3616   8.181   0.372   7.235
  573SOL    HW2 3617   8.277   0.316   7.133
  574SOL     OW 3618   0.826   7.077   7.949
  574SOL    HW1 3619   0.798   7.034   7.868
  574SOL    HW2 3620   0.804   7.014   8.018
  575SOL     OW 3621   7.455   0.539   1.690
  575SOL    HW1 3622   7.446   0.511   1.599
  575SOL    HW2 3623   7.438   0.633   1.688
  576SOL     OW 3624   0.685  12.618   2.015
  576SOL    HW1 3625   0.691  12.530   1.978
  576SOL    HW2 3626   0.714  12.676   1.945
  577SOL     OW 3627  11.455   0.827  11.071
  577SOL    HW1 3628  11.484   0.747  11.116
  577SOL    HW2 3629  11.473   0.809  10.978
  578SOL     OW 3630  12.242  10.572   2.397
  578SOL    HW1 3631  12.257  10.568   2.302
  578SOL    HW2 3632  12.256  10.664   2.419
  579SOL     OW 3633   8.511   3.234   2.333
  579SOL    HW1 3634   8.453   3.193   2.397
  579SOL    HW2 3635   8.579   3.169   2.317
  580SOL     OW 3636  10.149  10.186   8.080
  580SOL    HW1 3637  10.203  10.234   8.016
  580SOL    HW2 3638  10.139  10.099   8.042
  581SOL     OW 3639   7.567  12.245   3.974
  581SOL    HW1 3640   7.608  12.288   3.899
  581SOL    HW2 3641   7.474  12.240   3.951
  582SOL     OW 3642  14.184  14.546   8.179
  582SOL    HW1 3643  14.130  14.512   8.108
  582SOL    HW2 3644  14.151  14.501   8.257
  583SOL     OW 3645  14.516  11.236   7.964
  583SOL    HW1 3646  14.489  11.320   7.926
  583SOL    HW2 3647  14.496  11.172   7.895
  584SOL     OW 3648   2.966   6.325   7.621
  584SOL    HW1 3649   3.014   6.253   7.662
  584SOL    HW2 3650   3.018   6.403   7.639
  585SOL     OW 3651   5.384   7.190   5.091
  585SOL    HW1 3652   5.304   7.200   5.039
  585SOL    HW2 3653   5.429   7.274   5.081
  586SOL     OW 3654   1.738   0.193   5.230
  586SOL    HW1 3655   1.799   0.259   5.262
  586SOL    HW2 3656   1.722   0.217   5.139
  587SOL     OW 3657  11.981   3.964   8.405
  587SOL    HW1 3658  11.997   4.051   8.442
  587SOL    HW2 3659  11.921   3.922   8.465
  588SOL     OW 3660   5.208   9.584   1.923
  588SOL    HW1 3661   5.153   9.621   1.854
  588SOL    HW2 3662   5.169   9.499   1.942
  589SOL     OW 3663   4.972   5.451   6.501
  589SOL    HW1 3664   4.962   5.443   6.406
  589SOL    HW2 3665   4.999   5.542   6.515
  590SOL     OW 3666   9.773   0.116   5.973
  590SOL    HW1 3667   9.807   0.180   6.035
  590SOL    HW2 3668   9.735   0.168   5.903
  591SOL     OW 3669  13.809   3.621   7.791
  591SOL    HW1 3670  13.900   3.590   7.788
  591SOL    HW2 3671  13.757   3.543   7.770
  592SOL     OW 3672  13.430  14.131   2.749
  592SOL    HW1 3673  13.373  14.097   2.817
  592SOL    HW2 3674  13.440  14.224   2.770
  593SOL     OW 3675  12.911  14.496   4.577
  593SOL    HW1 3676  12.971  14.426   4.551
  593SOL    HW2 3677  12.831  14.478   4.528
  594SOL     OW 3678  11.537   1.939   3.622
  594SOL    HW1 3679  11.563   1.848   3.634
  594SOL    HW2 3680  11.533   1.975   3.711
  595SOL     OW 3681   1.455   6.908   5.010
  595SOL    HW1 3682   1.519   6.979   5.000
  595SOL    HW2 3683   1.505   6.834   5.042
  596SOL     OW 3684   7.171  11.352   8.761
  596SOL    HW1 3685   7.127  11.348   8.845
  596SOL    HW2 3686   7.115  11.302   8.702
  597SOL     OW 3687  10.705  11.629  10.091
  597SOL    HW1 3688  10.793  11.627  10.128
  597SOL    HW2 3689  10.647  11.629  10.167
  598SOL     OW 3690   9.161  10.027   1.048
  598SOL    HW1 3691   9.113  10.109   1.039
  598SOL    HW2 3692   9.136   9.976   0.971
  599SOL     OW 3693   2.498  12.596  13.849
  599SOL    HW1 3694   2.570  12.534  13.831
  599SOL    HW2 3695   2.428  12.541  13.884
  600SOL     OW 3696  13.891   2.047   7.135
  600SOL    HW1 3697  13.857   2.098   7.062
  600SOL    HW2 3698  13.913   1.962   7.096
  601SOL     OW 3699   4.481   8.627   4.311
  601SOL    HW1 3700   4.408   8.622   4.249
  601SOL    HW2 3701   4.541   8.558   4.283
  602SOL     OW 3702  12.206  11.501   4.096
  602SOL    HW1 3703  12.277  11.559   4.125
  602SOL    HW2 3704  12.172  11.542   4.016
  603SOL     OW 3705  13.493  13.947  12.965
  603SOL    HW1 3706  13.538  14.028  12.987
  603SOL    HW2 3707  13.504  13.938  12.871
  604SOL     OW 3708  10.161   1.863   6.683
  604SOL    HW1 3709  10.216   1.874   6.605
  604SOL    HW2 3710  10.121   1.777   6.673
  605SOL     OW 3711   9.509   1.957   5.867
  605SOL    HW1 3712   9.432   1.968   5.923
  605SOL    HW2 3713   9.479   1.903   5.794
  606SOL     OW 3714   1.956  12.999  12.849
  606SOL    HW1 3715   1.955  13.073  12.910
  606SOL    HW2 3716   1.867  12.965  12.851
  607SOL     OW 3717   0.546   0.743   5.657
  607SOL    HW1 3718   0.521   0.832   5.683
  607SOL    HW2 3719   0.640   0.749   5.640
  608SOL     OW 3720  13.366   6.171   4.307
  608SOL    HW1 3721  13.363   6.251   4.255
  608SOL    HW2 3722  13.423   6.112   4.257
  609SOL     OW 3723   7.670   9.081  13.975
  609SOL    HW1 3724   7.720   9.001  13.992
  609SOL    HW2 3725   7.714   9.121  13.900
  610SOL     OW 3726   1.699  10.274   0.114
  610SOL    HW1 3727   1.719  10.253   0.023
  610SOL    HW2 3728   1.652  10.197   0.147
  611SOL     OW 3729   1.229  13.666   5.364
  611SOL    HW1 3730   1.322  13.657   5.382
  611SOL    HW2 3731   1.205  13.750   5.402
  612SOL     OW 3732  13.297  12.666  10.098
  612SOL    HW1 3733  13.251  12.605  10.155
  612SOL    HW2 3734  13.285  12.752  10.139
  613SOL     OW 3735   2.033   3.324   0.998
  613SOL    HW1 3736   2.089   3.277   1.061
  613SOL    HW2 3737   1.985   3.255   0.953
  614SOL     OW 3738   4.676   3.381   9.089
  614SOL    HW1 3739   4.695   3.299   9.135
  614SOL    HW2 3740   4.761   3.411   9.057
  615SOL     OW 3741   1.641   8.726  13.264
  615SOL    HW1 3742   1.658   8.788  13.335
  615SOL    HW2 3743   1.684   8.765  13.187
  616SOL     OW 3744   1.305   4.449  14.523
  616SOL    HW1 3745   1.321   4.527  14.471
  616SOL    HW2 3746   1.276   4.383  14.460
  617SOL     OW 3747  11.894   2.610   8.158
  617SOL    HW1 3748  11.963   2.659   8.203
  617SOL    HW2 3749  11.906   2.519   8.186
  618SOL     OW 3750   5.808   4.444  11.435
  618SOL    HW1 3751   5.823   4.394  11.355
  618SOL    HW2 3752   5.731   4.498  11.415
  619SOL     OW 3753   6.265   5.711   5.969
  619SOL    HW1 3754   6.224   5.784   6.016
  619SOL    HW2 3755   6.289   5.649   6.038
  620SOL     OW 3756   7.277   1.558  13.632
  620SOL    HW1 3757   7.285   1.643  13.589
  620SOL    HW2 3758   7.187   1.555  13.664
  621SOL     OW 3759  11.684  11.751   4.767
  621SOL    HW1 3760  11.699  11.803   4.846
  621SOL    HW2 3761  11.757  11.775   4.709
  622SOL     OW 3762   9.277  10.171   4.770
  622SOL    HW1 3763   9.334  10.214   4.833
  622SOL    HW2 3764   9.317  10.190   4.685
  623SOL     OW 3765  10.423   8.627  13.682
  623SOL    HW1 3766  10.388   8.554  13.631
  623SOL    HW2 3767  10.364   8.636  13.756
  624SOL     OW 3768   3.348   1.872   1.179
  624SOL    HW1 3769   3.423   1.823   1.213
  624SOL    HW2 3770   3.350   1.857   1.085
  625SOL     OW 3771  10.123  12.338  14.433
  625SOL    HW1 3772  10.214  12.313  14.413
  625SOL    HW2 3773  10.071  12.262  14.410
  626SOL     OW 3774  13.963   9.707  12.153
  626SOL    HW1 3775  14.046   9.713  12.105
  626SOL    HW2 3776  13.920   9.631  12.116
  627SOL     OW 3777  12.472  10.440   8.051
  627SOL    HW1 3778  12.516  10.468   7.971
  627SOL    HW2 3779  12.380  10.431   8.027
  628SOL     OW 3780   7.852  11.843  10.431
  628SOL    HW1 3781   7.791  11.782  10.471
  628SOL    HW2 3782   7.803  11.884  10.360
  629SOL     OW 3783  11.862  10.771   0.757
  629SOL    HW1 3784  11.906  10.780   0.672
  629SOL    HW2 3785  11.836  10.861   0.780
  630SOL     OW 3786   7.402   0.055  13.742
  630SOL    HW1 3787   7.378   0.059  13.835
  630SOL    HW2 3788   7.495   0.079  13.741
  631SOL     OW 3789  13.001   5.949   0.128
  631SOL    HW1 3790  12.967   5.886   0.064
  631SOL    HW2 3791  12.993   6.034   0.084
  632SOL     OW 3792  12.305   0.983   9.929
  632SOL    HW1 3793  12.378   0.925   9.952
  632SOL    HW2 3794  12.346   1.060   9.890
  633SOL     OW 3795  10.412  11.035   8.049
  633SOL    HW1 3796  10.317  11.028   8.038
  633SOL    HW2 3797  10.426  11.035   8.143
  634SOL     OW 3798   2.461   6.215   7.107
  634SOL    HW1 3799   2.463   6.213   7.011
  634SOL    HW2 3800   2.369   6.199   7.129
  635SOL     OW 3801  10.662   6.697   1.866
  635SOL    HW1 3802  10.637   6.789   1.863
  635SOL    HW2 3803  10.679   6.680   1.959
  636SOL     OW 3804   5.850   4.396   5.867
  636SOL    HW1 3805   5.841   4.488   5.840
  636SOL    HW2 3806   5.844   4.346   5.786
  637SOL     OW 3807  12.251   5.214  14.605
  637SOL    HW1 3808  12.334   5.167  14.599
  637SOL    HW2 3809  12.190   5.151  14.642
  638SOL     OW 3810   7.254   6.548   4.451
  638SOL    HW1 3811   7.238   6.463   4.492
  638SOL    HW2 3812   7.309   6.595   4.514
  639SOL     OW 3813  11.139   8.567   4.940
  639SOL    HW1 3814  11.217   8.569   4.884
  639SOL    HW2 3815  11.078   8.626   4.896
  640SOL     OW 3816  14.072   2.389   5.727
  640SOL    HW1 3817  14.028   2.423   5.649
  640SOL    HW2 3818  14.033   2.302   5.740
  641SOL     OW 3819   4.202   1.756   7.678
  641SOL    HW1 3820   4.176   1.664   7.679
  641SOL    HW2 3821   4.208   1.780   7.771
  642SOL     OW 3822  14.763   3.431   6.564
  642SOL    HW1 3823  14.728   3.344   6.541
  642SOL    HW2 3824  14.832   3.412   6.628
  643SOL     OW 3825  10.791  12.714   3.040
  643SOL    HW1 3826  10.745  12.724   3.123
  643SOL    HW2 3827  10.859  12.649   3.057
  644SOL     OW 3828  11.781   5.327   1.330
  644SOL    HW1 3829  11.786   5.421   1.316
  644SOL    HW2 3830  11.866   5.293   1.302
  645SOL     OW 3831   3.972  14.241  13.418
  645SOL    HW1 3832   3.937  14.258  13.331
  645SOL    HW2 3833   3.971  14.326  13.462
  646SOL     OW 3834   2.948  14.704   6.602
  646SOL    HW1 3835   2.872  14.756   6.577
  646SOL    HW2 3836   2.927  14.615   6.573
  647SOL     OW 3837  14.660  11.208   3.022
  647SOL    HW1 3838  14.715  11.134   3.048
  647SOL    HW2 3839  14.698  11.238   2.939
  648SOL     OW 3840   4.470  11.731  13.446
  648SOL    HW1 3841   4.494  11.778  13.366
  648SOL    HW2 3842   4.379  11.756  13.461
  649SOL     OW 3843   2.252  14.582   2.728
  649SOL    HW1 3844   2.242  14.582   2.823
  649SOL    HW2 3845   2.288  14.669   2.708
  650SOL     OW 3846  12.286   7.336   8.461
  650SOL    HW1 3847  12.373   7.374   8.468
  650SOL    HW2 3848  12.258   7.322   8.552
  651SOL     OW 3849   8.071  12.537   9.031
  651SOL    HW1 3850   8.087  12.453   9.075
  651SOL    HW2 3851   8.008  12.517   8.962
  652SOL     OW 3852  12.704   4.012   3.819
  652SOL    HW1 3853  12.724   4.090   3.768
  652SOL    HW2 3854  12.773   3.950   3.796
  653SOL     OW 3855   5.716   8.118   7.342
  653SOL    HW1 3856   5.681   8.074   7.420
  653SOL    HW2 3857   5.710   8.053   7.273
  654SOL     OW 3858   9.791   9.996   9.718
  654SOL    HW1 3859   9.708   9.972   9.760
  654SOL    HW2 3860   9.779  10.087   9.690
  655SOL     OW 3861   1.640  14.860   5.603
  655SOL    HW1 3862   1.691  14.780   5.621
  655SOL    HW2 3863   1.583  14.869   5.679
  656SOL     OW 3864   6.469  14.800  10.821
  656SOL    HW1 3865   6.398  14.737  10.813
  656SOL    HW2 3866   6.529  14.760  10.884
  657SOL     OW 3867  10.521  11.507  13.976
  657SOL    HW1 3868  10.461  11.581  13.972
  657SOL    HW2 3869  10.542  11.498  14.069
  658SOL     OW 3870   6.835   2.226   3.424
  658SOL    HW1 3871   6.902   2.272   3.475
  658SOL    HW2 3872   6.866   2.232   3.334
  659SOL     OW 3873   3.030  13.706   9.987
  659SOL    HW1 3874   2.967  13.778   9.985
  659SOL    HW2 3875   3.071  13.708   9.900
  660SOL     OW 3876   6.790   7.191   4.745
  660SOL    HW1 3877   6.711   7.140   4.763
  660SOL    HW2 3878   6.842   7.185   4.825
  661SOL     OW 3879  14.228   1.519   5.730
  661SOL    HW1 3880  14.248   1.429   5.756
  661SOL    HW2 3881  14.218   1.515   5.635
  662SOL     OW 3882   9.393   8.023  12.360
  662SOL    HW1 3883   9.370   8.058  12.274
  662SOL    HW2 3884   9.309   8.000  12.400
  663SOL     OW 3885   6.340  14.707   5.779
  663SOL    HW1 3886   6.291  14.727   5.859
  663SOL    HW2 3887   6.430  14.731   5.801
  664SOL     OW 3888  11.202  12.477   9.167
  664SOL    HW1 3889  11.264  12.543   9.198
  664SOL    HW2 3890  11.218  12.472   9.072
  665SOL     OW 3891   4.223  10.413  12.697
  665SOL    HW1 3892   4.309  10.372  12.689
  665SOL    HW2 3893   4.217  10.438  12.790
  666SOL     OW 3894   2.919   6.766  14.652
  666SOL    HW1 3895   3.013   6.783  14.655
  666SOL    HW2 3896   2.904   6.700  14.720
  667SOL     OW 3897   7.108   2.974   2.197
  667SOL    HW1 3898   7.077   3.050   2.246
  667SOL    HW2 3899   7.047   2.904   2.220
  668SOL     OW 3900   6.108   4.976  11.147
  668SOL    HW1 3901   6.167   4.944  11.078
  668SOL    HW2 3902   6.059   5.047  11.105
  669SOL     OW 3903   2.291   2.041   4.834
  669SOL    HW1 3904   2.251   2.124   4.858
  669SOL    HW2 3905   2.224   1.975   4.852
  670SOL     OW 3906   3.084  13.155   8.421
  670SOL    HW1 3907   3.141  13.115   8.356
  670SOL    HW2 3908   3.123  13.241   8.438
  671SOL     OW 3909   5.098   8.138   5.805
  671SOL    HW1 3910   5.107   8.186   5.887
  671SOL    HW2 3911   5.112   8.047   5.829
  672SOL     OW 3912  14.747   7.470  12.765
  672SOL    HW1 3913  14.664   7.425  12.745
  672SOL    HW2 3914  14.758   7.533  12.694
  673SOL     OW 3915   6.016   2.187   1.051
  673SOL    HW1 3916   5.946   2.177   1.116
  673SOL    HW2 3917   5.974   2.226   0.975
  674SOL     OW 3918  10.482   1.054  10.913
  674SOL    HW1 3919  10.464   1.066  11.007
  674SOL    HW2 3920  10.576   1.034  10.910
  675SOL     OW 3921   0.246  13.691  11.892
  675SOL    HW1 3922   0.319  13.629  11.898
  675SOL    HW2 3923   0.243  13.716  11.800
  676SOL     OW 3924  14.033  10.237   4.801
  676SOL    HW1 3925  14.082  10.157   4.783
  676SOL    HW2 3926  13.944  10.207   4.822
  677SOL     OW 3927   7.425  12.181   2.471
  677SOL    HW1 3928   7.516  12.162   2.447
  677SOL    HW2 3929   7.380  12.098   2.458
  678SOL     OW 3930  12.495   1.979  13.690
  678SOL    HW1 3931  12.590   1.974  13.681
  678SOL    HW2 3932  12.462   1.908  13.636
  679SOL     OW 3933  12.362  10.638  12.504
  679SOL    HW1 3934  12.356  10.597  12.590
  679SOL    HW2 3935  12.404  10.573  12.449
  680SOL     OW 3936  13.116   9.689   8.802
  680SOL    HW1 3937  13.055   9.668   8.731
  680SOL    HW2 3938  13.124   9.609   8.852
  681SOL     OW 3939   5.500   1.383   1.241
  681SOL    HW1 3940   5.486   1.451   1.176
  681SOL    HW2 3941   5.595   1.381   1.254
  682SOL     OW 3942  11.500   5.444   7.475
  682SOL    HW1 3943  11.515   5.476   7.564
  682SOL    HW2 3944  11.459   5.518   7.430
  683SOL     OW 3945   3.800   6.106   8.253
  683SOL    HW1 3946   3.814   6.039   8.187
  683SOL    HW2 3947   3.876   6.099   8.311
  684SOL     OW 3948  11.030  10.775   8.893
  684SOL    HW1 3949  11.114  10.734   8.872
  684SOL    HW2 3950  11.017  10.840   8.825
  685SOL     OW 3951   7.452  14.602   1.965
  685SOL    HW1 3952   7.537  14.603   2.008
  685SOL    HW2 3953   7.443  14.689   1.927
  686SOL     OW 3954  11.394   6.821   0.659
  686SOL    HW1 3955  11.405   6.794   0.567
  686SOL    HW2 3956  11.445   6.901   0.667
  687SOL     OW 3957   9.537  13.062   0.102
  687SOL    HW1 3958   9.568  13.060   0.192
  687SOL    HW2 3959   9.458  13.115   0.104
  688SOL     OW 3960   9.490  10.019   2.217
  688SOL    HW1 3961   9.425  10.039   2.150
  688SOL    HW2 3962   9.534  10.103   2.233
  689SOL     OW 3963   4.392   7.917   6.621
  689SOL    HW1 3964   4.466   7.878   6.667
  689SOL    HW2 3965   4.423   7.929   6.532
  690SOL     OW 3966  13.051   4.015   6.227
  690SOL    HW1 3967  13.021   4.058   6.148
  690SOL    HW2 3968  13.045   3.922   6.208
  691SOL     OW 3969  11.376  13.234   2.801
  691SOL    HW1 3970  11.383  13.272   2.888
  691SOL    HW2 3971  11.321  13.157   2.812
  692SOL     OW 3972   6.498   6.405  10.598
  692SOL    HW1 3973   6.529   6.453  10.675
  692SOL    HW2 3974   6.480   6.473  10.533
  693SOL     OW 3975  12.296   5.609   5.493
  693SOL    HW1 3976  12.287   5.659   5.575
  693SOL    HW2 3977  12.313   5.676   5.427
  694SOL     OW 3978   2.897   5.057   1.236
  694SOL    HW1 3979   2.842   5.011   1.172
  694SOL    HW2 3980   2.842   5.129   1.267
  695SOL     OW 3981  14.275  11.244   2.082
  695SOL    HW1 3982  14.184  11.270   2.091
  695SOL    HW2 3983  14.282  11.207   1.994
  696SOL     OW 3984  14.216   3.614   8.792
  696SOL    HW1 3985  14.260   3.655   8.718
  696SOL    HW2 3986  14.280   3.553   8.828
  697SOL     OW 3987  12.489  12.505   4.467
  697SOL    HW1 3988  12.574  12.542   4.487
  697SOL    HW2 3989  12.426  12.573   4.490
  698SOL     OW 3990  14.639  13.961  10.784
  698SOL    HW1 3991  14.688  14.043  10.781
  698SOL    HW2 3992  14.629  13.943  10.877
  699SOL     OW 3993   2.541   4.623   9.749
  699SOL    HW1 3994   2.609   4.616   9.683
  699SOL    HW2 3995   2.568   4.697   9.803
  700SOL     OW 3996   0.938   2.970  10.230
  700SOL    HW1 3997   0.879   2.932  10.295
  700SOL    HW2 3998   1.001   2.901  10.212
  701SOL     OW 3999   8.020  10.441   8.903
  701SOL    HW1 4000   8.033  10.438   8.809
  701SOL    HW2 4001   7.974  10.359   8.924
  702SOL     OW 4002   1.902  10.323  11.465
  702SOL    HW1 4003   1.871  10.371  11.542
  702SOL    HW2 4004   1.858  10.365  11.392
  703SOL     OW 4005   9.501  11.534   9.826
  703SOL    HW1 4006   9.430  11.598   9.833
  703SOL    HW2 4007   9.551  11.545   9.906
  704SOL     OW 4008   7.220   3.499  10.627
  704SOL    HW1 4009   7.144   3.447  10.653
  704SOL    HW2 4010   7.295   3.440  10.638
  705SOL     OW 4011   2.027  14.729   0.179
  705SOL    HW1 4012   2.024  14.683   0.263
  705SOL    HW2 4013   1.936  14.729   0.148
  706SOL     OW 4014  11.710   1.848  12.868
  706SOL    HW1 4015  11.677   1.866  12.957
  706SOL    HW2 4016  11.805   1.843  12.879
  707SOL     OW 4017   9.451  13.404  14.457
  707SOL    HW1 4018   9.546  13.412  14.447
  707SOL    HW2 4019   9.421  13.494  14.473
  708SOL     OW 4020   4.098   9.702  10.324
  708SOL    HW1 4021   4.051   9.622  10.303
  708SOL    HW2 4022   4.067   9.765  10.259
  709SOL     OW 4023   7.197  13.308   3.501
  709SOL    HW1 4024   7.230  13.252   3.571
  709SOL    HW2 4025   7.276  13.334   3.452
  710SOL     OW 4026   8.173   9.996   8.730
  710SOL    HW1 4027   8.183   9.970   8.639
  710SOL    HW2 4028   8.163  10.091   8.727
  711SOL     OW 4029  13.542   8.137  12.216
  711SOL    HW1 4030  13.544   8.081  12.138
  711SOL    HW2 4031  13.486   8.091  12.278
  712SOL     OW 4032   7.344  13.474   0.685
  712SOL    HW1 4033   7.369  13.431   0.767
  712SOL    HW2 4034   7.396  13.428   0.618
  713SOL     OW 4035  14.062  10.624  14.621
  713SOL    HW1 4036  14.038  10.541  14.662
  713SOL    HW2 4037  14.126  10.600  14.553
  714SOL     OW 4038  14.842  14.810   6.486
  714SOL    HW1 4039  14.763  14.820   6.539
  714SOL    HW2 4040   0.038  14.828   6.548
  715SOL     OW 4041   2.292  12.018  13.280
  715SOL    HW1 4042   2.287  12.013  13.376
  715SOL    HW2 4043   2.382  12.045  13.262
  716SOL     OW 4044   6.357   5.707   6.725
  716SOL    HW1 4045   6.335   5.715   6.632
  716SOL    HW2 4046   6.275   5.680   6.767
  717SOL     OW 4047   1.868  13.986  11.964
  717SOL    HW1 4048   1.817  13.937  12.028
  717SOL    HW2 4049   1.839  13.952  11.879
  718SOL     OW 4050  12.660   4.784   2.149
  718SOL    HW1 4051  12.713   4.863   2.140
  718SOL    HW2 4052  12.576   4.815   2.184
  719SOL     OW 4053  13.112   6.785  13.665
  719SOL    HW1 4054  13.049   6.825  13.725
  719SOL    HW2 4055  13.087   6.819  13.579
  720SOL     OW 4056  13.339   7.360   8.424
  720SOL    HW1 4057  13.371   7.329   8.509
  720SOL    HW2 4058  13.260   7.410   8.445
  721SOL     OW 4059  13.468   2.549   5.805
  721SOL    HW1 4060  13.520   2.487   5.754
  721SOL    HW2 4061  13.385   2.504   5.820
  722SOL     OW 4062   0.476   8.540   7.198
  722SOL    HW1 4063   0.389   8.532   7.238
  722SOL    HW2 4064   0.503   8.630   7.217
  723SOL     OW 4065   5.200   4.807   2.040
  723SOL    HW1 4066   5.260   4.810   2.114
  723SOL    HW2 4067   5.141   4.734   2.059
  724SOL     OW 4068  10.913   6.677   4.554
  724SOL    HW1 4069  10.976   6.724   4.499
  724SOL    HW2 4070  10.841   6.656   4.495
  725SOL     OW 4071   8.422   6.726   2.999
  725SOL    HW1 4072   8.428   6.801   3.057
  725SOL    HW2 4073   8.328   6.712   2.986
  726SOL     OW 4074   9.347   8.193   4.799
  726SOL    HW1 4075   9.324   8.264   4.859
  726SOL    HW2 4076   9.273   8.189   4.739
  727SOL     OW 4077   3.741   4.526   4.864
  727SOL    HW1 4078   3.786   4.543   4.781
  727SOL    HW2 4079   3.769   4.439   4.890
  728SOL     OW 4080   6.278   6.789   6.791
  728SOL    HW1 4081   6.299   6.883   6.793
  728SOL    HW2 4082   6.233   6.776   6.707
  729SOL     OW 4083   2.943   2.541   2.156
  729SOL    HW1 4084   2.976   2.571   2.241
  729SOL    HW2 4085   2.851   2.567   2.155
  730SOL     OW 4086   8.938  13.123   8.934
  730SOL    HW1 4087   8.905  13.125   8.845
  730SOL    HW2 4088   8.967  13.032   8.947
  731SOL     OW 4089   9.260   7.870   2.493
  731SOL    HW1 4090   9.230   7.779   2.488
  731SOL    HW2 4091   9.301   7.876   2.580
  732SOL     OW 4092   2.461   2.161   2.587
  732SOL    HW1 4093   2.522   2.187   2.656
  732SOL    HW2 4094   2.491   2.208   2.509
  733SOL     OW 4095   7.483  11.052   6.435
  733SOL    HW1 4096   7.501  11.120   6.370
  733SOL    HW2 4097   7.551  11.064   6.502
  734SOL     OW 4098   2.818   3.443  12.393
  734SOL    HW1 4099   2.900   3.469  12.351
  734SOL    HW2 4100   2.754   3.509  12.365
  735SOL     OW 4101   4.863  11.172   0.344
  735SOL    HW1 4102   4.856  11.235   0.273
  735SOL    HW2 4103   4.888  11.225   0.420
  736SOL     OW 4104  14.675   6.525   1.269
  736SOL    HW1 4105  14.608   6.500   1.333
  736SOL    HW2 4106  14.732   6.449   1.263
  737SOL     OW 4107   1.545   5.843  13.191
  737SOL    HW1 4108   1.593   5.775  13.239
  737SOL    HW2 4109   1.506   5.797  13.117
  738SOL     OW 4110  13.460  10.976   4.800
  738SOL    HW1 4111  13.538  10.944   4.755
  738SOL    HW2 4112  13.491  11.048   4.854
  739SOL     OW 4113  10.831   6.047   9.313
  739SOL    HW1 4114  10.834   5.980   9.382
  739SOL    HW2 4115  10.846   5.998   9.232
  740SOL     OW 4116   0.233   4.203   6.850
  740SOL    HW1 4117   0.296   4.228   6.917
  740SOL    HW2 4118   0.281   4.142   6.793
  741SOL     OW 4119   1.152   5.128  10.220
  741SOL    HW1 4120   1.200   5.208  10.195
  741SOL    HW2 4121   1.123   5.145  10.309
  742SOL     OW 4122  10.583   9.631   9.053
  742SOL    HW1 4123  10.620   9.703   9.001
  742SOL    HW2 4124  10.489   9.634   9.034
  743SOL     OW 4125   4.902   2.542   4.696
  743SOL    HW1 4126   4.816   2.584   4.701
  743SOL    HW2 4127   4.915   2.523   4.603
  744SOL     OW 4128   0.577  11.190   9.936
  744SOL    HW1 4129   0.531  11.148   9.863
  744SOL    HW2 4130   0.590  11.281   9.907
  745SOL     OW 4131  14.531   1.908   3.384
  745SOL    HW1 4132  14.532   1.921   3.479
  745SOL    HW2 4133  14.619   1.930   3.356
  746SOL     OW 4134  14.473   4.793  13.829
  746SOL    HW1 4135  14.479   4.744  13.911
  746SOL    HW2 4136  14.418   4.739  13.773
  747SOL     OW 4137  11.453  14.698   0.764
  747SOL    HW1 4138  11.433  14.608   0.790
  747SOL    HW2 4139  11.470  14.692   0.670
  748SOL     OW 4140  14.275   7.520   9.049
  748SOL    HW1 4141  14.209   7.450   9.050
  748SOL    HW2 4142  14.253   7.574   9.126
  749SOL     OW 4143   9.841   5.606  13.380
  749SOL    HW1 4144   9.833   5.520  13.422
  749SOL    HW2 4145   9.760   5.616  13.330
  750SOL     OW 4146   2.976   6.168   7.117
  750SOL    HW1 4147   3.056   6.189   7.068
  750SOL    HW2 4148   3.004   6.104   7.182
  751SOL     OW 4149   5.870   1.442   1.696
  751SOL    HW1 4150   5.853   1.347   1.694
  751SOL    HW2 4151   5.914   1.457   1.780
  752SOL     OW 4152   5.883   6.533   3.375
  752SOL    HW1 4153   5.923   6.555   3.459
  752SOL    HW2 4154   5.789   6.533   3.392
  753SOL     OW 4155   1.125  14.557   0.685
  753SOL    HW1 4156   1.197  14.577   0.745
  753SOL    HW2 4157   1.094  14.471   0.713
  754SOL     OW 4158   2.231  11.176   4.245
  754SOL    HW1 4159   2.315  11.174   4.199
  754SOL    HW2 4160   2.190  11.092   4.225
  755SOL     OW 4161   6.123   5.111   2.539
  755SOL    HW1 4162   6.120   5.084   2.447
  755SOL    HW2 4163   6.070   5.190   2.542
  756SOL     OW 4164   0.384  10.137   7.340
  756SOL    HW1 4165   0.309  10.078   7.348
  756SOL    HW2 4166   0.397  10.172   7.429
  757SOL     OW 4167   3.703   6.514   0.577
  757SOL    HW1 4168   3.672   6.517   0.487
  757SOL    HW2 4169   3.626   6.488   0.628
  758SOL     OW 4170  11.850   8.711  14.679
  758SOL    HW1 4171  11.769   8.696  14.728
  758SOL    HW2 4172  11.857   8.807  14.675
  759SOL     OW 4173   1.043   1.754   2.242
  759SOL    HW1 4174   1.079   1.836   2.208
  759SOL    HW2 4175   1.082   1.687   2.187
  760SOL     OW 4176  11.471   1.718   5.190
  760SOL    HW1 4177  11.462   1.810   5.216
  760SOL    HW2 4178  11.551   1.715   5.138
  761SOL     OW 4179  12.695   7.489  13.483
  761SOL    HW1 4180  12.687   7.529  13.569
  761SOL    HW2 4181  12.606   7.469  13.457
  762SOL     OW 4182  10.229  14.482   0.860
  762SOL    HW1 4183  10.201  14.569   0.831
  762SOL    HW2 4184  10.212  14.481   0.954
  763SOL     OW 4185   5.205   1.795   9.745
  763SOL    HW1 4186   5.150   1.872   9.755
  763SOL    HW2 4187   5.280   1.825   9.693
  764SOL     OW 4188  11.317   0.072   5.391
  764SOL    HW1 4189  11.335   0.166   5.391
  764SOL    HW2 4190  11.404   0.031   5.393
  765SOL     OW 4191   5.803  10.972  11.182
  765SOL    HW1 4192   5.727  10.953  11.238
  765SOL    HW2 4193   5.862  10.898  11.196
  766SOL     OW 4194  13.029   9.877   1.978
  766SOL    HW1 4195  13.018   9.941   1.908
  766SOL    HW2 4196  13.052   9.930   2.055
  767SOL     OW 4197  11.440   4.746   2.974
  767SOL    HW1 4198  11.525   4.720   3.008
  767SOL    HW2 4199  11.459   4.787   2.890
  768SOL     OW 4200  11.280  14.644   0.006
  768SOL    HW1 4201  11.260  14.571  14.823
  768SOL    HW2 4202  11.339  14.607   0.072
  769SOL     OW 4203  10.566  11.442   1.654
  769SOL    HW1 4204  10.611  11.368   1.697
  769SOL    HW2 4205  10.525  11.403   1.577
  770SOL     OW 4206   5.223   3.842   5.098
  770SOL    HW1 4207   5.194   3.762   5.141
  770SOL    HW2 4208   5.146   3.872   5.049
  771SOL     OW 4209  11.769  11.509   5.016
  771SOL    HW1 4210  11.832  11.475   4.952
  771SOL    HW2 4211  11.758  11.601   4.993
  772SOL     OW 4212  14.062   2.565   3.659
  772SOL    HW1 4213  14.082   2.474   3.680
  772SOL    HW2 4214  14.095   2.577   3.570
  773SOL     OW 4215   3.702   0.527   2.545
  773SOL    HW1 4216   3.710   0.622   2.537
  773SOL    HW2 4217   3.628   0.504   2.489
  774SOL     OW 4218  13.749   9.135  11.176
  774SOL    HW1 4219  13.817   9.067  11.182
  774SOL    HW2 4220  13.797   9.217  11.181
  775SOL     OW 4221  14.504   6.313   7.300
  775SOL    HW1 4222  14.456   6.276   7.374
  775SOL    HW2 4223  14.472   6.402   7.293
  776SOL     OW 4224  13.761   0.920  12.086
  776SOL    HW1 4225  13.760   0.954  11.997
  776SOL    HW2 4226  13.680   0.869  12.093
  777SOL     OW 4227   1.895  13.549  13.733
  777SOL    HW1 4228   1.876  13.642  13.744
  777SOL    HW2 4229   1.835  13.504  13.793
  778SOL     OW 4230  14.028   1.096   9.110
  778SOL    HW1 4231  14.102   1.079   9.051
  778SOL    HW2 4232  14.059   1.066   9.196
  779SOL     OW 4233  11.237   4.952  13.092
  779SOL    HW1 4234  11.195   5.010  13.030
  779SOL    HW2 4235  11.216   4.989  13.178
  780SOL     OW 4236   3.684  12.221   5.475
  780SOL    HW1 4237   3.687  12.316   5.484
  780SOL    HW2 4238   3.615  12.193   5.535
  781SOL     OW 4239  13.740  14.724  11.421
  781SOL    HW1 4240  13.649  14.714  11.448
  781SOL    HW2 4241  13.757  14.646  11.368
  782SOL     OW 4242   8.807  10.438   5.739
  782SOL    HW1 4243   8.795  10.378   5.812
  782SOL    HW2 4244   8.809  10.382   5.662
  783SOL     OW 4245   4.561  14.511   6.699
  783SOL    HW1 4246   4.633  14.562   6.662
  783SOL    HW2 4247   4.555  14.540   6.790
  784SOL     OW 4248   4.786   6.116   4.632
  784SOL    HW1 4249   4.690   6.113   4.627
  784SOL    HW2 4250   4.809   6.197   4.586
  785SOL     OW 4251   3.762   8.835   3.438
  785SOL    HW1 4252   3.813   8.899   3.389
  785SOL    HW2 4253   3.676   8.835   3.395
  786SOL     OW 4254  10.378   5.693   6.953
  786SOL    HW1 4255  10.448   5.681   6.889
  786SOL    HW2 4256  10.314   5.748   6.908
  787SOL     OW 4257  10.999   3.859  12.278
  787SOL    HW1 4258  11.041   3.818  12.202
  787SOL    HW2 4259  10.998   3.952  12.259
  788SOL     OW 4260   1.514   0.243   7.546
  788SOL    HW1 4261   1.488   0.333   7.566
  788SOL    HW2 4262   1.442   0.189   7.580
  789SOL     OW 4263   8.602   0.114   2.642
  789SOL    HW1 4264   8.592   0.099   2.736
  789SOL    HW2 4265   8.536   0.180   2.621
  790SOL     OW 4266   4.195   7.858  13.265
  790SOL    HW1 4267   4.108   7.887  13.238
  790SOL    HW2 4268   4.215   7.911  13.343
  791SOL     OW 4269  11.326   1.742   0.121
  791SOL    HW1 4270  11.270   1.808   0.080
  791SOL    HW2 4271  11.265   1.674   0.150
  792SOL     OW 4272  13.848   8.633   5.792
  792SOL    HW1 4273  13.930   8.662   5.833
  792SOL    HW2 4274  13.833   8.546   5.828
  793SOL     OW 4275   9.100  13.739   4.294
  793SOL    HW1 4276   9.044  13.680   4.344
  793SOL    HW2 4277   9.162  13.680   4.249
  794SOL     OW 4278   5.914  13.044   1.552
  794SOL    HW1 4279   6.005  13.050   1.579
  794SOL    HW2 4280   5.867  13.102   1.612
  795SOL     OW 4281   5.461   2.183   8.297
  795SOL    HW1 4282   5.456   2.224   8.210
  795SOL    HW2 4283   5.555   2.178   8.315
  796SOL     OW 4284   3.102   9.627   7.474
  796SOL    HW1 4285   3.018   9.670   7.488
  796SOL    HW2 4286   3.090   9.539   7.508
  797SOL     OW 4287   5.082  13.322  10.870
  797SOL    HW1 4288   5.004  13.286  10.912
  797SOL    HW2 4289   5.103  13.400  10.921
  798SOL     OW 4290   2.738  12.075   9.253
  798SOL    HW1 4291   2.723  12.021   9.176
  798SOL    HW2 4292   2.695  12.027   9.324
  799SOL     OW 4293   5.124   1.728   2.195
  799SOL    HW1 4294   5.134   1.760   2.105
  799SOL    HW2 4295   5.057   1.660   2.189
  800SOL     OW 4296   1.653   8.692   1.042
  800SOL    HW1 4297   1.590   8.756   1.076
  800SOL    HW2 4298   1.600   8.617   1.016
  801SOL     OW 4299   6.044   1.634   5.975
  801SOL    HW1 4300   5.957   1.673   5.968
  801SOL    HW2 4301   6.095   1.678   5.907
  802SOL     OW 4302   6.758   9.040  14.626
  802SOL    HW1 4303   6.806   8.966  14.663
  802SOL    HW2 4304   6.764   9.108  14.693
  803SOL     OW 4305   4.961   5.142   1.327
  803SOL    HW1 4306   4.933   5.052   1.312
  803SOL    HW2 4307   4.886   5.196   1.303
  804SOL     OW 4308   8.418   5.505   6.522
  804SOL    HW1 4309   8.448   5.595   6.522
  804SOL    HW2 4310   8.386   5.490   6.611
  805SOL     OW 4311  13.325   9.527  10.952
  805SOL    HW1 4312  13.382   9.527  11.029
  805SOL    HW2 4313  13.308   9.619  10.934
  806SOL     OW 4314   7.667  11.111   2.643
  806SOL    HW1 4315   7.648  11.201   2.615
  806SOL    HW2 4316   7.603  11.094   2.712
  807SOL     OW 4317   3.779  10.568  11.934
  807SOL    HW1 4318   3.796  10.564  11.840
  807SOL    HW2 4319   3.842  10.506  11.972
  808SOL     OW 4320   5.260   2.413   2.802
  808SOL    HW1 4321   5.288   2.347   2.739
  808SOL    HW2 4322   5.305   2.389   2.883
  809SOL     OW 4323   2.209   5.867   5.583
  809SOL    HW1 4324   2.137   5.890   5.523
  809SOL    HW2 4325   2.278   5.835   5.525
  810SOL     OW 4326   1.728   5.579   9.594
  810SOL    HW1 4327   1.778   5.597   9.515
  810SOL    HW2 4328   1.728   5.483   9.601
  811SOL     OW 4329  12.445   1.050   6.822
  811SOL    HW1 4330  12.450   1.139   6.856
  811SOL    HW2 4331  12.488   0.997   6.888
  812SOL     OW 4332  10.432   9.894  12.091
  812SOL    HW1 4333  10.504   9.929  12.143
  812SOL    HW2 4334  10.468   9.817  12.048
  813SOL     OW 4335   6.946  13.227   3.830
  813SOL    HW1 4336   6.959  13.275   3.911
  813SOL    HW2 4337   6.895  13.287   3.775
  814SOL     OW 4338   0.618   3.261   9.589
  814SOL    HW1 4339   0.627   3.200   9.516
  814SOL    HW2 4340   0.699   3.249   9.640
  815SOL     OW 4341   4.686   4.649   4.007
  815SOL    HW1 4342   4.765   4.604   3.977
  815SOL    HW2 4343   4.680   4.627   4.100
  816SOL     OW 4344   1.673  14.464   0.426
  816SOL    HW1 4345   1.676  14.507   0.341
  816SOL    HW2 4346   1.610  14.515   0.477
  817SOL     OW 4347   8.655   0.623  11.065
  817SOL    HW1 4348   8.690   0.552  11.120
  817SOL    HW2 4349   8.562   0.604  11.058
  818SOL     OW 4350   6.450   3.418  12.362
  818SOL    HW1 4351   6.512   3.359  12.319
  818SOL    HW2 4352   6.472   3.505  12.328
  819SOL     OW 4353  11.793   4.873  13.134
  819SOL    HW1 4354  11.782   4.827  13.051
  819SOL    HW2 4355  11.882   4.853  13.162
  820SOL     OW 4356   5.913   2.566   7.294
  820SOL    HW1 4357   5.981   2.511   7.253
  820SOL    HW2 4358   5.936   2.655   7.269
  821SOL     OW 4359   7.828   0.385   7.157
  821SOL    HW1 4360   7.806   0.457   7.098
  821SOL    HW2 4361   7.846   0.311   7.099
  822SOL     OW 4362   9.625  10.287  10.198
  822SOL    HW1 4363   9.651  10.380  10.197
  822SOL    HW2 4364   9.653  10.253  10.113
  823SOL     OW 4365   9.212   9.221   7.580
  823SOL    HW1 4366   9.127   9.249   7.613
  823SOL    HW2 4367   9.194   9.145   7.526
  824SOL     OW 4368   4.400   2.035  10.829
  824SOL    HW1 4369   4.405   2.087  10.748
  824SOL    HW2 4370   4.486   1.993  10.834
  825SOL     OW 4371  10.322   0.338  12.252
  825SOL    HW1 4372  10.229   0.316  12.250
  825SOL    HW2 4373  10.365   0.261  12.216
  826SOL     OW 4374   6.523   2.240   7.322
  826SOL    HW1 4375   6.458   2.186   7.366
  826SOL    HW2 4376   6.568   2.180   7.263
  827SOL     OW 4377   5.029   2.866   8.798
  827SOL    HW1 4378   5.067   2.791   8.752
  827SOL    HW2 4379   4.958   2.895   8.741
  828SOL     OW 4380   5.049   5.330   7.859
  828SOL    HW1 4381   4.974   5.389   7.855
  828SOL    HW2 4382   5.117   5.372   7.806
  829SOL     OW 4383   3.118   3.616  14.766
  829SOL    HW1 4384   3.136   3.658  14.682
  829SOL    HW2 4385   3.045   3.665  14.804
  830SOL     OW 4386  11.293   3.911   9.064
  830SOL    HW1 4387  11.272   3.932   8.973
  830SOL    HW2 4388  11.285   3.816   9.070
  831SOL     OW 4389   6.170   2.447   7.246
  831SOL    HW1 4390   6.186   2.365   7.198
  831SOL    HW2 4391   6.255   2.469   7.284
  832SOL     OW 4392  11.071  12.420   3.372
  832SOL    HW1 4393  11.121  12.345   3.342
  832SOL    HW2 4394  11.094  12.490   3.311
  833SOL     OW 4395   6.106  11.454   8.254
  833SOL    HW1 4396   6.178  11.492   8.205
  833SOL    HW2 4397   6.094  11.511   8.329
  834SOL     OW 4398   4.165   8.846   5.051
  834SOL    HW1 4399   4.104   8.847   4.977
  834SOL    HW2 4400   4.129   8.912   5.111
  835SOL     OW 4401  12.173   9.248   5.337
  835SOL    HW1 4402  12.261   9.255   5.375
  835SOL    HW2 4403  12.127   9.187   5.394
  836SOL     OW 4404   4.645   7.023   6.515
  836SOL    HW1 4405   4.706   7.052   6.582
  836SOL    HW2 4406   4.686   7.048   6.432
  837SOL     OW 4407   9.585   3.201  10.689
  837SOL    HW1 4408   9.540   3.233  10.768
  837SOL    HW2 4409   9.619   3.115  10.713
  838SOL     OW 4410   6.439  12.062   4.797
  838SOL    HW1 4411   6.459  12.097   4.710
  838SOL    HW2 4412   6.424  11.968   4.782
  839SOL     OW 4413   5.953   3.432   2.985
  839SOL    HW1 4414   5.878   3.461   3.036
  839SOL    HW2 4415   5.977   3.347   3.022
  840SOL     OW 4416   6.377   0.458   0.335
  840SOL    HW1 4417   6.345   0.436   0.247
  840SOL    HW2 4418   6.471   0.446   0.330
  841SOL     OW 4419  12.837   3.111   0.763
  841SOL    HW1 4420  12.768   3.075   0.819
  841SOL    HW2 4421  12.906   3.045   0.767
  842SOL     OW 4422  13.539   9.415   6.966
  842SOL    HW1 4423  13.615   9.365   6.936
  842SOL    HW2 4424  13.470   9.393   6.905
  843SOL     OW 4425   2.327   1.149  11.838
  843SOL    HW1 4426   2.251   1.154  11.780
  843SOL    HW2 4427   2.310   1.071  11.892
  844SOL     OW 4428   5.722   7.394  14.539
  844SOL    HW1 4429   5.680   7.313  14.511
  844SOL    HW2 4430   5.715   7.394  14.634
  845SOL     OW 4431   8.722   5.267   0.238
  845SOL    HW1 4432   8.725   5.229   0.326
  845SOL    HW2 4433   8.697   5.193   0.181
  846SOL     OW 4434   6.348   1.962   3.094
  846SOL    HW1 4435   6.413   2.031   3.109
  846SOL    HW2 4436   6.273   1.987   3.148
  847SOL     OW 4437   6.842  10.415   7.183
  847SOL    HW1 4438   6.752  10.447   7.182
  847SOL    HW2 4439   6.870  10.424   7.274
  848SOL     OW 4440  12.544  11.091  10.600
  848SOL    HW1 4441  12.517  11.012  10.647
  848SOL    HW2 4442  12.578  11.060  10.517
  849SOL     OW 4443   6.174   8.757   1.883
  849SOL    HW1 4444   6.095   8.718   1.845
  849SOL    HW2 4445   6.245   8.730   1.825
  850SOL     OW 4446   5.046  10.703   8.713
  850SOL    HW1 4447   5.074  10.643   8.782
  850SOL    HW2 4448   4.952  10.689   8.706
  851SOL     OW 4449   2.838   6.607  14.850
  851SOL    HW1 4450   2.886   6.539   0.021
  851SOL    HW2 4451   2.801   6.663   0.044
  852SOL     OW 4452  13.701   0.241  14.614
  852SOL    HW1 4453  13.607   0.234  14.631
  852SOL    HW2 4454  13.733   0.299  14.683
  853SOL     OW 4455   4.207   7.371  10.351
  853SOL    HW1 4456   4.231   7.308  10.418
  853SOL    HW2 4457   4.286   7.424  10.339
  854SOL     OW 4458   2.882   9.818  14.843
  854SOL    HW1 4459   2.796   9.792   0.002
  854SOL    HW2 4460   2.943   9.757   0.009
  855SOL     OW 4461  10.952  11.473  12.418
  855SOL    HW1 4462  10.989  11.555  12.450
  855SOL    HW2 4463  10.988  11.406  12.476
  856SOL     OW 4464  13.884   7.581   0.063
  856SOL    HW1 4465  13.876   7.530  14.857
  856SOL    HW2 4466  13.978   7.597   0.071
  857SOL     OW 4467   1.200  11.652  11.350
  857SOL    HW1 4468   1.113  11.614  11.357
  857SOL    HW2 4469   1.199  11.727  11.410
  858SOL     OW 4470   9.344  11.741   9.875
  858SOL    HW1 4471   9.352  11.827   9.916
  858SOL    HW2 4472   9.311  11.759   9.787
  859SOL     OW 4473   7.140  10.776  11.143
  859SOL    HW1 4474   7.067  10.792  11.083
  859SOL    HW2 4475   7.131  10.844  11.210
  860SOL     OW 4476  14.611  10.105   4.368
  860SOL    HW1 4477  14.611  10.081   4.276
  860SOL    HW2 4478  14.703  10.107   4.393
  861SOL     OW 4479   5.497   5.189   8.974
  861SOL    HW1 4480   5.417   5.233   9.004
  861SOL    HW2 4481   5.528   5.141   9.051
  862SOL     OW 4482  10.217   2.522   7.435
  862SOL    HW1 4483  10.192   2.587   7.369
  862SOL    HW2 4484  10.218   2.572   7.517
  863SOL     OW 4485   0.169   9.132  11.798
  863SOL    HW1 4486   0.120   9.210  11.824
  863SOL    HW2 4487   0.261   9.156  11.811
  864SOL     OW 4488   3.741  11.438  13.195
  864SOL    HW1 4489   3.751  11.359  13.249
  864SOL    HW2 4490   3.754  11.407  13.105
  865SOL     OW 4491   9.908   1.428  13.337
  865SOL    HW1 4492   9.994   1.413  13.296
  865SOL    HW2 4493   9.882   1.341  13.369
  866SOL     OW 4494  14.032  10.579   4.841
  866SOL    HW1 4495  13.957  10.556   4.787
  866SOL    HW2 4496  14.025  10.523   4.918
  867SOL     OW 4497   1.075   1.507   0.578
  867SOL    HW1 4498   1.111   1.423   0.550
  867SOL    HW2 4499   1.059   1.555   0.497
  868SOL     OW 4500   0.036   4.470  13.604
  868SOL    HW1 4501   0.095   4.407  13.563
  868SOL    HW2 4502   0.086   4.505  13.678
  869SOL     OW 4503   7.965   0.293  11.583
  869SOL    HW1 4504   8.023   0.238  11.635
  869SOL    HW2 4505   7.988   0.274  11.492
  870SOL     OW 4506   6.014  11.791   7.419
  870SOL    HW1 4507   5.929  11.834   7.412
  870SOL    HW2 4508   5.994  11.697   7.412
  871SOL     OW 4509   1.637   1.058   7.392
  871SOL    HW1 4510   1.706   1.102   7.441
  871SOL    HW2 4511   1.564   1.051   7.454
  872SOL     OW 4512   9.907  12.343   0.682
  872SOL    HW1 4513   9.846  12.293   0.737
  872SOL    HW2 4514   9.987  12.346   0.733
  873SOL     OW 4515   6.327  10.334   0.495
  873SOL    HW1 4516   6.406  10.362   0.448
  873SOL    HW2 4517   6.263  10.403   0.478
  874SOL     OW 4518   1.319  11.997   0.629
  874SOL    HW1 4519   1.249  11.956   0.579
  874SOL    HW2 4520   1.400  11.967   0.588
  875SOL     OW 4521   0.750   4.725   6.482
  875SOL    HW1 4522   0.779   4.791   6.545
  875SOL    HW2 4523   0.661   4.751   6.459
  876SOL     OW 4524   6.777   5.556   5.591
  876SOL    HW1 4525   6.768   5.480   5.534
  876SOL    HW2 4526   6.807   5.520   5.675
  877SOL     OW 4527  14.836   0.588   2.126
  877SOL    HW1 4528  14.755   0.637   2.141
  877SOL    HW2 4529   0.003   0.584   2.212
  878SOL     OW 4530   8.058   7.455  12.055
  878SOL    HW1 4531   8.140   7.504  12.057
  878SOL    HW2 4532   8.076   7.381  11.998
  879SOL     OW 4533  12.607   1.905  12.333
  879SOL    HW1 4534  12.552   1.942  12.264
  879SOL    HW2 4535  12.636   1.981  12.384
  880SOL     OW 4536   4.734   5.265  10.903
  880SOL    HW1 4537   4.800   5.322  10.863
  880SOL    HW2 4538   4.773   5.178  10.901
  881SOL     OW 4539   5.245   9.570  10.724
  881SOL    HW1 4540   5.313   9.508  10.750
  881SOL    HW2 4541   5.233   9.626  10.801
  882SOL     OW 4542   5.372  14.187   2.838
  882SOL    HW1 4543   5.326  14.169   2.756
  882SOL    HW2 4544   5.323  14.139   2.904
  883SOL     OW 4545   7.264  12.437   3.195
  883SOL    HW1 4546   7.269  12.505   3.262
  883SOL    HW2 4547   7.194  12.379   3.225
  884SOL     OW 4548  12.725   0.301   4.588
  884SOL    HW1 4549  12.748   0.214   4.555
  884SOL    HW2 4550  12.632   0.294   4.609
  885SOL     OW 4551   8.778   3.224  13.855
  885SOL    HW1 4552   8.781   3.152  13.792
  885SOL    HW2 4553   8.729   3.293  13.810
  886SOL     OW 4554   7.233   5.694   9.796
  886SOL    HW1 4555   7.300   5.626   9.793
  886SOL    HW2 4556   7.176   5.670   9.869
  887SOL     OW 4557   2.040  13.807   8.999
  887SOL    HW1 4558   2.127  13.793   8.961
  887SOL    HW2 4559   1.985  13.741   8.955
  888SOL     OW 4560   2.122   7.097   0.901
  888SOL    HW1 4561   2.089   7.092   0.812
  888SOL    HW2 4562   2.044   7.087   0.956
  889SOL     OW 4563   9.758   3.432   3.227
  889SOL    HW1 4564   9.708   3.373   3.284
  889SOL    HW2 4565   9.776   3.508   3.282
  890SOL     OW 4566   3.056   1.177  11.195
  890SOL    HW1 4567   2.995   1.227  11.250
  890SOL    HW2 4568   3.129   1.237  11.181
  891SOL     OW 4569  12.995   0.143   7.691
  891SOL    HW1 4570  12.963   0.217   7.742
  891SOL    HW2 4571  13.064   0.104   7.746
  892SOL     OW 4572  10.374  10.395  11.163
  892SOL    HW1 4573  10.469  10.391  11.170
  892SOL    HW2 4574  10.345  10.423  11.250
  893SOL     OW 4575   1.801  14.773  13.016
  893SOL    HW1 4576   1.772  14.694  12.971
  893SOL    HW2 4577   1.724  14.804  13.063
  894SOL     OW 4578   1.925   1.030   5.927
  894SOL    HW1 4579   2.002   0.991   5.969
  894SOL    HW2 4580   1.852   1.004   5.982
  895SOL     OW 4581   7.536   4.291   9.384
  895SOL    HW1 4582   7.483   4.334   9.318
  895SOL    HW2 4583   7.599   4.239   9.335
  896SOL     OW 4584  13.143  10.271  13.806
  896SOL    HW1 4585  13.094  10.206  13.857
  896SOL    HW2 4586  13.084  10.293  13.733
  897SOL     OW 4587  12.817   6.825  12.295
  897SOL    HW1 4588  12.891   6.884  12.283
  897SOL    HW2 4589  12.833   6.782  12.379
  898SOL     OW 4590   9.660   6.315  13.129
  898SOL    HW1 4591   9.654   6.270  13.213
  898SOL    HW2 4592   9.655   6.408  13.152
  899SOL     OW 4593  10.994   3.055   3.219
  899SOL    HW1 4594  11.047   3.062   3.139
  899SOL    HW2 4595  10.913   3.102   3.198
  900SOL     OW 4596  12.820   2.822   3.062
  900SOL    HW1 4597  12.768   2.792   3.136
  900SOL    HW2 4598  12.759   2.824   2.988
  901SOL     OW 4599   8.501   3.840  14.659
  901SOL    HW1 4600   8.439   3.812  14.726
  901SOL    HW2 4601   8.452   3.837  14.577
  902SOL     OW 4602   3.997  13.428   0.702
  902SOL    HW1 4603   4.086  13.449   0.729
  902SOL    HW2 4604   3.957  13.513   0.683
  903SOL     OW 4605   5.800   8.559   4.767
  903SOL    HW1 4606   5.824   8.652   4.773
  903SOL    HW2 4607   5.718   8.559   4.718
  904SOL     OW 4608   2.848  11.412  13.293
  904SOL    HW1 4609   2.805  11.338  13.251
  904SOL    HW2 4610   2.776  11.467  13.325
  905SOL     OW 4611   5.926   8.101   8.956
  905SOL    HW1 4612   5.905   8.194   8.953
  905SOL    HW2 4613   5.894   8.066   8.873
  906SOL     OW 4614  10.328  12.110  11.768
  906SOL    HW1 4615  10.402  12.067  11.810
  906SOL    HW2 4616  10.356  12.122  11.677
  907SOL     OW 4617   5.805   5.104   9.415
  907SOL    HW1 4618   5.860   5.062   9.349
  907SOL    HW2 4619   5.840   5.074   9.499
  908SOL     OW 4620   1.750   7.970   7.920
  908SOL    HW1 4621   1.764   7.939   7.830
  908SOL    HW2 4622   1.655   7.974   7.929
  909SOL     OW 4623   3.184  10.181   4.653
  909SOL    HW1 4624   3.229  10.199   4.736
  909SOL    HW2 4625   3.146  10.094   4.664
  910SOL     OW 4626   1.958   9.112  11.293
  910SOL    HW1 4627   1.876   9.109  11.244
  910SOL    HW2 4628   1.934   9.151  11.377
  911SOL     OW 4629   7.677   3.310  12.741
  911SOL    HW1 4630   7.659   3.244  12.808
  911SOL    HW2 4631   7.659   3.394  12.784
  912SOL     OW 4632  10.707   6.022  10.505
  912SOL    HW1 4633  10.776   6.041  10.568
  912SOL    HW2 4634  10.747   5.961  10.443
  913SOL     OW 4635   6.294   7.084   5.167
  913SOL    HW1 4636   6.376   7.084   5.119
  913SOL    HW2 4637   6.253   7.001   5.144
  914SOL     OW 4638   9.313   0.033   6.995
  914SOL    HW1 4639   9.397   0.033   7.040
  914SOL    HW2 4640   9.311   0.117   6.948
  915SOL     OW 4641   0.311   5.404  11.535
  915SOL    HW1 4642   0.266   5.334  11.583
  915SOL    HW2 4643   0.254   5.422  11.460
  916SOL     OW 4644  14.201   9.887   1.950
  916SOL    HW1 4645  14.281   9.908   1.998
  916SOL    HW2 4646  14.166   9.810   1.995
  917SOL     OW 4647   2.171  14.496  11.164
  917SOL    HW1 4648   2.254  14.487  11.212
  917SOL    HW2 4649   2.124  14.565  11.211
  918SOL     OW 4650   1.850   4.659   7.891
  918SOL    HW1 4651   1.845   4.750   7.860
  918SOL    HW2 4652   1.907   4.663   7.968
  919SOL     OW 4653   3.126   1.557  12.385
  919SOL    HW1 4654   3.115   1.516  12.300
  919SOL    HW2 4655   3.085   1.643  12.376
  920SOL     OW 4656  10.941  10.294  10.532
  920SOL    HW1 4657  10.962  10.230  10.601
  920SOL    HW2 4658  10.943  10.379  10.576
  921SOL     OW 4659  14.785   0.827   3.672
  921SOL    HW1 4660  14.832   0.744   3.669
  921SOL    HW2 4661  14.845   0.887   3.716
  922SOL     OW 4662   0.175   2.313   0.154
  922SOL    HW1 4663   0.093   2.272   0.182
  922SOL    HW2 4664   0.208   2.255   0.085
  923SOL     OW 4665   8.726   8.780  10.149
  923SOL    HW1 4666   8.632   8.800  10.150
  923SOL    HW2 4667   8.736   8.712  10.216
  924SOL     OW 4668   2.380  11.924   2.233
  924SOL    HW1 4669   2.288  11.950   2.232
  924SOL    HW2 4670   2.390  11.872   2.313
  925SOL     OW 4671   8.809   7.488   0.952
  925SOL    HW1 4672   8.834   7.468   0.861
  925SOL    HW2 4673   8.729   7.438   0.966
  926SOL     OW 4674  11.334  13.007   1.849
  926SOL    HW1 4675  11.264  13.073   1.846
  926SOL    HW2 4676  11.290  12.928   1.880
  927SOL     OW 4677   3.381   6.887   8.990
  927SOL    HW1 4678   3.349   6.972   9.021
  927SOL    HW2 4679   3.413   6.904   8.902
  928SOL     OW 4680   4.315   6.181   1.742
  928SOL    HW1 4681   4.390   6.151   1.793
  928SOL    HW2 4682   4.246   6.117   1.760
  929SOL     OW 4683   5.017   0.867   8.047
  929SOL    HW1 4684   4.974   0.911   8.120
  929SOL    HW2 4685   5.061   0.937   7.998
  930SOL     OW 4686   8.610   6.262   9.068
  930SOL    HW1 4687   8.675   6.326   9.096
  930SOL    HW2 4688   8.610   6.195   9.137
  931SOL     OW 4689   8.561  12.021   4.672
  931SOL    HW1 4690   8.476  12.009   4.715
  931SOL    HW2 4691   8.556  11.967   4.594
  932SOL     OW 4692  10.435  14.520   7.710
  932SOL    HW1 4693  10.428  14.547   7.802
  932SOL    HW2 4694  10.512  14.463   7.708
  933SOL     OW 4695   5.046   9.287  14.634
  933SOL    HW1 4696   4.993   9.345  14.688
  933SOL    HW2 4697   5.068   9.340  14.557
  934SOL     OW 4698   8.323   2.032   3.369
  934SOL    HW1 4699   8.291   2.036   3.279
  934SOL    HW2 4700   8.311   2.121   3.403
  935SOL     OW 4701   7.743   9.452  10.488
  935SOL    HW1 4702   7.837   9.433  10.485
  935SOL    HW2 4703   7.737   9.542  10.518
  936SOL     OW 4704   5.551   6.958   3.181
  936SOL    HW1 4705   5.512   6.967   3.094
  936SOL    HW2 4706   5.597   7.040   3.196
  937SOL     OW 4707  10.726   3.846  11.480
  937SOL    HW1 4708  10.668   3.826  11.407
  937SOL    HW2 4709  10.740   3.941  11.474
  938SOL     OW 4710  12.453   5.187   3.600
  938SOL    HW1 4711  12.490   5.118   3.656
  938SOL    HW2 4712  12.430   5.142   3.519
  939SOL     OW 4713  11.241   9.437   0.575
  939SOL    HW1 4714  11.158   9.478   0.600
  939SOL    HW2 4715  11.293   9.509   0.538
  940SOL     OW 4716   0.773   7.691   6.745
  940SOL    HW1 4717   0.804   7.747   6.816
  940SOL    HW2 4718   0.738   7.613   6.789
  941SOL     OW 4719  10.223   1.411  11.975
  941SOL    HW1 4720  10.129   1.428  11.968
  941SOL    HW2 4721  10.265   1.494  11.953
  942SOL     OW 4722   7.206   5.925   1.956
  942SOL    HW1 4723   7.185   5.865   2.028
  942SOL    HW2 4724   7.255   5.996   1.997
  943SOL     OW 4725   2.559   5.483  13.254
  943SOL    HW1 4726   2.623   5.522  13.314
  943SOL    HW2 4727   2.494   5.442  13.312
  944SOL     OW 4728   3.123   6.675  12.090
  944SOL    HW1 4729   3.206   6.668  12.138
  944SOL    HW2 4730   3.149   6.703  12.002
  945SOL     OW 4731   4.949   6.123   3.613
  945SOL    HW1 4732   4.990   6.107   3.698
  945SOL    HW2 4733   4.942   6.037   3.573
  946SOL     OW 4734   5.764  13.242  10.424
  946SOL    HW1 4735   5.783  13.298  10.499
  946SOL    HW2 4736   5.674  13.212  10.439
  947SOL     OW 4737   5.284   5.206   7.004
  947SOL    HW1 4738   5.369   5.249   6.991
  947SOL    HW2 4739   5.220   5.266   6.966
  948SOL     OW 4740  13.568   3.607   0.023
  948SOL    HW1 4741  13.601   3.617   0.112
  948SOL    HW2 4742  13.555   3.513   0.013
  949SOL     OW 4743   4.058   0.693   2.792
  949SOL    HW1 4744   4.069   0.691   2.887
  949SOL    HW2 4745   3.980   0.746   2.778
  950SOL     OW 4746   6.369   3.069   7.163
  950SOL    HW1 4747   6.449   3.028   7.195
  950SOL    HW2 4748   6.374   3.062   7.067
  951SOL     OW 4749   7.083  13.480   3.292
  951SOL    HW1 4750   7.119  13.437   3.370
  951SOL    HW2 4751   6.989  13.464   3.296
  952SOL     OW 4752  11.830   6.923   8.369
  952SOL    HW1 4753  11.892   6.855   8.397
  952SOL    HW2 4754  11.756   6.874   8.333
  953SOL     OW 4755   9.622  14.277  10.173
  953SOL    HW1 4756   9.683  14.333  10.124
  953SOL    HW2 4757   9.654  14.282  10.263
  954SOL     OW 4758  11.022   5.059   2.294
  954SOL    HW1 4759  11.089   5.128   2.299
  954SOL    HW2 4760  11.032   5.010   2.376
  955SOL     OW 4761   8.002   4.786   4.389
  955SOL    HW1 4762   8.034   4.865   4.346
  955SOL    HW2 4763   8.010   4.717   4.324
  956SOL     OW 4764   1.452   7.145   2.826
  956SOL    HW1 4765   1.411   7.126   2.742
  956SOL    HW2 4766   1.515   7.074   2.839
  957SOL     OW 4767  12.491   1.241   5.700
  957SOL    HW1 4768  12.399   1.252   5.674
  957SOL    HW2 4769  12.490   1.246   5.795
  958SOL     OW 4770  13.821   5.830   5.987
  958SOL    HW1 4771  13.843   5.767   6.055
  958SOL    HW2 4772  13.874   5.907   6.008
  959SOL     OW 4773   9.408  12.602  13.473
  959SOL    HW1 4774   9.446  12.596  13.385
  959SOL    HW2 4775   9.427  12.516  13.512
  960SOL     OW 4776  12.937   5.931   9.479
  960SOL    HW1 4777  12.976   5.913   9.393
  960SOL    HW2 4778  12.880   5.856   9.495
  961SOL     OW 4779   4.203  14.264  14.113
  961SOL    HW1 4780   4.263  14.334  14.088
  961SOL    HW2 4781   4.229  14.189  14.059
  962SOL     OW 4782   5.857   7.000   5.928
  962SOL    HW1 4783   5.776   6.964   5.965
  962SOL    HW2 4784   5.829   7.049   5.851
  963SOL     OW 4785   8.701   9.091   1.257
  963SOL    HW1 4786   8.777   9.125   1.305
  963SOL    HW2 4787   8.737   9.034   1.190
  964SOL     OW 4788   6.077  14.354   8.183
  964SOL    HW1 4789   6.106  14.269   8.213
  964SOL    HW2 4790   6.154  14.410   8.189
  965SOL     OW 4791   2.653   9.604   0.194
  965SOL    HW1 4792   2.596   9.550   0.249
  965SOL    HW2 4793   2.705   9.541   0.145
  966SOL     OW 4794   6.748   0.883   3.640
  966SOL    HW1 4795   6.808   0.955   3.657
  966SOL    HW2 4796   6.725   0.849   3.727
  967SOL     OW 4797   4.827   6.140  11.002
  967SOL    HW1 4798   4.871   6.058  11.023
  967SOL    HW2 4799   4.874   6.174  10.926
  968SOL     OW 4800   2.637   1.069   3.252
  968SOL    HW1 4801   2.664   1.139   3.193
  968SOL    HW2 4802   2.710   1.062   3.315
  969SOL     OW 4803  10.184   8.722   6.984
  969SOL    HW1 4804  10.124   8.695   7.053
  969SOL    HW2 4805  10.214   8.809   7.011
  970SOL     OW 4806  11.974   4.341   7.320
  970SOL    HW1 4807  11.881   4.359   7.308
  970SOL    HW2 4808  12.017   4.424   7.301
  971SOL     OW 4809   3.248  10.662   3.090
  971SOL    HW1 4810   3.194  10.584   3.091
  971SOL    HW2 4811   3.223  10.711   3.168
  972SOL     OW 4812   3.214   7.572   8.401
  972SOL    HW1 4813   3.297   7.617   8.382
  972SOL    HW2 4814   3.239   7.500   8.459
  973SOL     OW 4815   8.978   2.009  13.861
  973SOL    HW1 4816   9.021   2.074  13.806
  973SOL    HW2 4817   8.945   2.058  13.936
  974SOL     OW 4818   3.422  12.047   5.798
  974SOL    HW1 4819   3.391  12.134   5.823
  974SOL    HW2 4820   3.516  12.049   5.816
  975SOL     OW 4821   8.180   2.408  13.544
  975SOL    HW1 4822   8.171   2.418  13.449
  975SOL    HW2 4823   8.119   2.472  13.581
  976SOL     OW 4824   2.529   7.033   6.511
  976SOL    HW1 4825   2.439   7.055   6.486
  976SOL    HW2 4826   2.539   6.941   6.485
  977SOL     OW 4827   8.470   1.384   9.142
  977SOL    HW1 4828   8.380   1.415   9.134
  977SOL    HW2 4829   8.519   1.433   9.076
  978SOL     OW 4830  14.470  13.818   4.437
  978SOL    HW1 4831  14.375  13.818   4.452
  978SOL    HW2 4832  14.506  13.857   4.517
  979SOL     OW 4833   8.395   3.014   6.151
  979SOL    HW1 4834   8.358   3.063   6.077
  979SOL    HW2 4835   8.376   3.068   6.227
  980SOL     OW 4836   7.317   0.079   5.377
  980SOL    HW1 4837   7.372   0.097   5.454
  980SOL    HW2 4838   7.295   0.165   5.342
  981SOL     OW 4839   5.293   3.369  14.424
  981SOL    HW1 4840   5.249   3.301  14.373
  981SOL    HW2 4841   5.301   3.442  14.363
  982SOL     OW 4842  11.678  14.635   9.667
  982SOL    HW1 4843  11.721  14.660   9.748
  982SOL    HW2 4844  11.693  14.709   9.607
  983SOL     OW 4845   2.320  12.724  12.542
  983SOL    HW1 4846   2.251  12.758  12.599
  983SOL    HW2 4847   2.294  12.635  12.522
  984SOL     OW 4848   8.258  12.249   6.684
  984SOL    HW1 4849   8.217  12.199   6.614
  984SOL    HW2 4850   8.342  12.205   6.699
  985SOL     OW 4851  11.384   4.675   4.270
  985SOL    HW1 4852  11.397   4.700   4.178
  985SOL    HW2 4853  11.291   4.652   4.274
  986SOL     OW 4854   0.097   9.726  14.661
  986SOL    HW1 4855   0.094   9.821  14.667
  986SOL    HW2 4856   0.189   9.704  14.678
  987SOL     OW 4857   7.598  12.159  12.994
  987SOL    HW1 4858   7.590  12.141  13.087
  987SOL    HW2 4859   7.510  12.187  12.967
  988SOL     OW 4860   4.512  12.550  13.285
  988SOL    HW1 4861   4.574  12.568  13.356
  988SOL    HW2 4862   4.560  12.571  13.205
  989SOL     OW 4863  13.785   5.751   4.942
  989SOL    HW1 4864  13.786   5.806   4.864
  989SOL    HW2 4865  13.709   5.781   4.992
  990SOL     OW 4866   4.957   6.389  12.412
  990SOL    HW1 4867   5.037   6.337  12.412
  990SOL    HW2 4868   4.969   6.451  12.340
  991SOL     OW 4869   5.972  11.870   0.407
  991SOL    HW1 4870   5.975  11.949   0.353
  991SOL    HW2 4871   5.914  11.893   0.480
  992SOL     OW 4872   2.748   0.241  10.141
  992SOL    HW1 4873   2.784   0.308  10.083
  992SOL    HW2 4874   2.780   0.265  10.228
  993SOL     OW 4875  14.441   5.128  10.103
  993SOL    HW1 4876  14.513   5.097  10.158
  993SOL    HW2 4877  14.411   5.050  10.057
  994SOL     OW 4878   8.086   5.677   6.580
  994SOL    HW1 4879   8.075   5.593   6.624
  994SOL    HW2 4880   8.079   5.657   6.486
  995SOL     OW 4881   7.514   4.855   1.982
  995SOL    HW1 4882   7.594   4.829   2.028
  995SOL    HW2 4883   7.444   4.833   2.044
  996SOL     OW 4884  12.509  14.752  11.114
  996SOL    HW1 4885  12.449  14.822  11.139
  996SOL    HW2 4886  12.486  14.732  11.024
  997SOL     OW 4887   1.557   6.720   1.512
  997SOL    HW1 4888   1.578   6.630   1.535
  997SOL    HW2 4889   1.636   6.753   1.468
  998SOL     OW 4890  13.829   4.588   4.496
  998SOL    HW1 4891  13.844   4.671   4.451
  998SOL    HW2 4892  13.774   4.610   4.571
  999SOL     OW 4893   9.085   7.905   8.694
  999SOL    HW1 4894   9.032   7.829   8.718
  999SOL    HW2 4895   9.115   7.940   8.778
 1000SOL     OW 4896  11.172  10.344   7.353
 1000SOL    HW1 4897  11.165  10.350   7.448
 1000SOL    HW2 4898  11.082  10.348   7.321
 1001SOL     OW 4899   9.896  12.173  14.189
 1001SOL    HW1 4900   9.934  12.127  14.264
 1001SOL    HW2 4901   9.961  12.162  14.119
 1002SOL     OW 4902   7.557  11.727  13.704
 1002SOL    HW1 4903   7.604  11.715  13.621
 1002SOL    HW2 4904   7.619  11.697  13.771
 1003SOL     OW 4905   9.275   0.787  13.550
 1003SOL    HW1 4906   9.231   0.773  13.467
 1003SOL    HW2 4907   9.355   0.835  13.527
 1004SOL     OW 4908  13.500   7.642  10.475
 1004SOL    HW1 4909  13.434   7.709  10.457
 1004SOL    HW2 4910  13.493   7.626  10.569
 1005SOL     OW 4911   9.017   4.799   3.872
 1005SOL    HW1 4912   8.953   4.794   3.942
 1005SOL    HW2 4913   9.008   4.716   3.825
 1006SOL     OW 4914  11.192   7.987  13.312
 1006SOL    HW1 4915  11.129   8.056  13.333
 1006SOL    HW2 4916  11.147   7.933  13.246
 1007SOL     OW 4917  13.107  14.755   1.180
 1007SOL    HW1 4918  13.148  14.838   1.203
 1007SOL    HW2 4919  13.019  14.760   1.218
 1008SOL     OW 4920   0.019   0.251   7.668
 1008SOL    HW1 4921   0.062   0.171   7.698
 1008SOL    HW2 4922  14.810   0.251   7.715
 1009SOL     OW 4923  14.368  12.579  11.716
 1009SOL    HW1 4924  14.294  12.603  11.660
 1009SOL    HW2 4925  14.443  12.625  11.677
 1010SOL     OW 4926  12.312   0.521  12.402
 1010SOL    HW1 4927  12.309   0.580  12.478
 1010SOL    HW2 4928  12.274   0.439  12.433
 1011SOL     OW 4929   9.827  14.005  14.541
 1011SOL    HW1 4930   9.772  13.928  14.528
 1011SOL    HW2 4931   9.870  14.018  14.457
 1012SOL     OW 4932   9.650  12.451   8.663
 1012SOL    HW1 4933   9.566  12.432   8.621
 1012SOL    HW2 4934   9.701  12.371   8.652
 1013SOL     OW 4935  12.919   3.643   4.899
 1013SOL    HW1 4936  12.868   3.591   4.960
 1013SOL    HW2 4937  12.896   3.734   4.918
 1014SOL     OW 4938   0.272  13.089   4.155
 1014SOL    HW1 4939   0.283  13.175   4.194
 1014SOL    HW2 4940   0.229  13.105   4.071
 1015SOL     OW 4941   2.732  14.278   3.538
 1015SOL    HW1 4942   2.779  14.239   3.612
 1015SOL    HW2 4943   2.790  14.265   3.463
 1016SOL     OW 4944  13.685  10.799   1.948
 1016SOL    HW1 4945  13.643  10.722   1.909
 1016SOL    HW2 4946  13.656  10.799   2.039
 1017SOL     OW 4947   5.888   5.308  14.504
 1017SOL    HW1 4948   5.935   5.390  14.487
 1017SOL    HW2 4949   5.851   5.321  14.592
 1018SOL     OW 4950  11.519   8.568   8.430
 1018SOL    HW1 4951  11.448   8.520   8.387
 1018SOL    HW2 4952  11.536   8.642   8.371
 1019SOL     OW 4953   4.775   7.059  12.605
 1019SOL    HW1 4954   4.870   7.066  12.616
 1019SOL    HW2 4955   4.749   7.145  12.570
 1020SOL     OW 4956   1.198   7.441   7.899
 1020SOL    HW1 4957   1.130   7.374   7.909
 1020SOL    HW2 4958   1.185   7.475   7.810
 1021SOL     OW 4959  14.838   0.635   5.261
 1021SOL    HW1 4960   0.032   0.576   5.291
 1021SOL    HW2 4961  14.799   0.591   5.186
 1022SOL     OW 4962   4.318   9.120  14.618
 1022SOL    HW1 4963   4.362   9.135  14.701
 1022SOL    HW2 4964   4.242   9.179  14.620
 1023SOL     OW 4965   2.863   2.883  11.871
 1023SOL    HW1 4966   2.862   2.960  11.815
 1023SOL    HW2 4967   2.787   2.894  11.929
 1024SOL     OW 4968  11.601  14.818  14.169
 1024SOL    HW1 4969  11.626   0.000  14.096
 1024SOL    HW2 4970  11.587   0.003  14.242
 1025SOL     OW 4971  10.986   7.757   0.034
 1025SOL    HW1 4972  10.899   7.777  14.874
 1025SOL    HW2 4973  10.981   7.784   0.126
 1026SOL     OW 4974  12.734   1.426   9.259
 1026SOL    HW1 4975  12.661   1.373   9.227
 1026SOL    HW2 4976  12.703   1.517   9.253
 1027SOL     OW 4977   0.438   2.918  13.132
 1027SOL    HW1 4978   0.528   2.945  13.112
 1027SOL    HW2 4979   0.384   2.988  13.097
 1028SOL     OW 4980   8.652  10.070  12.656
 1028SOL    HW1 4981   8.717  10.135  12.628
 1028SOL    HW2 4982   8.695  10.022  12.727
 1029SOL     OW 4983   4.954  11.718  12.813
 1029SOL    HW1 4984   4.957  11.669  12.730
 1029SOL    HW2 4985   5.018  11.674  12.869
 1030SOL     OW 4986   0.578   5.697  11.786
 1030SOL    HW1 4987   0.612   5.786  11.787
 1030SOL    HW2 4988   0.483   5.708  11.785
 1031SOL     OW 4989  12.602  13.300   5.299
 1031SOL    HW1 4990  12.646  13.379   5.330
 1031SOL    HW2 4991  12.673  13.245   5.264
 1032SOL     OW 4992  11.781  13.210  10.420
 1032SOL    HW1 4993  11.692  13.218  10.455
 1032SOL    HW2 4994  11.817  13.299  10.426
 1033SOL     OW 4995   1.078   8.526   9.782
 1033SOL    HW1 4996   1.167   8.508   9.812
 1033SOL    HW2 4997   1.087   8.595   9.716
 1034SOL     OW 4998   0.762   3.772   2.663
 1034SOL    HW1 4999   0.729   3.684   2.681
 1034SOL    HW2 5000   0.771   3.775   2.567
 1035SOL     OW 5001   0.774  13.872   0.708
 1035SOL    HW1 5002   0.747  13.780   0.712
 1035SOL    HW2 5003   0.692  13.921   0.717
 1036SOL     OW 5004  13.899   1.766   3.541
 1036SOL    HW1 5005  13.820   1.817   3.559
 1036SOL    HW2 5006  13.952   1.823   3.485
 1037SOL     OW 5007  12.884   8.390   6.812
 1037SOL    HW1 5008  12.807   8.333   6.816
 1037SOL    HW2 5009  12.919   8.390   6.902
 1038SOL     OW 5010   7.181  14.483   2.062
 1038SOL    HW1 5011   7.254  14.532   2.025
 1038SOL    HW2 5012   7.203  14.472   2.155
 1039SOL     OW 5013   1.920  13.981  13.779
 1039SOL    HW1 5014   1.931  14.036  13.857
 1039SOL    HW2 5015   1.996  13.923  13.780
 1040SOL     OW 5016  12.140   3.210   0.394
 1040SOL    HW1 5017  12.121   3.279   0.457
 1040SOL    HW2 5018  12.211   3.159   0.434
 1041SOL     OW 5019   5.496  13.229   6.022
 1041SOL    HW1 5020   5.409  13.263   6.043
 1041SOL    HW2 5021   5.553  13.306   6.021
 1042SOL     OW 5022   9.104   4.599   7.535
 1042SOL    HW1 5023   9.009   4.596   7.552
 1042SOL    HW2 5024   9.128   4.690   7.548
 1043SOL     OW 5025  10.215   9.449  12.468
 1043SOL    HW1 5026  10.151   9.456  12.396
 1043SOL    HW2 5027  10.258   9.365  12.454
 1044SOL     OW 5028   4.192   6.789  10.449
 1044SOL    HW1 5029   4.109   6.764  10.408
 1044SOL    HW2 5030   4.223   6.709  10.492
 1045SOL     OW 5031  13.942   8.578  13.700
 1045SOL    HW1 5032  13.988   8.500  13.670
 1045SOL    HW2 5033  13.898   8.611  13.622
 1046SOL     OW 5034   7.741  12.072   5.510
 1046SOL    HW1 5035   7.649  12.056   5.530
 1046SOL    HW2 5036   7.786  12.058   5.594
 1047SOL     OW 5037  10.155  12.197   6.946
 1047SOL    HW1 5038  10.200  12.252   6.881
 1047SOL    HW2 5039  10.156  12.249   7.026
 1048SOL     OW 5040   6.984  12.934  13.998
 1048SOL    HW1 5041   6.977  12.849  14.042
 1048SOL    HW2 5042   6.942  12.996  14.058
 1049SOL     OW 5043   8.694   5.942   8.234
 1049SOL    HW1 5044   8.601   5.936   8.256
 1049SOL    HW2 5045   8.705   6.031   8.200
 1050SOL     OW 5046   8.705   7.195   9.590
 1050SOL    HW1 5047   8.690   7.204   9.496
 1050SOL    HW2 5048   8.799   7.176   9.598
 1051SOL     OW 5049  14.426   6.171   1.758
 1051SOL    HW1 5050  14.432   6.081   1.789
 1051SOL    HW2 5051  14.344   6.173   1.708
 1052SOL     OW 5052   0.835   9.065   7.313
 1052SOL    HW1 5053   0.793   9.120   7.379
 1052SOL    HW2 5054   0.827   8.976   7.347
 1053SOL     OW 5055   8.915   2.427   8.325
 1053SOL    HW1 5056   8.949   2.411   8.413
 1053SOL    HW2 5057   8.937   2.348   8.276
 1054SOL     OW 5058   9.061   1.733  13.705
 1054SOL    HW1 5059   9.144   1.744  13.752
 1054SOL    HW2 5060   8.997   1.712  13.774
 1055SOL     OW 5061   5.863   5.824   2.267
 1055SOL    HW1 5062   5.948   5.790   2.240
 1055SOL    HW2 5063   5.867   5.918   2.247
 1056SOL     OW 5064   4.088   0.770  11.986
 1056SOL    HW1 5065   4.038   0.851  11.981
 1056SOL    HW2 5066   4.026   0.702  11.959
 1057SOL     OW 5067   8.420   5.669   4.202
 1057SOL    HW1 5068   8.363   5.592   4.198
 1057SOL    HW2 5069   8.364   5.738   4.239
 1058SOL     OW 5070  13.533  13.693  12.558
 1058SOL    HW1 5071  13.524  13.779  12.515
 1058SOL    HW2 5072  13.593  13.708  12.630
 1059SOL     OW 5073  10.770   4.323   3.032
 1059SOL    HW1 5074  10.837   4.257   3.016
 1059SOL    HW2 5075  10.790   4.358   3.118
 1060SOL     OW 5076   3.742  10.869   1.456
 1060SOL    HW1 5077   3.717  10.956   1.488
 1060SOL    HW2 5078   3.712  10.809   1.525
 1061SOL     OW 5079   2.356  11.169   1.550
 1061SOL    HW1 5080   2.447  11.164   1.520
 1061SOL    HW2 5081   2.320  11.083   1.529
 1062SOL     OW 5082   0.254  10.848   0.627
 1062SOL    HW1 5083   0.247  10.764   0.582
 1062SOL    HW2 5084   0.333  10.840   0.681
 1063SOL     OW 5085   0.455  11.546   6.010
 1063SOL    HW1 5086   0.378  11.504   6.049
 1063SOL    HW2 5087   0.515  11.473   5.992
 1064SOL     OW 5088   9.718  12.551  10.901
 1064SOL    HW1 5089   9.812  12.564  10.912
 1064SOL    HW2 5090   9.704  12.562  10.807
 1065SOL     OW 5091  11.815   9.963   1.044
 1065SOL    HW1 5092  11.725   9.938   1.027
 1065SOL    HW2 5093  11.832  10.034   0.982
 1066SOL     OW 5094   5.097   2.757   0.121
 1066SOL    HW1 5095   5.170   2.696   0.125
 1066SOL    HW2 5096   5.137   2.842   0.102
 1067SOL     OW 5097   5.426   9.309   7.760
 1067SOL    HW1 5098   5.452   9.223   7.794
 1067SOL    HW2 5099   5.508   9.356   7.749
 1068SOL     OW 5100   5.331   0.784  12.317
 1068SOL    HW1 5101   5.326   0.689  12.310
 1068SOL    HW2 5102   5.420   0.806  12.289
 1069SOL     OW 5103  13.501  12.081   0.711
 1069SOL    HW1 5104  13.586  12.123   0.704
 1069SOL    HW2 5105  13.506  12.031   0.792
 1070SOL     OW 5106  11.510   1.584   7.272
 1070SOL    HW1 5107  11.492   1.666   7.225
 1070SOL    HW2 5108  11.438   1.577   7.335
 1071SOL     OW 5109   3.598   7.195   7.214
 1071SOL    HW1 5110   3.596   7.240   7.298
 1071SOL    HW2 5111   3.688   7.209   7.182
 1072SOL     OW 5112   2.156   9.417  11.567
 1072SOL    HW1 5113   2.061   9.415  11.550
 1072SOL    HW2 5114   2.177   9.328  11.595
 1073SOL     OW 5115   0.128   4.104   1.775
 1073SOL    HW1 5116   0.199   4.118   1.838
 1073SOL    HW2 5117   0.159   4.033   1.720
 1074SOL     OW 5118   4.282   0.777   1.272
 1074SOL    HW1 5119   4.314   0.854   1.225
 1074SOL    HW2 5120   4.214   0.741   1.214
 1075SOL     OW 5121   5.157  14.768  11.407
 1075SOL    HW1 5122   5.140  14.756  11.500
 1075SOL    HW2 5123   5.252  14.765  11.399
 1076SOL     OW 5124  11.257  13.444  12.491
 1076SOL    HW1 5125  11.334  13.424  12.437
 1076SOL    HW2 5126  11.292  13.495  12.564
 1077SOL     OW 5127  11.769  14.733   8.174
 1077SOL    HW1 5128  11.827  14.662   8.199
 1077SOL    HW2 5129  11.746  14.776   8.256
 1078SOL     OW 5130  10.029  12.680   3.859
 1078SOL    HW1 5131  10.023  12.775   3.853
 1078SOL    HW2 5132  10.106  12.664   3.914
 1079SOL     OW 5133   5.855   8.987   9.751
 1079SOL    HW1 5134   5.804   9.052   9.702
 1079SOL    HW2 5135   5.872   8.918   9.688
 1080SOL     OW 5136   9.264   1.267  10.702
 1080SOL    HW1 5137   9.279   1.361  10.713
 1080SOL    HW2 5138   9.248   1.235  10.791
 1081SOL     OW 5139   1.021   0.171   3.680
 1081SOL    HW1 5140   1.014   0.199   3.771
 1081SOL    HW2 5141   1.115   0.173   3.661
 1082SOL     OW 5142   5.734  14.695   4.880
 1082SOL    HW1 5143   5.661  14.705   4.818
 1082SOL    HW2 5144   5.769  14.608   4.861
 1083SOL     OW 5145  11.118   0.808  13.970
 1083SOL    HW1 5146  11.159   0.760  14.042
 1083SOL    HW2 5147  11.073   0.881  14.011
 1084SOL     OW 5148   4.050   4.865   6.777
 1084SOL    HW1 5149   4.060   4.817   6.859
 1084SOL    HW2 5150   3.955   4.871   6.764
 1085SOL     OW 5151  13.854  14.739   2.325
 1085SOL    HW1 5152  13.825  14.805   2.262
 1085SOL    HW2 5153  13.832  14.656   2.284
 1086SOL     OW 5154   7.132  12.518  11.004
 1086SOL    HW1 5155   7.149  12.429  10.973
 1086SOL    HW2 5156   7.081  12.559  10.934
 1087SOL     OW 5157  13.405   9.855  10.721
 1087SOL    HW1 5158  13.358   9.824  10.799
 1087SOL    HW2 5159  13.381   9.793  10.652
 1088SOL     OW 5160  12.342   7.457   9.577
 1088SOL    HW1 5161  12.349   7.435   9.484
 1088SOL    HW2 5162  12.425   7.427   9.615
 1089SOL     OW 5163  12.154   7.692   4.060
 1089SOL    HW1 5164  12.144   7.738   4.143
 1089SOL    HW2 5165  12.248   7.696   4.042
 1090SOL     OW 5166   1.375   9.858  11.586
 1090SOL    HW1 5167   1.417   9.924  11.641
 1090SOL    HW2 5168   1.295   9.835  11.633
 1091SOL     OW 5169   5.088  13.501   6.824
 1091SOL    HW1 5170   5.035  13.461   6.893
 1091SOL    HW2 5171   5.141  13.429   6.790
 1092SOL     OW 5172   6.039   2.458   0.229
 1092SOL    HW1 5173   6.079   2.440   0.144
 1092SOL    HW2 5174   5.992   2.541   0.217
 1093SOL     OW 5175   6.218  12.683  11.416
 1093SOL    HW1 5176   6.171  12.672  11.333
 1093SOL    HW2 5177   6.221  12.595  11.453
 1094SOL     OW 5178   9.602  13.241   7.405
 1094SOL    HW1 5179   9.534  13.187   7.365
 1094SOL    HW2 5180   9.683  13.213   7.362
 1095SOL     OW 5181  14.093   6.888   5.907
 1095SOL    HW1 5182  14.144   6.879   5.987
 1095SOL    HW2 5183  14.041   6.968   5.921
 1096SOL     OW 5184   2.410   3.132   7.396
 1096SOL    HW1 5185   2.403   3.039   7.416
 1096SOL    HW2 5186   2.482   3.163   7.450
 1097SOL     OW 5187  13.292   5.784  11.938
 1097SOL    HW1 5188  13.330   5.719  11.879
 1097SOL    HW2 5189  13.275   5.735  12.019
 1098SOL     OW 5190   4.063  13.618  10.817
 1098SOL    HW1 5191   4.021  13.630  10.902
 1098SOL    HW2 5192   3.997  13.574  10.764
 1099SOL     OW 5193   6.535   8.710   3.937
 1099SOL    HW1 5194   6.602   8.747   3.993
 1099SOL    HW2 5195   6.453   8.722   3.986
 1100SOL     OW 5196   1.615   0.640  14.385
 1100SOL    HW1 5197   1.636   0.711  14.324
 1100SOL    HW2 5198   1.631   0.560  14.335
 1101SOL     OW 5199  11.673   4.012   6.859
 1101SOL    HW1 5200  11.757   4.040   6.895
 1101SOL    HW2 5201  11.608   4.062   6.908
 1102SOL     OW 5202   1.812   8.734  12.309
 1102SOL    HW1 5203   1.849   8.739  12.398
 1102SOL    HW2 5204   1.783   8.644  12.300
 1103SOL     OW 5205  10.373   3.847  11.932
 1103SOL    HW1 5206  10.349   3.863  11.841
 1103SOL    HW2 5207  10.468   3.837  11.930
 1104SOL     OW 5208  12.436   8.733  11.357
 1104SOL    HW1 5209  12.517   8.689  11.332
 1104SOL    HW2 5210  12.423   8.710  11.449
 1105SOL     OW 5211   4.305   5.450   9.263
 1105SOL    HW1 5212   4.306   5.434   9.358
 1105SOL    HW2 5213   4.276   5.541   9.255
 1106SOL     OW 5214   5.635   8.836   7.243
 1106SOL    HW1 5215   5.708   8.887   7.208
 1106SOL    HW2 5216   5.558   8.892   7.229
 1107SOL     OW 5217   2.206   1.010   0.482
 1107SOL    HW1 5218   2.279   1.068   0.506
 1107SOL    HW2 5219   2.138   1.030   0.545
 1108SOL     OW 5220   6.439  10.594   9.091
 1108SOL    HW1 5221   6.441  10.498   9.090
 1108SOL    HW2 5222   6.508  10.620   9.029
 1109SOL     OW 5223  10.649   4.048  14.623
 1109SOL    HW1 5224  10.617   4.125  14.669
 1109SOL    HW2 5225  10.631   3.975  14.682
 1110SOL     OW 5226  12.496  11.512  12.363
 1110SOL    HW1 5227  12.476  11.534  12.454
 1110SOL    HW2 5228  12.553  11.583  12.334
 1111SOL     OW 5229  12.729   3.864  10.711
 1111SOL    HW1 5230  12.797   3.924  10.679
 1111SOL    HW2 5231  12.777   3.789  10.745
 1112SOL     OW 5232  11.477   8.172  10.198
 1112SOL    HW1 5233  11.463   8.201  10.108
 1112SOL    HW2 5234  11.490   8.077  10.190
 1113SOL     OW 5235   0.675   9.676   7.559
 1113SOL    HW1 5236   0.722   9.738   7.503
 1113SOL    HW2 5237   0.585   9.709   7.561
 1114SOL     OW 5238  12.972   0.375  10.848
 1114SOL    HW1 5239  13.000   0.407  10.934
 1114SOL    HW2 5240  12.877   0.370  10.853
 1115SOL     OW 5241   0.452  11.160  12.061
 1115SOL    HW1 5242   0.542  11.131  12.079
 1115SOL    HW2 5243   0.462  11.229  11.995
 1116SOL     OW 5244   1.265  13.185   4.503
 1116SOL    HW1 5245   1.263  13.217   4.593
 1116SOL    HW2 5246   1.188  13.223   4.461
 1117SOL     OW 5247   6.866   7.696   8.363
 1117SOL    HW1 5248   6.950   7.650   8.370
 1117SOL    HW2 5249   6.806   7.631   8.327
 1118SOL     OW 5250  13.413   0.248   6.682
 1118SOL    HW1 5251  13.444   0.287   6.601
 1118SOL    HW2 5252  13.423   0.154   6.669
 1119SOL     OW 5253   0.504   2.004   1.568
 1119SOL    HW1 5254   0.527   1.912   1.558
 1119SOL    HW2 5255   0.574   2.051   1.523
 1120SOL     OW 5256   9.747  12.407   5.012
 1120SOL    HW1 5257   9.768  12.488   5.059
 1120SOL    HW2 5258   9.761  12.429   4.920
 1121SOL     OW 5259  12.026   1.715  11.886
 1121SOL    HW1 5260  12.032   1.747  11.795
 1121SOL    HW2 5261  11.967   1.777  11.929
 1122SOL     OW 5262  10.279  12.324   3.674
 1122SOL    HW1 5263  10.318  12.411   3.661
 1122SOL    HW2 5264  10.228  12.332   3.754
 1123SOL     OW 5265   4.531   4.339   2.405
 1123SOL    HW1 5266   4.623   4.317   2.421
 1123SOL    HW2 5267   4.514   4.308   2.316
 1124SOL     OW 5268   4.035   7.528  14.586
 1124SOL    HW1 5269   4.115   7.498  14.541
 1124SOL    HW2 5270   3.997   7.448  14.623
 1125SOL     OW 5271   0.582   4.781   3.928
 1125SOL    HW1 5272   0.659   4.810   3.977
 1125SOL    HW2 5273   0.616   4.714   3.868
 1126SOL     OW 5274  14.151  11.812  10.557
 1126SOL    HW1 5275  14.110  11.811  10.643
 1126SOL    HW2 5276  14.103  11.879  10.508
 1127SOL     OW 5277   5.234   5.606   0.789
 1127SOL    HW1 5278   5.156   5.568   0.749
 1127SOL    HW2 5279   5.301   5.602   0.720
 1128SOL     OW 5280  11.527   1.121   0.862
 1128SOL    HW1 5281  11.463   1.069   0.911
 1128SOL    HW2 5282  11.592   1.146   0.927
 1129SOL     OW 5283   0.154   0.517  13.846
 1129SOL    HW1 5284   0.070   0.544  13.808
 1129SOL    HW2 5285   0.171   0.431  13.808
 1130SOL     OW 5286  11.014   4.192   7.895
 1130SOL    HW1 5287  11.067   4.207   7.816
 1130SOL    HW2 5288  10.924   4.197   7.864
 1131SOL     OW 5289   3.113   8.094   1.275
 1131SOL    HW1 5290   3.057   8.046   1.214
 1131SOL    HW2 5291   3.150   8.165   1.222
 1132SOL     OW 5292  13.374  11.231  14.766
 1132SOL    HW1 5293  13.405  11.314  14.730
 1132SOL    HW2 5294  13.453  11.179  14.778
 1133SOL     OW 5295   8.364   6.492   4.319
 1133SOL    HW1 5296   8.405   6.406   4.309
 1133SOL    HW2 5297   8.281   6.473   4.363
 1134SOL     OW 5298   1.970   0.924  13.540
 1134SOL    HW1 5299   1.975   1.018  13.556
 1134SOL    HW2 5300   1.983   0.884  13.626
 1135SOL     OW 5301  10.737   7.339   6.745
 1135SOL    HW1 5302  10.721   7.264   6.687
 1135SOL    HW2 5303  10.766   7.300   6.827
 1136SOL     OW 5304   3.190   3.049  14.634
 1136SOL    HW1 5305   3.189   3.090  14.548
 1136SOL    HW2 5306   3.253   3.100  14.684
 1137SOL     OW 5307   4.461  11.166   7.367
 1137SOL    HW1 5308   4.517  11.235   7.401
 1137SOL    HW2 5309   4.373  11.205   7.365
 1138SOL     OW 5310   6.913   6.320  14.568
 1138SOL    HW1 5311   6.924   6.235  14.611
 1138SOL    HW2 5312   6.819   6.337  14.571
 1139SOL     OW 5313   5.325  11.554  11.926
 1139SOL    HW1 5314   5.377  11.500  11.985
 1139SOL    HW2 5315   5.370  11.548  11.842
 1140SOL     OW 5316   4.030  13.844   7.181
 1140SOL    HW1 5317   3.993  13.759   7.206
 1140SOL    HW2 5318   4.099  13.860   7.246
 1141SOL     OW 5319   9.290   7.356   9.873
 1141SOL    HW1 5320   9.338   7.349   9.956
 1141SOL    HW2 5321   9.198   7.363   9.900
 1142SOL     OW 5322  10.078   9.266   3.354
 1142SOL    HW1 5323  10.126   9.309   3.283
 1142SOL    HW2 5324  10.111   9.176   3.354
 1143SOL     OW 5325  12.738   4.205   5.488
 1143SOL    HW1 5326  12.718   4.112   5.474
 1143SOL    HW2 5327  12.766   4.237   5.403
 1144SOL     OW 5328   9.762  11.530  11.053
 1144SOL    HW1 5329   9.730  11.601  10.997
 1144SOL    HW2 5330   9.693  11.463  11.049
 1145SOL     OW 5331  14.810   7.317   2.431
 1145SOL    HW1 5332  14.832   7.235   2.385
 1145SOL    HW2 5333  14.804   7.292   2.523
 1146SOL     OW 5334   0.512   8.939   3.806
 1146SOL    HW1 5335   0.468   8.869   3.757
 1146SOL    HW2 5336   0.451   9.012   3.803
 1147SOL     OW 5337  10.472   1.005  13.902
 1147SOL    HW1 5338  10.458   0.912  13.882
 1147SOL    HW2 5339  10.411   1.052  13.845
 1148SOL     OW 5340  11.241   6.914  10.406
 1148SOL    HW1 5341  11.332   6.938  10.423
 1148SOL    HW2 5342  11.237   6.897  10.312
 1149SOL     OW 5343   3.208   9.225   7.064
 1149SOL    HW1 5344   3.281   9.183   7.019
 1149SOL    HW2 5345   3.225   9.212   7.157
 1150SOL     OW 5346   2.862   7.333   6.733
 1150SOL    HW1 5347   2.824   7.310   6.648
 1150SOL    HW2 5348   2.786   7.354   6.788
 1151SOL     OW 5349  10.971  14.852   2.912
 1151SOL    HW1 5350  11.016   0.057   2.939
 1151SOL    HW2 5351  10.937  14.815   2.993
 1152SOL     OW 5352   2.788   3.668   5.166
 1152SOL    HW1 5353   2.780   3.757   5.201
 1152SOL    HW2 5354   2.699   3.643   5.144
 1153SOL     OW 5355   2.291   4.631  14.489
 1153SOL    HW1 5356   2.246   4.651  14.407
 1153SOL    HW2 5357   2.244   4.556  14.524
 1154SOL     OW 5358  11.300   1.497   1.618
 1154SOL    HW1 5359  11.277   1.438   1.546
 1154SOL    HW2 5360  11.346   1.569   1.575
 1155SOL     OW 5361   3.223  12.845  14.166
 1155SOL    HW1 5362   3.214  12.940  14.171
 1155SOL    HW2 5363   3.162  12.819  14.096
 1156SOL     OW 5364   6.792  13.509   3.209
 1156SOL    HW1 5365   6.725  13.472   3.268
 1156SOL    HW2 5366   6.743  13.536   3.131
 1157SOL     OW 5367  14.519   0.781  13.665
 1157SOL    HW1 5368  14.543   0.739  13.747
 1157SOL    HW2 5369  14.427   0.756  13.651
 1158SOL     OW 5370   5.415   1.072  11.919
 1158SOL    HW1 5371   5.362   1.039  11.992
 1158SOL    HW2 5372   5.480   1.003  11.904
 1159SOL     OW 5373   0.918   1.806  13.832
 1159SOL    HW1 5374   0.957   1.884  13.871
 1159SOL    HW2 5375   0.951   1.733  13.884
 1160SOL     OW 5376   9.670   5.069  11.779
 1160SOL    HW1 5377   9.665   5.128  11.703
 1160SOL    HW2 5378   9.745   5.102  11.829
 1161SOL     OW 5379   9.293   8.374   2.476
 1161SOL    HW1 5380   9.210   8.372   2.428
 1161SOL    HW2 5381   9.269   8.355   2.566
 1162SOL     OW 5382  10.735   9.309  13.429
 1162SOL    HW1 5383  10.660   9.258  13.399
 1162SOL    HW2 5384  10.701   9.363  13.500
 1163SOL     OW 5385  11.230  10.461   7.862
 1163SOL    HW1 5386  11.222  10.529   7.929
 1163SOL    HW2 5387  11.234  10.379   7.912
 1164SOL     OW 5388   4.315  10.694  14.132
 1164SOL    HW1 5389   4.361  10.649  14.204
 1164SOL    HW2 5390   4.382  10.706  14.065
 1165SOL     OW 5391   4.500   3.258   9.533
 1165SOL    HW1 5392   4.452   3.341   9.532
 1165SOL    HW2 5393   4.465   3.210   9.608
 1166SOL     OW 5394   6.220  14.872  14.235
 1166SOL    HW1 5395   6.170  14.792  14.221
 1166SOL    HW2 5396   6.312  14.842  14.237
 1167SOL     OW 5397  12.755  13.601   2.480
 1167SOL    HW1 5398  12.702  13.521   2.490
 1167SOL    HW2 5399  12.786  13.619   2.569
 1168SOL     OW 5400  10.055   0.905   4.743
 1168SOL    HW1 5401  10.150   0.898   4.754
 1168SOL    HW2 5402  10.025   0.951   4.821
 1169SOL     OW 5403   1.328  13.595   8.948
 1169SOL    HW1 5404   1.373  13.616   8.866
 1169SOL    HW2 5405   1.269  13.523   8.925
 1170SOL     OW 5406   4.312   7.063  14.602
 1170SOL    HW1 5407   4.268   7.130  14.654
 1170SOL    HW2 5408   4.405   7.078  14.620
 1171SOL     OW 5409   4.800   9.199   1.188
 1171SOL    HW1 5410   4.847   9.221   1.107
 1171SOL    HW2 5411   4.858   9.140   1.234
 1172SOL     OW 5412   0.230   7.488   1.013
 1172SOL    HW1 5413   0.251   7.403   0.976
 1172SOL    HW2 5414   0.162   7.523   0.956
 1173SOL     OW 5415   4.092   8.690  13.508
 1173SOL    HW1 5416   4.078   8.781  13.481
 1173SOL    HW2 5417   4.113   8.643  13.427
 1174SOL     OW 5418   7.612   9.564   5.619
 1174SOL    HW1 5419   7.526   9.522   5.613
 1174SOL    HW2 5420   7.652   9.526   5.697
 1175SOL     OW 5421  10.295  14.790   5.765
 1175SOL    HW1 5422  10.220  14.830   5.722
 1175SOL    HW2 5423  10.371  14.819   5.714
 1176SOL     OW 5424   9.463   9.943  11.652
 1176SOL    HW1 5425   9.515  10.014  11.614
 1176SOL    HW2 5426   9.498   9.932  11.741
 1177SOL     OW 5427  11.749   8.164   0.338
 1177SOL    HW1 5428  11.681   8.165   0.404
 1177SOL    HW2 5429  11.741   8.079   0.295
 1178SOL     OW 5430   1.189   8.548  13.201
 1178SOL    HW1 5431   1.270   8.549  13.149
 1178SOL    HW2 5432   1.220   8.540  13.291
 1179SOL     OW 5433   2.493   2.373  12.231
 1179SOL    HW1 5434   2.432   2.345  12.163
 1179SOL    HW2 5435   2.556   2.301  12.238
 1180SOL     OW 5436   4.966   7.698  13.358
 1180SOL    HW1 5437   5.005   7.625  13.310
 1180SOL    HW2 5438   4.872   7.692  13.341
 1181SOL     OW 5439  11.104   6.353  11.844
 1181SOL    HW1 5440  11.135   6.444  11.852
 1181SOL    HW2 5441  11.032   6.359  11.781
 1182SOL     OW 5442  14.096   3.960  12.784
 1182SOL    HW1 5443  14.132   4.039  12.743
 1182SOL    HW2 5444  14.005   3.982  12.803
 1183SOL     OW 5445  13.467  12.795  13.124
 1183SOL    HW1 5446  13.506  12.746  13.052
 1183SOL    HW2 5447  13.540  12.845  13.161
 1184SOL     OW 5448  12.271   0.720   8.644
 1184SOL    HW1 5449  12.358   0.705   8.681
 1184SOL    HW2 5450  12.222   0.762   8.715
 1185SOL     OW 5451   4.127  14.086  10.904
 1185SOL    HW1 5452   4.086  14.172  10.897
 1185SOL    HW2 5453   4.214  14.097  10.866
 1186SOL     OW 5454  11.999   1.865   8.982
 1186SOL    HW1 5455  12.051   1.910   9.049
 1186SOL    HW2 5456  12.062   1.808   8.938
 1187SOL     OW 5457   2.162   6.516   7.303
 1187SOL    HW1 5458   2.126   6.564   7.378
 1187SOL    HW2 5459   2.157   6.424   7.329
 1188SOL     OW 5460   6.879  11.977   4.016
 1188SOL    HW1 5461   6.887  11.950   4.108
 1188SOL    HW2 5462   6.862  11.895   3.969
 1189SOL     OW 5463  12.354   9.970  13.579
 1189SOL    HW1 5464  12.366  10.065  13.572
 1189SOL    HW2 5465  12.356   9.938  13.489
 1190SOL     OW 5466   8.248  10.104   0.455
 1190SOL    HW1 5467   8.254  10.121   0.361
 1190SOL    HW2 5468   8.171  10.152   0.483
 1191SOL     OW 5469  11.015   5.712  13.148
 1191SOL    HW1 5470  11.017   5.741  13.239
 1191SOL    HW2 5471  11.107   5.699  13.124
 1192SOL     OW 5472   3.880  14.324  13.809
 1192SOL    HW1 5473   3.828  14.372  13.872
 1192SOL    HW2 5474   3.964  14.370  13.807
 1193SOL     OW 5475   2.638   9.749   0.657
 1193SOL    HW1 5476   2.558   9.720   0.614
 1193SOL    HW2 5477   2.708   9.729   0.594
 1194SOL     OW 5478   1.304  11.197   5.555
 1194SOL    HW1 5479   1.293  11.237   5.469
 1194SOL    HW2 5480   1.267  11.261   5.616
 1195SOL     OW 5481   9.123   9.067  13.255
 1195SOL    HW1 5482   9.118   9.031  13.344
 1195SOL    HW2 5483   9.033   9.090  13.234
 1196SOL     OW 5484   0.419  11.341  14.226
 1196SOL    HW1 5485   0.375  11.350  14.311
 1196SOL    HW2 5486   0.495  11.398  14.233
 1197SOL     OW 5487  12.211  14.206   7.242
 1197SOL    HW1 5488  12.167  14.275   7.192
 1197SOL    HW2 5489  12.140  14.145   7.265
 1198SOL     OW 5490   5.796   5.702  12.107
 1198SOL    HW1 5491   5.756   5.632  12.158
 1198SOL    HW2 5492   5.863   5.738  12.165
 1199SOL     OW 5493  10.929   6.965   8.319
 1199SOL    HW1 5494  10.845   6.935   8.284
 1199SOL    HW2 5495  10.907   7.006   8.403
 1200SOL     OW 5496  13.186   0.955  12.791
 1200SOL    HW1 5497  13.187   0.904  12.872
 1200SOL    HW2 5498  13.276   0.987  12.783
 1201SOL     OW 5499   7.934   8.024   4.251
 1201SOL    HW1 5500   7.901   7.963   4.185
 1201SOL    HW2 5501   7.883   8.003   4.329
 1202SOL     OW 5502   5.259   0.925  13.910
 1202SOL    HW1 5503   5.245   0.870  13.833
 1202SOL    HW2 5504   5.327   0.880  13.960
 1203SOL     OW 5505  10.716   2.830   0.307
 1203SOL    HW1 5506  10.809   2.825   0.329
 1203SOL    HW2 5507  10.703   2.922   0.282
 1204SOL     OW 5508   4.035   5.878  13.229
 1204SOL    HW1 5509   3.941   5.883  13.212
 1204SOL    HW2 5510   4.065   5.806  13.174
 1205SOL     OW 5511   1.153   4.246   9.072
 1205SOL    HW1 5512   1.104   4.301   9.010
 1205SOL    HW2 5513   1.227   4.300   9.098
 1206SOL     OW 5514  13.536  14.817   7.187
 1206SOL    HW1 5515  13.620  14.864   7.189
 1206SOL    HW2 5516  13.498  14.830   7.274
 1207SOL     OW 5517  10.444   8.208   5.868
 1207SOL    HW1 5518  10.379   8.143   5.895
 1207SOL    HW2 5519  10.440   8.207   5.772
 1208SOL     OW 5520   9.055   4.063  14.642
 1208SOL    HW1 5521   8.962   4.040  14.651
 1208SOL    HW2 5522   9.079   4.101  14.726
 1209SOL     OW 5523   7.843  10.237   5.442
 1209SOL    HW1 5524   7.865  10.328   5.425
 1209SOL    HW2 5525   7.894  10.214   5.519
 1210SOL     OW 5526  12.140   5.890  13.482
 1210SOL    HW1 5527  12.163   5.831  13.411
 1210SOL    HW2 5528  12.223   5.910  13.526
 1211SOL     OW 5529   7.106   1.914   4.125
 1211SOL    HW1 5530   7.023   1.875   4.096
 1211SOL    HW2 5531   7.137   1.963   4.049
 1212SOL     OW 5532   8.552  10.601  12.095
 1212SOL    HW1 5533   8.571  10.580  12.004
 1212SOL    HW2 5534   8.469  10.647  12.092
 1213SOL     OW 5535  13.446  13.490   9.997
 1213SOL    HW1 5536  13.425  13.399  10.020
 1213SOL    HW2 5537  13.531  13.485   9.954
 1214SOL     OW 5538   3.684   6.639   2.747
 1214SOL    HW1 5539   3.620   6.569   2.753
 1214SOL    HW2 5540   3.739   6.616   2.671
 1215SOL     OW 5541   2.514   5.351   0.822
 1215SOL    HW1 5542   2.575   5.418   0.790
 1215SOL    HW2 5543   2.456   5.399   0.882
 1216SOL     OW 5544  11.404   4.077   2.010
 1216SOL    HW1 5545  11.428   4.011   1.945
 1216SOL    HW2 5546  11.420   4.161   1.966
 1217SOL     OW 5547   8.946   2.774   7.696
 1217SOL    HW1 5548   8.854   2.758   7.675
 1217SOL    HW2 5549   8.956   2.869   7.687
 1218SOL     OW 5550   0.972   7.330   7.954
 1218SOL    HW1 5551   0.976   7.235   7.962
 1218SOL    HW2 5552   0.945   7.361   8.040
 1219SOL     OW 5553  10.998  13.330   7.162
 1219SOL    HW1 5554  11.037  13.416   7.171
 1219SOL    HW2 5555  11.060  13.281   7.108
 1220SOL     OW 5556   4.806   8.111  10.071
 1220SOL    HW1 5557   4.809   8.028  10.120
 1220SOL    HW2 5558   4.839   8.176  10.132
 1221SOL     OW 5559  11.518   1.719  11.602
 1221SOL    HW1 5560  11.550   1.647  11.657
 1221SOL    HW2 5561  11.491   1.786  11.665
 1222SOL     OW 5562  11.748   0.585   5.538
 1222SOL    HW1 5563  11.815   0.518   5.526
 1222SOL    HW2 5564  11.784   0.642   5.607
 1223SOL     OW 5565   8.974   9.733   0.787
 1223SOL    HW1 5566   9.056   9.738   0.835
 1223SOL    HW2 5567   8.945   9.642   0.797
 1224SOL     OW 5568   9.349   4.102   8.007
 1224SOL    HW1 5569   9.405   4.068   8.076
 1224SOL    HW2 5570   9.278   4.039   7.999
 1225SOL     OW 5571   1.089   7.730   6.623
 1225SOL    HW1 5572   1.012   7.697   6.668
 1225SOL    HW2 5573   1.162   7.709   6.680
 1226SOL     OW 5574   8.551   4.940  10.332
 1226SOL    HW1 5575   8.594   5.021  10.362
 1226SOL    HW2 5576   8.464   4.944  10.372
 1227SOL     OW 5577   7.421   7.178   3.371
 1227SOL    HW1 5578   7.411   7.251   3.433
 1227SOL    HW2 5579   7.510   7.186   3.339
 1228SOL     OW 5580  13.902   4.310   9.931
 1228SOL    HW1 5581  13.834   4.248   9.906
 1228SOL    HW2 5582  13.869   4.395   9.900
 1229SOL     OW 5583   5.461  13.639   8.181
 1229SOL    HW1 5584   5.466  13.556   8.228
 1229SOL    HW2 5585   5.389  13.686   8.224
 1230SOL     OW 5586   1.516   9.506   5.731
 1230SOL    HW1 5587   1.579   9.484   5.800
 1230SOL    HW2 5588   1.473   9.423   5.710
 1231SOL     OW 5589   0.750   1.827   1.716
 1231SOL    HW1 5590   0.693   1.861   1.785
 1231SOL    HW2 5591   0.691   1.784   1.655
 1232SOL     OW 5592  10.687   7.102   6.335
 1232SOL    HW1 5593  10.684   7.117   6.430
 1232SOL    HW2 5594  10.617   7.157   6.300
 1233SOL     OW 5595  10.748   8.677   3.388
 1233SOL    HW1 5596  10.818   8.621   3.356
 1233SOL    HW2 5597  10.785   8.723   3.463
 1234SOL     OW 5598  13.395   7.094   2.166
 1234SOL    HW1 5599  13.347   7.174   2.187
 1234SOL    HW2 5600  13.453   7.081   2.240
 1235SOL     OW 5601   0.092   0.510  14.289
 1235SOL    HW1 5602   0.146   0.477  14.360
 1235SOL    HW2 5603   0.154   0.547  14.226
 1236SOL     OW 5604   2.249  13.237   6.484
 1236SOL    HW1 5605   2.198  13.180   6.428
 1236SOL    HW2 5606   2.219  13.325   6.462
 1237SOL     OW 5607   0.208   9.950   3.023
 1237SOL    HW1 5608   0.145   9.930   2.953
 1237SOL    HW2 5609   0.156   9.945   3.103
 1238SOL     OW 5610   2.205   8.293   9.016
 1238SOL    HW1 5611   2.215   8.387   9.001
 1238SOL    HW2 5612   2.168   8.259   8.934
 1239SOL     OW 5613  11.557  13.782   7.457
 1239SOL    HW1 5614  11.503  13.766   7.534
 1239SOL    HW2 5615  11.569  13.695   7.418
 1240SOL     OW 5616   8.452   9.544   5.519
 1240SOL    HW1 5617   8.414   9.560   5.433
 1240SOL    HW2 5618   8.541   9.578   5.513
 1241SOL     OW 5619  12.550   4.724   1.377
 1241SOL    HW1 5620  12.491   4.660   1.338
 1241SOL    HW2 5621  12.578   4.685   1.460
 1242SOL     OW 5622  11.361   7.818   1.134
 1242SOL    HW1 5623  11.281   7.830   1.185
 1242SOL    HW2 5624  11.410   7.899   1.146
 1243SOL     OW 5625   9.785   4.896  12.686
 1243SOL    HW1 5626   9.784   4.823  12.624
 1243SOL    HW2 5627   9.697   4.933  12.682
 1244SOL     OW 5628  13.418  13.944   5.270
 1244SOL    HW1 5629  13.443  14.008   5.204
 1244SOL    HW2 5630  13.411  13.861   5.223
 1245SOL     OW 5631  12.965  13.155   3.258
 1245SOL    HW1 5632  12.938  13.076   3.305
 1245SOL    HW2 5633  13.048  13.131   3.216
 1246SOL     OW 5634   8.650   0.459   9.994
 1246SOL    HW1 5635   8.718   0.445  10.059
 1246SOL    HW2 5636   8.577   0.497  10.043
 1247SOL     OW 5637  13.039  12.654  14.654
 1247SOL    HW1 5638  13.101  12.590  14.689
 1247SOL    HW2 5639  13.094  12.727  14.625
 1248SOL     OW 5640   6.143   3.101   1.492
 1248SOL    HW1 5641   6.149   3.006   1.505
 1248SOL    HW2 5642   6.054   3.123   1.517
 1249SOL     OW 5643   8.094  13.418  14.649
 1249SOL    HW1 5644   8.070  13.492  14.704
 1249SOL    HW2 5645   8.190  13.417  14.651
 1250SOL     OW 5646   1.208   9.714   8.143
 1250SOL    HW1 5647   1.273   9.645   8.136
 1250SOL    HW2 5648   1.139   9.688   8.082
 1251SOL     OW 5649   7.337  10.297   8.167
 1251SOL    HW1 5650   7.384  10.374   8.196
 1251SOL    HW2 5651   7.378  10.273   8.084
 1252SOL     OW 5652   5.010   6.659   0.298
 1252SOL    HW1 5653   5.057   6.718   0.356
 1252SOL    HW2 5654   5.071   6.587   0.282
 1253SOL     OW 5655   4.212   2.613   1.654
 1253SOL    HW1 5656   4.202   2.657   1.570
 1253SOL    HW2 5657   4.125   2.578   1.673
 1254SOL     OW 5658   6.278  12.123   5.331
 1254SOL    HW1 5659   6.315  12.153   5.248
 1254SOL    HW2 5660   6.214  12.057   5.307
 1255SOL     OW 5661   3.849  14.595   8.276
 1255SOL    HW1 5662   3.929  14.633   8.240
 1255SOL    HW2 5663   3.826  14.526   8.215
 1256SOL     OW 5664   8.222  12.834   8.250
 1256SOL    HW1 5665   8.222  12.852   8.344
 1256SOL    HW2 5666   8.305  12.790   8.234
 1257SOL     OW 5667   2.944  13.985   7.284
 1257SOL    HW1 5668   2.919  13.994   7.192
 1257SOL    HW2 5669   2.934  13.892   7.303
 1258SOL     OW 5670   4.411   4.510  13.805
 1258SOL    HW1 5671   4.379   4.572  13.870
 1258SOL    HW2 5672   4.388   4.424  13.840
 1259SOL     OW 5673  13.000   2.998  11.870
 1259SOL    HW1 5674  13.035   3.038  11.949
 1259SOL    HW2 5675  12.975   3.072  11.814
 1260SOL     OW 5676  13.159   4.751   4.729
 1260SOL    HW1 5677  13.096   4.733   4.800
 1260SOL    HW2 5678  13.155   4.672   4.674
 1261SOL     OW 5679  11.436  13.789   0.094
 1261SOL    HW1 5680  11.527  13.816   0.083
 1261SOL    HW2 5681  11.408  13.833   0.174
 1262SOL     OW 5682   7.251   7.890   9.541
 1262SOL    HW1 5683   7.226   7.968   9.492
 1262SOL    HW2 5684   7.205   7.818   9.497
 1263SOL     OW 5685  13.191  11.654   1.359
 1263SOL    HW1 5686  13.111  11.692   1.323
 1263SOL    HW2 5687  13.255  11.663   1.288
 1264SOL     OW 5688   6.306  14.814   3.589
 1264SOL    HW1 5689   6.347  14.781   3.509
 1264SOL    HW2 5690   6.352   0.020   3.608
 1265SOL     OW 5691   7.583  14.718  10.480
 1265SOL    HW1 5692   7.553  14.632  10.512
 1265SOL    HW2 5693   7.524  14.781  10.522
 1266SOL     OW 5694   1.947   1.988  12.053
 1266SOL    HW1 5695   1.878   1.930  12.086
 1266SOL    HW2 5696   1.947   2.062  12.114
 1267SOL     OW 5697   9.530  11.160   6.707
 1267SOL    HW1 5698   9.573  11.153   6.622
 1267SOL    HW2 5699   9.446  11.200   6.688
 1268SOL     OW 5700  12.977  12.793   2.585
 1268SOL    HW1 5701  13.041  12.722   2.587
 1268SOL    HW2 5702  12.985  12.836   2.670
 1269SOL     OW 5703   6.375   8.346   9.429
 1269SOL    HW1 5704   6.469   8.359   9.427
 1269SOL    HW2 5705   6.353   8.316   9.341
 1270SOL     OW 5706   9.351   5.506  11.279
 1270SOL    HW1 5707   9.255   5.506  11.284
 1270SOL    HW2 5708   9.370   5.501  11.185
 1271SOL     OW 5709  14.738   6.661   2.629
 1271SOL    HW1 5710  14.673   6.634   2.693
 1271SOL    HW2 5711  14.741   6.589   2.566
 1272SOL     OW 5712   5.242  13.848  13.162
 1272SOL    HW1 5713   5.190  13.928  13.162
 1272SOL    HW2 5714   5.193  13.787  13.217
 1273SOL     OW 5715   6.731   2.346  11.510
 1273SOL    HW1 5716   6.790   2.278  11.542
 1273SOL    HW2 5717   6.694   2.309  11.430
 1274SOL     OW 5718   5.617  12.201   4.968
 1274SOL    HW1 5719   5.643  12.272   4.909
 1274SOL    HW2 5720   5.691  12.139   4.965
 1275SOL     OW 5721   0.841   8.754   2.512
 1275SOL    HW1 5722   0.887   8.681   2.471
 1275SOL    HW2 5723   0.808   8.806   2.439
 1276SOL     OW 5724   8.844   7.174   6.511
 1276SOL    HW1 5725   8.787   7.251   6.512
 1276SOL    HW2 5726   8.789   7.103   6.544
 1277SOL     OW 5727   8.324   8.616  12.323
 1277SOL    HW1 5728   8.414   8.630  12.352
 1277SOL    HW2 5729   8.331   8.612  12.227
 1278SOL     OW 5730  13.923  12.295   6.214
 1278SOL    HW1 5731  13.885  12.240   6.146
 1278SOL    HW2 5732  14.012  12.262   6.224
 1279SOL     OW 5733  12.017  11.219   1.143
 1279SOL    HW1 5734  12.091  11.159   1.146
 1279SOL    HW2 5735  12.047  11.296   1.191
 1280SOL     OW 5736   4.875   9.363   4.070
 1280SOL    HW1 5737   4.799   9.403   4.027
 1280SOL    HW2 5738   4.884   9.412   4.152
 1281SOL     OW 5739  11.455   4.031  14.851
 1281SOL    HW1 5740  11.543   4.066  14.861
 1281SOL    HW2 5741  11.435   3.991   0.060
 1282SOL     OW 5742   0.444  12.584   9.578
 1282SOL    HW1 5743   0.533  12.604   9.607
 1282SOL    HW2 5744   0.448  12.492   9.549
 1283SOL     OW 5745   8.306  10.320   5.259
 1283SOL    HW1 5746   8.275  10.250   5.316
 1283SOL    HW2 5747   8.362  10.276   5.195
 1284SOL     OW 5748   8.099  13.520   1.013
 1284SOL    HW1 5749   8.137  13.432   1.006
 1284SOL    HW2 5750   8.125  13.551   1.100
 1285SOL     OW 5751   1.577   0.089  11.369
 1285SOL    HW1 5752   1.660   0.116  11.408
 1285SOL    HW2 5753   1.592   0.000  11.337
 1286SOL     OW 5754   9.973  14.393  12.507
 1286SOL    HW1 5755  10.041  14.457  12.488
 1286SOL    HW2 5756  10.018  14.309  12.507
 1287SOL     OW 5757  12.245   0.360   7.964
 1287SOL    HW1 5758  12.220   0.272   7.935
 1287SOL    HW2 5759  12.311   0.345   8.031
 1288SOL     OW 5760   6.210   8.570   1.630
 1288SOL    HW1 5761   6.151   8.616   1.570
 1288SOL    HW2 5762   6.153   8.527   1.692
 1289SOL     OW 5763   6.980   5.733   4.640
 1289SOL    HW1 5764   6.999   5.640   4.650
 1289SOL    HW2 5765   6.937   5.740   4.555
 1290SOL     OW 5766   5.212   9.080   2.340
 1290SOL    HW1 5767   5.238   9.093   2.249
 1290SOL    HW2 5768   5.220   8.986   2.355
 1291SOL     OW 5769   6.908   0.758  13.156
 1291SOL    HW1 5770   6.956   0.742  13.074
 1291SOL    HW2 5771   6.951   0.701  13.220
 1292SOL     OW 5772   9.026   6.063  13.573
 1292SOL    HW1 5773   8.931   6.074  13.580
 1292SOL    HW2 5774   9.061   6.150  13.589
 1293SOL     OW 5775   3.287  13.302   4.885
 1293SOL    HW1 5776   3.370  13.254   4.886
 1293SOL    HW2 5777   3.276  13.328   4.793
 1294SOL     OW 5778   9.066  12.071  10.340
 1294SOL    HW1 5779   8.996  12.110  10.288
 1294SOL    HW2 5780   9.034  11.983  10.361
 1295SOL     OW 5781  14.007  14.409   1.171
 1295SOL    HW1 5782  14.061  14.330   1.171
 1295SOL    HW2 5783  14.001  14.433   1.264
 1296SOL     OW 5784  12.856  12.998  13.041
 1296SOL    HW1 5785  12.837  13.018  12.950
 1296SOL    HW2 5786  12.782  13.035  13.090
 1297SOL     OW 5787  10.853  14.019  13.986
 1297SOL    HW1 5788  10.832  14.051  13.898
 1297SOL    HW2 5789  10.860  14.099  14.039
 1298SOL     OW 5790  13.084  11.793  14.549
 1298SOL    HW1 5791  13.088  11.711  14.597
 1298SOL    HW2 5792  13.141  11.852  14.598
 1299SOL     OW 5793  11.292   9.978   4.161
 1299SOL    HW1 5794  11.291  10.073   4.175
 1299SOL    HW2 5795  11.290   9.941   4.249
 1300SOL     OW 5796  11.726  13.172   1.122
 1300SOL    HW1 5797  11.664  13.100   1.119
 1300SOL    HW2 5798  11.687  13.240   1.066
 1301SOL     OW 5799   5.272   4.492  11.300
 1301SOL    HW1 5800   5.186   4.450  11.291
 1301SOL    HW2 5801   5.329   4.442  11.241
 1302SOL     OW 5802   9.972  11.295   9.572
 1302SOL    HW1 5803   9.944  11.278   9.482
 1302SOL    HW2 5804   9.903  11.256   9.626
 1303SOL     OW 5805  14.528  11.355  11.762
 1303SOL    HW1 5806  14.453  11.387  11.812
 1303SOL    HW2 5807  14.584  11.312  11.827
 1304SOL     OW 5808   4.294  13.291  14.617
 1304SOL    HW1 5809   4.265  13.281  14.708
 1304SOL    HW2 5810   4.304  13.385  14.605
 1305SOL     OW 5811   2.440   5.028  13.202
 1305SOL    HW1 5812   2.516   5.003  13.148
 1305SOL    HW2 5813   2.478   5.071  13.278
 1306SOL     OW 5814   4.587  10.146   0.922
 1306SOL    HW1 5815   4.620  10.227   0.884
 1306SOL    HW2 5816   4.613  10.149   1.014
 1307SOL     OW 5817  14.785   1.201   0.530
 1307SOL    HW1 5818  14.697   1.235   0.544
 1307SOL    HW2 5819  14.833   1.223   0.610
 1308SOL     OW 5820   8.608   7.898   7.908
 1308SOL    HW1 5821   8.627   7.979   7.861
 1308SOL    HW2 5822   8.533   7.860   7.862
 1309SOL     OW 5823  12.680  10.542   4.225
 1309SOL    HW1 5824  12.762  10.591   4.226
 1309SOL    HW2 5825  12.646  10.552   4.136
 1310SOL     OW 5826   8.391   4.394  10.184
 1310SOL    HW1 5827   8.444   4.455  10.134
 1310SOL    HW2 5828   8.322   4.367  10.123
 1311SOL     OW 5829   0.535  11.618   4.679
 1311SOL    HW1 5830   0.538  11.580   4.766
 1311SOL    HW2 5831   0.555  11.711   4.692
 1312SOL     OW 5832   9.101  14.135   9.248
 1312SOL    HW1 5833   9.144  14.074   9.188
 1312SOL    HW2 5834   9.137  14.221   9.223
 1313SOL     OW 5835  10.385   3.402   8.504
 1313SOL    HW1 5836  10.436   3.420   8.582
 1313SOL    HW2 5837  10.334   3.324   8.526
 1314SOL     OW 5838   6.943  10.354  10.630
 1314SOL    HW1 5839   6.954  10.350  10.725
 1314SOL    HW2 5840   7.014  10.301  10.595
 1315SOL     OW 5841   2.121   1.857  14.740
 1315SOL    HW1 5842   2.071   1.859  14.821
 1315SOL    HW2 5843   2.153   1.947  14.728
 1316SOL     OW 5844  10.500   2.861   7.578
 1316SOL    HW1 5845  10.412   2.855   7.541
 1316SOL    HW2 5846  10.489   2.912   7.658
 1317SOL     OW 5847   6.731   0.393  13.705
 1317SOL    HW1 5848   6.664   0.456  13.679
 1317SOL    HW2 5849   6.778   0.373  13.623
 1318SOL     OW 5850   3.875  11.399   5.563
 1318SOL    HW1 5851   3.786  11.367   5.577
 1318SOL    HW2 5852   3.868  11.459   5.489
 1319SOL     OW 5853   1.829   0.708  10.795
 1319SOL    HW1 5854   1.788   0.682  10.877
 1319SOL    HW2 5855   1.915   0.666  10.796
 1320SOL     OW 5856  12.631  14.478  13.034
 1320SOL    HW1 5857  12.607  14.439  13.118
 1320SOL    HW2 5858  12.711  14.527  13.052
 1321SOL     OW 5859  14.483  12.612   6.099
 1321SOL    HW1 5860  14.549  12.655   6.046
 1321SOL    HW2 5861  14.471  12.526   6.059
 1322SOL     OW 5862   0.973   3.460  10.718
 1322SOL    HW1 5863   0.993   3.550  10.742
 1322SOL    HW2 5864   1.055   3.426  10.680
 1323SOL     OW 5865   6.487   9.450   0.401
 1323SOL    HW1 5866   6.403   9.490   0.424
 1323SOL    HW2 5867   6.496   9.464   0.307
 1324SOL     OW 5868   4.159   9.169  11.140
 1324SOL    HW1 5869   4.215   9.245  11.123
 1324SOL    HW2 5870   4.085   9.180  11.081
 1325SOL     OW 5871   8.345  11.244   2.543
 1325SOL    HW1 5872   8.251  11.256   2.561
 1325SOL    HW2 5873   8.384  11.236   2.630
 1326SOL     OW 5874   9.117   0.895  12.057
 1326SOL    HW1 5875   9.025   0.909  12.032
 1326SOL    HW2 5876   9.125   0.937  12.142
 1327SOL     OW 5877   9.787  10.555   1.543
 1327SOL    HW1 5878   9.804  10.627   1.604
 1327SOL    HW2 5879   9.782  10.477   1.598
 1328SOL     OW 5880   8.371   1.892   5.036
 1328SOL    HW1 5881   8.373   1.949   5.112
 1328SOL    HW2 5882   8.373   1.803   5.072
 1329SOL     OW 5883   0.100  13.043   6.208
 1329SOL    HW1 5884   0.061  13.092   6.136
 1329SOL    HW2 5885   0.037  12.972   6.225
 1330SOL     OW 5886  13.472  10.950  12.930
 1330SOL    HW1 5887  13.553  10.993  12.904
 1330SOL    HW2 5888  13.442  10.905  12.850
 1331SOL     OW 5889   6.393  13.696   5.955
 1331SOL    HW1 5890   6.415  13.732   5.869
 1331SOL    HW2 5891   6.460  13.729   6.014
 1332SOL     OW 5892   0.902   9.807   0.346
 1332SOL    HW1 5893   0.948   9.770   0.270
 1332SOL    HW2 5894   0.849   9.878   0.310
 1333SOL     OW 5895  10.249   0.202   9.344
 1333SOL    HW1 5896  10.184   0.270   9.328
 1333SOL    HW2 5897  10.200   0.120   9.336
 1334SOL     OW 5898   2.916  13.611  14.143
 1334SOL    HW1 5899   2.985  13.670  14.173
 1334SOL    HW2 5900   2.835  13.659  14.160
 1335SOL     OW 5901   9.895   6.339  10.378
 1335SOL    HW1 5902   9.957   6.291  10.432
 1335SOL    HW2 5903   9.809   6.321  10.416
 1336SOL     OW 5904   7.075   5.885   5.666
 1336SOL    HW1 5905   7.074   5.841   5.752
 1336SOL    HW2 5906   6.988   5.924   5.658
 1337SOL     OW 5907  12.008   9.260   6.336
 1337SOL    HW1 5908  12.099   9.287   6.331
 1337SOL    HW2 5909  11.974   9.274   6.248
 1338SOL     OW 5910   6.169   2.312   4.314
 1338SOL    HW1 5911   6.170   2.399   4.355
 1338SOL    HW2 5912   6.248   2.269   4.347
 1339SOL     OW 5913   3.263   7.576  13.004
 1339SOL    HW1 5914   3.186   7.599  12.951
 1339SOL    HW2 5915   3.335   7.574  12.941
 1340SOL     OW 5916   7.551   1.335   2.992
 1340SOL    HW1 5917   7.525   1.247   2.965
 1340SOL    HW2 5918   7.644   1.340   2.973
 1341SOL     OW 5919   9.440   2.254   2.161
 1341SOL    HW1 5920   9.360   2.234   2.210
 1341SOL    HW2 5921   9.438   2.194   2.087
 1342SOL     OW 5922  13.866   6.106   9.945
 1342SOL    HW1 5923  13.815   6.070  10.018
 1342SOL    HW2 5924  13.832   6.060   9.868
 1343SOL     OW 5925   1.574   2.195   1.767
 1343SOL    HW1 5926   1.615   2.276   1.797
 1343SOL    HW2 5927   1.613   2.126   1.821
 1344SOL     OW 5928   5.892  12.734   6.520
 1344SOL    HW1 5929   5.832  12.662   6.503
 1344SOL    HW2 5930   5.910  12.729   6.614
 1345SOL     OW 5931   4.451  11.757   7.042
 1345SOL    HW1 5932   4.420  11.745   7.131
 1345SOL    HW2 5933   4.543  11.728   7.044
 1346SOL     OW 5934   6.614  11.791   5.768
 1346SOL    HW1 5935   6.685  11.854   5.755
 1346SOL    HW2 5936   6.559  11.800   5.691
 1347SOL     OW 5937   2.000  11.115   1.402
 1347SOL    HW1 5938   1.983  11.090   1.493
 1347SOL    HW2 5939   1.933  11.068   1.352
 1348SOL     OW 5940   3.456  11.872  14.504
 1348SOL    HW1 5941   3.504  11.949  14.536
 1348SOL    HW2 5942   3.516  11.832  14.441
 1349SOL     OW 5943  12.231  11.648   1.960
 1349SOL    HW1 5944  12.174  11.634   1.885
 1349SOL    HW2 5945  12.227  11.566   2.009
 1350SOL     OW 5946   1.016  11.138   3.918
 1350SOL    HW1 5947   1.003  11.232   3.925
 1350SOL    HW2 5948   1.100  11.128   3.873
 1351SOL     OW 5949   8.408   9.965   9.339
 1351SOL    HW1 5950   8.380   9.873   9.330
 1351SOL    HW2 5951   8.380   9.989   9.427
 1352SOL     OW 5952   1.775   3.087   7.224
 1352SOL    HW1 5953   1.828   3.022   7.178
 1352SOL    HW2 5954   1.706   3.037   7.266
 1353SOL     OW 5955  11.479   9.549  10.683
 1353SOL    HW1 5956  11.480   9.639  10.714
 1353SOL    HW2 5957  11.518   9.554  10.596
 1354SOL     OW 5958   7.307   3.206   9.177
 1354SOL    HW1 5959   7.265   3.138   9.229
 1354SOL    HW2 5960   7.254   3.284   9.191
 1355SOL     OW 5961   4.058   2.503   3.613
 1355SOL    HW1 5962   4.136   2.524   3.664
 1355SOL    HW2 5963   4.032   2.587   3.574
 1356SOL     OW 5964   8.609  10.376  10.401
 1356SOL    HW1 5965   8.584  10.349  10.489
 1356SOL    HW2 5966   8.632  10.295  10.356
 1357SOL     OW 5967  14.818  11.407   4.486
 1357SOL    HW1 5968   0.013  11.460   4.524
 1357SOL    HW2 5969  14.832  11.320   4.522
 1358SOL     OW 5970   3.499   6.883   1.298
 1358SOL    HW1 5971   3.556   6.811   1.271
 1358SOL    HW2 5972   3.417   6.867   1.252
 1359SOL     OW 5973  13.570  13.506   5.697
 1359SOL    HW1 5974  13.533  13.427   5.738
 1359SOL    HW2 5975  13.638  13.535   5.758
 1360SOL     OW 5976   1.975   7.480   0.463
 1360SOL    HW1 5977   1.915   7.495   0.537
 1360SOL    HW2 5978   1.976   7.563   0.415
 1361SOL     OW 5979  11.930   2.608   1.994
 1361SOL    HW1 5980  11.996   2.579   1.931
 1361SOL    HW2 5981  11.980   2.638   2.069
 1362SOL     OW 5982   3.307   7.108   2.225
 1362SOL    HW1 5983   3.283   7.042   2.290
 1362SOL    HW2 5984   3.369   7.063   2.167
 1363SOL     OW 5985   6.493   4.309   0.843
 1363SOL    HW1 5986   6.452   4.391   0.816
 1363SOL    HW2 5987   6.584   4.333   0.860
 1364SOL     OW 5988   9.502  13.472   2.846
 1364SOL    HW1 5989   9.425  13.421   2.873
 1364SOL    HW2 5990   9.574  13.409   2.849
 1365SOL     OW 5991   9.853   6.098  12.306
 1365SOL    HW1 5992   9.937   6.071  12.343
 1365SOL    HW2 5993   9.855   6.068  12.215
 1366SOL     OW 5994  11.534   2.446   3.511
 1366SOL    HW1 5995  11.444   2.435   3.541
 1366SOL    HW2 5996  11.554   2.365   3.465
 1367SOL     OW 5997   0.881  11.828   5.528
 1367SOL    HW1 5998   0.962  11.877   5.545
 1367SOL    HW2 5999   0.848  11.805   5.614
 1368SOL     OW 6000   7.429  10.261  12.898
 1368SOL    HW1 6001   7.358  10.252  12.961
 1368SOL    HW2 6002   7.480  10.181  12.908
 1369SOL     OW 6003   6.979   0.229   6.402
 1369SOL    HW1 6004   7.065   0.236   6.361
 1369SOL    HW2 6005   6.948   0.142   6.376
 1370SOL     OW 6006   5.704   8.635   0.025
 1370SOL    HW1 6007   5.636   8.573   0.054
 1370SOL    HW2 6008   5.655   8.708  14.862
 1371SOL     OW 6009  14.251  10.235  13.316
 1371SOL    HW1 6010  14.343  10.253  13.336
 1371SOL    HW2 6011  14.208  10.229  13.401
 1372SOL     OW 6012   3.701   7.095   4.032
 1372SOL    HW1 6013   3.662   7.141   4.107
 1372SOL    HW2 6014   3.654   7.011   4.029
 1373SOL     OW 6015   5.302  11.580  14.443
 1373SOL    HW1 6016   5.257  11.628  14.512
 1373SOL    HW2 6017   5.234  11.567  14.376
 1374SOL     OW 6018   5.781   1.511   8.206
 1374SOL    HW1 6019   5.832   1.433   8.183
 1374SOL    HW2 6020   5.837   1.584   8.180
 1375SOL     OW 6021   6.078   3.739   9.785
 1375SOL    HW1 6022   6.171   3.728   9.765
 1375SOL    HW2 6023   6.077   3.774   9.874
 1376SOL     OW 6024   3.322   9.069   9.487
 1376SOL    HW1 6025   3.270   9.039   9.413
 1376SOL    HW2 6026   3.333   9.163   9.473
 1377SOL     OW 6027   8.336   0.313   3.366
 1377SOL    HW1 6028   8.263   0.324   3.426
 1377SOL    HW2 6029   8.300   0.261   3.293
 1378SOL     OW 6030   7.532  11.463   3.215
 1378SOL    HW1 6031   7.617  11.420   3.221
 1378SOL    HW2 6032   7.518  11.477   3.122
 1379SOL     OW 6033   4.076  10.392   7.450
 1379SOL    HW1 6034   4.003  10.362   7.505
 1379SOL    HW2 6035   4.115  10.311   7.416
 1380SOL     OW 6036   1.117   2.009  13.620
 1380SOL    HW1 6037   1.152   1.974  13.702
 1380SOL    HW2 6038   1.026   2.031  13.641
 1381SOL     OW 6039   3.403   4.504  13.313
 1381SOL    HW1 6040   3.355   4.560  13.374
 1381SOL    HW2 6041   3.494   4.510  13.340
 1382SOL     OW 6042   2.157   8.217  14.552
 1382SOL    HW1 6043   2.152   8.312  14.561
 1382SOL    HW2 6044   2.149   8.201  14.458
 1383SOL     OW 6045   1.928  14.719  10.452
 1383SOL    HW1 6046   1.950  14.772  10.375
 1383SOL    HW2 6047   2.012  14.686  10.483
 1384SOL     OW 6048  11.696  14.164   2.921
 1384SOL    HW1 6049  11.638  14.089   2.910
 1384SOL    HW2 6050  11.733  14.179   2.834
 1385SOL     OW 6051  10.691   7.184   1.457
 1385SOL    HW1 6052  10.702   7.241   1.534
 1385SOL    HW2 6053  10.767   7.203   1.403
 1386SOL     OW 6054  11.179   0.753  14.420
 1386SOL    HW1 6055  11.115   0.712  14.479
 1386SOL    HW2 6056  11.228   0.813  14.475
 1387SOL     OW 6057  12.913  11.789   9.534
 1387SOL    HW1 6058  12.831  11.741   9.521
 1387SOL    HW2 6059  12.936  11.820   9.446
 1388SOL     OW 6060   9.194  11.630   4.869
 1388SOL    HW1 6061   9.225  11.671   4.950
 1388SOL    HW2 6062   9.182  11.703   4.808
 1389SOL     OW 6063  14.817  13.152   4.250
 1389SOL    HW1 6064   0.008  13.163   4.318
 1389SOL    HW2 6065  14.776  13.239   4.244
 1390SOL     OW 6066   4.454  11.565   6.792
 1390SOL    HW1 6067   4.467  11.644   6.846
 1390SOL    HW2 6068   4.435  11.599   6.705
 1391SOL     OW 6069  12.999  14.142   8.760
 1391SOL    HW1 6070  12.991  14.221   8.706
 1391SOL    HW2 6071  12.960  14.166   8.844
 1392SOL     OW 6072   5.599   5.529   3.156
 1392SOL    HW1 6073   5.557   5.595   3.212
 1392SOL    HW2 6074   5.542   5.522   3.080
 1393SOL     OW 6075   8.163   2.608   9.986
 1393SOL    HW1 6076   8.076   2.568   9.985
 1393SOL    HW2 6077   8.149   2.695  10.024
 1394SOL     OW 6078  11.182   8.365  13.708
 1394SOL    HW1 6079  11.121   8.325  13.647
 1394SOL    HW2 6080  11.260   8.384  13.656
 1395SOL     OW 6081   6.381   2.722  13.498
 1395SOL    HW1 6082   6.426   2.647  13.537
 1395SOL    HW2 6083   6.444   2.794  13.505
 1396SOL     OW 6084  11.699  12.674   1.643
 1396SOL    HW1 6085  11.709  12.617   1.718
 1396SOL    HW2 6086  11.616  12.719   1.657
 1397SOL     OW 6087  13.878  12.755   9.141
 1397SOL    HW1 6088  13.886  12.661   9.158
 1397SOL    HW2 6089  13.833  12.789   9.218
 1398SOL     OW 6090  12.351   0.148  10.106
 1398SOL    HW1 6091  12.446   0.138  10.095
 1398SOL    HW2 6092  12.313   0.087  10.043
 1399SOL     OW 6093  11.597  13.317   6.040
 1399SOL    HW1 6094  11.506  13.293   6.058
 1399SOL    HW2 6095  11.627  13.360   6.121
 1400SOL     OW 6096  12.020   2.801  10.483
 1400SOL    HW1 6097  11.961   2.770  10.552
 1400SOL    HW2 6098  12.104   2.758  10.502
 1401SOL     OW 6099  10.322   8.891   1.417
 1401SOL    HW1 6100  10.347   8.970   1.465
 1401SOL    HW2 6101  10.340   8.913   1.325
 1402SOL     OW 6102   3.333  14.205   0.945
 1402SOL    HW1 6103   3.316  14.255   0.865
 1402SOL    HW2 6104   3.353  14.116   0.914
 1403SOL     OW 6105  14.633   3.157  12.231
 1403SOL    HW1 6106  14.644   3.065  12.207
 1403SOL    HW2 6107  14.720   3.195  12.220
 1404SOL     OW 6108  14.026   0.495  11.865
 1404SOL    HW1 6109  14.113   0.476  11.900
 1404SOL    HW2 6110  14.010   0.587  11.886
 1405SOL     OW 6111   9.352   1.105   3.830
 1405SOL    HW1 6112   9.262   1.087   3.802
 1405SOL    HW2 6113   9.349   1.194   3.865
 1406SOL     OW 6114  10.504   6.685   3.276
 1406SOL    HW1 6115  10.463   6.680   3.189
 1406SOL    HW2 6116  10.476   6.769   3.311
 1407SOL     OW 6117   8.005   5.107   5.701
 1407SOL    HW1 6118   7.984   5.077   5.790
 1407SOL    HW2 6119   7.923   5.142   5.668
 1408SOL     OW 6120  11.105  11.792   3.986
 1408SOL    HW1 6121  11.176  11.753   4.037
 1408SOL    HW2 6122  11.089  11.877   4.028
 1409SOL     OW 6123   5.522   4.892   6.137
 1409SOL    HW1 6124   5.556   4.927   6.220
 1409SOL    HW2 6125   5.439   4.851   6.162
 1410SOL     OW 6126  11.415   5.934  11.591
 1410SOL    HW1 6127  11.506   5.920  11.619
 1410SOL    HW2 6128  11.417   6.016  11.542
 1411SOL     OW 6129  12.567   0.511   9.342
 1411SOL    HW1 6130  12.571   0.602   9.370
 1411SOL    HW2 6131  12.512   0.513   9.264
 1412SOL     OW 6132   3.779   4.244  10.328
 1412SOL    HW1 6133   3.706   4.294  10.291
 1412SOL    HW2 6134   3.841   4.311  10.359
 1413SOL     OW 6135   8.472   1.267   6.104
 1413SOL    HW1 6136   8.477   1.307   6.017
 1413SOL    HW2 6137   8.380   1.272   6.127
 1414SOL     OW 6138  10.726   0.471   9.800
 1414SOL    HW1 6139  10.636   0.446   9.782
 1414SOL    HW2 6140  10.775   0.438   9.724
 1415SOL     OW 6141   3.782   1.479   9.517
 1415SOL    HW1 6142   3.831   1.561   9.510
 1415SOL    HW2 6143   3.759   1.473   9.610
 1416SOL     OW 6144   7.635   3.087  12.038
 1416SOL    HW1 6145   7.669   3.005  12.075
 1416SOL    HW2 6146   7.544   3.067  12.016
 1417SOL     OW 6147   3.005   0.085  12.705
 1417SOL    HW1 6148   3.079   0.136  12.739
 1417SOL    HW2 6149   3.045   0.009  12.663
 1418SOL     OW 6150  11.274   9.115  12.974
 1418SOL    HW1 6151  11.236   9.075  12.896
 1418SOL    HW2 6152  11.237   9.064  13.047
 1419SOL     OW 6153  14.004   2.464   4.410
 1419SOL    HW1 6154  13.979   2.556   4.416
 1419SOL    HW2 6155  13.991   2.441   4.318
 1420SOL     OW 6156   6.089   4.017  14.141
 1420SOL    HW1 6157   6.160   3.961  14.111
 1420SOL    HW2 6158   6.131   4.098  14.168
 1421SOL     OW 6159   5.614  14.561  12.219
 1421SOL    HW1 6160   5.632  14.491  12.281
 1421SOL    HW2 6161   5.647  14.640  12.261
 1422SOL     OW 6162   2.177  12.686   0.061
 1422SOL    HW1 6163   2.266  12.717   0.042
 1422SOL    HW2 6164   2.165  12.610   0.003
 1423SOL     OW 6165   0.391   9.687  14.612
 1423SOL    HW1 6166   0.473   9.709  14.567
 1423SOL    HW2 6167   0.419   9.637  14.689
 1424SOL     OW 6168   8.065  13.821  14.336
 1424SOL    HW1 6169   7.994  13.763  14.363
 1424SOL    HW2 6170   8.100  13.856  14.418
 1425SOL     OW 6171   7.861   3.666  12.386
 1425SOL    HW1 6172   7.852   3.627  12.299
 1425SOL    HW2 6173   7.876   3.593  12.445
 1426SOL     OW 6174   9.599  14.637   2.884
 1426SOL    HW1 6175   9.676  14.585   2.908
 1426SOL    HW2 6176   9.635  14.720   2.854
 1427SOL     OW 6177   1.358  14.850   9.333
 1427SOL    HW1 6178   1.394   0.057   9.367
 1427SOL    HW2 6179   1.281  14.833   9.388
 1428SOL     OW 6180   6.809   6.672  14.581
 1428SOL    HW1 6181   6.816   6.621  14.662
 1428SOL    HW2 6182   6.779   6.608  14.516
 1429SOL     OW 6183   7.644  13.960  11.511
 1429SOL    HW1 6184   7.694  14.039  11.488
 1429SOL    HW2 6185   7.555  13.992  11.525
 1430SOL     OW 6186   2.144   0.389   0.062
 1430SOL    HW1 6187   2.068   0.437   0.094
 1430SOL    HW2 6188   2.120   0.297   0.068
 1431SOL     OW 6189   3.559   1.241  12.909
 1431SOL    HW1 6190   3.521   1.206  12.989
 1431SOL    HW2 6191   3.486   1.245  12.847
 1432SOL     OW 6192   9.554   0.690   0.236
 1432SOL    HW1 6193   9.527   0.622   0.298
 1432SOL    HW2 6194   9.606   0.751   0.289
 1433SOL     OW 6195   2.824   4.755  13.110
 1433SOL    HW1 6196   2.748   4.789  13.159
 1433SOL    HW2 6197   2.815   4.794  13.023
 1434SOL     OW 6198   3.041   8.708   9.242
 1434SOL    HW1 6199   3.039   8.778   9.177
 1434SOL    HW2 6200   3.007   8.748   9.322
 1435SOL     OW 6201   3.828  14.164   1.625
 1435SOL    HW1 6202   3.792  14.076   1.614
 1435SOL    HW2 6203   3.781  14.200   1.700
 1436SOL     OW 6204   5.987   7.750   0.850
 1436SOL    HW1 6205   5.927   7.787   0.914
 1436SOL    HW2 6206   6.061   7.720   0.902
 1437SOL     OW 6207   3.091   5.915   1.528
 1437SOL    HW1 6208   2.999   5.888   1.522
 1437SOL    HW2 6209   3.103   5.978   1.457
 1438SOL     OW 6210  12.649  13.134  11.262
 1438SOL    HW1 6211  12.738  13.101  11.265
 1438SOL    HW2 6212  12.607  13.086  11.190
 1439SOL     OW 6213  13.375   8.076   4.111
 1439SOL    HW1 6214  13.415   8.015   4.050
 1439SOL    HW2 6215  13.442   8.142   4.127
 1440SOL     OW 6216   1.366   9.207  10.646
 1440SOL    HW1 6217   1.389   9.164  10.729
 1440SOL    HW2 6218   1.298   9.270  10.670
 1441SOL     OW 6219   1.056   0.273   9.032
 1441SOL    HW1 6220   1.117   0.335   9.071
 1441SOL    HW2 6221   1.097   0.187   9.046
 1442SOL     OW 6222   6.580   6.527   6.392
 1442SOL    HW1 6223   6.608   6.528   6.301
 1442SOL    HW2 6224   6.661   6.517   6.442
 1443SOL     OW 6225  11.905  14.470   1.598
 1443SOL    HW1 6226  11.924  14.451   1.690
 1443SOL    HW2 6227  11.810  14.476   1.594
 1444SOL     OW 6228   1.454   5.045  12.158
 1444SOL    HW1 6229   1.416   5.029  12.072
 1444SOL    HW2 6230   1.394   5.002  12.219
 1445SOL     OW 6231   5.069  11.561   0.200
 1445SOL    HW1 6232   5.012  11.523   0.267
 1445SOL    HW2 6233   5.017  11.558   0.120
 1446SOL     OW 6234   8.973   1.454  12.935
 1446SOL    HW1 6235   8.897   1.457  12.993
 1446SOL    HW2 6236   9.031   1.388  12.974
 1447SOL     OW 6237  14.509   9.368   7.955
 1447SOL    HW1 6238  14.560   9.430   7.902
 1447SOL    HW2 6239  14.426   9.412   7.971
 1448SOL     OW 6240   5.593   6.127  14.417
 1448SOL    HW1 6241   5.589   6.182  14.340
 1448SOL    HW2 6242   5.523   6.063  14.405
 1449SOL     OW 6243   2.312   3.134   6.846
 1449SOL    HW1 6244   2.281   3.049   6.877
 1449SOL    HW2 6245   2.406   3.135   6.865
 1450SOL     OW 6246   9.558  13.363   4.827
 1450SOL    HW1 6247   9.628  13.421   4.798
 1450SOL    HW2 6248   9.598  13.276   4.830
 1451SOL     OW 6249   9.428  11.309   2.439
 1451SOL    HW1 6250   9.449  11.312   2.532
 1451SOL    HW2 6251   9.350  11.365   2.430
 1452SOL     OW 6252   8.890  13.432  14.267
 1452SOL    HW1 6253   8.815  13.485  14.239
 1452SOL    HW2 6254   8.852  13.347  14.291
 1453SOL     OW 6255   9.024   5.955   0.836
 1453SOL    HW1 6256   9.053   5.901   0.909
 1453SOL    HW2 6257   9.018   6.043   0.871
 1454SOL     OW 6258   9.053  13.863  14.653
 1454SOL    HW1 6259   9.062  13.767  14.650
 1454SOL    HW2 6260   9.064  13.890  14.562
 1455SOL     OW 6261  10.854   6.006   5.201
 1455SOL    HW1 6262  10.860   5.918   5.163
 1455SOL    HW2 6263  10.872   5.993   5.294
 1456SOL     OW 6264  10.117  12.432   3.356
 1456SOL    HW1 6265  10.094  12.509   3.303
 1456SOL    HW2 6266  10.047  12.427   3.421
 1457SOL     OW 6267   7.277   1.891   9.459
 1457SOL    HW1 6268   7.203   1.951   9.464
 1457SOL    HW2 6269   7.279   1.861   9.368
 1458SOL     OW 6270  11.577  11.159   7.505
 1458SOL    HW1 6271  11.527  11.079   7.520
 1458SOL    HW2 6272  11.667  11.134   7.521
 1459SOL     OW 6273   7.999   8.671   4.282
 1459SOL    HW1 6274   7.965   8.690   4.369
 1459SOL    HW2 6275   8.015   8.757   4.243
 1460SOL     OW 6276   8.994   4.146   4.700
 1460SOL    HW1 6277   8.975   4.165   4.791
 1460SOL    HW2 6278   9.078   4.101   4.702
 1461SOL     OW 6279   5.361  13.586  12.332
 1461SOL    HW1 6280   5.453  13.603  12.351
 1461SOL    HW2 6281   5.334  13.523  12.398
 1462SOL     OW 6282   9.342   7.330   8.360
 1462SOL    HW1 6283   9.388   7.249   8.381
 1462SOL    HW2 6284   9.288   7.348   8.437
 1463SOL     OW 6285  12.643  10.529   3.205
 1463SOL    HW1 6286  12.649  10.461   3.271
 1463SOL    HW2 6287  12.628  10.482   3.123
 1464SOL     OW 6288   2.824   0.692   4.961
 1464SOL    HW1 6289   2.903   0.688   5.014
 1464SOL    HW2 6290   2.826   0.780   4.923
 1465SOL     OW 6291   6.994   2.693   9.624
 1465SOL    HW1 6292   7.068   2.740   9.662
 1465SOL    HW2 6293   7.021   2.672   9.535
 1466SOL     OW 6294   9.707   3.577   6.716
 1466SOL    HW1 6295   9.651   3.500   6.706
 1466SOL    HW2 6296   9.647   3.647   6.740
 1467SOL     OW 6297  12.342   2.307   9.435
 1467SOL    HW1 6298  12.403   2.293   9.507
 1467SOL    HW2 6299  12.284   2.377   9.466
 1468SOL     OW 6300  13.786   1.899  14.472
 1468SOL    HW1 6301  13.770   1.980  14.520
 1468SOL    HW2 6302  13.881   1.886  14.479
 1469SOL     OW 6303   1.984   3.124  13.360
 1469SOL    HW1 6304   2.032   3.183  13.418
 1469SOL    HW2 6305   2.050   3.086  13.302
 1470SOL     OW 6306  11.446   6.038   5.788
 1470SOL    HW1 6307  11.481   5.953   5.816
 1470SOL    HW2 6308  11.396   6.069   5.864
 1471SOL     OW 6309   1.123  10.532   4.202
 1471SOL    HW1 6310   1.069  10.610   4.195
 1471SOL    HW2 6311   1.190  10.542   4.134
 1472SOL     OW 6312   5.755   3.105   7.623
 1472SOL    HW1 6313   5.847   3.094   7.599
 1472SOL    HW2 6314   5.747   3.197   7.646
 1473SOL     OW 6315  13.902   1.997   0.013
 1473SOL    HW1 6316  13.817   2.040   0.024
 1473SOL    HW2 6317  13.880   1.905  14.871
 1474SOL     OW 6318   3.729   8.351   5.198
 1474SOL    HW1 6319   3.642   8.311   5.195
 1474SOL    HW2 6320   3.785   8.290   5.149
 1475SOL     OW 6321   8.456   7.239  10.255
 1475SOL    HW1 6322   8.463   7.144  10.244
 1475SOL    HW2 6323   8.437   7.272  10.167
 1476SOL     OW 6324   6.178  11.548   9.097
 1476SOL    HW1 6325   6.245  11.568   9.162
 1476SOL    HW2 6326   6.224  11.551   9.013
 1477SOL     OW 6327   2.780   0.289  11.874
 1477SOL    HW1 6328   2.847   0.309  11.809
 1477SOL    HW2 6329   2.725   0.367  11.876
 1478SOL     OW 6330   0.562   1.361   3.042
 1478SOL    HW1 6331   0.640   1.372   2.988
 1478SOL    HW2 6332   0.566   1.434   3.105
 1479SOL     OW 6333   9.139   0.499   2.919
 1479SOL    HW1 6334   9.228   0.465   2.912
 1479SOL    HW2 6335   9.125   0.508   3.013
 1480SOL     OW 6336  14.688   0.773   8.433
 1480SOL    HW1 6337  14.656   0.758   8.522
 1480SOL    HW2 6338  14.777   0.737   8.433
 1481SOL     OW 6339  11.111   5.902   4.783
 1481SOL    HW1 6340  11.185   5.841   4.790
 1481SOL    HW2 6341  11.044   5.863   4.839
 1482SOL     OW 6342  13.151   3.946   0.977
 1482SOL    HW1 6343  13.174   3.853   0.973
 1482SOL    HW2 6344  13.234   3.990   0.995
 1483SOL     OW 6345   2.022   7.159   5.445
 1483SOL    HW1 6346   2.069   7.201   5.517
 1483SOL    HW2 6347   2.005   7.229   5.383
 1484SOL     OW 6348   4.457  10.160   0.160
 1484SOL    HW1 6349   4.487  10.209   0.237
 1484SOL    HW2 6350   4.385  10.107   0.193
 1485SOL     OW 6351   0.744   7.445   0.898
 1485SOL    HW1 6352   0.670   7.486   0.942
 1485SOL    HW2 6353   0.709   7.364   0.862
 1486SOL     OW 6354   2.916   9.969  11.245
 1486SOL    HW1 6355   2.943   9.888  11.289
 1486SOL    HW2 6356   2.821   9.972  11.256
 1487SOL     OW 6357  14.325  13.072   3.347
 1487SOL    HW1 6358  14.358  13.097   3.260
 1487SOL    HW2 6359  14.287  12.985   3.333
 1488SOL     OW 6360   6.582  12.013  14.200
 1488SOL    HW1 6361   6.588  12.104  14.173
 1488SOL    HW2 6362   6.546  12.016  14.288
 1489SOL     OW 6363   5.250   1.969   8.701
 1489SOL    HW1 6364   5.276   1.879   8.722
 1489SOL    HW2 6365   5.222   2.006   8.785
 1490SOL     OW 6366  10.677  12.208  10.653
 1490SOL    HW1 6367  10.721  12.244  10.730
 1490SOL    HW2 6368  10.660  12.117  10.676
 1491SOL     OW 6369   6.618   0.773  11.753
 1491SOL    HW1 6370   6.551   0.708  11.731
 1491SOL    HW2 6371   6.591   0.852  11.705
 1492SOL     OW 6372   4.356   9.775   7.991
 1492SOL    HW1 6373   4.446   9.797   8.015
 1492SOL    HW2 6374   4.326   9.717   8.061
 1493SOL     OW 6375   5.419   2.360   3.032
 1493SOL    HW1 6376   5.512   2.371   3.014
 1493SOL    HW2 6377   5.407   2.265   3.039
 1494SOL     OW 6378  11.266  10.765   1.083
 1494SOL    HW1 6379  11.208  10.819   1.029
 1494SOL    HW2 6380  11.208  10.720   1.143
 1495SOL     OW 6381   9.171   3.273  11.540
 1495SOL    HW1 6382   9.264   3.274  11.563
 1495SOL    HW2 6383   9.152   3.181  11.519
 1496SOL     OW 6384  14.706  12.984   6.668
 1496SOL    HW1 6385  14.703  12.889   6.658
 1496SOL    HW2 6386  14.762  12.999   6.744
 1497SOL     OW 6387   3.580   5.358  14.617
 1497SOL    HW1 6388   3.509   5.409  14.579
 1497SOL    HW2 6389   3.613   5.412  14.688
 1498SOL     OW 6390   8.314  13.129   8.239
 1498SOL    HW1 6391   8.340  13.073   8.313
 1498SOL    HW2 6392   8.295  13.214   8.280
 1499SOL     OW 6393   0.101   9.841   9.406
 1499SOL    HW1 6394   0.085   9.795   9.489
 1499SOL    HW2 6395   0.194   9.866   9.410
 1500SOL     OW 6396  13.742   3.465   0.537
 1500SOL    HW1 6397  13.836   3.477   0.527
 1500SOL    HW2 6398  13.719   3.513   0.617
 1501SOL     OW 6399   5.417   7.096  11.520
 1501SOL    HW1 6400   5.381   7.014  11.487
 1501SOL    HW2 6401   5.457   7.137  11.443
 1502SOL     OW 6402   2.250   2.653   5.598
 1502SOL    HW1 6403   2.321   2.707   5.562
 1502SOL    HW2 6404   2.283   2.563   5.590
 1503SOL     OW 6405  13.230   0.252   8.462
 1503SOL    HW1 6406  13.197   0.292   8.542
 1503SOL    HW2 6407  13.228   0.158   8.479
 1504SOL     OW 6408   9.812   8.028   7.573
 1504SOL    HW1 6409   9.803   8.043   7.479
 1504SOL    HW2 6410   9.757   8.096   7.613
 1505SOL     OW 6411  14.183   7.591  11.427
 1505SOL    HW1 6412  14.220   7.586  11.338
 1505SOL    HW2 6413  14.106   7.647  11.417
 1506SOL     OW 6414  14.243  10.570  14.148
 1506SOL    HW1 6415  14.160  10.591  14.106
 1506SOL    HW2 6416  14.255  10.476  14.133
 1507SOL     OW 6417   8.399  11.884  12.519
 1507SOL    HW1 6418   8.337  11.938  12.471
 1507SOL    HW2 6419   8.370  11.794  12.504
 1508SOL     OW 6420   1.404   9.995   8.664
 1508SOL    HW1 6421   1.345   9.994   8.589
 1508SOL    HW2 6422   1.356  10.039   8.733
 1509SOL     OW 6423   5.620   4.436   5.669
 1509SOL    HW1 6424   5.550   4.421   5.733
 1509SOL    HW2 6425   5.633   4.350   5.628
 1510SOL     OW 6426   4.177   0.263   6.112
 1510SOL    HW1 6427   4.212   0.341   6.154
 1510SOL    HW2 6428   4.085   0.285   6.093
 1511SOL     OW 6429   9.015  12.889   9.287
 1511SOL    HW1 6430   9.045  12.811   9.334
 1511SOL    HW2 6431   9.054  12.962   9.335
 1512SOL     OW 6432  10.764   4.756   1.290
 1512SOL    HW1 6433  10.702   4.687   1.315
 1512SOL    HW2 6434  10.711   4.817   1.238
 1513SOL     OW 6435   4.258   0.976   4.173
 1513SOL    HW1 6436   4.205   0.896   4.178
 1513SOL    HW2 6437   4.349   0.945   4.174
 1514SOL     OW 6438   6.732   2.127   3.911
 1514SOL    HW1 6439   6.662   2.191   3.922
 1514SOL    HW2 6440   6.693   2.044   3.939
 1515SOL     OW 6441   5.185  14.292   6.975
 1515SOL    HW1 6442   5.220  14.234   6.907
 1515SOL    HW2 6443   5.262  14.318   7.026
 1516SOL     OW 6444   4.518  11.645   8.912
 1516SOL    HW1 6445   4.585  11.629   8.846
 1516SOL    HW2 6446   4.565  11.636   8.995
 1517SOL     OW 6447   3.049   0.533   3.280
 1517SOL    HW1 6448   3.138   0.529   3.245
 1517SOL    HW2 6449   3.004   0.594   3.223
 1518SOL     OW 6450   5.350  10.918  13.588
 1518SOL    HW1 6451   5.286  10.867  13.539
 1518SOL    HW2 6452   5.316  11.008  13.587
 1519SOL     OW 6453   7.430   4.294   9.916
 1519SOL    HW1 6454   7.457   4.258  10.000
 1519SOL    HW2 6455   7.507   4.288   9.861
 1520SOL     OW 6456   1.856  13.610  10.366
 1520SOL    HW1 6457   1.834  13.530  10.318
 1520SOL    HW2 6458   1.937  13.641  10.325
 1521SOL     OW 6459   8.813   3.273  10.220
 1521SOL    HW1 6460   8.897   3.280  10.265
 1521SOL    HW2 6461   8.823   3.328  10.142
 1522SOL     OW 6462  11.859   8.149   7.891
 1522SOL    HW1 6463  11.888   8.077   7.836
 1522SOL    HW2 6464  11.856   8.113   7.979
 1523SOL     OW 6465   3.947   4.809  14.733
 1523SOL    HW1 6466   3.941   4.757  14.653
 1523SOL    HW2 6467   3.866   4.860  14.734
 1524SOL     OW 6468   7.913  10.994   7.727
 1524SOL    HW1 6469   7.846  11.054   7.762
 1524SOL    HW2 6470   7.937  10.939   7.801
 1525SOL     OW 6471   6.752  12.424  13.123
 1525SOL    HW1 6472   6.695  12.395  13.051
 1525SOL    HW2 6473   6.823  12.360  13.125
 1526SOL     OW 6474   0.799   7.216  11.496
 1526SOL    HW1 6475   0.869   7.192  11.435
 1526SOL    HW2 6476   0.842   7.274  11.559
 1527SOL     OW 6477   0.232   6.041  13.862
 1527SOL    HW1 6478   0.316   6.085  13.850
 1527SOL    HW2 6479   0.200   6.025  13.774
 1528SOL     OW 6480   8.451   8.929   5.059
 1528SOL    HW1 6481   8.532   8.879   5.069
 1528SOL    HW2 6482   8.406   8.916   5.143
 1529SOL     OW 6483  11.352   2.363   1.559
 1529SOL    HW1 6484  11.335   2.358   1.465
 1529SOL    HW2 6485  11.292   2.299   1.597
 1530SOL     OW 6486  13.726   2.518  11.370
 1530SOL    HW1 6487  13.805   2.562  11.340
 1530SOL    HW2 6488  13.708   2.451  11.304
 1531SOL     OW 6489   4.919   1.596  13.442
 1531SOL    HW1 6490   4.921   1.691  13.452
 1531SOL    HW2 6491   4.968   1.579  13.362
 1532SOL     OW 6492  12.626   2.708   7.487
 1532SOL    HW1 6493  12.598   2.799   7.478
 1532SOL    HW2 6494  12.715   2.707   7.451
 1533SOL     OW 6495   5.209  10.089   9.117
 1533SOL    HW1 6496   5.224  10.149   9.189
 1533SOL    HW2 6497   5.117  10.105   9.092
 1534SOL     OW 6498   9.030   8.393  11.833
 1534SOL    HW1 6499   8.995   8.308  11.862
 1534SOL    HW2 6500   9.000   8.402  11.743
 1535SOL     OW 6501   7.779   3.420   1.188
 1535SOL    HW1 6502   7.690   3.385   1.185
 1535SOL    HW2 6503   7.823   3.368   1.255
 1536SOL     OW 6504  11.837  11.515   9.825
 1536SOL    HW1 6505  11.772  11.566   9.874
 1536SOL    HW2 6506  11.816  11.532   9.733
 1537SOL     OW 6507   2.684   0.551   7.003
 1537SOL    HW1 6508   2.774   0.583   7.010
 1537SOL    HW2 6509   2.651   0.555   7.093
 1538SOL     OW 6510   0.406  11.650   8.949
 1538SOL    HW1 6511   0.323  11.613   8.917
 1538SOL    HW2 6512   0.451  11.576   8.990
 1539SOL     OW 6513   6.069   9.708  11.806
 1539SOL    HW1 6514   6.086   9.794  11.766
 1539SOL    HW2 6515   6.129   9.649  11.762
 1540SOL     OW 6516   4.462   2.565   9.951
 1540SOL    HW1 6517   4.554   2.540   9.958
 1540SOL    HW2 6518   4.428   2.510   9.880
 1541SOL     OW 6519   4.127   0.366   0.175
 1541SOL    HW1 6520   4.151   0.283   0.218
 1541SOL    HW2 6521   4.182   0.432   0.217
 1542SOL     OW 6522  14.762   4.818  12.273
 1542SOL    HW1 6523  14.840   4.834  12.325
 1542SOL    HW2 6524  14.696   4.791  12.336
 1543SOL     OW 6525   3.989  12.892   6.433
 1543SOL    HW1 6526   4.059  12.836   6.467
 1543SOL    HW2 6527   4.034  12.955   6.376
 1544SOL     OW 6528   1.809   1.104  13.147
 1544SOL    HW1 6529   1.726   1.087  13.192
 1544SOL    HW2 6530   1.857   1.162  13.207
 1545SOL     OW 6531  10.616   5.251   5.097
 1545SOL    HW1 6532  10.643   5.331   5.143
 1545SOL    HW2 6533  10.521   5.248   5.111
 1546SOL     OW 6534   4.467   7.096   4.362
 1546SOL    HW1 6535   4.484   7.012   4.320
 1546SOL    HW2 6536   4.373   7.096   4.380
 1547SOL     OW 6537   8.373   2.183   7.821
 1547SOL    HW1 6538   8.377   2.174   7.725
 1547SOL    HW2 6539   8.280   2.173   7.841
 1548SOL     OW 6540  12.146   7.221   6.800
 1548SOL    HW1 6541  12.241   7.224   6.809
 1548SOL    HW2 6542  12.114   7.182   6.881
 1549SOL     OW 6543   2.374  13.992   8.560
 1549SOL    HW1 6544   2.342  13.979   8.471
 1549SOL    HW2 6545   2.316  14.060   8.596
 1550SOL     OW 6546  13.637   7.454   4.760
 1550SOL    HW1 6547  13.667   7.540   4.732
 1550SOL    HW2 6548  13.616   7.408   4.679
 1551SOL     OW 6549   4.651   6.600   0.949
 1551SOL    HW1 6550   4.723   6.663   0.959
 1551SOL    HW2 6551   4.695   6.516   0.935
 1552SOL     OW 6552   5.243   1.075  11.513
 1552SOL    HW1 6553   5.328   1.119  11.512
 1552SOL    HW2 6554   5.206   1.092  11.427
 1553SOL     OW 6555   1.717   6.587   0.469
 1553SOL    HW1 6556   1.658   6.649   0.512
 1553SOL    HW2 6557   1.755   6.536   0.541
 1554SOL     OW 6558   0.783  12.742  13.146
 1554SOL    HW1 6559   0.790  12.673  13.213
 1554SOL    HW2 6560   0.822  12.704  13.068
 1555SOL     OW 6561   3.428   2.186  13.394
 1555SOL    HW1 6562   3.465   2.165  13.480
 1555SOL    HW2 6563   3.353   2.242  13.414
 1556SOL     OW 6564   1.193   6.528   9.268
 1556SOL    HW1 6565   1.251   6.452   9.269
 1556SOL    HW2 6566   1.195   6.559   9.178
 1557SOL     OW 6567   1.606   6.056   2.092
 1557SOL    HW1 6568   1.557   6.116   2.035
 1557SOL    HW2 6569   1.697   6.083   2.083
 1558SOL     OW 6570  10.765   7.391   3.669
 1558SOL    HW1 6571  10.838   7.333   3.648
 1558SOL    HW2 6572  10.688   7.334   3.671
 1559SOL     OW 6573   9.578   4.717   4.551
 1559SOL    HW1 6574   9.599   4.624   4.537
 1559SOL    HW2 6575   9.486   4.725   4.525
 1560SOL     OW 6576   9.262   4.845   3.995
 1560SOL    HW1 6577   9.328   4.823   3.930
 1560SOL    HW2 6578   9.179   4.832   3.949
 1561SOL     OW 6579   6.950  11.899  12.144
 1561SOL    HW1 6580   6.945  11.899  12.240
 1561SOL    HW2 6581   7.011  11.970  12.123
 1562SOL     OW 6582   8.441   9.507  13.744
 1562SOL    HW1 6583   8.395   9.465  13.671
 1562SOL    HW2 6584   8.534   9.499  13.723
 1563SOL     OW 6585   8.286   7.059   0.024
 1563SOL    HW1 6586   8.253   7.110   0.098
 1563SOL    HW2 6587   8.271   6.968   0.050
 1564SOL     OW 6588   1.858  10.743   1.040
 1564SOL    HW1 6589   1.778  10.757   0.990
 1564SOL    HW2 6590   1.903  10.671   0.997
 1565SOL     OW 6591   0.739   7.445   6.880
 1565SOL    HW1 6592   0.718   7.382   6.811
 1565SOL    HW2 6593   0.668   7.436   6.943
 1566SOL     OW 6594   8.505   6.244   6.051
 1566SOL    HW1 6595   8.501   6.192   5.971
 1566SOL    HW2 6596   8.511   6.180   6.122
 1567SOL     OW 6597   4.928   4.299   4.071
 1567SOL    HW1 6598   4.979   4.310   4.151
 1567SOL    HW2 6599   4.889   4.212   4.078
 1568SOL     OW 6600   3.789  11.678  11.008
 1568SOL    HW1 6601   3.731  11.617  11.054
 1568SOL    HW2 6602   3.876  11.638  11.014
 1569SOL     OW 6603   4.292   1.732  14.631
 1569SOL    HW1 6604   4.230   1.786  14.583
 1569SOL    HW2 6605   4.261   1.736  14.722
 1570SOL     OW 6606   7.542   5.775   2.955
 1570SOL    HW1 6607   7.571   5.712   2.889
 1570SOL    HW2 6608   7.613   5.778   3.019
 1571SOL     OW 6609  10.261   9.638  10.395
 1571SOL    HW1 6610  10.277   9.603  10.307
 1571SOL    HW2 6611  10.169   9.619  10.413
 1572SOL     OW 6612  11.336   3.685   3.105
 1572SOL    HW1 6613  11.365   3.692   3.014
 1572SOL    HW2 6614  11.269   3.753   3.114
 1573SOL     OW 6615  11.182   7.206   2.937
 1573SOL    HW1 6616  11.267   7.166   2.957
 1573SOL    HW2 6617  11.121   7.132   2.937
 1574SOL     OW 6618   1.359   7.399  11.601
 1574SOL    HW1 6619   1.375   7.312  11.637
 1574SOL    HW2 6620   1.441   7.423  11.558
 1575SOL     OW 6621   3.296   5.432   8.273
 1575SOL    HW1 6622   3.304   5.440   8.178
 1575SOL    HW2 6623   3.347   5.504   8.309
 1576SOL     OW 6624   6.579  12.368   1.780
 1576SOL    HW1 6625   6.494  12.325   1.795
 1576SOL    HW2 6626   6.616  12.377   1.867
 1577SOL     OW 6627   0.336   5.019  10.463
 1577SOL    HW1 6628   0.305   5.106  10.488
 1577SOL    HW2 6629   0.335   4.969  10.545
 1578SOL     OW 6630   7.609  11.544  10.902
 1578SOL    HW1 6631   7.610  11.456  10.864
 1578SOL    HW2 6632   7.607  11.530  10.996
 1579SOL     OW 6633  14.858   6.241   5.942
 1579SOL    HW1 6634   0.062   6.294   5.941
 1579SOL    HW2 6635  14.858   6.196   5.857
 1580SOL     OW 6636   4.668   1.610  11.092
 1580SOL    HW1 6637   4.743   1.668  11.087
 1580SOL    HW2 6638   4.704   1.525  11.118
 1581SOL     OW 6639  13.733   4.778   1.654
 1581SOL    HW1 6640  13.802   4.719   1.684
 1581SOL    HW2 6641  13.709   4.745   1.567
 1582SOL     OW 6642  12.939  14.678  14.516
 1582SOL    HW1 6643  12.958  14.589  14.545
 1582SOL    HW2 6644  13.020  14.707  14.473
 1583SOL     OW 6645   1.365  14.522   9.634
 1583SOL    HW1 6646   1.284  14.525   9.584
 1583SOL    HW2 6647   1.398  14.433   9.621
 1584SOL     OW 6648   3.656  10.636  14.446
 1584SOL    HW1 6649   3.736  10.688  14.441
 1584SOL    HW2 6650   3.668  10.567  14.381
 1585SOL     OW 6651  13.436  14.282   2.230
 1585SOL    HW1 6652  13.375  14.233   2.285
 1585SOL    HW2 6653  13.520  14.237   2.241
 1586SOL     OW 6654   6.866   3.665   2.633
 1586SOL    HW1 6655   6.962   3.659   2.633
 1586SOL    HW2 6656   6.837   3.590   2.581
 1587SOL     OW 6657  14.352   7.577  11.648
 1587SOL    HW1 6658  14.295   7.515  11.693
 1587SOL    HW2 6659  14.309   7.592  11.564
 1588SOL     OW 6660   5.137  13.343   7.620
 1588SOL    HW1 6661   5.080  13.270   7.595
 1588SOL    HW2 6662   5.109  13.416   7.565
 1589SOL     OW 6663   4.857  13.284   1.024
 1589SOL    HW1 6664   4.841  13.230   0.947
 1589SOL    HW2 6665   4.797  13.358   1.014
 1590SOL     OW 6666  14.372   5.747   5.339
 1590SOL    HW1 6667  14.335   5.819   5.288
 1590SOL    HW2 6668  14.323   5.748   5.421
 1591SOL     OW 6669  13.822  11.371   6.700
 1591SOL    HW1 6670  13.791  11.449   6.746
 1591SOL    HW2 6671  13.909  11.395   6.668
 1592SOL     OW 6672   6.513   6.359  11.380
 1592SOL    HW1 6673   6.540   6.357  11.472
 1592SOL    HW2 6674   6.436   6.302  11.376
 1593SOL     OW 6675   8.848   6.750   8.782
 1593SOL    HW1 6676   8.871   6.784   8.869
 1593SOL    HW2 6677   8.856   6.655   8.790
 1594SOL     OW 6678  14.682   1.311   3.636
 1594SOL    HW1 6679  14.625   1.251   3.684
 1594SOL    HW2 6680  14.756   1.326   3.695
 1595SOL     OW 6681   3.123   1.689   0.703
 1595SOL    HW1 6682   3.051   1.688   0.640
 1595SOL    HW2 6683   3.082   1.670   0.787
 1596SOL     OW 6684  11.234  14.261   2.562
 1596SOL    HW1 6685  11.257  14.202   2.634
 1596SOL    HW2 6686  11.256  14.212   2.483
 1597SOL     OW 6687  14.745  10.598   8.476
 1597SOL    HW1 6688  14.762  10.677   8.424
 1597SOL    HW2 6689  14.751  10.628   8.567
 1598SOL     OW 6690  12.518   7.122   2.377
 1598SOL    HW1 6691  12.527   7.040   2.426
 1598SOL    HW2 6692  12.433   7.115   2.334
 1599SOL     OW 6693  12.031  13.577   2.486
 1599SOL    HW1 6694  11.990  13.511   2.429
 1599SOL    HW2 6695  12.111  13.535   2.518
 1600SOL     OW 6696  10.744   6.169   4.242
 1600SOL    HW1 6697  10.838   6.150   4.245
 1600SOL    HW2 6698  10.704   6.091   4.204
 1601SOL     OW 6699  13.861   5.844  13.804
 1601SOL    HW1 6700  13.941   5.895  13.791
 1601SOL    HW2 6701  13.790   5.909  13.803
 1602SOL     OW 6702  12.854  14.446  13.485
 1602SOL    HW1 6703  12.846  14.352  13.497
 1602SOL    HW2 6704  12.819  14.483  13.566
 1603SOL     OW 6705  13.917  13.630   6.149
 1603SOL    HW1 6706  13.915  13.705   6.208
 1603SOL    HW2 6707  13.924  13.669   6.062
 1604SOL     OW 6708   1.974  12.816   6.216
 1604SOL    HW1 6709   2.061  12.794   6.182
 1604SOL    HW2 6710   1.956  12.750   6.282
 1605SOL     OW 6711   4.792   5.513   7.254
 1605SOL    HW1 6712   4.776   5.595   7.207
 1605SOL    HW2 6713   4.705   5.486   7.285
 1606SOL     OW 6714   6.512  10.610   1.700
 1606SOL    HW1 6715   6.455  10.585   1.773
 1606SOL    HW2 6716   6.541  10.699   1.721
 1607SOL     OW 6717   0.538  11.981   2.897
 1607SOL    HW1 6718   0.454  11.937   2.911
 1607SOL    HW2 6719   0.587  11.921   2.840
 1608SOL     OW 6720   4.173   7.275   8.803
 1608SOL    HW1 6721   4.127   7.220   8.867
 1608SOL    HW2 6722   4.103   7.307   8.746
 1609SOL     OW 6723   5.951   0.626   9.246
 1609SOL    HW1 6724   6.040   0.605   9.220
 1609SOL    HW2 6725   5.959   0.652   9.338
 1610SOL     OW 6726  13.707  10.148  13.769
 1610SOL    HW1 6727  13.728  10.211  13.837
 1610SOL    HW2 6728  13.728  10.193  13.687
 1611SOL     OW 6729  14.296   9.099   2.004
 1611SOL    HW1 6730  14.305   9.173   1.943
 1611SOL    HW2 6731  14.281   9.140   2.089
 1612SOL     OW 6732   6.721   3.492   9.961
 1612SOL    HW1 6733   6.759   3.553  10.024
 1612SOL    HW2 6734   6.626   3.508   9.965
 1613SOL     OW 6735  11.339  12.917   5.725
 1613SOL    HW1 6736  11.301  12.985   5.780
 1613SOL    HW2 6737  11.354  12.959   5.640
 1614SOL     OW 6738   9.199   4.001  10.875
 1614SOL    HW1 6739   9.173   4.092  10.862
 1614SOL    HW2 6740   9.132   3.965  10.933
 1615SOL     OW 6741  12.693   8.156  12.093
 1615SOL    HW1 6742  12.600   8.166  12.111
 1615SOL    HW2 6743  12.736   8.190  12.172
 1616SOL     OW 6744   7.454   1.647   3.449
 1616SOL    HW1 6745   7.479   1.681   3.363
 1616SOL    HW2 6746   7.376   1.594   3.433
 1617SOL     OW 6747   8.604   9.431   7.249
 1617SOL    HW1 6748   8.624   9.521   7.275
 1617SOL    HW2 6749   8.644   9.423   7.162
 1618SOL     OW 6750   2.766   5.249   6.381
 1618SOL    HW1 6751   2.793   5.341   6.374
 1618SOL    HW2 6752   2.696   5.239   6.316
 1619SOL     OW 6753  13.109   6.059   0.746
 1619SOL    HW1 6754  13.117   5.980   0.799
 1619SOL    HW2 6755  13.176   6.048   0.678
 1620SOL     OW 6756   4.412  14.748  13.429
 1620SOL    HW1 6757   4.422  14.830  13.381
 1620SOL    HW2 6758   4.487  14.695  13.402
 1621SOL     OW 6759   7.133   6.091  11.225
 1621SOL    HW1 6760   7.059   6.145  11.195
 1621SOL    HW2 6761   7.160   6.132  11.308
 1622SOL     OW 6762   2.752   4.552   3.271
 1622SOL    HW1 6763   2.668   4.525   3.234
 1622SOL    HW2 6764   2.734   4.636   3.313
 1623SOL     OW 6765   2.727  13.558   2.548
 1623SOL    HW1 6766   2.702  13.571   2.639
 1623SOL    HW2 6767   2.707  13.642   2.506
 1624SOL     OW 6768   8.769  14.521   4.893
 1624SOL    HW1 6769   8.814  14.593   4.937
 1624SOL    HW2 6770   8.783  14.538   4.799
 1625SOL     OW 6771  13.563   2.192  10.918
 1625SOL    HW1 6772  13.494   2.189  10.984
 1625SOL    HW2 6773  13.627   2.127  10.946
 1626SOL     OW 6774   0.274  12.553   2.141
 1626SOL    HW1 6775   0.206  12.571   2.076
 1626SOL    HW2 6776   0.255  12.463   2.170
 1627SOL     OW 6777   9.877   3.733   4.678
 1627SOL    HW1 6778   9.909   3.788   4.750
 1627SOL    HW2 6779   9.789   3.767   4.660
 1628SOL     OW 6780   5.624   7.121   3.464
 1628SOL    HW1 6781   5.709   7.079   3.475
 1628SOL    HW2 6782   5.644   7.206   3.426
 1629SOL     OW 6783   0.916  10.120  11.870
 1629SOL    HW1 6784   0.989  10.099  11.929
 1629SOL    HW2 6785   0.916  10.215  11.865
 1630SOL     OW 6786   8.452   3.098   1.315
 1630SOL    HW1 6787   8.456   3.087   1.220
 1630SOL    HW2 6788   8.477   3.013   1.350
 1631SOL     OW 6789   2.907   6.077   3.299
 1631SOL    HW1 6790   2.871   6.137   3.365
 1631SOL    HW2 6791   2.871   5.991   3.323
 1632SOL     OW 6792   9.371  13.166   5.814
 1632SOL    HW1 6793   9.427  13.213   5.876
 1632SOL    HW2 6794   9.359  13.079   5.854
 1633SOL     OW 6795   4.562   7.026  13.190
 1633SOL    HW1 6796   4.651   7.046  13.162
 1633SOL    HW2 6797   4.564   7.035  13.286
 1634SOL     OW 6798  14.728   1.781   0.172
 1634SOL    HW1 6799  14.808   1.833   0.167
 1634SOL    HW2 6800  14.657   1.846   0.176
 1635SOL     OW 6801   2.029   4.783   8.463
 1635SOL    HW1 6802   1.972   4.716   8.425
 1635SOL    HW2 6803   2.012   4.862   8.412
 1636SOL     OW 6804  13.231  14.655   6.262
 1636SOL    HW1 6805  13.140  14.663   6.289
 1636SOL    HW2 6806  13.232  14.678   6.170
 1637SOL     OW 6807   9.191   8.523   6.194
 1637SOL    HW1 6808   9.239   8.596   6.232
 1637SOL    HW2 6809   9.109   8.562   6.163
 1638SOL     OW 6810  13.062   1.555   2.095
 1638SOL    HW1 6811  13.085   1.549   2.002
 1638SOL    HW2 6812  12.993   1.622   2.098
 1639SOL     OW 6813  10.188  13.971   1.799
 1639SOL    HW1 6814  10.112  14.029   1.804
 1639SOL    HW2 6815  10.239  13.992   1.877
 1640SOL     OW 6816   9.004  12.337   5.292
 1640SOL    HW1 6817   8.973  12.424   5.267
 1640SOL    HW2 6818   9.099  12.343   5.283
 1641SOL     OW 6819   4.456  10.710   5.588
 1641SOL    HW1 6820   4.427  10.674   5.671
 1641SOL    HW2 6821   4.541  10.669   5.572
 1642SOL     OW 6822   5.976   4.784  12.125
 1642SOL    HW1 6823   6.021   4.857  12.166
 1642SOL    HW2 6824   5.886   4.815  12.111
 1643SOL     OW 6825   8.763   3.724  13.468
 1643SOL    HW1 6826   8.836   3.764  13.421
 1643SOL    HW2 6827   8.798   3.704  13.555
 1644SOL     OW 6828  13.789  11.034   8.194
 1644SOL    HW1 6829  13.792  11.130   8.194
 1644SOL    HW2 6830  13.821  11.010   8.281
 1645SOL     OW 6831   6.416   5.250   8.764
 1645SOL    HW1 6832   6.405   5.265   8.858
 1645SOL    HW2 6833   6.328   5.259   8.727
 1646SOL     OW 6834  12.314  14.451  12.036
 1646SOL    HW1 6835  12.352  14.389  11.973
 1646SOL    HW2 6836  12.301  14.399  12.115
 1647SOL     OW 6837   7.409   1.735   9.838
 1647SOL    HW1 6838   7.369   1.822   9.841
 1647SOL    HW2 6839   7.347   1.682   9.788
 1648SOL     OW 6840   7.177  11.892   6.045
 1648SOL    HW1 6841   7.150  11.909   6.135
 1648SOL    HW2 6842   7.095  11.880   5.997
 1649SOL     OW 6843  12.094   3.349   8.931
 1649SOL    HW1 6844  12.010   3.389   8.952
 1649SOL    HW2 6845  12.114   3.295   9.007
 1650SOL     OW 6846  10.808  11.080   1.363
 1650SOL    HW1 6847  10.810  11.009   1.299
 1650SOL    HW2 6848  10.805  11.160   1.310
 1651SOL     OW 6849   0.933   0.268   5.533
 1651SOL    HW1 6850   0.867   0.199   5.538
 1651SOL    HW2 6851   0.915   0.324   5.608
 1652SOL     OW 6852  13.870   5.801   5.586
 1652SOL    HW1 6853  13.942   5.765   5.637
 1652SOL    HW2 6854  13.880   5.761   5.499
 1653SOL     OW 6855  11.575   6.049   7.665
 1653SOL    HW1 6856  11.493   6.060   7.616
 1653SOL    HW2 6857  11.608   5.964   7.638
 1654SOL     OW 6858   4.105  12.297   8.755
 1654SOL    HW1 6859   4.124  12.316   8.663
 1654SOL    HW2 6860   4.047  12.221   8.752
 1655SOL     OW 6861  10.743  14.650   5.012
 1655SOL    HW1 6862  10.776  14.663   5.101
 1655SOL    HW2 6863  10.796  14.709   4.959
 1656SOL     OW 6864   5.227  14.139   8.867
 1656SOL    HW1 6865   5.167  14.163   8.938
 1656SOL    HW2 6866   5.250  14.222   8.825
 1657SOL     OW 6867   3.334   7.384   8.551
 1657SOL    HW1 6868   3.281   7.305   8.560
 1657SOL    HW2 6869   3.414   7.366   8.601
 1658SOL     OW 6870   0.282   2.480   7.421
 1658SOL    HW1 6871   0.186   2.477   7.415
 1658SOL    HW2 6872   0.312   2.407   7.367
 1659SOL     OW 6873   5.345   6.951  12.546
 1659SOL    HW1 6874   5.407   6.993  12.606
 1659SOL    HW2 6875   5.307   7.024  12.497
 1660SOL     OW 6876  10.066   8.493   6.594
 1660SOL    HW1 6877  10.113   8.573   6.572
 1660SOL    HW2 6878  10.036   8.507   6.684
 1661SOL     OW 6879   6.754   8.471  14.078
 1661SOL    HW1 6880   6.738   8.566  14.078
 1661SOL    HW2 6881   6.694   8.436  14.012
 1662SOL     OW 6882   4.244   3.114  10.604
 1662SOL    HW1 6883   4.293   3.188  10.569
 1662SOL    HW2 6884   4.310   3.063  10.651
 1663SOL     OW 6885   5.768   1.834  14.118
 1663SOL    HW1 6886   5.719   1.865  14.194
 1663SOL    HW2 6887   5.711   1.771  14.076
 1664SOL     OW 6888  11.221  10.182  11.300
 1664SOL    HW1 6889  11.169  10.102  11.313
 1664SOL    HW2 6890  11.278  10.161  11.226
 1665SOL     OW 6891   8.439  14.563   7.810
 1665SOL    HW1 6892   8.407  14.475   7.789
 1665SOL    HW2 6893   8.427  14.613   7.729
 1666SOL     OW 6894   4.700  12.464  10.488
 1666SOL    HW1 6895   4.680  12.389  10.431
 1666SOL    HW2 6896   4.615  12.502  10.508
 1667SOL     OW 6897   6.160   8.682   7.619
 1667SOL    HW1 6898   6.227   8.675   7.686
 1667SOL    HW2 6899   6.159   8.774   7.595
 1668SOL     OW 6900   0.893   4.427   7.807
 1668SOL    HW1 6901   0.825   4.430   7.874
 1668SOL    HW2 6902   0.958   4.490   7.836
 1669SOL     OW 6903   1.713   1.726  13.471
 1669SOL    HW1 6904   1.636   1.708  13.416
 1669SOL    HW2 6905   1.708   1.821  13.487
 1670SOL     OW 6906  13.399   0.886   8.868
 1670SOL    HW1 6907  13.418   0.960   8.926
 1670SOL    HW2 6908  13.485   0.855   8.839
 1671SOL     OW 6909   0.291   5.936   6.939
 1671SOL    HW1 6910   0.315   5.895   6.855
 1671SOL    HW2 6911   0.375   5.947   6.984
 1672SOL     OW 6912   9.879  12.839   0.563
 1672SOL    HW1 6913   9.935  12.766   0.534
 1672SOL    HW2 6914   9.791  12.802   0.564
 1673SOL     OW 6915   1.480   9.819   5.650
 1673SOL    HW1 6916   1.556   9.764   5.629
 1673SOL    HW2 6917   1.483   9.890   5.586
 1674SOL     OW 6918   0.181   0.169   6.335
 1674SOL    HW1 6919   0.172   0.152   6.241
 1674SOL    HW2 6920   0.181   0.082   6.375
 1675SOL     OW 6921   6.707   5.127   4.176
 1675SOL    HW1 6922   6.731   5.204   4.124
 1675SOL    HW2 6923   6.663   5.163   4.253
 1676SOL     OW 6924   8.911   3.335   8.225
 1676SOL    HW1 6925   8.892   3.374   8.311
 1676SOL    HW2 6926   8.905   3.241   8.239
 1677SOL     OW 6927   6.679  10.131  13.615
 1677SOL    HW1 6928   6.773  10.114  13.609
 1677SOL    HW2 6929   6.669  10.186  13.693
 1678SOL     OW 6930   2.807  13.295   2.408
 1678SOL    HW1 6931   2.779  13.376   2.450
 1678SOL    HW2 6932   2.881  13.321   2.353
 1679SOL     OW 6933   5.575   5.915   2.154
 1679SOL    HW1 6934   5.592   5.833   2.200
 1679SOL    HW2 6935   5.494   5.949   2.194
 1680SOL     OW 6936  14.630   0.642   9.953
 1680SOL    HW1 6937  14.558   0.583   9.976
 1680SOL    HW2 6938  14.631   0.643   9.857
 1681SOL     OW 6939   5.616   6.147  11.974
 1681SOL    HW1 6940   5.549   6.134  12.042
 1681SOL    HW2 6941   5.676   6.212  12.012
 1682SOL     OW 6942   2.063   1.562   1.007
 1682SOL    HW1 6943   2.035   1.548   0.916
 1682SOL    HW2 6944   2.000   1.627   1.041
 1683SOL     OW 6945   0.895   6.390  11.550
 1683SOL    HW1 6946   0.977   6.438  11.539
 1683SOL    HW2 6947   0.847   6.407  11.469
 1684SOL     OW 6948  10.331   2.462   6.948
 1684SOL    HW1 6949  10.286   2.532   6.900
 1684SOL    HW2 6950  10.424   2.483   6.940
 1685SOL     OW 6951   9.346  13.822   1.920
 1685SOL    HW1 6952   9.342  13.726   1.914
 1685SOL    HW2 6953   9.279  13.844   1.985
 1686SOL     OW 6954  11.389  10.427   4.460
 1686SOL    HW1 6955  11.311  10.404   4.410
 1686SOL    HW2 6956  11.362  10.420   4.551
 1687SOL     OW 6957  12.804   0.249  11.103
 1687SOL    HW1 6958  12.778   0.243  11.011
 1687SOL    HW2 6959  12.900   0.249  11.101
 1688SOL     OW 6960  10.242   0.343   1.494
 1688SOL    HW1 6961  10.298   0.337   1.571
 1688SOL    HW2 6962  10.303   0.352   1.421
 1689SOL     OW 6963  14.182   2.643  12.791
 1689SOL    HW1 6964  14.099   2.628  12.837
 1689SOL    HW2 6965  14.234   2.565  12.810
 1690SOL     OW 6966  10.663   7.089  11.595
 1690SOL    HW1 6967  10.603   7.163  11.587
 1690SOL    HW2 6968  10.611   7.013  11.566
 1691SOL     OW 6969   8.489  10.151   1.085
 1691SOL    HW1 6970   8.517  10.200   1.008
 1691SOL    HW2 6971   8.533  10.195   1.158
 1692SOL     OW 6972   1.640  13.800   0.409
 1692SOL    HW1 6973   1.601  13.722   0.369
 1692SOL    HW2 6974   1.733  13.777   0.420
 1693SOL     OW 6975  10.123   4.831   8.803
 1693SOL    HW1 6976  10.128   4.764   8.872
 1693SOL    HW2 6977  10.066   4.793   8.737
 1694SOL     OW 6978  12.017  12.985   4.947
 1694SOL    HW1 6979  11.992  13.040   4.873
 1694SOL    HW2 6980  12.094  12.937   4.917
 1695SOL     OW 6981   2.701   1.181   5.255
 1695SOL    HW1 6982   2.605   1.181   5.247
 1695SOL    HW2 6983   2.718   1.119   5.326
 1696SOL     OW 6984  10.258   6.385   2.536
 1696SOL    HW1 6985  10.183   6.383   2.595
 1696SOL    HW2 6986  10.270   6.294   2.509
 1697SOL     OW 6987   4.929   3.245  10.539
 1697SOL    HW1 6988   4.923   3.274  10.630
 1697SOL    HW2 6989   5.009   3.286  10.506
 1698SOL     OW 6990   2.810   0.709  11.886
 1698SOL    HW1 6991   2.775   0.744  11.968
 1698SOL    HW2 6992   2.740   0.654  11.852
 1699SOL     OW 6993   8.903  14.619  10.850
 1699SOL    HW1 6994   8.923  14.532  10.815
 1699SOL    HW2 6995   8.837  14.653  10.791
 1700SOL     OW 6996   5.255   6.825   5.063
 1700SOL    HW1 6997   5.191   6.794   5.000
 1700SOL    HW2 6998   5.301   6.747   5.092
 1701SOL     OW 6999  12.234  10.287  14.017
 1701SOL    HW1 7000  12.140  10.303  14.013
 1701SOL    HW2 7001  12.252  10.232  13.941
 1702SOL     OW 7002   4.062   1.996  10.502
 1702SOL    HW1 7003   4.066   2.087  10.532
 1702SOL    HW2 7004   4.108   1.947  10.570
 1703SOL     OW 7005  11.939   0.727   1.034
 1703SOL    HW1 7006  11.899   0.702   1.118
 1703SOL    HW2 7007  11.891   0.676   0.969
 1704SOL     OW 7008  10.326   0.825   4.787
 1704SOL    HW1 7009  10.294   0.819   4.877
 1704SOL    HW2 7010  10.389   0.752   4.779
 1705SOL     OW 7011  13.580   2.449  12.880
 1705SOL    HW1 7012  13.669   2.428  12.906
 1705SOL    HW2 7013  13.551   2.513  12.945
 1706SOL     OW 7014  11.136  12.188   9.489
 1706SOL    HW1 7015  11.148  12.262   9.549
 1706SOL    HW2 7016  11.121  12.229   9.403
 1707SOL     OW 7017   5.985   3.956  12.782
 1707SOL    HW1 7018   5.931   3.904  12.723
 1707SOL    HW2 7019   5.938   4.038  12.792
 1708SOL     OW 7020  14.683   8.575   6.300
 1708SOL    HW1 7021  14.671   8.613   6.387
 1708SOL    HW2 7022  14.597   8.539   6.277
 1709SOL     OW 7023  11.272   2.596  12.671
 1709SOL    HW1 7024  11.246   2.506  12.653
 1709SOL    HW2 7025  11.198   2.649  12.640
 1710SOL     OW 7026   3.424   4.182   3.343
 1710SOL    HW1 7027   3.345   4.128   3.356
 1710SOL    HW2 7028   3.416   4.252   3.408
 1711SOL     OW 7029   4.696  11.580   8.711
 1711SOL    HW1 7030   4.646  11.539   8.640
 1711SOL    HW2 7031   4.781  11.599   8.672
 1712SOL     OW 7032   8.124  12.758   4.968
 1712SOL    HW1 7033   8.134  12.663   4.965
 1712SOL    HW2 7034   8.163  12.789   4.887
 1713SOL     OW 7035  11.528  11.211  13.398
 1713SOL    HW1 7036  11.519  11.252  13.484
 1713SOL    HW2 7037  11.605  11.154  13.407
 1714SOL     OW 7038   1.750   6.701  14.039
 1714SOL    HW1 7039   1.683   6.668  14.099
 1714SOL    HW2 7040   1.828   6.650  14.061
 1715SOL     OW 7041  12.155   2.410  12.743
 1715SOL    HW1 7042  12.208   2.386  12.820
 1715SOL    HW2 7043  12.219   2.426  12.674
 1716SOL     OW 7044  10.835   9.475  12.592
 1716SOL    HW1 7045  10.826   9.568  12.612
 1716SOL    HW2 7046  10.823   9.431  12.676
 1717SOL     OW 7047   4.452  11.980  11.724
 1717SOL    HW1 7048   4.367  11.957  11.688
 1717SOL    HW2 7049   4.489  11.897  11.754
 1718SOL     OW 7050   4.214  14.232   1.919
 1718SOL    HW1 7051   4.178  14.298   1.979
 1718SOL    HW2 7052   4.188  14.148   1.957
 1719SOL     OW 7053  12.562   3.591   6.887
 1719SOL    HW1 7054  12.533   3.624   6.802
 1719SOL    HW2 7055  12.618   3.660   6.921
 1720SOL     OW 7056   2.650   8.673   8.062
 1720SOL    HW1 7057   2.640   8.588   8.105
 1720SOL    HW2 7058   2.737   8.670   8.023
 1721SOL     OW 7059   3.445   8.021   0.998
 1721SOL    HW1 7060   3.525   7.969   1.002
 1721SOL    HW2 7061   3.376   7.960   1.024
 1722SOL     OW 7062   1.445   9.152  10.894
 1722SOL    HW1 7063   1.441   9.067  10.937
 1722SOL    HW2 7064   1.520   9.145  10.834
 1723SOL     OW 7065  14.348  10.333   6.417
 1723SOL    HW1 7066  14.409  10.277   6.464
 1723SOL    HW2 7067  14.343  10.294   6.329
 1724SOL     OW 7068   1.528  14.379   1.935
 1724SOL    HW1 7069   1.610  14.331   1.943
 1724SOL    HW2 7070   1.517  14.392   1.840
 1725SOL     OW 7071  11.824   7.750   4.874
 1725SOL    HW1 7072  11.886   7.804   4.824
 1725SOL    HW2 7073  11.815   7.796   4.957
 1726SOL     OW 7074  11.793   4.538   5.164
 1726SOL    HW1 7075  11.741   4.480   5.219
 1726SOL    HW2 7076  11.882   4.502   5.168
 1727SOL     OW 7077  11.353   9.807  10.750
 1727SOL    HW1 7078  11.323   9.781  10.837
 1727SOL    HW2 7079  11.274   9.810  10.696
 1728SOL     OW 7080   5.300   8.125   2.817
 1728SOL    HW1 7081   5.301   8.079   2.733
 1728SOL    HW2 7082   5.323   8.215   2.795
 1729SOL     OW 7083  14.824   2.210   1.328
 1729SOL    HW1 7084  14.849   2.216   1.236
 1729SOL    HW2 7085   0.004   2.274   1.373
 1730SOL     OW 7086  12.597   8.835  14.689
 1730SOL    HW1 7087  12.541   8.764  14.656
 1730SOL    HW2 7088  12.644   8.867  14.612
 1731SOL     OW 7089  11.023   8.371  11.377
 1731SOL    HW1 7090  10.990   8.305  11.438
 1731SOL    HW2 7091  11.014   8.330  11.291
 1732SOL     OW 7092   3.873  10.802  14.543
 1732SOL    HW1 7093   3.883  10.716  14.583
 1732SOL    HW2 7094   3.931  10.859  14.593
 1733SOL     OW 7095   2.522  13.649   8.138
 1733SOL    HW1 7096   2.499  13.629   8.229
 1733SOL    HW2 7097   2.510  13.744   8.131
 1734SOL     OW 7098   4.325   3.708  10.472
 1734SOL    HW1 7099   4.287   3.630  10.430
 1734SOL    HW2 7100   4.311   3.778  10.409
 1735SOL     OW 7101  12.393  10.426   5.582
 1735SOL    HW1 7102  12.311  10.431   5.631
 1735SOL    HW2 7103  12.426  10.516   5.581
 1736SOL     OW 7104  11.156   2.986  12.104
 1736SOL    HW1 7105  11.209   2.955  12.177
 1736SOL    HW2 7106  11.067   2.963  12.128
 1737SOL     OW 7107   9.379   4.146  11.126
 1737SOL    HW1 7108   9.328   4.174  11.050
 1737SOL    HW2 7109   9.363   4.214  11.192
 1738SOL     OW 7110   3.743  10.901   5.822
 1738SOL    HW1 7111   3.717  10.835   5.886
 1738SOL    HW2 7112   3.661  10.926   5.780
 1739SOL     OW 7113   4.925  14.037  12.951
 1739SOL    HW1 7114   4.960  14.062  12.865
 1739SOL    HW2 7115   4.955  13.946  12.963
 1740SOL     OW 7116  13.320  12.241   3.988
 1740SOL    HW1 7117  13.237  12.227   4.034
 1740SOL    HW2 7118  13.330  12.337   3.986
 1741SOL     OW 7119  12.774   7.084   8.833
 1741SOL    HW1 7120  12.804   7.161   8.882
 1741SOL    HW2 7121  12.682   7.102   8.813
 1742SOL     OW 7122   7.503   1.554   6.673
 1742SOL    HW1 7123   7.534   1.538   6.763
 1742SOL    HW2 7124   7.519   1.648   6.659
 1743SOL     OW 7125  10.588  11.657   6.301
 1743SOL    HW1 7126  10.676  11.687   6.279
 1743SOL    HW2 7127  10.535  11.681   6.225
 1744SOL     OW 7128   6.005  13.954   5.797
 1744SOL    HW1 7129   5.972  13.988   5.880
 1744SOL    HW2 7130   6.100  13.955   5.807
 1745SOL     OW 7131   2.625   5.083  10.030
 1745SOL    HW1 7132   2.699   5.109  10.083
 1745SOL    HW2 7133   2.560   5.051  10.092
 1746SOL     OW 7134   2.633   4.624  12.782
 1746SOL    HW1 7135   2.722   4.659  12.781
 1746SOL    HW2 7136   2.598   4.648  12.868
 1747SOL     OW 7137   2.985  12.523   4.323
 1747SOL    HW1 7138   2.910  12.507   4.379
 1747SOL    HW2 7139   2.984  12.451   4.260
 1748SOL     OW 7140  11.208  13.024   6.353
 1748SOL    HW1 7141  11.120  13.028   6.315
 1748SOL    HW2 7142  11.255  12.962   6.298
 1749SOL     OW 7143   6.180  11.687   4.975
 1749SOL    HW1 7144   6.259  11.633   4.980
 1749SOL    HW2 7145   6.211  11.776   4.964
 1750SOL     OW 7146  10.781  11.317   3.483
 1750SOL    HW1 7147  10.815  11.357   3.403
 1750SOL    HW2 7148  10.763  11.226   3.458
 1751SOL     OW 7149   5.046   6.579  14.831
 1751SOL    HW1 7150   5.137   6.548  14.827
 1751SOL    HW2 7151   5.053   6.674  14.818
 1752SOL     OW 7152   1.784  14.713   3.243
 1752SOL    HW1 7153   1.874  14.697   3.274
 1752SOL    HW2 7154   1.735  14.733   3.322
 1753SOL     OW 7155   7.055   2.775  14.750
 1753SOL    HW1 7156   7.088   2.804  14.836
 1753SOL    HW2 7157   6.997   2.846  14.722
 1754SOL     OW 7158   1.824   3.285  13.879
 1754SOL    HW1 7159   1.816   3.212  13.940
 1754SOL    HW2 7160   1.743   3.335  13.890
 1755SOL     OW 7161   8.462   1.591   2.747
 1755SOL    HW1 7162   8.504   1.538   2.814
 1755SOL    HW2 7163   8.534   1.635   2.702
 1756SOL     OW 7164   4.143  10.902  14.060
 1756SOL    HW1 7165   4.212  10.844  14.090
 1756SOL    HW2 7166   4.093  10.923  14.139
 1757SOL     OW 7167   7.777  12.256   5.750
 1757SOL    HW1 7168   7.794  12.162   5.744
 1757SOL    HW2 7169   7.857  12.298   5.718
 1758SOL     OW 7170   9.282   3.860   8.432
 1758SOL    HW1 7171   9.264   3.795   8.499
 1758SOL    HW2 7172   9.280   3.944   8.478
 1759SOL     OW 7173   4.738   8.188  12.194
 1759SOL    HW1 7174   4.787   8.166  12.115
 1759SOL    HW2 7175   4.658   8.229  12.162
 1760SOL     OW 7176  13.278  11.227  10.611
 1760SOL    HW1 7177  13.359  11.198  10.654
 1760SOL    HW2 7178  13.276  11.180  10.528
 1761SOL     OW 7179   6.175   6.414   4.021
 1761SOL    HW1 7180   6.203   6.412   4.113
 1761SOL    HW2 7181   6.156   6.507   4.004
 1762SOL     OW 7182  13.299   4.693   8.537
 1762SOL    HW1 7183  13.299   4.693   8.442
 1762SOL    HW2 7184  13.384   4.658   8.562
 1763SOL     OW 7185   8.349  10.140  14.397
 1763SOL    HW1 7186   8.421  10.151  14.335
 1763SOL    HW2 7187   8.322  10.048  14.386
 1764SOL     OW 7188   5.932  12.070  12.898
 1764SOL    HW1 7189   5.921  12.080  12.803
 1764SOL    HW2 7190   5.851  12.107  12.934
 1765SOL     OW 7191   9.879  10.558  14.499
 1765SOL    HW1 7192   9.929  10.503  14.438
 1765SOL    HW2 7193   9.791  10.522  14.496
 1766SOL     OW 7194  10.988   0.291   8.988
 1766SOL    HW1 7195  10.924   0.351   9.027
 1766SOL    HW2 7196  10.968   0.206   9.026
 1767SOL     OW 7197  14.290   3.597  14.310
 1767SOL    HW1 7198  14.241   3.676  14.332
 1767SOL    HW2 7199  14.371   3.605  14.360
 1768SOL     OW 7200  14.743   7.971  12.592
 1768SOL    HW1 7201  14.673   7.960  12.528
 1768SOL    HW2 7202  14.823   7.954  12.544
 1769SOL     OW 7203   1.163  12.961   4.420
 1769SOL    HW1 7204   1.233  13.024   4.440
 1769SOL    HW2 7205   1.094  13.015   4.381
 1770SOL     OW 7206  11.348  12.823   6.154
 1770SOL    HW1 7207  11.423  12.775   6.186
 1770SOL    HW2 7208  11.296  12.759   6.106
 1771SOL     OW 7209   7.590  12.182   0.264
 1771SOL    HW1 7210   7.538  12.179   0.344
 1771SOL    HW2 7211   7.545  12.123   0.204
 1772SOL     OW 7212   0.907   9.129  10.614
 1772SOL    HW1 7213   0.956   9.176  10.547
 1772SOL    HW2 7214   0.872   9.197  10.671
 1773SOL     OW 7215  13.900   5.052  12.498
 1773SOL    HW1 7216  13.881   4.960  12.480
 1773SOL    HW2 7217  13.848   5.072  12.577
 1774SOL     OW 7218  13.374   6.608   1.952
 1774SOL    HW1 7219  13.459   6.627   1.991
 1774SOL    HW2 7220  13.322   6.687   1.968
 1775SOL     OW 7221   6.093   5.635   7.953
 1775SOL    HW1 7222   6.114   5.699   8.021
 1775SOL    HW2 7223   6.174   5.624   7.904
 1776SOL     OW 7224   9.996   3.691   2.972
 1776SOL    HW1 7225   9.906   3.657   2.967
 1776SOL    HW2 7226  10.046   3.622   3.014
 1777SOL     OW 7227  12.457   4.572   4.891
 1777SOL    HW1 7228  12.390   4.557   4.824
 1777SOL    HW2 7229  12.414   4.551   4.973
 1778SOL     OW 7230  13.250   4.573  11.385
 1778SOL    HW1 7231  13.239   4.608  11.297
 1778SOL    HW2 7232  13.300   4.492  11.373
 1779SOL     OW 7233   5.482   4.836   6.566
 1779SOL    HW1 7234   5.532   4.818   6.646
 1779SOL    HW2 7235   5.493   4.758   6.512
 1780SOL     OW 7236   7.852   2.240  13.085
 1780SOL    HW1 7237   7.915   2.280  13.026
 1780SOL    HW2 7238   7.792   2.193  13.027
 1781SOL     OW 7239   5.430   1.566   7.959
 1781SOL    HW1 7240   5.460   1.487   7.915
 1781SOL    HW2 7241   5.484   1.571   8.038
 1782SOL     OW 7242   6.194   4.078   7.625
 1782SOL    HW1 7243   6.119   4.045   7.674
 1782SOL    HW2 7244   6.165   4.163   7.592
 1783SOL     OW 7245   2.826  11.339   9.153
 1783SOL    HW1 7246   2.920  11.343   9.167
 1783SOL    HW2 7247   2.788  11.339   9.240
 1784SOL     OW 7248   5.355   2.560   9.786
 1784SOL    HW1 7249   5.449   2.555   9.768
 1784SOL    HW2 7250   5.350   2.595   9.875
 1785SOL     OW 7251   1.437   6.680   7.973
 1785SOL    HW1 7252   1.349   6.695   7.940
 1785SOL    HW2 7253   1.494   6.725   7.911
 1786SOL     OW 7254  12.380   9.741   9.860
 1786SOL    HW1 7255  12.347   9.752   9.772
 1786SOL    HW2 7256  12.452   9.804   9.867
 1787SOL     OW 7257   4.944  12.517  10.800
 1787SOL    HW1 7258   4.890  12.438  10.799
 1787SOL    HW2 7259   5.007  12.504  10.730
 1788SOL     OW 7260   9.461   7.732   9.175
 1788SOL    HW1 7261   9.537   7.774   9.216
 1788SOL    HW2 7262   9.386   7.780   9.209
 1789SOL     OW 7263  13.437   3.520   7.367
 1789SOL    HW1 7264  13.375   3.455   7.400
 1789SOL    HW2 7265  13.489   3.472   7.302
 1790SOL     OW 7266   3.327   3.263  13.951
 1790SOL    HW1 7267   3.238   3.283  13.979
 1790SOL    HW2 7268   3.319   3.242  13.858
 1791SOL     OW 7269   1.383   9.688  13.461
 1791SOL    HW1 7270   1.409   9.777  13.483
 1791SOL    HW2 7271   1.458   9.634  13.487
 1792SOL     OW 7272   8.381  13.309  14.285
 1792SOL    HW1 7273   8.300  13.298  14.335
 1792SOL    HW2 7274   8.356  13.292  14.194
 1793SOL     OW 7275   1.661  11.830   9.843
 1793SOL    HW1 7276   1.694  11.920   9.836
 1793SOL    HW2 7277   1.715  11.780   9.782
 1794SOL     OW 7278  10.072   8.467  11.970
 1794SOL    HW1 7279  10.053   8.383  12.012
 1794SOL    HW2 7280  10.038   8.458  11.881
 1795SOL     OW 7281  10.222  13.497   4.145
 1795SOL    HW1 7282  10.185  13.409   4.157
 1795SOL    HW2 7283  10.283  13.507   4.218
 1796SOL     OW 7284  13.517   2.208  12.511
 1796SOL    HW1 7285  13.472   2.129  12.481
 1796SOL    HW2 7286  13.492   2.276  12.448
 1797SOL     OW 7287   4.379   4.954  14.039
 1797SOL    HW1 7288   4.392   4.859  14.044
 1797SOL    HW2 7289   4.286   4.965  14.019
 1798SOL     OW 7290  10.190   4.729  11.715
 1798SOL    HW1 7291  10.183   4.751  11.622
 1798SOL    HW2 7292  10.117   4.775  11.757
 1799SOL     OW 7293   0.983  14.154   5.616
 1799SOL    HW1 7294   1.068  14.181   5.650
 1799SOL    HW2 7295   0.970  14.207   5.538
 1800SOL     OW 7296   7.266  10.798  10.897
 1800SOL    HW1 7297   7.246  10.719  10.846
 1800SOL    HW2 7298   7.250  10.772  10.988
 1801SOL     OW 7299   2.533  12.353   2.038
 1801SOL    HW1 7300   2.556  12.261   2.024
 1801SOL    HW2 7301   2.585  12.380   2.113
 1802SOL     OW 7302   5.971   0.604   7.348
 1802SOL    HW1 7303   5.951   0.595   7.254
 1802SOL    HW2 7304   5.923   0.683   7.375
 1803SOL     OW 7305  12.867  14.841  11.455
 1803SOL    HW1 7306  12.960  14.858  11.471
 1803SOL    HW2 7307  12.833  14.813  11.540
 1804SOL     OW 7308  12.201   2.724   6.948
 1804SOL    HW1 7309  12.281   2.759   6.986
 1804SOL    HW2 7310  12.169   2.661   7.014
 1805SOL     OW 7311   0.784   8.173   5.799
 1805SOL    HW1 7312   0.694   8.142   5.803
 1805SOL    HW2 7313   0.777   8.268   5.802
 1806SOL     OW 7314   0.456   1.829   8.507
 1806SOL    HW1 7315   0.411   1.746   8.491
 1806SOL    HW2 7316   0.387   1.893   8.523
 1807SOL     OW 7317   6.983   0.751   3.360
 1807SOL    HW1 7318   7.051   0.688   3.386
 1807SOL    HW2 7319   6.923   0.754   3.434
 1808SOL     OW 7320  13.445   6.813   0.703
 1808SOL    HW1 7321  13.473   6.734   0.749
 1808SOL    HW2 7322  13.500   6.883   0.738
 1809SOL     OW 7323   8.889   9.960   1.851
 1809SOL    HW1 7324   8.816   9.998   1.802
 1809SOL    HW2 7325   8.937   9.909   1.785
 1810SOL     OW 7326   5.575   1.087   1.296
 1810SOL    HW1 7327   5.621   1.112   1.216
 1810SOL    HW2 7328   5.483   1.106   1.278
 1811SOL     OW 7329   2.818   3.113   8.904
 1811SOL    HW1 7330   2.850   3.069   8.983
 1811SOL    HW2 7331   2.737   3.068   8.882
 1812SOL     OW 7332   4.569   1.974   9.035
 1812SOL    HW1 7333   4.544   1.900   8.978
 1812SOL    HW2 7334   4.660   1.992   9.010
 1813SOL     OW 7335   2.955   3.722   4.344
 1813SOL    HW1 7336   2.873   3.741   4.299
 1813SOL    HW2 7337   3.006   3.671   4.280
 1814SOL     OW 7338   4.348  13.708   2.356
 1814SOL    HW1 7339   4.341  13.703   2.451
 1814SOL    HW2 7340   4.259  13.693   2.324
 1815SOL     OW 7341   0.362   1.680  10.510
 1815SOL    HW1 7342   0.286   1.739  10.513
 1815SOL    HW2 7343   0.360   1.645  10.421
 1816SOL     OW 7344  10.511   2.419   4.923
 1816SOL    HW1 7345  10.449   2.399   4.993
 1816SOL    HW2 7346  10.456   2.436   4.846
 1817SOL     OW 7347   4.201  14.658   3.502
 1817SOL    HW1 7348   4.287  14.696   3.486
 1817SOL    HW2 7349   4.189  14.664   3.597
 1818SOL     OW 7350   3.344  10.318  13.841
 1818SOL    HW1 7351   3.273  10.262  13.872
 1818SOL    HW2 7352   3.328  10.403  13.881
 1819SOL     OW 7353  11.782  11.525  13.027
 1819SOL    HW1 7354  11.813  11.611  12.996
 1819SOL    HW2 7355  11.694  11.517  12.989
 1820SOL     OW 7356   9.176   0.482   4.694
 1820SOL    HW1 7357   9.083   0.490   4.676
 1820SOL    HW2 7358   9.181   0.425   4.771
 1821SOL     OW 7359  12.397   0.118   2.272
 1821SOL    HW1 7360  12.458   0.192   2.282
 1821SOL    HW2 7361  12.404   0.071   2.355
 1822SOL     OW 7362   8.988   4.495   1.203
 1822SOL    HW1 7363   8.997   4.443   1.283
 1822SOL    HW2 7364   9.069   4.478   1.154
 1823SOL     OW 7365   8.264  10.773   2.102
 1823SOL    HW1 7366   8.285  10.824   2.180
 1823SOL    HW2 7367   8.336  10.791   2.041
 1824SOL     OW 7368   1.307  11.078  10.469
 1824SOL    HW1 7369   1.365  11.011  10.433
 1824SOL    HW2 7370   1.345  11.161  10.439
 1825SOL     OW 7371   7.705   1.843   5.881
 1825SOL    HW1 7372   7.764   1.887   5.821
 1825SOL    HW2 7373   7.635   1.808   5.825
 1826SOL     OW 7374   6.043   2.401   3.568
 1826SOL    HW1 7375   6.026   2.322   3.516
 1826SOL    HW2 7376   6.133   2.390   3.599
 1827SOL     OW 7377   4.200   0.332  12.873
 1827SOL    HW1 7378   4.110   0.341  12.843
 1827SOL    HW2 7379   4.240   0.272  12.811
 1828SOL     OW 7380  11.038   6.806   2.348
 1828SOL    HW1 7381  11.038   6.872   2.418
 1828SOL    HW2 7382  11.122   6.818   2.304
 1829SOL     OW 7383   3.533   4.659   7.792
 1829SOL    HW1 7384   3.581   4.594   7.843
 1829SOL    HW2 7385   3.494   4.610   7.720
 1830SOL     OW 7386   7.194  12.540   2.583
 1830SOL    HW1 7387   7.260  12.601   2.617
 1830SOL    HW2 7388   7.169  12.487   2.659
 1831SOL     OW 7389  14.527   7.689   0.694
 1831SOL    HW1 7390  14.474   7.742   0.754
 1831SOL    HW2 7391  14.462   7.639   0.643
 1832SOL     OW 7392   9.466   4.664  12.581
 1832SOL    HW1 7393   9.545   4.712  12.556
 1832SOL    HW2 7394   9.447   4.694  12.670
 1833SOL     OW 7395   2.691   1.893   6.109
 1833SOL    HW1 7396   2.630   1.837   6.158
 1833SOL    HW2 7397   2.635   1.959   6.067
 1834SOL     OW 7398   2.394  10.544  11.839
 1834SOL    HW1 7399   2.360  10.455  11.838
 1834SOL    HW2 7400   2.400  10.568  11.746
 1835SOL     OW 7401   7.519  13.337   9.498
 1835SOL    HW1 7402   7.477  13.409   9.450
 1835SOL    HW2 7403   7.601  13.375   9.530
 1836SOL     OW 7404   0.488   2.195  13.855
 1836SOL    HW1 7405   0.464   2.103  13.839
 1836SOL    HW2 7406   0.501   2.232  13.768
 1837SOL     OW 7407   8.795   4.148   9.370
 1837SOL    HW1 7408   8.805   4.208   9.444
 1837SOL    HW2 7409   8.881   4.146   9.328
 1838SOL     OW 7410  10.389   8.339   0.940
 1838SOL    HW1 7411  10.383   8.244   0.946
 1838SOL    HW2 7412  10.359   8.370   1.026
 1839SOL     OW 7413   2.171   9.897   3.916
 1839SOL    HW1 7414   2.257   9.930   3.940
 1839SOL    HW2 7415   2.112   9.971   3.927
 1840SOL     OW 7416   1.935   4.173   7.596
 1840SOL    HW1 7417   1.872   4.193   7.527
 1840SOL    HW2 7418   1.920   4.240   7.663
 1841SOL     OW 7419   1.137  12.042   1.736
 1841SOL    HW1 7420   1.062  12.075   1.785
 1841SOL    HW2 7421   1.127  11.947   1.738
 1842SOL     OW 7422   7.661  11.290   2.993
 1842SOL    HW1 7423   7.664  11.375   2.950
 1842SOL    HW2 7424   7.578  11.251   2.965
 1843SOL     OW 7425  12.608   8.940  12.445
 1843SOL    HW1 7426  12.687   8.888  12.462
 1843SOL    HW2 7427  12.536   8.884  12.475
 1844SOL     OW 7428   5.316   9.636   8.303
 1844SOL    HW1 7429   5.335   9.651   8.210
 1844SOL    HW2 7430   5.393   9.587   8.334
 1845SOL     OW 7431  11.811  10.690   4.019
 1845SOL    HW1 7432  11.869  10.766   4.026
 1845SOL    HW2 7433  11.859  10.628   3.965
 1846SOL     OW 7434   6.938  14.416  10.828
 1846SOL    HW1 7435   6.880  14.351  10.866
 1846SOL    HW2 7436   7.018  14.412  10.882
 1847SOL     OW 7437   4.546  13.399   7.517
 1847SOL    HW1 7438   4.522  13.490   7.534
 1847SOL    HW2 7439   4.465  13.359   7.486
 1848SOL     OW 7440   3.040   3.533   8.752
 1848SOL    HW1 7441   3.000   3.457   8.709
 1848SOL    HW2 7442   3.028   3.605   8.690
 1849SOL     OW 7443   8.036   2.572  13.925
 1849SOL    HW1 7444   8.063   2.533  14.009
 1849SOL    HW2 7445   8.047   2.666  13.938
 1850SOL     OW 7446   4.422   3.135   2.515
 1850SOL    HW1 7447   4.477   3.083   2.573
 1850SOL    HW2 7448   4.332   3.113   2.540
 1851SOL     OW 7449  11.180   6.716   6.937
 1851SOL    HW1 7450  11.089   6.689   6.934
 1851SOL    HW2 7451  11.193   6.750   7.026
 1852SOL     OW 7452   2.386   8.086   1.544
 1852SOL    HW1 7453   2.392   8.155   1.478
 1852SOL    HW2 7454   2.348   8.129   1.620
 1853SOL     OW 7455   2.625  11.602   6.719
 1853SOL    HW1 7456   2.557  11.585   6.653
 1853SOL    HW2 7457   2.690  11.655   6.673
 1854SOL     OW 7458  10.644   6.520   8.138
 1854SOL    HW1 7459  10.643   6.475   8.222
 1854SOL    HW2 7460  10.554   6.547   8.124
 1855SOL     OW 7461  10.546  13.007   1.046
 1855SOL    HW1 7462  10.614  12.955   1.003
 1855SOL    HW2 7463  10.530  12.962   1.129
 1856SOL     OW 7464  10.218   4.146  12.552
 1856SOL    HW1 7465  10.188   4.113  12.467
 1856SOL    HW2 7466  10.307   4.175  12.536
 1857SOL     OW 7467   2.623   5.788   1.771
 1857SOL    HW1 7468   2.614   5.697   1.741
 1857SOL    HW2 7469   2.539   5.807   1.813
 1858SOL     OW 7470  13.950   1.026  13.890
 1858SOL    HW1 7471  13.954   0.941  13.933
 1858SOL    HW2 7472  14.042   1.049  13.872
 1859SOL     OW 7473  13.480   7.241   4.297
 1859SOL    HW1 7474  13.520   7.155   4.289
 1859SOL    HW2 7475  13.385   7.225   4.292
 1860SOL     OW 7476   6.397  13.789  14.744
 1860SOL    HW1 7477   6.319  13.735  14.727
 1860SOL    HW2 7478   6.430  13.757  14.827
 1861SOL     OW 7479   9.086  10.756   3.842
 1861SOL    HW1 7480   9.024  10.771   3.913
 1861SOL    HW2 7481   9.126  10.842   3.827
 1862SOL     OW 7482  14.682  12.646   9.397
 1862SOL    HW1 7483  14.714  12.583   9.333
 1862SOL    HW2 7484  14.587  12.639   9.392
 1863SOL     OW 7485  10.998  14.363   4.085
 1863SOL    HW1 7486  11.064  14.346   4.018
 1863SOL    HW2 7487  10.924  14.401   4.037
 1864SOL     OW 7488   3.515   2.519   8.045
 1864SOL    HW1 7489   3.466   2.555   7.970
 1864SOL    HW2 7490   3.517   2.425   8.029
 1865SOL     OW 7491  13.449   7.349   2.805
 1865SOL    HW1 7492  13.526   7.367   2.750
 1865SOL    HW2 7493  13.470   7.267   2.849
 1866SOL     OW 7494  12.608   2.992   8.656
 1866SOL    HW1 7495  12.606   3.085   8.632
 1866SOL    HW2 7496  12.598   2.991   8.751
 1867SOL     OW 7497  11.462  11.480   4.394
 1867SOL    HW1 7498  11.490  11.557   4.345
 1867SOL    HW2 7499  11.371  11.466   4.367
 1868SOL     OW 7500  12.562  10.594  10.268
 1868SOL    HW1 7501  12.478  10.636  10.252
 1868SOL    HW2 7502  12.618  10.625  10.196
 1869SOL     OW 7503   9.547  14.623   4.563
 1869SOL    HW1 7504   9.484  14.695   4.561
 1869SOL    HW2 7505   9.625  14.657   4.518
 1870SOL     OW 7506   4.021   1.886   5.289
 1870SOL    HW1 7507   4.002   1.917   5.200
 1870SOL    HW2 7508   4.113   1.858   5.285
 1871SOL     OW 7509   8.596   7.607   5.317
 1871SOL    HW1 7510   8.545   7.545   5.264
 1871SOL    HW2 7511   8.616   7.559   5.397
 1872SOL     OW 7512   0.357  13.322  10.745
 1872SOL    HW1 7513   0.405  13.360  10.671
 1872SOL    HW2 7514   0.266  13.347  10.728
 1873SOL     OW 7515  13.732  13.126   1.719
 1873SOL    HW1 7516  13.714  13.211   1.759
 1873SOL    HW2 7517  13.823  13.132   1.689
 1874SOL     OW 7518  14.851   0.838   9.469
 1874SOL    HW1 7519  14.851   0.747   9.440
 1874SOL    HW2 7520   0.048   0.878   9.421
 1875SOL     OW 7521   6.168   8.559   1.091
 1875SOL    HW1 7522   6.198   8.648   1.109
 1875SOL    HW2 7523   6.081   8.554   1.130
 1876SOL     OW 7524   7.835   0.883  14.738
 1876SOL    HW1 7525   7.826   0.810  14.678
 1876SOL    HW2 7526   7.930   0.889  14.754
 1877SOL     OW 7527   5.798   9.135   2.104
 1877SOL    HW1 7528   5.750   9.216   2.086
 1877SOL    HW2 7529   5.821   9.141   2.197
 1878SOL     OW 7530  10.977   8.182  12.246
 1878SOL    HW1 7531  11.042   8.169  12.315
 1878SOL    HW2 7532  10.996   8.112  12.183
 1879SOL     OW 7533   9.943   4.532   7.402
 1879SOL    HW1 7534   9.894   4.473   7.344
 1879SOL    HW2 7535   9.989   4.474   7.462
 1880SOL     OW 7536  14.258   1.652  10.490
 1880SOL    HW1 7537  14.296   1.611  10.567
 1880SOL    HW2 7538  14.263   1.585  10.422
 1881SOL     OW 7539   5.178   5.082   1.493
 1881SOL    HW1 7540   5.122   5.092   1.416
 1881SOL    HW2 7541   5.267   5.073   1.458
 1882SOL     OW 7542   3.186   5.917  12.282
 1882SOL    HW1 7543   3.144   5.937  12.199
 1882SOL    HW2 7544   3.114   5.896  12.341
 1883SOL     OW 7545  14.229   8.988  10.483
 1883SOL    HW1 7546  14.187   9.073  10.495
 1883SOL    HW2 7547  14.157   8.930  10.459
 1884SOL     OW 7548   5.741   6.572   4.497
 1884SOL    HW1 7549   5.741   6.518   4.576
 1884SOL    HW2 7550   5.791   6.521   4.433
 1885SOL     OW 7551  14.199   6.806   7.251
 1885SOL    HW1 7552  14.122   6.851   7.287
 1885SOL    HW2 7553  14.231   6.864   7.182
 1886SOL     OW 7554  11.602   7.540   6.291
 1886SOL    HW1 7555  11.518   7.533   6.335
 1886SOL    HW2 7556  11.590   7.611   6.227
 1887SOL     OW 7557  11.195   0.440   8.560
 1887SOL    HW1 7558  11.171   0.439   8.468
 1887SOL    HW2 7559  11.244   0.359   8.573
 1888SOL     OW 7560   3.370   5.581   3.175
 1888SOL    HW1 7561   3.315   5.513   3.215
 1888SOL    HW2 7562   3.344   5.662   3.220
 1889SOL     OW 7563   7.577   4.956   0.637
 1889SOL    HW1 7564   7.578   4.914   0.723
 1889SOL    HW2 7565   7.524   4.897   0.582
 1890SOL     OW 7566   5.570   0.530   8.462
 1890SOL    HW1 7567   5.590   0.436   8.461
 1890SOL    HW2 7568   5.643   0.571   8.418
 1891SOL     OW 7569   1.723   4.087   3.338
 1891SOL    HW1 7570   1.684   4.169   3.307
 1891SOL    HW2 7571   1.798   4.115   3.391
 1892SOL     OW 7572   8.124  13.573   1.988
 1892SOL    HW1 7573   8.070  13.516   1.934
 1892SOL    HW2 7574   8.080  13.574   2.073
 1893SOL     OW 7575  10.619   5.293   2.900
 1893SOL    HW1 7576  10.701   5.269   2.857
 1893SOL    HW2 7577  10.641   5.294   2.994
 1894SOL     OW 7578   8.420   8.889   1.473
 1894SOL    HW1 7579   8.358   8.826   1.510
 1894SOL    HW2 7580   8.392   8.973   1.508
 1895SOL     OW 7581   8.258   7.954  10.539
 1895SOL    HW1 7582   8.189   7.969  10.475
 1895SOL    HW2 7583   8.220   7.980  10.623
 1896SOL     OW 7584   3.830  14.358  12.316
 1896SOL    HW1 7585   3.747  14.350  12.364
 1896SOL    HW2 7586   3.807  14.336  12.225
 1897SOL     OW 7587   7.885   5.596   9.200
 1897SOL    HW1 7588   7.875   5.532   9.271
 1897SOL    HW2 7589   7.957   5.653   9.230
 1898SOL     OW 7590   0.791  12.695   0.564
 1898SOL    HW1 7591   0.824  12.620   0.515
 1898SOL    HW2 7592   0.704  12.668   0.595
 1899SOL     OW 7593   7.894   2.783   0.689
 1899SOL    HW1 7594   7.803   2.810   0.674
 1899SOL    HW2 7595   7.908   2.711   0.628
 1900SOL     OW 7596  12.477   5.641   5.866
 1900SOL    HW1 7597  12.516   5.676   5.946
 1900SOL    HW2 7598  12.516   5.553   5.857
 1901SOL     OW 7599   6.829   0.801   5.390
 1901SOL    HW1 7600   6.835   0.711   5.423
 1901SOL    HW2 7601   6.759   0.841   5.440
 1902SOL     OW 7602   2.290   5.026   4.675
 1902SOL    HW1 7603   2.305   5.120   4.677
 1902SOL    HW2 7604   2.197   5.017   4.657
 1903SOL     OW 7605  13.339   1.842   4.341
 1903SOL    HW1 7606  13.352   1.810   4.251
 1903SOL    HW2 7607  13.265   1.791   4.374
 1904SOL     OW 7608   3.509   2.073  14.589
 1904SOL    HW1 7609   3.508   2.156  14.637
 1904SOL    HW2 7610   3.514   2.099  14.497
 1905SOL     OW 7611   6.204   2.104   4.729
 1905SOL    HW1 7612   6.283   2.157   4.718
 1905SOL    HW2 7613   6.166   2.136   4.811
 1906SOL     OW 7614   4.610  12.177  10.071
 1906SOL    HW1 7615   4.515  12.175  10.081
 1906SOL    HW2 7616   4.628  12.113  10.003
 1907SOL     OW 7617   3.935   1.264  12.215
 1907SOL    HW1 7618   3.872   1.276  12.144
 1907SOL    HW2 7619   4.014   1.232  12.172
 1908SOL     OW 7620   5.594   8.209   8.914
 1908SOL    HW1 7621   5.637   8.241   8.994
 1908SOL    HW2 7622   5.666   8.198   8.851
 1909SOL     OW 7623   5.737  12.135   2.113
 1909SOL    HW1 7624   5.649  12.162   2.086
 1909SOL    HW2 7625   5.794  12.204   2.079
 1910SOL     OW 7626   5.543   2.350  12.880
 1910SOL    HW1 7627   5.464   2.401  12.899
 1910SOL    HW2 7628   5.576   2.322  12.965
 1911SOL     OW 7629  12.398  10.487   7.131
 1911SOL    HW1 7630  12.390  10.464   7.038
 1911SOL    HW2 7631  12.317  10.455   7.170
 1912SOL     OW 7632   8.607   6.973   8.042
 1912SOL    HW1 7633   8.642   7.023   8.115
 1912SOL    HW2 7634   8.600   6.884   8.075
 1913SOL     OW 7635   9.955   3.878  11.046
 1913SOL    HW1 7636  10.043   3.861  11.079
 1913SOL    HW2 7637   9.909   3.920  11.119
 1914SOL     OW 7638   9.748  14.665   0.524
 1914SOL    HW1 7639   9.810  14.689   0.593
 1914SOL    HW2 7640   9.739  14.744   0.472
 1915SOL     OW 7641  13.287   8.899   7.612
 1915SOL    HW1 7642  13.298   8.958   7.687
 1915SOL    HW2 7643  13.238   8.950   7.548
 1916SOL     OW 7644   5.358   5.282  13.628
 1916SOL    HW1 7645   5.394   5.207  13.579
 1916SOL    HW2 7646   5.339   5.347  13.560
 1917SOL     OW 7647   0.983  11.110  10.710
 1917SOL    HW1 7648   1.063  11.057  10.707
 1917SOL    HW2 7649   1.014  11.199  10.694
 1918SOL     OW 7650  10.558   9.184   6.446
 1918SOL    HW1 7651  10.463   9.181   6.447
 1918SOL    HW2 7652  10.583   9.139   6.365
 1919SOL     OW 7653   2.474   1.344   6.204
 1919SOL    HW1 7654   2.453   1.351   6.297
 1919SOL    HW2 7655   2.471   1.434   6.171
 1920SOL     OW 7656   4.469   8.025   3.262
 1920SOL    HW1 7657   4.464   8.089   3.191
 1920SOL    HW2 7658   4.562   8.021   3.284
 1921SOL     OW 7659   4.761  11.121  10.511
 1921SOL    HW1 7660   4.836  11.109  10.453
 1921SOL    HW2 7661   4.788  11.081  10.594
 1922SOL     OW 7662  13.192   6.123  11.042
 1922SOL    HW1 7663  13.114   6.178  11.032
 1922SOL    HW2 7664  13.196   6.104  11.136
 1923SOL     OW 7665   1.786   5.371   3.619
 1923SOL    HW1 7666   1.831   5.288   3.634
 1923SOL    HW2 7667   1.828   5.406   3.540
 1924SOL     OW 7668   4.497  13.381   9.945
 1924SOL    HW1 7669   4.403  13.364   9.939
 1924SOL    HW2 7670   4.523  13.348  10.031
 1925SOL     OW 7671   4.876   0.330   0.700
 1925SOL    HW1 7672   4.924   0.323   0.783
 1925SOL    HW2 7673   4.930   0.282   0.637
 1926SOL     OW 7674  13.954  12.720  10.076
 1926SOL    HW1 7675  13.964  12.799  10.129
 1926SOL    HW2 7676  13.917  12.655  10.136
 1927SOL     OW 7677   0.691   2.457   9.614
 1927SOL    HW1 7678   0.773   2.474   9.567
 1927SOL    HW2 7679   0.624   2.453   9.546
 1928SOL     OW 7680   3.098   5.112  10.646
 1928SOL    HW1 7681   3.169   5.156  10.692
 1928SOL    HW2 7682   3.094   5.157  10.561
 1929SOL     OW 7683   9.083  11.718  14.360
 1929SOL    HW1 7684   9.162  11.676  14.394
 1929SOL    HW2 7685   9.113  11.766  14.283
 1930SOL     OW 7686  12.637  11.940   6.594
 1930SOL    HW1 7687  12.705  11.997   6.631
 1930SOL    HW2 7688  12.604  11.891   6.669
 1931SOL     OW 7689   5.921   6.265   1.991
 1931SOL    HW1 7690   6.014   6.242   1.990
 1931SOL    HW2 7691   5.882   6.202   2.052
 1932SOL     OW 7692  11.744   7.934   3.272
 1932SOL    HW1 7693  11.682   7.940   3.345
 1932SOL    HW2 7694  11.829   7.925   3.314
 1933SOL     OW 7695  12.037   1.074   8.371
 1933SOL    HW1 7696  12.038   1.009   8.442
 1933SOL    HW2 7697  12.125   1.068   8.333
 1934SOL     OW 7698   0.422   5.155   4.959
 1934SOL    HW1 7699   0.350   5.096   4.980
 1934SOL    HW2 7700   0.466   5.169   5.043
 1935SOL     OW 7701  14.741  13.660   5.872
 1935SOL    HW1 7702  14.815  13.651   5.812
 1935SOL    HW2 7703  14.671  13.607   5.832
 1936SOL     OW 7704   1.019   9.888   8.285
 1936SOL    HW1 7705   0.962   9.821   8.248
 1936SOL    HW2 7706   1.073   9.841   8.348
 1937SOL     OW 7707  10.845   1.509  12.693
 1937SOL    HW1 7708  10.887   1.430  12.660
 1937SOL    HW2 7709  10.823   1.559  12.615
 1938SOL     OW 7710   3.732  10.060  13.139
 1938SOL    HW1 7711   3.639  10.084  13.134
 1938SOL    HW2 7712   3.732   9.965  13.142
 1939SOL     OW 7713   4.012   4.499   2.500
 1939SOL    HW1 7714   3.977   4.421   2.544
 1939SOL    HW2 7715   4.078   4.533   2.560
 1940SOL     OW 7716   0.618  13.760   9.612
 1940SOL    HW1 7717   0.655  13.844   9.639
 1940SOL    HW2 7718   0.674  13.695   9.654
 1941SOL     OW 7719   9.827   6.765   2.550
 1941SOL    HW1 7720   9.922   6.774   2.555
 1941SOL    HW2 7721   9.798   6.774   2.641
 1942SOL     OW 7722   3.277  11.460   2.511
 1942SOL    HW1 7723   3.311  11.390   2.567
 1942SOL    HW2 7724   3.190  11.432   2.486
 1943SOL     OW 7725   8.962  14.866   2.565
 1943SOL    HW1 7726   8.970   0.014   2.658
 1943SOL    HW2 7727   8.979   0.073   2.519
 1944SOL     OW 7728   2.888  10.643  14.369
 1944SOL    HW1 7729   2.813  10.592  14.401
 1944SOL    HW2 7730   2.868  10.733  14.396
 1945SOL     OW 7731   1.090   5.701   5.800
 1945SOL    HW1 7732   1.119   5.788   5.772
 1945SOL    HW2 7733   0.998   5.696   5.773
 1946SOL     OW 7734   2.654  10.727   3.505
 1946SOL    HW1 7735   2.618  10.758   3.422
 1946SOL    HW2 7736   2.743  10.700   3.485
 1947SOL     OW 7737   3.063   0.689   6.388
 1947SOL    HW1 7738   3.157   0.690   6.405
 1947SOL    HW2 7739   3.054   0.719   6.298
 1948SOL     OW 7740   6.850   2.498  14.348
 1948SOL    HW1 7741   6.836   2.589  14.320
 1948SOL    HW2 7742   6.850   2.502  14.444
 1949SOL     OW 7743   9.756  10.277   2.849
 1949SOL    HW1 7744   9.688  10.325   2.802
 1949SOL    HW2 7745   9.829  10.273   2.788
 1950SOL     OW 7746  11.444  13.491   8.318
 1950SOL    HW1 7747  11.533  13.499   8.284
 1950SOL    HW2 7748  11.396  13.561   8.274
 1951SOL     OW 7749   4.536   8.554  10.687
 1951SOL    HW1 7750   4.617   8.504  10.691
 1951SOL    HW2 7751   4.524   8.587  10.777
 1952SOL     OW 7752   0.771  12.041  10.400
 1952SOL    HW1 7753   0.852  12.077  10.362
 1952SOL    HW2 7754   0.704  12.058  10.334
 1953SOL     OW 7755  12.432   9.412  10.612
 1953SOL    HW1 7756  12.386   9.491  10.639
 1953SOL    HW2 7757  12.364   9.346  10.603
 1954SOL     OW 7758   3.907   8.301   2.727
 1954SOL    HW1 7759   3.859   8.378   2.695
 1954SOL    HW2 7760   3.882   8.295   2.820
 1955SOL     OW 7761   6.021   2.245  11.064
 1955SOL    HW1 7762   6.067   2.209  11.139
 1955SOL    HW2 7763   6.070   2.216  10.988
 1956SOL     OW 7764  14.259   4.856  11.948
 1956SOL    HW1 7765  14.189   4.920  11.958
 1956SOL    HW2 7766  14.339   4.905  11.964
 1957SOL     OW 7767   3.473  10.618   5.845
 1957SOL    HW1 7768   3.438  10.565   5.773
 1957SOL    HW2 7769   3.471  10.708   5.811
 1958SOL     OW 7770  14.070   4.049   3.844
 1958SOL    HW1 7771  14.063   4.140   3.874
 1958SOL    HW2 7772  14.008   4.001   3.899
 1959SOL     OW 7773   4.445  10.248   5.023
 1959SOL    HW1 7774   4.442  10.331   4.977
 1959SOL    HW2 7775   4.468  10.184   4.956
 1960SOL     OW 7776   3.832  11.559   7.540
 1960SOL    HW1 7777   3.744  11.597   7.547
 1960SOL    HW2 7778   3.891  11.631   7.560
 1961SOL     OW 7779  10.308   5.801  10.241
 1961SOL    HW1 7780  10.346   5.843  10.164
 1961SOL    HW2 7781  10.253   5.869  10.280
 1962SOL     OW 7782  13.394  12.335   7.627
 1962SOL    HW1 7783  13.407  12.428   7.645
 1962SOL    HW2 7784  13.482  12.297   7.629
 1963SOL     OW 7785   0.107   4.128   6.188
 1963SOL    HW1 7786   0.133   4.110   6.279
 1963SOL    HW2 7787   0.186   4.111   6.137
 1964SOL     OW 7788   0.870   9.082   5.559
 1964SOL    HW1 7789   0.936   9.017   5.533
 1964SOL    HW2 7790   0.906   9.122   5.638
 1965SOL     OW 7791  11.140   4.082   9.871
 1965SOL    HW1 7792  11.152   4.029   9.950
 1965SOL    HW2 7793  11.178   4.167   9.894
 1966SOL     OW 7794   0.501  12.776  10.535
 1966SOL    HW1 7795   0.514  12.730  10.452
 1966SOL    HW2 7796   0.534  12.715  10.602
 1967SOL     OW 7797   3.986   9.414   2.800
 1967SOL    HW1 7798   3.892   9.408   2.814
 1967SOL    HW2 7799   3.999   9.495   2.750
 1968SOL     OW 7800  10.431   1.758   3.264
 1968SOL    HW1 7801  10.336   1.755   3.270
 1968SOL    HW2 7802  10.460   1.787   3.351
 1969SOL     OW 7803  14.799   6.151  10.843
 1969SOL    HW1 7804  14.857   6.084  10.880
 1969SOL    HW2 7805  14.848   6.233  10.852
 1970SOL     OW 7806  13.055  10.416   5.392
 1970SOL    HW1 7807  13.057  10.507   5.423
 1970SOL    HW2 7808  13.141  10.382   5.414
 1971SOL     OW 7809   2.228   8.074  12.617
 1971SOL    HW1 7810   2.177   8.155  12.616
 1971SOL    HW2 7811   2.295   8.089  12.683
 1972SOL     OW 7812   0.948   2.278  11.634
 1972SOL    HW1 7813   0.916   2.316  11.715
 1972SOL    HW2 7814   0.942   2.183  11.648
 1973SOL     OW 7815  13.074  13.077   0.606
 1973SOL    HW1 7816  13.121  13.040   0.531
 1973SOL    HW2 7817  13.106  13.026   0.681
 1974SOL     OW 7818   5.089  11.185   4.218
 1974SOL    HW1 7819   5.035  11.116   4.179
 1974SOL    HW2 7820   5.175  11.172   4.180
 1975SOL     OW 7821   3.782   9.837  11.830
 1975SOL    HW1 7822   3.864   9.792  11.850
 1975SOL    HW2 7823   3.797   9.928  11.858
 1976SOL     OW 7824   4.094  13.488   4.920
 1976SOL    HW1 7825   4.079  13.490   4.826
 1976SOL    HW2 7826   4.188  13.472   4.929
 1977SOL     OW 7827   4.735   1.330   9.355
 1977SOL    HW1 7828   4.759   1.246   9.315
 1977SOL    HW2 7829   4.775   1.396   9.298
 1978SOL     OW 7830   9.746   9.876   8.541
 1978SOL    HW1 7831   9.781   9.958   8.505
 1978SOL    HW2 7832   9.728   9.896   8.633
 1979SOL     OW 7833   6.190   5.516   2.576
 1979SOL    HW1 7834   6.152   5.503   2.489
 1979SOL    HW2 7835   6.200   5.428   2.612
 1980SOL     OW 7836   4.307   2.076   4.243
 1980SOL    HW1 7837   4.241   2.093   4.176
 1980SOL    HW2 7838   4.325   2.162   4.281
 1981SOL     OW 7839   7.504  10.587  10.838
 1981SOL    HW1 7840   7.491  10.515  10.900
 1981SOL    HW2 7841   7.523  10.663  10.893
 1982SOL     OW 7842  12.697   0.635   2.564
 1982SOL    HW1 7843  12.786   0.671   2.559
 1982SOL    HW2 7844  12.641   0.707   2.536
 1983SOL     OW 7845   4.840  11.006   4.259
 1983SOL    HW1 7846   4.808  10.918   4.239
 1983SOL    HW2 7847   4.859  11.004   4.353
 1984SOL     OW 7848   9.343   3.156  13.745
 1984SOL    HW1 7849   9.253   3.160  13.713
 1984SOL    HW2 7850   9.396   3.193  13.674
 1985SOL     OW 7851   2.745   8.066   8.204
 1985SOL    HW1 7852   2.749   7.990   8.145
 1985SOL    HW2 7853   2.769   8.031   8.289
 1986SOL     OW 7854   7.226  12.508  12.993
 1986SOL    HW1 7855   7.249  12.579  12.933
 1986SOL    HW2 7856   7.184  12.552  13.067
 1987SOL     OW 7857   3.364   0.568   9.352
 1987SOL    HW1 7858   3.308   0.495   9.326
 1987SOL    HW2 7859   3.355   0.632   9.281
 1988SOL     OW 7860   0.534  12.699   0.608
 1988SOL    HW1 7861   0.451  12.725   0.650
 1988SOL    HW2 7862   0.515  12.697   0.515
 1989SOL     OW 7863   9.040   3.130  13.249
 1989SOL    HW1 7864   9.122   3.157  13.290
 1989SOL    HW2 7865   9.019   3.201  13.188
 1990SOL     OW 7866   7.699   0.822   6.532
 1990SOL    HW1 7867   7.607   0.805   6.512
 1990SOL    HW2 7868   7.747   0.794   6.454
 1991SOL     OW 7869   1.424   3.565  10.714
 1991SOL    HW1 7870   1.364   3.628  10.674
 1991SOL    HW2 7871   1.401   3.566  10.807
 1992SOL     OW 7872  10.934  13.928   7.414
 1992SOL    HW1 7873  11.016  13.967   7.444
 1992SOL    HW2 7874  10.944  13.834   7.432
 1993SOL     OW 7875   6.262  11.573   9.723
 1993SOL    HW1 7876   6.220  11.555   9.639
 1993SOL    HW2 7877   6.228  11.505   9.782
 1994SOL     OW 7878   0.869   6.774   3.706
 1994SOL    HW1 7879   0.941   6.711   3.711
 1994SOL    HW2 7880   0.815   6.742   3.634
 1995SOL     OW 7881   4.911   9.809   8.654
 1995SOL    HW1 7882   4.846   9.755   8.609
 1995SOL    HW2 7883   4.993   9.760   8.645
 1996SOL     OW 7884   3.541  14.055   0.504
 1996SOL    HW1 7885   3.598  14.123   0.538
 1996SOL    HW2 7886   3.562  14.050   0.410
 1997SOL     OW 7887   2.816   9.035   8.942
 1997SOL    HW1 7888   2.759   9.003   8.872
 1997SOL    HW2 7889   2.770   9.011   9.023
 1998SOL     OW 7890  14.081   9.323   7.032
 1998SOL    HW1 7891  14.076   9.361   6.944
 1998SOL    HW2 7892  14.018   9.375   7.083
 1999SOL     OW 7893   2.759   8.569   0.750
 1999SOL    HW1 7894   2.701   8.623   0.696
 1999SOL    HW2 7895   2.846   8.581   0.711
 2000SOL     OW 7896  10.311   0.537   3.634
 2000SOL    HW1 7897  10.218   0.536   3.657
 2000SOL    HW2 7898  10.341   0.624   3.660
 2001SOL     OW 7899   6.142  12.805  12.756
 2001SOL    HW1 7900   6.175  12.814  12.845
 2001SOL    HW2 7901   6.117  12.894  12.730
 2002SOL     OW 7902   7.114  13.422  10.284
 2002SOL    HW1 7903   7.073  13.346  10.243
 2002SOL    HW2 7904   7.041  13.472  10.321
 2003SOL     OW 7905   0.748  13.895   8.901
 2003SOL    HW1 7906   0.721  13.981   8.869
 2003SOL    HW2 7907   0.743  13.838   8.824
 2004SOL     OW 7908  13.265   8.731  13.152
 2004SOL    HW1 7909  13.271   8.680  13.070
 2004SOL    HW2 7910  13.173   8.754  13.160
 2005SOL     OW 7911   9.238   4.655  10.292
 2005SOL    HW1 7912   9.318   4.624  10.250
 2005SOL    HW2 7913   9.169   4.601  10.254
 2006SOL     OW 7914  10.631   6.591  14.819
 2006SOL    HW1 7915  10.725   6.579  14.805
 2006SOL    HW2 7916  10.626   6.651   0.018
 2007SOL     OW 7917   8.554   1.483   4.175
 2007SOL    HW1 7918   8.576   1.408   4.120
 2007SOL    HW2 7919   8.532   1.445   4.260
 2008SOL     OW 7920   0.308   3.939  14.129
 2008SOL    HW1 7921   0.353   3.932  14.045
 2008SOL    HW2 7922   0.349   4.013  14.173
 2009SOL     OW 7923  10.160   2.767   4.416
 2009SOL    HW1 7924  10.097   2.699   4.390
 2009SOL    HW2 7925  10.232   2.718   4.456
 2010SOL     OW 7926   8.549   5.346   8.824
 2010SOL    HW1 7927   8.535   5.282   8.754
 2010SOL    HW2 7928   8.599   5.298   8.890
 2011SOL     OW 7929   0.961  12.403   6.385
 2011SOL    HW1 7930   0.958  12.454   6.304
 2011SOL    HW2 7931   0.902  12.449   6.444
 2012SOL     OW 7932  10.554   1.429   9.024
 2012SOL    HW1 7933  10.473   1.474   9.000
 2012SOL    HW2 7934  10.524   1.345   9.061
 2013SOL     OW 7935  14.168  11.577   2.121
 2013SOL    HW1 7936  14.128  11.499   2.083
 2013SOL    HW2 7937  14.262  11.563   2.111
 2014SOL     OW 7938  12.413   3.652  11.348
 2014SOL    HW1 7939  12.496   3.690  11.378
 2014SOL    HW2 7940  12.403   3.686  11.259
 2015SOL     OW 7941  12.039  13.839   2.563
 2015SOL    HW1 7942  11.948  13.866   2.576
 2015SOL    HW2 7943  12.034  13.747   2.539
 2016SOL     OW 7944   4.180   9.464  11.539
 2016SOL    HW1 7945   4.087   9.453  11.519
 2016SOL    HW2 7946   4.195   9.407  11.615
 2017SOL     OW 7947   9.641   7.093   2.155
 2017SOL    HW1 7948   9.641   6.997   2.152
 2017SOL    HW2 7949   9.616   7.114   2.245
 2018SOL     OW 7950   1.371   6.171   6.743
 2018SOL    HW1 7951   1.442   6.172   6.679
 2018SOL    HW2 7952   1.295   6.140   6.694
 2019SOL     OW 7953  13.548   9.601   3.512
 2019SOL    HW1 7954  13.560   9.507   3.528
 2019SOL    HW2 7955  13.616   9.623   3.449
 2020SOL     OW 7956   4.577   7.315   8.046
 2020SOL    HW1 7957   4.609   7.283   8.130
 2020SOL    HW2 7958   4.494   7.269   8.033
 2021SOL     OW 7959   1.892  13.820   7.190
 2021SOL    HW1 7960   1.880  13.731   7.157
 2021SOL    HW2 7961   1.975  13.849   7.151
 2022SOL     OW 7962   8.705  12.548  10.924
 2022SOL    HW1 7963   8.705  12.504  11.009
 2022SOL    HW2 7964   8.612  12.561  10.904
 2023SOL     OW 7965   2.526   7.913  11.315
 2023SOL    HW1 7966   2.483   7.992  11.282
 2023SOL    HW2 7967   2.617   7.923  11.288
 2024SOL     OW 7968   6.221  14.783   9.653
 2024SOL    HW1 7969   6.233  14.759   9.745
 2024SOL    HW2 7970   6.217   0.003   9.654
 2025SOL     OW 7971   7.412   2.303  13.442
 2025SOL    HW1 7972   7.489   2.259  13.477
 2025SOL    HW2 7973   7.348   2.299  13.513
 2026SOL     OW 7974  12.342   5.476  14.520
 2026SOL    HW1 7975  12.306   5.425  14.593
 2026SOL    HW2 7976  12.429   5.439  14.505
 2027SOL     OW 7977   8.853   7.598  12.314
 2027SOL    HW1 7978   8.759   7.588  12.302
 2027SOL    HW2 7979   8.862   7.657  12.388
 2028SOL     OW 7980  11.139   9.057   4.615
 2028SOL    HW1 7981  11.221   9.085   4.657
 2028SOL    HW2 7982  11.166   8.990   4.551
 2029SOL     OW 7983   0.174   5.850   5.346
 2029SOL    HW1 7984   0.191   5.763   5.308
 2029SOL    HW2 7985   0.109   5.889   5.288
 2030SOL     OW 7986  11.537  14.421   2.263
 2030SOL    HW1 7987  11.477  14.465   2.323
 2030SOL    HW2 7988  11.615  14.403   2.315
 2031SOL     OW 7989   9.993   2.859   1.479
 2031SOL    HW1 7990   9.928   2.790   1.470
 2031SOL    HW2 7991   9.991   2.905   1.395
 2032SOL     OW 7992   4.274  12.219   3.470
 2032SOL    HW1 7993   4.285  12.314   3.476
 2032SOL    HW2 7994   4.312  12.186   3.551
 2033SOL     OW 7995   0.631   8.740   5.835
 2033SOL    HW1 7996   0.547   8.734   5.881
 2033SOL    HW2 7997   0.638   8.656   5.790
 2034SOL     OW 7998   6.385   1.526   5.570
 2034SOL    HW1 7999   6.352   1.490   5.652
 2034SOL    HW2 8000   6.390   1.620   5.585
 2035SOL     OW 8001  13.193   7.180   4.308
 2035SOL    HW1 8002  13.107   7.199   4.271
 2035SOL    HW2 8003  13.184   7.093   4.346
 2036SOL     OW 8004  14.578   5.689  11.843
 2036SOL    HW1 8005  14.521   5.652  11.910
 2036SOL    HW2 8006  14.565   5.784  11.849
 2037SOL     OW 8007   2.936   8.662  12.078
 2037SOL    HW1 8008   2.942   8.573  12.043
 2037SOL    HW2 8009   2.859   8.699  12.036
 2038SOL     OW 8010  12.586  12.887   8.864
 2038SOL    HW1 8011  12.670  12.880   8.819
 2038SOL    HW2 8012  12.605  12.939   8.942
 2039SOL     OW 8013   0.072   3.223   0.560
 2039SOL    HW1 8014   0.049   3.202   0.650
 2039SOL    HW2 8015  14.865   3.214   0.512
 2040SOL     OW 8016  14.402  11.919  12.598
 2040SOL    HW1 8017  14.421  11.847  12.538
 2040SOL    HW2 8018  14.376  11.992  12.542
 2041SOL     OW 8019  14.408  12.463   7.186
 2041SOL    HW1 8020  14.326  12.474   7.234
 2041SOL    HW2 8021  14.451  12.548   7.191
 2042SOL     OW 8022   8.531  12.114  14.058
 2042SOL    HW1 8023   8.495  12.203  14.050
 2042SOL    HW2 8024   8.562  12.093  13.970
 2043SOL     OW 8025   3.696  10.701   6.043
 2043SOL    HW1 8026   3.647  10.657   5.974
 2043SOL    HW2 8027   3.728  10.630   6.099
 2044SOL     OW 8028   5.516   7.588  10.127
 2044SOL    HW1 8029   5.505   7.555  10.037
 2044SOL    HW2 8030   5.448   7.543  10.177
 2045SOL     OW 8031   6.799  13.951   5.119
 2045SOL    HW1 8032   6.885  13.909   5.121
 2045SOL    HW2 8033   6.796  13.995   5.034
 2046SOL     OW 8034   1.582  10.043   4.079
 2046SOL    HW1 8035   1.642   9.979   4.118
 2046SOL    HW2 8036   1.637  10.095   4.021
 2047SOL     OW 8037   1.991   7.817   9.319
 2047SOL    HW1 8038   2.033   7.902   9.328
 2047SOL    HW2 8039   1.912   7.835   9.268
 2048SOL     OW 8040   6.556  14.598   1.152
 2048SOL    HW1 8041   6.584  14.554   1.232
 2048SOL    HW2 8042   6.637  14.608   1.101
 2049SOL     OW 8043   8.712  11.337  14.603
 2049SOL    HW1 8044   8.675  11.271  14.545
 2049SOL    HW2 8045   8.671  11.320  14.688
 2050SOL     OW 8046   8.590   7.101   6.273
 2050SOL    HW1 8047   8.546   7.039   6.331
 2050SOL    HW2 8048   8.519   7.143   6.225
 2051SOL     OW 8049   4.896   3.109   8.938
 2051SOL    HW1 8050   4.941   3.025   8.947
 2051SOL    HW2 8051   4.866   3.130   9.027
 2052SOL     OW 8052   4.014   0.600  13.088
 2052SOL    HW1 8053   3.927   0.604  13.049
 2052SOL    HW2 8054   4.016   0.672  13.151
 2053SOL     OW 8055  13.137  10.754   1.062
 2053SOL    HW1 8056  13.182  10.693   1.121
 2053SOL    HW2 8057  13.079  10.804   1.120
 2054SOL     OW 8058   1.860  10.786  12.561
 2054SOL    HW1 8059   1.938  10.791  12.507
 2054SOL    HW2 8060   1.842  10.692  12.569
 2055SOL     OW 8061  14.434   4.604  10.242
 2055SOL    HW1 8062  14.440   4.660  10.320
 2055SOL    HW2 8063  14.453   4.516  10.274
 2056SOL     OW 8064   8.240   7.809   4.276
 2056SOL    HW1 8065   8.288   7.801   4.358
 2056SOL    HW2 8066   8.150   7.786   4.299
 2057SOL     OW 8067  12.783  14.386  14.393
 2057SOL    HW1 8068  12.731  14.398  14.472
 2057SOL    HW2 8069  12.771  14.293  14.370
 2058SOL     OW 8070   5.517   1.704   4.194
 2058SOL    HW1 8071   5.446   1.767   4.183
 2058SOL    HW2 8072   5.472   1.622   4.218
 2059SOL     OW 8073   6.145   0.728   8.077
 2059SOL    HW1 8074   6.107   0.802   8.125
 2059SOL    HW2 8075   6.234   0.720   8.112
 2060SOL     OW 8076   5.312  11.773   6.487
 2060SOL    HW1 8077   5.400  11.793   6.518
 2060SOL    HW2 8078   5.305  11.678   6.492
 2061SOL     OW 8079   9.056  10.523  13.711
 2061SOL    HW1 8080   9.119  10.546  13.643
 2061SOL    HW2 8081   8.977  10.572  13.688
 2062SOL     OW 8082   3.764   0.531  14.408
 2062SOL    HW1 8083   3.810   0.514  14.490
 2062SOL    HW2 8084   3.768   0.627  14.398
 2063SOL     OW 8085  10.122   1.556   0.477
 2063SOL    HW1 8086  10.192   1.535   0.415
 2063SOL    HW2 8087  10.059   1.607   0.426
 2064SOL     OW 8088  14.174   8.555   4.887
 2064SOL    HW1 8089  14.101   8.596   4.842
 2064SOL    HW2 8090  14.133   8.501   4.954
 2065SOL     OW 8091   0.454   9.612   5.271
 2065SOL    HW1 8092   0.522   9.638   5.208
 2065SOL    HW2 8093   0.469   9.519   5.285
 2066SOL     OW 8094  14.750   6.603   9.283
 2066SOL    HW1 8095  14.828   6.658   9.287
 2066SOL    HW2 8096  14.773   6.533   9.223
 2067SOL     OW 8097  10.915  14.779  13.970
 2067SOL    HW1 8098  10.988  14.718  13.983
 2067SOL    HW2 8099  10.844  14.724  13.938
 2068SOL     OW 8100  12.345   0.201  10.963
 2068SOL    HW1 8101  12.423   0.230  11.012
 2068SOL    HW2 8102  12.360   0.233  10.874
 2069SOL     OW 8103  11.139  12.046   9.743
 2069SOL    HW1 8104  11.225  12.083   9.762
 2069SOL    HW2 8105  11.132  12.051   9.647
 2070SOL     OW 8106   7.620   5.118   2.877
 2070SOL    HW1 8107   7.654   5.152   2.794
 2070SOL    HW2 8108   7.661   5.174   2.943
 2071SOL     OW 8109  10.134   4.148   8.918
 2071SOL    HW1 8110  10.219   4.105   8.910
 2071SOL    HW2 8111  10.091   4.129   8.835
 2072SOL     OW 8112   9.991   4.627   8.569
 2072SOL    HW1 8113   9.984   4.604   8.476
 2072SOL    HW2 8114   9.923   4.693   8.583
 2073SOL     OW 8115   9.818   2.009   1.665
 2073SOL    HW1 8116   9.894   1.980   1.615
 2073SOL    HW2 8117   9.761   2.050   1.599
 2074SOL     OW 8118   3.062  14.721   1.360
 2074SOL    HW1 8119   3.015  14.663   1.419
 2074SOL    HW2 8120   3.095  14.664   1.291
 2075SOL     OW 8121  14.231  10.947   1.881
 2075SOL    HW1 8122  14.146  10.943   1.925
 2075SOL    HW2 8123  14.210  10.943   1.788
 2076SOL     OW 8124  11.304   2.555   4.392
 2076SOL    HW1 8125  11.237   2.617   4.423
 2076SOL    HW2 8126  11.298   2.559   4.297
 2077SOL     OW 8127   4.513   1.986  10.463
 2077SOL    HW1 8128   4.478   2.046  10.529
 2077SOL    HW2 8129   4.446   1.918  10.456
 2078SOL     OW 8130  14.799  11.722   8.479
 2078SOL    HW1 8131  14.772  11.769   8.558
 2078SOL    HW2 8132   0.007  11.682   8.503
 2079SOL     OW 8133   4.556   1.443   1.643
 2079SOL    HW1 8134   4.542   1.457   1.549
 2079SOL    HW2 8135   4.649   1.424   1.651
 2080SOL     OW 8136   0.190   9.629  13.673
 2080SOL    HW1 8137   0.152   9.626  13.586
 2080SOL    HW2 8138   0.138   9.567  13.724
 2081SOL     OW 8139   1.245  10.928   8.777
 2081SOL    HW1 8140   1.332  10.967   8.768
 2081SOL    HW2 8141   1.187  11.002   8.794
 2082SOL     OW 8142  10.074  14.166   5.176
 2082SOL    HW1 8143  10.066  14.105   5.103
 2082SOL    HW2 8144  10.053  14.252   5.138
 2083SOL     OW 8145  12.716  14.099  11.043
 2083SOL    HW1 8146  12.792  14.109  10.986
 2083SOL    HW2 8147  12.678  14.187  11.048
 2084SOL     OW 8148  13.319   0.041  10.369
 2084SOL    HW1 8149  13.342   0.122  10.323
 2084SOL    HW2 8150  13.398   0.018  10.419
 2085SOL     OW 8151  10.101  12.831   3.029
 2085SOL    HW1 8152  10.078  12.884   3.105
 2085SOL    HW2 8153  10.116  12.894   2.958
 2086SOL     OW 8154   9.689   3.063  11.116
 2086SOL    HW1 8155   9.622   3.006  11.080
 2086SOL    HW2 8156   9.676   3.147  11.072
 2087SOL     OW 8157  10.543  12.101  11.054
 2087SOL    HW1 8158  10.588  12.180  11.084
 2087SOL    HW2 8159  10.525  12.052  11.135
 2088SOL     OW 8160  11.112   1.163  12.342
 2088SOL    HW1 8161  11.173   1.232  12.316
 2088SOL    HW2 8162  11.043   1.165  12.276
 2089SOL     OW 8163   4.674   6.056  11.249
 2089SOL    HW1 8164   4.750   6.065  11.192
 2089SOL    HW2 8165   4.676   5.964  11.277
 2090SOL     OW 8166  14.745   7.330   9.021
 2090SOL    HW1 8167  14.784   7.296   8.941
 2090SOL    HW2 8168  14.685   7.262   9.051
 2091SOL     OW 8169   3.144   1.230   0.277
 2091SOL    HW1 8170   3.122   1.287   0.203
 2091SOL    HW2 8171   3.221   1.271   0.317
 2092SOL     OW 8172  14.507   5.992  14.709
 2092SOL    HW1 8173  14.420   5.990  14.668
 2092SOL    HW2 8174  14.489   5.987  14.803
 2093SOL     OW 8175   5.044   6.187   5.813
 2093SOL    HW1 8176   5.012   6.126   5.879
 2093SOL    HW2 8177   5.106   6.243   5.860
 2094SOL     OW 8178  10.558   8.038   2.481
 2094SOL    HW1 8179  10.505   8.118   2.477
 2094SOL    HW2 8180  10.549   8.000   2.394
 2095SOL     OW 8181   1.485  12.029  10.432
 2095SOL    HW1 8182   1.534  11.961  10.385
 2095SOL    HW2 8183   1.395  11.998  10.433
 2096SOL     OW 8184   6.272  12.633  14.131
 2096SOL    HW1 8185   6.202  12.578  14.094
 2096SOL    HW2 8186   6.227  12.712  14.160
 2097SOL     OW 8187  10.686   2.663   9.183
 2097SOL    HW1 8188  10.674   2.686   9.091
 2097SOL    HW2 8189  10.743   2.732   9.218
 2098SOL     OW 8190   8.634   7.459   2.360
 2098SOL    HW1 8191   8.671   7.533   2.407
 2098SOL    HW2 8192   8.646   7.385   2.419
 2099SOL     OW 8193   6.488   9.868   1.427
 2099SOL    HW1 8194   6.507   9.961   1.413
 2099SOL    HW2 8195   6.484   9.831   1.340
 2100SOL     OW 8196   2.949  14.408  14.685
 2100SOL    HW1 8197   2.873  14.459  14.657
 2100SOL    HW2 8198   2.999  14.396  14.604
 2101SOL     OW 8199  12.507   4.059  14.792
 2101SOL    HW1 8200  12.560   4.062  14.871
 2101SOL    HW2 8201  12.566   4.086  14.722
 2102SOL     OW 8202   7.296  11.559   7.181
 2102SOL    HW1 8203   7.299  11.638   7.234
 2102SOL    HW2 8204   7.306  11.590   7.091
 2103SOL     OW 8205   3.670   6.220  12.544
 2103SOL    HW1 8206   3.600   6.201  12.481
 2103SOL    HW2 8207   3.655   6.311  12.571
 2104SOL     OW 8208   2.319   9.033  12.800
 2104SOL    HW1 8209   2.232   9.006  12.831
 2104SOL    HW2 8210   2.330   8.986  12.717
 2105SOL     OW 8211  12.535  11.540  13.013
 2105SOL    HW1 8212  12.607  11.584  12.969
 2105SOL    HW2 8213  12.547  11.447  12.993
 2106SOL     OW 8214   8.270   4.695   5.229
 2106SOL    HW1 8215   8.190   4.676   5.181
 2106SOL    HW2 8216   8.339   4.652   5.179
 2107SOL     OW 8217   0.157  10.672   0.322
 2107SOL    HW1 8218   0.102  10.617   0.267
 2107SOL    HW2 8219   0.163  10.755   0.275
 2108SOL     OW 8220   0.303   7.688  14.786
 2108SOL    HW1 8221   0.298   7.652  14.874
 2108SOL    HW2 8222   0.306   7.612  14.728
 2109SOL     OW 8223   4.291  12.316   0.072
 2109SOL    HW1 8224   4.304  12.374   0.147
 2109SOL    HW2 8225   4.197  12.297   0.073
 2110SOL     OW 8226  10.855  11.955   9.272
 2110SOL    HW1 8227  10.885  12.041   9.300
 2110SOL    HW2 8228  10.918  11.894   9.309
 2111SOL     OW 8229   2.609   6.466   9.288
 2111SOL    HW1 8230   2.668   6.522   9.339
 2111SOL    HW2 8231   2.529   6.461   9.340
 2112SOL     OW 8232   9.669   5.526  11.703
 2112SOL    HW1 8233   9.696   5.461  11.638
 2112SOL    HW2 8234   9.749   5.574  11.724
 2113SOL     OW 8235  12.336   9.169  10.233
 2113SOL    HW1 8236  12.378   9.255  10.237
 2113SOL    HW2 8237  12.367   9.123  10.310
 2114SOL     OW 8238  12.817   5.963   3.195
 2114SOL    HW1 8239  12.830   5.895   3.261
 2114SOL    HW2 8240  12.802   5.915   3.114
 2115SOL     OW 8241  14.724   3.880   1.091
 2115SOL    HW1 8242  14.660   3.951   1.077
 2115SOL    HW2 8243  14.671   3.807   1.125
 2116SOL     OW 8244   8.302  12.657   7.416
 2116SOL    HW1 8245   8.392  12.659   7.449
 2116SOL    HW2 8246   8.288  12.744   7.380
 2117SOL     OW 8247  11.858   3.016   1.366
 2117SOL    HW1 8248  11.770   2.982   1.379
 2117SOL    HW2 8249  11.850   3.079   1.294
 2118SOL     OW 8250   8.619   5.480   4.055
 2118SOL    HW1 8251   8.545   5.537   4.075
 2118SOL    HW2 8252   8.636   5.434   4.137
 2119SOL     OW 8253  12.200   7.224   4.420
 2119SOL    HW1 8254  12.146   7.257   4.493
 2119SOL    HW2 8255  12.140   7.168   4.370
 2120SOL     OW 8256   9.994   0.478   5.905
 2120SOL    HW1 8257  10.030   0.419   5.838
 2120SOL    HW2 8258   9.969   0.557   5.856
 2121SOL     OW 8259  14.329   3.913   9.703
 2121SOL    HW1 8260  14.303   3.928   9.793
 2121SOL    HW2 8261  14.283   3.833   9.677
 2122SOL     OW 8262   2.923   2.386   5.398
 2122SOL    HW1 8263   2.942   2.350   5.485
 2122SOL    HW2 8264   3.006   2.421   5.368
 2123SOL     OW 8265   5.983   9.106  12.490
 2123SOL    HW1 8266   5.951   9.194  12.472
 2123SOL    HW2 8267   6.037   9.084  12.414
 2124SOL     OW 8268  12.995  13.734   3.449
 2124SOL    HW1 8269  12.969  13.643   3.436
 2124SOL    HW2 8270  13.091  13.732   3.450
 2125SOL     OW 8271  14.671  12.414   0.069
 2125SOL    HW1 8272  14.626  12.339   0.109
 2125SOL    HW2 8273  14.696  12.469   0.142
 2126SOL     OW 8274   7.143   3.152  11.887
 2126SOL    HW1 8275   7.132   3.212  11.815
 2126SOL    HW2 8276   7.162   3.067  11.846
 2127SOL     OW 8277   8.822  12.695   1.431
 2127SOL    HW1 8278   8.748  12.713   1.373
 2127SOL    HW2 8279   8.803  12.747   1.510
 2128SOL     OW 8280   3.529   2.697   3.225
 2128SOL    HW1 8281   3.521   2.774   3.168
 2128SOL    HW2 8282   3.454   2.642   3.202
 2129SOL     OW 8283   2.024  10.100  13.055
 2129SOL    HW1 8284   2.095  10.039  13.037
 2129SOL    HW2 8285   1.944  10.048  13.047
 2130SOL     OW 8286   1.511   7.316   1.015
 2130SOL    HW1 8287   1.545   7.388   0.961
 2130SOL    HW2 8288   1.501   7.354   1.102
 2131SOL     OW 8289   4.094   5.080   1.709
 2131SOL    HW1 8290   4.025   5.105   1.770
 2131SOL    HW2 8291   4.049   5.064   1.626
 2132SOL     OW 8292  11.309   3.059   3.297
 2132SOL    HW1 8293  11.216   3.060   3.272
 2132SOL    HW2 8294  11.349   3.127   3.244
 2133SOL     OW 8295   0.008   5.937  12.720
 2133SOL    HW1 8296  14.824   5.945  12.795
 2133SOL    HW2 8297  14.832   5.887  12.655
 2134SOL     OW 8298   9.597   6.923  14.194
 2134SOL    HW1 8299   9.508   6.957  14.199
 2134SOL    HW2 8300   9.637   6.947  14.278
 2135SOL     OW 8301  14.097   2.218  12.286
 2135SOL    HW1 8302  14.008   2.209  12.251
 2135SOL    HW2 8303  14.122   2.308  12.267
 2136SOL     OW 8304   0.047   0.080  11.609
 2136SOL    HW1 8305   0.100   0.042  11.539
 2136SOL    HW2 8306   0.063   0.174  11.602
 2137SOL     OW 8307   5.976   9.792   5.702
 2137SOL    HW1 8308   6.014   9.707   5.680
 2137SOL    HW2 8309   5.948   9.784   5.793
 2138SOL     OW 8310   3.240   2.610   1.606
 2138SOL    HW1 8311   3.180   2.582   1.537
 2138SOL    HW2 8312   3.289   2.530   1.629
 2139SOL     OW 8313   9.322   5.227   8.459
 2139SOL    HW1 8314   9.388   5.185   8.405
 2139SOL    HW2 8315   9.343   5.320   8.456
 2140SOL     OW 8316   9.217   9.830  14.825
 2140SOL    HW1 8317   9.174   9.895   0.006
 2140SOL    HW2 8318   9.176   9.747  14.849
 2141SOL     OW 8319   2.923   1.301   7.392
 2141SOL    HW1 8320   2.891   1.275   7.479
 2141SOL    HW2 8321   2.851   1.281   7.333
 2142SOL     OW 8322   9.492   2.222   6.477
 2142SOL    HW1 8323   9.465   2.201   6.388
 2142SOL    HW2 8324   9.577   2.180   6.487
 2143SOL     OW 8325  11.219  10.678   8.023
 2143SOL    HW1 8326  11.292  10.739   8.026
 2143SOL    HW2 8327  11.160  10.706   8.093
 2144SOL     OW 8328   3.588   9.661   6.624
 2144SOL    HW1 8329   3.587   9.750   6.659
 2144SOL    HW2 8330   3.517   9.660   6.560
 2145SOL     OW 8331   7.345   2.050   5.689
 2145SOL    HW1 8332   7.397   2.068   5.767
 2145SOL    HW2 8333   7.338   2.134   5.644
 2146SOL     OW 8334  11.705   6.341   9.917
 2146SOL    HW1 8335  11.753   6.353   9.835
 2146SOL    HW2 8336  11.665   6.255   9.910
 2147SOL     OW 8337  13.735  13.527   2.836
 2147SOL    HW1 8338  13.665  13.583   2.801
 2147SOL    HW2 8339  13.742  13.456   2.772
 2148SOL     OW 8340   0.063   3.495   4.965
 2148SOL    HW1 8341   0.044   3.494   5.059
 2148SOL    HW2 8342  14.870   3.441   4.926
 2149SOL     OW 8343   6.144   0.958   7.867
 2149SOL    HW1 8344   6.143   0.868   7.901
 2149SOL    HW2 8345   6.218   0.999   7.912
 2150SOL     OW 8346   7.098  11.135  11.787
 2150SOL    HW1 8347   7.124  11.087  11.866
 2150SOL    HW2 8348   7.091  11.068  11.719
 2151SOL     OW 8349   3.647  12.936  10.819
 2151SOL    HW1 8350   3.553  12.918  10.811
 2151SOL    HW2 8351   3.689  12.860  10.778
 2152SOL     OW 8352  13.969   0.256   8.481
 2152SOL    HW1 8353  14.004   0.177   8.441
 2152SOL    HW2 8354  13.874   0.250   8.467
 2153SOL     OW 8355  11.280   3.057  13.835
 2153SOL    HW1 8356  11.370   3.028  13.821
 2153SOL    HW2 8357  11.286   3.123  13.903
 2154SOL     OW 8358   0.200  12.813   7.478
 2154SOL    HW1 8359   0.213  12.725   7.515
 2154SOL    HW2 8360   0.132  12.852   7.533
 2155SOL     OW 8361   9.571   0.672   2.410
 2155SOL    HW1 8362   9.494   0.631   2.371
 2155SOL    HW2 8363   9.576   0.758   2.369
 2156SOL     OW 8364  12.794  10.913  14.009
 2156SOL    HW1 8365  12.741  10.929  13.930
 2156SOL    HW2 8366  12.870  10.865  13.977
 2157SOL     OW 8367   9.507  11.648   0.337
 2157SOL    HW1 8368   9.601  11.661   0.348
 2157SOL    HW2 8369   9.472  11.736   0.322
 2158SOL     OW 8370  14.736   0.788   6.056
 2158SOL    HW1 8371  14.728   0.858   6.121
 2158SOL    HW2 8372  14.804   0.730   6.090
 2159SOL     OW 8373   8.373   4.229  13.593
 2159SOL    HW1 8374   8.363   4.154  13.652
 2159SOL    HW2 8375   8.373   4.192  13.505
 2160SOL     OW 8376   6.850   5.165   4.821
 2160SOL    HW1 8377   6.818   5.085   4.862
 2160SOL    HW2 8378   6.829   5.154   4.728
 2161SOL     OW 8379  11.647  14.773  13.496
 2161SOL    HW1 8380  11.684  14.700  13.445
 2161SOL    HW2 8381  11.705  14.781  13.571
 2162SOL     OW 8382  12.217  12.526  13.540
 2162SOL    HW1 8383  12.194  12.493  13.627
 2162SOL    HW2 8384  12.298  12.575  13.554
 2163SOL     OW 8385   3.307   9.537   0.537
 2163SOL    HW1 8386   3.272   9.619   0.572
 2163SOL    HW2 8387   3.261   9.468   0.585
 2164SOL     OW 8388   3.955   9.387   4.557
 2164SOL    HW1 8389   3.982   9.474   4.528
 2164SOL    HW2 8390   4.035   9.345   4.587
 2165SOL     OW 8391   5.702  12.836  10.059
 2165SOL    HW1 8392   5.611  12.856  10.081
 2165SOL    HW2 8393   5.752  12.906  10.101
 2166SOL     OW 8394   1.312  10.793   7.126
 2166SOL    HW1 8395   1.377  10.851   7.166
 2166SOL    HW2 8396   1.364  10.724   7.084
 2167SOL     OW 8397   9.618   2.468   7.445
 2167SOL    HW1 8398   9.539   2.415   7.432
 2167SOL    HW2 8399   9.690   2.406   7.436
 2168SOL     OW 8400   9.240   4.766   1.936
 2168SOL    HW1 8401   9.255   4.837   1.873
 2168SOL    HW2 8402   9.320   4.714   1.933
 2169SOL     OW 8403  12.553  14.019   7.403
 2169SOL    HW1 8404  12.510  13.944   7.445
 2169SOL    HW2 8405  12.570  14.080   7.475
 2170SOL     OW 8406   8.839  13.991  10.987
 2170SOL    HW1 8407   8.909  13.928  11.006
 2170SOL    HW2 8408   8.886  14.072  10.966
 2171SOL     OW 8409   1.325   9.818  11.294
 2171SOL    HW1 8410   1.342   9.786  11.383
 2171SOL    HW2 8411   1.255   9.762  11.261
 2172SOL     OW 8412  12.569   9.087   9.937
 2172SOL    HW1 8413  12.605   9.073  10.024
 2172SOL    HW2 8414  12.497   9.148   9.951
 2173SOL     OW 8415   5.993   3.247   7.278
 2173SOL    HW1 8416   5.986   3.285   7.366
 2173SOL    HW2 8417   5.904   3.254   7.242
 2174SOL     OW 8418  14.547  11.028  11.750
 2174SOL    HW1 8419  14.592  10.990  11.825
 2174SOL    HW2 8420  14.502  11.104  11.784
 2175SOL     OW 8421   8.533   6.112   5.807
 2175SOL    HW1 8422   8.498   6.153   5.728
 2175SOL    HW2 8423   8.604   6.056   5.775
 2176SOL     OW 8424   8.958   5.487   2.460
 2176SOL    HW1 8425   8.912   5.569   2.444
 2176SOL    HW2 8426   9.049   5.513   2.475
 2177SOL     OW 8427  11.231   4.789   0.405
 2177SOL    HW1 8428  11.143   4.823   0.423
 2177SOL    HW2 8429  11.229   4.699   0.438
 2178SOL     OW 8430  13.223  12.165  14.423
 2178SOL    HW1 8431  13.178  12.166  14.339
 2178SOL    HW2 8432  13.277  12.244  14.422
 2179SOL     OW 8433  14.072  10.087   6.065
 2179SOL    HW1 8434  14.144  10.030   6.037
 2179SOL    HW2 8435  14.112  10.173   6.076
 2180SOL     OW 8436  10.913   0.062   3.376
 2180SOL    HW1 8437  10.870   0.019   3.450
 2180SOL    HW2 8438  10.898   0.155   3.391
 2181SOL     OW 8439   2.000   4.977  14.202
 2181SOL    HW1 8440   1.919   4.980  14.252
 2181SOL    HW2 8441   2.047   5.057  14.226
 2182SOL     OW 8442  12.501   8.087   2.649
 2182SOL    HW1 8443  12.413   8.116   2.674
 2182SOL    HW2 8444  12.541   8.059   2.731
 2183SOL     OW 8445   2.882  10.356   8.332
 2183SOL    HW1 8446   2.794  10.392   8.342
 2183SOL    HW2 8447   2.939  10.433   8.328
 2184SOL     OW 8448   7.723   5.233  14.771
 2184SOL    HW1 8449   7.754   5.157  14.821
 2184SOL    HW2 8450   7.685   5.291  14.837
 2185SOL     OW 8451   0.925   0.983   3.464
 2185SOL    HW1 8452   0.964   1.070   3.473
 2185SOL    HW2 8453   0.866   0.990   3.389
 2186SOL     OW 8454   7.363   1.970   7.351
 2186SOL    HW1 8455   7.446   2.015   7.334
 2186SOL    HW2 8456   7.316   1.974   7.268
 2187SOL     OW 8457   2.636   5.820   2.248
 2187SOL    HW1 8458   2.693   5.896   2.235
 2187SOL    HW2 8459   2.682   5.747   2.206
 2188SOL     OW 8460   6.501  10.025  12.345
 2188SOL    HW1 8461   6.576   9.996  12.293
 2188SOL    HW2 8462   6.455  10.087  12.288
 2189SOL     OW 8463   4.152   2.133   2.204
 2189SOL    HW1 8464   4.199   2.117   2.122
 2189SOL    HW2 8465   4.219   2.125   2.272
 2190SOL     OW 8466   6.384  11.321   0.887
 2190SOL    HW1 8467   6.363  11.344   0.796
 2190SOL    HW2 8468   6.309  11.352   0.937
 2191SOL     OW 8469  11.351   9.587   6.927
 2191SOL    HW1 8470  11.341   9.641   7.005
 2191SOL    HW2 8471  11.444   9.594   6.904
 2192SOL     OW 8472   9.413   5.817   4.213
 2192SOL    HW1 8473   9.437   5.847   4.125
 2192SOL    HW2 8474   9.329   5.772   4.200
 2193SOL     OW 8475   7.055   8.131  10.734
 2193SOL    HW1 8476   7.066   8.166  10.645
 2193SOL    HW2 8477   7.100   8.194  10.790
 2194SOL     OW 8478   4.133   5.682   9.457
 2194SOL    HW1 8479   4.073   5.752   9.432
 2194SOL    HW2 8480   4.214   5.702   9.411
 2195SOL     OW 8481  11.561   7.049   3.184
 2195SOL    HW1 8482  11.547   7.074   3.092
 2195SOL    HW2 8483  11.527   6.960   3.190
 2196SOL     OW 8484   7.989   7.803   0.636
 2196SOL    HW1 8485   7.896   7.822   0.640
 2196SOL    HW2 8486   7.998   7.713   0.669
 2197SOL     OW 8487  13.492   6.880   8.159
 2197SOL    HW1 8488  13.419   6.940   8.145
 2197SOL    HW2 8489  13.484   6.815   8.088
 2198SOL     OW 8490   6.619   4.552  14.216
 2198SOL    HW1 8491   6.609   4.476  14.272
 2198SOL    HW2 8492   6.676   4.522  14.145
 2199SOL     OW 8493  14.868   4.226   3.958
 2199SOL    HW1 8494  14.807   4.163   3.922
 2199SOL    HW2 8495  14.815   4.304   3.975
 2200SOL     OW 8496   3.702   8.661   7.096
 2200SOL    HW1 8497   3.717   8.614   7.178
 2200SOL    HW2 8498   3.609   8.683   7.097
 2201SOL     OW 8499   9.396   4.012   2.755
 2201SOL    HW1 8500   9.317   4.034   2.804
 2201SOL    HW2 8501   9.467   4.047   2.808
 2202SOL     OW 8502   7.237   0.453  13.406
 2202SOL    HW1 8503   7.295   0.529  13.404
 2202SOL    HW2 8504   7.228   0.432  13.499
 2203SOL     OW 8505  14.525  11.631   6.714
 2203SOL    HW1 8506  14.433  11.624   6.738
 2203SOL    HW2 8507  14.548  11.722   6.734
 2204SOL     OW 8508   5.111  11.197  10.677
 2204SOL    HW1 8509   5.029  11.150  10.661
 2204SOL    HW2 8510   5.163  11.136  10.730
 2205SOL     OW 8511   3.060   2.600   3.467
 2205SOL    HW1 8512   3.057   2.695   3.479
 2205SOL    HW2 8513   3.153   2.579   3.459
 2206SOL     OW 8514   5.043   4.532   6.941
 2206SOL    HW1 8515   5.064   4.474   7.014
 2206SOL    HW2 8516   5.122   4.582   6.925
 2207SOL     OW 8517   6.602   5.334   1.585
 2207SOL    HW1 8518   6.692   5.315   1.610
 2207SOL    HW2 8519   6.552   5.257   1.612
 2208SOL     OW 8520  11.911   0.961  14.221
 2208SOL    HW1 8521  11.841   0.909  14.182
 2208SOL    HW2 8522  11.961   0.898  14.274
 2209SOL     OW 8523   8.487   0.448  14.078
 2209SOL    HW1 8524   8.450   0.362  14.096
 2209SOL    HW2 8525   8.491   0.452  13.982
 2210SOL     OW 8526   5.307   9.688   0.856
 2210SOL    HW1 8527   5.269   9.683   0.769
 2210SOL    HW2 8528   5.309   9.598   0.887
 2211SOL     OW 8529   5.789  10.652   5.720
 2211SOL    HW1 8530   5.772  10.729   5.666
 2211SOL    HW2 8531   5.884  10.642   5.718
 2212SOL     OW 8532   4.516  13.160   6.785
 2212SOL    HW1 8533   4.571  13.120   6.852
 2212SOL    HW2 8534   4.563  13.142   6.703
 2213SOL     OW 8535  12.468   0.710  12.267
 2213SOL    HW1 8536  12.406   0.782  12.254
 2213SOL    HW2 8537  12.413   0.633  12.282
 2214SOL     OW 8538  13.734   7.463   1.667
 2214SOL    HW1 8539  13.766   7.527   1.603
 2214SOL    HW2 8540  13.638   7.471   1.662
 2215SOL     OW 8541  11.186   9.737   6.737
 2215SOL    HW1 8542  11.250   9.717   6.806
 2215SOL    HW2 8543  11.239   9.777   6.668
 2216SOL     OW 8544   6.690   2.810   2.234
 2216SOL    HW1 8545   6.757   2.742   2.230
 2216SOL    HW2 8546   6.708   2.857   2.315
 2217SOL     OW 8547   6.712   2.172   5.195
 2217SOL    HW1 8548   6.704   2.086   5.154
 2217SOL    HW2 8549   6.806   2.188   5.201
 2218SOL     OW 8550  14.574   7.666  11.439
 2218SOL    HW1 8551  14.572   7.602  11.509
 2218SOL    HW2 8552  14.497   7.721  11.454
 2219SOL     OW 8553   8.280   7.735   1.040
 2219SOL    HW1 8554   8.268   7.686   1.121
 2219SOL    HW2 8555   8.193   7.769   1.019
 2220SOL     OW 8556  11.419   0.142   4.816
 2220SOL    HW1 8557  11.450   0.225   4.778
 2220SOL    HW2 8558  11.473   0.130   4.894
 2221SOL     OW 8559   8.349  14.056   6.166
 2221SOL    HW1 8560   8.358  14.111   6.087
 2221SOL    HW2 8561   8.417  14.089   6.225
 2222SOL     OW 8562  11.775   0.678  13.409
 2222SOL    HW1 8563  11.698   0.632  13.377
 2222SOL    HW2 8564  11.801   0.735  13.336
 2223SOL     OW 8565   9.685   0.422   1.402
 2223SOL    HW1 8566   9.700   0.514   1.382
 2223SOL    HW2 8567   9.619   0.423   1.471
 2224SOL     OW 8568   3.231   1.041   2.812
 2224SOL    HW1 8569   3.239   1.098   2.888
 2224SOL    HW2 8570   3.187   0.963   2.846
 2225SOL     OW 8571   8.643   2.054  12.301
 2225SOL    HW1 8572   8.562   2.082  12.342
 2225SOL    HW2 8573   8.641   1.959  12.304
 2226SOL     OW 8574  11.052   3.054  13.680
 2226SOL    HW1 8575  11.125   3.051  13.741
 2226SOL    HW2 8576  10.985   2.997  13.718
 2227SOL     OW 8577   4.499   2.206   7.777
 2227SOL    HW1 8578   4.562   2.155   7.726
 2227SOL    HW2 8579   4.551   2.250   7.843
 2228SOL     OW 8580   4.315  11.358   0.907
 2228SOL    HW1 8581   4.369  11.416   0.960
 2228SOL    HW2 8582   4.290  11.410   0.831
 2229SOL     OW 8583   6.967   7.571   7.037
 2229SOL    HW1 8584   7.026   7.601   6.968
 2229SOL    HW2 8585   6.891   7.630   7.031
 2230SOL     OW 8586   8.846  13.591  12.924
 2230SOL    HW1 8587   8.916  13.561  12.983
 2230SOL    HW2 8588   8.806  13.665  12.971
 2231SOL     OW 8589  11.317   2.682   8.247
 2231SOL    HW1 8590  11.400   2.725   8.269
 2231SOL    HW2 8591  11.283   2.653   8.332
 2232SOL     OW 8592   3.692  11.965  11.009
 2232SOL    HW1 8593   3.746  11.887  11.025
 2232SOL    HW2 8594   3.727  12.002  10.927
 2233SOL     OW 8595   2.020  11.077   5.393
 2233SOL    HW1 8596   2.107  11.069   5.355
 2233SOL    HW2 8597   2.014  11.006   5.456
 2234SOL     OW 8598  12.693  12.993   3.455
 2234SOL    HW1 8599  12.702  13.062   3.521
 2234SOL    HW2 8600  12.635  13.031   3.388
 2235SOL     OW 8601   4.640   1.006  10.353
 2235SOL    HW1 8602   4.714   0.951  10.378
 2235SOL    HW2 8603   4.649   1.017  10.258
 2236SOL     OW 8604   2.885   4.741  11.732
 2236SOL    HW1 8605   2.822   4.685  11.778
 2236SOL    HW2 8606   2.836   4.778  11.660
 2237SOL     OW 8607  14.406  11.186  14.351
 2237SOL    HW1 8608  14.478  11.178  14.289
 2237SOL    HW2 8609  14.334  11.136  14.311
 2238SOL     OW 8610   8.902  11.040   1.883
 2238SOL    HW1 8611   8.862  11.089   1.810
 2238SOL    HW2 8612   8.987  11.081   1.895
 2239SOL     OW 8613   9.021   6.433   1.359
 2239SOL    HW1 8614   8.998   6.478   1.277
 2239SOL    HW2 8615   9.004   6.341   1.341
 2240SOL     OW 8616   8.463   0.757   2.854
 2240SOL    HW1 8617   8.509   0.694   2.910
 2240SOL    HW2 8618   8.531   0.795   2.799
 2241SOL     OW 8619  13.899   0.783   1.003
 2241SOL    HW1 8620  13.834   0.845   1.034
 2241SOL    HW2 8621  13.972   0.792   1.065
 2242SOL     OW 8622   8.759  14.639  11.696
 2242SOL    HW1 8623   8.832  14.589  11.733
 2242SOL    HW2 8624   8.736  14.703  11.763
 2243SOL     OW 8625   6.976   8.581  12.154
 2243SOL    HW1 8626   7.002   8.495  12.188
 2243SOL    HW2 8627   7.058   8.627  12.140
 2244SOL     OW 8628  13.419   3.765   2.807
 2244SOL    HW1 8629  13.476   3.732   2.876
 2244SOL    HW2 8630  13.453   3.725   2.726
 2245SOL     OW 8631  12.110   7.984   0.777
 2245SOL    HW1 8632  12.051   7.940   0.717
 2245SOL    HW2 8633  12.110   8.076   0.749
 2246SOL     OW 8634   3.588  14.249  10.339
 2246SOL    HW1 8635   3.510  14.293  10.305
 2246SOL    HW2 8636   3.647  14.242  10.264
 2247SOL     OW 8637   7.805  11.850  12.379
 2247SOL    HW1 8638   7.829  11.896  12.460
 2247SOL    HW2 8639   7.771  11.765  12.409
 2248SOL     OW 8640  10.574  11.404   0.873
 2248SOL    HW1 8641  10.483  11.386   0.897
 2248SOL    HW2 8642  10.621  11.404   0.957
 2249SOL     OW 8643   6.162   0.194   3.268
 2249SOL    HW1 8644   6.069   0.187   3.247
 2249SOL    HW2 8645   6.166   0.183   3.363
 2250SOL     OW 8646   1.888   6.269  10.488
 2250SOL    HW1 8647   1.841   6.250  10.407
 2250SOL    HW2 8648   1.865   6.359  10.510
 2251SOL     OW 8649   4.594   4.934  13.697
 2251SOL    HW1 8650   4.591   4.838  13.701
 2251SOL    HW2 8651   4.610   4.961  13.787
 2252SOL     OW 8652   6.326  10.915   8.074
 2252SOL    HW1 8653   6.409  10.893   8.116
 2252SOL    HW2 8654   6.347  10.984   8.012
 2253SOL     OW 8655  13.704   5.611   2.895
 2253SOL    HW1 8656  13.717   5.669   2.970
 2253SOL    HW2 8657  13.636   5.550   2.923
 2254SOL     OW 8658   1.439  13.483   8.251
 2254SOL    HW1 8659   1.354  13.515   8.282
 2254SOL    HW2 8660   1.499  13.502   8.323
 2255SOL     OW 8661   0.858  10.769   8.499
 2255SOL    HW1 8662   0.795  10.833   8.532
 2255SOL    HW2 8663   0.807  10.713   8.440
 2256SOL     OW 8664   3.418   3.942  11.022
 2256SOL    HW1 8665   3.484   3.883  10.985
 2256SOL    HW2 8666   3.335   3.897  11.010
 2257SOL     OW 8667  10.990   1.002   5.618
 2257SOL    HW1 8668  10.914   0.948   5.595
 2257SOL    HW2 8669  10.994   0.998   5.713
 2258SOL     OW 8670   0.809   8.333  10.185
 2258SOL    HW1 8671   0.794   8.358  10.094
 2258SOL    HW2 8672   0.904   8.330  10.194
 2259SOL     OW 8673   4.317   5.679   1.393
 2259SOL    HW1 8674   4.264   5.734   1.451
 2259SOL    HW2 8675   4.326   5.731   1.312
 2260SOL     OW 8676   5.821  10.871   1.927
 2260SOL    HW1 8677   5.842  10.866   2.020
 2260SOL    HW2 8678   5.824  10.964   1.906
 2261SOL     OW 8679   4.877  12.038   3.274
 2261SOL    HW1 8680   4.801  12.011   3.222
 2261SOL    HW2 8681   4.839  12.083   3.350
 2262SOL     OW 8682   1.006   1.271  13.107
 2262SOL    HW1 8683   0.995   1.288  13.200
 2262SOL    HW2 8684   1.041   1.352  13.071
 2263SOL     OW 8685   6.521   3.331  10.299
 2263SOL    HW1 8686   6.616   3.345  10.302
 2263SOL    HW2 8687   6.498   3.309  10.389
 2264SOL     OW 8688   7.663   0.959  13.354
 2264SOL    HW1 8689   7.580   1.006  13.346
 2264SOL    HW2 8690   7.689   0.973  13.445
 2265SOL     OW 8691   0.931   0.643  10.877
 2265SOL    HW1 8692   0.955   0.552  10.862
 2265SOL    HW2 8693   0.837   0.640  10.895
 2266SOL     OW 8694   4.499  14.045   9.716
 2266SOL    HW1 8695   4.582  14.030   9.671
 2266SOL    HW2 8696   4.475  14.135   9.695
 2267SOL     OW 8697   4.710  11.264   1.458
 2267SOL    HW1 8698   4.747  11.202   1.395
 2267SOL    HW2 8699   4.765  11.341   1.450
 2268SOL     OW 8700  13.195  13.260   2.784
 2268SOL    HW1 8701  13.277  13.262   2.733
 2268SOL    HW2 8702  13.159  13.348   2.773
 2269SOL     OW 8703   4.205  12.606   6.327
 2269SOL    HW1 8704   4.213  12.681   6.386
 2269SOL    HW2 8705   4.259  12.538   6.368
 2270SOL     OW 8706  13.305  14.532  11.470
 2270SOL    HW1 8707  13.281  14.569  11.385
 2270SOL    HW2 8708  13.379  14.585  11.500
 2271SOL     OW 8709  10.737   1.966  10.594
 2271SOL    HW1 8710  10.802   1.908  10.633
 2271SOL    HW2 8711  10.666   1.908  10.567
 2272SOL     OW 8712   3.853   7.835   8.412
 2272SOL    HW1 8713   3.872   7.831   8.506
 2272SOL    HW2 8714   3.775   7.781   8.402
 2273SOL     OW 8715   2.914  14.175   3.355
 2273SOL    HW1 8716   3.009  14.165   3.358
 2273SOL    HW2 8717   2.891  14.154   3.264
 2274SOL     OW 8718  14.751  14.682   3.358
 2274SOL    HW1 8719  14.683  14.681   3.290
 2274SOL    HW2 8720  14.793  14.597   3.350
 2275SOL     OW 8721  14.861   4.084   9.414
 2275SOL    HW1 8722  14.837   4.175   9.399
 2275SOL    HW2 8723   0.040   4.085   9.493
 2276SOL     OW 8724   0.166  14.827   9.185
 2276SOL    HW1 8725   0.220  14.817   9.263
 2276SOL    HW2 8726   0.200  14.761   9.124
 2277SOL     OW 8727   7.693  14.730   1.131
 2277SOL    HW1 8728   7.710  14.770   1.045
 2277SOL    HW2 8729   7.627  14.663   1.113
 2278SOL     OW 8730   7.102  10.059   4.779
 2278SOL    HW1 8731   7.015  10.060   4.739
 2278SOL    HW2 8732   7.160  10.025   4.711
 2279SOL     OW 8733   8.848   5.742   7.958
 2279SOL    HW1 8734   8.763   5.711   7.926
 2279SOL    HW2 8735   8.840   5.837   7.959
 2280SOL     OW 8736   2.887   7.994   3.128
 2280SOL    HW1 8737   2.973   7.968   3.096
 2280SOL    HW2 8738   2.904   8.063   3.192
 2281SOL     OW 8739  12.665   5.324   6.352
 2281SOL    HW1 8740  12.585   5.289   6.391
 2281SOL    HW2 8741  12.706   5.375   6.422
 2282SOL     OW 8742   3.140   9.122   2.536
 2282SOL    HW1 8743   3.147   9.162   2.449
 2282SOL    HW2 8744   3.229   9.125   2.572
 2283SOL     OW 8745  14.375   5.961   2.778
 2283SOL    HW1 8746  14.364   5.906   2.855
 2283SOL    HW2 8747  14.360   5.903   2.704
 2284SOL     OW 8748   7.039   5.163  10.967
 2284SOL    HW1 8749   7.092   5.179  11.044
 2284SOL    HW2 8750   7.080   5.088  10.924
 2285SOL     OW 8751   9.811   7.956   8.364
 2285SOL    HW1 8752   9.727   7.935   8.323
 2285SOL    HW2 8753   9.847   7.871   8.389
 2286SOL     OW 8754   6.812   8.580   6.748
 2286SOL    HW1 8755   6.741   8.516   6.740
 2286SOL    HW2 8756   6.837   8.578   6.840
 2287SOL     OW 8757   3.242   0.553  10.007
 2287SOL    HW1 8758   3.284   0.490  10.065
 2287SOL    HW2 8759   3.165   0.583  10.056
 2288SOL     OW 8760   0.596  12.548   6.220
 2288SOL    HW1 8761   0.666  12.585   6.167
 2288SOL    HW2 8762   0.516  12.590   6.188
 2289SOL     OW 8763   5.828   2.507  10.307
 2289SOL    HW1 8764   5.831   2.504  10.212
 2289SOL    HW2 8765   5.916   2.535  10.334
 2290SOL     OW 8766  12.199  11.037   8.658
 2290SOL    HW1 8767  12.227  11.124   8.688
 2290SOL    HW2 8768  12.279  10.995   8.627
 2291SOL     OW 8769  13.538  11.350   7.269
 2291SOL    HW1 8770  13.565  11.402   7.193
 2291SOL    HW2 8771  13.509  11.267   7.232
 2292SOL     OW 8772   3.747   9.743   2.624
 2292SOL    HW1 8773   3.749   9.838   2.613
 2292SOL    HW2 8774   3.814   9.726   2.690
 2293SOL     OW 8775   1.150   3.613   1.710
 2293SOL    HW1 8776   1.174   3.656   1.628
 2293SOL    HW2 8777   1.057   3.631   1.721
 2294SOL     OW 8778   4.657   6.472   3.292
 2294SOL    HW1 8779   4.618   6.558   3.306
 2294SOL    HW2 8780   4.704   6.453   3.373
 2295SOL     OW 8781  11.183   5.985   9.763
 2295SOL    HW1 8782  11.107   6.004   9.708
 2295SOL    HW2 8783  11.254   6.035   9.723
 2296SOL     OW 8784  13.322   5.026   9.221
 2296SOL    HW1 8785  13.254   5.063   9.165
 2296SOL    HW2 8786  13.403   5.034   9.169
 2297SOL     OW 8787  11.709  12.565   0.105
 2297SOL    HW1 8788  11.625  12.602   0.130
 2297SOL    HW2 8789  11.763  12.641   0.082
 2298SOL     OW 8790   7.905  12.780   8.441
 2298SOL    HW1 8791   7.933  12.869   8.464
 2298SOL    HW2 8792   7.819  12.771   8.482
 2299SOL     OW 8793  14.657  14.622   9.909
 2299SOL    HW1 8794  14.606  14.703   9.900
 2299SOL    HW2 8795  14.643  14.596  10.000
 2300SOL     OW 8796   2.300   1.982  14.157
 2300SOL    HW1 8797   2.384   1.989  14.202
 2300SOL    HW2 8798   2.324   1.965  14.065
 2301SOL     OW 8799   6.948   6.746   5.460
 2301SOL    HW1 8800   6.899   6.678   5.414
 2301SOL    HW2 8801   6.901   6.827   5.439
 2302SOL     OW 8802   2.071   9.535   3.781
 2302SOL    HW1 8803   2.108   9.566   3.864
 2302SOL    HW2 8804   1.980   9.564   3.783
 2303SOL     OW 8805  11.550  13.404  14.780
 2303SOL    HW1 8806  11.478  13.453  14.739
 2303SOL    HW2 8807  11.508  13.354  14.850
 2304SOL     OW 8808   6.022   9.499  11.994
 2304SOL    HW1 8809   6.037   9.572  11.933
 2304SOL    HW2 8810   5.935   9.515  12.030
 2305SOL     OW 8811   0.384   3.439   9.048
 2305SOL    HW1 8812   0.440   3.405   8.978
 2305SOL    HW2 8813   0.317   3.372   9.059
 2306SOL     OW 8814   5.853   5.711  14.668
 2306SOL    HW1 8815   5.776   5.764  14.685
 2306SOL    HW2 8816   5.907   5.765  14.610
 2307SOL     OW 8817   9.081   3.416   5.106
 2307SOL    HW1 8818   9.048   3.459   5.027
 2307SOL    HW2 8819   9.020   3.442   5.175
 2308SOL     OW 8820   3.921   1.567   3.272
 2308SOL    HW1 8821   3.893   1.651   3.237
 2308SOL    HW2 8822   4.001   1.587   3.321
 2309SOL     OW 8823   5.802   6.495   8.003
 2309SOL    HW1 8824   5.891   6.460   8.002
 2309SOL    HW2 8825   5.804   6.567   8.066
 2310SOL     OW 8826   2.155  12.800   5.266
 2310SOL    HW1 8827   2.232  12.847   5.298
 2310SOL    HW2 8828   2.188  12.745   5.195
 2311SOL     OW 8829   6.544   5.844  11.495
 2311SOL    HW1 8830   6.598   5.840  11.416
 2311SOL    HW2 8831   6.599   5.890  11.559
 2312SOL     OW 8832   0.741   6.690  11.727
 2312SOL    HW1 8833   0.710   6.700  11.637
 2312SOL    HW2 8834   0.738   6.596  11.743
 2313SOL     OW 8835  10.674   7.696  13.981
 2313SOL    HW1 8836  10.588   7.707  14.021
 2313SOL    HW2 8837  10.735   7.738  14.042
 2314SOL     OW 8838  14.334   8.413   3.452
 2314SOL    HW1 8839  14.276   8.448   3.520
 2314SOL    HW2 8840  14.307   8.322   3.442
 2315SOL     OW 8841   3.203   2.297  14.579
 2315SOL    HW1 8842   3.201   2.279  14.486
 2315SOL    HW2 8843   3.155   2.225  14.619
 2316SOL     OW 8844  14.236   0.203   5.699
 2316SOL    HW1 8845  14.143   0.196   5.676
 2316SOL    HW2 8846  14.269   0.274   5.645
 2317SOL     OW 8847   5.430   0.207   5.282
 2317SOL    HW1 8848   5.404   0.222   5.373
 2317SOL    HW2 8849   5.373   0.265   5.231
 2318SOL     OW 8850   7.122  10.467  14.184
 2318SOL    HW1 8851   7.129  10.455  14.279
 2318SOL    HW2 8852   7.057  10.536  14.173
 2319SOL     OW 8853   8.904   8.771   9.956
 2319SOL    HW1 8854   8.848   8.764  10.034
 2319SOL    HW2 8855   8.845   8.801   9.887
 2320SOL     OW 8856  14.566   3.814   6.130
 2320SOL    HW1 8857  14.644   3.857   6.095
 2320SOL    HW2 8858  14.559   3.846   6.220
 2321SOL     OW 8859   3.016   1.547  12.085
 2321SOL    HW1 8860   3.050   1.532  11.997
 2321SOL    HW2 8861   3.019   1.642  12.096
 2322SOL     OW 8862  10.570  14.804   8.878
 2322SOL    HW1 8863  10.536  14.719   8.904
 2322SOL    HW2 8864  10.528  14.866   8.937
 2323SOL     OW 8865   2.929  11.992   4.625
 2323SOL    HW1 8866   2.936  12.078   4.583
 2323SOL    HW2 8867   2.862  12.004   4.692
 2324SOL     OW 8868   6.661  11.793   8.434
 2324SOL    HW1 8869   6.671  11.838   8.518
 2324SOL    HW2 8870   6.654  11.864   8.370
 2325SOL     OW 8871   4.075  11.769   6.367
 2325SOL    HW1 8872   4.075  11.708   6.440
 2325SOL    HW2 8873   4.168  11.782   6.346
 2326SOL     OW 8874   7.478  14.028   2.624
 2326SOL    HW1 8875   7.533  13.957   2.658
 2326SOL    HW2 8876   7.504  14.105   2.674
 2327SOL     OW 8877   3.839   7.543   3.090
 2327SOL    HW1 8878   3.798   7.607   3.148
 2327SOL    HW2 8879   3.930   7.536   3.121
 2328SOL     OW 8880  13.179   2.283  14.242
 2328SOL    HW1 8881  13.122   2.349  14.201
 2328SOL    HW2 8882  13.213   2.232  14.169
 2329SOL     OW 8883  10.359   5.654   9.962
 2329SOL    HW1 8884  10.380   5.713  10.035
 2329SOL    HW2 8885  10.335   5.713   9.891
 2330SOL     OW 8886  11.062  10.671   1.649
 2330SOL    HW1 8887  10.990  10.663   1.587
 2330SOL    HW2 8888  11.104  10.585   1.649
 2331SOL     OW 8889   7.723  14.392  12.246
 2331SOL    HW1 8890   7.668  14.400  12.168
 2331SOL    HW2 8891   7.812  14.387  12.212
 2332SOL     OW 8892   2.733   4.829   8.182
 2332SOL    HW1 8893   2.729   4.764   8.113
 2332SOL    HW2 8894   2.825   4.858   8.182
 2333SOL     OW 8895  14.445   3.432  10.999
 2333SOL    HW1 8896  14.370   3.489  10.982
 2333SOL    HW2 8897  14.520   3.491  10.999
 2334SOL     OW 8898   6.294   9.351   5.937
 2334SOL    HW1 8899   6.357   9.320   6.002
 2334SOL    HW2 8900   6.261   9.433   5.973
 2335SOL     OW 8901  10.686  12.592   7.461
 2335SOL    HW1 8902  10.630  12.576   7.385
 2335SOL    HW2 8903  10.745  12.517   7.464
 2336SOL     OW 8904   1.648  13.055  13.229
 2336SOL    HW1 8905   1.734  13.089  13.202
 2336SOL    HW2 8906   1.658  12.960  13.228
 2337SOL     OW 8907   0.584   5.365   9.254
 2337SOL    HW1 8908   0.631   5.377   9.336
 2337SOL    HW2 8909   0.498   5.404   9.269
 2338SOL     OW 8910  11.871   7.476   8.172
 2338SOL    HW1 8911  11.852   7.430   8.090
 2338SOL    HW2 8912  11.943   7.426   8.212
 2339SOL     OW 8913   8.736   5.798   1.909
 2339SOL    HW1 8914   8.712   5.721   1.857
 2339SOL    HW2 8915   8.697   5.872   1.862
 2340SOL     OW 8916  10.724   2.159  10.875
 2340SOL    HW1 8917  10.702   2.251  10.860
 2340SOL    HW2 8918  10.641   2.112  10.866
 2341SOL     OW 8919  12.392   7.860  13.133
 2341SOL    HW1 8920  12.460   7.849  13.199
 2341SOL    HW2 8921  12.425   7.815  13.056
 2342SOL     OW 8922   1.016   3.827   9.305
 2342SOL    HW1 8923   1.054   3.895   9.361
 2342SOL    HW2 8924   1.082   3.812   9.237
 2343SOL     OW 8925   9.666   5.618   4.797
 2343SOL    HW1 8926   9.581   5.661   4.805
 2343SOL    HW2 8927   9.671   5.593   4.705
 2344SOL     OW 8928   0.393   6.975   3.248
 2344SOL    HW1 8929   0.408   6.940   3.336
 2344SOL    HW2 8930   0.368   7.067   3.263
 2345SOL     OW 8931  14.740  12.352   1.188
 2345SOL    HW1 8932  14.707  12.309   1.109
 2345SOL    HW2 8933  14.780  12.282   1.239
 2346SOL     OW 8934   7.204  14.225  10.126
 2346SOL    HW1 8935   7.275  14.277  10.163
 2346SOL    HW2 8936   7.226  14.215  10.033
 2347SOL     OW 8937   7.010   5.946   3.793
 2347SOL    HW1 8938   7.056   5.889   3.732
 2347SOL    HW2 8939   6.926   5.903   3.808
 2348SOL     OW 8940   5.190   0.717   6.294
 2348SOL    HW1 8941   5.143   0.783   6.344
 2348SOL    HW2 8942   5.136   0.702   6.217
 2349SOL     OW 8943  13.753   0.542  14.133
 2349SOL    HW1 8944  13.836   0.507  14.099
 2349SOL    HW2 8945  13.713   0.468  14.180
 2350SOL     OW 8946   8.573  12.705   9.022
 2350SOL    HW1 8947   8.493  12.655   9.039
 2350SOL    HW2 8948   8.597  12.683   8.932
 2351SOL     OW 8949   5.633   2.650   0.122
 2351SOL    HW1 8950   5.596   2.722   0.072
 2351SOL    HW2 8951   5.574   2.641   0.198
 2352SOL     OW 8952   4.117   5.894  10.457
 2352SOL    HW1 8953   4.057   5.933  10.394
 2352SOL    HW2 8954   4.129   5.804  10.427
 2353SOL     OW 8955   1.588   6.137   9.993
 2353SOL    HW1 8956   1.568   6.124   9.900
 2353SOL    HW2 8957   1.640   6.061  10.017
 2354SOL     OW 8958  14.783   3.523   0.921
 2354SOL    HW1 8959  14.696   3.514   0.960
 2354SOL    HW2 8960  14.772   3.587   0.850
 2355SOL     OW 8961   2.392   7.197   9.944
 2355SOL    HW1 8962   2.400   7.286   9.908
 2355SOL    HW2 8963   2.467   7.150   9.908
 2356SOL     OW 8964   5.404   1.613  13.304
 2356SOL    HW1 8965   5.352   1.690  13.325
 2356SOL    HW2 8966   5.474   1.645  13.247
 2357SOL     OW 8967  10.660   8.891   2.429
 2357SOL    HW1 8968  10.690   8.982   2.421
 2357SOL    HW2 8969  10.719   8.841   2.372
 2358SOL     OW 8970   4.972   4.400   6.701
 2358SOL    HW1 8971   5.020   4.442   6.772
 2358SOL    HW2 8972   4.884   4.438   6.707
 2359SOL     OW 8973   2.636   1.160   1.413
 2359SOL    HW1 8974   2.645   1.207   1.496
 2359SOL    HW2 8975   2.623   1.069   1.439
 2360SOL     OW 8976  10.096  13.257   0.953
 2360SOL    HW1 8977  10.188  13.230   0.951
 2360SOL    HW2 8978  10.050  13.189   0.904
 2361SOL     OW 8979   9.718   8.429  14.002
 2361SOL    HW1 8980   9.750   8.370  13.933
 2361SOL    HW2 8981   9.633   8.392  14.026
 2362SOL     OW 8982  12.962   8.587   2.361
 2362SOL    HW1 8983  12.895   8.652   2.339
 2362SOL    HW2 8984  12.971   8.534   2.283
 2363SOL     OW 8985  10.171  11.860   7.912
 2363SOL    HW1 8986  10.247  11.830   7.862
 2363SOL    HW2 8987  10.105  11.792   7.897
 2364SOL     OW 8988  10.480   7.324   5.213
 2364SOL    HW1 8989  10.389   7.338   5.239
 2364SOL    HW2 8990  10.491   7.379   5.135
 2365SOL     OW 8991   1.064   3.711  11.753
 2365SOL    HW1 8992   1.017   3.643  11.801
 2365SOL    HW2 8993   1.084   3.671  11.668
 2366SOL     OW 8994   1.171  14.754  12.189
 2366SOL    HW1 8995   1.216  14.836  12.169
 2366SOL    HW2 8996   1.080  14.770  12.161
 2367SOL     OW 8997   5.814   2.478   0.015
 2367SOL    HW1 8998   5.776   2.390   0.012
 2367SOL    HW2 8999   5.749   2.531   0.060
 2368SOL     OW 9000   0.540  12.052  13.897
 2368SOL    HW1 9001   0.448  12.045  13.868
 2368SOL    HW2 9002   0.551  12.145  13.916
 2369SOL     OW 9003   4.824  11.266   7.587
 2369SOL    HW1 9004   4.803  11.275   7.680
 2369SOL    HW2 9005   4.847  11.174   7.576
 2370SOL     OW 9006  13.499   2.664   9.433
 2370SOL    HW1 9007  13.575   2.608   9.449
 2370SOL    HW2 9008  13.531   2.732   9.374
 2371SOL     OW 9009   3.150  11.376   6.768
 2371SOL    HW1 9010   3.192  11.457   6.797
 2371SOL    HW2 9011   3.194  11.307   6.817
 2372SOL     OW 9012   4.515   8.121   8.295
 2372SOL    HW1 9013   4.527   8.027   8.282
 2372SOL    HW2 9014   4.530   8.159   8.209
 2373SOL     OW 9015  12.388   9.263  13.449
 2373SOL    HW1 9016  12.429   9.222  13.373
 2373SOL    HW2 9017  12.409   9.207  13.522
 2374SOL     OW 9018   0.679  10.592   8.344
 2374SOL    HW1 9019   0.666  10.504   8.308
 2374SOL    HW2 9020   0.595  10.613   8.385
 2375SOL     OW 9021   0.622   2.227  11.758
 2375SOL    HW1 9022   0.618   2.161  11.689
 2375SOL    HW2 9023   0.539   2.275  11.750
 2376SOL     OW 9024   2.247  12.947   4.023
 2376SOL    HW1 9025   2.281  12.894   3.950
 2376SOL    HW2 9026   2.309  13.021   4.029
 2377SOL     OW 9027   8.633   3.886   8.016
 2377SOL    HW1 9028   8.677   3.965   7.983
 2377SOL    HW2 9029   8.611   3.906   8.106
 2378SOL     OW 9030   0.362   8.888  11.419
 2378SOL    HW1 9031   0.379   8.794  11.430
 2378SOL    HW2 9032   0.433   8.918  11.361
 2379SOL     OW 9033  14.706  13.548   8.801
 2379SOL    HW1 9034  14.619  13.530   8.835
 2379SOL    HW2 9035  14.699  13.635   8.761
 2380SOL     OW 9036   5.610   8.035   8.140
 2380SOL    HW1 9037   5.670   8.006   8.071
 2380SOL    HW2 9038   5.546   7.964   8.148
 2381SOL     OW 9039  11.954   3.234  10.410
 2381SOL    HW1 9040  12.009   3.204  10.483
 2381SOL    HW2 9041  11.977   3.326  10.400
 2382SOL     OW 9042  13.818   4.046   3.672
 2382SOL    HW1 9043  13.781   4.065   3.585
 2382SOL    HW2 9044  13.909   4.076   3.667
 2383SOL     OW 9045  13.476  10.809   8.547
 2383SOL    HW1 9046  13.555  10.775   8.505
 2383SOL    HW2 9047  13.507  10.849   8.629
 2384SOL     OW 9048   2.667   8.043   4.563
 2384SOL    HW1 9049   2.691   8.128   4.600
 2384SOL    HW2 9050   2.662   7.984   4.638
 2385SOL     OW 9051   0.744   9.852   1.581
 2385SOL    HW1 9052   0.682   9.804   1.527
 2385SOL    HW2 9053   0.707   9.848   1.670
 2386SOL     OW 9054   3.365   5.517  14.529
 2386SOL    HW1 9055   3.409   5.487  14.450
 2386SOL    HW2 9056   3.380   5.611  14.531
 2387SOL     OW 9057   0.143   6.971   6.191
 2387SOL    HW1 9058   0.060   6.992   6.234
 2387SOL    HW2 9059   0.119   6.914   6.118
 2388SOL     OW 9060   3.889   7.492  14.357
 2388SOL    HW1 9061   3.910   7.485  14.451
 2388SOL    HW2 9062   3.852   7.580  14.348
 2389SOL     OW 9063   7.118   6.024   0.636
 2389SOL    HW1 9064   7.142   5.935   0.610
 2389SOL    HW2 9065   7.042   6.013   0.694
 2390SOL     OW 9066  14.317   7.491  14.627
 2390SOL    HW1 9067  14.393   7.547  14.609
 2390SOL    HW2 9068  14.324   7.470  14.720
 2391SOL     OW 9069   9.693  10.787   8.151
 2391SOL    HW1 9070   9.633  10.751   8.086
 2391SOL    HW2 9071   9.741  10.711   8.184
 2392SOL     OW 9072  10.855   7.959   0.216
 2392SOL    HW1 9073  10.795   8.021   0.259
 2392SOL    HW2 9074  10.922   7.942   0.282
 2393SOL     OW 9075   3.404   9.456   2.804
 2393SOL    HW1 9076   3.314   9.427   2.794
 2393SOL    HW2 9077   3.426   9.435   2.895
 2394SOL     OW 9078   7.937   1.194   7.750
 2394SOL    HW1 9079   8.032   1.199   7.738
 2394SOL    HW2 9080   7.913   1.107   7.718
 2395SOL     OW 9081   8.655  11.933  14.214
 2395SOL    HW1 9082   8.613  12.005  14.167
 2395SOL    HW2 9083   8.710  11.890  14.149
 2396SOL     OW 9084  14.683  12.004   2.482
 2396SOL    HW1 9085  14.660  11.941   2.414
 2396SOL    HW2 9086  14.676  11.956   2.564
 2397SOL     OW 9087  10.555  12.985   1.543
 2397SOL    HW1 9088  10.607  12.942   1.611
 2397SOL    HW2 9089  10.468  12.946   1.550
 2398SOL     OW 9090   3.489  12.575   3.428
 2398SOL    HW1 9091   3.488  12.496   3.373
 2398SOL    HW2 9092   3.427  12.635   3.385
 2399SOL     OW 9093  13.637   2.815  10.204
 2399SOL    HW1 9094  13.717   2.867  10.193
 2399SOL    HW2 9095  13.610   2.793  10.115
 2400SOL     OW 9096   1.967  11.553   4.582
 2400SOL    HW1 9097   1.948  11.512   4.497
 2400SOL    HW2 9098   1.929  11.641   4.575
 2401SOL     OW 9099   9.881   4.408   8.351
 2401SOL    HW1 9100   9.824   4.353   8.298
 2401SOL    HW2 9101   9.862   4.497   8.324
 2402SOL     OW 9102  10.424   4.735   4.352
 2402SOL    HW1 9103  10.442   4.814   4.300
 2402SOL    HW2 9104  10.500   4.725   4.409
 2403SOL     OW 9105   8.613   8.969  14.480
 2403SOL    HW1 9106   8.661   9.046  14.451
 2403SOL    HW2 9107   8.649   8.897  14.427
 2404SOL     OW 9108   9.546   2.243   4.011
 2404SOL    HW1 9109   9.550   2.338   4.011
 2404SOL    HW2 9110   9.485   2.221   3.940
 2405SOL     OW 9111  13.420   4.459  14.289
 2405SOL    HW1 9112  13.433   4.425  14.200
 2405SOL    HW2 9113  13.498   4.511  14.306
 2406SOL     OW 9114   2.653   4.008  10.037
 2406SOL    HW1 9115   2.607   4.050  10.109
 2406SOL    HW2 9116   2.593   3.940  10.006
 2407SOL     OW 9117   9.259   4.627   5.364
 2407SOL    HW1 9118   9.340   4.587   5.334
 2407SOL    HW2 9119   9.212   4.649   5.284
 2408SOL     OW 9120   5.781   5.810  12.955
 2408SOL    HW1 9121   5.836   5.736  12.980
 2408SOL    HW2 9122   5.824   5.887  12.994
 2409SOL     OW 9123   2.760   0.090   6.289
 2409SOL    HW1 9124   2.800   0.174   6.306
 2409SOL    HW2 9125   2.738   0.055   6.375
 2410SOL     OW 9126   6.080  11.630  12.799
 2410SOL    HW1 9127   6.134  11.586  12.864
 2410SOL    HW2 9128   6.022  11.688  12.849
 2411SOL     OW 9129   1.314   9.994  10.238
 2411SOL    HW1 9130   1.373   9.922  10.215
 2411SOL    HW2 9131   1.251   9.955  10.298
 2412SOL     OW 9132  12.504  13.736   7.071
 2412SOL    HW1 9133  12.459  13.812   7.108
 2412SOL    HW2 9134  12.594  13.744   7.102
 2413SOL     OW 9135  12.458   9.848  10.515
 2413SOL    HW1 9136  12.515   9.886  10.582
 2413SOL    HW2 9137  12.374   9.892  10.527
 2414SOL     OW 9138   0.771  14.766  11.498
 2414SOL    HW1 9139   0.754  14.673  11.510
 2414SOL    HW2 9140   0.727  14.809  11.571
 2415SOL     OW 9141   7.025  10.850   8.425
 2415SOL    HW1 9142   7.033  10.849   8.330
 2415SOL    HW2 9143   6.935  10.821   8.442
 2416SOL     OW 9144  11.275   7.129   0.962
 2416SOL    HW1 9145  11.190   7.085   0.968
 2416SOL    HW2 9146  11.261   7.212   1.008
 2417SOL     OW 9147   1.266  12.450   6.921
 2417SOL    HW1 9148   1.331  12.429   6.988
 2417SOL    HW2 9149   1.290  12.395   6.847
 2418SOL     OW 9150   2.703   6.629   1.871
 2418SOL    HW1 9151   2.652   6.695   1.824
 2418SOL    HW2 9152   2.701   6.552   1.814
 2419SOL     OW 9153   7.733  10.150   4.469
 2419SOL    HW1 9154   7.796  10.102   4.523
 2419SOL    HW2 9155   7.768  10.145   4.380
 2420SOL     OW 9156   8.239   6.179   7.735
 2420SOL    HW1 9157   8.320   6.155   7.780
 2420SOL    HW2 9158   8.234   6.118   7.661
 2421SOL     OW 9159   8.125   5.521   4.428
 2421SOL    HW1 9160   8.045   5.508   4.378
 2421SOL    HW2 9161   8.186   5.456   4.394
 2422SOL     OW 9162  10.746   2.916  13.576
 2422SOL    HW1 9163  10.663   2.932  13.620
 2422SOL    HW2 9164  10.727   2.929  13.483
 2423SOL     OW 9165   5.070   3.388   2.486
 2423SOL    HW1 9166   4.995   3.424   2.439
 2423SOL    HW2 9167   5.144   3.442   2.458
 2424SOL     OW 9168   0.508   5.949   0.161
 2424SOL    HW1 9169   0.482   5.923   0.249
 2424SOL    HW2 9170   0.432   5.926   0.106
 2425SOL     OW 9171   0.178  13.503   5.450
 2425SOL    HW1 9172   0.211  13.593   5.452
 2425SOL    HW2 9173   0.130  13.497   5.367
 2426SOL     OW 9174   7.505   3.150   5.337
 2426SOL    HW1 9175   7.454   3.069   5.330
 2426SOL    HW2 9176   7.567   3.145   5.264
 2427SOL     OW 9177   7.476   3.723   8.412
 2427SOL    HW1 9178   7.458   3.816   8.397
 2427SOL    HW2 9179   7.557   3.706   8.364
 2428SOL     OW 9180  10.197  11.248   2.809
 2428SOL    HW1 9181  10.159  11.328   2.846
 2428SOL    HW2 9182  10.209  11.190   2.884
 2429SOL     OW 9183   9.806   9.001   6.285
 2429SOL    HW1 9184   9.820   8.936   6.354
 2429SOL    HW2 9185   9.771   9.078   6.331
 2430SOL     OW 9186  14.203  12.180   9.569
 2430SOL    HW1 9187  14.194  12.156   9.662
 2430SOL    HW2 9188  14.260  12.113   9.532
 2431SOL     OW 9189   4.239  10.752   6.354
 2431SOL    HW1 9190   4.225  10.658   6.346
 2431SOL    HW2 9191   4.152  10.791   6.345
 2432SOL     OW 9192   1.848   1.911  10.090
 2432SOL    HW1 9193   1.857   1.923  10.185
 2432SOL    HW2 9194   1.831   1.817  10.080
 2433SOL     OW 9195   3.843   7.223   3.128
 2433SOL    HW1 9196   3.815   7.290   3.066
 2433SOL    HW2 9197   3.937   7.217   3.115
 2434SOL     OW 9198   4.797   6.458   1.952
 2434SOL    HW1 9199   4.745   6.537   1.970
 2434SOL    HW2 9200   4.751   6.388   1.998
 2435SOL     OW 9201   2.281  11.839  10.923
 2435SOL    HW1 9202   2.227  11.909  10.885
 2435SOL    HW2 9203   2.267  11.847  11.017
 2436SOL     OW 9204   9.962  11.931   4.711
 2436SOL    HW1 9205   9.895  11.877   4.668
 2436SOL    HW2 9206   9.968  12.010   4.657
 2437SOL     OW 9207   1.668   5.537   2.819
 2437SOL    HW1 9208   1.668   5.594   2.742
 2437SOL    HW2 9209   1.747   5.562   2.867
 2438SOL     OW 9210  13.644   4.653  10.668
 2438SOL    HW1 9211  13.626   4.559  10.668
 2438SOL    HW2 9212  13.723   4.662  10.721
 2439SOL     OW 9213   3.163   8.075   8.722
 2439SOL    HW1 9214   3.084   8.120   8.694
 2439SOL    HW2 9215   3.232   8.110   8.665
 2440SOL     OW 9216   8.142   8.922  12.341
 2440SOL    HW1 9217   8.088   8.885  12.271
 2440SOL    HW2 9218   8.201   8.983  12.297
 2441SOL     OW 9219  13.255   3.455   0.389
 2441SOL    HW1 9220  13.347   3.466   0.364
 2441SOL    HW2 9221  13.251   3.486   0.480
 2442SOL     OW 9222   0.919   5.917   3.335
 2442SOL    HW1 9223   0.858   5.875   3.274
 2442SOL    HW2 9224   0.990   5.949   3.279
 2443SOL     OW 9225  11.066   0.764   2.804
 2443SOL    HW1 9226  11.040   0.715   2.726
 2443SOL    HW2 9227  11.038   0.710   2.877
 2444SOL     OW 9228   5.568   0.197   9.568
 2444SOL    HW1 9229   5.515   0.205   9.488
 2444SOL    HW2 9230   5.529   0.124   9.615
 2445SOL     OW 9231   9.424   6.959   4.914
 2445SOL    HW1 9232   9.453   6.913   4.835
 2445SOL    HW2 9233   9.405   7.048   4.885
 2446SOL     OW 9234   3.813   5.399   2.026
 2446SOL    HW1 9235   3.717   5.397   2.021
 2446SOL    HW2 9236   3.842   5.345   1.953
 2447SOL     OW 9237   4.727   8.284   1.960
 2447SOL    HW1 9238   4.776   8.248   1.887
 2447SOL    HW2 9239   4.657   8.220   1.977
 2448SOL     OW 9240   5.139   9.654  10.071
 2448SOL    HW1 9241   5.128   9.563  10.097
 2448SOL    HW2 9242   5.214   9.685  10.122
 2449SOL     OW 9243  11.507   0.891   5.000
 2449SOL    HW1 9244  11.433   0.945   4.973
 2449SOL    HW2 9245  11.469   0.804   5.015
 2450SOL     OW 9246  13.241  13.278  14.683
 2450SOL    HW1 9247  13.236  13.323  14.598
 2450SOL    HW2 9248  13.150  13.274  14.713
 2451SOL     OW 9249  14.022  14.132   2.140
 2451SOL    HW1 9250  14.082  14.170   2.076
 2451SOL    HW2 9251  14.079  14.082   2.199
 2452SOL     OW 9252  13.252   0.522  11.495
 2452SOL    HW1 9253  13.322   0.501  11.434
 2452SOL    HW2 9254  13.293   0.515  11.582
 2453SOL     OW 9255   3.129   3.563   4.197
 2453SOL    HW1 9256   3.050   3.510   4.207
 2453SOL    HW2 9257   3.188   3.509   4.144
 2454SOL     OW 9258  13.448   9.141   7.351
 2454SOL    HW1 9259  13.390   9.185   7.289
 2454SOL    HW2 9260  13.468   9.057   7.310
 2455SOL     OW 9261   9.525   6.219   6.350
 2455SOL    HW1 9262   9.603   6.229   6.296
 2455SOL    HW2 9263   9.454   6.207   6.287
 2456SOL     OW 9264   3.013  11.652  13.559
 2456SOL    HW1 9265   3.050  11.688  13.479
 2456SOL    HW2 9266   3.037  11.715  13.627
 2457SOL     OW 9267  10.028   5.670   5.469
 2457SOL    HW1 9268  10.034   5.634   5.380
 2457SOL    HW2 9269  10.007   5.595   5.524
 2458SOL     OW 9270  10.490   9.129   8.182
 2458SOL    HW1 9271  10.496   9.059   8.247
 2458SOL    HW2 9272  10.580   9.146   8.156
 2459SOL     OW 9273   2.660   6.146   3.807
 2459SOL    HW1 9274   2.569   6.171   3.822
 2459SOL    HW2 9275   2.703   6.155   3.893
 2460SOL     OW 9276   6.401  13.508  11.204
 2460SOL    HW1 9277   6.420  13.510  11.298
 2460SOL    HW2 9278   6.316  13.464  11.198
 2461SOL     OW 9279  13.870   0.627  13.220
 2461SOL    HW1 9280  13.787   0.666  13.193
 2461SOL    HW2 9281  13.933   0.699  13.214
 2462SOL     OW 9282   0.134   8.144   8.636
 2462SOL    HW1 9283   0.128   8.217   8.698
 2462SOL    HW2 9284   0.222   8.150   8.600
 2463SOL     OW 9285  11.459  13.336   5.228
 2463SOL    HW1 9286  11.381  13.363   5.276
 2463SOL    HW2 9287  11.463  13.395   5.153
 2464SOL     OW 9288   6.614  10.620  14.215
 2464SOL    HW1 9289   6.525  10.632  14.248
 2464SOL    HW2 9290   6.661  10.698  14.245
 2465SOL     OW 9291   4.826  12.509  11.702
 2465SOL    HW1 9292   4.901  12.464  11.664
 2465SOL    HW2 9293   4.859  12.597  11.723
 2466SOL     OW 9294   3.567   2.500  13.289
 2466SOL    HW1 9295   3.561   2.420  13.237
 2466SOL    HW2 9296   3.485   2.502  13.339
 2467SOL     OW 9297   0.556   9.370   9.277
 2467SOL    HW1 9298   0.638   9.344   9.235
 2467SOL    HW2 9299   0.495   9.384   9.203
 2468SOL     OW 9300   7.747   1.302   9.906
 2468SOL    HW1 9301   7.692   1.369   9.866
 2468SOL    HW2 9302   7.714   1.293   9.996
 2469SOL     OW 9303  11.799  10.176   8.814
 2469SOL    HW1 9304  11.849  10.216   8.742
 2469SOL    HW2 9305  11.709  10.175   8.783
 2470SOL     OW 9306   0.032  12.677   5.074
 2470SOL    HW1 9307   0.057  12.645   4.988
 2470SOL    HW2 9308   0.052  12.771   5.072
 2471SOL     OW 9309   8.113   2.913   1.395
 2471SOL    HW1 9310   8.029   2.906   1.440
 2471SOL    HW2 9311   8.102   2.987   1.335
 2472SOL     OW 9312   5.814   1.138  11.996
 2472SOL    HW1 9313   5.847   1.154  12.084
 2472SOL    HW2 9314   5.890   1.107  11.947
 2473SOL     OW 9315   4.722  12.452   4.053
 2473SOL    HW1 9316   4.634  12.431   4.020
 2473SOL    HW2 9317   4.775  12.460   3.974
 2474SOL     OW 9318   2.123   9.922   1.498
 2474SOL    HW1 9319   2.211   9.884   1.493
 2474SOL    HW2 9320   2.110   9.965   1.414
 2475SOL     OW 9321   0.180  11.700   3.411
 2475SOL    HW1 9322   0.221  11.613   3.411
 2475SOL    HW2 9323   0.087  11.682   3.396
 2476SOL     OW 9324  12.605   6.372  12.033
 2476SOL    HW1 9325  12.549   6.447  12.051
 2476SOL    HW2 9326  12.694   6.407  12.035
 2477SOL     OW 9327   9.486   1.989   7.358
 2477SOL    HW1 9328   9.563   1.933   7.366
 2477SOL    HW2 9329   9.508   2.068   7.408
 2478SOL     OW 9330   2.490   9.845   4.112
 2478SOL    HW1 9331   2.567   9.893   4.142
 2478SOL    HW2 9332   2.417   9.885   4.159
 2479SOL     OW 9333   0.340   8.279   8.260
 2479SOL    HW1 9334   0.370   8.219   8.191
 2479SOL    HW2 9335   0.245   8.282   8.249
 2480SOL     OW 9336  13.408   0.220  11.166
 2480SOL    HW1 9337  13.466   0.150  11.195
 2480SOL    HW2 9338  13.449   0.256  11.088
 2481SOL     OW 9339  12.741   9.826  11.650
 2481SOL    HW1 9340  12.829   9.795  11.674
 2481SOL    HW2 9341  12.692   9.823  11.732
 2482SOL     OW 9342   2.746   9.539   2.377
 2482SOL    HW1 9343   2.783   9.453   2.393
 2482SOL    HW2 9344   2.795   9.574   2.303
 2483SOL     OW 9345   8.468   7.659  14.365
 2483SOL    HW1 9346   8.461   7.718  14.290
 2483SOL    HW2 9347   8.395   7.684  14.422
 2484SOL     OW 9348   2.847   9.364   8.356
 2484SOL    HW1 9349   2.921   9.405   8.400
 2484SOL    HW2 9350   2.884   9.286   8.315
 2485SOL     OW 9351  10.563   4.973   9.270
 2485SOL    HW1 9352  10.558   5.068   9.271
 2485SOL    HW2 9353  10.527   4.946   9.355
 2486SOL     OW 9354   6.981   4.069   7.731
 2486SOL    HW1 9355   6.976   4.131   7.804
 2486SOL    HW2 9356   6.890   4.059   7.702
 2487SOL     OW 9357  14.542   0.191   2.545
 2487SOL    HW1 9358  14.538   0.106   2.588
 2487SOL    HW2 9359  14.469   0.190   2.483
 2488SOL     OW 9360   5.183   4.445   1.433
 2488SOL    HW1 9361   5.192   4.541   1.430
 2488SOL    HW2 9362   5.112   4.426   1.371
 2489SOL     OW 9363  12.701   1.039   9.416
 2489SOL    HW1 9364  12.789   1.056   9.450
 2489SOL    HW2 9365  12.709   1.053   9.322
 2490SOL     OW 9366   0.837   7.406  13.416
 2490SOL    HW1 9367   0.892   7.396  13.338
 2490SOL    HW2 9368   0.806   7.317  13.435
 2491SOL     OW 9369  11.809  14.715   4.055
 2491SOL    HW1 9370  11.877  14.742   3.994
 2491SOL    HW2 9371  11.756  14.653   4.005
 2492SOL     OW 9372   1.443   7.262   5.053
 2492SOL    HW1 9373   1.368   7.290   5.106
 2492SOL    HW2 9374   1.517   7.263   5.113
 2493SOL     OW 9375   1.245   2.842  11.122
 2493SOL    HW1 9376   1.232   2.936  11.112
 2493SOL    HW2 9377   1.231   2.805  11.035
 2494SOL     OW 9378   9.213   8.328   0.691
 2494SOL    HW1 9379   9.298   8.321   0.734
 2494SOL    HW2 9380   9.158   8.264   0.735
 2495SOL     OW 9381  13.730  13.355   7.088
 2495SOL    HW1 9382  13.686  13.274   7.115
 2495SOL    HW2 9383  13.753  13.340   6.996
 2496SOL     OW 9384   4.082   1.024  13.451
 2496SOL    HW1 9385   4.076   1.117  13.429
 2496SOL    HW2 9386   4.033   1.016  13.533
 2497SOL     OW 9387   1.985   2.365   3.051
 2497SOL    HW1 9388   2.046   2.427   3.012
 2497SOL    HW2 9389   1.949   2.317   2.977
 2498SOL     OW 9390   1.675  10.679   2.578
 2498SOL    HW1 9391   1.753  10.683   2.633
 2498SOL    HW2 9392   1.637  10.593   2.595
 2499SOL     OW 9393  11.280   0.972   5.683
 2499SOL    HW1 9394  11.356   1.021   5.651
 2499SOL    HW2 9395  11.207   1.003   5.630
 2500SOL     OW 9396  13.405  14.000   8.438
 2500SOL    HW1 9397  13.391  14.018   8.345
 2500SOL    HW2 9398  13.318  14.002   8.477
 2501SOL     OW 9399  13.703   1.473   0.359
 2501SOL    HW1 9400  13.633   1.413   0.386
 2501SOL    HW2 9401  13.746   1.428   0.286
 2502SOL     OW 9402   0.670   0.618  10.922
 2502SOL    HW1 9403   0.626   0.679  10.863
 2502SOL    HW2 9404   0.599   0.575  10.970
 2503SOL     OW 9405   2.667   3.022   0.718
 2503SOL    HW1 9406   2.590   3.061   0.758
 2503SOL    HW2 9407   2.633   2.951   0.664
 2504SOL     OW 9408   9.560   1.675   5.287
 2504SOL    HW1 9409   9.521   1.759   5.308
 2504SOL    HW2 9410   9.654   1.688   5.297
 2505SOL     OW 9411   1.081   7.105   7.552
 2505SOL    HW1 9412   1.007   7.047   7.568
 2505SOL    HW2 9413   1.148   7.077   7.614
 2506SOL     OW 9414  11.431   7.729  14.322
 2506SOL    HW1 9415  11.363   7.779  14.368
 2506SOL    HW2 9416  11.423   7.756  14.231
 2507SOL     OW 9417   4.488   6.012   7.750
 2507SOL    HW1 9418   4.577   6.041   7.765
 2507SOL    HW2 9419   4.491   5.917   7.762
 2508SOL     OW 9420  14.621  10.769   5.563
 2508SOL    HW1 9421  14.567  10.821   5.504
 2508SOL    HW2 9422  14.611  10.679   5.532
 2509SOL     OW 9423  14.652   4.007   7.254
 2509SOL    HW1 9424  14.701   4.089   7.240
 2509SOL    HW2 9425  14.592   4.027   7.326
 2510SOL     OW 9426   8.260  14.427   6.109
 2510SOL    HW1 9427   8.244  14.521   6.118
 2510SOL    HW2 9428   8.344  14.413   6.152
 2511SOL     OW 9429   4.937   1.482  14.769
 2511SOL    HW1 9430   4.887   1.402  14.783
 2511SOL    HW2 9431   4.980   1.469  14.685
 2512SOL     OW 9432  11.402  11.880  13.167
 2512SOL    HW1 9433  11.492  11.862  13.138
 2512SOL    HW2 9434  11.354  11.901  13.087
 2513SOL     OW 9435   4.875  13.055  12.299
 2513SOL    HW1 9436   4.857  13.122  12.365
 2513SOL    HW2 9437   4.796  13.050  12.247
 2514SOL     OW 9438   1.365  14.497   5.681
 2514SOL    HW1 9439   1.420  14.477   5.605
 2514SOL    HW2 9440   1.299  14.557   5.647
 2515SOL     OW 9441   4.282   2.422   6.056
 2515SOL    HW1 9442   4.370   2.396   6.082
 2515SOL    HW2 9443   4.295   2.481   5.982
 2516SOL     OW 9444  14.865   3.271  10.451
 2516SOL    HW1 9445  14.865   3.357  10.494
 2516SOL    HW2 9446   0.010   3.291  10.359
 2517SOL     OW 9447   3.371  12.881   1.236
 2517SOL    HW1 9448   3.342  12.897   1.146
 2517SOL    HW2 9449   3.437  12.812   1.229
 2518SOL     OW 9450   3.059  11.546  11.370
 2518SOL    HW1 9451   3.054  11.565  11.277
 2518SOL    HW2 9452   3.051  11.631  11.413
 2519SOL     OW 9453  11.950  10.507   3.858
 2519SOL    HW1 9454  11.995  10.485   3.939
 2519SOL    HW2 9455  11.885  10.437   3.847
 2520SOL     OW 9456  12.599  10.565  11.107
 2520SOL    HW1 9457  12.513  10.596  11.132
 2520SOL    HW2 9458  12.604  10.476  11.141
 2521SOL     OW 9459  13.976   8.715   4.744
 2521SOL    HW1 9460  13.913   8.750   4.807
 2521SOL    HW2 9461  13.924   8.697   4.666
 2522SOL     OW 9462   2.290   0.750   0.597
 2522SOL    HW1 9463   2.284   0.822   0.534
 2522SOL    HW2 9464   2.202   0.744   0.636
 2523SOL     OW 9465  13.254  11.700  11.459
 2523SOL    HW1 9466  13.319  11.653  11.512
 2523SOL    HW2 9467  13.171  11.683  11.503
 2524SOL     OW 9468  11.908   5.766   3.446
 2524SOL    HW1 9469  11.919   5.854   3.483
 2524SOL    HW2 9470  11.817   5.763   3.419
 2525SOL     OW 9471  12.267   4.848  12.856
 2525SOL    HW1 9472  12.220   4.931  12.862
 2525SOL    HW2 9473  12.228   4.793  12.923
 2526SOL     OW 9474  13.478   1.795   3.311
 2526SOL    HW1 9475  13.491   1.830   3.223
 2526SOL    HW2 9476  13.407   1.732   3.302
 2527SOL     OW 9477   8.859   2.168  14.075
 2527SOL    HW1 9478   8.915   2.147  14.150
 2527SOL    HW2 9479   8.813   2.248  14.101
 2528SOL     OW 9480   6.927   9.282   9.829
 2528SOL    HW1 9481   6.899   9.242   9.912
 2528SOL    HW2 9482   6.989   9.349   9.855
 2529SOL     OW 9483   9.585  14.200  13.441
 2529SOL    HW1 9484   9.500  14.225  13.477
 2529SOL    HW2 9485   9.617  14.279  13.398
 2530SOL     OW 9486   9.482   1.588  10.360
 2530SOL    HW1 9487   9.400   1.613  10.317
 2530SOL    HW2 9488   9.465   1.595  10.453
 2531SOL     OW 9489   9.796   6.553  13.788
 2531SOL    HW1 9490   9.815   6.492  13.860
 2531SOL    HW2 9491   9.714   6.595  13.814
 2532SOL     OW 9492   3.537   7.199   6.354
 2532SOL    HW1 9493   3.574   7.275   6.309
 2532SOL    HW2 9494   3.572   7.123   6.308
 2533SOL     OW 9495  13.884   6.613   1.142
 2533SOL    HW1 9496  13.876   6.541   1.079
 2533SOL    HW2 9497  13.884   6.569   1.227
 2534SOL     OW 9498  13.340  14.544  14.831
 2534SOL    HW1 9499  13.359  14.454  14.806
 2534SOL    HW2 9500  13.249  14.543  14.858
 2535SOL     OW 9501   9.293   1.602  12.524
 2535SOL    HW1 9502   9.350   1.583  12.599
 2535SOL    HW2 9503   9.243   1.522  12.511
 2536SOL     OW 9504   3.124  13.909  12.306
 2536SOL    HW1 9505   3.189  13.964  12.350
 2536SOL    HW2 9506   3.088  13.854  12.376
 2537SOL     OW 9507   7.569   9.083   2.907
 2537SOL    HW1 9508   7.622   9.080   2.987
 2537SOL    HW2 9509   7.597   9.006   2.858
 2538SOL     OW 9510   2.243   2.223  14.001
 2538SOL    HW1 9511   2.250   2.168  14.079
 2538SOL    HW2 9512   2.219   2.309  14.034
 2539SOL     OW 9513   7.484   5.222   0.258
 2539SOL    HW1 9514   7.501   5.232   0.352
 2539SOL    HW2 9515   7.528   5.141   0.234
 2540SOL     OW 9516   4.210   7.948   8.867
 2540SOL    HW1 9517   4.297   7.939   8.829
 2540SOL    HW2 9518   4.165   8.008   8.807
 2541SOL     OW 9519   2.752   1.546   7.693
 2541SOL    HW1 9520   2.687   1.496   7.644
 2541SOL    HW2 9521   2.703   1.621   7.728
 2542SOL     OW 9522   2.162   6.416   8.463
 2542SOL    HW1 9523   2.094   6.389   8.524
 2542SOL    HW2 9524   2.173   6.340   8.405
 2543SOL     OW 9525  12.185   2.040   5.249
 2543SOL    HW1 9526  12.140   2.088   5.317
 2543SOL    HW2 9527  12.267   2.011   5.289
 2544SOL     OW 9528   6.871   7.131   6.463
 2544SOL    HW1 9529   6.899   7.045   6.494
 2544SOL    HW2 9530   6.777   7.133   6.480
 2545SOL     OW 9531   1.298  12.520   5.668
 2545SOL    HW1 9532   1.272  12.443   5.618
 2545SOL    HW2 9533   1.216  12.552   5.707
 2546SOL     OW 9534   9.872  11.121   5.569
 2546SOL    HW1 9535   9.801  11.115   5.505
 2546SOL    HW2 9536   9.841  11.186   5.633
 2547SOL     OW 9537  13.428   4.221  12.023
 2547SOL    HW1 9538  13.440   4.131  12.053
 2547SOL    HW2 9539  13.481   4.227  11.943
 2548SOL     OW 9540  10.743   3.597   9.064
 2548SOL    HW1 9541  10.788   3.565   8.986
 2548SOL    HW2 9542  10.786   3.680   9.085
 2549SOL     OW 9543  12.243  14.033   6.522
 2549SOL    HW1 9544  12.211  14.119   6.551
 2549SOL    HW2 9545  12.338  14.041   6.523
 2550SOL     OW 9546   4.372   6.481  13.095
 2550SOL    HW1 9547   4.360   6.405  13.153
 2550SOL    HW2 9548   4.466   6.497  13.097
 2551SOL     OW 9549  11.181   9.140   9.525
 2551SOL    HW1 9550  11.138   9.125   9.609
 2551SOL    HW2 9551  11.256   9.195   9.547
 2552SOL     OW 9552   4.400  13.800  14.083
 2552SOL    HW1 9553   4.491  13.828  14.084
 2552SOL    HW2 9554   4.398  13.720  14.136
 2553SOL     OW 9555   3.191   0.685   1.754
 2553SOL    HW1 9556   3.168   0.776   1.771
 2553SOL    HW2 9557   3.114   0.635   1.783
 2554SOL     OW 9558   6.623  13.706   2.998
 2554SOL    HW1 9559   6.669  13.652   2.933
 2554SOL    HW2 9560   6.692  13.734   3.059
 2555SOL     OW 9561  12.515   7.790  12.400
 2555SOL    HW1 9562  12.501   7.696  12.406
 2555SOL    HW2 9563  12.586   7.808  12.461
 2556SOL     OW 9564  13.092   5.000   5.082
 2556SOL    HW1 9565  13.139   5.023   5.002
 2556SOL    HW2 9566  13.107   5.074   5.141
 2557SOL     OW 9567  14.584  10.363  12.432
 2557SOL    HW1 9568  14.638  10.440  12.449
 2557SOL    HW2 9569  14.646  10.295  12.407
 2558SOL     OW 9570   8.992  12.015   7.478
 2558SOL    HW1 9571   8.972  12.109   7.478
 2558SOL    HW2 9572   9.005  11.994   7.571
 2559SOL     OW 9573   8.784   6.898  12.119
 2559SOL    HW1 9574   8.873   6.921  12.094
 2559SOL    HW2 9575   8.745   6.865  12.038
 2560SOL     OW 9576  10.068  14.337   6.684
 2560SOL    HW1 9577  10.128  14.310   6.615
 2560SOL    HW2 9578   9.981  14.311   6.652
 2561SOL     OW 9579  14.485   0.601   6.614
 2561SOL    HW1 9580  14.577   0.572   6.617
 2561SOL    HW2 9581  14.467   0.614   6.521
 2562SOL     OW 9582   6.718   4.551   6.695
 2562SOL    HW1 9583   6.802   4.597   6.689
 2562SOL    HW2 9584   6.720   4.489   6.623
 2563SOL     OW 9585   1.282   5.835   4.197
 2563SOL    HW1 9586   1.370   5.815   4.227
 2563SOL    HW2 9587   1.268   5.926   4.222
 2564SOL     OW 9588   7.480   8.360  11.630
 2564SOL    HW1 9589   7.423   8.395  11.562
 2564SOL    HW2 9590   7.568   8.392  11.607
 2565SOL     OW 9591   1.448  12.092   1.324
 2565SOL    HW1 9592   1.374  12.048   1.282
 2565SOL    HW2 9593   1.519  12.027   1.323
 2566SOL     OW 9594  14.813  14.032  11.912
 2566SOL    HW1 9595  14.783  14.043  12.002
 2566SOL    HW2 9596  14.765  13.956  11.879
 2567SOL     OW 9597   2.987   5.872   0.472
 2567SOL    HW1 9598   2.945   5.804   0.420
 2567SOL    HW2 9599   3.022   5.934   0.407
 2568SOL     OW 9600   4.097   1.523   0.783
 2568SOL    HW1 9601   4.189   1.547   0.799
 2568SOL    HW2 9602   4.060   1.516   0.871
 2569SOL     OW 9603   0.723  10.300  14.479
 2569SOL    HW1 9604   0.638  10.260  14.463
 2569SOL    HW2 9605   0.711  10.391  14.454
 2570SOL     OW 9606   5.070   0.389   4.712
 2570SOL    HW1 9607   5.051   0.358   4.801
 2570SOL    HW2 9608   4.987   0.377   4.665
 2571SOL     OW 9609  13.935   3.745   3.137
 2571SOL    HW1 9610  13.992   3.817   3.110
 2571SOL    HW2 9611  13.943   3.680   3.068
 2572SOL     OW 9612   3.928   4.630  13.543
 2572SOL    HW1 9613   3.989   4.584  13.485
 2572SOL    HW2 9614   3.972   4.713  13.563
 2573SOL     OW 9615  12.839   5.087   7.852
 2573SOL    HW1 9616  12.921   5.129   7.878
 2573SOL    HW2 9617  12.805   5.049   7.933
 2574SOL     OW 9618   5.971  10.814   8.935
 2574SOL    HW1 9619   6.024  10.750   8.888
 2574SOL    HW2 9620   5.903  10.839   8.873
 2575SOL     OW 9621  13.341   1.378   9.966
 2575SOL    HW1 9622  13.278   1.329   9.913
 2575SOL    HW2 9623  13.310   1.468   9.964
 2576SOL     OW 9624   8.145  13.863   1.499
 2576SOL    HW1 9625   8.058  13.903   1.503
 2576SOL    HW2 9626   8.156  13.820   1.584
 2577SOL     OW 9627   4.282  10.103  10.513
 2577SOL    HW1 9628   4.353  10.093  10.577
 2577SOL    HW2 9629   4.288  10.195  10.485
 2578SOL     OW 9630  13.696  13.038  12.525
 2578SOL    HW1 9631  13.645  12.996  12.594
 2578SOL    HW2 9632  13.721  13.123  12.562
 2579SOL     OW 9633   4.559  10.989   6.179
 2579SOL    HW1 9634   4.648  10.953   6.176
 2579SOL    HW2 9635   4.503  10.914   6.195
 2580SOL     OW 9636   5.915   8.183  14.721
 2580SOL    HW1 9637   5.900   8.277  14.732
 2580SOL    HW2 9638   5.929   8.151  14.810
 2581SOL     OW 9639  14.645   0.767  11.436
 2581SOL    HW1 9640  14.665   0.787  11.345
 2581SOL    HW2 9641  14.658   0.850  11.482
 2582SOL     OW 9642   4.393   6.533   7.703
 2582SOL    HW1 9643   4.443   6.475   7.761
 2582SOL    HW2 9644   4.456   6.597   7.672
 2583SOL     OW 9645  14.282  14.514  13.027
 2583SOL    HW1 9646  14.247  14.603  13.036
 2583SOL    HW2 9647  14.376  14.526  13.018
 2584SOL     OW 9648   3.788  14.491   2.990
 2584SOL    HW1 9649   3.749  14.407   3.015
 2584SOL    HW2 9650   3.882  14.475   2.990
 2585SOL     OW 9651  13.412  10.654  10.478
 2585SOL    HW1 9652  13.489  10.614  10.519
 2585SOL    HW2 9653  13.385  10.721  10.540
 2586SOL     OW 9654   1.122   9.755   3.171
 2586SOL    HW1 9655   1.128   9.835   3.225
 2586SOL    HW2 9656   1.045   9.769   3.116
 2587SOL     OW 9657  13.513   6.079  13.428
 2587SOL    HW1 9658  13.428   6.102  13.464
 2587SOL    HW2 9659  13.494   6.046  13.340
 2588SOL     OW 9660   1.652  10.274  13.333
 2588SOL    HW1 9661   1.575  10.330  13.326
 2588SOL    HW2 9662   1.726  10.335  13.339
 2589SOL     OW 9663   3.600   3.176   1.775
 2589SOL    HW1 9664   3.505   3.188   1.778
 2589SOL    HW2 9665   3.618   3.151   1.684
 2590SOL     OW 9666   0.640  12.006  13.123
 2590SOL    HW1 9667   0.617  12.009  13.030
 2590SOL    HW2 9668   0.718  11.950  13.127
 2591SOL     OW 9669   0.064   3.899   1.240
 2591SOL    HW1 9670   0.062   3.979   1.291
 2591SOL    HW2 9671  14.865   3.906   1.180
 2592SOL     OW 9672   6.300   3.048  13.487
 2592SOL    HW1 9673   6.393   3.032  13.500
 2592SOL    HW2 9674   6.289   3.141  13.505
 2593SOL     OW 9675   6.167   8.010   7.964
 2593SOL    HW1 9676   6.257   8.040   7.950
 2593SOL    HW2 9677   6.115   8.061   7.901
 2594SOL     OW 9678  14.489   8.401   1.296
 2594SOL    HW1 9679  14.538   8.474   1.332
 2594SOL    HW2 9680  14.399   8.415   1.325
 2595SOL     OW 9681   7.006  14.779  13.930
 2595SOL    HW1 9682   7.048  14.787  13.844
 2595SOL    HW2 9683   7.053  14.706  13.973
 2596SOL     OW 9684   1.851  12.670   3.023
 2596SOL    HW1 9685   1.766  12.673   2.979
 2596SOL    HW2 9686   1.866  12.759   3.053
 2597SOL     OW 9687   9.341   6.028   7.714
 2597SOL    HW1 9688   9.389   6.082   7.776
 2597SOL    HW2 9689   9.401   5.957   7.692
 2598SOL     OW 9690   5.216  13.062   4.282
 2598SOL    HW1 9691   5.142  13.106   4.240
 2598SOL    HW2 9692   5.210  12.971   4.252
 2599SOL     OW 9693   5.515  10.733  10.077
 2599SOL    HW1 9694   5.518  10.640  10.054
 2599SOL    HW2 9695   5.448  10.738  10.146
 2600SOL     OW 9696   1.542   3.105   8.131
 2600SOL    HW1 9697   1.630   3.103   8.094
 2600SOL    HW2 9698   1.489   3.055   8.070
 2601SOL     OW 9699  10.017   3.708  14.283
 2601SOL    HW1 9700   9.946   3.739  14.226
 2601SOL    HW2 9701  10.037   3.783  14.339
 2602SOL     OW 9702   4.397   3.725   3.981
 2602SOL    HW1 9703   4.329   3.766   3.929
 2602SOL    HW2 9704   4.425   3.649   3.930
 2603SOL     OW 9705  12.180   0.899  10.524
 2603SOL    HW1 9706  12.089   0.928  10.531
 2603SOL    HW2 9707  12.223   0.935  10.603
 2604SOL     OW 9708   9.390  11.893   4.196
 2604SOL    HW1 9709   9.296  11.894   4.214
 2604SOL    HW2 9710   9.424  11.822   4.251
 2605SOL     OW 9711  11.021  11.377   1.301
 2605SOL    HW1 9712  10.996  11.383   1.393
 2605SOL    HW2 9713  11.097  11.436   1.294
 2606SOL     OW 9714   1.152  11.663   3.423
 2606SOL    HW1 9715   1.057  11.663   3.413
 2606SOL    HW2 9716   1.186  11.645   3.335
 2607SOL     OW 9717   3.584   8.741   6.751
 2607SOL    HW1 9718   3.628   8.724   6.668
 2607SOL    HW2 9719   3.626   8.819   6.786
 2608SOL     OW 9720   9.212   8.530   0.903
 2608SOL    HW1 9721   9.170   8.494   0.981
 2608SOL    HW2 9722   9.163   8.493   0.830
 2609SOL     OW 9723  13.023   4.872  10.146
 2609SOL    HW1 9724  12.960   4.801  10.136
 2609SOL    HW2 9725  13.075   4.870  10.065
 2610SOL     OW 9726  10.838   6.313   2.382
 2610SOL    HW1 9727  10.886   6.368   2.444
 2610SOL    HW2 9728  10.841   6.225   2.420
 2611SOL     OW 9729   2.668  12.052  11.106
 2611SOL    HW1 9730   2.709  12.005  11.034
 2611SOL    HW2 9731   2.680  12.145  11.084
 2612SOL     OW 9732   1.105   3.113   9.147
 2612SOL    HW1 9733   1.110   3.204   9.176
 2612SOL    HW2 9734   1.021   3.081   9.181
 2613SOL     OW 9735   2.634   1.866   1.512
 2613SOL    HW1 9736   2.720   1.904   1.531
 2613SOL    HW2 9737   2.586   1.874   1.595
 2614SOL     OW 9738  10.807   4.172   4.009
 2614SOL    HW1 9739  10.758   4.222   3.944
 2614SOL    HW2 9740  10.773   4.203   4.093
 2615SOL     OW 9741   9.858  13.541   8.651
 2615SOL    HW1 9742   9.939  13.590   8.665
 2615SOL    HW2 9743   9.830  13.565   8.563
 2616SOL     OW 9744  12.543   7.509   3.968
 2616SOL    HW1 9745  12.528   7.418   3.993
 2616SOL    HW2 9746  12.537   7.509   3.872
 2617SOL     OW 9747   5.871  13.505   5.900
 2617SOL    HW1 9748   5.923  13.559   5.960
 2617SOL    HW2 9749   5.861  13.558   5.821
 2618SOL     OW 9750   2.704   5.635   0.429
 2618SOL    HW1 9751   2.635   5.638   0.363
 2618SOL    HW2 9752   2.783   5.611   0.381
 2619SOL     OW 9753   7.207   9.419   3.456
 2619SOL    HW1 9754   7.215   9.369   3.374
 2619SOL    HW2 9755   7.292   9.461   3.466
 2620SOL     OW 9756   1.131   5.895   9.203
 2620SOL    HW1 9757   1.225   5.915   9.207
 2620SOL    HW2 9758   1.088   5.981   9.205
 2621SOL     OW 9759   6.852  13.005  12.746
 2621SOL    HW1 9760   6.877  13.056  12.823
 2621SOL    HW2 9761   6.798  13.065  12.694
 2622SOL     OW 9762  12.697   3.421   9.270
 2622SOL    HW1 9763  12.667   3.419   9.362
 2622SOL    HW2 9764  12.791   3.436   9.276
 2623SOL     OW 9765  10.996  13.006  14.506
 2623SOL    HW1 9766  10.907  13.020  14.539
 2623SOL    HW2 9767  11.001  13.060  14.427
 2624SOL     OW 9768   2.619  13.406  11.142
 2624SOL    HW1 9769   2.595  13.495  11.168
 2624SOL    HW2 9770   2.639  13.413  11.049
 2625SOL     OW 9771  12.353   5.513   6.087
 2625SOL    HW1 9772  12.346   5.601   6.123
 2625SOL    HW2 9773  12.445   5.502   6.066
 2626SOL     OW 9774   3.176   4.907   5.949
 2626SOL    HW1 9775   3.129   4.836   5.905
 2626SOL    HW2 9776   3.221   4.953   5.878
 2627SOL     OW 9777   9.650   1.805   2.182
 2627SOL    HW1 9778   9.645   1.724   2.133
 2627SOL    HW2 9779   9.559   1.835   2.188
 2628SOL     OW 9780   2.939  13.773   0.142
 2628SOL    HW1 9781   2.865  13.779   0.082
 2628SOL    HW2 9782   3.002  13.716   0.098
 2629SOL     OW 9783   6.839  12.936   5.294
 2629SOL    HW1 9784   6.765  12.879   5.315
 2629SOL    HW2 9785   6.837  13.003   5.363
 2630SOL     OW 9786  11.508   5.625  11.557
 2630SOL    HW1 9787  11.595   5.602  11.526
 2630SOL    HW2 9788  11.453   5.551  11.531
 2631SOL     OW 9789  13.690   0.304   5.596
 2631SOL    HW1 9790  13.663   0.374   5.537
 2631SOL    HW2 9791  13.785   0.313   5.602
 2632SOL     OW 9792  13.980   1.829   6.984
 2632SOL    HW1 9793  13.934   1.812   6.901
 2632SOL    HW2 9794  14.036   1.753   6.997
 2633SOL     OW 9795  10.764   3.905   2.653
 2633SOL    HW1 9796  10.842   3.860   2.684
 2633SOL    HW2 9797  10.762   3.888   2.559
 2634SOL     OW 9798   5.773   0.532   4.713
 2634SOL    HW1 9799   5.799   0.453   4.760
 2634SOL    HW2 9800   5.835   0.599   4.742
 2635SOL     OW 9801  13.000   8.538  14.664
 2635SOL    HW1 9802  13.049   8.506  14.740
 2635SOL    HW2 9803  12.987   8.461  14.609
 2636SOL     OW 9804  13.969   5.397   2.638
 2636SOL    HW1 9805  13.955   5.475   2.583
 2636SOL    HW2 9806  13.998   5.432   2.722
 2637SOL     OW 9807   9.403   8.916  10.765
 2637SOL    HW1 9808   9.308   8.905  10.770
 2637SOL    HW2 9809   9.431   8.857  10.695
 2638SOL     OW 9810   8.524  12.413   3.125
 2638SOL    HW1 9811   8.553  12.325   3.102
 2638SOL    HW2 9812   8.439  12.400   3.167
 2639SOL     OW 9813   2.995   7.071  14.618
 2639SOL    HW1 9814   2.910   7.044  14.582
 2639SOL    HW2 9815   2.982   7.163  14.642
 2640SOL     OW 9816  13.043   1.532   2.518
 2640SOL    HW1 9817  12.974   1.544   2.452
 2640SOL    HW2 9818  13.088   1.617   2.521
 2641SOL     OW 9819   8.901  10.645   5.876
 2641SOL    HW1 9820   8.940  10.715   5.824
 2641SOL    HW2 9821   8.869  10.582   5.811
 2642SOL     OW 9822   0.815   1.160  14.546
 2642SOL    HW1 9823   0.848   1.242  14.509
 2642SOL    HW2 9824   0.875   1.141  14.618
 2643SOL     OW 9825  13.274   2.089   2.681
 2643SOL    HW1 9826  13.341   2.130   2.735
 2643SOL    HW2 9827  13.293   2.119   2.592
 2644SOL     OW 9828  14.495  12.211   7.546
 2644SOL    HW1 9829  14.413  12.216   7.594
 2644SOL    HW2 9830  14.548  12.283   7.582
 2645SOL     OW 9831  10.962  14.258  11.878
 2645SOL    HW1 9832  11.047  14.299  11.893
 2645SOL    HW2 9833  10.898  14.327  11.892
 2646SOL     OW 9834   5.220  13.052  11.316
 2646SOL    HW1 9835   5.245  13.128  11.265
 2646SOL    HW2 9836   5.203  13.086  11.404
 2647SOL     OW 9837  11.797   7.080   6.622
 2647SOL    HW1 9838  11.839   7.127   6.550
 2647SOL    HW2 9839  11.749   7.009   6.579
 2648SOL     OW 9840   5.190   8.385   7.999
 2648SOL    HW1 9841   5.122   8.350   8.056
 2648SOL    HW2 9842   5.264   8.325   8.010
 2649SOL     OW 9843   4.366   6.795   0.667
 2649SOL    HW1 9844   4.301   6.784   0.597
 2649SOL    HW2 9845   4.442   6.744   0.637
 2650SOL     OW 9846  10.881   4.049  13.477
 2650SOL    HW1 9847  10.859   4.120  13.417
 2650SOL    HW2 9848  10.916   3.980  13.421
 2651SOL     OW 9849   6.371   7.329  13.035
 2651SOL    HW1 9850   6.327   7.244  13.029
 2651SOL    HW2 9851   6.365   7.353  13.127
 2652SOL     OW 9852   4.533   9.613  14.829
 2652SOL    HW1 9853   4.515   9.663   0.035
 2652SOL    HW2 9854   4.619   9.644  14.801
 2653SOL     OW 9855   1.474   3.002   4.721
 2653SOL    HW1 9856   1.472   2.971   4.630
 2653SOL    HW2 9857   1.567   2.996   4.746
 2654SOL     OW 9858   7.979   2.091   4.635
 2654SOL    HW1 9859   7.927   2.170   4.619
 2654SOL    HW2 9860   7.997   2.055   4.548
 2655SOL     OW 9861   5.206  10.152   6.052
 2655SOL    HW1 9862   5.137  10.162   6.119
 2655SOL    HW2 9863   5.286  10.181   6.096
 2656SOL     OW 9864   9.596   5.565  14.303
 2656SOL    HW1 9865   9.576   5.552  14.210
 2656SOL    HW2 9866   9.609   5.660  14.312
 2657SOL     OW 9867  10.811   6.453   1.490
 2657SOL    HW1 9868  10.762   6.534   1.475
 2657SOL    HW2 9869  10.832   6.422   1.402
 2658SOL     OW 9870   0.156   7.909   2.489
 2658SOL    HW1 9871   0.153   7.818   2.516
 2658SOL    HW2 9872   0.249   7.933   2.496
 2659SOL     OW 9873  11.486  12.382  13.878
 2659SOL    HW1 9874  11.476  12.475  13.898
 2659SOL    HW2 9875  11.539  12.381  13.798
 2660SOL     OW 9876   5.203   1.225  14.265
 2660SOL    HW1 9877   5.156   1.309  14.264
 2660SOL    HW2 9878   5.205   1.198  14.174
 2661SOL     OW 9879   2.098   0.224   6.732
 2661SOL    HW1 9880   2.181   0.271   6.724
 2661SOL    HW2 9881   2.095   0.196   6.824
 2662SOL     OW 9882  11.512   4.818  12.042
 2662SOL    HW1 9883  11.526   4.912  12.050
 2662SOL    HW2 9884  11.421   4.808  12.016
 2663SOL     OW 9885   7.376   2.709   2.467
 2663SOL    HW1 9886   7.462   2.748   2.483
 2663SOL    HW2 9887   7.361   2.654   2.543
 2664SOL     OW 9888  10.112   9.132  11.409
 2664SOL    HW1 9889  10.081   9.046  11.379
 2664SOL    HW2 9890  10.084   9.193  11.341
 2665SOL     OW 9891   4.141   0.018  14.598
 2665SOL    HW1 9892   4.102   0.032  14.511
 2665SOL    HW2 9893   4.135   0.103  14.641
 2666SOL     OW 9894  12.380   6.211   3.899
 2666SOL    HW1 9895  12.333   6.220   3.816
 2666SOL    HW2 9896  12.324   6.154   3.952
 2667SOL     OW 9897   4.395  12.856   2.429
 2667SOL    HW1 9898   4.314  12.824   2.389
 2667SOL    HW2 9899   4.403  12.807   2.511
 2668SOL     OW 9900  13.257   1.152   1.569
 2668SOL    HW1 9901  13.304   1.227   1.605
 2668SOL    HW2 9902  13.240   1.095   1.644
 2669SOL     OW 9903  11.253   3.839   1.440
 2669SOL    HW1 9904  11.209   3.850   1.524
 2669SOL    HW2 9905  11.242   3.746   1.419
 2670SOL     OW 9906  12.784   0.053   9.598
 2670SOL    HW1 9907  12.796  14.858   9.662
 2670SOL    HW2 9908  12.828   0.129   9.637
 2671SOL     OW 9909   9.930  12.298  11.700
 2671SOL    HW1 9910   9.934  12.206  11.675
 2671SOL    HW2 9911   9.962  12.345  11.622
 2672SOL     OW 9912  11.941  14.473  13.909
 2672SOL    HW1 9913  11.953  14.427  13.826
 2672SOL    HW2 9914  11.986  14.419  13.973
 2673SOL     OW 9915  14.266  11.915   3.564
 2673SOL    HW1 9916  14.171  11.907   3.553
 2673SOL    HW2 9917  14.281  12.009   3.573
 2674SOL     OW 9918  12.980   4.556   5.797
 2674SOL    HW1 9919  13.075   4.544   5.801
 2674SOL    HW2 9920  12.947   4.478   5.752
 2675SOL     OW 9921   6.321  13.121   2.822
 2675SOL    HW1 9922   6.365  13.130   2.737
 2675SOL    HW2 9923   6.274  13.038   2.816
 2676SOL     OW 9924   7.724   4.282  13.992
 2676SOL    HW1 9925   7.697   4.322  14.075
 2676SOL    HW2 9926   7.809   4.322  13.973
 2677SOL     OW 9927   3.064   8.144   2.547
 2677SOL    HW1 9928   3.135   8.160   2.609
 2677SOL    HW2 9929   3.049   8.049   2.551
 2678SOL     OW 9930  13.316  12.508   3.706
 2678SOL    HW1 9931  13.357  12.530   3.789
 2678SOL    HW2 9932  13.383  12.460   3.657
 2679SOL     OW 9933   2.295  13.437   2.248
 2679SOL    HW1 9934   2.300  13.423   2.153
 2679SOL    HW2 9935   2.230  13.507   2.258
 2680SOL     OW 9936   9.403  14.284   8.569
 2680SOL    HW1 9937   9.362  14.370   8.579
 2680SOL    HW2 9938   9.474  14.299   8.506
 2681SOL     OW 9939   4.374  13.931   6.499
 2681SOL    HW1 9940   4.344  13.964   6.414
 2681SOL    HW2 9941   4.464  13.902   6.482
 2682SOL     OW 9942  13.753   3.523  11.028
 2682SOL    HW1 9943  13.847   3.533  11.044
 2682SOL    HW2 9944  13.728   3.446  11.080
 2683SOL     OW 9945   3.534   4.538   0.061
 2683SOL    HW1 9946   3.576   4.571   0.140
 2683SOL    HW2 9947   3.495   4.615   0.020
 2684SOL     OW 9948  13.300  11.580   2.023
 2684SOL    HW1 9949  13.249  11.632   1.961
 2684SOL    HW2 9950  13.255  11.590   2.106
 2685SOL     OW 9951   2.842   1.593  11.358
 2685SOL    HW1 9952   2.921   1.603  11.306
 2685SOL    HW2 9953   2.816   1.682  11.381
 2686SOL     OW 9954   0.712   1.257  14.106
 2686SOL    HW1 9955   0.641   1.220  14.054
 2686SOL    HW2 9956   0.739   1.185  14.164
 2687SOL     OW 9957  14.034  12.269   5.859
 2687SOL    HW1 9958  14.043  12.189   5.807
 2687SOL    HW2 9959  13.974  12.244   5.930
 2688SOL     OW 9960   1.501   8.103  12.191
 2688SOL    HW1 9961   1.501   8.128  12.284
 2688SOL    HW2 9962   1.535   8.014  12.190
 2689SOL     OW 9963   2.162   9.520   5.767
 2689SOL    HW1 9964   2.245   9.485   5.734
 2689SOL    HW2 9965   2.173   9.519   5.862
 2690SOL     OW 9966   6.982   4.204   4.187
 2690SOL    HW1 9967   7.050   4.252   4.235
 2690SOL    HW2 9968   7.020   4.190   4.100
 2691SOL     OW 9969   0.728  12.722   5.352
 2691SOL    HW1 9970   0.822  12.739   5.351
 2691SOL    HW2 9971   0.721  12.627   5.353
 2692SOL     OW 9972  13.763  10.206   9.578
 2692SOL    HW1 9973  13.763  10.302   9.577
 2692SOL    HW2 9974  13.685  10.182   9.529
 2693SOL     OW 9975   6.955   3.813   5.152
 2693SOL    HW1 9976   6.963   3.803   5.247
 2693SOL    HW2 9977   6.943   3.724   5.120
 2694SOL     OW 9978   5.365   7.894   8.217
 2694SOL    HW1 9979   5.308   7.950   8.270
 2694SOL    HW2 9980   5.326   7.807   8.225
 2695SOL     OW 9981   4.705   5.551  13.354
 2695SOL    HW1 9982   4.655   5.554  13.436
 2695SOL    HW2 9983   4.667   5.477  13.306
 2696SOL     OW 9984   2.844   8.209   2.735
 2696SOL    HW1 9985   2.910   8.164   2.789
 2696SOL    HW2 9986   2.895   8.262   2.675
 2697SOL     OW 9987  13.833  14.137   9.480
 2697SOL    HW1 9988  13.878  14.113   9.560
 2697SOL    HW2 9989  13.902  14.163   9.420
 2698SOL     OW 9990   9.599  14.361   3.359
 2698SOL    HW1 9991   9.632  14.357   3.449
 2698SOL    HW2 9992   9.675  14.385   3.307
 2699SOL     OW 9993   6.858   7.683   4.715
 2699SOL    HW1 9994   6.890   7.593   4.706
 2699SOL    HW2 9995   6.852   7.697   4.809
 2700SOL     OW 9996  10.065   4.887  11.200
 2700SOL    HW1 9997  10.056   4.951  11.130
 2700SOL    HW2 9998  10.111   4.813  11.159
 2701SOL     OW 9999   0.670  12.412   2.721
 2701SOL    HW110000   0.595  12.468   2.742
 2701SOL    HW210001   0.631  12.327   2.702
 2702SOL     OW10002  12.266   1.870   3.904
 2702SOL    HW110003  12.349   1.828   3.880
 2702SOL    HW210004  12.245   1.833   3.989
 2703SOL     OW10005   3.219  14.239   7.750
 2703SOL    HW110006   3.280  14.302   7.790
 2703SOL    HW210007   3.222  14.259   7.657
 2704SOL     OW10008   8.091   9.622   7.112
 2704SOL    HW110009   8.177   9.651   7.139
 2704SOL    HW210010   8.099   9.607   7.018
 2705SOL     OW10011  13.519   0.568  10.067
 2705SOL    HW110012  13.570   0.627  10.011
 2705SOL    HW210013  13.565   0.569  10.151
 2706SOL     OW10014  11.659   2.242  11.514
 2706SOL    HW110015  11.575   2.280  11.540
 2706SOL    HW210016  11.640   2.194  11.433
 2707SOL     OW10017   0.718  14.768  14.168
 2707SOL    HW110018   0.667  14.844  14.138
 2707SOL    HW210019   0.719  14.709  14.092
 2708SOL     OW10020   1.258  11.282  12.055
 2708SOL    HW110021   1.341  11.327  12.072
 2708SOL    HW210022   1.193  11.333  12.102
 2709SOL     OW10023  13.662   8.626   2.322
 2709SOL    HW110024  13.619   8.691   2.267
 2709SOL    HW210025  13.656   8.544   2.272
 2710SOL     OW10026  11.990   6.499   3.509
 2710SOL    HW110027  12.043   6.510   3.589
 2710SOL    HW210028  12.026   6.563   3.448
 2711SOL     OW10029   9.171  13.077   1.144
 2711SOL    HW110030   9.145  13.153   1.092
 2711SOL    HW210031   9.093  13.056   1.195
 2712SOL     OW10032   0.656   8.766   1.547
 2712SOL    HW110033   0.722   8.702   1.572
 2712SOL    HW210034   0.692   8.807   1.468
 2713SOL     OW10035   4.354   6.707   1.440
 2713SOL    HW110036   4.433   6.713   1.494
 2713SOL    HW210037   4.326   6.797   1.427
 2714SOL     OW10038  11.428   6.166  10.712
 2714SOL    HW110039  11.339   6.161  10.749
 2714SOL    HW210040  11.458   6.076  10.710
 2715SOL     OW10041   3.749  12.514   8.038
 2715SOL    HW110042   3.771  12.525   8.130
 2715SOL    HW210043   3.729  12.603   8.007
 2716SOL     OW10044  12.842  10.134   0.310
 2716SOL    HW110045  12.843  10.211   0.254
 2716SOL    HW210046  12.820  10.062   0.251
 2717SOL     OW10047  11.386   3.976   6.319
 2717SOL    HW110048  11.411   3.921   6.393
 2717SOL    HW210049  11.315   4.031   6.353
 2718SOL     OW10050   2.884  10.987  10.739
 2718SOL    HW110051   2.978  11.005  10.736
 2718SOL    HW210052   2.875  10.898  10.705
 2719SOL     OW10053   6.275  13.146   9.252
 2719SOL    HW110054   6.241  13.125   9.165
 2719SOL    HW210055   6.247  13.073   9.307
 2720SOL     OW10056   7.198  13.835   1.010
 2720SOL    HW110057   7.292  13.849   0.996
 2720SOL    HW210058   7.193  13.747   1.048
 2721SOL     OW10059  13.550  12.208   1.047
 2721SOL    HW110060  13.520  12.120   1.022
 2721SOL    HW210061  13.475  12.265   1.029
 2722SOL     OW10062   4.758   8.668  12.644
 2722SOL    HW110063   4.806   8.586  12.629
 2722SOL    HW210064   4.711   8.684  12.562
 2723SOL     OW10065   3.723   8.921  14.048
 2723SOL    HW110066   3.661   8.883  13.986
 2723SOL    HW210067   3.761   8.996  14.003
 2724SOL     OW10068  14.045  10.378   6.391
 2724SOL    HW110069  14.132  10.399   6.357
 2724SOL    HW210070  13.986  10.438   6.344
 2725SOL     OW10071   4.199  10.706   0.531
 2725SOL    HW110072   4.263  10.696   0.461
 2725SOL    HW210073   4.250  10.741   0.605
 2726SOL     OW10074   9.332   1.178   9.948
 2726SOL    HW110075   9.357   1.098   9.902
 2726SOL    HW210076   9.264   1.217   9.893
 2727SOL     OW10077   3.679   3.555  11.530
 2727SOL    HW110078   3.629   3.504  11.467
 2727SOL    HW210079   3.747   3.494  11.561
 2728SOL     OW10080  13.424   3.019   2.678
 2728SOL    HW110081  13.383   3.104   2.695
 2728SOL    HW210082  13.516   3.033   2.700
 2729SOL     OW10083   8.517  12.345   2.804
 2729SOL    HW110084   8.612  12.333   2.796
 2729SOL    HW210085   8.507  12.430   2.847
 2730SOL     OW10086   1.286  13.169   4.789
 2730SOL    HW110087   1.313  13.143   4.877
 2730SOL    HW210088   1.192  13.155   4.787
 2731SOL     OW10089   1.883  12.492   0.185
 2731SOL    HW110090   1.872  12.459   0.096
 2731SOL    HW210091   1.812  12.556   0.196
 2732SOL     OW10092  11.003   7.717   9.829
 2732SOL    HW110093  11.021   7.663   9.752
 2732SOL    HW210094  10.934   7.777   9.800
 2733SOL     OW10095   9.178   1.496   6.434
 2733SOL    HW110096   9.247   1.544   6.479
 2733SOL    HW210097   9.119   1.563   6.401
 2734SOL     OW10098   5.611   2.880   9.444
 2734SOL    HW110099   5.600   2.826   9.366
 2734SOL    HW210100   5.705   2.891   9.453
 2735SOL     OW10101   3.453  11.260   8.902
 2735SOL    HW110102   3.509  11.311   8.843
 2735SOL    HW210103   3.364  11.285   8.877
 2736SOL     OW10104  13.746  11.457  13.349
 2736SOL    HW110105  13.797  11.378  13.366
 2736SOL    HW210106  13.668  11.447  13.404
 2737SOL     OW10107   5.638   2.170  13.871
 2737SOL    HW110108   5.724   2.185  13.911
 2737SOL    HW210109   5.615   2.254  13.831
 2738SOL     OW10110   6.880   0.517   8.507
 2738SOL    HW110111   6.838   0.562   8.581
 2738SOL    HW210112   6.974   0.530   8.523
 2739SOL     OW10113  13.287   3.507  10.064
 2739SOL    HW110114  13.363   3.461  10.100
 2739SOL    HW210115  13.212   3.452  10.087
 2740SOL     OW10116  12.076  11.330   9.013
 2740SOL    HW110117  12.042  11.303   9.099
 2740SOL    HW210118  12.022  11.405   8.989
 2741SOL     OW10119   1.603  13.831   1.601
 2741SOL    HW110120   1.576  13.853   1.690
 2741SOL    HW210121   1.560  13.897   1.546
 2742SOL     OW10122  12.122  14.324   2.023
 2742SOL    HW110123  12.154  14.236   2.003
 2742SOL    HW210124  12.194  14.366   2.069
 2743SOL     OW10125   2.907   4.286   7.520
 2743SOL    HW110126   2.884   4.372   7.483
 2743SOL    HW210127   2.989   4.302   7.568
 2744SOL     OW10128   7.206   8.928   1.972
 2744SOL    HW110129   7.204   8.841   1.931
 2744SOL    HW210130   7.284   8.926   2.028
 2745SOL     OW10131   1.712  10.999   2.603
 2745SOL    HW110132   1.703  11.044   2.687
 2745SOL    HW210133   1.643  10.933   2.603
 2746SOL     OW10134   6.830   8.260   5.661
 2746SOL    HW110135   6.891   8.194   5.626
 2746SOL    HW210136   6.745   8.234   5.627
 2747SOL     OW10137   0.368   0.796  13.099
 2747SOL    HW110138   0.302   0.860  13.125
 2747SOL    HW210139   0.406   0.765  13.181
 2748SOL     OW10140   2.019   6.239  12.448
 2748SOL    HW110141   2.056   6.165  12.400
 2748SOL    HW210142   2.091   6.269  12.504
 2749SOL     OW10143   0.409   1.086   9.711
 2749SOL    HW110144   0.347   1.128   9.772
 2749SOL    HW210145   0.461   1.158   9.676
 2750SOL     OW10146  10.870   6.435   7.011
 2750SOL    HW110147  10.942   6.413   7.070
 2750SOL    HW210148  10.792   6.400   7.055
 2751SOL     OW10149  12.189  11.237   1.419
 2751SOL    HW110150  12.163  11.313   1.473
 2751SOL    HW210151  12.154  11.162   1.466
 2752SOL     OW10152   2.936  10.305  11.359
 2752SOL    HW110153   3.014  10.279  11.409
 2752SOL    HW210154   2.946  10.260  11.275
 2753SOL     OW10155   8.815   4.655  13.705
 2753SOL    HW110156   8.851   4.616  13.625
 2753SOL    HW210157   8.775   4.583  13.752
 2754SOL     OW10158   2.088   9.186   2.371
 2754SOL    HW110159   2.092   9.154   2.281
 2754SOL    HW210160   2.048   9.114   2.420
 2755SOL     OW10161   5.359   0.249  10.026
 2755SOL    HW110162   5.367   0.295   9.942
 2755SOL    HW210163   5.343   0.158  10.002
 2756SOL     OW10164   4.758   9.978   5.057
 2756SOL    HW110165   4.704   9.995   5.134
 2756SOL    HW210166   4.737   9.888   5.032
 2757SOL     OW10167  14.109   4.966   6.681
 2757SOL    HW110168  14.033   4.936   6.631
 2757SOL    HW210169  14.171   4.893   6.677
 2758SOL     OW10170   1.778  10.808  12.856
 2758SOL    HW110171   1.749  10.834  12.769
 2758SOL    HW210172   1.743  10.875  12.915
 2759SOL     OW10173  14.291   1.312   4.684
 2759SOL    HW110174  14.323   1.269   4.763
 2759SOL    HW210175  14.197   1.295   4.684
 2760SOL     OW10176   3.647  14.840   5.908
 2760SOL    HW110177   3.673  14.748   5.915
 2760SOL    HW210178   3.558  14.838   5.874
 2761SOL     OW10179   4.179   9.667   4.219
 2761SOL    HW110180   4.121   9.602   4.180
 2761SOL    HW210181   4.265   9.647   4.183
 2762SOL     OW10182   3.461   3.725  10.442
 2762SOL    HW110183   3.374   3.750  10.474
 2762SOL    HW210184   3.477   3.781  10.367
 2763SOL     OW10185   3.270   4.141  11.599
 2763SOL    HW110186   3.237   4.200  11.667
 2763SOL    HW210187   3.238   4.055  11.625
 2764SOL     OW10188   9.142   8.180   2.080
 2764SOL    HW110189   9.111   8.232   2.154
 2764SOL    HW210190   9.205   8.237   2.035
 2765SOL     OW10191   2.684   1.354   7.283
 2765SOL    HW110192   2.591   1.368   7.266
 2765SOL    HW210193   2.728   1.380   7.202
 2766SOL     OW10194   2.935  11.183   6.918
 2766SOL    HW110195   2.841  11.194   6.903
 2766SOL    HW210196   2.972  11.176   6.830
 2767SOL     OW10197   8.597  10.305   0.473
 2767SOL    HW110198   8.688  10.313   0.502
 2767SOL    HW210199   8.601  10.253   0.393
 2768SOL     OW10200   3.122   6.763   7.225
 2768SOL    HW110201   3.069   6.794   7.151
 2768SOL    HW210202   3.136   6.670   7.208
 2769SOL     OW10203   1.588   2.746  11.953
 2769SOL    HW110204   1.560   2.735  11.863
 2769SOL    HW210205   1.677   2.782  11.947
 2770SOL     OW10206  13.154  10.465   6.068
 2770SOL    HW110207  13.217  10.471   5.996
 2770SOL    HW210208  13.207  10.464   6.147
 2771SOL     OW10209   6.680  12.388   8.305
 2771SOL    HW110210   6.698  12.350   8.219
 2771SOL    HW210211   6.747  12.455   8.317
 2772SOL     OW10212  10.297   9.781   1.514
 2772SOL    HW110213  10.233   9.743   1.575
 2772SOL    HW210214  10.257   9.864   1.487
 2773SOL     OW10215  11.128   1.484   5.655
 2773SOL    HW110216  11.126   1.396   5.693
 2773SOL    HW210217  11.036   1.511   5.653
 2774SOL     OW10218   6.400  10.816  12.225
 2774SOL    HW110219   6.454  10.887  12.189
 2774SOL    HW210220   6.463  10.747  12.246
 2775SOL     OW10221  11.614   4.154   7.205
 2775SOL    HW110222  11.677   4.092   7.241
 2775SOL    HW210223  11.667   4.222   7.164
 2776SOL     OW10224  11.877   6.597   2.847
 2776SOL    HW110225  11.944   6.604   2.778
 2776SOL    HW210226  11.919   6.545   2.916
 2777SOL     OW10227  10.880  14.258  14.210
 2777SOL    HW110228  10.794  14.217  14.219
 2777SOL    HW210229  10.929  14.229  14.287
 2778SOL     OW10230   8.017   2.995  12.844
 2778SOL    HW110231   7.933   2.979  12.889
 2778SOL    HW210232   7.999   3.069  12.786
 2779SOL     OW10233  11.998   0.204  10.278
 2779SOL    HW110234  12.001   0.275  10.214
 2779SOL    HW210235  11.952   0.242  10.353
 2780SOL     OW10236  14.814   8.935   5.250
 2780SOL    HW110237  14.756   8.871   5.290
 2780SOL    HW210238   0.027   8.897   5.258
 2781SOL     OW10239   6.691   8.005   3.951
 2781SOL    HW110240   6.613   8.061   3.948
 2781SOL    HW210241   6.665   7.925   3.904
 2782SOL     OW10242  12.366  10.974  11.919
 2782SOL    HW110243  12.336  10.883  11.927
 2782SOL    HW210244  12.305  11.024  11.974
 2783SOL     OW10245  13.010   4.401   1.579
 2783SOL    HW110246  12.983   4.342   1.650
 2783SOL    HW210247  12.980   4.358   1.499
 2784SOL     OW10248   4.089   7.676   8.865
 2784SOL    HW110249   4.135   7.751   8.829
 2784SOL    HW210250   4.159   7.619   8.898
 2785SOL     OW10251   0.708   4.753   0.963
 2785SOL    HW110252   0.682   4.833   1.010
 2785SOL    HW210253   0.798   4.770   0.935
 2786SOL     OW10254   7.411   1.928  12.394
 2786SOL    HW110255   7.439   2.017  12.373
 2786SOL    HW210256   7.329   1.916  12.346
 2787SOL     OW10257   0.119   2.914   0.735
 2787SOL    HW110258   0.196   2.957   0.772
 2787SOL    HW210259   0.077   2.871   0.809
 2788SOL     OW10260   7.375   3.933   5.995
 2788SOL    HW110261   7.387   3.842   5.968
 2788SOL    HW210262   7.417   3.985   5.926
 2789SOL     OW10263   1.216   9.053  10.453
 2789SOL    HW110264   1.287   9.107  10.487
 2789SOL    HW210265   1.225   8.969  10.498
 2790SOL     OW10266  10.891  13.849  10.620
 2790SOL    HW110267  10.798  13.859  10.641
 2790SOL    HW210268  10.926  13.938  10.624
 2791SOL     OW10269   5.279  12.176  12.300
 2791SOL    HW110270   5.326  12.093  12.286
 2791SOL    HW210271   5.348  12.241  12.312
 2792SOL     OW10272   5.058   0.221   7.234
 2792SOL    HW110273   5.061   0.211   7.139
 2792SOL    HW210274   5.006   0.300   7.249
 2793SOL     OW10275   9.533  13.418  10.389
 2793SOL    HW110276   9.620  13.383  10.412
 2793SOL    HW210277   9.551  13.508  10.360
 2794SOL     OW10278  12.858   6.106  13.913
 2794SOL    HW110279  12.850   6.184  13.968
 2794SOL    HW210280  12.835   6.034  13.971
 2795SOL     OW10281   7.304   4.237  13.756
 2795SOL    HW110282   7.239   4.265  13.820
 2795SOL    HW210283   7.275   4.150  13.730
 2796SOL     OW10284   2.643  13.807   1.229
 2796SOL    HW110285   2.635  13.820   1.324
 2796SOL    HW210286   2.728  13.844   1.207
 2797SOL     OW10287  11.756   3.932   7.270
 2797SOL    HW110288  11.818   3.870   7.232
 2797SOL    HW210289  11.795   3.957   7.354
 2798SOL     OW10290  14.479   3.267  10.673
 2798SOL    HW110291  14.555   3.321  10.691
 2798SOL    HW210292  14.409   3.329  10.653
 2799SOL     OW10293   9.000   9.998   5.996
 2799SOL    HW110294   8.949  10.034   6.069
 2799SOL    HW210295   9.072  10.061   5.985
 2800SOL     OW10296   3.059   0.191   6.598
 2800SOL    HW110297   3.126   0.206   6.665
 2800SOL    HW210298   2.978   0.179   6.647
 2801SOL     OW10299  10.934   4.666  11.260
 2801SOL    HW110300  10.928   4.720  11.339
 2801SOL    HW210301  10.969   4.724  11.193
 2802SOL     OW10302   6.318   0.134   9.862
 2802SOL    HW110303   6.390   0.125   9.925
 2802SOL    HW210304   6.361   0.129   9.777
 2803SOL     OW10305   3.920   4.683  13.175
 2803SOL    HW110306   3.948   4.654  13.088
 2803SOL    HW210307   3.930   4.606  13.231
 2804SOL     OW10308   3.177   4.379   4.820
 2804SOL    HW110309   3.178   4.472   4.840
 2804SOL    HW210310   3.084   4.356   4.818
 2805SOL     OW10311   6.112  13.280   8.201
 2805SOL    HW110312   6.028  13.286   8.246
 2805SOL    HW210313   6.123  13.365   8.157
 2806SOL     OW10314   7.734  12.677   2.487
 2806SOL    HW110315   7.753  12.595   2.533
 2806SOL    HW210316   7.664  12.654   2.426
 2807SOL     OW10317  12.584  10.640   0.766
 2807SOL    HW110318  12.646  10.667   0.834
 2807SOL    HW210319  12.631  10.572   0.717
 2808SOL     OW10320  14.462   8.009  14.434
 2808SOL    HW110321  14.388   8.062  14.462
 2808SOL    HW210322  14.538   8.067  14.445
 2809SOL     OW10323   5.956   6.663   0.046
 2809SOL    HW110324   5.942   6.641   0.138
 2809SOL    HW210325   5.869   6.684   0.013
 2810SOL     OW10326   6.663  11.250   4.437
 2810SOL    HW110327   6.670  11.336   4.394
 2810SOL    HW210328   6.710  11.191   4.378
 2811SOL     OW10329  11.941   1.663  11.111
 2811SOL    HW110330  11.890   1.662  11.030
 2811SOL    HW210331  11.913   1.743  11.155
 2812SOL     OW10332   6.291  11.879   8.283
 2812SOL    HW110333   6.359  11.890   8.216
 2812SOL    HW210334   6.243  11.801   8.256
 2813SOL     OW10335   2.662   2.471   5.370
 2813SOL    HW110336   2.673   2.553   5.322
 2813SOL    HW210337   2.751   2.447   5.397
 2814SOL     OW10338  10.467   9.757   3.038
 2814SOL    HW110339  10.469   9.851   3.019
 2814SOL    HW210340  10.560   9.731   3.036
 2815SOL     OW10341  11.461  10.308  12.582
 2815SOL    HW110342  11.479  10.300  12.675
 2815SOL    HW210343  11.406  10.233  12.561
 2816SOL     OW10344   6.948  11.809   2.127
 2816SOL    HW110345   6.958  11.825   2.221
 2816SOL    HW210346   6.997  11.729   2.111
 2817SOL     OW10347   1.519   8.323   7.030
 2817SOL    HW110348   1.543   8.262   6.961
 2817SOL    HW210349   1.491   8.267   7.103
 2818SOL     OW10350   0.207  11.804   1.229
 2818SOL    HW110351   0.296  11.837   1.216
 2818SOL    HW210352   0.211  11.755   1.311
 2819SOL     OW10353   6.648   2.739   5.730
 2819SOL    HW110354   6.612   2.667   5.679
 2819SOL    HW210355   6.639   2.816   5.673
 2820SOL     OW10356  10.548  13.664   6.692
 2820SOL    HW110357  10.455  13.667   6.711
 2820SOL    HW210358  10.567  13.572   6.675
 2821SOL     OW10359   3.693  10.665   8.551
 2821SOL    HW110360   3.775  10.705   8.523
 2821SOL    HW210361   3.652  10.634   8.471
 2822SOL     OW10362   9.493   3.037   6.906
 2822SOL    HW110363   9.506   2.951   6.946
 2822SOL    HW210364   9.546   3.096   6.961
 2823SOL     OW10365   5.432  13.497   6.297
 2823SOL    HW110366   5.504  13.524   6.240
 2823SOL    HW210367   5.418  13.405   6.276
 2824SOL     OW10368  12.808   4.140  10.290
 2824SOL    HW110369  12.859   4.064  10.318
 2824SOL    HW210370  12.838   4.157  10.200
 2825SOL     OW10371   3.908  13.584  12.350
 2825SOL    HW110372   3.844  13.564  12.418
 2825SOL    HW210373   3.958  13.658  12.385
 2826SOL     OW10374   1.467   8.517  11.762
 2826SOL    HW110375   1.494   8.598  11.806
 2826SOL    HW210376   1.497   8.447  11.820
 2827SOL     OW10377   9.684   5.354  12.006
 2827SOL    HW110378   9.663   5.447  11.996
 2827SOL    HW210379   9.758   5.340  11.947
 2828SOL     OW10380  13.702   7.459   7.008
 2828SOL    HW110381  13.610   7.441   7.027
 2828SOL    HW210382  13.749   7.418   7.081
 2829SOL     OW10383   7.134   6.484  14.623
 2829SOL    HW110384   7.085   6.406  14.600
 2829SOL    HW210385   7.088   6.521  14.698
 2830SOL     OW10386  14.497   5.983   7.387
 2830SOL    HW110387  14.439   5.912   7.356
 2830SOL    HW210388  14.436   6.051   7.416
 2831SOL     OW10389   3.426   0.396  14.009
 2831SOL    HW110390   3.514   0.361  14.019
 2831SOL    HW210391   3.414   0.452  14.085
 2832SOL     OW10392   9.844  12.985  11.841
 2832SOL    HW110393   9.833  12.992  11.936
 2832SOL    HW210394   9.754  12.977  11.808
 2833SOL     OW10395   5.952   5.857   0.981
 2833SOL    HW110396   5.894   5.858   0.905
 2833SOL    HW210397   5.929   5.778   1.030
 2834SOL     OW10398   2.444  13.280   0.891
 2834SOL    HW110399   2.351  13.300   0.882
 2834SOL    HW210400   2.459  13.207   0.832
 2835SOL     OW10401   0.391   8.820   8.398
 2835SOL    HW110402   0.371   8.910   8.425
 2835SOL    HW210403   0.327   8.800   8.330
 2836SOL     OW10404   7.205  12.589  10.086
 2836SOL    HW110405   7.168  12.526  10.024
 2836SOL    HW210406   7.297  12.565  10.093
 2837SOL     OW10407   3.540  13.821   5.891
 2837SOL    HW110408   3.460  13.870   5.873
 2837SOL    HW210409   3.536  13.747   5.831
 2838SOL     OW10410   7.683  11.368   2.512
 2838SOL    HW110411   7.712  11.457   2.531
 2838SOL    HW210412   7.589  11.369   2.529
 2839SOL     OW10413   3.419  14.431   2.817
 2839SOL    HW110414   3.445  14.448   2.908
 2839SOL    HW210415   3.326  14.412   2.821
 2840SOL     OW10416   7.526   4.354   1.335
 2840SOL    HW110417   7.613   4.314   1.329
 2840SOL    HW210418   7.478   4.299   1.397
 2841SOL     OW10419  13.248   6.176   5.132
 2841SOL    HW110420  13.276   6.140   5.216
 2841SOL    HW210421  13.200   6.105   5.089
 2842SOL     OW10422   6.636  11.538   2.067
 2842SOL    HW110423   6.641  11.627   2.101
 2842SOL    HW210424   6.556  11.502   2.106
 2843SOL     OW10425   9.725   0.737   4.880
 2843SOL    HW110426   9.671   0.815   4.872
 2843SOL    HW210427   9.672   0.677   4.932
 2844SOL     OW10428  11.936   7.992   6.899
 2844SOL    HW110429  11.917   7.899   6.884
 2844SOL    HW210430  12.032   7.996   6.904
 2845SOL     OW10431   6.158   4.108   2.716
 2845SOL    HW110432   6.084   4.058   2.751
 2845SOL    HW210433   6.120   4.191   2.689
 2846SOL     OW10434   4.324   9.247   2.412
 2846SOL    HW110435   4.326   9.172   2.352
 2846SOL    HW210436   4.307   9.322   2.356
 2847SOL     OW10437   6.218   8.342  14.508
 2847SOL    HW110438   6.154   8.279  14.543
 2847SOL    HW210439   6.222   8.411  14.574
 2848SOL     OW10440   2.010   6.195   4.681
 2848SOL    HW110441   2.043   6.166   4.767
 2848SOL    HW210442   2.084   6.182   4.622
 2849SOL     OW10443   7.333  14.672   2.835
 2849SOL    HW110444   7.241  14.696   2.836
 2849SOL    HW210445   7.335  14.581   2.865
 2850SOL     OW10446  14.741  14.546   8.184
 2850SOL    HW110447  14.647  14.561   8.176
 2850SOL    HW210448  14.778  14.578   8.102
 2851SOL     OW10449   1.674  11.260  12.806
 2851SOL    HW110450   1.614  11.231  12.738
 2851SOL    HW210451   1.748  11.298  12.759
 2852SOL     OW10452   9.729  14.583   6.527
 2852SOL    HW110453   9.806  14.581   6.469
 2852SOL    HW210454   9.737  14.503   6.579
 2853SOL     OW10455   5.692  11.828   3.735
 2853SOL    HW110456   5.772  11.863   3.775
 2853SOL    HW210457   5.678  11.882   3.657
 2854SOL     OW10458   3.749   8.583   4.446
 2854SOL    HW110459   3.705   8.499   4.431
 2854SOL    HW210460   3.771   8.615   4.358
 2855SOL     OW10461  12.122   2.100  13.706
 2855SOL    HW110462  12.201   2.093  13.653
 2855SOL    HW210463  12.153   2.100  13.796
 2856SOL     OW10464   6.563  12.652  10.129
 2856SOL    HW110465   6.501  12.719  10.099
 2856SOL    HW210466   6.628  12.647  10.059
 2857SOL     OW10467   5.365   0.993   8.551
 2857SOL    HW110468   5.304   0.925   8.580
 2857SOL    HW210469   5.448   0.969   8.592
 2858SOL     OW10470   1.431  11.248   6.176
 2858SOL    HW110471   1.487  11.240   6.253
 2858SOL    HW210472   1.476  11.310   6.119
 2859SOL     OW10473   3.932  13.948   8.464
 2859SOL    HW110474   3.838  13.960   8.471
 2859SOL    HW210475   3.949  13.935   8.371
 2860SOL     OW10476   2.208  12.789   7.651
 2860SOL    HW110477   2.236  12.879   7.663
 2860SOL    HW210478   2.285  12.743   7.619
 2861SOL     OW10479   3.737  13.502   4.116
 2861SOL    HW110480   3.746  13.476   4.208
 2861SOL    HW210481   3.768  13.426   4.067
 2862SOL     OW10482  13.101  11.091   6.755
 2862SOL    HW110483  13.115  11.174   6.709
 2862SOL    HW210484  13.163  11.030   6.714
 2863SOL     OW10485   1.658   4.741   4.327
 2863SOL    HW110486   1.632   4.817   4.379
 2863SOL    HW210487   1.583   4.682   4.332
 2864SOL     OW10488  10.612   1.909   3.113
 2864SOL    HW110489  10.539   1.869   3.160
 2864SOL    HW210490  10.678   1.926   3.180
 2865SOL     OW10491   4.230   3.791  13.034
 2865SOL    HW110492   4.301   3.795  12.970
 2865SOL    HW210493   4.250   3.862  13.096
 2866SOL     OW10494  10.103   0.847   2.222
 2866SOL    HW110495  10.008   0.843   2.211
 2866SOL    HW210496  10.126   0.767   2.268
 2867SOL     OW10497  13.449   4.762  14.102
 2867SOL    HW110498  13.463   4.855  14.119
 2867SOL    HW210499  13.359   4.745  14.132
 2868SOL     OW10500  14.275   9.915   1.363
 2868SOL    HW110501  14.281   9.953   1.451
 2868SOL    HW210502  14.190   9.872   1.362
 2869SOL     OW10503   2.069  11.841   9.653
 2869SOL    HW110504   2.003  11.899   9.615
 2869SOL    HW210505   2.091  11.781   9.583
 2870SOL     OW10506   3.693  10.728   4.700
 2870SOL    HW110507   3.653  10.798   4.751
 2870SOL    HW210508   3.733  10.671   4.766
 2871SOL     OW10509   3.671  12.179   2.116
 2871SOL    HW110510   3.658  12.250   2.179
 2871SOL    HW210511   3.648  12.100   2.165
 2872SOL     OW10512   2.646  10.557   1.609
 2872SOL    HW110513   2.636  10.578   1.516
 2872SOL    HW210514   2.556  10.557   1.643
 2873SOL     OW10515   5.337   3.030   6.546
 2873SOL    HW110516   5.289   2.985   6.616
 2873SOL    HW210517   5.359   2.960   6.484
 2874SOL     OW10518   0.057   5.771   0.377
 2874SOL    HW110519   0.114   5.720   0.435
 2874SOL    HW210520   0.111   5.846   0.352
 2875SOL     OW10521   1.616   6.017   9.095
 2875SOL    HW110522   1.690   5.992   9.151
 2875SOL    HW210523   1.653   6.021   9.007
 2876SOL     OW10524  11.929  11.779   4.956
 2876SOL    HW110525  11.958  11.690   4.937
 2876SOL    HW210526  12.010  11.830   4.962
 2877SOL     OW10527   8.916   5.761   0.356
 2877SOL    HW110528   8.929   5.667   0.346
 2877SOL    HW210529   8.959   5.800   0.280
 2878SOL     OW10530   5.652   0.185   5.784
 2878SOL    HW110531   5.579   0.245   5.792
 2878SOL    HW210532   5.718   0.219   5.844
 2879SOL     OW10533  13.369   1.063   3.445
 2879SOL    HW110534  13.454   1.021   3.443
 2879SOL    HW210535  13.381   1.145   3.396
 2880SOL     OW10536   4.689   7.987   8.045
 2880SOL    HW110537   4.598   7.958   8.034
 2880SOL    HW210538   4.683   8.082   8.056
 2881SOL     OW10539   4.776  12.133  12.656
 2881SOL    HW110540   4.775  12.040  12.679
 2881SOL    HW210541   4.842  12.171  12.714
 2882SOL     OW10542   1.072   9.515  13.159
 2882SOL    HW110543   0.981   9.506  13.186
 2882SOL    HW210544   1.122   9.493  13.237
 2883SOL     OW10545   1.094   5.058  12.405
 2883SOL    HW110546   1.101   5.149  12.375
 2883SOL    HW210547   1.012   5.027  12.367
 2884SOL     OW10548   0.046   2.479   7.681
 2884SOL    HW110549   0.035   2.472   7.586
 2884SOL    HW210550   0.007   2.564   7.704
 2885SOL     OW10551  12.055  12.021   7.782
 2885SOL    HW110552  12.127  12.070   7.821
 2885SOL    HW210553  11.991  12.087   7.759
 2886SOL     OW10554   9.291   0.907   7.258
 2886SOL    HW110555   9.213   0.936   7.306
 2886SOL    HW210556   9.364   0.940   7.310
 2887SOL     OW10557   0.257  13.255   0.232
 2887SOL    HW110558   0.271  13.325   0.296
 2887SOL    HW210559   0.167  13.226   0.247
 2888SOL     OW10560   8.223  10.363   4.388
 2888SOL    HW110561   8.232  10.364   4.483
 2888SOL    HW210562   8.296  10.415   4.356
 2889SOL     OW10563   9.376   6.477   3.989
 2889SOL    HW110564   9.283   6.488   4.012
 2889SOL    HW210565   9.421   6.545   4.039
 2890SOL     OW10566   5.874   3.265   6.938
 2890SOL    HW110567   5.957   3.217   6.940
 2890SOL    HW210568   5.832   3.244   7.021
 2891SOL     OW10569   0.538   5.057   6.845
 2891SOL    HW110570   0.617   5.100   6.812
 2891SOL    HW210571   0.564   5.020   6.930
 2892SOL     OW10572   6.310  12.547   7.684
 2892SOL    HW110573   6.254  12.515   7.614
 2892SOL    HW210574   6.277  12.503   7.763
 2893SOL     OW10575   6.855   2.998  11.150
 2893SOL    HW110576   6.843   2.928  11.213
 2893SOL    HW210577   6.908   3.063  11.195
 2894SOL     OW10578   3.634  14.035  10.520
 2894SOL    HW110579   3.676  13.978  10.456
 2894SOL    HW210580   3.594  14.104  10.467
 2895SOL     OW10581   7.344   3.694   0.211
 2895SOL    HW110582   7.330   3.605   0.243
 2895SOL    HW210583   7.328   3.749   0.287
 2896SOL     OW10584   9.146  11.884   0.600
 2896SOL    HW110585   9.057  11.852   0.588
 2896SOL    HW210586   9.136  11.965   0.650
 2897SOL     OW10587   7.919  10.647  10.440
 2897SOL    HW110588   7.844  10.688  10.484
 2897SOL    HW210589   7.882  10.610  10.359
 2898SOL     OW10590  12.784  10.926   6.070
 2898SOL    HW110591  12.798  10.994   6.005
 2898SOL    HW210592  12.855  10.937   6.132
 2899SOL     OW10593   0.534  10.946   3.362
 2899SOL    HW110594   0.532  10.970   3.270
 2899SOL    HW210595   0.623  10.914   3.377
 2900SOL     OW10596  10.777   4.788   9.470
 2900SOL    HW110597  10.705   4.850   9.483
 2900SOL    HW210598  10.733   4.704   9.453
 2901SOL     OW10599  11.782   1.771   8.231
 2901SOL    HW110600  11.859   1.766   8.287
 2901SOL    HW210601  11.719   1.822   8.282
 2902SOL     OW10602  13.321  10.350   4.062
 2902SOL    HW110603  13.369  10.268   4.052
 2902SOL    HW210604  13.229  10.324   4.062
 2903SOL     OW10605  11.779   1.987   4.039
 2903SOL    HW110606  11.817   1.922   3.981
 2903SOL    HW210607  11.853   2.022   4.088
 2904SOL     OW10608   0.208  13.741  13.278
 2904SOL    HW110609   0.213  13.647  13.262
 2904SOL    HW210610   0.125  13.768  13.238
 2905SOL     OW10611   9.879   3.085   4.993
 2905SOL    HW110612   9.792   3.078   4.953
 2905SOL    HW210613   9.893   3.000   5.033
 2906SOL     OW10614   1.602   7.566   0.843
 2906SOL    HW110615   1.577   7.639   0.899
 2906SOL    HW210616   1.531   7.559   0.780
 2907SOL     OW10617   2.862  11.428  13.691
 2907SOL    HW110618   2.905  11.493  13.634
 2907SOL    HW210619   2.848  11.352  13.635
 2908SOL     OW10620   5.335  11.128   6.960
 2908SOL    HW110621   5.418  11.171   6.938
 2908SOL    HW210622   5.324  11.144   7.054
 2909SOL     OW10623  14.257  13.112   0.332
 2909SOL    HW110624  14.297  13.187   0.288
 2909SOL    HW210625  14.166  13.136   0.345
 2910SOL     OW10626   2.340   3.950  12.953
 2910SOL    HW110627   2.335   3.975  13.045
 2910SOL    HW210628   2.370   3.859  12.954
 2911SOL     OW10629   5.159   1.675   5.159
 2911SOL    HW110630   5.230   1.673   5.223
 2911SOL    HW210631   5.203   1.688   5.075
 2912SOL     OW10632   8.765   7.455   9.934
 2912SOL    HW110633   8.687   7.430   9.884
 2912SOL    HW210634   8.763   7.550   9.935
 2913SOL     OW10635  12.686  12.093   2.573
 2913SOL    HW110636  12.644  12.178   2.560
 2913SOL    HW210637  12.694  12.085   2.668
 2914SOL     OW10638  11.978   5.504  10.921
 2914SOL    HW110639  12.058   5.544  10.955
 2914SOL    HW210640  11.935   5.574  10.872
 2915SOL     OW10641  11.915   1.061   3.606
 2915SOL    HW110642  11.987   1.116   3.576
 2915SOL    HW210643  11.856   1.054   3.531
 2916SOL     OW10644  13.111  11.443   5.666
 2916SOL    HW110645  13.089  11.350   5.674
 2916SOL    HW210646  13.116  11.474   5.756
 2917SOL     OW10647  14.855  13.290   8.547
 2917SOL    HW110648  14.764  13.304   8.523
 2917SOL    HW210649   0.012  13.226   8.483
 2918SOL     OW10650   4.083   2.947   2.909
 2918SOL    HW110651   4.175   2.936   2.933
 2918SOL    HW210652   4.085   2.988   2.822
 2919SOL     OW10653   0.393  12.191   2.472
 2919SOL    HW110654   0.457  12.129   2.439
 2919SOL    HW210655   0.346  12.221   2.394
 2920SOL     OW10656   9.711   6.873   1.282
 2920SOL    HW110657   9.675   6.856   1.195
 2920SOL    HW210658   9.707   6.968   1.291
 2921SOL     OW10659  13.319   0.265   2.806
 2921SOL    HW110660  13.241   0.296   2.760
 2921SOL    HW210661  13.290   0.253   2.897
 2922SOL     OW10662   7.984   2.705   7.062
 2922SOL    HW110663   8.032   2.785   7.043
 2922SOL    HW210664   7.895   2.722   7.029
 2923SOL     OW10665   0.632   0.991   7.983
 2923SOL    HW110666   0.597   1.016   8.068
 2923SOL    HW210667   0.579   0.917   7.956
 2924SOL     OW10668   4.332   9.580   7.116
 2924SOL    HW110669   4.299   9.659   7.158
 2924SOL    HW210670   4.253   9.534   7.087
 2925SOL     OW10671   2.005  13.600  11.417
 2925SOL    HW110672   2.079  13.539  11.405
 2925SOL    HW210673   1.995  13.642  11.332
 2926SOL     OW10674   6.376   9.412   5.689
 2926SOL    HW110675   6.457   9.463   5.696
 2926SOL    HW210676   6.355   9.387   5.779
 2927SOL     OW10677   6.765   1.060   6.097
 2927SOL    HW110678   6.672   1.041   6.084
 2927SOL    HW210679   6.769   1.155   6.109
 2928SOL     OW10680   4.899  14.100   0.650
 2928SOL    HW110681   4.827  14.132   0.594
 2928SOL    HW210682   4.861  14.027   0.698
 2929SOL     OW10683   0.923   6.556   9.102
 2929SOL    HW110684   0.912   6.484   9.164
 2929SOL    HW210685   0.895   6.520   9.018
 2930SOL     OW10686   6.823   6.359  10.373
 2930SOL    HW110687   6.798   6.443  10.411
 2930SOL    HW210688   6.883   6.381  10.302
 2931SOL     OW10689  12.565   8.418   6.092
 2931SOL    HW110690  12.613   8.494   6.124
 2931SOL    HW210691  12.473   8.440   6.106
 2932SOL     OW10692   9.162   7.516   0.368
 2932SOL    HW110693   9.131   7.528   0.458
 2932SOL    HW210694   9.107   7.445   0.334
 2933SOL     OW10695   5.430   4.897  10.500
 2933SOL    HW110696   5.442   4.956  10.425
 2933SOL    HW210697   5.516   4.896  10.543
 2934SOL     OW10698   7.487   4.275   4.906
 2934SOL    HW110699   7.505   4.341   4.973
 2934SOL    HW210700   7.391   4.268   4.904
 2935SOL     OW10701   4.457   1.941   1.485
 2935SOL    HW110702   4.453   1.874   1.554
 2935SOL    HW210703   4.367   1.975   1.480
 2936SOL     OW10704   2.012  13.747  10.777
 2936SOL    HW110705   1.991  13.762  10.685
 2936SOL    HW210706   2.080  13.680  10.776
 2937SOL     OW10707  11.873   0.823   5.672
 2937SOL    HW110708  11.955   0.796   5.631
 2937SOL    HW210709  11.888   0.912   5.702
 2938SOL     OW10710  12.893   5.155  10.942
 2938SOL    HW110711  12.896   5.139  11.036
 2938SOL    HW210712  12.911   5.248  10.933
 2939SOL     OW10713  13.592   7.842  14.707
 2939SOL    HW110714  13.635   7.771  14.660
 2939SOL    HW210715  13.630   7.840  14.795
 2940SOL     OW10716   3.076  12.169   3.727
 2940SOL    HW110717   3.012  12.217   3.674
 2940SOL    HW210718   3.123  12.237   3.776
 2941SOL     OW10719   0.178   9.663   0.066
 2941SOL    HW110720   0.206   9.572   0.072
 2941SOL    HW210721   0.173   9.681  14.847
 2942SOL     OW10722   0.737   6.373   4.101
 2942SOL    HW110723   0.812   6.379   4.161
 2942SOL    HW210724   0.766   6.419   4.022
 2943SOL     OW10725   1.039   9.413   9.895
 2943SOL    HW110726   1.040   9.388   9.803
 2943SOL    HW210727   0.950   9.396   9.924
 2944SOL     OW10728   0.143  13.063  13.640
 2944SOL    HW110729   0.091  13.144  13.644
 2944SOL    HW210730   0.230  13.089  13.672
 2945SOL     OW10731  10.215   7.973  12.637
 2945SOL    HW110732  10.309   7.960  12.644
 2945SOL    HW210733  10.205   8.063  12.606
 2946SOL     OW10734   2.580  14.623  10.468
 2946SOL    HW110735   2.578  14.566  10.390
 2946SOL    HW210736   2.561  14.564  10.541
 2947SOL     OW10737   4.909   3.668   8.402
 2947SOL    HW110738   4.846   3.695   8.336
 2947SOL    HW210739   4.989   3.649   8.353
 2948SOL     OW10740  13.458  10.842  12.674
 2948SOL    HW110741  13.529  10.844  12.610
 2948SOL    HW210742  13.398  10.775  12.641
 2949SOL     OW10743   0.631   5.356  10.232
 2949SOL    HW110744   0.583   5.386  10.310
 2949SOL    HW210745   0.563   5.317  10.177
 2950SOL     OW10746   3.093   6.895   9.922
 2950SOL    HW110747   3.001   6.913   9.941
 2950SOL    HW210748   3.136   6.981   9.929
 2951SOL     OW10749   2.439   4.970   5.689
 2951SOL    HW110750   2.472   5.033   5.625
 2951SOL    HW210751   2.346   4.960   5.667
 2952SOL     OW10752   4.046  12.566   2.139
 2952SOL    HW110753   4.119  12.561   2.077
 2952SOL    HW210754   4.027  12.475   2.161
 2953SOL     OW10755   7.216   8.538   6.765
 2953SOL    HW110756   7.158   8.463   6.780
 2953SOL    HW210757   7.305   8.502   6.774
 2954SOL     OW10758   5.612  11.704   8.709
 2954SOL    HW110759   5.527  11.687   8.669
 2954SOL    HW210760   5.592  11.721   8.801
 2955SOL     OW10761  12.470   5.045  14.556
 2955SOL    HW110762  12.531   5.047  14.482
 2955SOL    HW210763  12.425   4.961  14.549
 2956SOL     OW10764   9.480  11.534  11.381
 2956SOL    HW110765   9.536  11.474  11.331
 2956SOL    HW210766   9.411  11.477  11.416
 2957SOL     OW10767   6.081  14.819   3.118
 2957SOL    HW110768   6.142  14.871   3.170
 2957SOL    HW210769   6.078  14.861   3.033
 2958SOL     OW10770   2.912   2.487   1.626
 2958SOL    HW110771   2.929   2.485   1.720
 2958SOL    HW210772   2.891   2.578   1.606
 2959SOL     OW10773   9.183   7.324   7.524
 2959SOL    HW110774   9.242   7.300   7.453
 2959SOL    HW210775   9.130   7.246   7.538
 2960SOL     OW10776  13.568  14.517  14.362
 2960SOL    HW110777  13.596  14.496  14.451
 2960SOL    HW210778  13.587  14.438  14.311
 2961SOL     OW10779   7.121  14.350  11.015
 2961SOL    HW110780   7.176  14.391  11.082
 2961SOL    HW210781   7.165  14.268  10.994
 2962SOL     OW10782  12.291  14.257   3.481
 2962SOL    HW110783  12.365  14.307   3.513
 2962SOL    HW210784  12.288  14.276   3.387
 2963SOL     OW10785   4.599   9.771   8.127
 2963SOL    HW110786   4.693   9.749   8.127
 2963SOL    HW210787   4.563   9.718   8.198
 2964SOL     OW10788  11.679  10.158   2.864
 2964SOL    HW110789  11.752  10.201   2.908
 2964SOL    HW210790  11.661  10.214   2.789
 2965SOL     OW10791  10.191  13.496   4.585
 2965SOL    HW110792  10.262  13.477   4.524
 2965SOL    HW210793  10.111  13.485   4.534
 2966SOL     OW10794   0.045  10.252   0.685
 2966SOL    HW110795  14.839  10.222   0.726
 2966SOL    HW210796   0.112  10.190   0.714
 2967SOL     OW10797  13.942  14.595   4.266
 2967SOL    HW110798  13.937  14.512   4.218
 2967SOL    HW210799  13.961  14.569   4.356
 2968SOL     OW10800  10.788  12.876   9.787
 2968SOL    HW110801  10.697  12.897   9.766
 2968SOL    HW210802  10.837  12.953   9.756
 2969SOL     OW10803   5.297   9.047   2.064
 2969SOL    HW110804   5.222   8.999   2.029
 2969SOL    HW210805   5.371   9.019   2.010
 2970SOL     OW10806   5.450  13.341   1.503
 2970SOL    HW110807   5.388  13.363   1.434
 2970SOL    HW210808   5.410  13.374   1.584
 2971SOL     OW10809   8.852   1.718   0.150
 2971SOL    HW110810   8.853   1.769   0.069
 2971SOL    HW210811   8.775   1.749   0.197
 2972SOL     OW10812   1.219   7.389  10.671
 2972SOL    HW110813   1.140   7.361  10.716
 2972SOL    HW210814   1.220   7.484  10.681
 2973SOL     OW10815   8.084   5.302  12.994
 2973SOL    HW110816   8.111   5.239  12.928
 2973SOL    HW210817   8.165   5.327  13.038
 2974SOL     OW10818   3.287   3.982   9.289
 2974SOL    HW110819   3.357   4.038   9.321
 2974SOL    HW210820   3.229   4.042   9.241
 2975SOL     OW10821   9.293  10.692  12.998
 2975SOL    HW110822   9.344  10.771  13.013
 2975SOL    HW210823   9.353  10.620  13.021
 2976SOL     OW10824  13.708  12.998   2.671
 2976SOL    HW110825  13.669  12.999   2.584
 2976SOL    HW210826  13.716  12.905   2.693
 2977SOL     OW10827   3.283   8.842  11.669
 2977SOL    HW110828   3.357   8.894  11.699
 2977SOL    HW210829   3.297   8.756  11.708
 2978SOL     OW10830   3.360   9.810   9.470
 2978SOL    HW110831   3.383   9.881   9.529
 2978SOL    HW210832   3.325   9.853   9.392
 2979SOL     OW10833  13.735  11.177   6.960
 2979SOL    HW110834  13.779  11.094   6.976
 2979SOL    HW210835  13.670  11.157   6.893
 2980SOL     OW10836  11.482   8.805  11.753
 2980SOL    HW110837  11.565   8.819  11.799
 2980SOL    HW210838  11.508   8.784  11.663
 2981SOL     OW10839  11.517   4.363   2.531
 2981SOL    HW110840  11.451   4.369   2.462
 2981SOL    HW210841  11.519   4.450   2.570
 2982SOL     OW10842  11.276   5.864  12.731
 2982SOL    HW110843  11.213   5.846  12.661
 2982SOL    HW210844  11.224   5.907  12.799
 2983SOL     OW10845   9.111   6.089   6.409
 2983SOL    HW110846   9.190   6.079   6.355
 2983SOL    HW210847   9.043   6.042   6.360
 2984SOL     OW10848   6.779   4.281   7.352
 2984SOL    HW110849   6.807   4.192   7.335
 2984SOL    HW210850   6.694   4.289   7.308
 2985SOL     OW10851   4.592   3.060   7.369
 2985SOL    HW110852   4.672   3.007   7.368
 2985SOL    HW210853   4.621   3.147   7.344
 2986SOL     OW10854  14.536   3.946  10.322
 2986SOL    HW110855  14.627   3.934  10.350
 2986SOL    HW210856  14.544   3.982  10.233
 2987SOL     OW10857   7.734   6.913   5.872
 2987SOL    HW110858   7.779   6.852   5.814
 2987SOL    HW210859   7.748   6.877   5.959
 2988SOL     OW10860   1.004   2.044  13.976
 2988SOL    HW110861   0.974   2.129  13.943
 2988SOL    HW210862   0.994   2.051  14.071
 2989SOL     OW10863  11.447  14.415  13.764
 2989SOL    HW110864  11.519  14.478  13.773
 2989SOL    HW210865  11.442  14.371  13.849
 2990SOL     OW10866   1.528   3.630  10.227
 2990SOL    HW110867   1.525   3.552  10.283
 2990SOL    HW210868   1.449   3.680  10.252
 2991SOL     OW10869  10.255   6.938   0.910
 2991SOL    HW110870  10.241   6.909   0.820
 2991SOL    HW210871  10.264   7.033   0.903
 2992SOL     OW10872  13.627   0.571   1.096
 2992SOL    HW110873  13.556   0.526   1.050
 2992SOL    HW210874  13.678   0.613   1.027
 2993SOL     OW10875  12.260  13.818  14.623
 2993SOL    HW110876  12.330  13.818  14.558
 2993SOL    HW210877  12.184  13.782  14.577
 2994SOL     OW10878   6.680   9.634  13.249
 2994SOL    HW110879   6.693   9.711  13.304
 2994SOL    HW210880   6.750   9.574  13.274
 2995SOL     OW10881   6.162   9.062  12.263
 2995SOL    HW110882   6.252   9.093  12.264
 2995SOL    HW210883   6.169   8.968  12.248
 2996SOL     OW10884  13.806   6.813   3.296
 2996SOL    HW110885  13.734   6.791   3.355
 2996SOL    HW210886  13.834   6.728   3.260
 2997SOL     OW10887   4.227   6.446   6.154
 2997SOL    HW110888   4.161   6.381   6.128
 2997SOL    HW210889   4.238   6.431   6.248
 2998SOL     OW10890  11.580   7.567   4.190
 2998SOL    HW110891  11.643   7.498   4.209
 2998SOL    HW210892  11.508   7.523   4.144
 2999SOL     OW10893   7.642   4.832   0.879
 2999SOL    HW110894   7.633   4.738   0.863
 2999SOL    HW210895   7.561   4.857   0.923
 3000SOL     OW10896  10.119   0.230   1.156
 3000SOL    HW110897  10.161   0.162   1.208
 3000SOL    HW210898  10.185   0.300   1.151
 3001SOL     OW10899   7.041  11.080   4.078
 3001SOL    HW110900   7.088  11.090   3.996
 3001SOL    HW210901   6.959  11.036   4.053
 3002SOL     OW10902  13.871   6.668   0.434
 3002SOL    HW110903  13.959   6.629   0.438
 3002SOL    HW210904  13.887   6.761   0.447
 3003SOL     OW10905  14.155   8.681  14.423
 3003SOL    HW110906  14.094   8.696  14.496
 3003SOL    HW210907  14.113   8.722  14.348
 3004SOL     OW10908  12.055  10.559   1.962
 3004SOL    HW110909  12.150  10.558   1.963
 3004SOL    HW210910  12.029  10.490   2.024
 3005SOL     OW10911   6.225   7.268   5.364
 3005SOL    HW110912   6.252   7.214   5.290
 3005SOL    HW210913   6.292   7.253   5.431
 3006SOL     OW10914  12.886   0.344  13.202
 3006SOL    HW110915  12.861   0.252  13.202
 3006SOL    HW210916  12.899   0.366  13.110
 3007SOL     OW10917  13.163   2.330   6.758
 3007SOL    HW110918  13.226   2.342   6.829
 3007SOL    HW210919  13.127   2.417   6.743
 3008SOL     OW10920  11.846   5.494   0.780
 3008SOL    HW110921  11.837   5.588   0.764
 3008SOL    HW210922  11.839   5.484   0.875
 3009SOL     OW10923   9.911  12.514  13.452
 3009SOL    HW110924   9.915  12.606  13.478
 3009SOL    HW210925   9.937  12.465  13.530
 3010SOL     OW10926   9.257   0.620   9.420
 3010SOL    HW110927   9.234   0.711   9.400
 3010SOL    HW210928   9.349   0.624   9.445
 3011SOL     OW10929   0.826   5.637   2.293
 3011SOL    HW110930   0.905   5.686   2.314
 3011SOL    HW210931   0.754   5.695   2.317
 3012SOL     OW10932   6.984   5.653   3.215
 3012SOL    HW110933   6.920   5.583   3.221
 3012SOL    HW210934   7.049   5.632   3.282
 3013SOL     OW10935   7.035  10.684   3.762
 3013SOL    HW110936   7.053  10.771   3.728
 3013SOL    HW210937   7.119  10.654   3.797
 3014SOL     OW10938   0.347  11.702   5.810
 3014SOL    HW110939   0.267  11.652   5.792
 3014SOL    HW210940   0.387  11.657   5.884
 3015SOL     OW10941   0.305   3.243  11.753
 3015SOL    HW110942   0.222   3.219  11.712
 3015SOL    HW210943   0.323   3.331  11.719
 3016SOL     OW10944  10.647   8.131   0.337
 3016SOL    HW110945  10.592   8.095   0.267
 3016SOL    HW210946  10.598   8.208   0.368
 3017SOL     OW10947   1.943   4.190  12.962
 3017SOL    HW110948   2.005   4.119  12.977
 3017SOL    HW210949   1.943   4.202  12.867
 3018SOL     OW10950  13.226   1.184  13.431
 3018SOL    HW110951  13.135   1.166  13.409
 3018SOL    HW210952  13.248   1.117  13.496
 3019SOL     OW10953  10.984  12.460  13.486
 3019SOL    HW110954  10.984  12.382  13.541
 3019SOL    HW210955  11.028  12.432  13.406
 3020SOL     OW10956  13.168   3.920  12.127
 3020SOL    HW110957  13.105   3.920  12.055
 3020SOL    HW210958  13.138   3.989  12.186
 3021SOL     OW10959   2.941   4.884  10.203
 3021SOL    HW110960   2.964   4.807  10.151
 3021SOL    HW210961   3.025   4.928  10.218
 3022SOL     OW10962   6.012   5.814   4.592
 3022SOL    HW110963   6.046   5.738   4.639
 3022SOL    HW210964   6.066   5.818   4.513
 3023SOL     OW10965   8.005   7.194  13.196
 3023SOL    HW110966   7.939   7.193  13.128
 3023SOL    HW210967   8.028   7.102  13.209
 3024SOL     OW10968   2.995   4.392   8.920
 3024SOL    HW110969   2.917   4.342   8.898
 3024SOL    HW210970   2.977   4.426   9.008
 3025SOL     OW10971   0.766  13.911  11.361
 3025SOL    HW110972   0.736  13.921  11.270
 3025SOL    HW210973   0.829  13.839  11.357
 3026SOL     OW10974   5.268   9.799   3.992
 3026SOL    HW110975   5.258   9.893   4.006
 3026SOL    HW210976   5.294   9.792   3.900
 3027SOL     OW10977   6.713   0.365   7.584
 3027SOL    HW110978   6.724   0.414   7.666
 3027SOL    HW210979   6.783   0.397   7.527
 3028SOL     OW10980  11.480   3.679   4.105
 3028SOL    HW110981  11.562   3.725   4.124
 3028SOL    HW210982  11.491   3.647   4.015
 3029SOL     OW10983   6.537   6.436  14.063
 3029SOL    HW110984   6.577   6.518  14.037
 3029SOL    HW210985   6.525   6.444  14.158
 3030SOL     OW10986  10.881  14.653   6.576
 3030SOL    HW110987  10.824  14.710   6.524
 3030SOL    HW210988  10.850  14.564   6.558
 3031SOL     OW10989   0.451  14.684   6.736
 3031SOL    HW110990   0.512  14.707   6.666
 3031SOL    HW210991   0.378  14.745   6.725
 3032SOL     OW10992  13.276   1.384   8.122
 3032SOL    HW110993  13.217   1.392   8.197
 3032SOL    HW210994  13.284   1.473   8.088
 3033SOL     OW10995  11.760   1.349  10.540
 3033SOL    HW110996  11.666   1.367  10.537
 3033SOL    HW210997  11.771   1.271  10.486
 3034SOL     OW10998  14.744   5.475   3.333
 3034SOL    HW110999  14.747   5.455   3.240
 3034SOL    HW211000  14.688   5.552   3.339
 3035SOL     OW11001   9.840   5.649  12.462
 3035SOL    HW111002   9.819   5.596  12.385
 3035SOL    HW211003   9.765   5.709  12.471
 3036SOL     OW11004   4.267  10.451   7.648
 3036SOL    HW111005   4.209  10.466   7.573
 3036SOL    HW211006   4.331  10.522   7.644
 3037SOL     OW11007   4.002   7.480   2.266
 3037SOL    HW111008   4.086   7.439   2.286
 3037SOL    HW211009   3.971   7.515   2.350
 3038SOL     OW11010   4.890   4.111   4.935
 3038SOL    HW111011   4.932   4.075   5.013
 3038SOL    HW211012   4.907   4.205   4.940
 3039SOL     OW11013   1.782  10.684   9.832
 3039SOL    HW111014   1.772  10.649   9.743
 3039SOL    HW211015   1.756  10.611   9.889
 3040SOL     OW11016  13.783  13.265  12.152
 3040SOL    HW111017  13.702  13.238  12.196
 3040SOL    HW211018  13.842  13.290  12.223
 3041SOL     OW11019  13.097   2.110   5.606
 3041SOL    HW111020  13.169   2.072   5.657
 3041SOL    HW211021  13.023   2.110   5.667
 3042SOL     OW11022  11.287  14.614  12.045
 3042SOL    HW111023  11.253  14.527  12.027
 3042SOL    HW211024  11.382  14.602  12.046
 3043SOL     OW11025  11.284  10.255   0.532
 3043SOL    HW111026  11.206  10.279   0.583
 3043SOL    HW211027  11.344  10.328   0.543
 3044SOL     OW11028  12.075   5.496   2.276
 3044SOL    HW111029  11.985   5.464   2.275
 3044SOL    HW211030  12.094   5.509   2.369
 3045SOL     OW11031   9.523   7.328  11.629
 3045SOL    HW111032   9.568   7.247  11.655
 3045SOL    HW211033   9.512   7.320  11.534
 3046SOL     OW11034  11.282   6.945  12.705
 3046SOL    HW111035  11.225   6.895  12.647
 3046SOL    HW211036  11.236   7.028  12.718
 3047SOL     OW11037   9.193   0.288   7.844
 3047SOL    HW111038   9.106   0.260   7.871
 3047SOL    HW211039   9.178   0.361   7.784
 3048SOL     OW11040   6.002  12.099   9.662
 3048SOL    HW111041   6.096  12.114   9.649
 3048SOL    HW211042   5.989  12.110   9.756
 3049SOL     OW11043   7.538   4.842  12.331
 3049SOL    HW111044   7.547   4.769  12.269
 3049SOL    HW211045   7.479   4.903  12.287
 3050SOL     OW11046   4.219   2.628   8.644
 3050SOL    HW111047   4.123   2.631   8.645
 3050SOL    HW211048   4.246   2.697   8.704
 3051SOL     OW11049   1.740   1.884   2.851
 3051SOL    HW111050   1.725   1.975   2.875
 3051SOL    HW211051   1.803   1.852   2.915
 3052SOL     OW11052   6.904  11.017   4.804
 3052SOL    HW111053   6.890  10.945   4.865
 3052SOL    HW211054   6.982  10.992   4.754
 3053SOL     OW11055   8.415  12.285  10.249
 3053SOL    HW111056   8.333  12.268  10.294
 3053SOL    HW211057   8.426  12.380  10.254
 3054SOL     OW11058   2.234   9.656   1.515
 3054SOL    HW111059   2.207   9.629   1.427
 3054SOL    HW211060   2.297   9.590   1.543
 3055SOL     OW11061   2.712   1.059   3.703
 3055SOL    HW111062   2.618   1.069   3.719
 3055SOL    HW211063   2.728   0.966   3.715
 3056SOL     OW11064  10.364   1.335   8.775
 3056SOL    HW111065  10.371   1.306   8.684
 3056SOL    HW211066  10.382   1.257   8.827
 3057SOL     OW11067   0.589   5.530   3.290
 3057SOL    HW111068   0.519   5.588   3.259
 3057SOL    HW211069   0.543   5.463   3.342
 3058SOL     OW11070  14.260  13.801  14.469
 3058SOL    HW111071  14.221  13.714  14.473
 3058SOL    HW211072  14.305  13.812  14.553
 3059SOL     OW11073   4.180  10.999   8.736
 3059SOL    HW111074   4.202  11.091   8.724
 3059SOL    HW211075   4.134  10.995   8.820
 3060SOL     OW11076   2.523  13.137   7.400
 3060SOL    HW111077   2.580  13.213   7.394
 3060SOL    HW211078   2.457  13.162   7.464
 3061SOL     OW11079  11.506  12.805  13.848
 3061SOL    HW111080  11.422  12.760  13.857
 3061SOL    HW211081  11.552  12.757  13.780
 3062SOL     OW11082   4.319   7.648  11.632
 3062SOL    HW111083   4.287   7.629  11.720
 3062SOL    HW211084   4.387   7.582  11.616
 3063SOL     OW11085   7.118   2.446   5.744
 3063SOL    HW111086   7.070   2.392   5.681
 3063SOL    HW211087   7.064   2.524   5.754
 3064SOL     OW11088   6.897   1.793   5.415
 3064SOL    HW111089   6.876   1.719   5.472
 3064SOL    HW211090   6.855   1.868   5.458
 3065SOL     OW11091  11.489   2.212  14.432
 3065SOL    HW111092  11.557   2.216  14.365
 3065SOL    HW211093  11.469   2.119  14.440
 3066SOL     OW11094   5.900  12.240  13.454
 3066SOL    HW111095   5.820  12.189  13.450
 3066SOL    HW211096   5.939  12.232  13.367
 3067SOL     OW11097   5.313   1.031   7.289
 3067SOL    HW111098   5.296   0.983   7.370
 3067SOL    HW211099   5.373   1.102   7.315
 3068SOL     OW11100   1.056  13.918  14.826
 3068SOL    HW111101   1.013  13.966   0.021
 3068SOL    HW211102   1.010  13.946  14.746
 3069SOL     OW11103   9.703  12.951   2.515
 3069SOL    HW111104   9.741  12.980   2.598
 3069SOL    HW211105   9.666  13.030   2.477
 3070SOL     OW11106   6.152  13.238  13.693
 3070SOL    HW111107   6.222  13.285  13.738
 3070SOL    HW211108   6.196  13.169  13.643
 3071SOL     OW11109   0.592  10.576  12.047
 3071SOL    HW111110   0.509  10.621  12.035
 3071SOL    HW211111   0.568  10.487  12.071
 3072SOL     OW11112   1.789   3.690   4.060
 3072SOL    HW111113   1.858   3.626   4.047
 3072SOL    HW211114   1.708   3.639   4.059
 3073SOL     OW11115   1.646   5.276   7.894
 3073SOL    HW111116   1.694   5.343   7.943
 3073SOL    HW211117   1.676   5.193   7.931
 3074SOL     OW11118   1.067   3.709  10.784
 3074SOL    HW111119   1.125   3.754  10.723
 3074SOL    HW211120   1.051   3.772  10.854
 3075SOL     OW11121   2.690   5.763   7.344
 3075SOL    HW111122   2.767   5.711   7.320
 3075SOL    HW211123   2.689   5.835   7.281
 3076SOL     OW11124   2.863   8.537  14.761
 3076SOL    HW111125   2.852   8.443  14.777
 3076SOL    HW211126   2.957   8.548  14.749
 3077SOL     OW11127   7.430   1.991   4.118
 3077SOL    HW111128   7.430   1.895   4.124
 3077SOL    HW211129   7.462   2.021   4.203
 3078SOL     OW11130   0.082   6.879  12.593
 3078SOL    HW111131   0.032   6.809  12.551
 3078SOL    HW211132   0.133   6.835  12.660
 3079SOL     OW11133   4.468   2.399  14.217
 3079SOL    HW111134   4.395   2.416  14.158
 3079SOL    HW211135   4.541   2.375  14.160
 3080SOL     OW11136   8.091  12.132  12.061
 3080SOL    HW111137   8.076  12.190  12.135
 3080SOL    HW211138   8.046  12.051  12.083
 3081SOL     OW11139   7.357   6.225   4.950
 3081SOL    HW111140   7.375   6.217   4.856
 3081SOL    HW211141   7.337   6.135   4.978
 3082SOL     OW11142  10.180   9.840  12.779
 3082SOL    HW111143  10.126   9.784  12.722
 3082SOL    HW211144  10.262   9.793  12.788
 3083SOL     OW11145   5.491  13.728   8.991
 3083SOL    HW111146   5.396  13.728   9.005
 3083SOL    HW211147   5.517  13.637   9.003
 3084SOL     OW11148   1.486  12.103  12.302
 3084SOL    HW111149   1.407  12.156  12.308
 3084SOL    HW211150   1.522  12.103  12.391
 3085SOL     OW11151   6.713   8.095  12.863
 3085SOL    HW111152   6.718   8.114  12.770
 3085SOL    HW211153   6.626   8.125  12.889
 3086SOL     OW11154   4.328  10.666   1.181
 3086SOL    HW111155   4.342  10.719   1.259
 3086SOL    HW211156   4.254  10.610   1.203
 3087SOL     OW11157   2.198  13.410  13.248
 3087SOL    HW111158   2.107  13.396  13.273
 3087SOL    HW211159   2.196  13.416  13.152
 3088SOL     OW11160   6.789  13.819  10.724
 3088SOL    HW111161   6.781  13.724  10.726
 3088SOL    HW211162   6.883  13.835  10.718
 3089SOL     OW11163   3.055   9.395   7.628
 3089SOL    HW111164   3.018   9.306   7.628
 3089SOL    HW211165   3.023   9.434   7.709
 3090SOL     OW11166   1.018  12.144   2.194
 3090SOL    HW111167   0.927  12.119   2.204
 3090SOL    HW211168   1.056  12.075   2.140
 3091SOL     OW11169   8.144  10.505   7.508
 3091SOL    HW111170   8.220  10.499   7.566
 3091SOL    HW211171   8.095  10.424   7.524
 3092SOL     OW11172  12.260   9.866   5.890
 3092SOL    HW111173  12.320   9.794   5.911
 3092SOL    HW211174  12.232   9.898   5.976
 3093SOL     OW11175   7.968  13.415   7.399
 3093SOL    HW111176   8.040  13.374   7.352
 3093SOL    HW211177   7.948  13.354   7.470
 3094SOL     OW11178   3.394   0.605   7.616
 3094SOL    HW111179   3.386   0.646   7.530
 3094SOL    HW211180   3.391   0.678   7.678
 3095SOL     OW11181   3.257  11.715  11.062
 3095SOL    HW111182   3.196  11.788  11.054
 3095SOL    HW211183   3.292  11.723  11.151
 3096SOL     OW11184   1.741   0.631   2.641
 3096SOL    HW111185   1.748   0.593   2.728
 3096SOL    HW211186   1.659   0.680   2.642
 3097SOL     OW11187   0.462   7.214   8.616
 3097SOL    HW111188   0.375   7.187   8.588
 3097SOL    HW211189   0.475   7.168   8.699
 3098SOL     OW11190   2.403   6.389   2.281
 3098SOL    HW111191   2.356   6.312   2.311
 3098SOL    HW211192   2.477   6.355   2.231
 3099SOL     OW11193   6.234   2.576  13.209
 3099SOL    HW111194   6.143   2.607  13.214
 3099SOL    HW211195   6.286   2.655  13.195
 3100SOL     OW11196   1.758  14.024   7.312
 3100SOL    HW111197   1.809  13.949   7.281
 3100SOL    HW211198   1.824  14.083   7.349
 3101SOL     OW11199   9.096   1.914   8.535
 3101SOL    HW111200   9.074   1.836   8.483
 3101SOL    HW211201   9.185   1.897   8.567
 3102SOL     OW11202  11.959   2.833  13.479
 3102SOL    HW111203  11.868   2.859  13.462
 3102SOL    HW211204  11.960   2.739  13.462
 3103SOL     OW11205   8.926  13.668   1.423
 3103SOL    HW111206   8.927  13.572   1.427
 3103SOL    HW211207   8.834  13.692   1.436
 3104SOL     OW11208   3.231  13.522   3.506
 3104SOL    HW111209   3.176  13.556   3.577
 3104SOL    HW211210   3.169  13.500   3.437
 3105SOL     OW11211  14.607   7.175  11.643
 3105SOL    HW111212  14.645   7.263  11.649
 3105SOL    HW211213  14.661   7.122  11.702
 3106SOL     OW11214  11.081   2.973   7.275
 3106SOL    HW111215  11.060   3.054   7.229
 3106SOL    HW211216  11.114   3.001   7.360
 3107SOL     OW11217   1.072   6.459   3.113
 3107SOL    HW111218   1.024   6.394   3.164
 3107SOL    HW211219   1.164   6.443   3.135
 3108SOL     OW11220  14.355   6.671   4.642
 3108SOL    HW111221  14.445   6.702   4.653
 3108SOL    HW211222  14.352   6.589   4.692
 3109SOL     OW11223   1.760  10.707   4.955
 3109SOL    HW111224   1.853  10.682   4.958
 3109SOL    HW211225   1.722  10.647   4.891
 3110SOL     OW11226  10.582   2.073   3.393
 3110SOL    HW111227  10.588   1.980   3.414
 3110SOL    HW211228  10.517   2.107   3.454
 3111SOL     OW11229  14.539   7.759  10.091
 3111SOL    HW111230  14.481   7.780  10.017
 3111SOL    HW211231  14.496   7.684  10.133
 3112SOL     OW11232   8.618  11.869   6.602
 3112SOL    HW111233   8.586  11.830   6.684
 3112SOL    HW211234   8.585  11.959   6.604
 3113SOL     OW11235   9.794  14.785  12.591
 3113SOL    HW111236   9.867  14.811  12.648
 3113SOL    HW211237   9.723  14.845  12.614
 3114SOL     OW11238   2.221  10.306   7.082
 3114SOL    HW111239   2.231  10.398   7.059
 3114SOL    HW211240   2.260  10.258   7.009
 3115SOL     OW11241   0.463   3.871  13.928
 3115SOL    HW111242   0.542   3.923  13.941
 3115SOL    HW211243   0.494   3.780  13.929
 3116SOL     OW11244   4.413   4.235  11.499
 3116SOL    HW111245   4.319   4.217  11.493
 3116SOL    HW211246   4.418   4.319  11.545
 3117SOL     OW11247   8.726  11.265   2.169
 3117SOL    HW111248   8.639  11.268   2.208
 3117SOL    HW211249   8.728  11.181   2.123
 3118SOL     OW11250  11.873   9.886   6.497
 3118SOL    HW111251  11.846   9.821   6.432
 3118SOL    HW211252  11.791   9.915   6.537
 3119SOL     OW11253   1.193  10.672   3.794
 3119SOL    HW111254   1.126  10.737   3.816
 3119SOL    HW211255   1.196  10.671   3.699
 3120SOL     OW11256   7.420   6.387   9.692
 3120SOL    HW111257   7.363   6.336   9.749
 3120SOL    HW211258   7.481   6.322   9.656
 3121SOL     OW11259  14.679   1.569   1.479
 3121SOL    HW111260  14.650   1.624   1.552
 3121SOL    HW211261  14.610   1.578   1.413
 3122SOL     OW11262  10.596  13.449   1.533
 3122SOL    HW111263  10.537  13.385   1.492
 3122SOL    HW211264  10.596  13.425   1.625
 3123SOL     OW11265   1.009  14.731   4.080
 3123SOL    HW111266   1.064  14.684   4.017
 3123SOL    HW211267   0.947  14.779   4.025
 3124SOL     OW11268  14.311   8.435   9.767
 3124SOL    HW111269  14.385   8.378   9.787
 3124SOL    HW211270  14.352   8.515   9.732
 3125SOL     OW11271   3.360   1.406   9.107
 3125SOL    HW111272   3.265   1.402   9.108
 3125SOL    HW211273   3.380   1.499   9.096
 3126SOL     OW11274   7.774   0.953   4.749
 3126SOL    HW111275   7.790   0.859   4.763
 3126SOL    HW211276   7.680   0.959   4.732
 3127SOL     OW11277  13.148   2.217   9.917
 3127SOL    HW111278  13.112   2.304   9.933
 3127SOL    HW211279  13.141   2.173  10.001
 3128SOL     OW11280   3.180   3.739  14.531
 3128SOL    HW111281   3.118   3.810  14.516
 3128SOL    HW211282   3.193   3.699  14.445
 3129SOL     OW11283  11.650   8.730   6.217
 3129SOL    HW111284  11.738   8.702   6.189
 3129SOL    HW211285  11.630   8.673   6.291
 3130SOL     OW11286   9.469  14.207   6.475
 3130SOL    HW111287   9.456  14.211   6.569
 3130SOL    HW211288   9.392  14.161   6.441
 3131SOL     OW11289   4.264   4.996   3.681
 3131SOL    HW111290   4.190   5.012   3.622
 3131SOL    HW211291   4.260   4.902   3.699
 3132SOL     OW11292   9.216   4.508  10.558
 3132SOL    HW111293   9.303   4.524  10.520
 3132SOL    HW211294   9.192   4.421  10.527
 3133SOL     OW11295   1.585   2.787   4.261
 3133SOL    HW111296   1.659   2.779   4.321
 3133SOL    HW211297   1.607   2.860   4.204
 3134SOL     OW11298   8.726   4.466  13.877
 3134SOL    HW111299   8.738   4.372  13.871
 3134SOL    HW211300   8.709   4.483  13.969
 3135SOL     OW11301   1.863   8.768  11.383
 3135SOL    HW111302   1.863   8.685  11.429
 3135SOL    HW211303   1.787   8.815  11.417
 3136SOL     OW11304   5.318  14.786   8.431
 3136SOL    HW111305   5.281  14.845   8.497
 3136SOL    HW211306   5.263  14.799   8.354
 3137SOL     OW11307  11.646   6.707  12.957
 3137SOL    HW111308  11.664   6.727  13.049
 3137SOL    HW211309  11.579   6.771  12.931
 3138SOL     OW11310   9.153   4.870   2.929
 3138SOL    HW111311   9.164   4.776   2.918
 3138SOL    HW211312   9.134   4.903   2.841
 3139SOL     OW11313   0.636   5.194   0.443
 3139SOL    HW111314   0.727   5.167   0.460
 3139SOL    HW211315   0.586   5.112   0.445
 3140SOL     OW11316  12.915   8.147  14.848
 3140SOL    HW111317  12.881   8.230   0.006
 3140SOL    HW211318  12.883   8.082   0.036
 3141SOL     OW11319   7.101  14.699   1.307
 3141SOL    HW111320   7.119  14.610   1.278
 3141SOL    HW211321   7.166  14.753   1.261
 3142SOL     OW11322   3.449   3.965  13.795
 3142SOL    HW111323   3.382   3.898  13.808
 3142SOL    HW211324   3.401   4.048  13.799
 3143SOL     OW11325   2.498   2.805  10.025
 3143SOL    HW111326   2.419   2.755  10.043
 3143SOL    HW211327   2.536   2.763   9.948
 3144SOL     OW11328   7.912  11.220   6.739
 3144SOL    HW111329   7.907  11.300   6.792
 3144SOL    HW211330   7.829  11.175   6.756
 3145SOL     OW11331   1.479   1.219   8.309
 3145SOL    HW111332   1.525   1.136   8.296
 3145SOL    HW211333   1.442   1.240   8.223
 3146SOL     OW11334   4.888   7.949  12.499
 3146SOL    HW111335   4.886   7.887  12.571
 3146SOL    HW211336   4.882   7.895  12.420
 3147SOL     OW11337  13.690   4.647   0.019
 3147SOL    HW111338  13.633   4.608  14.827
 3147SOL    HW211339  13.650   4.622   0.102
 3148SOL     OW11340  11.554   5.756   2.131
 3148SOL    HW111341  11.459   5.757   2.142
 3148SOL    HW211342  11.567   5.729   2.040
 3149SOL     OW11343   9.285  14.288   4.235
 3149SOL    HW111344   9.229  14.291   4.158
 3149SOL    HW211345   9.349  14.358   4.221
 3150SOL     OW11346   0.189   9.112  12.237
 3150SOL    HW111347   0.184   9.118  12.333
 3150SOL    HW211348   0.103   9.080  12.210
 3151SOL     OW11349  10.631  11.068  11.553
 3151SOL    HW111350  10.599  11.156  11.576
 3151SOL    HW211351  10.605  11.057  11.462
 3152SOL     OW11352   0.842  10.380   8.639
 3152SOL    HW111353   0.827  10.469   8.670
 3152SOL    HW211354   0.754  10.347   8.619
 3153SOL     OW11355   0.911   4.211   2.074
 3153SOL    HW111356   0.993   4.197   2.027
 3153SOL    HW211357   0.853   4.143   2.040
 3154SOL     OW11358   3.039   8.020  11.405
 3154SOL    HW111359   3.089   8.000  11.485
 3154SOL    HW211360   3.075   8.104  11.375
 3155SOL     OW11361   8.065   2.793   5.485
 3155SOL    HW111362   8.034   2.775   5.574
 3155SOL    HW211363   8.104   2.710   5.457
 3156SOL     OW11364   5.550   9.853  14.105
 3156SOL    HW111365   5.478   9.887  14.053
 3156SOL    HW211366   5.563   9.764  14.073
 3157SOL     OW11367  12.893   8.204   9.013
 3157SOL    HW111368  12.808   8.161   9.005
 3157SOL    HW211369  12.889   8.249   9.097
 3158SOL     OW11370   8.852   4.574   5.852
 3158SOL    HW111371   8.761   4.598   5.869
 3158SOL    HW211372   8.903   4.650   5.882
 3159SOL     OW11373   6.196  13.753   7.353
 3159SOL    HW111374   6.108  13.749   7.314
 3159SOL    HW211375   6.183  13.724   7.443
 3160SOL     OW11376   2.845  12.433   7.866
 3160SOL    HW111377   2.888  12.395   7.789
 3160SOL    HW211378   2.755  12.448   7.837
 3161SOL     OW11379   1.945   6.442  13.210
 3161SOL    HW111380   1.930   6.427  13.117
 3161SOL    HW211381   1.869   6.402  13.253
 3162SOL     OW11382   4.274   2.653   6.747
 3162SOL    HW111383   4.229   2.656   6.831
 3162SOL    HW211384   4.367   2.643   6.769
 3163SOL     OW11385   2.282   0.196  11.481
 3163SOL    HW111386   2.247   0.280  11.451
 3163SOL    HW211387   2.283   0.203  11.577
 3164SOL     OW11388   0.343   9.308   7.242
 3164SOL    HW111389   0.289   9.310   7.163
 3164SOL    HW211390   0.427   9.345   7.215
 3165SOL     OW11391   6.535   2.515   8.989
 3165SOL    HW111392   6.464   2.455   9.013
 3165SOL    HW211393   6.495   2.575   8.926
 3166SOL     OW11394   4.998   4.822   5.221
 3166SOL    HW111395   5.075   4.769   5.242
 3166SOL    HW211396   5.018   4.908   5.258
 3167SOL     OW11397   4.078   0.726   7.298
 3167SOL    HW111398   3.997   0.694   7.338
 3167SOL    HW211399   4.075   0.694   7.208
 3168SOL     OW11400   5.437  10.653   5.528
 3168SOL    HW111401   5.510  10.592   5.519
 3168SOL    HW211402   5.475  10.739   5.506
 3169SOL     OW11403  10.591   2.667   4.168
 3169SOL    HW111404  10.576   2.758   4.144
 3169SOL    HW211405  10.667   2.641   4.116
 3170SOL     OW11406   8.016   0.496   4.290
 3170SOL    HW111407   7.967   0.553   4.349
 3170SOL    HW211408   8.091   0.467   4.342
 3171SOL     OW11409   6.195  10.158   2.762
 3171SOL    HW111410   6.261  10.092   2.742
 3171SOL    HW211411   6.115  10.124   2.721
 3172SOL     OW11412  12.460  11.305  11.569
 3172SOL    HW111413  12.450  11.223  11.618
 3172SOL    HW211414  12.539  11.291  11.517
 3173SOL     OW11415   3.707   5.290   6.663
 3173SOL    HW111416   3.794   5.317   6.693
 3173SOL    HW211417   3.710   5.299   6.568
 3174SOL     OW11418   2.312  14.092   1.417
 3174SOL    HW111419   2.339  14.066   1.329
 3174SOL    HW211420   2.288  14.184   1.409
 3175SOL     OW11421   5.545   4.900  12.932
 3175SOL    HW111422   5.460   4.912  12.890
 3175SOL    HW211423   5.540   4.813  12.972
 3176SOL     OW11424   3.507   7.726  10.063
 3176SOL    HW111425   3.498   7.748  10.155
 3176SOL    HW211426   3.423   7.751  10.024
 3177SOL     OW11427   0.333   7.836   6.243
 3177SOL    HW111428   0.398   7.877   6.186
 3177SOL    HW211429   0.331   7.744   6.216
 3178SOL     OW11430   9.781  10.184  14.392
 3178SOL    HW111431   9.691  10.217  14.396
 3178SOL    HW211432   9.826  10.229  14.463
 3179SOL     OW11433   2.841   4.309  10.200
 3179SOL    HW111434   2.895   4.367  10.254
 3179SOL    HW211435   2.824   4.360  10.120
 3180SOL     OW11436   8.108   7.886   0.012
 3180SOL    HW111437   8.062   7.803   0.027
 3180SOL    HW211438   8.057   7.929  14.818
 3181SOL     OW11439  10.653   5.739  12.781
 3181SOL    HW111440  10.747   5.745  12.762
 3181SOL    HW211441  10.634   5.645  12.780
 3182SOL     OW11442  12.052   9.933   5.750
 3182SOL    HW111443  12.004   9.853   5.731
 3182SOL    HW211444  12.131   9.903   5.794
 3183SOL     OW11445   2.037  14.606   1.065
 3183SOL    HW111446   2.020  14.696   1.036
 3183SOL    HW211447   2.093  14.569   0.997
 3184SOL     OW11448   9.862   8.822   8.770
 3184SOL    HW111449   9.875   8.837   8.676
 3184SOL    HW211450   9.848   8.728   8.777
 3185SOL     OW11451   9.154   9.018   3.773
 3185SOL    HW111452   9.064   8.995   3.753
 3185SOL    HW211453   9.178   9.085   3.708
 3186SOL     OW11454  14.080   4.928  14.741
 3186SOL    HW111455  14.172   4.931  14.768
 3186SOL    HW211456  14.056   5.020  14.728
 3187SOL     OW11457   1.218  14.649  13.057
 3187SOL    HW111458   1.300  14.646  13.107
 3187SOL    HW211459   1.189  14.558  13.053
 3188SOL     OW11460   4.505   6.102   2.093
 3188SOL    HW111461   4.471   6.187   2.121
 3188SOL    HW211462   4.430   6.043   2.098
 3189SOL     OW11463   1.981  11.105   9.093
 3189SOL    HW111464   1.890  11.118   9.068
 3189SOL    HW211465   2.010  11.032   9.039
 3190SOL     OW11466   3.647   7.105  12.794
 3190SOL    HW111467   3.644   7.113  12.698
 3190SOL    HW211468   3.561   7.136  12.823
 3191SOL     OW11469  12.586  13.098  10.070
 3191SOL    HW111470  12.539  13.112  10.152
 3191SOL    HW211471  12.620  13.009  10.076
 3192SOL     OW11472   6.703   6.037   0.005
 3192SOL    HW111473   6.614   6.061  14.852
 3192SOL    HW211474   6.730   5.968  14.820
 3193SOL     OW11475   5.981   0.611  13.324
 3193SOL    HW111476   5.969   0.694  13.371
 3193SOL    HW211477   6.076   0.602  13.315
 3194SOL     OW11478   8.042  13.113   2.621
 3194SOL    HW111479   8.073  13.142   2.536
 3194SOL    HW211480   8.116  13.066   2.660
 3195SOL     OW11481   2.599   4.001   2.952
 3195SOL    HW111482   2.575   3.936   2.886
 3195SOL    HW211483   2.579   4.085   2.911
 3196SOL     OW11484   6.443   6.466   8.988
 3196SOL    HW111485   6.503   6.493   9.057
 3196SOL    HW211486   6.380   6.538   8.982
 3197SOL     OW11487  10.258   6.092  13.788
 3197SOL    HW111488  10.230   6.177  13.823
 3197SOL    HW211489  10.177   6.043  13.776
 3198SOL     OW11490   5.194  12.550   5.962
 3198SOL    HW111491   5.174  12.521   5.873
 3198SOL    HW211492   5.182  12.471   6.016
 3199SOL     OW11493   1.781  12.677   7.899
 3199SOL    HW111494   1.701  12.626   7.893
 3199SOL    HW211495   1.852  12.614   7.884
 3200SOL     OW11496   7.830   0.935   1.894
 3200SOL    HW111497   7.894   1.003   1.913
 3200SOL    HW211498   7.834   0.924   1.799
 3201SOL     OW11499   9.892  14.471  10.654
 3201SOL    HW111500   9.831  14.540  10.630
 3201SOL    HW211501   9.880  14.404  10.587
 3202SOL     OW11502  10.155  10.289   9.873
 3202SOL    HW111503  10.106  10.334   9.942
 3202SOL    HW211504  10.201  10.359   9.826
 3203SOL     OW11505  10.781  10.057   6.090
 3203SOL    HW111506  10.697  10.059   6.045
 3203SOL    HW211507  10.845  10.078   6.022
 3204SOL     OW11508   2.112  13.501   9.171
 3204SOL    HW111509   2.185  13.526   9.228
 3204SOL    HW211510   2.034  13.530   9.217
 3205SOL     OW11511   7.480   1.704   9.542
 3205SOL    HW111512   7.508   1.673   9.456
 3205SOL    HW211513   7.400   1.755   9.525
 3206SOL     OW11514  11.746   0.073   1.242
 3206SOL    HW111515  11.831   0.064   1.198
 3206SOL    HW211516  11.690   0.115   1.176
 3207SOL     OW11517   4.346   6.688  12.663
 3207SOL    HW111518   4.434   6.725  12.653
 3207SOL    HW211519   4.306   6.740  12.733
 3208SOL     OW11520  11.163   3.182   5.531
 3208SOL    HW111521  11.089   3.123   5.544
 3208SOL    HW211522  11.238   3.125   5.515
 3209SOL     OW11523   7.244  14.178  14.332
 3209SOL    HW111524   7.212  14.089  14.350
 3209SOL    HW211525   7.277  14.209  14.416
 3210SOL     OW11526  14.649   0.660  14.182
 3210SOL    HW111527  14.668   0.574  14.219
 3210SOL    HW211528  14.734   0.704  14.178
 3211SOL     OW11529  14.231   7.685  13.013
 3211SOL    HW111530  14.306   7.668  12.956
 3211SOL    HW211531  14.229   7.781  13.022
 3212SOL     OW11532   7.653  12.976   9.318
 3212SOL    HW111533   7.645  12.912   9.389
 3212SOL    HW211534   7.567  13.017   9.313
 3213SOL     OW11535  13.310   3.281   6.044
 3213SOL    HW111536  13.397   3.244   6.028
 3213SOL    HW211537  13.252   3.204   6.050
 3214SOL     OW11538   5.899   0.430  12.362
 3214SOL    HW111539   5.858   0.438  12.448
 3214SOL    HW211540   5.886   0.516  12.321
 3215SOL     OW11541   2.294  12.291   0.092
 3215SOL    HW111542   2.234  12.278   0.166
 3215SOL    HW211543   2.239  12.278   0.015
 3216SOL     OW11544  13.393   5.487   0.837
 3216SOL    HW111545  13.323   5.533   0.791
 3216SOL    HW211546  13.354   5.403   0.863
 3217SOL     OW11547   8.089   3.212   1.559
 3217SOL    HW111548   8.125   3.232   1.472
 3217SOL    HW211549   8.150   3.150   1.597
 3218SOL     OW11550   9.127  14.309  13.652
 3218SOL    HW111551   9.039  14.285  13.623
 3218SOL    HW211552   9.124  14.301  13.748
 3219SOL     OW11553  13.710   7.380  10.942
 3219SOL    HW111554  13.719   7.390  10.847
 3219SOL    HW211555  13.619   7.356  10.955
 3220SOL     OW11556   1.958   4.235   4.479
 3220SOL    HW111557   1.878   4.183   4.472
 3220SOL    HW211558   1.996   4.233   4.391
 3221SOL     OW11559  14.148   2.639  10.605
 3221SOL    HW111560  14.166   2.563  10.661
 3221SOL    HW211561  14.217   2.702  10.627
 3222SOL     OW11562   8.992   6.504   0.269
 3222SOL    HW111563   9.056   6.454   0.320
 3222SOL    HW211564   8.977   6.583   0.320
 3223SOL     OW11565  10.253   1.427   3.974
 3223SOL    HW111566  10.237   1.505   4.027
 3223SOL    HW211567  10.348   1.417   3.974
 3224SOL     OW11568   2.464  14.023  13.869
 3224SOL    HW111569   2.550  14.024  13.912
 3224SOL    HW211570   2.413  14.090  13.913
 3225SOL     OW11571   9.633   8.883   7.968
 3225SOL    HW111572   9.724   8.859   7.955
 3225SOL    HW211573   9.629   8.915   8.058
 3226SOL     OW11574   6.659   4.985   8.103
 3226SOL    HW111575   6.647   5.073   8.067
 3226SOL    HW211576   6.636   4.926   8.031
 3227SOL     OW11577  11.370   0.620   3.179
 3227SOL    HW111578  11.399   0.531   3.160
 3227SOL    HW211579  11.450   0.673   3.171
 3228SOL     OW11580  13.813   8.083  12.447
 3228SOL    HW111581  13.903   8.077  12.417
 3228SOL    HW211582  13.772   8.148  12.389
 3229SOL     OW11583   7.849   3.426  12.498
 3229SOL    HW111584   7.798   3.437  12.577
 3229SOL    HW211585   7.792   3.378  12.438
 3230SOL     OW11586   0.067  14.692   5.077
 3230SOL    HW111587  14.856  14.656   5.054
 3230SOL    HW211588   0.048  14.783   5.103
 3231SOL     OW11589   8.246   9.285   3.473
 3231SOL    HW111590   8.296   9.237   3.407
 3231SOL    HW211591   8.313   9.319   3.533
 3232SOL     OW11592   7.671  10.484  11.217
 3232SOL    HW111593   7.728  10.480  11.294
 3232SOL    HW211594   7.717  10.542  11.156
 3233SOL     OW11595   2.101   2.131  13.473
 3233SOL    HW111596   2.146   2.107  13.554
 3233SOL    HW211597   2.042   2.058  13.457
 3234SOL     OW11598   0.329  12.050  12.793
 3234SOL    HW111599   0.274  12.002  12.732
 3234SOL    HW211600   0.410  11.999  12.799
 3235SOL     OW11601   0.149   9.276   8.811
 3235SOL    HW111602   0.231   9.231   8.791
 3235SOL    HW211603   0.164   9.367   8.788
 3236SOL     OW11604  14.731  12.697   1.240
 3236SOL    HW111605  14.801  12.635   1.220
 3236SOL    HW211606  14.747  12.721   1.332
 3237SOL     OW11607   6.932  10.343   9.012
 3237SOL    HW111608   7.007  10.380   8.965
 3237SOL    HW211609   6.947  10.248   9.008
 3238SOL     OW11610   2.356   8.190  12.935
 3238SOL    HW111611   2.397   8.187  13.022
 3238SOL    HW211612   2.295   8.116  12.935
 3239SOL     OW11613  14.255   4.379   9.473
 3239SOL    HW111614  14.252   4.287   9.502
 3239SOL    HW211615  14.206   4.427   9.540
 3240SOL     OW11616  14.338   8.286   7.596
 3240SOL    HW111617  14.405   8.320   7.655
 3240SOL    HW211618  14.378   8.288   7.510
 3241SOL     OW11619   4.861  13.411   7.017
 3241SOL    HW111620   4.804  13.479   6.983
 3241SOL    HW211621   4.809  13.368   7.085
 3242SOL     OW11622  13.454  13.689   9.477
 3242SOL    HW111623  13.491  13.601   9.468
 3242SOL    HW211624  13.451  13.705   9.571
 3243SOL     OW11625   3.890  10.293  13.030
 3243SOL    HW111626   3.855  10.213  13.069
 3243SOL    HW211627   3.813  10.338  12.995
 3244SOL     OW11628   8.004  10.890   2.078
 3244SOL    HW111629   8.038  10.852   1.997
 3244SOL    HW211630   8.010  10.984   2.065
 3245SOL     OW11631  11.400   0.730   9.426
 3245SOL    HW111632  11.329   0.755   9.367
 3245SOL    HW211633  11.479   0.735   9.372
 3246SOL     OW11634  13.422   8.752   0.496
 3246SOL    HW111635  13.410   8.657   0.492
 3246SOL    HW211636  13.432   8.771   0.590
 3247SOL     OW11637   8.584   9.417  13.485
 3247SOL    HW111638   8.576   9.504  13.524
 3247SOL    HW211639   8.511   9.411  13.424
 3248SOL     OW11640   9.264   8.652   6.548
 3248SOL    HW111641   9.339   8.608   6.588
 3248SOL    HW211642   9.299   8.693   6.469
 3249SOL     OW11643   6.817  10.231   6.962
 3249SOL    HW111644   6.820  10.299   7.029
 3249SOL    HW211645   6.810  10.278   6.880
 3250SOL     OW11646   8.423   5.825  13.276
 3250SOL    HW111647   8.438   5.777  13.357
 3250SOL    HW211648   8.328   5.819  13.261
 3251SOL     OW11649   5.052   7.593   1.902
 3251SOL    HW111650   5.056   7.561   1.811
 3251SOL    HW211651   5.117   7.662   1.906
 3252SOL     OW11652   8.654  11.145   0.952
 3252SOL    HW111653   8.696  11.207   0.892
 3252SOL    HW211654   8.565  11.179   0.963
 3253SOL     OW11655  11.807   1.301   0.665
 3253SOL    HW111656  11.742   1.286   0.733
 3253SOL    HW211657  11.770   1.370   0.611
 3254SOL     OW11658  12.971   8.697  13.460
 3254SOL    HW111659  12.982   8.609  13.423
 3254SOL    HW211660  12.986   8.756  13.386
 3255SOL     OW11661   7.083  14.838  12.388
 3255SOL    HW111662   7.062   0.047  12.428
 3255SOL    HW211663   7.096  14.779  12.462
 3256SOL     OW11664   9.242   1.425  10.100
 3256SOL    HW111665   9.242   1.406  10.006
 3256SOL    HW211666   9.190   1.355  10.138
 3257SOL     OW11667   2.037   8.742   7.905
 3257SOL    HW111668   1.991   8.788   7.835
 3257SOL    HW211669   1.990   8.660   7.915
 3258SOL     OW11670  12.924   6.931  13.180
 3258SOL    HW111671  12.899   6.911  13.089
 3258SOL    HW211672  12.926   7.026  13.183
 3259SOL     OW11673   2.792   6.781   2.103
 3259SOL    HW111674   2.791   6.735   2.019
 3259SOL    HW211675   2.855   6.852   2.090
 3260SOL     OW11676  10.404  11.123   1.570
 3260SOL    HW111677  10.323  11.171   1.590
 3260SOL    HW211678  10.407  11.121   1.474
 3261SOL     OW11679   7.829  10.414  13.741
 3261SOL    HW111680   7.873  10.476  13.799
 3261SOL    HW211681   7.809  10.339  13.797
 3262SOL     OW11682  11.622   2.964  13.788
 3262SOL    HW111683  11.606   2.886  13.841
 3262SOL    HW211684  11.681   2.934  13.718
 3263SOL     OW11685   6.031   6.942   8.204
 3263SOL    HW111686   6.009   7.023   8.158
 3263SOL    HW211687   5.963   6.881   8.178
 3264SOL     OW11688  13.478   2.101   7.887
 3264SOL    HW111689  13.389   2.126   7.912
 3264SOL    HW211690  13.467   2.019   7.839
 3265SOL     OW11691  13.704  11.647   9.481
 3265SOL    HW111692  13.789  11.691   9.489
 3265SOL    HW211693  13.640  11.717   9.480
 3266SOL     OW11694   2.593  11.695   9.144
 3266SOL    HW111695   2.598  11.618   9.087
 3266SOL    HW211696   2.661  11.754   9.111
 3267SOL     OW11697  14.230   3.359   2.831
 3267SOL    HW111698  14.270   3.384   2.915
 3267SOL    HW211699  14.270   3.417   2.767
 3268SOL     OW11700   5.509  14.810   8.714
 3268SOL    HW111701   5.563  14.875   8.668
 3268SOL    HW211702   5.425  14.813   8.670
 3269SOL     OW11703   8.958   7.131  11.116
 3269SOL    HW111704   9.054   7.141  11.113
 3269SOL    HW211705   8.934   7.163  11.203
 3270SOL     OW11706   8.942   8.471  13.284
 3270SOL    HW111707   8.956   8.562  13.311
 3270SOL    HW211708   9.014   8.452  13.224
 3271SOL     OW11709  14.080  14.733  14.501
 3271SOL    HW111710  14.133  14.698  14.429
 3271SOL    HW211711  14.142  14.781  14.556
 3272SOL     OW11712   2.491  14.264   0.503
 3272SOL    HW111713   2.466  14.330   0.439
 3272SOL    HW211714   2.497  14.182   0.453
 3273SOL     OW11715   1.186   2.579  10.155
 3273SOL    HW111716   1.112   2.519  10.155
 3273SOL    HW211717   1.224   2.570  10.243
 3274SOL     OW11718   8.144   8.874   3.682
 3274SOL    HW111719   8.084   8.864   3.608
 3274SOL    HW211720   8.138   8.967   3.705
 3275SOL     OW11721   6.974   2.869   6.421
 3275SOL    HW111722   6.948   2.923   6.346
 3275SOL    HW211723   6.915   2.794   6.418
 3276SOL     OW11724   6.971   8.350  11.897
 3276SOL    HW111725   6.886   8.368  11.857
 3276SOL    HW211726   7.011   8.284  11.840
 3277SOL     OW11727  14.445  13.546  10.869
 3277SOL    HW111728  14.403  13.610  10.811
 3277SOL    HW211729  14.373  13.502  10.913
 3278SOL     OW11730   2.824  11.055   9.363
 3278SOL    HW111731   2.839  10.961   9.362
 3278SOL    HW211732   2.736  11.067   9.328
 3279SOL     OW11733  12.333   8.679   6.881
 3279SOL    HW111734  12.410   8.729   6.853
 3279SOL    HW211735  12.260   8.719   6.833
 3280SOL     OW11736  13.192   1.163   7.982
 3280SOL    HW111737  13.226   1.237   8.033
 3280SOL    HW211738  13.215   1.086   8.033
 3281SOL     OW11739   9.780   2.542   2.694
 3281SOL    HW111740   9.803   2.519   2.604
 3281SOL    HW211741   9.822   2.474   2.747
 3282SOL     OW11742  11.583   9.424  12.745
 3282SOL    HW111743  11.561   9.491  12.681
 3282SOL    HW211744  11.500   9.407  12.790
 3283SOL     OW11745  10.103   7.361  12.861
 3283SOL    HW111746  10.188   7.400  12.838
 3283SOL    HW211747  10.048   7.375  12.784
 3284SOL     OW11748   0.480   7.836   8.581
 3284SOL    HW111749   0.528   7.919   8.578
 3284SOL    HW211750   0.426   7.837   8.501
 3285SOL     OW11751   3.778  14.224   4.658
 3285SOL    HW111752   3.837  14.178   4.599
 3285SOL    HW211753   3.704  14.250   4.604
 3286SOL     OW11754   2.046   9.350   4.122
 3286SOL    HW111755   2.074   9.433   4.161
 3286SOL    HW211756   2.003   9.304   4.194
 3287SOL     OW11757  12.226   1.735   3.009
 3287SOL    HW111758  12.299   1.739   2.947
 3287SOL    HW211759  12.228   1.819   3.054
 3288SOL     OW11760  11.268  13.190   7.755
 3288SOL    HW111761  11.175  13.175   7.772
 3288SOL    HW211762  11.289  13.128   7.685
 3289SOL     OW11763   0.956   5.780   3.568
 3289SOL    HW111764   0.997   5.704   3.528
 3289SOL    HW211765   0.957   5.847   3.498
 3290SOL     OW11766   8.553   1.374  12.000
 3290SOL    HW111767   8.593   1.365  12.086
 3290SOL    HW211768   8.476   1.317  12.003
 3291SOL     OW11769  12.350   9.169   5.559
 3291SOL    HW111770  12.324   9.078   5.545
 3291SOL    HW211771  12.446   9.167   5.559
 3292SOL     OW11772   3.572   4.786  14.371
 3292SOL    HW111773   3.542   4.858  14.316
 3292SOL    HW211774   3.570   4.821  14.460
 3293SOL     OW11775  13.339   0.878   5.041
 3293SOL    HW111776  13.306   0.949   4.986
 3293SOL    HW211777  13.351   0.804   4.981
 3294SOL     OW11778   1.998  13.423   9.544
 3294SOL    HW111779   2.051  13.403   9.620
 3294SOL    HW211780   2.037  13.503   9.507
 3295SOL     OW11781   1.122   1.805   4.190
 3295SOL    HW111782   1.051   1.868   4.198
 3295SOL    HW211783   1.093   1.729   4.240
 3296SOL     OW11784   8.669   8.608   0.044
 3296SOL    HW111785   8.658   8.703   0.049
 3296SOL    HW211786   8.643   8.585  14.830
 3297SOL     OW11787   8.611   6.356   5.362
 3297SOL    HW111788   8.527   6.328   5.398
 3297SOL    HW211789   8.588   6.411   5.287
 3298SOL     OW11790  12.777   5.166   9.238
 3298SOL    HW111791  12.831   5.093   9.271
 3298SOL    HW211792  12.720   5.188   9.312
 3299SOL     OW11793  11.396  12.820  11.180
 3299SOL    HW111794  11.363  12.811  11.091
 3299SOL    HW211795  11.391  12.732  11.217
 3300SOL     OW11796   8.075   9.389  13.892
 3300SOL    HW111797   8.083   9.467  13.946
 3300SOL    HW211798   8.113   9.318  13.944
 3301SOL     OW11799   6.425  13.778  14.202
 3301SOL    HW111800   6.389  13.861  14.232
 3301SOL    HW211801   6.432  13.725  14.281
 3302SOL     OW11802  10.466   8.921   8.376
 3302SOL    HW111803  10.382   8.943   8.416
 3302SOL    HW211804  10.531   8.953   8.439
 3303SOL     OW11805   8.566  14.583  10.214
 3303SOL    HW111806   8.546  14.644  10.285
 3303SOL    HW211807   8.635  14.528  10.249
 3304SOL     OW11808   7.875   0.502   8.754
 3304SOL    HW111809   7.800   0.526   8.807
 3304SOL    HW211810   7.948   0.551   8.791
 3305SOL     OW11811  11.389   8.602   4.773
 3305SOL    HW111812  11.443   8.651   4.836
 3305SOL    HW211813  11.436   8.521   4.759
 3306SOL     OW11814   2.109   2.357   0.880
 3306SOL    HW111815   2.126   2.444   0.915
 3306SOL    HW211816   2.073   2.308   0.954
 3307SOL     OW11817   2.009   2.198   5.106
 3307SOL    HW111818   2.017   2.231   5.196
 3307SOL    HW211819   2.041   2.108   5.110
 3308SOL     OW11820  14.533  14.694   7.545
 3308SOL    HW111821  14.467  14.687   7.476
 3308SOL    HW211822  14.599  14.628   7.523
 3309SOL     OW11823   5.155  12.956   1.387
 3309SOL    HW111824   5.096  12.921   1.321
 3309SOL    HW211825   5.121  13.044   1.405
 3310SOL     OW11826   8.694   6.988   6.661
 3310SOL    HW111827   8.687   7.058   6.725
 3310SOL    HW211828   8.703   6.908   6.713
 3311SOL     OW11829   1.728   6.998   3.630
 3311SOL    HW111830   1.801   6.954   3.587
 3311SOL    HW211831   1.651   6.968   3.583
 3312SOL     OW11832   4.255  10.219  13.038
 3312SOL    HW111833   4.212  10.304  13.027
 3312SOL    HW211834   4.342  10.240  13.072
 3313SOL     OW11835   8.413   9.431   2.368
 3313SOL    HW111836   8.464   9.452   2.446
 3313SOL    HW211837   8.403   9.515   2.323
 3314SOL     OW11838   4.781   5.046   3.493
 3314SOL    HW111839   4.729   4.966   3.489
 3314SOL    HW211840   4.828   5.047   3.410
 3315SOL     OW11841  13.115  11.706   5.605
 3315SOL    HW111842  13.137  11.759   5.681
 3315SOL    HW211843  13.145  11.618   5.628
 3316SOL     OW11844   9.683   2.523   0.356
 3316SOL    HW111845   9.679   2.504   0.449
 3316SOL    HW211846   9.728   2.447   0.318
 3317SOL     OW11847   6.823  12.101   7.277
 3317SOL    HW111848   6.882  12.028   7.261
 3317SOL    HW211849   6.738  12.070   7.245
 3318SOL     OW11850   4.655  12.042   6.625
 3318SOL    HW111851   4.710  11.973   6.588
 3318SOL    HW211852   4.716  12.112   6.646
 3319SOL     OW11853   3.155   4.474   1.576
 3319SOL    HW111854   3.239   4.512   1.551
 3319SOL    HW211855   3.090   4.524   1.527
 3320SOL     OW11856   5.649  12.188   0.379
 3320SOL    HW111857   5.603  12.178   0.462
 3320SOL    HW211858   5.598  12.254   0.331
 3321SOL     OW11859   1.573   4.251  10.991
 3321SOL    HW111860   1.497   4.199  10.966
 3321SOL    HW211861   1.648   4.201  10.958
 3322SOL     OW11862  14.340  11.148   2.809
 3322SOL    HW111863  14.431  11.127   2.828
 3322SOL    HW211864  14.320  11.224   2.862
 3323SOL     OW11865   9.694   6.405  11.597
 3323SOL    HW111866   9.652   6.364  11.521
 3323SOL    HW211867   9.654   6.362  11.672
 3324SOL     OW11868  11.882   7.553  10.389
 3324SOL    HW111869  11.948   7.483  10.392
 3324SOL    HW211870  11.905   7.605  10.313
 3325SOL     OW11871  12.769  13.737   7.236
 3325SOL    HW111872  12.751  13.747   7.330
 3325SOL    HW211873  12.864  13.745   7.229
 3326SOL     OW11874   7.366   6.010   3.771
 3326SOL    HW111875   7.364   6.092   3.723
 3326SOL    HW211876   7.435   6.022   3.837
 3327SOL     OW11877   2.444   2.624   3.209
 3327SOL    HW111878   2.418   2.571   3.284
 3327SOL    HW211879   2.490   2.563   3.151
 3328SOL     OW11880   6.346  12.196   1.509
 3328SOL    HW111881   6.342  12.107   1.473
 3328SOL    HW211882   6.430  12.230   1.480
 3329SOL     OW11883   2.928  12.577   7.517
 3329SOL    HW111884   2.939  12.497   7.568
 3329SOL    HW211885   2.977  12.563   7.437
 3330SOL     OW11886   2.300   2.923   2.455
 3330SOL    HW111887   2.395   2.928   2.469
 3330SOL    HW211888   2.288   2.958   2.367
 3331SOL     OW11889   9.063   4.431   0.793
 3331SOL    HW111890   9.152   4.464   0.782
 3331SOL    HW211891   9.008   4.509   0.787
 3332SOL     OW11892   9.662   8.267  10.625
 3332SOL    HW111893   9.607   8.344  10.638
 3332SOL    HW211894   9.741   8.285  10.675
 3333SOL     OW11895   1.358  11.794  14.467
 3333SOL    HW111896   1.360  11.889  14.478
 3333SOL    HW211897   1.284  11.777  14.409
 3334SOL     OW11898   6.995   6.589   5.027
 3334SOL    HW111899   7.053   6.517   5.053
 3334SOL    HW211900   6.975   6.572   4.935
 3335SOL     OW11901   4.812   8.589   1.879
 3335SOL    HW111902   4.853   8.536   1.948
 3335SOL    HW211903   4.728   8.616   1.917
 3336SOL     OW11904   4.308   2.041   3.923
 3336SOL    HW111905   4.257   1.967   3.956
 3336SOL    HW211906   4.272   2.056   3.835
 3337SOL     OW11907  14.750  13.357   9.576
 3337SOL    HW111908  14.788  13.271   9.557
 3337SOL    HW211909  14.673  13.338   9.630
 3338SOL     OW11910   3.869  10.160  11.562
 3338SOL    HW111911   3.804  10.185  11.496
 3338SOL    HW211912   3.928  10.100  11.517
 3339SOL     OW11913   1.510  10.638   5.619
 3339SOL    HW111914   1.514  10.700   5.691
 3339SOL    HW211915   1.503  10.692   5.541
 3340SOL     OW11916   3.431   5.759   4.388
 3340SOL    HW111917   3.469   5.681   4.428
 3340SOL    HW211918   3.501   5.824   4.389
 3341SOL     OW11919  12.547   2.997   2.236
 3341SOL    HW111920  12.458   2.976   2.209
 3341SOL    HW211921  12.555   2.959   2.323
 3342SOL     OW11922   1.001   0.010   7.682
 3342SOL    HW111923   0.994   0.014   7.587
 3342SOL    HW211924   0.911   0.023   7.713
 3343SOL     OW11925   6.952   8.097   4.568
 3343SOL    HW111926   7.039   8.101   4.530
 3343SOL    HW211927   6.906   8.032   4.515
 3344SOL     OW11928  12.856  11.365  11.164
 3344SOL    HW111929  12.919  11.322  11.105
 3344SOL    HW211930  12.853  11.309  11.241
 3345SOL     OW11931   0.285   9.311  11.458
 3345SOL    HW111932   0.334   9.277  11.383
 3345SOL    HW211933   0.204   9.345  11.420
 3346SOL     OW11934   5.243  14.077   9.906
 3346SOL    HW111935   5.262  13.989   9.939
 3346SOL    HW211936   5.295  14.135   9.961
 3347SOL     OW11937   2.064   0.452   3.579
 3347SOL    HW111938   2.095   0.535   3.616
 3347SOL    HW211939   2.022   0.407   3.652
 3348SOL     OW11940   3.804   4.901  11.948
 3348SOL    HW111941   3.721   4.924  11.989
 3348SOL    HW211942   3.844   4.986  11.926
 3349SOL     OW11943   3.985   2.068  14.012
 3349SOL    HW111944   4.005   2.000  13.948
 3349SOL    HW211945   3.900   2.102  13.986
 3350SOL     OW11946   9.062  13.560  11.910
 3350SOL    HW111947   9.052  13.649  11.943
 3350SOL    HW211948   9.098  13.571  11.821
 3351SOL     OW11949   5.079   1.937   7.719
 3351SOL    HW111950   5.016   1.899   7.658
 3351SOL    HW211951   5.074   2.031   7.703
 3352SOL     OW11952  11.428   8.385   5.863
 3352SOL    HW111953  11.354   8.431   5.904
 3352SOL    HW211954  11.421   8.295   5.895
 3353SOL     OW11955  12.454   7.341   6.242
 3353SOL    HW111956  12.504   7.323   6.321
 3353SOL    HW211957  12.429   7.255   6.209
 3354SOL     OW11958   0.277  12.130   9.197
 3354SOL    HW111959   0.260  12.064   9.130
 3354SOL    HW211960   0.193  12.142   9.242
 3355SOL     OW11961  11.341  14.600   9.879
 3355SOL    HW111962  11.418  14.652   9.858
 3355SOL    HW211963  11.333  14.537   9.808
 3356SOL     OW11964   2.159   6.278  12.672
 3356SOL    HW111965   2.130   6.194  12.707
 3356SOL    HW211966   2.241   6.258  12.626
 3357SOL     OW11967  14.800   9.982  12.566
 3357SOL    HW111968  14.815  10.069  12.529
 3357SOL    HW211969  14.732   9.943  12.512
 3358SOL     OW11970   1.217   7.249   1.813
 3358SOL    HW111971   1.241   7.210   1.729
 3358SOL    HW211972   1.190   7.338   1.791
 3359SOL     OW11973   8.406  13.172   1.626
 3359SOL    HW111974   8.417  13.122   1.707
 3359SOL    HW211975   8.362  13.253   1.654
 3360SOL     OW11976   0.654  11.628  10.192
 3360SOL    HW111977   0.589  11.661  10.254
 3360SOL    HW211978   0.662  11.698  10.127
 3361SOL     OW11979   0.076   1.125   9.263
 3361SOL    HW111980   0.146   1.189   9.261
 3361SOL    HW211981   0.119   1.041   9.244
 3362SOL     OW11982   6.597   0.174  12.647
 3362SOL    HW111983   6.685   0.136  12.644
 3362SOL    HW211984   6.542   0.103  12.680
 3363SOL     OW11985  11.435   4.328   7.389
 3363SOL    HW111986  11.490   4.299   7.315
 3363SOL    HW211987  11.369   4.259   7.398
 3364SOL     OW11988   9.896   8.122   7.324
 3364SOL    HW111989   9.989   8.132   7.344
 3364SOL    HW211990   9.888   8.150   7.233
 3365SOL     OW11991   6.501   7.339  10.090
 3365SOL    HW111992   6.556   7.268  10.056
 3365SOL    HW211993   6.510   7.334  10.185
 3366SOL     OW11994  10.462   3.260  10.454
 3366SOL    HW111995  10.457   3.355  10.465
 3366SOL    HW211996  10.376   3.228  10.481
 3367SOL     OW11997   3.087  12.998   2.602
 3367SOL    HW111998   3.141  12.968   2.529
 3367SOL    HW211999   2.998  12.972   2.579
 3368SOL     OW12000   6.812   7.773   3.116
 3368SOL    HW112001   6.833   7.828   3.192
 3368SOL    HW212002   6.852   7.688   3.137
 3369SOL     OW12003   2.731   4.253   4.311
 3369SOL    HW112004   2.776   4.173   4.336
 3369SOL    HW212005   2.662   4.224   4.251
 3370SOL     OW12006  14.835   1.801   1.670
 3370SOL    HW112007   0.040   1.749   1.673
 3370SOL    HW212008  14.828   1.829   1.578
 3371SOL     OW12009   2.248   7.712  13.088
 3371SOL    HW112010   2.203   7.632  13.115
 3371SOL    HW212011   2.252   7.765  13.168
 3372SOL     OW12012  14.509   9.626  12.994
 3372SOL    HW112013  14.493   9.700  12.936
 3372SOL    HW212014  14.598   9.641  13.028
 3373SOL     OW12015   1.845   6.525   2.816
 3373SOL    HW112016   1.930   6.483   2.806
 3373SOL    HW212017   1.850   6.568   2.901
 3374SOL     OW12018   0.869   5.546   3.252
 3374SOL    HW112019   0.774   5.532   3.259
 3374SOL    HW212020   0.877   5.616   3.186
 3375SOL     OW12021  12.765   5.359   2.039
 3375SOL    HW112022  12.685   5.405   2.066
 3375SOL    HW212023  12.830   5.429   2.027
 3376SOL     OW12024   4.476  12.265  13.253
 3376SOL    HW112025   4.489  12.360  13.253
 3376SOL    HW212026   4.508  12.237  13.167
 3377SOL     OW12027   8.405  10.342   7.593
 3377SOL    HW112028   8.484  10.302   7.629
 3377SOL    HW212029   8.417  10.436   7.604
 3378SOL     OW12030  12.778   0.373   3.722
 3378SOL    HW112031  12.792   0.279   3.727
 3378SOL    HW212032  12.706   0.390   3.783
 3379SOL     OW12033   5.892   7.181  13.799
 3379SOL    HW112034   5.910   7.098  13.754
 3379SOL    HW212035   5.885   7.246  13.730
 3380SOL     OW12036   5.719   3.146   3.284
 3380SOL    HW112037   5.727   3.163   3.190
 3380SOL    HW212038   5.751   3.057   3.295
 3381SOL     OW12039  12.066   8.267  11.556
 3381SOL    HW112040  12.035   8.327  11.487
 3381SOL    HW212041  12.053   8.316  11.637
 3382SOL     OW12042   5.140   9.743   2.775
 3382SOL    HW112043   5.110   9.718   2.688
 3382SOL    HW212044   5.068   9.794   2.812
 3383SOL     OW12045  11.337   1.605   6.025
 3383SOL    HW112046  11.311   1.669   6.091
 3383SOL    HW212047  11.420   1.570   6.057
 3384SOL     OW12048   6.364   2.251  11.511
 3384SOL    HW112049   6.401   2.327  11.556
 3384SOL    HW212050   6.392   2.261  11.420
 3385SOL     OW12051  13.144  12.236   1.796
 3385SOL    HW112052  13.124  12.194   1.712
 3385SOL    HW212053  13.237  12.255   1.792
 3386SOL     OW12054  13.441   7.819   5.946
 3386SOL    HW112055  13.512   7.802   5.884
 3386SOL    HW212056  13.456   7.908   5.976
 3387SOL     OW12057   6.993  11.037   2.151
 3387SOL    HW112058   7.002  10.986   2.232
 3387SOL    HW212059   6.974  10.973   2.083
 3388SOL     OW12060   4.080   3.317  12.131
 3388SOL    HW112061   4.087   3.334  12.225
 3388SOL    HW212062   3.986   3.305  12.116
 3389SOL     OW12063  13.276   4.692  10.788
 3389SOL    HW112064  13.281   4.643  10.706
 3389SOL    HW212065  13.214   4.763  10.770
 3390SOL     OW12066  12.518   6.653   4.545
 3390SOL    HW112067  12.490   6.737   4.509
 3390SOL    HW212068  12.444   6.624   4.597
 3391SOL     OW12069  10.580  14.456   4.164
 3391SOL    HW112070  10.618  14.474   4.078
 3391SOL    HW212071  10.640  14.497   4.226
 3392SOL     OW12072   0.562  14.191  11.435
 3392SOL    HW112073   0.590  14.101  11.451
 3392SOL    HW212074   0.571  14.234  11.521
 3393SOL     OW12075   4.692  12.217  10.329
 3393SOL    HW112076   4.696  12.130  10.370
 3393SOL    HW212077   4.675  12.199  10.237
 3394SOL     OW12078   1.292   8.166   0.025
 3394SOL    HW112079   1.199   8.183   0.041
 3394SOL    HW212080   1.312   8.216  14.821
 3395SOL     OW12081   5.125   1.223   4.646
 3395SOL    HW112082   5.206   1.179   4.670
 3395SOL    HW212083   5.152   1.309   4.613
 3396SOL     OW12084   7.406   5.692   5.882
 3396SOL    HW112085   7.441   5.754   5.946
 3396SOL    HW212086   7.332   5.737   5.842
 3397SOL     OW12087  11.052   1.125   0.734
 3397SOL    HW112088  11.031   1.206   0.688
 3397SOL    HW212089  11.142   1.106   0.708
 3398SOL     OW12090   6.206   4.781   3.233
 3398SOL    HW112091   6.123   4.733   3.225
 3398SOL    HW212092   6.196   4.834   3.312
 3399SOL     OW12093   3.987   8.379   5.914
 3399SOL    HW112094   3.992   8.415   5.825
 3399SOL    HW212095   4.055   8.311   5.916
 3400SOL     OW12096   1.721  11.769   8.463
 3400SOL    HW112097   1.675  11.687   8.481
 3400SOL    HW212098   1.802  11.742   8.418
 3401SOL     OW12099  10.423   7.384   1.446
 3401SOL    HW112100  10.474   7.311   1.411
 3401SOL    HW212101  10.416   7.367   1.539
 3402SOL     OW12102   2.219   2.698   0.613
 3402SOL    HW112103   2.298   2.656   0.647
 3402SOL    HW212104   2.204   2.656   0.528
 3403SOL     OW12105   7.446   3.077   0.708
 3403SOL    HW112106   7.469   3.069   0.801
 3403SOL    HW212107   7.351   3.086   0.708
 3404SOL     OW12108   3.357   2.403  11.317
 3404SOL    HW112109   3.414   2.409  11.394
 3404SOL    HW212110   3.405   2.346  11.256
 3405SOL     OW12111   5.795   4.274   4.042
 3405SOL    HW112112   5.812   4.338   3.973
 3405SOL    HW212113   5.818   4.190   4.003
 3406SOL     OW12114   8.484   0.640   1.810
 3406SOL    HW112115   8.443   0.568   1.859
 3406SOL    HW212116   8.542   0.682   1.874
 3407SOL     OW12117   4.628   9.390  10.575
 3407SOL    HW112118   4.647   9.296  10.564
 3407SOL    HW212119   4.643   9.406  10.668
 3408SOL     OW12120   3.446   1.035  13.254
 3408SOL    HW112121   3.429   1.056  13.345
 3408SOL    HW212122   3.541   1.043  13.245
 3409SOL     OW12123   8.748   9.087   1.648
 3409SOL    HW112124   8.759   9.039   1.566
 3409SOL    HW212125   8.837   9.107   1.677
 3410SOL     OW12126   7.704   6.534   0.562
 3410SOL    HW112127   7.627   6.504   0.610
 3410SOL    HW212128   7.751   6.454   0.538
 3411SOL     OW12129   8.728  13.619   2.865
 3411SOL    HW112130   8.761  13.708   2.874
 3411SOL    HW212131   8.701  13.612   2.773
 3412SOL     OW12132  10.730   0.852  12.941
 3412SOL    HW112133  10.796   0.921  12.950
 3412SOL    HW212134  10.781   0.770  12.944
 3413SOL     OW12135   0.896   4.347   4.155
 3413SOL    HW112136   0.918   4.321   4.066
 3413SOL    HW212137   0.965   4.309   4.209
 3414SOL     OW12138  11.221   7.956  14.775
 3414SOL    HW112139  11.152   8.009  14.734
 3414SOL    HW212140  11.174   7.884  14.818
 3415SOL     OW12141   2.552   6.358   2.668
 3415SOL    HW112142   2.483   6.422   2.652
 3415SOL    HW212143   2.506   6.274   2.675
 3416SOL     OW12144  10.881   4.407  11.228
 3416SOL    HW112145  10.917   4.364  11.306
 3416SOL    HW212146  10.877   4.500  11.251
 3417SOL     OW12147   7.584   9.253  14.170
 3417SOL    HW112148   7.494   9.226  14.187
 3417SOL    HW212149   7.614   9.194  14.102
 3418SOL     OW12150  11.099   5.301   9.293
 3418SOL    HW112151  11.053   5.338   9.217
 3418SOL    HW212152  11.190   5.293   9.264
 3419SOL     OW12153  13.762  14.532  10.179
 3419SOL    HW112154  13.794  14.580  10.103
 3419SOL    HW212155  13.830  14.544  10.246
 3420SOL     OW12156  11.931  13.333  14.583
 3420SOL    HW112157  11.943  13.333  14.678
 3420SOL    HW212158  11.836  13.326  14.571
 3421SOL     OW12159   0.750   1.645   5.035
 3421SOL    HW112160   0.707   1.689   5.109
 3421SOL    HW212161   0.688   1.653   4.963
 3422SOL     OW12162   9.813  11.806  11.370
 3422SOL    HW112163   9.825  11.815  11.276
 3422SOL    HW212164   9.757  11.880  11.395
 3423SOL     OW12165   4.209   2.054  11.034
 3423SOL    HW112166   4.249   1.997  11.100
 3423SOL    HW212167   4.281   2.079  10.977
 3424SOL     OW12168   2.922   5.225  13.008
 3424SOL    HW112169   2.850   5.259  13.062
 3424SOL    HW212170   2.970   5.303  12.981
 3425SOL     OW12171   7.448   5.933  13.326
 3425SOL    HW112172   7.471   5.855  13.275
 3425SOL    HW212173   7.447   6.004  13.261
 3426SOL     OW12174  12.021   6.771   3.808
 3426SOL    HW112175  12.109   6.764   3.846
 3426SOL    HW212176  11.968   6.711   3.861
 3427SOL     OW12177   8.797  12.490   4.423
 3427SOL    HW112178   8.840  12.507   4.507
 3427SOL    HW212179   8.846  12.544   4.360
 3428SOL     OW12180  12.020   7.350   6.585
 3428SOL    HW112181  12.074   7.388   6.516
 3428SOL    HW212182  12.082   7.316   6.649
 3429SOL     OW12183   4.036   3.711   2.953
 3429SOL    HW112184   3.953   3.670   2.977
 3429SOL    HW212185   4.094   3.692   3.026
 3430SOL     OW12186  10.955   9.772   0.210
 3430SOL    HW112187  10.977   9.803   0.298
 3430SOL    HW212188  10.892   9.701   0.225
 3431SOL     OW12189  11.050   8.973  11.537
 3431SOL    HW112190  11.067   9.040  11.471
 3431SOL    HW212191  11.105   8.899  11.512
 3432SOL     OW12192   0.312   1.638   4.090
 3432SOL    HW112193   0.262   1.719   4.082
 3432SOL    HW212194   0.320   1.605   4.001
 3433SOL     OW12195   8.274  14.586   9.411
 3433SOL    HW112196   8.273  14.637   9.329
 3433SOL    HW212197   8.360  14.546   9.413
 3434SOL     OW12198  13.642   9.469   4.565
 3434SOL    HW112199  13.554   9.432   4.562
 3434SOL    HW212200  13.699   9.396   4.543
 3435SOL     OW12201  12.755   0.975   2.739
 3435SOL    HW112202  12.718   0.906   2.795
 3435SOL    HW212203  12.735   0.946   2.650
 3436SOL     OW12204   9.993   6.858  13.260
 3436SOL    HW112205  10.078   6.888  13.227
 3436SOL    HW212206   9.987   6.896  13.347
 3437SOL     OW12207   4.949   8.491   1.642
 3437SOL    HW112208   4.912   8.513   1.728
 3437SOL    HW212209   4.894   8.537   1.579
 3438SOL     OW12210   2.744  14.624   8.905
 3438SOL    HW112211   2.820  14.566   8.898
 3438SOL    HW212212   2.670  14.570   8.880
 3439SOL     OW12213  11.957   4.821   2.674
 3439SOL    HW112214  11.888   4.756   2.656
 3439SOL    HW212215  12.029   4.793   2.618
 3440SOL     OW12216  14.752   0.905   2.105
 3440SOL    HW112217  14.661   0.932   2.097
 3440SOL    HW212218  14.796   0.945   2.030
 3441SOL     OW12219   0.751  13.738   8.671
 3441SOL    HW112220   0.689  13.672   8.639
 3441SOL    HW212221   0.836  13.709   8.638
 3442SOL     OW12222   6.010   8.174   0.175
 3442SOL    HW112223   6.084   8.140   0.125
 3442SOL    HW212224   5.981   8.251   0.127
 3443SOL     OW12225   7.042   0.881  10.427
 3443SOL    HW112226   7.054   0.940  10.352
 3443SOL    HW212227   6.949   0.858  10.425
 3444SOL     OW12228   1.836  10.780   8.283
 3444SOL    HW112229   1.908  10.826   8.326
 3444SOL    HW212230   1.862  10.688   8.284
 3445SOL     OW12231   0.256   4.408   4.521
 3445SOL    HW112232   0.272   4.399   4.615
 3445SOL    HW212233   0.340   4.439   4.486
 3446SOL     OW12234  12.911  13.900  14.203
 3446SOL    HW112235  12.823  13.864  14.217
 3446SOL    HW212236  12.916  13.914  14.109
 3447SOL     OW12237   1.499  13.411   4.764
 3447SOL    HW112238   1.449  13.371   4.835
 3447SOL    HW212239   1.570  13.350   4.747
 3448SOL     OW12240  14.060   4.624   5.450
 3448SOL    HW112241  14.068   4.674   5.532
 3448SOL    HW212242  14.144   4.581   5.441
 3449SOL     OW12243  13.339  10.486   1.978
 3449SOL    HW112244  13.379  10.490   2.064
 3449SOL    HW212245  13.409  10.457   1.919
 3450SOL     OW12246  11.475   7.842   5.081
 3450SOL    HW112247  11.507   7.761   5.122
 3450SOL    HW212248  11.554   7.885   5.048
 3451SOL     OW12249   1.217   3.294   1.093
 3451SOL    HW112250   1.126   3.277   1.065
 3451SOL    HW212251   1.233   3.385   1.067
 3452SOL     OW12252   6.540   7.173   4.581
 3452SOL    HW112253   6.549   7.224   4.500
 3452SOL    HW212254   6.592   7.221   4.646
 3453SOL     OW12255  12.474   4.324  10.905
 3453SOL    HW112256  12.413   4.278  10.848
 3453SOL    HW212257  12.552   4.339  10.850
 3454SOL     OW12258   9.220   8.614   2.223
 3454SOL    HW112259   9.306   8.597   2.185
 3454SOL    HW212260   9.227   8.581   2.313
 3455SOL     OW12261  13.471   5.818   8.066
 3455SOL    HW112262  13.536   5.765   8.020
 3455SOL    HW212263  13.386   5.784   8.035
 3456SOL     OW12264   5.433  10.666   2.481
 3456SOL    HW112265   5.347  10.635   2.451
 3456SOL    HW212266   5.493  10.640   2.411
 3457SOL     OW12267   2.481   9.493   6.077
 3457SOL    HW112268   2.424   9.417   6.075
 3457SOL    HW212269   2.422   9.568   6.070
 3458SOL     OW12270   8.298  11.011  10.781
 3458SOL    HW112271   8.357  11.000  10.856
 3458SOL    HW212272   8.357  11.026  10.707
 3459SOL     OW12273   8.920   1.583   4.835
 3459SOL    HW112274   8.901   1.490   4.823
 3459SOL    HW212275   8.923   1.619   4.746
 3460SOL     OW12276   0.252  12.339   5.486
 3460SOL    HW112277   0.290  12.260   5.448
 3460SOL    HW212278   0.160  12.337   5.459
 3461SOL     OW12279   2.356  11.159   2.821
 3461SOL    HW112280   2.419  11.143   2.891
 3461SOL    HW212281   2.408  11.200   2.751
 3462SOL     OW12282  13.409  10.372   0.064
 3462SOL    HW112283  13.390  10.362  14.846
 3462SOL    HW212284  13.329  10.343   0.108
 3463SOL     OW12285  11.883   3.966  11.387
 3463SOL    HW112286  11.866   4.002  11.474
 3463SOL    HW212287  11.963   4.010  11.358
 3464SOL     OW12288   5.052   6.009   8.251
 3464SOL    HW112289   5.116   5.970   8.310
 3464SOL    HW212290   4.984   5.942   8.242
 3465SOL     OW12291   6.119  14.344   4.511
 3465SOL    HW112292   6.177  14.420   4.503
 3465SOL    HW212293   6.169  14.282   4.565
 3466SOL     OW12294   5.355   0.336  11.547
 3466SOL    HW112295   5.389   0.261  11.499
 3466SOL    HW212296   5.266   0.311  11.571
 3467SOL     OW12297  12.694   1.371   7.834
 3467SOL    HW112298  12.777   1.379   7.881
 3467SOL    HW212299  12.684   1.278   7.817
 3468SOL     OW12300   8.697   5.736   4.324
 3468SOL    HW112301   8.614   5.727   4.277
 3468SOL    HW212302   8.714   5.648   4.359
 3469SOL     OW12303  12.772  13.297   2.840
 3469SOL    HW112304  12.834  13.355   2.795
 3469SOL    HW212305  12.689  13.345   2.839
 3470SOL     OW12306  10.251   6.109   4.336
 3470SOL    HW112307  10.208   6.184   4.378
 3470SOL    HW212308  10.315   6.079   4.401
 3471SOL     OW12309   6.867   0.641  10.843
 3471SOL    HW112310   6.959   0.618  10.855
 3471SOL    HW212311   6.845   0.607  10.756
 3472SOL     OW12312   2.376   0.208   7.625
 3472SOL    HW112313   2.414   0.128   7.589
 3472SOL    HW212314   2.320   0.179   7.696
 3473SOL     OW12315   2.322   0.743   4.367
 3473SOL    HW112316   2.334   0.792   4.449
 3473SOL    HW212317   2.411   0.722   4.339
 3474SOL     OW12318   0.365  14.411   5.596
 3474SOL    HW112319   0.380  14.429   5.689
 3474SOL    HW212320   0.282  14.362   5.595
 3475SOL     OW12321   6.006   7.274   5.502
 3475SOL    HW112322   6.036   7.200   5.555
 3475SOL    HW212323   6.086   7.309   5.461
 3476SOL     OW12324   1.253   2.696  10.880
 3476SOL    HW112325   1.283   2.612  10.917
 3476SOL    HW212326   1.221   2.674  10.793
 3477SOL     OW12327  10.396  11.315   0.552
 3477SOL    HW112328  10.419  11.338   0.642
 3477SOL    HW212329  10.305  11.342   0.543
 3478SOL     OW12330  11.471  14.053   0.640
 3478SOL    HW112331  11.397  14.113   0.646
 3478SOL    HW212332  11.548  14.109   0.652
 3479SOL     OW12333   4.701  14.070  13.297
 3479SOL    HW112334   4.774  14.010  13.281
 3479SOL    HW212335   4.684  14.111  13.212
 3480SOL     OW12336   2.800   4.624  14.679
 3480SOL    HW112337   2.726   4.573  14.646
 3480SOL    HW212338   2.863   4.557  14.707
 3481SOL     OW12339   5.477  11.938   8.284
 3481SOL    HW112340   5.388  11.928   8.317
 3481SOL    HW212341   5.530  11.958   8.361
 3482SOL     OW12342   6.780  13.357   0.105
 3482SOL    HW112343   6.804  13.264   0.104
 3482SOL    HW212344   6.687  13.358   0.080
 3483SOL     OW12345   4.252   4.435  10.634
 3483SOL    HW112346   4.270   4.341  10.621
 3483SOL    HW212347   4.239   4.469  10.546
 3484SOL     OW12348   8.207   6.536   2.798
 3484SOL    HW112349   8.144   6.477   2.840
 3484SOL    HW212350   8.253   6.482   2.735
 3485SOL     OW12351  14.007   0.655  10.655
 3485SOL    HW112352  13.922   0.699  10.644
 3485SOL    HW212353  13.994   0.598  10.731
 3486SOL     OW12354  14.153   1.064   9.741
 3486SOL    HW112355  14.204   0.995   9.699
 3486SOL    HW212356  14.178   1.145   9.697
 3487SOL     OW12357  13.811   3.952  13.594
 3487SOL    HW112358  13.864   3.933  13.517
 3487SOL    HW212359  13.754   4.024  13.568
 3488SOL     OW12360   6.319  13.784   0.196
 3488SOL    HW112361   6.345  13.696   0.167
 3488SOL    HW212362   6.371  13.800   0.275
 3489SOL     OW12363   2.016   3.321  12.876
 3489SOL    HW112364   2.106   3.310  12.846
 3489SOL    HW212365   1.997   3.239  12.922
 3490SOL     OW12366   3.442   5.793   0.168
 3490SOL    HW112367   3.522   5.770   0.120
 3490SOL    HW212368   3.466   5.870   0.219
 3491SOL     OW12369  12.212  13.839   4.641
 3491SOL    HW112370  12.219  13.911   4.703
 3491SOL    HW212371  12.290  13.786   4.658
 3492SOL     OW12372  10.770   4.622   9.006
 3492SOL    HW112373  10.748   4.619   8.913
 3492SOL    HW212374  10.816   4.706   9.017
 3493SOL     OW12375   7.318   2.911  11.487
 3493SOL    HW112376   7.376   2.838  11.463
 3493SOL    HW212377   7.270   2.931  11.407
 3494SOL     OW12378   9.168   0.871   6.468
 3494SOL    HW112379   9.129   0.886   6.381
 3494SOL    HW212380   9.101   0.902   6.529
 3495SOL     OW12381   6.319   8.444  11.785
 3495SOL    HW112382   6.392   8.487  11.740
 3495SOL    HW212383   6.360   8.371  11.832
 3496SOL     OW12384  13.187   2.573   3.144
 3496SOL    HW112385  13.106   2.523   3.142
 3496SOL    HW212386  13.164   2.658   3.106
 3497SOL     OW12387   2.845   2.105   9.240
 3497SOL    HW112388   2.863   2.097   9.146
 3497SOL    HW212389   2.902   2.175   9.270
 3498SOL     OW12390   5.834   6.366   6.188
 3498SOL    HW112391   5.773   6.423   6.235
 3498SOL    HW212392   5.782   6.328   6.117
 3499SOL     OW12393   0.028   0.483   0.845
 3499SOL    HW112394   0.077   0.534   0.909
 3499SOL    HW212395   0.037   0.392   0.873
 3500SOL     OW12396   8.829   0.431   0.859
 3500SOL    HW112397   8.764   0.375   0.818
 3500SOL    HW212398   8.782   0.477   0.929
 3501SOL     OW12399   9.211   2.335   1.038
 3501SOL    HW112400   9.276   2.284   1.086
 3501SOL    HW212401   9.249   2.423   1.032
 3502SOL     OW12402   4.367   3.432   5.766
 3502SOL    HW112403   4.301   3.380   5.812
 3502SOL    HW212404   4.449   3.385   5.778
 3503SOL     OW12405   7.254   6.905   9.642
 3503SOL    HW112406   7.272   6.958   9.565
 3503SOL    HW212407   7.274   6.962   9.716
 3504SOL     OW12408   2.054   0.439   6.173
 3504SOL    HW112409   2.040   0.372   6.106
 3504SOL    HW212410   2.073   0.390   6.253
 3505SOL     OW12411   5.565   4.548   6.092
 3505SOL    HW112412   5.598   4.618   6.035
 3505SOL    HW212413   5.471   4.544   6.073
 3506SOL     OW12414   6.742   7.170  10.000
 3506SOL    HW112415   6.836   7.185  10.010
 3506SOL    HW212416   6.736   7.084   9.959
 3507SOL     OW12417   9.489   4.781   0.017
 3507SOL    HW112418   9.513   4.851   0.078
 3507SOL    HW212419   9.454   4.826  14.816
 3508SOL     OW12420   3.034   7.544   9.087
 3508SOL    HW112421   3.113   7.580   9.045
 3508SOL    HW212422   2.985   7.622   9.114
 3509SOL     OW12423   9.176   7.647  10.211
 3509SOL    HW112424   9.105   7.613  10.266
 3509SOL    HW212425   9.254   7.640  10.265
 3510SOL     OW12426   8.382  14.367  10.400
 3510SOL    HW112427   8.365  14.427  10.472
 3510SOL    HW212428   8.448  14.307  10.435
 3511SOL     OW12429   5.226   1.856   9.400
 3511SOL    HW112430   5.294   1.868   9.466
 3511SOL    HW212431   5.274   1.831   9.321
 3512SOL     OW12432   8.779  14.788   1.955
 3512SOL    HW112433   8.802  14.863   2.010
 3512SOL    HW212434   8.852  14.727   1.964
 3513SOL     OW12435  10.959  11.067   4.310
 3513SOL    HW112436  11.037  11.032   4.352
 3513SOL    HW212437  10.991  11.144   4.262
 3514SOL     OW12438   0.589  10.559   7.922
 3514SOL    HW112439   0.657  10.596   7.978
 3514SOL    HW212440   0.525  10.629   7.912
 3515SOL     OW12441   0.593   8.969   6.107
 3515SOL    HW112442   0.584   8.948   6.014
 3515SOL    HW212443   0.618   8.887   6.148
 3516SOL     OW12444   0.540  14.470  11.717
 3516SOL    HW112445   0.588  14.495  11.638
 3516SOL    HW212446   0.546  14.375  11.720
 3517SOL     OW12447   8.442   2.710  13.458
 3517SOL    HW112448   8.389   2.733  13.534
 3517SOL    HW212449   8.459   2.617  13.468
 3518SOL     OW12450   7.940   5.491   8.867
 3518SOL    HW112451   8.030   5.489   8.898
 3518SOL    HW212452   7.887   5.492   8.947
 3519SOL     OW12453  10.212   6.669  10.942
 3519SOL    HW112454  10.195   6.575  10.931
 3519SOL    HW212455  10.283   6.688  10.882
 3520SOL     OW12456  11.075   7.574  10.523
 3520SOL    HW112457  11.036   7.529  10.448
 3520SOL    HW212458  11.051   7.520  10.599
 3521SOL     OW12459   3.832   1.022  12.505
 3521SOL    HW112460   3.738   1.003  12.509
 3521SOL    HW212461   3.874   0.936  12.503
 3522SOL     OW12462   2.805   5.951   7.573
 3522SOL    HW112463   2.896   5.936   7.550
 3522SOL    HW212464   2.791   5.900   7.652
 3523SOL     OW12465   3.478  10.570   2.626
 3523SOL    HW112466   3.458  10.664   2.629
 3523SOL    HW212467   3.435  10.534   2.704
 3524SOL     OW12468   7.161   7.022   9.151
 3524SOL    HW112469   7.169   6.951   9.087
 3524SOL    HW212470   7.123   6.980   9.228
 3525SOL     OW12471   4.798   7.874   7.788
 3525SOL    HW112472   4.753   7.948   7.830
 3525SOL    HW212473   4.762   7.872   7.699
 3526SOL     OW12474  11.341   1.800   9.299
 3526SOL    HW112475  11.359   1.716   9.257
 3526SOL    HW212476  11.290   1.848   9.234
 3527SOL     OW12477   7.432   7.622  14.452
 3527SOL    HW112478   7.417   7.621  14.547
 3527SOL    HW212479   7.523   7.593  14.442
 3528SOL     OW12480   9.049  10.539   8.590
 3528SOL    HW112481   9.000  10.499   8.519
 3528SOL    HW212482   9.121  10.586   8.547
 3529SOL     OW12483  13.022  12.633   0.406
 3529SOL    HW112484  13.078  12.607   0.479
 3529SOL    HW212485  13.072  12.699   0.359
 3530SOL     OW12486   0.548   5.066   3.298
 3530SOL    HW112487   0.642   5.050   3.308
 3530SOL    HW212488   0.534   5.072   3.204
 3531SOL     OW12489   0.739   1.033  12.638
 3531SOL    HW112490   0.689   1.040  12.719
 3531SOL    HW212491   0.823   1.076  12.658
 3532SOL     OW12492   2.309   8.029   9.331
 3532SOL    HW112493   2.225   8.053   9.291
 3532SOL    HW212494   2.356   7.984   9.261
 3533SOL     OW12495  14.422   7.143   3.173
 3533SOL    HW112496  14.494   7.126   3.111
 3533SOL    HW212497  14.389   7.056   3.195
 3534SOL     OW12498  12.071   2.564   7.134
 3534SOL    HW112499  12.122   2.608   7.202
 3534SOL    HW212500  11.998   2.524   7.182
 3535SOL     OW12501   8.116   0.453  14.382
 3535SOL    HW112502   8.104   0.499  14.299
 3535SOL    HW212503   8.202   0.481  14.414
 3536SOL     OW12504   3.708   3.424   4.172
 3536SOL    HW112505   3.719   3.515   4.199
 3536SOL    HW212506   3.616   3.405   4.189
 3537SOL     OW12507   2.996   8.919   0.665
 3537SOL    HW112508   2.983   8.980   0.739
 3537SOL    HW212509   2.990   8.832   0.704
 3538SOL     OW12510   2.053   3.964   2.599
 3538SOL    HW112511   1.998   3.982   2.523
 3538SOL    HW212512   2.025   4.029   2.664
 3539SOL     OW12513  11.998   8.747   2.208
 3539SOL    HW112514  11.913   8.790   2.209
 3539SOL    HW212515  11.977   8.653   2.204
 3540SOL     OW12516   4.913   8.762   4.045
 3540SOL    HW112517   4.884   8.832   3.986
 3540SOL    HW212518   4.847   8.693   4.033
 3541SOL     OW12519   8.228   1.612   5.730
 3541SOL    HW112520   8.288   1.550   5.772
 3541SOL    HW212521   8.233   1.690   5.785
 3542SOL     OW12522  11.507   2.385   5.382
 3542SOL    HW112523  11.507   2.348   5.470
 3542SOL    HW212524  11.501   2.480   5.396
 3543SOL     OW12525   7.629  10.269   8.313
 3543SOL    HW112526   7.655  10.196   8.370
 3543SOL    HW212527   7.624  10.344   8.372
 3544SOL     OW12528   8.498   6.475   4.071
 3544SOL    HW112529   8.571   6.527   4.102
 3544SOL    HW212530   8.432   6.481   4.141
 3545SOL     OW12531   3.897  11.865   5.962
 3545SOL    HW112532   3.957  11.929   6.001
 3545SOL    HW212533   3.938  11.841   5.879
 3546SOL     OW12534   1.010  11.350  13.294
 3546SOL    HW112535   1.070  11.275  13.292
 3546SOL    HW212536   1.046  11.406  13.363
 3547SOL     OW12537  14.265  13.159   8.576
 3547SOL    HW112538  14.201  13.118   8.634
 3547SOL    HW212539  14.297  13.236   8.624
 3548SOL     OW12540  12.430   0.062  13.144
 3548SOL    HW112541  12.481   0.137  13.172
 3548SOL    HW212542  12.482   0.022  13.075
 3549SOL     OW12543  11.594   8.700   7.684
 3549SOL    HW112544  11.536   8.771   7.709
 3549SOL    HW212545  11.536   8.626   7.668
 3550SOL     OW12546   0.174  12.333   3.366
 3550SOL    HW112547   0.100  12.273   3.370
 3550SOL    HW212548   0.241  12.293   3.423
 3551SOL     OW12549  11.637   5.183   7.385
 3551SOL    HW112550  11.682   5.191   7.469
 3551SOL    HW212551  11.593   5.267   7.374
 3552SOL     OW12552  12.676  10.090   7.292
 3552SOL    HW112553  12.671  10.181   7.262
 3552SOL    HW212554  12.734  10.094   7.368
 3553SOL     OW12555   4.414  13.956   0.413
 3553SOL    HW112556   4.348  13.999   0.359
 3553SOL    HW212557   4.364  13.916   0.485
 3554SOL     OW12558   1.713   1.112  12.065
 3554SOL    HW112559   1.647   1.060  12.111
 3554SOL    HW212560   1.795   1.065  12.080
 3555SOL     OW12561   5.328  12.260   2.850
 3555SOL    HW112562   5.337  12.182   2.906
 3555SOL    HW212563   5.282  12.228   2.772
 3556SOL     OW12564   2.791   7.888   3.512
 3556SOL    HW112565   2.768   7.875   3.420
 3556SOL    HW212566   2.716   7.936   3.548
 3557SOL     OW12567  12.986  12.278   4.148
 3557SOL    HW112568  12.926  12.343   4.186
 3557SOL    HW212569  13.003  12.217   4.219
 3558SOL     OW12570   3.329  14.316   6.725
 3558SOL    HW112571   3.387  14.240   6.728
 3558SOL    HW212572   3.299  14.327   6.816
 3559SOL     OW12573   6.587   0.796   3.290
 3559SOL    HW112574   6.537   0.721   3.259
 3559SOL    HW212575   6.615   0.771   3.378
 3560SOL     OW12576  10.275  10.289   6.789
 3560SOL    HW112577  10.227  10.209   6.769
 3560SOL    HW212578  10.364  10.260   6.808
 3561SOL     OW12579  14.780  10.725   4.215
 3561SOL    HW112580  14.696  10.724   4.170
 3561SOL    HW212581  14.843  10.750   4.147
 3562SOL     OW12582  11.599   7.575   4.898
 3562SOL    HW112583  11.672   7.637   4.892
 3562SOL    HW212584  11.619   7.507   4.834
 3563SOL     OW12585   8.939  11.132  11.955
 3563SOL    HW112586   8.864  11.177  11.993
 3563SOL    HW212587   9.012  11.155  12.013
 3564SOL     OW12588   5.088  14.469   6.791
 3564SOL    HW112589   5.109  14.425   6.709
 3564SOL    HW212590   5.119  14.409   6.859
 3565SOL     OW12591   0.855  12.243   4.949
 3565SOL    HW112592   0.832  12.170   5.007
 3565SOL    HW212593   0.861  12.318   5.008
 3566SOL     OW12594   4.344  13.117   9.602
 3566SOL    HW112595   4.252  13.094   9.590
 3566SOL    HW212596   4.391  13.036   9.584
 3567SOL     OW12597   9.736   6.042   9.220
 3567SOL    HW112598   9.796   5.976   9.256
 3567SOL    HW212599   9.649   6.013   9.247
 3568SOL     OW12600  10.598   3.636  11.629
 3568SOL    HW112601  10.527   3.675  11.681
 3568SOL    HW212602  10.625   3.705  11.569
 3569SOL     OW12603  14.716   9.652   9.391
 3569SOL    HW112604  14.738   9.619   9.478
 3569SOL    HW212605  14.621   9.659   9.391
 3570SOL     OW12606   2.183   0.683  14.076
 3570SOL    HW112607   2.189   0.759  14.134
 3570SOL    HW212608   2.183   0.608  14.135
 3571SOL     OW12609   8.727  13.253   9.166
 3571SOL    HW112610   8.758  13.315   9.099
 3571SOL    HW212611   8.638  13.231   9.138
 3572SOL     OW12612   8.216   1.653   3.375
 3572SOL    HW112613   8.284   1.659   3.442
 3572SOL    HW212614   8.139   1.621   3.422
 3573SOL     OW12615   3.354   2.087   2.133
 3573SOL    HW112616   3.307   2.053   2.057
 3573SOL    HW212617   3.363   2.181   2.116
 3574SOL     OW12618   7.889   2.386  12.243
 3574SOL    HW112619   7.946   2.354  12.312
 3574SOL    HW212620   7.902   2.481  12.243
 3575SOL     OW12621   0.970   6.150  11.604
 3575SOL    HW112622   0.992   6.162  11.696
 3575SOL    HW212623   0.946   6.237  11.573
 3576SOL     OW12624   6.834   0.095  10.978
 3576SOL    HW112625   6.883   0.014  10.972
 3576SOL    HW212626   6.765   0.076  11.043
 3577SOL     OW12627   5.492   7.135   1.804
 3577SOL    HW112628   5.411   7.137   1.752
 3577SOL    HW212629   5.512   7.042   1.813
 3578SOL     OW12630  13.359   8.847  11.573
 3578SOL    HW112631  13.272   8.887  11.580
 3578SOL    HW212632  13.391   8.875  11.487
 3579SOL     OW12633  14.540  11.021   8.437
 3579SOL    HW112634  14.501  11.108   8.432
 3579SOL    HW212635  14.606  11.028   8.505
 3580SOL     OW12636   6.899   0.866  10.140
 3580SOL    HW112637   6.811   0.838  10.116
 3580SOL    HW212638   6.887   0.954  10.176
 3581SOL     OW12639   8.338   9.024   2.497
 3581SOL    HW112640   8.422   9.064   2.519
 3581SOL    HW212641   8.333   9.026   2.402
 3582SOL     OW12642  13.350   2.649  11.167
 3582SOL    HW112643  13.432   2.691  11.140
 3582SOL    HW212644  13.305   2.629  11.085
 3583SOL     OW12645  10.880  13.393  11.134
 3583SOL    HW112646  10.951  13.341  11.172
 3583SOL    HW212647  10.808  13.330  11.124
 3584SOL     OW12648   3.098   6.706   4.346
 3584SOL    HW112649   3.015   6.699   4.393
 3584SOL    HW212650   3.128   6.616   4.337
 3585SOL     OW12651  10.631  11.352   3.753
 3585SOL    HW112652  10.650  11.351   3.659
 3585SOL    HW212653  10.644  11.444   3.779
 3586SOL     OW12654  14.061  12.844  10.643
 3586SOL    HW112655  13.981  12.815  10.598
 3586SOL    HW212656  14.132  12.810  10.588
 3587SOL     OW12657   1.341   4.380  10.586
 3587SOL    HW112658   1.416   4.359  10.642
 3587SOL    HW212659   1.362   4.466  10.549
 3588SOL     OW12660   1.811   8.573   6.301
 3588SOL    HW112661   1.843   8.638   6.363
 3588SOL    HW212662   1.733   8.537   6.342
 3589SOL     OW12663   7.302   0.482   6.145
 3589SOL    HW112664   7.375   0.544   6.154
 3589SOL    HW212665   7.307   0.454   6.053
 3590SOL     OW12666   4.962   3.338   7.818
 3590SOL    HW112667   5.049   3.356   7.783
 3590SOL    HW212668   4.934   3.421   7.858
 3591SOL     OW12669   5.140   1.081  12.647
 3591SOL    HW112670   5.217   1.060  12.699
 3591SOL    HW212671   5.171   1.080  12.556
 3592SOL     OW12672   0.689   0.078   0.268
 3592SOL    HW112673   0.757   0.098   0.204
 3592SOL    HW212674   0.736   0.040   0.342
 3593SOL     OW12675  14.392  11.456   0.241
 3593SOL    HW112676  14.430  11.540   0.212
 3593SOL    HW212677  14.320  11.440   0.180
 3594SOL     OW12678   8.299  10.416  11.342
 3594SOL    HW112679   8.308  10.511  11.344
 3594SOL    HW212680   8.357  10.385  11.411
 3595SOL     OW12681  14.796   8.284   2.690
 3595SOL    HW112682  14.711   8.320   2.663
 3595SOL    HW212683  14.804   8.203   2.641
 3596SOL     OW12684   9.341   3.306   7.043
 3596SOL    HW112685   9.334   3.254   7.124
 3596SOL    HW212686   9.262   3.284   6.994
 3597SOL     OW12687   1.098   7.031   2.814
 3597SOL    HW112688   1.041   7.046   2.739
 3597SOL    HW212689   1.157   6.961   2.786
 3598SOL     OW12690   5.481   2.793  12.922
 3598SOL    HW112691   5.527   2.783  12.839
 3598SOL    HW212692   5.389   2.806  12.898
 3599SOL     OW12693   8.333   7.045  14.638
 3599SOL    HW112694   8.346   7.138  14.621
 3599SOL    HW212695   8.316   7.039  14.732
 3600SOL     OW12696  10.101  14.365  10.817
 3600SOL    HW112697  10.022  14.394  10.771
 3600SOL    HW212698  10.069  14.301  10.881
 3601SOL     OW12699  11.129   1.057   6.070
 3601SOL    HW112700  11.038   1.090   6.070
 3601SOL    HW212701  11.123   0.971   6.111
 3602SOL     OW12702   8.311   8.316  13.302
 3602SOL    HW112703   8.237   8.255  13.296
 3602SOL    HW212704   8.334   8.316  13.395
 3603SOL     OW12705   9.398  12.691   4.559
 3603SOL    HW112706   9.428  12.609   4.597
 3603SOL    HW212707   9.406  12.678   4.465
 3604SOL     OW12708   5.701   5.123   9.708
 3604SOL    HW112709   5.788   5.155   9.730
 3604SOL    HW212710   5.708   5.028   9.715
 3605SOL     OW12711   3.793   5.605  10.057
 3605SOL    HW112712   3.829   5.532  10.107
 3605SOL    HW212713   3.860   5.625   9.992
 3606SOL     OW12714   2.588   9.301   1.672
 3606SOL    HW112715   2.660   9.333   1.726
 3606SOL    HW212716   2.603   9.206   1.667
 3607SOL     OW12717   5.423   8.607  11.522
 3607SOL    HW112718   5.423   8.526  11.472
 3607SOL    HW212719   5.471   8.585  11.602
 3608SOL     OW12720   0.516   6.660   0.058
 3608SOL    HW112721   0.491   6.575   0.095
 3608SOL    HW212722   0.598   6.682   0.100
 3609SOL     OW12723   9.083  11.665   7.592
 3609SOL    HW112724   9.148  11.705   7.534
 3609SOL    HW212725   9.088  11.571   7.571
 3610SOL     OW12726   8.275  11.515  10.597
 3610SOL    HW112727   8.277  11.447  10.530
 3610SOL    HW212728   8.191  11.503  10.641
 3611SOL     OW12729   1.707   4.386   4.609
 3611SOL    HW112730   1.705   4.369   4.703
 3611SOL    HW212731   1.628   4.345   4.575
 3612SOL     OW12732  10.436   4.494   6.574
 3612SOL    HW112733  10.451   4.583   6.606
 3612SOL    HW212734  10.411   4.444   6.652
 3613SOL     OW12735   0.742   1.867   9.227
 3613SOL    HW112736   0.694   1.934   9.277
 3613SOL    HW212737   0.693   1.859   9.145
 3614SOL     OW12738   3.468   2.247   8.726
 3614SOL    HW112739   3.502   2.260   8.637
 3614SOL    HW212740   3.532   2.289   8.783
 3615SOL     OW12741   7.978  10.078  14.264
 3615SOL    HW112742   7.929  10.002  14.296
 3615SOL    HW212743   7.965  10.145  14.331
 3616SOL     OW12744   2.877  12.349   0.771
 3616SOL    HW112745   2.835  12.301   0.699
 3616SOL    HW212746   2.847  12.305   0.850
 3617SOL     OW12747   4.173   3.594   4.978
 3617SOL    HW112748   4.195   3.546   5.058
 3617SOL    HW212749   4.104   3.542   4.937
 3618SOL     OW12750  14.519   4.525   4.827
 3618SOL    HW112751  14.473   4.583   4.888
 3618SOL    HW212752  14.502   4.437   4.859
 3619SOL     OW12753   7.233   6.491  11.421
 3619SOL    HW112754   7.149   6.463  11.456
 3619SOL    HW212755   7.298   6.452  11.480
 3620SOL     OW12756   4.261   6.980   1.372
 3620SOL    HW112757   4.180   6.967   1.322
 3620SOL    HW212758   4.329   6.992   1.306
 3621SOL     OW12759  11.225   8.463  12.898
 3621SOL    HW112760  11.301   8.474  12.955
 3621SOL    HW212761  11.247   8.513  12.819
 3622SOL     OW12762   5.193  13.549   8.859
 3622SOL    HW112763   5.265  13.539   8.797
 3622SOL    HW212764   5.195  13.641   8.884
 3623SOL     OW12765   2.719   7.528   5.980
 3623SOL    HW112766   2.806   7.558   5.953
 3623SOL    HW212767   2.688   7.475   5.906
 3624SOL     OW12768  13.023   3.748   6.162
 3624SOL    HW112769  12.938   3.719   6.194
 3624SOL    HW212770  13.041   3.691   6.087
 3625SOL     OW12771   4.050   6.863  14.139
 3625SOL    HW112772   4.127   6.807  14.130
 3625SOL    HW212773   4.076   6.928  14.205
 3626SOL     OW12774   6.472   6.237   9.325
 3626SOL    HW112775   6.456   6.143   9.338
 3626SOL    HW212776   6.448   6.276   9.409
 3627SOL     OW12777   1.497   8.754  10.618
 3627SOL    HW112778   1.507   8.810  10.541
 3627SOL    HW212779   1.569   8.778  10.675
 3628SOL     OW12780  14.406  10.471   5.957
 3628SOL    HW112781  14.370  10.451   5.871
 3628SOL    HW212782  14.417  10.566   5.958
 3629SOL     OW12783  12.840  12.605  12.263
 3629SOL    HW112784  12.749  12.606  12.293
 3629SOL    HW212785  12.837  12.640  12.174
 3630SOL     OW12786   3.303   9.355   4.834
 3630SOL    HW112787   3.314   9.359   4.929
 3630SOL    HW212788   3.365   9.419   4.800
 3631SOL     OW12789   4.074  10.222  11.230
 3631SOL    HW112790   4.117  10.165  11.294
 3631SOL    HW212791   4.090  10.311  11.263
 3632SOL     OW12792   8.979  11.245  13.527
 3632SOL    HW112793   8.941  11.181  13.587
 3632SOL    HW212794   9.000  11.320  13.583
 3633SOL     OW12795   6.393   4.903  11.694
 3633SOL    HW112796   6.321   4.956  11.659
 3633SOL    HW212797   6.383   4.910  11.789
 3634SOL     OW12798   0.813  14.720  10.147
 3634SOL    HW112799   0.748  14.783  10.177
 3634SOL    HW212800   0.883  14.725  10.212
 3635SOL     OW12801   1.497   0.681   9.856
 3635SOL    HW112802   1.436   0.641   9.793
 3635SOL    HW212803   1.572   0.707   9.803
 3636SOL     OW12804   8.591  12.674  12.868
 3636SOL    HW112805   8.629  12.678  12.956
 3636SOL    HW212806   8.533  12.598  12.870
 3637SOL     OW12807  11.673  11.935   7.908
 3637SOL    HW112808  11.662  12.006   7.845
 3637SOL    HW212809  11.687  11.857   7.855
 3638SOL     OW12810  10.724   2.448  11.826
 3638SOL    HW112811  10.695   2.397  11.902
 3638SOL    HW212812  10.671   2.528  11.828
 3639SOL     OW12813   3.956  11.909  13.720
 3639SOL    HW112814   3.863  11.923  13.704
 3639SOL    HW212815   3.966  11.814  13.720
 3640SOL     OW12816  13.749  12.827   0.771
 3640SOL    HW112817  13.789  12.762   0.714
 3640SOL    HW212818  13.747  12.908   0.720
 3641SOL     OW12819  10.273  12.157   2.219
 3641SOL    HW112820  10.363  12.129   2.234
 3641SOL    HW212821  10.233  12.159   2.305
 3642SOL     OW12822  10.744  14.742  10.775
 3642SOL    HW112823  10.777  14.762  10.687
 3642SOL    HW212824  10.792  14.801  10.832
 3643SOL     OW12825  11.862   5.320   5.954
 3643SOL    HW112826  11.868   5.250   5.889
 3643SOL    HW212827  11.861   5.275   6.038
 3644SOL     OW12828   8.879   9.468   0.114
 3644SOL    HW112829   8.830   9.390   0.087
 3644SOL    HW212830   8.832   9.500   0.192
 3645SOL     OW12831   9.028   3.307   4.032
 3645SOL    HW112832   9.117   3.277   4.016
 3645SOL    HW212833   9.038   3.398   4.062
 3646SOL     OW12834   2.207  13.199   3.842
 3646SOL    HW112835   2.185  13.256   3.768
 3646SOL    HW212836   2.302  13.192   3.841
 3647SOL     OW12837  13.478   7.949   4.611
 3647SOL    HW112838  13.394   7.960   4.655
 3647SOL    HW212839  13.488   7.855   4.600
 3648SOL     OW12840  14.504   4.097   7.457
 3648SOL    HW112841  14.450   4.176   7.448
 3648SOL    HW212842  14.525   4.093   7.550
 3649SOL     OW12843   6.855  10.793   9.932
 3649SOL    HW112844   6.901  10.710   9.919
 3649SOL    HW212845   6.774  10.769   9.976
 3650SOL     OW12846  10.096   9.861   4.618
 3650SOL    HW112847  10.072   9.775   4.586
 3650SOL    HW212848  10.191   9.861   4.619
 3651SOL     OW12849  12.490   6.734   7.569
 3651SOL    HW112850  12.582   6.709   7.575
 3651SOL    HW212851  12.442   6.653   7.587
 3652SOL     OW12852   4.559   8.737   0.538
 3652SOL    HW112853   4.567   8.811   0.478
 3652SOL    HW212854   4.467   8.738   0.566
 3653SOL     OW12855   1.679   0.557   5.983
 3653SOL    HW112856   1.762   0.560   6.031
 3653SOL    HW212857   1.705   0.568   5.891
 3654SOL     OW12858  10.110  13.664   2.345
 3654SOL    HW112859  10.140  13.574   2.337
 3654SOL    HW212860  10.025  13.665   2.301
 3655SOL     OW12861   5.298   2.728   8.424
 3655SOL    HW112862   5.383   2.769   8.410
 3655SOL    HW212863   5.277   2.746   8.516
 3656SOL     OW12864   1.745   1.087   9.726
 3656SOL    HW112865   1.735   1.175   9.762
 3656SOL    HW212866   1.700   1.090   9.642
 3657SOL     OW12867  10.809   9.858   2.938
 3657SOL    HW112868  10.844   9.887   3.023
 3657SOL    HW212869  10.780   9.939   2.895
 3658SOL     OW12870   9.334  13.617   7.438
 3658SOL    HW112871   9.321  13.712   7.434
 3658SOL    HW212872   9.363  13.601   7.528
 3659SOL     OW12873  10.398   2.048  13.339
 3659SOL    HW112874  10.353   2.103  13.275
 3659SOL    HW212875  10.451   1.988  13.286
 3660SOL     OW12876   6.162  13.871   6.673
 3660SOL    HW112877   6.127  13.798   6.724
 3660SOL    HW212878   6.086  13.924   6.651
 3661SOL     OW12879  10.310   3.111   9.539
 3661SOL    HW112880  10.341   3.181   9.482
 3661SOL    HW212881  10.256   3.055   9.483
 3662SOL     OW12882   9.459  13.250   5.546
 3662SOL    HW112883   9.420  13.209   5.623
 3662SOL    HW212884   9.540  13.289   5.579
 3663SOL     OW12885  10.265  11.092   6.426
 3663SOL    HW112886  10.332  11.055   6.369
 3663SOL    HW212887  10.306  11.097   6.512
 3664SOL     OW12888   5.666   1.270   2.703
 3664SOL    HW112889   5.714   1.247   2.624
 3664SOL    HW212890   5.730   1.260   2.774
 3665SOL     OW12891   8.110   1.209   0.822
 3665SOL    HW112892   8.028   1.183   0.862
 3665SOL    HW212893   8.113   1.159   0.740
 3666SOL     OW12894   4.034   7.670  10.734
 3666SOL    HW112895   3.966   7.736  10.744
 3666SOL    HW212896   4.043   7.659  10.639
 3667SOL     OW12897  11.192  11.608   3.654
 3667SOL    HW112898  11.241  11.549   3.711
 3667SOL    HW212899  11.101  11.578   3.662
 3668SOL     OW12900   9.937   0.633   1.101
 3668SOL    HW112901   9.920   0.663   1.012
 3668SOL    HW212902   9.905   0.542   1.102
 3669SOL     OW12903   3.964   5.915   8.905
 3669SOL    HW112904   3.962   5.825   8.873
 3669SOL    HW212905   4.048   5.949   8.875
 3670SOL     OW12906   4.379  11.181   7.064
 3670SOL    HW112907   4.338  11.095   7.055
 3670SOL    HW212908   4.412  11.201   6.976
 3671SOL     OW12909   4.678  10.520   5.144
 3671SOL    HW112910   4.649  10.537   5.054
 3671SOL    HW212911   4.603  10.480   5.187
 3672SOL     OW12912   1.393   5.149   2.979
 3672SOL    HW112913   1.368   5.145   2.887
 3672SOL    HW212914   1.429   5.237   2.991
 3673SOL     OW12915   2.834   1.175   8.227
 3673SOL    HW112916   2.881   1.238   8.174
 3673SOL    HW212917   2.887   1.095   8.222
 3674SOL     OW12918  14.223  14.800   9.586
 3674SOL    HW112919  14.310  14.818   9.552
 3674SOL    HW212920  14.238  14.744   9.662
 3675SOL     OW12921  13.633   4.659  12.319
 3675SOL    HW112922  13.604   4.654  12.228
 3675SOL    HW212923  13.603   4.577  12.358
 3676SOL     OW12924   5.052  12.545   6.440
 3676SOL    HW112925   5.106  12.619   6.469
 3676SOL    HW212926   5.096  12.513   6.361
 3677SOL     OW12927   3.877   6.875  13.239
 3677SOL    HW112928   3.802   6.911  13.285
 3677SOL    HW212929   3.838   6.832  13.162
 3678SOL     OW12930  10.150   4.662  13.686
 3678SOL    HW112931  10.109   4.601  13.747
 3678SOL    HW212932  10.203   4.607  13.628
 3679SOL     OW12933   6.274  10.797   3.865
 3679SOL    HW112934   6.267  10.734   3.937
 3679SOL    HW212935   6.366  10.796   3.841
 3680SOL     OW12936  12.789   1.843  10.811
 3680SOL    HW112937  12.785   1.747  10.812
 3680SOL    HW212938  12.726   1.869  10.744
 3681SOL     OW12939   7.473   0.836   5.654
 3681SOL    HW112940   7.461   0.898   5.726
 3681SOL    HW212941   7.412   0.865   5.587
 3682SOL     OW12942  13.610   0.678   6.492
 3682SOL    HW112943  13.617   0.617   6.565
 3682SOL    HW212944  13.575   0.758   6.532
 3683SOL     OW12945  12.168  13.463  11.743
 3683SOL    HW112946  12.175  13.519  11.665
 3683SOL    HW212947  12.256  13.464  11.780
 3684SOL     OW12948   0.536  10.725  13.831
 3684SOL    HW112949   0.480  10.654  13.798
 3684SOL    HW212950   0.540  10.788  13.760
 3685SOL     OW12951   7.647   1.696  11.613
 3685SOL    HW112952   7.614   1.690  11.523
 3685SOL    HW212953   7.677   1.787  11.621
 3686SOL     OW12954   6.818   4.963   6.818
 3686SOL    HW112955   6.806   4.947   6.724
 3686SOL    HW212956   6.821   4.876   6.857
 3687SOL     OW12957   3.792   6.981   0.993
 3687SOL    HW112958   3.805   6.971   0.899
 3687SOL    HW212959   3.841   6.909   1.032
 3688SOL     OW12960   4.637   2.314   7.996
 3688SOL    HW112961   4.713   2.365   7.971
 3688SOL    HW212962   4.672   2.238   8.042
 3689SOL     OW12963   4.218   1.254   8.122
 3689SOL    HW112964   4.255   1.300   8.046
 3689SOL    HW212965   4.239   1.162   8.107
 3690SOL     OW12966   1.077   8.055   2.742
 3690SOL    HW112967   1.060   8.031   2.650
 3690SOL    HW212968   1.023   7.995   2.793
 3691SOL     OW12969   9.797  13.081   0.245
 3691SOL    HW112970   9.851  13.089   0.167
 3691SOL    HW212971   9.784  12.987   0.256
 3692SOL     OW12972  12.190   6.805   2.480
 3692SOL    HW112973  12.155   6.841   2.398
 3692SOL    HW212974  12.222   6.881   2.528
 3693SOL     OW12975  10.702   7.659   0.576
 3693SOL    HW112976  10.713   7.747   0.539
 3693SOL    HW212977  10.791   7.623   0.577
 3694SOL     OW12978   5.196   4.126   3.870
 3694SOL    HW112979   5.228   4.200   3.819
 3694SOL    HW212980   5.101   4.125   3.856
 3695SOL     OW12981   5.599   0.599  13.152
 3695SOL    HW112982   5.598   0.530  13.086
 3695SOL    HW212983   5.597   0.680  13.101
 3696SOL     OW12984   7.349  14.095   1.361
 3696SOL    HW112985   7.370  14.003   1.373
 3696SOL    HW212986   7.262  14.095   1.320
 3697SOL     OW12987   3.855   2.007  13.389
 3697SOL    HW112988   3.895   2.054  13.315
 3697SOL    HW212989   3.925   2.000  13.454
 3698SOL     OW12990  11.783   5.051   4.212
 3698SOL    HW112991  11.712   5.101   4.253
 3698SOL    HW212992  11.863   5.098   4.236
 3699SOL     OW12993   5.729   7.365   5.517
 3699SOL    HW112994   5.810   7.317   5.499
 3699SOL    HW212995   5.740   7.448   5.472
 3700SOL     OW12996   0.890   2.775  11.230
 3700SOL    HW112997   0.912   2.818  11.313
 3700SOL    HW212998   0.970   2.782  11.179
 3701SOL     OW12999   2.844   4.124   5.415
 3701SOL    HW113000   2.770   4.167   5.458
 3701SOL    HW213001   2.921   4.155   5.463
 3702SOL     OW13002  11.873   9.307  14.051
 3702SOL    HW113003  11.885   9.239  13.985
 3702SOL    HW213004  11.801   9.361  14.019
 3703SOL     OW13005   1.926   3.851   8.034
 3703SOL    HW113006   1.955   3.933   7.994
 3703SOL    HW213007   2.007   3.808   8.062
 3704SOL     OW13008   6.630  14.068  14.381
 3704SOL    HW113009   6.581  14.132  14.433
 3704SOL    HW213010   6.639  13.992  14.439
 3705SOL     OW13011  13.898   3.929   8.191
 3705SOL    HW113012  13.836   3.857   8.202
 3705SOL    HW213013  13.888   3.983   8.269
 3706SOL     OW13014   7.779  12.851   5.267
 3706SOL    HW113015   7.752  12.931   5.221
 3706SOL    HW213016   7.866  12.871   5.301
 3707SOL     OW13017   8.072   9.064   6.765
 3707SOL    HW113018   8.037   8.977   6.750
 3707SOL    HW213019   7.999   9.114   6.801
 3708SOL     OW13020   1.440   1.054   7.638
 3708SOL    HW113021   1.431   1.002   7.717
 3708SOL    HW213022   1.355   1.049   7.595
 3709SOL     OW13023   9.252  11.665   3.475
 3709SOL    HW113024   9.221  11.671   3.385
 3709SOL    HW213025   9.259  11.756   3.505
 3710SOL     OW13026   7.478   8.300  10.248
 3710SOL    HW113027   7.427   8.258  10.178
 3710SOL    HW213028   7.568   8.272  10.232
 3711SOL     OW13029  11.800   3.525   2.707
 3711SOL    HW113030  11.857   3.602   2.703
 3711SOL    HW213031  11.809   3.494   2.797
 3712SOL     OW13032   4.714   7.521   1.306
 3712SOL    HW113033   4.772   7.445   1.302
 3712SOL    HW213034   4.708   7.542   1.399
 3713SOL     OW13035   4.603  14.582   7.421
 3713SOL    HW113036   4.649  14.516   7.370
 3713SOL    HW213037   4.535  14.615   7.362
 3714SOL     OW13038   1.456   2.262   3.171
 3714SOL    HW113039   1.465   2.356   3.188
 3714SOL    HW213040   1.495   2.220   3.248
 3715SOL     OW13041   1.488   6.809  14.240
 3715SOL    HW113042   1.488   6.715  14.223
 3715SOL    HW213043   1.520   6.847  14.158
 3716SOL     OW13044   9.967   1.843   8.975
 3716SOL    HW113045   9.942   1.855   9.066
 3716SOL    HW213046   9.919   1.765   8.946
 3717SOL     OW13047   1.378   9.047  11.529
 3717SOL    HW113048   1.294   9.007  11.508
 3717SOL    HW213049   1.418   9.067  11.444
 3718SOL     OW13050   4.568   5.468   2.503
 3718SOL    HW113051   4.653   5.477   2.547
 3718SOL    HW213052   4.584   5.403   2.434
 3719SOL     OW13053  11.190  11.609  14.401
 3719SOL    HW113054  11.248  11.623  14.476
 3719SOL    HW213055  11.240  11.640  14.326
 3720SOL     OW13056   9.801   9.946  12.441
 3720SOL    HW113057   9.746   9.997  12.501
 3720SOL    HW213058   9.850   9.887  12.499
 3721SOL     OW13059   7.431  10.781  13.060
 3721SOL    HW113060   7.358  10.778  13.122
 3721SOL    HW213061   7.432  10.694  13.020
 3722SOL     OW13062  12.640   5.752  12.518
 3722SOL    HW113063  12.691   5.801  12.453
 3722SOL    HW213064  12.595   5.819  12.569
 3723SOL     OW13065   2.900   2.867  12.457
 3723SOL    HW113066   2.817   2.834  12.493
 3723SOL    HW213067   2.931   2.798  12.399
 3724SOL     OW13068   0.723  13.587   7.844
 3724SOL    HW113069   0.803  13.639   7.849
 3724SOL    HW213070   0.709  13.575   7.750
 3725SOL     OW13071   1.771   2.021   6.946
 3725SOL    HW113072   1.754   1.992   7.035
 3725SOL    HW213073   1.730   2.108   6.941
 3726SOL     OW13074   7.734   8.134  13.564
 3726SOL    HW113075   7.705   8.053  13.606
 3726SOL    HW213076   7.757   8.108  13.475
 3727SOL     OW13077  14.174   7.592   2.843
 3727SOL    HW113078  14.156   7.499   2.857
 3727SOL    HW213079  14.088   7.633   2.836
 3728SOL     OW13080   9.671   2.832  10.653
 3728SOL    HW113081   9.762   2.854  10.633
 3728SOL    HW213082   9.672   2.808  10.746
 3729SOL     OW13083   3.373   6.573   1.781
 3729SOL    HW113084   3.328   6.634   1.723
 3729SOL    HW213085   3.462   6.608   1.789
 3730SOL     OW13086   7.757   4.686   2.718
 3730SOL    HW113087   7.831   4.734   2.680
 3730SOL    HW213088   7.680   4.733   2.686
 3731SOL     OW13089   8.820  13.272  12.565
 3731SOL    HW113090   8.734  13.229  12.560
 3731SOL    HW213091   8.812  13.348  12.509
 3732SOL     OW13092  10.222   6.914  13.158
 3732SOL    HW113093  10.251   7.004  13.144
 3732SOL    HW213094  10.273   6.862  13.096
 3733SOL     OW13095   6.174  12.178  11.324
 3733SOL    HW113096   6.166  12.087  11.295
 3733SOL    HW213097   6.093  12.220  11.294
 3734SOL     OW13098   6.028  11.665   1.095
 3734SOL    HW113099   5.956  11.624   1.047
 3734SOL    HW213100   5.987  11.734   1.147
 3735SOL     OW13101   6.058   1.012   5.740
 3735SOL    HW113102   6.145   0.982   5.715
 3735SOL    HW213103   6.028   0.950   5.806
 3736SOL     OW13104   4.856  14.020   8.325
 3736SOL    HW113105   4.804  14.071   8.263
 3736SOL    HW213106   4.817  13.933   8.324
 3737SOL     OW13107   0.856   4.901   6.700
 3737SOL    HW113108   0.862   4.962   6.774
 3737SOL    HW213109   0.891   4.819   6.734
 3738SOL     OW13110  14.172   9.109   0.499
 3738SOL    HW113111  14.258   9.091   0.460
 3738SOL    HW213112  14.154   9.034   0.555
 3739SOL     OW13113   3.518  10.323  12.728
 3739SOL    HW113114   3.513  10.300  12.636
 3739SOL    HW213115   3.456  10.396  12.738
 3740SOL     OW13116   2.719  10.818  10.988
 3740SOL    HW113117   2.699  10.860  10.904
 3740SOL    HW213118   2.701  10.885  11.054
 3741SOL     OW13119   0.752  13.295   7.036
 3741SOL    HW113120   0.809  13.226   7.069
 3741SOL    HW213121   0.729  13.347   7.113
 3742SOL     OW13122  11.868  14.394  11.375
 3742SOL    HW113123  11.862  14.312  11.325
 3742SOL    HW213124  11.897  14.459  11.310
 3743SOL     OW13125   0.048   9.665   0.500
 3743SOL    HW113126   0.033   9.643   0.592
 3743SOL    HW213127   0.138   9.697   0.498
 3744SOL     OW13128  14.753   2.033  13.322
 3744SOL    HW113129  14.818   2.039  13.251
 3744SOL    HW213130  14.730   2.124  13.341
 3745SOL     OW13131  10.766  10.030  10.736
 3745SOL    HW113132  10.734  10.053  10.649
 3745SOL    HW213133  10.861  10.047  10.731
 3746SOL     OW13134   9.102   6.872   4.596
 3746SOL    HW113135   9.169   6.938   4.585
 3746SOL    HW213136   9.102   6.852   4.689
 3747SOL     OW13137   0.672   4.887   6.163
 3747SOL    HW113138   0.747   4.845   6.122
 3747SOL    HW213139   0.692   4.981   6.159
 3748SOL     OW13140  12.215  13.858  13.999
 3748SOL    HW113141  12.269  13.925  14.041
 3748SOL    HW213142  12.126  13.892  14.006
 3749SOL     OW13143   9.183  13.188   0.672
 3749SOL    HW113144   9.133  13.142   0.740
 3749SOL    HW213145   9.267  13.142   0.670
 3750SOL     OW13146   7.149   3.835  11.678
 3750SOL    HW113147   7.105   3.824  11.593
 3750SOL    HW213148   7.204   3.757  11.685
 3751SOL     OW13149   9.036   9.354   4.175
 3751SOL    HW113150   9.118   9.353   4.225
 3751SOL    HW213151   9.026   9.263   4.146
 3752SOL     OW13152   8.917   3.025   0.487
 3752SOL    HW113153   8.985   2.981   0.436
 3752SOL    HW213154   8.836   2.984   0.459
 3753SOL     OW13155  12.730   9.596   5.389
 3753SOL    HW113156  12.683   9.607   5.471
 3753SOL    HW213157  12.683   9.651   5.326
 3754SOL     OW13158   7.112   3.771  14.028
 3754SOL    HW113159   7.053   3.842  14.048
 3754SOL    HW213160   7.152   3.795  13.944
 3755SOL     OW13161  11.145   1.988  13.874
 3755SOL    HW113162  11.080   1.917  13.877
 3755SOL    HW213163  11.152   2.009  13.781
 3756SOL     OW13164   9.767   4.041   7.767
 3756SOL    HW113165   9.814   3.975   7.716
 3756SOL    HW213166   9.694   3.992   7.807
 3757SOL     OW13167   9.675   0.367   2.076
 3757SOL    HW113168   9.641   0.317   2.001
 3757SOL    HW213169   9.607   0.432   2.094
 3758SOL     OW13170   1.272  10.831   2.259
 3758SOL    HW113171   1.200  10.769   2.248
 3758SOL    HW213172   1.330  10.789   2.322
 3759SOL     OW13173  14.770  14.629   2.712
 3759SOL    HW113174  14.801  14.569   2.780
 3759SOL    HW213175  14.844  14.688   2.697
 3760SOL     OW13176   3.146   4.428   8.678
 3760SOL    HW113177   3.104   4.393   8.756
 3760SOL    HW213178   3.090   4.502   8.653
 3761SOL     OW13179   1.897   8.217   3.422
 3761SOL    HW113180   1.951   8.278   3.472
 3761SOL    HW213181   1.916   8.131   3.460
 3762SOL     OW13182   4.101   5.500   8.565
 3762SOL    HW113183   4.145   5.418   8.545
 3762SOL    HW213184   4.010   5.475   8.583
 3763SOL     OW13185   2.313   1.968   9.669
 3763SOL    HW113186   2.272   1.902   9.725
 3763SOL    HW213187   2.406   1.948   9.673
 3764SOL     OW13188   6.083   6.810   7.655
 3764SOL    HW113189   6.143   6.875   7.616
 3764SOL    HW213190   6.053   6.758   7.580
 3765SOL     OW13191   5.767   4.629   2.175
 3765SOL    HW113192   5.828   4.579   2.122
 3765SOL    HW213193   5.685   4.628   2.125
 3766SOL     OW13194   9.157   2.158   9.940
 3766SOL    HW113195   9.170   2.203  10.024
 3766SOL    HW213196   9.238   2.173   9.892
 3767SOL     OW13197   6.593   2.931  13.514
 3767SOL    HW113198   6.638   2.913  13.597
 3767SOL    HW213199   6.614   3.022  13.494
 3768SOL     OW13200   5.191   5.887   1.238
 3768SOL    HW113201   5.184   5.792   1.231
 3768SOL    HW213202   5.281   5.903   1.267
 3769SOL     OW13203   2.059   2.877   2.569
 3769SOL    HW113204   2.090   2.918   2.650
 3769SOL    HW213205   2.138   2.871   2.514
 3770SOL     OW13206  13.387   9.895   5.845
 3770SOL    HW113207  13.428   9.950   5.778
 3770SOL    HW213208  13.335   9.955   5.898
 3771SOL     OW13209   9.981   0.791   3.759
 3771SOL    HW113210   9.953   0.882   3.757
 3771SOL    HW213211   9.920   0.748   3.818
 3772SOL     OW13212   3.729   1.523   3.573
 3772SOL    HW113213   3.778   1.443   3.586
 3772SOL    HW213214   3.795   1.592   3.568
 3773SOL     OW13215  11.823   3.352   2.213
 3773SOL    HW113216  11.787   3.276   2.168
 3773SOL    HW213217  11.910   3.324   2.242
 3774SOL     OW13218  11.560   6.595  11.995
 3774SOL    HW113219  11.606   6.513  12.014
 3774SOL    HW213220  11.594   6.622  11.910
 3775SOL     OW13221  10.195   5.162   5.370
 3775SOL    HW113222  10.120   5.104   5.385
 3775SOL    HW213223  10.187   5.189   5.278
 3776SOL     OW13224  10.132  10.192  14.341
 3776SOL    HW113225  10.061  10.128  14.336
 3776SOL    HW213226  10.198  10.160  14.280
 3777SOL     OW13227   2.876   7.110   7.322
 3777SOL    HW113228   2.903   7.200   7.339
 3777SOL    HW213229   2.959   7.061   7.317
 3778SOL     OW13230  10.884  12.342  12.854
 3778SOL    HW113231  10.793  12.337  12.824
 3778SOL    HW213232  10.899  12.257  12.896
 3779SOL     OW13233   0.678   4.720   9.352
 3779SOL    HW113234   0.747   4.665   9.389
 3779SOL    HW213235   0.723   4.780   9.293
 3780SOL     OW13236  11.337   5.571   3.227
 3780SOL    HW113237  11.329   5.478   3.210
 3780SOL    HW213238  11.432   5.587   3.229
 3781SOL     OW13239   8.455  13.467   8.281
 3781SOL    HW113240   8.511  13.529   8.327
 3781SOL    HW213241   8.512  13.428   8.214
 3782SOL     OW13242  14.837   9.788   5.140
 3782SOL    HW113243   0.042   9.742   5.164
 3782SOL    HW213244  14.843   9.801   5.046
 3783SOL     OW13245   9.848   1.403  14.129
 3783SOL    HW113246   9.910   1.344  14.172
 3783SOL    HW213247   9.817   1.460  14.199
 3784SOL     OW13248  12.366  14.507  12.376
 3784SOL    HW113249  12.356  14.599  12.401
 3784SOL    HW213250  12.438  14.507  12.313
 3785SOL     OW13251   5.380   0.182  12.661
 3785SOL    HW113252   5.424   0.266  12.648
 3785SOL    HW213253   5.440   0.117  12.625
 3786SOL     OW13254   6.171  13.190   1.667
 3786SOL    HW113255   6.248  13.175   1.721
 3786SOL    HW213256   6.192  13.269   1.616
 3787SOL     OW13257   9.746  14.158   6.364
 3787SOL    HW113258   9.662  14.203   6.375
 3787SOL    HW213259   9.811  14.228   6.364
 3788SOL     OW13260   8.873   0.079   8.720
 3788SOL    HW113261   8.840   0.045   8.803
 3788SOL    HW213262   8.801   0.132   8.685
 3789SOL     OW13263   9.409   6.755  12.348
 3789SOL    HW113264   9.470   6.829  12.342
 3789SOL    HW213265   9.352   6.778  12.421
 3790SOL     OW13266   0.308  14.616  11.751
 3790SOL    HW113267   0.248  14.612  11.825
 3790SOL    HW213268   0.393  14.591  11.788
 3791SOL     OW13269   6.139   4.612   9.101
 3791SOL    HW113270   6.060   4.650   9.139
 3791SOL    HW213271   6.205   4.621   9.170
 3792SOL     OW13272   4.108  11.429   6.275
 3792SOL    HW113273   4.092  11.469   6.190
 3792SOL    HW213274   4.108  11.335   6.257
 3793SOL     OW13275   3.199   3.149  13.123
 3793SOL    HW113276   3.250   3.087  13.174
 3793SOL    HW213277   3.263   3.213  13.091
 3794SOL     OW13278  14.035   0.439  13.512
 3794SOL    HW113279  14.106   0.381  13.483
 3794SOL    HW213280  14.066   0.527  13.489
 3795SOL     OW13281   5.680   9.928   3.929
 3795SOL    HW113282   5.723   9.938   3.844
 3795SOL    HW213283   5.604   9.987   3.925
 3796SOL     OW13284   5.481   3.761   6.995
 3796SOL    HW113285   5.573   3.737   7.008
 3796SOL    HW213286   5.460   3.727   6.908
 3797SOL     OW13287   5.903   1.277   6.165
 3797SOL    HW113288   5.813   1.308   6.164
 3797SOL    HW213289   5.919   1.247   6.075
 3798SOL     OW13290  14.799   7.712   9.493
 3798SOL    HW113291  14.786   7.797   9.451
 3798SOL    HW213292  14.766   7.648   9.430
 3799SOL     OW13293  13.067   9.196   6.227
 3799SOL    HW113294  13.135   9.150   6.276
 3799SOL    HW213295  12.989   9.142   6.238
 3800SOL     OW13296   2.752   7.804   7.781
 3800SOL    HW113297   2.700   7.728   7.756
 3800SOL    HW213298   2.787   7.837   7.698
 3801SOL     OW13299   7.196   0.548   7.061
 3801SOL    HW113300   7.105   0.568   7.080
 3801SOL    HW213301   7.193   0.483   6.990
 3802SOL     OW13302   1.402   2.721  12.841
 3802SOL    HW113303   1.410   2.648  12.903
 3802SOL    HW213304   1.396   2.679  12.755
 3803SOL     OW13305   7.855   5.897   5.468
 3803SOL    HW113306   7.805   5.923   5.545
 3803SOL    HW213307   7.798   5.836   5.422
 3804SOL     OW13308   0.744  13.141  14.676
 3804SOL    HW113309   0.700  13.222  14.700
 3804SOL    HW213310   0.835  13.167  14.660
 3805SOL     OW13311  12.772  12.754  13.534
 3805SOL    HW113312  12.730  12.840  13.542
 3805SOL    HW213313  12.856  12.763  13.579
 3806SOL     OW13314   6.309   5.350   9.543
 3806SOL    HW113315   6.351   5.421   9.493
 3806SOL    HW213316   6.284   5.391   9.626
 3807SOL     OW13317   4.381  13.026   1.487
 3807SOL    HW113318   4.338  13.037   1.572
 3807SOL    HW213319   4.346  13.097   1.433
 3808SOL     OW13320   5.347   3.751  14.095
 3808SOL    HW113321   5.305   3.665  14.101
 3808SOL    HW213322   5.375   3.770  14.184
 3809SOL     OW13323   0.914   0.576   7.260
 3809SOL    HW113324   0.893   0.667   7.281
 3809SOL    HW213325   0.952   0.541   7.341
 3810SOL     OW13326  10.510  10.192   8.843
 3810SOL    HW113327  10.511  10.138   8.922
 3810SOL    HW213328  10.591  10.243   8.848
 3811SOL     OW13329  14.014   5.539   4.533
 3811SOL    HW113330  14.047   5.480   4.466
 3811SOL    HW213331  13.992   5.483   4.607
 3812SOL     OW13332   9.605  10.808   9.867
 3812SOL    HW113333   9.657  10.771   9.795
 3812SOL    HW213334   9.516  10.809   9.834
 3813SOL     OW13335   6.831   8.812  14.763
 3813SOL    HW113336   6.761   8.780  14.707
 3813SOL    HW213337   6.787   8.838  14.844
 3814SOL     OW13338   9.660   2.543  14.292
 3814SOL    HW113339   9.751   2.524  14.270
 3814SOL    HW213340   9.655   2.530  14.387
 3815SOL     OW13341   2.240   3.909  14.400
 3815SOL    HW113342   2.159   3.919  14.448
 3815SOL    HW213343   2.236   3.820  14.364
 3816SOL     OW13344  11.968  10.156   9.380
 3816SOL    HW113345  11.918  10.075   9.384
 3816SOL    HW213346  12.033  10.141   9.311
 3817SOL     OW13347   0.178   4.382   2.092
 3817SOL    HW113348   0.237   4.438   2.142
 3817SOL    HW213349   0.227   4.300   2.081
 3818SOL     OW13350  11.975  14.777   4.413
 3818SOL    HW113351  12.048  14.758   4.355
 3818SOL    HW213352  11.948  14.866   4.389
 3819SOL     OW13353   0.171  14.476   8.138
 3819SOL    HW113354   0.219  14.397   8.111
 3819SOL    HW213355   0.199  14.492   8.228
 3820SOL     OW13356  14.613  13.628   6.768
 3820SOL    HW113357  14.522  13.648   6.790
 3820SOL    HW213358  14.611  13.610   6.674
 3821SOL     OW13359   9.239  11.635  12.159
 3821SOL    HW113360   9.293  11.684  12.098
 3821SOL    HW213361   9.194  11.570  12.105
 3822SOL     OW13362   1.210  14.581   8.477
 3822SOL    HW113363   1.166  14.566   8.561
 3822SOL    HW213364   1.184  14.506   8.423
 3823SOL     OW13365   5.760   5.393   5.577
 3823SOL    HW113366   5.835   5.405   5.519
 3823SOL    HW213367   5.799   5.365   5.660
 3824SOL     OW13368  12.674   0.076   4.910
 3824SOL    HW113369  12.671   0.139   4.982
 3824SOL    HW213370  12.631  14.873   4.945
 3825SOL     OW13371   5.499   4.435   3.732
 3825SOL    HW113372   5.438   4.430   3.806
 3825SOL    HW213373   5.580   4.396   3.764
 3826SOL     OW13374   3.411  10.463   5.201
 3826SOL    HW113375   3.346  10.498   5.140
 3826SOL    HW213376   3.381  10.374   5.220
 3827SOL     OW13377  14.498   3.554   0.465
 3827SOL    HW113378  14.478   3.555   0.559
 3827SOL    HW213379  14.588   3.585   0.459
 3828SOL     OW13380   2.459  12.068   8.476
 3828SOL    HW113381   2.484  12.146   8.427
 3828SOL    HW213382   2.542  12.028   8.501
 3829SOL     OW13383   6.799  13.987   7.700
 3829SOL    HW113384   6.894  13.989   7.713
 3829SOL    HW213385   6.784  14.050   7.629
 3830SOL     OW13386   3.736  14.179  10.977
 3830SOL    HW113387   3.728  14.093  11.018
 3830SOL    HW213388   3.646  14.205  10.957
 3831SOL     OW13389   0.315  14.753  12.224
 3831SOL    HW113390   0.401  14.777  12.189
 3831SOL    HW213391   0.326  14.758  12.319
 3832SOL     OW13392   2.944  11.844   4.218
 3832SOL    HW113393   2.922  11.917   4.160
 3832SOL    HW213394   2.996  11.785   4.164
 3833SOL     OW13395   0.090   2.159  13.681
 3833SOL    HW113396   0.102   2.097  13.609
 3833SOL    HW213397   0.012   2.209  13.658
 3834SOL     OW13398   4.270   8.770  14.773
 3834SOL    HW113399   4.267   8.712  14.697
 3834SOL    HW213400   4.256   8.712  14.848
 3835SOL     OW13401  13.705  11.082   3.019
 3835SOL    HW113402  13.699  11.093   2.924
 3835SOL    HW213403  13.620  11.112   3.051
 3836SOL     OW13404   4.622   3.727   3.652
 3836SOL    HW113405   4.605   3.726   3.558
 3836SOL    HW213406   4.713   3.696   3.659
 3837SOL     OW13407   3.392   3.048  12.293
 3837SOL    HW113408   3.317   2.989  12.302
 3837SOL    HW213409   3.467   2.996  12.321
 3838SOL     OW13410   3.564   3.868   8.270
 3838SOL    HW113411   3.509   3.792   8.252
 3838SOL    HW213412   3.637   3.860   8.210
 3839SOL     OW13413   6.242  13.028   0.247
 3839SOL    HW113414   6.170  13.025   0.310
 3839SOL    HW213415   6.226  13.107   0.195
 3840SOL     OW13416  10.156   9.757   8.241
 3840SOL    HW113417  10.091   9.688   8.248
 3840SOL    HW213418  10.190   9.750   8.152
 3841SOL     OW13419   6.334   0.905  11.404
 3841SOL    HW113420   6.408   0.948  11.361
 3841SOL    HW213421   6.342   0.813  11.379
 3842SOL     OW13422   6.920  14.556   0.022
 3842SOL    HW113423   6.901  14.467   0.052
 3842SOL    HW213424   6.837  14.588  14.864
 3843SOL     OW13425   7.585  10.140   1.853
 3843SOL    HW113426   7.616  10.216   1.903
 3843SOL    HW213427   7.491  10.136   1.872
 3844SOL     OW13428   4.367   2.663  13.483
 3844SOL    HW113429   4.276   2.645  13.463
 3844SOL    HW213430   4.366   2.699  13.572
 3845SOL     OW13431   7.968   7.979   0.399
 3845SOL    HW113432   7.951   7.911   0.463
 3845SOL    HW213433   8.045   8.026   0.433
 3846SOL     OW13434   8.272   3.802   8.644
 3846SOL    HW113435   8.198   3.766   8.595
 3846SOL    HW213436   8.348   3.783   8.590
 3847SOL     OW13437  12.235  12.304   6.739
 3847SOL    HW113438  12.294  12.245   6.787
 3847SOL    HW213439  12.176  12.338   6.806
 3848SOL     OW13440   8.813   0.438   7.832
 3848SOL    HW113441   8.772   0.375   7.890
 3848SOL    HW213442   8.817   0.393   7.747
 3849SOL     OW13443   6.315   4.085   1.715
 3849SOL    HW113444   6.272   4.079   1.800
 3849SOL    HW213445   6.246   4.064   1.651
 3850SOL     OW13446   6.151   8.565  10.717
 3850SOL    HW113447   6.194   8.485  10.748
 3850SOL    HW213448   6.222   8.621  10.687
 3851SOL     OW13449   0.575  14.488  12.787
 3851SOL    HW113450   0.647  14.547  12.763
 3851SOL    HW213451   0.616  14.403  12.797
 3852SOL     OW13452  13.059  10.983   6.196
 3852SOL    HW113453  13.101  10.903   6.226
 3852SOL    HW213454  13.131  11.035   6.160
 3853SOL     OW13455   0.201   7.263   0.232
 3853SOL    HW113456   0.175   7.260   0.140
 3853SOL    HW213457   0.297   7.257   0.230
 3854SOL     OW13458  11.028  12.429  13.813
 3854SOL    HW113459  10.986  12.508  13.781
 3854SOL    HW213460  11.007  12.362  13.748
 3855SOL     OW13461  12.747   0.390   6.464
 3855SOL    HW113462  12.818   0.365   6.405
 3855SOL    HW213463  12.714   0.473   6.429
 3856SOL     OW13464   2.224   8.029  13.782
 3856SOL    HW113465   2.133   8.055  13.773
 3856SOL    HW213466   2.266   8.056  13.700
 3857SOL     OW13467   2.684  12.446   7.141
 3857SOL    HW113468   2.649  12.430   7.053
 3857SOL    HW213469   2.753  12.382   7.151
 3858SOL     OW13470   7.122   4.793   5.959
 3858SOL    HW113471   7.077   4.725   5.908
 3858SOL    HW213472   7.072   4.800   6.040
 3859SOL     OW13473   1.504  14.355  11.027
 3859SOL    HW113474   1.470  14.402  10.951
 3859SOL    HW213475   1.495  14.416  11.099
 3860SOL     OW13476   8.274  11.126   8.869
 3860SOL    HW113477   8.339  11.100   8.934
 3860SOL    HW213478   8.209  11.176   8.918
 3861SOL     OW13479   9.243   5.152   7.634
 3861SOL    HW113480   9.227   5.246   7.629
 3861SOL    HW213481   9.205   5.126   7.718
 3862SOL     OW13482  13.867   8.433   0.816
 3862SOL    HW113483  13.788   8.417   0.869
 3862SOL    HW213484  13.923   8.486   0.873
 3863SOL     OW13485  12.983   9.639  12.058
 3863SOL    HW113486  12.938   9.692  12.124
 3863SOL    HW213487  13.056   9.599  12.106
 3864SOL     OW13488  11.619   1.820   5.611
 3864SOL    HW113489  11.653   1.846   5.525
 3864SOL    HW213490  11.614   1.901   5.661
 3865SOL     OW13491  14.645  12.677  14.023
 3865SOL    HW113492  14.581  12.620  13.981
 3865SOL    HW213493  14.730  12.639  14.000
 3866SOL     OW13494   1.194   7.141   6.499
 3866SOL    HW113495   1.190   7.048   6.476
 3866SOL    HW213496   1.173   7.144   6.592
 3867SOL     OW13497   4.255  10.679  12.525
 3867SOL    HW113498   4.224  10.589  12.537
 3867SOL    HW213499   4.256  10.691  12.430
 3868SOL     OW13500   7.696   1.667  10.169
 3868SOL    HW113501   7.719   1.660  10.077
 3868SOL    HW213502   7.632   1.597  10.184
 3869SOL     OW13503   1.123   5.490   6.012
 3869SOL    HW113504   1.032   5.460   6.013
 3869SOL    HW213505   1.122   5.570   5.960
 3870SOL     OW13506   1.002   3.144   1.297
 3870SOL    HW113507   0.965   3.204   1.363
 3870SOL    HW213508   0.978   3.184   1.213
 3871SOL     OW13509   3.047   9.689   0.158
 3871SOL    HW113510   3.130   9.720   0.124
 3871SOL    HW213511   3.070   9.617   0.217
 3872SOL     OW13512   5.529   8.973   9.723
 3872SOL    HW113513   5.555   9.051   9.675
 3872SOL    HW213514   5.509   9.005   9.811
 3873SOL     OW13515   9.831  14.002   9.399
 3873SOL    HW113516   9.754  13.945   9.390
 3873SOL    HW213517   9.898  13.946   9.438
 3874SOL     OW13518  13.847   4.328   7.824
 3874SOL    HW113519  13.764   4.372   7.808
 3874SOL    HW213520  13.825   4.254   7.880
 3875SOL     OW13521  10.166  10.634   5.406
 3875SOL    HW113522  10.125  10.549   5.425
 3875SOL    HW213523  10.148  10.687   5.483
 3876SOL     OW13524   1.809   3.647  14.010
 3876SOL    HW113525   1.800   3.646  13.915
 3876SOL    HW213526   1.761   3.725  14.038
 3877SOL     OW13527  10.478   3.143  14.420
 3877SOL    HW113528  10.446   3.172  14.334
 3877SOL    HW213529  10.518   3.221  14.458
 3878SOL     OW13530   2.414   4.861   1.987
 3878SOL    HW113531   2.369   4.906   1.915
 3878SOL    HW213532   2.470   4.797   1.943
 3879SOL     OW13533  11.203  14.265  14.304
 3879SOL    HW113534  11.250  14.336  14.348
 3879SOL    HW213535  11.230  14.186  14.351
 3880SOL     OW13536   0.354  14.043   1.625
 3880SOL    HW113537   0.396  14.111   1.573
 3880SOL    HW213538   0.416  13.970   1.623
 3881SOL     OW13539   0.342   9.590   7.347
 3881SOL    HW113540   0.413   9.615   7.288
 3881SOL    HW213541   0.289   9.528   7.296
 3882SOL     OW13542  10.709   1.125   9.719
 3882SOL    HW113543  10.707   1.030   9.728
 3882SOL    HW213544  10.635   1.156   9.772
 3883SOL     OW13545  12.352  12.017  11.684
 3883SOL    HW113546  12.314  12.019  11.772
 3883SOL    HW213547  12.282  12.050  11.627
 3884SOL     OW13548  11.832   3.400   3.438
 3884SOL    HW113549  11.861   3.486   3.467
 3884SOL    HW213550  11.907   3.364   3.391
 3885SOL     OW13551   5.045   0.492  13.736
 3885SOL    HW113552   4.959   0.487  13.694
 3885SOL    HW213553   5.108   0.483  13.664
 3886SOL     OW13554   1.718   2.906   9.478
 3886SOL    HW113555   1.803   2.864   9.463
 3886SOL    HW213556   1.730   2.995   9.445
 3887SOL     OW13557   3.693   4.463   8.686
 3887SOL    HW113558   3.611   4.451   8.637
 3887SOL    HW213559   3.696   4.387   8.745
 3888SOL     OW13560  11.886  13.202   9.191
 3888SOL    HW113561  11.880  13.136   9.121
 3888SOL    HW213562  11.855  13.283   9.150
 3889SOL     OW13563   7.447  11.710   1.348
 3889SOL    HW113564   7.429  11.621   1.319
 3889SOL    HW213565   7.518  11.700   1.412
 3890SOL     OW13566   9.351  13.340   1.585
 3890SOL    HW113567   9.275  13.395   1.603
 3890SOL    HW213568   9.317  13.250   1.589
 3891SOL     OW13569   3.349  13.931  14.410
 3891SOL    HW113570   3.413  13.963  14.474
 3891SOL    HW213571   3.321  14.010  14.364
 3892SOL     OW13572  12.369   0.529  10.803
 3892SOL    HW113573  12.390   0.599  10.865
 3892SOL    HW213574  12.353   0.574  10.720
 3893SOL     OW13575  11.717   4.655   4.301
 3893SOL    HW113576  11.739   4.643   4.209
 3893SOL    HW213577  11.647   4.592   4.317
 3894SOL     OW13578  13.461   8.123   0.838
 3894SOL    HW113579  13.462   8.042   0.890
 3894SOL    HW213580  13.440   8.191   0.902
 3895SOL     OW13581   5.209   6.540   7.051
 3895SOL    HW113582   5.304   6.554   7.051
 3895SOL    HW213583   5.200   6.445   7.062
 3896SOL     OW13584   1.796  14.155   4.540
 3896SOL    HW113585   1.805  14.064   4.511
 3896SOL    HW213586   1.874  14.198   4.505
 3897SOL     OW13587  14.726   8.579  11.899
 3897SOL    HW113588  14.760   8.503  11.947
 3897SOL    HW213589  14.707   8.644  11.967
 3898SOL     OW13590   8.607   1.109   1.690
 3898SOL    HW113591   8.544   1.181   1.692
 3898SOL    HW213592   8.691   1.150   1.710
 3899SOL     OW13593   4.102   6.555   1.444
 3899SOL    HW113594   4.186   6.599   1.426
 3899SOL    HW213595   4.116   6.510   1.527
 3900SOL     OW13596   1.482  10.153   6.958
 3900SOL    HW113597   1.446  10.094   6.892
 3900SOL    HW213598   1.552  10.199   6.913
 3901SOL     OW13599   6.955   6.883  13.942
 3901SOL    HW113600   6.863   6.907  13.942
 3901SOL    HW213601   6.984   6.898  14.032
 3902SOL     OW13602   7.890   9.548  12.615
 3902SOL    HW113603   7.816   9.583  12.665
 3902SOL    HW213604   7.851   9.508  12.537
 3903SOL     OW13605   0.845  13.318   2.258
 3903SOL    HW113606   0.752  13.325   2.278
 3903SOL    HW213607   0.864  13.224   2.264
 3904SOL     OW13608   7.115  11.032   8.910
 3904SOL    HW113609   7.069  11.073   8.836
 3904SOL    HW213610   7.053  10.969   8.945
 3905SOL     OW13611   4.755   4.235   4.442
 3905SOL    HW113612   4.729   4.151   4.403
 3905SOL    HW213613   4.683   4.295   4.419
 3906SOL     OW13614  11.524   7.031  13.196
 3906SOL    HW113615  11.527   7.124  13.218
 3906SOL    HW213616  11.431   7.011  13.189
 3907SOL     OW13617  11.344  13.836   5.952
 3907SOL    HW113618  11.417  13.790   5.994
 3907SOL    HW213619  11.324  13.908   6.013
 3908SOL     OW13620   5.033   2.824   7.083
 3908SOL    HW113621   4.980   2.771   7.024
 3908SOL    HW213622   4.976   2.839   7.159
 3909SOL     OW13623   9.597   3.136   8.501
 3909SOL    HW113624   9.621   3.060   8.554
 3909SOL    HW213625   9.667   3.143   8.435
 3910SOL     OW13626   6.654   8.846   7.824
 3910SOL    HW113627   6.649   8.921   7.884
 3910SOL    HW213628   6.686   8.884   7.742
 3911SOL     OW13629   2.720   1.868   2.947
 3911SOL    HW113630   2.800   1.816   2.955
 3911SOL    HW213631   2.729   1.914   2.863
 3912SOL     OW13632   5.147   0.372   0.525
 3912SOL    HW113633   5.095   0.428   0.468
 3912SOL    HW213634   5.218   0.340   0.469
 3913SOL     OW13635  11.595  11.043  12.850
 3913SOL    HW113636  11.683  11.080  12.858
 3913SOL    HW213637  11.540  11.098  12.906
 3914SOL     OW13638   3.013   8.733   5.169
 3914SOL    HW113639   3.040   8.822   5.146
 3914SOL    HW213640   3.095   8.690   5.196
 3915SOL     OW13641  13.846  14.790   7.166
 3915SOL    HW113642  13.925  14.844   7.173
 3915SOL    HW213643  13.820  14.797   7.074
 3916SOL     OW13644   1.711  12.863   0.892
 3916SOL    HW113645   1.802  12.880   0.868
 3916SOL    HW213646   1.716  12.803   0.966
 3917SOL     OW13647   7.787  12.745   4.199
 3917SOL    HW113648   7.831  12.820   4.240
 3917SOL    HW213649   7.707  12.781   4.161
 3918SOL     OW13650   4.824  11.465   1.192
 3918SOL    HW113651   4.874  11.390   1.159
 3918SOL    HW213652   4.876  11.497   1.266
 3919SOL     OW13653  12.066   4.065   6.550
 3919SOL    HW113654  12.118   4.049   6.628
 3919SOL    HW213655  12.083   3.989   6.494
 3920SOL     OW13656   9.125  13.630   6.990
 3920SOL    HW113657   9.081  13.587   6.917
 3920SOL    HW213658   9.054  13.670   7.040
 3921SOL     OW13659   7.196   8.824  13.460
 3921SOL    HW113660   7.271   8.810  13.519
 3921SOL    HW213661   7.230   8.882  13.392
 3922SOL     OW13662   1.641   6.705  10.335
 3922SOL    HW113663   1.649   6.703  10.240
 3922SOL    HW213664   1.580   6.776  10.352
 3923SOL     OW13665   4.770   9.772   5.456
 3923SOL    HW113666   4.813   9.702   5.407
 3923SOL    HW213667   4.676   9.757   5.443
 3924SOL     OW13668   0.093   1.218   1.715
 3924SOL    HW113669   0.012   1.179   1.682
 3924SOL    HW213670   0.068   1.264   1.794
 3925SOL     OW13671   3.521  10.459   7.836
 3925SOL    HW113672   3.543  10.534   7.891
 3925SOL    HW213673   3.438  10.482   7.795
 3926SOL     OW13674   0.558   5.045  11.738
 3926SOL    HW113675   0.498   5.043  11.663
 3926SOL    HW213676   0.644   5.029  11.700
 3927SOL     OW13677   2.023   8.793  11.647
 3927SOL    HW113678   1.934   8.763  11.668
 3927SOL    HW213679   2.012   8.852  11.573
 3928SOL     OW13680   2.205  13.044   1.050
 3928SOL    HW113681   2.116  13.015   1.069
 3928SOL    HW213682   2.193  13.123   0.996
 3929SOL     OW13683   5.403  14.154  13.870
 3929SOL    HW113684   5.473  14.200  13.825
 3929SOL    HW213685   5.447  14.102  13.937
 3930SOL     OW13686  14.858   5.292   9.178
 3930SOL    HW113687  14.874   5.386   9.191
 3930SOL    HW213688  14.807   5.288   9.097
 3931SOL     OW13689  11.442   9.328   8.940
 3931SOL    HW113690  11.460   9.265   9.010
 3931SOL    HW213691  11.374   9.286   8.887
 3932SOL     OW13692  14.690   5.033   2.729
 3932SOL    HW113693  14.596   5.021   2.717
 3932SOL    HW213694  14.723   4.945   2.747
 3933SOL     OW13695   7.800  12.693   0.672
 3933SOL    HW113696   7.719  12.668   0.715
 3933SOL    HW213697   7.777  12.701   0.579
 3934SOL     OW13698   9.596   5.323   6.753
 3934SOL    HW113699   9.613   5.376   6.831
 3934SOL    HW213700   9.662   5.254   6.756
 3935SOL     OW13701  14.012   5.052  13.434
 3935SOL    HW113702  14.006   5.119  13.502
 3935SOL    HW213703  14.063   5.093  13.364
 3936SOL     OW13704  10.616   3.311   3.371
 3936SOL    HW113705  10.574   3.310   3.457
 3936SOL    HW213706  10.587   3.393   3.331
 3937SOL     OW13707   0.763  14.851   3.647
 3937SOL    HW113708   0.826  14.798   3.597
 3937SOL    HW213709   0.788   0.066   3.628
 3938SOL     OW13710   6.088  12.118  14.083
 3938SOL    HW113711   6.108  12.183  14.150
 3938SOL    HW213712   5.998  12.091  14.103
 3939SOL     OW13713   3.926   8.835   6.402
 3939SOL    HW113714   3.932   8.876   6.315
 3939SOL    HW213715   3.998   8.771   6.403
 3940SOL     OW13716   3.947  10.384   4.475
 3940SOL    HW113717   3.919  10.293   4.486
 3940SOL    HW213718   4.031  10.377   4.430
 3941SOL     OW13719   8.698  12.986  11.721
 3941SOL    HW113720   8.785  13.025  11.729
 3941SOL    HW213721   8.703  12.904  11.770
 3942SOL     OW13722   3.788   2.059  11.548
 3942SOL    HW113723   3.867   2.037  11.499
 3942SOL    HW213724   3.778   2.153  11.537
 3943SOL     OW13725   6.023  11.874  10.580
 3943SOL    HW113726   5.981  11.926  10.649
 3943SOL    HW213727   5.987  11.786  10.593
 3944SOL     OW13728   4.547   1.046  14.795
 3944SOL    HW113729   4.553   0.951  14.787
 3944SOL    HW213730   4.523   1.076  14.708
 3945SOL     OW13731   3.122   1.753  14.148
 3945SOL    HW113732   3.179   1.679  14.170
 3945SOL    HW213733   3.037   1.713  14.130
 3946SOL     OW13734   5.899   0.265   4.461
 3946SOL    HW113735   5.904   0.194   4.525
 3946SOL    HW213736   5.809   0.262   4.428
 3947SOL     OW13737  14.041   0.476  11.227
 3947SOL    HW113738  14.001   0.563  11.228
 3947SOL    HW213739  14.134   0.492  11.213
 3948SOL     OW13740   4.038  12.225   0.698
 3948SOL    HW113741   4.070  12.231   0.608
 3948SOL    HW213742   4.012  12.134   0.709
 3949SOL     OW13743  12.719  11.351   7.294
 3949SOL    HW113744  12.708  11.353   7.389
 3949SOL    HW213745  12.704  11.441   7.266
 3950SOL     OW13746  13.392  13.366  14.021
 3950SOL    HW113747  13.368  13.354  14.113
 3950SOL    HW213748  13.402  13.277  13.986
 3951SOL     OW13749   6.545   4.125   1.560
 3951SOL    HW113750   6.464   4.106   1.608
 3951SOL    HW213751   6.526   4.205   1.512
 3952SOL     OW13752   1.952   1.656   9.509
 3952SOL    HW113753   1.991   1.743   9.502
 3952SOL    HW213754   1.981   1.610   9.430
 3953SOL     OW13755   7.386   1.282  13.664
 3953SOL    HW113756   7.462   1.333  13.694
 3953SOL    HW213757   7.326   1.347  13.629
 3954SOL     OW13758  10.270  14.039  13.154
 3954SOL    HW113759  10.184  14.020  13.117
 3954SOL    HW213760  10.285  14.131  13.133
 3955SOL     OW13761   6.018  11.868  13.845
 3955SOL    HW113762   5.963  11.923  13.789
 3955SOL    HW213763   6.105  11.872  13.805
 3956SOL     OW13764   0.473   4.106  11.692
 3956SOL    HW113765   0.516   4.074  11.772
 3956SOL    HW213766   0.404   4.165  11.725
 3957SOL     OW13767   8.199  10.197   1.095
 3957SOL    HW113768   8.289  10.227   1.081
 3957SOL    HW213769   8.148  10.277   1.107
 3958SOL     OW13770  13.971  11.225  13.799
 3958SOL    HW113771  14.002  11.187  13.881
 3958SOL    HW213772  13.876  11.219  13.805
 3959SOL     OW13773   5.182   2.382   4.714
 3959SOL    HW113774   5.136   2.433   4.647
 3959SOL    HW213775   5.180   2.292   4.681
 3960SOL     OW13776   9.219  14.709   9.338
 3960SOL    HW113777   9.260  14.737   9.256
 3960SOL    HW213778   9.214  14.788   9.391
 3961SOL     OW13779  11.916  13.330   4.696
 3961SOL    HW113780  11.864  13.372   4.764
 3961SOL    HW213781  11.938  13.401   4.635
 3962SOL     OW13782   6.648  11.075   4.649
 3962SOL    HW113783   6.729  11.072   4.700
 3962SOL    HW213784   6.655  11.156   4.598
 3963SOL     OW13785   9.750   3.236  11.458
 3963SOL    HW113786   9.761   3.294  11.534
 3963SOL    HW213787   9.695   3.285  11.398
 3964SOL     OW13788   3.910   8.571   7.473
 3964SOL    HW113789   3.992   8.533   7.504
 3964SOL    HW213790   3.926   8.666   7.473
 3965SOL     OW13791   1.277  11.263   0.500
 3965SOL    HW113792   1.236  11.259   0.413
 3965SOL    HW213793   1.370  11.279   0.483
 3966SOL     OW13794   9.573  10.198   6.190
 3966SOL    HW113795   9.484  10.170   6.212
 3966SOL    HW213796   9.606  10.238   6.270
 3967SOL     OW13797   5.491  12.047  12.987
 3967SOL    HW113798   5.519  12.114  12.923
 3967SOL    HW213799   5.545  12.064  13.064
 3968SOL     OW13800   0.170   6.997   6.752
 3968SOL    HW113801   0.148   6.912   6.712
 3968SOL    HW213802   0.089   7.047   6.746
 3969SOL     OW13803   3.330  14.034   2.511
 3969SOL    HW113804   3.387  13.975   2.560
 3969SOL    HW213805   3.363  14.122   2.530
 3970SOL     OW13806   5.298   9.667   3.488
 3970SOL    HW113807   5.341   9.582   3.479
 3970SOL    HW213808   5.206   9.650   3.467
 3971SOL     OW13809  14.388   2.106   3.265
 3971SOL    HW113810  14.306   2.122   3.312
 3971SOL    HW213811  14.430   2.035   3.313
 3972SOL     OW13812   1.710   6.066   6.708
 3972SOL    HW113813   1.734   5.982   6.670
 3972SOL    HW213814   1.643   6.101   6.649
 3973SOL     OW13815   6.307  12.075   6.808
 3973SOL    HW113816   6.385  12.050   6.857
 3973SOL    HW213817   6.299  12.169   6.824
 3974SOL     OW13818   3.915  10.946  13.038
 3974SOL    HW113819   3.977  10.918  13.106
 3974SOL    HW213820   3.929  10.884  12.967
 3975SOL     OW13821   4.846  13.220   2.491
 3975SOL    HW113822   4.905  13.174   2.552
 3975SOL    HW213823   4.839  13.161   2.416
 3976SOL     OW13824   2.886   1.396   3.712
 3976SOL    HW113825   2.870   1.318   3.765
 3976SOL    HW213826   2.920   1.363   3.629
 3977SOL     OW13827   1.011   3.026   6.553
 3977SOL    HW113828   1.042   3.116   6.564
 3977SOL    HW213829   0.953   3.030   6.477
 3978SOL     OW13830  12.668   4.037   0.990
 3978SOL    HW113831  12.643   3.975   1.059
 3978SOL    HW213832  12.754   4.006   0.960
 3979SOL     OW13833  10.097   7.625   1.672
 3979SOL    HW113834  10.179   7.664   1.702
 3979SOL    HW213835  10.046   7.699   1.638
 3980SOL     OW13836   8.126   8.152   7.799
 3980SOL    HW113837   8.140   8.184   7.887
 3980SOL    HW213838   8.214   8.137   7.764
 3981SOL     OW13839  12.983  11.308   1.318
 3981SOL    HW113840  12.910  11.264   1.276
 3981SOL    HW213841  13.061  11.262   1.286
 3982SOL     OW13842   5.858  10.974   0.762
 3982SOL    HW113843   5.799  11.001   0.690
 3982SOL    HW213844   5.941  11.015   0.741
 3983SOL     OW13845   3.611  13.244   6.395
 3983SOL    HW113846   3.639  13.232   6.305
 3983SOL    HW213847   3.598  13.338   6.405
 3984SOL     OW13848   9.720   7.244   7.197
 3984SOL    HW113849   9.728   7.179   7.128
 3984SOL    HW213850   9.769   7.320   7.165
 3985SOL     OW13851   1.230  10.155   6.655
 3985SOL    HW113852   1.303  10.097   6.677
 3985SOL    HW213853   1.158  10.095   6.635
 3986SOL     OW13854   4.122   9.664   1.248
 3986SOL    HW113855   4.050   9.614   1.210
 3986SOL    HW213856   4.199   9.608   1.238
 3987SOL     OW13857  14.053   9.044  13.625
 3987SOL    HW113858  14.063   8.966  13.680
 3987SOL    HW213859  14.000   9.016  13.551
 3988SOL     OW13860   6.465  11.985  14.442
 3988SOL    HW113861   6.377  12.019  14.459
 3988SOL    HW213862   6.507  11.984  14.528
 3989SOL     OW13863  12.959   9.866   8.975
 3989SOL    HW113864  13.021   9.829   8.913
 3989SOL    HW213865  13.000   9.851   9.061
 3990SOL     OW13866  12.823   2.391   5.518
 3990SOL    HW113867  12.765   2.323   5.550
 3990SOL    HW213868  12.771   2.471   5.522
 3991SOL     OW13869   6.031   9.069   8.807
 3991SOL    HW113870   6.118   9.082   8.845
 3991SOL    HW213871   5.978   9.038   8.880
 3992SOL     OW13872  13.985  10.836   5.713
 3992SOL    HW113873  13.931  10.771   5.669
 3992SOL    HW213874  13.937  10.919   5.701
 3993SOL     OW13875   4.235  12.793   5.161
 3993SOL    HW113876   4.318  12.782   5.115
 3993SOL    HW213877   4.186  12.714   5.141
 3994SOL     OW13878  10.234  12.615   1.506
 3994SOL    HW113879  10.159  12.584   1.454
 3994SOL    HW213880  10.303  12.551   1.489
 3995SOL     OW13881   8.528   9.222   2.205
 3995SOL    HW113882   8.611   9.218   2.251
 3995SOL    HW213883   8.489   9.306   2.230
 3996SOL     OW13884   7.111   4.311  14.799
 3996SOL    HW113885   7.115   4.406  14.787
 3996SOL    HW213886   7.151   4.276  14.719
 3997SOL     OW13887  14.691   9.044   7.147
 3997SOL    HW113888  14.652   9.017   7.064
 3997SOL    HW213889  14.655   8.983   7.211
 3998SOL     OW13890  12.440   5.498   2.584
 3998SOL    HW113891  12.511   5.511   2.647
 3998SOL    HW213892  12.411   5.586   2.562
 3999SOL     OW13893   2.951   1.840   5.922
 3999SOL    HW113894   2.883   1.772   5.923
 3999SOL    HW213895   3.029   1.794   5.891
 4000SOL     OW13896   0.196   9.970   6.256
 4000SOL    HW113897   0.177   9.920   6.336
 4000SOL    HW213898   0.291   9.963   6.245
 4001SOL     OW13899  14.392  14.117   6.824
 4001SOL    HW113900  14.464  14.159   6.871
 4001SOL    HW213901  14.316  14.171   6.842
 4002SOL     OW13902  14.522  10.769  10.538
 4002SOL    HW113903  14.568  10.751  10.620
 4002SOL    HW213904  14.455  10.833  10.561
 4003SOL     OW13905   9.838   5.552   6.777
 4003SOL    HW113906   9.868   5.557   6.867
 4003SOL    HW213907   9.860   5.463   6.748
 4004SOL     OW13908   7.388   3.287   9.662
 4004SOL    HW113909   7.344   3.368   9.635
 4004SOL    HW213910   7.463   3.280   9.603
 4005SOL     OW13911   3.832   7.887   0.336
 4005SOL    HW113912   3.751   7.860   0.292
 4005SOL    HW213913   3.816   7.978   0.360
 4006SOL     OW13914   8.550  11.461  13.102
 4006SOL    HW113915   8.475  11.440  13.158
 4006SOL    HW213916   8.598  11.528  13.150
 4007SOL     OW13917   2.851  13.004   8.489
 4007SOL    HW113918   2.932  13.024   8.536
 4007SOL    HW213919   2.880  12.972   8.404
 4008SOL     OW13920   6.673  13.978  10.910
 4008SOL    HW113921   6.583  13.949  10.895
 4008SOL    HW213922   6.727  13.911  10.869
 4009SOL     OW13923   2.056   8.664   0.875
 4009SOL    HW113924   2.008   8.736   0.833
 4009SOL    HW213925   1.998   8.634   0.945
 4010SOL     OW13926   2.719   5.297   3.125
 4010SOL    HW113927   2.705   5.256   3.040
 4010SOL    HW213928   2.812   5.317   3.127
 4011SOL     OW13929   3.073   3.712   2.608
 4011SOL    HW113930   2.995   3.765   2.593
 4011SOL    HW213931   3.140   3.750   2.551
 4012SOL     OW13932   6.117   2.749  13.701
 4012SOL    HW113933   6.171   2.808  13.754
 4012SOL    HW213934   6.181   2.694  13.655
 4013SOL     OW13935   6.238  14.871  11.766
 4013SOL    HW113936   6.271  14.807  11.702
 4013SOL    HW213937   6.316   0.027  11.811
 4014SOL     OW13938   8.677   0.859   4.935
 4014SOL    HW113939   8.617   0.932   4.919
 4014SOL    HW213940   8.708   0.873   5.025
 4015SOL     OW13941  13.636  13.477   9.463
 4015SOL    HW113942  13.563  13.449   9.518
 4015SOL    HW213943  13.631  13.420   9.386
 4016SOL     OW13944   0.976  14.343   4.454
 4016SOL    HW113945   1.065  14.370   4.478
 4016SOL    HW213946   0.946  14.413   4.396
 4017SOL     OW13947   2.905   7.312  14.110
 4017SOL    HW113948   2.899   7.219  14.086
 4017SOL    HW213949   2.837   7.324  14.176
 4018SOL     OW13950   3.666   8.587   5.927
 4018SOL    HW113951   3.738   8.575   5.864
 4018SOL    HW213952   3.710   8.605   6.010
 4019SOL     OW13953  13.606   5.873   5.477
 4019SOL    HW113954  13.635   5.930   5.406
 4019SOL    HW213955  13.686   5.849   5.523
 4020SOL     OW13956   1.655   0.899   9.035
 4020SOL    HW113957   1.739   0.857   9.052
 4020SOL    HW213958   1.657   0.918   8.941
 4021SOL     OW13959   6.972   5.147   9.399
 4021SOL    HW113960   7.046   5.203   9.378
 4021SOL    HW213961   7.008   5.058   9.397
 4022SOL     OW13962   3.807   0.822   1.892
 4022SOL    HW113963   3.880   0.777   1.934
 4022SOL    HW213964   3.730   0.791   1.939
 4023SOL     OW13965  14.096   9.014  14.066
 4023SOL    HW113966  14.107   9.082  14.133
 4023SOL    HW213967  14.095   9.062  13.983
 4024SOL     OW13968   7.663   0.456   2.755
 4024SOL    HW113969   7.748   0.484   2.787
 4024SOL    HW213970   7.668   0.467   2.660
 4025SOL     OW13971   3.584  14.509   0.390
 4025SOL    HW113972   3.632  14.576   0.438
 4025SOL    HW213973   3.508  14.490   0.445
 4026SOL     OW13974  12.002   0.544   7.966
 4026SOL    HW113975  12.052   0.466   7.989
 4026SOL    HW213976  11.934   0.550   8.033
 4027SOL     OW13977   6.452   3.005   3.694
 4027SOL    HW113978   6.430   3.011   3.601
 4027SOL    HW213979   6.374   2.965   3.734
 4028SOL     OW13980   3.308   9.611  12.123
 4028SOL    HW113981   3.364   9.687  12.138
 4028SOL    HW213982   3.294   9.609  12.029
 4029SOL     OW13983   4.092   7.199   5.377
 4029SOL    HW113984   4.045   7.154   5.307
 4029SOL    HW213985   4.171   7.234   5.334
 4030SOL     OW13986   3.443  13.019   7.302
 4030SOL    HW113987   3.358  13.063   7.295
 4030SOL    HW213988   3.505  13.082   7.265
 4031SOL     OW13989  13.966  13.772  10.264
 4031SOL    HW113990  13.900  13.840  10.256
 4031SOL    HW213991  14.036  13.798  10.204
 4032SOL     OW13992   0.699  11.680   6.872
 4032SOL    HW113993   0.717  11.732   6.950
 4032SOL    HW213994   0.700  11.743   6.800
 4033SOL     OW13995   2.525   0.327   0.543
 4033SOL    HW113996   2.618   0.347   0.532
 4033SOL    HW213997   2.481   0.377   0.475
 4034SOL     OW13998   5.745   1.305  13.001
 4034SOL    HW113999   5.696   1.377  12.960
 4034SOL    HW214000   5.764   1.245  12.929
 4035SOL     OW14001   3.568  14.724   7.690
 4035SOL    HW114002   3.519  14.773   7.757
 4035SOL    HW214003   3.597  14.791   7.628
 4036SOL     OW14004  13.939   1.738   1.319
 4036SOL    HW114005  13.864   1.727   1.260
 4036SOL    HW214006  13.903   1.721   1.407
 4037SOL     OW14007   7.146  11.549  10.585
 4037SOL    HW114008   7.099  11.632  10.573
 4037SOL    HW214009   7.141  11.506  10.500
 4038SOL     OW14010   4.558  10.161  10.190
 4038SOL    HW114011   4.464  10.158  10.207
 4038SOL    HW214012   4.586  10.069  10.193
 4039SOL     OW14013   4.396  11.690   5.727
 4039SOL    HW114014   4.349  11.728   5.802
 4039SOL    HW214015   4.472  11.747   5.715
 4040SOL     OW14016   3.757  14.352  11.257
 4040SOL    HW114017   3.754  14.427  11.198
 4040SOL    HW214018   3.674  14.306  11.242
 4041SOL     OW14019  12.096   3.021   9.202
 4041SOL    HW114020  12.054   3.020   9.287
 4041SOL    HW214021  12.024   3.018   9.139
 4042SOL     OW14022  12.603  11.476  10.425
 4042SOL    HW114023  12.556  11.556  10.402
 4042SOL    HW214024  12.656  11.500  10.500
 4043SOL     OW14025   6.439   9.189   6.599
 4043SOL    HW114026   6.525   9.176   6.640
 4043SOL    HW214027   6.382   9.216   6.671
 4044SOL     OW14028   5.590   1.003   0.207
 4044SOL    HW114029   5.684   1.000   0.224
 4044SOL    HW214030   5.566   0.913   0.187
 4045SOL     OW14031   6.112   8.098  14.305
 4045SOL    HW114032   6.114   8.193  14.313
 4045SOL    HW214033   6.052   8.081  14.233
 4046SOL     OW14034   1.892   7.927  10.277
 4046SOL    HW114035   1.874   7.897  10.366
 4046SOL    HW214036   1.988   7.928  10.272
 4047SOL     OW14037   3.036  12.318   5.003
 4047SOL    HW114038   3.103  12.299   4.937
 4047SOL    HW214039   3.007  12.407   4.983
 4048SOL     OW14040   0.279   3.529   1.546
 4048SOL    HW114041   0.373   3.544   1.547
 4048SOL    HW214042   0.264   3.478   1.466
 4049SOL     OW14043   9.737   7.776   2.730
 4049SOL    HW114044   9.758   7.869   2.726
 4049SOL    HW214045   9.817   7.732   2.702
 4050SOL     OW14046  13.822   5.166   6.676
 4050SOL    HW114047  13.883   5.234   6.703
 4050SOL    HW214048  13.877   5.088   6.664
 4051SOL     OW14049  12.282   0.356  14.622
 4051SOL    HW114050  12.254   0.379  14.534
 4051SOL    HW214051  12.375   0.335  14.614
 4052SOL     OW14052  10.597  12.753  12.629
 4052SOL    HW114053  10.526  12.787  12.574
 4052SOL    HW214054  10.620  12.669  12.589
 4053SOL     OW14055  11.767   3.094   4.148
 4053SOL    HW114056  11.724   3.012   4.170
 4053SOL    HW214057  11.712   3.134   4.081
 4054SOL     OW14058  11.148   3.880   7.322
 4054SOL    HW114059  11.073   3.938   7.305
 4054SOL    HW214060  11.131   3.843   7.408
 4055SOL     OW14061   3.461   6.026   4.836
 4055SOL    HW114062   3.542   6.066   4.806
 4055SOL    HW214063   3.480   5.994   4.924
 4056SOL     OW14064   1.864   6.283   5.180
 4056SOL    HW114065   1.936   6.312   5.236
 4056SOL    HW214066   1.847   6.193   5.207
 4057SOL     OW14067  11.319   3.932  11.659
 4057SOL    HW114068  11.233   3.905  11.692
 4057SOL    HW214069  11.298   3.984  11.581
 4058SOL     OW14070  11.879   2.963   0.100
 4058SOL    HW114071  11.863   2.939   0.008
 4058SOL    HW214072  11.791   2.974   0.137
 4059SOL     OW14073   4.712   4.369   9.986
 4059SOL    HW114074   4.745   4.362  10.076
 4059SOL    HW214075   4.769   4.433   9.944
 4060SOL     OW14076  14.539   1.113   1.069
 4060SOL    HW114077  14.502   1.045   1.013
 4060SOL    HW214078  14.494   1.103   1.153
 4061SOL     OW14079   7.899  10.183   8.929
 4061SOL    HW114080   7.958  10.109   8.944
 4061SOL    HW214081   7.817  10.143   8.901
 4062SOL     OW14082   4.947   1.175   1.090
 4062SOL    HW114083   4.890   1.239   1.132
 4062SOL    HW214084   5.010   1.152   1.158
 4063SOL     OW14085   1.046   9.212  12.866
 4063SOL    HW114086   1.025   9.302  12.892
 4063SOL    HW214087   0.970   9.184  12.815
 4064SOL     OW14088   5.667  11.015  13.386
 4064SOL    HW114089   5.678  11.029  13.480
 4064SOL    HW214090   5.621  11.092  13.355
 4065SOL     OW14091  13.759   7.279  12.749
 4065SOL    HW114092  13.677   7.303  12.706
 4065SOL    HW214093  13.737   7.276  12.842
 4066SOL     OW14094   3.829   3.886   6.594
 4066SOL    HW114095   3.821   3.834   6.673
 4066SOL    HW214096   3.923   3.892   6.578
 4067SOL     OW14097  12.625  12.059   3.171
 4067SOL    HW114098  12.719  12.043   3.181
 4067SOL    HW214099  12.584  12.001   3.236
 4068SOL     OW14100  14.431  11.836  10.807
 4068SOL    HW114101  14.354  11.784  10.833
 4068SOL    HW214102  14.465  11.792  10.729
 4069SOL     OW14103   7.166   5.349   9.374
 4069SOL    HW114104   7.194   5.388   9.292
 4069SOL    HW214105   7.221   5.390   9.441
 4070SOL     OW14106   4.901   2.204  14.015
 4070SOL    HW114107   4.929   2.288  14.051
 4070SOL    HW214108   4.865   2.225  13.929
 4071SOL     OW14109   4.014   7.452  13.594
 4071SOL    HW114110   4.000   7.452  13.499
 4071SOL    HW214111   4.051   7.538  13.613
 4072SOL     OW14112   0.486   4.657   4.853
 4072SOL    HW114113   0.523   4.718   4.789
 4072SOL    HW214114   0.539   4.670   4.932
 4073SOL     OW14115  10.249   4.394   4.414
 4073SOL    HW114116  10.270   4.485   4.389
 4073SOL    HW214117  10.310   4.341   4.362
 4074SOL     OW14118  14.741   3.324   6.006
 4074SOL    HW114119  14.735   3.397   6.068
 4074SOL    HW214120  14.825   3.282   6.027
 4075SOL     OW14121  14.002   0.006   5.990
 4075SOL    HW114122  13.961   0.081   5.948
 4075SOL    HW214123  14.054  14.841   5.920
 4076SOL     OW14124   9.523   9.090   2.369
 4076SOL    HW114125   9.449   9.059   2.316
 4076SOL    HW214126   9.503   9.181   2.388
 4077SOL     OW14127   0.169   3.990   7.479
 4077SOL    HW114128   0.153   3.974   7.386
 4077SOL    HW214129   0.083   3.982   7.519
 4078SOL     OW14130  14.477   4.256   3.210
 4078SOL    HW114131  14.525   4.270   3.128
 4078SOL    HW214132  14.498   4.333   3.263
 4079SOL     OW14133   9.490  11.715  11.196
 4079SOL    HW114134   9.418  11.778  11.207
 4079SOL    HW214135   9.477  11.651  11.266
 4080SOL     OW14136   7.879   8.427  11.273
 4080SOL    HW114137   7.794   8.395  11.303
 4080SOL    HW214138   7.942   8.366  11.310
 4081SOL     OW14139   4.945   3.073   1.570
 4081SOL    HW114140   4.852   3.065   1.548
 4081SOL    HW214141   4.947   3.074   1.666
 4082SOL     OW14142   0.900   6.703   9.952
 4082SOL    HW114143   0.893   6.612   9.979
 4082SOL    HW214144   0.820   6.744   9.984
 4083SOL     OW14145   0.613   8.454  14.216
 4083SOL    HW114146   0.563   8.436  14.296
 4083SOL    HW214147   0.620   8.369  14.173
 4084SOL     OW14148   1.383   2.471  10.984
 4084SOL    HW114149   1.354   2.405  10.922
 4084SOL    HW214150   1.440   2.424  11.044
 4085SOL     OW14151   3.987  14.526  12.498
 4085SOL    HW114152   3.897  14.499  12.515
 4085SOL    HW214153   3.998  14.519  12.403
 4086SOL     OW14154  11.002   5.804   6.380
 4086SOL    HW114155  10.946   5.739   6.423
 4086SOL    HW214156  11.088   5.763   6.375
 4087SOL     OW14157   6.524   7.215  13.276
 4087SOL    HW114158   6.510   7.189  13.367
 4087SOL    HW214159   6.528   7.133  13.228
 4088SOL     OW14160   0.130  12.052  11.444
 4088SOL    HW114161   0.118  12.036  11.538
 4088SOL    HW214162   0.051  12.099  11.417
 4089SOL     OW14163  11.821  12.556  10.120
 4089SOL    HW114164  11.735  12.599  10.113
 4089SOL    HW214165  11.847  12.570  10.211
 4090SOL     OW14166  11.931   6.695   8.196
 4090SOL    HW114167  11.960   6.616   8.151
 4090SOL    HW214168  11.898   6.752   8.126
 4091SOL     OW14169   2.060   1.500  13.884
 4091SOL    HW114170   1.974   1.529  13.856
 4091SOL    HW214171   2.121   1.543  13.824
 4092SOL     OW14172   7.239  11.702   1.644
 4092SOL    HW114173   7.183  11.627   1.664
 4092SOL    HW214174   7.179  11.770   1.614
 4093SOL     OW14175  10.586   7.845   5.216
 4093SOL    HW114176  10.643   7.794   5.273
 4093SOL    HW214177  10.599   7.807   5.129
 4094SOL     OW14178   2.024   0.132   3.905
 4094SOL    HW114179   1.992   0.075   3.835
 4094SOL    HW214180   2.069   0.073   3.965
 4095SOL     OW14181   6.530  14.794   8.559
 4095SOL    HW114182   6.625  14.799   8.557
 4095SOL    HW214183   6.506  14.815   8.650
 4096SOL     OW14184   6.318   4.399   0.344
 4096SOL    HW114185   6.284   4.310   0.347
 4096SOL    HW214186   6.408   4.391   0.376
 4097SOL     OW14187  13.527  14.632   7.915
 4097SOL    HW114188  13.524  14.576   7.992
 4097SOL    HW214189  13.595  14.697   7.934
 4098SOL     OW14190  13.903  12.692  12.101
 4098SOL    HW114191  13.839  12.758  12.074
 4098SOL    HW214192  13.925  12.646  12.020
 4099SOL     OW14193   8.859   9.723  13.166
 4099SOL    HW114194   8.870   9.816  13.185
 4099SOL    HW214195   8.933   9.681  13.210
 4100SOL     OW14196  14.252   8.505   8.854
 4100SOL    HW114197  14.274   8.598   8.863
 4100SOL    HW214198  14.298   8.477   8.775
 4101SOL     OW14199  11.584  11.689  11.320
 4101SOL    HW114200  11.559  11.778  11.293
 4101SOL    HW214201  11.502  11.648  11.346
 4102SOL     OW14202  10.830   8.367   4.678
 4102SOL    HW114203  10.864   8.277   4.675
 4102SOL    HW214204  10.844   8.394   4.769
 4103SOL     OW14205   0.146   2.023   7.133
 4103SOL    HW114206   0.232   2.053   7.105
 4103SOL    HW214207   0.091   2.101   7.131
 4104SOL     OW14208   0.500   7.858   0.447
 4104SOL    HW114209   0.524   7.822   0.533
 4104SOL    HW214210   0.553   7.937   0.438
 4105SOL     OW14211   1.544  10.513   5.976
 4105SOL    HW114212   1.454  10.514   6.009
 4105SOL    HW214213   1.542  10.450   5.904
 4106SOL     OW14214   9.920   0.865  12.101
 4106SOL    HW114215   9.855   0.795  12.096
 4106SOL    HW214216  10.004   0.821  12.086
 4107SOL     OW14217   2.263   4.611   4.773
 4107SOL    HW114218   2.303   4.625   4.687
 4107SOL    HW214219   2.337   4.601   4.833
 4108SOL     OW14220  14.740   1.186   5.723
 4108SOL    HW114221  14.724   1.093   5.708
 4108SOL    HW214222  14.655   1.227   5.711
 4109SOL     OW14223   8.833  12.780  12.202
 4109SOL    HW114224   8.889  12.736  12.266
 4109SOL    HW214225   8.893  12.814  12.136
 4110SOL     OW14226  14.119   5.970   9.985
 4110SOL    HW114227  14.051   6.036   9.973
 4110SOL    HW214228  14.127   5.960  10.080
 4111SOL     OW14229   6.991   7.848   8.093
 4111SOL    HW114230   7.029   7.783   8.152
 4111SOL    HW214231   7.053   7.853   8.020
 4112SOL     OW14232  13.605   1.744   2.746
 4112SOL    HW114233  13.542   1.764   2.677
 4112SOL    HW214234  13.676   1.807   2.733
 4113SOL     OW14235   5.017  11.088   9.952
 4113SOL    HW114236   5.020  11.111  10.045
 4113SOL    HW214237   4.937  11.131   9.920
 4114SOL     OW14238   5.204  13.519   3.932
 4114SOL    HW114239   5.264  13.497   4.003
 4114SOL    HW214240   5.184  13.612   3.946
 4115SOL     OW14241  12.517   3.330   2.027
 4115SOL    HW114242  12.533   3.360   2.117
 4115SOL    HW214243  12.592   3.275   2.006
 4116SOL     OW14244  10.491   6.151   3.778
 4116SOL    HW114245  10.428   6.158   3.707
 4116SOL    HW214246  10.483   6.234   3.826
 4117SOL     OW14247   7.879   8.088  12.427
 4117SOL    HW114248   7.798   8.113  12.470
 4117SOL    HW214249   7.879   7.993  12.430
 4118SOL     OW14250   4.468   8.298   2.107
 4118SOL    HW114251   4.497   8.212   2.137
 4118SOL    HW214252   4.533   8.359   2.142
 4119SOL     OW14253   6.726  11.913   1.313
 4119SOL    HW114254   6.665  11.981   1.284
 4119SOL    HW214255   6.694  11.888   1.400
 4120SOL     OW14256   1.100   1.291   9.366
 4120SOL    HW114257   1.168   1.244   9.317
 4120SOL    HW214258   1.140   1.376   9.388
 4121SOL     OW14259   1.326   6.762   3.817
 4121SOL    HW114260   1.405   6.712   3.797
 4121SOL    HW214261   1.301   6.733   3.904
 4122SOL     OW14262   4.994  10.497   4.348
 4122SOL    HW114263   5.056  10.551   4.300
 4122SOL    HW214264   5.031  10.489   4.436
 4123SOL     OW14265   5.130   0.434   5.505
 4123SOL    HW114266   5.075   0.373   5.455
 4123SOL    HW214267   5.082   0.516   5.503
 4124SOL     OW14268   9.957  14.696   2.090
 4124SOL    HW114269   9.876  14.746   2.080
 4124SOL    HW214270  10.009  14.747   2.152
 4125SOL     OW14271   5.596   5.217   4.897
 4125SOL    HW114272   5.549   5.284   4.847
 4125SOL    HW214273   5.600   5.142   4.837
 4126SOL     OW14274  10.591   3.532   7.809
 4126SOL    HW114275  10.578   3.486   7.891
 4126SOL    HW214276  10.527   3.603   7.811
 4127SOL     OW14277  10.179   3.496   6.541
 4127SOL    HW114278  10.255   3.443   6.562
 4127SOL    HW214279  10.130   3.503   6.623
 4128SOL     OW14280   5.257   8.842  12.376
 4128SOL    HW114281   5.248   8.801  12.462
 4128SOL    HW214282   5.219   8.929  12.386
 4129SOL     OW14283   5.394   3.744  14.360
 4129SOL    HW114284   5.325   3.715  14.420
 4129SOL    HW214285   5.468   3.765  14.417
 4130SOL     OW14286   6.672   4.165   3.153
 4130SOL    HW114287   6.578   4.182   3.161
 4130SOL    HW214288   6.711   4.206   3.230
 4131SOL     OW14289   4.215   8.907   1.739
 4131SOL    HW114290   4.131   8.929   1.781
 4131SOL    HW214291   4.242   8.988   1.697
 4132SOL     OW14292   0.808   5.721   6.863
 4132SOL    HW114293   0.872   5.761   6.922
 4132SOL    HW214294   0.724   5.732   6.908
 4133SOL     OW14295   6.918   0.354  13.501
 4133SOL    HW114296   6.989   0.290  13.496
 4133SOL    HW214297   6.888   0.364  13.411
 4134SOL     OW14298   8.150   5.348   0.541
 4134SOL    HW114299   8.140   5.268   0.490
 4134SOL    HW214300   8.238   5.380   0.519
 4135SOL     OW14301   6.278   7.359   9.835
 4135SOL    HW114302   6.356   7.334   9.885
 4135SOL    HW214303   6.293   7.323   9.748
 4136SOL     OW14304   8.137   2.146   3.158
 4136SOL    HW114305   8.107   2.207   3.226
 4136SOL    HW214306   8.065   2.083   3.150
 4137SOL     OW14307   7.068   5.132   8.372
 4137SOL    HW114308   7.076   5.094   8.460
 4137SOL    HW214309   7.003   5.078   8.328
 4138SOL     OW14310  12.014   3.006  12.939
 4138SOL    HW114311  12.062   3.037  12.862
 4138SOL    HW214312  11.962   2.933  12.907
 4139SOL     OW14313  11.662   5.785   1.470
 4139SOL    HW114314  11.628   5.847   1.536
 4139SOL    HW214315  11.616   5.808   1.390
 4140SOL     OW14316  11.313  10.618  13.358
 4140SOL    HW114317  11.274  10.613  13.271
 4140SOL    HW214318  11.314  10.527  13.389
 4141SOL     OW14319  11.122   6.519   3.785
 4141SOL    HW114320  11.199   6.471   3.757
 4141SOL    HW214321  11.053   6.453   3.791
 4142SOL     OW14322   2.109   3.327  10.185
 4142SOL    HW114323   2.193   3.359  10.216
 4142SOL    HW214324   2.047   3.395  10.209
 4143SOL     OW14325   9.873  14.741   2.951
 4143SOL    HW114326   9.806  14.809   2.961
 4143SOL    HW214327   9.946  14.771   3.006
 4144SOL     OW14328  13.768   0.334   7.064
 4144SOL    HW114329  13.687   0.359   7.110
 4144SOL    HW214330  13.831   0.318   7.134
 4145SOL     OW14331   9.052  11.466   6.841
 4145SOL    HW114332   9.087  11.554   6.849
 4145SOL    HW214333   9.113  11.411   6.889
 4146SOL     OW14334   0.549   8.050  13.396
 4146SOL    HW114335   0.560   7.967  13.441
 4146SOL    HW214336   0.487   8.032  13.326
 4147SOL     OW14337   9.756   7.173  14.605
 4147SOL    HW114338   9.662   7.159  14.594
 4147SOL    HW214339   9.771   7.164  14.700
 4148SOL     OW14340   5.534   3.355   4.246
 4148SOL    HW114341   5.536   3.425   4.180
 4148SOL    HW214342   5.537   3.274   4.195
 4149SOL     OW14343   2.786  12.539  10.071
 4149SOL    HW114344   2.759  12.566   9.983
 4149SOL    HW214345   2.748  12.451  10.081
 4150SOL     OW14346   5.505   5.425   0.514
 4150SOL    HW114347   5.598   5.439   0.529
 4150SOL    HW214348   5.492   5.332   0.533
 4151SOL     OW14349   4.312   4.137   6.004
 4151SOL    HW114350   4.351   4.051   5.989
 4151SOL    HW214351   4.364   4.196   5.951
 4152SOL     OW14352   0.948   6.945   6.025
 4152SOL    HW114353   0.988   7.019   5.980
 4152SOL    HW214354   0.854   6.957   6.012
 4153SOL     OW14355  13.432   1.031  11.904
 4153SOL    HW114356  13.454   0.938  11.906
 4153SOL    HW214357  13.423   1.055  11.996
 4154SOL     OW14358  14.373  10.941   3.184
 4154SOL    HW114359  14.296  10.932   3.240
 4154SOL    HW214360  14.337  10.960   3.097
 4155SOL     OW14361   7.269  11.617   8.799
 4155SOL    HW114362   7.285  11.676   8.725
 4155SOL    HW214363   7.229  11.539   8.760
 4156SOL     OW14364   3.447  11.000  14.341
 4156SOL    HW114365   3.373  11.052  14.371
 4156SOL    HW214366   3.463  10.938  14.412
 4157SOL     OW14367  12.319   9.986  12.927
 4157SOL    HW114368  12.243  10.033  12.893
 4157SOL    HW214369  12.364   9.953  12.848
 4158SOL     OW14370   9.234  14.801   1.178
 4158SOL    HW114371   9.166  14.816   1.243
 4158SOL    HW214372   9.190  14.814   1.094
 4159SOL     OW14373   4.550   1.476   6.138
 4159SOL    HW114374   4.592   1.395   6.167
 4159SOL    HW214375   4.480   1.447   6.080
 4160SOL     OW14376   7.132   9.371   6.006
 4160SOL    HW114377   7.224   9.380   5.980
 4160SOL    HW214378   7.126   9.280   6.037
 4161SOL     OW14379  12.462   9.633  10.104
 4161SOL    HW114380  12.419   9.658  10.023
 4161SOL    HW214381  12.483   9.716  10.147
 4162SOL     OW14382   2.646   1.747   3.853
 4162SOL    HW114383   2.695   1.709   3.780
 4162SOL    HW214384   2.708   1.808   3.894
 4163SOL     OW14385  14.789   1.475  12.880
 4163SOL    HW114386  14.699   1.495  12.854
 4163SOL    HW214387  14.818   1.553  12.927
 4164SOL     OW14388   6.494  13.175  11.908
 4164SOL    HW114389   6.581  13.136  11.919
 4164SOL    HW214390   6.452  13.164  11.993
 4165SOL     OW14391   4.882  14.855   3.319
 4165SOL    HW114392   4.878  14.772   3.366
 4165SOL    HW214393   4.915  14.832   3.232
 4166SOL     OW14394   6.446   2.443  12.927
 4166SOL    HW114395   6.352   2.453  12.944
 4166SOL    HW214396   6.488   2.505  12.987
 4167SOL     OW14397  12.793  14.058   0.955
 4167SOL    HW114398  12.786  14.026   0.865
 4167SOL    HW214399  12.797  13.979   1.009
 4168SOL     OW14400   0.374   7.971  13.197
 4168SOL    HW114401   0.350   8.019  13.117
 4168SOL    HW214402   0.295   7.922  13.220
 4169SOL     OW14403  12.717   1.472   0.541
 4169SOL    HW114404  12.709   1.487   0.446
 4169SOL    HW214405  12.676   1.549   0.580
 4170SOL     OW14406   1.627   5.703   6.776
 4170SOL    HW114407   1.671   5.769   6.722
 4170SOL    HW214408   1.613   5.745   6.860
 4171SOL     OW14409   6.654   3.958   1.388
 4171SOL    HW114410   6.605   4.024   1.438
 4171SOL    HW214411   6.606   3.877   1.404
 4172SOL     OW14412  14.099  13.478   9.601
 4172SOL    HW114413  14.183  13.466   9.557
 4172SOL    HW214414  14.086  13.573   9.602
 4173SOL     OW14415   1.084   6.099   6.031
 4173SOL    HW114416   1.079   6.096   6.126
 4173SOL    HW214417   1.105   6.191   6.011
 4174SOL     OW14418   0.602   5.810   2.344
 4174SOL    HW114419   0.641   5.896   2.336
 4174SOL    HW214420   0.558   5.811   2.429
 4175SOL     OW14421   2.955   8.762   6.438
 4175SOL    HW114422   2.900   8.731   6.366
 4175SOL    HW214423   3.013   8.826   6.396
 4176SOL     OW14424  11.882   8.166   9.958
 4176SOL    HW114425  11.843   8.221  10.026
 4176SOL    HW214426  11.870   8.216   9.877
 4177SOL     OW14427   1.533  11.147  11.350
 4177SOL    HW114428   1.550  11.209  11.280
 4177SOL    HW214429   1.570  11.064  11.319
 4178SOL     OW14430  14.236  12.868   9.700
 4178SOL    HW114431  14.245  12.961   9.682
 4178SOL    HW214432  14.171  12.863   9.770
 4179SOL     OW14433   2.755   2.815   3.082
 4179SOL    HW114434   2.816   2.838   3.013
 4179SOL    HW214435   2.801   2.837   3.163
 4180SOL     OW14436  14.116   8.912   6.858
 4180SOL    HW114437  14.185   8.900   6.791
 4180SOL    HW214438  14.072   8.827   6.861
 4181SOL     OW14439   3.511   4.379   9.226
 4181SOL    HW114440   3.473   4.460   9.191
 4181SOL    HW214441   3.604   4.386   9.206
 4182SOL     OW14442  13.291   7.946   6.996
 4182SOL    HW114443  13.355   8.005   7.034
 4182SOL    HW214444  13.228   8.004   6.953
 4183SOL     OW14445   5.632   7.967  10.845
 4183SOL    HW114446   5.570   7.896  10.862
 4183SOL    HW214447   5.689   7.932  10.776
 4184SOL     OW14448   9.649  11.288   3.722
 4184SOL    HW114449   9.633  11.211   3.776
 4184SOL    HW214450   9.600  11.358   3.765
 4185SOL     OW14451   9.764   9.873   1.072
 4185SOL    HW114452   9.856   9.896   1.064
 4185SOL    HW214453   9.720   9.928   1.007
 4186SOL     OW14454   0.439   0.518  10.040
 4186SOL    HW114455   0.349   0.547  10.056
 4186SOL    HW214456   0.460   0.551   9.953
 4187SOL     OW14457  14.769   0.906   6.315
 4187SOL    HW114458  14.743   0.993   6.283
 4187SOL    HW214459  14.844   0.923   6.371
 4188SOL     OW14460   2.964  13.913   2.642
 4188SOL    HW114461   2.875  13.943   2.661
 4188SOL    HW214462   2.983  13.947   2.555
 4189SOL     OW14463   7.785  13.210   7.059
 4189SOL    HW114464   7.876  13.192   7.035
 4189SOL    HW214465   7.734  13.171   6.988
 4190SOL     OW14466   1.737  13.398   7.505
 4190SOL    HW114467   1.799  13.471   7.497
 4190SOL    HW214468   1.651  13.439   7.496
 4191SOL     OW14469  14.065  11.537  13.350
 4191SOL    HW114470  14.031  11.496  13.430
 4191SOL    HW214471  14.159  11.519  13.352
 4192SOL     OW14472   9.070   6.736   6.410
 4192SOL    HW114473   9.137   6.794   6.374
 4192SOL    HW214474   8.989   6.786   6.402
 4193SOL     OW14475   5.827   1.510   0.254
 4193SOL    HW114476   5.763   1.523   0.185
 4193SOL    HW214477   5.866   1.424   0.235
 4194SOL     OW14478  10.704  12.342  13.758
 4194SOL    HW114479  10.687  12.359  13.666
 4194SOL    HW214480  10.687  12.426  13.801
 4195SOL     OW14481   6.126   3.129   6.903
 4195SOL    HW114482   6.100   3.144   6.812
 4195SOL    HW214483   6.220   3.147   6.904
 4196SOL     OW14484   2.915   3.576   1.699
 4196SOL    HW114485   2.989   3.543   1.648
 4196SOL    HW214486   2.838   3.537   1.658
 4197SOL     OW14487  14.449   5.076   0.651
 4197SOL    HW114488  14.388   5.011   0.685
 4197SOL    HW214489  14.519   5.025   0.610
 4198SOL     OW14490   2.530   2.798   0.595
 4198SOL    HW114491   2.517   2.730   0.662
 4198SOL    HW214492   2.452   2.792   0.540
 4199SOL     OW14493   5.700   5.087  13.922
 4199SOL    HW114494   5.791   5.090  13.952
 4199SOL    HW214495   5.676   4.995  13.926
 4200SOL     OW14496   4.708   3.498  10.820
 4200SOL    HW114497   4.682   3.582  10.782
 4200SOL    HW214498   4.626   3.449  10.830
 4201SOL     OW14499  14.724  13.992   1.253
 4201SOL    HW114500  14.723  14.003   1.348
 4201SOL    HW214501  14.763  13.905   1.240
 4202SOL     OW14502  13.267  14.466  10.299
 4202SOL    HW114503  13.190  14.430  10.255
 4202SOL    HW214504  13.341  14.426  10.254
 4203SOL     OW14505  12.077   4.786  14.247
 4203SOL    HW114506  12.019   4.715  14.275
 4203SOL    HW214507  12.066   4.853  14.315
 4204SOL     OW14508  10.330  10.081  14.141
 4204SOL    HW114509  10.383  10.007  14.110
 4204SOL    HW214510  10.385  10.158  14.127
 4205SOL     OW14511   2.936  12.789   3.046
 4205SOL    HW114512   2.948  12.874   3.005
 4205SOL    HW214513   2.850  12.759   3.017
 4206SOL     OW14514   4.530   3.386   2.495
 4206SOL    HW114515   4.516   3.295   2.469
 4206SOL    HW214516   4.496   3.438   2.423
 4207SOL     OW14517   1.712  12.338   4.055
 4207SOL    HW114518   1.701  12.359   4.148
 4207SOL    HW214519   1.743  12.247   4.055
 4208SOL     OW14520  11.695  10.532   8.773
 4208SOL    HW114521  11.728  10.465   8.832
 4208SOL    HW214522  11.725  10.615   8.811
 4209SOL     OW14523   5.137   0.699   2.153
 4209SOL    HW114524   5.210   0.641   2.173
 4209SOL    HW214525   5.061   0.658   2.194
 4210SOL     OW14526  13.083  14.229   5.525
 4210SOL    HW114527  13.156  14.241   5.464
 4210SOL    HW214528  13.038  14.313   5.525
 4211SOL     OW14529   6.064  14.138   8.381
 4211SOL    HW114530   6.113  14.132   8.464
 4211SOL    HW214531   6.092  14.061   8.331
 4212SOL     OW14532   0.933   8.876  12.769
 4212SOL    HW114533   0.997   8.881  12.698
 4212SOL    HW214534   0.850   8.896  12.727
 4213SOL     OW14535   7.852   5.119   8.895
 4213SOL    HW114536   7.826   5.144   8.806
 4213SOL    HW214537   7.790   5.166   8.951
 4214SOL     OW14538   3.822  11.008   9.243
 4214SOL    HW114539   3.916  11.018   9.256
 4214SOL    HW214540   3.796  10.942   9.307
 4215SOL     OW14541  14.771  11.693   0.147
 4215SOL    HW114542  14.830  11.757   0.107
 4215SOL    HW214543  14.819  11.662   0.224
 4216SOL     OW14544   5.672   2.289  10.650
 4216SOL    HW114545   5.583   2.269  10.681
 4216SOL    HW214546   5.727   2.222  10.688
 4217SOL     OW14547   6.340   0.276   5.397
 4217SOL    HW114548   6.322   0.190   5.433
 4217SOL    HW214549   6.281   0.335   5.444
 4218SOL     OW14550   2.218   9.889   4.231
 4218SOL    HW114551   2.250   9.951   4.296
 4218SOL    HW214552   2.154   9.939   4.179
 4219SOL     OW14553  13.650   5.484  14.351
 4219SOL    HW114554  13.736   5.526  14.348
 4219SOL    HW214555  13.596   5.537  14.293
 4220SOL     OW14556  12.954   2.283   8.013
 4220SOL    HW114557  12.916   2.239   7.936
 4220SOL    HW214558  12.891   2.266   8.083
 4221SOL     OW14559   3.436  10.997   9.041
 4221SOL    HW114560   3.423  11.071   8.982
 4221SOL    HW214561   3.384  11.019   9.119
 4222SOL     OW14562   2.220  11.861   0.210
 4222SOL    HW114563   2.186  11.942   0.247
 4222SOL    HW214564   2.296  11.888   0.158
 4223SOL     OW14565   2.581  11.473  13.094
 4223SOL    HW114566   2.592  11.519  13.177
 4223SOL    HW214567   2.597  11.381  13.114
 4224SOL     OW14568   5.172   3.345  11.662
 4224SOL    HW114569   5.261   3.377  11.649
 4224SOL    HW214570   5.167   3.323  11.755
 4225SOL     OW14571   9.542   1.877   8.348
 4225SOL    HW114572   9.506   1.816   8.413
 4225SOL    HW214573   9.490   1.861   8.269
 4226SOL     OW14574   2.957   7.911  13.199
 4226SOL    HW114575   2.950   7.916  13.295
 4226SOL    HW214576   2.955   8.002  13.170
 4227SOL     OW14577  12.569   3.766   3.177
 4227SOL    HW114578  12.640   3.718   3.220
 4227SOL    HW214579  12.491   3.743   3.227
 4228SOL     OW14580   0.768  14.188   8.718
 4228SOL    HW114581   0.813  14.220   8.639
 4228SOL    HW214582   0.706  14.123   8.684
 4229SOL     OW14583   7.545  13.059   5.425
 4229SOL    HW114584   7.549  13.062   5.330
 4229SOL    HW214585   7.613  12.996   5.450
 4230SOL     OW14586   4.856   6.121   1.832
 4230SOL    HW114587   4.881   6.052   1.771
 4230SOL    HW214588   4.851   6.200   1.777
 4231SOL     OW14589  14.298  12.999   1.720
 4231SOL    HW114590  14.228  12.934   1.717
 4231SOL    HW214591  14.370  12.959   1.670
 4232SOL     OW14592   8.976  13.457  12.184
 4232SOL    HW114593   8.993  13.478  12.092
 4232SOL    HW214594   9.007  13.534  12.232
 4233SOL     OW14595   4.219   1.547  13.169
 4233SOL    HW114596   4.152   1.596  13.217
 4233SOL    HW214597   4.172   1.507  13.096
 4234SOL     OW14598  12.594   1.072  14.141
 4234SOL    HW114599  12.629   1.061  14.052
 4234SOL    HW214600  12.657   1.129  14.185
 4235SOL     OW14601   2.908   9.157   8.606
 4235SOL    HW114602   2.876   9.240   8.570
 4235SOL    HW214603   2.829   9.110   8.632
 4236SOL     OW14604  14.615  13.590   6.509
 4236SOL    HW114605  14.649  13.526   6.447
 4236SOL    HW214606  14.542  13.631   6.463
 4237SOL     OW14607   2.490   4.208  11.069
 4237SOL    HW114608   2.516   4.291  11.109
 4237SOL    HW214609   2.470   4.151  11.143
 4238SOL     OW14610   6.646  10.524  12.963
 4238SOL    HW114611   6.640  10.431  12.943
 4238SOL    HW214612   6.589  10.537  13.038
 4239SOL     OW14613  12.152  12.608   2.409
 4239SOL    HW114614  12.084  12.594   2.343
 4239SOL    HW214615  12.233  12.578   2.366
 4240SOL     OW14616   6.257  10.760   5.617
 4240SOL    HW114617   6.282  10.852   5.610
 4240SOL    HW214618   6.318  10.715   5.558
 4241SOL     OW14619  14.802   0.101   1.991
 4241SOL    HW114620  14.852   0.040   2.045
 4241SOL    HW214621  14.860   0.177   1.981
 4242SOL     OW14622  13.031   1.734  10.977
 4242SOL    HW114623  12.970   1.786  10.925
 4242SOL    HW214624  13.077   1.680  10.913
 4243SOL     OW14625   0.276   7.564  10.761
 4243SOL    HW114626   0.220   7.599  10.831
 4243SOL    HW214627   0.216   7.514  10.705
 4244SOL     OW14628   4.861   2.231   4.621
 4244SOL    HW114629   4.839   2.246   4.713
 4244SOL    HW214630   4.824   2.306   4.574
 4245SOL     OW14631   1.973   7.180   9.612
 4245SOL    HW114632   1.996   7.183   9.519
 4245SOL    HW214633   1.887   7.137   9.615
 4246SOL     OW14634  11.468   0.595   6.700
 4246SOL    HW114635  11.468   0.689   6.717
 4246SOL    HW214636  11.488   0.555   6.785
 4247SOL     OW14637   4.488  13.707   7.607
 4247SOL    HW114638   4.407  13.692   7.559
 4247SOL    HW214639   4.538  13.768   7.552
 4248SOL     OW14640   1.842  11.942   0.028
 4248SOL    HW114641   1.836  11.945   0.124
 4248SOL    HW214642   1.823  11.851   0.006
 4249SOL     OW14643   5.655   8.778  13.447
 4249SOL    HW114644   5.586   8.728  13.489
 4249SOL    HW214645   5.612   8.824  13.375
 4250SOL     OW14646   4.215   5.878   8.287
 4250SOL    HW114647   4.195   5.952   8.230
 4250SOL    HW214648   4.148   5.813   8.266
 4251SOL     OW14649   6.527   1.778   6.921
 4251SOL    HW114650   6.610   1.824   6.905
 4251SOL    HW214651   6.512   1.727   6.842
 4252SOL     OW14652   6.359   5.001   0.530
 4252SOL    HW114653   6.434   4.970   0.581
 4252SOL    HW214654   6.383   4.983   0.439
 4253SOL     OW14655   1.926   8.025   8.121
 4253SOL    HW114656   1.859   8.000   8.058
 4253SOL    HW214657   1.880   8.032   8.205
 4254SOL     OW14658   1.719   5.389   7.386
 4254SOL    HW114659   1.641   5.409   7.334
 4254SOL    HW214660   1.697   5.419   7.475
 4255SOL     OW14661   4.090  13.312   2.263
 4255SOL    HW114662   4.177  13.292   2.297
 4255SOL    HW214663   4.091  13.279   2.173
 4256SOL     OW14664  11.027   4.530   9.542
 4256SOL    HW114665  11.104   4.553   9.489
 4256SOL    HW214666  11.013   4.606   9.598
 4257SOL     OW14667  13.406  11.680   8.147
 4257SOL    HW114668  13.497  11.678   8.175
 4257SOL    HW214669  13.407  11.642   8.059
 4258SOL     OW14670   1.400   3.937   1.124
 4258SOL    HW114671   1.361   4.024   1.118
 4258SOL    HW214672   1.485   3.945   1.081
 4259SOL     OW14673   1.680   7.785   0.183
 4259SOL    HW114674   1.656   7.877   0.175
 4259SOL    HW214675   1.774   7.786   0.199
 4260SOL     OW14676  14.327   9.578  12.267
 4260SOL    HW114677  14.331   9.636  12.343
 4260SOL    HW214678  14.276   9.503  12.297
 4261SOL     OW14679   6.151   0.867   0.159
 4261SOL    HW114680   6.166   0.773   0.149
 4261SOL    HW214681   6.210   0.893   0.230
 4262SOL     OW14682   9.156   7.080   3.170
 4262SOL    HW114683   9.134   6.990   3.196
 4262SOL    HW214684   9.074   7.129   3.180
 4263SOL     OW14685   0.066   7.080  12.870
 4263SOL    HW114686   0.106   7.102  12.954
 4263SOL    HW214687   0.138   7.046  12.817
 4264SOL     OW14688   8.706  11.652   7.338
 4264SOL    HW114689   8.710  11.740   7.302
 4264SOL    HW214690   8.661  11.600   7.271
 4265SOL     OW14691   0.065   8.803   4.902
 4265SOL    HW114692   0.034   8.889   4.930
 4265SOL    HW214693   0.137   8.822   4.841
 4266SOL     OW14694   3.035   6.444   0.063
 4266SOL    HW114695   3.099   6.508   0.033
 4266SOL    HW214696   3.053   6.365   0.011
 4267SOL     OW14697   5.355   5.040   2.453
 4267SOL    HW114698   5.434   5.079   2.415
 4267SOL    HW214699   5.332   5.098   2.525
 4268SOL     OW14700   0.724   7.606   2.256
 4268SOL    HW114701   0.751   7.553   2.182
 4268SOL    HW214702   0.767   7.566   2.332
 4269SOL     OW14703   3.057  11.761   1.027
 4269SOL    HW114704   3.030  11.852   1.013
 4269SOL    HW214705   3.124  11.745   0.960
 4270SOL     OW14706  11.762   6.514  14.366
 4270SOL    HW114707  11.725   6.596  14.398
 4270SOL    HW214708  11.745   6.450  14.436
 4271SOL     OW14709  12.820   0.584  14.137
 4271SOL    HW114710  12.732   0.612  14.159
 4271SOL    HW214711  12.847   0.528  14.210
 4272SOL     OW14712   3.251   2.674   5.219
 4272SOL    HW114713   3.251   2.598   5.277
 4272SOL    HW214714   3.237   2.748   5.277
 4273SOL     OW14715   2.380   3.083  13.680
 4273SOL    HW114716   2.421   3.046  13.759
 4273SOL    HW214717   2.357   3.007  13.627
 4274SOL     OW14718   9.942   2.948   9.560
 4274SOL    HW114719   9.914   3.036   9.534
 4274SOL    HW214720  10.030   2.939   9.524
 4275SOL     OW14721   6.571  11.672   0.985
 4275SOL    HW114722   6.613  11.608   0.928
 4275SOL    HW214723   6.615  11.662   1.069
 4276SOL     OW14724   6.385   6.614   4.234
 4276SOL    HW114725   6.405   6.593   4.143
 4276SOL    HW214726   6.380   6.710   4.236
 4277SOL     OW14727  12.684  12.899   2.878
 4277SOL    HW114728  12.760  12.945   2.915
 4277SOL    HW214729  12.684  12.925   2.786
 4278SOL     OW14730   3.872  13.098  14.603
 4278SOL    HW114731   3.874  13.193  14.588
 4278SOL    HW214732   3.817  13.087  14.680
 4279SOL     OW14733   4.964   5.621   5.207
 4279SOL    HW114734   4.923   5.535   5.198
 4279SOL    HW214735   5.035   5.620   5.144
 4280SOL     OW14736  10.619   0.002   7.632
 4280SOL    HW114737  10.525   0.016   7.625
 4280SOL    HW214738  10.631  14.784   7.613
 4281SOL     OW14739   5.375   2.740   7.608
 4281SOL    HW114740   5.429   2.699   7.675
 4281SOL    HW214741   5.421   2.822   7.588
 4282SOL     OW14742   3.247   1.774   9.230
 4282SOL    HW114743   3.165   1.731   9.204
 4282SOL    HW214744   3.276   1.724   9.306
 4283SOL     OW14745  14.614   6.083   8.960
 4283SOL    HW114746  14.565   6.060   9.040
 4283SOL    HW214747  14.701   6.107   8.991
 4284SOL     OW14748  10.134  11.619   3.820
 4284SOL    HW114749  10.188  11.546   3.851
 4284SOL    HW214750  10.054  11.577   3.787
 4285SOL     OW14751   2.474   8.942   5.744
 4285SOL    HW114752   2.448   9.034   5.752
 4285SOL    HW214753   2.472   8.908   5.833
 4286SOL     OW14754   4.878   6.631  14.039
 4286SOL    HW114755   4.853   6.540  14.054
 4286SOL    HW214756   4.936   6.652  14.112
 4287SOL     OW14757  10.888   8.419   3.580
 4287SOL    HW114758  10.860   8.392   3.668
 4287SOL    HW214759  10.969   8.468   3.595
 4288SOL     OW14760   9.545   5.751  11.106
 4288SOL    HW114761   9.451   5.769  11.097
 4288SOL    HW214762   9.553   5.708  11.191
 4289SOL     OW14763   6.368   3.871   7.690
 4289SOL    HW114764   6.324   3.951   7.663
 4289SOL    HW214765   6.395   3.886   7.780
 4290SOL     OW14766   4.461   9.063  14.097
 4290SOL    HW114767   4.410   9.129  14.050
 4290SOL    HW214768   4.523   9.113  14.149
 4291SOL     OW14769  12.969   6.132   2.259
 4291SOL    HW114770  12.997   6.095   2.176
 4291SOL    HW214771  13.049   6.169   2.297
 4292SOL     OW14772   6.086   3.168   3.169
 4292SOL    HW114773   6.173   3.207   3.175
 4292SOL    HW214774   6.063   3.147   3.259
 4293SOL     OW14775  11.424  10.863   0.006
 4293SOL    HW114776  11.408  10.795  14.815
 4293SOL    HW214777  11.407  10.820   0.089
 4294SOL     OW14778  12.581   7.727   9.868
 4294SOL    HW114779  12.568   7.759   9.778
 4294SOL    HW214780  12.518   7.656   9.878
 4295SOL     OW14781   2.801   7.207   6.491
 4295SOL    HW114782   2.829   7.211   6.400
 4295SOL    HW214783   2.735   7.138   6.493
 4296SOL     OW14784   7.826   3.807   6.906
 4296SOL    HW114785   7.760   3.873   6.930
 4296SOL    HW214786   7.872   3.845   6.831
 4297SOL     OW14787  10.966  12.842  14.854
 4297SOL    HW114788  10.906  12.873   0.046
 4297SOL    HW214789  11.027  12.915  14.840
 4298SOL     OW14790  12.120   1.205   2.439
 4298SOL    HW114791  12.182   1.263   2.484
 4298SOL    HW214792  12.047   1.262   2.414
 4299SOL     OW14793  12.571   0.032   8.399
 4299SOL    HW114794  12.517   0.085   8.457
 4299SOL    HW214795  12.661   0.051   8.426
 4300SOL     OW14796  11.088  10.827  14.576
 4300SOL    HW114797  11.036  10.897  14.617
 4300SOL    HW214798  11.140  10.872  14.510
 4301SOL     OW14799  12.790  12.989   9.308
 4301SOL    HW114800  12.726  13.006   9.377
 4301SOL    HW214801  12.748  13.022   9.228
 4302SOL     OW14802   4.188   0.424  11.632
 4302SOL    HW114803   4.244   0.500  11.619
 4302SOL    HW214804   4.246   0.348  11.622
 4303SOL     OW14805   1.635  11.890   8.227
 4303SOL    HW114806   1.609  11.978   8.253
 4303SOL    HW214807   1.648  11.844   8.310
 4304SOL     OW14808   7.148   6.575   3.165
 4304SOL    HW114809   7.106   6.645   3.215
 4304SOL    HW214810   7.161   6.613   3.078
 4305SOL     OW14811   3.427   7.718   8.352
 4305SOL    HW114812   3.454   7.801   8.392
 4305SOL    HW214813   3.507   7.667   8.347
 4306SOL     OW14814   7.080   5.634  10.999
 4306SOL    HW114815   7.042   5.570  10.939
 4306SOL    HW214816   7.172   5.608  11.007
 4307SOL     OW14817  10.951   2.438   6.606
 4307SOL    HW114818  11.024   2.455   6.546
 4307SOL    HW214819  10.967   2.350   6.640
 4308SOL     OW14820   3.946  11.615  13.700
 4308SOL    HW114821   4.008  11.544  13.681
 4308SOL    HW214822   3.866  11.571  13.727
 4309SOL     OW14823  12.256   3.586   3.661
 4309SOL    HW114824  12.224   3.659   3.608
 4309SOL    HW214825  12.203   3.587   3.740
 4310SOL     OW14826   3.754   8.974  11.408
 4310SOL    HW114827   3.664   8.999  11.387
 4310SOL    HW214828   3.801   8.977  11.324
 4311SOL     OW14829  10.386   6.035   6.889
 4311SOL    HW114830  10.304   5.988   6.907
 4311SOL    HW214831  10.435   5.976   6.831
 4312SOL     OW14832   0.020   9.836   1.630
 4312SOL    HW114833   0.110   9.861   1.610
 4312SOL    HW214834  14.859   9.910   1.679
 4313SOL     OW14835   7.493   1.457  13.330
 4313SOL    HW114836   7.502   1.367  13.299
 4313SOL    HW214837   7.414   1.489  13.285
 4314SOL     OW14838   3.228   3.740   7.192
 4314SOL    HW114839   3.259   3.722   7.281
 4314SOL    HW214840   3.198   3.655   7.160
 4315SOL     OW14841  10.767   6.135   0.321
 4315SOL    HW114842  10.729   6.124   0.408
 4315SOL    HW214843  10.739   6.222   0.293
 4316SOL     OW14844   5.421  14.684  11.489
 4316SOL    HW114845   5.382  14.612  11.539
 4316SOL    HW214846   5.459  14.741  11.556
 4317SOL     OW14847  11.407  12.694   5.877
 4317SOL    HW114848  11.392  12.788   5.863
 4317SOL    HW214849  11.404  12.656   5.789
 4318SOL     OW14850   7.954   7.366  10.241
 4318SOL    HW114851   7.980   7.274  10.247
 4318SOL    HW214852   7.904   7.382  10.321
 4319SOL     OW14853  11.499   2.290   2.024
 4319SOL    HW114854  11.442   2.351   1.977
 4319SOL    HW214855  11.588   2.320   2.004
 4320SOL     OW14856  10.069   9.643   2.856
 4320SOL    HW114857  10.057   9.609   2.945
 4320SOL    HW214858  10.103   9.731   2.868
 4321SOL     OW14859   3.805  14.750   5.605
 4321SOL    HW114860   3.789  14.706   5.688
 4321SOL    HW214861   3.743  14.824   5.605
 4322SOL     OW14862  14.244  14.224  11.092
 4322SOL    HW114863  14.169  14.271  11.056
 4322SOL    HW214864  14.278  14.173  11.019
 4323SOL     OW14865   6.019  11.338   9.307
 4323SOL    HW114866   5.931  11.369   9.284
 4323SOL    HW214867   6.041  11.386   9.387
 4324SOL     OW14868   1.327  10.772   7.821
 4324SOL    HW114869   1.300  10.747   7.909
 4324SOL    HW214870   1.380  10.850   7.833
 4325SOL     OW14871   7.828   5.043   9.629
 4325SOL    HW114872   7.894   4.993   9.678
 4325SOL    HW214873   7.862   5.045   9.540
 4326SOL     OW14874   6.219   4.278   9.132
 4326SOL    HW114875   6.141   4.241   9.089
 4326SOL    HW214876   6.236   4.360   9.086
 4327SOL     OW14877   5.476  12.883   5.709
 4327SOL    HW114878   5.526  12.960   5.735
 4327SOL    HW214879   5.405  12.918   5.654
 4328SOL     OW14880   5.790   8.240   9.854
 4328SOL    HW114881   5.843   8.319   9.859
 4328SOL    HW214882   5.776   8.215   9.945
 4329SOL     OW14883   2.751   0.632   2.559
 4329SOL    HW114884   2.693   0.646   2.634
 4329SOL    HW214885   2.829   0.591   2.596
 4330SOL     OW14886  13.548  11.172   5.740
 4330SOL    HW114887  13.630  11.197   5.697
 4330SOL    HW214888  13.574  11.108   5.806
 4331SOL     OW14889   4.308   3.355  12.508
 4331SOL    HW114890   4.358   3.274  12.500
 4331SOL    HW214891   4.373   3.421  12.530
 4332SOL     OW14892   4.159   6.518   0.162
 4332SOL    HW114893   4.252   6.503   0.179
 4332SOL    HW214894   4.115   6.451   0.214
 4333SOL     OW14895   6.479   2.009  13.693
 4333SOL    HW114896   6.533   2.025  13.771
 4333SOL    HW214897   6.487   2.088  13.641
 4334SOL     OW14898   7.328   7.993   3.991
 4334SOL    HW114899   7.388   8.063   3.964
 4334SOL    HW214900   7.255   8.039   4.031
 4335SOL     OW14901  11.684  10.086  11.391
 4335SOL    HW114902  11.595  10.119  11.394
 4335SOL    HW214903  11.736  10.161  11.362
 4336SOL     OW14904   7.949  10.326   1.770
 4336SOL    HW114905   8.025  10.268   1.760
 4336SOL    HW214906   7.874  10.272   1.747
 4337SOL     OW14907  10.481  10.384  11.596
 4337SOL    HW114908  10.467  10.425  11.510
 4337SOL    HW214909  10.432  10.302  11.592
 4338SOL     OW14910   6.628  13.431   4.607
 4338SOL    HW114911   6.656  13.477   4.687
 4338SOL    HW214912   6.707  13.385   4.578
 4339SOL     OW14913   9.261   2.679   8.851
 4339SOL    HW114914   9.321   2.648   8.783
 4339SOL    HW214915   9.317   2.719   8.917
 4340SOL     OW14916   0.201  14.107   5.110
 4340SOL    HW114917   0.206  14.190   5.157
 4340SOL    HW214918   0.284  14.100   5.062
 4341SOL     OW14919   8.900   6.507   3.838
 4341SOL    HW114920   8.848   6.510   3.758
 4341SOL    HW214921   8.937   6.419   3.840
 4342SOL     OW14922   2.619   6.398  13.569
 4342SOL    HW114923   2.553   6.329  13.576
 4342SOL    HW214924   2.675   6.371  13.496
 4343SOL     OW14925   4.023   4.075   3.297
 4343SOL    HW114926   3.944   4.079   3.243
 4343SOL    HW214927   4.006   4.003   3.358
 4344SOL     OW14928   8.638  12.159   3.052
 4344SOL    HW114929   8.692  12.133   2.978
 4344SOL    HW214930   8.581  12.084   3.067
 4345SOL     OW14931   8.228  10.420   4.961
 4345SOL    HW114932   8.181  10.337   4.961
 4345SOL    HW214933   8.220  10.453   4.872
 4346SOL     OW14934  10.382   6.931   7.706
 4346SOL    HW114935  10.387   6.842   7.673
 4346SOL    HW214936  10.473   6.959   7.714
 4347SOL     OW14937   4.645   0.536   9.931
 4347SOL    HW114938   4.555   0.555   9.906
 4347SOL    HW214939   4.662   0.449   9.895
 4348SOL     OW14940   7.918  14.702   0.677
 4348SOL    HW114941   7.892  14.621   0.634
 4348SOL    HW214942   7.990  14.736   0.624
 4349SOL     OW14943   3.644  14.737  11.570
 4349SOL    HW114944   3.602  14.778  11.647
 4349SOL    HW214945   3.718  14.688  11.606
 4350SOL     OW14946   3.887   5.532   2.325
 4350SOL    HW114947   3.814   5.471   2.319
 4350SOL    HW214948   3.879   5.587   2.247
 4351SOL     OW14949  11.279   2.519  10.281
 4351SOL    HW114950  11.312   2.512  10.370
 4351SOL    HW214951  11.239   2.606  10.278
 4352SOL     OW14952  11.131  11.879   3.686
 4352SOL    HW114953  11.158  11.801   3.638
 4352SOL    HW214954  11.118  11.849   3.776
 4353SOL     OW14955   4.579   8.388  14.496
 4353SOL    HW114956   4.521   8.463  14.483
 4353SOL    HW214957   4.529   8.313  14.465
 4354SOL     OW14958  12.518   9.333   4.931
 4354SOL    HW114959  12.540   9.291   5.014
 4354SOL    HW214960  12.560   9.419   4.935
 4355SOL     OW14961   9.960  11.342   5.215
 4355SOL    HW114962  10.001  11.256   5.212
 4355SOL    HW214963   9.867  11.324   5.202
 4356SOL     OW14964  10.172  10.312   6.028
 4356SOL    HW114965  10.120  10.331   6.106
 4356SOL    HW214966  10.138  10.227   5.997
 4357SOL     OW14967   0.657   4.311   6.778
 4357SOL    HW114968   0.750   4.297   6.795
 4357SOL    HW214969   0.654   4.395   6.732
 4358SOL     OW14970   3.754   0.898   8.452
 4358SOL    HW114971   3.710   0.814   8.467
 4358SOL    HW214972   3.721   0.955   8.522
 4359SOL     OW14973   4.572   3.870  13.730
 4359SOL    HW114974   4.500   3.809  13.747
 4359SOL    HW214975   4.650   3.823  13.761
 4360SOL     OW14976   8.491  12.315   9.970
 4360SOL    HW114977   8.464  12.287  10.058
 4360SOL    HW214978   8.412  12.306   9.917
 4361SOL     OW14979  13.062  13.009   7.205
 4361SOL    HW114980  13.128  13.048   7.262
 4361SOL    HW214981  13.022  13.083   7.160
 4362SOL     OW14982   1.700   8.601   4.771
 4362SOL    HW114983   1.641   8.543   4.723
 4362SOL    HW214984   1.746   8.543   4.831
 4363SOL     OW14985  11.608   3.398   8.277
 4363SOL    HW114986  11.563   3.387   8.194
 4363SOL    HW214987  11.589   3.319   8.326
 4364SOL     OW14988   5.398   9.675   8.052
 4364SOL    HW114989   5.380   9.627   7.972
 4364SOL    HW214990   5.382   9.767   8.030
 4365SOL     OW14991   8.498   8.823  10.323
 4365SOL    HW114992   8.577   8.825  10.378
 4365SOL    HW214993   8.431   8.865  10.376
 4366SOL     OW14994   3.565  13.098   2.938
 4366SOL    HW114995   3.620  13.163   2.981
 4366SOL    HW214996   3.532  13.043   3.009
 4367SOL     OW14997  14.404   8.040   1.336
 4367SOL    HW114998  14.494   8.008   1.339
 4367SOL    HW214999  14.398   8.100   1.411
 4368SOL     OW15000  13.481   8.816  14.596
 4368SOL    HW115001  13.573   8.791  14.598
 4368SOL    HW215002  13.480   8.906  14.629
 4369SOL     OW15003   2.585   7.919   2.546
 4369SOL    HW115004   2.669   7.911   2.502
 4369SOL    HW215005   2.592   7.998   2.600
 4370SOL     OW15006   8.296  14.543   1.600
 4370SOL    HW115007   8.251  14.534   1.684
 4370SOL    HW215008   8.379  14.496   1.612
 4371SOL     OW15009   7.665   5.545   8.495
 4371SOL    HW115010   7.749   5.510   8.526
 4371SOL    HW215011   7.626   5.474   8.445
 4372SOL     OW15012   1.673   8.359   1.132
 4372SOL    HW115013   1.601   8.341   1.193
 4372SOL    HW215014   1.746   8.384   1.188
 4373SOL     OW15015   4.302   6.472  11.302
 4373SOL    HW115016   4.288   6.389  11.347
 4373SOL    HW215017   4.214   6.501  11.277
 4374SOL     OW15018   9.184   3.898   3.971
 4374SOL    HW115019   9.246   3.867   4.038
 4374SOL    HW215020   9.135   3.968   4.014
 4375SOL     OW15021   8.975   8.483  12.118
 4375SOL    HW115022   8.881   8.484  12.099
 4375SOL    HW215023   9.016   8.479  12.032
 4376SOL     OW15024   0.007   9.487  11.722
 4376SOL    HW115025   0.084   9.502  11.667
 4376SOL    HW215026   0.038   9.429  11.791
 4377SOL     OW15027   8.228   9.699   1.094
 4377SOL    HW115028   8.297   9.647   1.051
 4377SOL    HW215029   8.253   9.789   1.077
 4378SOL     OW15030   8.947   0.514  14.032
 4378SOL    HW115031   8.925   0.600  13.995
 4378SOL    HW215032   8.905   0.514  14.118
 4379SOL     OW15033  14.479   9.065  11.236
 4379SOL    HW115034  14.486   9.152  11.275
 4379SOL    HW215035  14.509   9.005  11.305
 4380SOL     OW15036   4.614   7.528  13.597
 4380SOL    HW115037   4.700   7.516  13.637
 4380SOL    HW215038   4.613   7.467  13.523
 4381SOL     OW15039   2.113   1.274  11.486
 4381SOL    HW115040   2.106   1.307  11.397
 4381SOL    HW215041   2.136   1.351  11.538
 4382SOL     OW15042  11.943   9.029   7.609
 4382SOL    HW115043  11.897   9.067   7.534
 4382SOL    HW215044  11.937   9.096   7.678
 4383SOL     OW15045   2.175  11.963   3.121
 4383SOL    HW115046   2.265  11.945   3.148
 4383SOL    HW215047   2.168  11.924   3.033
 4384SOL     OW15048   7.357   9.945   6.063
 4384SOL    HW115049   7.276   9.905   6.031
 4384SOL    HW215050   7.404   9.972   5.984
 4385SOL     OW15051   2.447  13.356  14.484
 4385SOL    HW115052   2.476  13.412  14.555
 4385SOL    HW215053   2.352  13.354  14.492
 4386SOL     OW15054   5.411  14.082   4.634
 4386SOL    HW115055   5.406  14.001   4.583
 4386SOL    HW215056   5.374  14.060   4.719
 4387SOL     OW15057   0.828   3.670   5.429
 4387SOL    HW115058   0.843   3.694   5.520
 4387SOL    HW215059   0.915   3.670   5.389
 4388SOL     OW15060   0.487   8.643   9.959
 4388SOL    HW115061   0.554   8.710   9.970
 4388SOL    HW215062   0.520   8.587   9.889
 4389SOL     OW15063   5.143  12.889   8.397
 4389SOL    HW115064   5.061  12.839   8.399
 4389SOL    HW215065   5.135  12.951   8.470
 4390SOL     OW15066  13.296  13.530   4.633
 4390SOL    HW115067  13.264  13.619   4.618
 4390SOL    HW215068  13.230  13.474   4.592
 4391SOL     OW15069   0.384   8.036   4.845
 4391SOL    HW115070   0.333   8.080   4.778
 4391SOL    HW215071   0.360   8.080   4.927
 4392SOL     OW15072  14.694   8.964   5.939
 4392SOL    HW115073  14.709   8.953   5.845
 4392SOL    HW215074  14.733   9.049   5.959
 4393SOL     OW15075   0.323   7.216  12.650
 4393SOL    HW115076   0.261   7.288  12.659
 4393SOL    HW215077   0.402   7.257  12.613
 4394SOL     OW15078  12.603   6.127   1.044
 4394SOL    HW115079  12.552   6.070   0.986
 4394SOL    HW215080  12.690   6.130   1.004
 4395SOL     OW15081   5.882  12.753   9.884
 4395SOL    HW115082   5.807  12.764   9.942
 4395SOL    HW215083   5.870  12.667   9.845
 4396SOL     OW15084   5.068   8.660  12.272
 4396SOL    HW115085   5.071   8.570  12.304
 4396SOL    HW215086   5.136   8.705  12.323
 4397SOL     OW15087   3.716   9.212   6.911
 4397SOL    HW115088   3.799   9.227   6.956
 4397SOL    HW215089   3.691   9.298   6.878
 4398SOL     OW15090   9.815   6.858   7.783
 4398SOL    HW115091   9.745   6.906   7.738
 4398SOL    HW215092   9.858   6.925   7.836
 4399SOL     OW15093   4.032   6.273   3.227
 4399SOL    HW115094   4.006   6.214   3.297
 4399SOL    HW215095   3.982   6.353   3.243
 4400SOL     OW15096  13.933   8.905   4.503
 4400SOL    HW115097  13.953   8.951   4.585
 4400SOL    HW215098  13.977   8.956   4.435
 4401SOL     OW15099   2.561  10.793   1.359
 4401SOL    HW115100   2.552  10.824   1.450
 4401SOL    HW215101   2.478  10.815   1.318
 4402SOL     OW15102  12.420  12.889  10.110
 4402SOL    HW115103  12.440  12.909  10.018
 4402SOL    HW215104  12.469  12.810  10.129
 4403SOL     OW15105  10.213   5.789  12.897
 4403SOL    HW115106  10.210   5.832  12.982
 4403SOL    HW215107  10.265   5.848  12.842
 4404SOL     OW15108  10.035  11.407  11.534
 4404SOL    HW115109  10.001  11.421  11.623
 4404SOL    HW215110   9.984  11.466  11.479
 4405SOL     OW15111   0.347   9.921   4.893
 4405SOL    HW115112   0.296   9.985   4.942
 4405SOL    HW215113   0.415   9.892   4.953
 4406SOL     OW15114   4.929  13.930   3.103
 4406SOL    HW115115   4.863  13.916   3.036
 4406SOL    HW215116   4.952  14.023   3.095
 4407SOL     OW15117  12.246   1.153  11.102
 4407SOL    HW115118  12.246   1.243  11.135
 4407SOL    HW215119  12.168   1.148  11.047
 4408SOL     OW15120  13.221   7.697   0.949
 4408SOL    HW115121  13.197   7.740   0.867
 4408SOL    HW215122  13.193   7.606   0.938
 4409SOL     OW15123  13.603   8.433   2.131
 4409SOL    HW115124  13.668   8.402   2.067
 4409SOL    HW215125  13.568   8.353   2.170
 4410SOL     OW15126  13.941  14.098   6.251
 4410SOL    HW115127  13.910  14.184   6.279
 4410SOL    HW215128  13.901  14.084   6.166
 4411SOL     OW15129  13.462   2.267  13.050
 4411SOL    HW115130  13.475   2.313  12.968
 4411SOL    HW215131  13.545   2.223  13.067
 4412SOL     OW15132  12.136  10.953  10.175
 4412SOL    HW115133  12.095  11.037  10.197
 4412SOL    HW215134  12.141  10.953  10.080
 4413SOL     OW15135   2.896   8.484   9.849
 4413SOL    HW115136   2.895   8.402   9.799
 4413SOL    HW215137   2.884   8.456   9.940
 4414SOL     OW15138  11.994   6.297  14.248
 4414SOL    HW115139  12.002   6.371  14.308
 4414SOL    HW215140  11.923   6.320  14.190
 4415SOL     OW15141  14.562   4.431   6.990
 4415SOL    HW115142  14.500   4.475   6.931
 4415SOL    HW215143  14.630   4.496   7.005
 4416SOL     OW15144  14.385   3.519   2.638
 4416SOL    HW115145  14.452   3.494   2.575
 4416SOL    HW215146  14.312   3.549   2.584
 4417SOL     OW15147  14.326  11.444  11.902
 4417SOL    HW115148  14.337  11.519  11.961
 4417SOL    HW215149  14.256  11.471  11.842
 4418SOL     OW15150  12.189   9.082  11.900
 4418SOL    HW115151  12.106   9.035  11.896
 4418SOL    HW215152  12.233   9.046  11.977
 4419SOL     OW15153   3.903   2.452   0.590
 4419SOL    HW115154   3.842   2.514   0.550
 4419SOL    HW215155   3.983   2.503   0.605
 4420SOL     OW15156   4.448   9.735  12.656
 4420SOL    HW115157   4.404   9.793  12.717
 4420SOL    HW215158   4.456   9.787  12.575
 4421SOL     OW15159   6.014   9.773   0.571
 4421SOL    HW115160   5.935   9.739   0.612
 4421SOL    HW215161   6.004   9.868   0.573
 4422SOL     OW15162   3.502   5.877  13.715
 4422SOL    HW115163   3.482   5.968  13.690
 4422SOL    HW215164   3.565   5.884  13.786
 4423SOL     OW15165   2.269  12.225   3.038
 4423SOL    HW115166   2.317  12.151   3.076
 4423SOL    HW215167   2.189  12.185   3.002
 4424SOL     OW15168   3.025   2.714   3.756
 4424SOL    HW115169   3.025   2.640   3.695
 4424SOL    HW215170   2.954   2.694   3.817
 4425SOL     OW15171   7.925   2.266  12.802
 4425SOL    HW115172   7.861   2.244  12.734
 4425SOL    HW215173   7.961   2.350  12.776
 4426SOL     OW15174   7.528   2.242   7.013
 4426SOL    HW115175   7.620   2.258   7.036
 4426SOL    HW215176   7.523   2.261   6.919
 4427SOL     OW15177   2.670   9.771   1.093
 4427SOL    HW115178   2.737   9.711   1.126
 4427SOL    HW215179   2.591   9.747   1.139
 4428SOL     OW15180   6.154  12.155   1.221
 4428SOL    HW115181   6.082  12.213   1.245
 4428SOL    HW215182   6.210  12.208   1.163
 4429SOL     OW15183  10.852  13.908  12.424
 4429SOL    HW115184  10.860  13.986  12.477
 4429SOL    HW215185  10.819  13.939  12.339
 4430SOL     OW15186   5.547  12.987  11.367
 4430SOL    HW115187   5.571  13.079  11.361
 4430SOL    HW215188   5.520  12.963  11.279
 4431SOL     OW15189   6.267   4.481  10.557
 4431SOL    HW115190   6.231   4.501  10.644
 4431SOL    HW215191   6.317   4.558  10.533
 4432SOL     OW15192  12.327  14.165   4.104
 4432SOL    HW115193  12.348  14.241   4.049
 4432SOL    HW215194  12.407  14.146   4.151
 4433SOL     OW15195   3.976   3.407   5.533
 4433SOL    HW115196   3.903   3.447   5.579
 4433SOL    HW215197   3.962   3.312   5.544
 4434SOL     OW15198   8.922  14.105   4.901
 4434SOL    HW115199   8.926  14.017   4.863
 4434SOL    HW215200   8.982  14.157   4.847
 4435SOL     OW15201   3.915   4.376  10.671
 4435SOL    HW115202   3.969   4.411  10.742
 4435SOL    HW215203   3.890   4.289  10.701
 4436SOL     OW15204  10.227  13.101   9.613
 4436SOL    HW115205  10.316  13.134   9.599
 4436SOL    HW215206  10.230  13.011   9.582
 4437SOL     OW15207  12.334  12.415   4.252
 4437SOL    HW115208  12.389  12.443   4.325
 4437SOL    HW215209  12.395  12.372   4.192
 4438SOL     OW15210   3.011   7.154   2.265
 4438SOL    HW115211   2.988   7.066   2.236
 4438SOL    HW215212   3.101   7.167   2.235
 4439SOL     OW15213   2.084   6.650   4.473
 4439SOL    HW115214   2.061   6.630   4.382
 4439SOL    HW215215   2.059   6.571   4.521
 4440SOL     OW15216   0.438   6.411  10.900
 4440SOL    HW115217   0.506   6.344  10.894
 4440SOL    HW215218   0.463   6.464  10.975
 4441SOL     OW15219  11.040   3.863   2.711
 4441SOL    HW115220  11.057   3.780   2.668
 4441SOL    HW215221  11.121   3.913   2.698
 4442SOL     OW15222   2.302  10.903   1.478
 4442SOL    HW115223   2.210  10.877   1.478
 4442SOL    HW215224   2.326  10.903   1.571
 4443SOL     OW15225  13.315   4.946  13.260
 4443SOL    HW115226  13.339   4.854  13.252
 4443SOL    HW215227  13.381   4.993  13.209
 4444SOL     OW15228  12.672  14.810   1.214
 4444SOL    HW115229  12.590  14.818   1.262
 4444SOL    HW215230  12.729   0.001   1.254
 4445SOL     OW15231   7.435  13.723   6.905
 4445SOL    HW115232   7.382  13.725   6.985
 4445SOL    HW215233   7.396  13.790   6.849
 4446SOL     OW15234  10.319   9.481  10.147
 4446SOL    HW115235  10.269   9.404  10.119
 4446SOL    HW215236  10.409   9.462  10.123
 4447SOL     OW15237   8.374   3.135   9.865
 4447SOL    HW115238   8.382   3.177   9.779
 4447SOL    HW215239   8.331   3.051   9.846
 4448SOL     OW15240   7.747   6.562  14.449
 4448SOL    HW115241   7.700   6.479  14.451
 4448SOL    HW215242   7.708   6.613  14.520
 4449SOL     OW15243   1.861  10.931   5.902
 4449SOL    HW115244   1.809  10.985   5.842
 4449SOL    HW215245   1.796  10.883   5.953
 4450SOL     OW15246   3.478   1.906   2.405
 4450SOL    HW115247   3.403   1.856   2.373
 4450SOL    HW215248   3.524   1.934   2.326
 4451SOL     OW15249   1.885   0.112   1.746
 4451SOL    HW115250   1.835   0.164   1.809
 4451SOL    HW215251   1.974   0.110   1.781
 4452SOL     OW15252   0.610  14.096   6.109
 4452SOL    HW115253   0.614  14.060   6.020
 4452SOL    HW215254   0.679  14.162   6.112
 4453SOL     OW15255   7.789   2.599   3.991
 4453SOL    HW115256   7.874   2.642   3.982
 4453SOL    HW215257   7.782   2.578   4.084
 4454SOL     OW15258   8.232   0.363  12.911
 4454SOL    HW115259   8.174   0.288  12.899
 4454SOL    HW215260   8.216   0.391  13.002
 4455SOL     OW15261   7.810   5.495   6.865
 4455SOL    HW115262   7.821   5.461   6.776
 4455SOL    HW215263   7.805   5.590   6.854
 4456SOL     OW15264  10.713  10.408   6.590
 4456SOL    HW115265  10.723  10.410   6.686
 4456SOL    HW215266  10.780  10.346   6.561
 4457SOL     OW15267   7.606  12.047   6.097
 4457SOL    HW115268   7.674  11.982   6.116
 4457SOL    HW215269   7.580  12.080   6.183
 4458SOL     OW15270   9.715  14.668   6.041
 4458SOL    HW115271   9.640  14.694   6.094
 4458SOL    HW215272   9.710  14.724   5.963
 4459SOL     OW15273   9.774  10.446   1.923
 4459SOL    HW115274   9.812  10.495   1.995
 4459SOL    HW215275   9.683  10.477   1.918
 4460SOL     OW15276   0.844   9.363   6.483
 4460SOL    HW115277   0.851   9.417   6.404
 4460SOL    HW215278   0.829   9.274   6.450
 4461SOL     OW15279   7.618   5.672  11.148
 4461SOL    HW115280   7.672   5.649  11.072
 4461SOL    HW215281   7.676   5.661  11.223
 4462SOL     OW15282   3.038   1.958  11.134
 4462SOL    HW115283   3.020   2.047  11.164
 4462SOL    HW215284   3.129   1.942  11.160
 4463SOL     OW15285   4.930  10.544  11.746
 4463SOL    HW115286   4.857  10.492  11.714
 4463SOL    HW215287   4.953  10.602  11.674
 4464SOL     OW15288   1.874  11.177   6.654
 4464SOL    HW115289   1.839  11.225   6.579
 4464SOL    HW215290   1.845  11.227   6.731
 4465SOL     OW15291  13.538   5.057  10.704
 4465SOL    HW115292  13.443   5.056  10.714
 4465SOL    HW215293  13.568   5.117  10.772
 4466SOL     OW15294  13.518   4.716   7.543
 4466SOL    HW115295  13.463   4.758   7.477
 4466SOL    HW215296  13.457   4.686   7.610
 4467SOL     OW15297   6.416   4.695  10.459
 4467SOL    HW115298   6.368   4.776  10.480
 4467SOL    HW215299   6.508   4.721  10.458
 4468SOL     OW15300   7.698  13.516   2.209
 4468SOL    HW115301   7.738  13.540   2.125
 4468SOL    HW215302   7.747  13.439   2.238
 4469SOL     OW15303  11.222   1.401   7.497
 4469SOL    HW115304  11.186   1.429   7.581
 4469SOL    HW215305  11.311   1.374   7.518
 4470SOL     OW15306   8.013   7.164   5.279
 4470SOL    HW115307   8.015   7.147   5.185
 4470SOL    HW215308   7.986   7.080   5.318
 4471SOL     OW15309   1.567   7.566   9.844
 4471SOL    HW115310   1.595   7.652   9.878
 4471SOL    HW215311   1.645   7.532   9.800
 4472SOL     OW15312   5.288   8.175  10.118
 4472SOL    HW115313   5.361   8.225  10.081
 4472SOL    HW215314   5.325   8.090  10.139
 4473SOL     OW15315  13.748   3.880   7.735
 4473SOL    HW115316  13.757   3.796   7.780
 4473SOL    HW215317  13.726   3.856   7.645
 4474SOL     OW15318   7.791   2.781  10.208
 4474SOL    HW115319   7.837   2.805  10.288
 4474SOL    HW215320   7.766   2.690  10.221
 4475SOL     OW15321   8.498   2.502   0.288
 4475SOL    HW115322   8.493   2.459   0.202
 4475SOL    HW215323   8.477   2.433   0.350
 4476SOL     OW15324  12.780  13.790   1.366
 4476SOL    HW115325  12.868  13.794   1.404
 4476SOL    HW215326  12.728  13.744   1.432
 4477SOL     OW15327  11.150   6.031   2.941
 4477SOL    HW115328  11.136   6.029   2.847
 4477SOL    HW215329  11.098   6.105   2.972
 4478SOL     OW15330  10.699   0.176  10.257
 4478SOL    HW115331  10.653   0.107  10.305
 4478SOL    HW215332  10.634   0.245  10.246
 4479SOL     OW15333   6.203   6.757   6.522
 4479SOL    HW115334   6.193   6.849   6.496
 4479SOL    HW215335   6.131   6.712   6.479
 4480SOL     OW15336   5.848   0.901   3.396
 4480SOL    HW115337   5.938   0.915   3.426
 4480SOL    HW215338   5.852   0.919   3.302
 4481SOL     OW15339  13.662   6.240   7.243
 4481SOL    HW115340  13.651   6.201   7.329
 4481SOL    HW215341  13.754   6.223   7.220
 4482SOL     OW15342   0.059   1.184  13.136
 4482SOL    HW115343   0.080   1.147  13.050
 4482SOL    HW215344   0.120   1.141  13.196
 4483SOL     OW15345   1.692  11.349  13.250
 4483SOL    HW115346   1.783  11.349  13.218
 4483SOL    HW215347   1.639  11.334  13.172
 4484SOL     OW15348  13.838   3.278   2.608
 4484SOL    HW115349  13.821   3.277   2.514
 4484SOL    HW215350  13.933   3.274   2.615
 4485SOL     OW15351  11.819  10.459  12.403
 4485SOL    HW115352  11.817  10.512  12.483
 4485SOL    HW215353  11.727  10.449  12.379
 4486SOL     OW15354   1.826   3.242   2.971
 4486SOL    HW115355   1.857   3.151   2.964
 4486SOL    HW215356   1.901   3.295   2.943
 4487SOL     OW15357   2.765   3.712   9.224
 4487SOL    HW115358   2.719   3.784   9.181
 4487SOL    HW215359   2.856   3.721   9.197
 4488SOL     OW15360   0.829   8.257   2.464
 4488SOL    HW115361   0.905   8.197   2.466
 4488SOL    HW215362   0.776   8.231   2.540
 4489SOL     OW15363   4.054  10.341  11.616
 4489SOL    HW115364   3.984  10.285  11.584
 4489SOL    HW215365   4.073  10.400  11.542
 4490SOL     OW15366   7.639  10.166   7.620
 4490SOL    HW115367   7.650  10.219   7.541
 4490SOL    HW215368   7.710  10.102   7.616
 4491SOL     OW15369  10.315   2.065   8.372
 4491SOL    HW115370  10.253   1.993   8.359
 4491SOL    HW215371  10.289   2.130   8.306
 4492SOL     OW15372   8.511   8.195   7.120
 4492SOL    HW115373   8.539   8.286   7.108
 4492SOL    HW215374   8.517   8.157   7.032
 4493SOL     OW15375   3.530   5.509   2.069
 4493SOL    HW115376   3.559   5.600   2.073
 4493SOL    HW215377   3.442   5.514   2.032
 4494SOL     OW15378   7.690   0.872  14.050
 4494SOL    HW115379   7.617   0.901  13.994
 4494SOL    HW215380   7.705   0.781  14.024
 4495SOL     OW15381   7.632   3.398  13.104
 4495SOL    HW115382   7.722   3.371  13.085
 4495SOL    HW215383   7.611   3.461  13.036
 4496SOL     OW15384  12.904   7.878   1.383
 4496SOL    HW115385  12.859   7.955   1.346
 4496SOL    HW215386  12.852   7.855   1.460
 4497SOL     OW15387   7.512   0.976   4.750
 4497SOL    HW115388   7.481   0.951   4.837
 4497SOL    HW215389   7.503   1.071   4.747
 4498SOL     OW15390  10.442  13.408  14.205
 4498SOL    HW115391  10.353  13.412  14.241
 4498SOL    HW215392  10.488  13.481  14.247
 4499SOL     OW15393   6.330   4.942  13.231
 4499SOL    HW115394   6.295   4.986  13.153
 4499SOL    HW215395   6.378   4.867  13.196
 4500SOL     OW15396   6.585   1.299   5.585
 4500SOL    HW115397   6.521   1.367   5.561
 4500SOL    HW215398   6.608   1.318   5.676
 4501SOL     OW15399   0.671   4.045   3.084
 4501SOL    HW115400   0.732   3.984   3.043
 4501SOL    HW215401   0.723   4.092   3.149
 4502SOL     OW15402  14.770  11.209  11.262
 4502SOL    HW115403  14.699  11.210  11.326
 4502SOL    HW215404  14.847  11.237  11.311
 4503SOL     OW15405   6.252  11.759   7.912
 4503SOL    HW115406   6.189  11.704   7.865
 4503SOL    HW215407   6.288  11.817   7.845
 4504SOL     OW15408   0.045  12.910  12.538
 4504SOL    HW115409   0.085  12.984  12.583
 4504SOL    HW215410   0.084  12.833  12.579
 4505SOL     OW15411   8.247  12.025  13.715
 4505SOL    HW115412   8.225  12.070  13.797
 4505SOL    HW215413   8.221  11.934  13.730
 4506SOL     OW15414   4.879   0.111  11.128
 4506SOL    HW115415   4.800   0.082  11.083
 4506SOL    HW215416   4.936   0.144  11.059
 4507SOL     OW15417  13.413  14.131  13.878
 4507SOL    HW115418  13.326  14.123  13.838
 4507SOL    HW215419  13.457  14.199  13.828
 4508SOL     OW15420   7.812  11.460   5.816
 4508SOL    HW115421   7.874  11.527   5.847
 4508SOL    HW215422   7.847  11.434   5.730
 4509SOL     OW15423   4.481   5.911  12.096
 4509SOL    HW115424   4.574   5.902  12.078
 4509SOL    HW215425   4.476   5.974  12.168
 4510SOL     OW15426   9.057   7.752   3.185
 4510SOL    HW115427   9.146   7.784   3.205
 4510SOL    HW215428   9.000   7.823   3.214
 4511SOL     OW15429  12.891   0.582  13.884
 4511SOL    HW115430  12.812   0.610  13.837
 4511SOL    HW215431  12.867   0.591  13.977
 4512SOL     OW15432  14.617   6.510  12.678
 4512SOL    HW115433  14.583   6.518  12.767
 4512SOL    HW215434  14.560   6.446  12.636
 4513SOL     OW15435   9.320  11.323   6.614
 4513SOL    HW115436   9.339  11.416   6.619
 4513SOL    HW215437   9.280  11.311   6.528
 4514SOL     OW15438   4.081  11.677  11.599
 4514SOL    HW115439   4.056  11.757  11.646
 4514SOL    HW215440   4.090  11.611  11.667
 4515SOL     OW15441  14.618   8.327   7.779
 4515SOL    HW115442  14.695   8.332   7.836
 4515SOL    HW215443  14.583   8.415   7.778
 4516SOL     OW15444   0.101  13.057   1.050
 4516SOL    HW115445   0.113  13.066   0.956
 4516SOL    HW215446   0.092  12.963   1.064
 4517SOL     OW15447   4.212   4.960   0.364
 4517SOL    HW115448   4.307   4.960   0.374
 4517SOL    HW215449   4.184   5.045   0.398
 4518SOL     OW15450  13.076  14.396   8.413
 4518SOL    HW115451  13.084  14.333   8.342
 4518SOL    HW215452  13.150  14.455   8.401
 4519SOL     OW15453   4.788   2.793  10.435
 4519SOL    HW115454   4.860   2.786  10.497
 4519SOL    HW215455   4.824   2.843  10.362
 4520SOL     OW15456   2.554   6.024   5.513
 4520SOL    HW115457   2.633   6.076   5.529
 4520SOL    HW215458   2.543   6.028   5.418
 4521SOL     OW15459   1.542   9.765   7.464
 4521SOL    HW115460   1.520   9.682   7.507
 4521SOL    HW215461   1.528   9.747   7.371
 4522SOL     OW15462  12.972   8.526   4.258
 4522SOL    HW115463  12.982   8.431   4.251
 4522SOL    HW215464  13.059   8.561   4.241
 4523SOL     OW15465  11.558   3.541   2.562
 4523SOL    HW115466  11.644   3.554   2.602
 4523SOL    HW215467  11.512   3.483   2.624
 4524SOL     OW15468   8.947  11.493   9.217
 4524SOL    HW115469   9.004  11.533   9.282
 4524SOL    HW215470   9.001  11.427   9.174
 4525SOL     OW15471   3.824  10.768   4.108
 4525SOL    HW115472   3.884  10.765   4.182
 4525SOL    HW215473   3.861  10.707   4.045
 4526SOL     OW15474  14.622  13.700   1.224
 4526SOL    HW115475  14.717  13.696   1.237
 4526SOL    HW215476  14.604  13.630   1.161
 4527SOL     OW15477  13.658  12.198   7.628
 4527SOL    HW115478  13.725  12.215   7.694
 4527SOL    HW215479  13.609  12.123   7.661
 4528SOL     OW15480   0.979   2.525  14.192
 4528SOL    HW115481   0.941   2.612  14.205
 4528SOL    HW215482   1.046   2.538  14.125
 4529SOL     OW15483   7.047  10.138  12.346
 4529SOL    HW115484   7.054  10.105  12.435
 4529SOL    HW215485   7.110  10.211  12.342
 4530SOL     OW15486   4.877   7.363   6.416
 4530SOL    HW115487   4.878   7.459   6.411
 4530SOL    HW215488   4.911   7.343   6.503
 4531SOL     OW15489  10.121  10.497  13.089
 4531SOL    HW115490  10.114  10.591  13.072
 4531SOL    HW215491  10.096  10.456  13.007
 4532SOL     OW15492   0.100   2.234  14.345
 4532SOL    HW115493   0.183   2.281  14.352
 4532SOL    HW215494   0.099   2.199  14.256
 4533SOL     OW15495   1.780   1.362   8.023
 4533SOL    HW115496   1.801   1.288   8.080
 4533SOL    HW215497   1.859   1.376   7.971
 4534SOL     OW15498   3.829  13.097   4.790
 4534SOL    HW115499   3.910  13.123   4.746
 4534SOL    HW215500   3.796  13.179   4.828
 4535SOL     OW15501   1.394   9.045   5.990
 4535SOL    HW115502   1.325   8.983   6.014
 4535SOL    HW215503   1.475   8.996   5.999
 4536SOL     OW15504   2.243  12.685   1.951
 4536SOL    HW115505   2.183  12.612   1.965
 4536SOL    HW215506   2.303  12.682   2.026
 4537SOL     OW15507   8.905   7.240   1.311
 4537SOL    HW115508   8.871   7.318   1.353
 4537SOL    HW215509   8.964   7.201   1.376
 4538SOL     OW15510   9.964   8.534   7.254
 4538SOL    HW115511   9.897   8.477   7.292
 4538SOL    HW215512   9.946   8.621   7.290
 4539SOL     OW15513   3.952   8.903   5.886
 4539SOL    HW115514   3.881   8.874   5.829
 4539SOL    HW215515   3.978   8.988   5.850
 4540SOL     OW15516  10.785  13.902   1.750
 4540SOL    HW115517  10.857  13.943   1.702
 4540SOL    HW215518  10.788  13.810   1.724
 4541SOL     OW15519   4.527   4.409  14.267
 4541SOL    HW115520   4.588   4.444  14.202
 4541SOL    HW215521   4.582   4.378  14.339
 4542SOL     OW15522   0.237   7.185   9.588
 4542SOL    HW115523   0.225   7.269   9.543
 4542SOL    HW215524   0.160   7.177   9.644
 4543SOL     OW15525   3.419   7.858   8.624
 4543SOL    HW115526   3.373   7.919   8.566
 4543SOL    HW215527   3.350   7.815   8.673
 4544SOL     OW15528   8.348   7.545   7.525
 4544SOL    HW115529   8.341   7.486   7.599
 4544SOL    HW215530   8.279   7.518   7.465
 4545SOL     OW15531   7.890   9.512   3.632
 4545SOL    HW115532   7.819   9.574   3.620
 4545SOL    HW215533   7.881   9.450   3.560
 4546SOL     OW15534   9.975   3.179   2.025
 4546SOL    HW115535  10.041   3.131   1.974
 4546SOL    HW215536   9.995   3.158   2.116
 4547SOL     OW15537   2.693  13.978   2.664
 4547SOL    HW115538   2.640  13.968   2.743
 4547SOL    HW215539   2.663  13.907   2.607
 4548SOL     OW15540  10.914  10.373   3.225
 4548SOL    HW115541  10.892  10.457   3.264
 4548SOL    HW215542  11.009  10.366   3.233
 4549SOL     OW15543   0.373   2.749   8.563
 4549SOL    HW115544   0.455   2.703   8.581
 4549SOL    HW215545   0.313   2.719   8.632
 4550SOL     OW15546   7.401   1.685   5.474
 4550SOL    HW115547   7.332   1.747   5.450
 4550SOL    HW215548   7.462   1.687   5.400
 4551SOL     OW15549  11.076   5.238   9.590
 4551SOL    HW115550  11.138   5.165   9.582
 4551SOL    HW215551  11.052   5.259   9.499
 4552SOL     OW15552   6.240   8.391   4.528
 4552SOL    HW115553   6.304   8.351   4.468
 4552SOL    HW215554   6.251   8.485   4.515
 4553SOL     OW15555   4.864   6.729   0.934
 4553SOL    HW115556   4.905   6.692   1.013
 4553SOL    HW215557   4.877   6.824   0.943
 4554SOL     OW15558   5.496   1.900   3.033
 4554SOL    HW115559   5.506   1.873   2.941
 4554SOL    HW215560   5.418   1.852   3.062
 4555SOL     OW15561   3.415   3.840   9.533
 4555SOL    HW115562   3.407   3.745   9.517
 4555SOL    HW215563   3.395   3.880   9.448
 4556SOL     OW15564   0.052   9.185   6.518
 4556SOL    HW115565   0.122   9.201   6.455
 4556SOL    HW215566   0.019   9.272   6.540
 4557SOL     OW15567   2.060   9.495   8.628
 4557SOL    HW115568   2.070   9.435   8.702
 4557SOL    HW215569   2.069   9.439   8.551
 4558SOL     OW15570   2.265   4.093  13.636
 4558SOL    HW115571   2.355   4.071  13.657
 4558SOL    HW215572   2.271   4.148  13.558
 4559SOL     OW15573   2.693  10.957   4.742
 4559SOL    HW115574   2.691  10.953   4.647
 4559SOL    HW215575   2.602  10.943   4.769
 4560SOL     OW15576   2.221   9.092   7.252
 4560SOL    HW115577   2.264   9.045   7.180
 4560SOL    HW215578   2.243   9.184   7.237
 4561SOL     OW15579   0.937  10.788   7.802
 4561SOL    HW115580   0.875  10.783   7.875
 4561SOL    HW215581   0.939  10.880   7.778
 4562SOL     OW15582  11.873  14.691   4.650
 4562SOL    HW115583  11.901  14.734   4.569
 4562SOL    HW215584  11.827  14.759   4.699
 4563SOL     OW15585   2.088   6.391   7.806
 4563SOL    HW115586   2.020   6.362   7.746
 4563SOL    HW215587   2.105   6.315   7.862
 4564SOL     OW15588   6.692   8.566   5.201
 4564SOL    HW115589   6.782   8.579   5.173
 4564SOL    HW215590   6.689   8.601   5.290
 4565SOL     OW15591   1.500  13.305  12.084
 4565SOL    HW115592   1.574  13.300  12.022
 4565SOL    HW215593   1.422  13.307  12.028
 4566SOL     OW15594   7.351   0.017  10.501
 4566SOL    HW115595   7.359   0.073  10.424
 4566SOL    HW215596   7.331   0.077  10.573
 4567SOL     OW15597  14.829   8.832   9.618
 4567SOL    HW115598  14.757   8.884   9.655
 4567SOL    HW215599  14.813   8.743   9.650
 4568SOL     OW15600   1.042   7.047  10.591
 4568SOL    HW115601   1.030   7.125  10.645
 4568SOL    HW215602   0.972   7.051  10.526
 4569SOL     OW15603   0.624  10.721   9.148
 4569SOL    HW115604   0.595  10.630   9.142
 4569SOL    HW215605   0.700  10.719   9.205
 4570SOL     OW15606   7.216  11.216   8.449
 4570SOL    HW115607   7.258  11.302   8.456
 4570SOL    HW215608   7.177  11.216   8.361
 4571SOL     OW15609   0.344   0.871   0.427
 4571SOL    HW115610   0.409   0.912   0.371
 4571SOL    HW215611   0.309   0.799   0.373
 4572SOL     OW15612   6.183   3.249   4.081
 4572SOL    HW115613   6.148   3.185   4.020
 4572SOL    HW215614   6.151   3.333   4.049
 4573SOL     OW15615  10.330   0.889  13.061
 4573SOL    HW115616  10.321   0.888  13.156
 4573SOL    HW215617  10.363   0.802  13.039
 4574SOL     OW15618   4.103   2.354   5.585
 4574SOL    HW115619   4.085   2.283   5.523
 4574SOL    HW215620   4.197   2.349   5.601
 4575SOL     OW15621   4.763   0.264  12.114
 4575SOL    HW115622   4.795   0.174  12.115
 4575SOL    HW215623   4.676   0.259  12.152
 4576SOL     OW15624   0.591   9.845   8.006
 4576SOL    HW115625   0.602   9.788   7.930
 4576SOL    HW215626   0.645   9.805   8.074
 4577SOL     OW15627  14.039   5.315   0.465
 4577SOL    HW115628  14.126   5.289   0.494
 4577SOL    HW215629  13.980   5.255   0.510
 4578SOL     OW15630  12.008   2.311  10.202
 4578SOL    HW115631  12.102   2.295  10.197
 4578SOL    HW215632  11.981   2.273  10.286
 4579SOL     OW15633   8.976  12.991  11.645
 4579SOL    HW115634   9.039  13.031  11.584
 4579SOL    HW215635   8.958  12.905  11.608
 4580SOL     OW15636  14.857   1.205   9.959
 4580SOL    HW115637   0.038   1.192  10.035
 4580SOL    HW215638  14.778   1.246   9.994
 4581SOL     OW15639   5.516   3.804   1.447
 4581SOL    HW115640   5.455   3.731   1.436
 4581SOL    HW215641   5.597   3.774   1.405
 4582SOL     OW15642   8.510   7.843  10.439
 4582SOL    HW115643   8.479   7.754  10.455
 4582SOL    HW215644   8.438   7.899  10.466
 4583SOL     OW15645   4.382   0.597   9.876
 4583SOL    HW115646   4.361   0.668   9.817
 4583SOL    HW215647   4.298   0.555   9.895
 4584SOL     OW15648  14.823  14.710   2.401
 4584SOL    HW115649  14.738  14.667   2.400
 4584SOL    HW215650  14.814  14.778   2.468
 4585SOL     OW15651  10.915   0.111   2.362
 4585SOL    HW115652  10.917   0.089   2.456
 4585SOL    HW215653  10.885   0.030   2.320
 4586SOL     OW15654   4.230  13.742   1.920
 4586SOL    HW115655   4.326  13.744   1.928
 4586SOL    HW215656   4.207  13.651   1.940
 4587SOL     OW15657   4.228   8.917  14.362
 4587SOL    HW115658   4.155   8.868  14.398
 4587SOL    HW215659   4.281   8.852  14.316
 4588SOL     OW15660   3.296  11.400  10.562
 4588SOL    HW115661   3.263  11.395  10.472
 4588SOL    HW215662   3.361  11.471  10.560
 4589SOL     OW15663   8.303  10.563  13.989
 4589SOL    HW115664   8.340  10.481  14.023
 4589SOL    HW215665   8.333  10.567  13.899
 4590SOL     OW15666  14.844  14.814   4.732
 4590SOL    HW115667  14.785  14.767   4.792
 4590SOL    HW215668   0.016   0.000   4.789
 4591SOL     OW15669  10.236   9.814   8.717
 4591SOL    HW115670  10.211   9.896   8.676
 4591SOL    HW215671  10.332   9.814   8.716
 4592SOL     OW15672  10.655   8.196  11.508
 4592SOL    HW115673  10.621   8.190  11.597
 4592SOL    HW215674  10.748   8.215  11.519
 4593SOL     OW15675   4.697   8.965   6.649
 4593SOL    HW115676   4.724   8.889   6.597
 4593SOL    HW215677   4.676   9.033   6.585
 4594SOL     OW15678  12.996   4.967   2.257
 4594SOL    HW115679  12.958   4.949   2.171
 4594SOL    HW215680  13.022   4.881   2.290
 4595SOL     OW15681  12.711   9.154   0.591
 4595SOL    HW115682  12.805   9.153   0.577
 4595SOL    HW215683  12.694   9.236   0.638
 4596SOL     OW15684   3.892   0.205   2.173
 4596SOL    HW115685   3.908   0.251   2.256
 4596SOL    HW215686   3.969   0.224   2.120
 4597SOL     OW15687   1.929   6.898  11.954
 4597SOL    HW115688   2.008   6.933  11.911
 4597SOL    HW215689   1.963   6.846  12.026
 4598SOL     OW15690   7.612  14.564   0.540
 4598SOL    HW115691   7.698  14.523   0.534
 4598SOL    HW215692   7.626  14.653   0.509
 4599SOL     OW15693   8.104   7.090   2.521
 4599SOL    HW115694   8.063   7.172   2.495
 4599SOL    HW215695   8.127   7.103   2.613
 4600SOL     OW15696   7.330  12.031   8.843
 4600SOL    HW115697   7.249  12.003   8.801
 4600SOL    HW215698   7.349  11.963   8.907
 4601SOL     OW15699   4.945   3.719   2.515
 4601SOL    HW115700   4.969   3.712   2.607
 4601SOL    HW215701   4.917   3.630   2.491
 4602SOL     OW15702   2.345   5.691  10.460
 4602SOL    HW115703   2.280   5.758  10.439
 4602SOL    HW215704   2.293   5.614  10.483
 4603SOL     OW15705   5.574   7.084   4.151
 4603SOL    HW115706   5.527   7.015   4.200
 4603SOL    HW215707   5.623   7.037   4.084
 4604SOL     OW15708   5.316   8.882   3.162
 4604SOL    HW115709   5.242   8.855   3.215
 4604SOL    HW215710   5.392   8.843   3.205
 4605SOL     OW15711  13.936   3.654   1.067
 4605SOL    HW115712  13.907   3.585   1.127
 4605SOL    HW215713  13.993   3.608   1.005
 4606SOL     OW15714   0.402   5.884   1.970
 4606SOL    HW115715   0.348   5.813   1.936
 4606SOL    HW215716   0.369   5.962   1.926
 4607SOL     OW15717   5.414   8.520   5.000
 4607SOL    HW115718   5.335   8.559   4.964
 4607SOL    HW215719   5.411   8.429   4.970
 4608SOL     OW15720   8.053   7.366   2.910
 4608SOL    HW115721   8.080   7.277   2.888
 4608SOL    HW215722   7.969   7.355   2.956
 4609SOL     OW15723   7.668   2.196   3.173
 4609SOL    HW115724   7.738   2.200   3.107
 4609SOL    HW215725   7.710   2.159   3.250
 4610SOL     OW15726   2.015  14.431  14.523
 4610SOL    HW115727   2.037  14.470  14.607
 4610SOL    HW215728   1.927  14.396  14.535
 4611SOL     OW15729   5.631   9.764  13.721
 4611SOL    HW115730   5.602   9.724  13.639
 4611SOL    HW215731   5.726   9.759  13.718
 4612SOL     OW15732  12.078   7.106   9.911
 4612SOL    HW115733  11.985   7.092   9.930
 4612SOL    HW215734  12.123   7.037   9.959
 4613SOL     OW15735   5.531   4.361   2.019
 4613SOL    HW115736   5.484   4.438   1.987
 4613SOL    HW215737   5.547   4.380   2.112
 4614SOL     OW15738  13.454  10.991   6.567
 4614SOL    HW115739  13.540  10.960   6.540
 4614SOL    HW215740  13.406  11.003   6.485
 4615SOL     OW15741  10.560  10.423   9.225
 4615SOL    HW115742  10.644  10.442   9.183
 4615SOL    HW215743  10.563  10.329   9.243
 4616SOL     OW15744  13.368  11.583   5.724
 4616SOL    HW115745  13.371  11.514   5.659
 4616SOL    HW215746  13.398  11.542   5.805
 4617SOL     OW15747   5.613   4.996  11.531
 4617SOL    HW115748   5.690   5.043  11.501
 4617SOL    HW215749   5.648   4.920  11.579
 4618SOL     OW15750   6.751   8.953   1.704
 4618SOL    HW115751   6.673   8.981   1.751
 4618SOL    HW215752   6.820   9.012   1.735
 4619SOL     OW15753   2.007   1.671   9.160
 4619SOL    HW115754   1.991   1.656   9.066
 4619SOL    HW215755   2.015   1.766   9.167
 4620SOL     OW15756   9.463   5.159  11.919
 4620SOL    HW115757   9.507   5.129  11.839
 4620SOL    HW215758   9.420   5.080  11.952
 4621SOL     OW15759   6.170  11.578  12.274
 4621SOL    HW115760   6.119  11.611  12.348
 4621SOL    HW215761   6.178  11.652  12.214
 4622SOL     OW15762   5.201  11.575  11.501
 4622SOL    HW115763   5.118  11.529  11.487
 4622SOL    HW215764   5.176  11.657  11.544
 4623SOL     OW15765   8.333   9.857  13.414
 4623SOL    HW115766   8.266   9.818  13.470
 4623SOL    HW215767   8.408   9.799  13.423
 4624SOL     OW15768   1.050   5.061  11.007
 4624SOL    HW115769   1.102   5.011  10.945
 4624SOL    HW215770   1.041   5.004  11.083
 4625SOL     OW15771   0.370  10.644   2.479
 4625SOL    HW115772   0.389  10.606   2.565
 4625SOL    HW215773   0.455  10.656   2.438
 4626SOL     OW15774  14.798   6.277   4.138
 4626SOL    HW115775   0.017   6.265   4.151
 4626SOL    HW215776  14.784   6.262   4.045
 4627SOL     OW15777  13.570   4.478   4.388
 4627SOL    HW115778  13.657   4.487   4.426
 4627SOL    HW215779  13.536   4.568   4.387
 4628SOL     OW15780   1.208  12.831   2.789
 4628SOL    HW115781   1.282  12.844   2.849
 4628SOL    HW215782   1.158  12.759   2.828
 4629SOL     OW15783   9.872  13.524  13.678
 4629SOL    HW115784   9.898  13.432  13.681
 4629SOL    HW215785   9.938  13.567  13.625
 4630SOL     OW15786   9.520   2.629   7.658
 4630SOL    HW115787   9.572   2.555   7.626
 4630SOL    HW215788   9.429   2.602   7.644
 4631SOL     OW15789  12.133   0.614   5.286
 4631SOL    HW115790  12.094   0.533   5.253
 4631SOL    HW215791  12.202   0.635   5.224
 4632SOL     OW15792   5.558   2.723  11.774
 4632SOL    HW115793   5.542   2.756  11.685
 4632SOL    HW215794   5.633   2.665  11.764
 4633SOL     OW15795   5.745   8.846   5.237
 4633SOL    HW115796   5.663   8.827   5.283
 4633SOL    HW215797   5.770   8.934   5.267
 4634SOL     OW15798   1.571   0.637   6.724
 4634SOL    HW115799   1.480   0.642   6.752
 4634SOL    HW215800   1.604   0.726   6.735
 4635SOL     OW15801  11.553  12.892   5.367
 4635SOL    HW115802  11.555  12.953   5.441
 4635SOL    HW215803  11.644  12.868   5.353
 4636SOL     OW15804   0.355   8.939  12.075
 4636SOL    HW115805   0.290   9.008  12.084
 4636SOL    HW215806   0.315   8.875  12.016
 4637SOL     OW15807  11.392   5.818  12.048
 4637SOL    HW115808  11.454   5.890  12.056
 4637SOL    HW215809  11.395   5.795  11.955
 4638SOL     OW15810   5.061   4.767   4.719
 4638SOL    HW115811   5.038   4.752   4.627
 4638SOL    HW215812   5.108   4.688   4.745
 4639SOL     OW15813   0.523   1.958  10.607
 4639SOL    HW115814   0.510   2.034  10.550
 4639SOL    HW215815   0.525   1.883  10.547
 4640SOL     OW15816   1.160   0.963  12.682
 4640SOL    HW115817   1.234   0.962  12.743
 4640SOL    HW215818   1.146   0.871  12.660
 4641SOL     OW15819   3.682   8.146   4.003
 4641SOL    HW115820   3.606   8.178   3.954
 4641SOL    HW215821   3.731   8.093   3.940
 4642SOL     OW15822  11.265   8.873  10.880
 4642SOL    HW115823  11.265   8.923  10.798
 4642SOL    HW215824  11.344   8.819  10.875
 4643SOL     OW15825  13.955   2.688   6.510
 4643SOL    HW115826  13.865   2.711   6.485
 4643SOL    HW215827  14.008   2.759   6.475
 4644SOL     OW15828   5.008   1.887   9.227
 4644SOL    HW115829   4.927   1.916   9.269
 4644SOL    HW215830   5.075   1.896   9.294
 4645SOL     OW15831  13.517  11.223   0.514
 4645SOL    HW115832  13.572  11.155   0.476
 4645SOL    HW215833  13.463  11.178   0.578
 4646SOL     OW15834   0.296   8.360  13.715
 4646SOL    HW115835   0.368   8.391  13.661
 4646SOL    HW215836   0.309   8.266  13.721
 4647SOL     OW15837   3.471   5.086   7.844
 4647SOL    HW115838   3.378   5.077   7.864
 4647SOL    HW215839   3.497   5.167   7.888
 4648SOL     OW15840   5.314  10.623   8.681
 4648SOL    HW115841   5.219  10.635   8.681
 4648SOL    HW215842   5.346  10.692   8.622
 4649SOL     OW15843  12.580   8.181   0.034
 4649SOL    HW115844  12.501   8.212  14.865
 4649SOL    HW215845  12.611   8.108  14.854
 4650SOL     OW15846   6.772   9.505   2.613
 4650SOL    HW115847   6.835   9.507   2.541
 4650SOL    HW215848   6.764   9.596   2.641
 4651SOL     OW15849   7.580   1.614  14.347
 4651SOL    HW115850   7.607   1.582  14.433
 4651SOL    HW215851   7.508   1.557  14.321
 4652SOL     OW15852   8.930   0.521   3.974
 4652SOL    HW115853   8.841   0.555   3.978
 4652SOL    HW215854   8.962   0.526   4.064
 4653SOL     OW15855   8.468  13.390  12.854
 4653SOL    HW115856   8.397  13.341  12.897
 4653SOL    HW215857   8.426  13.431  12.778
 4654SOL     OW15858   2.885   5.286   7.978
 4654SOL    HW115859   2.804   5.255   7.936
 4654SOL    HW215860   2.901   5.222   8.048
 4655SOL     OW15861  12.726   8.549   2.477
 4655SOL    HW115862  12.659   8.607   2.513
 4655SOL    HW215863  12.807   8.576   2.521
 4656SOL     OW15864   3.842   1.393  10.411
 4656SOL    HW115865   3.765   1.347  10.443
 4656SOL    HW215866   3.861   1.458  10.479
 4657SOL     OW15867   3.591   5.125   8.163
 4657SOL    HW115868   3.647   5.128   8.240
 4657SOL    HW215869   3.650   5.138   8.089
 4658SOL     OW15870   9.864   3.711   9.158
 4658SOL    HW115871   9.861   3.803   9.187
 4658SOL    HW215872   9.772   3.683   9.160
 4659SOL     OW15873   6.428  13.618   8.622
 4659SOL    HW115874   6.495  13.576   8.568
 4659SOL    HW215875   6.392  13.687   8.567
 4660SOL     OW15876   8.979   5.709  13.761
 4660SOL    HW115877   8.932   5.787  13.733
 4660SOL    HW215878   9.054   5.742  13.809
 4661SOL     OW15879  13.881   6.613   8.959
 4661SOL    HW115880  13.906   6.705   8.963
 4661SOL    HW215881  13.785   6.615   8.950
 4662SOL     OW15882   9.240   3.036  10.687
 4662SOL    HW115883   9.246   3.018  10.593
 4662SOL    HW215884   9.167   3.096  10.696
 4663SOL     OW15885   7.657  14.081   0.284
 4663SOL    HW115886   7.649  14.120   0.371
 4663SOL    HW215887   7.704  13.999   0.299
 4664SOL     OW15888   5.195  12.991  14.193
 4664SOL    HW115889   5.283  12.962  14.169
 4664SOL    HW215890   5.197  13.086  14.182
 4665SOL     OW15891   2.962  13.197   3.038
 4665SOL    HW115892   2.870  13.206   3.063
 4665SOL    HW215893   2.989  13.285   3.011
 4666SOL     OW15894   1.967  12.446  10.904
 4666SOL    HW115895   2.001  12.534  10.888
 4666SOL    HW215896   1.878  12.447  10.869
 4667SOL     OW15897   3.740  12.699   5.487
 4667SOL    HW115898   3.752  12.794   5.494
 4667SOL    HW215899   3.828  12.663   5.501
 4668SOL     OW15900   8.739   8.718   9.422
 4668SOL    HW115901   8.766   8.781   9.354
 4668SOL    HW215902   8.670   8.667   9.381
 4669SOL     OW15903   2.409  12.782   9.140
 4669SOL    HW115904   2.420  12.800   9.233
 4669SOL    HW215905   2.450  12.856   9.096
 4670SOL     OW15906   3.616   3.225   5.800
 4670SOL    HW115907   3.706   3.213   5.831
 4670SOL    HW215908   3.566   3.158   5.847
 4671SOL     OW15909  10.915  13.980   5.687
 4671SOL    HW115910  10.962  13.900   5.712
 4671SOL    HW215911  10.866  13.955   5.608
 4672SOL     OW15912   2.674  10.942  11.638
 4672SOL    HW115913   2.717  11.011  11.689
 4672SOL    HW215914   2.582  10.968  11.635
 4673SOL     OW15915   3.569   5.317  12.428
 4673SOL    HW115916   3.653   5.353  12.457
 4673SOL    HW215917   3.504   5.382  12.455
 4674SOL     OW15918  14.813   0.767   6.775
 4674SOL    HW115919  14.813   0.693   6.836
 4674SOL    HW215920  14.853   0.732   6.695
 4675SOL     OW15921  10.660   3.295   9.597
 4675SOL    HW115922  10.608   3.224   9.561
 4675SOL    HW215923  10.744   3.255   9.618
 4676SOL     OW15924   6.733  11.798  12.818
 4676SOL    HW115925   6.691  11.785  12.733
 4676SOL    HW215926   6.721  11.715  12.864
 4677SOL     OW15927   3.461  14.254   5.855
 4677SOL    HW115928   3.413  14.287   5.930
 4677SOL    HW215929   3.395  14.209   5.802
 4678SOL     OW15930   3.627  12.212   9.168
 4678SOL    HW115931   3.660  12.179   9.252
 4678SOL    HW215932   3.551  12.265   9.192
 4679SOL     OW15933  11.878   6.454   4.617
 4679SOL    HW115934  11.836   6.442   4.702
 4679SOL    HW215935  11.867   6.370   4.573
 4680SOL     OW15936   3.454  10.907  11.782
 4680SOL    HW115937   3.415  10.981  11.827
 4680SOL    HW215938   3.494  10.855  11.852
 4681SOL     OW15939   1.002   8.883   5.421
 4681SOL    HW115940   1.000   8.800   5.469
 4681SOL    HW215941   0.983   8.858   5.330
 4682SOL     OW15942  10.771   6.886   3.123
 4682SOL    HW115943  10.777   6.794   3.096
 4682SOL    HW215944  10.758   6.882   3.217
 4683SOL     OW15945   5.803  11.788  13.129
 4683SOL    HW115946   5.748  11.717  13.162
 4683SOL    HW215947   5.744  11.863  13.123
 4684SOL     OW15948   1.190   7.364   4.332
 4684SOL    HW115949   1.240   7.282   4.329
 4684SOL    HW215950   1.099   7.338   4.321
 4685SOL     OW15951   3.807  13.138   0.154
 4685SOL    HW115952   3.745  13.142   0.082
 4685SOL    HW215953   3.755  13.112   0.230
 4686SOL     OW15954   1.656   6.485   4.008
 4686SOL    HW115955   1.686   6.574   3.987
 4686SOL    HW215956   1.568   6.481   3.971
 4687SOL     OW15957   8.846  12.579   5.511
 4687SOL    HW115958   8.868  12.637   5.438
 4687SOL    HW215959   8.930  12.546   5.542
 4688SOL     OW15960  14.725  10.893   3.988
 4688SOL    HW115961  14.746  10.846   3.908
 4688SOL    HW215962  14.739  10.985   3.967
 4689SOL     OW15963   0.370  14.829  10.875
 4689SOL    HW115964   0.382  14.802  10.783
 4689SOL    HW215965   0.444  14.789  10.921
 4690SOL     OW15966  12.016   0.027   5.878
 4690SOL    HW115967  12.018   0.118   5.909
 4690SOL    HW215968  12.030  14.850   5.957
 4691SOL     OW15969   6.642  11.478   4.292
 4691SOL    HW115970   6.639  11.441   4.204
 4691SOL    HW215971   6.567  11.537   4.296
 4692SOL     OW15972   9.780  13.367   1.479
 4692SOL    HW115973   9.690  13.360   1.446
 4692SOL    HW215974   9.824  13.425   1.418
 4693SOL     OW15975   2.648   0.050   8.253
 4693SOL    HW115976   2.589  14.851   8.242
 4693SOL    HW215977   2.735   0.014   8.235
 4694SOL     OW15978   7.846   9.171   2.991
 4694SOL    HW115979   7.911   9.239   3.007
 4694SOL    HW215980   7.895   9.099   2.952
 4695SOL     OW15981   1.980   2.291   5.361
 4695SOL    HW115982   1.898   2.300   5.409
 4695SOL    HW215983   2.048   2.305   5.427
 4696SOL     OW15984   4.053  11.059   5.374
 4696SOL    HW115985   3.984  11.056   5.441
 4696SOL    HW215986   4.006  11.079   5.293
 4697SOL     OW15987   7.364   7.437   9.825
 4697SOL    HW115988   7.447   7.465   9.863
 4697SOL    HW215989   7.356   7.345   9.849
 4698SOL     OW15990   2.766   6.033   6.368
 4698SOL    HW115991   2.721   6.101   6.419
 4698SOL    HW215992   2.854   6.031   6.405
 4699SOL     OW15993  12.325   0.759  13.107
 4699SOL    HW115994  12.370   0.675  13.113
 4699SOL    HW215995  12.263   0.759  13.180
 4700SOL     OW15996   8.879   6.175  14.708
 4700SOL    HW115997   8.896   6.169  14.802
 4700SOL    HW215998   8.786   6.194  14.702
 4701SOL     OW15999  13.706   8.796   3.344
 4701SOL    HW116000  13.773   8.848   3.300
 4701SOL    HW216001  13.725   8.706   3.319
 4702SOL     OW16002   8.821   0.133   2.112
 4702SOL    HW116003   8.786   0.180   2.188
 4702SOL    HW216004   8.912   0.115   2.136
 4703SOL     OW16005   4.300  10.107   6.145
 4703SOL    HW116006   4.260  10.066   6.222
 4703SOL    HW216007   4.331  10.033   6.093
 4704SOL     OW16008   7.561   8.374  12.206
 4704SOL    HW116009   7.562   8.387  12.301
 4704SOL    HW216010   7.529   8.457  12.171
 4705SOL     OW16011   6.905  12.745   7.160
 4705SOL    HW116012   6.906  12.789   7.075
 4705SOL    HW216013   6.828  12.688   7.157
 4706SOL     OW16014  12.763   3.148   4.521
 4706SOL    HW116015  12.815   3.142   4.601
 4706SOL    HW216016  12.820   3.112   4.453
 4707SOL     OW16017   6.904   2.270   6.783
 4707SOL    HW116018   6.901   2.320   6.864
 4707SOL    HW216019   6.926   2.181   6.810
 4708SOL     OW16020  11.958   6.828   9.160
 4708SOL    HW116021  12.019   6.835   9.234
 4708SOL    HW216022  11.917   6.914   9.154
 4709SOL     OW16023  12.409  14.511   4.799
 4709SOL    HW116024  12.489  14.493   4.750
 4709SOL    HW216025  12.341  14.461   4.753
 4710SOL     OW16026   8.071  13.468  12.974
 4710SOL    HW116027   7.983  13.447  12.943
 4710SOL    HW216028   8.124  13.474  12.894
 4711SOL     OW16029   8.105   8.350   6.356
 4711SOL    HW116030   8.190   8.393   6.373
 4711SOL    HW216031   8.043   8.423   6.348
 4712SOL     OW16032   3.628  11.221  14.304
 4712SOL    HW116033   3.559  11.163  14.338
 4712SOL    HW216034   3.674  11.168  14.239
 4713SOL     OW16035   6.369   6.995   7.738
 4713SOL    HW116036   6.401   7.076   7.699
 4713SOL    HW216037   6.335   6.944   7.664
 4714SOL     OW16038   1.361  10.489   9.817
 4714SOL    HW116039   1.341  10.559   9.755
 4714SOL    HW216040   1.287  10.490   9.879
 4715SOL     OW16041  12.869   7.408   9.496
 4715SOL    HW116042  12.912   7.412   9.581
 4715SOL    HW216043  12.880   7.496   9.459
 4716SOL     OW16044  12.501   2.737   3.915
 4716SOL    HW116045  12.470   2.649   3.937
 4716SOL    HW216046  12.563   2.758   3.985
 4717SOL     OW16047  10.529   8.197   6.722
 4717SOL    HW116048  10.535   8.127   6.787
 4717SOL    HW216049  10.445   8.240   6.739
 4718SOL     OW16050  12.415   6.883  13.449
 4718SOL    HW116051  12.376   6.796  13.442
 4718SOL    HW216052  12.505   6.871  13.417
 4719SOL     OW16053  14.798   5.533  11.511
 4719SOL    HW116054  14.764   5.622  11.498
 4719SOL    HW216055  14.862   5.521  11.441
 4720SOL     OW16056  13.465   3.908   8.918
 4720SOL    HW116057  13.554   3.939   8.931
 4720SOL    HW216058  13.462   3.825   8.965
 4721SOL     OW16059   0.114   5.791  10.838
 4721SOL    HW116060   0.053   5.760  10.772
 4721SOL    HW216061   0.197   5.748  10.816
 4722SOL     OW16062  13.143   8.982   6.991
 4722SOL    HW116063  13.107   8.994   7.079
 4722SOL    HW216064  13.183   8.895   6.993
 4723SOL     OW16065  10.702   3.511  10.405
 4723SOL    HW116066  10.700   3.582  10.469
 4723SOL    HW216067  10.612   3.478  10.403
 4724SOL     OW16068   7.646   3.997   7.888
 4724SOL    HW116069   7.694   4.047   7.822
 4724SOL    HW216070   7.693   4.015   7.970
 4725SOL     OW16071   7.912  10.639   9.998
 4725SOL    HW116072   7.857  10.629   9.920
 4725SOL    HW216073   7.989  10.585   9.980
 4726SOL     OW16074  12.188  11.972  10.002
 4726SOL    HW116075  12.228  12.059  10.003
 4726SOL    HW216076  12.218  11.932   9.920
 4727SOL     OW16077  10.356  10.343   1.914
 4727SOL    HW116078  10.267  10.316   1.890
 4727SOL    HW216079  10.342  10.419   1.971
 4728SOL     OW16080   7.429   9.836   4.323
 4728SOL    HW116081   7.525   9.845   4.327
 4728SOL    HW216082   7.414   9.742   4.320
 4729SOL     OW16083   9.231   3.385  10.621
 4729SOL    HW116084   9.148   3.338  10.623
 4729SOL    HW216085   9.272   3.366  10.706
 4730SOL     OW16086   9.541   6.037  14.734
 4730SOL    HW116087   9.447   6.039  14.751
 4730SOL    HW216088   9.568   6.129  14.741
 4731SOL     OW16089   5.755  12.620  13.791
 4731SOL    HW116090   5.677  12.617  13.735
 4731SOL    HW216091   5.812  12.553  13.756
 4732SOL     OW16092   8.431  11.483   4.560
 4732SOL    HW116093   8.478  11.561   4.531
 4732SOL    HW216094   8.378  11.513   4.634
 4733SOL     OW16095   6.803  11.174   9.920
 4733SOL    HW116096   6.728  11.135   9.966
 4733SOL    HW216097   6.873  11.110   9.932
 4734SOL     OW16098   6.704   3.606  13.147
 4734SOL    HW116099   6.670   3.571  13.065
 4734SOL    HW216100   6.643   3.676  13.171
 4735SOL     OW16101   6.432   0.176   3.587
 4735SOL    HW116102   6.509   0.149   3.636
 4735SOL    HW216103   6.455   0.262   3.551
 4736SOL     OW16104   8.105   1.520   9.407
 4736SOL    HW116105   8.170   1.553   9.469
 4736SOL    HW216106   8.110   1.425   9.415
 4737SOL     OW16107   9.804  11.074   1.805
 4737SOL    HW116108   9.754  11.153   1.827
 4737SOL    HW216109   9.792  11.016   1.880
 4738SOL     OW16110   9.798   7.260   3.746
 4738SOL    HW116111   9.815   7.270   3.839
 4738SOL    HW216112   9.710   7.294   3.734
 4739SOL     OW16113   9.430   2.296   1.830
 4739SOL    HW116114   9.336   2.288   1.843
 4739SOL    HW216115   9.441   2.294   1.735
 4740SOL     OW16116   2.165   5.859  14.538
 4740SOL    HW116117   2.124   5.791  14.591
 4740SOL    HW216118   2.251   5.824  14.516
 4741SOL     OW16119   0.411  14.443   5.865
 4741SOL    HW116120   0.474  14.438   5.937
 4741SOL    HW216121   0.335  14.394   5.897
 4742SOL     OW16122   8.218   0.149  11.671
 4742SOL    HW116123   8.273   0.159  11.593
 4742SOL    HW216124   8.281   0.135  11.742
 4743SOL     OW16125  11.115   9.715   4.197
 4743SOL    HW116126  11.209   9.708   4.208
 4743SOL    HW216127  11.085   9.768   4.271
 4744SOL     OW16128   7.433   7.207   5.872
 4744SOL    HW116129   7.431   7.113   5.890
 4744SOL    HW216130   7.509   7.239   5.922
 4745SOL     OW16131   7.906   0.666   9.244
 4745SOL    HW116132   7.867   0.673   9.331
 4745SOL    HW216133   7.865   0.735   9.193
 4746SOL     OW16134  13.233  13.050   3.133
 4746SOL    HW116135  13.275  13.030   3.217
 4746SOL    HW216136  13.290  13.008   3.067
 4747SOL     OW16137   5.398   1.437   5.120
 4747SOL    HW116138   5.343   1.374   5.168
 4747SOL    HW216139   5.356   1.444   5.034
 4748SOL     OW16140   9.026   4.120  12.121
 4748SOL    HW116141   9.061   4.088  12.038
 4748SOL    HW216142   9.062   4.060  12.187
 4749SOL     OW16143  14.862  11.357   3.208
 4749SOL    HW116144   0.044  11.291   3.247
 4749SOL    HW216145  14.808  11.307   3.146
 4750SOL     OW16146   3.631   6.538   1.017
 4750SOL    HW116147   3.665   6.588   1.091
 4750SOL    HW216148   3.707   6.527   0.960
 4751SOL     OW16149   7.270   6.865   7.842
 4751SOL    HW116150   7.224   6.873   7.925
 4751SOL    HW216151   7.315   6.949   7.832
 4752SOL     OW16152  12.127   1.914  14.660
 4752SOL    HW116153  12.144   1.838  14.604
 4752SOL    HW216154  12.040   1.897  14.696
 4753SOL     OW16155  14.154  12.296   0.102
 4753SOL    HW116156  14.120  12.366   0.046
 4753SOL    HW216157  14.159  12.336   0.189
 4754SOL     OW16158   3.307  10.967  10.401
 4754SOL    HW116159   3.292  10.935  10.490
 4754SOL    HW216160   3.231  10.937  10.351
 4755SOL     OW16161   6.913   8.389  10.432
 4755SOL    HW116162   6.935   8.388  10.339
 4755SOL    HW216163   6.880   8.477  10.448
 4756SOL     OW16164   9.213   7.771  14.266
 4756SOL    HW116165   9.157   7.693  14.265
 4756SOL    HW216166   9.294   7.742  14.307
 4757SOL     OW16167   8.543  14.748   2.070
 4757SOL    HW116168   8.624  14.766   2.022
 4757SOL    HW216169   8.486  14.705   2.006
 4758SOL     OW16170   1.798   9.500   3.975
 4758SOL    HW116171   1.735   9.511   4.046
 4758SOL    HW216172   1.879   9.473   4.018
 4759SOL     OW16173   7.349   3.783   3.376
 4759SOL    HW116174   7.354   3.867   3.421
 4759SOL    HW216175   7.399   3.723   3.431
 4760SOL     OW16176   3.765   4.526   2.937
 4760SOL    HW116177   3.813   4.609   2.942
 4760SOL    HW216178   3.831   4.461   2.914
 4761SOL     OW16179  13.835   9.715   5.953
 4761SOL    HW116180  13.816   9.649   5.887
 4761SOL    HW216181  13.864   9.792   5.903
 4762SOL     OW16182   7.788   9.739   5.016
 4762SOL    HW116183   7.773   9.646   5.031
 4762SOL    HW216184   7.747   9.782   5.091
 4763SOL     OW16185   7.408   6.812   3.430
 4763SOL    HW116186   7.342   6.879   3.441
 4763SOL    HW216187   7.451   6.833   3.347
 4764SOL     OW16188   3.570  14.540   3.488
 4764SOL    HW116189   3.600  14.476   3.423
 4764SOL    HW216190   3.647  14.556   3.543
 4765SOL     OW16191  12.051   2.797   0.502
 4765SOL    HW116192  12.088   2.838   0.424
 4765SOL    HW216193  11.987   2.862   0.534
 4766SOL     OW16194   1.174   3.613   4.436
 4766SOL    HW116195   1.197   3.565   4.356
 4766SOL    HW216196   1.195   3.552   4.507
 4767SOL     OW16197   3.019  12.322  14.659
 4767SOL    HW116198   3.058  12.300  14.743
 4767SOL    HW216199   3.092  12.353  14.605
 4768SOL     OW16200   4.853   3.663  10.513
 4768SOL    HW116201   4.763   3.694  10.515
 4768SOL    HW216202   4.852   3.588  10.454
 4769SOL     OW16203   7.463   7.838   1.035
 4769SOL    HW116204   7.450   7.818   1.127
 4769SOL    HW216205   7.456   7.933   1.030
 4770SOL     OW16206   0.530  14.831  12.577
 4770SOL    HW116207   0.438  14.844  12.556
 4770SOL    HW216208   0.549  14.742  12.546
 4771SOL     OW16209   5.684  11.319   1.953
 4771SOL    HW116210   5.750  11.382   1.926
 4771SOL    HW216211   5.725  11.270   2.025
 4772SOL     OW16212   0.031  11.963   1.570
 4772SOL    HW116213   0.018  11.885   1.515
 4772SOL    HW216214   0.120  11.991   1.551
 4773SOL     OW16215  11.296  12.987   2.911
 4773SOL    HW116216  11.257  12.942   2.987
 4773SOL    HW216217  11.371  12.932   2.887
 4774SOL     OW16218   9.533  12.358  13.452
 4774SOL    HW116219   9.504  12.376  13.362
 4774SOL    HW216220   9.607  12.298  13.442
 4775SOL     OW16221   2.719  11.407   5.393
 4775SOL    HW116222   2.639  11.408   5.446
 4775SOL    HW216223   2.729  11.497   5.362
 4776SOL     OW16224   2.898   2.388  10.240
 4776SOL    HW116225   2.952   2.406  10.163
 4776SOL    HW216226   2.837   2.320  10.211
 4777SOL     OW16227  10.527  13.053   0.230
 4777SOL    HW116228  10.560  13.067   0.319
 4777SOL    HW216229  10.570  13.120   0.177
 4778SOL     OW16230   5.076   7.358   2.025
 4778SOL    HW116231   5.004   7.311   1.984
 4778SOL    HW216232   5.087   7.437   1.971
 4779SOL     OW16233  11.354   1.706   4.522
 4779SOL    HW116234  11.266   1.731   4.550
 4779SOL    HW216235  11.341   1.624   4.474
 4780SOL     OW16236   9.092   5.339   4.797
 4780SOL    HW116237   9.079   5.402   4.726
 4780SOL    HW216238   9.068   5.387   4.876
 4781SOL     OW16239  12.969  13.343   6.495
 4781SOL    HW116240  12.888  13.394   6.502
 4781SOL    HW216241  13.000  13.358   6.406
 4782SOL     OW16242   1.769  12.338   6.466
 4782SOL    HW116243   1.782  12.351   6.560
 4782SOL    HW216244   1.677  12.312   6.458
 4783SOL     OW16245   4.677  10.195   4.272
 4783SOL    HW116246   4.582  10.196   4.257
 4783SOL    HW216247   4.693  10.273   4.326
 4784SOL     OW16248   4.341   0.646  11.560
 4784SOL    HW116249   4.343   0.684  11.472
 4784SOL    HW216250   4.421   0.677  11.602
 4785SOL     OW16251   9.750   5.559   5.616
 4785SOL    HW116252   9.824   5.498   5.621
 4785SOL    HW216253   9.736   5.571   5.522
 4786SOL     OW16254   5.367   8.411  10.257
 4786SOL    HW116255   5.376   8.317  10.274
 4786SOL    HW216256   5.382   8.452  10.342
 4787SOL     OW16257   1.390   7.258   6.753
 4787SOL    HW116258   1.326   7.189   6.768
 4787SOL    HW216259   1.474   7.216   6.771
 4788SOL     OW16260   3.525   0.475  13.730
 4788SOL    HW116261   3.494   0.409  13.668
 4788SOL    HW216262   3.534   0.427  13.812
 4789SOL     OW16263  10.273   7.667  13.414
 4789SOL    HW116264  10.195   7.634  13.459
 4789SOL    HW216265  10.324   7.588  13.395
 4790SOL     OW16266  14.799   9.430   6.567
 4790SOL    HW116267  14.728   9.463   6.622
 4790SOL    HW216268  14.775   9.456   6.478
 4791SOL     OW16269   6.149   4.374  11.184
 4791SOL    HW116270   6.180   4.453  11.228
 4791SOL    HW216271   6.225   4.316  11.184
 4792SOL     OW16272  11.950   0.457   1.819
 4792SOL    HW116273  11.994   0.461   1.735
 4792SOL    HW216274  11.890   0.533   1.818
 4793SOL     OW16275   1.836   3.723  11.209
 4793SOL    HW116276   1.826   3.711  11.114
 4793SOL    HW216277   1.822   3.636  11.245
 4794SOL     OW16278  10.825  11.480   0.512
 4794SOL    HW116279  10.739  11.452   0.481
 4794SOL    HW216280  10.851  11.414   0.576
 4795SOL     OW16281  14.370  14.194  10.837
 4795SOL    HW116282  14.373  14.218  10.745
 4795SOL    HW216283  14.451  14.227  10.874
 4796SOL     OW16284   0.044   1.173   5.977
 4796SOL    HW116285   0.010   1.242   6.034
 4796SOL    HW216286  14.856   1.169   5.905
 4797SOL     OW16287  12.494   3.625   3.826
 4797SOL    HW116288  12.429   3.690   3.854
 4797SOL    HW216289  12.442   3.547   3.805
 4798SOL     OW16290  13.832  13.060  11.963
 4798SOL    HW116291  13.924  13.053  11.987
 4798SOL    HW216292  13.804  13.144  12.001
 4799SOL     OW16293  10.193   6.938   2.335
 4799SOL    HW116294  10.204   6.862   2.278
 4799SOL    HW216295  10.243   7.008   2.293
 4800SOL     OW16296   9.806   3.578  11.985
 4800SOL    HW116297   9.831   3.624  11.905
 4800SOL    HW216298   9.778   3.491  11.955
 4801SOL     OW16299   9.894   9.425   4.940
 4801SOL    HW116300   9.868   9.456   4.854
 4801SOL    HW216301   9.978   9.469   4.957
 4802SOL     OW16302  12.911  12.548   3.441
 4802SOL    HW116303  12.928  12.603   3.365
 4802SOL    HW216304  12.926  12.605   3.516
 4803SOL     OW16305   6.698  14.329   6.733
 4803SOL    HW116306   6.723  14.314   6.824
 4803SOL    HW216307   6.653  14.413   6.734
 4804SOL     OW16308  11.011   9.475   7.701
 4804SOL    HW116309  11.094   9.507   7.665
 4804SOL    HW216310  11.037   9.423   7.778
 4805SOL     OW16311   2.704   2.474   7.359
 4805SOL    HW116312   2.626   2.425   7.383
 4805SOL    HW216313   2.713   2.540   7.427
 4806SOL     OW16314   3.450   4.797  14.841
 4806SOL    HW116315   3.536   4.831  14.818
 4806SOL    HW216316   3.425   4.846   0.045
 4807SOL     OW16317   2.609   0.424   7.908
 4807SOL    HW116318   2.627   0.380   7.825
 4807SOL    HW216319   2.619   0.355   7.974
 4808SOL     OW16320  13.094  12.344  10.116
 4808SOL    HW116321  13.048  12.399  10.178
 4808SOL    HW216322  13.057  12.367  10.031
 4809SOL     OW16323   0.599  11.625   2.451
 4809SOL    HW116324   0.505  11.623   2.433
 4809SOL    HW216325   0.606  11.665   2.538
 4810SOL     OW16326  11.022   0.443  13.611
 4810SOL    HW116327  11.010   0.349  13.630
 4810SOL    HW216328  11.064   0.477  13.690
 4811SOL     OW16329   4.280   4.609   2.909
 4811SOL    HW116330   4.258   4.606   2.816
 4811SOL    HW216331   4.372   4.635   2.912
 4812SOL     OW16332  12.083   4.134   7.179
 4812SOL    HW116333  12.060   4.057   7.229
 4812SOL    HW216334  12.043   4.207   7.226
 4813SOL     OW16335   2.565   8.900   7.627
 4813SOL    HW116336   2.503   8.910   7.554
 4813SOL    HW216337   2.563   8.806   7.647
 4814SOL     OW16338  12.583   4.087  12.604
 4814SOL    HW116339  12.550   4.093  12.694
 4814SOL    HW216340  12.562   4.171  12.565
 4815SOL     OW16341   7.704   6.354  14.870
 4815SOL    HW116342   7.765   6.428  14.865
 4815SOL    HW216343   7.636   6.384   0.056
 4816SOL     OW16344   6.917   5.600   7.939
 4816SOL    HW116345   6.969   5.535   7.987
 4816SOL    HW216346   6.978   5.672   7.923
 4817SOL     OW16347  13.440  12.007   1.552
 4817SOL    HW116348  13.455  11.997   1.646
 4817SOL    HW216349  13.492  12.083   1.526
 4818SOL     OW16350   6.496  12.215  10.803
 4818SOL    HW116351   6.406  12.232  10.775
 4818SOL    HW216352   6.487  12.168  10.886
 4819SOL     OW16353   5.648   7.924   6.635
 4819SOL    HW116354   5.622   7.968   6.555
 4819SOL    HW216355   5.743   7.933   6.638
 4820SOL     OW16356  11.722   3.247  14.393
 4820SOL    HW116357  11.809   3.267  14.427
 4820SOL    HW216358  11.663   3.267  14.466
 4821SOL     OW16359   1.383  14.554  10.865
 4821SOL    HW116360   1.359  14.613  10.793
 4821SOL    HW216361   1.378  14.609  10.943
 4822SOL     OW16362  11.589   9.811  13.617
 4822SOL    HW116363  11.592   9.898  13.576
 4822SOL    HW216364  11.524   9.820  13.687
 4823SOL     OW16365   4.899   8.580  11.864
 4823SOL    HW116366   4.879   8.564  11.772
 4823SOL    HW216367   4.972   8.643  11.863
 4824SOL     OW16368  14.032  10.712  13.922
 4824SOL    HW116369  13.959  10.731  13.862
 4824SOL    HW216370  14.105  10.689  13.864
 4825SOL     OW16371   2.751   7.099   4.662
 4825SOL    HW116372   2.773   7.006   4.657
 4825SOL    HW216373   2.788   7.136   4.581
 4826SOL     OW16374   6.336   0.917   6.613
 4826SOL    HW116375   6.391   0.839   6.600
 4826SOL    HW216376   6.250   0.891   6.581
 4827SOL     OW16377   8.764   1.170   5.546
 4827SOL    HW116378   8.804   1.086   5.525
 4827SOL    HW216379   8.743   1.164   5.639
 4828SOL     OW16380   2.790   9.763  14.094
 4828SOL    HW116381   2.812   9.675  14.066
 4828SOL    HW216382   2.698   9.757  14.120
 4829SOL     OW16383   2.373   5.909   1.231
 4829SOL    HW116384   2.407   5.987   1.275
 4829SOL    HW216385   2.278   5.912   1.247
 4830SOL     OW16386  11.978   9.965   5.096
 4830SOL    HW116387  12.010  10.054   5.112
 4830SOL    HW216388  11.957   9.964   5.002
 4831SOL     OW16389  12.356  14.035  14.849
 4831SOL    HW116390  12.304  14.115  14.850
 4831SOL    HW216391  12.305  13.975  14.794
 4832SOL     OW16392   0.285  10.003  14.485
 4832SOL    HW116393   0.194  10.020  14.507
 4832SOL    HW216394   0.323   9.967  14.565
 4833SOL     OW16395  10.400  10.655  10.123
 4833SOL    HW116396  10.414  10.691  10.035
 4833SOL    HW216397  10.404  10.730  10.181
 4834SOL     OW16398   2.392   2.655  14.754
 4834SOL    HW116399   2.432   2.708  14.823
 4834SOL    HW216400   2.365   2.719  14.687
 4835SOL     OW16401  13.452  13.234   7.322
 4835SOL    HW116402  13.372  13.217   7.273
 4835SOL    HW216403  13.481  13.320   7.291
 4836SOL     OW16404  13.390   8.060  10.843
 4836SOL    HW116405  13.311   8.017  10.810
 4836SOL    HW216406  13.453   7.990  10.856
 4837SOL     OW16407  10.818  13.462   1.945
 4837SOL    HW116408  10.779  13.422   2.023
 4837SOL    HW216409  10.744  13.483   1.889
 4838SOL     OW16410  13.637   7.434  11.204
 4838SOL    HW116411  13.616   7.527  11.205
 4838SOL    HW216412  13.664   7.416  11.114
 4839SOL     OW16413   5.017  10.427   7.663
 4839SOL    HW116414   4.938  10.375   7.678
 4839SOL    HW216415   5.074  10.407   7.737
 4840SOL     OW16416   7.181   7.592   8.607
 4840SOL    HW116417   7.102   7.610   8.659
 4840SOL    HW216418   7.253   7.613   8.666
 4841SOL     OW16419   5.684   4.050   0.755
 4841SOL    HW116420   5.619   4.007   0.700
 4841SOL    HW216421   5.678   4.006   0.840
 4842SOL     OW16422   1.854  13.588   0.929
 4842SOL    HW116423   1.795  13.602   0.854
 4842SOL    HW216424   1.815  13.641   0.999
 4843SOL     OW16425   8.601   3.150  12.536
 4843SOL    HW116426   8.683   3.100  12.537
 4843SOL    HW216427   8.533   3.083  12.546
 4844SOL     OW16428  10.184  14.658  13.843
 4844SOL    HW116429  10.115  14.651  13.910
 4844SOL    HW216430  10.244  14.723  13.877
 4845SOL     OW16431  11.460  14.801   4.647
 4845SOL    HW116432  11.472   0.013   4.686
 4845SOL    HW216433  11.373  14.773   4.677
 4846SOL     OW16434   6.452   3.433   9.869
 4846SOL    HW116435   6.453   3.338   9.856
 4846SOL    HW216436   6.473   3.469   9.782
 4847SOL     OW16437   7.486  14.187   1.121
 4847SOL    HW116438   7.412  14.217   1.068
 4847SOL    HW216439   7.447  14.164   1.205
 4848SOL     OW16440   1.293  13.876   3.183
 4848SOL    HW116441   1.361  13.936   3.214
 4848SOL    HW216442   1.228  13.933   3.141
 4849SOL     OW16443  10.571   4.446  14.618
 4849SOL    HW116444  10.543   4.368  14.667
 4849SOL    HW216445  10.599   4.411  14.533
 4850SOL     OW16446  11.037   6.244  13.756
 4850SOL    HW116447  10.949   6.234  13.719
 4850SOL    HW216448  11.086   6.170  13.720
 4851SOL     OW16449  11.552   0.963   3.541
 4851SOL    HW116450  11.594   0.991   3.622
 4851SOL    HW216451  11.625   0.953   3.479
 4852SOL     OW16452   5.090   9.193   2.883
 4852SOL    HW116453   5.048   9.200   2.969
 4852SOL    HW216454   5.176   9.233   2.895
 4853SOL     OW16455  13.443  12.592   0.221
 4853SOL    HW116456  13.475  12.604   0.132
 4853SOL    HW216457  13.406  12.504   0.222
 4854SOL     OW16458   9.888  13.392  13.951
 4854SOL    HW116459   9.976  13.431  13.950
 4854SOL    HW216460   9.839  13.442  13.886
 4855SOL     OW16461   8.681  14.262   3.332
 4855SOL    HW116462   8.669  14.175   3.368
 4855SOL    HW216463   8.693  14.248   3.238
 4856SOL     OW16464  11.797   8.443   4.031
 4856SOL    HW116465  11.734   8.378   3.999
 4856SOL    HW216466  11.747   8.496   4.093
 4857SOL     OW16467   8.075  14.175   0.771
 4857SOL    HW116468   8.134  14.177   0.847
 4857SOL    HW216469   8.128  14.135   0.701
 4858SOL     OW16470  12.289   7.080   2.231
 4858SOL    HW116471  12.201   7.042   2.238
 4858SOL    HW216472  12.278   7.158   2.177
 4859SOL     OW16473   7.033   4.738  11.522
 4859SOL    HW116474   7.065   4.703  11.605
 4859SOL    HW216475   6.951   4.690  11.506
 4860SOL     OW16476   7.019   9.821   0.075
 4860SOL    HW116477   7.083   9.892   0.082
 4860SOL    HW216478   7.067   9.743   0.105
 4861SOL     OW16479   6.759   7.983   8.166
 4861SOL    HW116480   6.828   7.932   8.124
 4861SOL    HW216481   6.800   8.019   8.245
 4862SOL     OW16482   1.158   9.668   2.074
 4862SOL    HW116483   1.142   9.582   2.110
 4862SOL    HW216484   1.131   9.729   2.142
 4863SOL     OW16485   4.777   8.477   4.922
 4863SOL    HW116486   4.855   8.477   4.978
 4863SOL    HW216487   4.720   8.410   4.960
 4864SOL     OW16488  11.474  10.743  13.711
 4864SOL    HW116489  11.451  10.763  13.801
 4864SOL    HW216490  11.390  10.726  13.668
 4865SOL     OW16491  12.592  14.422   7.790
 4865SOL    HW116492  12.499  14.439   7.805
 4865SOL    HW216493  12.628  14.508   7.766
 4866SOL     OW16494   2.060   0.586   2.289
 4866SOL    HW116495   2.005   0.649   2.335
 4866SOL    HW216496   2.009   0.560   2.213
 4867SOL     OW16497  12.842   9.441  14.728
 4867SOL    HW116498  12.781   9.458  14.656
 4867SOL    HW216499  12.887   9.360  14.703
 4868SOL     OW16500   3.682   9.368   2.486
 4868SOL    HW116501   3.699   9.280   2.453
 4868SOL    HW216502   3.665   9.356   2.580
 4869SOL     OW16503  12.811  12.236   5.195
 4869SOL    HW116504  12.871  12.305   5.166
 4869SOL    HW216505  12.771  12.271   5.274
 4870SOL     OW16506   4.694   2.430   4.509
 4870SOL    HW116507   4.715   2.518   4.478
 4870SOL    HW216508   4.599   2.431   4.523
 4871SOL     OW16509  14.695  14.716   0.229
 4871SOL    HW116510  14.790  14.716   0.228
 4871SOL    HW216511  14.672  14.750   0.316
 4872SOL     OW16512   7.532  10.371  11.983
 4872SOL    HW116513   7.592  10.445  11.973
 4872SOL    HW216514   7.588  10.299  12.011
 4873SOL     OW16515   3.723   4.221   8.806
 4873SOL    HW116516   3.688   4.132   8.808
 4873SOL    HW216517   3.812   4.212   8.773
 4874SOL     OW16518   8.923  11.530   4.955
 4874SOL    HW116519   8.934  11.597   5.023
 4874SOL    HW216520   8.938  11.577   4.873
 4875SOL     OW16521  10.567   7.549   9.663
 4875SOL    HW116522  10.645   7.541   9.608
 4875SOL    HW216523  10.593   7.607   9.734
 4876SOL     OW16524   7.130   5.803   5.906
 4876SOL    HW116525   7.059   5.767   5.958
 4876SOL    HW216526   7.183   5.853   5.968
 4877SOL     OW16527  10.272  12.275   1.977
 4877SOL    HW116528  10.195  12.243   1.930
 4877SOL    HW216529  10.275  12.224   2.058
 4878SOL     OW16530   3.745   1.627   2.636
 4878SOL    HW116531   3.733   1.599   2.727
 4878SOL    HW216532   3.815   1.691   2.640
 4879SOL     OW16533   7.153  11.437   6.689
 4879SOL    HW116534   7.208  11.486   6.628
 4879SOL    HW216535   7.136  11.498   6.761
 4880SOL     OW16536   6.799   9.658  13.876
 4880SOL    HW116537   6.794   9.598  13.950
 4880SOL    HW216538   6.717   9.707  13.880
 4881SOL     OW16539  10.413  10.681   9.606
 4881SOL    HW116540  10.427  10.762   9.556
 4881SOL    HW216541  10.480  10.621   9.573
 4882SOL     OW16542   6.899  13.690   0.557
 4882SOL    HW116543   6.950  13.702   0.637
 4882SOL    HW216544   6.965  13.674   0.489
 4883SOL     OW16545  10.203  13.126  11.096
 4883SOL    HW116546  10.183  13.177  11.175
 4883SOL    HW216547  10.298  13.135  11.085
 4884SOL     OW16548   1.956  10.238   3.758
 4884SOL    HW116549   1.952  10.224   3.663
 4884SOL    HW216550   2.006  10.320   3.768
 4885SOL     OW16551  14.370  11.409  11.515
 4885SOL    HW116552  14.290  11.448  11.551
 4885SOL    HW216553  14.425  11.393  11.592
 4886SOL     OW16554   7.858   7.772  10.409
 4886SOL    HW116555   7.796   7.710  10.446
 4886SOL    HW216556   7.804   7.837  10.364
 4887SOL     OW16557   0.685  12.353   1.910
 4887SOL    HW116558   0.695  12.271   1.861
 4887SOL    HW216559   0.599  12.347   1.950
 4888SOL     OW16560  12.448  14.233   2.850
 4888SOL    HW116561  12.513  14.196   2.910
 4888SOL    HW216562  12.443  14.170   2.778
 4889SOL     OW16563   7.948  12.597  12.622
 4889SOL    HW116564   7.897  12.556  12.691
 4889SOL    HW216565   7.918  12.555  12.541
 4890SOL     OW16566  12.150  13.151   9.820
 4890SOL    HW116567  12.063  13.141   9.858
 4890SOL    HW216568  12.134  13.190   9.734
 4891SOL     OW16569  14.223  12.650  13.396
 4891SOL    HW116570  14.224  12.671  13.302
 4891SOL    HW216571  14.238  12.556  13.400
 4892SOL     OW16572   1.605   7.250  10.773
 4892SOL    HW116573   1.670   7.193  10.815
 4892SOL    HW216574   1.543   7.271  10.842
 4893SOL     OW16575   8.277   6.576   3.901
 4893SOL    HW116576   8.361   6.538   3.925
 4893SOL    HW216577   8.296   6.668   3.885
 4894SOL     OW16578  10.997  12.185   2.439
 4894SOL    HW116579  10.904  12.193   2.460
 4894SOL    HW216580  11.019  12.268   2.396
 4895SOL     OW16581   9.127   2.969  11.943
 4895SOL    HW116582   9.144   2.924  11.860
 4895SOL    HW216583   9.053   3.027  11.924
 4896SOL     OW16584  12.954   2.294   5.219
 4896SOL    HW116585  12.987   2.323   5.135
 4896SOL    HW216586  13.003   2.214   5.239
 4897SOL     OW16587   2.922   4.411  12.838
 4897SOL    HW116588   2.931   4.499  12.800
 4897SOL    HW216589   2.848   4.418  12.898
 4898SOL     OW16590   0.621   2.064   2.809
 4898SOL    HW116591   0.712   2.063   2.839
 4898SOL    HW216592   0.577   2.000   2.865
 4899SOL     OW16593   0.967   7.316   8.526
 4899SOL    HW116594   0.986   7.239   8.471
 4899SOL    HW216595   0.957   7.280   8.614
 4900SOL     OW16596   4.023   5.052   0.695
 4900SOL    HW116597   4.110   5.082   0.669
 4900SOL    HW216598   4.026   5.048   0.790
 4901SOL     OW16599   0.553  10.535  11.638
 4901SOL    HW116600   0.619  10.546  11.705
 4901SOL    HW216601   0.496  10.611  11.648
 4902SOL     OW16602   3.945  10.045  14.853
 4902SOL    HW116603   4.033  10.010  14.846
 4902SOL    HW216604   3.957  10.139  14.868
 4903SOL     OW16605   4.510   6.296   0.483
 4903SOL    HW116606   4.570   6.221   0.484
 4903SOL    HW216607   4.462   6.289   0.566
 4904SOL     OW16608   2.515   4.013  11.579
 4904SOL    HW116609   2.471   4.036  11.661
 4904SOL    HW216610   2.511   3.917  11.576
 4905SOL     OW16611   1.219   5.257   4.969
 4905SOL    HW116612   1.188   5.174   4.932
 4905SOL    HW216613   1.146   5.317   4.956
 4906SOL     OW16614  13.534   4.509   2.969
 4906SOL    HW116615  13.531   4.605   2.970
 4906SOL    HW216616  13.444   4.483   2.947
 4907SOL     OW16617  11.429  14.144   7.464
 4907SOL    HW116618  11.509  14.098   7.492
 4907SOL    HW216619  11.454  14.190   7.384
 4908SOL     OW16620   7.676  12.198  13.669
 4908SOL    HW116621   7.723  12.116  13.653
 4908SOL    HW216622   7.612  12.204  13.599
 4909SOL     OW16623   3.657   2.554   1.545
 4909SOL    HW116624   3.612   2.479   1.584
 4909SOL    HW216625   3.597   2.627   1.557
 4910SOL     OW16626   2.111   5.678   1.661
 4910SOL    HW116627   2.173   5.624   1.709
 4910SOL    HW216628   2.055   5.615   1.615
 4911SOL     OW16629  10.786   8.779  13.104
 4911SOL    HW116630  10.866   8.728  13.089
 4911SOL    HW216631  10.720   8.737  13.048
 4912SOL     OW16632   6.002   1.924   7.637
 4912SOL    HW116633   6.021   1.857   7.572
 4912SOL    HW216634   6.026   2.007   7.595
 4913SOL     OW16635  12.949   2.651   6.871
 4913SOL    HW116636  12.901   2.686   6.796
 4913SOL    HW216637  13.041   2.672   6.852
 4914SOL     OW16638  12.276  14.229  12.283
 4914SOL    HW116639  12.280  14.314  12.328
 4914SOL    HW216640  12.362  14.190  12.297
 4915SOL     OW16641   7.256   3.291   0.430
 4915SOL    HW116642   7.349   3.295   0.409
 4915SOL    HW216643   7.213   3.331   0.354
 4916SOL     OW16644  12.280   5.174   2.388
 4916SOL    HW116645  12.247   5.225   2.314
 4916SOL    HW216646  12.237   5.089   2.380
 4917SOL     OW16647   3.505  14.144  13.709
 4917SOL    HW116648   3.510  14.161  13.803
 4917SOL    HW216649   3.538  14.224  13.669
 4918SOL     OW16650   2.258   2.791  13.876
 4918SOL    HW116651   2.300   2.713  13.839
 4918SOL    HW216652   2.313   2.864  13.847
 4919SOL     OW16653   1.904  10.672   4.583
 4919SOL    HW116654   1.831  10.617   4.611
 4919SOL    HW216655   1.924  10.727   4.659
 4920SOL     OW16656   5.258  11.278   0.302
 4920SOL    HW116657   5.197  11.237   0.364
 4920SOL    HW216658   5.325  11.212   0.287
 4921SOL     OW16659   3.586  10.779   9.233
 4921SOL    HW116660   3.495  10.752   9.251
 4921SOL    HW216661   3.585  10.805   9.141
 4922SOL     OW16662   7.438   3.511  11.013
 4922SOL    HW116663   7.530   3.500  10.988
 4922SOL    HW216664   7.394   3.434  10.977
 4923SOL     OW16665   0.796   3.759   1.386
 4923SOL    HW116666   0.775   3.799   1.470
 4923SOL    HW216667   0.711   3.737   1.348
 4924SOL     OW16668   8.243   6.327   6.085
 4924SOL    HW116669   8.336   6.305   6.081
 4924SOL    HW216670   8.241   6.416   6.121
 4925SOL     OW16671   7.349  14.333   7.580
 4925SOL    HW116672   7.440  14.335   7.610
 4925SOL    HW216673   7.299  14.359   7.657
 4926SOL     OW16674   7.789  10.490   2.237
 4926SOL    HW116675   7.857  10.556   2.236
 4926SOL    HW216676   7.708  10.539   2.249
 4927SOL     OW16677  13.608  11.211  12.177
 4927SOL    HW116678  13.681  11.236  12.233
 4927SOL    HW216679  13.561  11.144  12.226
 4928SOL     OW16680   3.729  14.087  11.598
 4928SOL    HW116681   3.703  14.178  11.586
 4928SOL    HW216682   3.823  14.090  11.613
 4929SOL     OW16683   1.417   7.378  11.251
 4929SOL    HW116684   1.347   7.441  11.270
 4929SOL    HW216685   1.493   7.432  11.229
 4930SOL     OW16686   3.906  13.716  11.622
 4930SOL    HW116687   3.998  13.738  11.606
 4930SOL    HW216688   3.857  13.779  11.569
 4931SOL     OW16689   0.911   2.137   9.783
 4931SOL    HW116690   0.828   2.125   9.829
 4931SOL    HW216691   0.888   2.186   9.704
 4932SOL     OW16692  11.870   9.567  14.808
 4932SOL    HW116693  11.817   9.619  14.748
 4932SOL    HW216694  11.920   9.508  14.751
 4933SOL     OW16695   3.050  11.052   9.168
 4933SOL    HW116696   2.982  11.045   9.235
 4933SOL    HW216697   3.130  11.023   9.212
 4934SOL     OW16698  12.856   6.135  11.924
 4934SOL    HW116699  12.829   6.225  11.940
 4934SOL    HW216700  12.785   6.082  11.962
 4935SOL     OW16701   9.913  13.380  11.388
 4935SOL    HW116702   9.924  13.423  11.473
 4935SOL    HW216703   9.819  13.363  11.381
 4936SOL     OW16704   8.485  10.838   6.064
 4936SOL    HW116705   8.485  10.918   6.013
 4936SOL    HW216706   8.578  10.821   6.083
 4937SOL     OW16707   4.078   6.255   1.418
 4937SOL    HW116708   4.151   6.231   1.361
 4937SOL    HW216709   4.106   6.337   1.460
 4938SOL     OW16710   7.249  10.126  14.173
 4938SOL    HW116711   7.173  10.149  14.120
 4938SOL    HW216712   7.312  10.197  14.158
 4939SOL     OW16713   0.727   4.520   2.927
 4939SOL    HW116714   0.817   4.505   2.897
 4939SOL    HW216715   0.733   4.525   3.022
 4940SOL     OW16716  10.685   7.760   4.958
 4940SOL    HW116717  10.658   7.762   4.866
 4940SOL    HW216718  10.780   7.748   4.955
 4941SOL     OW16719   0.054  14.527   4.619
 4941SOL    HW116720   0.067  14.548   4.711
 4941SOL    HW216721   0.108  14.590   4.572
 4942SOL     OW16722   4.033   3.431   4.258
 4942SOL    HW116723   4.066   3.502   4.314
 4942SOL    HW216724   4.078   3.444   4.175
 4943SOL     OW16725   5.402   4.062   5.093
 4943SOL    HW116726   5.327   4.004   5.077
 4943SOL    HW216727   5.478   4.004   5.092
 4944SOL     OW16728   1.633   7.256   5.266
 4944SOL    HW116729   1.687   7.335   5.268
 4944SOL    HW216730   1.694   7.185   5.284
 4945SOL     OW16731   1.566  13.346   9.059
 4945SOL    HW116732   1.611  13.274   9.102
 4945SOL    HW216733   1.597  13.424   9.104
 4946SOL     OW16734  12.842   2.360  11.355
 4946SOL    HW116735  12.882   2.370  11.269
 4946SOL    HW216736  12.798   2.444  11.370
 4947SOL     OW16737   3.204   8.936   7.637
 4947SOL    HW116738   3.282   8.935   7.691
 4947SOL    HW216739   3.133   8.916   7.698
 4948SOL     OW16740   1.674  14.000  10.058
 4948SOL    HW116741   1.631  14.084  10.041
 4948SOL    HW216742   1.706  13.971   9.973
 4949SOL     OW16743   4.070   4.500   6.487
 4949SOL    HW116744   4.014   4.565   6.530
 4949SOL    HW216745   4.147   4.549   6.458
 4950SOL     OW16746   0.189   2.944   8.876
 4950SOL    HW116747   0.213   2.872   8.934
 4950SOL    HW216748   0.270   2.966   8.830
 4951SOL     OW16749   0.377  10.597  14.685
 4951SOL    HW116750   0.298  10.544  14.697
 4951SOL    HW216751   0.348  10.687  14.696
 4952SOL     OW16752  12.617   3.547  10.845
 4952SOL    HW116753  12.610   3.601  10.767
 4952SOL    HW216754  12.680   3.593  10.900
 4953SOL     OW16755   8.286  10.193   8.356
 4953SOL    HW116756   8.247  10.255   8.295
 4953SOL    HW216757   8.361  10.156   8.309
 4954SOL     OW16758   9.960  12.383  13.707
 4954SOL    HW116759   9.879  12.374  13.757
 4954SOL    HW216760   9.964  12.303  13.653
 4955SOL     OW16761   2.454   2.411   3.019
 4955SOL    HW116762   2.470   2.317   3.025
 4955SOL    HW216763   2.491   2.436   2.934
 4956SOL     OW16764   4.411   0.457   0.251
 4956SOL    HW116765   4.384   0.549   0.261
 4956SOL    HW216766   4.393   0.418   0.336
 4957SOL     OW16767   1.130   6.195   7.079
 4957SOL    HW116768   1.145   6.137   7.153
 4957SOL    HW216769   1.117   6.135   7.005
 4958SOL     OW16770   9.841  12.683   1.428
 4958SOL    HW116771   9.827  12.712   1.337
 4958SOL    HW216772   9.897  12.606   1.420
 4959SOL     OW16773   2.224   8.341  12.759
 4959SOL    HW116774   2.279   8.388  12.696
 4959SOL    HW216775   2.286   8.310  12.826
 4960SOL     OW16776  12.454   3.106   6.518
 4960SOL    HW116777  12.391   3.173   6.541
 4960SOL    HW216778  12.424   3.073   6.433
 4961SOL     OW16779  12.827   2.484   4.177
 4961SOL    HW116780  12.822   2.498   4.082
 4961SOL    HW216781  12.782   2.560   4.214
 4962SOL     OW16782   2.483   3.376   3.247
 4962SOL    HW116783   2.429   3.298   3.260
 4962SOL    HW216784   2.446   3.418   3.170
 4963SOL     OW16785   6.881   0.591   0.036
 4963SOL    HW116786   6.946   0.644   0.083
 4963SOL    HW216787   6.813   0.574   0.101
 4964SOL     OW16788  11.604   6.374   1.615
 4964SOL    HW116789  11.616   6.370   1.710
 4964SOL    HW216790  11.525   6.322   1.599
 4965SOL     OW16791   8.802   7.651  14.308
 4965SOL    HW116792   8.753   7.640  14.226
 4965SOL    HW216793   8.890   7.619  14.288
 4966SOL     OW16794  14.739   2.988   6.741
 4966SOL    HW116795  14.825   3.021   6.717
 4966SOL    HW216796  14.749   2.963   6.833
 4967SOL     OW16797  12.090  12.788   3.886
 4967SOL    HW116798  12.106  12.799   3.980
 4967SOL    HW216799  11.998  12.764   3.879
 4968SOL     OW16800  13.290   8.358   4.899
 4968SOL    HW116801  13.355   8.428   4.904
 4968SOL    HW216802  13.342   8.277   4.901
 4969SOL     OW16803  10.908   6.021   7.642
 4969SOL    HW116804  10.841   5.982   7.586
 4969SOL    HW216805  10.984   5.963   7.633
 4970SOL     OW16806   9.345   6.132   6.790
 4970SOL    HW116807   9.435   6.111   6.765
 4970SOL    HW216808   9.353   6.172   6.877
 4971SOL     OW16809   4.545   6.850   3.269
 4971SOL    HW116810   4.493   6.822   3.194
 4971SOL    HW216811   4.595   6.925   3.236
 4972SOL     OW16812   8.091   1.203   3.291
 4972SOL    HW116813   8.077   1.216   3.198
 4972SOL    HW216814   8.185   1.217   3.304
 4973SOL     OW16815  11.742   2.780  10.736
 4973SOL    HW116816  11.661   2.737  10.765
 4973SOL    HW216817  11.736   2.868  10.774
 4974SOL     OW16818  11.926   7.095  12.665
 4974SOL    HW116819  11.983   7.068  12.594
 4974SOL    HW216820  11.928   7.022  12.727
 4975SOL     OW16821   2.478   3.975  12.502
 4975SOL    HW116822   2.571   3.966  12.482
 4975SOL    HW216823   2.474   4.048  12.564
 4976SOL     OW16824   4.408   0.478   1.787
 4976SOL    HW116825   4.485   0.535   1.788
 4976SOL    HW216826   4.382   0.475   1.695
 4977SOL     OW16827  12.589  11.484  14.701
 4977SOL    HW116828  12.655  11.423  14.735
 4977SOL    HW216829  12.640  11.561  14.676
 4978SOL     OW16830  11.534   5.141  10.990
 4978SOL    HW116831  11.504   5.216  11.043
 4978SOL    HW216832  11.514   5.167  10.900
 4979SOL     OW16833   7.600  13.361   6.522
 4979SOL    HW116834   7.512  13.337   6.492
 4979SOL    HW216835   7.607  13.454   6.502
 4980SOL     OW16836   2.644  10.030  11.240
 4980SOL    HW116837   2.555  10.063  11.255
 4980SOL    HW216838   2.668  10.065  11.153
 4981SOL     OW16839   1.731   9.091   4.176
 4981SOL    HW116840   1.661   9.144   4.136
 4981SOL    HW216841   1.702   9.077   4.266
 4982SOL     OW16842   7.718   2.865   6.143
 4982SOL    HW116843   7.793   2.835   6.092
 4982SOL    HW216844   7.753   2.879   6.231
 4983SOL     OW16845   5.622   7.486   3.037
 4983SOL    HW116846   5.718   7.488   3.043
 4983SOL    HW216847   5.605   7.462   2.946
 4984SOL     OW16848   1.303   8.356  11.597
 4984SOL    HW116849   1.241   8.317  11.659
 4984SOL    HW216850   1.343   8.428  11.645
 4985SOL     OW16851  13.029   7.264   0.351
 4985SOL    HW116852  13.034   7.206   0.427
 4985SOL    HW216853  13.119   7.289   0.334
 4986SOL     OW16854   0.566  13.613  14.855
 4986SOL    HW116855   0.475  13.630  14.830
 4986SOL    HW216856   0.595  13.545  14.795
 4987SOL     OW16857  14.286   2.389   3.547
 4987SOL    HW116858  14.332   2.470   3.573
 4987SOL    HW216859  14.237   2.414   3.469
 4988SOL     OW16860  10.542   7.787   7.836
 4988SOL    HW116861  10.627   7.769   7.876
 4988SOL    HW216862  10.527   7.880   7.851
 4989SOL     OW16863   0.007   5.855   2.761
 4989SOL    HW116864   0.040   5.917   2.826
 4989SOL    HW216865  14.788   5.870   2.759
 4990SOL     OW16866   9.106  11.993   1.124
 4990SOL    HW116867   9.060  11.977   1.042
 4990SOL    HW216868   9.184  11.938   1.119
 4991SOL     OW16869   4.118  10.875   3.615
 4991SOL    HW116870   4.102  10.951   3.671
 4991SOL    HW216871   4.031  10.841   3.595
 4992SOL     OW16872   0.270   4.797   3.460
 4992SOL    HW116873   0.193   4.786   3.405
 4992SOL    HW216874   0.282   4.892   3.466
 4993SOL     OW16875   9.229   6.685   9.026
 4993SOL    HW116876   9.224   6.594   8.996
 4993SOL    HW216877   9.274   6.731   8.955
 4994SOL     OW16878   0.166  14.055   4.119
 4994SOL    HW116879   0.078  14.089   4.103
 4994SOL    HW216880   0.223  14.132   4.108
 4995SOL     OW16881   7.384  14.508  13.033
 4995SOL    HW116882   7.371  14.565  13.108
 4995SOL    HW216883   7.384  14.567  12.957
 4996SOL     OW16884   2.696   3.698   2.260
 4996SOL    HW116885   2.698   3.643   2.182
 4996SOL    HW216886   2.732   3.642   2.329
 4997SOL     OW16887   3.310   0.841  14.610
 4997SOL    HW116888   3.242   0.819  14.674
 4997SOL    HW216889   3.306   0.771  14.546
 4998SOL     OW16890   4.314   4.573   9.292
 4998SOL    HW116891   4.338   4.632   9.221
 4998SOL    HW216892   4.219   4.564   9.285
 4999SOL     OW16893  13.609  11.849  11.893
 4999SOL    HW116894  13.593  11.865  11.986
 4999SOL    HW216895  13.648  11.931  11.861
 5000SOL     OW16896  14.713  14.514   4.442
 5000SOL    HW116897  14.755  14.522   4.357
 5000SOL    HW216898  14.785  14.503   4.504
 5001SOL     OW16899   7.032  13.339  13.521
 5001SOL    HW116900   7.065  13.273  13.581
 5001SOL    HW216901   7.108  13.397  13.506
 5002SOL     OW16902   2.444   8.994   6.451
 5002SOL    HW116903   2.456   9.013   6.358
 5002SOL    HW216904   2.407   8.906   6.453
 5003SOL     OW16905  12.098   7.399  11.244
 5003SOL    HW116906  12.192   7.413  11.232
 5003SOL    HW216907  12.067   7.479  11.285
 5004SOL     OW16908   6.561   1.395   7.654
 5004SOL    HW116909   6.490   1.347   7.696
 5004SOL    HW216910   6.531   1.409   7.564
 5005SOL     OW16911   6.079  12.412  10.747
 5005SOL    HW116912   5.986  12.393  10.732
 5005SOL    HW216913   6.084  12.436  10.840
 5006SOL     OW16914   6.860  10.644   6.105
 5006SOL    HW116915   6.831  10.729   6.072
 5006SOL    HW216916   6.922  10.613   6.039
 5007SOL     OW16917   5.995  13.523   5.526
 5007SOL    HW116918   6.050  13.582   5.473
 5007SOL    HW216919   5.973  13.574   5.604
 5008SOL     OW16920   7.384   9.170   8.862
 5008SOL    HW116921   7.363   9.086   8.902
 5008SOL    HW216922   7.440   9.214   8.926
 5009SOL     OW16923   4.910   8.238   1.258
 5009SOL    HW116924   4.986   8.290   1.282
 5009SOL    HW216925   4.939   8.185   1.184
 5010SOL     OW16926   8.902   4.091  13.734
 5010SOL    HW116927   8.911   4.037  13.812
 5010SOL    HW216928   8.812   4.078  13.706
 5011SOL     OW16929   7.049   3.297  14.119
 5011SOL    HW116930   7.018   3.364  14.059
 5011SOL    HW216931   7.138   3.324  14.142
 5012SOL     OW16932   8.305   0.325   4.890
 5012SOL    HW116933   8.334   0.339   4.799
 5012SOL    HW216934   8.226   0.272   4.882
 5013SOL     OW16935   1.560   3.273   3.816
 5013SOL    HW116936   1.602   3.357   3.834
 5013SOL    HW216937   1.601   3.242   3.736
 5014SOL     OW16938  12.166   2.008   9.158
 5014SOL    HW116939  12.179   2.001   9.252
 5014SOL    HW216940  12.247   2.045   9.124
 5015SOL     OW16941  14.141   0.892   5.617
 5015SOL    HW116942  14.047   0.883   5.601
 5015SOL    HW216943  14.170   0.954   5.551
 5016SOL     OW16944   9.140   7.225  12.112
 5016SOL    HW116945   9.211   7.188  12.060
 5016SOL    HW216946   9.162   7.318  12.120
 5017SOL     OW16947  13.153  10.945   1.820
 5017SOL    HW116948  13.147  11.028   1.773
 5017SOL    HW216949  13.237  10.949   1.866
 5018SOL     OW16950   9.788   4.258   6.919
 5018SOL    HW116951   9.714   4.313   6.894
 5018SOL    HW216952   9.750   4.190   6.975
 5019SOL     OW16953   4.944  10.312   9.198
 5019SOL    HW116954   4.935  10.235   9.255
 5019SOL    HW216955   4.953  10.276   9.110
 5020SOL     OW16956  12.847   9.247   3.190
 5020SOL    HW116957  12.792   9.315   3.151
 5020SOL    HW216958  12.936   9.270   3.161
 5021SOL     OW16959  13.947   3.663   3.853
 5021SOL    HW116960  13.874   3.717   3.824
 5021SOL    HW216961  14.010   3.666   3.781
 5022SOL     OW16962  13.519   4.912  14.756
 5022SOL    HW116963  13.486   4.945  14.673
 5022SOL    HW216964  13.559   4.828  14.735
 5023SOL     OW16965   1.693   1.625  14.842
 5023SOL    HW116966   1.663   1.663  14.760
 5023SOL    HW216967   1.737   1.697   0.012
 5024SOL     OW16968   1.192   4.703   0.791
 5024SOL    HW116969   1.164   4.625   0.838
 5024SOL    HW216970   1.237   4.756   0.857
 5025SOL     OW16971   2.324   4.355  13.733
 5025SOL    HW116972   2.263   4.284  13.711
 5025SOL    HW216973   2.299   4.427  13.675
 5026SOL     OW16974  13.427   3.093  13.763
 5026SOL    HW116975  13.398   3.152  13.693
 5026SOL    HW216976  13.464   3.151  13.830
 5027SOL     OW16977   0.228   5.943   4.928
 5027SOL    HW116978   0.265   5.855   4.921
 5027SOL    HW216979   0.304   6.001   4.919
 5028SOL     OW16980   7.247   6.903   0.698
 5028SOL    HW116981   7.342   6.909   0.692
 5028SOL    HW216982   7.222   6.837   0.633
 5029SOL     OW16983  11.027   6.650   0.724
 5029SOL    HW116984  11.105   6.602   0.695
 5029SOL    HW216985  10.960   6.627   0.660
 5030SOL     OW16986  12.750  11.519   6.287
 5030SOL    HW116987  12.811  11.526   6.360
 5030SOL    HW216988  12.664  11.504   6.327
 5031SOL     OW16989  14.114   1.553   7.242
 5031SOL    HW116990  14.189   1.496   7.259
 5031SOL    HW216991  14.068   1.557   7.326
 5032SOL     OW16992   4.005   9.780   1.761
 5032SOL    HW116993   3.981   9.720   1.691
 5032SOL    HW216994   3.952   9.753   1.836
 5033SOL     OW16995   2.755   8.063  13.364
 5033SOL    HW116996   2.751   8.147  13.318
 5033SOL    HW216997   2.832   8.070  13.420
 5034SOL     OW16998   4.872   0.722   1.219
 5034SOL    HW116999   4.855   0.630   1.202
 5034SOL    HW217000   4.786   0.764   1.207
 5035SOL     OW17001   0.412  13.825  12.072
 5035SOL    HW117002   0.351  13.857  12.139
 5035SOL    HW217003   0.359  13.814  11.993
 5036SOL     OW17004   1.221   3.134   3.017
 5036SOL    HW117005   1.174   3.198   3.071
 5036SOL    HW217006   1.265   3.077   3.081
 5037SOL     OW17007  11.835   5.747   8.458
 5037SOL    HW117008  11.809   5.694   8.382
 5037SOL    HW217009  11.754   5.760   8.507
 5038SOL     OW17010  11.099  14.193  12.731
 5038SOL    HW117011  11.102  14.191  12.827
 5038SOL    HW217012  11.185  14.228  12.706
 5039SOL     OW17013  14.600   9.065  14.589
 5039SOL    HW117014  14.693   9.062  14.613
 5039SOL    HW217015  14.584   9.156  14.566
 5040SOL     OW17016  11.640   1.200   2.775
 5040SOL    HW117017  11.655   1.247   2.693
 5040SOL    HW217018  11.549   1.173   2.770
 5041SOL     OW17019  11.846   9.496   7.785
 5041SOL    HW117020  11.772   9.458   7.833
 5041SOL    HW217021  11.913   9.510   7.852
 5042SOL     OW17022  11.342   7.609   0.961
 5042SOL    HW117023  11.279   7.549   1.001
 5042SOL    HW217024  11.356   7.677   1.027
 5043SOL     OW17025  10.818   2.941  12.995
 5043SOL    HW117026  10.886   3.009  12.997
 5043SOL    HW217027  10.735   2.989  12.994
 5044SOL     OW17028  14.398   3.484   7.235
 5044SOL    HW117029  14.466   3.534   7.189
 5044SOL    HW217030  14.388   3.529   7.319
 5045SOL     OW17031   1.496   1.461  11.953
 5045SOL    HW117032   1.536   1.434  11.871
 5045SOL    HW217033   1.408   1.422  11.951
 5046SOL     OW17034  11.700   3.105  13.994
 5046SOL    HW117035  11.786   3.125  13.959
 5046SOL    HW217036  11.655   3.059  13.923
 5047SOL     OW17037  13.443   7.156   3.947
 5047SOL    HW117038  13.443   7.240   3.993
 5047SOL    HW217039  13.352   7.128   3.947
 5048SOL     OW17040   5.106  12.369  13.645
 5048SOL    HW117041   5.172  12.332  13.586
 5048SOL    HW217042   5.047  12.295  13.663
 5049SOL     OW17043   9.975  10.613   3.960
 5049SOL    HW117044   9.948  10.617   3.868
 5049SOL    HW217045   9.979  10.520   3.980
 5050SOL     OW17046   2.476  12.802   9.414
 5050SOL    HW117047   2.451  12.881   9.461
 5050SOL    HW217048   2.542  12.761   9.469
 5051SOL     OW17049   3.342  13.911   2.843
 5051SOL    HW117050   3.368  13.893   2.753
 5051SOL    HW217051   3.413  13.966   2.878
 5052SOL     OW17052  14.008  12.686   7.286
 5052SOL    HW117053  13.926  12.700   7.238
 5052SOL    HW217054  14.059  12.766   7.271
 5053SOL     OW17055   3.013   8.319  11.692
 5053SOL    HW117056   3.017   8.224  11.688
 5053SOL    HW217057   3.045   8.349  11.607
 5054SOL     OW17058   5.829  12.651   1.193
 5054SOL    HW117059   5.746  12.620   1.158
 5054SOL    HW217060   5.863  12.710   1.126
 5055SOL     OW17061   8.223  14.478   1.113
 5055SOL    HW117062   8.179  14.477   1.028
 5055SOL    HW217063   8.162  14.523   1.172
 5056SOL     OW17064   7.521   1.122   2.810
 5056SOL    HW117065   7.461   1.049   2.823
 5056SOL    HW217066   7.489   1.168   2.733
 5057SOL     OW17067   3.507   1.057  10.884
 5057SOL    HW117068   3.467   1.100  10.808
 5057SOL    HW217069   3.503   1.123  10.953
 5058SOL     OW17070   3.787  12.966  14.043
 5058SOL    HW117071   3.800  12.954  14.137
 5058SOL    HW217072   3.702  12.927  14.025
 5059SOL     OW17073   9.830  13.420   7.823
 5059SOL    HW117074   9.820  13.390   7.913
 5059SOL    HW217075   9.755  13.382   7.777
 5060SOL     OW17076   5.830  10.705  14.392
 5060SOL    HW117077   5.882  10.731  14.468
 5060SOL    HW217078   5.895  10.669  14.331
 5061SOL     OW17079  11.018  11.522  11.268
 5061SOL    HW117080  11.039  11.508  11.360
 5061SOL    HW217081  10.924  11.538  11.267
 5062SOL     OW17082  12.197   5.160  13.931
 5062SOL    HW117083  12.264   5.147  13.864
 5062SOL    HW217084  12.190   5.075  13.974
 5063SOL     OW17085   0.856  12.643   7.670
 5063SOL    HW117086   0.939  12.630   7.624
 5063SOL    HW217087   0.842  12.738   7.669
 5064SOL     OW17088   9.349  13.222   1.294
 5064SOL    HW117089   9.348  13.179   1.379
 5064SOL    HW217090   9.284  13.175   1.242
 5065SOL     OW17091   4.478   2.358   8.358
 5065SOL    HW117092   4.564   2.398   8.351
 5065SOL    HW217093   4.417   2.428   8.334
 5066SOL     OW17094  13.993   0.099   9.983
 5066SOL    HW117095  14.039   0.182   9.972
 5066SOL    HW217096  14.016   0.069  10.071
 5067SOL     OW17097   1.165   2.732   9.523
 5067SOL    HW117098   1.241   2.717   9.580
 5067SOL    HW217099   1.194   2.705   9.436
 5068SOL     OW17100   6.947   1.857   9.359
 5068SOL    HW117101   6.884   1.891   9.423
 5068SOL    HW217102   6.914   1.770   9.338
 5069SOL     OW17103   1.198   9.434   8.242
 5069SOL    HW117104   1.244   9.431   8.158
 5069SOL    HW217105   1.257   9.481   8.301
 5070SOL     OW17106   3.360   5.201   7.454
 5070SOL    HW117107   3.345   5.203   7.359
 5070SOL    HW217108   3.421   5.273   7.470
 5071SOL     OW17109  11.851   6.843   7.944
 5071SOL    HW117110  11.761   6.870   7.929
 5071SOL    HW217111  11.902   6.924   7.940
 5072SOL     OW17112  14.391  11.719  11.084
 5072SOL    HW117113  14.479  11.715  11.122
 5072SOL    HW217114  14.370  11.628  11.061
 5073SOL     OW17115  13.818   1.488   1.960
 5073SOL    HW117116  13.828   1.420   2.027
 5073SOL    HW217117  13.812   1.439   1.877
 5074SOL     OW17118  11.259   1.664   8.639
 5074SOL    HW117119  11.208   1.725   8.586
 5074SOL    HW217120  11.206   1.650   8.717
 5075SOL     OW17121   6.418   1.462   5.087
 5075SOL    HW117122   6.458   1.425   5.008
 5075SOL    HW217123   6.436   1.399   5.156
 5076SOL     OW17124   5.846   2.476   1.271
 5076SOL    HW117125   5.916   2.482   1.336
 5076SOL    HW217126   5.820   2.384   1.272
 5077SOL     OW17127  14.475   9.242   9.841
 5077SOL    HW117128  14.474   9.161   9.892
 5077SOL    HW217129  14.453   9.311   9.903
 5078SOL     OW17130   8.846  10.379   3.086
 5078SOL    HW117131   8.863  10.371   3.180
 5078SOL    HW217132   8.921  10.428   3.052
 5079SOL     OW17133   1.931   6.565  11.873
 5079SOL    HW117134   1.962   6.612  11.951
 5079SOL    HW217135   1.990   6.593  11.803
 5080SOL     OW17136   6.647   3.791   0.049
 5080SOL    HW117137   6.728   3.758   0.088
 5080SOL    HW217138   6.584   3.792   0.120
 5081SOL     OW17139  12.404   3.520   7.099
 5081SOL    HW117140  12.442   3.570   7.026
 5081SOL    HW217141  12.440   3.561   7.177
 5082SOL     OW17142   7.062  13.448  10.593
 5082SOL    HW117143   7.042  13.357  10.574
 5082SOL    HW217144   7.156  13.456  10.578
 5083SOL     OW17145   9.083   0.442  14.587
 5083SOL    HW117146   8.988   0.457  14.592
 5083SOL    HW217147   9.092   0.358  14.543
 5084SOL     OW17148   1.888  13.373   1.114
 5084SOL    HW117149   1.860  13.447   1.060
 5084SOL    HW217150   1.889  13.298   1.055
 5085SOL     OW17151   3.052   6.646  11.555
 5085SOL    HW117152   3.104   6.574  11.519
 5085SOL    HW217153   3.100   6.672  11.634
 5086SOL     OW17154   8.177  11.316  13.145
 5086SOL    HW117155   8.142  11.297  13.058
 5086SOL    HW217156   8.187  11.411  13.146
 5087SOL     OW17157   4.557   3.220   5.845
 5087SOL    HW117158   4.582   3.128   5.843
 5087SOL    HW217159   4.528   3.236   5.935
 5088SOL     OW17160   2.991   7.378   6.290
 5088SOL    HW117161   3.034   7.396   6.373
 5088SOL    HW217162   3.026   7.293   6.263
 5089SOL     OW17163  11.307   5.037   2.700
 5089SOL    HW117164  11.322   5.119   2.747
 5089SOL    HW217165  11.388   4.987   2.713
 5090SOL     OW17166   9.316  10.527   4.207
 5090SOL    HW117167   9.240  10.580   4.184
 5090SOL    HW217168   9.279  10.443   4.234
 5091SOL     OW17169  14.669   3.008   9.833
 5091SOL    HW117170  14.696   3.036   9.920
 5091SOL    HW217171  14.593   2.952   9.848
 5092SOL     OW17172   0.819   3.864   2.362
 5092SOL    HW117173   0.905   3.907   2.355
 5092SOL    HW217174   0.820   3.798   2.293
 5093SOL     OW17175   7.944   4.109   8.771
 5093SOL    HW117176   7.893   4.151   8.840
 5093SOL    HW217177   7.878   4.073   8.711
 5094SOL     OW17178   1.344  12.733  11.398
 5094SOL    HW117179   1.341  12.706  11.490
 5094SOL    HW217180   1.310  12.822  11.398
 5095SOL     OW17181   2.141  11.058   2.296
 5095SOL    HW117182   2.066  11.052   2.237
 5095SOL    HW217183   2.192  10.979   2.277
 5096SOL     OW17184   2.984   9.111   2.759
 5096SOL    HW117185   3.047   9.118   2.687
 5096SOL    HW217186   2.899   9.131   2.719
 5097SOL     OW17187  10.733   6.048  10.130
 5097SOL    HW117188  10.760   5.995  10.205
 5097SOL    HW217189  10.755   5.994  10.054
 5098SOL     OW17190   9.996  10.514   8.802
 5098SOL    HW117191   9.955  10.559   8.876
 5098SOL    HW217192  10.050  10.446   8.841
 5099SOL     OW17193   0.748   0.072   8.203
 5099SOL    HW117194   0.691   0.009   8.160
 5099SOL    HW217195   0.752   0.146   8.142
 5100SOL     OW17196   7.742   9.302   6.054
 5100SOL    HW117197   7.812   9.335   6.110
 5100SOL    HW217198   7.739   9.208   6.071
 5101SOL     OW17199   8.349   7.898   6.386
 5101SOL    HW117200   8.397   7.840   6.327
 5101SOL    HW217201   8.329   7.845   6.463
 5102SOL     OW17202  14.685  12.233  11.057
 5102SOL    HW117203  14.765  12.225  11.004
 5102SOL    HW217204  14.642  12.148  11.048
 5103SOL     OW17205  12.558   7.538   7.639
 5103SOL    HW117206  12.470   7.539   7.601
 5103SOL    HW217207  12.607   7.602   7.587
 5104SOL     OW17208  12.188   4.770   1.583
 5104SOL    HW117209  12.127   4.737   1.649
 5104SOL    HW217210  12.204   4.695   1.525
 5105SOL     OW17211   2.797   5.141   0.228
 5105SOL    HW117212   2.836   5.196   0.160
 5105SOL    HW217213   2.867   5.130   0.293
 5106SOL     OW17214   7.385   7.115   7.825
 5106SOL    HW117215   7.347   7.150   7.906
 5106SOL    HW217216   7.476   7.095   7.847
 5107SOL     OW17217   8.543   9.276   5.535
 5107SOL    HW117218   8.487   9.353   5.530
 5107SOL    HW217219   8.610   9.290   5.468
 5108SOL     OW17220  13.307  12.007   4.611
 5108SOL    HW117221  13.278  12.025   4.701
 5108SOL    HW217222  13.376  12.071   4.595
 5109SOL     OW17223  14.803   2.294  10.973
 5109SOL    HW117224  14.868   2.317  11.039
 5109SOL    HW217225  14.853   2.250  10.905
 5110SOL     OW17226  14.466  13.704   7.576
 5110SOL    HW117227  14.537  13.683   7.515
 5110SOL    HW217228  14.394  13.733   7.520
 5111SOL     OW17229  10.485   3.993   1.097
 5111SOL    HW117230  10.511   3.903   1.080
 5111SOL    HW217231  10.521   4.043   1.023
 5112SOL     OW17232   6.123   6.344  13.579
 5112SOL    HW117233   6.117   6.266  13.524
 5112SOL    HW217234   6.127   6.417  13.517
 5113SOL     OW17235  12.815  10.795   9.184
 5113SOL    HW117236  12.757  10.786   9.109
 5113SOL    HW217237  12.757  10.817   9.257
 5114SOL     OW17238   3.302  14.780  12.647
 5114SOL    HW117239   3.273  14.744  12.731
 5114SOL    HW217240   3.266  14.719  12.582
 5115SOL     OW17241   7.727   9.190   4.054
 5115SOL    HW117242   7.776   9.114   4.024
 5115SOL    HW217243   7.647   9.190   4.002
 5116SOL     OW17244  10.340  14.059   2.014
 5116SOL    HW117245  10.280  14.081   2.086
 5116SOL    HW217246  10.415  14.019   2.057
 5117SOL     OW17247   9.727   3.195  12.971
 5117SOL    HW117248   9.759   3.268  12.919
 5117SOL    HW217249   9.665   3.150  12.914
 5118SOL     OW17250   2.784  13.935   5.469
 5118SOL    HW117251   2.797  13.855   5.418
 5118SOL    HW217252   2.822  14.005   5.417
 5119SOL     OW17253  14.515   2.617   0.010
 5119SOL    HW117254  14.442   2.556   0.001
 5119SOL    HW217255  14.512   2.645   0.102
 5120SOL     OW17256   7.727   7.012   7.572
 5120SOL    HW117257   7.675   6.933   7.585
 5120SOL    HW217258   7.665   7.076   7.535
 5121SOL     OW17259   2.072   8.703   9.994
 5121SOL    HW117260   2.153   8.691  10.044
 5121SOL    HW217261   2.055   8.616   9.956
 5122SOL     OW17262   0.450   4.167  11.148
 5122SOL    HW117263   0.524   4.216  11.112
 5122SOL    HW217264   0.482   4.077  11.156
 5123SOL     OW17265  12.699   1.189   7.070
 5123SOL    HW117266  12.654   1.108   7.095
 5123SOL    HW217267  12.632   1.241   7.025
 5124SOL     OW17268  13.024   8.913   2.963
 5124SOL    HW117269  13.007   9.002   2.994
 5124SOL    HW217270  12.985   8.910   2.876
 5125SOL     OW17271   9.434   2.581   2.426
 5125SOL    HW117272   9.343   2.591   2.396
 5125SOL    HW217273   9.427   2.581   2.522
 5126SOL     OW17274   1.148   9.042  10.100
 5126SOL    HW117275   1.187   9.030  10.013
 5126SOL    HW217276   1.147   9.137  10.112
 5127SOL     OW17277  14.439   3.937   5.324
 5127SOL    HW117278  14.408   3.899   5.407
 5127SOL    HW217279  14.534   3.932   5.330
 5128SOL     OW17280   6.439   8.157  11.898
 5128SOL    HW117281   6.454   8.153  11.992
 5128SOL    HW217282   6.351   8.121  11.887
 5129SOL     OW17283   2.918  10.421   1.348
 5129SOL    HW117284   2.950  10.477   1.277
 5129SOL    HW217285   2.983  10.429   1.417
 5130SOL     OW17286  12.565  13.831   6.714
 5130SOL    HW117287  12.647  13.814   6.759
 5130SOL    HW217288  12.522  13.745   6.710
 5131SOL     OW17289   5.553   5.804   8.429
 5131SOL    HW117290   5.491   5.860   8.383
 5131SOL    HW217291   5.632   5.857   8.438
 5132SOL     OW17292   1.606  10.891  12.386
 5132SOL    HW117293   1.616  10.933  12.300
 5132SOL    HW217294   1.687  10.841  12.397
 5133SOL     OW17295   1.703   5.340   9.196
 5133SOL    HW117296   1.762   5.274   9.232
 5133SOL    HW217297   1.759   5.396   9.142
 5134SOL     OW17298  14.556  13.737   2.032
 5134SOL    HW117299  14.564  13.683   1.954
 5134SOL    HW217300  14.467  13.773   2.027
 5135SOL     OW17301   6.812   2.269   0.667
 5135SOL    HW117302   6.726   2.271   0.709
 5135SOL    HW217303   6.868   2.320   0.725
 5136SOL     OW17304  13.656   3.100  13.997
 5136SOL    HW117305  13.710   3.058  13.930
 5136SOL    HW217306  13.596   3.031  14.026
 5137SOL     OW17307   5.100   3.121   1.970
 5137SOL    HW117308   5.084   3.088   2.058
 5137SOL    HW217309   5.045   3.067   1.913
 5138SOL     OW17310   8.003   5.135  13.825
 5138SOL    HW117311   8.094   5.109  13.842
 5138SOL    HW217312   7.963   5.057  13.785
 5139SOL     OW17313   4.001   5.629   8.851
 5139SOL    HW117314   3.953   5.591   8.777
 5139SOL    HW217315   4.038   5.553   8.896
 5140SOL     OW17316  12.975  10.280  13.342
 5140SOL    HW117317  12.957  10.191  13.310
 5140SOL    HW217318  12.925  10.337  13.283
 5141SOL     OW17319   9.920   6.239   5.226
 5141SOL    HW117320   9.825   6.226   5.223
 5141SOL    HW217321   9.932   6.313   5.286
 5142SOL     OW17322   3.313   9.902   4.867
 5142SOL    HW117323   3.271   9.981   4.900
 5142SOL    HW217324   3.259   9.831   4.899
 5143SOL     OW17325  13.745   8.797   7.794
 5143SOL    HW117326  13.672   8.823   7.739
 5143SOL    HW217327  13.711   8.724   7.846
 5144SOL     OW17328  12.079   5.923   9.446
 5144SOL    HW117329  12.012   5.987   9.468
 5144SOL    HW217330  12.102   5.942   9.355
 5145SOL     OW17331   4.075   6.671  13.338
 5145SOL    HW117332   4.022   6.738  13.295
 5145SOL    HW217333   4.092   6.707  13.426
 5146SOL     OW17334   3.586  11.476  14.243
 5146SOL    HW117335   3.592  11.384  14.269
 5146SOL    HW217336   3.495  11.500  14.259
 5147SOL     OW17337  12.694  11.960  13.774
 5147SOL    HW117338  12.627  12.012  13.817
 5147SOL    HW217339  12.754  11.935  13.844
 5148SOL     OW17340   5.184   0.146   0.731
 5148SOL    HW117341   5.273   0.177   0.711
 5148SOL    HW217342   5.151   0.210   0.794
 5149SOL     OW17343  10.441   8.293   8.412
 5149SOL    HW117344  10.497   8.353   8.462
 5149SOL    HW217345  10.409   8.345   8.339
 5150SOL     OW17346   0.907  11.391   3.879
 5150SOL    HW117347   0.960  11.395   3.799
 5150SOL    HW217348   0.844  11.462   3.869
 5151SOL     OW17349   1.668  13.245   4.970
 5151SOL    HW117350   1.760  13.228   4.989
 5151SOL    HW217351   1.638  13.168   4.922
 5152SOL     OW17352   3.773   1.610   2.357
 5152SOL    HW117353   3.762   1.519   2.329
 5152SOL    HW217354   3.760   1.608   2.451
 5153SOL     OW17355   0.609  10.010  12.666
 5153SOL    HW117356   0.566   9.924  12.660
 5153SOL    HW217357   0.538  10.070  12.689
 5154SOL     OW17358   7.001   2.245   7.839
 5154SOL    HW117359   7.091   2.275   7.828
 5154SOL    HW217360   6.987   2.184   7.766
 5155SOL     OW17361   6.256  10.468  13.116
 5155SOL    HW117362   6.345  10.473  13.150
 5155SOL    HW217363   6.234  10.559  13.095
 5156SOL     OW17364  10.643   8.331   5.999
 5156SOL    HW117365  10.582   8.270   5.957
 5156SOL    HW217366  10.644   8.407   5.942
 5157SOL     OW17367   0.073   8.181   1.954
 5157SOL    HW117368   0.007   8.234   1.998
 5157SOL    HW217369   0.023   8.108   1.916
 5158SOL     OW17370   4.124   1.862  11.355
 5158SOL    HW117371   4.185   1.911  11.299
 5158SOL    HW217372   4.125   1.773  11.320
 5159SOL     OW17373   4.877  11.965   5.440
 5159SOL    HW117374   4.890  11.871   5.453
 5159SOL    HW217375   4.868  12.000   5.528
 5160SOL     OW17376  14.638  11.357   2.242
 5160SOL    HW117377  14.630  11.262   2.251
 5160SOL    HW217378  14.701  11.383   2.309
 5161SOL     OW17379   9.095   5.554   6.637
 5161SOL    HW117380   9.023   5.520   6.583
 5161SOL    HW217381   9.055   5.623   6.690
 5162SOL     OW17382   9.095   2.724   3.185
 5162SOL    HW117383   9.154   2.757   3.117
 5162SOL    HW217384   9.151   2.715   3.262
 5163SOL     OW17385   2.238   5.040   5.063
 5163SOL    HW117386   2.288   5.036   5.145
 5163SOL    HW217387   2.286   4.983   5.003
 5164SOL     OW17388   5.787   3.875   4.112
 5164SOL    HW117389   5.848   3.929   4.062
 5164SOL    HW217390   5.815   3.785   4.095
 5165SOL     OW17391   5.950  12.831   9.543
 5165SOL    HW117392   5.876  12.791   9.499
 5165SOL    HW217393   5.911  12.883   9.613
 5166SOL     OW17394   1.956   9.171   4.279
 5166SOL    HW117395   1.992   9.083   4.272
 5166SOL    HW217396   1.862   9.161   4.260
 5167SOL     OW17397   4.722   3.552  12.372
 5167SOL    HW117398   4.638   3.528  12.412
 5167SOL    HW217399   4.750   3.472  12.325
 5168SOL     OW17400   9.283   5.245   6.064
 5168SOL    HW117401   9.361   5.295   6.042
 5168SOL    HW217402   9.307   5.195   6.142
 5169SOL     OW17403  13.410   8.471  11.166
 5169SOL    HW117404  13.438   8.380  11.152
 5169SOL    HW217405  13.389   8.475  11.259
 5170SOL     OW17406  12.499  13.236   4.370
 5170SOL    HW117407  12.540  13.290   4.302
 5170SOL    HW217408  12.419  13.283   4.393
 5171SOL     OW17409  10.305   9.983   1.100
 5171SOL    HW117410  10.344   9.919   1.159
 5171SOL    HW217411  10.310  10.066   1.146
 5172SOL     OW17412  12.635  12.293   4.942
 5172SOL    HW117413  12.664  12.266   5.029
 5172SOL    HW217414  12.710  12.338   4.904
 5173SOL     OW17415   2.955   9.382   6.700
 5173SOL    HW117416   2.867   9.370   6.735
 5173SOL    HW217417   2.974   9.475   6.713
 5174SOL     OW17418   7.409   9.930   8.122
 5174SOL    HW117419   7.442   9.945   8.033
 5174SOL    HW217420   7.485   9.938   8.178
 5175SOL     OW17421  14.789   3.524  14.009
 5175SOL    HW117422  14.710   3.480  13.980
 5175SOL    HW217423  14.758   3.591  14.070
 5176SOL     OW17424  13.225   4.193   6.390
 5176SOL    HW117425  13.193   4.105   6.408
 5176SOL    HW217426  13.167   4.226   6.321
 5177SOL     OW17427  10.442   5.990   8.540
 5177SOL    HW117428  10.412   6.028   8.457
 5177SOL    HW217429  10.362   5.985   8.594
 5178SOL     OW17430   3.795  10.112   6.265
 5178SOL    HW117431   3.854  10.160   6.322
 5178SOL    HW217432   3.850  10.085   6.191
 5179SOL     OW17433   5.017  11.729   5.251
 5179SOL    HW117434   4.929  11.706   5.282
 5179SOL    HW217435   5.007  11.816   5.213
 5180SOL     OW17436   9.490  12.478   2.650
 5180SOL    HW117437   9.566  12.428   2.681
 5180SOL    HW217438   9.528  12.556   2.609
 5181SOL     OW17439  13.818   3.409   5.766
 5181SOL    HW117440  13.885   3.365   5.715
 5181SOL    HW217441  13.750   3.430   5.702
 5182SOL     OW17442   6.783   9.126   6.345
 5182SOL    HW117443   6.801   9.183   6.421
 5182SOL    HW217444   6.703   9.079   6.369
 5183SOL     OW17445   7.585   4.053   8.728
 5183SOL    HW117446   7.525   3.980   8.746
 5183SOL    HW217447   7.645   4.018   8.662
 5184SOL     OW17448   8.883  14.830  11.482
 5184SOL    HW117449   8.873  14.850  11.575
 5184SOL    HW217450   8.847  14.742  11.472
 5185SOL     OW17451  10.105  13.768   4.768
 5185SOL    HW117452  10.155  13.705   4.717
 5185SOL    HW217453  10.168  13.837   4.788
 5186SOL     OW17454   6.244   2.102   1.617
 5186SOL    HW117455   6.317   2.042   1.599
 5186SOL    HW217456   6.166   2.053   1.589
 5187SOL     OW17457  10.286  13.038  12.943
 5187SOL    HW117458  10.323  13.101  13.004
 5187SOL    HW217459  10.262  13.090  12.866
 5188SOL     OW17460  12.229  11.822   9.483
 5188SOL    HW117461  12.214  11.829   9.577
 5188SOL    HW217462  12.185  11.741   9.457
 5189SOL     OW17463   0.754  13.363   4.585
 5189SOL    HW117464   0.710  13.375   4.670
 5189SOL    HW217465   0.842  13.399   4.599
 5190SOL     OW17466  10.316   2.416   6.410
 5190SOL    HW117467  10.260   2.345   6.378
 5190SOL    HW217468  10.387   2.372   6.455
 5191SOL     OW17469   7.350   7.827   0.511
 5191SOL    HW117470   7.371   7.818   0.604
 5191SOL    HW217471   7.408   7.897   0.480
 5192SOL     OW17472  13.630   3.487   8.720
 5192SOL    HW117473  13.646   3.399   8.685
 5192SOL    HW217474  13.622   3.474   8.815
 5193SOL     OW17475   4.239   5.105   1.250
 5193SOL    HW117476   4.246   5.191   1.292
 5193SOL    HW217477   4.226   5.044   1.322
 5194SOL     OW17478  14.277   2.901   4.031
 5194SOL    HW117479  14.209   2.853   3.983
 5194SOL    HW217480  14.254   2.890   4.123
 5195SOL     OW17481   1.119   7.928   9.799
 5195SOL    HW117482   1.070   7.987   9.742
 5195SOL    HW217483   1.147   7.856   9.741
 5196SOL     OW17484   7.029   6.519   4.716
 5196SOL    HW117485   6.983   6.589   4.670
 5196SOL    HW217486   7.121   6.531   4.693
 5197SOL     OW17487   3.404   3.762   5.583
 5197SOL    HW117488   3.347   3.792   5.512
 5197SOL    HW217489   3.377   3.672   5.599
 5198SOL     OW17490   0.861   2.293   6.086
 5198SOL    HW117491   0.912   2.243   6.151
 5198SOL    HW217492   0.780   2.316   6.132
 5199SOL     OW17493   0.125   2.766  11.280
 5199SOL    HW117494   0.214   2.746  11.251
 5199SOL    HW217495   0.069   2.720  11.218
 5200SOL     OW17496   0.331   5.862  10.410
 5200SOL    HW117497   0.305   5.928  10.346
 5200SOL    HW217498   0.384   5.909  10.473
 5201SOL     OW17499   7.367   9.414   3.894
 5201SOL    HW117500   7.292   9.417   3.835
 5201SOL    HW217501   7.387   9.506   3.912
 5202SOL     OW17502   7.581   3.641   1.187
 5202SOL    HW117503   7.560   3.673   1.099
 5202SOL    HW217504   7.503   3.591   1.213
 5203SOL     OW17505   6.665   6.401   3.865
 5203SOL    HW117506   6.737   6.397   3.802
 5203SOL    HW217507   6.586   6.404   3.811
 5204SOL     OW17508   4.870   4.577  12.087
 5204SOL    HW117509   4.836   4.549  12.002
 5204SOL    HW217510   4.799   4.630  12.124
 5205SOL     OW17511   9.059   7.106   6.313
 5205SOL    HW117512   9.023   7.065   6.235
 5205SOL    HW217513   8.984   7.125   6.369
 5206SOL     OW17514   1.616   2.329  12.200
 5206SOL    HW117515   1.703   2.367  12.207
 5206SOL    HW217516   1.560   2.401  12.171
 5207SOL     OW17517   8.815   6.728  11.049
 5207SOL    HW117518   8.861   6.672  11.112
 5207SOL    HW217519   8.728   6.688  11.040
 5208SOL     OW17520   1.467   7.240   0.310
 5208SOL    HW117521   1.521   7.176   0.264
 5208SOL    HW217522   1.522   7.270   0.382
 5209SOL     OW17523   4.378   4.534   4.619
 5209SOL    HW117524   4.327   4.461   4.584
 5209SOL    HW217525   4.394   4.511   4.711
 5210SOL     OW17526   0.312  13.346   2.659
 5210SOL    HW117527   0.366  13.358   2.737
 5210SOL    HW217528   0.295  13.435   2.627
 5211SOL     OW17529  11.330   1.254  10.673
 5211SOL    HW117530  11.321   1.235  10.766
 5211SOL    HW217531  11.359   1.345  10.669
 5212SOL     OW17532   5.212   8.901   5.826
 5212SOL    HW117533   5.128   8.944   5.846
 5212SOL    HW217534   5.238   8.937   5.741
 5213SOL     OW17535   8.946   4.385   5.685
 5213SOL    HW117536   8.881   4.327   5.645
 5213SOL    HW217537   8.894   4.443   5.741
 5214SOL     OW17538  11.902  13.514  13.974
 5214SOL    HW117539  11.938  13.520  14.062
 5214SOL    HW217540  11.895  13.421  13.956
 5215SOL     OW17541   6.572  10.598   7.765
 5215SOL    HW117542   6.594  10.613   7.673
 5215SOL    HW217543   6.651  10.620   7.813
 5216SOL     OW17544   7.852  11.498   8.794
 5216SOL    HW117545   7.816  11.417   8.758
 5216SOL    HW217546   7.797  11.567   8.757
 5217SOL     OW17547   7.011   8.898   3.449
 5217SOL    HW117548   6.977   8.821   3.403
 5217SOL    HW217549   6.978   8.888   3.538
 5218SOL     OW17550  14.556   0.458   3.739
 5218SOL    HW117551  14.620   0.511   3.691
 5218SOL    HW217552  14.471   0.493   3.711
 5219SOL     OW17553   3.135   0.821  13.311
 5219SOL    HW117554   3.076   0.748  13.290
 5219SOL    HW217555   3.082   0.879  13.365
 5220SOL     OW17556  11.409   9.619   9.474
 5220SOL    HW117557  11.502   9.618   9.497
 5220SOL    HW217558  11.396   9.704   9.432
 5221SOL     OW17559  13.093   8.240  10.445
 5221SOL    HW117560  13.040   8.183  10.389
 5221SOL    HW217561  13.061   8.224  10.533
 5222SOL     OW17562  14.311   3.220   8.827
 5222SOL    HW117563  14.333   3.307   8.794
 5222SOL    HW217564  14.361   3.160   8.772
 5223SOL     OW17565   5.812   2.132   6.849
 5223SOL    HW117566   5.864   2.111   6.772
 5223SOL    HW217567   5.770   2.215   6.828
 5224SOL     OW17568   0.654  10.127   8.017
 5224SOL    HW117569   0.592  10.174   7.962
 5224SOL    HW217570   0.627  10.035   8.009
 5225SOL     OW17571  12.594   0.443   2.070
 5225SOL    HW117572  12.509   0.438   2.026
 5225SOL    HW217573  12.642   0.366   2.038
 5226SOL     OW17574  13.448   6.542   3.391
 5226SOL    HW117575  13.360   6.558   3.426
 5226SOL    HW217576  13.435   6.480   3.319
 5227SOL     OW17577  14.629  10.567  11.413
 5227SOL    HW117578  14.698  10.606  11.360
 5227SOL    HW217579  14.666  10.559  11.500
 5228SOL     OW17580   2.062  13.547  14.207
 5228SOL    HW117581   2.089  13.635  14.181
 5228SOL    HW217582   2.069  13.495  14.127
 5229SOL     OW17583  10.345   3.530  12.745
 5229SOL    HW117584  10.283   3.519  12.816
 5229SOL    HW217585  10.377   3.620  12.754
 5230SOL     OW17586   2.735  13.167   9.774
 5230SOL    HW117587   2.739  13.181   9.868
 5230SOL    HW217588   2.803  13.101   9.756
 5231SOL     OW17589   3.392   8.666   8.628
 5231SOL    HW117590   3.472   8.640   8.672
 5231SOL    HW217591   3.325   8.664   8.696
 5232SOL     OW17592   6.821   8.424   1.987
 5232SOL    HW117593   6.824   8.519   1.974
 5232SOL    HW217594   6.728   8.406   2.005
 5233SOL     OW17595   7.807   7.615  10.808
 5233SOL    HW117596   7.714   7.593  10.804
 5233SOL    HW217597   7.814   7.700  10.765
 5234SOL     OW17598   9.728  11.940   2.740
 5234SOL    HW117599   9.665  12.012   2.732
 5234SOL    HW217600   9.675  11.861   2.728
 5235SOL     OW17601   1.642   5.572   5.291
 5235SOL    HW117602   1.677   5.529   5.213
 5235SOL    HW217603   1.624   5.500   5.352
 5236SOL     OW17604   7.492   5.865   4.072
 5236SOL    HW117605   7.468   5.780   4.109
 5236SOL    HW217606   7.585   5.875   4.093
 5237SOL     OW17607  13.134  10.046   1.152
 5237SOL    HW117608  13.142   9.958   1.116
 5237SOL    HW217609  13.073  10.090   1.094
 5238SOL     OW17610  12.584   1.697   0.620
 5238SOL    HW117611  12.537   1.684   0.703
 5238SOL    HW217612  12.525   1.750   0.567
 5239SOL     OW17613   1.019   7.804  11.209
 5239SOL    HW117614   0.937   7.785  11.256
 5239SOL    HW217615   1.051   7.885  11.249
 5240SOL     OW17616   0.007  10.737   7.071
 5240SOL    HW117617   0.064  10.812   7.057
 5240SOL    HW217618   0.006  10.724   7.166
 5241SOL     OW17619   6.278   2.215  13.495
 5241SOL    HW117620   6.254   2.303  13.523
 5241SOL    HW217621   6.374   2.215  13.493
 5242SOL     OW17622   4.826   6.686   9.029
 5242SOL    HW117623   4.888   6.749   9.065
 5242SOL    HW217624   4.741   6.713   9.064
 5243SOL     OW17625   0.430   9.650   1.236
 5243SOL    HW117626   0.417   9.642   1.142
 5243SOL    HW217627   0.412   9.563   1.271
 5244SOL     OW17628   3.628   7.065   4.351
 5244SOL    HW117629   3.577   7.138   4.388
 5244SOL    HW217630   3.569   7.024   4.288
 5245SOL     OW17631   0.639  13.170  13.354
 5245SOL    HW117632   0.585  13.204  13.426
 5245SOL    HW217633   0.724  13.212  13.366
 5246SOL     OW17634   2.975   8.751   4.837
 5246SOL    HW117635   3.064   8.759   4.870
 5246SOL    HW217636   2.940   8.671   4.878
 5247SOL     OW17637   2.626   1.990  11.837
 5247SOL    HW117638   2.607   2.058  11.772
 5247SOL    HW217639   2.548   1.935  11.836
 5248SOL     OW17640   6.903   1.120   2.635
 5248SOL    HW117641   6.854   1.054   2.685
 5248SOL    HW217642   6.843   1.146   2.564
 5249SOL     OW17643   2.607   8.036   9.135
 5249SOL    HW117644   2.689   8.067   9.172
 5249SOL    HW217645   2.579   8.105   9.075
 5250SOL     OW17646   1.444   5.623   6.309
 5250SOL    HW117647   1.496   5.608   6.387
 5250SOL    HW217648   1.460   5.547   6.254
 5251SOL     OW17649   9.116  13.522   3.766
 5251SOL    HW117650   9.090  13.491   3.852
 5251SOL    HW217651   9.085  13.454   3.705
 5252SOL     OW17652   9.538   5.222   1.781
 5252SOL    HW117653   9.616   5.215   1.726
 5252SOL    HW217654   9.560   5.290   1.845
 5253SOL     OW17655  13.610   0.672   5.085
 5253SOL    HW117656  13.586   0.685   4.993
 5253SOL    HW217657  13.695   0.627   5.081
 5254SOL     OW17658   3.995  10.832   6.261
 5254SOL    HW117659   3.959  10.921   6.258
 5254SOL    HW217660   3.945  10.783   6.197
 5255SOL     OW17661   5.303   0.090  13.476
 5255SOL    HW117662   5.368   0.148  13.517
 5255SOL    HW217663   5.262   0.045  13.549
 5256SOL     OW17664  14.309   2.296  14.580
 5256SOL    HW117665  14.233   2.247  14.611
 5256SOL    HW217666  14.368   2.228  14.545
 5257SOL     OW17667   3.468   3.480   8.406
 5257SOL    HW117668   3.470   3.397   8.358
 5257SOL    HW217669   3.391   3.472   8.463
 5258SOL     OW17670   0.400  12.107   6.744
 5258SOL    HW117671   0.395  12.067   6.831
 5258SOL    HW217672   0.460  12.051   6.695
 5259SOL     OW17673   2.011   9.812   6.966
 5259SOL    HW117674   1.947   9.762   7.017
 5259SOL    HW217675   1.982   9.902   6.973
 5260SOL     OW17676   2.681  13.396  12.394
 5260SOL    HW117677   2.640  13.436  12.470
 5260SOL    HW217678   2.610  13.353  12.347
 5261SOL     OW17679  10.461  13.675   6.086
 5261SOL    HW117680  10.478  13.726   6.165
 5261SOL    HW217681  10.485  13.733   6.014
 5262SOL     OW17682   6.115   6.922   5.495
 5262SOL    HW117683   6.080   6.907   5.408
 5262SOL    HW217684   6.206   6.893   5.490
 5263SOL     OW17685   6.309   7.510   3.519
 5263SOL    HW117686   6.401   7.520   3.497
 5263SOL    HW217687   6.291   7.582   3.580
 5264SOL     OW17688   7.637   1.918   6.146
 5264SOL    HW117689   7.678   1.860   6.081
 5264SOL    HW217690   7.692   1.996   6.146
 5265SOL     OW17691  14.585   0.129   9.358
 5265SOL    HW117692  14.569   0.166   9.444
 5265SOL    HW217693  14.581   0.203   9.298
 5266SOL     OW17694   6.400   9.504  13.976
 5266SOL    HW117695   6.486   9.464  13.960
 5266SOL    HW217696   6.356   9.499  13.892
 5267SOL     OW17697  13.852  12.500  14.264
 5267SOL    HW117698  13.849  12.430  14.329
 5267SOL    HW217699  13.760  12.521  14.248
 5268SOL     OW17700   1.177   8.785  10.597
 5268SOL    HW117701   1.085   8.777  10.570
 5268SOL    HW217702   1.218   8.704  10.567
 5269SOL     OW17703   8.240   8.175   1.878
 5269SOL    HW117704   8.197   8.203   1.959
 5269SOL    HW217705   8.172   8.128   1.829
 5270SOL     OW17706  10.222   4.717  10.461
 5270SOL    HW117707  10.310   4.752  10.446
 5270SOL    HW217708  10.164   4.776  10.414
 5271SOL     OW17709  14.192  11.714   1.252
 5271SOL    HW117710  14.203  11.803   1.220
 5271SOL    HW217711  14.245  11.711   1.332
 5272SOL     OW17712   1.603   7.554   7.329
 5272SOL    HW117713   1.659   7.483   7.297
 5272SOL    HW217714   1.600   7.542   7.424
 5273SOL     OW17715  13.116   0.769   0.681
 5273SOL    HW117716  13.022   0.779   0.665
 5273SOL    HW217717  13.148   0.721   0.605
 5274SOL     OW17718  10.470   2.959  13.755
 5274SOL    HW117719  10.378   2.980  13.739
 5274SOL    HW217720  10.476   2.865  13.742
 5275SOL     OW17721   9.925  13.439  11.118
 5275SOL    HW117722   9.941  13.429  11.212
 5275SOL    HW217723   9.931  13.533  11.102
 5276SOL     OW17724  14.640   0.973   3.322
 5276SOL    HW117725  14.712   1.005   3.377
 5276SOL    HW217726  14.561   0.991   3.373
 5277SOL     OW17727   4.113   4.092   0.980
 5277SOL    HW117728   4.079   4.055   0.898
 5277SOL    HW217729   4.176   4.027   1.011
 5278SOL     OW17730   3.567  12.809   9.050
 5278SOL    HW117731   3.639  12.832   8.990
 5278SOL    HW217732   3.600  12.832   9.137
 5279SOL     OW17733   6.606   5.968   6.300
 5279SOL    HW117734   6.664   6.037   6.333
 5279SOL    HW217735   6.518   6.004   6.310
 5280SOL     OW17736  11.999   6.929   2.819
 5280SOL    HW117737  12.015   7.023   2.811
 5280SOL    HW217738  12.079   6.895   2.858
 5281SOL     OW17739  13.234   6.957   7.214
 5281SOL    HW117740  13.295   6.998   7.275
 5281SOL    HW217741  13.262   6.865   7.210
 5282SOL     OW17742   8.438   6.108  10.789
 5282SOL    HW117743   8.376   6.102  10.862
 5282SOL    HW217744   8.490   6.028  10.795
 5283SOL     OW17745   5.574   9.091   4.760
 5283SOL    HW117746   5.638   9.160   4.746
 5283SOL    HW217747   5.518   9.094   4.683
 5284SOL     OW17748   8.613  12.717   8.631
 5284SOL    HW117749   8.630  12.807   8.658
 5284SOL    HW217750   8.518  12.713   8.619
 5285SOL     OW17751  14.821   7.250   9.365
 5285SOL    HW117752  14.860   7.337   9.368
 5285SOL    HW217753  14.822   7.220   9.456
 5286SOL     OW17754   4.827   2.570   2.995
 5286SOL    HW117755   4.884   2.520   2.938
 5286SOL    HW217756   4.849   2.662   2.977
 5287SOL     OW17757  10.690   7.565  11.743
 5287SOL    HW117758  10.749   7.545  11.671
 5287SOL    HW217759  10.740   7.545  11.822
 5288SOL     OW17760   3.825   6.692  14.137
 5288SOL    HW117761   3.872   6.775  14.143
 5288SOL    HW217762   3.817   6.676  14.043
 5289SOL     OW17763  10.923  13.139   3.610
 5289SOL    HW117764  10.845  13.190   3.632
 5289SOL    HW217765  10.989  13.205   3.588
 5290SOL     OW17766  11.800  12.057  12.025
 5290SOL    HW117767  11.823  11.973  11.987
 5290SOL    HW217768  11.865  12.071  12.094
 5291SOL     OW17769   8.828   8.743   0.648
 5291SOL    HW117770   8.870   8.771   0.566
 5291SOL    HW217771   8.896   8.693   0.693
 5292SOL     OW17772   9.273  12.019   4.830
 5292SOL    HW117773   9.203  12.079   4.805
 5292SOL    HW217774   9.266  12.013   4.926
 5293SOL     OW17775   2.321   9.157   8.071
 5293SOL    HW117776   2.303   9.229   8.010
 5293SOL    HW217777   2.274   9.082   8.033
 5294SOL     OW17778   1.202  11.119   5.194
 5294SOL    HW117779   1.250  11.040   5.170
 5294SOL    HW217780   1.147  11.093   5.267
 5295SOL     OW17781   3.687  12.388  14.814
 5295SOL    HW117782   3.639  12.459  14.857
 5295SOL    HW217783   3.759  12.432  14.769
 5296SOL     OW17784   3.095   3.630  11.750
 5296SOL    HW117785   3.019   3.575  11.763
 5296SOL    HW217786   3.132   3.642  11.837
 5297SOL     OW17787  14.322  14.641  14.344
 5297SOL    HW117788  14.413  14.657  14.370
 5297SOL    HW217789  14.310  14.547  14.357
 5298SOL     OW17790  12.074   8.897   1.221
 5298SOL    HW117791  12.143   8.961   1.234
 5298SOL    HW217792  12.092   8.828   1.284
 5299SOL     OW17793   3.956  12.304   0.391
 5299SOL    HW117794   3.870  12.262   0.381
 5299SOL    HW217795   4.019  12.235   0.371
 5300SOL     OW17796   3.835   2.422   5.091
 5300SOL    HW117797   3.763   2.428   5.153
 5300SOL    HW217798   3.796   2.388   5.011
 5301SOL     OW17799   1.526   6.979   6.810
 5301SOL    HW117800   1.521   6.967   6.904
 5301SOL    HW217801   1.456   6.924   6.775
 5302SOL     OW17802   0.323  12.725   3.326
 5302SOL    HW117803   0.389  12.728   3.394
 5302SOL    HW217804   0.240  12.719   3.373
 5303SOL     OW17805  10.816   1.690  11.574
 5303SOL    HW117806  10.847   1.763  11.628
 5303SOL    HW217807  10.897   1.648  11.542
 5304SOL     OW17808   1.973  10.147   8.794
 5304SOL    HW117809   2.040  10.079   8.791
 5304SOL    HW217810   1.899  10.111   8.746
 5305SOL     OW17811   6.113  13.683   0.767
 5305SOL    HW117812   6.122  13.752   0.702
 5305SOL    HW217813   6.097  13.603   0.715
 5306SOL     OW17814   3.971   1.616   6.465
 5306SOL    HW117815   4.057   1.574   6.465
 5306SOL    HW217816   3.987   1.706   6.493
 5307SOL     OW17817  10.944  12.078   3.618
 5307SOL    HW117818  10.971  12.158   3.662
 5307SOL    HW217819  11.023  12.024   3.614
 5308SOL     OW17820  13.901  11.792   5.384
 5308SOL    HW117821  13.886  11.702   5.354
 5308SOL    HW217822  13.825  11.812   5.439
 5309SOL     OW17823   9.468  12.149   8.302
 5309SOL    HW117824   9.539  12.195   8.258
 5309SOL    HW217825   9.511  12.076   8.348
 5310SOL     OW17826   0.478   5.933   9.465
 5310SOL    HW117827   0.390   5.948   9.431
 5310SOL    HW217828   0.481   5.981   9.548
 5311SOL     OW17829  11.258   4.560   7.468
 5311SOL    HW117830  11.337   4.531   7.422
 5311SOL    HW217831  11.272   4.653   7.483
 5312SOL     OW17832   4.475   2.329   7.228
 5312SOL    HW117833   4.427   2.335   7.311
 5312SOL    HW217834   4.565   2.311   7.253
 5313SOL     OW17835   7.434   5.849   3.269
 5313SOL    HW117836   7.464   5.796   3.196
 5313SOL    HW217837   7.507   5.847   3.331
 5314SOL     OW17838   0.260   1.837  11.583
 5314SOL    HW117839   0.280   1.931  11.576
 5314SOL    HW217840   0.341   1.794  11.556
 5315SOL     OW17841   1.914   4.045  10.124
 5315SOL    HW117842   1.942   3.954  10.115
 5315SOL    HW217843   1.898   4.056  10.218
 5316SOL     OW17844   2.589   3.467   1.401
 5316SOL    HW117845   2.605   3.490   1.310
 5316SOL    HW217846   2.677   3.452   1.438
 5317SOL     OW17847  11.193  10.979  13.440
 5317SOL    HW117848  11.233  10.981  13.353
 5317SOL    HW217849  11.212  11.065  13.477
 5318SOL     OW17850   0.666  11.894   7.506
 5318SOL    HW117851   0.729  11.951   7.550
 5318SOL    HW217852   0.653  11.821   7.567
 5319SOL     OW17853   9.125   8.128   5.025
 5319SOL    HW117854   9.213   8.100   5.049
 5319SOL    HW217855   9.120   8.115   4.930
 5320SOL     OW17856   1.015   9.273   7.302
 5320SOL    HW117857   0.965   9.193   7.286
 5320SOL    HW217858   0.994   9.297   7.392
 5321SOL     OW17859   5.268   1.728   8.804
 5321SOL    HW117860   5.355   1.717   8.843
 5321SOL    HW217861   5.264   1.662   8.735
 5322SOL     OW17862   3.785  11.588   5.317
 5322SOL    HW117863   3.749  11.509   5.275
 5322SOL    HW217864   3.721  11.610   5.385
 5323SOL     OW17865   3.548  11.188   4.839
 5323SOL    HW117866   3.555  11.225   4.927
 5323SOL    HW217867   3.521  11.097   4.853
 5324SOL     OW17868   8.607  14.612  12.533
 5324SOL    HW117869   8.666  14.652  12.597
 5324SOL    HW217870   8.600  14.520  12.561
 5325SOL     OW17871   5.368  10.896  12.734
 5325SOL    HW117872   5.368  10.981  12.691
 5325SOL    HW217873   5.328  10.836  12.671
 5326SOL     OW17874   7.566  11.344  10.536
 5326SOL    HW117875   7.479  11.346  10.575
 5326SOL    HW217876   7.551  11.318  10.445
 5327SOL     OW17877  11.951   8.631  14.195
 5327SOL    HW117878  11.948   8.559  14.132
 5327SOL    HW217879  11.861   8.665  14.197
 5328SOL     OW17880   3.713   9.117   2.418
 5328SOL    HW117881   3.806   9.111   2.400
 5328SOL    HW217882   3.675   9.040   2.374
 5329SOL     OW17883   7.285  11.809   2.026
 5329SOL    HW117884   7.221  11.875   2.000
 5329SOL    HW217885   7.370  11.850   2.011
 5330SOL     OW17886  13.971   1.799  12.684
 5330SOL    HW117887  13.933   1.776  12.769
 5330SOL    HW217888  13.926   1.880  12.660
 5331SOL     OW17889   9.527   7.763   2.946
 5331SOL    HW117890   9.580   7.758   2.867
 5331SOL    HW217891   9.588   7.789   3.015
 5332SOL     OW17892   3.741  10.223   5.894
 5332SOL    HW117893   3.732  10.317   5.879
 5332SOL    HW217894   3.834  10.211   5.914
 5333SOL     OW17895   1.583   1.250   3.685
 5333SOL    HW117896   1.620   1.325   3.731
 5333SOL    HW217897   1.506   1.284   3.640
 5334SOL     OW17898  14.506  14.861  13.965
 5334SOL    HW117899  14.539  14.772  13.960
 5334SOL    HW217900  14.513   0.009  14.057
 5335SOL     OW17901   2.062   2.706   7.742
 5335SOL    HW117902   2.002   2.716   7.816
 5335SOL    HW217903   2.029   2.629   7.696
 5336SOL     OW17904   2.388  10.670  11.088
 5336SOL    HW117905   2.340  10.704  11.013
 5336SOL    HW217906   2.336  10.596  11.118
 5337SOL     OW17907   6.873   5.861   6.592
 5337SOL    HW117908   6.894   5.847   6.500
 5337SOL    HW217909   6.790   5.815   6.605
 5338SOL     OW17910   6.109   0.225   6.833
 5338SOL    HW117911   6.127   0.176   6.914
 5338SOL    HW217912   6.191   0.271   6.815
 5339SOL     OW17913  11.584   1.622   5.797
 5339SOL    HW117914  11.598   1.693   5.734
 5339SOL    HW217915  11.516   1.567   5.756
 5340SOL     OW17916   1.997  10.828   1.757
 5340SOL    HW117917   1.947  10.903   1.725
 5340SOL    HW217918   2.055  10.866   1.824
 5341SOL     OW17919  11.753   6.565  13.411
 5341SOL    HW117920  11.723   6.595  13.497
 5341SOL    HW217921  11.778   6.474  13.424
 5342SOL     OW17922   1.022  13.346   2.521
 5342SOL    HW117923   1.086  13.275   2.521
 5342SOL    HW217924   0.937  13.301   2.516
 5343SOL     OW17925   6.113   0.057   2.869
 5343SOL    HW117926   6.194   0.043   2.821
 5343SOL    HW217927   6.044   0.054   2.803
 5344SOL     OW17928  13.890   3.597   5.933
 5344SOL    HW117929  13.817   3.594   5.995
 5344SOL    HW217930  13.865   3.536   5.864
 5345SOL     OW17931   0.155   4.306   5.542
 5345SOL    HW117932   0.071   4.265   5.561
 5345SOL    HW217933   0.218   4.234   5.546
 5346SOL     OW17934   9.016  11.825   9.170
 5346SOL    HW117935   8.955  11.899   9.172
 5346SOL    HW217936   8.990  11.775   9.092
 5347SOL     OW17937  11.073   2.180   8.589
 5347SOL    HW117938  11.027   2.165   8.507
 5347SOL    HW217939  11.005   2.209   8.650
 5348SOL     OW17940   5.793   4.028   7.594
 5348SOL    HW117941   5.809   4.121   7.612
 5348SOL    HW217942   5.879   3.993   7.570
 5349SOL     OW17943   3.622   8.225   7.486
 5349SOL    HW117944   3.659   8.249   7.401
 5349SOL    HW217945   3.583   8.305   7.519
 5350SOL     OW17946   8.847   0.098  12.732
 5350SOL    HW117947   8.799   0.033  12.782
 5350SOL    HW217948   8.802   0.104  12.648
 5351SOL     OW17949   0.029  14.048   7.991
 5351SOL    HW117950   0.004  14.117   8.052
 5351SOL    HW217951  14.836  14.050   7.923
 5352SOL     OW17952   2.113   3.343   6.857
 5352SOL    HW117953   2.159   3.412   6.810
 5352SOL    HW217954   2.157   3.262   6.831
 5353SOL     OW17955   3.226   5.065   7.990
 5353SOL    HW117956   3.261   5.044   8.076
 5353SOL    HW217957   3.139   5.024   7.989
 5354SOL     OW17958   7.286  13.921   7.726
 5354SOL    HW117959   7.336  13.859   7.673
 5354SOL    HW217960   7.353  13.977   7.765
 5355SOL     OW17961   9.580  11.900  13.306
 5355SOL    HW117962   9.600  11.821  13.256
 5355SOL    HW217963   9.498  11.882  13.350
 5356SOL     OW17964   8.223  10.981  12.166
 5356SOL    HW117965   8.208  11.074  12.183
 5356SOL    HW217966   8.136  10.942  12.170
 5357SOL     OW17967   6.015   3.442   9.811
 5357SOL    HW117968   6.110   3.447   9.821
 5357SOL    HW217969   5.987   3.533   9.800
 5358SOL     OW17970   1.346   0.555   1.533
 5358SOL    HW117971   1.270   0.530   1.481
 5358SOL    HW217972   1.389   0.623   1.481
 5359SOL     OW17973  10.069   1.644   9.526
 5359SOL    HW117974  10.039   1.574   9.584
 5359SOL    HW217975  10.155   1.616   9.495
 5360SOL     OW17976  14.742  13.990   1.531
 5360SOL    HW117977  14.812  13.989   1.596
 5360SOL    HW217978  14.690  13.912   1.551
 5361SOL     OW17979   2.035   4.670   4.201
 5361SOL    HW117980   2.062   4.660   4.292
 5361SOL    HW217981   2.098   4.617   4.151
 5362SOL     OW17982   2.403   1.410   8.115
 5362SOL    HW117983   2.478   1.437   8.062
 5362SOL    HW217984   2.328   1.415   8.055
 5363SOL     OW17985  14.848  12.912   8.201
 5363SOL    HW117986  14.798  12.875   8.128
 5363SOL    HW217987   0.044  12.850   8.216
 5364SOL     OW17988  13.427  13.951   0.245
 5364SOL    HW117989  13.453  13.890   0.314
 5364SOL    HW217990  13.434  14.038   0.285
 5365SOL     OW17991   2.340  11.905  14.221
 5365SOL    HW117992   2.281  11.911  14.146
 5365SOL    HW217993   2.306  11.832  14.272
 5366SOL     OW17994  11.221   3.396   0.651
 5366SOL    HW117995  11.305   3.424   0.614
 5366SOL    HW217996  11.243   3.320   0.705
 5367SOL     OW17997   2.622   3.724   8.294
 5367SOL    HW117998   2.617   3.714   8.389
 5367SOL    HW217999   2.676   3.803   8.281
 5368SOL     OW18000   3.475   2.965   7.815
 5368SOL    HW118001   3.473   2.877   7.778
 5368SOL    HW218002   3.517   3.019   7.748
 5369SOL     OW18003  13.497  10.114  10.239
 5369SOL    HW118004  13.467  10.186  10.294
 5369SOL    HW218005  13.466  10.035  10.283
 5370SOL     OW18006  13.812   9.680   3.086
 5370SOL    HW118007  13.905   9.703   3.082
 5370SOL    HW218008  13.775   9.713   3.004
 5371SOL     OW18009  12.748  13.152   7.284
 5371SOL    HW118010  12.812  13.176   7.217
 5371SOL    HW218011  12.665  13.147   7.237
 5372SOL     OW18012  12.528   5.532  12.735
 5372SOL    HW118013  12.565   5.601  12.789
 5372SOL    HW218014  12.584   5.530  12.656
 5373SOL     OW18015   9.647   1.090   7.873
 5373SOL    HW118016   9.632   1.041   7.954
 5373SOL    HW218017   9.570   1.071   7.820
 5374SOL     OW18018   9.519   8.184   5.723
 5374SOL    HW118019   9.480   8.100   5.701
 5374SOL    HW218020   9.604   8.162   5.761
 5375SOL     OW18021  13.803   8.237  11.736
 5375SOL    HW118022  13.781   8.320  11.695
 5375SOL    HW218023  13.872   8.200  11.680
 5376SOL     OW18024  12.916  12.904  11.020
 5376SOL    HW118025  13.011  12.896  11.030
 5376SOL    HW218026  12.884  12.814  11.013
 5377SOL     OW18027   8.691   4.192   1.967
 5377SOL    HW118028   8.766   4.252   1.963
 5377SOL    HW218029   8.623   4.236   1.917
 5378SOL     OW18030   8.169  12.726  14.509
 5378SOL    HW118031   8.172  12.737  14.604
 5378SOL    HW218032   8.253  12.687  14.487
 5379SOL     OW18033  14.648  14.368   0.342
 5379SOL    HW118034  14.587  14.362   0.268
 5379SOL    HW218035  14.724  14.317   0.314
 5380SOL     OW18036   2.812   0.333   6.045
 5380SOL    HW118037   2.786   0.422   6.068
 5380SOL    HW218038   2.738   0.299   5.995
 5381SOL     OW18039   9.514   8.856   3.080
 5381SOL    HW118040   9.493   8.914   3.006
 5381SOL    HW218041   9.592   8.895   3.119
 5382SOL     OW18042   4.687  13.772  14.809
 5382SOL    HW118043   4.759  13.710  14.798
 5382SOL    HW218044   4.702  13.837  14.740
 5383SOL     OW18045   2.902   0.761   0.248
 5383SOL    HW118046   2.861   0.733   0.330
 5383SOL    HW218047   2.969   0.823   0.275
 5384SOL     OW18048   1.381   5.437   6.103
 5384SOL    HW118049   1.287   5.444   6.086
 5384SOL    HW218050   1.421   5.492   6.036
 5385SOL     OW18051  13.546  13.495   4.789
 5385SOL    HW118052  13.502  13.427   4.840
 5385SOL    HW218053  13.477  13.531   4.733
 5386SOL     OW18054   9.383  14.451   8.326
 5386SOL    HW118055   9.305  14.470   8.378
 5386SOL    HW218056   9.349  14.432   8.238
 5387SOL     OW18057   7.774  12.698  13.429
 5387SOL    HW118058   7.790  12.790  13.410
 5387SOL    HW218059   7.720  12.698  13.507
 5388SOL     OW18060   1.983   1.355   8.687
 5388SOL    HW118061   2.068   1.397   8.674
 5388SOL    HW218062   1.952   1.389   8.771
 5389SOL     OW18063   8.086   0.588   6.981
 5389SOL    HW118064   8.153   0.561   6.919
 5389SOL    HW218065   8.096   0.528   7.055
 5390SOL     OW18066  13.778   4.305   2.598
 5390SOL    HW118067  13.850   4.283   2.657
 5390SOL    HW218068  13.701   4.312   2.654
 5391SOL     OW18069  12.384   5.084   5.482
 5391SOL    HW118070  12.364   5.158   5.425
 5391SOL    HW218071  12.301   5.064   5.526
 5392SOL     OW18072   1.311  13.097  12.924
 5392SOL    HW118073   1.315  13.007  12.890
 5392SOL    HW218074   1.402  13.126  12.927
 5393SOL     OW18075   7.105   6.616  10.569
 5393SOL    HW118076   7.046   6.665  10.511
 5393SOL    HW218077   7.158   6.563  10.509
 5394SOL     OW18078   1.012   9.239   3.133
 5394SOL    HW118079   1.027   9.321   3.179
 5394SOL    HW218080   1.047   9.254   3.045
 5395SOL     OW18081   8.945   3.183  11.909
 5395SOL    HW118082   9.007   3.237  11.860
 5395SOL    HW218083   8.870   3.240  11.924
 5396SOL     OW18084   9.573   5.924   5.418
 5396SOL    HW118085   9.591   5.884   5.503
 5396SOL    HW218086   9.536   5.853   5.366
 5397SOL     OW18087   8.661   6.840   2.377
 5397SOL    HW118088   8.618   6.835   2.463
 5397SOL    HW218089   8.751   6.812   2.394
 5398SOL     OW18090   9.940   1.811  14.418
 5398SOL    HW118091  10.012   1.757  14.450
 5398SOL    HW218092   9.911   1.860  14.495
 5399SOL     OW18093   9.273  14.771   5.428
 5399SOL    HW118094   9.366  14.784   5.443
 5399SOL    HW218095   9.253  14.687   5.470
 5400SOL     OW18096   8.650  11.761  12.477
 5400SOL    HW118097   8.567  11.808  12.489
 5400SOL    HW218098   8.716  11.818  12.514
 5401SOL     OW18099   3.895   1.058   4.686
 5401SOL    HW118100   3.867   1.013   4.606
 5401SOL    HW218101   3.853   1.144   4.681
 5402SOL     OW18102   2.739  14.187  11.979
 5402SOL    HW118103   2.805  14.139  12.030
 5402SOL    HW218104   2.711  14.257  12.037
 5403SOL     OW18105  10.563   8.888  14.593
 5403SOL    HW118106  10.632   8.882  14.659
 5403SOL    HW218107  10.495   8.940  14.635
 5404SOL     OW18108   3.588  12.437  10.300
 5404SOL    HW118109   3.520  12.487  10.255
 5404SOL    HW218110   3.664  12.495  10.301
 5405SOL     OW18111  12.688  10.047  14.046
 5405SOL    HW118112  12.596  10.045  14.072
 5405SOL    HW218113  12.686  10.043  13.950
 5406SOL     OW18114   1.772  11.004  14.103
 5406SOL    HW118115   1.746  10.912  14.111
 5406SOL    HW218116   1.798  11.028  14.192
 5407SOL     OW18117  12.178   3.136   6.727
 5407SOL    HW118118  12.130   3.204   6.679
 5407SOL    HW218119  12.142   3.139   6.815
 5408SOL     OW18120  12.661  10.097  12.230
 5408SOL    HW118121  12.743  10.146  12.231
 5408SOL    HW218122  12.679  10.021  12.175
 5409SOL     OW18123   8.480  11.431  12.020
 5409SOL    HW118124   8.487  11.459  11.929
 5409SOL    HW218125   8.415  11.489  12.059
 5410SOL     OW18126   6.145   6.359  11.350
 5410SOL    HW118127   6.110   6.348  11.262
 5410SOL    HW218128   6.186   6.275  11.370
 5411SOL     OW18129   5.950   5.650   9.860
 5411SOL    HW118130   5.961   5.583   9.928
 5411SOL    HW218131   5.957   5.733   9.907
 5412SOL     OW18132   9.223  12.576   7.798
 5412SOL    HW118133   9.267  12.654   7.833
 5412SOL    HW218134   9.265  12.503   7.843
 5413SOL     OW18135   2.690  14.381   1.643
 5413SOL    HW118136   2.715  14.315   1.708
 5413SOL    HW218137   2.637  14.444   1.692
 5414SOL     OW18138   9.131   3.880   2.893
 5414SOL    HW118139   9.177   3.801   2.923
 5414SOL    HW218140   9.084   3.852   2.815
 5415SOL     OW18141  14.196   9.302  12.780
 5415SOL    HW118142  14.154   9.219  12.762
 5415SOL    HW218143  14.152   9.335  12.859
 5416SOL     OW18144  13.680   6.687   2.347
 5416SOL    HW118145  13.761   6.652   2.384
 5416SOL    HW218146  13.692   6.781   2.347
 5417SOL     OW18147   2.934   6.410   8.751
 5417SOL    HW118148   2.918   6.354   8.827
 5417SOL    HW218149   2.848   6.418   8.709
 5418SOL     OW18150  11.968  14.231  14.168
 5418SOL    HW118151  12.029  14.205  14.237
 5418SOL    HW218152  11.976  14.326  14.164
 5419SOL     OW18153  11.535   5.306  11.743
 5419SOL    HW118154  11.548   5.354  11.661
 5419SOL    HW218155  11.449   5.266  11.734
 5420SOL     OW18156   8.890   9.445   9.854
 5420SOL    HW118157   8.921   9.515   9.797
 5420SOL    HW218158   8.857   9.378   9.795
 5421SOL     OW18159   1.354   1.983  14.137
 5421SOL    HW118160   1.294   2.036  14.190
 5421SOL    HW218161   1.407   1.935  14.201
 5422SOL     OW18162  10.064  13.623   7.950
 5422SOL    HW118163  10.128  13.612   8.020
 5422SOL    HW218164  10.052  13.534   7.915
 5423SOL     OW18165   6.611   1.297   3.511
 5423SOL    HW118166   6.642   1.220   3.465
 5423SOL    HW218167   6.656   1.370   3.468
 5424SOL     OW18168  10.208  11.933  14.188
 5424SOL    HW118169  10.139  11.914  14.125
 5424SOL    HW218170  10.280  11.968  14.135
 5425SOL     OW18171   6.415   9.810  10.290
 5425SOL    HW118172   6.349   9.787  10.355
 5425SOL    HW218173   6.485   9.852  10.341
 5426SOL     OW18174   3.715  12.438   4.352
 5426SOL    HW118175   3.671  12.518   4.378
 5426SOL    HW218176   3.729  12.390   4.433
 5427SOL     OW18177   2.491   3.951   4.781
 5427SOL    HW118178   2.522   3.865   4.752
 5427SOL    HW218179   2.487   4.003   4.701
 5428SOL     OW18180   6.193  10.631   5.941
 5428SOL    HW118181   6.270  10.669   5.982
 5428SOL    HW218182   6.176  10.688   5.865
 5429SOL     OW18183   6.960  10.692   1.197
 5429SOL    HW118184   6.964  10.624   1.130
 5429SOL    HW218185   7.015  10.763   1.162
 5430SOL     OW18186  10.646  14.625  10.096
 5430SOL    HW118187  10.568  14.681  10.098
 5430SOL    HW218188  10.618  14.543  10.137
 5431SOL     OW18189   9.683   8.341   8.194
 5431SOL    HW118190   9.639   8.397   8.258
 5431SOL    HW218191   9.760   8.307   8.240
 5432SOL     OW18192   2.986  10.864  11.225
 5432SOL    HW118193   2.969  10.823  11.309
 5432SOL    HW218194   2.899  10.889  11.192
 5433SOL     OW18195   3.898   7.306  12.225
 5433SOL    HW118196   3.839   7.362  12.275
 5433SOL    HW218197   3.930   7.363  12.154
 5434SOL     OW18198  14.350  14.635   2.566
 5434SOL    HW118199  14.279  14.644   2.503
 5434SOL    HW218200  14.319  14.567   2.627
 5435SOL     OW18201  10.596   0.868   2.942
 5435SOL    HW118202  10.642   0.786   2.932
 5435SOL    HW218203  10.504   0.847   2.925
 5436SOL     OW18204   4.980  12.394   8.603
 5436SOL    HW118205   4.905  12.382   8.661
 5436SOL    HW218206   4.949  12.457   8.537
 5437SOL     OW18207   3.728   1.877   6.373
 5437SOL    HW118208   3.747   1.809   6.308
 5437SOL    HW218209   3.776   1.954   6.343
 5438SOL     OW18210  12.464   1.317   6.876
 5438SOL    HW118211  12.373   1.318   6.904
 5438SOL    HW218212  12.488   1.409   6.868
 5439SOL     OW18213  10.584   1.034  13.088
 5439SOL    HW118214  10.570   0.993  13.173
 5439SOL    HW218215  10.610   0.962  13.031
 5440SOL     OW18216   8.168   0.621   5.521
 5440SOL    HW118217   8.241   0.560   5.530
 5440SOL    HW218218   8.209   0.708   5.519
 5441SOL     OW18219   5.144  13.651   9.216
 5441SOL    HW118220   5.063  13.687   9.251
 5441SOL    HW218221   5.125  13.558   9.202
 5442SOL     OW18222   0.130   4.675   4.471
 5442SOL    HW118223   0.128   4.767   4.443
 5442SOL    HW218224   0.122   4.678   4.566
 5443SOL     OW18225   1.532   6.189   1.518
 5443SOL    HW118226   1.503   6.178   1.427
 5443SOL    HW218227   1.452   6.189   1.569
 5444SOL     OW18228  12.229   2.033   2.437
 5444SOL    HW118229  12.173   2.010   2.363
 5444SOL    HW218230  12.315   1.998   2.413
 5445SOL     OW18231  11.197   3.244  14.406
 5445SOL    HW118232  11.187   3.199  14.490
 5445SOL    HW218233  11.263   3.192  14.359
 5446SOL     OW18234  13.569   5.868   7.704
 5446SOL    HW118235  13.615   5.824   7.776
 5446SOL    HW218236  13.607   5.956   7.702
 5447SOL     OW18237   7.270  13.970   3.165
 5447SOL    HW118238   7.269  13.943   3.257
 5447SOL    HW218239   7.210  14.044   3.161
 5448SOL     OW18240   9.377  13.551   6.965
 5448SOL    HW118241   9.381  13.470   7.017
 5448SOL    HW218242   9.284  13.574   6.964
 5449SOL     OW18243   7.429   1.285   1.843
 5449SOL    HW118244   7.362   1.354   1.834
 5449SOL    HW218245   7.430   1.242   1.757
 5450SOL     OW18246   5.681   3.241   0.164
 5450SOL    HW118247   5.682   3.240   0.068
 5450SOL    HW218248   5.604   3.189   0.187
 5451SOL     OW18249   3.518  13.070  11.761
 5451SOL    HW118250   3.459  12.995  11.761
 5451SOL    HW218251   3.486  13.126  11.691
 5452SOL     OW18252   7.188   9.155   3.529
 5452SOL    HW118253   7.117   9.159   3.465
 5452SOL    HW218254   7.229   9.242   3.525
 5453SOL     OW18255   4.558   8.950  10.760
 5453SOL    HW118256   4.495   8.971  10.829
 5453SOL    HW218257   4.643   8.977  10.796
 5454SOL     OW18258   6.829  14.730  12.085
 5454SOL    HW118259   6.793  14.775  12.162
 5454SOL    HW218260   6.919  14.708  12.110
 5455SOL     OW18261  13.635   0.805  11.119
 5455SOL    HW118262  13.582   0.786  11.043
 5455SOL    HW218263  13.660   0.897  11.109
 5456SOL     OW18264   2.582  12.038   0.910
 5456SOL    HW118265   2.512  11.972   0.902
 5456SOL    HW218266   2.537  12.117   0.941
 5457SOL     OW18267   5.621  13.786  12.595
 5457SOL    HW118268   5.613  13.736  12.514
 5457SOL    HW218269   5.690  13.850  12.577
 5458SOL     OW18270   2.943   9.819   1.555
 5458SOL    HW118271   2.996   9.881   1.504
 5458SOL    HW218272   3.006   9.764   1.601
 5459SOL     OW18273  11.422  14.794  12.422
 5459SOL    HW118274  11.476  14.784  12.343
 5459SOL    HW218275  11.405  14.704  12.451
 5460SOL     OW18276  10.465   0.837  12.619
 5460SOL    HW118277  10.519   0.910  12.648
 5460SOL    HW218278  10.525   0.763  12.614
 5461SOL     OW18279   6.832  11.385   5.202
 5461SOL    HW118280   6.811  11.312   5.143
 5461SOL    HW218281   6.811  11.352   5.289
 5462SOL     OW18282   0.311   6.284   7.872
 5462SOL    HW118283   0.406   6.277   7.882
 5462SOL    HW218284   0.279   6.195   7.886
 5463SOL     OW18285   2.499   6.245   6.846
 5463SOL    HW118286   2.582   6.265   6.805
 5463SOL    HW218287   2.436   6.241   6.773
 5464SOL     OW18288   7.355   1.259  10.743
 5464SOL    HW118289   7.332   1.177  10.700
 5464SOL    HW218290   7.276   1.285  10.790
 5465SOL     OW18291   9.432  10.756   8.041
 5465SOL    HW118292   9.394  10.775   8.127
 5465SOL    HW218293   9.367  10.702   7.998
 5466SOL     OW18294   7.144  12.714  11.999
 5466SOL    HW118295   7.101  12.752  11.923
 5466SOL    HW218296   7.234  12.747  11.996
 5467SOL     OW18297   5.533   6.319  14.195
 5467SOL    HW118298   5.584   6.323  14.114
 5467SOL    HW218299   5.446   6.349  14.170
 5468SOL     OW18300  13.679  11.184   6.226
 5468SOL    HW118301  13.749  11.248   6.210
 5468SOL    HW218302  13.629  11.221   6.299
 5469SOL     OW18303  12.825   0.695   4.432
 5469SOL    HW118304  12.734   0.721   4.418
 5469SOL    HW218305  12.876   0.749   4.371
 5470SOL     OW18306   5.640   8.128   5.025
 5470SOL    HW118307   5.673   8.048   4.984
 5470SOL    HW218308   5.708   8.153   5.087
 5471SOL     OW18309  11.957   7.880   5.363
 5471SOL    HW118310  11.972   7.813   5.429
 5471SOL    HW218311  12.004   7.957   5.396
 5472SOL     OW18312   2.720  12.865   3.581
 5472SOL    HW118313   2.724  12.789   3.523
 5472SOL    HW218314   2.758  12.936   3.530
 5473SOL     OW18315   5.970   4.755  11.252
 5473SOL    HW118316   5.981   4.850  11.247
 5473SOL    HW218317   5.908   4.735  11.182
 5474SOL     OW18318  11.166   0.562   7.254
 5474SOL    HW118319  11.171   0.592   7.345
 5474SOL    HW218320  11.256   0.547   7.229
 5475SOL     OW18321   4.289  11.810   8.864
 5475SOL    HW118322   4.228  11.828   8.935
 5475SOL    HW218323   4.361  11.761   8.904
 5476SOL     OW18324  11.128   1.787   4.645
 5476SOL    HW118325  11.036   1.763   4.651
 5476SOL    HW218326  11.129   1.866   4.592
 5477SOL     OW18327   9.119  13.451   2.242
 5477SOL    HW118328   9.110  13.373   2.296
 5477SOL    HW218329   9.069  13.432   2.163
 5478SOL     OW18330   7.901   9.931  13.703
 5478SOL    HW118331   7.895   9.843  13.739
 5478SOL    HW218332   7.987   9.962  13.729
 5479SOL     OW18333   2.154   7.841   2.212
 5479SOL    HW118334   2.147   7.858   2.306
 5479SOL    HW218335   2.116   7.919   2.171
 5480SOL     OW18336   5.148   4.470   0.482
 5480SOL    HW118337   5.059   4.470   0.516
 5480SOL    HW218338   5.197   4.525   0.543
 5481SOL     OW18339   8.429   9.818   6.953
 5481SOL    HW118340   8.379   9.775   7.022
 5481SOL    HW218341   8.464   9.746   6.900
 5482SOL     OW18342   4.494  12.609   2.103
 5482SOL    HW118343   4.420  12.556   2.072
 5482SOL    HW218344   4.494  12.686   2.047
 5483SOL     OW18345   9.867   0.125   3.914
 5483SOL    HW118346   9.892   0.041   3.954
 5483SOL    HW218347   9.795   0.103   3.855
 5484SOL     OW18348  12.121   3.498   7.755
 5484SOL    HW118349  12.037   3.505   7.801
 5484SOL    HW218350  12.185   3.533   7.817
 5485SOL     OW18351  10.401  10.658   4.224
 5485SOL    HW118352  10.397  10.667   4.319
 5485SOL    HW218353  10.309  10.650   4.196
 5486SOL     OW18354   1.555  14.729  13.881
 5486SOL    HW118355   1.518  14.771  13.803
 5486SOL    HW218356   1.647  14.714  13.859
 5487SOL     OW18357  13.554   0.707  12.858
 5487SOL    HW118358  13.502   0.678  12.784
 5487SOL    HW218359  13.642   0.720  12.822
 5488SOL     OW18360   5.692   3.504  10.927
 5488SOL    HW118361   5.658   3.473  10.843
 5488SOL    HW218362   5.674   3.432  10.987
 5489SOL     OW18363   5.881   8.155  13.840
 5489SOL    HW118364   5.880   8.137  13.935
 5489SOL    HW218365   5.799   8.117  13.808
 5490SOL     OW18366   5.379   2.756   6.791
 5490SOL    HW118367   5.310   2.811   6.753
 5490SOL    HW218368   5.356   2.667   6.763
 5491SOL     OW18369   1.129   1.708   7.111
 5491SOL    HW118370   1.115   1.664   7.026
 5491SOL    HW218371   1.101   1.643   7.176
 5492SOL     OW18372   3.359   0.944  12.689
 5492SOL    HW118373   3.342   0.881  12.759
 5492SOL    HW218374   3.349   1.030  12.731
 5493SOL     OW18375   9.761  13.046   6.388
 5493SOL    HW118376   9.748  12.952   6.379
 5493SOL    HW218377   9.831  13.055   6.453
 5494SOL     OW18378   4.652  11.690  14.515
 5494SOL    HW118379   4.569  11.734  14.497
 5494SOL    HW218380   4.635  11.640  14.595
 5495SOL     OW18381  10.423  14.721   1.512
 5495SOL    HW118382  10.372  14.771   1.576
 5495SOL    HW218383  10.363  14.654   1.480
 5496SOL     OW18384   6.026   6.654   3.580
 5496SOL    HW118385   6.052   6.737   3.619
 5496SOL    HW218386   5.988   6.605   3.653
 5497SOL     OW18387   9.372   0.550   1.776
 5497SOL    HW118388   9.395   0.572   1.866
 5497SOL    HW218389   9.440   0.592   1.723
 5498SOL     OW18390  11.866   5.341   2.186
 5498SOL    HW118391  11.800   5.408   2.166
 5498SOL    HW218392  11.919   5.335   2.107
 5499SOL     OW18393   4.046   9.884  10.807
 5499SOL    HW118394   4.090   9.803  10.833
 5499SOL    HW218395   4.104   9.953  10.840
 5500SOL     OW18396   3.937   5.061   4.670
 5500SOL    HW118397   3.992   5.106   4.607
 5500SOL    HW218398   3.967   5.093   4.755
 5501SOL     OW18399   7.033  11.699  11.405
 5501SOL    HW118400   7.091  11.682  11.480
 5501SOL    HW218401   7.028  11.795  11.400
 5502SOL     OW18402   0.194  12.634  11.505
 5502SOL    HW118403   0.162  12.552  11.542
 5502SOL    HW218404   0.124  12.697  11.520
 5503SOL     OW18405  13.927  11.879   2.313
 5503SOL    HW118406  13.914  11.805   2.253
 5503SOL    HW218407  14.019  11.874   2.339
 5504SOL     OW18408   5.391  12.542   0.127
 5504SOL    HW118409   5.405  12.499   0.043
 5504SOL    HW218410   5.297  12.562   0.128
 5505SOL     OW18411   1.000  11.508   1.000
 5505SOL    HW118412   1.030  11.427   0.957
 5505SOL    HW218413   1.047  11.509   1.083
 5506SOL     OW18414   7.310  12.136  11.405
 5506SOL    HW118415   7.367  12.138  11.328
 5506SOL    HW218416   7.230  12.179  11.377
 5507SOL     OW18417   7.868   0.366  10.058
 5507SOL    HW118418   7.896   0.393  10.146
 5507SOL    HW218419   7.904   0.277  10.048
 5508SOL     OW18420   6.625   4.650   3.784
 5508SOL    HW118421   6.595   4.562   3.807
 5508SOL    HW218422   6.650   4.689   3.868
 5509SOL     OW18423   1.246   3.940  13.593
 5509SOL    HW118424   1.174   3.879  13.582
 5509SOL    HW218425   1.221   3.994  13.669
 5510SOL     OW18426   3.168   1.281   1.289
 5510SOL    HW118427   3.111   1.356   1.303
 5510SOL    HW218428   3.215   1.302   1.208
 5511SOL     OW18429  11.082   0.914   1.280
 5511SOL    HW118430  11.041   0.982   1.335
 5511SOL    HW218431  11.010   0.879   1.228
 5512SOL     OW18432   2.817   9.993   1.727
 5512SOL    HW118433   2.870   9.949   1.661
 5512SOL    HW218434   2.836   9.947   1.808
 5513SOL     OW18435  14.647  11.069   9.443
 5513SOL    HW118436  14.628  11.157   9.412
 5513SOL    HW218437  14.569  11.018   9.420
 5514SOL     OW18438   7.956   6.572   6.603
 5514SOL    HW118439   7.908   6.490   6.611
 5514SOL    HW218440   7.958   6.608   6.692
 5515SOL     OW18441  13.997   6.146   6.538
 5515SOL    HW118442  13.936   6.092   6.488
 5515SOL    HW218443  13.966   6.139   6.629
 5516SOL     OW18444   6.395   1.562  11.172
 5516SOL    HW118445   6.468   1.554  11.110
 5516SOL    HW218446   6.432   1.610  11.246
 5517SOL     OW18447   8.632  11.832   5.291
 5517SOL    HW118448   8.663  11.742   5.305
 5517SOL    HW218449   8.711  11.886   5.295
 5518SOL     OW18450   7.153   0.166  12.155
 5518SOL    HW118451   7.220   0.136  12.094
 5518SOL    HW218452   7.138   0.092  12.213
 5519SOL     OW18453   6.035   8.396  10.207
 5519SOL    HW118454   6.053   8.304  10.189
 5519SOL    HW218455   5.946   8.397  10.241
 5520SOL     OW18456   3.811   9.201   4.084
 5520SOL    HW118457   3.790   9.205   4.178
 5520SOL    HW218458   3.863   9.121   4.075
 5521SOL     OW18459   9.220   3.630  11.436
 5521SOL    HW118460   9.166   3.606  11.511
 5521SOL    HW218461   9.235   3.548  11.390
 5522SOL     OW18462   3.782   8.130   7.247
 5522SOL    HW118463   3.708   8.186   7.222
 5522SOL    HW218464   3.806   8.086   7.166
 5523SOL     OW18465  12.950  14.380   0.178
 5523SOL    HW118466  12.888  14.412   0.244
 5523SOL    HW218467  12.961  14.453   0.118
 5524SOL     OW18468   7.572  14.134   8.744
 5524SOL    HW118469   7.562  14.203   8.678
 5524SOL    HW218470   7.521  14.061   8.711
 5525SOL     OW18471  10.081   6.860  10.664
 5525SOL    HW118472  10.172   6.871  10.692
 5525SOL    HW218473  10.073   6.766  10.644
 5526SOL     OW18474  12.162   7.924   7.124
 5526SOL    HW118475  12.152   7.982   7.199
 5526SOL    HW218476  12.247   7.947   7.087
 5527SOL     OW18477  12.243   3.270   2.062
 5527SOL    HW118478  12.246   3.240   1.970
 5527SOL    HW218479  12.334   3.280   2.087
 5528SOL     OW18480   2.748   1.639   2.744
 5528SOL    HW118481   2.690   1.634   2.668
 5528SOL    HW218482   2.812   1.569   2.731
 5529SOL     OW18483  12.391   7.924  14.015
 5529SOL    HW118484  12.427   7.931  14.104
 5529SOL    HW218485  12.325   7.993  14.011
 5530SOL     OW18486  13.343  11.667   9.608
 5530SOL    HW118487  13.259  11.650   9.565
 5530SOL    HW218488  13.355  11.592   9.667
 5531SOL     OW18489  12.664   6.669   6.868
 5531SOL    HW118490  12.646   6.591   6.815
 5531SOL    HW218491  12.751   6.653   6.905
 5532SOL     OW18492  12.316   7.677   1.657
 5532SOL    HW118493  12.337   7.760   1.699
 5532SOL    HW218494  12.329   7.693   1.563
 5533SOL     OW18495   3.576   2.696  14.747
 5533SOL    HW118496   3.514   2.768  14.740
 5533SOL    HW218497   3.566   2.664  14.836
 5534SOL     OW18498  14.694  14.814   1.377
 5534SOL    HW118499  14.664  14.859   1.298
 5534SOL    HW218500  14.621  14.756   1.400
 5535SOL     OW18501  14.409   8.687   9.692
 5535SOL    HW118502  14.401   8.777   9.724
 5535SOL    HW218503  14.411   8.696   9.597
 5536SOL     OW18504  11.359  14.729   6.383
 5536SOL    HW118505  11.302  14.737   6.306
 5536SOL    HW218506  11.299  14.737   6.458
 5537SOL     OW18507   2.040   5.700   8.262
 5537SOL    HW118508   2.119   5.690   8.316
 5537SOL    HW218509   2.065   5.764   8.195
 5538SOL     OW18510  13.250   3.015  11.292
 5538SOL    HW118511  13.299   2.952  11.345
 5538SOL    HW218512  13.234   2.969  11.209
 5539SOL     OW18513   5.767   5.257   8.571
 5539SOL    HW118514   5.786   5.297   8.656
 5539SOL    HW218515   5.823   5.303   8.510
 5540SOL     OW18516   5.520  10.888   5.473
 5540SOL    HW118517   5.540  10.939   5.551
 5540SOL    HW218518   5.569  10.930   5.402
 5541SOL     OW18519  14.399   1.634  12.048
 5541SOL    HW118520  14.336   1.604  12.113
 5541SOL    HW218521  14.345   1.667  11.975
 5542SOL     OW18522   9.497   7.586  13.797
 5542SOL    HW118523   9.451   7.668  13.777
 5542SOL    HW218524   9.464   7.561  13.883
 5543SOL     OW18525  11.785   9.346  11.345
 5543SOL    HW118526  11.758   9.254  11.342
 5543SOL    HW218527  11.815   9.365  11.257
 5544SOL     OW18528   8.096  13.309   0.106
 5544SOL    HW118529   8.189  13.331   0.095
 5544SOL    HW218530   8.078  13.327   0.198
 5545SOL     OW18531  10.832  10.115  14.219
 5545SOL    HW118532  10.846  10.032  14.266
 5545SOL    HW218533  10.828  10.090  14.127
 5546SOL     OW18534   6.926   5.126   0.026
 5546SOL    HW118535   6.960   5.176   0.099
 5546SOL    HW218536   6.991   5.136  14.831
 5547SOL     OW18537  13.411  10.501   4.276
 5547SOL    HW118538  13.424  10.430   4.338
 5547SOL    HW218539  13.387  10.457   4.194
 5548SOL     OW18540  14.495   2.976   7.860
 5548SOL    HW118541  14.468   3.044   7.920
 5548SOL    HW218542  14.563   2.928   7.907
 5549SOL     OW18543  11.834   8.359   9.780
 5549SOL    HW118544  11.837   8.452   9.804
 5549SOL    HW218545  11.740   8.340   9.772
 5550SOL     OW18546   9.008   3.231  10.648
 5550SOL    HW118547   8.945   3.208  10.580
 5550SOL    HW218548   8.957   3.228  10.729
 5551SOL     OW18549   4.293   2.314  14.408
 5551SOL    HW118550   4.312   2.357  14.324
 5551SOL    HW218551   4.263   2.385  14.465
 5552SOL     OW18552   5.969   2.591   7.588
 5552SOL    HW118553   6.008   2.590   7.500
 5552SOL    HW218554   6.037   2.629   7.643
 5553SOL     OW18555   2.476   2.938   7.659
 5553SOL    HW118556   2.470   2.869   7.725
 5553SOL    HW218557   2.466   3.020   7.708
 5554SOL     OW18558  13.705  11.893  14.397
 5554SOL    HW118559  13.749  11.809  14.409
 5554SOL    HW218560  13.775  11.958  14.405
 5555SOL     OW18561   2.502   1.361   1.011
 5555SOL    HW118562   2.569   1.346   0.945
 5555SOL    HW218563   2.497   1.456   1.019
 5556SOL     OW18564   0.658   7.360   2.827
 5556SOL    HW118565   0.587   7.330   2.884
 5556SOL    HW218566   0.639   7.452   2.811
 5557SOL     OW18567   2.355   3.156   5.817
 5557SOL    HW118568   2.418   3.085   5.805
 5557SOL    HW218569   2.398   3.218   5.875
 5558SOL     OW18570   5.604   6.638  12.530
 5558SOL    HW118571   5.587   6.668  12.440
 5558SOL    HW218572   5.692   6.601  12.526
 5559SOL     OW18573   9.134   8.348   7.172
 5559SOL    HW118574   9.203   8.289   7.205
 5559SOL    HW218575   9.084   8.293   7.112
 5560SOL     OW18576   9.237  14.080   1.779
 5560SOL    HW118577   9.305  14.035   1.730
 5560SOL    HW218578   9.284  14.145   1.831
 5561SOL     OW18579  10.128  13.128   7.477
 5561SOL    HW118580  10.223  13.122   7.487
 5561SOL    HW218581  10.114  13.212   7.432
 5562SOL     OW18582  10.986   6.077   4.239
 5562SOL    HW118583  10.996   5.998   4.292
 5562SOL    HW218584  11.047   6.064   4.165
 5563SOL     OW18585   5.079   3.345   5.395
 5563SOL    HW118586   5.048   3.315   5.309
 5563SOL    HW218587   5.000   3.348   5.449
 5564SOL     OW18588   8.784   2.061   6.793
 5564SOL    HW118589   8.822   2.148   6.803
 5564SOL    HW218590   8.849   2.002   6.833
 5565SOL     OW18591  13.875  10.510   1.552
 5565SOL    HW118592  13.965  10.534   1.575
 5565SOL    HW218593  13.863  10.546   1.464
 5566SOL     OW18594  14.215   8.353  11.837
 5566SOL    HW118595  14.240   8.268  11.873
 5566SOL    HW218596  14.250   8.353  11.747
 5567SOL     OW18597  11.038  14.542  12.218
 5567SOL    HW118598  11.125  14.577  12.240
 5567SOL    HW218599  10.981  14.619  12.219
 5568SOL     OW18600   9.272  11.522   0.346
 5568SOL    HW118601   9.365  11.541   0.336
 5568SOL    HW218602   9.261  11.433   0.312
 5569SOL     OW18603  11.895   3.840  13.530
 5569SOL    HW118604  11.888   3.788  13.450
 5569SOL    HW218605  11.815   3.820  13.579
 5570SOL     OW18606   4.597  12.709   1.758
 5570SOL    HW118607   4.569  12.635   1.705
 5570SOL    HW218608   4.520  12.733   1.810
 5571SOL     OW18609  10.142   9.432   5.837
 5571SOL    HW118610  10.109   9.392   5.756
 5571SOL    HW218611  10.071   9.420   5.900
 5572SOL     OW18612  10.314   2.676   9.557
 5572SOL    HW118613  10.350   2.626   9.483
 5572SOL    HW218614  10.282   2.609   9.617
 5573SOL     OW18615   8.877   7.054   2.828
 5573SOL    HW118616   8.826   7.017   2.900
 5573SOL    HW218617   8.913   6.977   2.783
 5574SOL     OW18618   4.981  10.835  13.917
 5574SOL    HW118619   4.971  10.817  14.011
 5574SOL    HW218620   5.038  10.765  13.886
 5575SOL     OW18621   3.627  14.602  14.185
 5575SOL    HW118622   3.645  14.686  14.227
 5575SOL    HW218623   3.608  14.542  14.257
 5576SOL     OW18624   3.434   1.525  14.574
 5576SOL    HW118625   3.465   1.515  14.484
 5576SOL    HW218626   3.417   1.619  14.584
 5577SOL     OW18627   3.527   3.855   4.419
 5577SOL    HW118628   3.579   3.817   4.490
 5577SOL    HW218629   3.436   3.847   4.449
 5578SOL     OW18630   5.301  10.430   9.749
 5578SOL    HW118631   5.288  10.457   9.840
 5578SOL    HW218632   5.227  10.469   9.702
 5579SOL     OW18633   4.213  12.104  12.085
 5579SOL    HW118634   4.206  12.154  12.004
 5579SOL    HW218635   4.194  12.168  12.154
 5580SOL     OW18636   3.924  12.373   8.525
 5580SOL    HW118637   3.895  12.367   8.434
 5580SOL    HW218638   3.974  12.454   8.529
 5581SOL     OW18639  14.837   3.536   9.763
 5581SOL    HW118640  14.814   3.498   9.847
 5581SOL    HW218641   0.031   3.599   9.783
 5582SOL     OW18642  14.567   5.626  10.797
 5582SOL    HW118643  14.528   5.638  10.883
 5582SOL    HW218644  14.520   5.687  10.740
 5583SOL     OW18645   4.229   4.655   9.709
 5583SOL    HW118646   4.202   4.722   9.647
 5583SOL    HW218647   4.311   4.687   9.745
 5584SOL     OW18648   2.743   1.783  14.199
 5584SOL    HW118649   2.662   1.803  14.248
 5584SOL    HW218650   2.809   1.773  14.267
 5585SOL     OW18651   9.358   5.984   3.669
 5585SOL    HW118652   9.280   5.964   3.720
 5585SOL    HW218653   9.387   6.070   3.700
 5586SOL     OW18654   6.945   9.341   9.543
 5586SOL    HW118655   6.923   9.361   9.634
 5586SOL    HW218656   6.878   9.386   9.491
 5587SOL     OW18657  10.147   8.795   4.653
 5587SOL    HW118658  10.056   8.815   4.676
 5587SOL    HW218659  10.150   8.700   4.650
 5588SOL     OW18660  13.902   1.768   6.665
 5588SOL    HW118661  13.951   1.785   6.585
 5588SOL    HW218662  13.845   1.844   6.675
 5589SOL     OW18663   5.201   0.066   6.706
 5589SOL    HW118664   5.279   0.115   6.680
 5589SOL    HW218665   5.127   0.122   6.679
 5590SOL     OW18666   2.192  11.522   8.547
 5590SOL    HW118667   2.245  11.478   8.614
 5590SOL    HW218668   2.140  11.451   8.508
 5591SOL     OW18669   0.993  11.632   5.408
 5591SOL    HW118670   0.944  11.701   5.453
 5591SOL    HW218671   1.042  11.678   5.340
 5592SOL     OW18672  12.963   1.263  11.519
 5592SOL    HW118673  12.980   1.357  11.509
 5592SOL    HW218674  13.023   1.236  11.588
 5593SOL     OW18675   2.601  14.728   9.143
 5593SOL    HW118676   2.603  14.667   9.217
 5593SOL    HW218677   2.667  14.694   9.083
 5594SOL     OW18678   7.347   9.882   0.462
 5594SOL    HW118679   7.261   9.857   0.496
 5594SOL    HW218680   7.380   9.947   0.524
 5595SOL     OW18681  13.046   7.359   6.156
 5595SOL    HW118682  12.966   7.403   6.183
 5595SOL    HW218683  13.104   7.367   6.232
 5596SOL     OW18684   0.884   7.564   6.018
 5596SOL    HW118685   0.834   7.575   6.100
 5596SOL    HW218686   0.971   7.599   6.038
 5597SOL     OW18687   1.565  13.253  13.476
 5597SOL    HW118688   1.605  13.285  13.394
 5597SOL    HW218689   1.559  13.158  13.465
 5598SOL     OW18690   3.110   9.535  12.797
 5598SOL    HW118691   3.034   9.587  12.824
 5598SOL    HW218692   3.128   9.564  12.708
 5599SOL     OW18693   5.692   2.878  12.186
 5599SOL    HW118694   5.749   2.955  12.192
 5599SOL    HW218695   5.712   2.840  12.101
 5600SOL     OW18696   4.255  12.768   2.751
 5600SOL    HW118697   4.343  12.804   2.764
 5600SOL    HW218698   4.197  12.843   2.765
 5601SOL     OW18699   9.172  13.997   7.196
 5601SOL    HW118700   9.086  13.986   7.155
 5601SOL    HW218701   9.213  13.911   7.190
 5602SOL     OW18702   0.977   9.329   5.807
 5602SOL    HW118703   0.931   9.326   5.891
 5602SOL    HW218704   0.954   9.414   5.770
 5603SOL     OW18705  14.633   0.448  12.317
 5603SOL    HW118706  14.557   0.392  12.298
 5603SOL    HW218707  14.662   0.421  12.403
 5604SOL     OW18708   0.336   3.362  12.022
 5604SOL    HW118709   0.303   3.311  11.948
 5604SOL    HW218710   0.428   3.377  12.002
 5605SOL     OW18711   9.106  14.592  11.193
 5605SOL    HW118712   9.142  14.671  11.153
 5605SOL    HW218713   9.180  14.551  11.237
 5606SOL     OW18714   3.555   6.165   2.516
 5606SOL    HW118715   3.568   6.091   2.458
 5606SOL    HW218716   3.626   6.158   2.581
 5607SOL     OW18717   6.556   2.125   2.632
 5607SOL    HW118718   6.608   2.055   2.592
 5607SOL    HW218719   6.490   2.079   2.684
 5608SOL     OW18720   9.682  12.642  11.855
 5608SOL    HW118721   9.719  12.664  11.769
 5608SOL    HW218722   9.745  12.581  11.894
 5609SOL     OW18723  12.442   7.169  10.972
 5609SOL    HW118724  12.441   7.092  11.029
 5609SOL    HW218725  12.462   7.242  11.031
 5610SOL     OW18726   5.439  13.457   3.624
 5610SOL    HW118727   5.438  13.503   3.708
 5610SOL    HW218728   5.369  13.499   3.573
 5611SOL     OW18729  12.100  12.456   8.283
 5611SOL    HW118730  12.029  12.429   8.341
 5611SOL    HW218731  12.139  12.532   8.326
 5612SOL     OW18732   9.123   6.375   5.896
 5612SOL    HW118733   9.067   6.452   5.885
 5612SOL    HW218734   9.077   6.305   5.850
 5613SOL     OW18735   8.665   7.483  11.822
 5613SOL    HW118736   8.609   7.531  11.881
 5613SOL    HW218737   8.754   7.511  11.845
 5614SOL     OW18738  13.381   3.343   8.009
 5614SOL    HW118739  13.390   3.413   7.945
 5614SOL    HW218740  13.292   3.310   7.996
 5615SOL     OW18741  14.521  13.489   1.033
 5615SOL    HW118742  14.464  13.488   0.956
 5615SOL    HW218743  14.461  13.496   1.107
 5616SOL     OW18744  12.730   6.105   0.566
 5616SOL    HW118745  12.695   6.026   0.606
 5616SOL    HW218746  12.805   6.075   0.515
 5617SOL     OW18747  10.210   3.184   5.643
 5617SOL    HW118748  10.196   3.090   5.655
 5617SOL    HW218749  10.219   3.218   5.732
 5618SOL     OW18750   6.037   5.075   8.719
 5618SOL    HW118751   6.062   4.988   8.752
 5618SOL    HW218752   5.945   5.084   8.744
 5619SOL     OW18753   3.353   8.116   4.363
 5619SOL    HW118754   3.400   8.097   4.444
 5619SOL    HW218755   3.385   8.202   4.336
 5620SOL     OW18756   2.523  14.853   7.737
 5620SOL    HW118757   2.525  14.825   7.645
 5620SOL    HW218758   2.554   0.069   7.735
 5621SOL     OW18759   6.244   6.443   2.042
 5621SOL    HW118760   6.209   6.517   2.091
 5621SOL    HW218761   6.335   6.467   2.023
 5622SOL     OW18762   2.822  14.283   0.040
 5622SOL    HW118763   2.757  14.230  14.870
 5622SOL    HW218764   2.877  14.318  14.844
 5623SOL     OW18765  13.001   6.293  11.467
 5623SOL    HW118766  13.012   6.388  11.460
 5623SOL    HW218767  13.000   6.275  11.561
 5624SOL     OW18768  12.117   0.217   2.224
 5624SOL    HW118769  12.208   0.191   2.237
 5624SOL    HW218770  12.122   0.292   2.166
 5625SOL     OW18771  12.665   1.846   7.054
 5625SOL    HW118772  12.721   1.901   7.000
 5625SOL    HW218773  12.672   1.883   7.142
 5626SOL     OW18774   5.677   9.106  13.576
 5626SOL    HW118775   5.618   9.171  13.536
 5626SOL    HW218776   5.731   9.076  13.503
 5627SOL     OW18777   7.304   8.212  12.724
 5627SOL    HW118778   7.359   8.243  12.796
 5627SOL    HW218779   7.238   8.281  12.714
 5628SOL     OW18780   2.420   6.785  14.507
 5628SOL    HW118781   2.368   6.842  14.451
 5628SOL    HW218782   2.432   6.706  14.455
 5629SOL     OW18783  10.573   4.410   5.250
 5629SOL    HW118784  10.600   4.383   5.338
 5629SOL    HW218785  10.640   4.372   5.192
 5630SOL     OW18786  10.442   7.071   5.461
 5630SOL    HW118787  10.476   7.017   5.532
 5630SOL    HW218788  10.508   7.140   5.450
 5631SOL     OW18789  10.191   4.852  14.109
 5631SOL    HW118790  10.220   4.845  14.018
 5631SOL    HW218791  10.167   4.763  14.134
 5632SOL     OW18792   2.665   0.020   5.483
 5632SOL    HW118793   2.686   0.109   5.510
 5632SOL    HW218794   2.738  14.869   5.426
 5633SOL     OW18795   5.652   0.203  11.221
 5633SOL    HW118796   5.685   0.118  11.192
 5633SOL    HW218797   5.582   0.223  11.159
 5634SOL     OW18798   4.598   7.893  13.966
 5634SOL    HW118799   4.542   7.816  13.972
 5634SOL    HW218800   4.656   7.875  13.892
 5635SOL     OW18801  10.250   5.358   8.237
 5635SOL    HW118802  10.168   5.324   8.201
 5635SOL    HW218803  10.291   5.405   8.164
 5636SOL     OW18804  13.583   1.406   0.672
 5636SOL    HW118805  13.594   1.324   0.719
 5636SOL    HW218806  13.550   1.381   0.585
 5637SOL     OW18807   6.031   5.749  10.792
 5637SOL    HW118808   5.949   5.763  10.839
 5637SOL    HW218809   6.013   5.779  10.703
 5638SOL     OW18810  11.364  14.000   8.726
 5638SOL    HW118811  11.353  14.070   8.661
 5638SOL    HW218812  11.438  13.948   8.693
 5639SOL     OW18813  11.028   9.349   4.972
 5639SOL    HW118814  10.997   9.268   4.932
 5639SOL    HW218815  10.967   9.416   4.942
 5640SOL     OW18816  10.250   0.831   3.383
 5640SOL    HW118817  10.265   0.785   3.300
 5640SOL    HW218818  10.333   0.876   3.401
 5641SOL     OW18819   9.788  13.475  12.046
 5641SOL    HW118820   9.875  13.512  12.060
 5641SOL    HW218821   9.750  13.527  11.975
 5642SOL     OW18822   5.032   9.183   3.129
 5642SOL    HW118823   4.952   9.204   3.177
 5642SOL    HW218824   5.070   9.108   3.175
 5643SOL     OW18825   3.392   1.399  10.879
 5643SOL    HW118826   3.411   1.329  10.817
 5643SOL    HW218827   3.478   1.435  10.902
 5644SOL     OW18828   1.982  12.897   0.001
 5644SOL    HW118829   2.058  12.848   0.034
 5644SOL    HW218830   2.013  12.937  14.795
 5645SOL     OW18831   4.084   3.383   4.818
 5645SOL    HW118832   4.002   3.394   4.770
 5645SOL    HW218833   4.152   3.408   4.755
 5646SOL     OW18834   8.716   8.681  14.117
 5646SOL    HW118835   8.650   8.676  14.047
 5646SOL    HW218836   8.787   8.732  14.079
 5647SOL     OW18837   2.295   6.123  12.250
 5647SOL    HW118838   2.223   6.165  12.205
 5647SOL    HW218839   2.326   6.056  12.189
 5648SOL     OW18840   7.316   6.666   9.087
 5648SOL    HW118841   7.361   6.585   9.064
 5648SOL    HW218842   7.375   6.710   9.149
 5649SOL     OW18843   0.395  11.534   1.195
 5649SOL    HW118844   0.419  11.567   1.109
 5649SOL    HW218845   0.333  11.464   1.178
 5650SOL     OW18846  11.730   3.237   9.481
 5650SOL    HW118847  11.657   3.176   9.472
 5650SOL    HW218848  11.699   3.317   9.438
 5651SOL     OW18849   5.439   7.235   3.163
 5651SOL    HW118850   5.418   7.322   3.195
 5651SOL    HW218851   5.532   7.238   3.143
 5652SOL     OW18852   7.192   6.108   1.343
 5652SOL    HW118853   7.218   6.030   1.293
 5652SOL    HW218854   7.253   6.176   1.315
 5653SOL     OW18855  13.504   3.515   5.318
 5653SOL    HW118856  13.416   3.501   5.352
 5653SOL    HW218857  13.560   3.515   5.396
 5654SOL     OW18858  11.346   2.045   8.560
 5654SOL    HW118859  11.326   1.995   8.480
 5654SOL    HW218860  11.262   2.084   8.585
 5655SOL     OW18861   0.419   2.657  14.476
 5655SOL    HW118862   0.364   2.579  14.479
 5655SOL    HW218863   0.495   2.631  14.425
 5656SOL     OW18864   7.467   1.053   5.808
 5656SOL    HW118865   7.500   1.142   5.796
 5656SOL    HW218866   7.374   1.064   5.824
 5657SOL     OW18867   0.231   4.897   5.868
 5657SOL    HW118868   0.148   4.861   5.837
 5657SOL    HW218869   0.239   4.981   5.824
 5658SOL     OW18870   2.530  14.163   5.922
 5658SOL    HW118871   2.491  14.078   5.899
 5658SOL    HW218872   2.510  14.219   5.848
 5659SOL     OW18873   2.697   9.894  10.325
 5659SOL    HW118874   2.757   9.946  10.272
 5659SOL    HW218875   2.749   9.866  10.400
 5660SOL     OW18876   2.602   4.800   9.927
 5660SOL    HW118877   2.630   4.775  10.015
 5660SOL    HW218878   2.623   4.894   9.921
 5661SOL     OW18879   7.685   2.508   8.962
 5661SOL    HW118880   7.610   2.457   8.994
 5661SOL    HW218881   7.750   2.501   9.032
 5662SOL     OW18882  14.446  14.701   0.458
 5662SOL    HW118883  14.445  14.610   0.488
 5662SOL    HW218884  14.522  14.740   0.501
 5663SOL     OW18885   4.652   1.558  13.245
 5663SOL    HW118886   4.729   1.502  13.252
 5663SOL    HW218887   4.615   1.538  13.159
 5664SOL     OW18888   3.265  11.033  14.021
 5664SOL    HW118889   3.237  11.049  13.931
 5664SOL    HW218890   3.257  11.118  14.064
 5665SOL     OW18891  11.837  10.105   6.840
 5665SOL    HW118892  11.843  10.071   6.929
 5665SOL    HW218893  11.909  10.167   6.832
 5666SOL     OW18894  11.578  10.391  12.337
 5666SOL    HW118895  11.540  10.324  12.281
 5666SOL    HW218896  11.546  10.370  12.425
 5667SOL     OW18897   0.678   8.898   5.455
 5667SOL    HW118898   0.733   8.963   5.499
 5667SOL    HW218899   0.739   8.837   5.414
 5668SOL     OW18900   0.477  11.802  10.842
 5668SOL    HW118901   0.452  11.717  10.877
 5668SOL    HW218902   0.553  11.785  10.787
 5669SOL     OW18903   6.091   6.937   6.018
 5669SOL    HW118904   6.130   6.872   5.960
 5669SOL    HW218905   6.009   6.962   5.975
 5670SOL     OW18906   0.486  10.801  10.662
 5670SOL    HW118907   0.427  10.738  10.621
 5670SOL    HW218908   0.554  10.817  10.597
 5671SOL     OW18909   1.683   1.896   9.730
 5671SOL    HW118910   1.766   1.904   9.776
 5671SOL    HW218911   1.619   1.880   9.799
 5672SOL     OW18912   0.065  12.133   9.356
 5672SOL    HW118913   0.008  12.166   9.426
 5672SOL    HW218914   0.010  12.070   9.310
 5673SOL     OW18915   1.086   7.566   7.699
 5673SOL    HW118916   1.008   7.526   7.737
 5673SOL    HW218917   1.062   7.586   7.609
 5674SOL     OW18918  11.971  11.484  10.067
 5674SOL    HW118919  11.935  11.510  10.152
 5674SOL    HW218920  11.909  11.520  10.003
 5675SOL     OW18921  14.297   1.731   6.972
 5675SOL    HW118922  14.371   1.685   7.013
 5675SOL    HW218923  14.250   1.663   6.924
 5676SOL     OW18924   7.754  13.417  14.178
 5676SOL    HW118925   7.694  13.355  14.137
 5676SOL    HW218926   7.766  13.486  14.112
 5677SOL     OW18927   8.282   0.571   6.592
 5677SOL    HW118928   8.372   0.568   6.558
 5677SOL    HW218929   8.237   0.633   6.534
 5678SOL     OW18930   9.331   1.328  12.220
 5678SOL    HW118931   9.255   1.311  12.277
 5678SOL    HW218932   9.404   1.287  12.266
 5679SOL     OW18933  13.694   5.375   7.712
 5679SOL    HW118934  13.765   5.439   7.709
 5679SOL    HW218935  13.728   5.304   7.766
 5680SOL     OW18936  13.204   1.368   6.483
 5680SOL    HW118937  13.215   1.418   6.563
 5680SOL    HW218938  13.252   1.418   6.417
 5681SOL     OW18939   6.075   9.623   3.481
 5681SOL    HW118940   5.995   9.661   3.516
 5681SOL    HW218941   6.052   9.532   3.462
 5682SOL     OW18942  10.369   1.926   4.736
 5682SOL    HW118943  10.438   1.884   4.788
 5682SOL    HW218944  10.321   1.980   4.798
 5683SOL     OW18945   8.186  12.798   5.708
 5683SOL    HW118946   8.201  12.817   5.615
 5683SOL    HW218947   8.257  12.844   5.753
 5684SOL     OW18948   2.948  11.225  12.279
 5684SOL    HW118949   2.905  11.149  12.318
 5684SOL    HW218950   3.036  11.194  12.258
 5685SOL     OW18951  11.785   0.598  11.131
 5685SOL    HW118952  11.786   0.681  11.178
 5685SOL    HW218953  11.873   0.591  11.092
 5686SOL     OW18954   4.934   6.688   2.235
 5686SOL    HW118955   4.947   6.740   2.314
 5686SOL    HW218956   4.980   6.606   2.253
 5687SOL     OW18957  12.967  11.429   7.759
 5687SOL    HW118958  12.887  11.474   7.786
 5687SOL    HW218959  12.964  11.430   7.663
 5688SOL     OW18960   6.072   3.744   9.012
 5688SOL    HW118961   6.000   3.769   9.070
 5688SOL    HW218962   6.094   3.825   8.966
 5689SOL     OW18963   9.945  10.544  12.087
 5689SOL    HW118964   9.946  10.478  12.157
 5689SOL    HW218965  10.022  10.523  12.034
 5690SOL     OW18966  11.183   5.449   2.753
 5690SOL    HW118967  11.170   5.453   2.658
 5690SOL    HW218968  11.221   5.534   2.775
 5691SOL     OW18969   5.666  11.261   8.256
 5691SOL    HW118970   5.600  11.195   8.237
 5691SOL    HW218971   5.742  11.234   8.205
 5692SOL     OW18972   2.216  13.489   7.293
 5692SOL    HW118973   2.179  13.443   7.369
 5692SOL    HW218974   2.232  13.577   7.325
 5693SOL     OW18975   7.432   9.199   7.661
 5693SOL    HW118976   7.484   9.251   7.722
 5693SOL    HW218977   7.360   9.164   7.714
 5694SOL     OW18978   9.154  11.106   7.564
 5694SOL    HW118979   9.132  11.098   7.471
 5694SOL    HW218980   9.186  11.196   7.574
 5695SOL     OW18981   6.825  13.852   9.906
 5695SOL    HW118982   6.855  13.941   9.887
 5695SOL    HW218983   6.861  13.800   9.834
 5696SOL     OW18984  14.851  10.135  11.640
 5696SOL    HW118985  14.824  10.102  11.554
 5696SOL    HW218986  14.826  10.065  11.701
 5697SOL     OW18987  14.520   8.685   5.640
 5697SOL    HW118988  14.459   8.661   5.570
 5697SOL    HW218989  14.580   8.611   5.646
 5698SOL     OW18990  13.506   1.607  12.360
 5698SOL    HW118991  13.512   1.601  12.455
 5698SOL    HW218992  13.450   1.684  12.345
 5699SOL     OW18993   4.912  10.828  13.199
 5699SOL    HW118994   4.938  10.882  13.124
 5699SOL    HW218995   4.863  10.888  13.255
 5700SOL     OW18996   1.680  11.895   1.301
 5700SOL    HW118997   1.691  11.890   1.206
 5700SOL    HW218998   1.769  11.911   1.334
 5701SOL     OW18999  12.802   0.505   6.110
 5701SOL    HW119000  12.826   0.418   6.142
 5701SOL    HW219001  12.886   0.545   6.086
 5702SOL     OW19002   5.625   1.305   2.078
 5702SOL    HW119003   5.597   1.241   2.143
 5702SOL    HW219004   5.543   1.337   2.039
 5703SOL     OW19005  12.354  11.585   4.586
 5703SOL    HW119006  12.351  11.490   4.572
 5703SOL    HW219007  12.434  11.613   4.541
 5704SOL     OW19008   7.385  10.966   5.423
 5704SOL    HW119009   7.311  10.906   5.416
 5704SOL    HW219010   7.373  11.009   5.508
 5705SOL     OW19011   3.315   7.078  11.665
 5705SOL    HW119012   3.255   7.030  11.608
 5705SOL    HW219013   3.402   7.043  11.642
 5706SOL     OW19014   2.532   8.294  13.854
 5706SOL    HW119015   2.610   8.273  13.905
 5706SOL    HW219016   2.466   8.315  13.921
 5707SOL     OW19017  10.769   8.506   0.118
 5707SOL    HW119018  10.858   8.472   0.125
 5707SOL    HW219019  10.750   8.502   0.024
 5708SOL     OW19020   5.208   0.418   7.813
 5708SOL    HW119021   5.196   0.329   7.780
 5708SOL    HW219022   5.171   0.416   7.901
 5709SOL     OW19023   2.684   4.513   2.073
 5709SOL    HW119024   2.720   4.431   2.039
 5709SOL    HW219025   2.590   4.506   2.058
 5710SOL     OW19026   6.452   5.451   2.409
 5710SOL    HW119027   6.497   5.408   2.482
 5710SOL    HW219028   6.364   5.413   2.409
 5711SOL     OW19029  12.903   0.239   8.792
 5711SOL    HW119030  12.877   0.286   8.871
 5711SOL    HW219031  12.910   0.148   8.819
 5712SOL     OW19032   8.195   1.098   2.790
 5712SOL    HW119033   8.220   1.064   2.704
 5712SOL    HW219034   8.245   1.179   2.799
 5713SOL     OW19035   4.171  11.357   1.850
 5713SOL    HW119036   4.152  11.449   1.832
 5713SOL    HW219037   4.153  11.347   1.944
 5714SOL     OW19038  12.634  11.159   3.183
 5714SOL    HW119039  12.688  11.099   3.131
 5714SOL    HW219040  12.611  11.230   3.123
 5715SOL     OW19041   8.174   7.579   2.041
 5715SOL    HW119042   8.175   7.660   2.092
 5715SOL    HW219043   8.121   7.601   1.964
 5716SOL     OW19044  12.000   8.931  10.112
 5716SOL    HW119045  12.043   8.964  10.191
 5716SOL    HW219046  12.039   8.844  10.099
 5717SOL     OW19047   4.263  12.398  13.518
 5717SOL    HW119048   4.259  12.490  13.543
 5717SOL    HW219049   4.205  12.391  13.443
 5718SOL     OW19050   7.516  13.255   4.184
 5718SOL    HW119051   7.479  13.209   4.260
 5718SOL    HW219052   7.579  13.317   4.222
 5719SOL     OW19053   7.263   4.891   6.306
 5719SOL    HW119054   7.329   4.951   6.339
 5719SOL    HW219055   7.310   4.831   6.248
 5720SOL     OW19056  11.712   2.748   5.154
 5720SOL    HW119057  11.627   2.787   5.174
 5720SOL    HW219058  11.768   2.774   5.227
 5721SOL     OW19059   4.902  11.379  11.793
 5721SOL    HW119060   4.994  11.351  11.786
 5721SOL    HW219061   4.904  11.452  11.855
 5722SOL     OW19062   7.102  13.364   8.432
 5722SOL    HW119063   7.023  13.349   8.381
 5722SOL    HW219064   7.172  13.323   8.380
 5723SOL     OW19065  13.363   2.759   2.319
 5723SOL    HW119066  13.287   2.711   2.285
 5723SOL    HW219067  13.338   2.782   2.409
 5724SOL     OW19068   4.729   7.876   4.423
 5724SOL    HW119069   4.738   7.824   4.343
 5724SOL    HW219070   4.765   7.821   4.492
 5725SOL     OW19071   1.344   2.264   0.602
 5725SOL    HW119072   1.366   2.172   0.619
 5725SOL    HW219073   1.417   2.314   0.639
 5726SOL     OW19074  12.449   4.920   2.673
 5726SOL    HW119075  12.508   4.988   2.641
 5726SOL    HW219076  12.378   4.916   2.609
 5727SOL     OW19077   5.758   2.168   2.104
 5727SOL    HW119078   5.738   2.194   2.193
 5727SOL    HW219079   5.676   2.133   2.069
 5728SOL     OW19080   5.352   2.956   8.054
 5728SOL    HW119081   5.424   2.918   8.104
 5728SOL    HW219082   5.333   2.891   7.987
 5729SOL     OW19083   4.599  12.103   8.414
 5729SOL    HW119084   4.683  12.095   8.460
 5729SOL    HW219085   4.535  12.122   8.483
 5730SOL     OW19086  13.355  12.019   5.886
 5730SOL    HW119087  13.325  12.088   5.945
 5730SOL    HW219088  13.285  11.954   5.888
 5731SOL     OW19089   8.468  12.055   7.327
 5731SOL    HW119090   8.555  12.017   7.343
 5731SOL    HW219091   8.480  12.107   7.248
 5732SOL     OW19092   6.565   3.923   3.770
 5732SOL    HW119093   6.651   3.948   3.736
 5732SOL    HW219094   6.573   3.830   3.790
 5733SOL     OW19095   5.610  10.900   4.103
 5733SOL    HW119096   5.566  10.830   4.055
 5733SOL    HW219097   5.609  10.975   4.043
 5734SOL     OW19098   9.546  10.383  14.767
 5734SOL    HW119099   9.638  10.386  14.794
 5734SOL    HW219100   9.503  10.448  14.822
 5735SOL     OW19101   4.451  14.079  11.557
 5735SOL    HW119102   4.534  14.043  11.528
 5735SOL    HW219103   4.385  14.037  11.501
 5736SOL     OW19104   8.232   5.838   5.359
 5736SOL    HW119105   8.181   5.766   5.322
 5736SOL    HW219106   8.193   5.852   5.446
 5737SOL     OW19107   8.959   1.795   3.113
 5737SOL    HW119108   9.044   1.829   3.084
 5737SOL    HW219109   8.899   1.869   3.105
 5738SOL     OW19110   4.722  11.939  12.059
 5738SOL    HW119111   4.704  12.020  12.011
 5738SOL    HW219112   4.638  11.894  12.063
 5739SOL     OW19113   5.246   0.465   1.844
 5739SOL    HW119114   5.228   0.558   1.852
 5739SOL    HW219115   5.329   0.452   1.888
 5740SOL     OW19116   8.780  14.034   0.070
 5740SOL    HW119117   8.846  14.065   0.009
 5740SOL    HW219118   8.814  14.057   0.157
 5741SOL     OW19119   9.831   7.959  14.840
 5741SOL    HW119120   9.828   8.022   0.037
 5741SOL    HW219121   9.894   7.995  14.778
 5742SOL     OW19122   0.781   7.774  13.842
 5742SOL    HW119123   0.876   7.783  13.847
 5742SOL    HW219124   0.758   7.805  13.754
 5743SOL     OW19125  14.170   9.658   5.158
 5743SOL    HW119126  14.181   9.613   5.242
 5743SOL    HW219127  14.082   9.697   5.163
 5744SOL     OW19128  10.961   5.545   0.531
 5744SOL    HW119129  10.940   5.461   0.570
 5744SOL    HW219130  11.010   5.592   0.599
 5745SOL     OW19131   0.129   5.950   7.302
 5745SOL    HW119132   0.045   5.970   7.261
 5745SOL    HW219133   0.184   6.026   7.282
 5746SOL     OW19134   5.425   4.691  12.312
 5746SOL    HW119135   5.461   4.716  12.397
 5746SOL    HW219136   5.366   4.763  12.290
 5747SOL     OW19137  14.266  12.256   1.476
 5747SOL    HW119138  14.343  12.310   1.458
 5747SOL    HW219139  14.297  12.188   1.535
 5748SOL     OW19140   1.816   2.835   4.412
 5748SOL    HW119141   1.814   2.907   4.475
 5748SOL    HW219142   1.904   2.839   4.375
 5749SOL     OW19143   5.011   5.896   7.489
 5749SOL    HW119144   5.085   5.951   7.515
 5749SOL    HW219145   4.977   5.938   7.410
 5750SOL     OW19146   9.127  10.576  10.555
 5750SOL    HW119147   9.053  10.540  10.603
 5750SOL    HW219148   9.135  10.519  10.478
 5751SOL     OW19149  11.759   7.725   3.484
 5751SOL    HW119150  11.779   7.793   3.548
 5751SOL    HW219151  11.834   7.726   3.424
 5752SOL     OW19152   5.997   5.650  13.042
 5752SOL    HW119153   6.065   5.700  13.087
 5752SOL    HW219154   6.011   5.559  13.071
 5753SOL     OW19155   5.414   2.134  12.802
 5753SOL    HW119156   5.328   2.149  12.842
 5753SOL    HW219157   5.472   2.196  12.845
 5754SOL     OW19158   3.757   4.703  10.187
 5754SOL    HW119159   3.754   4.689  10.092
 5754SOL    HW219160   3.850   4.702  10.209
 5755SOL     OW19161   1.617   2.898   7.330
 5755SOL    HW119162   1.598   2.808   7.357
 5755SOL    HW219163   1.636   2.944   7.412
 5756SOL     OW19164  12.450   3.799  10.785
 5756SOL    HW119165  12.542   3.809  10.762
 5756SOL    HW219166  12.407   3.776  10.702
 5757SOL     OW19167  10.184   0.992   1.053
 5757SOL    HW119168  10.235   1.002   0.973
 5757SOL    HW219169  10.240   0.941   1.111
 5758SOL     OW19170   8.603   2.792  12.469
 5758SOL    HW119171   8.660   2.757  12.537
 5758SOL    HW219172   8.649   2.870  12.438
 5759SOL     OW19173   8.277   0.831  13.766
 5759SOL    HW119174   8.277   0.756  13.825
 5759SOL    HW219175   8.358   0.877  13.786
 5760SOL     OW19176   0.945   6.401   6.335
 5760SOL    HW119177   0.894   6.461   6.389
 5760SOL    HW219178   0.880   6.351   6.286
 5761SOL     OW19179  13.174  12.359  11.738
 5761SOL    HW119180  13.081  12.347  11.756
 5761SOL    HW219181  13.184  12.453  11.725
 5762SOL     OW19182   8.442   2.775   8.146
 5762SOL    HW119183   8.488   2.820   8.076
 5762SOL    HW219184   8.510   2.723   8.189
 5763SOL     OW19185   0.604   4.583   8.749
 5763SOL    HW119186   0.566   4.519   8.810
 5763SOL    HW219187   0.684   4.541   8.717
 5764SOL     OW19188   4.939  11.992   5.166
 5764SOL    HW119189   4.963  12.015   5.255
 5764SOL    HW219190   4.904  12.073   5.129
 5765SOL     OW19191  12.086   6.408   6.260
 5765SOL    HW119192  12.129   6.322   6.262
 5765SOL    HW219193  12.154   6.469   6.289
 5766SOL     OW19194   4.090   8.252  10.315
 5766SOL    HW119195   4.112   8.283  10.227
 5766SOL    HW219196   4.007   8.295  10.335
 5767SOL     OW19197   8.554   3.964   2.552
 5767SOL    HW119198   8.558   3.902   2.625
 5767SOL    HW219199   8.641   3.958   2.511
 5768SOL     OW19200   4.507   1.831   1.085
 5768SOL    HW119201   4.443   1.763   1.104
 5768SOL    HW219202   4.499   1.846   0.991
 5769SOL     OW19203   7.974   8.051   9.397
 5769SOL    HW119204   7.938   8.139   9.405
 5769SOL    HW219205   8.068   8.063   9.396
 5770SOL     OW19206  14.587  13.203   8.443
 5770SOL    HW119207  14.556  13.282   8.400
 5770SOL    HW219208  14.520  13.137   8.425
 5771SOL     OW19209   1.174   4.007   7.925
 5771SOL    HW119210   1.187   3.941   7.993
 5771SOL    HW219211   1.188   4.091   7.970
 5772SOL     OW19212   0.667   3.032   0.407
 5772SOL    HW119213   0.597   2.991   0.357
 5772SOL    HW219214   0.745   3.025   0.352
 5773SOL     OW19215   7.884   9.177   6.903
 5773SOL    HW119216   7.931   9.245   6.950
 5773SOL    HW219217   7.814   9.224   6.857
 5774SOL     OW19218   2.018   8.916   8.179
 5774SOL    HW119219   1.993   8.827   8.200
 5774SOL    HW219220   2.055   8.911   8.091
 5775SOL     OW19221   9.891   4.586   3.070
 5775SOL    HW119222   9.977   4.552   3.044
 5775SOL    HW219223   9.859   4.521   3.133
 5776SOL     OW19224   1.192   4.058   9.366
 5776SOL    HW119225   1.209   4.069   9.272
 5776SOL    HW219226   1.279   4.056   9.405
 5777SOL     OW19227   4.439   2.508  13.253
 5777SOL    HW119228   4.527   2.546  13.244
 5777SOL    HW219229   4.408   2.540  13.337
 5778SOL     OW19230   1.753   5.392   7.073
 5778SOL    HW119231   1.696   5.386   6.997
 5778SOL    HW219232   1.695   5.376   7.148
 5779SOL     OW19233  11.074  13.717   8.758
 5779SOL    HW119234  11.131  13.668   8.700
 5779SOL    HW219235  11.131  13.743   8.831
 5780SOL     OW19236   9.889   8.169   8.708
 5780SOL    HW119237   9.940   8.135   8.782
 5780SOL    HW219238   9.813   8.111   8.704
 5781SOL     OW19239   7.146   2.435   1.279
 5781SOL    HW119240   7.160   2.464   1.369
 5781SOL    HW219241   7.115   2.345   1.286
 5782SOL     OW19242  10.717   7.617  14.593
 5782SOL    HW119243  10.672   7.675  14.531
 5782SOL    HW219244  10.681   7.530  14.575
 5783SOL     OW19245   0.666   7.722  14.520
 5783SOL    HW119246   0.673   7.751  14.611
 5783SOL    HW219247   0.630   7.633  14.526
 5784SOL     OW19248  11.167   8.305   5.654
 5784SOL    HW119249  11.171   8.231   5.594
 5784SOL    HW219250  11.192   8.380   5.601
 5785SOL     OW19251  13.172   9.239  11.602
 5785SOL    HW119252  13.227   9.282  11.667
 5785SOL    HW219253  13.082   9.258  11.631
 5786SOL     OW19254   8.078  13.813  10.314
 5786SOL    HW119255   8.146  13.859  10.362
 5786SOL    HW219256   8.004  13.811  10.375
 5787SOL     OW19257   4.323   0.052  10.979
 5787SOL    HW119258   4.379   0.120  10.942
 5787SOL    HW219259   4.263   0.029  10.909
 5788SOL     OW19260   7.745  12.737   8.172
 5788SOL    HW119261   7.839  12.725   8.159
 5788SOL    HW219262   7.738  12.803   8.241
 5789SOL     OW19263  12.201   3.691  14.233
 5789SOL    HW119264  12.208   3.623  14.167
 5789SOL    HW219265  12.280   3.744  14.222
 5790SOL     OW19266   1.973  10.535   0.882
 5790SOL    HW119267   1.930  10.475   0.822
 5790SOL    HW219268   1.991  10.614   0.830
 5791SOL     OW19269   1.855   9.540   5.254
 5791SOL    HW119270   1.819   9.463   5.298
 5791SOL    HW219271   1.863   9.513   5.162
 5792SOL     OW19272  13.961   0.354   5.429
 5792SOL    HW119273  13.927   0.431   5.473
 5792SOL    HW219274  13.988   0.384   5.342
 5793SOL     OW19275   9.761   5.165  10.577
 5793SOL    HW119276   9.755   5.152  10.482
 5793SOL    HW219277   9.728   5.084  10.615
 5794SOL     OW19278  14.721  13.017  13.700
 5794SOL    HW119279  14.649  12.960  13.728
 5794SOL    HW219280  14.682  13.104  13.695
 5795SOL     OW19281  10.697   0.844   3.905
 5795SOL    HW119282  10.660   0.807   3.985
 5795SOL    HW219283  10.781   0.799   3.895
 5796SOL     OW19284  12.748   6.953   7.887
 5796SOL    HW119285  12.764   6.874   7.940
 5796SOL    HW219286  12.768   7.026   7.946
 5797SOL     OW19287   7.751   1.327  10.216
 5797SOL    HW119288   7.678   1.389  10.213
 5797SOL    HW219289   7.770   1.317  10.309
 5798SOL     OW19290   6.633   7.675  14.333
 5798SOL    HW119291   6.709   7.733  14.326
 5798SOL    HW219292   6.566   7.728  14.375
 5799SOL     OW19293   6.188   5.305   4.092
 5799SOL    HW119294   6.096   5.300   4.117
 5799SOL    HW219295   6.229   5.229   4.133
 5800SOL     OW19296   8.278  13.035  13.506
 5800SOL    HW119297   8.264  13.002  13.595
 5800SOL    HW219298   8.372  13.028  13.492
 5801SOL     OW19299  12.883   7.575  10.520
 5801SOL    HW119300  12.832   7.495  10.514
 5801SOL    HW219301  12.968   7.547  10.555
 5802SOL     OW19302  13.316   2.818   6.351
 5802SOL    HW119303  13.396   2.857   6.387
 5802SOL    HW219304  13.330   2.724   6.358
 5803SOL     OW19305   3.411   3.136  11.764
 5803SOL    HW119306   3.327   3.110  11.727
 5803SOL    HW219307   3.396   3.138  11.859
 5804SOL     OW19308   9.218  14.433  10.029
 5804SOL    HW119309   9.153  14.483   9.979
 5804SOL    HW219310   9.274  14.501  10.069
 5805SOL     OW19311   9.333  14.312   4.889
 5805SOL    HW119312   9.338  14.236   4.831
 5805SOL    HW219313   9.415  14.360   4.873
 5806SOL     OW19314  13.680  14.010  10.119
 5806SOL    HW119315  13.716  14.005  10.208
 5806SOL    HW219316  13.712  14.093  10.085
 5807SOL     OW19317   6.624  11.585  11.938
 5807SOL    HW119318   6.677  11.653  11.978
 5807SOL    HW219319   6.534  11.603  11.967
 5808SOL     OW19320   1.986   6.459   3.615
 5808SOL    HW119321   2.032   6.398   3.672
 5808SOL    HW219322   2.056   6.503   3.566
 5809SOL     OW19323  14.228   3.114   4.381
 5809SOL    HW119324  14.228   3.037   4.438
 5809SOL    HW219325  14.147   3.107   4.330
 5810SOL     OW19326   2.677   6.207   9.626
 5810SOL    HW119327   2.596   6.187   9.673
 5810SOL    HW219328   2.657   6.190   9.534
 5811SOL     OW19329   3.844   5.498   0.954
 5811SOL    HW119330   3.773   5.435   0.964
 5811SOL    HW219331   3.805   5.582   0.977
 5812SOL     OW19332   4.855   1.573   9.959
 5812SOL    HW119333   4.901   1.552  10.040
 5812SOL    HW219334   4.762   1.563   9.982
 5813SOL     OW19335  14.732  11.079   7.698
 5813SOL    HW119336  14.815  11.089   7.651
 5813SOL    HW219337  14.684  11.159   7.679
 5814SOL     OW19338   3.380   0.879   5.374
 5814SOL    HW119339   3.368   0.974   5.379
 5814SOL    HW219340   3.453   0.868   5.313
 5815SOL     OW19341   3.864  13.540  12.622
 5815SOL    HW119342   3.959  13.534  12.615
 5815SOL    HW219343   3.837  13.453  12.651
 5816SOL     OW19344   1.699   2.625  14.077
 5816SOL    HW119345   1.732   2.624  13.987
 5816SOL    HW219346   1.627   2.688  14.076
 5817SOL     OW19347   0.802  13.824   3.933
 5817SOL    HW119348   0.860  13.759   3.973
 5817SOL    HW219349   0.720  13.777   3.916
 5818SOL     OW19350   5.461   8.624   0.878
 5818SOL    HW119351   5.450   8.577   0.795
 5818SOL    HW219352   5.421   8.709   0.862
 5819SOL     OW19353   5.300   2.461   7.790
 5819SOL    HW119354   5.293   2.455   7.885
 5819SOL    HW219355   5.375   2.404   7.769
 5820SOL     OW19356   0.722  11.557   8.050
 5820SOL    HW119357   0.758  11.627   8.104
 5820SOL    HW219358   0.646  11.526   8.099
 5821SOL     OW19359  13.144  12.508   4.839
 5821SOL    HW119360  13.118  12.567   4.768
 5821SOL    HW219361  13.183  12.565   4.905
 5822SOL     OW19362   1.511   2.966   5.388
 5822SOL    HW119363   1.602   2.968   5.418
 5822SOL    HW219364   1.492   2.873   5.372
 5823SOL     OW19365  12.131   4.513  14.412
 5823SOL    HW119366  12.137   4.515  14.508
 5823SOL    HW219367  12.038   4.529  14.393
 5824SOL     OW19368  10.897   4.061   1.513
 5824SOL    HW119369  10.925   4.133   1.570
 5824SOL    HW219370  10.821   4.023   1.557
 5825SOL     OW19371  10.861  11.489   2.913
 5825SOL    HW119372  10.852  11.507   2.820
 5825SOL    HW219373  10.940  11.537   2.939
 5826SOL     OW19374   4.618   9.712   3.513
 5826SOL    HW119375   4.614   9.629   3.560
 5826SOL    HW219376   4.580   9.693   3.427
 5827SOL     OW19377   6.000   1.624  10.655
 5827SOL    HW119378   5.965   1.556  10.598
 5827SOL    HW219379   6.011   1.700  10.599
 5828SOL     OW19380   0.794  12.585   6.510
 5828SOL    HW119381   0.855  12.657   6.495
 5828SOL    HW219382   0.730  12.593   6.439
 5829SOL     OW19383   2.545   5.108   1.387
 5829SOL    HW119384   2.515   5.018   1.375
 5829SOL    HW219385   2.465   5.159   1.398
 5830SOL     OW19386   7.047  11.273   1.982
 5830SOL    HW119387   7.125  11.325   1.999
 5830SOL    HW219388   7.054  11.198   2.041
 5831SOL     OW19389   0.513   8.734  13.319
 5831SOL    HW119390   0.588   8.690  13.279
 5831SOL    HW219391   0.551   8.785  13.391
 5832SOL     OW19392   3.927   5.851   3.854
 5832SOL    HW119393   3.910   5.763   3.820
 5832SOL    HW219394   4.001   5.882   3.803
 5833SOL     OW19395  11.745   0.245   1.648
 5833SOL    HW119396  11.802   0.257   1.572
 5833SOL    HW219397  11.713   0.332   1.669
 5834SOL     OW19398   3.664   6.337  10.206
 5834SOL    HW119399   3.571   6.355  10.194
 5834SOL    HW219400   3.683   6.267  10.143
 5835SOL     OW19401   6.537   3.457   2.180
 5835SOL    HW119402   6.521   3.480   2.089
 5835SOL    HW219403   6.541   3.362   2.180
 5836SOL     OW19404   7.709   3.132  10.236
 5836SOL    HW119405   7.776   3.192  10.270
 5836SOL    HW219406   7.674   3.089  10.314
 5837SOL     OW19407   6.299   0.897  13.858
 5837SOL    HW119408   6.257   0.865  13.778
 5837SOL    HW219409   6.240   0.964  13.891
 5838SOL     OW19410  11.743  13.927   5.613
 5838SOL    HW119411  11.818  13.924   5.672
 5838SOL    HW219412  11.674  13.967   5.665
 5839SOL     OW19413  10.888   2.355  14.499
 5839SOL    HW119414  10.871   2.327  14.589
 5839SOL    HW219415  10.955   2.294  14.467
 5840SOL     OW19416   2.995  11.461   1.963
 5840SOL    HW119417   3.030  11.454   2.052
 5840SOL    HW219418   2.902  11.438   1.972
 5841SOL     OW19419  14.562  14.694  14.465
 5841SOL    HW119420  14.563  14.615  14.519
 5841SOL    HW219421  14.548  14.766  14.526
 5842SOL     OW19422  13.694   2.140   8.064
 5842SOL    HW119423  13.619   2.161   8.008
 5842SOL    HW219424  13.760   2.205   8.040
 5843SOL     OW19425   6.083   2.496   6.952
 5843SOL    HW119426   6.140   2.542   7.014
 5843SOL    HW219427   6.005   2.474   7.003
 5844SOL     OW19428   6.156  14.830   7.307
 5844SOL    HW119429   6.189  14.773   7.377
 5844SOL    HW219430   6.231   0.009   7.283
 5845SOL     OW19431   0.047  13.003  14.686
 5845SOL    HW119432   0.090  13.063  14.747
 5845SOL    HW219433   0.022  13.058  14.611
 5846SOL     OW19434  13.664   0.225   9.760
 5846SOL    HW119435  13.721   0.222   9.683
 5846SOL    HW219436  13.643   0.133   9.778
 5847SOL     OW19437   9.608   7.491   9.435
 5847SOL    HW119438   9.658   7.567   9.406
 5847SOL    HW219439   9.591   7.442   9.355
 5848SOL     OW19440   7.601  14.568   7.835
 5848SOL    HW119441   7.635  14.655   7.856
 5848SOL    HW219442   7.659  14.507   7.881
 5849SOL     OW19443   6.327  12.777  11.076
 5849SOL    HW119444   6.309  12.779  11.170
 5849SOL    HW219445   6.351  12.686  11.058
 5850SOL     OW19446   3.540   2.515  10.618
 5850SOL    HW119447   3.548   2.481  10.528
 5850SOL    HW219448   3.475   2.585  10.611
 5851SOL     OW19449  13.622   0.204   4.847
 5851SOL    HW119450  13.586   0.291   4.831
 5851SOL    HW219451  13.580   0.176   4.929
 5852SOL     OW19452   2.881  14.095   5.288
 5852SOL    HW119453   2.916  14.092   5.199
 5852SOL    HW219454   2.799  14.143   5.281
 5853SOL     OW19455  12.843   6.448   3.862
 5853SOL    HW119456  12.878   6.537   3.857
 5853SOL    HW219457  12.806   6.441   3.950
 5854SOL     OW19458   2.902  13.259   2.124
 5854SOL    HW119459   2.984  13.301   2.100
 5854SOL    HW219460   2.834  13.318   2.092
 5855SOL     OW19461   1.688   3.980   2.277
 5855SOL    HW119462   1.621   3.940   2.332
 5855SOL    HW219463   1.667   3.949   2.189
 5856SOL     OW19464  14.608  10.616   9.850
 5856SOL    HW119465  14.533  10.640   9.796
 5856SOL    HW219466  14.572  10.559   9.918
 5857SOL     OW19467   8.950  11.420   7.242
 5857SOL    HW119468   8.942  11.513   7.224
 5857SOL    HW219469   8.891  11.404   7.316
 5858SOL     OW19470   8.054  14.150   4.720
 5858SOL    HW119471   8.053  14.085   4.650
 5858SOL    HW219472   7.963  14.182   4.724
 5859SOL     OW19473   9.532  14.081   2.546
 5859SOL    HW119474   9.624  14.088   2.521
 5859SOL    HW219475   9.495  14.166   2.525
 5860SOL     OW19476   6.407  10.904   0.348
 5860SOL    HW119477   6.361  10.870   0.271
 5860SOL    HW219478   6.494  10.866   0.343
 5861SOL     OW19479   5.508   6.941   5.039
 5861SOL    HW119480   5.484   7.027   5.074
 5861SOL    HW219481   5.425   6.898   5.021
 5862SOL     OW19482   1.266   7.191   7.387
 5862SOL    HW119483   1.193   7.171   7.446
 5862SOL    HW219484   1.330   7.122   7.404
 5863SOL     OW19485   9.010  11.733   2.618
 5863SOL    HW119486   8.962  11.742   2.536
 5863SOL    HW219487   8.971  11.657   2.661
 5864SOL     OW19488   6.435   2.767   3.913
 5864SOL    HW119489   6.508   2.798   3.860
 5864SOL    HW219490   6.430   2.831   3.984
 5865SOL     OW19491   2.489   8.861   1.808
 5865SOL    HW119492   2.412   8.913   1.830
 5865SOL    HW219493   2.541   8.860   1.889
 5866SOL     OW19494   7.375   5.018   6.650
 5866SOL    HW119495   7.449   5.060   6.606
 5866SOL    HW219496   7.403   5.011   6.742
 5867SOL     OW19497   3.451   5.075   1.784
 5867SOL    HW119498   3.384   5.048   1.721
 5867SOL    HW219499   3.495   4.993   1.808
 5868SOL     OW19500   0.142   5.194   5.175
 5868SOL    HW119501   0.083   5.132   5.217
 5868SOL    HW219502   0.110   5.200   5.085
 5869SOL     OW19503   0.867   2.832   6.286
 5869SOL    HW119504   0.894   2.741   6.300
 5869SOL    HW219505   0.797   2.846   6.350
 5870SOL     OW19506  11.862   2.811   3.381
 5870SOL    HW119507  11.877   2.838   3.471
 5870SOL    HW219508  11.812   2.729   3.388
 5871SOL     OW19509   7.178  11.119   2.996
 5871SOL    HW119510   7.233  11.063   3.050
 5871SOL    HW219511   7.202  11.096   2.906
 5872SOL     OW19512   5.242   5.721   5.654
 5872SOL    HW119513   5.223   5.778   5.729
 5872SOL    HW219514   5.164   5.728   5.599
 5873SOL     OW19515   0.601   9.230  11.636
 5873SOL    HW119516   0.528   9.168  11.636
 5873SOL    HW219517   0.604   9.264  11.547
 5874SOL     OW19518  10.821   8.236   3.359
 5874SOL    HW119519  10.892   8.172   3.354
 5874SOL    HW219520  10.844   8.291   3.434
 5875SOL     OW19521   3.947   2.728   0.069
 5875SOL    HW119522   4.023   2.761   0.116
 5875SOL    HW219523   3.902   2.806   0.036
 5876SOL     OW19524   5.128   0.829  10.583
 5876SOL    HW119525   5.134   0.915  10.540
 5876SOL    HW219526   5.215   0.815  10.620
 5877SOL     OW19527   3.484   2.158   2.749
 5877SOL    HW119528   3.496   2.218   2.676
 5877SOL    HW219529   3.508   2.072   2.714
 5878SOL     OW19530  13.562   5.408   4.709
 5878SOL    HW119531  13.480   5.388   4.664
 5878SOL    HW219532  13.611   5.462   4.647
 5879SOL     OW19533   5.517   5.552   1.035
 5879SOL    HW119534   5.438   5.572   1.085
 5879SOL    HW219535   5.581   5.617   1.062
 5880SOL     OW19536   3.285  10.898   5.311
 5880SOL    HW119537   3.240  10.961   5.254
 5880SOL    HW219538   3.290  10.818   5.259
 5881SOL     OW19539   2.217   4.893  10.619
 5881SOL    HW119540   2.128   4.925  10.634
 5881SOL    HW219541   2.229   4.823  10.684
 5882SOL     OW19542  10.945   7.152   5.037
 5882SOL    HW119543  10.893   7.166   5.116
 5882SOL    HW219544  10.927   7.230   4.983
 5883SOL     OW19545  14.632   9.344  12.974
 5883SOL    HW119546  14.713   9.312  13.014
 5883SOL    HW219547  14.654   9.357  12.882
 5884SOL     OW19548   9.903   4.561   6.975
 5884SOL    HW119549   9.880   4.506   7.050
 5884SOL    HW219550   9.821   4.576   6.930
 5885SOL     OW19551   0.740   1.988   5.304
 5885SOL    HW119552   0.781   2.016   5.386
 5885SOL    HW219553   0.752   2.063   5.245
 5886SOL     OW19554   1.442  14.723   8.375
 5886SOL    HW119555   1.384  14.776   8.321
 5886SOL    HW219556   1.383  14.669   8.428
 5887SOL     OW19557   7.000   7.873  10.824
 5887SOL    HW119558   7.010   7.968  10.819
 5887SOL    HW219559   6.909   7.857  10.799
 5888SOL     OW19560   0.460   5.319   3.418
 5888SOL    HW119561   0.482   5.254   3.352
 5888SOL    HW219562   0.429   5.268   3.493
 5889SOL     OW19563  14.533   4.673  14.073
 5889SOL    HW119564  14.482   4.652  14.151
 5889SOL    HW219565  14.576   4.756  14.095
 5890SOL     OW19566   2.603   1.064  12.167
 5890SOL    HW119567   2.510   1.044  12.163
 5890SOL    HW219568   2.608   1.151  12.205
 5891SOL     OW19569   5.178   5.127  10.419
 5891SOL    HW119570   5.270   5.140  10.394
 5891SOL    HW219571   5.136   5.097  10.338
 5892SOL     OW19572   9.011   6.422   7.719
 5892SOL    HW119573   8.916   6.416   7.723
 5892SOL    HW219574   9.030   6.453   7.631
 5893SOL     OW19575  14.147   0.586   2.955
 5893SOL    HW119576  14.102   0.591   3.039
 5893SOL    HW219577  14.213   0.655   2.959
 5894SOL     OW19578   3.746   1.280   6.059
 5894SOL    HW119579   3.747   1.323   6.145
 5894SOL    HW219580   3.835   1.249   6.046
 5895SOL     OW19581   1.388  14.842   4.103
 5895SOL    HW119582   1.404  14.859   4.010
 5895SOL    HW219583   1.319   0.029   4.127
 5896SOL     OW19584  11.042   3.301  12.137
 5896SOL    HW119585  11.054   3.250  12.217
 5896SOL    HW219586  10.958   3.271  12.102
 5897SOL     OW19587   8.562  11.317   7.541
 5897SOL    HW119588   8.585  11.325   7.634
 5897SOL    HW219589   8.486  11.374   7.530
 5898SOL     OW19590  11.412  12.348   3.961
 5898SOL    HW119591  11.355  12.361   4.037
 5898SOL    HW219592  11.361  12.381   3.887
 5899SOL     OW19593   3.041   5.119   8.816
 5899SOL    HW119594   3.098   5.080   8.882
 5899SOL    HW219595   3.101   5.154   8.750
 5900SOL     OW19596   4.752  13.357   6.707
 5900SOL    HW119597   4.724  13.404   6.785
 5900SOL    HW219598   4.821  13.298   6.737
 5901SOL     OW19599   9.538   0.283  12.033
 5901SOL    HW119600   9.442   0.290  12.032
 5901SOL    HW219601   9.557   0.214  11.970
 5902SOL     OW19602   5.882  11.842   7.140
 5902SOL    HW119603   5.951  11.882   7.193
 5902SOL    HW219604   5.804  11.848   7.195
 5903SOL     OW19605  13.556  14.514   7.160
 5903SOL    HW119606  13.582  14.522   7.069
 5903SOL    HW219607  13.514  14.598   7.181
 5904SOL     OW19608   0.228  14.368   5.196
 5904SOL    HW119609   0.260  14.434   5.257
 5904SOL    HW219610   0.218  14.414   5.112
 5905SOL     OW19611   3.313  12.552   0.892
 5905SOL    HW119612   3.254  12.549   0.817
 5905SOL    HW219613   3.336  12.461   0.909
 5906SOL     OW19614  13.298  10.358   7.817
 5906SOL    HW119615  13.386  10.337   7.848
 5906SOL    HW219616  13.244  10.285   7.847
 5907SOL     OW19617  11.381   3.105   2.032
 5907SOL    HW119618  11.377   3.017   1.995
 5907SOL    HW219619  11.303   3.149   1.998
 5908SOL     OW19620   1.096   6.076   2.861
 5908SOL    HW119621   1.087   6.079   2.766
 5908SOL    HW219622   1.007   6.069   2.894
 5909SOL     OW19623  13.211   4.151  10.810
 5909SOL    HW119624  13.264   4.230  10.813
 5909SOL    HW219625  13.139   4.173  10.750
 5910SOL     OW19626   4.947  12.848  12.977
 5910SOL    HW119627   4.948  12.754  12.994
 5910SOL    HW219628   4.909  12.856  12.889
 5911SOL     OW19629   2.298  11.028  14.359
 5911SOL    HW119630   2.309  11.122  14.372
 5911SOL    HW219631   2.236  11.002  14.427
 5912SOL     OW19632   2.478   2.347   1.312
 5912SOL    HW119633   2.567   2.320   1.334
 5912SOL    HW219634   2.486   2.441   1.295
 5913SOL     OW19635   3.335  12.825   5.536
 5913SOL    HW119636   3.359  12.733   5.525
 5913SOL    HW219637   3.260  12.823   5.595
 5914SOL     OW19638   7.765   6.593   4.446
 5914SOL    HW119639   7.754   6.672   4.393
 5914SOL    HW219640   7.841   6.612   4.502
 5915SOL     OW19641  12.309  11.800  11.924
 5915SOL    HW119642  12.300  11.763  11.836
 5915SOL    HW219643  12.373  11.743  11.967
 5916SOL     OW19644   7.969  10.611   6.227
 5916SOL    HW119645   8.041  10.596   6.166
 5916SOL    HW219646   7.965  10.532   6.280
 5917SOL     OW19647   3.200  12.071   6.777
 5917SOL    HW119648   3.279  12.018   6.785
 5917SOL    HW219649   3.178  12.095   6.867
 5918SOL     OW19650   7.443   4.642  10.211
 5918SOL    HW119651   7.498   4.694  10.151
 5918SOL    HW219652   7.475   4.552  10.201
 5919SOL     OW19653   5.002   4.175  12.864
 5919SOL    HW119654   5.076   4.161  12.923
 5919SOL    HW219655   4.954   4.247  12.903
 5920SOL     OW19656   4.419   8.146  12.217
 5920SOL    HW119657   4.369   8.215  12.261
 5920SOL    HW219658   4.441   8.184  12.131
 5921SOL     OW19659   2.648  13.424   3.968
 5921SOL    HW119660   2.631  13.398   4.058
 5921SOL    HW219661   2.593  13.501   3.955
 5922SOL     OW19662  13.019   7.966  14.422
 5922SOL    HW119663  12.949   7.971  14.357
 5922SOL    HW219664  13.099   7.984  14.373
 5923SOL     OW19665   6.720  12.922   6.932
 5923SOL    HW119666   6.813  12.902   6.926
 5923SOL    HW219667   6.717  13.007   6.975
 5924SOL     OW19668   2.077   9.742  12.372
 5924SOL    HW119669   2.010   9.708  12.312
 5924SOL    HW219670   2.089   9.833  12.345
 5925SOL     OW19671  11.146   6.580   1.860
 5925SOL    HW119672  11.145   6.485   1.869
 5925SOL    HW219673  11.073   6.600   1.802
 5926SOL     OW19674   1.631   0.113  12.486
 5926SOL    HW119675   1.642   0.180  12.554
 5926SOL    HW219676   1.629   0.030  12.535
 5927SOL     OW19677   4.520  12.139   7.073
 5927SOL    HW119678   4.435  12.152   7.030
 5927SOL    HW219679   4.563  12.071   7.022
 5928SOL     OW19680   0.895   9.063  13.982
 5928SOL    HW119681   0.805   9.042  14.006
 5928SOL    HW219682   0.895   9.158  13.971
 5929SOL     OW19683  11.493   6.729  14.457
 5929SOL    HW119684  11.540   6.754  14.377
 5929SOL    HW219685  11.542   6.771  14.527
 5930SOL     OW19686   9.075  10.661   4.248
 5930SOL    HW119687   9.008  10.730   4.250
 5930SOL    HW219688   9.057  10.608   4.326
 5931SOL     OW19689   3.922   4.291   5.903
 5931SOL    HW119690   3.855   4.272   5.969
 5931SOL    HW219691   3.955   4.378   5.928
 5932SOL     OW19692   2.453  10.963   0.238
 5932SOL    HW119693   2.393  10.900   0.197
 5932SOL    HW219694   2.397  11.016   0.294
 5933SOL     OW19695  10.894   6.671  14.844
 5933SOL    HW119696  10.955   6.741  14.819
 5933SOL    HW219697  10.947   6.591  14.841
 5934SOL     OW19698   0.146   0.951   6.403
 5934SOL    HW119699   0.203   0.884   6.441
 5934SOL    HW219700   0.180   0.963   6.314
 5935SOL     OW19701   9.921  13.844   7.996
 5935SOL    HW119702   9.902  13.878   7.909
 5935SOL    HW219703   9.959  13.757   7.981
 5936SOL     OW19704   7.835  14.630  10.385
 5936SOL    HW119705   7.784  14.558  10.347
 5936SOL    HW219706   7.770  14.688  10.425
 5937SOL     OW19707   3.801  10.113  12.440
 5937SOL    HW119708   3.721  10.163  12.425
 5937SOL    HW219709   3.853  10.169  12.499
 5938SOL     OW19710  10.380  13.360  13.925
 5938SOL    HW119711  10.383  13.363  14.021
 5938SOL    HW219712  10.427  13.439  13.898
 5939SOL     OW19713   8.504  12.621   7.028
 5939SOL    HW119714   8.542  12.534   7.040
 5939SOL    HW219715   8.416  12.604   6.994
 5940SOL     OW19716  10.336  11.644   9.959
 5940SOL    HW119717  10.358  11.721  10.011
 5940SOL    HW219718  10.279  11.677   9.889
 5941SOL     OW19719  14.823  14.480   2.970
 5941SOL    HW119720  14.846  14.564   3.009
 5941SOL    HW219721   0.002  14.416   3.016
 5942SOL     OW19722  10.354   3.930   7.025
 5942SOL    HW119723  10.417   3.926   6.953
 5942SOL    HW219724  10.290   3.995   6.997
 5943SOL     OW19725  13.363   2.456   9.154
 5943SOL    HW119726  13.319   2.541   9.157
 5943SOL    HW219727  13.294   2.394   9.132
 5944SOL     OW19728   6.278   5.343   0.231
 5944SOL    HW119729   6.350   5.346   0.168
 5944SOL    HW219730   6.237   5.429   0.226
 5945SOL     OW19731   5.218   1.077   6.188
 5945SOL    HW119732   5.153   1.012   6.160
 5945SOL    HW219733   5.177   1.122   6.262
 5946SOL     OW19734   9.570   0.741  13.976
 5946SOL    HW119735   9.648   0.685  13.970
 5946SOL    HW219736   9.532   0.720  14.061
 5947SOL     OW19737   0.495   6.542   4.547
 5947SOL    HW119738   0.401   6.546   4.526
 5947SOL    HW219739   0.498   6.543   4.643
 5948SOL     OW19740   7.667   8.114  10.591
 5948SOL    HW119741   7.650   8.111  10.685
 5948SOL    HW219742   7.717   8.195  10.579
 5949SOL     OW19743  13.892  10.515   1.243
 5949SOL    HW119744  13.937  10.594   1.212
 5949SOL    HW219745  13.951  10.443   1.219
 5950SOL     OW19746   8.445  10.822   9.990
 5950SOL    HW119747   8.402  10.760  10.049
 5950SOL    HW219748   8.431  10.786   9.903
 5951SOL     OW19749   7.295   8.556   9.353
 5951SOL    HW119750   7.335   8.472   9.372
 5951SOL    HW219751   7.270   8.550   9.261
 5952SOL     OW19752  14.479   7.709  13.737
 5952SOL    HW119753  14.498   7.746  13.651
 5952SOL    HW219754  14.546   7.745  13.794
 5953SOL     OW19755   8.860  10.885  12.498
 5953SOL    HW119756   8.789  10.823  12.516
 5953SOL    HW219757   8.883  10.920  12.584
 5954SOL     OW19758   2.980  12.364   6.756
 5954SOL    HW119759   3.020  12.412   6.829
 5954SOL    HW219760   3.054  12.326   6.709
 5955SOL     OW19761   0.197  12.684   4.474
 5955SOL    HW119762   0.202  12.703   4.380
 5955SOL    HW219763   0.107  12.704   4.498
 5956SOL     OW19764  10.036  12.052  11.842
 5956SOL    HW119765  10.079  12.054  11.756
 5956SOL    HW219766  10.106  12.068  11.904
 5957SOL     OW19767   1.736   5.859   3.769
 5957SOL    HW119768   1.829   5.851   3.788
 5957SOL    HW219769   1.729   5.929   3.705
 5958SOL     OW19770  11.885   7.268   2.649
 5958SOL    HW119771  11.943   7.230   2.715
 5958SOL    HW219772  11.815   7.203   2.639
 5959SOL     OW19773   2.003   3.939   5.608
 5959SOL    HW119774   2.089   3.916   5.642
 5959SOL    HW219775   1.941   3.898   5.669
 5960SOL     OW19776   2.521  14.244   6.371
 5960SOL    HW119777   2.582  14.306   6.330
 5960SOL    HW219778   2.534  14.163   6.322
 5961SOL     OW19779  14.681   9.077   6.207
 5961SOL    HW119780  14.587   9.087   6.195
 5961SOL    HW219781  14.717   9.164   6.191
 5962SOL     OW19782   7.667   8.497   2.309
 5962SOL    HW119783   7.588   8.483   2.257
 5962SOL    HW219784   7.723   8.552   2.254
 5963SOL     OW19785   7.473  13.706  13.147
 5963SOL    HW119786   7.508  13.786  13.187
 5963SOL    HW219787   7.435  13.736  13.064
 5964SOL     OW19788   7.544   8.631   8.112
 5964SOL    HW119789   7.489   8.695   8.067
 5964SOL    HW219790   7.596   8.590   8.043
 5965SOL     OW19791  12.702   9.935  10.687
 5965SOL    HW119792  12.796   9.952  10.680
 5965SOL    HW219793  12.673   9.992  10.758
 5966SOL     OW19794  11.886  11.958  13.274
 5966SOL    HW119795  11.960  11.911  13.238
 5966SOL    HW219796  11.849  11.899  13.339
 5967SOL     OW19797   2.595   9.186   7.317
 5967SOL    HW119798   2.614   9.119   7.252
 5967SOL    HW219799   2.568   9.262   7.266
 5968SOL     OW19800   9.712   6.723   1.872
 5968SOL    HW119801   9.705   6.788   1.801
 5968SOL    HW219802   9.725   6.640   1.827
 5969SOL     OW19803  11.363  14.274  12.656
 5969SOL    HW119804  11.414  14.279  12.737
 5969SOL    HW219805  11.404  14.204  12.606
 5970SOL     OW19806  13.470   9.705  13.546
 5970SOL    HW119807  13.475   9.769  13.617
 5970SOL    HW219808  13.484   9.620  13.589
 5971SOL     OW19809   2.374   5.134   3.406
 5971SOL    HW119810   2.403   5.100   3.491
 5971SOL    HW219811   2.279   5.119   3.405
 5972SOL     OW19812  13.633   4.284   7.377
 5972SOL    HW119813  13.722   4.259   7.399
 5972SOL    HW219814  13.604   4.219   7.313
 5973SOL     OW19815   7.543   7.151   3.030
 5973SOL    HW119816   7.606   7.223   3.042
 5973SOL    HW219817   7.474   7.170   3.094
 5974SOL     OW19818   2.402  10.107  14.124
 5974SOL    HW119819   2.452  10.028  14.145
 5974SOL    HW219820   2.329  10.107  14.186
 5975SOL     OW19821  10.355   9.580  14.340
 5975SOL    HW119822  10.313   9.563  14.256
 5975SOL    HW219823  10.443   9.544  14.331
 5976SOL     OW19824   8.102   2.913   0.143
 5976SOL    HW119825   8.185   2.893   0.101
 5976SOL    HW219826   8.121   2.990   0.198
 5977SOL     OW19827   8.246   9.176  12.531
 5977SOL    HW119828   8.218   9.142  12.446
 5977SOL    HW219829   8.189   9.252  12.546
 5978SOL     OW19830  10.962  10.329  14.380
 5978SOL    HW119831  10.889  10.273  14.404
 5978SOL    HW219832  10.933  10.417  14.402
 5979SOL     OW19833   1.627  12.910   8.782
 5979SOL    HW119834   1.716  12.920   8.747
 5979SOL    HW219835   1.603  12.820   8.758
 5980SOL     OW19836   3.234  14.187   4.268
 5980SOL    HW119837   3.252  14.127   4.340
 5980SOL    HW219838   3.282  14.152   4.194
 5981SOL     OW19839   9.117   0.064  14.711
 5981SOL    HW119840   9.046   0.090  14.771
 5981SOL    HW219841   9.170   0.003  14.762
 5982SOL     OW19842   4.632  10.294   8.697
 5982SOL    HW119843   4.718  10.324   8.727
 5982SOL    HW219844   4.649  10.209   8.656
 5983SOL     OW19845   1.229   3.747   1.488
 5983SOL    HW119846   1.190   3.725   1.403
 5983SOL    HW219847   1.314   3.785   1.466
 5984SOL     OW19848   3.953   5.718  11.662
 5984SOL    HW119849   3.970   5.811  11.652
 5984SOL    HW219850   3.988   5.696  11.749
 5985SOL     OW19851  12.364   0.203   3.954
 5985SOL    HW119852  12.385   0.112   3.932
 5985SOL    HW219853  12.289   0.224   3.900
 5986SOL     OW19854   5.717   6.033   8.329
 5986SOL    HW119855   5.710   5.996   8.241
 5986SOL    HW219856   5.811   6.034   8.346
 5987SOL     OW19857  14.285   9.915  11.408
 5987SOL    HW119858  14.194   9.919  11.437
 5987SOL    HW219859  14.334   9.958  11.478
 5988SOL     OW19860  12.824  12.583  12.726
 5988SOL    HW119861  12.877  12.593  12.806
 5988SOL    HW219862  12.887  12.555  12.660
 5989SOL     OW19863   8.162   4.943  11.458
 5989SOL    HW119864   8.173   4.862  11.506
 5989SOL    HW219865   8.149   4.915  11.367
 5990SOL     OW19866   0.002   4.634  10.217
 5990SOL    HW119867   0.008   4.604  10.307
 5990SOL    HW219868  14.786   4.664  10.208
 5991SOL     OW19869   0.972  13.711   2.871
 5991SOL    HW119870   0.913  13.672   2.806
 5991SOL    HW219871   0.914  13.739   2.942
 5992SOL     OW19872   1.974   5.189  13.181
 5992SOL    HW119873   2.056   5.145  13.158
 5992SOL    HW219874   1.958   5.164  13.272
 5993SOL     OW19875   5.796  11.311   5.752
 5993SOL    HW119876   5.798  11.217   5.766
 5993SOL    HW219877   5.770  11.322   5.661
 5994SOL     OW19878   1.199   2.221  13.156
 5994SOL    HW119879   1.121   2.169  13.173
 5994SOL    HW219880   1.240   2.179  13.081
 5995SOL     OW19881  14.789  14.558  11.753
 5995SOL    HW119882  14.859  14.569  11.817
 5995SOL    HW219883  14.749  14.644  11.745
 5996SOL     OW19884   0.129  11.107   5.713
 5996SOL    HW119885   0.214  11.142   5.742
 5996SOL    HW219886   0.125  11.128   5.619
 5997SOL     OW19887   5.814   1.944   2.663
 5997SOL    HW119888   5.814   1.913   2.572
 5997SOL    HW219889   5.860   1.875   2.712
 5998SOL     OW19890  10.270   6.963   7.190
 5998SOL    HW119891  10.248   6.976   7.283
 5998SOL    HW219892  10.202   7.010   7.143
 5999SOL     OW19893   5.105   2.173   9.468
 5999SOL    HW119894   5.081   2.250   9.519
 5999SOL    HW219895   5.088   2.099   9.526
 6000SOL     OW19896  14.262   1.469   4.333
 6000SOL    HW119897  14.315   1.397   4.367
 6000SOL    HW219898  14.277   1.467   4.239
 6001SOL     OW19899  13.724   4.989   4.001
 6001SOL    HW119900  13.758   4.941   3.926
 6001SOL    HW219901  13.802   5.010   4.053
 6002SOL     OW19902  12.134   3.886  14.548
 6002SOL    HW119903  12.186   3.807  14.533
 6002SOL    HW219904  12.189   3.941  14.603
 6003SOL     OW19905   2.456   4.741   3.375
 6003SOL    HW119906   2.458   4.828   3.415
 6003SOL    HW219907   2.497   4.684   3.440
 6004SOL     OW19908   3.042   4.402  14.083
 6004SOL    HW119909   2.952   4.383  14.108
 6004SOL    HW219910   3.047   4.498  14.080
 6005SOL     OW19911   6.282   4.470  14.197
 6005SOL    HW119912   6.360   4.514  14.161
 6005SOL    HW219913   6.247   4.531  14.261
 6006SOL     OW19914   5.388   2.686   8.906
 6006SOL    HW119915   5.349   2.719   8.987
 6006SOL    HW219916   5.372   2.592   8.908
 6007SOL     OW19917   8.928   6.100   2.494
 6007SOL    HW119918   8.930   6.189   2.462
 6007SOL    HW219919   8.983   6.050   2.433
 6008SOL     OW19920   5.538   9.941   5.055
 6008SOL    HW119921   5.624   9.982   5.048
 6008SOL    HW219922   5.532   9.911   5.145
 6009SOL     OW19923   7.675   4.969  11.241
 6009SOL    HW119924   7.625   5.013  11.172
 6009SOL    HW219925   7.695   4.882  11.205
 6010SOL     OW19926   3.632  13.304  13.771
 6010SOL    HW119927   3.657  13.302  13.863
 6010SOL    HW219928   3.703  13.352  13.728
 6011SOL     OW19929   4.760  13.555   8.337
 6011SOL    HW119930   4.729  13.469   8.307
 6011SOL    HW219931   4.813  13.535   8.414
 6012SOL     OW19932  11.591  11.883  10.133
 6012SOL    HW119933  11.571  11.873  10.040
 6012SOL    HW219934  11.538  11.816  10.176
 6013SOL     OW19935   1.794  14.273   8.921
 6013SOL    HW119936   1.849  14.343   8.886
 6013SOL    HW219937   1.848  14.194   8.912
 6014SOL     OW19938   6.996   8.802   7.900
 6014SOL    HW119939   6.913   8.758   7.918
 6014SOL    HW219940   6.983   8.891   7.930
 6015SOL     OW19941  11.366   2.059  12.917
 6015SOL    HW119942  11.369   2.135  12.975
 6015SOL    HW219943  11.406   2.090  12.836
 6016SOL     OW19944   8.529  12.484   1.265
 6016SOL    HW119945   8.615  12.457   1.233
 6016SOL    HW219946   8.480  12.508   1.187
 6017SOL     OW19947   2.967   5.734   2.202
 6017SOL    HW119948   3.036   5.738   2.268
 6017SOL    HW219949   2.964   5.642   2.175
 6018SOL     OW19950   6.813   3.722   6.679
 6018SOL    HW119951   6.788   3.811   6.704
 6018SOL    HW219952   6.882   3.698   6.740
 6019SOL     OW19953  14.783  14.264   4.347
 6019SOL    HW119954  14.793  14.172   4.370
 6019SOL    HW219955  14.746  14.305   4.425
 6020SOL     OW19956  11.221   5.378   2.086
 6020SOL    HW119957  11.232   5.293   2.043
 6020SOL    HW219958  11.304   5.392   2.132
 6021SOL     OW19959   5.169   5.520   8.137
 6021SOL    HW119960   5.240   5.459   8.153
 6021SOL    HW219961   5.196   5.601   8.180
 6022SOL     OW19962   5.955   0.391   5.968
 6022SOL    HW119963   6.041   0.422   5.942
 6022SOL    HW219964   5.959   0.296   5.953
 6023SOL     OW19965   8.254  10.429  12.165
 6023SOL    HW119966   8.220  10.506  12.119
 6023SOL    HW219967   8.178  10.392  12.209
 6024SOL     OW19968   0.901   0.017  14.664
 6024SOL    HW119969   0.859  14.834  14.727
 6024SOL    HW219970   0.995   0.003  14.678
 6025SOL     OW19971   8.523  13.721  12.228
 6025SOL    HW119972   8.550  13.675  12.308
 6025SOL    HW219973   8.449  13.775  12.255
 6026SOL     OW19974  13.135  14.709   6.009
 6026SOL    HW119975  13.164  14.645   5.944
 6026SOL    HW219976  13.044  14.728   5.984
 6027SOL     OW19977  13.402   9.015   0.043
 6027SOL    HW119978  13.327   9.058   0.084
 6027SOL    HW219979  13.381   8.922   0.048
 6028SOL     OW19980   8.022  14.451  11.658
 6028SOL    HW119981   7.975  14.370  11.680
 6028SOL    HW219982   8.100  14.449  11.713
 6029SOL     OW19983  13.763   4.018   8.470
 6029SOL    HW119984  13.726   4.105   8.469
 6029SOL    HW219985  13.704   3.966   8.525
 6030SOL     OW19986  12.516   4.321  10.002
 6030SOL    HW119987  12.470   4.404  10.009
 6030SOL    HW219988  12.450   4.258   9.972
 6031SOL     OW19989   9.821   4.918   3.467
 6031SOL    HW119990   9.774   4.942   3.547
 6031SOL    HW219991   9.792   4.828   3.448
 6032SOL     OW19992  11.937   7.937   7.733
 6032SOL    HW119993  11.870   7.886   7.778
 6032SOL    HW219994  12.013   7.878   7.729
 6033SOL     OW19995  12.307  12.158   0.716
 6033SOL    HW119996  12.321  12.252   0.707
 6033SOL    HW219997  12.361  12.118   0.648
 6034SOL     OW19998   5.116  12.034  11.824
 6034SOL    HW119999   5.142  12.094  11.893
 6034SOL    HW220000   5.085  12.091  11.753
 6035SOL     OW20001  11.394   1.746   1.490
 6035SOL    HW120002  11.345   1.816   1.448
 6035SOL    HW220003  11.464   1.725   1.428
 6036SOL     OW20004  13.292   2.144  14.054
 6036SOL    HW120005  13.378   2.101  14.049
 6036SOL    HW220006  13.271   2.164  13.963
 6037SOL     OW20007   3.331   9.721   6.436
 6037SOL    HW120008   3.332   9.791   6.501
 6037SOL    HW220009   3.242   9.685   6.441
 6038SOL     OW20010   2.832  10.063  10.172
 6038SOL    HW120011   2.871  10.022  10.095
 6038SOL    HW220012   2.905  10.076  10.233
 6039SOL     OW20013   6.217   5.969   4.753
 6039SOL    HW120014   6.291   5.909   4.762
 6039SOL    HW220015   6.222   6.000   4.663
 6040SOL     OW20016   3.264   4.668   0.766
 6040SOL    HW120017   3.322   4.732   0.724
 6040SOL    HW220018   3.324   4.610   0.813
 6041SOL     OW20019  14.134   3.181   3.168
 6041SOL    HW120020  14.186   3.148   3.242
 6041SOL    HW220021  14.066   3.235   3.208
 6042SOL     OW20022   1.261   1.934   9.543
 6042SOL    HW120023   1.292   1.886   9.620
 6042SOL    HW220024   1.169   1.906   9.533
 6043SOL     OW20025  10.038   6.167   6.726
 6043SOL    HW120026   9.979   6.117   6.782
 6043SOL    HW220027  10.064   6.106   6.658
 6044SOL     OW20028  12.358   3.486   0.594
 6044SOL    HW120029  12.346   3.532   0.510
 6044SOL    HW220030  12.295   3.527   0.653
 6045SOL     OW20031  14.192   1.423   9.339
 6045SOL    HW120032  14.167   1.485   9.407
 6045SOL    HW220033  14.149   1.455   9.260
 6046SOL     OW20034  13.794   5.439  11.305
 6046SOL    HW120035  13.848   5.501  11.354
 6046SOL    HW220036  13.719   5.421  11.362
 6047SOL     OW20037   3.514  14.866  13.711
 6047SOL    HW120038   3.582   0.054  13.685
 6047SOL    HW220039   3.445   0.045  13.749
 6048SOL     OW20040   8.859  12.468  13.939
 6048SOL    HW120041   8.815  12.388  13.967
 6048SOL    HW220042   8.940  12.438  13.897
 6049SOL     OW20043  14.108   5.579   4.814
 6049SOL    HW120044  14.069   5.622   4.889
 6049SOL    HW220045  14.055   5.501   4.800
 6050SOL     OW20046  14.263   4.105  10.215
 6050SOL    HW120047  14.353   4.078  10.196
 6050SOL    HW220048  14.214   4.023  10.220
 6051SOL     OW20049   9.863  10.481   4.330
 6051SOL    HW120050   9.772  10.463   4.306
 6051SOL    HW220051   9.898  10.396   4.356
 6052SOL     OW20052   2.266   8.512   9.312
 6052SOL    HW120053   2.320   8.461   9.251
 6052SOL    HW220054   2.298   8.487   9.399
 6053SOL     OW20055  14.419   3.706   3.810
 6053SOL    HW120056  14.381   3.695   3.723
 6053SOL    HW220057  14.344   3.725   3.867
 6054SOL     OW20058  11.851  13.844  14.230
 6054SOL    HW120059  11.823  13.753  14.232
 6054SOL    HW220060  11.818  13.881  14.312
 6055SOL     OW20061   8.148   6.928   5.756
 6055SOL    HW120062   8.167   6.941   5.663
 6055SOL    HW220063   8.220   6.875   5.789
 6056SOL     OW20064   9.143   8.132   2.750
 6056SOL    HW120065   9.154   8.042   2.718
 6056SOL    HW220066   9.120   8.122   2.842
 6057SOL     OW20067   2.744  11.011   1.954
 6057SOL    HW120068   2.727  11.102   1.932
 6057SOL    HW220069   2.827  10.990   1.911
 6058SOL     OW20070   4.842   1.971   6.072
 6058SOL    HW120071   4.807   1.899   6.019
 6058SOL    HW220072   4.925   1.938   6.106
 6059SOL     OW20073  10.092   7.538   2.110
 6059SOL    HW120074  10.015   7.489   2.137
 6059SOL    HW220075  10.059   7.602   2.046
 6060SOL     OW20076   3.444   8.996   4.593
 6060SOL    HW120077   3.532   8.977   4.560
 6060SOL    HW220078   3.386   8.949   4.534
 6061SOL     OW20079  10.842   1.271   5.584
 6061SOL    HW120080  10.748   1.253   5.585
 6061SOL    HW220081  10.877   1.222   5.658
 6062SOL     OW20082   0.744   0.292   8.059
 6062SOL    HW120083   0.755   0.367   7.999
 6062SOL    HW220084   0.760   0.329   8.146
 6063SOL     OW20085  13.520   5.755   4.634
 6063SOL    HW120086  13.599   5.710   4.605
 6063SOL    HW220087  13.506   5.824   4.569
 6064SOL     OW20088   8.833  14.375   5.671
 6064SOL    HW120089   8.839  14.465   5.701
 6064SOL    HW220090   8.813  14.381   5.577
 6065SOL     OW20091  13.803   1.718  14.841
 6065SOL    HW120092  13.726   1.686  14.794
 6065SOL    HW220093  13.870   1.651  14.825
 6066SOL     OW20094   7.151  13.759  12.743
 6066SOL    HW120095   7.152  13.682  12.685
 6066SOL    HW220096   7.102  13.825  12.694
 6067SOL     OW20097   0.815   2.494   9.887
 6067SOL    HW120098   0.910   2.486   9.879
 6067SOL    HW220099   0.781   2.470   9.801
 6068SOL     OW20100  13.252   7.682  12.604
 6068SOL    HW120101  13.329   7.732  12.630
 6068SOL    HW220102  13.270   7.657  12.514
 6069SOL     OW20103   0.080   9.322   4.763
 6069SOL    HW120104   0.102   9.352   4.852
 6069SOL    HW220105   0.083   9.401   4.710
 6070SOL     OW20106   9.833  14.767   7.779
 6070SOL    HW120107   9.748  14.725   7.762
 6070SOL    HW220108   9.812  14.840   7.837
 6071SOL     OW20109   9.662   2.664   8.998
 6071SOL    HW120110   9.672   2.706   8.912
 6071SOL    HW220111   9.748   2.674   9.039
 6072SOL     OW20112   3.881   8.145   3.305
 6072SOL    HW120113   3.892   8.123   3.212
 6072SOL    HW220114   3.879   8.060   3.350
 6073SOL     OW20115  12.690   0.561   9.723
 6073SOL    HW120116  12.636   0.535   9.798
 6073SOL    HW220117  12.660   0.506   9.651
 6074SOL     OW20118   5.735   0.738   0.350
 6074SOL    HW120119   5.772   0.804   0.409
 6074SOL    HW220120   5.792   0.741   0.273
 6075SOL     OW20121   9.682   2.151   1.478
 6075SOL    HW120122   9.684   2.247   1.477
 6075SOL    HW220123   9.687   2.126   1.386
 6076SOL     OW20124  10.202   0.961  12.034
 6076SOL    HW120125  10.165   1.042  12.068
 6076SOL    HW220126  10.294   0.982  12.018
 6077SOL     OW20127   2.364   8.178  13.203
 6077SOL    HW120128   2.418   8.245  13.244
 6077SOL    HW220129   2.405   8.095  13.226
 6078SOL     OW20130   5.476   8.045   2.160
 6078SOL    HW120131   5.516   8.102   2.095
 6078SOL    HW220132   5.534   7.969   2.165
 6079SOL     OW20133  13.625  14.400   5.959
 6079SOL    HW120134  13.614  14.495   5.957
 6079SOL    HW220135  13.548  14.367   5.913
 6080SOL     OW20136   9.474   2.283   7.653
 6080SOL    HW120137   9.521   2.211   7.610
 6080SOL    HW220138   9.416   2.318   7.587
 6081SOL     OW20139   8.507   7.023   3.408
 6081SOL    HW120140   8.568   7.096   3.416
 6081SOL    HW220141   8.524   6.969   3.486
 6082SOL     OW20142   7.444   7.209   0.545
 6082SOL    HW120143   7.489   7.180   0.624
 6082SOL    HW220144   7.359   7.241   0.575
 6083SOL     OW20145   2.286   4.720  10.816
 6083SOL    HW120146   2.343   4.643  10.809
 6083SOL    HW220147   2.279   4.736  10.910
 6084SOL     OW20148   5.146   2.451  12.681
 6084SOL    HW120149   5.093   2.404  12.617
 6084SOL    HW220150   5.199   2.512  12.630
 6085SOL     OW20151   7.483   7.599   0.387
 6085SOL    HW120152   7.435   7.676   0.419
 6085SOL    HW220153   7.542   7.576   0.458
 6086SOL     OW20154   8.405   0.567   4.023
 6086SOL    HW120155   8.344   0.631   3.987
 6086SOL    HW220156   8.404   0.494   3.961
 6087SOL     OW20157   8.887   0.168  13.419
 6087SOL    HW120158   8.827   0.158  13.493
 6087SOL    HW220159   8.860   0.100  13.357
 6088SOL     OW20160   8.603  10.743   4.475
 6088SOL    HW120161   8.691  10.756   4.509
 6088SOL    HW220162   8.571  10.832   4.458
 6089SOL     OW20163  12.947   2.583  14.207
 6089SOL    HW120164  12.882   2.517  14.234
 6089SOL    HW220165  12.897   2.664  14.199
 6090SOL     OW20166   8.190   7.170  12.667
 6090SOL    HW120167   8.201   7.202  12.756
 6090SOL    HW220168   8.119   7.224  12.630
 6091SOL     OW20169  12.379  10.750   4.204
 6091SOL    HW120170  12.465  10.756   4.163
 6091SOL    HW220171  12.383  10.812   4.277
 6092SOL     OW20172  12.297   7.590   3.421
 6092SOL    HW120173  12.230   7.658   3.426
 6092SOL    HW220174  12.324   7.588   3.329
 6093SOL     OW20175  12.271   5.278   6.276
 6093SOL    HW120176  12.285   5.363   6.235
 6093SOL    HW220177  12.185   5.251   6.245
 6094SOL     OW20178   0.281   3.650   5.963
 6094SOL    HW120179   0.196   3.691   5.947
 6094SOL    HW220180   0.296   3.594   5.886
 6095SOL     OW20181   4.985   3.507   0.029
 6095SOL    HW120182   4.909   3.563   0.046
 6095SOL    HW220183   4.955   3.446  14.837
 6096SOL     OW20184   7.964   8.489   0.961
 6096SOL    HW120185   8.025   8.475   0.888
 6096SOL    HW220186   7.909   8.411   0.961
 6097SOL     OW20187  11.717  11.149  12.253
 6097SOL    HW120188  11.725  11.064  12.209
 6097SOL    HW220189  11.626  11.175  12.240
 6098SOL     OW20190   1.876   6.592   5.516
 6098SOL    HW120191   1.962   6.632   5.526
 6098SOL    HW220192   1.876   6.520   5.580
 6099SOL     OW20193   4.844   6.880   2.514
 6099SOL    HW120194   4.828   6.973   2.528
 6099SOL    HW220195   4.926   6.862   2.560
 6100SOL     OW20196   6.688   9.434   3.309
 6100SOL    HW120197   6.725   9.512   3.351
 6100SOL    HW220198   6.739   9.424   3.229
 6101SOL     OW20199   4.697   2.550  11.466
 6101SOL    HW120200   4.722   2.617  11.402
 6101SOL    HW220201   4.613   2.517  11.434
 6102SOL     OW20202   4.991   9.687   7.792
 6102SOL    HW120203   4.988   9.721   7.703
 6102SOL    HW220204   4.980   9.592   7.782
 6103SOL     OW20205  10.558   5.758  10.376
 6103SOL    HW120206  10.638   5.780  10.330
 6103SOL    HW220207  10.489   5.805  10.330
 6104SOL     OW20208   8.525   2.042   1.061
 6104SOL    HW120209   8.592   1.977   1.038
 6104SOL    HW220210   8.561   2.125   1.030
 6105SOL     OW20211  13.905   9.413   4.074
 6105SOL    HW120212  13.848   9.359   4.020
 6105SOL    HW220213  13.993   9.380   4.056
 6106SOL     OW20214   8.041   9.401   7.967
 6106SOL    HW120215   8.049   9.344   8.044
 6106SOL    HW220216   7.955   9.380   7.931
 6107SOL     OW20217  10.044   8.970   2.277
 6107SOL    HW120218   9.950   8.979   2.296
 6107SOL    HW220219  10.087   8.981   2.362
 6108SOL     OW20220   3.584   3.229   3.104
 6108SOL    HW120221   3.578   3.307   3.049
 6108SOL    HW220222   3.505   3.179   3.084
 6109SOL     OW20223  12.553   5.314  11.652
 6109SOL    HW120224  12.462   5.290  11.633
 6109SOL    HW220225  12.548   5.406  11.676
 6110SOL     OW20226   7.171   3.714   7.179
 6110SOL    HW120227   7.149   3.771   7.105
 6110SOL    HW220228   7.225   3.768   7.236
 6111SOL     OW20229   1.232  10.505  11.613
 6111SOL    HW120230   1.178  10.439  11.656
 6111SOL    HW220231   1.302  10.455  11.571
 6112SOL     OW20232  12.804   7.198  11.241
 6112SOL    HW120233  12.891   7.203  11.201
 6112SOL    HW220234  12.787   7.287  11.272
 6113SOL     OW20235   7.015   3.562  10.109
 6113SOL    HW120236   7.027   3.549  10.015
 6113SOL    HW220237   6.977   3.649  10.117
 6114SOL     OW20238   7.145   9.805   5.417
 6114SOL    HW120239   7.117   9.714   5.405
 6114SOL    HW220240   7.095   9.836   5.492
 6115SOL     OW20241   5.182   2.005   3.837
 6115SOL    HW120242   5.266   2.028   3.875
 6115SOL    HW220243   5.164   2.075   3.774
 6116SOL     OW20244   1.342   3.897   6.285
 6116SOL    HW120245   1.434   3.923   6.277
 6116SOL    HW220246   1.303   3.965   6.340
 6117SOL     OW20247  11.621   7.622  10.358
 6117SOL    HW120248  11.656   7.710  10.376
 6117SOL    HW220249  11.647   7.570  10.434
 6118SOL     OW20250  14.171   8.451   4.265
 6118SOL    HW120251  14.165   8.439   4.360
 6118SOL    HW220252  14.192   8.365   4.230
 6119SOL     OW20253   2.745   2.530   0.678
 6119SOL    HW120254   2.795   2.579   0.612
 6119SOL    HW220255   2.655   2.532   0.646
 6120SOL     OW20256   9.139  13.996   6.175
 6120SOL    HW120257   9.176  13.916   6.139
 6120SOL    HW220258   9.067  14.018   6.116
 6121SOL     OW20259   0.163   8.562  12.581
 6121SOL    HW120260   0.162   8.512  12.500
 6121SOL    HW220261   0.180   8.652  12.554
 6122SOL     OW20262   5.116   5.824   6.802
 6122SOL    HW120263   5.072   5.787   6.879
 6122SOL    HW220264   5.064   5.902   6.780
 6123SOL     OW20265   1.541  14.040  12.311
 6123SOL    HW120266   1.588  14.080  12.384
 6123SOL    HW220267   1.531  14.111  12.247
 6124SOL     OW20268   5.188   0.960   3.898
 6124SOL    HW120269   5.182   0.971   3.993
 6124SOL    HW220270   5.210   0.868   3.885
 6125SOL     OW20271   2.319  11.283   6.253
 6125SOL    HW120272   2.398  11.229   6.262
 6125SOL    HW220273   2.346  11.355   6.197
 6126SOL     OW20274  12.941   3.682  14.820
 6126SOL    HW120275  13.009   3.742  14.789
 6126SOL    HW220276  12.883   3.737  14.872
 6127SOL     OW20277   8.653  12.342   6.509
 6127SOL    HW120278   8.700  12.396   6.573
 6127SOL    HW220279   8.583  12.398   6.477
 6128SOL     OW20280   3.914   1.441   8.884
 6128SOL    HW120281   3.968   1.469   8.958
 6128SOL    HW220282   3.824   1.446   8.916
 6129SOL     OW20283   3.011   1.425   7.632
 6129SOL    HW120284   2.927   1.471   7.633
 6129SOL    HW220285   3.008   1.368   7.708
 6130SOL     OW20286  13.326   4.526   3.680
 6130SOL    HW120287  13.360   4.578   3.607
 6130SOL    HW220288  13.354   4.573   3.758
 6131SOL     OW20289   1.186   6.601  11.831
 6131SOL    HW120290   1.184   6.670  11.898
 6131SOL    HW220291   1.279   6.578  11.823
 6132SOL     OW20292   3.001  11.827  12.934
 6132SOL    HW120293   2.991  11.918  12.907
 6132SOL    HW220294   3.067  11.791  12.874
 6133SOL     OW20295   5.640   0.617  12.511
 6133SOL    HW120296   5.684   0.649  12.433
 6133SOL    HW220297   5.580   0.687  12.535
 6134SOL     OW20298  13.044  12.217   4.830
 6134SOL    HW120299  13.076  12.272   4.759
 6134SOL    HW220300  13.114  12.218   4.895
 6135SOL     OW20301   5.777   6.567   6.814
 6135SOL    HW120302   5.871   6.585   6.825
 6135SOL    HW220303   5.767   6.553   6.719
 6136SOL     OW20304   1.703   3.161   4.459
 6136SOL    HW120305   1.731   3.248   4.486
 6136SOL    HW220306   1.701   3.164   4.363
 6137SOL     OW20307   3.469  13.057   3.213
 6137SOL    HW120308   3.457  13.096   3.300
 6137SOL    HW220309   3.381  13.032   3.185
 6138SOL     OW20310  13.819   9.928   9.622
 6138SOL    HW120311  13.795   9.922   9.715
 6138SOL    HW220312  13.836  10.021   9.608
 6139SOL     OW20313  14.055  14.802   2.771
 6139SOL    HW120314  13.967  14.783   2.740
 6139SOL    HW220315  14.066   0.021   2.755
 6140SOL     OW20316  13.358   6.536   6.132
 6140SOL    HW120317  13.270   6.570   6.118
 6140SOL    HW220318  13.370   6.470   6.063
 6141SOL     OW20319   6.797   9.186  13.252
 6141SOL    HW120320   6.840   9.113  13.295
 6141SOL    HW220321   6.843   9.196  13.169
 6142SOL     OW20322   0.813   0.814   5.324
 6142SOL    HW120323   0.845   0.789   5.237
 6142SOL    HW220324   0.827   0.736   5.377
 6143SOL     OW20325   5.155   4.499  10.498
 6143SOL    HW120326   5.243   4.516  10.531
 6143SOL    HW220327   5.166   4.480  10.405
 6144SOL     OW20328   2.826   4.162   9.906
 6144SOL    HW120329   2.758   4.213   9.863
 6144SOL    HW220330   2.782   4.084   9.938
 6145SOL     OW20331   8.619  12.092   6.948
 6145SOL    HW120332   8.580  12.107   7.034
 6145SOL    HW220333   8.589  12.005   6.923
 6146SOL     OW20334   4.366  14.292  12.149
 6146SOL    HW120335   4.436  14.240  12.190
 6146SOL    HW220336   4.322  14.230  12.091
 6147SOL     OW20337  10.355   7.361   0.726
 6147SOL    HW120338  10.444   7.362   0.760
 6147SOL    HW220339  10.324   7.451   0.737
 6148SOL     OW20340   1.489   1.245  12.904
 6148SOL    HW120341   1.431   1.223  12.977
 6148SOL    HW220342   1.560   1.296  12.943
 6149SOL     OW20343   6.858   1.328  13.732
 6149SOL    HW120344   6.916   1.357  13.801
 6149SOL    HW220345   6.915   1.284  13.669
 6150SOL     OW20346  10.755   3.615  10.965
 6150SOL    HW120347  10.758   3.570  11.049
 6150SOL    HW220348  10.830   3.675  10.967
 6151SOL     OW20349   8.325   1.353  14.447
 6151SOL    HW120350   8.353   1.274  14.493
 6151SOL    HW220351   8.358   1.425  14.501
 6152SOL     OW20352  14.743   5.610   2.804
 6152SOL    HW120353  14.703   5.561   2.733
 6152SOL    HW220354  14.779   5.689   2.763
 6153SOL     OW20355  14.586   2.104   1.168
 6153SOL    HW120356  14.540   2.153   1.237
 6153SOL    HW220357  14.664   2.069   1.212
 6154SOL     OW20358  13.597  10.523   8.178
 6154SOL    HW120359  13.563  10.518   8.088
 6154SOL    HW220360  13.595  10.616   8.199
 6155SOL     OW20361   5.946   1.010   3.793
 6155SOL    HW120362   5.908   0.930   3.756
 6155SOL    HW220363   5.938   1.075   3.724
 6156SOL     OW20364   8.228  12.328   9.854
 6156SOL    HW120365   8.178  12.402   9.888
 6156SOL    HW220366   8.222  12.336   9.759
 6157SOL     OW20367  12.246   9.741   2.824
 6157SOL    HW120368  12.241   9.837   2.823
 6157SOL    HW220369  12.327   9.722   2.870
 6158SOL     OW20370   0.863   5.472   6.761
 6158SOL    HW120371   0.815   5.547   6.797
 6158SOL    HW220372   0.832   5.465   6.671
 6159SOL     OW20373  12.331   6.789  12.912
 6159SOL    HW120374  12.298   6.814  12.825
 6159SOL    HW220375  12.253   6.762  12.960
 6160SOL     OW20376   4.866   8.960   5.089
 6160SOL    HW120377   4.922   9.038   5.082
 6160SOL    HW220378   4.894   8.904   5.017
 6161SOL     OW20379  13.309  13.973   7.599
 6161SOL    HW120380  13.316  13.984   7.504
 6161SOL    HW220381  13.216  13.959   7.615
 6162SOL     OW20382  11.318   4.044   9.335
 6162SOL    HW120383  11.308   3.960   9.291
 6162SOL    HW220384  11.283   4.029   9.424
 6163SOL     OW20385   6.566   7.551  12.894
 6163SOL    HW120386   6.604   7.588  12.815
 6163SOL    HW220387   6.481   7.518  12.867
 6164SOL     OW20388  10.498   8.705   2.730
 6164SOL    HW120389  10.588   8.673   2.723
 6164SOL    HW220390  10.482   8.713   2.824
 6165SOL     OW20391   7.120  13.272   6.761
 6165SOL    HW120392   7.067  13.264   6.841
 6165SOL    HW220393   7.109  13.363   6.734
 6166SOL     OW20394   4.632   0.823   5.838
 6166SOL    HW120395   4.669   0.828   5.925
 6166SOL    HW220396   4.675   0.893   5.789
 6167SOL     OW20397   5.924   4.375   6.231
 6167SOL    HW120398   5.966   4.345   6.150
 6167SOL    HW220399   5.988   4.435   6.270
 6168SOL     OW20400   0.205  13.730   9.059
 6168SOL    HW120401   0.287  13.735   9.108
 6168SOL    HW220402   0.150  13.799   9.097
 6169SOL     OW20403   2.453   3.903  14.768
 6169SOL    HW120404   2.493   3.946  14.692
 6169SOL    HW220405   2.376   3.956  14.788
 6170SOL     OW20406   2.265   6.271   0.615
 6170SOL    HW120407   2.356   6.244   0.599
 6170SOL    HW220408   2.272   6.336   0.684
 6171SOL     OW20409   1.496  10.810   5.381
 6171SOL    HW120410   1.441  10.846   5.312
 6171SOL    HW220411   1.582  10.851   5.366
 6172SOL     OW20412   7.582   5.382   1.067
 6172SOL    HW120413   7.638   5.321   1.114
 6172SOL    HW220414   7.553   5.444   1.133
 6173SOL     OW20415   7.592   9.894  14.566
 6173SOL    HW120416   7.559   9.922  14.652
 6173SOL    HW220417   7.540   9.942  14.503
 6174SOL     OW20418  12.989  14.592   7.733
 6174SOL    HW120419  12.949  14.627   7.813
 6174SOL    HW220420  13.083  14.588   7.752
 6175SOL     OW20421  14.483   9.330  14.210
 6175SOL    HW120422  14.493   9.400  14.274
 6175SOL    HW220423  14.556   9.342  14.149
 6176SOL     OW20424   6.723  11.865  11.972
 6176SOL    HW120425   6.736  11.894  11.881
 6176SOL    HW220426   6.811  11.843  12.002
 6177SOL     OW20427   8.679   3.372  11.330
 6177SOL    HW120428   8.591   3.357  11.364
 6177SOL    HW220429   8.738   3.339  11.398
 6178SOL     OW20430  10.972  12.180   4.922
 6178SOL    HW120431  11.024  12.260   4.923
 6178SOL    HW220432  11.008  12.129   4.849
 6179SOL     OW20433   6.575   8.037  10.404
 6179SOL    HW120434   6.600   8.107  10.344
 6179SOL    HW220435   6.524   7.977  10.350
 6180SOL     OW20436   2.592   8.974  13.984
 6180SOL    HW120437   2.658   8.973  14.054
 6180SOL    HW220438   2.606   8.892  13.938
 6181SOL     OW20439   0.799   4.331  13.128
 6181SOL    HW120440   0.866   4.359  13.066
 6181SOL    HW220441   0.718   4.373  13.098
 6182SOL     OW20442  14.502   4.517  12.990
 6182SOL    HW120443  14.503   4.602  13.035
 6182SOL    HW220444  14.487   4.454  13.060
 6183SOL     OW20445   4.033  12.823   0.121
 6183SOL    HW120446   4.102  12.779   0.070
 6183SOL    HW220447   3.952  12.781   0.093
 6184SOL     OW20448   0.955   3.134   7.553
 6184SOL    HW120449   0.897   3.103   7.483
 6184SOL    HW220450   0.936   3.075   7.626
 6185SOL     OW20451  12.767  12.525   0.478
 6185SOL    HW120452  12.737  12.593   0.538
 6185SOL    HW220453  12.858  12.549   0.458
 6186SOL     OW20454  11.966   2.391  13.082
 6186SOL    HW120455  11.985   2.306  13.044
 6186SOL    HW220456  12.025   2.398  13.157
 6187SOL     OW20457  14.590  10.965  12.635
 6187SOL    HW120458  14.622  10.943  12.548
 6187SOL    HW220459  14.665  11.005  12.679
 6188SOL     OW20460   5.013   5.155   4.661
 6188SOL    HW120461   5.069   5.221   4.621
 6188SOL    HW220462   4.928   5.199   4.672
 6189SOL     OW20463  10.456   7.171  10.779
 6189SOL    HW120464  10.514   7.179  10.703
 6189SOL    HW220465  10.514   7.150  10.852
 6190SOL     OW20466   1.699  11.346  10.377
 6190SOL    HW120467   1.692  11.256  10.409
 6190SOL    HW220468   1.679  11.400  10.453
 6191SOL     OW20469   7.257  10.690   4.072
 6191SOL    HW120470   7.228  10.755   4.136
 6191SOL    HW220471   7.341  10.658   4.106
 6192SOL     OW20472   7.512   6.148   1.569
 6192SOL    HW120473   7.532   6.238   1.592
 6192SOL    HW220474   7.520   6.145   1.474
 6193SOL     OW20475   1.221   5.425   2.001
 6193SOL    HW120476   1.131   5.398   1.986
 6193SOL    HW220477   1.227   5.438   2.096
 6194SOL     OW20478  13.325   6.570  10.266
 6194SOL    HW120479  13.284   6.507  10.206
 6194SOL    HW220480  13.256   6.635  10.282
 6195SOL     OW20481   8.377  14.627  11.092
 6195SOL    HW120482   8.393  14.651  11.001
 6195SOL    HW220483   8.463  14.624  11.132
 6196SOL     OW20484   2.871   8.294   4.693
 6196SOL    HW120485   2.897   8.213   4.736
 6196SOL    HW220486   2.951   8.347   4.692
 6197SOL     OW20487   8.441  13.242   2.535
 6197SOL    HW120488   8.480  13.155   2.526
 6197SOL    HW220489   8.515  13.301   2.545
 6198SOL     OW20490   0.120   2.388  10.763
 6198SOL    HW120491   0.153   2.411  10.676
 6198SOL    HW220492   0.102   2.473  10.804
 6199SOL     OW20493  12.354  14.216   8.790
 6199SOL    HW120494  12.412  14.174   8.727
 6199SOL    HW220495  12.376  14.174   8.874
 6200SOL     OW20496   2.615   8.780   2.606
 6200SOL    HW120497   2.618   8.873   2.627
 6200SOL    HW220498   2.555   8.743   2.671
 6201SOL     OW20499   3.651   9.459   6.817
 6201SOL    HW120500   3.560   9.432   6.824
 6201SOL    HW220501   3.648   9.546   6.778
 6202SOL     OW20502   5.863   4.920   8.124
 6202SOL    HW120503   5.953   4.914   8.092
 6202SOL    HW220504   5.869   4.898   8.217
 6203SOL     OW20505  11.170   5.125   6.047
 6203SOL    HW120506  11.170   5.075   6.129
 6203SOL    HW220507  11.219   5.070   5.986
 6204SOL     OW20508   7.818   8.578   8.901
 6204SOL    HW120509   7.762   8.628   8.959
 6204SOL    HW220510   7.840   8.639   8.831
 6205SOL     OW20511   7.845  14.518   4.733
 6205SOL    HW120512   7.750  14.529   4.734
 6205SOL    HW220513   7.859  14.429   4.765
 6206SOL     OW20514  14.163   9.411   6.058
 6206SOL    HW120515  14.218   9.374   6.127
 6206SOL    HW220516  14.074   9.383   6.080
 6207SOL     OW20517  14.293   2.961   0.690
 6207SOL    HW120518  14.252   2.895   0.634
 6207SOL    HW220519  14.341   3.017   0.629
 6208SOL     OW20520   8.502   4.354  11.235
 6208SOL    HW120521   8.422   4.406  11.238
 6208SOL    HW220522   8.557   4.398  11.170
 6209SOL     OW20523  11.753   4.237   2.167
 6209SOL    HW120524  11.807   4.189   2.230
 6209SOL    HW220525  11.778   4.202   2.082
 6210SOL     OW20526   8.791   1.597   2.372
 6210SOL    HW120527   8.846   1.669   2.404
 6210SOL    HW220528   8.831   1.572   2.288
 6211SOL     OW20529   7.566   8.146  12.048
 6211SOL    HW120530   7.590   8.227  12.094
 6211SOL    HW220531   7.484   8.167  12.005
 6212SOL     OW20532  13.140   8.890   1.325
 6212SOL    HW120533  13.199   8.896   1.250
 6212SOL    HW220534  13.106   8.979   1.335
 6213SOL     OW20535   0.991   2.856  10.898
 6213SOL    HW120536   1.065   2.839  10.840
 6213SOL    HW220537   1.012   2.940  10.939
 6214SOL     OW20538   9.786   9.954   1.665
 6214SOL    HW120539   9.743   9.945   1.579
 6214SOL    HW220540   9.747   9.884   1.718
 6215SOL     OW20541   6.140  14.274  10.456
 6215SOL    HW120542   6.129  14.179  10.456
 6215SOL    HW220543   6.120  14.300  10.545
 6216SOL     OW20544   2.560   5.713   8.009
 6216SOL    HW120545   2.500   5.700   7.935
 6216SOL    HW220546   2.592   5.625   8.029
 6217SOL     OW20547  10.749  12.312   4.102
 6217SOL    HW120548  10.778  12.334   4.191
 6217SOL    HW220549  10.742  12.217   4.103
 6218SOL     OW20550   5.011   2.971  13.276
 6218SOL    HW120551   5.086   3.003  13.226
 6218SOL    HW220552   4.975   2.900  13.224
 6219SOL     OW20553   0.598  13.826   5.299
 6219SOL    HW120554   0.680  13.871   5.275
 6219SOL    HW220555   0.567  13.872   5.377
 6220SOL     OW20556   1.480   4.766   5.052
 6220SOL    HW120557   1.569   4.766   5.088
 6220SOL    HW220558   1.493   4.786   4.959
 6221SOL     OW20559  10.279   4.120   5.124
 6221SOL    HW120560  10.259   4.080   5.208
 6221SOL    HW220561  10.372   4.103   5.111
 6222SOL     OW20562  10.705   4.295  13.388
 6222SOL    HW120563  10.709   4.259  13.476
 6222SOL    HW220564  10.612   4.292  13.365
 6223SOL     OW20565   5.932  10.473   6.423
 6223SOL    HW120566   5.956  10.542   6.361
 6223SOL    HW220567   5.933  10.516   6.509
 6224SOL     OW20568   9.419   9.285   7.010
 6224SOL    HW120569   9.434   9.264   6.917
 6224SOL    HW220570   9.436   9.379   7.016
 6225SOL     OW20571   7.639   8.661   1.208
 6225SOL    HW120572   7.634   8.599   1.281
 6225SOL    HW220573   7.703   8.726   1.236
 6226SOL     OW20574   7.122   8.783   3.748
 6226SOL    HW120575   7.186   8.729   3.795
 6226SOL    HW220576   7.071   8.721   3.696
 6227SOL     OW20577   4.526   4.429   6.173
 6227SOL    HW120578   4.486   4.484   6.105
 6227SOL    HW220579   4.541   4.488   6.247
 6228SOL     OW20580  11.194  12.869   9.368
 6228SOL    HW120581  11.214  12.839   9.456
 6228SOL    HW220582  11.132  12.804   9.334
 6229SOL     OW20583  12.860   6.962  10.480
 6229SOL    HW120584  12.771   6.996  10.473
 6229SOL    HW220585  12.895   6.964  10.391
 6230SOL     OW20586   0.093   4.997   4.011
 6230SOL    HW120587   0.151   4.929   3.976
 6230SOL    HW220588   0.060   5.042   3.933
 6231SOL     OW20589   7.593   6.250  12.835
 6231SOL    HW120590   7.604   6.164  12.793
 6231SOL    HW220591   7.581   6.311  12.762
 6232SOL     OW20592  11.466   5.438   5.296
 6232SOL    HW120593  11.559   5.448   5.277
 6232SOL    HW220594  11.461   5.436   5.392
 6233SOL     OW20595  10.438   5.495   0.595
 6233SOL    HW120596  10.384   5.568   0.625
 6233SOL    HW220597  10.527   5.531   0.595
 6234SOL     OW20598   4.511   0.877  12.668
 6234SOL    HW120599   4.568   0.852  12.740
 6234SOL    HW220600   4.559   0.853  12.589
 6235SOL     OW20601  13.440   0.020   6.364
 6235SOL    HW120602  13.452  14.812   6.319
 6235SOL    HW220603  13.513   0.026   6.426
 6236SOL     OW20604   8.657   9.559  11.334
 6236SOL    HW120605   8.572   9.536  11.371
 6236SOL    HW220606   8.664   9.654  11.347
 6237SOL     OW20607   8.441   6.883   3.644
 6237SOL    HW120608   8.413   6.974   3.647
 6237SOL    HW220609   8.419   6.849   3.731
 6238SOL     OW20610   0.177   4.475   4.218
 6238SOL    HW120611   0.172   4.571   4.214
 6238SOL    HW220612   0.161   4.454   4.310
 6239SOL     OW20613  14.188   2.373  12.676
 6239SOL    HW120614  14.226   2.406  12.758
 6239SOL    HW220615  14.095   2.394  12.683
 6240SOL     OW20616   1.530   1.642   7.675
 6240SOL    HW120617   1.486   1.684   7.601
 6240SOL    HW220618   1.459   1.601   7.725
 6241SOL     OW20619  11.476   9.600   5.474
 6241SOL    HW120620  11.536   9.553   5.532
 6241SOL    HW220621  11.527   9.674   5.442
 6242SOL     OW20622   1.782  10.478   3.219
 6242SOL    HW120623   1.744  10.392   3.238
 6242SOL    HW220624   1.826  10.504   3.300
 6243SOL     OW20625  13.883  14.082   1.133
 6243SOL    HW120626  13.839  14.050   1.211
 6243SOL    HW220627  13.896  14.004   1.079
 6244SOL     OW20628  14.156   7.554   5.281
 6244SOL    HW120629  14.232   7.504   5.310
 6244SOL    HW220630  14.082   7.496   5.298
 6245SOL     OW20631   9.338   8.827   1.293
 6245SOL    HW120632   9.293   8.836   1.377
 6245SOL    HW220633   9.271   8.798   1.232
 6246SOL     OW20634   1.818   0.216   4.086
 6246SOL    HW120635   1.843   0.283   4.149
 6246SOL    HW220636   1.901   0.181   4.054
 6247SOL     OW20637   6.416   5.608  11.344
 6247SOL    HW120638   6.335   5.577  11.385
 6247SOL    HW220639   6.476   5.534  11.351
 6248SOL     OW20640   0.676   9.396  14.224
 6248SOL    HW120641   0.657   9.478  14.268
 6248SOL    HW220642   0.604   9.338  14.247
 6249SOL     OW20643  11.295   9.415   5.032
 6249SOL    HW120644  11.203   9.410   5.008
 6249SOL    HW220645  11.295   9.441   5.125
 6250SOL     OW20646  12.716  13.902   9.852
 6250SOL    HW120647  12.737  13.984   9.898
 6250SOL    HW220648  12.801  13.865   9.829
 6251SOL     OW20649   2.327   1.067   4.363
 6251SOL    HW120650   2.408   1.052   4.315
 6251SOL    HW220651   2.280   0.984   4.357
 6252SOL     OW20652   6.791   6.046  14.339
 6252SOL    HW120653   6.705   6.056  14.381
 6252SOL    HW220654   6.840   5.990  14.399
 6253SOL     OW20655  11.916   0.444  13.837
 6253SOL    HW120656  11.944   0.532  13.864
 6253SOL    HW220657  11.849   0.460  13.770
 6254SOL     OW20658   2.770   9.390   0.377
 6254SOL    HW120659   2.842   9.383   0.314
 6254SOL    HW220660   2.802   9.345   0.455
 6255SOL     OW20661  10.407   6.339   0.234
 6255SOL    HW120662  10.502   6.346   0.235
 6255SOL    HW220663  10.376   6.424   0.267
 6256SOL     OW20664   6.712   3.157   0.659
 6256SOL    HW120665   6.623   3.125   0.675
 6256SOL    HW220666   6.706   3.204   0.576
 6257SOL     OW20667   6.105   5.455   6.478
 6257SOL    HW120668   6.041   5.388   6.453
 6257SOL    HW220669   6.157   5.468   6.399
 6258SOL     OW20670   2.223   2.335   4.200
 6258SOL    HW120671   2.147   2.302   4.153
 6258SOL    HW220672   2.191   2.351   4.289
 6259SOL     OW20673   3.287   6.145   2.707
 6259SOL    HW120674   3.308   6.125   2.798
 6259SOL    HW220675   3.367   6.126   2.659
 6260SOL     OW20676   2.975   2.187  10.504
 6260SOL    HW120677   2.896   2.224  10.466
 6260SOL    HW220678   3.035   2.179  10.430
 6261SOL     OW20679  10.485  11.564   3.186
 6261SOL    HW120680  10.474  11.537   3.095
 6261SOL    HW220681  10.436  11.646   3.193
 6262SOL     OW20682  12.204   6.407  10.517
 6262SOL    HW120683  12.125   6.444  10.478
 6262SOL    HW220684  12.253   6.483  10.548
 6263SOL     OW20685   0.724  14.264   0.273
 6263SOL    HW120686   0.662  14.226   0.336
 6263SOL    HW220687   0.809  14.231   0.300
 6264SOL     OW20688  13.915  12.926  10.302
 6264SOL    HW120689  13.870  13.006  10.329
 6264SOL    HW220690  13.908  12.868  10.378
 6265SOL     OW20691   2.455  10.258   8.506
 6265SOL    HW120692   2.363  10.231   8.514
 6265SOL    HW220693   2.505  10.179   8.529
 6266SOL     OW20694   5.104   1.725  14.431
 6266SOL    HW120695   5.068   1.796  14.484
 6266SOL    HW220696   5.078   1.747  14.341
 6267SOL     OW20697   6.946   9.866  14.210
 6267SOL    HW120698   7.031   9.892  14.245
 6267SOL    HW220699   6.957   9.866  14.115
 6268SOL     OW20700   6.216  11.933   0.470
 6268SOL    HW120701   6.128  11.898   0.487
 6268SOL    HW220702   6.260  11.928   0.555
 6269SOL     OW20703   9.652  12.785  14.323
 6269SOL    HW120704   9.661  12.823  14.235
 6269SOL    HW220705   9.718  12.830  14.375
 6270SOL     OW20706   0.986  14.253   0.334
 6270SOL    HW120707   1.017  14.312   0.265
 6270SOL    HW220708   0.993  14.166   0.296
 6271SOL     OW20709  10.954  12.352   8.827
 6271SOL    HW120710  10.938  12.446   8.817
 6271SOL    HW220711  10.962  12.319   8.737
 6272SOL     OW20712   8.764  11.698   8.239
 6272SOL    HW120713   8.823  11.641   8.190
 6272SOL    HW220714   8.727  11.641   8.307
 6273SOL     OW20715  13.514  11.383  11.191
 6273SOL    HW120716  13.435  11.434  11.173
 6273SOL    HW220717  13.550  11.363  11.105
 6274SOL     OW20718  14.579   0.937   9.547
 6274SOL    HW120719  14.609   1.028   9.551
 6274SOL    HW220720  14.660   0.886   9.538
 6275SOL     OW20721  10.351  14.411   0.173
 6275SOL    HW120722  10.258  14.390   0.182
 6275SOL    HW220723  10.377  14.439   0.261
 6276SOL     OW20724  12.095  12.295   0.854
 6276SOL    HW120725  12.126  12.220   0.804
 6276SOL    HW220726  12.026  12.260   0.910
 6277SOL     OW20727   7.432   3.732  13.624
 6277SOL    HW120728   7.470   3.671  13.687
 6277SOL    HW220729   7.504   3.791  13.601
 6278SOL     OW20730   1.891   4.442  10.283
 6278SOL    HW120731   1.870   4.424  10.191
 6278SOL    HW220732   1.969   4.498  10.279
 6279SOL     OW20733  10.103   7.800   0.024
 6279SOL    HW120734  10.024   7.827  14.853
 6279SOL    HW220735  10.072   7.759   0.104
 6280SOL     OW20736   2.039   4.482   0.077
 6280SOL    HW120737   1.959   4.434   0.100
 6280SOL    HW220738   2.068   4.521   0.160
 6281SOL     OW20739   4.212   4.638   2.617
 6281SOL    HW120740   4.263   4.563   2.586
 6281SOL    HW220741   4.265   4.714   2.594
 6282SOL     OW20742   2.854  13.733   9.364
 6282SOL    HW120743   2.799  13.699   9.293
 6282SOL    HW220744   2.799  13.798   9.407
 6283SOL     OW20745   0.905   0.336  11.704
 6283SOL    HW120746   0.883   0.394  11.631
 6283SOL    HW220747   0.841   0.359  11.772
 6284SOL     OW20748  14.208   2.595   6.782
 6284SOL    HW120749  14.221   2.592   6.687
 6284SOL    HW220750  14.264   2.666   6.812
 6285SOL     OW20751   6.284  13.226   3.052
 6285SOL    HW120752   6.277  13.321   3.047
 6285SOL    HW220753   6.302  13.199   2.962
 6286SOL     OW20754  14.591   8.487   2.387
 6286SOL    HW120755  14.624   8.400   2.365
 6286SOL    HW220756  14.657   8.523   2.447
 6287SOL     OW20757   7.930   2.866  14.553
 6287SOL    HW120758   7.876   2.791  14.580
 6287SOL    HW220759   8.018   2.830  14.542
 6288SOL     OW20760  12.220   7.029   3.755
 6288SOL    HW120761  12.212   6.969   3.681
 6288SOL    HW220762  12.307   7.012   3.791
 6289SOL     OW20763   6.740   0.261  13.941
 6289SOL    HW120764   6.681   0.309  13.997
 6289SOL    HW220765   6.726   0.297  13.854
 6290SOL     OW20766  10.282  12.954  10.667
 6290SOL    HW120767  10.220  13.006  10.717
 6290SOL    HW220768  10.281  12.992  10.579
 6291SOL     OW20769   5.515  13.071  13.708
 6291SOL    HW120770   5.424  13.098  13.692
 6291SOL    HW220771   5.509  13.006  13.777
 6292SOL     OW20772  13.997  10.685  10.734
 6292SOL    HW120773  14.023  10.760  10.680
 6292SOL    HW220774  14.076  10.662  10.782
 6293SOL     OW20775   8.049   7.477  10.871
 6293SOL    HW120776   8.059   7.471  10.776
 6293SOL    HW220777   7.965   7.522  10.884
 6294SOL     OW20778  11.990  12.077   8.431
 6294SOL    HW120779  12.024  12.016   8.365
 6294SOL    HW220780  11.932  12.022   8.486
 6295SOL     OW20781  12.122   0.591  12.149
 6295SOL    HW120782  12.071   0.672  12.157
 6295SOL    HW220783  12.191   0.600  12.215
 6296SOL     OW20784   5.417   5.090  14.031
 6296SOL    HW120785   5.497   5.116  13.986
 6296SOL    HW220786   5.441   5.087  14.124
 6297SOL     OW20787   4.094  14.674   8.204
 6297SOL    HW120788   4.129  14.711   8.285
 6297SOL    HW220789   4.168  14.677   8.143
 6298SOL     OW20790  14.824   0.611  10.162
 6298SOL    HW120791  14.744   0.608  10.108
 6298SOL    HW220792  14.798   0.575  10.246
 6299SOL     OW20793   5.151   8.709  11.921
 6299SOL    HW120794   5.162   8.619  11.951
 6299SOL    HW220795   5.175   8.707  11.828
 6300SOL     OW20796   2.449  13.102  12.396
 6300SOL    HW120797   2.361  13.064  12.395
 6300SOL    HW220798   2.439  13.184  12.348
 6301SOL     OW20799   0.138   6.403  10.081
 6301SOL    HW120800   0.193   6.327  10.066
 6301SOL    HW220801   0.056   6.367  10.114
 6302SOL     OW20802   5.704   5.974   9.397
 6302SOL    HW120803   5.711   5.882   9.371
 6302SOL    HW220804   5.610   5.990   9.406
 6303SOL     OW20805  12.743   0.698   6.902
 6303SOL    HW120806  12.679   0.685   6.973
 6303SOL    HW220807  12.798   0.770   6.933
 6304SOL     OW20808   0.746   2.918   2.248
 6304SOL    HW120809   0.715   2.859   2.180
 6304SOL    HW220810   0.765   2.861   2.323
 6305SOL     OW20811   5.129  11.739   0.521
 6305SOL    HW120812   5.183  11.782   0.455
 6305SOL    HW220813   5.040  11.770   0.502
 6306SOL     OW20814  10.455   3.095   4.966
 6306SOL    HW120815  10.539   3.126   4.933
 6306SOL    HW220816  10.446   3.135   5.052
 6307SOL     OW20817  12.244  11.540  14.693
 6307SOL    HW120818  12.312  11.528  14.627
 6307SOL    HW220819  12.290  11.575  14.769
 6308SOL     OW20820  13.437  10.299  11.781
 6308SOL    HW120821  13.357  10.288  11.832
 6308SOL    HW220822  13.478  10.212  11.781
 6309SOL     OW20823  10.593   5.776   4.625
 6309SOL    HW120824  10.670   5.801   4.677
 6309SOL    HW220825  10.563   5.695   4.666
 6310SOL     OW20826   4.972   0.364   3.626
 6310SOL    HW120827   5.062   0.393   3.638
 6310SOL    HW220828   4.976   0.304   3.552
 6311SOL     OW20829   2.826   4.269   7.177
 6311SOL    HW120830   2.734   4.258   7.201
 6311SOL    HW220831   2.845   4.361   7.195
 6312SOL     OW20832   8.040  11.419   6.375
 6312SOL    HW120833   8.083  11.495   6.415
 6312SOL    HW220834   8.052  11.348   6.438
 6313SOL     OW20835  11.017   7.404  13.427
 6313SOL    HW120836  10.935   7.383  13.471
 6313SOL    HW220837  11.083   7.402  13.497
 6314SOL     OW20838   8.409   6.655  11.586
 6314SOL    HW120839   8.492   6.654  11.537
 6314SOL    HW220840   8.342   6.666  11.519
 6315SOL     OW20841  12.811  13.738   7.779
 6315SOL    HW120842  12.864  13.744   7.859
 6315SOL    HW220843  12.722  13.755   7.808
 6316SOL     OW20844  10.002   0.866   1.535
 6316SOL    HW120845  10.055   0.892   1.460
 6316SOL    HW220846   9.920   0.915   1.524
 6317SOL     OW20847  13.079   7.292   7.580
 6317SOL    HW120848  13.050   7.340   7.658
 6317SOL    HW220849  13.127   7.217   7.615
 6318SOL     OW20850   6.017   1.709   3.318
 6318SOL    HW120851   6.046   1.654   3.246
 6318SOL    HW220852   6.034   1.657   3.397
 6319SOL     OW20853  11.201   1.059   2.281
 6319SOL    HW120854  11.241   0.976   2.306
 6319SOL    HW220855  11.265   1.100   2.223
 6320SOL     OW20856   9.028   6.976   0.281
 6320SOL    HW120857   8.990   6.892   0.307
 6320SOL    HW220858   9.080   6.957   0.203
 6321SOL     OW20859   8.931  13.834   4.778
 6321SOL    HW120860   9.012  13.820   4.729
 6321SOL    HW220861   8.924  13.757   4.835
 6322SOL     OW20862  10.400   8.524   9.852
 6322SOL    HW120863  10.373   8.434   9.832
 6322SOL    HW220864  10.355   8.577   9.787
 6323SOL     OW20865   1.860   6.789  14.757
 6323SOL    HW120866   1.839   6.731  14.684
 6323SOL    HW220867   1.801   6.760  14.827
 6324SOL     OW20868   6.637  12.815   4.287
 6324SOL    HW120869   6.619  12.724   4.264
 6324SOL    HW220870   6.649  12.860   4.203
 6325SOL     OW20871   7.483   0.822  13.716
 6325SOL    HW120872   7.480   0.906  13.761
 6325SOL    HW220873   7.576   0.810  13.694
 6326SOL     OW20874  12.436   6.550   5.150
 6326SOL    HW120875  12.382   6.541   5.072
 6326SOL    HW220876  12.382   6.515   5.221
 6327SOL     OW20877   3.741   1.116   0.392
 6327SOL    HW120878   3.685   1.175   0.342
 6327SOL    HW220879   3.824   1.115   0.345
 6328SOL     OW20880   8.753   9.331  14.637
 6328SOL    HW120881   8.664   9.326  14.603
 6328SOL    HW220882   8.743   9.355  14.729
 6329SOL     OW20883  14.197   3.057  11.702
 6329SOL    HW120884  14.198   3.098  11.616
 6329SOL    HW220885  14.289   3.054  11.728
 6330SOL     OW20886   8.243  11.705   1.798
 6330SOL    HW120887   8.240  11.765   1.873
 6330SOL    HW220888   8.225  11.619   1.836
 6331SOL     OW20889   0.621   1.981  10.854
 6331SOL    HW120890   0.595   1.968  10.763
 6331SOL    HW220891   0.645   2.074  10.859
 6332SOL     OW20892   3.716   5.087   0.771
 6332SOL    HW120893   3.718   5.140   0.691
 6332SOL    HW220894   3.705   4.997   0.740
 6333SOL     OW20895  11.160   3.306   5.006
 6333SOL    HW120896  11.205   3.345   5.081
 6333SOL    HW220897  11.160   3.212   5.025
 6334SOL     OW20898   8.628   1.080   7.859
 6334SOL    HW120899   8.659   1.015   7.922
 6334SOL    HW220900   8.707   1.129   7.835
 6335SOL     OW20901   0.761  13.345   4.218
 6335SOL    HW120902   0.766  13.396   4.137
 6335SOL    HW220903   0.687  13.383   4.266
 6336SOL     OW20904   6.299  13.403  13.866
 6336SOL    HW120905   6.204  13.398  13.876
 6336SOL    HW220906   6.325  13.477  13.921
 6337SOL     OW20907   0.270   2.644  12.017
 6337SOL    HW120908   0.289   2.607  12.103
 6337SOL    HW220909   0.177   2.628  12.004
 6338SOL     OW20910   8.763   7.983   6.651
 6338SOL    HW120911   8.729   8.064   6.614
 6338SOL    HW220912   8.829   7.954   6.588
 6339SOL     OW20913  10.308  14.098   3.989
 6339SOL    HW120914  10.252  14.022   4.006
 6339SOL    HW220915  10.246  14.168   3.967
 6340SOL     OW20916   7.258  11.510   7.569
 6340SOL    HW120917   7.179  11.514   7.623
 6340SOL    HW220918   7.277  11.601   7.547
 6341SOL     OW20919   2.876   3.040  12.197
 6341SOL    HW120920   2.921   3.008  12.275
 6341SOL    HW220921   2.927   3.005  12.124
 6342SOL     OW20922   7.458   5.002   6.894
 6342SOL    HW120923   7.492   5.032   6.978
 6342SOL    HW220924   7.366   4.982   6.911
 6343SOL     OW20925   8.788  11.956   8.809
 6343SOL    HW120926   8.712  12.006   8.840
 6343SOL    HW220927   8.863  12.005   8.840
 6344SOL     OW20928   1.498   6.654   7.437
 6344SOL    HW120929   1.587   6.683   7.415
 6344SOL    HW220930   1.454   6.734   7.467
 6345SOL     OW20931  13.063   6.705   8.285
 6345SOL    HW120932  13.077   6.625   8.236
 6345SOL    HW220933  13.150   6.745   8.291
 6346SOL     OW20934   1.291   5.948   5.461
 6346SOL    HW120935   1.311   5.912   5.548
 6346SOL    HW220936   1.293   6.043   5.474
 6347SOL     OW20937   1.135   1.281  11.178
 6347SOL    HW120938   1.222   1.317  11.165
 6347SOL    HW220939   1.146   1.214  11.245
 6348SOL     OW20940   1.215  11.201   1.716
 6348SOL    HW120941   1.209  11.133   1.783
 6348SOL    HW220942   1.308  11.205   1.694
 6349SOL     OW20943   3.926   8.239  12.022
 6349SOL    HW120944   4.011   8.250  12.065
 6349SOL    HW220945   3.931   8.293  11.944
 6350SOL     OW20946  10.850   4.640   4.494
 6350SOL    HW120947  10.858   4.578   4.422
 6350SOL    HW220948  10.940   4.668   4.512
 6351SOL     OW20949   0.164  10.919   0.210
 6351SOL    HW120950   0.176  11.010   0.237
 6351SOL    HW220951   0.146  10.923   0.116
 6352SOL     OW20952  10.521   8.098   5.195
 6352SOL    HW120953  10.580   8.127   5.264
 6352SOL    HW220954  10.538   8.004   5.186
 6353SOL     OW20955   6.672   3.736   4.820
 6353SOL    HW120956   6.703   3.826   4.830
 6353SOL    HW220957   6.594   3.732   4.876
 6354SOL     OW20958  12.768   9.771   2.042
 6354SOL    HW120959  12.804   9.817   1.966
 6354SOL    HW220960  12.832   9.703   2.062
 6355SOL     OW20961  10.519  13.953  13.142
 6355SOL    HW120962  10.423  13.953  13.141
 6355SOL    HW220963  10.542  14.046  13.153
 6356SOL     OW20964   6.576   3.217  13.502
 6356SOL    HW120965   6.516   3.281  13.463
 6356SOL    HW220966   6.605   3.258  13.584
 6357SOL     OW20967  11.796   7.761   9.037
 6357SOL    HW120968  11.871   7.702   9.031
 6357SOL    HW220969  11.804   7.819   8.962
 6358SOL     OW20970   5.013  12.432  14.061
 6358SOL    HW120971   5.013  12.340  14.085
 6358SOL    HW220972   4.948  12.439  13.991
 6359SOL     OW20973   5.281   3.717  10.547
 6359SOL    HW120974   5.296   3.786  10.483
 6359SOL    HW220975   5.197   3.738  10.587
 6360SOL     OW20976  13.286   0.956  10.119
 6360SOL    HW120977  13.256   0.894  10.052
 6360SOL    HW220978  13.224   1.029  10.115
 6361SOL     OW20979   0.673  11.137  13.908
 6361SOL    HW120980   0.757  11.184  13.907
 6361SOL    HW220981   0.615  11.191  13.854
 6362SOL     OW20982  11.702   6.452   1.885
 6362SOL    HW120983  11.772   6.390   1.900
 6362SOL    HW220984  11.626   6.414   1.930
 6363SOL     OW20985   4.987   1.699   0.529
 6363SOL    HW120986   5.001   1.793   0.535
 6363SOL    HW220987   4.903   1.689   0.483
 6364SOL     OW20988  11.679  10.639   6.916
 6364SOL    HW120989  11.768  10.603   6.911
 6364SOL    HW220990  11.692  10.732   6.935
 6365SOL     OW20991   5.808  12.252   9.965
 6365SOL    HW120992   5.794  12.320   9.899
 6365SOL    HW220993   5.762  12.284  10.043
 6366SOL     OW20994   7.787   4.541  12.917
 6366SOL    HW120995   7.869   4.494  12.931
 6366SOL    HW220996   7.726   4.475  12.885
 6367SOL     OW20997  11.860   4.405  14.156
 6367SOL    HW120998  11.779   4.410  14.206
 6367SOL    HW220999  11.872   4.311  14.139
 6368SOL     OW21000   6.976   9.454  12.640
 6368SOL    HW121001   7.010   9.441  12.551
 6368SOL    HW221002   7.052   9.440  12.696
 6369SOL     OW21003   8.904   8.658   3.040
 6369SOL    HW121004   8.834   8.627   3.096
 6369SOL    HW221005   8.862   8.723   2.983
 6370SOL     OW21006   6.348   9.658   7.287
 6370SOL    HW121007   6.271   9.706   7.257
 6370SOL    HW221008   6.420   9.720   7.277
 6371SOL     OW21009  10.140   3.622   0.682
 6371SOL    HW121010  10.235   3.611   0.683
 6371SOL    HW221011  10.126   3.716   0.684
 6372SOL     OW21012   8.773   3.063  13.347
 6372SOL    HW121013   8.864   3.080  13.320
 6372SOL    HW221014   8.764   2.968  13.339
 6373SOL     OW21015   9.808   7.287   4.023
 6373SOL    HW121016   9.762   7.346   4.083
 6373SOL    HW221017   9.764   7.202   4.035
 6374SOL     OW21018   7.321   7.850   3.749
 6374SOL    HW121019   7.313   7.766   3.703
 6374SOL    HW221020   7.399   7.840   3.803
 6375SOL     OW21021   1.690  13.135   9.658
 6375SOL    HW121022   1.684  13.196   9.731
 6375SOL    HW221023   1.705  13.190   9.581
 6376SOL     OW21024   6.573   6.150   0.384
 6376SOL    HW121025   6.495   6.163   0.330
 6376SOL    HW221026   6.539   6.119   0.468
 6377SOL     OW21027   9.035   4.852   1.705
 6377SOL    HW121028   9.001   4.901   1.630
 6377SOL    HW221029   9.066   4.919   1.766
 6378SOL     OW21030  14.374   3.128  13.409
 6378SOL    HW121031  14.358   3.034  13.417
 6378SOL    HW221032  14.346   3.149  13.320
 6379SOL     OW21033   5.239   3.446   1.090
 6379SOL    HW121034   5.218   3.400   1.008
 6379SOL    HW221035   5.269   3.377   1.149
 6380SOL     OW21036   1.339   0.133  11.612
 6380SOL    HW121037   1.413   0.095  11.565
 6380SOL    HW221038   1.283   0.058  11.632
 6381SOL     OW21039   2.513   4.390  11.418
 6381SOL    HW121040   2.586   4.339  11.452
 6381SOL    HW221041   2.503   4.463  11.480
 6382SOL     OW21042   2.970   5.195   3.884
 6382SOL    HW121043   2.937   5.215   3.972
 6382SOL    HW221044   3.029   5.120   3.896
 6383SOL     OW21045   3.333   4.372   7.342
 6383SOL    HW121046   3.252   4.322   7.353
 6383SOL    HW221047   3.397   4.307   7.311
 6384SOL     OW21048  10.644   9.535   7.942
 6384SOL    HW121049  10.737   9.542   7.966
 6384SOL    HW221050  10.604   9.486   8.014
 6385SOL     OW21051   9.136   2.835   0.629
 6385SOL    HW121052   9.085   2.852   0.708
 6385SOL    HW221053   9.122   2.912   0.574
 6386SOL     OW21054   7.449   7.402   7.482
 6386SOL    HW121055   7.489   7.489   7.490
 6386SOL    HW221056   7.405   7.404   7.397
 6387SOL     OW21057   8.088  10.930  11.589
 6387SOL    HW121058   8.127  11.008  11.548
 6387SOL    HW221059   8.117  10.857  11.534
 6388SOL     OW21060   7.551   6.358  12.569
 6388SOL    HW121061   7.528   6.355  12.476
 6388SOL    HW221062   7.471   6.388  12.612
 6389SOL     OW21063  14.679   6.514   4.493
 6389SOL    HW121064  14.736   6.582   4.456
 6389SOL    HW221065  14.663   6.454   4.420
 6390SOL     OW21066  13.845   8.031   0.295
 6390SOL    HW121067  13.861   7.983   0.376
 6390SOL    HW221068  13.755   8.064   0.304
 6391SOL     OW21069   2.572   5.168   1.047
 6391SOL    HW121070   2.628   5.240   1.019
 6391SOL    HW221071   2.632   5.095   1.059
 6392SOL     OW21072   5.577   5.510   8.288
 6392SOL    HW121073   5.523   5.564   8.231
 6392SOL    HW221074   5.538   5.519   8.375
 6393SOL     OW21075   9.140  11.507   2.892
 6393SOL    HW121076   9.193  11.497   2.813
 6393SOL    HW221077   9.203  11.519   2.963
 6394SOL     OW21078   9.718  12.608  10.282
 6394SOL    HW121079   9.703  12.516  10.304
 6394SOL    HW221080   9.632  12.642  10.259
 6395SOL     OW21081  13.482  11.560  11.592
 6395SOL    HW121082  13.504  11.564  11.685
 6395SOL    HW221083  13.527  11.481  11.560
 6396SOL     OW21084   0.779   8.335   8.028
 6396SOL    HW121085   0.703   8.277   8.027
 6396SOL    HW221086   0.774   8.379   8.112
 6397SOL     OW21087   9.262  12.448   3.852
 6397SOL    HW121088   9.171  12.428   3.828
 6397SOL    HW221089   9.306  12.363   3.854
 6398SOL     OW21090   3.293   0.408   4.048
 6398SOL    HW121091   3.209   0.364   4.063
 6398SOL    HW221092   3.348   0.379   4.120
 6399SOL     OW21093   1.103   4.974   6.019
 6399SOL    HW121094   1.096   5.053   5.965
 6399SOL    HW221095   1.145   5.004   6.100
 6400SOL     OW21096   4.503   1.861  12.775
 6400SOL    HW121097   4.499   1.906  12.691
 6400SOL    HW221098   4.537   1.774  12.754
 6401SOL     OW21099  14.786  12.471   9.189
 6401SOL    HW121100  14.708  12.423   9.160
 6401SOL    HW221101  14.808  12.528   9.116
 6402SOL     OW21102   1.834   2.406   7.960
 6402SOL    HW121103   1.853   2.326   7.911
 6402SOL    HW221104   1.809   2.375   8.048
 6403SOL     OW21105   0.215   5.248  10.562
 6403SOL    HW121106   0.252   5.335  10.581
 6403SOL    HW221107   0.122   5.265  10.547
 6404SOL     OW21108   3.053  11.071  14.752
 6404SOL    HW121109   2.967  11.108  14.772
 6404SOL    HW221110   3.109  11.148  14.734
 6405SOL     OW21111   9.670   2.423   2.252
 6405SOL    HW121112   9.585   2.379   2.261
 6405SOL    HW221113   9.682   2.433   2.158
 6406SOL     OW21114   5.723  11.291   5.444
 6406SOL    HW121115   5.759  11.370   5.404
 6406SOL    HW221116   5.642  11.274   5.395
 6407SOL     OW21117   1.282  14.138   1.588
 6407SOL    HW121118   1.263  14.152   1.496
 6407SOL    HW221119   1.197  14.145   1.632
 6408SOL     OW21120   9.931  11.687  13.421
 6408SOL    HW121121   9.990  11.706  13.494
 6408SOL    HW221122   9.843  11.691  13.459
 6409SOL     OW21123   4.881   8.853   1.887
 6409SOL    HW121124   4.819   8.856   1.814
 6409SOL    HW221125   4.883   8.761   1.913
 6410SOL     OW21126   6.330   6.203   0.200
 6410SOL    HW121127   6.323   6.147   0.123
 6410SOL    HW221128   6.245   6.195   0.243
 6411SOL     OW21129   2.403   9.240   2.156
 6411SOL    HW121130   2.379   9.279   2.072
 6411SOL    HW221131   2.416   9.314   2.214
 6412SOL     OW21132  10.154   0.352   7.416
 6412SOL    HW121133  10.086   0.337   7.350
 6412SOL    HW221134  10.183   0.442   7.401
 6413SOL     OW21135  10.540   0.558   0.992
 6413SOL    HW121136  10.534   0.639   0.941
 6413SOL    HW221137  10.548   0.489   0.926
 6414SOL     OW21138  11.092   5.866   6.994
 6414SOL    HW121139  11.040   5.801   7.041
 6414SOL    HW221140  11.046   5.880   6.912
 6415SOL     OW21141   4.994   0.952   5.050
 6415SOL    HW121142   4.901   0.939   5.069
 6415SOL    HW221143   4.996   1.019   4.982
 6416SOL     OW21144   1.945   8.543  11.956
 6416SOL    HW121145   1.879   8.538  11.886
 6416SOL    HW221146   1.897   8.518  12.035
 6417SOL     OW21147  12.657   0.839   9.896
 6417SOL    HW121148  12.721   0.805   9.959
 6417SOL    HW221149  12.707   0.902   9.843
 6418SOL     OW21150  12.439   6.044   9.286
 6418SOL    HW121151  12.512   6.099   9.315
 6418SOL    HW221152  12.388   6.028   9.365
 6419SOL     OW21153   6.026   3.841   6.058
 6419SOL    HW121154   6.065   3.925   6.083
 6419SOL    HW221155   5.955   3.828   6.120
 6420SOL     OW21156   5.668   3.333   1.284
 6420SOL    HW121157   5.621   3.252   1.263
 6420SOL    HW221158   5.662   3.340   1.379
 6421SOL     OW21159   1.522  12.009  13.638
 6421SOL    HW121160   1.455  11.946  13.664
 6421SOL    HW221161   1.563  12.036  13.720
 6422SOL     OW21162  11.799   4.271   0.396
 6422SOL    HW121163  11.807   4.336   0.326
 6422SOL    HW221164  11.714   4.290   0.436
 6423SOL     OW21165   4.210   8.904   2.996
 6423SOL    HW121166   4.152   8.979   3.008
 6423SOL    HW221167   4.229   8.903   2.903
 6424SOL     OW21168   0.395   8.791  12.308
 6424SOL    HW121169   0.369   8.853  12.240
 6424SOL    HW221170   0.424   8.845  12.381
 6425SOL     OW21171   7.496   7.673  11.629
 6425SOL    HW121172   7.424   7.623  11.591
 6425SOL    HW221173   7.537   7.614  11.692
 6426SOL     OW21174  11.562   6.236  14.783
 6426SOL    HW121175  11.539   6.230  14.690
 6426SOL    HW221176  11.508   6.168  14.825
 6427SOL     OW21177   7.597   3.252   0.559
 6427SOL    HW121178   7.587   3.330   0.613
 6427SOL    HW221179   7.544   3.186   0.604
 6428SOL     OW21180   2.694   1.003   5.473
 6428SOL    HW121181   2.643   0.983   5.551
 6428SOL    HW221182   2.681   0.929   5.414
 6429SOL     OW21183   5.179  11.794   4.730
 6429SOL    HW121184   5.156  11.744   4.808
 6429SOL    HW221185   5.247  11.855   4.759
 6430SOL     OW21186   3.144  12.885  10.677
 6430SOL    HW121187   3.166  12.971  10.712
 6430SOL    HW221188   3.108  12.903  10.590
 6431SOL     OW21189   6.551   2.938   8.909
 6431SOL    HW121190   6.489   3.010   8.904
 6431SOL    HW221191   6.553   2.914   9.002
 6432SOL     OW21192   5.771  10.353  10.802
 6432SOL    HW121193   5.798  10.262  10.815
 6432SOL    HW221194   5.851  10.404  10.815
 6433SOL     OW21195   5.097  13.194   8.824
 6433SOL    HW121196   5.172  13.238   8.866
 6433SOL    HW221197   5.077  13.121   8.882
 6434SOL     OW21198  13.942   0.450   5.714
 6434SOL    HW121199  13.994   0.433   5.792
 6434SOL    HW221200  13.976   0.533   5.680
 6435SOL     OW21201  11.128   8.141   6.529
 6435SOL    HW121202  11.151   8.051   6.553
 6435SOL    HW221203  11.212   8.181   6.507
 6436SOL     OW21204   5.327   1.026  11.059
 6436SOL    HW121205   5.350   0.979  10.979
 6436SOL    HW221206   5.332   0.959  11.128
 6437SOL     OW21207   8.712   9.383   3.383
 6437SOL    HW121208   8.799   9.344   3.379
 6437SOL    HW221209   8.698   9.419   3.295
 6438SOL     OW21210   6.803   6.611  11.982
 6438SOL    HW121211   6.747   6.685  12.005
 6438SOL    HW221212   6.850   6.590  12.063
 6439SOL     OW21213   2.683   0.145  12.925
 6439SOL    HW121214   2.689   0.086  13.001
 6439SOL    HW221215   2.691   0.088  12.849
 6440SOL     OW21216   7.765   6.361   7.101
 6440SOL    HW121217   7.846   6.366   7.152
 6440SOL    HW221218   7.790   6.318   7.019
 6441SOL     OW21219   2.002   6.514  12.320
 6441SOL    HW121220   1.984   6.429  12.360
 6441SOL    HW221221   2.045   6.564  12.389
 6442SOL     OW21222  14.280  14.604   3.348
 6442SOL    HW121223  14.244  14.594   3.260
 6442SOL    HW221224  14.304  14.515   3.374
 6443SOL     OW21225  13.964  10.808  13.639
 6443SOL    HW121226  14.042  10.862  13.650
 6443SOL    HW221227  13.996  10.729  13.594
 6444SOL     OW21228   4.979   9.668   0.911
 6444SOL    HW121229   4.939   9.741   0.957
 6444SOL    HW221230   5.052   9.641   0.967
 6445SOL     OW21231   5.520   6.851  13.205
 6445SOL    HW121232   5.447   6.911  13.221
 6445SOL    HW221233   5.591   6.883  13.260
 6446SOL     OW21234   7.738  12.476  12.475
 6446SOL    HW121235   7.656  12.492  12.521
 6446SOL    HW221236   7.712  12.440  12.390
 6447SOL     OW21237   7.835   3.150   8.340
 6447SOL    HW121238   7.909   3.140   8.280
 6447SOL    HW221239   7.874   3.145   8.427
 6448SOL     OW21240  12.666   1.030   5.694
 6448SOL    HW121241  12.738   1.057   5.750
 6448SOL    HW221242  12.613   1.109   5.682
 6449SOL     OW21243   3.422   6.979   7.687
 6449SOL    HW121244   3.480   7.032   7.742
 6449SOL    HW221245   3.445   6.889   7.708
 6450SOL     OW21246  14.019   6.220  13.735
 6450SOL    HW121247  13.924   6.215  13.740
 6450SOL    HW221248  14.036   6.284  13.666
 6451SOL     OW21249   8.635   6.620  11.450
 6451SOL    HW121250   8.652   6.552  11.384
 6451SOL    HW221251   8.720   6.637  11.490
 6452SOL     OW21252   6.295   1.008   4.652
 6452SOL    HW121253   6.329   1.006   4.563
 6452SOL    HW221254   6.372   1.022   4.707
 6453SOL     OW21255   8.375  10.929   3.663
 6453SOL    HW121256   8.328  10.879   3.597
 6453SOL    HW221257   8.384  10.869   3.737
 6454SOL     OW21258   9.803   9.927  12.789
 6454SOL    HW121259   9.823   9.843  12.747
 6454SOL    HW221260   9.772   9.903  12.876
 6455SOL     OW21261   9.346  11.122  13.715
 6455SOL    HW121262   9.303  11.106  13.631
 6455SOL    HW221263   9.383  11.210  13.706
 6456SOL     OW21264   2.682  12.513   4.101
 6456SOL    HW121265   2.590  12.491   4.113
 6456SOL    HW221266   2.686  12.560   4.018
 6457SOL     OW21267   6.127   0.996  11.543
 6457SOL    HW121268   6.129   1.086  11.511
 6457SOL    HW221269   6.191   0.950  11.489
 6458SOL     OW21270   3.371   6.017  12.709
 6458SOL    HW121271   3.386   6.110  12.691
 6458SOL    HW221272   3.305   6.017  12.778
 6459SOL     OW21273  10.888   5.174  10.530
 6459SOL    HW121274  10.879   5.255  10.479
 6459SOL    HW221275  10.827   5.185  10.603
 6460SOL     OW21276   5.758  13.745   6.823
 6460SOL    HW121277   5.738  13.747   6.730
 6460SOL    HW221278   5.839  13.694   6.830
 6461SOL     OW21279  12.246   6.136   9.108
 6461SOL    HW121280  12.175   6.158   9.167
 6461SOL    HW221281  12.318   6.109   9.165
 6462SOL     OW21282  13.054   5.171   3.041
 6462SOL    HW121283  13.146   5.157   3.065
 6462SOL    HW221284  13.027   5.088   3.002
 6463SOL     OW21285  10.107   0.606  13.449
 6463SOL    HW121286  10.067   0.680  13.493
 6463SOL    HW221287  10.130   0.639  13.362
 6464SOL     OW21288   3.496   6.487   3.734
 6464SOL    HW121289   3.454   6.403   3.717
 6464SOL    HW221290   3.570   6.489   3.673
 6465SOL     OW21291   8.795   7.695  10.248
 6465SOL    HW121292   8.710   7.661  10.221
 6465SOL    HW221293   8.825   7.635  10.316
 6466SOL     OW21294   4.789   4.921   2.272
 6466SOL    HW121295   4.751   4.904   2.186
 6466SOL    HW221296   4.869   4.972   2.254
 6467SOL     OW21297   0.019   5.365  14.032
 6467SOL    HW121298   0.017   5.271  14.050
 6467SOL    HW221299  14.852   5.405  14.108
 6468SOL     OW21300  13.068   0.407   7.439
 6468SOL    HW121301  13.041   0.448   7.357
 6468SOL    HW221302  13.047   0.471   7.506
 6469SOL     OW21303   1.949   9.940   0.130
 6469SOL    HW121304   1.877   9.893   0.171
 6469SOL    HW221305   2.027   9.889   0.152
 6470SOL     OW21306   1.681   3.552  10.657
 6470SOL    HW121307   1.701   3.641  10.687
 6470SOL    HW221308   1.589   3.539  10.680
 6471SOL     OW21309  14.177   2.089   6.145
 6471SOL    HW121310  14.251   2.143   6.170
 6471SOL    HW221311  14.170   2.100   6.050
 6472SOL     OW21312   8.286   2.027   9.694
 6472SOL    HW121313   8.375   2.063   9.690
 6472SOL    HW221314   8.275   2.001   9.786
 6473SOL     OW21315  11.660   9.510   6.470
 6473SOL    HW121316  11.750   9.512   6.438
 6473SOL    HW221317  11.645   9.418   6.492
 6474SOL     OW21318  10.701  13.883  14.484
 6474SOL    HW121319  10.613  13.882  14.520
 6474SOL    HW221320  10.740  13.801  14.515
 6475SOL     OW21321   6.146   8.521  13.429
 6475SOL    HW121322   6.063   8.488  13.463
 6475SOL    HW221323   6.130   8.615  13.415
 6476SOL     OW21324  12.540  13.726   9.690
 6476SOL    HW121325  12.534  13.631   9.698
 6476SOL    HW221326  12.589  13.753   9.767
 6477SOL     OW21327   3.852   2.422  10.732
 6477SOL    HW121328   3.816   2.491  10.676
 6477SOL    HW221329   3.891   2.360  10.671
 6478SOL     OW21330  13.057   7.700   9.443
 6478SOL    HW121331  12.969   7.672   9.416
 6478SOL    HW221332  13.111   7.685   9.365
 6479SOL     OW21333  11.100   8.277   9.190
 6479SOL    HW121334  11.069   8.305   9.276
 6479SOL    HW221335  11.101   8.182   9.194
 6480SOL     OW21336   8.141  13.492  10.891
 6480SOL    HW121337   8.122  13.405  10.927
 6480SOL    HW221338   8.076  13.504  10.822
 6481SOL     OW21339   6.269   1.490   5.334
 6481SOL    HW121340   6.318   1.480   5.416
 6481SOL    HW221341   6.336   1.496   5.266
 6482SOL     OW21342   2.063   7.662   3.203
 6482SOL    HW121343   2.053   7.621   3.289
 6482SOL    HW221344   2.133   7.612   3.160
 6483SOL     OW21345   1.520   0.181  14.385
 6483SOL    HW121346   1.591   0.136  14.340
 6483SOL    HW221347   1.562   0.251  14.434
 6484SOL     OW21348   5.955   9.153   0.535
 6484SOL    HW121349   5.970   9.114   0.621
 6484SOL    HW221350   6.038   9.196   0.514
 6485SOL     OW21351   0.824   4.964  12.948
 6485SOL    HW121352   0.861   4.953  12.861
 6485SOL    HW221353   0.884   4.918  13.006
 6486SOL     OW21354   2.613   3.971   2.283
 6486SOL    HW121355   2.641   3.881   2.272
 6486SOL    HW221356   2.589   4.000   2.195
 6487SOL     OW21357   9.179   3.095   7.975
 6487SOL    HW121358   9.125   3.174   7.975
 6487SOL    HW221359   9.232   3.101   7.895
 6488SOL     OW21360   9.172   3.874   1.861
 6488SOL    HW121361   9.173   3.922   1.778
 6488SOL    HW221362   9.251   3.819   1.858
 6489SOL     OW21363   5.360   7.993   5.648
 6489SOL    HW121364   5.352   7.903   5.681
 6489SOL    HW221365   5.440   8.026   5.688
 6490SOL     OW21366  14.524   4.417   9.542
 6490SOL    HW121367  14.518   4.323   9.560
 6490SOL    HW221368  14.459   4.433   9.475
 6491SOL     OW21369   8.742   6.459   7.799
 6491SOL    HW121370   8.663   6.433   7.751
 6491SOL    HW221371   8.757   6.550   7.774
 6492SOL     OW21372   4.838   0.694   3.601
 6492SOL    HW121373   4.795   0.653   3.675
 6492SOL    HW221374   4.880   0.772   3.638
 6493SOL     OW21375   0.682   5.722   0.364
 6493SOL    HW121376   0.632   5.642   0.378
 6493SOL    HW221377   0.621   5.793   0.384
 6494SOL     OW21378   2.862   4.197   3.056
 6494SOL    HW121379   2.904   4.121   3.015
 6494SOL    HW221380   2.832   4.250   2.982
 6495SOL     OW21381   5.631   6.487   5.947
 6495SOL    HW121382   5.644   6.395   5.970
 6495SOL    HW221383   5.685   6.500   5.869
 6496SOL     OW21384   7.882   3.614  12.127
 6496SOL    HW121385   7.923   3.697  12.151
 6496SOL    HW221386   7.954   3.551  12.123
 6497SOL     OW21387   3.287   0.083   2.228
 6497SOL    HW121388   3.354   0.050   2.169
 6497SOL    HW221389   3.282   0.176   2.210
 6498SOL     OW21390   4.092   7.934   0.154
 6498SOL    HW121391   4.176   7.981   0.156
 6498SOL    HW221392   4.065   7.929   0.246
 6499SOL     OW21393   6.037  10.731  10.599
 6499SOL    HW121394   6.092  10.785  10.656
 6499SOL    HW221395   6.065  10.641  10.616
 6500SOL     OW21396   1.397  12.055  14.426
 6500SOL    HW121397   1.357  12.090  14.346
 6500SOL    HW221398   1.449  12.128  14.460
 6501SOL     OW21399   8.370   7.133   4.048
 6501SOL    HW121400   8.401   7.123   3.958
 6501SOL    HW221401   8.430   7.080   4.099
 6502SOL     OW21402   3.415  11.240   0.512
 6502SOL    HW121403   3.453  11.302   0.574
 6502SOL    HW221404   3.474  11.164   0.515
 6503SOL     OW21405   4.766   1.760   5.840
 6503SOL    HW121406   4.774   1.805   5.756
 6503SOL    HW221407   4.775   1.667   5.818
 6504SOL     OW21408  12.452   4.708   3.632
 6504SOL    HW121409  12.454   4.615   3.656
 6504SOL    HW221410  12.475   4.708   3.539
 6505SOL     OW21411   7.952   4.970   4.029
 6505SOL    HW121412   7.977   5.045   3.974
 6505SOL    HW221413   8.003   4.981   4.109
 6506SOL     OW21414   4.718   0.444  10.510
 6506SOL    HW121415   4.777   0.510  10.473
 6506SOL    HW221416   4.693   0.389  10.435
 6507SOL     OW21417  12.651  13.661   5.524
 6507SOL    HW121418  12.625  13.572   5.545
 6507SOL    HW221419  12.581  13.694   5.468
 6508SOL     OW21420   1.958   6.000   9.488
 6508SOL    HW121421   2.015   6.069   9.452
 6508SOL    HW221422   2.019   5.933   9.520
 6509SOL     OW21423   4.515  10.237   8.324
 6509SOL    HW121424   4.595  10.195   8.356
 6509SOL    HW221425   4.523  10.235   8.228
 6510SOL     OW21426   7.081   2.353   3.528
 6510SOL    HW121427   7.017   2.349   3.599
 6510SOL    HW221428   7.151   2.293   3.554
 6511SOL     OW21429   0.634   0.753   0.505
 6511SOL    HW121430   0.603   0.721   0.420
 6511SOL    HW221431   0.568   0.724   0.567
 6512SOL     OW21432  14.721  12.236   3.977
 6512SOL    HW121433  14.778  12.302   4.015
 6512SOL    HW221434  14.761  12.153   4.001
 6513SOL     OW21435   6.568  10.420   7.447
 6513SOL    HW121436   6.602  10.338   7.482
 6513SOL    HW221437   6.473  10.406   7.441
 6514SOL     OW21438   3.500  14.867   4.952
 6514SOL    HW121439   3.437  14.796   4.948
 6514SOL    HW221440   3.483   0.044   4.874
 6515SOL     OW21441   4.260   4.139   9.049
 6515SOL    HW121442   4.286   4.173   9.134
 6515SOL    HW221443   4.176   4.181   9.030
 6516SOL     OW21444  14.346   6.842   3.477
 6516SOL    HW121445  14.286   6.792   3.532
 6516SOL    HW221446  14.424   6.787   3.470
 6517SOL     OW21447   0.520   4.196   6.989
 6517SOL    HW121448   0.594   4.177   7.047
 6517SOL    HW221449   0.561   4.231   6.910
 6518SOL     OW21450   8.096   3.313   0.827
 6518SOL    HW121451   8.145   3.328   0.907
 6518SOL    HW221452   8.064   3.400   0.802
 6519SOL     OW21453   6.229   7.342   0.336
 6519SOL    HW121454   6.158   7.399   0.308
 6519SOL    HW221455   6.258   7.299   0.255
 6520SOL     OW21456  10.604  11.049   1.056
 6520SOL    HW121457  10.660  11.126   1.069
 6520SOL    HW221458  10.659  10.975   1.081
 6521SOL     OW21459  14.233   0.221  14.841
 6521SOL    HW121460  14.230   0.243   0.059
 6521SOL    HW221461  14.210   0.303  14.797
 6522SOL     OW21462   9.583   7.181   6.465
 6522SOL    HW121463   9.493   7.149   6.474
 6522SOL    HW221464   9.633   7.127   6.526
 6523SOL     OW21465  10.668   7.737  12.018
 6523SOL    HW121466  10.730   7.712  11.949
 6523SOL    HW221467  10.584   7.746  11.973
 6524SOL     OW21468   1.212   2.138  14.300
 6524SOL    HW121469   1.121   2.143  14.270
 6524SOL    HW221470   1.239   2.229  14.310
 6525SOL     OW21471  10.242   1.263  12.370
 6525SOL    HW121472  10.246   1.183  12.422
 6525SOL    HW221473  10.201   1.327  12.427
 6526SOL     OW21474  13.040  14.560  14.873
 6526SOL    HW121475  12.990  14.541  14.793
 6526SOL    HW221476  13.064  14.653  14.865
 6527SOL     OW21477   8.682  13.588   3.599
 6527SOL    HW121478   8.691  13.644   3.522
 6527SOL    HW221479   8.758  13.610   3.653
 6528SOL     OW21480  13.824   1.051  11.845
 6528SOL    HW121481  13.784   1.136  11.860
 6528SOL    HW221482  13.885   1.065  11.773
 6529SOL     OW21483   7.460   6.348  14.755
 6529SOL    HW121484   7.553   6.328  14.759
 6529SOL    HW221485   7.441   6.396  14.835
 6530SOL     OW21486   7.198  13.749   8.596
 6530SOL    HW121487   7.209  13.745   8.501
 6530SOL    HW221488   7.144  13.672   8.617
 6531SOL     OW21489  13.014   9.255   7.963
 6531SOL    HW121490  12.966   9.332   7.930
 6531SOL    HW221491  13.104   9.286   7.973
 6532SOL     OW21492  14.639   8.655   0.866
 6532SOL    HW121493  14.604   8.724   0.923
 6532SOL    HW221494  14.562   8.603   0.842
 6533SOL     OW21495   9.152  11.508   1.236
 6533SOL    HW121496   9.057  11.512   1.241
 6533SOL    HW221497   9.180  11.500   1.327
 6534SOL     OW21498   6.615   0.659   2.802
 6534SOL    HW121499   6.652   0.687   2.886
 6534SOL    HW221500   6.534   0.710   2.793
 6535SOL     OW21501   2.032   2.224   2.506
 6535SOL    HW121502   1.956   2.222   2.447
 6535SOL    HW221503   2.068   2.312   2.496
 6536SOL     OW21504   9.494   3.812   4.037
 6536SOL    HW121505   9.588   3.824   4.046
 6536SOL    HW221506   9.459   3.832   4.124
 6537SOL     OW21507  13.978   1.363   2.953
 6537SOL    HW121508  13.996   1.310   3.031
 6537SOL    HW221509  13.929   1.438   2.985
 6538SOL     OW21510   1.935   5.219   3.192
 6538SOL    HW121511   1.854   5.232   3.143
 6538SOL    HW221512   1.971   5.307   3.203
 6539SOL     OW21513   9.201  14.445   9.452
 6539SOL    HW121514   9.144  14.468   9.527
 6539SOL    HW221515   9.202  14.524   9.398
 6540SOL     OW21516   8.192   8.165   9.065
 6540SOL    HW121517   8.218   8.232   9.129
 6540SOL    HW221518   8.273   8.139   9.023
 6541SOL     OW21519  11.819  12.877   5.383
 6541SOL    HW121520  11.863  12.797   5.413
 6541SOL    HW221521  11.858  12.895   5.297
 6542SOL     OW21522   4.875  14.080   1.011
 6542SOL    HW121523   4.853  14.050   0.923
 6542SOL    HW221524   4.799  14.133   1.038
 6543SOL     OW21525   8.350   4.222   4.122
 6543SOL    HW121526   8.418   4.241   4.187
 6543SOL    HW221527   8.288   4.166   4.168
 6544SOL     OW21528   8.207  11.166   8.312
 6544SOL    HW121529   8.205  11.245   8.366
 6544SOL    HW221530   8.127  11.171   8.260
 6545SOL     OW21531   6.900  12.773   0.115
 6545SOL    HW121532   6.936  12.797   0.200
 6545SOL    HW221533   6.826  12.715   0.136
 6546SOL     OW21534   7.003   0.898   8.822
 6546SOL    HW121535   7.005   0.806   8.851
 6546SOL    HW221536   7.095   0.918   8.802
 6547SOL     OW21537   7.843  12.475   6.717
 6547SOL    HW121538   7.856  12.544   6.652
 6547SOL    HW221539   7.927  12.468   6.762
 6548SOL     OW21540   0.843  10.840   7.363
 6548SOL    HW121541   0.937  10.844   7.384
 6548SOL    HW221542   0.839  10.792   7.281
 6549SOL     OW21543   3.187  12.795   7.671
 6549SOL    HW121544   3.109  12.770   7.621
 6549SOL    HW221545   3.258  12.749   7.627
 6550SOL     OW21546  14.289  12.226   6.982
 6550SOL    HW121547  14.321  12.199   6.895
 6550SOL    HW221548  14.318  12.157   7.041
 6551SOL     OW21549   8.722  13.507   7.834
 6551SOL    HW121550   8.772  13.578   7.796
 6551SOL    HW221551   8.632  13.520   7.803
 6552SOL     OW21552   4.241   2.768   0.806
 6552SOL    HW121553   4.230   2.860   0.782
 6552SOL    HW221554   4.153   2.732   0.805
 6553SOL     OW21555   7.506  14.353   4.498
 6553SOL    HW121556   7.433  14.294   4.519
 6553SOL    HW221557   7.478  14.438   4.533
 6554SOL     OW21558   2.133   2.654  10.495
 6554SOL    HW121559   2.143   2.565  10.462
 6554SOL    HW221560   2.071   2.646  10.567
 6555SOL     OW21561   8.010   9.156   0.349
 6555SOL    HW121562   8.012   9.062   0.333
 6555SOL    HW221563   7.974   9.193   0.268
 6556SOL     OW21564   2.215  10.066   4.468
 6556SOL    HW121565   2.288  10.111   4.511
 6556SOL    HW221566   2.145  10.131   4.465
 6557SOL     OW21567   9.863   3.478   0.739
 6557SOL    HW121568   9.900   3.560   0.707
 6557SOL    HW221569   9.876   3.481   0.834
 6558SOL     OW21570  12.814   6.495  11.247
 6558SOL    HW121571  12.777   6.439  11.316
 6558SOL    HW221572  12.909   6.484  11.256
 6559SOL     OW21573   2.517  12.061  10.227
 6559SOL    HW121574   2.440  12.008  10.246
 6559SOL    HW221575   2.572  12.007  10.171
 6560SOL     OW21576  12.647   5.960   1.540
 6560SOL    HW121577  12.686   5.973   1.454
 6560SOL    HW221578  12.722   5.954   1.599
 6561SOL     OW21579  12.296   4.244  13.006
 6561SOL    HW121580  12.287   4.202  12.921
 6561SOL    HW221581  12.210   4.238  13.046
 6562SOL     OW21582  10.647   4.002   2.042
 6562SOL    HW121583  10.650   4.021   2.136
 6562SOL    HW221584  10.565   4.042   2.012
 6563SOL     OW21585   1.849  14.270  12.753
 6563SOL    HW121586   1.880  14.346  12.705
 6563SOL    HW221587   1.778  14.304  12.808
 6564SOL     OW21588  13.903   7.100   4.376
 6564SOL    HW121589  13.930   7.186   4.410
 6564SOL    HW221590  13.848   7.064   4.445
 6565SOL     OW21591  12.412   0.769   1.891
 6565SOL    HW121592  12.390   0.847   1.841
 6565SOL    HW221593  12.468   0.801   1.962
 6566SOL     OW21594  11.254   7.367  12.975
 6566SOL    HW121595  11.223   7.384  12.887
 6566SOL    HW221596  11.206   7.289  13.003
 6567SOL     OW21597  10.203  13.361   0.629
 6567SOL    HW121598  10.233  13.274   0.657
 6567SOL    HW221599  10.113  13.367   0.661
 6568SOL     OW21600   1.259   7.469   0.903
 6568SOL    HW121601   1.249   7.562   0.920
 6568SOL    HW221602   1.321   7.464   0.830
 6569SOL     OW21603  13.462   6.451  11.543
 6569SOL    HW121604  13.525   6.483  11.479
 6569SOL    HW221605  13.419   6.377  11.501
 6570SOL     OW21606  14.518  13.648   2.503
 6570SOL    HW121607  14.538  13.731   2.547
 6570SOL    HW221608  14.568  13.583   2.551
 6571SOL     OW21609  12.698   0.286   0.259
 6571SOL    HW121610  12.617   0.317   0.219
 6571SOL    HW221611  12.689   0.306   0.352
 6572SOL     OW21612  13.843  12.977   1.029
 6572SOL    HW121613  13.785  12.931   0.968
 6572SOL    HW221614  13.930  12.969   0.990
 6573SOL     OW21615   1.185  13.269   9.529
 6573SOL    HW121616   1.144  13.329   9.466
 6573SOL    HW221617   1.252  13.322   9.572
 6574SOL     OW21618  12.434  12.835   2.321
 6574SOL    HW121619  12.521  12.865   2.296
 6574SOL    HW221620  12.377  12.910   2.307
 6575SOL     OW21621   3.540  13.292   2.691
 6575SOL    HW121622   3.552  13.273   2.598
 6575SOL    HW221623   3.495  13.215   2.726
 6576SOL     OW21624   8.357   5.409  14.680
 6576SOL    HW121625   8.420   5.464  14.633
 6576SOL    HW221626   8.273   5.452  14.664
 6577SOL     OW21627   7.557   6.660   4.573
 6577SOL    HW121628   7.538   6.729   4.509
 6577SOL    HW221629   7.629   6.611   4.534
 6578SOL     OW21630   9.868   9.599  10.051
 6578SOL    HW121631   9.808   9.659  10.095
 6578SOL    HW221632   9.955   9.631  10.076
 6579SOL     OW21633  13.374   8.724   3.100
 6579SOL    HW121634  13.295   8.755   3.144
 6579SOL    HW221635  13.440   8.789   3.121
 6580SOL     OW21636   7.632   6.814   8.293
 6580SOL    HW121637   7.691   6.779   8.361
 6580SOL    HW221638   7.620   6.741   8.232
 6581SOL     OW21639   9.934   2.793   2.463
 6581SOL    HW121640   9.920   2.702   2.440
 6581SOL    HW221641   9.991   2.828   2.394
 6582SOL     OW21642   5.896   0.890   2.844
 6582SOL    HW121643   5.939   0.972   2.819
 6582SOL    HW221644   5.945   0.823   2.798
 6583SOL     OW21645   9.439   2.895  13.654
 6583SOL    HW121646   9.413   2.972  13.705
 6583SOL    HW221647   9.359   2.844  13.644
 6584SOL     OW21648   1.689   3.032   8.966
 6584SOL    HW121649   1.730   2.973   9.030
 6584SOL    HW221650   1.742   3.112   8.971
 6585SOL     OW21651  14.392  11.440  14.440
 6585SOL    HW121652  14.347  11.446  14.524
 6585SOL    HW221653  14.396  11.346  14.421
 6586SOL     OW21654   0.528   0.054  11.378
 6586SOL    HW121655   0.459   0.030  11.440
 6586SOL    HW221656   0.609   0.031  11.423
 6587SOL     OW21657   0.219  13.842   0.997
 6587SOL    HW121658   0.200  13.784   1.071
 6587SOL    HW221659   0.133  13.862   0.959
 6588SOL     OW21660  13.987   4.730   9.271
 6588SOL    HW121661  13.961   4.817   9.301
 6588SOL    HW221662  14.065   4.709   9.321
 6589SOL     OW21663   0.488   6.685   8.478
 6589SOL    HW121664   0.521   6.596   8.471
 6589SOL    HW221665   0.456   6.707   8.391
 6590SOL     OW21666   3.515   2.849   0.367
 6590SOL    HW121667   3.568   2.817   0.295
 6590SOL    HW221668   3.453   2.778   0.385
 6591SOL     OW21669  12.126   9.158  12.630
 6591SOL    HW121670  12.079   9.235  12.598
 6591SOL    HW221671  12.059   9.106  12.675
 6592SOL     OW21672  10.456   7.270   2.685
 6592SOL    HW121673  10.486   7.204   2.623
 6592SOL    HW221674  10.380   7.231   2.727
 6593SOL     OW21675   1.662   2.765   6.717
 6593SOL    HW121676   1.753   2.736   6.729
 6593SOL    HW221677   1.639   2.730   6.631
 6594SOL     OW21678   1.449  14.731   7.740
 6594SOL    HW121679   1.477  14.760   7.827
 6594SOL    HW221680   1.435  14.813   7.691
 6595SOL     OW21681   0.955  10.647   6.620
 6595SOL    HW121682   0.991  10.730   6.654
 6595SOL    HW221683   1.008  10.580   6.663
 6596SOL     OW21684   6.231   9.440   5.387
 6596SOL    HW121685   6.237   9.384   5.465
 6596SOL    HW221686   6.182   9.388   5.324
 6597SOL     OW21687   0.247   4.826   9.782
 6597SOL    HW121688   0.322   4.885   9.777
 6597SOL    HW221689   0.281   4.740   9.760
 6598SOL     OW21690  11.186   8.558  14.695
 6598SOL    HW121691  11.223   8.612  14.764
 6598SOL    HW221692  11.262   8.517  14.653
 6599SOL     OW21693   2.829   7.745  13.601
 6599SOL    HW121694   2.818   7.651  13.616
 6599SOL    HW221695   2.918   7.764  13.630
 6600SOL     OW21696   8.505   1.034  13.323
 6600SOL    HW121697   8.477   1.110  13.274
 6600SOL    HW221698   8.549   1.070  13.400
 6601SOL     OW21699  13.348  12.054   7.164
 6601SOL    HW121700  13.422  12.108   7.191
 6601SOL    HW221701  13.288  12.115   7.121
 6602SOL     OW21702  14.652   0.722  14.719
 6602SOL    HW121703  14.586   0.789  14.702
 6602SOL    HW221704  14.736   0.767  14.705
 6603SOL     OW21705  13.308  13.119  10.569
 6603SOL    HW121706  13.257  13.200  10.560
 6603SOL    HW221707  13.250  13.051  10.534
 6604SOL     OW21708   5.919  11.048   3.357
 6604SOL    HW121709   5.928  10.977   3.421
 6604SOL    HW221710   5.834  11.087   3.377
 6605SOL     OW21711   9.754   9.243  10.912
 6605SOL    HW121712   9.739   9.308  10.844
 6605SOL    HW221713   9.828   9.277  10.962
 6606SOL     OW21714   8.560   0.186   3.226
 6606SOL    HW121715   8.541   0.094   3.210
 6606SOL    HW221716   8.474   0.229   3.219
 6607SOL     OW21717   5.549   5.683   8.678
 6607SOL    HW121718   5.529   5.742   8.606
 6607SOL    HW221719   5.645   5.682   8.683
 6608SOL     OW21720   3.310  13.957   4.903
 6608SOL    HW121721   3.396  13.999   4.905
 6608SOL    HW221722   3.307  13.915   4.817
 6609SOL     OW21723   1.768   4.947   4.659
 6609SOL    HW121724   1.843   4.925   4.604
 6609SOL    HW221725   1.803   4.954   4.747
 6610SOL     OW21726   1.743   0.705  11.343
 6610SOL    HW121727   1.725   0.784  11.395
 6610SOL    HW221728   1.811   0.732  11.281
 6611SOL     OW21729   2.075  12.262   5.747
 6611SOL    HW121730   2.162  12.223   5.752
 6611SOL    HW221731   2.087  12.352   5.778
 6612SOL     OW21732   0.617   6.700   9.526
 6612SOL    HW121733   0.590   6.790   9.545
 6612SOL    HW221734   0.710   6.698   9.549
 6613SOL     OW21735   2.937   7.815   9.633
 6613SOL    HW121736   2.944   7.859   9.718
 6613SOL    HW221737   2.925   7.723   9.655
 6614SOL     OW21738   0.410  10.884   1.373
 6614SOL    HW121739   0.366  10.873   1.457
 6614SOL    HW221740   0.372  10.965   1.338
 6615SOL     OW21741   5.591   5.270   6.015
 6615SOL    HW121742   5.658   5.293   5.952
 6615SOL    HW221743   5.611   5.322   6.093
 6616SOL     OW21744  13.168   7.987  10.251
 6616SOL    HW121745  13.083   8.024  10.275
 6616SOL    HW221746  13.176   7.908  10.305
 6617SOL     OW21747   8.877  11.143   4.300
 6617SOL    HW121748   8.867  11.217   4.240
 6617SOL    HW221749   8.895  11.184   4.385
 6618SOL     OW21750  12.593   6.821   3.186
 6618SOL    HW121751  12.617   6.866   3.266
 6618SOL    HW221752  12.638   6.736   3.192
 6619SOL     OW21753   2.720   0.229   8.828
 6619SOL    HW121754   2.760   0.307   8.788
 6619SOL    HW221755   2.627   0.238   8.808
 6620SOL     OW21756   1.112   0.722   2.349
 6620SOL    HW121757   1.202   0.731   2.380
 6620SOL    HW221758   1.069   0.803   2.375
 6621SOL     OW21759  13.457  13.542   4.317
 6621SOL    HW121760  13.419  13.471   4.369
 6621SOL    HW221761  13.382  13.580   4.271
 6622SOL     OW21762   4.355   7.266  13.914
 6622SOL    HW121763   4.445   7.258  13.946
 6622SOL    HW221764   4.364   7.309  13.829
 6623SOL     OW21765  12.018   6.006   0.483
 6623SOL    HW121766  12.102   5.998   0.529
 6623SOL    HW221767  11.989   5.916   0.471
 6624SOL     OW21768  11.458   1.239   9.855
 6624SOL    HW121769  11.398   1.212   9.786
 6624SOL    HW221770  11.414   1.212   9.936
 6625SOL     OW21771   2.390  10.997  13.845
 6625SOL    HW121772   2.464  10.939  13.826
 6625SOL    HW221773   2.369  10.979  13.936
 6626SOL     OW21774  10.084  11.100   1.753
 6626SOL    HW121775   9.993  11.092   1.780
 6626SOL    HW221776  10.134  11.088   1.834
 6627SOL     OW21777  12.382   7.581   3.151
 6627SOL    HW121778  12.431   7.652   3.109
 6627SOL    HW221779  12.326   7.547   3.081
 6628SOL     OW21780   6.335   2.509   2.312
 6628SOL    HW121781   6.382   2.435   2.349
 6628SOL    HW221782   6.370   2.585   2.358
 6629SOL     OW21783  14.321  13.026   9.937
 6629SOL    HW121784  14.255  12.971   9.979
 6629SOL    HW221785  14.404  13.000   9.977
 6630SOL     OW21786   1.606   0.629  12.874
 6630SOL    HW121787   1.681   0.636  12.934
 6630SOL    HW221788   1.529   0.636  12.931
 6631SOL     OW21789  12.108   0.903   7.724
 6631SOL    HW121790  12.067   0.868   7.644
 6631SOL    HW221791  12.049   0.877   7.794
 6632SOL     OW21792   1.127  13.247  13.452
 6632SOL    HW121793   1.054  13.308  13.446
 6632SOL    HW221794   1.148  13.225  13.361
 6633SOL     OW21795  12.826  12.749  11.498
 6633SOL    HW121796  12.775  12.716  11.424
 6633SOL    HW221797  12.767  12.810  11.542
 6634SOL     OW21798  12.802   5.324   8.671
 6634SOL    HW121799  12.824   5.280   8.753
 6634SOL    HW221800  12.753   5.258   8.621
 6635SOL     OW21801   0.270   4.499  10.179
 6635SOL    HW121802   0.187   4.546  10.185
 6635SOL    HW221803   0.258   4.441  10.104
 6636SOL     OW21804   1.121  11.082   9.134
 6636SOL    HW121805   1.165  11.146   9.079
 6636SOL    HW221806   1.167  11.000   9.117
 6637SOL     OW21807   0.380   6.775  11.270
 6637SOL    HW121808   0.422   6.846  11.319
 6637SOL    HW221809   0.294   6.811  11.246
 6638SOL     OW21810   1.787   1.725   4.209
 6638SOL    HW121811   1.858   1.788   4.206
 6638SOL    HW221812   1.764   1.719   4.302
 6639SOL     OW21813   2.123   5.865  10.460
 6639SOL    HW121814   2.128   5.960  10.455
 6639SOL    HW221815   2.060   5.847  10.529
 6640SOL     OW21816   3.798   6.305   6.650
 6640SOL    HW121817   3.800   6.212   6.674
 6640SOL    HW221818   3.884   6.320   6.611
 6641SOL     OW21819   1.678   7.177   5.660
 6641SOL    HW121820   1.597   7.211   5.698
 6641SOL    HW221821   1.695   7.232   5.584
 6642SOL     OW21822   4.052   1.242   0.012
 6642SOL    HW121823   4.062   1.334  14.865
 6642SOL    HW221824   4.137   1.216   0.047
 6643SOL     OW21825   1.987  12.570   6.960
 6643SOL    HW121826   1.964  12.633   7.029
 6643SOL    HW221827   1.959  12.485   6.995
 6644SOL     OW21828  13.360  14.226   6.290
 6644SOL    HW121829  13.314  14.287   6.233
 6644SOL    HW221830  13.429  14.189   6.235
 6645SOL     OW21831   3.166  14.495   0.297
 6645SOL    HW121832   3.207  14.427   0.244
 6645SOL    HW221833   3.077  14.502   0.263
 6646SOL     OW21834  13.340   7.673   2.808
 6646SOL    HW121835  13.420   7.722   2.828
 6646SOL    HW221836  13.361   7.582   2.828
 6647SOL     OW21837   6.991   2.731  12.718
 6647SOL    HW121838   6.989   2.768  12.629
 6647SOL    HW221839   7.015   2.805  12.774
 6648SOL     OW21840   2.657  10.071   4.497
 6648SOL    HW121841   2.695  10.072   4.409
 6648SOL    HW221842   2.658   9.979   4.523
 6649SOL     OW21843   3.325   5.738   8.675
 6649SOL    HW121844   3.337   5.772   8.764
 6649SOL    HW221845   3.245   5.685   8.681
 6650SOL     OW21846   5.070   6.338   0.856
 6650SOL    HW121847   5.156   6.358   0.893
 6650SOL    HW221848   5.072   6.244   0.838
 6651SOL     OW21849   7.409   0.089   5.007
 6651SOL    HW121850   7.348   0.159   4.985
 6651SOL    HW221851   7.486   0.134   5.042
 6652SOL     OW21852   0.349  10.122   4.696
 6652SOL    HW121853   0.309  10.204   4.723
 6652SOL    HW221854   0.327  10.060   4.766
 6653SOL     OW21855   0.704   8.620   2.155
 6653SOL    HW121856   0.733   8.693   2.210
 6653SOL    HW221857   0.695   8.547   2.216
 6654SOL     OW21858  12.691  10.861   7.702
 6654SOL    HW121859  12.649  10.858   7.616
 6654SOL    HW221860  12.621  10.840   7.763
 6655SOL     OW21861   5.693  13.371  14.854
 6655SOL    HW121862   5.655  13.391  14.769
 6655SOL    HW221863   5.626  13.394   0.042
 6656SOL     OW21864  12.455   1.062   3.899
 6656SOL    HW121865  12.512   1.137   3.912
 6656SOL    HW221866  12.484   0.998   3.965
 6657SOL     OW21867  11.323  12.297  13.287
 6657SOL    HW121868  11.279  12.247  13.355
 6657SOL    HW221869  11.259  12.303  13.216
 6658SOL     OW21870   2.811   5.493   6.072
 6658SOL    HW121871   2.901   5.461   6.068
 6658SOL    HW221872   2.801   5.527   6.161
 6659SOL     OW21873   8.224   5.321   9.345
 6659SOL    HW121874   8.256   5.328   9.255
 6659SOL    HW221875   8.291   5.364   9.398
 6660SOL     OW21876   1.734  12.724  12.902
 6660SOL    HW121877   1.725  12.781  12.826
 6660SOL    HW221878   1.677  12.762  12.968
 6661SOL     OW21879  10.412   5.881  13.821
 6661SOL    HW121880  10.455   5.860  13.738
 6661SOL    HW221881  10.358   5.958  13.802
 6662SOL     OW21882  14.021   8.357   3.380
 6662SOL    HW121883  14.058   8.445   3.388
 6662SOL    HW221884  14.089   8.299   3.416
 6663SOL     OW21885  11.303   6.869   4.087
 6663SOL    HW121886  11.381   6.858   4.032
 6663SOL    HW221887  11.323   6.821   4.167
 6664SOL     OW21888   4.266   7.345   4.683
 6664SOL    HW121889   4.358   7.369   4.670
 6664SOL    HW221890   4.223   7.372   4.602
 6665SOL     OW21891   0.782  13.880   6.665
 6665SOL    HW121892   0.856  13.869   6.726
 6665SOL    HW221893   0.824  13.904   6.581
 6666SOL     OW21894   9.310   5.745   8.078
 6666SOL    HW121895   9.372   5.736   8.006
 6666SOL    HW221896   9.224   5.746   8.035
 6667SOL     OW21897  12.307   4.417   6.130
 6667SOL    HW121898  12.335   4.326   6.138
 6667SOL    HW221899  12.363   4.465   6.190
 6668SOL     OW21900   9.565   7.745  11.732
 6668SOL    HW121901   9.498   7.677  11.723
 6668SOL    HW221902   9.648   7.700  11.716
 6669SOL     OW21903   3.637  12.251   3.670
 6669SOL    HW121904   3.621  12.173   3.618
 6669SOL    HW221905   3.675  12.218   3.752
 6670SOL     OW21906   3.458   0.112  12.738
 6670SOL    HW121907   3.409   0.034  12.713
 6670SOL    HW221908   3.391   0.173  12.771
 6671SOL     OW21909   5.487   1.468   4.342
 6671SOL    HW121910   5.572   1.442   4.379
 6671SOL    HW221911   5.423   1.443   4.409
 6672SOL     OW21912   4.658   3.270   0.115
 6672SOL    HW121913   4.748   3.241   0.124
 6672SOL    HW221914   4.611   3.193   0.084
 6673SOL     OW21915  12.692   4.327  10.721
 6673SOL    HW121916  12.723   4.328  10.630
 6673SOL    HW221917  12.735   4.402  10.762
 6674SOL     OW21918   7.960   3.949  11.532
 6674SOL    HW121919   8.018   3.875  11.551
 6674SOL    HW221920   8.019   4.018  11.504
 6675SOL     OW21921   5.473   5.498   9.276
 6675SOL    HW121922   5.435   5.539   9.353
 6675SOL    HW221923   5.509   5.415   9.308
 6676SOL     OW21924   1.685   2.681   7.068
 6676SOL    HW121925   1.616   2.734   7.107
 6676SOL    HW221926   1.650   2.654   6.983
 6677SOL     OW21927   3.742   8.628  10.272
 6677SOL    HW121928   3.824   8.657  10.312
 6677SOL    HW221929   3.769   8.583  10.192
 6678SOL     OW21930   4.319   2.611   2.338
 6678SOL    HW121931   4.274   2.544   2.287
 6678SOL    HW221932   4.287   2.694   2.302
 6679SOL     OW21933  14.350  13.282   8.051
 6679SOL    HW121934  14.303  13.256   8.130
 6679SOL    HW221935  14.432  13.319   8.083
 6680SOL     OW21936  10.063   1.123  11.372
 6680SOL    HW121937   9.971   1.135  11.397
 6680SOL    HW221938  10.063   1.127  11.277
 6681SOL     OW21939   9.834  14.528   4.208
 6681SOL    HW121940   9.797  14.465   4.269
 6681SOL    HW221941   9.809  14.496   4.121
 6682SOL     OW21942  11.062   2.353   1.745
 6682SOL    HW121943  11.015   2.380   1.666
 6682SOL    HW221944  11.032   2.263   1.760
 6683SOL     OW21945  10.818   1.647   6.198
 6683SOL    HW121946  10.737   1.614   6.237
 6683SOL    HW221947  10.885   1.583   6.222
 6684SOL     OW21948  12.919  11.108   5.187
 6684SOL    HW121949  12.913  11.017   5.158
 6684SOL    HW221950  12.935  11.102   5.281
 6685SOL     OW21951  10.726   1.270  13.158
 6685SOL    HW121952  10.681   1.186  13.147
 6685SOL    HW221953  10.743   1.300  13.068
 6686SOL     OW21954   9.726  10.734   2.028
 6686SOL    HW121955   9.712  10.721   2.122
 6686SOL    HW221956   9.695  10.823   2.011
 6687SOL     OW21957   2.743   2.075  14.203
 6687SOL    HW121958   2.819   2.043  14.154
 6687SOL    HW221959   2.673   2.082  14.138
 6688SOL     OW21960   8.438   4.074  11.047
 6688SOL    HW121961   8.494   4.089  11.124
 6688SOL    HW221962   8.349   4.089  11.080
 6689SOL     OW21963  14.474  13.193   4.812
 6689SOL    HW121964  14.437  13.104   4.815
 6689SOL    HW221965  14.482  13.218   4.904
 6690SOL     OW21966   2.912  13.260   2.726
 6690SOL    HW121967   2.874  13.298   2.646
 6690SOL    HW221968   2.870  13.174   2.734
 6691SOL     OW21969   5.659  10.945   6.327
 6691SOL    HW121970   5.614  10.982   6.251
 6691SOL    HW221971   5.752  10.961   6.310
 6692SOL     OW21972   2.591   3.601  13.514
 6692SOL    HW121973   2.585   3.665  13.585
 6692SOL    HW221974   2.534   3.529  13.542
 6693SOL     OW21975   7.811  11.695   4.926
 6693SOL    HW121976   7.870  11.763   4.894
 6693SOL    HW221977   7.843  11.614   4.886
 6694SOL     OW21978   9.267   1.922  12.905
 6694SOL    HW121979   9.328   1.958  12.840
 6694SOL    HW221980   9.209   1.865  12.854
 6695SOL     OW21981   1.189  11.853   2.628
 6695SOL    HW121982   1.196  11.758   2.631
 6695SOL    HW221983   1.110  11.871   2.577
 6696SOL     OW21984   5.778   0.019   0.977
 6696SOL    HW121985   5.817   0.103   0.997
 6696SOL    HW221986   5.722  14.874   1.052
 6697SOL     OW21987   2.145  11.869   6.662
 6697SOL    HW121988   2.135  11.811   6.587
 6697SOL    HW221989   2.068  11.926   6.660
 6698SOL     OW21990   5.077  10.143  13.626
 6698SOL    HW121991   5.038  10.112  13.545
 6698SOL    HW221992   5.158  10.091  13.635
 6699SOL     OW21993   4.610   8.800  12.841
 6699SOL    HW121994   4.534   8.743  12.857
 6699SOL    HW221995   4.676   8.742  12.802
 6700SOL     OW21996   4.268   8.898  10.302
 6700SOL    HW121997   4.320   8.820  10.285
 6700SOL    HW221998   4.198   8.868  10.359
 6701SOL     OW21999  12.510   2.055   0.864
 6701SOL    HW122000  12.595   2.047   0.821
 6701SOL    HW222001  12.459   2.112   0.806
 6702SOL     OW22002  11.558   8.034   1.179
 6702SOL    HW122003  11.616   8.057   1.252
 6702SOL    HW222004  11.510   8.114   1.161
 6703SOL     OW22005   7.239  11.071   7.323
 6703SOL    HW122006   7.307  11.050   7.260
 6703SOL    HW222007   7.214  11.161   7.304
 6704SOL     OW22008   7.859  11.850   1.938
 6704SOL    HW122009   7.870  11.756   1.926
 6704SOL    HW222010   7.785  11.859   1.998
 6705SOL     OW22011   2.677   4.894   9.611
 6705SOL    HW122012   2.713   4.933   9.691
 6705SOL    HW222013   2.667   4.968   9.551
 6706SOL     OW22014   5.250  12.422   7.564
 6706SOL    HW122015   5.290  12.465   7.640
 6706SOL    HW222016   5.318  12.364   7.531
 6707SOL     OW22017   3.433   7.438   7.954
 6707SOL    HW122018   3.477   7.517   7.983
 6707SOL    HW222019   3.461   7.371   8.016
 6708SOL     OW22020   5.760   9.147  14.215
 6708SOL    HW122021   5.778   9.224  14.268
 6708SOL    HW222022   5.677   9.114  14.248
 6709SOL     OW22023   3.767  13.294   4.984
 6709SOL    HW122024   3.798  13.377   5.020
 6709SOL    HW222025   3.790  13.229   5.051
 6710SOL     OW22026   8.221  14.697   6.110
 6710SOL    HW122027   8.279  14.773   6.101
 6710SOL    HW222028   8.163  14.701   6.034
 6711SOL     OW22029   0.033  13.351   2.634
 6711SOL    HW122030   0.123  13.363   2.604
 6711SOL    HW222031   0.033  13.266   2.678
 6712SOL     OW22032  10.133   9.085   5.293
 6712SOL    HW122033  10.169   9.141   5.225
 6712SOL    HW222034  10.146   8.996   5.260
 6713SOL     OW22035   5.956   8.870   8.653
 6713SOL    HW122036   5.968   8.952   8.701
 6713SOL    HW222037   6.025   8.813   8.686
 6714SOL     OW22038   2.066   4.811   5.817
 6714SOL    HW122039   2.013   4.822   5.738
 6714SOL    HW222040   2.093   4.900   5.840
 6715SOL     OW22041  11.020   8.044  14.598
 6715SOL    HW122042  10.927   8.052  14.617
 6715SOL    HW222043  11.037   8.112  14.533
 6716SOL     OW22044  11.272   2.322   0.854
 6716SOL    HW122045  11.205   2.348   0.918
 6716SOL    HW222046  11.241   2.238   0.820
 6717SOL     OW22047  11.738   0.822  10.787
 6717SOL    HW122048  11.653   0.782  10.805
 6717SOL    HW222049  11.782   0.761  10.727
 6718SOL     OW22050  14.478   7.782   9.403
 6718SOL    HW122051  14.470   7.699   9.356
 6718SOL    HW222052  14.470   7.757   9.496
 6719SOL     OW22053  12.295  11.979   2.383
 6719SOL    HW122054  12.215  11.954   2.338
 6719SOL    HW222055  12.290  11.936   2.468
 6720SOL     OW22056   8.958   3.675  13.088
 6720SOL    HW122057   8.884   3.679  13.026
 6720SOL    HW222058   8.944   3.749  13.146
 6721SOL     OW22059  10.294   5.279   5.959
 6721SOL    HW122060  10.215   5.291   6.011
 6721SOL    HW222061  10.323   5.190   5.980
 6722SOL     OW22062   4.264   5.409   5.399
 6722SOL    HW122063   4.243   5.366   5.316
 6722SOL    HW222064   4.216   5.359   5.465
 6723SOL     OW22065   2.343   1.716  11.542
 6723SOL    HW122066   2.266   1.713  11.598
 6723SOL    HW222067   2.409   1.664  11.589
 6724SOL     OW22068  10.373   4.993   7.256
 6724SOL    HW122069  10.459   4.956   7.274
 6724SOL    HW222070  10.367   4.996   7.160
 6725SOL     OW22071   3.248   6.209   6.583
 6725SOL    HW122072   3.269   6.150   6.655
 6725SOL    HW222073   3.303   6.179   6.511
 6726SOL     OW22074  12.148  14.414  10.142
 6726SOL    HW122075  12.109  14.369  10.217
 6726SOL    HW222076  12.180  14.497  10.176
 6727SOL     OW22077  11.480  14.614   2.701
 6727SOL    HW122078  11.543  14.593   2.771
 6727SOL    HW222079  11.427  14.685   2.736
 6728SOL     OW22080  12.474  11.700   7.101
 6728SOL    HW122081  12.409  11.744   7.155
 6728SOL    HW222082  12.449  11.607   7.104
 6729SOL     OW22083   3.322   3.293   3.398
 6729SOL    HW122084   3.362   3.377   3.373
 6729SOL    HW222085   3.383   3.227   3.365
 6730SOL     OW22086  13.777  11.724  13.319
 6730SOL    HW122087  13.748  11.633  13.325
 6730SOL    HW222088  13.856  11.720  13.265
 6731SOL     OW22089  13.002   2.127  13.152
 6731SOL    HW122090  12.999   2.109  13.246
 6731SOL    HW222091  12.961   2.213  13.142
 6732SOL     OW22092  10.009   9.808   0.147
 6732SOL    HW122093   9.943   9.867   0.113
 6732SOL    HW222094  10.083   9.816   0.087
 6733SOL     OW22095   4.314  14.643  10.341
 6733SOL    HW122096   4.351  14.651  10.429
 6733SOL    HW222097   4.227  14.605  10.354
 6734SOL     OW22098   0.226  13.742  12.983
 6734SOL    HW122099   0.153  13.695  13.023
 6734SOL    HW222100   0.184  13.809  12.928
 6735SOL     OW22101   1.069  13.739   7.188
 6735SOL    HW122102   1.131  13.699   7.249
 6735SOL    HW222103   1.124  13.785   7.124
 6736SOL     OW22104  14.524  14.701   3.186
 6736SOL    HW122105  14.447  14.658   3.225
 6736SOL    HW222106  14.520  14.677   3.094
 6737SOL     OW22107   1.805  13.545  12.336
 6737SOL    HW122108   1.839  13.528  12.248
 6737SOL    HW222109   1.716  13.512  12.334
 6738SOL     OW22110   4.770  14.855  12.157
 6738SOL    HW122111   4.831  14.808  12.101
 6738SOL    HW222112   4.706  14.790  12.183
 6739SOL     OW22113  14.219   0.278  11.256
 6739SOL    HW122114  14.142   0.334  11.255
 6739SOL    HW222115  14.184   0.189  11.262
 6740SOL     OW22116   9.773   2.241   9.954
 6740SOL    HW122117   9.820   2.254  10.036
 6740SOL    HW222118   9.755   2.147   9.952
 6741SOL     OW22119   3.430   4.346   2.593
 6741SOL    HW122120   3.387   4.423   2.630
 6741SOL    HW222121   3.438   4.286   2.667
 6742SOL     OW22122  11.952  14.482   8.242
 6742SOL    HW122123  11.982  14.505   8.154
 6742SOL    HW222124  12.031  14.448   8.286
 6743SOL     OW22125   8.022  13.423  13.540
 6743SOL    HW122126   7.974  13.345  13.565
 6743SOL    HW222127   8.101  13.390  13.497
 6744SOL     OW22128   3.505   3.031  12.825
 6744SOL    HW122129   3.541   2.954  12.870
 6744SOL    HW222130   3.464   2.996  12.746
 6745SOL     OW22131   6.304   5.360   5.188
 6745SOL    HW122132   6.290   5.271   5.155
 6745SOL    HW222133   6.220   5.403   5.179
 6746SOL     OW22134   5.879   9.554  10.681
 6746SOL    HW122135   5.820   9.571  10.755
 6746SOL    HW222136   5.966   9.553  10.720
 6747SOL     OW22137   4.126   0.305  11.865
 6747SOL    HW122138   4.146   0.336  11.776
 6747SOL    HW222139   4.094   0.216  11.853
 6748SOL     OW22140   6.989   6.337  13.625
 6748SOL    HW122141   7.066   6.362  13.676
 6748SOL    HW222142   6.944   6.419  13.607
 6749SOL     OW22143   7.601  10.200  11.390
 6749SOL    HW122144   7.682  10.228  11.432
 6749SOL    HW222145   7.542  10.275  11.400
 6750SOL     OW22146   9.637   7.267  12.369
 6750SOL    HW122147   9.570   7.224  12.420
 6750SOL    HW222148   9.599   7.277  12.282
 6751SOL     OW22149   3.869   3.788  12.378
 6751SOL    HW122150   3.898   3.782  12.469
 6751SOL    HW222151   3.809   3.862  12.376
 6752SOL     OW22152  11.994   3.261   5.278
 6752SOL    HW122153  12.066   3.201   5.256
 6752SOL    HW222154  12.027   3.348   5.253
 6753SOL     OW22155  14.044   3.134  10.531
 6753SOL    HW122156  14.021   3.204  10.470
 6753SOL    HW222157  14.138   3.145  10.547
 6754SOL     OW22158   9.559   6.548  14.442
 6754SOL    HW122159   9.585   6.591  14.524
 6754SOL    HW222160   9.471   6.516  14.458
 6755SOL     OW22161   0.373   6.816   3.472
 6755SOL    HW122162   0.397   6.733   3.432
 6755SOL    HW222163   0.397   6.805   3.564
 6756SOL     OW22164   5.866   9.948  11.023
 6756SOL    HW122165   5.842   9.908  11.107
 6756SOL    HW222166   5.962   9.950  11.024
 6757SOL     OW22167   4.544   1.750   3.398
 6757SOL    HW122168   4.620   1.778   3.347
 6757SOL    HW222169   4.473   1.808   3.370
 6758SOL     OW22170   9.077   2.015   0.597
 6758SOL    HW122171   9.109   2.061   0.675
 6758SOL    HW222172   9.046   2.085   0.540
 6759SOL     OW22173   7.182   7.731  10.964
 6759SOL    HW122174   7.115   7.778  10.914
 6759SOL    HW222175   7.141   7.715  11.049
 6760SOL     OW22176   3.039   7.935   6.508
 6760SOL    HW122177   2.950   7.969   6.500
 6760SOL    HW222178   3.031   7.842   6.487
 6761SOL     OW22179  14.599   3.750   5.839
 6761SOL    HW122180  14.551   3.701   5.907
 6761SOL    HW222181  14.581   3.842   5.859
 6762SOL     OW22182   3.143   7.354   4.824
 6762SOL    HW122183   3.155   7.420   4.892
 6762SOL    HW222184   3.180   7.394   4.745
 6763SOL     OW22185   6.423  10.032   3.768
 6763SOL    HW122186   6.420  10.109   3.826
 6763SOL    HW222187   6.331  10.016   3.745
 6764SOL     OW22188   8.327   5.194   7.353
 6764SOL    HW122189   8.374   5.201   7.436
 6764SOL    HW222190   8.286   5.107   7.357
 6765SOL     OW22191   2.954   9.107  13.580
 6765SOL    HW122192   2.938   9.200  13.599
 6765SOL    HW222193   2.919   9.061  13.656
 6766SOL     OW22194  13.934   2.958  12.120
 6766SOL    HW122195  14.026   2.949  12.143
 6766SOL    HW222196  13.935   3.000  12.035
 6767SOL     OW22197   8.729   2.646   8.263
 6767SOL    HW122198   8.762   2.732   8.236
 6767SOL    HW222199   8.808   2.592   8.272
 6768SOL     OW22200   1.303   3.278   2.780
 6768SOL    HW122201   1.395   3.256   2.793
 6768SOL    HW222202   1.257   3.229   2.848
 6769SOL     OW22203  14.574  13.126  12.025
 6769SOL    HW122204  14.571  13.124  12.121
 6769SOL    HW222205  14.559  13.036  11.998
 6770SOL     OW22206  10.841   8.659   9.661
 6770SOL    HW122207  10.766   8.681   9.716
 6770SOL    HW222208  10.821   8.571   9.628
 6771SOL     OW22209  10.060   8.341   0.162
 6771SOL    HW122210  10.003   8.417   0.156
 6771SOL    HW222211  10.096   8.345   0.251
 6772SOL     OW22212  12.331   8.722  13.300
 6772SOL    HW122213  12.369   8.648  13.253
 6772SOL    HW222214  12.238   8.702  13.305
 6773SOL     OW22215   1.549   6.334   6.032
 6773SOL    HW122216   1.471   6.364   6.079
 6773SOL    HW222217   1.591   6.414   6.000
 6774SOL     OW22218   5.563   6.572   3.794
 6774SOL    HW122219   5.629   6.519   3.749
 6774SOL    HW222220   5.605   6.600   3.875
 6775SOL     OW22221   9.830  14.458   5.269
 6775SOL    HW122222   9.753  14.463   5.213
 6775SOL    HW222223   9.889  14.399   5.222
 6776SOL     OW22224   2.960  12.621   6.617
 6776SOL    HW122225   2.968  12.558   6.545
 6776SOL    HW222226   2.955  12.567   6.696
 6777SOL     OW22227   1.858   1.993   1.711
 6777SOL    HW122228   1.919   2.063   1.686
 6777SOL    HW222229   1.882   1.973   1.802
 6778SOL     OW22230   0.299  13.369  13.807
 6778SOL    HW122231   0.361  13.379  13.878
 6778SOL    HW222232   0.220  13.333  13.849
 6779SOL     OW22233   9.700  14.727   1.326
 6779SOL    HW122234   9.794  14.710   1.318
 6779SOL    HW222235   9.694  14.814   1.364
 6780SOL     OW22236   5.743  12.479   8.646
 6780SOL    HW122237   5.754  12.544   8.715
 6780SOL    HW222238   5.659  12.501   8.606
 6781SOL     OW22239   3.871  13.527   9.874
 6781SOL    HW122240   3.904  13.441   9.849
 6781SOL    HW222241   3.812  13.509   9.948
 6782SOL     OW22242   2.353   0.671  11.959
 6782SOL    HW122243   2.354   0.579  11.934
 6782SOL    HW222244   2.409   0.677  12.036
 6783SOL     OW22245   3.025   3.496   2.206
 6783SOL    HW122246   3.055   3.585   2.225
 6783SOL    HW222247   3.063   3.477   2.120
 6784SOL     OW22248   7.135   6.619   3.617
 6784SOL    HW122249   7.151   6.594   3.708
 6784SOL    HW222250   7.218   6.653   3.585
 6785SOL     OW22251   2.617  13.748   8.684
 6785SOL    HW122252   2.690  13.706   8.728
 6785SOL    HW222253   2.602  13.829   8.732
 6786SOL     OW22254  10.893   4.688  14.394
 6786SOL    HW122255  10.873   4.603  14.353
 6786SOL    HW222256  10.959   4.727  14.337
 6787SOL     OW22257  10.749  10.198   0.875
 6787SOL    HW122258  10.675  10.139   0.864
 6787SOL    HW222259  10.715  10.285   0.853
 6788SOL     OW22260  10.067   3.200   9.314
 6788SOL    HW122261  10.031   3.114   9.290
 6788SOL    HW222262  10.084   3.243   9.230
 6789SOL     OW22263  13.669  10.014   6.495
 6789SOL    HW122264  13.608   9.945   6.519
 6789SOL    HW222265  13.724   9.975   6.427
 6790SOL     OW22266   7.936   2.118   0.646
 6790SOL    HW122267   7.892   2.164   0.717
 6790SOL    HW222268   7.865   2.076   0.597
 6791SOL     OW22269  11.789  11.685  14.511
 6791SOL    HW122270  11.757  11.596  14.526
 6791SOL    HW222271  11.834  11.709  14.592
 6792SOL     OW22272   3.762  12.737  14.769
 6792SOL    HW122273   3.822  12.747  14.695
 6792SOL    HW222274   3.680  12.706  14.730
 6793SOL     OW22275   0.680  12.673   1.375
 6793SOL    HW122276   0.773  12.697   1.375
 6793SOL    HW222277   0.675  12.598   1.315
 6794SOL     OW22278   3.856   5.064   7.688
 6794SOL    HW122279   3.917   5.046   7.617
 6794SOL    HW222280   3.807   4.982   7.699
 6795SOL     OW22281   4.718   5.891   8.437
 6795SOL    HW122282   4.624   5.899   8.423
 6795SOL    HW222283   4.727   5.839   8.517
 6796SOL     OW22284   7.477   7.099   6.875
 6796SOL    HW122285   7.472   7.026   6.814
 6796SOL    HW222286   7.386   7.117   6.898
 6797SOL     OW22287   2.022   1.082   3.333
 6797SOL    HW122288   2.035   1.154   3.395
 6797SOL    HW222289   2.001   1.125   3.250
 6798SOL     OW22290   7.645   0.015   5.905
 6798SOL    HW122291   7.726   0.017   5.855
 6798SOL    HW222292   7.614  14.800   5.898
 6799SOL     OW22293   3.077  14.823  12.298
 6799SOL    HW122294   3.095  14.749  12.356
 6799SOL    HW222295   3.126   0.021  12.336
 6800SOL     OW22296   0.407  10.705  10.903
 6800SOL    HW122297   0.399  10.785  10.954
 6800SOL    HW222298   0.443  10.733  10.819
 6801SOL     OW22299   2.952   0.515   2.700
 6801SOL    HW122300   3.037   0.519   2.657
 6801SOL    HW222301   2.970   0.478   2.786
 6802SOL     OW22302  12.961   8.362   3.951
 6802SOL    HW122303  12.902   8.437   3.942
 6802SOL    HW222304  12.961   8.343   4.045
 6803SOL     OW22305   8.534   6.563  11.833
 6803SOL    HW122306   8.514   6.594  11.745
 6803SOL    HW222307   8.497   6.475  11.837
 6804SOL     OW22308  12.429   5.582  11.421
 6804SOL    HW122309  12.404   5.514  11.358
 6804SOL    HW222310  12.434   5.662  11.369
 6805SOL     OW22311   6.492  10.489  10.802
 6805SOL    HW122312   6.520  10.553  10.868
 6805SOL    HW222313   6.555  10.499  10.731
 6806SOL     OW22314  13.991   7.432   3.839
 6806SOL    HW122315  13.963   7.347   3.806
 6806SOL    HW222316  13.949   7.440   3.924
 6807SOL     OW22317  10.925   8.648   4.240
 6807SOL    HW122318  10.922   8.670   4.333
 6807SOL    HW222319  10.902   8.555   4.237
 6808SOL     OW22320   4.686   7.194   0.896
 6808SOL    HW122321   4.657   7.144   0.820
 6808SOL    HW222322   4.614   7.189   0.958
 6809SOL     OW22323   4.657   4.041   9.627
 6809SOL    HW122324   4.728   4.053   9.564
 6809SOL    HW222325   4.618   4.128   9.635
 6810SOL     OW22326   6.886  13.361   4.529
 6810SOL    HW122327   6.903  13.366   4.435
 6810SOL    HW222328   6.972  13.372   4.570
 6811SOL     OW22329   7.663   0.463   9.069
 6811SOL    HW122330   7.657   0.381   9.021
 6811SOL    HW222331   7.728   0.445   9.138
 6812SOL     OW22332   5.886   5.312   2.388
 6812SOL    HW122333   5.853   5.382   2.332
 6812SOL    HW222334   5.837   5.321   2.469
 6813SOL     OW22335   6.879  12.272   2.106
 6813SOL    HW122336   6.852  12.194   2.057
 6813SOL    HW222337   6.970  12.285   2.082
 6814SOL     OW22338  10.628   2.429   0.513
 6814SOL    HW122339  10.666   2.514   0.536
 6814SOL    HW222340  10.584   2.400   0.592
 6815SOL     OW22341   1.774   3.405  12.159
 6815SOL    HW122342   1.760   3.376  12.249
 6815SOL    HW222343   1.843   3.472  12.166
 6816SOL     OW22344   0.126   7.321  11.526
 6816SOL    HW122345   0.150   7.280  11.609
 6816SOL    HW222346   0.081   7.252  11.477
 6817SOL     OW22347   9.295   8.060  12.722
 6817SOL    HW122348   9.267   8.122  12.789
 6817SOL    HW222349   9.352   7.999  12.768
 6818SOL     OW22350  12.697   1.325  11.749
 6818SOL    HW122351  12.711   1.420  11.748
 6818SOL    HW222352  12.786   1.289  11.747
 6819SOL     OW22353   7.328  14.583   7.834
 6819SOL    HW122354   7.288  14.660   7.793
 6819SOL    HW222355   7.421  14.591   7.812
 6820SOL     OW22356   5.741   6.732   1.048
 6820SOL    HW122357   5.703   6.819   1.063
 6820SOL    HW222358   5.682   6.672   1.093
 6821SOL     OW22359   9.081   0.619  10.170
 6821SOL    HW122360   9.165   0.641  10.211
 6821SOL    HW222361   9.050   0.702  10.133
 6822SOL     OW22362  13.946  10.717   5.254
 6822SOL    HW122363  13.857  10.706   5.286
 6822SOL    HW222364  13.935  10.747   5.163
 6823SOL     OW22365  10.704  14.210   0.806
 6823SOL    HW122366  10.794  14.209   0.839
 6823SOL    HW222367  10.669  14.295   0.831
 6824SOL     OW22368   2.239   4.309   0.138
 6824SOL    HW122369   2.162   4.361   0.116
 6824SOL    HW222370   2.217   4.269   0.222
 6825SOL     OW22371  12.417  12.707   7.516
 6825SOL    HW122372  12.350  12.775   7.518
 6825SOL    HW222373  12.427  12.680   7.607
 6826SOL     OW22374  12.921   0.451   4.455
 6826SOL    HW122375  12.859   0.420   4.522
 6826SOL    HW222376  12.886   0.535   4.427
 6827SOL     OW22377   4.965   0.615   6.155
 6827SOL    HW122378   4.997   0.539   6.108
 6827SOL    HW222379   4.870   0.603   6.160
 6828SOL     OW22380  13.950   3.836  11.922
 6828SOL    HW122381  13.894   3.761  11.941
 6828SOL    HW222382  13.893   3.912  11.936
 6829SOL     OW22383  11.896   3.298  12.832
 6829SOL    HW122384  11.917   3.205  12.829
 6829SOL    HW222385  11.801   3.301  12.820
 6830SOL     OW22386  11.824   0.278  12.501
 6830SOL    HW122387  11.791   0.273  12.411
 6830SOL    HW222388  11.749   0.252  12.555
 6831SOL     OW22389   5.072   6.912   7.743
 6831SOL    HW122390   5.026   6.877   7.820
 6831SOL    HW222391   5.126   6.982   7.779
 6832SOL     OW22392   8.083   1.680   7.874
 6832SOL    HW122393   8.017   1.723   7.928
 6832SOL    HW222394   8.074   1.587   7.896
 6833SOL     OW22395   0.895   8.448   1.337
 6833SOL    HW122396   0.811   8.459   1.293
 6833SOL    HW222397   0.930   8.366   1.302
 6834SOL     OW22398   5.069   7.734   5.460
 6834SOL    HW122399   5.124   7.663   5.493
 6834SOL    HW222400   5.124   7.781   5.398
 6835SOL     OW22401   2.959  14.174  13.947
 6835SOL    HW122402   3.032  14.158  13.888
 6835SOL    HW222403   2.948  14.269  13.947
 6836SOL     OW22404   6.532   8.898   0.684
 6836SOL    HW122405   6.500   8.811   0.708
 6836SOL    HW222406   6.481   8.921   0.606
 6837SOL     OW22407   3.150  13.198  12.229
 6837SOL    HW122408   3.144  13.259  12.303
 6837SOL    HW222409   3.129  13.252  12.152
 6838SOL     OW22410   3.266   1.390  14.721
 6838SOL    HW122411   3.334   1.422  14.661
 6838SOL    HW222412   3.252   1.299  14.695
 6839SOL     OW22413   6.631   6.896  13.700
 6839SOL    HW122414   6.685   6.944  13.638
 6839SOL    HW222415   6.629   6.951  13.779
 6840SOL     OW22416   7.226   0.512   9.446
 6840SOL    HW122417   7.218   0.607   9.445
 6840SOL    HW222418   7.137   0.481   9.464
 6841SOL     OW22419   4.497  14.857   8.172
 6841SOL    HW122420   4.538  14.849   8.258
 6841SOL    HW222421   4.556  14.810   8.113
 6842SOL     OW22422   7.962   7.931   5.792
 6842SOL    HW122423   8.055   7.911   5.784
 6842SOL    HW222424   7.921   7.848   5.817
 6843SOL     OW22425   7.106   8.069   7.448
 6843SOL    HW122426   7.018   8.099   7.470
 6843SOL    HW222427   7.105   7.975   7.465
 6844SOL     OW22428  14.778  14.180   7.208
 6844SOL    HW122429  14.684  14.195   7.211
 6844SOL    HW222430  14.788  14.101   7.156
 6845SOL     OW22431  10.849   7.705   3.384
 6845SOL    HW122432  10.764   7.679   3.421
 6845SOL    HW222433  10.910   7.700   3.458
 6846SOL     OW22434   5.502  13.247   2.965
 6846SOL    HW122435   5.467  13.171   2.919
 6846SOL    HW222436   5.469  13.323   2.916
 6847SOL     OW22437  11.019  10.091  10.757
 6847SOL    HW122438  11.058  10.010  10.789
 6847SOL    HW222439  11.093  10.146  10.731
 6848SOL     OW22440   6.181   1.550   3.152
 6848SOL    HW122441   6.153   1.480   3.211
 6848SOL    HW222442   6.262   1.519   3.113
 6849SOL     OW22443   1.579   8.070   2.010
 6849SOL    HW122444   1.492   8.091   2.044
 6849SOL    HW222445   1.639   8.120   2.065
 6850SOL     OW22446   6.432   8.328  12.351
 6850SOL    HW122447   6.489   8.374  12.412
 6850SOL    HW222448   6.344   8.347  12.382
 6851SOL     OW22449   9.556   3.800  13.778
 6851SOL    HW122450   9.552   3.789  13.683
 6851SOL    HW222451   9.644   3.770  13.801
 6852SOL     OW22452  10.922   1.773   0.339
 6852SOL    HW122453  10.868   1.851   0.351
 6852SOL    HW222454  10.914   1.753   0.246
 6853SOL     OW22455  13.887   0.641  12.096
 6853SOL    HW122456  13.863   0.730  12.121
 6853SOL    HW222457  13.867   0.636  12.003
 6854SOL     OW22458  12.391  11.148  14.228
 6854SOL    HW122459  12.468  11.092  14.229
 6854SOL    HW222460  12.405  11.208  14.301
 6855SOL     OW22461   3.452   7.978  12.421
 6855SOL    HW122462   3.403   7.974  12.503
 6855SOL    HW222463   3.541   8.003  12.447
 6856SOL     OW22464   7.297   3.459   1.147
 6856SOL    HW122465   7.357   3.406   1.095
 6856SOL    HW222466   7.230   3.397   1.178
 6857SOL     OW22467   1.654   9.206   2.140
 6857SOL    HW122468   1.706   9.166   2.209
 6857SOL    HW222469   1.654   9.300   2.160
 6858SOL     OW22470   2.551   8.044   0.414
 6858SOL    HW122471   2.586   8.071   0.499
 6858SOL    HW222472   2.600   8.097   0.351
 6859SOL     OW22473   2.606   2.414   2.066
 6859SOL    HW122474   2.535   2.354   2.043
 6859SOL    HW222475   2.686   2.363   2.051
 6860SOL     OW22476   3.727  10.534   6.665
 6860SOL    HW122477   3.752  10.582   6.586
 6860SOL    HW222478   3.717  10.443   6.636
 6861SOL     OW22479  10.330   2.220   6.095
 6861SOL    HW122480  10.301   2.158   6.162
 6861SOL    HW222481  10.294   2.185   6.014
 6862SOL     OW22482   7.916  13.264  12.235
 6862SOL    HW122483   7.891  13.244  12.145
 6862SOL    HW222484   7.863  13.340  12.258
 6863SOL     OW22485  12.403   4.000   2.704
 6863SOL    HW122486  12.440   3.959   2.626
 6863SOL    HW222487  12.461   3.972   2.775
 6864SOL     OW22488   8.924   5.593   2.755
 6864SOL    HW122489   8.925   5.624   2.665
 6864SOL    HW222490   9.006   5.626   2.793
 6865SOL     OW22491  13.466   7.317  10.263
 6865SOL    HW122492  13.384   7.361  10.242
 6865SOL    HW222493  13.486   7.265  10.185
 6866SOL     OW22494  13.517   5.826  13.551
 6866SOL    HW122495  13.424   5.825  13.530
 6866SOL    HW222496  13.551   5.904  13.506
 6867SOL     OW22497   8.507  13.824   6.842
 6867SOL    HW122498   8.544  13.737   6.833
 6867SOL    HW222499   8.434  13.813   6.904
 6868SOL     OW22500   6.086  14.476   0.830
 6868SOL    HW122501   6.169  14.440   0.860
 6868SOL    HW222502   6.079  14.447   0.739
 6869SOL     OW22503   3.261   9.834   7.016
 6869SOL    HW122504   3.244   9.785   7.096
 6869SOL    HW222505   3.185   9.818   6.961
 6870SOL     OW22506   8.466  13.110   6.322
 6870SOL    HW122507   8.555  13.122   6.288
 6870SOL    HW222508   8.473  13.133   6.415
 6871SOL     OW22509   2.314  11.261  10.169
 6871SOL    HW122510   2.227  11.273  10.208
 6871SOL    HW222511   2.352  11.189  10.218
 6872SOL     OW22512  13.536   8.573   4.904
 6872SOL    HW122513  13.531   8.625   4.823
 6872SOL    HW222514  13.511   8.634   4.973
 6873SOL     OW22515   3.240  13.007  13.428
 6873SOL    HW122516   3.308  13.072  13.446
 6873SOL    HW222517   3.244  12.946  13.502
 6874SOL     OW22518  11.955   1.471   2.649
 6874SOL    HW122519  11.941   1.384   2.686
 6874SOL    HW222520  11.978   1.525   2.725
 6875SOL     OW22521   9.355   7.503  13.400
 6875SOL    HW122522   9.401   7.534  13.322
 6875SOL    HW222523   9.289   7.443  13.366
 6876SOL     OW22524   4.417   7.925   8.052
 6876SOL    HW122525   4.397   7.870   7.977
 6876SOL    HW222526   4.369   8.006   8.035
 6877SOL     OW22527   9.963   7.665   2.586
 6877SOL    HW122528  10.010   7.628   2.511
 6877SOL    HW222529   9.979   7.759   2.581
 6878SOL     OW22530   7.752   2.950   2.798
 6878SOL    HW122531   7.738   2.906   2.881
 6878SOL    HW222532   7.794   2.884   2.743
 6879SOL     OW22533  12.949   6.828   2.638
 6879SOL    HW122534  12.936   6.866   2.551
 6879SOL    HW222535  12.925   6.899   2.698
 6880SOL     OW22536  10.730   6.823   5.882
 6880SOL    HW122537  10.699   6.735   5.861
 6880SOL    HW222538  10.746   6.820   5.977
 6881SOL     OW22539   3.699   8.665  13.497
 6881SOL    HW122540   3.624   8.607  13.491
 6881SOL    HW222541   3.738   8.646  13.582
 6882SOL     OW22542  14.311   7.188   8.006
 6882SOL    HW122543  14.225   7.148   8.015
 6882SOL    HW222544  14.293   7.274   7.969
 6883SOL     OW22545  13.554  10.925   6.990
 6883SOL    HW122546  13.545  11.001   6.933
 6883SOL    HW222547  13.562  10.851   6.930
 6884SOL     OW22548  10.065  14.872   1.459
 6884SOL    HW122549   9.976   0.031   1.455
 6884SOL    HW222550  10.060  14.797   1.517
 6885SOL     OW22551   0.092   1.736  10.595
 6885SOL    HW122552   0.080   1.680  10.518
 6885SOL    HW222553   0.020   1.798  10.591
 6886SOL     OW22554   3.601   3.278   2.155
 6886SOL    HW122555   3.594   3.354   2.212
 6886SOL    HW222556   3.576   3.310   2.068
 6887SOL     OW22557  10.933  13.990   1.171
 6887SOL    HW122558  10.874  13.930   1.218
 6887SOL    HW222559  10.990  13.933   1.120
 6888SOL     OW22560   3.471   1.457   8.771
 6888SOL    HW122561   3.409   1.499   8.831
 6888SOL    HW222562   3.555   1.460   8.817
 6889SOL     OW22563   4.958   2.696  10.694
 6889SOL    HW122564   4.949   2.791  10.683
 6889SOL    HW222565   4.888   2.673  10.755
 6890SOL     OW22566   4.010   0.333  10.391
 6890SOL    HW122567   3.981   0.243  10.408
 6890SOL    HW222568   3.977   0.384  10.465
 6891SOL     OW22569   3.047  10.080   9.422
 6891SOL    HW122570   2.994  10.009   9.458
 6891SOL    HW222571   3.122  10.037   9.382
 6892SOL     OW22572   2.379  12.946   7.202
 6892SOL    HW122573   2.311  12.981   7.260
 6892SOL    HW222574   2.451  13.008   7.210
 6893SOL     OW22575  11.029   4.236   1.201
 6893SOL    HW122576  11.084   4.177   1.253
 6893SOL    HW222577  11.058   4.221   1.111
 6894SOL     OW22578  14.177  10.417  11.483
 6894SOL    HW122579  14.114  10.465  11.536
 6894SOL    HW222580  14.259  10.466  11.493
 6895SOL     OW22581   4.843   7.828   5.003
 6895SOL    HW122582   4.877   7.913   5.034
 6895SOL    HW222583   4.917   7.788   4.958
 6896SOL     OW22584   3.664   0.282   8.992
 6896SOL    HW122585   3.586   0.275   9.046
 6896SOL    HW222586   3.638   0.338   8.919
 6897SOL     OW22587   9.149   4.269   3.547
 6897SOL    HW122588   9.178   4.228   3.629
 6897SOL    HW222589   9.219   4.331   3.526
 6898SOL     OW22590   0.493   0.162   7.973
 6898SOL    HW122591   0.432   0.117   8.031
 6898SOL    HW222592   0.550   0.212   8.031
 6899SOL     OW22593   9.769  14.685  11.278
 6899SOL    HW122594   9.832  14.616  11.258
 6899SOL    HW222595   9.819  14.748  11.331
 6900SOL     OW22596   8.488  13.746   6.145
 6900SOL    HW122597   8.505  13.682   6.214
 6900SOL    HW222598   8.482  13.830   6.191
 6901SOL     OW22599   3.522   6.433  14.145
 6901SOL    HW122600   3.531   6.528  14.149
 6901SOL    HW222601   3.441   6.415  14.191
 6902SOL     OW22602   4.299   6.042   6.953
 6902SOL    HW122603   4.369   6.056   7.017
 6902SOL    HW222604   4.248   5.969   6.988
 6903SOL     OW22605   2.115   9.911   5.288
 6903SOL    HW122606   2.026   9.877   5.291
 6903SOL    HW222607   2.146   9.891   5.200
 6904SOL     OW22608  12.543  13.190   7.467
 6904SOL    HW122609  12.520  13.282   7.451
 6904SOL    HW222610  12.619  13.175   7.411
 6905SOL     OW22611  12.175   7.324  12.595
 6905SOL    HW122612  12.148   7.259  12.530
 6905SOL    HW222613  12.271   7.324  12.589
 6906SOL     OW22614   2.976   7.095   7.619
 6906SOL    HW122615   3.014   7.048   7.544
 6906SOL    HW222616   3.051   7.110   7.677
 6907SOL     OW22617   8.827   1.461   5.470
 6907SOL    HW122618   8.827   1.366   5.483
 6907SOL    HW222619   8.780   1.495   5.546
 6908SOL     OW22620   1.422  13.670   7.258
 6908SOL    HW122621   1.463  13.744   7.303
 6908SOL    HW222622   1.494  13.625   7.215
 6909SOL     OW22623   1.802  11.740   3.440
 6909SOL    HW122624   1.847  11.709   3.362
 6909SOL    HW222625   1.868  11.739   3.509
 6910SOL     OW22626   2.325   5.103   2.799
 6910SOL    HW122627   2.303   5.055   2.720
 6910SOL    HW222628   2.255   5.081   2.861
 6911SOL     OW22629   6.786   7.489   1.476
 6911SOL    HW122630   6.709   7.546   1.467
 6911SOL    HW222631   6.764   7.411   1.424
 6912SOL     OW22632   9.071  12.796   2.850
 6912SOL    HW122633   9.100  12.718   2.899
 6912SOL    HW222634   9.023  12.848   2.914
 6913SOL     OW22635  10.291  10.784   3.158
 6913SOL    HW122636  10.304  10.849   3.226
 6913SOL    HW222637  10.209  10.740   3.182
 6914SOL     OW22638   0.065   6.322  10.521
 6914SOL    HW122639  14.860   6.288  10.480
 6914SOL    HW222640   0.111   6.245  10.552
 6915SOL     OW22641   3.439   2.727  11.170
 6915SOL    HW122642   3.492   2.649  11.186
 6915SOL    HW222643   3.437   2.734  11.074
 6916SOL     OW22644  11.591   1.600   8.194
 6916SOL    HW122645  11.603   1.586   8.288
 6916SOL    HW222646  11.650   1.672   8.173
 6917SOL     OW22647   1.195   0.762  12.267
 6917SOL    HW122648   1.216   0.683  12.317
 6917SOL    HW222649   1.102   0.754  12.248
 6918SOL     OW22650   3.025  11.976  12.190
 6918SOL    HW122651   3.079  11.916  12.242
 6918SOL    HW222652   2.935  11.951  12.212
 6919SOL     OW22653   9.570   3.061   8.875
 6919SOL    HW122654   9.527   3.145   8.858
 6919SOL    HW222655   9.499   3.002   8.899
 6920SOL     OW22656   1.333  13.460   6.421
 6920SOL    HW122657   1.253  13.493   6.379
 6920SOL    HW222658   1.302  13.388   6.477
 6921SOL     OW22659  13.949   7.749   9.145
 6921SOL    HW122660  13.959   7.771   9.052
 6921SOL    HW222661  13.915   7.828   9.185
 6922SOL     OW22662   9.325  12.890   0.879
 6922SOL    HW122663   9.236  12.920   0.899
 6922SOL    HW222664   9.381  12.946   0.933
 6923SOL     OW22665   8.538   6.057   1.497
 6923SOL    HW122666   8.550   5.970   1.534
 6923SOL    HW222667   8.444   6.074   1.507
 6924SOL     OW22668  11.804   2.240   2.223
 6924SOL    HW122669  11.747   2.221   2.297
 6924SOL    HW222670  11.892   2.242   2.261
 6925SOL     OW22671   0.733   0.691  13.255
 6925SOL    HW122672   0.763   0.737  13.176
 6925SOL    HW222673   0.723   0.600  13.228
 6926SOL     OW22674   6.325  11.475   1.591
 6926SOL    HW122675   6.406  11.496   1.638
 6926SOL    HW222676   6.261  11.538   1.625
 6927SOL     OW22677   5.761   1.213  13.582
 6927SOL    HW122678   5.799   1.141  13.531
 6927SOL    HW222679   5.672   1.223  13.547
 6928SOL     OW22680  13.477   7.353   4.582
 6928SOL    HW122681  13.448   7.275   4.629
 6928SOL    HW222682  13.472   7.329   4.490
 6929SOL     OW22683   4.673   9.812   9.469
 6929SOL    HW122684   4.698   9.722   9.487
 6929SOL    HW222685   4.742   9.865   9.510
 6930SOL     OW22686  10.372  12.532   3.438
 6930SOL    HW122687  10.348  12.614   3.481
 6930SOL    HW222688  10.289  12.486   3.426
 6931SOL     OW22689   5.235   0.791   8.653
 6931SOL    HW122690   5.304   0.724   8.649
 6931SOL    HW222691   5.229   0.814   8.745
 6932SOL     OW22692   2.098   9.720  13.258
 6932SOL    HW122693   2.190   9.701  13.240
 6932SOL    HW222694   2.099   9.766  13.342
 6933SOL     OW22695  12.520   9.285  11.573
 6933SOL    HW122696  12.531   9.351  11.642
 6933SOL    HW222697  12.572   9.318  11.500
 6934SOL     OW22698   9.497  13.497   9.527
 6934SOL    HW122699   9.409  13.486   9.493
 6934SOL    HW222700   9.487  13.558   9.600
 6935SOL     OW22701  14.591   3.249   5.162
 6935SOL    HW122702  14.573   3.155   5.162
 6935SOL    HW222703  14.628   3.266   5.075
 6936SOL     OW22704   9.826   9.151  11.889
 6936SOL    HW122705   9.857   9.122  11.803
 6936SOL    HW222706   9.764   9.084  11.917
 6937SOL     OW22707   2.446   0.573   1.002
 6937SOL    HW122708   2.500   0.633   0.950
 6937SOL    HW222709   2.356   0.594   0.978
 6938SOL     OW22710   2.593  13.392   4.253
 6938SOL    HW122711   2.557  13.480   4.255
 6938SOL    HW222712   2.523  13.337   4.290
 6939SOL     OW22713  13.522   1.818  11.420
 6939SOL    HW122714  13.466   1.835  11.495
 6939SOL    HW222715  13.562   1.903  11.400
 6940SOL     OW22716   0.185   0.953   7.248
 6940SOL    HW122717   0.137   0.945   7.166
 6940SOL    HW222718   0.192   1.047   7.263
 6941SOL     OW22719   4.825   7.094   9.412
 6941SOL    HW122720   4.802   7.164   9.351
 6941SOL    HW222721   4.780   7.117   9.493
 6942SOL     OW22722   1.041   7.502   0.142
 6942SOL    HW122723   1.014   7.574   0.199
 6942SOL    HW222724   1.133   7.487   0.164
 6943SOL     OW22725   5.862   9.209   5.940
 6943SOL    HW122726   5.937   9.172   5.987
 6943SOL    HW222727   5.788   9.155   5.967
 6944SOL     OW22728   3.458   2.752  13.770
 6944SOL    HW122729   3.369   2.715  13.776
 6944SOL    HW222730   3.453   2.834  13.818
 6945SOL     OW22731   9.600  11.605  10.320
 6945SOL    HW122732   9.616  11.697  10.299
 6945SOL    HW222733   9.671  11.581  10.380
 6946SOL     OW22734   3.049  10.370   8.878
 6946SOL    HW122735   3.134  10.376   8.923
 6946SOL    HW222736   3.006  10.295   8.919
 6947SOL     OW22737  14.077   1.264  12.776
 6947SOL    HW122738  14.015   1.246  12.846
 6947SOL    HW222739  14.100   1.356  12.787
 6948SOL     OW22740  11.520   4.824  14.277
 6948SOL    HW122741  11.507   4.793  14.367
 6948SOL    HW222742  11.613   4.847  14.274
 6949SOL     OW22743   1.107  10.361   4.466
 6949SOL    HW122744   1.069  10.439   4.424
 6949SOL    HW222745   1.150  10.395   4.545
 6950SOL     OW22746  12.952   4.724   5.358
 6950SOL    HW122747  12.924   4.666   5.287
 6950SOL    HW222748  12.990   4.665   5.423
 6951SOL     OW22749   3.926   7.304   4.730
 6951SOL    HW122750   3.939   7.352   4.812
 6951SOL    HW222751   3.951   7.214   4.751
 6952SOL     OW22752  14.312   5.645   9.354
 6952SOL    HW122753  14.270   5.695   9.284
 6952SOL    HW222754  14.342   5.712   9.416
 6953SOL     OW22755   5.235   3.267   0.482
 6953SOL    HW122756   5.317   3.240   0.524
 6953SOL    HW222757   5.178   3.294   0.554
 6954SOL     OW22758   3.709   4.603   4.167
 6954SOL    HW122759   3.652   4.616   4.243
 6954SOL    HW222760   3.798   4.603   4.203
 6955SOL     OW22761   6.256   9.801   6.476
 6955SOL    HW122762   6.244   9.852   6.555
 6955SOL    HW222763   6.211   9.718   6.493
 6956SOL     OW22764   3.082   5.260   5.767
 6956SOL    HW122765   3.101   5.168   5.746
 6956SOL    HW222766   2.991   5.272   5.737
 6957SOL     OW22767   7.032   8.991   0.593
 6957SOL    HW122768   6.973   8.937   0.645
 6957SOL    HW222769   6.976   9.060   0.557
 6958SOL     OW22770   4.923  11.672   3.681
 6958SOL    HW122771   4.910  11.762   3.649
 6958SOL    HW222772   5.016  11.666   3.701
 6959SOL     OW22773   4.339  10.438   6.248
 6959SOL    HW122774   4.306  10.372   6.309
 6959SOL    HW222775   4.426  10.407   6.223
 6960SOL     OW22776   8.638   2.971   0.701
 6960SOL    HW122777   8.574   2.953   0.769
 6960SOL    HW222778   8.703   2.901   0.710
 6961SOL     OW22779  12.816  13.214   8.916
 6961SOL    HW122780  12.901  13.178   8.890
 6961SOL    HW222781  12.835  13.304   8.943
 6962SOL     OW22782   3.788   3.610  13.064
 6962SOL    HW122783   3.767   3.702  13.075
 6962SOL    HW222784   3.881   3.609  13.041
 6963SOL     OW22785   4.258  13.715   0.144
 6963SOL    HW122786   4.303  13.676   0.219
 6963SOL    HW222787   4.175  13.747   0.179
 6964SOL     OW22788  14.572  12.920   5.144
 6964SOL    HW122789  14.606  12.947   5.058
 6964SOL    HW222790  14.646  12.873   5.184
 6965SOL     OW22791   7.816   8.044  12.035
 6965SOL    HW122792   7.847   8.117  12.088
 6965SOL    HW222793   7.724   8.034  12.059
 6966SOL     OW22794   7.429   0.574   5.220
 6966SOL    HW122795   7.412   0.589   5.127
 6966SOL    HW222796   7.360   0.622   5.264
 6967SOL     OW22797  10.749   8.953   5.654
 6967SOL    HW122798  10.667   8.933   5.608
 6967SOL    HW222799  10.802   9.001   5.590
 6968SOL     OW22800  11.853   8.382   8.196
 6968SOL    HW122801  11.918   8.449   8.172
 6968SOL    HW222802  11.798   8.373   8.117
 6969SOL     OW22803   5.955  14.757   5.311
 6969SOL    HW122804   5.957  14.738   5.405
 6969SOL    HW222805   6.047  14.768   5.287
 6970SOL     OW22806   9.302   7.176  13.309
 6970SOL    HW122807   9.266   7.107  13.254
 6970SOL    HW222808   9.274   7.257  13.267
 6971SOL     OW22809   6.517   7.151  10.687
 6971SOL    HW122810   6.496   7.124  10.776
 6971SOL    HW222811   6.612   7.142  10.681
 6972SOL     OW22812   8.136   3.926  12.350
 6972SOL    HW122813   8.141   3.908  12.443
 6972SOL    HW222814   8.193   4.003  12.338
 6973SOL     OW22815   7.072   3.948   0.218
 6973SOL    HW122816   7.057   4.030   0.265
 6973SOL    HW222817   7.079   3.882   0.287
 6974SOL     OW22818  13.772   1.567   9.212
 6974SOL    HW122819  13.718   1.490   9.227
 6974SOL    HW222820  13.715   1.628   9.165
 6975SOL     OW22821   8.802   2.697  12.078
 6975SOL    HW122822   8.864   2.651  12.022
 6975SOL    HW222823   8.815   2.789  12.057
 6976SOL     OW22824   1.555  12.147   6.258
 6976SOL    HW122825   1.483  12.189   6.211
 6976SOL    HW222826   1.599  12.093   6.192
 6977SOL     OW22827  14.108   6.096  12.447
 6977SOL    HW122828  14.053   6.049  12.510
 6977SOL    HW222829  14.171   6.030  12.416
 6978SOL     OW22830  13.581   1.804   4.799
 6978SOL    HW122831  13.518   1.750   4.752
 6978SOL    HW222832  13.564   1.893   4.767
 6979SOL     OW22833   3.508   1.921   0.716
 6979SOL    HW122834   3.462   1.897   0.635
 6979SOL    HW222835   3.582   1.974   0.687
 6980SOL     OW22836   6.110   4.713   6.176
 6980SOL    HW122837   6.166   4.786   6.152
 6980SOL    HW222838   6.029   4.728   6.127
 6981SOL     OW22839   7.275  14.083   7.161
 6981SOL    HW122840   7.340  14.105   7.228
 6981SOL    HW222841   7.193  14.119   7.195
 6982SOL     OW22842   7.189   4.662   7.182
 6982SOL    HW122843   7.167   4.622   7.097
 6982SOL    HW222844   7.119   4.726   7.197
 6983SOL     OW22845  13.263   0.912   4.684
 6983SOL    HW122846  13.268   0.924   4.589
 6983SOL    HW222847  13.187   0.964   4.711
 6984SOL     OW22848  14.413   5.394   0.285
 6984SOL    HW122849  14.415   5.483   0.320
 6984SOL    HW222850  14.491   5.389   0.229
 6985SOL     OW22851  10.674   9.598   6.714
 6985SOL    HW122852  10.696   9.516   6.670
 6985SOL    HW222853  10.754   9.650   6.707
 6986SOL     OW22854   5.309  12.331   3.519
 6986SOL    HW122855   5.363  12.396   3.564
 6986SOL    HW222856   5.270  12.378   3.445
 6987SOL     OW22857   0.823  12.237   6.853
 6987SOL    HW122858   0.821  12.327   6.886
 6987SOL    HW222859   0.813  12.246   6.759
 6988SOL     OW22860  10.878  12.055   5.144
 6988SOL    HW122861  10.882  12.144   5.178
 6988SOL    HW222862  10.892  12.065   5.050
 6989SOL     OW22863  10.793  13.813  12.011
 6989SOL    HW122864  10.765  13.899  11.977
 6989SOL    HW222865  10.780  13.753  11.937
 6990SOL     OW22866   9.307  13.454   4.823
 6990SOL    HW122867   9.300  13.493   4.736
 6990SOL    HW222868   9.400  13.439   4.836
 6991SOL     OW22869   1.192  12.086   6.648
 6991SOL    HW122870   1.244  12.045   6.578
 6991SOL    HW222871   1.104  12.093   6.611
 6992SOL     OW22872   3.085   8.782  12.596
 6992SOL    HW122873   3.010   8.767  12.654
 6992SOL    HW222874   3.058   8.744  12.512
 6993SOL     OW22875  10.626   9.579  11.266
 6993SOL    HW122876  10.536   9.566  11.297
 6993SOL    HW222877  10.617   9.596  11.172
 6994SOL     OW22878   1.255  13.179   2.511
 6994SOL    HW122879   1.220  13.097   2.476
 6994SOL    HW222880   1.341  13.156   2.545
 6995SOL     OW22881  14.588   0.809   7.837
 6995SOL    HW122882  14.542   0.784   7.757
 6995SOL    HW222883  14.622   0.726   7.872
 6996SOL     OW22884  13.514   5.687  11.132
 6996SOL    HW122885  13.521   5.660  11.224
 6996SOL    HW222886  13.451   5.625  11.094
 6997SOL     OW22887   5.195   9.946  14.491
 6997SOL    HW122888   5.246   9.866  14.495
 6997SOL    HW222889   5.104   9.917  14.482
 6998SOL     OW22890  10.450   0.069   2.610
 6998SOL    HW122891  10.511   0.006   2.648
 6998SOL    HW222892  10.500   0.114   2.542
 6999SOL     OW22893   2.559  12.282   8.341
 6999SOL    HW122894   2.649  12.315   8.346
 6999SOL    HW222895   2.538  12.284   8.247
 7000SOL     OW22896   0.522  12.323  13.918
 7000SOL    HW122897   0.456  12.374  13.965
 7000SOL    HW222898   0.521  12.359  13.829
 7001SOL     OW22899   9.992  14.500  11.738
 7001SOL    HW122900   9.909  14.539  11.711
 7001SOL    HW222901   9.969  14.444  11.813
 7002SOL     OW22902  14.384  11.790   1.425
 7002SOL    HW122903  14.362  11.800   1.518
 7002SOL    HW222904  14.430  11.706   1.420
 7003SOL     OW22905   4.674  11.020   7.191
 7003SOL    HW122906   4.600  11.072   7.224
 7003SOL    HW222907   4.666  10.936   7.237
 7004SOL     OW22908  13.155  10.537  10.403
 7004SOL    HW122909  13.110  10.620  10.391
 7004SOL    HW222910  13.244  10.560  10.431
 7005SOL     OW22911   8.532   4.277  12.708
 7005SOL    HW122912   8.507   4.317  12.625
 7005SOL    HW222913   8.610   4.326  12.736
 7006SOL     OW22914   9.840   1.793   9.627
 7006SOL    HW122915   9.775   1.746   9.575
 7006SOL    HW222916   9.924   1.765   9.591
 7007SOL     OW22917   0.855  10.497   2.616
 7007SOL    HW122918   0.790  10.434   2.646
 7007SOL    HW222919   0.859  10.562   2.687
 7008SOL     OW22920   0.686   3.948   7.365
 7008SOL    HW122921   0.657   3.971   7.277
 7008SOL    HW222922   0.606   3.930   7.414
 7009SOL     OW22923   9.172   4.041  12.991
 7009SOL    HW122924   9.171   4.134  13.013
 7009SOL    HW222925   9.080   4.017  12.984
 7010SOL     OW22926  13.803   0.947  10.928
 7010SOL    HW122927  13.855   0.992  10.862
 7010SOL    HW222928  13.766   1.017  10.982
 7011SOL     OW22929   2.544   5.798   5.638
 7011SOL    HW122930   2.541   5.878   5.585
 7011SOL    HW222931   2.505   5.823   5.722
 7012SOL     OW22932   8.531   0.814   8.479
 7012SOL    HW122933   8.488   0.776   8.556
 7012SOL    HW222934   8.578   0.889   8.513
 7013SOL     OW22935   2.220  12.347   4.289
 7013SOL    HW122936   2.145  12.357   4.230
 7013SOL    HW222937   2.211  12.259   4.324
 7014SOL     OW22938   4.682   0.692   7.473
 7014SOL    HW122939   4.616   0.761   7.475
 7014SOL    HW222940   4.635   0.614   7.444
 7015SOL     OW22941  10.360  13.338   6.842
 7015SOL    HW122942  10.381  13.381   6.925
 7015SOL    HW222943  10.387  13.400   6.775
 7016SOL     OW22944  10.643   8.416   8.538
 7016SOL    HW122945  10.686   8.471   8.473
 7016SOL    HW222946  10.674   8.450   8.622
 7017SOL     OW22947  13.217   5.506   6.052
 7017SOL    HW122948  13.255   5.578   6.102
 7017SOL    HW222949  13.252   5.517   5.964
 7018SOL     OW22950   1.484  14.324  12.427
 7018SOL    HW122951   1.577  14.316  12.404
 7018SOL    HW222952   1.442  14.355  12.346
 7019SOL     OW22953   2.762   8.010   2.322
 7019SOL    HW122954   2.792   8.101   2.332
 7019SOL    HW222955   2.679   8.017   2.276
 7020SOL     OW22956   0.548   5.956  13.503
 7020SOL    HW122957   0.484   6.026  13.515
 7020SOL    HW222958   0.584   5.970  13.416
 7021SOL     OW22959   5.539   4.185  10.936
 7021SOL    HW122960   5.499   4.166  10.852
 7021SOL    HW222961   5.526   4.279  10.948
 7022SOL     OW22962   1.641   6.692  13.788
 7022SOL    HW122963   1.662   6.784  13.804
 7022SOL    HW222964   1.653   6.650  13.874
 7023SOL     OW22965   2.156   5.541  12.629
 7023SOL    HW122966   2.213   5.608  12.666
 7023SOL    HW222967   2.136   5.483  12.703
 7024SOL     OW22968   2.396   0.363   8.691
 7024SOL    HW122969   2.345   0.364   8.610
 7024SOL    HW222970   2.407   0.270   8.711
 7025SOL     OW22971   5.680   9.211   4.222
 7025SOL    HW122972   5.609   9.274   4.234
 7025SOL    HW222973   5.745   9.234   4.289
 7026SOL     OW22974   8.673   0.488   8.667
 7026SOL    HW122975   8.686   0.471   8.573
 7026SOL    HW222976   8.682   0.403   8.709
 7027SOL     OW22977  13.431  13.804   7.090
 7027SOL    HW122978  13.381  13.780   7.169
 7027SOL    HW222979  13.499  13.863   7.123
 7028SOL     OW22980  12.049  14.392   6.209
 7028SOL    HW122981  12.048  14.472   6.261
 7028SOL    HW222982  12.118  14.338   6.248
 7029SOL     OW22983   6.789  13.361   6.768
 7029SOL    HW122984   6.707  13.410   6.774
 7029SOL    HW222985   6.851  13.411   6.821
 7030SOL     OW22986  12.432   2.876   9.900
 7030SOL    HW122987  12.362   2.933   9.933
 7030SOL    HW222988  12.414   2.868   9.807
 7031SOL     OW22989   7.683  14.690   6.662
 7031SOL    HW122990   7.629  14.769   6.668
 7031SOL    HW222991   7.640  14.628   6.721
 7032SOL     OW22992   8.209   6.316   8.674
 7032SOL    HW122993   8.275   6.332   8.743
 7032SOL    HW222994   8.216   6.222   8.657
 7033SOL     OW22995   0.635   3.056   8.861
 7033SOL    HW122996   0.623   2.966   8.892
 7033SOL    HW222997   0.726   3.076   8.884
 7034SOL     OW22998   7.165   8.479   8.278
 7034SOL    HW122999   7.186   8.465   8.371
 7034SOL    HW223000   7.086   8.428   8.264
 7035SOL     OW23001  13.877   0.814   6.122
 7035SOL    HW123002  13.863   0.823   6.028
 7035SOL    HW223003  13.903   0.723   6.134
 7036SOL     OW23004   0.548   0.442   4.505
 7036SOL    HW123005   0.635   0.472   4.531
 7036SOL    HW223006   0.491   0.517   4.523
 7037SOL     OW23007   9.211   6.960   1.728
 7037SOL    HW123008   9.249   6.929   1.810
 7037SOL    HW223009   9.231   7.054   1.726
 7038SOL     OW23010  14.839   3.372  12.035
 7038SOL    HW123011   0.046   3.418  12.016
 7038SOL    HW223012  14.803   3.418  12.112
 7039SOL     OW23013   9.067   6.297   3.848
 7039SOL    HW123014   9.104   6.300   3.760
 7039SOL    HW223015   9.097   6.213   3.883
 7040SOL     OW23016   5.101  14.162   1.154
 7040SOL    HW123017   5.020  14.134   1.112
 7040SOL    HW223018   5.124  14.243   1.110
 7041SOL     OW23019  11.085   8.676   9.200
 7041SOL    HW123020  11.117   8.733   9.270
 7041SOL    HW223021  10.995   8.705   9.185
 7042SOL     OW23022   1.265  13.581   9.525
 7042SOL    HW123023   1.275  13.612   9.435
 7042SOL    HW223024   1.354  13.569   9.556
 7043SOL     OW23025   6.945   3.700   4.164
 7043SOL    HW123026   6.987   3.786   4.164
 7043SOL    HW223027   6.971   3.661   4.080
 7044SOL     OW23028   2.114   6.034  11.102
 7044SOL    HW123029   2.113   6.049  11.007
 7044SOL    HW223030   2.147   6.116  11.139
 7045SOL     OW23031   6.130   3.598   9.328
 7045SOL    HW123032   6.076   3.524   9.299
 7045SOL    HW223033   6.094   3.622   9.413
 7046SOL     OW23034  14.243   4.893   9.151
 7046SOL    HW123035  14.282   4.971   9.111
 7046SOL    HW223036  14.203   4.925   9.232
 7047SOL     OW23037   1.167   9.764   7.517
 7047SOL    HW123038   1.252   9.724   7.495
 7047SOL    HW223039   1.186   9.820   7.592
 7048SOL     OW23040  10.118   6.036   7.181
 7048SOL    HW123041  10.183   6.022   7.251
 7048SOL    HW223042  10.088   5.948   7.159
 7049SOL     OW23043   1.080  11.072   4.590
 7049SOL    HW123044   1.092  11.048   4.498
 7049SOL    HW223045   1.000  11.125   4.591
 7050SOL     OW23046  13.959  13.765   4.795
 7050SOL    HW123047  14.032  13.719   4.753
 7050SOL    HW223048  13.882  13.737   4.744
 7051SOL     OW23049  12.830   5.643   1.574
 7051SOL    HW123050  12.888   5.572   1.546
 7051SOL    HW223051  12.760   5.643   1.509
 7052SOL     OW23052   1.241  10.596   2.599
 7052SOL    HW123053   1.215  10.505   2.615
 7052SOL    HW223054   1.164  10.648   2.623
 7053SOL     OW23055  13.471   4.637  11.752
 7053SOL    HW123056  13.389   4.642  11.703
 7053SOL    HW223057  13.451   4.580  11.826
 7054SOL     OW23058  12.158   8.926   7.734
 7054SOL    HW123059  12.130   8.869   7.805
 7054SOL    HW223060  12.077   8.963   7.700
 7055SOL     OW23061   3.279   0.120   3.725
 7055SOL    HW123062   3.197   0.169   3.720
 7055SOL    HW223063   3.314   0.122   3.636
 7056SOL     OW23064   5.625   2.440   0.585
 7056SOL    HW123065   5.622   2.524   0.541
 7056SOL    HW223066   5.621   2.375   0.514
 7057SOL     OW23067   3.310   8.860  14.402
 7057SOL    HW123068   3.387   8.869  14.458
 7057SOL    HW223069   3.327   8.920  14.329
 7058SOL     OW23070  10.999  12.631  11.263
 7058SOL    HW123071  10.956  12.547  11.280
 7058SOL    HW223072  11.063  12.640  11.334
 7059SOL     OW23073   2.216   1.720  11.060
 7059SOL    HW123074   2.180   1.646  11.011
 7059SOL    HW223075   2.274   1.681  11.125
 7060SOL     OW23076  10.917   2.718   6.662
 7060SOL    HW123077  10.867   2.637   6.667
 7060SOL    HW223078  10.944   2.724   6.570
 7061SOL     OW23079   7.966   9.324   0.582
 7061SOL    HW123080   7.985   9.270   0.505
 7061SOL    HW223081   7.908   9.393   0.550
 7062SOL     OW23082   6.057  11.747   1.588
 7062SOL    HW123083   5.972  11.712   1.561
 7062SOL    HW223084   6.079  11.810   1.520
 7063SOL     OW23085   0.344  10.944  13.307
 7063SOL    HW123086   0.431  10.908  13.289
 7063SOL    HW223087   0.347  11.032  13.271
 7064SOL     OW23088  11.275  14.447  13.371
 7064SOL    HW123089  11.258  14.447  13.465
 7064SOL    HW223090  11.268  14.355  13.345
 7065SOL     OW23091   7.262   6.151  12.585
 7065SOL    HW123092   7.173   6.115  12.582
 7065SOL    HW223093   7.318   6.078  12.561
 7066SOL     OW23094  13.947   2.143   0.479
 7066SOL    HW123095  13.970   2.236   0.468
 7066SOL    HW223096  13.854   2.139   0.460
 7067SOL     OW23097   7.249   9.147   7.865
 7067SOL    HW123098   7.179   9.200   7.903
 7067SOL    HW223099   7.298   9.114   7.941
 7068SOL     OW23100  14.211   1.047  13.303
 7068SOL    HW123101  14.151   1.068  13.375
 7068SOL    HW223102  14.240   1.132  13.271
 7069SOL     OW23103   0.083   2.769   5.309
 7069SOL    HW123104   0.104   2.718   5.387
 7069SOL    HW223105   0.103   2.710   5.236
 7070SOL     OW23106  13.499   9.773   2.733
 7070SOL    HW123107  13.553   9.794   2.809
 7070SOL    HW223108  13.419   9.734   2.770
 7071SOL     OW23109  11.471  13.747   5.099
 7071SOL    HW123110  11.396  13.740   5.159
 7071SOL    HW223111  11.449  13.821   5.043
 7072SOL     OW23112  12.711  12.455   3.275
 7072SOL    HW123113  12.627  12.478   3.315
 7072SOL    HW223114  12.776  12.503   3.326
 7073SOL     OW23115  13.581   2.923   7.084
 7073SOL    HW123116  13.644   2.891   7.149
 7073SOL    HW223117  13.525   2.983   7.133
 7074SOL     OW23118   5.803  14.235   3.929
 7074SOL    HW123119   5.714  14.214   3.961
 7074SOL    HW223120   5.857  14.165   3.965
 7075SOL     OW23121  14.701  13.722  12.855
 7075SOL    HW123122  14.613  13.732  12.819
 7075SOL    HW223123  14.750  13.798  12.823
 7076SOL     OW23124   7.966   7.767   3.961
 7076SOL    HW123125   7.950   7.694   3.901
 7076SOL    HW223126   7.959   7.728   4.049
 7077SOL     OW23127   8.605  12.788  11.204
 7077SOL    HW123128   8.697  12.812  11.214
 7077SOL    HW223129   8.566  12.805  11.289
 7078SOL     OW23130  13.926   4.712   1.177
 7078SOL    HW123131  13.837   4.747   1.175
 7078SOL    HW223132  13.977   4.775   1.127
 7079SOL     OW23133  14.322  13.067   6.119
 7079SOL    HW123134  14.367  13.005   6.062
 7079SOL    HW223135  14.311  13.146   6.066
 7080SOL     OW23136   4.527   2.161   9.794
 7080SOL    HW123137   4.592   2.171   9.724
 7080SOL    HW223138   4.569   2.103   9.857
 7081SOL     OW23139   9.357   7.492  12.990
 7081SOL    HW123140   9.264   7.507  13.008
 7081SOL    HW223141   9.357   7.430  12.917
 7082SOL     OW23142  13.486   2.941  13.516
 7082SOL    HW123143  13.480   2.974  13.605
 7082SOL    HW223144  13.400   2.961  13.477
 7083SOL     OW23145   6.795   9.019  14.349
 7083SOL    HW123146   6.814   8.959  14.277
 7083SOL    HW223147   6.791   8.963  14.427
 7084SOL     OW23148   8.804   7.212   5.630
 7084SOL    HW123149   8.738   7.199   5.698
 7084SOL    HW223150   8.884   7.234   5.678
 7085SOL     OW23151   2.956  13.141   5.258
 7085SOL    HW123152   3.032  13.121   5.203
 7085SOL    HW223153   2.890  13.173   5.196
 7086SOL     OW23154   2.992   1.154  14.358
 7086SOL    HW123155   3.075   1.114  14.384
 7086SOL    HW223156   2.997   1.243  14.395
 7087SOL     OW23157   2.106   3.877  11.498
 7087SOL    HW123158   2.043   3.844  11.561
 7087SOL    HW223159   2.132   3.962  11.532
 7088SOL     OW23160  10.370  10.587   9.135
 7088SOL    HW123161  10.289  10.564   9.182
 7088SOL    HW223162  10.437  10.531   9.174
 7089SOL     OW23163   0.460  10.236  14.396
 7089SOL    HW123164   0.482  10.201  14.310
 7089SOL    HW223165   0.417  10.319  14.378
 7090SOL     OW23166  12.534   9.200  11.898
 7090SOL    HW123167  12.542   9.261  11.971
 7090SOL    HW223168  12.614   9.148  11.901
 7091SOL     OW23169   9.700   5.682   2.843
 7091SOL    HW123170   9.650   5.638   2.775
 7091SOL    HW223171   9.634   5.720   2.901
 7092SOL     OW23172   6.446  12.456   8.762
 7092SOL    HW123173   6.398  12.377   8.787
 7092SOL    HW223174   6.521  12.424   8.712
 7093SOL     OW23175   2.873  13.369   8.506
 7093SOL    HW123176   2.866  13.398   8.415
 7093SOL    HW223177   2.902  13.278   8.500
 7094SOL     OW23178  10.408  13.151   3.780
 7094SOL    HW123179  10.324  13.193   3.761
 7094SOL    HW223180  10.471  13.223   3.780
 7095SOL     OW23181  10.245   6.307  14.809
 7095SOL    HW123182  10.204   6.389  14.782
 7095SOL    HW223183  10.339   6.322  14.800
 7096SOL     OW23184  13.865  13.500   4.955
 7096SOL    HW123185  13.947  13.452   4.944
 7096SOL    HW223186  13.860  13.558   4.879
 7097SOL     OW23187   7.883  13.522   3.259
 7097SOL    HW123188   7.880  13.529   3.355
 7097SOL    HW223189   7.814  13.580   3.229
 7098SOL     OW23190   7.720   6.705  13.723
 7098SOL    HW123191   7.747   6.690  13.632
 7098SOL    HW223192   7.726   6.800  13.734
 7099SOL     OW23193  12.017  11.725  12.644
 7099SOL    HW123194  12.011  11.817  12.621
 7099SOL    HW223195  12.110  11.704  12.636
 7100SOL     OW23196   4.538   6.443   7.412
 7100SOL    HW123197   4.490   6.487   7.341
 7100SOL    HW223198   4.559   6.514   7.473
 7101SOL     OW23199   3.309   1.158   9.221
 7101SOL    HW123200   3.399   1.126   9.226
 7101SOL    HW223201   3.318   1.247   9.187
 7102SOL     OW23202   3.881   7.305   9.216
 7102SOL    HW123203   3.907   7.237   9.154
 7102SOL    HW223204   3.806   7.269   9.262
 7103SOL     OW23205   4.311  10.081  10.062
 7103SOL    HW123206   4.310  10.062   9.968
 7103SOL    HW223207   4.331   9.997  10.103
 7104SOL     OW23208  12.832   8.019   4.549
 7104SOL    HW123209  12.799   8.017   4.460
 7104SOL    HW223210  12.782   7.951   4.595
 7105SOL     OW23211   4.178   5.757  12.319
 7105SOL    HW123212   4.168   5.663  12.331
 7105SOL    HW223213   4.120   5.796  12.384
 7106SOL     OW23214  11.360   9.124  12.562
 7106SOL    HW123215  11.285   9.104  12.617
 7106SOL    HW223216  11.413   9.044  12.564
 7107SOL     OW23217   6.850  12.122   3.343
 7107SOL    HW123218   6.756  12.121   3.361
 7107SOL    HW223219   6.863  12.051   3.279
 7108SOL     OW23220   7.075   2.444  10.255
 7108SOL    HW123221   7.137   2.516  10.238
 7108SOL    HW223222   7.047   2.457  10.345
 7109SOL     OW23223   4.541  11.939   3.603
 7109SOL    HW123224   4.595  11.868   3.639
 7109SOL    HW223225   4.558  11.937   3.509
 7110SOL     OW23226   9.199   7.729   8.524
 7110SOL    HW123227   9.191   7.803   8.584
 7110SOL    HW223228   9.111   7.693   8.517
 7111SOL     OW23229  11.069   1.335   3.520
 7111SOL    HW123230  11.154   1.378   3.528
 7111SOL    HW223231  11.084   1.266   3.455
 7112SOL     OW23232  11.151   7.936   2.423
 7112SOL    HW123233  11.087   7.955   2.355
 7112SOL    HW223234  11.100   7.893   2.492
 7113SOL     OW23235   4.531   4.786   4.428
 7113SOL    HW123236   4.500   4.760   4.515
 7113SOL    HW223237   4.531   4.882   4.429
 7114SOL     OW23238   1.485   9.945   5.901
 7114SOL    HW123239   1.473   9.931   5.807
 7114SOL    HW223240   1.579   9.960   5.911
 7115SOL     OW23241   9.933  12.154  13.352
 7115SOL    HW123242   9.967  12.070  13.318
 7115SOL    HW223243   9.945  12.215  13.280
 7116SOL     OW23244  10.959   7.208   6.410
 7116SOL    HW123245  10.870   7.210   6.375
 7116SOL    HW223246  11.014   7.196   6.332
 7117SOL     OW23247   5.238   7.938  14.269
 7117SOL    HW123248   5.320   7.911  14.310
 7117SOL    HW223249   5.181   7.962  14.342
 7118SOL     OW23250   2.494   3.393   5.553
 7118SOL    HW123251   2.525   3.331   5.487
 7118SOL    HW223252   2.543   3.370   5.632
 7119SOL     OW23253  11.520   0.564   8.674
 7119SOL    HW123254  11.592   0.517   8.631
 7119SOL    HW223255  11.481   0.500   8.733
 7120SOL     OW23256  13.782  14.457  11.679
 7120SOL    HW123257  13.778  14.468  11.584
 7120SOL    HW223258  13.874  14.436  11.697
 7121SOL     OW23259  10.023  12.548  12.304
 7121SOL    HW123260   9.935  12.513  12.311
 7121SOL    HW223261  10.024  12.625  12.361
 7122SOL     OW23262   6.199   4.902   7.388
 7122SOL    HW123263   6.250   4.922   7.466
 7122SOL    HW223264   6.109   4.896   7.418
 7123SOL     OW23265   3.959   1.719   3.882
 7123SOL    HW123266   3.971   1.814   3.873
 7123SOL    HW223267   3.951   1.687   3.793
 7124SOL     OW23268   7.484   1.984   3.275
 7124SOL    HW123269   7.479   2.067   3.226
 7124SOL    HW223270   7.571   1.985   3.315
 7125SOL     OW23271   1.770   8.004   6.589
 7125SOL    HW123272   1.678   7.982   6.601
 7125SOL    HW223273   1.813   7.921   6.569
 7126SOL     OW23274   4.445   9.094   2.778
 7126SOL    HW123275   4.479   9.057   2.859
 7126SOL    HW223276   4.504   9.167   2.758
 7127SOL     OW23277   7.450   2.463   3.812
 7127SOL    HW123278   7.471   2.430   3.899
 7127SOL    HW223279   7.535   2.474   3.769
 7128SOL     OW23280  14.747  12.037   2.927
 7128SOL    HW123281  14.708  12.033   3.015
 7128SOL    HW223282  14.728  12.126   2.897
 7129SOL     OW23283  12.944   9.948   6.075
 7129SOL    HW123284  12.980  10.025   6.032
 7129SOL    HW223285  12.946   9.880   6.008
 7130SOL     OW23286  13.335  11.416   8.474
 7130SOL    HW123287  13.299  11.329   8.490
 7130SOL    HW223288  13.278  11.453   8.407
 7131SOL     OW23289  11.292  12.688   2.557
 7131SOL    HW123290  11.352  12.687   2.482
 7131SOL    HW223291  11.205  12.677   2.518
 7132SOL     OW23292   7.402   4.552   9.752
 7132SOL    HW123293   7.435   4.494   9.821
 7132SOL    HW223294   7.450   4.527   9.674
 7133SOL     OW23295   0.977   7.796  12.809
 7133SOL    HW123296   1.004   7.770  12.721
 7133SOL    HW223297   0.952   7.888  12.800
 7134SOL     OW23298   1.583   0.745   7.693
 7134SOL    HW123299   1.663   0.780   7.732
 7134SOL    HW223300   1.513   0.790   7.740
 7135SOL     OW23301  13.245   5.520  10.588
 7135SOL    HW123302  13.176   5.454  10.593
 7135SOL    HW223303  13.325   5.470  10.572
 7136SOL     OW23304   8.376  14.145   5.799
 7136SOL    HW123305   8.283  14.122   5.803
 7136SOL    HW223306   8.377  14.240   5.793
 7137SOL     OW23307  12.791  10.752   3.722
 7137SOL    HW123308  12.732  10.825   3.703
 7137SOL    HW223309  12.874  10.777   3.680
 7138SOL     OW23310   1.343   8.564  14.855
 7138SOL    HW123311   1.304   8.543   0.064
 7138SOL    HW223312   1.434   8.588   0.001
 7139SOL     OW23313  12.632   1.293   2.524
 7139SOL    HW123314  12.716   1.308   2.569
 7139SOL    HW223315  12.647   1.214   2.472
 7140SOL     OW23316   7.773   8.470   6.705
 7140SOL    HW123317   7.858   8.426   6.707
 7140SOL    HW223318   7.771   8.520   6.787
 7141SOL     OW23319   7.759  13.699   9.597
 7141SOL    HW123320   7.695  13.754   9.553
 7141SOL    HW223321   7.811  13.661   9.526
 7142SOL     OW23322  12.078   6.829  11.181
 7142SOL    HW123323  12.141   6.870  11.239
 7142SOL    HW223324  12.015   6.898  11.160
 7143SOL     OW23325   7.673   0.466   2.435
 7143SOL    HW123326   7.666   0.389   2.379
 7143SOL    HW223327   7.582   0.491   2.452
 7144SOL     OW23328   3.127   1.072   7.159
 7144SOL    HW123329   3.191   1.086   7.229
 7144SOL    HW223330   3.166   1.004   7.104
 7145SOL     OW23331  14.451   3.115   0.462
 7145SOL    HW123332  14.542   3.141   0.448
 7145SOL    HW223333  14.431   3.060   0.386
 7146SOL     OW23334   8.542   6.530   8.804
 7146SOL    HW123335   8.506   6.455   8.851
 7146SOL    HW223336   8.546   6.501   8.713
 7147SOL     OW23337   4.078   6.206   6.823
 7147SOL    HW123338   4.156   6.157   6.848
 7147SOL    HW223339   4.020   6.200   6.899
 7148SOL     OW23340   4.052   8.482  12.420
 7148SOL    HW123341   4.021   8.552  12.478
 7148SOL    HW223342   4.050   8.520  12.332
 7149SOL     OW23343   4.011  10.050   0.971
 7149SOL    HW123344   3.919  10.048   0.996
 7149SOL    HW223345   4.011  10.044   0.875
 7150SOL     OW23346   5.390  10.427   6.400
 7150SOL    HW123347   5.473  10.383   6.378
 7150SOL    HW223348   5.417  10.502   6.453
 7151SOL     OW23349   2.979   6.952  11.398
 7151SOL    HW123350   2.902   6.900  11.421
 7151SOL    HW223351   2.985   6.946  11.303
 7152SOL     OW23352   6.070   3.469   8.209
 7152SOL    HW123353   5.987   3.487   8.252
 7152SOL    HW223354   6.131   3.534   8.244
 7153SOL     OW23355  10.708   2.975   4.796
 7153SOL    HW123356  10.691   2.972   4.891
 7153SOL    HW223357  10.692   3.066   4.771
 7154SOL     OW23358  14.361   9.253   4.645
 7154SOL    HW123359  14.278   9.240   4.692
 7154SOL    HW223360  14.422   9.192   4.688
 7155SOL     OW23361   3.424  12.894   5.844
 7155SOL    HW123362   3.342  12.940   5.829
 7155SOL    HW223363   3.402  12.801   5.838
 7156SOL     OW23364  14.469  13.458   1.527
 7156SOL    HW123365  14.432  13.464   1.440
 7156SOL    HW223366  14.471  13.364   1.546
 7157SOL     OW23367   6.324   7.485   1.877
 7157SOL    HW123368   6.302   7.521   1.963
 7157SOL    HW223369   6.415   7.455   1.886
 7158SOL     OW23370   7.338   4.013   4.726
 7158SOL    HW123371   7.297   4.048   4.647
 7158SOL    HW223372   7.320   4.078   4.794
 7159SOL     OW23373  11.830   4.612   3.735
 7159SOL    HW123374  11.807   4.556   3.662
 7159SOL    HW223375  11.865   4.553   3.801
 7160SOL     OW23376   5.748   2.541   1.570
 7160SOL    HW123377   5.776   2.611   1.512
 7160SOL    HW223378   5.807   2.546   1.645
 7161SOL     OW23379   2.748   0.961   0.752
 7161SOL    HW123380   2.775   1.048   0.781
 7161SOL    HW223381   2.783   0.953   0.664
 7162SOL     OW23382  12.732   6.958   5.393
 7162SOL    HW123383  12.825   6.946   5.410
 7162SOL    HW223384  12.706   6.880   5.345
 7163SOL     OW23385  12.879   0.144   0.543
 7163SOL    HW123386  12.849   0.080   0.608
 7163SOL    HW223387  12.801   0.195   0.522
 7164SOL     OW23388   6.654  13.170   8.134
 7164SOL    HW123389   6.575  13.116   8.130
 7164SOL    HW223390   6.657  13.203   8.223
 7165SOL     OW23391   6.720  12.222   3.661
 7165SOL    HW123392   6.648  12.269   3.618
 7165SOL    HW223393   6.726  12.139   3.614
 7166SOL     OW23394  10.675  12.721   6.063
 7166SOL    HW123395  10.744  12.696   6.125
 7166SOL    HW223396  10.720  12.723   5.978
 7167SOL     OW23397   3.396  12.079   4.489
 7167SOL    HW123398   3.353  11.994   4.489
 7167SOL    HW223399   3.339  12.135   4.437
 7168SOL     OW23400   7.141   0.157   1.920
 7168SOL    HW123401   7.073   0.098   1.888
 7168SOL    HW223402   7.121   0.170   2.012
 7169SOL     OW23403  13.825   3.997  12.795
 7169SOL    HW123404  13.790   3.911  12.773
 7169SOL    HW223405  13.754   4.042  12.839
 7170SOL     OW23406   7.075   7.285   8.692
 7170SOL    HW123407   7.016   7.245   8.756
 7170SOL    HW223408   7.149   7.226   8.687
 7171SOL     OW23409  14.596  11.986   8.975
 7171SOL    HW123410  14.537  12.047   8.930
 7171SOL    HW223411  14.683  12.010   8.943
 7172SOL     OW23412   5.635  10.146  13.888
 7172SOL    HW123413   5.654  10.240  13.881
 7172SOL    HW223414   5.581  10.138  13.967
 7173SOL     OW23415  11.608   1.936   1.660
 7173SOL    HW123416  11.549   1.909   1.729
 7173SOL    HW223417  11.575   1.893   1.581
 7174SOL     OW23418   8.051   7.715   9.974
 7174SOL    HW123419   8.045   7.805  10.007
 7174SOL    HW223420   8.139   7.685  10.001
 7175SOL     OW23421   7.758  12.410   1.995
 7175SOL    HW123422   7.816  12.423   2.070
 7175SOL    HW223423   7.687  12.474   2.009
 7176SOL     OW23424  10.800  11.643   7.659
 7176SOL    HW123425  10.778  11.642   7.566
 7176SOL    HW223426  10.876  11.701   7.665
 7177SOL     OW23427   8.359   2.772  10.830
 7177SOL    HW123428   8.337   2.864  10.818
 7177SOL    HW223429   8.277   2.731  10.859
 7178SOL     OW23430  13.940   0.859   3.254
 7178SOL    HW123431  14.020   0.899   3.288
 7178SOL    HW223432  13.887   0.933   3.223
 7179SOL     OW23433  14.073   5.275  13.607
 7179SOL    HW123434  14.025   5.357  13.592
 7179SOL    HW223435  14.033   5.238  13.686
 7180SOL     OW23436   2.307  10.740   9.544
 7180SOL    HW123437   2.374  10.717   9.480
 7180SOL    HW223438   2.284  10.830   9.524
 7181SOL     OW23439  11.764   3.015  14.630
 7181SOL    HW123440  11.674   3.023  14.599
 7181SOL    HW223441  11.781   3.098  14.675
 7182SOL     OW23442  10.987   1.852   8.147
 7182SOL    HW123443  10.987   1.761   8.117
 7182SOL    HW223444  10.930   1.853   8.224
 7183SOL     OW23445  12.304   0.873  11.640
 7183SOL    HW123446  12.282   0.956  11.598
 7183SOL    HW223447  12.383   0.844  11.595
 7184SOL     OW23448   4.273   9.142  12.068
 7184SOL    HW123449   4.266   9.060  12.116
 7184SOL    HW223450   4.204   9.197  12.105
 7185SOL     OW23451  11.844  12.844  11.275
 7185SOL    HW123452  11.917  12.905  11.263
 7185SOL    HW223453  11.881  12.771  11.325
 7186SOL     OW23454   4.742  12.282   9.702
 7186SOL    HW123455   4.664  12.328   9.670
 7186SOL    HW223456   4.800  12.353   9.732
 7187SOL     OW23457   5.071  12.208   7.556
 7187SOL    HW123458   5.076  12.192   7.461
 7187SOL    HW223459   5.126  12.285   7.570
 7188SOL     OW23460   6.388   4.019   6.235
 7188SOL    HW123461   6.474   4.043   6.201
 7188SOL    HW223462   6.327   4.041   6.165
 7189SOL     OW23463  11.517  12.468   4.935
 7189SOL    HW123464  11.549  12.409   5.004
 7189SOL    HW223465  11.438  12.425   4.902
 7190SOL     OW23466   4.203  14.227   8.978
 7190SOL    HW123467   4.166  14.173   9.047
 7190SOL    HW223468   4.293  14.196   8.968
 7191SOL     OW23469  14.790   5.416  10.533
 7191SOL    HW123470  14.765   5.459  10.451
 7191SOL    HW223471  14.735   5.339  10.538
 7192SOL     OW23472  10.356   3.866   9.941
 7192SOL    HW123473  10.430   3.811   9.969
 7192SOL    HW223474  10.279   3.813   9.959
 7193SOL     OW23475   9.059  11.650  10.613
 7193SOL    HW123476   9.045  11.691  10.699
 7193SOL    HW223477   9.010  11.568  10.618
 7194SOL     OW23478   5.777  14.682  11.622
 7194SOL    HW123479   5.689  14.708  11.648
 7194SOL    HW223480   5.833  14.751  11.655
 7195SOL     OW23481   8.339  12.339   3.366
 7195SOL    HW123482   8.419  12.351   3.416
 7195SOL    HW223483   8.270  12.334   3.432
 7196SOL     OW23484   9.917   0.014  11.392
 7196SOL    HW123485   9.967   0.059  11.459
 7196SOL    HW223486   9.980   0.000  11.321
 7197SOL     OW23487   1.013  14.158   8.864
 7197SOL    HW123488   0.920  14.173   8.845
 7197SOL    HW223489   1.039  14.089   8.804
 7198SOL     OW23490  12.935   4.129   9.554
 7198SOL    HW123491  12.877   4.188   9.602
 7198SOL    HW223492  12.904   4.041   9.576
 7199SOL     OW23493  10.179  13.562  12.504
 7199SOL    HW123494  10.243  13.532  12.440
 7199SOL    HW223495  10.229  13.568  12.586
 7200SOL     OW23496   4.561   6.912   9.569
 7200SOL    HW123497   4.521   6.863   9.642
 7200SOL    HW223498   4.634   6.959   9.609
 7201SOL     OW23499   7.086   3.725   9.426
 7201SOL    HW123500   7.113   3.814   9.405
 7201SOL    HW223501   7.003   3.736   9.473
 7202SOL     OW23502  11.208   9.810  12.035
 7202SOL    HW123503  11.174   9.766  12.113
 7202SOL    HW223504  11.276   9.751  12.002
 7203SOL     OW23505  14.111   4.776  14.108
 7203SOL    HW123506  14.055   4.700  14.121
 7203SOL    HW223507  14.108   4.793  14.014
 7204SOL     OW23508  13.257   9.974   4.918
 7204SOL    HW123509  13.280   9.884   4.941
 7204SOL    HW223510  13.260  10.021   5.001
 7205SOL     OW23511   3.045   6.967  12.304
 7205SOL    HW123512   3.060   6.879  12.340
 7205SOL    HW223513   3.013   6.951  12.215
 7206SOL     OW23514   8.624  12.649   3.591
 7206SOL    HW123515   8.535  12.635   3.556
 7206SOL    HW223516   8.631  12.589   3.665
 7207SOL     OW23517   8.161   0.801   5.302
 7207SOL    HW123518   8.145   0.715   5.341
 7207SOL    HW223519   8.179   0.858   5.377
 7208SOL     OW23520   9.454   5.733   3.026
 7208SOL    HW123521   9.394   5.787   2.975
 7208SOL    HW223522   9.401   5.660   3.056
 7209SOL     OW23523   8.121   4.299   1.059
 7209SOL    HW123524   8.159   4.381   1.026
 7209SOL    HW223525   8.186   4.232   1.036
 7210SOL     OW23526   6.118  10.357   9.637
 7210SOL    HW123527   6.083  10.446   9.644
 7210SOL    HW223528   6.198  10.359   9.689
 7211SOL     OW23529   9.595   3.512  13.390
 7211SOL    HW123530   9.539   3.579  13.430
 7211SOL    HW223531   9.573   3.514  13.297
 7212SOL     OW23532  10.648   4.205  12.734
 7212SOL    HW123533  10.560   4.213  12.770
 7212SOL    HW223534  10.702   4.180  12.809
 7213SOL     OW23535  11.998   1.203  14.278
 7213SOL    HW123536  11.978   1.112  14.257
 7213SOL    HW223537  12.085   1.218  14.242
 7214SOL     OW23538   2.956  14.229   0.575
 7214SOL    HW123539   2.877  14.234   0.628
 7214SOL    HW223540   2.987  14.320   0.568
 7215SOL     OW23541  14.352   5.204  12.785
 7215SOL    HW123542  14.265   5.237  12.763
 7215SOL    HW223543  14.409   5.281  12.777
 7216SOL     OW23544   2.628   2.886   8.517
 7216SOL    HW123545   2.535   2.908   8.531
 7216SOL    HW223546   2.627   2.796   8.486
 7217SOL     OW23547   1.844   0.031   9.647
 7217SOL    HW123548   1.768   0.042   9.591
 7217SOL    HW223549   1.882   0.119   9.653
 7218SOL     OW23550   1.539   7.685   2.923
 7218SOL    HW123551   1.633   7.671   2.934
 7218SOL    HW223552   1.525   7.680   2.828
 7219SOL     OW23553   7.614  11.971  11.368
 7219SOL    HW123554   7.604  12.050  11.315
 7219SOL    HW223555   7.537  11.919  11.348
 7220SOL     OW23556   6.905   4.049  11.936
 7220SOL    HW123557   6.820   4.091  11.946
 7220SOL    HW223558   6.956   4.109  11.882
 7221SOL     OW23559  10.430   0.706   5.395
 7221SOL    HW123560  10.496   0.770   5.367
 7221SOL    HW223561  10.397   0.669   5.313
 7222SOL     OW23562   5.730   7.900   7.141
 7222SOL    HW123563   5.816   7.909   7.182
 7222SOL    HW223564   5.749   7.878   7.050
 7223SOL     OW23565  10.170   9.041  14.286
 7223SOL    HW123566  10.121   8.990  14.351
 7223SOL    HW223567  10.152   9.132  14.309
 7224SOL     OW23568  14.390  13.201  14.448
 7224SOL    HW123569  14.385  13.188  14.354
 7224SOL    HW223570  14.453  13.136  14.478
 7225SOL     OW23571   1.817   7.793   7.320
 7225SOL    HW123572   1.765   7.820   7.244
 7225SOL    HW223573   1.760   7.735   7.369
 7226SOL     OW23574   2.959  12.082  13.211
 7226SOL    HW123575   3.050  12.063  13.235
 7226SOL    HW223576   2.962  12.170  13.173
 7227SOL     OW23577   1.385   2.577  14.441
 7227SOL    HW123578   1.324   2.639  14.401
 7227SOL    HW223579   1.448   2.631  14.487
 7228SOL     OW23580   6.717   3.230   3.111
 7228SOL    HW123581   6.690   3.318   3.083
 7228SOL    HW223582   6.728   3.238   3.205
 7229SOL     OW23583   9.658   2.192  13.273
 7229SOL    HW123584   9.650   2.101  13.243
 7229SOL    HW223585   9.649   2.244  13.193
 7230SOL     OW23586   3.189  13.062   9.376
 7230SOL    HW123587   3.252  13.040   9.307
 7230SOL    HW223588   3.222  13.018   9.454
 7231SOL     OW23589  10.195  12.381   2.443
 7231SOL    HW123590  10.209  12.441   2.370
 7231SOL    HW223591  10.114  12.335   2.421
 7232SOL     OW23592   2.851   5.566   1.498
 7232SOL    HW123593   2.811   5.501   1.439
 7232SOL    HW223594   2.875   5.516   1.576
 7233SOL     OW23595   6.863  11.628   8.577
 7233SOL    HW123596   6.900  11.581   8.503
 7233SOL    HW223597   6.776  11.654   8.547
 7234SOL     OW23598   2.082  11.863   3.937
 7234SOL    HW123599   2.074  11.861   4.032
 7234SOL    HW223600   2.016  11.926   3.909
 7235SOL     OW23601  14.802   5.851  13.063
 7235SOL    HW123602  14.748   5.905  13.005
 7235SOL    HW223603  14.753   5.847  13.145
 7236SOL     OW23604   2.621   4.856   0.415
 7236SOL    HW123605   2.679   4.842   0.341
 7236SOL    HW223606   2.557   4.919   0.384
 7237SOL     OW23607  12.978   1.151  10.360
 7237SOL    HW123608  12.891   1.187  10.339
 7237SOL    HW223609  13.037   1.194  10.298
 7238SOL     OW23610  14.471  10.076   1.907
 7238SOL    HW123611  14.512  10.026   1.977
 7238SOL    HW223612  14.418  10.142   1.952
 7239SOL     OW23613   9.272  11.309  11.373
 7239SOL    HW123614   9.207  11.379  11.365
 7239SOL    HW223615   9.242  11.242  11.312
 7240SOL     OW23616  13.374  10.370   5.927
 7240SOL    HW123617  13.416  10.452   5.953
 7240SOL    HW223618  13.406  10.306   5.991
 7241SOL     OW23619   9.110  11.609  14.699
 7241SOL    HW123620   9.160  11.659  14.636
 7241SOL    HW223621   9.144  11.636  14.784
 7242SOL     OW23622   6.018   3.014  11.328
 7242SOL    HW123623   6.048   2.925  11.348
 7242SOL    HW223624   5.931   3.020  11.367
 7243SOL     OW23625   4.939   9.068   3.699
 7243SOL    HW123626   4.870   9.039   3.760
 7243SOL    HW223627   4.939   9.163   3.707
 7244SOL     OW23628   5.093  14.232   9.702
 7244SOL    HW123629   5.158  14.177   9.746
 7244SOL    HW223630   5.015  14.227   9.757
 7245SOL     OW23631   0.884   7.857   8.456
 7245SOL    HW123632   0.880   7.808   8.538
 7245SOL    HW223633   0.963   7.911   8.464
 7246SOL     OW23634  14.206   4.136   9.575
 7246SOL    HW123635  14.252   4.084   9.641
 7246SOL    HW223636  14.227   4.092   9.492
 7247SOL     OW23637   4.898   4.704   9.408
 7247SOL    HW123638   4.909   4.681   9.500
 7247SOL    HW223639   4.982   4.741   9.382
 7248SOL     OW23640  13.303   7.133   9.032
 7248SOL    HW123641  13.211   7.123   9.009
 7248SOL    HW223642  13.347   7.060   8.989
 7249SOL     OW23643   9.221  10.598  13.528
 7249SOL    HW123644   9.164  10.579  13.454
 7249SOL    HW223645   9.309  10.599  13.490
 7250SOL     OW23646   4.855   7.623  12.631
 7250SOL    HW123647   4.812   7.556  12.683
 7250SOL    HW223648   4.927   7.578  12.588
 7251SOL     OW23649  12.645   1.122  13.092
 7251SOL    HW123650  12.648   1.190  13.025
 7251SOL    HW223651  12.553   1.096  13.095
 7252SOL     OW23652   7.480   7.281   9.609
 7252SOL    HW123653   7.479   7.248   9.698
 7252SOL    HW223654   7.459   7.374   9.618
 7253SOL     OW23655   6.859   5.549  11.930
 7253SOL    HW123656   6.813   5.472  11.895
 7253SOL    HW223657   6.921   5.514  11.993
 7254SOL     OW23658  11.016   0.626   9.272
 7254SOL    HW123659  10.927   0.600   9.297
 7254SOL    HW223660  11.073   0.579   9.332
 7255SOL     OW23661  14.182   5.507  12.732
 7255SOL    HW123662  14.135   5.590  12.727
 7255SOL    HW223663  14.139   5.459  12.803
 7256SOL     OW23664   1.298  12.582  13.616
 7256SOL    HW123665   1.354  12.659  13.617
 7256SOL    HW223666   1.215  12.613  13.654
 7257SOL     OW23667  12.224   4.923   8.515
 7257SOL    HW123668  12.131   4.918   8.536
 7257SOL    HW223669  12.266   4.865   8.579
 7258SOL     OW23670  14.725   0.654   2.756
 7258SOL    HW123671  14.667   0.581   2.735
 7258SOL    HW223672  14.809   0.612   2.777
 7259SOL     OW23673   9.231  10.817  13.866
 7259SOL    HW123674   9.250  10.871  13.943
 7259SOL    HW223675   9.171  10.750  13.899
 7260SOL     OW23676   2.037  10.943   9.972
 7260SOL    HW123677   2.130  10.929   9.990
 7260SOL    HW223678   2.023  11.036   9.988
 7261SOL     OW23679   3.185   1.685   7.858
 7261SOL    HW123680   3.202   1.601   7.900
 7261SOL    HW223681   3.181   1.665   7.765
 7262SOL     OW23682   9.704  12.262  13.133
 7262SOL    HW123683   9.762  12.189  13.156
 7262SOL    HW223684   9.746  12.339  13.172
 7263SOL     OW23685  11.450  11.408  12.706
 7263SOL    HW123686  11.435  11.397  12.612
 7263SOL    HW223687  11.539  11.377  12.719
 7264SOL     OW23688   3.427   5.241  13.046
 7264SOL    HW123689   3.343   5.206  13.074
 7264SOL    HW223690   3.407   5.297  12.972
 7265SOL     OW23691   7.531  11.110   8.532
 7265SOL    HW123692   7.484  11.046   8.479
 7265SOL    HW223693   7.593  11.058   8.584
 7266SOL     OW23694  10.694   2.736  12.638
 7266SOL    HW123695  10.788   2.738  12.655
 7266SOL    HW223696  10.654   2.728  12.725
 7267SOL     OW23697   2.562  10.805  13.773
 7267SOL    HW123698   2.506  10.738  13.735
 7267SOL    HW223699   2.636  10.756  13.810
 7268SOL     OW23700   0.167  13.903  14.841
 7268SOL    HW123701   0.113  13.875   0.040
 7268SOL    HW223702   0.236  13.957   0.005
 7269SOL     OW23703   6.018   2.454   9.785
 7269SOL    HW123704   6.087   2.516   9.761
 7269SOL    HW223705   6.027   2.444   9.880
 7270SOL     OW23706   9.035  11.137   9.997
 7270SOL    HW123707   9.031  11.177  10.084
 7270SOL    HW223708   8.966  11.181   9.948
 7271SOL     OW23709   4.306  13.861   7.041
 7271SOL    HW123710   4.215  13.869   7.070
 7271SOL    HW223711   4.299  13.829   6.950
 7272SOL     OW23712   7.731   2.874   0.449
 7272SOL    HW123713   7.766   2.787   0.429
 7272SOL    HW223714   7.767   2.931   0.381
 7273SOL     OW23715  12.316  14.517   2.313
 7273SOL    HW123716  12.339  14.474   2.231
 7273SOL    HW223717  12.229  14.553   2.297
 7274SOL     OW23718   5.453  10.178   2.283
 7274SOL    HW123719   5.460  10.090   2.247
 7274SOL    HW223720   5.518  10.229   2.235
 7275SOL     OW23721   5.656   4.048  11.409
 7275SOL    HW123722   5.613   4.131  11.387
 7275SOL    HW223723   5.677   4.009  11.324
 7276SOL     OW23724   4.224   8.527  10.703
 7276SOL    HW123725   4.219   8.471  10.625
 7276SOL    HW223726   4.133   8.548  10.723
 7277SOL     OW23727  14.594   1.349  10.452
 7277SOL    HW123728  14.584   1.259  10.482
 7277SOL    HW223729  14.654   1.389  10.515
 7278SOL     OW23730   2.068   9.522   6.330
 7278SOL    HW123731   2.107   9.572   6.401
 7278SOL    HW223732   2.018   9.453   6.374
 7279SOL     OW23733   6.349   7.733  13.590
 7279SOL    HW123734   6.436   7.763  13.563
 7279SOL    HW223735   6.320   7.677  13.518
 7280SOL     OW23736  10.294   3.282  12.460
 7280SOL    HW123737  10.333   3.228  12.391
 7280SOL    HW223738  10.350   3.267  12.536
 7281SOL     OW23739   9.590   3.395   0.164
 7281SOL    HW123740   9.509   3.345   0.173
 7281SOL    HW223741   9.656   3.341   0.209
 7282SOL     OW23742  11.186   9.354  11.117
 7282SOL    HW123743  11.270   9.383  11.154
 7282SOL    HW223744  11.211   9.294  11.047
 7283SOL     OW23745   2.100   5.690   1.171
 7283SOL    HW123746   2.091   5.756   1.103
 7283SOL    HW223747   2.093   5.606   1.126
 7284SOL     OW23748   8.222   0.394   0.505
 7284SOL    HW123749   8.147   0.373   0.560
 7284SOL    HW223750   8.233   0.318   0.448
 7285SOL     OW23751  10.101  13.388   2.386
 7285SOL    HW123752  10.059  13.315   2.342
 7285SOL    HW223753  10.077  13.378   2.478
 7286SOL     OW23754   3.276  10.263   2.109
 7286SOL    HW123755   3.291  10.265   2.204
 7286SOL    HW223756   3.320  10.183   2.080
 7287SOL     OW23757   4.467  10.829  13.567
 7287SOL    HW123758   4.525  10.891  13.611
 7287SOL    HW223759   4.449  10.870  13.482
 7288SOL     OW23760   7.429   0.567   5.680
 7288SOL    HW123761   7.477   0.649   5.678
 7288SOL    HW223762   7.338   0.591   5.660
 7289SOL     OW23763   4.088  10.377   1.512
 7289SOL    HW123764   4.133  10.293   1.527
 7289SOL    HW223765   4.009  10.354   1.464
 7290SOL     OW23766   7.859   4.287   2.990
 7290SOL    HW123767   7.884   4.341   3.065
 7290SOL    HW223768   7.886   4.338   2.914
 7291SOL     OW23769  12.178  12.308  13.125
 7291SOL    HW123770  12.146  12.375  13.185
 7291SOL    HW223771  12.174  12.349  13.038
 7292SOL     OW23772   7.181   0.576  14.031
 7292SOL    HW123773   7.173   0.644  14.099
 7292SOL    HW223774   7.100   0.584  13.981
 7293SOL     OW23775   7.558   1.782  13.158
 7293SOL    HW123776   7.641   1.740  13.139
 7293SOL    HW223777   7.545   1.769  13.252
 7294SOL     OW23778   9.378  14.205  10.367
 7294SOL    HW123779   9.393  14.258  10.445
 7294SOL    HW223780   9.461  14.207  10.320
 7295SOL     OW23781  11.317  12.383   7.881
 7295SOL    HW123782  11.302  12.438   7.958
 7295SOL    HW223783  11.233  12.383   7.835
 7296SOL     OW23784   8.255   7.943   4.718
 7296SOL    HW123785   8.166   7.907   4.715
 7296SOL    HW223786   8.303   7.895   4.651
 7297SOL     OW23787  10.346   0.882   8.588
 7297SOL    HW123788  10.381   0.943   8.522
 7297SOL    HW223789  10.362   0.926   8.672
 7298SOL     OW23790   5.101  11.283   5.165
 7298SOL    HW123791   5.136  11.194   5.162
 7298SOL    HW223792   5.089  11.302   5.258
 7299SOL     OW23793   1.285   0.790   5.581
 7299SOL    HW123794   1.196   0.775   5.613
 7299SOL    HW223795   1.336   0.718   5.619
 7300SOL     OW23796   7.357   7.220  10.786
 7300SOL    HW123797   7.426   7.163  10.752
 7300SOL    HW223798   7.316   7.169  10.856
 7301SOL     OW23799   7.490  12.834   3.724
 7301SOL    HW123800   7.418  12.801   3.670
 7301SOL    HW223801   7.519  12.914   3.681
 7302SOL     OW23802  12.188   9.930   3.165
 7302SOL    HW123803  12.211  10.007   3.113
 7302SOL    HW223804  12.178   9.963   3.254
 7303SOL     OW23805   5.797   2.832  12.441
 7303SOL    HW123806   5.833   2.744  12.442
 7303SOL    HW223807   5.751   2.838  12.358
 7304SOL     OW23808   3.847   0.281   0.410
 7304SOL    HW123809   3.874   0.213   0.348
 7304SOL    HW223810   3.822   0.233   0.489
 7305SOL     OW23811   2.548   1.616   2.579
 7305SOL    HW123812   2.467   1.664   2.601
 7305SOL    HW223813   2.517   1.531   2.547
 7306SOL     OW23814  14.309   2.960   4.977
 7306SOL    HW123815  14.297   3.028   4.911
 7306SOL    HW223816  14.239   2.898   4.960
 7307SOL     OW23817   7.045  11.770   3.756
 7307SOL    HW123818   7.096  11.829   3.811
 7307SOL    HW223819   7.052  11.807   3.668
 7308SOL     OW23820   9.616   4.627  14.211
 7308SOL    HW123821   9.693   4.684  14.210
 7308SOL    HW223822   9.547   4.680  14.250
 7309SOL     OW23823  13.951   8.533  12.996
 7309SOL    HW123824  13.943   8.438  12.984
 7309SOL    HW223825  14.044   8.551  12.980
 7310SOL     OW23826  13.352   5.787   5.543
 7310SOL    HW123827  13.445   5.804   5.535
 7310SOL    HW223828  13.310   5.872   5.527
 7311SOL     OW23829  10.175   2.003   6.927
 7311SOL    HW123830  10.174   1.959   6.842
 7311SOL    HW223831  10.221   1.943   6.985
 7312SOL     OW23832   9.937   4.797   5.256
 7312SOL    HW123833   9.848   4.810   5.289
 7312SOL    HW223834   9.993   4.807   5.332
 7313SOL     OW23835  14.054   0.428   5.949
 7313SOL    HW123836  14.142   0.436   5.912
 7313SOL    HW223837  14.057   0.479   6.030
 7314SOL     OW23838  12.756  13.776  11.464
 7314SOL    HW123839  12.722  13.855  11.505
 7314SOL    HW223840  12.819  13.807  11.399
 7315SOL     OW23841  11.770   8.307  11.678
 7315SOL    HW123842  11.789   8.332  11.588
 7315SOL    HW223843  11.696   8.247  11.672
 7316SOL     OW23844   5.320   5.009   4.044
 7316SOL    HW123845   5.250   4.943   4.038
 7316SOL    HW223846   5.274   5.092   4.059
 7317SOL     OW23847  14.485  11.919   6.718
 7317SOL    HW123848  14.416  11.902   6.782
 7317SOL    HW223849  14.473  12.011   6.694
 7318SOL     OW23850   5.370  10.945  13.241
 7318SOL    HW123851   5.320  10.913  13.166
 7318SOL    HW223852   5.321  10.914  13.318
 7319SOL     OW23853  14.669  12.259   2.300
 7319SOL    HW123854  14.707  12.241   2.386
 7319SOL    HW223855  14.625  12.178   2.276
 7320SOL     OW23856  11.035  14.231   8.117
 7320SOL    HW123857  11.114  14.260   8.162
 7320SOL    HW223858  11.044  14.266   8.029
 7321SOL     OW23859   7.793  14.556   2.837
 7321SOL    HW123860   7.787  14.470   2.879
 7321SOL    HW223861   7.790  14.537   2.743
 7322SOL     OW23862   2.408   9.257  13.071
 7322SOL    HW123863   2.479   9.230  13.130
 7322SOL    HW223864   2.453   9.287  12.992
 7323SOL     OW23865   5.258   3.012   0.095
 7323SOL    HW123866   5.274   3.085   0.156
 7323SOL    HW223867   5.200   3.049   0.029
 7324SOL     OW23868   7.722   3.116   7.251
 7324SOL    HW123869   7.704   3.022   7.257
 7324SOL    HW223870   7.650   3.158   7.298
 7325SOL     OW23871   0.700  10.235   5.497
 7325SOL    HW123872   0.749  10.201   5.572
 7325SOL    HW223873   0.664  10.318   5.527
 7326SOL     OW23874   6.421  13.158   3.301
 7326SOL    HW123875   6.397  13.183   3.212
 7326SOL    HW223876   6.362  13.208   3.357
 7327SOL     OW23877  13.729   6.300  10.380
 7327SOL    HW123878  13.691   6.212  10.380
 7327SOL    HW223879  13.697   6.340  10.461
 7328SOL     OW23880   1.842   4.346  10.522
 7328SOL    HW123881   1.880   4.392  10.597
 7328SOL    HW223882   1.894   4.375  10.447
 7329SOL     OW23883   6.648   9.116   9.422
 7329SOL    HW123884   6.584   9.049   9.444
 7329SOL    HW223885   6.620   9.193   9.471
 7330SOL     OW23886  14.434   8.143   8.481
 7330SOL    HW123887  14.528   8.154   8.493
 7330SOL    HW223888  14.411   8.066   8.533
 7331SOL     OW23889   4.002   1.375  13.701
 7331SOL    HW123890   4.058   1.318  13.754
 7331SOL    HW223891   3.928   1.395  13.757
 7332SOL     OW23892   5.672   2.527   6.451
 7332SOL    HW123893   5.738   2.585   6.414
 7332SOL    HW223894   5.668   2.452   6.392
 7333SOL     OW23895   1.861   5.914   9.217
 7333SOL    HW123896   1.950   5.889   9.192
 7333SOL    HW223897   1.870   5.951   9.305
 7334SOL     OW23898   1.640   7.520  11.273
 7334SOL    HW123899   1.667   7.612  11.282
 7334SOL    HW223900   1.708   7.481  11.218
 7335SOL     OW23901   1.209   6.624   4.925
 7335SOL    HW123902   1.193   6.663   5.011
 7335SOL    HW223903   1.279   6.677   4.887
 7336SOL     OW23904   2.981   9.326   7.288
 7336SOL    HW123905   2.986   9.230   7.279
 7336SOL    HW223906   2.940   9.355   7.207
 7337SOL     OW23907   7.340   5.287   3.403
 7337SOL    HW123908   7.407   5.355   3.395
 7337SOL    HW223909   7.354   5.230   3.328
 7338SOL     OW23910   4.909  13.639  11.746
 7338SOL    HW123911   4.940  13.714  11.797
 7338SOL    HW223912   4.831  13.610  11.792
 7339SOL     OW23913  10.481  14.061   0.784
 7339SOL    HW123914  10.415  14.127   0.760
 7339SOL    HW223915  10.561  14.112   0.797
 7340SOL     OW23916   7.850   9.251   1.950
 7340SOL    HW123917   7.847   9.201   1.869
 7340SOL    HW223918   7.905   9.327   1.930
 7341SOL     OW23919   4.361   9.824  11.467
 7341SOL    HW123920   4.397   9.751  11.517
 7341SOL    HW223921   4.331   9.784  11.385
 7342SOL     OW23922  12.844   5.784   6.186
 7342SOL    HW123923  12.873   5.704   6.141
 7342SOL    HW223924  12.907   5.851   6.161
 7343SOL     OW23925   8.999   5.772  12.545
 7343SOL    HW123926   8.965   5.795  12.459
 7343SOL    HW223927   9.094   5.781  12.537
 7344SOL     OW23928   6.738  12.926  14.339
 7344SOL    HW123929   6.800  12.972  14.282
 7344SOL    HW223930   6.660  12.915  14.284
 7345SOL     OW23931   2.721  14.435   5.731
 7345SOL    HW123932   2.692  14.508   5.785
 7345SOL    HW223933   2.788  14.392   5.784
 7346SOL     OW23934  11.625   2.047   5.752
 7346SOL    HW123935  11.591   2.026   5.839
 7346SOL    HW223936  11.720   2.037   5.760
 7347SOL     OW23937  10.628  14.737  12.189
 7347SOL    HW123938  10.699  14.718  12.128
 7347SOL    HW223939  10.552  14.691  12.152
 7348SOL     OW23940  12.608   1.326  11.273
 7348SOL    HW123941  12.683   1.267  11.285
 7348SOL    HW223942  12.603   1.374  11.356
 7349SOL     OW23943   4.664  13.297  14.439
 7349SOL    HW123944   4.668  13.355  14.515
 7349SOL    HW223945   4.600  13.230  14.463
 7350SOL     OW23946   1.052  10.949   3.574
 7350SOL    HW123947   1.011  10.916   3.654
 7350SOL    HW223948   0.991  11.015   3.541
 7351SOL     OW23949  13.808  14.242  13.836
 7351SOL    HW123950  13.832  14.199  13.919
 7351SOL    HW223951  13.889  14.244  13.786
 7352SOL     OW23952   0.218  14.850   1.162
 7352SOL    HW123953   0.272  14.771   1.172
 7352SOL    HW223954   0.149  14.823   1.101
 7353SOL     OW23955  13.590   7.719   1.846
 7353SOL    HW123956  13.503   7.709   1.885
 7353SOL    HW223957  13.648   7.667   1.902
 7354SOL     OW23958  13.507   0.273   5.931
 7354SOL    HW123959  13.442   0.284   5.862
 7354SOL    HW223960  13.589   0.305   5.893
 7355SOL     OW23961   0.075   2.538   5.509
 7355SOL    HW123962   0.065   2.448   5.478
 7355SOL    HW223963  14.872   2.583   5.479
 7356SOL     OW23964   0.595   6.776   8.748
 7356SOL    HW123965   0.569   6.710   8.812
 7356SOL    HW223966   0.559   6.744   8.665
 7357SOL     OW23967  12.967   2.076  11.257
 7357SOL    HW123968  12.968   2.126  11.176
 7357SOL    HW223969  13.040   2.112  11.308
 7358SOL     OW23970   3.074  13.980   6.395
 7358SOL    HW123971   3.059  13.913   6.462
 7358SOL    HW223972   3.169  13.986   6.388
 7359SOL     OW23973  10.268   2.054  12.130
 7359SOL    HW123974  10.176   2.042  12.105
 7359SOL    HW223975  10.302   1.965  12.142
 7360SOL     OW23976   1.037  11.339  12.382
 7360SOL    HW123977   0.945  11.357  12.360
 7360SOL    HW223978   1.078  11.426  12.383
 7361SOL     OW23979   8.131   1.220   6.519
 7361SOL    HW123980   8.104   1.305   6.484
 7361SOL    HW223981   8.176   1.240   6.600
 7362SOL     OW23982  13.607  12.932  12.250
 7362SOL    HW123983  13.642  12.960  12.335
 7362SOL    HW223984  13.522  12.893  12.271
 7363SOL     OW23985  13.063   6.070   7.392
 7363SOL    HW123986  13.004   6.088   7.465
 7363SOL    HW223987  13.150   6.079   7.429
 7364SOL     OW23988   6.751   1.334  12.479
 7364SOL    HW123989   6.690   1.306  12.548
 7364SOL    HW223990   6.699   1.328  12.399
 7365SOL     OW23991  12.372  13.492  10.749
 7365SOL    HW123992  12.313  13.563  10.775
 7365SOL    HW223993  12.408  13.459  10.832
 7366SOL     OW23994  14.042   0.492  12.275
 7366SOL    HW123995  14.089   0.511  12.193
 7366SOL    HW223996  13.955   0.530  12.262
 7367SOL     OW23997   6.523  12.415   0.017
 7367SOL    HW123998   6.450  12.432   0.076
 7367SOL    HW223999   6.591  12.376   0.073
 7368SOL     OW24000   1.082   0.627  13.042
 7368SOL    HW124001   1.062   0.534  13.049
 7368SOL    HW224002   0.997   0.671  13.053
 7369SOL     OW24003  12.077  10.633   1.561
 7369SOL    HW124004  12.136  10.574   1.513
 7369SOL    HW224005  12.045  10.694   1.494
 7370SOL     OW24006   2.989  14.655   1.063
 7370SOL    HW124007   2.999  14.567   1.099
 7370SOL    HW224008   2.895  14.664   1.048
 7371SOL     OW24009  10.683  13.130  12.653
 7371SOL    HW124010  10.743  13.202  12.673
 7371SOL    HW224011  10.722  13.087  12.577
 7372SOL     OW24012  11.904   3.610  14.239
 7372SOL    HW124013  11.929   3.532  14.289
 7372SOL    HW224014  11.950   3.602  14.156
 7373SOL     OW24015  11.680   9.817  14.468
 7373SOL    HW124016  11.699   9.724  14.482
 7373SOL    HW224017  11.680   9.855  14.555
 7374SOL     OW24018  12.930   8.151   4.768
 7374SOL    HW124019  12.966   8.079   4.819
 7374SOL    HW224020  12.905   8.112   4.685
 7375SOL     OW24021  14.276   8.304  13.785
 7375SOL    HW124022  14.259   8.299  13.879
 7375SOL    HW224023  14.351   8.246  13.772
 7376SOL     OW24024  13.900   0.147  13.192
 7376SOL    HW124025  13.976   0.101  13.227
 7376SOL    HW224026  13.928   0.239  13.187
 7377SOL     OW24027   6.716   2.834  10.009
 7377SOL    HW124028   6.699   2.910  10.064
 7377SOL    HW224029   6.797   2.855   9.964
 7378SOL     OW24030  12.314   8.928  14.461
 7378SOL    HW124031  12.308   8.837  14.430
 7378SOL    HW224032  12.358   8.975  14.390
 7379SOL     OW24033   2.239   2.133  11.356
 7379SOL    HW124034   2.306   2.192  11.321
 7379SOL    HW224035   2.196   2.184  11.424
 7380SOL     OW24036   7.394  11.265  12.051
 7380SOL    HW124037   7.430  11.196  11.996
 7380SOL    HW224038   7.357  11.328  11.989
 7381SOL     OW24039   6.722   5.286   5.973
 7381SOL    HW124040   6.750   5.214   5.916
 7381SOL    HW224041   6.639   5.256   6.010
 7382SOL     OW24042   0.219   3.199   0.839
 7382SOL    HW124043   0.129   3.228   0.830
 7382SOL    HW224044   0.262   3.229   0.758
 7383SOL     OW24045   5.991   1.556   5.022
 7383SOL    HW124046   5.962   1.484   5.078
 7383SOL    HW224047   6.061   1.518   4.969
 7384SOL     OW24048   9.993   2.221   8.336
 7384SOL    HW124049  10.070   2.278   8.335
 7384SOL    HW224050   9.921   2.276   8.305
 7385SOL     OW24051   1.977   3.959   2.229
 7385SOL    HW124052   1.892   3.958   2.273
 7385SOL    HW224053   2.009   4.049   2.239
 7386SOL     OW24054   4.061   4.823  10.688
 7386SOL    HW124055   4.014   4.764  10.747
 7386SOL    HW224056   4.152   4.795  10.693
 7387SOL     OW24057   4.604   3.071   2.275
 7387SOL    HW124058   4.526   3.069   2.219
 7387SOL    HW224059   4.569   3.064   2.364
 7388SOL     OW24060   9.514   0.889  13.547
 7388SOL    HW124061   9.604   0.868  13.573
 7388SOL    HW224062   9.494   0.969  13.596
 7389SOL     OW24063   9.830   4.599   9.880
 7389SOL    HW124064   9.895   4.528   9.874
 7389SOL    HW224065   9.769   4.569   9.947
 7390SOL     OW24066  12.477   2.890   3.480
 7390SOL    HW124067  12.491   2.907   3.574
 7390SOL    HW224068  12.401   2.832   3.477
 7391SOL     OW24069   7.421  13.268   5.147
 7391SOL    HW124070   7.421  13.296   5.239
 7391SOL    HW224071   7.480  13.193   5.146
 7392SOL     OW24072   0.573   3.903   9.127
 7392SOL    HW124073   0.513   3.830   9.109
 7392SOL    HW224074   0.640   3.865   9.183
 7393SOL     OW24075   0.997  10.671  10.118
 7393SOL    HW124076   0.911  10.694  10.153
 7393SOL    HW224077   1.053  10.745  10.141
 7394SOL     OW24078   3.392   8.426  10.346
 7394SOL    HW124079   3.371   8.458  10.258
 7394SOL    HW224080   3.346   8.343  10.352
 7395SOL     OW24081   1.221   9.051   7.454
 7395SOL    HW124082   1.240   9.137   7.491
 7395SOL    HW224083   1.126   9.049   7.443
 7396SOL     OW24084   9.048  12.631   3.643
 7396SOL    HW124085   9.014  12.681   3.717
 7396SOL    HW224086   9.017  12.541   3.657
 7397SOL     OW24087   3.929   9.586   1.562
 7397SOL    HW124088   3.871   9.524   1.607
 7397SOL    HW224089   3.948   9.544   1.479
 7398SOL     OW24090   1.404   0.325  12.877
 7398SOL    HW124091   1.326   0.299  12.827
 7398SOL    HW224092   1.387   0.416  12.901
 7399SOL     OW24093   7.290   8.812  11.710
 7399SOL    HW124094   7.365   8.809  11.649
 7399SOL    HW224095   7.213   8.815  11.653
 7400SOL     OW24096  10.216   1.608  13.680
 7400SOL    HW124097  10.229   1.701  13.695
 7400SOL    HW224098  10.121   1.596  13.682
 7401SOL     OW24099   9.133   2.768   8.287
 7401SOL    HW124100   9.104   2.801   8.201
 7401SOL    HW224101   9.160   2.847   8.334
 7402SOL     OW24102   0.349  13.748  10.189
 7402SOL    HW124103   0.378  13.837  10.166
 7402SOL    HW224104   0.355  13.745  10.284
 7403SOL     OW24105  13.908   6.421   5.546
 7403SOL    HW124106  13.901   6.516   5.536
 7403SOL    HW224107  13.987   6.409   5.600
 7404SOL     OW24108   9.639   1.803  12.758
 7404SOL    HW124109   9.596   1.873  12.807
 7404SOL    HW224110   9.684   1.751  12.824
 7405SOL     OW24111   3.190   4.437   6.861
 7405SOL    HW124112   3.116   4.471   6.811
 7405SOL    HW224113   3.217   4.358   6.814
 7406SOL     OW24114  12.775   1.456  12.781
 7406SOL    HW124115  12.724   1.375  12.785
 7406SOL    HW224116  12.710   1.523  12.760
 7407SOL     OW24117   9.970   8.447  13.073
 7407SOL    HW124118   9.943   8.380  13.136
 7407SOL    HW224119   9.898   8.451  13.010
 7408SOL     OW24120   6.699   4.555   5.517
 7408SOL    HW124121   6.678   4.573   5.609
 7408SOL    HW224122   6.785   4.594   5.504
 7409SOL     OW24123   4.972   4.587  14.774
 7409SOL    HW124124   5.053   4.639  14.779
 7409SOL    HW224125   4.926   4.607  14.856
 7410SOL     OW24126   4.992   1.153   4.868
 7410SOL    HW124127   4.948   1.231   4.903
 7410SOL    HW224128   5.052   1.187   4.802
 7411SOL     OW24129   0.814   8.441   6.042
 7411SOL    HW124130   0.784   8.453   5.952
 7411SOL    HW224131   0.832   8.530   6.073
 7412SOL     OW24132   6.858   7.498   3.148
 7412SOL    HW124133   6.864   7.480   3.242
 7412SOL    HW224134   6.898   7.421   3.107
 7413SOL     OW24135   8.247  13.602   9.696
 7413SOL    HW124136   8.302  13.577   9.769
 7413SOL    HW224137   8.240  13.698   9.702
 7414SOL     OW24138   0.047   0.246   6.560
 7414SOL    HW124139   0.140   0.257   6.577
 7414SOL    HW224140   0.042   0.214   6.470
 7415SOL     OW24141   9.285  13.593   4.583
 7415SOL    HW124142   9.239  13.668   4.619
 7415SOL    HW224143   9.224  13.554   4.521
 7416SOL     OW24144   0.409   5.050   9.738
 7416SOL    HW124145   0.458   5.086   9.665
 7416SOL    HW224146   0.342   5.116   9.757
 7417SOL     OW24147   1.846  10.709  12.057
 7417SOL    HW124148   1.890  10.724  11.974
 7417SOL    HW224149   1.916  10.680  12.116
 7418SOL     OW24150  13.422   7.630   4.604
 7418SOL    HW124151  13.354   7.622   4.670
 7418SOL    HW224152  13.451   7.540   4.587
 7419SOL     OW24153  12.765   8.558   3.875
 7419SOL    HW124154  12.725   8.641   3.901
 7419SOL    HW224155  12.791   8.572   3.783
 7420SOL     OW24156   3.428   6.941   9.955
 7420SOL    HW124157   3.404   6.924  10.046
 7420SOL    HW224158   3.395   6.866   9.907
 7421SOL     OW24159  11.072   7.873   7.979
 7421SOL    HW124160  11.126   7.836   7.909
 7421SOL    HW224161  11.116   7.847   8.060
 7422SOL     OW24162   8.431   6.922   3.175
 7422SOL    HW124163   8.342   6.951   3.157
 7422SOL    HW224164   8.454   6.961   3.259
 7423SOL     OW24165   4.544  11.986  13.532
 7423SOL    HW124166   4.538  11.914  13.595
 7423SOL    HW224167   4.458  12.028  13.536
 7424SOL     OW24168   6.961   7.480   7.376
 7424SOL    HW124169   7.043   7.455   7.334
 7424SOL    HW224170   6.907   7.401   7.371
 7425SOL     OW24171  10.033   0.002   6.295
 7425SOL    HW124172   9.986   0.081   6.324
 7425SOL    HW224173  10.055   0.019   6.204
 7426SOL     OW24174  11.734   2.411   5.680
 7426SOL    HW124175  11.738   2.442   5.589
 7426SOL    HW224176  11.657   2.354   5.682
 7427SOL     OW24177   2.109  11.684  14.752
 7427SOL    HW124178   2.165  11.614  14.720
 7427SOL    HW224179   2.064  11.716  14.673
 7428SOL     OW24180   0.299  11.219  13.182
 7428SOL    HW124181   0.251  11.257  13.256
 7428SOL    HW224182   0.376  11.275  13.172
 7429SOL     OW24183   5.387   8.400   6.821
 7429SOL    HW124184   5.457   8.459   6.849
 7429SOL    HW224185   5.414   8.370   6.735
 7430SOL     OW24186   8.273   7.455   0.489
 7430SOL    HW124187   8.196   7.420   0.533
 7430SOL    HW224188   8.289   7.539   0.532
 7431SOL     OW24189  13.006  13.639   9.623
 7431SOL    HW124190  13.004  13.726   9.663
 7431SOL    HW224191  13.069  13.590   9.676
 7432SOL     OW24192   4.340   3.132  13.231
 7432SOL    HW124193   4.394   3.089  13.165
 7432SOL    HW224194   4.264   3.163  13.183
 7433SOL     OW24195   6.261  13.172  11.731
 7433SOL    HW124196   6.329  13.204  11.791
 7433SOL    HW224197   6.219  13.250  11.696
 7434SOL     OW24198  10.396  12.258   5.401
 7434SOL    HW124199  10.345  12.182   5.428
 7434SOL    HW224200  10.358  12.285   5.317
 7435SOL     OW24201   4.815   5.116   3.898
 7435SOL    HW124202   4.721   5.101   3.901
 7435SOL    HW224203   4.825   5.211   3.906
 7436SOL     OW24204   9.176  14.551  11.535
 7436SOL    HW124205   9.208  14.548  11.444
 7436SOL    HW224206   9.121  14.474  11.543
 7437SOL     OW24207   5.827  10.256   3.368
 7437SOL    HW124208   5.744  10.299   3.389
 7437SOL    HW224209   5.893  10.309   3.412
 7438SOL     OW24210  12.360   5.859   8.822
 7438SOL    HW124211  12.416   5.791   8.860
 7438SOL    HW224212  12.354   5.835   8.730
 7439SOL     OW24213   9.039   9.623   7.934
 7439SOL    HW124214   8.945   9.621   7.914
 7439SOL    HW224215   9.060   9.532   7.956
 7440SOL     OW24216   4.743   8.446  13.899
 7440SOL    HW124217   4.802   8.404  13.962
 7440SOL    HW224218   4.661   8.458  13.949
 7441SOL     OW24219   3.738  10.293  12.158
 7441SOL    HW124220   3.797  10.343  12.102
 7441SOL    HW224221   3.750  10.331  12.245
 7442SOL     OW24222   8.189  12.597   1.719
 7442SOL    HW124223   8.103  12.603   1.678
 7442SOL    HW224224   8.171  12.605   1.812
 7443SOL     OW24225   0.040   0.123   5.975
 7443SOL    HW124226   0.045   0.069   5.896
 7443SOL    HW224227   0.104   0.085   6.034
 7444SOL     OW24228   5.705  11.508   7.244
 7444SOL    HW124229   5.665  11.574   7.188
 7444SOL    HW224230   5.712  11.430   7.189
 7445SOL     OW24231   0.001   7.657   2.107
 7445SOL    HW124232  14.831   7.592   2.052
 7445SOL    HW224233   0.091   7.657   2.075
 7446SOL     OW24234   7.351  11.285   3.320
 7446SOL    HW124235   7.395  11.359   3.277
 7446SOL    HW224236   7.354  11.306   3.413
 7447SOL     OW24237   8.655  10.390   8.940
 7447SOL    HW124238   8.683  10.309   8.898
 7447SOL    HW224239   8.645  10.453   8.868
 7448SOL     OW24240   6.814  14.813  13.149
 7448SOL    HW124241   6.903  14.794  13.178
 7448SOL    HW224242   6.820   0.025  13.108
 7449SOL     OW24243   7.132   2.290   4.674
 7449SOL    HW124244   7.185   2.245   4.608
 7449SOL    HW224245   7.194   2.342   4.724
 7450SOL     OW24246   2.431   6.389  12.258
 7450SOL    HW124247   2.436   6.449  12.332
 7450SOL    HW224248   2.414   6.304  12.298
 7451SOL     OW24249   2.162   0.841   8.458
 7451SOL    HW124250   2.205   0.829   8.543
 7451SOL    HW224251   2.218   0.904   8.412
 7452SOL     OW24252   1.386   9.367   0.475
 7452SOL    HW124253   1.294   9.388   0.460
 7452SOL    HW224254   1.404   9.294   0.416
 7453SOL     OW24255   1.024   1.867   9.346
 7453SOL    HW124256   0.934   1.901   9.343
 7453SOL    HW224257   1.053   1.869   9.255
 7454SOL     OW24258   8.351  10.227   9.055
 7454SOL    HW124259   8.428  10.209   9.109
 7454SOL    HW224260   8.290  10.272   9.114
 7455SOL     OW24261   7.608   1.719   6.359
 7455SOL    HW124262   7.531   1.675   6.325
 7455SOL    HW224263   7.651   1.757   6.282
 7456SOL     OW24264   5.927   3.532   3.830
 7456SOL    HW124265   5.905   3.441   3.808
 7456SOL    HW224266   5.863   3.584   3.782
 7457SOL     OW24267  13.221  11.716   3.696
 7457SOL    HW124268  13.194  11.794   3.744
 7457SOL    HW224269  13.314  11.707   3.716
 7458SOL     OW24270  12.051  13.075  10.327
 7458SOL    HW124271  12.001  13.148  10.362
 7458SOL    HW224272  12.007  13.051  10.246
 7459SOL     OW24273   0.138   5.832   8.116
 7459SOL    HW124274   0.110   5.857   8.204
 7459SOL    HW224275   0.058   5.803   8.072
 7460SOL     OW24276   6.913  14.262   6.369
 7460SOL    HW124277   6.953  14.324   6.430
 7460SOL    HW224278   6.985  14.231   6.315
 7461SOL     OW24279  14.547   1.325   2.038
 7461SOL    HW124280  14.457   1.357   2.033
 7461SOL    HW224281  14.584   1.340   1.952
 7462SOL     OW24282  10.836   9.232   1.416
 7462SOL    HW124283  10.758   9.197   1.459
 7462SOL    HW224284  10.855   9.170   1.345
 7463SOL     OW24285   6.788   8.304   8.053
 7463SOL    HW124286   6.862   8.335   8.001
 7463SOL    HW224287   6.808   8.331   8.143
 7464SOL     OW24288  13.419   5.296  10.831
 7464SOL    HW124289  13.469   5.359  10.778
 7464SOL    HW224290  13.397   5.344  10.911
 7465SOL     OW24291  14.192  10.101  14.160
 7465SOL    HW124292  14.202  10.017  14.115
 7465SOL    HW224293  14.173  10.164  14.091
 7466SOL     OW24294  13.199  13.261   7.227
 7466SOL    HW124295  13.174  13.279   7.136
 7466SOL    HW224296  13.190  13.345   7.271
 7467SOL     OW24297  11.538  11.095  12.009
 7467SOL    HW124298  11.533  11.147  11.929
 7467SOL    HW224299  11.583  11.014  11.982
 7468SOL     OW24300   6.119   3.785   4.264
 7468SOL    HW124301   6.029   3.753   4.277
 7468SOL    HW224302   6.133   3.779   4.169
 7469SOL     OW24303  10.300   2.295  13.803
 7469SOL    HW124304  10.341   2.276  13.719
 7469SOL    HW224305  10.231   2.358  13.783
 7470SOL     OW24306   3.606   4.731  13.088
 7470SOL    HW124307   3.635   4.820  13.068
 7470SOL    HW224308   3.638   4.714  13.177
 7471SOL     OW24309   5.455  12.776   4.917
 7471SOL    HW124310   5.500  12.748   4.997
 7471SOL    HW224311   5.503  12.853   4.888
 7472SOL     OW24312   3.636   4.974  13.853
 7472SOL    HW124313   3.541   4.982  13.848
 7472SOL    HW224314   3.651   4.884  13.882
 7473SOL     OW24315   5.626  14.281   9.034
 7473SOL    HW124316   5.656  14.285   9.124
 7473SOL    HW224317   5.549  14.338   9.032
 7474SOL     OW24318  14.111  11.103   4.384
 7474SOL    HW124319  14.163  11.183   4.375
 7474SOL    HW224320  14.021  11.131   4.371
 7475SOL     OW24321   7.214   7.307   9.061
 7475SOL    HW124322   7.134   7.264   9.030
 7475SOL    HW224323   7.255   7.244   9.119
 7476SOL     OW24324   7.273   3.933  11.078
 7476SOL    HW124325   7.214   3.965  11.010
 7476SOL    HW224326   7.355   3.980  11.062
 7477SOL     OW24327   0.740   1.795  12.260
 7477SOL    HW124328   0.800   1.742  12.313
 7477SOL    HW224329   0.796   1.864  12.224
 7478SOL     OW24330   9.920  14.290   1.667
 7478SOL    HW124331   9.948  14.359   1.728
 7478SOL    HW224332   9.946  14.209   1.710
 7479SOL     OW24333  10.976   7.701   7.072
 7479SOL    HW124334  10.978   7.705   6.976
 7479SOL    HW224335  11.068   7.705   7.097
 7480SOL     OW24336   1.454   9.470   3.463
 7480SOL    HW124337   1.371   9.431   3.489
 7480SOL    HW224338   1.494   9.500   3.544
 7481SOL     OW24339   6.371   0.593   3.224
 7481SOL    HW124340   6.330   0.600   3.310
 7481SOL    HW224341   6.411   0.506   3.223
 7482SOL     OW24342   2.299  13.432  13.488
 7482SOL    HW124343   2.271  13.420  13.398
 7482SOL    HW224344   2.386  13.392  13.492
 7483SOL     OW24345   6.512  10.218  11.741
 7483SOL    HW124346   6.567  10.177  11.808
 7483SOL    HW224347   6.430  10.238  11.787
 7484SOL     OW24348  13.559   4.713   9.905
 7484SOL    HW124349  13.515   4.680   9.826
 7484SOL    HW224350  13.562   4.808   9.893
 7485SOL     OW24351  13.501  12.789   9.927
 7485SOL    HW124352  13.570  12.803   9.991
 7485SOL    HW224353  13.427  12.757   9.978
 7486SOL     OW24354   8.625   6.784   8.603
 7486SOL    HW124355   8.625   6.701   8.556
 7486SOL    HW224356   8.690   6.772   8.673
 7487SOL     OW24357  14.037   2.929   2.165
 7487SOL    HW124358  13.971   2.866   2.195
 7487SOL    HW224359  14.072   2.890   2.085
 7488SOL     OW24360   8.315  14.706  12.786
 7488SOL    HW124361   8.280  14.625  12.749
 7488SOL    HW224362   8.303  14.770  12.716
 7489SOL     OW24363   8.339   0.176   9.875
 7489SOL    HW124364   8.278   0.102   9.877
 7489SOL    HW224365   8.350   0.196   9.782
 7490SOL     OW24366  13.017  14.479   0.704
 7490SOL    HW124367  13.013  14.407   0.766
 7490SOL    HW224368  12.961  14.453   0.631
 7491SOL     OW24369   7.441   1.611  13.918
 7491SOL    HW124370   7.464   1.520  13.936
 7491SOL    HW224371   7.385   1.637  13.991
 7492SOL     OW24372   7.219   1.555   3.531
 7492SOL    HW124373   7.242   1.494   3.601
 7492SOL    HW224374   7.223   1.641   3.572
 7493SOL     OW24375  13.388   9.537   6.395
 7493SOL    HW124376  13.350   9.607   6.341
 7493SOL    HW224377  13.313   9.483   6.421
 7494SOL     OW24378  14.472   1.284   5.710
 7494SOL    HW124379  14.414   1.208   5.718
 7494SOL    HW224380  14.452   1.319   5.623
 7495SOL     OW24381   6.864   1.115   3.699
 7495SOL    HW124382   6.834   1.162   3.777
 7495SOL    HW224383   6.854   1.178   3.627
 7496SOL     OW24384   0.931   4.959   3.740
 7496SOL    HW124385   0.908   4.867   3.753
 7496SOL    HW224386   1.019   4.956   3.702
 7497SOL     OW24387   9.853   1.635  10.324
 7497SOL    HW124388   9.944   1.614  10.344
 7497SOL    HW224389   9.810   1.641  10.410
 7498SOL     OW24390   5.231   4.482   9.189
 7498SOL    HW124391   5.315   4.473   9.143
 7498SOL    HW224392   5.255   4.509   9.278
 7499SOL     OW24393   2.414   0.634   2.960
 7499SOL    HW124394   2.433   0.587   2.879
 7499SOL    HW224395   2.347   0.582   3.004
 7500SOL     OW24396  10.768   2.861   0.824
 7500SOL    HW124397  10.691   2.883   0.876
 7500SOL    HW224398  10.776   2.766   0.831
 7501SOL     OW24399   4.243  10.429  13.643
 7501SOL    HW124400   4.338  10.412  13.643
 7501SOL    HW224401   4.204  10.347  13.613
 7502SOL     OW24402   9.430   8.977   5.018
 7502SOL    HW124403   9.434   8.890   4.978
 7502SOL    HW224404   9.344   9.011   4.994
 7503SOL     OW24405   1.937   5.547  12.287
 7503SOL    HW124406   1.923   5.476  12.224
 7503SOL    HW224407   1.910   5.510  12.371
 7504SOL     OW24408   4.895   9.555   4.771
 7504SOL    HW124409   4.973   9.611   4.771
 7504SOL    HW224410   4.896   9.512   4.856
 7505SOL     OW24411  12.643   0.918   1.714
 7505SOL    HW124412  12.590   0.846   1.682
 7505SOL    HW224413  12.671   0.891   1.801
 7506SOL     OW24414   1.391   5.369   7.757
 7506SOL    HW124415   1.468   5.334   7.800
 7506SOL    HW224416   1.425   5.430   7.691
 7507SOL     OW24417   2.313   0.461   0.382
 7507SOL    HW124418   2.231   0.488   0.424
 7507SOL    HW224419   2.315   0.509   0.299
 7508SOL     OW24420   3.054  10.385  14.762
 7508SOL    HW124421   3.138  10.361  14.722
 7508SOL    HW224422   3.014  10.301  14.786
 7509SOL     OW24423  11.335   3.561   7.909
 7509SOL    HW124424  11.340   3.631   7.843
 7509SOL    HW224425  11.342   3.480   7.859
 7510SOL     OW24426   7.614   0.751  10.130
 7510SOL    HW124427   7.625   0.673  10.075
 7510SOL    HW224428   7.549   0.803  10.082
 7511SOL     OW24429   4.720  10.534  14.458
 7511SOL    HW124430   4.658  10.521  14.386
 7511SOL    HW224431   4.769  10.452  14.463
 7512SOL     OW24432   2.729   0.258   3.073
 7512SOL    HW124433   2.784   0.227   3.002
 7512SOL    HW224434   2.648   0.285   3.030
 7513SOL     OW24435   0.020  11.836  12.040
 7513SOL    HW124436   0.057  11.917  12.005
 7513SOL    HW224437   0.091  11.798  12.091
 7514SOL     OW24438   3.404   1.179   4.441
 7514SOL    HW124439   3.368   1.201   4.355
 7514SOL    HW224440   3.338   1.210   4.503
 7515SOL     OW24441  11.506  11.432   4.647
 7515SOL    HW124442  11.482  11.510   4.697
 7515SOL    HW224443  11.515  11.463   4.557
 7516SOL     OW24444   5.949  14.745   0.459
 7516SOL    HW124445   5.972  14.838   0.448
 7516SOL    HW224446   5.862  14.737   0.421
 7517SOL     OW24447  10.017   2.230  13.453
 7517SOL    HW124448  10.017   2.142  13.491
 7517SOL    HW224449  10.007   2.216  13.359
 7518SOL     OW24450   2.214   9.537   7.671
 7518SOL    HW124451   2.218   9.494   7.586
 7518SOL    HW224452   2.131   9.585   7.669
 7519SOL     OW24453   4.497  13.684   3.647
 7519SOL    HW124454   4.527  13.775   3.649
 7519SOL    HW224455   4.541  13.643   3.722
 7520SOL     OW24456   1.061   3.893   1.275
 7520SOL    HW124457   1.028   3.856   1.194
 7520SOL    HW224458   1.110   3.971   1.248
 7521SOL     OW24459   7.403   7.667   8.783
 7521SOL    HW124460   7.380   7.582   8.821
 7521SOL    HW224461   7.425   7.722   8.858
 7522SOL     OW24462   8.947   1.095   5.076
 7522SOL    HW124463   8.874   1.041   5.107
 7522SOL    HW224464   8.992   1.039   5.012
 7523SOL     OW24465   7.907   4.843   5.572
 7523SOL    HW124466   7.866   4.849   5.658
 7523SOL    HW224467   7.921   4.749   5.559
 7524SOL     OW24468   8.459   8.547   8.158
 7524SOL    HW124469   8.473   8.493   8.235
 7524SOL    HW224470   8.376   8.516   8.122
 7525SOL     OW24471  14.860   4.610  13.173
 7525SOL    HW124472  14.855   4.680  13.107
 7525SOL    HW224473  14.823   4.650  13.252
 7526SOL     OW24474   1.890  12.197  12.260
 7526SOL    HW124475   1.967  12.246  12.229
 7526SOL    HW224476   1.925  12.115  12.294
 7527SOL     OW24477   4.314   1.644   0.881
 7527SOL    HW124478   4.381   1.596   0.833
 7527SOL    HW224479   4.327   1.736   0.855
 7528SOL     OW24480   2.847   8.169  11.160
 7528SOL    HW124481   2.798   8.182  11.079
 7528SOL    HW224482   2.842   8.074  11.176
 7529SOL     OW24483   8.929   6.559   2.181
 7529SOL    HW124484   8.966   6.634   2.226
 7529SOL    HW224485   8.852   6.593   2.136
 7530SOL     OW24486   4.851   3.095  10.946
 7530SOL    HW124487   4.842   3.150  10.868
 7530SOL    HW224488   4.913   3.143  11.002
 7531SOL     OW24489  13.612   9.236  10.939
 7531SOL    HW124490  13.580   9.313  10.986
 7531SOL    HW224491  13.673   9.195  11.000
 7532SOL     OW24492  10.512   2.897   7.862
 7532SOL    HW124493  10.434   2.872   7.911
 7532SOL    HW224494  10.544   2.976   7.906
 7533SOL     OW24495   8.518  13.140  10.680
 7533SOL    HW124496   8.500  13.092  10.600
 7533SOL    HW224497   8.589  13.200  10.657
 7534SOL     OW24498   2.671   4.625  11.872
 7534SOL    HW124499   2.626   4.690  11.927
 7534SOL    HW224500   2.626   4.543  11.891
 7535SOL     OW24501  13.485   5.328   2.688
 7535SOL    HW124502  13.505   5.378   2.767
 7535SOL    HW224503  13.394   5.302   2.699
 7536SOL     OW24504   7.233   6.117  13.766
 7536SOL    HW124505   7.246   6.206  13.800
 7536SOL    HW224506   7.221   6.063  13.844
 7537SOL     OW24507   1.147   3.827   3.218
 7537SOL    HW124508   1.143   3.767   3.144
 7537SOL    HW224509   1.217   3.792   3.274
 7538SOL     OW24510   6.789  13.464  10.460
 7538SOL    HW124511   6.854  13.468  10.530
 7538SOL    HW224512   6.791  13.551  10.421
 7539SOL     OW24513  10.371   1.040   8.811
 7539SOL    HW124514  10.367   1.024   8.906
 7539SOL    HW224515  10.461   1.068   8.796
 7540SOL     OW24516  11.405   1.003  14.289
 7540SOL    HW124517  11.394   1.005  14.194
 7540SOL    HW224518  11.420   1.095  14.313
 7541SOL     OW24519   6.960   0.807  11.060
 7541SOL    HW124520   6.945   0.824  10.967
 7541SOL    HW224521   6.992   0.717  11.064
 7542SOL     OW24522  12.089   1.087  12.520
 7542SOL    HW124523  12.151   1.100  12.447
 7542SOL    HW224524  12.029   1.160  12.514
 7543SOL     OW24525   6.016   2.263  10.667
 7543SOL    HW124526   5.935   2.214  10.678
 7543SOL    HW224527   5.991   2.355  10.675
 7544SOL     OW24528  11.650  12.259   8.968
 7544SOL    HW124529  11.605  12.251   9.053
 7544SOL    HW224530  11.735  12.296   8.989
 7545SOL     OW24531   5.522   2.435   8.977
 7545SOL    HW124532   5.586   2.378   9.020
 7545SOL    HW224533   5.575   2.503   8.936
 7546SOL     OW24534   2.364   7.428   3.398
 7546SOL    HW124535   2.448   7.471   3.381
 7546SOL    HW224536   2.378   7.337   3.374
 7547SOL     OW24537   5.425   0.974   5.926
 7547SOL    HW124538   5.430   0.889   5.969
 7547SOL    HW224539   5.345   0.971   5.873
 7548SOL     OW24540  14.202   5.580   3.758
 7548SOL    HW124541  14.128   5.572   3.697
 7548SOL    HW224542  14.199   5.500   3.810
 7549SOL     OW24543   5.374   6.449   8.739
 7549SOL    HW124544   5.378   6.355   8.750
 7549SOL    HW224545   5.285   6.465   8.706
 7550SOL     OW24546  13.519   8.978  12.711
 7550SOL    HW124547  13.505   9.026  12.629
 7550SOL    HW224548  13.534   8.888  12.684
 7551SOL     OW24549  10.265  13.611  11.436
 7551SOL    HW124550  10.344  13.654  11.468
 7551SOL    HW224551  10.247  13.543  11.500
 7552SOL     OW24552   2.062   3.975  14.575
 7552SOL    HW124553   2.088   3.968  14.667
 7552SOL    HW224554   1.966   3.976  14.578
 7553SOL     OW24555   2.183  13.823   9.704
 7553SOL    HW124556   2.224  13.798   9.622
 7553SOL    HW224557   2.154  13.913   9.690
 7554SOL     OW24558  13.744   2.372  13.759
 7554SOL    HW124559  13.683   2.341  13.692
 7554SOL    HW224560  13.800   2.297  13.778
 7555SOL     OW24561  13.563   8.350   8.586
 7555SOL    HW124562  13.548   8.390   8.500
 7555SOL    HW224563  13.655   8.322   8.584
 7556SOL     OW24564   9.048   7.308   3.757
 7556SOL    HW124565   9.028   7.379   3.818
 7556SOL    HW224566   8.976   7.246   3.769
 7557SOL     OW24567  12.084   1.889   8.665
 7557SOL    HW124568  12.122   1.849   8.743
 7557SOL    HW224569  11.990   1.892   8.683
 7558SOL     OW24570  12.639   0.182  10.217
 7558SOL    HW124571  12.625   0.129  10.296
 7558SOL    HW224572  12.723   0.153  10.183
 7559SOL     OW24573   0.040   8.546  14.701
 7559SOL    HW124574   0.083   8.631  14.699
 7559SOL    HW224575   0.049   8.516  14.792
 7560SOL     OW24576   8.902  14.343   3.144
 7560SOL    HW124577   8.917  14.318   3.235
 7560SOL    HW224578   8.920  14.264   3.094
 7561SOL     OW24579   3.516   2.078  10.275
 7561SOL    HW124580   3.545   2.134  10.202
 7561SOL    HW224581   3.537   1.989  10.247
 7562SOL     OW24582   5.476   0.329  10.262
 7562SOL    HW124583   5.439   0.274  10.330
 7562SOL    HW224584   5.429   0.304  10.182
 7563SOL     OW24585  12.842   9.127   3.408
 7563SOL    HW124586  12.922   9.172   3.435
 7563SOL    HW224587  12.833   9.148   3.315
 7564SOL     OW24588  13.797  11.294   4.872
 7564SOL    HW124589  13.837  11.297   4.785
 7564SOL    HW224590  13.865  11.328   4.931
 7565SOL     OW24591  13.668  14.450  14.590
 7565SOL    HW124592  13.678  14.371  14.643
 7565SOL    HW224593  13.741  14.507  14.617
 7566SOL     OW24594   5.945   2.395   4.162
 7566SOL    HW124595   5.988   2.363   4.083
 7566SOL    HW224596   6.004   2.370   4.233
 7567SOL     OW24597   7.742  12.737   0.408
 7567SOL    HW124598   7.816  12.761   0.352
 7567SOL    HW224599   7.718  12.649   0.379
 7568SOL     OW24600  13.229   3.782   0.164
 7568SOL    HW124601  13.158   3.756   0.223
 7568SOL    HW224602  13.285   3.839   0.217
 7569SOL     OW24603   3.843   0.145   3.094
 7569SOL    HW124604   3.897   0.211   3.051
 7569SOL    HW224605   3.845   0.169   3.187
 7570SOL     OW24606  10.025   7.906   5.885
 7570SOL    HW124607  10.005   7.861   5.966
 7570SOL    HW224608   9.990   7.849   5.816
 7571SOL     OW24609   3.395   1.207   4.892
 7571SOL    HW124610   3.323   1.255   4.934
 7571SOL    HW224611   3.353   1.132   4.850
 7572SOL     OW24612  14.581   8.889  14.371
 7572SOL    HW124613  14.591   8.954  14.440
 7572SOL    HW224614  14.647   8.823  14.390
 7573SOL     OW24615   1.414   4.254   2.348
 7573SOL    HW124616   1.461   4.196   2.407
 7573SOL    HW224617   1.330   4.210   2.333
 7574SOL     OW24618   8.356  10.418   6.351
 7574SOL    HW124619   8.369  10.328   6.322
 7574SOL    HW224620   8.421  10.431   6.420
 7575SOL     OW24621  13.353   5.285   4.554
 7575SOL    HW124622  13.306   5.201   4.549
 7575SOL    HW224623  13.285   5.349   4.573
 7576SOL     OW24624   4.819   5.440  12.072
 7576SOL    HW124625   4.907   5.476  12.065
 7576SOL    HW224626   4.826   5.371  12.137
 7577SOL     OW24627   5.991  13.151   9.355
 7577SOL    HW124628   5.946  13.209   9.294
 7577SOL    HW224629   5.934  13.148   9.432
 7578SOL     OW24630   9.184   6.844   0.968
 7578SOL    HW124631   9.204   6.904   0.896
 7578SOL    HW224632   9.200   6.757   0.931
 7579SOL     OW24633   5.509  12.861   4.329
 7579SOL    HW124634   5.561  12.910   4.393
 7579SOL    HW224635   5.497  12.775   4.368
 7580SOL     OW24636   6.191   9.681  14.288
 7580SOL    HW124637   6.221   9.717  14.204
 7580SOL    HW224638   6.137   9.606  14.264
 7581SOL     OW24639   6.045   0.120   9.549
 7581SOL    HW124640   6.028   0.143   9.641
 7581SOL    HW224641   5.970   0.066   9.524
 7582SOL     OW24642  10.560  10.616   7.650
 7582SOL    HW124643  10.513  10.577   7.576
 7582SOL    HW224644  10.501  10.605   7.725
 7583SOL     OW24645   6.691   2.085  14.615
 7583SOL    HW124646   6.615   2.126  14.573
 7583SOL    HW224647   6.666   1.993  14.624
 7584SOL     OW24648  10.314   0.672  11.397
 7584SOL    HW124649  10.397   0.711  11.371
 7584SOL    HW224650  10.255   0.747  11.410
 7585SOL     OW24651   7.745  11.038   3.720
 7585SOL    HW124652   7.700  11.043   3.636
 7585SOL    HW224653   7.675  11.034   3.785
 7586SOL     OW24654   1.478  12.013   5.882
 7586SOL    HW124655   1.403  12.072   5.872
 7586SOL    HW224656   1.535  12.033   5.808
 7587SOL     OW24657  10.741   8.059   6.509
 7587SOL    HW124658  10.793   8.076   6.588
 7587SOL    HW224659  10.805   8.029   6.444
 7588SOL     OW24660   9.184   4.201   7.709
 7588SOL    HW124661   9.166   4.243   7.793
 7588SOL    HW224662   9.207   4.274   7.651
 7589SOL     OW24663   1.409  12.394  10.666
 7589SOL    HW124664   1.399  12.373  10.758
 7589SOL    HW224665   1.325  12.429  10.639
 7590SOL     OW24666   1.152   1.761   1.017
 7590SOL    HW124667   1.123   1.671   1.003
 7590SOL    HW224668   1.244   1.753   1.042
 7591SOL     OW24669   3.535   6.716  14.192
 7591SOL    HW124670   3.553   6.808  14.212
 7591SOL    HW224671   3.619   6.672  14.205
 7592SOL     OW24672   7.953   0.141  14.088
 7592SOL    HW124673   8.005   0.129  14.167
 7592SOL    HW224674   7.967   0.062  14.037
 7593SOL     OW24675   8.110   0.910   4.778
 7593SOL    HW124676   8.172   0.983   4.770
 7593SOL    HW224677   8.139   0.862   4.856
 7594SOL     OW24678   3.244  13.529   0.668
 7594SOL    HW124679   3.153  13.517   0.640
 7594SOL    HW224680   3.274  13.606   0.619
 7595SOL     OW24681   6.342   9.822   5.640
 7595SOL    HW124682   6.419   9.858   5.683
 7595SOL    HW224683   6.371   9.804   5.550
 7596SOL     OW24684   2.535   4.453  12.021
 7596SOL    HW124685   2.610   4.398  12.045
 7596SOL    HW224686   2.498   4.481  12.105
 7597SOL     OW24687   8.897  10.275   4.001
 7597SOL    HW124688   8.923  10.362   3.973
 7597SOL    HW224689   8.891  10.281   4.096
 7598SOL     OW24690  13.066  12.785   4.328
 7598SOL    HW124691  12.975  12.755   4.327
 7598SOL    HW224692  13.062  12.873   4.364
 7599SOL     OW24693  12.352   9.481   2.385
 7599SOL    HW124694  12.289   9.479   2.457
 7599SOL    HW224695  12.415   9.411   2.406
 7600SOL     OW24696   4.090   7.383   3.604
 7600SOL    HW124697   4.179   7.347   3.593
 7600SOL    HW224698   4.052   7.331   3.675
 7601SOL     OW24699   1.599   8.501   8.390
 7601SOL    HW124700   1.677   8.551   8.417
 7601SOL    HW224701   1.603   8.421   8.442
 7602SOL     OW24702  13.401   0.467   8.125
 7602SOL    HW124703  13.310   0.490   8.110
 7602SOL    HW224704  13.413   0.475   8.219
 7603SOL     OW24705  10.688  13.122  13.740
 7603SOL    HW124706  10.749  13.193  13.759
 7603SOL    HW224707  10.649  13.144  13.656
 7604SOL     OW24708   8.668   9.896  12.119
 7604SOL    HW124709   8.622   9.827  12.070
 7604SOL    HW224710   8.642   9.882  12.210
 7605SOL     OW24711   5.440  14.867  13.263
 7605SOL    HW124712   5.410   0.032  13.344
 7605SOL    HW224713   5.465  14.778  13.287
 7606SOL     OW24714   8.731  13.018   6.267
 7606SOL    HW124715   8.763  13.096   6.221
 7606SOL    HW224716   8.675  12.974   6.202
 7607SOL     OW24717  12.962   3.838  11.470
 7607SOL    HW124718  12.940   3.752  11.433
 7607SOL    HW224719  12.879   3.885  11.473
 7608SOL     OW24720   7.224   2.634  10.158
 7608SOL    HW124721   7.296   2.592  10.110
 7608SOL    HW224722   7.197   2.706  10.101
 7609SOL     OW24723   8.035  10.115   7.341
 7609SOL    HW124724   7.992  10.176   7.401
 7609SOL    HW224725   8.017  10.151   7.254
 7610SOL     OW24726   9.576   1.020  10.066
 7610SOL    HW124727   9.556   1.073  10.143
 7610SOL    HW224728   9.617   1.083  10.005
 7611SOL     OW24729   0.318   9.379   6.950
 7611SOL    HW124730   0.353   9.460   6.912
 7611SOL    HW224731   0.239   9.361   6.898
 7612SOL     OW24732  14.737   6.269   8.400
 7612SOL    HW124733  14.723   6.207   8.328
 7612SOL    HW224734  14.755   6.353   8.356
 7613SOL     OW24735   2.249   8.464  14.267
 7613SOL    HW124736   2.185   8.502  14.327
 7613SOL    HW224737   2.254   8.372  14.292
 7614SOL     OW24738  13.870   1.628  12.969
 7614SOL    HW124739  13.787   1.586  12.993
 7614SOL    HW224740  13.897   1.675  13.048
 7615SOL     OW24741   5.657  14.099   9.700
 7615SOL    HW124742   5.662  14.137   9.613
 7615SOL    HW224743   5.649  14.005   9.685
 7616SOL     OW24744  13.561   8.896   2.849
 7616SOL    HW124745  13.559   8.989   2.869
 7616SOL    HW224746  13.486   8.882   2.790
 7617SOL     OW24747   2.154   8.274  13.370
 7617SOL    HW124748   2.114   8.244  13.288
 7617SOL    HW224749   2.093   8.342  13.402
 7618SOL     OW24750  10.071   9.561   4.065
 7618SOL    HW124751  10.081   9.543   3.971
 7618SOL    HW224752  10.104   9.483   4.108
 7619SOL     OW24753   9.287   1.452  13.980
 7619SOL    HW124754   9.317   1.392  14.048
 7619SOL    HW224755   9.209   1.493  14.018
 7620SOL     OW24756   3.730   8.029  14.368
 7620SOL    HW124757   3.773   8.001  14.449
 7620SOL    HW224758   3.645   8.063  14.396
 7621SOL     OW24759   0.506  11.618  11.756
 7621SOL    HW124760   0.516  11.534  11.712
 7621SOL    HW224761   0.594  11.656  11.757
 7622SOL     OW24762   8.260   1.041   3.627
 7622SOL    HW124763   8.238   1.108   3.692
 7622SOL    HW224764   8.356   1.039   3.626
 7623SOL     OW24765  14.339  14.501  10.418
 7623SOL    HW124766  14.383  14.587  10.420
 7623SOL    HW224767  14.372  14.456  10.496
 7624SOL     OW24768   7.242  14.199   5.916
 7624SOL    HW124769   7.307  14.267   5.899
 7624SOL    HW224770   7.158  14.245   5.913
 7625SOL     OW24771   8.840   1.089   9.427
 7625SOL    HW124772   8.844   1.175   9.386
 7625SOL    HW224773   8.780   1.100   9.501
 7626SOL     OW24774  12.213  12.770   1.622
 7626SOL    HW124775  12.164  12.697   1.585
 7626SOL    HW224776  12.286  12.729   1.669
 7627SOL     OW24777  10.050   4.899   4.748
 7627SOL    HW124778   9.967   4.869   4.712
 7627SOL    HW224779  10.034   4.909   4.841
 7628SOL     OW24780   7.962   7.685   5.148
 7628SOL    HW124781   7.925   7.657   5.064
 7628SOL    HW224782   7.950   7.610   5.206
 7629SOL     OW24783  10.052   4.229   5.604
 7629SOL    HW124784  10.048   4.201   5.512
 7629SOL    HW224785  10.114   4.169   5.645
 7630SOL     OW24786   1.215   6.274  13.505
 7630SOL    HW124787   1.252   6.285  13.417
 7630SOL    HW224788   1.279   6.218  13.550
 7631SOL     OW24789  12.495  11.982  10.921
 7631SOL    HW124790  12.410  11.937  10.913
 7631SOL    HW224791  12.559  11.911  10.928
 7632SOL     OW24792   1.925   1.894   9.838
 7632SOL    HW124793   1.902   1.907   9.930
 7632SOL    HW224794   1.965   1.976   9.811
 7633SOL     OW24795   1.420   1.928  10.092
 7633SOL    HW124796   1.436   1.926  10.186
 7633SOL    HW224797   1.485   1.868  10.055
 7634SOL     OW24798   4.258   9.888   6.341
 7634SOL    HW124799   4.201   9.854   6.410
 7634SOL    HW224800   4.336   9.919   6.387
 7635SOL     OW24801  11.179   3.692   3.614
 7635SOL    HW124802  11.085   3.691   3.631
 7635SOL    HW224803  11.201   3.601   3.594
 7636SOL     OW24804   5.985   0.121  11.084
 7636SOL    HW124805   6.039   0.167  11.148
 7636SOL    HW224806   5.934   0.059  11.136
 7637SOL     OW24807  12.437   5.656   9.560
 7637SOL    HW124808  12.480   5.741   9.563
 7637SOL    HW224809  12.419   5.635   9.652
 7638SOL     OW24810   2.191   4.371   9.831
 7638SOL    HW124811   2.140   4.347   9.909
 7638SOL    HW224812   2.175   4.300   9.769
 7639SOL     OW24813  10.323   7.853   1.786
 7639SOL    HW124814  10.368   7.893   1.712
 7639SOL    HW224815  10.325   7.920   1.855
 7640SOL     OW24816  10.782   1.888   2.255
 7640SOL    HW124817  10.825   1.974   2.252
 7640SOL    HW224818  10.720   1.895   2.328
 7641SOL     OW24819   0.218   2.793   7.755
 7641SOL    HW124820   0.268   2.874   7.744
 7641SOL    HW224821   0.127   2.821   7.756
 7642SOL     OW24822   9.796   9.000   3.590
 7642SOL    HW124823   9.744   9.080   3.581
 7642SOL    HW224824   9.823   8.980   3.500
 7643SOL     OW24825   5.047   4.120   8.666
 7643SOL    HW124826   5.121   4.059   8.674
 7643SOL    HW224827   4.982   4.087   8.728
 7644SOL     OW24828  14.224  12.836   3.284
 7644SOL    HW124829  14.134  12.810   3.263
 7644SOL    HW224830  14.261  12.761   3.329
 7645SOL     OW24831  14.155  11.188   0.795
 7645SOL    HW124832  14.201  11.216   0.874
 7645SOL    HW224833  14.107  11.109   0.821
 7646SOL     OW24834   6.871  13.704  10.328
 7646SOL    HW124835   6.820  13.776  10.290
 7646SOL    HW224836   6.956  13.742  10.347
 7647SOL     OW24837   2.078   8.169   0.223
 7647SOL    HW124838   2.161   8.126   0.245
 7647SOL    HW224839   2.083   8.183   0.128
 7648SOL     OW24840  11.418  12.478   6.026
 7648SOL    HW124841  11.415  12.557   5.972
 7648SOL    HW224842  11.328  12.464   6.053
 7649SOL     OW24843  10.902   2.040   6.200
 7649SOL    HW124844  10.958   2.033   6.122
 7649SOL    HW224845  10.873   1.950   6.216
 7650SOL     OW24846  13.635   7.679   9.085
 7650SOL    HW124847  13.680   7.762   9.067
 7650SOL    HW224848  13.650   7.626   9.007
 7651SOL     OW24849  13.842  11.609   0.880
 7651SOL    HW124850  13.890  11.602   0.963
 7651SOL    HW224851  13.845  11.521   0.843
 7652SOL     OW24852  10.780   2.709   3.251
 7652SOL    HW124853  10.714   2.736   3.188
 7652SOL    HW224854  10.748   2.627   3.287
 7653SOL     OW24855   1.419   5.599  13.462
 7653SOL    HW124856   1.479   5.654  13.411
 7653SOL    HW224857   1.475   5.532  13.502
 7654SOL     OW24858   4.726   5.742   8.670
 7654SOL    HW124859   4.813   5.731   8.709
 7654SOL    HW224860   4.681   5.660   8.689
 7655SOL     OW24861   9.173   8.243  11.157
 7655SOL    HW124862   9.220   8.183  11.099
 7655SOL    HW224863   9.183   8.205  11.244
 7656SOL     OW24864   9.313   0.731  10.266
 7656SOL    HW124865   9.311   0.823  10.239
 7656SOL    HW224866   9.282   0.732  10.357
 7657SOL     OW24867   9.817   8.371  12.464
 7657SOL    HW124868   9.848   8.299  12.409
 7657SOL    HW224869   9.722   8.367  12.457
 7658SOL     OW24870  12.800   5.138   5.128
 7658SOL    HW124871  12.779   5.079   5.200
 7658SOL    HW224872  12.860   5.087   5.073
 7659SOL     OW24873   0.102   3.616   1.235
 7659SOL    HW124874   0.131   3.623   1.144
 7659SOL    HW224875   0.103   3.706   1.267
 7660SOL     OW24876   6.475  13.076   4.207
 7660SOL    HW124877   6.412  13.016   4.248
 7660SOL    HW224878   6.515  13.122   4.280
 7661SOL     OW24879  12.497   0.893   1.356
 7661SOL    HW124880  12.473   0.915   1.266
 7661SOL    HW224881  12.514   0.977   1.398
 7662SOL     OW24882   9.012   3.136   5.136
 7662SOL    HW124883   9.056   3.218   5.115
 7662SOL    HW224884   8.959   3.116   5.059
 7663SOL     OW24885   0.709  11.533   5.492
 7663SOL    HW124886   0.729  11.499   5.579
 7663SOL    HW224887   0.767  11.484   5.433
 7664SOL     OW24888  10.308  12.274  14.125
 7664SOL    HW124889  10.274  12.364  14.124
 7664SOL    HW224890  10.361  12.268  14.045
 7665SOL     OW24891   8.545  11.707   6.021
 7665SOL    HW124892   8.606  11.642   5.988
 7665SOL    HW224893   8.470  11.703   5.960
 7666SOL     OW24894   7.315  13.663   1.842
 7666SOL    HW124895   7.391  13.720   1.852
 7666SOL    HW224896   7.333  13.590   1.902
 7667SOL     OW24897   3.908   8.868   9.347
 7667SOL    HW124898   3.820   8.889   9.316
 7667SOL    HW224899   3.966   8.901   9.278
 7668SOL     OW24900  10.698   5.212   6.139
 7668SOL    HW124901  10.690   5.306   6.124
 7668SOL    HW224902  10.637   5.173   6.077
 7669SOL     OW24903   7.200  12.110   1.321
 7669SOL    HW124904   7.281  12.059   1.325
 7669SOL    HW224905   7.133  12.052   1.355
 7670SOL     OW24906  11.593   9.923   6.622
 7670SOL    HW124907  11.518   9.925   6.562
 7670SOL    HW224908  11.602  10.014   6.652
 7671SOL     OW24909   4.122   7.683   0.049
 7671SOL    HW124910   4.126   7.763   0.103
 7671SOL    HW224911   4.032   7.654   0.056
 7672SOL     OW24912   4.094  14.446   3.356
 7672SOL    HW124913   4.112  14.377   3.420
 7672SOL    HW224914   4.108  14.527   3.404
 7673SOL     OW24915   2.131   4.882  12.456
 7673SOL    HW124916   2.089   4.911  12.537
 7673SOL    HW224917   2.114   4.953  12.394
 7674SOL     OW24918  11.688  10.664  11.927
 7674SOL    HW124919  11.777  10.653  11.894
 7674SOL    HW224920  11.656  10.744  11.885
 7675SOL     OW24921   6.530  13.877   2.475
 7675SOL    HW124922   6.590  13.809   2.506
 7675SOL    HW224923   6.586  13.953   2.458
 7676SOL     OW24924  12.686   6.922  12.743
 7676SOL    HW124925  12.658   6.925  12.652
 7676SOL    HW224926  12.645   6.842  12.778
 7677SOL     OW24927   3.883   3.755   8.261
 7677SOL    HW124928   3.898   3.701   8.183
 7677SOL    HW224929   3.863   3.692   8.330
 7678SOL     OW24930   1.277   8.889  12.403
 7678SOL    HW124931   1.233   8.916  12.322
 7678SOL    HW224932   1.368   8.918  12.391
 7679SOL     OW24933  14.773  14.154  10.590
 7679SOL    HW124934  14.850  14.099  10.599
 7679SOL    HW224935  14.770  14.204  10.672
 7680SOL     OW24936   9.214   5.285  13.371
 7680SOL    HW124937   9.213   5.205  13.318
 7680SOL    HW224938   9.290   5.334  13.339
 7681SOL     OW24939   5.789  11.793   4.778
 7681SOL    HW124940   5.765  11.796   4.685
 7681SOL    HW224941   5.879  11.760   4.779
 7682SOL     OW24942   0.437   3.965   9.373
 7682SOL    HW124943   0.406   3.878   9.399
 7682SOL    HW224944   0.491   3.950   9.296
 7683SOL     OW24945   0.611   8.302   5.038
 7683SOL    HW124946   0.599   8.360   4.963
 7683SOL    HW224947   0.525   8.260   5.049
 7684SOL     OW24948   2.447  10.119   2.008
 7684SOL    HW124949   2.504  10.189   1.976
 7684SOL    HW224950   2.379  10.112   1.941
 7685SOL     OW24951  13.772  11.504   2.569
 7685SOL    HW124952  13.802  11.592   2.592
 7685SOL    HW224953  13.733  11.470   2.649
 7686SOL     OW24954  10.974  14.827   8.580
 7686SOL    HW124955  10.880  14.822   8.561
 7686SOL    HW224956  10.981   0.021   8.646
 7687SOL     OW24957  14.809  11.546  11.241
 7687SOL    HW124958   0.020  11.588  11.229
 7687SOL    HW224959  14.811  11.514  11.332
 7688SOL     OW24960  14.462   9.837  10.864
 7688SOL    HW124961  14.491   9.921  10.826
 7688SOL    HW224962  14.367   9.842  10.864
 7689SOL     OW24963   2.527  13.111   4.112
 7689SOL    HW124964   2.464  13.183   4.118
 7689SOL    HW224965   2.563  13.118   4.024
 7690SOL     OW24966   6.023   7.221   4.225
 7690SOL    HW124967   5.944   7.221   4.279
 7690SOL    HW224968   6.054   7.130   4.228
 7691SOL     OW24969   8.760   2.205   5.731
 7691SOL    HW124970   8.808   2.286   5.752
 7691SOL    HW224971   8.825   2.136   5.741
 7692SOL     OW24972  12.390  11.103   5.813
 7692SOL    HW124973  12.321  11.165   5.838
 7692SOL    HW224974  12.344  11.019   5.806
 7693SOL     OW24975  10.601   0.562  13.223
 7693SOL    HW124976  10.595   0.540  13.315
 7693SOL    HW224977  10.679   0.518  13.192
 7694SOL     OW24978   9.499  10.694  14.049
 7694SOL    HW124979   9.478  10.606  14.078
 7694SOL    HW224980   9.419  10.744  14.061
 7695SOL     OW24981   7.407   1.317   2.632
 7695SOL    HW124982   7.315   1.331   2.611
 7695SOL    HW224983   7.448   1.300   2.547
 7696SOL     OW24984   1.029   5.464   2.623
 7696SOL    HW124985   1.102   5.480   2.683
 7696SOL    HW224986   0.955   5.510   2.661
 7697SOL     OW24987  12.154  13.361   9.618
 7697SOL    HW124988  12.199  13.445   9.618
 7697SOL    HW224989  12.140  13.341   9.526
 7698SOL     OW24990   8.115  14.283  13.937
 7698SOL    HW124991   8.169  14.223  13.886
 7698SOL    HW224992   8.111  14.243  14.024
 7699SOL     OW24993  11.472   2.308   0.278
 7699SOL    HW124994  11.511   2.371   0.338
 7699SOL    HW224995  11.486   2.223   0.319
 7700SOL     OW24996  14.342   6.765   4.376
 7700SOL    HW124997  14.376   6.752   4.465
 7700SOL    HW224998  14.248   6.749   4.384
 7701SOL     OW24999  14.143   5.772  12.562
 7701SOL    HW125000  14.147   5.754  12.468
 7701SOL    HW225001  14.052   5.797  12.577
 7702SOL     OW25002   8.805  12.841  11.478
 7702SOL    HW125003   8.828  12.912  11.417
 7702SOL    HW225004   8.738  12.879  11.535
 7703SOL     OW25005  10.968  13.244  12.728
 7703SOL    HW125006  10.969  13.338  12.741
 7703SOL    HW225007  10.977  13.232  12.634
 7704SOL     OW25008  13.568  13.798   5.679
 7704SOL    HW125009  13.589  13.780   5.771
 7704SOL    HW225010  13.525  13.718   5.649
 7705SOL     OW25011  11.302   9.767   7.970
 7705SOL    HW125012  11.266   9.848   7.934
 7705SOL    HW225013  11.373   9.794   8.027
 7706SOL     OW25014   7.687   5.070   2.542
 7706SOL    HW125015   7.624   5.118   2.487
 7706SOL    HW225016   7.772   5.092   2.505
 7707SOL     OW25017   2.768  12.574  12.438
 7707SOL    HW125018   2.847  12.613  12.476
 7707SOL    HW225019   2.736  12.640  12.376
 7708SOL     OW25020  11.043   7.796   0.631
 7708SOL    HW125021  10.993   7.725   0.673
 7708SOL    HW225022  11.133   7.763   0.628
 7709SOL     OW25023  11.761   0.016  12.396
 7709SOL    HW125024  11.739   0.074  12.469
 7709SOL    HW225025  11.709  14.812  12.411
 7710SOL     OW25026   9.133  14.316   0.755
 7710SOL    HW125027   9.092  14.353   0.677
 7710SOL    HW225028   9.145  14.224   0.734
 7711SOL     OW25029   7.254  13.519  13.571
 7711SOL    HW125030   7.349  13.525  13.583
 7711SOL    HW225031   7.238  13.564  13.488
 7712SOL     OW25032   4.877   5.513  10.784
 7712SOL    HW125033   4.966   5.548  10.775
 7712SOL    HW225034   4.824   5.587  10.811
 7713SOL     OW25035  13.218   0.189   3.089
 7713SOL    HW125036  13.122   0.185   3.096
 7713SOL    HW225037  13.240   0.278   3.114
 7714SOL     OW25038  12.095   8.793   7.423
 7714SOL    HW125039  12.085   8.876   7.467
 7714SOL    HW225040  12.188   8.773   7.430
 7715SOL     OW25041   9.403  10.461  10.527
 7715SOL    HW125042   9.375  10.512  10.452
 7715SOL    HW225043   9.396  10.520  10.601
 7716SOL     OW25044   0.877   5.531   7.898
 7716SOL    HW125045   0.942   5.600   7.900
 7716SOL    HW225046   0.816   5.558   7.829
 7717SOL     OW25047   1.817   0.989   7.180
 7717SOL    HW125048   1.894   1.044   7.170
 7717SOL    HW225049   1.788   1.004   7.270
 7718SOL     OW25050  11.337   2.932   4.898
 7718SOL    HW125051  11.289   2.909   4.819
 7718SOL    HW225052  11.355   2.848   4.940
 7719SOL     OW25053   0.010   4.926   4.479
 7719SOL    HW125054  14.809   4.977   4.506
 7719SOL    HW225055   0.014   4.937   4.384
 7720SOL     OW25056  10.748   1.938   7.922
 7720SOL    HW125057  10.703   1.860   7.889
 7720SOL    HW225058  10.826   1.946   7.867
 7721SOL     OW25059   6.148   5.228   8.335
 7721SOL    HW125060   6.231   5.210   8.290
 7721SOL    HW225061   6.085   5.241   8.264
 7722SOL     OW25062  10.566   4.575   9.448
 7722SOL    HW125063  10.498   4.510   9.432
 7722SOL    HW225064  10.584   4.613   9.363
 7723SOL     OW25065   7.997   2.295   8.595
 7723SOL    HW125066   7.972   2.280   8.504
 7723SOL    HW225067   7.949   2.374   8.621
 7724SOL     OW25068  10.575   2.605   2.903
 7724SOL    HW125069  10.536   2.629   2.819
 7724SOL    HW225070  10.667   2.628   2.895
 7725SOL     OW25071   9.182   5.092   4.797
 7725SOL    HW125072   9.174   5.186   4.814
 7725SOL    HW225073   9.210   5.087   4.705
 7726SOL     OW25074  13.608   8.821  11.391
 7726SOL    HW125075  13.668   8.818  11.466
 7726SOL    HW225076  13.587   8.914  11.381
 7727SOL     OW25077   5.585  13.132  12.712
 7727SOL    HW125078   5.623  13.204  12.762
 7727SOL    HW225079   5.656  13.069  12.701
 7728SOL     OW25080   7.154  10.299   3.534
 7728SOL    HW125081   7.158  10.385   3.492
 7728SOL    HW225082   7.198  10.240   3.472
 7729SOL     OW25083  10.954  14.069   3.941
 7729SOL    HW125084  10.977  14.159   3.962
 7729SOL    HW225085  10.952  14.066   3.845
 7730SOL     OW25086   3.983  13.272  11.794
 7730SOL    HW125087   3.913  13.231  11.845
 7730SOL    HW225088   4.023  13.335  11.854
 7731SOL     OW25089   0.049   8.044   7.361
 7731SOL    HW125090  14.829   8.038   7.356
 7731SOL    HW225091   0.078   8.041   7.270
 7732SOL     OW25092   7.026   3.284   5.155
 7732SOL    HW125093   7.114   3.316   5.177
 7732SOL    HW225094   7.024   3.195   5.189
 7733SOL     OW25095   8.429  14.414   0.795
 7733SOL    HW125096   8.450  14.325   0.824
 7733SOL    HW225097   8.335  14.422   0.812
 7734SOL     OW25098  12.111   4.246   8.277
 7734SOL    HW125099  12.125   4.212   8.365
 7734SOL    HW225100  12.166   4.192   8.221
 7735SOL     OW25101  14.060   9.203  13.837
 7735SOL    HW125102  14.054   9.145  13.761
 7735SOL    HW225103  13.969   9.220  13.861
 7736SOL     OW25104   1.231   6.221  11.313
 7736SOL    HW125105   1.269   6.264  11.389
 7736SOL    HW225106   1.191   6.292  11.263
 7737SOL     OW25107   7.054   1.094   7.493
 7737SOL    HW125108   7.145   1.079   7.521
 7737SOL    HW225109   7.002   1.035   7.548
 7738SOL     OW25110   5.050   0.954   9.664
 7738SOL    HW125111   4.958   0.969   9.684
 7738SOL    HW225112   5.095   0.972   9.747
 7739SOL     OW25113   9.480   5.273  13.589
 7739SOL    HW125114   9.457   5.208  13.522
 7739SOL    HW225115   9.560   5.314  13.556
 7740SOL     OW25116  10.880  11.990   6.207
 7740SOL    HW125117  10.879  12.048   6.283
 7740SOL    HW225118  10.929  11.913   6.237
 7741SOL     OW25119   6.043   8.446  11.362
 7741SOL    HW125120   5.973   8.399  11.407
 7741SOL    HW225121   6.087   8.495  11.430
 7742SOL     OW25122  13.742   2.596  14.090
 7742SOL    HW125123  13.827   2.639  14.091
 7742SOL    HW225124  13.681   2.663  14.059
 7743SOL     OW25125   4.423   3.663   9.723
 7743SOL    HW125126   4.342   3.678   9.770
 7743SOL    HW225127   4.467   3.748   9.723
 7744SOL     OW25128  10.630   3.028  14.638
 7744SOL    HW125129  10.550   3.043  14.587
 7744SOL    HW225130  10.647   3.111  14.681
 7745SOL     OW25131   5.856   6.764  10.380
 7745SOL    HW125132   5.815   6.719  10.306
 7745SOL    HW225133   5.784   6.809  10.423
 7746SOL     OW25134  13.350   4.967   1.586
 7746SOL    HW125135  13.389   4.889   1.547
 7746SOL    HW225136  13.408   4.989   1.658
 7747SOL     OW25137   6.206  13.018   0.665
 7747SOL    HW125138   6.285  12.964   0.656
 7747SOL    HW225139   6.237  13.108   0.657
 7748SOL     OW25140   8.354   9.361   8.566
 7748SOL    HW125141   8.302   9.284   8.543
 7748SOL    HW225142   8.290   9.430   8.580
 7749SOL     OW25143   0.092   7.472   8.671
 7749SOL    HW125144   0.143   7.426   8.605
 7749SOL    HW225145   0.123   7.436   8.754
 7750SOL     OW25146   7.273   7.240   1.763
 7750SOL    HW125147   7.202   7.189   1.801
 7750SOL    HW225148   7.326   7.267   1.838
 7751SOL     OW25149   0.195   0.155  14.661
 7751SOL    HW125150   0.131   0.215  14.700
 7751SOL    HW225151   0.278   0.176  14.706
 7752SOL     OW25152  10.415   8.176   3.179
 7752SOL    HW125153  10.491   8.118   3.191
 7752SOL    HW225154  10.442   8.260   3.216
 7753SOL     OW25155   5.516  10.804  10.388
 7753SOL    HW125156   5.592  10.856  10.362
 7753SOL    HW225157   5.443  10.867  10.390
 7754SOL     OW25158  13.220  13.783   5.853
 7754SOL    HW125159  13.136  13.799   5.810
 7754SOL    HW225160  13.254  13.703   5.813
 7755SOL     OW25161   1.144   4.736  10.298
 7755SOL    HW125162   1.095   4.659  10.329
 7755SOL    HW225163   1.095   4.768  10.223
 7756SOL     OW25164   5.987  12.996  11.244
 7756SOL    HW125165   6.033  12.980  11.327
 7756SOL    HW225166   5.958  13.087  11.250
 7757SOL     OW25167  11.314   1.344   6.888
 7757SOL    HW125168  11.371   1.268   6.893
 7757SOL    HW225169  11.260   1.328   6.811
 7758SOL     OW25170   6.580   7.492   3.412
 7758SOL    HW125171   6.581   7.493   3.317
 7758SOL    HW225172   6.666   7.458   3.437
 7759SOL     OW25173   6.399  13.495   6.480
 7759SOL    HW125174   6.424  13.470   6.391
 7759SOL    HW225175   6.419  13.417   6.533
 7760SOL     OW25176   9.507  12.381   9.697
 7760SOL    HW125177   9.429  12.334   9.667
 7760SOL    HW225178   9.472  12.459   9.740
 7761SOL     OW25179  12.781   9.046  11.711
 7761SOL    HW125180  12.843   9.118  11.718
 7761SOL    HW225181  12.752   9.048  11.619
 7762SOL     OW25182  13.744   9.250   7.937
 7762SOL    HW125183  13.662   9.202   7.937
 7762SOL    HW225184  13.720   9.339   7.965
 7763SOL     OW25185   0.582   4.526   1.049
 7763SOL    HW125186   0.516   4.569   1.103
 7763SOL    HW225187   0.624   4.598   1.001
 7764SOL     OW25188  10.121   6.951   5.387
 7764SOL    HW125189  10.089   7.023   5.441
 7764SOL    HW225190  10.188   6.991   5.331
 7765SOL     OW25191  11.130  10.369   5.108
 7765SOL    HW125192  11.069  10.425   5.157
 7765SOL    HW225193  11.172  10.428   5.045
 7766SOL     OW25194   5.217  10.518  13.137
 7766SOL    HW125195   5.249  10.435  13.171
 7766SOL    HW225196   5.287  10.548  13.078
 7767SOL     OW25197  10.200   9.012   8.451
 7767SOL    HW125198  10.176   9.072   8.521
 7767SOL    HW225199  10.134   8.942   8.455
 7768SOL     OW25200   1.882  10.044  13.408
 7768SOL    HW125201   1.802  10.049  13.356
 7768SOL    HW225202   1.858   9.992  13.485
 7769SOL     OW25203   1.412  12.972   8.925
 7769SOL    HW125204   1.413  12.886   8.967
 7769SOL    HW225205   1.496  12.977   8.880
 7770SOL     OW25206   0.328   2.738   2.349
 7770SOL    HW125207   0.336   2.751   2.255
 7770SOL    HW225208   0.344   2.824   2.387
 7771SOL     OW25209   5.080   5.891   5.041
 7771SOL    HW125210   4.996   5.898   5.085
 7771SOL    HW225211   5.117   5.809   5.072
 7772SOL     OW25212  13.906   4.560   6.094
 7772SOL    HW125213  13.945   4.535   6.010
 7772SOL    HW225214  13.850   4.486   6.117
 7773SOL     OW25215  14.312  12.779  10.107
 7773SOL    HW125216  14.286  12.706  10.050
 7773SOL    HW225217  14.404  12.794  10.086
 7774SOL     OW25218  14.421  12.657   4.558
 7774SOL    HW125219  14.502  12.622   4.520
 7774SOL    HW225220  14.389  12.587   4.614
 7775SOL     OW25221   2.177   9.746   2.595
 7775SOL    HW125222   2.183   9.689   2.518
 7775SOL    HW225223   2.139   9.827   2.562
 7776SOL     OW25224  11.820   6.673   9.804
 7776SOL    HW125225  11.893   6.664   9.743
 7776SOL    HW225226  11.860   6.675   9.891
 7777SOL     OW25227   9.910   7.596   9.985
 7777SOL    HW125228   9.862   7.646  10.052
 7777SOL    HW225229  10.002   7.609  10.008
 7778SOL     OW25230  13.687   8.551   4.307
 7778SOL    HW125231  13.747   8.555   4.381
 7778SOL    HW225232  13.610   8.507   4.340
 7779SOL     OW25233  14.510  14.642   5.877
 7779SOL    HW125234  14.511  14.558   5.923
 7779SOL    HW225235  14.418  14.655   5.854
 7780SOL     OW25236   9.386   2.610  14.210
 7780SOL    HW125237   9.378   2.578  14.120
 7780SOL    HW225238   9.476   2.587  14.236
 7781SOL     OW25239   8.125   8.102  14.555
 7781SOL    HW125240   8.093   8.029  14.501
 7781SOL    HW225241   8.123   8.178  14.497
 7782SOL     OW25242  13.116  12.903  12.997
 7782SOL    HW125243  13.038  12.955  13.018
 7782SOL    HW225244  13.089  12.848  12.924
 7783SOL     OW25245  14.534   2.709  13.212
 7783SOL    HW125246  14.487   2.649  13.268
 7783SOL    HW225247  14.466   2.761  13.169
 7784SOL     OW25248   2.725   5.142   7.650
 7784SOL    HW125249   2.782   5.219   7.651
 7784SOL    HW225250   2.785   5.068   7.653
 7785SOL     OW25251   6.809   9.636   5.843
 7785SOL    HW125252   6.746   9.684   5.789
 7785SOL    HW225253   6.837   9.699   5.909
 7786SOL     OW25254  12.879   5.746  12.897
 7786SOL    HW125255  12.868   5.753  12.992
 7786SOL    HW225256  12.969   5.714  12.886
 7787SOL     OW25257   9.539   7.590  11.036
 7787SOL    HW125258   9.542   7.678  10.999
 7787SOL    HW225259   9.532   7.532  10.960
 7788SOL     OW25260   4.064   1.995   4.064
 7788SOL    HW125261   4.122   1.919   4.068
 7788SOL    HW225262   4.007   1.977   3.989
 7789SOL     OW25263  13.479   8.456   0.352
 7789SOL    HW125264  13.487   8.425   0.262
 7789SOL    HW225265  13.569   8.455   0.386
 7790SOL     OW25266   6.950   2.984   1.973
 7790SOL    HW125267   7.024   2.979   2.033
 7790SOL    HW225268   6.980   2.938   1.895
 7791SOL     OW25269  13.587  12.714   9.263
 7791SOL    HW125270  13.514  12.656   9.281
 7791SOL    HW225271  13.611  12.695   9.172
 7792SOL     OW25272  11.208  10.974   4.869
 7792SOL    HW125273  11.284  10.945   4.919
 7792SOL    HW225274  11.237  10.970   4.778
 7793SOL     OW25275  13.553   1.734   9.118
 7793SOL    HW125276  13.588   1.808   9.068
 7793SOL    HW225277  13.478   1.704   9.067
 7794SOL     OW25278  12.692   9.676   8.541
 7794SOL    HW125279  12.715   9.637   8.625
 7794SOL    HW225280  12.774   9.710   8.507
 7795SOL     OW25281   8.504   5.271  13.522
 7795SOL    HW125282   8.545   5.328  13.457
 7795SOL    HW225283   8.577   5.232  13.570
 7796SOL     OW25284   4.369   8.801  10.625
 7796SOL    HW125285   4.428   8.864  10.666
 7796SOL    HW225286   4.401   8.715  10.654
 7797SOL     OW25287   0.421   3.487   1.082
 7797SOL    HW125288   0.419   3.582   1.066
 7797SOL    HW225289   0.339   3.455   1.044
 7798SOL     OW25290   9.334  11.614  13.155
 7798SOL    HW125291   9.329  11.689  13.215
 7798SOL    HW225292   9.331  11.537  13.212
 7799SOL     OW25293   3.287   0.225   6.216
 7799SOL    HW125294   3.221   0.163   6.184
 7799SOL    HW225295   3.237   0.289   6.266
 7800SOL     OW25296   1.663  12.075  14.250
 7800SOL    HW125297   1.730  12.142  14.235
 7800SOL    HW225298   1.591  12.123  14.293
 7801SOL     OW25299   8.238  13.856   6.921
 7801SOL    HW125300   8.184  13.872   6.844
 7801SOL    HW225301   8.175  13.833   6.990
 7802SOL     OW25302  11.301   4.294   9.849
 7802SOL    HW125303  11.389   4.257   9.858
 7802SOL    HW225304  11.301   4.334   9.762
 7803SOL     OW25305   2.214   4.264   5.771
 7803SOL    HW125306   2.189   4.180   5.810
 7803SOL    HW225307   2.276   4.302   5.834
 7804SOL     OW25308   3.763   4.143   2.767
 7804SOL    HW125309   3.678   4.156   2.809
 7804SOL    HW225310   3.786   4.052   2.786
 7805SOL     OW25311   5.206   8.517   1.537
 7805SOL    HW125312   5.194   8.443   1.477
 7805SOL    HW225313   5.126   8.519   1.589
 7806SOL     OW25314   2.456   1.589   7.177
 7806SOL    HW125315   2.413   1.511   7.212
 7806SOL    HW225316   2.437   1.658   7.241
 7807SOL     OW25317  11.767   1.230   7.659
 7807SOL    HW125318  11.765   1.160   7.725
 7807SOL    HW225319  11.835   1.290   7.689
 7808SOL     OW25320   3.432  12.226  11.892
 7808SOL    HW125321   3.357  12.275  11.857
 7808SOL    HW225322   3.445  12.263  11.979
 7809SOL     OW25323   1.911   4.784   4.455
 7809SOL    HW125324   1.885   4.714   4.515
 7809SOL    HW225325   1.832   4.804   4.405
 7810SOL     OW25326  12.604   9.005  10.805
 7810SOL    HW125327  12.617   9.086  10.755
 7810SOL    HW225328  12.664   8.942  10.765
 7811SOL     OW25329   2.010  14.344   3.221
 7811SOL    HW125330   2.003  14.290   3.143
 7811SOL    HW225331   2.031  14.432   3.188
 7812SOL     OW25332   7.408   4.960   8.921
 7812SOL    HW125333   7.496   4.930   8.944
 7812SOL    HW225334   7.355   4.940   8.998
 7813SOL     OW25335   4.310  12.401   1.321
 7813SOL    HW125336   4.360  12.329   1.360
 7813SOL    HW225337   4.228  12.360   1.292
 7814SOL     OW25338   5.822   9.558  13.416
 7814SOL    HW125339   5.737   9.585  13.452
 7814SOL    HW225340   5.886   9.592  13.478
 7815SOL     OW25341   8.020   8.980   4.701
 7815SOL    HW125342   8.042   9.048   4.765
 7815SOL    HW225343   7.929   8.957   4.721
 7816SOL     OW25344   5.738  14.024  12.795
 7816SOL    HW125345   5.733  14.116  12.819
 7816SOL    HW225346   5.820  14.016  12.745
 7817SOL     OW25347   6.306   6.556  10.398
 7817SOL    HW125348   6.319   6.650  10.415
 7817SOL    HW225349   6.305   6.550  10.303
 7818SOL     OW25350   5.695   3.146   5.594
 7818SOL    HW125351   5.610   3.175   5.626
 7818SOL    HW225352   5.697   3.173   5.502
 7819SOL     OW25353   9.776   0.107   8.477
 7819SOL    HW125354   9.833   0.044   8.520
 7819SOL    HW225355   9.814   0.118   8.390
 7820SOL     OW25356   1.209   3.262   6.341
 7820SOL    HW125357   1.156   3.311   6.405
 7820SOL    HW225358   1.299   3.277   6.369
 7821SOL     OW25359   1.871   6.323  13.568
 7821SOL    HW125360   1.804   6.389  13.551
 7821SOL    HW225361   1.944   6.372  13.606
 7822SOL     OW25362   0.440   5.589  12.608
 7822SOL    HW125363   0.506   5.620  12.670
 7822SOL    HW225364   0.356   5.608  12.650
 7823SOL     OW25365  10.503   7.877  11.227
 7823SOL    HW125366  10.577   7.928  11.193
 7823SOL    HW225367  10.514   7.790  11.189
 7824SOL     OW25368   2.049   3.689   2.757
 7824SOL    HW125369   2.088   3.709   2.842
 7824SOL    HW225370   2.097   3.744   2.695
 7825SOL     OW25371   6.885  14.309   3.904
 7825SOL    HW125372   6.972  14.346   3.918
 7825SOL    HW225373   6.864  14.264   3.986
 7826SOL     OW25374   5.928   0.648  10.933
 7826SOL    HW125375   5.985   0.691  10.996
 7826SOL    HW225376   5.882   0.581  10.984
 7827SOL     OW25377   1.100   1.954  12.780
 7827SOL    HW125378   1.014   1.979  12.745
 7827SOL    HW225379   1.116   1.867  12.745
 7828SOL     OW25380   6.402  13.915   7.319
 7828SOL    HW125381   6.414  13.932   7.412
 7828SOL    HW225382   6.317  13.870   7.314
 7829SOL     OW25383   3.767   2.520  11.361
 7829SOL    HW125384   3.720   2.494  11.282
 7829SOL    HW225385   3.836   2.579  11.330
 7830SOL     OW25386   4.638   8.855   2.445
 7830SOL    HW125387   4.602   8.943   2.455
 7830SOL    HW225388   4.567   8.797   2.472
 7831SOL     OW25389  11.499   5.276   0.940
 7831SOL    HW125390  11.566   5.220   0.980
 7831SOL    HW225391  11.508   5.360   0.985
 7832SOL     OW25392  10.807  14.522  11.964
 7832SOL    HW125393  10.751  14.596  11.942
 7832SOL    HW225394  10.893  14.561  11.981
 7833SOL     OW25395   5.920   2.708  14.754
 7833SOL    HW125396   5.850   2.730  14.693
 7833SOL    HW225397   5.887   2.632  14.801
 7834SOL     OW25398   3.953   2.807  10.719
 7834SOL    HW125399   3.894   2.745  10.675
 7834SOL    HW225400   3.966   2.877  10.654
 7835SOL     OW25401   0.145   0.934  11.432
 7835SOL    HW125402   0.121   0.898  11.517
 7835SOL    HW225403   0.089   0.888  11.369
 7836SOL     OW25404   1.037   4.821   4.296
 7836SOL    HW125405   1.071   4.783   4.215
 7836SOL    HW225406   0.978   4.891   4.267
 7837SOL     OW25407   2.568   3.738   1.323
 7837SOL    HW125408   2.484   3.709   1.357
 7837SOL    HW225409   2.558   3.833   1.310
 7838SOL     OW25410  14.360   8.348  11.002
 7838SOL    HW125411  14.335   8.438  10.980
 7838SOL    HW225412  14.277   8.301  11.011
 7839SOL     OW25413   9.103  13.749   9.490
 7839SOL    HW125414   9.026  13.754   9.433
 7839SOL    HW225415   9.151  13.830   9.471
 7840SOL     OW25416  10.715   1.987   1.540
 7840SOL    HW125417  10.745   1.960   1.627
 7840SOL    HW225418  10.626   1.953   1.533
 7841SOL     OW25419   8.438  12.591  10.971
 7841SOL    HW125420   8.379  12.523  11.002
 7841SOL    HW225421   8.470  12.634  11.050
 7842SOL     OW25422  13.586   9.035  13.316
 7842SOL    HW125423  13.571   8.943  13.292
 7842SOL    HW225424  13.540   9.046  13.399
 7843SOL     OW25425   5.295  11.892   0.384
 7843SOL    HW125426   5.386  11.873   0.363
 7843SOL    HW225427   5.299  11.971   0.438
 7844SOL     OW25428   0.600   0.871  10.796
 7844SOL    HW125429   0.673   0.880  10.734
 7844SOL    HW225430   0.528   0.919  10.755
 7845SOL     OW25431   0.567   8.343  13.309
 7845SOL    HW125432   0.502   8.382  13.251
 7845SOL    HW225433   0.549   8.249  13.307
 7846SOL     OW25434   2.115  13.438  10.951
 7846SOL    HW125435   2.141  13.392  11.031
 7846SOL    HW225436   2.193  13.488  10.926
 7847SOL     OW25437  10.006  12.381  13.209
 7847SOL    HW125438  10.012  12.463  13.159
 7847SOL    HW225439   9.982  12.408  13.297
 7848SOL     OW25440  13.416   6.145   3.473
 7848SOL    HW125441  13.462   6.061   3.484
 7848SOL    HW225442  13.470   6.208   3.523
 7849SOL     OW25443   9.759  11.686   9.267
 7849SOL    HW125444   9.837  11.667   9.215
 7849SOL    HW225445   9.785  11.670   9.357
 7850SOL     OW25446  10.114  14.246   4.372
 7850SOL    HW125447  10.204  14.237   4.342
 7850SOL    HW225448  10.089  14.159   4.401
 7851SOL     OW25449   2.337   5.212  12.387
 7851SOL    HW125450   2.254   5.192  12.343
 7851SOL    HW225451   2.347   5.141  12.451
 7852SOL     OW25452   9.842  12.754   9.503
 7852SOL    HW125453   9.760  12.791   9.535
 7852SOL    HW225454   9.860  12.681   9.562
 7853SOL     OW25455   5.451  12.597   6.374
 7853SOL    HW125456   5.395  12.619   6.449
 7853SOL    HW225457   5.391  12.557   6.311
 7854SOL     OW25458  10.698   0.279  13.490
 7854SOL    HW125459  10.672   0.371  13.496
 7854SOL    HW225460  10.771   0.270  13.551
 7855SOL     OW25461   4.151   1.009   7.287
 7855SOL    HW125462   4.120   0.925   7.322
 7855SOL    HW225463   4.213   0.986   7.219
 7856SOL     OW25464  13.468   7.206   6.158
 7856SOL    HW125465  13.475   7.301   6.161
 7856SOL    HW225466  13.426   7.188   6.074
 7857SOL     OW25467   2.816   2.117   6.020
 7857SOL    HW125468   2.822   2.023   6.034
 7857SOL    HW225469   2.723   2.135   6.011
 7858SOL     OW25470   0.868   7.368   9.663
 7858SOL    HW125471   0.786   7.344   9.705
 7858SOL    HW225472   0.932   7.373   9.734
 7859SOL     OW25473   1.974   3.895   7.577
 7859SOL    HW125474   1.923   3.868   7.654
 7859SOL    HW225475   1.957   3.989   7.570
 7860SOL     OW25476   8.896  12.246   7.867
 7860SOL    HW125477   8.865  12.304   7.798
 7860SOL    HW225478   8.885  12.158   7.831
 7861SOL     OW25479   6.076   9.527   9.712
 7861SOL    HW125480   6.012   9.481   9.766
 7861SOL    HW225481   6.048   9.619   9.715
 7862SOL     OW25482   3.307  10.601  13.943
 7862SOL    HW125483   3.220  10.620  13.908
 7862SOL    HW225484   3.337  10.683  13.981
 7863SOL     OW25485   1.976  10.933  13.165
 7863SOL    HW125486   2.062  10.916  13.202
 7863SOL    HW225487   1.919  10.947  13.241
 7864SOL     OW25488  11.458   8.413   1.587
 7864SOL    HW125489  11.531   8.352   1.598
 7864SOL    HW225490  11.479   8.461   1.507
 7865SOL     OW25491   5.225   4.080   4.155
 7865SOL    HW125492   5.218   4.070   4.060
 7865SOL    HW225493   5.171   4.010   4.191
 7866SOL     OW25494   2.336   2.201   7.138
 7866SOL    HW125495   2.426   2.187   7.109
 7866SOL    HW225496   2.288   2.224   7.058
 7867SOL     OW25497   9.277   3.209   3.933
 7867SOL    HW125498   9.336   3.160   3.990
 7867SOL    HW225499   9.270   3.155   3.854
 7868SOL     OW25500  13.841  14.651   5.563
 7868SOL    HW125501  13.781  14.722   5.541
 7868SOL    HW225502  13.917  14.664   5.506
 7869SOL     OW25503   9.671  13.465   4.177
 7869SOL    HW125504   9.647  13.482   4.085
 7869SOL    HW225505   9.665  13.370   4.186
 7870SOL     OW25506  12.755   8.078   7.997
 7870SOL    HW125507  12.720   7.990   8.011
 7870SOL    HW225508  12.846   8.072   8.026
 7871SOL     OW25509   1.984   3.418   5.541
 7871SOL    HW125510   2.079   3.411   5.542
 7871SOL    HW225511   1.958   3.389   5.453
 7872SOL     OW25512   9.838   9.669  12.688
 7872SOL    HW125513   9.918   9.617  12.680
 7872SOL    HW225514   9.782   9.638  12.617
 7873SOL     OW25515  13.756   0.996   1.794
 7873SOL    HW125516  13.710   0.917   1.766
 7873SOL    HW225517  13.688   1.064   1.796
 7874SOL     OW25518   3.179   5.486  10.395
 7874SOL    HW125519   3.227   5.567  10.412
 7874SOL    HW225520   3.181   5.439  10.477
 7875SOL     OW25521  11.963   6.900   3.143
 7875SOL    HW125522  11.908   6.900   3.065
 7875SOL    HW225523  12.021   6.976   3.133
 7876SOL     OW25524  14.352   4.815   8.359
 7876SOL    HW125525  14.383   4.841   8.272
 7876SOL    HW225526  14.285   4.749   8.342
 7877SOL     OW25527   4.386   7.184  12.130
 7877SOL    HW125528   4.337   7.148  12.056
 7877SOL    HW225529   4.349   7.271  12.143
 7878SOL     OW25530  10.323   6.005   1.762
 7878SOL    HW125531  10.390   6.011   1.831
 7878SOL    HW225532  10.371   6.024   1.681
 7879SOL     OW25533   2.842   1.123   1.817
 7879SOL    HW125534   2.834   1.028   1.823
 7879SOL    HW225535   2.766   1.156   1.864
 7880SOL     OW25536   1.734   1.684   7.840
 7880SOL    HW125537   1.658   1.673   7.783
 7880SOL    HW225538   1.804   1.712   7.781
 7881SOL     OW25539  11.022   9.893   1.541
 7881SOL    HW125540  11.075   9.851   1.609
 7881SOL    HW225541  11.045   9.846   1.460
 7882SOL     OW25542   1.129   2.804  10.401
 7882SOL    HW125543   1.223   2.813  10.385
 7882SOL    HW225544   1.115   2.851  10.484
 7883SOL     OW25545  11.082  13.631   8.189
 7883SOL    HW125546  11.036  13.620   8.271
 7883SOL    HW225547  11.018  13.669   8.129
 7884SOL     OW25548   5.460  13.841   1.924
 7884SOL    HW125549   5.556  13.832   1.922
 7884SOL    HW225550   5.435  13.814   2.012
 7885SOL     OW25551   7.492   4.458   2.762
 7885SOL    HW125552   7.426   4.417   2.819
 7885SOL    HW225553   7.522   4.534   2.813
 7886SOL     OW25554   6.315  12.786  14.765
 7886SOL    HW125555   6.320  12.781  14.860
 7886SOL    HW225556   6.317  12.695  14.736
 7887SOL     OW25557   9.482   1.176  11.189
 7887SOL    HW125558   9.399   1.224  11.187
 7887SOL    HW225559   9.471   1.112  11.259
 7888SOL     OW25560   5.400   8.928   9.279
 7888SOL    HW125561   5.409   8.854   9.339
 7888SOL    HW225562   5.321   8.907   9.228
 7889SOL     OW25563   0.883   4.490  12.462
 7889SOL    HW125564   0.971   4.454  12.447
 7889SOL    HW225565   0.878   4.566  12.403
 7890SOL     OW25566   9.290   2.480   6.642
 7890SOL    HW125567   9.360   2.419   6.619
 7890SOL    HW225568   9.311   2.560   6.595
 7891SOL     OW25569   3.306   7.195   7.517
 7891SOL    HW125570   3.336   7.140   7.590
 7891SOL    HW225571   3.231   7.242   7.552
 7892SOL     OW25572   6.664   7.815  12.648
 7892SOL    HW125573   6.758   7.824  12.660
 7892SOL    HW225574   6.649   7.840  12.556
 7893SOL     OW25575   4.957   2.721   7.663
 7893SOL    HW125576   4.874   2.677   7.645
 7893SOL    HW225577   4.946   2.758   7.751
 7894SOL     OW25578   2.513   1.960   9.905
 7894SOL    HW125579   2.501   1.891   9.839
 7894SOL    HW225580   2.448   1.940   9.972
 7895SOL     OW25581   0.572   1.487   3.277
 7895SOL    HW125582   0.542   1.448   3.359
 7895SOL    HW225583   0.516   1.564   3.265
 7896SOL     OW25584   2.101   1.662  10.290
 7896SOL    HW125585   2.196   1.673  10.285
 7896SOL    HW225586   2.076   1.629  10.203
 7897SOL     OW25587   9.120   0.823   0.661
 7897SOL    HW125588   9.136   0.815   0.755
 7897SOL    HW225589   9.027   0.843   0.654
 7898SOL     OW25590   9.149   2.176   7.578
 7898SOL    HW125591   9.179   2.238   7.511
 7898SOL    HW225592   9.181   2.212   7.660
 7899SOL     OW25593   1.979   4.999   7.924
 7899SOL    HW125594   2.066   4.969   7.898
 7899SOL    HW225595   1.987   5.094   7.931
 7900SOL     OW25596   0.668   6.476   9.275
 7900SOL    HW125597   0.629   6.409   9.218
 7900SOL    HW225598   0.595   6.534   9.296
 7901SOL     OW25599   6.829   9.952   9.243
 7901SOL    HW125600   6.759   9.948   9.177
 7901SOL    HW225601   6.885  10.024   9.214
 7902SOL     OW25602   0.206   9.099  14.141
 7902SOL    HW125603   0.286   9.087  14.089
 7902SOL    HW225604   0.139   9.117  14.075
 7903SOL     OW25605  11.002  12.531   3.049
 7903SOL    HW125606  11.027  12.556   2.960
 7903SOL    HW225607  10.937  12.462   3.038
 7904SOL     OW25608  10.783  13.082   1.915
 7904SOL    HW125609  10.718  13.130   1.966
 7904SOL    HW225610  10.813  13.145   1.850
 7905SOL     OW25611   3.735   3.716  13.640
 7905SOL    HW125612   3.759   3.624  13.650
 7905SOL    HW225613   3.699   3.721  13.551
 7906SOL     OW25614  10.836   1.835   4.331
 7906SOL    HW125615  10.744   1.809   4.326
 7906SOL    HW225616  10.885   1.753   4.334
 7907SOL     OW25617   9.381   1.657   0.191
 7907SOL    HW125618   9.364   1.750   0.203
 7907SOL    HW225619   9.346   1.637   0.104
 7908SOL     OW25620   3.911  14.113  11.252
 7908SOL    HW125621   3.853  14.189  11.249
 7908SOL    HW225622   3.998  14.148  11.230
 7909SOL     OW25623  11.670   8.048  11.956
 7909SOL    HW125624  11.642   8.074  11.868
 7909SOL    HW225625  11.763   8.026  11.946
 7910SOL     OW25626  13.665   1.336   4.642
 7910SOL    HW125627  13.616   1.330   4.561
 7910SOL    HW225628  13.712   1.419   4.636
 7911SOL     OW25629  13.940  11.175   9.434
 7911SOL    HW125630  13.857  11.216   9.458
 7911SOL    HW225631  13.917  11.083   9.419
 7912SOL     OW25632  11.059   4.805  14.652
 7912SOL    HW125633  11.147   4.773  14.636
 7912SOL    HW225634  11.002   4.748  14.601
 7913SOL     OW25635   5.379   3.926  11.813
 7913SOL    HW125636   5.380   3.831  11.821
 7913SOL    HW225637   5.286   3.948  11.803
 7914SOL     OW25638   2.729   4.306   5.873
 7914SOL    HW125639   2.644   4.312   5.830
 7914SOL    HW225640   2.730   4.379   5.935
 7915SOL     OW25641   4.206   9.614   8.731
 7915SOL    HW125642   4.301   9.620   8.747
 7915SOL    HW225643   4.180   9.703   8.708
 7916SOL     OW25644  11.276  10.924  11.069
 7916SOL    HW125645  11.184  10.948  11.080
 7916SOL    HW225646  11.277  10.868  10.991
 7917SOL     OW25647   7.319   0.103   4.325
 7917SOL    HW125648   7.324   0.185   4.373
 7917SOL    HW225649   7.229   0.097   4.295
 7918SOL     OW25650   2.404  10.566  12.284
 7918SOL    HW125651   2.440  10.652  12.262
 7918SOL    HW225652   2.385  10.525  12.199
 7919SOL     OW25653   4.787   3.060  13.408
 7919SOL    HW125654   4.732   3.051  13.331
 7919SOL    HW225655   4.865   3.008  13.389
 7920SOL     OW25656   7.822   7.760  13.450
 7920SOL    HW125657   7.765   7.810  13.392
 7920SOL    HW225658   7.911   7.780  13.420
 7921SOL     OW25659   1.229   3.076  13.835
 7921SOL    HW125660   1.184   3.102  13.754
 7921SOL    HW225661   1.179   3.119  13.904
 7922SOL     OW25662  12.458   8.059   1.466
 7922SOL    HW125663  12.479   8.058   1.373
 7922SOL    HW225664  12.381   8.114   1.473
 7923SOL     OW25665   1.084   3.010  11.962
 7923SOL    HW125666   1.159   3.061  11.932
 7923SOL    HW225667   1.083   3.022  12.057
 7924SOL     OW25668   6.174   2.674   3.964
 7924SOL    HW125669   6.241   2.709   3.905
 7924SOL    HW225670   6.218   2.603   4.010
 7925SOL     OW25671   7.771  14.818   3.578
 7925SOL    HW125672   7.809  14.749   3.631
 7925SOL    HW225673   7.846  14.860   3.536
 7926SOL     OW25674   6.289   9.274   1.371
 7926SOL    HW125675   6.248   9.358   1.355
 7926SOL    HW225676   6.351   9.264   1.299
 7927SOL     OW25677   5.528  10.656   2.018
 7927SOL    HW125678   5.591  10.670   2.089
 7927SOL    HW225679   5.449  10.704   2.045
 7928SOL     OW25680   9.486   2.798   7.060
 7928SOL    HW125681   9.541   2.767   7.132
 7928SOL    HW225682   9.397   2.793   7.094
 7929SOL     OW25683  12.249  12.234   4.579
 7929SOL    HW125684  12.332  12.250   4.535
 7929SOL    HW225685  12.268  12.249   4.672
 7930SOL     OW25686   7.807  11.107   0.535
 7930SOL    HW125687   7.730  11.051   0.530
 7930SOL    HW225688   7.830  11.124   0.443
 7931SOL     OW25689   2.808   3.178   6.552
 7931SOL    HW125690   2.736   3.236   6.576
 7931SOL    HW225691   2.886   3.232   6.561
 7932SOL     OW25692   1.964   7.203   9.346
 7932SOL    HW125693   1.909   7.276   9.373
 7932SOL    HW225694   1.918   7.163   9.273
 7933SOL     OW25695   3.428   3.719  12.738
 7933SOL    HW125696   3.436   3.680  12.825
 7933SOL    HW225697   3.519   3.733  12.710
 7934SOL     OW25698   5.439   8.050  11.260
 7934SOL    HW125699   5.367   8.081  11.206
 7934SOL    HW225700   5.512   8.107  11.238
 7935SOL     OW25701  13.339   8.815  11.258
 7935SOL    HW125702  13.340   8.740  11.198
 7935SOL    HW225703  13.428   8.820  11.292
 7936SOL     OW25704  11.749   4.107  13.327
 7936SOL    HW125705  11.721   4.086  13.416
 7936SOL    HW225706  11.720   4.198  13.315
 7937SOL     OW25707   4.148   7.181   1.876
 7937SOL    HW125708   4.235   7.156   1.846
 7937SOL    HW225709   4.163   7.255   1.935
 7938SOL     OW25710   1.995   9.194   5.165
 7938SOL    HW125711   1.956   9.281   5.178
 7938SOL    HW225712   1.924   9.142   5.127
 7939SOL     OW25713   3.850   5.769  10.666
 7939SOL    HW125714   3.896   5.787  10.748
 7939SOL    HW225715   3.920   5.767  10.600
 7940SOL     OW25716  10.320  11.718   2.899
 7940SOL    HW125717  10.238  11.750   2.862
 7940SOL    HW225718  10.384  11.728   2.828
 7941SOL     OW25719   1.301  12.506   2.925
 7941SOL    HW125720   1.211  12.537   2.933
 7941SOL    HW225721   1.307  12.472   2.835
 7942SOL     OW25722   1.623   4.742  12.129
 7942SOL    HW125723   1.641   4.654  12.096
 7942SOL    HW225724   1.545   4.769  12.081
 7943SOL     OW25725  12.384   8.237   3.925
 7943SOL    HW125726  12.377   8.267   3.835
 7943SOL    HW225727  12.293   8.219   3.951
 7944SOL     OW25728   1.408  14.496  12.813
 7944SOL    HW125729   1.341  14.457  12.757
 7944SOL    HW225730   1.367  14.502  12.899
 7945SOL     OW25731   6.377   1.576   6.731
 7945SOL    HW125732   6.333   1.523   6.665
 7945SOL    HW225733   6.322   1.571   6.808
 7946SOL     OW25734  13.715   6.282   4.574
 7946SOL    HW125735  13.749   6.205   4.529
 7946SOL    HW225736  13.787   6.345   4.571
 7947SOL     OW25737  13.854   1.888  13.992
 7947SOL    HW125738  13.865   1.799  13.961
 7947SOL    HW225739  13.770   1.887  14.038
 7948SOL     OW25740   3.560   5.299   6.193
 7948SOL    HW125741   3.622   5.257   6.133
 7948SOL    HW225742   3.520   5.226   6.240
 7949SOL     OW25743   4.253   1.895  10.040
 7949SOL    HW125744   4.275   1.960   9.974
 7949SOL    HW225745   4.224   1.818   9.991
 7950SOL     OW25746   6.796  10.188   3.073
 7950SOL    HW125747   6.707  10.209   3.101
 7950SOL    HW225748   6.796  10.093   3.062
 7951SOL     OW25749   5.628  11.530   5.074
 7951SOL    HW125750   5.566  11.595   5.040
 7951SOL    HW225751   5.687  11.514   5.000
 7952SOL     OW25752   8.138  11.463  12.087
 7952SOL    HW125753   8.137  11.380  12.039
 7952SOL    HW225754   8.159  11.529  12.020
 7953SOL     OW25755   7.913  14.722   9.795
 7953SOL    HW125756   7.909  14.747   9.887
 7953SOL    HW225757   8.002  14.743   9.768
 7954SOL     OW25758   3.219   0.201   5.885
 7954SOL    HW125759   3.168   0.260   5.830
 7954SOL    HW225760   3.282   0.258   5.929
 7955SOL     OW25761  10.714  11.339   2.307
 7955SOL    HW125762  10.743  11.314   2.395
 7955SOL    HW225763  10.620  11.353   2.316
 7956SOL     OW25764   0.987   1.625   9.453
 7956SOL    HW125765   1.066   1.573   9.436
 7956SOL    HW225766   1.011   1.714   9.428
 7957SOL     OW25767   4.127   1.456  12.654
 7957SOL    HW125768   4.089   1.369  12.642
 7957SOL    HW225769   4.081   1.511  12.591
 7958SOL     OW25770  12.096  10.009   3.780
 7958SOL    HW125771  12.083  10.043   3.869
 7958SOL    HW225772  12.137   9.924   3.793
 7959SOL     OW25773   8.819   4.294  14.694
 7959SOL    HW125774   8.906   4.325  14.670
 7959SOL    HW225775   8.807   4.322  14.784
 7960SOL     OW25776   6.500   2.975   8.642
 7960SOL    HW125777   6.522   2.976   8.735
 7960SOL    HW225778   6.572   2.928   8.600
 7961SOL     OW25779   1.946  10.880   5.592
 7961SOL    HW125780   1.934  10.893   5.686
 7961SOL    HW225781   1.902  10.796   5.575
 7962SOL     OW25782  14.261  13.466   5.298
 7962SOL    HW125783  14.318  13.500   5.367
 7962SOL    HW225784  14.206  13.541   5.273
 7963SOL     OW25785  14.373   2.458   7.869
 7963SOL    HW125786  14.319   2.419   7.800
 7963SOL    HW225787  14.328   2.538   7.893
 7964SOL     OW25788   9.367   4.360  12.845
 7964SOL    HW125789   9.328   4.399  12.766
 7964SOL    HW225790   9.294   4.355  12.907
 7965SOL     OW25791  10.254  12.869   3.830
 7965SOL    HW125792  10.258  12.870   3.925
 7965SOL    HW225793  10.260  12.960   3.804
 7966SOL     OW25794   7.261  12.233   6.141
 7966SOL    HW125795   7.331  12.214   6.203
 7966SOL    HW225796   7.293  12.201   6.057
 7967SOL     OW25797  11.893   7.576  12.646
 7967SOL    HW125798  11.865   7.484  12.639
 7967SOL    HW225799  11.914   7.588  12.738
 7968SOL     OW25800  12.217  11.893   4.876
 7968SOL    HW125801  12.310  11.913   4.864
 7968SOL    HW225802  12.184  11.961   4.934
 7969SOL     OW25803   1.987   1.222   2.759
 7969SOL    HW125804   2.020   1.148   2.709
 7969SOL    HW225805   2.020   1.299   2.713
 7970SOL     OW25806   7.152  12.335   0.492
 7970SOL    HW125807   7.168  12.420   0.533
 7970SOL    HW225808   7.059  12.318   0.508
 7971SOL     OW25809  13.013  10.393  11.783
 7971SOL    HW125810  12.966  10.435  11.855
 7971SOL    HW225811  13.040  10.465  11.726
 7972SOL     OW25812  12.409   2.414  12.409
 7972SOL    HW125813  12.409   2.388  12.316
 7972SOL    HW225814  12.380   2.336  12.456
 7973SOL     OW25815   9.844   5.766   1.512
 7973SOL    HW125816   9.813   5.778   1.422
 7973SOL    HW225817   9.898   5.687   1.509
 7974SOL     OW25818   4.854   8.359  10.159
 7974SOL    HW125819   4.887   8.357  10.248
 7974SOL    HW225820   4.808   8.443  10.151
 7975SOL     OW25821  12.597   7.972  11.627
 7975SOL    HW125822  12.663   8.022  11.579
 7975SOL    HW225823  12.524   7.962  11.565
 7976SOL     OW25824   8.167  11.672  13.999
 7976SOL    HW125825   8.262  11.670  14.010
 7976SOL    HW225826   8.135  11.598  14.051
 7977SOL     OW25827  14.443   3.268   9.087
 7977SOL    HW125828  14.411   3.256   8.998
 7977SOL    HW225829  14.477   3.183   9.112
 7978SOL     OW25830  11.764   2.826  12.560
 7978SOL    HW125831  11.805   2.740  12.567
 7978SOL    HW225832  11.672   2.810  12.583
 7979SOL     OW25833  10.595  12.030   9.903
 7979SOL    HW125834  10.585  12.118   9.941
 7979SOL    HW225835  10.685  12.006   9.924
 7980SOL     OW25836   2.547   8.956   9.019
 7980SOL    HW125837   2.542   8.999   9.105
 7980SOL    HW225838   2.509   8.869   9.033
 7981SOL     OW25839   8.703   4.674   3.662
 7981SOL    HW125840   8.771   4.684   3.729
 7981SOL    HW225841   8.744   4.620   3.594
 7982SOL     OW25842  11.732   8.851  11.576
 7982SOL    HW125843  11.747   8.758  11.559
 7982SOL    HW225844  11.673   8.880  11.507
 7983SOL     OW25845   9.917  11.364   8.882
 7983SOL    HW125846   9.961  11.411   8.812
 7983SOL    HW225847   9.855  11.427   8.918
 7984SOL     OW25848   0.919  13.990   5.214
 7984SOL    HW125849   1.004  14.022   5.244
 7984SOL    HW225850   0.920  14.004   5.119
 7985SOL     OW25851   7.775  13.957   4.630
 7985SOL    HW125852   7.838  13.889   4.651
 7985SOL    HW225853   7.692  13.925   4.667
 7986SOL     OW25854   5.817   3.357  13.599
 7986SOL    HW125855   5.788   3.268  13.622
 7986SOL    HW225856   5.819   3.357  13.503
 7987SOL     OW25857   9.450   9.682   2.694
 7987SOL    HW125858   9.463   9.641   2.609
 7987SOL    HW225859   9.379   9.632   2.734
 7988SOL     OW25860   4.436  11.619  12.645
 7988SOL    HW125861   4.508  11.660  12.597
 7988SOL    HW225862   4.464  11.528  12.655
 7989SOL     OW25863  10.377   8.247  14.582
 7989SOL    HW125864  10.328   8.230  14.663
 7989SOL    HW225865  10.461   8.281  14.612
 7990SOL     OW25866   2.708   9.811   4.598
 7990SOL    HW125867   2.755   9.749   4.541
 7990SOL    HW225868   2.770   9.829   4.669
 7991SOL     OW25869  12.733   1.095   2.382
 7991SOL    HW125870  12.826   1.072   2.391
 7991SOL    HW225871  12.711   1.072   2.292
 7992SOL     OW25872   6.882  12.881  10.732
 7992SOL    HW125873   6.802  12.829  10.728
 7992SOL    HW225874   6.915  12.883  10.642
 7993SOL     OW25875   7.332   3.104   8.073
 7993SOL    HW125876   7.384   3.159   8.014
 7993SOL    HW225877   7.353   3.136   8.160
 7994SOL     OW25878   0.109   1.367   3.496
 7994SOL    HW125879   0.065   1.395   3.416
 7994SOL    HW225880   0.153   1.445   3.528
 7995SOL     OW25881  13.933   4.430   1.463
 7995SOL    HW125882  13.989   4.427   1.386
 7995SOL    HW225883  13.894   4.518   1.461
 7996SOL     OW25884   6.322   2.943   2.894
 7996SOL    HW125885   6.404   2.899   2.872
 7996SOL    HW225886   6.347   3.013   2.954
 7997SOL     OW25887   1.481   1.565  10.282
 7997SOL    HW125888   1.407   1.594  10.336
 7997SOL    HW225889   1.476   1.620  10.203
 7998SOL     OW25890   7.994  12.604  13.883
 7998SOL    HW125891   7.953  12.685  13.850
 7998SOL    HW225892   7.941  12.534  13.845
 7999SOL     OW25893  10.364   5.890   1.001
 7999SOL    HW125894  10.351   5.805   0.960
 7999SOL    HW225895  10.336   5.953   0.934
 8000SOL     OW25896  13.825   6.279   7.927
 8000SOL    HW125897  13.739   6.284   7.968
 8000SOL    HW225898  13.834   6.363   7.881
 8001SOL     OW25899   0.205  14.691   1.815
 8001SOL    HW125900   0.262  14.661   1.886
 8001SOL    HW225901   0.127  14.636   1.822
 8002SOL     OW25902  11.717   7.533   9.649
 8002SOL    HW125903  11.646   7.471   9.631
 8002SOL    HW225904  11.692   7.575   9.731
 8003SOL     OW25905   9.181   9.877  10.534
 8003SOL    HW125906   9.225   9.800  10.571
 8003SOL    HW225907   9.249   9.944  10.530
 8004SOL     OW25908   5.829   1.947   5.442
 8004SOL    HW125909   5.869   1.863   5.465
 8004SOL    HW225910   5.827   1.995   5.525
 8005SOL     OW25911   6.180   6.236   4.839
 8005SOL    HW125912   6.104   6.223   4.782
 8005SOL    HW225913   6.235   6.160   4.824
 8006SOL     OW25914  12.048   5.657   9.405
 8006SOL    HW125915  11.988   5.631   9.475
 8006SOL    HW225916  12.071   5.747   9.426
 8007SOL     OW25917   2.193  13.230  10.229
 8007SOL    HW125918   2.141  13.149  10.237
 8007SOL    HW225919   2.141  13.286  10.171
 8008SOL     OW25920   6.376  12.220  11.962
 8008SOL    HW125921   6.443  12.152  11.961
 8008SOL    HW225922   6.325  12.206  11.882
 8009SOL     OW25923   7.332   8.380   1.936
 8009SOL    HW125924   7.246   8.371   1.977
 8009SOL    HW225925   7.394   8.362   2.007
 8010SOL     OW25926  10.551   8.908   4.695
 8010SOL    HW125927  10.471   8.894   4.644
 8010SOL    HW225928  10.571   9.000   4.684
 8011SOL     OW25929   8.154  13.611   7.495
 8011SOL    HW125930   8.091  13.560   7.444
 8011SOL    HW225931   8.137  13.586   7.586
 8012SOL     OW25932   5.512   1.418   2.499
 8012SOL    HW125933   5.547   1.364   2.569
 8012SOL    HW225934   5.581   1.481   2.480
 8013SOL     OW25935   2.184  12.900  10.498
 8013SOL    HW125936   2.269  12.946  10.501
 8013SOL    HW225937   2.129  12.956  10.443
 8014SOL     OW25938   1.965  11.684   8.353
 8014SOL    HW125939   2.013  11.601   8.354
 8014SOL    HW225940   1.932  11.692   8.263
 8015SOL     OW25941   5.415   6.902   8.067
 8015SOL    HW125942   5.333   6.914   8.114
 8015SOL    HW225943   5.467   6.845   8.124
 8016SOL     OW25944   6.346   0.989  12.582
 8016SOL    HW125945   6.271   0.933  12.567
 8016SOL    HW225946   6.312   1.062  12.634
 8017SOL     OW25947   1.974  13.188   6.974
 8017SOL    HW125948   1.934  13.103   6.991
 8017SOL    HW225949   1.962  13.237   7.055
 8018SOL     OW25950  14.587   8.183   1.629
 8018SOL    HW125951  14.491   8.184   1.620
 8018SOL    HW225952  14.619   8.153   1.544
 8019SOL     OW25953   7.626  12.149   0.889
 8019SOL    HW125954   7.532  12.130   0.894
 8019SOL    HW225955   7.640  12.218   0.954
 8020SOL     OW25956   1.523   8.057   6.910
 8020SOL    HW125957   1.522   8.012   6.826
 8020SOL    HW225958   1.440   8.034   6.951
 8021SOL     OW25959   1.163   0.099   8.627
 8021SOL    HW125960   1.242   0.053   8.653
 8021SOL    HW225961   1.147   0.162   8.697
 8022SOL     OW25962   6.243   0.607   5.008
 8022SOL    HW125963   6.331   0.606   5.045
 8022SOL    HW225964   6.254   0.643   4.920
 8023SOL     OW25965   0.938   2.994   9.357
 8023SOL    HW125966   0.900   2.930   9.297
 8023SOL    HW225967   0.935   2.952   9.442
 8024SOL     OW25968   0.008   8.441  12.767
 8024SOL    HW125969   0.079   8.384  12.795
 8024SOL    HW225970   0.048   8.502  12.705
 8025SOL     OW25971   0.910   5.122   0.518
 8025SOL    HW125972   0.953   5.125   0.433
 8025SOL    HW225973   0.939   5.039   0.557
 8026SOL     OW25974  11.175   6.777   3.476
 8026SOL    HW125975  11.208   6.697   3.435
 8026SOL    HW225976  11.250   6.813   3.523
 8027SOL     OW25977   1.375   9.882   8.300
 8027SOL    HW125978   1.298   9.923   8.339
 8027SOL    HW225979   1.345   9.797   8.269
 8028SOL     OW25980   7.274  10.385   8.528
 8028SOL    HW125981   7.195  10.403   8.477
 8028SOL    HW225982   7.304  10.300   8.496
 8029SOL     OW25983  12.091   7.538   0.909
 8029SOL    HW125984  12.093   7.624   0.950
 8029SOL    HW225985  12.175   7.532   0.862
 8030SOL     OW25986   0.064  10.200   2.836
 8030SOL    HW125987   0.096  10.123   2.789
 8030SOL    HW225988  14.847  10.181   2.855
 8031SOL     OW25989   2.833   5.933   4.289
 8031SOL    HW125990   2.865   5.959   4.202
 8031SOL    HW225991   2.843   6.012   4.342
 8032SOL     OW25992   5.917  14.763   4.350
 8032SOL    HW125993   5.870  14.775   4.268
 8032SOL    HW225994   5.855  14.720   4.408
 8033SOL     OW25995  12.184  11.502   7.298
 8033SOL    HW125996  12.122  11.528   7.230
 8033SOL    HW225997  12.245  11.443   7.254
 8034SOL     OW25998  10.066   7.985   7.632
 8034SOL    HW125999  10.112   8.069   7.631
 8034SOL    HW226000   9.973   8.007   7.637
 8035SOL     OW26001   8.962   3.105  12.647
 8035SOL    HW126002   8.948   3.139  12.735
 8035SOL    HW226003   8.987   3.013  12.660
 8036SOL     OW26004   5.656  11.986  13.978
 8036SOL    HW126005   5.720  11.978  14.048
 8036SOL    HW226006   5.584  12.036  14.017
 8037SOL     OW26007   8.384  11.495   7.451
 8037SOL    HW126008   8.437  11.508   7.372
 8037SOL    HW226009   8.296  11.481   7.418
 8038SOL     OW26010   6.042   0.842   7.544
 8038SOL    HW126011   5.948   0.829   7.532
 8038SOL    HW226012   6.049   0.922   7.596
 8039SOL     OW26013   5.531   5.746   9.992
 8039SOL    HW126014   5.452   5.729   9.940
 8039SOL    HW226015   5.549   5.839   9.978
 8040SOL     OW26016  12.074   6.393  11.614
 8040SOL    HW126017  11.984   6.379  11.644
 8040SOL    HW226018  12.089   6.326  11.548
 8041SOL     OW26019   4.560  11.899  13.244
 8041SOL    HW126020   4.534  11.945  13.164
 8041SOL    HW226021   4.563  11.968  13.311
 8042SOL     OW26022   3.567  10.342  14.141
 8042SOL    HW126023   3.612  10.423  14.117
 8042SOL    HW226024   3.476  10.368  14.157
 8043SOL     OW26025  12.337   7.470   4.638
 8043SOL    HW126026  12.294   7.548   4.672
 8043SOL    HW226027  12.267   7.419   4.598
 8044SOL     OW26028   0.694   2.876   6.843
 8044SOL    HW126029   0.680   2.788   6.880
 8044SOL    HW226030   0.744   2.860   6.763
 8045SOL     OW26031  14.096  10.800   0.302
 8045SOL    HW126032  14.190  10.784   0.303
 8045SOL    HW226033  14.079  10.847   0.384
 8046SOL     OW26034   0.726  13.578   4.999
 8046SOL    HW126035   0.670  13.623   4.936
 8046SOL    HW226036   0.729  13.637   5.075
 8047SOL     OW26037   6.749  14.552   3.885
 8047SOL    HW126038   6.802  14.478   3.856
 8047SOL    HW226039   6.792  14.583   3.965
 8048SOL     OW26040   3.283   8.203   3.943
 8048SOL    HW126041   3.316   8.262   4.010
 8048SOL    HW226042   3.299   8.249   3.861
 8049SOL     OW26043  12.950  11.441   2.719
 8049SOL    HW126044  12.973  11.508   2.784
 8049SOL    HW226045  13.035  11.410   2.686
 8050SOL     OW26046  11.242   3.948   5.920
 8050SOL    HW126047  11.288   3.927   6.001
 8050SOL    HW226048  11.290   3.900   5.852
 8051SOL     OW26049  10.636   1.225   4.842
 8051SOL    HW126050  10.666   1.251   4.755
 8051SOL    HW226051  10.546   1.256   4.846
 8052SOL     OW26052  11.719   3.278  11.870
 8052SOL    HW126053  11.772   3.221  11.814
 8052SOL    HW226054  11.780   3.347  11.898
 8053SOL     OW26055  11.544  14.084   1.510
 8053SOL    HW126056  11.512  14.064   1.597
 8053SOL    HW226057  11.596  14.007   1.486
 8054SOL     OW26058  13.558  11.772   6.813
 8054SOL    HW126059  13.525  11.801   6.898
 8054SOL    HW226060  13.589  11.853   6.771
 8055SOL     OW26061  14.094   9.997  11.808
 8055SOL    HW126062  14.078  10.036  11.893
 8055SOL    HW226063  14.107  10.071  11.749
 8056SOL     OW26064  10.583   8.316  11.285
 8056SOL    HW126065  10.600   8.291  11.376
 8056SOL    HW226066  10.554   8.408  11.291
 8057SOL     OW26067  11.046  10.356   0.188
 8057SOL    HW126068  10.968  10.358   0.244
 8057SOL    HW226069  11.021  10.410   0.112
 8058SOL     OW26070   2.063   7.969   3.839
 8058SOL    HW126071   2.147   7.960   3.884
 8058SOL    HW226072   1.999   7.985   3.908
 8059SOL     OW26073   7.475   2.670   2.201
 8059SOL    HW126074   7.463   2.760   2.231
 8059SOL    HW226075   7.524   2.628   2.271
 8060SOL     OW26076  14.673   7.460   6.971
 8060SOL    HW126077  14.748   7.459   7.030
 8060SOL    HW226078  14.598   7.436   7.026
 8061SOL     OW26079  11.378   3.961   9.963
 8061SOL    HW126080  11.403   4.053   9.952
 8061SOL    HW226081  11.324   3.960  10.042
 8062SOL     OW26082   3.378  11.543   1.878
 8062SOL    HW126083   3.467  11.535   1.914
 8062SOL    HW226084   3.337  11.612   1.931
 8063SOL     OW26085   8.882   3.694   7.974
 8063SOL    HW126086   8.829   3.766   7.940
 8063SOL    HW226087   8.902   3.719   8.064
 8064SOL     OW26088   5.784  10.243   4.376
 8064SOL    HW126089   5.737  10.320   4.406
 8064SOL    HW226090   5.715  10.178   4.361
 8065SOL     OW26091  14.370   5.527   5.001
 8065SOL    HW126092  14.331   5.607   4.964
 8065SOL    HW226093  14.294   5.473   5.026
 8066SOL     OW26094   5.179  10.175   5.795
 8066SOL    HW126095   5.180  10.147   5.887
 8066SOL    HW226096   5.256  10.232   5.787
 8067SOL     OW26097   8.209   8.068  12.507
 8067SOL    HW126098   8.237   8.010  12.436
 8067SOL    HW226099   8.115   8.053  12.515
 8068SOL     OW26100  12.654   0.874  10.201
 8068SOL    HW126101  12.591   0.944  10.187
 8068SOL    HW226102  12.602   0.794  10.194
 8069SOL     OW26103  11.898  13.489   7.822
 8069SOL    HW126104  11.979  13.452   7.786
 8069SOL    HW226105  11.926  13.531   7.904
 8070SOL     OW26106   8.589   6.075   0.083
 8070SOL    HW126107   8.558   6.011   0.147
 8070SOL    HW226108   8.567   6.160   0.122
 8071SOL     OW26109   5.456   4.186  11.909
 8071SOL    HW126110   5.406   4.105  11.900
 8071SOL    HW226111   5.498   4.198  11.824
 8072SOL     OW26112   6.324   4.971  14.019
 8072SOL    HW126113   6.275   4.958  14.101
 8072SOL    HW226114   6.413   4.943  14.040
 8073SOL     OW26115   2.387  11.719   2.425
 8073SOL    HW126116   2.341  11.639   2.450
 8073SOL    HW226117   2.478  11.691   2.413
 8074SOL     OW26118  12.799   3.382  11.226
 8074SOL    HW126119  12.804   3.325  11.149
 8074SOL    HW226120  12.707   3.377  11.253
 8075SOL     OW26121   1.848  12.089   7.265
 8075SOL    HW126122   1.863  12.009   7.215
 8075SOL    HW226123   1.928  12.140   7.254
 8076SOL     OW26124  12.962   2.600  13.288
 8076SOL    HW126125  12.896   2.652  13.334
 8076SOL    HW226126  13.046   2.637  13.316
 8077SOL     OW26127   3.705  13.403   0.094
 8077SOL    HW126128   3.758  13.341   0.144
 8077SOL    HW226129   3.656  13.451   0.161
 8078SOL     OW26130   2.580   3.070   2.389
 8078SOL    HW126131   2.610   3.160   2.402
 8078SOL    HW226132   2.582   3.057   2.294
 8079SOL     OW26133   7.520   2.992   0.951
 8079SOL    HW126134   7.577   2.966   1.023
 8079SOL    HW226135   7.481   2.910   0.920
 8080SOL     OW26136  11.533  14.826  11.959
 8080SOL    HW126137  11.462  14.841  11.897
 8080SOL    HW226138  11.606   0.002  11.924
 8081SOL     OW26139   2.339   5.418  12.000
 8081SOL    HW126140   2.384   5.441  12.081
 8081SOL    HW226141   2.270   5.484  11.992
 8082SOL     OW26142   0.756   1.368   5.100
 8082SOL    HW126143   0.749   1.450   5.050
 8082SOL    HW226144   0.850   1.353   5.109
 8083SOL     OW26145  11.319  12.410   6.809
 8083SOL    HW126146  11.312  12.484   6.748
 8083SOL    HW226147  11.390  12.433   6.868
 8084SOL     OW26148   0.057  11.466   1.601
 8084SOL    HW126149   0.125  11.477   1.535
 8084SOL    HW226150   0.039  11.555   1.632
 8085SOL     OW26151   4.640   0.001  10.996
 8085SOL    HW126152   4.582  14.800  11.001
 8085SOL    HW226153   4.636   0.028  10.904
 8086SOL     OW26154  13.933   6.209   0.083
 8086SOL    HW126155  13.878   6.137   0.052
 8086SOL    HW226156  13.902   6.226   0.172
 8087SOL     OW26157   6.247   6.394   3.005
 8087SOL    HW126158   6.273   6.422   2.917
 8087SOL    HW226159   6.235   6.300   2.998
 8088SOL     OW26160   7.873  12.945   3.909
 8088SOL    HW126161   7.807  12.965   3.976
 8088SOL    HW226162   7.928  12.877   3.948
 8089SOL     OW26163   8.566  11.921  11.215
 8089SOL    HW126164   8.491  11.980  11.218
 8089SOL    HW226165   8.642  11.979  11.214
 8090SOL     OW26166   9.538   5.791   8.984
 8090SOL    HW126167   9.632   5.778   8.989
 8090SOL    HW226168   9.512   5.745   8.904
 8091SOL     OW26169  11.975   2.093  11.415
 8091SOL    HW126170  12.062   2.076  11.379
 8091SOL    HW226171  11.985   2.080  11.509
 8092SOL     OW26172   6.873   3.539   6.971
 8092SOL    HW126173   6.958   3.558   6.932
 8092SOL    HW226174   6.852   3.617   7.021
 8093SOL     OW26175   9.636   3.220   7.098
 8093SOL    HW126176   9.648   3.315   7.095
 8093SOL    HW226177   9.543   3.208   7.117
 8094SOL     OW26178   6.031  14.553   9.874
 8094SOL    HW126179   6.108  14.518   9.828
 8094SOL    HW226180   6.067  14.619   9.933
 8095SOL     OW26181   1.928   3.177   2.575
 8095SOL    HW126182   1.945   3.203   2.485
 8095SOL    HW226183   2.011   3.190   2.621
 8096SOL     OW26184  13.539  13.606   1.166
 8096SOL    HW126185  13.543  13.616   1.261
 8096SOL    HW226186  13.487  13.527   1.151
 8097SOL     OW26187   6.792   0.462   9.774
 8097SOL    HW126188   6.806   0.556   9.782
 8097SOL    HW226189   6.703   0.453   9.741
 8098SOL     OW26190   1.520   3.588   7.985
 8098SOL    HW126191   1.526   3.504   8.032
 8098SOL    HW226192   1.569   3.649   8.039
 8099SOL     OW26193  11.251   6.863  11.281
 8099SOL    HW126194  11.253   6.806  11.358
 8099SOL    HW226195  11.344   6.874  11.258
 8100SOL     OW26196   9.375  10.621  14.838
 8100SOL    HW126197   9.437  10.658  14.776
 8100SOL    HW226198   9.295  10.672  14.827
 8101SOL     OW26199   5.037   6.069  11.321
 8101SOL    HW126200   5.131   6.081  11.335
 8101SOL    HW226201   5.030   6.041  11.229
 8102SOL     OW26202   8.992   5.487   8.598
 8102SOL    HW126203   9.006   5.393   8.610
 8102SOL    HW226204   9.008   5.502   8.505
 8103SOL     OW26205   5.573   4.096  13.090
 8103SOL    HW126206   5.660   4.088  13.128
 8103SOL    HW226207   5.519   4.037  13.144
 8104SOL     OW26208   8.446   0.160   6.339
 8104SOL    HW126209   8.388   0.096   6.297
 8104SOL    HW226210   8.404   0.178   6.423
 8105SOL     OW26211   0.035   8.711  13.529
 8105SOL    HW126212  14.868   8.794  13.506
 8105SOL    HW226213   0.105   8.701  13.464
 8106SOL     OW26214   2.419  11.400   2.268
 8106SOL    HW126215   2.347  11.374   2.325
 8106SOL    HW226216   2.415  11.338   2.195
 8107SOL     OW26217   4.302   6.659  14.375
 8107SOL    HW126218   4.228   6.697  14.423
 8107SOL    HW226219   4.279   6.673  14.283
 8108SOL     OW26220   5.944   7.916   4.758
 8108SOL    HW126221   5.905   7.902   4.672
 8108SOL    HW226222   5.982   7.831   4.781
 8109SOL     OW26223   6.511  13.176   4.978
 8109SOL    HW126224   6.539  13.110   5.041
 8109SOL    HW226225   6.523  13.259   5.025
 8110SOL     OW26226   6.496   4.967   4.893
 8110SOL    HW126227   6.409   4.954   4.853
 8110SOL    HW226228   6.485   4.939   4.984
 8111SOL     OW26229   6.342   8.992  13.618
 8111SOL    HW126230   6.313   9.003  13.528
 8111SOL    HW226231   6.437   8.983  13.612
 8112SOL     OW26232   5.673   8.448   1.990
 8112SOL    HW126233   5.707   8.536   2.009
 8112SOL    HW226234   5.662   8.447   1.895
 8113SOL     OW26235   7.904  10.983   2.586
 8113SOL    HW126236   7.827  11.032   2.614
 8113SOL    HW226237   7.883  10.892   2.603
 8114SOL     OW26238   4.865   8.148  13.035
 8114SOL    HW126239   4.912   8.105  12.964
 8114SOL    HW226240   4.921   8.221  13.060
 8115SOL     OW26241   6.218   2.603   5.591
 8115SOL    HW126242   6.154   2.533   5.607
 8115SOL    HW226243   6.300   2.568   5.626
 8116SOL     OW26244  12.134   9.246  13.703
 8116SOL    HW126245  12.212   9.300  13.714
 8116SOL    HW226246  12.061   9.307  13.715
 8117SOL     OW26247   7.507  11.464  11.148
 8117SOL    HW126248   7.521  11.511  11.230
 8117SOL    HW226249   7.507  11.371  11.173
 8118SOL     OW26250  14.620  14.871   4.067
 8118SOL    HW126251  14.581   0.059   4.006
 8118SOL    HW226252  14.689   0.045   4.111
 8119SOL     OW26253   8.393   9.029  10.525
 8119SOL    HW126254   8.484   9.014  10.550
 8119SOL    HW226255   8.398   9.065  10.436
 8120SOL     OW26256  13.012  10.827   4.733
 8120SOL    HW126257  13.007  10.778   4.651
 8120SOL    HW226258  13.070  10.901   4.713
 8121SOL     OW26259   0.393   2.164   7.601
 8121SOL    HW126260   0.432   2.086   7.639
 8121SOL    HW226261   0.426   2.236   7.654
 8122SOL     OW26262   4.320   2.952   4.961
 8122SOL    HW126263   4.285   2.899   4.889
 8122SOL    HW226264   4.246   3.003   4.992
 8123SOL     OW26265   1.342   1.657   3.338
 8123SOL    HW126266   1.308   1.737   3.298
 8123SOL    HW226267   1.272   1.592   3.326
 8124SOL     OW26268   0.153   5.409  10.938
 8124SOL    HW126269   0.199   5.399  10.855
 8124SOL    HW226270   0.100   5.329  10.945
 8125SOL     OW26271  11.402   1.546  13.025
 8125SOL    HW126272  11.352   1.470  12.995
 8125SOL    HW226273  11.367   1.620  12.975
 8126SOL     OW26274  12.275   7.237   0.740
 8126SOL    HW126275  12.187   7.206   0.720
 8126SOL    HW226276  12.288   7.214   0.833
 8127SOL     OW26277   6.254   5.401   5.699
 8127SOL    HW126278   6.220   5.314   5.680
 8127SOL    HW226279   6.316   5.418   5.628
 8128SOL     OW26280  12.827   8.349   5.067
 8128SOL    HW126281  12.796   8.372   4.980
 8128SOL    HW226282  12.815   8.254   5.073
 8129SOL     OW26283  11.696   0.997   6.614
 8129SOL    HW126284  11.653   0.947   6.683
 8129SOL    HW226285  11.684   1.089   6.639
 8130SOL     OW26286   0.443  13.195  13.574
 8130SOL    HW126287   0.530  13.186  13.614
 8130SOL    HW226288   0.398  13.259  13.628
 8131SOL     OW26289  13.853   1.397   9.508
 8131SOL    HW126290  13.839   1.351   9.426
 8131SOL    HW226291  13.906   1.337   9.561
 8132SOL     OW26292  14.668  14.829   7.133
 8132SOL    HW126293  14.761  14.848   7.122
 8132SOL    HW226294  14.641   0.008   7.208
 8133SOL     OW26295   6.347   3.513   3.970
 8133SOL    HW126296   6.405   3.547   4.038
 8133SOL    HW226297   6.274   3.575   3.967
 8134SOL     OW26298  10.733  12.101  14.864
 8134SOL    HW126299  10.746  12.006  14.862
 8134SOL    HW226300  10.639  12.112  14.874
 8135SOL     OW26301  14.688   6.196  10.433
 8135SOL    HW126302  14.617   6.181  10.370
 8135SOL    HW226303  14.745   6.120  10.423
 8136SOL     OW26304   0.973   2.488   3.248
 8136SOL    HW126305   0.966   2.443   3.332
 8136SOL    HW226306   0.946   2.423   3.183
 8137SOL     OW26307   2.149   2.689  13.503
 8137SOL    HW126308   2.068   2.687  13.554
 8137SOL    HW226309   2.190   2.773  13.526
 8138SOL     OW26310   6.468   0.989   7.273
 8138SOL    HW126311   6.479   0.924   7.204
 8138SOL    HW226312   6.556   1.024   7.288
 8139SOL     OW26313   0.247   8.582  12.208
 8139SOL    HW126314   0.307   8.642  12.252
 8139SOL    HW226315   0.235   8.620  12.121
 8140SOL     OW26316   1.921   2.420  12.445
 8140SOL    HW126317   1.974   2.498  12.459
 8140SOL    HW226318   1.873   2.409  12.527
 8141SOL     OW26319   3.878   8.116   0.780
 8141SOL    HW126320   3.956   8.160   0.745
 8141SOL    HW226321   3.885   8.126   0.875
 8142SOL     OW26322  14.470  10.816   9.130
 8142SOL    HW126323  14.556  10.779   9.150
 8142SOL    HW226324  14.476  10.847   9.040
 8143SOL     OW26325   6.927   3.291   7.458
 8143SOL    HW126326   6.953   3.323   7.372
 8143SOL    HW226327   6.934   3.367   7.515
 8144SOL     OW26328   8.945   0.470   3.447
 8144SOL    HW126329   9.021   0.502   3.495
 8144SOL    HW226330   8.875   0.466   3.512
 8145SOL     OW26331   4.378   8.579   0.886
 8145SOL    HW126332   4.348   8.568   0.977
 8145SOL    HW226333   4.317   8.527   0.834
 8146SOL     OW26334  13.055   5.432   2.443
 8146SOL    HW126335  13.060   5.342   2.412
 8146SOL    HW226336  13.108   5.483   2.382
 8147SOL     OW26337  12.418  12.530   8.647
 8147SOL    HW126338  12.440  12.468   8.577
 8147SOL    HW226339  12.488  12.519   8.711
 8148SOL     OW26340   1.030   8.615  12.807
 8148SOL    HW126341   1.125   8.631  12.807
 8148SOL    HW226342   0.992   8.697  12.778
 8149SOL     OW26343   7.633  11.979   9.044
 8149SOL    HW126344   7.568  12.038   9.083
 8149SOL    HW226345   7.690  12.037   8.994
 8150SOL     OW26346  10.482  10.993   6.313
 8150SOL    HW126347  10.541  11.067   6.298
 8150SOL    HW226348  10.522  10.920   6.266
 8151SOL     OW26349   0.364   6.805   1.969
 8151SOL    HW126350   0.433   6.857   2.010
 8151SOL    HW226351   0.296   6.869   1.946
 8152SOL     OW26352   8.283   6.028   5.913
 8152SOL    HW126353   8.379   6.025   5.913
 8152SOL    HW226354   8.259   6.026   6.006
 8153SOL     OW26355  11.480   2.394   0.011
 8153SOL    HW126356  11.391   2.427   0.003
 8153SOL    HW226357  11.483   2.354   0.098
 8154SOL     OW26358  13.219   3.699   5.176
 8154SOL    HW126359  13.209   3.645   5.254
 8154SOL    HW226360  13.228   3.788   5.210
 8155SOL     OW26361   2.307   3.479   1.965
 8155SOL    HW126362   2.214   3.464   1.981
 8155SOL    HW226363   2.340   3.516   2.047
 8156SOL     OW26364  13.268  10.750   5.585
 8156SOL    HW126365  13.179  10.726   5.611
 8156SOL    HW226366  13.324  10.706   5.650
 8157SOL     OW26367  11.528   9.922   2.806
 8157SOL    HW126368  11.598   9.872   2.850
 8157SOL    HW226369  11.565  10.010   2.795
 8158SOL     OW26370  13.819   9.548   4.303
 8158SOL    HW126371  13.865   9.485   4.248
 8158SOL    HW226372  13.811   9.505   4.388
 8159SOL     OW26373   0.642  11.267   8.213
 8159SOL    HW126374   0.727  11.302   8.185
 8159SOL    HW226375   0.660  11.226   8.298
 8160SOL     OW26376  11.104   7.089   9.427
 8160SOL    HW126377  11.159   7.028   9.378
 8160SOL    HW226378  11.021   7.042   9.439
 8161SOL     OW26379   8.642   4.962   2.630
 8161SOL    HW126380   8.639   4.875   2.669
 8161SOL    HW226381   8.729   4.995   2.652
 8162SOL     OW26382  14.666   3.505  13.689
 8162SOL    HW126383  14.621   3.513  13.773
 8162SOL    HW226384  14.726   3.579  13.687
 8163SOL     OW26385   8.720   9.429   2.695
 8163SOL    HW126386   8.783   9.430   2.624
 8163SOL    HW226387   8.647   9.483   2.663
 8164SOL     OW26388  13.528   0.165   1.732
 8164SOL    HW126389  13.472   0.237   1.705
 8164SOL    HW226390  13.614   0.205   1.746
 8165SOL     OW26391  14.559   2.603   6.802
 8165SOL    HW126392  14.571   2.524   6.855
 8165SOL    HW226393  14.510   2.662   6.858
 8166SOL     OW26394  12.866  10.410  14.679
 8166SOL    HW126395  12.787  10.461  14.661
 8166SOL    HW226396  12.938  10.470  14.662
 8167SOL     OW26397  10.656  10.714   9.390
 8167SOL    HW126398  10.617  10.787   9.438
 8167SOL    HW226399  10.632  10.729   9.299
 8168SOL     OW26400   7.805   6.132   6.867
 8168SOL    HW126401   7.888   6.113   6.912
 8168SOL    HW226402   7.752   6.054   6.882
 8169SOL     OW26403   9.678  11.429  14.074
 8169SOL    HW126404   9.699  11.508  14.025
 8169SOL    HW226405   9.750  11.369  14.054
 8170SOL     OW26406  12.733  12.216   2.164
 8170SOL    HW126407  12.788  12.157   2.113
 8170SOL    HW226408  12.653  12.166   2.181
 8171SOL     OW26409   2.498  14.093  13.047
 8171SOL    HW126410   2.433  14.036  13.087
 8171SOL    HW226411   2.576  14.037  13.037
 8172SOL     OW26412  13.699   7.884  13.797
 8172SOL    HW126413  13.679   7.805  13.746
 8172SOL    HW226414  13.643   7.952  13.759
 8173SOL     OW26415   5.781   3.306   5.210
 8173SOL    HW126416   5.771   3.226   5.158
 8173SOL    HW226417   5.859   3.291   5.263
 8174SOL     OW26418   8.435   3.085   7.995
 8174SOL    HW126419   8.382   3.162   7.972
 8174SOL    HW226420   8.522   3.120   8.013
 8175SOL     OW26421  13.877  13.205   3.643
 8175SOL    HW126422  13.786  13.176   3.642
 8175SOL    HW226423  13.895  13.229   3.553
 8176SOL     OW26424   0.557   3.605  13.381
 8176SOL    HW126425   0.476   3.554  13.384
 8176SOL    HW226426   0.544   3.666  13.308
 8177SOL     OW26427   4.871   7.382   0.860
 8177SOL    HW126428   4.832   7.469   0.848
 8177SOL    HW226429   4.798   7.326   0.887
 8178SOL     OW26430  11.250  13.243   9.625
 8178SOL    HW126431  11.157  13.260   9.641
 8178SOL    HW226432  11.252  13.201   9.539
 8179SOL     OW26433   0.236   2.483  11.056
 8179SOL    HW126434   0.166   2.543  11.028
 8179SOL    HW226435   0.288   2.535  11.118
 8180SOL     OW26436   2.431   7.792   8.754
 8180SOL    HW126437   2.489   7.785   8.679
 8180SOL    HW226438   2.344   7.769   8.720
 8181SOL     OW26439   6.202   5.660  10.404
 8181SOL    HW126440   6.191   5.634  10.495
 8181SOL    HW226441   6.216   5.755  10.407
 8182SOL     OW26442   8.484  14.003   3.155
 8182SOL    HW126443   8.496  14.013   3.249
 8182SOL    HW226444   8.413  13.939   3.147
 8183SOL     OW26445  12.793   9.330  10.171
 8183SOL    HW126446  12.830   9.242  10.182
 8183SOL    HW226447  12.848   9.370  10.103
 8184SOL     OW26448  14.208   6.722  12.937
 8184SOL    HW126449  14.274   6.692  12.875
 8184SOL    HW226450  14.254   6.729  13.021
 8185SOL     OW26451   5.081   7.758   8.220
 8185SOL    HW126452   5.072   7.725   8.131
 8185SOL    HW226453   5.009   7.820   8.231
 8186SOL     OW26454   0.154   4.510  14.676
 8186SOL    HW126455   0.077   4.564  14.660
 8186SOL    HW226456   0.227   4.561  14.639
 8187SOL     OW26457  13.755   7.049  11.823
 8187SOL    HW126458  13.727   6.969  11.777
 8187SOL    HW226459  13.677   7.104  11.825
 8188SOL     OW26460  12.651   0.714   3.205
 8188SOL    HW126461  12.559   0.702   3.226
 8188SOL    HW226462  12.691   0.629   3.220
 8189SOL     OW26463   7.363  14.152  13.994
 8189SOL    HW126464   7.419  14.137  13.919
 8189SOL    HW226465   7.423  14.172  14.066
 8190SOL     OW26466   4.412  13.920  10.953
 8190SOL    HW126467   4.370  13.841  10.988
 8190SOL    HW226468   4.476  13.945  11.020
 8191SOL     OW26469  10.470   2.913   4.652
 8191SOL    HW126470  10.392   2.904   4.707
 8191SOL    HW226471  10.539   2.940   4.712
 8192SOL     OW26472   4.866   0.109   5.663
 8192SOL    HW126473   4.893   0.025   5.698
 8192SOL    HW226474   4.836   0.090   5.574
 8193SOL     OW26475   7.690   5.839   3.168
 8193SOL    HW126476   7.662   5.930   3.158
 8193SOL    HW226477   7.785   5.842   3.155
 8194SOL     OW26478  14.303  13.385   0.254
 8194SOL    HW126479  14.293  13.478   0.234
 8194SOL    HW226480  14.262  13.375   0.340
 8195SOL     OW26481   5.860   6.570   2.197
 8195SOL    HW126482   5.904   6.485   2.191
 8195SOL    HW226483   5.876   6.612   2.113
 8196SOL     OW26484   3.834  12.370   3.463
 8196SOL    HW126485   3.848  12.459   3.432
 8196SOL    HW226486   3.792  12.381   3.549
 8197SOL     OW26487   0.147   9.144  10.562
 8197SOL    HW126488   0.067   9.118  10.515
 8197SOL    HW226489   0.140   9.099  10.647
 8198SOL     OW26490   4.436  13.967   2.238
 8198SOL    HW126491   4.405  13.885   2.200
 8198SOL    HW226492   4.413  13.961   2.330
 8199SOL     OW26493   5.353   2.117   3.076
 8199SOL    HW126494   5.357   2.082   3.165
 8199SOL    HW226495   5.409   2.059   3.025
 8200SOL     OW26496   0.566  12.277   6.166
 8200SOL    HW126497   0.581  12.238   6.252
 8200SOL    HW226498   0.585  12.370   6.178
 8201SOL     OW26499   1.329   1.284  12.522
 8201SOL    HW126500   1.268   1.269  12.450
 8201SOL    HW226501   1.289   1.240  12.598
 8202SOL     OW26502   1.748  11.554  12.208
 8202SOL    HW126503   1.750  11.637  12.256
 8202SOL    HW226504   1.732  11.488  12.276
 8203SOL     OW26505  14.384   1.730   7.306
 8203SOL    HW126506  14.306   1.773   7.272
 8203SOL    HW226507  14.421   1.683   7.230
 8204SOL     OW26508  12.529   2.179  12.658
 8204SOL    HW126509  12.572   2.147  12.738
 8204SOL    HW226510  12.442   2.138  12.660
 8205SOL     OW26511   2.785   8.895   3.152
 8205SOL    HW126512   2.815   8.814   3.111
 8205SOL    HW226513   2.822   8.964   3.097
 8206SOL     OW26514   9.494   5.288  14.285
 8206SOL    HW126515   9.559   5.358  14.284
 8206SOL    HW226516   9.424   5.319  14.228
 8207SOL     OW26517   8.331   8.804  11.421
 8207SOL    HW126518   8.296   8.790  11.509
 8207SOL    HW226519   8.274   8.871  11.382
 8208SOL     OW26520  10.548   4.567   1.655
 8208SOL    HW126521  10.629   4.617   1.669
 8208SOL    HW226522  10.530   4.528   1.741
 8209SOL     OW26523  12.034   0.362   2.641
 8209SOL    HW126524  12.123   0.338   2.667
 8209SOL    HW226525  12.017   0.309   2.563
 8210SOL     OW26526   5.470  11.670   0.616
 8210SOL    HW126527   5.448  11.763   0.614
 8210SOL    HW226528   5.416  11.631   0.548
 8211SOL     OW26529   5.063  12.467  13.315
 8211SOL    HW126530   5.103  12.514  13.389
 8211SOL    HW226531   4.977  12.440  13.347
 8212SOL     OW26532   2.286   9.430   9.797
 8212SOL    HW126533   2.260   9.338   9.800
 8212SOL    HW226534   2.242   9.470   9.873
 8213SOL     OW26535   1.029   2.184   0.966
 8213SOL    HW126536   1.008   2.094   0.942
 8213SOL    HW226537   1.115   2.178   1.008
 8214SOL     OW26538   6.934   2.255   2.695
 8214SOL    HW126539   6.941   2.160   2.700
 8214SOL    HW226540   6.966   2.286   2.780
 8215SOL     OW26541   4.359  13.078   0.235
 8215SOL    HW126542   4.367  13.164   0.193
 8215SOL    HW226543   4.268  13.052   0.219
 8216SOL     OW26544   0.465   3.650  11.808
 8216SOL    HW126545   0.541   3.683  11.759
 8216SOL    HW226546   0.498   3.574  11.855
 8217SOL     OW26547   4.171  14.820  11.162
 8217SOL    HW126548   4.239  14.843  11.098
 8217SOL    HW226549   4.186   0.005  11.236
 8218SOL     OW26550   6.589   4.117   8.815
 8218SOL    HW126551   6.547   4.161   8.741
 8218SOL    HW226552   6.680   4.106   8.787
 8219SOL     OW26553   4.481   1.738   0.055
 8219SOL    HW126554   4.559   1.691   0.025
 8219SOL    HW226555   4.504   1.831   0.042
 8220SOL     OW26556   9.583   1.367   6.182
 8220SOL    HW126557   9.605   1.459   6.197
 8220SOL    HW226558   9.583   1.358   6.087
 8221SOL     OW26559   1.745  12.223  14.574
 8221SOL    HW126560   1.838  12.239  14.560
 8221SOL    HW226561   1.739  12.130  14.596
 8222SOL     OW26562   8.986   7.792  14.702
 8222SOL    HW126563   8.961   7.885  14.697
 8222SOL    HW226564   8.903   7.745  14.713
 8223SOL     OW26565   2.960  11.304  11.527
 8223SOL    HW126566   2.884  11.260  11.490
 8223SOL    HW226567   2.966  11.387  11.479
 8224SOL     OW26568   2.939   3.660   8.503
 8224SOL    HW126569   3.034   3.651   8.500
 8224SOL    HW226570   2.911   3.639   8.414
 8225SOL     OW26571   3.476  14.267  10.991
 8225SOL    HW126572   3.451  14.349  11.033
 8225SOL    HW226573   3.407  14.249  10.928
 8226SOL     OW26574  10.315   4.931   6.415
 8226SOL    HW126575  10.277   4.981   6.487
 8226SOL    HW226576  10.242   4.915   6.356
 8227SOL     OW26577   6.090   3.192  10.734
 8227SOL    HW126578   6.176   3.181  10.695
 8227SOL    HW226579   6.105   3.248  10.810
 8228SOL     OW26580   5.932   7.563   6.660
 8228SOL    HW126581   5.901   7.563   6.570
 8228SOL    HW226582   6.021   7.598   6.655
 8229SOL     OW26583  14.144   4.349  12.439
 8229SOL    HW126584  14.194   4.364  12.359
 8229SOL    HW226585  14.056   4.328  12.409
 8230SOL     OW26586   4.533  12.691  14.864
 8230SOL    HW126587   4.457  12.750  14.869
 8230SOL    HW226588   4.587  12.727  14.794
 8231SOL     OW26589  12.036  12.123   2.971
 8231SOL    HW126590  12.081  12.200   2.938
 8231SOL    HW226591  11.950  12.156   3.000
 8232SOL     OW26592   3.353  11.843  11.575
 8232SOL    HW126593   3.314  11.756  11.569
 8232SOL    HW226594   3.432  11.830  11.628
 8233SOL     OW26595  14.616   2.394   6.311
 8233SOL    HW126596  14.606   2.469   6.370
 8233SOL    HW226597  14.681   2.338   6.355
 8234SOL     OW26598  13.699   8.990   4.699
 8234SOL    HW126599  13.742   8.955   4.621
 8234SOL    HW226600  13.754   9.063   4.727
 8235SOL     OW26601   4.274   6.863   9.059
 8235SOL    HW126602   4.308   6.939   9.011
 8235SOL    HW226603   4.282   6.888   9.151
 8236SOL     OW26604   2.373   1.287   6.720
 8236SOL    HW126605   2.446   1.265   6.777
 8236SOL    HW226606   2.328   1.358   6.765
 8237SOL     OW26607  11.800   9.128   9.013
 8237SOL    HW126608  11.737   9.172   8.956
 8237SOL    HW226609  11.864   9.090   8.953
 8238SOL     OW26610   1.774   8.482   5.013
 8238SOL    HW126611   1.857   8.471   5.060
 8238SOL    HW226612   1.714   8.516   5.079
 8239SOL     OW26613   2.398   8.516   1.179
 8239SOL    HW126614   2.386   8.583   1.112
 8239SOL    HW226615   2.476   8.544   1.228
 8240SOL     OW26616   5.052   1.382   8.316
 8240SOL    HW126617   5.092   1.296   8.304
 8240SOL    HW226618   5.009   1.377   8.402
 8241SOL     OW26619   6.421  12.095   6.408
 8241SOL    HW126620   6.438  12.033   6.337
 8241SOL    HW226621   6.335  12.132   6.387
 8242SOL     OW26622  11.207   6.072  13.507
 8242SOL    HW126623  11.295   6.036  13.512
 8242SOL    HW226624  11.218   6.156  13.461
 8243SOL     OW26625   8.243   9.261  11.233
 8243SOL    HW126626   8.315   9.253  11.170
 8243SOL    HW226627   8.253   9.348  11.270
 8244SOL     OW26628  12.868   8.834  10.802
 8244SOL    HW126629  12.925   8.790  10.865
 8244SOL    HW226630  12.884   8.788  10.719
 8245SOL     OW26631   2.737   8.516   0.426
 8245SOL    HW126632   2.658   8.500   0.479
 8245SOL    HW226633   2.808   8.516   0.490
 8246SOL     OW26634   4.932   2.961   1.834
 8246SOL    HW126635   4.850   2.963   1.882
 8246SOL    HW226636   4.946   2.868   1.815
 8247SOL     OW26637   2.926   6.691  12.825
 8247SOL    HW126638   2.955   6.781  12.809
 8247SOL    HW226639   2.879   6.695  12.908
 8248SOL     OW26640   1.650   7.702  13.482
 8248SOL    HW126641   1.597   7.728  13.407
 8248SOL    HW226642   1.698   7.625  13.452
 8249SOL     OW26643   7.399   1.401   9.355
 8249SOL    HW126644   7.441   1.480   9.321
 8249SOL    HW226645   7.306   1.414   9.338
 8250SOL     OW26646   4.480   4.820  12.054
 8250SOL    HW126647   4.553   4.882  12.049
 8250SOL    HW226648   4.411   4.869  12.098
 8251SOL     OW26649   7.298   4.201  10.638
 8251SOL    HW126650   7.381   4.198  10.686
 8251SOL    HW226651   7.233   4.173  10.702
 8252SOL     OW26652   8.090   6.235   6.849
 8252SOL    HW126653   8.112   6.144   6.869
 8252SOL    HW226654   8.089   6.239   6.754
 8253SOL     OW26655   1.930   8.439   4.420
 8253SOL    HW126656   1.943   8.534   4.418
 8253SOL    HW226657   1.838   8.427   4.395
 8254SOL     OW26658   2.592  11.126  14.043
 8254SOL    HW126659   2.510  11.077  14.034
 8254SOL    HW226660   2.641  11.079  14.110
 8255SOL     OW26661  10.030   7.790   2.937
 8255SOL    HW126662   9.940   7.799   2.905
 8255SOL    HW226663  10.060   7.880   2.951
 8256SOL     OW26664   4.852   3.012  10.257
 8256SOL    HW126665   4.879   2.973  10.173
 8256SOL    HW226666   4.826   3.101  10.234
 8257SOL     OW26667   4.798  12.701  12.532
 8257SOL    HW126668   4.794  12.606  12.525
 8257SOL    HW226669   4.857  12.728  12.462
 8258SOL     OW26670   3.081   9.648   1.735
 8258SOL    HW126671   3.141   9.616   1.802
 8258SOL    HW226672   3.032   9.571   1.707
 8259SOL     OW26673   1.537   5.908  10.952
 8259SOL    HW126674   1.558   5.965  11.026
 8259SOL    HW226675   1.568   5.956  10.875
 8260SOL     OW26676   7.852   7.558  10.037
 8260SOL    HW126677   7.927   7.611  10.011
 8260SOL    HW226678   7.885   7.501  10.106
 8261SOL     OW26679   3.003   2.312   6.354
 8261SOL    HW126680   3.091   2.282   6.332
 8261SOL    HW226681   2.948   2.234   6.348
 8262SOL     OW26682  11.793   8.698   0.903
 8262SOL    HW126683  11.854   8.766   0.931
 8262SOL    HW226684  11.773   8.650   0.984
 8263SOL     OW26685   2.272   2.268  12.827
 8263SOL    HW126686   2.275   2.186  12.778
 8263SOL    HW226687   2.259   2.241  12.918
 8264SOL     OW26688  12.789   7.984   3.780
 8264SOL    HW126689  12.808   8.077   3.773
 8264SOL    HW226690  12.710   7.980   3.833
 8265SOL     OW26691   7.599  13.406  13.456
 8265SOL    HW126692   7.564  13.456  13.530
 8265SOL    HW226693   7.692  13.398  13.475
 8266SOL     OW26694   0.394   0.961   4.946
 8266SOL    HW126695   0.427   0.987   5.032
 8266SOL    HW226696   0.331   0.891   4.964
 8267SOL     OW26697   6.500  12.448   5.428
 8267SOL    HW126698   6.555  12.425   5.503
 8267SOL    HW226699   6.557  12.434   5.352
 8268SOL     OW26700   7.721   0.174  11.711
 8268SOL    HW126701   7.792   0.163  11.648
 8268SOL    HW226702   7.745   0.119  11.785
 8269SOL     OW26703   0.878   0.162   3.288
 8269SOL    HW126704   0.886   0.206   3.203
 8269SOL    HW226705   0.891   0.232   3.352
 8270SOL     OW26706  10.973   3.856  13.282
 8270SOL    HW126707  11.062   3.884  13.260
 8270SOL    HW226708  10.943   3.809  13.203
 8271SOL     OW26709  14.063   8.341   2.670
 8271SOL    HW126710  14.149   8.299   2.681
 8271SOL    HW226711  14.021   8.330   2.755
 8272SOL     OW26712   5.951  10.405   7.185
 8272SOL    HW126713   5.878  10.438   7.133
 8272SOL    HW226714   5.939  10.445   7.271
 8273SOL     OW26715   5.929   9.829  14.361
 8273SOL    HW126716   5.962   9.785  14.283
 8273SOL    HW226717   5.852   9.877  14.330
 8274SOL     OW26718   3.282  11.972   8.577
 8274SOL    HW126719   3.319  12.059   8.568
 8274SOL    HW226720   3.295  11.949   8.669
 8275SOL     OW26721  13.851   9.305   7.573
 8275SOL    HW126722  13.913   9.346   7.513
 8275SOL    HW226723  13.796   9.377   7.603
 8276SOL     OW26724  14.564   3.511   3.916
 8276SOL    HW126725  14.497   3.459   3.958
 8276SOL    HW226726  14.516   3.583   3.873
 8277SOL     OW26727   7.438  12.662   3.291
 8277SOL    HW126728   7.516  12.718   3.295
 8277SOL    HW226729   7.438  12.616   3.375
 8278SOL     OW26730   6.869   8.428  10.752
 8278SOL    HW126731   6.867   8.489  10.677
 8278SOL    HW226732   6.961   8.425  10.778
 8279SOL     OW26733   7.903   3.513  14.752
 8279SOL    HW126734   7.955   3.562  14.816
 8279SOL    HW226735   7.902   3.569  14.674
 8280SOL     OW26736   6.291   8.681   2.969
 8280SOL    HW126737   6.333   8.644   3.048
 8280SOL    HW226738   6.198   8.667   2.983
 8281SOL     OW26739  10.468  14.764   9.558
 8281SOL    HW126740  10.410  14.739   9.630
 8281SOL    HW226741  10.550  14.787   9.600
 8282SOL     OW26742   1.940   3.671   1.660
 8282SOL    HW126743   1.844   3.675   1.662
 8282SOL    HW226744   1.960   3.628   1.577
 8283SOL     OW26745   1.331   7.047   5.757
 8283SOL    HW126746   1.365   6.998   5.682
 8283SOL    HW226747   1.354   7.138   5.739
 8284SOL     OW26748   9.170   1.632   9.070
 8284SOL    HW126749   9.151   1.712   9.020
 8284SOL    HW226750   9.263   1.638   9.091
 8285SOL     OW26751   6.484  13.861   7.571
 8285SOL    HW126752   6.429  13.858   7.649
 8285SOL    HW226753   6.496  13.770   7.545
 8286SOL     OW26754   9.346  10.671  10.358
 8286SOL    HW126755   9.355  10.761  10.389
 8286SOL    HW226756   9.257  10.667  10.322
 8287SOL     OW26757   1.721  14.234   1.011
 8287SOL    HW126758   1.775  14.288   1.069
 8287SOL    HW226759   1.784  14.185   0.958
 8288SOL     OW26760   2.692   4.506   6.044
 8288SOL    HW126761   2.611   4.496   6.094
 8288SOL    HW226762   2.761   4.473   6.102
 8289SOL     OW26763   2.848   7.170   4.956
 8289SOL    HW126764   2.863   7.235   5.024
 8289SOL    HW226765   2.784   7.210   4.897
 8290SOL     OW26766  14.138   2.019  13.909
 8290SOL    HW126767  14.165   2.110  13.902
 8290SOL    HW226768  14.125   2.005  14.003
 8291SOL     OW26769   1.042   5.701   1.887
 8291SOL    HW126770   0.999   5.620   1.916
 8291SOL    HW226771   1.097   5.726   1.961
 8292SOL     OW26772   3.753   8.318  14.320
 8292SOL    HW126773   3.687   8.280  14.262
 8292SOL    HW226774   3.834   8.274  14.296
 8293SOL     OW26775  12.624   2.477   3.239
 8293SOL    HW126776  12.670   2.410   3.189
 8293SOL    HW226777  12.564   2.428   3.296
 8294SOL     OW26778   5.938   5.896   5.800
 8294SOL    HW126779   5.928   5.843   5.880
 8294SOL    HW226780   5.911   5.837   5.729
 8295SOL     OW26781  12.928   0.679   9.850
 8295SOL    HW126782  12.857   0.647   9.794
 8295SOL    HW226783  12.965   0.599   9.889
 8296SOL     OW26784  14.711   1.125   1.612
 8296SOL    HW126785  14.647   1.120   1.541
 8296SOL    HW226786  14.677   1.066   1.680
 8297SOL     OW26787   2.542  12.292   0.742
 8297SOL    HW126788   2.562  12.299   0.836
 8297SOL    HW226789   2.448  12.279   0.738
 8298SOL     OW26790  12.590   8.540   8.067
 8298SOL    HW126791  12.595   8.448   8.091
 8298SOL    HW226792  12.665   8.554   8.009
 8299SOL     OW26793   7.086   4.148   1.270
 8299SOL    HW126794   7.097   4.175   1.179
 8299SOL    HW226795   7.165   4.099   1.291
 8300SOL     OW26796  12.659   8.054   6.853
 8300SOL    HW126797  12.661   8.149   6.862
 8300SOL    HW226798  12.685   8.037   6.763
 8301SOL     OW26799   8.890   9.840  10.960
 8301SOL    HW126800   8.868   9.830  10.867
 8301SOL    HW226801   8.974   9.796  10.969
 8302SOL     OW26802   7.244  10.728   4.831
 8302SOL    HW126803   7.187  10.697   4.901
 8302SOL    HW226804   7.323  10.758   4.876
 8303SOL     OW26805   0.701   2.330  12.935
 8303SOL    HW126806   0.639   2.290  12.874
 8303SOL    HW226807   0.764   2.260  12.953
 8304SOL     OW26808   7.177   8.554  13.761
 8304SOL    HW126809   7.264   8.595  13.753
 8304SOL    HW226810   7.125   8.616  13.811
 8305SOL     OW26811   2.042  11.086   7.256
 8305SOL    HW126812   1.987  11.103   7.180
 8305SOL    HW226813   2.085  11.169   7.274
 8306SOL     OW26814  14.459   1.444   0.291
 8306SOL    HW126815  14.467   1.359   0.248
 8306SOL    HW226816  14.543   1.488   0.273
 8307SOL     OW26817   6.686  10.776  11.902
 8307SOL    HW126818   6.669  10.700  11.957
 8307SOL    HW226819   6.765  10.754  11.854
 8308SOL     OW26820   5.786   4.371  12.466
 8308SOL    HW126821   5.861   4.313  12.455
 8308SOL    HW226822   5.779   4.418  12.382
 8309SOL     OW26823   1.521   9.032   1.979
 8309SOL    HW126824   1.538   9.125   1.990
 8309SOL    HW226825   1.599   8.989   2.014
 8310SOL     OW26826  14.040   1.367  11.645
 8310SOL    HW126827  14.110   1.374  11.580
 8310SOL    HW226828  14.038   1.274  11.668
 8311SOL     OW26829   5.217  14.000  14.862
 8311SOL    HW126830   5.240  14.089   0.014
 8311SOL    HW226831   5.125  14.006  14.837
 8312SOL     OW26832   3.556   0.446   8.814
 8312SOL    HW126833   3.501   0.486   8.882
 8312SOL    HW226834   3.586   0.520   8.761
 8313SOL     OW26835  11.920  10.491   9.729
 8313SOL    HW126836  11.828  10.467   9.738
 8313SOL    HW226837  11.963  10.411   9.701
 8314SOL     OW26838   0.046   8.445  13.616
 8314SOL    HW126839   0.131   8.408  13.639
 8314SOL    HW226840   0.066   8.519  13.559
 8315SOL     OW26841   4.757   5.337  13.631
 8315SOL    HW126842   4.682   5.293  13.590
 8315SOL    HW226843   4.787   5.275  13.698
 8316SOL     OW26844   9.029   8.649   4.433
 8316SOL    HW126845   9.116   8.671   4.466
 8316SOL    HW226846   9.041   8.639   4.338
 8317SOL     OW26847   0.327   2.315   5.878
 8317SOL    HW126848   0.329   2.249   5.947
 8317SOL    HW226849   0.292   2.394   5.921
 8318SOL     OW26850   1.085  14.560  12.596
 8318SOL    HW126851   1.112  14.474  12.628
 8318SOL    HW226852   1.006  14.543  12.546
 8319SOL     OW26853   4.483   1.078   3.162
 8319SOL    HW126854   4.462   1.092   3.070
 8319SOL    HW226855   4.472   1.163   3.203
 8320SOL     OW26856   3.246   2.487   0.289
 8320SOL    HW126857   3.221   2.542   0.363
 8320SOL    HW226858   3.288   2.411   0.329
 8321SOL     OW26859  10.295   6.994   9.707
 8321SOL    HW126860  10.229   6.935   9.668
 8321SOL    HW226861  10.258   7.017   9.792
 8322SOL     OW26862   2.023   6.614   2.398
 8322SOL    HW126863   1.998   6.598   2.307
 8322SOL    HW226864   2.102   6.667   2.392
 8323SOL     OW26865  11.784   0.481   2.337
 8323SOL    HW126866  11.706   0.508   2.385
 8323SOL    HW226867  11.764   0.498   2.245
 8324SOL     OW26868  10.002   2.857   3.433
 8324SOL    HW126869   9.984   2.870   3.339
 8324SOL    HW226870   9.954   2.778   3.456
 8325SOL     OW26871   3.392   4.962   0.967
 8325SOL    HW126872   3.304   4.927   0.979
 8325SOL    HW226873   3.379   5.057   0.962
 8326SOL     OW26874   8.134  13.164  13.262
 8326SOL    HW126875   8.220  13.133  13.291
 8326SOL    HW226876   8.075  13.142  13.334
 8327SOL     OW26877   0.562   3.367  12.454
 8327SOL    HW126878   0.529   3.450  12.489
 8327SOL    HW226879   0.488   3.332  12.404
 8328SOL     OW26880   5.101   4.004  11.766
 8328SOL    HW126881   5.156   4.050  11.701
 8328SOL    HW226882   5.015   4.044  11.756
 8329SOL     OW26883   0.953   0.535   7.952
 8329SOL    HW126884   1.008   0.519   8.028
 8329SOL    HW226885   0.984   0.473   7.886
 8330SOL     OW26886   6.062   0.587   6.884
 8330SOL    HW126887   6.148   0.547   6.873
 8330SOL    HW226888   6.078   0.666   6.936
 8331SOL     OW26889  13.791   9.690  14.281
 8331SOL    HW126890  13.700   9.719  14.274
 8331SOL    HW226891  13.804   9.633  14.204
 8332SOL     OW26892   7.520   5.914  11.162
 8332SOL    HW126893   7.560   5.841  11.115
 8332SOL    HW226894   7.531   5.893  11.255
 8333SOL     OW26895   3.084  13.615  11.402
 8333SOL    HW126896   3.038  13.632  11.319
 8333SOL    HW226897   3.023  13.645  11.469
 8334SOL     OW26898   3.775  13.140  11.626
 8334SOL    HW126899   3.857  13.174  11.660
 8334SOL    HW226900   3.707  13.186  11.675
 8335SOL     OW26901   0.492   5.235  11.072
 8335SOL    HW126902   0.473   5.280  11.155
 8335SOL    HW226903   0.407   5.231  11.027
 8336SOL     OW26904   0.153   7.184   7.130
 8336SOL    HW126905   0.111   7.266   7.156
 8336SOL    HW226906   0.170   7.139   7.213
 8337SOL     OW26907  10.067   7.553   6.856
 8337SOL    HW126908  10.068   7.511   6.770
 8337SOL    HW226909  10.159   7.568   6.876
 8338SOL     OW26910  14.481  10.629  14.543
 8338SOL    HW126911  14.419  10.670  14.482
 8338SOL    HW226912  14.427  10.568  14.593
 8339SOL     OW26913   3.657   7.278   4.889
 8339SOL    HW126914   3.686   7.326   4.966
 8339SOL    HW226915   3.738   7.254   4.843
 8340SOL     OW26916  11.830  12.531  10.432
 8340SOL    HW126917  11.758  12.467  10.438
 8340SOL    HW226918  11.909  12.478  10.437
 8341SOL     OW26919   5.602   3.620   4.136
 8341SOL    HW126920   5.606   3.591   4.044
 8341SOL    HW226921   5.583   3.713   4.130
 8342SOL     OW26922   6.324   3.510   3.028
 8342SOL    HW126923   6.292   3.513   2.938
 8342SOL    HW226924   6.306   3.597   3.063
 8343SOL     OW26925   3.950   3.294   7.359
 8343SOL    HW126926   3.999   3.254   7.430
 8343SOL    HW226927   3.989   3.260   7.279
 8344SOL     OW26928   4.896   8.657   5.380
 8344SOL    HW126929   4.884   8.650   5.475
 8344SOL    HW226930   4.969   8.598   5.361
 8345SOL     OW26931  14.477   5.646   8.428
 8345SOL    HW126932  14.430   5.711   8.480
 8345SOL    HW226933  14.434   5.563   8.449
 8346SOL     OW26934   8.872   5.082   2.802
 8346SOL    HW126935   8.878   5.074   2.897
 8346SOL    HW226936   8.907   4.999   2.769
 8347SOL     OW26937   1.476   9.738  14.657
 8347SOL    HW126938   1.519   9.823  14.668
 8347SOL    HW226939   1.531   9.677  14.706
 8348SOL     OW26940   9.756  14.858   0.882
 8348SOL    HW126941   9.704   0.051   0.925
 8348SOL    HW226942   9.845  14.875   0.910
 8349SOL     OW26943   2.185   2.723   6.770
 8349SOL    HW126944   2.209   2.796   6.713
 8349SOL    HW226945   2.264   2.668   6.772
 8350SOL     OW26946  11.246   6.042   8.131
 8350SOL    HW126947  11.329   6.038   8.083
 8350SOL    HW226948  11.181   6.066   8.064
 8351SOL     OW26949   3.585   3.344   8.964
 8351SOL    HW126950   3.538   3.426   8.946
 8351SOL    HW226951   3.664   3.371   9.010
 8352SOL     OW26952  12.669   5.524   3.234
 8352SOL    HW126953  12.665   5.593   3.168
 8352SOL    HW226954  12.746   5.473   3.210
 8353SOL     OW26955   0.958   5.636   7.495
 8353SOL    HW126956   0.990   5.603   7.579
 8353SOL    HW226957   0.981   5.568   7.431
 8354SOL     OW26958   9.128  10.174   1.821
 8354SOL    HW126959   9.140  10.083   1.795
 8354SOL    HW226960   9.064  10.209   1.759
 8355SOL     OW26961  12.904  13.879  10.707
 8355SOL    HW126962  12.994  13.870  10.676
 8355SOL    HW226963  12.861  13.799  10.677
 8356SOL     OW26964   0.271   6.312   2.578
 8356SOL    HW126965   0.315   6.366   2.511
 8356SOL    HW226966   0.339   6.296   2.644
 8357SOL     OW26967  10.617   0.102   0.390
 8357SOL    HW126968  10.584   0.189   0.367
 8357SOL    HW226969  10.548   0.042   0.362
 8358SOL     OW26970  12.216   0.288   7.617
 8358SOL    HW126971  12.211   0.347   7.692
 8358SOL    HW226972  12.126   0.258   7.603
 8359SOL     OW26973   6.890   6.372   9.227
 8359SOL    HW126974   6.938   6.454   9.239
 8359SOL    HW226975   6.958   6.305   9.228
 8360SOL     OW26976  12.828   1.192  11.266
 8360SOL    HW126977  12.884   1.176  11.190
 8360SOL    HW226978  12.889   1.210  11.338
 8361SOL     OW26979  10.812   5.719  14.264
 8361SOL    HW126980  10.728   5.692  14.226
 8361SOL    HW226981  10.837   5.797  14.215
 8362SOL     OW26982   4.662   9.260   1.826
 8362SOL    HW126983   4.723   9.200   1.870
 8362SOL    HW226984   4.613   9.300   1.897
 8363SOL     OW26985  14.429   6.259   8.823
 8363SOL    HW126986  14.481   6.202   8.880
 8363SOL    HW226987  14.386   6.199   8.762
 8364SOL     OW26988  10.134  10.593   4.204
 8364SOL    HW126989  10.124  10.681   4.240
 8364SOL    HW226990  10.070  10.541   4.251
 8365SOL     OW26991  12.353   9.375  13.776
 8365SOL    HW126992  12.411   9.317  13.826
 8365SOL    HW226993  12.410   9.416  13.711
 8366SOL     OW26994   0.454   1.372  13.737
 8366SOL    HW126995   0.542   1.410  13.728
 8366SOL    HW226996   0.395   1.441  13.707
 8367SOL     OW26997   2.945  12.966   8.210
 8367SOL    HW126998   3.039  12.967   8.226
 8367SOL    HW226999   2.928  13.047   8.162
 8368SOL     OW27000   1.532  11.142   0.193
 8368SOL    HW127001   1.446  11.184   0.197
 8368SOL    HW227002   1.520  11.059   0.241
 8369SOL     OW27003  12.883   0.583  13.392
 8369SOL    HW127004  12.884   0.510  13.330
 8369SOL    HW227005  12.811   0.639  13.363
 8370SOL     OW27006   7.239   1.322   4.944
 8370SOL    HW127007   7.208   1.389   4.883
 8370SOL    HW227008   7.188   1.338   5.024
 8371SOL     OW27009   3.841  13.361  12.216
 8371SOL    HW127010   3.895  13.354  12.137
 8371SOL    HW227011   3.872  13.440  12.260
 8372SOL     OW27012   2.240  14.447   5.058
 8372SOL    HW127013   2.306  14.412   4.998
 8372SOL    HW227014   2.247  14.391   5.136
 8373SOL     OW27015   8.518   5.813   1.636
 8373SOL    HW127016   8.504   5.787   1.727
 8373SOL    HW227017   8.478   5.744   1.584
 8374SOL     OW27018   1.188  12.988  11.357
 8374SOL    HW127019   1.210  13.063  11.301
 8374SOL    HW227020   1.112  13.017  11.407
 8375SOL     OW27021   7.431  11.622   7.829
 8375SOL    HW127022   7.452  11.678   7.755
 8375SOL    HW227023   7.360  11.667   7.874
 8376SOL     OW27024   5.135   4.027   6.752
 8376SOL    HW127025   5.043   4.044   6.734
 8376SOL    HW227026   5.135   3.958   6.818
 8377SOL     OW27027  12.590   2.904   4.607
 8377SOL    HW127028  12.503   2.943   4.594
 8377SOL    HW227029  12.650   2.968   4.569
 8378SOL     OW27030   4.521  10.327  11.322
 8378SOL    HW127031   4.502  10.262  11.390
 8378SOL    HW227032   4.489  10.287  11.241
 8379SOL     OW27033   6.441  10.205  14.341
 8379SOL    HW127034   6.414  10.169  14.426
 8379SOL    HW227035   6.518  10.258  14.361
 8380SOL     OW27036   3.646   4.293   4.239
 8380SOL    HW127037   3.586   4.364   4.216
 8380SOL    HW227038   3.733   4.328   4.221
 8381SOL     OW27039   1.421   9.959   3.363
 8381SOL    HW127040   1.429   9.873   3.321
 8381SOL    HW227041   1.431  10.022   3.292
 8382SOL     OW27042   5.438   3.973   0.710
 8382SOL    HW127043   5.403   3.987   0.798
 8382SOL    HW227044   5.362   3.952   0.656
 8383SOL     OW27045   7.498   6.541  13.858
 8383SOL    HW127046   7.524   6.603  13.790
 8383SOL    HW227047   7.456   6.595  13.925
 8384SOL     OW27048   3.667   9.126   3.159
 8384SOL    HW127049   3.755   9.092   3.142
 8384SOL    HW227050   3.621   9.054   3.201
 8385SOL     OW27051   9.960   2.857  10.573
 8385SOL    HW127052   9.982   2.843  10.481
 8385SOL    HW227053  10.009   2.789  10.620
 8386SOL     OW27054   1.167   3.705   6.358
 8386SOL    HW127055   1.095   3.697   6.295
 8386SOL    HW227056   1.227   3.768   6.318
 8387SOL     OW27057  13.702   0.114   8.160
 8387SOL    HW127058  13.656   0.176   8.104
 8387SOL    HW227059  13.656   0.119   8.244
 8388SOL     OW27060   6.050  13.448   8.914
 8388SOL    HW127061   6.034  13.361   8.877
 8388SOL    HW227062   6.092  13.430   8.999
 8389SOL     OW27063   9.598   9.200   2.736
 8389SOL    HW127064   9.559   9.245   2.661
 8389SOL    HW227065   9.690   9.227   2.735
 8390SOL     OW27066   4.361   7.661  10.868
 8390SOL    HW127067   4.379   7.738  10.922
 8390SOL    HW227068   4.308   7.695  10.796
 8391SOL     OW27069   2.165   1.289   9.368
 8391SOL    HW127070   2.248   1.338   9.370
 8391SOL    HW227071   2.189   1.204   9.331
 8392SOL     OW27072   4.684   1.324   4.762
 8392SOL    HW127073   4.611   1.384   4.747
 8392SOL    HW227074   4.710   1.295   4.674
 8393SOL     OW27075   3.187   5.732   2.903
 8393SOL    HW127076   3.119   5.665   2.893
 8393SOL    HW227077   3.268   5.683   2.914
 8394SOL     OW27078  11.905  14.693  11.786
 8394SOL    HW127079  11.956  14.611  11.792
 8394SOL    HW227080  11.935  14.744  11.861
 8395SOL     OW27081   0.147  10.791   4.883
 8395SOL    HW127082   0.196  10.732   4.941
 8395SOL    HW227083   0.201  10.870   4.878
 8396SOL     OW27084   4.419   7.705   1.474
 8396SOL    HW127085   4.437   7.678   1.564
 8396SOL    HW227086   4.349   7.647   1.444
 8397SOL     OW27087   7.960  13.705   2.865
 8397SOL    HW127088   8.010  13.750   2.797
 8397SOL    HW227089   7.887  13.765   2.883
 8398SOL     OW27090  13.865  12.961   7.781
 8398SOL    HW127091  13.797  13.028   7.793
 8398SOL    HW227092  13.904  12.983   7.696
 8399SOL     OW27093   5.156   6.743  14.553
 8399SOL    HW127094   5.196   6.794  14.623
 8399SOL    HW227095   5.175   6.652  14.577
 8400SOL     OW27096   2.713   5.657  11.811
 8400SOL    HW127097   2.803   5.671  11.843
 8400SOL    HW227098   2.682   5.745  11.790
 8401SOL     OW27099   7.089   2.846   0.136
 8401SOL    HW127100   7.115   2.804   0.218
 8401SOL    HW227101   7.130   2.932   0.139
 8402SOL     OW27102  10.103  13.913   6.396
 8402SOL    HW127103  10.137  13.826   6.375
 8402SOL    HW227104  10.041  13.932   6.326
 8403SOL     OW27105   3.972  14.833   7.343
 8403SOL    HW127106   4.020  14.759   7.379
 8403SOL    HW227107   3.949  14.805   7.254
 8404SOL     OW27108  11.222   7.887   6.538
 8404SOL    HW127109  11.209   7.793   6.523
 8404SOL    HW227110  11.316   7.897   6.550
 8405SOL     OW27111   3.614  13.651   6.930
 8405SOL    HW127112   3.559  13.607   6.865
 8405SOL    HW227113   3.567  13.639   7.013
 8406SOL     OW27114  12.186   2.978   4.343
 8406SOL    HW127115  12.180   2.898   4.291
 8406SOL    HW227116  12.130   2.961   4.419
 8407SOL     OW27117   2.901   2.609   5.678
 8407SOL    HW127118   2.872   2.685   5.628
 8407SOL    HW227119   2.819   2.567   5.706
 8408SOL     OW27120  10.813   3.203  12.007
 8408SOL    HW127121  10.736   3.257  11.995
 8408SOL    HW227122  10.788   3.117  11.973
 8409SOL     OW27123   4.842   6.345  11.216
 8409SOL    HW127124   4.913   6.300  11.263
 8409SOL    HW227125   4.819   6.286  11.144
 8410SOL     OW27126   7.505   3.136  13.268
 8410SOL    HW127127   7.536   3.223  13.243
 8410SOL    HW227128   7.433   3.152  13.329
 8411SOL     OW27129   3.869   4.009   4.774
 8411SOL    HW127130   3.808   4.007   4.701
 8411SOL    HW227131   3.845   3.935   4.829
 8412SOL     OW27132   8.417   2.785  13.958
 8412SOL    HW127133   8.415   2.844  14.034
 8412SOL    HW227134   8.506   2.794  13.923
 8413SOL     OW27135   4.129   6.538   9.463
 8413SOL    HW127136   4.143   6.458   9.513
 8413SOL    HW227137   4.117   6.508   9.373
 8414SOL     OW27138   7.859   7.646  12.796
 8414SOL    HW127139   7.801   7.721  12.806
 8414SOL    HW227140   7.902   7.660  12.712
 8415SOL     OW27141  14.252  10.265   7.372
 8415SOL    HW127142  14.216  10.318   7.443
 8415SOL    HW227143  14.277  10.328   7.305
 8416SOL     OW27144   3.180   1.067   6.411
 8416SOL    HW127145   3.233   1.091   6.335
 8416SOL    HW227146   3.093   1.101   6.391
 8417SOL     OW27147   1.827  11.444  10.857
 8417SOL    HW127148   1.760  11.466  10.793
 8417SOL    HW227149   1.794  11.479  10.940
 8418SOL     OW27150   1.873  13.134   8.850
 8418SOL    HW127151   1.851  13.131   8.944
 8418SOL    HW227152   1.865  13.043   8.821
 8419SOL     OW27153   7.536   9.313   5.737
 8419SOL    HW127154   7.504   9.362   5.812
 8419SOL    HW227155   7.457   9.284   5.692
 8420SOL     OW27156   6.399   0.587   5.432
 8420SOL    HW127157   6.402   0.500   5.393
 8420SOL    HW227158   6.430   0.575   5.522
 8421SOL     OW27159   9.739   6.041   3.319
 8421SOL    HW127160   9.740   6.038   3.415
 8421SOL    HW227161   9.725   5.950   3.293
 8422SOL     OW27162   2.109  10.051   9.704
 8422SOL    HW127163   2.055  10.021   9.777
 8422SOL    HW227164   2.125  10.143   9.722
 8423SOL     OW27165   4.271   9.202   8.259
 8423SOL    HW127166   4.357   9.160   8.269
 8423SOL    HW227167   4.230   9.194   8.345
 8424SOL     OW27168   3.282  13.333   8.791
 8424SOL    HW127169   3.281  13.237   8.787
 8424SOL    HW227170   3.333  13.352   8.870
 8425SOL     OW27171   9.427  12.815   3.177
 8425SOL    HW127172   9.450  12.722   3.178
 8425SOL    HW227173   9.332  12.816   3.163
 8426SOL     OW27174   6.537   4.495   1.742
 8426SOL    HW127175   6.626   4.519   1.769
 8426SOL    HW227176   6.494   4.469   1.823
 8427SOL     OW27177  13.562  11.645   2.950
 8427SOL    HW127178  13.537  11.695   3.028
 8427SOL    HW227179  13.657  11.641   2.953
 8428SOL     OW27180  11.984   1.012  12.218
 8428SOL    HW127181  11.921   0.970  12.276
 8428SOL    HW227182  11.954   1.102  12.210
 8429SOL     OW27183   0.768  14.670  12.751
 8429SOL    HW127184   0.850  14.655  12.799
 8429SOL    HW227185   0.787  14.640  12.662
 8430SOL     OW27186   5.220   4.621   7.868
 8430SOL    HW127187   5.212   4.584   7.956
 8430SOL    HW227188   5.251   4.548   7.814
 8431SOL     OW27189   1.259   6.439   5.709
 8431SOL    HW127190   1.232   6.448   5.617
 8431SOL    HW227191   1.301   6.522   5.730
 8432SOL     OW27192  10.625   8.394  12.829
 8432SOL    HW127193  10.532   8.392  12.804
 8432SOL    HW227194  10.625   8.424  12.920
 8433SOL     OW27195   6.326   4.142   2.480
 8433SOL    HW127196   6.391   4.196   2.524
 8433SOL    HW227197   6.263   4.119   2.549
 8434SOL     OW27198   7.041  14.235   8.265
 8434SOL    HW127199   7.009  14.298   8.200
 8434SOL    HW227200   6.990  14.156   8.249
 8435SOL     OW27201  12.343  13.637   3.051
 8435SOL    HW127202  12.326  13.683   3.133
 8435SOL    HW227203  12.272  13.664   2.993
 8436SOL     OW27204  10.166   6.178  11.253
 8436SOL    HW127205  10.141   6.147  11.166
 8436SOL    HW227206  10.084   6.211  11.291
 8437SOL     OW27207  12.508  11.119   9.338
 8437SOL    HW127208  12.589  11.156   9.373
 8437SOL    HW227209  12.446  11.123   9.411
 8438SOL     OW27210  12.379   1.959   5.032
 8438SOL    HW127211  12.414   1.991   5.116
 8438SOL    HW227212  12.300   1.911   5.055
 8439SOL     OW27213  11.312   1.670  11.819
 8439SOL    HW127214  11.230   1.702  11.783
 8439SOL    HW227215  11.362   1.749  11.840
 8440SOL     OW27216  11.690   9.418   9.199
 8440SOL    HW127217  11.731   9.418   9.286
 8440SOL    HW227218  11.622   9.351   9.206
 8441SOL     OW27219   9.989   5.637  10.666
 8441SOL    HW127220   9.905   5.682  10.659
 8441SOL    HW227221   9.979   5.559  10.612
 8442SOL     OW27222   6.014  13.060   2.641
 8442SOL    HW127223   5.986  13.072   2.732
 8442SOL    HW227224   6.024  13.149   2.607
 8443SOL     OW27225  11.304   8.990   0.708
 8443SOL    HW127226  11.388   8.949   0.726
 8443SOL    HW227227  11.317   9.037   0.626
 8444SOL     OW27228  12.942   9.034   5.004
 8444SOL    HW127229  12.952   8.940   5.018
 8444SOL    HW227230  13.017   9.057   4.948
 8445SOL     OW27231  14.693   4.599  10.716
 8445SOL    HW127232  14.639   4.655  10.771
 8445SOL    HW227233  14.759   4.564  10.776
 8446SOL     OW27234   3.768   5.953   2.049
 8446SOL    HW127235   3.811   5.869   2.038
 8446SOL    HW227236   3.840   6.015   2.065
 8447SOL     OW27237   9.171   3.192   2.740
 8447SOL    HW127238   9.260   3.218   2.718
 8447SOL    HW227239   9.180   3.135   2.817
 8448SOL     OW27240   4.988   2.187   2.405
 8448SOL    HW127241   4.976   2.270   2.451
 8448SOL    HW227242   5.022   2.212   2.319
 8449SOL     OW27243   5.651   5.099  12.094
 8449SOL    HW127244   5.593   5.047  12.038
 8449SOL    HW227245   5.598   5.119  12.171
 8450SOL     OW27246   4.538   7.847   3.633
 8450SOL    HW127247   4.496   7.776   3.584
 8450SOL    HW227248   4.561   7.912   3.566
 8451SOL     OW27249  12.979  12.104   9.245
 8451SOL    HW127250  13.044  12.173   9.235
 8451SOL    HW227251  12.902  12.137   9.199
 8452SOL     OW27252  12.020   3.347   3.773
 8452SOL    HW127253  12.026   3.279   3.841
 8452SOL    HW227254  11.998   3.298   3.694
 8453SOL     OW27255   0.370  10.124   7.061
 8453SOL    HW127256   0.371  10.109   7.155
 8453SOL    HW227257   0.412  10.209   7.050
 8454SOL     OW27258  14.341   4.048  11.577
 8454SOL    HW127259  14.261   4.020  11.622
 8454SOL    HW227260  14.353   4.139  11.604
 8455SOL     OW27261   7.262   5.121   4.034
 8455SOL    HW127262   7.206   5.132   3.957
 8455SOL    HW227263   7.351   5.128   3.999
 8456SOL     OW27264   1.348  12.832   7.074
 8456SOL    HW127265   1.289  12.760   7.053
 8456SOL    HW227266   1.339  12.842   7.169
 8457SOL     OW27267  12.204   4.404   3.724
 8457SOL    HW127268  12.192   4.407   3.819
 8457SOL    HW227269  12.285   4.354   3.712
 8458SOL     OW27270   4.973   0.190  12.398
 8458SOL    HW127271   4.925   0.180  12.480
 8458SOL    HW227272   4.960   0.282  12.374
 8459SOL     OW27273   1.364   9.951  13.036
 8459SOL    HW127274   1.444   9.984  13.076
 8459SOL    HW227275   1.294   9.992  13.087
 8460SOL     OW27276   6.659   8.349   2.867
 8460SOL    HW127277   6.583   8.402   2.893
 8460SOL    HW227278   6.653   8.343   2.772
 8461SOL     OW27279   3.846  11.363  10.083
 8461SOL    HW127280   3.858  11.436  10.143
 8461SOL    HW227281   3.919  11.368  10.022
 8462SOL     OW27282  14.285   9.279   6.289
 8462SOL    HW127283  14.299   9.336   6.365
 8462SOL    HW227284  14.199   9.240   6.304
 8463SOL     OW27285   4.338   5.920   4.616
 8463SOL    HW127286   4.399   5.919   4.690
 8463SOL    HW227287   4.303   6.009   4.616
 8464SOL     OW27288   7.406   4.781   5.112
 8464SOL    HW127289   7.411   4.873   5.085
 8464SOL    HW227290   7.331   4.777   5.171
 8465SOL     OW27291   7.518  10.982   0.726
 8465SOL    HW127292   7.553  10.988   0.815
 8465SOL    HW227293   7.512  10.888   0.709
 8466SOL     OW27294  10.799   3.174   5.935
 8466SOL    HW127295  10.713   3.180   5.978
 8466SOL    HW227296  10.815   3.263   5.903
 8467SOL     OW27297  11.760   3.420   4.548
 8467SOL    HW127298  11.685   3.364   4.568
 8467SOL    HW227299  11.730   3.509   4.565
 8468SOL     OW27300  12.257   3.346   4.686
 8468SOL    HW127301  12.171   3.345   4.645
 8468SOL    HW227302  12.306   3.277   4.641
 8469SOL     OW27303  12.988   0.709   1.072
 8469SOL    HW127304  12.959   0.664   1.152
 8469SOL    HW227305  12.908   0.744   1.034
 8470SOL     OW27306   3.695   6.850  11.832
 8470SOL    HW127307   3.757   6.910  11.791
 8470SOL    HW227308   3.741   6.766  11.834
 8471SOL     OW27309   2.606   8.622   8.378
 8471SOL    HW127310   2.563   8.696   8.336
 8471SOL    HW227311   2.698   8.632   8.355
 8472SOL     OW27312   2.946   4.980   5.669
 8472SOL    HW127313   2.903   5.035   5.735
 8472SOL    HW227314   2.952   5.035   5.591
 8473SOL     OW27315   6.485  10.592  13.192
 8473SOL    HW127316   6.440  10.675  13.210
 8473SOL    HW227317   6.521  10.565  13.276
 8474SOL     OW27318   5.971  14.531  14.842
 8474SOL    HW127319   5.945  14.535   0.059
 8474SOL    HW227320   6.024  14.451  14.835
 8475SOL     OW27321   2.299   8.896   2.961
 8475SOL    HW127322   2.271   8.938   3.043
 8475SOL    HW227323   2.271   8.957   2.893
 8476SOL     OW27324  13.585   9.980  13.998
 8476SOL    HW127325  13.572   9.923  14.073
 8476SOL    HW227326  13.501  10.026  13.988
 8477SOL     OW27327  11.633  13.755   3.694
 8477SOL    HW127328  11.704  13.798   3.645
 8477SOL    HW227329  11.554  13.802   3.667
 8478SOL     OW27330   8.447   1.255   1.975
 8478SOL    HW127331   8.413   1.282   1.889
 8478SOL    HW227332   8.374   1.270   2.035
 8479SOL     OW27333   0.196   8.006   2.217
 8479SOL    HW127334   0.170   7.979   2.305
 8479SOL    HW227335   0.129   7.970   2.160
 8480SOL     OW27336   1.229   2.696   2.310
 8480SOL    HW127337   1.156   2.737   2.356
 8480SOL    HW227338   1.281   2.770   2.277
 8481SOL     OW27339   6.208   9.309   2.192
 8481SOL    HW127340   6.248   9.385   2.234
 8481SOL    HW227341   6.146   9.275   2.256
 8482SOL     OW27342   4.383   6.822  13.249
 8482SOL    HW127343   4.424   6.870  13.177
 8482SOL    HW227344   4.289   6.839  13.238
 8483SOL     OW27345   9.612   9.915   2.452
 8483SOL    HW127346   9.550   9.969   2.500
 8483SOL    HW227347   9.586   9.923   2.360
 8484SOL     OW27348   6.863   3.606   1.299
 8484SOL    HW127349   6.825   3.527   1.337
 8484SOL    HW227350   6.846   3.597   1.205
 8485SOL     OW27351   8.052   6.140  14.301
 8485SOL    HW127352   7.991   6.140  14.227
 8485SOL    HW227353   8.134   6.108  14.264
 8486SOL     OW27354  14.772  12.665  13.168
 8486SOL    HW127355  14.858  12.648  13.207
 8486SOL    HW227356  14.789  12.734  13.104
 8487SOL     OW27357   5.120  10.659   0.218
 8487SOL    HW127358   5.104  10.738   0.167
 8487SOL    HW227359   5.091  10.681   0.307
 8488SOL     OW27360  14.150  12.560   6.319
 8488SOL    HW127361  14.138  12.531   6.229
 8488SOL    HW227362  14.204  12.638   6.312
 8489SOL     OW27363   7.493   7.428   3.459
 8489SOL    HW127364   7.568   7.460   3.509
 8489SOL    HW227365   7.505   7.464   3.371
 8490SOL     OW27366   6.307   5.164   9.184
 8490SOL    HW127367   6.278   5.082   9.145
 8490SOL    HW227368   6.337   5.217   9.111
 8491SOL     OW27369   7.514   2.261   6.660
 8491SOL    HW127370   7.607   2.242   6.674
 8491SOL    HW227371   7.500   2.242   6.567
 8492SOL     OW27372   2.476   8.489   0.524
 8492SOL    HW127373   2.466   8.421   0.591
 8492SOL    HW227374   2.452   8.446   0.442
 8493SOL     OW27375   7.082  11.219   7.617
 8493SOL    HW127376   7.148  11.162   7.576
 8493SOL    HW227377   7.093  11.203   7.711
 8494SOL     OW27378   2.880  11.977  10.409
 8494SOL    HW127379   2.951  11.995  10.470
 8494SOL    HW227380   2.814  11.932  10.462
 8495SOL     OW27381   0.818  14.800   3.164
 8495SOL    HW127382   0.838   0.014   3.193
 8495SOL    HW227383   0.848  14.798   3.073
 8496SOL     OW27384   1.752   4.318   0.103
 8496SOL    HW127385   1.694   4.253   0.145
 8496SOL    HW227386   1.692   4.380   0.062
 8497SOL     OW27387  10.259  10.271   2.344
 8497SOL    HW127388  10.350  10.271   2.317
 8497SOL    HW227389  10.248  10.351   2.396
 8498SOL     OW27390  14.532  13.030   9.070
 8498SOL    HW127391  14.477  13.089   9.120
 8498SOL    HW227392  14.622  13.053   9.096
 8499SOL     OW27393  12.818  14.783   5.528
 8499SOL    HW127394  12.892  14.764   5.470
 8499SOL    HW227395  12.856  14.836   5.599
 8500SOL     OW27396  12.290   3.547   9.159
 8500SOL    HW127397  12.230   3.473   9.155
 8500SOL    HW227398  12.251   3.606   9.224
 8501SOL     OW27399   0.340   4.060  14.423
 8501SOL    HW127400   0.269   3.997  14.438
 8501SOL    HW227401   0.420   4.007  14.422
 8502SOL     OW27402  13.388  11.154  10.004
 8502SOL    HW127403  13.400  11.164   9.910
 8502SOL    HW227404  13.296  11.177  10.019
 8503SOL     OW27405   9.770   2.244   7.903
 8503SOL    HW127406   9.836   2.313   7.918
 8503SOL    HW227407   9.817   2.162   7.918
 8504SOL     OW27408  12.317   0.441   1.620
 8504SOL    HW127409  12.364   0.443   1.537
 8504SOL    HW227410  12.315   0.349   1.645
 8505SOL     OW27411   5.533   5.607   7.135
 8505SOL    HW127412   5.504   5.539   7.196
 8505SOL    HW227413   5.629   5.607   7.144
 8506SOL     OW27414   9.515   5.846   4.531
 8506SOL    HW127415   9.505   5.786   4.458
 8506SOL    HW227416   9.500   5.792   4.609
 8507SOL     OW27417   3.650   4.574   5.936
 8507SOL    HW127418   3.648   4.609   6.025
 8507SOL    HW227419   3.586   4.503   5.936
 8508SOL     OW27420  12.587   8.119   8.971
 8508SOL    HW127421  12.500   8.146   8.943
 8508SOL    HW227422  12.572   8.047   9.032
 8509SOL     OW27423   0.884   6.303   6.940
 8509SOL    HW127424   0.866   6.250   7.018
 8509SOL    HW227425   0.918   6.386   6.975
 8510SOL     OW27426  10.469   5.916  12.862
 8510SOL    HW127427  10.475   5.922  12.958
 8510SOL    HW227428  10.522   5.839  12.840
 8511SOL     OW27429   5.687  11.058  10.974
 8511SOL    HW127430   5.751  11.094  10.912
 8511SOL    HW227431   5.740  11.025  11.047
 8512SOL     OW27432  13.454   3.766   4.655
 8512SOL    HW127433  13.387   3.834   4.651
 8512SOL    HW227434  13.493   3.775   4.742
 8513SOL     OW27435  10.810  11.534   2.481
 8513SOL    HW127436  10.730  11.490   2.510
 8513SOL    HW227437  10.819  11.509   2.389
 8514SOL     OW27438   7.336   5.190   2.914
 8514SOL    HW127439   7.284   5.137   2.975
 8514SOL    HW227440   7.419   5.144   2.906
 8515SOL     OW27441   9.390   5.466   4.302
 8515SOL    HW127442   9.477   5.502   4.316
 8515SOL    HW227443   9.403   5.394   4.239
 8516SOL     OW27444   4.014   7.960   4.205
 8516SOL    HW127445   4.101   7.972   4.244
 8516SOL    HW227446   3.992   8.046   4.169
 8517SOL     OW27447  11.969   0.245   0.122
 8517SOL    HW127448  12.016   0.272   0.042
 8517SOL    HW227449  12.000   0.306   0.189
 8518SOL     OW27450   4.322  14.703   7.969
 8518SOL    HW127451   4.320  14.790   7.929
 8518SOL    HW227452   4.403  14.701   8.020
 8519SOL     OW27453  14.537   3.048   3.999
 8519SOL    HW127454  14.508   3.139   3.993
 8519SOL    HW227455  14.460   3.000   4.027
 8520SOL     OW27456  12.447   3.338   3.931
 8520SOL    HW127457  12.393   3.263   3.905
 8520SOL    HW227458  12.393   3.384   3.995
 8521SOL     OW27459   1.312   9.335   2.658
 8521SOL    HW127460   1.380   9.396   2.684
 8521SOL    HW227461   1.256   9.326   2.735
 8522SOL     OW27462  12.719  13.903   4.754
 8522SOL    HW127463  12.710  13.894   4.659
 8522SOL    HW227464  12.729  13.997   4.768
 8523SOL     OW27465   7.900  14.691   6.051
 8523SOL    HW127466   7.873  14.612   6.005
 8523SOL    HW227467   7.932  14.749   5.981
 8524SOL     OW27468  12.754   0.512   4.047
 8524SOL    HW127469  12.736   0.606   4.050
 8524SOL    HW227470  12.717   0.484   3.963
 8525SOL     OW27471  13.284   6.752   4.653
 8525SOL    HW127472  13.366   6.767   4.606
 8525SOL    HW227473  13.305   6.769   4.745
 8526SOL     OW27474   6.492  11.739  12.411
 8526SOL    HW127475   6.493  11.659  12.359
 8526SOL    HW227476   6.434  11.799  12.365
 8527SOL     OW27477  11.630   4.378   3.659
 8527SOL    HW127478  11.671   4.352   3.577
 8527SOL    HW227479  11.536   4.371   3.643
 8528SOL     OW27480   3.037  14.145   7.494
 8528SOL    HW127481   3.003  14.112   7.411
 8528SOL    HW227482   3.071  14.232   7.474
 8529SOL     OW27483   2.829  12.629  13.905
 8529SOL    HW127484   2.786  12.706  13.867
 8529SOL    HW227485   2.786  12.554  13.864
 8530SOL     OW27486   6.524   8.316   8.075
 8530SOL    HW127487   6.499   8.351   7.989
 8530SOL    HW227488   6.619   8.303   8.069
 8531SOL     OW27489  10.006   0.033  10.690
 8531SOL    HW127490  10.043  14.838  10.743
 8531SOL    HW227491  10.022   0.005  10.600
 8532SOL     OW27492   6.424   6.534   5.726
 8532SOL    HW127493   6.512   6.541   5.688
 8532SOL    HW227494   6.437   6.548   5.819
 8533SOL     OW27495  10.985   1.341   0.593
 8533SOL    HW127496  11.009   1.319   0.503
 8533SOL    HW227497  10.961   1.433   0.590
 8534SOL     OW27498  12.736   4.151   8.525
 8534SOL    HW127499  12.815   4.098   8.516
 8534SOL    HW227500  12.672   4.108   8.468
 8535SOL     OW27501  14.609   8.343   3.360
 8535SOL    HW127502  14.585   8.262   3.314
 8535SOL    HW227503  14.526   8.376   3.395
 8536SOL     OW27504   9.825   1.640   4.059
 8536SOL    HW127505   9.769   1.706   4.101
 8536SOL    HW227506   9.813   1.655   3.965
 8537SOL     OW27507  11.011  13.544   6.672
 8537SOL    HW127508  11.044  13.463   6.632
 8537SOL    HW227509  10.925  13.520   6.708
 8538SOL     OW27510   8.855   2.210   1.712
 8538SOL    HW127511   8.858   2.117   1.737
 8538SOL    HW227512   8.777   2.218   1.658
 8539SOL     OW27513  12.165   9.647  11.779
 8539SOL    HW127514  12.113   9.634  11.700
 8539SOL    HW227515  12.102   9.639  11.851
 8540SOL     OW27516   6.887   7.774  14.376
 8540SOL    HW127517   6.884   7.869  14.370
 8540SOL    HW227518   6.958   7.748  14.317
 8541SOL     OW27519  13.544  10.010  12.468
 8541SOL    HW127520  13.567  10.075  12.403
 8541SOL    HW227521  13.450   9.995  12.455
 8542SOL     OW27522   0.365   3.014   1.268
 8542SOL    HW127523   0.304   3.071   1.221
 8542SOL    HW227524   0.441   3.007   1.209
 8543SOL     OW27525   2.391   1.101  10.972
 8543SOL    HW127526   2.302   1.137  10.969
 8543SOL    HW227527   2.442   1.168  11.017
 8544SOL     OW27528  12.873   0.320   1.634
 8544SOL    HW127529  12.797   0.347   1.685
 8544SOL    HW227530  12.837   0.299   1.547
 8545SOL     OW27531   6.903   4.322   6.943
 8545SOL    HW127532   6.916   4.232   6.971
 8545SOL    HW227533   6.830   4.317   6.881
 8546SOL     OW27534   1.191  12.937   2.368
 8546SOL    HW127535   1.096  12.926   2.365
 8546SOL    HW227536   1.221  12.907   2.282
 8547SOL     OW27537   5.623   1.882  10.859
 8547SOL    HW127538   5.654   1.799  10.895
 8547SOL    HW227539   5.545   1.903  10.911
 8548SOL     OW27540  14.755  10.665   4.988
 8548SOL    HW127541  14.713  10.587   4.950
 8548SOL    HW227542  14.820  10.629   5.049
 8549SOL     OW27543   8.051   3.696  11.583
 8549SOL    HW127544   7.970   3.644  11.588
 8549SOL    HW227545   8.075   3.712  11.674
 8550SOL     OW27546   5.635   9.060  12.305
 8550SOL    HW127547   5.639   9.046  12.400
 8550SOL    HW227548   5.724   9.045  12.274
 8551SOL     OW27549  12.188   9.065   3.373
 8551SOL    HW127550  12.242   8.996   3.335
 8551SOL    HW227551  12.137   9.098   3.299
 8552SOL     OW27552   1.116   3.157  13.260
 8552SOL    HW127553   1.125   3.217  13.334
 8552SOL    HW227554   1.047   3.096  13.287
 8553SOL     OW27555   7.261  12.847   3.569
 8553SOL    HW127556   7.181  12.821   3.616
 8553SOL    HW227557   7.267  12.941   3.586
 8554SOL     OW27558   0.856   0.004   1.963
 8554SOL    HW127559   0.796   0.065   1.920
 8554SOL    HW227560   0.912  14.847   1.893
 8555SOL     OW27561   8.777  14.105   5.673
 8555SOL    HW127562   8.810  14.192   5.697
 8555SOL    HW227563   8.814  14.088   5.586
 8556SOL     OW27564   3.851   5.909  12.932
 8556SOL    HW127565   3.774   5.953  12.896
 8556SOL    HW227566   3.827   5.888  13.023
 8557SOL     OW27567  11.912   0.208   7.599
 8557SOL    HW127568  11.908   0.303   7.583
 8557SOL    HW227569  11.861   0.170   7.527
 8558SOL     OW27570   9.778   7.710  11.148
 8558SOL    HW127571   9.716   7.637  11.151
 8558SOL    HW227572   9.728   7.786  11.177
 8559SOL     OW27573   7.585   7.063   8.790
 8559SOL    HW127574   7.542   7.029   8.868
 8559SOL    HW227575   7.677   7.072   8.815
 8560SOL     OW27576   2.444   4.098  12.777
 8560SOL    HW127577   2.429   4.043  12.854
 8560SOL    HW227578   2.372   4.161  12.779
 8561SOL     OW27579  12.455   9.207   0.173
 8561SOL    HW127580  12.451   9.257   0.255
 8561SOL    HW227581  12.535   9.238   0.130
 8562SOL     OW27582  14.134   7.204   6.400
 8562SOL    HW127583  14.228   7.205   6.418
 8562SOL    HW227584  14.114   7.294   6.374
 8563SOL     OW27585   5.828   6.200  12.713
 8563SOL    HW127586   5.798   6.245  12.635
 8563SOL    HW227587   5.760   6.136  12.732
 8564SOL     OW27588   3.430   7.328  13.000
 8564SOL    HW127589   3.368   7.263  12.966
 8564SOL    HW227590   3.437   7.393  12.930
 8565SOL     OW27591  12.418   7.157  10.319
 8565SOL    HW127592  12.401   7.126  10.408
 8565SOL    HW227593  12.372   7.240  10.313
 8566SOL     OW27594   4.138   5.339   1.619
 8566SOL    HW127595   4.046   5.361   1.633
 8566SOL    HW227596   4.158   5.272   1.685
 8567SOL     OW27597   3.900   1.070   7.958
 8567SOL    HW127598   3.821   1.026   7.990
 8567SOL    HW227599   3.965   1.001   7.951
 8568SOL     OW27600  12.857  13.485  13.198
 8568SOL    HW127601  12.890  13.451  13.115
 8568SOL    HW227602  12.875  13.416  13.262
 8569SOL     OW27603   7.572   1.039   8.583
 8569SOL    HW127604   7.653   1.025   8.534
 8569SOL    HW227605   7.549   0.953   8.617
 8570SOL     OW27606   6.701   0.371   3.289
 8570SOL    HW127607   6.718   0.458   3.324
 8570SOL    HW227608   6.610   0.374   3.260
 8571SOL     OW27609  10.183  13.477   2.040
 8571SOL    HW127610  10.197  13.412   1.971
 8571SOL    HW227611  10.102  13.449   2.082
 8572SOL     OW27612   1.069  13.416   5.408
 8572SOL    HW127613   1.128  13.484   5.441
 8572SOL    HW227614   1.111  13.333   5.433
 8573SOL     OW27615  12.632   9.156   6.452
 8573SOL    HW127616  12.726   9.159   6.434
 8573SOL    HW227617  12.603   9.071   6.420
 8574SOL     OW27618   7.840   0.414   3.851
 8574SOL    HW127619   7.877   0.326   3.855
 8574SOL    HW227620   7.866   0.447   3.765
 8575SOL     OW27621  13.969   2.980   2.940
 8575SOL    HW127622  13.957   2.999   3.033
 8575SOL    HW227623  13.900   3.032   2.897
 8576SOL     OW27624  14.472   4.651   6.382
 8576SOL    HW127625  14.511   4.566   6.358
 8576SOL    HW227626  14.489   4.707   6.306
 8577SOL     OW27627   5.821  14.709   1.953
 8577SOL    HW127628   5.791  14.795   1.984
 8577SOL    HW227629   5.748  14.650   1.970
 8578SOL     OW27630   7.977  10.884   8.988
 8578SOL    HW127631   7.949  10.959   8.935
 8578SOL    HW227632   7.965  10.809   8.931
 8579SOL     OW27633   4.845  12.121  13.150
 8579SOL    HW127634   4.849  12.034  13.110
 8579SOL    HW227635   4.800  12.107  13.233
 8580SOL     OW27636   0.293  12.418  10.987
 8580SOL    HW127637   0.321  12.328  10.976
 8580SOL    HW227638   0.311  12.438  11.079
 8581SOL     OW27639   6.435   2.224  12.102
 8581SOL    HW127640   6.411   2.263  12.018
 8581SOL    HW227641   6.409   2.289  12.168
 8582SOL     OW27642  11.923   3.438   2.993
 8582SOL    HW127643  11.899   3.509   3.052
 8582SOL    HW227644  11.994   3.474   2.940
 8583SOL     OW27645  11.904   5.249   2.456
 8583SOL    HW127646  11.879   5.264   2.364
 8583SOL    HW227647  11.879   5.330   2.501
 8584SOL     OW27648   8.158   4.115   7.760
 8584SOL    HW127649   8.121   4.055   7.825
 8584SOL    HW227650   8.252   4.101   7.765
 8585SOL     OW27651   4.453   8.886  14.582
 8585SOL    HW127652   4.412   8.973  14.591
 8585SOL    HW227653   4.417   8.835  14.655
 8586SOL     OW27654   9.134   2.333   9.280
 8586SOL    HW127655   9.067   2.335   9.349
 8586SOL    HW227656   9.217   2.342   9.327
 8587SOL     OW27657   1.803   7.140  10.955
 8587SOL    HW127658   1.885   7.189  10.952
 8587SOL    HW227659   1.830   7.048  10.958
 8588SOL     OW27660   6.247  13.809   1.835
 8588SOL    HW127661   6.176  13.867   1.863
 8588SOL    HW227662   6.286  13.778   1.917
 8589SOL     OW27663   6.019   9.637   0.315
 8589SOL    HW127664   6.062   9.695   0.252
 8589SOL    HW227665   6.002   9.692   0.391
 8590SOL     OW27666   2.464   3.807  11.168
 8590SOL    HW127667   2.483   3.727  11.119
 8590SOL    HW227668   2.387   3.844  11.126
 8591SOL     OW27669  13.564   4.296   9.143
 8591SOL    HW127670  13.578   4.344   9.225
 8591SOL    HW227671  13.469   4.294   9.132
 8592SOL     OW27672   1.559   5.811  13.756
 8592SOL    HW127673   1.615   5.747  13.799
 8592SOL    HW227674   1.472   5.795  13.792
 8593SOL     OW27675   7.271   0.843  10.615
 8593SOL    HW127676   7.290   0.755  10.649
 8593SOL    HW227677   7.208   0.827  10.544
 8594SOL     OW27678   4.271  11.289   7.625
 8594SOL    HW127679   4.227  11.279   7.541
 8594SOL    HW227680   4.225  11.228   7.684
 8595SOL     OW27681   7.652   2.144   9.836
 8595SOL    HW127682   7.673   2.060   9.877
 8595SOL    HW227683   7.580   2.123   9.776
 8596SOL     OW27684  12.179   6.189   1.863
 8596SOL    HW127685  12.254   6.163   1.809
 8596SOL    HW227686  12.106   6.192   1.801
 8597SOL     OW27687   9.220  14.579  11.926
 8597SOL    HW127688   9.266  14.505  11.887
 8597SOL    HW227689   9.128  14.553  11.927
 8598SOL     OW27690   4.052  11.706   7.672
 8598SOL    HW127691   4.105  11.767   7.724
 8598SOL    HW227692   4.115  11.642   7.637
 8599SOL     OW27693  10.487   3.375   8.035
 8599SOL    HW127694  10.502   3.375   8.130
 8599SOL    HW227695  10.394   3.396   8.026
 8600SOL     OW27696   1.412  13.308   8.663
 8600SOL    HW127697   1.465  13.375   8.707
 8600SOL    HW227698   1.476  13.241   8.638
 8601SOL     OW27699   7.297   2.308  12.967
 8601SOL    HW127700   7.305   2.343  13.055
 8601SOL    HW227701   7.262   2.381  12.915
 8602SOL     OW27702   9.502   0.445   3.475
 8602SOL    HW127703   9.588   0.456   3.516
 8602SOL    HW227704   9.470   0.534   3.461
 8603SOL     OW27705   5.816   2.184   5.780
 8603SOL    HW127706   5.795   2.243   5.707
 8603SOL    HW227707   5.767   2.220   5.854
 8604SOL     OW27708   0.297   1.880   1.131
 8604SOL    HW127709   0.336   1.953   1.083
 8604SOL    HW227710   0.370   1.843   1.180
 8605SOL     OW27711   5.968   0.930  12.180
 8605SOL    HW127712   6.058   0.956  12.161
 8605SOL    HW227713   5.944   0.980  12.258
 8606SOL     OW27714   5.124   1.222   6.394
 8606SOL    HW127715   5.150   1.314   6.388
 8606SOL    HW227716   5.056   1.220   6.461
 8607SOL     OW27717   0.619   3.271   2.713
 8607SOL    HW127718   0.581   3.206   2.772
 8607SOL    HW227719   0.712   3.248   2.708
 8608SOL     OW27720   4.818   1.171   9.584
 8608SOL    HW127721   4.759   1.101   9.556
 8608SOL    HW227722   4.808   1.239   9.517
 8609SOL     OW27723  13.691   2.773   7.286
 8609SOL    HW127724  13.673   2.814   7.370
 8609SOL    HW227725  13.672   2.680   7.300
 8610SOL     OW27726  10.906   3.605  14.443
 8610SOL    HW127727  10.982   3.552  14.419
 8610SOL    HW227728  10.848   3.599  14.367
 8611SOL     OW27729  11.839   0.572   6.371
 8611SOL    HW127730  11.752   0.602   6.399
 8611SOL    HW227731  11.876   0.529   6.448
 8612SOL     OW27732   9.020   9.869   9.163
 8612SOL    HW127733   9.079   9.918   9.105
 8612SOL    HW227734   9.039   9.903   9.250
 8613SOL     OW27735   0.469   4.431   8.946
 8613SOL    HW127736   0.380   4.395   8.946
 8613SOL    HW227737   0.487   4.448   9.039
 8614SOL     OW27738   2.142   4.920   9.041
 8614SOL    HW127739   2.071   4.930   8.978
 8614SOL    HW227740   2.178   4.833   9.024
 8615SOL     OW27741  14.752   8.186   5.604
 8615SOL    HW127742  14.781   8.242   5.532
 8615SOL    HW227743  14.656   8.194   5.603
 8616SOL     OW27744  10.843   1.865   1.835
 8616SOL    HW127745  10.911   1.814   1.879
 8616SOL    HW227746  10.786   1.800   1.795
 8617SOL     OW27747   5.093   9.050   4.143
 8617SOL    HW127748   5.127   9.103   4.070
 8617SOL    HW227749   5.001   9.036   4.122
 8618SOL     OW27750  12.909   5.323  11.487
 8618SOL    HW127751  12.918   5.351  11.579
 8618SOL    HW227752  12.828   5.272  11.486
 8619SOL     OW27753   9.829   3.707  11.454
 8619SOL    HW127754   9.857   3.790  11.413
 8619SOL    HW227755   9.756   3.732  11.510
 8620SOL     OW27756  13.566  13.482   7.271
 8620SOL    HW127757  13.586  13.572   7.295
 8620SOL    HW227758  13.635  13.458   7.209
 8621SOL     OW27759   3.205  11.124   1.843
 8621SOL    HW127760   3.165  11.058   1.786
 8621SOL    HW227761   3.173  11.207   1.808
 8622SOL     OW27762  13.923   7.879   9.500
 8622SOL    HW127763  13.916   7.791   9.537
 8622SOL    HW227764  13.858   7.930   9.547
 8623SOL     OW27765  12.954   9.786   8.563
 8623SOL    HW127766  12.998   9.770   8.479
 8623SOL    HW227767  12.953   9.881   8.572
 8624SOL     OW27768  13.326  14.575  11.145
 8624SOL    HW127769  13.341  14.583  11.050
 8624SOL    HW227770  13.304  14.664  11.172
 8625SOL     OW27771   2.445  10.915   2.280
 8625SOL    HW127772   2.492  10.849   2.330
 8625SOL    HW227773   2.369  10.869   2.244
 8626SOL     OW27774   8.521   3.636   1.240
 8626SOL    HW127775   8.433   3.651   1.274
 8626SOL    HW227776   8.560   3.574   1.302
 8627SOL     OW27777   5.533   7.190   0.638
 8627SOL    HW127778   5.625   7.168   0.628
 8627SOL    HW227779   5.532   7.265   0.699
 8628SOL     OW27780   5.624   7.802   1.381
 8628SOL    HW127781   5.695   7.819   1.443
 8628SOL    HW227782   5.650   7.721   1.337
 8629SOL     OW27783   9.624   4.963   3.649
 8629SOL    HW127784   9.534   4.933   3.648
 8629SOL    HW227785   9.632   5.012   3.732
 8630SOL     OW27786   6.448   9.948   4.049
 8630SOL    HW127787   6.538   9.928   4.074
 8630SOL    HW227788   6.447   9.936   3.954
 8631SOL     OW27789   1.332   9.124   1.689
 8631SOL    HW127790   1.332   9.080   1.774
 8631SOL    HW227791   1.383   9.204   1.704
 8632SOL     OW27792   1.581  14.433  14.320
 8632SOL    HW127793   1.569  14.374  14.395
 8632SOL    HW227794   1.634  14.383  14.258
 8633SOL     OW27795   0.846   0.235   0.087
 8633SOL    HW127796   0.917   0.293   0.061
 8633SOL    HW227797   0.774   0.256   0.028
 8634SOL     OW27798   0.811   2.896   9.150
 8634SOL    HW127799   0.866   2.842   9.093
 8634SOL    HW227800   0.724   2.890   9.112
 8635SOL     OW27801  12.858  14.491   5.155
 8635SOL    HW127802  12.797  14.473   5.227
 8635SOL    HW227803  12.920  14.419   5.158
 8636SOL     OW27804   9.959   0.727   7.539
 8636SOL    HW127805   9.940   0.806   7.589
 8636SOL    HW227806   9.988   0.664   7.605
 8637SOL     OW27807  13.001   9.281   8.527
 8637SOL    HW127808  12.933   9.225   8.489
 8637SOL    HW227809  13.082   9.229   8.516
 8638SOL     OW27810   2.389   8.563  10.660
 8638SOL    HW127811   2.333   8.635  10.690
 8638SOL    HW227812   2.428   8.595  10.579
 8639SOL     OW27813   8.919   8.115   7.764
 8639SOL    HW127814   8.939   8.023   7.748
 8639SOL    HW227815   9.003   8.160   7.755
 8640SOL     OW27816   9.189   7.847  12.298
 8640SOL    HW127817   9.222   7.773  12.348
 8640SOL    HW227818   9.140   7.899  12.362
 8641SOL     OW27819   4.683   5.816   6.851
 8641SOL    HW127820   4.718   5.766   6.924
 8641SOL    HW227821   4.610   5.764   6.819
 8642SOL     OW27822   8.661   0.417   9.004
 8642SOL    HW127823   8.755   0.399   8.993
 8642SOL    HW227824   8.655   0.513   9.000
 8643SOL     OW27825  10.511   7.800   7.551
 8643SOL    HW127826  10.602   7.778   7.574
 8643SOL    HW227827  10.460   7.770   7.626
 8644SOL     OW27828   9.950   9.117   4.601
 8644SOL    HW127829   9.954   9.042   4.542
 8644SOL    HW227830   9.882   9.174   4.564
 8645SOL     OW27831   8.879  11.694   0.720
 8645SOL    HW127832   8.883  11.661   0.810
 8645SOL    HW227833   8.876  11.615   0.666
 8646SOL     OW27834  10.304  12.864   3.422
 8646SOL    HW127835  10.326  12.954   3.447
 8646SOL    HW227836  10.308  12.815   3.504
 8647SOL     OW27837  12.330   6.721   4.844
 8647SOL    HW127838  12.268   6.678   4.785
 8647SOL    HW227839  12.400   6.657   4.856
 8648SOL     OW27840   4.981  12.206   7.250
 8648SOL    HW127841   4.977  12.136   7.185
 8648SOL    HW227842   5.047  12.266   7.217
 8649SOL     OW27843   9.169   9.060   4.975
 8649SOL    HW127844   9.162   9.057   4.880
 8649SOL    HW227845   9.141   9.148   4.999
 8650SOL     OW27846   3.881   0.114  14.809
 8650SOL    HW127847   3.936   0.109   0.012
 8650SOL    HW227848   3.820   0.041  14.817
 8651SOL     OW27849   3.723  10.494   8.758
 8651SOL    HW127850   3.712  10.556   8.686
 8651SOL    HW227851   3.735  10.409   8.716
 8652SOL     OW27852   6.554   9.208   2.844
 8652SOL    HW127853   6.649   9.214   2.845
 8652SOL    HW227854   6.531   9.210   2.751
 8653SOL     OW27855  10.745  11.661   4.521
 8653SOL    HW127856  10.819  11.634   4.576
 8653SOL    HW227857  10.775  11.646   4.431
 8654SOL     OW27858   3.620  10.892   9.614
 8654SOL    HW127859   3.698  10.861   9.566
 8654SOL    HW227860   3.624  10.987   9.607
 8655SOL     OW27861  13.349   3.230   4.056
 8655SOL    HW127862  13.279   3.281   4.015
 8655SOL    HW227863  13.314   3.205   4.142
 8656SOL     OW27864   3.502   5.855   3.922
 8656SOL    HW127865   3.530   5.785   3.863
 8656SOL    HW227866   3.580   5.874   3.974
 8657SOL     OW27867   3.491   3.149  10.702
 8657SOL    HW127868   3.464   3.190  10.784
 8657SOL    HW227869   3.424   3.175  10.639
 8658SOL     OW27870   9.412   3.392   1.262
 8658SOL    HW127871   9.360   3.314   1.282
 8658SOL    HW227872   9.502   3.360   1.257
 8659SOL     OW27873   9.537   3.198   7.831
 8659SOL    HW127874   9.486   3.119   7.814
 8659SOL    HW227875   9.510   3.259   7.763
 8660SOL     OW27876   8.077   4.526   3.509
 8660SOL    HW127877   8.155   4.484   3.544
 8660SOL    HW227878   8.107   4.572   3.431
 8661SOL     OW27879  10.558   5.531   9.829
 8661SOL    HW127880  10.494   5.585   9.876
 8661SOL    HW227881  10.508   5.455   9.800
 8662SOL     OW27882   2.814   9.199  11.575
 8662SOL    HW127883   2.822   9.194  11.671
 8662SOL    HW227884   2.724   9.230  11.561
 8663SOL     OW27885   0.895  12.006   9.956
 8663SOL    HW127886   0.825  11.949   9.987
 8663SOL    HW227887   0.948  11.950   9.899
 8664SOL     OW27888  12.837   9.195   9.785
 8664SOL    HW127889  12.888   9.118   9.762
 8664SOL    HW227890  12.766   9.161   9.840
 8665SOL     OW27891   1.545   9.646   0.232
 8665SOL    HW127892   1.502   9.585   0.173
 8665SOL    HW227893   1.474   9.695   0.273
 8666SOL     OW27894  11.602  10.297  14.427
 8666SOL    HW127895  11.660  10.363  14.389
 8666SOL    HW227896  11.652  10.262  14.502
 8667SOL     OW27897  10.979  10.451  11.831
 8667SOL    HW127898  11.002  10.535  11.791
 8667SOL    HW227899  10.901  10.423  11.784
 8668SOL     OW27900  13.348   2.526   6.352
 8668SOL    HW127901  13.428   2.476   6.366
 8668SOL    HW227902  13.317   2.498   6.266
 8669SOL     OW27903   5.018   7.827   4.293
 8669SOL    HW127904   4.925   7.814   4.275
 8669SOL    HW227905   5.049   7.742   4.322
 8670SOL     OW27906   8.360   9.903   1.800
 8670SOL    HW127907   8.310   9.841   1.853
 8670SOL    HW227908   8.307   9.982   1.799
 8671SOL     OW27909   4.688   9.875   3.122
 8671SOL    HW127910   4.595   9.850   3.117
 8671SOL    HW227911   4.734   9.807   3.074
 8672SOL     OW27912   4.465   7.235   7.440
 8672SOL    HW127913   4.494   7.144   7.434
 8672SOL    HW227914   4.441   7.246   7.532
 8673SOL     OW27915   3.786   7.558   5.362
 8673SOL    HW127916   3.874   7.566   5.399
 8673SOL    HW227917   3.728   7.567   5.438
 8674SOL     OW27918   3.385   6.244  11.564
 8674SOL    HW127919   3.455   6.210  11.620
 8674SOL    HW227920   3.369   6.173  11.501
 8675SOL     OW27921   0.848   7.386  13.734
 8675SOL    HW127922   0.844   7.348  13.646
 8675SOL    HW227923   0.801   7.324  13.790
 8676SOL     OW27924  10.153   7.223   0.560
 8676SOL    HW127925  10.089   7.287   0.528
 8676SOL    HW227926  10.224   7.277   0.595
 8677SOL     OW27927  14.028   1.297   3.466
 8677SOL    HW127928  13.983   1.361   3.411
 8677SOL    HW227929  14.053   1.345   3.545
 8678SOL     OW27930  11.350   5.153   4.233
 8678SOL    HW127931  11.317   5.138   4.145
 8678SOL    HW227932  11.422   5.090   4.243
 8679SOL     OW27933   0.833   9.520   6.261
 8679SOL    HW127934   0.753   9.490   6.217
 8679SOL    HW227935   0.900   9.514   6.193
 8680SOL     OW27936  11.537   8.886   4.480
 8680SOL    HW127937  11.450   8.897   4.443
 8680SOL    HW227938  11.581   8.824   4.421
 8681SOL     OW27939  10.193   7.738   3.579
 8681SOL    HW127940  10.108   7.720   3.541
 8681SOL    HW227941  10.229   7.808   3.524
 8682SOL     OW27942  14.870   4.249   8.126
 8682SOL    HW127943   0.070   4.282   8.175
 8682SOL    HW227944  14.861   4.158   8.155
 8683SOL     OW27945  10.333   5.657   6.585
 8683SOL    HW127946  10.318   5.592   6.654
 8683SOL    HW227947  10.267   5.637   6.519
 8684SOL     OW27948  14.479   3.199   4.306
 8684SOL    HW127949  14.393   3.182   4.346
 8684SOL    HW227950  14.466   3.278   4.254
 8685SOL     OW27951   5.367   0.265  12.351
 8685SOL    HW127952   5.359   0.172  12.329
 8685SOL    HW227953   5.450   0.272  12.397
 8686SOL     OW27954  12.402  13.406   8.965
 8686SOL    HW127955  12.479  13.365   9.004
 8686SOL    HW227956  12.383  13.480   9.023
 8687SOL     OW27957   0.116  12.211  12.851
 8687SOL    HW127958   0.083  12.254  12.773
 8687SOL    HW227959   0.181  12.149  12.819
 8688SOL     OW27960  10.526   1.032   2.148
 8688SOL    HW127961  10.439   1.039   2.187
 8688SOL    HW227962  10.528   1.101   2.081
 8689SOL     OW27963   9.859   3.825   9.856
 8689SOL    HW127964   9.809   3.808   9.936
 8689SOL    HW227965   9.919   3.751   9.849
 8690SOL     OW27966   1.302   7.677  11.496
 8690SOL    HW127967   1.353   7.596  11.504
 8690SOL    HW227968   1.224   7.651  11.446
 8691SOL     OW27969   8.994   3.957   5.583
 8691SOL    HW127970   9.030   3.981   5.498
 8691SOL    HW227971   9.047   4.005   5.646
 8692SOL     OW27972   7.847   1.224   0.083
 8692SOL    HW127973   7.818   1.172   0.158
 8692SOL    HW227974   7.791   1.195   0.011
 8693SOL     OW27975  13.137   1.981  14.752
 8693SOL    HW127976  13.204   1.922  14.719
 8693SOL    HW227977  13.156   1.989  14.845
 8694SOL     OW27978   9.866   1.766  10.736
 8694SOL    HW127979   9.834   1.852  10.709
 8694SOL    HW227980   9.957   1.764  10.705
 8695SOL     OW27981   4.109   3.655   4.428
 8695SOL    HW127982   4.039   3.677   4.490
 8695SOL    HW227983   4.176   3.722   4.443
 8696SOL     OW27984  14.016  14.564   1.660
 8696SOL    HW127985  14.079  14.534   1.725
 8696SOL    HW227986  13.951  14.495   1.655
 8697SOL     OW27987  14.489  12.413   5.929
 8697SOL    HW127988  14.557  12.454   5.875
 8697SOL    HW227989  14.447  12.350   5.871
 8698SOL     OW27990   3.622  12.122   4.651
 8698SOL    HW127991   3.547  12.101   4.595
 8698SOL    HW227992   3.582  12.156   4.732
 8699SOL     OW27993  14.424  14.564  11.946
 8699SOL    HW127994  14.459  14.485  11.989
 8699SOL    HW227995  14.423  14.542  11.853
 8700SOL     OW27996  13.250   1.751   7.586
 8700SOL    HW127997  13.274   1.810   7.514
 8700SOL    HW227998  13.161   1.723   7.565
 8701SOL     OW27999   6.234   9.979   6.697
 8701SOL    HW128000   6.185   9.993   6.777
 8701SOL    HW228001   6.201  10.046   6.636
 8702SOL     OW28002   6.709  14.408   5.296
 8702SOL    HW128003   6.701  14.316   5.322
 8702SOL    HW228004   6.800  14.417   5.267
 8703SOL     OW28005   8.210   7.421   6.385
 8703SOL    HW128006   8.199   7.373   6.467
 8703SOL    HW228007   8.298   7.459   6.391
 8704SOL     OW28008  10.680  14.473   3.622
 8704SOL    HW128009  10.591  14.490   3.653
 8704SOL    HW228010  10.682  14.508   3.533
 8705SOL     OW28011   7.306   9.836  12.198
 8705SOL    HW128012   7.279   9.783  12.274
 8705SOL    HW228013   7.239   9.819  12.132
 8706SOL     OW28014   5.783   2.558  11.772
 8706SOL    HW128015   5.875   2.567  11.795
 8706SOL    HW228016   5.782   2.498  11.697
 8707SOL     OW28017   3.474  10.668   1.279
 8707SOL    HW128018   3.435  10.643   1.362
 8707SOL    HW228019   3.407  10.722   1.236
 8708SOL     OW28020   0.049   3.627   2.180
 8708SOL    HW128021   0.003   3.551   2.217
 8708SOL    HW228022   0.078   3.597   2.093
 8709SOL     OW28023   9.274   2.486   3.062
 8709SOL    HW128024   9.270   2.582   3.067
 8709SOL    HW228025   9.275   2.467   2.968
 8710SOL     OW28026   3.504   2.903  11.442
 8710SOL    HW128027   3.564   2.938  11.508
 8710SOL    HW228028   3.523   2.955  11.364
 8711SOL     OW28029   3.523   1.016  14.062
 8711SOL    HW128030   3.547   1.034  14.153
 8711SOL    HW228031   3.544   1.098  14.015
 8712SOL     OW28032   6.615   8.615   3.096
 8712SOL    HW128033   6.609   8.702   3.057
 8712SOL    HW228034   6.566   8.559   3.036
 8713SOL     OW28035   1.820  12.363   8.469
 8713SOL    HW128036   1.882  12.309   8.519
 8713SOL    HW228037   1.808  12.441   8.523
 8714SOL     OW28038   2.260  12.791  14.003
 8714SOL    HW128039   2.165  12.781  13.999
 8714SOL    HW228040   2.274  12.885  14.004
 8715SOL     OW28041  14.296  14.861  10.618
 8715SOL    HW128042  14.303   0.077  10.591
 8715SOL    HW228043  14.278  14.865  10.712
 8716SOL     OW28044   6.398   9.817   6.845
 8716SOL    HW128045   6.340   9.851   6.777
 8716SOL    HW228046   6.461   9.887   6.860
 8717SOL     OW28047   5.565   8.816  13.071
 8717SOL    HW128048   5.572   8.909  13.050
 8717SOL    HW228049   5.498   8.812  13.140
 8718SOL     OW28050   5.134  12.821  14.423
 8718SOL    HW128051   5.160  12.872  14.346
 8718SOL    HW228052   5.210  12.824  14.480
 8719SOL     OW28053   7.651   1.351   7.138
 8719SOL    HW128054   7.633   1.277   7.196
 8719SOL    HW228055   7.684   1.419   7.197
 8720SOL     OW28056   7.367  11.873   0.513
 8720SOL    HW128057   7.356  11.968   0.502
 8720SOL    HW228058   7.309  11.834   0.447
 8721SOL     OW28059   5.304  13.686   5.408
 8721SOL    HW128060   5.356  13.610   5.432
 8721SOL    HW228061   5.266  13.715   5.491
 8722SOL     OW28062   1.446   8.827   7.147
 8722SOL    HW128063   1.441   8.776   7.228
 8722SOL    HW228064   1.357   8.824   7.112
 8723SOL     OW28065   3.253  14.814  13.800
 8723SOL    HW128066   3.327  14.764  13.766
 8723SOL    HW228067   3.192  14.820  13.726
 8724SOL     OW28068  10.001   4.273   0.508
 8724SOL    HW128069   9.977   4.257   0.417
 8724SOL    HW228070  10.032   4.364   0.509
 8725SOL     OW28071   4.533   1.719  11.986
 8725SOL    HW128072   4.470   1.771  11.936
 8725SOL    HW228073   4.484   1.643  12.015
 8726SOL     OW28074   7.728   8.739   5.401
 8726SOL    HW128075   7.719   8.833   5.415
 8726SOL    HW228076   7.666   8.699   5.463
 8727SOL     OW28077  13.227  13.217   6.849
 8727SOL    HW128078  13.252  13.302   6.884
 8727SOL    HW228079  13.253  13.220   6.757
 8728SOL     OW28080   1.267   6.565   2.186
 8728SOL    HW128081   1.211   6.643   2.185
 8728SOL    HW228082   1.209   6.494   2.159
 8729SOL     OW28083  14.606   0.894   0.685
 8729SOL    HW128084  14.640   0.822   0.739
 8729SOL    HW228085  14.680   0.954   0.677
 8730SOL     OW28086   8.104   0.704   5.034
 8730SOL    HW128087   8.199   0.696   5.021
 8730SOL    HW228088   8.096   0.748   5.119
 8731SOL     OW28089  14.017  10.979   9.744
 8731SOL    HW128090  13.931  10.937   9.751
 8731SOL    HW228091  14.015  11.049   9.809
 8732SOL     OW28092   8.651   1.968  13.348
 8732SOL    HW128093   8.569   2.017  13.354
 8732SOL    HW228094   8.628   1.879  13.375
 8733SOL     OW28095   0.270   4.765   9.449
 8733SOL    HW128096   0.268   4.747   9.355
 8733SOL    HW228097   0.210   4.701   9.487
 8734SOL     OW28098   5.358   3.946   9.780
 8734SOL    HW128099   5.350   3.856   9.748
 8734SOL    HW228100   5.436   3.981   9.738
 8735SOL     OW28101   6.892   1.228   5.848
 8735SOL    HW128102   6.972   1.260   5.807
 8735SOL    HW228103   6.920   1.152   5.900
 8736SOL     OW28104   3.953  12.084   9.155
 8736SOL    HW128105   3.987  12.164   9.115
 8736SOL    HW228106   3.929  12.109   9.244
 8737SOL     OW28107   3.429   0.393   2.962
 8737SOL    HW128108   3.492   0.322   2.952
 8737SOL    HW228109   3.479   0.473   2.944
 8738SOL     OW28110   2.467   1.133  10.427
 8738SOL    HW128111   2.466   1.037  10.427
 8738SOL    HW228112   2.388   1.158  10.475
 8739SOL     OW28113   7.522   4.764   4.583
 8739SOL    HW128114   7.477   4.683   4.607
 8739SOL    HW228115   7.574   4.740   4.506
 8740SOL     OW28116  12.954   9.600   1.430
 8740SOL    HW128117  12.981   9.615   1.520
 8740SOL    HW228118  12.906   9.680   1.406
 8741SOL     OW28119   3.868  12.025   6.379
 8741SOL    HW128120   3.870  11.934   6.349
 8741SOL    HW228121   3.910  12.075   6.309
 8742SOL     OW28122   6.810  14.233   9.218
 8742SOL    HW128123   6.882  14.273   9.267
 8742SOL    HW228124   6.835  14.141   9.210
 8743SOL     OW28125  13.307   3.668   7.163
 8743SOL    HW128126  13.377   3.618   7.205
 8743SOL    HW228127  13.244   3.684   7.233
 8744SOL     OW28128   6.969   8.114   1.077
 8744SOL    HW128129   7.018   8.068   1.009
 8744SOL    HW228130   7.015   8.197   1.088
 8745SOL     OW28131   0.365   2.185   9.833
 8745SOL    HW128132   0.373   2.128   9.909
 8745SOL    HW228133   0.292   2.149   9.783
 8746SOL     OW28134  12.359   1.708  14.232
 8746SOL    HW128135  12.412   1.673  14.304
 8746SOL    HW228136  12.274   1.665  14.242
 8747SOL     OW28137   4.403  12.169   0.708
 8747SOL    HW128138   4.405  12.187   0.803
 8747SOL    HW228139   4.486  12.125   0.690
 8748SOL     OW28140  13.838   3.966  14.562
 8748SOL    HW128141  13.785   3.965  14.483
 8748SOL    HW228142  13.821   3.882  14.604
 8749SOL     OW28143  10.903  10.409   6.282
 8749SOL    HW128144  10.862  10.323   6.295
 8749SOL    HW228145  10.883  10.432   6.192
 8750SOL     OW28146   9.156   2.352   7.286
 8750SOL    HW128147   9.155   2.405   7.206
 8750SOL    HW228148   9.095   2.280   7.269
 8751SOL     OW28149   0.641  13.544   2.025
 8751SOL    HW128150   0.711  13.588   2.073
 8751SOL    HW228151   0.567  13.604   2.031
 8752SOL     OW28152   4.794  14.611  11.399
 8752SOL    HW128153   4.822  14.636  11.311
 8752SOL    HW228154   4.865  14.557  11.432
 8753SOL     OW28155   6.986  11.218   0.476
 8753SOL    HW128156   6.979  11.126   0.500
 8753SOL    HW228157   7.056  11.252   0.532
 8754SOL     OW28158   1.375   6.151  10.628
 8754SOL    HW128159   1.466   6.126  10.646
 8754SOL    HW228160   1.380   6.242  10.598
 8755SOL     OW28161   7.937  10.119   0.925
 8755SOL    HW128162   8.002  10.049   0.929
 8755SOL    HW228163   7.950  10.169   1.005
 8756SOL     OW28164   3.639   2.297   2.996
 8756SOL    HW128165   3.661   2.385   2.966
 8756SOL    HW228166   3.549   2.283   2.966
 8757SOL     OW28167  12.630  14.387  11.817
 8757SOL    HW128168  12.616  14.471  11.861
 8757SOL    HW228169  12.546  14.368  11.774
 8758SOL     OW28170   4.742   7.530   6.024
 8758SOL    HW128171   4.816   7.526   6.084
 8758SOL    HW228172   4.780   7.523   5.937
 8759SOL     OW28173   9.365   5.931  14.204
 8759SOL    HW128174   9.382   6.017  14.163
 8759SOL    HW228175   9.285   5.945  14.254
 8760SOL     OW28176   6.733   1.538   4.776
 8760SOL    HW128177   6.796   1.603   4.808
 8760SOL    HW228178   6.715   1.565   4.686
 8761SOL     OW28179  13.312  11.359   9.178
 8761SOL    HW128180  13.261  11.317   9.108
 8761SOL    HW228181  13.274  11.446   9.185
 8762SOL     OW28182  14.191   2.192   2.827
 8762SOL    HW128183  14.278   2.197   2.787
 8762SOL    HW228184  14.205   2.139   2.906
 8763SOL     OW28185   7.088   1.294   5.277
 8763SOL    HW128186   7.050   1.210   5.253
 8763SOL    HW228187   7.015   1.342   5.317
 8764SOL     OW28188   5.069   8.366   4.760
 8764SOL    HW128189   5.123   8.289   4.777
 8764SOL    HW228190   5.096   8.430   4.826
 8765SOL     OW28191   4.899   9.774  11.856
 8765SOL    HW128192   4.819   9.823  11.873
 8765SOL    HW228193   4.870   9.683  11.849
 8766SOL     OW28194  13.856  10.187   6.905
 8766SOL    HW128195  13.821  10.239   6.833
 8766SOL    HW228196  13.799  10.207   6.980
 8767SOL     OW28197  10.433  14.742   0.393
 8767SOL    HW128198  10.390  14.677   0.448
 8767SOL    HW228199  10.501  14.693   0.346
 8768SOL     OW28200  10.289   9.438  14.101
 8768SOL    HW128201  10.364   9.381  14.085
 8768SOL    HW228202  10.222   9.381  14.139
 8769SOL     OW28203   0.062   4.742  11.555
 8769SOL    HW128204   0.012   4.662  11.576
 8769SOL    HW228205   0.058   4.795  11.634
 8770SOL     OW28206  14.260   4.878   5.232
 8770SOL    HW128207  14.166   4.895   5.227
 8770SOL    HW228208  14.300   4.965   5.228
 8771SOL     OW28209   9.960   2.289  11.622
 8771SOL    HW128210   9.882   2.243  11.592
 8771SOL    HW228211  10.033   2.243  11.582
 8772SOL     OW28212   2.653  10.460  14.422
 8772SOL    HW128213   2.733  10.410  14.406
 8772SOL    HW228214   2.597  10.399  14.470
 8773SOL     OW28215   2.218  14.732   4.926
 8773SOL    HW128216   2.217  14.728   5.022
 8773SOL    HW228217   2.133  14.767   4.903
 8774SOL     OW28218   8.372   7.342  13.566
 8774SOL    HW128219   8.411   7.300  13.642
 8774SOL    HW228220   8.353   7.270  13.505
 8775SOL     OW28221   7.452   7.430   2.844
 8775SOL    HW128222   7.394   7.491   2.889
 8775SOL    HW228223   7.420   7.343   2.870
 8776SOL     OW28224   1.440   0.521  11.073
 8776SOL    HW128225   1.347   0.504  11.059
 8776SOL    HW228226   1.446   0.616  11.084
 8777SOL     OW28227  10.472   5.966  10.067
 8777SOL    HW128228  10.543   6.030  10.076
 8777SOL    HW228229  10.420   5.999   9.994
 8778SOL     OW28230   5.131  13.355   3.747
 8778SOL    HW128231   5.159  13.409   3.673
 8778SOL    HW228232   5.142  13.412   3.823
 8779SOL     OW28233  13.792   6.435  14.803
 8779SOL    HW128234  13.799   6.479   0.013
 8779SOL    HW228235  13.863   6.371  14.804
 8780SOL     OW28236   2.246   9.530   8.050
 8780SOL    HW128237   2.283   9.606   8.006
 8780SOL    HW228238   2.152   9.535   8.033
 8781SOL     OW28239   5.234   3.823   8.981
 8781SOL    HW128240   5.196   3.736   8.997
 8781SOL    HW228241   5.286   3.840   9.059
 8782SOL     OW28242   5.790   4.089  10.515
 8782SOL    HW128243   5.846   4.012  10.519
 8782SOL    HW228244   5.829   4.150  10.578
 8783SOL     OW28245   1.258  12.357   3.190
 8783SOL    HW128246   1.275  12.376   3.098
 8783SOL    HW228247   1.194  12.422   3.217
 8784SOL     OW28248   7.191   9.942  12.968
 8784SOL    HW128249   7.280   9.935  12.933
 8784SOL    HW228250   7.145   9.864  12.935
 8785SOL     OW28251  14.017   9.831  13.368
 8785SOL    HW128252  14.071   9.871  13.300
 8785SOL    HW228253  14.052   9.742  13.377
 8786SOL     OW28254   5.842   6.550   1.901
 8786SOL    HW128255   5.876   6.566   1.813
 8786SOL    HW228256   5.848   6.455   1.911
 8787SOL     OW28257  10.833  13.030   2.821
 8787SOL    HW128258  10.740  13.048   2.809
 8787SOL    HW228259  10.849  13.045   2.914
 8788SOL     OW28260   6.963   0.322   9.007
 8788SOL    HW128261   6.887   0.380   9.005
 8788SOL    HW228262   7.028   0.370   9.058
 8789SOL     OW28263  12.488  12.597  13.510
 8789SOL    HW128264  12.547  12.595  13.585
 8789SOL    HW228265  12.495  12.510  13.471
 8790SOL     OW28266   2.602  10.369  13.884
 8790SOL    HW128267   2.518  10.346  13.845
 8790SOL    HW228268   2.583  10.378  13.978
 8791SOL     OW28269  12.184   5.556   4.307
 8791SOL    HW128270  12.121   5.492   4.273
 8791SOL    HW228271  12.134   5.636   4.317
 8792SOL     OW28272  14.330  13.808   0.383
 8792SOL    HW128273  14.410  13.810   0.331
 8792SOL    HW228274  14.265  13.768   0.326
 8793SOL     OW28275   3.854   9.075  12.977
 8793SOL    HW128276   3.795   9.029  13.036
 8793SOL    HW228277   3.896   9.005  12.927
 8794SOL     OW28278  14.349   0.969   5.089
 8794SOL    HW128279  14.393   1.002   5.167
 8794SOL    HW228280  14.380   0.879   5.080
 8795SOL     OW28281   1.853  14.343   2.509
 8795SOL    HW128282   1.806  14.348   2.426
 8795SOL    HW228283   1.848  14.251   2.534
 8796SOL     OW28284   5.346   7.006   5.496
 8796SOL    HW128285   5.292   7.016   5.418
 8796SOL    HW228286   5.290   7.032   5.569
 8797SOL     OW28287   1.534  11.762   6.682
 8797SOL    HW128288   1.627  11.742   6.689
 8797SOL    HW228289   1.521  11.836   6.742
 8798SOL     OW28290   2.317   1.751   1.341
 8798SOL    HW128291   2.239   1.785   1.385
 8798SOL    HW228292   2.370   1.828   1.322
 8799SOL     OW28293   6.823   7.400  13.549
 8799SOL    HW128294   6.823   7.355  13.464
 8799SOL    HW228295   6.899   7.364  13.595
 8800SOL     OW28296   7.256   2.656  10.563
 8800SOL    HW128297   7.177   2.703  10.537
 8800SOL    HW228298   7.260   2.581  10.504
 8801SOL     OW28299   4.929   6.240   6.965
 8801SOL    HW128300   4.925   6.190   6.883
 8801SOL    HW228301   4.868   6.313   6.952
 8802SOL     OW28302  13.605  12.611  12.975
 8802SOL    HW128303  13.616  12.560  13.055
 8802SOL    HW228304  13.625  12.550  12.904
 8803SOL     OW28305   4.147   8.848   8.083
 8803SOL    HW128306   4.090   8.921   8.056
 8803SOL    HW228307   4.225   8.857   8.029
 8804SOL     OW28308   3.359   4.789  12.887
 8804SOL    HW128309   3.287   4.802  12.826
 8804SOL    HW228310   3.326   4.725  12.950
 8805SOL     OW28311   1.852  11.563   5.348
 8805SOL    HW128312   1.772  11.607   5.377
 8805SOL    HW228313   1.837  11.546   5.255
 8806SOL     OW28314   6.099   3.300  13.321
 8806SOL    HW128315   6.187   3.337  13.326
 8806SOL    HW228316   6.111   3.208  13.345
 8807SOL     OW28317   2.272   1.893  12.077
 8807SOL    HW128318   2.206   1.865  12.140
 8807SOL    HW228319   2.234   1.971  12.036
 8808SOL     OW28320   0.767   0.182   8.437
 8808SOL    HW128321   0.838   0.141   8.486
 8808SOL    HW228322   0.744   0.119   8.369
 8809SOL     OW28323   5.197  13.931   6.817
 8809SOL    HW128324   5.251  14.010   6.827
 8809SOL    HW228325   5.258  13.859   6.830
 8810SOL     OW28326   4.985  10.649  11.351
 8810SOL    HW128327   4.997  10.594  11.274
 8810SOL    HW228328   5.058  10.710  11.349
 8811SOL     OW28329   4.634  11.398  12.616
 8811SOL    HW128330   4.715  11.367  12.576
 8811SOL    HW228331   4.564  11.360  12.563
 8812SOL     OW28332   0.158   8.975  13.704
 8812SOL    HW128333   0.094   8.919  13.659
 8812SOL    HW228334   0.231   8.917  13.724
 8813SOL     OW28335  14.853   8.941   1.542
 8813SOL    HW128336  14.855   9.010   1.608
 8813SOL    HW228337   0.040   8.875   1.575
 8814SOL     OW28338  14.664   2.566   2.368
 8814SOL    HW128339  14.697   2.636   2.425
 8814SOL    HW228340  14.582   2.601   2.332
 8815SOL     OW28341   1.701   6.682  13.448
 8815SOL    HW128342   1.668   6.620  13.513
 8815SOL    HW228343   1.714   6.763  13.498
 8816SOL     OW28344   7.032   1.684   2.127
 8816SOL    HW128345   7.126   1.668   2.128
 8816SOL    HW228346   6.992   1.598   2.140
 8817SOL     OW28347  13.885   7.701   3.925
 8817SOL    HW128348  13.893   7.779   3.870
 8817SOL    HW228349  13.914   7.629   3.869
 8818SOL     OW28350   6.367   5.731   7.526
 8818SOL    HW128351   6.321   5.789   7.587
 8818SOL    HW228352   6.454   5.770   7.517
 8819SOL     OW28353   8.171   9.692   2.943
 8819SOL    HW128354   8.145   9.643   2.865
 8819SOL    HW228355   8.176   9.626   3.012
 8820SOL     OW28356   5.351   3.732   7.456
 8820SOL    HW128357   5.384   3.776   7.534
 8820SOL    HW228358   5.339   3.802   7.392
 8821SOL     OW28359   9.421  14.139   9.060
 8821SOL    HW128360   9.429  14.128   8.965
 8821SOL    HW228361   9.390  14.229   9.071
 8822SOL     OW28362   5.379  11.371   6.742
 8822SOL    HW128363   5.382  11.294   6.685
 8822SOL    HW228364   5.453  11.424   6.713
 8823SOL     OW28365  13.749  12.705   7.877
 8823SOL    HW128366  13.777  12.634   7.819
 8823SOL    HW228367  13.792  12.783   7.842
 8824SOL     OW28368  11.618   1.474  13.201
 8824SOL    HW128369  11.607   1.390  13.156
 8824SOL    HW228370  11.556   1.532  13.158
 8825SOL     OW28371  13.562  11.004   7.263
 8825SOL    HW128372  13.504  11.070   7.228
 8825SOL    HW228373  13.580  10.945   7.190
 8826SOL     OW28374  13.335   2.487   2.174
 8826SOL    HW128375  13.414   2.440   2.198
 8826SOL    HW228376  13.365   2.554   2.112
 8827SOL     OW28377  13.077   2.854   9.423
 8827SOL    HW128378  13.024   2.907   9.364
 8827SOL    HW228379  13.015   2.819   9.487
 8828SOL     OW28380   5.854  13.353   9.223
 8828SOL    HW128381   5.875  13.433   9.174
 8828SOL    HW228382   5.759  13.350   9.224
 8829SOL     OW28383   4.187   2.300   1.427
 8829SOL    HW128384   4.098   2.326   1.449
 8829SOL    HW228385   4.192   2.208   1.450
 8830SOL     OW28386   8.246   1.381   4.619
 8830SOL    HW128387   8.225   1.314   4.684
 8830SOL    HW228388   8.176   1.445   4.627
 8831SOL     OW28389  13.499   9.575  14.564
 8831SOL    HW128390  13.476   9.668  14.560
 8831SOL    HW228391  13.548   9.566  14.646
 8832SOL     OW28392  14.870   3.176   8.956
 8832SOL    HW128393   0.077   3.130   8.936
 8832SOL    HW228394  14.862   3.170   9.052
 8833SOL     OW28395  10.252  11.862  10.264
 8833SOL    HW128396  10.311  11.838  10.192
 8833SOL    HW228397  10.223  11.951  10.242
 8834SOL     OW28398   0.385   1.236   0.874
 8834SOL    HW128399   0.346   1.150   0.883
 8834SOL    HW228400   0.387   1.272   0.963
 8835SOL     OW28401   3.751   3.056   7.225
 8835SOL    HW128402   3.685   3.106   7.273
 8835SOL    HW228403   3.813   3.027   7.292
 8836SOL     OW28404  13.653  11.840   4.651
 8836SOL    HW128405  13.696  11.908   4.703
 8836SOL    HW228406  13.685  11.758   4.688
 8837SOL     OW28407   2.971  11.925   2.086
 8837SOL    HW128408   2.891  11.894   2.129
 8837SOL    HW228409   2.977  11.873   2.006
 8838SOL     OW28410   5.467   3.748   5.023
 8838SOL    HW128411   5.375   3.774   5.031
 8838SOL    HW228412   5.495   3.732   5.114
 8839SOL     OW28413   7.939   5.185   3.881
 8839SOL    HW128414   7.868   5.239   3.848
 8839SOL    HW228415   7.984   5.152   3.802
 8840SOL     OW28416   0.883   1.395  13.315
 8840SOL    HW128417   0.885   1.401  13.410
 8840SOL    HW228418   0.789   1.395  13.293
 8841SOL     OW28419  10.716  11.087  12.141
 8841SOL    HW128420  10.802  11.084  12.183
 8841SOL    HW228421  10.723  11.024  12.069
 8842SOL     OW28422   1.307   9.000   3.590
 8842SOL    HW128423   1.364   9.008   3.513
 8842SOL    HW228424   1.365   9.017   3.664
 8843SOL     OW28425  14.177  11.608  14.701
 8843SOL    HW128426  14.222  11.656  14.631
 8843SOL    HW228427  14.246  11.558  14.744
 8844SOL     OW28428   7.732   4.256   5.411
 8844SOL    HW128429   7.644   4.219   5.420
 8844SOL    HW228430   7.735   4.328   5.474
 8845SOL     OW28431   0.404   7.616   5.024
 8845SOL    HW128432   0.446   7.550   5.079
 8845SOL    HW228433   0.462   7.692   5.028
 8846SOL     OW28434   6.926   0.215   5.933
 8846SOL    HW128435   6.995   0.210   5.866
 8846SOL    HW228436   6.951   0.289   5.988
 8847SOL     OW28437  13.232  10.510   9.849
 8847SOL    HW128438  13.140  10.485   9.847
 8847SOL    HW228439  13.251  10.526   9.941
 8848SOL     OW28440   0.991   7.088  13.851
 8848SOL    HW128441   1.049   7.160  13.827
 8848SOL    HW228442   1.026   7.013  13.803
 8849SOL     OW28443   9.680   6.529   2.652
 8849SOL    HW128444   9.634   6.467   2.595
 8849SOL    HW228445   9.694   6.606   2.597
 8850SOL     OW28446   8.561   0.138  10.304
 8850SOL    HW128447   8.488   0.190  10.339
 8850SOL    HW228448   8.566   0.163  10.212
 8851SOL     OW28449  14.153   5.481   5.764
 8851SOL    HW128450  14.226   5.473   5.702
 8851SOL    HW228451  14.195   5.488   5.850
 8852SOL     OW28452  14.058  13.930   8.434
 8852SOL    HW128453  14.139  13.981   8.445
 8852SOL    HW228454  14.016  13.968   8.357
 8853SOL     OW28455   9.461  11.548   0.025
 8853SOL    HW128456   9.552  11.578   0.034
 8853SOL    HW228457   9.456  11.471   0.081
 8854SOL     OW28458  10.716   8.605   6.253
 8854SOL    HW128459  10.798   8.592   6.205
 8854SOL    HW228460  10.728   8.689   6.298
 8855SOL     OW28461   4.571   9.053   9.333
 8855SOL    HW128462   4.550   9.137   9.374
 8855SOL    HW228463   4.490   9.026   9.289
 8856SOL     OW28464   2.869   6.514   8.092
 8856SOL    HW128465   2.817   6.585   8.054
 8856SOL    HW228466   2.805   6.460   8.139
 8857SOL     OW28467  12.139   8.429   2.909
 8857SOL    HW128468  12.057   8.379   2.909
 8857SOL    HW228469  12.193   8.386   2.975
 8858SOL     OW28470   3.823   2.922  14.040
 8858SOL    HW128471   3.801   2.985  13.971
 8858SOL    HW228472   3.856   2.975  14.112
 8859SOL     OW28473  13.687   0.612   9.642
 8859SOL    HW128474  13.691   0.706   9.626
 8859SOL    HW228475  13.751   0.575   9.581
 8860SOL     OW28476   3.870  14.020   1.212
 8860SOL    HW128477   3.882  14.112   1.235
 8860SOL    HW228478   3.954  13.978   1.233
 8861SOL     OW28479  11.376   9.637  13.439
 8861SOL    HW128480  11.329   9.665  13.360
 8861SOL    HW228481  11.382   9.716  13.493
 8862SOL     OW28482   4.759   1.267   4.408
 8862SOL    HW128483   4.814   1.342   4.386
 8862SOL    HW228484   4.820   1.194   4.420
 8863SOL     OW28485   7.462   8.066   0.404
 8863SOL    HW128486   7.542   8.119   0.402
 8863SOL    HW228487   7.398   8.121   0.449
 8864SOL     OW28488  12.002   0.561   3.624
 8864SOL    HW128489  12.030   0.641   3.669
 8864SOL    HW228490  11.920   0.537   3.667
 8865SOL     OW28491   6.273   2.323   3.670
 8865SOL    HW128492   6.336   2.390   3.644
 8865SOL    HW228493   6.325   2.243   3.676
 8866SOL     OW28494   9.095  10.752  10.311
 8866SOL    HW128495   9.021  10.716  10.263
 8866SOL    HW228496   9.080  10.726  10.402
 8867SOL     OW28497   2.893   0.099   9.681
 8867SOL    HW128498   2.884   0.179   9.629
 8867SOL    HW228499   2.824   0.041   9.648
 8868SOL     OW28500  14.038  12.329  14.116
 8868SOL    HW128501  13.980  12.313  14.041
 8868SOL    HW228502  13.988  12.388  14.172
 8869SOL     OW28503  13.538   0.204  11.941
 8869SOL    HW128504  13.630   0.231  11.948
 8869SOL    HW228505  13.493   0.259  12.005
 8870SOL     OW28506   0.754   5.005   1.124
 8870SOL    HW128507   0.821   5.062   1.085
 8870SOL    HW228508   0.681   5.063   1.143
 8871SOL     OW28509   8.515   6.965   1.895
 8871SOL    HW128510   8.557   6.984   1.810
 8871SOL    HW228511   8.512   7.050   1.939
 8872SOL     OW28512  12.386   6.639   3.197
 8872SOL    HW128513  12.353   6.598   3.118
 8872SOL    HW228514  12.437   6.714   3.166
 8873SOL     OW28515   7.707  11.023   6.607
 8873SOL    HW128516   7.755  10.942   6.625
 8873SOL    HW228517   7.760  11.069   6.543
 8874SOL     OW28518  10.600   8.397   3.960
 8874SOL    HW128519  10.671   8.336   3.979
 8874SOL    HW228520  10.520   8.349   3.982
 8875SOL     OW28521  10.665   6.475  14.327
 8875SOL    HW128522  10.683   6.543  14.262
 8875SOL    HW228523  10.577   6.495  14.359
 8876SOL     OW28524   4.365   4.780  14.431
 8876SOL    HW128525   4.273   4.786  14.403
 8876SOL    HW228526   4.372   4.695  14.473
 8877SOL     OW28527   7.164  13.850   3.436
 8877SOL    HW128528   7.136  13.941   3.438
 8877SOL    HW228529   7.083  13.800   3.430
 8878SOL     OW28530  13.774   4.671  14.584
 8878SOL    HW128531  13.851   4.663  14.640
 8878SOL    HW228532  13.710   4.610  14.621
 8879SOL     OW28533   1.212   7.651   9.334
 8879SOL    HW128534   1.116   7.652   9.331
 8879SOL    HW228535   1.234   7.559   9.344
 8880SOL     OW28536   6.014   0.867   1.663
 8880SOL    HW128537   6.055   0.855   1.748
 8880SOL    HW228538   6.070   0.929   1.617
 8881SOL     OW28539  14.684  11.838   9.863
 8881SOL    HW128540  14.731  11.846   9.946
 8881SOL    HW228541  14.657  11.746   9.860
 8882SOL     OW28542  13.433  13.414  11.152
 8882SOL    HW128543  13.414  13.419  11.058
 8882SOL    HW228544  13.375  13.479  11.192
 8883SOL     OW28545   4.212   1.772   2.290
 8883SOL    HW128546   4.241   1.718   2.363
 8883SOL    HW228547   4.292   1.790   2.240
 8884SOL     OW28548   8.156   6.517  13.070
 8884SOL    HW128549   8.198   6.563  12.997
 8884SOL    HW228550   8.081   6.472  13.030
 8885SOL     OW28551   1.034  14.735   2.145
 8885SOL    HW128552   0.986  14.696   2.218
 8885SOL    HW228553   0.969  14.788   2.099
 8886SOL     OW28554  10.756   1.645  13.456
 8886SOL    HW128555  10.694   1.667  13.526
 8886SOL    HW228556  10.738   1.553  13.436
 8887SOL     OW28557   1.504   1.359   7.985
 8887SOL    HW128558   1.599   1.365   7.989
 8887SOL    HW228559   1.472   1.419   8.053
 8888SOL     OW28560   0.959   9.303   4.209
 8888SOL    HW128561   1.014   9.369   4.167
 8888SOL    HW228562   0.871   9.319   4.172
 8889SOL     OW28563   9.887   3.220   2.344
 8889SOL    HW128564   9.871   3.131   2.313
 8889SOL    HW228565   9.902   3.272   2.265
 8890SOL     OW28566  14.347   1.377  10.646
 8890SOL    HW128567  14.333   1.330  10.564
 8890SOL    HW228568  14.279   1.344  10.705
 8891SOL     OW28569   8.326  13.773   9.044
 8891SOL    HW128570   8.244  13.818   9.063
 8891SOL    HW228571   8.347  13.798   8.954
 8892SOL     OW28572   1.588   1.683   7.191
 8892SOL    HW128573   1.562   1.621   7.258
 8892SOL    HW228574   1.511   1.737   7.177
 8893SOL     OW28575   4.991   3.714   3.151
 8893SOL    HW128576   5.025   3.802   3.171
 8893SOL    HW228577   5.055   3.677   3.090
 8894SOL     OW28578   9.366   1.372  12.854
 8894SOL    HW128579   9.396   1.458  12.823
 8894SOL    HW228580   9.345   1.386  12.946
 8895SOL     OW28581   2.828   8.486   4.450
 8895SOL    HW128582   2.803   8.490   4.542
 8895SOL    HW228583   2.908   8.433   4.449
 8896SOL     OW28584   9.949  14.514   7.579
 8896SOL    HW128585   9.970  14.572   7.506
 8896SOL    HW228586   9.913  14.571   7.647
 8897SOL     OW28587  10.457  12.507  12.811
 8897SOL    HW128588  10.512  12.569  12.763
 8897SOL    HW228589  10.389  12.483  12.749
 8898SOL     OW28590   0.135   0.192  12.485
 8898SOL    HW128591   0.051   0.169  12.446
 8898SOL    HW228592   0.111   0.230  12.570
 8899SOL     OW28593   9.123  13.552  14.380
 8899SOL    HW128594   9.040  13.508  14.397
 8899SOL    HW228595   9.152  13.516  14.295
 8900SOL     OW28596  10.051   4.391   4.608
 8900SOL    HW128597  10.086   4.402   4.696
 8900SOL    HW228598  10.128   4.387   4.551
 8901SOL     OW28599  11.161   8.939   7.926
 8901SOL    HW128600  11.171   8.982   8.011
 8901SOL    HW228601  11.250   8.934   7.891
 8902SOL     OW28602   0.273   8.735   8.742
 8902SOL    HW128603   0.239   8.811   8.695
 8902SOL    HW228604   0.217   8.663   8.715
 8903SOL     OW28605  14.289  13.993  12.763
 8903SOL    HW128606  14.224  13.980  12.693
 8903SOL    HW228607  14.350  13.920  12.753
 8904SOL     OW28608   5.508  10.696   3.911
 8904SOL    HW128609   5.429  10.697   3.858
 8904SOL    HW228610   5.530  10.604   3.919
 8905SOL     OW28611   0.452   0.579   3.567
 8905SOL    HW128612   0.434   0.632   3.644
 8905SOL    HW228613   0.424   0.491   3.591
 8906SOL     OW28614   2.198  10.282   1.395
 8906SOL    HW128615   2.208  10.262   1.302
 8906SOL    HW228616   2.111  10.251   1.418
 8907SOL     OW28617   8.391  13.941  10.966
 8907SOL    HW128618   8.297  13.926  10.974
 8907SOL    HW228619   8.430  13.853  10.972
 8908SOL     OW28620  13.597   9.220   8.952
 8908SOL    HW128621  13.543   9.235   9.030
 8908SOL    HW228622  13.633   9.306   8.932
 8909SOL     OW28623   5.356   2.172   2.694
 8909SOL    HW128624   5.303   2.094   2.707
 8909SOL    HW228625   5.440   2.152   2.736
 8910SOL     OW28626  14.272  11.844   1.669
 8910SOL    HW128627  14.272  11.758   1.710
 8910SOL    HW228628  14.200  11.841   1.606
 8911SOL     OW28629   2.615   4.788   8.534
 8911SOL    HW128630   2.600   4.877   8.565
 8911SOL    HW228631   2.684   4.754   8.592
 8912SOL     OW28632   3.297  10.574   1.485
 8912SOL    HW128633   3.222  10.517   1.497
 8912SOL    HW228634   3.296  10.632   1.561
 8913SOL     OW28635  14.624   3.843  14.523
 8913SOL    HW128636  14.587   3.927  14.499
 8913SOL    HW228637  14.715   3.863  14.547
 8914SOL     OW28638   3.563   1.117   5.571
 8914SOL    HW128639   3.506   1.146   5.499
 8914SOL    HW228640   3.503   1.100   5.643
 8915SOL     OW28641   0.613  10.458  11.122
 8915SOL    HW128642   0.595  10.448  11.028
 8915SOL    HW228643   0.703  10.490  11.126
 8916SOL     OW28644   0.023   9.203   1.431
 8916SOL    HW128645   0.103   9.242   1.468
 8916SOL    HW228646   0.024   9.113   1.462
 8917SOL     OW28647   5.907  13.751  12.964
 8917SOL    HW128648   5.820  13.762  12.925
 8917SOL    HW228649   5.898  13.788  13.052
 8918SOL     OW28650   4.486   8.977   6.820
 8918SOL    HW128651   4.573   8.960   6.785
 8918SOL    HW228652   4.446   9.037   6.758
 8919SOL     OW28653   6.946   3.884   8.214
 8919SOL    HW128654   7.017   3.898   8.151
 8919SOL    HW228655   6.943   3.789   8.226
 8920SOL     OW28656   5.973   3.865  10.548
 8920SOL    HW128657   6.045   3.815  10.509
 8920SOL    HW228658   5.954   3.821  10.631
 8921SOL     OW28659   7.853  14.350   3.558
 8921SOL    HW128660   7.839  14.267   3.603
 8921SOL    HW228661   7.945  14.370   3.572
 8922SOL     OW28662   0.138   2.943   9.328
 8922SOL    HW128663   0.214   2.979   9.374
 8922SOL    HW228664   0.087   3.019   9.302
 8923SOL     OW28665  14.057   2.278   5.432
 8923SOL    HW128666  14.150   2.272   5.408
 8923SOL    HW228667  14.042   2.371   5.447
 8924SOL     OW28668  10.712   7.772  12.523
 8924SOL    HW128669  10.656   7.699  12.552
 8924SOL    HW228670  10.717   7.762  12.428
 8925SOL     OW28671   7.572   4.482  10.800
 8925SOL    HW128672   7.518   4.404  10.815
 8925SOL    HW228673   7.561   4.534  10.879
 8926SOL     OW28674   1.003   9.200  10.930
 8926SOL    HW128675   1.070   9.245  10.879
 8926SOL    HW228676   1.035   9.110  10.940
 8927SOL     OW28677   5.949   5.151   0.951
 8927SOL    HW128678   6.038   5.156   0.986
 8927SOL    HW228679   5.960   5.147   0.856
 8928SOL     OW28680  14.067   2.269   9.382
 8928SOL    HW128681  14.010   2.195   9.361
 8928SOL    HW228682  14.146   2.230   9.418
 8929SOL     OW28683   4.214   2.567   3.021
 8929SOL    HW128684   4.149   2.604   3.080
 8929SOL    HW228685   4.298   2.588   3.061
 8930SOL     OW28686   7.341   3.973  11.786
 8930SOL    HW128687   7.411   3.913  11.812
 8930SOL    HW228688   7.269   3.916  11.761
 8931SOL     OW28689   8.483   0.738   0.002
 8931SOL    HW128690   8.404   0.773   0.044
 8931SOL    HW228691   8.488   0.648   0.034
 8932SOL     OW28692  14.186   7.127   0.854
 8932SOL    HW128693  14.254   7.063   0.874
 8932SOL    HW228694  14.155   7.156   0.940
 8933SOL     OW28695  10.256   0.969  13.591
 8933SOL    HW128696  10.253   0.901  13.659
 8933SOL    HW228697  10.291   1.046  13.637
 8934SOL     OW28698   4.790   0.244   0.094
 8934SOL    HW128699   4.782   0.282   0.007
 8934SOL    HW228700   4.766   0.315   0.153
 8935SOL     OW28701   0.461   9.873  13.505
 8935SOL    HW128702   0.377   9.840  13.474
 8935SOL    HW228703   0.525   9.839  13.443
 8936SOL     OW28704  13.642  12.221  10.705
 8936SOL    HW128705  13.640  12.275  10.783
 8936SOL    HW228706  13.641  12.131  10.738
 8937SOL     OW28707   6.026  12.553  13.137
 8937SOL    HW128708   6.004  12.597  13.055
 8937SOL    HW228709   5.942  12.544  13.183
 8938SOL     OW28710   0.824   8.001  13.222
 8938SOL    HW128711   0.739   7.957  13.222
 8938SOL    HW228712   0.804   8.090  13.192
 8939SOL     OW28713   8.773   6.052   2.766
 8939SOL    HW128714   8.705   6.107   2.805
 8939SOL    HW228715   8.789   6.091   2.680
 8940SOL     OW28716  14.173   4.185  13.628
 8940SOL    HW128717  14.106   4.149  13.686
 8940SOL    HW228718  14.181   4.277  13.654
 8941SOL     OW28719   2.240   8.792   9.251
 8941SOL    HW128720   2.331   8.809   9.278
 8941SOL    HW228721   2.236   8.696   9.242
 8942SOL     OW28722   0.709  10.808   4.577
 8942SOL    HW128723   0.662  10.866   4.517
 8942SOL    HW228724   0.646  10.788   4.646
 8943SOL     OW28725   4.664  11.547   6.540
 8943SOL    HW128726   4.570  11.565   6.541
 8943SOL    HW228727   4.673  11.461   6.580
 8944SOL     OW28728  10.747   9.842  14.648
 8944SOL    HW128729  10.704   9.920  14.685
 8944SOL    HW228730  10.822   9.827  14.706
 8945SOL     OW28731  13.514   1.221  13.684
 8945SOL    HW128732  13.518   1.309  13.721
 8945SOL    HW228733  13.487   1.165  13.757
 8946SOL     OW28734   3.794   1.338   2.354
 8946SOL    HW128735   3.822   1.340   2.445
 8946SOL    HW228736   3.703   1.309   2.356
 8947SOL     OW28737  11.615  10.924   4.294
 8947SOL    HW128738  11.611  10.838   4.251
 8947SOL    HW228739  11.544  10.922   4.358
 8948SOL     OW28740  10.446   1.972   5.036
 8948SOL    HW128741  10.537   1.944   5.029
 8948SOL    HW228742  10.419   1.945   5.123
 8949SOL     OW28743   1.771   2.175  13.812
 8949SOL    HW128744   1.833   2.240  13.780
 8949SOL    HW228745   1.821   2.121  13.874
 8950SOL     OW28746  13.653   3.006   1.401
 8950SOL    HW128747  13.738   2.981   1.365
 8950SOL    HW228748  13.608   3.051   1.330
 8951SOL     OW28749  14.870  10.886   8.610
 8951SOL    HW128750  14.875  10.911   8.518
 8951SOL    HW228751   0.086  10.867   8.635
 8952SOL     OW28752   3.083  10.992   7.072
 8952SOL    HW128753   3.147  10.996   7.002
 8952SOL    HW228754   3.031  11.072   7.062
 8953SOL     OW28755  12.517  13.170  10.341
 8953SOL    HW128756  12.486  13.161  10.431
 8953SOL    HW228757  12.576  13.246  10.343
 8954SOL     OW28758  14.668   2.247  13.995
 8954SOL    HW128759  14.578   2.225  14.022
 8954SOL    HW228760  14.667   2.238  13.900
 8955SOL     OW28761   1.090   2.860   5.871
 8955SOL    HW128762   1.157   2.794   5.886
 8955SOL    HW228763   1.132   2.926   5.816
 8956SOL     OW28764   9.855   8.558   2.003
 8956SOL    HW128765   9.835   8.491   2.068
 8956SOL    HW228766   9.825   8.640   2.043
 8957SOL     OW28767   6.417   6.923   4.513
 8957SOL    HW128768   6.436   6.995   4.573
 8957SOL    HW228769   6.398   6.965   4.430
 8958SOL     OW28770   3.978   0.482   8.394
 8958SOL    HW128771   4.021   0.488   8.479
 8958SOL    HW228772   3.984   0.390   8.370
 8959SOL     OW28773   1.556  11.001   7.936
 8959SOL    HW128774   1.604  10.920   7.921
 8959SOL    HW228775   1.564  11.049   7.854
 8960SOL     OW28776  11.023  10.327  13.962
 8960SOL    HW128777  10.931  10.344  13.983
 8960SOL    HW228778  11.063  10.414  13.957
 8961SOL     OW28779   9.051   5.248  13.587
 8961SOL    HW128780   9.118   5.266  13.521
 8961SOL    HW228781   9.045   5.330  13.637
 8962SOL     OW28782  13.697   6.142  12.596
 8962SOL    HW128783  13.708   6.236  12.578
 8962SOL    HW228784  13.627   6.138  12.661
 8963SOL     OW28785   1.751  11.867  12.004
 8963SOL    HW128786   1.744  11.835  11.914
 8963SOL    HW228787   1.747  11.963  11.996
 8964SOL     OW28788   4.926  11.043   2.145
 8964SOL    HW128789   4.837  11.068   2.169
 8964SOL    HW228790   4.935  10.954   2.179
 8965SOL     OW28791   9.114   6.532  14.618
 8965SOL    HW128792   9.104   6.478  14.696
 8965SOL    HW228793   9.126   6.621  14.651
 8966SOL     OW28794   3.533   6.204  13.667
 8966SOL    HW128795   3.518   6.284  13.717
 8966SOL    HW228796   3.622   6.212  13.633
 8967SOL     OW28797   6.663   6.516   7.091
 8967SOL    HW128798   6.601   6.520   7.018
 8967SOL    HW228799   6.630   6.581   7.154
 8968SOL     OW28800   2.041   9.956   7.731
 8968SOL    HW128801   2.117   9.945   7.788
 8968SOL    HW228802   2.034  10.050   7.717
 8969SOL     OW28803   4.105  14.585   7.855
 8969SOL    HW128804   4.192  14.606   7.889
 8969SOL    HW228805   4.075  14.666   7.815
 8970SOL     OW28806   8.240   9.824  10.641
 8970SOL    HW128807   8.253   9.771  10.562
 8970SOL    HW228808   8.269   9.911  10.616
 8971SOL     OW28809   5.362   4.247   6.183
 8971SOL    HW128810   5.455   4.242   6.162
 8971SOL    HW228811   5.335   4.334   6.155
 8972SOL     OW28812   0.894   2.594  10.889
 8972SOL    HW128813   0.853   2.617  10.806
 8972SOL    HW228814   0.935   2.676  10.919
 8973SOL     OW28815   9.135  11.073   0.984
 8973SOL    HW128816   9.054  11.122   0.994
 8973SOL    HW228817   9.204  11.133   1.012
 8974SOL     OW28818   4.518   1.425   5.848
 8974SOL    HW128819   4.444   1.386   5.895
 8974SOL    HW228820   4.493   1.517   5.838
 8975SOL     OW28821   1.720   0.934  12.852
 8975SOL    HW128822   1.809   0.899  12.848
 8975SOL    HW228823   1.688   0.910  12.939
 8976SOL     OW28824  11.952   7.205   0.070
 8976SOL    HW128825  11.895   7.128   0.081
 8976SOL    HW228826  11.897   7.279   0.094
 8977SOL     OW28827   6.560   1.834  14.105
 8977SOL    HW128828   6.535   1.767  14.041
 8977SOL    HW228829   6.647   1.862  14.078
 8978SOL     OW28830  10.899   0.679   6.797
 8978SOL    HW128831  10.847   0.610   6.757
 8978SOL    HW228832  10.937   0.638   6.875
 8979SOL     OW28833   8.067  10.417   1.419
 8979SOL    HW128834   7.973  10.437   1.410
 8979SOL    HW228835   8.068  10.327   1.453
 8980SOL     OW28836   7.332   7.875   7.802
 8980SOL    HW128837   7.343   7.968   7.821
 8980SOL    HW228838   7.378   7.862   7.719
 8981SOL     OW28839   2.290  14.810  10.445
 8981SOL    HW128840   2.310  14.719  10.425
 8981SOL    HW228841   2.235  14.839  10.373
 8982SOL     OW28842   1.818   4.704  13.447
 8982SOL    HW128843   1.821   4.677  13.355
 8982SOL    HW228844   1.733   4.748  13.457
 8983SOL     OW28845   1.731   0.142  12.056
 8983SOL    HW128846   1.677   0.216  12.082
 8983SOL    HW228847   1.777   0.115  12.135
 8984SOL     OW28848   7.405   9.478   9.201
 8984SOL    HW128849   7.450   9.483   9.286
 8984SOL    HW228850   7.317   9.448   9.222
 8985SOL     OW28851   4.012   7.608  14.026
 8985SOL    HW128852   4.079   7.569  14.082
 8985SOL    HW228853   4.051   7.608  13.938
 8986SOL     OW28854   6.421   4.075   2.847
 8986SOL    HW128855   6.480   4.085   2.772
 8986SOL    HW228856   6.334   4.068   2.809
 8987SOL     OW28857   6.850   8.746   5.670
 8987SOL    HW128858   6.891   8.665   5.699
 8987SOL    HW228859   6.824   8.791   5.750
 8988SOL     OW28860   1.194   4.442   1.971
 8988SOL    HW128861   1.129   4.462   2.039
 8988SOL    HW228862   1.199   4.346   1.971
 8989SOL     OW28863   4.903   7.131   1.319
 8989SOL    HW128864   4.952   7.209   1.295
 8989SOL    HW228865   4.969   7.064   1.336
 8990SOL     OW28866   7.075   5.334  12.510
 8990SOL    HW128867   7.054   5.273  12.439
 8990SOL    HW228868   7.075   5.279  12.588
 8991SOL     OW28869   9.507   9.298   5.701
 8991SOL    HW128870   9.508   9.272   5.609
 8991SOL    HW228871   9.418   9.277   5.731
 8992SOL     OW28872  14.262   6.113   5.544
 8992SOL    HW128873  14.293   6.132   5.633
 8992SOL    HW228874  14.167   6.108   5.553
 8993SOL     OW28875   7.676  10.840   4.520
 8993SOL    HW128876   7.770  10.858   4.513
 8993SOL    HW228877   7.637  10.883   4.444
 8994SOL     OW28878  14.782   8.963   9.949
 8994SOL    HW128879  14.856   8.977   9.890
 8994SOL    HW228880  14.740   8.883   9.916
 8995SOL     OW28881   1.984   7.052  13.514
 8995SOL    HW128882   2.042   7.017  13.447
 8995SOL    HW228883   2.041   7.101  13.573
 8996SOL     OW28884  12.771   8.689   7.368
 8996SOL    HW128885  12.728   8.774   7.377
 8996SOL    HW228886  12.720   8.631   7.425
 8997SOL     OW28887   4.144   9.060   0.848
 8997SOL    HW128888   4.147   9.150   0.816
 8997SOL    HW228889   4.217   9.054   0.910
 8998SOL     OW28890  14.181   6.603   3.152
 8998SOL    HW128891  14.227   6.531   3.109
 8998SOL    HW228892  14.183   6.674   3.089
 8999SOL     OW28893  12.219   1.100   4.640
 8999SOL    HW128894  12.305   1.061   4.623
 8999SOL    HW228895  12.160   1.054   4.582
 9000SOL     OW28896   1.297   1.981   0.278
 9000SOL    HW128897   1.255   2.061   0.312
 9000SOL    HW228898   1.225   1.929   0.243
 9001SOL     OW28899   8.261  11.875   9.667
 9001SOL    HW128900   8.280  11.847   9.756
 9001SOL    HW228901   8.245  11.793   9.619
 9002SOL     OW28902  10.422  10.174   4.580
 9002SOL    HW128903  10.357  10.244   4.571
 9002SOL    HW228904  10.506  10.216   4.558
 9003SOL     OW28905  14.627   8.557   8.025
 9003SOL    HW128906  14.571   8.574   7.949
 9003SOL    HW228907  14.578   8.493   8.077
 9004SOL     OW28908  13.020   8.170  14.601
 9004SOL    HW128909  12.963   8.155  14.676
 9004SOL    HW228910  13.026   8.085  14.557
 9005SOL     OW28911  12.150  10.877  10.609
 9005SOL    HW128912  12.201  10.796  10.603
 9005SOL    HW228913  12.113  10.888  10.521
 9006SOL     OW28914   1.345  14.738  10.024
 9006SOL    HW128915   1.354  14.820   9.975
 9006SOL    HW228916   1.258  14.706  10.002
 9007SOL     OW28917  12.350  12.758   6.311
 9007SOL    HW128918  12.390  12.834   6.354
 9007SOL    HW228919  12.422  12.695   6.304
 9008SOL     OW28920   4.909  13.042   1.945
 9008SOL    HW128921   4.826  13.085   1.966
 9008SOL    HW228922   4.887  12.949   1.939
 9009SOL     OW28923   2.192  11.467  10.482
 9009SOL    HW128924   2.177  11.561  10.496
 9009SOL    HW228925   2.185  11.429  10.570
 9010SOL     OW28926  12.246  12.628   8.436
 9010SOL    HW128927  12.177  12.586   8.487
 9010SOL    HW228928  12.319  12.637   8.496
 9011SOL     OW28929  10.218   4.161   6.666
 9011SOL    HW128930  10.261   4.235   6.708
 9011SOL    HW228931  10.182   4.110   6.739
 9012SOL     OW28932  12.370   7.968   6.549
 9012SOL    HW128933  12.439   7.927   6.498
 9012SOL    HW228934  12.339   7.899   6.608
 9013SOL     OW28935  12.016   3.245  10.000
 9013SOL    HW128936  11.921   3.241  10.000
 9013SOL    HW228937  12.037   3.338  10.002
 9014SOL     OW28938  11.206  11.930  14.774
 9014SOL    HW128939  11.289  11.894  14.743
 9014SOL    HW228940  11.225  12.021  14.795
 9015SOL     OW28941   6.068   5.692   6.814
 9015SOL    HW128942   6.025   5.615   6.850
 9015SOL    HW228943   6.111   5.733   6.889
 9016SOL     OW28944   8.791   3.725   4.045
 9016SOL    HW128945   8.834   3.646   4.080
 9016SOL    HW228946   8.701   3.719   4.079
 9017SOL     OW28947  14.866   2.011   3.641
 9017SOL    HW128948   0.058   2.018   3.709
 9017SOL    HW228949   0.039   1.980   3.564
 9018SOL     OW28950   9.063   6.095   1.306
 9018SOL    HW128951   9.068   6.083   1.401
 9018SOL    HW228952   9.131   6.036   1.271
 9019SOL     OW28953   7.330   0.142   2.803
 9019SOL    HW128954   7.381   0.176   2.876
 9019SOL    HW228955   7.244   0.182   2.813
 9020SOL     OW28956   8.369  14.607  11.491
 9020SOL    HW128957   8.348  14.652  11.572
 9020SOL    HW228958   8.285  14.600  11.445
 9021SOL     OW28959  13.277   7.118   5.611
 9021SOL    HW128960  13.284   7.096   5.518
 9021SOL    HW228961  13.205   7.181   5.616
 9022SOL     OW28962  10.102   6.295   7.140
 9022SOL    HW128963  10.053   6.313   7.060
 9022SOL    HW228964  10.092   6.201   7.153
 9023SOL     OW28965  11.006   0.230  11.085
 9023SOL    HW128966  10.978   0.318  11.108
 9023SOL    HW228967  11.019   0.233  10.990
 9024SOL     OW28968  12.367   0.554   6.134
 9024SOL    HW128969  12.282   0.511   6.141
 9024SOL    HW228970  12.368   0.590   6.045
 9025SOL     OW28971   3.493   5.432  10.787
 9025SOL    HW128972   3.507   5.523  10.760
 9025SOL    HW228973   3.578   5.390  10.771
 9026SOL     OW28974  11.880   2.110   8.879
 9026SOL    HW128975  11.807   2.115   8.940
 9026SOL    HW228976  11.920   2.025   8.897
 9027SOL     OW28977  12.551  10.156  11.461
 9027SOL    HW128978  12.510  10.197  11.537
 9027SOL    HW228979  12.643  10.147  11.486
 9028SOL     OW28980  13.877   9.258   8.725
 9028SOL    HW128981  13.853   9.348   8.744
 9028SOL    HW228982  13.909   9.260   8.635
 9029SOL     OW28983  10.964   0.118   1.250
 9029SOL    HW128984  10.928   0.199   1.287
 9029SOL    HW228985  10.941   0.050   1.314
 9030SOL     OW28986  13.775   9.588   4.835
 9030SOL    HW128987  13.768   9.493   4.823
 9030SOL    HW228988  13.820   9.599   4.918
 9031SOL     OW28989   9.247   3.922   0.193
 9031SOL    HW128990   9.282   3.978   0.263
 9031SOL    HW228991   9.209   3.847   0.239
 9032SOL     OW28992   8.480   9.180  11.110
 9032SOL    HW128993   8.490   9.109  11.047
 9032SOL    HW228994   8.507   9.142  11.194
 9033SOL     OW28995  10.935  12.507   5.494
 9033SOL    HW128996  10.843  12.489   5.512
 9033SOL    HW228997  10.968  12.545   5.575
 9034SOL     OW28998   9.739   8.419   9.636
 9034SOL    HW128999   9.719   8.435   9.728
 9034SOL    HW229000   9.670   8.361   9.606
 9035SOL     OW29001  12.572   1.182   1.805
 9035SOL    HW129002  12.652   1.190   1.856
 9035SOL    HW229003  12.576   1.092   1.770
 9036SOL     OW29004   8.712  13.055  12.931
 9036SOL    HW129005   8.723  13.065  13.026
 9036SOL    HW229006   8.766  13.123  12.893
 9037SOL     OW29007   0.329   5.949   3.045
 9037SOL    HW129008   0.362   6.038   3.039
 9037SOL    HW229009   0.236   5.956   3.026
 9038SOL     OW29010   7.310  10.154   1.921
 9038SOL    HW129011   7.319  10.158   2.017
 9038SOL    HW229012   7.238  10.093   1.907
 9039SOL     OW29013   4.681   0.661   4.812
 9039SOL    HW129014   4.653   0.597   4.878
 9039SOL    HW229015   4.613   0.727   4.812
 9040SOL     OW29016   9.905   6.031   8.945
 9040SOL    HW129017   9.859   5.954   8.913
 9040SOL    HW229018   9.865   6.050   9.030
 9041SOL     OW29019  12.594   6.664  11.575
 9041SOL    HW129020  12.511   6.636  11.614
 9041SOL    HW229021  12.601   6.756  11.598
 9042SOL     OW29022  13.560  10.268   7.464
 9042SOL    HW129023  13.553  10.230   7.377
 9042SOL    HW229024  13.552  10.362   7.451
 9043SOL     OW29025   6.695   0.895   8.118
 9043SOL    HW129026   6.742   0.958   8.063
 9043SOL    HW229027   6.676   0.821   8.059
 9044SOL     OW29028   9.281   6.674   3.553
 9044SOL    HW129029   9.262   6.715   3.637
 9044SOL    HW229030   9.357   6.722   3.519
 9045SOL     OW29031  13.612   8.397   8.983
 9045SOL    HW129032  13.550   8.359   8.921
 9045SOL    HW229033  13.601   8.347   9.063
 9046SOL     OW29034  11.200   6.238  11.521
 9046SOL    HW129035  11.156   6.157  11.548
 9046SOL    HW229036  11.275   6.209  11.470
 9047SOL     OW29037   0.207   4.205   4.124
 9047SOL    HW129038   0.200   4.282   4.181
 9047SOL    HW229039   0.135   4.216   4.061
 9048SOL     OW29040   7.541   3.856   9.558
 9048SOL    HW129041   7.551   3.799   9.634
 9048SOL    HW229042   7.481   3.809   9.500
 9049SOL     OW29043   8.595   3.169   3.940
 9049SOL    HW129044   8.646   3.117   3.877
 9049SOL    HW229045   8.655   3.239   3.967
 9050SOL     OW29046   1.023   7.090   4.030
 9050SOL    HW129047   0.987   7.013   4.074
 9050SOL    HW229048   1.003   7.077   3.938
 9051SOL     OW29049   0.945   3.297   1.600
 9051SOL    HW129050   0.893   3.321   1.677
 9051SOL    HW229051   0.898   3.335   1.526
 9052SOL     OW29052  13.855   0.040  14.704
 9052SOL    HW129053  13.792   0.016  14.772
 9052SOL    HW229054  13.808   0.103  14.649
 9053SOL     OW29055   8.172   8.372   3.407
 9053SOL    HW129056   8.128   8.304   3.458
 9053SOL    HW229057   8.253   8.330   3.377
 9054SOL     OW29058   6.452   9.430   6.413
 9054SOL    HW129059   6.538   9.452   6.377
 9054SOL    HW229060   6.463   9.343   6.450
 9055SOL     OW29061  14.236   1.344   1.908
 9055SOL    HW129062  14.180   1.270   1.928
 9055SOL    HW229063  14.228   1.402   1.984
 9056SOL     OW29064   9.236   7.815   7.074
 9056SOL    HW129065   9.203   7.726   7.066
 9056SOL    HW229066   9.185   7.853   7.146
 9057SOL     OW29067   6.437  14.830   7.821
 9057SOL    HW129068   6.461  14.745   7.857
 9057SOL    HW229069   6.511  14.856   7.767
 9058SOL     OW29070  12.461   0.485   4.146
 9058SOL    HW129071  12.511   0.409   4.175
 9058SOL    HW229072  12.516   0.526   4.080
 9059SOL     OW29073  14.642   9.945   8.616
 9059SOL    HW129074  14.581   9.905   8.554
 9059SOL    HW229075  14.587  10.005   8.667
 9060SOL     OW29076   2.668  13.196   3.084
 9060SOL    HW129077   2.603  13.133   3.114
 9060SOL    HW229078   2.623  13.246   3.015
 9061SOL     OW29079   8.411   1.298  13.481
 9061SOL    HW129080   8.381   1.348  13.557
 9061SOL    HW229081   8.450   1.219  13.518
 9062SOL     OW29082   4.166  13.397   9.598
 9062SOL    HW129083   4.077  13.368   9.578
 9062SOL    HW229084   4.215  13.316   9.612
 9063SOL     OW29085  13.733   5.088   6.964
 9063SOL    HW129086  13.759   4.997   6.949
 9063SOL    HW229087  13.736   5.128   6.877
 9064SOL     OW29088   2.667   7.282   6.940
 9064SOL    HW129089   2.607   7.239   6.879
 9064SOL    HW229090   2.694   7.213   7.000
 9065SOL     OW29091   4.213  10.678   0.096
 9065SOL    HW129092   4.229  10.594   0.139
 9065SOL    HW229093   4.294  10.697   0.049
 9066SOL     OW29094   5.233   5.793   3.777
 9066SOL    HW129095   5.212   5.785   3.870
 9066SOL    HW229096   5.275   5.879   3.769
 9067SOL     OW29097   1.590  13.488  12.976
 9067SOL    HW129098   1.511  13.540  12.989
 9067SOL    HW229099   1.617  13.508  12.886
 9068SOL     OW29100   8.767   3.784  14.369
 9068SOL    HW129101   8.786   3.851  14.435
 9068SOL    HW229102   8.797   3.703  14.409
 9069SOL     OW29103   4.008  14.132   7.821
 9069SOL    HW129104   4.097  14.147   7.851
 9069SOL    HW229105   3.963  14.215   7.836
 9070SOL     OW29106  10.424   6.659   6.611
 9070SOL    HW129107  10.349   6.714   6.633
 9070SOL    HW229108  10.471   6.646   6.693
 9071SOL     OW29109  12.710  14.639  14.319
 9071SOL    HW129110  12.723  14.547  14.341
 9071SOL    HW229111  12.798  14.677  14.323
 9072SOL     OW29112   5.325   1.163   4.428
 9072SOL    HW129113   5.409   1.151   4.384
 9072SOL    HW229114   5.269   1.202   4.362
 9073SOL     OW29115   8.679   7.242   8.993
 9073SOL    HW129116   8.767   7.278   9.005
 9073SOL    HW229117   8.683   7.199   8.907
 9074SOL     OW29118   3.973   3.780  12.103
 9074SOL    HW129119   3.946   3.793  12.194
 9074SOL    HW229120   3.897   3.738  12.062
 9075SOL     OW29121   6.090  13.555  10.970
 9075SOL    HW129122   6.128  13.472  10.999
 9075SOL    HW229123   6.007  13.561  11.019
 9076SOL     OW29124   5.333   1.792   7.589
 9076SOL    HW129125   5.278   1.784   7.667
 9076SOL    HW229126   5.320   1.883   7.560
 9077SOL     OW29127   1.295   2.160   1.066
 9077SOL    HW129128   1.342   2.082   1.038
 9077SOL    HW229129   1.343   2.191   1.143
 9078SOL     OW29130  10.298  11.964  12.953
 9078SOL    HW129131  10.264  12.052  12.968
 9078SOL    HW229132  10.222  11.912  12.927
 9079SOL     OW29133   3.695   6.489  10.728
 9079SOL    HW129134   3.752   6.429  10.680
 9079SOL    HW229135   3.651   6.434  10.793
 9080SOL     OW29136  12.525   6.312   9.047
 9080SOL    HW129137  12.524   6.222   9.014
 9080SOL    HW229138  12.447   6.318   9.103
 9081SOL     OW29139   3.899  12.589  12.006
 9081SOL    HW129140   3.820  12.591  11.951
 9081SOL    HW229141   3.874  12.538  12.083
 9082SOL     OW29142  13.347   4.142   9.067
 9082SOL    HW129143  13.431   4.113   9.031
 9082SOL    HW229144  13.295   4.166   8.991
 9083SOL     OW29145   9.455   6.709   3.120
 9083SOL    HW129146   9.545   6.705   3.154
 9083SOL    HW229147   9.418   6.623   3.140
 9084SOL     OW29148   0.400   2.841  10.910
 9084SOL    HW129149   0.346   2.905  10.956
 9084SOL    HW229150   0.455   2.893  10.852
 9085SOL     OW29151  14.635   3.413   2.481
 9085SOL    HW129152  14.689   3.385   2.408
 9085SOL    HW229153  14.625   3.508   2.469
 9086SOL     OW29154   9.548  14.721   5.431
 9086SOL    HW129155   9.634  14.712   5.389
 9086SOL    HW229156   9.559  14.684   5.518
 9087SOL     OW29157   6.107   7.160   2.665
 9087SOL    HW129158   6.061   7.076   2.667
 9087SOL    HW229159   6.182   7.145   2.607
 9088SOL     OW29160  14.820   6.592   0.239
 9088SOL    HW129161   0.033   6.563   0.261
 9088SOL    HW229162  14.832   6.677   0.196
 9089SOL     OW29163   7.745  10.330   7.417
 9089SOL    HW129164   7.753  10.279   7.337
 9089SOL    HW229165   7.726  10.419   7.387
 9090SOL     OW29166  11.573   0.892   2.810
 9090SOL    HW129167  11.546   0.969   2.861
 9090SOL    HW229168  11.518   0.821   2.844
 9091SOL     OW29169   7.010   8.435  11.541
 9091SOL    HW129170   6.955   8.386  11.602
 9091SOL    HW229171   7.088   8.457  11.592
 9092SOL     OW29172  14.165  12.908   7.260
 9092SOL    HW129173  14.132  12.957   7.335
 9092SOL    HW229174  14.247  12.952   7.237
 9093SOL     OW29175   6.665   1.056   1.141
 9093SOL    HW129176   6.596   0.991   1.153
 9093SOL    HW229177   6.668   1.070   1.046
 9094SOL     OW29178   6.562   2.854   5.942
 9094SOL    HW129179   6.598   2.795   5.876
 9094SOL    HW229180   6.498   2.801   5.989
 9095SOL     OW29181   7.513  11.664   2.409
 9095SOL    HW129182   7.426  11.646   2.373
 9095SOL    HW229183   7.572  11.652   2.335
 9096SOL     OW29184   8.755   7.530  14.713
 9096SOL    HW129185   8.677   7.527  14.770
 9096SOL    HW229186   8.725   7.490  14.631
 9097SOL     OW29187   8.266   8.396   2.960
 9097SOL    HW129188   8.298   8.306   2.967
 9097SOL    HW229189   8.310   8.431   2.883
 9098SOL     OW29190   4.592  12.021   5.351
 9098SOL    HW129191   4.594  12.052   5.260
 9098SOL    HW229192   4.683  12.000   5.371
 9099SOL     OW29193   6.508   7.055  14.530
 9099SOL    HW129194   6.453   7.104  14.591
 9099SOL    HW229195   6.553   6.991  14.584
 9100SOL     OW29196   4.251  13.902   3.121
 9100SOL    HW129197   4.218  13.969   3.061
 9100SOL    HW229198   4.337  13.878   3.086
 9101SOL     OW29199  10.912   8.621   4.519
 9101SOL    HW129200  10.880   8.536   4.550
 9101SOL    HW229201  10.850   8.684   4.555
 9102SOL     OW29202  11.170   9.068   5.918
 9102SOL    HW129203  11.139   9.099   5.833
 9102SOL    HW229204  11.092   9.067   5.973
 9103SOL     OW29205   1.536  13.205  14.588
 9103SOL    HW129206   1.538  13.294  14.552
 9103SOL    HW229207   1.463  13.162  14.543
 9104SOL     OW29208   9.013   6.710  11.522
 9104SOL    HW129209   8.970   6.686  11.440
 9104SOL    HW229210   9.089   6.651  11.527
 9105SOL     OW29211  14.500   8.688   6.968
 9105SOL    HW129212  14.544   8.760   6.922
 9105SOL    HW229213  14.449   8.731   7.037
 9106SOL     OW29214  14.352   3.731  11.178
 9106SOL    HW129215  14.419   3.786  11.218
 9106SOL    HW229216  14.309   3.688  11.252
 9107SOL     OW29217   2.870   2.043   8.967
 9107SOL    HW129218   2.954   2.087   8.977
 9107SOL    HW229219   2.879   1.995   8.884
 9108SOL     OW29220   8.871   2.501   9.861
 9108SOL    HW129221   8.947   2.505   9.919
 9108SOL    HW229222   8.892   2.562   9.790
 9109SOL     OW29223   9.325   1.983   0.970
 9109SOL    HW129224   9.292   1.904   0.928
 9109SOL    HW229225   9.357   2.037   0.897
 9110SOL     OW29226   8.160   5.566   2.659
 9110SOL    HW129227   8.080   5.529   2.622
 9110SOL    HW229228   8.158   5.538   2.751
 9111SOL     OW29229   0.541   6.270   3.327
 9111SOL    HW129230   0.559   6.304   3.415
 9111SOL    HW229231   0.528   6.176   3.339
 9112SOL     OW29232  10.843  13.573   6.967
 9112SOL    HW129233  10.936  13.580   6.986
 9112SOL    HW229234  10.838  13.513   6.893
 9113SOL     OW29235   0.008   5.560   5.596
 9113SOL    HW129236  14.836   5.511   5.529
 9113SOL    HW229237  14.830   5.639   5.609
 9114SOL     OW29238   8.672   8.211   7.867
 9114SOL    HW129239   8.750   8.209   7.812
 9114SOL    HW229240   8.699   8.260   7.945
 9115SOL     OW29241   6.028   0.499   8.608
 9115SOL    HW129242   5.962   0.534   8.668
 9115SOL    HW229243   5.982   0.492   8.524
 9116SOL     OW29244  10.650   6.465   1.231
 9116SOL    HW129245  10.573   6.501   1.275
 9116SOL    HW229246  10.639   6.370   1.238
 9117SOL     OW29247   5.081  13.089   8.581
 9117SOL    HW129248   4.993  13.051   8.585
 9117SOL    HW229249   5.085  13.147   8.658
 9118SOL     OW29250  12.797   5.302  12.540
 9118SOL    HW129251  12.829   5.356  12.468
 9118SOL    HW229252  12.712   5.270  12.511
 9119SOL     OW29253  11.004   1.017   4.902
 9119SOL    HW129254  11.016   1.032   4.808
 9119SOL    HW229255  11.072   0.953   4.925
 9120SOL     OW29256   9.624   4.325   6.259
 9120SOL    HW129257   9.615   4.260   6.190
 9120SOL    HW229258   9.563   4.395   6.234
 9121SOL     OW29259  10.080   0.197   8.570
 9121SOL    HW129260  10.107   0.119   8.523
 9121SOL    HW229261  10.093   0.175   8.663
 9122SOL     OW29262  14.406   8.521  11.251
 9122SOL    HW129263  14.369   8.437  11.227
 9122SOL    HW229264  14.353   8.585  11.203
 9123SOL     OW29265   2.965   8.775   9.537
 9123SOL    HW129266   2.885   8.827   9.548
 9123SOL    HW229267   3.034   8.827   9.577
 9124SOL     OW29268  11.961  13.420   2.018
 9124SOL    HW129269  11.903  13.347   1.997
 9124SOL    HW229270  12.039  13.405   1.963
 9125SOL     OW29271   4.520   3.902   9.801
 9125SOL    HW129272   4.438   3.941   9.773
 9125SOL    HW229273   4.587   3.952   9.754
 9126SOL     OW29274  12.615  11.394  13.503
 9126SOL    HW129275  12.561  11.368  13.577
 9126SOL    HW229276  12.630  11.313  13.454
 9127SOL     OW29277   4.593   9.136   3.639
 9127SOL    HW129278   4.586   9.229   3.618
 9127SOL    HW229279   4.620   9.134   3.731
 9128SOL     OW29280   1.392  12.893   7.336
 9128SOL    HW129281   1.376  12.867   7.427
 9128SOL    HW229282   1.441  12.974   7.343
 9129SOL     OW29283  11.067   1.889   5.156
 9129SOL    HW129284  11.042   1.806   5.197
 9129SOL    HW229285  11.107   1.863   5.072
 9130SOL     OW29286   1.263   3.369   5.732
 9130SOL    HW129287   1.224   3.329   5.810
 9130SOL    HW229288   1.230   3.459   5.732
 9131SOL     OW29289  12.269   9.824   3.535
 9131SOL    HW129290  12.309   9.910   3.526
 9131SOL    HW229291  12.282   9.801   3.627
 9132SOL     OW29292   5.579  12.644  12.547
 9132SOL    HW129293   5.567  12.657  12.453
 9132SOL    HW229294   5.606  12.730  12.580
 9133SOL     OW29295   5.167   6.100  12.581
 9133SOL    HW129296   5.167   6.138  12.493
 9133SOL    HW229297   5.074   6.096  12.606
 9134SOL     OW29298   3.555  14.851  11.988
 9134SOL    HW129299   3.582  14.760  11.999
 9134SOL    HW229300   3.462  14.852  12.011
 9135SOL     OW29301   3.595   5.132   2.596
 9135SOL    HW129302   3.545   5.135   2.515
 9135SOL    HW229303   3.685   5.147   2.569
 9136SOL     OW29304   4.980  10.537   8.474
 9136SOL    HW129305   5.035  10.475   8.521
 9136SOL    HW229306   5.037  10.573   8.406
 9137SOL     OW29307   8.281  12.773   5.373
 9137SOL    HW129308   8.303  12.817   5.291
 9137SOL    HW229309   8.200  12.816   5.401
 9138SOL     OW29310   2.872   1.627   8.000
 9138SOL    HW129311   2.942   1.631   7.934
 9138SOL    HW229312   2.911   1.664   8.079
 9139SOL     OW29313  12.868   6.456   2.495
 9139SOL    HW129314  12.861   6.516   2.569
 9139SOL    HW229315  12.797   6.394   2.507
 9140SOL     OW29316  12.736  11.213   5.546
 9140SOL    HW129317  12.670  11.194   5.479
 9140SOL    HW229318  12.695  11.280   5.602
 9141SOL     OW29319   3.898   4.968  10.174
 9141SOL    HW129320   3.945   4.890  10.203
 9141SOL    HW229321   3.810   4.936  10.151
 9142SOL     OW29322   5.359  14.100   8.294
 9142SOL    HW129323   5.264  14.086   8.291
 9142SOL    HW229324   5.378  14.113   8.387
 9143SOL     OW29325   9.992   0.642  11.752
 9143SOL    HW129326  10.077   0.631  11.709
 9143SOL    HW229327   9.991   0.734  11.779
 9144SOL     OW29328  11.761   0.500   8.109
 9144SOL    HW129329  11.775   0.406   8.127
 9144SOL    HW229330  11.684   0.502   8.053
 9145SOL     OW29331   8.832   4.349   4.050
 9145SOL    HW129332   8.762   4.387   3.996
 9145SOL    HW229333   8.804   4.259   4.066
 9146SOL     OW29334   5.578  11.644  13.125
 9146SOL    HW129335   5.529  11.624  13.045
 9146SOL    HW229336   5.531  11.599  13.194
 9147SOL     OW29337  14.728   7.745   6.878
 9147SOL    HW129338  14.706   7.656   6.905
 9147SOL    HW229339  14.740   7.740   6.783
 9148SOL     OW29340  10.615  11.690   6.577
 9148SOL    HW129341  10.574  11.712   6.493
 9148SOL    HW229342  10.657  11.605   6.562
 9149SOL     OW29343   4.659   8.672   7.188
 9149SOL    HW129344   4.703   8.592   7.158
 9149SOL    HW229345   4.615   8.645   7.270
 9150SOL     OW29346   0.557   7.263   4.534
 9150SOL    HW129347   0.612   7.304   4.601
 9150SOL    HW229348   0.498   7.334   4.506
 9151SOL     OW29349   8.356   4.816  14.383
 9151SOL    HW129350   8.320   4.730  14.362
 9151SOL    HW229351   8.389   4.807  14.473
 9152SOL     OW29352   4.230   0.095   8.188
 9152SOL    HW129353   4.267   0.174   8.228
 9152SOL    HW229354   4.305   0.039   8.171
 9153SOL     OW29355  12.608   0.652   7.835
 9153SOL    HW129356  12.641   0.622   7.751
 9153SOL    HW229357  12.512   0.646   7.826
 9154SOL     OW29358  10.068  11.906  10.781
 9154SOL    HW129359  10.061  12.000  10.799
 9154SOL    HW229360  10.090  11.901  10.688
 9155SOL     OW29361   4.766   2.586   6.699
 9155SOL    HW129362   4.735   2.502   6.734
 9155SOL    HW229363   4.825   2.562   6.628
 9156SOL     OW29364   3.314   4.794   6.190
 9156SOL    HW129365   3.374   4.739   6.139
 9156SOL    HW229366   3.245   4.819   6.129
 9157SOL     OW29367   2.242   7.760   2.964
 9157SOL    HW129368   2.199   7.676   2.952
 9157SOL    HW229369   2.202   7.817   2.899
 9158SOL     OW29370   2.229  12.690   6.882
 9158SOL    HW129371   2.204  12.686   6.790
 9158SOL    HW229372   2.158  12.645   6.928
 9159SOL     OW29373   0.407   9.355   1.313
 9159SOL    HW129374   0.323   9.363   1.268
 9159SOL    HW229375   0.385   9.315   1.397
 9160SOL     OW29376   8.257   6.319  12.800
 9160SOL    HW129377   8.190   6.383  12.775
 9160SOL    HW229378   8.237   6.242  12.748
 9161SOL     OW29379   0.554   1.182  10.884
 9161SOL    HW129380   0.586   1.181  10.974
 9161SOL    HW229381   0.633   1.180  10.831
 9162SOL     OW29382  14.529   2.656   9.097
 9162SOL    HW129383  14.499   2.567   9.113
 9162SOL    HW229384  14.461   2.696   9.043
 9163SOL     OW29385   7.462   9.189  11.194
 9163SOL    HW129386   7.382   9.138  11.211
 9163SOL    HW229387   7.465   9.252  11.266
 9164SOL     OW29388   6.541   0.353   9.917
 9164SOL    HW129389   6.575   0.422   9.975
 9164SOL    HW229390   6.562   0.271   9.962
 9165SOL     OW29391   5.252  13.395  14.444
 9165SOL    HW129392   5.181  13.425  14.387
 9165SOL    HW229393   5.331  13.433  14.407
 9166SOL     OW29394  14.723   2.292  13.686
 9166SOL    HW129395  14.688   2.270  13.600
 9166SOL    HW229396  14.667   2.363  13.718
 9167SOL     OW29397  10.145  12.653   1.770
 9167SOL    HW129398  10.186  12.623   1.689
 9167SOL    HW229399  10.216  12.696   1.818
 9168SOL     OW29400   1.499  12.163  10.143
 9168SOL    HW129401   1.502  12.068  10.130
 9168SOL    HW229402   1.463  12.174  10.231
 9169SOL     OW29403  11.638   1.569   8.923
 9169SOL    HW129404  11.550   1.556   8.958
 9169SOL    HW229405  11.675   1.640   8.975
 9170SOL     OW29406   9.883   0.772   6.562
 9170SOL    HW129407   9.802   0.725   6.581
 9170SOL    HW229408   9.952   0.715   6.595
 9171SOL     OW29409   3.240   9.018  12.566
 9171SOL    HW129410   3.295   8.984  12.495
 9171SOL    HW229411   3.169   8.955  12.573
 9172SOL     OW29412   5.431   4.523  12.113
 9172SOL    HW129413   5.487   4.448  12.135
 9172SOL    HW229414   5.422   4.571  12.195
 9173SOL     OW29415  12.243   9.268   4.424
 9173SOL    HW129416  12.203   9.230   4.346
 9173SOL    HW229417  12.209   9.215   4.496
 9174SOL     OW29418   5.934   4.752   0.865
 9174SOL    HW129419   5.958   4.784   0.952
 9174SOL    HW229420   5.933   4.657   0.873
 9175SOL     OW29421  14.703   9.257   7.317
 9175SOL    HW129422  14.711   9.195   7.244
 9175SOL    HW229423  14.667   9.205   7.389
 9176SOL     OW29424  10.711   2.581   8.311
 9176SOL    HW129425  10.744   2.550   8.395
 9176SOL    HW229426  10.787   2.619   8.267
 9177SOL     OW29427   5.547  10.350   9.657
 9177SOL    HW129428   5.470  10.379   9.706
 9177SOL    HW229429   5.549  10.255   9.671
 9178SOL     OW29430  10.104   5.220   5.734
 9178SOL    HW129431  10.191   5.181   5.741
 9178SOL    HW229432  10.060   5.195   5.815
 9179SOL     OW29433   4.924   5.669  13.246
 9179SOL    HW129434   4.839   5.629  13.266
 9179SOL    HW229435   4.967   5.678  13.331
 9180SOL     OW29436   4.789  10.487  13.031
 9180SOL    HW129437   4.875  10.504  12.992
 9180SOL    HW229438   4.748  10.573  13.038
 9181SOL     OW29439  13.107   3.527   1.284
 9181SOL    HW129440  13.098   3.615   1.320
 9181SOL    HW229441  13.192   3.529   1.238
 9182SOL     OW29442   9.330  11.012   1.295
 9182SOL    HW129443   9.286  11.096   1.281
 9182SOL    HW229444   9.421  11.029   1.269
 9183SOL     OW29445   9.901  10.863   8.880
 9183SOL    HW129446   9.856  10.789   8.922
 9183SOL    HW229447   9.901  10.932   8.946
 9184SOL     OW29448   1.199  14.582   5.238
 9184SOL    HW129449   1.215  14.562   5.145
 9184SOL    HW229450   1.281  14.622   5.268
 9185SOL     OW29451   4.097  10.969   0.896
 9185SOL    HW129452   4.094  10.889   0.950
 9185SOL    HW229453   4.180  11.011   0.920
 9186SOL     OW29454  12.108  11.674   1.719
 9186SOL    HW129455  12.041  11.741   1.733
 9186SOL    HW229456  12.165  11.710   1.651
 9187SOL     OW29457   3.741  13.763   9.888
 9187SOL    HW129458   3.805  13.697   9.862
 9187SOL    HW229459   3.777  13.801   9.968
 9188SOL     OW29460   3.305  13.404   0.261
 9188SOL    HW129461   3.288  13.363   0.177
 9188SOL    HW229462   3.248  13.359   0.322
 9189SOL     OW29463   6.374   5.760   3.318
 9189SOL    HW129464   6.321   5.680   3.307
 9189SOL    HW229465   6.462   5.734   3.290
 9190SOL     OW29466  12.345   8.963   9.417
 9190SOL    HW129467  12.250   8.978   9.409
 9190SOL    HW229468  12.354   8.905   9.492
 9191SOL     OW29469   9.334  14.195  11.411
 9191SOL    HW129470   9.356  14.224  11.499
 9191SOL    HW229471   9.248  14.233  11.393
 9192SOL     OW29472  14.526   0.871  10.143
 9192SOL    HW129473  14.491   0.792  10.101
 9192SOL    HW229474  14.558   0.925  10.071
 9193SOL     OW29475   0.610  12.347   9.451
 9193SOL    HW129476   0.676  12.417   9.452
 9193SOL    HW229477   0.650  12.277   9.501
 9194SOL     OW29478  13.610   8.146   0.348
 9194SOL    HW129479  13.531   8.149   0.295
 9194SOL    HW229480  13.580   8.118   0.435
 9195SOL     OW29481   2.493  12.439   3.741
 9195SOL    HW129482   2.572  12.477   3.779
 9195SOL    HW229483   2.458  12.509   3.685
 9196SOL     OW29484  11.160  10.559  13.910
 9196SOL    HW129485  11.222  10.631  13.896
 9196SOL    HW229486  11.171  10.503  13.832
 9197SOL     OW29487  12.480   9.165   4.546
 9197SOL    HW129488  12.426   9.232   4.504
 9197SOL    HW229489  12.440   9.153   4.632
 9198SOL     OW29490  13.834  11.638   0.442
 9198SOL    HW129491  13.806  11.587   0.518
 9198SOL    HW229492  13.794  11.724   0.454
 9199SOL     OW29493  11.760   9.727   5.107
 9199SOL    HW129494  11.710   9.770   5.039
 9199SOL    HW229495  11.694   9.685   5.162
 9200SOL     OW29496   7.490   3.056   8.584
 9200SOL    HW129497   7.521   2.971   8.553
 9200SOL    HW229498   7.568   3.102   8.613
 9201SOL     OW29499  13.094   4.505  14.689
 9201SOL    HW129500  13.142   4.496  14.606
 9201SOL    HW229501  13.043   4.585  14.678
 9202SOL     OW29502   9.317   4.407   7.543
 9202SOL    HW129503   9.238   4.459   7.529
 9202SOL    HW229504   9.364   4.411   7.459
 9203SOL     OW29505  13.800  10.242  12.969
 9203SOL    HW129506  13.741  10.289  12.910
 9203SOL    HW229507  13.831  10.167  12.918
 9204SOL     OW29508   0.587  10.884  14.628
 9204SOL    HW129509   0.676  10.895  14.595
 9204SOL    HW229510   0.531  10.890  14.550
 9205SOL     OW29511  14.377   8.019  13.184
 9205SOL    HW129512  14.302   7.960  13.192
 9205SOL    HW229513  14.410   8.027  13.274
 9206SOL     OW29514   0.147  13.128  13.246
 9206SOL    HW129515   0.123  13.064  13.180
 9206SOL    HW229516   0.228  13.093  13.285
 9207SOL     OW29517   5.519   9.002   7.755
 9207SOL    HW129518   5.433   8.964   7.743
 9207SOL    HW229519   5.580   8.929   7.747
 9208SOL     OW29520   8.866   6.006   4.597
 9208SOL    HW129521   8.801   6.030   4.662
 9208SOL    HW229522   8.846   6.061   4.521
 9209SOL     OW29523   1.510   3.258   3.145
 9209SOL    HW129524   1.482   3.182   3.195
 9209SOL    HW229525   1.598   3.278   3.178
 9210SOL     OW29526   5.393   7.763   3.773
 9210SOL    HW129527   5.347   7.822   3.832
 9210SOL    HW229528   5.400   7.681   3.822
 9211SOL     OW29529   3.929  11.514   9.022
 9211SOL    HW129530   3.900  11.592   8.976
 9211SOL    HW229531   4.021  11.532   9.043
 9212SOL     OW29532  12.585   6.787  13.001
 9212SOL    HW129533  12.577   6.713  13.062
 9212SOL    HW229534  12.495   6.800  12.969
 9213SOL     OW29535  10.536   5.760  13.609
 9213SOL    HW129536  10.542   5.682  13.554
 9213SOL    HW229537  10.602   5.820  13.572
 9214SOL     OW29538  10.595  10.152   3.380
 9214SOL    HW129539  10.605  10.067   3.423
 9214SOL    HW229540  10.664  10.153   3.314
 9215SOL     OW29541   9.919   7.606   1.269
 9215SOL    HW129542   9.983   7.677   1.269
 9215SOL    HW229543   9.969   7.530   1.239
 9216SOL     OW29544   6.666   5.288   8.079
 9216SOL    HW129545   6.703   5.262   7.994
 9216SOL    HW229546   6.660   5.384   8.074
 9217SOL     OW29547   0.789  11.544   8.692
 9217SOL    HW129548   0.737  11.566   8.769
 9217SOL    HW229549   0.846  11.620   8.679
 9218SOL     OW29550   7.112   5.631  10.616
 9218SOL    HW129551   7.184   5.689  10.642
 9218SOL    HW229552   7.105   5.568  10.687
 9219SOL     OW29553   2.063   8.730  12.642
 9219SOL    HW129554   1.981   8.695  12.678
 9219SOL    HW229555   2.077   8.812  12.689
 9220SOL     OW29556   6.951   1.951   3.479
 9220SOL    HW129557   7.044   1.962   3.499
 9220SOL    HW229558   6.909   2.029   3.515
 9221SOL     OW29559   3.557   8.492  14.050
 9221SOL    HW129560   3.490   8.537  14.101
 9221SOL    HW229561   3.562   8.405  14.089
 9222SOL     OW29562  11.175   1.541   9.215
 9222SOL    HW129563  11.101   1.602   9.227
 9222SOL    HW229564  11.143   1.478   9.150
 9223SOL     OW29565   6.541  14.547   6.759
 9223SOL    HW129566   6.591  14.619   6.797
 9223SOL    HW229567   6.491  14.511   6.833
 9224SOL     OW29568   7.181   4.722   5.622
 9224SOL    HW129569   7.163   4.816   5.613
 9224SOL    HW229570   7.275   4.718   5.640
 9225SOL     OW29571   9.758   4.646   7.750
 9225SOL    HW129572   9.762   4.611   7.839
 9225SOL    HW229573   9.848   4.670   7.729
 9226SOL     OW29574  14.065   4.817  14.460
 9226SOL    HW129575  14.030   4.859  14.538
 9226SOL    HW229576  14.142   4.769  14.490
 9227SOL     OW29577  10.282   4.725   3.737
 9227SOL    HW129578  10.277   4.761   3.648
 9227SOL    HW229579  10.327   4.642   3.726
 9228SOL     OW29580   4.615  10.690   2.820
 9228SOL    HW129581   4.578  10.695   2.908
 9228SOL    HW229582   4.706  10.666   2.834
 9229SOL     OW29583  13.573   9.110   6.434
 9229SOL    HW129584  13.540   9.192   6.472
 9229SOL    HW229585  13.638   9.079   6.497
 9230SOL     OW29586  10.686   0.265   3.825
 9230SOL    HW129587  10.701   0.282   3.919
 9230SOL    HW229588  10.619   0.197   3.823
 9231SOL     OW29589   6.095  11.045   2.927
 9231SOL    HW129590   6.117  11.039   2.834
 9231SOL    HW229591   6.106  11.138   2.948
 9232SOL     OW29592  12.823   1.597   3.593
 9232SOL    HW129593  12.762   1.630   3.659
 9232SOL    HW229594  12.778   1.522   3.554
 9233SOL     OW29595   5.932   0.334  12.116
 9233SOL    HW129596   5.918   0.351  12.209
 9233SOL    HW229597   6.011   0.383  12.094
 9234SOL     OW29598   3.510  10.033   4.429
 9234SOL    HW129599   3.524  10.097   4.499
 9234SOL    HW229600   3.449   9.970   4.467
 9235SOL     OW29601   6.672   7.531  12.613
 9235SOL    HW129602   6.605   7.482  12.566
 9235SOL    HW229603   6.654   7.623  12.592
 9236SOL     OW29604   9.409  13.748  13.190
 9236SOL    HW129605   9.450  13.819  13.239
 9236SOL    HW229606   9.391  13.680  13.255
 9237SOL     OW29607   8.855   7.147  12.197
 9237SOL    HW129608   8.923   7.175  12.135
 9237SOL    HW229609   8.832   7.058  12.168
 9238SOL     OW29610   0.635   8.694  11.793
 9238SOL    HW129611   0.705   8.643  11.833
 9238SOL    HW229612   0.570   8.703  11.863
 9239SOL     OW29613   5.544   4.721   7.147
 9239SOL    HW129614   5.491   4.793   7.113
 9239SOL    HW229615   5.589   4.757   7.223
 9240SOL     OW29616   3.611  12.592  11.160
 9240SOL    HW129617   3.680  12.577  11.096
 9240SOL    HW229618   3.644  12.664  11.214
 9241SOL     OW29619  12.657   4.864   8.776
 9241SOL    HW129620  12.703   4.780   8.782
 9241SOL    HW229621  12.657   4.884   8.682
 9242SOL     OW29622  14.204   9.933   6.584
 9242SOL    HW129623  14.180   9.949   6.492
 9242SOL    HW229624  14.290   9.972   6.593
 9243SOL     OW29625   2.553   6.416  10.162
 9243SOL    HW129626   2.542   6.441  10.071
 9243SOL    HW229627   2.598   6.331  10.158
 9244SOL     OW29628   2.202   8.208  10.437
 9244SOL    HW129629   2.256   8.220  10.515
 9244SOL    HW229630   2.123   8.258  10.454
 9245SOL     OW29631  13.810   6.292  14.112
 9245SOL    HW129632  13.787   6.378  14.147
 9245SOL    HW229633  13.739   6.270  14.052
 9246SOL     OW29634   6.779   4.739   4.004
 9246SOL    HW129635   6.705   4.738   4.065
 9246SOL    HW229636   6.846   4.790   4.048
 9247SOL     OW29637   9.296   3.580  13.212
 9247SOL    HW129638   9.368   3.629  13.171
 9247SOL    HW229639   9.237   3.648  13.244
 9248SOL     OW29640  12.520   8.248   8.025
 9248SOL    HW129641  12.427   8.224   8.030
 9248SOL    HW229642  12.566   8.166   8.043
 9249SOL     OW29643   6.834  13.488   0.850
 9249SOL    HW129644   6.837  13.434   0.771
 9249SOL    HW229645   6.909  13.458   0.902
 9250SOL     OW29646  10.133  11.506   7.559
 9250SOL    HW129647  10.197  11.480   7.625
 9250SOL    HW229648  10.089  11.582   7.596
 9251SOL     OW29649   7.164   2.642   2.883
 9251SOL    HW129650   7.129   2.731   2.889
 9251SOL    HW229651   7.086   2.586   2.889
 9252SOL     OW29652  12.124  14.355   3.722
 9252SOL    HW129653  12.073  14.375   3.801
 9252SOL    HW229654  12.215  14.355   3.752
 9253SOL     OW29655  10.386   8.519  11.273
 9253SOL    HW129656  10.450   8.517  11.202
 9253SOL    HW229657  10.405   8.600  11.320
 9254SOL     OW29658   9.956   4.830   1.285
 9254SOL    HW129659   9.925   4.818   1.375
 9254SOL    HW229660   9.911   4.908   1.254
 9255SOL     OW29661   0.620  13.291   2.438
 9255SOL    HW129662   0.665  13.208   2.455
 9255SOL    HW229663   0.604  13.327   2.525
 9256SOL     OW29664   3.041   0.082   4.372
 9256SOL    HW129665   3.059   0.040   4.287
 9256SOL    HW229666   3.095   0.161   4.371
 9257SOL     OW29667   6.503   5.814  14.437
 9257SOL    HW129668   6.580   5.766  14.467
 9257SOL    HW229669   6.535   5.865  14.362
 9258SOL     OW29670   1.488   9.946  11.833
 9258SOL    HW129671   1.394   9.957  11.842
 9258SOL    HW229672   1.526  10.006  11.898
 9259SOL     OW29673  10.589  13.085   5.219
 9259SOL    HW129674  10.681  13.079   5.246
 9259SOL    HW229675  10.569  12.998   5.185
 9260SOL     OW29676   4.056   3.745   9.586
 9260SOL    HW129677   4.050   3.650   9.577
 9260SOL    HW229678   3.981   3.779   9.537
 9261SOL     OW29679  12.621   8.297   6.973
 9261SOL    HW129680  12.633   8.377   7.024
 9261SOL    HW229681  12.613   8.228   7.040
 9262SOL     OW29682   9.244   0.789  13.816
 9262SOL    HW129683   9.269   0.786  13.723
 9262SOL    HW229684   9.301   0.856  13.854
 9263SOL     OW29685   2.472  14.629  12.518
 9263SOL    HW129686   2.488  14.674  12.601
 9263SOL    HW229687   2.508  14.689  12.452
 9264SOL     OW29688   2.706  12.061  12.902
 9264SOL    HW129689   2.704  11.966  12.886
 9264SOL    HW229690   2.794  12.087  12.876
 9265SOL     OW29691   5.122   1.591   9.232
 9265SOL    HW129692   5.127   1.545   9.315
 9265SOL    HW229693   5.086   1.677   9.254
 9266SOL     OW29694  13.698   8.871   9.476
 9266SOL    HW129695  13.638   8.917   9.535
 9266SOL    HW229696  13.675   8.903   9.388
 9267SOL     OW29697   8.930  13.796   0.825
 9267SOL    HW129698   8.977  13.824   0.904
 9267SOL    HW229699   8.939  13.701   0.824
 9268SOL     OW29700   9.532  13.164  13.456
 9268SOL    HW129701   9.514  13.220  13.532
 9268SOL    HW229702   9.458  13.104  13.453
 9269SOL     OW29703   2.424  10.532   5.575
 9269SOL    HW129704   2.455  10.493   5.658
 9269SOL    HW229705   2.329  10.532   5.583
 9270SOL     OW29706   5.356   9.343   9.648
 9270SOL    HW129707   5.343   9.273   9.585
 9270SOL    HW229708   5.271   9.387   9.654
 9271SOL     OW29709   0.272   6.884   4.593
 9271SOL    HW129710   0.367   6.891   4.579
 9271SOL    HW229711   0.238   6.847   4.512
 9272SOL     OW29712   5.279  11.677   0.097
 9272SOL    HW129713   5.247  11.741   0.033
 9272SOL    HW229714   5.199  11.635   0.130
 9273SOL     OW29715  11.555   3.658   0.806
 9273SOL    HW129716  11.599   3.587   0.761
 9273SOL    HW229717  11.527   3.620   0.890
 9274SOL     OW29718  14.470   9.238  12.346
 9274SOL    HW129719  14.513   9.319  12.374
 9274SOL    HW229720  14.474   9.181  12.423
 9275SOL     OW29721   1.689  10.799   0.317
 9275SOL    HW129722   1.626  10.848   0.370
 9275SOL    HW229723   1.635  10.759   0.249
 9276SOL     OW29724   0.896  14.457   3.197
 9276SOL    HW129725   0.819  14.484   3.146
 9276SOL    HW229726   0.879  14.490   3.285
 9277SOL     OW29727  14.229   2.716   2.973
 9277SOL    HW129728  14.281   2.788   2.939
 9277SOL    HW229729  14.291   2.660   3.019
 9278SOL     OW29730   2.076  14.693  11.366
 9278SOL    HW129731   2.163  14.732  11.368
 9278SOL    HW229732   2.049  14.687  11.457
 9279SOL     OW29733   5.344   4.444   4.780
 9279SOL    HW129734   5.418   4.386   4.797
 9279SOL    HW229735   5.368   4.490   4.700
 9280SOL     OW29736   2.855   8.509   1.193
 9280SOL    HW129737   2.814   8.563   1.125
 9280SOL    HW229738   2.941   8.486   1.156
 9281SOL     OW29739   4.075  12.137   7.798
 9281SOL    HW129740   4.118  12.052   7.784
 9281SOL    HW229741   4.096  12.188   7.720
 9282SOL     OW29742   4.949  11.332   7.156
 9282SOL    HW129743   4.995  11.265   7.107
 9282SOL    HW229744   4.920  11.395   7.090
 9283SOL     OW29745  12.028   1.598   9.280
 9283SOL    HW129746  12.068   1.536   9.340
 9283SOL    HW229747  12.090   1.605   9.207
 9284SOL     OW29748   3.994   0.160  13.483
 9284SOL    HW129749   4.031   0.134  13.567
 9284SOL    HW229750   4.000   0.256  13.482
 9285SOL     OW29751   6.034   6.908  14.561
 9285SOL    HW129752   5.979   6.985  14.579
 9285SOL    HW229753   5.971   6.837  14.549
 9286SOL     OW29754  12.002  14.597   7.320
 9286SOL    HW129755  12.088  14.604   7.278
 9286SOL    HW229756  12.021  14.587   7.413
 9287SOL     OW29757   8.038   0.489   9.067
 9287SOL    HW129758   8.076   0.554   9.007
 9287SOL    HW229759   7.982   0.540   9.125
 9288SOL     OW29760  11.129  13.619   6.302
 9288SOL    HW129761  11.089  13.669   6.372
 9288SOL    HW229762  11.157  13.537   6.343
 9289SOL     OW29763   6.354  14.530   3.593
 9289SOL    HW129764   6.386  14.584   3.665
 9289SOL    HW229765   6.369  14.584   3.515
 9290SOL     OW29766   3.357  11.112   9.739
 9290SOL    HW129767   3.315  11.197   9.724
 9290SOL    HW229768   3.446  11.123   9.705
 9291SOL     OW29769   5.336   5.899  10.358
 9291SOL    HW129770   5.295   5.926  10.275
 9291SOL    HW229771   5.281   5.939  10.425
 9292SOL     OW29772   2.465   9.745   6.528
 9292SOL    HW129773   2.450   9.651   6.521
 9292SOL    HW229774   2.514   9.767   6.448
 9293SOL     OW29775   9.492  11.149   2.941
 9293SOL    HW129776   9.435  11.072   2.948
 9293SOL    HW229777   9.500  11.181   3.031
 9294SOL     OW29778   2.075   1.137  13.014
 9294SOL    HW129779   1.984   1.116  13.034
 9294SOL    HW229780   2.074   1.158  12.921
 9295SOL     OW29781  14.338  10.326   1.215
 9295SOL    HW129782  14.356  10.379   1.293
 9295SOL    HW229783  14.244  10.339   1.198
 9296SOL     OW29784  10.343  14.069   1.603
 9296SOL    HW129785  10.267  14.090   1.549
 9296SOL    HW229786  10.305  14.043   1.687
 9297SOL     OW29787   9.807   9.863   3.962
 9297SOL    HW129788   9.855   9.824   4.035
 9297SOL    HW229789   9.860   9.842   3.885
 9298SOL     OW29790   4.973   3.452   7.249
 9298SOL    HW129791   4.915   3.500   7.190
 9298SOL    HW229792   5.046   3.512   7.264
 9299SOL     OW29793  11.623   2.483   0.418
 9299SOL    HW129794  11.607   2.557   0.360
 9299SOL    HW229795  11.688   2.514   0.480
 9300SOL     OW29796   6.772   8.997   9.204
 9300SOL    HW129797   6.724   9.005   9.122
 9300SOL    HW229798   6.723   9.051   9.266
 9301SOL     OW29799   5.443  14.238   7.550
 9301SOL    HW129800   5.463  14.243   7.644
 9301SOL    HW229801   5.433  14.145   7.532
 9302SOL     OW29802   4.970   1.042  10.959
 9302SOL    HW129803   5.037   0.976  10.981
 9302SOL    HW229804   4.889   0.992  10.950
 9303SOL     OW29805  11.847   6.059  13.827
 9303SOL    HW129806  11.752   6.052  13.815
 9303SOL    HW229807  11.870   5.984  13.881
 9304SOL     OW29808   3.249   0.836  12.191
 9304SOL    HW129809   3.177   0.773  12.191
 9304SOL    HW229810   3.218   0.908  12.246
 9305SOL     OW29811   5.675  14.035   2.740
 9305SOL    HW129812   5.740  13.967   2.754
 9305SOL    HW229813   5.619  14.001   2.670
 9306SOL     OW29814   2.004   9.758  13.770
 9306SOL    HW129815   2.045   9.844  13.780
 9306SOL    HW229816   1.928   9.774  13.714
 9307SOL     OW29817  14.841   5.375  13.594
 9307SOL    HW129818  14.755   5.417  13.604
 9307SOL    HW229819   0.028   5.446  13.604
 9308SOL     OW29820   0.390   5.646   3.964
 9308SOL    HW129821   0.340   5.652   4.046
 9308SOL    HW229822   0.482   5.644   3.993
 9309SOL     OW29823   6.785   1.932  13.936
 9309SOL    HW129824   6.710   1.992  13.930
 9309SOL    HW229825   6.780   1.880  13.855
 9310SOL     OW29826   3.868  10.874   3.126
 9310SOL    HW129827   3.827  10.847   3.208
 9310SOL    HW229828   3.961  10.878   3.145
 9311SOL     OW29829   8.660   7.151  14.853
 9311SOL    HW129830   8.646   7.226  14.795
 9311SOL    HW229831   8.572   7.121  14.874
 9312SOL     OW29832   4.038  13.392   5.428
 9312SOL    HW129833   4.066  13.305   5.398
 9312SOL    HW229834   4.059  13.392   5.522
 9313SOL     OW29835   1.862   5.769  12.650
 9313SOL    HW129836   1.844   5.729  12.735
 9313SOL    HW229837   1.957   5.780  12.649
 9314SOL     OW29838   6.646   0.320   9.272
 9314SOL    HW129839   6.629   0.325   9.366
 9314SOL    HW229840   6.576   0.372   9.232
 9315SOL     OW29841  14.863  10.474   0.891
 9315SOL    HW129842   0.080  10.499   0.896
 9315SOL    HW229843  14.860  10.415   0.815
 9316SOL     OW29844  12.855   0.258   8.258
 9316SOL    HW129845  12.827   0.227   8.344
 9316SOL    HW229846  12.950   0.250   8.259
 9317SOL     OW29847   7.639   9.117  11.795
 9317SOL    HW129848   7.700   9.184  11.762
 9317SOL    HW229849   7.661   9.038  11.745
 9318SOL     OW29850   3.138   1.169   4.312
 9318SOL    HW129851   3.076   1.241   4.304
 9318SOL    HW229852   3.207   1.190   4.250
 9319SOL     OW29853  13.160   7.984  11.246
 9319SOL    HW129854  13.145   8.071  11.285
 9319SOL    HW229855  13.139   7.996  11.154
 9320SOL     OW29856   5.762   8.853   1.472
 9320SOL    HW129857   5.753   8.947   1.485
 9320SOL    HW229858   5.675   8.817   1.489
 9321SOL     OW29859  12.864   9.559   8.121
 9321SOL    HW129860  12.816   9.502   8.182
 9321SOL    HW229861  12.854   9.516   8.036
 9322SOL     OW29862   3.278   1.191   0.712
 9322SOL    HW129863   3.338   1.266   0.711
 9322SOL    HW229864   3.313   1.133   0.644
 9323SOL     OW29865  10.018   8.189   4.159
 9323SOL    HW129866  10.043   8.183   4.067
 9323SOL    HW229867  10.101   8.185   4.207
 9324SOL     OW29868   5.426   9.748   4.811
 9324SOL    HW129869   5.471   9.673   4.852
 9324SOL    HW229870   5.457   9.824   4.860
 9325SOL     OW29871   9.995   7.814  10.647
 9325SOL    HW129872   9.912   7.817  10.693
 9325SOL    HW229873   9.993   7.732  10.598
 9326SOL     OW29874  12.024   5.715   5.445
 9326SOL    HW129875  12.040   5.672   5.529
 9326SOL    HW229876  11.951   5.774   5.462
 9327SOL     OW29877   2.559   3.671   4.676
 9327SOL    HW129878   2.568   3.644   4.585
 9327SOL    HW229879   2.518   3.596   4.720
 9328SOL     OW29880  13.632   6.805  12.536
 9328SOL    HW129881  13.567   6.857  12.488
 9328SOL    HW229882  13.604   6.715  12.526
 9329SOL     OW29883  10.708   6.004   7.840
 9329SOL    HW129884  10.772   6.004   7.769
 9329SOL    HW229885  10.748   5.951   7.909
 9330SOL     OW29886  13.965  13.339   5.451
 9330SOL    HW129887  13.983  13.312   5.361
 9330SOL    HW229888  13.882  13.386   5.446
 9331SOL     OW29889   1.025  14.067   1.998
 9331SOL    HW129890   0.933  14.082   1.980
 9331SOL    HW229891   1.034  14.082   2.092
 9332SOL     OW29892   2.976   9.906   8.475
 9332SOL    HW129893   2.991  10.000   8.487
 9332SOL    HW229894   2.933   9.899   8.390
 9333SOL     OW29895   7.662  13.703   5.063
 9333SOL    HW129896   7.713  13.706   5.145
 9333SOL    HW229897   7.728  13.709   4.994
 9334SOL     OW29898  13.718   9.475   8.922
 9334SOL    HW129899  13.764   9.499   9.002
 9334SOL    HW229900  13.778   9.497   8.851
 9335SOL     OW29901   4.045  13.234   1.992
 9335SOL    HW129902   3.950  13.222   1.997
 9335SOL    HW229903   4.060  13.267   1.903
 9336SOL     OW29904  14.805   0.588   6.962
 9336SOL    HW129905  14.791   0.494   6.961
 9336SOL    HW229906  14.812   0.611   7.054
 9337SOL     OW29907   5.190   3.211   1.416
 9337SOL    HW129908   5.207   3.212   1.322
 9337SOL    HW229909   5.120   3.147   1.428
 9338SOL     OW29910   3.598   4.272   2.983
 9338SOL    HW129911   3.531   4.225   3.033
 9338SOL    HW229912   3.565   4.362   2.979
 9339SOL     OW29913   0.146   7.145  11.738
 9339SOL    HW129914   0.206   7.202  11.786
 9339SOL    HW229915   0.201   7.074  11.706
 9340SOL     OW29916  13.331   5.348  12.221
 9340SOL    HW129917  13.368   5.278  12.275
 9340SOL    HW229918  13.354   5.324  12.132
 9341SOL     OW29919   2.864  11.555   8.719
 9341SOL    HW129920   2.952  11.592   8.717
 9341SOL    HW229921   2.836  11.564   8.810
 9342SOL     OW29922  13.557   1.381  14.461
 9342SOL    HW129923  13.517   1.460  14.425
 9342SOL    HW229924  13.574   1.326  14.385
 9343SOL     OW29925  13.702   6.303   0.759
 9343SOL    HW129926  13.671   6.319   0.669
 9343SOL    HW229927  13.746   6.385   0.783
 9344SOL     OW29928   1.005  13.821  10.904
 9344SOL    HW129929   0.916  13.794  10.926
 9344SOL    HW229930   1.061  13.757  10.947
 9345SOL     OW29931   4.273   0.647  12.199
 9345SOL    HW129932   4.194   0.701  12.190
 9345SOL    HW229933   4.279   0.598  12.116
 9346SOL     OW29934  14.412   1.775   0.266
 9346SOL    HW129935  14.396   1.869   0.259
 9346SOL    HW229936  14.403   1.743   0.176
 9347SOL     OW29937   3.024   0.080  10.948
 9347SOL    HW129938   3.066   0.166  10.953
 9347SOL    HW229939   3.095   0.019  10.930
 9348SOL     OW29940   7.639   9.083   8.119
 9348SOL    HW129941   7.693   9.090   8.041
 9348SOL    HW229942   7.596   9.168   8.127
 9349SOL     OW29943   7.697  12.069   9.785
 9349SOL    HW129944   7.727  12.023   9.707
 9349SOL    HW229945   7.747  12.029   9.857
 9350SOL     OW29946   2.590   7.011   9.787
 9350SOL    HW129947   2.672   7.026   9.739
 9350SOL    HW229948   2.524   7.000   9.719
 9351SOL     OW29949  12.922   6.020   7.980
 9351SOL    HW129950  12.876   6.079   7.920
 9351SOL    HW229951  12.999   6.069   8.008
 9352SOL     OW29952  13.980   2.417  10.358
 9352SOL    HW129953  14.029   2.497  10.341
 9352SOL    HW229954  14.042   2.346  10.342
 9353SOL     OW29955  13.294   2.874   4.583
 9353SOL    HW129956  13.388   2.870   4.604
 9353SOL    HW229957  13.286   2.950   4.526
 9354SOL     OW29958   8.000   6.738   9.130
 9354SOL    HW129959   7.981   6.802   9.197
 9354SOL    HW229960   8.059   6.675   9.172
 9355SOL     OW29961   9.598  14.771   9.625
 9355SOL    HW129962   9.663  14.831   9.588
 9355SOL    HW229963   9.570  14.814   9.706
 9356SOL     OW29964   1.870   3.931   6.624
 9356SOL    HW129965   1.827   3.973   6.698
 9356SOL    HW229966   1.939   3.993   6.598
 9357SOL     OW29967  10.401   3.004   3.440
 9357SOL    HW129968  10.404   3.024   3.346
 9357SOL    HW229969  10.485   2.961   3.458
 9358SOL     OW29970  12.943   7.419   1.772
 9358SOL    HW129971  12.876   7.362   1.735
 9358SOL    HW229972  13.025   7.386   1.736
 9359SOL     OW29973  13.837   3.396   4.982
 9359SOL    HW129974  13.776   3.364   5.049
 9359SOL    HW229975  13.903   3.327   4.975
 9360SOL     OW29976  13.308   6.013  14.493
 9360SOL    HW129977  13.307   5.955  14.416
 9360SOL    HW229978  13.226   6.063  14.487
 9361SOL     OW29979   5.994   7.338   8.945
 9361SOL    HW129980   5.973   7.346   9.038
 9361SOL    HW229981   5.969   7.249   8.922
 9362SOL     OW29982   4.234  11.530   9.003
 9362SOL    HW129983   4.313  11.544   9.055
 9362SOL    HW229984   4.265  11.526   8.912
 9363SOL     OW29985  12.433   0.507  13.102
 9363SOL    HW129986  12.346   0.472  13.085
 9363SOL    HW229987  12.486   0.431  13.124
 9364SOL     OW29988   7.161  14.581  14.712
 9364SOL    HW129989   7.146  14.486  14.719
 9364SOL    HW229990   7.087  14.620  14.758
 9365SOL     OW29991  12.781  11.216   4.722
 9365SOL    HW129992  12.744  11.147   4.778
 9365SOL    HW229993  12.705  11.258   4.682
 9366SOL     OW29994   8.521   9.869   5.534
 9366SOL    HW129995   8.573   9.946   5.514
 9366SOL    HW229996   8.545   9.806   5.466
 9367SOL     OW29997   6.729  13.043  11.716
 9367SOL    HW129998   6.806  12.995  11.747
 9367SOL    HW229999   6.723  13.022  11.623
 9368SOL     OW30000   8.944  12.776   3.865
 9368SOL    HW130001   8.862  12.747   3.905
 9368SOL    HW230002   8.932  12.870   3.851
 9369SOL     OW30003  10.659   5.927   3.689
 9369SOL    HW130004  10.627   5.838   3.701
 9369SOL    HW230005  10.593   5.983   3.732
 9370SOL     OW30006   3.526   4.460   5.058
 9370SOL    HW130007   3.594   4.504   5.007
 9370SOL    HW230008   3.457   4.525   5.068
 9371SOL     OW30009  10.612   8.359   2.128
 9371SOL    HW130010  10.570   8.380   2.045
 9371SOL    HW230011  10.539   8.340   2.187
 9372SOL     OW30012   0.432   1.367   6.157
 9372SOL    HW130013   0.360   1.305   6.141
 9372SOL    HW230014   0.389   1.452   6.168
 9373SOL     OW30015   8.152   8.934   3.171
 9373SOL    HW130016   8.143   8.842   3.145
 9373SOL    HW230017   8.101   8.983   3.106
 9374SOL     OW30018   3.045   0.616  13.595
 9374SOL    HW130019   3.085   0.567  13.667
 9374SOL    HW230020   3.056   0.559  13.518
 9375SOL     OW30021  11.972  14.788   1.914
 9375SOL    HW130022  11.949   0.004   1.897
 9375SOL    HW230023  11.888  14.742   1.916
 9376SOL     OW30024   0.378   8.560   9.443
 9376SOL    HW130025   0.392   8.472   9.410
 9376SOL    HW230026   0.355   8.611   9.366
 9377SOL     OW30027   3.177   5.916   7.060
 9377SOL    HW130028   3.266   5.941   7.086
 9377SOL    HW230029   3.158   5.838   7.112
 9378SOL     OW30030   3.983   3.799   0.959
 9378SOL    HW130031   4.025   3.774   0.876
 9378SOL    HW230032   3.942   3.719   0.991
 9379SOL     OW30033  12.861  10.175  12.003
 9379SOL    HW130034  12.801  10.129  12.062
 9379SOL    HW230035  12.932  10.205  12.059
 9380SOL     OW30036   0.463   7.680   2.370
 9380SOL    HW130037   0.554   7.651   2.377
 9380SOL    HW230038   0.459   7.758   2.425
 9381SOL     OW30039   7.337   2.192   1.644
 9381SOL    HW130040   7.376   2.259   1.700
 9381SOL    HW230041   7.375   2.109   1.675
 9382SOL     OW30042  13.450   9.860   3.077
 9382SOL    HW130043  13.376   9.839   3.020
 9382SOL    HW230044  13.413   9.860   3.165
 9383SOL     OW30045   4.629   0.011  14.134
 9383SOL    HW130046   4.601   0.101  14.152
 9383SOL    HW230047   4.656   0.012  14.042
 9384SOL     OW30048  10.067   9.451  12.727
 9384SOL    HW130049  10.149   9.500  12.727
 9384SOL    HW230050  10.072   9.396  12.649
 9385SOL     OW30051   3.747   5.891   4.054
 9385SOL    HW130052   3.763   5.817   4.114
 9385SOL    HW230053   3.812   5.880   3.985
 9386SOL     OW30054   0.087   4.963   2.354
 9386SOL    HW130055   0.026   4.890   2.367
 9386SOL    HW230056   0.034   5.033   2.316
 9387SOL     OW30057   3.095  12.962  11.594
 9387SOL    HW130058   3.010  13.007  11.595
 9387SOL    HW230059   3.136  12.992  11.513
 9388SOL     OW30060   6.745   4.388   0.917
 9388SOL    HW130061   6.770   4.475   0.888
 9388SOL    HW230062   6.767   4.386   1.010
 9389SOL     OW30063   2.122   2.715  10.962
 9389SOL    HW130064   2.134   2.635  11.014
 9389SOL    HW230065   2.138   2.786  11.024
 9390SOL     OW30066  10.219  11.013   0.425
 9390SOL    HW130067  10.190  11.104   0.436
 9390SOL    HW230068  10.308  11.021   0.391
 9391SOL     OW30069   3.562   7.703   4.314
 9391SOL    HW130070   3.627   7.773   4.317
 9391SOL    HW230071   3.557   7.679   4.221
 9392SOL     OW30072  12.500  10.143   4.847
 9392SOL    HW130073  12.511  10.214   4.910
 9392SOL    HW230074  12.541  10.176   4.767
 9393SOL     OW30075  11.544  12.932   0.514
 9393SOL    HW130076  11.563  12.941   0.421
 9393SOL    HW230077  11.614  12.875   0.547
 9394SOL     OW30078   1.020   9.539   6.075
 9394SOL    HW130079   1.098   9.539   6.130
 9394SOL    HW230080   1.033   9.612   6.014
 9395SOL     OW30081   6.505   0.256   2.422
 9395SOL    HW130082   6.539   0.198   2.354
 9395SOL    HW230083   6.544   0.341   2.403
 9396SOL     OW30084   6.263   0.428   9.811
 9396SOL    HW130085   6.292   0.483   9.884
 9396SOL    HW230086   6.317   0.349   9.817
 9397SOL     OW30087  13.199   1.228   8.526
 9397SOL    HW130088  13.240   1.292   8.584
 9397SOL    HW230089  13.257   1.151   8.530
 9398SOL     OW30090   2.672   0.866   1.856
 9398SOL    HW130091   2.609   0.804   1.892
 9398SOL    HW230092   2.628   0.902   1.779
 9399SOL     OW30093   4.063   4.487   9.122
 9399SOL    HW130094   4.028   4.575   9.125
 9399SOL    HW230095   4.101   4.479   9.034
 9400SOL     OW30096   8.220  14.385  10.997
 9400SOL    HW130097   8.271  14.456  11.036
 9400SOL    HW230098   8.157  14.360  11.064
 9401SOL     OW30099  13.311  12.621   1.526
 9401SOL    HW130100  13.348  12.604   1.613
 9401SOL    HW230101  13.315  12.537   1.481
 9402SOL     OW30102   9.750   0.508  11.439
 9402SOL    HW130103   9.724   0.417  11.422
 9402SOL    HW230104   9.707   0.558  11.370
 9403SOL     OW30105   8.177   8.620   5.280
 9403SOL    HW130106   8.089   8.592   5.304
 9403SOL    HW230107   8.167   8.711   5.252
 9404SOL     OW30108   8.639   4.150   3.306
 9404SOL    HW130109   8.704   4.130   3.373
 9404SOL    HW230110   8.657   4.088   3.236
 9405SOL     OW30111   2.390   2.529   5.398
 9405SOL    HW130112   2.350   2.479   5.326
 9405SOL    HW230113   2.482   2.504   5.396
 9406SOL     OW30114  14.248  12.503   4.750
 9406SOL    HW130115  14.271  12.542   4.834
 9406SOL    HW230116  14.185  12.563   4.712
 9407SOL     OW30117   6.316   6.187   5.875
 9407SOL    HW130118   6.379   6.130   5.920
 9407SOL    HW230119   6.280   6.132   5.806
 9408SOL     OW30120   1.550  12.081   9.287
 9408SOL    HW130121   1.508  12.035   9.213
 9408SOL    HW230122   1.492  12.063   9.361
 9409SOL     OW30123   6.521   3.365   0.843
 9409SOL    HW130124   6.592   3.320   0.890
 9409SOL    HW230125   6.498   3.439   0.900
 9410SOL     OW30126   1.497  13.888  13.728
 9410SOL    HW130127   1.443  13.822  13.772
 9410SOL    HW230128   1.453  13.971  13.746
 9411SOL     OW30129  13.274  13.316   6.331
 9411SOL    HW130130  13.326  13.247   6.290
 9411SOL    HW230131  13.259  13.379   6.260
 9412SOL     OW30132   9.196  11.233   0.256
 9412SOL    HW130133   9.158  11.151   0.224
 9412SOL    HW230134   9.278  11.205   0.298
 9413SOL     OW30135   9.019   9.853   2.510
 9413SOL    HW130136   9.007   9.874   2.417
 9413SOL    HW230137   9.113   9.860   2.524
 9414SOL     OW30138   8.826   1.078   4.774
 9414SOL    HW130139   8.774   1.034   4.706
 9414SOL    HW230140   8.858   1.006   4.829
 9415SOL     OW30141   8.831   2.618   2.345
 9415SOL    HW130142   8.812   2.558   2.417
 9415SOL    HW230143   8.745   2.647   2.315
 9416SOL     OW30144   0.112   9.135   1.699
 9416SOL    HW130145   0.186   9.095   1.744
 9416SOL    HW230146   0.095   9.216   1.746
 9417SOL     OW30147   3.748   2.513  12.610
 9417SOL    HW130148   3.678   2.572  12.639
 9417SOL    HW230149   3.718   2.481  12.525
 9418SOL     OW30150   6.028   6.282   0.686
 9418SOL    HW130151   5.954   6.324   0.643
 9418SOL    HW230152   5.997   6.195   0.710
 9419SOL     OW30153   5.681   8.325   9.240
 9419SOL    HW130154   5.618   8.391   9.268
 9419SOL    HW230155   5.763   8.351   9.280
 9420SOL     OW30156   6.912   5.590  10.203
 9420SOL    HW130157   6.861   5.670  10.211
 9420SOL    HW230158   6.894   5.559  10.114
 9421SOL     OW30159   5.361   2.162   5.162
 9421SOL    HW130160   5.363   2.198   5.251
 9421SOL    HW230161   5.346   2.238   5.106
 9422SOL     OW30162   5.412   0.005  12.312
 9422SOL    HW130163   5.337   0.001  12.371
 9422SOL    HW230164   5.488   0.005  12.371
 9423SOL     OW30165   0.785   2.091   0.616
 9423SOL    HW130166   0.803   2.183   0.638
 9423SOL    HW230167   0.690   2.084   0.617
 9424SOL     OW30168  14.287   1.390   6.735
 9424SOL    HW130169  14.236   1.352   6.664
 9424SOL    HW230170  14.332   1.465   6.696
 9425SOL     OW30171   3.393   0.442   4.857
 9425SOL    HW130172   3.394   0.460   4.951
 9425SOL    HW230173   3.359   0.353   4.850
 9426SOL     OW30174  11.480   3.059  11.467
 9426SOL    HW130175  11.510   3.150  11.467
 9426SOL    HW230176  11.527   3.018  11.395
 9427SOL     OW30177   4.344   6.302   0.267
 9427SOL    HW130178   4.389   6.305   0.183
 9427SOL    HW230179   4.413   6.283   0.331
 9428SOL     OW30180   2.383  12.149   4.835
 9428SOL    HW130181   2.346  12.211   4.773
 9428SOL    HW230182   2.477  12.151   4.819
 9429SOL     OW30183   4.680   8.047   2.593
 9429SOL    HW130184   4.659   8.134   2.627
 9429SOL    HW230185   4.767   8.056   2.556
 9430SOL     OW30186   3.750   4.140   0.856
 9430SOL    HW130187   3.765   4.235   0.856
 9430SOL    HW230188   3.803   4.108   0.930
 9431SOL     OW30189  11.680  12.618   2.334
 9431SOL    HW130190  11.743  12.668   2.282
 9431SOL    HW230191  11.730  12.588   2.410
 9432SOL     OW30192   0.364  13.676   3.501
 9432SOL    HW130193   0.382  13.770   3.494
 9432SOL    HW230194   0.355  13.660   3.595
 9433SOL     OW30195  11.394   1.104   0.621
 9433SOL    HW130196  11.431   1.139   0.540
 9433SOL    HW230197  11.469   1.085   0.676
 9434SOL     OW30198   4.146   1.320   8.699
 9434SOL    HW130199   4.144   1.360   8.786
 9434SOL    HW230200   4.067   1.265   8.696
 9435SOL     OW30201  13.364   3.073  12.158
 9435SOL    HW130202  13.426   3.073  12.085
 9435SOL    HW230203  13.402   3.013  12.222
 9436SOL     OW30204   8.720   0.316   1.924
 9436SOL    HW130205   8.706   0.242   1.864
 9436SOL    HW230206   8.762   0.277   2.001
 9437SOL     OW30207  11.678   5.793   9.036
 9437SOL    HW130208  11.613   5.797   8.965
 9437SOL    HW230209  11.733   5.870   9.022
 9438SOL     OW30210   9.997   0.159  14.199
 9438SOL    HW130211   9.967   0.224  14.261
 9438SOL    HW230212   9.940   0.170  14.122
 9439SOL     OW30213   4.571   8.452   9.969
 9439SOL    HW130214   4.510   8.501   9.914
 9439SOL    HW230215   4.630   8.518  10.005
 9440SOL     OW30216  10.284   4.159  13.703
 9440SOL    HW130217  10.283   4.202  13.788
 9440SOL    HW230218  10.197   4.174  13.667
 9441SOL     OW30219  12.984   4.929   0.773
 9441SOL    HW130220  12.998   4.836   0.789
 9441SOL    HW230221  13.046   4.951   0.704
 9442SOL     OW30222   6.526  13.751   0.797
 9442SOL    HW130223   6.551  13.695   0.724
 9442SOL    HW230224   6.561  13.707   0.874
 9443SOL     OW30225   4.602   0.559   0.990
 9443SOL    HW130226   4.629   0.526   1.075
 9443SOL    HW230227   4.618   0.487   0.929
 9444SOL     OW30228  12.797  10.987   1.910
 9444SOL    HW130229  12.796  11.040   1.830
 9444SOL    HW230230  12.705  10.981   1.936
 9445SOL     OW30231   2.373  13.256   4.361
 9445SOL    HW130232   2.356  13.260   4.267
 9445SOL    HW230233   2.288  13.270   4.402
 9446SOL     OW30234   9.459  12.830   9.142
 9446SOL    HW130235   9.550  12.825   9.170
 9446SOL    HW230236   9.435  12.922   9.152
 9447SOL     OW30237  13.852  10.087   2.864
 9447SOL    HW130238  13.900  10.008   2.891
 9447SOL    HW230239  13.862  10.147   2.937
 9448SOL     OW30240  13.017   3.552   9.692
 9448SOL    HW130241  12.980   3.495   9.759
 9448SOL    HW230242  13.107   3.569   9.720
 9449SOL     OW30243   6.151  12.145   0.115
 9449SOL    HW130244   6.193  12.062   0.137
 9449SOL    HW230245   6.090  12.160   0.188
 9450SOL     OW30246  10.343   8.439   5.934
 9450SOL    HW130247  10.377   8.355   5.904
 9450SOL    HW230248  10.307   8.422   6.020
 9451SOL     OW30249   7.444  14.221   0.184
 9451SOL    HW130250   7.479  14.295   0.233
 9451SOL    HW230251   7.509  14.152   0.196
 9452SOL     OW30252  14.771   8.323   9.818
 9452SOL    HW130253  14.850   8.372   9.798
 9452SOL    HW230254  14.770   8.251   9.755
 9453SOL     OW30255   3.333   4.023   5.007
 9453SOL    HW130256   3.307   4.053   4.920
 9453SOL    HW230257   3.253   3.986   5.044
 9454SOL     OW30258   6.764   0.021   1.175
 9454SOL    HW130259   6.792  14.817   1.223
 9454SOL    HW230260   6.676   0.039   1.208
 9455SOL     OW30261  11.197   8.144   4.519
 9455SOL    HW130262  11.226   8.229   4.485
 9455SOL    HW230263  11.228   8.142   4.609
 9456SOL     OW30264   4.291  14.336   7.067
 9456SOL    HW130265   4.316  14.417   7.022
 9456SOL    HW230266   4.214  14.305   7.020
 9457SOL     OW30267   0.424   0.015   5.375
 9457SOL    HW130268   0.486   0.033   5.305
 9457SOL    HW230269   0.473  14.837   5.438
 9458SOL     OW30270   3.980   7.914   9.617
 9458SOL    HW130271   3.924   7.888   9.544
 9458SOL    HW230272   4.038   7.981   9.581
 9459SOL     OW30273   7.822  14.509   7.389
 9459SOL    HW130274   7.856  14.598   7.383
 9459SOL    HW230275   7.814  14.480   7.298
 9460SOL     OW30276  12.231  13.781   6.372
 9460SOL    HW130277  12.262  13.840   6.440
 9460SOL    HW230278  12.156  13.826   6.334
 9461SOL     OW30279  11.814   9.366  10.168
 9461SOL    HW130280  11.740   9.428  10.166
 9461SOL    HW230281  11.835   9.350  10.076
 9462SOL     OW30282   9.425   9.680   9.095
 9462SOL    HW130283   9.369   9.626   9.038
 9462SOL    HW230284   9.507   9.631   9.102
 9463SOL     OW30285  11.742  10.613   0.944
 9463SOL    HW130286  11.653  10.647   0.961
 9463SOL    HW230287  11.788  10.687   0.906
 9464SOL     OW30288   7.135   0.867   6.106
 9464SOL    HW130289   7.059   0.810   6.120
 9464SOL    HW230290   7.211   0.810   6.118
 9465SOL     OW30291  11.566   2.758   8.332
 9465SOL    HW130292  11.531   2.746   8.420
 9465SOL    HW230293  11.661   2.763   8.344
 9466SOL     OW30294  13.985   7.921   7.165
 9466SOL    HW130295  13.905   7.938   7.115
 9466SOL    HW230296  14.056   7.937   7.102
 9467SOL     OW30297   8.044   5.141   0.071
 9467SOL    HW130298   8.035   5.234   0.054
 9467SOL    HW230299   7.968   5.101   0.028
 9468SOL     OW30300  13.880   2.454  12.688
 9468SOL    HW130301  13.836   2.540  12.689
 9468SOL    HW230302  13.877   2.425  12.779
 9469SOL     OW30303  13.803   5.761  14.570
 9469SOL    HW130304  13.878   5.786  14.515
 9469SOL    HW230305  13.816   5.667  14.587
 9470SOL     OW30306  13.341  13.187  13.776
 9470SOL    HW130307  13.388  13.264  13.745
 9470SOL    HW230308  13.367  13.117  13.717
 9471SOL     OW30309  11.340   4.993   2.369
 9471SOL    HW130310  11.433   5.004   2.389
 9471SOL    HW230311  11.300   5.078   2.390
 9472SOL     OW30312   2.024   7.101   4.648
 9472SOL    HW130313   2.045   7.095   4.742
 9472SOL    HW230314   2.050   7.190   4.623
 9473SOL     OW30315   1.593   3.380  11.061
 9473SOL    HW130316   1.653   3.454  11.057
 9473SOL    HW230317   1.559   3.381  11.150
 9474SOL     OW30318   9.879   7.923   4.275
 9474SOL    HW130319   9.959   7.908   4.225
 9474SOL    HW230320   9.824   7.976   4.218
 9475SOL     OW30321   7.542   3.790  13.218
 9475SOL    HW130322   7.617   3.843  13.244
 9475SOL    HW230323   7.553   3.708  13.266
 9476SOL     OW30324   0.110  14.800   2.641
 9476SOL    HW130325   0.131   0.013   2.610
 9476SOL    HW230326   0.186  14.747   2.618
 9477SOL     OW30327  14.379   4.927   7.041
 9477SOL    HW130328  14.331   4.997   6.997
 9477SOL    HW230329  14.325   4.849   7.028
 9478SOL     OW30330   7.461   8.629   8.372
 9478SOL    HW130331   7.368   8.645   8.359
 9478SOL    HW230332   7.498   8.623   8.284
 9479SOL     OW30333   0.337   3.551   3.611
 9479SOL    HW130334   0.317   3.520   3.699
 9479SOL    HW230335   0.252   3.558   3.568
 9480SOL     OW30336   1.164   4.996  11.906
 9480SOL    HW130337   1.246   4.996  11.858
 9480SOL    HW230338   1.125   5.082  11.888
 9481SOL     OW30339   6.202   2.792   1.567
 9481SOL    HW130340   6.219   2.761   1.477
 9481SOL    HW230341   6.285   2.781   1.612
 9482SOL     OW30342  11.371   9.828   5.152
 9482SOL    HW130343  11.341   9.887   5.222
 9482SOL    HW230344  11.371   9.741   5.192
 9483SOL     OW30345   3.222  12.441  12.922
 9483SOL    HW130346   3.223  12.355  12.880
 9483SOL    HW230347   3.262  12.427  13.008
 9484SOL     OW30348  13.231  11.204  11.209
 9484SOL    HW130349  13.246  11.297  11.195
 9484SOL    HW230350  13.177  11.200  11.288
 9485SOL     OW30351   3.866  12.644   7.586
 9485SOL    HW130352   3.787  12.590   7.574
 9485SOL    HW230353   3.924  12.591   7.640
 9486SOL     OW30354   5.156   4.412  12.431
 9486SOL    HW130355   5.121   4.470  12.363
 9486SOL    HW230356   5.215   4.353  12.384
 9487SOL     OW30357   7.737   5.728   3.408
 9487SOL    HW130358   7.693   5.795   3.462
 9487SOL    HW230359   7.726   5.759   3.318
 9488SOL     OW30360  10.724   8.709  13.780
 9488SOL    HW130361  10.803   8.756  13.751
 9488SOL    HW230362  10.663   8.719  13.707
 9489SOL     OW30363   0.305  11.311  13.965
 9489SOL    HW130364   0.303  11.397  13.923
 9489SOL    HW230365   0.350  11.327  14.049
 9490SOL     OW30366  13.569   9.510  12.830
 9490SOL    HW130367  13.500   9.503  12.764
 9490SOL    HW230368  13.649   9.490  12.783
 9491SOL     OW30369   2.979  10.230   8.117
 9491SOL    HW130370   2.893  10.209   8.080
 9491SOL    HW230371   2.961  10.257   8.207
 9492SOL     OW30372   4.106   3.547   6.399
 9492SOL    HW130373   4.175   3.613   6.394
 9492SOL    HW230374   4.043   3.571   6.331
 9493SOL     OW30375  12.569   7.290   5.058
 9493SOL    HW130376  12.590   7.260   5.147
 9493SOL    HW230377  12.476   7.269   5.047
 9494SOL     OW30378   7.493   6.454   0.711
 9494SOL    HW130379   7.453   6.401   0.643
 9494SOL    HW230380   7.420   6.488   0.762
 9495SOL     OW30381   6.485   6.619  12.876
 9495SOL    HW130382   6.542   6.677  12.926
 9495SOL    HW230383   6.471   6.544  12.933
 9496SOL     OW30384  11.233  10.195   8.455
 9496SOL    HW130385  11.147  10.235   8.469
 9496SOL    HW230386  11.221  10.104   8.482
 9497SOL     OW30387   9.885  13.050   9.100
 9497SOL    HW130388   9.899  13.041   9.005
 9497SOL    HW230389   9.965  13.014   9.139
 9498SOL     OW30390   9.604  11.638   3.768
 9498SOL    HW130391   9.666  11.707   3.792
 9498SOL    HW230392   9.606  11.577   3.842
 9499SOL     OW30393   5.387   8.025   4.795
 9499SOL    HW130394   5.479   8.040   4.817
 9499SOL    HW230395   5.379   8.055   4.705
 9500SOL     OW30396   5.740  10.128  10.340
 9500SOL    HW130397   5.822  10.081  10.355
 9500SOL    HW230398   5.768  10.214  10.307
 9501SOL     OW30399   2.224   4.526   4.087
 9501SOL    HW130400   2.316   4.542   4.067
 9501SOL    HW230401   2.205   4.442   4.047
 9502SOL     OW30402   1.646   4.232  13.988
 9502SOL    HW130403   1.555   4.259  13.980
 9502SOL    HW230404   1.692   4.310  14.020
 9503SOL     OW30405   9.264   6.227  12.890
 9503SOL    HW130406   9.325   6.232  12.816
 9503SOL    HW230407   9.202   6.159  12.865
 9504SOL     OW30408   7.673   0.375   1.233
 9504SOL    HW130409   7.706   0.294   1.194
 9504SOL    HW230410   7.578   0.370   1.222
 9505SOL     OW30411   8.132  14.666  10.356
 9505SOL    HW130412   8.048  14.682  10.399
 9505SOL    HW230413   8.196  14.665  10.427
 9506SOL     OW30414   7.171   7.850   3.379
 9506SOL    HW130415   7.092   7.797   3.394
 9506SOL    HW230416   7.167   7.873   3.286
 9507SOL     OW30417   6.230   5.184   0.877
 9507SOL    HW130418   6.234   5.089   0.878
 9507SOL    HW230419   6.225   5.207   0.784
 9508SOL     OW30420  12.597   2.257   2.424
 9508SOL    HW130421  12.625   2.170   2.394
 9508SOL    HW230422  12.675   2.311   2.416
 9509SOL     OW30423   4.070   3.432   1.386
 9509SOL    HW130424   4.136   3.479   1.438
 9509SOL    HW230425   3.987   3.466   1.417
 9510SOL     OW30426   3.848   3.116   3.799
 9510SOL    HW130427   3.802   3.134   3.716
 9510SOL    HW230428   3.853   3.202   3.842
 9511SOL     OW30429   1.972   3.475  10.812
 9511SOL    HW130430   1.976   3.471  10.716
 9511SOL    HW230431   2.018   3.397  10.842
 9512SOL     OW30432   1.116  10.242  12.720
 9512SOL    HW130433   1.035  10.193  12.701
 9512SOL    HW230434   1.177  10.175  12.750
 9513SOL     OW30435  10.363  11.146   4.078
 9513SOL    HW130436  10.430  11.213   4.088
 9513SOL    HW230437  10.335  11.127   4.167
 9514SOL     OW30438  11.704   2.505   6.829
 9514SOL    HW130439  11.767   2.560   6.876
 9514SOL    HW230440  11.649   2.567   6.782
 9515SOL     OW30441  10.155  10.240   0.955
 9515SOL    HW130442  10.234  10.189   0.938
 9515SOL    HW230443  10.098  10.222   0.880
 9516SOL     OW30444  13.654   2.290   7.824
 9516SOL    HW130445  13.730   2.236   7.798
 9516SOL    HW230446  13.580   2.230   7.820
 9517SOL     OW30447   7.468   4.296   4.526
 9517SOL    HW130448   7.474   4.384   4.488
 9517SOL    HW230449   7.401   4.252   4.473
 9518SOL     OW30450   0.591  14.091   3.100
 9518SOL    HW130451   0.501  14.070   3.123
 9518SOL    HW230452   0.585  14.173   3.052
 9519SOL     OW30453  13.186   7.631   9.675
 9519SOL    HW130454  13.168   7.694   9.605
 9519SOL    HW230455  13.276   7.651   9.703
 9520SOL     OW30456   2.286   7.890   2.674
 9520SOL    HW130457   2.258   7.946   2.746
 9520SOL    HW230458   2.362   7.935   2.637
 9521SOL     OW30459   0.931   0.248  14.151
 9521SOL    HW130460   0.902   0.177  14.207
 9521SOL    HW230461   1.024   0.233  14.138
 9522SOL     OW30462  13.651   9.495   0.319
 9522SOL    HW130463  13.619   9.470   0.405
 9522SOL    HW230464  13.602   9.439   0.258
 9523SOL     OW30465   6.518   7.463   0.121
 9523SOL    HW130466   6.441   7.520   0.123
 9523SOL    HW230467   6.523   7.432   0.031
 9524SOL     OW30468  12.812   7.740   9.687
 9524SOL    HW130469  12.732   7.723   9.737
 9524SOL    HW230470  12.855   7.655   9.680
 9525SOL     OW30471  11.718   2.980  13.497
 9525SOL    HW130472  11.624   2.985  13.480
 9525SOL    HW230473  11.757   3.034  13.429
 9526SOL     OW30474  12.069   7.689  11.570
 9526SOL    HW130475  12.129   7.661  11.501
 9526SOL    HW230476  12.036   7.774  11.540
 9527SOL     OW30477   7.742   9.483   8.370
 9527SOL    HW130478   7.825   9.531   8.370
 9527SOL    HW230479   7.741   9.435   8.287
 9528SOL     OW30480  13.420   0.982  14.216
 9528SOL    HW130481  13.490   0.917  14.210
 9528SOL    HW230482  13.460   1.056  14.262
 9529SOL     OW30483   9.156   4.393   2.972
 9529SOL    HW130484   9.244   4.402   3.009
 9529SOL    HW230485   9.100   4.448   3.027
 9530SOL     OW30486   2.975  14.183   8.137
 9530SOL    HW130487   2.998  14.266   8.180
 9530SOL    HW230488   2.889  14.162   8.172
 9531SOL     OW30489   4.362  14.208  14.575
 9531SOL    HW130490   4.434  14.249  14.526
 9531SOL    HW230491   4.325  14.144  14.514
 9532SOL     OW30492  14.506   9.041  10.020
 9532SOL    HW130493  14.592   9.014   9.985
 9532SOL    HW230494  14.527   9.084  10.103
 9533SOL     OW30495   9.591   0.418  12.919
 9533SOL    HW130496   9.574   0.325  12.930
 9533SOL    HW230497   9.588   0.453  13.008
 9534SOL     OW30498  14.043  13.275  12.351
 9534SOL    HW130499  14.025  13.367  12.373
 9534SOL    HW230500  14.124  13.278  12.300
 9535SOL     OW30501   0.757   7.790   6.287
 9535SOL    HW130502   0.693   7.726   6.255
 9535SOL    HW230503   0.840   7.742   6.288
 9536SOL     OW30504  13.765   9.405   2.998
 9536SOL    HW130505  13.693   9.415   2.936
 9536SOL    HW230506  13.784   9.494   3.028
 9537SOL     OW30507  13.072   1.660   3.179
 9537SOL    HW130508  12.987   1.705   3.177
 9537SOL    HW230509  13.079   1.626   3.268
 9538SOL     OW30510   2.715  13.159  13.106
 9538SOL    HW130511   2.779  13.228  13.087
 9538SOL    HW230512   2.743  13.123  13.190
 9539SOL     OW30513   1.303   6.889   3.330
 9539SOL    HW130514   1.281   6.957   3.267
 9539SOL    HW230515   1.223   6.837   3.339
 9540SOL     OW30516  13.399   8.833   0.781
 9540SOL    HW130517  13.462   8.830   0.853
 9540SOL    HW230518  13.318   8.798   0.819
 9541SOL     OW30519   6.690  12.714  13.973
 9541SOL    HW130520   6.736  12.751  14.048
 9541SOL    HW230521   6.756  12.709  13.904
 9542SOL     OW30522   1.303  13.112   0.768
 9542SOL    HW130523   1.366  13.041   0.777
 9542SOL    HW230524   1.217  13.071   0.782
 9543SOL     OW30525   4.333   7.186   3.566
 9543SOL    HW130526   4.322   7.217   3.656
 9543SOL    HW230527   4.391   7.250   3.525
 9544SOL     OW30528   7.689   2.949   1.905
 9544SOL    HW130529   7.743   2.930   1.982
 9544SOL    HW230530   7.685   2.867   1.857
 9545SOL     OW30531   6.463   1.629  13.904
 9545SOL    HW130532   6.408   1.704  13.881
 9545SOL    HW230533   6.546   1.646  13.859
 9546SOL     OW30534   1.869   3.149  14.761
 9546SOL    HW130535   1.918   3.169  14.681
 9546SOL    HW230536   1.852   3.233  14.802
 9547SOL     OW30537   9.047   8.814   2.069
 9547SOL    HW130538   9.126   8.853   2.107
 9547SOL    HW230539   9.044   8.725   2.105
 9548SOL     OW30540  14.083   4.825  13.822
 9548SOL    HW130541  14.039   4.758  13.771
 9548SOL    HW230542  14.162   4.845  13.772
 9549SOL     OW30543   3.783   6.250   5.003
 9549SOL    HW130544   3.818   6.334   4.976
 9549SOL    HW230545   3.700   6.242   4.956
 9550SOL     OW30546   4.750   6.593   6.351
 9550SOL    HW130547   4.702   6.621   6.272
 9550SOL    HW230548   4.696   6.625   6.423
 9551SOL     OW30549   5.247   3.497  12.952
 9551SOL    HW130550   5.323   3.451  12.988
 9551SOL    HW230551   5.275   3.589  12.948
 9552SOL     OW30552  12.513  10.435  10.026
 9552SOL    HW130553  12.464  10.436  10.109
 9552SOL    HW230554  12.570  10.359  10.033
 9553SOL     OW30555  10.386   7.407   9.848
 9553SOL    HW130556  10.452   7.431   9.784
 9553SOL    HW230557  10.317   7.365   9.796
 9554SOL     OW30558  13.495   1.435  11.619
 9554SOL    HW130559  13.495   1.341  11.636
 9554SOL    HW230560  13.513   1.443  11.525
 9555SOL     OW30561  10.680   2.966   4.088
 9555SOL    HW130562  10.594   2.995   4.056
 9555SOL    HW230563  10.732   2.954   4.009
 9556SOL     OW30564  10.731   1.047   8.490
 9556SOL    HW130565  10.753   1.063   8.398
 9556SOL    HW230566  10.793   0.980   8.518
 9557SOL     OW30567   3.098   0.454  14.694
 9557SOL    HW130568   3.012   0.494  14.708
 9557SOL    HW230569   3.079   0.361  14.682
 9558SOL     OW30570  11.192   0.380   8.002
 9558SOL    HW130571  11.198   0.417   7.914
 9558SOL    HW230572  11.232   0.294   7.996
 9559SOL     OW30573  10.501   8.923   2.203
 9559SOL    HW130574  10.522   8.889   2.290
 9559SOL    HW230575  10.430   8.867   2.172
 9560SOL     OW30576   7.129   0.041  14.224
 9560SOL    HW130577   7.112   0.125  14.267
 9560SOL    HW230578   7.128   0.062  14.130
 9561SOL     OW30579   0.910   4.801   6.079
 9561SOL    HW130580   0.992   4.848   6.064
 9561SOL    HW230581   0.931   4.710   6.057
 9562SOL     OW30582  11.152   7.472   8.337
 9562SOL    HW130583  11.170   7.386   8.298
 9562SOL    HW230584  11.132   7.529   8.262
 9563SOL     OW30585   5.026  11.723   1.882
 9563SOL    HW130586   5.110  11.751   1.847
 9563SOL    HW230587   5.044  11.697   1.972
 9564SOL     OW30588  10.492  14.690   8.418
 9564SOL    HW130589  10.481  14.615   8.477
 9564SOL    HW230590  10.424  14.677   8.351
 9565SOL     OW30591  11.726   8.457   8.563
 9565SOL    HW130592  11.655   8.486   8.505
 9565SOL    HW230593  11.711   8.364   8.576
 9566SOL     OW30594   7.289   3.780   3.978
 9566SOL    HW130595   7.340   3.741   3.907
 9566SOL    HW230596   7.349   3.844   4.018
 9567SOL     OW30597   9.313   7.015  14.204
 9567SOL    HW130598   9.314   7.006  14.300
 9567SOL    HW230599   9.220   7.005  14.181
 9568SOL     OW30600   8.309  12.613   5.956
 9568SOL    HW130601   8.261  12.679   6.007
 9568SOL    HW230602   8.396  12.652   5.943
 9569SOL     OW30603   2.874  10.887   8.021
 9569SOL    HW130604   2.829  10.912   8.101
 9569SOL    HW230605   2.814  10.828   7.976
 9570SOL     OW30606   7.929  13.881   6.005
 9570SOL    HW130607   7.990  13.894   6.077
 9570SOL    HW230608   7.899  13.969   5.982
 9571SOL     OW30609  14.210   1.648   0.407
 9571SOL    HW130610  14.176   1.731   0.374
 9571SOL    HW230611  14.295   1.638   0.364
 9572SOL     OW30612   6.630  11.618   1.284
 9572SOL    HW130613   6.549  11.584   1.324
 9572SOL    HW230614   6.652  11.694   1.337
 9573SOL     OW30615   9.957   8.137   0.751
 9573SOL    HW130616  10.050   8.154   0.764
 9573SOL    HW230617   9.950   8.111   0.659
 9574SOL     OW30618   4.928   1.770   0.200
 9574SOL    HW130619   4.953   1.861   0.218
 9574SOL    HW230620   4.897   1.737   0.284
 9575SOL     OW30621   1.390   4.010   4.203
 9575SOL    HW130622   1.330   3.947   4.162
 9575SOL    HW230623   1.384   3.992   4.297
 9576SOL     OW30624   2.326  14.850  11.317
 9576SOL    HW130625   2.307   0.065  11.345
 9576SOL    HW230626   2.386  14.861  11.242
 9577SOL     OW30627   5.435   9.851   5.284
 9577SOL    HW130628   5.342   9.853   5.305
 9577SOL    HW230629   5.452   9.759   5.261
 9578SOL     OW30630   1.067  14.616  10.850
 9578SOL    HW130631   1.060  14.525  10.821
 9578SOL    HW230632   1.045  14.613  10.943
 9579SOL     OW30633   5.583  11.689   1.939
 9579SOL    HW130634   5.530  11.731   1.871
 9579SOL    HW230635   5.521  11.668   2.009
 9580SOL     OW30636   2.325   3.468  10.670
 9580SOL    HW130637   2.348   3.413  10.745
 9580SOL    HW230638   2.391   3.446  10.604
 9581SOL     OW30639   8.587   6.795   0.172
 9581SOL    HW130640   8.500   6.766   0.147
 9581SOL    HW230641   8.636   6.713   0.185
 9582SOL     OW30642   8.553   5.852   5.597
 9582SOL    HW130643   8.461   5.826   5.605
 9582SOL    HW230644   8.602   5.771   5.609
 9583SOL     OW30645   7.904   5.080  14.373
 9583SOL    HW130646   7.923   5.159  14.322
 9583SOL    HW230647   7.881   5.015  14.307
 9584SOL     OW30648  13.981   4.362   2.253
 9584SOL    HW130649  14.021   4.340   2.337
 9584SOL    HW230650  14.025   4.306   2.189
 9585SOL     OW30651  10.325  10.564   7.835
 9585SOL    HW130652  10.272  10.590   7.910
 9585SOL    HW230653  10.308  10.631   7.769
 9586SOL     OW30654  14.589   4.688  12.474
 9586SOL    HW130655  14.522   4.625  12.449
 9586SOL    HW230656  14.541   4.764  12.508
 9587SOL     OW30657   9.116   5.635   2.955
 9587SOL    HW130658   9.165   5.710   2.922
 9587SOL    HW230659   9.130   5.638   3.050
 9588SOL     OW30660  14.318   9.654   4.808
 9588SOL    HW130661  14.397   9.620   4.768
 9588SOL    HW230662  14.344   9.738   4.847
 9589SOL     OW30663   0.375  12.164  10.995
 9589SOL    HW130664   0.465  12.138  11.011
 9589SOL    HW230665   0.324  12.084  11.008
 9590SOL     OW30666   9.846   0.854  12.956
 9590SOL    HW130667   9.780   0.879  12.892
 9590SOL    HW230668   9.818   0.769  12.989
 9591SOL     OW30669   7.711  14.185   1.600
 9591SOL    HW130670   7.671  14.187   1.686
 9591SOL    HW230671   7.731  14.277   1.580
 9592SOL     OW30672   4.369   3.182   5.255
 9592SOL    HW130673   4.447   3.134   5.228
 9592SOL    HW230674   4.296   3.127   5.226
 9593SOL     OW30675  13.145  14.406   3.461
 9593SOL    HW130676  13.135  14.458   3.381
 9593SOL    HW230677  13.189  14.464   3.523
 9594SOL     OW30678   3.072  13.965   9.649
 9594SOL    HW130679   3.024  13.965   9.566
 9594SOL    HW230680   3.135  14.036   9.640
 9595SOL     OW30681   6.586   4.428   4.445
 9595SOL    HW130682   6.596   4.493   4.375
 9595SOL    HW230683   6.673   4.424   4.486
 9596SOL     OW30684   4.093   6.059   2.621
 9596SOL    HW130685   4.101   6.084   2.713
 9596SOL    HW230686   4.152   5.985   2.610
 9597SOL     OW30687   1.082  13.635   0.135
 9597SOL    HW130688   0.995  13.606   0.108
 9597SOL    HW230689   1.066  13.695   0.208
 9598SOL     OW30690  10.601  12.567   4.952
 9598SOL    HW130691  10.678  12.532   4.996
 9598SOL    HW230692  10.540  12.494   4.948
 9599SOL     OW30693   8.380   0.499   5.567
 9599SOL    HW130694   8.463   0.546   5.575
 9599SOL    HW230695   8.394   0.418   5.616
 9600SOL     OW30696   1.267  12.060   3.537
 9600SOL    HW130697   1.256  12.129   3.602
 9600SOL    HW230698   1.276  11.980   3.588
 9601SOL     OW30699   1.581   6.042  11.390
 9601SOL    HW130700   1.521   6.002  11.453
 9601SOL    HW230701   1.620   6.116  11.437
 9602SOL     OW30702   2.514  13.644  10.494
 9602SOL    HW130703   2.522  13.568  10.552
 9602SOL    HW230704   2.479  13.608  10.412
 9603SOL     OW30705   2.402  10.432   8.022
 9603SOL    HW130706   2.437  10.344   8.009
 9603SOL    HW230707   2.307  10.420   8.028
 9604SOL     OW30708   7.080   6.550  12.333
 9604SOL    HW130709   7.155   6.533  12.390
 9604SOL    HW230710   7.028   6.614  12.381
 9605SOL     OW30711  10.214   2.354   2.967
 9605SOL    HW130712  10.178   2.325   3.050
 9605SOL    HW230713  10.262   2.434   2.988
 9606SOL     OW30714   5.241   3.136   1.140
 9606SOL    HW130715   5.336   3.145   1.128
 9606SOL    HW230716   5.230   3.045   1.168
 9607SOL     OW30717  13.994   5.597  11.422
 9607SOL    HW130718  13.997   5.691  11.405
 9607SOL    HW230719  14.086   5.570  11.424
 9608SOL     OW30720   7.003   8.019  11.131
 9608SOL    HW130721   6.929   8.035  11.072
 9608SOL    HW230722   7.080   8.026  11.076
 9609SOL     OW30723  10.003  13.428   0.139
 9609SOL    HW130724  10.054  13.497   0.096
 9609SOL    HW230725   9.975  13.466   0.222
 9610SOL     OW30726  11.602   5.571   0.548
 9610SOL    HW130727  11.624   5.594   0.639
 9610SOL    HW230728  11.603   5.476   0.546
 9611SOL     OW30729   2.124  11.057   5.912
 9611SOL    HW130730   2.098  11.138   5.868
 9611SOL    HW230731   2.041  11.011   5.927
 9612SOL     OW30732   3.915   0.539   6.646
 9612SOL    HW130733   4.006   0.555   6.671
 9612SOL    HW230734   3.894   0.611   6.587
 9613SOL     OW30735   3.167   4.878   5.544
 9613SOL    HW130736   3.080   4.883   5.583
 9613SOL    HW230737   3.222   4.931   5.601
 9614SOL     OW30738   4.165  12.556   1.701
 9614SOL    HW130739   4.152  12.466   1.672
 9614SOL    HW230740   4.094  12.606   1.659
 9615SOL     OW30741   2.594   8.340   8.367
 9615SOL    HW130742   2.592   8.434   8.349
 9615SOL    HW230743   2.601   8.300   8.280
 9616SOL     OW30744   3.788   5.948  11.040
 9616SOL    HW130745   3.849   5.889  10.995
 9616SOL    HW230746   3.736   5.986  10.969
 9617SOL     OW30747   4.433   7.126   9.770
 9617SOL    HW130748   4.431   7.100   9.862
 9617SOL    HW230749   4.341   7.145   9.748
 9618SOL     OW30750   5.742  14.469  13.707
 9618SOL    HW130751   5.775  14.535  13.646
 9618SOL    HW230752   5.801  14.476  13.783
 9619SOL     OW30753   0.237   1.491  14.286
 9619SOL    HW130754   0.158   1.536  14.315
 9619SOL    HW230755   0.220   1.470  14.194
 9620SOL     OW30756   6.607   7.779   3.459
 9620SOL    HW130757   6.519   7.816   3.467
 9620SOL    HW230758   6.593   7.691   3.424
 9621SOL     OW30759   6.748   5.421  12.183
 9621SOL    HW130760   6.731   5.406  12.090
 9621SOL    HW230761   6.843   5.419  12.191
 9622SOL     OW30762  11.644   2.397   9.930
 9622SOL    HW130763  11.715   2.449   9.968
 9622SOL    HW230764  11.564   2.442   9.957
 9623SOL     OW30765   7.677   4.460   1.933
 9623SOL    HW130766   7.700   4.552   1.944
 9623SOL    HW230767   7.731   4.413   1.997
 9624SOL     OW30768  12.077  13.290   2.796
 9624SOL    HW130769  12.102  13.199   2.815
 9624SOL    HW230770  12.068  13.292   2.701
 9625SOL     OW30771   6.735   3.088   4.408
 9625SOL    HW130772   6.716   3.151   4.338
 9625SOL    HW230773   6.781   3.139   4.474
 9626SOL     OW30774  12.721   3.806   7.769
 9626SOL    HW130775  12.660   3.864   7.813
 9626SOL    HW230776  12.715   3.831   7.677
 9627SOL     OW30777   7.988  13.961   7.462
 9627SOL    HW130778   7.934  14.026   7.508
 9627SOL    HW230779   7.964  13.878   7.503
 9628SOL     OW30780  13.579   1.448   8.732
 9628SOL    HW130781  13.594   1.435   8.638
 9628SOL    HW230782  13.581   1.543   8.743
 9629SOL     OW30783  10.501   7.027   9.187
 9629SOL    HW130784  10.445   6.968   9.238
 9629SOL    HW230785  10.468   7.115   9.207
 9630SOL     OW30786  10.117   2.786  13.148
 9630SOL    HW130787  10.146   2.778  13.057
 9630SOL    HW230788  10.053   2.716  13.159
 9631SOL     OW30789  14.063   6.781   2.133
 9631SOL    HW130790  14.030   6.813   2.217
 9631SOL    HW230791  14.038   6.849   2.070
 9632SOL     OW30792   9.884   2.702   0.487
 9632SOL    HW130793   9.830   2.669   0.559
 9632SOL    HW230794   9.901   2.626   0.432
 9633SOL     OW30795  11.687   2.282   3.254
 9633SOL    HW130796  11.635   2.222   3.308
 9633SOL    HW230797  11.676   2.250   3.165
 9634SOL     OW30798  13.214   1.070   1.816
 9634SOL    HW130799  13.167   1.076   1.899
 9634SOL    HW230800  13.226   0.976   1.803
 9635SOL     OW30801  10.591   5.862   5.254
 9635SOL    HW130802  10.578   5.808   5.331
 9635SOL    HW230803  10.632   5.942   5.287
 9636SOL     OW30804   3.365  13.371   4.620
 9636SOL    HW130805   3.419  13.292   4.623
 9636SOL    HW230806   3.347  13.385   4.527
 9637SOL     OW30807   3.303   4.406  12.231
 9637SOL    HW130808   3.378   4.454  12.197
 9637SOL    HW230809   3.329   4.314  12.229
 9638SOL     OW30810   2.578   3.056   6.756
 9638SOL    HW130811   2.512   3.110   6.713
 9638SOL    HW230812   2.661   3.084   6.718
 9639SOL     OW30813   2.377   2.525  14.230
 9639SOL    HW130814   2.313   2.561  14.169
 9639SOL    HW230815   2.432   2.468  14.176
 9640SOL     OW30816  13.409   0.669   1.626
 9640SOL    HW130817  13.391   0.682   1.533
 9640SOL    HW230818  13.327   0.694   1.669
 9641SOL     OW30819  12.422   0.057   8.162
 9641SOL    HW130820  12.429   0.152   8.152
 9641SOL    HW230821  12.477   0.038   8.238
 9642SOL     OW30822  11.712   4.301  11.384
 9642SOL    HW130823  11.675   4.389  11.384
 9642SOL    HW230824  11.760   4.296  11.467
 9643SOL     OW30825  14.464  11.572   6.143
 9643SOL    HW130826  14.486  11.553   6.234
 9643SOL    HW230827  14.529  11.636   6.114
 9644SOL     OW30828   6.458   9.457  11.410
 9644SOL    HW130829   6.530   9.417  11.459
 9644SOL    HW230830   6.397   9.385  11.394
 9645SOL     OW30831   0.221   9.342  12.107
 9645SOL    HW130832   0.226   9.258  12.154
 9645SOL    HW230833   0.310   9.378  12.114
 9646SOL     OW30834   1.787   3.125   7.977
 9646SOL    HW130835   1.851   3.153   8.041
 9646SOL    HW230836   1.806   3.178   7.899
 9647SOL     OW30837   0.677  11.770  12.404
 9647SOL    HW130838   0.601  11.737  12.451
 9647SOL    HW230839   0.646  11.849  12.360
 9648SOL     OW30840  10.344  11.359  11.282
 9648SOL    HW130841  10.335  11.368  11.187
 9648SOL    HW230842  10.330  11.266  11.298
 9649SOL     OW30843   7.718   6.361   1.475
 9649SOL    HW130844   7.730   6.446   1.433
 9649SOL    HW230845   7.732   6.378   1.568
 9650SOL     OW30846   7.717   4.790  10.143
 9650SOL    HW130847   7.801   4.745  10.132
 9650SOL    HW230848   7.724   4.834  10.228
 9651SOL     OW30849  13.947   9.448  14.242
 9651SOL    HW130850  13.968   9.484  14.156
 9651SOL    HW230851  14.026   9.402  14.270
 9652SOL     OW30852  10.134  10.873   4.378
 9652SOL    HW130853  10.160  10.965   4.384
 9652SOL    HW230854  10.044  10.872   4.411
 9653SOL     OW30855   8.851   0.863   8.802
 9653SOL    HW130856   8.913   0.791   8.793
 9653SOL    HW230857   8.835   0.869   8.897
 9654SOL     OW30858   0.044  12.300   1.517
 9654SOL    HW130859  14.835  12.345   1.516
 9654SOL    HW230860   0.108  12.370   1.504
 9655SOL     OW30861   6.377  11.376  13.084
 9655SOL    HW130862   6.441  11.364  13.155
 9655SOL    HW230863   6.422  11.431  13.021
 9656SOL     OW30864   7.093   0.889   4.645
 9656SOL    HW130865   7.124   0.798   4.651
 9656SOL    HW230866   7.148   0.929   4.579
 9657SOL     OW30867   1.035   1.128   9.959
 9657SOL    HW130868   1.113   1.138   9.904
 9657SOL    HW230869   1.067   1.140  10.048
 9658SOL     OW30870   2.899   0.509   7.340
 9658SOL    HW130871   2.814   0.549   7.324
 9658SOL    HW230872   2.953   0.582   7.372
 9659SOL     OW30873   8.721   1.412   1.732
 9659SOL    HW130874   8.659   1.416   1.805
 9659SOL    HW230875   8.689   1.478   1.670
 9660SOL     OW30876   4.852   2.958   8.612
 9660SOL    HW130877   4.759   2.961   8.589
 9660SOL    HW230878   4.872   3.046   8.644
 9661SOL     OW30879   5.483   5.598  14.823
 9661SOL    HW130880   5.443   5.612   0.034
 9661SOL    HW230881   5.481   5.684  14.782
 9662SOL     OW30882   6.011   6.066  12.542
 9662SOL    HW130883   6.097   6.077  12.501
 9662SOL    HW230884   6.006   6.135  12.608
 9663SOL     OW30885   0.765   0.612   1.951
 9663SOL    HW130886   0.851   0.571   1.943
 9663SOL    HW230887   0.767   0.684   1.887
 9664SOL     OW30888   5.744  10.260   5.581
 9664SOL    HW130889   5.772  10.208   5.506
 9664SOL    HW230890   5.800  10.229   5.653
 9665SOL     OW30891  10.651  14.242  12.615
 9665SOL    HW130892  10.631  14.260  12.707
 9665SOL    HW230893  10.745  14.222  12.615
 9666SOL     OW30894   8.244   8.735  13.966
 9666SOL    HW130895   8.221   8.748  13.874
 9666SOL    HW230896   8.161   8.741  14.013
 9667SOL     OW30897   4.474   8.487  13.962
 9667SOL    HW130898   4.380   8.499  13.950
 9667SOL    HW230899   4.513   8.570  13.934
 9668SOL     OW30900   2.217   4.277   1.014
 9668SOL    HW130901   2.206   4.306   1.104
 9668SOL    HW230902   2.178   4.189   1.013
 9669SOL     OW30903   3.605  10.240   2.753
 9669SOL    HW130904   3.544  10.313   2.752
 9669SOL    HW230905   3.692  10.281   2.750
 9670SOL     OW30906   0.297  11.809  14.487
 9670SOL    HW130907   0.278  11.748  14.416
 9670SOL    HW230908   0.238  11.784  14.557
 9671SOL     OW30909   6.339  13.172   5.274
 9671SOL    HW130910   6.275  13.210   5.214
 9671SOL    HW230911   6.372  13.094   5.229
 9672SOL     OW30912   7.579   2.821   8.478
 9672SOL    HW130913   7.537   2.755   8.422
 9672SOL    HW230914   7.673   2.810   8.462
 9673SOL     OW30915  13.497   5.811   2.190
 9673SOL    HW130916  13.500   5.895   2.145
 9673SOL    HW230917  13.404   5.789   2.194
 9674SOL     OW30918  14.808   8.575   3.980
 9674SOL    HW130919  14.750   8.645   3.950
 9674SOL    HW230920   0.009   8.581   3.922
 9675SOL     OW30921  11.770   6.707  11.465
 9675SOL    HW130922  11.821   6.652  11.406
 9675SOL    HW230923  11.830   6.777  11.489
 9676SOL     OW30924   7.915  12.540   2.231
 9676SOL    HW130925   8.010  12.532   2.235
 9676SOL    HW230926   7.885  12.509   2.316
 9677SOL     OW30927  14.355   1.049   7.160
 9677SOL    HW130928  14.286   1.059   7.094
 9677SOL    HW230929  14.423   0.997   7.115
 9678SOL     OW30930  13.325   7.138  12.033
 9678SOL    HW130931  13.332   7.064  11.973
 9678SOL    HW230932  13.297   7.098  12.116
 9679SOL     OW30933   8.693   0.278  11.621
 9679SOL    HW130934   8.721   0.274  11.530
 9679SOL    HW230935   8.717   0.366  11.650
 9680SOL     OW30936  14.158   0.473  12.547
 9680SOL    HW130937  14.253   0.480  12.558
 9680SOL    HW230938  14.143   0.503  12.457
 9681SOL     OW30939   3.109   8.185  12.466
 9681SOL    HW130940   3.085   8.270  12.429
 9681SOL    HW230941   3.183   8.204  12.523
 9682SOL     OW30942  13.221  11.844   8.668
 9682SOL    HW130943  13.168  11.788   8.612
 9682SOL    HW230944  13.310  11.836   8.634
 9683SOL     OW30945   1.931   7.578   0.993
 9683SOL    HW130946   1.905   7.580   0.901
 9683SOL    HW230947   1.909   7.490   1.023
 9684SOL     OW30948  14.038  10.012  11.471
 9684SOL    HW130949  13.959   9.984  11.425
 9684SOL    HW230950  14.008  10.082  11.530
 9685SOL     OW30951   0.509   2.349   4.377
 9685SOL    HW130952   0.442   2.360   4.445
 9685SOL    HW230953   0.589   2.328   4.425
 9686SOL     OW30954   6.203   5.150   5.644
 9686SOL    HW130955   6.147   5.077   5.672
 9686SOL    HW230956   6.197   5.149   5.548
 9687SOL     OW30957   3.342   1.340  13.288
 9687SOL    HW130958   3.311   1.419  13.243
 9687SOL    HW230959   3.273   1.275  13.271
 9688SOL     OW30960   3.198  12.982   8.237
 9688SOL    HW130961   3.239  13.063   8.206
 9688SOL    HW230962   3.272  12.925   8.259
 9689SOL     OW30963  13.672  10.632   1.676
 9689SOL    HW130964  13.743  10.573   1.648
 9689SOL    HW230965  13.645  10.675   1.595
 9690SOL     OW30966   8.607   2.609  12.231
 9690SOL    HW130967   8.605   2.676  12.300
 9690SOL    HW230968   8.685   2.630  12.179
 9691SOL     OW30969   1.316  13.900  14.806
 9691SOL    HW130970   1.226  13.881  14.831
 9691SOL    HW230971   1.324  13.867  14.717
 9692SOL     OW30972  14.701   9.043   1.860
 9692SOL    HW130973  14.608   9.059   1.845
 9692SOL    HW230974  14.709   8.947   1.858
 9693SOL     OW30975  13.711  14.027   2.777
 9693SOL    HW130976  13.641  14.079   2.816
 9693SOL    HW230977  13.677  13.938   2.776
 9694SOL     OW30978   7.379   4.950   0.011
 9694SOL    HW130979   7.359   4.920  14.798
 9694SOL    HW230980   7.296   4.985   0.044
 9695SOL     OW30981   2.062  13.798   5.389
 9695SOL    HW130982   2.043  13.714   5.432
 9695SOL    HW230983   2.128  13.777   5.323
 9696SOL     OW30984   0.284   2.016   5.774
 9696SOL    HW130985   0.265   2.073   5.699
 9696SOL    HW230986   0.377   1.997   5.767
 9697SOL     OW30987   0.709   8.538   4.548
 9697SOL    HW130988   0.788   8.525   4.496
 9697SOL    HW230989   0.715   8.472   4.618
 9698SOL     OW30990  13.798   9.365   1.305
 9698SOL    HW130991  13.875   9.368   1.362
 9698SOL    HW230992  13.780   9.456   1.284
 9699SOL     OW30993   9.619  10.764  14.794
 9699SOL    HW130994   9.651  10.701  14.858
 9699SOL    HW230995   9.660  10.847  14.819
 9700SOL     OW30996   6.321   4.242  14.332
 9700SOL    HW130997   6.294   4.233  14.423
 9700SOL    HW230998   6.259   4.304  14.294
 9701SOL     OW30999   8.895   8.261   6.396
 9701SOL    HW131000   8.804   8.286   6.382
 9701SOL    HW231001   8.891   8.186   6.455
 9702SOL     OW31002  12.170   7.836  11.769
 9702SOL    HW131003  12.133   7.792  11.693
 9702SOL    HW231004  12.241   7.890  11.734
 9703SOL     OW31005   0.582   8.337  12.433
 9703SOL    HW131006   0.515   8.334  12.501
 9703SOL    HW231007   0.660   8.369  12.478
 9704SOL     OW31008  14.259   0.476  14.083
 9704SOL    HW131009  14.305   0.547  14.128
 9704SOL    HW231010  14.279   0.398  14.134
 9705SOL     OW31011  14.687   8.694  11.606
 9705SOL    HW131012  14.777   8.700  11.576
 9705SOL    HW231013  14.692   8.640  11.686
 9706SOL     OW31014  13.681  11.914  13.100
 9706SOL    HW131015  13.677  11.893  13.194
 9706SOL    HW231016  13.705  11.832  13.058
 9707SOL     OW31017   0.058   9.831   4.882
 9707SOL    HW131018   0.028   9.849   4.793
 9707SOL    HW231019   0.154   9.839   4.876
 9708SOL     OW31020  14.392   0.762  10.468
 9708SOL    HW131021  14.357   0.683  10.426
 9708SOL    HW231022  14.329   0.830  10.446
 9709SOL     OW31023   0.140  13.622   7.437
 9709SOL    HW131024   0.124  13.683   7.364
 9709SOL    HW231025   0.073  13.555   7.426
 9710SOL     OW31026   3.782   6.753   7.629
 9710SOL    HW131027   3.853   6.772   7.690
 9710SOL    HW231028   3.765   6.836   7.585
 9711SOL     OW31029  11.161   6.106   1.772
 9711SOL    HW131030  11.070   6.113   1.744
 9711SOL    HW231031  11.199   6.040   1.713
 9712SOL     OW31032  10.973   8.490  12.260
 9712SOL    HW131033  10.983   8.529  12.173
 9712SOL    HW231034  11.057   8.448  12.277
 9713SOL     OW31035   5.935   6.680   6.028
 9713SOL    HW131036   5.984   6.756   6.059
 9713SOL    HW231037   5.874   6.660   6.099
 9714SOL     OW31038   4.166  10.265   4.677
 9714SOL    HW131039   4.191  10.300   4.763
 9714SOL    HW231040   4.188  10.335   4.616
 9715SOL     OW31041  12.936   9.267   1.623
 9715SOL    HW131042  12.923   9.322   1.701
 9715SOL    HW231043  12.997   9.318   1.569
 9716SOL     OW31044  10.381   6.715  10.135
 9716SOL    HW131045  10.324   6.693  10.209
 9716SOL    HW231046  10.369   6.643  10.073
 9717SOL     OW31047  12.445   7.744  12.907
 9717SOL    HW131048  12.417   7.797  12.833
 9717SOL    HW231049  12.468   7.659  12.870
 9718SOL     OW31050   9.000   2.141  10.680
 9718SOL    HW131051   9.088   2.134  10.718
 9718SOL    HW231052   8.967   2.225  10.713
 9719SOL     OW31053  12.042   4.956   7.306
 9719SOL    HW131054  11.966   4.900   7.325
 9719SOL    HW231055  12.116   4.906   7.341
 9720SOL     OW31056   2.142   6.294  11.459
 9720SOL    HW131057   2.189   6.334  11.532
 9720SOL    HW231058   2.185   6.210  11.444
 9721SOL     OW31059  13.711   8.913   1.288
 9721SOL    HW131060  13.796   8.870   1.295
 9721SOL    HW231061  13.650   8.851   1.328
 9722SOL     OW31062   7.994   0.768   0.670
 9722SOL    HW131063   8.024   0.718   0.746
 9722SOL    HW231064   7.903   0.741   0.657
 9723SOL     OW31065   4.017   6.168   9.494
 9723SOL    HW131066   3.940   6.158   9.550
 9723SOL    HW231067   3.986   6.221   9.421
 9724SOL     OW31068   6.718   8.967   3.261
 9724SOL    HW131069   6.668   9.033   3.311
 9724SOL    HW231070   6.761   9.017   3.192
 9725SOL     OW31071  11.832  10.210   5.478
 9725SOL    HW131072  11.859  10.181   5.565
 9725SOL    HW231073  11.826  10.129   5.427
 9726SOL     OW31074   2.595   0.366   6.347
 9726SOL    HW131075   2.655   0.307   6.393
 9726SOL    HW231076   2.574   0.434   6.412
 9727SOL     OW31077  13.728  10.295   1.624
 9727SOL    HW131078  13.804  10.354   1.618
 9727SOL    HW231079  13.751  10.233   1.693
 9728SOL     OW31080  10.957   2.819   8.886
 9728SOL    HW131081  11.015   2.894   8.872
 9728SOL    HW231082  11.015   2.750   8.916
 9729SOL     OW31083  13.562  14.204   7.502
 9729SOL    HW131084  13.505  14.144   7.453
 9729SOL    HW231085  13.648  14.161   7.502
 9730SOL     OW31086   9.776  10.324   7.008
 9730SOL    HW131087   9.817  10.370   7.081
 9730SOL    HW231088   9.716  10.388   6.970
 9731SOL     OW31089   5.480   3.220  11.046
 9731SOL    HW131090   5.415   3.199  10.979
 9731SOL    HW231091   5.455   3.169  11.122
 9732SOL     OW31092   0.279   7.772  11.354
 9732SOL    HW131093   0.293   7.864  11.332
 9732SOL    HW231094   0.187   7.756  11.330
 9733SOL     OW31095   0.410   9.815   0.228
 9733SOL    HW131096   0.342   9.773   0.175
 9733SOL    HW231097   0.432   9.749   0.294
 9734SOL     OW31098   0.786   4.643  13.567
 9734SOL    HW131099   0.783   4.727  13.521
 9734SOL    HW231100   0.833   4.584  13.507
 9735SOL     OW31101  12.556   4.666   0.987
 9735SOL    HW131102  12.625   4.723   1.020
 9735SOL    HW231103  12.594   4.623   0.911
 9736SOL     OW31104   6.696   4.780  14.635
 9736SOL    HW131105   6.652   4.842  14.576
 9736SOL    HW231106   6.697   4.825  14.719
 9737SOL     OW31107   8.654   2.361  11.113
 9737SOL    HW131108   8.707   2.427  11.068
 9737SOL    HW231109   8.587   2.336  11.049
 9738SOL     OW31110   2.942   3.755  10.652
 9738SOL    HW131111   2.964   3.848  10.650
 9738SOL    HW231112   2.849   3.752  10.627
 9739SOL     OW31113  11.271   8.456   0.525
 9739SOL    HW131114  11.340   8.426   0.466
 9739SOL    HW231115  11.299   8.543   0.553
 9740SOL     OW31116  12.601   1.261  14.668
 9740SOL    HW131117  12.668   1.199  14.698
 9740SOL    HW231118  12.650   1.341  14.649
 9741SOL     OW31119   6.017  12.721   3.842
 9741SOL    HW131120   6.099  12.770   3.849
 9741SOL    HW231121   5.955  12.772   3.894
 9742SOL     OW31122   4.663   0.295   5.803
 9742SOL    HW131123   4.699   0.248   5.728
 9742SOL    HW231124   4.581   0.331   5.772
 9743SOL     OW31125   9.189   5.316   8.170
 9743SOL    HW131126   9.233   5.358   8.244
 9743SOL    HW231127   9.170   5.227   8.200
 9744SOL     OW31128   6.987  14.458   4.563
 9744SOL    HW131129   7.000  14.551   4.579
 9744SOL    HW231130   6.892  14.449   4.555
 9745SOL     OW31131   7.783   0.579  12.322
 9745SOL    HW131132   7.749   0.490  12.331
 9745SOL    HW231133   7.750   0.625  12.399
 9746SOL     OW31134   8.562   6.004  11.830
 9746SOL    HW131135   8.486   5.961  11.790
 9746SOL    HW231136   8.567   5.964  11.917
 9747SOL     OW31137  14.164   3.163   7.770
 9747SOL    HW131138  14.098   3.136   7.834
 9747SOL    HW231139  14.244   3.173   7.822
 9748SOL     OW31140   0.603  11.334   4.136
 9748SOL    HW131141   0.527  11.328   4.194
 9748SOL    HW231142   0.639  11.245   4.135
 9749SOL     OW31143  13.223   6.044   2.979
 9749SOL    HW131144  13.246   6.094   3.057
 9749SOL    HW231145  13.253   5.955   2.998
 9750SOL     OW31146  12.793  11.782   9.798
 9750SOL    HW131147  12.826  11.794   9.887
 9750SOL    HW231148  12.825  11.858   9.750
 9751SOL     OW31149  10.296   9.950   5.694
 9751SOL    HW131150  10.389   9.952   5.673
 9751SOL    HW231151  10.274   9.857   5.697
 9752SOL     OW31152   6.260  11.711  13.100
 9752SOL    HW131153   6.203  11.644  13.138
 9752SOL    HW231154   6.203  11.761  13.041
 9753SOL     OW31155   0.294   7.359   7.803
 9753SOL    HW131156   0.272   7.336   7.713
 9753SOL    HW231157   0.210   7.376   7.844
 9754SOL     OW31158   9.245   5.012  14.284
 9754SOL    HW131159   9.213   5.005  14.373
 9754SOL    HW231160   9.177   4.973  14.230
 9755SOL     OW31161   7.061   2.519  12.129
 9755SOL    HW131162   7.053   2.426  12.150
 9755SOL    HW231163   6.972   2.547  12.109
 9756SOL     OW31164   3.009  11.908   0.695
 9756SOL    HW131165   2.925  11.869   0.718
 9756SOL    HW231166   2.987  11.994   0.659
 9757SOL     OW31167  10.313   6.552   4.665
 9757SOL    HW131168  10.323   6.462   4.635
 9757SOL    HW231169  10.397   6.593   4.644
 9758SOL     OW31170  11.085   1.789   3.963
 9758SOL    HW131171  11.074   1.858   4.028
 9758SOL    HW231172  11.150   1.825   3.902
 9759SOL     OW31173   3.431   1.453   5.707
 9759SOL    HW131174   3.428   1.360   5.732
 9759SOL    HW231175   3.524   1.474   5.706
 9760SOL     OW31176  10.418   5.792  11.707
 9760SOL    HW131177  10.325   5.793  11.728
 9760SOL    HW231178  10.421   5.772  11.613
 9761SOL     OW31179   1.961  14.512  11.747
 9761SOL    HW131180   1.957  14.547  11.836
 9761SOL    HW231181   2.052  14.524  11.720
 9762SOL     OW31182   1.923   7.309   5.075
 9762SOL    HW131183   2.018   7.300   5.071
 9762SOL    HW231184   1.890   7.220   5.066
 9763SOL     OW31185   3.711   2.530   9.770
 9763SOL    HW131186   3.684   2.481   9.693
 9763SOL    HW231187   3.793   2.490   9.798
 9764SOL     OW31188  14.140   2.195   6.988
 9764SOL    HW131189  14.075   2.147   7.040
 9764SOL    HW231190  14.224   2.156   7.012
 9765SOL     OW31191   9.046   8.140  13.959
 9765SOL    HW131192   9.068   8.172  14.046
 9765SOL    HW231193   8.958   8.104  13.967
 9766SOL     OW31194   7.859  11.098  11.228
 9766SOL    HW131195   7.945  11.070  11.197
 9766SOL    HW231196   7.876  11.182  11.272
 9767SOL     OW31197  11.971  11.383  13.694
 9767SOL    HW131198  11.916  11.366  13.771
 9767SOL    HW231199  12.051  11.332  13.710
 9768SOL     OW31200   2.153   0.376   4.307
 9768SOL    HW131201   2.191   0.395   4.393
 9768SOL    HW231202   2.215   0.316   4.266
 9769SOL     OW31203   4.683  13.147   6.286
 9769SOL    HW131204   4.733  13.227   6.266
 9769SOL    HW231205   4.592  13.175   6.283
 9770SOL     OW31206   1.715  11.458   1.435
 9770SOL    HW131207   1.768  11.482   1.511
 9770SOL    HW231208   1.731  11.527   1.371
 9771SOL     OW31209  11.990  13.448  10.658
 9771SOL    HW131210  11.950  13.384  10.718
 9771SOL    HW231211  12.031  13.512  10.716
 9772SOL     OW31212  14.764   8.158   3.804
 9772SOL    HW131213  14.695   8.103   3.842
 9772SOL    HW231214  14.726   8.246   3.801
 9773SOL     OW31215   4.411  14.028  13.316
 9773SOL    HW131216   4.504  14.010  13.305
 9773SOL    HW231217   4.395  14.105  13.262
 9774SOL     OW31218   5.625   8.982  11.865
 9774SOL    HW131219   5.565   9.005  11.936
 9774SOL    HW231220   5.668   9.065  11.843
 9775SOL     OW31221   5.120   2.585   0.579
 9775SOL    HW131222   5.060   2.657   0.598
 9775SOL    HW231223   5.080   2.540   0.505
 9776SOL     OW31224   5.045  13.427   6.099
 9776SOL    HW131225   4.956  13.417   6.131
 9776SOL    HW231226   5.079  13.505   6.143
 9777SOL     OW31227  14.071  12.093   7.843
 9777SOL    HW131228  14.116  12.130   7.919
 9777SOL    HW231229  14.136  12.096   7.773
 9778SOL     OW31230   0.797   0.819  10.029
 9778SOL    HW131231   0.765   0.842  10.117
 9778SOL    HW231232   0.808   0.903   9.985
 9779SOL     OW31233   8.849   5.319   1.927
 9779SOL    HW131234   8.756   5.297   1.930
 9779SOL    HW231235   8.856   5.401   1.977
 9780SOL     OW31236   4.925   9.914   4.093
 9780SOL    HW131237   4.964   9.827   4.097
 9780SOL    HW231238   4.999   9.972   4.074
 9781SOL     OW31239  13.193   7.998   2.632
 9781SOL    HW131240  13.160   7.940   2.702
 9781SOL    HW231241  13.285   8.012   2.654
 9782SOL     OW31242   5.165   8.685   6.410
 9782SOL    HW131243   5.163   8.779   6.388
 9782SOL    HW231244   5.085   8.672   6.461
 9783SOL     OW31245   2.282  13.117   2.579
 9783SOL    HW131246   2.374  13.124   2.551
 9783SOL    HW231247   2.232  13.150   2.505
 9784SOL     OW31248   4.360   4.921  12.425
 9784SOL    HW131249   4.353   4.970  12.507
 9784SOL    HW231250   4.451   4.891  12.422
 9785SOL     OW31251  10.276   1.987  14.769
 9785SOL    HW131252  10.256   2.058  14.831
 9785SOL    HW231253  10.358   2.014  14.728
 9786SOL     OW31254   2.669  12.896   7.069
 9786SOL    HW131255   2.755  12.893   7.111
 9786SOL    HW231256   2.658  12.810   7.029
 9787SOL     OW31257   3.918   5.033   5.394
 9787SOL    HW131258   3.933   4.942   5.367
 9787SOL    HW231259   3.993   5.054   5.450
 9788SOL     OW31260   6.444   0.365  13.788
 9788SOL    HW131261   6.352   0.375  13.810
 9788SOL    HW231262   6.448   0.283  13.738
 9789SOL     OW31263   0.298  12.730   0.891
 9789SOL    HW131264   0.320  12.638   0.904
 9789SOL    HW231265   0.225  12.745   0.951
 9790SOL     OW31266  10.412  10.852   0.978
 9790SOL    HW131267  10.446  10.941   0.974
 9790SOL    HW231268  10.400  10.834   1.071
 9791SOL     OW31269  14.044   5.238   4.893
 9791SOL    HW131270  14.091   5.248   4.810
 9791SOL    HW231271  13.955   5.267   4.873
 9792SOL     OW31272   9.041   6.484   6.742
 9792SOL    HW131273   9.029   6.395   6.775
 9792SOL    HW231274   8.993   6.485   6.659
 9793SOL     OW31275  13.091   7.446   3.497
 9793SOL    HW131276  13.020   7.428   3.436
 9793SOL    HW231277  13.158   7.381   3.476
 9794SOL     OW31278   6.770   8.440   0.928
 9794SOL    HW131279   6.718   8.510   0.968
 9794SOL    HW231280   6.739   8.360   0.970
 9795SOL     OW31281   7.228   8.632   7.096
 9795SOL    HW131282   7.233   8.650   7.190
 9795SOL    HW231283   7.257   8.714   7.054
 9796SOL     OW31284  12.989  10.492   1.438
 9796SOL    HW131285  12.997  10.400   1.461
 9796SOL    HW231286  12.949  10.532   1.516
 9797SOL     OW31287   9.506   5.450   7.543
 9797SOL    HW131288   9.494   5.369   7.592
 9797SOL    HW231289   9.454   5.438   7.463
 9798SOL     OW31290   5.555   3.943   0.207
 9798SOL    HW131291   5.574   3.899   0.290
 9798SOL    HW231292   5.526   3.873   0.148
 9799SOL     OW31293  14.021   8.891   8.997
 9799SOL    HW131294  14.026   8.795   8.994
 9799SOL    HW231295  13.984   8.916   8.912
 9800SOL     OW31296  13.696  13.491   6.563
 9800SOL    HW131297  13.681  13.584   6.550
 9800SOL    HW231298  13.787  13.477   6.539
 9801SOL     OW31299   0.207  12.320   8.156
 9801SOL    HW131300   0.181  12.315   8.248
 9801SOL    HW231301   0.245  12.234   8.137
 9802SOL     OW31302   3.388   7.394   1.027
 9802SOL    HW131303   3.460   7.380   1.088
 9802SOL    HW231304   3.370   7.307   0.991
 9803SOL     OW31305   5.710   0.921  10.763
 9803SOL    HW131306   5.794   0.954  10.793
 9803SOL    HW231307   5.721   0.906  10.669
 9804SOL     OW31308   1.330  13.780   6.046
 9804SOL    HW131309   1.374  13.856   6.084
 9804SOL    HW231310   1.310  13.807   5.956
 9805SOL     OW31311  13.074  14.369  13.811
 9805SOL    HW131312  13.128  14.419  13.872
 9805SOL    HW231313  13.046  14.434  13.745
 9806SOL     OW31314   8.716   5.900   1.176
 9806SOL    HW131315   8.777   5.827   1.188
 9806SOL    HW231316   8.667   5.878   1.097
 9807SOL     OW31317  10.335   7.854   7.050
 9807SOL    HW131318  10.269   7.811   7.104
 9807SOL    HW231319  10.285   7.916   6.996
 9808SOL     OW31320  12.190   6.805   8.039
 9808SOL    HW131321  12.144   6.843   8.114
 9808SOL    HW231322  12.280   6.836   8.048
 9809SOL     OW31323   5.370   2.700  10.050
 9809SOL    HW131324   5.421   2.637  10.101
 9809SOL    HW231325   5.405   2.786  10.076
 9810SOL     OW31326   3.885   8.027   0.008
 9810SOL    HW131327   3.813   7.968   0.029
 9810SOL    HW231328   3.960   7.993   0.057
 9811SOL     OW31329   7.111  14.073  14.007
 9811SOL    HW131330   7.107  14.029  14.092
 9811SOL    HW231331   7.204  14.092  13.994
 9812SOL     OW31332   8.008   4.757   1.726
 9812SOL    HW131333   7.980   4.673   1.764
 9812SOL    HW231334   8.092   4.775   1.770
 9813SOL     OW31335   8.370   0.428   8.561
 9813SOL    HW131336   8.402   0.462   8.644
 9813SOL    HW231337   8.278   0.455   8.558
 9814SOL     OW31338   7.919   9.888   9.635
 9814SOL    HW131339   7.879   9.926   9.557
 9814SOL    HW231340   7.846   9.848   9.682
 9815SOL     OW31341   7.429  11.691  10.169
 9815SOL    HW131342   7.414  11.737  10.087
 9815SOL    HW231343   7.346  11.697  10.216
 9816SOL     OW31344   6.085   2.980  13.060
 9816SOL    HW131345   6.021   2.913  13.036
 9816SOL    HW231346   6.040   3.063  13.041
 9817SOL     OW31347   1.066   7.421   9.829
 9817SOL    HW131348   1.086   7.393   9.919
 9817SOL    HW231349   1.114   7.503   9.818
 9818SOL     OW31350   9.851   3.756  13.152
 9818SOL    HW131351   9.839   3.750  13.247
 9818SOL    HW231352   9.944   3.741  13.138
 9819SOL     OW31353  14.654   2.634  13.485
 9819SOL    HW131354  14.726   2.572  13.495
 9819SOL    HW231355  14.684   2.696  13.419
 9820SOL     OW31356  13.110  13.876   0.745
 9820SOL    HW131357  13.175  13.945   0.729
 9820SOL    HW231358  13.026  13.921   0.741
 9821SOL     OW31359   3.248   9.245   2.285
 9821SOL    HW131360   3.325   9.298   2.306
 9821SOL    HW231361   3.176   9.308   2.281
 9822SOL     OW31362   7.746  11.931  14.059
 9822SOL    HW131363   7.743  11.843  14.097
 9822SOL    HW231364   7.656  11.947  14.029
 9823SOL     OW31365   1.707  14.451  13.990
 9823SOL    HW131366   1.654  14.465  14.069
 9823SOL    HW231367   1.745  14.536  13.971
 9824SOL     OW31368   3.441   4.830  11.594
 9824SOL    HW131369   3.347   4.832  11.616
 9824SOL    HW231370   3.479   4.771  11.659
 9825SOL     OW31371  10.286   3.729  11.477
 9825SOL    HW131372  10.355   3.697  11.418
 9825SOL    HW231373  10.245   3.649  11.509
 9826SOL     OW31374   8.388   8.728  10.726
 9826SOL    HW131375   8.467   8.781  10.737
 9826SOL    HW231376   8.372   8.690  10.812
 9827SOL     OW31377  10.479  11.158   7.351
 9827SOL    HW131378  10.504  11.227   7.412
 9827SOL    HW231379  10.496  11.196   7.264
 9828SOL     OW31380   4.034  10.979   1.654
 9828SOL    HW131381   3.947  10.987   1.615
 9828SOL    HW231382   4.090  11.036   1.601
 9829SOL     OW31383   2.676   8.358   5.035
 9829SOL    HW131384   2.659   8.338   5.127
 9829SOL    HW231385   2.629   8.440   5.019
 9830SOL     OW31386   8.250   9.948   7.341
 9830SOL    HW131387   8.168   9.994   7.327
 9830SOL    HW231388   8.288   9.989   7.418
 9831SOL     OW31389  14.119  13.215  14.522
 9831SOL    HW131390  14.212  13.199  14.505
 9831SOL    HW231391  14.074  13.139  14.484
 9832SOL     OW31392   8.954   5.334   0.942
 9832SOL    HW131393   8.931   5.241   0.941
 9832SOL    HW231394   8.909   5.368   1.019
 9833SOL     OW31395  14.077  12.943   7.969
 9833SOL    HW131396  13.993  12.955   7.923
 9833SOL    HW231397  14.127  13.022   7.948
 9834SOL     OW31398   2.534  10.111  11.640
 9834SOL    HW131399   2.469  10.138  11.575
 9834SOL    HW231400   2.619  10.124  11.596
 9835SOL     OW31401  11.819   0.907  12.772
 9835SOL    HW131402  11.907   0.880  12.746
 9835SOL    HW231403  11.764   0.879  12.699
 9836SOL     OW31404  10.474   2.596  10.504
 9836SOL    HW131405  10.561   2.603  10.466
 9836SOL    HW231406  10.472   2.510  10.546
 9837SOL     OW31407  13.172   6.248  13.944
 9837SOL    HW131408  13.242   6.271  13.883
 9837SOL    HW231409  13.193   6.159  13.972
 9838SOL     OW31410   2.550   6.411   9.036
 9838SOL    HW131411   2.467   6.459   9.041
 9838SOL    HW231412   2.585   6.413   9.125
 9839SOL     OW31413   3.704   2.487   4.630
 9839SOL    HW131414   3.670   2.519   4.546
 9839SOL    HW231415   3.634   2.432   4.664
 9840SOL     OW31416  10.019   1.367   5.342
 9840SOL    HW131417   9.947   1.323   5.386
 9840SOL    HW231418   9.989   1.381   5.253
 9841SOL     OW31419   5.835  10.036   0.337
 9841SOL    HW131420   5.889  10.116   0.333
 9841SOL    HW231421   5.763  10.053   0.277
 9842SOL     OW31422   5.805  14.803  10.425
 9842SOL    HW131423   5.770  14.803  10.514
 9842SOL    HW231424   5.731  14.828  10.370
 9843SOL     OW31425   5.472   5.173   1.446
 9843SOL    HW131426   5.537   5.104   1.433
 9843SOL    HW231427   5.518   5.239   1.499
 9844SOL     OW31428   8.223   6.121   3.552
 9844SOL    HW131429   8.161   6.049   3.546
 9844SOL    HW231430   8.281   6.097   3.624
 9845SOL     OW31431   5.493   3.497   9.991
 9845SOL    HW131432   5.500   3.588  10.020
 9845SOL    HW231433   5.553   3.449  10.049
 9846SOL     OW31434   8.286   2.110   5.229
 9846SOL    HW131435   8.227   2.122   5.154
 9846SOL    HW231436   8.235   2.059   5.291
 9847SOL     OW31437  13.938   7.981   3.041
 9847SOL    HW131438  13.989   8.045   3.090
 9847SOL    HW231439  13.974   7.983   2.953
 9848SOL     OW31440   6.256   0.632   6.121
 9848SOL    HW131441   6.197   0.681   6.177
 9848SOL    HW231442   6.342   0.641   6.161
 9849SOL     OW31443   4.401   3.196   9.780
 9849SOL    HW131444   4.429   3.124   9.837
 9849SOL    HW231445   4.439   3.274   9.819
 9850SOL     OW31446   8.945  13.489   1.958
 9850SOL    HW131447   8.956  13.404   1.916
 9850SOL    HW231448   8.892  13.539   1.896
 9851SOL     OW31449   6.584  14.274   4.201
 9851SOL    HW131450   6.572  14.266   4.295
 9851SOL    HW231451   6.495  14.284   4.166
 9852SOL     OW31452  13.878  10.672   8.814
 9852SOL    HW131453  13.916  10.758   8.797
 9852SOL    HW231454  13.899  10.654   8.905
 9853SOL     OW31455   0.460   2.263   9.229
 9853SOL    HW131456   0.487   2.262   9.137
 9853SOL    HW231457   0.458   2.171   9.255
 9854SOL     OW31458   2.273   6.008   6.898
 9854SOL    HW131459   2.362   5.998   6.866
 9854SOL    HW231460   2.218   5.982   6.824
 9855SOL     OW31461   9.257   5.521   2.469
 9855SOL    HW131462   9.299   5.469   2.537
 9855SOL    HW231463   9.306   5.501   2.389
 9856SOL     OW31464  11.302   1.018   0.289
 9856SOL    HW131465  11.353   0.937   0.289
 9856SOL    HW231466  11.226   0.998   0.343
 9857SOL     OW31467  13.888   3.646   4.565
 9857SOL    HW131468  13.900   3.555   4.539
 9857SOL    HW231469  13.809   3.673   4.518
 9858SOL     OW31470  14.867   4.239   0.070
 9858SOL    HW131471  14.807   4.278   0.134
 9858SOL    HW231472  14.827   4.259  14.860
 9859SOL     OW31473   6.627   8.297  13.922
 9859SOL    HW131474   6.532   8.286  13.923
 9859SOL    HW231475   6.652   8.280  13.831
 9860SOL     OW31476   5.450  13.358   8.815
 9860SOL    HW131477   5.395  13.315   8.750
 9860SOL    HW231478   5.536  13.363   8.773
 9861SOL     OW31479   4.725   2.386   3.442
 9861SOL    HW131480   4.680   2.463   3.476
 9861SOL    HW231481   4.787   2.363   3.511
 9862SOL     OW31482  14.624   5.723   2.378
 9862SOL    HW131483  14.616   5.717   2.283
 9862SOL    HW231484  14.709   5.763   2.393
 9863SOL     OW31485  13.446   3.263  12.738
 9863SOL    HW131486  13.463   3.334  12.677
 9863SOL    HW231487  13.488   3.186  12.699
 9864SOL     OW31488   1.328  14.595   4.187
 9864SOL    HW131489   1.317  14.689   4.178
 9864SOL    HW231490   1.245  14.564   4.223
 9865SOL     OW31491   6.275   4.043   4.948
 9865SOL    HW131492   6.295   4.079   4.861
 9865SOL    HW231493   6.204   3.980   4.932
 9866SOL     OW31494  14.307   7.616   6.380
 9866SOL    HW131495  14.378   7.568   6.337
 9866SOL    HW231496  14.352   7.683   6.432
 9867SOL     OW31497  14.672   9.883  13.506
 9867SOL    HW131498  14.658   9.842  13.421
 9867SOL    HW231499  14.623   9.828  13.568
 9868SOL     OW31500  10.777   1.952   9.760
 9868SOL    HW131501  10.773   1.924   9.668
 9868SOL    HW231502  10.697   2.003   9.773
 9869SOL     OW31503   0.003   4.054   4.934
 9869SOL    HW131504   0.004   4.082   4.843
 9869SOL    HW231505  14.852   3.962   4.931
 9870SOL     OW31506   6.075   7.231  10.097
 9870SOL    HW131507   6.146   7.275  10.050
 9870SOL    HW231508   6.120   7.185  10.168
 9871SOL     OW31509   3.522   5.275   0.277
 9871SOL    HW131510   3.490   5.363   0.297
 9871SOL    HW231511   3.596   5.290   0.218
 9872SOL     OW31512   0.598   7.142  10.254
 9872SOL    HW131513   0.503   7.128  10.256
 9872SOL    HW231514   0.611   7.206  10.184
 9873SOL     OW31515  13.687  14.679   4.025
 9873SOL    HW131516  13.699  14.763   3.981
 9873SOL    HW231517  13.756  14.623   3.991
 9874SOL     OW31518   7.871  13.234  14.642
 9874SOL    HW131519   7.903  13.229  14.552
 9874SOL    HW231520   7.948  13.219  14.696
 9875SOL     OW31521   1.541   7.961   5.548
 9875SOL    HW131522   1.629   7.966   5.586
 9875SOL    HW231523   1.534   7.873   5.513
 9876SOL     OW31524  14.054   9.030   9.988
 9876SOL    HW131525  14.083   9.120   9.971
 9876SOL    HW231526  14.052   8.988   9.902
 9877SOL     OW31527   6.356  14.866   8.760
 9877SOL    HW131528   6.338   0.055   8.830
 9877SOL    HW231529   6.271  14.827   8.742
 9878SOL     OW31530   4.947   4.058   3.806
 9878SOL    HW131531   4.887   3.990   3.836
 9878SOL    HW231532   4.947   4.050   3.711
 9879SOL     OW31533   0.255   7.098   4.325
 9879SOL    HW131534   0.332   7.151   4.304
 9879SOL    HW231535   0.200   7.105   4.246
 9880SOL     OW31536  13.475   6.631   5.062
 9880SOL    HW131537  13.406   6.696   5.050
 9880SOL    HW231538  13.556   6.678   5.041
 9881SOL     OW31539   0.504   9.403  10.791
 9881SOL    HW131540   0.489   9.471  10.726
 9881SOL    HW231541   0.452   9.329  10.761
 9882SOL     OW31542  12.234   6.722  14.001
 9882SOL    HW131543  12.148   6.698  14.036
 9882SOL    HW231544  12.246   6.813  14.027
 9883SOL     OW31545   5.128  10.793   9.957
 9883SOL    HW131546   5.135  10.888   9.963
 9883SOL    HW231547   5.188  10.768   9.887
 9884SOL     OW31548   9.473   0.562   5.479
 9884SOL    HW131549   9.426   0.620   5.538
 9884SOL    HW231550   9.557   0.546   5.523
 9885SOL     OW31551   7.443  12.191   3.669
 9885SOL    HW131552   7.472  12.103   3.645
 9885SOL    HW231553   7.403  12.180   3.755
 9886SOL     OW31554   5.186   2.016   5.832
 9886SOL    HW131555   5.135   2.029   5.912
 9886SOL    HW231556   5.135   1.954   5.780
 9887SOL     OW31557   4.553  12.822  13.626
 9887SOL    HW131558   4.571  12.900  13.678
 9887SOL    HW231559   4.507  12.763  13.686
 9888SOL     OW31560   9.439   5.452  10.733
 9888SOL    HW131561   9.530   5.479  10.723
 9888SOL    HW231562   9.437   5.361  10.704
 9889SOL     OW31563   5.717   6.211   4.432
 9889SOL    HW131564   5.694   6.120   4.449
 9889SOL    HW231565   5.723   6.250   4.519
 9890SOL     OW31566   4.044   1.294  13.413
 9890SOL    HW131567   4.119   1.345  13.444
 9890SOL    HW231568   3.971   1.355  13.414
 9891SOL     OW31569  12.551  12.727   9.298
 9891SOL    HW131570  12.630  12.711   9.349
 9891SOL    HW231571  12.496  12.780   9.355
 9892SOL     OW31572  14.512  11.654  10.600
 9892SOL    HW131573  14.465  11.574  10.578
 9892SOL    HW231574  14.600  11.625  10.623
 9893SOL     OW31575   3.527   8.874   1.494
 9893SOL    HW131576   3.587   8.800   1.503
 9893SOL    HW231577   3.543   8.909   1.406
 9894SOL     OW31578  11.148  13.620   4.761
 9894SOL    HW131579  11.151  13.552   4.694
 9894SOL    HW231580  11.145  13.702   4.712
 9895SOL     OW31581  13.295   9.298   3.803
 9895SOL    HW131582  13.343   9.266   3.879
 9895SOL    HW231583  13.339   9.258   3.728
 9896SOL     OW31584  14.362   3.605   7.504
 9896SOL    HW131585  14.351   3.696   7.475
 9896SOL    HW231586  14.326   3.604   7.593
 9897SOL     OW31587   0.048   6.551  13.544
 9897SOL    HW131588   0.125   6.544  13.487
 9897SOL    HW231589  14.850   6.568  13.485
 9898SOL     OW31590  11.034   7.782   5.352
 9898SOL    HW131591  11.019   7.688   5.364
 9898SOL    HW231592  11.088   7.787   5.272
 9899SOL     OW31593   9.912   2.653   3.951
 9899SOL    HW131594   9.887   2.564   3.978
 9899SOL    HW231595   9.858   2.711   4.004
 9900SOL     OW31596   2.444   0.121   0.022
 9900SOL    HW131597   2.464   0.198   0.075
 9900SOL    HW231598   2.419   0.053   0.085
 9901SOL     OW31599   3.056   9.982  14.159
 9901SOL    HW131600   3.101  10.037  14.223
 9901SOL    HW231601   3.045   9.898  14.202
 9902SOL     OW31602   7.365   4.270  11.093
 9902SOL    HW131603   7.274   4.258  11.118
 9902SOL    HW231604   7.415   4.217  11.155
 9903SOL     OW31605   5.876   6.770   4.333
 9903SOL    HW131606   5.799   6.790   4.280
 9903SOL    HW231607   5.843   6.766   4.423
 9904SOL     OW31608  13.434   7.671   5.156
 9904SOL    HW131609  13.425   7.590   5.106
 9904SOL    HW231610  13.353   7.719   5.138
 9905SOL     OW31611  14.729   0.416  14.264
 9905SOL    HW131612  14.700   0.374  14.345
 9905SOL    HW231613  14.820   0.440  14.280
 9906SOL     OW31614  14.152  14.508   2.159
 9906SOL    HW131615  14.119  14.441   2.219
 9906SOL    HW231616  14.084  14.517   2.093
 9907SOL     OW31617  14.831  14.518   2.012
 9907SOL    HW131618  14.846  14.434   2.056
 9907SOL    HW231619  14.757  14.503   1.954
 9908SOL     OW31620   6.695   4.566   2.941
 9908SOL    HW131621   6.696   4.620   3.020
 9908SOL    HW231622   6.760   4.498   2.958
 9909SOL     OW31623   2.250   8.544   7.937
 9909SOL    HW131624   2.334   8.509   7.908
 9909SOL    HW231625   2.226   8.610   7.872
 9910SOL     OW31626   3.678   0.052   2.247
 9910SOL    HW131627   3.764   0.090   2.231
 9910SOL    HW231628   3.681  14.841   2.205
 9911SOL     OW31629   9.032  11.646  10.032
 9911SOL    HW131630   9.049  11.582   9.963
 9911SOL    HW231631   9.004  11.593  10.107
 9912SOL     OW31632  10.673  14.016   3.549
 9912SOL    HW131633  10.696  14.092   3.603
 9912SOL    HW231634  10.582  14.032   3.522
 9913SOL     OW31635  13.370   2.889   1.110
 9913SOL    HW131636  13.420   2.827   1.057
 9913SOL    HW231637  13.326   2.945   1.046
 9914SOL     OW31638  13.261   2.588   6.740
 9914SOL    HW131639  13.213   2.580   6.657
 9914SOL    HW231640  13.337   2.531   6.729
 9915SOL     OW31641   1.053   1.163   7.228
 9915SOL    HW131642   1.026   1.089   7.173
 9915SOL    HW231643   0.978   1.177   7.286
 9916SOL     OW31644   7.591   6.346  10.259
 9916SOL    HW131645   7.622   6.393  10.337
 9916SOL    HW231646   7.671   6.329  10.209
 9917SOL     OW31647  13.055   7.794   7.864
 9917SOL    HW131648  13.146   7.773   7.889
 9917SOL    HW231649  13.006   7.788   7.946
 9918SOL     OW31650   5.194  12.217   8.588
 9918SOL    HW131651   5.133  12.289   8.606
 9918SOL    HW231652   5.185  12.201   8.494
 9919SOL     OW31653   2.660   0.483   8.559
 9919SOL    HW131654   2.622   0.395   8.555
 9919SOL    HW231655   2.740   0.477   8.507
 9920SOL     OW31656   3.010  12.452   9.324
 9920SOL    HW131657   3.052  12.491   9.247
 9920SOL    HW231658   2.916  12.455   9.304
 9921SOL     OW31659   3.604   6.962   6.272
 9921SOL    HW131660   3.650   6.965   6.188
 9921SOL    HW231661   3.571   6.872   6.278
 9922SOL     OW31662   9.686  10.561  13.060
 9922SOL    HW131663   9.749  10.557  13.132
 9922SOL    HW231664   9.721  10.501  12.994
 9923SOL     OW31665   0.278   7.709  10.344
 9923SOL    HW131666   0.331   7.695  10.422
 9923SOL    HW231667   0.326   7.774  10.293
 9924SOL     OW31668  12.677   4.746  11.763
 9924SOL    HW131669  12.681   4.652  11.777
 9924SOL    HW231670  12.641   4.781  11.845
 9925SOL     OW31671   3.445   3.523   1.145
 9925SOL    HW131672   3.538   3.536   1.123
 9925SOL    HW231673   3.446   3.461   1.218
 9926SOL     OW31674  13.283  14.813  11.283
 9926SOL    HW131675  13.276   0.010  11.220
 9926SOL    HW231676  13.257  14.852  11.367
 9927SOL     OW31677   2.891   9.576   4.772
 9927SOL    HW131678   2.806   9.580   4.816
 9927SOL    HW231679   2.920   9.485   4.786
 9928SOL     OW31680   1.828   8.018  11.672
 9928SOL    HW131681   1.772   8.046  11.744
 9928SOL    HW231682   1.836   7.923  11.683
 9929SOL     OW31683   3.352  12.559   9.644
 9929SOL    HW131684   3.372  12.473   9.607
 9929SOL    HW231685   3.337  12.615   9.567
 9930SOL     OW31686   3.067  11.922   9.556
 9930SOL    HW131687   3.049  11.956   9.469
 9930SOL    HW231688   3.013  11.843   9.563
 9931SOL     OW31689   2.027   1.313  12.076
 9931SOL    HW131690   2.091   1.379  12.051
 9931SOL    HW231691   1.986   1.347  12.155
 9932SOL     OW31692   8.465   1.073  13.799
 9932SOL    HW131693   8.501   1.031  13.720
 9932SOL    HW231694   8.390   1.123  13.768
 9933SOL     OW31695   4.989  10.192   3.106
 9933SOL    HW131696   5.037  10.232   3.179
 9933SOL    HW231697   4.929  10.130   3.148
 9934SOL     OW31698  10.689   8.903   9.718
 9934SOL    HW131699  10.667   8.920   9.626
 9934SOL    HW231700  10.607   8.916   9.765
 9935SOL     OW31701   9.977   6.421   1.241
 9935SOL    HW131702   9.904   6.479   1.262
 9935SOL    HW231703   9.993   6.372   1.321
 9936SOL     OW31704  14.809   3.569   4.252
 9936SOL    HW131705  14.723   3.569   4.293
 9936SOL    HW231706  14.870   3.569   4.326
 9937SOL     OW31707  11.823   9.541   4.687
 9937SOL    HW131708  11.729   9.525   4.681
 9937SOL    HW231709  11.844   9.526   4.779
 9938SOL     OW31710   2.533   0.671   1.250
 9938SOL    HW131711   2.613   0.715   1.221
 9938SOL    HW231712   2.500   0.626   1.172
 9939SOL     OW31713   9.212   5.503  13.093
 9939SOL    HW131714   9.256   5.429  13.134
 9939SOL    HW231715   9.132   5.466  13.056
 9940SOL     OW31716   7.763  11.623  10.052
 9940SOL    HW131717   7.836  11.586  10.003
 9940SOL    HW231718   7.685  11.579  10.017
 9941SOL     OW31719   8.305   0.736   7.421
 9941SOL    HW131720   8.353   0.813   7.391
 9941SOL    HW231721   8.214   0.753   7.394
 9942SOL     OW31722   7.551  13.484  12.829
 9942SOL    HW131723   7.471  13.457  12.872
 9942SOL    HW231724   7.553  13.579  12.838
 9943SOL     OW31725  12.662   7.925   0.001
 9943SOL    HW131726  12.746   7.880   0.009
 9943SOL    HW231727  12.597   7.861   0.031
 9944SOL     OW31728   5.491   9.802   7.487
 9944SOL    HW131729   5.464   9.894   7.493
 9944SOL    HW231730   5.547   9.788   7.564
 9945SOL     OW31731   7.443   1.786   2.837
 9945SOL    HW131732   7.472   1.697   2.859
 9945SOL    HW231733   7.524   1.836   2.828
 9946SOL     OW31734  12.149   0.412  13.076
 9946SOL    HW131735  12.093   0.369  13.012
 9946SOL    HW231736  12.088   0.460  13.133
 9947SOL     OW31737   2.330   3.382   0.816
 9947SOL    HW131738   2.318   3.315   0.749
 9947SOL    HW231739   2.243   3.394   0.854
 9948SOL     OW31740  10.458  13.523   1.960
 9948SOL    HW131741  10.454  13.533   2.055
 9948SOL    HW231742  10.367  13.516   1.932
 9949SOL     OW31743   4.053  10.012   1.621
 9949SOL    HW131744   4.007   9.928   1.629
 9949SOL    HW231745   4.111  10.000   1.546
 9950SOL     OW31746   0.804   8.950   8.172
 9950SOL    HW131747   0.749   8.929   8.247
 9950SOL    HW231748   0.862   8.874   8.162
 9951SOL     OW31749   5.872   1.913  12.031
 9951SOL    HW131750   5.790   1.868  12.010
 9951SOL    HW231751   5.940   1.847  12.019
 9952SOL     OW31752   1.231  12.477   7.353
 9952SOL    HW131753   1.251  12.474   7.259
 9952SOL    HW231754   1.178  12.399   7.368
 9953SOL     OW31755   6.138   9.059   1.487
 9953SOL    HW131756   6.164   9.060   1.580
 9953SOL    HW231757   6.184   9.132   1.448
 9954SOL     OW31758  13.225   9.637   3.077
 9954SOL    HW131759  13.142   9.613   3.117
 9954SOL    HW231760  13.289   9.629   3.148
 9955SOL     OW31761   8.840   5.423   6.140
 9955SOL    HW131762   8.756   5.418   6.185
 9955SOL    HW231763   8.903   5.387   6.202
 9956SOL     OW31764   4.470  12.093   4.308
 9956SOL    HW131765   4.395  12.071   4.253
 9956SOL    HW231766   4.441  12.076   4.398
 9957SOL     OW31767   8.066   9.074   9.397
 9957SOL    HW131768   8.130   9.099   9.463
 9957SOL    HW231769   7.995   9.138   9.406
 9958SOL     OW31770  13.681  10.506  10.343
 9958SOL    HW131771  13.713  10.425  10.305
 9958SOL    HW231772  13.746  10.530  10.409
 9959SOL     OW31773   6.598   7.743   6.636
 9959SOL    HW131774   6.671   7.743   6.575
 9959SOL    HW231775   6.633   7.781   6.717
 9960SOL     OW31776  13.988   7.464   7.789
 9960SOL    HW131777  13.922   7.532   7.791
 9960SOL    HW231778  13.941   7.383   7.810
 9961SOL     OW31779   1.177   8.895   6.461
 9961SOL    HW131780   1.135   8.927   6.381
 9961SOL    HW231781   1.114   8.833   6.499
 9962SOL     OW31782   6.827   9.365   0.221
 9962SOL    HW131783   6.805   9.371   0.128
 9962SOL    HW231784   6.767   9.299   0.255
 9963SOL     OW31785  13.025   6.574  13.370
 9963SOL    HW131786  13.000   6.659  13.407
 9963SOL    HW231787  12.969   6.563  13.293
 9964SOL     OW31788  10.481   8.630   8.978
 9964SOL    HW131789  10.457   8.619   9.070
 9964SOL    HW231790  10.399   8.613   8.930
 9965SOL     OW31791   7.120   0.738  14.283
 9965SOL    HW131792   7.143   0.712  14.371
 9965SOL    HW231793   7.167   0.821  14.269
 9966SOL     OW31794  12.302   3.826  10.096
 9966SOL    HW131795  12.261   3.739  10.105
 9966SOL    HW231796  12.347   3.840  10.180
 9967SOL     OW31797  14.564  13.023   6.921
 9967SOL    HW131798  14.593  13.056   6.835
 9967SOL    HW231799  14.633  12.962   6.947
 9968SOL     OW31800   1.370   9.112  12.680
 9968SOL    HW131801   1.371   9.181  12.745
 9968SOL    HW231802   1.335   9.154  12.601
 9969SOL     OW31803   0.122  12.816   9.939
 9969SOL    HW131804   0.043  12.869   9.927
 9969SOL    HW231805   0.167  12.820   9.855
 9970SOL     OW31806  13.846   0.269   5.911
 9970SOL    HW131807  13.908   0.335   5.940
 9970SOL    HW231808  13.881   0.238   5.827
 9971SOL     OW31809   5.397   6.809  11.398
 9971SOL    HW131810   5.478   6.859  11.392
 9971SOL    HW231811   5.426   6.717  11.397
 9972SOL     OW31812   9.521   9.710   5.491
 9972SOL    HW131813   9.431   9.679   5.480
 9972SOL    HW231814   9.543   9.687   5.581
 9973SOL     OW31815   4.383   5.158  12.598
 9973SOL    HW131816   4.396   5.211  12.520
 9973SOL    HW231817   4.431   5.206  12.667
 9974SOL     OW31818   6.248  10.575  14.508
 9974SOL    HW131819   6.231  10.542  14.420
 9974SOL    HW231820   6.312  10.513  14.544
 9975SOL     OW31821   7.787  14.239   4.760
 9975SOL    HW131822   7.753  14.235   4.849
 9975SOL    HW231823   7.743  14.168   4.714
 9976SOL     OW31824   4.275  14.034   6.273
 9976SOL    HW131825   4.186  14.038   6.239
 9976SOL    HW231826   4.330  14.028   6.195
 9977SOL     OW31827   5.554   1.147   6.728
 9977SOL    HW131828   5.609   1.098   6.667
 9977SOL    HW231829   5.604   1.147   6.810
 9978SOL     OW31830   8.269  11.009   0.439
 9978SOL    HW131831   8.222  10.963   0.509
 9978SOL    HW231832   8.201  11.035   0.377
 9979SOL     OW31833   7.966  10.299   7.078
 9979SOL    HW131834   8.052  10.268   7.050
 9979SOL    HW231835   7.960  10.388   7.043
 9980SOL     OW31836  14.749   4.325  11.337
 9980SOL    HW131837  14.798   4.254  11.295
 9980SOL    HW231838  14.811   4.362  11.400
 9981SOL     OW31839   3.943  12.674   0.874
 9981SOL    HW131840   3.987  12.590   0.884
 9981SOL    HW231841   3.923  12.701   0.964
 9982SOL     OW31842   9.911   7.850   1.554
 9982SOL    HW131843   9.841   7.879   1.496
 9982SOL    HW231844   9.940   7.929   1.599
 9983SOL     OW31845   1.009   8.704   6.503
 9983SOL    HW131846   0.953   8.680   6.577
 9983SOL    HW231847   1.019   8.623   6.454
 9984SOL     OW31848   4.319  12.236  14.668
 9984SOL    HW131849   4.308  12.311  14.611
 9984SOL    HW231850   4.307  12.271  14.757
 9985SOL     OW31851  11.101   3.245   8.183
 9985SOL    HW131852  11.151   3.167   8.206
 9985SOL    HW231853  11.032   3.214   8.124
 9986SOL     OW31854  14.680   6.271  12.045
 9986SOL    HW131855  14.737   6.341  12.076
 9986SOL    HW231856  14.611   6.316  11.996
 9987SOL     OW31857   6.925  10.462   1.028
 9987SOL    HW131858   6.978  10.516   0.969
 9987SOL    HW231859   6.852  10.433   0.973
 9988SOL     OW31860   1.242   1.865   2.450
 9988SOL    HW131861   1.318   1.813   2.425
 9988SOL    HW231862   1.179   1.851   2.378
 9989SOL     OW31863   0.773   0.181  12.049
 9989SOL    HW131864   0.760   0.197  12.143
 9989SOL    HW231865   0.867   0.174  12.039
 9990SOL     OW31866   7.327   4.496   2.473
 9990SOL    HW131867   7.295   4.586   2.480
 9990SOL    HW231868   7.376   4.481   2.554
 9991SOL     OW31869   4.634   1.541   5.013
 9991SOL    HW131870   4.696   1.519   5.082
 9991SOL    HW231871   4.657   1.630   4.986
 9992SOL     OW31872   2.456  13.064   6.644
 9992SOL    HW131873   2.436  13.135   6.583
 9992SOL    HW231874   2.550  13.049   6.634
 9993SOL     OW31875  11.289   1.243   9.192
 9993SOL    HW131876  11.351   1.191   9.244
 9993SOL    HW231877  11.310   1.222   9.101
 9994SOL     OW31878   2.760   3.657   0.471
 9994SOL    HW131879   2.683   3.602   0.459
 9994SOL    HW231880   2.834   3.596   0.469
 9995SOL     OW31881  11.397   5.817   6.021
 9995SOL    HW131882  11.382   5.766   5.942
 9995SOL    HW231883  11.310   5.828   6.060
 9996SOL     OW31884  14.626   9.765   0.441
 9996SOL    HW131885  14.700   9.805   0.486
 9996SOL    HW231886  14.664   9.721   0.365
 9997SOL     OW31887  12.222   0.799   4.078
 9997SOL    HW131888  12.191   0.717   4.038
 9997SOL    HW231889  12.161   0.866   4.047
 9998SOL     OW31890   7.498  12.841  13.071
 9998SOL    HW131891   7.528  12.784  13.141
 9998SOL    HW231892   7.578  12.881  13.037
 9999SOL     OW31893   0.945   3.890   7.364
 9999SOL    HW131894   0.851   3.905   7.360
 9999SOL    HW231895   0.964   3.876   7.457
10000SOL     OW31896   1.347   0.575  10.768
10000SOL    HW131897   1.291   0.558  10.844
10000SOL    HW231898   1.311   0.519  10.699
10001SOL     OW31899  10.740  11.907   3.691
10001SOL    HW131900  10.813  11.964   3.669
10001SOL    HW231901  10.666  11.942   3.640
10002SOL     OW31902   4.202  10.724   8.278
10002SOL    HW131903   4.244  10.658   8.333
10002SOL    HW231904   4.276  10.771   8.238
10003SOL     OW31905   1.524  13.689   3.965
10003SOL    HW131906   1.493  13.650   3.883
10003SOL    HW231907   1.617  13.669   3.968
10004SOL     OW31908   9.513   1.634   7.633
10004SOL    HW131909   9.584   1.581   7.597
10004SOL    HW231910   9.551   1.720   7.647
10005SOL     OW31911   3.675   1.090  11.601
10005SOL    HW131912   3.706   1.018  11.547
10005SOL    HW231913   3.750   1.150  11.606
10006SOL     OW31914  10.118   7.335   6.108
10006SOL    HW131915  10.113   7.242   6.134
10006SOL    HW231916  10.038   7.373   6.144
10007SOL     OW31917   7.688   2.128   3.440
10007SOL    HW131918   7.779   2.110   3.465
10007SOL    HW231919   7.648   2.161   3.521
10008SOL     OW31920  13.058  13.221   1.225
10008SOL    HW131921  13.106  13.288   1.272
10008SOL    HW231922  13.012  13.172   1.293
10009SOL     OW31923  11.855   4.497  10.045
10009SOL    HW131924  11.762   4.474  10.039
10009SOL    HW231925  11.899   4.437   9.985
10010SOL     OW31926   9.763   9.483   9.662
10010SOL    HW131927   9.747   9.415   9.727
10010SOL    HW231928   9.756   9.438   9.578
10011SOL     OW31929   8.037   8.788   3.470
10011SOL    HW131930   7.965   8.726   3.460
10011SOL    HW231931   8.109   8.749   3.419
10012SOL     OW31932  11.262   0.180  14.319
10012SOL    HW131933  11.190   0.133  14.276
10012SOL    HW231934  11.265   0.143  14.407
10013SOL     OW31935   7.539   0.818   4.505
10013SOL    HW131936   7.599   0.880   4.464
10013SOL    HW231937   7.539   0.842   4.598
10014SOL     OW31938   4.989   7.745  10.242
10014SOL    HW131939   4.965   7.707  10.327
10014SOL    HW231940   5.022   7.670  10.192
10015SOL     OW31941   7.840   8.717   9.956
10015SOL    HW131942   7.821   8.650  10.021
10015SOL    HW231943   7.797   8.687   9.876
10016SOL     OW31944   7.459   3.699   3.779
10016SOL    HW131945   7.536   3.653   3.813
10016SOL    HW231946   7.486   3.791   3.772
10017SOL     OW31947   7.201  14.400   8.011
10017SOL    HW131948   7.139  14.443   8.071
10017SOL    HW231949   7.248  14.472   7.970
10018SOL     OW31950   8.854   9.385  13.462
10018SOL    HW131951   8.882   9.473  13.487
10018SOL    HW231952   8.767   9.398  13.424
10019SOL     OW31953   3.256   0.204   4.757
10019SOL    HW131954   3.173   0.205   4.709
10019SOL    HW231955   3.318   0.161   4.699
10020SOL     OW31956   4.668  10.643  12.020
10020SOL    HW131957   4.738  10.632  11.955
10020SOL    HW231958   4.711  10.631  12.104
10021SOL     OW31959  10.706   3.177  13.280
10021SOL    HW131960  10.704   3.253  13.338
10021SOL    HW231961  10.729   3.104  13.337
10022SOL     OW31962   2.371  14.655   9.591
10022SOL    HW131963   2.320  14.681   9.515
10022SOL    HW231964   2.327  14.695   9.666
10023SOL     OW31965   6.744   8.730   4.139
10023SOL    HW131966   6.750   8.806   4.196
10023SOL    HW231967   6.828   8.685   4.151
10024SOL     OW31968  12.230  12.946  12.966
10024SOL    HW131969  12.248  13.034  12.999
10024SOL    HW231970  12.258  12.887  13.036
10025SOL     OW31971  13.401  14.311   9.925
10025SOL    HW131972  13.319  14.355   9.904
10025SOL    HW231973  13.458  14.331   9.851
10026SOL     OW31974   1.571  10.161  13.093
10026SOL    HW131975   1.548  10.249  13.061
10026SOL    HW231976   1.590  10.174  13.186
10027SOL     OW31977   4.980   7.344   6.853
10027SOL    HW131978   4.927   7.265   6.847
10027SOL    HW231979   5.042   7.326   6.923
10028SOL     OW31980  11.712  14.035  11.852
10028SOL    HW131981  11.621  14.066  11.858
10028SOL    HW231982  11.748  14.079  11.775
10029SOL     OW31983   4.110   5.516   0.971
10029SOL    HW131984   4.020   5.488   0.957
10029SOL    HW231985   4.104   5.612   0.976
10030SOL     OW31986   4.060   9.165  10.689
10030SOL    HW131987   4.026   9.188  10.603
10030SOL    HW231988   3.988   9.184  10.749
10031SOL     OW31989   1.012   1.409   2.117
10031SOL    HW131990   0.994   1.386   2.208
10031SOL    HW231991   1.055   1.331   2.081
10032SOL     OW31992  14.413  13.294   6.363
10032SOL    HW131993  14.470  13.221   6.338
10032SOL    HW231994  14.393  13.279   6.455
10033SOL     OW31995   6.486   5.959  14.187
10033SOL    HW131996   6.415   6.003  14.233
10033SOL    HW231997   6.517   6.024  14.124
10034SOL     OW31998   0.291   6.634  13.027
10034SOL    HW131999   0.385   6.615  13.024
10034SOL    HW232000   0.249   6.548  13.024
10035SOL     OW32001   1.790   4.017   8.613
10035SOL    HW132002   1.868   4.067   8.639
10035SOL    HW232003   1.767   4.052   8.527
10036SOL     OW32004   1.314   6.962   0.913
10036SOL    HW132005   1.351   7.049   0.927
10036SOL    HW232006   1.229   6.964   0.957
10037SOL     OW32007  14.412  14.150   4.810
10037SOL    HW132008  14.318  14.145   4.796
10037SOL    HW232009  14.421  14.154   4.906
10038SOL     OW32010  12.980   9.384  13.415
10038SOL    HW132011  12.978   9.438  13.336
10038SOL    HW232012  13.008   9.297  13.384
10039SOL     OW32013  12.083   0.548   5.792
10039SOL    HW132014  12.149   0.589   5.847
10039SOL    HW232015  12.065   0.612   5.723
10040SOL     OW32016  10.231   7.593   8.586
10040SOL    HW132017  10.262   7.647   8.658
10040SOL    HW232018  10.196   7.656   8.523
10041SOL     OW32019  14.865   6.744   6.744
10041SOL    HW132020  14.833   6.756   6.833
10041SOL    HW232021   0.060   6.680   6.752
10042SOL     OW32022   0.620   9.964   8.342
10042SOL    HW132023   0.576   9.919   8.415
10042SOL    HW232024   0.647   9.893   8.284
10043SOL     OW32025   5.435  11.855   7.586
10043SOL    HW132026   5.367  11.808   7.635
10043SOL    HW232027   5.425  11.823   7.496
10044SOL     OW32028   0.248  13.903  14.171
10044SOL    HW132029   0.163  13.866  14.148
10044SOL    HW232030   0.293  13.832  14.218
10045SOL     OW32031   7.987  13.779   9.881
10045SOL    HW132032   7.919  13.838   9.849
10045SOL    HW232033   8.061  13.792   9.822
10046SOL     OW32034   1.441  11.109  12.194
10046SOL    HW132035   1.392  11.124  12.113
10046SOL    HW232036   1.389  11.153  12.262
10047SOL     OW32037   3.845   7.891   9.377
10047SOL    HW132038   3.807   7.804   9.365
10047SOL    HW232039   3.801   7.945   9.312
10048SOL     OW32040   7.596  10.444   5.649
10048SOL    HW132041   7.566  10.437   5.559
10048SOL    HW232042   7.520  10.475   5.698
10049SOL     OW32043  11.829   1.370  12.856
10049SOL    HW132044  11.785   1.445  12.815
10049SOL    HW232045  11.864   1.319  12.783
10050SOL     OW32046  14.003   3.779   2.366
10050SOL    HW132047  13.925   3.726   2.348
10050SOL    HW232048  13.985   3.821   2.450
10051SOL     OW32049   1.818  14.827   1.031
10051SOL    HW132050   1.759   0.018   0.995
10051SOL    HW232051   1.783  14.744   1.000
10052SOL     OW32052  13.013   2.958   5.980
10052SOL    HW132053  12.970   2.989   5.901
10052SOL    HW232054  12.976   3.013   6.050
10053SOL     OW32055   1.247  11.275   3.245
10053SOL    HW132056   1.312  11.215   3.207
10053SOL    HW232057   1.300  11.341   3.290
10054SOL     OW32058   4.169  12.641  13.631
10054SOL    HW132059   4.118  12.710  13.589
10054SOL    HW232060   4.178  12.670  13.722
10055SOL     OW32061   8.857   9.419  13.021
10055SOL    HW132062   8.940   9.421  13.069
10055SOL    HW232063   8.861   9.494  12.962
10056SOL     OW32064   6.770  11.909   8.134
10056SOL    HW132065   6.814  11.966   8.071
10056SOL    HW232066   6.681  11.901   8.100
10057SOL     OW32067   0.716   9.334  11.381
10057SOL    HW132068   0.690   9.426  11.378
10057SOL    HW232069   0.785   9.326  11.315
10058SOL     OW32070   2.389  14.810   2.372
10058SOL    HW132071   2.400  14.719   2.346
10058SOL    HW232072   2.448  14.822   2.446
10059SOL     OW32073   8.896   3.974  14.196
10059SOL    HW132074   8.861   3.898  14.243
10059SOL    HW232075   8.954   4.017  14.260
10060SOL     OW32076   1.649   3.556   5.123
10060SOL    HW132077   1.710   3.567   5.196
10060SOL    HW232078   1.586   3.490   5.153
10061SOL     OW32079   3.727  14.467  12.621
10061SOL    HW132080   3.700  14.558  12.610
10061SOL    HW232081   3.653  14.416  12.587
10062SOL     OW32082   3.810  10.921   4.926
10062SOL    HW132083   3.809  10.827   4.908
10062SOL    HW232084   3.861  10.959   4.854
10063SOL     OW32085   8.793  13.806   9.747
10063SOL    HW132086   8.818  13.880   9.803
10063SOL    HW232087   8.778  13.734   9.809
10064SOL     OW32088  11.566  13.811  10.768
10064SOL    HW132089  11.483  13.769  10.747
10064SOL    HW232090  11.632  13.744  10.750
10065SOL     OW32091   7.292   3.330  12.891
10065SOL    HW132092   7.254   3.262  12.946
10065SOL    HW232093   7.281   3.411  12.942
10066SOL     OW32094  10.327   6.930  10.774
10066SOL    HW132095  10.363   7.012  10.742
10066SOL    HW232096  10.403   6.874  10.787
10067SOL     OW32097  14.200   9.882   2.786
10067SOL    HW132098  14.146   9.881   2.865
10067SOL    HW232099  14.262   9.954   2.800
10068SOL     OW32100   5.810  10.517   3.637
10068SOL    HW132101   5.722  10.523   3.601
10068SOL    HW232102   5.867  10.542   3.564
10069SOL     OW32103  11.788   7.365   7.936
10069SOL    HW132104  11.751   7.284   7.901
10069SOL    HW232105  11.812   7.416   7.858
10070SOL     OW32106  10.830  11.773  11.886
10070SOL    HW132107  10.815  11.773  11.981
10070SOL    HW232108  10.795  11.689  11.856
10071SOL     OW32109  14.740   9.602   6.367
10071SOL    HW132110  14.718   9.668   6.432
10071SOL    HW232111  14.807   9.643   6.312
10072SOL     OW32112   7.017   2.098  10.852
10072SOL    HW132113   7.014   2.040  10.928
10072SOL    HW232114   7.096   2.149  10.863
10073SOL     OW32115  10.220  11.493  10.903
10073SOL    HW132116  10.216  11.566  10.842
10073SOL    HW232117  10.310  11.493  10.936
10074SOL     OW32118   1.398  12.192   6.791
10074SOL    HW132119   1.424  12.107   6.825
10074SOL    HW232120   1.306  12.181   6.766
10075SOL     OW32121   3.076   5.671   7.795
10075SOL    HW132122   3.158   5.696   7.839
10075SOL    HW232123   3.016   5.651   7.866
10076SOL     OW32124   0.943  12.619  11.577
10076SOL    HW132125   0.899  12.693  11.534
10076SOL    HW232126   0.874  12.553  11.587
10077SOL     OW32127   1.454   4.618   8.320
10077SOL    HW132128   1.372   4.632   8.368
10077SOL    HW232129   1.438   4.540   8.268
10078SOL     OW32130   7.110   4.730   1.172
10078SOL    HW132131   7.145   4.675   1.102
10078SOL    HW232132   7.162   4.707   1.249
10079SOL     OW32133  11.570   2.343   4.718
10079SOL    HW132134  11.568   2.393   4.800
10079SOL    HW232135  11.478   2.332   4.695
10080SOL     OW32136   8.173   8.188   2.154
10080SOL    HW132137   8.203   8.256   2.214
10080SOL    HW232138   8.077   8.187   2.164
10081SOL     OW32139  12.210  13.474   7.832
10081SOL    HW132140  12.160  13.554   7.851
10081SOL    HW232141  12.290  13.484   7.883
10082SOL     OW32142   6.030   6.250   6.350
10082SOL    HW132143   5.973   6.284   6.281
10082SOL    HW232144   6.116   6.245   6.309
10083SOL     OW32145   2.123   9.185  13.061
10083SOL    HW132146   2.213   9.217  13.060
10083SOL    HW232147   2.073   9.255  13.103
10084SOL     OW32148  11.604   2.691  10.502
10084SOL    HW132149  11.667   2.706  10.572
10084SOL    HW232150  11.657   2.667  10.426
10085SOL     OW32151  12.166  12.814   9.870
10085SOL    HW132152  12.153  12.730   9.914
10085SOL    HW232153  12.259  12.834   9.883
10086SOL     OW32154   6.387   6.227  12.719
10086SOL    HW132155   6.467   6.186  12.687
10086SOL    HW232156   6.336   6.246  12.640
10087SOL     OW32157   6.207   6.241   6.131
10087SOL    HW132158   6.246   6.245   6.044
10087SOL    HW232159   6.214   6.330   6.165
10088SOL     OW32160  11.321   3.228  13.416
10088SOL    HW132161  11.384   3.157  13.427
10088SOL    HW232162  11.372   3.300  13.378
10089SOL     OW32163  11.336  12.534  13.452
10089SOL    HW132164  11.274  12.470  13.416
10089SOL    HW232165  11.281  12.602  13.491
10090SOL     OW32166   6.808   4.706   8.069
10090SOL    HW132167   6.840   4.777   8.013
10090SOL    HW232168   6.837   4.626   8.025
10091SOL     OW32169   3.309   9.371  14.174
10091SOL    HW132170   3.326   9.313  14.100
10091SOL    HW232171   3.340   9.322  14.250
10092SOL     OW32172   3.756  13.073  11.002
10092SOL    HW132173   3.715  13.030  10.927
10092SOL    HW232174   3.730  13.020  11.078
10093SOL     OW32175   2.244   7.171  12.949
10093SOL    HW132176   2.156   7.184  12.983
10093SOL    HW232177   2.233   7.107  12.878
10094SOL     OW32178   0.391  14.401   7.350
10094SOL    HW132179   0.396  14.348   7.270
10094SOL    HW232180   0.441  14.480   7.329
10095SOL     OW32181  14.590  14.426   1.823
10095SOL    HW132182  14.616  14.454   1.735
10095SOL    HW232183  14.540  14.500   1.858
10096SOL     OW32184   2.116   8.644   4.707
10096SOL    HW132185   2.038   8.691   4.679
10096SOL    HW232186   2.084   8.558   4.734
10097SOL     OW32187   4.542   3.336   1.818
10097SOL    HW132188   4.475   3.269   1.831
10097SOL    HW232189   4.601   3.325   1.892
10098SOL     OW32190  10.095   3.582   4.044
10098SOL    HW132191  10.129   3.528   4.116
10098SOL    HW232192  10.065   3.518   3.979
10099SOL     OW32193   7.986   5.627  12.994
10099SOL    HW132194   8.050   5.618  12.923
10099SOL    HW232195   8.000   5.550  13.048
10100SOL     OW32196  10.869  11.310   9.006
10100SOL    HW132197  10.852  11.404   9.012
10100SOL    HW232198  10.906  11.288   9.092
10101SOL     OW32199   9.211   9.811  13.080
10101SOL    HW132200   9.133   9.816  13.135
10101SOL    HW232201   9.272   9.873  13.120
10102SOL     OW32202  12.657   3.060   7.674
10102SOL    HW132203  12.635   2.993   7.738
10102SOL    HW232204  12.629   3.142   7.715
10103SOL     OW32205   7.746  12.089   0.605
10103SOL    HW132206   7.809  12.126   0.544
10103SOL    HW232207   7.679  12.158   0.615
10104SOL     OW32208   0.553  11.237   9.458
10104SOL    HW132209   0.473  11.205   9.417
10104SOL    HW232210   0.566  11.324   9.421
10105SOL     OW32211  11.631  13.812   4.586
10105SOL    HW132212  11.578  13.739   4.555
10105SOL    HW232213  11.587  13.844   4.664
10106SOL     OW32214   6.629   3.178  11.714
10106SOL    HW132215   6.545   3.198  11.672
10106SOL    HW232216   6.627   3.227  11.796
10107SOL     OW32217  12.316   3.268   6.090
10107SOL    HW132218  12.404   3.304   6.091
10107SOL    HW232219  12.303   3.237   6.000
10108SOL     OW32220  13.354   7.462   0.095
10108SOL    HW132221  13.275   7.427   0.054
10108SOL    HW232222  13.376   7.540   0.043
10109SOL     OW32223   2.334  11.295   2.024
10109SOL    HW132224   2.255  11.340   1.994
10109SOL    HW232225   2.355  11.234   1.954
10110SOL     OW32226   8.076   1.449   1.110
10110SOL    HW132227   8.167   1.478   1.117
10110SOL    HW232228   8.031   1.524   1.070
10111SOL     OW32229   1.490   0.588   9.202
10111SOL    HW132230   1.430   0.648   9.248
10111SOL    HW232231   1.559   0.570   9.266
10112SOL     OW32232   4.890   9.231   6.553
10112SOL    HW132233   4.947   9.307   6.563
10112SOL    HW232234   4.852   9.241   6.466
10113SOL     OW32235   7.013   0.330   5.413
10113SOL    HW132236   7.108   0.332   5.415
10113SOL    HW232237   6.991   0.270   5.342
10114SOL     OW32238   6.488  11.296   8.098
10114SOL    HW132239   6.426  11.257   8.038
10114SOL    HW232240   6.537  11.221   8.134
10115SOL     OW32241  11.026   1.129   8.520
10115SOL    HW132242  11.056   1.192   8.455
10115SOL    HW232243  10.945   1.167   8.556
10116SOL     OW32244   7.698   1.887   9.943
10116SOL    HW132245   7.619   1.836   9.960
10116SOL    HW232246   7.740   1.843   9.869
10117SOL     OW32247  12.972  11.643  11.479
10117SOL    HW132248  12.925  11.659  11.397
10117SOL    HW232249  12.905  11.654  11.547
10118SOL     OW32250   4.470  13.129   1.048
10118SOL    HW132251   4.536  13.149   1.114
10118SOL    HW232252   4.520  13.118   0.967
10119SOL     OW32253   2.437   3.302   0.060
10119SOL    HW132254   2.392   3.274  14.855
10119SOL    HW232255   2.525   3.325   0.031
10120SOL     OW32256   8.711  10.679   7.534
10120SOL    HW132257   8.729  10.696   7.442
10120SOL    HW232258   8.766  10.604   7.555
10121SOL     OW32259   8.315   3.565   2.450
10121SOL    HW132260   8.404   3.579   2.480
10121SOL    HW232261   8.260   3.600   2.521
10122SOL     OW32262  13.224  11.884   3.428
10122SOL    HW132263  13.145  11.923   3.465
10122SOL    HW232264  13.238  11.805   3.481
10123SOL     OW32265  12.874   4.508   7.976
10123SOL    HW132266  12.852   4.445   7.908
10123SOL    HW232267  12.944   4.562   7.938
10124SOL     OW32268   4.893   2.340  14.649
10124SOL    HW132269   4.833   2.354  14.723
10124SOL    HW232270   4.837   2.309  14.578
10125SOL     OW32271  11.618   1.195  13.402
10125SOL    HW132272  11.697   1.238  13.435
10125SOL    HW232273  11.546   1.248  13.437
10126SOL     OW32274  11.141  13.919   6.741
10126SOL    HW132275  11.187  13.877   6.814
10126SOL    HW232276  11.150  14.012   6.757
10127SOL     OW32277   5.352   6.144   4.634
10127SOL    HW132278   5.274   6.136   4.688
10127SOL    HW232279   5.413   6.079   4.669
10128SOL     OW32280   8.767   8.154  12.715
10128SOL    HW132281   8.776   8.058  12.717
10128SOL    HW232282   8.732   8.172  12.628
10129SOL     OW32283  11.215   7.856  14.449
10129SOL    HW132284  11.204   7.890  14.538
10129SOL    HW232285  11.125   7.850  14.415
10130SOL     OW32286   0.495   6.680  14.644
10130SOL    HW132287   0.589   6.680  14.664
10130SOL    HW232288   0.453   6.689  14.729
10131SOL     OW32289   4.860   6.457   0.151
10131SOL    HW132290   4.905   6.539   0.175
10131SOL    HW232291   4.821   6.476   0.066
10132SOL     OW32292  14.044  13.133   3.851
10132SOL    HW132293  14.108  13.137   3.780
10132SOL    HW232294  13.961  13.158   3.809
10133SOL     OW32295   9.270   2.620  11.153
10133SOL    HW132296   9.176   2.613  11.171
10133SOL    HW232297   9.292   2.537  11.110
10134SOL     OW32298   7.634   8.349  14.054
10134SOL    HW132299   7.640   8.344  13.959
10134SOL    HW232300   7.725   8.344  14.083
10135SOL     OW32301   8.326   2.553   9.747
10135SOL    HW132302   8.277   2.576   9.826
10135SOL    HW232303   8.412   2.593   9.759
10136SOL     OW32304   7.672   1.461   3.544
10136SOL    HW132305   7.603   1.527   3.538
10136SOL    HW232306   7.627   1.383   3.577
10137SOL     OW32307   0.186   6.388  14.529
10137SOL    HW132308   0.260   6.345  14.487
10137SOL    HW232309   0.129   6.316  14.558
10138SOL     OW32310   2.794   0.365  14.395
10138SOL    HW132311   2.881   0.387  14.362
10138SOL    HW232312   2.804   0.358  14.490
10139SOL     OW32313  12.320   1.690   1.843
10139SOL    HW132314  12.256   1.761   1.842
10139SOL    HW232315  12.400   1.729   1.807
10140SOL     OW32316   9.344  14.652   3.241
10140SOL    HW132317   9.323  14.561   3.257
10140SOL    HW232318   9.330  14.696   3.325
10141SOL     OW32319   5.894  10.527   2.454
10141SOL    HW132320   5.960  10.596   2.455
10141SOL    HW232321   5.935  10.452   2.497
10142SOL     OW32322   5.073   1.072  14.486
10142SOL    HW132323   5.088   1.077  14.392
10142SOL    HW232324   5.161   1.072  14.524
10143SOL     OW32325   6.102  14.188  12.609
10143SOL    HW132326   6.030  14.126  12.613
10143SOL    HW232327   6.179  14.138  12.638
10144SOL     OW32328  10.627   7.316   1.145
10144SOL    HW132329  10.539   7.304   1.181
10144SOL    HW232330  10.667   7.230   1.154
10145SOL     OW32331   0.134   3.312   5.918
10145SOL    HW132332   0.076   3.371   5.870
10145SOL    HW232333   0.213   3.364   5.933
10146SOL     OW32334   7.489   9.430   6.932
10146SOL    HW132335   7.545   9.412   7.007
10146SOL    HW232336   7.527   9.378   6.861
10147SOL     OW32337  11.060  14.410   9.733
10147SOL    HW132338  11.153  14.406   9.754
10147SOL    HW232339  11.052  14.484   9.672
10148SOL     OW32340   5.306   5.202   2.673
10148SOL    HW132341   5.243   5.236   2.737
10148SOL    HW232342   5.318   5.273   2.610
10149SOL     OW32343   4.771   9.032  10.889
10149SOL    HW132344   4.863   9.011  10.872
10149SOL    HW232345   4.774   9.115  10.937
10150SOL     OW32346   8.869   5.977   6.272
10150SOL    HW132347   8.935   5.929   6.223
10150SOL    HW232348   8.836   6.043   6.210
10151SOL     OW32349   0.831   7.324  10.955
10151SOL    HW132350   0.765   7.260  10.982
10151SOL    HW232351   0.784   7.408  10.955
10152SOL     OW32352   6.442   3.231   7.406
10152SOL    HW132353   6.477   3.180   7.478
10152SOL    HW232354   6.370   3.179   7.372
10153SOL     OW32355  10.578   0.122  11.402
10153SOL    HW132356  10.504   0.153  11.350
10153SOL    HW232357  10.597   0.194  11.462
10154SOL     OW32358  14.615   2.987   2.862
10154SOL    HW132359  14.673   3.053   2.901
10154SOL    HW232360  14.619   2.913   2.922
10155SOL     OW32361   0.865   1.146   2.499
10155SOL    HW132362   0.792   1.201   2.527
10155SOL    HW232363   0.907   1.195   2.429
10156SOL     OW32364  12.701   6.077   2.437
10156SOL    HW132365  12.782   6.103   2.394
10156SOL    HW232366  12.661   6.159   2.465
10157SOL     OW32367  13.240   6.734   9.369
10157SOL    HW132368  13.286   6.737   9.453
10157SOL    HW232369  13.164   6.791   9.382
10158SOL     OW32370   1.459  10.787   1.073
10158SOL    HW132371   1.448  10.696   1.100
10158SOL    HW232372   1.436  10.838   1.150
10159SOL     OW32373   8.112   2.776   2.054
10159SOL    HW132374   8.157   2.741   2.130
10159SOL    HW232375   8.168   2.753   1.980
10160SOL     OW32376  12.347  10.258   6.769
10160SOL    HW132377  12.288  10.188   6.795
10160SOL    HW232378  12.409  10.216   6.709
10161SOL     OW32379   1.423   4.594   9.517
10161SOL    HW132380   1.339   4.598   9.470
10161SOL    HW232381   1.489   4.585   9.448
10162SOL     OW32382  11.866   1.318   0.103
10162SOL    HW132383  11.869   1.413   0.098
10162SOL    HW232384  11.890   1.289   0.015
10163SOL     OW32385   9.024  14.376  13.086
10163SOL    HW132386   9.111  14.394  13.121
10163SOL    HW232387   9.030  14.288  13.049
10164SOL     OW32388  14.299   8.823   9.180
10164SOL    HW132389  14.387   8.791   9.163
10164SOL    HW232390  14.299   8.845   9.273
10165SOL     OW32391  10.003   9.696   4.857
10165SOL    HW132392  10.093   9.667   4.871
10165SOL    HW232393   9.980   9.661   4.771
10166SOL     OW32394   7.726   8.426   9.986
10166SOL    HW132395   7.700   8.486  10.055
10166SOL    HW232396   7.669   8.449   9.912
10167SOL     OW32397   0.887   0.126   7.051
10167SOL    HW132398   0.865   0.146   6.960
10167SOL    HW232399   0.871   0.032   7.060
10168SOL     OW32400  11.698   1.195   3.271
10168SOL    HW132401  11.782   1.236   3.250
10168SOL    HW232402  11.720   1.104   3.292
10169SOL     OW32403   9.963  10.631   9.289
10169SOL    HW132404   9.958  10.651   9.382
10169SOL    HW232405   9.970  10.536   9.284
10170SOL     OW32406  13.166   5.176   7.644
10170SOL    HW132407  13.161   5.267   7.614
10170SOL    HW232408  13.094   5.132   7.599
10171SOL     OW32409  11.326  13.321  11.260
10171SOL    HW132410  11.422  13.323  11.250
10171SOL    HW232411  11.293  13.347  11.174
10172SOL     OW32412  10.179   7.425   1.253
10172SOL    HW132413  10.132   7.373   1.318
10172SOL    HW232414  10.271   7.406   1.267
10173SOL     OW32415  11.692   8.021   6.380
10173SOL    HW132416  11.764   7.959   6.369
10173SOL    HW232417  11.735   8.105   6.398
10174SOL     OW32418   9.780   9.413   3.609
10174SOL    HW132419   9.849   9.391   3.672
10174SOL    HW232420   9.763   9.331   3.563
10175SOL     OW32421   7.396   6.772   6.014
10175SOL    HW132422   7.342   6.697   5.989
10175SOL    HW232423   7.437   6.800   5.932
10176SOL     OW32424   4.118   5.383  13.648
10176SOL    HW132425   4.142   5.362  13.738
10176SOL    HW232426   4.164   5.318  13.594
10177SOL     OW32427  12.212   6.744  14.464
10177SOL    HW132428  12.154   6.792  14.524
10177SOL    HW232429  12.292   6.731  14.514
10178SOL     OW32430  14.414   8.673   2.158
10178SOL    HW132431  14.510   8.675   2.162
10178SOL    HW232432  14.389   8.610   2.226
10179SOL     OW32433   6.706  13.882  10.190
10179SOL    HW132434   6.742  13.887  10.101
10179SOL    HW232435   6.723  13.968  10.227
10180SOL     OW32436  11.309   6.659   0.421
10180SOL    HW132437  11.240   6.725   0.408
10180SOL    HW232438  11.334   6.633   0.332
10181SOL     OW32439   4.584   7.030   0.683
10181SOL    HW132440   4.498   6.995   0.660
10181SOL    HW232441   4.646   6.972   0.639
10182SOL     OW32442  13.037   3.506   8.123
10182SOL    HW132443  13.060   3.435   8.063
10182SOL    HW232444  13.112   3.566   8.119
10183SOL     OW32445   5.138  13.057  10.388
10183SOL    HW132446   5.072  13.032  10.453
10183SOL    HW232447   5.118  13.149  10.369
10184SOL     OW32448  12.982  10.731  14.843
10184SOL    HW132449  12.967  10.826  14.840
10184SOL    HW232450  13.009  10.714   0.058
10185SOL     OW32451   7.536  12.229  10.516
10185SOL    HW132452   7.554  12.148  10.564
10185SOL    HW232453   7.547  12.205  10.424
10186SOL     OW32454   7.084  12.264   4.895
10186SOL    HW132455   7.108  12.219   4.814
10186SOL    HW232456   7.160  12.319   4.915
10187SOL     OW32457   5.847   5.744   5.049
10187SOL    HW132458   5.893   5.700   5.121
10187SOL    HW232459   5.907   5.814   5.022
10188SOL     OW32460  14.142  13.373   1.881
10188SOL    HW132461  14.093  13.428   1.820
10188SOL    HW232462  14.075  13.325   1.929
10189SOL     OW32463   9.268   4.181   9.846
10189SOL    HW132464   9.195   4.135   9.887
10189SOL    HW232465   9.338   4.180   9.911
10190SOL     OW32466   9.681  14.620   3.646
10190SOL    HW132467   9.603  14.635   3.700
10190SOL    HW232468   9.670  14.680   3.572
10191SOL     OW32469   8.446   3.338  12.679
10191SOL    HW132470   8.469   3.280  12.607
10191SOL    HW232471   8.530   3.373  12.710
10192SOL     OW32472   6.758  13.554   1.835
10192SOL    HW132473   6.785  13.569   1.926
10192SOL    HW232474   6.837  13.522   1.792
10193SOL     OW32475  12.911   6.521  11.681
10193SOL    HW132476  13.000   6.554  11.671
10193SOL    HW232477  12.914   6.468  11.761
10194SOL     OW32478  14.827   4.740   1.728
10194SOL    HW132479  14.870   4.668   1.775
10194SOL    HW232480  14.829   4.813   1.790
10195SOL     OW32481   6.949   5.468   2.308
10195SOL    HW132482   6.996   5.530   2.363
10195SOL    HW232483   6.873   5.517   2.277
10196SOL     OW32484  10.637   5.467  13.456
10196SOL    HW132485  10.628   5.469  13.360
10196SOL    HW232486  10.548   5.478  13.488
10197SOL     OW32487  12.759   8.955   9.125
10197SOL    HW132488  12.720   9.033   9.085
10197SOL    HW232489  12.721   8.952   9.213
10198SOL     OW32490   2.552  13.471   6.471
10198SOL    HW132491   2.518  13.382   6.472
10198SOL    HW232492   2.645  13.462   6.491
10199SOL     OW32493  12.732   8.931  14.254
10199SOL    HW132494  12.771   8.845  14.273
10199SOL    HW232495  12.763   8.952  14.166
10200SOL     OW32496   5.487   3.771   5.339
10200SOL    HW132497   5.557   3.825   5.302
10200SOL    HW232498   5.529   3.686   5.355
10201SOL     OW32499  10.117   7.693   8.292
10201SOL    HW132500  10.046   7.696   8.356
10201SOL    HW232501  10.078   7.651   8.215
10202SOL     OW32502  13.899   1.115   9.619
10202SOL    HW132503  13.932   1.073   9.540
10202SOL    HW232504  13.964   1.095   9.686
10203SOL     OW32505  12.233   0.585   1.338
10203SOL    HW132506  12.230   0.638   1.418
10203SOL    HW232507  12.217   0.648   1.268
10204SOL     OW32508   6.500  11.275   3.719
10204SOL    HW132509   6.451  11.193   3.714
10204SOL    HW232510   6.433  11.343   3.724
10205SOL     OW32511   6.609  10.946   3.529
10205SOL    HW132512   6.599  10.851   3.542
10205SOL    HW232513   6.520  10.977   3.511
10206SOL     OW32514   2.580   0.076   3.200
10206SOL    HW132515   2.653   0.122   3.159
10206SOL    HW232516   2.513   0.071   3.132
10207SOL     OW32517  14.374  14.624   3.871
10207SOL    HW132518  14.428  14.690   3.828
10207SOL    HW232519  14.369  14.652   3.962
10208SOL     OW32520   1.659   8.020  10.221
10208SOL    HW132521   1.612   7.947  10.181
10208SOL    HW232522   1.744   7.983  10.245
10209SOL     OW32523  10.519   6.122   5.544
10209SOL    HW132524  10.591   6.058   5.544
10209SOL    HW232525  10.460   6.090   5.612
10210SOL     OW32526   9.664  11.440   2.343
10210SOL    HW132527   9.652  11.516   2.399
10210SOL    HW232528   9.631  11.367   2.395
10211SOL     OW32529  13.504   5.452   9.576
10211SOL    HW132530  13.589   5.409   9.574
10211SOL    HW232531  13.490   5.482   9.486
10212SOL     OW32532   9.852   0.754   6.218
10212SOL    HW132533   9.941   0.722   6.206
10212SOL    HW232534   9.860   0.831   6.274
10213SOL     OW32535   1.961   6.159   7.061
10213SOL    HW132536   1.910   6.235   7.088
10213SOL    HW232537   2.005   6.187   6.981
10214SOL     OW32538   3.268   2.557  13.687
10214SOL    HW132539   3.305   2.521  13.606
10214SOL    HW232540   3.228   2.482  13.731
10215SOL     OW32541   6.964   1.743  14.487
10215SOL    HW132542   6.947   1.761  14.394
10215SOL    HW232543   6.924   1.816  14.533
10216SOL     OW32544  12.191  11.873   8.405
10216SOL    HW132545  12.275  11.872   8.361
10216SOL    HW232546  12.212  11.878   8.499
10217SOL     OW32547   0.338   0.074   0.388
10217SOL    HW132548   0.258   0.124   0.402
10217SOL    HW232549   0.355   0.081   0.294
10218SOL     OW32550   3.995  13.862   1.756
10218SOL    HW132551   4.078  13.829   1.791
10218SOL    HW232552   3.955  13.787   1.713
10219SOL     OW32553  13.890   2.052   3.864
10219SOL    HW132554  13.822   2.076   3.801
10219SOL    HW232555  13.968   2.035   3.810
10220SOL     OW32556   2.402  11.815  10.632
10220SOL    HW132557   2.397  11.720  10.623
10220SOL    HW232558   2.387  11.831  10.725
10221SOL     OW32559   5.926   3.988   9.697
10221SOL    HW132560   6.017   3.975   9.725
10221SOL    HW232561   5.898   4.068   9.740
10222SOL     OW32562   2.370   6.497   5.798
10222SOL    HW132563   2.402   6.546   5.722
10222SOL    HW232564   2.399   6.549   5.874
10223SOL     OW32565  14.220   9.581   4.164
10223SOL    HW132566  14.210   9.672   4.135
10223SOL    HW232567  14.272   9.540   4.094
10224SOL     OW32568   0.863   7.428   2.428
10224SOL    HW132569   0.939   7.476   2.460
10224SOL    HW232570   0.829   7.382   2.505
10225SOL     OW32571   1.251   9.033   0.214
10225SOL    HW132572   1.261   8.944   0.247
10225SOL    HW232573   1.165   9.033   0.172
10226SOL     OW32574   4.554   5.159  13.517
10226SOL    HW132575   4.548   5.098  13.590
10226SOL    HW232576   4.625   5.124  13.463
10227SOL     OW32577  13.224  14.181  13.311
10227SOL    HW132578  13.159  14.111  13.303
10227SOL    HW232579  13.181  14.258  13.273
10228SOL     OW32580  11.808   1.611   5.289
10228SOL    HW132581  11.783   1.568   5.208
10228SOL    HW232582  11.771   1.699   5.282
10229SOL     OW32583   4.453   1.371   3.161
10229SOL    HW132584   4.400   1.407   3.233
10229SOL    HW232585   4.393   1.367   3.087
10230SOL     OW32586   3.237  11.850  11.878
10230SOL    HW132587   3.250  11.893  11.794
10230SOL    HW232588   3.286  11.904  11.940
10231SOL     OW32589  10.644  12.879  11.509
10231SOL    HW132590  10.678  12.790  11.514
10231SOL    HW232591  10.549  12.868  11.504
10232SOL     OW32592   6.516   8.560   4.243
10232SOL    HW132593   6.467   8.599   4.315
10232SOL    HW232594   6.597   8.611   4.239
10233SOL     OW32595  12.526   0.684  11.010
10233SOL    HW132596  12.598   0.694  11.071
10233SOL    HW232597  12.447   0.697  11.063
10234SOL     OW32598  14.278   5.338   5.449
10234SOL    HW132599  14.352   5.388   5.484
10234SOL    HW232600  14.273   5.261   5.504
10235SOL     OW32601   2.354   7.942   4.069
10235SOL    HW132602   2.420   7.932   4.001
10235SOL    HW232603   2.402   7.929   4.151
10236SOL     OW32604   8.469  13.749  11.898
10236SOL    HW132605   8.455  13.828  11.847
10236SOL    HW232606   8.400  13.689  11.871
10237SOL     OW32607   1.288  11.131   0.024
10237SOL    HW132608   1.210  11.132   0.079
10237SOL    HW232609   1.292  11.041  14.865
10238SOL     OW32610  11.804   3.256  14.753
10238SOL    HW132611  11.737   3.227  14.815
10238SOL    HW232612  11.777   3.343  14.727
10239SOL     OW32613  12.565  10.875  11.487
10239SOL    HW132614  12.581  10.785  11.460
10239SOL    HW232615  12.535  10.919  11.408
10240SOL     OW32616   0.036  12.310   6.323
10240SOL    HW132617   0.125  12.326   6.355
10240SOL    HW232618   0.002  12.242   6.380
10241SOL     OW32619  12.238  13.818   9.890
10241SOL    HW132620  12.288  13.737   9.902
10241SOL    HW232621  12.232  13.828   9.795
10242SOL     OW32622   9.627   3.777   8.430
10242SOL    HW132623   9.602   3.855   8.480
10242SOL    HW232624   9.651   3.810   8.343
10243SOL     OW32625   9.153   7.564  14.746
10243SOL    HW132626   9.245   7.576  14.722
10243SOL    HW232627   9.113   7.650  14.730
10244SOL     OW32628   9.303   8.743   2.694
10244SOL    HW132629   9.343   8.724   2.609
10244SOL    HW232630   9.219   8.784   2.672
10245SOL     OW32631   5.416   4.077   2.307
10245SOL    HW132632   5.454   4.000   2.265
10245SOL    HW232633   5.356   4.113   2.243
10246SOL     OW32634   2.280   1.659   7.677
10246SOL    HW132635   2.275   1.755   7.676
10246SOL    HW232636   2.222   1.632   7.606
10247SOL     OW32637   8.527   6.470   2.938
10247SOL    HW132638   8.602   6.515   2.900
10247SOL    HW232639   8.461   6.538   2.951
10248SOL     OW32640   7.921   0.533   6.005
10248SOL    HW132641   8.013   0.516   6.024
10248SOL    HW232642   7.892   0.456   5.956
10249SOL     OW32643   7.670   4.040   2.879
10249SOL    HW132644   7.691   3.965   2.823
10249SOL    HW232645   7.622   4.100   2.823
10250SOL     OW32646  12.010   7.190  10.376
10250SOL    HW132647  12.041   7.244  10.449
10250SOL    HW232648  11.986   7.253  10.308
10251SOL     OW32649  12.861   8.669   6.738
10251SOL    HW132650  12.833   8.721   6.814
10251SOL    HW232651  12.853   8.579   6.768
10252SOL     OW32652   6.138   1.922   2.308
10252SOL    HW132653   6.211   1.924   2.370
10252SOL    HW232654   6.172   1.965   2.230
10253SOL     OW32655   2.966   6.924   7.064
10253SOL    HW132656   3.037   6.988   7.062
10253SOL    HW232657   2.951   6.902   6.972
10254SOL     OW32658  14.621   2.971   3.125
10254SOL    HW132659  14.566   2.893   3.114
10254SOL    HW232660  14.645   2.971   3.218
10255SOL     OW32661   4.626  12.443   7.174
10255SOL    HW132662   4.546  12.391   7.174
10255SOL    HW232663   4.695  12.382   7.149
10256SOL     OW32664   0.760   5.260   6.951
10256SOL    HW132665   0.793   5.308   6.875
10256SOL    HW232666   0.720   5.327   7.006
10257SOL     OW32667   8.083   7.691   7.506
10257SOL    HW132668   8.059   7.613   7.555
10257SOL    HW232669   8.130   7.746   7.568
10258SOL     OW32670   2.448  12.962   1.446
10258SOL    HW132671   2.371  12.919   1.482
10258SOL    HW232672   2.477  12.906   1.375
10259SOL     OW32673   0.099   2.128  13.141
10259SOL    HW132674   0.081   2.163  13.054
10259SOL    HW232675   0.122   2.036  13.125
10260SOL     OW32676   3.764   3.465  13.968
10260SOL    HW132677   3.761   3.427  13.880
10260SOL    HW232678   3.787   3.392  14.024
10261SOL     OW32679   2.804  10.756   3.837
10261SOL    HW132680   2.845  10.838   3.864
10261SOL    HW232681   2.713  10.779   3.819
10262SOL     OW32682   5.145   8.057  13.138
10262SOL    HW132683   5.130   8.074  13.045
10262SOL    HW232684   5.194   8.134  13.168
10263SOL     OW32685  14.062   0.749   0.353
10263SOL    HW132686  14.015   0.739   0.435
10263SOL    HW232687  14.102   0.835   0.358
10264SOL     OW32688  11.072   9.176  11.281
10264SOL    HW132689  11.087   9.086  11.249
10264SOL    HW232690  11.119   9.231  11.219
10265SOL     OW32691   4.749  13.857   5.483
10265SOL    HW132692   4.720  13.912   5.556
10265SOL    HW232693   4.770  13.920   5.414
10266SOL     OW32694   2.364   1.733  10.373
10266SOL    HW132695   2.434   1.689  10.421
10266SOL    HW232696   2.328   1.795  10.436
10267SOL     OW32697  10.004   9.594  10.461
10267SOL    HW132698  10.031   9.559  10.545
10267SOL    HW232699   9.920   9.552  10.443
10268SOL     OW32700  13.029   3.843   2.006
10268SOL    HW132701  12.997   3.753   2.009
10268SOL    HW232702  12.977   3.885   1.937
10269SOL     OW32703   7.932  13.325   0.468
10269SOL    HW132704   7.881  13.246   0.453
10269SOL    HW232705   7.867  13.393   0.485
10270SOL     OW32706  12.963  13.535  12.203
10270SOL    HW132707  13.038  13.488  12.239
10270SOL    HW232708  12.920  13.471  12.146
10271SOL     OW32709  13.030  11.391   5.239
10271SOL    HW132710  13.024  11.301   5.270
10271SOL    HW232711  12.940  11.419   5.225
10272SOL     OW32712   3.898   3.777   4.566
10272SOL    HW132713   3.904   3.861   4.521
10272SOL    HW232714   3.808   3.748   4.553
10273SOL     OW32715   4.208  11.588   7.462
10273SOL    HW132716   4.286  11.539   7.435
10273SOL    HW232717   4.141  11.564   7.399
10274SOL     OW32718   4.219   6.744   7.549
10274SOL    HW132719   4.274   6.703   7.616
10274SOL    HW232720   4.156   6.676   7.525
10275SOL     OW32721   9.542  13.960   4.043
10275SOL    HW132722   9.629  13.941   4.077
10275SOL    HW232723   9.548  13.943   3.950
10276SOL     OW32724   0.191  11.679  12.700
10276SOL    HW132725   0.157  11.768  12.688
10276SOL    HW232726   0.171  11.658  12.792
10277SOL     OW32727   1.106   3.964  14.624
10277SOL    HW132728   1.039   4.022  14.588
10277SOL    HW232729   1.149   4.016  14.692
10278SOL     OW32730   2.178  14.555  13.921
10278SOL    HW132731   2.121  14.484  13.950
10278SOL    HW232732   2.241  14.565  13.993
10279SOL     OW32733  11.111   3.875  11.818
10279SOL    HW132734  11.058   3.800  11.792
10279SOL    HW232735  11.124   3.863  11.912
10280SOL     OW32736   1.501  11.855   4.635
10280SOL    HW132737   1.496  11.848   4.539
10280SOL    HW232738   1.543  11.939   4.651
10281SOL     OW32739  12.013   1.313   7.797
10281SOL    HW132740  11.981   1.290   7.884
10281SOL    HW232741  12.093   1.260   7.786
10282SOL     OW32742  12.827  14.045   5.711
10282SOL    HW132743  12.804  13.994   5.634
10282SOL    HW232744  12.814  14.136   5.684
10283SOL     OW32745  10.669  14.820   2.805
10283SOL    HW132746  10.759  14.851   2.807
10283SOL    HW232747  10.675  14.726   2.825
10284SOL     OW32748  12.400   0.661  14.654
10284SOL    HW132749  12.475   0.635  14.600
10284SOL    HW232750  12.364   0.738  14.609
10285SOL     OW32751   9.017   9.729   4.853
10285SOL    HW132752   9.092   9.683   4.814
10285SOL    HW232753   9.014   9.813   4.808
10286SOL     OW32754   8.348  14.210  11.968
10286SOL    HW132755   8.438  14.239  11.986
10286SOL    HW232756   8.342  14.124  12.010
10287SOL     OW32757  10.488   0.373  12.616
10287SOL    HW132758  10.495   0.280  12.639
10287SOL    HW232759  10.573   0.395  12.579
10288SOL     OW32760   1.084  11.871   1.128
10288SOL    HW132761   1.165  11.822   1.142
10288SOL    HW232762   1.016  11.803   1.125
10289SOL     OW32763   8.363   9.791   3.202
10289SOL    HW132764   8.299   9.763   3.136
10289SOL    HW232765   8.325   9.764   3.286
10290SOL     OW32766   8.551   7.019  13.642
10290SOL    HW132767   8.593   6.966  13.711
10290SOL    HW232768   8.509   6.955  13.585
10291SOL     OW32769  13.895   1.638  11.443
10291SOL    HW132770  13.891   1.727  11.478
10291SOL    HW232771  13.989   1.617  11.442
10292SOL     OW32772   9.129   8.903   9.618
10292SOL    HW132773   9.115   8.898   9.523
10292SOL    HW232774   9.070   8.973   9.646
10293SOL     OW32775   6.986   4.077  11.329
10293SOL    HW132776   6.990   4.126  11.410
10293SOL    HW232777   7.028   3.993  11.350
10294SOL     OW32778   6.194   0.141   2.147
10294SOL    HW132779   6.116   0.194   2.130
10294SOL    HW232780   6.267   0.203   2.140
10295SOL     OW32781  11.783   6.476  11.271
10295SOL    HW132782  11.798   6.386  11.243
10295SOL    HW232783  11.757   6.522  11.191
10296SOL     OW32784  13.073  12.276   1.429
10296SOL    HW132785  12.982  12.303   1.415
10296SOL    HW232786  13.068  12.182   1.448
10297SOL     OW32787  10.810   6.712  12.230
10297SOL    HW132788  10.894   6.713  12.183
10297SOL    HW232789  10.774   6.625  12.211
10298SOL     OW32790  10.421   9.055   3.123
10298SOL    HW132791  10.380   9.017   3.201
10298SOL    HW232792  10.356   9.043   3.053
10299SOL     OW32793   4.931   6.986  11.743
10299SOL    HW132794   4.854   7.006  11.796
10299SOL    HW232795   4.960   6.900  11.775
10300SOL     OW32796  11.768  10.835   2.317
10300SOL    HW132797  11.850  10.880   2.297
10300SOL    HW232798  11.795  10.746   2.338
10301SOL     OW32799   6.755  10.215   6.284
10301SOL    HW132800   6.701  10.289   6.256
10301SOL    HW232801   6.700  10.167   6.346
10302SOL     OW32802   5.697   5.353   2.582
10302SOL    HW132803   5.722   5.307   2.662
10302SOL    HW232804   5.635   5.420   2.611
10303SOL     OW32805   0.209   1.654   9.931
10303SOL    HW132806   0.271   1.680   9.864
10303SOL    HW232807   0.152   1.591   9.888
10304SOL     OW32808   1.340   8.310   0.980
10304SOL    HW132809   1.300   8.379   0.928
10304SOL    HW232810   1.339   8.344   1.070
10305SOL     OW32811   8.874   0.340   0.427
10305SOL    HW132812   8.893   0.254   0.465
10305SOL    HW232813   8.921   0.402   0.483
10306SOL     OW32814   8.888   5.230   7.973
10306SOL    HW132815   8.798   5.218   7.941
10306SOL    HW232816   8.879   5.233   8.068
10307SOL     OW32817   7.631   2.834   5.033
10307SOL    HW132818   7.588   2.766   4.980
10307SOL    HW232819   7.711   2.853   4.984
10308SOL     OW32820   3.114   1.673  14.621
10308SOL    HW132821   3.136   1.586  14.655
10308SOL    HW232822   3.194   1.703  14.577
10309SOL     OW32823   3.150   3.210   9.038
10309SOL    HW132824   3.161   3.168   8.952
10309SOL    HW232825   3.207   3.161   9.097
10310SOL     OW32826   3.376   1.106  14.669
10310SOL    HW132827   3.304   1.048  14.694
10310SOL    HW232828   3.455   1.059  14.697
10311SOL     OW32829   3.353   6.656   9.143
10311SOL    HW132830   3.288   6.687   9.206
10311SOL    HW232831   3.359   6.725   9.077
10312SOL     OW32832   8.531   5.139   2.997
10312SOL    HW132833   8.627   5.131   2.996
10312SOL    HW232834   8.506   5.112   3.085
10313SOL     OW32835  10.289   5.596  11.384
10313SOL    HW132836  10.269   5.611  11.292
10313SOL    HW232837  10.350   5.667  11.407
10314SOL     OW32838   4.243   4.568   8.124
10314SOL    HW132839   4.318   4.548   8.068
10314SOL    HW232840   4.281   4.616   8.198
10315SOL     OW32841   3.542   0.093   7.432
10315SOL    HW132842   3.606   0.033   7.469
10315SOL    HW232843   3.473   0.037   7.398
10316SOL     OW32844   1.769   6.779   9.272
10316SOL    HW132845   1.738   6.711   9.332
10316SOL    HW232846   1.865   6.773   9.275
10317SOL     OW32847  13.996   8.601  11.008
10317SOL    HW132848  13.908   8.591  11.044
10317SOL    HW232849  13.987   8.575  10.916
10318SOL     OW32850  10.891   5.430  13.549
10318SOL    HW132851  10.802   5.423  13.515
10318SOL    HW232852  10.882   5.420  13.643
10319SOL     OW32853   4.510   5.088   7.652
10319SOL    HW132854   4.435   5.139   7.683
10319SOL    HW232855   4.471   5.021   7.596
10320SOL     OW32856   8.256  12.018  14.488
10320SOL    HW132857   8.328  12.005  14.550
10320SOL    HW232858   8.295  12.070  14.417
10321SOL     OW32859  10.129  10.835   0.243
10321SOL    HW132860  10.169  10.874   0.321
10321SOL    HW232861  10.167  10.884   0.170
10322SOL     OW32862   1.047   2.958   0.012
10322SOL    HW132863   1.108   3.026   0.042
10322SOL    HW232864   1.104   2.885  14.863
10323SOL     OW32865   3.745  12.765   8.204
10323SOL    HW132866   3.698  12.793   8.125
10323SOL    HW232867   3.685  12.785   8.276
10324SOL     OW32868   9.330   2.305  14.193
10324SOL    HW132869   9.323   2.356  14.113
10324SOL    HW232870   9.278   2.353  14.257
10325SOL     OW32871   2.882  10.362   0.854
10325SOL    HW132872   2.812  10.330   0.798
10325SOL    HW232873   2.898  10.291   0.916
10326SOL     OW32874   1.645   5.418  11.347
10326SOL    HW132875   1.709   5.348  11.338
10326SOL    HW232876   1.651   5.445  11.439
10327SOL     OW32877  12.186   5.909   7.823
10327SOL    HW132878  12.145   5.965   7.888
10327SOL    HW232879  12.185   5.961   7.742
10328SOL     OW32880   2.239  11.827   3.449
10328SOL    HW132881   2.283  11.903   3.488
10328SOL    HW232882   2.164  11.811   3.506
10329SOL     OW32883   7.737   2.270   9.469
10329SOL    HW132884   7.757   2.293   9.560
10329SOL    HW232885   7.822   2.254   9.429
10330SOL     OW32886   5.288  14.708   9.123
10330SOL    HW132887   5.219  14.647   9.148
10330SOL    HW232888   5.351  14.703   9.195
10331SOL     OW32889   4.010  11.971   6.629
10331SOL    HW132890   3.986  11.889   6.671
10331SOL    HW232891   3.968  11.966   6.542
10332SOL     OW32892  10.695   1.533   0.202
10332SOL    HW132893  10.763   1.586   0.159
10332SOL    HW232894  10.624   1.595   0.221
10333SOL     OW32895  11.053   4.510   4.009
10333SOL    HW132896  10.997   4.570   4.059
10333SOL    HW232897  11.099   4.459   4.076
10334SOL     OW32898   1.678   9.770   2.723
10334SOL    HW132899   1.743   9.754   2.655
10334SOL    HW232900   1.594   9.771   2.678
10335SOL     OW32901  12.788   8.401  11.836
10335SOL    HW132902  12.716   8.406  11.773
10335SOL    HW232903  12.764   8.464  11.904
10336SOL     OW32904   7.900  10.280   8.176
10336SOL    HW132905   7.942  10.361   8.205
10336SOL    HW232906   7.809  10.288   8.204
10337SOL     OW32907  10.689  11.438   4.799
10337SOL    HW132908  10.635  11.426   4.878
10337SOL    HW232909  10.776  11.460   4.832
10338SOL     OW32910   6.730   2.675  14.826
10338SOL    HW132911   6.655   2.616  14.839
10338SOL    HW232912   6.691   2.755  14.790
10339SOL     OW32913  10.624   8.078   8.359
10339SOL    HW132914  10.568   8.148   8.392
10339SOL    HW232915  10.573   8.037   8.289
10340SOL     OW32916   5.465   1.566   4.752
10340SOL    HW132917   5.515   1.611   4.820
10340SOL    HW232918   5.495   1.475   4.756
10341SOL     OW32919  10.729   4.649   6.679
10341SOL    HW132920  10.647   4.696   6.660
10341SOL    HW232921  10.709   4.598   6.758
10342SOL     OW32922   5.097  14.584   0.650
10342SOL    HW132923   5.170  14.572   0.711
10342SOL    HW232924   5.057  14.667   0.678
10343SOL     OW32925   8.119  11.789   9.024
10343SOL    HW132926   8.069  11.759   9.100
10343SOL    HW232927   8.055  11.794   8.953
10344SOL     OW32928  12.568   3.695  11.834
10344SOL    HW132929  12.482   3.723  11.803
10344SOL    HW232930  12.569   3.600  11.820
10345SOL     OW32931  14.250  14.362   0.277
10345SOL    HW132932  14.244  14.266   0.270
10345SOL    HW232933  14.284  14.390   0.192
10346SOL     OW32934   0.680   2.061  12.410
10346SOL    HW132935   0.614   2.109  12.361
10346SOL    HW232936   0.751   2.046  12.347
10347SOL     OW32937   4.390   8.118  13.698
10347SOL    HW132938   4.394   8.108  13.793
10347SOL    HW232939   4.477   8.092  13.668
10348SOL     OW32940   9.976  11.385  10.065
10348SOL    HW132941  10.063  11.392  10.025
10348SOL    HW232942   9.963  11.469  10.109
10349SOL     OW32943   3.487   3.411   5.024
10349SOL    HW132944   3.561   3.358   5.054
10349SOL    HW232945   3.495   3.493   5.073
10350SOL     OW32946   1.730   1.182   1.493
10350SOL    HW132947   1.657   1.123   1.471
10350SOL    HW232948   1.784   1.131   1.555
10351SOL     OW32949   6.587   5.057   3.836
10351SOL    HW132950   6.553   5.120   3.900
10351SOL    HW232951   6.680   5.078   3.830
10352SOL     OW32952   0.292  14.702   2.165
10352SOL    HW132953   0.210  14.731   2.126
10352SOL    HW232954   0.330  14.781   2.203
10353SOL     OW32955  11.867  13.293   8.086
10353SOL    HW132956  11.786  13.291   8.036
10353SOL    HW232957  11.910  13.375   8.059
10354SOL     OW32958   4.821  12.494   5.348
10354SOL    HW132959   4.859  12.424   5.401
10354SOL    HW232960   4.755  12.451   5.294
10355SOL     OW32961   0.786   5.909   4.349
10355SOL    HW132962   0.838   5.931   4.272
10355SOL    HW232963   0.709   5.863   4.314
10356SOL     OW32964  13.016   4.409   7.722
10356SOL    HW132965  13.046   4.492   7.758
10356SOL    HW232966  13.058   4.403   7.636
10357SOL     OW32967   6.289   3.852  11.528
10357SOL    HW132968   6.239   3.899  11.595
10357SOL    HW232969   6.266   3.760  11.541
10358SOL     OW32970   7.318   2.469   4.809
10358SOL    HW132971   7.238   2.472   4.862
10358SOL    HW232972   7.340   2.561   4.794
10359SOL     OW32973  11.012   5.916   8.729
10359SOL    HW132974  11.016   5.977   8.802
10359SOL    HW232975  11.093   5.933   8.680
10360SOL     OW32976  10.786   9.741   5.368
10360SOL    HW132977  10.796   9.834   5.350
10360SOL    HW232978  10.698   9.732   5.404
10361SOL     OW32979   2.284   3.064   5.355
10361SOL    HW132980   2.271   3.125   5.428
10361SOL    HW232981   2.368   3.089   5.318
10362SOL     OW32982  12.420  11.781   1.765
10362SOL    HW132983  12.443  11.873   1.783
10362SOL    HW232984  12.399  11.744   1.850
10363SOL     OW32985   7.869  13.346   4.806
10363SOL    HW132986   7.899  13.378   4.891
10363SOL    HW232987   7.839  13.424   4.760
10364SOL     OW32988   0.426   8.756   7.558
10364SOL    HW132989   0.332   8.757   7.538
10364SOL    HW232990   0.444   8.665   7.582
10365SOL     OW32991   7.839  11.312  13.014
10365SOL    HW132992   7.885  11.348  12.939
10365SOL    HW232993   7.749  11.298  12.983
10366SOL     OW32994  11.422   5.332   6.893
10366SOL    HW132995  11.390   5.403   6.838
10366SOL    HW232996  11.343   5.288   6.924
10367SOL     OW32997  10.827   7.918   7.480
10367SOL    HW132998  10.838   7.956   7.567
10367SOL    HW232999  10.913   7.881   7.459
10368SOL     OW33000  10.834  11.683  14.813
10368SOL    HW133001  10.766  11.749  14.829
10368SOL    HW233002  10.852  11.645   0.024
10369SOL     OW33003   7.988  10.493   4.802
10369SOL    HW133004   8.004  10.449   4.886
10369SOL    HW233005   7.910  10.449   4.766
10370SOL     OW33006   2.034  11.784  10.052
10370SOL    HW133007   2.018  11.770  10.145
10370SOL    HW233008   1.951  11.760  10.009
10371SOL     OW33009   8.512  13.625  12.956
10371SOL    HW133010   8.517  13.587  13.044
10371SOL    HW233011   8.498  13.549  12.898
10372SOL     OW33012   8.596   1.146  12.862
10372SOL    HW133013   8.637   1.089  12.927
10372SOL    HW233014   8.586   1.091  12.784
10373SOL     OW33015   6.006  11.169   8.805
10373SOL    HW133016   6.046  11.246   8.763
10373SOL    HW233017   6.009  11.189   8.898
10374SOL     OW33018  10.474  13.288  10.682
10374SOL    HW133019  10.548  13.289  10.620
10374SOL    HW233020  10.401  13.323  10.631
10375SOL     OW33021   9.774  12.650   9.985
10375SOL    HW133022   9.716  12.594  10.037
10375SOL    HW233023   9.817  12.590   9.925
10376SOL     OW33024   8.536   4.181   1.557
10376SOL    HW133025   8.547   4.212   1.647
10376SOL    HW233026   8.541   4.085   1.565
10377SOL     OW33027   5.423   6.959   2.161
10377SOL    HW133028   5.457   7.042   2.129
10377SOL    HW233029   5.484   6.893   2.128
10378SOL     OW33030   7.909  10.998  14.421
10378SOL    HW133031   7.828  11.042  14.448
10378SOL    HW233032   7.884  10.951  14.341
10379SOL     OW33033  14.245   9.540   0.125
10379SOL    HW133034  14.233   9.578   0.212
10379SOL    HW233035  14.157   9.527   0.091
10380SOL     OW33036   1.027   6.570   6.130
10380SOL    HW133037   1.010   6.513   6.205
10380SOL    HW233038   1.064   6.650   6.168
10381SOL     OW33039  12.842   9.222   4.246
10381SOL    HW133040  12.774   9.271   4.201
10381SOL    HW233041  12.913   9.286   4.258
10382SOL     OW33042   2.905   6.051   5.314
10382SOL    HW133043   2.997   6.057   5.286
10382SOL    HW233044   2.855   6.067   5.234
10383SOL     OW33045  11.176   0.422  12.183
10383SOL    HW133046  11.216   0.508  12.168
10383SOL    HW233047  11.232   0.381  12.250
10384SOL     OW33048   4.887  10.985  12.683
10384SOL    HW133049   4.796  10.993  12.652
10384SOL    HW233050   4.940  11.001  12.606
10385SOL     OW33051   5.092  12.705   7.989
10385SOL    HW133052   5.120  12.723   7.900
10385SOL    HW233053   5.173  12.687   8.037
10386SOL     OW33054   0.915   6.506  10.488
10386SOL    HW133055   0.832   6.547  10.512
10386SOL    HW233056   0.981   6.556  10.535
10387SOL     OW33057   2.264   2.793   3.691
10387SOL    HW133058   2.253   2.797   3.786
10387SOL    HW233059   2.356   2.768   3.678
10388SOL     OW33060  13.526   9.437   2.829
10388SOL    HW133061  13.436   9.443   2.862
10388SOL    HW233062  13.520   9.466   2.738
10389SOL     OW33063   8.341   4.487  14.492
10389SOL    HW133064   8.352   4.408  14.439
10389SOL    HW233065   8.369   4.461  14.580
10390SOL     OW33066  12.290   4.184   4.816
10390SOL    HW133067  12.359   4.248   4.797
10390SOL    HW233068  12.217   4.210   4.758
10391SOL     OW33069   9.324   7.510  10.653
10391SOL    HW133070   9.263   7.440  10.631
10391SOL    HW233071   9.268   7.587  10.666
10392SOL     OW33072   2.289  14.724   0.430
10392SOL    HW133073   2.213  14.768   0.469
10392SOL    HW233074   2.356  14.728   0.499
10393SOL     OW33075  11.962   5.501  13.170
10393SOL    HW133076  12.043   5.516  13.122
10393SOL    HW233077  11.990   5.467  13.255
10394SOL     OW33078  10.568  12.012  12.960
10394SOL    HW133079  10.477  11.984  12.948
10394SOL    HW233080  10.576  12.030  13.053
10395SOL     OW33081   0.500  10.347   6.956
10395SOL    HW133082   0.583  10.362   6.911
10395SOL    HW233083   0.519  10.365   7.048
10396SOL     OW33084   0.951  11.783  13.759
10396SOL    HW133085   1.014  11.833  13.707
10396SOL    HW233086   0.867  11.825  13.743
10397SOL     OW33087   6.953   3.804  13.733
10397SOL    HW133088   6.942   3.861  13.809
10397SOL    HW233089   6.863   3.777  13.711
10398SOL     OW33090   5.670  12.934   0.087
10398SOL    HW133091   5.638  12.983   0.163
10398SOL    HW233092   5.766  12.937   0.096
10399SOL     OW33093   5.801   7.844   4.532
10399SOL    HW133094   5.806   7.887   4.446
10399SOL    HW233095   5.861   7.770   4.525
10400SOL     OW33096   7.875  14.465   6.795
10400SOL    HW133097   7.852  14.493   6.884
10400SOL    HW233098   7.823  14.520   6.738
10401SOL     OW33099   4.782   6.498   2.929
10401SOL    HW133100   4.805   6.473   2.840
10401SOL    HW233101   4.789   6.417   2.980
10402SOL     OW33102   1.532   1.554   4.204
10402SOL    HW133103   1.445   1.562   4.243
10402SOL    HW233104   1.592   1.551   4.279
10403SOL     OW33105  14.746   0.142  13.856
10403SOL    HW133106  14.779   0.147  13.946
10403SOL    HW233107  14.705   0.056  13.851
10404SOL     OW33108   1.201   8.566   7.255
10404SOL    HW133109   1.112   8.543   7.280
10404SOL    HW233110   1.192   8.644   7.201
10405SOL     OW33111  12.247  10.073   4.906
10405SOL    HW133112  12.189  10.134   4.861
10405SOL    HW233113  12.334  10.094   4.874
10406SOL     OW33114  11.857   6.466   9.121
10406SOL    HW133115  11.909   6.416   9.058
10406SOL    HW233116  11.913   6.540   9.144
10407SOL     OW33117   0.689   1.838  11.934
10407SOL    HW133118   0.779   1.867  11.922
10407SOL    HW233119   0.663   1.874  12.019
10408SOL     OW33120   5.993   8.253   8.570
10408SOL    HW133121   5.989   8.328   8.512
10408SOL    HW233122   6.076   8.210   8.549
10409SOL     OW33123   1.137   6.341   8.531
10409SOL    HW133124   1.171   6.303   8.450
10409SOL    HW233125   1.200   6.316   8.598
10410SOL     OW33126   5.617   0.824   7.009
10410SOL    HW133127   5.582   0.782   7.087
10410SOL    HW233128   5.593   0.916   7.018
10411SOL     OW33129  11.828  10.773   5.681
10411SOL    HW133130  11.856  10.863   5.700
10411SOL    HW233131  11.807  10.774   5.588
10412SOL     OW33132   5.992   7.706   3.301
10412SOL    HW133133   5.931   7.773   3.330
10412SOL    HW233134   6.035   7.676   3.382
10413SOL     OW33135  11.357   6.738  13.306
10413SOL    HW133136  11.305   6.818  13.315
10413SOL    HW233137  11.349   6.714  13.214
10414SOL     OW33138   0.086  10.467   8.752
10414SOL    HW133139   0.144  10.525   8.704
10414SOL    HW233140   0.051  10.521   8.823
10415SOL     OW33141   8.632   1.624  12.758
10415SOL    HW133142   8.590   1.544  12.728
10415SOL    HW233143   8.679   1.598  12.837
10416SOL     OW33144  14.067  12.855   0.468
10416SOL    HW133145  13.987  12.904   0.451
10416SOL    HW233146  14.108  12.845   0.382
10417SOL     OW33147   9.006   4.254  10.286
10417SOL    HW133148   8.986   4.240  10.378
10417SOL    HW233149   8.936   4.208  10.239
10418SOL     OW33150   9.126   6.045  14.316
10418SOL    HW133151   9.159   6.053  14.406
10418SOL    HW233152   9.046   5.994  14.324
10419SOL     OW33153  11.000  10.679   5.719
10419SOL    HW133154  10.970  10.685   5.628
10419SOL    HW233155  10.978  10.764   5.758
10420SOL     OW33156   8.827  13.060   9.717
10420SOL    HW133157   8.802  12.973   9.747
10420SOL    HW233158   8.845  13.110   9.797
10421SOL     OW33159   0.435  12.172   9.997
10421SOL    HW133160   0.434  12.202   9.906
10421SOL    HW233161   0.349  12.131  10.009
10422SOL     OW33162  10.974   9.144   6.912
10422SOL    HW133163  11.016   9.171   6.994
10422SOL    HW233164  11.032   9.176   6.844
10423SOL     OW33165   7.928  10.663   8.816
10423SOL    HW133166   7.938  10.575   8.851
10423SOL    HW233167   7.848  10.659   8.763
10424SOL     OW33168  10.369   0.503   9.178
10424SOL    HW133169  10.315   0.511   9.257
10424SOL    HW233170  10.449   0.460   9.208
10425SOL     OW33171  14.845  13.063  14.431
10425SOL    HW133172  14.827  13.146  14.386
10425SOL    HW233173  14.760  13.021  14.439
10426SOL     OW33174   0.432   8.766   0.671
10426SOL    HW133175   0.453   8.674   0.685
10426SOL    HW233176   0.413   8.772   0.577
10427SOL     OW33177   6.324   8.815  10.685
10427SOL    HW133178   6.315   8.814  10.590
10427SOL    HW233179   6.265   8.885  10.714
10428SOL     OW33180   0.205   7.326   0.623
10428SOL    HW133181   0.173   7.251   0.574
10428SOL    HW233182   0.128   7.381   0.637
10429SOL     OW33183   6.468   0.610   6.301
10429SOL    HW133184   6.484   0.525   6.261
10429SOL    HW233185   6.546   0.662   6.279
10430SOL     OW33186   8.384   8.787   2.626
10430SOL    HW133187   8.357   8.869   2.585
10430SOL    HW233188   8.436   8.742   2.560
10431SOL     OW33189   0.320   2.568   3.877
10431SOL    HW133190   0.239   2.523   3.855
10431SOL    HW233191   0.379   2.499   3.907
10432SOL     OW33192   6.221   2.978   7.389
10432SOL    HW133193   6.153   2.921   7.354
10432SOL    HW233194   6.268   3.010   7.313
10433SOL     OW33195   6.440  12.841  14.512
10433SOL    HW133196   6.408  12.842  14.602
10433SOL    HW233197   6.497  12.765  14.507
10434SOL     OW33198   7.417   7.685   0.813
10434SOL    HW133199   7.327   7.653   0.810
10434SOL    HW233200   7.421   7.738   0.893
10435SOL     OW33201  14.710   4.326  13.676
10435SOL    HW133202  14.680   4.374  13.753
10435SOL    HW233203  14.780   4.380  13.640
10436SOL     OW33204   7.876  12.049   4.262
10436SOL    HW133205   7.786  12.068   4.237
10436SOL    HW233206   7.923  12.131   4.243
10437SOL     OW33207  10.626   3.394   9.206
10437SOL    HW133208  10.644   3.472   9.153
10437SOL    HW233209  10.567   3.425   9.274
10438SOL     OW33210   4.264   3.121  14.835
10438SOL    HW133211   4.349   3.077  14.835
10438SOL    HW233212   4.233   3.113   0.051
10439SOL     OW33213  13.523  13.091  12.969
10439SOL    HW133214  13.541  13.025  12.902
10439SOL    HW233215  13.557  13.173  12.933
10440SOL     OW33216   7.225   8.210   4.616
10440SOL    HW133217   7.259   8.165   4.538
10440SOL    HW233218   7.227   8.143   4.684
10441SOL     OW33219  12.090  13.102   0.807
10441SOL    HW133220  12.053  13.014   0.814
10441SOL    HW233221  12.015  13.160   0.803
10442SOL     OW33222   1.334   1.667   6.808
10442SOL    HW133223   1.270   1.601   6.833
10442SOL    HW233224   1.418   1.629   6.832
10443SOL     OW33225  10.391   4.319   5.500
10443SOL    HW133226  10.386   4.229   5.534
10443SOL    HW233227  10.341   4.371   5.564
10444SOL     OW33228  13.445   5.875   6.452
10444SOL    HW133229  13.460   5.864   6.545
10444SOL    HW233230  13.415   5.789   6.422
10445SOL     OW33231   4.365   3.966   8.225
10445SOL    HW133232   4.421   3.962   8.303
10445SOL    HW233233   4.293   4.023   8.251
10446SOL     OW33234   7.291  12.226   3.910
10446SOL    HW133235   7.240  12.145   3.911
10446SOL    HW233236   7.227  12.296   3.901
10447SOL     OW33237   5.089   6.810  12.881
10447SOL    HW133238   5.091   6.813  12.786
10447SOL    HW233239   5.181   6.799  12.907
10448SOL     OW33240  12.153   2.525   5.756
10448SOL    HW133241  12.247   2.514   5.770
10448SOL    HW233242  12.145   2.610   5.714
10449SOL     OW33243  10.756   2.255  11.213
10449SOL    HW133244  10.668   2.290  11.231
10449SOL    HW233245  10.744   2.160  11.210
10450SOL     OW33246  14.665   4.693   6.964
10450SOL    HW133247  14.640   4.765   6.906
10450SOL    HW233248  14.761   4.696   6.965
10451SOL     OW33249   6.154  13.864   3.116
10451SOL    HW133250   6.103  13.836   3.040
10451SOL    HW233251   6.197  13.945   3.087
10452SOL     OW33252   8.167  12.859  11.020
10452SOL    HW133253   8.177  12.782  10.964
10452SOL    HW233254   8.079  12.891  11.002
10453SOL     OW33255  12.799  12.186  10.025
10453SOL    HW133256  12.884  12.198  10.068
10453SOL    HW233257  12.803  12.242   9.948
10454SOL     OW33258   5.721  14.606   8.493
10454SOL    HW133259   5.761  14.599   8.407
10454SOL    HW233260   5.627  14.611   8.475
10455SOL     OW33261   1.816   5.865  13.027
10455SOL    HW133262   1.874   5.931  13.066
10455SOL    HW233263   1.728   5.898  13.044
10456SOL     OW33264  12.383   9.332  12.855
10456SOL    HW133265  12.288   9.320  12.858
10456SOL    HW233266  12.395   9.415  12.809
10457SOL     OW33267  11.001  11.837  14.604
10457SOL    HW133268  10.936  11.803  14.666
10457SOL    HW233269  11.079  11.851  14.656
10458SOL     OW33270   2.501   0.019  11.721
10458SOL    HW133271   2.409   0.000  11.708
10458SOL    HW233272   2.526   0.073  11.645
10459SOL     OW33273   6.890  10.802   4.970
10459SOL    HW133274   6.847  10.822   5.053
10459SOL    HW233275   6.942  10.723   4.989
10460SOL     OW33276   2.856   5.607   3.837
10460SOL    HW133277   2.770   5.596   3.798
10460SOL    HW233278   2.840   5.613   3.931
10461SOL     OW33279  12.824   0.105  12.850
10461SOL    HW133280  12.917   0.124  12.834
10461SOL    HW233281  12.784   0.191  12.866
10462SOL     OW33282   3.279  10.081   6.168
10462SOL    HW133283   3.359  10.124   6.137
10462SOL    HW233284   3.307   9.991   6.187
10463SOL     OW33285   1.251   6.850  14.791
10463SOL    HW133286   1.282   6.938  14.812
10463SOL    HW233287   1.163   6.864  14.756
10464SOL     OW33288  13.549  12.797   8.365
10464SOL    HW133289  13.552  12.888   8.396
10464SOL    HW233290  13.493  12.801   8.288
10465SOL     OW33291  10.052   6.022   9.758
10465SOL    HW133292   9.981   5.990   9.702
10465SOL    HW233293  10.043   6.117   9.757
10466SOL     OW33294   0.069   0.341   2.051
10466SOL    HW133295   0.050   0.429   2.084
10466SOL    HW233296   0.160   0.326   2.075
10467SOL     OW33297   6.470   5.354   3.814
10467SOL    HW133298   6.510   5.436   3.841
10467SOL    HW233299   6.479   5.353   3.719
10468SOL     OW33300   5.376  14.857  10.042
10468SOL    HW133301   5.289  14.819  10.044
10468SOL    HW233302   5.429  14.793   9.994
10469SOL     OW33303  12.344  10.035  10.311
10469SOL    HW133304  12.405  10.105  10.335
10469SOL    HW233305  12.381   9.996  10.232
10470SOL     OW33306  13.240   6.172   8.619
10470SOL    HW133307  13.227   6.090   8.668
10470SOL    HW233308  13.163   6.225   8.641
10471SOL     OW33309   4.496  13.933  11.807
10471SOL    HW133310   4.471  13.981  11.728
10471SOL    HW233311   4.540  13.854  11.774
10472SOL     OW33312  10.880   0.184   7.460
10472SOL    HW133313  10.790   0.178   7.428
10472SOL    HW233314  10.921   0.102   7.432
10473SOL     OW33315  10.149   6.340   8.112
10473SOL    HW133316  10.165   6.399   8.038
10473SOL    HW233317  10.211   6.269   8.100
10474SOL     OW33318   0.339   2.198   6.145
10474SOL    HW133319   0.333   2.104   6.133
10474SOL    HW233320   0.374   2.208   6.234
10475SOL     OW33321   2.232  12.850  13.489
10475SOL    HW133322   2.278  12.933  13.501
10475SOL    HW233323   2.294  12.784  13.522
10476SOL     OW33324   1.979   5.341   7.376
10476SOL    HW133325   2.029   5.407   7.329
10476SOL    HW233326   1.889   5.373   7.375
10477SOL     OW33327   7.887   4.803   3.133
10477SOL    HW133328   7.798   4.839   3.140
10477SOL    HW233329   7.943   4.880   3.132
10478SOL     OW33330   9.951  12.628   6.189
10478SOL    HW133331   9.986  12.566   6.125
10478SOL    HW233332   9.916  12.574   6.260
10479SOL     OW33333   3.956   1.025  11.661
10479SOL    HW133334   4.011   1.102  11.657
10479SOL    HW233335   3.973   0.978  11.579
10480SOL     OW33336  12.803   9.956   7.085
10480SOL    HW133337  12.815  10.009   7.006
10480SOL    HW233338  12.734  10.001   7.134
10481SOL     OW33339   9.557   5.589   8.376
10481SOL    HW133340   9.544   5.521   8.443
10481SOL    HW233341   9.629   5.643   8.411
10482SOL     OW33342   5.398   6.138   9.802
10482SOL    HW133343   5.444   6.222   9.793
10482SOL    HW233344   5.313   6.153   9.761
10483SOL     OW33345   6.084  13.697   1.036
10483SOL    HW133346   6.172  13.720   1.064
10483SOL    HW233347   6.094  13.666   0.946
10484SOL     OW33348  10.775  14.085  13.744
10484SOL    HW133349  10.695  14.134  13.723
10484SOL    HW233350  10.813  14.063  13.659
10485SOL     OW33351   7.201  13.969   5.731
10485SOL    HW133352   7.252  14.039   5.772
10485SOL    HW233353   7.115  13.974   5.772
10486SOL     OW33354   9.610   0.945   8.082
10486SOL    HW133355   9.569   0.887   8.147
10486SOL    HW233356   9.575   1.032   8.102
10487SOL     OW33357   0.690   8.962   7.694
10487SOL    HW133358   0.658   8.952   7.783
10487SOL    HW233359   0.658   8.884   7.648
10488SOL     OW33360  10.879   4.819  11.952
10488SOL    HW133361  10.952   4.834  12.011
10488SOL    HW233362  10.878   4.897  11.896
10489SOL     OW33363  10.545  12.713   2.040
10489SOL    HW133364  10.640  12.707   2.028
10489SOL    HW233365  10.518  12.625   2.066
10490SOL     OW33366   0.698   3.254   5.303
10490SOL    HW133367   0.687   3.306   5.383
10490SOL    HW233368   0.611   3.218   5.285
10491SOL     OW33369  10.938   0.547   6.224
10491SOL    HW133370  10.944   0.525   6.317
10491SOL    HW233371  11.028   0.541   6.192
10492SOL     OW33372  13.213  14.305  11.150
10492SOL    HW133373  13.145  14.301  11.217
10492SOL    HW233374  13.262  14.384  11.170
10493SOL     OW33375   8.649  12.792   7.194
10493SOL    HW133376   8.734  12.776   7.153
10493SOL    HW233377   8.586  12.768   7.126
10494SOL     OW33378   6.153   2.235   6.735
10494SOL    HW133379   6.074   2.200   6.693
10494SOL    HW233380   6.121   2.310   6.785
10495SOL     OW33381   1.375   1.176   8.731
10495SOL    HW133382   1.452   1.192   8.677
10495SOL    HW233383   1.302   1.213   8.681
10496SOL     OW33384   9.382   4.768   8.334
10496SOL    HW133385   9.320   4.728   8.273
10496SOL    HW233386   9.343   4.852   8.357
10497SOL     OW33387  10.806   7.771  10.881
10497SOL    HW133388  10.740   7.708  10.852
10497SOL    HW233389  10.810   7.836  10.812
10498SOL     OW33390  13.566   7.654  12.906
10498SOL    HW133391  13.534   7.728  12.958
10498SOL    HW233392  13.550   7.680  12.815
10499SOL     OW33393   4.485  13.419   6.522
10499SOL    HW133394   4.560  13.370   6.554
10499SOL    HW233395   4.436  13.443   6.601
10500SOL     OW33396   5.350  11.134   1.900
10500SOL    HW133397   5.297  11.060   1.871
10500SOL    HW233398   5.420  11.094   1.953
10501SOL     OW33399   9.571  14.805   8.385
10501SOL    HW133400   9.497  14.865   8.392
10501SOL    HW233401   9.644  14.853   8.423
10502SOL     OW33402  13.269   0.675   1.958
10502SOL    HW133403  13.332   0.725   2.010
10502SOL    HW233404  13.295   0.584   1.970
10503SOL     OW33405   7.588   3.697   2.625
10503SOL    HW133406   7.506   3.710   2.671
10503SOL    HW233407   7.563   3.680   2.534
10504SOL     OW33408  11.556  13.918   2.866
10504SOL    HW133409  11.540  13.844   2.807
10504SOL    HW233410  11.558  13.878   2.954
10505SOL     OW33411   2.831   1.797   6.300
10505SOL    HW133412   2.857   1.708   6.278
10505SOL    HW233413   2.806   1.836   6.217
10506SOL     OW33414  10.572   3.881   3.300
10506SOL    HW133415  10.627   3.949   3.338
10506SOL    HW233416  10.541   3.918   3.218
10507SOL     OW33417   0.468  11.504   0.920
10507SOL    HW133418   0.443  11.414   0.937
10507SOL    HW233419   0.464  11.513   0.825
10508SOL     OW33420   4.895   1.914  12.639
10508SOL    HW133421   4.965   1.940  12.579
10508SOL    HW233422   4.896   1.818  12.637
10509SOL     OW33423  10.838   0.789   1.467
10509SOL    HW133424  10.899   0.716   1.457
10509SOL    HW233425  10.878   0.845   1.534
10510SOL     OW33426  10.445  10.120  11.684
10510SOL    HW133427  10.493  10.135  11.766
10510SOL    HW233428  10.503  10.063  11.633
10511SOL     OW33429   9.138   2.095   2.530
10511SOL    HW133430   9.070   2.155   2.561
10511SOL    HW233431   9.209   2.105   2.593
10512SOL     OW33432  13.803  13.558   7.662
10512SOL    HW133433  13.715  13.578   7.693
10512SOL    HW233434  13.824  13.473   7.701
10513SOL     OW33435   8.317  13.972   0.253
10513SOL    HW133436   8.388  13.946   0.194
10513SOL    HW233437   8.356  13.968   0.340
10514SOL     OW33438  14.333   6.555  12.458
10514SOL    HW133439  14.357   6.633  12.509
10514SOL    HW233440  14.303   6.492  12.523
10515SOL     OW33441   4.120   3.710   0.724
10515SOL    HW133442   4.182   3.730   0.654
10515SOL    HW233443   4.142   3.621   0.751
10516SOL     OW33444   6.986   9.122   7.544
10516SOL    HW133445   6.956   9.121   7.453
10516SOL    HW233446   7.064   9.066   7.544
10517SOL     OW33447   2.071   1.303   3.538
10517SOL    HW133448   2.091   1.360   3.613
10517SOL    HW233449   2.099   1.216   3.566
10518SOL     OW33450   7.419  11.108   7.844
10518SOL    HW133451   7.455  11.191   7.812
10518SOL    HW233452   7.473  11.041   7.801
10519SOL     OW33453  13.901   1.349   2.665
10519SOL    HW133454  13.948   1.422   2.705
10519SOL    HW233455  13.854   1.308   2.737
10520SOL     OW33456  11.979   9.050  12.850
10520SOL    HW133457  11.941   8.988  12.913
10520SOL    HW233458  11.943   9.135  12.876
10521SOL     OW33459   1.938   0.030  13.875
10521SOL    HW133460   1.898   0.082  13.805
10521SOL    HW233461   2.025   0.068  13.886
10522SOL     OW33462   1.824  10.167   6.716
10522SOL    HW133463   1.779  10.233   6.663
10522SOL    HW233464   1.880  10.218   6.774
10523SOL     OW33465   7.716   6.842   7.327
10523SOL    HW133466   7.665   6.855   7.407
10523SOL    HW233467   7.805   6.826   7.356
10524SOL     OW33468   0.069   3.760   3.013
10524SOL    HW133469   0.060   3.666   2.999
10524SOL    HW233470   0.046   3.799   2.929
10525SOL     OW33471   0.499  12.572  12.675
10525SOL    HW133472   0.503  12.654  12.626
10525SOL    HW233473   0.570  12.579  12.739
10526SOL     OW33474   4.302   8.489   4.795
10526SOL    HW133475   4.349   8.523   4.719
10526SOL    HW233476   4.334   8.542   4.868
10527SOL     OW33477   2.727   8.367   1.639
10527SOL    HW133478   2.701   8.299   1.576
10527SOL    HW233479   2.796   8.327   1.690
10528SOL     OW33480  10.578  10.707  11.126
10528SOL    HW133481  10.654  10.724  11.071
10528SOL    HW233482  10.614  10.669  11.206
10529SOL     OW33483   6.298   9.029   8.887
10529SOL    HW133484   6.327   9.107   8.935
10529SOL    HW233485   6.330   8.955   8.940
10530SOL     OW33486   3.381   6.102  11.155
10530SOL    HW133487   3.373   6.052  11.073
10530SOL    HW233488   3.354   6.040  11.223
10531SOL     OW33489   0.964   9.110   0.783
10531SOL    HW133490   0.943   9.135   0.873
10531SOL    HW233491   1.047   9.154   0.766
10532SOL     OW33492   6.474   2.568   2.073
10532SOL    HW133493   6.439   2.540   2.158
10532SOL    HW233494   6.466   2.663   2.073
10533SOL     OW33495  14.062   9.709   9.559
10533SOL    HW133496  13.970   9.715   9.534
10533SOL    HW233497  14.086   9.618   9.540
10534SOL     OW33498   1.200   9.622   9.966
10534SOL    HW133499   1.140   9.562   9.922
10534SOL    HW233500   1.188   9.705   9.922
10535SOL     OW33501   0.516   9.959   6.603
10535SOL    HW133502   0.557   9.882   6.564
10535SOL    HW233503   0.550  10.033   6.553
10536SOL     OW33504   4.826   4.344   4.718
10536SOL    HW133505   4.760   4.296   4.769
10536SOL    HW233506   4.811   4.316   4.628
10537SOL     OW33507   7.393   9.952   4.635
10537SOL    HW133508   7.391  10.039   4.594
10537SOL    HW233509   7.480   9.945   4.673
10538SOL     OW33510   5.612   0.855  13.051
10538SOL    HW133511   5.700   0.892  13.058
10538SOL    HW233512   5.553   0.931  13.060
10539SOL     OW33513  10.573  13.323   3.075
10539SOL    HW133514  10.547  13.401   3.124
10539SOL    HW233515  10.662  13.341   3.045
10540SOL     OW33516   8.095  12.053  10.267
10540SOL    HW133517   8.008  12.022  10.292
10540SOL    HW233518   8.154  12.007  10.327
10541SOL     OW33519   8.048   0.817   7.869
10541SOL    HW133520   8.087   0.867   7.797
10541SOL    HW233521   8.086   0.730   7.861
10542SOL     OW33522   7.875   3.806   7.386
10542SOL    HW133523   7.802   3.769   7.436
10542SOL    HW233524   7.861   3.775   7.297
10543SOL     OW33525   7.275   1.017   8.789
10543SOL    HW133526   7.328   1.096   8.786
10543SOL    HW233527   7.273   0.985   8.699
10544SOL     OW33528  10.552   0.985   5.605
10544SOL    HW133529  10.470   0.936   5.608
10544SOL    HW233530  10.573   1.001   5.697
10545SOL     OW33531  13.324   2.137   4.795
10545SOL    HW133532  13.247   2.161   4.744
10545SOL    HW233533  13.393   2.125   4.730
10546SOL     OW33534   7.041  12.840   5.833
10546SOL    HW133535   6.991  12.856   5.753
10546SOL    HW233536   7.122  12.799   5.803
10547SOL     OW33537  12.605  10.627  11.392
10547SOL    HW133538  12.548  10.595  11.322
10547SOL    HW233539  12.638  10.548  11.435
10548SOL     OW33540  11.914  13.978   8.888
10548SOL    HW133541  11.986  14.037   8.910
10548SOL    HW233542  11.890  14.004   8.798
10549SOL     OW33543   1.993   6.629   4.198
10549SOL    HW133544   2.010   6.692   4.128
10549SOL    HW233545   1.899   6.613   4.195
10550SOL     OW33546   0.786   0.228  11.427
10550SOL    HW133547   0.789   0.318  11.457
10550SOL    HW233548   0.753   0.179  11.502
10551SOL     OW33549  12.777  13.430   3.954
10551SOL    HW133550  12.806  13.494   3.889
10551SOL    HW233551  12.691  13.461   3.981
10552SOL     OW33552   6.276  11.560  11.167
10552SOL    HW133553   6.296  11.472  11.200
10552SOL    HW233554   6.355  11.588  11.122
10553SOL     OW33555  14.829  11.423  10.305
10553SOL    HW133556   0.025  11.488  10.302
10553SOL    HW233557  14.869  11.346  10.344
10554SOL     OW33558   0.776   4.760   8.975
10554SOL    HW133559   0.793   4.676   9.018
10554SOL    HW233560   0.813   4.825   9.035
10555SOL     OW33561  14.726   4.348   1.332
10555SOL    HW133562  14.781   4.334   1.409
10555SOL    HW233563  14.688   4.435   1.345
10556SOL     OW33564   9.683   1.723   5.608
10556SOL    HW133565   9.667   1.743   5.515
10556SOL    HW233566   9.597   1.700   5.643
10557SOL     OW33567  14.793   6.302  12.996
10557SOL    HW133568  14.729   6.301  13.067
10557SOL    HW233569  14.761   6.369  12.936
10558SOL     OW33570  13.827   0.736  13.516
10558SOL    HW133571  13.739   0.718  13.482
10558SOL    HW233572  13.869   0.788  13.448
10559SOL     OW33573   1.844   5.349   1.240
10559SOL    HW133574   1.919   5.310   1.195
10559SOL    HW233575   1.777   5.357   1.173
10560SOL     OW33576  10.947   2.495   7.176
10560SOL    HW133577  10.897   2.569   7.140
10560SOL    HW233578  11.027   2.535   7.211
10561SOL     OW33579   2.931   8.219   1.751
10561SOL    HW133580   2.959   8.128   1.752
10561SOL    HW233581   2.969   8.256   1.831
10562SOL     OW33582  13.770   2.124   3.348
10562SOL    HW133583  13.829   2.051   3.328
10562SOL    HW233584  13.823   2.183   3.402
10563SOL     OW33585  14.359  10.121  12.153
10563SOL    HW133586  14.341  10.094  12.243
10563SOL    HW233587  14.451  10.095  12.138
10564SOL     OW33588   3.546   9.376   0.543
10564SOL    HW133589   3.596   9.445   0.585
10564SOL    HW233590   3.456   9.408   0.543
10565SOL     OW33591  14.460  11.883   5.871
10565SOL    HW133592  14.461  11.869   5.776
10565SOL    HW233593  14.389  11.946   5.885
10566SOL     OW33594  13.156   4.765   2.320
10566SOL    HW133595  13.228   4.750   2.381
10566SOL    HW233596  13.196   4.754   2.233
10567SOL     OW33597   9.797   7.320   5.806
10567SOL    HW133598   9.836   7.255   5.865
10567SOL    HW233599   9.703   7.305   5.813
10568SOL     OW33600   1.565  11.564   4.437
10568SOL    HW133601   1.482  11.585   4.393
10568SOL    HW233602   1.539  11.526   4.521
10569SOL     OW33603   2.121   2.345   8.394
10569SOL    HW133604   2.168   2.265   8.370
10569SOL    HW233605   2.140   2.406   8.323
10570SOL     OW33606   4.390   1.340  14.166
10570SOL    HW133607   4.428   1.423  14.197
10570SOL    HW233608   4.441   1.318  14.088
10571SOL     OW33609   8.974   9.692  11.709
10571SOL    HW133610   9.064   9.710  11.684
10571SOL    HW233611   8.931   9.778  11.704
10572SOL     OW33612   7.361   0.211   5.991
10572SOL    HW133613   7.341   0.276   5.924
10572SOL    HW233614   7.457   0.205   5.991
10573SOL     OW33615   3.893  11.133   0.175
10573SOL    HW133616   3.968  11.072   0.174
10573SOL    HW233617   3.818  11.078   0.154
10574SOL     OW33618  10.778   6.348   7.460
10574SOL    HW133619  10.854   6.289   7.467
10574SOL    HW233620  10.735   6.323   7.379
10575SOL     OW33621   1.576  11.894   0.522
10575SOL    HW133622   1.597  11.801   0.521
10575SOL    HW233623   1.647  11.935   0.472
10576SOL     OW33624   7.820   3.083   0.251
10576SOL    HW133625   7.915   3.074   0.250
10576SOL    HW233626   7.792   3.054   0.164
10577SOL     OW33627  11.431  12.961   1.362
10577SOL    HW133628  11.494  12.951   1.291
10577SOL    HW233629  11.410  12.871   1.388
10578SOL     OW33630   5.789  12.983   9.741
10578SOL    HW133631   5.820  12.908   9.792
10578SOL    HW233632   5.761  13.047   9.807
10579SOL     OW33633  14.129   0.677  13.404
10579SOL    HW133634  14.123   0.730  13.325
10579SOL    HW233635  14.192   0.723  13.459
10580SOL     OW33636   8.310   7.473   8.384
10580SOL    HW133637   8.251   7.422   8.441
10580SOL    HW233638   8.361   7.406   8.338
10581SOL     OW33639   7.918   7.322   8.366
10581SOL    HW133640   7.886   7.314   8.456
10581SOL    HW233641   8.012   7.308   8.373
10582SOL     OW33642  11.542  14.073   4.726
10582SOL    HW133643  11.630  14.061   4.761
10582SOL    HW233644  11.494  13.997   4.756
10583SOL     OW33645   1.414   2.716   6.405
10583SOL    HW133646   1.429   2.810   6.407
10583SOL    HW233647   1.320   2.706   6.396
10584SOL     OW33648   9.012   3.182  14.276
10584SOL    HW133649   9.007   3.221  14.189
10584SOL    HW233650   8.930   3.205  14.318
10585SOL     OW33651  12.712  11.747  12.323
10585SOL    HW133652  12.667  11.832  12.333
10585SOL    HW233653  12.804  11.770  12.312
10586SOL     OW33654   3.509  10.529   6.957
10586SOL    HW133655   3.486  10.579   6.879
10586SOL    HW233656   3.605  10.531   6.960
10587SOL     OW33657   6.692   5.090   6.310
10587SOL    HW133658   6.653   5.099   6.398
10587SOL    HW233659   6.763   5.154   6.309
10588SOL     OW33660   4.978   3.472   6.611
10588SOL    HW133661   4.957   3.395   6.664
10588SOL    HW233662   5.065   3.498   6.641
10589SOL     OW33663   1.964  13.706  10.065
10589SOL    HW133664   1.976  13.796  10.094
10589SOL    HW233665   2.031  13.694   9.997
10590SOL     OW33666  14.728  11.539   5.703
10590SOL    HW133667  14.729  11.444   5.716
10590SOL    HW233668  14.651  11.569   5.752
10591SOL     OW33669   7.509   8.339   2.163
10591SOL    HW133670   7.461   8.287   2.228
10591SOL    HW233671   7.597   8.302   2.163
10592SOL     OW33672   9.627   8.165  14.557
10592SOL    HW133673   9.582   8.153  14.473
10592SOL    HW233674   9.715   8.193  14.533
10593SOL     OW33675   1.616   0.623  11.966
10593SOL    HW133676   1.600   0.532  11.991
10593SOL    HW233677   1.690   0.650  12.020
10594SOL     OW33678   5.657   2.864   4.214
10594SOL    HW133679   5.621   2.849   4.126
10594SOL    HW233680   5.624   2.791   4.266
10595SOL     OW33681   2.633   2.118   5.140
10595SOL    HW133682   2.666   2.176   5.209
10595SOL    HW233683   2.710   2.100   5.085
10596SOL     OW33684   3.083   9.490  10.561
10596SOL    HW133685   3.110   9.446  10.642
10596SOL    HW233686   3.154   9.552  10.543
10597SOL     OW33687   0.343   7.020  10.221
10597SOL    HW133688   0.327   6.950  10.284
10597SOL    HW233689   0.404   6.983  10.158
10598SOL     OW33690   0.587   0.461  12.494
10598SOL    HW133691   0.670   0.441  12.537
10598SOL    HW233692   0.563   0.548  12.526
10599SOL     OW33693   9.646  13.115  12.996
10599SOL    HW133694   9.555  13.112  12.968
10599SOL    HW233695   9.649  13.187  13.059
10600SOL     OW33696   6.141   3.315   2.649
10600SOL    HW133697   6.123   3.290   2.740
10600SOL    HW233698   6.186   3.239   2.611
10601SOL     OW33699   4.087  12.877   7.412
10601SOL    HW133700   4.088  12.819   7.335
10601SOL    HW233701   4.068  12.819   7.485
10602SOL     OW33702   5.176  12.547   0.762
10602SOL    HW133703   5.221  12.631   0.750
10602SOL    HW233704   5.187  12.502   0.679
10603SOL     OW33705   5.747   1.573   3.542
10603SOL    HW133706   5.710   1.660   3.526
10603SOL    HW233707   5.674   1.513   3.528
10604SOL     OW33708   7.320  10.647   4.586
10604SOL    HW133709   7.313  10.658   4.681
10604SOL    HW233710   7.229  10.641   4.556
10605SOL     OW33711   9.127   7.861  11.816
10605SOL    HW133712   9.196   7.881  11.753
10605SOL    HW233713   9.059   7.818  11.764
10606SOL     OW33714   6.555   9.057   7.976
10606SOL    HW133715   6.498   9.006   8.033
10606SOL    HW233716   6.559   9.143   8.017
10607SOL     OW33717   0.993  14.827  12.657
10607SOL    HW133718   1.040  14.746  12.639
10607SOL    HW233719   0.996  14.837  12.752
10608SOL     OW33720  14.062  11.572  10.537
10608SOL    HW133721  13.981  11.598  10.580
10608SOL    HW233722  14.114  11.653  10.532
10609SOL     OW33723   5.214  11.237  13.020
10609SOL    HW133724   5.213  11.147  12.989
10609SOL    HW233725   5.307  11.258  13.033
10610SOL     OW33726   7.056   4.458   8.338
10610SOL    HW133727   7.130   4.396   8.341
10610SOL    HW233728   7.096   4.541   8.314
10611SOL     OW33729   4.730   1.972  12.934
10611SOL    HW133730   4.678   1.929  12.867
10611SOL    HW233731   4.746   2.060  12.900
10612SOL     OW33732   2.686   1.409   8.256
10612SOL    HW133733   2.741   1.330   8.252
10612SOL    HW233734   2.612   1.390   8.198
10613SOL     OW33735   8.938  11.342   7.797
10613SOL    HW133736   8.908  11.433   7.800
10613SOL    HW233737   8.859  11.290   7.814
10614SOL     OW33738   2.828   2.084   3.430
10614SOL    HW133739   2.811   2.038   3.512
10614SOL    HW233740   2.863   2.169   3.456
10615SOL     OW33741  13.869  10.069   7.285
10615SOL    HW133742  13.830  10.154   7.266
10615SOL    HW233743  13.952  10.070   7.237
10616SOL     OW33744  14.228  12.249   6.109
10616SOL    HW133745  14.199  12.213   6.193
10616SOL    HW233746  14.238  12.173   6.052
10617SOL     OW33747  12.616  10.620   6.276
10617SOL    HW133748  12.616  10.702   6.325
10617SOL    HW233749  12.597  10.645   6.186
10618SOL     OW33750   0.118   3.087   9.929
10618SOL    HW133751   0.187   3.059   9.869
10618SOL    HW233752   0.065   3.148   9.878
10619SOL     OW33753  14.825   0.171  14.143
10619SOL    HW133754   0.022   0.152  14.202
10619SOL    HW233755  14.793   0.257  14.171
10620SOL     OW33756   1.623  14.530   5.757
10620SOL    HW133757   1.529  14.548   5.754
10620SOL    HW233758   1.639  14.471   5.683
10621SOL     OW33759  14.079   4.392   3.685
10621SOL    HW133760  14.005   4.409   3.627
10621SOL    HW233761  14.155   4.384   3.626
10622SOL     OW33762   7.973   6.048   0.239
10622SOL    HW133763   8.026   6.030   0.316
10622SOL    HW233764   7.897   5.990   0.248
10623SOL     OW33765   8.036  13.754  11.767
10623SOL    HW133766   8.024  13.760  11.672
10623SOL    HW233767   8.053  13.843  11.795
10624SOL     OW33768   7.465   4.670   5.592
10624SOL    HW133769   7.496   4.643   5.506
10624SOL    HW233770   7.511   4.613   5.653
10625SOL     OW33771   3.432   9.576   8.420
10625SOL    HW133772   3.465   9.509   8.359
10625SOL    HW233773   3.443   9.536   8.507
10626SOL     OW33774   9.006   9.558  11.356
10626SOL    HW133775   9.087   9.607  11.342
10626SOL    HW233776   8.945   9.593  11.291
10627SOL     OW33777   3.501  13.478  14.799
10627SOL    HW133778   3.566  13.463  14.867
10627SOL    HW233779   3.533  13.555  14.752
10628SOL     OW33780   8.566   4.204   0.422
10628SOL    HW133781   8.589   4.112   0.413
10628SOL    HW233782   8.478   4.210   0.384
10629SOL     OW33783   9.422   0.709   6.263
10629SOL    HW133784   9.484   0.637   6.277
10629SOL    HW233785   9.338   0.666   6.248
10630SOL     OW33786   4.217  13.239   1.311
10630SOL    HW133787   4.125  13.211   1.314
10630SOL    HW233788   4.244  13.221   1.221
10631SOL     OW33789   6.609   4.250   9.459
10631SOL    HW133790   6.686   4.253   9.402
10631SOL    HW233791   6.536   4.274   9.403
10632SOL     OW33792  11.376  13.934  11.754
10632SOL    HW133793  11.282  13.949  11.766
10632SOL    HW233794  11.416  14.020  11.766
10633SOL     OW33795   0.332   2.452  13.546
10633SOL    HW133796   0.413   2.501  13.530
10633SOL    HW233797   0.327   2.391  13.472
10634SOL     OW33798   3.110  14.378   9.463
10634SOL    HW133799   3.122  14.293   9.506
10634SOL    HW233800   3.124  14.442   9.533
10635SOL     OW33801   4.809  12.172  11.860
10635SOL    HW133802   4.719  12.179  11.829
10635SOL    HW233803   4.814  12.232  11.935
10636SOL     OW33804   8.862   3.482   0.081
10636SOL    HW133805   8.899   3.570   0.074
10636SOL    HW233806   8.786   3.483   0.022
10637SOL     OW33807   9.060   0.753   0.269
10637SOL    HW133808   8.974   0.717   0.292
10637SOL    HW233809   9.042   0.818   0.201
10638SOL     OW33810   7.193   6.968   1.332
10638SOL    HW133811   7.105   7.005   1.338
10638SOL    HW233812   7.182   6.887   1.283
10639SOL     OW33813   9.508   8.955   7.712
10639SOL    HW133814   9.414   8.944   7.697
10639SOL    HW233815   9.515   8.980   7.805
10640SOL     OW33816  14.071  10.925  10.578
10640SOL    HW133817  14.051  11.015  10.603
10640SOL    HW233818  14.055  10.921  10.484
10641SOL     OW33819  12.244   3.292   7.657
10641SOL    HW133820  12.252   3.341   7.575
10641SOL    HW233821  12.187   3.346   7.712
10642SOL     OW33822   1.463  10.040   1.671
10642SOL    HW133823   1.416  10.108   1.624
10642SOL    HW233824   1.538  10.086   1.710
10643SOL     OW33825   1.319   7.752   5.908
10643SOL    HW133826   1.360   7.836   5.885
10643SOL    HW233827   1.284   7.719   5.825
10644SOL     OW33828   8.329   9.146  10.776
10644SOL    HW133829   8.360   9.117  10.690
10644SOL    HW233830   8.376   9.091  10.838
10645SOL     OW33831   5.903   4.422  14.103
10645SOL    HW133832   5.896   4.515  14.125
10645SOL    HW233833   5.815   4.388  14.116
10646SOL     OW33834  11.224  14.493  10.084
10646SOL    HW133835  11.137  14.470  10.051
10646SOL    HW233836  11.263  14.547  10.015
10647SOL     OW33837   5.860   5.285  12.343
10647SOL    HW133838   5.902   5.238  12.415
10647SOL    HW233839   5.931   5.332  12.300
10648SOL     OW33840   1.097  14.453   6.679
10648SOL    HW133841   1.088  14.505   6.760
10648SOL    HW233842   1.156  14.382   6.702
10649SOL     OW33843  12.097   6.726  13.053
10649SOL    HW133844  12.086   6.643  13.099
10649SOL    HW233845  12.071   6.792  13.117
10650SOL     OW33846   6.906   0.089   9.167
10650SOL    HW133847   6.932   0.147   9.096
10650SOL    HW233848   6.815   0.066   9.146
10651SOL     OW33849   2.381  14.739   1.163
10651SOL    HW133850   2.300  14.772   1.202
10651SOL    HW233851   2.374  14.643   1.172
10652SOL     OW33852  13.413  13.072   3.428
10652SOL    HW133853  13.356  12.995   3.424
10652SOL    HW233854  13.487  13.050   3.371
10653SOL     OW33855  14.402  14.102  13.380
10653SOL    HW133856  14.454  14.048  13.439
10653SOL    HW233857  14.464  14.137  13.317
10654SOL     OW33858   2.583   7.087   8.218
10654SOL    HW133859   2.590   7.000   8.258
10654SOL    HW233860   2.649   7.087   8.149
10655SOL     OW33861   8.977   7.787   9.803
10655SOL    HW133862   8.931   7.860   9.844
10655SOL    HW233863   9.020   7.741   9.875
10656SOL     OW33864  13.518   0.302  13.433
10656SOL    HW133865  13.472   0.383  13.411
10656SOL    HW233866  13.610   0.327  13.440
10657SOL     OW33867  14.318   5.027   3.777
10657SOL    HW133868  14.294   5.037   3.685
10657SOL    HW233869  14.414   5.025   3.777
10658SOL     OW33870  14.247   1.667  10.988
10658SOL    HW133871  14.195   1.714  11.054
10658SOL    HW233872  14.263   1.581  11.027
10659SOL     OW33873   2.403  14.303   8.455
10659SOL    HW133874   2.314  14.269   8.459
10659SOL    HW233875   2.442  14.278   8.539
10660SOL     OW33876   6.160   4.825   1.552
10660SOL    HW133877   6.225   4.760   1.581
10660SOL    HW233878   6.203   4.909   1.566
10661SOL     OW33879   9.834  12.981   4.301
10661SOL    HW133880   9.742  12.956   4.298
10661SOL    HW233881   9.882  12.898   4.302
10662SOL     OW33882   2.404   3.538   7.356
10662SOL    HW133883   2.485   3.491   7.335
10662SOL    HW233884   2.388   3.517   7.448
10663SOL     OW33885   0.445  14.298   3.401
10663SOL    HW133886   0.473  14.390   3.395
10663SOL    HW233887   0.516  14.249   3.361
10664SOL     OW33888  10.740  11.790   1.859
10664SOL    HW133889  10.745  11.777   1.764
10664SOL    HW233890  10.661  11.742   1.886
10665SOL     OW33891   1.964   9.480   1.499
10665SOL    HW133892   1.925   9.446   1.418
10665SOL    HW233893   1.945   9.574   1.497
10666SOL     OW33894  10.938  10.438   4.854
10666SOL    HW133895  10.977  10.393   4.930
10666SOL    HW233896  10.916  10.525   4.887
10667SOL     OW33897  14.398   1.577  11.487
10667SOL    HW133898  14.451   1.642  11.533
10667SOL    HW233899  14.439   1.569  11.401
10668SOL     OW33900  12.274  11.820   7.212
10668SOL    HW133901  12.258  11.910   7.242
10668SOL    HW233902  12.187  11.779   7.216
10669SOL     OW33903   3.053   1.552   7.353
10669SOL    HW133904   3.006   1.595   7.425
10669SOL    HW233905   3.041   1.458   7.370
10670SOL     OW33906  13.302   0.557  11.760
10670SOL    HW133907  13.336   0.504  11.832
10670SOL    HW233908  13.260   0.631  11.802
10671SOL     OW33909   7.347   4.714  10.454
10671SOL    HW133910   7.399   4.695  10.533
10671SOL    HW233911   7.411   4.708  10.382
10672SOL     OW33912   7.177  10.080   8.584
10672SOL    HW133913   7.258  10.082   8.532
10672SOL    HW233914   7.191  10.008   8.645
10673SOL     OW33915   8.993   3.385   2.841
10673SOL    HW133916   8.980   3.342   2.926
10673SOL    HW233917   9.060   3.331   2.797
10674SOL     OW33918   0.653  10.211   7.406
10674SOL    HW133919   0.594  10.158   7.351
10674SOL    HW233920   0.684  10.149   7.472
10675SOL     OW33921   3.146   4.400  10.658
10675SOL    HW133922   3.241   4.401  10.646
10675SOL    HW233923   3.134   4.410  10.753
10676SOL     OW33924  10.032   1.389   9.620
10676SOL    HW133925   9.998   1.348   9.700
10676SOL    HW233926  10.122   1.358   9.614
10677SOL     OW33927  13.499  13.444  10.626
10677SOL    HW133928  13.510  13.351  10.648
10677SOL    HW233929  13.414  13.449  10.582
10678SOL     OW33930   9.939   9.492  12.279
10678SOL    HW133931   9.927   9.410  12.232
10678SOL    HW233932   9.873   9.551  12.244
10679SOL     OW33933   0.505  12.195  11.614
10679SOL    HW133934   0.449  12.211  11.538
10679SOL    HW233935   0.457  12.235  11.687
10680SOL     OW33936   7.818  13.086   0.437
10680SOL    HW133937   7.890  13.041   0.392
10680SOL    HW233938   7.745  13.082   0.375
10681SOL     OW33939   2.163   8.475  14.573
10681SOL    HW133940   2.228   8.512  14.632
10681SOL    HW233941   2.080   8.511  14.603
10682SOL     OW33942   6.907   5.127   3.149
10682SOL    HW133943   6.821   5.159   3.175
10682SOL    HW233944   6.956   5.118   3.231
10683SOL     OW33945   0.717   5.408  12.229
10683SOL    HW133946   0.632   5.441  12.258
10683SOL    HW233947   0.697   5.330  12.178
10684SOL     OW33948  13.412   2.096   9.155
10684SOL    HW133949  13.475   2.061   9.218
10684SOL    HW233950  13.329   2.098   9.203
10685SOL     OW33951   5.109   4.950  11.975
10685SOL    HW133952   5.037   4.920  11.920
10685SOL    HW233953   5.179   4.972  11.914
10686SOL     OW33954   1.419   2.334  11.526
10686SOL    HW133955   1.371   2.417  11.518
10686SOL    HW233956   1.390   2.298  11.610
10687SOL     OW33957  10.482  13.449  11.094
10687SOL    HW133958  10.476  13.355  11.080
10687SOL    HW233959  10.488  13.487  11.006
10688SOL     OW33960  14.727  12.813   0.959
10688SOL    HW133961  14.742  12.792   1.051
10688SOL    HW233962  14.635  12.794   0.945
10689SOL     OW33963   9.075  10.332  12.524
10689SOL    HW133964   8.989  10.303  12.551
10689SOL    HW233965   9.128  10.253  12.521
10690SOL     OW33966   3.793   7.498   1.532
10690SOL    HW133967   3.836   7.526   1.613
10690SOL    HW233968   3.705   7.472   1.561
10691SOL     OW33969   6.154   1.733   5.738
10691SOL    HW133970   6.131   1.821   5.769
10691SOL    HW233971   6.239   1.743   5.696
10692SOL     OW33972  14.754  14.202  10.856
10692SOL    HW133973  14.758  14.273  10.920
10692SOL    HW233974  14.802  14.130  10.898
10693SOL     OW33975  13.304   5.054   5.495
10693SOL    HW133976  13.353   5.102   5.428
10693SOL    HW233977  13.238   5.006   5.446
10694SOL     OW33978   4.137   9.985  11.862
10694SOL    HW133979   4.154   9.934  11.783
10694SOL    HW233980   4.084   9.927  11.917
10695SOL     OW33981  11.354  11.838   7.110
10695SOL    HW133982  11.275  11.890   7.124
10695SOL    HW233983  11.364  11.787   7.190
10696SOL     OW33984   1.296  14.730   2.335
10696SOL    HW133985   1.224  14.719   2.397
10696SOL    HW233986   1.254  14.734   2.249
10697SOL     OW33987   0.793  10.176  13.889
10697SOL    HW133988   0.845  10.240  13.937
10697SOL    HW233989   0.740  10.227  13.829
10698SOL     OW33990   0.473   1.778  13.062
10698SOL    HW133991   0.535   1.746  12.997
10698SOL    HW233992   0.472   1.711  13.130
10699SOL     OW33993   2.775  14.852   6.011
10699SOL    HW133994   2.860   0.021   6.007
10699SOL    HW233995   2.711   0.049   6.014
10700SOL     OW33996   6.719   2.879   0.340
10700SOL    HW133997   6.745   2.797   0.299
10700SOL    HW233998   6.624   2.871   0.351
10701SOL     OW33999  14.697   8.999  11.875
10701SOL    HW134000  14.679   8.908  11.899
10701SOL    HW234001  14.738   9.037  11.953
10702SOL     OW34002  14.867   3.455  13.439
10702SOL    HW134003  14.814   3.381  13.409
10702SOL    HW234004   0.004   3.438  13.533
10703SOL     OW34005   7.148   7.589   4.619
10703SOL    HW134006   7.141   7.666   4.676
10703SOL    HW234007   7.084   7.527   4.654
10704SOL     OW34008   2.277   1.144   2.126
10704SOL    HW134009   2.266   1.122   2.033
10704SOL    HW234010   2.324   1.070   2.163
10705SOL     OW34011   2.314   5.716  13.414
10705SOL    HW134012   2.367   5.796  13.410
10705SOL    HW234013   2.298   5.693  13.323
10706SOL     OW34014   9.577   0.618   3.973
10706SOL    HW134015   9.522   0.693   3.950
10706SOL    HW234016   9.619   0.643   4.055
10707SOL     OW34017   3.375  12.538  11.781
10707SOL    HW134018   3.440  12.549  11.711
10707SOL    HW234019   3.309  12.481  11.743
10708SOL     OW34020   4.138   5.667   4.000
10708SOL    HW134021   4.115   5.607   3.929
10708SOL    HW234022   4.057   5.715   4.018
10709SOL     OW34023   9.387  11.212   9.819
10709SOL    HW134024   9.354  11.128   9.852
10709SOL    HW234025   9.406  11.263   9.898
10710SOL     OW34026   1.060   2.087   8.921
10710SOL    HW134027   1.083   2.081   8.829
10710SOL    HW234028   0.968   2.058   8.925
10711SOL     OW34029  12.374   1.827   9.641
10711SOL    HW134030  12.366   1.897   9.705
10711SOL    HW234031  12.326   1.754   9.678
10712SOL     OW34032  10.579   3.779  10.121
10712SOL    HW134033  10.642   3.734  10.177
10712SOL    HW234034  10.588   3.737  10.035
10713SOL     OW34035  12.553  10.491   9.383
10713SOL    HW134036  12.501  10.483   9.303
10713SOL    HW234037  12.497  10.537   9.445
10714SOL     OW34038   5.798   0.770   6.388
10714SOL    HW134039   5.837   0.739   6.470
10714SOL    HW234040   5.738   0.839   6.415
10715SOL     OW34041   8.208   9.715  11.633
10715SOL    HW134042   8.150   9.740  11.562
10715SOL    HW234043   8.197   9.620  11.641
10716SOL     OW34044   6.985   6.482   3.444
10716SOL    HW134045   7.041   6.538   3.498
10716SOL    HW234046   7.046   6.431   3.391
10717SOL     OW34047   9.898   7.325   8.057
10717SOL    HW134048   9.901   7.316   7.962
10717SOL    HW234049   9.954   7.400   8.076
10718SOL     OW34050  14.418   8.588   1.061
10718SOL    HW134051  14.456   8.619   1.143
10718SOL    HW234052  14.460   8.503   1.046
10719SOL     OW34053   5.483  10.136   2.551
10719SOL    HW134054   5.469  10.043   2.535
10719SOL    HW234055   5.486  10.175   2.463
10720SOL     OW34056   7.078  10.772  13.666
10720SOL    HW134057   7.008  10.773  13.600
10720SOL    HW234058   7.156  10.802  13.619
10721SOL     OW34059   5.753   8.399   4.166
10721SOL    HW134060   5.712   8.467   4.219
10721SOL    HW234061   5.840   8.388   4.203
10722SOL     OW34062   8.257   8.770   5.868
10722SOL    HW134063   8.267   8.676   5.882
10722SOL    HW234064   8.342   8.798   5.833
10723SOL     OW34065  13.339   9.572   3.784
10723SOL    HW134066  13.321   9.481   3.809
10723SOL    HW234067  13.432   9.572   3.759
10724SOL     OW34068   7.467   9.588   4.945
10724SOL    HW134069   7.428   9.628   4.867
10724SOL    HW234070   7.495   9.662   4.999
10725SOL     OW34071  10.286  12.709   4.327
10725SOL    HW134072  10.279  12.783   4.266
10725SOL    HW234073  10.348  12.739   4.394
10726SOL     OW34074   2.334   1.575   8.332
10726SOL    HW134075   2.352   1.527   8.252
10726SOL    HW234076   2.264   1.525   8.375
10727SOL     OW34077   2.760   3.483   5.981
10727SOL    HW134078   2.850   3.504   6.004
10727SOL    HW234079   2.763   3.393   5.950
10728SOL     OW34080  12.484   8.625  11.594
10728SOL    HW134081  12.561   8.665  11.633
10728SOL    HW234082  12.467   8.548  11.649
10729SOL     OW34083   0.537   4.262   1.079
10729SOL    HW134084   0.594   4.221   1.015
10729SOL    HW234085   0.567   4.353   1.084
10730SOL     OW34086   9.981   2.986   8.941
10730SOL    HW134087   9.997   2.980   9.035
10730SOL    HW234088  10.056   2.943   8.901
10731SOL     OW34089  12.940   2.393   1.012
10731SOL    HW134090  12.978   2.314   0.974
10731SOL    HW234091  13.016   2.445   1.040
10732SOL     OW34092   1.524   8.526   0.776
10732SOL    HW134093   1.548   8.434   0.791
10732SOL    HW234094   1.597   8.562   0.726
10733SOL     OW34095   2.081   5.631   9.936
10733SOL    HW134096   2.164   5.623   9.889
10733SOL    HW234097   2.023   5.678   9.876
10734SOL     OW34098  14.356   5.657   0.330
10734SOL    HW134099  14.327   5.665   0.420
10734SOL    HW234100  14.275   5.646   0.279
10735SOL     OW34101  11.306  12.124   4.292
10735SOL    HW134102  11.387  12.091   4.253
10735SOL    HW234103  11.306  12.217   4.272
10736SOL     OW34104   8.490  10.134   8.215
10736SOL    HW134105   8.511  10.079   8.139
10736SOL    HW234106   8.540  10.095   8.287
10737SOL     OW34107   7.873   8.991   3.360
10737SOL    HW134108   7.945   8.929   3.368
10737SOL    HW234109   7.856   9.021   3.449
10738SOL     OW34110   3.882  12.132   8.771
10738SOL    HW134111   3.814  12.107   8.709
10738SOL    HW234112   3.840  12.199   8.826
10739SOL     OW34113   3.143   9.032   9.241
10739SOL    HW134114   3.112   9.110   9.195
10739SOL    HW234115   3.064   8.989   9.272
10740SOL     OW34116  12.150   4.400  10.778
10740SOL    HW134117  12.127   4.437  10.693
10740SOL    HW234118  12.208   4.327  10.758
10741SOL     OW34119   9.046   1.946   1.434
10741SOL    HW134120   9.112   1.939   1.366
10741SOL    HW234121   8.979   2.002   1.397
10742SOL     OW34122  10.215   3.865   8.837
10742SOL    HW134123  10.250   3.847   8.924
10742SOL    HW234124  10.136   3.813   8.831
10743SOL     OW34125   2.038   2.812   1.518
10743SOL    HW134126   1.945   2.790   1.508
10743SOL    HW234127   2.039   2.906   1.537
10744SOL     OW34128  13.091   6.506  12.421
10744SOL    HW134129  13.092   6.412  12.438
10744SOL    HW234130  13.144   6.545  12.491
10745SOL     OW34131   0.199   9.965  12.610
10745SOL    HW134132   0.111  10.001  12.622
10745SOL    HW234133   0.257  10.030  12.650
10746SOL     OW34134  12.621   9.681  10.774
10746SOL    HW134135  12.672   9.753  10.737
10746SOL    HW234136  12.656   9.602  10.731
10747SOL     OW34137   3.247   5.334  14.294
10747SOL    HW134138   3.324   5.288  14.325
10747SOL    HW234139   3.278   5.422  14.273
10748SOL     OW34140  11.652   5.299  13.879
10748SOL    HW134141  11.687   5.370  13.826
10748SOL    HW234142  11.702   5.222  13.852
10749SOL     OW34143  11.259   4.901  11.868
10749SOL    HW134144  11.282   4.873  11.779
10749SOL    HW234145  11.313   4.979  11.883
10750SOL     OW34146  10.107  10.501   1.630
10750SOL    HW134147  10.078  10.575   1.683
10750SOL    HW234148  10.071  10.424   1.675
10751SOL     OW34149   3.140   5.710   2.431
10751SOL    HW134150   3.154   5.786   2.488
10751SOL    HW234151   3.097   5.645   2.487
10752SOL     OW34152  13.758   0.324  11.563
10752SOL    HW134153  13.820   0.373  11.509
10752SOL    HW234154  13.794   0.328  11.652
10753SOL     OW34155  14.831  10.994   7.388
10753SOL    HW134156   0.011  11.019   7.314
10753SOL    HW234157  14.756  11.053   7.384
10754SOL     OW34158   5.039   3.317  13.575
10754SOL    HW134159   5.034   3.412  13.583
10754SOL    HW234160   5.038   3.301  13.481
10755SOL     OW34161   1.749   4.054   4.432
10755SOL    HW134162   1.683   4.045   4.500
10755SOL    HW234163   1.703   4.033   4.350
10756SOL     OW34164  11.914  10.292   8.588
10756SOL    HW134165  11.930  10.386   8.595
10756SOL    HW234166  11.861  10.282   8.509
10757SOL     OW34167   8.797   4.410   0.656
10757SOL    HW134168   8.746   4.346   0.705
10757SOL    HW234169   8.880   4.416   0.703
10758SOL     OW34170   5.801  11.485   4.879
10758SOL    HW134171   5.823  11.515   4.791
10758SOL    HW234172   5.818  11.391   4.877
10759SOL     OW34173   2.345   5.143   4.171
10759SOL    HW134174   2.326   5.070   4.230
10759SOL    HW234175   2.350   5.220   4.227
10760SOL     OW34176   5.157  10.083   4.081
10760SOL    HW134177   5.143  10.110   3.991
10760SOL    HW234178   5.176  10.164   4.128
10761SOL     OW34179   5.253   9.864   7.830
10761SOL    HW134180   5.245   9.780   7.787
10761SOL    HW234181   5.346   9.873   7.850
10762SOL     OW34182   7.392   8.703  13.693
10762SOL    HW134183   7.450   8.770  13.658
10762SOL    HW234184   7.435   8.620  13.671
10763SOL     OW34185   5.931   8.858  12.840
10763SOL    HW134186   5.886   8.795  12.896
10763SOL    HW234187   5.999   8.807  12.796
10764SOL     OW34188  11.747   2.572   4.635
10764SOL    HW134189  11.664   2.620   4.630
10764SOL    HW234190  11.741   2.522   4.716
10765SOL     OW34191   3.274  11.315   3.286
10765SOL    HW134192   3.226  11.260   3.348
10765SOL    HW234193   3.211  11.333   3.216
10766SOL     OW34194   0.246  12.995   3.324
10766SOL    HW134195   0.211  12.941   3.395
10766SOL    HW234196   0.263  13.080   3.365
10767SOL     OW34197  14.741  10.692   9.183
10767SOL    HW134198  14.772  10.613   9.227
10767SOL    HW234199  14.800  10.703   9.109
10768SOL     OW34200   1.246   9.071  12.040
10768SOL    HW134201   1.338   9.060  12.062
10768SOL    HW234202   1.201   9.008  12.096
10769SOL     OW34203  10.885   5.487   4.919
10769SOL    HW134204  10.958   5.434   4.951
10769SOL    HW234205  10.866   5.452   4.832
10770SOL     OW34206   1.069   8.797  11.654
10770SOL    HW134207   1.110   8.811  11.568
10770SOL    HW234208   1.016   8.718  11.643
10771SOL     OW34209   7.114  14.523  10.235
10771SOL    HW134210   7.076  14.436  10.230
10771SOL    HW234211   7.042  14.579  10.263
10772SOL     OW34212   1.100   9.660   1.756
10772SOL    HW134213   1.157   9.721   1.709
10772SOL    HW234214   1.156   9.623   1.824
10773SOL     OW34215   4.742   7.627   0.871
10773SOL    HW134216   4.742   7.627   0.967
10773SOL    HW234217   4.776   7.713   0.847
10774SOL     OW34218  10.847   2.866  11.399
10774SOL    HW134219  10.909   2.793  11.402
10774SOL    HW234220  10.765   2.826  11.370
10775SOL     OW34221   7.529  12.119   8.695
10775SOL    HW134222   7.452  12.081   8.737
10775SOL    HW234223   7.542  12.067   8.616
10776SOL     OW34224   2.437   1.903  10.844
10776SOL    HW134225   2.460   1.857  10.925
10776SOL    HW234226   2.399   1.986  10.874
10777SOL     OW34227   0.868   0.764  11.201
10777SOL    HW134228   0.796   0.805  11.152
10777SOL    HW234229   0.941   0.762  11.139
10778SOL     OW34230   8.487   1.216  10.442
10778SOL    HW134231   8.512   1.172  10.523
10778SOL    HW234232   8.392   1.225  10.448
10779SOL     OW34233   8.677   9.129   0.958
10779SOL    HW134234   8.685   9.038   0.927
10779SOL    HW234235   8.582   9.142   0.967
10780SOL     OW34236   4.586   2.135   4.796
10780SOL    HW134237   4.663   2.191   4.802
10780SOL    HW234238   4.522   2.176   4.854
10781SOL     OW34239   1.537   3.055  14.848
10781SOL    HW134240   1.564   3.035   0.062
10781SOL    HW234241   1.619   3.071  14.801
10782SOL     OW34242  13.833   1.962   7.403
10782SOL    HW134243  13.896   1.968   7.331
10782SOL    HW234244  13.886   1.941   7.480
10783SOL     OW34245   8.652   8.626   4.424
10783SOL    HW134246   8.559   8.604   4.425
10783SOL    HW234247   8.696   8.546   4.454
10784SOL     OW34248  13.468   3.150   0.280
10784SOL    HW134249  13.530   3.078   0.290
10784SOL    HW234250  13.417   3.149   0.361
10785SOL     OW34251   9.807   4.779  10.717
10785SOL    HW134252   9.753   4.840  10.667
10785SOL    HW234253   9.788   4.798  10.808
10786SOL     OW34254   0.510  10.692   5.528
10786SOL    HW134255   0.586  10.746   5.552
10786SOL    HW234256   0.435  10.745   5.553
10787SOL     OW34257  13.301  12.870  12.423
10787SOL    HW134258  13.287  12.955  12.465
10787SOL    HW234259  13.218  12.823  12.433
10788SOL     OW34260   5.138   4.442   2.516
10788SOL    HW134261   5.151   4.415   2.607
10788SOL    HW234262   5.177   4.371   2.465
10789SOL     OW34263  14.538   7.000   6.576
10789SOL    HW134264  14.616   7.049   6.603
10789SOL    HW234265  14.567   6.908   6.576
10790SOL     OW34266   4.402   3.360  13.367
10790SOL    HW134267   4.416   3.266  13.356
10790SOL    HW234268   4.311   3.374  13.340
10791SOL     OW34269   4.810  14.477   5.378
10791SOL    HW134270   4.746  14.408   5.400
10791SOL    HW234271   4.806  14.483   5.282
10792SOL     OW34272   3.773   6.258  13.544
10792SOL    HW134273   3.832   6.214  13.483
10792SOL    HW234274   3.796   6.351  13.537
10793SOL     OW34275   2.723  10.334   7.379
10793SOL    HW134276   2.682  10.264   7.328
10793SOL    HW234277   2.695  10.318   7.469
10794SOL     OW34278   6.912   2.907   9.372
10794SOL    HW134279   6.919   2.881   9.464
10794SOL    HW234280   6.830   2.956   9.366
10795SOL     OW34281   2.214   6.779   2.367
10795SOL    HW134282   2.234   6.871   2.346
10795SOL    HW234283   2.300   6.736   2.369
10796SOL     OW34284  11.724   4.101  14.858
10796SOL    HW134285  11.748   4.028  14.800
10796SOL    HW234286  11.753   4.179  14.811
10797SOL     OW34287   0.822   6.150   8.874
10797SOL    HW134288   0.811   6.057   8.857
10797SOL    HW234289   0.861   6.154   8.961
10798SOL     OW34290   8.103   6.029   5.715
10798SOL    HW134291   8.164   6.027   5.789
10798SOL    HW234292   8.060   5.943   5.718
10799SOL     OW34293   7.196   0.972  13.868
10799SOL    HW134294   7.160   0.886  13.847
10799SOL    HW234295   7.148   1.033  13.812
10800SOL     OW34296   3.413  11.631   0.441
10800SOL    HW134297   3.340  11.569   0.439
10800SOL    HW234298   3.410  11.668   0.530
10801SOL     OW34299   3.291  14.638  10.808
10801SOL    HW134300   3.367  14.636  10.868
10801SOL    HW234301   3.274  14.731  10.795
10802SOL     OW34302  11.202  14.036   9.164
10802SOL    HW134303  11.176  13.964   9.221
10802SOL    HW234304  11.183  14.115   9.215
10803SOL     OW34305  11.159   3.463  13.452
10803SOL    HW134306  11.210   3.486  13.530
10803SOL    HW234307  11.187   3.374  13.430
10804SOL     OW34308  10.568   3.275   5.829
10804SOL    HW134309  10.516   3.198   5.854
10804SOL    HW234310  10.534   3.346   5.883
10805SOL     OW34311  10.426  11.980   9.702
10805SOL    HW134312  10.459  11.987   9.791
10805SOL    HW234313  10.339  12.021   9.705
10806SOL     OW34314   7.832   3.024   9.998
10806SOL    HW134315   7.814   2.997  10.088
10806SOL    HW234316   7.815   3.118   9.997
10807SOL     OW34317   6.734   2.808   8.304
10807SOL    HW134318   6.681   2.829   8.227
10807SOL    HW234319   6.687   2.736   8.347
10808SOL     OW34320  13.227   6.072  11.582
10808SOL    HW134321  13.322   6.081  11.591
10808SOL    HW234322  13.192   6.157  11.609
10809SOL     OW34323   5.444   5.668  10.274
10809SOL    HW134324   5.455   5.685  10.180
10809SOL    HW234325   5.393   5.743  10.306
10810SOL     OW34326   0.409   5.989  11.823
10810SOL    HW134327   0.429   6.071  11.868
10810SOL    HW234328   0.487   5.970  11.772
10811SOL     OW34329   5.903  10.662   1.038
10811SOL    HW134330   5.842  10.716   0.988
10811SOL    HW234331   5.967  10.631   0.974
10812SOL     OW34332  12.802   9.523   3.634
10812SOL    HW134333  12.746   9.541   3.710
10812SOL    HW234334  12.887   9.501   3.672
10813SOL     OW34335  11.519   4.055   7.930
10813SOL    HW134336  11.532   4.010   7.846
10813SOL    HW234337  11.470   4.134   7.908
10814SOL     OW34338  13.769  12.986   9.756
10814SOL    HW134339  13.813  13.010   9.675
10814SOL    HW234340  13.734  12.898   9.740
10815SOL     OW34341   7.980   1.896   7.398
10815SOL    HW134342   8.011   1.875   7.487
10815SOL    HW234343   7.897   1.850   7.390
10816SOL     OW34344   0.656  13.413   6.200
10816SOL    HW134345   0.571  13.411   6.156
10816SOL    HW234346   0.717  13.443   6.132
10817SOL     OW34347   0.677   0.375   4.841
10817SOL    HW134348   0.686   0.283   4.817
10817SOL    HW234349   0.697   0.423   4.761
10818SOL     OW34350   1.727   1.458  12.481
10818SOL    HW134351   1.651   1.446  12.538
10818SOL    HW234352   1.703   1.415  12.399
10819SOL     OW34353   3.347   6.063   8.736
10819SOL    HW134354   3.418   6.023   8.687
10819SOL    HW234355   3.351   6.022   8.822
10820SOL     OW34356  12.151   2.327  11.974
10820SOL    HW134357  12.162   2.274  11.895
10820SOL    HW234358  12.098   2.273  12.032
10821SOL     OW34359  14.684   5.383   5.340
10821SOL    HW134360  14.635   5.455   5.300
10821SOL    HW234361  14.772   5.391   5.305
10822SOL     OW34362   6.325   8.773   1.140
10822SOL    HW134363   6.399   8.792   1.197
10822SOL    HW234364   6.270   8.851   1.144
10823SOL     OW34365  14.174  12.419   0.328
10823SOL    HW134366  14.244  12.485   0.323
10823SOL    HW234367  14.184  12.380   0.414
10824SOL     OW34368   5.253   0.663   7.151
10824SOL    HW134369   5.244   0.623   7.065
10824SOL    HW234370   5.200   0.608   7.209
10825SOL     OW34371   8.101  11.779  13.733
10825SOL    HW134372   8.016  11.753  13.698
10825SOL    HW234373   8.109  11.730  13.815
10826SOL     OW34374  10.428   2.055   0.917
10826SOL    HW134375  10.464   1.978   0.959
10826SOL    HW234376  10.358   2.021   0.860
10827SOL     OW34377  14.566   3.706   1.223
10827SOL    HW134378  14.475   3.732   1.234
10827SOL    HW234379  14.607   3.721   1.308
10828SOL     OW34380   7.552   4.150  13.515
10828SOL    HW134381   7.539   4.244  13.525
10828SOL    HW234382   7.470   4.118  13.477
10829SOL     OW34383   5.957  12.349   1.675
10829SOL    HW134384   6.045  12.384   1.693
10829SOL    HW234385   5.909  12.424   1.641
10830SOL     OW34386   6.928  10.034   7.744
10830SOL    HW134387   6.832  10.035   7.751
10830SOL    HW234388   6.946  10.069   7.657
10831SOL     OW34389  11.736   8.040   0.006
10831SOL    HW134390  11.651   8.042  14.837
10831SOL    HW234391  11.717   8.005   0.093
10832SOL     OW34392   4.359   5.974  11.346
10832SOL    HW134393   4.438   5.921  11.339
10832SOL    HW234394   4.332   5.989  11.256
10833SOL     OW34395  12.493   4.536   7.951
10833SOL    HW134396  12.567   4.546   8.010
10833SOL    HW234397  12.416   4.556   8.005
10834SOL     OW34398   9.213  13.877  13.060
10834SOL    HW134399   9.277  13.818  13.100
10834SOL    HW234400   9.197  13.839  12.974
10835SOL     OW34401  12.372   9.211   2.483
10835SOL    HW134402  12.408   9.180   2.400
10835SOL    HW234403  12.358   9.131   2.535
10836SOL     OW34404   7.868   7.965  11.267
10836SOL    HW134405   7.864   7.877  11.230
10836SOL    HW234406   7.923   7.956  11.345
10837SOL     OW34407  13.313  11.175   3.661
10837SOL    HW134408  13.355  11.161   3.746
10837SOL    HW234409  13.220  11.185   3.681
10838SOL     OW34410   7.480   3.276  13.672
10838SOL    HW134411   7.423   3.331  13.726
10838SOL    HW234412   7.470   3.188  13.709
10839SOL     OW34413  13.074   8.857   9.598
10839SOL    HW134414  13.128   8.933   9.577
10839SOL    HW234415  13.014   8.889   9.666
10840SOL     OW34416   1.853   2.895   0.686
10840SOL    HW134417   1.847   2.939   0.771
10840SOL    HW234418   1.828   2.805   0.704
10841SOL     OW34419   1.882   0.485  10.378
10841SOL    HW134420   1.831   0.516  10.304
10841SOL    HW234421   1.973   0.489  10.347
10842SOL     OW34422   3.910  12.066   3.490
10842SOL    HW134423   3.890  12.018   3.410
10842SOL    HW234424   3.877  12.155   3.473
10843SOL     OW34425   8.716   9.295   9.381
10843SOL    HW134426   8.727   9.343   9.299
10843SOL    HW234427   8.681   9.210   9.354
10844SOL     OW34428   3.903   7.606  11.326
10844SOL    HW134429   3.953   7.677  11.286
10844SOL    HW234430   3.833   7.651  11.375
10845SOL     OW34431  11.187   5.007   9.896
10845SOL    HW134432  11.206   5.021   9.803
10845SOL    HW234433  11.241   4.932   9.920
10846SOL     OW34434  13.693   1.629   3.278
10846SOL    HW134435  13.627   1.699   3.284
10846SOL    HW234436  13.656   1.557   3.330
10847SOL     OW34437   1.649   4.250   4.858
10847SOL    HW134438   1.635   4.216   4.947
10847SOL    HW234439   1.725   4.202   4.825
10848SOL     OW34440   8.281   3.722   8.916
10848SOL    HW134441   8.316   3.758   8.834
10848SOL    HW234442   8.343   3.750   8.983
10849SOL     OW34443   8.469   2.447  13.514
10849SOL    HW134444   8.383   2.408  13.529
10849SOL    HW234445   8.531   2.384  13.551
10850SOL     OW34446  10.735   2.290  14.163
10850SOL    HW134447  10.640   2.299  14.170
10850SOL    HW234448  10.755   2.218  14.223
10851SOL     OW34449   7.710   5.322   9.797
10851SOL    HW134450   7.766   5.351   9.869
10851SOL    HW234451   7.710   5.227   9.803
10852SOL     OW34452   2.926   8.894   7.991
10852SOL    HW134453   2.845   8.936   7.963
10852SOL    HW234454   2.944   8.828   7.924
10853SOL     OW34455  14.472   9.655   5.621
10853SOL    HW134456  14.465   9.565   5.590
10853SOL    HW234457  14.508   9.647   5.710
10854SOL     OW34458   7.967  11.611   9.858
10854SOL    HW134459   7.901  11.619   9.789
10854SOL    HW234460   8.030  11.681   9.839
10855SOL     OW34461   3.085  13.215   6.828
10855SOL    HW134462   3.133  13.293   6.853
10855SOL    HW234463   3.042  13.239   6.746
10856SOL     OW34464   9.568   8.713  10.242
10856SOL    HW134465   9.565   8.631  10.292
10856SOL    HW234466   9.517   8.694  10.163
10857SOL     OW34467  11.703  10.988   3.818
10857SOL    HW134468  11.754  10.907   3.827
10857SOL    HW234469  11.706  11.028   3.905
10858SOL     OW34470   9.030   4.026   3.736
10858SOL    HW134471   9.115   4.013   3.779
10858SOL    HW234472   8.969   4.042   3.808
10859SOL     OW34473  13.582  12.283   1.552
10859SOL    HW134474  13.525  12.343   1.505
10859SOL    HW234475  13.667  12.327   1.555
10860SOL     OW34476   5.657   7.934  12.318
10860SOL    HW134477   5.686   8.016  12.278
10860SOL    HW234478   5.678   7.867  12.252
10861SOL     OW34479   6.416  13.343  14.182
10861SOL    HW134480   6.372  13.418  14.142
10861SOL    HW234481   6.415  13.361  14.276
10862SOL     OW34482  10.789  13.681   2.956
10862SOL    HW134483  10.709  13.699   2.907
10862SOL    HW234484  10.764  13.690   3.048
10863SOL     OW34485   7.649  13.032   4.508
10863SOL    HW134486   7.652  13.128   4.512
10863SOL    HW234487   7.739  13.005   4.528
10864SOL     OW34488  12.774   9.991   0.838
10864SOL    HW134489  12.724  10.021   0.762
10864SOL    HW234490  12.710   9.989   0.909
10865SOL     OW34491  12.056  11.985   1.267
10865SOL    HW134492  12.124  12.043   1.303
10865SOL    HW234493  12.102  11.934   1.201
10866SOL     OW34494  13.905  14.022   1.759
10866SOL    HW134495  13.983  13.974   1.786
10866SOL    HW234496  13.842  13.954   1.734
10867SOL     OW34497  14.844   4.137   8.431
10867SOL    HW134498  14.845   4.099   8.519
10867SOL    HW234499  14.755   4.119   8.398
10868SOL     OW34500   9.486   1.978   4.922
10868SOL    HW134501   9.467   1.910   4.987
10868SOL    HW234502   9.575   1.960   4.893
10869SOL     OW34503   4.684   7.368   5.219
10869SOL    HW134504   4.670   7.454   5.178
10869SOL    HW234505   4.779   7.355   5.213
10870SOL     OW34506   9.729   6.838   4.925
10870SOL    HW134507   9.769   6.775   4.865
10870SOL    HW234508   9.645   6.860   4.884
10871SOL     OW34509   5.270   3.904   4.450
10871SOL    HW134510   5.285   3.815   4.419
10871SOL    HW234511   5.175   3.911   4.458
10872SOL     OW34512  13.818  14.204  11.287
10872SOL    HW134513  13.724  14.221  11.292
10872SOL    HW234514  13.843  14.183  11.377
10873SOL     OW34515   6.603  14.025  11.276
10873SOL    HW134516   6.551  14.031  11.196
10873SOL    HW234517   6.676  13.968  11.253
10874SOL     OW34518   8.257  13.984   9.954
10874SOL    HW134519   8.228  14.074   9.971
10874SOL    HW234520   8.198  13.929  10.005
10875SOL     OW34521  11.372  14.688  12.686
10875SOL    HW134522  11.323  14.664  12.765
10875SOL    HW234523  11.342  14.776  12.665
10876SOL     OW34524   6.404  12.598  13.438
10876SOL    HW134525   6.363  12.556  13.362
10876SOL    HW234526   6.472  12.538  13.465
10877SOL     OW34527   8.016  13.278   4.066
10877SOL    HW134528   8.045  13.300   4.154
10877SOL    HW234529   8.096  13.257   4.018
10878SOL     OW34530  10.264   8.695   8.784
10878SOL    HW134531  10.183   8.673   8.737
10878SOL    HW234532  10.334   8.676   8.721
10879SOL     OW34533  13.252   6.489  13.230
10879SOL    HW134534  13.192   6.533  13.290
10879SOL    HW234535  13.265   6.402  13.269
10880SOL     OW34536   4.927   2.315  14.290
10880SOL    HW134537   4.978   2.374  14.236
10880SOL    HW234538   4.992   2.257  14.331
10881SOL     OW34539  10.204   9.101   9.375
10881SOL    HW134540  10.147   9.036   9.336
10881SOL    HW234541  10.145   9.163   9.417
10882SOL     OW34542   9.322  11.976  12.610
10882SOL    HW134543   9.294  11.903  12.556
10882SOL    HW234544   9.371  12.033  12.550
10883SOL     OW34545  13.941   0.577  10.949
10883SOL    HW134546  13.923   0.654  11.003
10883SOL    HW234547  14.022   0.541  10.985
10884SOL     OW34548   1.054  10.300  10.150
10884SOL    HW134549   0.972  10.335  10.184
10884SOL    HW234550   1.079  10.361  10.080
10885SOL     OW34551   8.441   9.219   4.059
10885SOL    HW134552   8.437   9.312   4.036
10885SOL    HW234553   8.350   9.196   4.079
10886SOL     OW34554   3.971  12.455   1.111
10886SOL    HW134555   4.049  12.401   1.098
10886SOL    HW234556   3.953  12.450   1.205
10887SOL     OW34557   8.154  12.782  14.794
10887SOL    HW134558   8.135  12.739   0.003
10887SOL    HW234559   8.137  12.874  14.810
10888SOL     OW34560   6.667  13.622   1.012
10888SOL    HW134561   6.650  13.542   1.062
10888SOL    HW234562   6.743  13.601   0.958
10889SOL     OW34563   9.383  10.287   2.438
10889SOL    HW134564   9.425  10.201   2.443
10889SOL    HW234565   9.293  10.268   2.411
10890SOL     OW34566   8.979   8.720  11.665
10890SOL    HW134567   9.023   8.718  11.750
10890SOL    HW234568   8.979   8.629  11.636
10891SOL     OW34569  11.181   6.390  10.664
10891SOL    HW134570  11.243   6.350  10.602
10891SOL    HW234571  11.234   6.452  10.714
10892SOL     OW34572   3.379   8.822   2.577
10892SOL    HW134573   3.367   8.913   2.604
10892SOL    HW234574   3.344   8.819   2.488
10893SOL     OW34575   3.737   2.977   9.221
10893SOL    HW134576   3.826   2.992   9.189
10893SOL    HW234577   3.721   2.885   9.203
10894SOL     OW34578   3.365   7.336   7.146
10894SOL    HW134579   3.425   7.263   7.139
10894SOL    HW234580   3.421   7.413   7.158
10895SOL     OW34581   1.982   7.801   6.598
10895SOL    HW134582   2.033   7.783   6.519
10895SOL    HW234583   1.990   7.722   6.650
10896SOL     OW34584   9.538   9.870  10.057
10896SOL    HW134585   9.541   9.918   9.974
10896SOL    HW234586   9.461   9.812  10.048
10897SOL     OW34587  14.335  14.262   8.340
10897SOL    HW134588  14.352  14.241   8.249
10897SOL    HW234589  14.416  14.303   8.371
10898SOL     OW34590  14.660   8.191  13.424
10898SOL    HW134591  14.593   8.206  13.357
10898SOL    HW234592  14.619   8.222  13.505
10899SOL     OW34593   5.311   0.202   4.368
10899SOL    HW134594   5.220   0.208   4.397
10899SOL    HW234595   5.321   0.112   4.338
10900SOL     OW34596   5.534   1.487  12.705
10900SOL    HW134597   5.620   1.499  12.744
10900SOL    HW234598   5.477   1.546  12.755
10901SOL     OW34599   8.776   6.339   4.798
10901SOL    HW134600   8.736   6.253   4.809
10901SOL    HW234601   8.840   6.327   4.728
10902SOL     OW34602   8.350  13.329   8.933
10902SOL    HW134603   8.405  13.251   8.941
10902SOL    HW234604   8.359  13.373   9.018
10903SOL     OW34605   7.259   7.923   6.827
10903SOL    HW134606   7.275   8.010   6.862
10903SOL    HW234607   7.282   7.929   6.734
10904SOL     OW34608   6.891  10.799  13.456
10904SOL    HW134609   6.915  10.751  13.377
10904SOL    HW234610   6.796  10.803  13.453
10905SOL     OW34611   1.117   5.169   7.490
10905SOL    HW134612   1.136   5.075   7.496
10905SOL    HW234613   1.028   5.178   7.523
10906SOL     OW34614   6.466  12.807  13.622
10906SOL    HW134615   6.431  12.742  13.562
10906SOL    HW234616   6.452  12.771  13.709
10907SOL     OW34617   6.726   3.764   0.866
10907SOL    HW134618   6.778   3.731   0.793
10907SOL    HW234619   6.741   3.858   0.865
10908SOL     OW34620   8.327   4.026  11.679
10908SOL    HW134621   8.360   4.113  11.700
10908SOL    HW234622   8.405   3.971  11.677
10909SOL     OW34623  13.548   3.515   2.252
10909SOL    HW134624  13.543   3.423   2.280
10909SOL    HW234625  13.511   3.516   2.164
10910SOL     OW34626  13.041  11.826   2.434
10910SOL    HW134627  12.965  11.777   2.466
10910SOL    HW234628  13.007  11.915   2.419
10911SOL     OW34629   4.790   0.791   5.534
10911SOL    HW134630   4.759   0.724   5.594
10911SOL    HW234631   4.879   0.763   5.510
10912SOL     OW34632   7.619  12.196   8.298
10912SOL    HW134633   7.658  12.174   8.383
10912SOL    HW234634   7.691  12.238   8.250
10913SOL     OW34635  13.133   2.694   2.790
10913SOL    HW134636  13.205   2.727   2.736
10913SOL    HW234637  13.055   2.709   2.736
10914SOL     OW34638  14.368  10.050   8.515
10914SOL    HW134639  14.282  10.076   8.550
10914SOL    HW234640  14.391  10.119   8.454
10915SOL     OW34641   8.477   9.205   0.084
10915SOL    HW134642   8.474   9.133   0.021
10915SOL    HW234643   8.414   9.180   0.151
10916SOL     OW34644  14.691   4.259   5.943
10916SOL    HW134645  14.649   4.336   5.981
10916SOL    HW234646  14.708   4.282   5.852
10917SOL     OW34647   0.497  11.264  10.821
10917SOL    HW134648   0.452  11.191  10.779
10917SOL    HW234649   0.582  11.269  10.777
10918SOL     OW34650   6.388   6.806   1.169
10918SOL    HW134651   6.407   6.757   1.089
10918SOL    HW234652   6.384   6.898   1.140
10919SOL     OW34653   8.309   8.430   5.791
10919SOL    HW134654   8.357   8.360   5.746
10919SOL    HW234655   8.367   8.455   5.863
10920SOL     OW34656   1.337   4.178   7.275
10920SOL    HW134657   1.248   4.200   7.301
10920SOL    HW234658   1.389   4.188   7.355
10921SOL     OW34659   0.538   0.890   7.467
10921SOL    HW134660   0.481   0.901   7.543
10921SOL    HW234661   0.529   0.973   7.418
10922SOL     OW34662  12.065   7.191   2.874
10922SOL    HW134663  12.082   7.179   2.968
10922SOL    HW234664  12.138   7.245   2.844
10923SOL     OW34665  11.737   2.531   6.444
10923SOL    HW134666  11.657   2.531   6.496
10923SOL    HW234667  11.777   2.617   6.462
10924SOL     OW34668   5.092   3.641   0.430
10924SOL    HW134669   5.091   3.726   0.388
10924SOL    HW234670   5.182   3.610   0.421
10925SOL     OW34671   2.314   2.174   8.334
10925SOL    HW134672   2.339   2.117   8.407
10925SOL    HW234673   2.392   2.227   8.317
10926SOL     OW34674   2.302   4.606  13.602
10926SOL    HW134675   2.215   4.638  13.626
10926SOL    HW234676   2.337   4.674  13.545
10927SOL     OW34677  14.501   2.205  12.667
10927SOL    HW134678  14.450   2.142  12.617
10927SOL    HW234679  14.490   2.288  12.620
10928SOL     OW34680  14.122  11.459  11.656
10928SOL    HW134681  14.098  11.382  11.604
10928SOL    HW234682  14.039  11.502  11.675
10929SOL     OW34683   9.188  14.199   0.132
10929SOL    HW134684   9.110  14.246   0.104
10929SOL    HW234685   9.166  14.162   0.217
10930SOL     OW34686   8.828  11.208   7.388
10930SOL    HW134687   8.752  11.167   7.346
10930SOL    HW234688   8.791  11.262   7.457
10931SOL     OW34689   0.485   8.126   6.268
10931SOL    HW134690   0.516   8.115   6.358
10931SOL    HW234691   0.564   8.139   6.216
10932SOL     OW34692   1.858   1.892  13.666
10932SOL    HW134693   1.850   1.806  13.707
10932SOL    HW234694   1.885   1.950  13.737
10933SOL     OW34695   2.076   5.427   5.648
10933SOL    HW134696   2.131   5.491   5.603
10933SOL    HW234697   1.989   5.465   5.648
10934SOL     OW34698   0.023   2.819  11.762
10934SOL    HW134699   0.040   2.828  11.669
10934SOL    HW234700  14.826   2.880  11.779
10935SOL     OW34701   2.751   2.632   9.626
10935SOL    HW134702   2.674   2.599   9.673
10935SOL    HW234703   2.777   2.709   9.675
10936SOL     OW34704   4.827   7.017  11.445
10936SOL    HW134705   4.910   7.058  11.468
10936SOL    HW234706   4.843   6.923  11.456
10937SOL     OW34707   9.309  11.821  13.338
10937SOL    HW134708   9.307  11.917  13.335
10937SOL    HW234709   9.225  11.797  13.377
10938SOL     OW34710  11.306   3.487   7.505
10938SOL    HW134711  11.237   3.543   7.541
10938SOL    HW234712  11.387   3.536   7.518
10939SOL     OW34713   0.939   2.590  14.874
10939SOL    HW134714   1.011   2.589  14.811
10939SOL    HW234715   0.981   2.608   0.083
10940SOL     OW34716  12.416   2.845   2.916
10940SOL    HW134717  12.361   2.907   2.962
10940SOL    HW234718  12.452   2.789   2.984
10941SOL     OW34719   1.893   0.833  12.295
10941SOL    HW134720   1.847   0.885  12.361
10941SOL    HW234721   1.895   0.888  12.217
10942SOL     OW34722   4.723   2.026  11.692
10942SOL    HW134723   4.818   2.016  11.702
10942SOL    HW234724   4.687   1.940  11.714
10943SOL     OW34725   1.828   0.910   7.716
10943SOL    HW134726   1.900   0.857   7.682
10943SOL    HW234727   1.801   0.965   7.642
10944SOL     OW34728   2.085   6.626   7.544
10944SOL    HW134729   2.025   6.687   7.588
10944SOL    HW234730   2.168   6.637   7.591
10945SOL     OW34731  12.027   0.459   1.525
10945SOL    HW134732  11.962   0.398   1.490
10945SOL    HW234733  12.091   0.468   1.454
10946SOL     OW34734   4.347   0.909   8.960
10946SOL    HW134735   4.305   0.827   8.937
10946SOL    HW234736   4.382   0.942   8.877
10947SOL     OW34737  13.558   7.985  13.085
10947SOL    HW134738  13.581   8.074  13.111
10947SOL    HW234739  13.617   7.967  13.011
10948SOL     OW34740   2.326  11.393   8.749
10948SOL    HW134741   2.263  11.344   8.801
10948SOL    HW234742   2.385  11.433   8.813
10949SOL     OW34743   4.209   0.659  10.212
10949SOL    HW134744   4.217   0.708  10.294
10949SOL    HW234745   4.295   0.619  10.200
10950SOL     OW34746   7.932   8.484   1.257
10950SOL    HW134747   7.922   8.502   1.163
10950SOL    HW234748   8.000   8.418   1.262
10951SOL     OW34749   7.028  11.605  14.000
10951SOL    HW134750   7.107  11.552  13.998
10951SOL    HW234751   6.961  11.547  14.036
10952SOL     OW34752  10.268  13.714   6.683
10952SOL    HW134753  10.223  13.754   6.757
10952SOL    HW234754  10.199  13.687   6.624
10953SOL     OW34755   5.986   3.949   9.352
10953SOL    HW134756   5.962   3.899   9.274
10953SOL    HW234757   6.073   3.984   9.331
10954SOL     OW34758  12.783   4.206   7.564
10954SOL    HW134759  12.691   4.181   7.577
10954SOL    HW234760  12.780   4.270   7.493
10955SOL     OW34761  11.012  12.735   3.271
10955SOL    HW134762  10.942  12.674   3.248
10955SOL    HW234763  10.968  12.805   3.320
10956SOL     OW34764   1.310   0.349   7.870
10956SOL    HW134765   1.342   0.422   7.819
10956SOL    HW234766   1.357   0.273   7.836
10957SOL     OW34767  12.519   9.794   4.812
10957SOL    HW134768  12.506   9.703   4.837
10957SOL    HW234769  12.476   9.844   4.881
10958SOL     OW34770   9.556   9.405  14.505
10958SOL    HW134771   9.559   9.434  14.414
10958SOL    HW234772   9.499   9.328  14.503
10959SOL     OW34773  12.559  10.107  13.277
10959SOL    HW134774  12.632  10.056  13.311
10959SOL    HW234775  12.507  10.045  13.226
10960SOL     OW34776  14.125   6.383   3.762
10960SOL    HW134777  14.092   6.294   3.773
10960SOL    HW234778  14.207   6.385   3.812
10961SOL     OW34779  11.562   1.135  13.818
10961SOL    HW134780  11.633   1.083  13.856
10961SOL    HW234781  11.537   1.087  13.739
10962SOL     OW34782   4.899  12.223  12.263
10962SOL    HW134783   4.886  12.307  12.308
10962SOL    HW234784   4.962  12.177  12.318
10963SOL     OW34785   9.809  11.468   7.578
10963SOL    HW134786   9.781  11.517   7.500
10963SOL    HW234787   9.872  11.404   7.545
10964SOL     OW34788   4.141   0.873  12.715
10964SOL    HW134789   4.092   0.792  12.734
10964SOL    HW234790   4.087   0.943  12.752
10965SOL     OW34791   6.269   5.982   9.953
10965SOL    HW134792   6.333   6.028  10.008
10965SOL    HW234793   6.296   5.890   9.957
10966SOL     OW34794  13.015   2.942  13.245
10966SOL    HW134795  13.043   2.868  13.190
10966SOL    HW234796  12.932   2.914  13.283
10967SOL     OW34797  12.734   4.309   7.306
10967SOL    HW134798  12.686   4.340   7.230
10967SOL    HW234799  12.820   4.284   7.272
10968SOL     OW34800   7.695   5.778   7.742
10968SOL    HW134801   7.682   5.849   7.804
10968SOL    HW234802   7.666   5.700   7.789
10969SOL     OW34803   3.471   3.388   4.320
10969SOL    HW134804   3.455   3.452   4.390
10969SOL    HW234805   3.441   3.431   4.241
10970SOL     OW34806   2.435   9.727   2.745
10970SOL    HW134807   2.485   9.676   2.681
10970SOL    HW234808   2.345   9.724   2.714
10971SOL     OW34809  13.854  11.300  12.307
10971SOL    HW134810  13.884  11.246  12.234
10971SOL    HW234811  13.925  11.296  12.371
10972SOL     OW34812   9.988   8.388   4.946
10972SOL    HW134813  10.044   8.313   4.925
10972SOL    HW234814  10.011   8.412   5.036
10973SOL     OW34815  12.262  11.922   6.495
10973SOL    HW134816  12.170  11.947   6.491
10973SOL    HW234817  12.303  11.970   6.423
10974SOL     OW34818  10.312  11.169  12.132
10974SOL    HW134819  10.323  11.219  12.052
10974SOL    HW234820  10.293  11.234  12.199
10975SOL     OW34821   2.860   5.546   9.501
10975SOL    HW134822   2.800   5.554   9.427
10975SOL    HW234823   2.933   5.494   9.466
10976SOL     OW34824   9.050  11.359  11.522
10976SOL    HW134825   9.105  11.281  11.531
10976SOL    HW234826   8.961  11.327  11.521
10977SOL     OW34827  14.726   8.105   8.633
10977SOL    HW134828  14.820   8.094   8.624
10977SOL    HW234829  14.702   8.049   8.707
10978SOL     OW34830   6.151  10.396  14.299
10978SOL    HW134831   6.138  10.451  14.221
10978SOL    HW234832   6.215  10.330  14.270
10979SOL     OW34833   1.671   1.354   1.896
10979SOL    HW134834   1.625   1.271   1.907
10979SOL    HW234835   1.738   1.336   1.830
10980SOL     OW34836   5.522   2.814   3.982
10980SOL    HW134837   5.497   2.738   3.930
10980SOL    HW234838   5.513   2.888   3.922
10981SOL     OW34839  11.513  12.799   2.844
10981SOL    HW134840  11.529  12.825   2.753
10981SOL    HW234841  11.600  12.777   2.877
10982SOL     OW34842  12.860   8.304  12.723
10982SOL    HW134843  12.886   8.341  12.639
10982SOL    HW234844  12.860   8.379  12.784
10983SOL     OW34845   5.548   8.084   5.813
10983SOL    HW134846   5.563   8.152   5.879
10983SOL    HW234847   5.626   8.088   5.757
10984SOL     OW34848   4.753   1.547   2.937
10984SOL    HW134849   4.792   1.603   2.870
10984SOL    HW234850   4.700   1.484   2.888
10985SOL     OW34851   8.909   9.015   5.613
10985SOL    HW134852   8.962   9.038   5.689
10985SOL    HW234853   8.819   9.037   5.639
10986SOL     OW34854   0.046   1.956   0.172
10986SOL    HW134855   0.030   2.048   0.152
10986SOL    HW234856   0.110   1.958   0.243
10987SOL     OW34857   1.273   0.203   3.944
10987SOL    HW134858   1.369   0.202   3.941
10987SOL    HW234859   1.245   0.152   3.868
10988SOL     OW34860   3.639   6.210  11.723
10988SOL    HW134861   3.629   6.279  11.789
10988SOL    HW234862   3.660   6.258  11.642
10989SOL     OW34863  10.296   7.292   4.532
10989SOL    HW134864  10.275   7.280   4.439
10989SOL    HW234865  10.278   7.385   4.549
10990SOL     OW34866  11.729   8.808   9.426
10990SOL    HW134867  11.689   8.895   9.428
10990SOL    HW234868  11.744   8.791   9.333
10991SOL     OW34869   9.109  12.167  12.685
10991SOL    HW134870   9.147  12.086  12.650
10991SOL    HW234871   9.130  12.234  12.620
10992SOL     OW34872  14.405   6.089  10.072
10992SOL    HW134873  14.333   6.029  10.053
10992SOL    HW234874  14.454   6.093   9.990
10993SOL     OW34875  13.260   8.577  13.444
10993SOL    HW134876  13.229   8.487  13.447
10993SOL    HW234877  13.251   8.603  13.352
10994SOL     OW34878  12.167   7.362  10.572
10994SOL    HW134879  12.102   7.329  10.634
10994SOL    HW234880  12.213   7.431  10.619
10995SOL     OW34881   9.291  11.380   3.930
10995SOL    HW134882   9.341  11.430   3.994
10995SOL    HW234883   9.275  11.296   3.971
10996SOL     OW34884   2.717   4.409  10.875
10996SOL    HW134885   2.668   4.482  10.838
10996SOL    HW234886   2.743   4.357  10.799
10997SOL     OW34887   1.325   8.868   1.869
10997SOL    HW134888   1.377   8.933   1.916
10997SOL    HW234889   1.235   8.901   1.874
10998SOL     OW34890   4.190   8.828   2.126
10998SOL    HW134891   4.172   8.891   2.056
10998SOL    HW234892   4.276   8.792   2.104
10999SOL     OW34893   5.119  14.752  10.165
10999SOL    HW134894   5.080  14.812  10.102
10999SOL    HW234895   5.046  14.704  10.202
11000SOL     OW34896   0.527  14.075  10.387
11000SOL    HW134897   0.568  14.158  10.411
11000SOL    HW234898   0.538  14.019  10.465
11001SOL     OW34899   3.651   4.239   8.308
11001SOL    HW134900   3.711   4.165   8.302
11001SOL    HW234901   3.672   4.294   8.232
11002SOL     OW34902   4.860  14.643   6.855
11002SOL    HW134903   4.829  14.674   6.770
11002SOL    HW234904   4.903  14.559   6.836
11003SOL     OW34905  14.327   5.127  12.031
11003SOL    HW134906  14.421   5.134  12.049
11003SOL    HW234907  14.307   5.204  11.978
11004SOL     OW34908   7.349   1.898  14.484
11004SOL    HW134909   7.355   1.850  14.567
11004SOL    HW234910   7.282   1.965  14.500
11005SOL     OW34911   4.648   2.353   9.532
11005SOL    HW134912   4.574   2.414   9.541
11005SOL    HW234913   4.644   2.323   9.441
11006SOL     OW34914   8.456   7.222   4.957
11006SOL    HW134915   8.399   7.144   4.953
11006SOL    HW234916   8.535   7.190   5.000
11007SOL     OW34917  12.950   2.556   2.028
11007SOL    HW134918  12.945   2.467   1.995
11007SOL    HW234919  12.958   2.611   1.950
11008SOL     OW34920   6.304  12.697   6.072
11008SOL    HW134921   6.342  12.762   6.012
11008SOL    HW234922   6.215  12.728   6.087
11009SOL     OW34923   1.309   7.265  14.401
11009SOL    HW134924   1.222   7.304  14.405
11009SOL    HW234925   1.326   7.253  14.308
11010SOL     OW34926   8.918  13.025   3.373
11010SOL    HW134927   8.941  13.019   3.466
11010SOL    HW234928   8.845  12.964   3.362
11011SOL     OW34929   5.425   7.736   9.471
11011SOL    HW134930   5.447   7.755   9.562
11011SOL    HW234931   5.332   7.755   9.464
11012SOL     OW34932  10.237   9.582   4.923
11012SOL    HW134933  10.311   9.642   4.927
11012SOL    HW234934  10.276   9.499   4.894
11013SOL     OW34935   2.837  13.059  11.460
11013SOL    HW134936   2.835  13.144  11.504
11013SOL    HW234937   2.746  13.044  11.433
11014SOL     OW34938   0.609   0.580   2.792
11014SOL    HW134939   0.519   0.591   2.825
11014SOL    HW234940   0.621   0.485   2.787
11015SOL     OW34941   2.795   9.805   6.573
11015SOL    HW134942   2.827   9.894   6.561
11015SOL    HW234943   2.722   9.813   6.634
11016SOL     OW34944   1.944   8.018   3.598
11016SOL    HW134945   1.850   8.004   3.611
11016SOL    HW234946   1.978   8.033   3.687
11017SOL     OW34947   2.332   2.730   9.571
11017SOL    HW134948   2.336   2.826   9.566
11017SOL    HW234949   2.402   2.706   9.632
11018SOL     OW34950   0.671  12.868   9.910
11018SOL    HW134951   0.711  12.949   9.878
11018SOL    HW234952   0.666  12.880  10.005
11019SOL     OW34953  13.429   8.749  10.097
11019SOL    HW134954  13.490   8.777  10.029
11019SOL    HW234955  13.449   8.656  10.110
11020SOL     OW34956   2.380   1.039   9.692
11020SOL    HW134957   2.296   1.060   9.730
11020SOL    HW234958   2.395   0.947   9.715
11021SOL     OW34959  10.803   8.513   7.272
11021SOL    HW134960  10.889   8.546   7.243
11021SOL    HW234961  10.748   8.520   7.195
11022SOL     OW34962   0.405   6.556   5.843
11022SOL    HW134963   0.472   6.539   5.777
11022SOL    HW234964   0.380   6.647   5.829
11023SOL     OW34965   2.985   1.467   1.342
11023SOL    HW134966   2.954   1.492   1.429
11023SOL    HW234967   3.069   1.512   1.334
11024SOL     OW34968  13.719   3.597  10.256
11024SOL    HW134969  13.636   3.620  10.214
11024SOL    HW234970  13.697   3.579  10.347
11025SOL     OW34971   3.293  11.864  14.205
11025SOL    HW134972   3.372  11.822  14.239
11025SOL    HW234973   3.279  11.823  14.120
11026SOL     OW34974   1.949  13.850  12.673
11026SOL    HW134975   1.992  13.935  12.682
11026SOL    HW234976   1.998  13.792  12.732
11027SOL     OW34977   4.823  13.686   6.097
11027SOL    HW134978   4.818  13.686   6.193
11027SOL    HW234979   4.910  13.654   6.077
11028SOL     OW34980  11.087  10.719   0.602
11028SOL    HW134981  11.117  10.718   0.511
11028SOL    HW234982  11.001  10.677   0.600
11029SOL     OW34983   1.109   6.451  14.122
11029SOL    HW134984   1.147   6.493  14.045
11029SOL    HW234985   1.169   6.474  14.193
11030SOL     OW34986   0.199   9.818   7.729
11030SOL    HW134987   0.161   9.733   7.708
11030SOL    HW234988   0.149   9.848   7.805
11031SOL     OW34989  10.418   5.691   1.870
11031SOL    HW134990  10.415   5.619   1.932
11031SOL    HW234991  10.395   5.652   1.786
11032SOL     OW34992   4.383   8.771   8.995
11032SOL    HW134993   4.298   8.748   9.035
11032SOL    HW234994   4.362   8.837   8.929
11033SOL     OW34995  14.384   3.951   7.758
11033SOL    HW134996  14.476   3.973   7.742
11033SOL    HW234997  14.336   4.000   7.690
11034SOL     OW34998   5.030   7.087  14.011
11034SOL    HW134999   5.056   7.177  14.028
11034SOL    HW235000   5.045   7.042  14.095
11035SOL     OW35001  11.653  12.294   0.021
11035SOL    HW135002  11.671  12.351   0.096
11035SOL    HW235003  11.642  12.207   0.059
11036SOL     OW35004   6.942  14.067   1.328
11036SOL    HW135005   6.996  14.056   1.250
11036SOL    HW235006   6.998  14.041   1.400
11037SOL     OW35007   2.612  13.085  10.913
11037SOL    HW135008   2.566  13.159  10.951
11037SOL    HW235009   2.558  13.059  10.838
11038SOL     OW35010  13.492   1.196  10.199
11038SOL    HW135011  13.449   1.275  10.164
11038SOL    HW235012  13.450   1.124  10.153
11039SOL     OW35013  14.819   7.238  10.065
11039SOL    HW135014  14.812   7.330  10.039
11039SOL    HW235015   0.010   7.237  10.134
11040SOL     OW35016   9.701   3.266   2.544
11040SOL    HW135017   9.738   3.315   2.617
11040SOL    HW235018   9.773   3.256   2.483
11041SOL     OW35019   2.799   9.704   7.875
11041SOL    HW135020   2.728   9.720   7.938
11041SOL    HW235021   2.870   9.761   7.905
11042SOL     OW35022   4.822   5.288   6.670
11042SOL    HW135023   4.869   5.341   6.604
11042SOL    HW235024   4.840   5.198   6.645
11043SOL     OW35025  10.995   8.726  10.978
11043SOL    HW135026  11.086   8.733  10.949
11043SOL    HW235027  10.949   8.684  10.905
11044SOL     OW35028   0.310   6.804   5.535
11044SOL    HW135029   0.237   6.808   5.473
11044SOL    HW235030   0.360   6.727   5.507
11045SOL     OW35031  10.070   7.843   1.240
11045SOL    HW135032  10.083   7.883   1.326
11045SOL    HW235033   9.996   7.891   1.202
11046SOL     OW35034   3.381  12.713   3.778
11046SOL    HW135035   3.462  12.758   3.801
11046SOL    HW235036   3.409  12.632   3.736
11047SOL     OW35037  14.336  10.883  11.637
11047SOL    HW135038  14.421  10.923  11.657
11047SOL    HW235039  14.289  10.950  11.588
11048SOL     OW35040  14.505   2.736   8.692
11048SOL    HW135041  14.458   2.797   8.748
11048SOL    HW235042  14.568   2.693   8.750
11049SOL     OW35043   0.836   7.923   0.227
11049SOL    HW135044   0.872   7.854   0.283
11049SOL    HW235045   0.755   7.949   0.270
11050SOL     OW35046  11.514   9.183   0.847
11050SOL    HW135047  11.598   9.227   0.854
11050SOL    HW235048  11.535   9.092   0.826
11051SOL     OW35049   6.673   9.990   8.658
11051SOL    HW135050   6.665  10.082   8.635
11051SOL    HW235051   6.752   9.986   8.712
11052SOL     OW35052   8.198   4.055   5.681
11052SOL    HW135053   8.275   4.036   5.735
11052SOL    HW235054   8.224   4.029   5.593
11053SOL     OW35055   8.302   8.757   0.164
11053SOL    HW135056   8.378   8.808   0.191
11053SOL    HW235057   8.259   8.811   0.097
11054SOL     OW35058  10.702   3.360  11.565
11054SOL    HW135059  10.782   3.375  11.616
11054SOL    HW235060  10.653   3.442  11.574
11055SOL     OW35061   0.148   0.467   8.960
11055SOL    HW135062   0.162   0.381   9.000
11055SOL    HW235063   0.228   0.516   8.980
11056SOL     OW35064  12.521  10.362  11.268
11056SOL    HW135065  12.526  10.286  11.326
11056SOL    HW235066  12.457  10.337  11.201
11057SOL     OW35067   8.120   0.636  13.230
11057SOL    HW135068   8.156   0.549  13.212
11057SOL    HW235069   8.053   0.648  13.163
11058SOL     OW35070   4.324   3.698   5.718
11058SOL    HW135071   4.326   3.614   5.764
11058SOL    HW235072   4.355   3.677   5.630
11059SOL     OW35073   9.376  10.479   5.059
11059SOL    HW135074   9.406  10.432   4.981
11059SOL    HW235075   9.350  10.410   5.120
11060SOL     OW35076   8.381  13.790   7.580
11060SOL    HW135077   8.301  13.749   7.549
11060SOL    HW235078   8.433  13.804   7.501
11061SOL     OW35079  13.542   4.154  11.135
11061SOL    HW135080  13.602   4.174  11.063
11061SOL    HW235081  13.478   4.094  11.097
11062SOL     OW35082   5.594   5.548   5.305
11062SOL    HW135083   5.678   5.533   5.348
11062SOL    HW235084   5.535   5.485   5.346
11063SOL     OW35085   5.972   4.133   3.269
11063SOL    HW135086   5.900   4.142   3.331
11063SOL    HW235087   6.050   4.128   3.323
11064SOL     OW35088   8.122   4.219   4.393
11064SOL    HW135089   8.044   4.243   4.443
11064SOL    HW235090   8.150   4.136   4.432
11065SOL     OW35091  11.574  12.189  11.894
11065SOL    HW135092  11.663  12.179  11.927
11065SOL    HW235093  11.551  12.279  11.914
11066SOL     OW35094  14.491  12.693   8.610
11066SOL    HW135095  14.414  12.736   8.649
11066SOL    HW235096  14.517  12.627   8.674
11067SOL     OW35097   3.810   1.370  12.922
11067SOL    HW135098   3.834   1.428  12.994
11067SOL    HW235099   3.721   1.342  12.942
11068SOL     OW35100   9.085  13.367   6.817
11068SOL    HW135101   9.044  13.389   6.733
11068SOL    HW235102   9.175  13.343   6.794
11069SOL     OW35103  13.813  14.281   0.359
11069SOL    HW135104  13.863  14.362   0.343
11069SOL    HW235105  13.756  14.303   0.433
11070SOL     OW35106   2.621   9.419  10.870
11070SOL    HW135107   2.580   9.458  10.947
11070SOL    HW235108   2.565   9.446  10.797
11071SOL     OW35109   8.995   1.275  11.469
11071SOL    HW135110   9.027   1.339  11.532
11071SOL    HW235111   8.920   1.316  11.428
11072SOL     OW35112   3.883   5.860  12.217
11072SOL    HW135113   3.874   5.945  12.260
11072SOL    HW235114   3.939   5.877  12.141
11073SOL     OW35115   4.315  11.821   6.233
11073SOL    HW135116   4.344  11.736   6.200
11073SOL    HW235117   4.392  11.877   6.228
11074SOL     OW35118  10.603   6.969   0.462
11074SOL    HW135119  10.575   7.052   0.423
11074SOL    HW235120  10.686   6.950   0.419
11075SOL     OW35121  13.408   9.457   8.799
11075SOL    HW135122  13.500   9.471   8.820
11075SOL    HW235123  13.360   9.487   8.876
11076SOL     OW35124   8.541   5.326  13.879
11076SOL    HW135125   8.559   5.371  13.797
11076SOL    HW235126   8.618   5.343  13.933
11077SOL     OW35127   2.393  11.843   0.896
11077SOL    HW135128   2.307  11.866   0.931
11077SOL    HW235129   2.375  11.813   0.807
11078SOL     OW35130   6.753   8.168   9.929
11078SOL    HW135131   6.813   8.208   9.866
11078SOL    HW235132   6.671   8.157   9.880
11079SOL     OW35133   8.314  14.392  11.743
11079SOL    HW135134   8.319  14.337  11.821
11079SOL    HW235135   8.330  14.480  11.775
11080SOL     OW35136  10.025  14.762   0.215
11080SOL    HW135137  10.047  14.729   0.302
11080SOL    HW235138   9.947  14.714   0.190
11081SOL     OW35139   8.338   8.216   9.866
11081SOL    HW135140   8.421   8.195   9.908
11081SOL    HW235141   8.280   8.239   9.939
11082SOL     OW35142   8.366  10.614   8.457
11082SOL    HW135143   8.304  10.604   8.385
11082SOL    HW235144   8.420  10.535   8.454
11083SOL     OW35145   1.832   0.365   8.491
11083SOL    HW135146   1.786   0.333   8.414
11083SOL    HW235147   1.897   0.297   8.510
11084SOL     OW35148  11.226   7.769   2.679
11084SOL    HW135149  11.296   7.825   2.644
11084SOL    HW235150  11.255   7.746   2.767
11085SOL     OW35151   6.409  14.814  12.666
11085SOL    HW135152   6.443  14.855  12.586
11085SOL    HW235153   6.361  14.737  12.635
11086SOL     OW35154  14.241   2.390   0.249
11086SOL    HW135155  14.330   2.403   0.281
11086SOL    HW235156  14.246   2.405   0.155
11087SOL     OW35157  10.477   7.917  10.830
11087SOL    HW135158  10.400   7.902  10.775
11087SOL    HW235159  10.485   8.012  10.835
11088SOL     OW35160   9.198   6.675   6.646
11088SOL    HW135161   9.146   6.602   6.677
11088SOL    HW235162   9.155   6.703   6.565
11089SOL     OW35163   9.100  11.312   4.992
11089SOL    HW135164   9.041  11.377   4.954
11089SOL    HW235165   9.074  11.306   5.084
11090SOL     OW35166   0.147  13.138   9.784
11090SOL    HW135167   0.209  13.203   9.750
11090SOL    HW235168   0.187  13.054   9.764
11091SOL     OW35169  12.951  11.331   0.501
11091SOL    HW135170  12.975  11.239   0.501
11091SOL    HW235171  13.033  11.377   0.523
11092SOL     OW35172   7.959  11.290   8.455
11092SOL    HW135173   7.981  11.379   8.480
11092SOL    HW235174   8.018  11.235   8.507
11093SOL     OW35175   0.720   1.288  10.159
11093SOL    HW135176   0.686   1.283  10.248
11093SOL    HW235177   0.641   1.284  10.104
11094SOL     OW35178  14.325  13.312   6.022
11094SOL    HW135179  14.294  13.390   6.069
11094SOL    HW235180  14.420  13.315   6.031
11095SOL     OW35181   9.880  10.896   1.447
11095SOL    HW135182   9.949  10.941   1.496
11095SOL    HW235183   9.915  10.886   1.359
11096SOL     OW35184   5.467  12.005   4.020
11096SOL    HW135185   5.466  11.955   3.938
11096SOL    HW235186   5.483  12.095   3.993
11097SOL     OW35187   2.795   6.588  12.361
11097SOL    HW135188   2.814   6.638  12.282
11097SOL    HW235189   2.852   6.511  12.355
11098SOL     OW35190   9.426   4.882   1.256
11098SOL    HW135191   9.376   4.842   1.185
11098SOL    HW235192   9.366   4.880   1.331
11099SOL     OW35193   7.754   9.830   6.000
11099SOL    HW135194   7.740   9.817   5.907
11099SOL    HW235195   7.822   9.898   6.004
11100SOL     OW35196  14.494   0.535   5.672
11100SOL    HW135197  14.579   0.499   5.697
11100SOL    HW235198  14.461   0.477   5.604
11101SOL     OW35199   2.527   9.385  13.707
11101SOL    HW135200   2.542   9.349  13.794
11101SOL    HW235201   2.573   9.469  13.707
11102SOL     OW35202  12.425   9.442   9.504
11102SOL    HW135203  12.371   9.499   9.449
11102SOL    HW235204  12.511   9.484   9.504
11103SOL     OW35205   5.383  14.262  11.537
11103SOL    HW135206   5.364  14.352  11.561
11103SOL    HW235207   5.298  14.217  11.544
11104SOL     OW35208   8.739   3.727  12.918
11104SOL    HW135209   8.683   3.652  12.937
11104SOL    HW235210   8.679   3.799  12.901
11105SOL     OW35211   1.219  12.284  10.888
11105SOL    HW135212   1.162  12.354  10.919
11105SOL    HW235213   1.162  12.228  10.835
11106SOL     OW35214   6.296   4.735   9.885
11106SOL    HW135215   6.385   4.768   9.871
11106SOL    HW235216   6.283   4.740   9.979
11107SOL     OW35217   7.141   1.161  13.691
11107SOL    HW135218   7.224   1.209  13.700
11107SOL    HW235219   7.130   1.150  13.596
11108SOL     OW35220   1.663   8.539   7.053
11108SOL    HW135221   1.730   8.511   6.991
11108SOL    HW235222   1.611   8.460   7.069
11109SOL     OW35223   5.566  13.369   1.126
11109SOL    HW135224   5.537  13.356   1.036
11109SOL    HW235225   5.596  13.283   1.155
11110SOL     OW35226   3.930  14.172  14.686
11110SOL    HW135227   4.001  14.118  14.719
11110SOL    HW235228   3.855  14.149  14.741
11111SOL     OW35229   6.250  10.179  10.216
11111SOL    HW135230   6.300  10.160  10.296
11111SOL    HW235231   6.260  10.101  10.162
11112SOL     OW35232  10.380   2.523   5.747
11112SOL    HW135233  10.288   2.540   5.728
11112SOL    HW235234  10.412   2.475   5.670
11113SOL     OW35235   7.004   0.695  12.884
11113SOL    HW135236   6.998   0.741  12.801
11113SOL    HW235237   6.953   0.615  12.871
11114SOL     OW35238   2.066   2.909  10.381
11114SOL    HW135239   1.973   2.894  10.398
11114SOL    HW235240   2.110   2.832  10.416
11115SOL     OW35241  14.852   5.083   7.475
11115SOL    HW135242   0.072   5.085   7.486
11115SOL    HW235243  14.824   5.001   7.516
11116SOL     OW35244   6.033   9.000  13.582
11116SOL    HW135245   6.126   8.977  13.592
11116SOL    HW235246   6.022   9.076  13.639
11117SOL     OW35247   8.549  10.786  12.529
11117SOL    HW135248   8.540  10.848  12.456
11117SOL    HW235249   8.471  10.731  12.523
11118SOL     OW35250   1.158  13.543  11.900
11118SOL    HW135251   1.183  13.592  11.822
11118SOL    HW235252   1.070  13.575  11.921
11119SOL     OW35253  12.900   7.879  11.791
11119SOL    HW135254  12.830   7.842  11.738
11119SOL    HW235255  12.867   7.964  11.818
11120SOL     OW35256   5.745   9.619  14.016
11120SOL    HW135257   5.780   9.708  14.013
11120SOL    HW235258   5.699   9.608  13.933
11121SOL     OW35259  10.051   6.807   6.508
11121SOL    HW135260  10.041   6.747   6.434
11121SOL    HW235261   9.967   6.853   6.514
11122SOL     OW35262   2.244   9.191   4.672
11122SOL    HW135263   2.175   9.187   4.606
11122SOL    HW235264   2.202   9.161   4.752
11123SOL     OW35265   1.388   5.444   2.638
11123SOL    HW135266   1.341   5.496   2.703
11123SOL    HW235267   1.400   5.503   2.564
11124SOL     OW35268   3.819   5.238   8.491
11124SOL    HW135269   3.841   5.223   8.583
11124SOL    HW235270   3.747   5.300   8.493
11125SOL     OW35271   6.967  11.126   8.028
11125SOL    HW135272   6.944  11.039   7.995
11125SOL    HW235273   7.016  11.166   7.956
11126SOL     OW35274   7.212  14.062  11.965
11126SOL    HW135275   7.285  14.087  11.908
11126SOL    HW235276   7.249  13.994  12.022
11127SOL     OW35277   8.387   2.867   7.820
11127SOL    HW135278   8.405   2.892   7.729
11127SOL    HW235279   8.417   2.943   7.872
11128SOL     OW35280  13.495  12.181   2.182
11128SOL    HW135281  13.558  12.123   2.225
11128SOL    HW235282  13.486  12.144   2.094
11129SOL     OW35283  13.760  10.670  12.756
11129SOL    HW135284  13.732  10.667  12.848
11129SOL    HW235285  13.687  10.711  12.710
11130SOL     OW35286   3.671  10.319   6.470
11130SOL    HW135287   3.662  10.245   6.410
11130SOL    HW235288   3.594  10.314   6.527
11131SOL     OW35289   6.090   8.645  14.777
11131SOL    HW135290   6.169   8.641  14.831
11131SOL    HW235291   6.121   8.676  14.692
11132SOL     OW35292   6.040   6.345   5.831
11132SOL    HW135293   6.107   6.279   5.853
11132SOL    HW235294   5.962   6.293   5.810
11133SOL     OW35295   0.262   7.838  14.496
11133SOL    HW135296   0.331   7.824  14.561
11133SOL    HW235297   0.298   7.802  14.415
11134SOL     OW35298   8.915   3.120  14.861
11134SOL    HW135299   8.989   3.176   0.008
11134SOL    HW235300   8.948   3.031   0.001
11135SOL     OW35301  14.607  12.605   7.507
11135SOL    HW135302  14.560  12.622   7.425
11135SOL    HW235303  14.585  12.679   7.563
11136SOL     OW35304   5.924  10.272   0.033
11136SOL    HW135305   5.997  10.306  14.857
11136SOL    HW235306   5.847  10.290  14.854
11137SOL     OW35307   0.319   1.068  12.523
11137SOL    HW135308   0.404   1.032  12.497
11137SOL    HW235309   0.256   1.017  12.473
11138SOL     OW35310   9.904  10.023   9.315
11138SOL    HW135311   9.929   9.950   9.259
11138SOL    HW235312   9.811  10.009   9.332
11139SOL     OW35313   2.938  12.882   5.942
11139SOL    HW135314   2.933  12.924   5.856
11139SOL    HW235315   2.857  12.831   5.949
11140SOL     OW35316  12.309   4.554   7.385
11140SOL    HW135317  12.347   4.469   7.406
11140SOL    HW235318  12.364   4.589   7.314
11141SOL     OW35319  13.030   8.987   7.487
11141SOL    HW135320  12.945   9.020   7.514
11141SOL    HW235321  13.048   8.915   7.547
11142SOL     OW35322   1.118   7.273   3.104
11142SOL    HW135323   1.023   7.286   3.098
11142SOL    HW235324   1.131   7.232   3.190
11143SOL     OW35325   5.211   5.793  12.952
11143SOL    HW135326   5.286   5.786  13.011
11143SOL    HW235327   5.247   5.833  12.872
11144SOL     OW35328   9.384   6.518  12.499
11144SOL    HW135329   9.381   6.577  12.424
11144SOL    HW235330   9.449   6.556  12.557
11145SOL     OW35331   8.331   0.277  10.185
11145SOL    HW135332   8.369   0.251  10.101
11145SOL    HW235333   8.310   0.370  10.174
11146SOL     OW35334   3.048   8.707   0.814
11146SOL    HW135335   2.992   8.667   0.881
11146SOL    HW235336   3.129   8.657   0.817
11147SOL     OW35337   6.036   6.724   7.915
11147SOL    HW135338   6.034   6.751   7.823
11147SOL    HW235339   6.129   6.713   7.935
11148SOL     OW35340   7.875   2.888   2.114
11148SOL    HW135341   7.863   2.860   2.205
11148SOL    HW235342   7.968   2.876   2.097
11149SOL     OW35343   8.624  11.946  10.874
11149SOL    HW135344   8.545  11.994  10.848
11149SOL    HW235345   8.606  11.856  10.849
11150SOL     OW35346   5.820   7.798   6.899
11150SOL    HW135347   5.811   7.884   6.858
11150SOL    HW235348   5.895   7.759   6.856
11151SOL     OW35349  11.590  12.529  12.190
11151SOL    HW135350  11.507  12.484  12.207
11151SOL    HW235351  11.572  12.621  12.209
11152SOL     OW35352   5.108   1.334  12.470
11152SOL    HW135353   5.123   1.428  12.476
11152SOL    HW235354   5.051   1.314  12.544
11153SOL     OW35355   7.070   8.544   0.374
11153SOL    HW135356   7.148   8.493   0.352
11153SOL    HW235357   7.084   8.628   0.330
11154SOL     OW35358   5.037   2.736   2.780
11154SOL    HW135359   4.996   2.779   2.855
11154SOL    HW235360   5.118   2.699   2.815
11155SOL     OW35361  10.252   0.613   9.419
11155SOL    HW135362  10.198   0.633   9.495
11155SOL    HW235363  10.218   0.670   9.349
11156SOL     OW35364  10.026  10.661   6.961
11156SOL    HW135365  10.097  10.624   6.908
11156SOL    HW235366   9.976  10.715   6.901
11157SOL     OW35367   9.749   3.820   4.335
11157SOL    HW135368   9.700   3.897   4.307
11157SOL    HW235369   9.756   3.766   4.256
11158SOL     OW35370  13.647  12.798   4.487
11158SOL    HW135371  13.727  12.789   4.538
11158SOL    HW235372  13.639  12.716   4.439
11159SOL     OW35373   1.976   9.398   6.790
11159SOL    HW135374   1.890   9.358   6.778
11159SOL    HW235375   2.023   9.379   6.709
11160SOL     OW35376   2.531   8.850   3.258
11160SOL    HW135377   2.528   8.898   3.341
11160SOL    HW235378   2.622   8.856   3.230
11161SOL     OW35379   6.150   9.205   8.571
11161SOL    HW135380   6.206   9.263   8.623
11161SOL    HW235381   6.113   9.143   8.634
11162SOL     OW35382   2.135   1.161   1.569
11162SOL    HW135383   2.077   1.102   1.617
11162SOL    HW235384   2.162   1.111   1.492
11163SOL     OW35385  12.850   4.055  13.017
11163SOL    HW135386  12.809   4.137  13.045
11163SOL    HW235387  12.794   3.987  13.055
11164SOL     OW35388   2.793   4.994   2.684
11164SOL    HW135389   2.884   5.006   2.710
11164SOL    HW235390   2.796   4.932   2.611
11165SOL     OW35391  14.538   4.574   5.139
11165SOL    HW135392  14.484   4.636   5.091
11165SOL    HW235393  14.504   4.488   5.113
11166SOL     OW35394  12.811  12.336   4.417
11166SOL    HW135395  12.744  12.302   4.357
11166SOL    HW235396  12.765  12.401   4.469
11167SOL     OW35397   1.106  10.430   5.716
11167SOL    HW135398   1.147  10.504   5.671
11167SOL    HW235399   1.057  10.384   5.647
11168SOL     OW35400  14.532   4.188   8.356
11168SOL    HW135401  14.556   4.115   8.299
11168SOL    HW235402  14.446   4.163   8.390
11169SOL     OW35403   5.273   9.567   7.537
11169SOL    HW135404   5.235   9.479   7.532
11169SOL    HW235405   5.262   9.603   7.449
11170SOL     OW35406  12.414  11.940   3.302
11170SOL    HW135407  12.403  11.850   3.271
11170SOL    HW235408  12.332  11.984   3.279
11171SOL     OW35409   9.638   0.417  14.173
11171SOL    HW135410   9.709   0.421  14.109
11171SOL    HW235411   9.558   0.414  14.120
11172SOL     OW35412   9.226  13.489   9.423
11172SOL    HW135413   9.162  13.461   9.358
11172SOL    HW235414   9.195  13.575   9.452
11173SOL     OW35415  11.250   1.981  14.853
11173SOL    HW135416  11.335   2.024  14.859
11173SOL    HW235417  11.236   1.968  14.759
11174SOL     OW35418   5.379   5.144   8.493
11174SOL    HW135419   5.407   5.170   8.581
11174SOL    HW235420   5.284   5.154   8.494
11175SOL     OW35421   8.327   5.180   1.049
11175SOL    HW135422   8.362   5.259   1.090
11175SOL    HW235423   8.332   5.197   0.955
11176SOL     OW35424   7.743   3.335  12.182
11176SOL    HW135425   7.799   3.369  12.113
11176SOL    HW235426   7.715   3.249  12.151
11177SOL     OW35427   9.195   4.227   1.494
11177SOL    HW135428   9.231   4.222   1.406
11177SOL    HW235429   9.262   4.271   1.546
11178SOL     OW35430   8.729   0.852   6.388
11178SOL    HW135431   8.642   0.854   6.429
11178SOL    HW235432   8.756   0.943   6.386
11179SOL     OW35433   2.062   7.788   1.816
11179SOL    HW135434   1.968   7.777   1.824
11179SOL    HW235435   2.074   7.829   1.730
11180SOL     OW35436   0.233  10.638   8.617
11180SOL    HW135437   0.296  10.607   8.551
11180SOL    HW235438   0.257  10.730   8.631
11181SOL     OW35439  11.835   9.431   6.732
11181SOL    HW135440  11.877   9.508   6.770
11181SOL    HW235441  11.784   9.465   6.659
11182SOL     OW35442   0.143   2.303  12.696
11182SOL    HW135443   0.126   2.397  12.707
11182SOL    HW235444   0.069   2.271  12.644
11183SOL     OW35445  14.645  13.891   6.878
11183SOL    HW135446  14.563  13.891   6.927
11183SOL    HW235447  14.673  13.799   6.878
11184SOL     OW35448   2.879   0.871  10.875
11184SOL    HW135449   2.811   0.924  10.917
11184SOL    HW235450   2.961   0.905  10.912
11185SOL     OW35451   1.921   1.898  10.368
11185SOL    HW135452   1.993   1.836  10.363
11185SOL    HW235453   1.877   1.878  10.451
11186SOL     OW35454   2.334  10.480   2.837
11186SOL    HW135455   2.429  10.482   2.830
11186SOL    HW235456   2.303  10.471   2.747
11187SOL     OW35457   7.857   7.641   8.703
11187SOL    HW135458   7.798   7.650   8.628
11187SOL    HW235459   7.808   7.679   8.776
11188SOL     OW35460   6.363  13.011   9.827
11188SOL    HW135461   6.337  13.094   9.865
11188SOL    HW235462   6.451  13.026   9.793
11189SOL     OW35463  13.220   7.841   8.869
11189SOL    HW135464  13.139   7.882   8.898
11189SOL    HW235465  13.201   7.747   8.870
11190SOL     OW35466  14.265  11.948   0.679
11190SOL    HW135467  14.314  11.931   0.759
11190SOL    HW235468  14.236  11.861   0.650
11191SOL     OW35469   0.226  12.421  13.031
11191SOL    HW135470   0.193  12.392  13.116
11191SOL    HW235471   0.174  12.372  12.968
11192SOL     OW35472  14.652  10.847   2.584
11192SOL    HW135473  14.635  10.792   2.507
11192SOL    HW235474  14.720  10.908   2.556
11193SOL     OW35475  12.148  12.895  12.120
11193SOL    HW135476  12.073  12.943  12.155
11193SOL    HW235477  12.112  12.840  12.051
11194SOL     OW35478   7.549   6.894   2.534
11194SOL    HW135479   7.540   6.799   2.541
11194SOL    HW235480   7.546   6.926   2.624
11195SOL     OW35481   0.669   3.159   0.920
11195SOL    HW135482   0.733   3.109   0.869
11195SOL    HW235483   0.639   3.098   0.988
11196SOL     OW35484  12.983   6.350  13.561
11196SOL    HW135485  13.011   6.403  13.636
11196SOL    HW235486  12.983   6.411  13.487
11197SOL     OW35487  12.546  14.674  12.153
11197SOL    HW135488  12.561  14.684  12.059
11197SOL    HW235489  12.558  14.761  12.189
11198SOL     OW35490   7.910   0.753   5.504
11198SOL    HW135491   7.995   0.710   5.496
11198SOL    HW235492   7.854   0.708   5.440
11199SOL     OW35493   5.254   6.730   6.099
11199SOL    HW135494   5.197   6.694   6.167
11199SOL    HW235495   5.215   6.815   6.078
11200SOL     OW35496   0.471   5.957   4.045
11200SOL    HW135497   0.420   5.945   4.125
11200SOL    HW235498   0.540   5.892   4.051
11201SOL     OW35499  12.680   5.811   5.036
11201SOL    HW135500  12.648   5.886   5.085
11201SOL    HW235501  12.616   5.799   4.965
11202SOL     OW35502   9.013   2.936  13.705
11202SOL    HW135503   8.929   2.948  13.661
11202SOL    HW235504   9.047   3.024  13.718
11203SOL     OW35505  12.437  12.915  10.419
11203SOL    HW135506  12.343  12.897  10.422
11203SOL    HW235507  12.456  12.930  10.326
11204SOL     OW35508   4.114   8.219  14.507
11204SOL    HW135509   4.171   8.166  14.562
11204SOL    HW235510   4.095   8.163  14.432
11205SOL     OW35511  12.194   1.639   5.727
11205SOL    HW135512  12.112   1.606   5.691
11205SOL    HW235513  12.200   1.599   5.814
11206SOL     OW35514  13.378  12.786   5.890
11206SOL    HW135515  13.448  12.840   5.852
11206SOL    HW235516  13.369  12.712   5.831
11207SOL     OW35517   1.496  14.277   7.984
11207SOL    HW135518   1.467  14.313   7.900
11207SOL    HW235519   1.460  14.188   7.985
11208SOL     OW35520   0.121   0.230  11.249
11208SOL    HW135521   0.114   0.325  11.236
11208SOL    HW235522   0.131   0.195  11.160
11209SOL     OW35523   3.245   7.001   3.264
11209SOL    HW135524   3.188   6.962   3.198
11209SOL    HW235525   3.212   6.968   3.347
11210SOL     OW35526   0.055  14.361   7.341
11210SOL    HW135527   0.135  14.391   7.297
11210SOL    HW235528   0.009  14.310   7.274
11211SOL     OW35529   3.457   5.553   0.362
11211SOL    HW135530   3.455   5.648   0.361
11211SOL    HW235531   3.374   5.528   0.403
11212SOL     OW35532   9.140  14.068   4.312
11212SOL    HW135533   9.190  14.130   4.260
11212SOL    HW235534   9.181  13.983   4.296
11213SOL     OW35535   3.575   1.485   4.930
11213SOL    HW135536   3.622   1.477   5.013
11213SOL    HW235537   3.483   1.478   4.953
11214SOL     OW35538   7.225   3.338   4.884
11214SOL    HW135539   7.209   3.252   4.925
11214SOL    HW235540   7.319   3.352   4.895
11215SOL     OW35541   9.241   2.078  11.172
11215SOL    HW135542   9.150   2.058  11.194
11215SOL    HW235543   9.269   2.004  11.118
11216SOL     OW35544   1.952  13.800   8.421
11216SOL    HW135545   1.980  13.726   8.475
11216SOL    HW235546   1.955  13.875   8.481
11217SOL     OW35547  12.631  10.769  10.662
11217SOL    HW135548  12.590  10.693  10.703
11217SOL    HW235549  12.580  10.784  10.582
11218SOL     OW35550   5.569   9.640   6.015
11218SOL    HW135551   5.517   9.578   6.065
11218SOL    HW235552   5.518   9.721   6.016
11219SOL     OW35553   3.269   8.096   7.290
11219SOL    HW135554   3.265   8.052   7.205
11219SOL    HW235555   3.306   8.030   7.349
11220SOL     OW35556   0.508   4.272   5.355
11220SOL    HW135557   0.592   4.314   5.339
11220SOL    HW235558   0.465   4.270   5.270
11221SOL     OW35559  10.380   8.957  13.406
11221SOL    HW135560  10.377   8.973  13.500
11221SOL    HW235561  10.468   8.983  13.380
11222SOL     OW35562   8.452   4.048   7.211
11222SOL    HW135563   8.445   3.954   7.231
11222SOL    HW235564   8.545   4.068   7.220
11223SOL     OW35565   5.298  11.678   5.241
11223SOL    HW135566   5.212  11.718   5.229
11223SOL    HW235567   5.300  11.655   5.334
11224SOL     OW35568  12.748  11.715   2.727
11224SOL    HW135569  12.833  11.744   2.759
11224SOL    HW235570  12.744  11.746   2.636
11225SOL     OW35571   3.706   6.784  11.106
11225SOL    HW135572   3.787   6.805  11.152
11225SOL    HW235573   3.729   6.788  11.014
11226SOL     OW35574   6.836   8.782   6.336
11226SOL    HW135575   6.881   8.855   6.293
11226SOL    HW235576   6.867   8.785   6.426
11227SOL     OW35577   4.590   5.329  11.546
11227SOL    HW135578   4.551   5.361  11.464
11227SOL    HW235579   4.525   5.349  11.613
11228SOL     OW35580   4.293  14.572   3.799
11228SOL    HW135581   4.341  14.494   3.828
11228SOL    HW235582   4.359  14.642   3.800
11229SOL     OW35583   4.155  13.380   9.949
11229SOL    HW135584   4.106  13.306   9.914
11229SOL    HW235585   4.103  13.411  10.024
11230SOL     OW35586   3.359  10.042   8.771
11230SOL    HW135587   3.445  10.052   8.732
11230SOL    HW235588   3.312   9.983   8.713
11231SOL     OW35589  10.144   8.309   1.458
11231SOL    HW135590  10.063   8.327   1.410
11231SOL    HW235591  10.212   8.357   1.410
11232SOL     OW35592   3.888   9.533   8.727
11232SOL    HW135593   3.861   9.599   8.792
11232SOL    HW235594   3.961   9.574   8.681
11233SOL     OW35595   7.923  12.815   0.910
11233SOL    HW135596   7.969  12.890   0.872
11233SOL    HW235597   7.861  12.788   0.843
11234SOL     OW35598  11.773   0.553  11.546
11234SOL    HW135599  11.787   0.461  11.523
11234SOL    HW235600  11.841   0.572  11.611
11235SOL     OW35601  12.567  11.793  10.480
11235SOL    HW135602  12.605  11.863  10.427
11235SOL    HW235603  12.628  11.781  10.553
11236SOL     OW35604  13.896   5.549  14.729
11236SOL    HW135605  13.839   5.605  14.782
11236SOL    HW235606  13.967   5.524  14.788
11237SOL     OW35607  13.815  10.924   6.922
11237SOL    HW135608  13.723  10.912   6.946
11237SOL    HW235609  13.840  10.840   6.883
11238SOL     OW35610   2.058   6.795   9.144
11238SOL    HW135611   2.007   6.875   9.129
11238SOL    HW235612   2.139   6.826   9.185
11239SOL     OW35613   5.907   9.758  13.681
11239SOL    HW135614   5.966   9.683  13.676
11239SOL    HW235615   5.965   9.835  13.679
11240SOL     OW35616   7.344   1.867  12.895
11240SOL    HW135617   7.290   1.932  12.940
11240SOL    HW235618   7.311   1.866  12.805
11241SOL     OW35619   8.805   7.510   6.276
11241SOL    HW135620   8.853   7.509   6.359
11241SOL    HW235621   8.872   7.490   6.210
11242SOL     OW35622   4.279  12.130   3.865
11242SOL    HW135623   4.217  12.184   3.816
11242SOL    HW235624   4.294  12.054   3.809
11243SOL     OW35625  14.100   5.471   0.796
11243SOL    HW135626  14.090   5.527   0.719
11243SOL    HW235627  14.026   5.411   0.792
11244SOL     OW35628  14.583   2.114   5.324
11244SOL    HW135629  14.643   2.138   5.254
11244SOL    HW235630  14.639   2.078   5.393
11245SOL     OW35631   2.168   3.880  13.476
11245SOL    HW135632   2.175   3.947  13.544
11245SOL    HW235633   2.106   3.916  13.413
11246SOL     OW35634   5.976   9.965   4.995
11246SOL    HW135635   6.057   9.973   4.945
11246SOL    HW235636   5.921   9.907   4.942
11247SOL     OW35637   9.077   8.284  12.249
11247SOL    HW135638   9.046   8.349  12.186
11247SOL    HW235639   9.171   8.298  12.254
11248SOL     OW35640  11.553  14.140  12.517
11248SOL    HW135641  11.546  14.055  12.474
11248SOL    HW235642  11.611  14.191  12.461
11249SOL     OW35643   9.025  10.486   8.969
11249SOL    HW135644   8.980  10.530   8.896
11249SOL    HW235645   9.003  10.394   8.958
11250SOL     OW35646   2.063   1.518   1.436
11250SOL    HW135647   2.084   1.509   1.529
11250SOL    HW235648   2.140   1.484   1.391
11251SOL     OW35649  14.552  14.575  14.040
11251SOL    HW135650  14.636  14.533  14.059
11251SOL    HW235651  14.487  14.525  14.090
11252SOL     OW35652   9.676   1.015  13.923
11252SOL    HW135653   9.697   1.012  14.017
11252SOL    HW235654   9.636   0.930  13.905
11253SOL     OW35655   5.805   1.892   3.302
11253SOL    HW135656   5.873   1.827   3.284
11253SOL    HW235657   5.812   1.909   3.396
11254SOL     OW35658   1.337  12.593   2.278
11254SOL    HW135659   1.299  12.680   2.267
11254SOL    HW235660   1.265  12.533   2.263
11255SOL     OW35661  10.316   4.966  11.243
11255SOL    HW135662  10.230   4.941  11.209
11255SOL    HW235663  10.318   5.061  11.237
11256SOL     OW35664  11.364  10.723   9.456
11256SOL    HW135665  11.299  10.688   9.517
11256SOL    HW235666  11.327  10.707   9.369
11257SOL     OW35667   8.213   0.180  12.123
11257SOL    HW135668   8.148   0.248  12.139
11257SOL    HW235669   8.237   0.150  12.210
11258SOL     OW35670   0.640   7.810   7.950
11258SOL    HW135671   0.620   7.717   7.962
11258SOL    HW235672   0.725   7.822   7.993
11259SOL     OW35673   6.343   3.105   0.165
11259SOL    HW135674   6.395   3.183   0.150
11259SOL    HW235675   6.299   3.088   0.081
11260SOL     OW35676  13.268   5.172   5.245
11260SOL    HW135677  13.349   5.211   5.214
11260SOL    HW235678  13.206   5.245   5.248
11261SOL     OW35679   2.421   9.677   8.882
11261SOL    HW135680   2.456   9.589   8.900
11261SOL    HW235681   2.374   9.667   8.799
11262SOL     OW35682   2.282   0.271  14.733
11262SOL    HW135683   2.246   0.321  14.807
11262SOL    HW235684   2.339   0.207  14.774
11263SOL     OW35685   6.091   7.883  10.750
11263SOL    HW135686   5.996   7.893  10.757
11263SOL    HW235687   6.118   7.851  10.836
11264SOL     OW35688   5.487   1.349   8.185
11264SOL    HW135689   5.492   1.335   8.091
11264SOL    HW235690   5.518   1.267   8.223
11265SOL     OW35691   7.728   2.476   3.716
11265SOL    HW135692   7.797   2.466   3.651
11265SOL    HW235693   7.750   2.556   3.763
11266SOL     OW35694   3.717   5.022   2.065
11266SOL    HW135695   3.642   5.077   2.088
11266SOL    HW235696   3.745   4.983   2.148
11267SOL     OW35697   8.865   1.177   8.248
11267SOL    HW135698   8.845   1.200   8.157
11267SOL    HW235699   8.927   1.104   8.241
11268SOL     OW35700   0.108   1.145  14.813
11268SOL    HW135701   0.146   1.180   0.018
11268SOL    HW235702   0.149   1.194  14.743
11269SOL     OW35703   3.136  12.556   9.101
11269SOL    HW135704   3.179  12.632   9.141
11269SOL    HW235705   3.187  12.537   9.023
11270SOL     OW35706   3.400   3.771  14.096
11270SOL    HW135707   3.361   3.785  14.010
11270SOL    HW235708   3.439   3.684  14.091
11271SOL     OW35709   2.468  14.436  11.094
11271SOL    HW135710   2.382  14.424  11.056
11271SOL    HW235711   2.505  14.510  11.046
11272SOL     OW35712   0.414   4.440  13.827
11272SOL    HW135713   0.336   4.494  13.812
11272SOL    HW235714   0.475   4.467  13.758
11273SOL     OW35715  12.657   6.558   2.220
11273SOL    HW135716  12.590   6.514   2.273
11273SOL    HW235717  12.733   6.499   2.224
11274SOL     OW35718   8.631   6.574   5.609
11274SOL    HW135719   8.699   6.579   5.541
11274SOL    HW235720   8.556   6.534   5.565
11275SOL     OW35721  12.989   9.134   1.303
11275SOL    HW135722  12.895   9.132   1.320
11275SOL    HW235723  13.021   9.208   1.353
11276SOL     OW35724   6.876  11.529  10.475
11276SOL    HW135725   6.903  11.615  10.507
11276SOL    HW235726   6.838  11.485  10.551
11277SOL     OW35727  12.516   1.451   9.671
11277SOL    HW135728  12.497   1.385   9.604
11277SOL    HW235729  12.541   1.529   9.621
11278SOL     OW35730   3.301  14.431   4.333
11278SOL    HW135731   3.310  14.484   4.255
11278SOL    HW235732   3.285  14.342   4.301
11279SOL     OW35733  12.906  14.124   0.054
11279SOL    HW135734  12.913  14.211   0.094
11279SOL    HW235735  12.965  14.128  14.854
11280SOL     OW35736   6.890   3.930  13.957
11280SOL    HW135737   6.839   3.904  14.033
11280SOL    HW235738   6.870   4.023  13.945
11281SOL     OW35739   0.276   6.261   0.638
11281SOL    HW135740   0.332   6.267   0.716
11281SOL    HW235741   0.335   6.280   0.565
11282SOL     OW35742   1.213   1.358   4.224
11282SOL    HW135743   1.208   1.302   4.302
11282SOL    HW235744   1.250   1.301   4.157
11283SOL     OW35745   6.014   8.996  10.516
11283SOL    HW135746   5.973   8.932  10.458
11283SOL    HW235747   6.000   8.961  10.604
11284SOL     OW35748  10.355   4.297   2.410
11284SOL    HW135749  10.348   4.209   2.375
11284SOL    HW235750  10.405   4.287   2.491
11285SOL     OW35751   4.083  10.872   3.315
11285SOL    HW135752   4.054  10.916   3.396
11285SOL    HW235753   4.117  10.943   3.260
11286SOL     OW35754  12.142  11.592   6.530
11286SOL    HW135755  12.136  11.513   6.583
11286SOL    HW235756  12.052  11.611   6.504
11287SOL     OW35757   6.014   2.698   0.938
11287SOL    HW135758   6.067   2.619   0.926
11287SOL    HW235759   5.996   2.700   1.032
11288SOL     OW35760   4.230  12.166   2.918
11288SOL    HW135761   4.323  12.160   2.898
11288SOL    HW235762   4.188  12.190   2.836
11289SOL     OW35763   3.902  11.073   7.729
11289SOL    HW135764   3.849  11.142   7.768
11289SOL    HW235765   3.893  10.999   7.789
11290SOL     OW35766   1.281  10.765  10.769
11290SOL    HW135767   1.217  10.736  10.834
11290SOL    HW235768   1.259  10.857  10.753
11291SOL     OW35769   7.814   4.972   1.413
11291SOL    HW135770   7.826   4.986   1.506
11291SOL    HW235771   7.744   4.907   1.407
11292SOL     OW35772  10.897   1.190   3.661
11292SOL    HW135773  10.939   1.212   3.744
11292SOL    HW235774  10.959   1.218   3.594
11293SOL     OW35775   9.088   3.716  14.190
11293SOL    HW135776   9.064   3.806  14.209
11293SOL    HW235777   9.183   3.714  14.202
11294SOL     OW35778   6.798   3.246   1.027
11294SOL    HW135779   6.867   3.224   0.964
11294SOL    HW235780   6.797   3.342   1.027
11295SOL     OW35781   3.502   0.114  11.015
11295SOL    HW135782   3.429   0.163  11.051
11295SOL    HW235783   3.556   0.180  10.970
11296SOL     OW35784   0.427  12.743  11.465
11296SOL    HW135785   0.413  12.815  11.403
11296SOL    HW235786   0.339  12.711  11.484
11297SOL     OW35787  12.141  13.396   0.050
11297SOL    HW135788  12.161  13.384   0.143
11297SOL    HW235789  12.190  13.473   0.025
11298SOL     OW35790   5.717   1.175  11.280
11298SOL    HW135791   5.753   1.264  11.280
11298SOL    HW235792   5.786   1.122  11.319
11299SOL     OW35793  11.473   4.173   6.976
11299SOL    HW135794  11.412   4.246   6.988
11299SOL    HW235795  11.532   4.178   7.051
11300SOL     OW35796  11.690   7.184   0.655
11300SOL    HW135797  11.746   7.230   0.718
11300SOL    HW235798  11.632   7.132   0.710
11301SOL     OW35799   3.093   9.710   3.016
11301SOL    HW135800   3.149   9.637   3.042
11301SOL    HW235801   3.139   9.749   2.941
11302SOL     OW35802  11.961   0.811  12.019
11302SOL    HW135803  12.037   0.826  11.962
11302SOL    HW235804  11.969   0.880  12.086
11303SOL     OW35805   6.186   9.103  10.165
11303SOL    HW135806   6.134   9.180  10.186
11303SOL    HW235807   6.123   9.032  10.161
11304SOL     OW35808   2.939   3.954   2.911
11304SOL    HW135809   2.891   3.893   2.968
11304SOL    HW235810   2.874   3.980   2.846
11305SOL     OW35811  14.872   9.533   8.062
11305SOL    HW135812  14.868   9.581   8.145
11305SOL    HW235813   0.085   9.550   8.029
11306SOL     OW35814   1.152   0.559   9.916
11306SOL    HW135815   1.108   0.643   9.916
11306SOL    HW235816   1.209   0.561   9.839
11307SOL     OW35817   8.475   1.518  10.255
11307SOL    HW135818   8.417   1.447  10.227
11307SOL    HW235819   8.519   1.483  10.333
11308SOL     OW35820   2.859   2.381   9.457
11308SOL    HW135821   2.862   2.437   9.534
11308SOL    HW235822   2.770   2.391   9.423
11309SOL     OW35823  13.123   3.729  14.276
11309SOL    HW135824  13.186   3.707  14.207
11309SOL    HW235825  13.177   3.747  14.353
11310SOL     OW35826   3.436   2.311  14.749
11310SOL    HW135827   3.426   2.383  14.812
11310SOL    HW235828   3.347   2.298  14.714
11311SOL     OW35829   4.334   9.920   2.621
11311SOL    HW135830   4.406   9.884   2.569
11311SOL    HW235831   4.338  10.014   2.603
11312SOL     OW35832  12.904  13.277   5.477
11312SOL    HW135833  12.925  13.211   5.543
11312SOL    HW235834  12.841  13.335   5.519
11313SOL     OW35835   0.589   8.459   9.755
11313SOL    HW135836   0.585   8.477   9.660
11313SOL    HW235837   0.513   8.404   9.772
11314SOL     OW35838   6.444  11.473  13.766
11314SOL    HW135839   6.444  11.484  13.671
11314SOL    HW235840   6.521  11.519  13.796
11315SOL     OW35841   2.419   5.989   5.059
11315SOL    HW135842   2.434   5.930   4.985
11315SOL    HW235843   2.335   5.961   5.095
11316SOL     OW35844  10.465  12.694   5.684
11316SOL    HW135845  10.456  12.658   5.595
11316SOL    HW235846  10.397  12.761   5.689
11317SOL     OW35847   6.334   9.448   9.720
11317SOL    HW135848   6.251   9.494   9.721
11317SOL    HW235849   6.339   9.404   9.805
11318SOL     OW35850   8.010   7.895   5.314
11318SOL    HW135851   8.027   7.979   5.271
11318SOL    HW235852   7.990   7.835   5.242
11319SOL     OW35853   2.820   7.712  12.443
11319SOL    HW135854   2.738   7.672  12.472
11319SOL    HW235855   2.795   7.801  12.417
11320SOL     OW35856   5.487   4.581   9.643
11320SOL    HW135857   5.500   4.487   9.656
11320SOL    HW235858   5.454   4.613   9.727
11321SOL     OW35859  12.680  11.436   7.541
11321SOL    HW135860  12.596  11.456   7.500
11321SOL    HW235861  12.681  11.488   7.622
11322SOL     OW35862   0.654   1.006  11.740
11322SOL    HW135863   0.587   1.069  11.713
11322SOL    HW235864   0.719   1.008  11.669
11323SOL     OW35865   5.495   5.685  12.814
11323SOL    HW135866   5.516   5.692  12.907
11323SOL    HW235867   5.452   5.769  12.793
11324SOL     OW35868   5.376  10.143   3.022
11324SOL    HW135869   5.289  10.125   2.986
11324SOL    HW235870   5.418  10.196   2.954
11325SOL     OW35871   5.676  11.011   1.156
11325SOL    HW135872   5.643  11.101   1.164
11325SOL    HW235873   5.604  10.957   1.189
11326SOL     OW35874   6.492   6.078  12.288
11326SOL    HW135875   6.414   6.118  12.249
11326SOL    HW235876   6.461   6.042  12.371
11327SOL     OW35877   5.121  13.971  11.462
11327SOL    HW135878   5.146  14.034  11.530
11327SOL    HW235879   5.066  13.907  11.507
11328SOL     OW35880  14.742   1.943   7.357
11328SOL    HW135881  14.726   1.926   7.450
11328SOL    HW235882  14.771   1.858   7.322
11329SOL     OW35883  13.354   7.319  11.647
11329SOL    HW135884  13.433   7.276  11.614
11329SOL    HW235885  13.387   7.384  11.709
11330SOL     OW35886  11.822   2.384   8.337
11330SOL    HW135887  11.743   2.438   8.342
11330SOL    HW235888  11.848   2.372   8.428
11331SOL     OW35889   2.699   1.956  11.110
11331SOL    HW135890   2.790   1.936  11.090
11331SOL    HW235891   2.650   1.878  11.081
11332SOL     OW35892  14.522  10.186  14.047
11332SOL    HW135893  14.539  10.105  14.094
11332SOL    HW235894  14.558  10.170  13.959
11333SOL     OW35895   6.726   8.487   2.283
11333SOL    HW135896   6.817   8.512   2.268
11333SOL    HW235897   6.729   8.392   2.294
11334SOL     OW35898   6.093   7.067   5.755
11334SOL    HW135899   6.128   7.003   5.693
11334SOL    HW235900   6.001   7.045   5.763
11335SOL     OW35901  12.640   2.825  11.167
11335SOL    HW135902  12.633   2.920  11.172
11335SOL    HW235903  12.563   2.793  11.215
11336SOL     OW35904  13.037   8.406   1.786
11336SOL    HW135905  12.979   8.331   1.773
11336SOL    HW235906  12.981   8.482   1.772
11337SOL     OW35907   0.712   0.560   7.056
11337SOL    HW135908   0.732   0.559   6.962
11337SOL    HW235909   0.795   0.536   7.098
11338SOL     OW35910  11.896   4.039   3.939
11338SOL    HW135911  11.961   3.988   3.891
11338SOL    HW235912  11.938   4.056   4.024
11339SOL     OW35913   8.629   9.157   4.252
11339SOL    HW135914   8.560   9.179   4.190
11339SOL    HW235915   8.676   9.239   4.267
11340SOL     OW35916   6.996   5.453   4.758
11340SOL    HW135917   7.031   5.433   4.671
11340SOL    HW235918   6.970   5.368   4.793
11341SOL     OW35919   3.706  13.234   8.982
11341SOL    HW135920   3.762  13.267   8.911
11341SOL    HW235921   3.718  13.297   9.053
11342SOL     OW35922  14.829  11.135   2.079
11342SOL    HW135923  14.797  11.050   2.048
11342SOL    HW235924  14.752  11.176   2.120
11343SOL     OW35925   0.244   3.769  13.022
11343SOL    HW135926   0.150   3.757  13.011
11343SOL    HW235927   0.260   3.860  12.998
11344SOL     OW35928   1.349   9.996   2.456
11344SOL    HW135929   1.257  10.012   2.473
11344SOL    HW235930   1.353   9.976   2.362
11345SOL     OW35931   2.992   3.691   3.466
11345SOL    HW135932   2.938   3.770   3.474
11345SOL    HW235933   3.049   3.693   3.543
11346SOL     OW35934   1.225  10.983   3.078
11346SOL    HW135935   1.301  10.969   3.136
11346SOL    HW235936   1.230  11.075   3.054
11347SOL     OW35937   6.582   6.831   3.512
11347SOL    HW135938   6.599   6.842   3.419
11347SOL    HW235939   6.627   6.749   3.535
11348SOL     OW35940   0.052   7.657   2.604
11348SOL    HW135941  14.842   7.690   2.574
11348SOL    HW235942   0.038   7.638   2.697
11349SOL     OW35943   7.655   4.009   0.381
11349SOL    HW135944   7.642   4.020   0.287
11349SOL    HW235945   7.745   4.038   0.396
11350SOL     OW35946   9.416   6.370   6.969
11350SOL    HW135947   9.416   6.291   7.023
11350SOL    HW235948   9.337   6.418   6.997
11351SOL     OW35949   7.635   8.349   8.917
11351SOL    HW135950   7.715   8.399   8.899
11351SOL    HW235951   7.667   8.266   8.953
11352SOL     OW35952  10.237  13.347  10.532
11352SOL    HW135953  10.153  13.392  10.522
11352SOL    HW235954  10.218  13.256  10.509
11353SOL     OW35955  13.070   1.956  12.290
11353SOL    HW135956  12.990   1.949  12.237
11353SOL    HW235957  13.039   1.987  12.375
11354SOL     OW35958   7.654   8.142  12.856
11354SOL    HW135959   7.629   8.229  12.825
11354SOL    HW235960   7.749   8.147  12.867
11355SOL     OW35961   4.407  12.630   9.144
11355SOL    HW135962   4.378  12.707   9.193
11355SOL    HW235963   4.460  12.580   9.206
11356SOL     OW35964   0.311  13.845  12.617
11356SOL    HW135965   0.263  13.809  12.542
11356SOL    HW235966   0.324  13.937  12.595
11357SOL     OW35967   9.220   6.730   7.142
11357SOL    HW135968   9.208   6.661   7.076
11357SOL    HW235969   9.296   6.780   7.111
11358SOL     OW35970  12.422   8.532   0.720
11358SOL    HW135971  12.470   8.563   0.643
11358SOL    HW235972  12.339   8.578   0.716
11359SOL     OW35973   1.362   6.010   7.703
11359SOL    HW135974   1.382   6.037   7.613
11359SOL    HW235975   1.300   6.074   7.734
11360SOL     OW35976   2.990  14.805   6.863
11360SOL    HW135977   3.073  14.765   6.888
11360SOL    HW235978   2.965  14.760   6.782
11361SOL     OW35979  11.297  11.535  10.760
11361SOL    HW135980  11.334  11.459  10.805
11361SOL    HW235981  11.217  11.503  10.720
11362SOL     OW35982  12.524   8.682   3.255
11362SOL    HW135983  12.538   8.775   3.236
11362SOL    HW235984  12.610   8.643   3.248
11363SOL     OW35985   4.768   9.259   2.244
11363SOL    HW135986   4.711   9.238   2.318
11363SOL    HW235987   4.824   9.182   2.233
11364SOL     OW35988  14.695   9.700  14.544
11364SOL    HW135989  14.775   9.753  14.541
11364SOL    HW235990  14.687   9.672  14.635
11365SOL     OW35991   8.915  12.721   0.121
11365SOL    HW135992   8.977  12.748   0.053
11365SOL    HW235993   8.911  12.796   0.180
11366SOL     OW35994  11.327   7.735   9.072
11366SOL    HW135995  11.238   7.717   9.103
11366SOL    HW235996  11.383   7.713   9.146
11367SOL     OW35997  12.281  14.063   1.649
11367SOL    HW135998  12.192  14.043   1.679
11367SOL    HW235999  12.317  13.977   1.626
11368SOL     OW36000  13.526  12.799   3.565
11368SOL    HW136001  13.567  12.869   3.514
11368SOL    HW236002  13.450  12.772   3.513
11369SOL     OW36003   2.193   7.333   0.356
11369SOL    HW136004   2.278   7.368   0.383
11369SOL    HW236005   2.130   7.373   0.416
11370SOL     OW36006   4.700   7.581  14.486
11370SOL    HW136007   4.605   7.588  14.478
11370SOL    HW236008   4.713   7.504  14.541
11371SOL     OW36009  11.193   9.177  11.853
11371SOL    HW136010  11.250   9.170  11.930
11371SOL    HW236011  11.251   9.207  11.783
11372SOL     OW36012   9.439   8.261   8.610
11372SOL    HW136013   9.510   8.198   8.597
11372SOL    HW236014   9.361   8.214   8.580
11373SOL     OW36015   9.522  13.636   0.847
11373SOL    HW136016   9.549  13.726   0.865
11373SOL    HW236017   9.598  13.583   0.871
11374SOL     OW36018   6.353   5.921  12.465
11374SOL    HW136019   6.321   5.833  12.442
11374SOL    HW236020   6.405   5.908  12.544
11375SOL     OW36021  10.922   2.881  12.254
11375SOL    HW136022  10.859   2.945  12.221
11375SOL    HW236023  10.870   2.821  12.307
11376SOL     OW36024  11.044  14.229  13.750
11376SOL    HW136025  11.097  14.220  13.829
11376SOL    HW236026  10.954  14.240  13.783
11377SOL     OW36027  12.539   4.396   7.118
11377SOL    HW136028  12.472   4.330   7.134
11377SOL    HW236029  12.566   4.381   7.027
11378SOL     OW36030  14.001   0.252   6.453
11378SOL    HW136031  14.066   0.290   6.393
11378SOL    HW236032  13.932   0.220   6.396
11379SOL     OW36033  11.653   7.209  12.340
11379SOL    HW136034  11.706   7.140  12.299
11379SOL    HW236035  11.592   7.161  12.397
11380SOL     OW36036   9.388   9.566   6.984
11380SOL    HW136037   9.444   9.636   6.949
11380SOL    HW236038   9.299   9.596   6.966
11381SOL     OW36039   9.241   1.699   9.907
11381SOL    HW136040   9.217   1.779   9.953
11381SOL    HW236041   9.334   1.687   9.927
11382SOL     OW36042   4.764  11.148  10.160
11382SOL    HW136043   4.751  11.242  10.179
11382SOL    HW236044   4.829  11.120  10.224
11383SOL     OW36045   9.863   4.765  14.158
11383SOL    HW136046   9.880   4.779  14.065
11383SOL    HW236047   9.838   4.851  14.191
11384SOL     OW36048   0.984  14.366   9.933
11384SOL    HW136049   1.072  14.398   9.955
11384SOL    HW236050   0.928  14.443   9.942
11385SOL     OW36051   8.224  14.803   3.004
11385SOL    HW136052   8.254  14.742   3.071
11385SOL    HW236053   8.151  14.759   2.961
11386SOL     OW36054  14.330   5.913   5.025
11386SOL    HW136055  14.263   5.849   5.005
11386SOL    HW236056  14.287   5.978   5.081
11387SOL     OW36057   7.148  12.186   3.591
11387SOL    HW136058   7.236  12.221   3.601
11387SOL    HW236059   7.111  12.189   3.679
11388SOL     OW36060   6.781  10.572   1.738
11388SOL    HW136061   6.692  10.541   1.722
11388SOL    HW236062   6.808  10.610   1.654
11389SOL     OW36063   6.312  13.300   4.590
11389SOL    HW136064   6.252  13.267   4.524
11389SOL    HW236065   6.394  13.254   4.574
11390SOL     OW36066   2.350   6.337   8.204
11390SOL    HW136067   2.413   6.266   8.213
11390SOL    HW236068   2.400   6.416   8.223
11391SOL     OW36069   1.653  13.422  13.244
11391SOL    HW136070   1.643  13.427  13.149
11391SOL    HW236071   1.601  13.494  13.278
11392SOL     OW36072   5.014   9.391  12.746
11392SOL    HW136073   4.958   9.367  12.672
11392SOL    HW236074   5.089   9.331  12.739
11393SOL     OW36075  14.457   1.971  12.870
11393SOL    HW136076  14.379   1.964  12.814
11393SOL    HW236077  14.475   2.065  12.874
11394SOL     OW36078   9.168   2.990   7.037
11394SOL    HW136079   9.145   3.082   7.026
11394SOL    HW236080   9.241   2.990   7.098
11395SOL     OW36081   7.123   4.889   1.820
11395SOL    HW136082   7.088   4.835   1.749
11395SOL    HW236083   7.137   4.975   1.781
11396SOL     OW36084   7.648   2.286   8.317
11396SOL    HW136085   7.607   2.348   8.378
11396SOL    HW236086   7.588   2.212   8.314
11397SOL     OW36087  11.938   1.279  11.875
11397SOL    HW136088  11.865   1.219  11.886
11397SOL    HW236089  11.937   1.303  11.783
11398SOL     OW36090   5.436   7.216   6.052
11398SOL    HW136091   5.386   7.164   6.115
11398SOL    HW236092   5.398   7.303   6.057
11399SOL     OW36093   2.319  12.739   3.851
11399SOL    HW136094   2.302  12.709   3.940
11399SOL    HW236095   2.268  12.681   3.795
11400SOL     OW36096   8.898  12.179  12.866
11400SOL    HW136097   8.893  12.272  12.885
11400SOL    HW236098   8.976  12.169  12.812
11401SOL     OW36099  10.773   6.676   2.708
11401SOL    HW136100  10.680   6.662   2.690
11401SOL    HW236101  10.818   6.647   2.628
11402SOL     OW36102   5.005   8.634   8.550
11402SOL    HW136103   4.995   8.557   8.493
11402SOL    HW236104   5.087   8.618   8.597
11403SOL     OW36105  10.071   3.410   6.087
11403SOL    HW136106  10.102   3.379   6.173
11403SOL    HW236107  10.112   3.350   6.025
11404SOL     OW36108   4.912   5.870   4.630
11404SOL    HW136109   4.932   5.941   4.691
11404SOL    HW236110   4.993   5.819   4.624
11405SOL     OW36111  12.826   9.606   6.166
11405SOL    HW136112  12.761   9.561   6.112
11405SOL    HW236113  12.799   9.698   6.165
11406SOL     OW36114   4.534   9.594   2.887
11406SOL    HW136115   4.500   9.545   2.812
11406SOL    HW236116   4.460   9.647   2.917
11407SOL     OW36117  10.600  11.447   4.551
11407SOL    HW136118  10.630  11.447   4.642
11407SOL    HW236119  10.632  11.529   4.515
11408SOL     OW36120  10.562   2.286   2.942
11408SOL    HW136121  10.652   2.278   2.974
11408SOL    HW236122  10.537   2.376   2.963
11409SOL     OW36123   9.347   4.969   4.994
11409SOL    HW136124   9.287   5.020   4.939
11409SOL    HW236125   9.372   4.894   4.940
11410SOL     OW36126   2.708  10.061   2.444
11410SOL    HW136127   2.720  10.145   2.488
11410SOL    HW236128   2.790  10.048   2.395
11411SOL     OW36129   6.177   9.954  11.761
11411SOL    HW136130   6.202   9.965  11.853
11411SOL    HW236131   6.231  10.018  11.714
11412SOL     OW36132   0.671   0.920  11.055
11412SOL    HW136133   0.707   1.008  11.050
11412SOL    HW236134   0.642   0.900  10.966
11413SOL     OW36135   7.953  10.432   6.454
11413SOL    HW136136   7.883  10.462   6.512
11413SOL    HW236137   8.032  10.433   6.509
11414SOL     OW36138   8.349   0.638  14.235
11414SOL    HW136139   8.418   0.702  14.220
11414SOL    HW236140   8.370   0.566  14.175
11415SOL     OW36141   5.901   3.225   8.467
11415SOL    HW136142   5.907   3.315   8.436
11415SOL    HW236143   5.843   3.229   8.543
11416SOL     OW36144   6.543   6.297  10.865
11416SOL    HW136145   6.527   6.218  10.814
11416SOL    HW236146   6.632   6.287  10.898
11417SOL     OW36147  14.210  10.750   1.444
11417SOL    HW136148  14.119  10.733   1.420
11417SOL    HW236149  14.249  10.787   1.365
11418SOL     OW36150   4.530   1.283   2.286
11418SOL    HW136151   4.564   1.312   2.202
11418SOL    HW236152   4.499   1.193   2.270
11419SOL     OW36153   2.028  12.175   6.383
11419SOL    HW136154   1.950  12.162   6.329
11419SOL    HW236155   2.072  12.251   6.345
11420SOL     OW36156   5.165   1.148   8.315
11420SOL    HW136157   5.229   1.101   8.369
11420SOL    HW236158   5.100   1.082   8.292
11421SOL     OW36159   1.077  12.810  10.186
11421SOL    HW136160   0.993  12.829  10.229
11421SOL    HW236161   1.130  12.888  10.203
11422SOL     OW36162   8.960  11.064  11.484
11422SOL    HW136163   8.987  11.064  11.576
11422SOL    HW236164   9.043  11.059  11.435
11423SOL     OW36165   5.136   5.370   0.473
11423SOL    HW136166   5.231   5.379   0.470
11423SOL    HW236167   5.122   5.277   0.491
11424SOL     OW36168   5.806   4.893   6.475
11424SOL    HW136169   5.862   4.946   6.418
11424SOL    HW236170   5.717   4.925   6.456
11425SOL     OW36171  12.580   9.560   2.031
11425SOL    HW136172  12.540   9.613   2.100
11425SOL    HW236173  12.635   9.621   1.982
11426SOL     OW36174   1.633   8.209   3.813
11426SOL    HW136175   1.708   8.164   3.852
11426SOL    HW236176   1.581   8.138   3.775
11427SOL     OW36177   8.375   0.295   4.609
11427SOL    HW136178   8.320   0.218   4.597
11427SOL    HW236179   8.349   0.355   4.539
11428SOL     OW36180  13.694   9.523   7.568
11428SOL    HW136181  13.706   9.568   7.485
11428SOL    HW236182  13.716   9.589   7.634
11429SOL     OW36183  11.291   0.185   3.380
11429SOL    HW136184  11.215   0.152   3.429
11429SOL    HW236185  11.361   0.124   3.401
11430SOL     OW36186   3.419  13.467   8.587
11430SOL    HW136187   3.386  13.412   8.658
11430SOL    HW236188   3.352  13.460   8.519
11431SOL     OW36189   7.642   6.216   9.575
11431SOL    HW136190   7.670   6.164   9.500
11431SOL    HW236191   7.700   6.292   9.574
11432SOL     OW36192   6.210   5.337   3.827
11432SOL    HW136193   6.195   5.356   3.919
11432SOL    HW236194   6.304   5.350   3.814
11433SOL     OW36195   2.612   6.139   4.800
11433SOL    HW136196   2.603   6.161   4.708
11433SOL    HW236197   2.706   6.149   4.819
11434SOL     OW36198  14.701   6.568  10.257
11434SOL    HW136199  14.733   6.483  10.227
11434SOL    HW236200  14.616   6.578  10.215
11435SOL     OW36201   5.467   0.710  14.016
11435SOL    HW136202   5.481   0.746  13.928
11435SOL    HW236203   5.498   0.620  14.011
11436SOL     OW36204   3.609  12.785   7.969
11436SOL    HW136205   3.532  12.737   7.938
11436SOL    HW236206   3.605  12.869   7.923
11437SOL     OW36207   8.100  10.818   1.815
11437SOL    HW136208   8.111  10.765   1.735
11437SOL    HW236209   8.119  10.907   1.787
11438SOL     OW36210   7.049   0.869   2.891
11438SOL    HW136211   7.029   0.866   2.985
11438SOL    HW236212   6.964   0.888   2.850
11439SOL     OW36213  10.220  12.327   9.033
11439SOL    HW136214  10.179  12.241   9.036
11439SOL    HW236215  10.298  12.319   9.087
11440SOL     OW36216   0.534  13.889  14.820
11440SOL    HW136217   0.550  13.798  14.845
11440SOL    HW236218   0.585  13.940   0.008
11441SOL     OW36219   9.535  10.184  13.592
11441SOL    HW136220   9.452  10.178  13.640
11441SOL    HW236221   9.596  10.130  13.643
11442SOL     OW36222   2.481   9.707  12.276
11442SOL    HW136223   2.418   9.635  12.267
11442SOL    HW236224   2.453   9.754  12.355
11443SOL     OW36225   8.401   5.627  13.472
11443SOL    HW136226   8.480   5.573  13.463
11443SOL    HW236227   8.335   5.583  13.419
11444SOL     OW36228   0.556  10.442   5.617
11444SOL    HW136229   0.570  10.526   5.574
11444SOL    HW236230   0.462  10.441   5.637
11445SOL     OW36231   7.411  11.333   6.325
11445SOL    HW136232   7.365  11.255   6.295
11445SOL    HW236233   7.500  11.323   6.291
11446SOL     OW36234   5.260  12.321  13.898
11446SOL    HW136235   5.225  12.339  13.811
11446SOL    HW236236   5.205  12.374  13.956
11447SOL     OW36237  11.683  14.691  14.526
11447SOL    HW136238  11.602  14.727  14.561
11447SOL    HW236239  11.736  14.768  14.504
11448SOL     OW36240   9.765  13.046   3.735
11448SOL    HW136241   9.756  12.966   3.684
11448SOL    HW236242   9.696  13.104   3.701
11449SOL     OW36243  12.343   3.907   9.830
11449SOL    HW136244  12.323   3.860   9.911
11449SOL    HW236245  12.405   3.850   9.783
11450SOL     OW36246   5.511   1.453  13.764
11450SOL    HW136247   5.585   1.467  13.705
11450SOL    HW236248   5.468   1.539  13.769
11451SOL     OW36249  10.292   7.461   6.575
11451SOL    HW136250  10.302   7.517   6.498
11451SOL    HW236251  10.363   7.488   6.634
11452SOL     OW36252   0.773   2.236   7.467
11452SOL    HW136253   0.825   2.200   7.539
11452SOL    HW236254   0.824   2.312   7.437
11453SOL     OW36255   2.431   7.392  12.886
11453SOL    HW136256   2.377   7.443  12.947
11453SOL    HW236257   2.394   7.304  12.888
11454SOL     OW36258  14.075   1.681   4.956
11454SOL    HW136259  14.104   1.657   5.044
11454SOL    HW236260  14.155   1.683   4.904
11455SOL     OW36261   6.152   0.516  11.105
11455SOL    HW136262   6.188   0.436  11.067
11455SOL    HW236263   6.193   0.587  11.055
11456SOL     OW36264   1.896   3.845   7.187
11456SOL    HW136265   1.991   3.856   7.187
11456SOL    HW236266   1.861   3.934   7.187
11457SOL     OW36267   0.165   6.114   4.713
11457SOL    HW136268   0.154   6.095   4.806
11457SOL    HW236269   0.210   6.198   4.711
11458SOL     OW36270   9.944   1.876   9.282
11458SOL    HW136271  10.013   1.940   9.301
11458SOL    HW236272   9.873   1.899   9.341
11459SOL     OW36273   9.461   1.569  11.039
11459SOL    HW136274   9.367   1.555  11.026
11459SOL    HW236275   9.484   1.515  11.114
11460SOL     OW36276  14.249   5.140   8.172
11460SOL    HW136277  14.280   5.136   8.263
11460SOL    HW236278  14.185   5.069   8.166
11461SOL     OW36279   7.533  13.395   1.328
11461SOL    HW136280   7.618  13.434   1.305
11461SOL    HW236281   7.555  13.326   1.391
11462SOL     OW36282   4.991   2.976   4.908
11462SOL    HW136283   4.990   2.884   4.881
11462SOL    HW236284   4.912   2.987   4.961
11463SOL     OW36285   9.102  10.482   7.823
11463SOL    HW136286   9.187  10.450   7.791
11463SOL    HW236287   9.122  10.566   7.864
11464SOL     OW36288  12.441   6.651   6.215
11464SOL    HW136289  12.351   6.684   6.220
11464SOL    HW236290  12.475   6.661   6.304
11465SOL     OW36291   7.824  10.346   5.766
11465SOL    HW136292   7.768  10.393   5.705
11465SOL    HW236293   7.766  10.320   5.837
11466SOL     OW36294  11.207   1.672   3.542
11466SOL    HW136295  11.256   1.590   3.533
11466SOL    HW236296  11.202   1.706   3.453
11467SOL     OW36297   8.386  14.689   4.523
11467SOL    HW136298   8.440  14.623   4.566
11467SOL    HW236299   8.318  14.639   4.477
11468SOL     OW36300   2.330   0.646   0.170
11468SOL    HW136301   2.282   0.728   0.185
11468SOL    HW236302   2.421   0.675   0.156
11469SOL     OW36303  11.225   9.097   8.170
11469SOL    HW136304  11.258   9.186   8.181
11469SOL    HW236305  11.255   9.050   8.248
11470SOL     OW36306   1.817   0.935   4.528
11470SOL    HW136307   1.724   0.915   4.529
11470SOL    HW236308   1.842   0.929   4.436
11471SOL     OW36309   0.237   5.651   2.719
11471SOL    HW136310   0.201   5.689   2.800
11471SOL    HW236311   0.257   5.561   2.742
11472SOL     OW36312   2.797   3.870   5.612
11472SOL    HW136313   2.866   3.881   5.546
11472SOL    HW236314   2.723   3.920   5.578
11473SOL     OW36315   9.981   9.103  11.653
11473SOL    HW136316   9.933   9.035  11.605
11473SOL    HW236317  10.036   9.145  11.587
11474SOL     OW36318   4.376   7.637   0.362
11474SOL    HW136319   4.369   7.678   0.449
11474SOL    HW236320   4.315   7.685   0.307
11475SOL     OW36321  11.087   2.487   9.268
11475SOL    HW136322  10.991   2.483   9.271
11475SOL    HW236323  11.105   2.567   9.217
11476SOL     OW36324  14.196   0.021   9.038
11476SOL    HW136325  14.288  14.868   9.047
11476SOL    HW236326  14.183   0.084   9.109
11477SOL     OW36327   8.835   8.782  14.399
11477SOL    HW136328   8.810   8.739  14.317
11477SOL    HW236329   8.922   8.819  14.381
11478SOL     OW36330   7.087   9.913   3.340
11478SOL    HW136331   7.003   9.897   3.384
11478SOL    HW236332   7.094   9.843   3.275
11479SOL     OW36333   7.182   8.415   4.026
11479SOL    HW136334   7.104   8.397   3.973
11479SOL    HW236335   7.190   8.339   4.083
11480SOL     OW36336  11.299  14.830  13.118
11480SOL    HW136337  11.233   0.016  13.086
11480SOL    HW236338  11.257  14.783  13.190
11481SOL     OW36339   7.423   6.128   0.124
11481SOL    HW136340   7.482   6.175   0.183
11481SOL    HW236341   7.480   6.067   0.077
11482SOL     OW36342  12.031   0.712   0.358
11482SOL    HW136343  11.962   0.704   0.424
11482SOL    HW236344  12.097   0.767   0.400
11483SOL     OW36345  13.586  11.912   7.993
11483SOL    HW136346  13.579  11.817   7.978
11483SOL    HW236347  13.679  11.926   8.009
11484SOL     OW36348  11.038  11.421  11.898
11484SOL    HW136349  11.071  11.420  11.988
11484SOL    HW236350  10.957  11.370  11.902
11485SOL     OW36351  11.995   2.453   9.525
11485SOL    HW136352  11.993   2.389   9.596
11485SOL    HW236353  11.912   2.441   9.479
11486SOL     OW36354   6.679   9.942   3.780
11486SOL    HW136355   6.591   9.968   3.752
11486SOL    HW236356   6.669   9.850   3.805
11487SOL     OW36357   6.346   7.238  14.714
11487SOL    HW136358   6.264   7.264  14.672
11487SOL    HW236359   6.388   7.321  14.737
11488SOL     OW36360   7.408  12.228  14.647
11488SOL    HW136361   7.356  12.304  14.622
11488SOL    HW236362   7.497  12.262  14.660
11489SOL     OW36363  13.809   8.190   9.526
11489SOL    HW136364  13.869   8.208   9.599
11489SOL    HW236365  13.722   8.206   9.562
11490SOL     OW36366   5.099   9.348   9.411
11490SOL    HW136367   5.053   9.264   9.405
11490SOL    HW236368   5.119   9.370   9.320
11491SOL     OW36369  11.838  13.159  11.644
11491SOL    HW136370  11.825  13.247  11.610
11491SOL    HW236371  11.909  13.123  11.592
11492SOL     OW36372   6.722   1.179  14.826
11492SOL    HW136373   6.742   1.234   0.026
11492SOL    HW236374   6.701   1.241  14.756
11493SOL     OW36375  12.517   3.044   8.128
11493SOL    HW136376  12.527   3.035   8.223
11493SOL    HW236377  12.581   3.110   8.103
11494SOL     OW36378   3.970   5.212   4.015
11494SOL    HW136379   3.987   5.186   4.106
11494SOL    HW236380   3.898   5.155   3.987
11495SOL     OW36381   4.426   9.922  13.327
11495SOL    HW136382   4.468   9.878  13.401
11495SOL    HW236383   4.458   9.874  13.250
11496SOL     OW36384  10.793   0.121   9.902
11496SOL    HW136385  10.724   0.128   9.969
11496SOL    HW236386  10.752   0.073   9.830
11497SOL     OW36387   7.721   9.110   5.835
11497SOL    HW136388   7.814   9.127   5.847
11497SOL    HW236389   7.689   9.186   5.786
11498SOL     OW36390   0.300  14.380   9.992
11498SOL    HW136391   0.280  14.471   9.969
11498SOL    HW236392   0.394  14.379  10.008
11499SOL     OW36393   7.552  11.268   7.438
11499SOL    HW136394   7.514  11.187   7.471
11499SOL    HW236395   7.637  11.241   7.402
11500SOL     OW36396   4.498  12.369  12.055
11500SOL    HW136397   4.592  12.377  12.035
11500SOL    HW236398   4.492  12.293  12.112
11501SOL     OW36399  10.358  10.463  10.400
11501SOL    HW136400  10.367  10.373  10.366
11501SOL    HW236401  10.421  10.514  10.349
11502SOL     OW36402   1.336  11.972   3.995
11502SOL    HW136403   1.423  11.945   3.965
11502SOL    HW236404   1.278  11.900   3.971
11503SOL     OW36405  12.909  10.855   7.865
11503SOL    HW136406  12.947  10.938   7.836
11503SOL    HW236407  12.835  10.841   7.807
11504SOL     OW36408   6.959   1.340   3.547
11504SOL    HW136409   7.028   1.279   3.572
11504SOL    HW236410   6.985   1.372   3.461
11505SOL     OW36411  13.206   9.249  13.103
11505SOL    HW136412  13.158   9.236  13.184
11505SOL    HW236413  13.285   9.196  13.112
11506SOL     OW36414  12.498   4.538  11.136
11506SOL    HW136415  12.417   4.539  11.085
11506SOL    HW236416  12.566   4.567  11.075
11507SOL     OW36417   4.795   6.076   1.263
11507SOL    HW136418   4.769   6.071   1.171
11507SOL    HW236419   4.720   6.042   1.312
11508SOL     OW36420   1.450   9.981   3.082
11508SOL    HW136421   1.495  10.063   3.064
11508SOL    HW236422   1.503   9.914   3.039
11509SOL     OW36423   9.772   8.404   9.299
11509SOL    HW136424   9.741   8.319   9.330
11509SOL    HW236425   9.742   8.408   9.208
11510SOL     OW36426   6.027   9.372  11.536
11510SOL    HW136427   5.939   9.333  11.543
11510SOL    HW236428   6.040   9.383  11.442
11511SOL     OW36429   1.823   0.078   7.915
11511SOL    HW136430   1.877   0.156   7.905
11511SOL    HW236431   1.884   0.012   7.949
11512SOL     OW36432   3.895   5.534   6.841
11512SOL    HW136433   3.929   5.574   6.761
11512SOL    HW236434   3.898   5.440   6.824
11513SOL     OW36435   9.199   6.926   5.089
11513SOL    HW136436   9.237   6.966   5.010
11513SOL    HW236437   9.149   6.996   5.130
11514SOL     OW36438   3.762   5.607  14.048
11514SOL    HW136439   3.705   5.672  14.089
11514SOL    HW236440   3.752   5.622  13.954
11515SOL     OW36441   7.482  12.436  11.199
11515SOL    HW136442   7.487  12.444  11.104
11515SOL    HW236443   7.558  12.383  11.223
11516SOL     OW36444   8.079   2.010   2.622
11516SOL    HW136445   8.099   2.101   2.646
11516SOL    HW236446   8.015   2.018   2.551
11517SOL     OW36447   4.892   4.564  13.172
11517SOL    HW136448   4.840   4.611  13.106
11517SOL    HW236449   4.904   4.628  13.242
11518SOL     OW36450   8.923   7.533   3.839
11518SOL    HW136451   8.874   7.616   3.839
11518SOL    HW236452   8.981   7.539   3.915
11519SOL     OW36453  12.932   7.835   3.229
11519SOL    HW136454  12.961   7.920   3.195
11519SOL    HW236455  13.008   7.800   3.275
11520SOL     OW36456  12.760   5.297   0.161
11520SOL    HW136457  12.747   5.372   0.102
11520SOL    HW236458  12.844   5.314   0.204
11521SOL     OW36459  13.920   1.050   8.336
11521SOL    HW136460  13.881   1.131   8.303
11521SOL    HW236461  13.981   1.023   8.267
11522SOL     OW36462   4.922   3.919   5.142
11522SOL    HW136463   4.972   3.908   5.223
11522SOL    HW236464   4.834   3.943   5.170
11523SOL     OW36465   8.528  10.581   0.471
11523SOL    HW136466   8.561  10.492   0.471
11523SOL    HW236467   8.484  10.591   0.387
11524SOL     OW36468   7.949   3.521   1.534
11524SOL    HW136469   7.858   3.546   1.544
11524SOL    HW236470   7.980   3.508   1.624
11525SOL     OW36471  12.863   9.411   0.614
11525SOL    HW136472  12.869   9.491   0.562
11525SOL    HW236473  12.953   9.391   0.639
11526SOL     OW36474  10.306   7.366   7.629
11526SOL    HW136475  10.335   7.345   7.540
11526SOL    HW236476  10.386   7.373   7.680
11527SOL     OW36477   2.794   3.419   8.968
11527SOL    HW136478   2.775   3.338   8.920
11527SOL    HW236479   2.869   3.397   9.023
11528SOL     OW36480  10.305  12.526  11.662
11528SOL    HW136481  10.297  12.461  11.731
11528SOL    HW236482  10.320  12.608  11.708
11529SOL     OW36483  11.747   6.956  12.263
11529SOL    HW136484  11.665   6.915  12.290
11529SOL    HW236485  11.792   6.889  12.213
11530SOL     OW36486   2.859  13.403  11.443
11530SOL    HW136487   2.871  13.495  11.465
11530SOL    HW236488   2.766  13.395  11.422
11531SOL     OW36489   9.183   4.979  14.550
11531SOL    HW136490   9.224   5.013  14.630
11531SOL    HW236491   9.089   4.978  14.571
11532SOL     OW36492   4.078   4.462   8.613
11532SOL    HW136493   4.092   4.490   8.703
11532SOL    HW236494   4.166   4.465   8.573
11533SOL     OW36495  11.759   7.356   4.795
11533SOL    HW136496  11.807   7.329   4.874
11533SOL    HW236497  11.823   7.406   4.744
11534SOL     OW36498   7.763   3.268   7.006
11534SOL    HW136499   7.808   3.199   7.054
11534SOL    HW236500   7.815   3.279   6.926
11535SOL     OW36501  11.662  13.278  14.582
11535SOL    HW136502  11.614  13.199  14.557
11535SOL    HW236503  11.614  13.313  14.656
11536SOL     OW36504   1.445   6.537   4.585
11536SOL    HW136505   1.499   6.611   4.613
11536SOL    HW236506   1.393   6.515   4.662
11537SOL     OW36507   9.376   5.299  12.922
11537SOL    HW136508   9.340   5.243  12.853
11537SOL    HW236509   9.438   5.243  12.968
11538SOL     OW36510   2.526  10.701   4.886
11538SOL    HW136511   2.536  10.654   4.969
11538SOL    HW236512   2.463  10.771   4.906
11539SOL     OW36513   4.779   6.223   3.024
11539SOL    HW136514   4.831   6.194   3.099
11539SOL    HW236515   4.688   6.211   3.052
11540SOL     OW36516   2.468   5.247   8.186
11540SOL    HW136517   2.416   5.259   8.265
11540SOL    HW236518   2.559   5.246   8.216
11541SOL     OW36519   4.123  14.852   6.070
11541SOL    HW136520   4.140   0.068   6.094
11541SOL    HW236521   4.036  14.853   6.030
11542SOL     OW36522  12.594   4.503  12.168
11542SOL    HW136523  12.606   4.598  12.162
11542SOL    HW236524  12.500   4.491  12.174
11543SOL     OW36525   8.418  12.277   7.708
11543SOL    HW136526   8.441  12.215   7.777
11543SOL    HW236527   8.453  12.238   7.628
11544SOL     OW36528   3.885  14.865   9.745
11544SOL    HW136529   3.927  14.785   9.713
11544SOL    HW236530   3.958   0.044   9.775
11545SOL     OW36531  10.217   9.693   7.908
11545SOL    HW136532  10.294   9.703   7.964
11545SOL    HW236533  10.253   9.662   7.825
11546SOL     OW36534   4.780   3.347  11.189
11546SOL    HW136535   4.745   3.375  11.274
11546SOL    HW236536   4.716   3.378  11.125
11547SOL     OW36537  14.851   9.785   2.183
11547SOL    HW136538  14.860   9.784   2.279
11547SOL    HW236539   0.005   9.697   2.156
11548SOL     OW36540   0.725   6.406  11.763
11548SOL    HW136541   0.770   6.355  11.830
11548SOL    HW236542   0.773   6.386  11.682
11549SOL     OW36543   1.881   1.295  11.198
11549SOL    HW136544   1.974   1.316  11.203
11549SOL    HW236545   1.843   1.335  11.277
11550SOL     OW36546   0.540   1.217   7.521
11550SOL    HW136547   0.546   1.221   7.616
11550SOL    HW236548   0.486   1.292   7.497
11551SOL     OW36549  12.726   0.786   1.032
11551SOL    HW136550  12.699   0.870   1.069
11551SOL    HW236551  12.657   0.725   1.059
11552SOL     OW36552   4.523   5.226  14.704
11552SOL    HW136553   4.473   5.238  14.623
11552SOL    HW236554   4.467   5.171  14.758
11553SOL     OW36555  12.498   6.162   1.412
11553SOL    HW136556  12.558   6.190   1.343
11553SOL    HW236557  12.553   6.112   1.472
11554SOL     OW36558   0.176   7.460   9.527
11554SOL    HW136559   0.135   7.503   9.603
11554SOL    HW236560   0.237   7.526   9.493
11555SOL     OW36561   1.480   3.570  11.934
11555SOL    HW136562   1.465   3.576  11.840
11555SOL    HW236563   1.486   3.476  11.952
11556SOL     OW36564   8.408   9.826  11.467
11556SOL    HW136565   8.475   9.845  11.532
11556SOL    HW236566   8.345   9.771  11.513
11557SOL     OW36567   9.342   7.968   2.267
11557SOL    HW136568   9.314   7.928   2.349
11557SOL    HW236569   9.269   8.026   2.243
11558SOL     OW36570   0.595   2.967   1.103
11558SOL    HW136571   0.619   2.952   1.195
11558SOL    HW236572   0.633   2.893   1.056
11559SOL     OW36573   6.207  13.893  11.278
11559SOL    HW136574   6.215  13.987  11.292
11559SOL    HW236575   6.253  13.853  11.351
11560SOL     OW36576   3.490   5.486  14.303
11560SOL    HW136577   3.582   5.469  14.325
11560SOL    HW236578   3.491   5.509  14.211
11561SOL     OW36579   4.256   7.469   8.987
11561SOL    HW136580   4.351   7.480   8.984
11561SOL    HW236581   4.236   7.408   8.916
11562SOL     OW36582   0.352   0.953   2.174
11562SOL    HW136583   0.298   0.901   2.115
11562SOL    HW236584   0.407   0.888   2.219
11563SOL     OW36585   0.380   3.802   3.979
11563SOL    HW136586   0.404   3.874   3.921
11563SOL    HW236587   0.343   3.844   4.057
11564SOL     OW36588   4.899   2.159  12.083
11564SOL    HW136589   4.817   2.176  12.128
11564SOL    HW236590   4.946   2.242  12.087
11565SOL     OW36591   0.761   3.920  11.910
11565SOL    HW136592   0.767   4.005  11.954
11565SOL    HW236593   0.814   3.931  11.831
11566SOL     OW36594   4.131   0.621   7.050
11566SOL    HW136595   4.218   0.641   7.015
11566SOL    HW236596   4.128   0.525   7.052
11567SOL     OW36597  14.318   2.915   6.103
11567SOL    HW136598  14.360   2.932   6.019
11567SOL    HW236599  14.244   2.858   6.082
11568SOL     OW36600   5.651  14.285  12.889
11568SOL    HW136601   5.570  14.336  12.884
11568SOL    HW236602   5.713  14.344  12.932
11569SOL     OW36603  11.681   2.539   3.140
11569SOL    HW136604  11.776   2.545   3.127
11569SOL    HW236605  11.668   2.452   3.179
11570SOL     OW36606   0.045  11.786   8.958
11570SOL    HW136607   0.127  11.824   8.987
11570SOL    HW236608   0.014  11.736   9.034
11571SOL     OW36609   4.489   5.909   1.629
11571SOL    HW136610   4.503   5.950   1.544
11571SOL    HW236611   4.507   5.978   1.692
11572SOL     OW36612  11.330   6.828   0.077
11572SOL    HW136613  11.315   6.807  14.860
11572SOL    HW236614  11.358   6.746   0.117
11573SOL     OW36615   1.924   4.011  12.297
11573SOL    HW136616   2.008   3.980  12.264
11573SOL    HW236617   1.890   3.938  12.349
11574SOL     OW36618   3.542   4.849   5.427
11574SOL    HW136619   3.570   4.867   5.516
11574SOL    HW236620   3.623   4.834   5.378
11575SOL     OW36621  10.943   2.573  10.622
11575SOL    HW136622  10.854   2.599  10.645
11575SOL    HW236623  10.983   2.548  10.706
11576SOL     OW36624   3.002  12.977   2.867
11576SOL    HW136625   2.987  13.060   2.911
11576SOL    HW236626   3.023  13.001   2.777
11577SOL     OW36627   3.487   4.323   9.671
11577SOL    HW136628   3.550   4.315   9.600
11577SOL    HW236629   3.539   4.323   9.750
11578SOL     OW36630   3.854  10.026   6.734
11578SOL    HW136631   3.823   9.965   6.667
11578SOL    HW236632   3.819   9.991   6.816
11579SOL     OW36633  10.967   8.383   2.943
11579SOL    HW136634  10.913   8.412   2.869
11579SOL    HW236635  10.946   8.290   2.953
11580SOL     OW36636   1.743   8.143  13.444
11580SOL    HW136637   1.820   8.195  13.469
11580SOL    HW236638   1.668   8.199  13.464
11581SOL     OW36639   3.719  14.233   1.889
11581SOL    HW136640   3.665  14.260   1.963
11581SOL    HW236641   3.749  14.145   1.912
11582SOL     OW36642   0.426   2.237   7.327
11582SOL    HW136643   0.418   2.212   7.418
11582SOL    HW236644   0.486   2.173   7.289
11583SOL     OW36645   8.332   2.674   6.732
11583SOL    HW136646   8.339   2.763   6.768
11583SOL    HW236647   8.251   2.640   6.767
11584SOL     OW36648  12.122   7.207   1.570
11584SOL    HW136649  12.082   7.205   1.483
11584SOL    HW236650  12.202   7.155   1.562
11585SOL     OW36651   1.547   5.367  11.916
11585SOL    HW136652   1.612   5.405  11.976
11585SOL    HW236653   1.478   5.334  11.972
11586SOL     OW36654   6.993   6.369  11.543
11586SOL    HW136655   6.965   6.456  11.574
11586SOL    HW236656   6.957   6.363  11.455
11587SOL     OW36657  13.294  13.890   2.119
11587SOL    HW136658  13.311  13.965   2.063
11587SOL    HW236659  13.381  13.855   2.140
11588SOL     OW36660  13.720   8.379   2.483
11588SOL    HW136661  13.729   8.468   2.516
11588SOL    HW236662  13.792   8.369   2.421
11589SOL     OW36663   3.164  10.833   5.851
11589SOL    HW136664   3.211  10.915   5.833
11589SOL    HW236665   3.193  10.774   5.782
11590SOL     OW36666   4.361   5.961   7.292
11590SOL    HW136667   4.383   5.870   7.275
11590SOL    HW236668   4.430   6.011   7.248
11591SOL     OW36669   1.450   2.342  11.246
11591SOL    HW136670   1.388   2.270  11.231
11591SOL    HW236671   1.451   2.352  11.341
11592SOL     OW36672   2.791  11.808   7.831
11592SOL    HW136673   2.874  11.829   7.874
11592SOL    HW236674   2.808  11.728   7.782
11593SOL     OW36675   5.036   3.069   6.969
11593SOL    HW136676   5.040   3.131   7.042
11593SOL    HW236677   5.069   2.987   7.005
11594SOL     OW36678   4.666   1.979  10.786
11594SOL    HW136679   4.708   2.051  10.739
11594SOL    HW236680   4.702   1.983  10.875
11595SOL     OW36681  12.541   3.933  13.270
11595SOL    HW136682  12.477   3.870  13.303
11595SOL    HW236683  12.530   4.010  13.325
11596SOL     OW36684   4.816  12.412  12.553
11596SOL    HW136685   4.872  12.439  12.626
11596SOL    HW236686   4.806  12.318  12.564
11597SOL     OW36687   7.297   3.514   2.098
11597SOL    HW136688   7.245   3.585   2.062
11597SOL    HW236689   7.351   3.484   2.025
11598SOL     OW36690   3.793   5.120  12.477
11598SOL    HW136691   3.842   5.137  12.396
11598SOL    HW236692   3.715   5.175  12.471
11599SOL     OW36693  13.539   2.723   8.013
11599SOL    HW136694  13.556   2.817   8.003
11599SOL    HW236695  13.594   2.682   7.946
11600SOL     OW36696  11.055  12.646   2.393
11600SOL    HW136697  11.095  12.710   2.335
11600SOL    HW236698  10.961  12.651   2.374
11601SOL     OW36699   3.592   0.972   4.396
11601SOL    HW136700   3.656   1.001   4.332
11601SOL    HW236701   3.555   1.052   4.433
11602SOL     OW36702  13.443   8.211   2.209
11602SOL    HW136703  13.434   8.116   2.216
11602SOL    HW236704  13.390   8.234   2.132
11603SOL     OW36705  13.566  12.513   9.533
11603SOL    HW136706  13.632  12.445   9.545
11603SOL    HW236707  13.573  12.537   9.440
11604SOL     OW36708  14.332   2.162   4.704
11604SOL    HW136709  14.360   2.225   4.637
11604SOL    HW236710  14.237   2.176   4.711
11605SOL     OW36711   7.281   4.136   7.019
11605SOL    HW136712   7.255   4.193   6.946
11605SOL    HW236713   7.231   4.170   7.093
11606SOL     OW36714   9.462   6.313   8.637
11606SOL    HW136715   9.471   6.365   8.557
11606SOL    HW236716   9.552   6.291   8.661
11607SOL     OW36717   5.624   1.804   0.964
11607SOL    HW136718   5.623   1.833   0.872
11607SOL    HW236719   5.592   1.880   1.012
11608SOL     OW36720  14.831  11.158   7.018
11608SOL    HW136721   0.038  11.113   7.001
11608SOL    HW236722  14.765  11.106   6.973
11609SOL     OW36723   1.013   1.182   5.093
11609SOL    HW136724   1.085   1.136   5.050
11609SOL    HW236725   0.941   1.119   5.094
11610SOL     OW36726   9.115  12.219   4.067
11610SOL    HW136727   9.177  12.180   4.129
11610SOL    HW236728   9.033  12.172   4.082
11611SOL     OW36729   6.798   5.336  10.750
11611SOL    HW136730   6.758   5.382  10.824
11611SOL    HW236731   6.805   5.402  10.681
11612SOL     OW36732   7.244   8.695   8.599
11612SOL    HW136733   7.251   8.787   8.622
11612SOL    HW236734   7.161   8.688   8.553
11613SOL     OW36735  10.532   8.388   2.978
11613SOL    HW136736  10.542   8.386   3.073
11613SOL    HW236737  10.514   8.480   2.958
11614SOL     OW36738   6.244   2.049   0.248
11614SOL    HW136739   6.322   1.995   0.248
11614SOL    HW236740   6.177   1.996   0.291
11615SOL     OW36741   2.722  12.273  14.399
11615SOL    HW136742   2.655  12.205  14.398
11615SOL    HW236743   2.762  12.267  14.486
11616SOL     OW36744   4.605  10.792   7.318
11616SOL    HW136745   4.586  10.700   7.300
11616SOL    HW236746   4.520  10.830   7.341
11617SOL     OW36747   3.503   7.661   4.623
11617SOL    HW136748   3.421   7.682   4.578
11617SOL    HW236749   3.505   7.565   4.625
11618SOL     OW36750   3.888   4.441  11.927
11618SOL    HW136751   3.923   4.518  11.973
11618SOL    HW236752   3.965   4.394  11.897
11619SOL     OW36753   4.423   8.956  12.320
11619SOL    HW136754   4.479   8.935  12.395
11619SOL    HW236755   4.471   9.025  12.273
11620SOL     OW36756   3.465  11.487   3.584
11620SOL    HW136757   3.426  11.401   3.568
11620SOL    HW236758   3.533  11.472   3.649
11621SOL     OW36759  10.824  14.232   9.129
11621SOL    HW136760  10.746  14.210   9.180
11621SOL    HW236761  10.791  14.259   9.044
11622SOL     OW36762  13.094   7.082   1.921
11622SOL    HW136763  13.107   6.994   1.886
11622SOL    HW236764  13.183   7.115   1.936
11623SOL     OW36765   3.827   8.370   2.200
11623SOL    HW136766   3.867   8.444   2.246
11623SOL    HW236767   3.741   8.360   2.241
11624SOL     OW36768   5.513   8.136   2.455
11624SOL    HW136769   5.608   8.140   2.446
11624SOL    HW236770   5.482   8.101   2.372
11625SOL     OW36771   1.722   0.296  11.786
11625SOL    HW136772   1.725   0.227  11.852
11625SOL    HW236773   1.629   0.320  11.781
11626SOL     OW36774   7.220   8.692   1.457
11626SOL    HW136775   7.241   8.645   1.376
11626SOL    HW236776   7.295   8.677   1.514
11627SOL     OW36777  13.131   2.537  12.427
11627SOL    HW136778  13.191   2.597  12.472
11627SOL    HW236779  13.050   2.586  12.419
11628SOL     OW36780   8.327   4.390   5.726
11628SOL    HW136781   8.339   4.348   5.641
11628SOL    HW236782   8.384   4.341   5.785
11629SOL     OW36783   1.583   1.776   5.308
11629SOL    HW136784   1.639   1.735   5.374
11629SOL    HW236785   1.504   1.722   5.305
11630SOL     OW36786   1.791   3.982   5.450
11630SOL    HW136787   1.867   4.008   5.502
11630SOL    HW236788   1.828   3.952   5.367
11631SOL     OW36789   3.045   8.590  11.848
11631SOL    HW136790   2.970   8.628  11.802
11631SOL    HW236791   3.060   8.506  11.804
11632SOL     OW36792  10.280   7.377   7.137
11632SOL    HW136793  10.256   7.302   7.082
11632SOL    HW236794  10.279   7.452   7.077
11633SOL     OW36795  10.409   0.099   1.922
11633SOL    HW136796  10.393   0.029   1.859
11633SOL    HW236797  10.500   0.123   1.909
11634SOL     OW36798  11.480   1.716   2.645
11634SOL    HW136799  11.558   1.692   2.596
11634SOL    HW236800  11.444   1.633   2.675
11635SOL     OW36801  11.591  11.815  11.732
11635SOL    HW136802  11.668  11.835  11.786
11635SOL    HW236803  11.578  11.893  11.679
11636SOL     OW36804  13.185   2.019   0.164
11636SOL    HW136805  13.227   2.101   0.188
11636SOL    HW236806  13.211   1.958   0.233
11637SOL     OW36807   5.218   5.705   8.636
11637SOL    HW136808   5.258   5.711   8.723
11637SOL    HW236809   5.197   5.613   8.626
11638SOL     OW36810  14.317   2.061   0.224
11638SOL    HW136811  14.343   2.124   0.291
11638SOL    HW236812  14.378   2.076   0.152
11639SOL     OW36813   0.533   6.986   7.047
11639SOL    HW136814   0.506   7.062   7.098
11639SOL    HW236815   0.608   7.016   6.996
11640SOL     OW36816   7.897   9.132   4.426
11640SOL    HW136817   7.834   9.060   4.416
11640SOL    HW236818   7.852   9.209   4.393
11641SOL     OW36819  11.729   1.428   5.079
11641SOL    HW136820  11.747   1.354   5.022
11641SOL    HW236821  11.634   1.424   5.095
11642SOL     OW36822  10.986   9.247  12.482
11642SOL    HW136823  10.986   9.320  12.545
11642SOL    HW236824  10.911   9.193  12.507
11643SOL     OW36825  11.230   7.445   3.847
11643SOL    HW136826  11.230   7.358   3.808
11643SOL    HW236827  11.273   7.501   3.782
11644SOL     OW36828   7.919   4.712   3.618
11644SOL    HW136829   7.982   4.654   3.576
11644SOL    HW236830   7.864   4.744   3.547
11645SOL     OW36831  12.205   5.024   8.884
11645SOL    HW136832  12.147   5.099   8.877
11645SOL    HW236833  12.161   4.965   8.946
11646SOL     OW36834  14.394  13.342  11.970
11646SOL    HW136835  14.450  13.265  11.963
11646SOL    HW236836  14.332  13.335  11.897
11647SOL     OW36837   0.612   2.674   9.807
11647SOL    HW136838   0.696   2.636   9.833
11647SOL    HW236839   0.568   2.693   9.890
11648SOL     OW36840  11.093  14.516  13.956
11648SOL    HW136841  11.116  14.578  14.025
11648SOL    HW236842  11.169  14.514  13.899
11649SOL     OW36843   7.627   4.853   9.662
11649SOL    HW136844   7.692   4.918   9.634
11649SOL    HW236845   7.544   4.885   9.626
11650SOL     OW36846   2.652   5.311   6.800
11650SOL    HW136847   2.734   5.279   6.762
11650SOL    HW236848   2.661   5.406   6.800
11651SOL     OW36849  10.806   5.592   9.949
11651SOL    HW136850  10.869   5.579   9.878
11651SOL    HW236851  10.722   5.562   9.913
11652SOL     OW36852   6.840  11.605   2.552
11652SOL    HW136853   6.862  11.520   2.590
11652SOL    HW236854   6.888  11.668   2.607
11653SOL     OW36855  11.762   2.772  13.044
11653SOL    HW136856  11.756   2.861  13.079
11653SOL    HW236857  11.819   2.726  13.105
11654SOL     OW36858   8.993   7.160   8.881
11654SOL    HW136859   8.980   7.226   8.813
11654SOL    HW236860   8.992   7.076   8.835
11655SOL     OW36861  10.673   4.367   7.132
11655SOL    HW136862  10.632   4.376   7.218
11655SOL    HW236863  10.649   4.279   7.103
11656SOL     OW36864  11.630  12.339  10.467
11656SOL    HW136865  11.607  12.345  10.560
11656SOL    HW236866  11.669  12.252  10.458
11657SOL     OW36867   9.975   5.120  11.547
11657SOL    HW136868   9.887   5.152  11.571
11657SOL    HW236869  10.032   5.196  11.562
11658SOL     OW36870  13.823   7.513   6.477
11658SOL    HW136871  13.820   7.535   6.571
11658SOL    HW236872  13.784   7.426   6.472
11659SOL     OW36873   5.712   0.718  12.042
11659SOL    HW136874   5.659   0.775  11.986
11659SOL    HW236875   5.724   0.638  11.990
11660SOL     OW36876   3.692   5.357   9.907
11660SOL    HW136877   3.720   5.296   9.975
11660SOL    HW236878   3.677   5.440   9.953
11661SOL     OW36879   1.064   1.964   7.156
11661SOL    HW136880   0.970   1.983   7.148
11661SOL    HW236881   1.068   1.868   7.153
11662SOL     OW36882   5.155  11.272   8.230
11662SOL    HW136883   5.065  11.305   8.238
11662SOL    HW236884   5.183  11.300   8.142
11663SOL     OW36885   0.100   2.103   4.888
11663SOL    HW136886   0.140   2.187   4.867
11663SOL    HW236887   0.095   2.058   4.804
11664SOL     OW36888   4.637  13.952   4.597
11664SOL    HW136889   4.602  13.911   4.518
11664SOL    HW236890   4.649  13.880   4.658
11665SOL     OW36891   3.511   9.178  12.370
11665SOL    HW136892   3.492   9.085  12.384
11665SOL    HW236893   3.477   9.197  12.283
11666SOL     OW36894   5.133  11.540  11.209
11666SOL    HW136895   5.227  11.535  11.227
11666SOL    HW236896   5.102  11.612  11.262
11667SOL     OW36897   2.541   0.283   1.863
11667SOL    HW136898   2.598   0.277   1.786
11667SOL    HW236899   2.602   0.279   1.937
11668SOL     OW36900   4.671   7.156   2.097
11668SOL    HW136901   4.668   7.195   2.184
11668SOL    HW236902   4.757   7.114   2.092
11669SOL     OW36903   5.457  11.110   8.542
11669SOL    HW136904   5.448  11.142   8.452
11669SOL    HW236905   5.550  11.124   8.563
11670SOL     OW36906  14.220   7.900   0.559
11670SOL    HW136907  14.279   7.973   0.542
11670SOL    HW236908  14.268   7.823   0.527
11671SOL     OW36909   3.141   7.492   2.046
11671SOL    HW136910   3.201   7.495   2.121
11671SOL    HW236911   3.054   7.492   2.085
11672SOL     OW36912  12.920   2.816  12.466
11672SOL    HW136913  12.864   2.874  12.516
11672SOL    HW236914  12.867   2.738  12.451
11673SOL     OW36915   8.252  11.109   0.001
11673SOL    HW136916   8.213  11.116  14.789
11673SOL    HW236917   8.180  11.129   0.061
11674SOL     OW36918   6.363   2.413  12.287
11674SOL    HW136919   6.281   2.461  12.298
11674SOL    HW236920   6.402   2.412  12.375
11675SOL     OW36921   2.622  14.649   3.586
11675SOL    HW136922   2.544  14.604   3.618
11675SOL    HW236923   2.588  14.717   3.527
11676SOL     OW36924   7.486  10.847  11.751
11676SOL    HW136925   7.579  10.842  11.774
11676SOL    HW236926   7.461  10.757  11.732
11677SOL     OW36927   4.607  12.140   2.073
11677SOL    HW136928   4.644  12.215   2.118
11677SOL    HW236929   4.665  12.125   1.998
11678SOL     OW36930   3.057  12.977   0.489
11678SOL    HW136931   3.119  13.000   0.558
11678SOL    HW236932   2.972  13.008   0.522
11679SOL     OW36933  13.876   2.745   2.258
11679SOL    HW136934  13.792   2.759   2.302
11679SOL    HW236935  13.859   2.675   2.195
11680SOL     OW36936  11.094  14.392   6.655
11680SOL    HW136937  11.002  14.365   6.652
11680SOL    HW236938  11.126  14.377   6.567
11681SOL     OW36939   6.113   4.630  14.339
11681SOL    HW136940   6.053   4.661  14.271
11681SOL    HW236941   6.056   4.591  14.406
11682SOL     OW36942   2.799  13.101  10.281
11682SOL    HW136943   2.787  13.039  10.209
11682SOL    HW236944   2.882  13.144  10.263
11683SOL     OW36945   2.737   1.488  14.582
11683SOL    HW136946   2.662   1.473  14.525
11683SOL    HW236947   2.743   1.583  14.589
11684SOL     OW36948   6.909   8.835   9.604
11684SOL    HW136949   6.848   8.906   9.626
11684SOL    HW236950   6.983   8.880   9.563
11685SOL     OW36951  13.574   7.942   3.907
11685SOL    HW136952  13.501   7.965   3.849
11685SOL    HW236953  13.581   7.847   3.900
11686SOL     OW36954   7.229   7.965   0.145
11686SOL    HW136955   7.303   8.014   0.180
11686SOL    HW236956   7.152   8.014   0.173
11687SOL     OW36957   2.388  11.878   3.861
11687SOL    HW136958   2.293  11.887   3.864
11687SOL    HW236959   2.420  11.967   3.849
11688SOL     OW36960   1.429   9.259   7.834
11688SOL    HW136961   1.481   9.179   7.844
11688SOL    HW236962   1.494   9.329   7.829
11689SOL     OW36963   4.698   5.635  10.597
11689SOL    HW136964   4.768   5.586  10.554
11689SOL    HW236965   4.656   5.571  10.654
11690SOL     OW36966  11.698   4.613   1.471
11690SOL    HW136967  11.606   4.619   1.449
11690SOL    HW236968  11.701   4.629   1.566
11691SOL     OW36969   4.676  10.122   2.414
11691SOL    HW136970   4.731  10.200   2.420
11691SOL    HW236971   4.644  10.122   2.324
11692SOL     OW36972  10.766   8.138   2.684
11692SOL    HW136973  10.825   8.067   2.711
11692SOL    HW236974  10.717   8.102   2.611
11693SOL     OW36975   9.787   5.297   8.102
11693SOL    HW136976   9.793   5.255   8.016
11693SOL    HW236977   9.746   5.382   8.084
11694SOL     OW36978  14.232   5.210   8.748
11694SOL    HW136979  14.185   5.271   8.804
11694SOL    HW236980  14.164   5.155   8.709
11695SOL     OW36981   3.938   9.177   1.267
11695SOL    HW136982   4.014   9.125   1.294
11695SOL    HW236983   3.882   9.116   1.219
11696SOL     OW36984  11.030  11.663   0.494
11696SOL    HW136985  10.949  11.617   0.516
11696SOL    HW236986  11.096  11.624   0.551
11697SOL     OW36987   0.276   4.215   2.994
11697SOL    HW136988   0.265   4.164   3.074
11697SOL    HW236989   0.362   4.256   3.004
11698SOL     OW36990   3.464   8.991  11.847
11698SOL    HW136991   3.477   9.046  11.924
11698SOL    HW236992   3.534   8.925  11.852
11699SOL     OW36993   6.588  10.763  13.471
11699SOL    HW136994   6.511  10.780  13.525
11699SOL    HW236995   6.625  10.681  13.507
11700SOL     OW36996   4.322  13.611   9.629
11700SOL    HW136997   4.382  13.593   9.556
11700SOL    HW236998   4.261  13.537   9.627
11701SOL     OW36999   3.414   8.492  13.775
11701SOL    HW137000   3.448   8.489  13.864
11701SOL    HW237001   3.354   8.567  13.774
11702SOL     OW37002   3.134   5.201   4.268
11702SOL    HW137003   3.069   5.174   4.333
11702SOL    HW237004   3.116   5.145   4.192
11703SOL     OW37005  10.505  12.682   8.572
11703SOL    HW137006  10.555  12.747   8.621
11703SOL    HW237007  10.476  12.728   8.493
11704SOL     OW37008  10.033   1.993  12.478
11704SOL    HW137009  10.006   1.918  12.424
11704SOL    HW237010   9.968   1.996  12.549
11705SOL     OW37011   5.032   4.292   9.465
11705SOL    HW137012   5.058   4.341   9.543
11705SOL    HW237013   5.030   4.201   9.492
11706SOL     OW37014   2.172  14.852   4.074
11706SOL    HW137015   2.123  14.863   4.156
11706SOL    HW237016   2.148  14.764   4.044
11707SOL     OW37017   4.732   2.785   9.780
11707SOL    HW137018   4.822   2.813   9.795
11707SOL    HW237019   4.734   2.690   9.795
11708SOL     OW37020   4.333   7.943  11.650
11708SOL    HW137021   4.329   7.958  11.556
11708SOL    HW237022   4.327   7.848  11.659
11709SOL     OW37023   4.168  10.362   9.520
11709SOL    HW137024   4.237  10.422   9.491
11709SOL    HW237025   4.184  10.281   9.471
11710SOL     OW37026   1.979  10.569  10.167
11710SOL    HW137027   1.916  10.640  10.177
11710SOL    HW237028   1.932  10.490  10.193
11711SOL     OW37029   1.433   1.737   1.093
11711SOL    HW137030   1.387   1.771   1.169
11711SOL    HW237031   1.525   1.733   1.120
11712SOL     OW37032   5.138   9.880   9.521
11712SOL    HW137033   5.069   9.900   9.584
11712SOL    HW237034   5.123   9.788   9.498
11713SOL     OW37035   0.842   5.130   2.484
11713SOL    HW137036   0.843   5.224   2.468
11713SOL    HW237037   0.804   5.121   2.571
11714SOL     OW37038   0.894  14.191  13.475
11714SOL    HW137039   0.819  14.147  13.516
11714SOL    HW237040   0.867  14.283  13.469
11715SOL     OW37041   2.742   6.228   7.453
11715SOL    HW137042   2.756   6.135   7.467
11715SOL    HW237043   2.805   6.271   7.511
11716SOL     OW37044  13.077  10.022   9.984
11716SOL    HW137045  13.167  10.048   9.964
11716SOL    HW237046  13.048  10.084  10.050
11717SOL     OW37047   0.446  14.267   2.096
11717SOL    HW137048   0.530  14.221   2.106
11717SOL    HW237049   0.401  14.253   2.179
11718SOL     OW37050  13.315  11.956   0.522
11718SOL    HW137051  13.355  12.012   0.588
11718SOL    HW237052  13.222  11.976   0.526
11719SOL     OW37053  10.892  10.483   9.335
11719SOL    HW137054  10.835  10.495   9.259
11719SOL    HW237055  10.846  10.422   9.391
11720SOL     OW37056   3.409   6.473   0.483
11720SOL    HW137057   3.402   6.382   0.511
11720SOL    HW237058   3.371   6.523   0.555
11721SOL     OW37059   8.964  12.856   4.558
11721SOL    HW137060   8.969  12.787   4.624
11721SOL    HW237061   9.015  12.822   4.484
11722SOL     OW37062   1.835   5.613  12.891
11722SOL    HW137063   1.760   5.557  12.871
11722SOL    HW237064   1.801   5.677  12.953
11723SOL     OW37065   5.187   6.983   7.302
11723SOL    HW137066   5.215   6.991   7.393
11723SOL    HW237067   5.119   6.915   7.304
11724SOL     OW37068   1.906   7.399   9.929
11724SOL    HW137069   1.834   7.358   9.977
11724SOL    HW237070   1.869   7.420   9.843
11725SOL     OW37071   1.431   4.795   2.275
11725SOL    HW137072   1.401   4.716   2.230
11725SOL    HW237073   1.493   4.836   2.214
11726SOL     OW37074   9.033  13.904   8.881
11726SOL    HW137075   8.971  13.975   8.900
11726SOL    HW237076   9.065  13.877   8.967
11727SOL     OW37077  14.667  14.828   4.523
11727SOL    HW137078  14.617  14.746   4.526
11727SOL    HW237079  14.741  14.813   4.582
11728SOL     OW37080  14.434   7.287  14.231
11728SOL    HW137081  14.517   7.314  14.191
11728SOL    HW237082  14.446   7.304  14.325
11729SOL     OW37083   5.985   7.919   8.318
11729SOL    HW137084   5.967   7.825   8.323
11729SOL    HW237085   5.979   7.939   8.225
11730SOL     OW37086   8.410   4.742   1.250
11730SOL    HW137087   8.355   4.813   1.216
11730SOL    HW237088   8.482   4.737   1.187
11731SOL     OW37089   2.003   8.632  10.745
11731SOL    HW137090   2.094   8.641  10.775
11731SOL    HW237091   1.959   8.584  10.815
11732SOL     OW37092  11.021   0.185  10.800
11732SOL    HW137093  10.950   0.213  10.742
11732SOL    HW237094  11.058   0.108  10.756
11733SOL     OW37095   3.547   1.265   5.171
11733SOL    HW137096   3.551   1.254   5.076
11733SOL    HW237097   3.639   1.276   5.198
11734SOL     OW37098   2.921   1.344  12.798
11734SOL    HW137099   2.910   1.357  12.892
11734SOL    HW237100   2.931   1.250  12.788
11735SOL     OW37101   4.071   9.295   0.063
11735SOL    HW137102   4.109   9.331   0.143
11735SOL    HW237103   4.119   9.214   0.048
11736SOL     OW37104   3.785   1.355  11.616
11736SOL    HW137105   3.701   1.400  11.606
11736SOL    HW237106   3.844   1.402  11.557
11737SOL     OW37107   7.831  14.111  13.713
11737SOL    HW137108   7.829  14.205  13.732
11737SOL    HW237109   7.843  14.069  13.798
11738SOL     OW37110  12.588  10.264  14.402
11738SOL    HW137111  12.605  10.352  14.367
11738SOL    HW237112  12.534  10.222  14.335
11739SOL     OW37113   8.096   8.708   1.256
11739SOL    HW137114   8.001   8.693   1.259
11739SOL    HW237115   8.126   8.694   1.345
11740SOL     OW37116   1.843   1.776  11.052
11740SOL    HW137117   1.765   1.821  11.022
11740SOL    HW237118   1.916   1.827  11.017
11741SOL     OW37119   4.645   1.225   6.183
11741SOL    HW137120   4.578   1.160   6.161
11741SOL    HW237121   4.727   1.187   6.150
11742SOL     OW37122   0.793   6.389   4.764
11742SOL    HW137123   0.701   6.365   4.754
11742SOL    HW237124   0.807   6.388   4.859
11743SOL     OW37125   4.363   6.380   1.457
11743SOL    HW137126   4.311   6.376   1.537
11743SOL    HW237127   4.434   6.440   1.477
11744SOL     OW37128   1.556   5.824   7.019
11744SOL    HW137129   1.477   5.860   7.061
11744SOL    HW237130   1.598   5.773   7.088
11745SOL     OW37131   1.288   5.756   6.862
11745SOL    HW137132   1.325   5.711   6.786
11745SOL    HW237133   1.220   5.697   6.895
11746SOL     OW37134   3.972   9.622   5.370
11746SOL    HW137135   4.042   9.586   5.425
11746SOL    HW237136   3.902   9.643   5.432
11747SOL     OW37137  10.840   8.203   6.138
11747SOL    HW137138  10.909   8.201   6.072
11747SOL    HW237139  10.765   8.243   6.094
11748SOL     OW37140  14.044   8.977   5.120
11748SOL    HW137141  14.103   9.025   5.062
11748SOL    HW237142  14.092   8.897   5.143
11749SOL     OW37143   5.756   8.840   9.985
11749SOL    HW137144   5.717   8.753   9.975
11749SOL    HW237145   5.775   8.867   9.895
11750SOL     OW37146   0.772  11.705   6.367
11750SOL    HW137147   0.729  11.725   6.284
11750SOL    HW237148   0.789  11.611   6.362
11751SOL     OW37149  10.358   0.259   2.786
11751SOL    HW137150  10.428   0.320   2.808
11751SOL    HW237151  10.388   0.215   2.706
11752SOL     OW37152   0.194  11.944   4.655
11752SOL    HW137153   0.272  11.997   4.673
11752SOL    HW237154   0.197  11.874   4.720
11753SOL     OW37155   4.589  11.452   8.062
11753SOL    HW137156   4.546  11.531   8.029
11753SOL    HW237157   4.662  11.485   8.115
11754SOL     OW37158   2.378   0.501   3.940
11754SOL    HW137159   2.332   0.556   4.003
11754SOL    HW237160   2.335   0.416   3.946
11755SOL     OW37161   4.490   9.105   4.823
11755SOL    HW137162   4.555   9.144   4.765
11755SOL    HW237163   4.408   9.111   4.774
11756SOL     OW37164   1.870  12.871   7.728
11756SOL    HW137165   1.830  12.829   7.804
11756SOL    HW237166   1.959  12.838   7.726
11757SOL     OW37167   9.473   9.308   4.522
11757SOL    HW137168   9.405   9.245   4.546
11757SOL    HW237169   9.438   9.355   4.446
11758SOL     OW37170   8.470   2.298   2.019
11758SOL    HW137171   8.434   2.273   1.934
11758SOL    HW237172   8.399   2.345   2.062
11759SOL     OW37173   9.262  12.316   9.125
11759SOL    HW137174   9.229  12.232   9.093
11759SOL    HW237175   9.206  12.381   9.084
11760SOL     OW37176  12.823   3.596   0.512
11760SOL    HW137177  12.916   3.617   0.497
11760SOL    HW237178  12.820   3.501   0.517
11761SOL     OW37179  14.874   9.824   8.271
11761SOL    HW137180  14.779   9.816   8.266
11761SOL    HW237181   0.015   9.911   8.306
11762SOL     OW37182   2.233   9.043   2.110
11762SOL    HW137183   2.168   9.083   2.053
11762SOL    HW237184   2.291   9.115   2.135
11763SOL     OW37185   5.144  10.443   6.322
11763SOL    HW137186   5.239  10.455   6.317
11763SOL    HW237187   5.133  10.366   6.377
11764SOL     OW37188  12.230  13.782   7.230
11764SOL    HW137189  12.173  13.827   7.291
11764SOL    HW237190  12.310  13.836   7.227
11765SOL     OW37191   3.382   8.991   2.237
11765SOL    HW137192   3.329   9.067   2.262
11765SOL    HW237193   3.336   8.916   2.275
11766SOL     OW37194   6.701   4.816   2.028
11766SOL    HW137195   6.788   4.807   2.066
11766SOL    HW237196   6.652   4.741   2.061
11767SOL     OW37197  11.559   1.356  13.598
11767SOL    HW137198  11.615   1.432  13.618
11767SOL    HW237199  11.591   1.287  13.656
11768SOL     OW37200   2.967   4.174   3.338
11768SOL    HW137201   3.006   4.259   3.360
11768SOL    HW237202   2.927   4.188   3.252
11769SOL     OW37203  12.234   9.481   7.849
11769SOL    HW137204  12.258   9.566   7.811
11769SOL    HW237205  12.291   9.418   7.805
11770SOL     OW37206   1.924   5.251  12.227
11770SOL    HW137207   1.912   5.257  12.321
11770SOL    HW237208   1.835   5.243  12.192
11771SOL     OW37209   3.054   7.767  11.181
11771SOL    HW137210   3.049   7.672  11.173
11771SOL    HW237211   3.096   7.781  11.266
11772SOL     OW37212   9.465  11.963   7.869
11772SOL    HW137213   9.407  11.894   7.837
11772SOL    HW237214   9.409  12.018   7.924
11773SOL     OW37215   9.930   5.993   1.855
11773SOL    HW137216   9.890   5.951   1.779
11773SOL    HW237217   9.977   6.068   1.819
11774SOL     OW37218   6.952   5.429  13.984
11774SOL    HW137219   6.918   5.402  14.069
11774SOL    HW237220   6.878   5.474  13.942
11775SOL     OW37221   4.207   1.698   3.358
11775SOL    HW137222   4.175   1.763   3.421
11775SOL    HW237223   4.233   1.750   3.282
11776SOL     OW37224   8.373   2.158   6.588
11776SOL    HW137225   8.468   2.159   6.580
11776SOL    HW237226   8.355   2.217   6.661
11777SOL     OW37227  12.710  12.197   3.434
11777SOL    HW137228  12.700  12.224   3.525
11777SOL    HW237229  12.722  12.279   3.386
11778SOL     OW37230   5.552   2.963  11.963
11778SOL    HW137231   5.603   2.895  11.919
11778SOL    HW237232   5.587   2.966  12.052
11779SOL     OW37233  11.406   9.168   5.537
11779SOL    HW137234  11.358   9.098   5.493
11779SOL    HW237235  11.342   9.209   5.594
11780SOL     OW37236   4.286   3.615  14.298
11780SOL    HW137237   4.258   3.675  14.367
11780SOL    HW237238   4.380   3.631  14.289
11781SOL     OW37239   6.730   7.351  10.951
11781SOL    HW137240   6.791   7.417  10.919
11781SOL    HW237241   6.755   7.337  11.042
11782SOL     OW37242  11.555   4.562   2.734
11782SOL    HW137243  11.569   4.558   2.828
11782SOL    HW237244  11.641   4.545   2.696
11783SOL     OW37245  12.178  11.286   5.152
11783SOL    HW137246  12.172  11.275   5.057
11783SOL    HW237247  12.239  11.359   5.165
11784SOL     OW37248   1.813   6.140   5.894
11784SOL    HW137249   1.895   6.180   5.923
11784SOL    HW237250   1.787   6.084   5.967
11785SOL     OW37251   2.387  12.990   5.501
11785SOL    HW137252   2.425  12.917   5.454
11785SOL    HW237253   2.349  12.951   5.580
11786SOL     OW37254   6.432   0.311   6.704
11786SOL    HW137255   6.523   0.293   6.679
11786SOL    HW237256   6.410   0.239   6.763
11787SOL     OW37257  11.219   4.227   5.916
11787SOL    HW137258  11.231   4.133   5.906
11787SOL    HW237259  11.197   4.259   5.828
11788SOL     OW37260   0.117   6.529  11.476
11788SOL    HW137261   0.111   6.472  11.399
11788SOL    HW237262   0.026   6.544  11.501
11789SOL     OW37263  13.921   8.586   4.459
11789SOL    HW137264  13.988   8.533   4.502
11789SOL    HW237265  13.959   8.674   4.455
11790SOL     OW37266   9.483   5.428   5.969
11790SOL    HW137267   9.513   5.434   6.060
11790SOL    HW237268   9.411   5.491   5.963
11791SOL     OW37269   5.237  14.185  12.103
11791SOL    HW137270   5.291  14.133  12.163
11791SOL    HW237271   5.204  14.257  12.156
11792SOL     OW37272  13.173   3.321  12.580
11792SOL    HW137273  13.209   3.243  12.537
11792SOL    HW237274  13.139   3.374  12.507
11793SOL     OW37275   5.573   8.985   5.630
11793SOL    HW137276   5.521   9.048   5.581
11793SOL    HW237277   5.663   9.015   5.619
11794SOL     OW37278  10.603   1.651   3.917
11794SOL    HW137279  10.590   1.732   3.868
11794SOL    HW237280  10.546   1.660   3.993
11795SOL     OW37281   1.069   3.667   3.025
11795SOL    HW137282   1.066   3.576   3.053
11795SOL    HW237283   1.053   3.664   2.931
11796SOL     OW37284  11.518  11.775   9.857
11796SOL    HW137285  11.453  11.706   9.848
11796SOL    HW237286  11.592  11.745   9.804
11797SOL     OW37287  12.611   9.642  14.682
11797SOL    HW137288  12.527   9.637  14.728
11797SOL    HW237289  12.598   9.711  14.617
11798SOL     OW37290   2.049   8.529   2.527
11798SOL    HW137291   2.108   8.527   2.451
11798SOL    HW237292   2.090   8.590   2.588
11799SOL     OW37293  10.839   5.316  13.037
11799SOL    HW137294  10.843   5.310  13.132
11799SOL    HW237295  10.850   5.409  13.018
11800SOL     OW37296   2.122   7.627   8.031
11800SOL    HW137297   2.144   7.571   7.956
11800SOL    HW237298   2.142   7.573   8.108
11801SOL     OW37299   4.189   2.351  10.795
11801SOL    HW137300   4.285   2.355  10.799
11801SOL    HW237301   4.160   2.393  10.876
11802SOL     OW37302  14.191  10.906   8.336
11802SOL    HW137303  14.202  10.830   8.278
11802SOL    HW237304  14.240  10.883   8.415
11803SOL     OW37305   6.505  10.242   5.773
11803SOL    HW137306   6.525  10.230   5.866
11803SOL    HW237307   6.520  10.336   5.758
11804SOL     OW37308   0.475   2.419   4.132
11804SOL    HW137309   0.503   2.393   4.219
11804SOL    HW237310   0.556   2.442   4.086
11805SOL     OW37311   7.017  11.978   2.385
11805SOL    HW137312   6.922  11.965   2.394
11805SOL    HW237313   7.026  12.068   2.355
11806SOL     OW37314   8.648  11.771   2.632
11806SOL    HW137315   8.727  11.811   2.595
11806SOL    HW237316   8.597  11.744   2.555
11807SOL     OW37317   0.151   4.994  12.371
11807SOL    HW137318   0.176   5.031  12.287
11807SOL    HW237319   0.154   5.068  12.432
11808SOL     OW37320   0.430   7.599  13.105
11808SOL    HW137321   0.503   7.655  13.132
11808SOL    HW237322   0.438   7.521  13.160
11809SOL     OW37323   4.592  12.448   2.676
11809SOL    HW137324   4.631  12.456   2.589
11809SOL    HW237325   4.658  12.402   2.728
11810SOL     OW37326  11.071   6.919  12.206
11810SOL    HW137327  11.079   6.840  12.152
11810SOL    HW237328  11.161   6.939  12.232
11811SOL     OW37329   1.124   0.188   3.028
11811SOL    HW137330   1.041   0.234   3.041
11811SOL    HW237331   1.119   0.156   2.938
11812SOL     OW37332   9.931   6.191   3.763
11812SOL    HW137333  10.006   6.131   3.767
11812SOL    HW237334   9.962   6.264   3.710
11813SOL     OW37335   8.757  13.192   8.398
11813SOL    HW137336   8.683  13.215   8.341
11813SOL    HW237337   8.826  13.254   8.374
11814SOL     OW37338   8.335  13.532   3.150
11814SOL    HW137339   8.365  13.442   3.165
11814SOL    HW237340   8.248  13.523   3.111
11815SOL     OW37341   8.341  13.053  10.885
11815SOL    HW137342   8.305  12.978  10.839
11815SOL    HW237343   8.391  13.100  10.818
11816SOL     OW37344   6.495   9.951   4.451
11816SOL    HW137345   6.573   9.920   4.404
11816SOL    HW237346   6.431   9.969   4.382
11817SOL     OW37347   3.468   0.356   5.641
11817SOL    HW137348   3.375   0.364   5.659
11817SOL    HW237349   3.497   0.447   5.625
11818SOL     OW37350   3.897  12.705  13.370
11818SOL    HW137351   3.857  12.745  13.293
11818SOL    HW237352   3.926  12.779  13.423
11819SOL     OW37353  13.851   3.662  12.423
11819SOL    HW137354  13.916   3.728  12.447
11819SOL    HW237355  13.811   3.636  12.506
11820SOL     OW37356   6.964   4.565  10.850
11820SOL    HW137357   6.893   4.561  10.787
11820SOL    HW237358   7.043   4.545  10.799
11821SOL     OW37359   8.555  10.761  13.866
11821SOL    HW137360   8.498  10.741  13.791
11821SOL    HW237361   8.562  10.856  13.866
11822SOL     OW37362   5.026   1.022  12.989
11822SOL    HW137363   4.965   1.027  12.916
11822SOL    HW237364   5.085   1.096  12.976
11823SOL     OW37365   5.121   2.823   1.602
11823SOL    HW137366   5.054   2.780   1.656
11823SOL    HW237367   5.103   2.916   1.611
11824SOL     OW37368   5.083  13.906   1.773
11824SOL    HW137369   5.057  13.880   1.684
11824SOL    HW237370   5.098  13.823   1.818
11825SOL     OW37371   2.524  14.212   3.338
11825SOL    HW137372   2.446  14.266   3.331
11825SOL    HW237373   2.595  14.274   3.354
11826SOL     OW37374   6.160  14.448   1.414
11826SOL    HW137375   6.103  14.493   1.352
11826SOL    HW237376   6.101  14.417   1.483
11827SOL     OW37377  10.693   3.702  14.083
11827SOL    HW137378  10.723   3.767  14.146
11827SOL    HW237379  10.669   3.626  14.136
11828SOL     OW37380   3.382   0.742   4.222
11828SOL    HW137381   3.369   0.734   4.316
11828SOL    HW237382   3.383   0.836   4.206
11829SOL     OW37383   4.504   4.471   3.629
11829SOL    HW137384   4.489   4.543   3.690
11829SOL    HW237385   4.595   4.483   3.601
11830SOL     OW37386   9.199   5.241   0.993
11830SOL    HW137387   9.120   5.293   0.976
11830SOL    HW237388   9.165   5.154   1.015
11831SOL     OW37389   0.499  12.980   9.679
11831SOL    HW137390   0.546  12.898   9.697
11831SOL    HW237391   0.544  13.045   9.733
11832SOL     OW37392   5.351   9.625   2.404
11832SOL    HW137393   5.295   9.653   2.332
11832SOL    HW237394   5.335   9.531   2.412
11833SOL     OW37395   6.469   6.803   6.502
11833SOL    HW137396   6.374   6.799   6.518
11833SOL    HW237397   6.487   6.725   6.449
11834SOL     OW37398   9.628  12.471   7.383
11834SOL    HW137399   9.635  12.523   7.303
11834SOL    HW237400   9.541  12.489   7.417
11835SOL     OW37401  13.634  11.924   1.377
11835SOL    HW137402  13.558  11.941   1.432
11835SOL    HW237403  13.705  11.974   1.417
11836SOL     OW37404  13.543   3.606   3.131
11836SOL    HW137405  13.600   3.661   3.076
11836SOL    HW237406  13.587   3.521   3.133
11837SOL     OW37407   6.016  10.648   2.105
11837SOL    HW137408   6.041  10.697   2.026
11837SOL    HW237409   6.075  10.680   2.173
11838SOL     OW37410   5.623   6.921   7.542
11838SOL    HW137411   5.642   6.934   7.449
11838SOL    HW237412   5.707   6.935   7.586
11839SOL     OW37413   2.099   2.736   5.825
11839SOL    HW137414   2.142   2.733   5.739
11839SOL    HW237415   2.051   2.653   5.829
11840SOL     OW37416   1.133  10.518   8.395
11840SOL    HW137417   1.054  10.479   8.357
11840SOL    HW237418   1.148  10.467   8.475
11841SOL     OW37419   0.122  10.246  13.277
11841SOL    HW137420   0.120  10.179  13.345
11841SOL    HW237421   0.148  10.326  13.322
11842SOL     OW37422   9.824   3.404   2.143
11842SOL    HW137423   9.898   3.387   2.085
11842SOL    HW237424   9.746   3.392   2.088
11843SOL     OW37425   7.908  14.336   3.900
11843SOL    HW137426   7.906  14.427   3.872
11843SOL    HW237427   7.887  14.286   3.821
11844SOL     OW37428   7.190  13.968   7.476
11844SOL    HW137429   7.211  13.922   7.557
11844SOL    HW237430   7.104  13.934   7.450
11845SOL     OW37431   1.271   0.077   6.336
11845SOL    HW137432   1.221   0.044   6.262
11845SOL    HW237433   1.208   0.129   6.386
11846SOL     OW37434   6.467   9.524  10.487
11846SOL    HW137435   6.453   9.612  10.522
11846SOL    HW237436   6.495   9.539  10.397
11847SOL     OW37437   7.600   7.910  11.534
11847SOL    HW137438   7.574   7.819  11.552
11847SOL    HW237439   7.686   7.919  11.577
11848SOL     OW37440  10.415   8.393   0.079
11848SOL    HW137441  10.337   8.361   0.033
11848SOL    HW237442  10.488   8.368   0.023
11849SOL     OW37443  13.985   5.855   9.541
11849SOL    HW137444  13.930   5.894   9.609
11849SOL    HW237445  14.061   5.821   9.589
11850SOL     OW37446  10.893   3.662   7.890
11850SOL    HW137447  10.811   3.656   7.841
11850SOL    HW237448  10.872   3.623   7.975
11851SOL     OW37449   3.661   9.248   8.181
11851SOL    HW137450   3.627   9.173   8.230
11851SOL    HW237451   3.662   9.320   8.244
11852SOL     OW37452  10.821  10.800   4.345
11852SOL    HW137453  10.887  10.846   4.294
11852SOL    HW237454  10.741  10.849   4.331
11853SOL     OW37455   1.207  10.078  11.297
11853SOL    HW137456   1.164  10.075  11.211
11853SOL    HW237457   1.249   9.992  11.305
11854SOL     OW37458   2.950   0.650   4.625
11854SOL    HW137459   2.985   0.606   4.547
11854SOL    HW237460   2.873   0.697   4.593
11855SOL     OW37461   7.285  12.219  12.979
11855SOL    HW137462   7.278  12.314  12.986
11855SOL    HW237463   7.286  12.202  12.885
11856SOL     OW37464   0.038  10.315  13.953
11856SOL    HW137465   0.064  10.301  13.862
11856SOL    HW237466  14.872  10.401  13.953
11857SOL     OW37467   3.925   9.347   0.955
11857SOL    HW137468   3.900   9.427   1.000
11857SOL    HW237469   3.892   9.276   1.010
11858SOL     OW37470  14.234  14.256   2.768
11858SOL    HW137471  14.156  14.200   2.778
11858SOL    HW237472  14.198  14.344   2.754
11859SOL     OW37473   1.630   6.077  10.730
11859SOL    HW137474   1.666   6.161  10.761
11859SOL    HW237475   1.680   6.057  10.651
11860SOL     OW37476  10.583   9.837   4.755
11860SOL    HW137477  10.652   9.862   4.693
11860SOL    HW237478  10.505   9.883   4.724
11861SOL     OW37479   1.053   3.129   5.451
11861SOL    HW137480   0.974   3.174   5.421
11861SOL    HW237481   1.090   3.090   5.372
11862SOL     OW37482  14.480   9.265  11.445
11862SOL    HW137483  14.524   9.321  11.508
11862SOL    HW237484  14.441   9.195  11.497
11863SOL     OW37485   1.127   6.058   3.935
11863SOL    HW137486   1.110   5.972   3.895
11863SOL    HW237487   1.219   6.077   3.913
11864SOL     OW37488  13.490  10.109   4.192
11864SOL    HW137489  13.507  10.185   4.249
11864SOL    HW237490  13.556  10.045   4.218
11865SOL     OW37491  11.667   8.979   8.538
11865SOL    HW137492  11.673   9.021   8.624
11865SOL    HW237493  11.668   8.885   8.557
11866SOL     OW37494   9.523  12.528   0.655
11866SOL    HW137495   9.445  12.565   0.695
11866SOL    HW237496   9.497  12.439   0.630
11867SOL     OW37497  10.629  12.604   2.847
11867SOL    HW137498  10.541  12.618   2.883
11867SOL    HW237499  10.688  12.646   2.910
11868SOL     OW37500   3.574   1.459   4.228
11868SOL    HW137501   3.663   1.473   4.196
11868SOL    HW237502   3.571   1.506   4.311
11869SOL     OW37503   8.423   1.535   8.909
11869SOL    HW137504   8.515   1.547   8.884
11869SOL    HW237505   8.389   1.471   8.846
11870SOL     OW37506   2.942   5.302   0.062
11870SOL    HW137507   2.871   5.303  14.873
11870SOL    HW237508   2.956   5.395   0.083
11871SOL     OW37509   9.825   0.255  10.698
11871SOL    HW137510   9.742   0.231  10.738
11871SOL    HW237511   9.884   0.183  10.722
11872SOL     OW37512   4.655  13.061   2.357
11872SOL    HW137513   4.629  13.110   2.436
11872SOL    HW237514   4.572  13.040   2.314
11873SOL     OW37515   2.721   0.580   9.390
11873SOL    HW137516   2.679   0.510   9.439
11873SOL    HW237517   2.765   0.535   9.317
11874SOL     OW37518   5.267  10.553  14.048
11874SOL    HW137519   5.261  10.463  14.016
11874SOL    HW237520   5.214  10.604  13.987
11875SOL     OW37521   9.047   8.601   7.909
11875SOL    HW137522   9.097   8.592   7.828
11875SOL    HW237523   9.111   8.582   7.978
11876SOL     OW37524  13.046   3.552  11.043
11876SOL    HW137525  13.111   3.613  11.078
11876SOL    HW237526  13.040   3.483  11.110
11877SOL     OW37527   1.413   8.756   7.792
11877SOL    HW137528   1.489   8.810   7.812
11877SOL    HW237529   1.450   8.675   7.756
11878SOL     OW37530   3.809   0.892   3.624
11878SOL    HW137531   3.780   0.971   3.670
11878SOL    HW237532   3.803   0.915   3.531
11879SOL     OW37533  13.379   8.176   9.578
11879SOL    HW137534  13.331   8.252   9.544
11879SOL    HW237535  13.349   8.103   9.524
11880SOL     OW37536   3.035   1.833   1.416
11880SOL    HW137537   3.070   1.810   1.330
11880SOL    HW237538   3.104   1.809   1.478
11881SOL     OW37539   4.657   9.773   2.089
11881SOL    HW137540   4.580   9.740   2.136
11881SOL    HW237541   4.624   9.800   2.004
11882SOL     OW37542  14.717   8.398   3.110
11882SOL    HW137543  14.697   8.376   3.201
11882SOL    HW237544  14.654   8.466   3.087
11883SOL     OW37545   3.371  10.933   2.472
11883SOL    HW137546   3.431  10.910   2.543
11883SOL    HW237547   3.421  10.917   2.392
11884SOL     OW37548   0.566   7.007   8.277
11884SOL    HW137549   0.519   7.033   8.197
11884SOL    HW237550   0.509   6.944   8.319
11885SOL     OW37551   1.142  13.211   6.287
11885SOL    HW137552   1.201  13.251   6.223
11885SOL    HW237553   1.186  13.226   6.371
11886SOL     OW37554  13.589   8.164   4.409
11886SOL    HW137555  13.667   8.192   4.457
11886SOL    HW237556  13.520   8.159   4.475
11887SOL     OW37557   7.326   2.411  10.466
11887SOL    HW137558   7.370   2.380  10.387
11887SOL    HW237559   7.250   2.354  10.475
11888SOL     OW37560   0.571   8.370  12.767
11888SOL    HW137561   0.495   8.341  12.716
11888SOL    HW237562   0.559   8.464  12.777
11889SOL     OW37563   0.867  10.099  12.696
11889SOL    HW137564   0.777  10.070  12.688
11889SOL    HW237565   0.906  10.083  12.610
11890SOL     OW37566   9.321   8.215   0.468
11890SOL    HW137567   9.278   8.245   0.388
11890SOL    HW237568   9.275   8.260   0.539
11891SOL     OW37569   0.132   8.208  12.496
11891SOL    HW137570   0.041   8.186  12.518
11891SOL    HW237571   0.130   8.229  12.403
11892SOL     OW37572   8.405   5.121   2.602
11892SOL    HW137573   8.434   5.178   2.531
11892SOL    HW237574   8.477   5.058   2.613
11893SOL     OW37575   2.594   6.534   6.965
11893SOL    HW137576   2.637   6.464   7.013
11893SOL    HW237577   2.509   6.545   7.008
11894SOL     OW37578   7.970   7.642   8.401
11894SOL    HW137579   7.975   7.547   8.414
11894SOL    HW237580   8.040   7.678   8.455
11895SOL     OW37581   7.554   4.835   1.340
11895SOL    HW137582   7.497   4.814   1.413
11895SOL    HW237583   7.553   4.757   1.286
11896SOL     OW37584   8.342  14.342   8.437
11896SOL    HW137585   8.435  14.351   8.414
11896SOL    HW237586   8.331  14.248   8.451
11897SOL     OW37587  14.737   8.565  10.540
11897SOL    HW137588  14.825   8.530  10.552
11897SOL    HW237589  14.739   8.607  10.454
11898SOL     OW37590   1.916  12.081  11.664
11898SOL    HW137591   1.832  12.055  11.701
11898SOL    HW237592   1.900  12.087  11.569
11899SOL     OW37593   8.367   4.406   9.831
11899SOL    HW137594   8.294   4.377   9.886
11899SOL    HW237595   8.391   4.329   9.780
11900SOL     OW37596   8.118  14.338   3.638
11900SOL    HW137597   8.163  14.376   3.714
11900SOL    HW237598   8.095  14.250   3.666
11901SOL     OW37599   7.840   5.656  13.591
11901SOL    HW137600   7.852   5.695  13.504
11901SOL    HW237601   7.897   5.579  13.590
11902SOL     OW37602  12.374   7.645   4.280
11902SOL    HW137603  12.451   7.681   4.324
11902SOL    HW237604  12.304   7.708   4.298
11903SOL     OW37605   2.647   9.928  13.214
11903SOL    HW137606   2.642   9.944  13.309
11903SOL    HW237607   2.712   9.991  13.183
11904SOL     OW37608   5.930   8.248   3.327
11904SOL    HW137609   5.852   8.237   3.382
11904SOL    HW237610   5.936   8.342   3.313
11905SOL     OW37611   3.415   8.758   7.766
11905SOL    HW137612   3.502   8.781   7.799
11905SOL    HW237613   3.355   8.783   7.837
11906SOL     OW37614   6.430   5.722   4.218
11906SOL    HW137615   6.487   5.679   4.281
11906SOL    HW237616   6.452   5.815   4.224
11907SOL     OW37617   8.204  12.381   6.030
11907SOL    HW137618   8.246  12.352   6.111
11907SOL    HW237619   8.250  12.460   6.005
11908SOL     OW37620   8.536   7.477   6.200
11908SOL    HW137621   8.629   7.484   6.223
11908SOL    HW237622   8.528   7.393   6.156
11909SOL     OW37623  13.404  11.914  14.369
11909SOL    HW137624  13.488  11.960  14.379
11909SOL    HW237625  13.339  11.977  14.397
11910SOL     OW37626  13.276   8.044   6.012
11910SOL    HW137627  13.238   8.072   6.095
11910SOL    HW237628  13.246   7.954   6.001
11911SOL     OW37629   0.500  12.374   9.172
11911SOL    HW137630   0.541  12.354   9.256
11911SOL    HW237631   0.408  12.388   9.193
11912SOL     OW37632   9.296  14.806   3.464
11912SOL    HW137633   9.272  14.727   3.512
11912SOL    HW237634   9.225  14.868   3.481
11913SOL     OW37635   0.774   2.508   1.366
11913SOL    HW137636   0.860   2.550   1.353
11913SOL    HW237637   0.790   2.444   1.436
11914SOL     OW37638   3.811   3.536   1.488
11914SOL    HW137639   3.815   3.586   1.406
11914SOL    HW237640   3.837   3.598   1.555
11915SOL     OW37641   3.121   3.454  11.556
11915SOL    HW137642   3.116   3.527  11.618
11915SOL    HW237643   3.200   3.406  11.582
11916SOL     OW37644   0.640  12.454   2.334
11916SOL    HW137645   0.684  12.485   2.256
11916SOL    HW237646   0.610  12.533   2.379
11917SOL     OW37647   2.892   1.358   2.586
11917SOL    HW137648   2.872   1.296   2.657
11917SOL    HW237649   2.971   1.322   2.546
11918SOL     OW37650   1.667   1.467   4.452
11918SOL    HW137651   1.723   1.454   4.529
11918SOL    HW237652   1.680   1.389   4.399
11919SOL     OW37653   3.250   4.172  13.799
11919SOL    HW137654   3.159   4.192  13.777
11919SOL    HW237655   3.256   4.183  13.893
11920SOL     OW37656  11.146   2.974   6.729
11920SOL    HW137657  11.069   2.947   6.779
11920SOL    HW237658  11.137   3.069   6.720
11921SOL     OW37659  10.796  13.907   3.322
11921SOL    HW137660  10.762  13.922   3.410
11921SOL    HW237661  10.871  13.966   3.316
11922SOL     OW37662   5.607   2.349  11.954
11922SOL    HW137663   5.559   2.266  11.955
11922SOL    HW237664   5.638   2.358  11.864
11923SOL     OW37665   0.809  11.404  11.156
11923SOL    HW137666   0.886  11.360  11.118
11923SOL    HW237667   0.738  11.383  11.096
11924SOL     OW37668   9.718   9.204  14.284
11924SOL    HW137669   9.773   9.240  14.354
11924SOL    HW237670   9.719   9.109  14.299
11925SOL     OW37671   2.939   6.461   4.235
11925SOL    HW137672   3.027   6.439   4.266
11925SOL    HW237673   2.951   6.479   4.141
11926SOL     OW37674  13.172   5.531   0.362
11926SOL    HW137675  13.177   5.457   0.423
11926SOL    HW237676  13.110   5.592   0.403
11927SOL     OW37677   5.521  12.292   7.850
11927SOL    HW137678   5.559  12.251   7.772
11927SOL    HW237679   5.536  12.228   7.920
11928SOL     OW37680   6.946   7.834   9.258
11928SOL    HW137681   6.909   7.815   9.172
11928SOL    HW237682   6.897   7.910   9.290
11929SOL     OW37683   0.226   5.289  12.385
11929SOL    HW137684   0.176   5.364  12.354
11929SOL    HW237685   0.277   5.261  12.309
11930SOL     OW37686  14.606   8.535   8.397
11930SOL    HW137687  14.571   8.479   8.327
11930SOL    HW237688  14.552   8.515   8.473
11931SOL     OW37689   4.574  11.669  14.142
11931SOL    HW137690   4.544  11.585  14.107
11931SOL    HW237691   4.546  11.733  14.076
11932SOL     OW37692   7.195   3.647  12.738
11932SOL    HW137693   7.285   3.663  12.708
11932SOL    HW237694   7.205   3.589  12.813
11933SOL     OW37695  10.139   4.613   3.330
11933SOL    HW137696  10.219   4.565   3.308
11933SOL    HW237697  10.084   4.603   3.252
11934SOL     OW37698   8.535   7.835   5.139
11934SOL    HW137699   8.518   7.748   5.176
11934SOL    HW237700   8.617   7.863   5.180
11935SOL     OW37701   9.449   5.759   1.927
11935SOL    HW137702   9.532   5.803   1.912
11935SOL    HW237703   9.387   5.830   1.946
11936SOL     OW37704   5.224   1.002  12.135
11936SOL    HW137705   5.244   0.913  12.165
11936SOL    HW237706   5.133   1.017  12.164
11937SOL     OW37707  14.516   8.607   4.222
11937SOL    HW137708  14.586   8.559   4.267
11937SOL    HW237709  14.508   8.688   4.272
11938SOL     OW37710   4.875   1.138   6.051
11938SOL    HW137711   4.934   1.074   6.013
11938SOL    HW237712   4.915   1.223   6.031
11939SOL     OW37713   5.915   1.228   3.620
11939SOL    HW137714   5.946   1.270   3.540
11939SOL    HW237715   5.906   1.300   3.683
11940SOL     OW37716   7.983   9.034   0.802
11940SOL    HW137717   8.051   9.016   0.737
11940SOL    HW237718   7.953   8.948   0.831
11941SOL     OW37719   5.587   5.980   7.837
11941SOL    HW137720   5.589   5.900   7.785
11941SOL    HW237721   5.585   5.949   7.928
11942SOL     OW37722  14.490  12.915   4.313
11942SOL    HW137723  14.413  12.891   4.364
11942SOL    HW237724  14.549  12.958   4.376
11943SOL     OW37725  11.434   6.809  10.134
11943SOL    HW137726  11.511   6.752  10.142
11943SOL    HW237727  11.367   6.752  10.095
11944SOL     OW37728   7.099  13.426   0.507
11944SOL    HW137729   7.161  13.444   0.578
11944SOL    HW237730   7.088  13.510   0.462
11945SOL     OW37731   5.205   2.995   4.644
11945SOL    HW137732   5.216   2.919   4.701
11945SOL    HW237733   5.268   2.981   4.573
11946SOL     OW37734   8.993   8.180   7.029
11946SOL    HW137735   8.900   8.169   7.007
11946SOL    HW237736   9.040   8.130   6.963
11947SOL     OW37737  13.254   1.669  12.071
11947SOL    HW137738  13.263   1.620  11.990
11947SOL    HW237739  13.291   1.611  12.138
11948SOL     OW37740   5.697   1.618   2.425
11948SOL    HW137741   5.669   1.597   2.336
11948SOL    HW237742   5.750   1.698   2.415
11949SOL     OW37743   3.590  13.444   0.821
11949SOL    HW137744   3.602  13.367   0.876
11949SOL    HW237745   3.508  13.483   0.851
11950SOL     OW37746  14.078  14.022   5.542
11950SOL    HW137747  14.031  14.051   5.464
11950SOL    HW237748  14.057  13.929   5.550
11951SOL     OW37749   0.868   1.340   9.272
11951SOL    HW137750   0.954   1.324   9.311
11951SOL    HW237751   0.881   1.417   9.217
11952SOL     OW37752   3.444   8.083  14.430
11952SOL    HW137753   3.391   8.004  14.417
11952SOL    HW237754   3.396   8.135  14.493
11953SOL     OW37755  14.245  10.479   2.479
11953SOL    HW137756  14.172  10.439   2.431
11953SOL    HW237757  14.212  10.564   2.506
11954SOL     OW37758   1.949   1.906   4.332
11954SOL    HW137759   1.858   1.925   4.353
11954SOL    HW237760   1.999   1.961   4.392
11955SOL     OW37761   1.955   2.013   3.095
11955SOL    HW137762   2.048   2.023   3.116
11955SOL    HW237763   1.943   2.063   3.015
11956SOL     OW37764   5.564  10.434   9.310
11956SOL    HW137765   5.526  10.353   9.345
11956SOL    HW237766   5.549  10.428   9.215
11957SOL     OW37767   3.891   3.059  12.277
11957SOL    HW137768   3.853   3.134  12.231
11957SOL    HW237769   3.944   3.014  12.212
11958SOL     OW37770   1.622   1.491  13.606
11958SOL    HW137771   1.687   1.556  13.631
11958SOL    HW237772   1.538   1.536  13.616
11959SOL     OW37773  12.058   0.028  14.651
11959SOL    HW137774  11.982  14.870  14.604
11959SOL    HW237775  12.133  14.865  14.604
11960SOL     OW37776   4.529  13.711   1.751
11960SOL    HW137777   4.577  13.628   1.747
11960SOL    HW237778   4.492  13.722   1.664
11961SOL     OW37779  12.652  14.360   4.891
11961SOL    HW137780  12.585  14.349   4.959
11961SOL    HW237781  12.609  14.334   4.810
11962SOL     OW37782  13.611  10.120   0.548
11962SOL    HW137783  13.673  10.047   0.546
11962SOL    HW237784  13.567  10.112   0.633
11963SOL     OW37785  11.672   8.260  14.535
11963SOL    HW137786  11.723   8.270  14.455
11963SOL    HW237787  11.593   8.213  14.508
11964SOL     OW37788  12.322   8.061   7.731
11964SOL    HW137789  12.333   8.012   7.650
11964SOL    HW237790  12.345   7.999   7.800
11965SOL     OW37791   4.074   7.377  11.300
11965SOL    HW137792   4.079   7.356  11.394
11965SOL    HW237793   4.063   7.472  11.297
11966SOL     OW37794   0.598   9.350   8.320
11966SOL    HW137795   0.691   9.374   8.317
11966SOL    HW237796   0.597   9.254   8.314
11967SOL     OW37797  10.741   8.088   4.987
11967SOL    HW137798  10.696   8.122   5.065
11967SOL    HW237799  10.821   8.049   5.021
11968SOL     OW37800   3.849   4.018   1.074
11968SOL    HW137801   3.860   3.930   1.038
11968SOL    HW237802   3.931   4.035   1.121
11969SOL     OW37803   9.206   0.274   3.788
11969SOL    HW137804   9.288   0.320   3.807
11969SOL    HW237805   9.152   0.338   3.742
11970SOL     OW37806   8.554   6.837   7.446
11970SOL    HW137807   8.499   6.878   7.379
11970SOL    HW237808   8.517   6.869   7.529
11971SOL     OW37809   0.362   2.824   4.945
11971SOL    HW137810   0.436   2.763   4.943
11971SOL    HW237811   0.403   2.910   4.936
11972SOL     OW37812   1.383  10.403   0.289
11972SOL    HW137813   1.411  10.460   0.360
11972SOL    HW237814   1.403  10.315   0.320
11973SOL     OW37815  11.922   9.005   1.676
11973SOL    HW137816  11.874   9.077   1.718
11973SOL    HW237817  11.993   8.985   1.737
11974SOL     OW37818   4.655   3.559   9.785
11974SOL    HW137819   4.704   3.632   9.749
11974SOL    HW237820   4.564   3.583   9.775
11975SOL     OW37821   4.185  12.135   4.341
11975SOL    HW137822   4.243  12.196   4.388
11975SOL    HW237823   4.097  12.163   4.366
11976SOL     OW37824   8.080   6.280   0.614
11976SOL    HW137825   7.994   6.314   0.588
11976SOL    HW237826   8.122   6.257   0.531
11977SOL     OW37827   2.808   8.203   9.787
11977SOL    HW137828   2.851   8.160   9.861
11977SOL    HW237829   2.787   8.132   9.726
11978SOL     OW37830  12.660   9.791   0.553
11978SOL    HW137831  12.728   9.744   0.503
11978SOL    HW237832  12.614   9.843   0.487
11979SOL     OW37833  12.113  12.522   0.178
11979SOL    HW137834  12.208  12.510   0.172
11979SOL    HW237835  12.094  12.591   0.115
11980SOL     OW37836   8.919   0.584  12.891
11980SOL    HW137837   8.993   0.563  12.835
11980SOL    HW237838   8.857   0.512  12.877
11981SOL     OW37839   4.392   2.549   9.551
11981SOL    HW137840   4.421   2.530   9.462
11981SOL    HW237841   4.445   2.624   9.578
11982SOL     OW37842   7.234   8.015  10.142
11982SOL    HW137843   7.160   7.994  10.085
11982SOL    HW237844   7.232   8.110  10.150
11983SOL     OW37845   1.107   7.721   6.095
11983SOL    HW137846   1.138   7.754   6.011
11983SOL    HW237847   1.088   7.800   6.146
11984SOL     OW37848   4.847   5.540   5.979
11984SOL    HW137849   4.932   5.556   5.939
11984SOL    HW237850   4.786   5.592   5.927
11985SOL     OW37851   4.524   8.273   7.298
11985SOL    HW137852   4.590   8.243   7.236
11985SOL    HW237853   4.488   8.353   7.259
11986SOL     OW37854  10.564   0.005   3.646
11986SOL    HW137855  10.558   0.024   3.553
11986SOL    HW237856  10.549   0.089   3.689
11987SOL     OW37857   5.491   4.109   1.004
11987SOL    HW137858   5.545   4.151   1.072
11987SOL    HW237859   5.426   4.059   1.053
11988SOL     OW37860   9.271   4.259  10.794
11988SOL    HW137861   9.236   4.295  10.712
11988SOL    HW237862   9.358   4.226  10.769
11989SOL     OW37863  10.925  14.335   7.481
11989SOL    HW137864  11.015  14.307   7.495
11989SOL    HW237865  10.897  14.288   7.402
11990SOL     OW37866   9.255   8.683   6.839
11990SOL    HW137867   9.335   8.630   6.830
11990SOL    HW237868   9.214   8.679   6.753
11991SOL     OW37869   9.476   6.322  12.239
11991SOL    HW137870   9.530   6.371  12.300
11991SOL    HW237871   9.484   6.369  12.156
11992SOL     OW37872  14.648  14.859   6.675
11992SOL    HW137873  14.639  14.764   6.671
11992SOL    HW237874  14.627   0.006   6.766
11993SOL     OW37875   6.325   7.150   3.994
11993SOL    HW137876   6.405   7.156   4.048
11993SOL    HW237877   6.313   7.238   3.959
11994SOL     OW37878   1.495   3.457  14.630
11994SOL    HW137879   1.461   3.403  14.559
11994SOL    HW237880   1.490   3.547  14.598
11995SOL     OW37881  14.302   6.112   1.483
11995SOL    HW137882  14.370   6.104   1.416
11995SOL    HW237883  14.276   6.022   1.503
11996SOL     OW37884   0.323   4.366  13.456
11996SOL    HW137885   0.322   4.443  13.399
11996SOL    HW237886   0.408   4.370  13.499
11997SOL     OW37887   2.154  13.959   8.266
11997SOL    HW137888   2.138  13.921   8.179
11997SOL    HW237889   2.186  13.886   8.319
11998SOL     OW37890  13.855  13.942   9.165
11998SOL    HW137891  13.879  13.862   9.118
11998SOL    HW237892  13.801  13.912   9.238
11999SOL     OW37893   5.613   8.077   0.413
11999SOL    HW137894   5.581   8.142   0.351
11999SOL    HW237895   5.587   7.993   0.376
12000SOL     OW37896  12.612  13.714   9.401
12000SOL    HW137897  12.682  13.652   9.422
12000SOL    HW237898  12.571  13.734   9.485
12001SOL     OW37899   6.518  14.101   6.835
12001SOL    HW137900   6.517  14.187   6.793
12001SOL    HW237901   6.522  14.119   6.929
12002SOL     OW37902   3.789   1.461   5.201
12002SOL    HW137903   3.853   1.523   5.166
12002SOL    HW237904   3.808   1.457   5.295
12003SOL     OW37905   2.496   7.730  10.381
12003SOL    HW137906   2.441   7.768  10.312
12003SOL    HW237907   2.482   7.788  10.457
12004SOL     OW37908   2.420  10.167   5.569
12004SOL    HW137909   2.338  10.200   5.531
12004SOL    HW237910   2.484  10.176   5.498
12005SOL     OW37911   3.843   8.885   0.776
12005SOL    HW137912   3.823   8.850   0.689
12005SOL    HW237913   3.847   8.980   0.763
12006SOL     OW37914   9.264   9.269   9.839
12006SOL    HW137915   9.307   9.191   9.804
12006SOL    HW237916   9.171   9.246   9.841
12007SOL     OW37917   4.178   1.466  10.044
12007SOL    HW137918   4.084   1.458  10.057
12007SOL    HW237919   4.217   1.420  10.119
12008SOL     OW37920  14.206  11.613   1.797
12008SOL    HW137921  14.254  11.601   1.878
12008SOL    HW237922  14.177  11.524   1.774
12009SOL     OW37923   5.735  13.361  12.345
12009SOL    HW137924   5.776  13.275  12.354
12009SOL    HW237925   5.732  13.375  12.250
12010SOL     OW37926   4.096   0.984   0.721
12010SOL    HW137927   4.108   1.005   0.629
12010SOL    HW237928   4.040   0.907   0.721
12011SOL     OW37929   1.061  10.798   1.649
12011SOL    HW137930   1.060  10.756   1.735
12011SOL    HW237931   1.020  10.735   1.591
12012SOL     OW37932   2.111   0.890   4.282
12012SOL    HW137933   2.031   0.841   4.260
12012SOL    HW237934   2.166   0.826   4.327
12013SOL     OW37935   5.703   5.587   5.812
12013SOL    HW137936   5.665   5.651   5.871
12013SOL    HW237937   5.651   5.593   5.732
12014SOL     OW37938  14.256   1.834  10.285
12014SOL    HW137939  14.275   1.755  10.336
12014SOL    HW237940  14.201   1.886  10.343
12015SOL     OW37941  11.246  10.625  13.081
12015SOL    HW137942  11.187  10.695  13.109
12015SOL    HW237943  11.249  10.634  12.985
12016SOL     OW37944  11.763   9.565   0.967
12016SOL    HW137945  11.789   9.473   0.963
12016SOL    HW237946  11.674   9.563   1.005
12017SOL     OW37947   0.801  12.229   5.735
12017SOL    HW137948   0.708  12.228   5.712
12017SOL    HW237949   0.847  12.223   5.651
12018SOL     OW37950  12.517  13.209  12.052
12018SOL    HW137951  12.539  13.291  12.007
12018SOL    HW237952  12.459  13.235  12.124
12019SOL     OW37953   5.557   6.417  10.253
12019SOL    HW137954   5.559   6.446  10.344
12019SOL    HW237955   5.608   6.483  10.206
12020SOL     OW37956   7.997  12.704  13.578
12020SOL    HW137957   8.022  12.613  13.591
12020SOL    HW237958   7.932  12.701  13.508
12021SOL     OW37959   5.954   4.979   1.235
12021SOL    HW137960   5.941   5.064   1.193
12021SOL    HW237961   5.953   4.998   1.329
12022SOL     OW37962  10.568  10.659   1.372
12022SOL    HW137963  10.625  10.673   1.297
12022SOL    HW237964  10.565  10.563   1.382
12023SOL     OW37965  14.278   2.409  10.715
12023SOL    HW137966  14.228   2.328  10.719
12023SOL    HW237967  14.317   2.418  10.802
12024SOL     OW37968  11.903   2.496  10.544
12024SOL    HW137969  11.892   2.524  10.453
12024SOL    HW237970  11.913   2.401  10.539
12025SOL     OW37971  14.058   8.188  11.587
12025SOL    HW137972  14.114   8.118  11.621
12025SOL    HW237973  14.067   8.259  11.652
12026SOL     OW37974  12.007   5.081   1.982
12026SOL    HW137975  11.985   5.085   1.889
12026SOL    HW237976  12.033   5.170   2.005
12027SOL     OW37977   5.704  13.441   3.271
12027SOL    HW137978   5.623  13.393   3.252
12027SOL    HW237979   5.680  13.533   3.259
12028SOL     OW37980   0.876   1.593   9.148
12028SOL    HW137981   0.876   1.655   9.221
12028SOL    HW237982   0.930   1.636   9.081
12029SOL     OW37983   2.220   5.074   9.727
12029SOL    HW137984   2.155   5.032   9.784
12029SOL    HW237985   2.268   5.001   9.688
12030SOL     OW37986   6.167   1.461  11.715
12030SOL    HW137987   6.103   1.423  11.655
12030SOL    HW237988   6.244   1.405  11.707
12031SOL     OW37989   5.844   5.752   4.365
12031SOL    HW137990   5.889   5.797   4.436
12031SOL    HW237991   5.905   5.683   4.339
12032SOL     OW37992   4.236   2.727   1.137
12032SOL    HW137993   4.226   2.814   1.099
12032SOL    HW237994   4.193   2.669   1.075
12033SOL     OW37995   0.619   4.811   8.041
12033SOL    HW137996   0.605   4.905   8.034
12033SOL    HW237997   0.645   4.784   7.952
12034SOL     OW37998   2.206  13.621   7.929
12034SOL    HW137999   2.181  13.657   8.014
12034SOL    HW238000   2.227  13.530   7.947
12035SOL     OW38001  10.634  14.069   8.470
12035SOL    HW138002  10.616  13.984   8.431
12035SOL    HW238003  10.701  14.108   8.413
12036SOL     OW38004   6.083  14.701   4.795
12036SOL    HW138005   6.121  14.678   4.879
12036SOL    HW238006   6.158  14.725   4.741
12037SOL     OW38007  10.569   9.814   1.528
12037SOL    HW138008  10.478   9.815   1.497
12037SOL    HW238009  10.562   9.838   1.620
12038SOL     OW38010  14.110   1.815   5.781
12038SOL    HW138011  14.161   1.805   5.862
12038SOL    HW238012  14.171   1.790   5.712
12039SOL     OW38013   6.307   2.724   3.555
12039SOL    HW138014   6.301   2.754   3.465
12039SOL    HW238015   6.366   2.649   3.551
12040SOL     OW38016   1.002  14.705   8.348
12040SOL    HW138017   1.083  14.654   8.353
12040SOL    HW238018   0.998  14.734   8.257
12041SOL     OW38019   3.712  13.887   5.022
12041SOL    HW138020   3.706  13.909   5.115
12041SOL    HW238021   3.800  13.853   5.011
12042SOL     OW38022   4.324   9.012   5.614
12042SOL    HW138023   4.344   8.990   5.523
12042SOL    HW238024   4.353   8.937   5.665
12043SOL     OW38025   7.657   1.580   9.904
12043SOL    HW138026   7.637   1.549   9.815
12043SOL    HW238027   7.579   1.628   9.932
12044SOL     OW38028  11.418   5.500   1.133
12044SOL    HW138029  11.340   5.539   1.094
12044SOL    HW238030  11.385   5.426   1.185
12045SOL     OW38031   7.946  13.998   6.540
12045SOL    HW138032   7.893  14.039   6.608
12045SOL    HW238033   7.927  14.048   6.461
12046SOL     OW38034   2.862   9.337   3.553
12046SOL    HW138035   2.799   9.270   3.580
12046SOL    HW238036   2.823   9.377   3.475
12047SOL     OW38037  10.510  13.015  10.806
12047SOL    HW138038  10.418  12.996  10.785
12047SOL    HW238039  10.529  13.097  10.760
12048SOL     OW38040   9.598   3.460   9.905
12048SOL    HW138041   9.650   3.405   9.847
12048SOL    HW238042   9.662   3.516   9.949
12049SOL     OW38043   6.368  11.817  10.646
12049SOL    HW138044   6.287  11.866  10.633
12049SOL    HW238045   6.343  11.726  10.631
12050SOL     OW38046   0.195   8.726  11.961
12050SOL    HW138047   0.187   8.651  11.902
12050SOL    HW238048   0.143   8.795  11.919
12051SOL     OW38049  12.852   7.633   5.814
12051SOL    HW138050  12.925   7.587   5.855
12051SOL    HW238051  12.811   7.568   5.758
12052SOL     OW38052  12.650   4.868  14.367
12052SOL    HW138053  12.572   4.817  14.390
12052SOL    HW238054  12.628   4.907  14.282
12053SOL     OW38055   1.798   8.814   4.109
12053SOL    HW138056   1.845   8.884   4.153
12053SOL    HW238057   1.706   8.839   4.116
12054SOL     OW38058  13.250   9.978   4.212
12054SOL    HW138059  13.312  10.051   4.212
12054SOL    HW238060  13.280   9.921   4.142
12055SOL     OW38061  12.762   6.721  10.048
12055SOL    HW138062  12.739   6.792   9.988
12055SOL    HW238063  12.857   6.712  10.040
12056SOL     OW38064  13.141   2.249   3.509
12056SOL    HW138065  13.171   2.172   3.462
12056SOL    HW238066  13.220   2.296   3.533
12057SOL     OW38067  10.953   0.372   9.965
12057SOL    HW138068  10.880   0.389   9.905
12057SOL    HW238069  10.975   0.280   9.949
12058SOL     OW38070   4.485  10.921  11.023
12058SOL    HW138071   4.421  10.976  11.068
12058SOL    HW238072   4.492  10.961  10.935
12059SOL     OW38073  13.910   1.022   1.208
12059SOL    HW138074  13.974   1.017   1.279
12059SOL    HW238075  13.923   1.109   1.171
12060SOL     OW38076   3.771   5.840   8.500
12060SOL    HW138077   3.821   5.882   8.570
12060SOL    HW238078   3.686   5.883   8.501
12061SOL     OW38079   0.181   0.472   6.873
12061SOL    HW138080   0.118   0.543   6.858
12061SOL    HW238081   0.174   0.454   6.967
12062SOL     OW38082   9.538  12.179   2.408
12062SOL    HW138083   9.466  12.219   2.457
12062SOL    HW238084   9.595  12.252   2.384
12063SOL     OW38085   6.572   7.291   4.326
12063SOL    HW138086   6.649   7.323   4.279
12063SOL    HW238087   6.499   7.307   4.266
12064SOL     OW38088   4.112   4.993   9.352
12064SOL    HW138089   4.206   4.987   9.335
12064SOL    HW238090   4.091   5.085   9.335
12065SOL     OW38091   1.417   6.312  12.903
12065SOL    HW138092   1.403   6.218  12.894
12065SOL    HW238093   1.498   6.329  12.856
12066SOL     OW38094  10.253   3.951  14.809
12066SOL    HW138095  10.333   3.921  14.764
12066SOL    HW238096  10.284   3.983   0.018
12067SOL     OW38097  10.647   9.849   7.972
12067SOL    HW138098  10.736   9.814   7.968
12067SOL    HW238099  10.594   9.775   8.003
12068SOL     OW38100  14.343   4.999   3.271
12068SOL    HW138101  14.356   4.904   3.267
12068SOL    HW238102  14.351   5.027   3.180
12069SOL     OW38103  14.146  11.105   4.861
12069SOL    HW138104  14.081  11.075   4.797
12069SOL    HW238105  14.131  11.199   4.867
12070SOL     OW38106   8.928   3.733   8.501
12070SOL    HW138107   8.861   3.738   8.569
12070SOL    HW238108   9.011   3.729   8.549
12071SOL     OW38109   2.612   2.650  14.358
12071SOL    HW138110   2.570   2.607  14.283
12071SOL    HW238111   2.705   2.629  14.348
12072SOL     OW38112  12.669  11.438   6.966
12072SOL    HW138113  12.707  11.353   6.945
12072SOL    HW238114  12.721  11.470   7.040
12073SOL     OW38115  10.202   7.934   4.578
12073SOL    HW138116  10.134   7.994   4.546
12073SOL    HW238117  10.161   7.889   4.653
12074SOL     OW38118   8.252  11.085   5.944
12074SOL    HW138119   8.282  11.048   6.027
12074SOL    HW238120   8.202  11.015   5.903
12075SOL     OW38121   3.705  10.436   2.132
12075SOL    HW138122   3.631  10.397   2.084
12075SOL    HW238123   3.681  10.427   2.224
12076SOL     OW38124  14.839  10.981   3.198
12076SOL    HW138125   0.009  11.052   3.152
12076SOL    HW238126  14.785  11.025   3.264
12077SOL     OW38127   6.988   2.984  11.633
12077SOL    HW138128   7.067   2.936  11.656
12077SOL    HW238129   7.020   3.065  11.594
12078SOL     OW38130  13.097   5.132   1.132
12078SOL    HW138131  13.029   5.070   1.106
12078SOL    HW238132  13.099   5.128   1.227
12079SOL     OW38133   4.290  12.167   6.938
12079SOL    HW138134   4.212  12.130   6.979
12079SOL    HW238135   4.286  12.137   6.848
12080SOL     OW38136   3.003   3.011  11.139
12080SOL    HW138137   3.012   2.965  11.056
12080SOL    HW238138   3.077   2.980  11.191
12081SOL     OW38139  10.414   9.924   2.269
12081SOL    HW138140  10.508   9.944   2.273
12081SOL    HW238141  10.400   9.861   2.340
12082SOL     OW38142  12.765   9.671  12.883
12082SOL    HW138143  12.855   9.648  12.903
12082SOL    HW238144  12.766   9.766  12.876
12083SOL     OW38145   4.455  10.571   9.575
12083SOL    HW138146   4.536  10.541   9.535
12083SOL    HW238147   4.459  10.539   9.665
12084SOL     OW38148   6.645  13.730  13.537
12084SOL    HW138149   6.701  13.655  13.519
12084SOL    HW238150   6.685  13.802  13.488
12085SOL     OW38151   9.215   9.749  11.310
12085SOL    HW138152   9.308   9.761  11.292
12085SOL    HW238153   9.195   9.812  11.380
12086SOL     OW38154   3.620   2.439  11.139
12086SOL    HW138155   3.625   2.453  11.044
12086SOL    HW238156   3.573   2.357  11.149
12087SOL     OW38157   3.832  10.090  11.933
12087SOL    HW138158   3.876  10.105  12.016
12087SOL    HW238159   3.876  10.149  11.871
12088SOL     OW38160   2.764  11.737  13.615
12088SOL    HW138161   2.763  11.782  13.699
12088SOL    HW238162   2.854  11.706  13.605
12089SOL     OW38163   1.119  13.093   7.468
12089SOL    HW138164   1.159  13.009   7.492
12089SOL    HW238165   1.044  13.069   7.413
12090SOL     OW38166  11.872   6.990   5.036
12090SOL    HW138167  11.833   7.041   5.106
12090SOL    HW238168  11.801   6.977   4.973
12091SOL     OW38169   1.187   3.966   8.654
12091SOL    HW138170   1.255   3.937   8.593
12091SOL    HW238171   1.212   4.056   8.676
12092SOL     OW38172  14.661  10.704   9.484
12092SOL    HW138173  14.606  10.774   9.520
12092SOL    HW238174  14.664  10.722   9.390
12093SOL     OW38175  13.642   6.767   0.292
12093SOL    HW138176  13.571   6.728   0.343
12093SOL    HW238177  13.721   6.722   0.322
12094SOL     OW38178   1.923   5.633   3.628
12094SOL    HW138179   1.860   5.670   3.567
12094SOL    HW238180   1.953   5.553   3.585
12095SOL     OW38181   4.218   0.940   8.179
12095SOL    HW138182   4.146   0.962   8.239
12095SOL    HW238183   4.174   0.909   8.100
12096SOL     OW38184  10.545   2.889   8.360
12096SOL    HW138185  10.499   2.806   8.351
12096SOL    HW238186  10.535   2.931   8.274
12097SOL     OW38187   6.541   3.761   3.391
12097SOL    HW138188   6.587   3.678   3.387
12097SOL    HW238189   6.609   3.827   3.380
12098SOL     OW38190   8.914   6.672  13.267
12098SOL    HW138191   8.868   6.619  13.332
12098SOL    HW238192   8.954   6.743  13.318
12099SOL     OW38193   5.765   7.857  12.545
12099SOL    HW138194   5.686   7.846  12.598
12099SOL    HW238195   5.735   7.905  12.468
12100SOL     OW38196  14.539   8.962   8.169
12100SOL    HW138197  14.635   8.959   8.163
12100SOL    HW238198  14.514   8.871   8.188
12101SOL     OW38199  12.754  11.340   9.051
12101SOL    HW138200  12.787  11.330   8.962
12101SOL    HW238201  12.790  11.266   9.099
12102SOL     OW38202  13.180   7.083   8.631
12102SOL    HW138203  13.268   7.120   8.630
12102SOL    HW238204  13.169   7.044   8.544
12103SOL     OW38205  12.681  12.586   0.230
12103SOL    HW138206  12.767  12.546   0.218
12103SOL    HW238207  12.667  12.585   0.324
12104SOL     OW38208   4.342   9.485   6.331
12104SOL    HW138209   4.287   9.524   6.399
12104SOL    HW238210   4.336   9.391   6.346
12105SOL     OW38211   8.706   6.078  10.220
12105SOL    HW138212   8.790   6.059  10.179
12105SOL    HW238213   8.664   5.992  10.231
12106SOL     OW38214  14.859   6.828   0.042
12106SOL    HW138215  14.781   6.792  14.875
12106SOL    HW238216  14.826   6.900   0.096
12107SOL     OW38217  11.940  13.531   3.560
12107SOL    HW138218  11.888  13.509   3.637
12107SOL    HW238219  11.924  13.459   3.499
12108SOL     OW38220  13.987  13.118   1.674
12108SOL    HW138221  14.003  13.039   1.623
12108SOL    HW238222  14.031  13.188   1.626
12109SOL     OW38223   4.619   1.583   8.553
12109SOL    HW138224   4.708   1.589   8.587
12109SOL    HW238225   4.622   1.631   8.470
12110SOL     OW38226   9.017  13.305  11.919
12110SOL    HW138227   9.032  13.399  11.927
12110SOL    HW238228   8.922  13.298  11.904
12111SOL     OW38229  13.592   3.388  14.557
12111SOL    HW138230  13.584   3.362  14.648
12111SOL    HW238231  13.678   3.357  14.530
12112SOL     OW38232  13.217  12.881  13.695
12112SOL    HW138233  13.122  12.890  13.684
12112SOL    HW238234  13.228  12.806  13.752
12113SOL     OW38235   4.138   3.505  13.755
12113SOL    HW138236   4.122   3.574  13.690
12113SOL    HW238237   4.144   3.425  13.704
12114SOL     OW38238   7.624   0.766   2.681
12114SOL    HW138239   7.710   0.766   2.722
12114SOL    HW238240   7.642   0.749   2.589
12115SOL     OW38241   4.287   3.315   2.195
12115SOL    HW138242   4.256   3.368   2.122
12115SOL    HW238243   4.362   3.363   2.230
12116SOL     OW38244  13.182   4.852   5.315
12116SOL    HW138245  13.151   4.921   5.257
12116SOL    HW238246  13.107   4.795   5.327
12117SOL     OW38247  12.767   0.788   7.215
12117SOL    HW138248  12.742   0.843   7.289
12117SOL    HW238249  12.783   0.849   7.144
12118SOL     OW38250   5.107  14.025   8.239
12118SOL    HW138251   5.022  14.010   8.281
12118SOL    HW238252   5.099  13.984   8.153
12119SOL     OW38253   2.661   8.390   7.605
12119SOL    HW138254   2.707   8.320   7.651
12119SOL    HW238255   2.708   8.470   7.628
12120SOL     OW38256   9.397   7.090   5.820
12120SOL    HW138257   9.447   7.046   5.889
12120SOL    HW238258   9.463   7.119   5.757
12121SOL     OW38259   7.178  11.911   6.636
12121SOL    HW138260   7.149  11.924   6.546
12121SOL    HW238261   7.264  11.869   6.628
12122SOL     OW38262   1.543  13.836   6.585
12122SOL    HW138263   1.587  13.754   6.607
12122SOL    HW238264   1.456  13.828   6.623
12123SOL     OW38265   9.939   2.376  14.569
12123SOL    HW138266   9.989   2.456  14.552
12123SOL    HW238267   9.848   2.406  14.571
12124SOL     OW38268   6.358   7.628   4.126
12124SOL    HW138269   6.319   7.545   4.096
12124SOL    HW238270   6.439   7.602   4.169
12125SOL     OW38271  14.307  14.338   5.721
12125SOL    HW138272  14.243  14.287   5.671
12125SOL    HW238273  14.286  14.320   5.813
12126SOL     OW38274   3.640  13.072   7.756
12126SOL    HW138275   3.700  13.007   7.719
12126SOL    HW238276   3.697  13.138   7.796
12127SOL     OW38277   8.321   9.080  12.191
12127SOL    HW138278   8.372   9.017  12.242
12127SOL    HW238279   8.387   9.124  12.136
12128SOL     OW38280  13.141   5.687   7.626
12128SOL    HW138281  13.104   5.733   7.550
12128SOL    HW238282  13.117   5.742   7.701
12129SOL     OW38283   0.190  10.593   9.111
12129SOL    HW138284   0.194  10.681   9.148
12129SOL    HW238285   0.119  10.597   9.046
12130SOL     OW38286   8.653   9.870   9.331
12130SOL    HW138287   8.719   9.913   9.386
12130SOL    HW238288   8.578   9.930   9.333
12131SOL     OW38289   3.618   9.979  12.792
12131SOL    HW138290   3.703  10.009  12.760
12131SOL    HW238291   3.573   9.948  12.714
12132SOL     OW38292   4.387   9.480  13.829
12132SOL    HW138293   4.292   9.467  13.841
12132SOL    HW238294   4.427   9.417  13.889
12133SOL     OW38295   5.039  14.663  13.447
12133SOL    HW138296   5.125  14.658  13.405
12133SOL    HW238297   5.049  14.614  13.529
12134SOL     OW38298   7.514   3.127  12.480
12134SOL    HW138299   7.520   3.208  12.431
12134SOL    HW238300   7.440   3.140  12.539
12135SOL     OW38301  12.543   5.921   7.555
12135SOL    HW138302  12.625   5.870   7.553
12135SOL    HW238303  12.515   5.917   7.646
12136SOL     OW38304   2.287  10.983  14.660
12136SOL    HW138305   2.372  10.945  14.639
12136SOL    HW238306   2.236  10.911  14.695
12137SOL     OW38307   5.354  14.297   2.237
12137SOL    HW138308   5.291  14.228   2.257
12137SOL    HW238309   5.349  14.307   2.141
12138SOL     OW38310   3.478   3.738   5.902
12138SOL    HW138311   3.492   3.715   5.810
12138SOL    HW238312   3.388   3.710   5.920
12139SOL     OW38313   2.645   2.025   1.146
12139SOL    HW138314   2.573   2.046   1.086
12139SOL    HW238315   2.710   2.094   1.130
12140SOL     OW38316   9.653   8.748   4.696
12140SOL    HW138317   9.655   8.722   4.788
12140SOL    HW238318   9.604   8.678   4.653
12141SOL     OW38319   1.265  10.334   6.260
12141SOL    HW138320   1.306  10.275   6.196
12141SOL    HW238321   1.325  10.333   6.335
12142SOL     OW38322  11.868   9.446   5.734
12142SOL    HW138323  11.893   9.505   5.805
12142SOL    HW238324  11.935   9.460   5.667
12143SOL     OW38325   1.814  10.519   3.823
12143SOL    HW138326   1.768  10.439   3.799
12143SOL    HW238327   1.784  10.538   3.912
12144SOL     OW38328  11.439   3.836   8.292
12144SOL    HW138329  11.398   3.896   8.355
12144SOL    HW238330  11.367   3.783   8.258
12145SOL     OW38331   3.555   8.035   1.780
12145SOL    HW138332   3.531   7.981   1.855
12145SOL    HW238333   3.472   8.051   1.735
12146SOL     OW38334   2.130  14.587  13.282
12146SOL    HW138335   2.226  14.584  13.276
12146SOL    HW238336   2.100  14.557  13.196
12147SOL     OW38337  10.331   8.224   8.941
12147SOL    HW138338  10.328   8.237   8.846
12147SOL    HW238339  10.424   8.209   8.960
12148SOL     OW38340   9.525   4.888   6.034
12148SOL    HW138341   9.523   4.880   5.939
12148SOL    HW238342   9.433   4.887   6.061
12149SOL     OW38343   3.196   5.968   8.344
12149SOL    HW138344   3.196   6.012   8.429
12149SOL    HW238345   3.113   5.993   8.304
12150SOL     OW38346  12.167   5.757  12.223
12150SOL    HW138347  12.193   5.826  12.283
12150SOL    HW238348  12.093   5.714  12.266
12151SOL     OW38349  13.041   5.584  10.285
12151SOL    HW138350  13.134   5.583  10.310
12151SOL    HW238351  13.041   5.613  10.194
12152SOL     OW38352   8.140   0.898  12.305
12152SOL    HW138353   8.129   0.878  12.398
12152SOL    HW238354   8.085   0.834  12.260
12153SOL     OW38355   0.599   6.220  12.029
12153SOL    HW138356   0.628   6.304  12.063
12153SOL    HW238357   0.680   6.171  12.013
12154SOL     OW38358   1.550   1.574   6.403
12154SOL    HW138359   1.539   1.666   6.379
12154SOL    HW238360   1.634   1.571   6.448
12155SOL     OW38361   3.384   2.702   1.997
12155SOL    HW138362   3.430   2.698   2.081
12155SOL    HW238363   3.424   2.632   1.945
12156SOL     OW38364   5.419  10.628  14.854
12156SOL    HW138365   5.333  10.613   0.019
12156SOL    HW238366   5.408  10.600  14.763
12157SOL     OW38367   5.874   4.730  12.413
12157SOL    HW138368   5.950   4.680  12.441
12157SOL    HW238369   5.901   4.821  12.420
12158SOL     OW38370   1.137   2.210   5.521
12158SOL    HW138371   1.148   2.216   5.616
12158SOL    HW238372   1.205   2.266   5.485
12159SOL     OW38373   9.088   9.630   7.557
12159SOL    HW138374   9.171   9.596   7.591
12159SOL    HW238375   9.025   9.559   7.572
12160SOL     OW38376   4.886   4.745   2.538
12160SOL    HW138377   4.856   4.788   2.458
12160SOL    HW238378   4.971   4.785   2.557
12161SOL     OW38379   4.038   4.040  14.788
12161SOL    HW138380   4.027   4.135  14.794
12161SOL    HW238381   4.025   4.020  14.695
12162SOL     OW38382  10.165   2.271   3.794
12162SOL    HW138383  10.137   2.314   3.713
12162SOL    HW238384  10.084   2.255   3.842
12163SOL     OW38385   9.287   5.656   7.236
12163SOL    HW138386   9.294   5.570   7.278
12163SOL    HW238387   9.202   5.690   7.265
12164SOL     OW38388  12.465  11.067   7.509
12164SOL    HW138389  12.559  11.065   7.523
12164SOL    HW238390  12.454  11.059   7.414
12165SOL     OW38391  13.297   7.394  12.688
12165SOL    HW138392  13.246   7.464  12.646
12165SOL    HW238393  13.260   7.313  12.653
12166SOL     OW38394   6.016  11.055  11.536
12166SOL    HW138395   6.062  11.010  11.606
12166SOL    HW238396   5.970  11.127  11.579
12167SOL     OW38397   5.006   3.033  12.021
12167SOL    HW138398   5.000   3.030  12.116
12167SOL    HW238399   4.921   3.067  11.993
12168SOL     OW38400   7.715   2.755   7.026
12168SOL    HW138401   7.714   2.734   6.933
12168SOL    HW238402   7.646   2.820   7.037
12169SOL     OW38403  14.859   0.707   1.536
12169SOL    HW138404  14.819   0.679   1.454
12169SOL    HW238405   0.010   0.798   1.521
12170SOL     OW38406  11.673   7.528   7.120
12170SOL    HW138407  11.659   7.619   7.096
12170SOL    HW238408  11.763   7.509   7.091
12171SOL     OW38409  14.145  13.026   5.824
12171SOL    HW138410  14.202  12.949   5.825
12171SOL    HW238411  14.194  13.091   5.774
12172SOL     OW38412   1.688   0.644   5.234
12172SOL    HW138413   1.673   0.705   5.307
12172SOL    HW238414   1.606   0.596   5.225
12173SOL     OW38415  11.120   2.046   1.596
12173SOL    HW138416  11.074   2.089   1.669
12173SOL    HW238417  11.135   1.956   1.627
12174SOL     OW38418  11.661   7.699   0.054
12174SOL    HW138419  11.595   7.642   0.015
12174SOL    HW238420  11.712   7.641   0.111
12175SOL     OW38421  13.585  13.234   3.266
12175SOL    HW138422  13.655  13.288   3.303
12175SOL    HW238423  13.507  13.257   3.317
12176SOL     OW38424   4.247   1.001   0.179
12176SOL    HW138425   4.297   1.063   0.126
12176SOL    HW238426   4.199   0.948   0.116
12177SOL     OW38427   5.394   8.623   4.139
12177SOL    HW138428   5.322   8.638   4.199
12177SOL    HW238429   5.354   8.620   4.052
12178SOL     OW38430   7.139   6.514   6.416
12178SOL    HW138431   7.178   6.582   6.362
12178SOL    HW238432   7.161   6.432   6.372
12179SOL     OW38433   3.719   9.640   3.711
12179SOL    HW138434   3.627   9.646   3.737
12179SOL    HW238435   3.767   9.685   3.781
12180SOL     OW38436  11.385  13.333   6.865
12180SOL    HW138437  11.365  13.365   6.777
12180SOL    HW238438  11.417  13.411   6.912
12181SOL     OW38439   1.102  13.771   2.551
12181SOL    HW138440   1.176  13.712   2.536
12181SOL    HW238441   1.120  13.809   2.637
12182SOL     OW38442   4.951   4.949   1.629
12182SOL    HW138443   4.990   5.002   1.560
12182SOL    HW238444   5.003   4.869   1.631
12183SOL     OW38445  10.149   7.337  10.339
12183SOL    HW138446  10.230   7.346  10.290
12183SOL    HW238447  10.139   7.242  10.352
12184SOL     OW38448   1.252  14.111   3.605
12184SOL    HW138449   1.270  14.200   3.572
12184SOL    HW238450   1.200  14.071   3.535
12185SOL     OW38451   2.025   8.101   9.619
12185SOL    HW138452   2.038   8.006   9.623
12185SOL    HW238453   2.105   8.137   9.658
12186SOL     OW38454   8.395   6.976  11.372
12186SOL    HW138455   8.409   7.070  11.357
12186SOL    HW238456   8.460   6.933  11.316
12187SOL     OW38457   9.694   5.795   2.142
12187SOL    HW138458   9.777   5.808   2.096
12187SOL    HW238459   9.687   5.870   2.201
12188SOL     OW38460   6.577   0.618  13.912
12188SOL    HW138461   6.636   0.582  13.979
12188SOL    HW238462   6.535   0.541  13.873
12189SOL     OW38463  11.771   5.605  10.693
12189SOL    HW138464  11.806   5.690  10.668
12189SOL    HW238465  11.709   5.583  10.624
12190SOL     OW38466   6.789   8.953   1.232
12190SOL    HW138467   6.844   8.931   1.307
12190SOL    HW238468   6.723   9.013   1.267
12191SOL     OW38469   8.622   9.009   5.349
12191SOL    HW138470   8.619   9.102   5.326
12191SOL    HW238471   8.682   9.005   5.424
12192SOL     OW38472  10.832   1.905  13.372
12192SOL    HW138473  10.925   1.887  13.359
12192SOL    HW238474  10.791   1.818  13.376
12193SOL     OW38475   9.616  10.456  14.502
12193SOL    HW138476   9.537  10.450  14.448
12193SOL    HW238477   9.586  10.438  14.591
12194SOL     OW38478  11.134   9.754  12.931
12194SOL    HW138479  11.160   9.683  12.988
12194SOL    HW238480  11.089   9.712  12.858
12195SOL     OW38481  13.960   8.490  13.983
12195SOL    HW138482  13.894   8.421  13.974
12195SOL    HW238483  13.983   8.513  13.893
12196SOL     OW38484   2.755  14.427  13.680
12196SOL    HW138485   2.715  14.341  13.674
12196SOL    HW238486   2.796  14.442  13.595
12197SOL     OW38487   6.252  10.167   5.863
12197SOL    HW138488   6.246  10.071   5.864
12197SOL    HW238489   6.323  10.186   5.801
12198SOL     OW38490   2.223  13.915   0.233
12198SOL    HW138491   2.173  13.984   0.278
12198SOL    HW238492   2.309  13.917   0.275
12199SOL     OW38493   2.313   7.851   1.861
12199SOL    HW138494   2.226   7.815   1.846
12199SOL    HW238495   2.364   7.825   1.784
12200SOL     OW38496  11.838  13.488  13.177
12200SOL    HW138497  11.845  13.576  13.215
12200SOL    HW238498  11.927  13.463  13.156
12201SOL     OW38499   6.188   7.028   6.456
12201SOL    HW138500   6.104   7.074   6.460
12201SOL    HW238501   6.241   7.082   6.397
12202SOL     OW38502   8.201   9.977   2.853
12202SOL    HW138503   8.210   9.882   2.864
12202SOL    HW238504   8.227  10.014   2.937
12203SOL     OW38505  13.632   0.985   2.449
12203SOL    HW138506  13.679   1.069   2.452
12203SOL    HW238507  13.628   0.964   2.356
12204SOL     OW38508   2.969   4.448  12.480
12204SOL    HW138509   2.906   4.381  12.507
12204SOL    HW238510   3.015   4.472  12.560
12205SOL     OW38511   8.738   2.300   0.711
12205SOL    HW138512   8.795   2.376   0.701
12205SOL    HW238513   8.735   2.259   0.625
12206SOL     OW38514  13.887   5.365   8.028
12206SOL    HW138515  13.977   5.381   8.056
12206SOL    HW238516  13.892   5.283   7.978
12207SOL     OW38517   3.680  13.287   8.251
12207SOL    HW138518   3.746  13.247   8.307
12207SOL    HW238519   3.652  13.365   8.299
12208SOL     OW38520  12.202  13.612   0.452
12208SOL    HW138521  12.272  13.668   0.486
12208SOL    HW238522  12.164  13.571   0.530
12209SOL     OW38523   9.472  11.079  14.556
12209SOL    HW138524   9.433  11.166  14.549
12209SOL    HW238525   9.427  11.027  14.489
12210SOL     OW38526   6.962   3.521   6.493
12210SOL    HW138527   6.976   3.448   6.553
12210SOL    HW238528   6.955   3.598   6.549
12211SOL     OW38529  10.049   9.538   1.355
12211SOL    HW138530  10.023   9.630   1.343
12211SOL    HW238531   9.983   9.503   1.415
12212SOL     OW38532   0.465   1.930   2.994
12212SOL    HW138533   0.392   1.892   3.043
12212SOL    HW238534   0.539   1.872   3.013
12213SOL     OW38535   6.084  11.295   2.268
12213SOL    HW138536   6.031  11.374   2.256
12213SOL    HW238537   6.101  11.264   2.180
12214SOL     OW38538   1.505   3.294   7.532
12214SOL    HW138539   1.553   3.373   7.556
12214SOL    HW238540   1.486   3.305   7.438
12215SOL     OW38541  11.110   5.265   4.021
12215SOL    HW138542  11.137   5.338   4.077
12215SOL    HW238543  11.148   5.286   3.935
12216SOL     OW38544   9.569   9.424  12.293
12216SOL    HW138545   9.506   9.363  12.255
12216SOL    HW238546   9.530   9.510  12.279
12217SOL     OW38547  13.920   2.206   4.461
12217SOL    HW138548  13.951   2.296   4.448
12217SOL    HW238549  13.833   2.216   4.499
12218SOL     OW38550   3.846   9.449   3.081
12218SOL    HW138551   3.932   9.477   3.050
12218SOL    HW238552   3.853   9.447   3.176
12219SOL     OW38553   7.297   7.113   9.867
12219SOL    HW138554   7.283   7.040   9.927
12219SOL    HW238555   7.386   7.144   9.886
12220SOL     OW38556   6.132   0.794   8.875
12220SOL    HW138557   6.066   0.856   8.906
12220SOL    HW238558   6.124   0.719   8.934
12221SOL     OW38559   9.507   9.439   8.810
12221SOL    HW138560   9.555   9.370   8.764
12221SOL    HW238561   9.416   9.427   8.783
12222SOL     OW38562   0.775   6.374   0.157
12222SOL    HW138563   0.774   6.466   0.182
12222SOL    HW238564   0.790   6.327   0.239
12223SOL     OW38565   4.605   7.065  11.874
12223SOL    HW138566   4.620   7.160  11.874
12223SOL    HW238567   4.556   7.048  11.954
12224SOL     OW38568  14.693  13.933   3.115
12224SOL    HW138569  14.646  13.996   3.171
12224SOL    HW238570  14.768  13.905   3.168
12225SOL     OW38571   3.512   9.118  12.914
12225SOL    HW138572   3.541   9.051  12.975
12225SOL    HW238573   3.560   9.100  12.833
12226SOL     OW38574  14.214   1.251   8.365
12226SOL    HW138575  14.157   1.202   8.425
12226SOL    HW238576  14.300   1.247   8.406
12227SOL     OW38577  12.066   1.147  10.884
12227SOL    HW138578  11.998   1.211  10.860
12227SOL    HW238579  12.145   1.179  10.841
12228SOL     OW38580  13.974   1.490  13.276
12228SOL    HW138581  13.886   1.518  13.301
12228SOL    HW238582  14.023   1.491  13.358
12229SOL     OW38583   9.892   9.659   2.275
12229SOL    HW138584   9.952   9.590   2.247
12229SOL    HW238585   9.887   9.649   2.370
12230SOL     OW38586   6.402  13.177   7.037
12230SOL    HW138587   6.433  13.265   7.017
12230SOL    HW238588   6.319  13.190   7.083
12231SOL     OW38589  12.627   7.201  13.669
12231SOL    HW138590  12.575   7.197  13.589
12231SOL    HW238591  12.563   7.222  13.737
12232SOL     OW38592   7.473   8.187   9.257
12232SOL    HW138593   7.404   8.210   9.319
12232SOL    HW238594   7.513   8.270   9.233
12233SOL     OW38595  14.737  10.170   1.453
12233SOL    HW138596  14.713  10.099   1.512
12233SOL    HW238597  14.656  10.189   1.405
12234SOL     OW38598   5.149   0.930   3.071
12234SOL    HW138599   5.133   1.019   3.039
12234SOL    HW238600   5.162   0.879   2.991
12235SOL     OW38601  14.819  11.377  12.380
12235SOL    HW138602  14.832  11.370  12.475
12235SOL    HW238603  14.763  11.303  12.358
12236SOL     OW38604   7.302  14.151  10.880
12236SOL    HW138605   7.323  14.092  10.808
12236SOL    HW238606   7.382  14.153  10.934
12237SOL     OW38607   9.242   0.887   1.642
12237SOL    HW138608   9.199   0.838   1.713
12237SOL    HW238609   9.267   0.819   1.579
12238SOL     OW38610   7.201   1.242  11.399
12238SOL    HW138611   7.138   1.199  11.341
12238SOL    HW238612   7.257   1.171  11.430
12239SOL     OW38613  12.005  14.390  10.515
12239SOL    HW138614  12.068  14.352  10.454
12239SOL    HW238615  11.990  14.478  10.482
12240SOL     OW38616   6.825   4.363   1.609
12240SOL    HW138617   6.808   4.273   1.636
12240SOL    HW238618   6.801   4.416   1.685
12241SOL     OW38619   5.239   9.914  11.273
12241SOL    HW138620   5.264   9.910  11.366
12241SOL    HW238621   5.309   9.965  11.232
12242SOL     OW38622   5.288   0.484   4.331
12242SOL    HW138623   5.367   0.538   4.333
12242SOL    HW238624   5.319   0.396   4.353
12243SOL     OW38625   2.545   0.785   6.689
12243SOL    HW138626   2.488   0.862   6.691
12243SOL    HW238627   2.520   0.735   6.767
12244SOL     OW38628   0.341  10.181   0.034
12244SOL    HW138629   0.345  10.098  14.862
12244SOL    HW238630   0.414  10.232  14.872
12245SOL     OW38631  11.170   0.040   1.640
12245SOL    HW138632  11.093   0.067   1.591
12245SOL    HW238633  11.237   0.025   1.573
12246SOL     OW38634  10.426  11.132   1.273
12246SOL    HW138635  10.482  11.079   1.216
12246SOL    HW238636  10.337  11.104   1.252
12247SOL     OW38637   3.292   6.765   9.758
12247SOL    HW138638   3.265   6.723   9.676
12247SOL    HW238639   3.212   6.801   9.795
12248SOL     OW38640   5.965   5.849  14.469
12248SOL    HW138641   6.054   5.850  14.435
12248SOL    HW238642   5.917   5.910  14.413
12249SOL     OW38643   6.409   4.794   6.410
12249SOL    HW138644   6.466   4.797   6.487
12249SOL    HW238645   6.466   4.816   6.337
12250SOL     OW38646   1.474   0.618   0.537
12250SOL    HW138647   1.383   0.611   0.567
12250SOL    HW238648   1.526   0.616   0.617
12251SOL     OW38649   5.365  11.139  12.297
12251SOL    HW138650   5.403  11.226  12.286
12251SOL    HW238651   5.338  11.113  12.209
12252SOL     OW38652   8.013  14.205  10.626
12252SOL    HW138653   8.039  14.113  10.630
12252SOL    HW238654   8.063  14.241  10.553
12253SOL     OW38655  12.247   6.857   2.913
12253SOL    HW138656  12.317   6.909   2.953
12253SOL    HW238657  12.292   6.784   2.871
12254SOL     OW38658  10.542   2.275   7.548
12254SOL    HW138659  10.620   2.326   7.526
12254SOL    HW238660  10.559   2.188   7.510
12255SOL     OW38661  13.285   5.590   5.796
12255SOL    HW138662  13.239   5.511   5.766
12255SOL    HW238663  13.327   5.624   5.717
12256SOL     OW38664   5.397   6.877   1.814
12256SOL    HW138665   5.310   6.838   1.799
12256SOL    HW238666   5.453   6.802   1.837
12257SOL     OW38667  11.074  10.916   2.762
12257SOL    HW138668  11.106  11.005   2.779
12257SOL    HW238669  11.080  10.872   2.847
12258SOL     OW38670   3.730  11.258  11.596
12258SOL    HW138671   3.691  11.253  11.683
12258SOL    HW238672   3.671  11.207  11.540
12259SOL     OW38673   2.777  12.851  13.776
12259SOL    HW138674   2.683  12.865  13.759
12259SOL    HW238675   2.821  12.893  13.702
12260SOL     OW38676   0.340   3.729   9.457
12260SOL    HW138677   0.320   3.651   9.405
12260SOL    HW238678   0.285   3.722   9.535
12261SOL     OW38679   7.072   8.756  12.927
12261SOL    HW138680   7.157   8.783  12.892
12261SOL    HW238681   7.019   8.836  12.926
12262SOL     OW38682  12.757  12.621   6.510
12262SOL    HW138683  12.715  12.651   6.591
12262SOL    HW238684  12.844  12.660   6.512
12263SOL     OW38685   7.372   6.520   1.105
12263SOL    HW138686   7.448   6.567   1.137
12263SOL    HW238687   7.301   6.584   1.109
12264SOL     OW38688   2.808   0.257  12.612
12264SOL    HW138689   2.866   0.212  12.674
12264SOL    HW238690   2.866   0.316  12.564
12265SOL     OW38691  14.444  10.913   8.204
12265SOL    HW138692  14.448  10.962   8.286
12265SOL    HW238693  14.499  10.836   8.220
12266SOL     OW38694   0.807   4.943   3.105
12266SOL    HW138695   0.852   4.990   3.175
12266SOL    HW238696   0.877   4.914   3.046
12267SOL     OW38697   2.715  10.266   9.404
12267SOL    HW138698   2.675  10.266   9.317
12267SOL    HW238699   2.693  10.180   9.441
12268SOL     OW38700  11.397  13.163   4.943
12268SOL    HW138701  11.316  13.210   4.928
12268SOL    HW238702  11.375  13.071   4.927
12269SOL     OW38703   7.829  13.266   3.324
12269SOL    HW138704   7.798  13.212   3.251
12269SOL    HW238705   7.850  13.350   3.284
12270SOL     OW38706   9.436   9.292   7.475
12270SOL    HW138707   9.383   9.272   7.552
12270SOL    HW238708   9.374   9.284   7.402
12271SOL     OW38709  14.108  11.013  14.757
12271SOL    HW138710  14.155  11.093  14.734
12271SOL    HW238711  14.177  10.953  14.788
12272SOL     OW38712   6.253  13.146  12.951
12272SOL    HW138713   6.316  13.116  13.017
12272SOL    HW238714   6.291  13.117  12.868
12273SOL     OW38715   5.778   5.927   6.760
12273SOL    HW138716   5.705   5.968   6.715
12273SOL    HW238717   5.854   5.944   6.703
12274SOL     OW38718   1.978   5.141  11.846
12274SOL    HW138719   2.073   5.131  11.857
12274SOL    HW238720   1.959   5.228  11.883
12275SOL     OW38721   7.017   3.952   1.745
12275SOL    HW138722   6.989   3.942   1.836
12275SOL    HW238723   7.024   4.046   1.733
12276SOL     OW38724   1.938  10.292   5.430
12276SOL    HW138725   1.919  10.373   5.478
12276SOL    HW238726   1.855  10.269   5.389
12277SOL     OW38727   8.423   1.625   3.990
12277SOL    HW138728   8.449   1.570   3.916
12277SOL    HW238729   8.455   1.579   4.067
12278SOL     OW38730   6.525   6.616  11.841
12278SOL    HW138731   6.544   6.688  11.901
12278SOL    HW238732   6.459   6.652  11.781
12279SOL     OW38733   7.631  10.082   5.688
12279SOL    HW138734   7.641   9.988   5.704
12279SOL    HW238735   7.710  10.121   5.727
12280SOL     OW38736  14.113   6.623   0.774
12280SOL    HW138737  14.162   6.648   0.853
12280SOL    HW238738  14.153   6.673   0.704
12281SOL     OW38739   6.539   7.880   1.908
12281SOL    HW138740   6.600   7.816   1.870
12281SOL    HW238741   6.523   7.847   1.997
12282SOL     OW38742   0.716   5.393  14.135
12282SOL    HW138743   0.663   5.461  14.093
12282SOL    HW238744   0.652   5.341  14.185
12283SOL     OW38745   0.430   4.298  14.537
12283SOL    HW138746   0.409   4.374  14.483
12283SOL    HW238747   0.388   4.225  14.492
12284SOL     OW38748   1.501   2.277  12.449
12284SOL    HW138749   1.412   2.308  12.435
12284SOL    HW238750   1.546   2.294  12.366
12285SOL     OW38751   8.281  10.909   4.976
12285SOL    HW138752   8.287  10.816   4.954
12285SOL    HW238753   8.364  10.946   4.946
12286SOL     OW38754  12.675   8.002   0.778
12286SOL    HW138755  12.603   8.060   0.802
12286SOL    HW238756  12.738   8.012   0.849
12287SOL     OW38757   8.733   3.889   5.546
12287SOL    HW138758   8.822   3.914   5.571
12287SOL    HW238759   8.745   3.806   5.498
12288SOL     OW38760   5.399  11.820  14.673
12288SOL    HW138761   5.459  11.749  14.650
12288SOL    HW238762   5.456  11.894  14.694
12289SOL     OW38763   2.768  10.457   4.489
12289SOL    HW138764   2.739  10.503   4.568
12289SOL    HW238765   2.848  10.412   4.516
12290SOL     OW38766   8.451   1.159  12.188
12290SOL    HW138767   8.419   1.101  12.257
12290SOL    HW238768   8.371   1.192  12.145
12291SOL     OW38769   2.934   3.291  14.597
12291SOL    HW138770   2.870   3.302  14.526
12291SOL    HW238771   3.007   3.348  14.572
12292SOL     OW38772   1.517   9.442   9.595
12292SOL    HW138773   1.456   9.390   9.647
12292SOL    HW238774   1.594   9.451   9.651
12293SOL     OW38775  12.560   6.365   7.826
12293SOL    HW138776  12.512   6.447   7.835
12293SOL    HW238777  12.507   6.313   7.765
12294SOL     OW38778   7.879  13.930   3.854
12294SOL    HW138779   7.905  13.963   3.940
12294SOL    HW238780   7.816  13.861   3.873
12295SOL     OW38781   5.241  10.758  11.337
12295SOL    HW138782   5.314  10.699  11.319
12295SOL    HW238783   5.260  10.835  11.284
12296SOL     OW38784   6.517  10.430   2.329
12296SOL    HW138785   6.446  10.441   2.265
12296SOL    HW238786   6.571  10.359   2.293
12297SOL     OW38787   6.941   8.220   3.955
12297SOL    HW138788   6.875   8.152   3.969
12297SOL    HW238789   7.005   8.206   4.025
12298SOL     OW38790   1.669  11.678   4.753
12298SOL    HW138791   1.659  11.708   4.844
12298SOL    HW238792   1.613  11.737   4.703
12299SOL     OW38793   3.658  11.353   9.451
12299SOL    HW138794   3.635  11.433   9.499
12299SOL    HW238795   3.746  11.372   9.416
12300SOL     OW38796   0.210  13.316   6.568
12300SOL    HW138797   0.272  13.388   6.575
12300SOL    HW238798   0.159  13.335   6.489
12301SOL     OW38799  14.082   9.904   0.464
12301SOL    HW138800  14.144   9.958   0.513
12301SOL    HW238801  14.053   9.960   0.392
12302SOL     OW38802  10.927   8.597   0.741
12302SOL    HW138803  10.847   8.619   0.790
12302SOL    HW238804  10.933   8.664   0.673
12303SOL     OW38805   0.759  12.690   6.012
12303SOL    HW138806   0.710  12.771   6.027
12303SOL    HW238807   0.842  12.704   6.058
12304SOL     OW38808   5.605   5.814  10.551
12304SOL    HW138809   5.543   5.861  10.607
12304SOL    HW238810   5.580   5.722  10.559
12305SOL     OW38811   4.194   4.886   1.408
12305SOL    HW138812   4.183   4.812   1.349
12305SOL    HW238813   4.214   4.847   1.493
12306SOL     OW38814   8.427   3.939   9.704
12306SOL    HW138815   8.440   3.924   9.610
12306SOL    HW238816   8.390   4.027   9.709
12307SOL     OW38817   0.925  14.011   0.223
12307SOL    HW138818   0.842  14.032   0.180
12307SOL    HW238819   0.907  13.931   0.272
12308SOL     OW38820   5.019  12.421   4.689
12308SOL    HW138821   5.105  12.426   4.648
12308SOL    HW238822   5.027  12.475   4.769
12309SOL     OW38823   8.650  11.580   2.399
12309SOL    HW138824   8.581  11.581   2.333
12309SOL    HW238825   8.640  11.495   2.443
12310SOL     OW38826  14.418   6.550   4.178
12310SOL    HW138827  14.446   6.475   4.230
12310SOL    HW238828  14.381   6.611   4.242
12311SOL     OW38829  11.013   2.497   5.328
12311SOL    HW138830  10.961   2.491   5.248
12311SOL    HW238831  11.093   2.448   5.308
12312SOL     OW38832   6.414   5.116   7.271
12312SOL    HW138833   6.424   5.041   7.328
12312SOL    HW238834   6.381   5.080   7.189
12313SOL     OW38835  12.478   1.882   2.390
12313SOL    HW138836  12.548   1.869   2.326
12313SOL    HW238837  12.503   1.826   2.464
12314SOL     OW38838  13.436  14.721  14.617
12314SOL    HW138839  13.448  14.800  14.669
12314SOL    HW238840  13.401  14.657  14.680
12315SOL     OW38841   2.993   9.735  11.322
12315SOL    HW138842   3.023   9.693  11.403
12315SOL    HW238843   2.955   9.663  11.271
12316SOL     OW38844  11.825   9.619  12.242
12316SOL    HW138845  11.782   9.688  12.192
12316SOL    HW238846  11.792   9.537  12.204
12317SOL     OW38847   5.807   4.986   3.962
12317SOL    HW138848   5.777   5.073   3.989
12317SOL    HW238849   5.893   4.977   4.003
12318SOL     OW38850   4.157  12.304  12.261
12318SOL    HW138851   4.085  12.286  12.323
12318SOL    HW238852   4.159  12.400  12.254
12319SOL     OW38853   4.986   3.250   3.199
12319SOL    HW138854   5.005   3.173   3.145
12319SOL    HW238855   4.920   3.298   3.150
12320SOL     OW38856  12.580   1.924   9.062
12320SOL    HW138857  12.510   1.970   9.015
12320SOL    HW238858  12.658   1.938   9.008
12321SOL     OW38859  14.186  12.824   4.330
12321SOL    HW138860  14.177  12.875   4.411
12321SOL    HW238861  14.123  12.864   4.270
12322SOL     OW38862   8.641   1.990   7.238
12322SOL    HW138863   8.707   2.057   7.218
12322SOL    HW238864   8.675   1.911   7.196
12323SOL     OW38865   3.065   5.219   6.566
12323SOL    HW138866   3.056   5.146   6.627
12323SOL    HW238867   3.056   5.179   6.479
12324SOL     OW38868   3.718   9.932  10.515
12324SOL    HW138869   3.811   9.953  10.527
12324SOL    HW238870   3.708   9.922  10.420
12325SOL     OW38871  13.656   2.766   3.825
12325SOL    HW138872  13.680   2.769   3.733
12325SOL    HW238873  13.638   2.674   3.843
12326SOL     OW38874  13.157   4.881   6.439
12326SOL    HW138875  13.099   4.957   6.450
12326SOL    HW238876  13.120   4.833   6.365
12327SOL     OW38877   3.837   7.019  11.708
12327SOL    HW138878   3.867   6.994  11.621
12327SOL    HW238879   3.844   7.114  11.710
12328SOL     OW38880  10.046   8.156   6.250
12328SOL    HW138881   9.973   8.125   6.197
12328SOL    HW238882  10.005   8.212   6.316
12329SOL     OW38883   8.513   2.278   8.760
12329SOL    HW138884   8.545   2.218   8.693
12329SOL    HW238885   8.425   2.301   8.732
12330SOL     OW38886  12.029   1.477   0.706
12330SOL    HW138887  12.122   1.481   0.730
12330SOL    HW238888  12.008   1.384   0.706
12331SOL     OW38889  13.366  12.927   1.542
12331SOL    HW138890  13.272  12.937   1.524
12331SOL    HW238891  13.384  12.992   1.610
12332SOL     OW38892   6.850  14.857   5.696
12332SOL    HW138893   6.914  14.853   5.625
12332SOL    HW238894   6.853   0.072   5.725
12333SOL     OW38895   8.047  10.814  14.858
12333SOL    HW138896   7.954  10.812  14.835
12333SOL    HW238897   8.064  10.905   0.004
12334SOL     OW38898   4.829   0.538   2.509
12334SOL    HW138899   4.873   0.456   2.531
12334SOL    HW238900   4.820   0.583   2.593
12335SOL     OW38901   8.256   7.857   7.764
12335SOL    HW138902   8.273   7.861   7.670
12335SOL    HW238903   8.258   7.948   7.793
12336SOL     OW38904   7.871   3.544  13.358
12336SOL    HW138905   7.909   3.461  13.387
12336SOL    HW238906   7.829   3.524  13.275
12337SOL     OW38907   9.804  12.462   6.367
12337SOL    HW138908   9.801  12.416   6.451
12337SOL    HW238909   9.762  12.402   6.305
12338SOL     OW38910   2.652   2.135  12.331
12338SOL    HW138911   2.678   2.060  12.383
12338SOL    HW238912   2.675   2.111  12.241
12339SOL     OW38913  12.070   7.442   6.285
12339SOL    HW138914  12.124   7.490   6.347
12339SOL    HW238915  12.118   7.446   6.203
12340SOL     OW38916   1.160  14.306  14.291
12340SOL    HW138917   1.093  14.238  14.303
12340SOL    HW238918   1.129  14.380  14.343
12341SOL     OW38919   1.289   0.617   4.839
12341SOL    HW138920   1.280   0.523   4.858
12341SOL    HW238921   1.259   0.626   4.749
12342SOL     OW38922   1.812   0.819  13.195
12342SOL    HW138923   1.830   0.902  13.151
12342SOL    HW238924   1.881   0.810  13.260
12343SOL     OW38925   2.616  13.655   9.942
12343SOL    HW138926   2.703  13.617   9.932
12343SOL    HW238927   2.556  13.581   9.931
12344SOL     OW38928   2.113   7.699   6.404
12344SOL    HW138929   2.065   7.616   6.401
12344SOL    HW238930   2.205   7.674   6.404
12345SOL     OW38931  13.416   5.437   7.270
12345SOL    HW138932  13.449   5.526   7.279
12345SOL    HW238933  13.451   5.390   7.346
12346SOL     OW38934   9.272  11.502  13.785
12346SOL    HW138935   9.266  11.485  13.879
12346SOL    HW238936   9.238  11.590  13.774
12347SOL     OW38937   2.192   5.466  14.388
12347SOL    HW138938   2.161   5.375  14.389
12347SOL    HW238939   2.119   5.515  14.349
12348SOL     OW38940   4.805   2.334   4.879
12348SOL    HW138941   4.848   2.349   4.964
12348SOL    HW238942   4.844   2.398   4.820
12349SOL     OW38943   6.932   9.756   4.148
12349SOL    HW138944   7.000   9.823   4.143
12349SOL    HW238945   6.976   9.680   4.187
12350SOL     OW38946   8.476   3.790   7.524
12350SOL    HW138947   8.529   3.867   7.547
12350SOL    HW238948   8.518   3.718   7.570
12351SOL     OW38949   3.858   8.528  14.448
12351SOL    HW138950   3.906   8.501  14.526
12351SOL    HW238951   3.794   8.458  14.433
12352SOL     OW38952   2.765  11.882  12.299
12352SOL    HW138953   2.770  11.827  12.377
12352SOL    HW238954   2.747  11.820  12.228
12353SOL     OW38955  12.280  10.571   3.066
12353SOL    HW138956  12.225  10.561   3.143
12353SOL    HW238957  12.322  10.485   3.055
12354SOL     OW38958   9.268   0.756   6.890
12354SOL    HW138959   9.278   0.851   6.894
12354SOL    HW238960   9.175   0.742   6.875
12355SOL     OW38961  10.549   3.042  12.709
12355SOL    HW138962  10.569   3.044  12.803
12355SOL    HW238963  10.510   3.127  12.691
12356SOL     OW38964  10.323   0.803  10.823
12356SOL    HW138965  10.228   0.812  10.829
12356SOL    HW238966  10.357   0.891  10.838
12357SOL     OW38967   6.523   7.453  14.708
12357SOL    HW138968   6.503   7.546  14.719
12357SOL    HW238969   6.587   7.451  14.637
12358SOL     OW38970   1.302   0.836   2.871
12358SOL    HW138971   1.329   0.924   2.899
12358SOL    HW238972   1.279   0.792   2.953
12359SOL     OW38973   0.052   3.724  10.681
12359SOL    HW138974   0.113   3.695  10.613
12359SOL    HW238975   0.057   3.819  10.679
12360SOL     OW38976   0.671   4.859   5.298
12360SOL    HW138977   0.602   4.852   5.364
12360SOL    HW238978   0.750   4.878   5.349
12361SOL     OW38979   7.354   2.567  12.355
12361SOL    HW138980   7.266   2.582  12.320
12361SOL    HW238981   7.339   2.516  12.435
12362SOL     OW38982  11.918   0.174  13.924
12362SOL    HW138983  11.964   0.161  14.008
12362SOL    HW238984  11.921   0.269  13.910
12363SOL     OW38985   9.125  10.731   6.798
12363SOL    HW138986   9.040  10.775   6.800
12363SOL    HW238987   9.156  10.736   6.889
12364SOL     OW38988   4.145   0.221   8.636
12364SOL    HW138989   4.153   0.316   8.647
12364SOL    HW238990   4.234   0.191   8.620
12365SOL     OW38991   3.033   7.803   0.756
12365SOL    HW138992   3.120   7.765   0.744
12365SOL    HW238993   2.972   7.732   0.735
12366SOL     OW38994   1.419   8.415   5.230
12366SOL    HW138995   1.463   8.338   5.267
12366SOL    HW238996   1.354   8.379   5.170
12367SOL     OW38997  13.191   4.522  10.072
12367SOL    HW138998  13.135   4.566  10.007
12367SOL    HW238999  13.230   4.594  10.122
12368SOL     OW39000   7.870  14.593   9.544
12368SOL    HW139001   7.857  14.651   9.619
12368SOL    HW239002   7.790  14.541   9.540
12369SOL     OW39003  13.004   7.834  13.702
12369SOL    HW139004  12.952   7.757  13.678
12369SOL    HW239005  13.070   7.800  13.762
12370SOL     OW39006  14.378  14.824   3.489
12370SOL    HW139007  14.359  14.738   3.451
12370SOL    HW239008  14.327   0.010   3.435
12371SOL     OW39009  12.310   4.801   1.069
12371SOL    HW139010  12.246   4.795   0.998
12371SOL    HW239011  12.388   4.756   1.034
12372SOL     OW39012   2.439   7.525   1.242
12372SOL    HW139013   2.360   7.517   1.189
12372SOL    HW239014   2.450   7.619   1.256
12373SOL     OW39015   8.609  13.652   8.454
12373SOL    HW139016   8.694  13.642   8.412
12373SOL    HW239017   8.603  13.745   8.474
12374SOL     OW39018   1.443   8.571   7.394
12374SOL    HW139019   1.433   8.661   7.426
12374SOL    HW239020   1.368   8.559   7.336
12375SOL     OW39021   6.139   9.551   2.040
12375SOL    HW139022   6.154   9.586   1.952
12375SOL    HW239023   6.182   9.465   2.039
12376SOL     OW39024   1.398   1.819   7.038
12376SOL    HW139025   1.431   1.773   6.960
12376SOL    HW239026   1.303   1.813   7.030
12377SOL     OW39027   3.600   5.255   1.251
12377SOL    HW139028   3.635   5.267   1.162
12377SOL    HW239029   3.565   5.166   1.251
12378SOL     OW39030   3.121  10.793   3.281
12378SOL    HW139031   3.079  10.862   3.230
12378SOL    HW239032   3.076  10.795   3.365
12379SOL     OW39033   4.096   8.711  14.479
12379SOL    HW139034   4.036   8.662  14.535
12379SOL    HW239035   4.165   8.648  14.457
12380SOL     OW39036   5.587   7.401   7.678
12380SOL    HW139037   5.501   7.434   7.707
12380SOL    HW239038   5.576   7.385   7.585
12381SOL     OW39039   1.417   4.255   9.745
12381SOL    HW139040   1.513   4.246   9.751
12381SOL    HW239041   1.384   4.203   9.819
12382SOL     OW39042   0.516   5.672   9.633
12382SOL    HW139043   0.485   5.659   9.723
12382SOL    HW239044   0.547   5.762   9.632
12383SOL     OW39045   6.872  14.845   8.070
12383SOL    HW139046   6.804   0.027   8.035
12383SOL    HW239047   6.881  14.872   8.162
12384SOL     OW39048   8.020   2.605  13.652
12384SOL    HW139049   7.953   2.670  13.629
12384SOL    HW239050   7.996   2.577  13.741
12385SOL     OW39051   5.721   3.772   1.244
12385SOL    HW139052   5.681   3.803   1.163
12385SOL    HW239053   5.805   3.735   1.216
12386SOL     OW39054  13.280  11.471   5.278
12386SOL    HW139055  13.324  11.418   5.211
12386SOL    HW239056  13.187  11.449   5.268
12387SOL     OW39057  10.947  12.036   8.248
12387SOL    HW139058  10.971  12.058   8.158
12387SOL    HW239059  10.868  12.088   8.265
12388SOL     OW39060   6.284   4.071   5.464
12388SOL    HW139061   6.210   4.021   5.500
12388SOL    HW239062   6.260   4.086   5.373
12389SOL     OW39063   9.006  12.995   1.936
12389SOL    HW139064   9.090  12.955   1.914
12389SOL    HW239065   8.975  12.944   2.011
12390SOL     OW39066   2.554   9.273  11.525
12390SOL    HW139067   2.545   9.317  11.441
12390SOL    HW239068   2.489   9.202  11.522
12391SOL     OW39069  14.046  14.684   3.526
12391SOL    HW139070  13.973  14.670   3.466
12391SOL    HW239071  14.124  14.663   3.474
12392SOL     OW39072  13.353   7.756  13.584
12392SOL    HW139073  13.313   7.836  13.550
12392SOL    HW239074  13.442   7.757  13.550
12393SOL     OW39075  10.969   9.989   3.786
12393SOL    HW139076  10.908  10.026   3.849
12393SOL    HW239077  11.050   9.976   3.836
12394SOL     OW39078   5.251   8.228  10.615
12394SOL    HW139079   5.171   8.203  10.570
12394SOL    HW239080   5.310   8.153  10.602
12395SOL     OW39081   2.917   1.769  11.958
12395SOL    HW139082   2.904   1.864  11.966
12395SOL    HW239083   2.904   1.751  11.865
12396SOL     OW39084   7.886   1.695   6.796
12396SOL    HW139085   7.875   1.771   6.739
12396SOL    HW239086   7.815   1.702   6.860
12397SOL     OW39087  11.977   9.344   7.610
12397SOL    HW139088  11.929   9.403   7.669
12397SOL    HW239089  12.041   9.301   7.667
12398SOL     OW39090   5.783  14.678  13.523
12398SOL    HW139091   5.800  14.760  13.476
12398SOL    HW239092   5.721  14.702  13.592
12399SOL     OW39093   1.244   4.683   2.913
12399SOL    HW139094   1.291   4.741   2.853
12399SOL    HW239095   1.253   4.596   2.873
12400SOL     OW39096   7.842   0.164   9.560
12400SOL    HW139097   7.747   0.156   9.549
12400SOL    HW239098   7.854   0.177   9.654
12401SOL     OW39099   8.860   8.841   4.554
12401SOL    HW139100   8.888   8.765   4.502
12401SOL    HW239101   8.888   8.917   4.503
12402SOL     OW39102   0.861   9.196   4.884
12402SOL    HW139103   0.893   9.191   4.794
12402SOL    HW239104   0.939   9.209   4.937
12403SOL     OW39105   6.532   6.685  12.270
12403SOL    HW139106   6.585   6.737  12.210
12403SOL    HW239107   6.595   6.651  12.334
12404SOL     OW39108   2.366   0.535   7.977
12404SOL    HW139109   2.360   0.511   8.069
12404SOL    HW239110   2.455   0.512   7.951
12405SOL     OW39111   5.517   0.856   9.081
12405SOL    HW139112   5.509   0.850   9.176
12405SOL    HW239113   5.469   0.936   9.058
12406SOL     OW39114   7.198   5.864   6.348
12406SOL    HW139115   7.228   5.885   6.436
12406SOL    HW239116   7.110   5.829   6.360
12407SOL     OW39117  14.049  13.194   9.804
12407SOL    HW139118  13.988  13.250   9.852
12407SOL    HW239119  14.082  13.133   9.871
12408SOL     OW39120  10.076  13.289  13.008
12408SOL    HW139121  10.164  13.299  12.971
12408SOL    HW239122  10.026  13.245  12.940
12409SOL     OW39123   0.237   3.430   9.900
12409SOL    HW139124   0.325   3.455   9.929
12409SOL    HW239125   0.252   3.367   9.829
12410SOL     OW39126  12.795   3.532   2.820
12410SOL    HW139127  12.867   3.523   2.882
12410SOL    HW239128  12.739   3.456   2.837
12411SOL     OW39129   2.387   3.599   2.206
12411SOL    HW139130   2.362   3.658   2.277
12411SOL    HW239131   2.471   3.633   2.176
12412SOL     OW39132   5.630   3.232  14.172
12412SOL    HW139133   5.643   3.327  14.177
12412SOL    HW239134   5.715   3.197  14.147
12413SOL     OW39135  11.969  12.536   6.170
12413SOL    HW139136  11.891  12.587   6.188
12413SOL    HW239137  11.948  12.447   6.201
12414SOL     OW39138   1.990   0.001  10.784
12414SOL    HW139139   1.928   0.025  10.853
12414SOL    HW239140   1.946  14.806  10.736
12415SOL     OW39141   1.294  11.572  10.272
12415SOL    HW139142   1.255  11.636  10.213
12415SOL    HW239143   1.230  11.564  10.343
12416SOL     OW39144  10.787   1.272  11.081
12416SOL    HW139145  10.724   1.200  11.092
12416SOL    HW239146  10.867   1.228  11.052
12417SOL     OW39147   7.038  13.416  12.771
12417SOL    HW139148   6.995  13.496  12.802
12417SOL    HW239149   6.991  13.394  12.690
12418SOL     OW39150   2.612  13.341   6.130
12418SOL    HW139151   2.539  13.394   6.161
12418SOL    HW239152   2.616  13.267   6.191
12419SOL     OW39153   3.696   1.172   6.849
12419SOL    HW139154   3.604   1.196   6.854
12419SOL    HW239155   3.743   1.254   6.859
12420SOL     OW39156  13.741   7.449   0.853
12420SOL    HW139157  13.717   7.466   0.944
12420SOL    HW239158  13.801   7.375   0.857
12421SOL     OW39159   4.868   0.040   5.389
12421SOL    HW139160   4.964   0.039   5.381
12421SOL    HW239161   4.842   0.126   5.358
12422SOL     OW39162   2.982  14.795  11.491
12422SOL    HW139163   3.039  14.762  11.560
12422SOL    HW239164   3.035  14.859  11.444
12423SOL     OW39165  11.573  10.091  13.547
12423SOL    HW139166  11.621  10.086  13.464
12423SOL    HW239167  11.565  10.185  13.564
12424SOL     OW39168  13.507  12.185   5.697
12424SOL    HW139169  13.467  12.129   5.763
12424SOL    HW239170  13.454  12.172   5.619
12425SOL     OW39171   2.515   6.663  11.946
12425SOL    HW139172   2.431   6.640  11.985
12425SOL    HW239173   2.580   6.621  12.001
12426SOL     OW39174  11.414   8.194   8.118
12426SOL    HW139175  11.381   8.222   8.203
12426SOL    HW239176  11.452   8.107   8.134
12427SOL     OW39177   1.786   6.924  13.838
12427SOL    HW139178   1.829   6.885  13.914
12427SOL    HW239179   1.716   6.978  13.876
12428SOL     OW39180   9.877   8.371   6.422
12428SOL    HW139181   9.830   8.432   6.366
12428SOL    HW239182   9.943   8.424   6.466
12429SOL     OW39183   1.847   1.982   6.377
12429SOL    HW139184   1.762   2.005   6.415
12429SOL    HW239185   1.907   1.977   6.451
12430SOL     OW39186   5.547   0.879   7.433
12430SOL    HW139187   5.529   0.817   7.363
12430SOL    HW239188   5.463   0.921   7.451
12431SOL     OW39189   4.467   6.305   6.611
12431SOL    HW139190   4.439   6.220   6.646
12431SOL    HW239191   4.494   6.355   6.687
12432SOL     OW39192   4.735   6.899   3.799
12432SOL    HW139193   4.775   6.952   3.868
12432SOL    HW239194   4.753   6.947   3.718
12433SOL     OW39195   4.123   1.789   7.983
12433SOL    HW139196   4.032   1.761   7.979
12433SOL    HW239197   4.164   1.728   8.045
12434SOL     OW39198   4.016   5.328   0.162
12434SOL    HW139199   4.035   5.422   0.169
12434SOL    HW239200   4.040   5.292   0.247
12435SOL     OW39201   1.349   5.366   5.181
12435SOL    HW139202   1.429   5.319   5.205
12435SOL    HW239203   1.317   5.319   5.104
12436SOL     OW39204   2.260   4.114   4.773
12436SOL    HW139205   2.304   4.030   4.785
12436SOL    HW239206   2.169   4.098   4.796
12437SOL     OW39207  14.003  11.233   7.834
12437SOL    HW139208  14.017  11.151   7.881
12437SOL    HW239209  14.013  11.209   7.741
12438SOL     OW39210   9.987   9.803   5.868
12438SOL    HW139211   9.979   9.754   5.786
12438SOL    HW239212   9.919   9.767   5.924
12439SOL     OW39213   7.036  10.947   3.231
12439SOL    HW139214   7.127  10.960   3.257
12439SOL    HW239215   7.023  10.852   3.236
12440SOL     OW39216   6.330   5.106   7.001
12440SOL    HW139217   6.283   5.135   6.924
12440SOL    HW239218   6.268   5.051   7.049
12441SOL     OW39219   0.942   6.573  11.952
12441SOL    HW139220   0.945   6.666  11.931
12441SOL    HW239221   1.020   6.537  11.910
12442SOL     OW39222  10.457   9.588  14.709
12442SOL    HW139223  10.508   9.647  14.764
12442SOL    HW239224  10.522   9.536  14.662
12443SOL     OW39225   5.986   3.710   9.531
12443SOL    HW139226   6.011   3.725   9.622
12443SOL    HW239227   5.967   3.797   9.497
12444SOL     OW39228  11.186   5.059   5.199
12444SOL    HW139229  11.215   4.968   5.208
12444SOL    HW239230  11.203   5.081   5.107
12445SOL     OW39231   3.245  14.299   0.115
12445SOL    HW139232   3.171  14.258   0.071
12445SOL    HW239233   3.290  14.348   0.045
12446SOL     OW39234   3.143   4.263   0.687
12446SOL    HW139235   3.179   4.183   0.649
12446SOL    HW239236   3.125   4.319   0.612
12447SOL     OW39237  12.271   6.679   3.883
12447SOL    HW139238  12.349   6.674   3.828
12447SOL    HW239239  12.216   6.607   3.853
12448SOL     OW39240   0.836  14.267   5.138
12448SOL    HW139241   0.900  14.318   5.187
12448SOL    HW239242   0.798  14.329   5.076
12449SOL     OW39243   2.250   9.716  14.483
12449SOL    HW139244   2.319   9.698  14.420
12449SOL    HW239245   2.248   9.638  14.539
12450SOL     OW39246   9.816   1.477   2.583
12450SOL    HW139247   9.756   1.406   2.607
12450SOL    HW239248   9.902   1.446   2.610
12451SOL     OW39249   1.844   9.313  12.785
12451SOL    HW139250   1.885   9.366  12.854
12451SOL    HW239251   1.775   9.265  12.830
12452SOL     OW39252   8.854   8.847   5.868
12452SOL    HW139253   8.898   8.931   5.876
12452SOL    HW239254   8.905   8.799   5.802
12453SOL     OW39255  11.643   2.214   9.582
12453SOL    HW139256  11.662   2.308   9.587
12453SOL    HW239257  11.711   2.179   9.525
12454SOL     OW39258   0.806   7.922   3.555
12454SOL    HW139259   0.763   7.855   3.607
12454SOL    HW239260   0.868   7.875   3.500
12455SOL     OW39261   8.088   8.156  13.325
12455SOL    HW139262   8.072   8.065  13.299
12455SOL    HW239263   8.054   8.161  13.415
12456SOL     OW39264  11.356  11.435  13.550
12456SOL    HW139265  11.366  11.462  13.459
12456SOL    HW239266  11.298  11.500  13.588
12457SOL     OW39267   8.446   0.896   5.777
12457SOL    HW139268   8.474   0.931   5.861
12457SOL    HW239269   8.498   0.817   5.764
12458SOL     OW39270  13.826  12.303   8.559
12458SOL    HW139271  13.908  12.262   8.533
12458SOL    HW239272  13.769  12.292   8.483
12459SOL     OW39273  13.630   7.179  14.588
12459SOL    HW139274  13.719   7.160  14.619
12459SOL    HW239275  13.643   7.226  14.506
12460SOL     OW39276   0.019  13.228   7.264
12460SOL    HW139277  14.871  13.175   7.340
12460SOL    HW239278   0.104  13.194   7.235
12461SOL     OW39279  14.559   8.691  11.036
12461SOL    HW139280  14.547   8.609  10.988
12461SOL    HW239281  14.502   8.754  10.992
12462SOL     OW39282  10.444  10.475  13.374
12462SOL    HW139283  10.443  10.545  13.310
12462SOL    HW239284  10.374  10.499  13.436
12463SOL     OW39285   2.193   2.130  10.862
12463SOL    HW139286   2.170   2.125  10.955
12463SOL    HW239287   2.143   2.204  10.829
12464SOL     OW39288   2.075  11.018   2.990
12464SOL    HW139289   2.017  10.942   2.997
12464SOL    HW239290   2.060  11.052   2.902
12465SOL     OW39291   7.605   2.207   3.710
12465SOL    HW139292   7.644   2.183   3.794
12465SOL    HW239293   7.632   2.297   3.696
12466SOL     OW39294  10.163  11.753  14.800
12466SOL    HW139295  10.164  11.659  14.814
12466SOL    HW239296  10.074  11.772  14.771
12467SOL     OW39297   9.743  11.995   1.216
12467SOL    HW139298   9.815  12.052   1.241
12467SOL    HW239299   9.676  12.009   1.283
12468SOL     OW39300   6.784   8.563   0.359
12468SOL    HW139301   6.874   8.532   0.349
12468SOL    HW239302   6.794   8.647   0.406
12469SOL     OW39303   6.485   8.537   2.155
12469SOL    HW139304   6.570   8.525   2.197
12469SOL    HW239305   6.422   8.507   2.220
12470SOL     OW39306   5.249  12.970   4.992
12470SOL    HW139307   5.312  12.906   4.959
12470SOL    HW239308   5.165  12.943   4.953
12471SOL     OW39309   3.710   9.815   3.050
12471SOL    HW139310   3.645   9.778   3.110
12471SOL    HW239311   3.738   9.897   3.093
12472SOL     OW39312  14.043   6.533   9.802
12472SOL    HW139313  14.024   6.500   9.714
12472SOL    HW239314  14.044   6.629   9.792
12473SOL     OW39315   9.207   1.938   5.136
12473SOL    HW139316   9.215   1.847   5.163
12473SOL    HW239317   9.288   1.958   5.090
12474SOL     OW39318   1.702   6.402   4.675
12474SOL    HW139319   1.683   6.496   4.678
12474SOL    HW239320   1.729   6.381   4.765
12475SOL     OW39321   7.115  11.993   1.910
12475SOL    HW139322   7.039  11.975   1.967
12475SOL    HW239323   7.089  11.959   1.824
12476SOL     OW39324   3.058  14.234   2.234
12476SOL    HW139325   3.120  14.163   2.248
12476SOL    HW239326   3.061  14.250   2.140
12477SOL     OW39327   2.463   9.935   1.329
12477SOL    HW139328   2.459   9.847   1.292
12477SOL    HW239329   2.504   9.923   1.415
12478SOL     OW39330   2.742   4.624   9.516
12478SOL    HW139331   2.688   4.695   9.549
12478SOL    HW239332   2.824   4.666   9.490
12479SOL     OW39333   5.872   8.619  13.272
12479SOL    HW139334   5.793   8.623  13.327
12479SOL    HW239335   5.925   8.693  13.300
12480SOL     OW39336   8.228  13.860   9.710
12480SOL    HW139337   8.168  13.904   9.649
12480SOL    HW239338   8.279  13.932   9.748
12481SOL     OW39339  11.500   6.288   2.358
12481SOL    HW139340  11.430   6.257   2.300
12481SOL    HW239341  11.576   6.237   2.333
12482SOL     OW39342  10.308   0.112   5.109
12482SOL    HW139343  10.296   0.149   5.022
12482SOL    HW239344  10.382   0.161   5.146
12483SOL     OW39345   6.365   5.735   2.594
12483SOL    HW139346   6.417   5.704   2.520
12483SOL    HW239347   6.324   5.656   2.628
12484SOL     OW39348   2.649  11.068   7.820
12484SOL    HW139349   2.653  11.060   7.916
12484SOL    HW239350   2.741  11.067   7.792
12485SOL     OW39351   8.164   4.494   4.825
12485SOL    HW139352   8.090   4.451   4.868
12485SOL    HW239353   8.227   4.425   4.811
12486SOL     OW39354  10.544  12.507   4.129
12486SOL    HW139355  10.603  12.465   4.067
12486SOL    HW239356  10.601  12.550   4.192
12487SOL     OW39357   2.812   1.847   4.669
12487SOL    HW139358   2.832   1.846   4.576
12487SOL    HW239359   2.726   1.887   4.675
12488SOL     OW39360   9.563   4.866   4.773
12488SOL    HW139361   9.543   4.776   4.797
12488SOL    HW239362   9.573   4.864   4.678
12489SOL     OW39363   8.713   5.842  13.599
12489SOL    HW139364   8.789   5.818  13.545
12489SOL    HW239365   8.699   5.935  13.581
12490SOL     OW39366   5.182   2.684  11.254
12490SOL    HW139367   5.129   2.730  11.319
12490SOL    HW239368   5.272   2.709  11.274
12491SOL     OW39369  10.351   9.902   0.237
12491SOL    HW139370  10.302   9.980   0.263
12491SOL    HW239371  10.322   9.884   0.148
12492SOL     OW39372  12.527   2.696  10.508
12492SOL    HW139373  12.568   2.731  10.587
12492SOL    HW239374  12.479   2.619  10.538
12493SOL     OW39375   6.746   4.766  11.340
12493SOL    HW139376   6.695   4.770  11.421
12493SOL    HW239377   6.756   4.857  11.312
12494SOL     OW39378  12.011   3.406   1.542
12494SOL    HW139379  12.049   3.444   1.622
12494SOL    HW239380  12.084   3.399   1.481
12495SOL     OW39381   3.465   0.721   7.118
12495SOL    HW139382   3.549   0.734   7.162
12495SOL    HW239383   3.480   0.651   7.056
12496SOL     OW39384  12.844   0.964  13.211
12496SOL    HW139385  12.817   0.873  13.225
12496SOL    HW239386  12.764   1.008  13.183
12497SOL     OW39387   8.251   8.057  14.066
12497SOL    HW139388   8.227   7.983  14.010
12497SOL    HW239389   8.210   8.133  14.025
12498SOL     OW39390  14.666   1.290  12.681
12498SOL    HW139391  14.730   1.304  12.752
12498SOL    HW239392  14.672   1.196  12.663
12499SOL     OW39393   4.521   5.505   0.726
12499SOL    HW139394   4.581   5.462   0.665
12499SOL    HW239395   4.533   5.598   0.709
12500SOL     OW39396   6.253   3.645   4.481
12500SOL    HW139397   6.277   3.735   4.502
12500SOL    HW239398   6.196   3.653   4.405
12501SOL     OW39399   4.832   0.893  11.576
12501SOL    HW139400   4.760   0.836  11.547
12501SOL    HW239401   4.796   0.939  11.652
12502SOL     OW39402   3.492   9.318  11.184
12502SOL    HW139403   3.512   9.249  11.248
12502SOL    HW239404   3.545   9.393  11.213
12503SOL     OW39405   3.296  11.507  11.751
12503SOL    HW139406   3.298  11.506  11.655
12503SOL    HW239407   3.215  11.460  11.774
12504SOL     OW39408   9.530  13.879   3.795
12504SOL    HW139409   9.473  13.912   3.726
12504SOL    HW239410   9.607  13.845   3.750
12505SOL     OW39411  14.517   8.265   2.659
12505SOL    HW139412  14.459   8.341   2.650
12505SOL    HW239413  14.492   8.207   2.587
12506SOL     OW39414  13.231   1.930   7.391
12506SOL    HW139415  13.164   1.981   7.347
12506SOL    HW239416  13.275   1.882   7.321
12507SOL     OW39417   9.610   7.392  10.362
12507SOL    HW139418   9.694   7.381  10.317
12507SOL    HW239419   9.606   7.318  10.422
12508SOL     OW39420   7.985   3.237   2.468
12508SOL    HW139421   8.044   3.292   2.417
12508SOL    HW239422   7.900   3.248   2.427
12509SOL     OW39423  11.589  14.229   9.846
12509SOL    HW139424  11.682  14.205   9.845
12509SOL    HW239425  11.574  14.263   9.935
12510SOL     OW39426  14.716   7.023   6.916
12510SOL    HW139427  14.716   6.927   6.923
12510SOL    HW239428  14.748   7.040   6.827
12511SOL     OW39429   7.941   5.781   0.581
12511SOL    HW139430   8.018   5.791   0.526
12511SOL    HW239431   7.908   5.694   0.559
12512SOL     OW39432   5.771  11.415   1.549
12512SOL    HW139433   5.808  11.339   1.503
12512SOL    HW239434   5.680  11.390   1.565
12513SOL     OW39435   6.763   5.887  11.280
12513SOL    HW139436   6.804   5.970  11.304
12513SOL    HW239437   6.753   5.892  11.185
12514SOL     OW39438   9.449   9.595   4.709
12514SOL    HW139439   9.473   9.502   4.713
12514SOL    HW239440   9.532   9.639   4.690
12515SOL     OW39441   7.767  12.318   2.882
12515SOL    HW139442   7.844  12.352   2.836
12515SOL    HW239443   7.743  12.387   2.944
12516SOL     OW39444   6.406   5.815  10.156
12516SOL    HW139445   6.418   5.729  10.197
12516SOL    HW239446   6.354   5.864  10.220
12517SOL     OW39447   8.313   2.013   1.224
12517SOL    HW139448   8.391   1.996   1.171
12517SOL    HW239449   8.248   2.044   1.162
12518SOL     OW39450   2.415   6.368   5.377
12518SOL    HW139451   2.452   6.421   5.307
12518SOL    HW239452   2.365   6.300   5.332
12519SOL     OW39453  11.598   7.422   0.491
12519SOL    HW139454  11.637   7.345   0.533
12519SOL    HW239455  11.506   7.398   0.479
12520SOL     OW39456   6.556   1.079   6.974
12520SOL    HW139457   6.537   1.137   6.901
12520SOL    HW239458   6.479   1.085   7.030
12521SOL     OW39459   8.382   4.291   1.371
12521SOL    HW139460   8.418   4.362   1.318
12521SOL    HW239461   8.447   4.277   1.440
12522SOL     OW39462   3.953  14.396   6.387
12522SOL    HW139463   4.005  14.327   6.428
12522SOL    HW239464   3.904  14.352   6.318
12523SOL     OW39465  10.562   7.192   0.320
12523SOL    HW139466  10.584   7.221   0.232
12523SOL    HW239467  10.622   7.239   0.378
12524SOL     OW39468   3.704   7.127  13.810
12524SOL    HW139469   3.674   7.124  13.901
12524SOL    HW239470   3.799   7.141  13.817
12525SOL     OW39471   0.849   5.668   5.688
12525SOL    HW139472   0.770   5.615   5.692
12525SOL    HW239473   0.870   5.676   5.595
12526SOL     OW39474   8.029   9.937   8.940
12526SOL    HW139475   7.968   9.876   8.898
12526SOL    HW239476   8.082   9.971   8.868
12527SOL     OW39477   7.228   9.200   0.652
12527SOL    HW139478   7.156   9.179   0.593
12527SOL    HW239479   7.211   9.147   0.730
12528SOL     OW39480   3.302   4.559  10.104
12528SOL    HW139481   3.312   4.630  10.041
12528SOL    HW239482   3.365   4.580  10.173
12529SOL     OW39483  12.230  11.243   2.759
12529SOL    HW139484  12.234  11.253   2.664
12529SOL    HW239485  12.249  11.331   2.793
12530SOL     OW39486   3.739   1.146   0.715
12530SOL    HW139487   3.737   1.210   0.644
12530SOL    HW239488   3.695   1.069   0.679
12531SOL     OW39489  14.418   5.331   6.587
12531SOL    HW139490  14.422   5.307   6.495
12531SOL    HW239491  14.508   5.351   6.611
12532SOL     OW39492  10.445  13.429   3.399
12532SOL    HW139493  10.451  13.473   3.314
12532SOL    HW239494  10.353  13.408   3.409
12533SOL     OW39495   8.704   7.475  11.131
12533SOL    HW139496   8.678   7.553  11.083
12533SOL    HW239497   8.789   7.451  11.093
12534SOL     OW39498  11.052   9.935   1.063
12534SOL    HW139499  11.120   9.958   1.126
12534SOL    HW239500  11.054   9.839   1.059
12535SOL     OW39501  10.523   2.325  10.551
12535SOL    HW139502  10.615   2.351  10.545
12535SOL    HW239503  10.512   2.259  10.483
12536SOL     OW39504   9.745   6.095  13.008
12536SOL    HW139505   9.671   6.083  12.949
12536SOL    HW239506   9.736   6.185  13.041
12537SOL     OW39507  11.484   0.355  13.869
12537SOL    HW139508  11.510   0.439  13.831
12537SOL    HW239509  11.412   0.325  13.813
12538SOL     OW39510  13.638   1.914   1.334
12538SOL    HW139511  13.598   1.827   1.335
12538SOL    HW239512  13.629   1.944   1.244
12539SOL     OW39513   8.533   1.468  10.774
12539SOL    HW139514   8.511   1.561  10.776
12539SOL    HW239515   8.449   1.423  10.773
12540SOL     OW39516   1.732   0.650   4.682
12540SOL    HW139517   1.795   0.585   4.713
12540SOL    HW239518   1.716   0.707   4.758
12541SOL     OW39519  10.411   5.076   0.584
12541SOL    HW139520  10.407   4.998   0.640
12541SOL    HW239521  10.499   5.111   0.597
12542SOL     OW39522  13.453   0.456  12.391
12542SOL    HW139523  13.524   0.460  12.327
12542SOL    HW239524  13.449   0.364  12.416
12543SOL     OW39525  10.299   6.120   2.542
12543SOL    HW139526  10.344   6.093   2.622
12543SOL    HW239527  10.219   6.068   2.541
12544SOL     OW39528   5.228   2.552   2.121
12544SOL    HW139529   5.214   2.613   2.194
12544SOL    HW239530   5.167   2.581   2.053
12545SOL     OW39531   6.361   8.583  13.236
12545SOL    HW139532   6.340   8.586  13.143
12545SOL    HW239533   6.280   8.553  13.278
12546SOL     OW39534  11.140   3.112   4.389
12546SOL    HW139535  11.087   3.058   4.330
12546SOL    HW239536  11.176   3.181   4.332
12547SOL     OW39537   6.324  11.302  11.676
12547SOL    HW139538   6.297  11.234  11.614
12547SOL    HW239539   6.244  11.349  11.697
12548SOL     OW39540   9.862   4.343   1.779
12548SOL    HW139541   9.840   4.335   1.872
12548SOL    HW239542   9.925   4.273   1.764
12549SOL     OW39543   9.316  11.724   2.292
12549SOL    HW139544   9.401  11.750   2.258
12549SOL    HW239545   9.301  11.782   2.367
12550SOL     OW39546   0.681   9.067  13.280
12550SOL    HW139547   0.687   9.055  13.375
12550SOL    HW239548   0.736   8.997  13.244
12551SOL     OW39549  10.112  10.398   8.475
12551SOL    HW139550  10.154  10.466   8.528
12551SOL    HW239551  10.114  10.320   8.530
12552SOL     OW39552   5.389   9.307  13.753
12552SOL    HW139553   5.312   9.264  13.790
12552SOL    HW239554   5.451   9.312  13.825
12553SOL     OW39555   7.425   8.662  14.657
12553SOL    HW139556   7.387   8.723  14.720
12553SOL    HW239557   7.489   8.713  14.609
12554SOL     OW39558   5.932  11.584   7.684
12554SOL    HW139559   5.938  11.633   7.766
12554SOL    HW239560   5.890  11.644   7.622
12555SOL     OW39561   6.746  14.761   0.298
12555SOL    HW139562   6.699  14.803   0.370
12555SOL    HW239563   6.711  14.672   0.294
12556SOL     OW39564   1.634   3.041   7.560
12556SOL    HW139565   1.624   2.998   7.645
12556SOL    HW239566   1.630   3.134   7.579
12557SOL     OW39567  14.526  11.709   8.809
12557SOL    HW139568  14.463  11.779   8.797
12557SOL    HW239569  14.505  11.671   8.894
12558SOL     OW39570   4.156   1.147   1.581
12558SOL    HW139571   4.175   1.057   1.554
12558SOL    HW239572   4.229   1.171   1.637
12559SOL     OW39573   8.438  12.949   4.889
12559SOL    HW139574   8.431  12.855   4.908
12559SOL    HW239575   8.423  12.991   4.973
12560SOL     OW39576   5.182   2.521   5.868
12560SOL    HW139577   5.200   2.609   5.901
12560SOL    HW239578   5.105   2.532   5.811
12561SOL     OW39579  13.824   0.305  11.907
12561SOL    HW139580  13.828   0.227  11.962
12561SOL    HW239581  13.904   0.354  11.929
12562SOL     OW39582   5.722   1.002  12.622
12562SOL    HW139583   5.666   1.076  12.645
12562SOL    HW239584   5.668   0.925  12.640
12563SOL     OW39585   0.861   7.741   8.713
12563SOL    HW139586   0.867   7.648   8.691
12563SOL    HW239587   0.889   7.746   8.804
12564SOL     OW39588   4.930   4.934  14.227
12564SOL    HW139589   4.918   4.962  14.318
12564SOL    HW239590   5.019   4.961  14.205
12565SOL     OW39591   9.597   4.593  10.725
12565SOL    HW139592   9.516   4.629  10.688
12565SOL    HW239593   9.660   4.665  10.718
12566SOL     OW39594  13.532   6.050  10.382
12566SOL    HW139595  13.474   6.020  10.313
12566SOL    HW239596  13.478   6.051  10.461
12567SOL     OW39597   0.302   6.909  10.465
12567SOL    HW139598   0.246   6.939  10.536
12567SOL    HW239599   0.391   6.920  10.499
12568SOL     OW39600   0.292   2.656   6.758
12568SOL    HW139601   0.200   2.631   6.753
12568SOL    HW239602   0.299   2.701   6.842
12569SOL     OW39603   5.778  10.466   5.994
12569SOL    HW139604   5.800  10.539   5.936
12569SOL    HW239605   5.863  10.430   6.021
12570SOL     OW39606  14.203   6.495   6.619
12570SOL    HW139607  14.291   6.517   6.648
12570SOL    HW239608  14.212   6.409   6.578
12571SOL     OW39609  12.937   1.431   5.038
12571SOL    HW139610  13.001   1.362   5.021
12571SOL    HW239611  12.872   1.388   5.096
12572SOL     OW39612  14.260   6.129   3.510
12572SOL    HW139613  14.334   6.139   3.450
12572SOL    HW239614  14.300   6.100   3.593
12573SOL     OW39615   4.445   6.762   3.690
12573SOL    HW139616   4.446   6.817   3.611
12573SOL    HW239617   4.365   6.787   3.736
12574SOL     OW39618  10.693   4.827  11.577
12574SOL    HW139619  10.632   4.848  11.507
12574SOL    HW239620  10.642   4.772  11.637
12575SOL     OW39621   6.859   4.307   8.939
12575SOL    HW139622   6.832   4.395   8.964
12575SOL    HW239623   6.809   4.289   8.859
12576SOL     OW39624   5.294   2.012   2.273
12576SOL    HW139625   5.297   1.918   2.287
12576SOL    HW239626   5.355   2.048   2.338
12577SOL     OW39627   7.685   5.565   7.887
12577SOL    HW139628   7.747   5.517   7.832
12577SOL    HW239629   7.727   5.571   7.972
12578SOL     OW39630   2.625   7.385   2.825
12578SOL    HW139631   2.659   7.332   2.897
12578SOL    HW239632   2.567   7.448   2.867
12579SOL     OW39633   5.070  11.562   6.241
12579SOL    HW139634   4.982  11.600   6.250
12579SOL    HW239635   5.056  11.467   6.246
12580SOL     OW39636  10.346   4.256   0.504
12580SOL    HW139637  10.371   4.232   0.593
12580SOL    HW239638  10.331   4.351   0.509
12581SOL     OW39639   2.044   1.177   6.726
12581SOL    HW139640   2.012   1.228   6.801
12581SOL    HW239641   2.081   1.243   6.667
12582SOL     OW39642   2.482   1.984   1.330
12582SOL    HW139643   2.538   2.004   1.254
12582SOL    HW239644   2.543   1.956   1.398
12583SOL     OW39645   5.424   5.492  12.633
12583SOL    HW139646   5.449   5.575  12.673
12583SOL    HW239647   5.337   5.473  12.668
12584SOL     OW39648   0.798   3.585  13.184
12584SOL    HW139649   0.764   3.673  13.168
12584SOL    HW239650   0.773   3.565  13.275
12585SOL     OW39651  14.412   4.994  11.460
12585SOL    HW139652  14.439   5.010  11.551
12585SOL    HW239653  14.389   4.901  11.458
12586SOL     OW39654  13.261   8.819   8.892
12586SOL    HW139655  13.297   8.826   8.981
12586SOL    HW239656  13.239   8.727   8.882
12587SOL     OW39657   9.764   9.043   2.948
12587SOL    HW139658   9.805   8.957   2.959
12587SOL    HW239659   9.696   9.029   2.882
12588SOL     OW39660  10.118  13.721   3.741
12588SOL    HW139661  10.035  13.768   3.755
12588SOL    HW239662  10.182  13.769   3.793
12589SOL     OW39663   3.137  14.113   0.415
12589SOL    HW139664   3.096  14.087   0.332
12589SOL    HW239665   3.067  14.158   0.463
12590SOL     OW39666   7.513  13.430  13.197
12590SOL    HW139667   7.547  13.427  13.286
12590SOL    HW239668   7.492  13.522  13.183
12591SOL     OW39669   4.426   6.924   9.333
12591SOL    HW139670   4.481   6.926   9.411
12591SOL    HW239671   4.352   6.981   9.354
12592SOL     OW39672   1.798  11.425   3.194
12592SOL    HW139673   1.882  11.467   3.214
12592SOL    HW239674   1.784  11.364   3.267
12593SOL     OW39675   7.477  13.865   0.390
12593SOL    HW139676   7.519  13.903   0.313
12593SOL    HW239677   7.547  13.858   0.455
12594SOL     OW39678  12.635   1.525   2.197
12594SOL    HW139679  12.549   1.485   2.209
12594SOL    HW239680  12.659   1.504   2.106
12595SOL     OW39681  13.877   4.049   2.339
12595SOL    HW139682  13.866   4.142   2.357
12595SOL    HW239683  13.930   4.017   2.412
12596SOL     OW39684   4.583   4.913   6.141
12596SOL    HW139685   4.598   4.874   6.227
12596SOL    HW239686   4.651   4.875   6.085
12597SOL     OW39687   3.410   9.491   7.402
12597SOL    HW139688   3.364   9.544   7.467
12597SOL    HW239689   3.500   9.488   7.433
12598SOL     OW39690  10.016   6.487   2.648
12598SOL    HW139691  10.050   6.533   2.725
12598SOL    HW239692   9.964   6.415   2.685
12599SOL     OW39693  14.079  10.025  10.427
12599SOL    HW139694  14.013   9.997  10.491
12599SOL    HW239695  14.163  10.012  10.472
12600SOL     OW39696   4.336  12.487  10.429
12600SOL    HW139697   4.369  12.551  10.366
12600SOL    HW239698   4.328  12.406  10.380
12601SOL     OW39699   2.636   0.571   8.835
12601SOL    HW139700   2.719   0.610   8.861
12601SOL    HW239701   2.652   0.536   8.747
12602SOL     OW39702   1.420   8.409   2.955
12602SOL    HW139703   1.501   8.380   2.912
12602SOL    HW239704   1.428   8.378   3.045
12603SOL     OW39705  10.706   1.151   4.115
12603SOL    HW139706  10.642   1.094   4.156
12603SOL    HW239707  10.689   1.238   4.151
12604SOL     OW39708  11.208  10.125   0.310
12604SOL    HW139709  11.122  10.166   0.299
12604SOL    HW239710  11.231  10.144   0.401
12605SOL     OW39711   4.202   2.946  11.042
12605SOL    HW139712   4.201   2.914  11.132
12605SOL    HW239713   4.178   3.038  11.049
12606SOL     OW39714   4.312  12.061   9.369
12606SOL    HW139715   4.327  12.120   9.295
12606SOL    HW239716   4.313  12.118   9.446
12607SOL     OW39717   7.997   1.413   2.142
12607SOL    HW139718   8.034   1.487   2.191
12607SOL    HW239719   7.904   1.413   2.164
12608SOL     OW39720   8.267  11.624   4.210
12608SOL    HW139721   8.260  11.532   4.185
12608SOL    HW239722   8.300  11.622   4.300
12609SOL     OW39723   2.097   8.407   8.106
12609SOL    HW139724   2.176   8.432   8.059
12609SOL    HW239725   2.124   8.337   8.166
12610SOL     OW39726   0.666   5.980  13.263
12610SOL    HW139727   0.748   5.933  13.247
12610SOL    HW239728   0.692   6.072  13.264
12611SOL     OW39729   0.348  14.491   6.303
12611SOL    HW139730   0.257  14.460   6.306
12611SOL    HW239731   0.385  14.464   6.387
12612SOL     OW39732   3.357  13.570  11.851
12612SOL    HW139733   3.449  13.596  11.844
12612SOL    HW239734   3.360  13.482  11.889
12613SOL     OW39735  12.825  11.843   4.750
12613SOL    HW139736  12.807  11.937   4.750
12613SOL    HW239737  12.891  11.832   4.681
12614SOL     OW39738  10.133   0.627  13.130
12614SOL    HW139739  10.193   0.657  13.062
12614SOL    HW239740  10.049   0.617  13.085
12615SOL     OW39741   4.305   8.567  11.429
12615SOL    HW139742   4.341   8.511  11.361
12615SOL    HW239743   4.239   8.620  11.384
12616SOL     OW39744   4.332   7.955   2.699
12616SOL    HW139745   4.359   7.994   2.616
12616SOL    HW239746   4.250   8.000   2.721
12617SOL     OW39747   1.195   4.679   8.794
12617SOL    HW139748   1.236   4.615   8.737
12617SOL    HW239749   1.268   4.725   8.835
12618SOL     OW39750  10.759   9.723   1.337
12618SOL    HW139751  10.733   9.757   1.423
12618SOL    HW239752  10.724   9.786   1.275
12619SOL     OW39753   1.862   2.864   3.206
12619SOL    HW139754   1.770   2.881   3.186
12619SOL    HW239755   1.911   2.909   3.136
12620SOL     OW39756   3.657   0.768   5.848
12620SOL    HW139757   3.650   0.678   5.879
12620SOL    HW239758   3.581   0.779   5.791
12621SOL     OW39759   9.661   5.538  10.970
12621SOL    HW139760   9.654   5.564  10.878
12621SOL    HW239761   9.610   5.604  11.017
12622SOL     OW39762   3.531  11.797  10.086
12622SOL    HW139763   3.502  11.747  10.163
12622SOL    HW239764   3.608  11.751  10.055
12623SOL     OW39765   3.511   9.881  12.590
12623SOL    HW139766   3.577   9.849  12.530
12623SOL    HW239767   3.476   9.960  12.548
12624SOL     OW39768  12.239  10.855  11.426
12624SOL    HW139769  12.190  10.934  11.449
12624SOL    HW239770  12.316  10.889  11.379
12625SOL     OW39771   4.633   6.675  11.610
12625SOL    HW139772   4.624   6.715  11.696
12625SOL    HW239773   4.719   6.704  11.579
12626SOL     OW39774   2.678  13.364   9.234
12626SOL    HW139775   2.697  13.435   9.295
12626SOL    HW239776   2.744  13.374   9.165
12627SOL     OW39777  14.583   3.227   8.559
12627SOL    HW139778  14.660   3.283   8.559
12627SOL    HW239779  14.532   3.256   8.483
12628SOL     OW39780  11.985   8.649  10.063
12628SOL    HW139781  11.943   8.665   9.979
12628SOL    HW239782  11.921   8.599  10.114
12629SOL     OW39783   1.609  11.628  13.003
12629SOL    HW139784   1.671  11.671  12.944
12629SOL    HW239785   1.596  11.541  12.965
12630SOL     OW39786   5.874   0.949  14.809
12630SOL    HW139787   5.870   0.855  14.789
12630SOL    HW239788   5.891   0.952   0.028
12631SOL     OW39789   3.193  10.532   8.370
12631SOL    HW139790   3.266  10.557   8.426
12631SOL    HW239791   3.164  10.615   8.330
12632SOL     OW39792  11.522  13.139  14.275
12632SOL    HW139793  11.477  13.149  14.191
12632SOL    HW239794  11.575  13.060  14.265
12633SOL     OW39795  10.326   5.658   2.310
12633SOL    HW139796  10.373   5.600   2.369
12633SOL    HW239797  10.339   5.621   2.223
12634SOL     OW39798  14.500   2.896  12.669
12634SOL    HW139799  14.526   2.921  12.581
12634SOL    HW239800  14.405   2.884  12.664
12635SOL     OW39801  10.164  10.036   1.821
12635SOL    HW139802  10.255  10.031   1.849
12635SOL    HW239803  10.115   9.990   1.889
12636SOL     OW39804  13.204   9.456   2.254
12636SOL    HW139805  13.295   9.428   2.253
12636SOL    HW239806  13.153   9.375   2.259
12637SOL     OW39807   1.452   3.869  13.225
12637SOL    HW139808   1.424   3.943  13.279
12637SOL    HW239809   1.372   3.842  13.179
12638SOL     OW39810   5.256   3.508  13.989
12638SOL    HW139811   5.185   3.530  13.929
12638SOL    HW239812   5.258   3.413  13.989
12639SOL     OW39813  12.251   3.728   9.380
12639SOL    HW139814  12.228   3.819   9.397
12639SOL    HW239815  12.186   3.678   9.430
12640SOL     OW39816  14.088   5.215   9.510
12640SOL    HW139817  14.181   5.198   9.525
12640SOL    HW239818  14.085   5.304   9.474
12641SOL     OW39819   5.933  12.945   0.167
12641SOL    HW139820   5.964  12.997   0.093
12641SOL    HW239821   5.971  12.988   0.244
12642SOL     OW39822   8.183   6.338  14.424
12642SOL    HW139823   8.128   6.414  14.402
12642SOL    HW239824   8.140   6.264  14.381
12643SOL     OW39825   6.444   5.237   3.527
12643SOL    HW139826   6.431   5.156   3.478
12643SOL    HW239827   6.529   5.270   3.497
12644SOL     OW39828  12.931   4.237  14.519
12644SOL    HW139829  12.856   4.183  14.492
12644SOL    HW239830  12.899   4.327  14.513
12645SOL     OW39831   6.635  10.249   5.013
12645SOL    HW139832   6.603  10.339   5.015
12645SOL    HW239833   6.677  10.236   5.098
12646SOL     OW39834  10.918   5.813   3.936
12646SOL    HW139835  10.975   5.748   3.977
12646SOL    HW239836  10.861   5.842   4.008
12647SOL     OW39837   0.291   5.577  11.125
12647SOL    HW139838   0.238   5.537  11.056
12647SOL    HW239839   0.370   5.606  11.080
12648SOL     OW39840   3.110  11.813   6.088
12648SOL    HW139841   3.199  11.841   6.067
12648SOL    HW239842   3.057  11.891   6.076
12649SOL     OW39843   5.368   3.279   1.615
12649SOL    HW139844   5.308   3.238   1.553
12649SOL    HW239845   5.343   3.243   1.700
12650SOL     OW39846   7.282   7.287   9.414
12650SOL    HW139847   7.361   7.255   9.458
12650SOL    HW239848   7.285   7.382   9.425
12651SOL     OW39849   3.280  10.369   8.189
12651SOL    HW139850   3.351  10.331   8.241
12651SOL    HW239851   3.235  10.429   8.248
12652SOL     OW39852   9.883  11.654   1.836
12652SOL    HW139853   9.923  11.736   1.865
12652SOL    HW239854   9.796  11.679   1.805
12653SOL     OW39855   7.923   9.914   8.477
12653SOL    HW139856   7.965   9.941   8.396
12653SOL    HW239857   7.857   9.850   8.450
12654SOL     OW39858  10.595   9.909   3.481
12654SOL    HW139859  10.618   9.871   3.566
12654SOL    HW239860  10.506   9.878   3.465
12655SOL     OW39861  11.699   9.048   2.577
12655SOL    HW139862  11.687   9.130   2.529
12655SOL    HW239863  11.621   9.040   2.632
12656SOL     OW39864   6.788   8.546   6.152
12656SOL    HW139865   6.743   8.462   6.148
12656SOL    HW239866   6.777   8.575   6.242
12657SOL     OW39867   4.703   5.655  14.696
12657SOL    HW139868   4.684   5.604  14.616
12657SOL    HW239869   4.618   5.687  14.725
12658SOL     OW39870   8.982   6.977   8.672
12658SOL    HW139871   8.929   6.904   8.703
12658SOL    HW239872   8.998   6.959   8.580
12659SOL     OW39873  11.912   3.690  11.445
12659SOL    HW139874  12.005   3.686  11.423
12659SOL    HW239875  11.886   3.780  11.425
12660SOL     OW39876  14.297   1.170  10.071
12660SOL    HW139877  14.367   1.157  10.007
12660SOL    HW239878  14.291   1.264  10.083
12661SOL     OW39879   7.979  13.886   9.303
12661SOL    HW139880   7.948  13.821   9.365
12661SOL    HW239881   7.921  13.961   9.316
12662SOL     OW39882   5.015   0.146   8.505
12662SOL    HW139883   4.924   0.174   8.499
12662SOL    HW239884   5.015   0.058   8.466
12663SOL     OW39885  11.109   5.843   7.636
12663SOL    HW139886  11.051   5.794   7.695
12663SOL    HW239887  11.141   5.777   7.574
12664SOL     OW39888  10.419   8.893   0.936
12664SOL    HW139889  10.495   8.914   0.881
12664SOL    HW239890  10.357   8.851   0.877
12665SOL     OW39891   9.511   1.602   9.853
12665SOL    HW139892   9.538   1.581   9.764
12665SOL    HW239893   9.592   1.629   9.897
12666SOL     OW39894   7.055   0.723  13.726
12666SOL    HW139895   6.968   0.762  13.721
12666SOL    HW239896   7.039   0.634  13.758
12667SOL     OW39897   6.246  10.454  13.951
12667SOL    HW139898   6.157  10.423  13.935
12667SOL    HW239899   6.293  10.378  13.983
12668SOL     OW39900  13.954   1.462  12.188
12668SOL    HW139901  13.901   1.519  12.243
12668SOL    HW239902  13.894   1.394  12.157
12669SOL     OW39903   1.896  13.220  14.200
12669SOL    HW139904   1.869  13.215  14.108
12669SOL    HW239905   1.956  13.146  14.211
12670SOL     OW39906  13.580   8.880   6.870
12670SOL    HW139907  13.646   8.949   6.867
12670SOL    HW239908  13.498   8.924   6.847
12671SOL     OW39909  10.220   0.070   9.673
12671SOL    HW139910  10.137   0.094   9.634
12671SOL    HW239911  10.286   0.116   9.621
12672SOL     OW39912   8.706   0.119  13.619
12672SOL    HW139913   8.645   0.190  13.601
12672SOL    HW239914   8.715   0.117  13.714
12673SOL     OW39915   8.515  10.949   1.202
12673SOL    HW139916   8.535  10.969   1.111
12673SOL    HW239917   8.509  10.854   1.205
12674SOL     OW39918   1.636   7.104   8.678
12674SOL    HW139919   1.637   7.070   8.589
12674SOL    HW239920   1.591   7.189   8.670
12675SOL     OW39921  11.460   0.302  14.560
12675SOL    HW139922  11.545   0.304  14.603
12675SOL    HW239923  11.455   0.385  14.513
12676SOL     OW39924  10.459  11.002   5.911
12676SOL    HW139925  10.548  10.976   5.936
12676SOL    HW239926  10.469  11.055   5.833
12677SOL     OW39927   5.504   5.672   5.590
12677SOL    HW139928   5.467   5.587   5.566
12677SOL    HW239929   5.429   5.730   5.596
12678SOL     OW39930   0.356  14.464   0.413
12678SOL    HW139931   0.264  14.470   0.436
12678SOL    HW239932   0.368  14.531   0.345
12679SOL     OW39933   1.888   2.240   1.320
12679SOL    HW139934   1.801   2.242   1.281
12679SOL    HW239935   1.886   2.309   1.387
12680SOL     OW39936  13.704   2.476   6.204
12680SOL    HW139937  13.751   2.516   6.131
12680SOL    HW239938  13.674   2.550   6.257
12681SOL     OW39939   3.204  12.107   6.264
12681SOL    HW139940   3.269  12.095   6.195
12681SOL    HW239941   3.178  12.199   6.256
12682SOL     OW39942  13.349  13.179   4.706
12682SOL    HW139943  13.257  13.181   4.732
12682SOL    HW239944  13.397  13.204   4.785
12683SOL     OW39945  14.148   6.561  10.416
12683SOL    HW139946  14.104   6.524  10.340
12683SOL    HW239947  14.216   6.497  10.438
12684SOL     OW39948   3.114   9.525   8.647
12684SOL    HW139949   3.110   9.462   8.719
12684SOL    HW239950   3.137   9.472   8.571
12685SOL     OW39951  12.590  12.183  12.982
12685SOL    HW139952  12.658  12.225  13.035
12685SOL    HW239953  12.579  12.241  12.906
12686SOL     OW39954  13.415  10.738   7.139
12686SOL    HW139955  13.444  10.807   7.079
12686SOL    HW239956  13.497  10.704   7.177
12687SOL     OW39957   7.726   8.485   4.594
12687SOL    HW139958   7.819   8.507   4.597
12687SOL    HW239959   7.690   8.526   4.673
12688SOL     OW39960   8.647   9.774   5.000
12688SOL    HW139961   8.587   9.818   4.939
12688SOL    HW239962   8.688   9.705   4.948
12689SOL     OW39963   6.921   7.176  11.858
12689SOL    HW139964   6.853   7.134  11.805
12689SOL    HW239965   6.951   7.107  11.918
12690SOL     OW39966   0.461  10.082  11.133
12690SOL    HW139967   0.436  10.130  11.055
12690SOL    HW239968   0.456  10.146  11.204
12691SOL     OW39969   3.966   3.263  14.059
12691SOL    HW139970   3.974   3.217  13.975
12691SOL    HW239971   4.014   3.208  14.121
12692SOL     OW39972   9.624   4.094   4.205
12692SOL    HW139973   9.692   4.157   4.181
12692SOL    HW239974   9.579   4.075   4.123
12693SOL     OW39975   3.337   6.445   9.847
12693SOL    HW139976   3.359   6.528   9.889
12693SOL    HW239977   3.246   6.455   9.819
12694SOL     OW39978  12.410   2.330  12.046
12694SOL    HW139979  12.320   2.331  12.014
12694SOL    HW239980  12.459   2.382  11.983
12695SOL     OW39981  14.559   4.755   1.977
12695SOL    HW139982  14.641   4.794   1.946
12695SOL    HW239983  14.548   4.677   1.923
12696SOL     OW39984   3.403  13.583   1.767
12696SOL    HW139985   3.349  13.623   1.699
12696SOL    HW239986   3.438  13.657   1.816
12697SOL     OW39987  10.405  14.835  13.250
12697SOL    HW139988  10.348   0.028  13.285
12697SOL    HW239989  10.483   0.007  13.221
12698SOL     OW39990   5.824  13.599   9.132
12698SOL    HW139991   5.880  13.674   9.153
12698SOL    HW239992   5.799  13.612   9.041
12699SOL     OW39993   4.508   6.973   2.374
12699SOL    HW139994   4.467   6.929   2.449
12699SOL    HW239995   4.599   6.986   2.401
12700SOL     OW39996   7.293   0.394  11.936
12700SOL    HW139997   7.315   0.301  11.926
12700SOL    HW239998   7.260   0.420  11.851
12701SOL     OW39999   2.221   3.171   1.137
12701SOL    HW140000   2.239   3.209   1.223
12701SOL    HW240001   2.207   3.077   1.154
12702SOL     OW40002  11.840   0.785  14.576
12702SOL    HW140003  11.795   0.723  14.519
12702SOL    HW240004  11.769   0.831  14.620
12703SOL     OW40005   6.763   3.303   5.928
12703SOL    HW140006   6.757   3.213   5.961
12703SOL    HW240007   6.850   3.333   5.957
12704SOL     OW40008   7.689   4.283  12.309
12704SOL    HW140009   7.612   4.301  12.254
12704SOL    HW240010   7.742   4.224  12.256
12705SOL     OW40011  13.875   2.335  12.940
12705SOL    HW140012  13.941   2.369  13.001
12705SOL    HW240013  13.839   2.258  12.984
12706SOL     OW40014   6.573   8.651   9.013
12706SOL    HW140015   6.585   8.684   8.924
12706SOL    HW240016   6.501   8.588   9.005
12707SOL     OW40017   3.044  12.062   3.144
12707SOL    HW140018   3.138  12.048   3.150
12707SOL    HW240019   3.031  12.152   3.173
12708SOL     OW40020  11.861  14.230  11.142
12708SOL    HW140021  11.942  14.202  11.099
12708SOL    HW240022  11.816  14.281  11.075
12709SOL     OW40023   8.163   2.129   8.886
12709SOL    HW140024   8.160   2.039   8.853
12709SOL    HW240025   8.221   2.175   8.826
12710SOL     OW40026   1.971   5.847   0.994
12710SOL    HW140027   1.907   5.802   1.050
12710SOL    HW240028   1.972   5.937   1.027
12711SOL     OW40029   3.831   0.456   7.122
12711SOL    HW140030   3.743   0.457   7.084
12711SOL    HW240031   3.820   0.492   7.210
12712SOL     OW40032  13.696   6.803   1.869
12712SOL    HW140033  13.771   6.743   1.866
12712SOL    HW240034  13.707   6.851   1.951
12713SOL     OW40035   6.618   1.562   3.929
12713SOL    HW140036   6.619   1.495   3.997
12713SOL    HW240037   6.571   1.522   3.856
12714SOL     OW40038  11.098   6.314   4.333
12714SOL    HW140039  11.102   6.380   4.265
12714SOL    HW240040  11.059   6.238   4.290
12715SOL     OW40041   0.534  10.933   7.748
12715SOL    HW140042   0.572  10.943   7.835
12715SOL    HW240043   0.597  10.879   7.700
12716SOL     OW40044   6.606   6.619  10.158
12716SOL    HW140045   6.587   6.690  10.219
12716SOL    HW240046   6.546   6.632  10.085
12717SOL     OW40047   3.277   5.036  12.284
12717SOL    HW140048   3.245   5.094  12.353
12717SOL    HW240049   3.352   5.082  12.246
12718SOL     OW40050  14.143   3.642   1.774
12718SOL    HW140051  14.168   3.682   1.857
12718SOL    HW240052  14.197   3.564   1.767
12719SOL     OW40053  13.414  10.813   4.165
12719SOL    HW140054  13.323  10.791   4.145
12719SOL    HW240055  13.465  10.756   4.107
12720SOL     OW40056   7.366  14.359   1.901
12720SOL    HW140057   7.280  14.365   1.943
12720SOL    HW240058   7.414  14.435   1.933
12721SOL     OW40059  12.086  14.861   5.622
12721SOL    HW140060  12.048   0.024   5.701
12721SOL    HW240061  12.156   0.045   5.598
12722SOL     OW40062   1.231   0.098   8.357
12722SOL    HW140063   1.191   0.108   8.444
12722SOL    HW240064   1.248   0.188   8.328
12723SOL     OW40065   0.236  10.902   1.656
12723SOL    HW140066   0.306  10.839   1.641
12723SOL    HW240067   0.192  10.871   1.735
12724SOL     OW40068  10.193   4.212   3.901
12724SOL    HW140069  10.235   4.127   3.909
12724SOL    HW240070  10.117   4.208   3.958
12725SOL     OW40071   3.495   5.159  12.202
12725SOL    HW140072   3.534   5.236  12.244
12725SOL    HW240073   3.485   5.185  12.110
12726SOL     OW40074   5.740   2.085   4.612
12726SOL    HW140075   5.759   1.991   4.606
12726SOL    HW240076   5.654   2.095   4.571
12727SOL     OW40077  10.249   4.731   1.028
12727SOL    HW140078  10.248   4.762   1.119
12727SOL    HW240079  10.186   4.787   0.983
12728SOL     OW40080   1.081   1.016   3.185
12728SOL    HW140081   1.043   1.079   3.124
12728SOL    HW240082   1.164   1.055   3.212
12729SOL     OW40083   2.682   5.133   3.752
12729SOL    HW140084   2.708   5.041   3.747
12729SOL    HW240085   2.762   5.178   3.781
12730SOL     OW40086   7.780   7.317  12.601
12730SOL    HW140087   7.715   7.363  12.655
12730SOL    HW240088   7.793   7.234  12.646
12731SOL     OW40089   3.626  14.254   9.115
12731SOL    HW140090   3.700  14.242   9.055
12731SOL    HW240091   3.615  14.349   9.120
12732SOL     OW40092  11.589  12.173   5.175
12732SOL    HW140093  11.629  12.165   5.089
12732SOL    HW240094  11.509  12.224   5.160
12733SOL     OW40095  10.043  12.343   2.957
12733SOL    HW140096   9.967  12.323   2.902
12733SOL    HW240097  10.007  12.350   3.046
12734SOL     OW40098   2.057  12.122   2.571
12734SOL    HW140099   2.129  12.060   2.580
12734SOL    HW240100   1.980  12.066   2.555
12735SOL     OW40101  11.051   1.207   8.077
12735SOL    HW140102  11.027   1.114   8.068
12735SOL    HW240103  11.022   1.231   8.165
12736SOL     OW40104  11.594   3.499  13.639
12736SOL    HW140105  11.648   3.420  13.638
12736SOL    HW240106  11.585   3.521  13.731
12737SOL     OW40107  11.214   6.536   2.612
12737SOL    HW140108  11.295   6.501   2.651
12737SOL    HW240109  11.236   6.625   2.586
12738SOL     OW40110  12.389  13.459   3.717
12738SOL    HW140111  12.403  13.528   3.782
12738SOL    HW240112  12.313  13.489   3.667
12739SOL     OW40113   8.670   6.785   5.807
12739SOL    HW140114   8.670   6.713   5.744
12739SOL    HW240115   8.753   6.776   5.854
12740SOL     OW40116   6.797   8.038  10.947
12740SOL    HW140117   6.770   8.127  10.969
12740SOL    HW240118   6.795   8.035  10.852
12741SOL     OW40119   7.224  11.885   2.723
12741SOL    HW140120   7.224  11.973   2.759
12741SOL    HW240121   7.298  11.885   2.662
12742SOL     OW40122   5.271   7.977  13.582
12742SOL    HW140123   5.279   7.882  13.591
12742SOL    HW240124   5.214   7.989  13.506
12743SOL     OW40125  13.262   4.270  12.677
12743SOL    HW140126  13.240   4.320  12.599
12743SOL    HW240127  13.200   4.300  12.744
12744SOL     OW40128   8.102   7.426   2.442
12744SOL    HW140129   8.107   7.418   2.537
12744SOL    HW240130   8.152   7.506   2.423
12745SOL     OW40131  10.500  10.274   5.703
12745SOL    HW140132  10.408  10.296   5.719
12745SOL    HW240133  10.540  10.357   5.677
12746SOL     OW40134   7.022  11.385   6.219
12746SOL    HW140135   7.069  11.463   6.189
12746SOL    HW240136   7.025  11.390   6.314
12747SOL     OW40137   4.105  13.896  13.716
12747SOL    HW140138   4.059  13.966  13.670
12747SOL    HW240139   4.196  13.905  13.689
12748SOL     OW40140   9.407   2.544   6.922
12748SOL    HW140141   9.383   2.633   6.949
12748SOL    HW240142   9.499   2.549   6.897
12749SOL     OW40143  14.233  11.312   8.410
12749SOL    HW140144  14.221  11.270   8.325
12749SOL    HW240145  14.326  11.299   8.431
12750SOL     OW40146   6.274  14.605  10.818
12750SOL    HW140147   6.187  14.618  10.782
12750SOL    HW240148   6.311  14.533  10.767
12751SOL     OW40149  13.238   1.988  11.887
12751SOL    HW140150  13.246   1.941  11.970
12751SOL    HW240151  13.327   2.014  11.865
12752SOL     OW40152  11.360   1.481   2.684
12752SOL    HW140153  11.266   1.464   2.679
12752SOL    HW240154  11.400   1.406   2.641
12753SOL     OW40155   8.683   1.450  13.389
12753SOL    HW140156   8.728   1.498  13.459
12753SOL    HW240157   8.595   1.433  13.422
12754SOL     OW40158   1.824  10.396  14.170
12754SOL    HW140159   1.857  10.306  14.162
12754SOL    HW240160   1.901  10.451  14.165
12755SOL     OW40161  13.388   3.139   1.439
12755SOL    HW140162  13.414   3.228   1.418
12755SOL    HW240163  13.414   3.127   1.530
12756SOL     OW40164   4.703  13.058   0.278
12756SOL    HW140165   4.622  13.066   0.227
12756SOL    HW240166   4.684  12.991   0.343
12757SOL     OW40167   6.413   7.219   3.572
12757SOL    HW140168   6.453   7.206   3.658
12757SOL    HW240169   6.396   7.313   3.567
12758SOL     OW40170   4.734   5.576  13.740
12758SOL    HW140171   4.649   5.608  13.708
12758SOL    HW240172   4.756   5.505  13.680
12759SOL     OW40173   5.036   1.323  12.914
12759SOL    HW140174   4.964   1.311  12.975
12759SOL    HW240175   5.003   1.291  12.830
12760SOL     OW40176  11.669  13.727  12.687
12760SOL    HW140177  11.728  13.652  12.696
12760SOL    HW240178  11.714  13.798  12.732
12761SOL     OW40179   5.450   0.812  12.565
12761SOL    HW140180   5.390   0.798  12.492
12761SOL    HW240181   5.408   0.880  12.619
12762SOL     OW40182   4.398  13.546   2.071
12762SOL    HW140183   4.305  13.533   2.052
12762SOL    HW240184   4.412  13.499   2.153
12763SOL     OW40185   3.500   7.797  11.726
12763SOL    HW140186   3.507   7.707  11.694
12763SOL    HW240187   3.421   7.796  11.781
12764SOL     OW40188   1.785  13.929   6.854
12764SOL    HW140189   1.842  13.858   6.823
12764SOL    HW240190   1.699  13.889   6.860
12765SOL     OW40191   1.845  13.122   1.531
12765SOL    HW140192   1.798  13.200   1.501
12765SOL    HW240193   1.930  13.155   1.559
12766SOL     OW40194   4.674   6.322   2.386
12766SOL    HW140195   4.670   6.417   2.390
12766SOL    HW240196   4.709   6.295   2.471
12767SOL     OW40197   1.883  12.467   4.605
12767SOL    HW140198   1.792  12.447   4.625
12767SOL    HW240199   1.894  12.559   4.632
12768SOL     OW40200   1.345   6.853  13.350
12768SOL    HW140201   1.346   6.900  13.266
12768SOL    HW240202   1.367   6.920  13.415
12769SOL     OW40203   2.247   1.439   8.610
12769SOL    HW140204   2.317   1.494   8.644
12769SOL    HW240205   2.290   1.356   8.589
12770SOL     OW40206   7.085   2.688   8.714
12770SOL    HW140207   7.169   2.648   8.691
12770SOL    HW240208   7.101   2.727   8.800
12771SOL     OW40209  10.118   6.575   6.656
12771SOL    HW140210  10.126   6.555   6.750
12771SOL    HW240211  10.104   6.670   6.654
12772SOL     OW40212   7.093   5.567   2.067
12772SOL    HW140213   7.043   5.527   2.137
12772SOL    HW240214   7.144   5.635   2.110
12773SOL     OW40215   1.534  14.803  10.190
12773SOL    HW140216   1.460  14.767  10.141
12773SOL    HW240217   1.589  14.845  10.123
12774SOL     OW40218   5.889   2.159  14.577
12774SOL    HW140219   5.833   2.102  14.523
12774SOL    HW240220   5.977   2.125  14.564
12775SOL     OW40221   4.761   8.708   1.134
12775SOL    HW140222   4.742   8.728   1.226
12775SOL    HW240223   4.715   8.776   1.085
12776SOL     OW40224   1.182   8.752   4.224
12776SOL    HW140225   1.240   8.794   4.287
12776SOL    HW240226   1.127   8.823   4.191
12777SOL     OW40227   8.904   9.803   0.259
12777SOL    HW140228   8.985   9.829   0.304
12777SOL    HW240229   8.929   9.797   0.167
12778SOL     OW40230   9.065  11.706   7.990
12778SOL    HW140231   9.158  11.726   7.981
12778SOL    HW240232   9.031  11.773   8.050
12779SOL     OW40233   8.797   2.175   2.352
12779SOL    HW140234   8.718   2.227   2.341
12779SOL    HW240235   8.775   2.089   2.314
12780SOL     OW40236   1.444  11.391   4.620
12780SOL    HW140237   1.399  11.437   4.691
12780SOL    HW240238   1.458  11.303   4.655
12781SOL     OW40239   0.447  12.944   3.790
12781SOL    HW140240   0.420  13.000   3.863
12781SOL    HW240241   0.445  12.856   3.826
12782SOL     OW40242  13.253  12.735   5.002
12782SOL    HW140243  13.284  12.723   5.091
12782SOL    HW240244  13.187  12.804   5.008
12783SOL     OW40245   6.583  14.744   3.778
12783SOL    HW140246   6.643  14.673   3.802
12783SOL    HW240247   6.556  14.723   3.689
12784SOL     OW40248   1.493   8.600   0.405
12784SOL    HW140249   1.474   8.506   0.402
12784SOL    HW240250   1.412   8.642   0.376
12785SOL     OW40251   9.755   6.076  14.223
12785SOL    HW140252   9.696   6.151  14.231
12785SOL    HW240253   9.820   6.103  14.158
12786SOL     OW40254  12.381   8.708   0.221
12786SOL    HW140255  12.433   8.631   0.198
12786SOL    HW240256  12.333   8.730   0.141
12787SOL     OW40257  11.239  12.303   0.232
12787SOL    HW140258  11.276  12.271   0.149
12787SOL    HW240259  11.276  12.391   0.242
12788SOL     OW40260   2.210   1.751   6.575
12788SOL    HW140261   2.169   1.696   6.642
12788SOL    HW240262   2.302   1.722   6.575
12789SOL     OW40263  11.970  13.114  13.052
12789SOL    HW140264  12.010  13.165  12.981
12789SOL    HW240265  11.890  13.163  13.073
12790SOL     OW40266  10.406  13.506  12.338
12790SOL    HW140267  10.426  13.498  12.244
12790SOL    HW240268  10.438  13.592  12.362
12791SOL     OW40269   1.701  10.642  10.138
12791SOL    HW140270   1.645  10.593  10.198
12791SOL    HW240271   1.640  10.685  10.078
12792SOL     OW40272   9.323   1.451  11.532
12792SOL    HW140273   9.338   1.457  11.626
12792SOL    HW240274   9.238   1.495  11.518
12793SOL     OW40275  10.872   2.592   4.032
12793SOL    HW140276  10.916   2.540   3.965
12793SOL    HW240277  10.898   2.682   4.014
12794SOL     OW40278  10.230  12.430   9.941
12794SOL    HW140279  10.153  12.424   9.998
12794SOL    HW240280  10.194  12.449   9.854
12795SOL     OW40281   4.610   7.417  14.718
12795SOL    HW140282   4.671   7.343  14.722
12795SOL    HW240283   4.627   7.466  14.799
12796SOL     OW40284  11.434   3.392  12.552
12796SOL    HW140285  11.429   3.395  12.456
12796SOL    HW240286  11.503   3.455  12.574
12797SOL     OW40287  14.098   4.199   2.037
12797SOL    HW140288  14.174   4.257   2.028
12797SOL    HW240289  14.131   4.123   2.084
12798SOL     OW40290   1.102   4.660   3.711
12798SOL    HW140291   1.032   4.665   3.646
12798SOL    HW240292   1.163   4.730   3.687
12799SOL     OW40293  10.250   2.767   9.183
12799SOL    HW140294  10.186   2.698   9.164
12799SOL    HW240295  10.324   2.722   9.223
12800SOL     OW40296   3.475  12.186  12.360
12800SOL    HW140297   3.409  12.254  12.348
12800SOL    HW240298   3.427  12.104  12.352
12801SOL     OW40299   0.309  13.685  14.745
12801SOL    HW140300   0.268  13.771  14.755
12801SOL    HW240301   0.238  13.623  14.755
12802SOL     OW40302   0.218   7.525   1.304
12802SOL    HW140303   0.200   7.431   1.315
12802SOL    HW240304   0.228   7.536   1.210
12803SOL     OW40305   2.107  13.957   2.446
12803SOL    HW140306   2.152  13.990   2.368
12803SOL    HW240307   2.168  13.976   2.518
12804SOL     OW40308  13.190   5.028   7.302
12804SOL    HW140309  13.228   5.094   7.245
12804SOL    HW240310  13.164   5.076   7.381
12805SOL     OW40311   8.394  11.342  13.313
12805SOL    HW140312   8.309  11.327  13.271
12805SOL    HW240313   8.421  11.255  13.344
12806SOL     OW40314   6.802   3.395   8.040
12806SOL    HW140315   6.880   3.355   8.000
12806SOL    HW240316   6.825   3.403   8.133
12807SOL     OW40317  14.415   5.392  10.461
12807SOL    HW140318  14.338   5.370  10.408
12807SOL    HW240319  14.396   5.356  10.547
12808SOL     OW40320  12.681   4.697   2.955
12808SOL    HW140321  12.674   4.657   2.868
12808SOL    HW240322  12.748   4.646   3.000
12809SOL     OW40323   6.667  10.405  12.445
12809SOL    HW140324   6.616  10.368  12.517
12809SOL    HW240325   6.717  10.331  12.410
12810SOL     OW40326  11.351   7.624   9.752
12810SOL    HW140327  11.374   7.600   9.662
12810SOL    HW240328  11.319   7.542   9.791
12811SOL     OW40329  13.595  14.739   7.636
12811SOL    HW140330  13.576  14.659   7.684
12811SOL    HW240331  13.643  14.711   7.559
12812SOL     OW40332   6.508  12.578   3.316
12812SOL    HW140333   6.565  12.515   3.272
12812SOL    HW240334   6.544  12.664   3.292
12813SOL     OW40335   0.036  10.979  14.452
12813SOL    HW140336   0.055  11.028  14.371
12813SOL    HW240337  14.852  10.909  14.425
12814SOL     OW40338   9.242   6.152   8.662
12814SOL    HW140339   9.314   6.214   8.674
12814SOL    HW240340   9.197   6.183   8.583
12815SOL     OW40341   0.326  13.150   6.368
12815SOL    HW140342   0.293  13.203   6.440
12815SOL    HW240343   0.249  13.103   6.335
12816SOL     OW40344  12.811  12.487  13.887
12816SOL    HW140345  12.794  12.392  13.890
12816SOL    HW240346  12.906  12.493  13.875
12817SOL     OW40347   9.528   1.891   9.498
12817SOL    HW140348   9.601   1.953   9.503
12817SOL    HW240349   9.554   1.819   9.556
12818SOL     OW40350  10.152   7.480   7.396
12818SOL    HW140351  10.225   7.538   7.376
12818SOL    HW240352  10.192   7.393   7.400
12819SOL     OW40353   1.243  11.244   3.646
12819SOL    HW140354   1.263  11.184   3.719
12819SOL    HW240355   1.328  11.269   3.611
12820SOL     OW40356  13.106   1.921  14.032
12820SOL    HW140357  13.041   1.928  14.102
12820SOL    HW240358  13.185   1.958  14.070
12821SOL     OW40359   3.321  14.404  11.170
12821SOL    HW140360   3.363  14.354  11.240
12821SOL    HW240361   3.228  14.385  11.179
12822SOL     OW40362   6.902  13.598  13.089
12822SOL    HW140363   6.845  13.673  13.106
12822SOL    HW240364   6.991  13.632  13.103
12823SOL     OW40365   8.696   4.622   3.209
12823SOL    HW140366   8.614   4.653   3.170
12823SOL    HW240367   8.742   4.579   3.137
12824SOL     OW40368   6.928  12.883  12.374
12824SOL    HW140369   6.850  12.913  12.328
12824SOL    HW240370   6.927  12.788  12.364
12825SOL     OW40371  10.547   7.394   3.309
12825SOL    HW140372  10.490   7.432   3.377
12825SOL    HW240373  10.567   7.306   3.342
12826SOL     OW40374   8.352   4.826   2.469
12826SOL    HW140375   8.399   4.819   2.552
12826SOL    HW240376   8.274   4.878   2.489
12827SOL     OW40377   8.188   8.191  12.142
12827SOL    HW140378   8.182   8.102  12.107
12827SOL    HW240379   8.257   8.186  12.208
12828SOL     OW40380   1.789   0.682  12.598
12828SOL    HW140381   1.860   0.744  12.610
12828SOL    HW240382   1.747   0.676  12.684
12829SOL     OW40383   7.729  10.954   8.670
12829SOL    HW140384   7.823  10.961   8.683
12829SOL    HW240385   7.694  10.936   8.757
12830SOL     OW40386   8.455   1.214  11.413
12830SOL    HW140387   8.438   1.267  11.335
12830SOL    HW240388   8.508   1.271  11.469
12831SOL     OW40389   1.819   5.685   5.840
12831SOL    HW140390   1.912   5.671   5.819
12831SOL    HW240391   1.772   5.649   5.765
12832SOL     OW40392  13.526   1.380  14.004
12832SOL    HW140393  13.543   1.421  13.920
12832SOL    HW240394  13.527   1.452  14.067
12833SOL     OW40395   9.197   1.201  12.715
12833SOL    HW140396   9.281   1.219  12.757
12833SOL    HW240397   9.135   1.193  12.788
12834SOL     OW40398   3.416   2.328   7.823
12834SOL    HW140399   3.405   2.382   7.745
12834SOL    HW240400   3.476   2.259   7.796
12835SOL     OW40401   4.954  10.597   9.860
12835SOL    HW140402   5.004  10.628   9.935
12835SOL    HW240403   4.964  10.501   9.862
12836SOL     OW40404  10.008   4.010  12.356
12836SOL    HW140405  10.008   3.918  12.382
12836SOL    HW240406   9.934   4.049  12.402
12837SOL     OW40407  11.281   1.508  13.468
12837SOL    HW140408  11.283   1.562  13.389
12837SOL    HW240409  11.297   1.570  13.540
12838SOL     OW40410   5.187  12.827  10.834
12838SOL    HW140411   5.143  12.834  10.919
12838SOL    HW240412   5.188  12.917  10.801
12839SOL     OW40413   1.707  13.222   7.686
12839SOL    HW140414   1.748  13.279   7.621
12839SOL    HW240415   1.636  13.275   7.723
12840SOL     OW40416   0.594  11.327  12.940
12840SOL    HW140417   0.540  11.344  13.017
12840SOL    HW240418   0.544  11.364  12.867
12841SOL     OW40419   7.953  10.242  13.506
12841SOL    HW140420   7.997  10.159  13.523
12841SOL    HW240421   7.915  10.267  13.590
12842SOL     OW40422  10.149   4.666  12.969
12842SOL    HW140423  10.172   4.756  12.994
12842SOL    HW240424  10.232   4.619  12.975
12843SOL     OW40425   2.977   5.685  11.363
12843SOL    HW140426   3.014   5.621  11.302
12843SOL    HW240427   2.886   5.656  11.375
12844SOL     OW40428   7.379   9.087  11.548
12844SOL    HW140429   7.292   9.121  11.567
12844SOL    HW240430   7.438   9.161  11.562
12845SOL     OW40431   0.114   7.411   7.987
12845SOL    HW140432   0.155   7.365   8.061
12845SOL    HW240433   0.132   7.503   8.004
12846SOL     OW40434  11.003   1.057   9.975
12846SOL    HW140435  10.996   1.146   9.940
12846SOL    HW240436  10.952   1.060  10.056
12847SOL     OW40437   5.528   2.965   7.548
12847SOL    HW140438   5.452   3.017   7.576
12847SOL    HW240439   5.602   3.026   7.555
12848SOL     OW40440   1.739   8.254   7.952
12848SOL    HW140441   1.665   8.274   7.895
12848SOL    HW240442   1.763   8.164   7.929
12849SOL     OW40443   0.538  14.033   5.817
12849SOL    HW140444   0.623  13.989   5.809
12849SOL    HW240445   0.545  14.109   5.759
12850SOL     OW40446   6.094   6.153   7.090
12850SOL    HW140447   6.057   6.184   7.007
12850SOL    HW240448   6.187   6.172   7.082
12851SOL     OW40449   6.648  12.438  10.824
12851SOL    HW140450   6.601  12.355  10.815
12851SOL    HW240451   6.740  12.414  10.819
12852SOL     OW40452   0.302  12.398   6.328
12852SOL    HW140453   0.327  12.489   6.314
12852SOL    HW240454   0.381  12.348   6.305
12853SOL     OW40455   6.244   7.898   5.011
12853SOL    HW140456   6.269   7.964   5.075
12853SOL    HW240457   6.319   7.892   4.952
12854SOL     OW40458  12.516  13.426   4.165
12854SOL    HW140459  12.454  13.358   4.138
12854SOL    HW240460  12.501  13.498   4.104
12855SOL     OW40461   8.136   0.424   9.815
12855SOL    HW140462   8.220   0.379   9.830
12855SOL    HW240463   8.145   0.507   9.860
12856SOL     OW40464   5.172  11.727   8.754
12856SOL    HW140465   5.224  11.778   8.692
12856SOL    HW240466   5.236  11.687   8.813
12857SOL     OW40467  10.131   7.587   2.397
12857SOL    HW140468  10.105   7.541   2.316
12857SOL    HW240469  10.210   7.542   2.425
12858SOL     OW40470  14.046  11.152  13.120
12858SOL    HW140471  14.041  11.077  13.060
12858SOL    HW240472  14.111  11.209  13.081
12859SOL     OW40473   7.196   8.649   1.919
12859SOL    HW140474   7.184   8.563   1.959
12859SOL    HW240475   7.107   8.678   1.898
12860SOL     OW40476   1.012   8.227   0.102
12860SOL    HW140477   1.005   8.176   0.182
12860SOL    HW240478   0.957   8.180   0.039
12861SOL     OW40479   0.816  12.214   0.933
12861SOL    HW140480   0.907  12.198   0.958
12861SOL    HW240481   0.816  12.208   0.838
12862SOL     OW40482   8.720   5.472   6.923
12862SOL    HW140483   8.785   5.474   6.993
12862SOL    HW240484   8.699   5.380   6.912
12863SOL     OW40485  12.320   7.295  12.943
12863SOL    HW140486  12.354   7.216  12.984
12863SOL    HW240487  12.324   7.361  13.012
12864SOL     OW40488   2.347   9.078   0.148
12864SOL    HW140489   2.329   9.171   0.163
12864SOL    HW240490   2.440   9.068   0.169
12865SOL     OW40491  14.410   0.251   3.580
12865SOL    HW140492  14.343   0.248   3.648
12865SOL    HW240493  14.396   0.171   3.529
12866SOL     OW40494  12.531   4.196  10.423
12866SOL    HW140495  12.560   4.141  10.350
12866SOL    HW240496  12.611   4.233  10.459
12867SOL     OW40497  14.147   0.767   3.879
12867SOL    HW140498  14.072   0.709   3.866
12867SOL    HW240499  14.155   0.773   3.974
12868SOL     OW40500   6.106   9.238   1.112
12868SOL    HW140501   6.061   9.194   1.184
12868SOL    HW240502   6.185   9.185   1.098
12869SOL     OW40503   3.072   7.241   3.512
12869SOL    HW140504   3.161   7.209   3.501
12869SOL    HW240505   3.037   7.191   3.585
12870SOL     OW40506   8.260  10.994   4.196
12870SOL    HW140507   8.286  11.076   4.153
12870SOL    HW240508   8.165  10.988   4.180
12871SOL     OW40509  13.625   6.932   3.916
12871SOL    HW140510  13.586   7.013   3.950
12871SOL    HW240511  13.690   6.908   3.982
12872SOL     OW40512  10.657   9.319   3.923
12872SOL    HW140513  10.640   9.353   3.835
12872SOL    HW240514  10.589   9.360   3.977
12873SOL     OW40515   0.843  12.087   1.279
12873SOL    HW140516   0.791  12.165   1.298
12873SOL    HW240517   0.837  12.076   1.184
12874SOL     OW40518   5.606  13.725  13.946
12874SOL    HW140519   5.617  13.632  13.924
12874SOL    HW240520   5.615  13.770  13.863
12875SOL     OW40521   5.668   6.212   9.525
12875SOL    HW140522   5.689   6.203   9.618
12875SOL    HW240523   5.701   6.132   9.485
12876SOL     OW40524  12.094   3.502   0.117
12876SOL    HW140525  12.145   3.481   0.039
12876SOL    HW240526  12.043   3.423   0.135
12877SOL     OW40527   5.115   9.600  12.472
12877SOL    HW140528   5.097   9.513  12.437
12877SOL    HW240529   5.206   9.595  12.503
12878SOL     OW40530   7.808  11.370  11.776
12878SOL    HW140531   7.719  11.403  11.766
12878SOL    HW240532   7.814  11.342  11.867
12879SOL     OW40533  10.316   4.478  14.505
12879SOL    HW140534  10.410   4.463  14.505
12879SOL    HW240535  10.307   4.571  14.481
12880SOL     OW40536  13.451  13.122  14.822
12880SOL    HW140537  13.388  13.154  14.757
12880SOL    HW240538  13.536  13.143  14.784
12881SOL     OW40539   3.542   1.240   5.821
12881SOL    HW140540   3.633   1.218   5.842
12881SOL    HW240541   3.490   1.196   5.888
12882SOL     OW40542   7.413   3.052   2.897
12882SOL    HW140543   7.365   3.128   2.927
12882SOL    HW240544   7.466   3.084   2.824
12883SOL     OW40545   7.775  10.141  11.155
12883SOL    HW140546   7.819  10.056  11.145
12883SOL    HW240547   7.714  10.128  11.228
12884SOL     OW40548   0.254   1.100  11.216
12884SOL    HW140549   0.170   1.144  11.199
12884SOL    HW240550   0.231   1.018  11.259
12885SOL     OW40551   4.853   8.174   1.742
12885SOL    HW140552   4.816   8.103   1.689
12885SOL    HW240553   4.934   8.198   1.697
12886SOL     OW40554  11.501  13.176   3.147
12886SOL    HW140555  11.595  13.196   3.146
12886SOL    HW240556  11.497  13.083   3.125
12887SOL     OW40557  12.863  14.536   6.142
12887SOL    HW140558  12.861  14.451   6.098
12887SOL    HW240559  12.783  14.580   6.114
12888SOL     OW40560   1.690   5.891   2.419
12888SOL    HW140561   1.773   5.900   2.371
12888SOL    HW240562   1.645   5.974   2.405
12889SOL     OW40563   8.559   4.661   1.035
12889SOL    HW140564   8.524   4.671   0.947
12889SOL    HW240565   8.654   4.658   1.023
12890SOL     OW40566  14.227   4.561  11.268
12890SOL    HW140567  14.242   4.486  11.326
12890SOL    HW240568  14.144   4.598  11.299
12891SOL     OW40569   4.671   2.127   3.397
12891SOL    HW140570   4.740   2.117   3.332
12891SOL    HW240571   4.683   2.216   3.432
12892SOL     OW40572  11.120  13.572   6.924
12892SOL    HW140573  11.200  13.625   6.927
12892SOL    HW240574  11.103  13.560   6.830
12893SOL     OW40575   5.553   8.585  12.022
12893SOL    HW140576   5.601   8.516  12.067
12893SOL    HW240577   5.496   8.623  12.089
12894SOL     OW40578   2.807  11.950   8.213
12894SOL    HW140579   2.747  12.001   8.158
12894SOL    HW240580   2.817  12.002   8.292
12895SOL     OW40581   8.933   7.489  11.322
12895SOL    HW140582   8.856   7.434  11.310
12895SOL    HW240583   8.968   7.463  11.408
12896SOL     OW40584   4.412   8.770   1.119
12896SOL    HW140585   4.436   8.859   1.096
12896SOL    HW240586   4.471   8.715   1.068
12897SOL     OW40587  14.048   9.158   6.372
12897SOL    HW140588  14.069   9.065   6.375
12897SOL    HW240589  14.038   9.184   6.464
12898SOL     OW40590  13.507  11.614   5.343
12898SOL    HW140591  13.536  11.524   5.328
12898SOL    HW240592  13.412  11.608   5.347
12899SOL     OW40593  14.602   9.951  12.396
12899SOL    HW140594  14.636   9.928  12.309
12899SOL    HW240595  14.536   9.883  12.414
12900SOL     OW40596   0.131   2.746  12.771
12900SOL    HW140597   0.151   2.739  12.864
12900SOL    HW240598   0.211   2.782  12.732
12901SOL     OW40599   7.713   2.543   5.423
12901SOL    HW140600   7.731   2.624   5.376
12901SOL    HW240601   7.773   2.479   5.384
12902SOL     OW40602  14.729   4.585   1.505
12902SOL    HW140603  14.764   4.643   1.572
12902SOL    HW240604  14.725   4.638   1.426
12903SOL     OW40605   2.109   8.532  10.263
12903SOL    HW140606   2.139   8.598  10.201
12903SOL    HW240607   2.093   8.454  10.210
12904SOL     OW40608   2.641  11.447  11.295
12904SOL    HW140609   2.646  11.484  11.206
12904SOL    HW240610   2.570  11.496  11.337
12905SOL     OW40611   4.721   3.912  11.906
12905SOL    HW140612   4.656   3.848  11.875
12905SOL    HW240613   4.698   3.928  11.997
12906SOL     OW40614   6.025   1.388   2.738
12906SOL    HW140615   6.111   1.401   2.698
12906SOL    HW240616   5.968   1.452   2.696
12907SOL     OW40617   2.491   9.253  13.967
12907SOL    HW140618   2.536   9.169  13.966
12907SOL    HW240619   2.430   9.246  14.041
12908SOL     OW40620   7.894   8.600   5.687
12908SOL    HW140621   7.818   8.552   5.654
12908SOL    HW240622   7.962   8.587   5.622
12909SOL     OW40623  12.459   2.284   5.469
12909SOL    HW140624  12.399   2.358   5.456
12909SOL    HW240625  12.525   2.295   5.401
12910SOL     OW40626   2.281   6.320   4.908
12910SOL    HW140627   2.366   6.289   4.940
12910SOL    HW240628   2.219   6.254   4.939
12911SOL     OW40629   5.824  13.867  13.214
12911SOL    HW140630   5.762  13.937  13.192
12911SOL    HW240631   5.851  13.886  13.304
12912SOL     OW40632   3.724   3.391  13.249
12912SOL    HW140633   3.629   3.401  13.252
12912SOL    HW240634   3.753   3.460  13.189
12913SOL     OW40635   6.592   8.892   3.021
12913SOL    HW140636   6.618   8.916   3.110
12913SOL    HW240637   6.517   8.949   3.003
12914SOL     OW40638  10.477   5.020   6.738
12914SOL    HW140639  10.561   5.060   6.761
12914SOL    HW240640  10.432   5.008   6.821
12915SOL     OW40641   3.196   4.008   8.612
12915SOL    HW140642   3.230   4.024   8.700
12915SOL    HW240643   3.204   4.092   8.567
12916SOL     OW40644  11.083  13.132   1.874
12916SOL    HW140645  11.038  13.090   1.801
12916SOL    HW240646  11.072  13.072   1.947
12917SOL     OW40647  12.231   3.525   6.202
12917SOL    HW140648  12.156   3.558   6.152
12917SOL    HW240649  12.218   3.430   6.204
12918SOL     OW40650   4.803   0.283   2.040
12918SOL    HW140651   4.855   0.335   1.979
12918SOL    HW240652   4.798   0.338   2.119
12919SOL     OW40653  13.658   7.872  11.809
12919SOL    HW140654  13.590   7.809  11.835
12919SOL    HW240655  13.728   7.860  11.873
12920SOL     OW40656  10.941   8.088   9.908
12920SOL    HW140657  10.914   8.021   9.845
12920SOL    HW240658  10.912   8.170   9.870
12921SOL     OW40659   5.289  12.976   7.155
12921SOL    HW140660   5.257  12.993   7.244
12921SOL    HW240661   5.384  12.978   7.163
12922SOL     OW40662   9.345   5.441  12.102
12922SOL    HW140663   9.301   5.478  12.179
12922SOL    HW240664   9.290   5.468  12.028
12923SOL     OW40665   9.465  12.748  10.276
12923SOL    HW140666   9.505  12.816  10.332
12923SOL    HW240667   9.413  12.695  10.337
12924SOL     OW40668   2.209   1.192  13.515
12924SOL    HW140669   2.229   1.171  13.606
12924SOL    HW240670   2.232   1.112  13.467
12925SOL     OW40671   2.967   1.904   6.822
12925SOL    HW140672   2.944   1.912   6.730
12925SOL    HW240673   3.035   1.837   6.824
12926SOL     OW40674  12.777   1.381   5.530
12926SOL    HW140675  12.732   1.358   5.612
12926SOL    HW240676  12.814   1.468   5.547
12927SOL     OW40677  10.717  14.406   6.874
12927SOL    HW140678  10.717  14.501   6.889
12927SOL    HW240679  10.630  14.378   6.901
12928SOL     OW40680   5.056  14.781   7.624
12928SOL    HW140681   5.004  14.860   7.610
12928SOL    HW240682   5.133  14.811   7.670
12929SOL     OW40683   0.174   0.136   9.488
12929SOL    HW140684   0.176   0.202   9.557
12929SOL    HW240685   0.108   0.073   9.516
12930SOL     OW40686   2.316   4.168   7.987
12930SOL    HW140687   2.312   4.253   7.943
12930SOL    HW240688   2.374   4.182   8.062
12931SOL     OW40689   7.899   0.680  14.532
12931SOL    HW140690   7.973   0.728  14.495
12931SOL    HW240691   7.826   0.699  14.473
12932SOL     OW40692  14.080   0.667  10.071
12932SOL    HW140693  14.022   0.591  10.078
12932SOL    HW240694  14.153   0.636  10.016
12933SOL     OW40695   3.643   0.358   1.714
12933SOL    HW140696   3.734   0.364   1.686
12933SOL    HW240697   3.593   0.357   1.632
12934SOL     OW40698  11.637   8.420   1.368
12934SOL    HW140699  11.646   8.346   1.308
12934SOL    HW240700  11.711   8.412   1.428
12935SOL     OW40701   4.399   4.632  12.936
12935SOL    HW140702   4.391   4.722  12.966
12935SOL    HW240703   4.429   4.639  12.846
12936SOL     OW40704   8.226   8.124   8.320
12936SOL    HW140705   8.187   8.156   8.239
12936SOL    HW240706   8.152   8.118   8.381
12937SOL     OW40707   9.114  10.233   2.404
12937SOL    HW140708   9.086  10.157   2.455
12937SOL    HW240709   9.079  10.217   2.316
12938SOL     OW40710   7.289   7.066   8.785
12938SOL    HW140711   7.380   7.072   8.815
12938SOL    HW240712   7.250   6.997   8.839
12939SOL     OW40713   6.740  14.845  10.367
12939SOL    HW140714   6.665  14.810  10.415
12939SOL    HW240715   6.785  14.767  10.332
12940SOL     OW40716   2.659   1.019  12.455
12940SOL    HW140717   2.578   0.969  12.443
12940SOL    HW240718   2.648   1.098  12.403
12941SOL     OW40719  12.287  14.024  12.088
12941SOL    HW140720  12.249  14.083  12.023
12941SOL    HW240721  12.252  14.054  12.172
12942SOL     OW40722   2.843   5.353   0.811
12942SOL    HW140723   2.868   5.333   0.901
12942SOL    HW240724   2.782   5.427   0.819
12943SOL     OW40725   3.147  12.380   6.324
12943SOL    HW140726   3.161  12.350   6.414
12943SOL    HW240727   3.208  12.453   6.314
12944SOL     OW40728   4.893   5.323  11.364
12944SOL    HW140729   4.896   5.392  11.431
12944SOL    HW240730   4.974   5.273  11.378
12945SOL     OW40731   2.314   7.957  10.741
12945SOL    HW140732   2.257   8.033  10.733
12945SOL    HW240733   2.254   7.882  10.735
12946SOL     OW40734  13.892  12.136   9.713
12946SOL    HW140735  13.879  12.044   9.690
12946SOL    HW240736  13.902  12.136   9.808
12947SOL     OW40737  12.803  12.837   7.892
12947SOL    HW140738  12.779  12.812   7.803
12947SOL    HW240739  12.862  12.911   7.881
12948SOL     OW40740   7.369   0.341   2.584
12948SOL    HW140741   7.395   0.288   2.659
12948SOL    HW240742   7.389   0.431   2.611
12949SOL     OW40743   0.545   8.415   6.133
12949SOL    HW140744   0.637   8.415   6.109
12949SOL    HW240745   0.524   8.323   6.148
12950SOL     OW40746   2.412   4.405   3.589
12950SOL    HW140747   2.354   4.370   3.521
12950SOL    HW240748   2.440   4.328   3.638
12951SOL     OW40749   3.984   2.099   1.276
12951SOL    HW140750   3.920   2.164   1.304
12951SOL    HW240751   4.060   2.151   1.248
12952SOL     OW40752   0.584   0.169   1.029
12952SOL    HW140753   0.601   0.091   0.975
12952SOL    HW240754   0.578   0.136   1.118
12953SOL     OW40755   2.551   2.115  13.185
12953SOL    HW140756   2.521   2.036  13.231
12953SOL    HW240757   2.532   2.187  13.245
12954SOL     OW40758   0.357   3.928  10.377
12954SOL    HW140759   0.442   3.943  10.419
12954SOL    HW240760   0.372   3.952  10.286
12955SOL     OW40761   3.433  10.590  10.528
12955SOL    HW140762   3.445  10.521  10.594
12955SOL    HW240763   3.393  10.545  10.454
12956SOL     OW40764  13.096  14.871   6.654
12956SOL    HW140765  13.068  14.810   6.722
12956SOL    HW240766  13.173  14.830   6.615
12957SOL     OW40767  13.043   4.660   9.914
12957SOL    HW140768  13.113   4.681   9.852
12957SOL    HW240769  12.963   4.661   9.861
12958SOL     OW40770   7.464   9.006   1.485
12958SOL    HW140771   7.372   9.030   1.474
12958SOL    HW240772   7.513   9.075   1.441
12959SOL     OW40773   9.979  11.551   6.184
12959SOL    HW140774   9.925  11.477   6.157
12959SOL    HW240775   9.954  11.622   6.124
12960SOL     OW40776   8.221   5.246   4.440
12960SOL    HW140777   8.266   5.165   4.460
12960SOL    HW240778   8.165   5.261   4.516
12961SOL     OW40779   1.592   9.847   8.463
12961SOL    HW140780   1.553   9.793   8.531
12961SOL    HW240781   1.521   9.864   8.402
12962SOL     OW40782  12.114  10.046   9.185
12962SOL    HW140783  12.040   9.987   9.195
12962SOL    HW240784  12.109  10.077   9.095
12963SOL     OW40785   1.778   7.818  12.982
12963SOL    HW140786   1.683   7.808  12.973
12963SOL    HW240787   1.799   7.898  12.935
12964SOL     OW40788   0.968   4.335  11.677
12964SOL    HW140789   0.903   4.370  11.738
12964SOL    HW240790   1.014   4.267  11.726
12965SOL     OW40791   7.397   3.197   8.321
12965SOL    HW140792   7.421   3.137   8.391
12965SOL    HW240793   7.477   3.246   8.303
12966SOL     OW40794   1.190   5.290   0.993
12966SOL    HW140795   1.224   5.379   0.995
12966SOL    HW240796   1.174   5.269   1.086
12967SOL     OW40797  13.640   4.692   6.186
12967SOL    HW140798  13.691   4.632   6.241
12967SOL    HW240799  13.552   4.654   6.184
12968SOL     OW40800   5.177  13.563   9.530
12968SOL    HW140801   5.142  13.622   9.596
12968SOL    HW240802   5.268  13.548   9.557
12969SOL     OW40803   9.442   4.852   2.380
12969SOL    HW140804   9.433   4.894   2.465
12969SOL    HW240805   9.484   4.768   2.399
12970SOL     OW40806   2.049   0.225   8.379
12970SOL    HW140807   2.132   0.179   8.393
12970SOL    HW240808   2.031   0.214   8.286
12971SOL     OW40809  13.058   8.081   6.903
12971SOL    HW140810  13.036   8.089   6.810
12971SOL    HW240811  13.088   8.168   6.928
12972SOL     OW40812   3.552   3.338   1.457
12972SOL    HW140813   3.604   3.330   1.537
12972SOL    HW240814   3.502   3.419   1.468
12973SOL     OW40815   7.806   1.417   2.900
12973SOL    HW140816   7.822   1.469   2.978
12973SOL    HW240817   7.876   1.441   2.840
12974SOL     OW40818  12.098   0.765  14.113
12974SOL    HW140819  12.060   0.711  14.044
12974SOL    HW240820  12.094   0.854  14.078
12975SOL     OW40821   0.365   7.158   2.667
12975SOL    HW140822   0.440   7.205   2.631
12975SOL    HW240823   0.305   7.148   2.594
12976SOL     OW40824   7.057   7.465   4.966
12976SOL    HW140825   6.998   7.536   4.992
12976SOL    HW240826   7.110   7.448   5.044
12977SOL     OW40827  10.752   7.530   2.881
12977SOL    HW140828  10.840   7.567   2.876
12977SOL    HW240829  10.756   7.470   2.956
12978SOL     OW40830   3.356  12.423   4.537
12978SOL    HW140831   3.404  12.381   4.465
12978SOL    HW240832   3.344  12.513   4.508
12979SOL     OW40833   5.348   7.831   4.541
12979SOL    HW140834   5.271   7.851   4.488
12979SOL    HW240835   5.317   7.841   4.632
12980SOL     OW40836   7.351   7.977  12.860
12980SOL    HW140837   7.322   8.042  12.796
12980SOL    HW240838   7.303   7.898  12.837
12981SOL     OW40839   5.667  14.080   8.437
12981SOL    HW140840   5.734  14.148   8.444
12981SOL    HW240841   5.591  14.116   8.483
12982SOL     OW40842   6.834   1.677   8.518
12982SOL    HW140843   6.854   1.643   8.431
12982SOL    HW240844   6.917   1.716   8.548
12983SOL     OW40845   3.103   6.136  13.590
12983SOL    HW140846   3.076   6.174  13.507
12983SOL    HW240847   3.118   6.044  13.571
12984SOL     OW40848  12.069  14.868   9.752
12984SOL    HW140849  12.090  14.869   9.659
12984SOL    HW240850  11.979   0.025   9.757
12985SOL     OW40851   0.491   1.992  12.627
12985SOL    HW140852   0.514   2.033  12.543
12985SOL    HW240853   0.480   2.065  12.687
12986SOL     OW40854   1.870   3.773   7.783
12986SOL    HW140855   1.775   3.785   7.770
12986SOL    HW240856   1.883   3.785   7.877
12987SOL     OW40857   5.264   2.365   5.006
12987SOL    HW140858   5.261   2.368   4.910
12987SOL    HW240859   5.229   2.449   5.034
12988SOL     OW40860  14.315   8.550  13.660
12988SOL    HW140861  14.403   8.574  13.689
12988SOL    HW240862  14.302   8.461  13.692
12989SOL     OW40863  10.161  12.281   8.452
12989SOL    HW140864  10.109  12.358   8.429
12989SOL    HW240865  10.096  12.212   8.468
12990SOL     OW40866   4.157   7.449  10.790
12990SOL    HW140867   4.100   7.514  10.751
12990SOL    HW240868   4.241   7.494  10.801
12991SOL     OW40869   3.640  14.723  12.583
12991SOL    HW140870   3.557  14.753  12.620
12991SOL    HW240871   3.624  14.716  12.489
12992SOL     OW40872   4.928   4.561   7.613
12992SOL    HW140873   4.876   4.541   7.690
12992SOL    HW240874   4.998   4.617   7.645
12993SOL     OW40875   4.321   6.190   3.335
12993SOL    HW140876   4.230   6.218   3.334
12993SOL    HW240877   4.317   6.095   3.322
12994SOL     OW40878   0.451   7.683   4.269
12994SOL    HW140879   0.476   7.686   4.361
12994SOL    HW240880   0.362   7.648   4.270
12995SOL     OW40881   5.018   0.615   1.599
12995SOL    HW140882   4.995   0.545   1.538
12995SOL    HW240883   5.053   0.569   1.676
12996SOL     OW40884   5.557   7.538   2.055
12996SOL    HW140885   5.527   7.511   1.967
12996SOL    HW240886   5.493   7.498   2.114
12997SOL     OW40887   4.580   1.772  14.038
12997SOL    HW140888   4.534   1.746  13.958
12997SOL    HW240889   4.554   1.707  14.103
12998SOL     OW40890   8.050  14.619   2.930
12998SOL    HW140891   8.025  14.550   2.991
12998SOL    HW240892   7.971  14.634   2.877
12999SOL     OW40893   4.657   5.617  12.766
12999SOL    HW140894   4.643   5.634  12.673
12999SOL    HW240895   4.586   5.663  12.810
13000SOL     OW40896   3.817  14.734  13.506
13000SOL    HW140897   3.738  14.710  13.556
13000SOL    HW240898   3.803  14.826  13.482
13001SOL     OW40899  11.335  12.995   7.991
13001SOL    HW140900  11.320  13.045   7.910
13001SOL    HW240901  11.264  13.021   8.049
13002SOL     OW40902   6.638   9.285   8.156
13002SOL    HW140903   6.598   9.345   8.093
13002SOL    HW240904   6.731   9.282   8.131
13003SOL     OW40905   9.349  13.445   8.933
13003SOL    HW140906   9.429  13.459   8.882
13003SOL    HW240907   9.287  13.509   8.898
13004SOL     OW40908   6.565   4.420   8.049
13004SOL    HW140909   6.660   4.412   8.061
13004SOL    HW240910   6.528   4.401   8.135
13005SOL     OW40911  13.789   5.155   1.351
13005SOL    HW140912  13.854   5.169   1.283
13005SOL    HW240913  13.734   5.234   1.348
13006SOL     OW40914   4.443   5.655  10.749
13006SOL    HW140915   4.441   5.588  10.680
13006SOL    HW240916   4.351   5.669  10.771
13007SOL     OW40917   6.157  14.060   1.211
13007SOL    HW140918   6.076  14.094   1.172
13007SOL    HW240919   6.218  14.133   1.206
13008SOL     OW40920   9.591   4.801  11.959
13008SOL    HW140921   9.622   4.823  11.871
13008SOL    HW240922   9.507   4.845  11.967
13009SOL     OW40923   2.020   9.771   6.153
13009SOL    HW140924   2.009   9.756   6.247
13009SOL    HW240925   1.931   9.777   6.119
13010SOL     OW40926   0.018   0.813  11.197
13010SOL    HW140927  14.810   0.861  11.193
13010SOL    HW240928   0.056   0.824  11.110
13011SOL     OW40929   1.693  11.892   5.272
13011SOL    HW140930   1.775  11.914   5.316
13011SOL    HW240931   1.654  11.976   5.250
13012SOL     OW40932  12.765   0.520   0.882
13012SOL    HW140933  12.696   0.475   0.834
13012SOL    HW240934  12.728   0.605   0.904
13013SOL     OW40935  11.821   2.469   9.285
13013SOL    HW140936  11.829   2.549   9.234
13013SOL    HW240937  11.729   2.444   9.275
13014SOL     OW40938  14.068   1.264  13.674
13014SOL    HW140939  14.161   1.258  13.651
13014SOL    HW240940  14.067   1.302  13.761
13015SOL     OW40941   0.103   6.309  14.837
13015SOL    HW140942   0.073   6.397  14.815
13015SOL    HW240943   0.080   6.298   0.054
13016SOL     OW40944   2.062   2.559  14.421
13016SOL    HW140945   2.024   2.479  14.386
13016SOL    HW240946   2.118   2.529  14.493
13017SOL     OW40947   8.971   1.703   8.435
13017SOL    HW140948   8.975   1.646   8.512
13017SOL    HW240949   8.924   1.651   8.370
13018SOL     OW40950  13.104   1.193  14.641
13018SOL    HW140951  13.163   1.268  14.630
13018SOL    HW240952  13.048   1.194  14.564
13019SOL     OW40953  14.496   0.548  13.357
13019SOL    HW140954  14.481   0.470  13.410
13019SOL    HW240955  14.440   0.615  13.396
13020SOL     OW40956   0.042   9.876   1.297
13020SOL    HW140957   0.018   9.811   1.363
13020SOL    HW240958   0.132   9.899   1.317
13021SOL     OW40959   4.168   7.702  12.296
13021SOL    HW140960   4.123   7.748  12.226
13021SOL    HW240961   4.225   7.768  12.336
13022SOL     OW40962   3.468  11.759   9.137
13022SOL    HW140963   3.551  11.802   9.115
13022SOL    HW240964   3.450  11.702   9.062
13023SOL     OW40965   3.135   6.898   5.936
13023SOL    HW140966   3.180   6.949   5.869
13023SOL    HW240967   3.053   6.945   5.951
13024SOL     OW40968   5.396   9.438   3.424
13024SOL    HW140969   5.488   9.411   3.428
13024SOL    HW240970   5.357   9.380   3.358
13025SOL     OW40971  10.465   0.097   9.079
13025SOL    HW140972  10.421   0.181   9.066
13025SOL    HW240973  10.465   0.086   9.174
13026SOL     OW40974  14.446   3.791   0.182
13026SOL    HW140975  14.524   3.820   0.229
13026SOL    HW240976  14.466   3.810   0.090
13027SOL     OW40977   1.707  11.405   6.750
13027SOL    HW140978   1.626  11.455   6.754
13027SOL    HW240979   1.768  11.460   6.701
13028SOL     OW40980   6.880  14.553   3.338
13028SOL    HW140981   6.913  14.524   3.423
13028SOL    HW240982   6.912  14.643   3.330
13029SOL     OW40983  11.803   0.067   3.227
13029SOL    HW140984  11.718   0.055   3.270
13029SOL    HW240985  11.840  14.853   3.222
13030SOL     OW40986   3.283   7.966   0.336
13030SOL    HW140987   3.323   8.049   0.310
13030SOL    HW240988   3.263   7.977   0.429
13031SOL     OW40989   0.244   7.608   5.790
13031SOL    HW140990   0.174   7.592   5.727
13031SOL    HW240991   0.320   7.563   5.753
13032SOL     OW40992  11.863   9.078  11.591
13032SOL    HW140993  11.819   8.993  11.597
13032SOL    HW240994  11.840   9.111  11.504
13033SOL     OW40995   3.411   3.476  14.332
13033SOL    HW140996   3.359   3.552  14.305
13033SOL    HW240997   3.485   3.475  14.271
13034SOL     OW40998  14.439   6.283   9.733
13034SOL    HW140999  14.384   6.306   9.808
13034SOL    HW241000  14.395   6.321   9.658
13035SOL     OW41001   7.929   8.305   6.090
13035SOL    HW141002   7.862   8.267   6.147
13035SOL    HW241003   7.984   8.358   6.149
13036SOL     OW41004   0.652   4.036   6.644
13036SOL    HW141005   0.682   4.033   6.735
13036SOL    HW241006   0.561   4.063   6.650
13037SOL     OW41007  13.878   1.808   0.544
13037SOL    HW141008  13.853   1.793   0.453
13037SOL    HW241009  13.974   1.801   0.543
13038SOL     OW41010   3.148  13.538  12.770
13038SOL    HW141011   3.223  13.481  12.753
13038SOL    HW241012   3.187  13.625  12.783
13039SOL     OW41013  12.778  13.404   1.574
13039SOL    HW141014  12.742  13.384   1.660
13039SOL    HW241015  12.784  13.500   1.571
13040SOL     OW41016  10.104   8.113   5.717
13040SOL    HW141017  10.063   8.088   5.800
13040SOL    HW241018  10.103   8.032   5.666
13041SOL     OW41019  13.015   8.581   2.635
13041SOL    HW141020  13.053   8.496   2.658
13041SOL    HW241021  13.003   8.577   2.540
13042SOL     OW41022   5.536   5.542  10.593
13042SOL    HW141023   5.461   5.483  10.593
13042SOL    HW241024   5.572   5.535  10.504
13043SOL     OW41025   5.855   0.924   0.542
13043SOL    HW141026   5.839   0.988   0.612
13043SOL    HW241027   5.906   0.855   0.584
13044SOL     OW41028   5.579  14.847  12.570
13044SOL    HW141029   5.663   0.017  12.562
13044SOL    HW241030   5.583  14.802  12.654
13045SOL     OW41031   4.685   2.639   2.094
13045SOL    HW141032   4.600   2.681   2.108
13045SOL    HW241033   4.698   2.587   2.174
13046SOL     OW41034   4.081   6.168  14.231
13046SOL    HW141035   4.100   6.184  14.323
13046SOL    HW241036   4.158   6.200  14.185
13047SOL     OW41037  13.757   3.692   2.305
13047SOL    HW141038  13.693   3.623   2.289
13047SOL    HW241039  13.721   3.741   2.380
13048SOL     OW41040   1.061  14.216   2.715
13048SOL    HW141041   1.127  14.277   2.748
13048SOL    HW241042   1.046  14.155   2.787
13049SOL     OW41043   8.883   4.368   0.072
13049SOL    HW141044   8.953   4.433   0.083
13049SOL    HW241045   8.863   4.339   0.160
13050SOL     OW41046   1.727   2.081   4.156
13050SOL    HW141047   1.717   2.095   4.250
13050SOL    HW241048   1.640   2.058   4.125
13051SOL     OW41049   5.162   7.496   5.842
13051SOL    HW141050   5.151   7.401   5.846
13051SOL    HW241051   5.073   7.530   5.832
13052SOL     OW41052   4.566  10.879   6.984
13052SOL    HW141053   4.622  10.934   7.038
13052SOL    HW241054   4.478  10.889   7.022
13053SOL     OW41055   0.813   6.162   2.645
13053SOL    HW141056   0.788   6.162   2.738
13053SOL    HW241057   0.798   6.251   2.616
13054SOL     OW41058  11.200  10.488  14.394
13054SOL    HW141059  11.142  10.541  14.448
13054SOL    HW241060  11.158  10.402  14.390
13055SOL     OW41061   4.336   5.732   9.300
13055SOL    HW141062   4.374   5.770   9.220
13055SOL    HW241063   4.411   5.699   9.348
13056SOL     OW41064   7.158   8.616   0.094
13056SOL    HW141065   7.139   8.551   0.026
13056SOL    HW241066   7.251   8.607   0.111
13057SOL     OW41067   5.644  13.452  13.875
13057SOL    HW141068   5.696  13.387  13.922
13057SOL    HW241069   5.686  13.459  13.789
13058SOL     OW41070  10.386   5.434   6.780
13058SOL    HW141071  10.331   5.387   6.843
13058SOL    HW241072  10.380   5.382   6.700
13059SOL     OW41073   0.709   6.855  10.057
13059SOL    HW141074   0.631   6.802  10.078
13059SOL    HW241075   0.680   6.945  10.071
13060SOL     OW41076   0.542  10.017   2.070
13060SOL    HW141077   0.578  10.026   2.158
13060SOL    HW241078   0.448  10.018   2.083
13061SOL     OW41079  10.606   4.746   4.561
13061SOL    HW141080  10.686   4.718   4.517
13061SOL    HW241081  10.618   4.839   4.577
13062SOL     OW41082   1.032   5.376  12.748
13062SOL    HW141083   1.112   5.380  12.695
13062SOL    HW241084   0.985   5.300  12.713
13063SOL     OW41085   7.468   8.778   0.461
13063SOL    HW141086   7.429   8.816   0.540
13063SOL    HW241087   7.468   8.684   0.478
13064SOL     OW41088  11.215  14.354  11.943
13064SOL    HW141089  11.187  14.291  12.010
13064SOL    HW241090  11.249  14.299  11.872
13065SOL     OW41091   8.330   3.376   3.636
13065SOL    HW141092   8.390   3.444   3.603
13065SOL    HW241093   8.378   3.294   3.624
13066SOL     OW41094   1.344  11.752   6.281
13066SOL    HW141095   1.400  11.691   6.234
13066SOL    HW241096   1.298  11.801   6.212
13067SOL     OW41097  10.396   1.793   8.553
13067SOL    HW141098  10.334   1.866   8.555
13067SOL    HW241099  10.416   1.776   8.646
13068SOL     OW41100  12.223   7.648   4.868
13068SOL    HW141101  12.218   7.735   4.907
13068SOL    HW241102  12.308   7.614   4.896
13069SOL     OW41103   7.450   7.099   6.300
13069SOL    HW141104   7.520   7.037   6.321
13069SOL    HW241105   7.483   7.184   6.329
13070SOL     OW41106   7.173   5.436  14.637
13070SOL    HW141107   7.114   5.471  14.569
13070SOL    HW241108   7.197   5.513  14.689
13071SOL     OW41109   5.978   4.107   0.357
13071SOL    HW141110   5.974   4.011   0.355
13071SOL    HW241111   5.894   4.135   0.319
13072SOL     OW41112   3.523  13.895   2.612
13072SOL    HW141113   3.577  13.963   2.571
13072SOL    HW241114   3.574  13.815   2.602
13073SOL     OW41115  12.982   1.191   1.728
13073SOL    HW141116  13.073   1.174   1.755
13073SOL    HW241117  12.949   1.105   1.701
13074SOL     OW41118   4.893   4.084   8.059
13074SOL    HW141119   4.934   4.161   8.099
13074SOL    HW241120   4.822   4.062   8.119
13075SOL     OW41121   1.909  13.162  13.507
13075SOL    HW141122   1.963  13.186  13.583
13075SOL    HW241123   1.867  13.080  13.533
13076SOL     OW41124   6.897   6.771   3.558
13076SOL    HW141125   6.975   6.716   3.564
13076SOL    HW241126   6.823   6.710   3.560
13077SOL     OW41127  14.676  12.976  13.445
13077SOL    HW141128  14.672  13.010  13.534
13077SOL    HW241129  14.754  12.919  13.446
13078SOL     OW41130   5.332   1.252  12.201
13078SOL    HW141131   5.323   1.310  12.126
13078SOL    HW241132   5.304   1.166  12.168
13079SOL     OW41133   1.993   7.361   7.103
13079SOL    HW141134   2.021   7.449   7.081
13079SOL    HW241135   2.042   7.340   7.183
13080SOL     OW41136   6.158   9.590   5.652
13080SOL    HW141137   6.191   9.668   5.696
13080SOL    HW241138   6.237   9.541   5.627
13081SOL     OW41139  11.434   6.582   0.152
13081SOL    HW141140  11.403   6.493   0.166
13081SOL    HW241141  11.493   6.576   0.076
13082SOL     OW41142   5.615   5.073   4.291
13082SOL    HW141143   5.583   5.008   4.228
13082SOL    HW241144   5.536   5.103   4.337
13083SOL     OW41145   8.346  12.877  13.710
13083SOL    HW141146   8.441  12.867  13.707
13083SOL    HW241147   8.312  12.787  13.704
13084SOL     OW41148   2.828   0.788   8.752
13084SOL    HW141149   2.874   0.713   8.715
13084SOL    HW241150   2.839   0.857   8.686
13085SOL     OW41151   6.061  10.580   0.662
13085SOL    HW141152   6.124  10.612   0.726
13085SOL    HW241153   5.984  10.635   0.675
13086SOL     OW41154   1.932   8.894  12.127
13086SOL    HW141155   1.896   8.828  12.186
13086SOL    HW241156   1.928   8.976  12.176
13087SOL     OW41157   0.445  13.993   7.977
13087SOL    HW141158   0.501  13.968   7.903
13087SOL    HW241159   0.360  13.955   7.955
13088SOL     OW41160   1.369   5.468  14.740
13088SOL    HW141161   1.314   5.532  14.785
13088SOL    HW241162   1.349   5.479  14.647
13089SOL     OW41163   9.766   9.275   1.017
13089SOL    HW141164   9.859   9.292   1.036
13089SOL    HW241165   9.767   9.195   0.966
13090SOL     OW41166   0.932   8.987  11.808
13090SOL    HW141167   0.981   8.919  11.761
13090SOL    HW241168   0.938   9.064  11.751
13091SOL     OW41169   4.886   3.537   6.147
13091SOL    HW141170   4.893   3.482   6.225
13091SOL    HW241171   4.962   3.594   6.150
13092SOL     OW41172   1.742   2.458   5.812
13092SOL    HW141173   1.704   2.479   5.727
13092SOL    HW241174   1.672   2.477   5.875
13093SOL     OW41175  10.296   4.499   0.611
13093SOL    HW141176  10.308   4.522   0.703
13093SOL    HW241177  10.267   4.580   0.569
13094SOL     OW41178  13.688  12.052   0.021
13094SOL    HW141179  13.695  12.040   0.116
13094SOL    HW241180  13.764  12.006  14.861
13095SOL     OW41181   7.210  13.975  11.282
13095SOL    HW141182   7.148  13.990  11.211
13095SOL    HW241183   7.170  14.017  11.358
13096SOL     OW41184   4.158   2.040   1.500
13096SOL    HW141185   4.150   1.971   1.567
13096SOL    HW241186   4.078   2.033   1.449
13097SOL     OW41187   3.684  11.514   8.837
13097SOL    HW141188   3.703  11.486   8.927
13097SOL    HW241189   3.715  11.442   8.782
13098SOL     OW41190   6.593   8.899   7.266
13098SOL    HW141191   6.661   8.952   7.310
13098SOL    HW241192   6.580   8.943   7.182
13099SOL     OW41193   9.731  13.385   2.464
13099SOL    HW141194   9.789  13.342   2.527
13099SOL    HW241195   9.684  13.451   2.515
13100SOL     OW41196  10.433   4.924   5.233
13100SOL    HW141197  10.358   4.915   5.291
13100SOL    HW241198  10.410   4.997   5.175
13101SOL     OW41199   8.296   3.312  12.221
13101SOL    HW141200   8.383   3.276  12.238
13101SOL    HW241201   8.309   3.407  12.217
13102SOL     OW41202   0.281  10.254  10.412
13102SOL    HW141203   0.326  10.176  10.378
13102SOL    HW241204   0.257  10.303  10.333
13103SOL     OW41205   9.150  11.359  13.343
13103SOL    HW141206   9.215  11.346  13.412
13103SOL    HW241207   9.066  11.356  13.389
13104SOL     OW41208  10.376   4.160   3.208
13104SOL    HW141209  10.399   4.236   3.260
13104SOL    HW241210  10.312   4.112   3.262
13105SOL     OW41211   2.134   9.396   3.531
13105SOL    HW141212   2.095   9.426   3.614
13105SOL    HW241213   2.122   9.301   3.532
13106SOL     OW41214   9.115   9.293   9.123
13106SOL    HW141215   9.163   9.375   9.110
13106SOL    HW241216   9.104   9.257   9.036
13107SOL     OW41217   4.133  14.671   7.180
13107SOL    HW141218   4.100  14.691   7.092
13107SOL    HW241219   4.081  14.596   7.208
13108SOL     OW41220   2.046  12.385   2.671
13108SOL    HW141221   2.031  12.292   2.655
13108SOL    HW241222   2.003  12.430   2.598
13109SOL     OW41223   3.667  14.600   0.966
13109SOL    HW141224   3.662  14.625   1.059
13109SOL    HW241225   3.577  14.609   0.934
13110SOL     OW41226  11.701   0.149   2.125
13110SOL    HW141227  11.763   0.199   2.072
13110SOL    HW241228  11.654   0.215   2.176
13111SOL     OW41229   5.083   4.360   3.113
13111SOL    HW141230   5.021   4.291   3.090
13111SOL    HW241231   5.068   4.377   3.206
13112SOL     OW41232  11.352  14.604   5.992
13112SOL    HW141233  11.310  14.582   5.909
13112SOL    HW241234  11.408  14.678   5.971
13113SOL     OW41235   9.124  13.056  11.870
13113SOL    HW141236   9.074  13.012  11.801
13113SOL    HW241237   9.071  13.132  11.892
13114SOL     OW41238  12.367   9.620   5.168
13114SOL    HW141239  12.458   9.620   5.198
13114SOL    HW241240  12.354   9.706   5.130
13115SOL     OW41241  13.074  10.891   4.189
13115SOL    HW141242  13.028  10.952   4.247
13115SOL    HW241243  13.106  10.822   4.248
13116SOL     OW41244  10.458  14.222  14.140
13116SOL    HW141245  10.535  14.188  14.187
13116SOL    HW241246  10.479  14.313  14.123
13117SOL     OW41247   6.011   2.254   2.755
13117SOL    HW141248   5.976   2.251   2.666
13117SOL    HW241249   6.009   2.163   2.785
13118SOL     OW41250   7.350   5.863   0.202
13118SOL    HW141251   7.273   5.856   0.257
13118SOL    HW241252   7.338   5.945   0.154
13119SOL     OW41253   5.916   0.219   3.179
13119SOL    HW141254   5.870   0.237   3.097
13119SOL    HW241255   5.908   0.300   3.229
13120SOL     OW41256  11.205   2.723  14.566
13120SOL    HW141257  11.260   2.709  14.489
13120SOL    HW241258  11.124   2.676  14.546
13121SOL     OW41259   6.030   3.995   2.226
13121SOL    HW141260   6.120   4.025   2.240
13121SOL    HW241261   5.979   4.075   2.214
13122SOL     OW41262   1.029   2.225   0.264
13122SOL    HW141263   1.001   2.143   0.306
13122SOL    HW241264   0.961   2.244   0.200
13123SOL     OW41265  12.920   8.166   7.252
13123SOL    HW141266  12.930   8.076   7.222
13123SOL    HW241267  12.878   8.157   7.338
13124SOL     OW41268  14.395   3.638  13.843
13124SOL    HW141269  14.398   3.713  13.902
13124SOL    HW241270  14.401   3.675  13.755
13125SOL     OW41271   2.380   4.652   4.537
13125SOL    HW141272   2.353   4.573   4.490
13125SOL    HW241273   2.404   4.714   4.469
13126SOL     OW41274   7.360   6.695   8.768
13126SOL    HW141275   7.430   6.647   8.812
13126SOL    HW241276   7.395   6.714   8.681
13127SOL     OW41277  14.477  13.061  13.104
13127SOL    HW141278  14.439  13.015  13.179
13127SOL    HW241279  14.523  13.136  13.142
13128SOL     OW41280   2.672   2.709   6.564
13128SOL    HW141281   2.752   2.759   6.548
13128SOL    HW241282   2.601   2.767   6.534
13129SOL     OW41283   0.087   7.186   6.428
13129SOL    HW141284   0.169   7.137   6.420
13129SOL    HW241285   0.093   7.253   6.360
13130SOL     OW41286   5.292   2.960   9.806
13130SOL    HW141287   5.275   2.923   9.720
13130SOL    HW241288   5.323   3.049   9.789
13131SOL     OW41289  10.023  12.954  13.207
13131SOL    HW141290  10.093  12.920  13.263
13131SOL    HW241291  10.030  13.049  13.215
13132SOL     OW41292  10.521   6.356  14.778
13132SOL    HW141293  10.599   6.302  14.789
13132SOL    HW241294  10.548   6.443  14.806
13133SOL     OW41295  12.660  13.585  14.029
13133SOL    HW141296  12.737  13.554  14.076
13133SOL    HW241297  12.600  13.614  14.097
13134SOL     OW41298  10.857   5.159   4.191
13134SOL    HW141299  10.943   5.188   4.222
13134SOL    HW241300  10.864   5.161   4.096
13135SOL     OW41301   4.475   0.028  11.233
13135SOL    HW141302   4.459   0.010  11.140
13135SOL    HW241303   4.533   0.104  11.233
13136SOL     OW41304   8.926   6.232   7.506
13136SOL    HW141305   8.937   6.166   7.437
13136SOL    HW241306   8.974   6.197   7.581
13137SOL     OW41307  11.894   5.591  11.663
13137SOL    HW141308  11.976   5.600  11.614
13137SOL    HW241309  11.839   5.534  11.608
13138SOL     OW41310   0.276   6.136  10.607
13138SOL    HW141311   0.257   6.093  10.690
13138SOL    HW241312   0.367   6.113  10.588
13139SOL     OW41313  11.618  13.087   7.503
13139SOL    HW141314  11.644  13.091   7.595
13139SOL    HW241315  11.573  13.004   7.494
13140SOL     OW41316   3.236   3.666  14.278
13140SOL    HW141317   3.285   3.730  14.227
13140SOL    HW241318   3.145   3.679  14.251
13141SOL     OW41319   8.703  12.402  11.154
13141SOL    HW141320   8.702  12.361  11.240
13141SOL    HW241321   8.706  12.329  11.092
13142SOL     OW41322  12.334  12.998   0.710
13142SOL    HW141323  12.253  13.047   0.724
13142SOL    HW241324  12.309  12.925   0.653
13143SOL     OW41325   2.504  10.952   3.658
13143SOL    HW141326   2.494  10.865   3.620
13143SOL    HW241327   2.542  11.005   3.588
13144SOL     OW41328  13.822   8.272   5.318
13144SOL    HW141329  13.763   8.198   5.309
13144SOL    HW241330  13.909   8.234   5.310
13145SOL     OW41331  13.374   2.255   9.797
13145SOL    HW141332  13.286   2.230   9.826
13145SOL    HW241333  13.366   2.263   9.702
13146SOL     OW41334   0.818  13.970   9.206
13146SOL    HW141335   0.813  13.939   9.116
13146SOL    HW241336   0.793  14.063   9.201
13147SOL     OW41337  12.272   7.142   7.983
13147SOL    HW141338  12.365   7.159   7.966
13147SOL    HW241339  12.243   7.215   8.037
13148SOL     OW41340  11.106   6.854   0.322
13148SOL    HW141341  11.012   6.839   0.334
13148SOL    HW241342  11.112   6.904   0.241
13149SOL     OW41343  10.372   6.739   9.709
13149SOL    HW141344  10.292   6.718   9.661
13149SOL    HW241345  10.356   6.826   9.745
13150SOL     OW41346   1.598   6.166   2.390
13150SOL    HW141347   1.618   6.212   2.308
13150SOL    HW241348   1.502   6.159   2.391
13151SOL     OW41349   9.405  12.330   1.204
13151SOL    HW141350   9.442  12.398   1.260
13151SOL    HW241351   9.334  12.293   1.255
13152SOL     OW41352  12.729   3.392   2.530
13152SOL    HW141353  12.806   3.340   2.554
13152SOL    HW241354  12.721   3.456   2.600
13153SOL     OW41355  11.149   9.918   2.139
13153SOL    HW141356  11.188   9.973   2.207
13153SOL    HW241357  11.134   9.834   2.182
13154SOL     OW41358  11.713   4.268   9.340
13154SOL    HW141359  11.750   4.354   9.360
13154SOL    HW241360  11.768   4.235   9.269
13155SOL     OW41361  10.604   9.668  13.923
13155SOL    HW141362  10.632   9.608  13.992
13155SOL    HW241363  10.554   9.614  13.862
13156SOL     OW41364   5.104  11.440   1.598
13156SOL    HW141365   5.105  11.435   1.694
13156SOL    HW241366   5.162  11.512   1.577
13157SOL     OW41367   3.295   3.018   1.467
13157SOL    HW141368   3.351   3.081   1.422
13157SOL    HW241369   3.221   3.070   1.498
13158SOL     OW41370  10.562   3.057   2.134
13158SOL    HW141371  10.627   3.043   2.204
13158SOL    HW241372  10.601   3.125   2.079
13159SOL     OW41373   2.159   2.515  14.041
13159SOL    HW141374   2.118   2.550  14.120
13159SOL    HW241375   2.113   2.557  13.969
13160SOL     OW41376  14.105   4.437   0.717
13160SOL    HW141377  14.189   4.482   0.712
13160SOL    HW241378  14.104   4.396   0.804
13161SOL     OW41379   8.548   0.916  12.350
13161SOL    HW141380   8.608   0.919  12.276
13161SOL    HW241381   8.531   0.823  12.364
13162SOL     OW41382   8.588  12.387   7.371
13162SOL    HW141383   8.633  12.469   7.389
13162SOL    HW241384   8.614  12.329   7.443
13163SOL     OW41385  14.252  13.450   3.108
13163SOL    HW141386  14.246  13.523   3.170
13163SOL    HW241387  14.321  13.477   3.047
13164SOL     OW41388   1.337   4.288   4.770
13164SOL    HW141389   1.401   4.235   4.818
13164SOL    HW241390   1.344   4.376   4.809
13165SOL     OW41391  10.514  13.381   7.326
13165SOL    HW141392  10.601  13.415   7.306
13165SOL    HW241393  10.478  13.444   7.389
13166SOL     OW41394   4.871   8.490   0.218
13166SOL    HW141395   4.885   8.412   0.165
13166SOL    HW241396   4.951   8.541   0.207
13167SOL     OW41397   6.774   5.719  12.398
13167SOL    HW141398   6.762   5.723  12.493
13167SOL    HW241399   6.802   5.629  12.382
13168SOL     OW41400  14.124   0.586   9.047
13168SOL    HW141401  14.105   0.498   9.079
13168SOL    HW241402  14.067   0.596   8.970
13169SOL     OW41403  14.374  13.052   7.365
13169SOL    HW141404  14.292  13.061   7.413
13169SOL    HW241405  14.442  13.056   7.432
13170SOL     OW41406   6.669   2.427   0.937
13170SOL    HW141407   6.709   2.510   0.962
13170SOL    HW241408   6.644   2.387   1.021
13171SOL     OW41409  12.197  13.569   1.180
13171SOL    HW141410  12.259  13.594   1.248
13171SOL    HW241411  12.245  13.584   1.098
13172SOL     OW41412  11.121   1.649  10.148
13172SOL    HW141413  11.144   1.556  10.158
13172SOL    HW241414  11.178   1.680  10.078
13173SOL     OW41415  14.606  10.060  14.731
13173SOL    HW141416  14.515  10.060  14.758
13173SOL    HW241417  14.654  10.024  14.806
13174SOL     OW41418  11.112   1.291   1.419
13174SOL    HW141419  11.051   1.336   1.478
13174SOL    HW241420  11.057   1.261   1.347
13175SOL     OW41421   7.737  12.162   3.505
13175SOL    HW141422   7.774  12.074   3.503
13175SOL    HW241423   7.656  12.152   3.555
13176SOL     OW41424  12.569   4.039  11.124
13176SOL    HW141425  12.601   4.109  11.180
13176SOL    HW241426  12.603   4.060  11.037
13177SOL     OW41427   6.085   2.798   9.989
13177SOL    HW141428   6.038   2.791   9.906
13177SOL    HW241429   6.037   2.865  10.038
13178SOL     OW41430  13.931   8.750   3.579
13178SOL    HW141431  13.866   8.816   3.558
13178SOL    HW241432  13.936   8.751   3.675
13179SOL     OW41433   7.607   5.610  13.720
13179SOL    HW141434   7.692   5.634  13.683
13179SOL    HW241435   7.543   5.637  13.653
13180SOL     OW41436   8.086   6.364   3.983
13180SOL    HW141437   8.014   6.384   3.923
13180SOL    HW241438   8.162   6.409   3.946
13181SOL     OW41439   4.093  11.832   4.691
13181SOL    HW141440   4.084  11.858   4.599
13181SOL    HW241441   4.125  11.742   4.687
13182SOL     OW41442   4.977  12.561   4.932
13182SOL    HW141443   4.899  12.586   4.981
13182SOL    HW241444   5.018  12.492   4.984
13183SOL     OW41445   9.033   9.775  12.236
13183SOL    HW141446   9.042   9.732  12.151
13183SOL    HW241447   9.015   9.703  12.297
13184SOL     OW41448  13.370  12.756   2.456
13184SOL    HW141449  13.411  12.681   2.499
13184SOL    HW241450  13.428  12.829   2.474
13185SOL     OW41451   3.042   0.636   7.014
13185SOL    HW141452   3.072   0.595   7.095
13185SOL    HW241453   3.084   0.723   7.014
13186SOL     OW41454  12.184   5.117  13.159
13186SOL    HW141455  12.089   5.125  13.169
13186SOL    HW241456  12.198   5.128  13.065
13187SOL     OW41457  10.160  11.064   1.251
13187SOL    HW141458  10.171  11.019   1.334
13187SOL    HW241459  10.067  11.087   1.248
13188SOL     OW41460   7.266  11.656   6.915
13188SOL    HW141461   7.209  11.732   6.926
13188SOL    HW241462   7.345  11.690   6.873
13189SOL     OW41463   2.864   8.749   5.873
13189SOL    HW141464   2.899   8.777   5.788
13189SOL    HW241465   2.786   8.699   5.851
13190SOL     OW41466  12.927   9.262  11.765
13190SOL    HW141467  12.958   9.225  11.847
13190SOL    HW241468  12.887   9.345  11.789
13191SOL     OW41469  11.570   3.083   4.939
13191SOL    HW141470  11.502   3.016   4.941
13191SOL    HW241471  11.622   3.062   4.860
13192SOL     OW41472   4.992   1.562   0.779
13192SOL    HW141473   5.000   1.627   0.709
13192SOL    HW241474   5.081   1.554   0.815
13193SOL     OW41475   0.548   0.663   1.394
13193SOL    HW141476   0.508   0.662   1.480
13193SOL    HW241477   0.592   0.748   1.389
13194SOL     OW41478   8.325   7.045   8.575
13194SOL    HW141479   8.378   7.010   8.503
13194SOL    HW241480   8.368   7.014   8.654
13195SOL     OW41481   3.695   6.120   4.710
13195SOL    HW141482   3.735   6.197   4.671
13195SOL    HW241483   3.746   6.047   4.677
13196SOL     OW41484   7.930  10.554   6.980
13196SOL    HW141485   7.855  10.607   7.006
13196SOL    HW241486   8.001  10.617   6.970
13197SOL     OW41487  13.453  10.312   9.438
13197SOL    HW141488  13.419  10.236   9.391
13197SOL    HW241489  13.415  10.306   9.525
13198SOL     OW41490   6.738   0.620   6.551
13198SOL    HW141491   6.747   0.704   6.507
13198SOL    HW241492   6.795   0.560   6.502
13199SOL     OW41493   4.210  14.350  12.523
13199SOL    HW141494   4.161  14.416  12.474
13199SOL    HW241495   4.143  14.294  12.562
13200SOL     OW41496   7.077  10.385   6.584
13200SOL    HW141497   7.142  10.336   6.534
13200SOL    HW241498   7.047  10.323   6.651
13201SOL     OW41499  10.674  10.175   9.267
13201SOL    HW141500  10.764  10.168   9.234
13201SOL    HW241501  10.685  10.193   9.361
13202SOL     OW41502   4.311   3.330   6.804
13202SOL    HW141503   4.233   3.276   6.802
13202SOL    HW241504   4.279   3.419   6.817
13203SOL     OW41505  12.549   6.842  10.584
13203SOL    HW141506  12.592   6.818  10.502
13203SOL    HW241507  12.469   6.790  10.584
13204SOL     OW41508   9.651   6.845   5.918
13204SOL    HW141509   9.635   6.856   5.824
13204SOL    HW241510   9.726   6.785   5.922
13205SOL     OW41511   9.787   8.743  10.842
13205SOL    HW141512   9.779   8.798  10.919
13205SOL    HW241513   9.775   8.803  10.768
13206SOL     OW41514  12.412   7.152  12.724
13206SOL    HW141515  12.402   7.058  12.741
13206SOL    HW241516  12.360   7.195  12.792
13207SOL     OW41517   1.234   4.391   3.334
13207SOL    HW141518   1.208   4.343   3.412
13207SOL    HW241519   1.151   4.421   3.296
13208SOL     OW41520  12.002   6.621  11.001
13208SOL    HW141521  11.907   6.610  10.999
13208SOL    HW241522  12.017   6.694  11.061
13209SOL     OW41523   2.382   8.289   2.075
13209SOL    HW141524   2.386   8.194   2.066
13209SOL    HW241525   2.303   8.314   2.028
13210SOL     OW41526   0.444   1.632   2.947
13210SOL    HW141527   0.522   1.661   2.900
13210SOL    HW241528   0.381   1.612   2.878
13211SOL     OW41529   4.570   3.836   4.163
13211SOL    HW141530   4.629   3.761   4.175
13211SOL    HW241531   4.504   3.804   4.102
13212SOL     OW41532  10.837  12.818   5.360
13212SOL    HW141533  10.918  12.777   5.390
13212SOL    HW241534  10.864  12.883   5.296
13213SOL     OW41535   4.258  13.751  10.435
13213SOL    HW141536   4.298  13.815  10.376
13213SOL    HW241537   4.266  13.791  10.522
13214SOL     OW41538   5.851   6.412  13.717
13214SOL    HW141539   5.798   6.392  13.640
13214SOL    HW241540   5.940   6.386  13.693
13215SOL     OW41541  11.213   3.095   7.483
13215SOL    HW141542  11.144   3.160   7.498
13215SOL    HW241543  11.281   3.143   7.436
13216SOL     OW41544  12.191   6.552   2.344
13216SOL    HW141545  12.101   6.520   2.341
13216SOL    HW241546  12.193   6.611   2.420
13217SOL     OW41547   5.196   6.394   9.943
13217SOL    HW141548   5.206   6.330   9.872
13217SOL    HW241549   5.109   6.432   9.930
13218SOL     OW41550  11.379  14.513  12.480
13218SOL    HW141551  11.339  14.566  12.549
13218SOL    HW241552  11.376  14.423  12.514
13219SOL     OW41553   3.285  10.922  12.130
13219SOL    HW141554   3.345  10.854  12.160
13219SOL    HW241555   3.227  10.936  12.205
13220SOL     OW41556   3.653   8.995   1.281
13220SOL    HW141557   3.646   9.066   1.345
13220SOL    HW241558   3.734   8.951   1.303
13221SOL     OW41559  13.036  10.348   3.768
13221SOL    HW141560  13.126  10.377   3.782
13221SOL    HW241561  13.011  10.386   3.684
13222SOL     OW41562   0.011   0.837   1.033
13222SOL    HW141563  14.811   0.835   1.093
13222SOL    HW241564  14.856   0.889   0.959
13223SOL     OW41565   5.261   5.923  14.047
13223SOL    HW141566   5.329   5.889  14.106
13223SOL    HW241567   5.189   5.948  14.105
13224SOL     OW41568   8.192   4.295   8.664
13224SOL    HW141569   8.208   4.207   8.700
13224SOL    HW241570   8.267   4.346   8.693
13225SOL     OW41571   4.410   5.574   5.559
13225SOL    HW141572   4.330   5.607   5.517
13225SOL    HW241573   4.436   5.500   5.505
13226SOL     OW41574   9.566   7.949   2.460
13226SOL    HW141575   9.499   7.971   2.396
13226SOL    HW241576   9.522   7.955   2.544
13227SOL     OW41577   8.865   5.269  14.257
13227SOL    HW141578   8.859   5.365  14.259
13227SOL    HW241579   8.824   5.244  14.175
13228SOL     OW41580   3.132   4.416   1.107
13228SOL    HW141581   3.166   4.498   1.142
13228SOL    HW241582   3.199   4.389   1.044
13229SOL     OW41583  10.608   9.057  11.373
13229SOL    HW141584  10.617   9.121  11.443
13229SOL    HW241585  10.681   9.075  11.314
13230SOL     OW41586   3.346   6.951   6.366
13230SOL    HW141587   3.371   6.927   6.455
13230SOL    HW241588   3.393   7.032   6.348
13231SOL     OW41589   2.548   0.736   8.550
13231SOL    HW141590   2.588   0.655   8.581
13231SOL    HW241591   2.600   0.805   8.591
13232SOL     OW41592   9.503   1.849  14.541
13232SOL    HW141593   9.501   1.879  14.632
13232SOL    HW241594   9.471   1.923  14.490
13233SOL     OW41595   4.207   9.424   0.970
13233SOL    HW141596   4.114   9.405   0.964
13233SOL    HW241597   4.220   9.498   0.910
13234SOL     OW41598   3.265   7.678   0.691
13234SOL    HW141599   3.255   7.583   0.689
13234SOL    HW241600   3.341   7.693   0.748
13235SOL     OW41601  11.268   5.508  14.792
13235SOL    HW141602  11.350   5.463  14.815
13235SOL    HW241603  11.237   5.462  14.714
13236SOL     OW41604  14.863  13.999  10.997
13236SOL    HW141605   0.034  13.947  11.063
13236SOL    HW241606  14.775  13.961  10.995
13237SOL     OW41607   6.635   3.512   5.854
13237SOL    HW141608   6.545   3.495   5.882
13237SOL    HW241609   6.682   3.432   5.877
13238SOL     OW41610   8.006   9.447   2.710
13238SOL    HW141611   7.938   9.382   2.727
13238SOL    HW241612   7.961   9.518   2.664
13239SOL     OW41613  12.588  14.553   2.195
13239SOL    HW141614  12.600  14.460   2.176
13239SOL    HW241615  12.494  14.565   2.198
13240SOL     OW41616   0.055   7.954   1.525
13240SOL    HW141617   0.129   7.907   1.563
13240SOL    HW241618   0.092   7.997   1.448
13241SOL     OW41619   1.837   1.709   6.232
13241SOL    HW141620   1.799   1.752   6.155
13241SOL    HW241621   1.858   1.781   6.292
13242SOL     OW41622   9.462   4.789   3.803
13242SOL    HW141623   9.473   4.712   3.747
13242SOL    HW241624   9.549   4.804   3.841
13243SOL     OW41625   7.254   7.035   2.274
13243SOL    HW141626   7.188   7.008   2.337
13243SOL    HW241627   7.250   7.131   2.274
13244SOL     OW41628   4.992  11.510  10.979
13244SOL    HW141629   5.039  11.507  11.063
13244SOL    HW241630   4.909  11.467  10.997
13245SOL     OW41631  11.238  12.675   6.687
13245SOL    HW141632  11.231  12.771   6.687
13245SOL    HW241633  11.148  12.644   6.679
13246SOL     OW41634   8.367   7.273   5.424
13246SOL    HW141635   8.317   7.208   5.374
13246SOL    HW241636   8.455   7.268   5.387
13247SOL     OW41637   9.835   2.686   9.539
13247SOL    HW141638   9.870   2.773   9.520
13247SOL    HW241639   9.883   2.656   9.616
13248SOL     OW41640  11.896   0.071  11.165
13248SOL    HW141641  11.883   0.163  11.191
13248SOL    HW241642  11.981   0.070  11.122
13249SOL     OW41643   9.401  13.527   5.860
13249SOL    HW141644   9.351  13.515   5.780
13249SOL    HW241645   9.478  13.577   5.833
13250SOL     OW41646   8.567   1.761   8.534
13250SOL    HW141647   8.549   1.799   8.620
13250SOL    HW241648   8.601   1.674   8.554
13251SOL     OW41649   0.361  10.209  12.765
13251SOL    HW141650   0.422  10.280  12.748
13251SOL    HW241651   0.285  10.252  12.804
13252SOL     OW41652   4.664   8.677  12.354
13252SOL    HW141653   4.738   8.634  12.312
13252SOL    HW241654   4.655   8.761  12.308
13253SOL     OW41655  10.199  12.656   8.931
13253SOL    HW141656  10.106  12.663   8.952
13253SOL    HW241657  10.202  12.643   8.836
13254SOL     OW41658  10.647  13.792   1.965
13254SOL    HW141659  10.687  13.831   1.888
13254SOL    HW241660  10.592  13.721   1.931
13255SOL     OW41661   7.928  13.772  10.789
13255SOL    HW141662   7.917  13.689  10.744
13255SOL    HW241663   7.854  13.778  10.849
13256SOL     OW41664  11.244  13.779   0.868
13256SOL    HW141665  11.207  13.867   0.861
13256SOL    HW241666  11.192  13.737   0.936
13257SOL     OW41667   6.380  12.273  14.223
13257SOL    HW141668   6.399  12.353  14.174
13257SOL    HW241669   6.286  12.277  14.240
13258SOL     OW41670   0.571   3.189   7.077
13258SOL    HW141671   0.650   3.137   7.062
13258SOL    HW241672   0.603   3.273   7.110
13259SOL     OW41673   0.291   4.694   6.958
13259SOL    HW141674   0.321   4.647   7.035
13259SOL    HW241675   0.367   4.696   6.900
13260SOL     OW41676   3.551   9.082  10.117
13260SOL    HW141677   3.481   9.140  10.147
13260SOL    HW241678   3.523   8.994  10.144
13261SOL     OW41679  10.978   6.387  11.578
13261SOL    HW141680  11.072   6.371  11.573
13261SOL    HW241681  10.970   6.483  11.580
13262SOL     OW41682  12.118  14.286  11.638
13262SOL    HW141683  12.123  14.351  11.568
13262SOL    HW241684  12.025  14.281  11.659
13263SOL     OW41685  13.931   2.251   1.640
13263SOL    HW141686  13.981   2.222   1.716
13263SOL    HW241687  13.940   2.180   1.577
13264SOL     OW41688  14.345   4.911   2.465
13264SOL    HW141689  14.258   4.936   2.435
13264SOL    HW241690  14.339   4.817   2.480
13265SOL     OW41691   4.574  13.901   2.660
13265SOL    HW141692   4.519  13.954   2.602
13265SOL    HW241693   4.534  13.814   2.657
13266SOL     OW41694  10.033   9.927   7.144
13266SOL    HW141695   9.940   9.926   7.168
13266SOL    HW241696  10.055  10.019   7.136
13267SOL     OW41697   2.297   5.391   9.784
13267SOL    HW141698   2.259   5.323   9.839
13267SOL    HW241699   2.323   5.346   9.704
13268SOL     OW41700  11.582  10.378   2.732
13268SOL    HW141701  11.657  10.438   2.730
13268SOL    HW241702  11.522  10.412   2.665
13269SOL     OW41703   9.136   5.949   2.395
13269SOL    HW141704   9.188   6.030   2.393
13269SOL    HW241705   9.196   5.883   2.431
13270SOL     OW41706   7.731  11.159   2.141
13270SOL    HW141707   7.761  11.108   2.216
13270SOL    HW241708   7.809  11.171   2.086
13271SOL     OW41709   7.465   5.460   2.283
13271SOL    HW141710   7.474   5.507   2.200
13271SOL    HW241711   7.415   5.382   2.261
13272SOL     OW41712  13.426   5.618   2.501
13272SOL    HW141713  13.375   5.541   2.475
13272SOL    HW241714  13.360   5.687   2.511
13273SOL     OW41715   7.851   5.437   5.067
13273SOL    HW141716   7.850   5.528   5.098
13273SOL    HW241717   7.944   5.416   5.059
13274SOL     OW41718   5.873   2.035   0.029
13274SOL    HW141719   5.930   1.959   0.046
13274SOL    HW241720   5.812   2.004  14.838
13275SOL     OW41721   9.343   5.352   3.381
13275SOL    HW141722   9.260   5.352   3.428
13275SOL    HW241723   9.390   5.275   3.413
13276SOL     OW41724   9.283  14.102   8.375
13276SOL    HW141725   9.326  14.142   8.450
13276SOL    HW241726   9.323  14.144   8.299
13277SOL     OW41727  12.631  12.762   0.029
13277SOL    HW141728  12.708  12.815   0.047
13277SOL    HW241729  12.624  12.704   0.106
13278SOL     OW41730   1.947   0.836   4.736
13278SOL    HW141731   1.986   0.918   4.767
13278SOL    HW241732   1.901   0.860   4.655
13279SOL     OW41733  13.289   2.881   9.903
13279SOL    HW141734  13.250   2.891   9.816
13279SOL    HW241735  13.216   2.857   9.959
13280SOL     OW41736  10.509   9.280   4.407
13280SOL    HW141737  10.528   9.373   4.393
13280SOL    HW241738  10.576   9.234   4.358
13281SOL     OW41739   3.580   1.208   9.764
13281SOL    HW141740   3.570   1.148   9.838
13281SOL    HW241741   3.539   1.162   9.691
13282SOL     OW41742  13.629  13.070   1.448
13282SOL    HW141743  13.546  13.029   1.473
13282SOL    HW241744  13.681  13.069   1.528
13283SOL     OW41745  12.392  12.215   4.091
13283SOL    HW141746  12.435  12.149   4.037
13283SOL    HW241747  12.308  12.176   4.114
13284SOL     OW41748   8.647  10.417  10.003
13284SOL    HW141749   8.638  10.510   9.982
13284SOL    HW241750   8.735  10.410  10.041
13285SOL     OW41751   6.072   3.037   8.370
13285SOL    HW141752   6.156   3.001   8.398
13285SOL    HW241753   6.046   3.097   8.440
13286SOL     OW41754   3.930  14.427   4.094
13286SOL    HW141755   3.988  14.452   4.022
13286SOL    HW241756   3.989  14.407   4.167
13287SOL     OW41757   1.183  12.008   2.982
13287SOL    HW141758   1.215  11.926   3.020
13287SOL    HW241759   1.261  12.050   2.947
13288SOL     OW41760   1.160   5.816   2.662
13288SOL    HW141761   1.176   5.911   2.667
13288SOL    HW241762   1.094   5.800   2.729
13289SOL     OW41763   1.767  13.506   5.027
13289SOL    HW141764   1.697  13.571   5.037
13289SOL    HW241765   1.765  13.482   4.935
13290SOL     OW41766  11.627  12.433   9.390
13290SOL    HW141767  11.707  12.380   9.396
13290SOL    HW241768  11.603  12.449   9.481
13291SOL     OW41769   3.683   3.079  10.507
13291SOL    HW141770   3.593   3.101  10.534
13291SOL    HW241771   3.733   3.080  10.588
13292SOL     OW41772   2.556   4.303  13.897
13292SOL    HW141773   2.543   4.356  13.975
13292SOL    HW241774   2.482   4.324  13.840
13293SOL     OW41775   6.145   6.685   1.770
13293SOL    HW141776   6.226   6.644   1.738
13293SOL    HW241777   6.075   6.630   1.735
13294SOL     OW41778  13.815   3.508   5.262
13294SOL    HW141779  13.782   3.594   5.286
13294SOL    HW241780  13.847   3.519   5.172
13295SOL     OW41781   7.273   7.614   2.973
13295SOL    HW141782   7.230   7.670   3.038
13295SOL    HW241783   7.201   7.580   2.920
13296SOL     OW41784   5.919   1.855   7.327
13296SOL    HW141785   5.901   1.913   7.253
13296SOL    HW241786   5.833   1.837   7.365
13297SOL     OW41787   4.525   4.191  13.979
13297SOL    HW141788   4.444   4.241  13.971
13297SOL    HW241789   4.595   4.256  13.974
13298SOL     OW41790  10.082  10.291   1.829
13298SOL    HW141791  10.116  10.201   1.825
13298SOL    HW241792  10.060  10.304   1.922
13299SOL     OW41793  10.351   9.432   6.007
13299SOL    HW141794  10.407   9.491   5.957
13299SOL    HW241795  10.266   9.436   5.963
13300SOL     OW41796  12.538   4.742  14.105
13300SOL    HW141797  12.600   4.670  14.102
13300SOL    HW241798  12.452   4.700  14.114
13301SOL     OW41799   0.102   2.696   4.909
13301SOL    HW141800   0.064   2.687   4.822
13301SOL    HW241801   0.140   2.784   4.909
13302SOL     OW41802   6.026   3.135  10.435
13302SOL    HW141803   6.042   3.123  10.529
13302SOL    HW241804   6.036   3.229  10.421
13303SOL     OW41805   9.125  12.606   9.870
13303SOL    HW141806   9.220  12.603   9.860
13303SOL    HW241807   9.106  12.546   9.942
13304SOL     OW41808   2.263  11.500   8.096
13304SOL    HW141809   2.332  11.553   8.135
13304SOL    HW241810   2.197  11.563   8.067
13305SOL     OW41811  12.616  10.471   7.836
13305SOL    HW141812  12.572  10.447   7.754
13305SOL    HW241813  12.590  10.561   7.852
13306SOL     OW41814  13.324   9.317   0.430
13306SOL    HW141815  13.415   9.334   0.455
13306SOL    HW241816  13.272   9.362   0.498
13307SOL     OW41817  10.813  13.013   3.131
13307SOL    HW141818  10.846  12.973   3.212
13307SOL    HW241819  10.728  12.971   3.117
13308SOL     OW41820   1.477  10.430  11.815
13308SOL    HW141821   1.475  10.434  11.719
13308SOL    HW241822   1.544  10.494  11.840
13309SOL     OW41823   7.216   3.763  10.679
13309SOL    HW141824   7.240   3.802  10.595
13309SOL    HW241825   7.232   3.669  10.667
13310SOL     OW41826   5.588   1.097   7.045
13310SOL    HW141827   5.535   1.141   7.112
13310SOL    HW241828   5.679   1.116   7.070
13311SOL     OW41829  12.241   6.636   9.376
13311SOL    HW141830  12.240   6.717   9.326
13311SOL    HW241831  12.149   6.611   9.383
13312SOL     OW41832   9.090  11.589   8.392
13312SOL    HW141833   9.141  11.667   8.372
13312SOL    HW241834   9.044  11.610   8.473
13313SOL     OW41835   9.545   8.185   9.581
13313SOL    HW141836   9.506   8.098   9.582
13313SOL    HW241837   9.490   8.237   9.640
13314SOL     OW41838   9.751   2.573  13.572
13314SOL    HW141839   9.807   2.498  13.591
13314SOL    HW241840   9.796   2.648  13.613
13315SOL     OW41841   5.466   4.805   2.566
13315SOL    HW141842   5.487   4.840   2.652
13315SOL    HW241843   5.421   4.877   2.521
13316SOL     OW41844   3.594   3.991   3.307
13316SOL    HW141845   3.525   4.055   3.324
13316SOL    HW241846   3.656   4.037   3.251
13317SOL     OW41847   9.007  11.955   5.607
13317SOL    HW141848   8.927  11.949   5.659
13317SOL    HW241849   8.999  11.884   5.544
13318SOL     OW41850  13.494   2.049   4.592
13318SOL    HW141851  13.540   2.001   4.523
13318SOL    HW241852  13.456   2.124   4.547
13319SOL     OW41853   0.128  11.442   6.369
13319SOL    HW141854   0.160  11.399   6.448
13319SOL    HW241855   0.078  11.375   6.323
13320SOL     OW41856   5.536  12.223   9.401
13320SOL    HW141857   5.550  12.134   9.432
13320SOL    HW241858   5.499  12.212   9.313
13321SOL     OW41859   4.022   9.918   4.945
13321SOL    HW141860   4.034  10.013   4.953
13321SOL    HW241861   4.018   9.887   5.035
13322SOL     OW41862   3.206   7.784  10.526
13322SOL    HW141863   3.301   7.771  10.523
13322SOL    HW241864   3.174   7.711  10.579
13323SOL     OW41865   2.406   7.263   4.604
13323SOL    HW141866   2.314   7.289   4.611
13323SOL    HW241867   2.408   7.201   4.532
13324SOL     OW41868   1.848   7.641   2.934
13324SOL    HW141869   1.870   7.649   2.841
13324SOL    HW241870   1.925   7.675   2.980
13325SOL     OW41871  13.924   6.544   3.287
13325SOL    HW141872  14.007   6.582   3.259
13325SOL    HW241873  13.948   6.489   3.362
13326SOL     OW41874   1.285   6.029  13.822
13326SOL    HW141875   1.306   5.970  13.750
13326SOL    HW241876   1.190   6.022  13.831
13327SOL     OW41877  12.660  14.690   7.729
13327SOL    HW141878  12.588  14.723   7.782
13327SOL    HW241879  12.684  14.764   7.672
13328SOL     OW41880   8.749   9.730   1.300
13328SOL    HW141881   8.750   9.640   1.268
13328SOL    HW241882   8.662   9.762   1.277
13329SOL     OW41883   3.141  10.777  13.790
13329SOL    HW141884   3.070  10.825  13.832
13329SOL    HW241885   3.199  10.845  13.755
13330SOL     OW41886  14.381  11.220   3.204
13330SOL    HW141887  14.376  11.260   3.118
13330SOL    HW241888  14.433  11.140   3.191
13331SOL     OW41889  11.128   6.893   7.583
13331SOL    HW141890  11.040   6.870   7.614
13331SOL    HW241891  11.156   6.817   7.533
13332SOL     OW41892   5.862   7.200   4.437
13332SOL    HW141893   5.844   7.293   4.444
13332SOL    HW241894   5.848   7.165   4.525
13333SOL     OW41895   5.095   2.617   1.188
13333SOL    HW141896   5.114   2.528   1.220
13333SOL    HW241897   5.032   2.604   1.117
13334SOL     OW41898  13.135   6.530   0.085
13334SOL    HW141899  13.070   6.578   0.136
13334SOL    HW241900  13.190   6.597   0.046
13335SOL     OW41901   3.318  12.296   7.432
13335SOL    HW141902   3.354  12.347   7.505
13335SOL    HW241903   3.366  12.213   7.435
13336SOL     OW41904   7.231  14.664  11.128
13336SOL    HW141905   7.182  14.590  11.164
13336SOL    HW241906   7.212  14.662  11.034
13337SOL     OW41907   0.725   0.610   8.655
13337SOL    HW141908   0.632   0.628   8.672
13337SOL    HW241909   0.735   0.516   8.670
13338SOL     OW41910   9.964   3.265  14.566
13338SOL    HW141911   9.995   3.310  14.487
13338SOL    HW241912   9.875   3.298  14.578
13339SOL     OW41913   5.566  12.429   2.284
13339SOL    HW141914   5.565  12.462   2.374
13339SOL    HW241915   5.659  12.431   2.259
13340SOL     OW41916  11.537  13.436   8.765
13340SOL    HW141917  11.446  13.412   8.748
13340SOL    HW241918  11.554  13.510   8.706
13341SOL     OW41919   4.448  12.856  14.530
13341SOL    HW141920   4.531  12.835  14.573
13341SOL    HW241921   4.438  12.788  14.464
13342SOL     OW41922  14.224  12.044   5.905
13342SOL    HW141923  14.268  12.119   5.864
13342SOL    HW241924  14.191  11.992   5.831
13343SOL     OW41925   8.753   3.988   3.864
13343SOL    HW141926   8.796   3.923   3.919
13343SOL    HW241927   8.692   4.033   3.922
13344SOL     OW41928   3.505  14.594   8.547
13344SOL    HW141929   3.446  14.544   8.604
13344SOL    HW241930   3.551  14.653   8.607
13345SOL     OW41931  11.306  12.249   9.923
13345SOL    HW141932  11.371  12.317   9.938
13345SOL    HW241933  11.222  12.294   9.925
13346SOL     OW41934   1.183  12.249   1.228
13346SOL    HW141935   1.147  12.203   1.304
13346SOL    HW241936   1.218  12.330   1.263
13347SOL     OW41937   9.303  13.479   5.576
13347SOL    HW141938   9.359  13.520   5.511
13347SOL    HW241939   9.326  13.386   5.572
13348SOL     OW41940   5.061  14.341   2.160
13348SOL    HW141941   5.041  14.268   2.100
13348SOL    HW241942   5.019  14.417   2.119
13349SOL     OW41943   5.455   6.472   7.773
13349SOL    HW141944   5.528   6.529   7.749
13349SOL    HW241945   5.489   6.383   7.760
13350SOL     OW41946   5.913   9.262   9.365
13350SOL    HW141947   5.860   9.285   9.289
13350SOL    HW241948   5.877   9.179   9.396
13351SOL     OW41949   1.360   2.791   6.758
13351SOL    HW141950   1.443   2.767   6.717
13351SOL    HW241951   1.353   2.733   6.834
13352SOL     OW41952   7.033  13.614   1.702
13352SOL    HW141953   7.105  13.652   1.751
13352SOL    HW241954   7.072  13.583   1.620
13353SOL     OW41955   3.148  13.801   7.123
13353SOL    HW141956   3.114  13.850   7.197
13353SOL    HW241957   3.141  13.709   7.149
13354SOL     OW41958   0.021   8.862   1.258
13354SOL    HW141959  14.857   8.848   1.172
13354SOL    HW241960  14.826   8.900   1.311
13355SOL     OW41961   9.550   8.042  10.162
13355SOL    HW141962   9.474   7.993  10.129
13355SOL    HW241963   9.584   7.988  10.233
13356SOL     OW41964   5.310   1.127   3.708
13356SOL    HW141965   5.267   1.076   3.777
13356SOL    HW241966   5.331   1.210   3.750
13357SOL     OW41967   8.362  11.622  14.827
13357SOL    HW141968   8.295  11.581  14.772
13357SOL    HW241969   8.343  11.716  14.823
13358SOL     OW41970   9.882   4.159  14.321
13358SOL    HW141971   9.793   4.128  14.340
13358SOL    HW241972   9.880   4.252  14.340
13359SOL     OW41973  11.146   4.947  12.298
13359SOL    HW141974  11.132   4.910  12.211
13359SOL    HW241975  11.135   4.873  12.358
13360SOL     OW41976   5.887   4.382  10.643
13360SOL    HW141977   5.916   4.292  10.660
13360SOL    HW241978   5.929   4.434  10.712
13361SOL     OW41979  14.075   7.949   8.619
13361SOL    HW141980  14.075   8.043   8.598
13361SOL    HW241981  14.157   7.916   8.581
13362SOL     OW41982  13.940  11.972  11.829
13362SOL    HW141983  14.013  12.033  11.825
13362SOL    HW241984  13.899  11.989  11.914
13363SOL     OW41985   5.780  14.288   0.644
13363SOL    HW141986   5.705  14.235   0.617
13363SOL    HW241987   5.765  14.304   0.737
13364SOL     OW41988   8.106   1.260   9.468
13364SOL    HW141989   8.085   1.172   9.436
13364SOL    HW241990   8.175   1.245   9.533
13365SOL     OW41991  13.024  11.009   4.432
13365SOL    HW141992  13.112  10.977   4.451
13365SOL    HW241993  12.975  10.991   4.512
13366SOL     OW41994  11.387   1.304  14.737
13366SOL    HW141995  11.482   1.299  14.721
13366SOL    HW241996  11.373   1.394  14.765
13367SOL     OW41997   7.641  11.349   3.511
13367SOL    HW141998   7.560  11.389   3.544
13367SOL    HW241999   7.711  11.399   3.554
13368SOL     OW42000  14.383   1.304  11.791
13368SOL    HW142001  14.353   1.274  11.877
13368SOL    HW242002  14.306   1.348  11.753
13369SOL     OW42003   1.115   8.963  11.192
13369SOL    HW142004   1.155   9.045  11.221
13369SOL    HW242005   1.022   8.982  11.185
13370SOL     OW42006   1.428   7.478   8.386
13370SOL    HW142007   1.495   7.460   8.452
13370SOL    HW242008   1.463   7.551   8.335
13371SOL     OW42009   9.839   7.677  13.463
13371SOL    HW142010   9.757   7.641  13.497
13371SOL    HW242011   9.907   7.623  13.503
13372SOL     OW42012   4.979  13.502   9.032
13372SOL    HW142013   4.900  13.550   9.008
13372SOL    HW242014   5.036  13.509   8.956
13373SOL     OW42015  12.384   3.650   3.377
13373SOL    HW142016  12.309   3.640   3.318
13373SOL    HW242017  12.351   3.621   3.462
13374SOL     OW42018  10.638  14.626   1.379
13374SOL    HW142019  10.573  14.672   1.432
13374SOL    HW242020  10.632  14.535   1.407
13375SOL     OW42021  13.086  11.380   6.583
13375SOL    HW142022  13.096  11.460   6.531
13375SOL    HW242023  13.000  11.388   6.623
13376SOL     OW42024   1.707  10.810  10.380
13376SOL    HW142025   1.771  10.747  10.413
13376SOL    HW242026   1.718  10.809  10.285
13377SOL     OW42027  10.181   9.237  10.349
13377SOL    HW142028  10.133   9.319  10.365
13377SOL    HW242029  10.142   9.175  10.411
13378SOL     OW42030  14.285   0.246  12.723
13378SOL    HW142031  14.324   0.272  12.639
13378SOL    HW242032  14.205   0.299  12.729
13379SOL     OW42033   9.348   8.915   2.207
13379SOL    HW142034   9.399   8.847   2.251
13379SOL    HW242035   9.268   8.922   2.259
13380SOL     OW42036  14.691   3.684   1.471
13380SOL    HW142037  14.775   3.689   1.515
13380SOL    HW242038  14.632   3.737   1.524
13381SOL     OW42039   2.532  12.701  11.841
13381SOL    HW142040   2.516  12.614  11.876
13381SOL    HW242041   2.550  12.756  11.917
13382SOL     OW42042   7.320   4.040  13.998
13382SOL    HW142043   7.404   4.052  13.954
13382SOL    HW242044   7.273   3.977  13.942
13383SOL     OW42045   8.709  13.246  11.947
13383SOL    HW142046   8.627  13.211  11.982
13383SOL    HW242047   8.689  13.337  11.926
13384SOL     OW42048   9.090   2.909  10.008
13384SOL    HW142049   9.101   2.996  10.047
13384SOL    HW242050   9.140   2.914   9.926
13385SOL     OW42051   1.259   5.141   7.860
13385SOL    HW142052   1.294   5.220   7.818
13385SOL    HW242053   1.298   5.142   7.948
13386SOL     OW42054   6.197   0.240   8.516
13386SOL    HW142055   6.193   0.145   8.512
13386SOL    HW242056   6.106   0.268   8.520
13387SOL     OW42057  10.930  14.712   1.381
13387SOL    HW142058  10.975  14.646   1.435
13387SOL    HW242059  10.839  14.683   1.379
13388SOL     OW42060   5.853   2.098  14.029
13388SOL    HW142061   5.890   2.118  14.115
13388SOL    HW242062   5.813   2.012  14.039
13389SOL     OW42063  11.176  14.243  10.321
13389SOL    HW142064  11.235  14.208  10.254
13389SOL    HW242065  11.090  14.246  10.277
13390SOL     OW42066   4.996  12.811  12.373
13390SOL    HW142067   4.954  12.748  12.315
13390SOL    HW242068   4.965  12.897  12.343
13391SOL     OW42069   1.981  10.163   0.945
13391SOL    HW142070   2.050  10.200   0.890
13391SOL    HW242071   1.976  10.071   0.918
13392SOL     OW42072   6.113   4.833   8.836
13392SOL    HW142073   6.044   4.767   8.843
13392SOL    HW242074   6.163   4.807   8.759
13393SOL     OW42075   5.340  10.221   1.021
13393SOL    HW142076   5.351  10.206   0.927
13393SOL    HW242077   5.364  10.138   1.062
13394SOL     OW42078   3.852  12.097  11.947
13394SOL    HW142079   3.872  12.166  12.010
13394SOL    HW242080   3.919  12.106  11.880
13395SOL     OW42081   0.917  11.306   8.653
13395SOL    HW142082   0.841  11.272   8.607
13395SOL    HW242083   0.883  11.378   8.706
13396SOL     OW42084   8.663   9.542  13.167
13396SOL    HW142085   8.710   9.488  13.103
13396SOL    HW242086   8.715   9.622  13.174
13397SOL     OW42087  11.709   8.604   2.712
13397SOL    HW142088  11.706   8.522   2.663
13397SOL    HW242089  11.735   8.670   2.648
13398SOL     OW42090   1.703  12.401  10.826
13398SOL    HW142091   1.622  12.374  10.870
13398SOL    HW242092   1.680  12.404  10.733
13399SOL     OW42093   9.357  14.683  13.979
13399SOL    HW142094   9.342  14.689  14.074
13399SOL    HW242095   9.318  14.763  13.943
13400SOL     OW42096   3.128   9.486   7.068
13400SOL    HW142097   3.033   9.474   7.073
13400SOL    HW242098   3.160   9.402   7.035
13401SOL     OW42099  13.619   9.913   4.348
13401SOL    HW142100  13.567   9.959   4.414
13401SOL    HW242101  13.640   9.829   4.390
13402SOL     OW42102   6.997  11.283   3.651
13402SOL    HW142103   6.986  11.210   3.589
13402SOL    HW242104   6.908  11.312   3.669
13403SOL     OW42105   8.567   9.934  11.038
13403SOL    HW142106   8.522  10.016  11.020
13403SOL    HW242107   8.567   9.888  10.954
13404SOL     OW42108   2.243  13.515   0.149
13404SOL    HW142109   2.190  13.437   0.135
13404SOL    HW242110   2.328  13.481   0.178
13405SOL     OW42111  10.853  13.084  12.218
13405SOL    HW142112  10.916  13.062  12.150
13405SOL    HW242113  10.823  13.172  12.194
13406SOL     OW42114   7.765   2.852   8.241
13406SOL    HW142115   7.748   2.933   8.194
13406SOL    HW242116   7.861   2.843   8.240
13407SOL     OW42117  10.025  11.079   0.799
13407SOL    HW142118  10.045  11.003   0.744
13407SOL    HW242119  10.093  11.078   0.867
13408SOL     OW42120   4.789   9.557   9.578
13408SOL    HW142121   4.702   9.518   9.579
13408SOL    HW242122   4.807   9.579   9.670
13409SOL     OW42123   9.146   7.732   5.817
13409SOL    HW142124   9.132   7.694   5.730
13409SOL    HW242125   9.183   7.818   5.800
13410SOL     OW42126   8.982   9.150  14.684
13410SOL    HW142127   8.908   9.210  14.696
13410SOL    HW242128   9.048   9.182  14.746
13411SOL     OW42129   6.859   3.997   7.329
13411SOL    HW142130   6.783   3.938   7.327
13411SOL    HW242131   6.930   3.943   7.365
13412SOL     OW42132   3.843   1.609  14.187
13412SOL    HW142133   3.884   1.686  14.228
13412SOL    HW242134   3.907   1.539  14.197
13413SOL     OW42135   3.387  12.332   3.320
13413SOL    HW142136   3.331  12.284   3.380
13413SOL    HW242137   3.467  12.279   3.314
13414SOL     OW42138   5.517   7.134  10.424
13414SOL    HW142139   5.592   7.165  10.474
13414SOL    HW242140   5.446   7.193  10.447
13415SOL     OW42141  14.257  13.168   2.294
13415SOL    HW142142  14.303  13.227   2.233
13415SOL    HW242143  14.237  13.223   2.370
13416SOL     OW42144   2.857   6.919   1.235
13416SOL    HW142145   2.767   6.948   1.229
13416SOL    HW242146   2.855   6.829   1.202
13417SOL     OW42147   6.721  12.642   3.940
13417SOL    HW142148   6.662  12.614   3.870
13417SOL    HW242149   6.796  12.681   3.895
13418SOL     OW42150   7.054   6.703   4.243
13418SOL    HW142151   7.107   6.657   4.308
13418SOL    HW242152   6.990   6.752   4.294
13419SOL     OW42153   0.797   7.122  11.816
13419SOL    HW142154   0.824   7.035  11.786
13419SOL    HW242155   0.734   7.105  11.886
13420SOL     OW42156  12.992   7.382   3.231
13420SOL    HW142157  12.998   7.294   3.194
13420SOL    HW242158  13.042   7.437   3.171
13421SOL     OW42159   5.119   1.295  11.000
13421SOL    HW142160   5.178   1.302  11.075
13421SOL    HW242161   5.090   1.204  11.000
13422SOL     OW42162   6.637  14.011  13.823
13422SOL    HW142163   6.709  14.056  13.778
13422SOL    HW242164   6.572  14.080  13.839
13423SOL     OW42165   6.385   4.351  12.961
13423SOL    HW142166   6.346   4.366  13.047
13423SOL    HW242167   6.472   4.314  12.981
13424SOL     OW42168  11.654   5.365  12.023
13424SOL    HW142169  11.627   5.356  11.931
13424SOL    HW242170  11.608   5.443  12.053
13425SOL     OW42171  10.030  12.599  14.444
13425SOL    HW142172  10.046  12.508  14.421
13425SOL    HW242173   9.988  12.636  14.366
13426SOL     OW42174   4.279  12.777   1.001
13426SOL    HW142175   4.321  12.752   0.919
13426SOL    HW242176   4.316  12.716   1.066
13427SOL     OW42177   8.614   7.797   0.967
13427SOL    HW142178   8.675   7.726   0.985
13427SOL    HW242179   8.593   7.833   1.053
13428SOL     OW42180   0.736   6.891  14.701
13428SOL    HW142181   0.791   6.818  14.728
13428SOL    HW242182   0.788   6.969  14.718
13429SOL     OW42183  12.013  12.132  14.636
13429SOL    HW142184  12.055  12.062  14.686
13429SOL    HW242185  11.948  12.087  14.582
13430SOL     OW42186   4.671   4.701   8.219
13430SOL    HW142187   4.653   4.760   8.292
13430SOL    HW242188   4.740   4.643   8.252
13431SOL     OW42189   5.238   7.915   7.094
13431SOL    HW142190   5.256   8.009   7.094
13431SOL    HW242191   5.313   7.876   7.139
13432SOL     OW42192   2.933  12.030   4.016
13432SOL    HW142193   3.027  12.026   4.033
13432SOL    HW242194   2.920  12.113   3.972
13433SOL     OW42195  13.931   4.652   1.818
13433SOL    HW142196  14.002   4.590   1.831
13433SOL    HW242197  13.939   4.713   1.891
13434SOL     OW42198   4.083  14.308   2.401
13434SOL    HW142199   4.081  14.345   2.489
13434SOL    HW242200   4.175  14.311   2.376
13435SOL     OW42201  13.072  10.632   7.817
13435SOL    HW142202  13.154  10.677   7.799
13435SOL    HW242203  13.011  10.702   7.840
13436SOL     OW42204   5.686  12.424   8.182
13436SOL    HW142205   5.628  12.407   8.255
13436SOL    HW242206   5.772  12.395   8.212
13437SOL     OW42207  12.842   5.840   7.022
13437SOL    HW142208  12.862   5.927   7.056
13437SOL    HW242209  12.900   5.781   7.070
13438SOL     OW42210  11.090  13.863   6.224
13438SOL    HW142211  11.103  13.768   6.218
13438SOL    HW242212  10.999  13.877   6.196
13439SOL     OW42213  12.075   7.041   4.274
13439SOL    HW142214  12.127   6.983   4.330
13439SOL    HW242215  12.113   7.030   4.187
13440SOL     OW42216   8.277  12.520   5.711
13440SOL    HW142217   8.220  12.450   5.742
13440SOL    HW242218   8.307  12.563   5.791
13441SOL     OW42219  12.469   1.511  12.977
13441SOL    HW142220  12.443   1.421  12.955
13441SOL    HW242221  12.414   1.535  13.051
13442SOL     OW42222   7.634  12.962  14.755
13442SOL    HW142223   7.624  13.002  14.668
13442SOL    HW242224   7.691  13.022  14.803
13443SOL     OW42225   7.848   1.588   8.473
13443SOL    HW142226   7.862   1.682   8.488
13443SOL    HW242227   7.816   1.555   8.556
13444SOL     OW42228  13.305  13.833  14.599
13444SOL    HW142229  13.384  13.781  14.613
13444SOL    HW242230  13.303  13.849  14.505
13445SOL     OW42231   9.514   7.667  11.315
13445SOL    HW142232   9.470   7.593  11.356
13445SOL    HW242233   9.473   7.675  11.229
13446SOL     OW42234   0.046  14.811   6.887
13446SOL    HW142235  14.867  14.733   6.896
13446SOL    HW242236   0.054  14.845   6.976
13447SOL     OW42237  13.857   9.896  13.997
13447SOL    HW142238  13.881   9.928  14.084
13447SOL    HW242239  13.762   9.903  13.995
13448SOL     OW42240   6.827   3.370  10.250
13448SOL    HW142241   6.834   3.368  10.345
13448SOL    HW242242   6.864   3.454  10.225
13449SOL     OW42243  13.409   0.404   2.461
13449SOL    HW142244  13.457   0.333   2.504
13449SOL    HW242245  13.475   0.449   2.408
13450SOL     OW42246   8.532   8.526  12.573
13450SOL    HW142247   8.547   8.611  12.532
13450SOL    HW242248   8.560   8.537  12.663
13451SOL     OW42249   6.935   8.564   7.005
13451SOL    HW142250   6.998   8.635   7.016
13451SOL    HW242251   6.955   8.502   7.075
13452SOL     OW42252   2.366   1.314  12.076
13452SOL    HW142253   2.328   1.387  12.027
13452SOL    HW242254   2.373   1.243  12.011
13453SOL     OW42255   5.674   4.656   5.858
13453SOL    HW142256   5.648   4.594   5.790
13453SOL    HW242257   5.605   4.722   5.858
13454SOL     OW42258   7.987   6.591   4.607
13454SOL    HW142259   8.030   6.670   4.639
13454SOL    HW242260   7.961   6.544   4.686
13455SOL     OW42261   6.617  10.651  12.268
13455SOL    HW142262   6.621  10.587  12.339
13455SOL    HW242263   6.702  10.694  12.269
13456SOL     OW42264   1.273   7.021  10.318
13456SOL    HW142265   1.243   7.079  10.248
13456SOL    HW242266   1.283   7.077  10.394
13457SOL     OW42267  11.521  12.681   6.340
13457SOL    HW142268  11.589  12.714   6.281
13457SOL    HW242269  11.519  12.743   6.412
13458SOL     OW42270   5.209   7.031   9.195
13458SOL    HW142271   5.201   7.084   9.116
13458SOL    HW242272   5.210   6.941   9.163
13459SOL     OW42273   1.836  11.656   9.684
13459SOL    HW142274   1.823  11.561   9.684
13459SOL    HW242275   1.916  11.669   9.734
13460SOL     OW42276  14.526   8.954   8.875
13460SOL    HW142277  14.549   9.032   8.926
13460SOL    HW242278  14.519   8.884   8.940
13461SOL     OW42279  10.862   0.535   7.879
13461SOL    HW142280  10.882   0.489   7.797
13461SOL    HW242281  10.811   0.471   7.930
13462SOL     OW42282   4.960   4.831  11.731
13462SOL    HW142283   4.992   4.778  11.658
13462SOL    HW242284   4.877   4.868  11.699
13463SOL     OW42285   4.836   6.021   2.374
13463SOL    HW142286   4.764   5.960   2.360
13463SOL    HW242287   4.816   6.095   2.317
13464SOL     OW42288   1.082  13.253   4.278
13464SOL    HW142289   1.039  13.322   4.227
13464SOL    HW242290   1.085  13.178   4.219
13465SOL     OW42291   2.031   5.205  10.002
13465SOL    HW142292   2.103   5.249  10.046
13465SOL    HW242293   2.040   5.113  10.026
13466SOL     OW42294   1.999  12.552   9.063
13466SOL    HW142295   2.082  12.588   9.032
13466SOL    HW242296   1.996  12.464   9.025
13467SOL     OW42297   0.726   4.879   7.401
13467SOL    HW142298   0.793   4.812   7.414
13467SOL    HW242299   0.645   4.830   7.385
13468SOL     OW42300   4.228   2.946  11.564
13468SOL    HW142301   4.193   2.959  11.652
13468SOL    HW242302   4.306   2.892  11.576
13469SOL     OW42303   0.914  13.237  13.961
13469SOL    HW142304   0.851  13.206  14.025
13469SOL    HW242305   0.999  13.225  14.003
13470SOL     OW42306   0.402  14.446  13.176
13470SOL    HW142307   0.395  14.379  13.244
13470SOL    HW242308   0.380  14.528  13.221
13471SOL     OW42309   7.164  10.764   0.298
13471SOL    HW142310   7.259  10.767   0.305
13471SOL    HW242311   7.133  10.768   0.389
13472SOL     OW42312  11.147  10.447  11.349
13472SOL    HW142313  11.227  10.485  11.385
13472SOL    HW242314  11.169  10.355  11.333
13473SOL     OW42315   1.404  10.140  14.102
13473SOL    HW142316   1.414  10.205  14.171
13473SOL    HW242317   1.354  10.069  14.142
13474SOL     OW42318   7.776   5.603   5.685
13474SOL    HW142319   7.686   5.571   5.689
13474SOL    HW242320   7.824   5.535   5.637
13475SOL     OW42321  13.507   6.448   4.523
13475SOL    HW142322  13.571   6.379   4.533
13475SOL    HW242323  13.464   6.455   4.608
13476SOL     OW42324   8.461   9.817  10.808
13476SOL    HW142325   8.393   9.811  10.742
13476SOL    HW242326   8.435   9.754  10.875
13477SOL     OW42327   2.574   2.011   7.353
13477SOL    HW142328   2.642   2.019   7.420
13477SOL    HW242329   2.606   2.064   7.280
13478SOL     OW42330   9.922   2.633  12.455
13478SOL    HW142331   9.945   2.552  12.409
13478SOL    HW242332  10.005   2.677  12.471
13479SOL     OW42333   4.503  12.641   5.265
13479SOL    HW142334   4.526  12.548   5.264
13479SOL    HW242335   4.426  12.646   5.322
13480SOL     OW42336  10.150   6.518   9.731
13480SOL    HW142337  10.084   6.586   9.743
13480SOL    HW242338  10.100   6.440   9.709
13481SOL     OW42339   5.489  10.521   6.064
13481SOL    HW142340   5.509  10.546   5.974
13481SOL    HW242341   5.551  10.571   6.117
13482SOL     OW42342   2.302  14.186   4.067
13482SOL    HW142343   2.208  14.202   4.067
13482SOL    HW242344   2.337  14.241   3.997
13483SOL     OW42345   3.901  13.081   7.450
13483SOL    HW142346   3.980  13.027   7.442
13483SOL    HW242347   3.861  13.052   7.532
13484SOL     OW42348   9.798   2.992   8.742
13484SOL    HW142349   9.863   2.973   8.809
13484SOL    HW242350   9.721   3.021   8.791
13485SOL     OW42351  10.866  10.320   0.405
13485SOL    HW142352  10.894  10.249   0.462
13485SOL    HW242353  10.845  10.392   0.464
13486SOL     OW42354  12.781   7.727   2.718
13486SOL    HW142355  12.868   7.724   2.759
13486SOL    HW242356  12.788   7.666   2.644
13487SOL     OW42357  11.380  13.474   6.541
13487SOL    HW142358  11.383  13.567   6.565
13487SOL    HW242359  11.295  13.464   6.497
13488SOL     OW42360  11.833  11.304  12.460
13488SOL    HW142361  11.746  11.344  12.470
13488SOL    HW242362  11.822  11.242  12.388
13489SOL     OW42363  11.555   7.621   9.276
13489SOL    HW142364  11.615   7.564   9.229
13489SOL    HW242365  11.610   7.668   9.339
13490SOL     OW42366   9.738  10.272  12.088
13490SOL    HW142367   9.702  10.183  12.091
13490SOL    HW242368   9.832  10.260  12.103
13491SOL     OW42369   4.084   3.629  10.173
13491SOL    HW142370   4.057   3.636  10.264
13491SOL    HW242371   4.005   3.648  10.123
13492SOL     OW42372  12.102   2.683   6.081
13492SOL    HW142373  12.061   2.676   5.995
13492SOL    HW242374  12.115   2.592   6.109
13493SOL     OW42375   7.314  13.821   5.542
13493SOL    HW142376   7.303  13.730   5.570
13493SOL    HW242377   7.255  13.870   5.599
13494SOL     OW42378   0.849   0.201   7.364
13494SOL    HW142379   0.771   0.185   7.418
13494SOL    HW242380   0.817   0.201   7.274
13495SOL     OW42381   0.497   0.595  14.277
13495SOL    HW142382   0.457   0.540  14.210
13495SOL    HW242383   0.537   0.533  14.338
13496SOL     OW42384   4.735   0.393   8.875
13496SOL    HW142385   4.777   0.477   8.856
13496SOL    HW242386   4.806   0.329   8.865
13497SOL     OW42387  10.887   8.416  10.852
13497SOL    HW142388  10.853   8.380  10.935
13497SOL    HW242389  10.812   8.462  10.814
13498SOL     OW42390   8.235   2.219  12.143
13498SOL    HW142391   8.154   2.226  12.193
13498SOL    HW242392   8.285   2.297  12.168
13499SOL     OW42393  11.528   4.570   6.908
13499SOL    HW142394  11.522   4.644   6.847
13499SOL    HW242395  11.533   4.493   6.851
13500SOL     OW42396   4.472   9.557  12.939
13500SOL    HW142397   4.388   9.521  12.968
13500SOL    HW242398   4.484   9.520  12.851
13501SOL     OW42399   7.765   6.297   4.623
13501SOL    HW142400   7.848   6.327   4.662
13501SOL    HW242401   7.719   6.378   4.602
13502SOL     OW42402   4.802   6.335   3.517
13502SOL    HW142403   4.853   6.254   3.520
13502SOL    HW242404   4.807   6.371   3.605
13503SOL     OW42405   9.064   4.131   2.093
13503SOL    HW142406   9.119   4.207   2.073
13503SOL    HW242407   9.026   4.107   2.008
13504SOL     OW42408   0.384   0.894   9.500
13504SOL    HW142409   0.480   0.890   9.492
13504SOL    HW242410   0.369   0.965   9.563
13505SOL     OW42411  11.680   4.898   5.746
13505SOL    HW142412  11.755   4.843   5.724
13505SOL    HW242413  11.709   4.987   5.730
13506SOL     OW42414   5.237  14.395   7.423
13506SOL    HW142415   5.222  14.378   7.329
13506SOL    HW242416   5.291  14.321   7.451
13507SOL     OW42417   9.793   8.054   6.110
13507SOL    HW142418   9.734   8.120   6.147
13507SOL    HW242419   9.752   7.971   6.131
13508SOL     OW42420   6.777   2.135  12.654
13508SOL    HW142421   6.850   2.198  12.650
13508SOL    HW242422   6.718   2.171  12.720
13509SOL     OW42423   7.999  13.711   3.722
13509SOL    HW142424   7.954  13.795   3.730
13509SOL    HW242425   7.941  13.658   3.668
13510SOL     OW42426  13.695  12.640   1.676
13510SOL    HW142427  13.735  12.590   1.747
13510SOL    HW242428  13.604  12.611   1.674
13511SOL     OW42429  10.928  13.283  14.797
13511SOL    HW142430  11.005  13.331  14.827
13511SOL    HW242431  10.962  13.198  14.771
13512SOL     OW42432   4.873   5.043  10.987
13512SOL    HW142433   4.958   5.003  11.002
13512SOL    HW242434   4.810   4.979  11.021
13513SOL     OW42435   7.560  14.423  11.982
13513SOL    HW142436   7.488  14.408  11.921
13513SOL    HW242437   7.638  14.399  11.932
13514SOL     OW42438  14.064   2.097  11.577
13514SOL    HW142439  14.121   2.160  11.533
13514SOL    HW242440  14.005   2.149  11.630
13515SOL     OW42441  10.420   8.693   5.458
13515SOL    HW142442  10.426   8.778   5.501
13515SOL    HW242443  10.460   8.632   5.520
13516SOL     OW42444   2.307   0.179  13.286
13516SOL    HW142445   2.358   0.107  13.249
13516SOL    HW242446   2.295   0.154  13.378
13517SOL     OW42447  11.255   4.086   4.221
13517SOL    HW142448  11.202   4.072   4.143
13517SOL    HW242449  11.343   4.059   4.196
13518SOL     OW42450  13.749   3.511   4.744
13518SOL    HW142451  13.820   3.569   4.715
13518SOL    HW242452  13.776   3.480   4.830
13519SOL     OW42453  11.725   9.360   8.712
13519SOL    HW142454  11.747   9.446   8.675
13519SOL    HW242455  11.630   9.363   8.724
13520SOL     OW42456  14.570  12.838   8.895
13520SOL    HW142457  14.578  12.887   8.814
13520SOL    HW242458  14.559  12.904   8.963
13521SOL     OW42459  10.251   7.267   9.680
13521SOL    HW142460  10.217   7.299   9.597
13521SOL    HW242461  10.267   7.174   9.665
13522SOL     OW42462  10.423   2.169  14.452
13522SOL    HW142463  10.347   2.192  14.399
13522SOL    HW242464  10.388   2.112  14.521
13523SOL     OW42465   0.170   0.832   4.695
13523SOL    HW142466   0.099   0.849   4.757
13523SOL    HW242467   0.244   0.882   4.729
13524SOL     OW42468   7.416   7.363   6.369
13524SOL    HW142469   7.338   7.391   6.321
13524SOL    HW242470   7.488   7.409   6.326
13525SOL     OW42471   9.460  11.109   0.339
13525SOL    HW142472   9.510  11.038   0.301
13525SOL    HW242473   9.466  11.096   0.434
13526SOL     OW42474   3.555  12.546  11.547
13526SOL    HW142475   3.502  12.585  11.477
13526SOL    HW242476   3.633  12.602  11.552
13527SOL     OW42477  13.004   9.833   3.163
13527SOL    HW142478  12.918   9.843   3.204
13527SOL    HW242479  13.026   9.741   3.177
13528SOL     OW42480   9.588   9.623   9.823
13528SOL    HW142481   9.669   9.630   9.874
13528SOL    HW242482   9.616   9.590   9.737
13529SOL     OW42483   9.400   8.787   3.518
13529SOL    HW142484   9.309   8.808   3.536
13529SOL    HW242485   9.441   8.780   3.604
13530SOL     OW42486   6.642   7.159   0.651
13530SOL    HW142487   6.581   7.220   0.609
13530SOL    HW242488   6.724   7.171   0.603
13531SOL     OW42489   9.423   7.557   5.513
13531SOL    HW142490   9.392   7.647   5.518
13531SOL    HW242491   9.484   7.556   5.440
13532SOL     OW42492  12.334   8.742   9.612
13532SOL    HW142493  12.406   8.704   9.662
13532SOL    HW242494  12.261   8.682   9.627
13533SOL     OW42495  11.599  12.622   6.625
13533SOL    HW142496  11.669  12.684   6.606
13533SOL    HW242497  11.520  12.665   6.592
13534SOL     OW42498  11.080   4.835   9.042
13534SOL    HW142499  11.096   4.904   8.977
13534SOL    HW242500  11.132   4.861   9.118
13535SOL     OW42501   0.640  13.902  11.817
13535SOL    HW142502   0.582  13.957  11.870
13535SOL    HW242503   0.712  13.878  11.877
13536SOL     OW42504  11.721   5.808  11.678
13536SOL    HW142505  11.764   5.725  11.697
13536SOL    HW242506  11.739   5.824  11.586
13537SOL     OW42507   4.932   6.122  13.741
13537SOL    HW142508   4.932   6.027  13.757
13537SOL    HW242509   4.878   6.133  13.663
13538SOL     OW42510   7.502   4.368  11.390
13538SOL    HW142511   7.562   4.341  11.320
13538SOL    HW242512   7.463   4.287  11.421
13539SOL     OW42513   8.475   9.886   3.927
13539SOL    HW142514   8.545   9.913   3.986
13539SOL    HW242515   8.506   9.802   3.892
13540SOL     OW42516   6.090  11.437  11.637
13540SOL    HW142517   6.004  11.395  11.638
13540SOL    HW242518   6.098  11.473  11.548
13541SOL     OW42519   6.932  10.599  11.507
13541SOL    HW142520   6.997  10.647  11.558
13541SOL    HW242521   6.974  10.515  11.488
13542SOL     OW42522  14.557   7.062   2.228
13542SOL    HW142523  14.505   7.109   2.293
13542SOL    HW242524  14.534   7.104   2.145
13543SOL     OW42525  13.686   1.385   6.920
13543SOL    HW142526  13.615   1.326   6.943
13543SOL    HW242527  13.704   1.435   7.000
13544SOL     OW42528   5.843   4.512   8.997
13544SOL    HW142529   5.915   4.476   9.049
13544SOL    HW242530   5.796   4.435   8.965
13545SOL     OW42531   2.789   3.915   7.230
13545SOL    HW142532   2.727   3.961   7.172
13545SOL    HW242533   2.734   3.880   7.300
13546SOL     OW42534   7.500  10.748   4.916
13546SOL    HW142535   7.550  10.670   4.939
13546SOL    HW242536   7.564  10.818   4.911
13547SOL     OW42537  10.868  10.504   0.631
13547SOL    HW142538  10.937  10.446   0.661
13547SOL    HW242539  10.793  10.483   0.687
13548SOL     OW42540   0.288   5.687   4.198
13548SOL    HW142541   0.304   5.678   4.292
13548SOL    HW242542   0.193   5.684   4.189
13549SOL     OW42543  14.289  13.753   9.293
13549SOL    HW142544  14.242  13.683   9.248
13549SOL    HW242545  14.364  13.771   9.237
13550SOL     OW42546  11.416   4.044   4.924
13550SOL    HW142547  11.432   3.985   4.850
13550SOL    HW242548  11.448   4.129   4.894
13551SOL     OW42549   6.673   4.071   7.064
13551SOL    HW142550   6.767   4.059   7.047
13551SOL    HW242551   6.652   4.007   7.132
13552SOL     OW42552   5.240   2.867  12.572
13552SOL    HW142553   5.199   2.947  12.605
13552SOL    HW242554   5.324   2.897  12.537
13553SOL     OW42555   7.761   9.754   2.897
13553SOL    HW142556   7.820   9.794   2.834
13553SOL    HW242557   7.809   9.754   2.980
13554SOL     OW42558   2.945  10.663   5.028
13554SOL    HW142559   2.887  10.645   5.102
13554SOL    HW242560   2.919  10.750   4.998
13555SOL     OW42561   2.273   1.658   4.035
13555SOL    HW142562   2.251   1.751   4.039
13555SOL    HW242563   2.289   1.642   3.942
13556SOL     OW42564   9.943  14.351   6.007
13556SOL    HW142565   9.850  14.357   5.986
13556SOL    HW242566   9.953  14.265   6.049
13557SOL     OW42567  13.203  10.702   0.728
13557SOL    HW142568  13.146  10.628   0.707
13557SOL    HW242569  13.246  10.723   0.645
13558SOL     OW42570   3.903  12.295   6.137
13558SOL    HW142571   3.839  12.338   6.194
13558SOL    HW242572   3.851  12.263   6.063
13559SOL     OW42573   1.583  12.730   5.333
13559SOL    HW142574   1.513  12.765   5.277
13559SOL    HW242575   1.609  12.804   5.388
13560SOL     OW42576   7.868  13.448   8.187
13560SOL    HW142577   7.909  13.407   8.263
13560SOL    HW242578   7.810  13.515   8.224
13561SOL     OW42579  10.059   5.793   8.462
13561SOL    HW142580  10.129   5.836   8.512
13561SOL    HW242581   9.996   5.863   8.444
13562SOL     OW42582   9.825   3.545  10.021
13562SOL    HW142583   9.840   3.617  10.083
13562SOL    HW242584   9.827   3.466  10.075
13563SOL     OW42585   1.425  13.973  13.353
13563SOL    HW142586   1.353  14.025  13.387
13563SOL    HW242587   1.418  13.889  13.399
13564SOL     OW42588  13.646   5.522   5.517
13564SOL    HW142589  13.736   5.536   5.545
13564SOL    HW242590  13.596   5.520   5.598
13565SOL     OW42591   1.210   8.586   7.578
13565SOL    HW142592   1.149   8.561   7.509
13565SOL    HW242593   1.263   8.507   7.592
13566SOL     OW42594   9.571   0.947   7.400
13566SOL    HW142595   9.559   0.892   7.477
13566SOL    HW242596   9.661   0.930   7.372
13567SOL     OW42597   8.924   1.416   7.440
13567SOL    HW142598   8.834   1.396   7.415
13567SOL    HW242599   8.927   1.511   7.447
13568SOL     OW42600  14.492  13.632  11.130
13568SOL    HW142601  14.418  13.572  11.134
13568SOL    HW242602  14.516  13.634  11.037
13569SOL     OW42603   7.193  11.697  13.157
13569SOL    HW142604   7.160  11.785  13.142
13569SOL    HW242605   7.239  11.703  13.241
13570SOL     OW42606   6.227   8.391   5.031
13570SOL    HW142607   6.177   8.317   5.066
13570SOL    HW242608   6.291   8.350   4.972
13571SOL     OW42609   4.045  10.939  13.624
13571SOL    HW142610   4.103  10.863  13.624
13571SOL    HW242611   3.957  10.902  13.628
13572SOL     OW42612   1.055   6.048   1.164
13572SOL    HW142613   1.140   6.033   1.122
13572SOL    HW242614   1.072   6.033   1.257
13573SOL     OW42615  10.294   3.752  10.545
13573SOL    HW142616  10.207   3.733  10.512
13573SOL    HW242617  10.280   3.781  10.635
13574SOL     OW42618  10.934   5.108   5.931
13574SOL    HW142619  10.904   5.197   5.949
13574SOL    HW242620  11.011   5.097   5.986
13575SOL     OW42621   8.995   6.011   6.959
13575SOL    HW142622   9.069   5.973   6.912
13575SOL    HW242623   8.971   5.945   7.025
13576SOL     OW42624   8.211   7.823   5.511
13576SOL    HW142625   8.142   7.877   5.474
13576SOL    HW242626   8.209   7.742   5.460
13577SOL     OW42627   9.768   5.139  13.271
13577SOL    HW142628   9.814   5.090  13.340
13577SOL    HW242629   9.836   5.163  13.209
13578SOL     OW42630  11.145   5.617   4.614
13578SOL    HW142631  11.139   5.526   4.640
13578SOL    HW242632  11.189   5.661   4.687
13579SOL     OW42633   1.116  10.133   7.048
13579SOL    HW142634   1.066  10.140   6.967
13579SOL    HW242635   1.149  10.043   7.048
13580SOL     OW42636  12.750   8.578  12.187
13580SOL    HW142637  12.661   8.569  12.153
13580SOL    HW242638  12.782   8.488  12.196
13581SOL     OW42639   9.321   6.483   2.775
13581SOL    HW142640   9.386   6.444   2.834
13581SOL    HW242641   9.315   6.574   2.804
13582SOL     OW42642   5.860  10.430   7.519
13582SOL    HW142643   5.868  10.335   7.528
13582SOL    HW242644   5.927  10.465   7.579
13583SOL     OW42645  14.424   4.237   2.605
13583SOL    HW142646  14.436   4.251   2.511
13583SOL    HW242647  14.475   4.307   2.647
13584SOL     OW42648   7.368   0.446   9.215
13584SOL    HW142649   7.457   0.414   9.229
13584SOL    HW242650   7.331   0.456   9.303
13585SOL     OW42651   9.975   9.001   0.487
13585SOL    HW142652  10.006   8.954   0.409
13585SOL    HW242653  10.054   9.032   0.530
13586SOL     OW42654  10.939   4.633   3.105
13586SOL    HW142655  11.032   4.655   3.103
13586SOL    HW242656  10.895   4.717   3.088
13587SOL     OW42657   2.404   5.573  14.272
13587SOL    HW142658   2.477   5.555  14.331
13587SOL    HW242659   2.326   5.560  14.326
13588SOL     OW42660   6.823   7.875   5.855
13588SOL    HW142661   6.918   7.890   5.848
13588SOL    HW242662   6.810   7.851   5.947
13589SOL     OW42663  12.681   0.256   1.432
13589SOL    HW142664  12.612   0.213   1.484
13589SOL    HW242665  12.637   0.284   1.352
13590SOL     OW42666   5.718  10.435   7.048
13590SOL    HW142667   5.623  10.426   7.044
13590SOL    HW242668   5.749  10.397   6.966
13591SOL     OW42669   7.045   7.746   6.393
13591SOL    HW142670   7.003   7.824   6.358
13591SOL    HW242671   6.975   7.698   6.437
13592SOL     OW42672  13.232  10.188  11.966
13592SOL    HW142673  13.204  10.117  12.023
13592SOL    HW242674  13.202  10.163  11.879
13593SOL     OW42675   0.653   7.188  14.392
13593SOL    HW142676   0.622   7.098  14.391
13593SOL    HW242677   0.672   7.208  14.300
13594SOL     OW42678  10.047   8.231  14.215
13594SOL    HW142679  10.037   8.172  14.140
13594SOL    HW242680  10.128   8.279  14.196
13595SOL     OW42681   1.066   6.489  12.259
13595SOL    HW142682   1.129   6.457  12.323
13595SOL    HW242683   1.054   6.582  12.280
13596SOL     OW42684   9.618  14.584   6.954
13596SOL    HW142685   9.653  14.644   6.888
13596SOL    HW242686   9.639  14.497   6.921
13597SOL     OW42687   7.103   8.034  14.769
13597SOL    HW142688   7.156   8.009  14.844
13597SOL    HW242689   7.164   8.035  14.695
13598SOL     OW42690   1.227   5.855   4.478
13598SOL    HW142691   1.182   5.939   4.472
13598SOL    HW242692   1.317   5.875   4.455
13599SOL     OW42693   4.833   3.602  11.829
13599SOL    HW142694   4.893   3.592  11.755
13599SOL    HW242695   4.773   3.672  11.802
13600SOL     OW42696   6.414  12.570   1.634
13600SOL    HW142697   6.398  12.518   1.555
13600SOL    HW242698   6.478  12.518   1.683
13601SOL     OW42699   8.082  14.270   1.564
13601SOL    HW142700   8.071  14.255   1.470
13601SOL    HW242701   8.113  14.361   1.569
13602SOL     OW42702  13.902  14.634  14.681
13602SOL    HW142703  13.952  14.675  14.611
13602SOL    HW242704  13.854  14.706  14.723
13603SOL     OW42705  11.193   5.072   3.158
13603SOL    HW142706  11.133   5.079   3.084
13603SOL    HW242707  11.233   4.986   3.148
13604SOL     OW42708   7.112  13.612   5.638
13604SOL    HW142709   7.040  13.667   5.607
13604SOL    HW242710   7.092  13.596   5.730
13605SOL     OW42711  14.310   2.201   9.489
13605SOL    HW142712  14.364   2.121   9.493
13605SOL    HW242713  14.347   2.250   9.415
13606SOL     OW42714   6.885  11.021   7.755
13606SOL    HW142715   6.842  11.105   7.770
13606SOL    HW242716   6.952  11.041   7.689
13607SOL     OW42717  12.080   1.010   4.410
13607SOL    HW142718  12.068   1.097   4.370
13607SOL    HW242719  11.995   0.967   4.400
13608SOL     OW42720   2.598   2.245   6.231
13608SOL    HW142721   2.572   2.174   6.172
13608SOL    HW242722   2.680   2.214   6.270
13609SOL     OW42723   8.613   9.564   9.768
13609SOL    HW142724   8.675   9.505   9.723
13609SOL    HW242725   8.571   9.613   9.697
13610SOL     OW42726   9.282   6.703   0.018
13610SOL    HW142727   9.310   6.794   0.031
13610SOL    HW242728   9.187   6.708   0.006
13611SOL     OW42729   3.764   8.238   3.628
13611SOL    HW142730   3.788   8.291   3.552
13611SOL    HW242731   3.847   8.205   3.661
13612SOL     OW42732   9.371  10.643   8.828
13612SOL    HW142733   9.412  10.715   8.876
13612SOL    HW242734   9.378  10.568   8.887
13613SOL     OW42735   5.326   7.372   7.206
13613SOL    HW142736   5.356   7.317   7.134
13613SOL    HW242737   5.368   7.457   7.191
13614SOL     OW42738   5.221   7.405  13.770
13614SOL    HW142739   5.164   7.469  13.727
13614SOL    HW242740   5.300   7.402  13.716
13615SOL     OW42741   8.539   2.648  11.000
13615SOL    HW142742   8.514   2.684  11.085
13615SOL    HW242743   8.496   2.706  10.937
13616SOL     OW42744  10.117  11.104  13.249
13616SOL    HW142745  10.188  11.128  13.309
13616SOL    HW242746  10.159  11.094  13.164
13617SOL     OW42747   0.643   1.840   9.797
13617SOL    HW142748   0.655   1.829   9.892
13617SOL    HW242749   0.669   1.755   9.760
13618SOL     OW42750   2.577   6.954   4.173
13618SOL    HW142751   2.639   7.025   4.152
13618SOL    HW242752   2.509   6.961   4.106
13619SOL     OW42753   0.854   8.361   6.449
13619SOL    HW142754   0.759   8.368   6.462
13619SOL    HW242755   0.864   8.324   6.361
13620SOL     OW42756   6.386  12.226  14.772
13620SOL    HW142757   6.436  12.293  14.818
13620SOL    HW242758   6.310  12.210  14.828
13621SOL     OW42759  13.780   4.805  12.671
13621SOL    HW142760  13.766   4.723  12.719
13621SOL    HW242761  13.782   4.779  12.579
13622SOL     OW42762   9.720   4.754  12.464
13622SOL    HW142763   9.788   4.689  12.479
13622SOL    HW242764   9.674   4.725  12.386
13623SOL     OW42765   3.519   3.462   7.981
13623SOL    HW142766   3.531   3.378   8.026
13623SOL    HW242767   3.514   3.439   7.888
13624SOL     OW42768   9.772   1.881   0.558
13624SOL    HW142769   9.732   1.923   0.634
13624SOL    HW242770   9.864   1.906   0.562
13625SOL     OW42771   7.898   7.785  12.247
13625SOL    HW142772   7.956   7.824  12.183
13625SOL    HW242773   7.824   7.752  12.196
13626SOL     OW42774   8.349  13.330  10.511
13626SOL    HW142775   8.439  13.312  10.539
13626SOL    HW242776   8.346  13.425  10.502
13627SOL     OW42777  13.709   6.641  13.757
13627SOL    HW142778  13.682   6.733  13.756
13627SOL    HW242779  13.792   6.641  13.805
13628SOL     OW42780   9.129   0.758   1.874
13628SOL    HW142781   9.089   0.671   1.879
13628SOL    HW242782   9.117   0.795   1.961
13629SOL     OW42783   7.160   3.759   1.583
13629SOL    HW142784   7.099   3.813   1.633
13629SOL    HW242785   7.131   3.765   1.493
13630SOL     OW42786   2.118   5.914   5.131
13630SOL    HW142787   2.027   5.922   5.159
13630SOL    HW242788   2.136   5.820   5.133
13631SOL     OW42789  14.042   3.287   5.659
13631SOL    HW142790  14.129   3.268   5.693
13631SOL    HW242791  14.057   3.322   5.571
13632SOL     OW42792   6.932   8.383   0.152
13632SOL    HW142793   6.961   8.314   0.213
13632SOL    HW242794   6.998   8.452   0.162
13633SOL     OW42795  11.459  14.199  11.876
13633SOL    HW142796  11.440  14.156  11.960
13633SOL    HW242797  11.455  14.292  11.895
13634SOL     OW42798   8.673   6.093  14.163
13634SOL    HW142799   8.740   6.037  14.123
13634SOL    HW242800   8.717   6.130  14.239
13635SOL     OW42801   5.168  10.502   4.602
13635SOL    HW142802   5.213  10.548   4.531
13635SOL    HW242803   5.176  10.562   4.677
13636SOL     OW42804   7.559   7.755   5.155
13636SOL    HW142805   7.485   7.761   5.094
13636SOL    HW242806   7.605   7.838   5.145
13637SOL     OW42807   4.087   7.239  14.097
13637SOL    HW142808   4.139   7.233  14.017
13637SOL    HW242809   4.123   7.315  14.144
13638SOL     OW42810   8.237   3.108   2.236
13638SOL    HW142811   8.206   3.197   2.257
13638SOL    HW242812   8.220   3.098   2.143
13639SOL     OW42813  14.210  11.851   6.852
13639SOL    HW142814  14.180  11.779   6.795
13639SOL    HW242815  14.245  11.807   6.929
13640SOL     OW42816  10.700  10.132   0.219
13640SOL    HW142817  10.753  10.192   0.271
13640SOL    HW242818  10.622  10.183   0.196
13641SOL     OW42819   3.021  12.425   1.159
13641SOL    HW142820   2.936  12.466   1.142
13641SOL    HW242821   3.000  12.344   1.205
13642SOL     OW42822  12.392   8.322   7.613
13642SOL    HW142823  12.383   8.226   7.611
13642SOL    HW242824  12.304   8.353   7.637
13643SOL     OW42825  12.377   7.999  14.591
13643SOL    HW142826  12.340   7.938  14.654
13643SOL    HW242827  12.445   7.948  14.546
13644SOL     OW42828   5.465   8.266   7.804
13644SOL    HW142829   5.550   8.297   7.772
13644SOL    HW242830   5.403   8.289   7.735
13645SOL     OW42831  12.746   0.531   5.495
13645SOL    HW142832  12.681   0.553   5.429
13645SOL    HW242833  12.780   0.615   5.526
13646SOL     OW42834  13.929  10.952   7.550
13646SOL    HW142835  13.838  10.976   7.570
13646SOL    HW242836  13.950  10.882   7.612
13647SOL     OW42837  10.837   6.770   9.787
13647SOL    HW142838  10.804   6.813   9.866
13647SOL    HW242839  10.928   6.748   9.808
13648SOL     OW42840   2.150   7.343   4.608
13648SOL    HW142841   2.141   7.323   4.515
13648SOL    HW242842   2.152   7.438   4.612
13649SOL     OW42843   5.463  13.212  11.825
13649SOL    HW142844   5.521  13.288  11.818
13649SOL    HW242845   5.446  13.203  11.919
13650SOL     OW42846  13.466  11.658   3.802
13650SOL    HW142847  13.488  11.607   3.880
13650SOL    HW242848  13.530  11.729   3.801
13651SOL     OW42849   8.314  11.764   7.093
13651SOL    HW142850   8.227  11.745   7.059
13651SOL    HW242851   8.302  11.767   7.188
13652SOL     OW42852  13.400   6.675   7.932
13652SOL    HW142853  13.357   6.592   7.911
13652SOL    HW242854  13.482   6.672   7.882
13653SOL     OW42855  11.323  12.108   0.379
13653SOL    HW142856  11.275  12.167   0.320
13653SOL    HW242857  11.268  12.030   0.384
13654SOL     OW42858  11.490  10.033   9.533
13654SOL    HW142859  11.423  10.005   9.596
13654SOL    HW242860  11.466  10.123   9.510
13655SOL     OW42861   8.275  13.705   2.609
13655SOL    HW142862   8.342  13.762   2.645
13655SOL    HW242863   8.283  13.624   2.659
13656SOL     OW42864   6.238   6.252  12.456
13656SOL    HW142865   6.182   6.328  12.473
13656SOL    HW242866   6.263   6.261  12.364
13657SOL     OW42867   8.411  13.550   9.905
13657SOL    HW142868   8.452  13.636   9.914
13657SOL    HW242869   8.484  13.489   9.894
13658SOL     OW42870   7.645   0.751   1.246
13658SOL    HW142871   7.722   0.799   1.216
13658SOL    HW242872   7.573   0.782   1.192
13659SOL     OW42873   8.096  13.786  12.650
13659SOL    HW142874   8.173  13.838  12.630
13659SOL    HW242875   8.051  13.834  12.719
13660SOL     OW42876  13.622   8.240  13.173
13660SOL    HW142877  13.640   8.261  13.265
13660SOL    HW242878  13.594   8.323  13.135
13661SOL     OW42879  11.044   0.891   5.858
13661SOL    HW142880  11.125   0.927   5.893
13661SOL    HW242881  11.066   0.801   5.834
13662SOL     OW42882   4.397   6.483  13.688
13662SOL    HW142883   4.346   6.476  13.608
13662SOL    HW242884   4.409   6.392  13.718
13663SOL     OW42885  11.388   6.085   5.339
13663SOL    HW142886  11.321   6.128   5.392
13663SOL    HW242887  11.346   6.069   5.255
13664SOL     OW42888  12.657   4.890  13.804
13664SOL    HW142889  12.704   4.953  13.750
13664SOL    HW242890  12.634   4.938  13.883
13665SOL     OW42891  13.450  11.970  13.924
13665SOL    HW142892  13.432  12.061  13.900
13665SOL    HW242893  13.542  11.970  13.948
13666SOL     OW42894  13.904   1.585   8.112
13666SOL    HW142895  13.929   1.523   8.044
13666SOL    HW242896  13.971   1.574   8.180
13667SOL     OW42897  11.345  13.973   8.403
13667SOL    HW142898  11.361  13.933   8.317
13667SOL    HW242899  11.253  13.999   8.400
13668SOL     OW42900   0.126   4.021   7.197
13668SOL    HW142901   0.066   4.081   7.153
13668SOL    HW242902   0.139   3.950   7.134
13669SOL     OW42903   3.104   7.720   5.291
13669SOL    HW142904   3.146   7.703   5.376
13669SOL    HW242905   3.177   7.742   5.233
13670SOL     OW42906  14.092   7.715  11.740
13670SOL    HW142907  14.078   7.795  11.689
13670SOL    HW242908  14.116   7.649  11.675
13671SOL     OW42909   0.800  13.619  12.573
13671SOL    HW142910   0.705  13.632  12.581
13671SOL    HW242911   0.808  13.533  12.531
13672SOL     OW42912  13.941   0.441   2.722
13672SOL    HW142913  13.908   0.511   2.779
13672SOL    HW242914  13.997   0.486   2.659
13673SOL     OW42915   8.336  12.872   8.945
13673SOL    HW142916   8.411  12.877   9.005
13673SOL    HW242917   8.264  12.839   9.000
13674SOL     OW42918  11.780  13.641  10.724
13674SOL    HW142919  11.826  13.620  10.805
13674SOL    HW242920  11.811  13.576  10.661
13675SOL     OW42921   7.428   2.365   0.792
13675SOL    HW142922   7.342   2.390   0.825
13675SOL    HW242923   7.477   2.447   0.788
13676SOL     OW42924   7.181   5.156   1.957
13676SOL    HW142925   7.145   5.069   1.972
13676SOL    HW242926   7.266   5.141   1.915
13677SOL     OW42927  11.337   8.894  14.032
13677SOL    HW142928  11.245   8.921  14.032
13677SOL    HW242929  11.335   8.806  13.996
13678SOL     OW42930   0.193  11.570  12.434
13678SOL    HW142931   0.145  11.494  12.466
13678SOL    HW242932   0.175  11.639  12.497
13679SOL     OW42933  10.635   0.100  11.874
13679SOL    HW142934  10.630   0.050  11.793
13679SOL    HW242935  10.551   0.145  11.880
13680SOL     OW42936  10.046  13.868   8.824
13680SOL    HW142937   9.958  13.856   8.859
13680SOL    HW242938  10.060  13.963   8.827
13681SOL     OW42939   0.117   2.389  11.744
13681SOL    HW142940   0.073   2.461  11.790
13681SOL    HW242941   0.081   2.310  11.783
13682SOL     OW42942  10.004  11.179   6.146
13682SOL    HW142943  10.032  11.202   6.234
13682SOL    HW242944  10.081  11.141   6.105
13683SOL     OW42945   0.355   6.976   0.671
13683SOL    HW142946   0.382   6.968   0.580
13683SOL    HW242947   0.271   7.023   0.667
13684SOL     OW42948  14.771   5.515  13.329
13684SOL    HW142949  14.698   5.567  13.362
13684SOL    HW242950  14.842   5.577  13.318
13685SOL     OW42951   5.741   5.370   7.154
13685SOL    HW142952   5.796   5.449   7.156
13685SOL    HW242953   5.797   5.301   7.189
13686SOL     OW42954   4.561   6.035   6.484
13686SOL    HW142955   4.497   6.003   6.547
13686SOL    HW242956   4.577   6.126   6.510
13687SOL     OW42957  12.663  10.879   8.435
13687SOL    HW142958  12.727  10.821   8.476
13687SOL    HW242959  12.713  10.959   8.416
13688SOL     OW42960   8.506   8.398  12.889
13688SOL    HW142961   8.418   8.362  12.883
13688SOL    HW242962   8.494   8.493  12.884
13689SOL     OW42963  10.914   7.084  11.633
13689SOL    HW142964  10.973   7.079  11.558
13689SOL    HW242965  10.827   7.064  11.598
13690SOL     OW42966  13.354   2.495  13.883
13690SOL    HW142967  13.327   2.536  13.965
13690SOL    HW242968  13.442   2.461  13.901
13691SOL     OW42969  14.225   8.473  12.497
13691SOL    HW142970  14.203   8.471  12.404
13691SOL    HW242971  14.320   8.483  12.499
13692SOL     OW42972   6.230  12.751   6.616
13692SOL    HW142973   6.149  12.704   6.634
13692SOL    HW242974   6.274  12.755   6.700
13693SOL     OW42975   5.291   3.989   2.511
13693SOL    HW142976   5.274   3.895   2.509
13693SOL    HW242977   5.343   4.004   2.432
13694SOL     OW42978   0.163   6.926   7.023
13694SOL    HW142979   0.119   7.008   7.045
13694SOL    HW242980   0.207   6.944   6.940
13695SOL     OW42981   1.750   0.245   2.209
13695SOL    HW142982   1.750   0.337   2.185
13695SOL    HW242983   1.665   0.232   2.252
13696SOL     OW42984   8.057   4.400   5.757
13696SOL    HW142985   8.072   4.366   5.846
13696SOL    HW242986   8.142   4.394   5.715
13697SOL     OW42987   6.526   5.317   0.796
13697SOL    HW142988   6.506   5.403   0.760
13697SOL    HW242989   6.446   5.290   0.840
13698SOL     OW42990   1.188  11.792   1.816
13698SOL    HW142991   1.279  11.820   1.815
13698SOL    HW242992   1.188  11.710   1.865
13699SOL     OW42993   6.564  10.293   7.982
13699SOL    HW142994   6.623  10.361   8.016
13699SOL    HW242995   6.492  10.290   8.044
13700SOL     OW42996  10.586   8.850  14.342
13700SOL    HW142997  10.679   8.874  14.340
13700SOL    HW242998  10.560   8.862  14.434
13701SOL     OW42999   3.398   9.206   8.290
13701SOL    HW143000   3.351   9.271   8.238
13701SOL    HW243001   3.394   9.126   8.238
13702SOL     OW43002   9.223   1.540  10.679
13702SOL    HW143003   9.298   1.596  10.661
13702SOL    HW243004   9.158   1.599  10.717
13703SOL     OW43005   7.897  14.871   3.184
13703SOL    HW143006   7.962  14.802   3.171
13703SOL    HW243007   7.942   0.063   3.235
13704SOL     OW43008   5.157   9.398   3.741
13704SOL    HW143009   5.242   9.366   3.710
13704SOL    HW243010   5.118   9.441   3.665
13705SOL     OW43011   8.164   2.420  13.238
13705SOL    HW143012   8.168   2.502  13.191
13705SOL    HW243013   8.242   2.372  13.211
13706SOL     OW43014  10.339   0.079   1.648
13706SOL    HW143015  10.392   0.157   1.668
13706SOL    HW243016  10.248   0.110   1.654
13707SOL     OW43017   3.283   9.879  11.602
13707SOL    HW143018   3.270   9.947  11.536
13707SOL    HW243019   3.378   9.877  11.616
13708SOL     OW43020   5.538   6.426  12.710
13708SOL    HW143021   5.476   6.408  12.640
13708SOL    HW243022   5.537   6.522  12.719
13709SOL     OW43023  10.662   7.156   5.770
13709SOL    HW143024  10.592   7.220   5.782
13709SOL    HW243025  10.697   7.175   5.682
13710SOL     OW43026   9.725  12.432   3.307
13710SOL    HW143027   9.786  12.371   3.266
13710SOL    HW243028   9.644  12.382   3.317
13711SOL     OW43029  12.498  14.291   5.716
13711SOL    HW143030  12.445  14.267   5.792
13711SOL    HW243031  12.519  14.207   5.674
13712SOL     OW43032   2.668   0.367   0.072
13712SOL    HW143033   2.742   0.413   0.111
13712SOL    HW243034   2.626   0.323   0.146
13713SOL     OW43035   7.873   7.673   6.576
13713SOL    HW143036   7.869   7.720   6.659
13713SOL    HW243037   7.866   7.581   6.601
13714SOL     OW43038   8.463  14.032   1.272
13714SOL    HW143039   8.415  14.111   1.248
13714SOL    HW243040   8.399  13.961   1.264
13715SOL     OW43041   0.748   1.445   1.031
13715SOL    HW143042   0.843   1.434   1.027
13715SOL    HW243043   0.720   1.447   0.940
13716SOL     OW43044   4.148   7.465  14.248
13716SOL    HW143045   4.212   7.502  14.310
13716SOL    HW243046   4.063   7.487  14.286
13717SOL     OW43047  12.830   8.120  11.863
13717SOL    HW143048  12.850   8.212  11.879
13717SOL    HW243049  12.757   8.101  11.921
13718SOL     OW43050   3.077   5.489  11.192
13718SOL    HW143051   3.118   5.447  11.268
13718SOL    HW243052   3.109   5.440  11.117
13719SOL     OW43053   2.286   2.006  11.104
13719SOL    HW143054   2.248   2.038  11.186
13719SOL    HW243055   2.282   1.910  11.112
13720SOL     OW43056  12.682   1.239   6.586
13720SOL    HW143057  12.622   1.310   6.561
13720SOL    HW243058  12.650   1.210   6.671
13721SOL     OW43059   2.437   6.277   3.875
13721SOL    HW143060   2.342   6.283   3.868
13721SOL    HW243061   2.458   6.325   3.955
13722SOL     OW43062  10.527   0.081  12.636
13722SOL    HW143063  10.614   0.066  12.673
13722SOL    HW243064  10.544   0.105  12.544
13723SOL     OW43065   4.668   2.093  14.189
13723SOL    HW143066   4.590   2.079  14.136
13723SOL    HW243067   4.734   2.125  14.128
13724SOL     OW43068  11.651   9.617  13.422
13724SOL    HW143069  11.657   9.650  13.512
13724SOL    HW243070  11.558   9.603  13.407
13725SOL     OW43071   1.188  10.037   3.848
13725SOL    HW143072   1.173  10.113   3.903
13725SOL    HW243073   1.114  10.035   3.788
13726SOL     OW43074   3.566   4.634   6.573
13726SOL    HW143075   3.490   4.609   6.625
13726SOL    HW243076   3.565   4.730   6.573
13727SOL     OW43077   6.725  10.865   5.172
13727SOL    HW143078   6.635  10.880   5.142
13727SOL    HW243079   6.716  10.832   5.261
13728SOL     OW43080   1.819   1.448   8.474
13728SOL    HW143081   1.883   1.382   8.500
13728SOL    HW243082   1.871   1.526   8.456
13729SOL     OW43083   6.796   0.014  12.311
13729SOL    HW143084   6.877  14.866  12.355
13729SOL    HW243085   6.791   0.110  12.316
13730SOL     OW43086  13.535  14.515  12.998
13730SOL    HW143087  13.546  14.464  12.918
13730SOL    HW243088  13.624  14.532  13.029
13731SOL     OW43089   1.324  12.223   5.574
13731SOL    HW143090   1.403  12.184   5.612
13731SOL    HW243091   1.355  12.276   5.501
13732SOL     OW43092  12.037   6.828   1.070
13732SOL    HW143093  11.976   6.779   1.015
13732SOL    HW243094  12.047   6.774   1.148
13733SOL     OW43095  12.743   3.095   3.481
13733SOL    HW143096  12.759   3.063   3.569
13733SOL    HW243097  12.694   3.177   3.494
13734SOL     OW43098   2.732   5.184   5.225
13734SOL    HW143099   2.673   5.190   5.300
13734SOL    HW243100   2.715   5.097   5.188
13735SOL     OW43101   9.324   7.292  10.143
13735SOL    HW143102   9.278   7.230  10.200
13735SOL    HW243103   9.327   7.374  10.194
13736SOL     OW43104   7.919  11.020   6.122
13736SOL    HW143105   7.900  11.106   6.086
13736SOL    HW243106   7.886  10.959   6.056
13737SOL     OW43107  14.211   6.299   1.038
13737SOL    HW143108  14.208   6.220   1.092
13737SOL    HW243109  14.270   6.358   1.085
13738SOL     OW43110   4.048  13.392   8.060
13738SOL    HW143111   3.985  13.462   8.074
13738SOL    HW243112   4.094  13.383   8.143
13739SOL     OW43113   4.199   9.073  10.089
13739SOL    HW143114   4.115   9.027  10.100
13739SOL    HW243115   4.256   9.036  10.156
13740SOL     OW43116   6.469  14.840   1.814
13740SOL    HW143117   6.437  14.800   1.895
13740SOL    HW243118   6.470  14.768   1.751
13741SOL     OW43119  14.048   5.847   1.260
13741SOL    HW143120  14.060   5.754   1.278
13741SOL    HW243121  13.990   5.850   1.183
13742SOL     OW43122   0.123   4.339   8.365
13742SOL    HW143123   0.061   4.268   8.383
13742SOL    HW243124   0.207   4.308   8.399
13743SOL     OW43125   7.974   5.394  10.222
13743SOL    HW143126   7.943   5.394  10.131
13743SOL    HW243127   7.903   5.434  10.271
13744SOL     OW43128   0.851   2.322   1.123
13744SOL    HW143129   0.905   2.284   1.054
13744SOL    HW243130   0.899   2.305   1.204
13745SOL     OW43131   0.587   7.607   2.730
13745SOL    HW143132   0.518   7.672   2.727
13745SOL    HW243133   0.666   7.655   2.705
13746SOL     OW43134   0.516   6.295   8.863
13746SOL    HW143135   0.529   6.220   8.921
13746SOL    HW243136   0.560   6.270   8.782
13747SOL     OW43137  13.476   6.465  10.495
13747SOL    HW143138  13.420   6.454  10.418
13747SOL    HW243139  13.486   6.560  10.504
13748SOL     OW43140  13.581   4.270  10.702
13748SOL    HW143141  13.640   4.343  10.683
13748SOL    HW243142  13.516   4.272  10.631
13749SOL     OW43143  12.292   3.876   7.148
13749SOL    HW143144  12.363   3.817   7.174
13749SOL    HW243145  12.326   3.922   7.072
13750SOL     OW43146   1.008   7.464   6.788
13750SOL    HW143147   0.931   7.453   6.845
13750SOL    HW243148   1.078   7.417   6.834
13751SOL     OW43149   3.362  11.766   9.869
13751SOL    HW143150   3.391  11.821   9.796
13751SOL    HW243151   3.430  11.775   9.935
13752SOL     OW43152   5.274   5.042  14.721
13752SOL    HW143153   5.289   4.960  14.674
13752SOL    HW243154   5.337   5.103  14.682
13753SOL     OW43155   2.030  13.400  10.106
13753SOL    HW143156   1.944  13.371  10.136
13753SOL    HW243157   2.015  13.491  10.079
13754SOL     OW43158   7.442  10.190   4.499
13754SOL    HW143159   7.531  10.155   4.502
13754SOL    HW243160   7.442  10.250   4.424
13755SOL     OW43161   2.819   0.891   2.425
13755SOL    HW143162   2.765   0.837   2.483
13755SOL    HW243163   2.865   0.951   2.484
13756SOL     OW43164  13.371  13.768   1.613
13756SOL    HW143165  13.336  13.857   1.621
13756SOL    HW243166  13.329  13.719   1.684
13757SOL     OW43167   3.178  14.613   6.992
13757SOL    HW143168   3.181  14.533   6.939
13757SOL    HW243169   3.269  14.642   6.996
13758SOL     OW43170  12.843   7.487   6.585
13758SOL    HW143171  12.908   7.539   6.632
13758SOL    HW243172  12.856   7.398   6.616
13759SOL     OW43173   4.285   2.191  13.690
13759SOL    HW143174   4.315   2.224  13.605
13759SOL    HW243175   4.211   2.247  13.713
13760SOL     OW43176   6.402  11.490   1.315
13760SOL    HW143177   6.350  11.502   1.395
13760SOL    HW243178   6.340  11.457   1.250
13761SOL     OW43179   1.215  13.197  11.197
13761SOL    HW143180   1.170  13.281  11.184
13761SOL    HW243181   1.297  13.207  11.149
13762SOL     OW43182   4.576  14.395   8.291
13762SOL    HW143183   4.518  14.401   8.367
13762SOL    HW243184   4.653  14.446   8.316
13763SOL     OW43185   8.391   4.460  13.925
13763SOL    HW143186   8.393   4.542  13.973
13763SOL    HW243187   8.377   4.393  13.992
13764SOL     OW43188   8.393  12.461  14.696
13764SOL    HW143189   8.396  12.526  14.626
13764SOL    HW243190   8.428  12.381  14.657
13765SOL     OW43191   2.614   4.737   4.593
13765SOL    HW143192   2.659   4.674   4.535
13765SOL    HW243193   2.521   4.717   4.583
13766SOL     OW43194   8.850   4.404  12.193
13766SOL    HW143195   8.894   4.379  12.112
13766SOL    HW243196   8.775   4.456  12.165
13767SOL     OW43197  10.446   8.329   6.260
13767SOL    HW143198  10.446   8.243   6.303
13767SOL    HW243199  10.521   8.325   6.200
13768SOL     OW43200  10.821   2.076   0.055
13768SOL    HW143201  10.844   2.025  14.853
13768SOL    HW243202  10.830   2.168   0.027
13769SOL     OW43203  10.265   1.204   4.265
13769SOL    HW143204  10.261   1.124   4.211
13769SOL    HW243205  10.182   1.204   4.313
13770SOL     OW43206   5.808  13.072  12.331
13770SOL    HW143207   5.780  12.984  12.306
13770SOL    HW243208   5.875  13.095  12.267
13771SOL     OW43209  14.799   7.651  12.573
13771SOL    HW143210  14.865   7.675  12.637
13771SOL    HW243211  14.811   7.713  12.501
13772SOL     OW43212   3.077   0.656   5.105
13772SOL    HW143213   3.116   0.571   5.086
13772SOL    HW243214   3.149   0.718   5.097
13773SOL     OW43215   5.514   4.458  10.952
13773SOL    HW143216   5.458   4.533  10.929
13773SOL    HW243217   5.603   4.493  10.950
13774SOL     OW43218   2.982   7.178   2.579
13774SOL    HW143219   2.983   7.084   2.597
13774SOL    HW243220   3.009   7.185   2.488
13775SOL     OW43221   0.968   7.450   1.432
13775SOL    HW143222   0.907   7.437   1.505
13775SOL    HW243223   1.053   7.427   1.468
13776SOL     OW43224   8.448   8.774   3.842
13776SOL    HW143225   8.434   8.729   3.925
13776SOL    HW243226   8.360   8.783   3.805
13777SOL     OW43227   4.844   4.665   1.577
13777SOL    HW143228   4.789   4.717   1.518
13777SOL    HW243229   4.842   4.577   1.540
13778SOL     OW43230  11.529   0.319   4.407
13778SOL    HW143231  11.530   0.296   4.315
13778SOL    HW243232  11.441   0.353   4.423
13779SOL     OW43233   7.916  12.157  10.589
13779SOL    HW143234   7.879  12.185  10.506
13779SOL    HW243235   7.934  12.063  10.577
13780SOL     OW43236   8.773  12.072  12.219
13780SOL    HW143237   8.761  12.011  12.291
13780SOL    HW243238   8.841  12.132  12.249
13781SOL     OW43239   7.837   2.920   4.851
13781SOL    HW143240   7.852   3.005   4.892
13781SOL    HW243241   7.917   2.902   4.802
13782SOL     OW43242  11.228  13.339  11.011
13782SOL    HW143243  11.161  13.401  10.982
13782SOL    HW243244  11.220  13.266  10.950
13783SOL     OW43245  14.708  10.627   7.885
13783SOL    HW143246  14.653  10.666   7.817
13783SOL    HW243247  14.775  10.579   7.836
13784SOL     OW43248  11.237   5.250  12.731
13784SOL    HW143249  11.319   5.203  12.716
13784SOL    HW243250  11.254   5.338  12.697
13785SOL     OW43251   9.965   1.939   5.294
13785SOL    HW143252  10.035   1.965   5.353
13785SOL    HW243253   9.989   1.977   5.209
13786SOL     OW43254   8.432   1.673  14.020
13786SOL    HW143255   8.486   1.749  13.997
13786SOL    HW243256   8.346   1.693  13.983
13787SOL     OW43257  13.652   9.080   8.722
13787SOL    HW143258  13.630   9.133   8.799
13787SOL    HW243259  13.676   9.144   8.655
13788SOL     OW43260  11.939   4.755   6.550
13788SOL    HW143261  11.907   4.782   6.636
13788SOL    HW243262  11.978   4.669   6.565
13789SOL     OW43263   2.656  11.283  10.341
13789SOL    HW143264   2.575  11.332  10.327
13789SOL    HW243265   2.659  11.266  10.435
13790SOL     OW43266   5.907  11.068  13.944
13790SOL    HW143267   5.893  11.163  13.937
13790SOL    HW243268   5.839  11.038  14.003
13791SOL     OW43269  13.105   8.246   8.481
13791SOL    HW143270  13.179   8.305   8.468
13791SOL    HW243271  13.141   8.175   8.535
13792SOL     OW43272   0.220   1.781  13.307
13792SOL    HW143273   0.134   1.740  13.302
13792SOL    HW243274   0.246   1.794  13.216
13793SOL     OW43275   3.528   7.185   5.910
13793SOL    HW143276   3.577   7.193   5.828
13793SOL    HW243277   3.594   7.164   5.976
13794SOL     OW43278   1.512  14.333   0.859
13794SOL    HW143279   1.587  14.320   0.918
13794SOL    HW243280   1.550  14.325   0.771
13795SOL     OW43281  13.164   7.393   9.963
13795SOL    HW143282  13.143   7.374   9.872
13795SOL    HW243283  13.144   7.486   9.973
13796SOL     OW43284   6.539   0.100   1.265
13796SOL    HW143285   6.460   0.056   1.234
13796SOL    HW243286   6.521   0.121   1.356
13797SOL     OW43287   3.775   3.033  13.759
13797SOL    HW143288   3.843   2.994  13.703
13797SOL    HW243289   3.774   3.125  13.734
13798SOL     OW43290   5.421  10.724   8.901
13798SOL    HW143291   5.510  10.694   8.887
13798SOL    HW243292   5.373  10.691   8.824
13799SOL     OW43293   7.616   7.701   3.756
13799SOL    HW143294   7.652   7.778   3.799
13799SOL    HW243295   7.609   7.636   3.826
13800SOL     OW43296   4.875   5.650   0.833
13800SOL    HW143297   4.920   5.608   0.760
13800SOL    HW243298   4.900   5.597   0.909
13801SOL     OW43299  10.061  11.294  10.418
13801SOL    HW143300  10.057  11.299  10.323
13801SOL    HW243301  10.154  11.300  10.439
13802SOL     OW43302  13.728   0.013   3.031
13802SOL    HW143303  13.773   0.081   3.079
13802SOL    HW243304  13.719   0.048   2.942
13803SOL     OW43305   2.037   1.528  10.065
13803SOL    HW143306   2.030   1.436  10.090
13803SOL    HW243307   2.127   1.538  10.035
13804SOL     OW43308  12.220  11.719  11.359
13804SOL    HW143309  12.230  11.658  11.432
13804SOL    HW243310  12.207  11.804  11.400
13805SOL     OW43311   8.773   7.442   6.541
13805SOL    HW143312   8.768   7.459   6.635
13805SOL    HW243313   8.864   7.462   6.518
13806SOL     OW43314  11.450  13.275   0.145
13806SOL    HW143315  11.423  13.366   0.156
13806SOL    HW243316  11.478  13.248   0.233
13807SOL     OW43317   6.585  12.663   7.946
13807SOL    HW143318   6.668  12.709   7.960
13807SOL    HW243319   6.531  12.725   7.896
13808SOL     OW43320  10.034   8.202   3.821
13808SOL    HW143321  10.019   8.261   3.747
13808SOL    HW243322  10.089   8.133   3.786
13809SOL     OW43323   6.766   7.798  11.072
13809SOL    HW143324   6.825   7.833  11.139
13809SOL    HW243325   6.755   7.870  11.010
13810SOL     OW43326   2.238  12.729   6.187
13810SOL    HW143327   2.245  12.774   6.271
13810SOL    HW243328   2.318  12.677   6.181
13811SOL     OW43329   7.855  13.536   3.544
13811SOL    HW143330   7.769  13.563   3.575
13811SOL    HW243331   7.855  13.440   3.553
13812SOL     OW43332   8.289   0.940   9.942
13812SOL    HW143333   8.291   1.002  10.015
13812SOL    HW243334   8.347   0.978   9.877
13813SOL     OW43335   8.267   9.837   5.617
13813SOL    HW143336   8.275   9.775   5.688
13813SOL    HW243337   8.352   9.836   5.573
13814SOL     OW43338   7.299   4.044  13.417
13814SOL    HW143339   7.288   3.949  13.424
13814SOL    HW243340   7.226   4.081  13.467
13815SOL     OW43341   9.079   1.877  10.570
13815SOL    HW143342   9.064   1.812  10.639
13815SOL    HW243343   9.027   1.952  10.596
13816SOL     OW43344   7.487  13.886   4.693
13816SOL    HW143345   7.395  13.897   4.670
13816SOL    HW243346   7.499  13.940   4.771
13817SOL     OW43347   1.259  13.316  12.444
13817SOL    HW143348   1.280  13.223  12.452
13817SOL    HW243349   1.262  13.349  12.533
13818SOL     OW43350   8.784   8.051  13.099
13818SOL    HW143351   8.792   7.973  13.153
13818SOL    HW243352   8.693   8.079  13.111
13819SOL     OW43353   4.283   5.058   7.941
13819SOL    HW143354   4.271   5.153   7.935
13819SOL    HW243355   4.377   5.048   7.957
13820SOL     OW43356  10.285   6.107  12.449
13820SOL    HW143357  10.347   6.038  12.424
13820SOL    HW243358  10.205   6.060  12.472
13821SOL     OW43359   5.886   2.140   0.648
13821SOL    HW143360   5.899   2.199   0.573
13821SOL    HW243361   5.941   2.065   0.630
13822SOL     OW43362   2.700   1.959  12.903
13822SOL    HW143363   2.756   1.882  12.906
13822SOL    HW243364   2.738   2.019  12.967
13823SOL     OW43365  12.734   1.113   7.751
13823SOL    HW143366  12.640   1.104   7.763
13823SOL    HW243367  12.744   1.146   7.661
13824SOL     OW43368   3.627  13.410  12.028
13824SOL    HW143369   3.676  13.333  12.059
13824SOL    HW243370   3.682  13.448  11.960
13825SOL     OW43371   1.778   7.244   2.976
13825SOL    HW143372   1.822   7.282   2.900
13825SOL    HW243373   1.741   7.319   3.023
13826SOL     OW43374  12.513   6.626   1.871
13826SOL    HW143375  12.575   6.570   1.917
13826SOL    HW243376  12.429   6.609   1.914
13827SOL     OW43377  13.251  11.117   6.037
13827SOL    HW143378  13.171  11.170   6.028
13827SOL    HW243379  13.322  11.176   6.013
13828SOL     OW43380   7.463  11.890  12.980
13828SOL    HW143381   7.415  11.966  13.013
13828SOL    HW243382   7.421  11.869  12.897
13829SOL     OW43383   9.446   0.601   7.942
13829SOL    HW143384   9.489   0.576   7.860
13829SOL    HW243385   9.419   0.692   7.929
13830SOL     OW43386   5.138  12.539  13.067
13830SOL    HW143387   5.184  12.456  13.056
13830SOL    HW243388   5.118  12.543  13.161
13831SOL     OW43389   1.334  13.698   2.832
13831SOL    HW143390   1.334  13.633   2.762
13831SOL    HW243391   1.425  13.727   2.837
13832SOL     OW43392   9.721   4.328  13.291
13832SOL    HW143393   9.795   4.308  13.348
13832SOL    HW243394   9.718   4.255  13.228
13833SOL     OW43395  12.673   6.333   1.226
13833SOL    HW143396  12.632   6.268   1.170
13833SOL    HW243397  12.707   6.399   1.166
13834SOL     OW43398  11.714   7.925   3.700
13834SOL    HW143399  11.791   7.978   3.679
13834SOL    HW243400  11.745   7.863   3.765
13835SOL     OW43401   8.854  11.791   5.067
13835SOL    HW143402   8.890  11.844   5.138
13835SOL    HW243403   8.902  11.820   4.990
13836SOL     OW43404   5.018  11.067  12.474
13836SOL    HW143405   5.068  11.005  12.422
13836SOL    HW243406   5.074  11.145  12.479
13837SOL     OW43407   6.544   2.155   2.212
13837SOL    HW143408   6.593   2.223   2.167
13837SOL    HW243409   6.582   2.073   2.181
13838SOL     OW43410  11.896   2.742   7.488
13838SOL    HW143411  11.839   2.763   7.414
13838SOL    HW243412  11.857   2.788   7.562
13839SOL     OW43413   8.507   1.058   9.175
13839SOL    HW143414   8.501   1.153   9.175
13839SOL    HW243415   8.480   1.032   9.087
13840SOL     OW43416   7.830   7.781   2.034
13840SOL    HW143417   7.830   7.835   2.113
13840SOL    HW243418   7.760   7.817   1.980
13841SOL     OW43419   1.146   4.298  12.964
13841SOL    HW143420   1.127   4.368  12.902
13841SOL    HW243421   1.238   4.276  12.948
13842SOL     OW43422  14.215   3.847  10.250
13842SOL    HW143423  14.278   3.826  10.181
13842SOL    HW243424  14.144   3.783  10.239
13843SOL     OW43425   5.601  11.849   2.352
13843SOL    HW143426   5.634  11.837   2.264
13843SOL    HW243427   5.606  11.762   2.392
13844SOL     OW43428  14.242  12.824  11.902
13844SOL    HW143429  14.268  12.778  11.981
13844SOL    HW243430  14.272  12.768  11.830
13845SOL     OW43431   6.378  12.211   8.672
13845SOL    HW143432   6.393  12.143   8.606
13845SOL    HW243433   6.286  12.235   8.661
13846SOL     OW43434  11.490   7.287   9.925
13846SOL    HW143435  11.398   7.310   9.912
13846SOL    HW243436  11.503   7.208   9.873
13847SOL     OW43437  13.362   3.065   6.811
13847SOL    HW143438  13.326   2.978   6.823
13847SOL    HW243439  13.337   3.090   6.722
13848SOL     OW43440   2.061   6.198   6.108
13848SOL    HW143441   2.130   6.141   6.143
13848SOL    HW243442   2.104   6.247   6.038
13849SOL     OW43443  12.229   1.517   8.036
13849SOL    HW143444  12.218   1.531   7.942
13849SOL    HW243445  12.145   1.542   8.074
13850SOL     OW43446   5.655   5.090   1.733
13850SOL    HW143447   5.652   5.084   1.829
13850SOL    HW243448   5.581   5.147   1.710
13851SOL     OW43449   4.325   4.599   0.404
13851SOL    HW143450   4.249   4.653   0.380
13851SOL    HW243451   4.289   4.512   0.420
13852SOL     OW43452   0.324  10.287   9.831
13852SOL    HW143453   0.409  10.246   9.816
13852SOL    HW243454   0.272  10.219   9.873
13853SOL     OW43455  13.903   9.111  11.869
13853SOL    HW143456  13.916   9.150  11.956
13853SOL    HW243457  13.854   9.176  11.820
13854SOL     OW43458  10.666   8.636   9.888
13854SOL    HW143459  10.586   8.585   9.875
13854SOL    HW243460  10.646   8.694   9.962
13855SOL     OW43461   1.475   3.201  13.797
13855SOL    HW143462   1.409   3.148  13.841
13855SOL    HW243463   1.429   3.242  13.725
13856SOL     OW43464   9.555  13.248   8.174
13856SOL    HW143465   9.537  13.340   8.194
13856SOL    HW243466   9.495  13.199   8.230
13857SOL     OW43467  10.241   6.910  14.074
13857SOL    HW143468  10.296   6.915  14.153
13857SOL    HW243469  10.188   6.990  14.077
13858SOL     OW43470   3.862   2.119   3.506
13858SOL    HW143471   3.859   2.178   3.431
13858SOL    HW243472   3.880   2.177   3.581
13859SOL     OW43473  10.994  11.798   5.851
13859SOL    HW143474  10.925  11.750   5.896
13859SOL    HW243475  10.971  11.791   5.758
13860SOL     OW43476   7.620   7.614   7.446
13860SOL    HW143477   7.654   7.639   7.532
13860SOL    HW243478   7.685   7.553   7.412
13861SOL     OW43479  12.374   7.767   6.742
13861SOL    HW143480  12.319   7.688   6.744
13861SOL    HW243481  12.452   7.743   6.792
13862SOL     OW43482   1.963   5.655  10.596
13862SOL    HW143483   1.873   5.688  10.593
13862SOL    HW243484   1.966   5.589  10.527
13863SOL     OW43485  11.978   6.668   4.093
13863SOL    HW143486  11.972   6.600   4.160
13863SOL    HW243487  11.900   6.654   4.038
13864SOL     OW43488  11.481   0.345   3.257
13864SOL    HW143489  11.419   0.290   3.305
13864SOL    HW243490  11.464   0.325   3.165
13865SOL     OW43491   1.002   3.964   3.405
13865SOL    HW143492   1.091   3.975   3.438
13865SOL    HW243493   1.012   3.907   3.329
13866SOL     OW43494   6.844  13.924   4.156
13866SOL    HW143495   6.836  13.831   4.180
13866SOL    HW243496   6.932  13.948   4.184
13867SOL     OW43497   8.039   6.607  12.234
13867SOL    HW143498   8.116   6.553  12.215
13867SOL    HW243499   8.074   6.695  12.243
13868SOL     OW43500   2.481   1.217   0.307
13868SOL    HW143501   2.486   1.145   0.370
13868SOL    HW243502   2.447   1.176   0.228
13869SOL     OW43503  14.113  12.359  12.320
13869SOL    HW143504  14.157  12.439  12.349
13869SOL    HW243505  14.077  12.321  12.401
13870SOL     OW43506   1.251   8.764   0.659
13870SOL    HW143507   1.295   8.771   0.744
13870SOL    HW243508   1.162   8.735   0.680
13871SOL     OW43509   0.120  12.828  14.098
13871SOL    HW143510   0.099  12.748  14.050
13871SOL    HW243511   0.084  12.815  14.185
13872SOL     OW43512  13.481   5.486   8.325
13872SOL    HW143513  13.421   5.560   8.317
13872SOL    HW243514  13.561   5.525   8.362
13873SOL     OW43515   1.634   9.359  14.147
13873SOL    HW143516   1.678   9.274  14.136
13873SOL    HW243517   1.614   9.386  14.057
13874SOL     OW43518   0.439   3.754   9.770
13874SOL    HW143519   0.355   3.708   9.766
13874SOL    HW243520   0.496   3.706   9.710
13875SOL     OW43521   8.065  12.280   7.682
13875SOL    HW143522   8.135  12.243   7.628
13875SOL    HW243523   8.099  12.365   7.710
13876SOL     OW43524  12.100  10.084   8.126
13876SOL    HW143525  12.024  10.059   8.178
13876SOL    HW243526  12.171  10.092   8.189
13877SOL     OW43527   9.186  13.753   9.778
13877SOL    HW143528   9.216  13.843   9.792
13877SOL    HW243529   9.153  13.753   9.688
13878SOL     OW43530   7.388  14.317   0.886
13878SOL    HW143531   7.294  14.316   0.869
13878SOL    HW243532   7.427  14.288   0.804
13879SOL     OW43533   2.429  10.588  13.682
13879SOL    HW143534   2.375  10.512  13.660
13879SOL    HW243535   2.515  10.568  13.645
13880SOL     OW43536   5.578   0.467   9.848
13880SOL    HW143537   5.568   0.471   9.943
13880SOL    HW243538   5.661   0.422   9.835
13881SOL     OW43539   1.155   5.380  12.349
13881SOL    HW143540   1.075   5.356  12.395
13881SOL    HW243541   1.125   5.423  12.269
13882SOL     OW43542   2.843  14.198  14.432
13882SOL    HW143543   2.881  14.159  14.510
13882SOL    HW243544   2.832  14.124  14.372
13883SOL     OW43545  12.088  14.068   1.405
13883SOL    HW143546  12.115  14.033   1.320
13883SOL    HW243547  12.171  14.080   1.452
13884SOL     OW43548   3.304   6.831   1.116
13884SOL    HW143549   3.298   6.736   1.114
13884SOL    HW243550   3.388   6.851   1.075
13885SOL     OW43551   5.841   4.692   9.344
13885SOL    HW143552   5.761   4.740   9.369
13885SOL    HW243553   5.910   4.758   9.349
13886SOL     OW43554   2.019   3.571   8.831
13886SOL    HW143555   2.074   3.616   8.896
13886SOL    HW243556   1.955   3.637   8.804
13887SOL     OW43557   4.894  14.443   1.955
13887SOL    HW143558   4.903  14.369   1.895
13887SOL    HW243559   4.865  14.515   1.898
13888SOL     OW43560  11.481  12.228   3.222
13888SOL    HW143561  11.480  12.287   3.147
13888SOL    HW243562  11.574  12.209   3.236
13889SOL     OW43563   1.591   7.452   6.332
13889SOL    HW143564   1.584   7.460   6.237
13889SOL    HW243565   1.549   7.368   6.352
13890SOL     OW43566  10.082   3.278   6.360
13890SOL    HW143567  10.069   3.202   6.416
13890SOL    HW243568  10.141   3.335   6.410
13891SOL     OW43569  10.965  13.084  11.887
13891SOL    HW143570  10.933  13.115  11.802
13891SOL    HW243571  11.008  13.160  11.926
13892SOL     OW43572  12.319  10.208   8.330
13892SOL    HW143573  12.406  10.246   8.322
13892SOL    HW243574  12.333  10.124   8.375
13893SOL     OW43575  13.242   7.727   7.526
13893SOL    HW143576  13.184   7.741   7.451
13893SOL    HW243577  13.197   7.661   7.578
13894SOL     OW43578   7.772   6.192  14.184
13894SOL    HW143579   7.785   6.181  14.090
13894SOL    HW243580   7.755   6.103  14.216
13895SOL     OW43581  11.487   7.345   8.371
13895SOL    HW143582  11.448   7.369   8.455
13895SOL    HW243583  11.517   7.255   8.383
13896SOL     OW43584   8.404   2.206  12.444
13896SOL    HW143585   8.433   2.150  12.515
13896SOL    HW243586   8.318   2.237  12.471
13897SOL     OW43587   0.664   9.676  14.288
13897SOL    HW143588   0.712   9.735  14.230
13897SOL    HW243589   0.572   9.697  14.272
13898SOL     OW43590   7.073  13.207   7.265
13898SOL    HW143591   7.074  13.238   7.355
13898SOL    HW243592   7.021  13.127   7.267
13899SOL     OW43593   5.101   3.200   9.305
13899SOL    HW143594   5.079   3.281   9.351
13899SOL    HW243595   5.185   3.219   9.262
13900SOL     OW43596   5.936   2.441   2.380
13900SOL    HW143597   5.876   2.371   2.354
13900SOL    HW243598   6.000   2.446   2.309
13901SOL     OW43599   2.141   3.612  13.570
13901SOL    HW143600   2.166   3.705  13.574
13901SOL    HW243601   2.149   3.588  13.478
13902SOL     OW43602  11.894   9.364  11.080
13902SOL    HW143603  11.965   9.303  11.098
13902SOL    HW243604  11.933   9.430  11.022
13903SOL     OW43605   3.670  10.336  14.475
13903SOL    HW143606   3.696  10.244  14.481
13903SOL    HW243607   3.628  10.355  14.559
13904SOL     OW43608  10.824   3.985   4.553
13904SOL    HW143609  10.734   4.004   4.524
13904SOL    HW243610  10.862   3.935   4.481
13905SOL     OW43611   2.355  12.337  10.501
13905SOL    HW143612   2.398  12.255  10.476
13905SOL    HW243613   2.291  12.311  10.567
13906SOL     OW43614  11.806   2.850   3.893
13906SOL    HW143615  11.732   2.901   3.861
13906SOL    HW243616  11.790   2.839   3.987
13907SOL     OW43617   8.660   2.703   7.647
13907SOL    HW143618   8.614   2.643   7.705
13907SOL    HW243619   8.651   2.664   7.560
13908SOL     OW43620   1.337   5.457  11.085
13908SOL    HW143621   1.289   5.537  11.109
13908SOL    HW243622   1.269   5.393  11.064
13909SOL     OW43623   1.808  12.476   7.376
13909SOL    HW143624   1.750  12.479   7.452
13909SOL    HW243625   1.891  12.441   7.410
13910SOL     OW43626   0.505  13.644   2.552
13910SOL    HW143627   0.563  13.675   2.483
13910SOL    HW243628   0.539  13.558   2.576
13911SOL     OW43629   6.453   2.878   5.571
13911SOL    HW143630   6.469   2.784   5.570
13911SOL    HW243631   6.383   2.889   5.635
13912SOL     OW43632   6.067  13.007   6.889
13912SOL    HW143633   6.145  12.957   6.864
13912SOL    HW243634   6.077  13.091   6.844
13913SOL     OW43635   0.019  13.030   2.430
13913SOL    HW143636  14.857  12.944   2.446
13913SOL    HW243637   0.033  13.067   2.517
13914SOL     OW43638   8.128   3.285   4.426
13914SOL    HW143639   8.170   3.261   4.344
13914SOL    HW243640   8.139   3.380   4.433
13915SOL     OW43641   0.650   8.204  14.097
13915SOL    HW143642   0.695   8.159  14.167
13915SOL    HW243643   0.645   8.141  14.026
13916SOL     OW43644  12.445   6.009   6.503
13916SOL    HW143645  12.440   5.981   6.594
13916SOL    HW243646  12.531   5.979   6.473
13917SOL     OW43647  14.670   9.837   7.939
13917SOL    HW143648  14.614   9.903   7.898
13917SOL    HW243649  14.755   9.879   7.949
13918SOL     OW43650  10.447   1.612   5.768
13918SOL    HW143651  10.411   1.699   5.783
13918SOL    HW243652  10.542   1.625   5.767
13919SOL     OW43653  11.160   7.321   1.876
13919SOL    HW143654  11.122   7.341   1.791
13919SOL    HW243655  11.195   7.405   1.907
13920SOL     OW43656  10.728  13.298  11.423
13920SOL    HW143657  10.795  13.248  11.469
13920SOL    HW243658  10.653  13.301  11.483
13921SOL     OW43659  12.764  10.966   0.956
13921SOL    HW143660  12.823  10.929   0.890
13921SOL    HW243661  12.720  10.890   0.994
13922SOL     OW43662   1.050   6.425   0.202
13922SOL    HW143663   1.098   6.354   0.160
13922SOL    HW243664   0.961   6.418   0.167
13923SOL     OW43665   2.608   6.362   2.089
13923SOL    HW143666   2.688   6.322   2.124
13923SOL    HW243667   2.601   6.328   2.000
13924SOL     OW43668  13.010  14.810   3.653
13924SOL    HW143669  13.056  14.726   3.645
13924SOL    HW243670  12.990  14.818   3.746
13925SOL     OW43671   7.347   3.409   8.054
13925SOL    HW143672   7.332   3.487   8.108
13925SOL    HW243673   7.442   3.399   8.053
13926SOL     OW43674  13.011   3.806  10.182
13926SOL    HW143675  12.983   3.818  10.091
13926SOL    HW243676  12.934   3.769  10.225
13927SOL     OW43677   1.033   5.289   7.069
13927SOL    HW143678   1.059   5.239   6.992
13927SOL    HW243679   0.938   5.283   7.071
13928SOL     OW43680   3.554   3.673   7.647
13928SOL    HW143681   3.486   3.694   7.711
13928SOL    HW243682   3.514   3.691   7.562
13929SOL     OW43683   5.147  12.402  11.791
13929SOL    HW143684   5.214  12.345  11.829
13929SOL    HW243685   5.159  12.394  11.696
13930SOL     OW43686  11.487  12.107   3.898
13930SOL    HW143687  11.470  12.194   3.933
13930SOL    HW243688  11.423  12.096   3.828
13931SOL     OW43689  14.086  13.742   1.526
13931SOL    HW143690  14.062  13.688   1.601
13931SOL    HW243691  14.138  13.813   1.563
13932SOL     OW43692   8.669   1.138   8.835
13932SOL    HW143693   8.661   1.142   8.740
13932SOL    HW243694   8.611   1.067   8.861
13933SOL     OW43695   9.111   0.379   5.363
13933SOL    HW143696   9.111   0.288   5.393
13933SOL    HW243697   9.147   0.375   5.275
13934SOL     OW43698   3.555  12.767   5.259
13934SOL    HW143699   3.522  12.678   5.251
13934SOL    HW243700   3.583  12.774   5.350
13935SOL     OW43701   5.075   0.759   5.436
13935SOL    HW143702   5.156   0.779   5.483
13935SOL    HW243703   5.051   0.842   5.394
13936SOL     OW43704   2.774   9.561  12.435
13936SOL    HW143705   2.803   9.491  12.377
13936SOL    HW243706   2.769   9.638  12.378
13937SOL     OW43707  11.433  14.456   8.650
13937SOL    HW143708  11.379  14.390   8.607
13937SOL    HW243709  11.377  14.534   8.654
13938SOL     OW43710   7.344  11.398  10.672
13938SOL    HW143711   7.274  11.461  10.655
13938SOL    HW243712   7.358  11.404  10.767
13939SOL     OW43713   4.884  11.423   2.679
13939SOL    HW143714   4.887  11.518   2.674
13939SOL    HW243715   4.909  11.393   2.591
13940SOL     OW43716   3.094  14.624   9.650
13940SOL    HW143717   3.187  14.645   9.643
13940SOL    HW243718   3.081  14.603   9.742
13941SOL     OW43719   1.088   9.183   4.427
13941SOL    HW143720   1.047   9.249   4.372
13941SOL    HW243721   1.181   9.206   4.426
13942SOL     OW43722   9.303  14.732  14.234
13942SOL    HW143723   9.382  14.750  14.286
13942SOL    HW243724   9.291  14.811  14.180
13943SOL     OW43725   3.048   5.187   6.873
13943SOL    HW143726   3.069   5.275   6.841
13943SOL    HW243727   3.075   5.187   6.964
13944SOL     OW43728   2.485   2.547   6.694
13944SOL    HW143729   2.417   2.531   6.628
13944SOL    HW243730   2.554   2.594   6.647
13945SOL     OW43731   7.410   8.292   5.658
13945SOL    HW143732   7.411   8.347   5.737
13945SOL    HW243733   7.439   8.206   5.689
13946SOL     OW43734   6.126  12.075   8.454
13946SOL    HW143735   6.033  12.055   8.457
13946SOL    HW243736   6.160  12.023   8.381
13947SOL     OW43737   7.487   9.903   7.874
13947SOL    HW143738   7.564   9.933   7.825
13947SOL    HW243739   7.413   9.928   7.820
13948SOL     OW43740   7.435   9.739   1.262
13948SOL    HW143741   7.428   9.834   1.245
13948SOL    HW243742   7.349   9.705   1.237
13949SOL     OW43743   4.395  12.526  11.200
13949SOL    HW143744   4.467  12.555  11.144
13949SOL    HW243745   4.324  12.587  11.180
13950SOL     OW43746   6.500   4.891   8.942
13950SOL    HW143747   6.480   4.872   8.850
13950SOL    HW243748   6.561   4.964   8.939
13951SOL     OW43749   6.850   6.243   1.870
13951SOL    HW143750   6.935   6.282   1.851
13951SOL    HW243751   6.847   6.235   1.965
13952SOL     OW43752  14.236  11.416  12.350
13952SOL    HW143753  14.161  11.361  12.373
13952SOL    HW243754  14.282  11.367  12.282
13953SOL     OW43755   5.080   7.233   1.037
13953SOL    HW143756   5.102   7.154   0.988
13953SOL    HW243757   5.043   7.292   0.971
13954SOL     OW43758   0.154   4.032   6.434
13954SOL    HW143759   0.108   3.973   6.494
13954SOL    HW243760   0.188   4.101   6.491
13955SOL     OW43761   8.425   8.092   8.908
13955SOL    HW143762   8.426   8.180   8.871
13955SOL    HW243763   8.404   8.035   8.834
13956SOL     OW43764  14.533   7.654  13.165
13956SOL    HW143765  14.524   7.580  13.105
13956SOL    HW243766  14.461   7.643  13.228
13957SOL     OW43767   0.193  13.478  13.232
13957SOL    HW143768   0.100  13.452  13.228
13957SOL    HW243769   0.240  13.404  13.194
13958SOL     OW43770  13.706  14.376   8.266
13958SOL    HW143771  13.695  14.372   8.361
13958SOL    HW243772  13.801  14.372   8.252
13959SOL     OW43773   9.826   1.115   3.992
13959SOL    HW143774   9.774   1.151   3.921
13959SOL    HW243775   9.902   1.174   3.998
13960SOL     OW43776   7.151   7.648   7.221
13960SOL    HW143777   7.205   7.721   7.192
13960SOL    HW243778   7.090   7.633   7.148
13961SOL     OW43779   9.495   0.811   7.084
13961SOL    HW143780   9.464   0.724   7.058
13961SOL    HW243781   9.416   0.857   7.112
13962SOL     OW43782   2.294  13.599  12.728
13962SOL    HW143783   2.332  13.555  12.652
13962SOL    HW243784   2.201  13.577  12.724
13963SOL     OW43785  13.414   1.412   1.990
13963SOL    HW143786  13.400   1.361   1.911
13963SOL    HW243787  13.408   1.349   2.061
13964SOL     OW43788  13.551   8.048   0.591
13964SOL    HW143789  13.549   7.954   0.607
13964SOL    HW243790  13.528   8.088   0.675
13965SOL     OW43791   2.302   6.605   0.721
13965SOL    HW143792   2.216   6.642   0.700
13965SOL    HW243793   2.362   6.645   0.659
13966SOL     OW43794   5.718   3.429  12.234
13966SOL    HW143795   5.786   3.459  12.173
13966SOL    HW243796   5.636   3.437  12.184
13967SOL     OW43797  10.075   8.887  13.296
13967SOL    HW143798  10.003   8.824  13.303
13967SOL    HW243799  10.084   8.922  13.385
13968SOL     OW43800   4.074  13.874  12.702
13968SOL    HW143801   3.990  13.854  12.662
13968SOL    HW243802   4.090  13.800  12.762
13969SOL     OW43803   3.592   1.003   7.621
13969SOL    HW143804   3.630   1.084   7.587
13969SOL    HW243805   3.551   1.030   7.704
13970SOL     OW43806   4.621   3.792   5.747
13970SOL    HW143807   4.564   3.724   5.710
13970SOL    HW243808   4.702   3.746   5.769
13971SOL     OW43809   3.337   8.013   8.429
13971SOL    HW143810   3.419   8.003   8.381
13971SOL    HW243811   3.300   8.095   8.397
13972SOL     OW43812   1.572   4.264   8.624
13972SOL    HW143813   1.490   4.252   8.672
13972SOL    HW243814   1.559   4.217   8.541
13973SOL     OW43815  11.316  13.853   3.618
13973SOL    HW143816  11.289  13.942   3.643
13973SOL    HW243817  11.277  13.796   3.684
13974SOL     OW43818   9.533   8.688   7.286
13974SOL    HW143819   9.570   8.740   7.357
13974SOL    HW243820   9.522   8.601   7.324
13975SOL     OW43821  12.993  14.253   0.845
13975SOL    HW143822  12.933  14.186   0.878
13975SOL    HW243823  13.016  14.305   0.923
13976SOL     OW43824   5.707   3.102  13.694
13976SOL    HW143825   5.771   3.032  13.706
13976SOL    HW243826   5.625   3.057  13.676
13977SOL     OW43827   6.293   4.291   8.179
13977SOL    HW143828   6.317   4.286   8.086
13977SOL    HW243829   6.363   4.343   8.218
13978SOL     OW43830   4.822  13.003  10.450
13978SOL    HW143831   4.844  12.932  10.510
13978SOL    HW243832   4.806  12.959  10.366
13979SOL     OW43833   1.891   0.509   8.703
13979SOL    HW143834   1.872   0.458   8.625
13979SOL    HW243835   1.853   0.595   8.685
13980SOL     OW43836   5.851   6.222   0.139
13980SOL    HW143837   5.804   6.303   0.119
13980SOL    HW243838   5.922   6.219   0.075
13981SOL     OW43839   3.879  13.547  14.078
13981SOL    HW143840   3.812  13.615  14.071
13981SOL    HW243841   3.962  13.595  14.078
13982SOL     OW43842  10.467   4.712  14.381
13982SOL    HW143843  10.491   4.669  14.298
13982SOL    HW243844  10.547   4.713  14.432
13983SOL     OW43845   3.988   0.189   3.929
13983SOL    HW143846   4.056   0.184   3.995
13983SOL    HW243847   3.967   0.097   3.909
13984SOL     OW43848   7.391   9.592  14.839
13984SOL    HW143849   7.352   9.512  14.803
13984SOL    HW243850   7.326   9.624   0.027
13985SOL     OW43851   6.645   9.977   9.744
13985SOL    HW143852   6.697  10.018   9.813
13985SOL    HW243853   6.599  10.050   9.703
13986SOL     OW43854  13.132   1.389   5.798
13986SOL    HW143855  13.126   1.451   5.871
13986SOL    HW243856  13.156   1.306   5.840
13987SOL     OW43857   1.698   3.177   5.225
13987SOL    HW143858   1.666   3.095   5.188
13987SOL    HW243859   1.624   3.212   5.273
13988SOL     OW43860   9.763   4.286   5.811
13988SOL    HW143861   9.819   4.351   5.854
13988SOL    HW243862   9.694   4.267   5.875
13989SOL     OW43863   6.624   9.196   5.806
13989SOL    HW143864   6.688   9.178   5.875
13989SOL    HW243865   6.540   9.171   5.844
13990SOL     OW43866   1.316   2.931   2.809
13990SOL    HW143867   1.300   3.006   2.867
13990SOL    HW243868   1.364   2.967   2.735
13991SOL     OW43869  11.011   4.587   0.238
13991SOL    HW143870  11.069   4.532   0.291
13991SOL    HW243871  10.925   4.578   0.279
13992SOL     OW43872   8.866  13.441   2.397
13992SOL    HW143873   8.945  13.438   2.451
13992SOL    HW243874   8.875  13.366   2.339
13993SOL     OW43875   7.216   5.017  13.028
13993SOL    HW143876   7.250   5.006  12.939
13993SOL    HW243877   7.216   5.111  13.043
13994SOL     OW43878  11.369   5.687  14.481
13994SOL    HW143879  11.297   5.624  14.486
13994SOL    HW243880  11.448   5.633  14.487
13995SOL     OW43881   9.677   3.023   4.827
13995SOL    HW143882   9.744   3.023   4.759
13995SOL    HW243883   9.647   2.932   4.831
13996SOL     OW43884   7.377   4.127   3.879
13996SOL    HW143885   7.413   4.209   3.846
13996SOL    HW243886   7.286   4.147   3.902
13997SOL     OW43887  14.032   9.360   1.515
13997SOL    HW143888  14.083   9.296   1.465
13997SOL    HW243889  14.084   9.375   1.594
13998SOL     OW43890   6.900   3.664   9.741
13998SOL    HW143891   6.937   3.742   9.783
13998SOL    HW243892   6.832   3.635   9.802
13999SOL     OW43893   5.894   4.297  11.199
13999SOL    HW143894   5.852   4.335  11.122
13999SOL    HW243895   5.982   4.335  11.200
14000SOL     OW43896   3.624  11.294   2.558
14000SOL    HW143897   3.681  11.357   2.513
14000SOL    HW243898   3.582  11.346   2.627
14001SOL     OW43899  10.653   1.495  14.461
14001SOL    HW143900  10.679   1.431  14.395
14001SOL    HW243901  10.731   1.508  14.515
14002SOL     OW43902  13.329   3.579  10.698
14002SOL    HW143903  13.365   3.586  10.786
14002SOL    HW243904  13.237   3.604  10.708
14003SOL     OW43905   2.496  13.424   9.547
14003SOL    HW143906   2.569  13.392   9.599
14003SOL    HW243907   2.461  13.346   9.503
14004SOL     OW43908  10.748   6.151   5.858
14004SOL    HW143909  10.776   6.209   5.928
14004SOL    HW243910  10.821   6.151   5.796
14005SOL     OW43911   8.927   1.979  12.869
14005SOL    HW143912   8.837   1.975  12.903
14005SOL    HW243913   8.951   2.071  12.877
14006SOL     OW43914   2.270  11.924   1.479
14006SOL    HW143915   2.297  11.891   1.393
14006SOL    HW243916   2.265  11.845   1.534
14007SOL     OW43917   3.665   3.441   2.360
14007SOL    HW143918   3.640   3.386   2.435
14007SOL    HW243919   3.760   3.427   2.351
14008SOL     OW43920   5.734   2.898   2.197
14008SOL    HW143921   5.808   2.955   2.216
14008SOL    HW243922   5.764   2.842   2.126
14009SOL     OW43923   1.952   9.691  10.008
14009SOL    HW143924   2.028   9.635   9.994
14009SOL    HW243925   1.904   9.649  10.080
14010SOL     OW43926  12.657   0.781   8.121
14010SOL    HW143927  12.741   0.818   8.092
14010SOL    HW243928  12.619   0.743   8.041
14011SOL     OW43929   8.665   5.956   0.337
14011SOL    HW143930   8.686   6.049   0.349
14011SOL    HW243931   8.750   5.912   0.344
14012SOL     OW43932  10.811   4.881  10.395
14012SOL    HW143933  10.840   4.802  10.441
14012SOL    HW243934  10.760   4.929  10.460
14013SOL     OW43935   9.527   5.852   8.671
14013SOL    HW143936   9.461   5.863   8.603
14013SOL    HW243937   9.508   5.767   8.710
14014SOL     OW43938  11.240   2.880   5.851
14014SOL    HW143939  11.169   2.816   5.845
14014SOL    HW243940  11.271   2.873   5.941
14015SOL     OW43941  14.803   8.953   9.168
14015SOL    HW143942  14.782   8.903   9.089
14015SOL    HW243943  14.741   8.922   9.233
14016SOL     OW43944  11.374  10.968   2.110
14016SOL    HW143945  11.426  10.897   2.070
14016SOL    HW243946  11.364  11.032   2.039
14017SOL     OW43947  10.634  12.500   3.502
14017SOL    HW143948  10.632  12.416   3.549
14017SOL    HW243949  10.544  12.514   3.474
14018SOL     OW43950  13.841   8.303   3.620
14018SOL    HW143951  13.915   8.309   3.559
14018SOL    HW243952  13.763   8.303   3.564
14019SOL     OW43953  10.467  10.515   1.017
14019SOL    HW143954  10.435  10.501   1.106
14019SOL    HW243955  10.558  10.542   1.029
14020SOL     OW43956   5.339  11.431   5.565
14020SOL    HW143957   5.353  11.413   5.658
14020SOL    HW243958   5.358  11.524   5.555
14021SOL     OW43959   6.098   6.169   8.161
14021SOL    HW143960   6.184   6.154   8.201
14021SOL    HW243961   6.036   6.134   8.224
14022SOL     OW43962   8.831  14.238  13.730
14022SOL    HW143963   8.802  14.327  13.711
14022SOL    HW243964   8.818  14.227  13.824
14023SOL     OW43965   8.448   4.712  10.168
14023SOL    HW143966   8.492   4.794  10.190
14023SOL    HW243967   8.471   4.697  10.076
14024SOL     OW43968   5.867  11.132   1.819
14024SOL    HW143969   5.938  11.091   1.769
14024SOL    HW243970   5.804  11.160   1.752
14025SOL     OW43971  10.464   5.851   7.960
14025SOL    HW143972  10.522   5.894   7.897
14025SOL    HW243973  10.513   5.773   7.988
14026SOL     OW43974   1.423   1.114   6.565
14026SOL    HW143975   1.362   1.167   6.616
14026SOL    HW243976   1.434   1.162   6.483
14027SOL     OW43977  12.171  11.587   3.769
14027SOL    HW143978  12.237  11.627   3.712
14027SOL    HW243979  12.173  11.494   3.747
14028SOL     OW43980  14.786  14.358  12.166
14028SOL    HW143981  14.863  14.379  12.112
14028SOL    HW243982  14.822  14.342  12.254
14029SOL     OW43983   0.102   2.819   7.322
14029SOL    HW143984   0.120   2.880   7.394
14029SOL    HW243985   0.182   2.818   7.270
14030SOL     OW43986  10.064  13.738   2.014
14030SOL    HW143987  10.115  13.664   2.048
14030SOL    HW243988  10.122  13.779   1.949
14031SOL     OW43989  10.459   0.327   0.306
14031SOL    HW143990  10.423   0.305   0.220
14031SOL    HW243991  10.480   0.421   0.300
14032SOL     OW43992  11.950  13.153   5.945
14032SOL    HW143993  11.884  13.087   5.964
14032SOL    HW243994  12.013  13.146   6.017
14033SOL     OW43995   2.198   9.141  11.126
14033SOL    HW143996   2.129   9.192  11.169
14033SOL    HW243997   2.206   9.062  11.179
14034SOL     OW43998  12.991   4.203  14.097
14034SOL    HW143999  13.062   4.221  14.036
14034SOL    HW244000  12.997   4.109  14.115
14035SOL     OW44001   7.055   8.330  13.859
14035SOL    HW144002   7.123   8.265  13.838
14035SOL    HW244003   7.090   8.412  13.825
14036SOL     OW44004  14.489   3.340   5.833
14036SOL    HW144005  14.565   3.343   5.891
14036SOL    HW244006  14.525   3.322   5.746
14037SOL     OW44007  14.523   3.597  14.481
14037SOL    HW144008  14.603   3.545  14.487
14037SOL    HW244009  14.551   3.687  14.498
14038SOL     OW44010  10.392  10.565   0.117
14038SOL    HW144011  10.323  10.575   0.051
14038SOL    HW244012  10.396  10.471   0.133
14039SOL     OW44013   3.429   1.664   9.001
14039SOL    HW144014   3.382   1.720   9.064
14039SOL    HW244015   3.472   1.726   8.943
14040SOL     OW44016   2.181  10.205   5.397
14040SOL    HW144017   2.094  10.229   5.431
14040SOL    HW244018   2.163  10.137   5.332
14041SOL     OW44019  13.974   2.858   7.632
14041SOL    HW144020  14.035   2.838   7.703
14041SOL    HW244021  13.890   2.822   7.662
14042SOL     OW44022   8.175   0.799   6.453
14042SOL    HW144023   8.141   0.840   6.373
14042SOL    HW244024   8.151   0.859   6.523
14043SOL     OW44025  12.730   0.401   5.874
14043SOL    HW144026  12.733   0.315   5.916
14043SOL    HW244027  12.759   0.462   5.942
14044SOL     OW44028   7.999   1.447  14.708
14044SOL    HW144029   8.058   1.521  14.694
14044SOL    HW244030   8.051   1.383  14.756
14045SOL     OW44031   5.372   1.748   2.322
14045SOL    HW144032   5.363   1.695   2.402
14045SOL    HW244033   5.291   1.732   2.274
14046SOL     OW44034   1.198   5.159   5.585
14046SOL    HW144035   1.106   5.136   5.603
14046SOL    HW244036   1.205   5.250   5.612
14047SOL     OW44037   4.838   9.214  10.297
14047SOL    HW144038   4.829   9.275  10.224
14047SOL    HW244039   4.897   9.258  10.358
14048SOL     OW44040   7.869   6.764   6.787
14048SOL    HW144041   7.866   6.736   6.879
14048SOL    HW244042   7.841   6.856   6.790
14049SOL     OW44043   8.601   3.087  11.459
14049SOL    HW144044   8.687   3.118  11.431
14049SOL    HW244045   8.616   3.047  11.545
14050SOL     OW44046   7.073   9.400   0.357
14050SOL    HW144047   7.099   9.311   0.333
14050SOL    HW244048   6.983   9.409   0.324
14051SOL     OW44049   5.444   2.393  12.267
14051SOL    HW144050   5.498   2.443  12.328
14051SOL    HW244051   5.477   2.418  12.180
14052SOL     OW44052   0.594   1.558   9.264
14052SOL    HW144053   0.599   1.599   9.350
14052SOL    HW244054   0.685   1.551   9.235
14053SOL     OW44055  13.420  12.214   1.776
14053SOL    HW144056  13.503  12.185   1.738
14053SOL    HW244057  13.389  12.138   1.826
14054SOL     OW44058   5.762   8.114  11.829
14054SOL    HW144059   5.791   8.176  11.896
14054SOL    HW244060   5.670   8.137  11.815
14055SOL     OW44061  13.672   7.357  13.392
14055SOL    HW144062  13.731   7.405  13.334
14055SOL    HW244063  13.627   7.425  13.442
14056SOL     OW44064  11.639   5.363   0.244
14056SOL    HW144065  11.611   5.310   0.320
14056SOL    HW244066  11.722   5.324   0.217
14057SOL     OW44067   4.016  12.436  14.043
14057SOL    HW144068   3.948  12.504  14.047
14057SOL    HW244069   4.027  12.419  13.950
14058SOL     OW44070  12.555   8.416   2.284
14058SOL    HW144071  12.626   8.459   2.333
14058SOL    HW244072  12.523   8.484   2.225
14059SOL     OW44073   3.328   7.159  12.584
14059SOL    HW144074   3.347   7.252  12.571
14059SOL    HW244075   3.411   7.115  12.566
14060SOL     OW44076  11.191   2.508   0.587
14060SOL    HW144077  11.222   2.522   0.498
14060SOL    HW244078  11.267   2.474   0.634
14061SOL     OW44079  13.663  10.800  11.675
14061SOL    HW144080  13.577  10.840  11.682
14061SOL    HW244081  13.658  10.745  11.596
14062SOL     OW44082  10.573   2.798   0.611
14062SOL    HW144083  10.537   2.887   0.613
14062SOL    HW244084  10.650   2.802   0.668
14063SOL     OW44085   7.736  12.191   5.269
14063SOL    HW144086   7.819  12.155   5.237
14063SOL    HW244087   7.739  12.176   5.364
14064SOL     OW44088   4.395  13.336   0.141
14064SOL    HW144089   4.453  13.375   0.076
14064SOL    HW244090   4.376  13.407   0.202
14065SOL     OW44091  12.813   2.813  14.150
14065SOL    HW144092  12.747   2.789  14.085
14065SOL    HW244093  12.801   2.908  14.163
14066SOL     OW44094   6.221  14.778  14.605
14066SOL    HW144095   6.295  14.795  14.547
14066SOL    HW244096   6.196  14.864  14.639
14067SOL     OW44097   9.958   9.852   0.425
14067SOL    HW144098   9.979   9.847   0.332
14067SOL    HW244099   9.985   9.767   0.460
14068SOL     OW44100  14.477   9.812  12.787
14068SOL    HW144101  14.385   9.808  12.759
14068SOL    HW244102  14.498   9.905  12.787
14069SOL     OW44103  10.799  12.324  10.855
14069SOL    HW144104  10.775  12.416  10.844
14069SOL    HW244105  10.888  12.326  10.891
14070SOL     OW44106   0.427   2.455   1.592
14070SOL    HW144107   0.381   2.374   1.613
14070SOL    HW244108   0.514   2.444   1.630
14071SOL     OW44109  10.323   8.066  13.727
14071SOL    HW144110  10.325   7.987  13.782
14071SOL    HW244111  10.246   8.053  13.671
14072SOL     OW44112   1.678   4.698   3.134
14072SOL    HW144113   1.745   4.630   3.130
14072SOL    HW244114   1.623   4.673   3.208
14073SOL     OW44115   8.145  14.214   2.784
14073SOL    HW144116   8.147  14.184   2.875
14073SOL    HW244117   8.216  14.278   2.778
14074SOL     OW44118   6.129  14.420   6.804
14074SOL    HW144119   6.115  14.412   6.710
14074SOL    HW244120   6.131  14.330   6.836
14075SOL     OW44121  12.971  14.280  12.783
14075SOL    HW144122  12.892  14.306  12.734
14075SOL    HW244123  12.962  14.186  12.796
14076SOL     OW44124  10.141   2.813   2.690
14076SOL    HW144125  10.148   2.738   2.631
14076SOL    HW244126  10.048   2.834   2.692
14077SOL     OW44127   1.346  14.502  14.223
14077SOL    HW144128   1.286  14.430  14.243
14077SOL    HW244129   1.428  14.478  14.267
14078SOL     OW44130  11.586  14.518   7.760
14078SOL    HW144131  11.633  14.602   7.761
14078SOL    HW244132  11.554  14.510   7.670
14079SOL     OW44133   6.860   5.691   4.094
14079SOL    HW144134   6.874   5.692   4.000
14079SOL    HW244135   6.798   5.762   4.110
14080SOL     OW44136   3.497  14.118   2.967
14080SOL    HW144137   3.462  14.202   2.997
14080SOL    HW244138   3.556  14.142   2.895
14081SOL     OW44139  13.414   0.020  14.192
14081SOL    HW144140  13.484   0.028  14.257
14081SOL    HW244141  13.456  14.856  14.115
14082SOL     OW44142   8.319  14.214   0.402
14082SOL    HW144143   8.328  14.228   0.307
14082SOL    HW244144   8.271  14.132   0.410
14083SOL     OW44145  14.846   9.227   2.792
14083SOL    HW144146  14.819   9.275   2.714
14083SOL    HW244147   0.063   9.206   2.777
14084SOL     OW44148   2.939   1.283  12.192
14084SOL    HW144149   3.004   1.304  12.124
14084SOL    HW244150   2.899   1.202  12.161
14085SOL     OW44151   1.058  11.773   9.819
14085SOL    HW144152   0.972  11.740   9.793
14085SOL    HW244153   1.117  11.700   9.803
14086SOL     OW44154   1.568   6.552  10.945
14086SOL    HW144155   1.635   6.531  11.010
14086SOL    HW244156   1.592   6.639  10.913
14087SOL     OW44157  10.636  13.726   2.621
14087SOL    HW144158  10.727  13.717   2.593
14087SOL    HW244159  10.586  13.727   2.540
14088SOL     OW44160   7.291   3.415   4.530
14088SOL    HW144161   7.332   3.483   4.476
14088SOL    HW244162   7.227   3.374   4.472
14089SOL     OW44163  12.216   9.426   3.958
14089SOL    HW144164  12.129   9.413   3.921
14089SOL    HW244165  12.201   9.476   4.038
14090SOL     OW44166   6.678   1.974   7.255
14090SOL    HW144167   6.658   1.888   7.220
14090SOL    HW244168   6.666   2.034   7.181
14091SOL     OW44169   6.656  11.095   4.206
14091SOL    HW144170   6.626  11.040   4.134
14091SOL    HW244171   6.576  11.135   4.241
14092SOL     OW44172   3.939   7.038   2.952
14092SOL    HW144173   3.884   6.964   2.928
14092SOL    HW244174   3.890   7.084   3.021
14093SOL     OW44175   9.907   0.968   0.687
14093SOL    HW144176   9.944   1.042   0.734
14093SOL    HW244177   9.868   1.006   0.609
14094SOL     OW44178   4.561   1.414   0.152
14094SOL    HW144179   4.654   1.393   0.158
14094SOL    HW244180   4.538   1.446   0.239
14095SOL     OW44181  14.227   0.616   6.716
14095SOL    HW144182  14.180   0.692   6.682
14095SOL    HW244183  14.315   0.624   6.680
14096SOL     OW44184  10.154  12.226   7.547
14096SOL    HW144185  10.085  12.223   7.481
14096SOL    HW244186  10.209  12.299   7.521
14097SOL     OW44187  13.131  13.523   2.674
14097SOL    HW144188  13.173  13.563   2.597
14097SOL    HW244189  13.055  13.580   2.691
14098SOL     OW44190   4.038  14.501  10.376
14098SOL    HW144191   3.975  14.507  10.447
14098SOL    HW244192   3.990  14.530  10.298
14099SOL     OW44193   9.374  13.290   9.973
14099SOL    HW144194   9.362  13.235  10.050
14099SOL    HW244195   9.466  13.318   9.978
14100SOL     OW44196   8.062   2.852   6.643
14100SOL    HW144197   8.059   2.780   6.580
14100SOL    HW244198   8.153   2.853   6.674
14101SOL     OW44199   6.821  12.016   1.998
14101SOL    HW144200   6.752  11.974   1.946
14101SOL    HW244201   6.852  11.947   2.057
14102SOL     OW44202  10.554  11.183  12.322
14102SOL    HW144203  10.485  11.225  12.271
14102SOL    HW244204  10.602  11.130  12.258
14103SOL     OW44205   4.997   5.056   7.097
14103SOL    HW144206   4.976   5.031   7.007
14103SOL    HW244207   4.966   5.146   7.105
14104SOL     OW44208   5.693   4.759  11.998
14104SOL    HW144209   5.641   4.835  12.022
14104SOL    HW244210   5.629   4.689  11.984
14105SOL     OW44211   1.026   5.448   4.927
14105SOL    HW144212   1.033   5.440   4.832
14105SOL    HW244213   0.997   5.538   4.941
14106SOL     OW44214  13.855   4.454   8.406
14106SOL    HW144215  13.804   4.527   8.370
14106SOL    HW244216  13.884   4.484   8.492
14107SOL     OW44217  12.806  12.942   4.879
14107SOL    HW144218  12.715  12.924   4.858
14107SOL    HW244219  12.836  12.999   4.808
14108SOL     OW44220   4.113   8.065   1.517
14108SOL    HW144221   4.174   8.115   1.571
14108SOL    HW244222   4.170   8.006   1.466
14109SOL     OW44223   4.239   4.358   0.474
14109SOL    HW144224   4.176   4.326   0.539
14109SOL    HW244225   4.311   4.294   0.477
14110SOL     OW44226   6.642   8.844   8.791
14110SOL    HW144227   6.664   8.913   8.854
14110SOL    HW244228   6.574   8.882   8.736
14111SOL     OW44229   7.844   3.277   1.411
14111SOL    HW144230   7.933   3.244   1.418
14111SOL    HW244231   7.846   3.363   1.454
14112SOL     OW44232   9.403  12.171   4.163
14112SOL    HW144233   9.424  12.231   4.234
14112SOL    HW244234   9.429  12.085   4.196
14113SOL     OW44235  11.576  12.172  10.138
14113SOL    HW144236  11.630  12.190  10.214
14113SOL    HW244237  11.577  12.077  10.130
14114SOL     OW44238   7.285  10.499   2.540
14114SOL    HW144239   7.193  10.517   2.522
14114SOL    HW244240   7.284  10.462   2.629
14115SOL     OW44241   0.968  13.728   4.687
14115SOL    HW144242   0.972  13.641   4.648
14115SOL    HW244243   0.895  13.771   4.642
14116SOL     OW44244   1.915   2.114  11.337
14116SOL    HW144245   1.975   2.113  11.262
14116SOL    HW244246   1.828   2.128  11.297
14117SOL     OW44247   8.170   6.443   0.840
14117SOL    HW144248   8.143   6.384   0.770
14117SOL    HW244249   8.088   6.471   0.881
14118SOL     OW44250   0.441   3.878   5.346
14118SOL    HW144251   0.470   3.847   5.432
14118SOL    HW244252   0.381   3.810   5.316
14119SOL     OW44253   6.244  11.192   7.856
14119SOL    HW144254   6.198  11.228   7.933
14119SOL    HW244255   6.187  11.122   7.825
14120SOL     OW44256  14.668   7.815  13.890
14120SOL    HW144257  14.677   7.865  13.971
14120SOL    HW244258  14.701   7.874  13.822
14121SOL     OW44259  12.894   9.001   6.196
14121SOL    HW144260  12.872   8.933   6.260
14121SOL    HW244261  12.926   8.953   6.120
14122SOL     OW44262  13.841   4.877  10.235
14122SOL    HW144263  13.834   4.967  10.269
14122SOL    HW244264  13.867   4.825  10.310
14123SOL     OW44265  12.536   8.729   9.128
14123SOL    HW144266  12.525   8.823   9.109
14123SOL    HW244267  12.447   8.695   9.133
14124SOL     OW44268   0.690   6.032   0.664
14124SOL    HW144269   0.685   6.091   0.588
14124SOL    HW244270   0.599   6.010   0.684
14125SOL     OW44271   6.851   2.326   2.300
14125SOL    HW144272   6.834   2.364   2.214
14125SOL    HW244273   6.845   2.231   2.285
14126SOL     OW44274   9.043  13.305   3.625
14126SOL    HW144275   9.005  13.217   3.625
14126SOL    HW244276   9.057  13.325   3.532
14127SOL     OW44277   5.816   1.259  13.837
14127SOL    HW144278   5.806   1.262  13.742
14127SOL    HW244279   5.782   1.173  13.862
14128SOL     OW44280   9.149   7.542  11.152
14128SOL    HW144281   9.098   7.472  11.192
14128SOL    HW244282   9.085   7.612  11.135
14129SOL     OW44283   6.784  14.329  11.151
14129SOL    HW144284   6.701  14.376  11.164
14129SOL    HW244285   6.850  14.384  11.193
14130SOL     OW44286  12.710  13.549  13.738
14130SOL    HW144287  12.725  13.544  13.833
14130SOL    HW244288  12.616  13.534  13.728
14131SOL     OW44289  10.334  11.571  14.225
14131SOL    HW144290  10.241  11.588  14.207
14131SOL    HW244291  10.364  11.649  14.271
14132SOL     OW44292  12.704  14.214  10.343
14132SOL    HW144293  12.699  14.266  10.423
14132SOL    HW244294  12.729  14.276  10.274
14133SOL     OW44295   9.533   7.285   3.422
14133SOL    HW144296   9.574   7.199   3.433
14133SOL    HW244297   9.588   7.329   3.357
14134SOL     OW44298  10.969  11.288   7.761
14134SOL    HW144299  10.939  11.198   7.762
14134SOL    HW244300  11.058  11.284   7.796
14135SOL     OW44301  10.705   7.218   8.139
14135SOL    HW144302  10.630   7.238   8.082
14135SOL    HW244303  10.694   7.126   8.161
14136SOL     OW44304   7.434   9.886   5.022
14136SOL    HW144305   7.360   9.944   5.005
14136SOL    HW244306   7.410   9.839   5.102
14137SOL     OW44307   0.560   9.658  13.933
14137SOL    HW144308   0.608   9.730  13.974
14137SOL    HW244309   0.474   9.661  13.974
14138SOL     OW44310   5.947   7.195   3.504
14138SOL    HW144311   5.896   7.115   3.495
14138SOL    HW244312   6.032   7.166   3.537
14139SOL     OW44313   5.936   9.643   5.270
14139SOL    HW144314   5.940   9.557   5.311
14139SOL    HW244315   5.925   9.626   5.177
14140SOL     OW44316   3.919   9.446   1.331
14140SOL    HW144317   3.835   9.448   1.287
14140SOL    HW244318   3.951   9.356   1.320
14141SOL     OW44319   9.800  14.495   2.310
14141SOL    HW144320   9.755  14.558   2.253
14141SOL    HW244321   9.885  14.535   2.326
14142SOL     OW44322   3.971   2.708   4.774
14142SOL    HW144323   3.935   2.747   4.695
14142SOL    HW244324   3.897   2.705   4.835
14143SOL     OW44325   5.797   8.789   2.796
14143SOL    HW144326   5.803   8.759   2.887
14143SOL    HW244327   5.815   8.883   2.800
14144SOL     OW44328   2.601   8.064   6.418
14144SOL    HW144329   2.519   8.017   6.409
14144SOL    HW244330   2.667   8.005   6.381
14145SOL     OW44331  12.886   5.420   3.481
14145SOL    HW144332  12.822   5.387   3.417
14145SOL    HW244333  12.961   5.448   3.428
14146SOL     OW44334  12.276   7.381   4.194
14146SOL    HW144335  12.277   7.327   4.273
14146SOL    HW244336  12.309   7.466   4.222
14147SOL     OW44337   0.511  14.672   3.630
14147SOL    HW144338   0.588  14.725   3.650
14147SOL    HW244339   0.490  14.629   3.713
14148SOL     OW44340  11.590   0.495  13.324
14148SOL    HW144341  11.548   0.411  13.344
14148SOL    HW244342  11.518   0.558  13.324
14149SOL     OW44343   4.281   7.509   6.035
14149SOL    HW144344   4.241   7.427   6.065
14149SOL    HW244345   4.208   7.569   6.023
14150SOL     OW44346  13.569   9.599   9.244
14150SOL    HW144347  13.529   9.530   9.191
14150SOL    HW244348  13.664   9.584   9.236
14151SOL     OW44349  12.583  10.741  13.049
14151SOL    HW144350  12.610  10.677  12.984
14151SOL    HW244351  12.599  10.826  13.008
14152SOL     OW44352   9.113  13.886   6.563
14152SOL    HW144353   9.106  13.877   6.658
14152SOL    HW244354   9.098  13.798   6.528
14153SOL     OW44355  10.388  10.382  13.015
14153SOL    HW144356  10.421  10.470  13.031
14153SOL    HW244357  10.298  10.384  13.047
14154SOL     OW44358  10.547   3.122   0.135
14154SOL    HW144359  10.480   3.157   0.193
14154SOL    HW244360  10.509   3.042   0.100
14155SOL     OW44361  11.927   4.423   5.533
14155SOL    HW144362  11.965   4.350   5.485
14155SOL    HW244363  11.962   4.414   5.622
14156SOL     OW44364  11.373   3.680   0.064
14156SOL    HW144365  11.283   3.683   0.032
14156SOL    HW244366  11.380   3.755   0.123
14157SOL     OW44367  12.800  11.161   0.069
14157SOL    HW144368  12.796  11.231   0.134
14157SOL    HW244369  12.816  11.206  14.861
14158SOL     OW44370   1.913   7.039   1.935
14158SOL    HW144371   1.925   7.001   1.848
14158SOL    HW244372   1.821   7.066   1.937
14159SOL     OW44373  14.620   4.484   0.554
14159SOL    HW144374  14.549   4.420   0.546
14159SOL    HW244375  14.629   4.498   0.649
14160SOL     OW44376  11.553   1.040   3.043
14160SOL    HW144377  11.469   1.073   3.074
14160SOL    HW244378  11.617   1.103   3.076
14161SOL     OW44379   7.794   6.691  10.170
14161SOL    HW144380   7.765   6.637  10.096
14161SOL    HW244381   7.770   6.641  10.247
14162SOL     OW44382   0.918  10.612   0.479
14162SOL    HW144383   0.835  10.565   0.472
14162SOL    HW244384   0.909  10.664   0.559
14163SOL     OW44385   6.068   6.092  12.898
14163SOL    HW144386   5.991   6.099  12.955
14163SOL    HW244387   6.064   6.002  12.864
14164SOL     OW44388  12.461  13.685   4.516
14164SOL    HW144389  12.492  13.660   4.604
14164SOL    HW244390  12.541  13.710   4.469
14165SOL     OW44391   1.854   2.524   9.221
14165SOL    HW144392   1.806   2.444   9.201
14165SOL    HW244393   1.785   2.590   9.234
14166SOL     OW44394  14.334   0.242  10.580
14166SOL    HW144395  14.395   0.269  10.512
14166SOL    HW244396  14.254   0.293  10.564
14167SOL     OW44397  11.090  11.074   7.033
14167SOL    HW144398  11.060  10.990   7.068
14167SOL    HW244399  11.185  11.073   7.045
14168SOL     OW44400   4.533   1.898   3.863
14168SOL    HW144401   4.453   1.936   3.900
14168SOL    HW244402   4.503   1.852   3.784
14169SOL     OW44403   2.061   1.994   0.381
14169SOL    HW144404   2.124   1.925   0.359
14169SOL    HW244405   2.009   1.956   0.452
14170SOL     OW44406  11.618   7.309   7.655
14170SOL    HW144407  11.572   7.285   7.574
14170SOL    HW244408  11.645   7.225   7.693
14171SOL     OW44409   6.990   2.132   8.760
14171SOL    HW144410   7.037   2.146   8.678
14171SOL    HW244411   6.996   2.037   8.774
14172SOL     OW44412  13.597   9.699   9.733
14172SOL    HW144413  13.603   9.639   9.659
14172SOL    HW244414  13.653   9.661   9.800
14173SOL     OW44415  11.996  12.244   2.053
14173SOL    HW144416  11.916  12.268   2.100
14173SOL    HW244417  11.971  12.245   1.961
14174SOL     OW44418  14.173   9.873   1.017
14174SOL    HW144419  14.090   9.864   0.971
14174SOL    HW244420  14.162   9.952   1.071
14175SOL     OW44421   3.983  10.781   4.345
14175SOL    HW144422   4.076  10.772   4.368
14175SOL    HW244423   3.964  10.874   4.358
14176SOL     OW44424   7.728   5.975   8.003
14176SOL    HW144425   7.792   6.047   8.003
14176SOL    HW244426   7.657   6.006   7.947
14177SOL     OW44427  13.071   2.953  13.979
14177SOL    HW144428  13.133   3.025  13.974
14177SOL    HW244429  13.006   2.982  14.044
14178SOL     OW44430   9.853  13.061  12.454
14178SOL    HW144431   9.810  13.010  12.386
14178SOL    HW244432   9.787  13.070  12.523
14179SOL     OW44433   4.164   7.622   5.324
14179SOL    HW144434   4.183   7.702   5.275
14179SOL    HW244435   4.219   7.628   5.402
14180SOL     OW44436   4.367   8.775  13.552
14180SOL    HW144437   4.446   8.728  13.527
14180SOL    HW244438   4.310   8.770  13.475
14181SOL     OW44439   7.314   9.776   7.309
14181SOL    HW144440   7.345   9.846   7.366
14181SOL    HW244441   7.265   9.821   7.239
14182SOL     OW44442   5.533   2.649   7.961
14182SOL    HW144443   5.446   2.689   7.966
14182SOL    HW244444   5.593   2.723   7.972
14183SOL     OW44445   2.043   2.666   3.102
14183SOL    HW144446   2.062   2.613   3.180
14183SOL    HW244447   1.971   2.723   3.128
14184SOL     OW44448   7.462   0.846   1.085
14184SOL    HW144449   7.379   0.805   1.058
14184SOL    HW244450   7.513   0.852   1.004
14185SOL     OW44451   9.507  12.569   5.294
14185SOL    HW144452   9.485  12.515   5.218
14185SOL    HW244453   9.490  12.658   5.266
14186SOL     OW44454   0.363   9.170   3.734
14186SOL    HW144455   0.425   9.238   3.762
14186SOL    HW244456   0.333   9.199   3.648
14187SOL     OW44457  10.495   3.813   0.498
14187SOL    HW144458  10.555   3.884   0.475
14187SOL    HW244459  10.464   3.779   0.414
14188SOL     OW44460   9.350  10.351   6.875
14188SOL    HW144461   9.287  10.280   6.886
14188SOL    HW244462   9.303  10.418   6.825
14189SOL     OW44463   5.602  14.255  13.741
14189SOL    HW144464   5.643  14.341  13.740
14189SOL    HW244465   5.673  14.195  13.765
14190SOL     OW44466   1.830  11.124   7.781
14190SOL    HW144467   1.890  11.192   7.751
14190SOL    HW244468   1.743  11.162   7.766
14191SOL     OW44469  13.565   3.945  14.817
14191SOL    HW144470  13.582   4.002   0.017
14191SOL    HW244471  13.641   3.887  14.813
14192SOL     OW44472  12.603   9.795   5.254
14192SOL    HW144473  12.580   9.846   5.331
14192SOL    HW244474  12.595   9.857   5.181
14193SOL     OW44475  13.317   8.748   9.174
14193SOL    HW144476  13.248   8.684   9.192
14193SOL    HW244477  13.396   8.696   9.164
14194SOL     OW44478   1.657   4.804   8.290
14194SOL    HW144479   1.620   4.843   8.211
14194SOL    HW244480   1.590   4.742   8.320
14195SOL     OW44481   0.524  10.927  14.038
14195SOL    HW144482   0.542  10.846  13.990
14195SOL    HW244483   0.548  10.997  13.977
14196SOL     OW44484   3.021  11.776   3.451
14196SOL    HW144485   3.040  11.800   3.542
14196SOL    HW244486   2.932  11.807   3.437
14197SOL     OW44487   3.669   3.877   3.541
14197SOL    HW144488   3.630   3.913   3.461
14197SOL    HW244489   3.619   3.797   3.558
14198SOL     OW44490   4.225  10.829   6.766
14198SOL    HW144491   4.136  10.816   6.733
14198SOL    HW244492   4.276  10.758   6.727
14199SOL     OW44493   9.148   7.370   7.186
14199SOL    HW144494   9.146   7.379   7.091
14199SOL    HW244495   9.241   7.372   7.209
14200SOL     OW44496   5.015  10.572   2.201
14200SOL    HW144497   5.062  10.638   2.149
14200SOL    HW244498   5.083  10.523   2.245
14201SOL     OW44499   2.898  13.121  10.916
14201SOL    HW144500   2.869  13.040  10.873
14201SOL    HW244501   2.834  13.136  10.985
14202SOL     OW44502   5.535  13.021   0.860
14202SOL    HW144503   5.616  13.024   0.910
14202SOL    HW244504   5.467  13.009   0.926
14203SOL     OW44505   4.830   5.393   5.167
14203SOL    HW144506   4.754   5.334   5.170
14203SOL    HW244507   4.886   5.358   5.098
14204SOL     OW44508   4.833   4.329   9.206
14204SOL    HW144509   4.913   4.276   9.196
14204SOL    HW244510   4.853   4.411   9.160
14205SOL     OW44511   5.205  13.461   4.574
14205SOL    HW144512   5.220  13.551   4.603
14205SOL    HW244513   5.116  13.441   4.603
14206SOL     OW44514   7.169  11.871   3.960
14206SOL    HW144515   7.126  11.897   4.042
14206SOL    HW244516   7.235  11.808   3.986
14207SOL     OW44517  12.539  14.692  14.807
14207SOL    HW144518  12.558  14.749   0.006
14207SOL    HW244519  12.617  14.700  14.751
14208SOL     OW44520   7.926  10.039   6.108
14208SOL    HW144521   7.947  10.079   6.192
14208SOL    HW244522   7.851  10.089   6.076
14209SOL     OW44523   3.724  12.118  12.449
14209SOL    HW144524   3.742  12.032  12.410
14209SOL    HW244525   3.629  12.127  12.445
14210SOL     OW44526   0.633   2.658   0.571
14210SOL    HW144527   0.690   2.598   0.523
14210SOL    HW244528   0.686   2.737   0.584
14211SOL     OW44529   9.502   8.893   8.525
14211SOL    HW144530   9.444   8.931   8.459
14211SOL    HW244531   9.529   8.809   8.489
14212SOL     OW44532   5.768   1.807   4.712
14212SOL    HW144533   5.700   1.773   4.769
14212SOL    HW244534   5.847   1.810   4.767
14213SOL     OW44535   0.236  12.871   9.704
14213SOL    HW144536   0.320  12.904   9.674
14213SOL    HW244537   0.194  12.836   9.626
14214SOL     OW44538  11.551   1.710   9.812
14214SOL    HW144539  11.533   1.673   9.725
14214SOL    HW244540  11.575   1.801   9.795
14215SOL     OW44541  10.184   7.703  12.631
14215SOL    HW144542  10.117   7.703  12.562
14215SOL    HW244543  10.204   7.795  12.646
14216SOL     OW44544  10.075  14.755  13.227
14216SOL    HW144545  10.039  14.842  13.212
14216SOL    HW244546  10.148  14.749  13.165
14217SOL     OW44547   8.057   9.693  12.762
14217SOL    HW144548   8.048   9.623  12.826
14217SOL    HW244549   8.001   9.666  12.689
14218SOL     OW44550   2.595  10.977   6.252
14218SOL    HW144551   2.670  10.944   6.203
14218SOL    HW244552   2.525  10.913   6.234
14219SOL     OW44553  12.728   9.516   3.088
14219SOL    HW144554  12.636   9.510   3.113
14219SOL    HW244555  12.747   9.610   3.087
14220SOL     OW44556  14.093   3.552   6.742
14220SOL    HW144557  14.138   3.615   6.799
14220SOL    HW244558  14.088   3.472   6.794
14221SOL     OW44559   1.635   0.389  12.130
14221SOL    HW144560   1.721   0.418  12.160
14221SOL    HW244561   1.590   0.359  12.209
14222SOL     OW44562  14.750   6.838  10.799
14222SOL    HW144563  14.729   6.816  10.708
14222SOL    HW244564  14.846   6.837  10.801
14223SOL     OW44565  12.485   1.631   8.721
14223SOL    HW144566  12.549   1.581   8.670
14223SOL    HW244567  12.402   1.614   8.677
14224SOL     OW44568   0.638   1.553  14.616
14224SOL    HW144569   0.658   1.459  14.608
14224SOL    HW244570   0.545   1.559  14.594
14225SOL     OW44571  12.270  14.714  12.066
14225SOL    HW144572  12.268  14.731  12.160
14225SOL    HW244573  12.286  14.620  12.059
14226SOL     OW44574   3.159   0.386   9.357
14226SOL    HW144575   3.153   0.294   9.333
14226SOL    HW244576   3.074   0.407   9.395
14227SOL     OW44577  13.670   3.420  13.639
14227SOL    HW144578  13.660   3.512  13.614
14227SOL    HW244579  13.603   3.374  13.588
14228SOL     OW44580   9.554  12.901   7.522
14228SOL    HW144581   9.589  12.838   7.458
14228SOL    HW244582   9.582  12.986   7.489
14229SOL     OW44583   8.293  13.106   7.967
14229SOL    HW144584   8.232  13.032   7.967
14229SOL    HW244585   8.310  13.123   8.059
14230SOL     OW44586   9.976   8.461  14.085
14230SOL    HW144587  10.006   8.379  14.125
14230SOL    HW244588   9.881   8.451  14.079
14231SOL     OW44589   3.146   1.506  11.828
14231SOL    HW144590   3.083   1.464  11.769
14231SOL    HW244591   3.178   1.435  11.883
14232SOL     OW44592   2.816   7.042   9.654
14232SOL    HW144593   2.847   7.129   9.629
14232SOL    HW244594   2.875   6.982   9.608
14233SOL     OW44595   0.610   1.411   5.487
14233SOL    HW144596   0.536   1.393   5.430
14233SOL    HW244597   0.666   1.471   5.438
14234SOL     OW44598   3.916   9.890  11.537
14234SOL    HW144599   3.964   9.809  11.557
14234SOL    HW244600   3.875   9.914  11.620
14235SOL     OW44601   1.086  13.774   0.416
14235SOL    HW144602   1.092  13.781   0.511
14235SOL    HW244603   0.992  13.765   0.399
14236SOL     OW44604   6.015   3.502   6.056
14236SOL    HW144605   5.939   3.537   6.101
14236SOL    HW244606   6.085   3.501   6.122
14237SOL     OW44607   7.559   5.978   4.901
14237SOL    HW144608   7.500   5.919   4.948
14237SOL    HW244609   7.601   6.030   4.970
14238SOL     OW44610   3.019   6.139   0.665
14238SOL    HW144611   2.943   6.154   0.609
14238SOL    HW244612   3.032   6.044   0.663
14239SOL     OW44613   5.893   0.371   1.005
14239SOL    HW144614   5.911   0.354   1.097
14239SOL    HW244615   5.960   0.320   0.958
14240SOL     OW44616   3.751  11.293  12.324
14240SOL    HW144617   3.776  11.375  12.366
14240SOL    HW244618   3.665  11.311  12.286
14241SOL     OW44619   9.656  11.113  11.050
14241SOL    HW144620   9.635  11.157  10.967
14241SOL    HW244621   9.592  11.043  11.058
14242SOL     OW44622   9.680  10.757   2.764
14242SOL    HW144623   9.714  10.742   2.852
14242SOL    HW244624   9.736  10.705   2.707
14243SOL     OW44625  13.235  11.328  11.697
14243SOL    HW144626  13.162  11.318  11.636
14243SOL    HW244627  13.248  11.423  11.704
14244SOL     OW44628   6.163   0.105  13.548
14244SOL    HW144629   6.248   0.144  13.529
14244SOL    HW244630   6.159   0.101  13.643
14245SOL     OW44631   5.832  10.991   0.295
14245SOL    HW144632   5.903  11.012   0.355
14245SOL    HW244633   5.875  10.946   0.222
14246SOL     OW44634   0.887   8.932   6.700
14246SOL    HW144635   0.816   8.988   6.732
14246SOL    HW244636   0.926   8.982   6.628
14247SOL     OW44637   2.452  11.156  11.087
14247SOL    HW144638   2.531  11.130  11.040
14247SOL    HW244639   2.390  11.181  11.018
14248SOL     OW44640   5.108   7.162  13.117
14248SOL    HW144641   5.090   7.087  13.173
14248SOL    HW244642   5.041   7.227  13.142
14249SOL     OW44643   6.840  14.412   9.552
14249SOL    HW144644   6.890  14.391   9.473
14249SOL    HW244645   6.818  14.505   9.542
14250SOL     OW44646   0.080   6.269   5.402
14250SOL    HW144647  14.868   6.247   5.435
14250SOL    HW244648   0.103   6.197   5.343
14251SOL     OW44649   8.798   0.171   6.043
14251SOL    HW144650   8.733   0.198   5.979
14251SOL    HW244651   8.755   0.181   6.128
14252SOL     OW44652  11.619   5.848   6.680
14252SOL    HW144653  11.621   5.851   6.776
14252SOL    HW244654  11.642   5.937   6.653
14253SOL     OW44655  14.015   2.978   6.734
14253SOL    HW144656  14.076   3.050   6.749
14253SOL    HW244657  14.062   2.919   6.675
14254SOL     OW44658   7.344   2.575  11.683
14254SOL    HW144659   7.327   2.666  11.709
14254SOL    HW244660   7.385   2.582  11.597
14255SOL     OW44661  10.364   9.694   9.684
14255SOL    HW144662  10.403   9.748   9.615
14255SOL    HW244663  10.293   9.748   9.718
14256SOL     OW44664  10.137   7.682   7.168
14256SOL    HW144665  10.077   7.616   7.132
14256SOL    HW244666  10.150   7.655   7.259
14257SOL     OW44667  13.563   0.684   8.083
14257SOL    HW144668  13.532   0.595   8.065
14257SOL    HW244669  13.553   0.730   8.001
14258SOL     OW44670   6.768   6.721   6.263
14258SOL    HW144671   6.826   6.777   6.211
14258SOL    HW244672   6.800   6.731   6.353
14259SOL     OW44673  13.299  12.076   9.715
14259SOL    HW144674  13.264  11.991   9.742
14259SOL    HW244675  13.285  12.079   9.620
14260SOL     OW44676   8.815  14.669  10.588
14260SOL    HW144677   8.726  14.677  10.553
14260SOL    HW244678   8.870  14.650  10.512
14261SOL     OW44679  10.845  11.993   2.028
14261SOL    HW144680  10.826  11.909   1.987
14261SOL    HW244681  10.827  11.979   2.121
14262SOL     OW44682   2.452   1.546  12.627
14262SOL    HW144683   2.478   1.635  12.602
14262SOL    HW244684   2.532   1.495  12.619
14263SOL     OW44685   0.178  10.900  12.765
14263SOL    HW144686   0.238  10.969  12.793
14263SOL    HW244687   0.157  10.853  12.846
14264SOL     OW44688  11.912   2.955   0.661
14264SOL    HW144689  11.851   3.028   0.671
14264SOL    HW244690  11.874   2.884   0.713
14265SOL     OW44691   2.878   8.722  11.646
14265SOL    HW144692   2.788   8.752  11.630
14265SOL    HW244693   2.896   8.662  11.574
14266SOL     OW44694   2.088   6.159   4.994
14266SOL    HW144695   2.004   6.155   5.040
14266SOL    HW244696   2.109   6.067   4.974
14267SOL     OW44697   5.197  10.642   3.028
14267SOL    HW144698   5.194  10.619   2.935
14267SOL    HW244699   5.144  10.721   3.035
14268SOL     OW44700   8.919  10.527   3.857
14268SOL    HW144701   8.845  10.516   3.797
14268SOL    HW244702   8.951  10.615   3.838
14269SOL     OW44703   4.023   8.573   4.055
14269SOL    HW144704   3.959   8.537   3.993
14269SOL    HW244705   3.971   8.628   4.113
14270SOL     OW44706  11.760  14.438   0.066
14270SOL    HW144707  11.783  14.529   0.047
14270SOL    HW244708  11.840  14.388   0.047
14271SOL     OW44709   4.365   3.679  11.014
14271SOL    HW144710   4.412   3.753  10.977
14271SOL    HW244711   4.430   3.633  11.067
14272SOL     OW44712   9.611   8.626   0.103
14272SOL    HW144713   9.665   8.673   0.166
14272SOL    HW244714   9.538   8.592   0.154
14273SOL     OW44715  12.812  13.495  14.470
14273SOL    HW144716  12.787  13.443  14.546
14273SOL    HW244717  12.862  13.568  14.507
14274SOL     OW44718   9.151   8.284   1.764
14274SOL    HW144719   9.210   8.344   1.718
14274SOL    HW244720   9.114   8.336   1.836
14275SOL     OW44721  11.373   1.530  10.870
14275SOL    HW144722  11.328   1.565  10.946
14275SOL    HW244723  11.408   1.607  10.825
14276SOL     OW44724  10.146   3.202   4.279
14276SOL    HW144725  10.147   3.149   4.199
14276SOL    HW244726  10.127   3.139   4.348
14277SOL     OW44727   1.388  13.931  13.081
14277SOL    HW144728   1.465  13.892  13.038
14277SOL    HW244729   1.418  13.950  13.170
14278SOL     OW44730   8.630   6.459   2.490
14278SOL    HW144731   8.558   6.522   2.486
14278SOL    HW244732   8.598   6.389   2.547
14279SOL     OW44733   0.636   5.709  10.595
14279SOL    HW144734   0.692   5.670  10.662
14279SOL    HW244735   0.655   5.660  10.515
14280SOL     OW44736   1.691   0.520   6.365
14280SOL    HW144737   1.674   0.440   6.414
14280SOL    HW244738   1.731   0.490   6.284
14281SOL     OW44739   6.117  12.747   5.190
14281SOL    HW144740   6.048  12.693   5.151
14281SOL    HW244741   6.152  12.694   5.261
14282SOL     OW44742  10.290   6.789   1.338
14282SOL    HW144743  10.211   6.831   1.304
14282SOL    HW244744  10.354   6.798   1.267
14283SOL     OW44745   0.393  10.823  10.263
14283SOL    HW144746   0.392  10.787  10.174
14283SOL    HW244747   0.458  10.770  10.309
14284SOL     OW44748   6.323  10.639  10.401
14284SOL    HW144749   6.256  10.596  10.454
14284SOL    HW244750   6.347  10.573  10.335
14285SOL     OW44751   0.777   3.635   7.327
14285SOL    HW144752   0.779   3.687   7.407
14285SOL    HW244753   0.839   3.564   7.342
14286SOL     OW44754   6.771   2.568   9.138
14286SOL    HW144755   6.794   2.658   9.115
14286SOL    HW244756   6.694   2.548   9.085
14287SOL     OW44757  14.842  10.671   6.597
14287SOL    HW144758  14.827  10.616   6.674
14287SOL    HW244759  14.867  10.609   6.528
14288SOL     OW44760   5.351  10.955   6.769
14288SOL    HW144761   5.324  11.030   6.821
14288SOL    HW244762   5.369  10.886   6.834
14289SOL     OW44763   2.028   8.402   4.846
14289SOL    HW144764   2.066   8.318   4.872
14289SOL    HW244765   2.000   8.442   4.928
14290SOL     OW44766  12.070   5.243   0.767
14290SOL    HW144767  12.007   5.298   0.720
14290SOL    HW244768  12.117   5.305   0.823
14291SOL     OW44769   3.192   0.956   8.841
14291SOL    HW144770   3.131   0.970   8.768
14291SOL    HW244771   3.136   0.931   8.915
14292SOL     OW44772   1.006  13.659   5.589
14292SOL    HW144773   0.987  13.619   5.503
14292SOL    HW244774   0.946  13.733   5.594
14293SOL     OW44775  11.193  11.385   4.685
14293SOL    HW144776  11.194  11.390   4.590
14293SOL    HW244777  11.256  11.316   4.707
14294SOL     OW44778   5.189  12.499   9.328
14294SOL    HW144779   5.224  12.580   9.292
14294SOL    HW244780   5.257  12.469   9.389
14295SOL     OW44781   5.053   5.171   6.467
14295SOL    HW144782   5.127   5.132   6.419
14295SOL    HW244783   5.039   5.255   6.424
14296SOL     OW44784  13.568   4.637  12.073
14296SOL    HW144785  13.634   4.576  12.040
14296SOL    HW244786  13.485   4.594  12.053
14297SOL     OW44787   0.546   3.903   2.290
14297SOL    HW144788   0.491   3.941   2.359
14297SOL    HW244789   0.634   3.905   2.328
14298SOL     OW44790   5.317   1.936  13.312
14298SOL    HW144791   5.335   1.966  13.401
14298SOL    HW244792   5.239   1.985  13.285
14299SOL     OW44793   6.285   9.143  13.112
14299SOL    HW144794   6.274   9.232  13.079
14299SOL    HW244795   6.218   9.092  13.066
14300SOL     OW44796   8.159   0.100   4.028
14300SOL    HW144797   8.243   0.141   4.050
14300SOL    HW244798   8.112   0.167   3.978
14301SOL     OW44799   8.523  12.742   1.432
14301SOL    HW144800   8.503  12.670   1.372
14301SOL    HW244801   8.439  12.767   1.469
14302SOL     OW44802  12.508   6.851  11.960
14302SOL    HW144803  12.436   6.913  11.968
14302SOL    HW244804  12.517   6.836  11.866
14303SOL     OW44805  14.570  14.326  13.182
14303SOL    HW144806  14.479  14.311  13.159
14303SOL    HW244807  14.620  14.273  13.121
14304SOL     OW44808  10.822  14.822  11.999
14304SOL    HW144809  10.762  14.860  11.934
14304SOL    HW244810  10.864   0.023  12.039
14305SOL     OW44811   2.097   0.028   0.905
14305SOL    HW144812   2.033   0.034   0.976
14305SOL    HW244813   2.113   0.118   0.879
14306SOL     OW44814   6.854   6.068  11.856
14306SOL    HW144815   6.899   6.111  11.783
14306SOL    HW244816   6.823   6.140  11.911
14307SOL     OW44817  12.203  12.518   2.003
14307SOL    HW144818  12.239  12.606   1.999
14307SOL    HW244819  12.213  12.484   1.914
14308SOL     OW44820  14.506   3.065  11.424
14308SOL    HW144821  14.598   3.070  11.398
14308SOL    HW244822  14.485   3.154  11.453
14309SOL     OW44823   2.257  12.803  13.213
14309SOL    HW144824   2.293  12.886  13.182
14309SOL    HW244825   2.231  12.820  13.304
14310SOL     OW44826  13.616  13.391   8.956
14310SOL    HW144827  13.521  13.387   8.973
14310SOL    HW244828  13.633  13.484   8.940
14311SOL     OW44829   8.075  10.501  10.621
14311SOL    HW144830   8.063  10.407  10.606
14311SOL    HW244831   8.002  10.542  10.574
14312SOL     OW44832   0.110   7.404   5.603
14312SOL    HW144833   0.077   7.437   5.519
14312SOL    HW244834   0.161   7.326   5.580
14313SOL     OW44835   3.346  14.870   9.073
14313SOL    HW144836   3.370  14.861   9.165
14313SOL    HW244837   3.269  14.814   9.063
14314SOL     OW44838   5.902   5.967  11.954
14314SOL    HW144839   5.876   5.910  12.026
14314SOL    HW244840   5.873   5.922  11.875
14315SOL     OW44841   7.728  13.227   6.196
14315SOL    HW144842   7.670  13.152   6.183
14315SOL    HW244843   7.723  13.245   6.289
14316SOL     OW44844   0.758  14.330   4.777
14316SOL    HW144845   0.788  14.412   4.816
14316SOL    HW244846   0.710  14.357   4.698
14317SOL     OW44847   9.307   6.238   1.970
14317SOL    HW144848   9.375   6.294   2.006
14317SOL    HW244849   9.226   6.270   2.009
14318SOL     OW44850  10.051   1.629  10.081
14318SOL    HW144851  10.028   1.699  10.020
14318SOL    HW244852  10.120   1.666  10.136
14319SOL     OW44853   6.886   2.239   3.144
14319SOL    HW144854   6.832   2.295   3.088
14319SOL    HW244855   6.880   2.152   3.105
14320SOL     OW44856  13.339  12.373   1.421
14320SOL    HW144857  13.345  12.321   1.341
14320SOL    HW244858  13.256  12.345   1.461
14321SOL     OW44859   6.661  12.413   3.142
14321SOL    HW144860   6.754  12.394   3.125
14321SOL    HW244861   6.635  12.470   3.070
14322SOL     OW44862   5.156   1.773   6.836
14322SOL    HW144863   5.103   1.784   6.757
14322SOL    HW244864   5.165   1.678   6.846
14323SOL     OW44865   8.456   2.623   8.815
14323SOL    HW144866   8.405   2.606   8.895
14323SOL    HW244867   8.524   2.556   8.816
14324SOL     OW44868   6.800   6.312   0.058
14324SOL    HW144869   6.802   6.346   0.148
14324SOL    HW244870   6.796   6.217   0.069
14325SOL     OW44871   4.960  13.395  12.683
14325SOL    HW144872   4.940  13.301  12.681
14325SOL    HW244873   5.034  13.405  12.623
14326SOL     OW44874   8.723   0.616   7.588
14326SOL    HW144875   8.643   0.611   7.534
14326SOL    HW244876   8.695   0.660   7.668
14327SOL     OW44877  13.595  11.693   0.821
14327SOL    HW144878  13.563  11.621   0.767
14327SOL    HW244879  13.681  11.665   0.850
14328SOL     OW44880   5.488   9.062  12.097
14328SOL    HW144881   5.418   8.999  12.076
14328SOL    HW244882   5.520   9.033  12.182
14329SOL     OW44883   5.902  11.621   6.528
14329SOL    HW144884   5.889  11.706   6.571
14329SOL    HW244885   5.992  11.597   6.549
14330SOL     OW44886   5.642   3.477   5.463
14330SOL    HW144887   5.675   3.476   5.374
14330SOL    HW244888   5.573   3.410   5.464
14331SOL     OW44889   5.454   7.334   8.750
14331SOL    HW144890   5.407   7.416   8.765
14331SOL    HW244891   5.540   7.348   8.790
14332SOL     OW44892  11.604   3.425   4.191
14332SOL    HW144893  11.560   3.364   4.250
14332SOL    HW244894  11.537   3.489   4.168
14333SOL     OW44895   2.689   4.706   7.777
14333SOL    HW144896   2.724   4.618   7.763
14333SOL    HW244897   2.620   4.694   7.842
14334SOL     OW44898   0.091  12.047   2.557
14334SOL    HW144899   0.051  12.131   2.536
14334SOL    HW244900   0.175  12.048   2.510
14335SOL     OW44901   4.862   3.185   9.180
14335SOL    HW144902   4.823   3.153   9.262
14335SOL    HW244903   4.955   3.189   9.199
14336SOL     OW44904   1.069   0.215  13.446
14336SOL    HW144905   1.093   0.181  13.360
14336SOL    HW244906   1.138   0.277  13.468
14337SOL     OW44907   2.210  10.465  10.469
14337SOL    HW144908   2.123  10.426  10.472
14337SOL    HW244909   2.201  10.538  10.408
14338SOL     OW44910   1.899   8.597   1.081
14338SOL    HW144911   1.807   8.622   1.080
14338SOL    HW244912   1.907   8.536   1.154
14339SOL     OW44913  11.261   1.674  11.087
14339SOL    HW144914  11.195   1.730  11.045
14339SOL    HW244915  11.274   1.713  11.173
14340SOL     OW44916   7.350  12.869  12.058
14340SOL    HW144917   7.301  12.925  12.118
14340SOL    HW244918   7.436  12.910  12.052
14341SOL     OW44919  11.757   0.493   4.221
14341SOL    HW144920  11.714   0.416   4.184
14341SOL    HW244921  11.800   0.535   4.146
14342SOL     OW44922   9.579  13.257   5.990
14342SOL    HW144923   9.627  13.188   5.945
14342SOL    HW244924   9.641  13.330   5.996
14343SOL     OW44925   7.739   8.192   2.153
14343SOL    HW144926   7.745   8.192   2.058
14343SOL    HW244927   7.807   8.253   2.182
14344SOL     OW44928  14.570  10.419  10.047
14344SOL    HW144929  14.577  10.324  10.045
14344SOL    HW244930  14.496  10.436  10.105
14345SOL     OW44931  13.749  12.158  14.218
14345SOL    HW144932  13.689  12.152  14.292
14345SOL    HW244933  13.712  12.225  14.162
14346SOL     OW44934  11.805  12.495   7.908
14346SOL    HW144935  11.875  12.499   7.842
14346SOL    HW244936  11.755  12.575   7.894
14347SOL     OW44937  11.452   2.177   9.333
14347SOL    HW144938  11.367   2.197   9.373
14347SOL    HW244939  11.515   2.230   9.382
14348SOL     OW44940  10.527  14.218  11.455
14348SOL    HW144941  10.433  14.215  11.438
14348SOL    HW244942  10.551  14.309  11.443
14349SOL     OW44943   2.512  11.147   4.591
14349SOL    HW144944   2.553  11.067   4.560
14349SOL    HW244945   2.577  11.215   4.576
14350SOL     OW44946  14.493   5.386   1.697
14350SOL    HW144947  14.572   5.398   1.644
14350SOL    HW244948  14.444   5.317   1.651
14351SOL     OW44949   8.431  11.070   3.021
14351SOL    HW144950   8.398  11.015   3.092
14351SOL    HW244951   8.496  11.127   3.062
14352SOL     OW44952   1.780   5.239   4.176
14352SOL    HW144953   1.710   5.213   4.235
14352SOL    HW244954   1.747   5.316   4.130
14353SOL     OW44955   3.101   8.361   4.228
14353SOL    HW144956   3.084   8.302   4.302
14353SOL    HW244957   3.048   8.325   4.157
14354SOL     OW44958   7.569  13.681   2.602
14354SOL    HW144959   7.579  13.711   2.692
14354SOL    HW244960   7.488  13.630   2.602
14355SOL     OW44961  11.043  13.701  11.851
14355SOL    HW144962  10.955  13.672  11.873
14355SOL    HW244963  11.048  13.691  11.756
14356SOL     OW44964   1.324   7.175   8.849
14356SOL    HW144965   1.263   7.129   8.908
14356SOL    HW244966   1.410   7.159   8.888
14357SOL     OW44967  14.145  11.396   5.541
14357SOL    HW144968  14.240  11.400   5.550
14357SOL    HW244969  14.113  11.381   5.630
14358SOL     OW44970  11.474   7.597  13.306
14358SOL    HW144971  11.401   7.547  13.270
14358SOL    HW244972  11.437   7.683  13.324
14359SOL     OW44973   3.278  10.386   9.262
14359SOL    HW144974   3.247  10.377   9.171
14359SOL    HW244975   3.359  10.335   9.265
14360SOL     OW44976  13.521   1.620   6.071
14360SOL    HW144977  13.492   1.528   6.074
14360SOL    HW244978  13.537   1.637   5.978
14361SOL     OW44979   9.851   4.416   6.465
14361SOL    HW144980   9.937   4.387   6.494
14361SOL    HW244981   9.849   4.395   6.371
14362SOL     OW44982   3.202   6.189  10.008
14362SOL    HW144983   3.171   6.123   9.945
14362SOL    HW244984   3.159   6.166  10.090
14363SOL     OW44985   8.662  14.400  10.956
14363SOL    HW144986   8.636  14.437  10.872
14363SOL    HW244987   8.594  14.337  10.977
14364SOL     OW44988   6.327   0.369  12.936
14364SOL    HW144989   6.334   0.426  13.012
14364SOL    HW244990   6.293   0.287  12.970
14365SOL     OW44991   3.593  13.815   1.340
14365SOL    HW144992   3.546  13.820   1.423
14365SOL    HW244993   3.637  13.900   1.332
14366SOL     OW44994   7.149   4.048   3.095
14366SOL    HW144995   7.244   4.052   3.104
14366SOL    HW244996   7.120   4.139   3.108
14367SOL     OW44997   5.283   7.256   4.672
14367SOL    HW144998   5.338   7.195   4.623
14367SOL    HW244999   5.224   7.200   4.722
14368SOL     OW45000  13.538   4.143  10.157
14368SOL    HW145001  13.517   4.235  10.168
14368SOL    HW245002  13.610   4.127  10.217
14369SOL     OW45003   7.190  11.811   7.657
14369SOL    HW145004   7.214  11.826   7.566
14369SOL    HW245005   7.094  11.819   7.658
14370SOL     OW45006  11.108   5.414  11.995
14370SOL    HW145007  11.105   5.505  12.027
14370SOL    HW245008  11.179   5.374  12.045
14371SOL     OW45009   1.692   4.299   6.891
14371SOL    HW145010   1.603   4.330   6.905
14371SOL    HW245011   1.738   4.373   6.852
14372SOL     OW45012  10.449  13.112  14.162
14372SOL    HW145013  10.356  13.110  14.140
14372SOL    HW245014  10.462  13.197  14.204
14373SOL     OW45015  11.226   3.620   5.874
14373SOL    HW145016  11.231   3.696   5.817
14373SOL    HW245017  11.245   3.546   5.816
14374SOL     OW45018   2.736   8.582  13.224
14374SOL    HW145019   2.669   8.635  13.181
14374SOL    HW245020   2.802   8.567  13.157
14375SOL     OW45021  11.285   0.149   7.635
14375SOL    HW145022  11.242   0.085   7.691
14375SOL    HW245023  11.271   0.233   7.678
14376SOL     OW45024   2.559   9.377   3.450
14376SOL    HW145025   2.547   9.472   3.446
14376SOL    HW245026   2.580   9.351   3.361
14377SOL     OW45027   7.612   1.953   7.108
14377SOL    HW145028   7.555   2.027   7.085
14377SOL    HW245029   7.691   1.994   7.143
14378SOL     OW45030  11.755  12.778   9.281
14378SOL    HW145031  11.747  12.765   9.376
14378SOL    HW245032  11.823  12.717   9.253
14379SOL     OW45033   1.037   1.563   0.306
14379SOL    HW145034   0.941   1.563   0.306
14379SOL    HW245035   1.060   1.479   0.266
14380SOL     OW45036   3.313  12.264   9.234
14380SOL    HW145037   3.325  12.205   9.160
14380SOL    HW245038   3.313  12.352   9.196
14381SOL     OW45039   7.579   7.970   9.396
14381SOL    HW145040   7.521   8.040   9.365
14381SOL    HW245041   7.635   7.951   9.321
14382SOL     OW45042  14.486   5.236   8.923
14382SOL    HW145043  14.560   5.190   8.884
14382SOL    HW245044  14.410   5.207   8.872
14383SOL     OW45045  13.494   3.419   4.942
14383SOL    HW145046  13.539   3.395   5.023
14383SOL    HW245047  13.548   3.489   4.905
14384SOL     OW45048   7.133   5.619   2.455
14384SOL    HW145049   7.225   5.640   2.440
14384SOL    HW245050   7.131   5.584   2.544
14385SOL     OW45051  12.710   5.915  14.048
14385SOL    HW145052  12.685   5.927  14.140
14385SOL    HW245053  12.728   5.821  14.041
14386SOL     OW45054  12.573  13.275   6.579
14386SOL    HW145055  12.557  13.369   6.589
14386SOL    HW245056  12.554  13.238   6.665
14387SOL     OW45057  14.829   0.038   0.466
14387SOL    HW145058  14.832   0.123   0.510
14387SOL    HW245059  14.864   0.055   0.379
14388SOL     OW45060  13.103   3.704   7.356
14388SOL    HW145061  13.016   3.740   7.342
14388SOL    HW245062  13.095   3.654   7.437
14389SOL     OW45063   9.978   1.459   0.241
14389SOL    HW145064   9.970   1.370   0.206
14389SOL    HW245065  10.046   1.499   0.188
14390SOL     OW45066   0.447   6.368   1.615
14390SOL    HW145067   0.359   6.357   1.580
14390SOL    HW245068   0.477   6.279   1.633
14391SOL     OW45069  11.173   0.724   4.612
14391SOL    HW145070  11.162   0.644   4.664
14391SOL    HW245071  11.146   0.795   4.670
14392SOL     OW45072   3.506   0.536   0.837
14392SOL    HW145073   3.566   0.511   0.767
14392SOL    HW245074   3.428   0.569   0.792
14393SOL     OW45075   8.974  11.377  14.574
14393SOL    HW145076   8.880  11.380  14.596
14393SOL    HW245077   9.005  11.467  14.590
14394SOL     OW45078   9.752   2.268   2.828
14394SOL    HW145079   9.751   2.319   2.908
14394SOL    HW245080   9.736   2.178   2.856
14395SOL     OW45081   0.599   3.724  12.264
14395SOL    HW145082   0.655   3.681  12.201
14395SOL    HW245083   0.656   3.786  12.310
14396SOL     OW45084  11.079  13.727  14.838
14396SOL    HW145085  11.161  13.776  14.836
14396SOL    HW245086  11.070  13.690  14.750
14397SOL     OW45087   6.184   7.430   7.991
14397SOL    HW145088   6.146   7.514   8.018
14397SOL    HW245089   6.133   7.365   8.038
14398SOL     OW45090   4.786  10.455   3.928
14398SOL    HW145091   4.757  10.403   4.003
14398SOL    HW245092   4.837  10.527   3.967
14399SOL     OW45093   2.944   6.043   2.555
14399SOL    HW145094   3.018   6.023   2.499
14399SOL    HW245095   2.874   6.067   2.494
14400SOL     OW45096   1.046  14.496  14.471
14400SOL    HW145097   1.040  14.470  14.563
14400SOL    HW245098   1.081  14.585  14.473
14401SOL     OW45099   2.963   2.588   4.389
14401SOL    HW145100   2.924   2.525   4.449
14401SOL    HW245101   3.048   2.551   4.366
14402SOL     OW45102  13.581   5.949  13.876
14402SOL    HW145103  13.493   5.919  13.851
14402SOL    HW245104  13.602   5.899  13.955
14403SOL     OW45105   5.531   8.919   3.329
14403SOL    HW145106   5.550   8.832   3.364
14403SOL    HW245107   5.571   8.980   3.391
14404SOL     OW45108  14.580  13.871  12.134
14404SOL    HW145109  14.521  13.920  12.076
14404SOL    HW245110  14.590  13.786  12.092
14405SOL     OW45111   4.635  11.390   7.413
14405SOL    HW145112   4.683  11.326   7.464
14405SOL    HW245113   4.700  11.455   7.388
14406SOL     OW45114   3.615   8.184  14.117
14406SOL    HW145115   3.532   8.139  14.105
14406SOL    HW245116   3.651   8.191  14.028
14407SOL     OW45117   2.504  14.446   7.323
14407SOL    HW145118   2.415  14.459   7.357
14407SOL    HW245119   2.553  14.414   7.399
14408SOL     OW45120   9.759  12.346   9.673
14408SOL    HW145121   9.773  12.252   9.676
14408SOL    HW245122   9.665  12.356   9.686
14409SOL     OW45123  13.594   8.197  11.172
14409SOL    HW145124  13.507   8.197  11.131
14409SOL    HW245125  13.584   8.251  11.250
14410SOL     OW45126   1.899  10.505   9.230
14410SOL    HW145127   1.868  10.594   9.245
14410SOL    HW245128   1.994  10.514   9.222
14411SOL     OW45129   2.326   0.410   2.067
14411SOL    HW145130   2.287   0.332   2.104
14411SOL    HW245131   2.349   0.386   1.978
14412SOL     OW45132   1.218   0.920  11.171
14412SOL    HW145133   1.143   0.911  11.112
14412SOL    HW245134   1.184   0.972  11.244
14413SOL     OW45135  13.962  13.088  10.801
14413SOL    HW145136  14.034  13.125  10.750
14413SOL    HW245137  13.956  12.997  10.771
14414SOL     OW45138   6.475   4.411  11.169
14414SOL    HW145139   6.563   4.380  11.185
14414SOL    HW245140   6.466   4.489  11.225
14415SOL     OW45141   0.122  12.751   6.945
14415SOL    HW145142   0.199  12.801   6.973
14415SOL    HW245143   0.158  12.671   6.906
14416SOL     OW45144  12.380   0.277   5.955
14416SOL    HW145145  12.384   0.350   6.017
14416SOL    HW245146  12.393   0.317   5.870
14417SOL     OW45147   9.677  10.325   8.944
14417SOL    HW145148   9.659  10.319   8.851
14417SOL    HW245149   9.610  10.384   8.978
14418SOL     OW45150   4.787  14.658   9.044
14418SOL    HW145151   4.738  14.585   9.081
14418SOL    HW245152   4.767  14.656   8.950
14419SOL     OW45153   2.697   8.259   1.179
14419SOL    HW145154   2.772   8.278   1.235
14419SOL    HW245155   2.705   8.321   1.107
14420SOL     OW45156   2.893  12.299   3.563
14420SOL    HW145157   2.852  12.364   3.506
14420SOL    HW245158   2.823  12.238   3.584
14421SOL     OW45159  13.472  10.540   7.926
14421SOL    HW145160  13.519  10.530   7.843
14421SOL    HW245161  13.383  10.508   7.906
14422SOL     OW45162  11.243  11.845   0.666
14422SOL    HW145163  11.290  11.795   0.600
14422SOL    HW245164  11.208  11.779   0.726
14423SOL     OW45165   1.078   1.946   4.943
14423SOL    HW145166   1.004   1.994   4.979
14423SOL    HW245167   1.126   2.011   4.892
14424SOL     OW45168  11.778   7.776   8.153
14424SOL    HW145169  11.837   7.824   8.095
14424SOL    HW245170  11.808   7.685   8.148
14425SOL     OW45171   6.465  13.437   6.216
14425SOL    HW145172   6.390  13.438   6.157
14425SOL    HW245173   6.458  13.354   6.262
14426SOL     OW45174   6.850   7.331   1.178
14426SOL    HW145175   6.912   7.403   1.177
14426SOL    HW245176   6.765   7.371   1.197
14427SOL     OW45177   6.258  13.399   1.482
14427SOL    HW145178   6.345  13.392   1.443
14427SOL    HW245179   6.261  13.481   1.532
14428SOL     OW45180  10.440  10.881   7.833
14428SOL    HW145181  10.430  10.946   7.902
14428SOL    HW245182  10.484  10.807   7.876
14429SOL     OW45183  11.786   0.968   0.082
14429SOL    HW145184  11.855   0.909   0.111
14429SOL    HW245185  11.796   1.045   0.139
14430SOL     OW45186  11.310  12.824  13.134
14430SOL    HW145187  11.356  12.850  13.054
14430SOL    HW245188  11.380  12.794  13.193
14431SOL     OW45189   4.723   2.469  11.996
14431SOL    HW145190   4.805   2.438  12.033
14431SOL    HW245191   4.703   2.407  11.926
14432SOL     OW45192   2.722   2.658  10.224
14432SOL    HW145193   2.753   2.576  10.262
14432SOL    HW245194   2.677   2.702  10.296
14433SOL     OW45195   8.451   5.400   9.489
14433SOL    HW145196   8.543   5.372   9.498
14433SOL    HW245197   8.432   5.445   9.571
14434SOL     OW45198   1.705   5.472   5.035
14434SOL    HW145199   1.644   5.485   4.963
14434SOL    HW245200   1.774   5.416   4.999
14435SOL     OW45201   3.638   7.993  11.644
14435SOL    HW145202   3.676   8.038  11.719
14435SOL    HW245203   3.589   7.920  11.682
14436SOL     OW45204   7.938   1.986   3.558
14436SOL    HW145205   7.963   2.066   3.603
14436SOL    HW245206   8.005   1.922   3.583
14437SOL     OW45207   9.171   3.814   9.021
14437SOL    HW145208   9.205   3.809   9.110
14437SOL    HW245209   9.165   3.908   9.002
14438SOL     OW45210  13.406   2.185  11.625
14438SOL    HW145211  13.330   2.243  11.630
14438SOL    HW245212  13.459   2.208  11.702
14439SOL     OW45213  14.320   3.785   1.269
14439SOL    HW145214  14.276   3.752   1.348
14439SOL    HW245215  14.253   3.835   1.223
14440SOL     OW45216   3.766  12.899   2.848
14440SOL    HW145217   3.769  12.805   2.831
14440SOL    HW245218   3.675  12.917   2.871
14441SOL     OW45219  10.905   7.181   7.060
14441SOL    HW145220  10.845   7.107   7.043
14441SOL    HW245221  10.966   7.179   6.987
14442SOL     OW45222   7.208   4.290  14.557
14442SOL    HW145223   7.262   4.275  14.480
14442SOL    HW245224   7.206   4.385  14.567
14443SOL     OW45225   1.081   4.037   7.126
14443SOL    HW145226   1.056   3.966   7.186
14443SOL    HW245227   1.170   4.015   7.099
14444SOL     OW45228  11.492   7.304  13.232
14444SOL    HW145229  11.556   7.370  13.261
14444SOL    HW245230  11.412   7.354  13.216
14445SOL     OW45231   6.986   3.312  12.942
14445SOL    HW145232   6.999   3.365  12.863
14445SOL    HW245233   6.892   3.317  12.959
14446SOL     OW45234  11.367   7.729   2.933
14446SOL    HW145235  11.440   7.787   2.955
14446SOL    HW245236  11.313   7.727   3.012
14447SOL     OW45237  10.247  12.004   0.815
14447SOL    HW145238  10.201  12.058   0.751
14447SOL    HW245239  10.330  12.049   0.829
14448SOL     OW45240  12.241  13.797   1.582
14448SOL    HW145241  12.296  13.755   1.515
14448SOL    HW245242  12.156  13.808   1.540
14449SOL     OW45243  13.219   0.098   9.650
14449SOL    HW145244  13.175   0.042   9.714
14449SOL    HW245245  13.284   0.147   9.701
14450SOL     OW45246   9.515   0.780  14.848
14450SOL    HW145247   9.522   0.763   0.067
14450SOL    HW245248   9.425   0.810  14.836
14451SOL     OW45249   8.183   6.474  13.544
14451SOL    HW145250   8.166   6.559  13.583
14451SOL    HW245251   8.186   6.414  13.619
14452SOL     OW45252   7.125   5.468  11.709
14452SOL    HW145253   7.206   5.503  11.744
14452SOL    HW245254   7.126   5.494  11.617
14453SOL     OW45255   9.257  12.810   1.211
14453SOL    HW145256   9.212  12.779   1.290
14453SOL    HW245257   9.222  12.898   1.198
14454SOL     OW45258  11.986   4.852  12.607
14454SOL    HW145259  11.958   4.942  12.594
14454SOL    HW245260  12.082   4.857  12.611
14455SOL     OW45261  13.066   3.978   0.051
14455SOL    HW145262  13.118   3.937   0.120
14455SOL    HW245263  12.984   4.003   0.095
14456SOL     OW45264   9.375   8.503  13.801
14456SOL    HW145265   9.438   8.483  13.731
14456SOL    HW245266   9.346   8.417  13.831
14457SOL     OW45267  10.095  12.741   0.897
14457SOL    HW145268  10.019  12.799   0.895
14457SOL    HW245269  10.141  12.758   0.815
14458SOL     OW45270   6.018   1.232   6.666
14458SOL    HW145271   6.112   1.251   6.671
14458SOL    HW245272   6.006   1.192   6.580
14459SOL     OW45273   2.215   6.155   9.880
14459SOL    HW145274   2.227   6.226   9.943
14459SOL    HW245275   2.156   6.190   9.814
14460SOL     OW45276  13.747   2.344   1.975
14460SOL    HW145277  13.680   2.377   1.914
14460SOL    HW245278  13.737   2.249   1.971
14461SOL     OW45279   5.822   6.028  14.316
14461SOL    HW145280   5.755   6.071  14.369
14461SOL    HW245281   5.787   6.031  14.227
14462SOL     OW45282   2.534   9.915   7.043
14462SOL    HW145283   2.573   9.897   7.128
14462SOL    HW245284   2.447   9.874   7.046
14463SOL     OW45285  11.068   6.701  12.073
14463SOL    HW145286  11.032   6.672  11.989
14463SOL    HW245287  11.125   6.629  12.101
14464SOL     OW45288  12.975   8.969   7.216
14464SOL    HW145289  12.950   9.051   7.172
14464SOL    HW245290  13.014   8.997   7.299
14465SOL     OW45291   4.311  11.918   5.113
14465SOL    HW145292   4.256  11.906   5.035
14465SOL    HW245293   4.371  11.988   5.089
14466SOL     OW45294   0.816   9.950  11.703
14466SOL    HW145295   0.780   9.874  11.748
14466SOL    HW245296   0.872   9.992  11.769
14467SOL     OW45297   5.125  12.599   2.914
14467SOL    HW145298   5.081  12.582   2.997
14467SOL    HW245299   5.216  12.577   2.930
14468SOL     OW45300  12.953  11.747   7.393
14468SOL    HW145301  12.892  11.801   7.444
14468SOL    HW245302  13.034  11.797   7.391
14469SOL     OW45303  14.091  13.712   8.610
14469SOL    HW145304  14.109  13.766   8.686
14469SOL    HW245305  14.073  13.775   8.540
14470SOL     OW45306   7.899   8.200   0.617
14470SOL    HW145307   7.983   8.235   0.588
14470SOL    HW245308   7.835   8.266   0.590
14471SOL     OW45309   8.969  14.249   3.386
14471SOL    HW145310   8.902  14.203   3.437
14471SOL    HW245311   9.049  14.240   3.438
14472SOL     OW45312  14.271   1.613   1.544
14472SOL    HW145313  14.276   1.646   1.454
14472SOL    HW245314  14.346   1.653   1.588
14473SOL     OW45315  14.151   0.069   0.624
14473SOL    HW145316  14.113   0.156   0.621
14473SOL    HW245317  14.178   0.052   0.533
14474SOL     OW45318   8.379   7.610  11.696
14474SOL    HW145319   8.427   7.578  11.620
14474SOL    HW245320   8.410   7.557  11.769
14475SOL     OW45321   3.444  13.266  13.440
14475SOL    HW145322   3.415  13.272  13.531
14475SOL    HW245323   3.539  13.263  13.444
14476SOL     OW45324   7.972   9.910  13.315
14476SOL    HW145325   8.030   9.882  13.386
14476SOL    HW245326   7.887   9.871  13.337
14477SOL     OW45327  14.722   6.167   7.443
14477SOL    HW145328  14.649   6.150   7.384
14477SOL    HW245329  14.717   6.097   7.508
14478SOL     OW45330   1.505   5.602   0.562
14478SOL    HW145331   1.586   5.631   0.520
14478SOL    HW245332   1.453   5.564   0.491
14479SOL     OW45333  11.740   3.238  11.327
14479SOL    HW145334  11.744   3.196  11.241
14479SOL    HW245335  11.774   3.327  11.311
14480SOL     OW45336  11.086   0.771  12.068
14480SOL    HW145337  11.164   0.723  12.098
14480SOL    HW245338  11.065   0.731  11.984
14481SOL     OW45339  13.758   9.282   0.753
14481SOL    HW145340  13.714   9.319   0.829
14481SOL    HW245341  13.836   9.239   0.789
14482SOL     OW45342  10.789   2.416   9.283
14482SOL    HW145343  10.741   2.487   9.240
14482SOL    HW245344  10.732   2.340   9.274
14483SOL     OW45345   0.508   5.892  12.777
14483SOL    HW145346   0.425   5.913  12.819
14483SOL    HW245347   0.510   5.946  12.699
14484SOL     OW45348   4.365   5.705  11.629
14484SOL    HW145349   4.415   5.624  11.629
14484SOL    HW245350   4.275   5.678  11.610
14485SOL     OW45351   0.749   4.166   1.679
14485SOL    HW145352   0.726   4.205   1.764
14485SOL    HW245353   0.828   4.116   1.696
14486SOL     OW45354   3.446  11.539   1.588
14486SOL    HW145355   3.409  11.537   1.676
14486SOL    HW245356   3.370  11.530   1.530
14487SOL     OW45357   6.773  12.589   5.225
14487SOL    HW145358   6.718  12.664   5.250
14487SOL    HW245359   6.845  12.590   5.287
14488SOL     OW45360   6.996   4.988  10.110
14488SOL    HW145361   6.934   4.954  10.047
14488SOL    HW245362   7.065   5.029  10.057
14489SOL     OW45363  14.474  10.431   5.147
14489SOL    HW145364  14.555  10.394   5.184
14489SOL    HW245365  14.404  10.380   5.188
14490SOL     OW45366   3.469   2.341  12.152
14490SOL    HW145367   3.379   2.353  12.119
14490SOL    HW245368   3.503   2.268  12.101
14491SOL     OW45369   3.169  11.433   8.859
14491SOL    HW145370   3.183  11.393   8.773
14491SOL    HW245371   3.155  11.526   8.839
14492SOL     OW45372   2.407   9.854   1.780
14492SOL    HW145373   2.478   9.863   1.717
14492SOL    HW245374   2.342   9.800   1.735
14493SOL     OW45375   0.280  10.282   5.402
14493SOL    HW145376   0.292  10.318   5.489
14493SOL    HW245377   0.187  10.297   5.382
14494SOL     OW45378   9.439  10.214   7.134
14494SOL    HW145379   9.426  10.260   7.051
14494SOL    HW245380   9.513  10.156   7.118
14495SOL     OW45381   9.977   9.050   4.859
14495SOL    HW145382   9.960   9.082   4.771
14495SOL    HW245383  10.072   9.049   4.867
14496SOL     OW45384   2.014   3.911   4.473
14496SOL    HW145385   2.010   3.817   4.453
14496SOL    HW245386   1.927   3.944   4.451
14497SOL     OW45387   2.722   4.931   7.389
14497SOL    HW145388   2.678   4.882   7.458
14497SOL    HW245389   2.657   4.995   7.360
14498SOL     OW45390  11.147   8.943  14.645
14498SOL    HW145391  11.129   8.957  14.738
14498SOL    HW245392  11.066   8.909  14.609
14499SOL     OW45393   5.907   7.490   3.073
14499SOL    HW145394   5.945   7.530   3.151
14499SOL    HW245395   5.981   7.463   3.020
14500SOL     OW45396   2.257   3.695   2.491
14500SOL    HW145397   2.276   3.786   2.465
14500SOL    HW245398   2.178   3.673   2.442
14501SOL     OW45399   6.862  10.050  13.280
14501SOL    HW145400   6.914   9.983  13.325
14501SOL    HW245401   6.914  10.130  13.288
14502SOL     OW45402   0.983  13.002   3.011
14502SOL    HW145403   0.927  12.974   3.083
14502SOL    HW245404   0.953  13.091   2.991
14503SOL     OW45405   5.023   6.584  10.598
14503SOL    HW145406   4.988   6.494  10.595
14503SOL    HW245407   5.107   6.578  10.552
14504SOL     OW45408   8.715   0.656   5.932
14504SOL    HW145409   8.754   0.690   6.012
14504SOL    HW245410   8.626   0.630   5.957
14505SOL     OW45411   0.853   4.212   1.266
14505SOL    HW145412   0.781   4.256   1.311
14505SOL    HW245413   0.821   4.123   1.250
14506SOL     OW45414   6.187  11.683  13.979
14506SOL    HW145415   6.212  11.663  13.889
14506SOL    HW245416   6.209  11.775  13.991
14507SOL     OW45417  12.772   1.255   7.499
14507SOL    HW145418  12.709   1.327   7.492
14507SOL    HW245419  12.808   1.247   7.411
14508SOL     OW45420   4.450   2.231  14.602
14508SOL    HW145421   4.397   2.255  14.527
14508SOL    HW245422   4.400   2.261  14.678
14509SOL     OW45423   1.155  10.579  12.383
14509SOL    HW145424   1.195  10.621  12.307
14509SOL    HW245425   1.210  10.503  12.401
14510SOL     OW45426  10.096  14.470   3.156
14510SOL    HW145427  10.188  14.449   3.170
14510SOL    HW245428  10.085  14.557   3.196
14511SOL     OW45429   7.095   3.805   1.285
14511SOL    HW145430   7.009   3.763   1.293
14511SOL    HW245431   7.100   3.834   1.194
14512SOL     OW45432  14.644   2.676   1.559
14512SOL    HW145433  14.601   2.695   1.476
14512SOL    HW245434  14.734   2.706   1.546
14513SOL     OW45435  10.842  12.086   6.479
14513SOL    HW145436  10.765  12.132   6.447
14513SOL    HW245437  10.821  12.064   6.570
14514SOL     OW45438  13.744   2.230   6.943
14514SOL    HW145439  13.783   2.302   6.992
14514SOL    HW245440  13.790   2.230   6.859
14515SOL     OW45441  12.066  12.148   7.421
14515SOL    HW145442  11.986  12.108   7.387
14515SOL    HW245443  12.124  12.075   7.440
14516SOL     OW45444   9.559   6.811   8.054
14516SOL    HW145445   9.464   6.801   8.058
14516SOL    HW245446   9.572   6.889   8.000
14517SOL     OW45447   5.912  11.151   5.558
14517SOL    HW145448   5.855  11.115   5.625
14517SOL    HW245449   5.853  11.199   5.500
14518SOL     OW45450  11.843   1.241   8.297
14518SOL    HW145451  11.916   1.186   8.325
14518SOL    HW245452  11.777   1.228   8.365
14519SOL     OW45453   2.713   6.430  13.830
14519SOL    HW145454   2.787   6.489  13.819
14519SOL    HW245455   2.688   6.406  13.741
14520SOL     OW45456  11.187  13.480   9.953
14520SOL    HW145457  11.222  13.495   9.865
14520SOL    HW245458  11.153  13.391   9.950
14521SOL     OW45459   3.226  14.028   8.205
14521SOL    HW145460   3.138  14.042   8.168
14521SOL    HW245461   3.283  14.085   8.153
14522SOL     OW45462  14.235   1.492  10.283
14522SOL    HW145463  14.250   1.460  10.194
14522SOL    HW245464  14.156   1.448  10.312
14523SOL     OW45465   5.368   3.529  10.384
14523SOL    HW145466   5.337   3.587  10.454
14523SOL    HW245467   5.330   3.565  10.304
14524SOL     OW45468   6.104   8.472  11.944
14524SOL    HW145469   6.137   8.560  11.961
14524SOL    HW245470   6.157   8.439  11.872
14525SOL     OW45471  11.750   6.591   3.486
14525SOL    HW145472  11.843   6.567   3.480
14525SOL    HW245473  11.707   6.537   3.419
14526SOL     OW45474  11.598   4.846   7.066
14526SOL    HW145475  11.653   4.901   7.010
14526SOL    HW245476  11.516   4.894   7.075
14527SOL     OW45477  11.014   1.335  13.249
14527SOL    HW145478  11.100   1.303  13.275
14527SOL    HW245479  10.963   1.256  13.229
14528SOL     OW45480   5.540   1.389  14.757
14528SOL    HW145481   5.578   1.429  14.679
14528SOL    HW245482   5.447   1.411  14.753
14529SOL     OW45483  13.580  14.221   8.044
14529SOL    HW145484  13.546  14.299   8.087
14529SOL    HW245485  13.547  14.148   8.097
14530SOL     OW45486   9.902   5.027  13.476
14530SOL    HW145487   9.878   5.029  13.569
14530SOL    HW245488   9.931   4.937  13.461
14531SOL     OW45489  11.260   9.192   4.827
14531SOL    HW145490  11.248   9.106   4.865
14531SOL    HW245491  11.282   9.248   4.902
14532SOL     OW45492   8.033   1.528   8.853
14532SOL    HW145493   8.054   1.461   8.918
14532SOL    HW245494   8.022   1.608   8.904
14533SOL     OW45495   7.269   6.735  11.580
14533SOL    HW145496   7.214   6.728  11.502
14533SOL    HW245497   7.329   6.660  11.574
14534SOL     OW45498   5.257   3.138   5.399
14534SOL    HW145499   5.176   3.188   5.395
14534SOL    HW245500   5.274   3.113   5.308
14535SOL     OW45501  12.385   6.575   0.889
14535SOL    HW145502  12.463   6.607   0.935
14535SOL    HW245503  12.320   6.644   0.901
14536SOL     OW45504  12.205   0.532  14.869
14536SOL    HW145505  12.112   0.555  14.858
14536SOL    HW245506  12.239   0.523  14.780
14537SOL     OW45507   1.719  13.758   5.289
14537SOL    HW145508   1.774  13.833   5.309
14537SOL    HW245509   1.691  13.772   5.198
14538SOL     OW45510  14.762   4.589   8.799
14538SOL    HW145511  14.760   4.685   8.802
14538SOL    HW245512  14.845   4.568   8.757
14539SOL     OW45513  10.572   9.664   0.599
14539SOL    HW145514  10.487   9.665   0.554
14539SOL    HW245515  10.584   9.754   0.629
14540SOL     OW45516  10.221   5.615   7.489
14540SOL    HW145517  10.195   5.546   7.551
14540SOL    HW245518  10.274   5.675   7.542
14541SOL     OW45519  12.649   1.589   5.276
14541SOL    HW145520  12.658   1.630   5.362
14541SOL    HW245521  12.582   1.641   5.231
14542SOL     OW45522   2.619  14.181  13.661
14542SOL    HW145523   2.541  14.178  13.606
14542SOL    HW245524   2.605  14.112  13.726
14543SOL     OW45525   2.462   6.613   3.976
14543SOL    HW145526   2.417   6.596   3.893
14543SOL    HW245527   2.552   6.631   3.951
14544SOL     OW45528  10.124   0.551  14.762
14544SOL    HW145529  10.104   0.466  14.801
14544SOL    HW245530  10.140   0.532  14.670
14545SOL     OW45531  12.225   1.148   7.819
14545SOL    HW145532  12.210   1.058   7.790
14545SOL    HW245533  12.183   1.153   7.905
14546SOL     OW45534  10.078   5.212  12.651
14546SOL    HW145535  10.134   5.142  12.684
14546SOL    HW245536  10.139   5.284  12.631
14547SOL     OW45537  13.257   7.151   1.447
14547SOL    HW145538  13.171   7.190   1.434
14547SOL    HW245539  13.240   7.071   1.497
14548SOL     OW45540   9.095   8.195   4.665
14548SOL    HW145541   9.052   8.199   4.579
14548SOL    HW245542   9.023   8.193   4.728
14549SOL     OW45543  14.492  13.570  12.087
14549SOL    HW145544  14.422  13.588  12.150
14549SOL    HW245545  14.467  13.487  12.046
14550SOL     OW45546   4.633  12.587   3.553
14550SOL    HW145547   4.625  12.530   3.630
14550SOL    HW245548   4.661  12.671   3.588
14551SOL     OW45549   2.905   6.593   0.469
14551SOL    HW145550   2.910   6.527   0.400
14551SOL    HW245551   2.973   6.657   0.447
14552SOL     OW45552   2.234  14.308  10.508
14552SOL    HW145553   2.166  14.303  10.575
14552SOL    HW245554   2.189  14.293  10.426
14553SOL     OW45555   6.127   7.602  14.738
14553SOL    HW145556   6.051   7.622  14.793
14553SOL    HW245557   6.092   7.547  14.668
14554SOL     OW45558   3.147   3.192   8.281
14554SOL    HW145559   3.166   3.130   8.351
14554SOL    HW245560   3.227   3.243   8.272
14555SOL     OW45561  13.632   7.152   6.789
14555SOL    HW145562  13.585   7.100   6.855
14555SOL    HW245563  13.722   7.157   6.821
14556SOL     OW45564   3.366  14.062   4.073
14556SOL    HW145565   3.312  13.991   4.108
14556SOL    HW245566   3.325  14.084   3.989
14557SOL     OW45567  13.845  12.523  10.234
14557SOL    HW145568  13.779  12.592  10.240
14557SOL    HW245569  13.797  12.443  10.255
14558SOL     OW45570   8.115   0.557   1.728
14558SOL    HW145571   8.197   0.550   1.680
14558SOL    HW245572   8.064   0.481   1.699
14559SOL     OW45573  10.145   3.295   4.672
14559SOL    HW145574  10.130   3.273   4.764
14559SOL    HW245575  10.065   3.339   4.644
14560SOL     OW45576   8.198   0.635   8.192
14560SOL    HW145577   8.151   0.552   8.178
14560SOL    HW245578   8.201   0.674   8.105
14561SOL     OW45579  10.892   2.963   3.910
14561SOL    HW145580  10.943   2.897   3.863
14561SOL    HW245581  10.844   3.009   3.841
14562SOL     OW45582   0.762   0.390   0.985
14562SOL    HW145583   0.691   0.326   0.986
14562SOL    HW245584   0.731   0.461   1.042
14563SOL     OW45585  12.543   7.552   0.498
14563SOL    HW145586  12.540   7.634   0.547
14563SOL    HW245587  12.494   7.570   0.418
14564SOL     OW45588  10.311   5.569   1.606
14564SOL    HW145589  10.367   5.493   1.593
14564SOL    HW245590  10.341   5.633   1.541
14565SOL     OW45591  12.429   0.098  14.033
14565SOL    HW145592  12.475   0.026  14.077
14565SOL    HW245593  12.499   0.150  13.993
14566SOL     OW45594   3.043   5.259  11.001
14566SOL    HW145595   3.127   5.214  11.011
14566SOL    HW245596   2.983   5.213  11.060
14567SOL     OW45597   1.686  12.471   4.307
14567SOL    HW145598   1.775  12.505   4.318
14567SOL    HW245599   1.644  12.534   4.248
14568SOL     OW45600  11.139  10.506   3.425
14568SOL    HW145601  11.151  10.427   3.477
14568SOL    HW245602  11.054  10.541   3.454
14569SOL     OW45603  10.632   6.478   7.647
14569SOL    HW145604  10.687   6.436   7.580
14569SOL    HW245605  10.683   6.471   7.728
14570SOL     OW45606  13.143   3.819  12.573
14570SOL    HW145607  13.114   3.757  12.640
14570SOL    HW245608  13.177   3.894  12.623
14571SOL     OW45609   2.553   4.560   5.412
14571SOL    HW145610   2.542   4.651   5.384
14571SOL    HW245611   2.504   4.555   5.495
14572SOL     OW45612   1.928  11.032   3.362
14572SOL    HW145613   2.016  11.053   3.394
14572SOL    HW245614   1.930  10.938   3.346
14573SOL     OW45615   3.927   0.766   0.739
14573SOL    HW145616   3.859   0.784   0.675
14573SOL    HW245617   3.916   0.673   0.760
14574SOL     OW45618   7.782  10.966  14.799
14574SOL    HW145619   7.813  10.966   0.014
14574SOL    HW245620   7.697  10.921  14.803
14575SOL     OW45621  13.941   9.991  10.676
14575SOL    HW145622  13.921  10.083  10.697
14575SOL    HW245623  13.870   9.942  10.717
14576SOL     OW45624   9.794  11.841   4.507
14576SOL    HW145625   9.808  11.931   4.476
14576SOL    HW245626   9.821  11.786   4.434
14577SOL     OW45627   6.364   8.819   9.080
14577SOL    HW145628   6.444   8.771   9.061
14577SOL    HW245629   6.299   8.751   9.099
14578SOL     OW45630  10.422   4.677   4.758
14578SOL    HW145631  10.501   4.685   4.705
14578SOL    HW245632  10.450   4.627   4.835
14579SOL     OW45633   6.739  12.097   5.174
14579SOL    HW145634   6.788  12.144   5.107
14579SOL    HW245635   6.693  12.027   5.127
14580SOL     OW45636   2.540  12.439  12.188
14580SOL    HW145637   2.526  12.519  12.136
14580SOL    HW245638   2.631  12.445  12.217
14581SOL     OW45639   2.400   6.161  13.678
14581SOL    HW145640   2.327   6.224  13.683
14581SOL    HW245641   2.452   6.180  13.756
14582SOL     OW45642  13.686  12.462   0.979
14582SOL    HW145643  13.756  12.417   1.026
14582SOL    HW245644  13.620  12.395   0.963
14583SOL     OW45645  11.453  11.985   6.648
14583SOL    HW145646  11.511  12.012   6.719
14583SOL    HW245647  11.381  12.048   6.650
14584SOL     OW45648   6.036   8.376   7.432
14584SOL    HW145649   5.983   8.404   7.358
14584SOL    HW245650   6.033   8.280   7.429
14585SOL     OW45651   4.953  14.239   6.320
14585SOL    HW145652   4.935  14.197   6.236
14585SOL    HW245653   4.909  14.184   6.385
14586SOL     OW45654  10.064   5.125  10.556
14586SOL    HW145655   9.973   5.155  10.547
14586SOL    HW245656  10.116   5.193  10.512
14587SOL     OW45657   5.629   8.644   3.400
14587SOL    HW145658   5.618   8.672   3.491
14587SOL    HW245659   5.660   8.553   3.406
14588SOL     OW45660   7.080   0.341   4.226
14588SOL    HW145661   7.045   0.430   4.229
14588SOL    HW245662   7.163   0.350   4.180
14589SOL     OW45663   2.249   4.504   0.737
14589SOL    HW145664   2.264   4.543   0.823
14589SOL    HW245665   2.257   4.576   0.675
14590SOL     OW45666   7.426   0.854   9.949
14590SOL    HW145667   7.374   0.773   9.955
14590SOL    HW245668   7.364   0.924   9.969
14591SOL     OW45669   5.060   6.003   1.004
14591SOL    HW145670   5.073   5.944   0.930
14591SOL    HW245671   5.105   5.961   1.077
14592SOL     OW45672  11.774   4.086   4.257
14592SOL    HW145673  11.686   4.096   4.221
14592SOL    HW245674  11.822   4.162   4.225
14593SOL     OW45675   6.574   8.609  13.383
14593SOL    HW145676   6.495   8.623  13.330
14593SOL    HW245677   6.599   8.519  13.366
14594SOL     OW45678  12.340   2.068  13.914
14594SOL    HW145679  12.417   2.060  13.859
14594SOL    HW245680  12.347   2.156  13.952
14595SOL     OW45681   7.271   5.618   3.583
14595SOL    HW145682   7.366   5.622   3.599
14595SOL    HW245683   7.243   5.709   3.582
14596SOL     OW45684   5.193   9.285  11.183
14596SOL    HW145685   5.210   9.315  11.272
14596SOL    HW245686   5.121   9.223  11.192
14597SOL     OW45687  13.500  14.390  10.162
14597SOL    HW145688  13.474  14.356  10.076
14597SOL    HW245689  13.571  14.451  10.143
14598SOL     OW45690   2.211  11.673  11.297
14598SOL    HW145691   2.161  11.755  11.302
14598SOL    HW245692   2.144  11.606  11.283
14599SOL     OW45693  12.134  12.621   9.387
14599SOL    HW145694  12.136  12.697   9.445
14599SOL    HW245695  12.044  12.618   9.356
14600SOL     OW45696   2.888   4.447   2.304
14600SOL    HW145697   2.828   4.509   2.345
14600SOL    HW245698   2.837   4.366   2.297
14601SOL     OW45699   1.135   1.671   2.611
14601SOL    HW145700   1.123   1.754   2.657
14601SOL    HW245701   1.155   1.697   2.521
14602SOL     OW45702   6.033  12.272   4.489
14602SOL    HW145703   6.116  12.275   4.537
14602SOL    HW245704   5.968  12.300   4.554
14603SOL     OW45705   5.494   4.565  11.496
14603SOL    HW145706   5.436   4.540  11.424
14603SOL    HW245707   5.507   4.483  11.545
14604SOL     OW45708   5.452   3.509  11.720
14604SOL    HW145709   5.493   3.444  11.777
14604SOL    HW245710   5.518   3.525  11.652
14605SOL     OW45711   1.747   2.309   5.504
14605SOL    HW145712   1.730   2.296   5.598
14605SOL    HW245713   1.738   2.403   5.491
14606SOL     OW45714   2.024  13.698  14.728
14606SOL    HW145715   2.047  13.656  14.645
14606SOL    HW245716   2.103  13.745  14.754
14607SOL     OW45717  11.856  12.766   7.343
14607SOL    HW145718  11.774  12.803   7.308
14607SOL    HW245719  11.858  12.796   7.434
14608SOL     OW45720  11.976   4.442   2.026
14608SOL    HW145721  12.010   4.403   2.107
14608SOL    HW245722  11.897   4.489   2.054
14609SOL     OW45723   4.411   6.681   5.917
14609SOL    HW145724   4.487   6.695   5.860
14609SOL    HW245725   4.337   6.670   5.857
14610SOL     OW45726   7.337   2.625   8.597
14610SOL    HW145727   7.321   2.670   8.514
14610SOL    HW245728   7.418   2.663   8.629
14611SOL     OW45729  11.977  11.610   9.011
14611SOL    HW145730  12.070  11.631   9.018
14611SOL    HW245731  11.933  11.675   9.065
14612SOL     OW45732  11.323   5.186   5.386
14612SOL    HW145733  11.277   5.126   5.327
14612SOL    HW245734  11.354   5.256   5.329
14613SOL     OW45735   0.107  13.543   8.560
14613SOL    HW145736   0.063  13.460   8.581
14613SOL    HW245737   0.137  13.576   8.645
14614SOL     OW45738   0.730  14.049   2.469
14614SOL    HW145739   0.675  14.081   2.540
14614SOL    HW245740   0.818  14.080   2.491
14615SOL     OW45741   4.121   0.026  10.782
14615SOL    HW145742   4.108   0.100  10.723
14615SOL    HW245743   4.036   0.012  10.822
14616SOL     OW45744   0.454   5.924  11.034
14616SOL    HW145745   0.507   5.956  11.107
14616SOL    HW245746   0.458   5.829  11.040
14617SOL     OW45747   1.130  14.059  10.764
14617SOL    HW145748   1.200  14.023  10.710
14617SOL    HW245749   1.084  13.983  10.800
14618SOL     OW45750  13.421  11.358   5.546
14618SOL    HW145751  13.476  11.295   5.593
14618SOL    HW245752  13.476  11.389   5.474
14619SOL     OW45753  11.187   1.852   4.922
14619SOL    HW145754  11.185   1.844   4.827
14619SOL    HW245755  11.212   1.765   4.953
14620SOL     OW45756   9.009   2.434   2.851
14620SOL    HW145757   9.049   2.389   2.925
14620SOL    HW245758   9.079   2.487   2.815
14621SOL     OW45759   2.296   3.315  12.606
14621SOL    HW145760   2.248   3.374  12.546
14621SOL    HW245761   2.305   3.234  12.557
14622SOL     OW45762  11.522   3.717  10.599
14622SOL    HW145763  11.592   3.658  10.626
14622SOL    HW245764  11.546   3.801  10.637
14623SOL     OW45765  10.340  14.341   5.695
14623SOL    HW145766  10.373  14.413   5.642
14623SOL    HW245767  10.246  14.338   5.676
14624SOL     OW45768   9.367   7.046   7.217
14624SOL    HW145769   9.297   7.091   7.170
14624SOL    HW245770   9.374   6.960   7.176
14625SOL     OW45771   4.459  11.540  13.629
14625SOL    HW145772   4.421  11.590  13.700
14625SOL    HW245773   4.443  11.593  13.551
14626SOL     OW45774  13.621   3.902   4.152
14626SOL    HW145775  13.609   3.959   4.229
14626SOL    HW245776  13.638   3.816   4.189
14627SOL     OW45777   9.540   6.185   9.535
14627SOL    HW145778   9.543   6.107   9.479
14627SOL    HW245779   9.456   6.226   9.514
14628SOL     OW45780   8.657  12.390   2.475
14628SOL    HW145781   8.678  12.480   2.498
14628SOL    HW245782   8.665  12.341   2.557
14629SOL     OW45783   8.106   9.766   1.590
14629SOL    HW145784   8.152   9.754   1.673
14629SOL    HW245785   8.175   9.766   1.524
14630SOL     OW45786   0.931   1.816  13.065
14630SOL    HW145787   0.908   1.763  13.141
14630SOL    HW245788   1.018   1.786  13.040
14631SOL     OW45789   0.496   7.224   4.271
14631SOL    HW145790   0.492   7.308   4.225
14631SOL    HW245791   0.496   7.247   4.364
14632SOL     OW45792  14.466   6.396   6.345
14632SOL    HW145793  14.469   6.315   6.396
14632SOL    HW245794  14.558   6.420   6.332
14633SOL     OW45795   3.676  13.617   1.550
14633SOL    HW145796   3.666  13.691   1.490
14633SOL    HW245797   3.611  13.553   1.521
14634SOL     OW45798   0.246  12.316   0.689
14634SOL    HW145799   0.163  12.273   0.709
14634SOL    HW245800   0.231  12.359   0.605
14635SOL     OW45801   6.219   7.339   7.724
14635SOL    HW145802   6.299   7.290   7.703
14635SOL    HW245803   6.241   7.389   7.802
14636SOL     OW45804   0.109   4.542   1.863
14636SOL    HW145805   0.142   4.502   1.944
14636SOL    HW245806   0.067   4.469   1.816
14637SOL     OW45807   7.545   7.016   2.283
14637SOL    HW145808   7.557   6.944   2.346
14637SOL    HW245809   7.450   7.025   2.275
14638SOL     OW45810   9.207  14.843  11.139
14638SOL    HW145811   9.182   0.028  11.069
14638SOL    HW245812   9.302  14.856  11.148
14639SOL     OW45813   6.298   5.680   5.196
14639SOL    HW145814   6.362   5.736   5.152
14639SOL    HW245815   6.342   5.596   5.206
14640SOL     OW45816   4.427  11.579  10.686
14640SOL    HW145817   4.437  11.533  10.603
14640SOL    HW245818   4.510  11.626  10.698
14641SOL     OW45819   3.549   6.723  11.514
14641SOL    HW145820   3.641   6.705  11.496
14641SOL    HW245821   3.508   6.722  11.427
14642SOL     OW45822   6.819  11.466   1.878
14642SOL    HW145823   6.775  11.492   1.959
14642SOL    HW245824   6.904  11.433   1.907
14643SOL     OW45825   9.286  14.006  14.446
14643SOL    HW145826   9.329  14.088  14.421
14643SOL    HW245827   9.290  14.005  14.542
14644SOL     OW45828   4.903   9.710   9.933
14644SOL    HW145829   4.971   9.706  10.000
14644SOL    HW245830   4.894   9.620   9.902
14645SOL     OW45831  13.476  12.269   4.256
14645SOL    HW145832  13.429  12.279   4.174
14645SOL    HW245833  13.564  12.239   4.231
14646SOL     OW45834  10.932   9.486   1.889
14646SOL    HW145835  10.855   9.464   1.943
14646SOL    HW245836  10.914   9.445   1.805
14647SOL     OW45837   2.304  12.959  11.476
14647SOL    HW145838   2.380  12.911  11.508
14647SOL    HW245839   2.230  12.900  11.489
14648SOL     OW45840   4.634  11.174  13.041
14648SOL    HW145841   4.603  11.109  12.978
14648SOL    HW245842   4.662  11.248  12.987
14649SOL     OW45843  13.822   7.077   0.167
14649SOL    HW145844  13.737   7.107   0.200
14649SOL    HW245845  13.805   6.989   0.134
14650SOL     OW45846   7.872   6.246  10.974
14650SOL    HW145847   7.858   6.317  11.036
14650SOL    HW245848   7.874   6.167  11.028
14651SOL     OW45849  13.347   8.124   0.208
14651SOL    HW145850  13.406   8.057   0.175
14651SOL    HW245851  13.339   8.186   0.136
14652SOL     OW45852   8.812   9.485   7.865
14652SOL    HW145853   8.736   9.447   7.908
14652SOL    HW245854   8.796   9.471   7.771
14653SOL     OW45855  10.135   0.496  14.495
14653SOL    HW145856  10.039   0.498  14.497
14653SOL    HW245857  10.159   0.554  14.423
14654SOL     OW45858   9.260  10.279   0.582
14654SOL    HW145859   9.306  10.362   0.598
14654SOL    HW245860   9.173  10.305   0.553
14655SOL     OW45861   7.665   3.628   8.856
14655SOL    HW145862   7.700   3.699   8.911
14655SOL    HW245863   7.627   3.567   8.918
14656SOL     OW45864   1.667  13.112  10.204
14656SOL    HW145865   1.679  13.029  10.251
14656SOL    HW245866   1.588  13.100  10.152
14657SOL     OW45867   9.381  12.657  12.644
14657SOL    HW145868   9.351  12.684  12.731
14657SOL    HW245869   9.432  12.578  12.660
14658SOL     OW45870  14.406  12.556  10.735
14658SOL    HW145871  14.498  12.536  10.754
14658SOL    HW245872  14.410  12.609  10.655
14659SOL     OW45873   2.188   8.999  14.806
14659SOL    HW145874   2.246   9.013   0.006
14659SOL    HW245875   2.100   8.995  14.844
14660SOL     OW45876   6.320  10.803   0.112
14660SOL    HW145877   6.390  10.749   0.075
14660SOL    HW245878   6.314  10.878   0.054
14661SOL     OW45879   8.406  11.121   5.478
14661SOL    HW145880   8.368  11.120   5.566
14661SOL    HW245881   8.476  11.056   5.481
14662SOL     OW45882   1.630   6.140  10.351
14662SOL    HW145883   1.647   6.093  10.269
14662SOL    HW245884   1.618   6.231  10.324
14663SOL     OW45885  14.801   8.373  13.221
14663SOL    HW145886   0.007   8.422  13.207
14663SOL    HW245887  14.827   8.297  13.273
14664SOL     OW45888   4.674  11.075   1.775
14664SOL    HW145889   4.620  11.154   1.779
14664SOL    HW245890   4.653  11.027   1.855
14665SOL     OW45891   7.066   7.616   5.763
14665SOL    HW145892   7.039   7.698   5.804
14665SOL    HW245893   7.161   7.615   5.771
14666SOL     OW45894   8.852   0.872   0.701
14666SOL    HW145895   8.787   0.937   0.675
14666SOL    HW245896   8.840   0.863   0.796
14667SOL     OW45897   5.475  10.124   7.021
14667SOL    HW145898   5.567  10.099   7.020
14667SOL    HW245899   5.477  10.219   7.006
14668SOL     OW45900   5.035   0.470  11.332
14668SOL    HW145901   4.991   0.521  11.401
14668SOL    HW245902   5.006   0.380  11.347
14669SOL     OW45903   8.587   8.407  10.526
14669SOL    HW145904   8.641   8.438  10.598
14669SOL    HW245905   8.555   8.321  10.555
14670SOL     OW45906  10.583   0.916   0.548
14670SOL    HW145907  10.500   0.874   0.526
14670SOL    HW245908  10.574   1.006   0.517
14671SOL     OW45909  11.749  10.489  14.298
14671SOL    HW145910  11.740  10.585  14.302
14671SOL    HW245911  11.840  10.475  14.273
14672SOL     OW45912   3.534  10.051  11.880
14672SOL    HW145913   3.561  10.060  11.971
14672SOL    HW245914   3.584  10.118  11.834
14673SOL     OW45915   0.198   2.407  13.772
14673SOL    HW145916   0.158   2.327  13.737
14673SOL    HW245917   0.266   2.428  13.708
14674SOL     OW45918  13.745  12.294  14.694
14674SOL    HW145919  13.767  12.373  14.743
14674SOL    HW245920  13.782  12.223  14.746
14675SOL     OW45921  12.997   2.765   0.913
14675SOL    HW145922  13.075   2.715   0.940
14675SOL    HW245923  13.029   2.822   0.844
14676SOL     OW45924   6.114   3.362   7.853
14676SOL    HW145925   6.161   3.348   7.770
14676SOL    HW245926   6.142   3.449   7.882
14677SOL     OW45927  12.999  10.966  14.457
14677SOL    HW145928  12.915  10.936  14.494
14677SOL    HW245929  13.065  10.926  14.513
14678SOL     OW45930  10.038   9.855  11.789
14678SOL    HW145931  10.122   9.891  11.819
14678SOL    HW245932  10.042   9.763  11.816
14679SOL     OW45933  11.379  13.604  11.166
14679SOL    HW145934  11.360  13.695  11.190
14679SOL    HW245935  11.304  13.554  11.199
14680SOL     OW45936   8.739  14.858   1.120
14680SOL    HW145937   8.689   0.064   1.111
14680SOL    HW245938   8.762  14.835   1.030
14681SOL     OW45939  12.799   8.800   0.550
14681SOL    HW145940  12.803   8.894   0.528
14681SOL    HW245941  12.890   8.771   0.545
14682SOL     OW45942   4.351   5.130   8.397
14682SOL    HW145943   4.261   5.154   8.419
14682SOL    HW245944   4.342   5.063   8.330
14683SOL     OW45945   0.516  11.922   2.540
14683SOL    HW145946   0.480  11.875   2.465
14683SOL    HW245947   0.462  11.895   2.614
14684SOL     OW45948   6.744  12.906   6.358
14684SOL    HW145949   6.672  12.866   6.309
14684SOL    HW245950   6.702  12.967   6.418
14685SOL     OW45951   8.529   7.579   4.471
14685SOL    HW145952   8.503   7.542   4.386
14685SOL    HW245953   8.604   7.525   4.498
14686SOL     OW45954  14.640   2.359  10.728
14686SOL    HW145955  14.719   2.328  10.771
14686SOL    HW245956  14.579   2.285  10.732
14687SOL     OW45957   4.659   0.083  13.859
14687SOL    HW145958   4.634   0.175  13.864
14687SOL    HW245959   4.604   0.047  13.790
14688SOL     OW45960   2.263   7.478  11.608
14688SOL    HW145961   2.210   7.554  11.633
14688SOL    HW245962   2.220   7.444  11.530
14689SOL     OW45963   8.079  11.399  14.480
14689SOL    HW145964   8.080  11.352  14.397
14689SOL    HW245965   7.987  11.402  14.505
14690SOL     OW45966   4.311   8.922   7.874
14690SOL    HW145967   4.311   9.014   7.898
14690SOL    HW245968   4.397   8.890   7.903
14691SOL     OW45969   1.547   8.151   5.304
14691SOL    HW145970   1.529   8.091   5.376
14691SOL    HW245971   1.637   8.180   5.317
14692SOL     OW45972  12.423   5.793  10.985
14692SOL    HW145973  12.480   5.869  11.001
14692SOL    HW245974  12.475   5.718  11.016
14693SOL     OW45975  12.714  14.101   5.993
14693SOL    HW145976  12.654  14.069   5.925
14693SOL    HW245977  12.789  14.041   5.990
14694SOL     OW45978   2.200   8.931   5.484
14694SOL    HW145979   2.194   8.890   5.397
14694SOL    HW245980   2.192   9.025   5.467
14695SOL     OW45981   4.051   3.328  14.341
14695SOL    HW145982   4.124   3.308  14.283
14695SOL    HW245983   4.062   3.420  14.364
14696SOL     OW45984   9.885   1.006   4.924
14696SOL    HW145985   9.793   0.983   4.912
14696SOL    HW245986   9.909   0.967   5.009
14697SOL     OW45987   5.773  13.255   6.340
14697SOL    HW145988   5.730  13.326   6.293
14697SOL    HW245989   5.726  13.176   6.312
14698SOL     OW45990   4.560   5.512   6.985
14698SOL    HW145991   4.599   5.424   6.987
14698SOL    HW245992   4.547   5.530   6.892
14699SOL     OW45993   3.077   4.048  10.184
14699SOL    HW145994   2.992   4.009  10.205
14699SOL    HW245995   3.055   4.131  10.142
14700SOL     OW45996  12.387   2.182  14.285
14700SOL    HW145997  12.421   2.238  14.354
14700SOL    HW245998  12.367   2.241  14.212
14701SOL     OW45999  12.504  14.743   4.962
14701SOL    HW146000  12.481  14.672   4.903
14701SOL    HW246001  12.449  14.729   5.039
14702SOL     OW46002   7.538  12.234   9.940
14702SOL    HW146003   7.589  12.183   9.877
14702SOL    HW246004   7.500  12.168   9.999
14703SOL     OW46005  13.597  12.020   9.458
14703SOL    HW146006  13.503  12.035   9.450
14703SOL    HW246007  13.631  12.034   9.370
14704SOL     OW46008   1.817  10.184   7.975
14704SOL    HW146009   1.754  10.255   7.981
14704SOL    HW246010   1.849  10.188   7.885
14705SOL     OW46011   2.556  11.548   5.644
14705SOL    HW146012   2.481  11.491   5.661
14705SOL    HW246013   2.517  11.633   5.624
14706SOL     OW46014  12.754   5.812   2.604
14706SOL    HW146015  12.833   5.810   2.550
14706SOL    HW246016  12.703   5.737   2.575
14707SOL     OW46017   6.090  13.044  12.558
14707SOL    HW146018   6.102  12.965  12.505
14707SOL    HW246019   5.996  13.062  12.554
14708SOL     OW46020  10.281   4.646   7.621
14708SOL    HW146021  10.364   4.690   7.604
14708SOL    HW246022  10.306   4.564   7.665
14709SOL     OW46023   4.523   0.356   0.043
14709SOL    HW146024   4.507   0.414   0.117
14709SOL    HW246025   4.536   0.415  14.844
14710SOL     OW46026   3.197  12.051  13.723
14710SOL    HW146027   3.225  12.025  13.636
14710SOL    HW246028   3.277  12.079  13.767
14711SOL     OW46029   1.460   5.505  13.950
14711SOL    HW146030   1.403   5.453  13.893
14711SOL    HW246031   1.431   5.595  13.938
14712SOL     OW46032  14.171   3.945   6.724
14712SOL    HW146033  14.142   3.947   6.815
14712SOL    HW246034  14.238   4.013   6.718
14713SOL     OW46035   3.785   1.752  11.720
14713SOL    HW146036   3.704   1.700  11.719
14713SOL    HW246037   3.837   1.716  11.648
14714SOL     OW46038  11.638   8.402   8.983
14714SOL    HW146039  11.565   8.445   8.940
14714SOL    HW246040  11.713   8.460   8.966
14715SOL     OW46041  12.953  12.437  12.506
14715SOL    HW146042  12.944  12.497  12.432
14715SOL    HW246043  12.913  12.356  12.476
14716SOL     OW46044  14.407   1.229   2.378
14716SOL    HW146045  14.400   1.294   2.448
14716SOL    HW246046  14.353   1.264   2.307
14717SOL     OW46047   5.535   5.957   0.076
14717SOL    HW146048   5.545   6.041   0.121
14717SOL    HW246049   5.467   5.911   0.125
14718SOL     OW46050  10.989  10.692   0.961
14718SOL    HW146051  10.992  10.762   0.896
14718SOL    HW246052  11.073  10.647   0.952
14719SOL     OW46053   7.535   6.704   2.841
14719SOL    HW146054   7.543   6.682   2.749
14719SOL    HW246055   7.607   6.657   2.884
14720SOL     OW46056  11.557   3.009   6.295
14720SOL    HW146057  11.594   2.998   6.383
14720SOL    HW246058  11.618   3.068   6.251
14721SOL     OW46059  10.956   9.257  13.609
14721SOL    HW146060  10.883   9.233  13.551
14721SOL    HW246061  10.927   9.337  13.652
14722SOL     OW46062   5.627  13.838  13.553
14722SOL    HW146063   5.579  13.829  13.470
14722SOL    HW246064   5.718  13.817  13.530
14723SOL     OW46065   6.341   7.534   9.230
14723SOL    HW146066   6.297   7.524   9.314
14723SOL    HW246067   6.364   7.627   9.226
14724SOL     OW46068  12.222   9.648   6.957
14724SOL    HW146069  12.237   9.642   7.051
14724SOL    HW246070  12.300   9.692   6.923
14725SOL     OW46071   6.014   7.371   4.007
14725SOL    HW146072   6.021   7.293   4.061
14725SOL    HW246073   6.102   7.384   3.972
14726SOL     OW46074   9.324   2.946   8.912
14726SOL    HW146075   9.237   2.973   8.943
14726SOL    HW246076   9.308   2.908   8.826
14727SOL     OW46077   5.772  11.925   7.365
14727SOL    HW146078   5.774  11.949   7.458
14727SOL    HW246079   5.725  11.997   7.323
14728SOL     OW46080   7.099   5.440   8.095
14728SOL    HW146081   7.089   5.407   8.184
14728SOL    HW246082   7.184   5.484   8.095
14729SOL     OW46083   8.693   1.993   9.064
14729SOL    HW146084   8.646   2.061   9.112
14729SOL    HW246085   8.783   1.999   9.097
14730SOL     OW46086  11.497   4.302   1.565
14730SOL    HW146087  11.507   4.208   1.582
14730SOL    HW246088  11.583   4.339   1.588
14731SOL     OW46089   2.918   2.957  10.728
14731SOL    HW146090   3.013   2.954  10.738
14731SOL    HW246091   2.889   2.867  10.743
14732SOL     OW46092  12.020  10.022   8.589
14732SOL    HW146093  12.103  10.024   8.541
14732SOL    HW246094  12.016  10.107   8.633
14733SOL     OW46095   5.671   8.042   3.862
14733SOL    HW146096   5.650   7.962   3.911
14733SOL    HW246097   5.589   8.091   3.861
14734SOL     OW46098   5.287   1.774   4.941
14734SOL    HW146099   5.362   1.833   4.938
14734SOL    HW246100   5.311   1.701   4.883
14735SOL     OW46101   9.238   0.026  11.896
14735SOL    HW146102   9.243  14.834  11.829
14735SOL    HW246103   9.269  14.858  11.976
14736SOL     OW46104   5.697   5.967   6.083
14736SOL    HW146105   5.702   5.872   6.070
14736SOL    HW246106   5.722   5.981   6.174
14737SOL     OW46107   1.488   4.921   4.483
14737SOL    HW146108   1.413   4.919   4.424
14737SOL    HW246109   1.482   5.006   4.527
14738SOL     OW46110   7.517  11.951   5.186
14738SOL    HW146111   7.482  12.033   5.222
14738SOL    HW246112   7.534  11.896   5.262
14739SOL     OW46113  11.721   8.411  12.803
14739SOL    HW146114  11.649   8.349  12.818
14739SOL    HW246115  11.800   8.360  12.819
14740SOL     OW46116  14.058   3.133   3.455
14740SOL    HW146117  14.000   3.209   3.461
14740SOL    HW246118  14.056   3.094   3.542
14741SOL     OW46119   5.873   6.900   6.726
14741SOL    HW146120   5.865   6.996   6.723
14741SOL    HW246121   5.837   6.870   6.642
14742SOL     OW46122   4.502  10.717   3.486
14742SOL    HW146123   4.580  10.703   3.540
14742SOL    HW246124   4.443  10.645   3.511
14743SOL     OW46125   2.597  13.740   1.524
14743SOL    HW146126   2.675  13.692   1.497
14743SOL    HW246127   2.526  13.675   1.520
14744SOL     OW46128   9.439   6.494   0.054
14744SOL    HW146129   9.397   6.408   0.056
14744SOL    HW246130   9.365   6.556   0.052
14745SOL     OW46131   2.020   0.082   6.990
14745SOL    HW146132   1.962   0.145   7.031
14745SOL    HW246133   1.968   0.001   6.985
14746SOL     OW46134  11.857   4.841   2.278
14746SOL    HW146135  11.894   4.753   2.288
14746SOL    HW246136  11.871   4.861   2.185
14747SOL     OW46137   3.984   8.311   0.076
14747SOL    HW146138   3.953   8.222   0.061
14747SOL    HW246139   4.072   8.301   0.112
14748SOL     OW46140  14.390   2.645   3.601
14748SOL    HW146141  14.356   2.719   3.552
14748SOL    HW246142  14.329   2.633   3.673
14749SOL     OW46143   7.685   3.019   9.487
14749SOL    HW146144   7.703   2.984   9.400
14749SOL    HW246145   7.761   2.997   9.539
14750SOL     OW46146   4.204  14.551  10.911
14750SOL    HW146147   4.259  14.597  10.847
14750SOL    HW246148   4.115  14.582  10.893
14751SOL     OW46149   4.201  12.743   5.665
14751SOL    HW146150   4.109  12.758   5.685
14751SOL    HW246151   4.249  12.785   5.736
14752SOL     OW46152   8.625  11.048   3.584
14752SOL    HW146153   8.712  11.010   3.592
14752SOL    HW246154   8.566  10.980   3.619
14753SOL     OW46155  11.796   5.330   1.615
14753SOL    HW146156  11.770   5.314   1.524
14753SOL    HW246157  11.885   5.296   1.621
14754SOL     OW46158   7.279  12.016  14.389
14754SOL    HW146159   7.237  12.025  14.475
14754SOL    HW246160   7.243  11.934  14.353
14755SOL     OW46161   8.747  14.315   9.427
14755SOL    HW146162   8.796  14.233   9.430
14755SOL    HW246163   8.769  14.353   9.342
14756SOL     OW46164  10.796   3.767   6.240
14756SOL    HW146165  10.801   3.858   6.209
14756SOL    HW246166  10.885   3.745   6.266
14757SOL     OW46167  13.619   5.070  11.157
14757SOL    HW146168  13.675   5.039  11.086
14757SOL    HW246169  13.530   5.053  11.127
14758SOL     OW46170   2.361   9.631   0.573
14758SOL    HW146171   2.346   9.563   0.508
14758SOL    HW246172   2.309   9.706   0.542
14759SOL     OW46173   6.743   7.212  11.604
14759SOL    HW146174   6.655   7.219  11.565
14759SOL    HW246175   6.749   7.121  11.633
14760SOL     OW46176  13.484  14.247  10.516
14760SOL    HW146177  13.550  14.300  10.472
14760SOL    HW246178  13.480  14.166  10.465
14761SOL     OW46179  14.510   6.205   1.298
14761SOL    HW146180  14.452   6.248   1.235
14761SOL    HW246181  14.596   6.242   1.280
14762SOL     OW46182  12.923  13.202   7.074
14762SOL    HW146183  12.929  13.296   7.090
14762SOL    HW246184  12.892  13.195   6.984
14763SOL     OW46185   3.675   3.841  10.562
14763SOL    HW146186   3.597   3.796  10.529
14763SOL    HW246187   3.735   3.841  10.487
14764SOL     OW46188   4.448  12.152  13.952
14764SOL    HW146189   4.445  12.223  14.016
14764SOL    HW246190   4.372  12.097  13.973
14765SOL     OW46191  11.181   8.089   1.276
14765SOL    HW146192  11.162   8.006   1.231
14765SOL    HW246193  11.219   8.145   1.208
14766SOL     OW46194   3.163   7.816   8.783
14766SOL    HW146195   3.181   7.907   8.760
14766SOL    HW246196   3.077   7.818   8.824
14767SOL     OW46197   9.009   6.399  12.439
14767SOL    HW146198   9.045   6.311  12.430
14767SOL    HW246199   9.063   6.441  12.506
14768SOL     OW46200  13.957   5.552   7.100
14768SOL    HW146201  13.971   5.459   7.119
14768SOL    HW246202  13.864   5.559   7.081
14769SOL     OW46203   2.344  13.634   5.586
14769SOL    HW146204   2.292  13.713   5.571
14769SOL    HW246205   2.412  13.662   5.648
14770SOL     OW46206   0.508   2.432  12.605
14770SOL    HW146207   0.449   2.461  12.535
14770SOL    HW246208   0.595   2.450  12.571
14771SOL     OW46209   8.431   2.786   4.253
14771SOL    HW146210   8.485   2.798   4.175
14771SOL    HW246211   8.366   2.721   4.226
14772SOL     OW46212  11.491  11.397   7.340
14772SOL    HW146213  11.530  11.313   7.364
14772SOL    HW246214  11.532  11.460   7.400
14773SOL     OW46215   4.124   7.732  13.627
14773SOL    HW146216   4.055   7.785  13.666
14773SOL    HW246217   4.175   7.793  13.574
14774SOL     OW46218   3.351  11.940   1.551
14774SOL    HW146219   3.284  11.998   1.513
14774SOL    HW246220   3.322  11.852   1.528
14775SOL     OW46221  10.930   3.499   4.324
14775SOL    HW146222  10.972   3.430   4.375
14775SOL    HW246223  10.843   3.465   4.304
14776SOL     OW46224   9.272   3.087  14.349
14776SOL    HW146225   9.185   3.073  14.312
14776SOL    HW246226   9.303   2.999  14.370
14777SOL     OW46227   7.968  13.479   9.726
14777SOL    HW146228   8.055  13.517   9.743
14777SOL    HW246229   7.926  13.541   9.667
14778SOL     OW46230   3.219   3.946   0.152
14778SOL    HW146231   3.217   3.967   0.059
14778SOL    HW246232   3.134   3.976   0.186
14779SOL     OW46233  14.071   4.456   1.187
14779SOL    HW146234  14.034   4.541   1.163
14779SOL    HW246235  14.146   4.445   1.129
14780SOL     OW46236  11.579  13.244   4.492
14780SOL    HW146237  11.650  13.297   4.454
14780SOL    HW246238  11.588  13.159   4.451
14781SOL     OW46239   5.296   4.292   8.082
14781SOL    HW146240   5.203   4.273   8.088
14781SOL    HW246241   5.334   4.249   8.159
14782SOL     OW46242   5.599  12.461   7.320
14782SOL    HW146243   5.659  12.458   7.395
14782SOL    HW246244   5.570  12.371   7.309
14783SOL     OW46245  10.938   1.281   9.785
14783SOL    HW146246  10.922   1.364   9.829
14783SOL    HW246247  10.853   1.257   9.748
14784SOL     OW46248  12.808  12.103   1.512
14784SOL    HW146249  12.837  12.080   1.423
14784SOL    HW246250  12.749  12.033   1.537
14785SOL     OW46251  10.051   1.468   2.152
14785SOL    HW146252  10.048   1.551   2.200
14785SOL    HW246253  10.049   1.401   2.220
14786SOL     OW46254  11.133   9.010  12.748
14786SOL    HW146255  11.059   9.046  12.698
14786SOL    HW246256  11.095   8.987  12.833
14787SOL     OW46257   5.254   4.186   7.274
14787SOL    HW146258   5.337   4.228   7.296
14787SOL    HW246259   5.279   4.107   7.227
14788SOL     OW46260  10.592   8.577   5.929
14788SOL    HW146261  10.517   8.550   5.982
14788SOL    HW246262  10.592   8.673   5.935
14789SOL     OW46263  10.061   9.313  10.906
14789SOL    HW146264  10.017   9.396  10.924
14789SOL    HW246265  10.153   9.336  10.895
14790SOL     OW46266   9.395   8.185   0.862
14790SOL    HW146267   9.416   8.183   0.955
14790SOL    HW246268   9.369   8.096   0.841
14791SOL     OW46269   4.645   3.545   7.819
14791SOL    HW146270   4.653   3.532   7.725
14791SOL    HW246271   4.579   3.614   7.829
14792SOL     OW46272  11.888   2.183   8.187
14792SOL    HW146273  11.850   2.257   8.234
14792SOL    HW246274  11.916   2.123   8.256
14793SOL     OW46275  14.848   2.587   2.904
14793SOL    HW146276  14.845   2.498   2.870
14793SOL    HW246277  14.863   2.577   2.998
14794SOL     OW46278  12.860  10.730   4.119
14794SOL    HW146279  12.895  10.793   4.182
14794SOL    HW246280  12.938  10.689   4.080
14795SOL     OW46281   9.454  12.089  11.186
14795SOL    HW146282   9.448  12.115  11.277
14795SOL    HW246283   9.543  12.113  11.159
14796SOL     OW46284   6.265   8.778  14.621
14796SOL    HW146285   6.342   8.800  14.569
14796SOL    HW246286   6.223   8.863  14.640
14797SOL     OW46287  12.924   3.692  13.492
14797SOL    HW146288  12.876   3.620  13.452
14797SOL    HW246289  12.907   3.767  13.435
14798SOL     OW46290   0.932   4.655   2.095
14798SOL    HW146291   0.870   4.724   2.117
14798SOL    HW246292   0.955   4.671   2.004
14799SOL     OW46293  12.139   4.330  11.366
14799SOL    HW146294  12.229   4.342  11.334
14799SOL    HW246295  12.149   4.302  11.457
14800SOL     OW46296   6.638  11.937   9.698
14800SOL    HW146297   6.709  11.970   9.753
14800SOL    HW246298   6.581  11.889   9.758
14801SOL     OW46299   4.722   2.738  11.238
14801SOL    HW146300   4.788   2.751  11.170
14801SOL    HW246301   4.638   2.754  11.194
14802SOL     OW46302   9.386   4.030  10.653
14802SOL    HW146303   9.319   3.988  10.706
14802SOL    HW246304   9.464   3.977  10.667
14803SOL     OW46305   9.224  13.848   6.843
14803SOL    HW146306   9.305  13.891   6.866
14803SOL    HW246307   9.214  13.778   6.907
14804SOL     OW46308   1.851   7.887   1.005
14804SOL    HW146309   1.869   7.796   1.030
14804SOL    HW246310   1.912   7.905   0.934
14805SOL     OW46311   4.968  13.309  14.558
14805SOL    HW146312   5.050  13.259  14.550
14805SOL    HW246313   4.921  13.266  14.629
14806SOL     OW46314  11.896   4.571   1.297
14806SOL    HW146315  11.961   4.635   1.326
14806SOL    HW246316  11.823   4.580   1.358
14807SOL     OW46317   9.894   0.219   7.226
14807SOL    HW146318   9.890   0.315   7.219
14807SOL    HW246319   9.873   0.188   7.138
14808SOL     OW46320   4.272  11.713  13.761
14808SOL    HW146321   4.183  11.680  13.773
14808SOL    HW246322   4.264  11.777  13.690
14809SOL     OW46323   6.742   0.935  13.402
14809SOL    HW146324   6.726   1.028  13.389
14809SOL    HW246325   6.657   0.893  13.388
14810SOL     OW46326   1.850   5.728  11.212
14810SOL    HW146327   1.780   5.727  11.277
14810SOL    HW246328   1.918   5.783  11.251
14811SOL     OW46329   6.066  11.907   1.363
14811SOL    HW146330   6.102  11.994   1.346
14811SOL    HW246331   5.998  11.896   1.296
14812SOL     OW46332  12.114  12.405   7.463
14812SOL    HW146333  12.208  12.415   7.449
14812SOL    HW246334  12.100  12.310   7.461
14813SOL     OW46335   8.497   6.996   5.591
14813SOL    HW146336   8.445   6.939   5.648
14813SOL    HW246337   8.451   6.993   5.507
14814SOL     OW46338   6.034   4.102   6.247
14814SOL    HW146339   5.988   4.186   6.238
14814SOL    HW246340   6.001   4.065   6.329
14815SOL     OW46341   4.037   9.887  13.445
14815SOL    HW146342   4.070   9.970  13.412
14815SOL    HW246343   4.037   9.829  13.369
14816SOL     OW46344  10.359   3.636  12.428
14816SOL    HW146345  10.403   3.600  12.506
14816SOL    HW246346  10.413   3.606  12.355
14817SOL     OW46347   1.128   6.550   8.767
14817SOL    HW146348   1.083   6.605   8.703
14817SOL    HW246349   1.142   6.608   8.843
14818SOL     OW46350   3.948  11.263   4.655
14818SOL    HW146351   3.983  11.344   4.618
14818SOL    HW246352   4.014  11.197   4.635
14819SOL     OW46353   6.992  13.564  12.112
14819SOL    HW146354   6.905  13.553  12.072
14819SOL    HW246355   7.051  13.573  12.037
14820SOL     OW46356   6.798   0.137   4.472
14820SOL    HW146357   6.830   0.120   4.384
14820SOL    HW246358   6.708   0.104   4.472
14821SOL     OW46359   6.791  12.950   9.612
14821SOL    HW146360   6.715  12.905   9.649
14821SOL    HW246361   6.793  12.923   9.520
14822SOL     OW46362   0.928   3.561   9.423
14822SOL    HW146363   0.846   3.520   9.396
14822SOL    HW246364   0.935   3.639   9.368
14823SOL     OW46365  13.915   6.948  12.018
14823SOL    HW146366  13.866   6.945  12.101
14823SOL    HW246367  13.850   6.974  11.953
14824SOL     OW46368  12.525  12.333  13.497
14824SOL    HW146369  12.591  12.274  13.535
14824SOL    HW246370  12.451  12.328  13.557
14825SOL     OW46371   8.649   8.435   2.371
14825SOL    HW146372   8.588   8.506   2.353
14825SOL    HW246373   8.722   8.451   2.311
14826SOL     OW46374  10.315   3.343   3.857
14826SOL    HW146375  10.367   3.381   3.927
14826SOL    HW246376  10.275   3.265   3.895
14827SOL     OW46377  14.588   4.562   1.214
14827SOL    HW146378  14.581   4.548   1.119
14827SOL    HW246379  14.512   4.516   1.250
14828SOL     OW46380   0.225   6.372   8.624
14828SOL    HW146381   0.262   6.388   8.537
14828SOL    HW246382   0.282   6.305   8.662
14829SOL     OW46383   6.961   6.722  10.350
14829SOL    HW146384   6.925   6.706  10.263
14829SOL    HW246385   7.055   6.708  10.339
14830SOL     OW46386   1.079   8.622   5.535
14830SOL    HW146387   1.086   8.559   5.607
14830SOL    HW246388   1.165   8.618   5.492
14831SOL     OW46389   6.458   8.952   3.579
14831SOL    HW146390   6.482   8.866   3.614
14831SOL    HW246391   6.531   8.977   3.523
14832SOL     OW46392  10.806   7.448   1.937
14832SOL    HW146393  10.822   7.355   1.954
14832SOL    HW246394  10.852   7.493   2.008
14833SOL     OW46395   3.839  11.690   2.648
14833SOL    HW146396   3.934  11.689   2.661
14833SOL    HW246397   3.817  11.782   2.635
14834SOL     OW46398   3.783  14.695   0.466
14834SOL    HW146399   3.828  14.660   0.544
14834SOL    HW246400   3.853  14.721   0.408
14835SOL     OW46401   3.062  14.871   4.092
14835SOL    HW146402   3.023  14.855   4.007
14835SOL    HW246403   3.148   0.035   4.073
14836SOL     OW46404   1.914   3.299   6.686
14836SOL    HW146405   1.866   3.382   6.679
14836SOL    HW246406   1.971   3.310   6.762
14837SOL     OW46407  11.562   3.471   1.029
14837SOL    HW146408  11.629   3.522   1.074
14837SOL    HW246409  11.480   3.499   1.069
14838SOL     OW46410  11.192  14.720   6.181
14838SOL    HW146411  11.100  14.695   6.191
14838SOL    HW246412  11.229  14.654   6.122
14839SOL     OW46413   4.495   5.438   3.847
14839SOL    HW146414   4.540   5.513   3.808
14839SOL    HW246415   4.546   5.417   3.925
14840SOL     OW46416   3.924   8.691  13.028
14840SOL    HW146417   3.895   8.715  13.117
14840SOL    HW246418   4.014   8.662  13.039
14841SOL     OW46419   7.609   0.353   6.571
14841SOL    HW146420   7.601   0.421   6.503
14841SOL    HW246421   7.685   0.380   6.623
14842SOL     OW46422   0.736  14.379   5.830
14842SOL    HW146423   0.715  14.326   5.754
14842SOL    HW246424   0.772  14.460   5.794
14843SOL     OW46425   3.596   5.550   0.072
14843SOL    HW146426   3.649   5.555  14.867
14843SOL    HW246427   3.660   5.537   0.142
14844SOL     OW46428  12.067  14.029   8.353
14844SOL    HW146429  12.157  14.026   8.321
14844SOL    HW246430  12.075  14.034   8.448
14845SOL     OW46431   7.205   0.083  13.128
14845SOL    HW146432   7.261   0.146  13.174
14845SOL    HW246433   7.266   0.027  13.080
14846SOL     OW46434  12.751   7.671   3.068
14846SOL    HW146435  12.785   7.622   2.993
14846SOL    HW246436  12.827   7.689   3.122
14847SOL     OW46437  12.329  13.785   2.711
14847SOL    HW146438  12.305  13.772   2.619
14847SOL    HW246439  12.388  13.861   2.710
14848SOL     OW46440   5.488  11.841   8.026
14848SOL    HW146441   5.501  11.867   8.117
14848SOL    HW246442   5.404  11.880   8.002
14849SOL     OW46443   4.956  13.284  10.621
14849SOL    HW146444   5.004  13.272  10.703
14849SOL    HW246445   4.932  13.195  10.594
14850SOL     OW46446  11.558   8.329  14.807
14850SOL    HW146447  11.588   8.336   0.023
14850SOL    HW246448  11.638   8.316  14.756
14851SOL     OW46449   2.108   6.739   5.571
14851SOL    HW146450   2.135   6.823   5.535
14851SOL    HW246451   2.190   6.694   5.589
14852SOL     OW46452   7.131   1.736   6.053
14852SOL    HW146453   7.122   1.689   6.136
14852SOL    HW246454   7.218   1.712   6.021
14853SOL     OW46455   5.796   2.286  10.052
14853SOL    HW146456   5.868   2.225  10.069
14853SOL    HW246457   5.784   2.282   9.957
14854SOL     OW46458   6.931   7.443   0.037
14854SOL    HW146459   7.020   7.475   0.052
14854SOL    HW246460   6.937   7.392  14.831
14855SOL     OW46461   6.932   2.596   3.397
14855SOL    HW146462   6.998   2.542   3.440
14855SOL    HW246463   6.982   2.661   3.347
14856SOL     OW46464   2.411   1.410  13.118
14856SOL    HW146465   2.327   1.451  13.098
14856SOL    HW246466   2.389   1.320  13.143
14857SOL     OW46467   9.406   1.833  11.636
14857SOL    HW146468   9.368   1.762  11.689
14857SOL    HW246469   9.457   1.788  11.569
14858SOL     OW46470   6.724  12.423   6.125
14858SOL    HW146471   6.690  12.493   6.181
14858SOL    HW246472   6.788  12.377   6.179
14859SOL     OW46473   3.814  13.824  10.784
14859SOL    HW146474   3.719  13.830  10.794
14859SOL    HW246475   3.849  13.895  10.836
14860SOL     OW46476   1.559  13.832   5.698
14860SOL    HW146477   1.480  13.799   5.740
14860SOL    HW246478   1.617  13.855   5.770
14861SOL     OW46479   2.086  10.903   8.974
14861SOL    HW146480   2.015  10.871   8.919
14861SOL    HW246481   2.165  10.865   8.936
14862SOL     OW46482  10.593   6.923   5.635
14862SOL    HW146483  10.642   6.956   5.710
14862SOL    HW246484  10.661   6.893   5.574
14863SOL     OW46485  10.923   5.831   7.949
14863SOL    HW146486  10.914   5.815   8.043
14863SOL    HW246487  10.963   5.751   7.914
14864SOL     OW46488   0.891   3.271   9.345
14864SOL    HW146489   0.905   3.177   9.355
14864SOL    HW246490   0.969   3.303   9.300
14865SOL     OW46491   0.871   3.554   6.294
14865SOL    HW146492   0.947   3.532   6.240
14865SOL    HW246493   0.908   3.604   6.367
14866SOL     OW46494   0.469  13.706   9.226
14866SOL    HW146495   0.511  13.784   9.263
14866SOL    HW246496   0.494  13.708   9.134
14867SOL     OW46497  11.983   2.897   1.707
14867SOL    HW146498  11.888   2.905   1.693
14867SOL    HW246499  12.021   2.951   1.638
14868SOL     OW46500  13.706  10.013  14.634
14868SOL    HW146501  13.678  10.020  14.725
14868SOL    HW246502  13.794   9.975  14.638
14869SOL     OW46503   7.167   6.866   2.065
14869SOL    HW146504   7.211   6.936   2.113
14869SOL    HW246505   7.171   6.790   2.124
14870SOL     OW46506  11.706  13.628  11.877
14870SOL    HW146507  11.618  13.645  11.912
14870SOL    HW246508  11.763  13.683  11.930
14871SOL     OW46509   4.740   7.692   5.197
14871SOL    HW146510   4.719   7.761   5.260
14871SOL    HW246511   4.765   7.739   5.117
14872SOL     OW46512   2.313   0.642   2.239
14872SOL    HW146513   2.334   0.555   2.207
14872SOL    HW246514   2.218   0.644   2.244
14873SOL     OW46515  13.858   1.290  14.292
14873SOL    HW146516  13.944   1.249  14.285
14873SOL    HW246517  13.854   1.350  14.218
14874SOL     OW46518   0.688  14.208   1.278
14874SOL    HW146519   0.733  14.136   1.235
14874SOL    HW246520   0.613  14.227   1.221
14875SOL     OW46521   0.471  10.783   0.777
14875SOL    HW146522   0.531  10.709   0.773
14875SOL    HW246523   0.444  10.786   0.869
14876SOL     OW46524   8.285  14.633   9.871
14876SOL    HW146525   8.252  14.543   9.878
14876SOL    HW246526   8.260  14.660   9.783
14877SOL     OW46527   9.343   5.359  11.733
14877SOL    HW146528   9.261   5.403  11.753
14877SOL    HW246529   9.406   5.396  11.796
14878SOL     OW46530   7.837   1.843  11.396
14878SOL    HW146531   7.870   1.774  11.454
14878SOL    HW246532   7.768   1.801  11.345
14879SOL     OW46533   1.240  12.134   2.683
14879SOL    HW146534   1.234  12.038   2.688
14879SOL    HW246535   1.150  12.164   2.697
14880SOL     OW46536  12.516   0.077  12.243
14880SOL    HW146537  12.563   0.100  12.323
14880SOL    HW246538  12.452   0.146  12.232
14881SOL     OW46539  12.295   6.208  12.498
14881SOL    HW146540  12.310   6.302  12.484
14881SOL    HW246541  12.267   6.202  12.590
14882SOL     OW46542  12.477  14.699  14.193
14882SOL    HW146543  12.407  14.638  14.218
14882SOL    HW246544  12.553  14.670  14.244
14883SOL     OW46545   5.712   1.509  11.907
14883SOL    HW146546   5.774   1.508  11.979
14883SOL    HW246547   5.688   1.417  11.894
14884SOL     OW46548  13.791  14.483   8.506
14884SOL    HW146549  13.795  14.546   8.434
14884SOL    HW246550  13.837  14.526   8.578
14885SOL     OW46551   8.382   6.041   3.764
14885SOL    HW146552   8.430   5.961   3.786
14885SOL    HW246553   8.337   6.066   3.845
14886SOL     OW46554   8.095  11.026  11.105
14886SOL    HW146555   8.153  11.095  11.137
14886SOL    HW246556   8.155  10.956  11.077
14887SOL     OW46557   0.555  13.203  14.068
14887SOL    HW146558   0.605  13.261  14.011
14887SOL    HW246559   0.524  13.133  14.011
14888SOL     OW46560   7.498   1.325  12.096
14888SOL    HW146561   7.410   1.322  12.059
14888SOL    HW246562   7.534   1.410  12.069
14889SOL     OW46563   8.580   1.056   6.626
14889SOL    HW146564   8.666   1.097   6.620
14889SOL    HW246565   8.567   1.041   6.720
14890SOL     OW46566  11.918   1.768   5.609
14890SOL    HW146567  11.833   1.746   5.646
14890SOL    HW246568  11.939   1.854   5.645
14891SOL     OW46569   6.180   7.986  12.738
14891SOL    HW146570   6.263   7.977  12.691
14891SOL    HW246571   6.193   7.934  12.818
14892SOL     OW46572  12.735   2.935   5.275
14892SOL    HW146573  12.807   2.986   5.313
14892SOL    HW246574  12.771   2.899   5.194
14893SOL     OW46575  14.847   7.955  12.933
14893SOL    HW146576  14.847   8.018  12.860
14893SOL    HW246577  14.861   7.870  12.891
14894SOL     OW46578   2.291  13.028   0.645
14894SOL    HW146579   2.276  12.995   0.556
14894SOL    HW246580   2.248  12.964   0.701
14895SOL     OW46581   6.940   0.319   7.212
14895SOL    HW146582   6.947   0.224   7.226
14895SOL    HW246583   6.968   0.357   7.295
14896SOL     OW46584   4.365   1.421   2.415
14896SOL    HW146585   4.277   1.403   2.381
14896SOL    HW246586   4.423   1.368   2.361
14897SOL     OW46587   8.758   1.905   9.591
14897SOL    HW146588   8.707   1.883   9.669
14897SOL    HW246589   8.766   2.000   9.594
14898SOL     OW46590   4.797   2.094   6.797
14898SOL    HW146591   4.758   2.178   6.775
14898SOL    HW246592   4.843   2.110   6.879
14899SOL     OW46593   2.579   6.799  10.621
14899SOL    HW146594   2.618   6.712  10.605
14899SOL    HW246595   2.654   6.858  10.627
14900SOL     OW46596   4.502   6.579  11.152
14900SOL    HW146597   4.435   6.540  11.209
14900SOL    HW246598   4.497   6.673  11.168
14901SOL     OW46599  10.602  10.426   3.453
14901SOL    HW146600  10.544  10.390   3.520
14901SOL    HW246601  10.638  10.348   3.409
14902SOL     OW46602   0.914   6.889   0.752
14902SOL    HW146603   0.932   6.972   0.795
14902SOL    HW246604   0.951   6.823   0.811
14903SOL     OW46605   1.517  11.200   3.360
14903SOL    HW146606   1.479  11.287   3.367
14903SOL    HW246607   1.598  11.205   3.411
14904SOL     OW46608   4.432  11.540   9.193
14904SOL    HW146609   4.398  11.472   9.251
14904SOL    HW246610   4.517  11.507   9.165
14905SOL     OW46611   9.421   2.617  13.274
14905SOL    HW146612   9.510   2.650  13.268
14905SOL    HW246613   9.403   2.614  13.368
14906SOL     OW46614   6.666   0.653   0.243
14906SOL    HW146615   6.611   0.725   0.273
14906SOL    HW246616   6.651   0.650   0.149
14907SOL     OW46617  13.017   5.953   1.489
14907SOL    HW146618  13.028   5.920   1.400
14907SOL    HW246619  12.968   5.884   1.534
14908SOL     OW46620  13.401   2.132   9.517
14908SOL    HW146621  13.426   2.224   9.509
14908SOL    HW246622  13.475   2.084   9.480
14909SOL     OW46623   6.194  10.678   0.881
14909SOL    HW146624   6.198  10.772   0.897
14909SOL    HW246625   6.188  10.638   0.968
14910SOL     OW46626   7.101  10.449  12.159
14910SOL    HW146627   7.149  10.381  12.207
14910SOL    HW246628   7.154  10.464  12.080
14911SOL     OW46629  11.861  11.982   4.355
14911SOL    HW146630  11.792  12.046   4.337
14911SOL    HW246631  11.868  11.931   4.274
14912SOL     OW46632   9.734  11.756  10.833
14912SOL    HW146633   9.741  11.832  10.890
14912SOL    HW246634   9.774  11.784  10.751
14913SOL     OW46635   8.389   8.141   2.979
14913SOL    HW146636   8.327   8.068   2.981
14913SOL    HW246637   8.462   8.108   2.927
14914SOL     OW46638   4.714   6.204  12.853
14914SOL    HW146639   4.692   6.245  12.770
14914SOL    HW246640   4.754   6.274  12.905
14915SOL     OW46641   4.274   1.600  10.651
14915SOL    HW146642   4.331   1.592  10.574
14915SOL    HW246643   4.208   1.532  10.638
14916SOL     OW46644   3.924   5.061   1.501
14916SOL    HW146645   3.963   5.020   1.423
14916SOL    HW246646   3.873   4.991   1.542
14917SOL     OW46647   7.791  10.073   7.933
14917SOL    HW146648   7.817  10.029   8.013
14917SOL    HW246649   7.719  10.130   7.959
14918SOL     OW46650   7.282   5.293   9.838
14918SOL    HW146651   7.202   5.338   9.811
14918SOL    HW246652   7.353   5.353   9.814
14919SOL     OW46653   4.669  12.276  11.038
14919SOL    HW146654   4.663  12.309  11.128
14919SOL    HW246655   4.628  12.344  10.985
14920SOL     OW46656  12.175   3.766   1.816
14920SOL    HW146657  12.083   3.782   1.838
14920SOL    HW246658  12.204   3.701   1.881
14921SOL     OW46659   1.807  11.687  13.893
14921SOL    HW146660   1.882  11.743  13.875
14921SOL    HW246661   1.734  11.748  13.906
14922SOL     OW46662  12.071  12.157   1.640
14922SOL    HW146663  12.130  12.113   1.580
14922SOL    HW246664  12.067  12.101   1.717
14923SOL     OW46665   3.127   1.703  13.836
14923SOL    HW146666   3.147   1.707  13.929
14923SOL    HW246667   3.032   1.695  13.831
14924SOL     OW46668   2.057   9.628  12.044
14924SOL    HW146669   2.116   9.570  12.093
14924SOL    HW246670   1.978   9.575  12.030
14925SOL     OW46671  12.425   2.762  11.863
14925SOL    HW146672  12.361   2.786  11.795
14925SOL    HW246673  12.427   2.666  11.861
14926SOL     OW46674   5.692   7.777   4.157
14926SOL    HW146675   5.668   7.745   4.071
14926SOL    HW246676   5.642   7.723   4.218
14927SOL     OW46677  14.115   5.639   3.222
14927SOL    HW146678  14.129   5.719   3.170
14927SOL    HW246679  14.195   5.629   3.273
14928SOL     OW46680   9.286   1.938  10.069
14928SOL    HW146681   9.335   2.003  10.121
14928SOL    HW246682   9.221   1.990  10.021
14929SOL     OW46683   1.475   6.890   1.731
14929SOL    HW146684   1.519   6.832   1.670
14929SOL    HW246685   1.401   6.839   1.764
14930SOL     OW46686   1.618   1.864   3.654
14930SOL    HW146687   1.684   1.848   3.721
14930SOL    HW246688   1.554   1.794   3.666
14931SOL     OW46689   1.722   5.968   3.529
14931SOL    HW146690   1.638   6.006   3.506
14931SOL    HW246691   1.710   5.874   3.517
14932SOL     OW46692   3.669   7.205  11.932
14932SOL    HW146693   3.698   7.140  11.868
14932SOL    HW246694   3.638   7.153  12.006
14933SOL     OW46695  10.515   9.290   2.185
14933SOL    HW146696  10.541   9.200   2.207
14933SOL    HW246697  10.553   9.343   2.255
14934SOL     OW46698   6.117  13.149  10.192
14934SOL    HW146699   6.106  13.132  10.285
14934SOL    HW246700   6.100  13.065  10.150
14935SOL     OW46701   4.932  10.431   1.905
14935SOL    HW146702   4.841  10.411   1.929
14935SOL    HW246703   4.984  10.369   1.956
14936SOL     OW46704  13.585  11.914   6.306
14936SOL    HW146705  13.668  11.950   6.276
14936SOL    HW246706  13.600  11.820   6.312
14937SOL     OW46707  10.337  11.421   4.638
14937SOL    HW146708  10.358  11.497   4.583
14937SOL    HW246709  10.406  11.358   4.619
14938SOL     OW46710   2.349   3.957   2.426
14938SOL    HW146711   2.313   4.044   2.408
14938SOL    HW246712   2.425   3.950   2.368
14939SOL     OW46713  10.563  12.199   4.369
14939SOL    HW146714  10.555  12.171   4.278
14939SOL    HW246715  10.530  12.289   4.370
14940SOL     OW46716   8.183  12.635   4.295
14940SOL    HW146717   8.108  12.575   4.302
14940SOL    HW246718   8.259  12.577   4.297
14941SOL     OW46719   4.886   0.620   6.696
14941SOL    HW146720   4.934   0.681   6.752
14941SOL    HW246721   4.954   0.562   6.661
14942SOL     OW46722   8.916   6.753   4.457
14942SOL    HW146723   8.848   6.814   4.429
14942SOL    HW246724   8.979   6.807   4.505
14943SOL     OW46725  12.520  11.028   5.115
14943SOL    HW146726  12.433  11.021   5.076
14943SOL    HW246727  12.537  11.122   5.119
14944SOL     OW46728  14.344   8.963  11.028
14944SOL    HW146729  14.305   9.049  11.010
14944SOL    HW246730  14.401   8.977  11.103
14945SOL     OW46731   5.845   8.490  11.771
14945SOL    HW146732   5.805   8.577  11.770
14945SOL    HW246733   5.904   8.491  11.846
14946SOL     OW46734   8.903  11.700   6.315
14946SOL    HW146735   8.957  11.779   6.321
14946SOL    HW246736   8.958  11.631   6.353
14947SOL     OW46737   5.968   7.474  11.269
14947SOL    HW146738   6.048   7.424  11.288
14947SOL    HW246739   5.948   7.453  11.177
14948SOL     OW46740  11.484   1.075   7.366
14948SOL    HW146741  11.429   1.019   7.422
14948SOL    HW246742  11.444   1.068   7.279
14949SOL     OW46743   5.613  11.985  11.716
14949SOL    HW146744   5.539  11.956  11.662
14949SOL    HW246745   5.607  11.930  11.795
14950SOL     OW46746   7.640  12.889   4.938
14950SOL    HW146747   7.705  12.862   4.873
14950SOL    HW246748   7.596  12.807   4.962
14951SOL     OW46749   4.492   8.859   6.176
14951SOL    HW146750   4.483   8.768   6.207
14951SOL    HW246751   4.586   8.875   6.177
14952SOL     OW46752   7.224   8.545  11.179
14952SOL    HW146753   7.196   8.455  11.164
14952SOL    HW246754   7.311   8.550  11.139
14953SOL     OW46755  13.902  13.338   8.094
14953SOL    HW146756  13.930  13.296   8.013
14953SOL    HW246757  13.984  13.362   8.138
14954SOL     OW46758   8.389   3.944  10.330
14954SOL    HW146759   8.385   3.942  10.234
14954SOL    HW246760   8.460   4.005  10.350
14955SOL     OW46761   3.036   7.921  12.451
14955SOL    HW146762   3.048   8.014  12.470
14955SOL    HW246763   2.974   7.919  12.378
14956SOL     OW46764   8.715   3.298   7.205
14956SOL    HW146765   8.656   3.275   7.133
14956SOL    HW246766   8.792   3.335   7.163
14957SOL     OW46767   6.188   7.792   6.545
14957SOL    HW146768   6.238   7.717   6.579
14957SOL    HW246769   6.249   7.865   6.550
14958SOL     OW46770  11.355   0.231  11.439
14958SOL    HW146771  11.340   0.318  11.477
14958SOL    HW246772  11.280   0.217  11.381
14959SOL     OW46773   6.215   6.613  13.053
14959SOL    HW146774   6.179   6.641  12.969
14959SOL    HW246775   6.259   6.530  13.035
14960SOL     OW46776   4.538   7.621   8.067
14960SOL    HW146777   4.532   7.651   8.158
14960SOL    HW246778   4.597   7.546   8.071
14961SOL     OW46779  14.497   7.184  11.383
14961SOL    HW146780  14.540   7.102  11.356
14961SOL    HW246781  14.521   7.194  11.476
14962SOL     OW46782  14.546   4.993  13.273
14962SOL    HW146783  14.520   5.066  13.217
14962SOL    HW246784  14.560   5.033  13.359
14963SOL     OW46785   8.602  12.148   0.017
14963SOL    HW146786   8.551  12.117  14.818
14963SOL    HW246787   8.687  12.171  14.855
14964SOL     OW46788   9.522   0.496   6.409
14964SOL    HW146789   9.551   0.542   6.489
14964SOL    HW246790   9.456   0.434   6.440
14965SOL     OW46791   8.719  12.020  12.984
14965SOL    HW146792   8.736  11.954  12.917
14965SOL    HW246793   8.788  12.085  12.972
14966SOL     OW46794   7.707   5.466  12.313
14966SOL    HW146795   7.687   5.373  12.311
14966SOL    HW246796   7.645   5.506  12.251
14967SOL     OW46797  10.862   1.746  10.745
14967SOL    HW146798  10.944   1.697  10.742
14967SOL    HW246799  10.873   1.807  10.819
14968SOL     OW46800   7.668  11.994   7.594
14968SOL    HW146801   7.742  11.937   7.614
14968SOL    HW246802   7.648  12.038   7.677
14969SOL     OW46803   7.458   6.497   8.521
14969SOL    HW146804   7.454   6.513   8.427
14969SOL    HW246805   7.550   6.509   8.544
14970SOL     OW46806   5.115   3.681   5.958
14970SOL    HW146807   5.211   3.679   5.953
14970SOL    HW246808   5.095   3.658   6.049
14971SOL     OW46809   1.043   9.227  10.308
14971SOL    HW146810   0.963   9.199  10.263
14971SOL    HW246811   1.074   9.148  10.352
14972SOL     OW46812  10.725   7.536   6.334
14972SOL    HW146813  10.802   7.505   6.382
14972SOL    HW246814  10.684   7.600   6.393
14973SOL     OW46815   7.614   9.164   4.594
14973SOL    HW146816   7.680   9.203   4.652
14973SOL    HW246817   7.623   9.213   4.512
14974SOL     OW46818   6.512   3.769   1.967
14974SOL    HW146819   6.521   3.855   2.008
14974SOL    HW246820   6.418   3.749   1.974
14975SOL     OW46821  14.398  10.483   6.818
14975SOL    HW146822  14.370  10.394   6.795
14975SOL    HW246823  14.394  10.532   6.736
14976SOL     OW46824   8.362   8.819   4.799
14976SOL    HW146825   8.439   8.776   4.762
14976SOL    HW246826   8.397   8.880   4.864
14977SOL     OW46827   7.670  13.080   7.269
14977SOL    HW146828   7.729  13.017   7.310
14977SOL    HW246829   7.719  13.115   7.195
14978SOL     OW46830  12.371  12.831   7.206
14978SOL    HW146831  12.283  12.819   7.172
14978SOL    HW246832  12.369  12.792   7.293
14979SOL     OW46833   1.826  11.586   0.875
14979SOL    HW146834   1.900  11.598   0.935
14979SOL    HW246835   1.866  11.574   0.789
14980SOL     OW46836   8.670  10.148  11.385
14980SOL    HW146837   8.676  10.173  11.293
14980SOL    HW246838   8.693  10.056  11.387
14981SOL     OW46839   5.797   8.800  11.551
14981SOL    HW146840   5.758   8.849  11.478
14981SOL    HW246841   5.727   8.794  11.616
14982SOL     OW46842   1.641   0.391   5.042
14982SOL    HW146843   1.715   0.449   5.026
14982SOL    HW246844   1.616   0.409   5.133
14983SOL     OW46845   5.774   7.128   0.483
14983SOL    HW146846   5.783   7.139   0.388
14983SOL    HW246847   5.854   7.166   0.520
14984SOL     OW46848  13.910  11.539   9.162
14984SOL    HW146849  13.906  11.603   9.091
14984SOL    HW246850  13.819  11.527   9.188
14985SOL     OW46851   4.998   3.934  12.016
14985SOL    HW146852   4.920   3.913  11.965
14985SOL    HW246853   5.056   3.977  11.954
14986SOL     OW46854   1.489   1.307   6.354
14986SOL    HW146855   1.525   1.390   6.387
14986SOL    HW246856   1.549   1.282   6.283
14987SOL     OW46857   6.306  14.018   1.462
14987SOL    HW146858   6.238  13.959   1.495
14987SOL    HW246859   6.265  14.059   1.385
14988SOL     OW46860   3.373  10.499  14.545
14988SOL    HW146861   3.350  10.552  14.621
14988SOL    HW246862   3.458  10.532  14.517
14989SOL     OW46863  14.029   6.870   8.950
14989SOL    HW146864  14.007   6.911   8.866
14989SOL    HW246865  14.110   6.823   8.933
14990SOL     OW46866   9.045   2.861   8.019
14990SOL    HW146867   9.106   2.934   8.015
14990SOL    HW246868   8.973   2.885   7.962
14991SOL     OW46869   4.431   1.382   9.907
14991SOL    HW146870   4.493   1.455   9.908
14991SOL    HW246871   4.348   1.421   9.935
14992SOL     OW46872   3.214   4.947   8.997
14992SOL    HW146873   3.156   4.872   9.011
14992SOL    HW246874   3.294   4.925   9.046
14993SOL     OW46875   3.115   8.978   1.101
14993SOL    HW146876   3.030   8.989   1.057
14993SOL    HW246877   3.177   8.964   1.030
14994SOL     OW46878   3.515   4.010  11.845
14994SOL    HW146879   3.519   3.936  11.785
14994SOL    HW246880   3.573   4.076  11.806
14995SOL     OW46881  10.451  11.866  10.082
14995SOL    HW146882  10.509  11.895  10.011
14995SOL    HW246883  10.510  11.847  10.155
14996SOL     OW46884   8.459   3.540  14.264
14996SOL    HW146885   8.455   3.445  14.277
14996SOL    HW246886   8.444   3.552  14.170
14997SOL     OW46887   6.552   7.394   1.294
14997SOL    HW146888   6.502   7.365   1.370
14997SOL    HW246889   6.530   7.487   1.286
14998SOL     OW46890   7.860   1.457   7.847
14998SOL    HW146891   7.920   1.446   7.920
14998SOL    HW246892   7.849   1.368   7.812
14999SOL     OW46893  11.651   7.105  14.051
14999SOL    HW146894  11.668   7.132  13.960
14999SOL    HW246895  11.624   7.013  14.043
15000SOL     OW46896   4.052   8.519  12.770
15000SOL    HW146897   4.139   8.489  12.747
15000SOL    HW246898   4.028   8.580  12.700
15001SOL     OW46899   0.790  14.444   3.584
15001SOL    HW146900   0.777  14.506   3.656
15001SOL    HW246901   0.795  14.499   3.506
15002SOL     OW46902   0.430  10.648  10.042
15002SOL    HW146903   0.475  10.697   9.973
15002SOL    HW246904   0.345  10.627  10.005
15003SOL     OW46905  12.695   2.315   0.111
15003SOL    HW146906  12.744   2.272   0.181
15003SOL    HW246907  12.632   2.249   0.081
15004SOL     OW46908   3.600   7.465  11.850
15004SOL    HW146909   3.521   7.469  11.904
15004SOL    HW246910   3.635   7.377  11.864
15005SOL     OW46911   0.436  11.453   3.522
15005SOL    HW146912   0.436  11.391   3.595
15005SOL    HW246913   0.363  11.425   3.467
15006SOL     OW46914   7.854   0.871  10.082
15006SOL    HW146915   7.773   0.824  10.102
15006SOL    HW246916   7.849   0.886   9.988
15007SOL     OW46917  13.766   3.842   1.820
15007SOL    HW146918  13.813   3.845   1.903
15007SOL    HW246919  13.761   3.748   1.799
15008SOL     OW46920   0.962   0.232  14.440
15008SOL    HW146921   0.941   0.166  14.374
15008SOL    HW246922   0.931   0.194  14.523
15009SOL     OW46923   0.563  11.970   5.548
15009SOL    HW146924   0.585  11.983   5.640
15009SOL    HW246925   0.489  11.909   5.549
15010SOL     OW46926   8.337   7.006   1.482
15010SOL    HW146927   8.249   7.034   1.457
15010SOL    HW246928   8.323   6.943   1.553
15011SOL     OW46929   3.584   7.661  11.161
15011SOL    HW146930   3.514   7.637  11.221
15011SOL    HW246931   3.651   7.594  11.174
15012SOL     OW46932  12.377   8.599   8.400
15012SOL    HW146933  12.460   8.596   8.353
15012SOL    HW246934  12.330   8.521   8.372
15013SOL     OW46935   8.370  14.225   9.264
15013SOL    HW146936   8.311  14.162   9.306
15013SOL    HW246937   8.384  14.292   9.331
15014SOL     OW46938   7.868   5.432  11.128
15014SOL    HW146939   7.905   5.466  11.209
15014SOL    HW246940   7.942   5.392  11.082
15015SOL     OW46941   8.152  12.893   7.945
15015SOL    HW146942   8.057  12.907   7.940
15015SOL    HW246943   8.166  12.864   8.035
15016SOL     OW46944   2.824   8.721   6.180
15016SOL    HW146945   2.869   8.785   6.126
15016SOL    HW246946   2.808   8.647   6.121
15017SOL     OW46947  14.818   1.307  10.670
15017SOL    HW146948  14.733   1.347  10.685
15017SOL    HW246949  14.852   1.290  10.758
15018SOL     OW46950  14.441   0.203   8.485
15018SOL    HW146951  14.350   0.183   8.508
15018SOL    HW246952  14.464   0.278   8.539
15019SOL     OW46953  13.490   0.257  11.659
15019SOL    HW146954  13.580   0.283  11.637
15019SOL    HW246955  13.496   0.224  11.748
15020SOL     OW46956   1.056   6.156   6.291
15020SOL    HW146957   0.991   6.112   6.345
15020SOL    HW246958   1.046   6.249   6.312
15021SOL     OW46959   2.055  10.266  11.176
15021SOL    HW146960   1.999  10.336  11.210
15021SOL    HW246961   2.040  10.192  11.236
15022SOL     OW46962  12.926   1.552   8.747
15022SOL    HW146963  13.011   1.579   8.713
15022SOL    HW246964  12.942   1.531   8.839
15023SOL     OW46965  12.862   9.576   2.301
15023SOL    HW146966  12.781   9.625   2.314
15023SOL    HW246967  12.926   9.619   2.358
15024SOL     OW46968  12.100   8.993   9.080
15024SOL    HW146969  12.100   9.080   9.042
15024SOL    HW246970  12.105   9.007   9.175
15025SOL     OW46971   2.452   9.454   9.402
15025SOL    HW146972   2.511   9.390   9.362
15025SOL    HW246973   2.396   9.482   9.330
15026SOL     OW46974   6.628   1.176  13.232
15026SOL    HW146975   6.605   1.267  13.254
15026SOL    HW246976   6.547   1.127  13.245
15027SOL     OW46977  14.210   4.125  12.082
15027SOL    HW146978  14.169   4.155  12.001
15027SOL    HW246979  14.282   4.069  12.053
15028SOL     OW46980   4.378   0.830   7.588
15028SOL    HW146981   4.455   0.878   7.619
15028SOL    HW246982   4.380   0.749   7.639
15029SOL     OW46983  11.761   6.727   5.256
15029SOL    HW146984  11.688   6.746   5.197
15029SOL    HW246985  11.721   6.709   5.340
15030SOL     OW46986  14.769  13.239   9.898
15030SOL    HW146987  14.830  13.189   9.843
15030SOL    HW246988  14.706  13.275   9.836
15031SOL     OW46989   4.484   7.854   2.137
15031SOL    HW146990   4.407   7.911   2.130
15031SOL    HW246991   4.448   7.765   2.138
15032SOL     OW46992  11.200   4.994   7.716
15032SOL    HW146993  11.267   5.022   7.653
15032SOL    HW246994  11.215   5.048   7.793
15033SOL     OW46995   8.034   0.555   2.605
15033SOL    HW146996   8.067   0.627   2.658
15033SOL    HW246997   8.040   0.479   2.663
15034SOL     OW46998  12.230   7.631  12.408
15034SOL    HW146999  12.197   7.716  12.380
15034SOL    HW247000  12.152   7.581  12.432
15035SOL     OW47001   3.031  12.004   5.493
15035SOL    HW147002   3.093  11.980   5.424
15035SOL    HW247003   3.081  12.062   5.550
15036SOL     OW47004  13.973   3.008  13.644
15036SOL    HW147005  14.040   3.076  13.639
15036SOL    HW247006  13.916   3.035  13.716
15037SOL     OW47007   4.211  13.739   6.588
15037SOL    HW147008   4.259  13.802   6.535
15037SOL    HW247009   4.186  13.787   6.666
15038SOL     OW47010   3.527   0.836   9.434
15038SOL    HW147011   3.468   0.815   9.361
15038SOL    HW247012   3.607   0.788   9.413
15039SOL     OW47013   5.346   3.750   6.244
15039SOL    HW147014   5.385   3.814   6.186
15039SOL    HW247015   5.408   3.676   6.244
15040SOL     OW47016   3.657   2.731   6.861
15040SOL    HW147017   3.584   2.684   6.902
15040SOL    HW247018   3.719   2.745   6.933
15041SOL     OW47019  11.108   2.322   1.083
15041SOL    HW147020  11.045   2.282   1.023
15041SOL    HW247021  11.063   2.323   1.168
15042SOL     OW47022   6.225   1.572   6.975
15042SOL    HW147023   6.141   1.550   7.016
15042SOL    HW247024   6.219   1.666   6.957
15043SOL     OW47025  11.439   5.006   6.316
15043SOL    HW147026  11.348   4.986   6.338
15043SOL    HW247027  11.480   4.920   6.308
15044SOL     OW47028   5.379   9.018   8.135
15044SOL    HW147029   5.367   9.040   8.228
15044SOL    HW247030   5.289   9.006   8.102
15045SOL     OW47031   9.075   5.480   0.398
15045SOL    HW147032   9.069   5.397   0.350
15045SOL    HW247033   9.001   5.478   0.458
15046SOL     OW47034   9.639   6.428   8.057
15046SOL    HW147035   9.717   6.452   8.008
15046SOL    HW247036   9.567   6.439   7.995
15047SOL     OW47037  12.306   4.408  14.726
15047SOL    HW147038  12.386   4.444  14.688
15047SOL    HW247039  12.323   4.406  14.820
15048SOL     OW47040   1.079  11.617  10.651
15048SOL    HW147041   0.988  11.604  10.680
15048SOL    HW247042   1.131  11.602  10.730
15049SOL     OW47043   7.649  14.397   9.569
15049SOL    HW147044   7.597  14.336   9.621
15049SOL    HW247045   7.599  14.409   9.489
15050SOL     OW47046   7.860   8.631   7.957
15050SOL    HW147047   7.811   8.550   7.943
15050SOL    HW247048   7.888   8.659   7.870
15051SOL     OW47049   5.872   6.660  13.534
15051SOL    HW147050   5.784   6.622  13.536
15051SOL    HW247051   5.867   6.734  13.595
15052SOL     OW47052   3.116  12.668  12.003
15052SOL    HW147053   3.053  12.739  11.997
15052SOL    HW247054   3.196  12.703  11.964
15053SOL     OW47055   5.930  11.157  14.374
15053SOL    HW147056   5.839  11.184  14.363
15053SOL    HW247057   5.926  11.077  14.426
15054SOL     OW47058   2.045   2.139  12.307
15054SOL    HW147059   2.021   2.050  12.333
15054SOL    HW247060   2.050   2.187  12.389
15055SOL     OW47061   5.316  13.420  13.760
15055SOL    HW147062   5.390  13.474  13.732
15055SOL    HW247063   5.324  13.340  13.708
15056SOL     OW47064   8.511  11.811   1.455
15056SOL    HW147065   8.520  11.746   1.386
15056SOL    HW247066   8.449  11.875   1.420
15057SOL     OW47067   8.080   8.558  11.656
15057SOL    HW147068   8.151   8.508  11.614
15057SOL    HW247069   8.026   8.588  11.584
15058SOL     OW47070   4.817   1.251   2.070
15058SOL    HW147071   4.736   1.281   2.027
15058SOL    HW247072   4.862   1.200   2.003
15059SOL     OW47073   6.368   2.664  12.075
15059SOL    HW147074   6.442   2.622  12.119
15059SOL    HW247075   6.318   2.706  12.146
15060SOL     OW47076   1.398   5.064  11.488
15060SOL    HW147077   1.321   5.093  11.539
15060SOL    HW247078   1.411   5.134  11.424
15061SOL     OW47079  13.306   1.861   5.044
15061SOL    HW147080  13.274   1.834   5.130
15061SOL    HW247081  13.399   1.878   5.056
15062SOL     OW47082   7.822   2.667  13.197
15062SOL    HW147083   7.797   2.579  13.226
15062SOL    HW247084   7.748   2.722  13.220
15063SOL     OW47085   8.375   8.986   2.161
15063SOL    HW147086   8.416   9.069   2.185
15063SOL    HW247087   8.429   8.953   2.089
15064SOL     OW47088  14.703   3.446  10.651
15064SOL    HW147089  14.692   3.476  10.561
15064SOL    HW247090  14.755   3.514  10.693
15065SOL     OW47091   8.572   1.804   6.987
15065SOL    HW147092   8.666   1.794   6.997
15065SOL    HW247093   8.547   1.738   6.922
15066SOL     OW47094   4.505   7.759   3.888
15066SOL    HW147095   4.410   7.765   3.890
15066SOL    HW247096   4.528   7.768   3.796
15067SOL     OW47097   8.746   2.728   8.761
15067SOL    HW147098   8.841   2.737   8.755
15067SOL    HW247099   8.732   2.638   8.790
15068SOL     OW47100   2.522  10.162   8.256
15068SOL    HW147101   2.577  10.161   8.334
15068SOL    HW247102   2.441  10.204   8.283
15069SOL     OW47103   6.537  11.308  11.867
15069SOL    HW147104   6.466  11.299  11.804
15069SOL    HW247105   6.541  11.402  11.885
15070SOL     OW47106  14.713  13.847  14.733
15070SOL    HW147107  14.673  13.783  14.792
15070SOL    HW247108  14.776  13.894  14.789
15071SOL     OW47109   8.199   4.627  14.788
15071SOL    HW147110   8.255   4.704  14.800
15071SOL    HW247111   8.161   4.612  14.875
15072SOL     OW47112   4.853  12.936   6.792
15072SOL    HW147113   4.889  12.931   6.703
15072SOL    HW247114   4.830  12.846   6.814
15073SOL     OW47115   1.187   0.133  13.997
15073SOL    HW147116   1.156   0.109  13.910
15073SOL    HW247117   1.271   0.088  14.006
15074SOL     OW47118  11.558   6.302  13.528
15074SOL    HW147119  11.533   6.374  13.470
15074SOL    HW247120  11.651   6.315  13.545
15075SOL     OW47121   8.130  11.085   2.309
15075SOL    HW147122   8.122  10.996   2.344
15075SOL    HW247123   8.040  11.112   2.293
15076SOL     OW47124   1.312  10.496   5.314
15076SOL    HW147125   1.307  10.531   5.403
15076SOL    HW247126   1.222  10.501   5.282
15077SOL     OW47127  12.546  11.645   3.820
15077SOL    HW147128  12.584  11.723   3.861
15077SOL    HW247129  12.485  11.681   3.755
15078SOL     OW47130  11.396  10.910   2.695
15078SOL    HW147131  11.368  10.867   2.776
15078SOL    HW247132  11.381  11.004   2.711
15079SOL     OW47133  10.799   3.081   6.497
15079SOL    HW147134  10.820   3.174   6.492
15079SOL    HW247135  10.881   3.037   6.476
15080SOL     OW47136   9.899   0.510   5.048
15080SOL    HW147137   9.807   0.532   5.037
15080SOL    HW247138   9.928   0.484   4.960
15081SOL     OW47139   9.332  12.125  10.204
15081SOL    HW147140   9.328  12.113  10.109
15081SOL    HW247141   9.243  12.106  10.234
15082SOL     OW47142   3.538   7.246   1.552
15082SOL    HW147143   3.512   7.216   1.465
15082SOL    HW247144   3.537   7.342   1.546
15083SOL     OW47145   5.688  13.900   9.101
15083SOL    HW147146   5.677  13.813   9.061
15083SOL    HW247147   5.692  13.960   9.027
15084SOL     OW47148   9.691   8.409   1.079
15084SOL    HW147149   9.701   8.317   1.053
15084SOL    HW247150   9.726   8.412   1.168
15085SOL     OW47151  10.233  13.289   3.541
15085SOL    HW147152  10.166  13.223   3.521
15085SOL    HW247153  10.188  13.350   3.600
15086SOL     OW47154   4.714   9.117   3.878
15086SOL    HW147155   4.695   9.119   3.971
15086SOL    HW247156   4.768   9.195   3.862
15087SOL     OW47157  10.837   8.518   5.682
15087SOL    HW147158  10.829   8.605   5.722
15087SOL    HW247159  10.894   8.531   5.606
15088SOL     OW47160   6.140   7.706   6.007
15088SOL    HW147161   6.134   7.744   5.919
15088SOL    HW247162   6.080   7.631   6.005
15089SOL     OW47163   6.134   6.327   9.029
15089SOL    HW147164   6.046   6.355   9.054
15089SOL    HW247165   6.137   6.234   9.051
15090SOL     OW47166   6.427  11.093  14.386
15090SOL    HW147167   6.361  11.148  14.345
15090SOL    HW247168   6.492  11.078  14.318
15091SOL     OW47169   2.909   8.780  10.397
15091SOL    HW147170   2.985   8.838  10.389
15091SOL    HW247171   2.833   8.838  10.390
15092SOL     OW47172  10.159   2.446   5.962
15092SOL    HW147173  10.127   2.519   6.015
15092SOL    HW247174  10.246   2.426   5.998
15093SOL     OW47175  10.065   0.459   3.365
15093SOL    HW147176  10.028   0.544   3.389
15093SOL    HW247177  10.089   0.468   3.273
15094SOL     OW47178   2.983  13.843  13.047
15094SOL    HW147179   3.063  13.854  13.097
15094SOL    HW247180   2.932  13.778  13.096
15095SOL     OW47181   4.348   1.974   5.590
15095SOL    HW147182   4.300   1.891   5.584
15095SOL    HW247183   4.375   1.980   5.681
15096SOL     OW47184   1.283   2.776  13.810
15096SOL    HW147185   1.307   2.745  13.722
15096SOL    HW247186   1.318   2.865  13.814
15097SOL     OW47187   3.741  10.145   8.403
15097SOL    HW147188   3.829  10.147   8.441
15097SOL    HW247189   3.749  10.084   8.329
15098SOL     OW47190   5.291  12.832   4.664
15098SOL    HW147191   5.203  12.813   4.696
15098SOL    HW247192   5.345  12.839   4.743
15099SOL     OW47193   4.849   5.686   0.208
15099SOL    HW147194   4.772   5.632   0.187
15099SOL    HW247195   4.924   5.629   0.192
15100SOL     OW47196   5.927  14.451   7.007
15100SOL    HW147197   6.005  14.433   6.954
15100SOL    HW247198   5.857  14.465   6.943
15101SOL     OW47199   6.201   7.029   3.565
15101SOL    HW147200   6.223   6.985   3.482
15101SOL    HW247201   6.275   7.088   3.580
15102SOL     OW47202   6.732   8.468   7.327
15102SOL    HW147203   6.824   8.467   7.300
15102SOL    HW247204   6.719   8.556   7.364
15103SOL     OW47205  12.699  11.947  14.733
15103SOL    HW147206  12.670  12.031  14.699
15103SOL    HW247207  12.794  11.951  14.729
15104SOL     OW47208   2.292   9.409   3.304
15104SOL    HW147209   2.348   9.477   3.343
15104SOL    HW247210   2.227   9.391   3.371
15105SOL     OW47211   2.258   5.505   1.827
15105SOL    HW147212   2.345   5.466   1.816
15105SOL    HW247213   2.273   5.579   1.887
15106SOL     OW47214  11.889   0.530  12.759
15106SOL    HW147215  11.917   0.493  12.675
15106SOL    HW247216  11.919   0.466  12.824
15107SOL     OW47217   5.922   2.520   3.817
15107SOL    HW147218   5.977   2.459   3.868
15107SOL    HW247219   5.938   2.496   3.726
15108SOL     OW47220   6.413   1.787   5.672
15108SOL    HW147221   6.494   1.798   5.721
15108SOL    HW247222   6.398   1.871   5.630
15109SOL     OW47223   8.291   5.750   5.683
15109SOL    HW147224   8.301   5.774   5.775
15109SOL    HW247225   8.268   5.658   5.684
15110SOL     OW47226   7.880   1.954   9.077
15110SOL    HW147227   7.850   2.042   9.057
15110SOL    HW247228   7.924   1.925   8.997
15111SOL     OW47229   4.544   7.954   0.582
15111SOL    HW147230   4.473   7.900   0.618
15111SOL    HW247231   4.581   7.999   0.658
15112SOL     OW47232   2.319  14.745   0.160
15112SOL    HW147233   2.226  14.723   0.152
15112SOL    HW247234   2.328  14.774   0.251
15113SOL     OW47235   7.284   6.362  13.902
15113SOL    HW147236   7.233   6.419  13.959
15113SOL    HW247237   7.351   6.419  13.864
15114SOL     OW47238   8.966   5.386   3.626
15114SOL    HW147239   8.876   5.355   3.635
15114SOL    HW247240   8.966   5.471   3.670
15115SOL     OW47241  13.086  10.849   8.134
15115SOL    HW147242  13.030  10.883   8.064
15115SOL    HW247243  13.028  10.844   8.210
15116SOL     OW47244  14.446   9.742   2.129
15116SOL    HW147245  14.502   9.815   2.100
15116SOL    HW247246  14.418   9.767   2.217
15117SOL     OW47247   2.966   2.586   8.320
15117SOL    HW147248   2.885   2.602   8.369
15117SOL    HW247249   3.035   2.593   8.386
15118SOL     OW47250   3.385  10.573   4.661
15118SOL    HW147251   3.422  10.593   4.747
15118SOL    HW247252   3.382  10.657   4.615
15119SOL     OW47253   7.158  12.475   2.077
15119SOL    HW147254   7.156  12.388   2.037
15119SOL    HW247255   7.137  12.535   2.006
15120SOL     OW47256  11.461   8.677   0.891
15120SOL    HW147257  11.469   8.635   0.977
15120SOL    HW247258  11.377   8.722   0.894
15121SOL     OW47259   8.017   1.207   2.577
15121SOL    HW147260   7.977   1.172   2.657
15121SOL    HW247261   8.103   1.164   2.573
15122SOL     OW47262  11.743   5.195  14.554
15122SOL    HW147263  11.828   5.237  14.566
15122SOL    HW247264  11.728   5.194  14.460
15123SOL     OW47265   8.225  12.057  12.397
15123SOL    HW147266   8.145  12.053  12.345
15123SOL    HW247267   8.219  12.139  12.445
15124SOL     OW47268  13.252   8.210  14.435
15124SOL    HW147269  13.302   8.146  14.485
15124SOL    HW247270  13.163   8.202  14.468
15125SOL     OW47271   5.895  12.598  10.164
15125SOL    HW147272   5.915  12.572  10.074
15125SOL    HW247273   5.812  12.554  10.184
15126SOL     OW47274   6.416  12.937   7.175
15126SOL    HW147275   6.335  12.897   7.144
15126SOL    HW247276   6.424  13.017   7.123
15127SOL     OW47277   5.116  14.803   4.520
15127SOL    HW147278   5.094  14.782   4.611
15127SOL    HW247279   5.046  14.862   4.491
15128SOL     OW47280   5.372   5.976  14.410
15128SOL    HW147281   5.318   5.946  14.337
15128SOL    HW247282   5.371   5.903  14.473
15129SOL     OW47283   0.000   7.497   7.139
15129SOL    HW147284   0.050   7.554   7.081
15129SOL    HW247285   0.046   7.501   7.223
15130SOL     OW47286  13.662   5.398   2.380
15130SOL    HW147287  13.720   5.330   2.415
15130SOL    HW247288  13.663   5.467   2.446
15131SOL     OW47289   3.337  14.205  11.579
15131SOL    HW147290   3.247  14.175  11.594
15131SOL    HW247291   3.391  14.144  11.629
15132SOL     OW47292   7.215  14.203   2.234
15132SOL    HW147293   7.144  14.238   2.180
15132SOL    HW247294   7.275  14.161   2.172
15133SOL     OW47295   7.977   8.930   6.185
15133SOL    HW147296   7.978   8.834   6.182
15133SOL    HW247297   8.068   8.955   6.201
15134SOL     OW47298  13.381   4.242   2.645
15134SOL    HW147299  13.383   4.171   2.709
15134SOL    HW247300  13.306   4.222   2.589
15135SOL     OW47301   8.976   0.577  11.220
15135SOL    HW147302   8.884   0.551  11.229
15135SOL    HW247303   9.026   0.498  11.240
15136SOL     OW47304  13.062   7.285  10.400
15136SOL    HW147305  13.011   7.251  10.474
15136SOL    HW247306  13.131   7.338  10.441
15137SOL     OW47307   5.453   3.520   4.611
15137SOL    HW147308   5.496   3.446   4.653
15137SOL    HW247309   5.405   3.482   4.538
15138SOL     OW47310  11.451   1.626   9.548
15138SOL    HW147311  11.371   1.661   9.508
15138SOL    HW247312  11.521   1.652   9.489
15139SOL     OW47313   2.222  14.437   8.746
15139SOL    HW147314   2.248  14.528   8.762
15139SOL    HW247315   2.127  14.437   8.756
15140SOL     OW47316   0.531   4.487   0.087
15140SOL    HW147317   0.532   4.545   0.011
15140SOL    HW247318   0.520   4.399   0.051
15141SOL     OW47319   9.815   3.676   9.582
15141SOL    HW147320   9.861   3.609   9.633
15141SOL    HW247321   9.734   3.692   9.630
15142SOL     OW47322  10.871  12.021  10.889
15142SOL    HW147323  10.895  12.113  10.878
15142SOL    HW247324  10.851  12.012  10.982
15143SOL     OW47325   5.191   3.900   2.114
15143SOL    HW147326   5.141   3.931   2.189
15143SOL    HW247327   5.124   3.875   2.050
15144SOL     OW47328   2.206   1.036   4.059
15144SOL    HW147329   2.180   0.992   4.140
15144SOL    HW247330   2.172   0.981   3.989
15145SOL     OW47331   6.026  13.342   6.388
15145SOL    HW147332   5.935  13.314   6.377
15145SOL    HW247333   6.070  13.311   6.308
15146SOL     OW47334   6.120   3.116   5.190
15146SOL    HW147335   6.105   3.079   5.277
15146SOL    HW247336   6.154   3.204   5.206
15147SOL     OW47337   0.445   4.291   5.941
15147SOL    HW147338   0.457   4.301   5.847
15147SOL    HW247339   0.518   4.339   5.980
15148SOL     OW47340   0.442   2.418   8.324
15148SOL    HW147341   0.440   2.489   8.260
15148SOL    HW247342   0.355   2.377   8.317
15149SOL     OW47343   1.789   1.657  10.141
15149SOL    HW147344   1.771   1.615  10.225
15149SOL    HW247345   1.869   1.614  10.110
15150SOL     OW47346  12.174   8.125   7.340
15150SOL    HW147347  12.128   8.123   7.424
15150SOL    HW247348  12.119   8.180   7.284
15151SOL     OW47349   0.210   8.505   6.684
15151SOL    HW147350   0.272   8.435   6.701
15151SOL    HW247351   0.144   8.465   6.627
15152SOL     OW47352  14.492   9.814   7.322
15152SOL    HW147353  14.479   9.822   7.416
15152SOL    HW247354  14.436   9.742   7.295
15153SOL     OW47355   7.590   1.905  14.357
15153SOL    HW147356   7.588   1.810  14.348
15153SOL    HW247357   7.508   1.927  14.401
15154SOL     OW47358  12.047  14.026   2.966
15154SOL    HW147359  12.122  14.034   2.907
15154SOL    HW247360  12.027  14.115   2.992
15155SOL     OW47361   7.963   6.918   9.315
15155SOL    HW147362   7.896   6.974   9.356
15155SOL    HW247363   8.032   6.911   9.381
15156SOL     OW47364   2.063   5.764   7.753
15156SOL    HW147365   2.131   5.739   7.816
15156SOL    HW247366   1.983   5.766   7.805
15157SOL     OW47367  14.369   6.562   0.884
15157SOL    HW147368  14.380   6.572   0.789
15157SOL    HW247369  14.441   6.503   0.910
15158SOL     OW47370   0.590   5.902   2.929
15158SOL    HW147371   0.498   5.910   2.956
15158SOL    HW247372   0.586   5.891   2.834
15159SOL     OW47373   4.695  13.763  12.794
15159SOL    HW147374   4.726  13.699  12.730
15159SOL    HW247375   4.705  13.719  12.879
15160SOL     OW47376  13.593   5.766   5.145
15160SOL    HW147377  13.619   5.677   5.168
15160SOL    HW247378  13.511   5.755   5.095
15161SOL     OW47379   8.489  12.348   5.604
15161SOL    HW147380   8.449  12.287   5.666
15161SOL    HW247381   8.415  12.388   5.558
15162SOL     OW47382   2.476   4.496   1.190
15162SOL    HW147383   2.418   4.532   1.122
15162SOL    HW247384   2.467   4.556   1.263
15163SOL     OW47385  13.964  11.724   7.248
15163SOL    HW147386  14.008  11.640   7.235
15163SOL    HW247387  14.007  11.762   7.324
15164SOL     OW47388   8.144   1.760   2.705
15164SOL    HW147389   8.212   1.768   2.771
15164SOL    HW247390   8.113   1.850   2.693
15165SOL     OW47391  13.185   7.998   1.640
15165SOL    HW147392  13.108   8.046   1.609
15165SOL    HW247393  13.153   7.947   1.714
15166SOL     OW47394  11.031  10.042   6.752
15166SOL    HW147395  10.981  10.020   6.830
15166SOL    HW247396  11.123  10.028   6.777
15167SOL     OW47397  13.894   6.612   1.952
15167SOL    HW147398  13.959   6.625   2.021
15167SOL    HW247399  13.938   6.637   1.871
15168SOL     OW47400  11.462  12.302  14.714
15168SOL    HW147401  11.479  12.238  14.644
15168SOL    HW247402  11.542  12.301  14.767
15169SOL     OW47403   8.680  13.329   5.159
15169SOL    HW147404   8.715  13.374   5.236
15169SOL    HW247405   8.630  13.256   5.195
15170SOL     OW47406   9.342  11.768   7.739
15170SOL    HW147407   9.346  11.793   7.647
15170SOL    HW247408   9.365  11.675   7.740
15171SOL     OW47409   2.921  13.666   7.861
15171SOL    HW147410   2.934  13.740   7.920
15171SOL    HW247411   3.001  13.614   7.870
15172SOL     OW47412   5.327   5.811   0.189
15172SOL    HW147413   5.240   5.845   0.211
15172SOL    HW247414   5.328   5.722   0.224
15173SOL     OW47415   6.233  12.301  10.956
15173SOL    HW147416   6.237  12.208  10.980
15173SOL    HW247417   6.230  12.347  11.039
15174SOL     OW47418   8.361  13.289   0.055
15174SOL    HW147419   8.344  13.216  14.871
15174SOL    HW247420   8.434  13.259   0.109
15175SOL     OW47421   9.849   5.320  12.837
15175SOL    HW147422   9.916   5.322  12.769
15175SOL    HW247423   9.770   5.289  12.792
15176SOL     OW47424  12.575   0.123   9.442
15176SOL    HW147425  12.541   0.035   9.434
15176SOL    HW247426  12.646   0.116   9.506
15177SOL     OW47427   9.198  13.137   7.520
15177SOL    HW147428   9.176  13.148   7.613
15177SOL    HW247429   9.213  13.227   7.489
15178SOL     OW47430   5.965   1.442  11.502
15178SOL    HW147431   5.888   1.436  11.446
15178SOL    HW247432   5.964   1.532  11.535
15179SOL     OW47433   2.784   4.862   3.366
15179SOL    HW147434   2.720   4.927   3.396
15179SOL    HW247435   2.826   4.832   3.447
15180SOL     OW47436   5.389  11.976   3.130
15180SOL    HW147437   5.465  11.971   3.071
15180SOL    HW247438   5.401  12.059   3.177
15181SOL     OW47439   1.030   3.557   7.883
15181SOL    HW147440   1.123   3.543   7.867
15181SOL    HW247441   0.986   3.500   7.820
15182SOL     OW47442  12.758   7.244   6.197
15182SOL    HW147443  12.741   7.255   6.291
15182SOL    HW247444  12.752   7.333   6.161
15183SOL     OW47445   3.621   2.005   4.502
15183SOL    HW147446   3.715   1.988   4.498
15183SOL    HW247447   3.586   1.970   4.420
15184SOL     OW47448   5.071  10.424  12.648
15184SOL    HW147449   5.048  10.473  12.727
15184SOL    HW247450   5.167  10.423  12.647
15185SOL     OW47451   7.139   5.134   5.337
15185SOL    HW147452   7.123   5.128   5.243
15185SOL    HW247453   7.229   5.165   5.345
15186SOL     OW47454  10.173  13.135   2.665
15186SOL    HW147455  10.090  13.167   2.630
15186SOL    HW247456  10.210  13.210   2.711
15187SOL     OW47457   0.654   2.561  14.264
15187SOL    HW147458   0.599   2.521  14.197
15187SOL    HW247459   0.744   2.545  14.234
15188SOL     OW47460   9.487   0.917   1.815
15188SOL    HW147461   9.542   0.993   1.798
15188SOL    HW247462   9.406   0.935   1.767
15189SOL     OW47463   8.655   8.154   7.343
15189SOL    HW147464   8.689   8.244   7.336
15189SOL    HW247465   8.605   8.141   7.263
15190SOL     OW47466   5.454  12.989   3.983
15190SOL    HW147467   5.500  13.051   4.040
15190SOL    HW247468   5.410  13.044   3.918
15191SOL     OW47469  14.386   2.883  14.499
15191SOL    HW147470  14.316   2.821  14.480
15191SOL    HW247471  14.461   2.851  14.449
15192SOL     OW47472   5.253  13.811   8.321
15192SOL    HW147473   5.227  13.896   8.284
15192SOL    HW247474   5.326  13.832   8.380
15193SOL     OW47475  11.616  10.517   8.301
15193SOL    HW147476  11.651  10.436   8.338
15193SOL    HW247477  11.614  10.578   8.375
15194SOL     OW47478  12.908   8.974   2.694
15194SOL    HW147479  12.983   8.996   2.639
15194SOL    HW247480  12.839   9.035   2.665
15195SOL     OW47481  12.448  11.223   1.317
15195SOL    HW147482  12.454  11.246   1.225
15195SOL    HW247483  12.355  11.209   1.333
15196SOL     OW47484  11.544   3.564   5.411
15196SOL    HW147485  11.616   3.561   5.474
15196SOL    HW247486  11.465   3.558   5.464
15197SOL     OW47487   5.935   9.495   7.746
15197SOL    HW147488   5.985   9.516   7.825
15197SOL    HW247489   5.983   9.538   7.676
15198SOL     OW47490  13.773   0.201  10.393
15198SOL    HW147491  13.768   0.250  10.474
15198SOL    HW247492  13.708   0.131  10.403
15199SOL     OW47493   5.264   1.975   8.179
15199SOL    HW147494   5.337   2.031   8.206
15199SOL    HW247495   5.227   1.943   8.261
15200SOL     OW47496   1.179   4.615   9.943
15200SOL    HW147497   1.119   4.646  10.010
15200SOL    HW247498   1.264   4.650   9.969
15201SOL     OW47499   4.906   2.756   0.568
15201SOL    HW147500   4.819   2.786   0.542
15201SOL    HW247501   4.907   2.766   0.663
15202SOL     OW47502  13.929   6.145   0.760
15202SOL    HW147503  13.869   6.208   0.800
15202SOL    HW247504  14.009   6.195   0.744
15203SOL     OW47505   0.842   3.326   8.912
15203SOL    HW147506   0.911   3.355   8.853
15203SOL    HW247507   0.876   3.246   8.952
15204SOL     OW47508   6.615   9.796   1.667
15204SOL    HW147509   6.588   9.862   1.732
15204SOL    HW247510   6.541   9.791   1.606
15205SOL     OW47511   5.579   6.850  10.448
15205SOL    HW147512   5.574   6.946  10.446
15205SOL    HW247513   5.491   6.821  10.425
15206SOL     OW47514  10.401   6.079  14.096
15206SOL    HW147515  10.345   6.091  14.019
15206SOL    HW247516  10.343   6.091  14.171
15207SOL     OW47517  12.526   3.383  13.816
15207SOL    HW147518  12.587   3.356  13.884
15207SOL    HW247519  12.473   3.304  13.799
15208SOL     OW47520   3.830   0.283   3.332
15208SOL    HW147521   3.837   0.239   3.417
15208SOL    HW247522   3.738   0.307   3.325
15209SOL     OW47523   0.010   5.129  13.764
15209SOL    HW147524  14.790   5.134  13.769
15209SOL    HW247525   0.039   5.219  13.752
15210SOL     OW47526  14.157   9.958   6.316
15210SOL    HW147527  14.116  10.008   6.246
15210SOL    HW247528  14.223   9.904   6.273
15211SOL     OW47529   6.658   6.182   7.831
15211SOL    HW147530   6.680   6.106   7.884
15211SOL    HW247531   6.732   6.192   7.771
15212SOL     OW47532   5.905  11.523  10.814
15212SOL    HW147533   5.824  11.530  10.763
15212SOL    HW247534   5.899  11.594  10.878
15213SOL     OW47535   5.072   7.082  11.172
15213SOL    HW147536   5.014   7.144  11.128
15213SOL    HW247537   5.030   6.997  11.162
15214SOL     OW47538  13.008   5.433   8.518
15214SOL    HW147539  12.938   5.405   8.577
15214SOL    HW247540  13.039   5.516   8.554
15215SOL     OW47541   1.653   7.930  13.906
15215SOL    HW147542   1.602   7.868  13.959
15215SOL    HW247543   1.739   7.889  13.898
15216SOL     OW47544  13.176  11.799  13.074
15216SOL    HW147545  13.231  11.734  13.029
15216SOL    HW247546  13.134  11.750  13.145
15217SOL     OW47547  13.985  11.335   2.441
15217SOL    HW147548  13.929  11.377   2.506
15217SOL    HW247549  14.049  11.286   2.491
15218SOL     OW47550   1.045   2.769  10.055
15218SOL    HW147551   0.991   2.708  10.005
15218SOL    HW247552   1.100   2.713  10.111
15219SOL     OW47553   5.730  10.215   2.939
15219SOL    HW147554   5.736  10.155   3.014
15219SOL    HW247555   5.642  10.203   2.905
15220SOL     OW47556   0.437   0.050   8.532
15220SOL    HW147557   0.390  14.861   8.479
15220SOL    HW247558   0.529   0.026   8.524
15221SOL     OW47559  11.221  11.391   7.277
15221SOL    HW147560  11.315  11.406   7.291
15221SOL    HW247561  11.202  11.312   7.327
15222SOL     OW47562   4.879   6.874   3.390
15222SOL    HW147563   4.967   6.850   3.417
15222SOL    HW247564   4.892   6.932   3.315
15223SOL     OW47565  12.613   1.860  10.052
15223SOL    HW147566  12.531   1.811  10.055
15223SOL    HW247567  12.677   1.797  10.017
15224SOL     OW47568   3.056   7.361   7.974
15224SOL    HW147569   2.979   7.408   7.943
15224SOL    HW247570   3.078   7.403   8.057
15225SOL     OW47571  13.546   4.569  13.024
15225SOL    HW147572  13.512   4.480  13.024
15225SOL    HW247573  13.504   4.610  13.100
15226SOL     OW47574   0.564   1.318  12.337
15226SOL    HW147575   0.563   1.412  12.319
15226SOL    HW247576   0.530   1.278  12.257
15227SOL     OW47577   8.411   9.229   2.813
15227SOL    HW147578   8.436   9.193   2.728
15227SOL    HW247579   8.483   9.207   2.871
15228SOL     OW47580   0.806   4.500   7.122
15228SOL    HW147581   0.790   4.432   7.057
15228SOL    HW247582   0.901   4.502   7.132
15229SOL     OW47583  12.597  12.358   2.814
15229SOL    HW147584  12.649  12.289   2.856
15229SOL    HW247585  12.577  12.419   2.885
15230SOL     OW47586   2.910   4.764   7.285
15230SOL    HW147587   2.992   4.793   7.326
15230SOL    HW247588   2.842   4.815   7.328
15231SOL     OW47589  11.530   8.017   3.917
15231SOL    HW147590  11.490   7.940   3.958
15231SOL    HW247591  11.554   7.988   3.829
15232SOL     OW47592   2.959   1.769  12.646
15232SOL    HW147593   3.054   1.766  12.636
15232SOL    HW247594   2.929   1.826  12.576
15233SOL     OW47595   1.715   9.988   3.402
15233SOL    HW147596   1.637  10.034   3.371
15233SOL    HW247597   1.700   9.896   3.379
15234SOL     OW47598   4.577   5.799  11.353
15234SOL    HW147599   4.577   5.781  11.447
15234SOL    HW247600   4.664   5.774  11.323
15235SOL     OW47601  10.212   1.751   9.279
15235SOL    HW147602  10.182   1.807   9.208
15235SOL    HW247603  10.137   1.745   9.338
15236SOL     OW47604   5.405   3.537  12.163
15236SOL    HW147605   5.323   3.569  12.126
15236SOL    HW247606   5.386   3.527  12.257
15237SOL     OW47607  13.491   4.083   1.439
15237SOL    HW147608  13.463   4.103   1.529
15237SOL    HW247609  13.575   4.126   1.430
15238SOL     OW47610  14.027   6.802   2.697
15238SOL    HW147611  14.118   6.814   2.726
15238SOL    HW247612  13.990   6.741   2.760
15239SOL     OW47613   2.664   8.007  11.549
15239SOL    HW147614   2.602   8.010  11.476
15239SOL    HW247615   2.750   8.013  11.507
15240SOL     OW47616  10.560   0.034  13.531
15240SOL    HW147617  10.479   0.054  13.484
15240SOL    HW247618  10.620   0.104  13.506
15241SOL     OW47619   8.894   0.795   2.818
15241SOL    HW147620   8.904   0.767   2.909
15241SOL    HW247621   8.983   0.813   2.789
15242SOL     OW47622  11.746   0.901   2.272
15242SOL    HW147623  11.687   0.893   2.347
15242SOL    HW247624  11.832   0.919   2.310
15243SOL     OW47625   3.675   8.578   7.673
15243SOL    HW147626   3.747   8.517   7.690
15243SOL    HW247627   3.713   8.665   7.686
15244SOL     OW47628   1.096  13.940  11.801
15244SOL    HW147629   1.160  13.999  11.841
15244SOL    HW247630   1.054  13.993  11.734
15245SOL     OW47631   5.673   7.323   3.734
15245SOL    HW147632   5.588   7.279   3.738
15245SOL    HW247633   5.663   7.387   3.663
15246SOL     OW47634  13.534  14.186   4.896
15246SOL    HW147635  13.561  14.172   4.987
15246SOL    HW247636  13.598  14.248   4.861
15247SOL     OW47637   7.475   9.278   0.556
15247SOL    HW147638   7.489   9.372   0.568
15247SOL    HW247639   7.384   9.264   0.580
15248SOL     OW47640  11.614  13.662   9.477
15248SOL    HW147641  11.629  13.596   9.409
15248SOL    HW247642  11.524  13.648   9.505
15249SOL     OW47643  10.593   7.205  12.552
15249SOL    HW147644  10.601   7.263  12.476
15249SOL    HW247645  10.564   7.122  12.515
15250SOL     OW47646   6.994  10.045   2.180
15250SOL    HW147647   7.045  10.029   2.100
15250SOL    HW247648   6.930  10.111   2.154
15251SOL     OW47649   1.523  14.525   3.295
15251SOL    HW147650   1.600  14.541   3.350
15251SOL    HW247651   1.556  14.528   3.206
15252SOL     OW47652   6.713  13.904  14.079
15252SOL    HW147653   6.698  13.933  13.989
15252SOL    HW247654   6.664  13.966  14.132
15253SOL     OW47655  14.861   1.033  12.624
15253SOL    HW147656  14.795   0.986  12.675
15253SOL    HW247657   0.069   1.003  12.661
15254SOL     OW47658  13.262   5.469   0.110
15254SOL    HW147659  13.229   5.505   0.193
15254SOL    HW247660  13.288   5.546   0.060
15255SOL     OW47661   2.415  10.098   8.961
15255SOL    HW147662   2.352  10.095   9.033
15255SOL    HW247663   2.435  10.191   8.951
15256SOL     OW47664   0.123   1.999   3.062
15256SOL    HW147665   0.075   1.971   3.140
15256SOL    HW247666   0.074   2.075   3.030
15257SOL     OW47667  12.105   8.809   6.779
15257SOL    HW147668  12.045   8.769   6.843
15257SOL    HW247669  12.058   8.803   6.696
15258SOL     OW47670  10.262   4.467   4.049
15258SOL    HW147671  10.254   4.372   4.050
15258SOL    HW247672  10.238   4.493   3.960
15259SOL     OW47673   0.721   2.952   2.784
15259SOL    HW147674   0.644   3.006   2.804
15259SOL    HW247675   0.684   2.866   2.762
15260SOL     OW47676   8.235   3.528  12.434
15260SOL    HW147677   8.198   3.561  12.352
15260SOL    HW247678   8.309   3.586  12.452
15261SOL     OW47679   5.425   0.883   5.362
15261SOL    HW147680   5.388   0.957   5.314
15261SOL    HW247681   5.504   0.859   5.313
15262SOL     OW47682   6.574  10.786   8.206
15262SOL    HW147683   6.538  10.698   8.194
15262SOL    HW247684   6.648  10.790   8.146
15263SOL     OW47685  12.893   8.812   3.332
15263SOL    HW147686  12.838   8.891   3.321
15263SOL    HW247687  12.946   8.830   3.410
15264SOL     OW47688   6.067  13.595   7.536
15264SOL    HW147689   5.972  13.582   7.533
15264SOL    HW247690   6.091  13.573   7.626
15265SOL     OW47691  11.517  12.409   9.992
15265SOL    HW147692  11.510  12.478  10.059
15265SOL    HW247693  11.567  12.339  10.035
15266SOL     OW47694   3.054   8.010   9.844
15266SOL    HW147695   3.074   8.102   9.860
15266SOL    HW247696   3.020   7.979   9.928
15267SOL     OW47697  12.981   0.645   1.734
15267SOL    HW147698  12.969   0.579   1.665
15267SOL    HW247699  12.892   0.664   1.765
15268SOL     OW47700   5.487   9.856   1.321
15268SOL    HW147701   5.427   9.885   1.390
15268SOL    HW247702   5.431   9.841   1.246
15269SOL     OW47703   0.424   9.036  11.647
15269SOL    HW147704   0.409   9.013  11.555
15269SOL    HW247705   0.352   8.994  11.694
15270SOL     OW47706   3.184   1.724   9.620
15270SOL    HW147707   3.089   1.731   9.628
15270SOL    HW247708   3.198   1.667   9.545
15271SOL     OW47709   6.140   2.928   6.420
15271SOL    HW147710   6.229   2.916   6.387
15271SOL    HW247711   6.092   2.969   6.348
15272SOL     OW47712   7.172  13.896   8.174
15272SOL    HW147713   7.208  13.982   8.153
15272SOL    HW247714   7.077  13.910   8.179
15273SOL     OW47715   8.587   4.240   0.727
15273SOL    HW147716   8.563   4.224   0.635
15273SOL    HW247717   8.632   4.160   0.754
15274SOL     OW47718  11.232   1.813   2.639
15274SOL    HW147719  11.310   1.758   2.635
15274SOL    HW247720  11.265   1.901   2.653
15275SOL     OW47721   8.833  12.200   5.730
15275SOL    HW147722   8.797  12.227   5.814
15275SOL    HW247723   8.757  12.194   5.672
15276SOL     OW47724   4.148  13.226  11.202
15276SOL    HW147725   4.061  13.247  11.237
15276SOL    HW247726   4.131  13.162  11.133
15277SOL     OW47727   5.905  14.234   2.082
15277SOL    HW147728   5.829  14.267   2.129
15277SOL    HW247729   5.947  14.313   2.047
15278SOL     OW47730   6.985  11.606   9.283
15278SOL    HW147731   6.963  11.580   9.194
15278SOL    HW247732   7.018  11.695   9.275
15279SOL     OW47733   6.252   5.045   5.077
15279SOL    HW147734   6.229   5.091   4.996
15279SOL    HW247735   6.226   4.954   5.061
15280SOL     OW47736  14.216   9.868   5.440
15280SOL    HW147737  14.174   9.783   5.450
15280SOL    HW247738  14.145   9.928   5.416
15281SOL     OW47739  13.747   0.588  11.858
15281SOL    HW147740  13.759   0.494  11.843
15281SOL    HW247741  13.822   0.629  11.815
15282SOL     OW47742   2.447   4.951   9.147
15282SOL    HW147743   2.365   4.935   9.101
15282SOL    HW247744   2.506   4.883   9.116
15283SOL     OW47745   3.262   3.839   2.469
15283SOL    HW147746   3.244   3.903   2.400
15283SOL    HW247747   3.306   3.767   2.425
15284SOL     OW47748   9.672  13.475   8.990
15284SOL    HW147749   9.627  13.523   8.921
15284SOL    HW247750   9.687  13.540   9.059
15285SOL     OW47751   3.943   1.867  14.271
15285SOL    HW147752   3.973   1.913  14.193
15285SOL    HW247753   3.847   1.874  14.268
15286SOL     OW47754   9.125   8.300   4.334
15286SOL    HW147755   9.064   8.241   4.377
15286SOL    HW247756   9.162   8.248   4.262
15287SOL     OW47757   4.534  10.040   0.636
15287SOL    HW147758   4.495  10.098   0.702
15287SOL    HW247759   4.606   9.997   0.683
15288SOL     OW47760   6.219   7.563   6.772
15288SOL    HW147761   6.307   7.560   6.735
15288SOL    HW247762   6.185   7.474   6.761
15289SOL     OW47763  11.339   7.492   9.478
15289SOL    HW147764  11.384   7.490   9.394
15289SOL    HW247765  11.252   7.456   9.460
15290SOL     OW47766   5.716   9.623   7.997
15290SOL    HW147767   5.624   9.647   7.989
15290SOL    HW247768   5.714   9.528   8.013
15291SOL     OW47769   9.290  14.798  12.741
15291SOL    HW147770   9.378  14.821  12.770
15291SOL    HW247771   9.232  14.839  12.805
15292SOL     OW47772  13.452  14.085  14.702
15292SOL    HW147773  13.369  14.133  14.697
15292SOL    HW247774  13.427  13.993  14.699
15293SOL     OW47775   1.063  13.463   6.308
15293SOL    HW147776   1.050  13.491   6.217
15293SOL    HW247777   1.066  13.368   6.304
15294SOL     OW47778   1.334  13.321  14.212
15294SOL    HW147779   1.391  13.286  14.282
15294SOL    HW247780   1.317  13.411  14.238
15295SOL     OW47781   1.614   5.259  13.818
15295SOL    HW147782   1.613   5.287  13.727
15295SOL    HW247783   1.699   5.288  13.851
15296SOL     OW47784   9.396   9.995   8.466
15296SOL    HW147785   9.434   9.965   8.548
15296SOL    HW247786   9.455  10.063   8.435
15297SOL     OW47787   3.277  12.558   6.728
15297SOL    HW147788   3.320  12.638   6.697
15297SOL    HW247789   3.343  12.490   6.716
15298SOL     OW47790   1.062   1.476   4.024
15298SOL    HW147791   0.969   1.492   4.039
15298SOL    HW247792   1.094   1.442   4.108
15299SOL     OW47793  11.192   5.014   8.748
15299SOL    HW147794  11.205   5.101   8.710
15299SOL    HW247795  11.208   4.954   8.675
15300SOL     OW47796  13.989  13.286   8.457
15300SOL    HW147797  14.017  13.257   8.370
15300SOL    HW247798  14.065  13.332   8.492
15301SOL     OW47799  14.750   5.867   4.544
15301SOL    HW147800  14.817   5.811   4.584
15301SOL    HW247801  14.742   5.941   4.604
15302SOL     OW47802   2.527  12.361   0.194
15302SOL    HW147803   2.503  12.375   0.285
15302SOL    HW247804   2.444  12.365   0.146
15303SOL     OW47805   6.875  12.490   0.731
15303SOL    HW147806   6.874  12.515   0.639
15303SOL    HW247807   6.803  12.539   0.770
15304SOL     OW47808  13.105   0.159  11.569
15304SOL    HW147809  13.055   0.222  11.517
15304SOL    HW247810  13.058   0.155  11.653
15305SOL     OW47811  12.836  11.058   9.493
15305SOL    HW147812  12.920  11.077   9.535
15305SOL    HW247813  12.772  11.099   9.551
15306SOL     OW47814   1.670  10.525   1.310
15306SOL    HW147815   1.660  10.556   1.220
15306SOL    HW247816   1.650  10.432   1.306
15307SOL     OW47817   8.660  12.266   4.713
15307SOL    HW147818   8.632  12.175   4.712
15307SOL    HW247819   8.629  12.302   4.630
15308SOL     OW47820   6.913   7.113   0.812
15308SOL    HW147821   6.981   7.065   0.858
15308SOL    HW247822   6.883   7.053   0.743
15309SOL     OW47823   9.994  12.541   7.635
15309SOL    HW147824   9.917  12.597   7.645
15309SOL    HW247825   9.963  12.466   7.583
15310SOL     OW47826   6.952  12.406   0.118
15310SOL    HW147827   6.985  12.320   0.094
15310SOL    HW247828   6.980  12.463   0.046
15311SOL     OW47829  11.968   2.128   2.542
15311SOL    HW147830  11.943   2.099   2.630
15311SOL    HW247831  12.019   2.056   2.507
15312SOL     OW47832   4.893   7.209   8.438
15312SOL    HW147833   4.950   7.266   8.491
15312SOL    HW247834   4.842   7.159   8.502
15313SOL     OW47835   7.440   9.261   6.360
15313SOL    HW147836   7.457   9.203   6.286
15313SOL    HW247837   7.507   9.237   6.425
15314SOL     OW47838   4.462   5.655  10.097
15314SOL    HW147839   4.497   5.742  10.115
15314SOL    HW247840   4.537   5.605  10.066
15315SOL     OW47841   3.285   6.136   9.059
15315SOL    HW147842   3.215   6.094   9.009
15315SOL    HW247843   3.309   6.213   9.007
15316SOL     OW47844  14.069   3.571   2.959
15316SOL    HW147845  14.029   3.491   2.994
15316SOL    HW247846  14.076   3.554   2.865
15317SOL     OW47847   3.260   9.237   5.292
15317SOL    HW147848   3.175   9.225   5.250
15317SOL    HW247849   3.304   9.303   5.238
15318SOL     OW47850   9.969  12.717   4.691
15318SOL    HW147851  10.002  12.748   4.775
15318SOL    HW247852   9.960  12.622   4.702
15319SOL     OW47853   1.775  14.758   0.586
15319SOL    HW147854   1.852  14.772   0.642
15319SOL    HW247855   1.810  14.765   0.497
15320SOL     OW47856   8.529   6.253  13.743
15320SOL    HW147857   8.600   6.316  13.732
15320SOL    HW247858   8.508   6.225  13.654
15321SOL     OW47859  14.773  12.161  11.343
15321SOL    HW147860  14.702  12.135  11.401
15321SOL    HW247861  14.731  12.178  11.259
15322SOL     OW47862   6.849  10.208   0.648
15322SOL    HW147863   6.855  10.297   0.615
15322SOL    HW247864   6.805  10.217   0.733
15323SOL     OW47865  14.132   3.704   5.694
15323SOL    HW147866  14.049   3.718   5.740
15323SOL    HW247867  14.105   3.686   5.603
15324SOL     OW47868   7.750   7.595   5.642
15324SOL    HW147869   7.670   7.636   5.674
15324SOL    HW247870   7.784   7.655   5.575
15325SOL     OW47871  10.329   5.798  14.384
15325SOL    HW147872  10.381   5.720  14.367
15325SOL    HW247873  10.393   5.866  14.406
15326SOL     OW47874   8.397   3.913   0.671
15326SOL    HW147875   8.460   3.880   0.735
15326SOL    HW247876   8.312   3.904   0.714
15327SOL     OW47877   1.684   3.137  10.467
15327SOL    HW147878   1.611   3.193  10.493
15327SOL    HW247879   1.759   3.195  10.462
15328SOL     OW47880   6.579  10.530  11.978
15328SOL    HW147881   6.573  10.553  12.071
15328SOL    HW247882   6.598  10.436  11.978
15329SOL     OW47883   7.793   3.367   7.730
15329SOL    HW147884   7.779   3.454   7.767
15329SOL    HW247885   7.807   3.382   7.637
15330SOL     OW47886   8.839   6.465  13.060
15330SOL    HW147887   8.902   6.528  13.095
15330SOL    HW247888   8.758   6.515  13.053
15331SOL     OW47889   1.579   6.340   0.871
15331SOL    HW147890   1.486   6.339   0.894
15331SOL    HW247891   1.603   6.433   0.874
15332SOL     OW47892  10.426   2.276  11.511
15332SOL    HW147893  10.421   2.181  11.498
15332SOL    HW247894  10.379   2.312  11.436
15333SOL     OW47895  11.727  13.850   4.327
15333SOL    HW147896  11.702  13.819   4.414
15333SOL    HW247897  11.760  13.772   4.282
15334SOL     OW47898   3.414  13.724   4.627
15334SOL    HW147899   3.427  13.664   4.554
15334SOL    HW247900   3.494  13.718   4.678
15335SOL     OW47901  12.885   1.906   9.676
15335SOL    HW147902  12.974   1.937   9.694
15335SOL    HW247903  12.828   1.977   9.707
15336SOL     OW47904   6.312   7.797  12.169
15336SOL    HW147905   6.242   7.857  12.196
15336SOL    HW247906   6.291   7.776  12.078
15337SOL     OW47907   5.128  14.167   5.416
15337SOL    HW147908   5.221  14.144   5.412
15337SOL    HW247909   5.089  14.124   5.340
15338SOL     OW47910   2.117   1.809  13.969
15338SOL    HW147911   2.098   1.750  14.042
15338SOL    HW247912   2.180   1.761  13.915
15339SOL     OW47913   7.620   8.871   2.749
15339SOL    HW147914   7.660   8.785   2.741
15339SOL    HW247915   7.538   8.864   2.700
15340SOL     OW47916   7.861  13.099  10.520
15340SOL    HW147917   7.900  13.120  10.605
15340SOL    HW247918   7.908  13.022  10.490
15341SOL     OW47919  10.620   3.647  13.263
15341SOL    HW147920  10.640   3.737  13.290
15341SOL    HW247921  10.537   3.627  13.305
15342SOL     OW47922   0.682  11.263   4.921
15342SOL    HW147923   0.649  11.205   4.852
15342SOL    HW247924   0.774  11.276   4.900
15343SOL     OW47925  11.457  13.700  11.888
15343SOL    HW147926  11.441  13.771  11.825
15343SOL    HW247927  11.385  13.707  11.951
15344SOL     OW47928   9.945   9.371   1.540
15344SOL    HW147929   9.859   9.340   1.569
15344SOL    HW247930   9.986   9.294   1.500
15345SOL     OW47931   6.699   8.006   5.375
15345SOL    HW147932   6.743   8.091   5.369
15345SOL    HW247933   6.672   8.000   5.467
15346SOL     OW47934   1.736  13.555  10.604
15346SOL    HW147935   1.804  13.591  10.546
15346SOL    HW247936   1.781  13.487  10.653
15347SOL     OW47937   1.119   8.269  13.781
15347SOL    HW147938   1.056   8.200  13.804
15347SOL    HW247939   1.133   8.317  13.862
15348SOL     OW47940   5.336  13.199   6.319
15348SOL    HW147941   5.244  13.193   6.294
15348SOL    HW247942   5.347  13.131   6.386
15349SOL     OW47943   1.874  12.355   8.188
15349SOL    HW147944   1.959  12.310   8.184
15349SOL    HW247945   1.844  12.341   8.278
15350SOL     OW47946   6.600   1.690   8.052
15350SOL    HW147947   6.639   1.720   7.970
15350SOL    HW247948   6.658   1.724   8.120
15351SOL     OW47949   3.061   5.050  14.752
15351SOL    HW147950   3.141   5.033  14.702
15351SOL    HW247951   3.092   5.072  14.840
15352SOL     OW47952  14.388   2.081  14.337
15352SOL    HW147953  14.426   2.061  14.252
15352SOL    HW247954  14.462   2.110  14.390
15353SOL     OW47955   7.912  10.919  10.036
15353SOL    HW147956   7.960  10.960   9.964
15353SOL    HW247957   7.916  10.825  10.018
15354SOL     OW47958   8.929   1.668  10.251
15354SOL    HW147959   8.960   1.626  10.331
15354SOL    HW247960   8.964   1.757  10.254
15355SOL     OW47961  11.031  14.298   8.735
15355SOL    HW147962  10.940  14.278   8.715
15355SOL    HW247963  11.064  14.220   8.779
15356SOL     OW47964   3.734   6.133   2.742
15356SOL    HW147965   3.747   6.072   2.815
15356SOL    HW247966   3.795   6.205   2.759
15357SOL     OW47967   0.420   2.964   1.789
15357SOL    HW147968   0.401   2.872   1.810
15357SOL    HW247969   0.351   2.989   1.728
15358SOL     OW47970   1.768  10.816  11.236
15358SOL    HW147971   1.808  10.864  11.164
15358SOL    HW247972   1.758  10.881  11.305
15359SOL     OW47973  11.545   1.206   8.744
15359SOL    HW147974  11.482   1.184   8.812
15359SOL    HW247975  11.529   1.298   8.725
15360SOL     OW47976   1.664  12.282   4.524
15360SOL    HW147977   1.700  12.311   4.441
15360SOL    HW247978   1.614  12.357   4.556
15361SOL     OW47979   5.431   0.773  14.289
15361SOL    HW147980   5.471   0.772  14.202
15361SOL    HW247981   5.489   0.828  14.342
15362SOL     OW47982  10.408   7.707   3.184
15362SOL    HW147983  10.441   7.743   3.102
15362SOL    HW247984  10.385   7.616   3.164
15363SOL     OW47985  14.696   3.722  14.168
15363SOL    HW147986  14.641   3.713  14.246
15363SOL    HW247987  14.763   3.785  14.192
15364SOL     OW47988   9.368  10.657   1.066
15364SOL    HW147989   9.322  10.737   1.040
15364SOL    HW247990   9.428  10.640   0.993
15365SOL     OW47991   7.259   2.202  11.393
15365SOL    HW147992   7.343   2.224  11.354
15365SOL    HW247993   7.281   2.155  11.473
15366SOL     OW47994   0.101  10.300   7.063
15366SOL    HW147995   0.073  10.213   7.093
15366SOL    HW247996   0.111  10.351   7.143
15367SOL     OW47997   3.057  13.805  14.499
15367SOL    HW147998   3.145  13.768  14.509
15367SOL    HW247999   3.058  13.846  14.413
15368SOL     OW48000   1.464  12.395   8.273
15368SOL    HW148001   1.541  12.444   8.244
15368SOL    HW248002   1.442  12.434   8.358
15369SOL     OW48003  12.210   6.898   5.940
15369SOL    HW148004  12.156   6.968   5.977
15369SOL    HW248005  12.298   6.935   5.937
15370SOL     OW48006  11.628  14.154  10.667
15370SOL    HW148007  11.570  14.091  10.623
15370SOL    HW248008  11.649  14.219  10.600
15371SOL     OW48009   3.160   4.667  12.119
15371SOL    HW148010   3.159   4.718  12.201
15371SOL    HW248011   3.163   4.576  12.148
15372SOL     OW48012   0.379   7.958   1.354
15372SOL    HW148013   0.362   7.886   1.414
15372SOL    HW248014   0.463   7.937   1.314
15373SOL     OW48015   5.517   5.879   0.681
15373SOL    HW148016   5.462   5.804   0.659
15373SOL    HW248017   5.512   5.936   0.604
15374SOL     OW48018   4.999   8.232   3.984
15374SOL    HW148019   5.040   8.257   4.066
15374SOL    HW248020   4.996   8.136   3.987
15375SOL     OW48021  13.154   7.100   1.172
15375SOL    HW148022  13.164   7.168   1.239
15375SOL    HW248023  13.118   7.025   1.219
15376SOL     OW48024   8.199  11.545   3.348
15376SOL    HW148025   8.131  11.605   3.317
15376SOL    HW248026   8.152  11.480   3.401
15377SOL     OW48027  12.427   2.066  11.661
15377SOL    HW148028  12.504   2.056  11.717
15377SOL    HW248029  12.453   2.130  11.595
15378SOL     OW48030   9.233   3.716  10.866
15378SOL    HW148031   9.327   3.704  10.849
15378SOL    HW248032   9.225   3.807  10.893
15379SOL     OW48033   4.179   3.054   4.650
15379SOL    HW148034   4.150   3.095   4.568
15379SOL    HW248035   4.260   3.100   4.672
15380SOL     OW48036   6.336  12.811   8.074
15380SOL    HW148037   6.246  12.807   8.108
15380SOL    HW248038   6.377  12.731   8.107
15381SOL     OW48039  14.308   0.583  11.229
15381SOL    HW148040  14.362   0.525  11.284
15381SOL    HW248041  14.363   0.600  11.153
15382SOL     OW48042   1.342   2.908  14.694
15382SOL    HW148043   1.391   2.980  14.733
15382SOL    HW248044   1.404   2.864  14.637
15383SOL     OW48045  12.301   4.602  14.100
15383SOL    HW148046  12.315   4.555  14.018
15383SOL    HW248047  12.208   4.627  14.098
15384SOL     OW48048   7.353   1.984   8.494
15384SOL    HW148049   7.328   2.008   8.583
15384SOL    HW248050   7.423   1.919   8.505
15385SOL     OW48051  12.012  12.726   8.792
15385SOL    HW148052  12.087  12.667   8.803
15385SOL    HW248053  11.991  12.721   8.699
15386SOL     OW48054   0.524   2.566   5.751
15386SOL    HW148055   0.570   2.482   5.755
15386SOL    HW248056   0.470   2.560   5.672
15387SOL     OW48057   2.446  13.110   2.211
15387SOL    HW148058   2.483  13.030   2.174
15387SOL    HW248059   2.358  13.114   2.174
15388SOL     OW48060  12.367  11.556   6.369
15388SOL    HW148061  12.442  11.510   6.405
15388SOL    HW248062  12.301  11.552   6.438
15389SOL     OW48063   9.787   3.320  13.490
15389SOL    HW148064   9.805   3.411  13.511
15389SOL    HW248065   9.725   3.323  13.417
15390SOL     OW48066   7.499   9.640   0.280
15390SOL    HW148067   7.404   9.640   0.264
15390SOL    HW248068   7.512   9.705   0.349
15391SOL     OW48069   9.722   9.898  14.399
15391SOL    HW148070   9.757   9.985  14.418
15391SOL    HW248071   9.648   9.887  14.459
15392SOL     OW48072   8.712   3.149   2.799
15392SOL    HW148073   8.717   3.203   2.720
15392SOL    HW248074   8.620   3.152   2.824
15393SOL     OW48075  12.846   0.303   4.834
15393SOL    HW148076  12.813   0.324   4.747
15393SOL    HW248077  12.800   0.223   4.859
15394SOL     OW48078   1.405   8.158   4.123
15394SOL    HW148079   1.388   8.127   4.212
15394SOL    HW248080   1.391   8.253   4.128
15395SOL     OW48081  14.811   0.949   9.761
15395SOL    HW148082  14.873   0.917   9.695
15395SOL    HW248083  14.838   1.039   9.779
15396SOL     OW48084   8.301   1.457   9.999
15396SOL    HW148085   8.343   1.410  10.071
15396SOL    HW248086   8.262   1.389   9.944
15397SOL     OW48087  10.436   1.138   5.218
15397SOL    HW148088  10.410   1.161   5.307
15397SOL    HW248089  10.475   1.051   5.226
15398SOL     OW48090   5.934   4.856  10.828
15398SOL    HW148091   5.861   4.801  10.856
15398SOL    HW248092   5.898   4.944  10.822
15399SOL     OW48093  13.523  11.461  13.500
15399SOL    HW148094  13.449  11.412  13.536
15399SOL    HW248095  13.520  11.545  13.546
15400SOL     OW48096   2.701   8.081   6.960
15400SOL    HW148097   2.643   8.032   6.901
15400SOL    HW248098   2.778   8.025   6.969
15401SOL     OW48099   2.480  14.557   9.898
15401SOL    HW148100   2.571  14.539   9.921
15401SOL    HW248101   2.474  14.653   9.894
15402SOL     OW48102   9.266  11.942   1.355
15402SOL    HW148103   9.259  11.866   1.413
15402SOL    HW248104   9.298  11.906   1.273
15403SOL     OW48105   0.074   2.365   9.974
15403SOL    HW148106   0.001   2.368   9.911
15403SOL    HW248107   0.141   2.421   9.935
15404SOL     OW48108  13.029   7.610   2.507
15404SOL    HW148109  13.067   7.689   2.468
15404SOL    HW248110  12.962   7.582   2.443
15405SOL     OW48111  12.654   7.824  10.633
15405SOL    HW148112  12.666   7.743  10.682
15405SOL    HW248113  12.573   7.861  10.667
15406SOL     OW48114   0.312  13.438  12.253
15406SOL    HW148115   0.347  13.352  12.231
15406SOL    HW248116   0.262  13.464  12.176
15407SOL     OW48117   9.403   5.076   4.392
15407SOL    HW148118   9.495   5.056   4.374
15407SOL    HW248119   9.379   5.017   4.463
15408SOL     OW48120   8.833  14.725   8.554
15408SOL    HW148121   8.742  14.702   8.572
15408SOL    HW248122   8.848  14.805   8.604
15409SOL     OW48123   6.466   4.725   5.327
15409SOL    HW148124   6.550   4.679   5.326
15409SOL    HW248125   6.479   4.800   5.270
15410SOL     OW48126   4.631   5.509   4.749
15410SOL    HW148127   4.548   5.472   4.721
15410SOL    HW248128   4.610   5.558   4.829
15411SOL     OW48129  10.985   0.795   4.097
15411SOL    HW148130  11.075   0.827   4.102
15411SOL    HW248131  10.964   0.766   4.186
15412SOL     OW48132  12.729   2.940   9.949
15412SOL    HW148133  12.767   2.960   9.863
15412SOL    HW248134  12.643   2.903   9.929
15413SOL     OW48135   7.116  10.881   1.090
15413SOL    HW148136   7.145  10.952   1.146
15413SOL    HW248137   7.043  10.919   1.040
15414SOL     OW48138   3.563   6.274   3.173
15414SOL    HW148139   3.608   6.243   3.094
15414SOL    HW248140   3.587   6.211   3.241
15415SOL     OW48141   5.436   5.476   2.942
15415SOL    HW148142   5.439   5.383   2.964
15415SOL    HW248143   5.372   5.513   3.002
15416SOL     OW48144   3.012   1.485   9.814
15416SOL    HW148145   2.965   1.557   9.771
15416SOL    HW248146   2.972   1.480   9.901
15417SOL     OW48147  12.310  14.203   9.889
15417SOL    HW148148  12.368  14.183   9.815
15417SOL    HW248149  12.225  14.167   9.863
15418SOL     OW48150   9.925   5.289   6.792
15418SOL    HW148151   9.859   5.250   6.850
15418SOL    HW248152   9.935   5.225   6.721
15419SOL     OW48153   2.126   5.068   3.027
15419SOL    HW148154   2.089   5.152   3.000
15419SOL    HW248155   2.054   5.006   3.019
15420SOL     OW48156   1.376   4.831   2.735
15420SOL    HW148157   1.337   4.779   2.665
15420SOL    HW248158   1.463   4.854   2.703
15421SOL     OW48159   8.553  14.572   6.896
15421SOL    HW148160   8.504  14.525   6.964
15421SOL    HW248161   8.519  14.662   6.900
15422SOL     OW48162   7.583   6.539  10.896
15422SOL    HW148163   7.559   6.592  10.820
15422SOL    HW248164   7.677   6.554  10.907
15423SOL     OW48165   4.049  13.628  13.716
15423SOL    HW148166   4.135  13.587  13.721
15423SOL    HW248167   4.068  13.720  13.699
15424SOL     OW48168   3.946  13.396  12.902
15424SOL    HW148169   4.024  13.373  12.851
15424SOL    HW248170   3.947  13.492  12.906
15425SOL     OW48171  11.869   4.884   4.026
15425SOL    HW148172  11.964   4.881   4.038
15425SOL    HW248173  11.837   4.940   4.096
15426SOL     OW48174   9.484   3.579  11.740
15426SOL    HW148175   9.482   3.628  11.822
15426SOL    HW248176   9.452   3.492  11.764
15427SOL     OW48177   7.223   8.859   4.463
15427SOL    HW148178   7.171   8.927   4.506
15427SOL    HW248179   7.313   8.881   4.485
15428SOL     OW48180  10.178   6.775   4.350
15428SOL    HW148181  10.267   6.777   4.315
15428SOL    HW248182  10.127   6.827   4.289
15429SOL     OW48183  11.088   6.986   1.343
15429SOL    HW148184  11.171   6.965   1.300
15429SOL    HW248185  11.113   7.035   1.422
15430SOL     OW48186   2.538   7.491   8.877
15430SOL    HW148187   2.627   7.526   8.871
15430SOL    HW248188   2.497   7.517   8.794
15431SOL     OW48189  14.436   6.334   5.482
15431SOL    HW148190  14.361   6.279   5.505
15431SOL    HW248191  14.431   6.409   5.541
15432SOL     OW48192   2.420   7.592  11.942
15432SOL    HW148193   2.347   7.610  11.882
15432SOL    HW248194   2.439   7.499  11.929
15433SOL     OW48195   9.646  10.135   9.175
15433SOL    HW148196   9.639  10.043   9.197
15433SOL    HW248197   9.683  10.136   9.086
15434SOL     OW48198   5.723   5.444   0.801
15434SOL    HW148199   5.638   5.416   0.837
15434SOL    HW248200   5.742   5.380   0.733
15435SOL     OW48201  12.382   0.344   8.194
15435SOL    HW148202  12.356   0.310   8.280
15435SOL    HW248203  12.389   0.438   8.206
15436SOL     OW48204  13.645   2.203  14.186
15436SOL    HW148205  13.693   2.144  14.127
15436SOL    HW248206  13.574   2.238  14.132
15437SOL     OW48207  13.326   8.462   3.040
15437SOL    HW148208  13.232   8.476   3.033
15437SOL    HW248209  13.362   8.549   3.058
15438SOL     OW48210   9.928   0.188   5.096
15438SOL    HW148211   9.994   0.253   5.073
15438SOL    HW248212   9.898   0.154   5.011
15439SOL     OW48213  14.216   0.142  11.543
15439SOL    HW148214  14.231   0.236  11.532
15439SOL    HW248215  14.122   0.134  11.560
15440SOL     OW48216  11.139   7.997  13.603
15440SOL    HW148217  11.135   8.090  13.578
15440SOL    HW248218  11.132   7.950  13.520
15441SOL     OW48219   8.999  13.667   4.049
15441SOL    HW148220   9.027  13.576   4.059
15441SOL    HW248221   9.036  13.711   4.125
15442SOL     OW48222   0.571  10.680  14.873
15442SOL    HW148223   0.564  10.773  14.852
15442SOL    HW248224   0.501  10.638  14.824
15443SOL     OW48225   4.571  14.404  11.769
15443SOL    HW148226   4.559  14.438  11.858
15443SOL    HW248227   4.484  14.370  11.745
15444SOL     OW48228  14.705  12.422  11.549
15444SOL    HW148229  14.736  12.359  11.614
15444SOL    HW248230  14.784  12.467  11.520
15445SOL     OW48231   2.127   3.793   3.667
15445SOL    HW148232   2.176   3.805   3.585
15445SOL    HW248233   2.105   3.700   3.669
15446SOL     OW48234   8.455  14.356   8.083
15446SOL    HW148235   8.379  14.414   8.087
15446SOL    HW248236   8.518  14.402   8.027
15447SOL     OW48237   7.017   9.484  11.027
15447SOL    HW148238   6.972   9.426  11.087
15447SOL    HW248239   7.098   9.507  11.072
15448SOL     OW48240  11.566   2.683   6.691
15448SOL    HW148241  11.510   2.731   6.752
15448SOL    HW248242  11.511   2.671   6.614
15449SOL     OW48243  11.671   7.128   4.666
15449SOL    HW148244  11.660   7.211   4.712
15449SOL    HW248245  11.660   7.151   4.573
15450SOL     OW48246  10.618   7.052   0.734
15450SOL    HW148247  10.704   7.020   0.710
15450SOL    HW248248  10.557   7.004   0.678
15451SOL     OW48249  14.077  13.257   3.014
15451SOL    HW148250  14.117  13.170   3.010
15451SOL    HW248251  14.148  13.314   3.045
15452SOL     OW48252   8.354  10.645  11.526
15452SOL    HW148253   8.336  10.652  11.620
15452SOL    HW248254   8.446  10.668  11.518
15453SOL     OW48255  14.413  14.255  12.780
15453SOL    HW148256  14.415  14.324  12.846
15453SOL    HW248257  14.339  14.200  12.805
15454SOL     OW48258   5.207  11.356   4.912
15454SOL    HW148259   5.301  11.342   4.909
15454SOL    HW248260   5.182  11.329   5.001
15455SOL     OW48261  14.140  11.718  12.631
15455SOL    HW148262  14.154  11.712  12.726
15455SOL    HW248263  14.090  11.640  12.609
15456SOL     OW48264   8.172   8.409   9.358
15456SOL    HW148265   8.238   8.360   9.309
15456SOL    HW248266   8.165   8.363   9.441
15457SOL     OW48267  13.378   1.359  12.079
15457SOL    HW148268  13.461   1.384  12.120
15457SOL    HW248269  13.320   1.338  12.153
15458SOL     OW48270  12.828  10.167   8.128
15458SOL    HW148271  12.805  10.234   8.193
15458SOL    HW248272  12.746  10.124   8.107
15459SOL     OW48273  12.593  14.730   3.312
15459SOL    HW148274  12.648  14.748   3.236
15459SOL    HW248275  12.653  14.733   3.387
15460SOL     OW48276   7.528  10.340   1.583
15460SOL    HW148277   7.448  10.299   1.549
15460SOL    HW248278   7.544  10.295   1.666
15461SOL     OW48279   4.542  14.638  11.260
15461SOL    HW148280   4.513  14.728  11.277
15461SOL    HW248281   4.619  14.626  11.315
15462SOL     OW48282   2.894   8.583  11.414
15462SOL    HW148283   2.899   8.494  11.380
15462SOL    HW248284   2.818   8.621  11.370
15463SOL     OW48285   0.211   8.094  10.623
15463SOL    HW148286   0.221   8.049  10.539
15463SOL    HW248287   0.126   8.138  10.617
15464SOL     OW48288  13.441   1.660  10.940
15464SOL    HW148289  13.479   1.734  10.894
15464SOL    HW248290  13.460   1.676  11.032
15465SOL     OW48291  10.625  12.134  10.348
15465SOL    HW148292  10.675  12.208  10.315
15465SOL    HW248293  10.637  12.137  10.443
15466SOL     OW48294   3.415  13.073  14.713
15466SOL    HW148295   3.375  12.987  14.701
15466SOL    HW248296   3.347  13.125  14.757
15467SOL     OW48297   0.199   7.603   1.919
15467SOL    HW148298   0.266   7.624   1.984
15467SOL    HW248299   0.225   7.517   1.884
15468SOL     OW48300   1.925   7.538   2.020
15468SOL    HW148301   1.946   7.505   2.108
15468SOL    HW248302   1.993   7.500   1.964
15469SOL     OW48303  12.178   9.519   4.206
15469SOL    HW148304  12.208   9.434   4.238
15469SOL    HW248305  12.223   9.582   4.262
15470SOL     OW48306   1.091   9.659  10.209
15470SOL    HW148307   0.999   9.650  10.184
15470SOL    HW248308   1.140   9.620  10.136
15471SOL     OW48309   3.317   6.812   6.136
15471SOL    HW148310   3.256   6.843   6.069
15471SOL    HW248311   3.314   6.878   6.205
15472SOL     OW48312   5.398  13.533   3.279
15472SOL    HW148313   5.317  13.485   3.298
15472SOL    HW248314   5.368  13.614   3.237
15473SOL     OW48315   5.777   0.871   0.930
15473SOL    HW148316   5.770   0.942   0.866
15473SOL    HW248317   5.794   0.793   0.877
15474SOL     OW48318   6.439   9.608   3.283
15474SOL    HW148319   6.411   9.680   3.339
15474SOL    HW248320   6.494   9.553   3.339
15475SOL     OW48321   4.034  12.233   0.036
15475SOL    HW148322   3.997  12.144   0.030
15475SOL    HW248323   3.990  12.282  14.842
15476SOL     OW48324  12.297   8.138   4.208
15476SOL    HW148325  12.243   8.186   4.270
15476SOL    HW248326  12.387   8.160   4.231
15477SOL     OW48327  14.575   7.924  10.721
15477SOL    HW148328  14.590   7.863  10.793
15477SOL    HW248329  14.504   7.980  10.752
15478SOL     OW48330   9.650  14.780  14.224
15478SOL    HW148331   9.585  14.764  14.293
15478SOL    HW248332   9.730  14.738  14.256
15479SOL     OW48333   5.592   7.297  10.185
15479SOL    HW148334   5.682   7.294  10.218
15479SOL    HW248335   5.537   7.299  10.263
15480SOL     OW48336   8.364  13.430  14.685
15480SOL    HW148337   8.452  13.412  14.652
15480SOL    HW248338   8.356  13.376  14.764
15481SOL     OW48339   9.034  13.935   1.332
15481SOL    HW148340   9.067  13.854   1.294
15481SOL    HW248341   8.949  13.948   1.292
15482SOL     OW48342   0.237   0.278   0.591
15482SOL    HW148343   0.280   0.354   0.630
15482SOL    HW248344   0.283   0.203   0.628
15483SOL     OW48345   3.582   3.650   6.869
15483SOL    HW148346   3.664   3.654   6.820
15483SOL    HW248347   3.514   3.638   6.802
15484SOL     OW48348   5.103   4.818   9.279
15484SOL    HW148349   5.143   4.905   9.272
15484SOL    HW248350   5.161   4.760   9.230
15485SOL     OW48351   0.194   9.086   1.219
15485SOL    HW148352   0.272   9.050   1.262
15485SOL    HW248353   0.120   9.040   1.259
15486SOL     OW48354  14.162   0.967   4.762
15486SOL    HW148355  14.121   1.042   4.719
15486SOL    HW248356  14.242   1.002   4.800
15487SOL     OW48357   1.684  14.615  14.775
15487SOL    HW148358   1.662  14.608  14.868
15487SOL    HW248359   1.712  14.705  14.764
15488SOL     OW48360  12.361   6.810   5.428
15488SOL    HW148361  12.299   6.831   5.498
15488SOL    HW248362  12.406   6.731   5.459
15489SOL     OW48363  14.804   7.727   1.169
15489SOL    HW148364  14.795   7.729   1.074
15489SOL    HW248365   0.016   7.692   1.185
15490SOL     OW48366   0.577   0.155   7.224
15490SOL    HW148367   0.624   0.072   7.218
15490SOL    HW248368   0.565   0.169   7.317
15491SOL     OW48369   3.894   2.997  13.365
15491SOL    HW148370   3.824   3.059  13.344
15491SOL    HW248371   3.933   2.976  13.280
15492SOL     OW48372  14.155   4.796   7.270
15492SOL    HW148373  14.138   4.819   7.178
15492SOL    HW248374  14.070   4.806   7.312
15493SOL     OW48375  11.179  11.970   5.424
15493SOL    HW148376  11.237  11.964   5.499
15493SOL    HW248377  11.091  11.964   5.461
15494SOL     OW48378   2.151   0.490   2.693
15494SOL    HW148379   2.074   0.450   2.653
15494SOL    HW248380   2.172   0.565   2.637
15495SOL     OW48381  11.248   3.792  14.561
15495SOL    HW148382  11.163   3.808  14.602
15495SOL    HW248383  11.239   3.705  14.521
15496SOL     OW48384  10.192   8.125   6.018
15496SOL    HW148385  10.135   8.050   6.000
15496SOL    HW248386  10.146   8.174   6.086
15497SOL     OW48387   6.689  14.677  11.611
15497SOL    HW148388   6.660  14.627  11.535
15497SOL    HW248389   6.762  14.626  11.647
15498SOL     OW48390  12.028   3.504   4.536
15498SOL    HW148391  12.013   3.486   4.443
15498SOL    HW248392  11.950   3.470   4.579
15499SOL     OW48393   3.357  11.410  13.816
15499SOL    HW148394   3.372  11.353  13.892
15499SOL    HW248395   3.296  11.360  13.761
15500SOL     OW48396  12.787  11.061   7.253
15500SOL    HW148397  12.747  11.134   7.300
15500SOL    HW248398  12.867  11.042   7.302
15501SOL     OW48399   0.064   8.678  14.178
15501SOL    HW148400  14.863   8.733  14.160
15501SOL    HW248401   0.026   8.594  14.205
15502SOL     OW48402   7.493  14.071  12.821
15502SOL    HW148403   7.468  14.090  12.731
15502SOL    HW248404   7.423  14.112  12.874
15503SOL     OW48405  11.968   6.404   0.307
15503SOL    HW148406  11.986   6.313   0.332
15503SOL    HW248407  11.890   6.427   0.357
15504SOL     OW48408  13.697   4.076   9.004
15504SOL    HW148409  13.649   4.142   9.054
15504SOL    HW248410  13.778   4.121   8.979
15505SOL     OW48411   2.659  14.186   1.141
15505SOL    HW148412   2.667  14.214   1.232
15505SOL    HW248413   2.571  14.149   1.135
15506SOL     OW48414   3.595   2.804   1.123
15506SOL    HW148415   3.649   2.841   1.054
15506SOL    HW248416   3.513   2.780   1.079
15507SOL     OW48417  12.976   8.360   8.221
15507SOL    HW148418  12.968   8.454   8.236
15507SOL    HW248419  12.966   8.321   8.307
15508SOL     OW48420   5.778  11.756   9.669
15508SOL    HW148421   5.774  11.732   9.762
15508SOL    HW248422   5.872  11.765   9.651
15509SOL     OW48423   7.155   4.106  12.740
15509SOL    HW148424   7.169   4.052  12.663
15509SOL    HW248425   7.243   4.115  12.779
15510SOL     OW48426   3.329   1.777   0.911
15510SOL    HW148427   3.293   1.732   0.834
15510SOL    HW248428   3.383   1.847   0.875
15511SOL     OW48429   2.974  11.482  14.641
15511SOL    HW148430   3.036  11.541  14.597
15511SOL    HW248431   2.889  11.522  14.626
15512SOL     OW48432   9.364   4.432   1.270
15512SOL    HW148433   9.427   4.360   1.272
15512SOL    HW248434   9.306   4.411   1.197
15513SOL     OW48435   8.691   8.255   6.614
15513SOL    HW148436   8.735   8.329   6.656
15513SOL    HW248437   8.602   8.257   6.649
15514SOL     OW48438  14.869   7.685   2.869
15514SOL    HW148439  14.842   7.678   2.961
15514SOL    HW248440   0.035   7.771   2.863
15515SOL     OW48441   8.088   3.112  10.402
15515SOL    HW148442   8.053   3.146  10.484
15515SOL    HW248443   8.041   3.030  10.388
15516SOL     OW48444  12.874   1.487   7.317
15516SOL    HW148445  12.807   1.518   7.257
15516SOL    HW248446  12.895   1.398   7.288
15517SOL     OW48447   2.693  11.209  13.145
15517SOL    HW148448   2.730  11.147  13.083
15517SOL    HW248449   2.687  11.160  13.227
15518SOL     OW48450   8.088   6.861   6.576
15518SOL    HW148451   8.004   6.815   6.575
15518SOL    HW248452   8.151   6.796   6.607
15519SOL     OW48453   4.197   5.884   2.297
15519SOL    HW148454   4.211   5.866   2.390
15519SOL    HW248455   4.176   5.799   2.259
15520SOL     OW48456   9.422  12.811   8.403
15520SOL    HW148457   9.346  12.761   8.374
15520SOL    HW248458   9.425  12.798   8.498
15521SOL     OW48459   7.719   1.994   0.546
15521SOL    HW148460   7.665   2.064   0.582
15521SOL    HW248461   7.703   1.920   0.604
15522SOL     OW48462  14.525   1.775  10.007
15522SOL    HW148463  14.512   1.752  10.099
15522SOL    HW248464  14.472   1.854   9.995
15523SOL     OW48465   2.774   5.495   5.769
15523SOL    HW148466   2.799   5.484   5.861
15523SOL    HW248467   2.680   5.508   5.771
15524SOL     OW48468  13.648   8.948  14.191
15524SOL    HW148469  13.705   8.917  14.261
15524SOL    HW248470  13.604   9.025  14.228
15525SOL     OW48471   2.473  10.365   9.818
15525SOL    HW148472   2.472  10.270   9.831
15525SOL    HW248473   2.453  10.401   9.904
15526SOL     OW48474   0.302   1.595   3.609
15526SOL    HW148475   0.351   1.517   3.636
15526SOL    HW248476   0.368   1.654   3.574
15527SOL     OW48477  11.849   0.651  13.004
15527SOL    HW148478  11.848   0.565  13.046
15527SOL    HW248479  11.864   0.632  12.912
15528SOL     OW48480   0.044  14.247   0.872
15528SOL    HW148481  14.860  14.200   0.930
15528SOL    HW248482  14.861  14.293   0.811
15529SOL     OW48483   6.591  11.042   0.686
15529SOL    HW148484   6.529  11.075   0.621
15529SOL    HW248485   6.545  11.049   0.769
15530SOL     OW48486   8.451   7.497   2.116
15530SOL    HW148487   8.357   7.514   2.121
15530SOL    HW248488   8.478   7.482   2.206
15531SOL     OW48489   9.715   8.614  13.407
15531SOL    HW148490   9.797   8.616  13.360
15531SOL    HW248491   9.673   8.533  13.378
15532SOL     OW48492   7.648  14.328  11.451
15532SOL    HW148493   7.612  14.329  11.362
15532SOL    HW248494   7.742  14.345  11.439
15533SOL     OW48495  14.198  12.926   5.475
15533SOL    HW148496  14.170  13.017   5.465
15533SOL    HW248497  14.143  12.891   5.545
15534SOL     OW48498   0.270   8.175   0.611
15534SOL    HW148499   0.220   8.187   0.691
15534SOL    HW248500   0.206   8.145   0.547
15535SOL     OW48501   5.768  12.386   2.699
15535SOL    HW148502   5.835  12.321   2.678
15535SOL    HW248503   5.784  12.407   2.791
15536SOL     OW48504  10.004   5.068  14.802
15536SOL    HW148505  10.094   5.089  14.829
15536SOL    HW248506   9.964   5.153  14.784
15537SOL     OW48507   6.112  10.710  13.259
15537SOL    HW148508   6.032  10.681  13.215
15537SOL    HW248509   6.164  10.749  13.189
15538SOL     OW48510   3.280   0.065   9.532
15538SOL    HW148511   3.276   0.152   9.571
15538SOL    HW248512   3.246   0.078   9.443
15539SOL     OW48513   1.910  11.840   4.862
15539SOL    HW148514   1.889  11.779   4.932
15539SOL    HW248515   1.830  11.843   4.808
15540SOL     OW48516  12.068   2.482   2.699
15540SOL    HW148517  12.110   2.549   2.753
15540SOL    HW248518  12.141   2.435   2.658
15541SOL     OW48519   6.129   8.971  14.438
15541SOL    HW148520   6.105   8.882  14.411
15541SOL    HW248521   6.156   9.015  14.358
15542SOL     OW48522  10.388  14.577   2.245
15542SOL    HW148523  10.340  14.634   2.185
15542SOL    HW248524  10.319  14.531   2.294
15543SOL     OW48525   1.253  11.946   9.110
15543SOL    HW148526   1.238  12.040   9.101
15543SOL    HW248527   1.347  11.935   9.098
15544SOL     OW48528  11.990  10.331   3.442
15544SOL    HW148529  11.916  10.389   3.430
15544SOL    HW248530  11.977  10.260   3.379
15545SOL     OW48531   4.251   2.597   2.728
15545SOL    HW148532   4.345   2.583   2.717
15545SOL    HW248533   4.239   2.605   2.823
15546SOL     OW48534   6.741  10.182   6.636
15546SOL    HW148535   6.677  10.161   6.569
15546SOL    HW248536   6.825  10.153   6.599
15547SOL     OW48537   6.205   5.977   7.395
15547SOL    HW148538   6.129   5.923   7.418
15547SOL    HW248539   6.238   6.009   7.479
15548SOL     OW48540   7.000   7.182  12.785
15548SOL    HW148541   6.953   7.251  12.738
15548SOL    HW248542   6.947   7.103  12.771
15549SOL     OW48543  14.272  14.762   9.286
15549SOL    HW148544  14.329  14.776   9.362
15549SOL    HW248545  14.322  14.706   9.228
15550SOL     OW48546   7.771   3.637   3.532
15550SOL    HW148547   7.785   3.676   3.619
15550SOL    HW248548   7.799   3.704   3.470
15551SOL     OW48549   6.958   8.184  12.914
15551SOL    HW148550   7.001   8.153  12.834
15551SOL    HW248551   6.866   8.160  12.903
15552SOL     OW48552   8.331  10.650   2.944
15552SOL    HW148553   8.372  10.672   3.028
15552SOL    HW248554   8.343  10.727   2.890
15553SOL     OW48555  12.984  14.682   5.329
15553SOL    HW148556  12.926  14.640   5.265
15553SOL    HW248557  13.059  14.711   5.278
15554SOL     OW48558  10.376   8.309   0.336
15554SOL    HW148559  10.415   8.357   0.263
15554SOL    HW248560  10.299   8.362   0.361
15555SOL     OW48561   3.384   3.581   9.782
15555SOL    HW148562   3.352   3.540   9.701
15555SOL    HW248563   3.325   3.655   9.795
15556SOL     OW48564   8.349   4.212   9.639
15556SOL    HW148565   8.365   4.250   9.552
15556SOL    HW248566   8.258   4.185   9.637
15557SOL     OW48567  14.399  13.976   7.737
15557SOL    HW148568  14.478  13.951   7.784
15557SOL    HW248569  14.410  13.939   7.649
15558SOL     OW48570   3.630  10.315   5.312
15558SOL    HW148571   3.670  10.271   5.236
15558SOL    HW248572   3.552  10.358   5.277
15559SOL     OW48573   6.807   1.057  11.420
15559SOL    HW148574   6.857   0.976  11.407
15559SOL    HW248575   6.775   1.050  11.510
15560SOL     OW48576   8.822  14.540  13.008
15560SOL    HW148577   8.764  14.466  12.991
15560SOL    HW248578   8.909  14.501  13.016
15561SOL     OW48579   4.821  13.131   0.799
15561SOL    HW148580   4.841  13.164   0.711
15561SOL    HW248581   4.885  13.061   0.813
15562SOL     OW48582  13.610   1.493  12.144
15562SOL    HW148583  13.642   1.570  12.096
15562SOL    HW248584  13.578   1.528  12.227
15563SOL     OW48585   1.380   4.969  10.183
15563SOL    HW148586   1.293   4.993  10.216
15563SOL    HW248587   1.424   5.053  10.168
15564SOL     OW48588   2.396  11.627   8.327
15564SOL    HW148589   2.482  11.634   8.368
15564SOL    HW248590   2.350  11.560   8.378
15565SOL     OW48591   0.715   6.302   3.106
15565SOL    HW148592   0.793   6.296   3.160
15565SOL    HW248593   0.645   6.266   3.160
15566SOL     OW48594  11.959  14.466   0.627
15566SOL    HW148595  11.980  14.384   0.583
15566SOL    HW248596  11.878  14.496   0.586
15567SOL     OW48597  14.019  14.516   9.634
15567SOL    HW148598  14.058  14.544   9.717
15567SOL    HW248599  14.091  14.517   9.572
15568SOL     OW48600   6.962  12.814   6.889
15568SOL    HW148601   6.922  12.733   6.858
15568SOL    HW248602   7.040  12.825   6.833
15569SOL     OW48603   1.216   2.657   8.096
15569SOL    HW148604   1.180   2.716   8.162
15569SOL    HW248605   1.185   2.693   8.013
15570SOL     OW48606  13.087  10.688   6.879
15570SOL    HW148607  13.061  10.778   6.900
15570SOL    HW248608  13.010  10.650   6.837
15571SOL     OW48609  14.874   4.969  13.195
15571SOL    HW148610  14.868   4.971  13.290
15571SOL    HW248611  14.841   5.055  13.167
15572SOL     OW48612   5.706  12.009   2.725
15572SOL    HW148613   5.780  12.069   2.719
15572SOL    HW248614   5.688  12.001   2.818
15573SOL     OW48615   4.342  14.837  13.870
15573SOL    HW148616   4.282  14.825  13.797
15573SOL    HW248617   4.418  14.785  13.847
15574SOL     OW48618   3.577  14.293   1.552
15574SOL    HW148619   3.565  14.387   1.568
15574SOL    HW248620   3.670  14.283   1.533
15575SOL     OW48621   4.692   2.452  13.990
15575SOL    HW148622   4.629   2.474  13.921
15575SOL    HW248623   4.706   2.534  14.037
15576SOL     OW48624  11.615  14.393   4.201
15576SOL    HW148625  11.591  14.317   4.255
15576SOL    HW248626  11.673  14.445   4.257
15577SOL     OW48627   3.950   0.373   2.413
15577SOL    HW148628   3.988   0.352   2.499
15577SOL    HW248629   3.862   0.404   2.432
15578SOL     OW48630   0.505  10.686   3.926
15578SOL    HW148631   0.462  10.743   3.862
15578SOL    HW248632   0.433  10.640   3.970
15579SOL     OW48633   2.926   0.539  12.766
15579SOL    HW148634   2.852   0.507  12.818
15579SOL    HW248635   2.927   0.484  12.688
15580SOL     OW48636  13.454   1.493   3.716
15580SOL    HW148637  13.432   1.478   3.807
15580SOL    HW248638  13.371   1.487   3.669
15581SOL     OW48639  12.595  13.657   2.032
15581SOL    HW148640  12.635  13.570   2.043
15581SOL    HW248641  12.510  13.640   1.993
15582SOL     OW48642   7.158  12.823  11.671
15582SOL    HW148643   7.163  12.728  11.673
15582SOL    HW248644   7.146  12.844  11.578
15583SOL     OW48645  11.476   5.329   5.598
15583SOL    HW148646  11.482   5.319   5.693
15583SOL    HW248647  11.429   5.251   5.569
15584SOL     OW48648  11.380   6.273   9.918
15584SOL    HW148649  11.360   6.246  10.008
15584SOL    HW248650  11.449   6.212   9.889
15585SOL     OW48651   1.305   5.689  13.823
15585SOL    HW148652   1.219   5.711  13.857
15585SOL    HW248653   1.292   5.606  13.776
15586SOL     OW48654   1.637   4.214   0.656
15586SOL    HW148655   1.721   4.168   0.655
15586SOL    HW248656   1.658   4.304   0.633
15587SOL     OW48657   5.169   7.561   9.659
15587SOL    HW148658   5.185   7.642   9.707
15587SOL    HW248659   5.255   7.520   9.650
15588SOL     OW48660  11.923  11.396  11.089
15588SOL    HW148661  11.869  11.402  11.168
15588SOL    HW248662  12.009  11.428  11.117
15589SOL     OW48663  10.943   4.235  11.054
15589SOL    HW148664  10.917   4.310  11.108
15589SOL    HW248665  11.039   4.241  11.051
15590SOL     OW48666  10.868   2.550  14.291
15590SOL    HW148667  10.827   2.465  14.307
15590SOL    HW248668  10.952   2.528  14.251
15591SOL     OW48669   2.774  11.164   9.863
15591SOL    HW148670   2.844  11.201   9.918
15591SOL    HW248671   2.803  11.181   9.774
15592SOL     OW48672  11.115   4.814   2.816
15592SOL    HW148673  11.125   4.862   2.898
15592SOL    HW248674  11.203   4.814   2.777
15593SOL     OW48675  13.923   6.379   8.618
15593SOL    HW148676  13.950   6.384   8.526
15593SOL    HW248677  13.970   6.450   8.661
15594SOL     OW48678   9.816   8.679  12.408
15594SOL    HW148679   9.724   8.671  12.433
15594SOL    HW248680   9.827   8.618  12.335
15595SOL     OW48681   6.063  13.487   8.401
15595SOL    HW148682   6.115  13.407   8.415
15595SOL    HW248683   6.029  13.509   8.488
15596SOL     OW48684  11.717   3.503  10.655
15596SOL    HW148685  11.716   3.528  10.748
15596SOL    HW248686  11.684   3.414  10.654
15597SOL     OW48687   5.504   0.821   8.262
15597SOL    HW148688   5.431   0.759   8.271
15597SOL    HW248689   5.578   0.777   8.305
15598SOL     OW48690   2.097  10.233   2.780
15598SOL    HW148691   2.141  10.299   2.834
15598SOL    HW248692   2.039  10.187   2.841
15599SOL     OW48693   2.618   5.707   6.064
15599SOL    HW148694   2.694   5.649   6.056
15599SOL    HW248695   2.572   5.676   6.142
15600SOL     OW48696   2.859   1.109   7.171
15600SOL    HW148697   2.857   1.059   7.090
15600SOL    HW248698   2.952   1.118   7.192
15601SOL     OW48699   2.881   0.111   0.798
15601SOL    HW148700   2.852   0.184   0.853
15601SOL    HW248701   2.945   0.065   0.852
15602SOL     OW48702   6.211  12.586   4.820
15602SOL    HW148703   6.284  12.535   4.856
15602SOL    HW248704   6.218  12.671   4.864
15603SOL     OW48705   5.497   2.035  10.283
15603SOL    HW148706   5.502   2.128  10.305
15603SOL    HW248707   5.423   2.002  10.335
15604SOL     OW48708   7.583   4.969   6.348
15604SOL    HW148709   7.669   4.928   6.349
15604SOL    HW248710   7.598   5.057   6.382
15605SOL     OW48711  13.454   9.540   7.179
15605SOL    HW148712  13.486   9.496   7.100
15605SOL    HW248713  13.394   9.477   7.218
15606SOL     OW48714   4.859   3.684   5.812
15606SOL    HW148715   4.929   3.698   5.875
15606SOL    HW248716   4.837   3.592   5.820
15607SOL     OW48717   1.433  14.861  13.675
15607SOL    HW148718   1.471   0.072  13.693
15607SOL    HW248719   1.341  14.870  13.701
15608SOL     OW48720  11.977   0.349  14.404
15608SOL    HW148721  12.068   0.374  14.387
15608SOL    HW248722  11.929   0.432  14.401
15609SOL     OW48723  13.578   3.445  12.514
15609SOL    HW148724  13.568   3.368  12.458
15609SOL    HW248725  13.543   3.518  12.462
15610SOL     OW48726   3.978   3.066   8.337
15610SOL    HW148727   3.926   3.024   8.268
15610SOL    HW248728   3.981   3.159   8.311
15611SOL     OW48729   1.610   1.959  11.386
15611SOL    HW148730   1.626   2.048  11.416
15611SOL    HW248731   1.611   1.906  11.465
15612SOL     OW48732  11.812  11.754  10.495
15612SOL    HW148733  11.731  11.784  10.454
15612SOL    HW248734  11.789  11.739  10.586
15613SOL     OW48735   3.834   6.856   8.729
15613SOL    HW148736   3.746   6.865   8.694
15613SOL    HW248737   3.886   6.918   8.679
15614SOL     OW48738   9.439  13.693   2.978
15614SOL    HW148739   9.462  13.614   2.929
15614SOL    HW248740   9.456  13.765   2.917
15615SOL     OW48741  14.304  10.308  12.516
15615SOL    HW148742  14.270  10.365  12.446
15615SOL    HW248743  14.399  10.322  12.514
15616SOL     OW48744   4.806   5.171   8.523
15616SOL    HW148745   4.855   5.098   8.484
15616SOL    HW248746   4.786   5.142   8.612
15617SOL     OW48747   3.480   2.575  14.530
15617SOL    HW148748   3.513   2.605  14.615
15617SOL    HW248749   3.450   2.655  14.487
15618SOL     OW48750  11.286  14.581   7.454
15618SOL    HW148751  11.277  14.629   7.373
15618SOL    HW248752  11.377  14.549   7.454
15619SOL     OW48753   9.572  13.181   3.319
15619SOL    HW148754   9.538  13.270   3.311
15619SOL    HW248755   9.658  13.184   3.275
15620SOL     OW48756  14.804   7.790  14.470
15620SOL    HW148757  14.836   7.871  14.430
15620SOL    HW248758  14.814   7.723  14.402
15621SOL     OW48759   3.372   5.454   3.439
15621SOL    HW148760   3.446   5.512   3.452
15621SOL    HW248761   3.406   5.385   3.382
15622SOL     OW48762   8.231   9.203   2.015
15622SOL    HW148763   8.286   9.186   1.938
15622SOL    HW248764   8.257   9.134   2.077
15623SOL     OW48765  10.946   5.059   7.800
15623SOL    HW148766  11.035   5.030   7.783
15623SOL    HW248767  10.945   5.085   7.892
15624SOL     OW48768   0.731  10.786   3.870
15624SOL    HW148769   0.704  10.873   3.842
15624SOL    HW248770   0.649  10.742   3.894
15625SOL     OW48771   8.451   2.477   2.438
15625SOL    HW148772   8.476   2.549   2.381
15625SOL    HW248773   8.451   2.515   2.526
15626SOL     OW48774   6.550   4.727   7.096
15626SOL    HW148775   6.495   4.688   7.163
15626SOL    HW248776   6.610   4.657   7.070
15627SOL     OW48777  10.547  10.874  14.738
15627SOL    HW148778  10.556  10.868  14.833
15627SOL    HW248779  10.622  10.825  14.704
15628SOL     OW48780  10.286   0.242   4.873
15628SOL    HW148781  10.231   0.208   4.802
15628SOL    HW248782  10.296   0.335   4.854
15629SOL     OW48783   2.920  14.023   1.955
15629SOL    HW148784   3.004  13.984   1.976
15629SOL    HW248785   2.856  13.955   1.974
15630SOL     OW48786   2.110   9.869   6.458
15630SOL    HW148787   2.146   9.783   6.483
15630SOL    HW248788   2.188   9.921   6.437
15631SOL     OW48789   0.309   6.854   1.574
15631SOL    HW148790   0.335   6.940   1.541
15631SOL    HW248791   0.353   6.791   1.516
15632SOL     OW48792  12.301  10.271  12.543
15632SOL    HW148793  12.232  10.325  12.504
15632SOL    HW248794  12.355  10.333  12.592
15633SOL     OW48795   9.081   0.116   5.994
15633SOL    HW148796   9.007   0.160   6.034
15633SOL    HW248797   9.121   0.182   5.937
15634SOL     OW48798   6.260   8.076  10.670
15634SOL    HW148799   6.279   8.127  10.749
15634SOL    HW248800   6.185   8.021  10.695
15635SOL     OW48801  14.357   4.180   5.563
15635SOL    HW148802  14.401   4.206   5.482
15635SOL    HW248803  14.358   4.259   5.617
15636SOL     OW48804   4.196  11.928   8.400
15636SOL    HW148805   4.262  11.979   8.447
15636SOL    HW248806   4.114  11.973   8.418
15637SOL     OW48807   3.088   9.009   2.014
15637SOL    HW148808   3.077   8.953   2.090
15637SOL    HW248809   3.021   8.980   1.952
15638SOL     OW48810  11.683  13.601   8.604
15638SOL    HW148811  11.767  13.608   8.649
15638SOL    HW248812  11.690  13.520   8.552
15639SOL     OW48813   0.620   8.398  14.661
15639SOL    HW148814   0.550   8.373  14.722
15639SOL    HW248815   0.616   8.333  14.591
15640SOL     OW48816   1.677   6.507  11.723
15640SOL    HW148817   1.722   6.526  11.641
15640SOL    HW248818   1.747   6.502  11.788
15641SOL     OW48819   8.665   8.743   1.065
15641SOL    HW148820   8.669   8.799   0.988
15641SOL    HW248821   8.619   8.664   1.035
15642SOL     OW48822  11.748   1.122  12.512
15642SOL    HW148823  11.807   1.186  12.552
15642SOL    HW248824  11.763   1.041  12.560
15643SOL     OW48825  13.565   5.723  12.231
15643SOL    HW148826  13.645   5.770  12.256
15643SOL    HW248827  13.500   5.752  12.295
15644SOL     OW48828   3.030  10.048  10.638
15644SOL    HW148829   3.115  10.067  10.677
15644SOL    HW248830   2.978  10.013  10.710
15645SOL     OW48831   9.451  13.431   0.657
15645SOL    HW148832   9.493  13.352   0.692
15645SOL    HW248833   9.488  13.502   0.710
15646SOL     OW48834   4.873   4.490   9.652
15646SOL    HW148835   4.825   4.529   9.725
15646SOL    HW248836   4.806   4.470   9.587
15647SOL     OW48837   4.670   9.624   6.704
15647SOL    HW148838   4.638   9.631   6.614
15647SOL    HW248839   4.730   9.698   6.715
15648SOL     OW48840   5.019   8.746   2.743
15648SOL    HW148841   5.083   8.800   2.789
15648SOL    HW248842   4.936   8.794   2.753
15649SOL     OW48843   6.891   4.730   6.957
15649SOL    HW148844   6.818   4.669   6.969
15649SOL    HW248845   6.969   4.679   6.976
15650SOL     OW48846  11.487  10.273   3.829
15650SOL    HW148847  11.398  10.307   3.837
15650SOL    HW248848  11.494  10.244   3.739
15651SOL     OW48849   7.365   4.302   7.815
15651SOL    HW148850   7.401   4.391   7.813
15651SOL    HW248851   7.294   4.306   7.879
15652SOL     OW48852  13.354   2.180   6.311
15652SOL    HW148853  13.316   2.092   6.314
15652SOL    HW248854  13.311   2.221   6.235
15653SOL     OW48855  11.531   8.591   9.803
15653SOL    HW148856  11.540   8.665   9.743
15653SOL    HW248857  11.454   8.544   9.771
15654SOL     OW48858   8.858   4.086   0.739
15654SOL    HW148859   8.848   3.998   0.703
15654SOL    HW248860   8.952   4.104   0.731
15655SOL     OW48861   7.954   5.359  14.369
15655SOL    HW148862   7.940   5.398  14.282
15655SOL    HW248863   7.883   5.394  14.423
15656SOL     OW48864   0.912   7.248   4.379
15656SOL    HW148865   0.843   7.181   4.375
15656SOL    HW248866   0.919   7.279   4.288
15657SOL     OW48867  10.120   5.190   1.488
15657SOL    HW148868  10.177   5.217   1.560
15657SOL    HW248869  10.127   5.094   1.487
15658SOL     OW48870  10.467   3.909   3.054
15658SOL    HW148871  10.521   3.940   2.981
15658SOL    HW248872  10.383   3.887   3.013
15659SOL     OW48873   9.149  14.386   7.578
15659SOL    HW148874   9.135  14.376   7.483
15659SOL    HW248875   9.192  14.471   7.586
15660SOL     OW48876   9.928   7.360  13.274
15660SOL    HW148877   9.917   7.288  13.212
15660SOL    HW248878   9.878   7.432  13.236
15661SOL     OW48879   1.376   0.335   4.308
15661SOL    HW148880   1.459   0.322   4.354
15661SOL    HW248881   1.310   0.300   4.367
15662SOL     OW48882  13.726   9.714   2.383
15662SOL    HW148883  13.734   9.645   2.448
15662SOL    HW248884  13.813   9.721   2.344
15663SOL     OW48885   3.744   9.379  10.490
15663SOL    HW148886   3.789   9.447  10.539
15663SOL    HW248887   3.673   9.350  10.548
15664SOL     OW48888   3.974  10.823   0.384
15664SOL    HW148889   4.042  10.770   0.424
15664SOL    HW248890   4.003  10.834   0.293
15665SOL     OW48891   1.990   8.848   1.139
15665SOL    HW148892   1.977   8.767   1.091
15665SOL    HW248893   1.906   8.893   1.135
15666SOL     OW48894   4.957   0.478  12.771
15666SOL    HW148895   4.891   0.502  12.706
15666SOL    HW248896   5.039   0.472  12.721
15667SOL     OW48897   6.106  10.935  11.765
15667SOL    HW148898   6.049  10.883  11.820
15667SOL    HW248899   6.184  10.951  11.819
15668SOL     OW48900   3.118   0.667   5.708
15668SOL    HW148901   3.026   0.680   5.734
15668SOL    HW248902   3.123   0.702   5.619
15669SOL     OW48903   7.674   1.900   8.030
15669SOL    HW148904   7.648   1.851   8.108
15669SOL    HW248905   7.625   1.982   8.036
15670SOL     OW48906  13.207   4.425  12.474
15670SOL    HW148907  13.117   4.417  12.444
15670SOL    HW248908  13.261   4.411  12.396
15671SOL     OW48909   8.647   0.776  11.688
15671SOL    HW148910   8.695   0.762  11.769
15671SOL    HW248911   8.580   0.841  11.710
15672SOL     OW48912  12.370   7.887   5.770
15672SOL    HW148913  12.434   7.949   5.804
15672SOL    HW248914  12.408   7.855   5.688
15673SOL     OW48915  13.943  11.555   4.665
15673SOL    HW148916  13.956  11.460   4.664
15673SOL    HW248917  13.853  11.566   4.696
15674SOL     OW48918  10.775   3.203   5.658
15674SOL    HW148919  10.814   3.162   5.736
15674SOL    HW248920  10.690   3.235   5.689
15675SOL     OW48921   8.885  12.165   3.218
15675SOL    HW148922   8.902  12.255   3.245
15675SOL    HW248923   8.801  12.169   3.172
15676SOL     OW48924  13.019   5.904   6.741
15676SOL    HW148925  12.965   5.841   6.788
15676SOL    HW248926  12.990   5.989   6.774
15677SOL     OW48927   0.377  10.328   2.065
15677SOL    HW148928   0.306  10.331   2.129
15677SOL    HW248929   0.457  10.329   2.117
15678SOL     OW48930   8.852   9.703  10.147
15678SOL    HW148931   8.935   9.717  10.193
15678SOL    HW248932   8.872   9.719  10.055
15679SOL     OW48933   6.335  11.271  13.915
15679SOL    HW148934   6.271  11.235  13.853
15679SOL    HW248935   6.385  11.334  13.864
15680SOL     OW48936  12.210  14.047   2.716
15680SOL    HW148937  12.168  13.970   2.677
15680SOL    HW248938  12.302  14.039   2.691
15681SOL     OW48939  12.533   9.948   3.953
15681SOL    HW148940  12.511   9.867   4.000
15681SOL    HW248941  12.448   9.987   3.932
15682SOL     OW48942   1.030  10.409   5.131
15682SOL    HW148943   1.007  10.342   5.196
15682SOL    HW248944   1.023  10.364   5.047
15683SOL     OW48945   5.467  11.653   3.674
15683SOL    HW148946   5.553  11.677   3.708
15683SOL    HW248947   5.426  11.737   3.652
15684SOL     OW48948   2.016  13.595   8.589
15684SOL    HW148949   2.088  13.633   8.640
15684SOL    HW248950   2.058  13.529   8.533
15685SOL     OW48951   7.404  11.580  13.429
15685SOL    HW148952   7.499  11.577  13.423
15685SOL    HW248953   7.385  11.558  13.521
15686SOL     OW48954   8.959  10.084   1.353
15686SOL    HW148955   8.877  10.042   1.378
15686SOL    HW248956   8.933  10.167   1.312
15687SOL     OW48957   5.052   7.984   3.366
15687SOL    HW148958   5.093   8.061   3.406
15687SOL    HW248959   5.126   7.929   3.340
15688SOL     OW48960   9.245   6.620  10.742
15688SOL    HW148961   9.294   6.601  10.823
15688SOL    HW248962   9.154   6.623  10.769
15689SOL     OW48963  13.660   4.848   9.060
15689SOL    HW148964  13.714   4.918   9.095
15689SOL    HW248965  13.713   4.810   8.989
15690SOL     OW48966   6.478  11.150   0.452
15690SOL    HW148967   6.567  11.155   0.417
15690SOL    HW248968   6.442  11.069   0.415
15691SOL     OW48969   5.156  14.660   6.334
15691SOL    HW148970   5.178  14.568   6.318
15691SOL    HW248971   5.192  14.678   6.421
15692SOL     OW48972   8.263  13.720   5.363
15692SOL    HW148973   8.301  13.721   5.276
15692SOL    HW248974   8.330  13.680   5.418
15693SOL     OW48975   6.884  10.026  10.714
15693SOL    HW148976   6.859   9.969  10.787
15693SOL    HW248977   6.847   9.983  10.637
15694SOL     OW48978  11.347   1.166  13.156
15694SOL    HW148979  11.431   1.161  13.111
15694SOL    HW248980  11.370   1.192  13.246
15695SOL     OW48981   0.904  12.958   7.359
15695SOL    HW148982   0.955  12.884   7.327
15695SOL    HW248983   0.824  12.956   7.307
15696SOL     OW48984  10.387   4.605  11.425
15696SOL    HW148985  10.417   4.692  11.398
15696SOL    HW248986  10.345   4.569  11.347
15697SOL     OW48987  12.388   9.112   3.155
15697SOL    HW148988  12.416   9.169   3.227
15697SOL    HW248989  12.293   9.114   3.158
15698SOL     OW48990   3.883  11.511   8.466
15698SOL    HW148991   3.945  11.585   8.467
15698SOL    HW248992   3.938  11.435   8.485
15699SOL     OW48993   3.341   3.380   7.559
15699SOL    HW148994   3.364   3.385   7.466
15699SOL    HW248995   3.277   3.450   7.571
15700SOL     OW48996   3.870   5.498  10.850
15700SOL    HW148997   3.857   5.525  10.941
15700SOL    HW248998   3.815   5.421  10.839
15701SOL     OW48999  11.662   8.214   1.648
15701SOL    HW149000  11.750   8.247   1.664
15701SOL    HW249001  11.631   8.186   1.734
15702SOL     OW49002  10.458   4.779   6.614
15702SOL    HW149003  10.479   4.856   6.668
15702SOL    HW249004  10.411   4.815   6.540
15703SOL     OW49005  14.104   7.712   6.667
15703SOL    HW149006  14.020   7.742   6.703
15703SOL    HW249007  14.136   7.648   6.731
15704SOL     OW49008   0.417  14.079   4.960
15704SOL    HW149009   0.442  14.078   4.868
15704SOL    HW249010   0.501  14.072   5.007
15705SOL     OW49011   8.508  12.535   7.719
15705SOL    HW149012   8.505  12.439   7.721
15705SOL    HW249013   8.570  12.556   7.650
15706SOL     OW49014  12.194  13.245   6.204
15706SOL    HW149015  12.179  13.268   6.296
15706SOL    HW249016  12.280  13.203   6.203
15707SOL     OW49017  11.638   1.313   8.124
15707SOL    HW149018  11.677   1.293   8.209
15707SOL    HW249019  11.592   1.396   8.137
15708SOL     OW49020   4.276   2.098   2.502
15708SOL    HW149021   4.219   2.131   2.571
15708SOL    HW249022   4.312   2.017   2.538
15709SOL     OW49023   9.710  11.353   6.804
15709SOL    HW149024   9.642  11.294   6.772
15709SOL    HW249025   9.777  11.294   6.839
15710SOL     OW49026  11.288   6.637  10.802
15710SOL    HW149027  11.381   6.635  10.826
15710SOL    HW249028  11.288   6.636  10.707
15711SOL     OW49029  14.821   7.441   3.894
15711SOL    HW149030  14.740   7.409   3.853
15711SOL    HW249031  14.814   7.536   3.886
15712SOL     OW49032   6.727  12.153   4.686
15712SOL    HW149033   6.774  12.199   4.617
15712SOL    HW249034   6.649  12.206   4.702
15713SOL     OW49035   1.806   8.598   9.468
15713SOL    HW149036   1.791   8.594   9.563
15713SOL    HW249037   1.718   8.589   9.430
15714SOL     OW49038  11.209   4.726   7.056
15714SOL    HW149039  11.167   4.717   6.971
15714SOL    HW249040  11.137   4.736   7.118
15715SOL     OW49041  12.628   3.039   0.542
15715SOL    HW149042  12.608   2.946   0.552
15715SOL    HW249043  12.660   3.066   0.628
15716SOL     OW49044   3.731   9.501   1.787
15716SOL    HW149045   3.682   9.577   1.754
15716SOL    HW249046   3.737   9.515   1.881
15717SOL     OW49047  11.226  11.218  13.278
15717SOL    HW149048  11.203  11.302  13.237
15717SOL    HW249049  11.319  11.226  13.298
15718SOL     OW49050   2.587  12.847   1.243
15718SOL    HW149051   2.626  12.778   1.297
15718SOL    HW249052   2.657  12.873   1.183
15719SOL     OW49053  14.318  12.640   6.969
15719SOL    HW149054  14.262  12.564   6.985
15719SOL    HW249055  14.333  12.676   7.057
15720SOL     OW49056   2.131   7.534   2.887
15720SOL    HW149057   2.139   7.526   2.792
15720SOL    HW249058   2.044   7.500   2.907
15721SOL     OW49059   0.448   3.312  10.262
15721SOL    HW149060   0.361   3.279  10.243
15721SOL    HW249061   0.505   3.235  10.258
15722SOL     OW49062   0.637   1.593   1.985
15722SOL    HW149063   0.718   1.559   1.948
15722SOL    HW249064   0.645   1.689   1.979
15723SOL     OW49065  10.823  12.328   3.270
15723SOL    HW149066  10.854  12.320   3.179
15723SOL    HW249067  10.890  12.381   3.313
15724SOL     OW49068   1.605   1.622   0.238
15724SOL    HW149069   1.670   1.656   0.176
15724SOL    HW249070   1.648   1.547   0.278
15725SOL     OW49071  13.242  11.304  13.887
15725SOL    HW149072  13.245  11.371  13.955
15725SOL    HW249073  13.186  11.235  13.924
15726SOL     OW49074  14.747   4.175   2.197
15726SOL    HW149075  14.719   4.091   2.159
15726SOL    HW249076  14.760   4.155   2.290
15727SOL     OW49077  12.784   2.532   3.903
15727SOL    HW149078  12.773   2.618   3.861
15727SOL    HW249079  12.699   2.513   3.941
15728SOL     OW49080   3.771  13.874  13.249
15728SOL    HW149081   3.680  13.872  13.219
15728SOL    HW249082   3.774  13.949  13.309
15729SOL     OW49083   5.018   6.586  12.213
15729SOL    HW149084   5.091   6.644  12.232
15729SOL    HW249085   5.020   6.575  12.118
15730SOL     OW49086   0.825   9.395   9.177
15730SOL    HW149087   0.862   9.315   9.139
15730SOL    HW249088   0.899   9.455   9.184
15731SOL     OW49089   0.601  11.104   0.729
15731SOL    HW149090   0.654  11.036   0.687
15731SOL    HW249091   0.665  11.167   0.763
15732SOL     OW49092  11.505   6.258   5.637
15732SOL    HW149093  11.565   6.249   5.563
15732SOL    HW249094  11.497   6.169   5.672
15733SOL     OW49095   3.134   3.235   1.589
15733SOL    HW149096   3.148   3.318   1.543
15733SOL    HW249097   3.051   3.246   1.635
15734SOL     OW49098   7.326   7.643   5.970
15734SOL    HW149099   7.335   7.657   6.064
15734SOL    HW249100   7.329   7.548   5.959
15735SOL     OW49101   1.630   7.361  11.500
15735SOL    HW149102   1.627   7.399  11.412
15735SOL    HW249103   1.623   7.267  11.486
15736SOL     OW49104   2.545   1.248   5.577
15736SOL    HW149105   2.634   1.259   5.546
15736SOL    HW249106   2.526   1.155   5.561
15737SOL     OW49107  11.730  14.258   7.440
15737SOL    HW149108  11.733  14.162   7.438
15737SOL    HW249109  11.790  14.285   7.370
15738SOL     OW49110  13.456   0.251  10.283
15738SOL    HW149111  13.511   0.278  10.209
15738SOL    HW249112  13.416   0.333  10.314
15739SOL     OW49113   4.710   6.343   6.472
15739SOL    HW149114   4.619   6.341   6.502
15739SOL    HW249115   4.714   6.417   6.412
15740SOL     OW49116   5.028   1.787  14.169
15740SOL    HW149117   4.940   1.795  14.206
15740SOL    HW249118   5.036   1.862  14.110
15741SOL     OW49119   1.891  13.258   7.250
15741SOL    HW149120   1.826  13.328   7.249
15741SOL    HW249121   1.847  13.185   7.293
15742SOL     OW49122  12.096   5.506   8.207
15742SOL    HW149123  12.099   5.589   8.159
15742SOL    HW249124  12.040   5.450   8.154
15743SOL     OW49125   2.288  11.125  13.173
15743SOL    HW149126   2.246  11.102  13.091
15743SOL    HW249127   2.376  11.152  13.148
15744SOL     OW49128   4.041   8.377   5.288
15744SOL    HW149129   4.118   8.433   5.284
15744SOL    HW249130   4.011   8.372   5.197
15745SOL     OW49131   4.154   7.277  11.547
15745SOL    HW149132   4.187   7.320  11.625
15745SOL    HW249133   4.221   7.212  11.526
15746SOL     OW49134   2.707   4.856  14.143
15746SOL    HW149135   2.614   4.878  14.144
15746SOL    HW249136   2.722   4.812  14.227
15747SOL     OW49137   5.972   6.655   9.826
15747SOL    HW149138   5.898   6.703   9.790
15747SOL    HW249139   5.965   6.567   9.788
15748SOL     OW49140   9.238   2.529  12.836
15748SOL    HW149141   9.286   2.451  12.866
15748SOL    HW249142   9.239   2.523  12.741
15749SOL     OW49143   1.726  11.059  12.176
15749SOL    HW149144   1.727  11.007  12.095
15749SOL    HW249145   1.640  11.099  12.178
15750SOL     OW49146  14.755   3.574   7.596
15750SOL    HW149147  14.843   3.541   7.577
15750SOL    HW249148  14.753   3.661   7.555
15751SOL     OW49149  10.766  10.604   3.261
15751SOL    HW149150  10.829  10.661   3.217
15751SOL    HW249151  10.700  10.585   3.195
15752SOL     OW49152  11.507   4.315  14.120
15752SOL    HW149153  11.540   4.378  14.184
15752SOL    HW249154  11.519   4.230  14.162
15753SOL     OW49155   1.310   6.556   0.472
15753SOL    HW149156   1.340   6.492   0.408
15753SOL    HW249157   1.282   6.504   0.548
15754SOL     OW49158   0.124   8.712   1.629
15754SOL    HW149159   0.186   8.643   1.607
15754SOL    HW249160   0.115   8.706   1.725
15755SOL     OW49161   6.279  10.188   3.251
15755SOL    HW149162   6.199  10.231   3.219
15755SOL    HW249163   6.259  10.094   3.246
15756SOL     OW49164   1.243   9.034  13.558
15756SOL    HW149165   1.168   8.980  13.582
15756SOL    HW249166   1.215   9.081  13.479
15757SOL     OW49167   3.862   4.076  12.263
15757SOL    HW149168   3.807   4.152  12.247
15757SOL    HW249169   3.847   4.018  12.188
15758SOL     OW49170   7.562   7.924   4.829
15758SOL    HW149171   7.612   7.953   4.905
15758SOL    HW249172   7.491   7.987   4.821
15759SOL     OW49173   5.568   3.863   7.639
15759SOL    HW149174   5.635   3.925   7.612
15759SOL    HW249175   5.571   3.794   7.573
15760SOL     OW49176  14.238  14.113   2.318
15760SOL    HW149177  14.307  14.060   2.277
15760SOL    HW249178  14.281  14.155   2.392
15761SOL     OW49179  13.601   2.889   2.002
15761SOL    HW149180  13.687   2.874   1.962
15761SOL    HW249181  13.586   2.811   2.056
15762SOL     OW49182   9.226   8.971   7.252
15762SOL    HW149183   9.243   8.892   7.305
15762SOL    HW249184   9.131   8.983   7.257
15763SOL     OW49185   3.088   5.625   8.725
15763SOL    HW149186   3.067   5.560   8.659
15763SOL    HW249187   3.025   5.696   8.710
15764SOL     OW49188  12.878  11.368   1.557
15764SOL    HW149189  12.935  11.351   1.482
15764SOL    HW249190  12.796  11.322   1.537
15765SOL     OW49191   3.425   7.830  13.790
15765SOL    HW149192   3.380   7.914  13.789
15765SOL    HW249193   3.434   7.806  13.697
15766SOL     OW49194   1.747   5.732  10.284
15766SOL    HW149195   1.719   5.725  10.375
15766SOL    HW249196   1.830   5.685  10.281
15767SOL     OW49197   5.937  10.752  11.886
15767SOL    HW149198   5.876  10.695  11.840
15767SOL    HW249199   5.931  10.725  11.978
15768SOL     OW49200   3.181   7.702  11.576
15768SOL    HW149201   3.157   7.793  11.595
15768SOL    HW249202   3.271   7.706  11.544
15769SOL     OW49203   9.038   9.272   6.043
15769SOL    HW149204   8.983   9.340   6.082
15769SOL    HW249205   9.117   9.271   6.097
15770SOL     OW49206   9.269   0.563   9.726
15770SOL    HW149207   9.197   0.594   9.781
15770SOL    HW249208   9.236   0.575   9.636
15771SOL     OW49209  13.917   8.092   6.812
15771SOL    HW149210  13.918   8.053   6.724
15771SOL    HW249211  13.844   8.153   6.810
15772SOL     OW49212   9.220   9.831  11.669
15772SOL    HW149213   9.301   9.881  11.666
15772SOL    HW249214   9.171   9.859  11.592
15773SOL     OW49215   5.607  11.805   1.355
15773SOL    HW149216   5.549  11.780   1.426
15773SOL    HW249217   5.576  11.892   1.328
15774SOL     OW49218   9.193   2.217  14.722
15774SOL    HW149219   9.259   2.258  14.777
15774SOL    HW249220   9.118   2.277  14.727
15775SOL     OW49221   4.561  13.799  11.207
15775SOL    HW149222   4.554  13.893  11.189
15775SOL    HW249223   4.648  13.788  11.243
15776SOL     OW49224  11.240   7.224  13.448
15776SOL    HW149225  11.272   7.246  13.536
15776SOL    HW249226  11.223   7.309  13.407
15777SOL     OW49227  13.456  14.695   8.658
15777SOL    HW149228  13.533  14.745   8.630
15777SOL    HW249229  13.386  14.726   8.600
15778SOL     OW49230  11.850   8.392  10.929
15778SOL    HW149231  11.912   8.374  10.859
15778SOL    HW249232  11.892   8.459  10.982
15779SOL     OW49233  12.614   0.573   6.283
15779SOL    HW149234  12.524   0.577   6.251
15779SOL    HW249235  12.666   0.554   6.205
15780SOL     OW49236   8.734   7.435   4.608
15780SOL    HW149237   8.763   7.474   4.691
15780SOL    HW249238   8.653   7.389   4.630
15781SOL     OW49239   3.135   1.891   4.206
15781SOL    HW149240   3.198   1.851   4.146
15781SOL    HW249241   3.059   1.833   4.203
15782SOL     OW49242  11.703   3.926   0.192
15782SOL    HW149243  11.712   3.997   0.128
15782SOL    HW249244  11.728   3.847   0.144
15783SOL     OW49245  10.407  13.902   7.438
15783SOL    HW149246  10.417  13.852   7.357
15783SOL    HW249247  10.484  13.959   7.440
15784SOL     OW49248  11.441  14.313   5.645
15784SOL    HW149249  11.506  14.366   5.691
15784SOL    HW249250  11.372  14.298   5.710
15785SOL     OW49251  13.427   2.506   3.252
15785SOL    HW149252  13.341   2.528   3.216
15785SOL    HW249253  13.476   2.588   3.247
15786SOL     OW49254   1.138   2.150   9.385
15786SOL    HW149255   1.086   2.158   9.305
15786SOL    HW249256   1.184   2.066   9.376
15787SOL     OW49257   8.667  13.064   2.715
15787SOL    HW149258   8.607  13.052   2.788
15787SOL    HW249259   8.670  13.159   2.703
15788SOL     OW49260   2.640   6.790   7.253
15788SOL    HW149261   2.689   6.716   7.289
15788SOL    HW249262   2.667   6.794   7.161
15789SOL     OW49263   9.888   6.587  10.815
15789SOL    HW149264   9.951   6.607  10.885
15789SOL    HW249265   9.902   6.495  10.796
15790SOL     OW49266  10.718  14.455   0.583
15790SOL    HW149267  10.635  14.408   0.589
15790SOL    HW249268  10.733  14.490   0.671
15791SOL     OW49269   9.931   8.901   8.500
15791SOL    HW149270   9.872   8.877   8.429
15791SOL    HW249271   9.918   8.995   8.511
15792SOL     OW49272   0.525   6.110   1.298
15792SOL    HW149273   0.600   6.141   1.248
15792SOL    HW249274   0.496   6.032   1.250
15793SOL     OW49275   5.923   4.985   4.446
15793SOL    HW149276   5.898   4.899   4.414
15793SOL    HW249277   5.846   5.016   4.495
15794SOL     OW49278  12.463   7.829   0.742
15794SOL    HW149279  12.535   7.877   0.700
15794SOL    HW249280  12.454   7.871   0.828
15795SOL     OW49281   9.486   6.379   4.241
15795SOL    HW149282   9.454   6.465   4.266
15795SOL    HW249283   9.494   6.383   4.146
15796SOL     OW49284   1.344   9.751   2.604
15796SOL    HW149285   1.398   9.792   2.537
15796SOL    HW249286   1.293   9.685   2.557
15797SOL     OW49287   3.392   3.972   6.574
15797SOL    HW149288   3.448   3.929   6.508
15797SOL    HW249289   3.443   3.967   6.655
15798SOL     OW49290   3.930   8.258   4.423
15798SOL    HW149291   3.841   8.291   4.433
15798SOL    HW249292   3.928   8.208   4.341
15799SOL     OW49293   6.613   3.725  14.361
15799SOL    HW149294   6.652   3.769  14.285
15799SOL    HW249295   6.553   3.789  14.397
15800SOL     OW49296  13.093   3.112   2.496
15800SOL    HW149297  13.046   3.036   2.463
15800SOL    HW249298  13.131   3.153   2.418
15801SOL     OW49299   3.249   9.064   0.849
15801SOL    HW149300   3.268   9.146   0.894
15801SOL    HW249301   3.182   9.087   0.785
15802SOL     OW49302   3.516   1.204  11.151
15802SOL    HW149303   3.514   1.161  11.236
15802SOL    HW249304   3.474   1.289  11.166
15803SOL     OW49305   8.955  12.777  14.446
15803SOL    HW149306   9.023  12.824  14.494
15803SOL    HW249307   8.992  12.765  14.358
15804SOL     OW49308   5.903  11.216   1.427
15804SOL    HW149309   5.965  11.263   1.372
15804SOL    HW249310   5.955  11.149   1.472
15805SOL     OW49311   0.693  13.954  14.420
15805SOL    HW149312   0.715  13.862  14.435
15805SOL    HW249313   0.616  13.970  14.474
15806SOL     OW49314   4.872  12.119   8.474
15806SOL    HW149315   4.912  12.203   8.451
15806SOL    HW249316   4.933  12.080   8.537
15807SOL     OW49317   3.166   5.248   4.923
15807SOL    HW149318   3.114   5.316   4.881
15807SOL    HW249319   3.103   5.195   4.972
15808SOL     OW49320  14.507   1.139   8.411
15808SOL    HW149321  14.503   1.116   8.504
15808SOL    HW249322  14.590   1.103   8.380
15809SOL     OW49323   7.831  12.396  14.218
15809SOL    HW149324   7.795  12.384  14.130
15809SOL    HW249325   7.895  12.326  14.228
15810SOL     OW49326   4.130  10.190   1.270
15810SOL    HW149327   4.188  10.141   1.211
15810SOL    HW249328   4.073  10.123   1.308
15811SOL     OW49329  10.530  10.843   4.907
15811SOL    HW149330  10.616  10.873   4.878
15811SOL    HW249331  10.474  10.920   4.898
15812SOL     OW49332   4.089   7.046  11.345
15812SOL    HW149333   4.108   6.993  11.422
15812SOL    HW249334   4.110   7.136  11.371
15813SOL     OW49335  12.055   8.455   2.307
15813SOL    HW149336  12.106   8.486   2.382
15813SOL    HW249337  12.031   8.365   2.331
15814SOL     OW49338   8.595   6.210   3.696
15814SOL    HW149339   8.524   6.146   3.703
15814SOL    HW249340   8.621   6.227   3.786
15815SOL     OW49341   0.197  13.354   0.922
15815SOL    HW149342   0.259  13.317   0.985
15815SOL    HW249343   0.112  13.319   0.947
15816SOL     OW49344   8.460   6.726   4.388
15816SOL    HW149345   8.529   6.696   4.446
15816SOL    HW249346   8.413   6.647   4.363
15817SOL     OW49347  10.250   9.222   4.428
15817SOL    HW149348  10.248   9.127   4.421
15817SOL    HW249349  10.343   9.245   4.423
15818SOL     OW49350   5.060  14.262  10.903
15818SOL    HW149351   4.987  14.203  10.922
15818SOL    HW249352   5.117  14.212  10.845
15819SOL     OW49353  12.849   1.405   6.126
15819SOL    HW149354  12.773   1.386   6.071
15819SOL    HW249355  12.817   1.468   6.191
15820SOL     OW49356  11.984   8.189  12.739
15820SOL    HW149357  11.926   8.142  12.680
15820SOL    HW249358  11.973   8.146  12.824
15821SOL     OW49359   6.324  10.125   9.511
15821SOL    HW149360   6.256  10.190   9.500
15821SOL    HW249361   6.387  10.164   9.571
15822SOL     OW49362   5.998  13.104  12.114
15822SOL    HW149363   5.932  13.141  12.055
15822SOL    HW249364   6.045  13.040  12.060
15823SOL     OW49365   5.596   9.606   0.582
15823SOL    HW149366   5.505   9.607   0.553
15823SOL    HW249367   5.616   9.513   0.596
15824SOL     OW49368   1.541   2.966   0.510
15824SOL    HW149369   1.537   2.947   0.603
15824SOL    HW249370   1.633   2.990   0.494
15825SOL     OW49371   7.925  14.688  13.237
15825SOL    HW149372   7.888  14.601  13.227
15825SOL    HW249373   7.871  14.744  13.181
15826SOL     OW49374   4.171   1.871  10.714
15826SOL    HW149375   4.203   1.891  10.802
15826SOL    HW249376   4.216   1.789  10.691
15827SOL     OW49377   0.988   7.808   4.960
15827SOL    HW149378   0.933   7.754   4.902
15827SOL    HW249379   0.926   7.845   5.024
15828SOL     OW49380   2.713   7.567   2.121
15828SOL    HW149381   2.798   7.536   2.150
15828SOL    HW249382   2.727   7.599   2.032
15829SOL     OW49383   8.514   3.629  11.887
15829SOL    HW149384   8.576   3.654  11.955
15829SOL    HW249385   8.539   3.682  11.811
15830SOL     OW49386  12.327   7.440   7.774
15830SOL    HW149387  12.395   7.374   7.787
15830SOL    HW249388  12.363   7.498   7.707
15831SOL     OW49389   5.178  10.144  12.976
15831SOL    HW149390   5.125  10.096  13.039
15831SOL    HW249391   5.127  10.145  12.895
15832SOL     OW49392  14.416  12.078   0.360
15832SOL    HW149393  14.462  12.043   0.284
15832SOL    HW249394  14.432  12.172   0.356
15833SOL     OW49395   2.854  10.563   0.104
15833SOL    HW149396   2.789  10.633   0.100
15833SOL    HW249397   2.932  10.600   0.063
15834SOL     OW49398   7.761   0.754   3.841
15834SOL    HW149399   7.769   0.787   3.752
15834SOL    HW249400   7.805   0.820   3.895
15835SOL     OW49401  10.005   8.879  11.402
15835SOL    HW149402   9.917   8.902  11.432
15835SOL    HW249403   9.994   8.795  11.357
15836SOL     OW49404   6.370  13.281  13.395
15836SOL    HW149405   6.369  13.228  13.475
15836SOL    HW249406   6.392  13.369  13.424
15837SOL     OW49407  14.220   4.174   3.193
15837SOL    HW149408  14.171   4.240   3.145
15837SOL    HW249409  14.311   4.203   3.188
15838SOL     OW49410   9.325  10.722   3.210
15838SOL    HW149411   9.326  10.629   3.189
15838SOL    HW249412   9.415  10.751   3.193
15839SOL     OW49413  12.825  10.437   9.347
15839SOL    HW149414  12.884  10.453   9.421
15839SOL    HW249415  12.739  10.462   9.380
15840SOL     OW49416  12.045   9.364   1.258
15840SOL    HW149417  12.094   9.334   1.181
15840SOL    HW249418  12.028   9.284   1.307
15841SOL     OW49419  11.501   8.510   0.253
15841SOL    HW149420  11.525   8.603   0.254
15841SOL    HW249421  11.563   8.468   0.313
15842SOL     OW49422   6.795  11.857   1.037
15842SOL    HW149423   6.713  11.826   0.998
15842SOL    HW249424   6.774  11.871   1.129
15843SOL     OW49425   5.588  10.809  12.941
15843SOL    HW149426   5.506  10.840  12.903
15843SOL    HW249427   5.602  10.723  12.902
15844SOL     OW49428   0.375   9.608   0.963
15844SOL    HW149429   0.352   9.516   0.948
15844SOL    HW249430   0.457   9.621   0.916
15845SOL     OW49431   0.279   1.594   6.223
15845SOL    HW149432   0.191   1.628   6.210
15845SOL    HW249433   0.273   1.546   6.306
15846SOL     OW49434   3.420   5.229   0.699
15846SOL    HW149435   3.479   5.271   0.762
15846SOL    HW249436   3.341   5.283   0.700
15847SOL     OW49437   7.866   6.719   1.137
15847SOL    HW149438   7.893   6.695   1.226
15847SOL    HW249439   7.832   6.808   1.145
15848SOL     OW49440  12.471  11.362   9.163
15848SOL    HW149441  12.559  11.350   9.128
15848SOL    HW249442  12.466  11.302   9.237
15849SOL     OW49443   0.258  14.710   4.547
15849SOL    HW149444   0.319  14.773   4.510
15849SOL    HW249445   0.252  14.735   4.640
15850SOL     OW49446   1.618  10.214   8.251
15850SOL    HW149447   1.557  10.287   8.263
15850SOL    HW249448   1.666  10.209   8.333
15851SOL     OW49449   3.273  14.370   6.458
15851SOL    HW149450   3.271  14.348   6.551
15851SOL    HW249451   3.186  14.347   6.426
15852SOL     OW49452   6.347  11.054  12.559
15852SOL    HW149453   6.296  11.015  12.629
15852SOL    HW249454   6.357  11.146  12.584
15853SOL     OW49455   2.605   8.549   1.826
15853SOL    HW149456   2.635   8.489   1.758
15853SOL    HW249457   2.640   8.634   1.801
15854SOL     OW49458   0.725   0.219  11.166
15854SOL    HW149459   0.792   0.286  11.152
15854SOL    HW249460   0.726   0.203  11.260
15855SOL     OW49461  12.191  13.978   5.022
15855SOL    HW149462  12.156  13.949   5.107
15855SOL    HW249463  12.280  14.008   5.042
15856SOL     OW49464   0.673   6.232  10.050
15856SOL    HW149465   0.634   6.204  10.133
15856SOL    HW249466   0.664   6.156   9.992
15857SOL     OW49467  13.532   3.719   3.420
15857SOL    HW149468  13.443   3.750   3.438
15857SOL    HW249469  13.528   3.685   3.330
15858SOL     OW49470   4.192  10.591   2.544
15858SOL    HW149471   4.236  10.579   2.628
15858SOL    HW249472   4.257  10.567   2.479
15859SOL     OW49473  10.234   0.203   7.187
15859SOL    HW149474  10.326   0.197   7.162
15859SOL    HW249475  10.236   0.242   7.275
15860SOL     OW49476   4.767   7.573   7.067
15860SOL    HW149477   4.720   7.655   7.085
15860SOL    HW249478   4.718   7.507   7.116
15861SOL     OW49479   7.372   6.439  14.534
15861SOL    HW149480   7.281   6.454  14.559
15861SOL    HW249481   7.411   6.394  14.609
15862SOL     OW49482   5.852  14.513   9.467
15862SOL    HW149483   5.827  14.532   9.557
15862SOL    HW249484   5.935  14.560   9.454
15863SOL     OW49485   8.853   8.432   5.646
15863SOL    HW149486   8.854   8.514   5.598
15863SOL    HW249487   8.770   8.391   5.621
15864SOL     OW49488  11.514   0.425   7.913
15864SOL    HW149489  11.512   0.330   7.921
15864SOL    HW249490  11.546   0.441   7.824
15865SOL     OW49491   6.442  14.691   2.851
15865SOL    HW149492   6.408  14.757   2.790
15865SOL    HW249493   6.537  14.699   2.846
15866SOL     OW49494  14.418   9.311   1.287
15866SOL    HW149495  14.506   9.283   1.312
15866SOL    HW249496  14.423   9.325   1.192
15867SOL     OW49497   8.904  13.966  11.799
15867SOL    HW149498   8.823  13.969  11.850
15867SOL    HW249499   8.962  13.909  11.850
15868SOL     OW49500   7.855   7.064   8.866
15868SOL    HW149501   7.885   7.100   8.949
15868SOL    HW249502   7.932   7.018   8.832
15869SOL     OW49503   6.273   7.188   9.074
15869SOL    HW149504   6.318   7.132   9.011
15869SOL    HW249505   6.281   7.141   9.158
15870SOL     OW49506  12.066   7.291   1.027
15870SOL    HW149507  12.069   7.369   0.973
15870SOL    HW249508  12.156   7.260   1.029
15871SOL     OW49509   5.972   1.564   7.084
15871SOL    HW149510   5.932   1.641   7.123
15871SOL    HW249511   5.907   1.495   7.094
15872SOL     OW49512  12.456   6.644   7.854
15872SOL    HW149513  12.409   6.709   7.801
15872SOL    HW249514  12.548   6.672   7.850
15873SOL     OW49515  12.602   1.126  11.909
15873SOL    HW149516  12.664   1.055  11.893
15873SOL    HW249517  12.636   1.199  11.857
15874SOL     OW49518   8.132   4.509  13.266
15874SOL    HW149519   8.089   4.516  13.181
15874SOL    HW249520   8.067   4.467  13.323
15875SOL     OW49521   0.045  11.815   2.408
15875SOL    HW149522  14.850  11.754   2.434
15875SOL    HW249523   0.042  11.884   2.475
15876SOL     OW49524  11.075  13.363  14.326
15876SOL    HW149525  11.120  13.344  14.408
15876SOL    HW249526  11.144  13.394  14.268
15877SOL     OW49527   2.304   8.674   0.656
15877SOL    HW149528   2.340   8.606   0.600
15877SOL    HW249529   2.238   8.717   0.602
15878SOL     OW49530   2.578  12.588   6.595
15878SOL    HW149531   2.508  12.647   6.624
15878SOL    HW249532   2.647  12.600   6.660
15879SOL     OW49533  10.262   4.905   9.166
15879SOL    HW149534  10.255   4.848   9.089
15879SOL    HW249535  10.353   4.894   9.195
15880SOL     OW49536   3.433   4.168   5.478
15880SOL    HW149537   3.391   4.197   5.397
15880SOL    HW249538   3.525   4.194   5.468
15881SOL     OW49539  13.741   8.427   5.023
15881SOL    HW149540  13.727   8.455   5.113
15881SOL    HW249541  13.664   8.457   4.976
15882SOL     OW49542  12.681  13.663  13.291
15882SOL    HW149543  12.734  13.597  13.247
15882SOL    HW249544  12.745  13.725  13.327
15883SOL     OW49545   7.259  11.123   1.437
15883SOL    HW149546   7.333  11.103   1.380
15883SOL    HW249547   7.299  11.161   1.515
15884SOL     OW49548   6.876   1.582  12.458
15884SOL    HW149549   6.861   1.617  12.546
15884SOL    HW249550   6.850   1.490  12.464
15885SOL     OW49551  10.103  12.296   4.969
15885SOL    HW149552  10.100  12.343   4.886
15885SOL    HW249553  10.018  12.314   5.009
15886SOL     OW49554   3.964   8.413   1.044
15886SOL    HW149555   4.035   8.373   1.095
15886SOL    HW249556   4.009   8.456   0.971
15887SOL     OW49557  12.831   4.596   7.376
15887SOL    HW149558  12.902   4.581   7.313
15887SOL    HW249559  12.779   4.516   7.373
15888SOL     OW49560  12.558   1.686  14.411
15888SOL    HW149561  12.636   1.647  14.371
15888SOL    HW249562  12.520   1.616  14.464
15889SOL     OW49563   8.795   4.595   2.357
15889SOL    HW149564   8.752   4.577   2.274
15889SOL    HW249565   8.833   4.511   2.383
15890SOL     OW49566   4.036  14.070   4.485
15890SOL    HW149567   3.957  14.023   4.458
15890SOL    HW249568   4.062  14.029   4.567
15891SOL     OW49569   0.736  10.042   7.042
15891SOL    HW149570   0.777  10.089   7.115
15891SOL    HW249571   0.657  10.003   7.080
15892SOL     OW49572   4.714   6.107   6.770
15892SOL    HW149573   4.776   6.095   6.698
15892SOL    HW249574   4.698   6.019   6.803
15893SOL     OW49575  14.644   7.862  11.233
15893SOL    HW149576  14.667   7.822  11.317
15893SOL    HW249577  14.551   7.842  11.222
15894SOL     OW49578   0.437   9.356  13.898
15894SOL    HW149579   0.508   9.306  13.858
15894SOL    HW249580   0.441   9.334  13.991
15895SOL     OW49581   3.802  10.997   7.203
15895SOL    HW149582   3.785  10.986   7.297
15895SOL    HW249583   3.736  10.941   7.161
15896SOL     OW49584   0.578   5.397   6.556
15896SOL    HW149585   0.533   5.430   6.634
15896SOL    HW249586   0.604   5.308   6.580
15897SOL     OW49587  11.042   8.650  13.479
15897SOL    HW149588  10.969   8.589  13.476
15897SOL    HW249589  11.055   8.677  13.388
15898SOL     OW49590   5.966   6.402   3.056
15898SOL    HW149591   5.956   6.309   3.077
15898SOL    HW249592   6.060   6.419   3.063
15899SOL     OW49593   8.238   1.823   5.882
15899SOL    HW149594   8.272   1.862   5.963
15899SOL    HW249595   8.256   1.888   5.815
15900SOL     OW49596  11.226   4.750   8.137
15900SOL    HW149597  11.157   4.811   8.162
15900SOL    HW249598  11.225   4.751   8.041
15901SOL     OW49599  12.024   4.620   4.317
15901SOL    HW149600  12.119   4.630   4.315
15901SOL    HW249601  11.993   4.673   4.244
15902SOL     OW49602   3.794  10.390   4.164
15902SOL    HW149603   3.861  10.325   4.142
15902SOL    HW249604   3.811  10.413   4.255
15903SOL     OW49605  11.328   8.635   4.508
15903SOL    HW149606  11.308   8.632   4.601
15903SOL    HW249607  11.422   8.622   4.503
15904SOL     OW49608   2.720   7.282   1.917
15904SOL    HW149609   2.697   7.375   1.920
15904SOL    HW249610   2.815   7.281   1.921
15905SOL     OW49611   1.954  13.161   7.881
15905SOL    HW149612   1.881  13.198   7.831
15905SOL    HW249613   1.929  13.069   7.895
15906SOL     OW49614   4.992   3.177   7.232
15906SOL    HW149615   5.046   3.211   7.304
15906SOL    HW249616   4.943   3.253   7.200
15907SOL     OW49617   0.586   2.473  13.378
15907SOL    HW149618   0.554   2.431  13.299
15907SOL    HW249619   0.669   2.512  13.353
15908SOL     OW49620   8.399   9.608   3.466
15908SOL    HW149621   8.424   9.544   3.399
15908SOL    HW249622   8.471   9.605   3.529
15909SOL     OW49623   8.529   8.445  11.023
15909SOL    HW149624   8.590   8.509  10.986
15909SOL    HW249625   8.526   8.467  11.116
15910SOL     OW49626   3.832   1.960  11.954
15910SOL    HW149627   3.786   1.948  12.037
15910SOL    HW249628   3.812   1.882  11.903
15911SOL     OW49629  14.517   7.490   8.647
15911SOL    HW149630  14.470   7.437   8.711
15911SOL    HW249631  14.449   7.537   8.599
15912SOL     OW49632   1.679   1.977   9.036
15912SOL    HW149633   1.604   2.000   8.981
15912SOL    HW249634   1.655   2.008   9.123
15913SOL     OW49635  12.397  12.755   8.220
15913SOL    HW149636  12.418  12.826   8.159
15913SOL    HW249637  12.323  12.789   8.271
15914SOL     OW49638   2.374   6.604  13.233
15914SOL    HW149639   2.373   6.680  13.291
15914SOL    HW249640   2.316   6.541  13.275
15915SOL     OW49641   9.211  10.224  13.510
15915SOL    HW149642   9.268  10.288  13.468
15915SOL    HW249643   9.128  10.231  13.463
15916SOL     OW49644   6.673   4.914  12.926
15916SOL    HW149645   6.594   4.919  12.871
15916SOL    HW249646   6.670   4.825  12.963
15917SOL     OW49647  13.319  14.567   9.238
15917SOL    HW149648  13.281  14.479   9.230
15917SOL    HW249649  13.285  14.614   9.162
15918SOL     OW49650   3.155  13.886  11.158
15918SOL    HW149651   3.103  13.810  11.134
15918SOL    HW249652   3.143  13.895  11.252
15919SOL     OW49653   5.617   4.800   9.461
15919SOL    HW149654   5.660   4.862   9.520
15919SOL    HW249655   5.544   4.765   9.511
15920SOL     OW49656  12.604  12.238   7.628
15920SOL    HW149657  12.631  12.220   7.719
15920SOL    HW249658  12.526  12.184   7.616
15921SOL     OW49659   7.419   7.548  11.037
15921SOL    HW149660   7.454   7.546  10.948
15921SOL    HW249661   7.325   7.564  11.026
15922SOL     OW49662  12.259   4.117   3.829
15922SOL    HW149663  12.233   4.053   3.763
15922SOL    HW249664  12.210   4.093   3.907
15923SOL     OW49665   1.153  11.196   6.625
15923SOL    HW149666   1.141  11.111   6.582
15923SOL    HW249667   1.195  11.251   6.558
15924SOL     OW49668   5.144  12.457  14.699
15924SOL    HW149669   5.085  12.418  14.634
15924SOL    HW249670   5.089  12.518  14.748
15925SOL     OW49671   8.978   0.314   6.413
15925SOL    HW149672   9.034   0.248   6.374
15925SOL    HW249673   8.893   0.301   6.371
15926SOL     OW49674   9.157   1.770   2.323
15926SOL    HW149675   9.115   1.799   2.242
15926SOL    HW249676   9.225   1.835   2.339
15927SOL     OW49677   0.501   4.669   6.050
15927SOL    HW149678   0.437   4.623   6.104
15927SOL    HW249679   0.495   4.761   6.078
15928SOL     OW49680   5.579   3.449  10.672
15928SOL    HW149681   5.600   3.363  10.635
15928SOL    HW249682   5.635   3.510  10.625
15929SOL     OW49683   0.802   2.018   2.048
15929SOL    HW149684   0.778   1.998   2.139
15929SOL    HW249685   0.885   1.971   2.035
15930SOL     OW49686   7.485   8.557   3.095
15930SOL    HW149687   7.460   8.468   3.120
15930SOL    HW249688   7.525   8.594   3.173
15931SOL     OW49689   2.211   3.196   2.572
15931SOL    HW149690   2.275   3.266   2.563
15931SOL    HW249691   2.245   3.125   2.517
15932SOL     OW49692  10.693  12.468   5.594
15932SOL    HW149693  10.685  12.389   5.541
15932SOL    HW249694  10.623  12.460   5.659
15933SOL     OW49695   4.791   4.747  11.488
15933SOL    HW149696   4.797   4.662  11.532
15933SOL    HW249697   4.707   4.783  11.518
15934SOL     OW49698  10.363  13.271  13.346
15934SOL    HW149699  10.323  13.358  13.354
15934SOL    HW249700  10.409  13.274  13.262
15935SOL     OW49701  12.890   4.399   3.309
15935SOL    HW149702  12.961   4.383   3.372
15935SOL    HW249703  12.815   4.423   3.363
15936SOL     OW49704   7.578  14.602   5.281
15936SOL    HW149705   7.620  14.687   5.292
15936SOL    HW249706   7.494  14.611   5.324
15937SOL     OW49707  10.567   0.804   6.312
15937SOL    HW149708  10.595   0.719   6.345
15937SOL    HW249709  10.504   0.835   6.376
15938SOL     OW49710  12.624  13.170  10.832
15938SOL    HW149711  12.610  13.239  10.897
15938SOL    HW249712  12.596  13.090  10.877
15939SOL     OW49713   6.213   9.185   0.493
15939SOL    HW149714   6.187   9.251   0.428
15939SOL    HW249715   6.223   9.235   0.574
15940SOL     OW49716   6.339   8.399   6.110
15940SOL    HW149717   6.332   8.484   6.153
15940SOL    HW249718   6.353   8.337   6.181
15941SOL     OW49719   5.219   2.861   0.495
15941SOL    HW149720   5.264   2.783   0.463
15941SOL    HW249721   5.128   2.833   0.508
15942SOL     OW49722   8.061   6.536   8.640
15942SOL    HW149723   7.993   6.482   8.600
15942SOL    HW249724   8.141   6.482   8.635
15943SOL     OW49725   0.889   4.574   8.363
15943SOL    HW149726   0.815   4.631   8.346
15943SOL    HW249727   0.870   4.534   8.448
15944SOL     OW49728   4.735  12.055   4.318
15944SOL    HW149729   4.730  11.960   4.325
15944SOL    HW249730   4.646  12.083   4.299
15945SOL     OW49731   9.522  12.511   1.691
15945SOL    HW149732   9.567  12.594   1.675
15945SOL    HW249733   9.500  12.514   1.785
15946SOL     OW49734   1.179   3.919   5.630
15946SOL    HW149735   1.176   3.928   5.535
15946SOL    HW249736   1.163   4.007   5.663
15947SOL     OW49737  14.870   9.348  13.629
15947SOL    HW149738  14.803   9.415  13.644
15947SOL    HW249739   0.054   9.356  13.704
15948SOL     OW49740   2.642   2.774  12.624
15948SOL    HW149741   2.580   2.809  12.560
15948SOL    HW249742   2.595   2.701  12.665
15949SOL     OW49743   0.576   7.194  11.040
15949SOL    HW149744   0.581   7.188  11.135
15949SOL    HW249745   0.482   7.193  11.021
15950SOL     OW49746   9.128   1.801   6.376
15950SOL    HW149747   9.039   1.836   6.378
15950SOL    HW249748   9.139   1.770   6.286
15951SOL     OW49749   7.210   9.415  13.314
15951SOL    HW149750   7.201   9.345  13.249
15951SOL    HW249751   7.253   9.486  13.267
15952SOL     OW49752   3.599   8.516  10.475
15952SOL    HW149753   3.524   8.478  10.430
15952SOL    HW249754   3.657   8.546  10.405
15953SOL     OW49755  11.504   6.030  13.542
15953SOL    HW149756  11.519   6.124  13.539
15953SOL    HW249757  11.558   5.999  13.614
15954SOL     OW49758  12.665   1.630   7.927
15954SOL    HW149759  12.743   1.629   7.982
15954SOL    HW249760  12.677   1.558   7.866
15955SOL     OW49761   1.283   5.246   7.281
15955SOL    HW149762   1.230   5.198   7.345
15955SOL    HW249763   1.222   5.266   7.210
15956SOL     OW49764   0.647   0.039   7.461
15956SOL    HW149765   0.719  14.852   7.460
15956SOL    HW249766   0.571  14.862   7.487
15957SOL     OW49767   7.123   0.224  12.496
15957SOL    HW149768   7.089   0.311  12.474
15957SOL    HW249769   7.216   0.228  12.472
15958SOL     OW49770  12.613  13.788   7.971
15958SOL    HW149771  12.627  13.701   8.009
15958SOL    HW249772  12.522  13.808   7.993
15959SOL     OW49773  13.134   8.839   4.779
15959SOL    HW149774  13.166   8.926   4.804
15959SOL    HW249775  13.138   8.838   4.684
15960SOL     OW49776   1.537   7.709  10.675
15960SOL    HW149777   1.567   7.645  10.739
15960SOL    HW249778   1.569   7.675  10.591
15961SOL     OW49779  12.323  10.256   5.340
15961SOL    HW149780  12.285  10.342   5.327
15961SOL    HW249781  12.387  10.268   5.410
15962SOL     OW49782   0.039  14.461   2.401
15962SOL    HW149783   0.025  14.438   2.309
15962SOL    HW249784   0.056  14.555   2.400
15963SOL     OW49785   1.002  12.960   7.021
15963SOL    HW149786   1.015  12.870   6.989
15963SOL    HW249787   0.910  12.961   7.049
15964SOL     OW49788   7.170   0.720   6.509
15964SOL    HW149789   7.204   0.709   6.598
15964SOL    HW249790   7.182   0.634   6.468
15965SOL     OW49791  13.950   2.534   5.538
15965SOL    HW149792  13.914   2.536   5.450
15965SOL    HW249793  13.918   2.615   5.579
15966SOL     OW49794   0.419  14.148   3.874
15966SOL    HW149795   0.349  14.093   3.838
15966SOL    HW249796   0.439  14.210   3.804
15967SOL     OW49797   1.219   3.606   9.996
15967SOL    HW149798   1.292   3.552  10.026
15967SOL    HW249799   1.211   3.675  10.062
15968SOL     OW49800  13.080  11.020  11.028
15968SOL    HW149801  13.008  11.027  11.090
15968SOL    HW249802  13.150  11.073  11.066
15969SOL     OW49803  10.250  10.909  10.986
15969SOL    HW149804  10.278  10.867  10.904
15969SOL    HW249805  10.155  10.909  10.981
15970SOL     OW49806   8.724   4.626   0.517
15970SOL    HW149807   8.638   4.594   0.490
15970SOL    HW249808   8.755   4.561   0.580
15971SOL     OW49809   0.200  14.784   3.651
15971SOL    HW149810   0.226  14.692   3.639
15971SOL    HW249811   0.104  14.781   3.656
15972SOL     OW49812  10.505  11.279  14.739
15972SOL    HW149813  10.529  11.259  14.830
15972SOL    HW249814  10.508  11.195  14.695
15973SOL     OW49815  11.108  12.817   0.994
15973SOL    HW149816  11.108  12.829   0.899
15973SOL    HW249817  11.182  12.869   1.025
15974SOL     OW49818   4.892   4.442  11.079
15974SOL    HW149819   4.844   4.367  11.113
15974SOL    HW249820   4.964   4.404  11.029
15975SOL     OW49821  13.211  11.486   7.923
15975SOL    HW149822  13.189  11.482   7.830
15975SOL    HW249823  13.149  11.426   7.965
15976SOL     OW49824   7.181  11.223   7.878
15976SOL    HW149825   7.275  11.207   7.888
15976SOL    HW249826   7.170  11.314   7.905
15977SOL     OW49827   2.020   3.913  13.861
15977SOL    HW149828   2.035   3.986  13.921
15977SOL    HW249829   2.100   3.862  13.864
15978SOL     OW49830  14.184   8.322  11.364
15978SOL    HW149831  14.151   8.321  11.274
15978SOL    HW249832  14.121   8.269  11.413
15979SOL     OW49833   2.564   4.581  11.608
15979SOL    HW149834   2.524   4.668  11.602
15979SOL    HW249835   2.606   4.580  11.694
15980SOL     OW49836  13.100   3.145   3.721
15980SOL    HW149837  13.067   3.144   3.631
15980SOL    HW249838  13.170   3.079   3.721
15981SOL     OW49839  11.303  11.314  13.816
15981SOL    HW149840  11.220  11.267  13.806
15981SOL    HW249841  11.320  11.351  13.729
15982SOL     OW49842  10.667  10.652   2.545
15982SOL    HW149843  10.748  10.663   2.495
15982SOL    HW249844  10.682  10.575   2.600
15983SOL     OW49845   3.899   2.442   6.863
15983SOL    HW149846   3.816   2.416   6.903
15983SOL    HW249847   3.879   2.453   6.770
15984SOL     OW49848   9.989   1.360   9.352
15984SOL    HW149849  10.019   1.387   9.439
15984SOL    HW249850   9.904   1.320   9.369
15985SOL     OW49851   7.952   4.628   4.170
15985SOL    HW149852   7.985   4.550   4.126
15985SOL    HW249853   7.862   4.638   4.137
15986SOL     OW49854  13.406   7.146  12.316
15986SOL    HW149855  13.496   7.165  12.289
15986SOL    HW249856  13.408   7.053  12.340
15987SOL     OW49857  13.666   7.155  12.260
15987SOL    HW149858  13.717   7.126  12.335
15987SOL    HW249859  13.724   7.214  12.212
15988SOL     OW49860   9.413   4.527  13.146
15988SOL    HW149861   9.331   4.559  13.109
15988SOL    HW249862   9.474   4.600  13.136
15989SOL     OW49863   4.534  13.289   8.880
15989SOL    HW149864   4.496  13.250   8.802
15989SOL    HW249865   4.612  13.236   8.898
15990SOL     OW49866   2.998   4.417  14.758
15990SOL    HW149867   2.973   4.331  14.725
15990SOL    HW249868   3.006   4.405  14.853
15991SOL     OW49869   2.262   6.811   3.576
15991SOL    HW149870   2.325   6.806   3.503
15991SOL    HW249871   2.265   6.903   3.603
15992SOL     OW49872   6.634   1.325   5.851
15992SOL    HW149873   6.728   1.304   5.846
15992SOL    HW249874   6.628   1.390   5.921
15993SOL     OW49875  14.858   2.648   4.673
15993SOL    HW149876  14.795   2.604   4.616
15993SOL    HW249877   0.056   2.669   4.616
15994SOL     OW49878   4.079  12.065   0.331
15994SOL    HW149879   4.082  11.978   0.371
15994SOL    HW249880   3.995  12.068   0.286
15995SOL     OW49881   7.948  10.541   8.053
15995SOL    HW149882   7.967  10.522   7.962
15995SOL    HW249883   8.027  10.514   8.100
15996SOL     OW49884   0.616  12.703  13.599
15996SOL    HW149885   0.687  12.692  13.536
15996SOL    HW249886   0.636  12.784  13.645
15997SOL     OW49887   3.680   7.631   8.369
15997SOL    HW149888   3.757   7.592   8.329
15997SOL    HW249889   3.664   7.579   8.448
15998SOL     OW49890  12.853  13.277   9.730
15998SOL    HW149891  12.796  13.201   9.742
15998SOL    HW249892  12.866  13.311   9.819
15999SOL     OW49893  14.772   7.661   3.109
15999SOL    HW149894  14.815   7.676   3.193
15999SOL    HW249895  14.703   7.598   3.129
16000SOL     OW49896  12.861   8.940   4.281
16000SOL    HW149897  12.806   8.904   4.350
16000SOL    HW249898  12.846   9.035   4.285
16001SOL     OW49899  11.416  10.486   2.523
16001SOL    HW149900  11.473  10.427   2.474
16001SOL    HW249901  11.436  10.573   2.487
16002SOL     OW49902   9.062   0.823   9.102
16002SOL    HW149903   9.000   0.828   9.175
16002SOL    HW249904   9.091   0.913   9.089
16003SOL     OW49905   7.948   3.169  12.600
16003SOL    HW149906   7.906   3.255  12.604
16003SOL    HW249907   8.042   3.188  12.598
16004SOL     OW49908   7.408   8.906  11.344
16004SOL    HW149909   7.379   8.943  11.428
16004SOL    HW249910   7.335   8.924  11.284
16005SOL     OW49911   7.889   8.194   2.662
16005SOL    HW149912   7.956   8.171   2.727
16005SOL    HW249913   7.894   8.290   2.656
16006SOL     OW49914   1.409   2.467  12.959
16006SOL    HW149915   1.379   2.429  13.042
16006SOL    HW249916   1.495   2.428  12.944
16007SOL     OW49917   5.620  13.093   5.809
16007SOL    HW149918   5.617  13.170   5.753
16007SOL    HW249919   5.575  13.119   5.890
16008SOL     OW49920   1.943   3.137  10.250
16008SOL    HW149921   1.994   3.076  10.302
16008SOL    HW249922   2.008   3.197  10.212
16009SOL     OW49923  13.169   0.683   8.044
16009SOL    HW149924  13.102   0.671   7.976
16009SOL    HW249925  13.178   0.777   8.052
16010SOL     OW49926   8.799  13.275   1.157
16010SOL    HW149927   8.880  13.279   1.106
16010SOL    HW249928   8.809  13.196   1.210
16011SOL     OW49929  14.463  10.416   1.452
16011SOL    HW149930  14.456  10.346   1.517
16011SOL    HW249931  14.449  10.496   1.501
16012SOL     OW49932  10.899  10.756   4.645
16012SOL    HW149933  10.874  10.676   4.600
16012SOL    HW249934  10.990  10.741   4.672
16013SOL     OW49935   9.040  10.278  14.179
16013SOL    HW149936   9.072  10.293  14.090
16013SOL    HW249937   9.080  10.196  14.206
16014SOL     OW49938   1.349   8.596   5.874
16014SOL    HW149939   1.345   8.519   5.818
16014SOL    HW249940   1.440   8.602   5.900
16015SOL     OW49941   7.077   7.908   0.635
16015SOL    HW149942   7.158   7.905   0.584
16015SOL    HW249943   7.008   7.914   0.569
16016SOL     OW49944   9.950  14.102   8.175
16016SOL    HW149945   9.913  14.191   8.171
16016SOL    HW249946   9.920  14.060   8.094
16017SOL     OW49947   3.992  14.526   3.816
16017SOL    HW149948   3.989  14.617   3.843
16017SOL    HW249949   4.085  14.505   3.810
16018SOL     OW49950   0.526  11.236   6.744
16018SOL    HW149951   0.575  11.316   6.727
16018SOL    HW249952   0.575  11.167   6.699
16019SOL     OW49953   7.948   9.159  11.501
16019SOL    HW149954   7.899   9.095  11.449
16019SOL    HW249955   7.971   9.228  11.438
16020SOL     OW49956   8.488  10.583  10.262
16020SOL    HW149957   8.546  10.645  10.216
16020SOL    HW249958   8.547  10.516  10.295
16021SOL     OW49959   3.305  12.301   3.812
16021SOL    HW149960   3.369  12.361   3.774
16021SOL    HW249961   3.353  12.219   3.825
16022SOL     OW49962   8.379  13.328  13.770
16022SOL    HW149963   8.307  13.288  13.819
16022SOL    HW249964   8.345  13.336  13.681
16023SOL     OW49965  13.736   0.510   3.683
16023SOL    HW149966  13.669   0.578   3.671
16023SOL    HW249967  13.764   0.487   3.595
16024SOL     OW49968  11.320  11.770   6.830
16024SOL    HW149969  11.315  11.780   6.925
16024SOL    HW249970  11.369  11.847   6.800
16025SOL     OW49971  13.080   0.166  12.130
16025SOL    HW149972  12.998   0.166  12.081
16025SOL    HW249973  13.060   0.120  12.212
16026SOL     OW49974  13.846  10.927   2.470
16026SOL    HW149975  13.752  10.912   2.461
16026SOL    HW249976  13.885  10.841   2.456
16027SOL     OW49977   3.658   7.245   9.376
16027SOL    HW149978   3.689   7.268   9.463
16027SOL    HW249979   3.598   7.316   9.352
16028SOL     OW49980   9.973   2.596   4.266
16028SOL    HW149981   9.923   2.540   4.206
16028SOL    HW249982   9.925   2.593   4.348
16029SOL     OW49983   1.533   3.294  11.996
16029SOL    HW149984   1.615   3.317  12.040
16029SOL    HW249985   1.479   3.256  12.065
16030SOL     OW49986   1.681   2.477  11.192
16030SOL    HW149987   1.625   2.415  11.237
16030SOL    HW249988   1.694   2.439  11.105
16031SOL     OW49989   3.860   7.277   7.191
16031SOL    HW149990   3.920   7.216   7.149
16031SOL    HW249991   3.916   7.345   7.228
16032SOL     OW49992  13.286   0.695  14.297
16032SOL    HW149993  13.326   0.772  14.338
16032SOL    HW249994  13.267   0.724  14.207
16033SOL     OW49995  11.609   3.291   0.061
16033SOL    HW149996  11.608   3.387   0.058
16033SOL    HW249997  11.571   3.270   0.146
16034SOL     OW49998  14.226  13.989  10.721
16034SOL    HW149999  14.137  14.015  10.745
16034SOL    HW250000  14.283  14.046  10.773
16035SOL     OW50001   0.314   1.098   8.048
16035SOL    HW150002   0.262   1.148   7.986
16035SOL    HW250003   0.325   1.012   8.006
16036SOL     OW50004  14.154   0.812   4.163
16036SOL    HW150005  14.151   0.716   4.161
16036SOL    HW250006  14.127   0.835   4.252
16037SOL     OW50007   1.639  12.843   9.989
16037SOL    HW150008   1.726  12.882   9.980
16037SOL    HW250009   1.586  12.910  10.030
16038SOL     OW50010   8.966   7.121  10.142
16038SOL    HW150011   8.872   7.116  10.128
16038SOL    HW250012   9.003   7.056  10.082
16039SOL     OW50013  13.421   9.091  13.993
16039SOL    HW150014  13.373   9.165  13.957
16039SOL    HW250015  13.506   9.127  14.017
16040SOL     OW50016  14.512  13.861   0.206
16040SOL    HW150017  14.528  13.789   0.144
16040SOL    HW250018  14.578  13.927   0.185
16041SOL     OW50019   1.067   9.044   1.625
16041SOL    HW150020   1.155   9.080   1.616
16041SOL    HW250021   1.059   9.024   1.719
16042SOL     OW50022  11.023  14.072   3.284
16042SOL    HW150023  11.026  14.167   3.297
16042SOL    HW250024  11.102  14.052   3.233
16043SOL     OW50025   5.605   7.509  12.836
16043SOL    HW150026   5.656   7.520  12.756
16043SOL    HW250027   5.653   7.443  12.887
16044SOL     OW50028   1.882  10.482   0.177
16044SOL    HW150029   1.804  10.427   0.171
16044SOL    HW250030   1.894  10.497   0.271
16045SOL     OW50031  13.060  11.632   6.439
16045SOL    HW150032  12.991  11.690   6.406
16045SOL    HW250033  13.141  11.682   6.426
16046SOL     OW50034   1.217  11.403   5.681
16046SOL    HW150035   1.211  11.476   5.618
16046SOL    HW250036   1.181  11.439   5.762
16047SOL     OW50037   3.894   6.982   4.348
16047SOL    HW150038   3.804   7.014   4.347
16047SOL    HW250039   3.946   7.055   4.314
16048SOL     OW50040   2.671   6.792   6.969
16048SOL    HW150041   2.699   6.819   6.882
16048SOL    HW250042   2.684   6.697   6.970
16049SOL     OW50043   3.799   7.478   7.493
16049SOL    HW150044   3.710   7.446   7.482
16049SOL    HW250045   3.799   7.525   7.577
16050SOL     OW50046   4.961   3.218  11.500
16050SOL    HW150047   5.044   3.243  11.540
16050SOL    HW250048   4.904   3.293  11.514
16051SOL     OW50049  12.010   9.797  10.280
16051SOL    HW150050  11.927   9.779  10.235
16051SOL    HW250051  12.045   9.711  10.301
16052SOL     OW50052  11.444   6.103   2.154
16052SOL    HW150053  11.392   6.028   2.126
16052SOL    HW250054  11.434   6.167   2.084
16053SOL     OW50055   5.037   9.147   0.763
16053SOL    HW150056   5.100   9.108   0.702
16053SOL    HW250057   5.087   9.163   0.843
16054SOL     OW50058   4.905   0.598   1.870
16054SOL    HW150059   4.973   0.663   1.888
16054SOL    HW250060   4.837   0.615   1.935
16055SOL     OW50061   7.602   1.037   2.036
16055SOL    HW150062   7.576   0.979   2.108
16055SOL    HW250063   7.647   0.980   1.974
16056SOL     OW50064   7.201  10.106  12.703
16056SOL    HW150065   7.130  10.164  12.676
16056SOL    HW250066   7.180  10.082  12.793
16057SOL     OW50067  12.320   6.591  13.752
16057SOL    HW150068  12.283   6.653  13.690
16057SOL    HW250069  12.292   6.624  13.838
16058SOL     OW50070  12.244   4.113  14.703
16058SOL    HW150071  12.331   4.085  14.731
16058SOL    HW250072  12.245   4.208  14.713
16059SOL     OW50073   4.571   7.278   0.559
16059SOL    HW150074   4.598   7.186   0.559
16059SOL    HW250075   4.528   7.291   0.644
16060SOL     OW50076  10.130   5.165   4.786
16060SOL    HW150077  10.146   5.073   4.767
16060SOL    HW250078  10.039   5.179   4.759
16061SOL     OW50079   7.966   9.183   9.085
16061SOL    HW150080   8.043   9.239   9.087
16061SOL    HW250081   7.997   9.099   9.120
16062SOL     OW50082   4.131   0.347  11.279
16062SOL    HW150083   4.127   0.437  11.311
16062SOL    HW250084   4.200   0.347  11.214
16063SOL     OW50085  13.389   1.396  13.395
16063SOL    HW150086  13.318   1.353  13.443
16063SOL    HW250087  13.376   1.369  13.304
16064SOL     OW50088  12.032   9.928   6.264
16064SOL    HW150089  12.036   9.917   6.359
16064SOL    HW250090  11.957   9.874   6.237
16065SOL     OW50091   7.392  13.237  12.982
16065SOL    HW150092   7.406  13.295  13.058
16065SOL    HW250093   7.474  13.187  12.976
16066SOL     OW50094   5.093  14.568  14.235
16066SOL    HW150095   5.177  14.611  14.220
16066SOL    HW250096   5.093  14.493  14.176
16067SOL     OW50097  10.712   7.561   1.204
16067SOL    HW150098  10.659   7.481   1.203
16067SOL    HW250099  10.733   7.577   1.112
16068SOL     OW50100  10.500  12.834   3.228
16068SOL    HW150101  10.495  12.925   3.199
16068SOL    HW250102  10.429  12.825   3.291
16069SOL     OW50103   6.346   1.823   1.004
16069SOL    HW150104   6.367   1.755   0.939
16069SOL    HW250105   6.419   1.884   0.999
16070SOL     OW50106   5.682  14.335   6.865
16070SOL    HW150107   5.640  14.265   6.815
16070SOL    HW250108   5.611  14.393   6.891
16071SOL     OW50109   1.276   9.507   5.262
16071SOL    HW150110   1.213   9.439   5.283
16071SOL    HW250111   1.232   9.589   5.282
16072SOL     OW50112   4.021  13.755   0.846
16072SOL    HW150113   4.001  13.842   0.811
16072SOL    HW250114   3.939  13.706   0.839
16073SOL     OW50115   6.301   4.647   1.218
16073SOL    HW150116   6.368   4.579   1.222
16073SOL    HW250117   6.332   4.715   1.278
16074SOL     OW50118   6.772  11.161   1.980
16074SOL    HW150119   6.789  11.084   1.925
16074SOL    HW250120   6.852  11.213   1.973
16075SOL     OW50121  11.520   0.565  11.674
16075SOL    HW150122  11.444   0.545  11.620
16075SOL    HW250123  11.595   0.549  11.617
16076SOL     OW50124   9.521  11.533   7.722
16076SOL    HW150125   9.613  11.517   7.743
16076SOL    HW250126   9.498  11.463   7.661
16077SOL     OW50127   5.669   4.732  11.361
16077SOL    HW150128   5.619   4.812  11.377
16077SOL    HW250129   5.615   4.662  11.397
16078SOL     OW50130  10.006  13.940   7.395
16078SOL    HW150131  10.069  13.977   7.457
16078SOL    HW250132  10.026  13.983   7.312
16079SOL     OW50133  14.203   6.041   1.166
16079SOL    HW150134  14.178   5.965   1.217
16079SOL    HW250135  14.200   6.011   1.075
16080SOL     OW50136   4.588  10.486   2.045
16080SOL    HW150137   4.551  10.465   1.960
16080SOL    HW250138   4.598  10.582   2.044
16081SOL     OW50139   7.346  10.038   5.778
16081SOL    HW150140   7.419  10.094   5.752
16081SOL    HW250141   7.381   9.949   5.772
16082SOL     OW50142  13.858  13.579   2.507
16082SOL    HW150143  13.920  13.602   2.576
16082SOL    HW250144  13.887  13.628   2.430
16083SOL     OW50145   5.299   5.539  11.352
16083SOL    HW150146   5.282   5.451  11.384
16083SOL    HW250147   5.284   5.535  11.258
16084SOL     OW50148  14.651   1.131   2.419
16084SOL    HW150149  14.564   1.148   2.382
16084SOL    HW250150  14.703   1.208   2.394
16085SOL     OW50151   7.281   9.756   9.723
16085SOL    HW150152   7.239   9.714   9.649
16085SOL    HW250153   7.332   9.686   9.764
16086SOL     OW50154   9.617  12.070  12.609
16086SOL    HW150155   9.593  12.124  12.685
16086SOL    HW250156   9.613  12.130  12.535
16087SOL     OW50157  11.310   5.444   9.597
16087SOL    HW150158  11.282   5.505   9.528
16087SOL    HW250159  11.248   5.371   9.591
16088SOL     OW50160  11.042  12.090  11.443
16088SOL    HW150161  11.080  12.131  11.521
16088SOL    HW250162  10.994  12.015  11.476
16089SOL     OW50163   1.009   8.373   6.730
16089SOL    HW150164   0.958   8.303   6.690
16089SOL    HW250165   0.944   8.432   6.768
16090SOL     OW50166  10.646  14.543   0.336
16090SOL    HW150167  10.690  14.520   0.418
16090SOL    HW250168  10.625  14.459   0.296
16091SOL     OW50169   0.973   6.528   3.461
16091SOL    HW150170   0.882   6.547   3.483
16091SOL    HW250171   1.014   6.509   3.545
16092SOL     OW50172   9.414   5.096   4.094
16092SOL    HW150173   9.361   5.019   4.072
16092SOL    HW250174   9.412   5.100   4.189
16093SOL     OW50175  10.728  10.276  14.769
16093SOL    HW150176  10.746  10.201  14.827
16093SOL    HW250177  10.768  10.251  14.686
16094SOL     OW50178   6.883  14.153  14.283
16094SOL    HW150179   6.897  14.247  14.279
16094SOL    HW250180   6.788  14.141  14.274
16095SOL     OW50181   1.039   3.566   0.418
16095SOL    HW150182   1.034   3.567   0.514
16095SOL    HW250183   0.959   3.521   0.391
16096SOL     OW50184   2.370   4.126  12.274
16096SOL    HW150185   2.461   4.151  12.261
16096SOL    HW250186   2.370   4.075  12.355
16097SOL     OW50187   5.034   9.790   5.972
16097SOL    HW150188   5.021   9.853   5.902
16097SOL    HW250189   4.960   9.729   5.965
16098SOL     OW50190   8.305   8.348  12.569
16098SOL    HW150191   8.361   8.426  12.564
16098SOL    HW250192   8.347   8.285  12.510
16099SOL     OW50193   4.721  13.970  14.596
16099SOL    HW150194   4.646  13.954  14.538
16099SOL    HW250195   4.711  14.061  14.624
16100SOL     OW50196   5.118  14.180   0.234
16100SOL    HW150197   5.043  14.171   0.175
16100SOL    HW250198   5.181  14.231   0.183
16101SOL     OW50199  10.297   1.888  14.341
16101SOL    HW150200  10.245   1.959  14.301
16101SOL    HW250201  10.386   1.904  14.311
16102SOL     OW50202   2.367   5.267  11.152
16102SOL    HW150203   2.404   5.265  11.064
16102SOL    HW250204   2.274   5.285  11.138
16103SOL     OW50205   2.603   0.851   4.024
16103SOL    HW150206   2.542   0.921   4.005
16103SOL    HW250207   2.660   0.887   4.092
16104SOL     OW50208   4.443  13.402  12.157
16104SOL    HW150209   4.396  13.408  12.240
16104SOL    HW250210   4.393  13.458  12.097
16105SOL     OW50211   4.202  11.847   6.953
16105SOL    HW150212   4.217  11.890   6.868
16105SOL    HW250213   4.287  11.852   6.997
16106SOL     OW50214   6.276   5.541   8.674
16106SOL    HW150215   6.326   5.515   8.751
16106SOL    HW250216   6.257   5.459   8.628
16107SOL     OW50217  14.305   3.491  10.689
16107SOL    HW150218  14.247   3.521  10.759
16107SOL    HW250219  14.373   3.558  10.682
16108SOL     OW50220   3.954  13.372  14.486
16108SOL    HW150221   4.050  13.379  14.485
16108SOL    HW250222   3.930  13.392  14.576
16109SOL     OW50223  10.930  14.418   0.227
16109SOL    HW150224  10.940  14.431   0.321
16109SOL    HW250225  11.015  14.385   0.197
16110SOL     OW50226  12.488  14.220   8.485
16110SOL    HW150227  12.493  14.312   8.462
16110SOL    HW250228  12.580  14.193   8.496
16111SOL     OW50229   5.615   2.908   6.741
16111SOL    HW150230   5.702   2.890   6.778
16111SOL    HW250231   5.565   2.829   6.757
16112SOL     OW50232   0.189   8.639   1.889
16112SOL    HW150233   0.220   8.677   1.971
16112SOL    HW250234   0.248   8.565   1.873
16113SOL     OW50235   4.757   9.241  11.708
16113SOL    HW150236   4.732   9.288  11.628
16113SOL    HW250237   4.763   9.149  11.681
16114SOL     OW50238   6.859  12.838  10.404
16114SOL    HW150239   6.813  12.916  10.375
16114SOL    HW250240   6.801  12.765  10.381
16115SOL     OW50241   6.171   1.597   9.239
16115SOL    HW150242   6.239   1.617   9.304
16115SOL    HW250243   6.203   1.519   9.195
16116SOL     OW50244  12.394  12.572   0.002
16116SOL    HW150245  12.466  12.629  14.851
16116SOL    HW250246  12.334  12.573  14.803
16117SOL     OW50247   5.978  11.777   3.149
16117SOL    HW150248   5.988  11.862   3.105
16117SOL    HW250249   5.961  11.799   3.240
16118SOL     OW50250   3.572  12.668   4.401
16118SOL    HW150251   3.500  12.674   4.338
16118SOL    HW250252   3.566  12.749   4.452
16119SOL     OW50253  14.781   1.641   8.171
16119SOL    HW150254  14.705   1.628   8.227
16119SOL    HW250255  14.745   1.667   8.087
16120SOL     OW50256  12.083   5.144   2.919
16120SOL    HW150257  12.042   5.142   2.833
16120SOL    HW250258  12.148   5.073   2.917
16121SOL     OW50259  11.359  12.690   4.708
16121SOL    HW150260  11.416  12.615   4.693
16121SOL    HW250261  11.393  12.732   4.787
16122SOL     OW50262   6.914   7.389   8.472
16122SOL    HW150263   6.982   7.323   8.485
16122SOL    HW250264   6.943   7.465   8.522
16123SOL     OW50265   6.807   5.192  10.169
16123SOL    HW150266   6.855   5.254  10.223
16123SOL    HW250267   6.871   5.123  10.150
16124SOL     OW50268   1.568   7.405   3.147
16124SOL    HW150269   1.487   7.410   3.096
16124SOL    HW250270   1.585   7.496   3.173
16125SOL     OW50271   3.075  12.860   6.642
16125SOL    HW150272   3.169  12.852   6.659
16125SOL    HW250273   3.045  12.770   6.629
16126SOL     OW50274   3.402  10.734   3.395
16126SOL    HW150275   3.313  10.730   3.359
16126SOL    HW250276   3.427  10.826   3.389
16127SOL     OW50277  10.135   3.088  10.275
16127SOL    HW150278  10.059   3.032  10.262
16127SOL    HW250279  10.173   3.059  10.357
16128SOL     OW50280   7.048   2.682   0.378
16128SOL    HW150281   7.076   2.627   0.451
16128SOL    HW250282   6.954   2.667   0.372
16129SOL     OW50283   5.061   1.830   3.263
16129SOL    HW150284   4.975   1.863   3.290
16129SOL    HW250285   5.044   1.786   3.180
16130SOL     OW50286  14.274  10.385   9.391
16130SOL    HW150287  14.360  10.405   9.429
16130SOL    HW250288  14.219  10.361   9.465
16131SOL     OW50289   3.486   9.893   1.057
16131SOL    HW150290   3.432   9.889   0.979
16131SOL    HW250291   3.492   9.987   1.077
16132SOL     OW50292  13.723   2.470  11.754
16132SOL    HW150293  13.785   2.540  11.735
16132SOL    HW250294  13.658   2.476  11.685
16133SOL     OW50295   9.333  12.819   7.962
16133SOL    HW150296   9.399  12.878   7.926
16133SOL    HW250297   9.255  12.873   7.971
16134SOL     OW50298   5.761   5.183   0.100
16134SOL    HW150299   5.825   5.254   0.111
16134SOL    HW250300   5.688   5.224   0.052
16135SOL     OW50301  10.660  12.861   1.290
16135SOL    HW150302  10.596  12.792   1.272
16135SOL    HW250303  10.622  12.911   1.362
16136SOL     OW50304  14.605   8.820  14.788
16136SOL    HW150305  14.597   8.747  14.727
16136SOL    HW250306  14.534   8.880  14.763
16137SOL     OW50307  10.539   3.739   6.148
16137SOL    HW150308  10.491   3.814   6.183
16137SOL    HW250309  10.625   3.744   6.190
16138SOL     OW50310  13.230   3.366   0.930
16138SOL    HW150311  13.288   3.353   1.006
16138SOL    HW250312  13.147   3.325   0.956
16139SOL     OW50313   7.445  10.422   4.808
16139SOL    HW150314   7.475  10.432   4.718
16139SOL    HW250315   7.522  10.392   4.857
16140SOL     OW50316   3.849   8.924   6.645
16140SOL    HW150317   3.884   8.858   6.704
16140SOL    HW250318   3.864   8.888   6.557
16141SOL     OW50319  11.126  12.184  12.302
16141SOL    HW150320  11.188  12.248  12.267
16141SOL    HW250321  11.061  12.173  12.232
16142SOL     OW50322   7.215   1.334   9.994
16142SOL    HW150323   7.127   1.360   9.966
16142SOL    HW250324   7.264   1.326   9.912
16143SOL     OW50325   3.569  11.009   3.094
16143SOL    HW150326   3.578  11.079   3.029
16143SOL    HW250327   3.641  10.949   3.076
16144SOL     OW50328   3.119   3.764  12.944
16144SOL    HW150329   3.075   3.763  12.859
16144SOL    HW250330   3.065   3.708  12.999
16145SOL     OW50331   9.127  13.570   7.719
16145SOL    HW150332   9.212  13.529   7.704
16145SOL    HW250333   9.147  13.654   7.761
16146SOL     OW50334   7.878   3.874   3.446
16146SOL    HW150335   7.935   3.910   3.515
16146SOL    HW250336   7.934   3.868   3.369
16147SOL     OW50337   6.285  10.438  12.250
16147SOL    HW150338   6.252  10.477  12.169
16147SOL    HW250339   6.265  10.501  12.318
16148SOL     OW50340  13.830   9.547   5.127
16148SOL    HW150341  13.781   9.494   5.191
16148SOL    HW250342  13.853   9.486   5.057
16149SOL     OW50343  11.573  12.929   1.108
16149SOL    HW150344  11.520  12.969   1.040
16149SOL    HW250345  11.603  12.846   1.070
16150SOL     OW50346   8.363   8.941  14.584
16150SOL    HW150347   8.353   9.024  14.631
16150SOL    HW250348   8.454   8.940  14.556
16151SOL     OW50349  12.278  10.842   1.261
16151SOL    HW150350  12.236  10.871   1.180
16151SOL    HW250351  12.364  10.884   1.260
16152SOL     OW50352   0.744   4.812  11.117
16152SOL    HW150353   0.827   4.766  11.132
16152SOL    HW250354   0.739   4.822  11.022
16153SOL     OW50355   4.192   6.662   3.359
16153SOL    HW150356   4.206   6.751   3.390
16153SOL    HW250357   4.260   6.649   3.293
16154SOL     OW50358  12.619   7.643  10.845
16154SOL    HW150359  12.577   7.645  10.932
16154SOL    HW250360  12.590   7.560  10.808
16155SOL     OW50361   9.471   8.551   4.579
16155SOL    HW150362   9.487   8.477   4.521
16155SOL    HW250363   9.380   8.539   4.609
16156SOL     OW50364  12.478  12.520   4.870
16156SOL    HW150365  12.502  12.570   4.948
16156SOL    HW250366  12.531  12.440   4.875
16157SOL     OW50367  10.959   0.964   9.725
16157SOL    HW150368  10.993   0.946   9.813
16157SOL    HW250369  10.930   1.055   9.728
16158SOL     OW50370  14.739   5.105  10.037
16158SOL    HW150371  14.831   5.129  10.036
16158SOL    HW250372  14.733   5.029   9.979
16159SOL     OW50373   0.184   7.587   0.217
16159SOL    HW150374   0.254   7.603   0.280
16159SOL    HW250375   0.172   7.492   0.217
16160SOL     OW50376  13.482  12.256   4.553
16160SOL    HW150377  13.428  12.331   4.580
16160SOL    HW250378  13.465  12.246   4.460
16161SOL     OW50379   5.578   9.164   3.204
16161SOL    HW150380   5.553   9.221   3.276
16161SOL    HW250381   5.605   9.082   3.246
16162SOL     OW50382   5.440   4.325   9.680
16162SOL    HW150383   5.375   4.318   9.750
16162SOL    HW250384   5.494   4.246   9.690
16163SOL     OW50385  11.283   1.962   6.554
16163SOL    HW150386  11.206   1.987   6.605
16163SOL    HW250387  11.255   1.885   6.504
16164SOL     OW50388  14.857   5.194   0.706
16164SOL    HW150389  14.845   5.192   0.801
16164SOL    HW250390  14.800   5.265   0.677
16165SOL     OW50391   4.198   6.168  13.961
16165SOL    HW150392   4.137   6.142  13.891
16165SOL    HW250393   4.266   6.101  13.958
16166SOL     OW50394   5.837   1.604  14.251
16166SOL    HW150395   5.828   1.681  14.195
16166SOL    HW250396   5.862   1.534  14.191
16167SOL     OW50397   0.505   2.102  13.283
16167SOL    HW150398   0.524   2.103  13.190
16167SOL    HW250399   0.582   2.061  13.323
16168SOL     OW50400   5.433   7.755   7.845
16168SOL    HW150401   5.413   7.662   7.857
16168SOL    HW250402   5.373   7.800   7.905
16169SOL     OW50403   4.772   9.127   4.149
16169SOL    HW150404   4.783   9.220   4.130
16169SOL    HW250405   4.683   9.120   4.183
16170SOL     OW50406  11.280   2.056   7.740
16170SOL    HW150407  11.319   1.994   7.802
16170SOL    HW250408  11.348   2.069   7.674
16171SOL     OW50409   4.721  13.934   5.043
16171SOL    HW150410   4.724  13.841   5.064
16171SOL    HW250411   4.731  13.977   5.128
16172SOL     OW50412  11.831   4.176   4.621
16172SOL    HW150413  11.896   4.176   4.550
16172SOL    HW250414  11.884   4.173   4.701
16173SOL     OW50415   4.708   6.758  13.222
16173SOL    HW150416   4.679   6.669  13.199
16173SOL    HW250417   4.628   6.802  13.251
16174SOL     OW50418   3.083  11.692  12.287
16174SOL    HW150419   3.139  11.720  12.360
16174SOL    HW250420   3.047  11.608  12.315
16175SOL     OW50421  10.436   9.675   6.185
16175SOL    HW150422  10.524   9.659   6.219
16175SOL    HW250423  10.410   9.592   6.145
16176SOL     OW50424   1.280  10.983   3.413
16176SOL    HW150425   1.193  10.990   3.452
16176SOL    HW250426   1.319  11.069   3.425
16177SOL     OW50427   9.456  12.211   3.909
16177SOL    HW150428   9.533  12.267   3.906
16177SOL    HW250429   9.433  12.205   4.001
16178SOL     OW50430   8.873  10.800   8.490
16178SOL    HW150431   8.863  10.877   8.547
16178SOL    HW250432   8.784  10.772   8.472
16179SOL     OW50433  10.460  11.726   2.660
16179SOL    HW150434  10.501  11.812   2.661
16179SOL    HW250435  10.528  11.666   2.692
16180SOL     OW50436   7.501   7.031   4.578
16180SOL    HW150437   7.582   7.076   4.553
16180SOL    HW250438   7.491   6.962   4.514
16181SOL     OW50439   1.152  14.654   5.593
16181SOL    HW150440   1.112  14.707   5.524
16181SOL    HW250441   1.100  14.574   5.595
16182SOL     OW50442  12.472   1.668   4.101
16182SOL    HW150443  12.409   1.611   4.057
16182SOL    HW250444  12.557   1.643   4.063
16183SOL     OW50445   4.628   3.973  13.313
16183SOL    HW150446   4.614   4.030  13.237
16183SOL    HW250447   4.721   3.980  13.332
16184SOL     OW50448   5.845  10.966   7.855
16184SOL    HW150449   5.938  10.977   7.875
16184SOL    HW250450   5.838  10.876   7.823
16185SOL     OW50451   0.382  10.397  10.170
16185SOL    HW150452   0.286  10.400  10.178
16185SOL    HW250453   0.408  10.488  10.158
16186SOL     OW50454  14.592   5.121   4.956
16186SOL    HW150455  14.587   5.092   5.047
16186SOL    HW250456  14.548   5.051   4.907
16187SOL     OW50457   5.155   5.734   1.874
16187SOL    HW150458   5.160   5.649   1.832
16187SOL    HW250459   5.115   5.716   1.959
16188SOL     OW50460  10.159  14.867   2.456
16188SOL    HW150461  10.169  14.832   2.544
16188SOL    HW250462  10.214   0.069   2.454
16189SOL     OW50463  12.917   8.472  12.487
16189SOL    HW150464  12.867   8.554  12.494
16189SOL    HW250465  13.000   8.498  12.449
16190SOL     OW50466   8.736  10.073   3.980
16190SOL    HW150467   8.760  10.040   4.067
16190SOL    HW250468   8.782  10.156   3.972
16191SOL     OW50469   4.835  11.892   1.086
16191SOL    HW150470   4.787  11.883   1.168
16191SOL    HW250471   4.913  11.943   1.109
16192SOL     OW50472   5.511   1.930   7.183
16192SOL    HW150473   5.424   1.906   7.152
16192SOL    HW250474   5.523   1.878   7.263
16193SOL     OW50475   4.882  11.321   4.752
16193SOL    HW150476   4.978  11.327   4.742
16193SOL    HW250477   4.853  11.275   4.673
16194SOL     OW50478   0.542   2.173   3.777
16194SOL    HW150479   0.566   2.136   3.862
16194SOL    HW250480   0.558   2.267   3.787
16195SOL     OW50481   6.812   0.004  13.624
16195SOL    HW150482   6.906   0.018  13.609
16195SOL    HW250483   6.806  14.856  13.717
16196SOL     OW50484   1.586   8.221  11.616
16196SOL    HW150485   1.544   8.182  11.540
16196SOL    HW250486   1.520   8.215  11.685
16197SOL     OW50487   4.444  11.770   4.557
16197SOL    HW150488   4.413  11.714   4.628
16197SOL    HW250489   4.364  11.807   4.519
16198SOL     OW50490   5.158   6.258  14.224
16198SOL    HW150491   5.209   6.323  14.177
16198SOL    HW250492   5.221   6.194  14.255
16199SOL     OW50493   5.272   0.025  13.078
16199SOL    HW150494   5.350   0.025  13.134
16199SOL    HW250495   5.228  14.817  13.097
16200SOL     OW50496   7.262   8.372   3.682
16200SOL    HW150497   7.171   8.362   3.651
16200SOL    HW250498   7.259   8.447   3.741
16201SOL     OW50499  11.748  13.100   2.478
16201SOL    HW150500  11.691  13.169   2.512
16201SOL    HW250501  11.726  13.094   2.385
16202SOL     OW50502   8.843   2.889   9.920
16202SOL    HW150503   8.923   2.865   9.967
16202SOL    HW250504   8.776   2.831   9.955
16203SOL     OW50505   5.493   0.777  13.762
16203SOL    HW150506   5.429   0.793  13.693
16203SOL    HW250507   5.566   0.734  13.719
16204SOL     OW50508   0.632  13.232   2.084
16204SOL    HW150509   0.687  13.298   2.043
16204SOL    HW250510   0.543  13.266   2.077
16205SOL     OW50511   0.933   0.661   3.275
16205SOL    HW150512   0.858   0.603   3.288
16205SOL    HW250513   0.931   0.720   3.351
16206SOL     OW50514   7.146   7.386   0.259
16206SOL    HW150515   7.160   7.480   0.244
16206SOL    HW250516   7.203   7.343   0.195
16207SOL     OW50517   7.266   1.874   4.878
16207SOL    HW150518   7.318   1.798   4.902
16207SOL    HW250519   7.254   1.867   4.783
16208SOL     OW50520   9.769   7.261   1.985
16208SOL    HW150521   9.845   7.203   1.977
16208SOL    HW250522   9.712   7.217   2.049
16209SOL     OW50523   0.892   9.698   3.498
16209SOL    HW150524   0.947   9.651   3.561
16209SOL    HW250525   0.926   9.788   3.500
16210SOL     OW50526   0.017   3.451   5.696
16210SOL    HW150527   0.041   3.402   5.617
16210SOL    HW250528  14.798   3.465   5.689
16211SOL     OW50529   9.885  12.460   4.212
16211SOL    HW150530   9.890  12.479   4.306
16211SOL    HW250531   9.845  12.539   4.175
16212SOL     OW50532   9.007   5.837   6.574
16212SOL    HW150533   8.955   5.807   6.648
16212SOL    HW250534   9.038   5.923   6.599
16213SOL     OW50535   3.630   2.900   2.816
16213SOL    HW150536   3.678   2.978   2.787
16213SOL    HW250537   3.659   2.831   2.757
16214SOL     OW50538  10.366  13.645  12.957
16214SOL    HW150539  10.327  13.655  13.044
16214SOL    HW250540  10.291  13.646  12.897
16215SOL     OW50541   2.019   7.267  11.832
16215SOL    HW150542   1.958   7.326  11.877
16215SOL    HW250543   1.963   7.216  11.773
16216SOL     OW50544   6.044  12.924   1.839
16216SOL    HW150545   6.055  13.009   1.797
16216SOL    HW250546   6.132  12.903   1.873
16217SOL     OW50547  13.705  14.457   5.192
16217SOL    HW150548  13.609  14.458   5.194
16217SOL    HW250549  13.730  14.547   5.212
16218SOL     OW50550  14.855   0.496   8.764
16218SOL    HW150551   0.043   0.483   8.693
16218SOL    HW250552   0.029   0.473   8.844
16219SOL     OW50553   9.240   2.457   0.684
16219SOL    HW150554   9.287   2.454   0.767
16219SOL    HW250555   9.274   2.534   0.639
16220SOL     OW50556   7.636  13.083   5.144
16220SOL    HW150557   7.639  13.012   5.079
16220SOL    HW250558   7.714  13.135   5.126
16221SOL     OW50559  10.129   6.109  14.657
16221SOL    HW150560  10.176   6.192  14.665
16221SOL    HW250561  10.100   6.107  14.565
16222SOL     OW50562  11.166   0.069   1.945
16222SOL    HW150563  11.174   0.043   1.853
16222SOL    HW250564  11.256   0.081   1.974
16223SOL     OW50565   8.687  11.908   0.797
16223SOL    HW150566   8.734  11.977   0.751
16223SOL    HW250567   8.715  11.827   0.754
16224SOL     OW50568  13.001  13.339   5.231
16224SOL    HW150569  12.939  13.294   5.174
16224SOL    HW250570  12.979  13.308   5.319
16225SOL     OW50571   9.017   5.818  11.460
16225SOL    HW150572   9.043   5.739  11.412
16225SOL    HW250573   8.925   5.803  11.482
16226SOL     OW50574  14.196  10.230  11.690
16226SOL    HW150575  14.199  10.306  11.748
16226SOL    HW250576  14.188  10.267  11.602
16227SOL     OW50577   0.980   8.106   6.660
16227SOL    HW150578   1.059   8.151   6.631
16227SOL    HW250579   0.949   8.060   6.581
16228SOL     OW50580  13.857   7.177  10.525
16228SOL    HW150581  13.873   7.170  10.430
16228SOL    HW250582  13.897   7.260  10.550
16229SOL     OW50583   3.368  13.672   7.821
16229SOL    HW150584   3.376  13.697   7.729
16229SOL    HW250585   3.351  13.755   7.867
16230SOL     OW50586  11.663   8.869   9.011
16230SOL    HW150587  11.586   8.876   8.954
16230SOL    HW250588  11.706   8.954   9.004
16231SOL     OW50589   0.239   4.147   3.280
16231SOL    HW150590   0.216   4.115   3.367
16231SOL    HW250591   0.252   4.241   3.293
16232SOL     OW50592   6.715   3.827   5.803
16232SOL    HW150593   6.682   3.738   5.792
16232SOL    HW250594   6.696   3.871   5.720
16233SOL     OW50595   4.093   5.109  10.003
16233SOL    HW150596   4.076   5.192  10.048
16233SOL    HW250597   4.015   5.056  10.021
16234SOL     OW50598   5.875   3.404   6.504
16234SOL    HW150599   5.805   3.347   6.535
16234SOL    HW250600   5.899   3.456   6.580
16235SOL     OW50601   1.964  11.712  10.328
16235SOL    HW150602   1.940  11.767  10.402
16235SOL    HW250603   2.011  11.638  10.366
16236SOL     OW50604  12.222  12.135   9.625
16236SOL    HW150605  12.293  12.116   9.564
16236SOL    HW250606  12.249  12.094   9.707
16237SOL     OW50607   7.397   8.200   2.415
16237SOL    HW150608   7.348   8.244   2.484
16237SOL    HW250609   7.488   8.203   2.444
16238SOL     OW50610  11.318   2.892  12.763
16238SOL    HW150611  11.372   2.897  12.684
16238SOL    HW250612  11.321   2.800  12.789
16239SOL     OW50613   1.691  14.433  11.740
16239SOL    HW150614   1.770  14.484  11.725
16239SOL    HW250615   1.669  14.450  11.832
16240SOL     OW50616   5.638  12.574  10.303
16240SOL    HW150617   5.653  12.600  10.394
16240SOL    HW250618   5.609  12.654  10.260
16241SOL     OW50619   4.114  13.156   5.305
16241SOL    HW150620   4.025  13.143   5.272
16241SOL    HW250621   4.139  13.071   5.341
16242SOL     OW50622   3.152   2.360   7.951
16242SOL    HW150623   3.142   2.278   8.000
16242SOL    HW250624   3.240   2.354   7.913
16243SOL     OW50625   7.609  10.852   6.275
16243SOL    HW150626   7.570  10.910   6.340
16243SOL    HW250627   7.703  10.855   6.294
16244SOL     OW50628   7.420   0.855   1.731
16244SOL    HW150629   7.405   0.923   1.797
16244SOL    HW250630   7.508   0.823   1.747
16245SOL     OW50631  14.200  11.898  12.128
16245SOL    HW150632  14.188  11.992  12.115
16245SOL    HW250633  14.208  11.887  12.222
16246SOL     OW50634   0.305  14.342  10.372
16246SOL    HW150635   0.308  14.271  10.307
16246SOL    HW250636   0.370  14.405  10.342
16247SOL     OW50637  13.299   5.604  12.165
16247SOL    HW150638  13.296   5.511  12.185
16247SOL    HW250639  13.391   5.621  12.143
16248SOL     OW50640   8.574   1.592   7.253
16248SOL    HW150641   8.615   1.662   7.303
16248SOL    HW250642   8.511   1.636   7.196
16249SOL     OW50643   9.861   7.426   6.171
16249SOL    HW150644   9.833   7.432   6.263
16249SOL    HW250645   9.802   7.363   6.132
16250SOL     OW50646   1.640   3.782   4.963
16250SOL    HW150647   1.598   3.751   4.882
16250SOL    HW250648   1.627   3.710   5.025
16251SOL     OW50649   5.860   4.580   4.032
16251SOL    HW150650   5.778   4.539   4.057
16251SOL    HW250651   5.840   4.626   3.950
16252SOL     OW50652  12.090   2.343   4.420
16252SOL    HW150653  12.172   2.385   4.444
16252SOL    HW250654  12.052   2.315   4.503
16253SOL     OW50655   8.263  12.512   5.444
16253SOL    HW150656   8.266  12.603   5.417
16253SOL    HW250657   8.255  12.515   5.539
16254SOL     OW50658  13.185  13.581  11.211
16254SOL    HW150659  13.108  13.526  11.199
16254SOL    HW250660  13.173  13.621  11.297
16255SOL     OW50661  13.194  10.760   5.325
16255SOL    HW150662  13.109  10.798   5.344
16255SOL    HW250663  13.235  10.747   5.411
16256SOL     OW50664  12.763   4.043  11.339
16256SOL    HW150665  12.761   4.053  11.434
16256SOL    HW250666  12.774   4.133  11.306
16257SOL     OW50667  11.469   7.525   2.816
16257SOL    HW150668  11.409   7.585   2.861
16257SOL    HW250669  11.555   7.566   2.826
16258SOL     OW50670   9.551   0.358  10.486
16258SOL    HW150671   9.488   0.291  10.512
16258SOL    HW250672   9.548   0.358  10.390
16259SOL     OW50673   4.011  13.417  10.176
16259SOL    HW150674   4.053  13.331  10.167
16259SOL    HW250675   3.919  13.397  10.196
16260SOL     OW50676  13.159   2.638  10.156
16260SOL    HW150677  13.202   2.553  10.148
16260SOL    HW250678  13.081   2.620  10.209
16261SOL     OW50679   1.876   3.283   2.290
16261SOL    HW150680   1.872   3.363   2.237
16261SOL    HW250681   1.953   3.237   2.256
16262SOL     OW50682   3.913   7.888  10.531
16262SOL    HW150683   3.828   7.900  10.574
16262SOL    HW250684   3.892   7.863  10.442
16263SOL     OW50685   7.058  14.683  12.959
16263SOL    HW150686   7.029  14.725  12.878
16263SOL    HW250687   7.081  14.756  13.017
16264SOL     OW50688   7.901   8.328   7.147
16264SOL    HW150689   7.863   8.330   7.059
16264SOL    HW250690   7.995   8.320   7.131
16265SOL     OW50691   5.157   7.021  11.979
16265SOL    HW150692   5.129   7.106  12.014
16265SOL    HW250693   5.076   6.981  11.947
16266SOL     OW50694   9.443   7.524   3.503
16266SOL    HW150695   9.377   7.518   3.572
16266SOL    HW250696   9.464   7.433   3.482
16267SOL     OW50697   5.181   4.696   1.359
16267SOL    HW150698   5.132   4.750   1.421
16267SOL    HW250699   5.261   4.746   1.342
16268SOL     OW50700   6.545   1.586   0.564
16268SOL    HW150701   6.464   1.625   0.533
16268SOL    HW250702   6.610   1.656   0.557
16269SOL     OW50703  13.032   0.743  14.587
16269SOL    HW150704  13.031   0.648  14.577
16269SOL    HW250705  13.117   0.770  14.552
16270SOL     OW50706  14.469   6.024   2.475
16270SOL    HW150707  14.458   5.937   2.512
16270SOL    HW250708  14.422   6.022   2.392
16271SOL     OW50709  12.375  12.849   0.238
16271SOL    HW150710  12.281  12.853   0.222
16271SOL    HW250711  12.393  12.756   0.254
16272SOL     OW50712  14.228   4.015   9.069
16272SOL    HW150713  14.153   3.967   9.034
16272SOL    HW250714  14.289   4.022   8.995
16273SOL     OW50715  13.836  11.546   7.601
16273SOL    HW150716  13.785  11.589   7.532
16273SOL    HW250717  13.805  11.456   7.601
16274SOL     OW50718   7.391  11.405   2.670
16274SOL    HW150719   7.342  11.375   2.746
16274SOL    HW250720   7.399  11.499   2.682
16275SOL     OW50721  11.604  14.497   5.747
16275SOL    HW150722  11.619  14.571   5.687
16275SOL    HW250723  11.678  14.500   5.808
16276SOL     OW50724   8.998   3.670   0.938
16276SOL    HW150725   9.072   3.627   0.981
16276SOL    HW250726   8.950   3.712   1.009
16277SOL     OW50727  10.669   8.524   6.514
16277SOL    HW150728  10.685   8.431   6.531
16277SOL    HW250729  10.683   8.534   6.419
16278SOL     OW50730  14.481  14.441   9.296
16278SOL    HW150731  14.450  14.414   9.382
16278SOL    HW250732  14.548  14.377   9.273
16279SOL     OW50733   1.937  14.691  14.216
16279SOL    HW150734   1.906  14.605  14.245
16279SOL    HW250735   1.975  14.674  14.130
16280SOL     OW50736   0.470   8.935   1.009
16280SOL    HW150737   0.450   8.962   1.098
16280SOL    HW250738   0.502   8.845   1.017
16281SOL     OW50739  11.606  14.271  10.233
16281SOL    HW150740  11.658  14.282  10.313
16281SOL    HW250741  11.657  14.317  10.165
16282SOL     OW50742  10.051  13.798   2.709
16282SOL    HW150743   9.965  13.808   2.669
16282SOL    HW250744  10.034  13.801   2.804
16283SOL     OW50745  14.410   0.189  13.816
16283SOL    HW150746  14.435   0.122  13.880
16283SOL    HW250747  14.422   0.147  13.731
16284SOL     OW50748   5.804  10.058   3.177
16284SOL    HW150749   5.715  10.023   3.191
16284SOL    HW250750   5.812  10.128   3.241
16285SOL     OW50751   3.310  13.904   0.854
16285SOL    HW150752   3.243  13.835   0.855
16285SOL    HW250753   3.305  13.940   0.765
16286SOL     OW50754   7.839   5.482  14.124
16286SOL    HW150755   7.850   5.440  14.039
16286SOL    HW250756   7.859   5.574  14.108
16287SOL     OW50757   3.357   1.331   8.568
16287SOL    HW150758   3.279   1.348   8.621
16287SOL    HW250759   3.431   1.342   8.627
16288SOL     OW50760  13.229   9.215  12.327
16288SOL    HW150761  13.153   9.157  12.331
16288SOL    HW250762  13.247   9.235  12.419
16289SOL     OW50763   3.946  10.272   9.903
16289SOL    HW150764   3.875  10.324   9.865
16289SOL    HW250765   4.024  10.300   9.855
16290SOL     OW50766   4.562   6.111   1.847
16290SOL    HW150767   4.541   6.084   1.936
16290SOL    HW250768   4.650   6.148   1.853
16291SOL     OW50769   3.483   6.685   5.906
16291SOL    HW150770   3.403   6.675   5.855
16291SOL    HW250771   3.453   6.691   5.997
16292SOL     OW50772  11.115   3.166   6.091
16292SOL    HW150773  11.071   3.150   6.007
16292SOL    HW250774  11.164   3.247   6.077
16293SOL     OW50775   4.350   6.422  14.185
16293SOL    HW150776   4.432   6.438  14.139
16293SOL    HW250777   4.358   6.472  14.267
16294SOL     OW50778   4.011   2.470  10.993
16294SOL    HW150779   4.016   2.561  11.023
16294SOL    HW250780   3.970   2.475  10.907
16295SOL     OW50781   6.767   3.322   9.737
16295SOL    HW150782   6.780   3.355   9.826
16295SOL    HW250783   6.699   3.256   9.746
16296SOL     OW50784   6.150  13.599  12.740
16296SOL    HW150785   6.219  13.655  12.704
16296SOL    HW250786   6.169  13.594  12.833
16297SOL     OW50787   0.533   4.051   4.239
16297SOL    HW150788   0.575   4.059   4.154
16297SOL    HW250789   0.535   4.139   4.276
16298SOL     OW50790   3.465   5.950  13.401
16298SOL    HW150791   3.447   5.858  13.418
16298SOL    HW250792   3.390   5.997  13.436
16299SOL     OW50793   6.707   9.833  10.047
16299SOL    HW150794   6.737   9.924  10.045
16299SOL    HW250795   6.624   9.834   9.998
16300SOL     OW50796   6.012  10.626   2.813
16300SOL    HW150797   6.064  10.613   2.734
16300SOL    HW250798   5.978  10.539   2.834
16301SOL     OW50799  14.748   9.979  12.844
16301SOL    HW150800  14.834  10.019  12.859
16301SOL    HW250801  14.751   9.951  12.752
16302SOL     OW50802  14.415  13.221  12.436
16302SOL    HW150803  14.487  13.282  12.420
16302SOL    HW250804  14.456  13.135  12.433
16303SOL     OW50805  10.934   0.693   8.104
16303SOL    HW150806  10.936   0.638   8.026
16303SOL    HW250807  10.920   0.631   8.176
16304SOL     OW50808  10.624   3.271   1.943
16304SOL    HW150809  10.539   3.311   1.964
16304SOL    HW250810  10.645   3.304   1.855
16305SOL     OW50811   9.407   1.870  11.082
16305SOL    HW150812   9.382   1.847  10.993
16305SOL    HW250813   9.498   1.899  11.074
16306SOL     OW50814   1.182   6.717   8.965
16306SOL    HW150815   1.111   6.733   9.027
16306SOL    HW250816   1.262   6.730   9.016
16307SOL     OW50817  10.113   0.210  11.939
16307SOL    HW150818  10.067   0.291  11.959
16307SOL    HW250819  10.057   0.141  11.975
16308SOL     OW50820  13.206   2.805   5.783
16308SOL    HW150821  13.276   2.808   5.718
16308SOL    HW250822  13.147   2.736   5.752
16309SOL     OW50823   1.612  11.764   3.700
16309SOL    HW150824   1.701  11.780   3.670
16309SOL    HW250825   1.557  11.793   3.627
16310SOL     OW50826  11.523   1.972   4.549
16310SOL    HW150827  11.464   1.907   4.510
16310SOL    HW250828  11.473   2.054   4.548
16311SOL     OW50829   7.192   5.464   9.099
16311SOL    HW150830   7.230   5.546   9.067
16311SOL    HW250831   7.213   5.400   9.031
16312SOL     OW50832  13.560   0.190  13.888
16312SOL    HW150833  13.593   0.154  13.971
16312SOL    HW250834  13.470   0.216  13.908
16313SOL     OW50835   5.306   1.333  13.277
16313SOL    HW150836   5.332   1.425  13.284
16313SOL    HW250837   5.304   1.316  13.182
16314SOL     OW50838  10.165   9.614  14.786
16314SOL    HW150839  10.245   9.578  14.747
16314SOL    HW250840  10.126   9.666  14.716
16315SOL     OW50841  14.701   8.158  14.424
16315SOL    HW150842  14.743   8.187  14.342
16315SOL    HW250843  14.754   8.199  14.493
16316SOL     OW50844  10.896   4.968   9.888
16316SOL    HW150845  10.975   5.021   9.882
16316SOL    HW250846  10.872   4.971   9.981
16317SOL     OW50847   3.559  12.807   7.384
16317SOL    HW150848   3.549  12.741   7.315
16317SOL    HW250849   3.493  12.873   7.364
16318SOL     OW50850   7.341  12.297   4.273
16318SOL    HW150851   7.337  12.388   4.243
16318SOL    HW250852   7.400  12.299   4.348
16319SOL     OW50853   1.743   5.614  14.812
16319SOL    HW150854   1.767   5.622   0.030
16319SOL    HW250855   1.757   5.522  14.791
16320SOL     OW50856   3.062   8.672   0.311
16320SOL    HW150857   3.014   8.737   0.363
16320SOL    HW250858   2.998   8.640   0.248
16321SOL     OW50859   0.965   2.074  13.184
16321SOL    HW150860   0.955   1.986  13.148
16321SOL    HW250861   0.920   2.070  13.268
16322SOL     OW50862   8.737  13.677  12.045
16322SOL    HW150863   8.724  13.659  11.952
16322SOL    HW250864   8.652  13.661  12.086
16323SOL     OW50865  11.793  11.812   3.949
16323SOL    HW150866  11.881  11.846   3.932
16323SOL    HW250867  11.809  11.734   4.004
16324SOL     OW50868   4.291   8.675  12.285
16324SOL    HW150869   4.372   8.654  12.239
16324SOL    HW250870   4.223   8.673  12.218
16325SOL     OW50871  13.250   0.117   0.570
16325SOL    HW150872  13.310   0.190   0.586
16325SOL    HW250873  13.211   0.136   0.485
16326SOL     OW50874   6.906  12.519   7.432
16326SOL    HW150875   6.832  12.531   7.373
16326SOL    HW250876   6.978  12.568   7.392
16327SOL     OW50877  10.494   5.766   2.653
16327SOL    HW150878  10.519   5.674   2.665
16327SOL    HW250879  10.400   5.762   2.632
16328SOL     OW50880   4.139   8.854   2.391
16328SOL    HW150881   4.230   8.874   2.414
16328SOL    HW250882   4.135   8.862   2.296
16329SOL     OW50883  10.082  10.292   4.475
16329SOL    HW150884  10.163  10.279   4.425
16329SOL    HW250885  10.112  10.317   4.563
16330SOL     OW50886  14.748   5.041   3.481
16330SOL    HW150887  14.824   5.099   3.485
16330SOL    HW250888  14.672   5.099   3.480
16331SOL     OW50889  12.454   1.960   3.355
16331SOL    HW150890  12.469   1.880   3.304
16331SOL    HW250891  12.528   1.964   3.416
16332SOL     OW50892  14.612  12.400   9.822
16332SOL    HW150893  14.633  12.468   9.758
16332SOL    HW250894  14.558  12.338   9.773
16333SOL     OW50895  10.156  12.919  13.527
16333SOL    HW150896  10.217  12.875  13.586
16333SOL    HW250897  10.115  12.987  13.581
16334SOL     OW50898   3.028   2.121   6.967
16334SOL    HW150899   2.943   2.164   6.972
16334SOL    HW250900   3.015   2.047   6.909
16335SOL     OW50901   1.386   6.315   7.271
16335SOL    HW150902   1.357   6.401   7.238
16335SOL    HW250903   1.439   6.280   7.200
16336SOL     OW50904   3.247   1.030  14.375
16336SOL    HW150905   3.282   0.988  14.454
16336SOL    HW250906   3.295   1.113  14.369
16337SOL     OW50907   6.189   6.898   4.695
16337SOL    HW150908   6.150   6.982   4.671
16337SOL    HW250909   6.280   6.905   4.666
16338SOL     OW50910   9.694   2.891  14.197
16338SOL    HW150911   9.689   2.985  14.215
16338SOL    HW250912   9.672   2.883  14.104
16339SOL     OW50913   4.609   0.449   7.904
16339SOL    HW150914   4.694   0.453   7.860
16339SOL    HW250915   4.603   0.358   7.936
16340SOL     OW50916  10.655   9.705   9.311
16340SOL    HW150917  10.635   9.612   9.325
16340SOL    HW250918  10.659   9.714   9.216
16341SOL     OW50919   7.115   6.231   9.567
16341SOL    HW150920   7.060   6.153   9.568
16341SOL    HW250921   7.190   6.208   9.622
16342SOL     OW50922   2.813   0.988   4.192
16342SOL    HW150923   2.853   1.068   4.226
16342SOL    HW250924   2.887   0.930   4.173
16343SOL     OW50925  10.036   8.720   3.584
16343SOL    HW150926  10.110   8.779   3.596
16343SOL    HW250927   9.992   8.719   3.669
16344SOL     OW50928   7.904  13.053   8.002
16344SOL    HW150929   7.897  13.148   7.991
16344SOL    HW250930   7.959  13.042   8.079
16345SOL     OW50931  12.794   9.620   4.191
16345SOL    HW150932  12.844   9.666   4.124
16345SOL    HW250933  12.756   9.690   4.244
16346SOL     OW50934  14.678   7.065   3.752
16346SOL    HW150935  14.752   7.058   3.691
16346SOL    HW250936  14.703   7.010   3.827
16347SOL     OW50937   2.651   5.388   8.928
16347SOL    HW150938   2.584   5.357   8.988
16347SOL    HW250939   2.706   5.312   8.912
16348SOL     OW50940   9.422   3.672   1.032
16348SOL    HW150941   9.341   3.629   1.060
16348SOL    HW250942   9.473   3.602   0.990
16349SOL     OW50943  11.927   8.168   6.276
16349SOL    HW150944  11.948   8.083   6.316
16349SOL    HW250945  11.871   8.146   6.201
16350SOL     OW50946   5.142   5.475   4.530
16350SOL    HW150947   5.187   5.493   4.448
16350SOL    HW250948   5.125   5.562   4.567
16351SOL     OW50949   0.778   2.405   8.858
16351SOL    HW150950   0.860   2.376   8.899
16351SOL    HW250951   0.790   2.388   8.764
16352SOL     OW50952   9.473  14.394  11.026
16352SOL    HW150953   9.473  14.298  11.035
16352SOL    HW250954   9.384  14.415  10.999
16353SOL     OW50955   0.035   7.814   6.378
16353SOL    HW150956   0.114   7.829   6.326
16353SOL    HW250957  14.845   7.784   6.314
16354SOL     OW50958  10.173   5.472  14.742
16354SOL    HW150959  10.168   5.551  14.688
16354SOL    HW250960  10.189   5.505  14.830
16355SOL     OW50961  10.428  12.143   1.566
16355SOL    HW150962  10.464  12.209   1.626
16355SOL    HW250963  10.465  12.060   1.596
16356SOL     OW50964   5.806  10.025  12.020
16356SOL    HW150965   5.781  10.050  12.109
16356SOL    HW250966   5.902  10.034  12.018
16357SOL     OW50967   1.425  14.381   3.954
16357SOL    HW150968   1.452  14.451   4.012
16357SOL    HW250969   1.501  14.323   3.948
16358SOL     OW50970   8.063  12.795   2.917
16358SOL    HW150971   8.152  12.818   2.891
16358SOL    HW250972   8.010  12.814   2.839
16359SOL     OW50973  14.154  11.521  14.122
16359SOL    HW150974  14.144  11.517  14.217
16359SOL    HW250975  14.152  11.614  14.101
16360SOL     OW50976   0.475  11.876   1.247
16360SOL    HW150977   0.544  11.889   1.182
16360SOL    HW250978   0.520  11.840   1.323
16361SOL     OW50979  11.954  12.719   0.041
16361SOL    HW150980  11.959  12.764  14.831
16361SOL    HW250981  12.024  12.758   0.093
16362SOL     OW50982   7.093   4.009   9.395
16362SOL    HW150983   7.178   4.052   9.403
16362SOL    HW250984   7.033   4.065   9.444
16363SOL     OW50985  10.002   5.516   7.296
16363SOL    HW150986  10.066   5.533   7.227
16363SOL    HW250987  10.051   5.528   7.377
16364SOL     OW50988   2.893  13.384   3.482
16364SOL    HW150989   2.832  13.454   3.462
16364SOL    HW250990   2.961  13.391   3.416
16365SOL     OW50991   6.165   8.726   8.730
16365SOL    HW150992   6.174   8.654   8.792
16365SOL    HW250993   6.246   8.724   8.679
16366SOL     OW50994   4.108   8.507   0.824
16366SOL    HW150995   4.055   8.545   0.753
16366SOL    HW250996   4.134   8.582   0.877
16367SOL     OW50997   8.527   2.161   2.583
16367SOL    HW150998   8.579   2.088   2.549
16367SOL    HW250999   8.455   2.121   2.630
16368SOL     OW51000   6.650  11.172   6.875
16368SOL    HW151001   6.664  11.250   6.930
16368SOL    HW251002   6.738  11.143   6.851
16369SOL     OW51003   6.366  12.792   1.262
16369SOL    HW151004   6.381  12.855   1.191
16369SOL    HW251005   6.392  12.708   1.225
16370SOL     OW51006  13.941   2.424   8.634
16370SOL    HW151007  14.011   2.411   8.570
16370SOL    HW251008  13.935   2.519   8.644
16371SOL     OW51009   1.584   2.062   8.295
16371SOL    HW151010   1.496   2.032   8.316
16371SOL    HW251011   1.572   2.123   8.222
16372SOL     OW51012  10.362   1.412  13.749
16372SOL    HW151013  10.296   1.471  13.711
16372SOL    HW251014  10.430   1.471  13.783
16373SOL     OW51015   5.000   3.427  12.990
16373SOL    HW151016   5.091   3.454  12.975
16373SOL    HW251017   4.955   3.449  12.908
16374SOL     OW51018   5.737  14.355  12.432
16374SOL    HW151019   5.739  14.381  12.525
16374SOL    HW251020   5.667  14.290  12.428
16375SOL     OW51021  12.389   8.283  12.824
16375SOL    HW151022  12.302   8.323  12.818
16375SOL    HW251023  12.372   8.195  12.859
16376SOL     OW51024   4.143  13.809   7.595
16376SOL    HW151025   4.158  13.851   7.510
16376SOL    HW251026   4.218  13.836   7.649
16377SOL     OW51027   6.822  13.885  11.196
16377SOL    HW151028   6.888  13.909  11.131
16377SOL    HW251029   6.849  13.798  11.226
16378SOL     OW51030   3.921   5.350  14.066
16378SOL    HW151031   3.889   5.276  14.014
16378SOL    HW251032   3.871   5.425  14.033
16379SOL     OW51033   9.362  10.506   0.670
16379SOL    HW151034   9.298  10.553   0.724
16379SOL    HW251035   9.421  10.465   0.733
16380SOL     OW51036   7.155   9.019   8.194
16380SOL    HW151037   7.087   9.029   8.127
16380SOL    HW251038   7.236   9.003   8.145
16381SOL     OW51039   0.735   8.387   8.598
16381SOL    HW151040   0.686   8.335   8.534
16381SOL    HW251041   0.691   8.369   8.681
16382SOL     OW51042  14.345   5.094   4.040
16382SOL    HW151043  14.438   5.071   4.047
16382SOL    HW251044  14.321   5.071   3.950
16383SOL     OW51045   1.752   6.755   7.405
16383SOL    HW151046   1.824   6.710   7.360
16383SOL    HW251047   1.782   6.763   7.495
16384SOL     OW51048  13.771   5.684  12.637
16384SOL    HW151049  13.815   5.679  12.722
16384SOL    HW251050  13.807   5.610  12.587
16385SOL     OW51051   8.435   4.749   2.705
16385SOL    HW151052   8.520   4.751   2.750
16385SOL    HW251053   8.419   4.656   2.689
16386SOL     OW51054   2.231   2.119   2.835
16386SOL    HW151055   2.238   2.071   2.918
16386SOL    HW251056   2.318   2.155   2.820
16387SOL     OW51057   0.800  11.504   2.323
16387SOL    HW151058   0.747  11.578   2.353
16387SOL    HW251059   0.748  11.463   2.254
16388SOL     OW51060   1.319  14.241   7.147
16388SOL    HW151061   1.255  14.176   7.117
16388SOL    HW251062   1.396  14.189   7.171
16389SOL     OW51063   6.243  13.301   8.482
16389SOL    HW151064   6.264  13.213   8.451
16389SOL    HW251065   6.283  13.305   8.569
16390SOL     OW51066   8.659   1.538   4.490
16390SOL    HW151067   8.638   1.561   4.580
16390SOL    HW251068   8.583   1.489   4.459
16391SOL     OW51069  12.745  11.502  13.725
16391SOL    HW151070  12.681  11.467  13.663
16391SOL    HW251071  12.800  11.426  13.747
16392SOL     OW51072   1.362   7.500  13.570
16392SOL    HW151073   1.343   7.440  13.498
16392SOL    HW251074   1.290   7.563  13.569
16393SOL     OW51075   2.042  12.714  14.422
16393SOL    HW151076   2.075  12.635  14.378
16393SOL    HW251077   1.956  12.689  14.456
16394SOL     OW51078   4.285   9.641   5.199
16394SOL    HW151079   4.288   9.571   5.134
16394SOL    HW251080   4.364   9.629   5.251
16395SOL     OW51081  13.059   8.541   9.558
16395SOL    HW151082  13.000   8.513   9.628
16395SOL    HW251083  13.050   8.637   9.556
16396SOL     OW51084   4.193   2.362   8.905
16396SOL    HW151085   4.276   2.409   8.894
16396SOL    HW251086   4.165   2.342   8.815
16397SOL     OW51087   5.956  12.520  10.963
16397SOL    HW151088   5.974  12.590  10.900
16397SOL    HW251089   5.861  12.522  10.975
16398SOL     OW51090   7.829  12.023   4.561
16398SOL    HW151091   7.835  12.021   4.465
16398SOL    HW251092   7.741  12.055   4.579
16399SOL     OW51093  11.869  13.388   6.854
16399SOL    HW151094  11.824  13.332   6.917
16399SOL    HW251095  11.806  13.457   6.833
16400SOL     OW51096   0.203  11.143   0.338
16400SOL    HW151097   0.197  11.231   0.303
16400SOL    HW251098   0.280  11.144   0.395
16401SOL     OW51099  14.608   2.982  10.406
16401SOL    HW151100  14.701   3.007  10.405
16401SOL    HW251101  14.605   2.903  10.351
16402SOL     OW51102  12.955   0.352   5.704
16402SOL    HW151103  12.906   0.376   5.782
16402SOL    HW251104  12.929   0.416   5.638
16403SOL     OW51105  14.223   8.977   8.358
16403SOL    HW151106  14.171   9.009   8.285
16403SOL    HW251107  14.247   9.056   8.407
16404SOL     OW51108  13.665   3.232   7.440
16404SOL    HW151109  13.575   3.250   7.412
16404SOL    HW251110  13.720   3.273   7.373
16405SOL     OW51111  14.149   9.607   6.593
16405SOL    HW151112  14.154   9.702   6.593
16405SOL    HW251113  14.056   9.588   6.579
16406SOL     OW51114   3.251   3.792  13.857
16406SOL    HW151115   3.175   3.848  13.872
16406SOL    HW251116   3.214   3.704  13.847
16407SOL     OW51117   1.403   2.532  14.875
16407SOL    HW151118   1.395   2.441   0.028
16407SOL    HW251119   1.464   2.529  14.801
16408SOL     OW51120   7.182   0.848   4.275
16408SOL    HW151121   7.263   0.806   4.303
16408SOL    HW251122   7.191   0.939   4.304
16409SOL     OW51123  10.918  12.785   6.311
16409SOL    HW151124  10.841  12.776   6.368
16409SOL    HW251125  10.989  12.744   6.360
16410SOL     OW51126   6.613   5.832  12.203
16410SOL    HW151127   6.675   5.808  12.272
16410SOL    HW251128   6.571   5.912  12.235
16411SOL     OW51129   2.947   2.791   6.762
16411SOL    HW151130   2.902   2.718   6.719
16411SOL    HW251131   3.040   2.776   6.742
16412SOL     OW51132   6.366   7.023  12.760
16412SOL    HW151133   6.417   6.965  12.704
16412SOL    HW251134   6.423   7.099  12.775
16413SOL     OW51135   8.641  11.808  11.524
16413SOL    HW151136   8.589  11.794  11.603
16413SOL    HW251137   8.591  11.763  11.455
16414SOL     OW51138   1.676   4.865   1.814
16414SOL    HW151139   1.760   4.831   1.784
16414SOL    HW251140   1.643   4.916   1.740
16415SOL     OW51141   8.765   6.152   1.637
16415SOL    HW151142   8.751   6.092   1.564
16415SOL    HW251143   8.707   6.226   1.619
16416SOL     OW51144   4.186   3.723   9.328
16416SOL    HW151145   4.278   3.700   9.345
16416SOL    HW251146   4.157   3.766   9.408
16417SOL     OW51147   1.167  11.323   2.374
16417SOL    HW151148   1.128  11.247   2.330
16417SOL    HW251149   1.259  11.320   2.350
16418SOL     OW51150  12.666   9.263   3.543
16418SOL    HW151151  12.725   9.325   3.586
16418SOL    HW251152  12.724   9.203   3.496
16419SOL     OW51153  11.278   4.388   1.743
16419SOL    HW151154  11.235   4.304   1.728
16419SOL    HW251155  11.369   4.373   1.721
16420SOL     OW51156   8.847  11.846  13.206
16420SOL    HW151157   8.877  11.790  13.134
16420SOL    HW251158   8.836  11.932  13.166
16421SOL     OW51159   7.568   1.945   8.925
16421SOL    HW151160   7.565   2.018   8.863
16421SOL    HW251161   7.522   1.977   9.002
16422SOL     OW51162   0.744  12.891   3.734
16422SOL    HW151163   0.742  12.826   3.805
16422SOL    HW251164   0.741  12.975   3.779
16423SOL     OW51165  11.861  13.426   1.702
16423SOL    HW151166  11.891  13.339   1.676
16423SOL    HW251167  11.775  13.411   1.742
16424SOL     OW51168   5.128  10.803  12.309
16424SOL    HW151169   5.205  10.770  12.264
16424SOL    HW251170   5.101  10.879  12.257
16425SOL     OW51171   9.935  11.794  13.074
16425SOL    HW151172   9.998  11.732  13.111
16425SOL    HW251173   9.851  11.767  13.111
16426SOL     OW51174   8.059   9.081   2.492
16426SOL    HW151175   8.150   9.053   2.483
16426SOL    HW251176   8.049   9.151   2.428
16427SOL     OW51177  11.416  10.584  12.596
16427SOL    HW151178  11.454  10.496  12.590
16427SOL    HW251179  11.339  10.580  12.538
16428SOL     OW51180   9.260   3.370   4.647
16428SOL    HW151181   9.238   3.309   4.577
16428SOL    HW251182   9.339   3.334   4.687
16429SOL     OW51183   2.560   0.985   0.458
16429SOL    HW151184   2.554   0.905   0.509
16429SOL    HW251185   2.654   1.004   0.452
16430SOL     OW51186  12.687  12.338  12.755
16430SOL    HW151187  12.719  12.427  12.769
16430SOL    HW251188  12.668  12.333  12.661
16431SOL     OW51189  12.271  13.381   3.007
16431SOL    HW151190  12.277  13.476   3.014
16431SOL    HW251191  12.185  13.365   2.969
16432SOL     OW51192   2.165   0.252   2.425
16432SOL    HW151193   2.174   0.215   2.337
16432SOL    HW251194   2.248   0.297   2.441
16433SOL     OW51195   9.149   8.147   0.051
16433SOL    HW151196   9.198   8.219   0.091
16433SOL    HW251197   9.151   8.077   0.116
16434SOL     OW51198  10.714   2.700  11.678
16434SOL    HW151199  10.660   2.762  11.629
16434SOL    HW251200  10.702   2.617  11.632
16435SOL     OW51201  14.251   9.870  14.042
16435SOL    HW151202  14.342   9.848  14.062
16435SOL    HW251203  14.225   9.807  13.975
16436SOL     OW51204   2.643   8.833   2.018
16436SOL    HW151205   2.671   8.907   2.071
16436SOL    HW251206   2.607   8.770   2.081
16437SOL     OW51207   4.606   4.872   8.443
16437SOL    HW151208   4.562   4.907   8.521
16437SOL    HW251209   4.681   4.824   8.478
16438SOL     OW51210   7.086   2.271   0.282
16438SOL    HW151211   7.135   2.287   0.201
16438SOL    HW251212   6.995   2.282   0.257
16439SOL     OW51213   6.320   0.981   2.226
16439SOL    HW151214   6.285   0.903   2.183
16439SOL    HW251215   6.410   0.959   2.247
16440SOL     OW51216  10.473   2.630  12.147
16440SOL    HW151217  10.506   2.644  12.058
16440SOL    HW251218  10.393   2.683  12.151
16441SOL     OW51219  13.005   8.479  10.839
16441SOL    HW151220  13.087   8.522  10.815
16441SOL    HW251221  13.019   8.449  10.929
16442SOL     OW51222   1.825   3.857   1.377
16442SOL    HW151223   1.838   3.916   1.451
16442SOL    HW251224   1.771   3.907   1.315
16443SOL     OW51225  13.155   2.976   1.460
16443SOL    HW151226  13.246   2.990   1.432
16443SOL    HW251227  13.125   3.062   1.487
16444SOL     OW51228  11.067   3.876   7.906
16444SOL    HW151229  11.000   3.808   7.906
16444SOL    HW251230  11.054   3.923   7.823
16445SOL     OW51231  12.402   3.239   2.805
16445SOL    HW151232  12.385   3.329   2.780
16445SOL    HW251233  12.389   3.237   2.900
16446SOL     OW51234   7.067   2.275   8.192
16446SOL    HW151235   7.146   2.294   8.142
16446SOL    HW251236   7.089   2.196   8.242
16447SOL     OW51237   2.254   2.925   5.983
16447SOL    HW151238   2.187   2.872   5.939
16447SOL    HW251239   2.324   2.933   5.917
16448SOL     OW51240   9.140   8.439   1.408
16448SOL    HW151241   9.126   8.383   1.332
16448SOL    HW251242   9.053   8.465   1.436
16449SOL     OW51243  13.737   4.910  10.587
16449SOL    HW151244  13.674   4.960  10.639
16449SOL    HW251245  13.696   4.823  10.578
16450SOL     OW51246  10.368   2.670  13.496
16450SOL    HW151247  10.311   2.604  13.457
16450SOL    HW251248  10.320   2.703  13.572
16451SOL     OW51249   7.844  13.061   2.854
16451SOL    HW151250   7.881  13.073   2.767
16451SOL    HW251251   7.820  12.968   2.858
16452SOL     OW51252  14.739  14.741  13.774
16452SOL    HW151253  14.660  14.688  13.763
16452SOL    HW251254  14.772  14.754  13.685
16453SOL     OW51255   2.062   5.930   1.492
16453SOL    HW151256   2.099   5.853   1.536
16453SOL    HW251257   1.995   5.894   1.434
16454SOL     OW51258   4.778  11.809   0.841
16454SOL    HW151259   4.767  11.715   0.855
16454SOL    HW251260   4.797  11.844   0.928
16455SOL     OW51261   4.902  12.074   9.955
16455SOL    HW151262   4.905  12.169   9.969
16455SOL    HW251263   4.820  12.060   9.908
16456SOL     OW51264  14.347   9.685   4.442
16456SOL    HW151265  14.266   9.707   4.488
16456SOL    HW251266  14.318   9.657   4.355
16457SOL     OW51267   1.469   1.911   5.926
16457SOL    HW151268   1.438   1.987   5.973
16457SOL    HW251269   1.390   1.860   5.907
16458SOL     OW51270  13.835  13.263   7.593
16458SOL    HW151271  13.742  13.278   7.611
16458SOL    HW251272  13.849  13.301   7.507
16459SOL     OW51273   2.387   2.033   5.100
16459SOL    HW151274   2.359   2.038   5.009
16459SOL    HW251275   2.473   2.076   5.101
16460SOL     OW51276   7.136   5.749   0.613
16460SOL    HW151277   7.210   5.689   0.625
16460SOL    HW251278   7.061   5.700   0.647
16461SOL     OW51279   0.636  14.735   8.041
16461SOL    HW151280   0.713  14.687   8.009
16461SOL    HW251281   0.577  14.667   8.072
16462SOL     OW51282  11.110   1.540   7.711
16462SOL    HW151283  11.124   1.634   7.724
16462SOL    HW251284  11.109   1.504   7.800
16463SOL     OW51285  10.329   2.078   2.537
16463SOL    HW151286  10.337   2.093   2.631
16463SOL    HW251287  10.251   2.126   2.511
16464SOL     OW51288  11.186   2.330   2.785
16464SOL    HW151289  11.279   2.350   2.798
16464SOL    HW251290  11.141   2.413   2.802
16465SOL     OW51291   2.704  12.443  13.736
16465SOL    HW151292   2.657  12.361  13.749
16465SOL    HW251293   2.714  12.450  13.641
16466SOL     OW51294   5.183   5.771  14.823
16466SOL    HW151295   5.138   5.831  14.764
16466SOL    HW251296   5.195   5.821   0.029
16467SOL     OW51297   0.386   4.436   7.078
16467SOL    HW151298   0.450   4.430   7.149
16467SOL    HW251299   0.438   4.456   7.001
16468SOL     OW51300   4.758   7.072  14.042
16468SOL    HW151301   4.851   7.076  14.020
16468SOL    HW251302   4.741   6.979  14.060
16469SOL     OW51303   7.571   3.272   3.764
16469SOL    HW151304   7.595   3.217   3.839
16469SOL    HW251305   7.485   3.239   3.738
16470SOL     OW51306   5.414  13.256   7.971
16470SOL    HW151307   5.498  13.213   7.984
16470SOL    HW251308   5.354  13.212   8.031
16471SOL     OW51309   7.498   6.849   5.766
16471SOL    HW151310   7.499   6.930   5.716
16471SOL    HW251311   7.584   6.844   5.807
16472SOL     OW51312   7.297   3.362   5.254
16472SOL    HW151313   7.329   3.286   5.304
16472SOL    HW251314   7.371   3.424   5.255
16473SOL     OW51315   0.597   4.254   7.897
16473SOL    HW151316   0.584   4.306   7.818
16473SOL    HW251317   0.526   4.280   7.955
16474SOL     OW51318   0.780   1.979   1.102
16474SOL    HW151319   0.755   2.071   1.091
16474SOL    HW251320   0.846   1.963   1.035
16475SOL     OW51321   6.056   8.196   5.131
16475SOL    HW151322   5.963   8.208   5.149
16475SOL    HW251323   6.062   8.197   5.035
16476SOL     OW51324   1.368   8.706   2.980
16476SOL    HW151325   1.335   8.718   3.069
16476SOL    HW251326   1.423   8.628   2.985
16477SOL     OW51327  12.137   2.634   7.913
16477SOL    HW151328  12.147   2.584   7.994
16477SOL    HW251329  12.184   2.716   7.929
16478SOL     OW51330   2.705  10.901   1.148
16478SOL    HW151331   2.706  10.832   1.083
16478SOL    HW251332   2.671  10.859   1.227
16479SOL     OW51333   0.920   5.080  10.743
16479SOL    HW151334   0.995   5.020  10.746
16479SOL    HW251335   0.952   5.159  10.785
16480SOL     OW51336  10.162   9.600   6.700
16480SOL    HW151337  10.253   9.619   6.721
16480SOL    HW251338  10.122   9.686   6.688
16481SOL     OW51339   3.012   0.067   4.939
16481SOL    HW151340   2.979   0.133   4.879
16481SOL    HW251341   3.082   0.111   4.987
16482SOL     OW51342   2.775   2.806  11.005
16482SOL    HW151343   2.807   2.760  11.082
16482SOL    HW251344   2.808   2.755  10.931
16483SOL     OW51345  14.018  14.729  11.877
16483SOL    HW151346  14.031  14.689  11.791
16483SOL    HW251347  14.080  14.683  11.934
16484SOL     OW51348   8.311  13.358   7.610
16484SOL    HW151349   8.224  13.343   7.647
16484SOL    HW251350   8.372  13.320   7.673
16485SOL     OW51351  12.557  12.651  12.369
16485SOL    HW151352  12.484  12.683  12.316
16485SOL    HW251353  12.515  12.600  12.439
16486SOL     OW51354   0.804   9.507   7.241
16486SOL    HW151355   0.862   9.582   7.235
16486SOL    HW251356   0.862   9.432   7.253
16487SOL     OW51357   5.416   5.122  10.273
16487SOL    HW151358   5.397   5.184  10.202
16487SOL    HW251359   5.498   5.154  10.312
16488SOL     OW51360  10.303   4.668   9.834
16488SOL    HW151361  10.349   4.584   9.834
16488SOL    HW251362  10.242   4.663   9.908
16489SOL     OW51363   3.324  14.432  11.755
16489SOL    HW151364   3.244  14.414  11.805
16489SOL    HW251365   3.329  14.361  11.691
16490SOL     OW51366   1.154   1.084   0.973
16490SOL    HW151367   1.150   1.019   1.043
16490SOL    HW251368   1.068   1.126   0.974
16491SOL     OW51369   9.931   7.284   9.559
16491SOL    HW151370   9.853   7.229   9.571
16491SOL    HW251371  10.003   7.221   9.552
16492SOL     OW51372   7.355  13.685   5.970
16492SOL    HW151373   7.427  13.657   6.026
16492SOL    HW251374   7.383  13.769   5.934
16493SOL     OW51375   1.228  13.847   1.559
16493SOL    HW151376   1.179  13.822   1.637
16493SOL    HW251377   1.318  13.852   1.588
16494SOL     OW51378  11.618  13.285   2.672
16494SOL    HW151379  11.523  13.283   2.688
16494SOL    HW251380  11.650  13.357   2.726
16495SOL     OW51381   4.910   9.783   0.148
16495SOL    HW151382   4.821   9.749   0.147
16495SOL    HW251383   4.938   9.779   0.056
16496SOL     OW51384  12.523   1.032   2.998
16496SOL    HW151385  12.604   1.030   2.947
16496SOL    HW251386  12.552   1.027   3.089
16497SOL     OW51387   6.947   8.703  13.468
16497SOL    HW151388   7.033   8.744  13.479
16497SOL    HW251389   6.965   8.619  13.428
16498SOL     OW51390   6.696   0.813   1.951
16498SOL    HW151391   6.704   0.866   1.872
16498SOL    HW251392   6.781   0.823   1.995
16499SOL     OW51393   0.561  13.169  10.053
16499SOL    HW151394   0.605  13.235  10.106
16499SOL    HW251395   0.496  13.130  10.112
16500SOL     OW51396   8.359   1.548   9.572
16500SOL    HW151397   8.370   1.500   9.654
16500SOL    HW251398   8.382   1.639   9.594
16501SOL     OW51399   2.821  10.825  13.199
16501SOL    HW151400   2.814  10.732  13.218
16501SOL    HW251401   2.874  10.861  13.270
16502SOL     OW51402   2.461   8.671  10.420
16502SOL    HW151403   2.537   8.728  10.430
16502SOL    HW251404   2.394   8.726  10.378
16503SOL     OW51405   0.552   8.486   9.016
16503SOL    HW151406   0.584   8.570   9.050
16503SOL    HW251407   0.479   8.510   8.960
16504SOL     OW51408   3.419   2.826   0.815
16504SOL    HW151409   3.331   2.815   0.852
16504SOL    HW251410   3.408   2.883   0.739
16505SOL     OW51411  14.780   9.994   0.465
16505SOL    HW151412  14.757  10.087   0.458
16505SOL    HW251413  14.828   9.975   0.385
16506SOL     OW51414  13.082   4.267  10.177
16506SOL    HW151415  13.005   4.225  10.139
16506SOL    HW251416  13.102   4.339  10.117
16507SOL     OW51417   0.209   1.195   0.465
16507SOL    HW151418   0.267   1.120   0.473
16507SOL    HW251419   0.266   1.271   0.469
16508SOL     OW51420  12.142   1.177  10.032
16508SOL    HW151421  12.214   1.116  10.019
16508SOL    HW251422  12.070   1.140   9.981
16509SOL     OW51423   2.292  11.382   0.278
16509SOL    HW151424   2.235  11.427   0.215
16509SOL    HW251425   2.331  11.310   0.227
16510SOL     OW51426  10.924   5.386   9.758
16510SOL    HW151427  10.976   5.331   9.701
16510SOL    HW251428  10.844   5.337   9.775
16511SOL     OW51429   5.952   5.007   7.550
16511SOL    HW151430   5.979   5.004   7.642
16511SOL    HW251431   5.963   5.099   7.525
16512SOL     OW51432  14.504  14.408   9.718
16512SOL    HW151433  14.577  14.455   9.758
16512SOL    HW251434  14.545  14.354   9.650
16513SOL     OW51435  11.506  13.719   9.179
16513SOL    HW151436  11.487  13.766   9.098
16513SOL    HW251437  11.601  13.718   9.185
16514SOL     OW51438   6.867   4.394   1.172
16514SOL    HW151439   6.941   4.371   1.115
16514SOL    HW251440   6.830   4.309   1.197
16515SOL     OW51441   9.695   6.853   0.848
16515SOL    HW151442   9.606   6.853   0.813
16515SOL    HW251443   9.714   6.946   0.866
16516SOL     OW51444   6.849  11.539  11.545
16516SOL    HW151445   6.909  11.578  11.481
16516SOL    HW251446   6.902  11.534  11.625
16517SOL     OW51447   3.204  11.453  11.026
16517SOL    HW151448   3.261  11.387  11.064
16517SOL    HW251449   3.239  11.536  11.057
16518SOL     OW51450  13.008  11.660   5.357
16518SOL    HW151451  13.010  11.568   5.330
16518SOL    HW251452  13.037  11.659   5.448
16519SOL     OW51453   7.694   1.743   3.027
16519SOL    HW151454   7.749   1.665   3.024
16519SOL    HW251455   7.727   1.798   2.956
16520SOL     OW51456   9.861  13.628   5.447
16520SOL    HW151457   9.869  13.686   5.523
16520SOL    HW251458   9.789  13.569   5.469
16521SOL     OW51459  14.872   2.924   8.656
16521SOL    HW151460   0.066   2.908   8.721
16521SOL    HW251461  14.796   2.950   8.708
16522SOL     OW51462  12.037   5.603   2.571
16522SOL    HW151463  12.079   5.689   2.573
16522SOL    HW251464  12.078   5.556   2.644
16523SOL     OW51465  13.371   6.751  13.733
16523SOL    HW151466  13.379   6.766  13.827
16523SOL    HW251467  13.278   6.766  13.715
16524SOL     OW51468   6.021   6.782   0.845
16524SOL    HW151469   6.088   6.738   0.794
16524SOL    HW251470   6.059   6.867   0.866
16525SOL     OW51471   7.261  14.436   5.584
16525SOL    HW151472   7.302  14.352   5.601
16525SOL    HW251473   7.283  14.456   5.493
16526SOL     OW51474   3.692   1.477   9.768
16526SOL    HW151475   3.645   1.394   9.767
16526SOL    HW251476   3.687   1.506   9.859
16527SOL     OW51477   5.631   8.564   4.356
16527SOL    HW151478   5.559   8.620   4.386
16527SOL    HW251479   5.629   8.488   4.415
16528SOL     OW51480  12.809  11.793  11.904
16528SOL    HW151481  12.736  11.834  11.858
16528SOL    HW251482  12.839  11.859  11.967
16529SOL     OW51483   0.389   1.547  14.524
16529SOL    HW151484   0.374   1.641  14.514
16529SOL    HW251485   0.384   1.512  14.436
16530SOL     OW51486   9.341   7.012   4.594
16530SOL    HW151487   9.398   7.043   4.664
16530SOL    HW251488   9.393   6.946   4.548
16531SOL     OW51489  10.074  10.920   3.683
16531SOL    HW151490  10.126  10.985   3.635
16531SOL    HW251491   9.992  10.965   3.703
16532SOL     OW51492  14.858   6.611   0.734
16532SOL    HW151493   0.071   6.634   0.705
16532SOL    HW251494  14.870   6.562   0.815
16533SOL     OW51495   4.531   5.290   1.125
16533SOL    HW151496   4.468   5.219   1.119
16533SOL    HW251497   4.603   5.263   1.068
16534SOL     OW51498   2.079   2.170   1.633
16534SOL    HW151499   2.045   2.209   1.552
16534SOL    HW251500   2.147   2.230   1.662
16535SOL     OW51501   7.803   8.906  14.289
16535SOL    HW151502   7.743   8.852  14.237
16535SOL    HW251503   7.756   8.988  14.303
16536SOL     OW51504   2.275  13.048  13.905
16536SOL    HW151505   2.199  13.020  13.855
16536SOL    HW251506   2.336  13.081  13.839
16537SOL     OW51507   6.663   8.859  13.400
16537SOL    HW151508   6.642   8.766  13.396
16537SOL    HW251509   6.599   8.900  13.341
16538SOL     OW51510   2.006   6.015   3.318
16538SOL    HW151511   2.080   6.021   3.379
16538SOL    HW251512   2.022   6.085   3.254
16539SOL     OW51513  10.167  10.434  10.970
16539SOL    HW151514  10.200  10.498  10.907
16539SOL    HW251515  10.235  10.430  11.038
16540SOL     OW51516  10.699  13.100  11.163
16540SOL    HW151517  10.703  13.154  11.243
16540SOL    HW251518  10.741  13.018  11.188
16541SOL     OW51519   6.133  14.696  13.454
16541SOL    HW151520   6.057  14.709  13.399
16541SOL    HW251521   6.163  14.784  13.477
16542SOL     OW51522   3.318  10.670   7.112
16542SOL    HW151523   3.392  10.617   7.083
16542SOL    HW251524   3.258  10.671   7.038
16543SOL     OW51525   0.014   2.833   5.679
16543SOL    HW151526  14.845   2.803   5.600
16543SOL    HW251527  14.835   2.800   5.751
16544SOL     OW51528   8.677  10.715  11.488
16544SOL    HW151529   8.762  10.705  11.532
16544SOL    HW251530   8.654  10.807  11.502
16545SOL     OW51531   6.561   6.448   8.521
16545SOL    HW151532   6.605   6.382   8.467
16545SOL    HW251533   6.526   6.398   8.595
16546SOL     OW51534   7.218   7.276   6.925
16546SOL    HW151535   7.261   7.361   6.920
16546SOL    HW251536   7.254   7.234   7.003
16547SOL     OW51537   7.647   0.860   8.202
16547SOL    HW151538   7.690   0.825   8.124
16547SOL    HW251539   7.719   0.888   8.259
16548SOL     OW51540   9.391   3.975  14.447
16548SOL    HW151541   9.470   4.020  14.477
16548SOL    HW251542   9.349   4.037  14.387
16549SOL     OW51543  12.358   8.037   0.929
16549SOL    HW151544  12.276   8.073   0.964
16549SOL    HW251545  12.372   7.958   0.980
16550SOL     OW51546   0.520  14.612  14.606
16550SOL    HW151547   0.501  14.521  14.586
16550SOL    HW251548   0.603  14.630  14.561
16551SOL     OW51549   6.904   1.844   3.954
16551SOL    HW151550   6.915   1.814   3.863
16551SOL    HW251551   6.853   1.925   3.946
16552SOL     OW51552  11.288  12.392  12.207
16552SOL    HW151553  11.293  12.454  12.280
16552SOL    HW251554  11.267  12.446  12.131
16553SOL     OW51555   3.202   0.837  11.922
16553SOL    HW151556   3.240   0.751  11.907
16553SOL    HW251557   3.210   0.851  12.016
16554SOL     OW51558   4.215   3.504   9.169
16554SOL    HW151559   4.309   3.516   9.176
16554SOL    HW251560   4.178   3.564   9.234
16555SOL     OW51561  13.510   8.245   3.771
16555SOL    HW151562  13.448   8.310   3.805
16555SOL    HW251563  13.500   8.251   3.676
16556SOL     OW51564   8.551  12.751  10.463
16556SOL    HW151565   8.501  12.804  10.401
16556SOL    HW251566   8.525  12.784  10.549
16557SOL     OW51567   8.225   0.578   5.875
16557SOL    HW151568   8.238   0.576   5.780
16557SOL    HW251569   8.228   0.486   5.901
16558SOL     OW51570   5.046   9.996   3.423
16558SOL    HW151571   5.058  10.090   3.435
16558SOL    HW251572   4.953   9.981   3.438
16559SOL     OW51573   2.288   9.638   9.238
16559SOL    HW151574   2.279   9.593   9.154
16559SOL    HW251575   2.309   9.729   9.214
16560SOL     OW51576   0.647  12.361  10.625
16560SOL    HW151577   0.622  12.275  10.590
16560SOL    HW251578   0.564  12.409  10.630
16561SOL     OW51579  10.125  13.499  13.897
16561SOL    HW151580  10.197  13.438  13.911
16561SOL    HW251581  10.144  13.572  13.956
16562SOL     OW51582  13.079   7.410   3.884
16562SOL    HW151583  13.131   7.484   3.915
16562SOL    HW251584  13.019   7.448   3.821
16563SOL     OW51585   4.182   8.338   5.695
16563SOL    HW151586   4.215   8.283   5.765
16563SOL    HW251587   4.218   8.300   5.615
16564SOL     OW51588  10.331   3.267  13.649
16564SOL    HW151589  10.298   3.343  13.698
16564SOL    HW251590  10.286   3.271  13.565
16565SOL     OW51591  10.270   2.065   3.403
16565SOL    HW151592  10.234   1.997   3.460
16565SOL    HW251593  10.295   2.019   3.323
16566SOL     OW51594   9.150  12.407   0.059
16566SOL    HW151595   9.075  12.407   0.000
16566SOL    HW251596   9.184  12.496   0.055
16567SOL     OW51597   1.793   8.378   2.034
16567SOL    HW151598   1.702   8.404   2.048
16567SOL    HW251599   1.826   8.360   2.122
16568SOL     OW51600  13.495   4.164   6.500
16568SOL    HW151601  13.460   4.075   6.504
16568SOL    HW251602  13.435   4.211   6.442
16569SOL     OW51603   2.746   3.299   7.655
16569SOL    HW151604   2.686   3.364   7.691
16569SOL    HW251605   2.738   3.308   7.560
16570SOL     OW51606   3.240   0.788   1.458
16570SOL    HW151607   3.228   0.882   1.453
16570SOL    HW251608   3.307   0.775   1.524
16571SOL     OW51609   3.435   3.369  10.304
16571SOL    HW151610   3.381   3.408  10.235
16571SOL    HW251611   3.521   3.357  10.264
16572SOL     OW51612   0.504   5.385   0.582
16572SOL    HW151613   0.546   5.319   0.527
16572SOL    HW251614   0.412   5.383   0.556
16573SOL     OW51615   1.203  12.949   6.521
16573SOL    HW151616   1.136  13.016   6.525
16573SOL    HW251617   1.248  12.954   6.606
16574SOL     OW51618   1.146  14.733   7.163
16574SOL    HW151619   1.235  14.753   7.131
16574SOL    HW251620   1.155  14.732   7.258
16575SOL     OW51621   9.533   7.311   1.455
16575SOL    HW151622   9.619   7.349   1.474
16575SOL    HW251623   9.545   7.263   1.373
16576SOL     OW51624   4.021   1.059   9.481
16576SOL    HW151625   4.047   0.971   9.507
16576SOL    HW251626   3.966   1.090   9.553
16577SOL     OW51627   1.403   6.589   3.367
16577SOL    HW151628   1.360   6.532   3.304
16577SOL    HW251629   1.340   6.661   3.380
16578SOL     OW51630   6.846   0.928   4.668
16578SOL    HW151631   6.846   1.024   4.669
16578SOL    HW251632   6.938   0.904   4.661
16579SOL     OW51633   6.874  14.566  12.344
16579SOL    HW151634   6.913  14.632  12.400
16579SOL    HW251635   6.946  14.509  12.319
16580SOL     OW51636   8.872   6.097  10.559
16580SOL    HW151637   8.832   6.139  10.636
16580SOL    HW251638   8.869   6.004  10.579
16581SOL     OW51639   4.427   7.553   4.278
16581SOL    HW151640   4.450   7.635   4.234
16581SOL    HW251641   4.460   7.485   4.220
16582SOL     OW51642   4.371  12.705   8.617
16582SOL    HW151643   4.349  12.791   8.580
16582SOL    HW251644   4.321  12.643   8.564
16583SOL     OW51645  14.689   7.917   5.877
16583SOL    HW151646  14.773   7.922   5.832
16583SOL    HW251647  14.660   7.828   5.863
16584SOL     OW51648   7.774  12.538   9.351
16584SOL    HW151649   7.842  12.589   9.393
16584SOL    HW251650   7.765  12.460   9.406
16585SOL     OW51651   5.370  12.869   8.249
16585SOL    HW151652   5.288  12.854   8.296
16585SOL    HW251653   5.355  12.950   8.200
16586SOL     OW51654   2.569   3.855   2.680
16586SOL    HW151655   2.607   3.767   2.675
16586SOL    HW251656   2.524   3.867   2.597
16587SOL     OW51657   3.038   0.352   4.113
16587SOL    HW151658   2.975   0.336   4.043
16587SOL    HW251659   2.988   0.400   4.179
16588SOL     OW51660   3.252   9.936  11.873
16588SOL    HW151661   3.249   9.894  11.788
16588SOL    HW251662   3.338   9.979  11.876
16589SOL     OW51663   7.372  13.633   4.259
16589SOL    HW151664   7.412  13.560   4.306
16589SOL    HW251665   7.281  13.633   4.290
16590SOL     OW51666   2.478   8.403   7.831
16590SOL    HW151667   2.441   8.364   7.751
16590SOL    HW251668   2.481   8.331   7.893
16591SOL     OW51669  14.134   8.057   9.601
16591SOL    HW151670  14.092   7.981   9.561
16591SOL    HW251671  14.069   8.090   9.664
16592SOL     OW51672   0.752   6.112   2.005
16592SOL    HW151673   0.671   6.102   2.054
16592SOL    HW251674   0.750   6.041   1.940
16593SOL     OW51675  10.123   3.772   0.394
16593SOL    HW151676  10.149   3.864   0.385
16593SOL    HW251677  10.119   3.757   0.488
16594SOL     OW51678  13.615   3.124  10.634
16594SOL    HW151679  13.616   3.169  10.719
16594SOL    HW251680  13.524   3.131  10.605
16595SOL     OW51681   0.684   0.894   7.028
16595SOL    HW151682   0.601   0.934   7.054
16595SOL    HW251683   0.672   0.801   7.048
16596SOL     OW51684   9.518   6.619  10.363
16596SOL    HW151685   9.525   6.711  10.389
16596SOL    HW251686   9.439   6.587  10.407
16597SOL     OW51687  13.565   9.245   0.156
16597SOL    HW151688  13.493   9.254   0.093
16597SOL    HW251689  13.537   9.175   0.214
16598SOL     OW51690   7.399  13.392   5.402
16598SOL    HW151691   7.309  13.411   5.427
16598SOL    HW251692   7.439  13.357   5.481
16599SOL     OW51693  13.881   3.950   6.953
16599SOL    HW151694  13.875   3.855   6.964
16599SOL    HW251695  13.933   3.980   7.027
16600SOL     OW51696   5.579   2.590  13.266
16600SOL    HW151697   5.611   2.564  13.352
16600SOL    HW251698   5.523   2.666  13.284
16601SOL     OW51699  12.937   2.732  10.743
16601SOL    HW151700  12.951   2.743  10.649
16601SOL    HW251701  12.943   2.638  10.758
16602SOL     OW51702   7.140  12.980  12.200
16602SOL    HW151703   7.093  12.914  12.251
16602SOL    HW251704   7.072  13.044  12.177
16603SOL     OW51705  10.202  11.401   9.910
16603SOL    HW151706  10.256  11.477   9.933
16603SOL    HW251707  10.216  11.389   9.816
16604SOL     OW51708  11.356  10.341   1.390
16604SOL    HW151709  11.398  10.302   1.467
16604SOL    HW251710  11.425  10.390   1.347
16605SOL     OW51711  12.202   9.463   9.241
16605SOL    HW151712  12.260   9.387   9.241
16605SOL    HW251713  12.131   9.439   9.182
16606SOL     OW51714  10.539  13.278   7.712
16606SOL    HW151715  10.549  13.372   7.699
16606SOL    HW251716  10.602  13.239   7.652
16607SOL     OW51717   6.853  13.371   0.616
16607SOL    HW151718   6.785  13.406   0.559
16607SOL    HW251719   6.935  13.386   0.568
16608SOL     OW51720  13.051   8.992  14.761
16608SOL    HW151721  13.075   8.902  14.738
16608SOL    HW251722  13.054   8.993  14.857
16609SOL     OW51723   6.837   0.604   8.245
16609SOL    HW151724   6.742   0.596   8.232
16609SOL    HW251725   6.854   0.558   8.327
16610SOL     OW51726   5.272   6.537   5.101
16610SOL    HW151727   5.185   6.499   5.086
16610SOL    HW251728   5.333   6.465   5.081
16611SOL     OW51729  10.835   5.846  10.332
16611SOL    HW151730  10.904   5.826  10.269
16611SOL    HW251731  10.835   5.773  10.393
16612SOL     OW51732  12.363   6.961   0.335
16612SOL    HW151733  12.324   7.007   0.409
16612SOL    HW251734  12.417   7.027   0.292
16613SOL     OW51735  10.070   0.243  11.595
16613SOL    HW151736  10.000   0.295  11.634
16613SOL    HW251737  10.143   0.250  11.657
16614SOL     OW51738  13.228  12.404  12.552
16614SOL    HW151739  13.133  12.392  12.553
16614SOL    HW251740  13.244  12.478  12.611
16615SOL     OW51741  11.180  10.846   2.442
16615SOL    HW151742  11.192  10.902   2.519
16615SOL    HW251743  11.264  10.802   2.431
16616SOL     OW51744   8.921  13.401   9.914
16616SOL    HW151745   8.986  13.355   9.861
16616SOL    HW251746   8.969  13.471   9.957
16617SOL     OW51747   1.832   6.224   2.519
16617SOL    HW151748   1.755   6.181   2.554
16617SOL    HW251749   1.825   6.213   2.424
16618SOL     OW51750  11.871  12.610  14.402
16618SOL    HW151751  11.948  12.567  14.366
16618SOL    HW251752  11.803  12.542  14.402
16619SOL     OW51753   6.780   2.725  11.964
16619SOL    HW151754   6.775   2.757  11.874
16619SOL    HW251755   6.808   2.801  12.015
16620SOL     OW51756   7.373   1.607   7.175
16620SOL    HW151757   7.285   1.578   7.200
16620SOL    HW251758   7.429   1.577   7.247
16621SOL     OW51759  11.368   0.032  11.736
16621SOL    HW151760  11.346   0.075  11.654
16621SOL    HW251761  11.370  14.814  11.716
16622SOL     OW51762   0.668   5.232  14.429
16622SOL    HW151763   0.718   5.305  14.463
16622SOL    HW251764   0.680   5.162  14.494
16623SOL     OW51765   1.402   3.708   6.632
16623SOL    HW151766   1.438   3.738   6.715
16623SOL    HW251767   1.400   3.786   6.577
16624SOL     OW51768   8.362   9.864  11.793
16624SOL    HW151769   8.305   9.815  11.733
16624SOL    HW251770   8.451   9.843  11.764
16625SOL     OW51771  14.145  12.309   8.954
16625SOL    HW151772  14.162  12.384   8.896
16625SOL    HW251773  14.107  12.243   8.896
16626SOL     OW51774  12.625   7.330   8.840
16626SOL    HW151775  12.699   7.334   8.899
16626SOL    HW251776  12.584   7.417   8.845
16627SOL     OW51777  11.889  12.490   3.611
16627SOL    HW151778  11.970  12.535   3.632
16627SOL    HW251779  11.852  12.465   3.696
16628SOL     OW51780   6.779   8.709  13.706
16628SOL    HW151781   6.711   8.774  13.687
16628SOL    HW251782   6.830   8.704  13.624
16629SOL     OW51783  11.165   3.360   6.884
16629SOL    HW151784  11.131   3.383   6.971
16629SOL    HW251785  11.217   3.436   6.858
16630SOL     OW51786   4.373   1.721   5.033
16630SOL    HW151787   4.289   1.715   4.988
16630SOL    HW251788   4.430   1.660   4.985
16631SOL     OW51789   3.410   9.843   2.998
16631SOL    HW151790   3.418   9.771   2.936
16631SOL    HW251791   3.446   9.809   3.080
16632SOL     OW51792   4.489   7.734   2.571
16632SOL    HW151793   4.407   7.781   2.588
16632SOL    HW251794   4.534   7.788   2.507
16633SOL     OW51795   4.429   9.391   5.407
16633SOL    HW151796   4.405   9.318   5.350
16633SOL    HW251797   4.375   9.379   5.485
16634SOL     OW51798   5.554   2.436  10.127
16634SOL    HW151799   5.633   2.381  10.121
16634SOL    HW251800   5.489   2.380  10.169
16635SOL     OW51801   8.183   6.795   7.065
16635SOL    HW151802   8.164   6.886   7.089
16635SOL    HW251803   8.104   6.765   7.020
16636SOL     OW51804   3.836   9.595   1.031
16636SOL    HW151805   3.809   9.668   0.976
16636SOL    HW251806   3.759   9.576   1.085
16637SOL     OW51807   5.330  13.152   0.648
16637SOL    HW151808   5.323  13.169   0.741
16637SOL    HW251809   5.240  13.156   0.616
16638SOL     OW51810   7.329   9.928   0.187
16638SOL    HW151811   7.341   9.913   0.281
16638SOL    HW251812   7.251   9.983   0.181
16639SOL     OW51813  10.738  14.061  11.904
16639SOL    HW151814  10.829  14.083  11.884
16639SOL    HW251815  10.686  14.124  11.856
16640SOL     OW51816   1.814   0.580  10.118
16640SOL    HW151817   1.853   0.652  10.069
16640SOL    HW251818   1.727   0.612  10.144
16641SOL     OW51819  10.016  11.678   0.751
16641SOL    HW151820  10.071  11.686   0.673
16641SOL    HW251821  10.074  11.698   0.824
16642SOL     OW51822   4.287   6.128   4.893
16642SOL    HW151823   4.345   6.054   4.875
16642SOL    HW251824   4.264   6.162   4.806
16643SOL     OW51825  12.274  12.395   0.588
16643SOL    HW151826  12.331  12.356   0.522
16643SOL    HW251827  12.187  12.392   0.548
16644SOL     OW51828  13.150  11.091   7.030
16644SOL    HW151829  13.104  11.169   7.060
16644SOL    HW251830  13.135  11.089   6.935
16645SOL     OW51831   3.273  10.154   6.571
16645SOL    HW151832   3.214  10.160   6.495
16645SOL    HW251833   3.274  10.061   6.594
16646SOL     OW51834   6.252   7.568   5.484
16646SOL    HW151835   6.175   7.597   5.435
16646SOL    HW251836   6.219   7.550   5.572
16647SOL     OW51837   7.671   7.176  11.002
16647SOL    HW151838   7.619   7.255  11.017
16647SOL    HW251839   7.647   7.118  11.075
16648SOL     OW51840   5.101   3.048  12.932
16648SOL    HW151841   5.177   3.045  12.990
16648SOL    HW251842   5.126   3.109  12.863
16649SOL     OW51843   6.067   4.232   7.838
16649SOL    HW151844   6.036   4.144   7.862
16649SOL    HW251845   6.035   4.245   7.749
16650SOL     OW51846   1.451   5.597   1.236
16650SOL    HW151847   1.475   5.602   1.329
16650SOL    HW251848   1.479   5.681   1.200
16651SOL     OW51849   9.724   9.786  10.573
16651SOL    HW151850   9.752   9.791  10.664
16651SOL    HW251851   9.800   9.814  10.522
16652SOL     OW51852  10.690  14.350   4.944
16652SOL    HW151853  10.693  14.291   5.020
16652SOL    HW251854  10.733  14.430   4.973
16653SOL     OW51855   8.112   4.460   2.024
16653SOL    HW151856   8.122   4.373   2.062
16653SOL    HW251857   8.118   4.519   2.098
16654SOL     OW51858   3.727  14.594   6.554
16654SOL    HW151859   3.772  14.660   6.501
16654SOL    HW251860   3.637  14.594   6.522
16655SOL     OW51861   0.472   7.463   5.725
16655SOL    HW151862   0.465   7.392   5.789
16655SOL    HW251863   0.483   7.542   5.778
16656SOL     OW51864  12.219   1.536  13.090
16656SOL    HW151865  12.133   1.493  13.083
16656SOL    HW251866  12.198   1.629  13.102
16657SOL     OW51867   1.223   9.506   4.965
16657SOL    HW151868   1.232   9.598   4.990
16657SOL    HW251869   1.277   9.459   5.028
16658SOL     OW51870  11.246   1.710   0.835
16658SOL    HW151871  11.327   1.697   0.786
16658SOL    HW251872  11.189   1.758   0.775
16659SOL     OW51873  13.560   1.614   4.131
16659SOL    HW151874  13.487   1.664   4.094
16659SOL    HW251875  13.629   1.619   4.064
16660SOL     OW51876  10.743  14.649  13.788
16660SOL    HW151877  10.775  14.650  13.698
16660SOL    HW251878  10.716  14.558  13.804
16661SOL     OW51879   4.510   7.060   5.492
16661SOL    HW151880   4.458   7.021   5.563
16661SOL    HW251881   4.515   6.991   5.426
16662SOL     OW51882   6.666  10.314   8.972
16662SOL    HW151883   6.748  10.343   9.011
16662SOL    HW251884   6.608  10.299   9.046
16663SOL     OW51885   7.679   9.375   1.159
16663SOL    HW151886   7.760   9.344   1.120
16663SOL    HW251887   7.619   9.386   1.084
16664SOL     OW51888   8.411   8.655  12.941
16664SOL    HW151889   8.330   8.622  12.980
16664SOL    HW251890   8.383   8.729  12.886
16665SOL     OW51891   7.447   6.834   9.969
16665SOL    HW151892   7.444   6.768   9.900
16665SOL    HW251893   7.361   6.829  10.011
16666SOL     OW51894   4.652  12.866   0.459
16666SOL    HW151895   4.719  12.800   0.478
16666SOL    HW251896   4.589  12.821   0.403
16667SOL     OW51897  13.744   3.765   5.704
16667SOL    HW151898  13.749   3.787   5.797
16667SOL    HW251899  13.811   3.820   5.662
16668SOL     OW51900   9.290   9.985  12.206
16668SOL    HW151901   9.286  10.033  12.123
16668SOL    HW251902   9.205   9.940  12.211
16669SOL     OW51903   3.937   0.287   8.007
16669SOL    HW151904   3.962   0.272   7.915
16669SOL    HW251905   3.894   0.372   8.007
16670SOL     OW51906   7.371  13.354   0.413
16670SOL    HW151907   7.408  13.329   0.328
16670SOL    HW251908   7.280  13.377   0.394
16671SOL     OW51909   0.957   7.689   0.319
16671SOL    HW151910   1.012   7.723   0.390
16671SOL    HW251911   0.895   7.631   0.362
16672SOL     OW51912   0.727   8.320  10.626
16672SOL    HW151913   0.640   8.285  10.608
16672SOL    HW251914   0.713   8.383  10.697
16673SOL     OW51915   0.743   4.503  10.999
16673SOL    HW151916   0.761   4.591  10.966
16673SOL    HW251917   0.811   4.487  11.064
16674SOL     OW51918   5.582   9.550   0.911
16674SOL    HW151919   5.662   9.554   0.858
16674SOL    HW251920   5.523   9.613   0.869
16675SOL     OW51921  14.606  10.437   3.649
16675SOL    HW151922  14.625  10.512   3.705
16675SOL    HW251923  14.665  10.368   3.679
16676SOL     OW51924  11.386   9.481   3.215
16676SOL    HW151925  11.398   9.422   3.141
16676SOL    HW251926  11.410   9.567   3.182
16677SOL     OW51927  10.205  10.595  10.708
16677SOL    HW151928  10.123  10.643  10.723
16677SOL    HW251929  10.274  10.656  10.736
16678SOL     OW51930  10.483   3.950  13.613
16678SOL    HW151931  10.546   3.914  13.675
16678SOL    HW251932  10.404   3.966  13.665
16679SOL     OW51933   9.215   2.980   1.019
16679SOL    HW151934   9.132   3.024   1.039
16679SOL    HW251935   9.272   3.000   1.093
16680SOL     OW51936  14.125  14.537   2.814
16680SOL    HW151937  14.068  14.481   2.762
16680SOL    HW251938  14.096  14.626   2.792
16681SOL     OW51939   4.850   8.516   4.351
16681SOL    HW151940   4.776   8.481   4.302
16681SOL    HW251941   4.858   8.459   4.428
16682SOL     OW51942   0.753   0.842   3.635
16682SOL    HW151943   0.826   0.888   3.594
16682SOL    HW251944   0.687   0.835   3.566
16683SOL     OW51945  10.538  10.699   0.782
16683SOL    HW151946  10.483  10.721   0.706
16683SOL    HW251947  10.497  10.744   0.855
16684SOL     OW51948   3.237   5.558  13.033
16684SOL    HW151949   3.234   5.651  13.012
16684SOL    HW251950   3.266   5.554  13.124
16685SOL     OW51951   8.823   5.978   6.751
16685SOL    HW151952   8.782   5.926   6.821
16685SOL    HW251953   8.895   6.024   6.794
16686SOL     OW51954   5.777   4.535  12.834
16686SOL    HW151955   5.767   4.470  12.903
16686SOL    HW251956   5.868   4.562  12.839
16687SOL     OW51957   2.992   5.509  10.751
16687SOL    HW151958   2.936   5.567  10.698
16687SOL    HW251959   3.057   5.568  10.789
16688SOL     OW51960   5.021  11.287   2.095
16688SOL    HW151961   4.999  11.272   2.003
16688SOL    HW251962   4.986  11.210   2.140
16689SOL     OW51963   8.634  14.219   4.362
16689SOL    HW151964   8.662  14.224   4.453
16689SOL    HW251965   8.540  14.204   4.367
16690SOL     OW51966  14.189   0.930   3.337
16690SOL    HW151967  14.208   1.013   3.292
16690SOL    HW251968  14.276   0.895   3.360
16691SOL     OW51969   0.702   3.277   3.958
16691SOL    HW151970   0.647   3.260   4.034
16691SOL    HW251971   0.704   3.194   3.910
16692SOL     OW51972   2.387   8.554   2.464
16692SOL    HW151973   2.420   8.470   2.432
16692SOL    HW251974   2.367   8.539   2.556
16693SOL     OW51975   1.889  13.977   5.314
16693SOL    HW151976   1.920  14.032   5.242
16693SOL    HW251977   1.964  13.922   5.336
16694SOL     OW51978   7.990   4.221  10.282
16694SOL    HW151979   7.970   4.265  10.365
16694SOL    HW251980   8.066   4.167  10.302
16695SOL     OW51981   3.693  13.041   0.371
16695SOL    HW151982   3.604  13.024   0.402
16695SOL    HW251983   3.748  13.028   0.449
16696SOL     OW51984  12.048   1.552   4.687
16696SOL    HW151985  12.089   1.638   4.697
16696SOL    HW251986  11.957   1.571   4.664
16697SOL     OW51987   6.115  10.627   0.085
16697SOL    HW151988   6.095  10.644  14.868
16697SOL    HW251989   6.181  10.693   0.108
16698SOL     OW51990  14.708   3.708   0.740
16698SOL    HW151991  14.732   3.699   0.647
16698SOL    HW251992  14.730   3.798   0.762
16699SOL     OW51993   8.760  11.025   5.138
16699SOL    HW151994   8.679  10.983   5.166
16699SOL    HW251995   8.731  11.099   5.085
16700SOL     OW51996   0.138   4.551   8.694
16700SOL    HW151997   0.130   4.488   8.623
16700SOL    HW251998   0.225   4.588   8.684
16701SOL     OW51999  14.282   4.192   8.522
16701SOL    HW152000  14.205   4.159   8.475
16701SOL    HW252001  14.313   4.118   8.573
16702SOL     OW52002   9.973  14.019  14.251
16702SOL    HW152003   9.927  13.969  14.184
16702SOL    HW252004  10.063  14.026  14.219
16703SOL     OW52005  11.518  13.154  10.517
16703SOL    HW152006  11.482  13.066  10.531
16703SOL    HW252007  11.457  13.196  10.456
16704SOL     OW52008   6.706   4.530   2.151
16704SOL    HW152009   6.761   4.452   2.154
16704SOL    HW252010   6.687   4.549   2.243
16705SOL     OW52011   5.297   0.579   8.293
16705SOL    HW152012   5.371   0.588   8.354
16705SOL    HW252013   5.302   0.488   8.262
16706SOL     OW52014  13.450   8.400   5.569
16706SOL    HW152015  13.362   8.366   5.587
16706SOL    HW252016  13.496   8.394   5.653
16707SOL     OW52017   7.499   5.042  11.024
16707SOL    HW152018   7.518   4.981  10.952
16707SOL    HW252019   7.455   5.116  10.983
16708SOL     OW52020  14.730  14.376   3.814
16708SOL    HW152021  14.739  14.341   3.903
16708SOL    HW252022  14.744  14.470   3.824
16709SOL     OW52023   6.824  10.426   5.765
16709SOL    HW152024   6.842  10.487   5.692
16709SOL    HW252025   6.843  10.477   5.844
16710SOL     OW52026   4.463   9.388   0.746
16710SOL    HW152027   4.429   9.383   0.835
16710SOL    HW252028   4.392   9.355   0.691
16711SOL     OW52029   3.539   2.808  12.999
16711SOL    HW152030   3.465   2.847  13.044
16711SOL    HW252031   3.522   2.714  13.001
16712SOL     OW52032   4.787  13.791   7.244
16712SOL    HW152033   4.794  13.695   7.247
16712SOL    HW252034   4.694  13.807   7.229
16713SOL     OW52035   5.684   4.884  10.609
16713SOL    HW152036   5.756   4.826  10.583
16713SOL    HW252037   5.716   4.928  10.688
16714SOL     OW52038   9.891  11.244  13.991
16714SOL    HW152039   9.836  11.178  13.950
16714SOL    HW252040   9.943  11.196  14.056
16715SOL     OW52041  10.465   7.674  11.833
16715SOL    HW152042  10.546   7.635  11.798
16715SOL    HW252043  10.399   7.654  11.767
16716SOL     OW52044   1.798  11.755   6.762
16716SOL    HW152045   1.844  11.837   6.742
16716SOL    HW252046   1.857  11.709   6.822
16717SOL     OW52047   8.848   3.757   3.393
16717SOL    HW152048   8.883   3.728   3.477
16717SOL    HW252049   8.894   3.838   3.373
16718SOL     OW52050  14.494  12.238  10.139
16718SOL    HW152051  14.535  12.323  10.160
16718SOL    HW252052  14.500  12.189  10.221
16719SOL     OW52053  10.208   3.545  11.036
16719SOL    HW152054  10.300   3.540  11.013
16719SOL    HW252055  10.162   3.543  10.952
16720SOL     OW52056  10.782  12.867   3.753
16720SOL    HW152057  10.720  12.904   3.691
16720SOL    HW252058  10.832  12.942   3.785
16721SOL     OW52059  13.344   6.613  10.948
16721SOL    HW152060  13.360   6.538  10.890
16721SOL    HW252061  13.346   6.689  10.890
16722SOL     OW52062   3.108   8.946   8.557
16722SOL    HW152063   3.055   8.870   8.583
16722SOL    HW252064   3.048   9.020   8.565
16723SOL     OW52065  12.820  10.417   7.189
16723SOL    HW152066  12.769  10.449   7.263
16723SOL    HW252067  12.898  10.472   7.188
16724SOL     OW52068   1.945   9.044  13.576
16724SOL    HW152069   1.895   9.109  13.625
16724SOL    HW252070   2.027   9.090  13.553
16725SOL     OW52071   2.290   9.196  14.131
16725SOL    HW152072   2.235   9.180  14.054
16725SOL    HW252073   2.228   9.227  14.198
16726SOL     OW52074   3.651  13.134   1.224
16726SOL    HW152075   3.613  13.076   1.290
16726SOL    HW252076   3.662  13.078   1.147
16727SOL     OW52077   0.642   9.308   4.309
16727SOL    HW152078   0.680   9.230   4.268
16727SOL    HW252079   0.672   9.304   4.399
16728SOL     OW52080  14.195  13.356   4.361
16728SOL    HW152081  14.166  13.303   4.436
16728SOL    HW252082  14.174  13.302   4.285
16729SOL     OW52083   3.064  14.846   3.512
16729SOL    HW152084   3.069  14.800   3.428
16729SOL    HW252085   3.104  14.786   3.575
16730SOL     OW52086   7.617   5.784  10.823
16730SOL    HW152087   7.674   5.850  10.862
16730SOL    HW252088   7.664   5.702  10.836
16731SOL     OW52089  10.657  10.792   3.632
16731SOL    HW152090  10.745  10.781   3.669
16731SOL    HW252091  10.639  10.885   3.643
16732SOL     OW52092   8.841  11.154   3.820
16732SOL    HW152093   8.761  11.206   3.812
16732SOL    HW252094   8.912  11.218   3.825
16733SOL     OW52095  13.325   7.131   6.796
16733SOL    HW152096  13.323   7.044   6.758
16733SOL    HW252097  13.353   7.188   6.724
16734SOL     OW52098   3.219  14.715   6.491
16734SOL    HW152099   3.183  14.785   6.436
16734SOL    HW252100   3.174  14.725   6.575
16735SOL     OW52101  12.102   9.493   8.535
16735SOL    HW152102  12.037   9.551   8.496
16735SOL    HW252103  12.051   9.419   8.567
16736SOL     OW52104   0.902  13.753   1.684
16736SOL    HW152105   0.966  13.821   1.706
16736SOL    HW252106   0.897  13.698   1.762
16737SOL     OW52107   0.172   6.177   3.191
16737SOL    HW152108   0.145   6.253   3.243
16737SOL    HW252109   0.262   6.198   3.163
16738SOL     OW52110   7.943   4.215  10.969
16738SOL    HW152111   7.997   4.275  11.020
16738SOL    HW252112   8.005   4.170  10.911
16739SOL     OW52113  10.120  14.110   2.170
16739SOL    HW152114  10.065  14.124   2.093
16739SOL    HW252115  10.079  14.162   2.239
16740SOL     OW52116   9.708   0.420  12.244
16740SOL    HW152117   9.682   0.359  12.175
16740SOL    HW252118   9.670   0.384  12.324
16741SOL     OW52119   9.856  10.341   3.319
16741SOL    HW152120   9.878  10.367   3.230
16741SOL    HW252121   9.832  10.249   3.313
16742SOL     OW52122   3.358  10.762  11.181
16742SOL    HW152123   3.413  10.696  11.139
16742SOL    HW252124   3.409  10.788  11.259
16743SOL     OW52125  12.306  12.765   1.924
16743SOL    HW152126  12.354  12.831   1.974
16743SOL    HW252127  12.219  12.803   1.910
16744SOL     OW52128  14.377   9.456   6.513
16744SOL    HW152129  14.464   9.446   6.550
16744SOL    HW252130  14.332   9.516   6.572
16745SOL     OW52131   4.624  11.461  10.319
16745SOL    HW152132   4.601  11.383  10.370
16745SOL    HW252133   4.561  11.461  10.247
16746SOL     OW52134   2.530   4.191   2.437
16746SOL    HW152135   2.484   4.233   2.364
16746SOL    HW252136   2.584   4.124   2.397
16747SOL     OW52137  10.470  14.009   4.171
16747SOL    HW152138  10.463  14.088   4.224
16747SOL    HW252139  10.410  14.023   4.098
16748SOL     OW52140  13.788   3.161  14.607
16748SOL    HW152141  13.831   3.237  14.647
16748SOL    HW252142  13.855   3.124  14.549
16749SOL     OW52143   4.371   9.423  11.170
16749SOL    HW152144   4.375   9.447  11.263
16749SOL    HW252145   4.419   9.341  11.165
16750SOL     OW52146   3.975  12.317  13.395
16750SOL    HW152147   3.900  12.370  13.426
16750SOL    HW252148   3.942  12.227  13.395
16751SOL     OW52149  13.516   3.907  12.903
16751SOL    HW152150  13.479   3.993  12.881
16751SOL    HW252151  13.441   3.852  12.922
16752SOL     OW52152   4.808   1.067   0.854
16752SOL    HW152153   4.854   1.004   0.798
16752SOL    HW252154   4.864   1.076   0.931
16753SOL     OW52155  14.513   3.293   3.433
16753SOL    HW152156  14.596   3.313   3.477
16753SOL    HW252157  14.533   3.302   3.340
16754SOL     OW52158  14.794  10.286   9.023
16754SOL    HW152159  14.753  10.328   9.098
16754SOL    HW252160  14.760  10.196   9.024
16755SOL     OW52161   7.676   4.092  13.256
16755SOL    HW152162   7.674   4.105  13.351
16755SOL    HW252163   7.645   4.175  13.220
16756SOL     OW52164  10.490   4.936  13.947
16756SOL    HW152165  10.542   4.970  13.873
16756SOL    HW252166  10.403   4.920  13.909
16757SOL     OW52167   3.972   4.185   5.211
16757SOL    HW152168   4.032   4.208   5.281
16757SOL    HW252169   3.902   4.136   5.254
16758SOL     OW52170   3.605   1.344   0.242
16758SOL    HW152171   3.522   1.392   0.233
16758SOL    HW252172   3.646   1.351   0.156
16759SOL     OW52173   8.409   2.057   0.197
16759SOL    HW152174   8.502   2.063   0.172
16759SOL    HW252175   8.398   2.126   0.263
16760SOL     OW52176  12.539   6.167   1.851
16760SOL    HW152177  12.550   6.229   1.779
16760SOL    HW252178  12.609   6.190   1.913
16761SOL     OW52179   9.815   7.749  11.893
16761SOL    HW152180   9.883   7.810  11.922
16761SOL    HW252181   9.734   7.800  11.899
16762SOL     OW52182  10.186  14.101  11.195
16762SOL    HW152183  10.153  14.166  11.256
16762SOL    HW252184  10.188  14.019  11.245
16763SOL     OW52185  10.101   2.442   7.078
16763SOL    HW152186  10.191   2.437   7.047
16763SOL    HW252187  10.103   2.509   7.147
16764SOL     OW52188  13.430   9.107   6.137
16764SOL    HW152189  13.506   9.156   6.105
16764SOL    HW252190  13.405   9.152   6.218
16765SOL     OW52191   2.572   1.165   6.037
16765SOL    HW152192   2.526   1.224   6.096
16765SOL    HW252193   2.662   1.165   6.068
16766SOL     OW52194   5.187  14.245   4.558
16766SOL    HW152195   5.127  14.276   4.627
16766SOL    HW252196   5.235  14.173   4.598
16767SOL     OW52197  12.090   6.320  10.741
16767SOL    HW152198  12.088   6.410  10.774
16767SOL    HW252199  12.107   6.329  10.647
16768SOL     OW52200   6.133   2.210  12.477
16768SOL    HW152201   6.228   2.223  12.480
16768SOL    HW252202   6.100   2.262  12.550
16769SOL     OW52203  11.915  10.228   7.934
16769SOL    HW152204  11.986  10.215   7.997
16769SOL    HW252205  11.851  10.281   7.982
16770SOL     OW52206  12.123   8.048  10.865
16770SOL    HW152207  12.073   7.979  10.910
16770SOL    HW252208  12.154   8.105  10.934
16771SOL     OW52209  14.442   3.431   6.363
16771SOL    HW152210  14.425   3.475   6.447
16771SOL    HW252211  14.358   3.433   6.318
16772SOL     OW52212  13.156   8.011  12.751
16772SOL    HW152213  13.108   8.038  12.829
16772SOL    HW252214  13.248   8.008  12.778
16773SOL     OW52215   1.670   2.679  10.680
16773SOL    HW152216   1.601   2.740  10.706
16773SOL    HW252217   1.627   2.594  10.677
16774SOL     OW52218   1.166   9.601   1.110
16774SOL    HW152219   1.082   9.647   1.114
16774SOL    HW252220   1.229   9.661   1.150
16775SOL     OW52221   5.327   9.590   7.808
16775SOL    HW152222   5.308   9.498   7.823
16775SOL    HW252223   5.333   9.598   7.712
16776SOL     OW52224   7.798  12.444  12.797
16776SOL    HW152225   7.722  12.488  12.837
16776SOL    HW252226   7.760  12.391  12.727
16777SOL     OW52227   2.930   0.195  12.084
16777SOL    HW152228   2.929   0.101  12.099
16777SOL    HW252229   2.884   0.207  12.001
16778SOL     OW52230  10.658   5.939   1.000
16778SOL    HW152231  10.656   5.921   0.906
16778SOL    HW252232  10.581   5.893   1.035
16779SOL     OW52233   9.034   4.746   2.317
16779SOL    HW152234   8.948   4.706   2.334
16779SOL    HW252235   9.096   4.688   2.362
16780SOL     OW52236  11.768  10.602   2.670
16780SOL    HW152237  11.823  10.557   2.606
16780SOL    HW252238  11.763  10.692   2.638
16781SOL     OW52239   6.617   8.684   1.636
16781SOL    HW152240   6.606   8.778   1.649
16781SOL    HW252241   6.712   8.673   1.626
16782SOL     OW52242   4.798   3.065   8.294
16782SOL    HW152243   4.821   2.980   8.330
16782SOL    HW252244   4.878   3.117   8.300
16783SOL     OW52245   5.117   2.203   2.982
16783SOL    HW152246   5.199   2.172   3.021
16783SOL    HW252247   5.081   2.125   2.939
16784SOL     OW52248  10.048  14.182   8.823
16784SOL    HW152249  10.066  14.224   8.907
16784SOL    HW252250   9.959  14.209   8.802
16785SOL     OW52251  12.447   1.570  12.072
16785SOL    HW152252  12.526   1.589  12.123
16785SOL    HW252253  12.411   1.656  12.051
16786SOL     OW52254   1.653   6.482   1.588
16786SOL    HW152255   1.732   6.436   1.559
16786SOL    HW252256   1.583   6.417   1.581
16787SOL     OW52257   5.254   7.288   7.599
16787SOL    HW152258   5.209   7.240   7.668
16787SOL    HW252259   5.219   7.377   7.606
16788SOL     OW52260   9.981   4.176   4.063
16788SOL    HW152261   9.984   4.140   4.152
16788SOL    HW252262   9.913   4.244   4.067
16789SOL     OW52263   3.207  10.761  10.906
16789SOL    HW152264   3.201  10.669  10.933
16789SOL    HW252265   3.176  10.810  10.982
16790SOL     OW52266   1.394   6.447   1.786
16790SOL    HW152267   1.413   6.363   1.744
16790SOL    HW252268   1.478   6.476   1.821
16791SOL     OW52269  14.298   6.970   8.651
16791SOL    HW152270  14.273   6.899   8.592
16791SOL    HW252271  14.331   7.039   8.594
16792SOL     OW52272  12.851   5.903  10.307
16792SOL    HW152273  12.830   5.977  10.363
16792SOL    HW252274  12.782   5.839  10.325
16793SOL     OW52275   0.180   8.885  12.849
16793SOL    HW152276   0.090   8.865  12.877
16793SOL    HW252277   0.215   8.940  12.919
16794SOL     OW52278   6.096  11.063   7.419
16794SOL    HW152279   6.166  11.125   7.440
16794SOL    HW252280   6.029  11.078   7.485
16795SOL     OW52281   6.768  10.766  10.688
16795SOL    HW152282   6.770  10.807  10.601
16795SOL    HW252283   6.757  10.672  10.670
16796SOL     OW52284  12.031   1.109   5.138
16796SOL    HW152285  12.111   1.142   5.097
16796SOL    HW252286  11.991   1.186   5.177
16797SOL     OW52287   6.335   1.763  14.270
16797SOL    HW152288   6.413   1.778  14.217
16797SOL    HW252289   6.297   1.682  14.235
16798SOL     OW52290  12.289   0.916   2.982
16798SOL    HW152291  12.252   0.914   2.895
16798SOL    HW252292  12.376   0.956   2.970
16799SOL     OW52293   5.687   0.045  13.793
16799SOL    HW152294   5.614   0.009  13.842
16799SOL    HW252295   5.756  14.855  13.801
16800SOL     OW52296  14.811  11.584  12.078
16800SOL    HW152297   0.020  11.546  12.103
16800SOL    HW252298  14.833  11.672  12.047
16801SOL     OW52299   3.164  13.981   3.491
16801SOL    HW152300   3.237  13.924   3.514
16801SOL    HW252301   3.203  14.068   3.478
16802SOL     OW52302  12.726   8.115   2.010
16802SOL    HW152303  12.804   8.063   2.028
16802SOL    HW252304  12.675   8.061   1.949
16803SOL     OW52305   8.504   0.564  12.680
16803SOL    HW152306   8.543   0.587  12.765
16803SOL    HW252307   8.579   0.551  12.623
16804SOL     OW52308  11.718   1.057   9.228
16804SOL    HW152309  11.692   1.029   9.141
16804SOL    HW252310  11.767   1.138   9.214
16805SOL     OW52311  10.102  14.352   5.486
16805SOL    HW152312  10.099  14.377   5.394
16805SOL    HW252313  10.108  14.435   5.533
16806SOL     OW52314   4.854   6.809   7.321
16806SOL    HW152315   4.893   6.733   7.365
16806SOL    HW252316   4.762   6.786   7.311
16807SOL     OW52317  11.443   0.002   9.528
16807SOL    HW152318  11.471  14.841   9.444
16807SOL    HW252319  11.525   0.030   9.570
16808SOL     OW52320  13.837   3.111   4.712
16808SOL    HW152321  13.843   3.019   4.738
16808SOL    HW252322  13.875   3.159   4.785
16809SOL     OW52323  14.294  14.429   1.016
16809SOL    HW152324  14.293  14.462   1.106
16809SOL    HW252325  14.333  14.500   0.965
16810SOL     OW52326   5.280  12.352   9.879
16810SOL    HW152327   5.261  12.345   9.972
16810SOL    HW252328   5.214  12.297   9.837
16811SOL     OW52329   8.898   9.121   9.215
16811SOL    HW152330   8.953   9.198   9.204
16811SOL    HW252331   8.882   9.089   9.126
16812SOL     OW52332   1.952  12.399   9.335
16812SOL    HW152333   1.861  12.373   9.348
16812SOL    HW252334   1.950  12.451   9.255
16813SOL     OW52335   1.038  10.288   1.027
16813SOL    HW152336   1.098  10.265   0.957
16813SOL    HW252337   0.967  10.335   0.984
16814SOL     OW52338   9.743  10.642  13.482
16814SOL    HW152339   9.696  10.680  13.408
16814SOL    HW252340   9.712  10.552  13.487
16815SOL     OW52341  10.713   7.472   5.624
16815SOL    HW152342  10.625   7.502   5.644
16815SOL    HW252343  10.759   7.473   5.708
16816SOL     OW52344   9.004   2.445  10.165
16816SOL    HW152345   9.053   2.489  10.095
16816SOL    HW252346   8.973   2.516  10.221
16817SOL     OW52347   2.872   3.458   4.223
16817SOL    HW152348   2.851   3.408   4.301
16817SOL    HW252349   2.789   3.465   4.175
16818SOL     OW52350  12.726  14.246   1.155
16818SOL    HW152351  12.758  14.193   1.082
16818SOL    HW252352  12.805  14.286   1.192
16819SOL     OW52353   6.010   5.930  11.603
16819SOL    HW152354   6.060   5.858  11.642
16819SOL    HW252355   6.021   5.917  11.508
16820SOL     OW52356   2.671   7.609  11.509
16820SOL    HW152357   2.626   7.675  11.563
16820SOL    HW252358   2.714   7.660  11.440
16821SOL     OW52359   0.941   4.753   4.539
16821SOL    HW152360   0.930   4.824   4.603
16821SOL    HW252361   0.979   4.795   4.462
16822SOL     OW52362   6.963   5.090  12.367
16822SOL    HW152363   6.874   5.122  12.380
16822SOL    HW252364   6.976   5.092  12.272
16823SOL     OW52365   5.701   0.263   4.809
16823SOL    HW152366   5.661   0.247   4.894
16823SOL    HW252367   5.632   0.240   4.746
16824SOL     OW52368   3.186   0.545   7.235
16824SOL    HW152369   3.256   0.578   7.179
16824SOL    HW252370   3.225   0.471   7.282
16825SOL     OW52371  10.688  14.221   3.726
16825SOL    HW152372  10.639  14.234   3.806
16825SOL    HW252373  10.688  14.307   3.683
16826SOL     OW52374   3.713  12.475  12.563
16826SOL    HW152375   3.686  12.429  12.642
16826SOL    HW252376   3.789  12.428  12.531
16827SOL     OW52377   3.764   9.071   5.553
16827SOL    HW152378   3.766   8.976   5.567
16827SOL    HW252379   3.692   9.102   5.608
16828SOL     OW52380  13.926   5.137   5.373
16828SOL    HW152381  13.942   5.132   5.467
16828SOL    HW252382  13.935   5.230   5.352
16829SOL     OW52383   5.508   3.276  12.051
16829SOL    HW152384   5.463   3.215  11.992
16829SOL    HW252385   5.439   3.334  12.083
16830SOL     OW52386  11.269  11.108   9.293
16830SOL    HW152387  11.308  11.050   9.360
16830SOL    HW252388  11.261  11.053   9.215
16831SOL     OW52389   0.191   2.358   4.895
16831SOL    HW152390   0.119   2.379   4.954
16831SOL    HW252391   0.220   2.443   4.861
16832SOL     OW52392  11.176   2.177   4.983
16832SOL    HW152393  11.246   2.130   4.938
16832SOL    HW252394  11.183   2.148   5.074
16833SOL     OW52395   5.812   2.685   8.460
16833SOL    HW152396   5.907   2.684   8.457
16833SOL    HW252397   5.786   2.601   8.421
16834SOL     OW52398  12.688   3.122   0.101
16834SOL    HW152399  12.649   3.164   0.178
16834SOL    HW252400  12.776   3.098   0.129
16835SOL     OW52401   6.037   4.787   2.279
16835SOL    HW152402   6.098   4.776   2.352
16835SOL    HW252403   5.998   4.873   2.292
16836SOL     OW52404  13.536  11.812   5.854
16836SOL    HW152405  13.494  11.873   5.915
16836SOL    HW252406  13.509  11.725   5.885
16837SOL     OW52407  14.068  10.806  10.272
16837SOL    HW152408  14.082  10.735  10.209
16837SOL    HW252409  14.129  10.786  10.343
16838SOL     OW52410   7.961  13.913   7.842
16838SOL    HW152411   8.052  13.937   7.822
16838SOL    HW252412   7.944  13.836   7.787
16839SOL     OW52413  12.713   1.692   4.587
16839SOL    HW152414  12.654   1.764   4.610
16839SOL    HW252415  12.729   1.646   4.670
16840SOL     OW52416   1.287   8.159   1.716
16840SOL    HW152417   1.211   8.104   1.732
16840SOL    HW252418   1.306   8.200   1.801
16841SOL     OW52419  11.927   0.614  11.773
16841SOL    HW152420  11.976   0.540  11.808
16841SOL    HW252421  11.933   0.681  11.841
16842SOL     OW52422  10.806  12.719   1.975
16842SOL    HW152423  10.867  12.786   2.004
16842SOL    HW252424  10.858  12.660   1.921
16843SOL     OW52425   3.251   5.625  14.137
16843SOL    HW152426   3.266   5.717  14.114
16843SOL    HW252427   3.324   5.578  14.097
16844SOL     OW52428  13.670   2.641  13.284
16844SOL    HW152429  13.684   2.735  13.296
16844SOL    HW252430  13.614   2.635  13.207
16845SOL     OW52431  12.567   6.627   3.431
16845SOL    HW152432  12.508   6.694   3.466
16845SOL    HW252433  12.519   6.589   3.357
16846SOL     OW52434   0.106   2.516  11.497
16846SOL    HW152435   0.100   2.466  11.579
16846SOL    HW252436   0.187   2.566  11.505
16847SOL     OW52437   8.392  12.475  11.587
16847SOL    HW152438   8.406  12.570  11.596
16847SOL    HW252439   8.442  12.451  11.509
16848SOL     OW52440   1.576   6.552  14.206
16848SOL    HW152441   1.583   6.499  14.127
16848SOL    HW252442   1.568   6.489  14.277
16849SOL     OW52443   4.633  11.724   3.019
16849SOL    HW152444   4.675  11.748   2.937
16849SOL    HW252445   4.548  11.769   3.017
16850SOL     OW52446   1.004   8.970  13.749
16850SOL    HW152447   0.971   8.953  13.837
16850SOL    HW252448   0.950   9.043  13.717
16851SOL     OW52449   6.492   6.862  12.552
16851SOL    HW152450   6.429   6.799  12.517
16851SOL    HW252451   6.475   6.943  12.502
16852SOL     OW52452  14.455   0.625   0.664
16852SOL    HW152453  14.401   0.649   0.740
16852SOL    HW252454  14.486   0.708   0.629
16853SOL     OW52455   7.872   1.911  14.512
16853SOL    HW152456   7.904   1.866  14.434
16853SOL    HW252457   7.778   1.921  14.497
16854SOL     OW52458   4.331  12.233   2.319
16854SOL    HW152459   4.368  12.256   2.233
16854SOL    HW252460   4.265  12.166   2.299
16855SOL     OW52461   3.792  12.810   5.077
16855SOL    HW152462   3.725  12.815   5.145
16855SOL    HW252463   3.743  12.813   4.994
16856SOL     OW52464  11.882  10.014  14.788
16856SOL    HW152465  11.904   9.924  14.760
16856SOL    HW252466  11.862  10.006   0.006
16857SOL     OW52467  14.091   4.277   5.251
16857SOL    HW152468  14.031   4.348   5.230
16857SOL    HW252469  14.090   4.221   5.173
16858SOL     OW52470   9.606  12.893  11.767
16858SOL    HW152471   9.528  12.921  11.815
16858SOL    HW252472   9.641  12.821  11.819
16859SOL     OW52473   4.145   1.564  11.033
16859SOL    HW152474   4.230   1.589  10.999
16859SOL    HW252475   4.152   1.577  11.128
16860SOL     OW52476  14.649   6.268   9.900
16860SOL    HW152477  14.566   6.271   9.853
16860SOL    HW252478  14.714   6.247   9.834
16861SOL     OW52479  10.916   8.742   6.085
16861SOL    HW152480  10.980   8.703   6.143
16861SOL    HW252481  10.957   8.822   6.053
16862SOL     OW52482   7.224   8.019  14.526
16862SOL    HW152483   7.306   8.067  14.535
16862SOL    HW252484   7.245   7.945  14.468
16863SOL     OW52485   0.709  13.185   2.752
16863SOL    HW152486   0.643  13.131   2.795
16863SOL    HW252487   0.744  13.129   2.682
16864SOL     OW52488   7.833  13.696   1.742
16864SOL    HW152489   7.783  13.633   1.794
16864SOL    HW252490   7.843  13.772   1.800
16865SOL     OW52491   3.586  10.691  13.410
16865SOL    HW152492   3.572  10.688  13.504
16865SOL    HW252493   3.613  10.601  13.387
16866SOL     OW52494  14.864   0.109   8.388
16866SOL    HW152495  14.865   0.025   8.343
16866SOL    HW252496   0.021   0.089   8.476
16867SOL     OW52497  12.888  13.051   5.636
16867SOL    HW152498  12.937  12.976   5.601
16867SOL    HW252499  12.799  13.017   5.649
16868SOL     OW52500   3.895   8.886   1.318
16868SOL    HW152501   3.927   8.833   1.391
16868SOL    HW252502   3.957   8.868   1.247
16869SOL     OW52503   6.544   2.774  12.332
16869SOL    HW152504   6.456   2.796  12.363
16869SOL    HW252505   6.555   2.682  12.356
16870SOL     OW52506   5.630   8.274  11.204
16870SOL    HW152507   5.688   8.350  11.207
16870SOL    HW252508   5.678   8.209  11.152
16871SOL     OW52509   5.748  12.866   4.896
16871SOL    HW152510   5.825  12.921   4.880
16871SOL    HW252511   5.739  12.814   4.817
16872SOL     OW52512  12.474   9.088   6.659
16872SOL    HW152513  12.509   9.109   6.573
16872SOL    HW252514  12.379   9.086   6.647
16873SOL     OW52515   7.297   5.263  13.427
16873SOL    HW152516   7.357   5.193  13.454
16873SOL    HW252517   7.210   5.224  13.436
16874SOL     OW52518   6.304   5.313  14.243
16874SOL    HW152519   6.318   5.248  14.311
16874SOL    HW252520   6.262   5.387  14.287
16875SOL     OW52521  11.639   0.424   1.269
16875SOL    HW152522  11.564   0.396   1.321
16875SOL    HW252523  11.601   0.455   1.187
16876SOL     OW52524   9.069   4.211  13.315
16876SOL    HW152525   8.983   4.244  13.290
16876SOL    HW252526   9.063   4.198  13.410
16877SOL     OW52527   2.333   2.062  12.662
16877SOL    HW152528   2.295   2.007  12.594
16877SOL    HW252529   2.378   2.131  12.614
16878SOL     OW52530  14.540   4.770   3.364
16878SOL    HW152531  14.510   4.772   3.273
16878SOL    HW252532  14.584   4.854   3.377
16879SOL     OW52533   0.933   3.803   5.726
16879SOL    HW152534   0.990   3.810   5.649
16879SOL    HW252535   0.983   3.845   5.796
16880SOL     OW52536  12.307   0.033   5.967
16880SOL    HW152537  12.343   0.121   5.956
16880SOL    HW252538  12.214   0.042   5.947
16881SOL     OW52539   4.907   8.436   8.333
16881SOL    HW152540   4.932   8.368   8.396
16881SOL    HW252541   4.941   8.404   8.250
16882SOL     OW52542   2.919  10.381  13.511
16882SOL    HW152543   2.981  10.329  13.460
16882SOL    HW252544   2.887  10.320  13.578
16883SOL     OW52545   1.029  12.832  11.150
16883SOL    HW152546   1.003  12.914  11.192
16883SOL    HW252547   1.125  12.833  11.153
16884SOL     OW52548   9.385   8.339   1.964
16884SOL    HW152549   9.426   8.263   2.004
16884SOL    HW252550   9.421   8.414   2.013
16885SOL     OW52551   7.150  10.757  14.325
16885SOL    HW152552   7.079  10.757  14.260
16885SOL    HW252553   7.163  10.665  14.345
16886SOL     OW52554   4.388   3.900  11.790
16886SOL    HW152555   4.390   3.948  11.873
16886SOL    HW252556   4.295   3.889  11.771
16887SOL     OW52557   2.334  13.762   7.468
16887SOL    HW152558   2.348  13.852   7.439
16887SOL    HW252559   2.277  13.769   7.545
16888SOL     OW52560  11.262   2.148   3.929
16888SOL    HW152561  11.352   2.115   3.926
16888SOL    HW252562  11.235   2.152   3.837
16889SOL     OW52563   4.183   3.850   5.104
16889SOL    HW152564   4.222   3.852   5.191
16889SOL    HW252565   4.194   3.759   5.075
16890SOL     OW52566   4.376  14.098   6.845
16890SOL    HW152567   4.323  14.068   6.771
16890SOL    HW252568   4.320  14.087   6.921
16891SOL     OW52569  11.897   9.970  13.577
16891SOL    HW152570  11.973   9.912  13.585
16891SOL    HW252571  11.879   9.975  13.483
16892SOL     OW52572   5.145   1.649  13.857
16892SOL    HW152573   5.137   1.678  13.766
16892SOL    HW252574   5.055   1.643  13.889
16893SOL     OW52575   9.101   7.987   7.221
16893SOL    HW152576   9.019   8.005   7.267
16893SOL    HW252577   9.100   8.046   7.146
16894SOL     OW52578   2.375  10.664   7.824
16894SOL    HW152579   2.386  10.573   7.851
16894SOL    HW252580   2.281  10.681   7.833
16895SOL     OW52581  11.099   1.197   9.402
16895SOL    HW152582  11.169   1.220   9.341
16895SOL    HW252583  11.068   1.282   9.434
16896SOL     OW52584   2.297   8.533  13.035
16896SOL    HW152585   2.245   8.598  13.082
16896SOL    HW252586   2.309   8.570  12.948
16897SOL     OW52587  14.231  12.200  10.318
16897SOL    HW152588  14.177  12.264  10.272
16897SOL    HW252589  14.277  12.252  10.385
16898SOL     OW52590  10.016   9.438   6.836
16898SOL    HW152591  10.069   9.497   6.782
16898SOL    HW252592  10.018   9.477   6.923
16899SOL     OW52593   3.500   7.513   1.537
16899SOL    HW152594   3.417   7.536   1.494
16899SOL    HW252595   3.483   7.526   1.630
16900SOL     OW52596   1.937  11.102   2.062
16900SOL    HW152597   1.872  11.035   2.080
16900SOL    HW252598   1.913  11.175   2.119
16901SOL     OW52599   6.411  11.303   4.511
16901SOL    HW152600   6.391  11.395   4.526
16901SOL    HW252601   6.504  11.295   4.535
16902SOL     OW52602   9.558   4.863   7.800
16902SOL    HW152603   9.595   4.780   7.772
16902SOL    HW252604   9.591   4.877   7.889
16903SOL     OW52605   4.678   9.834  14.719
16903SOL    HW152606   4.718   9.915  14.752
16903SOL    HW252607   4.646   9.857  14.632
16904SOL     OW52608   7.394   5.933   7.678
16904SOL    HW152609   7.434   5.893   7.600
16904SOL    HW252610   7.300   5.920   7.667
16905SOL     OW52611   4.945   0.676   9.551
16905SOL    HW152612   4.967   0.714   9.466
16905SOL    HW252613   5.004   0.719   9.613
16906SOL     OW52614  12.060   0.470   0.235
16906SOL    HW152615  12.129   0.477   0.169
16906SOL    HW252616  12.050   0.560   0.268
16907SOL     OW52617  10.107   6.387  10.963
16907SOL    HW152618  10.028   6.374  11.015
16907SOL    HW252619  10.086   6.350  10.877
16908SOL     OW52620   9.432   9.283   4.832
16908SOL    HW152621   9.441   9.282   4.927
16908SOL    HW252622   9.504   9.229   4.800
16909SOL     OW52623  13.281   3.727  14.023
16909SOL    HW152624  13.209   3.758  13.968
16909SOL    HW252625  13.326   3.807  14.050
16910SOL     OW52626   7.747   9.595  11.359
16910SOL    HW152627   7.687   9.536  11.405
16910SOL    HW252628   7.727   9.682  11.393
16911SOL     OW52629   1.224   4.928   9.575
16911SOL    HW152630   1.170   4.973   9.639
16911SOL    HW252631   1.201   4.835   9.584
16912SOL     OW52632   7.986   3.403   9.157
16912SOL    HW152633   8.056   3.466   9.143
16912SOL    HW252634   8.003   3.333   9.093
16913SOL     OW52635   0.671  10.734   9.512
16913SOL    HW152636   0.684  10.829   9.506
16913SOL    HW252637   0.584  10.720   9.475
16914SOL     OW52638   0.529  11.922   6.603
16914SOL    HW152639   0.491  11.834   6.607
16914SOL    HW252640   0.624  11.907   6.610
16915SOL     OW52641   2.162   8.372  13.915
16915SOL    HW152642   2.217   8.404  13.843
16915SOL    HW252643   2.130   8.452  13.957
16916SOL     OW52644   1.777  12.370   3.641
16916SOL    HW152645   1.724  12.292   3.623
16916SOL    HW252646   1.831  12.381   3.563
16917SOL     OW52647   3.899   7.523   8.263
16917SOL    HW152648   3.980   7.533   8.312
16917SOL    HW252649   3.920   7.558   8.176
16918SOL     OW52650   4.975   0.362  13.979
16918SOL    HW152651   5.010   0.393  13.895
16918SOL    HW252652   5.041   0.299  14.010
16919SOL     OW52653   8.468   4.021  14.195
16919SOL    HW152654   8.470   3.940  14.246
16919SOL    HW252655   8.456   4.090  14.261
16920SOL     OW52656  10.814   8.906  12.797
16920SOL    HW152657  10.741   8.937  12.851
16920SOL    HW252658  10.780   8.826  12.756
16921SOL     OW52659   8.277   0.060   6.960
16921SOL    HW152660   8.240  14.859   7.004
16921SOL    HW252661   8.248   0.051   6.869
16922SOL     OW52662  11.589   9.248   5.909
16922SOL    HW152663  11.535   9.224   5.985
16922SOL    HW252664  11.572   9.341   5.897
16923SOL     OW52665   3.388   2.257   0.396
16923SOL    HW152666   3.476   2.252   0.433
16923SOL    HW252667   3.335   2.294   0.467
16924SOL     OW52668   6.710   9.579  14.132
16924SOL    HW152669   6.662   9.660  14.146
16924SOL    HW252670   6.662   9.513  14.183
16925SOL     OW52671   2.254  14.153   9.771
16925SOL    HW152672   2.307  14.114   9.701
16925SOL    HW252673   2.303  14.136   9.851
16926SOL     OW52674   2.279   5.163   2.056
16926SOL    HW152675   2.236   5.145   1.972
16926SOL    HW252676   2.207   5.162   2.120
16927SOL     OW52677   4.165   1.651   9.859
16927SOL    HW152678   4.152   1.585   9.927
16927SOL    HW252679   4.220   1.608   9.794
16928SOL     OW52680   0.683  12.968  11.615
16928SOL    HW152681   0.616  12.933  11.674
16928SOL    HW252682   0.739  13.021  11.670
16929SOL     OW52683   7.681  11.190   5.236
16929SOL    HW152684   7.625  11.157   5.166
16929SOL    HW252685   7.668  11.285   5.234
16930SOL     OW52686   3.575   1.719   8.638
16930SOL    HW152687   3.554   1.628   8.617
16930SOL    HW252688   3.611   1.755   8.557
16931SOL     OW52689   9.382  11.881   3.133
16931SOL    HW152690   9.316  11.897   3.201
16931SOL    HW252691   9.334  11.890   3.051
16932SOL     OW52692   6.508   3.304   0.048
16932SOL    HW152693   6.527   3.392   0.080
16932SOL    HW252694   6.592   3.271   0.017
16933SOL     OW52695  13.638  14.715  12.123
16933SOL    HW152696  13.547  14.739  12.105
16933SOL    HW252697  13.632  14.641  12.182
16934SOL     OW52698   1.205   0.985   5.863
16934SOL    HW152699   1.262   0.920   5.903
16934SOL    HW252700   1.132   0.993   5.924
16935SOL     OW52701  11.243   8.829  11.901
16935SOL    HW152702  11.182   8.884  11.852
16935SOL    HW252703  11.325   8.833  11.851
16936SOL     OW52704   2.048   3.408   7.531
16936SOL    HW152705   2.087   3.350   7.466
16936SOL    HW252706   2.025   3.487   7.482
16937SOL     OW52707   1.701   8.380   7.396
16937SOL    HW152708   1.637   8.308   7.394
16937SOL    HW252709   1.649   8.458   7.377
16938SOL     OW52710   3.207   9.303  10.014
16938SOL    HW152711   3.214   9.362   9.939
16938SOL    HW252712   3.113   9.292  10.027
16939SOL     OW52713   4.714   7.922  14.232
16939SOL    HW152714   4.722   8.017  14.235
16939SOL    HW252715   4.702   7.901  14.140
16940SOL     OW52716  14.812   3.148  11.879
16940SOL    HW152717  14.844   3.188  11.799
16940SOL    HW252718  14.846   3.203  11.949
16941SOL     OW52719   8.304   4.036  13.757
16941SOL    HW152720   8.310   3.947  13.720
16941SOL    HW252721   8.280   4.022  13.848
16942SOL     OW52722   1.829  13.995   5.761
16942SOL    HW152723   1.865  14.055   5.696
16942SOL    HW252724   1.772  14.049   5.815
16943SOL     OW52725  13.107   6.045  13.398
16943SOL    HW152726  13.109   6.061  13.304
16943SOL    HW252727  13.090   5.951  13.406
16944SOL     OW52728  14.149   9.208   4.829
16944SOL    HW152729  14.125   9.269   4.898
16944SOL    HW252730  14.207   9.145   4.871
16945SOL     OW52731   1.523   1.277   2.337
16945SOL    HW152732   1.615   1.301   2.336
16945SOL    HW252733   1.480   1.342   2.282
16946SOL     OW52734  13.884  10.513  10.531
16946SOL    HW152735  13.911  10.583  10.591
16946SOL    HW252736  13.957  10.451  10.532
16947SOL     OW52737   1.136   3.355   3.167
16947SOL    HW152738   1.183   3.439   3.168
16947SOL    HW252739   1.162   3.313   3.249
16948SOL     OW52740   6.190   9.871   2.418
16948SOL    HW152741   6.268   9.817   2.412
16948SOL    HW252742   6.138   9.846   2.341
16949SOL     OW52743   8.018   4.000   1.793
16949SOL    HW152744   8.052   3.944   1.862
16949SOL    HW252745   8.094   4.018   1.737
16950SOL     OW52746  11.520  12.834   7.455
16950SOL    HW152747  11.445  12.862   7.507
16950SOL    HW252748  11.493  12.751   7.416
16951SOL     OW52749   5.767   9.959  14.840
16951SOL    HW152750   5.833  10.028  14.848
16951SOL    HW252751   5.776   9.928  14.750
16952SOL     OW52752   4.317  14.857   3.266
16952SOL    HW152753   4.384   0.022   3.210
16952SOL    HW252754   4.358  14.855   3.353
16953SOL     OW52755   3.447  11.385  13.183
16953SOL    HW152756   3.539  11.374  13.156
16953SOL    HW252757   3.425  11.302  13.225
16954SOL     OW52758  11.511  10.524   2.140
16954SOL    HW152759  11.542  10.464   2.208
16954SOL    HW252760  11.549  10.491   2.059
16955SOL     OW52761  13.819   9.927   9.892
16955SOL    HW152762  13.775  10.012   9.900
16955SOL    HW252763  13.787   9.876   9.967
16956SOL     OW52764  13.595   7.382   7.722
16956SOL    HW152765  13.541   7.435   7.663
16956SOL    HW252766  13.638   7.318   7.665
16957SOL     OW52767  11.576   6.391   8.713
16957SOL    HW152768  11.653   6.350   8.753
16957SOL    HW252769  11.540   6.447   8.781
16958SOL     OW52770   4.714  13.205   4.642
16958SOL    HW152771   4.639  13.238   4.693
16958SOL    HW252772   4.693  13.113   4.626
16959SOL     OW52773   8.765  10.648   6.585
16959SOL    HW152774   8.692  10.657   6.525
16959SOL    HW252775   8.737  10.581   6.647
16960SOL     OW52776   8.710  11.589   9.297
16960SOL    HW152777   8.722  11.579   9.392
16960SOL    HW252778   8.779  11.537   9.258
16961SOL     OW52779  10.969   7.013  11.969
16961SOL    HW152780  10.977   6.972  12.055
16961SOL    HW252781  11.049   7.063  11.958
16962SOL     OW52782   0.986   1.365   1.380
16962SOL    HW152783   0.959   1.405   1.298
16962SOL    HW252784   0.954   1.425   1.448
16963SOL     OW52785  10.595  11.338   0.389
16963SOL    HW152786  10.514  11.332   0.439
16963SOL    HW252787  10.638  11.253   0.402
16964SOL     OW52788   4.848  10.135   6.469
16964SOL    HW152789   4.836  10.100   6.558
16964SOL    HW252790   4.856  10.229   6.482
16965SOL     OW52791   7.739   1.036   0.818
16965SOL    HW152792   7.717   0.948   0.850
16965SOL    HW252793   7.656   1.071   0.786
16966SOL     OW52794   3.596  13.921   8.982
16966SOL    HW152795   3.542  13.855   8.937
16966SOL    HW252796   3.534  13.990   9.005
16967SOL     OW52797   6.029  12.383   4.239
16967SOL    HW152798   6.054  12.325   4.311
16967SOL    HW252799   5.936  12.364   4.225
16968SOL     OW52800   3.758   2.939   0.965
16968SOL    HW152801   3.825   3.006   0.950
16968SOL    HW252802   3.761   2.885   0.887
16969SOL     OW52803   3.709  13.195   9.622
16969SOL    HW152804   3.690  13.117   9.673
16969SOL    HW252805   3.694  13.168   9.531
16970SOL     OW52806   0.367   0.944   2.501
16970SOL    HW152807   0.309   0.891   2.556
16970SOL    HW252808   0.388   0.887   2.427
16971SOL     OW52809   7.739  12.655   3.043
16971SOL    HW152810   7.729  12.634   2.950
16971SOL    HW252811   7.726  12.571   3.088
16972SOL     OW52812   5.712   8.743  11.812
16972SOL    HW152813   5.630   8.695  11.820
16972SOL    HW252814   5.692   8.831  11.845
16973SOL     OW52815  14.635   2.624  12.107
16973SOL    HW152816  14.599   2.551  12.157
16973SOL    HW252817  14.709   2.655  12.159
16974SOL     OW52818   2.510   8.181  10.471
16974SOL    HW152819   2.516   8.091  10.502
16974SOL    HW252820   2.445   8.221  10.530
16975SOL     OW52821   3.827  13.136  13.579
16975SOL    HW152822   3.811  13.217  13.626
16975SOL    HW252823   3.902  13.155  13.522
16976SOL     OW52824  11.147   3.539  10.485
16976SOL    HW152825  11.058   3.508  10.470
16976SOL    HW252826  11.146   3.572  10.575
16977SOL     OW52827   4.222   0.469   6.284
16977SOL    HW152828   4.308   0.511   6.274
16977SOL    HW252829   4.161   0.541   6.293
16978SOL     OW52830   6.989   5.106  13.896
16978SOL    HW152831   6.957   5.166  13.964
16978SOL    HW252832   7.068   5.149  13.863
16979SOL     OW52833  13.357  10.527   1.640
16979SOL    HW152834  13.359  10.506   1.547
16979SOL    HW252835  13.393  10.616   1.645
16980SOL     OW52836   8.034   5.445  13.475
16980SOL    HW152837   7.971   5.374  13.462
16980SOL    HW252838   8.113   5.402  13.508
16981SOL     OW52839  12.478   5.572  10.526
16981SOL    HW152840  12.458   5.663  10.546
16981SOL    HW252841  12.393   5.528  10.523
16982SOL     OW52842  12.545  11.063  12.715
16982SOL    HW152843  12.566  10.997  12.650
16982SOL    HW252844  12.530  11.143  12.664
16983SOL     OW52845  11.589  10.492  10.318
16983SOL    HW152846  11.679  10.525  10.321
16983SOL    HW252847  11.536  10.565  10.350
16984SOL     OW52848  13.950   1.054   7.444
16984SOL    HW152849  13.960   1.100   7.360
16984SOL    HW252850  13.951   0.961   7.421
16985SOL     OW52851  13.180   9.417   8.295
16985SOL    HW152852  13.100   9.454   8.332
16985SOL    HW252853  13.246   9.427   8.364
16986SOL     OW52854  13.565   9.198   9.353
16986SOL    HW152855  13.559   9.106   9.329
16986SOL    HW252856  13.492   9.239   9.307
16987SOL     OW52857   1.735  14.191   1.976
16987SOL    HW152858   1.823  14.208   2.010
16987SOL    HW252859   1.748  14.128   1.906
16988SOL     OW52860  14.202  12.109   9.851
16988SOL    HW152861  14.293  12.086   9.870
16988SOL    HW252862  14.193  12.199   9.884
16989SOL     OW52863   2.633   9.335  10.248
16989SOL    HW152864   2.569   9.399  10.279
16989SOL    HW252865   2.688   9.384  10.187
16990SOL     OW52866  14.818   0.389  10.584
16990SOL    HW152867  14.817   0.311  10.639
16990SOL    HW252868  14.868   0.453  10.635
16991SOL     OW52869   0.023  14.617   7.772
16991SOL    HW152870  14.808  14.584   7.779
16991SOL    HW252871   0.073  14.543   7.737
16992SOL     OW52872   5.610  10.452   7.403
16992SOL    HW152873   5.625  10.374   7.350
16992SOL    HW252874   5.689  10.460   7.457
16993SOL     OW52875   5.071  13.089   9.988
16993SOL    HW152876   5.089  13.101   9.894
16993SOL    HW252877   5.026  13.169  10.014
16994SOL     OW52878  12.866   5.550   8.085
16994SOL    HW152879  12.773   5.527   8.082
16994SOL    HW252880  12.891   5.562   7.993
16995SOL     OW52881   9.384  13.834   7.993
16995SOL    HW152882   9.431  13.783   8.059
16995SOL    HW252883   9.298  13.793   7.987
16996SOL     OW52884   9.937   7.369   8.433
16996SOL    HW152885   9.876   7.363   8.360
16996SOL    HW252886  10.018   7.330   8.400
16997SOL     OW52887   6.842   6.372   3.653
16997SOL    HW152888   6.923   6.346   3.697
16997SOL    HW252889   6.859   6.355   3.561
16998SOL     OW52890   6.955  12.057   0.402
16998SOL    HW152891   6.885  11.993   0.417
16998SOL    HW252892   6.921  12.138   0.441
16999SOL     OW52893   5.060  11.206   5.711
16999SOL    HW152894   5.069  11.111   5.715
16999SOL    HW252895   5.024  11.223   5.624
17000SOL     OW52896   4.931   1.555   5.484
17000SOL    HW152897   5.002   1.612   5.516
17000SOL    HW252898   4.951   1.470   5.522
17001SOL     OW52899  11.180   7.034   3.822
17001SOL    HW152900  11.200   7.056   3.913
17001SOL    HW252901  11.177   6.939   3.820
17002SOL     OW52902   1.723  14.074   9.383
17002SOL    HW152903   1.798  14.099   9.329
17002SOL    HW252904   1.724  14.135   9.456
17003SOL     OW52905   9.424  12.289   5.891
17003SOL    HW152906   9.336  12.306   5.860
17003SOL    HW252907   9.477  12.283   5.812
17004SOL     OW52908   9.618   8.921   6.062
17004SOL    HW152909   9.671   8.896   5.986
17004SOL    HW252910   9.680   8.918   6.136
17005SOL     OW52911  14.436   2.502  13.342
17005SOL    HW152912  14.496   2.461  13.405
17005SOL    HW252913  14.386   2.564  13.395
17006SOL     OW52914   8.264  11.762   5.005
17006SOL    HW152915   8.284  11.703   4.932
17006SOL    HW252916   8.338  11.822   5.008
17007SOL     OW52917   1.955   4.072  13.651
17007SOL    HW152918   1.871   4.109  13.680
17007SOL    HW252919   1.992   4.030  13.729
17008SOL     OW52920   4.472   3.489   3.340
17008SOL    HW152921   4.487   3.444   3.424
17008SOL    HW252922   4.382   3.467   3.317
17009SOL     OW52923   3.572   1.564   6.327
17009SOL    HW152924   3.533   1.624   6.390
17009SOL    HW252925   3.498   1.513   6.294
17010SOL     OW52926  11.926  13.599   8.691
17010SOL    HW152927  11.995  13.643   8.642
17010SOL    HW252928  11.947  13.615   8.782
17011SOL     OW52929  13.924   5.671   7.903
17011SOL    HW152930  13.964   5.584   7.900
17011SOL    HW252931  13.995   5.729   7.927
17012SOL     OW52932  14.686  14.158   1.931
17012SOL    HW152933  14.737  14.115   1.863
17012SOL    HW252934  14.618  14.205   1.884
17013SOL     OW52935  11.606  11.409   0.286
17013SOL    HW152936  11.670  11.479   0.295
17013SOL    HW252937  11.556  11.431   0.207
17014SOL     OW52938   9.985   4.084   2.286
17014SOL    HW152939   9.976   4.143   2.361
17014SOL    HW252940   9.899   4.085   2.244
17015SOL     OW52941  11.540  11.463   1.234
17015SOL    HW152942  11.519  11.477   1.327
17015SOL    HW252943  11.602  11.532   1.213
17016SOL     OW52944   9.786   8.788   9.641
17016SOL    HW152945   9.767   8.730   9.567
17016SOL    HW252946   9.866   8.834   9.616
17017SOL     OW52947   0.509   7.006  12.349
17017SOL    HW152948   0.509   7.002  12.253
17017SOL    HW252949   0.417   7.000  12.373
17018SOL     OW52950  11.192  11.790  13.296
17018SOL    HW152951  11.261  11.836  13.249
17018SOL    HW252952  11.234  11.712  13.331
17019SOL     OW52953   6.204  14.446   9.709
17019SOL    HW152954   6.173  14.472   9.623
17019SOL    HW252955   6.299  14.438   9.699
17020SOL     OW52956  14.721   7.453  14.703
17020SOL    HW152957  14.677   7.492  14.628
17020SOL    HW252958  14.712   7.358  14.689
17021SOL     OW52959  14.785   3.943   0.841
17021SOL    HW152960  14.770   3.912   0.930
17021SOL    HW252961  14.762   4.036   0.843
17022SOL     OW52962   8.201   4.396  13.693
17022SOL    HW152963   8.260   4.355  13.629
17022SOL    HW252964   8.257   4.411  13.770
17023SOL     OW52965  14.664   8.616  13.143
17023SOL    HW152966  14.708   8.543  13.186
17023SOL    HW252967  14.573   8.588  13.134
17024SOL     OW52968   2.557   0.561   8.295
17024SOL    HW152969   2.494   0.493   8.320
17024SOL    HW252970   2.539   0.634   8.354
17025SOL     OW52971   8.317   2.846  10.330
17025SOL    HW152972   8.390   2.831  10.391
17025SOL    HW252973   8.287   2.758  10.309
17026SOL     OW52974   4.042   9.648  13.235
17026SOL    HW152975   4.095   9.679  13.162
17026SOL    HW252976   4.008   9.564  13.205
17027SOL     OW52977   1.334   6.909   2.041
17027SOL    HW152978   1.266   6.961   1.997
17027SOL    HW252979   1.285   6.856   2.104
17028SOL     OW52980   2.442   8.230   0.051
17028SOL    HW152981   2.507   8.167   0.020
17028SOL    HW252982   2.475   8.315   0.024
17029SOL     OW52983  13.770   9.167   9.650
17029SOL    HW152984  13.708   9.099   9.677
17029SOL    HW252985  13.846   9.119   9.617
17030SOL     OW52986   0.524   6.967   4.554
17030SOL    HW152987   0.600   6.948   4.608
17030SOL    HW252988   0.526   7.062   4.543
17031SOL     OW52989   4.300   9.335   9.657
17031SOL    HW152990   4.208   9.320   9.636
17031SOL    HW252991   4.308   9.310   9.749
17032SOL     OW52992   9.166  11.757   6.063
17032SOL    HW152993   9.218  11.682   6.091
17032SOL    HW252994   9.122  11.787   6.143
17033SOL     OW52995  10.509   5.490   8.725
17033SOL    HW152996  10.515   5.549   8.649
17033SOL    HW252997  10.453   5.418   8.695
17034SOL     OW52998  14.408   6.157   7.770
17034SOL    HW152999  14.451   6.072   7.771
17034SOL    HW253000  14.344   6.152   7.841
17035SOL     OW53001   9.821   7.361   9.140
17035SOL    HW153002   9.730   7.334   9.159
17035SOL    HW253003   9.829   7.352   9.045
17036SOL     OW53004   4.727   3.428  11.534
17036SOL    HW153005   4.646   3.467  11.502
17036SOL    HW253006   4.780   3.503  11.563
17037SOL     OW53007  13.886   3.313   1.594
17037SOL    HW153008  13.866   3.243   1.655
17037SOL    HW253009  13.946   3.274   1.530
17038SOL     OW53010  11.420   9.938   1.440
17038SOL    HW153011  11.394   9.969   1.527
17038SOL    HW253012  11.475   9.862   1.458
17039SOL     OW53013   0.596   7.129   7.652
17039SOL    HW153014   0.510   7.125   7.611
17039SOL    HW253015   0.599   7.216   7.694
17040SOL     OW53016   6.171  10.597   3.044
17040SOL    HW153017   6.101  10.657   3.069
17040SOL    HW253018   6.133  10.542   2.976
17041SOL     OW53019  10.296   6.516   9.983
17041SOL    HW153020  10.292   6.523   9.888
17041SOL    HW253021  10.204   6.512  10.011
17042SOL     OW53022  13.335   8.329   6.656
17042SOL    HW153023  13.406   8.373   6.610
17042SOL    HW253024  13.277   8.400   6.684
17043SOL     OW53025  13.266   5.806  13.455
17043SOL    HW153026  13.237   5.790  13.365
17043SOL    HW253027  13.227   5.734  13.505
17044SOL     OW53028   3.156   4.798  11.594
17044SOL    HW153029   3.084   4.802  11.657
17044SOL    HW253030   3.113   4.796  11.509
17045SOL     OW53031   1.620   4.885   9.590
17045SOL    HW153032   1.584   4.897   9.678
17045SOL    HW253033   1.596   4.796   9.566
17046SOL     OW53034  13.274   3.092   8.850
17046SOL    HW153035  13.192   3.124   8.813
17046SOL    HW253036  13.292   3.150   8.924
17047SOL     OW53037   4.709   4.226   5.204
17047SOL    HW153038   4.675   4.209   5.116
17047SOL    HW253039   4.749   4.313   5.197
17048SOL     OW53040  10.808   0.307   8.036
17048SOL    HW153041  10.839   0.242   8.098
17048SOL    HW253042  10.825   0.270   7.950
17049SOL     OW53043  11.796   3.255   5.730
17049SOL    HW153044  11.877   3.265   5.779
17049SOL    HW253045  11.742   3.198   5.784
17050SOL     OW53046  12.151  10.627   7.356
17050SOL    HW153047  12.156  10.554   7.419
17050SOL    HW253048  12.241  10.642   7.328
17051SOL     OW53049   3.350   4.221  13.539
17051SOL    HW153050   3.286   4.257  13.476
17051SOL    HW253051   3.312   4.239  13.625
17052SOL     OW53052   3.364  12.818  10.277
17052SOL    HW153053   3.448  12.820  10.324
17052SOL    HW253054   3.310  12.756  10.327
17053SOL     OW53055   8.827   3.597   9.858
17053SOL    HW153056   8.889   3.670   9.858
17053SOL    HW253057   8.771   3.613   9.934
17054SOL     OW53058   1.808  10.675  13.161
17054SOL    HW153059   1.865  10.695  13.086
17054SOL    HW253060   1.841  10.592  13.194
17055SOL     OW53061   3.122   3.131  12.009
17055SOL    HW153062   3.103   3.111  11.917
17055SOL    HW253063   3.075   3.213  12.026
17056SOL     OW53064   2.605   1.985  10.646
17056SOL    HW153065   2.539   2.043  10.608
17056SOL    HW253066   2.557   1.932  10.710
17057SOL     OW53067   8.690  13.025   7.598
17057SOL    HW153068   8.628  13.005   7.668
17057SOL    HW253069   8.636  13.033   7.520
17058SOL     OW53070   7.056  10.926   3.643
17058SOL    HW153071   7.112  10.978   3.700
17058SOL    HW253072   7.115  10.888   3.578
17059SOL     OW53073  11.455   9.706   6.406
17059SOL    HW153074  11.380   9.651   6.432
17059SOL    HW253075  11.528   9.644   6.399
17060SOL     OW53076   8.796   1.050  11.584
17060SOL    HW153077   8.870   1.100  11.549
17060SOL    HW253078   8.735   1.043  11.510
17061SOL     OW53079   9.180   7.922  11.339
17061SOL    HW153080   9.113   7.856  11.322
17061SOL    HW253081   9.245   7.909  11.270
17062SOL     OW53082   0.274   9.847   4.184
17062SOL    HW153083   0.339   9.816   4.122
17062SOL    HW253084   0.198   9.790   4.171
17063SOL     OW53085   8.236   8.307   2.417
17063SOL    HW153086   8.319   8.265   2.438
17063SOL    HW253087   8.258   8.399   2.401
17064SOL     OW53088  10.129   1.497   7.148
17064SOL    HW153089  10.097   1.416   7.109
17064SOL    HW253090  10.208   1.518   7.098
17065SOL     OW53091  14.731  13.479  11.489
17065SOL    HW153092  14.802  13.489  11.552
17065SOL    HW253093  14.652  13.474  11.542
17066SOL     OW53094   4.917   7.444   4.895
17066SOL    HW153095   4.878   7.381   4.956
17066SOL    HW253096   4.903   7.406   4.808
17067SOL     OW53097   9.440   7.999   7.057
17067SOL    HW153098   9.518   7.947   7.076
17067SOL    HW253099   9.367   7.938   7.069
17068SOL     OW53100  10.573  10.674   5.918
17068SOL    HW153101  10.591  10.747   5.978
17068SOL    HW253102  10.509  10.620   5.964
17069SOL     OW53103  14.520  10.577   0.236
17069SOL    HW153104  14.562  10.585   0.321
17069SOL    HW253105  14.508  10.482   0.223
17070SOL     OW53106   1.535   3.587  11.648
17070SOL    HW153107   1.460   3.552  11.601
17070SOL    HW253108   1.542   3.678  11.619
17071SOL     OW53109  11.483   6.617   7.051
17071SOL    HW153110  11.429   6.680   7.003
17071SOL    HW253111  11.433   6.535   7.047
17072SOL     OW53112   1.508   6.726  12.824
17072SOL    HW153113   1.543   6.797  12.770
17072SOL    HW253114   1.534   6.646  12.778
17073SOL     OW53115   8.065  14.636  12.277
17073SOL    HW153116   8.013  14.621  12.198
17073SOL    HW253117   8.156  14.628  12.247
17074SOL     OW53118   6.550  14.488   0.606
17074SOL    HW153119   6.515  14.403   0.636
17074SOL    HW253120   6.472  14.540   0.588
17075SOL     OW53121   4.012  11.377   2.365
17075SOL    HW153122   3.931  11.422   2.389
17075SOL    HW253123   4.036  11.327   2.444
17076SOL     OW53124  13.303  10.928  11.139
17076SOL    HW153125  13.228  10.914  11.082
17076SOL    HW253126  13.266  10.964  11.219
17077SOL     OW53127   8.829   4.649   4.675
17077SOL    HW153128   8.744   4.625   4.640
17077SOL    HW253129   8.816   4.652   4.770
17078SOL     OW53130  14.105   3.521   7.148
17078SOL    HW153131  14.050   3.498   7.223
17078SOL    HW253132  14.194   3.499   7.176
17079SOL     OW53133   4.726  12.403   0.561
17079SOL    HW153134   4.717  12.480   0.618
17079SOL    HW253135   4.659  12.415   0.493
17080SOL     OW53136  13.363  14.042  12.191
17080SOL    HW153137  13.306  14.048  12.115
17080SOL    HW253138  13.349  14.124  12.238
17081SOL     OW53139   5.318   0.666   6.844
17081SOL    HW153140   5.371   0.744   6.825
17081SOL    HW253141   5.288   0.636   6.758
17082SOL     OW53142   5.596   7.971  13.131
17082SOL    HW153143   5.573   8.007  13.217
17082SOL    HW253144   5.545   7.891  13.124
17083SOL     OW53145   9.778  12.988  12.112
17083SOL    HW153146   9.731  12.917  12.156
17083SOL    HW253147   9.776  13.060  12.175
17084SOL     OW53148   9.361  13.836   0.077
17084SOL    HW153149   9.407  13.821   0.160
17084SOL    HW253150   9.279  13.877   0.102
17085SOL     OW53151   6.436   6.270   9.607
17085SOL    HW153152   6.353   6.224   9.622
17085SOL    HW253153   6.498   6.225   9.665
17086SOL     OW53154   1.454  11.489  10.023
17086SOL    HW153155   1.391  11.489  10.096
17086SOL    HW253156   1.440  11.574   9.980
17087SOL     OW53157  10.909  12.438   3.599
17087SOL    HW153158  10.838  12.484   3.553
17087SOL    HW253159  10.983  12.443   3.539
17088SOL     OW53160   9.446  12.011   7.017
17088SOL    HW153161   9.418  12.018   7.108
17088SOL    HW253162   9.444  12.101   6.984
17089SOL     OW53163   8.068   5.066   4.271
17089SOL    HW153164   7.995   5.124   4.291
17089SOL    HW253165   8.146   5.113   4.299
17090SOL     OW53166  12.715  11.709   8.571
17090SOL    HW153167  12.761  11.791   8.586
17090SOL    HW253168  12.760  11.669   8.497
17091SOL     OW53169   6.163   5.653   5.740
17091SOL    HW153170   6.201   5.680   5.824
17091SOL    HW253171   6.182   5.560   5.734
17092SOL     OW53172   9.298   7.865  10.455
17092SOL    HW153173   9.239   7.835  10.525
17092SOL    HW253174   9.296   7.960  10.462
17093SOL     OW53175   5.244  10.692   3.564
17093SOL    HW153176   5.237  10.783   3.593
17093SOL    HW253177   5.235  10.696   3.469
17094SOL     OW53178   8.061   6.923  13.474
17094SOL    HW153179   7.976   6.948  13.510
17094SOL    HW253180   8.048   6.921  13.379
17095SOL     OW53181   3.419   4.146   8.156
17095SOL    HW153182   3.450   4.180   8.072
17095SOL    HW253183   3.484   4.080   8.181
17096SOL     OW53184  10.847   6.063   3.205
17096SOL    HW153185  10.852   5.994   3.139
17096SOL    HW253186  10.755   6.092   3.202
17097SOL     OW53187   5.364   6.669   8.886
17097SOL    HW153188   5.368   6.584   8.841
17097SOL    HW253189   5.271   6.690   8.889
17098SOL     OW53190   9.005   3.257   3.091
17098SOL    HW153191   9.098   3.248   3.110
17098SOL    HW253192   8.962   3.197   3.152
17099SOL     OW53193   0.557   7.230   5.443
17099SOL    HW153194   0.469   7.254   5.470
17099SOL    HW253195   0.553   7.135   5.430
17100SOL     OW53196   3.068   8.265   9.985
17100SOL    HW153197   3.151   8.285  10.027
17100SOL    HW253198   3.006   8.328  10.021
17101SOL     OW53199   3.205   0.202   8.375
17101SOL    HW153200   3.154   0.153   8.311
17101SOL    HW253201   3.288   0.221   8.330
17102SOL     OW53202  13.664   0.811   8.767
17102SOL    HW153203  13.703   0.739   8.717
17102SOL    HW253204  13.739   0.850   8.813
17103SOL     OW53205   1.209   5.325  13.541
17103SOL    HW153206   1.129   5.275  13.525
17103SOL    HW253207   1.218   5.381  13.463
17104SOL     OW53208   2.004   8.958  10.435
17104SOL    HW153209   2.073   9.016  10.403
17104SOL    HW253210   1.932   9.017  10.458
17105SOL     OW53211   9.216   9.780   8.787
17105SOL    HW153212   9.201   9.874   8.783
17105SOL    HW253213   9.239   9.755   8.698
17106SOL     OW53214   1.954  12.518  14.112
17106SOL    HW153215   2.012  12.484  14.044
17106SOL    HW253216   1.963  12.613  14.106
17107SOL     OW53217  11.393  10.901  10.341
17107SOL    HW153218  11.302  10.905  10.313
17107SOL    HW253219  11.443  10.940  10.269
17108SOL     OW53220   1.543   2.382   4.530
17108SOL    HW153221   1.535   2.476   4.515
17108SOL    HW253222   1.578   2.375   4.619
17109SOL     OW53223   2.396   5.403  10.437
17109SOL    HW153224   2.465   5.437  10.495
17109SOL    HW253225   2.416   5.440  10.351
17110SOL     OW53226   3.222   6.626   0.028
17110SOL    HW153227   3.189   6.676  14.828
17110SOL    HW253228   3.234   6.692   0.096
17111SOL     OW53229  12.327   8.370  14.156
17111SOL    HW153230  12.234   8.348  14.155
17111SOL    HW253231  12.334   8.446  14.098
17112SOL     OW53232  13.657   1.225   9.575
17112SOL    HW153233  13.723   1.163   9.606
17112SOL    HW253234  13.601   1.240   9.651
17113SOL     OW53235  14.050   9.185   6.662
17113SOL    HW153236  13.975   9.245   6.665
17113SOL    HW253237  14.115   9.226   6.720
17114SOL     OW53238   9.783   3.789   2.520
17114SOL    HW153239   9.793   3.726   2.449
17114SOL    HW253240   9.839   3.755   2.590
17115SOL     OW53241   1.280  13.423  10.829
17115SOL    HW153242   1.333  13.385  10.899
17115SOL    HW253243   1.338  13.421  10.752
17116SOL     OW53244   0.702   9.082   9.142
17116SOL    HW153245   0.795   9.101   9.126
17116SOL    HW253246   0.698   9.056   9.234
17117SOL     OW53247   1.651   9.288   1.029
17117SOL    HW153248   1.639   9.382   1.040
17117SOL    HW253249   1.673   9.277   0.936
17118SOL     OW53250   0.073   5.142   2.645
17118SOL    HW153251   0.093   5.055   2.611
17118SOL    HW253252  14.852   5.143   2.653
17119SOL     OW53253   5.721   5.037   0.460
17119SOL    HW153254   5.735   4.976   0.532
17119SOL    HW253255   5.809   5.054   0.425
17120SOL     OW53256   0.398   0.262  14.793
17120SOL    HW153257   0.375   0.345  14.835
17120SOL    HW253258   0.489   0.274  14.765
17121SOL     OW53259   4.792   1.470   5.763
17121SOL    HW153260   4.799   1.432   5.675
17121SOL    HW253261   4.709   1.436   5.797
17122SOL     OW53262   1.813  10.801   9.289
17122SOL    HW153263   1.800  10.805   9.194
17122SOL    HW253264   1.884  10.863   9.306
17123SOL     OW53265   4.310   8.237   6.492
17123SOL    HW153266   4.223   8.197   6.492
17123SOL    HW253267   4.334   8.241   6.585
17124SOL     OW53268  13.197   7.619   4.051
17124SOL    HW153269  13.210   7.698   3.999
17124SOL    HW253270  13.241   7.637   4.134
17125SOL     OW53271   5.489   0.828   2.326
17125SOL    HW153272   5.431   0.764   2.285
17125SOL    HW253273   5.512   0.789   2.411
17126SOL     OW53274  10.064  10.857   7.187
17126SOL    HW153275  10.115  10.802   7.247
17126SOL    HW253276  10.061  10.807   7.106
17127SOL     OW53277   8.104  12.305  10.819
17127SOL    HW153278   8.143  12.259  10.745
17127SOL    HW253279   8.018  12.265  10.829
17128SOL     OW53280  14.220   3.711  11.480
17128SOL    HW153281  14.207   3.635  11.537
17128SOL    HW253282  14.160   3.778  11.514
17129SOL     OW53283  10.320   1.403   7.391
17129SOL    HW153284  10.270   1.481   7.367
17129SOL    HW253285  10.397   1.438   7.437
17130SOL     OW53286  12.130   6.527   1.599
17130SOL    HW153287  12.050   6.561   1.641
17130SOL    HW253288  12.142   6.440   1.636
17131SOL     OW53289   8.374   1.603   5.109
17131SOL    HW153290   8.371   1.531   5.046
17131SOL    HW253291   8.286   1.607   5.146
17132SOL     OW53292   2.923  11.886   2.392
17132SOL    HW153293   2.869  11.891   2.313
17132SOL    HW253294   2.982  11.961   2.384
17133SOL     OW53295   4.166   4.685   5.893
17133SOL    HW153296   4.082   4.657   5.929
17133SOL    HW253297   4.230   4.623   5.927
17134SOL     OW53298   9.089   2.308   1.655
17134SOL    HW153299   9.005   2.265   1.669
17134SOL    HW253300   9.110   2.347   1.740
17135SOL     OW53301   9.387   0.301   5.202
17135SOL    HW153302   9.481   0.286   5.195
17135SOL    HW253303   9.377   0.396   5.197
17136SOL     OW53304  13.115   3.265   7.988
17136SOL    HW153305  13.121   3.224   7.902
17136SOL    HW253306  13.077   3.198   8.044
17137SOL     OW53307  12.850   7.580   7.987
17137SOL    HW153308  12.928   7.537   7.953
17137SOL    HW253309  12.790   7.508   8.007
17138SOL     OW53310   9.519   4.148   9.982
17138SOL    HW153311   9.599   4.119   9.937
17138SOL    HW253312   9.549   4.216  10.042
17139SOL     OW53313   1.606   3.141   8.400
17139SOL    HW153314   1.554   3.148   8.320
17139SOL    HW253315   1.686   3.097   8.373
17140SOL     OW53316  12.146  12.517   7.944
17140SOL    HW153317  12.215  12.492   7.882
17140SOL    HW253318  12.146  12.448   8.010
17141SOL     OW53319   6.266  10.325  10.766
17141SOL    HW153320   6.332  10.391  10.784
17141SOL    HW253321   6.241  10.292  10.853
17142SOL     OW53322   6.756   8.823  12.487
17142SOL    HW153323   6.695   8.755  12.517
17142SOL    HW253324   6.780   8.870  12.566
17143SOL     OW53325   6.837   5.376   5.356
17143SOL    HW153326   6.858   5.316   5.427
17143SOL    HW253327   6.888   5.344   5.282
17144SOL     OW53328   4.729   1.430   3.200
17144SOL    HW153329   4.757   1.458   3.112
17144SOL    HW253330   4.634   1.422   3.193
17145SOL     OW53331  11.988   5.772   4.591
17145SOL    HW153332  12.074   5.737   4.614
17145SOL    HW253333  11.932   5.748   4.664
17146SOL     OW53334  13.270   9.261  10.530
17146SOL    HW153335  13.331   9.189  10.512
17146SOL    HW253336  13.203   9.254  10.462
17147SOL     OW53337   6.506   7.296  10.380
17147SOL    HW153338   6.482   7.220  10.433
17147SOL    HW253339   6.597   7.314  10.404
17148SOL     OW53340   9.467  14.825  14.420
17148SOL    HW153341   9.452  14.821  14.515
17148SOL    HW253342   9.499   0.039  14.404
17149SOL     OW53343  12.747  14.273   0.648
17149SOL    HW153344  12.684  14.297   0.716
17149SOL    HW253345  12.831  14.268   0.693
17150SOL     OW53346   6.599   5.571   0.233
17150SOL    HW153347   6.585   5.581   0.328
17150SOL    HW253348   6.688   5.537   0.226
17151SOL     OW53349  12.378   3.743   8.436
17151SOL    HW153350  12.416   3.662   8.471
17151SOL    HW253351  12.296   3.754   8.484
17152SOL     OW53352   1.729   9.259   0.674
17152SOL    HW153353   1.751   9.348   0.647
17152SOL    HW253354   1.640   9.265   0.707
17153SOL     OW53355   0.587   4.179   9.090
17153SOL    HW153356   0.565   4.213   9.003
17153SOL    HW253357   0.590   4.084   9.079
17154SOL     OW53358  11.832   9.696  12.694
17154SOL    HW153359  11.755   9.741  12.729
17154SOL    HW253360  11.880   9.667  12.772
17155SOL     OW53361   8.530   2.703  11.294
17155SOL    HW153362   8.518   2.708  11.389
17155SOL    HW253363   8.464   2.763  11.259
17156SOL     OW53364   1.068   8.897   2.761
17156SOL    HW153365   1.159   8.869   2.768
17156SOL    HW253366   1.047   8.929   2.849
17157SOL     OW53367   6.737   4.041  13.499
17157SOL    HW153368   6.729   4.119  13.445
17157SOL    HW253369   6.813   3.995  13.462
17158SOL     OW53370   2.928   1.729   1.756
17158SOL    HW153371   2.984   1.765   1.825
17158SOL    HW253372   2.867   1.800   1.735
17159SOL     OW53373   4.157   2.913   0.241
17159SOL    HW153374   4.086   2.859   0.276
17159SOL    HW253375   4.215   2.927   0.316
17160SOL     OW53376   1.260   5.715   7.711
17160SOL    HW153377   1.333   5.677   7.663
17160SOL    HW253378   1.266   5.809   7.694
17161SOL     OW53379   5.151  10.493   2.508
17161SOL    HW153380   5.166  10.422   2.569
17161SOL    HW253381   5.195  10.466   2.427
17162SOL     OW53382  10.387   7.291   7.378
17162SOL    HW153383  10.472   7.332   7.389
17162SOL    HW253384  10.362   7.312   7.288
17163SOL     OW53385   0.589  13.846   1.724
17163SOL    HW153386   0.674  13.809   1.747
17163SOL    HW253387   0.560  13.794   1.649
17164SOL     OW53388   2.602   4.510   3.940
17164SOL    HW153389   2.594   4.497   4.035
17164SOL    HW253390   2.543   4.583   3.921
17165SOL     OW53391  14.056   1.970   8.274
17165SOL    HW153392  14.042   1.911   8.349
17165SOL    HW253393  13.994   2.042   8.288
17166SOL     OW53394   4.007   0.642   5.199
17166SOL    HW153395   4.061   0.576   5.155
17166SOL    HW253396   3.924   0.641   5.152
17167SOL     OW53397   7.138   4.973   5.549
17167SOL    HW153398   7.145   5.025   5.468
17167SOL    HW253399   7.079   5.024   5.605
17168SOL     OW53400  14.548   3.423  11.856
17168SOL    HW153401  14.623   3.400  11.912
17168SOL    HW253402  14.575   3.503  11.811
17169SOL     OW53403   5.570   0.254   0.847
17169SOL    HW153404   5.605   0.222   0.931
17169SOL    HW253405   5.496   0.309   0.871
17170SOL     OW53406   9.958  13.190   5.137
17170SOL    HW153407  10.006  13.231   5.209
17170SOL    HW253408   9.890  13.253   5.114
17171SOL     OW53409   6.842   8.887   0.959
17171SOL    HW153410   6.815   8.882   1.051
17171SOL    HW253411   6.917   8.946   0.960
17172SOL     OW53412   0.399   6.517  10.148
17172SOL    HW153413   0.428   6.527  10.238
17172SOL    HW253414   0.320   6.463  10.153
17173SOL     OW53415   3.426   6.703  11.252
17173SOL    HW153416   3.342   6.683  11.210
17173SOL    HW253417   3.458   6.781  11.206
17174SOL     OW53418  13.425   0.188   5.505
17174SOL    HW153419  13.507   0.237   5.502
17174SOL    HW253420  13.358   0.249   5.475
17175SOL     OW53421   3.203   6.635   5.833
17175SOL    HW153422   3.165   6.709   5.880
17175SOL    HW253423   3.229   6.671   5.748
17176SOL     OW53424  13.993   8.907  10.422
17176SOL    HW153425  13.982   8.972  10.492
17176SOL    HW253426  13.934   8.936  10.353
17177SOL     OW53427   0.050  12.948   8.605
17177SOL    HW153428   0.142  12.934   8.624
17177SOL    HW253429   0.049  13.017   8.538
17178SOL     OW53430   5.423  11.301  10.324
17178SOL    HW153431   5.421  11.215  10.367
17178SOL    HW253432   5.445  11.363  10.394
17179SOL     OW53433   1.481   0.598   2.066
17179SOL    HW153434   1.468   0.541   1.990
17179SOL    HW253435   1.402   0.585   2.119
17180SOL     OW53436   5.004   2.792  13.017
17180SOL    HW153437   4.917   2.787  12.976
17180SOL    HW253438   5.048   2.863  12.971
17181SOL     OW53439   4.082   9.269  10.266
17181SOL    HW153440   4.109   9.216  10.191
17181SOL    HW253441   4.135   9.236  10.338
17182SOL     OW53442   9.797  13.510   3.217
17182SOL    HW153443   9.706  13.481   3.222
17182SOL    HW253444   9.792  13.605   3.206
17183SOL     OW53445   8.857   5.464   8.864
17183SOL    HW153446   8.927   5.503   8.813
17183SOL    HW253447   8.864   5.506   8.950
17184SOL     OW53448   4.509   8.590   8.037
17184SOL    HW153449   4.581   8.559   7.982
17184SOL    HW253450   4.504   8.684   8.019
17185SOL     OW53451  11.636   8.368  11.441
17185SOL    HW153452  11.620   8.446  11.387
17185SOL    HW253453  11.550   8.347  11.478
17186SOL     OW53454   0.464   2.639   1.054
17186SOL    HW153455   0.504   2.689   1.125
17186SOL    HW253456   0.538   2.607   1.003
17187SOL     OW53457   4.772  14.590   8.321
17187SOL    HW153458   4.696  14.636   8.285
17187SOL    HW253459   4.820  14.560   8.244
17188SOL     OW53460  12.923  12.815   2.322
17188SOL    HW153461  12.999  12.871   2.303
17188SOL    HW253462  12.935  12.789   2.413
17189SOL     OW53463   8.425   0.703   6.266
17189SOL    HW153464   8.340   0.659   6.264
17189SOL    HW253465   8.417   0.766   6.338
17190SOL     OW53466  10.252  11.738   0.881
17190SOL    HW153467  10.282  11.689   0.957
17190SOL    HW253468  10.293  11.824   0.890
17191SOL     OW53469   5.019   0.757  12.557
17191SOL    HW153470   4.936   0.714  12.576
17191SOL    HW253471   5.076   0.733  12.630
17192SOL     OW53472   3.729   0.492  13.514
17192SOL    HW153473   3.655   0.444  13.551
17192SOL    HW253474   3.690   0.563  13.463
17193SOL     OW53475  11.027   7.704   1.869
17193SOL    HW153476  10.937   7.706   1.836
17193SOL    HW253477  11.079   7.674   1.794
17194SOL     OW53478   1.055   4.324   8.197
17194SOL    HW153479   0.979   4.347   8.251
17194SOL    HW253480   1.030   4.351   8.109
17195SOL     OW53481  12.540   6.763   1.038
17195SOL    HW153482  12.610   6.824   1.060
17195SOL    HW253483  12.504   6.737   1.122
17196SOL     OW53484  11.192  11.422   0.887
17196SOL    HW153485  11.211  11.354   0.952
17196SOL    HW253486  11.250  11.495   0.912
17197SOL     OW53487  11.242   6.776  11.548
17197SOL    HW153488  11.260   6.814  11.635
17197SOL    HW253489  11.280   6.688  11.552
17198SOL     OW53490   1.544   7.933  13.642
17198SOL    HW153491   1.614   7.886  13.596
17198SOL    HW253492   1.566   7.924  13.734
17199SOL     OW53493   8.213  11.284  10.446
17199SOL    HW153494   8.290  11.227  10.447
17199SOL    HW253495   8.162  11.257  10.523
17200SOL     OW53496   4.518   2.021   0.095
17200SOL    HW153497   4.504   2.096   0.153
17200SOL    HW253498   4.555   2.059   0.015
17201SOL     OW53499   1.736   0.485   5.723
17201SOL    HW153500   1.745   0.390   5.729
17201SOL    HW253501   1.811   0.513   5.671
17202SOL     OW53502   6.591   4.324  10.783
17202SOL    HW153503   6.549   4.289  10.704
17202SOL    HW253504   6.523   4.378  10.824
17203SOL     OW53505   7.296   5.606  14.835
17203SOL    HW153506   7.241   5.613   0.038
17203SOL    HW253507   7.377   5.651  14.859
17204SOL     OW53508   9.573  10.743  12.849
17204SOL    HW153509   9.629  10.705  12.917
17204SOL    HW253510   9.564  10.673  12.784
17205SOL     OW53511  14.299  10.473   3.376
17205SOL    HW153512  14.323  10.535   3.445
17205SOL    HW253513  14.378  10.466   3.322
17206SOL     OW53514   8.661   1.522   9.838
17206SOL    HW153515   8.671   1.542   9.931
17206SOL    HW253516   8.593   1.582   9.808
17207SOL     OW53517   9.152   5.570   0.872
17207SOL    HW153518   9.075   5.580   0.817
17207SOL    HW253519   9.117   5.561   0.961
17208SOL     OW53520  11.783   4.798  12.200
17208SOL    HW153521  11.807   4.888  12.177
17208SOL    HW253522  11.706   4.779  12.146
17209SOL     OW53523  11.450   4.364   6.057
17209SOL    HW153524  11.400   4.286   6.034
17209SOL    HW253525  11.384   4.432   6.071
17210SOL     OW53526   1.252   1.888   4.610
17210SOL    HW153527   1.261   1.856   4.520
17210SOL    HW253528   1.225   1.980   4.600
17211SOL     OW53529  10.517  14.424   0.852
17211SOL    HW153530  10.442  14.482   0.845
17211SOL    HW253531  10.592  14.483   0.864
17212SOL     OW53532   8.026   8.624   0.211
17212SOL    HW153533   8.047   8.714   0.237
17212SOL    HW253534   7.977   8.635   0.129
17213SOL     OW53535   7.934   7.664   6.863
17213SOL    HW153536   8.015   7.713   6.876
17213SOL    HW253537   7.864   7.729   6.873
17214SOL     OW53538  14.327  12.346  14.587
17214SOL    HW153539  14.312  12.441  14.586
17214SOL    HW253540  14.269  12.313  14.518
17215SOL     OW53541   5.676  12.583   6.528
17215SOL    HW153542   5.674  12.529   6.607
17215SOL    HW253543   5.586  12.580   6.496
17216SOL     OW53544  10.097  14.579  12.044
17216SOL    HW153545  10.029  14.514  12.028
17216SOL    HW253546  10.112  14.621  11.959
17217SOL     OW53547   4.878  11.475   1.467
17217SOL    HW153548   4.822  11.536   1.515
17217SOL    HW253549   4.958  11.471   1.518
17218SOL     OW53550   0.574   1.018   1.320
17218SOL    HW153551   0.596   1.107   1.348
17218SOL    HW253552   0.656   0.969   1.333
17219SOL     OW53553  10.875   4.680   2.792
17219SOL    HW153554  10.812   4.696   2.862
17219SOL    HW253555  10.954   4.728   2.819
17220SOL     OW53556   5.795   0.031   2.267
17220SOL    HW153557   5.713  14.858   2.256
17220SOL    HW253558   5.808   0.077   2.185
17221SOL     OW53559   8.022   7.285   0.498
17221SOL    HW153560   7.936   7.321   0.476
17221SOL    HW253561   8.021   7.277   0.594
17222SOL     OW53562  12.285   2.031   1.149
17222SOL    HW153563  12.223   2.104   1.155
17222SOL    HW253564  12.283   1.990   1.235
17223SOL     OW53565  12.532   9.371  10.236
17223SOL    HW153566  12.621   9.340  10.218
17223SOL    HW253567  12.516   9.436  10.167
17224SOL     OW53568  13.329   9.227   0.823
17224SOL    HW153569  13.415   9.269   0.831
17224SOL    HW253570  13.294   9.226   0.912
17225SOL     OW53571   5.452  12.771   5.403
17225SOL    HW153572   5.539  12.735   5.423
17225SOL    HW253573   5.468  12.863   5.383
17226SOL     OW53574   8.062   6.565  13.894
17226SOL    HW153575   7.992   6.595  13.952
17226SOL    HW253576   8.061   6.469  13.902
17227SOL     OW53577   5.096  12.201   3.181
17227SOL    HW153578   5.055  12.144   3.246
17227SOL    HW253579   5.087  12.153   3.099
17228SOL     OW53580   8.792  12.100   8.363
17228SOL    HW153581   8.700  12.111   8.338
17228SOL    HW253582   8.829  12.189   8.358
17229SOL     OW53583  13.092  10.851  10.482
17229SOL    HW153584  13.173  10.831  10.528
17229SOL    HW253585  13.023  10.825  10.543
17230SOL     OW53586  13.530   0.847   3.122
17230SOL    HW153587  13.587   0.904   3.070
17230SOL    HW253588  13.446   0.894   3.126
17231SOL     OW53589   7.914   2.363  13.334
17231SOL    HW153590   7.998   2.394  13.301
17231SOL    HW253591   7.876   2.314  13.261
17232SOL     OW53592   3.888   2.005   2.616
17232SOL    HW153593   3.927   1.980   2.532
17232SOL    HW253594   3.956   1.984   2.680
17233SOL     OW53595   1.316   2.594   6.955
17233SOL    HW153596   1.222   2.591   6.942
17233SOL    HW253597   1.335   2.525   7.018
17234SOL     OW53598   5.679   5.015   7.576
17234SOL    HW153599   5.769   4.983   7.570
17234SOL    HW253600   5.671   5.045   7.667
17235SOL     OW53601  11.293   8.447  10.339
17235SOL    HW153602  11.204   8.440  10.373
17235SOL    HW253603  11.328   8.358  10.343
17236SOL     OW53604  13.801   0.823   7.696
17236SOL    HW153605  13.747   0.785   7.627
17236SOL    HW253606  13.881   0.771   7.695
17237SOL     OW53607  12.144  12.617  14.713
17237SOL    HW153608  12.150  12.522  14.708
17237SOL    HW253609  12.052  12.635  14.729
17238SOL     OW53610   4.586   8.932  12.571
17238SOL    HW153611   4.553   9.003  12.626
17238SOL    HW253612   4.599   8.859  12.631
17239SOL     OW53613  10.278   4.081  10.438
17239SOL    HW153614  10.293   4.150  10.373
17239SOL    HW253615  10.321   4.004  10.401
17240SOL     OW53616   9.202  11.747   6.930
17240SOL    HW153617   9.195  11.800   6.851
17240SOL    HW253618   9.296  11.741   6.948
17241SOL     OW53619  12.033  11.892   2.181
17241SOL    HW153620  11.961  11.923   2.126
17241SOL    HW253621  12.107  11.883   2.120
17242SOL     OW53622  13.911  13.305   9.350
17242SOL    HW153623  13.848  13.377   9.345
17242SOL    HW253624  13.871  13.242   9.409
17243SOL     OW53625  11.237   2.580  13.701
17243SOL    HW153626  11.167   2.528  13.664
17243SOL    HW253627  11.252   2.650  13.637
17244SOL     OW53628   9.262   5.809  12.447
17244SOL    HW153629   9.290   5.819  12.356
17244SOL    HW253630   9.335   5.844  12.498
17245SOL     OW53631  10.714  14.374   8.878
17245SOL    HW153632  10.731  14.348   8.787
17245SOL    HW253633  10.759  14.458   8.888
17246SOL     OW53634   7.243   0.742  12.990
17246SOL    HW153635   7.237   0.747  13.086
17246SOL    HW253636   7.156   0.712  12.963
17247SOL     OW53637   6.555  13.442  14.605
17247SOL    HW153638   6.483  13.392  14.567
17247SOL    HW253639   6.625  13.377  14.616
17248SOL     OW53640  13.369   1.650   8.014
17248SOL    HW153641  13.354   1.721   7.951
17248SOL    HW253642  13.462   1.654   8.033
17249SOL     OW53643   8.533   3.681   1.584
17249SOL    HW153644   8.468   3.615   1.609
17249SOL    HW253645   8.615   3.633   1.578
17250SOL     OW53646   3.483  10.302   6.659
17250SOL    HW153647   3.504  10.267   6.745
17250SOL    HW253648   3.408  10.250   6.629
17251SOL     OW53649   1.936  14.751   4.639
17251SOL    HW153650   1.987  14.823   4.602
17251SOL    HW253651   1.935  14.769   4.733
17252SOL     OW53652  13.222   2.697  13.354
17252SOL    HW153653  13.260   2.782  13.377
17252SOL    HW253654  13.287   2.633  13.383
17253SOL     OW53655  14.661   5.525   1.164
17253SOL    HW153656  14.714   5.452   1.196
17253SOL    HW253657  14.718   5.571   1.102
17254SOL     OW53658  11.996  13.314  13.409
17254SOL    HW153659  12.032  13.259  13.478
17254SOL    HW253660  11.912  13.344  13.443
17255SOL     OW53661   5.992   9.839   2.232
17255SOL    HW153662   5.919   9.808   2.285
17255SOL    HW253663   5.952   9.864   2.148
17256SOL     OW53664   5.530   2.972  10.651
17256SOL    HW153665   5.582   2.930  10.582
17256SOL    HW253666   5.443   2.981  10.614
17257SOL     OW53667   6.239   9.785   0.771
17257SOL    HW153668   6.226   9.816   0.860
17257SOL    HW253669   6.151   9.784   0.733
17258SOL     OW53670  14.037  13.370  12.834
17258SOL    HW153671  14.060  13.304  12.898
17258SOL    HW253672  14.113  13.374  12.775
17259SOL     OW53673   2.611  12.682   3.856
17259SOL    HW153674   2.518  12.697   3.870
17259SOL    HW253675   2.654  12.763   3.881
17260SOL     OW53676   4.002  14.429   0.067
17260SOL    HW153677   4.036  14.469  14.862
17260SOL    HW253678   4.036  14.340   0.066
17261SOL     OW53679   0.848  10.286   4.540
17261SOL    HW153680   0.851  10.358   4.603
17261SOL    HW253681   0.938  10.279   4.507
17262SOL     OW53682   3.489  10.929  13.846
17262SOL    HW153683   3.414  10.986  13.828
17262SOL    HW253684   3.488  10.918  13.942
17263SOL     OW53685   4.695   0.809  14.496
17263SOL    HW153686   4.748   0.883  14.467
17263SOL    HW253687   4.621   0.807  14.435
17264SOL     OW53688  12.307   0.554  11.911
17264SOL    HW153689  12.276   0.548  11.820
17264SOL    HW253690  12.228   0.543  11.964
17265SOL     OW53691  10.692   4.416   8.321
17265SOL    HW153692  10.751   4.350   8.285
17265SOL    HW253693  10.745   4.495   8.327
17266SOL     OW53694  11.526   0.592  12.544
17266SOL    HW153695  11.550   0.518  12.600
17266SOL    HW253696  11.573   0.667  12.581
17267SOL     OW53697   3.251   9.521   1.476
17267SOL    HW153698   3.269   9.551   1.565
17267SOL    HW253699   3.299   9.439   1.468
17268SOL     OW53700   0.502  12.878  14.038
17268SOL    HW153701   0.564  12.806  14.050
17268SOL    HW253702   0.441  12.870  14.111
17269SOL     OW53703  11.859  13.005   2.190
17269SOL    HW153704  11.820  12.951   2.121
17269SOL    HW253705  11.833  13.094   2.167
17270SOL     OW53706   9.977  14.482  13.802
17270SOL    HW153707  10.061  14.528  13.799
17270SOL    HW253708   9.947  14.481  13.711
17271SOL     OW53709   6.946   5.858  14.472
17271SOL    HW153710   7.027   5.862  14.523
17271SOL    HW253711   6.958   5.784  14.412
17272SOL     OW53712   5.812  12.488  11.748
17272SOL    HW153713   5.795  12.440  11.667
17272SOL    HW253714   5.796  12.580  11.726
17273SOL     OW53715  12.360   7.757   1.404
17273SOL    HW153716  12.313   7.828   1.361
17273SOL    HW253717  12.448   7.759   1.368
17274SOL     OW53718  13.476  14.713  13.424
17274SOL    HW153719  13.560  14.671  13.443
17274SOL    HW253720  13.436  14.656  13.358
17275SOL     OW53721   6.070   2.061   9.660
17275SOL    HW153722   6.116   1.982   9.632
17275SOL    HW253723   6.093   2.127   9.594
17276SOL     OW53724   6.276  13.061   7.559
17276SOL    HW153725   6.342  13.076   7.627
17276SOL    HW253726   6.200  13.112   7.587
17277SOL     OW53727   7.542   4.292   1.610
17277SOL    HW153728   7.618   4.350   1.617
17277SOL    HW253729   7.478   4.330   1.669
17278SOL     OW53730   2.475   3.480   6.814
17278SOL    HW153731   2.484   3.537   6.891
17278SOL    HW253732   2.385   3.493   6.785
17279SOL     OW53733  11.172  14.085   2.325
17279SOL    HW153734  11.265  14.106   2.330
17279SOL    HW253735  11.150  14.097   2.232
17280SOL     OW53736   6.856   0.780  14.342
17280SOL    HW153737   6.878   0.842  14.411
17280SOL    HW253738   6.935   0.726  14.332
17281SOL     OW53739  11.238  14.728   8.576
17281SOL    HW153740  11.152  14.767   8.557
17281SOL    HW253741  11.281  14.792   8.632
17282SOL     OW53742   9.820   5.892  10.364
17282SOL    HW153743   9.803   5.798  10.367
17282SOL    HW253744   9.802   5.922  10.453
17283SOL     OW53745   3.937   7.055   4.850
17283SOL    HW153746   3.897   7.057   4.937
17283SOL    HW253747   3.988   6.974   4.849
17284SOL     OW53748  10.424   9.711   8.093
17284SOL    HW153749  10.450   9.757   8.172
17284SOL    HW253750  10.461   9.623   8.103
17285SOL     OW53751  13.601   1.322   2.372
17285SOL    HW153752  13.670   1.266   2.407
17285SOL    HW253753  13.644   1.405   2.353
17286SOL     OW53754  11.450   0.404   2.984
17286SOL    HW153755  11.483   0.448   2.906
17286SOL    HW253756  11.425   0.317   2.953
17287SOL     OW53757   4.918   7.730   8.791
17287SOL    HW153758   4.950   7.813   8.755
17287SOL    HW253759   4.896   7.750   8.882
17288SOL     OW53760   4.309   3.762  12.618
17288SOL    HW153761   4.364   3.773  12.696
17288SOL    HW253762   4.280   3.850  12.596
17289SOL     OW53763   5.013  10.308   5.564
17289SOL    HW153764   5.006  10.394   5.606
17289SOL    HW253765   5.069  10.257   5.622
17290SOL     OW53766  10.928   8.555   5.444
17290SOL    HW153767  11.023   8.547   5.429
17290SOL    HW253768  10.893   8.587   5.361
17291SOL     OW53769   1.772   1.271  10.130
17291SOL    HW153770   1.743   1.194  10.082
17291SOL    HW253771   1.831   1.236  10.197
17292SOL     OW53772  11.353  12.341   5.154
17292SOL    HW153773  11.284  12.274   5.152
17292SOL    HW253774  11.321  12.407   5.216
17293SOL     OW53775   1.892  12.168  10.960
17293SOL    HW153776   1.904  12.260  10.936
17293SOL    HW253777   1.963  12.149  11.021
17294SOL     OW53778   1.935   0.149   9.234
17294SOL    HW153779   1.868   0.210   9.266
17294SOL    HW253780   2.010   0.205   9.212
17295SOL     OW53781  10.646   7.225   9.580
17295SOL    HW153782  10.583   7.270   9.523
17295SOL    HW253783  10.604   7.140   9.599
17296SOL     OW53784  13.852   3.454   1.283
17296SOL    HW153785  13.770   3.474   1.329
17296SOL    HW253786  13.920   3.487   1.342
17297SOL     OW53787  12.191  12.425   5.129
17297SOL    HW153788  12.214  12.470   5.048
17297SOL    HW253789  12.125  12.361   5.102
17298SOL     OW53790  10.087   4.234   1.206
17298SOL    HW153791  10.033   4.224   1.128
17298SOL    HW253792  10.051   4.171   1.268
17299SOL     OW53793   2.998   5.656   4.484
17299SOL    HW153794   3.035   5.695   4.405
17299SOL    HW253795   2.905   5.677   4.480
17300SOL     OW53796   1.766   5.937   2.738
17300SOL    HW153797   1.736   5.910   2.825
17300SOL    HW253798   1.720   5.879   2.678
17301SOL     OW53799   9.310  14.715   8.874
17301SOL    HW153800   9.343  14.627   8.894
17301SOL    HW253801   9.371  14.748   8.808
17302SOL     OW53802   6.410   5.489   9.779
17302SOL    HW153803   6.394   5.466   9.870
17302SOL    HW253804   6.389   5.582   9.773
17303SOL     OW53805   8.624   7.357  12.290
17303SOL    HW153806   8.620   7.272  12.334
17303SOL    HW253807   8.687   7.345  12.219
17304SOL     OW53808   8.848   3.028  14.581
17304SOL    HW153809   8.935   2.988  14.573
17304SOL    HW253810   8.855   3.086  14.656
17305SOL     OW53811   8.490  12.654  13.858
17305SOL    HW153812   8.447  12.653  13.943
17305SOL    HW253813   8.422  12.625  13.797
17306SOL     OW53814   4.713  14.547   5.113
17306SOL    HW153815   4.711  14.643   5.120
17306SOL    HW253816   4.740  14.531   5.022
17307SOL     OW53817   7.796   7.609  13.134
17307SOL    HW153818   7.789   7.644  13.045
17307SOL    HW253819   7.886   7.628  13.160
17308SOL     OW53820   8.940   2.560  13.171
17308SOL    HW153821   9.016   2.601  13.130
17308SOL    HW253822   8.974   2.475  13.202
17309SOL     OW53823   9.135   3.483  10.978
17309SOL    HW153824   9.167   3.569  10.953
17309SOL    HW253825   9.040   3.493  10.985
17310SOL     OW53826   1.062   5.560  14.545
17310SOL    HW153827   0.975   5.593  14.567
17310SOL    HW253828   1.083   5.601  14.461
17311SOL     OW53829  14.159   7.307   6.094
17311SOL    HW153830  14.124   7.355   6.170
17311SOL    HW253831  14.235   7.358   6.067
17312SOL     OW53832   9.455  12.668   8.633
17312SOL    HW153833   9.501  12.667   8.717
17312SOL    HW253834   9.446  12.576   8.609
17313SOL     OW53835  13.215   5.030   4.663
17313SOL    HW153836  13.215   5.081   4.744
17313SOL    HW253837  13.220   4.939   4.691
17314SOL     OW53838  12.563   3.937   6.032
17314SOL    HW153839  12.554   3.935   5.937
17314SOL    HW253840  12.614   4.015   6.050
17315SOL     OW53841   4.546  10.983  10.170
17315SOL    HW153842   4.473  11.040  10.193
17315SOL    HW253843   4.622  11.041  10.168
17316SOL     OW53844   9.249  14.399   6.354
17316SOL    HW153845   9.246  14.325   6.414
17316SOL    HW253846   9.319  14.455   6.387
17317SOL     OW53847  10.344   7.174   3.105
17317SOL    HW153848  10.420   7.122   3.081
17317SOL    HW253849  10.371   7.265   3.088
17318SOL     OW53850  14.534  12.020   0.067
17318SOL    HW153851  14.478  11.954   0.027
17318SOL    HW253852  14.496  12.104   0.041
17319SOL     OW53853   4.043   2.840  13.112
17319SOL    HW153854   4.087   2.894  13.046
17319SOL    HW253855   3.958   2.819  13.073
17320SOL     OW53856   4.707   3.793  11.356
17320SOL    HW153857   4.765   3.783  11.431
17320SOL    HW253858   4.621   3.765  11.389
17321SOL     OW53859   4.044  10.961  10.876
17321SOL    HW153860   4.106  11.024  10.911
17321SOL    HW253861   3.958  11.001  10.890
17322SOL     OW53862   0.803   6.757  10.362
17322SOL    HW153863   0.895   6.749  10.338
17322SOL    HW253864   0.774   6.840  10.324
17323SOL     OW53865   3.224   2.876   8.351
17323SOL    HW153866   3.303   2.833   8.318
17323SOL    HW253867   3.160   2.866   8.280
17324SOL     OW53868   9.034   0.546   3.724
17324SOL    HW153869   9.094   0.550   3.799
17324SOL    HW253870   8.947   0.547   3.763
17325SOL     OW53871  10.793   5.999   2.796
17325SOL    HW153872  10.718   6.012   2.737
17325SOL    HW253873  10.869   6.011   2.740
17326SOL     OW53874   6.725  14.348  12.491
17326SOL    HW153875   6.700  14.401  12.415
17326SOL    HW253876   6.691  14.261  12.471
17327SOL     OW53877   8.913  10.088   9.618
17327SOL    HW153878   8.862  10.056   9.692
17327SOL    HW253879   9.000  10.107   9.654
17328SOL     OW53880   9.179  10.296  12.145
17328SOL    HW153881   9.098  10.291  12.194
17328SOL    HW253882   9.152  10.312  12.054
17329SOL     OW53883   4.002   2.526  11.609
17329SOL    HW153884   4.018   2.482  11.525
17329SOL    HW253885   4.076   2.586  11.619
17330SOL     OW53886  11.656  13.681  13.978
17330SOL    HW153887  11.718  13.609  13.988
17330SOL    HW253888  11.636  13.708  14.067
17331SOL     OW53889   2.891   2.111  11.559
17331SOL    HW153890   2.954   2.140  11.492
17331SOL    HW253891   2.820   2.174  11.554
17332SOL     OW53892  11.100  11.975   6.573
17332SOL    HW153893  11.027  12.027   6.540
17332SOL    HW253894  11.123  12.017   6.657
17333SOL     OW53895   9.192   3.785  14.775
17333SOL    HW153896   9.128   3.802  14.844
17333SOL    HW253897   9.155   3.826  14.697
17334SOL     OW53898   6.470   7.651   0.871
17334SOL    HW153899   6.558   7.645   0.835
17334SOL    HW253900   6.424   7.575   0.836
17335SOL     OW53901   8.487  11.296   2.833
17335SOL    HW153902   8.500  11.232   2.903
17335SOL    HW253903   8.574  11.309   2.796
17336SOL     OW53904   9.853   3.286   1.755
17336SOL    HW153905   9.893   3.221   1.812
17336SOL    HW253906   9.788   3.330   1.810
17337SOL     OW53907   4.785   1.903  12.341
17337SOL    HW153908   4.711   1.873  12.394
17337SOL    HW253909   4.787   1.843  12.266
17338SOL     OW53910   1.315   3.531  11.463
17338SOL    HW153911   1.241   3.487  11.504
17338SOL    HW253912   1.279   3.615  11.434
17339SOL     OW53913   1.558   1.633   2.836
17339SOL    HW153914   1.546   1.620   2.930
17339SOL    HW253915   1.627   1.699   2.830
17340SOL     OW53916   9.226   8.077   4.121
17340SOL    HW153917   9.224   7.985   4.094
17340SOL    HW253918   9.317   8.091   4.148
17341SOL     OW53919   3.468  10.874   5.785
17341SOL    HW153920   3.448  10.887   5.692
17341SOL    HW253921   3.452  10.960   5.825
17342SOL     OW53922   3.130   6.485   1.942
17342SOL    HW153923   3.188   6.509   1.871
17342SOL    HW253924   3.180   6.420   1.993
17343SOL     OW53925  12.072   9.993   9.796
17343SOL    HW153926  12.111   9.906   9.788
17343SOL    HW253927  12.049  10.001   9.889
17344SOL     OW53928  12.140  12.803   9.588
17344SOL    HW153929  12.158  12.896   9.576
17344SOL    HW253930  12.132  12.792   9.683
17345SOL     OW53931  12.518  10.851   3.035
17345SOL    HW153932  12.567  10.834   2.954
17345SOL    HW253933  12.451  10.782   3.037
17346SOL     OW53934   7.288   8.865   7.459
17346SOL    HW153935   7.270   8.884   7.551
17346SOL    HW253936   7.375   8.900   7.444
17347SOL     OW53937   6.209   1.280  13.320
17347SOL    HW153938   6.119   1.278  13.285
17347SOL    HW253939   6.197   1.286  13.415
17348SOL     OW53940   3.351  11.190  12.244
17348SOL    HW153941   3.277  11.226  12.196
17348SOL    HW253942   3.416  11.170  12.176
17349SOL     OW53943   2.902   0.804  14.483
17349SOL    HW153944   2.848   0.766  14.551
17349SOL    HW253945   2.943   0.880  14.524
17350SOL     OW53946  11.735   8.574  12.200
17350SOL    HW153947  11.698   8.635  12.135
17350SOL    HW253948  11.765   8.630  12.271
17351SOL     OW53949   6.861   9.735   0.902
17351SOL    HW153950   6.906   9.812   0.935
17351SOL    HW253951   6.800   9.769   0.837
17352SOL     OW53952   9.809   4.694   6.452
17352SOL    HW153953   9.855   4.612   6.471
17352SOL    HW253954   9.840   4.719   6.366
17353SOL     OW53955  13.988   1.917   3.327
17353SOL    HW153956  14.044   1.993   3.340
17353SOL    HW253957  14.002   1.893   3.235
17354SOL     OW53958   0.897  10.104   8.389
17354SOL    HW153959   0.802  10.094   8.390
17354SOL    HW253960   0.929  10.027   8.343
17355SOL     OW53961  12.271   6.940  14.261
17355SOL    HW153962  12.351   6.898  14.228
17355SOL    HW253963  12.246   6.888  14.337
17356SOL     OW53964  14.570  14.432   7.229
17356SOL    HW153965  14.554  14.522   7.201
17356SOL    HW253966  14.532  14.377   7.160
17357SOL     OW53967   0.988  13.044  11.720
17357SOL    HW153968   0.992  13.044  11.624
17357SOL    HW253969   0.982  13.136  11.744
17358SOL     OW53970   7.590   5.403  11.248
17358SOL    HW153971   7.551   5.349  11.179
17358SOL    HW253972   7.683   5.381  11.247
17359SOL     OW53973   2.904  14.390   1.131
17359SOL    HW153974   2.811  14.370   1.144
17359SOL    HW253975   2.942  14.311   1.094
17360SOL     OW53976   9.650   4.017  14.299
17360SOL    HW153977   9.656   4.007  14.204
17360SOL    HW253978   9.631   3.929  14.331
17361SOL     OW53979  10.780   4.510   4.269
17361SOL    HW153980  10.771   4.415   4.275
17361SOL    HW253981  10.707   4.538   4.213
17362SOL     OW53982  12.407   9.402   5.361
17362SOL    HW153983  12.418   9.450   5.443
17362SOL    HW253984  12.370   9.465   5.300
17363SOL     OW53985  10.829  13.353  12.474
17363SOL    HW153986  10.745  13.311  12.454
17363SOL    HW253987  10.812  13.447  12.463
17364SOL     OW53988   7.713   8.941   6.640
17364SOL    HW153989   7.659   8.863   6.650
17364SOL    HW253990   7.757   8.951   6.725
17365SOL     OW53991  14.287  13.455  11.091
17365SOL    HW153992  14.205  13.498  11.117
17365SOL    HW253993  14.311  13.403  11.167
17366SOL     OW53994   1.830   8.992   5.088
17366SOL    HW153995   1.863   8.911   5.049
17366SOL    HW253996   1.781   8.963   5.165
17367SOL     OW53997   8.244  14.604  14.262
17367SOL    HW153998   8.334  14.617  14.233
17367SOL    HW253999   8.250  14.543  14.335
17368SOL     OW54000   0.757   0.257   0.612
17368SOL    HW154001   0.758   0.291   0.522
17368SOL    HW254002   0.696   0.315   0.658
17369SOL     OW54003   6.181   5.322   4.896
17369SOL    HW154004   6.205   5.414   4.907
17369SOL    HW254005   6.178   5.309   4.801
17370SOL     OW54006  10.519  13.878   1.149
17370SOL    HW154007  10.539  13.965   1.183
17370SOL    HW254008  10.601  13.848   1.110
17371SOL     OW54009   2.473  13.415   7.479
17371SOL    HW154010   2.391  13.463   7.468
17371SOL    HW254011   2.487  13.411   7.573
17372SOL     OW54012   9.412   0.516  12.354
17372SOL    HW154013   9.472   0.574  12.402
17372SOL    HW254014   9.327   0.560  12.359
17373SOL     OW54015  10.179  10.576   9.770
17373SOL    HW154016  10.237  10.583   9.694
17373SOL    HW254017  10.221  10.630   9.837
17374SOL     OW54018   6.212   1.034  12.158
17374SOL    HW154019   6.284   0.977  12.182
17374SOL    HW254020   6.253   1.118  12.139
17375SOL     OW54021   8.715   2.628  12.694
17375SOL    HW154022   8.793   2.645  12.642
17375SOL    HW254023   8.747   2.613  12.783
17376SOL     OW54024   2.172   6.535   5.047
17376SOL    HW154025   2.194   6.466   4.984
17376SOL    HW254026   2.140   6.607   4.992
17377SOL     OW54027   5.401   2.973   5.828
17377SOL    HW154028   5.486   3.011   5.854
17377SOL    HW254029   5.402   2.977   5.733
17378SOL     OW54030  12.327   8.659  14.399
17378SOL    HW154031  12.259   8.599  14.428
17378SOL    HW254032  12.359   8.621  14.317
17379SOL     OW54033   2.237   5.289  10.153
17379SOL    HW154034   2.244   5.194  10.154
17379SOL    HW254035   2.325   5.320  10.176
17380SOL     OW54036   9.226   3.048   3.719
17380SOL    HW154037   9.274   2.966   3.717
17380SOL    HW254038   9.195   3.060   3.629
17381SOL     OW54039   2.776  10.863  10.360
17381SOL    HW154040   2.714  10.799  10.326
17381SOL    HW254041   2.796  10.832  10.449
17382SOL     OW54042  12.637  11.188   9.930
17382SOL    HW154043  12.661  11.260   9.872
17382SOL    HW254044  12.565  11.223   9.983
17383SOL     OW54045   1.936  10.023   8.177
17383SOL    HW154046   1.889  10.007   8.259
17383SOL    HW254047   1.883  10.088   8.131
17384SOL     OW54048   8.244   9.548  12.986
17384SOL    HW154049   8.285   9.633  13.001
17384SOL    HW254050   8.246   9.537  12.891
17385SOL     OW54051   1.558   0.596   4.028
17385SOL    HW154052   1.511   0.513   4.031
17385SOL    HW254053   1.602   0.596   3.943
17386SOL     OW54054   7.778  12.833   9.989
17386SOL    HW154055   7.835  12.901   9.953
17386SOL    HW254056   7.690  12.870   9.983
17387SOL     OW54057   2.428   7.106   2.933
17387SOL    HW154058   2.513   7.130   2.896
17387SOL    HW254059   2.444   7.023   2.978
17388SOL     OW54060   0.323  13.244  11.925
17388SOL    HW154061   0.381  13.320  11.926
17388SOL    HW254062   0.373  13.176  11.880
17389SOL     OW54063   1.000   6.644   0.904
17389SOL    HW154064   1.092   6.671   0.905
17389SOL    HW254065   0.996   6.571   0.966
17390SOL     OW54066  10.126   0.543   5.623
17390SOL    HW154067  10.215   0.539   5.586
17390SOL    HW254068  10.070   0.508   5.555
17391SOL     OW54069  10.469   0.444   2.455
17391SOL    HW154070  10.543   0.382   2.460
17391SOL    HW254071  10.500   0.522   2.500
17392SOL     OW54072   0.990   1.437   4.892
17392SOL    HW154073   0.956   1.527   4.887
17392SOL    HW254074   1.048   1.439   4.968
17393SOL     OW54075   8.928  14.462   1.677
17393SOL    HW154076   8.863  14.413   1.627
17393SOL    HW254077   9.004  14.403   1.680
17394SOL     OW54078   1.244   1.254   8.452
17394SOL    HW154079   1.201   1.168   8.455
17394SOL    HW254080   1.323   1.239   8.401
17395SOL     OW54081  11.653   8.309   1.116
17395SOL    HW154082  11.638   8.344   1.028
17395SOL    HW254083  11.746   8.283   1.116
17396SOL     OW54084   7.802   1.317   3.979
17396SOL    HW154085   7.890   1.355   3.985
17396SOL    HW254086   7.796   1.285   3.889
17397SOL     OW54087   4.458   9.668   5.923
17397SOL    HW154088   4.545   9.664   5.962
17397SOL    HW254089   4.398   9.681   5.996
17398SOL     OW54090   4.234   8.001  12.073
17398SOL    HW154091   4.234   8.039  11.985
17398SOL    HW254092   4.271   8.070  12.128
17399SOL     OW54093   5.786   7.229   4.738
17399SOL    HW154094   5.831   7.277   4.808
17399SOL    HW254095   5.754   7.297   4.679
17400SOL     OW54096   6.523  10.640   0.018
17400SOL    HW154097   6.567  10.704  14.837
17400SOL    HW254098   6.514  10.562  14.837
17401SOL     OW54099   8.163   8.546   5.561
17401SOL    HW154100   8.223   8.479   5.596
17401SOL    HW254101   8.126   8.505   5.483
17402SOL     OW54102  10.169   8.091   1.033
17402SOL    HW154103  10.186   8.157   1.100
17402SOL    HW254104  10.092   8.043   1.064
17403SOL     OW54105   5.489   1.066   7.967
17403SOL    HW154106   5.470   0.974   7.981
17403SOL    HW254107   5.572   1.081   8.013
17404SOL     OW54108  10.701  14.714   6.344
17404SOL    HW154109  10.667  14.801   6.324
17404SOL    HW254110  10.650  14.655   6.289
17405SOL     OW54111   5.863   2.641   9.328
17405SOL    HW154112   5.869   2.726   9.371
17405SOL    HW254113   5.774   2.638   9.292
17406SOL     OW54114   5.865  12.091   8.086
17406SOL    HW154115   5.951  12.056   8.062
17406SOL    HW254116   5.877  12.186   8.085
17407SOL     OW54117   2.295   7.346  13.233
17407SOL    HW154118   2.387   7.362  13.252
17407SOL    HW254119   2.294   7.264  13.183
17408SOL     OW54120  14.147  14.674   2.352
17408SOL    HW154121  14.054  14.695   2.346
17408SOL    HW254122  14.164  14.618   2.276
17409SOL     OW54123   1.332  12.255   6.071
17409SOL    HW154124   1.299  12.247   5.981
17409SOL    HW254125   1.253  12.251   6.125
17410SOL     OW54126   6.290  13.656   5.588
17410SOL    HW154127   6.385  13.658   5.592
17410SOL    HW254128   6.265  13.574   5.629
17411SOL     OW54129   6.766   4.737   7.676
17411SOL    HW154130   6.709   4.662   7.695
17411SOL    HW254131   6.839   4.728   7.737
17412SOL     OW54132   9.705   1.358   4.167
17412SOL    HW154133   9.761   1.322   4.099
17412SOL    HW254134   9.697   1.451   4.145
17413SOL     OW54135   9.482   4.633   1.945
17413SOL    HW154136   9.453   4.580   1.871
17413SOL    HW254137   9.536   4.573   1.997
17414SOL     OW54138   6.714  12.885   3.377
17414SOL    HW154139   6.682  12.872   3.288
17414SOL    HW254140   6.662  12.825   3.430
17415SOL     OW54141   4.232   9.943   1.849
17415SOL    HW154142   4.181   9.934   1.769
17415SOL    HW254143   4.215   9.862   1.897
17416SOL     OW54144  14.092   3.557   1.408
17416SOL    HW154145  14.098   3.629   1.471
17416SOL    HW254146  14.174   3.510   1.417
17417SOL     OW54147  11.786  13.872   1.687
17417SOL    HW154148  11.851  13.810   1.719
17417SOL    HW254149  11.819  13.958   1.713
17418SOL     OW54150   9.979   6.756   9.815
17418SOL    HW154151   9.931   6.685   9.857
17418SOL    HW254152   9.949   6.835   9.860
17419SOL     OW54153  13.185  12.254   0.667
17419SOL    HW154154  13.139  12.337   0.678
17419SOL    HW254155  13.115  12.190   0.653
17420SOL     OW54156  14.623   7.213  11.052
17420SOL    HW154157  14.670   7.139  11.091
17420SOL    HW254158  14.544   7.174  11.014
17421SOL     OW54159  14.762  11.306   2.789
17421SOL    HW154160  14.682  11.308   2.735
17421SOL    HW254161  14.785  11.399   2.800
17422SOL     OW54162  10.070  13.155   3.759
17422SOL    HW154163  10.014  13.110   3.696
17422SOL    HW254164  10.046  13.247   3.751
17423SOL     OW54165  11.337  12.922   7.632
17423SOL    HW154166  11.249  12.934   7.596
17423SOL    HW254167  11.328  12.850   7.694
17424SOL     OW54168  13.418   2.714  14.615
17424SOL    HW154169  13.356   2.731  14.544
17424SOL    HW254170  13.435   2.801  14.652
17425SOL     OW54171   0.647   9.776  14.560
17425SOL    HW154172   0.669   9.743  14.473
17425SOL    HW254173   0.657   9.871  14.554
17426SOL     OW54174   5.107   7.113  11.601
17426SOL    HW154175   5.051   7.060  11.657
17426SOL    HW254176   5.120   7.194  11.649
17427SOL     OW54177  14.217   4.064   7.581
17427SOL    HW154178  14.218   4.127   7.508
17427SOL    HW254179  14.129   4.072   7.618
17428SOL     OW54180  11.984  13.407   3.291
17428SOL    HW154181  11.959  13.414   3.198
17428SOL    HW254182  11.907  13.370   3.333
17429SOL     OW54183   0.845   2.584   2.913
17429SOL    HW154184   0.888   2.504   2.941
17429SOL    HW254185   0.784   2.556   2.845
17430SOL     OW54186   7.084   7.419   0.568
17430SOL    HW154187   7.138   7.419   0.489
17430SOL    HW254188   7.111   7.497   0.616
17431SOL     OW54189  10.555  11.749  14.193
17431SOL    HW154190  10.539  11.706  14.109
17431SOL    HW254191  10.522  11.838  14.181
17432SOL     OW54192   5.951   1.720   5.543
17432SOL    HW154193   5.995   1.729   5.627
17432SOL    HW254194   5.872   1.669   5.563
17433SOL     OW54195   4.520   4.005  10.243
17433SOL    HW154196   4.550   3.945  10.175
17433SOL    HW254197   4.429   3.982  10.258
17434SOL     OW54198  14.679   4.081   5.144
17434SOL    HW154199  14.763   4.093   5.101
17434SOL    HW254200  14.697   4.020   5.216
17435SOL     OW54201   8.359   6.361   6.873
17435SOL    HW154202   8.267   6.347   6.850
17435SOL    HW254203   8.394   6.273   6.885
17436SOL     OW54204   8.085  13.882   0.966
17436SOL    HW154205   8.126  13.968   0.957
17436SOL    HW254206   8.108  13.836   0.885
17437SOL     OW54207   0.637   4.970   3.625
17437SOL    HW154208   0.651   4.930   3.538
17437SOL    HW254209   0.724   4.970   3.665
17438SOL     OW54210   2.187  10.887   3.192
17438SOL    HW154211   2.155  10.945   3.123
17438SOL    HW254212   2.109  10.862   3.241
17439SOL     OW54213   9.697  12.337   8.206
17439SOL    HW154214   9.736  12.403   8.265
17439SOL    HW254215   9.677  12.386   8.126
17440SOL     OW54216  10.832   5.585  13.016
17440SOL    HW154217  10.811   5.662  12.963
17440SOL    HW254218  10.904   5.614  13.073
17441SOL     OW54219   7.518   9.342  12.297
17441SOL    HW154220   7.438   9.395  12.303
17441SOL    HW254221   7.538   9.338  12.204
17442SOL     OW54222   0.999  10.980  12.267
17442SOL    HW154223   0.922  10.924  12.283
17442SOL    HW254224   1.072  10.929  12.302
17443SOL     OW54225  13.832  11.937   1.971
17443SOL    HW154226  13.908  11.972   1.925
17443SOL    HW254227  13.861  11.854   2.007
17444SOL     OW54228  12.292   8.278   5.935
17444SOL    HW154229  12.273   8.286   6.029
17444SOL    HW254230  12.226   8.333   5.893
17445SOL     OW54231   8.716   9.920  13.423
17445SOL    HW154232   8.806   9.951  13.414
17445SOL    HW254233   8.671   9.955  13.346
17446SOL     OW54234   9.100   8.945   9.324
17446SOL    HW154235   9.037   9.009   9.292
17446SOL    HW254236   9.096   8.874   9.260
17447SOL     OW54237   1.938  10.511   6.985
17447SOL    HW154238   1.924  10.453   7.060
17447SOL    HW254239   1.945  10.598   7.023
17448SOL     OW54240   1.042   1.893  11.995
17448SOL    HW154241   1.090   1.819  12.033
17448SOL    HW254242   1.102   1.930  11.931
17449SOL     OW54243   3.788   8.931   2.674
17449SOL    HW154244   3.746   9.017   2.663
17449SOL    HW254245   3.782   8.891   2.587
17450SOL     OW54246   8.008   5.551   3.011
17450SOL    HW154247   8.095   5.590   3.003
17450SOL    HW254248   8.021   5.459   2.988
17451SOL     OW54249   3.123   1.956   7.804
17451SOL    HW154250   3.173   1.988   7.730
17451SOL    HW254251   3.162   1.871   7.825
17452SOL     OW54252   4.625  12.180   0.993
17452SOL    HW154253   4.535  12.193   1.020
17452SOL    HW254254   4.676  12.240   1.047
17453SOL     OW54255   6.362   0.475   6.892
17453SOL    HW154256   6.435   0.535   6.907
17453SOL    HW254257   6.379   0.437   6.807
17454SOL     OW54258  12.162   2.173  11.679
17454SOL    HW154259  12.155   2.241  11.613
17454SOL    HW254260  12.248   2.133  11.662
17455SOL     OW54261   1.361  11.482   9.222
17455SOL    HW154262   1.288  11.541   9.204
17455SOL    HW254263   1.354  11.464   9.316
17456SOL     OW54264  10.858  14.333  11.544
17456SOL    HW154265  10.856  14.286  11.461
17456SOL    HW254266  10.806  14.280  11.603
17457SOL     OW54267   2.165   9.354  14.359
17457SOL    HW154268   2.132   9.275  14.402
17457SOL    HW254269   2.107   9.424  14.390
17458SOL     OW54270   3.401   0.581   0.402
17458SOL    HW154271   3.338   0.579   0.330
17458SOL    HW254272   3.427   0.490   0.414
17459SOL     OW54273   8.400   2.901  10.070
17459SOL    HW154274   8.434   2.986  10.099
17459SOL    HW254275   8.392   2.849  10.150
17460SOL     OW54276   8.471  13.873   2.216
17460SOL    HW154277   8.500  13.921   2.138
17460SOL    HW254278   8.450  13.786   2.182
17461SOL     OW54279   0.525   3.915   4.831
17461SOL    HW154280   0.479   3.928   4.748
17461SOL    HW254281   0.610   3.958   4.818
17462SOL     OW54282  10.203   9.839  13.874
17462SOL    HW154283  10.166   9.752  13.888
17462SOL    HW254284  10.208   9.847  13.779
17463SOL     OW54285  12.258   9.763   9.584
17463SOL    HW154286  12.316   9.779   9.510
17463SOL    HW254287  12.206   9.687   9.558
17464SOL     OW54288   7.353  11.142  13.827
17464SOL    HW154289   7.436  11.116  13.786
17464SOL    HW254290   7.296  11.163  13.753
17465SOL     OW54291  13.363  14.857   7.393
17465SOL    HW154292  13.287   0.035   7.416
17465SOL    HW254293  13.343  14.770   7.428
17466SOL     OW54294   2.806   7.209   9.354
17466SOL    HW154295   2.868   7.248   9.416
17466SOL    HW254296   2.833   7.242   9.269
17467SOL     OW54297  12.484  10.892  12.270
17467SOL    HW154298  12.478  10.837  12.192
17467SOL    HW254299  12.476  10.981  12.237
17468SOL     OW54300   1.630  11.089   5.772
17468SOL    HW154301   1.563  11.022   5.758
17468SOL    HW254302   1.641  11.131   5.686
17469SOL     OW54303   4.731  13.654   5.842
17469SOL    HW154304   4.742  13.660   5.937
17469SOL    HW254305   4.637  13.642   5.830
17470SOL     OW54306  10.581  10.791  14.246
17470SOL    HW154307  10.497  10.821  14.212
17470SOL    HW254308  10.636  10.869  14.245
17471SOL     OW54309   4.956   2.319  12.436
17471SOL    HW154310   4.865   2.302  12.461
17471SOL    HW254311   4.953   2.405  12.393
17472SOL     OW54312   2.213   6.317  11.738
17472SOL    HW154313   2.259   6.233  11.730
17472SOL    HW254314   2.137   6.296  11.793
17473SOL     OW54315   5.652   1.334   5.589
17473SOL    HW154316   5.591   1.286   5.533
17473SOL    HW254317   5.737   1.293   5.574
17474SOL     OW54318  10.680   3.403   4.244
17474SOL    HW154319  10.602   3.356   4.274
17474SOL    HW254320  10.680   3.391   4.149
17475SOL     OW54321   5.071   2.728  12.028
17475SOL    HW154322   5.071   2.814  12.069
17475SOL    HW254323   5.129   2.675  12.082
17476SOL     OW54324  13.521   4.551   8.625
17476SOL    HW154325  13.615   4.533   8.627
17476SOL    HW254326  13.504   4.598   8.707
17477SOL     OW54327   0.270  11.664   3.948
17477SOL    HW154328   0.269  11.584   4.001
17477SOL    HW254329   0.318  11.640   3.869
17478SOL     OW54330  10.056   4.470   8.086
17478SOL    HW154331  10.123   4.512   8.033
17478SOL    HW254332  10.077   4.494   8.176
17479SOL     OW54333   5.354   1.328  11.836
17479SOL    HW154334   5.400   1.244  11.843
17479SOL    HW254335   5.261   1.304  11.835
17480SOL     OW54336   3.180  14.607   6.196
17480SOL    HW154337   3.106  14.668   6.187
17480SOL    HW254338   3.218  14.628   6.281
17481SOL     OW54339  11.754   4.438   6.418
17481SOL    HW154340  11.778   4.350   6.448
17481SOL    HW254341  11.740   4.428   6.323
17482SOL     OW54342  11.681   3.098   5.899
17482SOL    HW154343  11.591   3.108   5.932
17482SOL    HW254344  11.707   3.010   5.926
17483SOL     OW54345   3.460  12.300   0.303
17483SOL    HW154346   3.461  12.391   0.335
17483SOL    HW254347   3.395  12.256   0.358
17484SOL     OW54348  13.697  10.962   1.536
17484SOL    HW154349  13.727  11.017   1.464
17484SOL    HW254350  13.626  10.910   1.499
17485SOL     OW54351   2.007   9.579   8.306
17485SOL    HW154352   2.064   9.643   8.349
17485SOL    HW254353   1.920   9.597   8.342
17486SOL     OW54354  10.320   6.702   9.264
17486SOL    HW154355  10.392   6.710   9.202
17486SOL    HW254356  10.242   6.726   9.213
17487SOL     OW54357   6.328   3.522  10.175
17487SOL    HW154358   6.399   3.475  10.219
17487SOL    HW254359   6.363   3.542  10.088
17488SOL     OW54360  11.486   0.676  10.834
17488SOL    HW154361  11.510   0.583  10.841
17488SOL    HW254362  11.390   0.675  10.827
17489SOL     OW54363   0.918   4.228   7.575
17489SOL    HW154364   0.934   4.285   7.651
17489SOL    HW254365   0.927   4.139   7.609
17490SOL     OW54366   6.625   8.215   1.603
17490SOL    HW154367   6.593   8.305   1.597
17490SOL    HW254368   6.549   8.163   1.627
17491SOL     OW54369  10.040   8.914   9.617
17491SOL    HW154370   9.999   8.994   9.587
17491SOL    HW254371  10.134   8.929   9.606
17492SOL     OW54372  10.083   1.399   8.699
17492SOL    HW154373  10.121   1.311   8.696
17492SOL    HW254374  10.076   1.425   8.607
17493SOL     OW54375   2.610  11.776  10.902
17493SOL    HW154376   2.586  11.802  10.991
17493SOL    HW254377   2.686  11.830  10.881
17494SOL     OW54378  11.971   3.083  13.897
17494SOL    HW154379  11.945   2.992  13.905
17494SOL    HW254380  11.999   3.093  13.806
17495SOL     OW54381   0.645   7.860   6.519
17495SOL    HW154382   0.687   7.844   6.435
17495SOL    HW254383   0.698   7.810   6.582
17496SOL     OW54384   4.752   5.111   2.767
17496SOL    HW154385   4.815   5.156   2.823
17496SOL    HW254386   4.717   5.041   2.821
17497SOL     OW54387  11.651   9.565   3.783
17497SOL    HW154388  11.659   9.494   3.847
17497SOL    HW254389  11.565   9.603   3.800
17498SOL     OW54390   0.763   0.477  11.498
17498SOL    HW154391   0.825   0.547  11.518
17498SOL    HW254392   0.681   0.523  11.478
17499SOL     OW54393   7.542   6.674  14.287
17499SOL    HW154394   7.552   6.698  14.380
17499SOL    HW254395   7.607   6.604  14.274
17500SOL     OW54396  11.868   5.582   9.593
17500SOL    HW154397  11.858   5.631   9.674
17500SOL    HW254398  11.808   5.508   9.602
17501SOL     OW54399  13.847   1.908   2.680
17501SOL    HW154400  13.924   1.964   2.667
17501SOL    HW254401  13.778   1.949   2.629
17502SOL     OW54402  14.676   3.021  13.188
17502SOL    HW154403  14.651   2.929  13.179
17502SOL    HW254404  14.695   3.050  13.099
17503SOL     OW54405  12.165   4.730  11.460
17503SOL    HW154406  12.146   4.746  11.552
17503SOL    HW254407  12.260   4.715  11.457
17504SOL     OW54408   5.674  11.984   9.598
17504SOL    HW154409   5.748  12.017   9.648
17504SOL    HW254410   5.683  11.889   9.602
17505SOL     OW54411   9.731  12.593   6.653
17505SOL    HW154412   9.662  12.641   6.607
17505SOL    HW254413   9.743  12.513   6.601
17506SOL     OW54414  13.234   9.280  13.604
17506SOL    HW154415  13.221   9.185  13.596
17506SOL    HW254416  13.216   9.299  13.696
17507SOL     OW54417   2.165   5.171  12.795
17507SOL    HW154418   2.131   5.255  12.763
17507SOL    HW254419   2.217   5.194  12.872
17508SOL     OW54420  14.330   6.031  11.534
17508SOL    HW154421  14.409   6.081  11.556
17508SOL    HW254422  14.307   6.060  11.446
17509SOL     OW54423   1.910   7.525  12.148
17509SOL    HW154424   1.933   7.432  12.142
17509SOL    HW254425   1.877   7.547  12.061
17510SOL     OW54426   4.146   6.352   0.797
17510SOL    HW154427   4.100   6.419   0.848
17510SOL    HW254428   4.077   6.291   0.771
17511SOL     OW54429  12.390  10.870   2.192
17511SOL    HW154430  12.406  10.788   2.147
17511SOL    HW254431  12.354  10.928   2.124
17512SOL     OW54432   8.720  11.325   1.452
17512SOL    HW154433   8.635  11.283   1.467
17512SOL    HW254434   8.713  11.410   1.495
17513SOL     OW54435  12.823  13.124  14.260
17513SOL    HW154436  12.771  13.164  14.329
17513SOL    HW254437  12.759  13.104  14.191
17514SOL     OW54438   2.586   0.237  14.642
17514SOL    HW154439   2.539   0.207  14.720
17514SOL    HW254440   2.518   0.274  14.585
17515SOL     OW54441   8.790   6.898   9.827
17515SOL    HW154442   8.795   6.971   9.765
17515SOL    HW254443   8.859   6.916   9.891
17516SOL     OW54444   0.593  12.051  10.774
17516SOL    HW154445   0.556  11.971  10.811
17516SOL    HW254446   0.537  12.121  10.808
17517SOL     OW54447   1.245   7.996   6.805
17517SOL    HW154448   1.264   7.977   6.897
17517SOL    HW254449   1.250   7.911   6.761
17518SOL     OW54450  11.985  12.694   5.708
17518SOL    HW154451  11.966  12.616   5.760
17518SOL    HW254452  11.932  12.683   5.629
17519SOL     OW54453   9.058   5.502   5.586
17519SOL    HW154454   9.020   5.424   5.545
17519SOL    HW254455   9.092   5.471   5.670
17520SOL     OW54456   1.689   5.414   8.464
17520SOL    HW154457   1.714   5.500   8.430
17520SOL    HW254458   1.768   5.379   8.504
17521SOL     OW54459  11.570   0.413   6.203
17521SOL    HW154460  11.589   0.492   6.253
17521SOL    HW254461  11.608   0.428   6.117
17522SOL     OW54462  10.635  10.668  13.967
17522SOL    HW154463  10.722  10.660  13.929
17522SOL    HW254464  10.649  10.706  14.053
17523SOL     OW54465  11.064   6.019   5.974
17523SOL    HW154466  11.077   5.943   6.031
17523SOL    HW254467  11.030   6.087   6.031
17524SOL     OW54468   0.329   1.931  10.816
17524SOL    HW154469   0.390   1.943  10.743
17524SOL    HW254470   0.305   1.838  10.811
17525SOL     OW54471   7.710   5.873   0.252
17525SOL    HW154472   7.668   5.862   0.167
17525SOL    HW254473   7.638   5.886   0.313
17526SOL     OW54474   4.447   1.161   3.482
17526SOL    HW154475   4.465   1.107   3.560
17526SOL    HW254476   4.528   1.156   3.431
17527SOL     OW54477   6.818   8.041   1.287
17527SOL    HW154478   6.879   8.071   1.219
17527SOL    HW254479   6.781   8.122   1.322
17528SOL     OW54480   6.174   5.626   4.642
17528SOL    HW154481   6.225   5.629   4.723
17528SOL    HW254482   6.237   5.604   4.574
17529SOL     OW54483  10.797  11.014   6.246
17529SOL    HW154484  10.846  10.976   6.319
17529SOL    HW254485  10.780  11.104   6.272
17530SOL     OW54486   9.426   8.319  14.691
17530SOL    HW154487   9.467   8.405  14.687
17530SOL    HW254488   9.476   8.266  14.630
17531SOL     OW54489  11.224   8.337   0.098
17531SOL    HW154490  11.215   8.366   0.007
17531SOL    HW254491  11.259   8.413   0.144
17532SOL     OW54492   5.085   0.709   8.409
17532SOL    HW154493   5.121   0.715   8.498
17532SOL    HW254494   5.144   0.649   8.363
17533SOL     OW54495   1.725  11.306   8.222
17533SOL    HW154496   1.726  11.212   8.206
17533SOL    HW254497   1.731  11.345   8.135
17534SOL     OW54498   7.471  13.109   2.835
17534SOL    HW154499   7.564  13.130   2.838
17534SOL    HW254500   7.431  13.181   2.786
17535SOL     OW54501   9.480  14.839  12.410
17535SOL    HW154502   9.451   0.054  12.419
17535SOL    HW254503   9.560  14.833  12.463
17536SOL     OW54504   9.699   8.868   2.741
17536SOL    HW154505   9.739   8.942   2.696
17536SOL    HW254506   9.710   8.794   2.681
17537SOL     OW54507   8.454   7.283  14.569
17537SOL    HW154508   8.368   7.312  14.539
17537SOL    HW254509   8.507   7.363  14.573
17538SOL     OW54510  14.666   3.956   2.960
17538SOL    HW154511  14.599   3.930   3.023
17538SOL    HW254512  14.731   4.004   3.012
17539SOL     OW54513   5.882   9.161   6.608
17539SOL    HW154514   5.820   9.227   6.641
17539SOL    HW254515   5.967   9.204   6.613
17540SOL     OW54516   6.272   1.154   5.448
17540SOL    HW154517   6.198   1.190   5.497
17540SOL    HW254518   6.240   1.143   5.359
17541SOL     OW54519   1.799   5.486   6.735
17541SOL    HW154520   1.838   5.464   6.819
17541SOL    HW254521   1.717   5.530   6.757
17542SOL     OW54522  10.816   4.116   9.606
17542SOL    HW154523  10.878   4.165   9.551
17542SOL    HW254524  10.730   4.141   9.573
17543SOL     OW54525   1.589  10.142  13.869
17543SOL    HW154526   1.588  10.233  13.840
17543SOL    HW254527   1.527  10.139  13.942
17544SOL     OW54528   5.025  11.122   5.446
17544SOL    HW154529   4.935  11.147   5.426
17544SOL    HW254530   5.061  11.092   5.363
17545SOL     OW54531  13.691  10.377   4.754
17545SOL    HW154532  13.597  10.368   4.740
17545SOL    HW254533  13.725  10.288   4.746
17546SOL     OW54534   9.176   8.316   1.082
17546SOL    HW154535   9.136   8.245   1.031
17546SOL    HW254536   9.246   8.273   1.131
17547SOL     OW54537   0.711  11.797   0.838
17547SOL    HW154538   0.671  11.795   0.925
17547SOL    HW254539   0.695  11.886   0.807
17548SOL     OW54540  11.846   9.956   5.337
17548SOL    HW154541  11.892   9.880   5.373
17548SOL    HW254542  11.884   9.967   5.250
17549SOL     OW54543   1.178   8.793   7.109
17549SOL    HW154544   1.177   8.854   7.035
17549SOL    HW254545   1.085   8.778   7.128
17550SOL     OW54546  11.553   9.692  13.066
17550SOL    HW154547  11.492   9.702  12.993
17550SOL    HW254548  11.548   9.599  13.090
17551SOL     OW54549  14.051   8.896   9.746
17551SOL    HW154550  14.025   8.932   9.662
17551SOL    HW254551  14.025   8.804   9.742
17552SOL     OW54552   4.150  11.364   7.083
17552SOL    HW154553   4.209  11.300   7.043
17552SOL    HW254554   4.135  11.429   7.014
17553SOL     OW54555  11.051   3.733   6.369
17553SOL    HW154556  11.100   3.742   6.287
17553SOL    HW254557  11.096   3.663   6.416
17554SOL     OW54558   6.972   2.016   6.826
17554SOL    HW154559   7.010   2.017   6.913
17554SOL    HW254560   7.012   1.940   6.783
17555SOL     OW54561   4.928  13.523   2.116
17555SOL    HW154562   4.839  13.559   2.116
17555SOL    HW254563   4.939  13.485   2.029
17556SOL     OW54564   2.271   7.123   4.811
17556SOL    HW154565   2.280   7.202   4.758
17556SOL    HW254566   2.355   7.114   4.856
17557SOL     OW54567  14.302   4.138  12.915
17557SOL    HW154568  14.272   4.187  12.838
17557SOL    HW254569  14.222   4.123  12.966
17558SOL     OW54570   9.149  12.867   9.743
17558SOL    HW154571   9.165  12.900   9.831
17558SOL    HW254572   9.236  12.856   9.705
17559SOL     OW54573   1.129   1.204  10.429
17559SOL    HW154574   1.093   1.129  10.475
17559SOL    HW254575   1.196   1.167  10.371
17560SOL     OW54576   5.028   2.918  11.696
17560SOL    HW154577   4.960   2.985  11.697
17560SOL    HW254578   5.076   2.931  11.777
17561SOL     OW54579   5.677   9.941   9.169
17561SOL    HW154580   5.643   9.860   9.207
17561SOL    HW254581   5.619   9.959   9.095
17562SOL     OW54582   9.498   5.102   7.697
17562SOL    HW154583   9.493   5.012   7.730
17562SOL    HW254584   9.410   5.122   7.666
17563SOL     OW54585  12.930  11.518   2.420
17563SOL    HW154586  12.922  11.429   2.385
17563SOL    HW254587  12.904  11.510   2.512
17564SOL     OW54588   8.120   3.385   2.741
17564SOL    HW154589   8.079   3.358   2.659
17564SOL    HW254590   8.101   3.315   2.802
17565SOL     OW54591  10.252   4.100   5.781
17565SOL    HW154592  10.316   4.077   5.714
17565SOL    HW254593  10.304   4.135   5.853
17566SOL     OW54594   0.088   3.284   3.895
17566SOL    HW154595   0.066   3.376   3.914
17566SOL    HW254596   0.145   3.258   3.968
17567SOL     OW54597  10.687   5.531   3.977
17567SOL    HW154598  10.764   5.547   4.031
17567SOL    HW254599  10.614   5.569   4.027
17568SOL     OW54600  11.928   0.289   3.279
17568SOL    HW154601  11.863   0.229   3.242
17568SOL    HW254602  11.895   0.376   3.257
17569SOL     OW54603   5.424   6.117  13.894
17569SOL    HW154604   5.357   6.178  13.866
17569SOL    HW254605   5.376   6.044  13.934
17570SOL     OW54606  11.529   7.320   5.306
17570SOL    HW154607  11.492   7.335   5.218
17570SOL    HW254608  11.543   7.408   5.341
17571SOL     OW54609  12.089  12.299  10.542
17571SOL    HW154610  12.070  12.210  10.571
17571SOL    HW254611  12.127  12.289  10.455
17572SOL     OW54612   7.603   5.360  14.211
17572SOL    HW154613   7.634   5.284  14.161
17572SOL    HW254614   7.678   5.419  14.212
17573SOL     OW54615   3.242  12.524   0.612
17573SOL    HW154616   3.283  12.548   0.529
17573SOL    HW254617   3.192  12.602   0.636
17574SOL     OW54618  13.332  12.336   0.219
17574SOL    HW154619  13.374  12.282   0.151
17574SOL    HW254620  13.281  12.273   0.270
17575SOL     OW54621   2.593   7.882  11.927
17575SOL    HW154622   2.672   7.906  11.975
17575SOL    HW254623   2.556   7.965  11.898
17576SOL     OW54624  13.450   6.195   1.404
17576SOL    HW154625  13.367   6.194   1.356
17576SOL    HW254626  13.424   6.183   1.496
17577SOL     OW54627   4.106  12.124  13.818
17577SOL    HW154628   4.055  12.059  13.769
17577SOL    HW254629   4.052  12.203  13.817
17578SOL     OW54630   8.617   9.886  11.645
17578SOL    HW154631   8.690   9.877  11.584
17578SOL    HW254632   8.632   9.970  11.688
17579SOL     OW54633   7.479   2.399   9.122
17579SOL    HW154634   7.490   2.471   9.185
17579SOL    HW254635   7.385   2.400   9.101
17580SOL     OW54636  11.211   2.182  12.411
17580SOL    HW154637  11.174   2.157  12.496
17580SOL    HW254638  11.235   2.274  12.422
17581SOL     OW54639   2.516  11.293  11.509
17581SOL    HW154640   2.460  11.340  11.447
17581SOL    HW254641   2.599  11.283  11.463
17582SOL     OW54642  14.245   8.746  10.186
17582SOL    HW154643  14.275   8.830  10.150
17582SOL    HW254644  14.315   8.719  10.245
17583SOL     OW54645   9.519   8.754   9.722
17583SOL    HW154646   9.493   8.759   9.630
17583SOL    HW254647   9.605   8.713   9.721
17584SOL     OW54648  10.040   4.359   6.195
17584SOL    HW154649  10.091   4.380   6.273
17584SOL    HW254650   9.975   4.429   6.189
17585SOL     OW54651  10.016   2.616   6.133
17585SOL    HW154652  10.062   2.671   6.070
17585SOL    HW254653   9.928   2.654   6.139
17586SOL     OW54654   4.891   8.283   6.043
17586SOL    HW154655   4.841   8.363   6.056
17586SOL    HW254656   4.829   8.212   6.061
17587SOL     OW54657  14.283   3.619  10.009
17587SOL    HW154658  14.356   3.568   9.974
17587SOL    HW254659  14.235   3.648   9.932
17588SOL     OW54660   6.847   0.086   1.474
17588SOL    HW154661   6.935   0.086   1.513
17588SOL    HW254662   6.844   0.005   1.423
17589SOL     OW54663  14.757   8.061  11.111
17589SOL    HW154664  14.715   7.987  11.155
17589SOL    HW254665  14.705   8.137  11.137
17590SOL     OW54666   4.177  14.214   5.676
17590SOL    HW154667   4.264  14.241   5.647
17590SOL    HW254668   4.123  14.293   5.669
17591SOL     OW54669   0.818   7.717   7.047
17591SOL    HW154670   0.882   7.782   7.018
17591SOL    HW254671   0.870   7.640   7.071
17592SOL     OW54672  11.015  12.113   7.968
17592SOL    HW154673  10.975  12.056   7.902
17592SOL    HW254674  11.107  12.119   7.941
17593SOL     OW54675  11.461   7.996  10.568
17593SOL    HW154676  11.385   8.047  10.543
17593SOL    HW254677  11.521   8.060  10.608
17594SOL     OW54678  13.275   1.436   9.642
17594SOL    HW154679  13.261   1.530   9.657
17594SOL    HW254680  13.293   1.429   9.548
17595SOL     OW54681  13.794   0.433   8.299
17595SOL    HW154682  13.797   0.416   8.205
17595SOL    HW254683  13.747   0.516   8.307
17596SOL     OW54684   5.173  12.643   7.371
17596SOL    HW154685   5.123  12.720   7.401
17596SOL    HW254686   5.207  12.604   7.452
17597SOL     OW54687   6.759   8.500   4.814
17597SOL    HW154688   6.800   8.535   4.735
17597SOL    HW254689   6.668   8.485   4.789
17598SOL     OW54690   0.670   1.827   0.711
17598SOL    HW154691   0.624   1.855   0.790
17598SOL    HW254692   0.722   1.752   0.739
17599SOL     OW54693   1.979  12.765  14.006
17599SOL    HW154694   1.988  12.859  14.025
17599SOL    HW254695   1.901  12.759  13.952
17600SOL     OW54696  14.474   9.553   9.450
17600SOL    HW154697  14.487   9.464   9.484
17600SOL    HW254698  14.453   9.540   9.357
17601SOL     OW54699   9.708   6.558   3.722
17601SOL    HW154700   9.621   6.527   3.696
17601SOL    HW254701   9.768   6.515   3.661
17602SOL     OW54702   8.437  10.822   5.706
17602SOL    HW154703   8.342  10.831   5.717
17602SOL    HW254704   8.452  10.728   5.703
17603SOL     OW54705   7.137  13.535   8.932
17603SOL    HW154706   7.133  13.574   8.844
17603SOL    HW254707   7.072  13.465   8.930
17604SOL     OW54708   6.478   9.462   8.610
17604SOL    HW154709   6.515   9.547   8.637
17604SOL    HW254710   6.492   9.458   8.516
17605SOL     OW54711  10.955   2.464   4.282
17605SOL    HW154712  10.884   2.492   4.224
17605SOL    HW254713  10.925   2.489   4.370
17606SOL     OW54714   5.815   0.559  14.192
17606SOL    HW154715   5.810   0.651  14.218
17606SOL    HW254716   5.829   0.511  14.273
17607SOL     OW54717  13.512   4.069   5.720
17607SOL    HW154718  13.539   3.986   5.760
17607SOL    HW254719  13.590   4.100   5.674
17608SOL     OW54720  12.781  11.304   0.716
17608SOL    HW154721  12.829  11.343   0.644
17608SOL    HW254722  12.759  11.215   0.686
17609SOL     OW54723   5.169   7.878  10.104
17609SOL    HW154724   5.103   7.927  10.055
17609SOL    HW254725   5.118   7.820  10.162
17610SOL     OW54726  10.782   1.620   2.220
17610SOL    HW154727  10.696   1.596   2.254
17610SOL    HW254728  10.780   1.716   2.217
17611SOL     OW54729  12.261   4.064   7.956
17611SOL    HW154730  12.239   4.156   7.940
17611SOL    HW254731  12.254   4.022   7.870
17612SOL     OW54732   4.859   7.194   5.047
17612SOL    HW154733   4.838   7.156   5.133
17612SOL    HW254734   4.837   7.125   4.984
17613SOL     OW54735   7.693  14.296  11.745
17613SOL    HW154736   7.659  14.208  11.758
17613SOL    HW254737   7.669  14.317  11.654
17614SOL     OW54738   2.344  11.082   7.189
17614SOL    HW154739   2.282  11.103   7.119
17614SOL    HW254740   2.295  11.023   7.247
17615SOL     OW54741   9.748   4.622   9.117
17615SOL    HW154742   9.702   4.650   9.196
17615SOL    HW254743   9.681   4.625   9.049
17616SOL     OW54744   0.964  12.797   6.201
17616SOL    HW154745   0.950  12.890   6.215
17616SOL    HW254746   1.034  12.793   6.136
17617SOL     OW54747  11.073   7.574  12.407
17617SOL    HW154748  11.019   7.523  12.468
17617SOL    HW254749  11.135   7.621  12.464
17618SOL     OW54750   7.390   0.550  12.896
17618SOL    HW154751   7.340   0.504  12.828
17618SOL    HW254752   7.339   0.629  12.912
17619SOL     OW54753  12.578   1.830  11.979
17619SOL    HW154754  12.553   1.915  12.016
17619SOL    HW254755  12.591   1.848  11.886
17620SOL     OW54756  13.372   6.213   5.393
17620SOL    HW154757  13.432   6.198   5.466
17620SOL    HW254758  13.358   6.308   5.392
17621SOL     OW54759  12.801   3.292  13.570
17621SOL    HW154760  12.815   3.260  13.659
17621SOL    HW254761  12.875   3.258  13.520
17622SOL     OW54762   0.586   2.297  13.595
17622SOL    HW154763   0.586   2.355  13.519
17622SOL    HW254764   0.678   2.272  13.607
17623SOL     OW54765   8.371  12.377   1.691
17623SOL    HW154766   8.307  12.445   1.711
17623SOL    HW254767   8.401  12.345   1.776
17624SOL     OW54768  11.241   3.982   7.002
17624SOL    HW154769  11.162   4.028   6.974
17624SOL    HW254770  11.311   4.046   6.992
17625SOL     OW54771  11.268  11.758   9.157
17625SOL    HW154772  11.290  11.720   9.072
17625SOL    HW254773  11.338  11.729   9.215
17626SOL     OW54774   0.932   8.327   4.214
17626SOL    HW154775   0.960   8.289   4.297
17626SOL    HW254776   0.943   8.255   4.151
17627SOL     OW54777  11.113  14.766   4.354
17627SOL    HW154778  11.203  14.772   4.320
17627SOL    HW254779  11.079  14.685   4.316
17628SOL     OW54780   4.936   8.138   3.723
17628SOL    HW154781   4.918   8.222   3.679
17628SOL    HW254782   4.983   8.162   3.802
17629SOL     OW54783   1.304   6.041   6.479
17629SOL    HW154784   1.263   5.966   6.521
17629SOL    HW254785   1.247   6.060   6.404
17630SOL     OW54786   5.051  13.024   8.002
17630SOL    HW154787   4.975  13.081   8.013
17630SOL    HW254788   5.039  12.983   7.916
17631SOL     OW54789   6.905   8.320   8.295
17631SOL    HW154790   6.843   8.296   8.364
17631SOL    HW254791   6.971   8.251   8.297
17632SOL     OW54792   9.841   6.970   4.652
17632SOL    HW154793   9.850   6.998   4.561
17632SOL    HW254794   9.917   6.914   4.667
17633SOL     OW54795  14.358  11.713  14.525
17633SOL    HW154796  14.387  11.631  14.486
17633SOL    HW254797  14.397  11.781  14.470
17634SOL     OW54798   1.328  10.264   7.136
17634SOL    HW154799   1.243  10.220   7.133
17634SOL    HW254800   1.379  10.222   7.067
17635SOL     OW54801   1.927  11.803  11.451
17635SOL    HW154802   1.875  11.731  11.414
17635SOL    HW254803   1.864  11.874  11.462
17636SOL     OW54804  10.312   6.781  12.508
17636SOL    HW154805  10.284   6.826  12.588
17636SOL    HW254806  10.231   6.754  12.466
17637SOL     OW54807  13.298   4.118  10.324
17637SOL    HW154808  13.377   4.097  10.273
17637SOL    HW254809  13.244   4.169  10.263
17638SOL     OW54810   7.863   5.238  13.441
17638SOL    HW154811   7.892   5.242  13.349
17638SOL    HW254812   7.768   5.250  13.436
17639SOL     OW54813  12.017   6.320   8.949
17639SOL    HW154814  12.071   6.249   8.982
17639SOL    HW254815  11.942   6.277   8.909
17640SOL     OW54816   3.151   2.270  10.213
17640SOL    HW154817   3.087   2.219  10.165
17640SOL    HW254818   3.226   2.278  10.153
17641SOL     OW54819   0.384   7.315   9.797
17641SOL    HW154820   0.334   7.236   9.776
17641SOL    HW254821   0.335   7.356   9.869
17642SOL     OW54822   6.225  10.254   3.632
17642SOL    HW154823   6.195  10.339   3.665
17642SOL    HW254824   6.177  10.189   3.683
17643SOL     OW54825   9.130   6.488   8.867
17643SOL    HW154826   9.180   6.409   8.887
17643SOL    HW254827   9.040   6.467   8.893
17644SOL     OW54828   8.550  13.395   8.739
17644SOL    HW154829   8.476  13.394   8.800
17644SOL    HW254830   8.515  13.354   8.659
17645SOL     OW54831   8.334   7.095   1.148
17645SOL    HW154832   8.358   7.186   1.164
17645SOL    HW254833   8.275   7.072   1.219
17646SOL     OW54834   1.120   6.853  13.724
17646SOL    HW154835   1.045   6.795  13.734
17646SOL    HW254836   1.196   6.794  13.731
17647SOL     OW54837   2.340   3.223  11.202
17647SOL    HW154838   2.341   3.289  11.133
17647SOL    HW254839   2.248   3.216  11.227
17648SOL     OW54840   6.274   4.435  13.185
17648SOL    HW154841   6.203   4.446  13.249
17648SOL    HW254842   6.353   4.425  13.239
17649SOL     OW54843   9.345   0.434  14.790
17649SOL    HW154844   9.381   0.346  14.779
17649SOL    HW254845   9.397   0.472  14.860
17650SOL     OW54846   1.400   5.566   7.522
17650SOL    HW154847   1.473   5.619   7.490
17650SOL    HW254848   1.369   5.519   7.445
17651SOL     OW54849  10.626  14.036   2.077
17651SOL    HW154850  10.628  13.948   2.040
17651SOL    HW254851  10.676  14.089   2.015
17652SOL     OW54852   7.600   6.660   1.053
17652SOL    HW154853   7.630   6.584   1.004
17652SOL    HW254854   7.676   6.690   1.102
17653SOL     OW54855   6.357  12.812   1.734
17653SOL    HW154856   6.382  12.728   1.695
17653SOL    HW254857   6.356  12.873   1.660
17654SOL     OW54858   7.756   9.840   3.525
17654SOL    HW154859   7.708   9.763   3.554
17654SOL    HW254860   7.784   9.884   3.605
17655SOL     OW54861   6.642   3.941   6.074
17655SOL    HW154862   6.668   3.889   5.999
17655SOL    HW254863   6.662   4.031   6.049
17656SOL     OW54864   0.073   7.374  13.170
17656SOL    HW154865  14.865   7.370  13.123
17656SOL    HW254866   0.125   7.301  13.135
17657SOL     OW54867   3.175   2.558   8.551
17657SOL    HW154868   3.137   2.524   8.633
17657SOL    HW254869   3.178   2.652   8.564
17658SOL     OW54870   5.701   5.450   6.447
17658SOL    HW154871   5.661   5.405   6.522
17658SOL    HW254872   5.789   5.412   6.441
17659SOL     OW54873  14.436  11.295   1.606
17659SOL    HW154874  14.498  11.305   1.678
17659SOL    HW254875  14.365  11.242   1.643
17660SOL     OW54876   5.453   7.232   7.416
17660SOL    HW154877   5.393   7.224   7.491
17660SOL    HW254878   5.402   7.275   7.348
17661SOL     OW54879  10.127  10.881   5.358
17661SOL    HW154880  10.164  10.796   5.334
17661SOL    HW254881  10.035  10.874   5.335
17662SOL     OW54882   4.515  13.735   9.020
17662SOL    HW154883   4.522  13.714   8.927
17662SOL    HW254884   4.483  13.655   9.060
17663SOL     OW54885   9.447  10.516   7.746
17663SOL    HW154886   9.526  10.497   7.797
17663SOL    HW254887   9.476  10.578   7.680
17664SOL     OW54888   6.130  11.571  14.576
17664SOL    HW154889   6.191  11.543  14.508
17664SOL    HW254890   6.184  11.621  14.637
17665SOL     OW54891   3.071   9.379   1.719
17665SOL    HW154892   3.022   9.322   1.660
17665SOL    HW254893   3.111   9.319   1.782
17666SOL     OW54894   3.397  14.384  14.796
17666SOL    HW154895   3.365  14.441  14.726
17666SOL    HW254896   3.441  14.443  14.857
17667SOL     OW54897  12.004   8.160   1.377
17667SOL    HW154898  11.911   8.174   1.359
17667SOL    HW254899  12.010   8.163   1.473
17668SOL     OW54900   9.798  10.219   3.700
17668SOL    HW154901   9.757  10.248   3.618
17668SOL    HW254902   9.806  10.299   3.753
17669SOL     OW54903  11.477   3.194   2.317
17669SOL    HW154904  11.414   3.124   2.334
17669SOL    HW254905  11.488   3.194   2.222
17670SOL     OW54906   3.724   3.589   3.841
17670SOL    HW154907   3.819   3.579   3.847
17670SOL    HW254908   3.690   3.559   3.925
17671SOL     OW54909  13.279   9.981   5.414
17671SOL    HW154910  13.375   9.978   5.417
17671SOL    HW254911  13.253   9.895   5.381
17672SOL     OW54912   2.252  13.932   3.008
17672SOL    HW154913   2.190  13.926   2.936
17672SOL    HW254914   2.224  13.864   3.070
17673SOL     OW54915   6.427  10.456   9.507
17673SOL    HW154916   6.496  10.495   9.560
17673SOL    HW254917   6.474  10.414   9.435
17674SOL     OW54918   2.151   3.244  13.559
17674SOL    HW154919   2.156   3.279  13.648
17674SOL    HW254920   2.238   3.208  13.542
17675SOL     OW54921   2.653   2.487  13.897
17675SOL    HW154922   2.706   2.440  13.832
17675SOL    HW254923   2.711   2.500  13.972
17676SOL     OW54924   9.157   5.643   8.792
17676SOL    HW154925   9.096   5.601   8.732
17676SOL    HW254926   9.164   5.733   8.759
17677SOL     OW54927  11.304   1.611   6.970
17677SOL    HW154928  11.289   1.517   6.972
17677SOL    HW254929  11.299   1.635   6.877
17678SOL     OW54930  11.240  13.651  13.588
17678SOL    HW154931  11.214  13.667  13.679
17678SOL    HW254932  11.335  13.663  13.588
17679SOL     OW54933   2.663  10.219   5.185
17679SOL    HW154934   2.594  10.160   5.155
17679SOL    HW254935   2.622  10.269   5.256
17680SOL     OW54936   7.688   5.986  13.922
17680SOL    HW154937   7.666   6.013  13.833
17680SOL    HW254938   7.622   5.919  13.943
17681SOL     OW54939  10.609   0.683  11.541
17681SOL    HW154940  10.650   0.626  11.477
17681SOL    HW254941  10.611   0.770  11.501
17682SOL     OW54942  11.986  12.750  11.949
17682SOL    HW154943  11.933  12.815  11.902
17682SOL    HW254944  11.923  12.683  11.975
17683SOL     OW54945  13.201  12.883  10.251
17683SOL    HW154946  13.190  12.879  10.346
17683SOL    HW254947  13.171  12.971  10.228
17684SOL     OW54948  11.509  10.651  14.129
17684SOL    HW154949  11.533  10.560  14.115
17684SOL    HW254950  11.585  10.689  14.173
17685SOL     OW54951   6.531   2.310  11.261
17685SOL    HW154952   6.493   2.317  11.174
17685SOL    HW254953   6.620   2.277  11.246
17686SOL     OW54954   5.562   5.568  13.242
17686SOL    HW154955   5.553   5.527  13.156
17686SOL    HW254956   5.637   5.524  13.283
17687SOL     OW54957   5.721   5.312   2.969
17687SOL    HW154958   5.692   5.392   3.013
17687SOL    HW254959   5.724   5.247   3.038
17688SOL     OW54960   8.659   1.601  11.146
17688SOL    HW154961   8.704   1.612  11.230
17688SOL    HW254962   8.719   1.638  11.081
17689SOL     OW54963   6.656   3.516   5.289
17689SOL    HW154964   6.631   3.604   5.316
17689SOL    HW254965   6.689   3.526   5.200
17690SOL     OW54966  12.459  14.143   1.125
17690SOL    HW154967  12.385  14.188   1.166
17690SOL    HW254968  12.536  14.190   1.157
17691SOL     OW54969  13.349   2.061   0.396
17691SOL    HW154970  13.431   2.014   0.380
17691SOL    HW254971  13.346   2.128   0.328
17692SOL     OW54972   3.088  12.785   5.636
17692SOL    HW154973   3.015  12.723   5.641
17692SOL    HW254974   3.056  12.854   5.578
17693SOL     OW54975   0.673   3.440   5.509
17693SOL    HW154976   0.745   3.495   5.476
17693SOL    HW254977   0.600   3.501   5.518
17694SOL     OW54978   3.881  12.919   1.970
17694SOL    HW154979   3.834  13.002   1.970
17694SOL    HW254980   3.826  12.859   1.920
17695SOL     OW54981  12.122  12.347  14.737
17695SOL    HW154982  12.068  12.270  14.724
17695SOL    HW254983  12.210  12.313  14.754
17696SOL     OW54984   4.301   3.735   6.390
17696SOL    HW154985   4.346   3.692   6.318
17696SOL    HW254986   4.307   3.829   6.370
17697SOL     OW54987   7.548   1.760  11.360
17697SOL    HW154988   7.474   1.700  11.361
17697SOL    HW254989   7.509   1.847  11.352
17698SOL     OW54990   7.606   0.322   1.887
17698SOL    HW154991   7.610   0.329   1.792
17698SOL    HW254992   7.696   0.302   1.914
17699SOL     OW54993   0.647   4.683  11.588
17699SOL    HW154994   0.700   4.719  11.658
17699SOL    HW254995   0.671   4.590  11.584
17700SOL     OW54996   7.705   3.518   2.343
17700SOL    HW154997   7.782   3.574   2.351
17700SOL    HW254998   7.739   3.436   2.306
17701SOL     OW54999   0.752   4.764  12.661
17701SOL    HW155000   0.728   4.838  12.604
17701SOL    HW255001   0.751   4.688  12.603
17702SOL     OW55002   9.362   9.875   9.339
17702SOL    HW155003   9.381   9.959   9.296
17702SOL    HW255004   9.267   9.871   9.344
17703SOL     OW55005   1.702   9.297   3.771
17703SOL    HW155006   1.745   9.213   3.752
17703SOL    HW255007   1.747   9.329   3.849
17704SOL     OW55008   6.331  10.775   8.778
17704SOL    HW155009   6.257  10.714   8.780
17704SOL    HW255010   6.291  10.860   8.762
17705SOL     OW55011   6.224   8.129   0.001
17705SOL    HW155012   6.270   8.060   0.048
17705SOL    HW255013   6.293   8.188  14.846
17706SOL     OW55014   7.032   6.391   9.861
17706SOL    HW155015   6.953   6.373   9.809
17706SOL    HW255016   7.097   6.329   9.829
17707SOL     OW55017   4.873  10.404  14.100
17707SOL    HW155018   4.812  10.335  14.125
17707SOL    HW255019   4.929  10.363  14.033
17708SOL     OW55020   1.223   8.392  11.977
17708SOL    HW155021   1.313   8.377  12.007
17708SOL    HW255022   1.197   8.309  11.936
17709SOL     OW55023  10.898  13.631  11.386
17709SOL    HW155024  10.812  13.597  11.363
17709SOL    HW255025  10.880  13.704  11.445
17710SOL     OW55026   1.770  13.964   9.778
17710SOL    HW155027   1.833  14.006   9.720
17710SOL    HW255028   1.688  13.965   9.729
17711SOL     OW55029   0.780   1.579  10.419
17711SOL    HW155030   0.793   1.578  10.514
17711SOL    HW255031   0.697   1.534  10.405
17712SOL     OW55032   8.183   5.522   5.160
17712SOL    HW155033   8.270   5.543   5.126
17712SOL    HW255034   8.198   5.496   5.251
17713SOL     OW55035   8.517   0.655   1.287
17713SOL    HW155036   8.538   0.628   1.198
17713SOL    HW255037   8.592   0.707   1.315
17714SOL     OW55038   1.171   5.274   8.253
17714SOL    HW155039   1.203   5.225   8.178
17714SOL    HW255040   1.231   5.348   8.261
17715SOL     OW55041   1.701  12.070   4.720
17715SOL    HW155042   1.738  12.114   4.796
17715SOL    HW255043   1.712  12.133   4.649
17716SOL     OW55044  11.274  14.368   7.079
17716SOL    HW155045  11.338  14.375   7.009
17716SOL    HW255046  11.293  14.284   7.121
17717SOL     OW55047   2.566   2.288   8.321
17717SOL    HW155048   2.659   2.292   8.301
17717SOL    HW255049   2.523   2.326   8.245
17718SOL     OW55050   8.997   9.236   8.875
17718SOL    HW155051   8.965   9.148   8.893
17718SOL    HW255052   8.918   9.286   8.855
17719SOL     OW55053  14.807   9.432   9.577
17719SOL    HW155054  14.778   9.402   9.664
17719SOL    HW255055   0.024   9.454   9.589
17720SOL     OW55056  13.678   8.513  10.422
17720SOL    HW155057  13.680   8.423  10.389
17720SOL    HW255058  13.593   8.547  10.395
17721SOL     OW55059  10.433   6.412   0.719
17721SOL    HW155060  10.353   6.464   0.720
17721SOL    HW255061  10.458   6.405   0.811
17722SOL     OW55062  13.126  11.595   0.790
17722SOL    HW155063  13.093  11.640   0.712
17722SOL    HW255064  13.183  11.660   0.832
17723SOL     OW55065   2.462   2.483  10.562
17723SOL    HW155066   2.433   2.567  10.597
17723SOL    HW255067   2.547   2.502  10.522
17724SOL     OW55068   0.818   7.620   9.555
17724SOL    HW155069   0.729   7.589   9.574
17724SOL    HW255070   0.875   7.562   9.605
17725SOL     OW55071   7.245   9.664  10.470
17725SOL    HW155072   7.156   9.630  10.469
17725SOL    HW255073   7.290   9.617  10.400
17726SOL     OW55074  14.026   1.875   3.047
17726SOL    HW155075  14.085   1.950   3.037
17726SOL    HW255076  14.071   1.804   3.000
17727SOL     OW55077   1.232   9.174   0.860
17727SOL    HW155078   1.326   9.188   0.851
17727SOL    HW255079   1.203   9.241   0.921
17728SOL     OW55080   3.104   0.814  14.784
17728SOL    HW155081   3.048   0.737  14.787
17728SOL    HW255082   3.061   0.878  14.841
17729SOL     OW55083   1.690  14.539   7.828
17729SOL    HW155084   1.599  14.522   7.804
17729SOL    HW255085   1.691  14.630   7.858
17730SOL     OW55086  11.776  13.121   0.168
17730SOL    HW155087  11.867  13.105   0.192
17730SOL    HW255088  11.781  13.174   0.089
17731SOL     OW55089  10.302  14.845  13.990
17731SOL    HW155090  10.278  14.811  14.076
17731SOL    HW255091  10.398  14.853  13.994
17732SOL     OW55092   3.778  11.335   0.292
17732SOL    HW155093   3.778  11.300   0.381
17732SOL    HW255094   3.817  11.265   0.239
17733SOL     OW55095  10.067   8.674  12.514
17733SOL    HW155096   9.977   8.667  12.484
17733SOL    HW255097  10.079   8.600  12.574
17734SOL     OW55098   9.430   1.658   7.348
17734SOL    HW155099   9.447   1.728   7.412
17734SOL    HW255100   9.408   1.582   7.402
17735SOL     OW55101   9.457  12.848   5.721
17735SOL    HW155102   9.511  12.881   5.793
17735SOL    HW255103   9.405  12.778   5.761
17736SOL     OW55104  10.333   1.472  10.827
17736SOL    HW155105  10.422   1.486  10.796
17736SOL    HW255106  10.316   1.379  10.814
17737SOL     OW55107  11.049   3.749  13.518
17737SOL    HW155108  11.099   3.668  13.505
17737SOL    HW255109  11.025   3.777  13.430
17738SOL     OW55110   2.581   9.269  12.135
17738SOL    HW155111   2.631   9.187  12.130
17738SOL    HW255112   2.592   9.298  12.226
17739SOL     OW55113  10.717   0.365  14.590
17739SOL    HW155114  10.716   0.461  14.595
17739SOL    HW255115  10.801   0.345  14.549
17740SOL     OW55116  12.558  14.522   6.763
17740SOL    HW155117  12.531  14.568   6.843
17740SOL    HW255118  12.622  14.457   6.793
17741SOL     OW55119  14.408   8.400  14.023
17741SOL    HW155120  14.343   8.341  14.060
17741SOL    HW255121  14.374   8.488  14.040
17742SOL     OW55122   8.480   3.046   4.414
17742SOL    HW155123   8.553   3.093   4.373
17742SOL    HW255124   8.403   3.076   4.367
17743SOL     OW55125   4.448   9.329  12.149
17743SOL    HW155126   4.433   9.234  12.149
17743SOL    HW255127   4.527   9.340  12.202
17744SOL     OW55128   6.792   9.679   9.141
17744SOL    HW155129   6.859   9.611   9.135
17744SOL    HW255130   6.825   9.739   9.207
17745SOL     OW55131  11.795  12.548   3.996
17745SOL    HW155132  11.791  12.605   4.073
17745SOL    HW255133  11.829  12.605   3.926
17746SOL     OW55134  12.660   6.963   9.943
17746SOL    HW155135  12.680   6.986   9.853
17746SOL    HW255136  12.703   7.031   9.995
17747SOL     OW55137   6.983   0.765   5.140
17747SOL    HW155138   6.929   0.768   5.219
17747SOL    HW255139   7.071   0.744   5.171
17748SOL     OW55140   8.814   7.875  10.984
17748SOL    HW155141   8.843   7.964  10.964
17748SOL    HW255142   8.882   7.818  10.949
17749SOL     OW55143   2.466   9.845  11.504
17749SOL    HW155144   2.438   9.887  11.585
17749SOL    HW255145   2.411   9.884  11.436
17750SOL     OW55146  12.539   5.190  12.523
17750SOL    HW155147  12.479   5.239  12.579
17750SOL    HW255148  12.515   5.214  12.434
17751SOL     OW55149   3.517  11.961  14.860
17751SOL    HW155150   3.509  11.924   0.073
17751SOL    HW255151   3.524  12.056   0.000
17752SOL     OW55152   0.649   1.774   8.703
17752SOL    HW155153   0.658   1.680   8.692
17752SOL    HW255154   0.568   1.796   8.657
17753SOL     OW55155   7.925   3.760   1.919
17753SOL    HW155156   7.891   3.755   2.008
17753SOL    HW255157   7.901   3.848   1.889
17754SOL     OW55158   1.368   2.030   2.779
17754SOL    HW155159   1.364   1.957   2.841
17754SOL    HW255160   1.345   2.107   2.831
17755SOL     OW55161   1.716   5.925  12.432
17755SOL    HW155162   1.708   5.838  12.471
17755SOL    HW255163   1.788   5.916  12.369
17756SOL     OW55164  12.008   8.321   6.831
17756SOL    HW155165  11.989   8.306   6.739
17756SOL    HW255166  12.004   8.416   6.842
17757SOL     OW55167   5.638  13.272   8.500
17757SOL    HW155168   5.564  13.220   8.532
17757SOL    HW255169   5.686  13.296   8.579
17758SOL     OW55170   7.952   0.462  13.539
17758SOL    HW155171   7.925   0.550  13.511
17758SOL    HW255172   8.044   0.471  13.562
17759SOL     OW55173   8.945   9.660   7.079
17759SOL    HW155174   9.005   9.682   7.150
17759SOL    HW255175   8.869   9.717   7.093
17760SOL     OW55176   3.181   5.873   2.646
17760SOL    HW155177   3.173   5.964   2.676
17760SOL    HW255178   3.168   5.820   2.725
17761SOL     OW55179  12.382  13.733   1.329
17761SOL    HW155180  12.421  13.797   1.270
17761SOL    HW255181  12.451  13.668   1.344
17762SOL     OW55182   1.778   3.824  14.364
17762SOL    HW155183   1.687   3.845  14.383
17762SOL    HW255184   1.798   3.876  14.286
17763SOL     OW55185   6.071  10.020  12.891
17763SOL    HW155186   6.084  10.098  12.945
17763SOL    HW255187   6.093   9.947  12.949
17764SOL     OW55188   3.365   8.175  14.673
17764SOL    HW155189   3.453   8.213  14.672
17764SOL    HW255190   3.311   8.239  14.719
17765SOL     OW55191   9.094  13.903   0.038
17765SOL    HW155192   9.097  13.881  14.820
17765SOL    HW255193   9.103  13.998   0.041
17766SOL     OW55194  12.746  10.804   6.482
17766SOL    HW155195  12.784  10.884   6.520
17766SOL    HW255196  12.822  10.751   6.457
17767SOL     OW55197   5.209  11.040   5.206
17767SOL    HW155198   5.284  11.027   5.264
17767SOL    HW255199   5.201  10.957   5.158
17768SOL     OW55200   7.986   5.178   1.035
17768SOL    HW155201   7.899   5.149   1.008
17768SOL    HW255202   8.025   5.214   0.955
17769SOL     OW55203  13.042  13.678   7.982
17769SOL    HW155204  13.057  13.771   7.971
17769SOL    HW255205  13.068  13.659   8.072
17770SOL     OW55206   5.399   6.124  14.636
17770SOL    HW155207   5.350   6.047  14.609
17770SOL    HW255208   5.481   6.119  14.587
17771SOL     OW55209  13.860   7.904  14.305
17771SOL    HW155210  13.916   7.978  14.329
17771SOL    HW255211  13.922   7.838  14.271
17772SOL     OW55212   6.095  11.106   7.156
17772SOL    HW155213   6.036  11.031   7.148
17772SOL    HW255214   6.102  11.122   7.250
17773SOL     OW55215   6.308   6.570   8.393
17773SOL    HW155216   6.384   6.511   8.401
17773SOL    HW255217   6.273   6.576   8.482
17774SOL     OW55218   6.847   0.024   2.133
17774SOL    HW155219   6.911   0.090   2.158
17774SOL    HW255220   6.887  14.853   2.059
17775SOL     OW55221   0.142   7.280  14.797
17775SOL    HW155222   0.092   7.217  14.745
17775SOL    HW255223   0.098   7.364  14.782
17776SOL     OW55224  14.838  13.323  13.370
17776SOL    HW155225  14.861  13.322  13.463
17776SOL    HW255226   0.025  13.263  13.329
17777SOL     OW55227   2.487   3.170  13.315
17777SOL    HW155228   2.436   3.219  13.250
17777SOL    HW255229   2.577   3.173  13.282
17778SOL     OW55230   2.301   3.825   3.422
17778SOL    HW155231   2.280   3.789   3.335
17778SOL    HW255232   2.396   3.835   3.421
17779SOL     OW55233   1.902   6.727   8.381
17779SOL    HW155234   1.938   6.804   8.424
17779SOL    HW255235   1.955   6.717   8.301
17780SOL     OW55236  10.303  14.072  11.644
17780SOL    HW155237  10.371  14.016  11.681
17780SOL    HW255238  10.286  14.035  11.558
17781SOL     OW55239   3.755   2.245   1.886
17781SOL    HW155240   3.666   2.216   1.868
17781SOL    HW255241   3.790   2.179   1.946
17782SOL     OW55242  14.809   6.667  12.576
17782SOL    HW155243  14.867   6.599  12.542
17782SOL    HW255244  14.732   6.619  12.607
17783SOL     OW55245   4.574   6.385  12.377
17783SOL    HW155246   4.561   6.327  12.302
17783SOL    HW255247   4.489   6.425  12.392
17784SOL     OW55248   4.903   6.794   3.002
17784SOL    HW155249   4.856   6.712   2.988
17784SOL    HW255250   4.837   6.862   2.988
17785SOL     OW55251  14.648   2.642   3.693
17785SOL    HW155252  14.572   2.644   3.635
17785SOL    HW255253  14.703   2.714   3.662
17786SOL     OW55254   3.681   7.397   8.545
17786SOL    HW155255   3.680   7.403   8.640
17786SOL    HW255256   3.664   7.305   8.526
17787SOL     OW55257   2.923  13.526   1.656
17787SOL    HW155258   2.914  13.529   1.561
17787SOL    HW255259   2.979  13.451   1.673
17788SOL     OW55260   3.069  11.479  14.069
17788SOL    HW155261   3.016  11.506  13.994
17788SOL    HW255262   3.018  11.506  14.145
17789SOL     OW55263  11.017   5.462   0.049
17789SOL    HW155264  11.096   5.451  14.872
17789SOL    HW255265  11.044   5.439   0.138
17790SOL     OW55266   8.857  13.271   0.290
17790SOL    HW155267   8.919  13.323   0.340
17790SOL    HW255268   8.830  13.329   0.219
17791SOL     OW55269   3.131   5.328  12.298
17791SOL    HW155270   3.052   5.275  12.281
17791SOL    HW255271   3.169   5.343  12.212
17792SOL     OW55272   4.017   2.753   3.498
17792SOL    HW155273   4.074   2.817   3.541
17792SOL    HW255274   3.928   2.781   3.519
17793SOL     OW55275   6.179  10.022   9.731
17793SOL    HW155276   6.214  10.021   9.642
17793SOL    HW255277   6.230  10.089   9.776
17794SOL     OW55278   6.073   4.959   4.059
17794SOL    HW155279   6.129   4.958   3.982
17794SOL    HW255280   6.133   4.969   4.133
17795SOL     OW55281  10.247  14.345  11.694
17795SOL    HW155282  10.263  14.262  11.650
17795SOL    HW255283  10.153  14.346  11.710
17796SOL     OW55284   6.080   3.081   0.489
17796SOL    HW155285   6.049   3.142   0.555
17796SOL    HW255286   6.114   3.136   0.419
17797SOL     OW55287  13.475  12.036  13.481
17797SOL    HW155288  13.547  12.073  13.431
17797SOL    HW255289  13.408  12.105  13.482
17798SOL     OW55290   3.671  12.104   5.837
17798SOL    HW155291   3.683  12.177   5.898
17798SOL    HW255292   3.759  12.071   5.822
17799SOL     OW55293   8.778  10.245  10.759
17799SOL    HW155294   8.795  10.193  10.837
17799SOL    HW255295   8.838  10.211  10.693
17800SOL     OW55296  13.983   6.388   0.529
17800SOL    HW155297  13.940   6.436   0.599
17800SOL    HW255298  14.069   6.365   0.564
17801SOL     OW55299   5.928  10.202   0.814
17801SOL    HW155300   5.882  10.285   0.801
17801SOL    HW255301   5.893  10.144   0.747
17802SOL     OW55302   6.262   8.070  11.417
17802SOL    HW155303   6.314   8.039  11.491
17802SOL    HW255304   6.171   8.057  11.444
17803SOL     OW55305  14.065  14.387  10.934
17803SOL    HW155306  14.022  14.334  10.867
17803SOL    HW255307  13.993  14.432  10.979
17804SOL     OW55308   9.210   3.043   0.111
17804SOL    HW155309   9.300   3.024   0.086
17804SOL    HW255310   9.157   2.980   0.062
17805SOL     OW55311  13.145  13.697   6.798
17805SOL    HW155312  13.165  13.662   6.711
17805SOL    HW255313  13.094  13.776   6.781
17806SOL     OW55314   0.450  14.631   1.072
17806SOL    HW155315   0.383  14.615   1.005
17806SOL    HW255316   0.441  14.558   1.132
17807SOL     OW55317   1.754   4.179  13.178
17807SOL    HW155318   1.783   4.130  13.255
17807SOL    HW255319   1.832   4.185  13.123
17808SOL     OW55320   5.165  11.280  11.794
17808SOL    HW155321   5.184  11.195  11.754
17808SOL    HW255322   5.243  11.332  11.778
17809SOL     OW55323  11.535  11.864  10.557
17809SOL    HW155324  11.548  11.789  10.615
17809SOL    HW255325  11.462  11.839  10.501
17810SOL     OW55326   5.696   2.965   0.026
17810SOL    HW155327   5.790   2.944   0.027
17810SOL    HW255328   5.688   3.031  14.832
17811SOL     OW55329  12.546   0.116   5.750
17811SOL    HW155330  12.605   0.164   5.692
17811SOL    HW255331  12.546   0.166   5.831
17812SOL     OW55332  10.405   6.212   8.869
17812SOL    HW155333  10.382   6.232   8.779
17812SOL    HW255334  10.341   6.145   8.896
17813SOL     OW55335   0.593  14.092   6.714
17813SOL    HW155336   0.666  14.029   6.712
17813SOL    HW255337   0.533  14.061   6.646
17814SOL     OW55338   7.762   5.145  12.697
17814SOL    HW155339   7.833   5.082  12.703
17814SOL    HW255340   7.692   5.109  12.751
17815SOL     OW55341   5.821   3.048   8.792
17815SOL    HW155342   5.889   3.004   8.740
17815SOL    HW255343   5.866   3.124   8.829
17816SOL     OW55344  11.782  12.636   5.518
17816SOL    HW155345  11.832  12.619   5.438
17816SOL    HW255346  11.730  12.557   5.532
17817SOL     OW55347  14.093   7.424  13.153
17817SOL    HW155348  13.999   7.425  13.172
17817SOL    HW255349  14.108   7.502  13.099
17818SOL     OW55350   2.425   8.458   2.997
17818SOL    HW155351   2.377   8.380   3.026
17818SOL    HW255352   2.442   8.506   3.078
17819SOL     OW55353  10.732   9.647   9.623
17819SOL    HW155354  10.712   9.589   9.549
17819SOL    HW255355  10.791   9.596   9.678
17820SOL     OW55356  12.214   7.587   0.602
17820SOL    HW155357  12.275   7.540   0.659
17820SOL    HW255358  12.252   7.674   0.591
17821SOL     OW55359   2.455   8.673   9.783
17821SOL    HW155360   2.434   8.593   9.831
17821SOL    HW255361   2.547   8.691   9.806
17822SOL     OW55362  12.055  14.507  11.859
17822SOL    HW155363  12.003  14.435  11.894
17822SOL    HW255364  12.086  14.555  11.936
17823SOL     OW55365   9.376   5.731  13.083
17823SOL    HW155366   9.418   5.729  12.997
17823SOL    HW255367   9.324   5.651  13.086
17824SOL     OW55368  12.436   8.439   0.965
17824SOL    HW155369  12.407   8.462   0.877
17824SOL    HW255370  12.389   8.499   1.022
17825SOL     OW55371   1.064   5.229   5.245
17825SOL    HW155372   1.108   5.297   5.296
17825SOL    HW255373   1.125   5.207   5.176
17826SOL     OW55374   5.516   6.520   6.925
17826SOL    HW155375   5.602   6.525   6.883
17826SOL    HW255376   5.481   6.435   6.897
17827SOL     OW55377   3.271   3.726   3.642
17827SOL    HW155378   3.227   3.772   3.712
17827SOL    HW255379   3.299   3.643   3.681
17828SOL     OW55380   8.811  12.867   2.584
17828SOL    HW155381   8.776  12.937   2.638
17828SOL    HW255382   8.870  12.912   2.523
17829SOL     OW55383  14.853  10.553  14.623
17829SOL    HW155384   0.047  10.502  14.667
17829SOL    HW255385  14.828  10.500  14.548
17830SOL     OW55386   5.022  10.216  14.840
17830SOL    HW155387   4.957  10.151  14.868
17830SOL    HW255388   4.971  10.292  14.815
17831SOL     OW55389   8.864   7.224   0.139
17831SOL    HW155390   8.886   7.291   0.074
17831SOL    HW255391   8.798   7.170   0.097
17832SOL     OW55392   7.612   7.407  11.181
17832SOL    HW155393   7.659   7.477  11.227
17832SOL    HW255394   7.540   7.451  11.137
17833SOL     OW55395  14.314  13.238   5.759
17833SOL    HW155396  14.313  13.311   5.697
17833SOL    HW255397  14.316  13.278   5.845
17834SOL     OW55398   6.473   5.791   9.874
17834SOL    HW155399   6.515   5.876   9.885
17834SOL    HW255400   6.485   5.747   9.958
17835SOL     OW55401   5.287  14.487  11.646
17835SOL    HW155402   5.274  14.443  11.730
17835SOL    HW255403   5.240  14.570  11.654
17836SOL     OW55404  13.240   2.700  12.626
17836SOL    HW155405  13.190   2.679  12.705
17836SOL    HW255406  13.327   2.663  12.642
17837SOL     OW55407  11.169   9.064  13.550
17837SOL    HW155408  11.218   9.069  13.632
17837SOL    HW255409  11.096   9.125  13.561
17838SOL     OW55410   7.221   1.452   6.408
17838SOL    HW155411   7.147   1.499   6.369
17838SOL    HW255412   7.207   1.460   6.502
17839SOL     OW55413   2.584  14.065   3.124
17839SOL    HW155414   2.676  14.086   3.109
17839SOL    HW255415   2.563  14.106   3.208
17840SOL     OW55416   1.508  10.395   5.713
17840SOL    HW155417   1.504  10.488   5.691
17840SOL    HW255418   1.599  10.370   5.696
17841SOL     OW55419   3.366   1.599   2.526
17841SOL    HW155420   3.284   1.647   2.536
17841SOL    HW255421   3.433   1.661   2.553
17842SOL     OW55422   9.867   7.395  10.258
17842SOL    HW155423   9.952   7.375  10.299
17842SOL    HW255424   9.889   7.428  10.171
17843SOL     OW55425   0.019   0.063  12.986
17843SOL    HW155426   0.053  14.873  13.047
17843SOL    HW255427  14.799   0.061  12.999
17844SOL     OW55428  11.402   2.375  10.494
17844SOL    HW155429  11.355   2.298  10.525
17844SOL    HW255430  11.428   2.421  10.574
17845SOL     OW55431   6.602  13.785   6.930
17845SOL    HW155432   6.683  13.830   6.903
17845SOL    HW255433   6.543  13.798   6.856
17846SOL     OW55434   3.275  14.570  14.548
17846SOL    HW155435   3.226  14.495  14.515
17846SOL    HW255436   3.243  14.645  14.498
17847SOL     OW55437   1.417   4.560   4.400
17847SOL    HW155438   1.372   4.510   4.332
17847SOL    HW255439   1.444   4.495   4.465
17848SOL     OW55440  12.030  13.155   1.810
17848SOL    HW155441  12.086  13.231   1.799
17848SOL    HW255442  11.973  13.178   1.883
17849SOL     OW55443   0.341   5.757  11.630
17849SOL    HW155444   0.327   5.717  11.545
17849SOL    HW255445   0.281   5.832  11.631
17850SOL     OW55446   9.859   8.795   6.500
17850SOL    HW155447   9.834   8.872   6.552
17850SOL    HW255448   9.931   8.756   6.549
17851SOL     OW55449  10.282  14.100   7.087
17851SOL    HW155450  10.189  14.107   7.066
17851SOL    HW255451  10.286  14.102   7.183
17852SOL     OW55452   3.050   3.877   5.503
17852SOL    HW155453   3.119   3.919   5.452
17852SOL    HW255454   3.066   3.783   5.491
17853SOL     OW55455   5.575  12.282   8.381
17853SOL    HW155456   5.646  12.315   8.436
17853SOL    HW255457   5.518  12.235   8.442
17854SOL     OW55458   6.481   3.034  10.043
17854SOL    HW155459   6.543   3.094  10.085
17854SOL    HW255460   6.457   2.972  10.112
17855SOL     OW55461  13.361   2.376   1.059
17855SOL    HW155462  13.382   2.287   1.088
17855SOL    HW255463  13.397   2.381   0.970
17856SOL     OW55464   5.170  12.802   1.925
17856SOL    HW155465   5.091  12.760   1.960
17856SOL    HW255466   5.138  12.881   1.881
17857SOL     OW55467  10.337  10.470   7.500
17857SOL    HW155468  10.297  10.544   7.454
17857SOL    HW255469  10.385  10.422   7.432
17858SOL     OW55470   2.741   8.764  12.259
17858SOL    HW155471   2.737   8.670  12.244
17858SOL    HW255472   2.831   8.788  12.238
17859SOL     OW55473  10.336   1.006  11.538
17859SOL    HW155474  10.271   1.058  11.585
17859SOL    HW255475  10.286   0.938  11.494
17860SOL     OW55476  11.577   2.933  14.222
17860SOL    HW155477  11.631   3.003  14.186
17860SOL    HW255478  11.639   2.877  14.270
17861SOL     OW55479   0.132   0.709   8.401
17861SOL    HW155480   0.119   0.755   8.484
17861SOL    HW255481   0.151   0.778   8.337
17862SOL     OW55482   2.678  10.541   6.032
17862SOL    HW155483   2.749  10.558   6.093
17862SOL    HW255484   2.697  10.455   5.996
17863SOL     OW55485  14.591   6.343   7.794
17863SOL    HW155486  14.556   6.423   7.833
17863SOL    HW255487  14.516   6.285   7.786
17864SOL     OW55488   1.588   6.160   7.869
17864SOL    HW155489   1.509   6.190   7.914
17864SOL    HW255490   1.660   6.179   7.930
17865SOL     OW55491  13.940   4.518  12.145
17865SOL    HW155492  13.978   4.432  12.165
17865SOL    HW255493  13.859   4.498  12.099
17866SOL     OW55494   6.524  13.233   9.442
17866SOL    HW155495   6.562  13.220   9.355
17866SOL    HW255496   6.438  13.272   9.425
17867SOL     OW55497  11.569   0.777   3.102
17867SOL    HW155498  11.571   0.863   3.061
17867SOL    HW255499  11.660   0.749   3.104
17868SOL     OW55500  12.430  11.875   4.450
17868SOL    HW155501  12.513  11.905   4.486
17868SOL    HW255502  12.380  11.956   4.436
17869SOL     OW55503   7.068   9.350   1.525
17869SOL    HW155504   7.066   9.392   1.439
17869SOL    HW255505   6.980   9.366   1.561
17870SOL     OW55506   5.479  14.641  10.265
17870SOL    HW155507   5.404  14.653  10.207
17870SOL    HW255508   5.478  14.548  10.288
17871SOL     OW55509  11.168   1.573   1.037
17871SOL    HW155510  11.191   1.620   0.958
17871SOL    HW255511  11.126   1.639   1.093
17872SOL     OW55512   0.627   0.160   1.842
17872SOL    HW155513   0.601   0.240   1.797
17872SOL    HW255514   0.559   0.097   1.820
17873SOL     OW55515   6.993  13.641  11.650
17873SOL    HW155516   6.907  13.663  11.684
17873SOL    HW255517   6.985  13.652  11.555
17874SOL     OW55518  10.661  10.218   5.105
17874SOL    HW155519  10.694  10.295   5.151
17874SOL    HW255520  10.681  10.235   5.013
17875SOL     OW55521  10.027   8.925   9.281
17875SOL    HW155522   9.944   8.960   9.313
17875SOL    HW255523  10.010   8.904   9.189
17876SOL     OW55524   2.347  14.116  10.851
17876SOL    HW155525   2.332  14.130  10.944
17876SOL    HW255526   2.440  14.138  10.838
17877SOL     OW55527   4.559  10.974   7.859
17877SOL    HW155528   4.474  10.931   7.847
17877SOL    HW255529   4.585  10.999   7.770
17878SOL     OW55530   8.550   6.403   0.872
17878SOL    HW155531   8.512   6.321   0.902
17878SOL    HW255532   8.500   6.471   0.918
17879SOL     OW55533   1.473   9.078   7.305
17879SOL    HW155534   1.386   9.115   7.324
17879SOL    HW255535   1.458   8.984   7.298
17880SOL     OW55536   6.081   1.833   6.717
17880SOL    HW155537   6.144   1.816   6.787
17880SOL    HW255538   6.121   1.796   6.639
17881SOL     OW55539  11.619  14.509   1.543
17881SOL    HW155540  11.623  14.441   1.475
17881SOL    HW255541  11.530  14.503   1.577
17882SOL     OW55542   8.953   5.114  13.803
17882SOL    HW155543   9.011   5.163  13.744
17882SOL    HW255544   9.003   5.036  13.826
17883SOL     OW55545   0.036   0.223  10.380
17883SOL    HW155546   0.006   0.275  10.455
17883SOL    HW255547  14.833   0.174  10.352
17884SOL     OW55548   9.910   3.899  10.605
17884SOL    HW155549   9.956   3.875  10.525
17884SOL    HW255550   9.932   3.991  10.619
17885SOL     OW55551   0.120  10.903   3.847
17885SOL    HW155552   0.145  10.994   3.838
17885SOL    HW255553   0.131  10.866   3.759
17886SOL     OW55554   5.589   0.570   8.938
17886SOL    HW155555   5.555   0.642   8.990
17886SOL    HW255556   5.605   0.500   9.001
17887SOL     OW55557   2.976   1.568  14.017
17887SOL    HW155558   2.887   1.536  14.032
17887SOL    HW255559   3.031   1.490  14.025
17888SOL     OW55560   7.751   2.483   4.224
17888SOL    HW155561   7.759   2.491   4.319
17888SOL    HW255562   7.714   2.396   4.210
17889SOL     OW55563   9.076   8.239  12.873
17889SOL    HW155564   9.007   8.275  12.818
17889SOL    HW255565   9.052   8.147  12.884
17890SOL     OW55566   5.662   5.900   3.287
17890SOL    HW155567   5.737   5.938   3.332
17890SOL    HW255568   5.658   5.948   3.204
17891SOL     OW55569   0.463   9.895  14.312
17891SOL    HW155570   0.403   9.934  14.375
17891SOL    HW255571   0.490   9.968  14.255
17892SOL     OW55572  13.214   1.285  11.696
17892SOL    HW155573  13.243   1.370  11.729
17892SOL    HW255574  13.293   1.232  11.695
17893SOL     OW55575   8.257   6.820  11.964
17893SOL    HW155576   8.322   6.765  12.007
17893SOL    HW255577   8.274   6.908  11.998
17894SOL     OW55578   0.114   1.633   3.312
17894SOL    HW155579   0.198   1.642   3.268
17894SOL    HW255580   0.049   1.653   3.243
17895SOL     OW55581  13.925   4.341   3.287
17895SOL    HW155582  13.844   4.290   3.289
17895SOL    HW255583  13.929   4.384   3.373
17896SOL     OW55584   6.422  12.459   4.972
17896SOL    HW155585   6.490  12.417   5.025
17896SOL    HW255586   6.449  12.550   4.966
17897SOL     OW55587   7.546  12.566   5.098
17897SOL    HW155588   7.504  12.592   5.180
17897SOL    HW255589   7.640  12.574   5.116
17898SOL     OW55590   0.355  11.886   3.525
17898SOL    HW155591   0.300  11.825   3.475
17898SOL    HW255592   0.352  11.968   3.475
17899SOL     OW55593   4.559   7.733   7.411
17899SOL    HW155594   4.502   7.657   7.421
17899SOL    HW255595   4.619   7.728   7.485
17900SOL     OW55596   0.920   9.083  12.130
17900SOL    HW155597   0.977   9.006  12.139
17900SOL    HW255598   0.889   9.079  12.039
17901SOL     OW55599  12.460  12.516   3.842
17901SOL    HW155600  12.388  12.569   3.878
17901SOL    HW255601  12.539  12.566   3.863
17902SOL     OW55602   1.013   7.846  10.026
17902SOL    HW155603   1.083   7.854   9.961
17902SOL    HW255604   0.955   7.920  10.009
17903SOL     OW55605   3.825   1.175   5.177
17903SOL    HW155606   3.900   1.143   5.126
17903SOL    HW255607   3.864   1.212   5.256
17904SOL     OW55608   4.063   0.313   3.535
17904SOL    HW155609   4.101   0.268   3.460
17904SOL    HW255610   4.063   0.247   3.605
17905SOL     OW55611  13.332   9.092   3.335
17905SOL    HW155612  13.402   9.118   3.275
17905SOL    HW255613  13.337   8.996   3.335
17906SOL     OW55614   0.487   5.448   8.349
17906SOL    HW155615   0.448   5.383   8.291
17906SOL    HW255616   0.506   5.523   8.292
17907SOL     OW55617  11.366   6.675   7.838
17907SOL    HW155618  11.283   6.716   7.812
17907SOL    HW255619  11.390   6.720   7.919
17908SOL     OW55620   6.116  13.372  12.968
17908SOL    HW155621   6.193  13.427  12.983
17908SOL    HW255622   6.151  13.285  12.949
17909SOL     OW55623   4.867   3.377   6.377
17909SOL    HW155624   4.960   3.385   6.395
17909SOL    HW255625   4.824   3.427   6.446
17910SOL     OW55626   7.868  11.308   8.002
17910SOL    HW155627   7.804  11.287   8.070
17910SOL    HW255628   7.946  11.337   8.049
17911SOL     OW55629   0.835   0.926  10.644
17911SOL    HW155630   0.818   0.843  10.599
17911SOL    HW255631   0.922   0.916  10.682
17912SOL     OW55632   9.031   9.624   1.362
17912SOL    HW155633   8.943   9.634   1.326
17912SOL    HW255634   9.053   9.532   1.345
17913SOL     OW55635   2.733   4.364   9.737
17913SOL    HW155636   2.810   4.396   9.690
17913SOL    HW255637   2.716   4.431   9.803
17914SOL     OW55638   1.135   8.612   1.314
17914SOL    HW155639   1.136   8.656   1.399
17914SOL    HW255640   1.061   8.552   1.319
17915SOL     OW55641  13.969  14.509  10.344
17915SOL    HW155642  14.006  14.572  10.406
17915SOL    HW255643  14.030  14.435  10.346
17916SOL     OW55644   0.755   6.780  10.912
17916SOL    HW155645   0.835   6.818  10.875
17916SOL    HW255646   0.688   6.798  10.846
17917SOL     OW55647   8.925   1.007   1.500
17917SOL    HW155648   8.919   1.052   1.584
17917SOL    HW255649   8.836   1.008   1.465
17918SOL     OW55650   9.982   9.678   9.514
17918SOL    HW155651   9.978   9.616   9.586
17918SOL    HW255652  10.040   9.748   9.545
17919SOL     OW55653   7.388  11.895  11.722
17919SOL    HW155654   7.469  11.884  11.771
17919SOL    HW255655   7.380  11.990  11.710
17920SOL     OW55656  10.160   4.483  11.521
17920SOL    HW155657  10.242   4.514  11.482
17920SOL    HW255658  10.092   4.513  11.461
17921SOL     OW55659   3.583  13.182   5.663
17921SOL    HW155660   3.613  13.260   5.616
17921SOL    HW255661   3.496  13.164   5.627
17922SOL     OW55662   6.847   0.791   6.150
17922SOL    HW155663   6.817   0.881   6.145
17922SOL    HW255664   6.883   0.782   6.238
17923SOL     OW55665   4.756   6.843  12.788
17923SOL    HW155666   4.751   6.920  12.732
17923SOL    HW255667   4.765   6.770  12.727
17924SOL     OW55668   5.827  11.840   2.529
17924SOL    HW155669   5.779  11.839   2.445
17924SOL    HW255670   5.769  11.886   2.589
17925SOL     OW55671   1.075   5.724   9.401
17925SOL    HW155672   0.997   5.772   9.427
17925SOL    HW255673   1.095   5.754   9.313
17926SOL     OW55674   5.302  10.125   7.253
17926SOL    HW155675   5.254  10.206   7.238
17926SOL    HW255676   5.368  10.123   7.184
17927SOL     OW55677   0.593  13.944  11.112
17927SOL    HW155678   0.553  13.983  11.190
17927SOL    HW255679   0.584  13.849  11.126
17928SOL     OW55680   6.517   2.612  14.509
17928SOL    HW155681   6.492   2.674  14.578
17928SOL    HW255682   6.598   2.647  14.473
17929SOL     OW55683   1.928  10.123  10.948
17929SOL    HW155684   1.964  10.177  11.018
17929SOL    HW255685   1.846  10.088  10.984
17930SOL     OW55686  14.451   0.893   4.151
17930SOL    HW155687  14.408   0.878   4.235
17930SOL    HW255688  14.448   0.808   4.107
17931SOL     OW55689  14.288  10.372   8.293
17931SOL    HW155690  14.311  10.288   8.252
17931SOL    HW255691  14.208  10.353   8.342
17932SOL     OW55692   6.279  10.288  12.510
17932SOL    HW155693   6.272  10.335  12.427
17932SOL    HW255694   6.371  10.266  12.518
17933SOL     OW55695   6.574   5.806   7.205
17933SOL    HW155696   6.561   5.711   7.202
17933SOL    HW255697   6.602   5.829   7.116
17934SOL     OW55698   8.025   3.526   3.521
17934SOL    HW155699   8.021   3.440   3.562
17934SOL    HW255700   7.934   3.549   3.504
17935SOL     OW55701   5.318   6.985   0.064
17935SOL    HW155702   5.335   6.899   0.102
17935SOL    HW255703   5.246   7.020   0.116
17936SOL     OW55704   5.995   2.406  14.634
17936SOL    HW155705   5.933   2.335  14.617
17936SOL    HW255706   5.974   2.436  14.723
17937SOL     OW55707   1.067   1.828   9.030
17937SOL    HW155708   1.129   1.782   8.972
17937SOL    HW255709   1.059   1.915   8.992
17938SOL     OW55710  11.997   3.231   4.039
17938SOL    HW155711  12.018   3.258   4.128
17938SOL    HW255712  11.928   3.165   4.050
17939SOL     OW55713   2.446   3.294  14.090
17939SOL    HW155714   2.356   3.303  14.121
17939SOL    HW255715   2.474   3.209  14.122
17940SOL     OW55716   6.297  13.340   3.476
17940SOL    HW155717   6.217  13.289   3.488
17940SOL    HW255718   6.328  13.359   3.565
17941SOL     OW55719  14.475  14.641   7.064
17941SOL    HW155720  14.546  14.695   7.100
17941SOL    HW255721  14.414  14.629   7.137
17942SOL     OW55722   5.925   4.509   8.531
17942SOL    HW155723   5.979   4.465   8.465
17942SOL    HW255724   5.898   4.590   8.489
17943SOL     OW55725   7.712   6.583   8.021
17943SOL    HW155726   7.774   6.571   8.093
17943SOL    HW255727   7.662   6.501   8.019
17944SOL     OW55728   7.891   6.489   8.201
17944SOL    HW155729   7.911   6.561   8.262
17944SOL    HW255730   7.930   6.412   8.242
17945SOL     OW55731  12.131  10.225  10.508
17945SOL    HW155732  12.146  10.130  10.515
17945SOL    HW255733  12.038  10.236  10.528
17946SOL     OW55734  12.960   1.359   9.397
17946SOL    HW155735  12.943   1.281   9.450
17946SOL    HW255736  12.876   1.379   9.356
17947SOL     OW55737   7.664   9.876  14.174
17947SOL    HW155738   7.721   9.895  14.249
17947SOL    HW255739   7.602   9.811  14.208
17948SOL     OW55740   6.100  12.956  11.748
17948SOL    HW155741   6.154  12.880  11.771
17948SOL    HW255742   6.159  13.030  11.755
17949SOL     OW55743   3.559  12.034  12.953
17949SOL    HW155744   3.619  12.079  13.012
17949SOL    HW255745   3.606  11.954  12.928
17950SOL     OW55746   8.164   2.800   8.611
17950SOL    HW155747   8.082   2.771   8.570
17950SOL    HW255748   8.163   2.759   8.697
17951SOL     OW55749   6.713   1.064   3.417
17951SOL    HW155750   6.788   1.089   3.363
17951SOL    HW255751   6.718   0.969   3.423
17952SOL     OW55752   2.740   0.131   3.745
17952SOL    HW155753   2.765   0.123   3.653
17952SOL    HW255754   2.649   0.162   3.742
17953SOL     OW55755   1.662  10.424   7.805
17953SOL    HW155756   1.605  10.370   7.750
17953SOL    HW255757   1.603  10.466   7.867
17954SOL     OW55758   7.220   8.182   1.711
17954SOL    HW155759   7.298   8.237   1.703
17954SOL    HW255760   7.151   8.243   1.738
17955SOL     OW55761  11.846   2.649   7.011
17955SOL    HW155762  11.941   2.641   7.003
17955SOL    HW255763  11.824   2.598   7.089
17956SOL     OW55764   8.866   1.123   6.439
17956SOL    HW155765   8.944   1.167   6.407
17956SOL    HW255766   8.794   1.164   6.390
17957SOL     OW55767   0.396   4.903  12.768
17957SOL    HW155768   0.347   4.966  12.822
17957SOL    HW255769   0.468   4.875  12.824
17958SOL     OW55770   4.875   5.327  13.979
17958SOL    HW155771   4.874   5.326  14.075
17958SOL    HW255772   4.793   5.369  13.955
17959SOL     OW55773  10.588  10.056  12.262
17959SOL    HW155774  10.621  10.022  12.345
17959SOL    HW255775  10.629  10.143  12.254
17960SOL     OW55776  12.439  13.642  12.488
17960SOL    HW155777  12.403  13.629  12.576
17960SOL    HW255778  12.484  13.726  12.493
17961SOL     OW55779  12.979   8.919   5.913
17961SOL    HW155780  13.041   8.855   5.878
17961SOL    HW255781  13.013   9.004   5.885
17962SOL     OW55782  11.429   2.949   7.131
17962SOL    HW155783  11.363   2.963   7.199
17962SOL    HW255784  11.509   2.986   7.166
17963SOL     OW55785  12.396  14.597   7.558
17963SOL    HW155786  12.396  14.507   7.528
17963SOL    HW255787  12.408  14.649   7.479
17964SOL     OW55788   8.704   3.228  13.047
17964SOL    HW155789   8.743   3.161  12.991
17964SOL    HW255790   8.671   3.179  13.123
17965SOL     OW55791   0.756  11.357   3.612
17965SOL    HW155792   0.696  11.413   3.563
17965SOL    HW255793   0.835  11.410   3.622
17966SOL     OW55794   4.530   2.126   8.527
17966SOL    HW155795   4.614   2.092   8.499
17966SOL    HW255796   4.518   2.207   8.477
17967SOL     OW55797   9.882  14.579   0.774
17967SOL    HW155798   9.956  14.640   0.777
17967SOL    HW255799   9.806  14.633   0.797
17968SOL     OW55800   9.293  13.567   3.490
17968SOL    HW155801   9.315  13.508   3.417
17968SOL    HW255802   9.200  13.549   3.507
17969SOL     OW55803   9.808   2.509   5.123
17969SOL    HW155804   9.723   2.537   5.088
17969SOL    HW255805   9.785   2.462   5.203
17970SOL     OW55806   4.300   5.480   9.925
17970SOL    HW155807   4.225   5.531   9.893
17970SOL    HW255808   4.344   5.540   9.987
17971SOL     OW55809   4.336   7.791  11.171
17971SOL    HW155810   4.346   7.819  11.262
17971SOL    HW255811   4.416   7.821  11.127
17972SOL     OW55812   9.916  13.149   1.895
17972SOL    HW155813   9.834  13.168   1.848
17972SOL    HW255814   9.967  13.096   1.834
17973SOL     OW55815   0.024  12.566   2.007
17973SOL    HW155816   0.024  12.479   1.967
17973SOL    HW255817  14.817  12.571   2.055
17974SOL     OW55818   1.121   5.339   1.523
17974SOL    HW155819   1.064   5.265   1.505
17974SOL    HW255820   1.163   5.358   1.440
17975SOL     OW55821  11.191   3.461  14.205
17975SOL    HW155822  11.229   3.383  14.247
17975SOL    HW255823  11.099   3.459  14.231
17976SOL     OW55824   3.428   8.242   8.666
17976SOL    HW155825   3.463   8.277   8.748
17976SOL    HW255826   3.400   8.319   8.617
17977SOL     OW55827   7.733   5.632   6.090
17977SOL    HW155828   7.798   5.580   6.044
17977SOL    HW255829   7.741   5.720   6.051
17978SOL     OW55830   5.719   1.976   1.564
17978SOL    HW155831   5.742   2.064   1.535
17978SOL    HW255832   5.644   1.988   1.622
17979SOL     OW55833  13.447  12.488   5.432
17979SOL    HW155834  13.485  12.501   5.519
17979SOL    HW255835  13.433  12.393   5.426
17980SOL     OW55836   4.905   1.115  12.043
17980SOL    HW155837   4.984   1.123  11.989
17980SOL    HW255838   4.910   1.188  12.105
17981SOL     OW55839   3.079  14.430   6.814
17981SOL    HW155840   3.146  14.449   6.748
17981SOL    HW255841   3.067  14.335   6.808
17982SOL     OW55842  11.116   6.029  10.046
17982SOL    HW155843  11.021   6.015  10.044
17982SOL    HW255844  11.146   6.002   9.959
17983SOL     OW55845  12.778   2.551   1.218
17983SOL    HW155846  12.860   2.550   1.267
17983SOL    HW255847  12.785   2.477   1.157
17984SOL     OW55848   8.024   3.361  12.063
17984SOL    HW155849   8.101   3.322  12.021
17984SOL    HW255850   8.041   3.356  12.156
17985SOL     OW55851   3.309   8.677  14.019
17985SOL    HW155852   3.354   8.714  13.943
17985SOL    HW255853   3.226   8.725  14.023
17986SOL     OW55854  13.611   8.413   7.824
17986SOL    HW155855  13.565   8.444   7.902
17986SOL    HW255856  13.690   8.467   7.820
17987SOL     OW55857  11.167   9.275   3.339
17987SOL    HW155858  11.250   9.306   3.303
17987SOL    HW255859  11.114   9.355   3.347
17988SOL     OW55860   9.847  10.890   5.757
17988SOL    HW155861   9.894  10.912   5.837
17988SOL    HW255862   9.872  10.959   5.695
17989SOL     OW55863   2.431   7.521  12.613
17989SOL    HW155864   2.378   7.593  12.648
17989SOL    HW255865   2.443   7.462  12.687
17990SOL     OW55866  11.885   7.395   6.898
17990SOL    HW155867  11.925   7.473   6.858
17990SOL    HW255868  11.841   7.352   6.825
17991SOL     OW55869   8.434   1.281   0.299
17991SOL    HW155870   8.489   1.266   0.376
17991SOL    HW255871   8.364   1.216   0.307
17992SOL     OW55872   5.041   0.199   3.398
17992SOL    HW155873   5.116   0.183   3.341
17992SOL    HW255874   4.979   0.130   3.377
17993SOL     OW55875   7.407   6.532   3.291
17993SOL    HW155876   7.326   6.541   3.240
17993SOL    HW255877   7.407   6.609   3.348
17994SOL     OW55878   8.110   4.181   3.492
17994SOL    HW155879   8.171   4.251   3.469
17994SOL    HW255880   8.139   4.105   3.441
17995SOL     OW55881   1.506   2.735   2.721
17995SOL    HW155882   1.476   2.734   2.630
17995SOL    HW255883   1.436   2.778   2.769
17996SOL     OW55884   6.601   5.145  13.747
17996SOL    HW155885   6.583   5.148  13.841
17996SOL    HW255886   6.640   5.230  13.727
17997SOL     OW55887  10.824   5.805  10.900
17997SOL    HW155888  10.770   5.764  10.967
17997SOL    HW255889  10.800   5.760  10.819
17998SOL     OW55890   6.987  13.989  12.620
17998SOL    HW155891   6.993  14.044  12.698
17998SOL    HW255892   7.059  14.019  12.564
17999SOL     OW55893   8.159   5.893  10.828
17999SOL    HW155894   8.142   5.848  10.745
17999SOL    HW255895   8.217   5.834  10.876
18000SOL     OW55896   9.841   0.324  14.329
18000SOL    HW155897   9.772   0.380  14.294
18000SOL    HW255898   9.855   0.355  14.418
18001SOL     OW55899   0.576  13.661  14.528
18001SOL    HW155900   0.513  13.730  14.550
18001SOL    HW255901   0.563  13.595  14.596
18002SOL     OW55902   8.221   3.415  11.213
18002SOL    HW155903   8.297   3.414  11.271
18002SOL    HW255904   8.219   3.505  11.179
18003SOL     OW55905  13.261   9.231   7.150
18003SOL    HW155906  13.221   9.217   7.065
18003SOL    HW255907  13.223   9.313   7.181
18004SOL     OW55908   1.746  10.978   4.568
18004SOL    HW155909   1.836  10.946   4.582
18004SOL    HW255910   1.691  10.901   4.584
18005SOL     OW55911   4.029  10.608  14.114
18005SOL    HW155912   4.121  10.626  14.132
18005SOL    HW255913   4.031  10.546  14.041
18006SOL     OW55914   8.853  14.156   0.678
18006SOL    HW155915   8.764  14.126   0.660
18006SOL    HW255916   8.856  14.166   0.773
18007SOL     OW55917   2.994   2.372   7.378
18007SOL    HW155918   2.925   2.415   7.327
18007SOL    HW255919   2.948   2.324   7.447
18008SOL     OW55920   2.888  14.074  12.175
18008SOL    HW155921   2.941  13.996  12.158
18008SOL    HW255922   2.951  14.138  12.209
18009SOL     OW55923  11.970   4.522  10.308
18009SOL    HW155924  11.948   4.556  10.221
18009SOL    HW255925  11.990   4.430  10.294
18010SOL     OW55926   5.060   9.208   5.044
18010SOL    HW155927   5.087   9.299   5.037
18010SOL    HW255928   5.142   9.159   5.058
18011SOL     OW55929   8.405   9.365   3.681
18011SOL    HW155930   8.474   9.418   3.643
18011SOL    HW255931   8.379   9.413   3.760
18012SOL     OW55932   1.112   5.740  14.823
18012SOL    HW155933   1.162   5.690   0.013
18012SOL    HW255934   1.165   5.817  14.806
18013SOL     OW55935   0.332   1.700   7.696
18013SOL    HW155936   0.395   1.633   7.671
18013SOL    HW255937   0.256   1.682   7.641
18014SOL     OW55938   2.381   5.082   5.294
18014SOL    HW155939   2.417   5.168   5.316
18014SOL    HW255940   2.337   5.053   5.373
18015SOL     OW55941   2.077  11.474   9.780
18015SOL    HW155942   2.034  11.398   9.820
18015SOL    HW255943   2.069  11.460   9.686
18016SOL     OW55944  11.460  10.242   8.314
18016SOL    HW155945  11.380  10.232   8.365
18016SOL    HW255946  11.429  10.265   8.226
18017SOL     OW55947   6.977   7.317  11.507
18017SOL    HW155948   7.035   7.303  11.582
18017SOL    HW255949   6.894   7.277  11.533
18018SOL     OW55950   2.354   2.100   3.878
18018SOL    HW155951   2.309   2.156   3.814
18018SOL    HW255952   2.372   2.019   3.830
18019SOL     OW55953   8.550   6.291  11.892
18019SOL    HW155954   8.459   6.314  11.910
18019SOL    HW255955   8.548   6.198  11.870
18020SOL     OW55956   1.749   6.169   1.654
18020SOL    HW155957   1.676   6.170   1.592
18020SOL    HW255958   1.765   6.077   1.672
18021SOL     OW55959   3.116   3.545   0.776
18021SOL    HW155960   3.056   3.472   0.759
18021SOL    HW255961   3.203   3.506   0.770
18022SOL     OW55962  13.082   1.597   1.822
18022SOL    HW155963  13.080   1.693   1.823
18022SOL    HW255964  13.145   1.575   1.753
18023SOL     OW55965   4.425   6.363   0.005
18023SOL    HW155966   4.517   6.341  14.868
18023SOL    HW255967   4.414   6.448  14.838
18024SOL     OW55968   1.467   4.302  10.138
18024SOL    HW155969   1.514   4.250  10.074
18024SOL    HW255970   1.502   4.391  10.127
18025SOL     OW55971   3.829   6.183   1.536
18025SOL    HW155972   3.812   6.153   1.446
18025SOL    HW255973   3.923   6.202   1.537
18026SOL     OW55974   9.858  12.982   2.756
18026SOL    HW155975   9.950  12.954   2.753
18026SOL    HW255976   9.844  13.006   2.848
18027SOL     OW55977   2.666   0.858  14.362
18027SOL    HW155978   2.742   0.828  14.411
18027SOL    HW255979   2.704   0.903  14.286
18028SOL     OW55980   3.606   7.171   2.878
18028SOL    HW155981   3.523   7.128   2.858
18028SOL    HW255982   3.609   7.175   2.973
18029SOL     OW55983  12.089   1.916   8.216
18029SOL    HW155984  12.030   1.884   8.148
18029SOL    HW255985  12.120   1.837   8.261
18030SOL     OW55986  11.088  12.058  11.146
18030SOL    HW155987  11.007  12.020  11.113
18030SOL    HW255988  11.077  12.061  11.241
18031SOL     OW55989  11.038   3.960   3.609
18031SOL    HW155990  11.030   3.913   3.526
18031SOL    HW255991  11.085   3.900   3.666
18032SOL     OW55992  10.758  12.250   7.213
18032SOL    HW155993  10.758  12.158   7.241
18032SOL    HW255994  10.765  12.299   7.295
18033SOL     OW55995  13.090   5.036  13.713
18033SOL    HW155996  13.090   5.095  13.638
18033SOL    HW255997  13.028   5.076  13.774
18034SOL     OW55998  14.576  10.838   0.170
18034SOL    HW155999  14.576  10.751   0.211
18034SOL    HW256000  14.664  10.847   0.135
18035SOL     OW56001   4.917   9.410   0.621
18035SOL    HW156002   4.974   9.486   0.623
18035SOL    HW256003   4.913   9.385   0.528
18036SOL     OW56004   3.845   5.167  12.862
18036SOL    HW156005   3.929   5.122  12.871
18036SOL    HW256006   3.792   5.110  12.807
18037SOL     OW56007   6.442  11.890   6.206
18037SOL    HW156008   6.423  11.802   6.176
18037SOL    HW256009   6.535  11.889   6.229
18038SOL     OW56010   8.305  13.191   2.775
18038SOL    HW156011   8.364  13.221   2.706
18038SOL    HW256012   8.364  13.158   2.843
18039SOL     OW56013   1.562   9.199  12.447
18039SOL    HW156014   1.611   9.119  12.464
18039SOL    HW256015   1.588   9.258  12.517
18040SOL     OW56016  10.345  12.959   8.141
18040SOL    HW156017  10.262  12.917   8.165
18040SOL    HW256018  10.349  12.952   8.046
18041SOL     OW56019   1.083   1.682  14.315
18041SOL    HW156020   1.092   1.758  14.373
18041SOL    HW256021   1.173   1.653  14.301
18042SOL     OW56022   7.539   9.613   7.675
18042SOL    HW156023   7.572   9.684   7.620
18042SOL    HW256024   7.560   9.640   7.765
18043SOL     OW56025   8.734   8.735   9.710
18043SOL    HW156026   8.714   8.714   9.618
18043SOL    HW256027   8.711   8.655   9.758
18044SOL     OW56028   1.093   4.466   7.183
18044SOL    HW156029   1.092   4.386   7.235
18044SOL    HW256030   1.127   4.439   7.098
18045SOL     OW56031   7.493   4.650   9.279
18045SOL    HW156032   7.462   4.625   9.192
18045SOL    HW256033   7.523   4.741   9.269
18046SOL     OW56034   3.706   6.472  13.268
18046SOL    HW156035   3.777   6.437  13.323
18046SOL    HW256036   3.734   6.453  13.179
18047SOL     OW56037   2.116  14.303   2.627
18047SOL    HW156038   2.101  14.286   2.534
18047SOL    HW256039   2.211  14.297   2.637
18048SOL     OW56040   9.881  12.448   3.831
18048SOL    HW156041   9.961  12.397   3.820
18048SOL    HW256042   9.912  12.538   3.843
18049SOL     OW56043  13.911   5.884  12.067
18049SOL    HW156044  13.934   5.972  12.098
18049SOL    HW256045  13.978   5.864  12.002
18050SOL     OW56046  14.642  10.375   2.751
18050SOL    HW156047  14.555  10.410   2.733
18050SOL    HW256048  14.625  10.290   2.792
18051SOL     OW56049   3.544   9.463   5.561
18051SOL    HW156050   3.479   9.425   5.620
18051SOL    HW256051   3.597   9.389   5.532
18052SOL     OW56052   3.275  11.675   7.775
18052SOL    HW156053   3.362  11.635   7.770
18052SOL    HW256054   3.214  11.603   7.758
18053SOL     OW56055   3.678   9.506  13.601
18053SOL    HW156056   3.595   9.537  13.637
18053SOL    HW256057   3.654   9.439  13.537
18054SOL     OW56058  12.449   1.317   8.696
18054SOL    HW156059  12.442   1.296   8.602
18054SOL    HW256060  12.531   1.366   8.702
18055SOL     OW56061  10.488  14.534  13.408
18055SOL    HW156062  10.407  14.564  13.449
18055SOL    HW256063  10.471  14.540  13.314
18056SOL     OW56064   4.575   3.279   2.953
18056SOL    HW156065   4.648   3.231   2.913
18056SOL    HW256066   4.537   3.329   2.880
18057SOL     OW56067   5.976   3.207   1.876
18057SOL    HW156068   5.918   3.275   1.910
18057SOL    HW256069   6.059   3.252   1.859
18058SOL     OW56070  11.797  11.660  11.524
18058SOL    HW156071  11.746  11.668  11.444
18058SOL    HW256072  11.732  11.638  11.591
18059SOL     OW56073  11.488   6.007   4.195
18059SOL    HW156074  11.506   6.014   4.289
18059SOL    HW256075  11.496   5.914   4.176
18060SOL     OW56076   9.689   9.233   6.394
18060SOL    HW156077   9.747   9.271   6.328
18060SOL    HW256078   9.638   9.307   6.426
18061SOL     OW56079  12.597   3.342   4.463
18061SOL    HW156080  12.681   3.303   4.485
18061SOL    HW256081  12.583   3.410   4.529
18062SOL     OW56082  13.744   7.541   1.969
18062SOL    HW156083  13.803   7.609   2.001
18062SOL    HW256084  13.795   7.494   1.902
18063SOL     OW56085  11.489   1.140   9.336
18063SOL    HW156086  11.567   1.103   9.295
18063SOL    HW256087  11.522   1.194   9.408
18064SOL     OW56088   4.306   7.644   2.153
18064SOL    HW156089   4.251   7.685   2.220
18064SOL    HW256090   4.381   7.608   2.202
18065SOL     OW56091  14.637   0.651   2.425
18065SOL    HW156092  14.568   0.608   2.374
18065SOL    HW256093  14.649   0.596   2.501
18066SOL     OW56094   0.663   5.429   9.514
18066SOL    HW156095   0.618   5.476   9.584
18066SOL    HW256096   0.730   5.377   9.559
18067SOL     OW56097   4.999   5.266   9.305
18067SOL    HW156098   4.905   5.250   9.298
18067SOL    HW256099   5.010   5.359   9.287
18068SOL     OW56100   3.642   4.748   8.855
18068SOL    HW156101   3.736   4.745   8.841
18068SOL    HW256102   3.604   4.705   8.779
18069SOL     OW56103  13.072   9.505  12.641
18069SOL    HW156104  13.059   9.501  12.546
18069SOL    HW256105  12.995   9.462  12.678
18070SOL     OW56106   6.184  11.965   4.984
18070SOL    HW156107   6.253  12.025   4.958
18070SOL    HW256108   6.106  11.997   4.938
18071SOL     OW56109   5.449  13.996   6.210
18071SOL    HW156110   5.420  13.905   6.213
18071SOL    HW256111   5.381  14.045   6.256
18072SOL     OW56112   8.206  10.723   6.865
18072SOL    HW156113   8.289  10.761   6.835
18072SOL    HW256114   8.153  10.799   6.890
18073SOL     OW56115   8.699   2.391   1.110
18073SOL    HW156116   8.765   2.448   1.071
18073SOL    HW256117   8.638   2.373   1.038
18074SOL     OW56118  11.684  14.823   2.294
18074SOL    HW156119  11.695   0.025   2.238
18074SOL    HW256120  11.657  14.859   2.379
18075SOL     OW56121   3.253  11.058  13.707
18075SOL    HW156122   3.221  11.145  13.687
18075SOL    HW256123   3.318  11.040  13.638
18076SOL     OW56124   6.286   2.840   1.065
18076SOL    HW156125   6.203   2.813   1.103
18076SOL    HW256126   6.311   2.768   1.008
18077SOL     OW56127  10.790   7.403   7.155
18077SOL    HW156128  10.805   7.317   7.116
18077SOL    HW256129  10.876   7.445   7.154
18078SOL     OW56130   9.309  13.783  14.224
18078SOL    HW156131   9.385  13.748  14.270
18078SOL    HW256132   9.330  13.875  14.209
18079SOL     OW56133   2.481   9.644  11.307
18079SOL    HW156134   2.399   9.597  11.322
18079SOL    HW256135   2.492   9.697  11.386
18080SOL     OW56136   2.802   8.173   0.748
18080SOL    HW156137   2.730   8.110   0.743
18080SOL    HW256138   2.826   8.189   0.657
18081SOL     OW56139   0.396  11.242   4.957
18081SOL    HW156140   0.472  11.285   4.996
18081SOL    HW256141   0.392  11.157   5.001
18082SOL     OW56142  12.408  11.867   9.014
18082SOL    HW156143  12.469  11.868   9.088
18082SOL    HW256144  12.457  11.907   8.942
18083SOL     OW56145  13.962  10.451  12.304
18083SOL    HW156146  13.931  10.496  12.382
18083SOL    HW256147  13.931  10.361  12.313
18084SOL     OW56148  13.506   2.386  14.351
18084SOL    HW156149  13.483   2.435  14.273
18084SOL    HW256150  13.562   2.315  14.320
18085SOL     OW56151   7.281   0.622   9.994
18085SOL    HW156152   7.235   0.621   9.910
18085SOL    HW256153   7.317   0.534  10.003
18086SOL     OW56154   8.623  10.738  12.847
18086SOL    HW156155   8.594  10.697  12.765
18086SOL    HW256156   8.611  10.832  12.831
18087SOL     OW56157   2.897  14.156  13.117
18087SOL    HW156158   2.807  14.162  13.148
18087SOL    HW256159   2.949  14.150  13.197
18088SOL     OW56160   9.341   3.582   0.585
18088SOL    HW156161   9.377   3.651   0.641
18088SOL    HW256162   9.250   3.575   0.612
18089SOL     OW56163   5.769  10.510   0.235
18089SOL    HW156164   5.756  10.481   0.145
18089SOL    HW256165   5.696  10.472   0.283
18090SOL     OW56166   2.419  14.814   4.395
18090SOL    HW156167   2.470  14.843   4.319
18090SOL    HW256168   2.466  14.851   4.470
18091SOL     OW56169  12.843  14.689  11.940
18091SOL    HW156170  12.927  14.687  11.893
18091SOL    HW256171  12.783  14.733  11.880
18092SOL     OW56172  12.683  12.968   2.626
18092SOL    HW156173  12.714  13.044   2.576
18092SOL    HW256174  12.683  12.897   2.563
18093SOL     OW56175  11.864   7.899  11.254
18093SOL    HW156176  11.937   7.891  11.316
18093SOL    HW256177  11.814   7.975  11.285
18094SOL     OW56178   0.030   9.144   9.723
18094SOL    HW156179   0.088   9.086   9.772
18094SOL    HW256180   0.081   9.171   9.647
18095SOL     OW56181  14.440   3.740   0.787
18095SOL    HW156182  14.534   3.739   0.767
18095SOL    HW256183  14.432   3.804   0.858
18096SOL     OW56184   3.296  14.020   0.603
18096SOL    HW156185   3.250  14.072   0.537
18096SOL    HW256186   3.389  14.033   0.583
18097SOL     OW56187   5.515   9.275   6.179
18097SOL    HW156188   5.532   9.222   6.257
18097SOL    HW256189   5.486   9.211   6.113
18098SOL     OW56190  14.452  13.138   9.530
18098SOL    HW156191  14.373  13.085   9.548
18098SOL    HW256192  14.440  13.168   9.440
18099SOL     OW56193  14.029   0.371   1.830
18099SOL    HW156194  14.121   0.348   1.844
18099SOL    HW256195  14.032   0.457   1.788
18100SOL     OW56196   5.957   3.113  14.225
18100SOL    HW156197   5.979   3.038  14.281
18100SOL    HW256198   5.975   3.190  14.279
18101SOL     OW56199   4.497   3.697   0.689
18101SOL    HW156200   4.562   3.680   0.621
18101SOL    HW256201   4.418   3.723   0.642
18102SOL     OW56202  10.027   1.311  14.354
18102SOL    HW156203  10.089   1.313  14.427
18102SOL    HW256204   9.968   1.238  14.374
18103SOL     OW56205   6.628  13.935  10.523
18103SOL    HW156206   6.605  13.858  10.471
18103SOL    HW256207   6.664  13.900  10.604
18104SOL     OW56208   6.966   9.720  10.911
18104SOL    HW156209   6.893   9.709  10.851
18104SOL    HW256210   6.984   9.632  10.945
18105SOL     OW56211   2.012  14.034  11.496
18105SOL    HW156212   1.972  14.120  11.508
18105SOL    HW256213   2.054  14.038  11.411
18106SOL     OW56214  11.022   5.118   4.670
18106SOL    HW156215  11.096   5.066   4.639
18106SOL    HW256216  10.946   5.085   4.621
18107SOL     OW56217  10.283   8.823  11.531
18107SOL    HW156218  10.330   8.825  11.448
18107SOL    HW256219  10.193   8.846  11.508
18108SOL     OW56220   4.285   0.370   4.440
18108SOL    HW156221   4.308   0.359   4.348
18108SOL    HW256222   4.342   0.440   4.471
18109SOL     OW56223   7.126   8.489  12.712
18109SOL    HW156224   7.133   8.584  12.716
18109SOL    HW256225   7.081   8.472  12.629
18110SOL     OW56226  11.181   9.648   2.902
18110SOL    HW156227  11.115   9.620   2.838
18110SOL    HW256228  11.210   9.734   2.872
18111SOL     OW56229   4.399   3.026   7.688
18111SOL    HW156230   4.397   3.095   7.621
18111SOL    HW256231   4.491   3.016   7.710
18112SOL     OW56232   8.014   1.747   5.549
18112SOL    HW156233   8.100   1.714   5.576
18112SOL    HW256234   7.987   1.805   5.620
18113SOL     OW56235   4.084   8.885  12.005
18113SOL    HW156236   4.099   8.969  11.962
18113SOL    HW256237   4.161   8.833  11.984
18114SOL     OW56238   5.989   4.620  11.893
18114SOL    HW156239   6.083   4.617  11.908
18114SOL    HW256240   5.955   4.674  11.964
18115SOL     OW56241   6.667  10.169  11.395
18115SOL    HW156242   6.690  10.227  11.322
18115SOL    HW256243   6.749  10.160  11.444
18116SOL     OW56244  10.232   4.143   7.329
18116SOL    HW156245  10.141   4.172   7.341
18116SOL    HW256246  10.267   4.136   7.418
18117SOL     OW56247  12.959  12.434   5.167
18117SOL    HW156248  12.961  12.502   5.234
18117SOL    HW256249  12.959  12.483   5.084
18118SOL     OW56250   1.265   2.770   4.849
18118SOL    HW156251   1.271   2.718   4.929
18118SOL    HW256252   1.321   2.723   4.786
18119SOL     OW56253   2.625   0.579   5.151
18119SOL    HW156254   2.712   0.605   5.119
18119SOL    HW256255   2.613   0.490   5.117
18120SOL     OW56256   4.289   1.451   7.887
18120SOL    HW156257   4.330   1.387   7.829
18120SOL    HW256258   4.348   1.527   7.884
18121SOL     OW56259  14.322   2.316  12.442
18121SOL    HW156260  14.289   2.358  12.522
18121SOL    HW256261  14.255   2.250  12.421
18122SOL     OW56262   9.295   9.525  11.870
18122SOL    HW156263   9.260   9.562  11.789
18122SOL    HW256264   9.301   9.431  11.852
18123SOL     OW56265  13.142   8.968   2.569
18123SOL    HW156266  13.108   8.879   2.567
18123SOL    HW256267  13.224   8.963   2.519
18124SOL     OW56268  12.772   5.458   6.561
18124SOL    HW156269  12.771   5.546   6.600
18124SOL    HW256270  12.714   5.406   6.617
18125SOL     OW56271   7.132   7.966   8.992
18125SOL    HW156272   7.130   7.872   8.977
18125SOL    HW256273   7.221   7.983   9.025
18126SOL     OW56274  11.413   3.857  11.166
18126SOL    HW156275  11.470   3.870  11.242
18126SOL    HW256276  11.469   3.878  11.091
18127SOL     OW56277   1.521   4.905   4.797
18127SOL    HW156278   1.593   4.902   4.734
18127SOL    HW256279   1.527   4.991   4.837
18128SOL     OW56280   8.332   6.615   7.964
18128SOL    HW156281   8.237   6.620   7.975
18128SOL    HW256282   8.344   6.582   7.875
18129SOL     OW56283  12.269   8.113  11.455
18129SOL    HW156284  12.300   8.101  11.544
18129SOL    HW256285  12.205   8.184  11.460
18130SOL     OW56286  14.097   4.135   5.016
18130SOL    HW156287  14.151   4.199   4.969
18130SOL    HW256288  14.145   4.053   5.008
18131SOL     OW56289   3.396  10.662   8.473
18131SOL    HW156290   3.417  10.715   8.550
18131SOL    HW256291   3.479  10.655   8.426
18132SOL     OW56292   1.332   9.344   7.507
18132SOL    HW156293   1.322   9.391   7.424
18132SOL    HW256294   1.426   9.325   7.513
18133SOL     OW56295   8.096   0.865  14.774
18133SOL    HW156296   8.069   0.778  14.802
18133SOL    HW256297   8.169   0.850  14.714
18134SOL     OW56298   5.472   9.760   7.057
18134SOL    HW156299   5.410   9.824   7.024
18134SOL    HW256300   5.525   9.737   6.981
18135SOL     OW56301   8.695   1.047   0.564
18135SOL    HW156302   8.607   1.071   0.594
18135SOL    HW256303   8.681   0.971   0.508
18136SOL     OW56304  13.910  11.111   9.959
18136SOL    HW156305  13.816  11.092   9.964
18136SOL    HW256306  13.937  11.118  10.051
18137SOL     OW56307  13.935  13.156   2.321
18137SOL    HW156308  13.984  13.100   2.381
18137SOL    HW256309  13.929  13.240   2.366
18138SOL     OW56310  12.323   2.773   7.234
18138SOL    HW156311  12.387   2.833   7.196
18138SOL    HW256312  12.374   2.712   7.287
18139SOL     OW56313  10.330   1.584   9.513
18139SOL    HW156314  10.408   1.595   9.567
18139SOL    HW256315  10.332   1.493   9.485
18140SOL     OW56316  12.405   0.057   7.726
18140SOL    HW156317  12.484   0.106   7.749
18140SOL    HW256318  12.412  14.850   7.774
18141SOL     OW56319   5.081   8.312  13.755
18141SOL    HW156320   5.169   8.335  13.727
18141SOL    HW256321   5.024   8.368  13.703
18142SOL     OW56322   9.258   8.518   1.639
18142SOL    HW156323   9.306   8.598   1.616
18142SOL    HW256324   9.204   8.500   1.562
18143SOL     OW56325   4.800   7.562   1.557
18143SOL    HW156326   4.885   7.594   1.525
18143SOL    HW256327   4.782   7.616   1.634
18144SOL     OW56328  14.295  12.362   9.967
18144SOL    HW156329  14.384  12.358  10.001
18144SOL    HW256330  14.240  12.357  10.045
18145SOL     OW56331  11.674   0.998  11.042
18145SOL    HW156332  11.640   1.047  10.967
18145SOL    HW256333  11.609   0.930  11.058
18146SOL     OW56334   0.514  10.064   5.200
18146SOL    HW156335   0.605  10.083   5.221
18146SOL    HW256336   0.518   9.993   5.136
18147SOL     OW56337   8.043  14.623  14.607
18147SOL    HW156338   7.951  14.643  14.588
18147SOL    HW256339   8.040  14.544  14.661
18148SOL     OW56340   8.326  13.567   5.695
18148SOL    HW156341   8.251  13.567   5.754
18148SOL    HW256342   8.368  13.652   5.710
18149SOL     OW56343   7.307   1.522   5.675
18149SOL    HW156344   7.311   1.567   5.591
18149SOL    HW256345   7.216   1.532   5.704
18150SOL     OW56346   2.988   3.730  14.207
18150SOL    HW156347   2.987   3.738  14.111
18150SOL    HW256348   2.902   3.693  14.228
18151SOL     OW56349  13.150   2.885  10.244
18151SOL    HW156350  13.221   2.947  10.259
18151SOL    HW256351  13.193   2.806  10.213
18152SOL     OW56352   8.739  13.215  13.450
18152SOL    HW156353   8.776  13.233  13.536
18152SOL    HW256354   8.768  13.289  13.396
18153SOL     OW56355   7.454  14.081   7.868
18153SOL    HW156356   7.432  14.106   7.957
18153SOL    HW256357   7.548  14.066   7.869
18154SOL     OW56358  12.400   6.326   3.577
18154SOL    HW156359  12.456   6.257   3.613
18154SOL    HW256360  12.384   6.300   3.487
18155SOL     OW56361   7.376  13.982   6.502
18155SOL    HW156362   7.397  13.943   6.587
18155SOL    HW256363   7.402  14.074   6.510
18156SOL     OW56364  12.687  10.727   7.100
18156SOL    HW156365  12.761  10.701   7.155
18156SOL    HW256366  12.615  10.670   7.127
18157SOL     OW56367   7.254   9.145  10.907
18157SOL    HW156368   7.158   9.142  10.910
18157SOL    HW256369   7.280   9.162  10.998
18158SOL     OW56370   7.576   1.399   4.957
18158SOL    HW156371   7.492   1.444   4.948
18158SOL    HW256372   7.616   1.438   5.035
18159SOL     OW56373  14.485  12.193  14.247
18159SOL    HW156374  14.493  12.227  14.337
18159SOL    HW256375  14.425  12.254  14.204
18160SOL     OW56376   1.484  11.620   7.714
18160SOL    HW156377   1.497  11.561   7.788
18160SOL    HW256378   1.563  11.674   7.712
18161SOL     OW56379   8.619   1.446   8.323
18161SOL    HW156380   8.546   1.390   8.349
18161SOL    HW256381   8.655   1.479   8.406
18162SOL     OW56382   7.594   4.223   2.658
18162SOL    HW156383   7.530   4.204   2.590
18162SOL    HW256384   7.584   4.317   2.674
18163SOL     OW56385  10.568   0.912   5.202
18163SOL    HW156386  10.639   0.887   5.260
18163SOL    HW256387  10.608   0.920   5.115
18164SOL     OW56388   5.393   8.365   3.180
18164SOL    HW156389   5.404   8.440   3.122
18164SOL    HW256390   5.299   8.347   3.178
18165SOL     OW56391  11.759   5.300  11.123
18165SOL    HW156392  11.832   5.302  11.062
18165SOL    HW256393  11.695   5.242  11.082
18166SOL     OW56394   3.737   1.894   0.399
18166SOL    HW156395   3.677   1.819   0.406
18166SOL    HW256396   3.720   1.929   0.312
18167SOL     OW56397   9.102   1.737   6.667
18167SOL    HW156398   9.057   1.772   6.590
18167SOL    HW256399   9.071   1.647   6.675
18168SOL     OW56400  12.184   9.050   6.679
18168SOL    HW156401  12.131   9.126   6.705
18168SOL    HW256402  12.145   8.977   6.727
18169SOL     OW56403   4.609  10.139   7.925
18169SOL    HW156404   4.683  10.170   7.873
18169SOL    HW256405   4.632  10.048   7.946
18170SOL     OW56406   5.282  11.199  13.614
18170SOL    HW156407   5.211  11.262  13.608
18170SOL    HW256408   5.361  11.250  13.597
18171SOL     OW56409   2.498  10.585  14.641
18171SOL    HW156410   2.558  10.558  14.571
18171SOL    HW256411   2.488  10.507  14.696
18172SOL     OW56412  12.473   3.732   7.286
18172SOL    HW156413  12.479   3.771   7.373
18172SOL    HW256414  12.563   3.715   7.260
18173SOL     OW56415  11.901   5.412   0.063
18173SOL    HW156416  11.974   5.422   0.001
18173SOL    HW256417  11.833   5.470   0.028
18174SOL     OW56418  10.260   7.695  10.261
18174SOL    HW156419  10.246   7.633  10.333
18174SOL    HW256420  10.257   7.781  10.302
18175SOL     OW56421   7.127  10.062   7.965
18175SOL    HW156422   7.183   9.985   7.976
18175SOL    HW256423   7.065  10.038   7.897
18176SOL     OW56424  14.626  12.808  11.596
18176SOL    HW156425  14.566  12.780  11.527
18176SOL    HW256426  14.604  12.900  11.612
18177SOL     OW56427   1.013  12.198  10.401
18177SOL    HW156428   1.074  12.255  10.354
18177SOL    HW256429   0.967  12.256  10.461
18178SOL     OW56430  10.884   0.389   1.304
18178SOL    HW156431  10.897   0.373   1.210
18178SOL    HW256432  10.792   0.416   1.311
18179SOL     OW56433  13.862   4.979   2.636
18179SOL    HW156434  13.788   5.039   2.622
18179SOL    HW256435  13.907   5.014   2.713
18180SOL     OW56436  11.476   2.051   5.978
18180SOL    HW156437  11.466   2.103   6.058
18180SOL    HW256438  11.388   2.023   5.956
18181SOL     OW56439  10.098   0.739   7.911
18181SOL    HW156440  10.025   0.694   7.954
18181SOL    HW256441  10.170   0.734   7.974
18182SOL     OW56442  12.235   6.476   8.476
18182SOL    HW156443  12.207   6.464   8.567
18182SOL    HW256444  12.247   6.387   8.444
18183SOL     OW56445  11.386  10.041  13.039
18183SOL    HW156446  11.441  10.050  12.961
18183SOL    HW256447  11.296  10.039  13.004
18184SOL     OW56448   5.277   6.567  11.603
18184SOL    HW156449   5.355   6.525  11.639
18184SOL    HW256450   5.248   6.508  11.533
18185SOL     OW56451   8.988   5.808  12.225
18185SOL    HW156452   8.956   5.893  12.193
18185SOL    HW256453   9.080   5.806  12.197
18186SOL     OW56454  10.222   1.165   1.330
18186SOL    HW156455  10.270   1.247   1.335
18186SOL    HW256456  10.159   1.169   1.401
18187SOL     OW56457   0.849  12.805  10.332
18187SOL    HW156458   0.819  12.779  10.420
18187SOL    HW256459   0.776  12.784  10.275
18188SOL     OW56460   4.063  12.242   5.041
18188SOL    HW156461   4.135  12.263   5.101
18188SOL    HW256462   3.992  12.214   5.098
18189SOL     OW56463   9.534  13.578   5.436
18189SOL    HW156464   9.597  13.521   5.480
18189SOL    HW256465   9.541  13.661   5.484
18190SOL     OW56466   4.066  11.251   3.430
18190SOL    HW156467   4.071  11.279   3.339
18190SOL    HW256468   4.136  11.299   3.474
18191SOL     OW56469   7.188   1.929   7.857
18191SOL    HW156470   7.273   1.960   7.828
18191SOL    HW256471   7.159   1.870   7.788
18192SOL     OW56472   3.116   5.103   2.352
18192SOL    HW156473   3.058   5.151   2.411
18192SOL    HW256474   3.064   5.029   2.321
18193SOL     OW56475  14.459   5.313  14.032
18193SOL    HW156476  14.494   5.390  14.078
18193SOL    HW256477  14.373   5.341  14.000
18194SOL     OW56478   1.871   9.535   1.792
18194SOL    HW156479   1.841   9.481   1.865
18194SOL    HW256480   1.859   9.480   1.715
18195SOL     OW56481  13.020   9.723   1.653
18195SOL    HW156482  13.100   9.776   1.645
18195SOL    HW256483  12.949   9.787   1.661
18196SOL     OW56484  11.441   9.170   9.176
18196SOL    HW156485  11.448   9.076   9.195
18196SOL    HW256486  11.433   9.212   9.262
18197SOL     OW56487  12.142   5.038  11.324
18197SOL    HW156488  12.098   5.111  11.366
18197SOL    HW256489  12.141   4.968  11.390
18198SOL     OW56490   0.393   9.199   6.705
18198SOL    HW156491   0.451   9.262   6.662
18198SOL    HW256492   0.376   9.237   6.792
18199SOL     OW56493  10.440   6.637  13.547
18199SOL    HW156494  10.504   6.575  13.511
18199SOL    HW256495  10.356   6.608  13.510
18200SOL     OW56496   0.102   1.865   5.379
18200SOL    HW156497   0.105   1.834   5.470
18200SOL    HW256498   0.089   1.785   5.327
18201SOL     OW56499   5.923   8.603   2.631
18201SOL    HW156500   5.902   8.644   2.715
18201SOL    HW256501   5.893   8.667   2.566
18202SOL     OW56502   2.114  10.988  10.957
18202SOL    HW156503   2.175  10.929  10.911
18202SOL    HW256504   2.167  11.065  10.977
18203SOL     OW56505  10.618   7.018  10.961
18203SOL    HW156506  10.589   6.930  10.987
18203SOL    HW256507  10.699   7.002  10.912
18204SOL     OW56508  11.360   6.144   6.729
18204SOL    HW156509  11.426   6.107   6.669
18204SOL    HW256510  11.279   6.141   6.679
18205SOL     OW56511   5.350   2.316   2.049
18205SOL    HW156512   5.257   2.317   2.072
18205SOL    HW256513   5.389   2.380   2.109
18206SOL     OW56514  14.044   9.297   5.589
18206SOL    HW156515  14.109   9.347   5.639
18206SOL    HW256516  13.963   9.347   5.602
18207SOL     OW56517   1.642  14.385   4.931
18207SOL    HW156518   1.636  14.360   4.839
18207SOL    HW256519   1.734  14.374   4.954
18208SOL     OW56520   8.267   9.344   6.187
18208SOL    HW156521   8.177   9.343   6.219
18208SOL    HW256522   8.315   9.397   6.250
18209SOL     OW56523  14.741   9.944  12.166
18209SOL    HW156524  14.771   9.975  12.081
18209SOL    HW256525  14.810   9.968  12.227
18210SOL     OW56526   8.119   9.954   1.043
18210SOL    HW156527   8.079   9.942   1.129
18210SOL    HW256528   8.178  10.028   1.054
18211SOL     OW56529   3.833  13.510   6.650
18211SOL    HW156530   3.794  13.435   6.696
18211SOL    HW256531   3.907  13.473   6.602
18212SOL     OW56532   1.901  14.758  11.879
18212SOL    HW156533   1.967  14.825  11.897
18212SOL    HW256534   1.881  14.767  11.786
18213SOL     OW56535  12.608  10.422   8.584
18213SOL    HW156536  12.695  10.399   8.550
18213SOL    HW256537  12.587  10.505   8.541
18214SOL     OW56538  11.293   0.193   7.112
18214SOL    HW156539  11.351   0.269   7.106
18214SOL    HW256540  11.300   0.164   7.203
18215SOL     OW56541   3.898   3.141   9.833
18215SOL    HW156542   3.872   3.054   9.865
18215SOL    HW256543   3.927   3.126   9.743
18216SOL     OW56544  12.878   3.816   3.727
18216SOL    HW156545  12.904   3.726   3.745
18216SOL    HW256546  12.896   3.828   3.633
18217SOL     OW56547  13.927  13.645   9.392
18217SOL    HW156548  13.841  13.682   9.373
18217SOL    HW256549  13.950  13.680   9.478
18218SOL     OW56550   4.816   4.326  11.481
18218SOL    HW156551   4.746   4.352  11.540
18218SOL    HW256552   4.782   4.249  11.436
18219SOL     OW56553   6.154   0.763   2.188
18219SOL    HW156554   6.064   0.741   2.167
18219SOL    HW256555   6.207   0.706   2.133
18220SOL     OW56556  13.121   6.860   9.790
18220SOL    HW156557  13.162   6.784   9.748
18220SOL    HW256558  13.158   6.936   9.744
18221SOL     OW56559   9.827   4.384   7.187
18221SOL    HW156560   9.825   4.289   7.197
18221SOL    HW256561   9.736   4.409   7.172
18222SOL     OW56562   8.971   4.590   9.444
18222SOL    HW156563   9.051   4.623   9.485
18222SOL    HW256564   8.925   4.544   9.515
18223SOL     OW56565   4.923  10.922   1.400
18223SOL    HW156566   4.989  10.856   1.424
18223SOL    HW256567   4.841  10.887   1.435
18224SOL     OW56568  11.292  11.858  11.413
18224SOL    HW156569  11.333  11.941  11.434
18224SOL    HW256570  11.276  11.816  11.497
18225SOL     OW56571   5.476   0.717   7.968
18225SOL    HW156572   5.497   0.713   8.061
18225SOL    HW256573   5.558   0.741   7.925
18226SOL     OW56574  10.177  11.888   9.264
18226SOL    HW156575  10.218  11.835   9.332
18226SOL    HW256576  10.235  11.879   9.188
18227SOL     OW56577   8.990   4.824   5.346
18227SOL    HW156578   9.080   4.854   5.356
18227SOL    HW256579   8.972   4.775   5.426
18228SOL     OW56580   5.602   1.309  14.160
18228SOL    HW156581   5.675   1.340  14.213
18228SOL    HW256582   5.531   1.371  14.177
18229SOL     OW56583  10.363   4.524   3.202
18229SOL    HW156584  10.371   4.463   3.129
18229SOL    HW256585  10.441   4.580   3.195
18230SOL     OW56586   5.647  14.561   2.933
18230SOL    HW156587   5.703  14.608   2.871
18230SOL    HW256588   5.705  14.498   2.975
18231SOL     OW56589  13.740  12.928   2.244
18231SOL    HW156590  13.678  12.876   2.192
18231SOL    HW256591  13.799  12.966   2.179
18232SOL     OW56592  11.913   6.584   0.102
18232SOL    HW156593  11.955   6.667   0.080
18232SOL    HW256594  11.973   6.541   0.163
18233SOL     OW56595   7.436   3.506   5.441
18233SOL    HW156596   7.482   3.477   5.520
18233SOL    HW256597   7.354   3.542   5.473
18234SOL     OW56598   0.797   3.340  10.101
18234SOL    HW156599   0.741   3.286  10.045
18234SOL    HW256600   0.878   3.351  10.051
18235SOL     OW56601   9.706  14.280  12.102
18235SOL    HW156602   9.683  14.221  12.174
18235SOL    HW256603   9.776  14.335  12.138
18236SOL     OW56604   0.513   4.017   8.046
18236SOL    HW156605   0.530   4.079   7.976
18236SOL    HW256606   0.574   3.945   8.030
18237SOL     OW56607  13.245  14.192   0.224
18237SOL    HW156608  13.263  14.101   0.198
18237SOL    HW256609  13.218  14.185   0.315
18238SOL     OW56610   7.144  11.407   1.676
18238SOL    HW156611   7.201  11.330   1.687
18238SOL    HW256612   7.137  11.418   1.582
18239SOL     OW56613   3.575  11.629   5.477
18239SOL    HW156614   3.556  11.710   5.525
18239SOL    HW256615   3.518  11.633   5.400
18240SOL     OW56616   3.653   4.710   1.275
18240SOL    HW156617   3.623   4.736   1.187
18240SOL    HW256618   3.672   4.793   1.318
18241SOL     OW56619  11.539   2.837  14.779
18241SOL    HW156620  11.452   2.810  14.806
18241SOL    HW256621  11.524   2.897  14.706
18242SOL     OW56622   4.529   7.600   9.108
18242SOL    HW156623   4.573   7.568   9.186
18242SOL    HW256624   4.440   7.620   9.137
18243SOL     OW56625   5.689   3.038  13.304
18243SOL    HW156626   5.721   3.128  13.316
18243SOL    HW256627   5.696   3.022  13.210
18244SOL     OW56628   1.750   1.319   5.527
18244SOL    HW156629   1.701   1.268   5.592
18244SOL    HW256630   1.708   1.298   5.444
18245SOL     OW56631   6.375   7.034   6.780
18245SOL    HW156632   6.366   7.090   6.858
18245SOL    HW256633   6.377   7.096   6.707
18246SOL     OW56634   0.053  12.739  12.291
18246SOL    HW156635  14.844  12.779  12.267
18246SOL    HW256636   0.078  12.782  12.372
18247SOL     OW56637  14.117  10.677   7.585
18247SOL    HW156638  14.136  10.690   7.678
18247SOL    HW256639  14.174  10.738   7.540
18248SOL     OW56640   2.196   8.558   9.749
18248SOL    HW156641   2.209   8.651   9.768
18248SOL    HW256642   2.102   8.545   9.756
18249SOL     OW56643   3.039   4.478   0.165
18249SOL    HW156644   2.954   4.474   0.209
18249SOL    HW256645   3.081   4.395   0.187
18250SOL     OW56646  14.337   3.166   4.785
18250SOL    HW156647  14.413   3.194   4.734
18250SOL    HW256648  14.299   3.247   4.818
18251SOL     OW56649   9.309   3.457   4.249
18251SOL    HW156650   9.339   3.371   4.278
18251SOL    HW256651   9.388   3.511   4.246
18252SOL     OW56652   6.470   8.220  12.944
18252SOL    HW156653   6.398   8.161  12.965
18252SOL    HW256654   6.430   8.307  12.937
18253SOL     OW56655   3.613  11.314   5.319
18253SOL    HW156656   3.640  11.224   5.335
18253SOL    HW256657   3.561  11.338   5.395
18254SOL     OW56658   4.908   7.129  10.808
18254SOL    HW156659   4.978   7.064  10.794
18254SOL    HW256660   4.910   7.182  10.729
18255SOL     OW56661   3.454   5.666   7.055
18255SOL    HW156662   3.411   5.671   6.969
18255SOL    HW256663   3.516   5.594   7.047
18256SOL     OW56664   9.649  10.399  13.459
18256SOL    HW156665   9.619  10.336  13.524
18256SOL    HW256666   9.714  10.351  13.407
18257SOL     OW56667   3.379  11.757   3.017
18257SOL    HW156668   3.393  11.715   3.102
18257SOL    HW256669   3.455  11.732   2.965
18258SOL     OW56670   9.733   0.029  13.752
18258SOL    HW156671   9.825   0.053  13.744
18258SOL    HW256672   9.725  14.866  13.839
18259SOL     OW56673   4.563   6.803   1.587
18259SOL    HW156674   4.566   6.893   1.555
18259SOL    HW256675   4.616   6.804   1.667
18260SOL     OW56676  12.080   8.111  10.142
18260SOL    HW156677  12.074   8.181  10.207
18260SOL    HW256678  12.026   8.141  10.069
18261SOL     OW56679   3.915  11.991   7.408
18261SOL    HW156680   3.987  11.940   7.372
18261SOL    HW256681   3.906  12.066   7.348
18262SOL     OW56682   6.473   1.933   1.618
18262SOL    HW156683   6.464   1.855   1.673
18262SOL    HW256684   6.538   1.987   1.663
18263SOL     OW56685  14.785   7.786   7.240
18263SOL    HW156686  14.705   7.743   7.210
18263SOL    HW256687  14.814   7.837   7.164
18264SOL     OW56688   5.052  12.754   2.678
18264SOL    HW156689   4.998  12.723   2.605
18264SOL    HW256690   5.025  12.699   2.752
18265SOL     OW56691  11.826   6.202   4.505
18265SOL    HW156692  11.904   6.147   4.505
18265SOL    HW256693  11.778   6.175   4.584
18266SOL     OW56694  13.821   5.442   6.314
18266SOL    HW156695  13.759   5.400   6.254
18266SOL    HW256696  13.880   5.371   6.340
18267SOL     OW56697   4.483   4.069   1.103
18267SOL    HW156698   4.562   4.072   1.049
18267SOL    HW256699   4.430   4.000   1.065
18268SOL     OW56700   6.370   2.642   1.805
18268SOL    HW156701   6.433   2.652   1.734
18268SOL    HW256702   6.422   2.612   1.879
18269SOL     OW56703   1.807   7.958   2.614
18269SOL    HW156704   1.725   8.004   2.597
18269SOL    HW256705   1.872   8.004   2.561
18270SOL     OW56706  10.182   5.851   1.352
18270SOL    HW156707  10.138   5.925   1.394
18270SOL    HW256708  10.120   5.821   1.285
18271SOL     OW56709   9.168   6.989   2.101
18271SOL    HW156710   9.255   6.962   2.069
18271SOL    HW256711   9.107   6.934   2.052
18272SOL     OW56712   4.109  12.319  10.877
18272SOL    HW156713   4.191  12.271  10.870
18272SOL    HW256714   4.135  12.411  10.880
18273SOL     OW56715   7.800   8.593   6.934
18273SOL    HW156716   7.789   8.688   6.928
18273SOL    HW256717   7.781   8.572   7.026
18274SOL     OW56718   9.904   4.846  12.932
18274SOL    HW156719   9.864   4.855  12.846
18274SOL    HW256720   9.994   4.817  12.914
18275SOL     OW56721  10.679   3.777  13.835
18275SOL    HW156722  10.724   3.706  13.789
18275SOL    HW256723  10.690   3.757  13.927
18276SOL     OW56724   2.937  10.022   2.328
18276SOL    HW156725   2.996  10.035   2.403
18276SOL    HW256726   2.986   9.965   2.269
18277SOL     OW56727   7.661   8.391  10.921
18277SOL    HW156728   7.573   8.380  10.957
18277SOL    HW256729   7.649   8.451  10.847
18278SOL     OW56730  10.753   7.602   8.693
18278SOL    HW156731  10.813   7.528   8.699
18278SOL    HW256732  10.735   7.611   8.599
18279SOL     OW56733   7.156  14.745   6.233
18279SOL    HW156734   7.200  14.806   6.174
18279SOL    HW256735   7.128  14.798   6.307
18280SOL     OW56736   8.681   0.522  10.442
18280SOL    HW156737   8.761   0.524  10.389
18280SOL    HW256738   8.710   0.538  10.531
18281SOL     OW56739   4.279   2.418   2.142
18281SOL    HW156740   4.291   2.408   2.048
18281SOL    HW256741   4.221   2.346   2.167
18282SOL     OW56742   0.452   8.153  11.648
18282SOL    HW156743   0.430   8.071  11.604
18282SOL    HW256744   0.444   8.133  11.741
18283SOL     OW56745   9.985   5.322   4.382
18283SOL    HW156746   9.944   5.327   4.468
18283SOL    HW256747   9.981   5.229   4.358
18284SOL     OW56748   3.689  10.801   3.325
18284SOL    HW156749   3.642  10.746   3.263
18284SOL    HW256750   3.680  10.755   3.409
18285SOL     OW56751   8.181   6.050   0.708
18285SOL    HW156752   8.270   6.085   0.712
18285SOL    HW256753   8.127   6.126   0.685
18286SOL     OW56754  13.659   8.216   2.750
18286SOL    HW156755  13.600   8.249   2.818
18286SOL    HW256756  13.655   8.282   2.681
18287SOL     OW56757  10.623  13.828   4.938
18287SOL    HW156758  10.605  13.755   4.878
18287SOL    HW256759  10.648  13.786   5.020
18288SOL     OW56760   9.133  14.776  12.529
18288SOL    HW156761   9.120  14.854  12.476
18288SOL    HW256762   9.202  14.800  12.591
18289SOL     OW56763   8.353   8.300   2.701
18289SOL    HW156764   8.408   8.260   2.633
18289SOL    HW256765   8.307   8.371   2.656
18290SOL     OW56766  12.620   2.876   9.463
18290SOL    HW156767  12.582   2.818   9.530
18290SOL    HW256768  12.565   2.862   9.386
18291SOL     OW56769   0.217  11.860   3.064
18291SOL    HW156770   0.165  11.781   3.080
18291SOL    HW256771   0.188  11.890   2.978
18292SOL     OW56772   4.562  11.163   4.404
18292SOL    HW156773   4.567  11.123   4.317
18292SOL    HW256774   4.475  11.202   4.408
18293SOL     OW56775  12.930   2.173  11.566
18293SOL    HW156776  12.913   2.197  11.475
18293SOL    HW256777  12.908   2.080  11.571
18294SOL     OW56778   5.061   5.755   5.467
18294SOL    HW156779   5.037   5.845   5.446
18294SOL    HW256780   5.063   5.710   5.383
18295SOL     OW56781   8.734   6.890   5.510
18295SOL    HW156782   8.681   6.916   5.585
18295SOL    HW256783   8.802   6.957   5.503
18296SOL     OW56784   1.941   5.592   2.595
18296SOL    HW156785   1.959   5.532   2.667
18296SOL    HW256786   1.846   5.593   2.587
18297SOL     OW56787   7.744   3.824   5.596
18297SOL    HW156788   7.831   3.851   5.626
18297SOL    HW256789   7.717   3.755   5.657
18298SOL     OW56790  10.278   9.472   8.422
18298SOL    HW156791  10.356   9.417   8.423
18298SOL    HW256792  10.294   9.536   8.353
18299SOL     OW56793   8.559   1.300   5.379
18299SOL    HW156794   8.622   1.255   5.437
18299SOL    HW256795   8.614   1.359   5.327
18300SOL     OW56796   0.279   9.206   5.297
18300SOL    HW156797   0.271   9.134   5.359
18300SOL    HW256798   0.226   9.276   5.335
18301SOL     OW56799   9.546   8.472   5.753
18301SOL    HW156800   9.522   8.380   5.754
18301SOL    HW256801   9.604   8.481   5.677
18302SOL     OW56802   7.517   8.722  11.550
18302SOL    HW156803   7.490   8.746  11.462
18302SOL    HW256804   7.570   8.644  11.539
18303SOL     OW56805  14.568   3.195   6.983
18303SOL    HW156806  14.577   3.107   7.019
18303SOL    HW256807  14.486   3.228   7.020
18304SOL     OW56808   2.619   3.677   3.907
18304SOL    HW156809   2.690   3.693   3.845
18304SOL    HW256810   2.542   3.718   3.866
18305SOL     OW56811   6.583   6.636  13.679
18305SOL    HW156812   6.488   6.628  13.668
18305SOL    HW256813   6.600   6.730  13.673
18306SOL     OW56814   5.285   7.955   3.979
18306SOL    HW156815   5.190   7.952   3.978
18306SOL    HW256816   5.309   7.929   4.068
18307SOL     OW56817   3.876   7.520   7.965
18307SOL    HW156818   3.834   7.436   7.980
18307SOL    HW256819   3.803   7.581   7.952
18308SOL     OW56820  13.434  10.159  12.977
18308SOL    HW156821  13.518  10.141  12.936
18308SOL    HW256822  13.432  10.103  13.055
18309SOL     OW56823  10.575   9.839  10.349
18309SOL    HW156824  10.564   9.858  10.256
18309SOL    HW256825  10.556   9.746  10.358
18310SOL     OW56826  14.023  13.358  14.150
18310SOL    HW156827  13.986  13.424  14.208
18310SOL    HW256828  14.112  13.387  14.133
18311SOL     OW56829  13.476   1.640   5.277
18311SOL    HW156830  13.476   1.569   5.213
18311SOL    HW256831  13.391   1.634   5.320
18312SOL     OW56832   3.277   5.293  12.819
18312SOL    HW156833   3.199   5.344  12.840
18312SOL    HW256834   3.279   5.292  12.723
18313SOL     OW56835  13.336  12.769   7.491
18313SOL    HW156836  13.269  12.704   7.513
18313SOL    HW256837  13.311  12.801   7.405
18314SOL     OW56838  11.249   2.581   0.336
18314SOL    HW156839  11.334   2.583   0.293
18314SOL    HW256840  11.193   2.531   0.277
18315SOL     OW56841  10.527   9.838  14.279
18315SOL    HW156842  10.445   9.838  14.330
18315SOL    HW256843  10.498   9.838  14.188
18316SOL     OW56844   8.967   3.083   2.591
18316SOL    HW156845   9.021   3.059   2.666
18316SOL    HW256846   9.021   3.146   2.542
18317SOL     OW56847   5.310   6.520  10.499
18317SOL    HW156848   5.291   6.441  10.448
18317SOL    HW256849   5.359   6.489  10.575
18318SOL     OW56850   9.883   5.113   0.701
18318SOL    HW156851   9.806   5.103   0.757
18318SOL    HW256852   9.862   5.189   0.647
18319SOL     OW56853  10.776   2.898   1.418
18319SOL    HW156854  10.719   2.947   1.478
18319SOL    HW256855  10.804   2.822   1.469
18320SOL     OW56856   1.091  10.017   3.253
18320SOL    HW156857   1.075  10.108   3.228
18320SOL    HW256858   1.095  10.019   3.349
18321SOL     OW56859   4.092   5.192  12.056
18321SOL    HW156860   4.142   5.113  12.035
18321SOL    HW256861   4.080   5.188  12.151
18322SOL     OW56862   3.646   9.548  11.214
18322SOL    HW156863   3.571   9.592  11.174
18322SOL    HW256864   3.722   9.579  11.164
18323SOL     OW56865   0.649   8.092  14.806
18323SOL    HW156866   0.648   8.101  14.710
18323SOL    HW256867   0.574   8.037  14.826
18324SOL     OW56868   1.940   5.552   5.231
18324SOL    HW156869   2.021   5.503   5.214
18324SOL    HW256870   1.878   5.486   5.262
18325SOL     OW56871   4.340   8.258  10.019
18325SOL    HW156872   4.310   8.226   9.935
18325SOL    HW256873   4.413   8.201  10.042
18326SOL     OW56874   4.404   3.855   4.728
18326SOL    HW156875   4.319   3.831   4.690
18326SOL    HW256876   4.452   3.772   4.733
18327SOL     OW56877  14.860   8.395   6.279
18327SOL    HW156878  14.868   8.363   6.368
18327SOL    HW256879  14.808   8.476   6.287
18328SOL     OW56880  14.017   3.791   7.946
18328SOL    HW156881  14.071   3.843   8.006
18328SOL    HW256882  13.957   3.744   8.003
18329SOL     OW56883  11.990   7.370  10.160
18329SOL    HW156884  12.063   7.350  10.100
18329SOL    HW256885  11.914   7.381  10.102
18330SOL     OW56886   8.900   9.055   7.188
18330SOL    HW156887   8.902   9.147   7.218
18330SOL    HW256888   8.847   9.057   7.109
18331SOL     OW56889   9.514  14.101   8.748
18331SOL    HW156890   9.437  14.044   8.758
18331SOL    HW256891   9.483  14.174   8.695
18332SOL     OW56892   4.382   8.006   7.268
18332SOL    HW156893   4.366   7.950   7.344
18332SOL    HW256894   4.335   8.087   7.287
18333SOL     OW56895  13.155   4.948   9.906
18333SOL    HW156896  13.248   4.967   9.915
18333SOL    HW256897  13.141   4.938   9.812
18334SOL     OW56898  14.076  11.108   7.361
18334SOL    HW156899  14.013  11.130   7.293
18334SOL    HW256900  14.030  11.042   7.414
18335SOL     OW56901  10.362   8.193   3.961
18335SOL    HW156902  10.384   8.174   3.869
18335SOL    HW256903  10.371   8.109   4.005
18336SOL     OW56904   6.820   5.136  12.681
18336SOL    HW156905   6.781   5.172  12.760
18336SOL    HW256906   6.745   5.104  12.630
18337SOL     OW56907  12.307   7.550  13.629
18337SOL    HW156908  12.215   7.562  13.653
18337SOL    HW256909  12.320   7.456  13.631
18338SOL     OW56910  13.277   1.002   0.056
18338SOL    HW156911  13.359   0.983   0.011
18338SOL    HW256912  13.304   1.036   0.141
18339SOL     OW56913   4.049  10.447   0.970
18339SOL    HW156914   4.127  10.466   0.918
18339SOL    HW256915   4.082  10.428   1.058
18340SOL     OW56916  12.651  10.965   9.752
18340SOL    HW156917  12.673  11.019   9.829
18340SOL    HW256918  12.654  10.875   9.785
18341SOL     OW56919  10.328   6.198   3.249
18341SOL    HW156920  10.295   6.264   3.310
18341SOL    HW256921  10.250   6.161   3.209
18342SOL     OW56922   9.140  13.856  14.050
18342SOL    HW156923   9.207  13.823  14.109
18342SOL    HW256924   9.090  13.779  14.024
18343SOL     OW56925   7.751  12.451  12.198
18343SOL    HW156926   7.774  12.468  12.107
18343SOL    HW256927   7.688  12.379  12.193
18344SOL     OW56928  13.254  14.493   3.966
18344SOL    HW156929  13.197  14.479   4.041
18344SOL    HW256930  13.308  14.568   3.992
18345SOL     OW56931   2.438   1.249   3.491
18345SOL    HW156932   2.468   1.173   3.441
18345SOL    HW256933   2.365   1.215   3.544
18346SOL     OW56934  13.088   6.236  11.732
18346SOL    HW156935  13.082   6.199  11.820
18346SOL    HW256936  13.142   6.314  11.742
18347SOL     OW56937  13.890   5.277   0.091
18347SOL    HW156938  13.821   5.252   0.030
18347SOL    HW256939  13.870   5.229   0.171
18348SOL     OW56940   0.497   7.032   1.167
18348SOL    HW156941   0.562   7.007   1.102
18348SOL    HW256942   0.521   7.121   1.193
18349SOL     OW56943   1.721  13.252   9.405
18349SOL    HW156944   1.725  13.345   9.427
18349SOL    HW256945   1.635  13.241   9.364
18350SOL     OW56946  13.223  11.413   1.551
18350SOL    HW156947  13.177  11.474   1.493
18350SOL    HW256948  13.311  11.407   1.514
18351SOL     OW56949   4.709   3.582   1.312
18351SOL    HW156950   4.709   3.489   1.330
18351SOL    HW256951   4.787   3.597   1.259
18352SOL     OW56952  13.493   7.829   1.327
18352SOL    HW156953  13.418   7.889   1.332
18352SOL    HW256954  13.493   7.784   1.411
18353SOL     OW56955   0.459   7.399  13.312
18353SOL    HW156956   0.531   7.348  13.274
18353SOL    HW256957   0.497   7.439  13.390
18354SOL     OW56958  14.577   6.853   0.169
18354SOL    HW156959  14.510   6.815   0.113
18354SOL    HW256960  14.591   6.941   0.133
18355SOL     OW56961  12.770   5.800   0.919
18355SOL    HW156962  12.754   5.872   0.980
18355SOL    HW256963  12.742   5.722   0.968
18356SOL     OW56964   0.101   6.170   3.838
18356SOL    HW156965   0.039   6.098   3.837
18356SOL    HW256966   0.116   6.190   3.745
18357SOL     OW56967   7.468   3.707  12.710
18357SOL    HW156968   7.455   3.714  12.616
18357SOL    HW256969   7.517   3.786  12.734
18358SOL     OW56970  12.376   3.189   0.529
18358SOL    HW156971  12.461   3.165   0.567
18358SOL    HW256972  12.382   3.283   0.515
18359SOL     OW56973   1.902  13.634   7.551
18359SOL    HW156974   1.965  13.563   7.540
18359SOL    HW256975   1.955  13.713   7.555
18360SOL     OW56976   7.548  13.101   9.686
18360SOL    HW156977   7.594  13.084   9.603
18360SOL    HW256978   7.510  13.188   9.675
18361SOL     OW56979   0.695  13.774  12.298
18361SOL    HW156980   0.628  13.706  12.305
18361SOL    HW256981   0.707  13.806  12.387
18362SOL     OW56982  13.153   1.106   2.369
18362SOL    HW156983  13.085   1.044   2.396
18362SOL    HW256984  13.136   1.185   2.421
18363SOL     OW56985  10.359   4.465  13.874
18363SOL    HW156986  10.392   4.460  13.784
18363SOL    HW256987  10.417   4.529  13.917
18364SOL     OW56988   1.830   7.039   5.107
18364SOL    HW156989   1.819   7.029   5.012
18364SOL    HW256990   1.893   6.971   5.131
18365SOL     OW56991   3.474  13.192   0.155
18365SOL    HW156992   3.428  13.206   0.072
18365SOL    HW256993   3.566  13.185   0.131
18366SOL     OW56994  14.790   4.696  13.433
18366SOL    HW156995  14.699   4.701  13.461
18366SOL    HW256996  14.827   4.624  13.486
18367SOL     OW56997   0.118   3.369  13.665
18367SOL    HW156998   0.210   3.351  13.645
18367SOL    HW256999   0.120   3.415  13.748
18368SOL     OW57000  14.542   9.662  11.114
18368SOL    HW157001  14.525   9.693  11.025
18368SOL    HW257002  14.633   9.686  11.131
18369SOL     OW57003  11.147   8.959   2.649
18369SOL    HW157004  11.202   9.030   2.683
18369SOL    HW257005  11.101   8.998   2.575
18370SOL     OW57006   7.865   1.879   8.514
18370SOL    HW157007   7.896   1.930   8.440
18370SOL    HW257008   7.881   1.935   8.590
18371SOL     OW57009  10.222   9.303   0.331
18371SOL    HW157010  10.129   9.317   0.313
18371SOL    HW257011  10.265   9.315   0.246
18372SOL     OW57012   1.510   2.103   9.221
18372SOL    HW157013   1.508   2.107   9.317
18372SOL    HW257014   1.459   2.026   9.199
18373SOL     OW57015   7.082   9.324   7.353
18373SOL    HW157016   7.105   9.414   7.330
18373SOL    HW257017   7.110   9.273   7.276
18374SOL     OW57018   6.169   4.288   1.257
18374SOL    HW157019   6.255   4.250   1.239
18374SOL    HW257020   6.169   4.304   1.351
18375SOL     OW57021  14.099   3.914   1.183
18375SOL    HW157022  14.057   3.998   1.166
18375SOL    HW257023  14.038   3.849   1.147
18376SOL     OW57024   8.693   1.399   1.370
18376SOL    HW157025   8.634   1.453   1.423
18376SOL    HW257026   8.652   1.395   1.284
18377SOL     OW57027   4.956  14.457  14.726
18377SOL    HW157028   5.030  14.414  14.684
18377SOL    HW257029   4.986  14.475  14.815
18378SOL     OW57030   8.577  13.402   1.035
18378SOL    HW157031   8.557  13.330   0.975
18378SOL    HW257032   8.653  13.371   1.084
18379SOL     OW57033  13.382   3.253   9.704
18379SOL    HW157034  13.386   3.166   9.746
18379SOL    HW257035  13.317   3.244   9.635
18380SOL     OW57036   0.446  12.475  14.172
18380SOL    HW157037   0.446  12.457  14.266
18380SOL    HW257038   0.353  12.477  14.148
18381SOL     OW57039  10.134  13.079   6.728
18381SOL    HW157040  10.187  13.078   6.648
18381SOL    HW257041  10.195  13.053   6.797
18382SOL     OW57042   1.414   5.177   4.600
18382SOL    HW157043   1.425   5.166   4.694
18382SOL    HW257044   1.321   5.161   4.584
18383SOL     OW57045  11.780   9.160   4.265
18383SOL    HW157046  11.806   9.252   4.265
18383SOL    HW257047  11.852   9.115   4.309
18384SOL     OW57048  12.961   8.523   5.732
18384SOL    HW157049  12.878   8.569   5.722
18384SOL    HW257050  12.961   8.494   5.824
18385SOL     OW57051  11.557   7.889  13.673
18385SOL    HW157052  11.536   7.833  13.598
18385SOL    HW257053  11.478   7.942  13.685
18386SOL     OW57054   1.634   4.519   6.369
18386SOL    HW157055   1.704   4.558   6.421
18386SOL    HW257056   1.665   4.523   6.279
18387SOL     OW57057   1.516   0.975  12.180
18387SOL    HW157058   1.437   0.949  12.134
18387SOL    HW257059   1.527   0.908  12.248
18388SOL     OW57060   6.026   8.613  10.965
18388SOL    HW157061   6.092   8.598  11.032
18388SOL    HW257062   6.069   8.589  10.883
18389SOL     OW57063   4.834   7.995   8.919
18389SOL    HW157064   4.920   8.015   8.957
18389SOL    HW257065   4.798   7.928   8.977
18390SOL     OW57066   3.069   1.686   4.528
18390SOL    HW157067   3.044   1.681   4.620
18390SOL    HW257068   3.131   1.758   4.523
18391SOL     OW57069   7.964  11.766   0.588
18391SOL    HW157070   8.028  11.829   0.554
18391SOL    HW257071   7.899  11.757   0.518
18392SOL     OW57072   5.553   3.531  13.959
18392SOL    HW157073   5.458   3.522  13.972
18392SOL    HW257074   5.571   3.623  13.977
18393SOL     OW57075   2.018   3.013  12.215
18393SOL    HW157076   1.951   3.050  12.157
18393SOL    HW257077   1.997   2.920  12.218
18394SOL     OW57078   8.732   0.606   4.965
18394SOL    HW157079   8.714   0.695   4.935
18394SOL    HW257080   8.646   0.570   4.987
18395SOL     OW57081  10.160  13.893   4.095
18395SOL    HW157082  10.075  13.858   4.121
18395SOL    HW257083  10.223  13.841   4.146
18396SOL     OW57084   3.349   2.782   9.452
18396SOL    HW157085   3.309   2.790   9.538
18396SOL    HW257086   3.442   2.802   9.467
18397SOL     OW57087   6.554   3.900   4.307
18397SOL    HW157088   6.608   3.854   4.371
18397SOL    HW257089   6.576   3.992   4.317
18398SOL     OW57090   5.927  14.608  12.166
18398SOL    HW157091   5.893  14.636  12.081
18398SOL    HW257092   5.911  14.514  12.168
18399SOL     OW57093  11.586   1.062   8.077
18399SOL    HW157094  11.495   1.039   8.094
18399SOL    HW257095  11.591   1.156   8.094
18400SOL     OW57096   2.017   7.379   3.649
18400SOL    HW157097   1.953   7.308   3.659
18400SOL    HW257098   1.965   7.455   3.624
18401SOL     OW57099   8.062   2.864   4.164
18401SOL    HW157100   8.115   2.927   4.114
18401SOL    HW257101   8.062   2.785   4.110
18402SOL     OW57102   3.424   0.620   3.561
18402SOL    HW157103   3.439   0.714   3.553
18402SOL    HW257104   3.495   0.589   3.617
18403SOL     OW57105   4.406   7.079   7.996
18403SOL    HW157106   4.342   7.033   7.943
18403SOL    HW257107   4.361   7.098   8.078
18404SOL     OW57108  13.576   6.708   3.758
18404SOL    HW157109  13.602   6.786   3.807
18404SOL    HW257110  13.488   6.687   3.790
18405SOL     OW57111  13.856   5.003  14.095
18405SOL    HW157112  13.889   4.915  14.113
18405SOL    HW257113  13.850   5.045  14.181
18406SOL     OW57114  10.353   4.162   1.246
18406SOL    HW157115  10.384   4.097   1.183
18406SOL    HW257116  10.258   4.166   1.231
18407SOL     OW57117   2.382  12.151   7.220
18407SOL    HW157118   2.421  12.090   7.157
18407SOL    HW257119   2.437  12.143   7.298
18408SOL     OW57120   7.249  13.981   1.995
18408SOL    HW157121   7.194  14.040   1.944
18408SOL    HW257122   7.188  13.934   2.051
18409SOL     OW57123   4.287   1.814   3.645
18409SOL    HW157124   4.363   1.765   3.675
18409SOL    HW257125   4.296   1.819   3.550
18410SOL     OW57126  11.920   8.651   6.170
18410SOL    HW157127  11.881   8.567   6.195
18410SOL    HW257128  11.976   8.631   6.095
18411SOL     OW57129   6.593   0.814   4.556
18411SOL    HW157130   6.560   0.893   4.512
18411SOL    HW257131   6.650   0.847   4.625
18412SOL     OW57132   8.028   5.222   2.967
18412SOL    HW157133   8.103   5.203   2.910
18412SOL    HW257134   7.961   5.256   2.908
18413SOL     OW57135   6.438  12.898  10.093
18413SOL    HW157136   6.486  12.975  10.124
18413SOL    HW257137   6.437  12.908   9.997
18414SOL     OW57138   8.094   9.837  13.098
18414SOL    HW157139   8.042   9.776  13.045
18414SOL    HW257140   8.042   9.852  13.177
18415SOL     OW57141   9.440   8.119  13.654
18415SOL    HW157142   9.422   8.159  13.568
18415SOL    HW257143   9.530   8.145  13.673
18416SOL     OW57144   0.243  14.432  12.900
18416SOL    HW157145   0.334  14.402  12.908
18416SOL    HW257146   0.250  14.523  12.873
18417SOL     OW57147  13.026   9.593   2.032
18417SOL    HW157148  13.082   9.565   2.104
18417SOL    HW257149  13.048   9.685   2.018
18418SOL     OW57150   0.655   4.231   8.721
18418SOL    HW157151   0.575   4.284   8.728
18418SOL    HW257152   0.626   4.151   8.678
18419SOL     OW57153   0.516   9.474   3.923
18419SOL    HW157154   0.577   9.522   3.978
18419SOL    HW257155   0.524   9.515   3.837
18420SOL     OW57156   7.062  13.099   3.436
18420SOL    HW157157   7.121  13.062   3.370
18420SOL    HW257158   7.091  13.189   3.447
18421SOL     OW57159   3.219   7.837   9.594
18421SOL    HW157160   3.216   7.795   9.508
18421SOL    HW257161   3.128   7.850   9.618
18422SOL     OW57162   3.406   6.015  10.881
18422SOL    HW157163   3.352   6.015  10.802
18422SOL    HW257164   3.386   5.932  10.924
18423SOL     OW57165  14.537   1.642   7.074
18423SOL    HW157166  14.603   1.707   7.050
18423SOL    HW257167  14.586   1.561   7.083
18424SOL     OW57168   2.178  10.571   9.190
18424SOL    HW157169   2.247  10.520   9.233
18424SOL    HW257170   2.194  10.661   9.218
18425SOL     OW57171   7.590   0.290   8.852
18425SOL    HW157172   7.588   0.208   8.902
18425SOL    HW257173   7.505   0.293   8.809
18426SOL     OW57174  10.803   6.328  12.360
18426SOL    HW157175  10.754   6.378  12.295
18426SOL    HW257176  10.751   6.336  12.440
18427SOL     OW57177   0.321   4.598   0.884
18427SOL    HW157178   0.386   4.601   0.813
18427SOL    HW257179   0.259   4.667   0.863
18428SOL     OW57180  11.916  10.533   3.136
18428SOL    HW157181  11.937  10.529   3.042
18428SOL    HW257182  11.929  10.625   3.159
18429SOL     OW57183   2.193   4.396   2.550
18429SOL    HW157184   2.175   4.359   2.636
18429SOL    HW257185   2.265   4.458   2.565
18430SOL     OW57186   9.165   5.500  11.881
18430SOL    HW157187   9.073   5.500  11.904
18430SOL    HW257188   9.176   5.577  11.825
18431SOL     OW57189  13.159  14.245   2.132
18431SOL    HW157190  13.175  14.215   2.221
18431SOL    HW257191  13.212  14.187   2.077
18432SOL     OW57192  12.305   0.361   7.023
18432SOL    HW157193  12.380   0.322   6.978
18432SOL    HW257194  12.341   0.397   7.104
18433SOL     OW57195   1.861  13.656   6.173
18433SOL    HW157196   1.828  13.566   6.183
18433SOL    HW257197   1.849  13.695   6.260
18434SOL     OW57198  12.692   1.056  13.891
18434SOL    HW157199  12.765   1.118  13.891
18434SOL    HW257200  12.709   0.999  13.816
18435SOL     OW57201   0.346   5.594  13.044
18435SOL    HW157202   0.426   5.562  13.086
18435SOL    HW257203   0.348   5.688  13.058
18436SOL     OW57204  14.461   5.308  13.241
18436SOL    HW157205  14.520   5.383  13.244
18436SOL    HW257206  14.404   5.319  13.317
18437SOL     OW57207   7.005   2.039   4.771
18437SOL    HW157208   7.043   2.124   4.752
18437SOL    HW257209   7.074   1.992   4.819
18438SOL     OW57210   9.673   6.516   6.907
18438SOL    HW157211   9.621   6.477   6.836
18438SOL    HW257212   9.630   6.487   6.987
18439SOL     OW57213   1.763  14.608   7.445
18439SOL    HW157214   1.774  14.639   7.535
18439SOL    HW257215   1.670  14.586   7.438
18440SOL     OW57216   2.521   5.376  12.882
18440SOL    HW157217   2.463   5.447  12.855
18440SOL    HW257218   2.609   5.409  12.867
18441SOL     OW57219   7.294   2.434  12.568
18441SOL    HW157220   7.300   2.339  12.568
18441SOL    HW257221   7.246   2.456  12.647
18442SOL     OW57222   7.023  13.114   2.269
18442SOL    HW157223   7.032  13.116   2.364
18442SOL    HW257224   7.076  13.039   2.241
18443SOL     OW57225   7.090   5.350   4.533
18443SOL    HW157226   7.154   5.399   4.482
18443SOL    HW257227   7.038   5.303   4.468
18444SOL     OW57228   1.811   2.970   8.345
18444SOL    HW157229   1.781   2.882   8.366
18444SOL    HW257230   1.877   2.957   8.276
18445SOL     OW57231  11.218   0.051   9.131
18445SOL    HW157232  11.152   0.113   9.163
18445SOL    HW257233  11.291   0.106   9.102
18446SOL     OW57234   9.790   2.130   1.886
18446SOL    HW157235   9.808   2.087   1.802
18446SOL    HW257236   9.766   2.219   1.862
18447SOL     OW57237  10.969  11.661  13.217
18447SOL    HW157238  11.041  11.710  13.257
18447SOL    HW257239  10.955  11.703  13.132
18448SOL     OW57240   5.925  10.429   8.693
18448SOL    HW157241   5.861  10.475   8.639
18448SOL    HW257242   5.872  10.366   8.743
18449SOL     OW57243  13.892  13.197  10.320
18449SOL    HW157244  13.883  13.205  10.415
18449SOL    HW257245  13.845  13.273  10.285
18450SOL     OW57246   2.717   7.648  12.965
18450SOL    HW157247   2.624   7.668  12.953
18450SOL    HW257248   2.728   7.561  12.926
18451SOL     OW57249   9.007   9.485  12.672
18451SOL    HW157250   9.045   9.403  12.640
18451SOL    HW257251   9.081   9.531  12.713
18452SOL     OW57252   7.428   4.902   0.422
18452SOL    HW157253   7.399   4.820   0.380
18452SOL    HW257254   7.361   4.920   0.488
18453SOL     OW57255   0.816   7.025   3.783
18453SOL    HW157256   0.869   7.085   3.731
18453SOL    HW257257   0.849   6.938   3.761
18454SOL     OW57258   8.179   7.740   8.551
18454SOL    HW157259   8.230   7.734   8.632
18454SOL    HW257260   8.244   7.741   8.481
18455SOL     OW57261  10.354   8.466   9.245
18455SOL    HW157262  10.395   8.533   9.301
18455SOL    HW257263  10.262   8.469   9.268
18456SOL     OW57264  11.404   5.408   8.327
18456SOL    HW157265  11.451   5.348   8.385
18456SOL    HW257266  11.347   5.351   8.275
18457SOL     OW57267  12.113   3.803   3.152
18457SOL    HW157268  12.149   3.858   3.221
18457SOL    HW257269  12.163   3.827   3.074
18458SOL     OW57270   4.940  11.921   3.563
18458SOL    HW157271   5.019  11.965   3.534
18458SOL    HW257272   4.870  11.960   3.511
18459SOL     OW57273   9.215   6.920  13.197
18459SOL    HW157274   9.273   6.935  13.122
18459SOL    HW257275   9.134   6.886  13.159
18460SOL     OW57276   5.784   8.328  10.378
18460SOL    HW157277   5.706   8.280  10.406
18460SOL    HW257278   5.849   8.311  10.445
18461SOL     OW57279   1.761  12.656   4.820
18461SOL    HW157280   1.833  12.719   4.819
18461SOL    HW257281   1.752  12.631   4.912
18462SOL     OW57282   4.450   1.404   9.035
18462SOL    HW157283   4.481   1.490   9.063
18462SOL    HW257284   4.473   1.400   8.942
18463SOL     OW57285   9.405   9.202  14.485
18463SOL    HW157286   9.312   9.182  14.472
18463SOL    HW257287   9.443   9.119  14.512
18464SOL     OW57288   7.937   7.114  10.393
18464SOL    HW157289   7.858   7.081  10.436
18464SOL    HW257290   7.963   7.044  10.334
18465SOL     OW57291   4.592  13.434  13.265
18465SOL    HW157292   4.578  13.346  13.229
18465SOL    HW257293   4.543  13.435  13.346
18466SOL     OW57294   7.900   2.321  13.613
18466SOL    HW157295   7.889   2.312  13.518
18466SOL    HW257296   7.994   2.306  13.627
18467SOL     OW57297   7.336   4.800   7.733
18467SOL    HW157298   7.392   4.851   7.791
18467SOL    HW257299   7.359   4.709   7.752
18468SOL     OW57300   6.439   1.488   7.412
18468SOL    HW157301   6.401   1.442   7.337
18468SOL    HW257302   6.445   1.579   7.382
18469SOL     OW57303   5.826  14.851   9.703
18469SOL    HW157304   5.831  14.761   9.735
18469SOL    HW257305   5.818  14.843   9.608
18470SOL     OW57306   7.904  12.937   7.057
18470SOL    HW157307   7.976  12.969   7.002
18470SOL    HW257308   7.947  12.897   7.132
18471SOL     OW57309   5.459   6.099   5.223
18471SOL    HW157310   5.454   6.022   5.280
18471SOL    HW257311   5.514   6.071   5.150
18472SOL     OW57312   0.036  12.716   1.764
18472SOL    HW157313   0.127  12.746   1.764
18472SOL    HW257314   0.018  12.694   1.856
18473SOL     OW57315   6.521   5.788  10.504
18473SOL    HW157316   6.443   5.818  10.551
18473SOL    HW257317   6.593   5.804  10.565
18474SOL     OW57318   4.429  10.243  11.089
18474SOL    HW157319   4.436  10.316  11.027
18474SOL    HW257320   4.350  10.196  11.062
18475SOL     OW57321   2.744   9.877  11.515
18475SOL    HW157322   2.759   9.968  11.488
18475SOL    HW257323   2.650   9.865  11.509
18476SOL     OW57324   9.404   8.658   2.943
18476SOL    HW157325   9.456   8.727   2.985
18476SOL    HW257326   9.348   8.705   2.881
18477SOL     OW57327   4.299   2.792   9.996
18477SOL    HW157328   4.340   2.714   9.959
18477SOL    HW257329   4.229   2.815   9.934
18478SOL     OW57330   0.415   8.486  13.072
18478SOL    HW157331   0.383   8.537  12.997
18478SOL    HW257332   0.504   8.518  13.085
18479SOL     OW57333   4.069   4.246   1.267
18479SOL    HW157334   4.099   4.163   1.229
18479SOL    HW257335   4.146   4.302   1.268
18480SOL     OW57336   9.669   1.071   3.481
18480SOL    HW157337   9.701   1.050   3.393
18480SOL    HW257338   9.638   1.162   3.475
18481SOL     OW57339   7.531   0.388   9.557
18481SOL    HW157340   7.452   0.443   9.553
18481SOL    HW257341   7.603   0.451   9.554
18482SOL     OW57342   4.375  12.803   6.130
18482SOL    HW157343   4.370  12.865   6.202
18482SOL    HW257344   4.357  12.718   6.170
18483SOL     OW57345  11.446   0.952   9.642
18483SOL    HW157346  11.375   1.004   9.680
18483SOL    HW257347  11.407   0.910   9.566
18484SOL     OW57348  14.826  11.500   2.031
18484SOL    HW157349  14.779  11.449   2.097
18484SOL    HW257350  14.848  11.581   2.076
18485SOL     OW57351   3.767   5.465  11.480
18485SOL    HW157352   3.826   5.474  11.555
18485SOL    HW257353   3.685   5.431  11.517
18486SOL     OW57354   6.136   9.713  12.895
18486SOL    HW157355   6.148   9.762  12.977
18486SOL    HW257356   6.141   9.779  12.826
18487SOL     OW57357   3.707  11.120   0.468
18487SOL    HW157358   3.734  11.056   0.402
18487SOL    HW257359   3.747  11.090   0.549
18488SOL     OW57360   0.532  14.700  13.928
18488SOL    HW157361   0.524  14.634  13.859
18488SOL    HW257362   0.571  14.776  13.885
18489SOL     OW57363   4.188  13.871   8.519
18489SOL    HW157364   4.200  13.783   8.484
18489SOL    HW257365   4.094  13.888   8.508
18490SOL     OW57366   5.066   4.198  12.590
18490SOL    HW157367   5.126   4.270  12.570
18490SOL    HW257368   5.058   4.199  12.685
18491SOL     OW57369  11.707  13.422  11.692
18491SOL    HW157370  11.693  13.495  11.753
18491SOL    HW257371  11.619  13.387  11.676
18492SOL     OW57372  14.496  13.115  12.839
18492SOL    HW157373  14.498  13.083  12.929
18492SOL    HW257374  14.500  13.036  12.785
18493SOL     OW57375   0.774   7.741  14.832
18493SOL    HW157376   0.770   7.651  14.863
18493SOL    HW257377   0.781   7.794   0.037
18494SOL     OW57378  12.903   6.624   8.858
18494SOL    HW157379  12.809   6.641   8.859
18494SOL    HW257380  12.944   6.711   8.853
18495SOL     OW57381  14.528   4.716  10.894
18495SOL    HW157382  14.437   4.735  10.916
18495SOL    HW257383  14.548   4.636  10.944
18496SOL     OW57384   3.777  12.000  14.300
18496SOL    HW157385   3.709  12.021  14.364
18496SOL    HW257386   3.858  12.033  14.338
18497SOL     OW57387   7.669   3.077   5.577
18497SOL    HW157388   7.711   3.020   5.641
18497SOL    HW257389   7.732   3.147   5.563
18498SOL     OW57390  12.773  11.526   3.708
18498SOL    HW157391  12.807  11.599   3.657
18498SOL    HW257392  12.689  11.556   3.741
18499SOL     OW57393  13.128  10.274   9.725
18499SOL    HW157394  13.221  10.285   9.743
18499SOL    HW257395  13.085  10.295   9.807
18500SOL     OW57396   3.573   8.132   0.766
18500SOL    HW157397   3.659   8.176   0.765
18500SOL    HW257398   3.560   8.108   0.858
18501SOL     OW57399  11.158   6.259  12.092
18501SOL    HW157400  11.146   6.301  12.007
18501SOL    HW257401  11.092   6.189  12.093
18502SOL     OW57402   1.967   0.895   7.447
18502SOL    HW157403   1.905   0.836   7.405
18502SOL    HW257404   1.981   0.965   7.383
18503SOL     OW57405  12.920   1.189  11.806
18503SOL    HW157406  13.009   1.160  11.829
18503SOL    HW257407  12.876   1.109  11.778
18504SOL     OW57408   4.738   4.607   4.263
18504SOL    HW157409   4.702   4.544   4.327
18504SOL    HW257410   4.710   4.692   4.296
18505SOL     OW57411   8.674  12.499   8.795
18505SOL    HW157412   8.639  12.564   8.735
18505SOL    HW257413   8.610  12.428   8.793
18506SOL     OW57414  12.439   8.491  13.208
18506SOL    HW157415  12.522   8.495  13.257
18506SOL    HW257416  12.464   8.456  13.122
18507SOL     OW57417  12.050   9.180  14.420
18507SOL    HW157418  12.079   9.090  14.406
18507SOL    HW257419  11.956   9.173  14.434
18508SOL     OW57420   7.448   3.376   4.158
18508SOL    HW157421   7.433   3.420   4.242
18508SOL    HW257422   7.524   3.421   4.121
18509SOL     OW57423  13.930   5.512  13.602
18509SOL    HW157424  13.842   5.543  13.626
18509SOL    HW257425  13.989   5.565  13.655
18510SOL     OW57426   8.287  12.810  13.121
18510SOL    HW157427   8.256  12.809  13.212
18510SOL    HW257428   8.310  12.720  13.103
18511SOL     OW57429  10.126  10.096   3.307
18511SOL    HW157430  10.196  10.159   3.323
18511SOL    HW257431  10.128  10.037   3.382
18512SOL     OW57432   2.075   1.222   7.689
18512SOL    HW157433   2.146   1.245   7.629
18512SOL    HW257434   2.060   1.302   7.741
18513SOL     OW57435   4.571   0.620  10.959
18513SOL    HW157436   4.614   0.649  11.039
18513SOL    HW257437   4.642   0.597  10.899
18514SOL     OW57438   8.190   8.349   9.626
18514SOL    HW157439   8.264   8.338   9.685
18514SOL    HW257440   8.118   8.378   9.682
18515SOL     OW57441  11.472  13.009   5.999
18515SOL    HW157442  11.419  12.946   6.048
18515SOL    HW257443  11.462  13.091   6.047
18516SOL     OW57444   1.342  10.237   5.314
18516SOL    HW157445   1.339  10.331   5.302
18516SOL    HW257446   1.410  10.207   5.252
18517SOL     OW57447   7.536   8.957   7.393
18517SOL    HW157448   7.590   9.030   7.363
18517SOL    HW257449   7.550   8.889   7.328
18518SOL     OW57450   5.361   2.847   1.200
18518SOL    HW157451   5.305   2.837   1.123
18518SOL    HW257452   5.302   2.833   1.274
18519SOL     OW57453   4.183   0.096   4.842
18519SOL    HW157454   4.173   0.168   4.779
18519SOL    HW257455   4.114   0.034   4.819
18520SOL     OW57456  12.957   3.666   2.586
18520SOL    HW157457  12.923   3.619   2.663
18520SOL    HW257458  13.011   3.601   2.541
18521SOL     OW57459  14.274   7.435   0.500
18521SOL    HW157460  14.363   7.402   0.513
18521SOL    HW257461  14.243   7.456   0.588
18522SOL     OW57462   0.290   2.733   9.927
18522SOL    HW157463   0.359   2.721   9.992
18522SOL    HW257464   0.300   2.658   9.868
18523SOL     OW57465  10.427   8.006   9.225
18523SOL    HW157466  10.513   7.969   9.207
18523SOL    HW257467  10.370   7.930   9.234
18524SOL     OW57468   5.042  11.265   6.237
18524SOL    HW157469   5.060  11.248   6.145
18524SOL    HW257470   5.102  11.206   6.284
18525SOL     OW57471   5.095   1.967   0.316
18525SOL    HW157472   5.131   1.892   0.363
18525SOL    HW257473   5.169   2.002   0.267
18526SOL     OW57474  11.740   4.573  13.371
18526SOL    HW157475  11.658   4.594  13.416
18526SOL    HW257476  11.722   4.593  13.280
18527SOL     OW57477   5.114   8.375  10.835
18527SOL    HW157478   5.157   8.325  10.766
18527SOL    HW257479   5.031   8.403  10.797
18528SOL     OW57480  14.494   8.700   2.610
18528SOL    HW157481  14.422   8.757   2.583
18528SOL    HW257482  14.567   8.725   2.554
18529SOL     OW57483  12.240  14.679  13.779
18529SOL    HW157484  12.252  14.762  13.826
18529SOL    HW257485  12.146  14.673  13.763
18530SOL     OW57486  13.567   2.821  12.903
18530SOL    HW157487  13.473   2.840  12.901
18530SOL    HW257488  13.605   2.892  12.954
18531SOL     OW57489   7.277   5.647   2.779
18531SOL    HW157490   7.259   5.614   2.867
18531SOL    HW257491   7.237   5.734   2.777
18532SOL     OW57492  13.778   7.659   7.895
18532SOL    HW157493  13.794   7.752   7.912
18532SOL    HW257494  13.688   7.655   7.863
18533SOL     OW57495  13.547   9.902  13.720
18533SOL    HW157496  13.548   9.896  13.816
18533SOL    HW257497  13.572   9.992  13.702
18534SOL     OW57498  12.220   8.754  11.588
18534SOL    HW157499  12.312   8.754  11.613
18534SOL    HW257500  12.199   8.845  11.571
18535SOL     OW57501   1.783   1.753   3.458
18535SOL    HW157502   1.706   1.794   3.498
18535SOL    HW257503   1.780   1.779   3.366
18536SOL     OW57504   0.141   1.095   2.405
18536SOL    HW157505   0.217   1.058   2.449
18536SOL    HW257506   0.089   1.020   2.378
18537SOL     OW57507   3.627   4.600   2.068
18537SOL    HW157508   3.571   4.588   1.991
18537SOL    HW257509   3.566   4.616   2.140
18538SOL     OW57510  13.052  10.094   8.390
18538SOL    HW157511  12.998  10.074   8.467
18538SOL    HW257512  13.006  10.165   8.346
18539SOL     OW57513  10.806   4.430  10.855
18539SOL    HW157514  10.848   4.351  10.889
18539SOL    HW257515  10.754   4.399  10.781
18540SOL     OW57516  10.767  13.581  10.945
18540SOL    HW157517  10.755  13.538  11.029
18540SOL    HW257518  10.686  13.564  10.898
18541SOL     OW57519   5.401  14.691  12.124
18541SOL    HW157520   5.466  14.629  12.158
18541SOL    HW257521   5.384  14.750  12.198
18542SOL     OW57522  10.209  14.065   6.718
18542SOL    HW157523  10.119  14.098   6.724
18542SOL    HW257524  10.208  13.983   6.766
18543SOL     OW57525   8.945   4.677   5.577
18543SOL    HW157526   8.981   4.602   5.624
18543SOL    HW257527   8.914   4.736   5.646
18544SOL     OW57528   9.599   4.784   9.426
18544SOL    HW157529   9.542   4.827   9.490
18544SOL    HW257530   9.544   4.719   9.384
18545SOL     OW57531  11.309   1.735  12.840
18545SOL    HW157532  11.345   1.720  12.753
18545SOL    HW257533  11.343   1.821  12.865
18546SOL     OW57534   6.475   1.228   2.529
18546SOL    HW157535   6.473   1.144   2.575
18546SOL    HW257536   6.393   1.271   2.554
18547SOL     OW57537   2.150  13.018   4.935
18547SOL    HW157538   2.103  12.937   4.953
18547SOL    HW257539   2.236  13.006   4.976
18548SOL     OW57540   5.341   0.545  14.851
18548SOL    HW157541   5.276   0.588  14.795
18548SOL    HW257542   5.337   0.453  14.825
18549SOL     OW57543   0.826   6.747   3.019
18549SOL    HW157544   0.832   6.841   3.039
18549SOL    HW257545   0.905   6.729   2.968
18550SOL     OW57546  10.568  12.760   0.273
18550SOL    HW157547  10.598  12.672   0.252
18550SOL    HW257548  10.499  12.777   0.209
18551SOL     OW57549  13.309   1.403  12.605
18551SOL    HW157550  13.402   1.424  12.596
18551SOL    HW257551  13.264   1.483  12.577
18552SOL     OW57552  13.152  14.830   4.093
18552SOL    HW157553  13.242  14.801   4.082
18552SOL    HW257554  13.128  14.802   4.181
18553SOL     OW57555  11.916   5.359   3.157
18553SOL    HW157556  11.842   5.307   3.188
18553SOL    HW257557  11.992   5.301   3.169
18554SOL     OW57558   1.166   3.953   4.957
18554SOL    HW157559   1.193   3.876   5.007
18554SOL    HW257560   1.102   3.920   4.894
18555SOL     OW57561  12.002   4.179  14.518
18555SOL    HW157562  12.048   4.197  14.436
18555SOL    HW257563  12.066   4.133  14.572
18556SOL     OW57564   0.969   3.856   6.831
18556SOL    HW157565   0.999   3.805   6.907
18556SOL    HW257566   0.877   3.876   6.851
18557SOL     OW57567  11.724   2.893   4.746
18557SOL    HW157568  11.759   2.922   4.662
18557SOL    HW257569  11.798   2.896   4.806
18558SOL     OW57570  10.698   7.326   3.096
18558SOL    HW157571  10.780   7.287   3.126
18558SOL    HW257572  10.646   7.337   3.176
18559SOL     OW57573   4.884   5.172   5.646
18559SOL    HW157574   4.812   5.130   5.599
18559SOL    HW257575   4.901   5.253   5.599
18560SOL     OW57576   5.180   4.366   5.698
18560SOL    HW157577   5.228   4.432   5.748
18560SOL    HW257578   5.228   4.358   5.616
18561SOL     OW57579   1.878   8.414  14.386
18561SOL    HW157580   1.840   8.460  14.311
18561SOL    HW257581   1.934   8.480  14.428
18562SOL     OW57582   0.740   7.294   6.025
18562SOL    HW157583   0.790   7.370   5.995
18562SOL    HW257584   0.770   7.280   6.115
18563SOL     OW57585   1.814  14.096   4.804
18563SOL    HW157586   1.772  14.111   4.719
18563SOL    HW257587   1.852  14.181   4.827
18564SOL     OW57588   5.074   9.770   8.050
18564SOL    HW157589   5.115   9.841   8.100
18564SOL    HW257590   5.111   9.779   7.962
18565SOL     OW57591   5.317   8.081   8.474
18565SOL    HW157592   5.373   8.018   8.518
18565SOL    HW257593   5.364   8.164   8.481
18566SOL     OW57594   4.539   4.705   5.162
18566SOL    HW157595   4.634   4.702   5.154
18566SOL    HW257596   4.508   4.635   5.104
18567SOL     OW57597   9.976   9.322   8.388
18567SOL    HW157598  10.036   9.318   8.462
18567SOL    HW257599   9.991   9.240   8.340
18568SOL     OW57600   5.720   9.411   5.012
18568SOL    HW157601   5.664   9.339   5.041
18568SOL    HW257602   5.791   9.414   5.076
18569SOL     OW57603   6.816   1.759  13.207
18569SOL    HW157604   6.888   1.698  13.224
18569SOL    HW257605   6.742   1.702  13.186
18570SOL     OW57606  10.943   7.711   4.889
18570SOL    HW157607  10.952   7.637   4.829
18570SOL    HW257608  10.958   7.788   4.834
18571SOL     OW57609  14.074  14.515   7.871
18571SOL    HW157610  14.126  14.594   7.855
18571SOL    HW257611  14.128  14.444   7.837
18572SOL     OW57612  11.187  10.534   8.604
18572SOL    HW157613  11.256  10.509   8.543
18572SOL    HW257614  11.117  10.471   8.588
18573SOL     OW57615   8.280  11.621  12.798
18573SOL    HW157616   8.222  11.681  12.753
18573SOL    HW257617   8.359  11.617  12.743
18574SOL     OW57618   0.481   4.435   8.350
18574SOL    HW157619   0.432   4.386   8.415
18574SOL    HW257620   0.558   4.381   8.332
18575SOL     OW57621   1.037   2.081   6.622
18575SOL    HW157622   1.056   2.006   6.565
18575SOL    HW257623   1.097   2.071   6.696
18576SOL     OW57624  10.373   8.842   5.013
18576SOL    HW157625  10.468   8.849   5.003
18576SOL    HW257626  10.337   8.892   4.941
18577SOL     OW57627  11.865   6.258   7.155
18577SOL    HW157628  11.801   6.322   7.124
18577SOL    HW257629  11.868   6.272   7.249
18578SOL     OW57630   2.568  14.389   2.948
18578SOL    HW157631   2.537  14.419   3.034
18578SOL    HW257632   2.635  14.324   2.969
18579SOL     OW57633  12.465   9.679   2.245
18579SOL    HW157634  12.481   9.760   2.293
18579SOL    HW257635  12.435   9.617   2.311
18580SOL     OW57636   8.710   8.438  12.201
18580SOL    HW157637   8.626   8.438  12.156
18580SOL    HW257638   8.724   8.346  12.225
18581SOL     OW57639   5.780   8.976   0.201
18581SOL    HW157640   5.766   8.959   0.295
18581SOL    HW257641   5.847   8.912   0.175
18582SOL     OW57642   5.993  13.216  14.414
18582SOL    HW157643   6.000  13.240  14.321
18582SOL    HW257644   6.073  13.168  14.433
18583SOL     OW57645   4.960   1.772   6.614
18583SOL    HW157646   4.954   1.709   6.542
18583SOL    HW257647   4.930   1.854   6.577
18584SOL     OW57648   6.415  10.559   8.163
18584SOL    HW157649   6.335  10.592   8.121
18584SOL    HW257650   6.394  10.470   8.189
18585SOL     OW57651   7.337  11.187   8.969
18585SOL    HW157652   7.370  11.249   8.904
18585SOL    HW257653   7.265  11.141   8.925
18586SOL     OW57654  10.962   9.036   8.433
18586SOL    HW157655  10.995   8.955   8.396
18586SOL    HW257656  10.971   9.100   8.363
18587SOL     OW57657  10.300   1.029   2.291
18587SOL    HW157658  10.236   0.973   2.248
18587SOL    HW257659  10.255   1.063   2.368
18588SOL     OW57660   0.615   4.407   4.124
18588SOL    HW157661   0.633   4.492   4.163
18588SOL    HW257662   0.698   4.360   4.128
18589SOL     OW57663  14.868   3.490   5.239
18589SOL    HW157664  14.804   3.419   5.244
18589SOL    HW257665   0.049   3.476   5.316
18590SOL     OW57666  13.279   0.280   4.921
18590SOL    HW157667  13.195   0.295   4.964
18590SOL    HW257668  13.257   0.259   4.831
18591SOL     OW57669   0.839   6.130  11.936
18591SOL    HW157670   0.847   6.052  11.990
18591SOL    HW257671   0.901   6.192  11.974
18592SOL     OW57672   8.301   7.126   4.621
18592SOL    HW157673   8.341   7.076   4.550
18592SOL    HW257674   8.312   7.070   4.698
18593SOL     OW57675  10.962  12.243  12.079
18593SOL    HW157676  10.921  12.167  12.039
18593SOL    HW257677  11.018  12.279  12.009
18594SOL     OW57678  11.874   9.272   2.361
18594SOL    HW157679  11.887   9.354   2.314
18594SOL    HW257680  11.779   9.260   2.364
18595SOL     OW57681  10.357   5.361  10.052
18595SOL    HW157682  10.349   5.432   9.988
18595SOL    HW257683  10.267   5.345  10.080
18596SOL     OW57684  10.411   6.848   8.610
18596SOL    HW157685  10.351   6.856   8.684
18596SOL    HW257686  10.378   6.773   8.561
18597SOL     OW57687   6.160   1.254   7.513
18597SOL    HW157688   6.161   1.322   7.445
18597SOL    HW257689   6.158   1.172   7.464
18598SOL     OW57690  13.054  10.331   4.186
18598SOL    HW157691  12.986  10.391   4.216
18598SOL    HW257692  13.085  10.288   4.266
18599SOL     OW57693  11.158   2.053   0.845
18599SOL    HW157694  11.208   2.035   0.766
18599SOL    HW257695  11.205   2.007   0.914
18600SOL     OW57696  12.335   7.599   2.272
18600SOL    HW157697  12.411   7.609   2.328
18600SOL    HW257698  12.302   7.688   2.257
18601SOL     OW57699   4.664   0.380  13.485
18601SOL    HW157700   4.586   0.333  13.514
18601SOL    HW257701   4.634   0.470  13.469
18602SOL     OW57702  14.003   0.338  14.703
18602SOL    HW157703  14.030   0.401  14.636
18602SOL    HW257704  13.996   0.255  14.656
18603SOL     OW57705   5.425   4.835   8.687
18603SOL    HW157706   5.392   4.751   8.719
18603SOL    HW257707   5.518   4.820   8.671
18604SOL     OW57708   2.540   1.821  14.695
18604SOL    HW157709   2.493   1.897  14.729
18604SOL    HW257710   2.484   1.788  14.625
18605SOL     OW57711   6.215  11.524   2.047
18605SOL    HW157712   6.145  11.563   2.101
18605SOL    HW257713   6.180  11.526   1.958
18606SOL     OW57714  11.529   5.784  14.713
18606SOL    HW157715  11.453   5.731  14.687
18606SOL    HW257716  11.565   5.817  14.631
18607SOL     OW57717   7.202   9.645   0.211
18607SOL    HW157718   7.172   9.716   0.267
18607SOL    HW257719   7.166   9.566   0.250
18608SOL     OW57720  10.323   4.015   6.087
18608SOL    HW157721  10.399   4.016   6.030
18608SOL    HW257722  10.357   3.988   6.172
18609SOL     OW57723   1.377  10.562   1.265
18609SOL    HW157724   1.421  10.551   1.350
18609SOL    HW257725   1.389  10.477   1.221
18610SOL     OW57726   4.658   8.240   8.527
18610SOL    HW157727   4.626   8.211   8.442
18610SOL    HW257728   4.713   8.168   8.559
18611SOL     OW57729  13.588   8.985   9.722
18611SOL    HW157730  13.578   8.894   9.751
18611SOL    HW257731  13.522   9.034   9.772
18612SOL     OW57732  14.376   9.104   1.026
18612SOL    HW157733  14.319   9.102   0.949
18612SOL    HW257734  14.318   9.088   1.100
18613SOL     OW57735   4.746   2.193   3.958
18613SOL    HW157736   4.716   2.216   4.045
18613SOL    HW257737   4.832   2.153   3.972
18614SOL     OW57738   7.534   9.383  13.402
18614SOL    HW157739   7.578   9.388  13.317
18614SOL    HW257740   7.441   9.382  13.381
18615SOL     OW57741   6.109   2.286  11.677
18615SOL    HW157742   6.116   2.282  11.773
18615SOL    HW257743   6.188   2.243  11.646
18616SOL     OW57744   7.795   8.245  14.537
18616SOL    HW157745   7.775   8.228  14.628
18616SOL    HW257746   7.722   8.207  14.488
18617SOL     OW57747  14.087   6.349   2.273
18617SOL    HW157748  14.154   6.413   2.246
18617SOL    HW257749  14.088   6.352   2.369
18618SOL     OW57750   7.033   2.620  13.919
18618SOL    HW157751   7.098   2.553  13.896
18618SOL    HW257752   7.071   2.665  13.994
18619SOL     OW57753  11.930   9.781   8.970
18619SOL    HW157754  11.848   9.742   8.998
18619SOL    HW257755  11.953   9.841   9.042
18620SOL     OW57756  10.531   3.523   9.656
18620SOL    HW157757  10.550   3.587   9.587
18620SOL    HW257758  10.578   3.444   9.629
18621SOL     OW57759   3.822   6.162   9.675
18621SOL    HW157760   3.765   6.234   9.700
18621SOL    HW257761   3.763   6.088   9.659
18622SOL     OW57762   5.701  12.534  11.126
18622SOL    HW157763   5.632  12.597  11.103
18622SOL    HW257764   5.731  12.562  11.213
18623SOL     OW57765   9.645   9.084   9.018
18623SOL    HW157766   9.732   9.069   9.056
18623SOL    HW257767   9.644   9.030   8.939
18624SOL     OW57768   0.477  13.175  10.417
18624SOL    HW157769   0.570  13.153  10.424
18624SOL    HW257770   0.476  13.267  10.389
18625SOL     OW57771  11.919  12.839   2.398
18625SOL    HW157772  11.876  12.895   2.463
18625SOL    HW257773  11.915  12.889   2.317
18626SOL     OW57774   2.801   0.117   3.489
18626SOL    HW157775   2.813   0.206   3.455
18626SOL    HW257776   2.889   0.090   3.516
18627SOL     OW57777   0.492   2.816   7.951
18627SOL    HW157778   0.580   2.847   7.928
18627SOL    HW257779   0.434   2.889   7.930
18628SOL     OW57780   8.133   6.504  10.173
18628SOL    HW157781   8.155   6.489  10.081
18628SOL    HW257782   8.045   6.466  10.182
18629SOL     OW57783   0.668   5.361  13.535
18629SOL    HW157784   0.656   5.298  13.606
18629SOL    HW257785   0.579   5.379  13.503
18630SOL     OW57786   4.829   9.300   5.223
18630SOL    HW157787   4.922   9.303   5.204
18630SOL    HW257788   4.788   9.347   5.151
18631SOL     OW57789   8.513  11.561  12.635
18631SOL    HW157790   8.570  11.615  12.581
18631SOL    HW257791   8.572  11.498  12.678
18632SOL     OW57792   8.244   6.801   3.448
18632SOL    HW157793   8.288   6.800   3.533
18632SOL    HW257794   8.190   6.880   3.450
18633SOL     OW57795  14.564   9.724   5.030
18633SOL    HW157796  14.599   9.778   5.100
18633SOL    HW257797  14.478   9.697   5.060
18634SOL     OW57798   0.842   6.881  11.312
18634SOL    HW157799   0.835   6.942  11.238
18634SOL    HW257800   0.936   6.878  11.332
18635SOL     OW57801   1.330   7.066   3.810
18635SOL    HW157802   1.301   7.107   3.728
18635SOL    HW257803   1.328   6.972   3.792
18636SOL     OW57804   3.566   2.131  14.299
18636SOL    HW157805   3.608   2.134  14.212
18636SOL    HW257806   3.540   2.221  14.315
18637SOL     OW57807   9.049   6.080   5.447
18637SOL    HW157808   9.037   6.078   5.353
18637SOL    HW257809   9.112   6.010   5.465
18638SOL     OW57810   4.101   1.932   3.467
18638SOL    HW157811   4.114   1.963   3.378
18638SOL    HW257812   4.010   1.955   3.488
18639SOL     OW57813  13.115  13.949  11.005
18639SOL    HW157814  13.038  13.900  11.033
18639SOL    HW257815  13.173  13.949  11.081
18640SOL     OW57816  10.550   8.014  10.301
18640SOL    HW157817  10.628   8.059  10.334
18640SOL    HW257818  10.504   8.079  10.249
18641SOL     OW57819   6.180   5.367  13.985
18641SOL    HW157820   6.173   5.461  13.996
18641SOL    HW257821   6.228   5.337  14.063
18642SOL     OW57822   1.123   3.587   4.104
18642SOL    HW157823   1.133   3.669   4.152
18642SOL    HW257824   1.029   3.571   4.102
18643SOL     OW57825   5.831   0.911   4.772
18643SOL    HW157826   5.875   0.977   4.719
18643SOL    HW257827   5.895   0.840   4.780
18644SOL     OW57828   5.186   8.764   8.327
18644SOL    HW157829   5.184   8.689   8.387
18644SOL    HW257830   5.196   8.725   8.240
18645SOL     OW57831   6.889   1.162  14.448
18645SOL    HW157832   6.811   1.207  14.481
18645SOL    HW257833   6.879   1.071  14.478
18646SOL     OW57834   9.559  12.988  13.848
18646SOL    HW157835   9.525  12.925  13.785
18646SOL    HW257836   9.641  13.019  13.810
18647SOL     OW57837   2.675   6.067   8.999
18647SOL    HW157838   2.589   6.028   9.015
18647SOL    HW257839   2.737   6.001   9.030
18648SOL     OW57840  11.555   2.536  14.163
18648SOL    HW157841  11.613   2.524  14.238
18648SOL    HW257842  11.605   2.503  14.088
18649SOL     OW57843   0.540   8.852  12.889
18649SOL    HW157844   0.457   8.853  12.937
18649SOL    HW257845   0.582   8.935  12.913
18650SOL     OW57846   9.313   4.751   2.625
18650SOL    HW157847   9.254   4.819   2.593
18650SOL    HW257848   9.260   4.701   2.686
18651SOL     OW57849   5.350   4.928   5.604
18651SOL    HW157850   5.262   4.964   5.590
18651SOL    HW257851   5.396   4.945   5.521
18652SOL     OW57852   9.948   9.340   9.274
18652SOL    HW157853   9.969   9.302   9.189
18652SOL    HW257854  10.005   9.417   9.281
18653SOL     OW57855   9.733  13.242  11.749
18653SOL    HW157856   9.767  13.153  11.759
18653SOL    HW257857   9.659  13.246  11.810
18654SOL     OW57858   3.171   9.986  11.304
18654SOL    HW157859   3.183   9.902  11.258
18654SOL    HW257860   3.076  10.002  11.298
18655SOL     OW57861   6.183  12.768  13.328
18655SOL    HW157862   6.256  12.758  13.389
18655SOL    HW257863   6.125  12.831  13.370
18656SOL     OW57864  13.653   2.522   4.471
18656SOL    HW157865  13.672   2.443   4.522
18656SOL    HW257866  13.706   2.512   4.392
18657SOL     OW57867  12.662   4.536   8.192
18657SOL    HW157868  12.623   4.462   8.239
18657SOL    HW257869  12.752   4.507   8.173
18658SOL     OW57870   5.336  14.824  13.820
18658SOL    HW157871   5.269   0.018  13.822
18658SOL    HW257872   5.393  14.844  13.894
18659SOL     OW57873   3.295   7.661   4.382
18659SOL    HW157874   3.385   7.682   4.359
18659SOL    HW257875   3.243   7.691   4.308
18660SOL     OW57876  12.202   7.543   2.951
18660SOL    HW157877  12.267   7.510   2.889
18660SOL    HW257878  12.167   7.622   2.909
18661SOL     OW57879   8.843   5.439   0.094
18661SOL    HW157880   8.894   5.361   0.074
18661SOL    HW257881   8.767   5.406   0.143
18662SOL     OW57882   7.565  13.458   4.945
18662SOL    HW157883   7.572  13.541   4.992
18662SOL    HW257884   7.510  13.403   5.001
18663SOL     OW57885   0.382   7.563   5.489
18663SOL    HW157886   0.322   7.515   5.432
18663SOL    HW257887   0.432   7.494   5.535
18664SOL     OW57888   1.893  13.748  13.075
18664SOL    HW157889   1.828  13.749  13.145
18664SOL    HW257890   1.876  13.828  13.026
18665SOL     OW57891   5.395   9.336  11.991
18665SOL    HW157892   5.378   9.384  12.072
18665SOL    HW257893   5.442   9.257  12.019
18666SOL     OW57894   8.483  14.264   7.448
18666SOL    HW157895   8.511  14.229   7.363
18666SOL    HW257896   8.412  14.206   7.476
18667SOL     OW57897   3.870   6.500   3.939
18667SOL    HW157898   3.859   6.551   3.859
18667SOL    HW257899   3.962   6.473   3.938
18668SOL     OW57900   3.379   5.419   6.637
18668SOL    HW157901   3.434   5.347   6.669
18668SOL    HW257902   3.369   5.402   6.543
18669SOL     OW57903   5.897   0.336   7.923
18669SOL    HW157904   5.946   0.255   7.907
18669SOL    HW257905   5.957   0.391   7.973
18670SOL     OW57906   0.467   1.945   7.726
18670SOL    HW157907   0.415   1.975   7.800
18670SOL    HW257908   0.415   1.876   7.686
18671SOL     OW57909  13.420   4.717   9.279
18671SOL    HW157910  13.419   4.655   9.206
18671SOL    HW257911  13.478   4.788   9.249
18672SOL     OW57912   0.970   3.551  12.704
18672SOL    HW157913   0.905   3.585  12.642
18672SOL    HW257914   0.966   3.611  12.779
18673SOL     OW57915  14.736  13.563  11.879
18673SOL    HW157916  14.672  13.537  11.812
18673SOL    HW257917  14.809  13.502  11.867
18674SOL     OW57918  13.711   6.096  11.471
18674SOL    HW157919  13.670   6.010  11.478
18674SOL    HW257920  13.805   6.078  11.461
18675SOL     OW57921  11.796   9.771   6.233
18675SOL    HW157922  11.713   9.819   6.241
18675SOL    HW257923  11.770   9.685   6.201
18676SOL     OW57924   1.822   8.263  10.716
18676SOL    HW157925   1.774   8.325  10.660
18676SOL    HW257926   1.819   8.181  10.668
18677SOL     OW57927   3.114   3.324   4.032
18677SOL    HW157928   3.169   3.276   4.093
18677SOL    HW257929   3.082   3.257   3.971
18678SOL     OW57930   0.896  10.172   2.069
18678SOL    HW157931   0.847  10.142   2.146
18678SOL    HW257932   0.828  10.196   2.006
18679SOL     OW57933   2.093   9.284   7.031
18679SOL    HW157934   2.010   9.242   7.051
18679SOL    HW257935   2.071   9.352   6.967
18680SOL     OW57936   2.449   9.068   4.963
18680SOL    HW157937   2.493   9.031   5.039
18680SOL    HW257938   2.486   9.021   4.888
18681SOL     OW57939   5.756   9.115  10.156
18681SOL    HW157940   5.772   9.022  10.139
18681SOL    HW257941   5.680   9.136  10.102
18682SOL     OW57942   1.792   1.235  10.955
18682SOL    HW157943   1.785   1.320  10.913
18682SOL    HW257944   1.832   1.253  11.041
18683SOL     OW57945   3.925   0.822   6.507
18683SOL    HW157946   3.930   0.872   6.589
18683SOL    HW257947   3.852   0.862   6.460
18684SOL     OW57948   9.833   2.435   0.912
18684SOL    HW157949   9.814   2.527   0.929
18684SOL    HW257950   9.886   2.407   0.987
18685SOL     OW57951  11.488   6.417  13.052
18685SOL    HW157952  11.577   6.454  13.050
18685SOL    HW257953  11.431   6.492  13.037
18686SOL     OW57954  13.730   4.746  11.748
18686SOL    HW157955  13.700   4.832  11.719
18686SOL    HW257956  13.653   4.690  11.741
18687SOL     OW57957  10.595   3.621   9.905
18687SOL    HW157958  10.689   3.607   9.894
18687SOL    HW257959  10.555   3.579   9.829
18688SOL     OW57960   8.544   8.502   0.966
18688SOL    HW157961   8.546   8.512   0.871
18688SOL    HW257962   8.451   8.501   0.989
18689SOL     OW57963   6.492  10.480   6.850
18689SOL    HW157964   6.523  10.569   6.869
18689SOL    HW257965   6.510  10.468   6.757
18690SOL     OW57966   0.987   8.032   0.954
18690SOL    HW157967   0.996   8.071   0.867
18690SOL    HW257968   1.076   8.003   0.977
18691SOL     OW57969   2.595   2.281   2.352
18691SOL    HW157970   2.647   2.360   2.363
18691SOL    HW257971   2.659   2.212   2.335
18692SOL     OW57972   6.164   1.859  11.525
18692SOL    HW157973   6.252   1.896  11.534
18692SOL    HW257974   6.144   1.823  11.611
18693SOL     OW57975   7.948   5.844   3.196
18693SOL    HW157976   7.970   5.781   3.266
18693SOL    HW257977   8.028   5.895   3.185
18694SOL     OW57978   1.529  12.510   5.824
18694SOL    HW157979   1.596  12.554   5.771
18694SOL    HW257980   1.452  12.507   5.768
18695SOL     OW57981   8.314  10.162   2.368
18695SOL    HW157982   8.311  10.252   2.399
18695SOL    HW257983   8.276  10.165   2.281
18696SOL     OW57984   4.449   6.119  14.185
18696SOL    HW157985   4.437   6.051  14.119
18696SOL    HW257986   4.391   6.190  14.158
18697SOL     OW57987  13.171   8.444  13.769
18697SOL    HW157988  13.173   8.530  13.728
18697SOL    HW257989  13.102   8.397  13.723
18698SOL     OW57990  10.070  13.698   4.359
18698SOL    HW157991  10.017  13.692   4.280
18698SOL    HW257992  10.151  13.652   4.337
18699SOL     OW57993   8.884   9.079   4.419
18699SOL    HW157994   8.802   9.110   4.381
18699SOL    HW257995   8.917   9.154   4.468
18700SOL     OW57996  11.450   2.530   0.872
18700SOL    HW157997  11.386   2.459   0.864
18700SOL    HW257998  11.534   2.486   0.885
18701SOL     OW57999   4.378   4.497  11.608
18701SOL    HW158000   4.420   4.434  11.667
18701SOL    HW258001   4.418   4.581  11.631
18702SOL     OW58002   0.010   1.044   4.032
18702SOL    HW158003  14.812   0.983   4.043
18702SOL    HW258004  14.844   1.127   4.008
18703SOL     OW58005  10.583   7.162   3.433
18703SOL    HW158006  10.655   7.103   3.454
18703SOL    HW258007  10.546   7.186   3.518
18704SOL     OW58008   6.026   9.708  14.822
18704SOL    HW158009   6.007   9.649  14.749
18704SOL    HW258010   5.947   9.706   0.001
18705SOL     OW58011   8.290  11.164   2.108
18705SOL    HW158012   8.339  11.091   2.071
18705SOL    HW258013   8.240  11.126   2.180
18706SOL     OW58014   0.045  12.986   8.924
18706SOL    HW158015   0.113  12.929   8.961
18706SOL    HW258016   0.057  12.980   8.830
18707SOL     OW58017   2.918   2.506   4.650
18707SOL    HW158018   2.973   2.494   4.727
18707SOL    HW258019   2.854   2.572   4.677
18708SOL     OW58020   4.903  12.201  13.731
18708SOL    HW158021   4.815  12.202  13.693
18708SOL    HW258022   4.906  12.120  13.782
18709SOL     OW58023  10.884  13.700   9.249
18709SOL    HW158024  10.901  13.607   9.267
18709SOL    HW258025  10.882  13.706   9.153
18710SOL     OW58026   4.217   5.668  14.664
18710SOL    HW158027   4.283   5.630  14.606
18710SOL    HW258028   4.165   5.725  14.607
18711SOL     OW58029   5.479  12.912   8.762
18711SOL    HW158030   5.475  12.886   8.854
18711SOL    HW258031   5.572  12.906   8.740
18712SOL     OW58032  10.561   2.642  11.905
18712SOL    HW158033  10.494   2.700  11.868
18712SOL    HW258034  10.644   2.681  11.877
18713SOL     OW58035   3.043   3.014   9.410
18713SOL    HW158036   3.111   3.066   9.367
18713SOL    HW258037   2.983   3.079   9.447
18714SOL     OW58038   5.171   1.493   0.468
18714SOL    HW158039   5.129   1.413   0.500
18714SOL    HW258040   5.109   1.563   0.488
18715SOL     OW58041   6.092   8.664   3.165
18715SOL    HW158042   6.007   8.672   3.120
18715SOL    HW258043   6.080   8.713   3.246
18716SOL     OW58044   1.517   5.784   0.986
18716SOL    HW158045   1.450   5.847   0.959
18716SOL    HW258046   1.494   5.704   0.939
18717SOL     OW58047   7.739  12.891  12.959
18717SOL    HW158048   7.728  12.876  12.865
18717SOL    HW258049   7.829  12.865  12.977
18718SOL     OW58050   3.477   9.977  10.932
18718SOL    HW158051   3.563   9.957  10.895
18718SOL    HW258052   3.459   9.903  10.991
18719SOL     OW58053  10.097   3.576  11.695
18719SOL    HW158054  10.081   3.545  11.606
18719SOL    HW258055  10.015   3.620  11.720
18720SOL     OW58056  10.235   3.023   0.104
18720SOL    HW158057  10.227   2.965   0.179
18720SOL    HW258058  10.283   2.972   0.039
18721SOL     OW58059   4.892   4.230   0.491
18721SOL    HW158060   4.974   4.184   0.473
18721SOL    HW258061   4.909   4.281   0.569
18722SOL     OW58062  11.389  11.897  14.089
18722SOL    HW158063  11.372  11.985  14.123
18722SOL    HW258064  11.396  11.842  14.167
18723SOL     OW58065  10.127   5.661  14.531
18723SOL    HW158066  10.194   5.700  14.475
18723SOL    HW258067  10.047   5.709  14.510
18724SOL     OW58068  11.541  11.943   9.456
18724SOL    HW158069  11.472  11.986   9.406
18724SOL    HW258070  11.516  11.956   9.547
18725SOL     OW58071   0.607   1.810  10.075
18725SOL    HW158072   0.580   1.719  10.085
18725SOL    HW258073   0.685   1.819  10.130
18726SOL     OW58074   5.226   7.913   7.945
18726SOL    HW158075   5.194   7.989   7.896
18726SOL    HW258076   5.268   7.951   8.022
18727SOL     OW58077  11.253   7.772   7.785
18727SOL    HW158078  11.295   7.786   7.700
18727SOL    HW258079  11.215   7.684   7.779
18728SOL     OW58080   1.082   6.893  14.181
18728SOL    HW158081   1.054   6.978  14.215
18728SOL    HW258082   1.110   6.911  14.092
18729SOL     OW58083   6.481   9.856   3.473
18729SOL    HW158084   6.542   9.926   3.500
18729SOL    HW258085   6.395   9.890   3.496
18730SOL     OW58086   7.704  14.750  13.883
18730SOL    HW158087   7.775  14.715  13.828
18730SOL    HW258088   7.706  14.844  13.867
18731SOL     OW58089   7.580   0.684  11.581
18731SOL    HW158090   7.604   0.592  11.570
18731SOL    HW258091   7.661   0.727  11.608
18732SOL     OW58092   1.060   9.886   5.595
18732SOL    HW158093   1.112   9.953   5.640
18732SOL    HW258094   1.123   9.818   5.571
18733SOL     OW58095  14.862  11.988   5.410
18733SOL    HW158096   0.048  11.922   5.443
18733SOL    HW258097   0.043  12.051   5.364
18734SOL     OW58098   1.907   4.917   2.915
18734SOL    HW158099   1.882   4.926   3.007
18734SOL    HW258100   1.881   4.828   2.891
18735SOL     OW58101   0.256  10.572   0.895
18735SOL    HW158102   0.335  10.541   0.939
18735SOL    HW258103   0.259  10.532   0.808
18736SOL     OW58104   5.391  14.032  13.504
18736SOL    HW158105   5.425  13.983  13.430
18736SOL    HW258106   5.394  13.970  13.577
18737SOL     OW58107   0.857  13.717  12.838
18737SOL    HW158108   0.839  13.765  12.757
18737SOL    HW258109   0.856  13.625  12.812
18738SOL     OW58110   8.224   0.803   0.212
18738SOL    HW158111   8.144   0.823   0.163
18738SOL    HW258112   8.203   0.723   0.261
18739SOL     OW58113   0.854   4.952  10.395
18739SOL    HW158114   0.861   4.857  10.384
18739SOL    HW258115   0.759   4.969  10.398
18740SOL     OW58116   1.165  11.918   4.294
18740SOL    HW158117   1.183  11.988   4.232
18740SOL    HW258118   1.166  11.961   4.380
18741SOL     OW58119   2.153   1.889   4.083
18741SOL    HW158120   2.079   1.915   4.028
18741SOL    HW258121   2.133   1.928   4.168
18742SOL     OW58122   7.400  13.823  12.886
18742SOL    HW158123   7.351  13.777  12.818
18742SOL    HW258124   7.392  13.916  12.863
18743SOL     OW58125   1.449  12.762   9.421
18743SOL    HW158126   1.529  12.764   9.369
18743SOL    HW258127   1.447  12.846   9.467
18744SOL     OW58128   0.021   4.074  10.053
18744SOL    HW158129  14.839   3.999  10.037
18744SOL    HW258130   0.099   4.056  10.001
18745SOL     OW58131   4.390  12.966  13.393
18745SOL    HW158132   4.317  12.912  13.362
18745SOL    HW258133   4.455  12.903  13.423
18746SOL     OW58134   8.287   2.866   9.830
18746SOL    HW158135   8.342   2.851   9.907
18746SOL    HW258136   8.200   2.834   9.856
18747SOL     OW58137   7.134   4.070   8.131
18747SOL    HW158138   7.150   4.087   8.224
18747SOL    HW258139   7.221   4.060   8.093
18748SOL     OW58140   6.990  14.179   9.706
18748SOL    HW158141   6.957  14.262   9.669
18748SOL    HW258142   6.939  14.111   9.661
18749SOL     OW58143   5.799  13.755   2.575
18749SOL    HW158144   5.790  13.665   2.605
18749SOL    HW258145   5.826  13.804   2.653
18750SOL     OW58146   0.409   3.018  11.529
18750SOL    HW158147   0.461   3.095  11.505
18750SOL    HW258148   0.414   3.014  11.624
18751SOL     OW58149   0.006   6.792   6.029
18751SOL    HW158150   0.024   6.699   6.033
18751SOL    HW258151   0.009   6.814   5.936
18752SOL     OW58152   6.896   4.848   3.090
18752SOL    HW158153   6.948   4.928   3.082
18752SOL    HW258154   6.871   4.827   3.000
18753SOL     OW58155   8.169   5.769   8.950
18753SOL    HW158156   8.077   5.741   8.943
18753SOL    HW258157   8.205   5.754   8.863
18754SOL     OW58158   3.843   4.671   4.410
18754SOL    HW158159   3.763   4.644   4.456
18754SOL    HW258160   3.910   4.671   4.478
18755SOL     OW58161  13.426   3.489  11.213
18755SOL    HW158162  13.339   3.451  11.229
18755SOL    HW258163  13.410   3.583  11.208
18756SOL     OW58164  14.520  14.338   0.099
18756SOL    HW158165  14.557  14.425   0.082
18756SOL    HW258166  14.482  14.311   0.015
18757SOL     OW58167   7.681   9.053   6.181
18757SOL    HW158168   7.618   8.995   6.223
18757SOL    HW258169   7.761   9.001   6.175
18758SOL     OW58170   4.822   3.626   8.736
18758SOL    HW158171   4.868   3.704   8.765
18758SOL    HW258172   4.844   3.560   8.802
18759SOL     OW58173  12.853  13.400   0.215
18759SOL    HW158174  12.864  13.305   0.208
18759SOL    HW258175  12.926  13.437   0.166
18760SOL     OW58176   7.077   8.838   0.370
18760SOL    HW158177   7.082   8.830   0.465
18760SOL    HW258178   7.010   8.904   0.355
18761SOL     OW58179   9.009   6.313   8.180
18761SOL    HW158180   8.957   6.383   8.140
18761SOL    HW258181   8.946   6.242   8.195
18762SOL     OW58182  10.241   8.331  12.263
18762SOL    HW158183  10.237   8.421  12.230
18762SOL    HW258184  10.182   8.282  12.205
18763SOL     OW58185   5.486   3.194   7.006
18763SOL    HW158186   5.463   3.201   6.913
18763SOL    HW258187   5.469   3.102   7.028
18764SOL     OW58188   6.043  13.586  13.141
18764SOL    HW158189   6.063  13.521  13.073
18764SOL    HW258190   6.007  13.661  13.093
18765SOL     OW58191  14.839   9.799   8.940
18765SOL    HW158192  14.828   9.752   8.858
18765SOL    HW258193  14.850   9.730   9.006
18766SOL     OW58194   9.209   6.160   2.973
18766SOL    HW158195   9.175   6.117   2.894
18766SOL    HW258196   9.138   6.218   3.001
18767SOL     OW58197   4.365   7.683  12.986
18767SOL    HW158198   4.383   7.689  13.080
18767SOL    HW258199   4.335   7.771  12.962
18768SOL     OW58200  10.567   8.773  10.123
18768SOL    HW158201  10.642   8.828  10.147
18768SOL    HW258202  10.525   8.752  10.207
18769SOL     OW58203   9.829   1.126   0.205
18769SOL    HW158204   9.885   1.143   0.129
18769SOL    HW258205   9.876   1.061   0.256
18770SOL     OW58206   1.804   8.815   0.842
18770SOL    HW158207   1.757   8.760   0.905
18770SOL    HW258208   1.736   8.868   0.801
18771SOL     OW58209   6.750   2.431   2.990
18771SOL    HW158210   6.760   2.522   3.017
18771SOL    HW258211   6.695   2.435   2.912
18772SOL     OW58212   5.799   0.156   6.014
18772SOL    HW158213   5.864   0.088   5.997
18772SOL    HW258214   5.804   0.170   6.109
18773SOL     OW58215  11.599   5.264   8.418
18773SOL    HW158216  11.589   5.172   8.390
18773SOL    HW258217  11.691   5.271   8.443
18774SOL     OW58218   5.017   9.329  12.413
18774SOL    HW158219   4.976   9.355  12.330
18774SOL    HW258220   4.947   9.284  12.461
18775SOL     OW58221   7.245   9.835  14.462
18775SOL    HW158222   7.185   9.761  14.474
18775SOL    HW258223   7.324   9.809  14.510
18776SOL     OW58224   2.238  10.015  14.327
18776SOL    HW158225   2.185   9.940  14.355
18776SOL    HW258226   2.207  10.088  14.381
18777SOL     OW58227  10.651   1.427   8.746
18777SOL    HW158228  10.622   1.442   8.836
18777SOL    HW258229  10.583   1.370   8.709
18778SOL     OW58230   4.604   2.220  13.233
18778SOL    HW158231   4.572   2.161  13.301
18778SOL    HW258232   4.642   2.294  13.281
18779SOL     OW58233   4.501  13.803   6.813
18779SOL    HW158234   4.458  13.888   6.799
18779SOL    HW258235   4.570  13.821   6.876
18780SOL     OW58236   9.168  12.705   8.270
18780SOL    HW158237   9.100  12.732   8.332
18780SOL    HW258238   9.158  12.764   8.196
18781SOL     OW58239   3.682   6.989  13.398
18781SOL    HW158240   3.619   7.046  13.443
18781SOL    HW258241   3.699   6.919  13.461
18782SOL     OW58242   1.482   7.612  12.475
18782SOL    HW158243   1.554   7.559  12.440
18782SOL    HW258244   1.405   7.583  12.426
18783SOL     OW58245  11.518   9.354   4.615
18783SOL    HW158246  11.542   9.430   4.562
18783SOL    HW258247  11.520   9.281   4.553
18784SOL     OW58248  14.549  13.527   1.811
18784SOL    HW158249  14.516  13.509   1.723
18784SOL    HW258250  14.630  13.477   1.818
18785SOL     OW58251   6.300   3.116   9.622
18785SOL    HW158252   6.238   3.063   9.672
18785SOL    HW258253   6.246   3.168   9.563
18786SOL     OW58254   9.567  14.829   3.493
18786SOL    HW158255   9.572   0.046   3.468
18786SOL    HW258256   9.475  14.806   3.483
18787SOL     OW58257   7.066   3.828   1.031
18787SOL    HW158258   7.068   3.900   0.969
18787SOL    HW258259   7.081   3.749   0.979
18788SOL     OW58260   0.210  11.222   2.076
18788SOL    HW158261   0.255  11.138   2.080
18788SOL    HW258262   0.118  11.201   2.094
18789SOL     OW58263   4.149   9.050  13.930
18789SOL    HW158264   4.095   9.014  14.000
18789SOL    HW258265   4.195   8.974  13.893
18790SOL     OW58266   9.417  11.366   8.800
18790SOL    HW158267   9.505  11.337   8.779
18790SOL    HW258268   9.388  11.414   8.723
18791SOL     OW58269   1.970   3.458   3.231
18791SOL    HW158270   1.953   3.413   3.314
18791SOL    HW258271   2.043   3.410   3.193
18792SOL     OW58272   4.805  12.257   8.808
18792SOL    HW158273   4.757  12.335   8.836
18792SOL    HW258274   4.747  12.214   8.745
18793SOL     OW58275   3.754  14.133  12.543
18793SOL    HW158276   3.781  14.066  12.481
18793SOL    HW258277   3.836  14.173  12.572
18794SOL     OW58278   9.166  11.792  13.806
18794SOL    HW158279   9.075  11.768  13.794
18794SOL    HW258280   9.177  11.871  13.753
18795SOL     OW58281   1.556  14.613   0.648
18795SOL    HW158282   1.513  14.694   0.675
18795SOL    HW258283   1.645  14.640   0.624
18796SOL     OW58284  13.973   0.134   5.564
18796SOL    HW158285  13.992   0.214   5.516
18796SOL    HW258286  13.940   0.073   5.498
18797SOL     OW58287   4.482   3.499  11.476
18797SOL    HW158288   4.445   3.427  11.526
18797SOL    HW258289   4.426   3.574  11.496
18798SOL     OW58290   2.952  13.583   2.758
18798SOL    HW158291   2.954  13.678   2.746
18798SOL    HW258292   2.984  13.548   2.676
18799SOL     OW58293   0.354   7.287   7.548
18799SOL    HW158294   0.319   7.322   7.466
18799SOL    HW258295   0.417   7.352   7.577
18800SOL     OW58296  13.213   6.423   5.493
18800SOL    HW158297  13.152   6.443   5.423
18800SOL    HW258298  13.165   6.444   5.573
18801SOL     OW58299   7.762  10.625  13.386
18801SOL    HW158300   7.850  10.641  13.421
18801SOL    HW258301   7.770  10.644  13.292
18802SOL     OW58302  10.365   4.530  12.104
18802SOL    HW158303  10.285   4.477  12.101
18802SOL    HW258304  10.336   4.617  12.077
18803SOL     OW58305  12.495   7.567   3.643
18803SOL    HW158306  12.537   7.653   3.641
18803SOL    HW258307  12.469   7.551   3.552
18804SOL     OW58308   1.981   6.068  13.149
18804SOL    HW158309   2.004   6.142  13.092
18804SOL    HW258310   2.002   6.098  13.237
18805SOL     OW58311   9.565  11.705  14.139
18805SOL    HW158312   9.495  11.644  14.116
18805SOL    HW258313   9.544  11.784  14.089
18806SOL     OW58314  11.356  10.962   5.179
18806SOL    HW158315  11.337  11.042   5.227
18806SOL    HW258316  11.447  10.972   5.151
18807SOL     OW58317   1.838  11.058  11.409
18807SOL    HW158318   1.811  11.137  11.456
18807SOL    HW258319   1.900  11.089  11.343
18808SOL     OW58320   2.018   6.697   3.022
18808SOL    HW158321   2.080   6.753   3.069
18808SOL    HW258322   1.958   6.758   2.979
18809SOL     OW58323  12.454  14.741   5.825
18809SOL    HW158324  12.518  14.796   5.781
18809SOL    HW258325  12.399  14.802   5.874
18810SOL     OW58326   4.847  10.901   3.468
18810SOL    HW158327   4.779  10.966   3.449
18810SOL    HW258328   4.823  10.825   3.416
18811SOL     OW58329   0.557   6.170   3.930
18811SOL    HW158330   0.516   6.090   3.961
18811SOL    HW258331   0.602   6.206   4.006
18812SOL     OW58332   6.822   4.955  13.773
18812SOL    HW158333   6.889   5.012  13.811
18812SOL    HW258334   6.760   5.014  13.732
18813SOL     OW58335   5.055   1.231  13.401
18813SOL    HW158336   5.137   1.251  13.357
18813SOL    HW258337   4.992   1.216  13.330
18814SOL     OW58338  14.277  12.722   5.755
18814SOL    HW158339  14.236  12.706   5.671
18814SOL    HW258340  14.256  12.645   5.808
18815SOL     OW58341   1.938   7.516   6.690
18815SOL    HW158342   1.895   7.478   6.613
18815SOL    HW258343   1.973   7.441   6.738
18816SOL     OW58344   8.132   1.356  13.354
18816SOL    HW158345   8.220   1.353  13.392
18816SOL    HW258346   8.082   1.292  13.405
18817SOL     OW58347   3.784  10.474   6.198
18817SOL    HW158348   3.874  10.463   6.165
18817SOL    HW258349   3.763  10.390   6.239
18818SOL     OW58350  14.740   9.587  14.238
18818SOL    HW158351  14.696   9.625  14.314
18818SOL    HW258352  14.811   9.535  14.276
18819SOL     OW58353  14.658  10.376   6.811
18819SOL    HW158354  14.584  10.426   6.846
18819SOL    HW258355  14.727  10.440   6.798
18820SOL     OW58356   2.447  13.528   7.742
18820SOL    HW158357   2.513  13.585   7.703
18820SOL    HW258358   2.378  13.587   7.771
18821SOL     OW58359   4.544   2.546   3.027
18821SOL    HW158360   4.635   2.575   3.018
18821SOL    HW258361   4.548   2.469   3.083
18822SOL     OW58362   0.972   0.142   6.139
18822SOL    HW158363   0.900   0.133   6.201
18822SOL    HW258364   0.985   0.236   6.131
18823SOL     OW58365  10.458   7.982   4.890
18823SOL    HW158366  10.451   8.064   4.840
18823SOL    HW258367  10.552   7.973   4.906
18824SOL     OW58368  12.860   0.147   1.291
18824SOL    HW158369  12.857   0.216   1.224
18824SOL    HW258370  12.800   0.178   1.359
18825SOL     OW58371   0.065   6.743   8.263
18825SOL    HW158372   0.014   6.673   8.224
18825SOL    HW258373  14.875   6.807   8.292
18826SOL     OW58374   3.295  11.629   3.768
18826SOL    HW158375   3.280  11.558   3.830
18826SOL    HW258376   3.325  11.586   3.689
18827SOL     OW58377  11.533   4.864   0.474
18827SOL    HW158378  11.516   4.958   0.473
18827SOL    HW258379  11.446   4.825   0.485
18828SOL     OW58380   0.301  14.227   8.130
18828SOL    HW158381   0.331  14.160   8.069
18828SOL    HW258382   0.225  14.188   8.173
18829SOL     OW58383   4.002   1.393   5.627
18829SOL    HW158384   4.029   1.424   5.714
18829SOL    HW258385   4.082   1.364   5.586
18830SOL     OW58386  10.161  11.992   4.280
18830SOL    HW158387  10.158  12.050   4.356
18830SOL    HW258388  10.149  11.904   4.317
18831SOL     OW58389  10.570  11.592   1.916
18831SOL    HW158390  10.480  11.619   1.933
18831SOL    HW258391  10.562  11.529   1.844
18832SOL     OW58392   0.863  10.916   2.512
18832SOL    HW158393   0.870  10.991   2.453
18832SOL    HW258394   0.788  10.937   2.568
18833SOL     OW58395  12.826   6.823   5.939
18833SOL    HW158396  12.828   6.916   5.960
18833SOL    HW258397  12.773   6.818   5.859
18834SOL     OW58398   3.428  13.892   2.123
18834SOL    HW158399   3.423  13.848   2.208
18834SOL    HW258400   3.474  13.830   2.066
18835SOL     OW58401   6.258   4.125   0.375
18835SOL    HW158402   6.164   4.136   0.394
18835SOL    HW258403   6.260   4.072   0.296
18836SOL     OW58404  14.035   2.640  14.047
18836SOL    HW158405  14.103   2.656  14.112
18836SOL    HW258406  14.050   2.705  13.979
18837SOL     OW58407   2.265  10.464   8.612
18837SOL    HW158408   2.309  10.502   8.688
18837SOL    HW258409   2.335  10.420   8.564
18838SOL     OW58410   3.079   2.213   5.128
18838SOL    HW158411   3.147   2.259   5.178
18838SOL    HW258412   3.074   2.261   5.045
18839SOL     OW58413   7.087  10.599  10.762
18839SOL    HW158414   7.053  10.627  10.677
18839SOL    HW258415   7.129  10.515  10.744
18840SOL     OW58416   7.460  11.492   5.889
18840SOL    HW158417   7.404  11.570   5.879
18840SOL    HW258418   7.515  11.512   5.965
18841SOL     OW58419   1.013   3.338   8.432
18841SOL    HW158420   0.927   3.317   8.470
18841SOL    HW258421   1.010   3.433   8.419
18842SOL     OW58422   3.932  13.965   0.603
18842SOL    HW158423   3.903  14.003   0.686
18842SOL    HW258424   3.942  14.041   0.545
18843SOL     OW58425   6.575   2.928  10.797
18843SOL    HW158426   6.579   2.835  10.774
18843SOL    HW258427   6.497   2.935  10.853
18844SOL     OW58428  10.325  12.051   5.994
18844SOL    HW158429  10.385  12.060   5.920
18844SOL    HW258430  10.369  12.097   6.066
18845SOL     OW58431   7.335  12.577  11.379
18845SOL    HW158432   7.252  12.593  11.334
18845SOL    HW258433   7.377  12.508  11.328
18846SOL     OW58434  12.045  14.255   0.498
18846SOL    HW158435  12.010  14.166   0.499
18846SOL    HW258436  12.051  14.277   0.405
18847SOL     OW58437   4.667   1.185   6.455
18847SOL    HW158438   4.673   1.217   6.365
18847SOL    HW258439   4.703   1.096   6.452
18848SOL     OW58440   2.871   3.347   4.525
18848SOL    HW158441   2.944   3.302   4.567
18848SOL    HW258442   2.886   3.440   4.544
18849SOL     OW58443   6.879   6.290   4.615
18849SOL    HW158444   6.801   6.343   4.632
18849SOL    HW258445   6.949   6.355   4.600
18850SOL     OW58446  10.232   3.787   8.394
18850SOL    HW158447  10.188   3.871   8.408
18850SOL    HW258448  10.188   3.727   8.455
18851SOL     OW58449   8.204   9.928   8.049
18851SOL    HW158450   8.150   9.883   7.984
18851SOL    HW258451   8.246   9.999   8.000
18852SOL     OW58452   1.302  13.734  13.835
18852SOL    HW158453   1.274  13.646  13.811
18852SOL    HW258454   1.224  13.788  13.825
18853SOL     OW58455  10.727   9.928   0.649
18853SOL    HW158456  10.636   9.944   0.623
18853SOL    HW258457  10.779   9.982   0.590
18854SOL     OW58458   2.457  12.489   4.975
18854SOL    HW158459   2.450  12.460   4.884
18854SOL    HW258460   2.525  12.434   5.013
18855SOL     OW58461  14.027   2.446  13.847
18855SOL    HW158462  13.933   2.446  13.866
18855SOL    HW258463  14.064   2.504  13.913
18856SOL     OW58464   7.295   0.330   1.490
18856SOL    HW158465   7.320   0.419   1.463
18856SOL    HW258466   7.251   0.294   1.413
18857SOL     OW58467   9.890   2.792   5.419
18857SOL    HW158468   9.800   2.800   5.389
18857SOL    HW258469   9.899   2.857   5.488
18858SOL     OW58470   0.107   0.716   3.419
18858SOL    HW158471   0.011   0.706   3.423
18858SOL    HW258472   0.137   0.694   3.508
18859SOL     OW58473  12.405   4.457   3.126
18859SOL    HW158474  12.495   4.465   3.156
18859SOL    HW258475  12.408   4.388   3.059
18860SOL     OW58476   3.820   1.729  13.626
18860SOL    HW158477   3.915   1.720  13.638
18860SOL    HW258478   3.807   1.719  13.532
18861SOL     OW58479  13.343   4.029   0.695
18861SOL    HW158480  13.270   4.085   0.669
18861SOL    HW258481  13.414   4.090   0.715
18862SOL     OW58482  11.245   5.300  10.026
18862SOL    HW158483  11.158   5.332  10.053
18862SOL    HW258484  11.227   5.222   9.974
18863SOL     OW58485  12.053  14.105  10.010
18863SOL    HW158486  12.115  14.163  10.055
18863SOL    HW258487  12.025  14.043  10.077
18864SOL     OW58488   0.510  13.560  11.637
18864SOL    HW158489   0.447  13.593  11.572
18864SOL    HW258490   0.586  13.535  11.585
18865SOL     OW58491  12.550   4.962  13.121
18865SOL    HW158492  12.524   5.046  13.084
18865SOL    HW258493  12.558   4.904  13.046
18866SOL     OW58494   1.495   5.413   7.268
18866SOL    HW158495   1.471   5.478   7.202
18866SOL    HW258496   1.432   5.343   7.257
18867SOL     OW58497   0.117   1.651   8.969
18867SOL    HW158498   0.166   1.603   9.035
18867SOL    HW258499   0.055   1.705   9.018
18868SOL     OW58500   1.722   7.930  11.290
18868SOL    HW158501   1.647   7.874  11.272
18868SOL    HW258502   1.790   7.870  11.321
18869SOL     OW58503  13.156   3.788   2.836
18869SOL    HW158504  13.246   3.765   2.811
18869SOL    HW258505  13.116   3.704   2.857
18870SOL     OW58506   9.988  11.010   6.706
18870SOL    HW158507   9.936  10.939   6.745
18870SOL    HW258508   9.925  11.062   6.657
18871SOL     OW58509  14.804   3.874   2.231
18871SOL    HW158510  14.818   3.910   2.143
18871SOL    HW258511  14.845   3.788   2.229
18872SOL     OW58512   7.282  11.099   6.683
18872SOL    HW158513   7.213  11.166   6.685
18872SOL    HW258514   7.266  11.052   6.601
18873SOL     OW58515  11.312  12.611  10.326
18873SOL    HW158516  11.299  12.687  10.382
18873SOL    HW258517  11.224  12.592  10.291
18874SOL     OW58518   6.887   5.892   3.030
18874SOL    HW158519   6.918   5.932   3.112
18874SOL    HW258520   6.898   5.798   3.043
18875SOL     OW58521   5.525   2.838  11.537
18875SOL    HW158522   5.509   2.932  11.529
18875SOL    HW258523   5.438   2.799  11.525
18876SOL     OW58524   6.798  10.657  11.193
18876SOL    HW158525   6.813  10.732  11.251
18876SOL    HW258526   6.823  10.689  11.107
18877SOL     OW58527   7.429   9.724   2.318
18877SOL    HW158528   7.468   9.672   2.388
18877SOL    HW258529   7.392   9.801   2.363
18878SOL     OW58530   1.514  10.596  14.812
18878SOL    HW158531   1.512  10.625   0.029
18878SOL    HW258532   1.439  10.537  14.804
18879SOL     OW58533   3.218  13.363   9.937
18879SOL    HW158534   3.270  13.283   9.941
18879SOL    HW258535   3.254  13.412   9.863
18880SOL     OW58536   9.125   8.904  10.675
18880SOL    HW158537   9.090   8.913  10.763
18880SOL    HW258538   9.097   8.984  10.630
18881SOL     OW58539   4.701   8.173  13.404
18881SOL    HW158540   4.749   8.234  13.349
18881SOL    HW258541   4.756   8.094  13.407
18882SOL     OW58542   5.104  12.161  11.425
18882SOL    HW158543   5.182  12.131  11.473
18882SOL    HW258544   5.037  12.171  11.492
18883SOL     OW58545   7.933   8.733   4.530
18883SOL    HW158546   7.879   8.757   4.606
18883SOL    HW258547   8.015   8.780   4.544
18884SOL     OW58548  13.711  13.962   8.834
18884SOL    HW158549  13.689  14.055   8.843
18884SOL    HW258550  13.786  13.960   8.775
18885SOL     OW58551  12.607  10.261   3.262
18885SOL    HW158552  12.650  10.236   3.344
18885SOL    HW258553  12.617  10.185   3.205
18886SOL     OW58554  12.603   7.879   6.366
18886SOL    HW158555  12.558   7.794   6.360
18886SOL    HW258556  12.601   7.913   6.276
18887SOL     OW58557   4.500   7.947  10.558
18887SOL    HW158558   4.440   7.875  10.540
18887SOL    HW258559   4.544   7.921  10.639
18888SOL     OW58560   9.216  11.877   8.241
18888SOL    HW158561   9.123  11.876   8.221
18888SOL    HW258562   9.226  11.944   8.308
18889SOL     OW58563   2.332   1.771   2.595
18889SOL    HW158564   2.341   1.792   2.688
18889SOL    HW258565   2.319   1.856   2.553
18890SOL     OW58566   9.230   1.636   8.006
18890SOL    HW158567   9.229   1.540   8.003
18890SOL    HW258568   9.176   1.662   7.931
18891SOL     OW58569  10.751   6.173  11.199
18891SOL    HW158570  10.681   6.115  11.228
18891SOL    HW258571  10.753   6.243  11.264
18892SOL     OW58572  11.703  13.533   8.231
18892SOL    HW158573  11.739  13.483   8.305
18892SOL    HW258574  11.711  13.474   8.156
18893SOL     OW58575   0.489   7.381   3.633
18893SOL    HW158576   0.542   7.461   3.632
18893SOL    HW258577   0.500   7.346   3.721
18894SOL     OW58578   4.751  13.215  14.722
18894SOL    HW158579   4.695  13.276  14.770
18894SOL    HW258580   4.692  13.174  14.658
18895SOL     OW58581   6.739  13.611   4.766
18895SOL    HW158582   6.822  13.657   4.781
18895SOL    HW258583   6.677  13.680   4.746
18896SOL     OW58584  13.613   4.947   3.649
18896SOL    HW158585  13.603   4.853   3.662
18896SOL    HW258586  13.636   4.956   3.556
18897SOL     OW58587   7.750   5.777   2.082
18897SOL    HW158588   7.786   5.714   2.018
18897SOL    HW258589   7.776   5.741   2.167
18898SOL     OW58590   6.840   3.439   0.152
18898SOL    HW158591   6.843   3.534   0.154
18898SOL    HW258592   6.918   3.414   0.101
18899SOL     OW58593   9.215   6.406  11.643
18899SOL    HW158594   9.233   6.481  11.587
18899SOL    HW258595   9.138   6.364  11.603
18900SOL     OW58596   9.497  13.494   1.798
18900SOL    HW158597   9.530  13.572   1.754
18900SOL    HW258598   9.441  13.451   1.733
18901SOL     OW58599  10.401  10.319   0.587
18901SOL    HW158600  10.347  10.339   0.663
18901SOL    HW258601  10.397  10.398   0.533
18902SOL     OW58602  11.644  12.833  12.691
18902SOL    HW158603  11.708  12.887  12.738
18902SOL    HW258604  11.674  12.833  12.600
18903SOL     OW58605   2.615  11.835  12.961
18903SOL    HW158606   2.682  11.812  13.025
18903SOL    HW258607   2.586  11.751  12.925
18904SOL     OW58608   1.741   4.572   5.343
18904SOL    HW158609   1.768   4.641   5.283
18904SOL    HW258610   1.809   4.505   5.335
18905SOL     OW58611  12.914   3.061   4.316
18905SOL    HW158612  12.942   3.042   4.227
18905SOL    HW258613  12.994   3.059   4.368
18906SOL     OW58614   0.357   9.380  11.722
18906SOL    HW158615   0.391   9.308  11.775
18906SOL    HW258616   0.345   9.342  11.635
18907SOL     OW58617   4.011   8.972   7.825
18907SOL    HW158618   4.096   8.951   7.785
18907SOL    HW258619   4.031   9.042   7.887
18908SOL     OW58620   0.767  12.035   2.145
18908SOL    HW158621   0.822  11.971   2.190
18908SOL    HW258622   0.711  11.983   2.088
18909SOL     OW58623  14.269   2.863   5.426
18909SOL    HW158624  14.218   2.944   5.422
18909SOL    HW258625  14.311   2.865   5.511
18910SOL     OW58626  13.521  14.613   0.205
18910SOL    HW158627  13.613  14.601   0.182
18910SOL    HW258628  13.473  14.591   0.125
18911SOL     OW58629   7.234  12.396  12.582
18911SOL    HW158630   7.188  12.312  12.578
18911SOL    HW258631   7.163  12.461  12.584
18912SOL     OW58632  10.422   8.373   1.898
18912SOL    HW158633  10.379   8.456   1.879
18912SOL    HW258634  10.409   8.321   1.818
18913SOL     OW58635   4.281   6.092   1.277
18913SOL    HW158636   4.210   6.041   1.239
18913SOL    HW258637   4.298   6.162   1.214
18914SOL     OW58638   6.720   8.482  12.762
18914SOL    HW158639   6.782   8.452  12.827
18914SOL    HW258640   6.665   8.546  12.808
18915SOL     OW58641   6.729   5.397  13.754
18915SOL    HW158642   6.734   5.478  13.804
18915SOL    HW258643   6.811   5.394  13.704
18916SOL     OW58644  11.993   5.994   1.634
18916SOL    HW158645  11.905   6.031   1.625
18916SOL    HW258646  11.979   5.906   1.669
18917SOL     OW58647   0.112   1.434  10.510
18917SOL    HW158648   0.178   1.489  10.553
18917SOL    HW258649   0.061   1.397  10.582
18918SOL     OW58650   1.665   0.939   5.114
18918SOL    HW158651   1.609   0.972   5.185
18918SOL    HW258652   1.694   0.853   5.144
18919SOL     OW58653  10.020  14.201   2.509
18919SOL    HW158654  10.087  14.140   2.539
18919SOL    HW258655   9.941  14.148   2.498
18920SOL     OW58656  14.547  12.870  10.509
18920SOL    HW158657  14.497  12.949  10.531
18920SOL    HW258658  14.606  12.898  10.440
18921SOL     OW58659   2.630  11.560   4.817
18921SOL    HW158660   2.666  11.533   4.902
18921SOL    HW258661   2.700  11.542   4.754
18922SOL     OW58662   3.801   4.202  13.295
18922SOL    HW158663   3.739   4.167  13.359
18922SOL    HW258664   3.763   4.179  13.210
18923SOL     OW58665  10.769  13.344   7.998
18923SOL    HW158666  10.770  13.257   8.038
18923SOL    HW258667  10.678  13.371   8.001
18924SOL     OW58668   5.967   0.260  10.429
18924SOL    HW158669   5.982   0.181  10.483
18924SOL    HW258670   6.035   0.321  10.456
18925SOL     OW58671   9.214   9.901  13.431
18925SOL    HW158672   9.152   9.853  13.375
18925SOL    HW258673   9.232   9.982  13.382
18926SOL     OW58674   4.219   0.124   0.226
18926SOL    HW158675   4.265   0.113   0.143
18926SOL    HW258676   4.287   0.118   0.292
18927SOL     OW58677   2.843  12.258   5.663
18927SOL    HW158678   2.822  12.171   5.697
18927SOL    HW258679   2.761  12.307   5.669
18928SOL     OW58680  12.173  13.054   9.497
18928SOL    HW158681  12.126  13.135   9.480
18928SOL    HW258682  12.216  13.034   9.413
18929SOL     OW58683  13.391   9.897   4.533
18929SOL    HW158684  13.321   9.923   4.594
18929SOL    HW258685  13.367   9.939   4.451
18930SOL     OW58686  14.771   9.951   0.060
18930SOL    HW158687  14.789  10.023   0.120
18930SOL    HW258688  14.803   9.873   0.106
18931SOL     OW58689   6.593   7.564   4.811
18931SOL    HW158690   6.647   7.559   4.732
18931SOL    HW258691   6.506   7.534   4.783
18932SOL     OW58692  14.579  11.003   5.872
18932SOL    HW158693  14.524  10.925   5.862
18932SOL    HW258694  14.569  11.049   5.788
18933SOL     OW58695  12.303   0.250   2.618
18933SOL    HW158696  12.363   0.191   2.572
18933SOL    HW258697  12.357   0.327   2.638
18934SOL     OW58698  10.693   9.720   2.293
18934SOL    HW158699  10.695   9.801   2.344
18934SOL    HW258700  10.771   9.724   2.238
18935SOL     OW58701   4.617  13.918  10.414
18935SOL    HW158702   4.579  13.935  10.500
18935SOL    HW258703   4.566  13.971  10.353
18936SOL     OW58704   0.365   5.865   6.699
18936SOL    HW158705   0.439   5.923   6.682
18936SOL    HW258706   0.317   5.863   6.617
18937SOL     OW58707  10.107   0.022   1.832
18937SOL    HW158708  10.079  14.823   1.778
18937SOL    HW258709  10.139  14.857   1.913
18938SOL     OW58710   3.412  11.118   5.937
18938SOL    HW158711   3.471  11.170   5.883
18938SOL    HW258712   3.411  11.162   6.022
18939SOL     OW58713   9.837  10.428  12.879
18939SOL    HW158714   9.792  10.452  12.798
18939SOL    HW258715   9.929  10.422  12.854
18940SOL     OW58716   2.569   1.322  13.361
18940SOL    HW158717   2.605   1.399  13.316
18940SOL    HW258718   2.478   1.344  13.378
18941SOL     OW58719   5.782   3.581   9.338
18941SOL    HW158720   5.746   3.493   9.353
18941SOL    HW258721   5.851   3.590   9.404
18942SOL     OW58722   2.011  10.845   0.244
18942SOL    HW158723   1.991  10.917   0.184
18942SOL    HW258724   1.986  10.877   0.330
18943SOL     OW58725  12.794   3.364   8.017
18943SOL    HW158726  12.779   3.394   8.107
18943SOL    HW258727  12.812   3.271   8.026
18944SOL     OW58728   0.698   7.913   9.236
18944SOL    HW158729   0.668   7.823   9.249
18944SOL    HW258730   0.649   7.944   9.161
18945SOL     OW58731   0.038   1.933  11.104
18945SOL    HW158732   0.051   1.959  11.012
18945SOL    HW258733   0.020   1.840  11.100
18946SOL     OW58734  11.163   4.125  14.850
18946SOL    HW158735  11.180   4.197   0.036
18946SOL    HW258736  11.248   4.083  14.838
18947SOL     OW58737   7.857  11.424   3.862
18947SOL    HW158738   7.906  11.379   3.793
18947SOL    HW258739   7.907  11.504   3.878
18948SOL     OW58740  10.776   6.071   8.233
18948SOL    HW158741  10.794   5.977   8.236
18948SOL    HW258742  10.812   6.105   8.315
18949SOL     OW58743   8.605   8.090   9.331
18949SOL    HW158744   8.629   7.998   9.340
18949SOL    HW258745   8.630   8.129   9.415
18950SOL     OW58746   6.725  12.836   1.217
18950SOL    HW158747   6.738  12.818   1.310
18950SOL    HW258748   6.666  12.911   1.215
18951SOL     OW58749   8.476   0.095   7.711
18951SOL    HW158750   8.486   0.184   7.678
18951SOL    HW258751   8.409   0.102   7.779
18952SOL     OW58752   7.911  11.902   8.469
18952SOL    HW158753   7.992  11.854   8.490
18952SOL    HW258754   7.938  11.993   8.463
18953SOL     OW58755   2.573  12.505   1.048
18953SOL    HW158756   2.488  12.531   1.011
18953SOL    HW258757   2.625  12.478   0.972
18954SOL     OW58758  11.828  10.663   6.488
18954SOL    HW158759  11.867  10.711   6.561
18954SOL    HW258760  11.900  10.651   6.426
18955SOL     OW58761   3.781   6.798  13.893
18955SOL    HW158762   3.853   6.853  13.861
18955SOL    HW258763   3.705   6.855  13.893
18956SOL     OW58764  10.142  10.660  10.032
18956SOL    HW158765  10.231  10.679  10.062
18956SOL    HW258766  10.111  10.591  10.090
18957SOL     OW58767   9.694  14.318   3.669
18957SOL    HW158768   9.688  14.408   3.699
18957SOL    HW258769   9.692  14.265   3.748
18958SOL     OW58770   1.940   7.264  12.130
18958SOL    HW158771   2.016   7.221  12.170
18958SOL    HW258772   1.872   7.196  12.130
18959SOL     OW58773   4.770  12.213   5.981
18959SOL    HW158774   4.702  12.201   6.047
18959SOL    HW258775   4.833  12.142   5.998
18960SOL     OW58776   8.830   0.206   3.556
18960SOL    HW158777   8.744   0.167   3.544
18960SOL    HW258778   8.856   0.237   3.469
18961SOL     OW58779  10.401  11.701  11.492
18961SOL    HW158780  10.328  11.717  11.432
18961SOL    HW258781  10.372  11.740  11.575
18962SOL     OW58782  12.659   2.886   2.826
18962SOL    HW158783  12.682   2.950   2.758
18962SOL    HW258784  12.563   2.887   2.828
18963SOL     OW58785   3.017   5.496  14.187
18963SOL    HW158786   2.958   5.569  14.168
18963SOL    HW258787   3.104   5.536  14.190
18964SOL     OW58788   0.651   4.391   2.134
18964SOL    HW158789   0.675   4.426   2.220
18964SOL    HW258790   0.658   4.296   2.145
18965SOL     OW58791  11.583  14.517  12.319
18965SOL    HW158792  11.581  14.604  12.278
18965SOL    HW258793  11.500  14.512  12.367
18966SOL     OW58794   8.101   5.328   4.981
18966SOL    HW158795   8.166   5.281   4.929
18966SOL    HW258796   8.152   5.384   5.040
18967SOL     OW58797   8.021   3.759   4.051
18967SOL    HW158798   8.102   3.800   4.021
18967SOL    HW258799   8.025   3.764   4.146
18968SOL     OW58800   4.842  11.790  14.326
18968SOL    HW158801   4.780  11.854  14.290
18968SOL    HW258802   4.788  11.728  14.373
18969SOL     OW58803   3.102  11.028  11.872
18969SOL    HW158804   3.097  10.979  11.954
18969SOL    HW258805   3.063  11.113  11.893
18970SOL     OW58806  14.720  10.393  14.427
18970SOL    HW158807  14.725  10.305  14.465
18970SOL    HW258808  14.647  10.389  14.365
18971SOL     OW58809  10.453  10.849   9.131
18971SOL    HW158810  10.421  10.759   9.125
18971SOL    HW258811  10.374  10.900   9.151
18972SOL     OW58812   6.491   2.429  13.253
18972SOL    HW158813   6.451   2.347  13.225
18972SOL    HW258814   6.418   2.482  13.284
18973SOL     OW58815   6.594   3.654  12.278
18973SOL    HW158816   6.645   3.573  12.273
18973SOL    HW258817   6.656   3.720  12.309
18974SOL     OW58818   3.732   0.321  13.995
18974SOL    HW158819   3.772   0.375  13.927
18974SOL    HW258820   3.787   0.334  14.072
18975SOL     OW58821  11.080   6.281   6.156
18975SOL    HW158822  11.118   6.369   6.165
18975SOL    HW258823  10.987   6.296   6.139
18976SOL     OW58824   2.815   8.363  12.922
18976SOL    HW158825   2.785   8.374  12.832
18976SOL    HW258826   2.736   8.368  12.975
18977SOL     OW58827   8.455   9.311   8.926
18977SOL    HW158828   8.521   9.363   8.880
18977SOL    HW258829   8.403   9.271   8.857
18978SOL     OW58830   5.356   0.277   4.850
18978SOL    HW158831   5.381   0.209   4.913
18978SOL    HW258832   5.361   0.234   4.765
18979SOL     OW58833   5.050   5.572   9.302
18979SOL    HW158834   5.130   5.576   9.251
18979SOL    HW258835   4.985   5.618   9.248
18980SOL     OW58836   9.395   4.308   3.322
18980SOL    HW158837   9.382   4.258   3.241
18980SOL    HW258838   9.489   4.302   3.339
18981SOL     OW58839  12.731  14.036   8.069
18981SOL    HW158840  12.675  14.085   8.008
18981SOL    HW258841  12.740  13.950   8.030
18982SOL     OW58842  12.522   0.699   8.722
18982SOL    HW158843  12.549   0.753   8.797
18982SOL    HW258844  12.531   0.609   8.753
18983SOL     OW58845   2.770  11.314   8.311
18983SOL    HW158846   2.744  11.404   8.292
18983SOL    HW258847   2.709  11.285   8.380
18984SOL     OW58848   8.940   9.292   3.674
18984SOL    HW158849   8.963   9.259   3.761
18984SOL    HW258850   9.018   9.276   3.620
18985SOL     OW58851   8.072  13.610   6.388
18985SOL    HW158852   8.022  13.543   6.342
18985SOL    HW258853   8.135  13.642   6.324
18986SOL     OW58854  13.110   2.770   8.069
18986SOL    HW158855  13.044   2.703   8.081
18986SOL    HW258856  13.150   2.750   7.984
18987SOL     OW58857   5.984  10.717  11.512
18987SOL    HW158858   6.026  10.740  11.595
18987SOL    HW258859   5.914  10.782  11.503
18988SOL     OW58860   5.950   7.792   3.817
18988SOL    HW158861   5.943   7.882   3.786
18988SOL    HW258862   5.863   7.772   3.853
18989SOL     OW58863  12.922   4.373  12.483
18989SOL    HW158864  12.900   4.401  12.572
18989SOL    HW258865  12.922   4.277  12.488
18990SOL     OW58866   7.204  11.487  14.615
18990SOL    HW158867   7.223  11.510  14.706
18990SOL    HW258868   7.133  11.547  14.590
18991SOL     OW58869   7.534   9.260   1.418
18991SOL    HW158870   7.550   9.351   1.444
18991SOL    HW258871   7.580   9.250   1.336
18992SOL     OW58872   0.672   6.291  13.131
18992SOL    HW158873   0.584   6.303  13.167
18992SOL    HW258874   0.660   6.228  13.059
18993SOL     OW58875   4.751  13.840   6.899
18993SOL    HW158876   4.769  13.910   6.962
18993SOL    HW258877   4.810  13.858   6.826
18994SOL     OW58878   4.533   2.555   2.751
18994SOL    HW158879   4.543   2.546   2.846
18994SOL    HW258880   4.605   2.612   2.724
18995SOL     OW58881   5.489   3.320   5.973
18995SOL    HW158882   5.429   3.252   5.944
18995SOL    HW258883   5.525   3.357   5.892
18996SOL     OW58884  14.316   0.326   1.929
18996SOL    HW158885  14.373   0.251   1.946
18996SOL    HW258886  14.363   0.378   1.864
18997SOL     OW58887  11.346   0.219   8.626
18997SOL    HW158888  11.372   0.282   8.693
18997SOL    HW258889  11.382   0.136   8.656
18998SOL     OW58890   9.325   5.982   2.711
18998SOL    HW158891   9.250   6.039   2.694
18998SOL    HW258892   9.321   5.917   2.641
18999SOL     OW58893  12.529   9.831  14.414
18999SOL    HW158894  12.564   9.909  14.458
18999SOL    HW258895  12.435   9.845  14.412
19000SOL     OW58896   9.987  13.634  12.186
19000SOL    HW158897   9.967  13.571  12.255
19000SOL    HW258898  10.037  13.702  12.230
19001SOL     OW58899   1.958   8.018   7.399
19001SOL    HW158900   1.920   7.938   7.363
19001SOL    HW258901   1.946   8.010   7.494
19002SOL     OW58902  13.285   8.429   6.056
19002SOL    HW158903  13.366   8.411   6.104
19002SOL    HW258904  13.295   8.382   5.973
19003SOL     OW58905  11.615   9.842  13.284
19003SOL    HW158906  11.601   9.813  13.194
19003SOL    HW258907  11.639   9.762  13.332
19004SOL     OW58908   8.425   9.002   3.544
19004SOL    HW158909   8.493   9.049   3.593
19004SOL    HW258910   8.418   9.051   3.462
19005SOL     OW58911  13.215   8.462   1.128
19005SOL    HW158912  13.205   8.431   1.038
19005SOL    HW258913  13.150   8.532   1.137
19006SOL     OW58914   4.353   4.790   9.110
19006SOL    HW158915   4.379   4.845   9.183
19006SOL    HW258916   4.278   4.835   9.071
19007SOL     OW58917   7.444   4.490   1.793
19007SOL    HW158918   7.523   4.484   1.846
19007SOL    HW258919   7.381   4.535   1.849
19008SOL     OW58920  13.960   1.128  14.684
19008SOL    HW158921  13.925   1.093  14.766
19008SOL    HW258922  13.884   1.136  14.627
19009SOL     OW58923   5.385  10.299  13.618
19009SOL    HW158924   5.480  10.302  13.611
19009SOL    HW258925   5.355  10.367  13.558
19010SOL     OW58926   2.825  12.849   2.557
19010SOL    HW158927   2.790  12.915   2.617
19010SOL    HW258928   2.766  12.773   2.567
19011SOL     OW58929   5.314   5.268   9.469
19011SOL    HW158930   5.248   5.335   9.486
19011SOL    HW258931   5.354   5.251   9.554
19012SOL     OW58932   6.235   1.858   6.942
19012SOL    HW158933   6.219   1.895   7.029
19012SOL    HW258934   6.330   1.845   6.939
19013SOL     OW58935   3.295   1.534   7.513
19013SOL    HW158936   3.217   1.497   7.471
19013SOL    HW258937   3.368   1.484   7.476
19014SOL     OW58938   1.341   7.437  10.064
19014SOL    HW158939   1.324   7.476   9.979
19014SOL    HW258940   1.400   7.363  10.046
19015SOL     OW58941   0.533   5.117   4.708
19015SOL    HW158942   0.498   5.138   4.795
19015SOL    HW258943   0.470   5.055   4.671
19016SOL     OW58944   6.740   6.961   7.227
19016SOL    HW158945   6.649   6.965   7.198
19016SOL    HW258946   6.746   6.878   7.275
19017SOL     OW58947   6.191   8.592   2.579
19017SOL    HW158948   6.204   8.498   2.565
19017SOL    HW258949   6.097   8.604   2.577
19018SOL     OW58950   0.733   2.971  10.437
19018SOL    HW158951   0.796   2.968  10.510
19018SOL    HW258952   0.713   3.064  10.426
19019SOL     OW58953  11.428   0.742  13.294
19019SOL    HW158954  11.477   0.824  13.288
19019SOL    HW258955  11.337   0.769  13.302
19020SOL     OW58956   7.532   4.563   5.978
19020SOL    HW158957   7.482   4.507   6.038
19020SOL    HW258958   7.529   4.517   5.894
19021SOL     OW58959   0.889   8.118  12.136
19021SOL    HW158960   0.835   8.197  12.137
19021SOL    HW258961   0.978   8.150  12.124
19022SOL     OW58962   6.424   6.424  13.063
19022SOL    HW158963   6.368   6.398  13.136
19022SOL    HW258964   6.502   6.369  13.072
19023SOL     OW58965   8.308   0.122  13.836
19023SOL    HW158966   8.336   0.198  13.886
19023SOL    HW258967   8.234   0.153  13.784
19024SOL     OW58968   0.682  11.781   8.411
19024SOL    HW158969   0.689  11.841   8.485
19024SOL    HW258970   0.727  11.826   8.340
19025SOL     OW58971  12.113  12.850   6.436
19025SOL    HW158972  12.186  12.810   6.389
19025SOL    HW258973  12.147  12.934   6.467
19026SOL     OW58974   7.509   0.161  14.254
19026SOL    HW158975   7.599   0.185  14.276
19026SOL    HW258976   7.518   0.094  14.186
19027SOL     OW58977  12.037   9.068   7.345
19027SOL    HW158978  12.082   9.036   7.267
19027SOL    HW258979  12.101   9.125   7.388
19028SOL     OW58980  14.792   2.831  13.811
19028SOL    HW158981  14.816   2.917  13.847
19028SOL    HW258982   0.000   2.795  13.779
19029SOL     OW58983   0.227   9.145   5.755
19029SOL    HW158984   0.224   9.125   5.849
19029SOL    HW258985   0.168   9.220   5.745
19030SOL     OW58986  11.063   9.814  13.623
19030SOL    HW158987  11.029   9.897  13.656
19030SOL    HW258988  11.141   9.838  13.573
19031SOL     OW58989  11.209   9.149   9.991
19031SOL    HW158990  11.142   9.081  10.000
19031SOL    HW258991  11.292   9.102  10.000
19032SOL     OW58992  12.546   6.875   4.894
19032SOL    HW158993  12.565   6.938   4.824
19032SOL    HW258994  12.463   6.836   4.869
19033SOL     OW58995   9.980  12.607   2.762
19033SOL    HW158996  10.002  12.653   2.681
19033SOL    HW258997  10.012  12.663   2.832
19034SOL     OW58998   1.641   8.855   3.100
19034SOL    HW158999   1.599   8.770   3.105
19034SOL    HW259000   1.572   8.916   3.074
19035SOL     OW59001  14.733   3.966   8.177
19035SOL    HW159002  14.753   3.970   8.083
19035SOL    HW259003  14.638   3.981   8.181
19036SOL     OW59004   4.767   5.446   9.006
19036SOL    HW159005   4.685   5.477   8.969
19036SOL    HW259006   4.817   5.413   8.931
19037SOL     OW59007  13.842   0.445   9.429
19037SOL    HW159008  13.801   0.419   9.347
19037SOL    HW259009  13.852   0.364   9.479
19038SOL     OW59010   8.872   7.343  14.280
19038SOL    HW159011   8.808   7.321  14.211
19038SOL    HW259012   8.852   7.281  14.351
19039SOL     OW59013   7.867   0.634   5.255
19039SOL    HW159014   7.878   0.725   5.225
19039SOL    HW259015   7.908   0.582   5.186
19040SOL     OW59016  11.663   9.248  13.590
19040SOL    HW159017  11.656   9.233  13.495
19040SOL    HW259018  11.576   9.282  13.615
19041SOL     OW59019   4.725  14.158  13.050
19041SOL    HW159020   4.678  14.192  12.974
19041SOL    HW259021   4.795  14.104  13.011
19042SOL     OW59022   2.033   6.576   9.724
19042SOL    HW159023   2.088   6.504   9.755
19042SOL    HW259024   1.944   6.543   9.731
19043SOL     OW59025   5.257   1.460  11.254
19043SOL    HW159026   5.185   1.488  11.197
19043SOL    HW259027   5.244   1.508  11.335
19044SOL     OW59028  12.969   2.896   3.866
19044SOL    HW159029  12.913   2.852   3.802
19044SOL    HW259030  13.044   2.837   3.876
19045SOL     OW59031   1.445   6.075  13.498
19045SOL    HW159032   1.368   6.024  13.523
19045SOL    HW259033   1.519   6.018  13.516
19046SOL     OW59034   5.470   1.130   3.029
19046SOL    HW159035   5.544   1.169   3.074
19046SOL    HW259036   5.412   1.099   3.099
19047SOL     OW59037  12.675  10.531  12.569
19047SOL    HW159038  12.766  10.560  12.563
19047SOL    HW259039  12.631  10.601  12.617
19048SOL     OW59040   0.929   3.433  11.386
19048SOL    HW159041   0.895   3.393  11.465
19048SOL    HW259042   0.855   3.479  11.347
19049SOL     OW59043   2.463   9.972  12.449
19049SOL    HW159044   2.450  10.020  12.367
19049SOL    HW259045   2.533  10.020  12.493
19050SOL     OW59046  13.853  13.469  12.658
19050SOL    HW159047  13.794  13.532  12.699
19050SOL    HW259048  13.920  13.453  12.724
19051SOL     OW59049   9.707  14.006   3.190
19051SOL    HW159050   9.777  14.055   3.146
19051SOL    HW259051   9.627  14.039   3.150
19052SOL     OW59052   7.912   3.274  10.578
19052SOL    HW159053   7.899   3.210  10.649
19052SOL    HW259054   7.892   3.358  10.618
19053SOL     OW59055   6.667  11.812  13.143
19053SOL    HW159056   6.628  11.831  13.228
19053SOL    HW259057   6.616  11.865  13.081
19054SOL     OW59058  14.758   1.586   0.699
19054SOL    HW159059  14.802   1.534   0.632
19054SOL    HW259060  14.772   1.677   0.673
19055SOL     OW59061   1.155   9.310  12.627
19055SOL    HW159062   1.131   9.280  12.714
19055SOL    HW259063   1.183   9.401  12.639
19056SOL     OW59064   4.404   7.611   5.509
19056SOL    HW159065   4.467   7.549   5.472
19056SOL    HW259066   4.397   7.585   5.601
19057SOL     OW59067   3.749   3.506   7.567
19057SOL    HW159068   3.694   3.430   7.585
19057SOL    HW259069   3.695   3.581   7.594
19058SOL     OW59070   2.593  12.490   3.094
19058SOL    HW159071   2.510  12.498   3.047
19058SOL    HW259072   2.571  12.443   3.174
19059SOL     OW59073   9.957   8.921   4.280
19059SOL    HW159074  10.040   8.963   4.302
19059SOL    HW259075   9.930   8.878   4.361
19060SOL     OW59076   9.636   6.233   4.004
19060SOL    HW159077   9.726   6.263   4.014
19060SOL    HW259078   9.618   6.241   3.910
19061SOL     OW59079  12.253  11.477   7.679
19061SOL    HW159080  12.235  11.474   7.773
19061SOL    HW259081  12.333  11.426   7.668
19062SOL     OW59082  13.173   5.590   2.241
19062SOL    HW159083  13.207   5.679   2.239
19062SOL    HW259084  13.250   5.535   2.249
19063SOL     OW59085   9.570   1.144   8.552
19063SOL    HW159086   9.562   1.237   8.531
19063SOL    HW259087   9.592   1.142   8.645
19064SOL     OW59088   2.045  13.205  10.610
19064SOL    HW159089   2.106  13.164  10.671
19064SOL    HW259090   2.096  13.274  10.567
19065SOL     OW59091  11.728   2.145   9.859
19065SOL    HW159092  11.703   2.127   9.768
19065SOL    HW259093  11.671   2.218   9.885
19066SOL     OW59094   4.685  12.955   9.229
19066SOL    HW159095   4.649  13.043   9.234
19066SOL    HW259096   4.695  12.938   9.135
19067SOL     OW59097  11.480   7.989   6.002
19067SOL    HW159098  11.400   8.011   5.954
19067SOL    HW259099  11.460   8.012   6.093
19068SOL     OW59100   9.394   9.318  11.434
19068SOL    HW159101   9.320   9.257  11.446
19068SOL    HW259102   9.430   9.295  11.348
19069SOL     OW59103   6.255   3.751  13.936
19069SOL    HW159104   6.301   3.701  14.003
19069SOL    HW259105   6.165   3.719  13.937
19070SOL     OW59106   3.859  12.599   7.016
19070SOL    HW159107   3.812  12.543   6.955
19070SOL    HW259108   3.937  12.628   6.967
19071SOL     OW59109  10.290   7.536  14.114
19071SOL    HW159110  10.335   7.489  14.044
19071SOL    HW259111  10.326   7.624  14.111
19072SOL     OW59112   1.534   3.731  14.777
19072SOL    HW159113   1.588   3.699  14.850
19072SOL    HW259114   1.504   3.817  14.806
19073SOL     OW59115   3.572   9.275  13.452
19073SOL    HW159116   3.509   9.208  13.478
19073SOL    HW259117   3.607   9.246  13.368
19074SOL     OW59118   0.395  10.551   9.692
19074SOL    HW159119   0.346  10.479   9.732
19074SOL    HW259120   0.428  10.601   9.767
19075SOL     OW59121   2.626  12.023   0.372
19075SOL    HW159122   2.674  11.941   0.361
19075SOL    HW259123   2.687  12.080   0.419
19076SOL     OW59124   9.273   5.916  12.833
19076SOL    HW159125   9.198   5.935  12.777
19076SOL    HW259126   9.251   5.833  12.875
19077SOL     OW59127   4.426  12.603  12.885
19077SOL    HW159128   4.391  12.600  12.974
19077SOL    HW259129   4.517  12.575  12.893
19078SOL     OW59130   8.060   9.616  14.861
19078SOL    HW159131   8.029   9.704  14.838
19078SOL    HW259132   7.987   9.576   0.034
19079SOL     OW59133  14.271  14.726   6.906
19079SOL    HW159134  14.357  14.699   6.937
19079SOL    HW259135  14.287  14.805   6.854
19080SOL     OW59136   3.993   5.487  12.012
19080SOL    HW159137   4.054   5.524  11.949
19080SOL    HW259138   4.014   5.394  12.015
19081SOL     OW59139   3.827   4.700  14.327
19081SOL    HW159140   3.741   4.742  14.334
19081SOL    HW259141   3.809   4.616  14.284
19082SOL     OW59142  12.362   1.633  12.699
19082SOL    HW159143  12.407   1.610  12.781
19082SOL    HW259144  12.371   1.728  12.692
19083SOL     OW59145  13.524  12.843  10.514
19083SOL    HW159146  13.480  12.764  10.546
19083SOL    HW259147  13.545  12.893  10.593
19084SOL     OW59148   1.769   0.336   1.893
19084SOL    HW159149   1.722   0.347   1.975
19084SOL    HW259150   1.860   0.325   1.919
19085SOL     OW59151   3.894   7.715   4.827
19085SOL    HW159152   3.915   7.623   4.811
19085SOL    HW259153   3.888   7.723   4.922
19086SOL     OW59154   1.980   2.186  11.049
19086SOL    HW159155   1.977   2.227  10.962
19086SOL    HW259156   1.918   2.114  11.044
19087SOL     OW59157  12.002  12.957   6.199
19087SOL    HW159158  12.070  12.903   6.157
19087SOL    HW259159  12.004  12.931   6.291
19088SOL     OW59160   4.166   6.440   1.689
19088SOL    HW159161   4.182   6.512   1.750
19088SOL    HW259162   4.209   6.364   1.728
19089SOL     OW59163   2.566  11.442   4.333
19089SOL    HW159164   2.474  11.427   4.358
19089SOL    HW259165   2.616  11.413   4.409
19090SOL     OW59166   8.883   1.178   2.156
19090SOL    HW159167   8.802   1.173   2.208
19090SOL    HW259168   8.933   1.249   2.196
19091SOL     OW59169   3.623  13.887   7.993
19091SOL    HW159170   3.585  13.866   7.908
19091SOL    HW259171   3.714  13.912   7.973
19092SOL     OW59172   8.218   1.502   4.219
19092SOL    HW159173   8.209   1.551   4.137
19092SOL    HW259174   8.195   1.565   4.287
19093SOL     OW59175   4.535   8.271   2.422
19093SOL    HW159176   4.576   8.209   2.361
19093SOL    HW259177   4.445   8.240   2.430
19094SOL     OW59178   5.796   5.520   2.222
19094SOL    HW159179   5.769   5.491   2.135
19094SOL    HW259180   5.830   5.609   2.208
19095SOL     OW59181   3.204   9.221  13.642
19095SOL    HW159182   3.165   9.249  13.725
19095SOL    HW259183   3.163   9.277  13.577
19096SOL     OW59184   6.301  13.098   8.278
19096SOL    HW159185   6.238  13.167   8.257
19096SOL    HW259186   6.333  13.068   8.194
19097SOL     OW59187   2.408  11.776  10.239
19097SOL    HW159188   2.337  11.838  10.228
19097SOL    HW259189   2.398  11.713  10.167
19098SOL     OW59190  13.144   5.071  14.138
19098SOL    HW159191  13.064   5.046  14.092
19098SOL    HW259192  13.214   5.045  14.079
19099SOL     OW59193  14.872   7.935   3.745
19099SOL    HW159194   0.089   7.935   3.773
19099SOL    HW259195  14.843   8.025   3.760
19100SOL     OW59196   7.730   8.068   5.874
19100SOL    HW159197   7.818   8.039   5.850
19100SOL    HW259198   7.729   8.162   5.854
19101SOL     OW59199  14.585  13.444  12.410
19101SOL    HW159200  14.640  13.482  12.342
19101SOL    HW259201  14.578  13.513  12.476
19102SOL     OW59202   6.998   7.639   4.049
19102SOL    HW159203   6.990   7.710   3.985
19102SOL    HW259204   7.064   7.580   4.011
19103SOL     OW59205   4.619   8.316   4.690
19103SOL    HW159206   4.611   8.411   4.678
19103SOL    HW259207   4.706   8.304   4.728
19104SOL     OW59208  12.589  11.154  14.577
19104SOL    HW159209  12.511  11.197  14.611
19104SOL    HW259210  12.598  11.075  14.630
19105SOL     OW59211   2.615  10.243  13.543
19105SOL    HW159212   2.603  10.151  13.520
19105SOL    HW259213   2.664  10.241  13.625
19106SOL     OW59214   4.259   6.447   6.444
19106SOL    HW159215   4.186   6.401   6.485
19106SOL    HW259216   4.337   6.418   6.492
19107SOL     OW59217   4.094  11.457   5.993
19107SOL    HW159218   4.067  11.529   5.935
19107SOL    HW259219   4.188  11.449   5.979
19108SOL     OW59220   3.407  14.176   1.756
19108SOL    HW159221   3.318  14.166   1.723
19108SOL    HW259222   3.457  14.205   1.680
19109SOL     OW59223   4.172   6.518   4.229
19109SOL    HW159224   4.109   6.447   4.219
19109SOL    HW259225   4.126   6.596   4.197
19110SOL     OW59226   2.880  10.579  13.690
19110SOL    HW159227   2.940  10.558  13.761
19110SOL    HW259228   2.905  10.520  13.619
19111SOL     OW59229   5.282   5.442   6.166
19111SOL    HW159230   5.332   5.397   6.098
19111SOL    HW259231   5.305   5.397   6.247
19112SOL     OW59232   4.483   8.988   8.245
19112SOL    HW159233   4.422   8.916   8.252
19112SOL    HW259234   4.553   8.967   8.307
19113SOL     OW59235  11.218  14.448  14.698
19113SOL    HW159236  11.203  14.365  14.653
19113SOL    HW259237  11.165  14.511  14.648
19114SOL     OW59238   5.612   5.115   2.390
19114SOL    HW159239   5.639   5.197   2.433
19114SOL    HW259240   5.680   5.052   2.414
19115SOL     OW59241   2.685  13.254   1.030
19115SOL    HW159242   2.592  13.245   1.011
19115SOL    HW259243   2.722  13.296   0.952
19116SOL     OW59244  14.178   5.298   4.393
19116SOL    HW159245  14.167   5.207   4.365
19116SOL    HW259246  14.272   5.314   4.385
19117SOL     OW59247   1.785  12.108   0.842
19117SOL    HW159248   1.704  12.160   0.833
19117SOL    HW259249   1.796  12.097   0.936
19118SOL     OW59250   0.289   6.411   9.243
19118SOL    HW159251   0.302   6.363   9.325
19118SOL    HW259252   0.332   6.495   9.258
19119SOL     OW59253   9.341  10.446  12.303
19119SOL    HW159254   9.427  10.405  12.306
19119SOL    HW259255   9.290  10.392  12.242
19120SOL     OW59256   4.149  13.030   2.156
19120SOL    HW159257   4.110  12.943   2.145
19120SOL    HW259258   4.097  13.087   2.099
19121SOL     OW59259   0.033  13.414   3.139
19121SOL    HW159260   0.016  13.320   3.152
19121SOL    HW259261   0.126  13.418   3.115
19122SOL     OW59262   8.368   0.196  14.151
19122SOL    HW159263   8.457   0.165  14.138
19122SOL    HW259264   8.326   0.126  14.203
19123SOL     OW59265   6.335  12.222   7.902
19123SOL    HW159266   6.404  12.256   7.845
19123SOL    HW259267   6.347  12.270   7.984
19124SOL     OW59268   7.249   6.147   5.652
19124SOL    HW159269   7.181   6.083   5.628
19124SOL    HW259270   7.331   6.098   5.650
19125SOL     OW59271   0.366  12.371   6.640
19125SOL    HW159272   0.376  12.342   6.549
19125SOL    HW259273   0.362  12.290   6.691
19126SOL     OW59274   6.743   3.071  10.179
19126SOL    HW159275   6.736   3.129  10.254
19126SOL    HW259276   6.810   3.112  10.123
19127SOL     OW59277   8.733  11.489   6.159
19127SOL    HW159278   8.683  11.449   6.230
19127SOL    HW259279   8.761  11.574   6.194
19128SOL     OW59280  13.197   9.023   0.684
19128SOL    HW159281  13.258   9.086   0.722
19128SOL    HW259282  13.219   8.940   0.727
19129SOL     OW59283   2.368   9.731   7.883
19129SOL    HW159284   2.399   9.681   7.807
19129SOL    HW259285   2.430   9.804   7.890
19130SOL     OW59286   3.955   7.257   3.815
19130SOL    HW159287   3.862   7.244   3.796
19130SOL    HW259288   3.973   7.199   3.889
19131SOL     OW59289   8.398  14.867   6.076
19131SOL    HW159290   8.433   0.079   6.057
19131SOL    HW259291   8.475  14.810   6.074
19132SOL     OW59292   9.080   4.217   8.174
19132SOL    HW159293   9.128   4.213   8.257
19132SOL    HW259294   9.024   4.140   8.176
19133SOL     OW59295   4.397  13.787  13.709
19133SOL    HW159296   4.470  13.750  13.660
19133SOL    HW259297   4.347  13.710  13.739
19134SOL     OW59298   4.163   4.123   5.038
19134SOL    HW159299   4.085   4.145   5.090
19134SOL    HW259300   4.180   4.031   5.058
19135SOL     OW59301   3.912  14.430   1.868
19135SOL    HW159302   3.857  14.356   1.893
19135SOL    HW259303   3.994  14.417   1.916
19136SOL     OW59304  13.907  10.783   1.637
19136SOL    HW159305  13.899  10.732   1.718
19136SOL    HW259306  13.832  10.842   1.638
19137SOL     OW59307   9.572   4.828   3.006
19137SOL    HW159308   9.667   4.836   3.003
19137SOL    HW259309   9.542   4.914   3.035
19138SOL     OW59310   7.250   8.338   9.801
19138SOL    HW159311   7.330   8.389   9.812
19138SOL    HW259312   7.275   8.248   9.822
19139SOL     OW59313   5.355  14.604  14.574
19139SOL    HW159314   5.275  14.632  14.529
19139SOL    HW259315   5.407  14.684  14.582
19140SOL     OW59316  13.304   0.068  12.860
19140SOL    HW159317  13.318   0.144  12.917
19140SOL    HW259318  13.342  14.870  12.908
19141SOL     OW59319  13.752   8.281   1.964
19141SOL    HW159320  13.844   8.307   1.962
19141SOL    HW259321  13.745   8.214   1.897
19142SOL     OW59322  12.197  11.879  10.387
19142SOL    HW159323  12.251  11.946  10.429
19142SOL    HW259324  12.107  11.912  10.396
19143SOL     OW59325  12.359   6.313   2.726
19143SOL    HW159326  12.382   6.220   2.714
19143SOL    HW259327  12.273   6.322   2.687
19144SOL     OW59328   7.039   8.560   2.536
19144SOL    HW159329   7.008   8.547   2.625
19144SOL    HW259330   6.967   8.605   2.492
19145SOL     OW59331   3.233   6.478   2.825
19145SOL    HW159332   3.196   6.424   2.894
19145SOL    HW259333   3.191   6.448   2.744
19146SOL     OW59334   9.622  10.270  10.467
19146SOL    HW159335   9.534  10.305  10.477
19146SOL    HW259336   9.639  10.274  10.373
19147SOL     OW59337  11.720   5.649   0.029
19147SOL    HW159338  11.676   5.705  14.840
19147SOL    HW259339  11.652   5.629   0.094
19148SOL     OW59340   9.751   8.420   2.219
19148SOL    HW159341   9.750   8.396   2.312
19148SOL    HW259342   9.775   8.339   2.174
19149SOL     OW59343   0.960   2.918   8.680
19149SOL    HW159344   0.955   2.828   8.712
19149SOL    HW259345   1.054   2.932   8.663
19150SOL     OW59346   6.176  10.776  11.319
19150SOL    HW159347   6.112  10.774  11.390
19150SOL    HW259348   6.148  10.706  11.260
19151SOL     OW59349   8.733   4.173   4.647
19151SOL    HW159350   8.726   4.091   4.598
19151SOL    HW259351   8.826   4.183   4.664
19152SOL     OW59352  11.837   8.646  11.428
19152SOL    HW159353  11.830   8.704  11.352
19152SOL    HW259354  11.855   8.560  11.391
19153SOL     OW59355   5.370   0.727  10.643
19153SOL    HW159356   5.427   0.653  10.665
19153SOL    HW259357   5.391   0.794  10.709
19154SOL     OW59358  12.435   4.885   7.568
19154SOL    HW159359  12.370   4.859   7.504
19154SOL    HW259360  12.454   4.805   7.617
19155SOL     OW59361   5.160   9.614   1.112
19155SOL    HW159362   5.188   9.661   1.191
19155SOL    HW259363   5.152   9.523   1.140
19156SOL     OW59364   7.572  11.766   8.272
19156SOL    HW159365   7.636  11.702   8.302
19156SOL    HW259366   7.530  11.725   8.197
19157SOL     OW59367   2.889   9.666   2.185
19157SOL    HW159368   2.951   9.713   2.241
19157SOL    HW259369   2.944   9.617   2.124
19158SOL     OW59370  10.050   0.463   1.345
19158SOL    HW159371  10.110   0.404   1.392
19158SOL    HW259372  10.011   0.517   1.414
19159SOL     OW59373   2.294  11.220  12.875
19159SOL    HW159374   2.203  11.191  12.877
19159SOL    HW259375   2.296  11.290  12.809
19160SOL     OW59376  12.606  11.008  13.812
19160SOL    HW159377  12.574  11.045  13.729
19160SOL    HW259378  12.564  10.922  13.817
19161SOL     OW59379   2.235  13.119  10.792
19161SOL    HW159380   2.305  13.059  10.765
19161SOL    HW259381   2.180  13.066  10.850
19162SOL     OW59382   9.914   7.660  12.779
19162SOL    HW159383   9.993   7.607  12.767
19162SOL    HW259384   9.847   7.615  12.728
19163SOL     OW59385  13.259   3.442   5.445
19163SOL    HW159386  13.244   3.475   5.534
19163SOL    HW259387  13.265   3.347   5.457
19164SOL     OW59388   3.773   9.207  10.800
19164SOL    HW159389   3.701   9.153  10.834
19164SOL    HW259390   3.731   9.265  10.736
19165SOL     OW59391   5.470   5.026  14.286
19165SOL    HW159392   5.450   5.096  14.347
19165SOL    HW259393   5.560   5.001  14.307
19166SOL     OW59394   8.993   7.543   1.870
19166SOL    HW159395   9.088   7.558   1.874
19166SOL    HW259396   8.963   7.555   1.960
19167SOL     OW59397  11.735  13.915   9.465
19167SOL    HW159398  11.708  13.832   9.426
19167SOL    HW259399  11.664  13.939   9.524
19168SOL     OW59400   4.741   3.718   7.516
19168SOL    HW159401   4.836   3.710   7.518
19168SOL    HW259402   4.710   3.628   7.512
19169SOL     OW59403   4.251  13.149   9.236
19169SOL    HW159404   4.156  13.156   9.235
19169SOL    HW259405   4.281  13.239   9.250
19170SOL     OW59406  14.838   8.740  12.936
19170SOL    HW159407   0.023   8.666  12.923
19170SOL    HW259408  14.777   8.710  13.003
19171SOL     OW59409  13.011  12.358   6.484
19171SOL    HW159410  12.916  12.351   6.494
19171SOL    HW259411  13.047  12.307   6.556
19172SOL     OW59412   3.066   7.429   0.385
19172SOL    HW159413   3.112   7.511   0.368
19172SOL    HW259414   3.042   7.396   0.299
19173SOL     OW59415  11.673  11.742   3.721
19173SOL    HW159416  11.721  11.759   3.801
19173SOL    HW259417  11.740  11.729   3.654
19174SOL     OW59418   3.800   7.132  13.023
19174SOL    HW159419   3.752   7.120  12.941
19174SOL    HW259420   3.883   7.085  13.010
19175SOL     OW59421   5.565   9.681  13.436
19175SOL    HW159422   5.604   9.764  13.411
19175SOL    HW259423   5.473   9.690  13.413
19176SOL     OW59424   0.169   9.636  12.145
19176SOL    HW159425   0.261   9.657  12.131
19176SOL    HW259426   0.171   9.548  12.184
19177SOL     OW59427   7.903   6.203   7.542
19177SOL    HW159428   7.939   6.115   7.553
19177SOL    HW259429   7.980   6.260   7.537
19178SOL     OW59430   1.579  13.066   1.059
19178SOL    HW159431   1.524  12.998   1.020
19178SOL    HW259432   1.636  13.019   1.119
19179SOL     OW59433   1.066  14.294   1.297
19179SOL    HW159434   1.008  14.314   1.223
19179SOL    HW259435   1.020  14.327   1.374
19180SOL     OW59436   8.189  13.691   2.332
19180SOL    HW159437   8.252  13.651   2.273
19180SOL    HW259438   8.232  13.690   2.418
19181SOL     OW59439   7.902   9.103   6.381
19181SOL    HW159440   7.970   9.129   6.443
19181SOL    HW259441   7.933   9.020   6.345
19182SOL     OW59442   3.807  11.091  10.886
19182SOL    HW159443   3.729  11.125  10.930
19182SOL    HW259444   3.778  11.074  10.796
19183SOL     OW59445   7.631  13.648  10.607
19183SOL    HW159446   7.565  13.689  10.664
19183SOL    HW259447   7.639  13.559  10.639
19184SOL     OW59448   8.834   9.958   4.230
19184SOL    HW159449   8.807   9.913   4.309
19184SOL    HW259450   8.924   9.930   4.216
19185SOL     OW59451   3.141   8.605  13.417
19185SOL    HW159452   3.123   8.513  13.433
19185SOL    HW259453   3.228   8.620  13.454
19186SOL     OW59454  13.793  11.344  11.912
19186SOL    HW159455  13.712  11.390  11.932
19186SOL    HW259456  13.797  11.341  11.816
19187SOL     OW59457  12.959  13.152  10.952
19187SOL    HW159458  13.046  13.121  10.929
19187SOL    HW259459  12.914  13.074  10.985
19188SOL     OW59460  11.303   7.443   5.641
19188SOL    HW159461  11.338   7.454   5.553
19188SOL    HW259462  11.215   7.407   5.628
19189SOL     OW59463   9.552   1.766   1.360
19189SOL    HW159464   9.630   1.797   1.314
19189SOL    HW259465   9.496   1.731   1.290
19190SOL     OW59466   6.695  13.635  12.068
19190SOL    HW159467   6.670  13.727  12.076
19190SOL    HW259468   6.708  13.605  12.158
19191SOL     OW59469  14.754   7.612   8.792
19191SOL    HW159470  14.833   7.569   8.757
19191SOL    HW259471  14.682   7.569   8.747
19192SOL     OW59472   0.773   9.756  13.442
19192SOL    HW159473   0.747   9.773  13.532
19192SOL    HW259474   0.861   9.719  13.449
19193SOL     OW59475   2.914  12.355  12.732
19193SOL    HW159476   2.952  12.390  12.652
19193SOL    HW259477   2.862  12.427  12.768
19194SOL     OW59478   2.168  11.300  12.396
19194SOL    HW159479   2.090  11.263  12.356
19194SOL    HW259480   2.240  11.245  12.365
19195SOL     OW59481   1.167   6.102   2.600
19195SOL    HW159482   1.220   6.178   2.623
19195SOL    HW259483   1.185   6.087   2.507
19196SOL     OW59484   2.779   4.122   0.420
19196SOL    HW159485   2.719   4.149   0.490
19196SOL    HW259486   2.753   4.176   0.345
19197SOL     OW59487   6.645   4.108  13.740
19197SOL    HW159488   6.684   4.066  13.817
19197SOL    HW259489   6.686   4.064  13.666
19198SOL     OW59490   4.342   8.351   3.197
19198SOL    HW159491   4.362   8.286   3.130
19198SOL    HW259492   4.271   8.311   3.248
19199SOL     OW59493  12.573  10.267   5.670
19199SOL    HW159494  12.508  10.313   5.616
19199SOL    HW259495  12.647  10.254   5.611
19200SOL     OW59496   5.184   2.545   1.532
19200SOL    HW159497   5.148   2.633   1.539
19200SOL    HW259498   5.279   2.557   1.535
19201SOL     OW59499  11.375  14.002   4.508
19201SOL    HW159500  11.287  13.987   4.540
19201SOL    HW259501  11.384  13.944   4.433
19202SOL     OW59502   5.524   8.429   2.202
19202SOL    HW159503   5.581   8.420   2.279
19202SOL    HW259504   5.583   8.425   2.127
19203SOL     OW59505   2.235  14.417   7.411
19203SOL    HW159506   2.142  14.429   7.391
19203SOL    HW259507   2.237  14.339   7.466
19204SOL     OW59508   3.974   5.894   4.336
19204SOL    HW159509   3.917   5.840   4.282
19204SOL    HW259510   4.055   5.900   4.286
19205SOL     OW59511   1.779   7.449  12.804
19205SOL    HW159512   1.805   7.360  12.826
19205SOL    HW259513   1.789   7.498  12.885
19206SOL     OW59514  13.098   2.397   2.223
19206SOL    HW159515  13.190   2.419   2.234
19206SOL    HW259516  13.077   2.427   2.134
19207SOL     OW59517   8.679  12.640  11.608
19207SOL    HW159518   8.743  12.695  11.564
19207SOL    HW259519   8.595  12.666  11.571
19208SOL     OW59520   1.735  14.253  11.975
19208SOL    HW159521   1.778  14.321  12.028
19208SOL    HW259522   1.785  14.174  11.992
19209SOL     OW59523   4.324   1.023   9.530
19209SOL    HW159524   4.304   1.054   9.442
19209SOL    HW259525   4.297   1.094   9.588
19210SOL     OW59526  14.548   0.572   4.696
19210SOL    HW159527  14.539   0.477   4.704
19210SOL    HW259528  14.638   0.585   4.667
19211SOL     OW59529  11.162  12.103   1.654
19211SOL    HW159530  11.117  12.084   1.571
19211SOL    HW259531  11.185  12.018   1.689
19212SOL     OW59532  12.546   1.183   8.954
19212SOL    HW159533  12.634   1.217   8.935
19212SOL    HW259534  12.492   1.218   8.883
19213SOL     OW59535   0.407   6.211   3.020
19213SOL    HW159536   0.422   6.205   2.926
19213SOL    HW259537   0.421   6.303   3.041
19214SOL     OW59538  14.294   2.462  14.848
19214SOL    HW159539  14.316   2.377  14.809
19214SOL    HW259540  14.203   2.478  14.821
19215SOL     OW59541  10.951  13.159  10.190
19215SOL    HW159542  10.891  13.117  10.128
19215SOL    HW259543  10.905  13.237  10.220
19216SOL     OW59544  10.578  10.667   3.066
19216SOL    HW159545  10.641  10.739   3.062
19216SOL    HW259546  10.503  10.704   3.113
19217SOL     OW59547  13.615  11.058   4.449
19217SOL    HW159548  13.686  10.998   4.426
19217SOL    HW259549  13.553  11.051   4.376
19218SOL     OW59550   9.805  13.988  10.890
19218SOL    HW159551   9.803  14.045  10.813
19218SOL    HW259552   9.732  14.019  10.944
19219SOL     OW59553   9.674   8.544  11.448
19219SOL    HW159554   9.601   8.512  11.501
19219SOL    HW259555   9.727   8.596  11.509
19220SOL     OW59556   4.466   1.016  10.795
19220SOL    HW159557   4.527   1.045  10.727
19220SOL    HW259558   4.515   1.027  10.877
19221SOL     OW59559   9.585  14.546   7.735
19221SOL    HW159560   9.582  14.456   7.703
19221SOL    HW259561   9.507  14.587   7.698
19222SOL     OW59562  12.934  11.976  10.647
19222SOL    HW159563  12.967  12.065  10.649
19222SOL    HW259564  13.008  11.922  10.675
19223SOL     OW59565   7.995   1.910  13.646
19223SOL    HW159566   7.929   1.901  13.577
19223SOL    HW259567   7.950   1.879  13.725
19224SOL     OW59568  13.326  14.075   7.347
19224SOL    HW159569  13.328  14.147   7.283
19224SOL    HW259570  13.281  14.004   7.301
19225SOL     OW59571   1.481  10.834  13.582
19225SOL    HW159572   1.485  10.878  13.496
19225SOL    HW259573   1.570  10.800  13.595
19226SOL     OW59574   6.701   7.364   7.666
19226SOL    HW159575   6.763   7.303   7.705
19226SOL    HW259576   6.744   7.449   7.674
19227SOL     OW59577   7.152  14.294  11.715
19227SOL    HW159578   7.097  14.255  11.783
19227SOL    HW259579   7.196  14.367  11.759
19228SOL     OW59580  11.285   1.934   3.341
19228SOL    HW159581  11.269   1.914   3.249
19228SOL    HW259582  11.353   1.871   3.368
19229SOL     OW59583  14.752   5.591   7.025
19229SOL    HW159584  14.746   5.496   7.023
19229SOL    HW259585  14.842   5.610   6.997
19230SOL     OW59586   8.996   6.427   2.828
19230SOL    HW159587   9.033   6.370   2.760
19230SOL    HW259588   9.014   6.381   2.910
19231SOL     OW59589  10.183   3.272  13.387
19231SOL    HW159590  10.220   3.347  13.340
19231SOL    HW259591  10.161   3.209  13.318
19232SOL     OW59592  13.201   2.996  10.743
19232SOL    HW159593  13.253   3.052  10.685
19232SOL    HW259594  13.208   2.909  10.705
19233SOL     OW59595   3.633   1.122  10.455
19233SOL    HW159596   3.574   1.144  10.383
19233SOL    HW259597   3.693   1.058  10.417
19234SOL     OW59598  12.768   1.943   4.786
19234SOL    HW159599  12.684   1.989   4.785
19234SOL    HW259600  12.769   1.898   4.871
19235SOL     OW59601  14.477  12.128  11.277
19235SOL    HW159602  14.496  12.081  11.195
19235SOL    HW259603  14.394  12.090  11.307
19236SOL     OW59604  11.633   8.184   2.414
19236SOL    HW159605  11.583   8.261   2.389
19236SOL    HW259606  11.567   8.120   2.441
19237SOL     OW59607   1.121   8.099   0.705
19237SOL    HW159608   1.209   8.061   0.703
19237SOL    HW259609   1.134   8.191   0.680
19238SOL     OW59610   4.167   3.811   1.595
19238SOL    HW159611   4.187   3.721   1.570
19238SOL    HW259612   4.252   3.849   1.618
19239SOL     OW59613   6.794   4.538   1.842
19239SOL    HW159614   6.806   4.488   1.923
19239SOL    HW259615   6.862   4.605   1.845
19240SOL     OW59616  14.241   9.355   6.800
19240SOL    HW159617  14.196   9.439   6.793
19240SOL    HW259618  14.305   9.367   6.870
19241SOL     OW59619   9.410   2.253   1.210
19241SOL    HW159620   9.474   2.181   1.215
19241SOL    HW259621   9.461   2.331   1.233
19242SOL     OW59622  11.022   6.107   7.951
19242SOL    HW159623  10.972   6.026   7.952
19242SOL    HW259624  11.056   6.113   7.861
19243SOL     OW59625   9.572  14.104   4.416
19243SOL    HW159626   9.483  14.135   4.436
19243SOL    HW259627   9.587  14.033   4.479
19244SOL     OW59628   6.008   8.067  12.995
19244SOL    HW159629   6.002   7.985  12.945
19244SOL    HW259630   5.936   8.121  12.962
19245SOL     OW59631  10.802   0.939   6.267
19245SOL    HW159632  10.831   0.944   6.358
19245SOL    HW259633  10.713   0.905   6.272
19246SOL     OW59634   4.441   0.071   6.020
19246SOL    HW159635   4.397   0.039   5.942
19246SOL    HW259636   4.510   0.129   5.987
19247SOL     OW59637  11.649   4.531   9.106
19247SOL    HW159638  11.621   4.614   9.068
19247SOL    HW259639  11.578   4.470   9.085
19248SOL     OW59640  10.313  14.061   9.302
19248SOL    HW159641  10.371  14.085   9.230
19248SOL    HW259642  10.229  14.100   9.279
19249SOL     OW59643  10.107  10.763   6.015
19249SOL    HW159644  10.033  10.706   6.035
19249SOL    HW259645  10.070  10.851   6.015
19250SOL     OW59646   9.321   3.470   3.785
19250SOL    HW159647   9.253   3.524   3.825
19250SOL    HW259648   9.294   3.380   3.801
19251SOL     OW59649   1.083   5.191  14.440
19251SOL    HW159650   1.035   5.246  14.378
19251SOL    HW259651   1.069   5.233  14.525
19252SOL     OW59652   2.952   0.854   1.642
19252SOL    HW159653   2.945   0.944   1.610
19252SOL    HW259654   2.980   0.863   1.732
19253SOL     OW59655   6.335  14.386   0.916
19253SOL    HW159656   6.428  14.363   0.915
19253SOL    HW259657   6.291  14.307   0.883
19254SOL     OW59658  10.905   6.885   6.713
19254SOL    HW159659  10.907   6.831   6.792
19254SOL    HW259660  10.976   6.949   6.726
19255SOL     OW59661   6.729   2.470   6.057
19255SOL    HW159662   6.734   2.449   6.150
19255SOL    HW259663   6.654   2.419   6.025
19256SOL     OW59664   4.319   7.291  12.969
19256SOL    HW159665   4.346   7.364  12.913
19256SOL    HW259666   4.351   7.315  13.056
19257SOL     OW59667   6.197   4.136  13.796
19257SOL    HW159668   6.172   4.189  13.872
19257SOL    HW259669   6.257   4.192  13.747
19258SOL     OW59670   3.336   7.977   0.613
19258SOL    HW159671   3.357   7.884   0.629
19258SOL    HW259672   3.416   8.014   0.577
19259SOL     OW59673   8.648   2.351   9.882
19259SOL    HW159674   8.600   2.385   9.957
19259SOL    HW259675   8.727   2.404   9.878
19260SOL     OW59676   7.298  14.717   5.029
19260SOL    HW159677   7.228  14.714   4.964
19260SOL    HW259678   7.329  14.808   5.027
19261SOL     OW59679   7.709   3.021   7.580
19261SOL    HW159680   7.661   2.970   7.514
19261SOL    HW259681   7.789   3.049   7.536
19262SOL     OW59682   0.806   1.574   5.667
19262SOL    HW159683   0.884   1.549   5.717
19262SOL    HW259684   0.840   1.595   5.580
19263SOL     OW59685   8.699   2.792  13.374
19263SOL    HW159686   8.750   2.717  13.407
19263SOL    HW259687   8.608   2.769  13.394
19264SOL     OW59688   7.593   6.949  13.738
19264SOL    HW159689   7.504   6.936  13.772
19264SOL    HW259690   7.586   6.929  13.644
19265SOL     OW59691   6.316   1.195  11.862
19265SOL    HW159692   6.370   1.124  11.827
19265SOL    HW259693   6.226   1.167  11.846
19266SOL     OW59694   1.936  11.961   5.398
19266SOL    HW159695   1.995  11.887   5.411
19266SOL    HW259696   1.917  11.991   5.487
19267SOL     OW59697   0.673  12.464  13.259
19267SOL    HW159698   0.585  12.427  13.250
19267SOL    HW259699   0.729  12.408  13.206
19268SOL     OW59700   6.520  13.420   5.459
19268SOL    HW159701   6.580  13.372   5.402
19268SOL    HW259702   6.461  13.465   5.399
19269SOL     OW59703  14.522   4.632   4.501
19269SOL    HW159704  14.499   4.642   4.594
19269SOL    HW259705  14.614   4.656   4.497
19270SOL     OW59706   4.670   3.057   0.774
19270SOL    HW159707   4.704   3.035   0.687
19270SOL    HW259708   4.723   3.131   0.803
19271SOL     OW59709   9.201   1.222  11.793
19271SOL    HW159710   9.291   1.251  11.776
19271SOL    HW259711   9.189   1.146  11.735
19272SOL     OW59712   5.619   8.434   8.102
19272SOL    HW159713   5.539   8.383   8.112
19272SOL    HW259714   5.682   8.373   8.062
19273SOL     OW59715   8.842   5.400   3.914
19273SOL    HW159716   8.811   5.319   3.874
19273SOL    HW259717   8.764   5.440   3.952
19274SOL     OW59718  10.607   2.454  10.907
19274SOL    HW159719  10.675   2.520  10.898
19274SOL    HW259720  10.594   2.447  11.002
19275SOL     OW59721  13.211   9.252  14.390
19275SOL    HW159722  13.138   9.305  14.358
19275SOL    HW259723  13.170   9.175  14.428
19276SOL     OW59724  11.308  10.524   1.760
19276SOL    HW159725  11.266  10.462   1.701
19276SOL    HW259726  11.274  10.502   1.847
19277SOL     OW59727  11.393   9.157   6.089
19277SOL    HW159728  11.315   9.119   6.050
19277SOL    HW259729  11.459   9.088   6.082
19278SOL     OW59730   2.528   3.125   6.132
19278SOL    HW159731   2.441   3.112   6.170
19278SOL    HW259732   2.515   3.192   6.065
19279SOL     OW59733  11.470  11.487   9.663
19279SOL    HW159734  11.415  11.443   9.728
19279SOL    HW259735  11.411  11.505   9.590
19280SOL     OW59736   3.609   7.233   0.912
19280SOL    HW159737   3.650   7.187   0.984
19280SOL    HW259738   3.516   7.210   0.918
19281SOL     OW59739   9.265   6.941  12.528
19281SOL    HW159740   9.218   7.021  12.504
19281SOL    HW259741   9.245   6.928  12.620
19282SOL     OW59742   0.012   2.615   1.210
19282SOL    HW159743   0.085   2.553   1.214
19282SOL    HW259744  14.817   2.567   1.166
19283SOL     OW59745  13.517   6.212   6.308
19283SOL    HW159746  13.522   6.122   6.275
19283SOL    HW259747  13.551   6.266   6.237
19284SOL     OW59748  11.115  11.321   8.440
19284SOL    HW159749  11.044  11.320   8.376
19284SOL    HW259750  11.076  11.361   8.518
19285SOL     OW59751   4.275  13.881   0.949
19285SOL    HW159752   4.245  13.968   0.977
19285SOL    HW259753   4.204  13.822   0.975
19286SOL     OW59754  13.370   3.765   7.718
19286SOL    HW159755  13.417   3.833   7.767
19286SOL    HW259756  13.291   3.810   7.687
19287SOL     OW59757   2.148   6.066  14.816
19287SOL    HW159758   2.054   6.048  14.815
19287SOL    HW259759   2.175   6.046   0.031
19288SOL     OW59760   1.178   7.764   1.389
19288SOL    HW159761   1.103   7.824   1.386
19288SOL    HW259762   1.168   7.709   1.311
19289SOL     OW59763   5.072   8.006   6.290
19289SOL    HW159764   5.089   8.082   6.233
19289SOL    HW259765   5.019   7.947   6.236
19290SOL     OW59766   0.056  13.997   6.588
19290SOL    HW159767   0.073  14.031   6.500
19290SOL    HW259768   0.087  13.906   6.585
19291SOL     OW59769   5.804  13.055   0.636
19291SOL    HW159770   5.824  12.973   0.679
19291SOL    HW259771   5.873  13.115   0.666
19292SOL     OW59772   0.405  12.407  12.127
19292SOL    HW159773   0.494  12.415  12.160
19292SOL    HW259774   0.393  12.484  12.071
19293SOL     OW59775   5.266   0.996   5.168
19293SOL    HW159776   5.337   1.027   5.111
19293SOL    HW259777   5.196   0.972   5.107
19294SOL     OW59778  14.297   2.560  14.478
19294SOL    HW159779  14.249   2.630  14.521
19294SOL    HW259780  14.294   2.487  14.540
19295SOL     OW59781   2.105  12.532   2.885
19295SOL    HW159782   2.080  12.459   2.828
19295SOL    HW259783   2.027  12.587   2.889
19296SOL     OW59784   4.573   5.740   6.181
19296SOL    HW159785   4.609   5.828   6.195
19296SOL    HW259786   4.556   5.736   6.087
19297SOL     OW59787   1.027  14.532  11.976
19297SOL    HW159788   0.996  14.605  12.031
19297SOL    HW259789   0.964  14.462  11.994
19298SOL     OW59790   3.887   6.683   4.386
19298SOL    HW159791   3.945   6.672   4.310
19298SOL    HW259792   3.873   6.778   4.392
19299SOL     OW59793   6.130   2.575   2.859
19299SOL    HW159794   6.143   2.481   2.867
19299SOL    HW259795   6.175   2.612   2.935
19300SOL     OW59796  13.953   3.376   8.291
19300SOL    HW159797  14.022   3.398   8.352
19300SOL    HW259798  13.872   3.407   8.333
19301SOL     OW59799   7.325   5.939   9.672
19301SOL    HW159800   7.419   5.922   9.666
19301SOL    HW259801   7.287   5.855   9.697
19302SOL     OW59802  11.842   1.991  13.108
19302SOL    HW159803  11.750   1.966  13.116
19302SOL    HW259804  11.861   2.036  13.191
19303SOL     OW59805  10.205  11.288   1.603
19303SOL    HW159806  10.200  11.369   1.655
19303SOL    HW259807  10.162  11.222   1.657
19304SOL     OW59808   1.406   7.197   0.805
19304SOL    HW159809   1.370   7.264   0.746
19304SOL    HW259810   1.415   7.242   0.889
19305SOL     OW59811  14.828   9.743   8.638
19305SOL    HW159812  14.778   9.816   8.602
19305SOL    HW259813   0.035   9.743   8.588
19306SOL     OW59814   6.733  13.009   9.908
19306SOL    HW159815   6.705  13.044   9.824
19306SOL    HW259816   6.769  12.923   9.888
19307SOL     OW59817  13.261  14.222  14.545
19307SOL    HW159818  13.236  14.314  14.536
19307SOL    HW259819  13.333  14.210  14.484
19308SOL     OW59820  11.586   4.540  11.346
19308SOL    HW159821  11.603   4.520  11.254
19308SOL    HW259822  11.491   4.553  11.351
19309SOL     OW59823  10.601   1.572  13.831
19309SOL    HW159824  10.654   1.504  13.791
19309SOL    HW259825  10.603   1.645  13.769
19310SOL     OW59826  14.426   0.478  12.580
19310SOL    HW159827  14.487   0.407  12.565
19310SOL    HW259828  14.479   0.557  12.576
19311SOL     OW59829  12.395  13.296   8.733
19311SOL    HW159830  12.389  13.343   8.816
19311SOL    HW259831  12.307  13.302   8.696
19312SOL     OW59832  11.113  14.432   1.503
19312SOL    HW159833  11.139  14.511   1.550
19312SOL    HW259834  11.027  14.453   1.467
19313SOL     OW59835  11.661  14.821   7.013
19313SOL    HW159836  11.571  14.814   6.980
19313SOL    HW259837  11.695   0.027   6.975
19314SOL     OW59838   9.007  13.270  10.213
19314SOL    HW159839   9.045  13.190  10.247
19314SOL    HW259840   8.980  13.248  10.124
19315SOL     OW59841  12.852   6.465   7.505
19315SOL    HW159842  12.767   6.428   7.481
19315SOL    HW259843  12.904   6.460   7.424
19316SOL     OW59844   3.451   7.226  14.521
19316SOL    HW159845   3.538   7.187  14.510
19316SOL    HW259846   3.451   7.302  14.464
19317SOL     OW59847   6.873   6.203   2.132
19317SOL    HW159848   6.944   6.157   2.177
19317SOL    HW259849   6.797   6.189   2.188
19318SOL     OW59850   2.195  11.663  12.633
19318SOL    HW159851   2.188  11.759  12.641
19318SOL    HW259852   2.226  11.649  12.544
19319SOL     OW59853   1.953   8.217  11.800
19319SOL    HW159854   1.965   8.161  11.876
19319SOL    HW259855   1.900   8.165  11.739
19320SOL     OW59856   3.192   5.376  10.653
19320SOL    HW159857   3.267   5.424  10.689
19320SOL    HW259858   3.116   5.419  10.691
19321SOL     OW59859   3.978   9.393  13.166
19321SOL    HW159860   4.062   9.348  13.154
19321SOL    HW259861   3.940   9.352  13.244
19322SOL     OW59862   1.990  10.067  11.485
19322SOL    HW159863   1.957  10.153  11.459
19322SOL    HW259864   1.911  10.014  11.496
19323SOL     OW59865  12.614   7.823   1.301
19323SOL    HW159866  12.682   7.852   1.362
19323SOL    HW259867  12.629   7.874   1.221
19324SOL     OW59868   6.987  13.277   9.823
19324SOL    HW159869   6.949  13.285   9.911
19324SOL    HW259870   7.055  13.211   9.832
19325SOL     OW59871   4.948  13.879   6.711
19325SOL    HW159872   5.032  13.910   6.745
19325SOL    HW259873   4.916  13.951   6.657
19326SOL     OW59874  10.944   5.541   1.219
19326SOL    HW159875  10.900   5.466   1.178
19326SOL    HW259876  10.909   5.543   1.308
19327SOL     OW59877   5.084   0.939  12.370
19327SOL    HW159878   5.175   0.929  12.341
19327SOL    HW259879   5.069   0.865  12.428
19328SOL     OW59880   4.524   7.905  14.444
19328SOL    HW159881   4.500   7.813  14.440
19328SOL    HW259882   4.596   7.914  14.382
19329SOL     OW59883  14.663   0.085   5.821
19329SOL    HW159884  14.735   0.086   5.885
19329SOL    HW259885  14.586   0.060   5.872
19330SOL     OW59886   8.256  11.269  11.204
19330SOL    HW159887   8.342  11.228  11.216
19330SOL    HW259888   8.271  11.335  11.136
19331SOL     OW59889   1.223   3.258   4.251
19331SOL    HW159890   1.264   3.297   4.174
19331SOL    HW259891   1.296   3.239   4.310
19332SOL     OW59892   4.021   1.195  10.367
19332SOL    HW159893   3.957   1.266  10.365
19332SOL    HW259894   3.980   1.127  10.419
19333SOL     OW59895   8.992   9.171   1.733
19333SOL    HW159896   9.041   9.090   1.750
19333SOL    HW259897   9.057   9.231   1.697
19334SOL     OW59898  12.702   2.438  10.910
19334SOL    HW159899  12.660   2.378  10.847
19334SOL    HW259900  12.630   2.495  10.939
19335SOL     OW59901  12.319   3.248   7.133
19335SOL    HW159902  12.325   3.232   7.039
19335SOL    HW259903  12.334   3.342   7.143
19336SOL     OW59904   9.398   9.508   8.342
19336SOL    HW159905   9.471   9.524   8.401
19336SOL    HW259906   9.329   9.568   8.372
19337SOL     OW59907   5.735  12.905  12.652
19337SOL    HW159908   5.754  12.840  12.584
19337SOL    HW259909   5.803  12.892  12.717
19338SOL     OW59910   5.731  11.532  14.714
19338SOL    HW159911   5.682  11.480  14.651
19338SOL    HW259912   5.670  11.545  14.787
19339SOL     OW59913   6.163  10.615   2.594
19339SOL    HW159914   6.178  10.655   2.509
19339SOL    HW259915   6.214  10.534   2.593
19340SOL     OW59916  10.178  13.427   6.086
19340SOL    HW159917  10.114  13.385   6.028
19340SOL    HW259918  10.169  13.521   6.067
19341SOL     OW59919   7.947   1.265   5.403
19341SOL    HW159920   7.902   1.349   5.412
19341SOL    HW259921   7.956   1.232   5.492
19342SOL     OW59922   8.463   5.901   8.387
19342SOL    HW159923   8.392   5.848   8.351
19342SOL    HW259924   8.495   5.851   8.462
19343SOL     OW59925  14.174   1.876   2.614
19343SOL    HW159926  14.185   1.782   2.600
19343SOL    HW259927  14.259   1.905   2.649
19344SOL     OW59928   5.057   2.396  11.327
19344SOL    HW159929   5.133   2.360  11.282
19344SOL    HW259930   5.031   2.472  11.275
19345SOL     OW59931  11.451   6.835  13.572
19345SOL    HW159932  11.376   6.785  13.605
19345SOL    HW259933  11.455   6.812  13.479
19346SOL     OW59934  12.726   1.015  12.693
19346SOL    HW159935  12.722   0.956  12.617
19346SOL    HW259936  12.804   1.069  12.678
19347SOL     OW59937  11.552   4.733   3.711
19347SOL    HW159938  11.636   4.696   3.741
19347SOL    HW259939  11.563   4.743   3.616
19348SOL     OW59940   8.800   5.055  14.392
19348SOL    HW159941   8.711   5.085  14.374
19348SOL    HW259942   8.856   5.119  14.346
19349SOL     OW59943  11.539   3.341   7.107
19349SOL    HW159944  11.502   3.428   7.124
19349SOL    HW259945  11.575   3.346   7.019
19350SOL     OW59946  13.468  10.931  13.947
19350SOL    HW159947  13.406  10.895  14.011
19350SOL    HW259948  13.509  10.854  13.907
19351SOL     OW59949   0.260   3.495   8.278
19351SOL    HW159950   0.327   3.549   8.320
19351SOL    HW259951   0.200   3.470   8.348
19352SOL     OW59952  10.705   0.245   6.942
19352SOL    HW159953  10.687   0.237   6.849
19352SOL    HW259954  10.657   0.322   6.970
19353SOL     OW59955   9.016   3.207   0.734
19353SOL    HW159956   8.976   3.120   0.731
19353SOL    HW259957   8.942   3.267   0.736
19354SOL     OW59958  12.012  13.698   8.962
19354SOL    HW159959  12.004  13.701   9.057
19354SOL    HW259960  11.984  13.785   8.933
19355SOL     OW59961  10.979  10.161   6.987
19355SOL    HW159962  10.974  10.204   7.072
19355SOL    HW259963  11.062  10.190   6.950
19356SOL     OW59964   1.211  11.018  12.622
19356SOL    HW159965   1.191  11.084  12.556
19356SOL    HW259966   1.247  10.944  12.572
19357SOL     OW59967  14.324  11.341   0.652
19357SOL    HW159968  14.393  11.350   0.718
19357SOL    HW259969  14.261  11.280   0.692
19358SOL     OW59970   8.677  14.172   6.781
19358SOL    HW159971   8.589  14.203   6.763
19358SOL    HW259972   8.718  14.243   6.831
19359SOL     OW59973   2.140   4.238  10.498
19359SOL    HW159974   2.165   4.309  10.557
19359SOL    HW259975   2.163   4.270  10.410
19360SOL     OW59976   7.967  14.408  14.743
19360SOL    HW159977   7.986  14.358  14.822
19360SOL    HW259978   7.871  14.406  14.736
19361SOL     OW59979   5.291  12.412   5.508
19361SOL    HW159980   5.283  12.495   5.555
19361SOL    HW259981   5.386  12.399   5.499
19362SOL     OW59982   4.072  13.668   2.251
19362SOL    HW159983   4.061  13.760   2.276
19362SOL    HW259984   3.992  13.625   2.282
19363SOL     OW59985   8.245   2.767   0.538
19363SOL    HW159986   8.183   2.732   0.474
19363SOL    HW259987   8.245   2.703   0.609
19364SOL     OW59988   2.337  11.379  12.012
19364SOL    HW159989   2.299  11.437  11.947
19364SOL    HW259990   2.424  11.415  12.030
19365SOL     OW59991   4.218   3.483   0.912
19365SOL    HW159992   4.276   3.427   0.860
19365SOL    HW259993   4.276   3.523   0.977
19366SOL     OW59994   5.078  11.862   7.428
19366SOL    HW159995   5.005  11.861   7.490
19366SOL    HW259996   5.040  11.900   7.349
19367SOL     OW59997   4.657   0.715   0.397
19367SOL    HW159998   4.574   0.745   0.360
19367SOL    HW259999   4.688   0.787   0.450
19368SOL     OW60000   5.293   9.906  12.519
19368SOL    HW160001   5.320   9.837  12.581
19368SOL    HW260002   5.197   9.905  12.523
19369SOL     OW60003  13.894  13.724   1.963
19369SOL    HW160004  13.890  13.636   2.000
19369SOL    HW260005  13.842  13.718   1.883
19370SOL     OW60006   5.173  10.982   7.989
19370SOL    HW160007   5.172  11.042   7.914
19370SOL    HW260008   5.092  11.003   8.037
19371SOL     OW60009   1.124   9.083   2.580
19371SOL    HW160010   1.166   9.148   2.637
19371SOL    HW260011   1.089   9.018   2.640
19372SOL     OW60012   3.622   5.221  14.142
19372SOL    HW160013   3.665   5.262  14.217
19372SOL    HW260014   3.694   5.183  14.091
19373SOL     OW60015   2.227   2.039   0.115
19373SOL    HW160016   2.246   1.964   0.172
19373SOL    HW260017   2.131   2.046   0.116
19374SOL     OW60018  13.622  10.556   2.445
19374SOL    HW160019  13.691  10.620   2.460
19374SOL    HW260020  13.608  10.516   2.531
19375SOL     OW60021   0.331   7.543   6.116
19375SOL    HW160022   0.375   7.533   6.201
19375SOL    HW260023   0.362   7.468   6.065
19376SOL     OW60024  12.388  13.307   9.916
19376SOL    HW160025  12.307  13.261   9.895
19376SOL    HW260026  12.413  13.276  10.003
19377SOL     OW60027   9.327   1.597   2.445
19377SOL    HW160028   9.260   1.645   2.397
19377SOL    HW260029   9.372   1.545   2.379
19378SOL     OW60030   8.973   0.290   2.981
19378SOL    HW160031   9.065   0.264   2.984
19378SOL    HW260032   8.970   0.371   3.032
19379SOL     OW60033  10.595   2.206   5.720
19379SOL    HW160034  10.600   2.264   5.796
19379SOL    HW260035  10.535   2.251   5.660
19380SOL     OW60036   1.036  12.122   7.782
19380SOL    HW160037   1.116  12.085   7.744
19380SOL    HW260038   1.031  12.084   7.869
19381SOL     OW60039  11.296   9.024   7.144
19381SOL    HW160040  11.346   9.103   7.124
19381SOL    HW260041  11.228   9.053   7.204
19382SOL     OW60042   5.194   8.776  11.155
19382SOL    HW160043   5.189   8.803  11.064
19382SOL    HW260044   5.156   8.849  11.204
19383SOL     OW60045   8.989   5.850   1.810
19383SOL    HW160046   8.996   5.764   1.771
19383SOL    HW260047   8.912   5.844   1.867
19384SOL     OW60048   0.486   8.894   9.122
19384SOL    HW160049   0.580   8.884   9.138
19384SOL    HW260050   0.476   8.877   9.029
19385SOL     OW60051  14.717  13.665   3.602
19385SOL    HW160052  14.747  13.651   3.513
19385SOL    HW260053  14.643  13.605   3.613
19386SOL     OW60054   8.431  10.229   0.654
19386SOL    HW160055   8.487  10.276   0.594
19386SOL    HW260056   8.355  10.204   0.602
19387SOL     OW60057  11.299  11.540   2.537
19387SOL    HW160058  11.270  11.514   2.449
19387SOL    HW260059  11.373  11.482   2.555
19388SOL     OW60060   1.419   4.985  11.782
19388SOL    HW160061   1.443   4.894  11.768
19388SOL    HW260062   1.501   5.033  11.777
19389SOL     OW60063   2.936   0.402   7.653
19389SOL    HW160064   3.013   0.440   7.695
19389SOL    HW260065   2.890   0.477   7.615
19390SOL     OW60066  13.107   7.518  10.645
19390SOL    HW160067  13.141   7.515  10.735
19390SOL    HW260068  13.182   7.498  10.590
19391SOL     OW60069  14.156   7.785   4.016
19391SOL    HW160070  14.075   7.733   4.010
19391SOL    HW260071  14.202   7.748   4.092
19392SOL     OW60072   8.682  14.690  13.253
19392SOL    HW160073   8.592  14.667  13.275
19392SOL    HW260074   8.700  14.643  13.172
19393SOL     OW60075  12.981  10.548  10.118
19393SOL    HW160076  13.015  10.611  10.054
19393SOL    HW260077  12.979  10.597  10.200
19394SOL     OW60078   7.043   5.982   8.865
19394SOL    HW160079   7.011   5.992   8.955
19394SOL    HW260080   7.119   6.040   8.860
19395SOL     OW60081  14.345  12.962   4.868
19395SOL    HW160082  14.404  12.893   4.899
19395SOL    HW260083  14.257  12.927   4.883
19396SOL     OW60084   8.834   6.375   8.475
19396SOL    HW160085   8.867   6.321   8.403
19396SOL    HW260086   8.839   6.318   8.551
19397SOL     OW60087   6.427   0.284  14.730
19397SOL    HW160088   6.469   0.199  14.739
19397SOL    HW260089   6.495   0.340  14.691
19398SOL     OW60090  11.263  14.069   9.640
19398SOL    HW160091  11.245  14.163   9.648
19398SOL    HW260092  11.200  14.028   9.699
19399SOL     OW60093   6.215   5.606  14.098
19399SOL    HW160094   6.230   5.664  14.023
19399SOL    HW260095   6.299   5.604  14.143
19400SOL     OW60096   9.300   8.281  13.887
19400SOL    HW160097   9.219   8.238  13.914
19400SOL    HW260098   9.345   8.217  13.832
19401SOL     OW60099   2.300   2.156   1.438
19401SOL    HW160100   2.364   2.085   1.429
19401SOL    HW260101   2.350   2.236   1.422
19402SOL     OW60102  11.919   2.742   8.671
19402SOL    HW160103  11.910   2.754   8.766
19402SOL    HW260104  12.000   2.692   8.661
19403SOL     OW60105   4.297   3.905   7.197
19403SOL    HW160106   4.235   3.936   7.131
19403SOL    HW260107   4.243   3.888   7.274
19404SOL     OW60108  10.712   0.849   6.921
19404SOL    HW160109  10.637   0.797   6.891
19404SOL    HW260110  10.789   0.803   6.886
19405SOL     OW60111   6.007   4.591   4.473
19405SOL    HW160112   5.938   4.525   4.487
19405SOL    HW260113   5.972   4.648   4.404
19406SOL     OW60114  11.416   5.029   7.091
19406SOL    HW160115  11.442   5.112   7.131
19406SOL    HW260116  11.329   5.047   7.054
19407SOL     OW60117   2.632   2.123   0.696
19407SOL    HW160118   2.538   2.115   0.711
19407SOL    HW260119   2.666   2.165   0.775
19408SOL     OW60120   6.999   5.865  13.326
19408SOL    HW160121   7.037   5.861  13.413
19408SOL    HW260122   6.989   5.959  13.309
19409SOL     OW60123   6.055   9.379  10.101
19409SOL    HW160124   6.122   9.447  10.092
19409SOL    HW260125   5.993   9.397  10.031
19410SOL     OW60126   9.712   4.526  11.422
19410SOL    HW160127   9.642   4.583  11.391
19410SOL    HW260128   9.690   4.510  11.514
19411SOL     OW60129  13.811   5.450   9.964
19411SOL    HW160130  13.889   5.396   9.949
19411SOL    HW260131  13.785   5.429  10.054
19412SOL     OW60132   0.897   8.279  13.993
19412SOL    HW160133   0.930   8.353  14.043
19412SOL    HW260134   0.813   8.258  14.034
19413SOL     OW60135  11.676   6.030  11.868
19413SOL    HW160136  11.720   5.955  11.828
19413SOL    HW260137  11.746   6.094  11.881
19414SOL     OW60138   5.083   3.943  13.805
19414SOL    HW160139   5.148   4.008  13.831
19414SOL    HW260140   5.004   3.968  13.853
19415SOL     OW60141   9.964  10.002   3.714
19415SOL    HW160142   9.956   9.960   3.628
19415SOL    HW260143   9.903  10.075   3.712
19416SOL     OW60144   5.961  12.021   3.020
19416SOL    HW160145   6.030  12.037   3.085
19416SOL    HW260146   5.999  12.049   2.937
19417SOL     OW60147   6.377   1.396   8.015
19417SOL    HW160148   6.364   1.478   7.967
19417SOL    HW260149   6.297   1.385   8.066
19418SOL     OW60150   4.565  13.663   8.739
19418SOL    HW160151   4.472  13.642   8.738
19418SOL    HW260152   4.607  13.586   8.701
19419SOL     OW60153   3.491   7.052   4.922
19419SOL    HW160154   3.560   7.007   4.874
19419SOL    HW260155   3.508   7.145   4.907
19420SOL     OW60156   7.686   7.864  14.422
19420SOL    HW160157   7.667   7.825  14.507
19420SOL    HW260158   7.733   7.795  14.374
19421SOL     OW60159  11.647   6.051   3.538
19421SOL    HW160160  11.729   6.042   3.587
19421SOL    HW260161  11.595   6.113   3.590
19422SOL     OW60162   7.121   2.914   2.952
19422SOL    HW160163   7.200   2.947   2.910
19422SOL    HW260164   7.063   2.990   2.956
19423SOL     OW60165  13.811   7.888   4.911
19423SOL    HW160166  13.802   7.982   4.927
19423SOL    HW260167  13.807   7.848   4.998
19424SOL     OW60168  10.146   6.985   3.118
19424SOL    HW160169  10.209   7.056   3.127
19424SOL    HW260170  10.167   6.925   3.190
19425SOL     OW60171  10.130   5.025   8.618
19425SOL    HW160172  10.141   4.959   8.687
19425SOL    HW260173  10.213   5.022   8.570
19426SOL     OW60174   8.233   0.871   9.183
19426SOL    HW160175   8.328   0.859   9.181
19426SOL    HW260176   8.201   0.799   9.237
19427SOL     OW60177   2.704  12.974   6.587
19427SOL    HW160178   2.736  12.926   6.664
19427SOL    HW260179   2.781  13.020   6.554
19428SOL     OW60180   9.169   8.265   6.286
19428SOL    HW160181   9.083   8.276   6.325
19428SOL    HW260182   9.194   8.353   6.257
19429SOL     OW60183   4.516  11.022   2.000
19429SOL    HW160184   4.458  10.979   2.063
19429SOL    HW260185   4.460  11.084   1.954
19430SOL     OW60186   8.958   2.930   0.811
19430SOL    HW160187   8.882   2.871   0.808
19430SOL    HW260188   8.957   2.966   0.899
19431SOL     OW60189   4.319  10.872   1.708
19431SOL    HW160190   4.305  10.964   1.731
19431SOL    HW260191   4.333  10.828   1.791
19432SOL     OW60192   3.896   5.428   1.682
19432SOL    HW160193   3.828   5.440   1.615
19432SOL    HW260194   3.849   5.392   1.757
19433SOL     OW60195   1.030  12.187   9.623
19433SOL    HW160196   0.986  12.224   9.699
19433SOL    HW260197   1.086  12.259   9.592
19434SOL     OW60198   4.506  13.111   7.234
19434SOL    HW160199   4.498  13.080   7.325
19434SOL    HW260200   4.493  13.033   7.181
19435SOL     OW60201  13.727  11.854  11.617
19435SOL    HW160202  13.710  11.937  11.662
19435SOL    HW260203  13.788  11.808  11.675
19436SOL     OW60204   3.007   0.124   5.980
19436SOL    HW160205   3.087   0.114   5.929
19436SOL    HW260206   2.961   0.196   5.938
19437SOL     OW60207   5.853   8.614   8.864
19437SOL    HW160208   5.947   8.611   8.849
19437SOL    HW260209   5.835   8.705   8.888
19438SOL     OW60210   6.550  13.103   6.470
19438SOL    HW160211   6.632  13.131   6.512
19438SOL    HW260212   6.482  13.153   6.515
19439SOL     OW60213  12.872  10.725   8.519
19439SOL    HW160214  12.921  10.739   8.601
19439SOL    HW260215  12.871  10.630   8.508
19440SOL     OW60216  12.099   9.368  11.341
19440SOL    HW160217  12.194   9.375  11.342
19440SOL    HW260218  12.082   9.282  11.302
19441SOL     OW60219   3.222   8.464   0.249
19441SOL    HW160220   3.301   8.446   0.300
19441SOL    HW260221   3.180   8.537   0.295
19442SOL     OW60222   6.384  10.477  11.468
19442SOL    HW160223   6.370  10.572  11.471
19442SOL    HW260224   6.455  10.461  11.530
19443SOL     OW60225   1.363  14.483  13.915
19443SOL    HW160226   1.387  14.513  14.003
19443SOL    HW260227   1.367  14.563  13.862
19444SOL     OW60228   1.671   5.994   7.369
19444SOL    HW160229   1.751   5.979   7.319
19444SOL    HW260230   1.701   5.997   7.460
19445SOL     OW60231   7.409   6.294  14.146
19445SOL    HW160232   7.397   6.280  14.052
19445SOL    HW260233   7.361   6.222  14.187
19446SOL     OW60234  14.566   1.885   5.713
19446SOL    HW160235  14.639   1.889   5.651
19446SOL    HW260236  14.541   1.793   5.713
19447SOL     OW60237  13.495   2.432   4.131
19447SOL    HW160238  13.534   2.460   4.048
19447SOL    HW260239  13.570   2.405   4.185
19448SOL     OW60240   7.084   4.190   3.909
19448SOL    HW160241   7.039   4.234   3.837
19448SOL    HW260242   7.059   4.098   3.901
19449SOL     OW60243  13.752  11.344   5.642
19449SOL    HW160244  13.833  11.365   5.689
19449SOL    HW260245  13.748  11.408   5.572
19450SOL     OW60246   0.303   2.176   3.192
19450SOL    HW160247   0.265   2.096   3.157
19450SOL    HW260248   0.396   2.169   3.170
19451SOL     OW60249   8.430   0.476  11.099
19451SOL    HW160250   8.415   0.500  11.191
19451SOL    HW260251   8.486   0.399  11.104
19452SOL     OW60252  12.895  13.796  12.979
19452SOL    HW160253  12.809  13.756  12.967
19452SOL    HW260254  12.899  13.815  13.073
19453SOL     OW60255   3.973   8.601  10.760
19453SOL    HW160256   3.911   8.575  10.829
19453SOL    HW260257   3.936   8.681  10.723
19454SOL     OW60258   1.846  11.315   2.243
19454SOL    HW160259   1.867  11.402   2.208
19454SOL    HW260260   1.850  11.326   2.338
19455SOL     OW60261  14.358   4.681   4.990
19455SOL    HW160262  14.306   4.717   5.061
19455SOL    HW260263  14.305   4.693   4.911
19456SOL     OW60264  10.961   5.027  14.377
19456SOL    HW160265  11.036   4.970  14.362
19456SOL    HW260266  10.902   5.009  14.305
19457SOL     OW60267   2.438  10.002   5.155
19457SOL    HW160268   2.479   9.949   5.223
19457SOL    HW260269   2.454   9.953   5.074
19458SOL     OW60270   3.882   1.485   7.144
19458SOL    HW160271   3.887   1.580   7.146
19458SOL    HW260272   3.819   1.462   7.212
19459SOL     OW60273   5.316   0.912   4.297
19459SOL    HW160274   5.357   0.944   4.378
19459SOL    HW260275   5.347   0.822   4.289
19460SOL     OW60276   6.939   1.999  10.619
19460SOL    HW160277   6.960   2.041  10.702
19460SOL    HW260278   6.873   1.933  10.641
19461SOL     OW60279   5.055   9.626   0.664
19461SOL    HW160280   5.008   9.627   0.748
19461SOL    HW260281   5.056   9.718   0.637
19462SOL     OW60282   4.530   1.345  10.224
19462SOL    HW160283   4.590   1.276  10.195
19462SOL    HW260284   4.449   1.299  10.245
19463SOL     OW60285  10.212   6.949   7.470
19463SOL    HW160286  10.145   6.882   7.481
19463SOL    HW260287  10.278   6.928   7.537
19464SOL     OW60288  11.301   6.559   0.669
19464SOL    HW160289  11.307   6.651   0.695
19464SOL    HW260290  11.337   6.557   0.581
19465SOL     OW60291  11.965   1.545   8.092
19465SOL    HW160292  11.946   1.512   8.004
19465SOL    HW260293  11.882   1.580   8.123
19466SOL     OW60294   5.537  14.731  13.663
19466SOL    HW160295   5.447  14.734  13.695
19466SOL    HW260296   5.576  14.814  13.692
19467SOL     OW60297   1.404   3.373  13.287
19467SOL    HW160298   1.442   3.439  13.229
19467SOL    HW260299   1.318   3.407  13.309
19468SOL     OW60300   8.493  11.283   2.301
19468SOL    HW160301   8.431  11.241   2.241
19468SOL    HW260302   8.452  11.277   2.387
19469SOL     OW60303   3.811   1.734  10.087
19469SOL    HW160304   3.867   1.780  10.025
19469SOL    HW260305   3.724   1.738  10.048
19470SOL     OW60306   7.499   3.358  12.000
19470SOL    HW160307   7.557   3.429  12.029
19470SOL    HW260308   7.535   3.279  12.041
19471SOL     OW60309  13.857   9.483  11.142
19471SOL    HW160310  13.892   9.520  11.223
19471SOL    HW260311  13.923   9.504  11.076
19472SOL     OW60312  13.215  12.750  13.207
19472SOL    HW160313  13.307  12.749  13.179
19472SOL    HW260314  13.175  12.819  13.154
19473SOL     OW60315   3.062   7.308   5.863
19473SOL    HW160316   3.063   7.363   5.786
19473SOL    HW260317   3.057   7.369   5.937
19474SOL     OW60318  12.551  10.098  11.865
19474SOL    HW160319  12.490  10.169  11.884
19474SOL    HW260320  12.625  10.142  11.821
19475SOL     OW60321  10.358   1.856   5.321
19475SOL    HW160322  10.272   1.844   5.359
19475SOL    HW260323  10.402   1.771   5.333
19476SOL     OW60324  13.939   5.676   6.251
19476SOL    HW160325  13.993   5.678   6.330
19476SOL    HW260326  13.910   5.585   6.244
19477SOL     OW60327   4.329   7.316  11.776
19477SOL    HW160328   4.299   7.246  11.833
19477SOL    HW260329   4.332   7.394  11.832
19478SOL     OW60330   5.985   8.395   8.121
19478SOL    HW160331   5.953   8.321   8.173
19478SOL    HW260332   6.076   8.372   8.101
19479SOL     OW60333   7.210   8.251   7.279
19479SOL    HW160334   7.293   8.264   7.325
19479SOL    HW260335   7.166   8.181   7.327
19480SOL     OW60336   0.726  14.653   2.839
19480SOL    HW160337   0.816  14.652   2.871
19480SOL    HW260338   0.717  14.569   2.793
19481SOL     OW60339   4.834  13.408   3.158
19481SOL    HW160340   4.891  13.356   3.102
19481SOL    HW260341   4.753  13.418   3.108
19482SOL     OW60342   4.423   2.439   4.632
19482SOL    HW160343   4.341   2.401   4.602
19482SOL    HW260344   4.409   2.459   4.725
19483SOL     OW60345  13.611   1.864   1.631
19483SOL    HW160346  13.671   1.846   1.703
19483SOL    HW260347  13.667   1.868   1.554
19484SOL     OW60348   9.724   2.724   0.982
19484SOL    HW160349   9.818   2.739   0.968
19484SOL    HW260350   9.688   2.811   0.996
19485SOL     OW60351   7.871   1.360  10.568
19485SOL    HW160352   7.929   1.377  10.493
19485SOL    HW260353   7.873   1.441  10.619
19486SOL     OW60354  11.541   8.797   5.956
19486SOL    HW160355  11.535   8.785   6.051
19486SOL    HW260356  11.625   8.758   5.932
19487SOL     OW60357  11.904   0.399   6.602
19487SOL    HW160358  11.862   0.415   6.686
19487SOL    HW260359  11.998   0.403   6.621
19488SOL     OW60360   8.255  11.276  12.285
19488SOL    HW160361   8.214  11.338  12.225
19488SOL    HW260362   8.182  11.236  12.332
19489SOL     OW60363   7.244   1.461  11.540
19489SOL    HW160364   7.223   1.374  11.506
19489SOL    HW260365   7.321   1.447  11.596
19490SOL     OW60366   0.963   6.718  12.433
19490SOL    HW160367   0.888   6.719  12.492
19490SOL    HW260368   0.925   6.712  12.345
19491SOL     OW60369  14.524   5.377   3.841
19491SOL    HW160370  14.581   5.303   3.824
19491SOL    HW260371  14.451   5.366   3.781
19492SOL     OW60372   1.170  14.294   4.760
19492SOL    HW160373   1.161  14.379   4.805
19492SOL    HW260374   1.081  14.258   4.760
19493SOL     OW60375   7.062   7.081   2.747
19493SOL    HW160376   6.998   7.113   2.684
19493SOL    HW260377   7.009   7.040   2.816
19494SOL     OW60378  13.035   5.803   6.443
19494SOL    HW160379  13.024   5.833   6.533
19494SOL    HW260380  13.083   5.873   6.399
19495SOL     OW60381   3.134   7.469   6.073
19495SOL    HW160382   3.204   7.405   6.071
19495SOL    HW260383   3.083   7.448   6.151
19496SOL     OW60384   2.191   1.623   0.488
19496SOL    HW160385   2.192   1.528   0.480
19496SOL    HW260386   2.235   1.641   0.571
19497SOL     OW60387  11.709   7.817  13.920
19497SOL    HW160388  11.689   7.849  13.832
19497SOL    HW260389  11.655   7.739  13.930
19498SOL     OW60390  11.391   8.674   8.660
19498SOL    HW160391  11.441   8.638   8.587
19498SOL    HW260392  11.321   8.610   8.675
19499SOL     OW60393   2.193   9.541   6.061
19499SOL    HW160394   2.173   9.505   6.147
19499SOL    HW260395   2.166   9.633   6.066
19500SOL     OW60396  12.075   7.227   7.339
19500SOL    HW160397  12.040   7.258   7.256
19500SOL    HW260398  12.056   7.296   7.402
19501SOL     OW60399  12.289   1.342   3.886
19501SOL    HW160400  12.275   1.373   3.976
19501SOL    HW260401  12.348   1.268   3.895
19502SOL     OW60402   9.090   4.039   4.368
19502SOL    HW160403   9.075   3.946   4.355
19502SOL    HW260404   9.157   4.043   4.437
19503SOL     OW60405   3.555   4.663  11.773
19503SOL    HW160406   3.560   4.572  11.743
19503SOL    HW260407   3.643   4.685  11.801
19504SOL     OW60408  12.125   8.578   0.710
19504SOL    HW160409  12.067   8.649   0.682
19504SOL    HW260410  12.160   8.542   0.628
19505SOL     OW60411   4.162   1.783   2.810
19505SOL    HW160412   4.103   1.746   2.744
19505SOL    HW260413   4.139   1.739   2.891
19506SOL     OW60414   1.157   7.133   1.302
19506SOL    HW160415   1.249   7.152   1.287
19506SOL    HW260416   1.157   7.063   1.367
19507SOL     OW60417   4.268   2.921   5.247
19507SOL    HW160418   4.346   2.871   5.223
19507SOL    HW260419   4.202   2.895   5.182
19508SOL     OW60420  12.212  10.663   7.036
19508SOL    HW160421  12.276  10.616   7.090
19508SOL    HW260422  12.264  10.729   6.991
19509SOL     OW60423   1.315   1.933   6.759
19509SOL    HW160424   1.290   1.841   6.750
19509SOL    HW260425   1.407   1.931   6.782
19510SOL     OW60426   0.820  13.959   7.563
19510SOL    HW160427   0.779  14.043   7.540
19510SOL    HW260428   0.913  13.973   7.546
19511SOL     OW60429   0.660  12.208   1.671
19511SOL    HW160430   0.656  12.289   1.619
19511SOL    HW260431   0.580  12.161   1.648
19512SOL     OW60432  14.726   1.200  13.320
19512SOL    HW160433  14.805   1.198  13.266
19512SOL    HW260434  14.654   1.190  13.258
19513SOL     OW60435   5.067   8.323  14.700
19513SOL    HW160436   5.051   8.409  14.741
19513SOL    HW260437   5.040   8.260  14.767
19514SOL     OW60438  11.030   4.712   4.801
19514SOL    HW160439  11.000   4.723   4.711
19514SOL    HW260440  10.967   4.762   4.853
19515SOL     OW60441   2.118  13.869  11.017
19515SOL    HW160442   2.204  13.909  11.001
19515SOL    HW260443   2.083  13.852  10.929
19516SOL     OW60444   6.756   0.978  12.547
19516SOL    HW160445   6.733   0.892  12.512
19516SOL    HW260446   6.704   1.040  12.495
19517SOL     OW60447  11.181   6.932   5.578
19517SOL    HW160448  11.145   6.991   5.645
19517SOL    HW260449  11.154   6.971   5.495
19518SOL     OW60450   2.653  13.643   9.183
19518SOL    HW160451   2.596  13.570   9.158
19518SOL    HW260452   2.605  13.721   9.156
19519SOL     OW60453  11.221   9.095  10.697
19519SOL    HW160454  11.266   9.098  10.613
19519SOL    HW260455  11.173   9.178  10.702
19520SOL     OW60456   7.567   5.042  12.845
19520SOL    HW160457   7.528   4.985  12.780
19520SOL    HW260458   7.561   4.993  12.927
19521SOL     OW60459  13.545  13.432   3.599
19521SOL    HW160460  13.504  13.428   3.513
19521SOL    HW260461  13.620  13.491   3.588
19522SOL     OW60462   7.082   3.407   7.920
19522SOL    HW160463   7.095   3.326   7.870
19522SOL    HW260464   7.151   3.406   7.986
19523SOL     OW60465   1.428   5.177   2.704
19523SOL    HW160466   1.398   5.266   2.684
19523SOL    HW260467   1.416   5.130   2.622
19524SOL     OW60468  13.662   2.145   0.003
19524SOL    HW160469  13.672   2.134  14.784
19524SOL    HW260470  13.609   2.224   0.012
19525SOL     OW60471   9.002   0.200  10.167
19525SOL    HW160472   9.060   0.127  10.149
19525SOL    HW260473   9.041   0.244  10.242
19526SOL     OW60474   3.462  12.270  14.369
19526SOL    HW160475   3.428  12.207  14.306
19526SOL    HW260476   3.527  12.320  14.320
19527SOL     OW60477  13.633  13.975   2.513
19527SOL    HW160478  13.667  13.885   2.512
19527SOL    HW260479  13.684  14.019   2.581
19528SOL     OW60480  11.832   0.220   8.401
19528SOL    HW160481  11.779   0.202   8.323
19528SOL    HW260482  11.777   0.277   8.455
19529SOL     OW60483  11.741   1.458   7.301
19529SOL    HW160484  11.801   1.518   7.257
19529SOL    HW260485  11.654   1.492   7.279
19530SOL     OW60486  14.626   5.168  13.780
19530SOL    HW160487  14.573   5.190  13.856
19530SOL    HW260488  14.571   5.111  13.728
19531SOL     OW60489   1.403  11.157  14.309
19531SOL    HW160490   1.416  11.165  14.403
19531SOL    HW260491   1.436  11.070  14.287
19532SOL     OW60492   8.606   5.424   3.270
19532SOL    HW160493   8.691   5.445   3.232
19532SOL    HW260494   8.542   5.462   3.210
19533SOL     OW60495   6.547   3.490   9.615
19533SOL    HW160496   6.554   3.515   9.523
19533SOL    HW260497   6.615   3.423   9.627
19534SOL     OW60498   0.553   0.902   3.430
19534SOL    HW160499   0.595   0.976   3.385
19534SOL    HW260500   0.459   0.924   3.429
19535SOL     OW60501   1.338  10.604  11.188
19535SOL    HW160502   1.335  10.699  11.203
19535SOL    HW260503   1.282  10.568  11.257
19536SOL     OW60504   5.645  14.552   7.105
19536SOL    HW160505   5.647  14.647   7.118
19536SOL    HW260506   5.738  14.526   7.102
19537SOL     OW60507   7.459   6.956  14.109
19537SOL    HW160508   7.411   7.035  14.082
19537SOL    HW260509   7.473   6.968  14.203
19538SOL     OW60510  13.306   5.601  14.401
19538SOL    HW160511  13.373   5.583  14.466
19538SOL    HW260512  13.355   5.622  14.321
19539SOL     OW60513   0.603  11.438   9.859
19539SOL    HW160514   0.620  11.516   9.912
19539SOL    HW260515   0.651  11.454   9.777
19540SOL     OW60516   0.587   1.774   8.184
19540SOL    HW160517   0.545   1.860   8.190
19540SOL    HW260518   0.660   1.788   8.123
19541SOL     OW60519   6.404   7.953  11.616
19541SOL    HW160520   6.396   7.869  11.660
19541SOL    HW260521   6.494   7.981  11.635
19542SOL     OW60522  13.102   3.102  14.357
19542SOL    HW160523  13.097   3.171  14.291
19542SOL    HW260524  13.133   3.147  14.436
19543SOL     OW60525   8.931   9.141   3.312
19543SOL    HW160526   8.886   9.109   3.390
19543SOL    HW260527   8.862   9.151   3.247
19544SOL     OW60528   3.773   1.704  12.812
19544SOL    HW160529   3.683   1.695  12.779
19544SOL    HW260530   3.798   1.793  12.788
19545SOL     OW60531  13.482  14.470   8.477
19545SOL    HW160532  13.486  14.385   8.520
19545SOL    HW260533  13.559  14.517   8.508
19546SOL     OW60534  11.991   2.788   2.951
19546SOL    HW160535  11.993   2.865   3.009
19546SOL    HW260536  11.929   2.812   2.882
19547SOL     OW60537   4.743   5.031  11.325
19547SOL    HW160538   4.694   4.949  11.323
19547SOL    HW260539   4.688   5.094  11.279
19548SOL     OW60540   6.322   5.123  14.428
19548SOL    HW160541   6.273   5.157  14.503
19548SOL    HW260542   6.340   5.031  14.451
19549SOL     OW60543  12.625   6.330   2.531
19549SOL    HW160544  12.578   6.342   2.614
19549SOL    HW260545  12.560   6.351   2.464
19550SOL     OW60546  11.842  12.825   7.605
19550SOL    HW160547  11.770  12.888   7.614
19550SOL    HW260548  11.881  12.822   7.692
19551SOL     OW60549  12.614   6.102  13.402
19551SOL    HW160550  12.610   6.173  13.466
19551SOL    HW260551  12.611   6.146  13.317
19552SOL     OW60552   6.754   9.235   8.511
19552SOL    HW160553   6.728   9.327   8.513
19552SOL    HW260554   6.841   9.235   8.470
19553SOL     OW60555  11.108   6.408   5.528
19553SOL    HW160556  11.057   6.385   5.606
19553SOL    HW260557  11.153   6.326   5.504
19554SOL     OW60558   3.911   5.414   4.269
19554SOL    HW160559   3.823   5.417   4.232
19554SOL    HW260560   3.898   5.392   4.361
19555SOL     OW60561   0.955   8.070   8.236
19555SOL    HW160562   0.961   8.073   8.332
19555SOL    HW260563   1.043   8.095   8.206
19556SOL     OW60564   9.092   4.536  14.290
19556SOL    HW160565   9.182   4.538  14.322
19556SOL    HW260566   9.049   4.470  14.344
19557SOL     OW60567  10.736   7.670   5.418
19557SOL    HW160568  10.821   7.644   5.381
19557SOL    HW260569  10.717   7.602   5.483
19558SOL     OW60570   1.753   8.442  11.755
19558SOL    HW160571   1.670   8.404  11.727
19558SOL    HW260572   1.816   8.370  11.747
19559SOL     OW60573   3.094   1.498   2.349
19559SOL    HW160574   3.116   1.442   2.275
19559SOL    HW260575   3.135   1.582   2.328
19560SOL     OW60576   3.417   0.957   8.997
19560SOL    HW160577   3.340   0.985   8.948
19560SOL    HW260578   3.485   1.021   8.975
19561SOL     OW60579  11.033   4.531   7.250
19561SOL    HW160580  11.083   4.518   7.331
19561SOL    HW260581  11.015   4.442   7.218
19562SOL     OW60582   9.758   4.067  10.148
19562SOL    HW160583   9.732   4.148  10.105
19562SOL    HW260584   9.746   4.083  10.241
19563SOL     OW60585   6.167   6.697  14.694
19563SOL    HW160586   6.090   6.698  14.751
19563SOL    HW260587   6.166   6.782  14.651
19564SOL     OW60588   5.289   4.919   3.336
19564SOL    HW160589   5.271   4.866   3.259
19564SOL    HW260590   5.371   4.965   3.316
19565SOL     OW60591   5.667  13.273   3.926
19565SOL    HW160592   5.589  13.259   3.873
19565SOL    HW260593   5.711  13.348   3.886
19566SOL     OW60594  12.094   8.624  14.704
19566SOL    HW160595  12.005   8.654  14.685
19566SOL    HW260596  12.109   8.553  14.642
19567SOL     OW60597   9.138   9.349   7.927
19567SOL    HW160598   9.053   9.328   7.887
19567SOL    HW260599   9.172   9.265   7.956
19568SOL     OW60600   5.178  10.131  12.206
19568SOL    HW160601   5.215  10.117  12.119
19568SOL    HW260602   5.087  10.155  12.189
19569SOL     OW60603  14.477   4.932   8.579
19569SOL    HW160604  14.430   4.880   8.512
19569SOL    HW260605  14.471   4.879   8.658
19570SOL     OW60606   5.097  13.317   1.904
19570SOL    HW160607   5.119  13.330   1.996
19570SOL    HW260608   5.095  13.222   1.893
19571SOL     OW60609   7.947   2.219   1.925
19571SOL    HW160610   7.931   2.147   1.986
19571SOL    HW260611   7.990   2.286   1.978
19572SOL     OW60612   3.315   0.786   9.857
19572SOL    HW160613   3.312   0.707   9.912
19572SOL    HW260614   3.230   0.828   9.871
19573SOL     OW60615  10.323  11.794   3.152
19573SOL    HW160616  10.370  11.876   3.168
19573SOL    HW260617  10.335  11.777   3.059
19574SOL     OW60618   6.802   9.997  11.665
19574SOL    HW160619   6.729  10.027  11.718
19574SOL    HW260620   6.870   9.974  11.729
19575SOL     OW60621   9.415   8.096   1.158
19575SOL    HW160622   9.462   8.054   1.230
19575SOL    HW260623   9.408   8.029   1.091
19576SOL     OW60624  11.265   1.327  12.873
19576SOL    HW160625  11.173   1.353  12.874
19576SOL    HW260626  11.277   1.279  12.955
19577SOL     OW60627  10.083   1.880  10.567
19577SOL    HW160628  10.019   1.893  10.497
19577SOL    HW260629  10.158   1.933  10.539
19578SOL     OW60630   5.582  10.446   3.108
19578SOL    HW160631   5.629  10.420   3.029
19578SOL    HW260632   5.534  10.525   3.083
19579SOL     OW60633   5.831   5.831   7.031
19579SOL    HW160634   5.794   5.885   6.962
19579SOL    HW260635   5.926   5.838   7.018
19580SOL     OW60636   2.434  11.049  11.609
19580SOL    HW160637   2.482  11.128  11.633
19580SOL    HW260638   2.399  11.068  11.523
19581SOL     OW60639  12.979   7.790   5.581
19581SOL    HW160640  13.065   7.782   5.621
19581SOL    HW260641  12.920   7.747   5.643
19582SOL     OW60642   1.118   6.792  10.330
19582SOL    HW160643   1.175   6.869  10.329
19582SOL    HW260644   1.139   6.745  10.249
19583SOL     OW60645   1.709   8.395   9.961
19583SOL    HW160646   1.716   8.363   9.871
19583SOL    HW260647   1.615   8.394   9.980
19584SOL     OW60648   1.494   4.233   1.382
19584SOL    HW160649   1.429   4.193   1.324
19584SOL    HW260650   1.458   4.223   1.470
19585SOL     OW60651   6.199  10.832   7.387
19585SOL    HW160652   6.289  10.861   7.405
19585SOL    HW260653   6.148  10.913   7.383
19586SOL     OW60654  13.050   7.223   2.619
19586SOL    HW160655  13.117   7.290   2.611
19586SOL    HW260656  13.073   7.158   2.553
19587SOL     OW60657   8.337   9.193   4.498
19587SOL    HW160658   8.284   9.268   4.525
19587SOL    HW260659   8.274   9.122   4.488
19588SOL     OW60660   6.606  12.761   7.136
19588SOL    HW160661   6.551  12.830   7.173
19588SOL    HW260662   6.648  12.802   7.061
19589SOL     OW60663  10.507  10.054   3.880
19589SOL    HW160664  10.440  10.050   3.812
19589SOL    HW260665  10.585  10.018   3.839
19590SOL     OW60666  10.007  10.985   3.158
19590SOL    HW160667  10.031  10.979   3.066
19590SOL    HW260668  10.021  10.897   3.193
19591SOL     OW60669   9.006   2.146   7.193
19591SOL    HW160670   8.930   2.124   7.139
19591SOL    HW260671   9.072   2.080   7.169
19592SOL     OW60672   3.592   1.697  14.111
19592SOL    HW160673   3.676   1.664  14.142
19592SOL    HW260674   3.593   1.683  14.016
19593SOL     OW60675  12.211  10.232   1.267
19593SOL    HW160676  12.150  10.199   1.334
19593SOL    HW260677  12.177  10.197   1.185
19594SOL     OW60678   6.342  14.309   3.030
19594SOL    HW160679   6.395  14.264   3.096
19594SOL    HW260680   6.325  14.395   3.068
19595SOL     OW60681  14.874  11.454   6.659
19595SOL    HW160682   0.076  11.400   6.637
19595SOL    HW260683   0.032  11.544   6.657
19596SOL     OW60684   5.394   6.483   1.356
19596SOL    HW160685   5.347   6.399   1.350
19596SOL    HW260686   5.470   6.463   1.411
19597SOL     OW60687  10.833   8.169  12.502
19597SOL    HW160688  10.868   8.218  12.428
19597SOL    HW260689  10.739   8.189  12.503
19598SOL     OW60690   7.625   0.243   6.055
19598SOL    HW160691   7.627   0.238   6.151
19598SOL    HW260692   7.638   0.153   6.025
19599SOL     OW60693   7.946   2.668  12.217
19599SOL    HW160694   8.037   2.647  12.197
19599SOL    HW260695   7.950   2.722  12.296
19600SOL     OW60696  14.384   4.029   4.067
19600SOL    HW160697  14.316   4.037   4.000
19600SOL    HW260698  14.363   4.097   4.131
19601SOL     OW60699   4.821   1.074  13.202
19601SOL    HW160700   4.878   0.998  13.190
19601SOL    HW260701   4.740   1.051  13.158
19602SOL     OW60702   5.270  14.491  10.497
19602SOL    HW160703   5.237  14.402  10.485
19602SOL    HW260704   5.357  14.490  10.458
19603SOL     OW60705   6.459   7.750   0.558
19603SOL    HW160706   6.394   7.691   0.521
19603SOL    HW260707   6.543   7.715   0.527
19604SOL     OW60708  10.704  10.299  12.230
19604SOL    HW160709  10.691  10.384  12.273
19604SOL    HW260710  10.683  10.315  12.138
19605SOL     OW60711   5.798   3.629   2.320
19605SOL    HW160712   5.888   3.602   2.338
19605SOL    HW260713   5.752   3.547   2.305
19606SOL     OW60714   4.240   4.130   2.191
19606SOL    HW160715   4.216   4.087   2.109
19606SOL    HW260716   4.160   4.127   2.244
19607SOL     OW60717  10.627   9.230   1.897
19607SOL    HW160718  10.566   9.156   1.896
19607SOL    HW260719  10.574   9.305   1.872
19608SOL     OW60720   8.234   4.547   0.987
19608SOL    HW160721   8.298   4.618   0.986
19608SOL    HW260722   8.271   4.479   0.932
19609SOL     OW60723   3.401  10.067   9.030
19609SOL    HW160724   3.418  10.065   8.936
19609SOL    HW260725   3.487  10.054   9.070
19610SOL     OW60726   6.006   7.940   2.393
19610SOL    HW160727   6.093   7.925   2.429
19610SOL    HW260728   5.947   7.925   2.468
19611SOL     OW60729   1.183   4.940  10.783
19611SOL    HW160730   1.181   4.846  10.799
19611SOL    HW260731   1.212   4.949  10.692
19612SOL     OW60732   0.017  11.924   1.945
19612SOL    HW160733   0.036  12.016   1.925
19612SOL    HW260734   0.101  11.879   1.934
19613SOL     OW60735  10.002  11.043   9.929
19613SOL    HW160736   9.934  11.102   9.896
19613SOL    HW260737   9.999  10.967   9.871
19614SOL     OW60738   6.132   0.435   2.975
19614SOL    HW160739   6.138   0.429   3.070
19614SOL    HW260740   6.038   0.431   2.956
19615SOL     OW60741   2.307  13.736   0.561
19615SOL    HW160742   2.246  13.691   0.503
19615SOL    HW260743   2.393  13.714   0.527
19616SOL     OW60744  13.415  10.645   6.009
19616SOL    HW160745  13.390  10.727   5.967
19616SOL    HW260746  13.436  10.670   6.099
19617SOL     OW60747   6.348   1.812  10.549
19617SOL    HW160748   6.362   1.754  10.624
19617SOL    HW260749   6.369   1.899  10.581
19618SOL     OW60750  13.503   4.978   9.914
19618SOL    HW160751  13.466   5.012   9.996
19618SOL    HW260752  13.548   5.053   9.875
19619SOL     OW60753  13.742  12.179   3.266
19619SOL    HW160754  13.691  12.169   3.186
19619SOL    HW260755  13.798  12.255   3.249
19620SOL     OW60756   7.589   4.225  14.588
19620SOL    HW160757   7.644   4.159  14.547
19620SOL    HW260758   7.525   4.248  14.521
19621SOL     OW60759   8.098  13.967   5.442
19621SOL    HW160760   8.071  13.947   5.532
19621SOL    HW260761   8.167  13.904   5.423
19622SOL     OW60762   5.396  12.696   0.435
19622SOL    HW160763   5.452  12.759   0.480
19622SOL    HW260764   5.456  12.648   0.377
19623SOL     OW60765  14.326  12.175   6.715
19623SOL    HW160766  14.232  12.158   6.721
19623SOL    HW260767  14.334  12.241   6.646
19624SOL     OW60768   6.282   3.613   7.695
19624SOL    HW160769   6.306   3.704   7.711
19624SOL    HW260770   6.354   3.578   7.643
19625SOL     OW60771   0.393  14.321   8.583
19625SOL    HW160772   0.486  14.333   8.561
19625SOL    HW260773   0.380  14.226   8.579
19626SOL     OW60774  10.887   7.870   2.184
19626SOL    HW160775  10.808   7.817   2.172
19626SOL    HW260776  10.959   7.810   2.161
19627SOL     OW60777  12.938  14.631  13.702
19627SOL    HW160778  12.847  14.604  13.708
19627SOL    HW260779  12.935  14.727  13.711
19628SOL     OW60780   7.741   0.677   0.627
19628SOL    HW160781   7.723   0.584   0.618
19628SOL    HW260782   7.685   0.719   0.562
19629SOL     OW60783  14.178  12.455   7.331
19629SOL    HW160784  14.114  12.385   7.345
19629SOL    HW260785  14.126  12.535   7.324
19630SOL     OW60786   8.845   8.650  14.640
19630SOL    HW160787   8.923   8.598  14.618
19630SOL    HW260788   8.823   8.695  14.558
19631SOL     OW60789   2.065   3.006   0.194
19631SOL    HW160790   2.109   3.026   0.111
19631SOL    HW260791   2.136   3.002   0.258
19632SOL     OW60792  12.482   8.608  14.602
19632SOL    HW160793  12.555   8.559  14.564
19632SOL    HW260794  12.418   8.615  14.531
19633SOL     OW60795   6.825   7.743   7.351
19633SOL    HW160796   6.768   7.744   7.429
19633SOL    HW260797   6.875   7.662   7.360
19634SOL     OW60798  12.408  13.712  11.247
19634SOL    HW160799  12.468  13.778  11.211
19634SOL    HW260800  12.324  13.757  11.255
19635SOL     OW60801   8.192  13.382   6.125
19635SOL    HW160802   8.111  13.332   6.118
19635SOL    HW260803   8.175  13.462   6.075
19636SOL     OW60804  10.749   8.817   3.645
19636SOL    HW160805  10.711   8.762   3.714
19636SOL    HW260806  10.678   8.874   3.618
19637SOL     OW60807   3.668  14.243   7.272
19637SOL    HW160808   3.658  14.238   7.367
19637SOL    HW260809   3.760  14.224   7.256
19638SOL     OW60810   3.799  12.585   2.394
19638SOL    HW160811   3.720  12.595   2.447
19638SOL    HW260812   3.810  12.670   2.351
19639SOL     OW60813   2.738   4.041   3.996
19639SOL    HW160814   2.670   4.045   4.063
19639SOL    HW260815   2.690   4.030   3.914
19640SOL     OW60816   1.147   4.277   2.604
19640SOL    HW160817   1.072   4.274   2.664
19640SOL    HW260818   1.222   4.294   2.661
19641SOL     OW60819  13.213   2.651   6.020
19641SOL    HW160820  13.185   2.701   5.943
19641SOL    HW260821  13.287   2.701   6.054
19642SOL     OW60822   8.101   2.734  11.569
19642SOL    HW160823   8.030   2.791  11.598
19642SOL    HW260824   8.168   2.794  11.536
19643SOL     OW60825   2.659   3.546   3.102
19643SOL    HW160826   2.753   3.532   3.099
19643SOL    HW260827   2.628   3.492   3.175
19644SOL     OW60828  11.460   8.392   6.184
19644SOL    HW160829  11.389   8.416   6.124
19644SOL    HW260830  11.422   8.405   6.271
19645SOL     OW60831  14.624   0.488  10.402
19645SOL    HW160832  14.673   0.425  10.456
19645SOL    HW260833  14.611   0.564  10.459
19646SOL     OW60834   7.070  12.872   8.415
19646SOL    HW160835   7.133  12.868   8.486
19646SOL    HW260836   7.123  12.863   8.335
19647SOL     OW60837   6.769  10.406   8.108
19647SOL    HW160838   6.747  10.461   8.183
19647SOL    HW260839   6.824  10.337   8.145
19648SOL     OW60840  13.889  12.388   4.126
19648SOL    HW160841  13.907  12.452   4.195
19648SOL    HW260842  13.793  12.382   4.124
19649SOL     OW60843   1.129  12.271  13.273
19649SOL    HW160844   1.203  12.331  13.261
19649SOL    HW260845   1.168  12.194  13.314
19650SOL     OW60846   7.181   6.218   0.021
19650SOL    HW160847   7.129   6.138   0.014
19650SOL    HW260848   7.267   6.189   0.050
19651SOL     OW60849  13.762   8.578   6.272
19651SOL    HW160850  13.798   8.608   6.188
19651SOL    HW260851  13.824   8.512   6.303
19652SOL     OW60852   1.989  10.476  13.733
19652SOL    HW160853   1.929  10.463  13.660
19652SOL    HW260854   2.072  10.503  13.692
19653SOL     OW60855   3.656  10.163   2.230
19653SOL    HW160856   3.732  10.136   2.179
19653SOL    HW260857   3.672  10.126   2.317
19654SOL     OW60858  12.615   1.192  10.076
19654SOL    HW160859  12.538   1.196  10.020
19654SOL    HW260860  12.688   1.213  10.018
19655SOL     OW60861  14.608   7.684   1.767
19655SOL    HW160862  14.574   7.670   1.679
19655SOL    HW260863  14.647   7.772   1.764
19656SOL     OW60864   9.165   2.892  13.369
19656SOL    HW160865   9.248   2.936  13.387
19656SOL    HW260866   9.111   2.958  13.328
19657SOL     OW60867  12.088   0.453   4.878
19657SOL    HW160868  12.132   0.484   4.799
19657SOL    HW260869  12.154   0.400   4.923
19658SOL     OW60870   5.968   8.916  10.181
19658SOL    HW160871   5.925   8.880  10.104
19658SOL    HW260872   5.931   8.868  10.255
19659SOL     OW60873  10.670  11.560  13.596
19659SOL    HW160874  10.757  11.546  13.558
19659SOL    HW260875  10.687  11.576  13.689
19660SOL     OW60876  14.635   2.898  10.698
19660SOL    HW160877  14.630   2.964  10.767
19660SOL    HW260878  14.688   2.939  10.630
19661SOL     OW60879  13.556   0.399  12.671
19661SOL    HW160880  13.545   0.307  12.646
19661SOL    HW260881  13.550   0.446  12.588
19662SOL     OW60882  13.067   8.974  14.225
19662SOL    HW160883  13.161   8.971  14.208
19662SOL    HW260884  13.058   8.950  14.318
19663SOL     OW60885   5.781   5.318   0.558
19663SOL    HW160886   5.876   5.313   0.551
19663SOL    HW260887   5.754   5.228   0.579
19664SOL     OW60888   2.244   6.461   2.980
19664SOL    HW160889   2.263   6.396   2.911
19664SOL    HW260890   2.321   6.458   3.036
19665SOL     OW60891   1.481   1.860   4.774
19665SOL    HW160892   1.503   1.769   4.792
19665SOL    HW260893   1.394   1.857   4.735
19666SOL     OW60894   2.663   2.146   2.760
19666SOL    HW160895   2.700   2.063   2.728
19666SOL    HW260896   2.734   2.209   2.751
19667SOL     OW60897  11.744   3.706   3.606
19667SOL    HW160898  11.725   3.638   3.670
19667SOL    HW260899  11.698   3.783   3.639
19668SOL     OW60900  14.237  13.263   0.001
19668SOL    HW160901  14.300  13.308  14.820
19668SOL    HW260902  14.246  13.306   0.086
19669SOL     OW60903   8.391   2.538  11.833
19669SOL    HW160904   8.398   2.518  11.739
19669SOL    HW260905   8.479   2.570  11.856
19670SOL     OW60906   0.286  12.692  12.998
19670SOL    HW160907   0.278  12.601  13.029
19670SOL    HW260908   0.361  12.727  13.046
19671SOL     OW60909  12.330   4.119   6.450
19671SOL    HW160910  12.368   4.146   6.366
19671SOL    HW260911  12.287   4.036   6.432
19672SOL     OW60912   3.219  11.938   2.865
19672SOL    HW160913   3.231  11.950   2.959
19672SOL    HW260914   3.257  11.852   2.847
19673SOL     OW60915   9.768  12.645   3.131
19673SOL    HW160916   9.768  12.604   3.045
19673SOL    HW260917   9.717  12.585   3.186
19674SOL     OW60918  13.568  10.582   7.459
19674SOL    HW160919  13.587  10.584   7.553
19674SOL    HW260920  13.592  10.669   7.428
19675SOL     OW60921  10.672   5.303  14.439
19675SOL    HW160922  10.605   5.303  14.370
19675SOL    HW260923  10.658   5.220  14.485
19676SOL     OW60924   5.461  12.101  12.049
19676SOL    HW160925   5.489  12.137  12.133
19676SOL    HW260926   5.499  12.013  12.047
19677SOL     OW60927   8.047   9.777  14.221
19677SOL    HW160928   8.000   9.694  14.222
19677SOL    HW260929   8.001   9.830  14.156
19678SOL     OW60930   9.616  13.894   0.862
19678SOL    HW160931   9.672  13.885   0.785
19678SOL    HW260932   9.678  13.900   0.936
19679SOL     OW60933   5.334   5.314  11.973
19679SOL    HW160934   5.351   5.245  11.909
19679SOL    HW260935   5.384   5.389  11.941
19680SOL     OW60936   0.733  11.592  13.569
19680SOL    HW160937   0.749  11.576  13.476
19680SOL    HW260938   0.808  11.644  13.599
19681SOL     OW60939   5.837   1.487   2.135
19681SOL    HW160940   5.837   1.549   2.062
19681SOL    HW260941   5.752   1.443   2.129
19682SOL     OW60942   7.143   4.636  14.467
19682SOL    HW160943   7.074   4.653  14.403
19682SOL    HW260944   7.095   4.609  14.546
19683SOL     OW60945   8.701  11.773  12.166
19683SOL    HW160946   8.727  11.722  12.243
19683SOL    HW260947   8.626  11.825  12.196
19684SOL     OW60948   6.324   2.338  10.412
19684SOL    HW160949   6.327   2.432  10.431
19684SOL    HW260950   6.373   2.329  10.330
19685SOL     OW60951   3.894   3.302   4.004
19685SOL    HW160952   3.914   3.214   4.035
19685SOL    HW260953   3.859   3.347   4.081
19686SOL     OW60954   6.284   6.036   6.624
19686SOL    HW160955   6.301   5.943   6.609
19686SOL    HW260956   6.369   6.072   6.651
19687SOL     OW60957  12.262  10.903  12.558
19687SOL    HW160958  12.264  10.809  12.541
19687SOL    HW260959  12.312  10.942  12.486
19688SOL     OW60960  10.201  12.371  10.737
19688SOL    HW160961  10.247  12.341  10.815
19688SOL    HW260962  10.250  12.448  10.708
19689SOL     OW60963  12.056  14.802  10.211
19689SOL    HW160964  12.024   0.015  10.228
19689SOL    HW260965  12.109  14.810  10.132
19690SOL     OW60966   6.459  10.070   9.274
19690SOL    HW160967   6.431   9.979   9.267
19690SOL    HW260968   6.421  10.100   9.357
19691SOL     OW60969  11.678   3.017   6.541
19691SOL    HW160970  11.648   3.019   6.632
19691SOL    HW260971  11.704   2.925   6.527
19692SOL     OW60972   3.676   1.889  14.284
19692SOL    HW160973   3.632   1.839  14.215
19692SOL    HW260974   3.647   1.979  14.271
19693SOL     OW60975  12.810   0.022   6.934
19693SOL    HW160976  12.784   0.059   6.850
19693SOL    HW260977  12.743   0.052   6.996
19694SOL     OW60978   3.103   6.696   8.984
19694SOL    HW160979   3.071   6.628   9.044
19694SOL    HW260980   3.160   6.648   8.923
19695SOL     OW60981  14.204   8.896  10.774
19695SOL    HW160982  14.112   8.868  10.782
19695SOL    HW260983  14.218   8.905  10.680
19696SOL     OW60984  11.095  11.040   3.894
19696SOL    HW160985  11.017  11.017   3.944
19696SOL    HW260986  11.075  11.126   3.857
19697SOL     OW60987   1.076   7.138   0.635
19697SOL    HW160988   0.994   7.131   0.683
19697SOL    HW260989   1.069   7.073   0.566
19698SOL     OW60990   8.265   9.595   9.617
19698SOL    HW160991   8.348   9.631   9.651
19698SOL    HW260992   8.228   9.667   9.565
19699SOL     OW60993   9.378   9.377  14.101
19699SOL    HW160994   9.286   9.402  14.114
19699SOL    HW260995   9.376   9.281  14.104
19700SOL     OW60996   7.728  14.063  13.128
19700SOL    HW160997   7.817  14.069  13.165
19700SOL    HW260998   7.742  14.059  13.033
19701SOL     OW60999  14.798  10.295   2.090
19701SOL    HW161000  14.846  10.217   2.062
19701SOL    HW261001  14.736  10.263   2.156
19702SOL     OW61002   9.335  14.139   5.242
19702SOL    HW161003   9.328  14.191   5.162
19702SOL    HW261004   9.428  14.138   5.262
19703SOL     OW61005   9.435  11.449   2.078
19703SOL    HW161006   9.435  11.367   2.126
19703SOL    HW261007   9.403  11.514   2.140
19704SOL     OW61008   8.182   8.935   9.179
19704SOL    HW161009   8.132   8.979   9.247
19704SOL    HW261010   8.259   8.900   9.225
19705SOL     OW61011  12.107   0.284  13.622
19705SOL    HW161012  12.193   0.259  13.656
19705SOL    HW261013  12.047   0.270  13.695
19706SOL     OW61014   0.257  11.488  11.856
19706SOL    HW161015   0.329  11.546  11.833
19706SOL    HW261016   0.183  11.520  11.805
19707SOL     OW61017   4.055   2.306  10.565
19707SOL    HW161018   4.114   2.333  10.495
19707SOL    HW261019   4.105   2.320  10.646
19708SOL     OW61020  12.464   7.550   4.950
19708SOL    HW161021  12.499   7.479   5.003
19708SOL    HW261022  12.518   7.550   4.871
19709SOL     OW61023   2.087   8.941   8.858
19709SOL    HW161024   2.082   8.928   8.953
19709SOL    HW261025   2.180   8.951   8.840
19710SOL     OW61026   1.360  12.642   9.784
19710SOL    HW161027   1.327  12.555   9.808
19710SOL    HW261028   1.390  12.679   9.867
19711SOL     OW61029   1.254   4.506  13.296
19711SOL    HW161030   1.203   4.503  13.215
19711SOL    HW261031   1.336   4.461  13.275
19712SOL     OW61032  12.283   9.327   6.413
19712SOL    HW161033  12.333   9.339   6.493
19712SOL    HW261034  12.332   9.373   6.346
19713SOL     OW61035   5.763   7.509   6.849
19713SOL    HW161036   5.780   7.590   6.896
19713SOL    HW261037   5.822   7.512   6.773
19714SOL     OW61038   4.081   5.955   1.167
19714SOL    HW161039   4.089   5.869   1.126
19714SOL    HW261040   4.008   5.997   1.121
19715SOL     OW61041  11.503   6.630   9.375
19715SOL    HW161042  11.521   6.596   9.287
19715SOL    HW261043  11.546   6.569   9.434
19716SOL     OW61044   9.885  10.601   1.288
19716SOL    HW161045   9.835  10.595   1.370
19716SOL    HW261046   9.839  10.542   1.228
19717SOL     OW61047   7.697  10.737  11.897
19717SOL    HW161048   7.706  10.652  11.941
19717SOL    HW261049   7.757  10.731  11.822
19718SOL     OW61050  10.396   1.256  12.963
19718SOL    HW161051  10.394   1.317  13.036
19718SOL    HW261052  10.439   1.178  12.998
19719SOL     OW61053   4.953   3.863   4.445
19719SOL    HW161054   4.919   3.919   4.515
19719SOL    HW261055   4.934   3.774   4.475
19720SOL     OW61056  14.853   7.924   2.097
19720SOL    HW161057  14.767   7.967   2.098
19720SOL    HW261058  14.834   7.833   2.117
19721SOL     OW61059   4.756   1.818   3.230
19721SOL    HW161060   4.681   1.835   3.174
19721SOL    HW261061   4.831   1.818   3.171
19722SOL     OW61062   7.787   1.279  11.598
19722SOL    HW161063   7.817   1.340  11.665
19722SOL    HW261064   7.734   1.333  11.539
19723SOL     OW61065   8.233  11.221   4.983
19723SOL    HW161066   8.233  11.126   4.971
19723SOL    HW261067   8.324  11.247   4.970
19724SOL     OW61068   9.430   5.586   3.733
19724SOL    HW161069   9.412   5.601   3.640
19724SOL    HW261070   9.498   5.649   3.754
19725SOL     OW61071   1.994  11.054   0.998
19725SOL    HW161072   2.081  11.089   1.015
19725SOL    HW261073   2.004  10.959   1.002
19726SOL     OW61074   6.536  14.123   7.592
19726SOL    HW161075   6.493  14.039   7.575
19726SOL    HW261076   6.518  14.140   7.685
19727SOL     OW61077  12.960   1.314   6.418
19727SOL    HW161078  12.907   1.394   6.424
19727SOL    HW261079  13.050   1.344   6.432
19728SOL     OW61080  12.246   1.735   0.069
19728SOL    HW161081  12.244   1.652   0.022
19728SOL    HW261082  12.298   1.793   0.013
19729SOL     OW61083  11.268   2.659  11.220
19729SOL    HW161084  11.191   2.663  11.277
19729SOL    HW261085  11.294   2.750  11.208
19730SOL     OW61086   7.891   9.371  11.023
19730SOL    HW161087   7.913   9.404  10.936
19730SOL    HW261088   7.805   9.407  11.043
19731SOL     OW61089  10.644  10.440   0.770
19731SOL    HW161090  10.577  10.413   0.708
19731SOL    HW261091  10.612  10.523   0.805
19732SOL     OW61092   5.425   3.392   9.474
19732SOL    HW161093   5.488   3.332   9.515
19732SOL    HW261094   5.344   3.341   9.468
19733SOL     OW61095  11.153   5.461  10.351
19733SOL    HW161096  11.181   5.369  10.357
19733SOL    HW261097  11.209   5.498  10.282
19734SOL     OW61098   3.392   0.532  14.246
19734SOL    HW161099   3.381   0.518  14.340
19734SOL    HW261100   3.382   0.626  14.235
19735SOL     OW61101  10.519   5.211   4.662
19735SOL    HW161102  10.501   5.295   4.704
19735SOL    HW261103  10.433   5.177   4.637
19736SOL     OW61104  13.497  11.807  10.883
19736SOL    HW161105  13.569  11.864  10.855
19736SOL    HW261106  13.501  11.733  10.823
19737SOL     OW61107   4.977   0.602   8.123
19737SOL    HW161108   5.021   0.687   8.117
19737SOL    HW261109   4.885   0.622   8.110
19738SOL     OW61110   3.050   1.676   8.579
19738SOL    HW161111   2.960   1.693   8.608
19738SOL    HW261112   3.095   1.643   8.656
19739SOL     OW61113  14.216  14.545  12.354
19739SOL    HW161114  14.156  14.587  12.416
19739SOL    HW261115  14.238  14.461  12.396
19740SOL     OW61116  13.006   6.519   5.302
19740SOL    HW161117  12.958   6.586   5.351
19740SOL    HW261118  12.941   6.452   5.282
19741SOL     OW61119  12.764   4.818   1.116
19741SOL    HW161120  12.783   4.735   1.160
19741SOL    HW261121  12.684   4.850   1.158
19742SOL     OW61122   3.173   2.970  12.435
19742SOL    HW161123   3.108   2.906  12.463
19742SOL    HW261124   3.123   3.036  12.388
19743SOL     OW61125   0.357   5.790  11.968
19743SOL    HW161126   0.338   5.839  12.048
19743SOL    HW261127   0.365   5.857  11.901
19744SOL     OW61128   7.003   9.483   7.049
19744SOL    HW161129   7.063   9.448   7.115
19744SOL    HW261130   6.918   9.444   7.070
19745SOL     OW61131  11.114   4.522   5.654
19745SOL    HW161132  11.191   4.573   5.628
19745SOL    HW261133  11.132   4.434   5.622
19746SOL     OW61134   8.038   1.124   1.972
19746SOL    HW161135   8.023   1.216   1.954
19746SOL    HW261136   8.074   1.088   1.891
19747SOL     OW61137  13.462   5.853  14.664
19747SOL    HW161138  13.423   5.914  14.603
19747SOL    HW261139  13.476   5.773  14.613
19748SOL     OW61140   1.757   8.111   6.296
19748SOL    HW161141   1.679   8.149   6.336
19748SOL    HW261142   1.824   8.178   6.306
19749SOL     OW61143  14.399   8.960  12.036
19749SOL    HW161144  14.372   9.014  11.962
19749SOL    HW261145  14.480   9.001  12.067
19750SOL     OW61146   9.831  10.749  11.382
19750SOL    HW161147   9.836  10.661  11.417
19750SOL    HW261148   9.887  10.802  11.440
19751SOL     OW61149  14.842   7.908  12.057
19751SOL    HW161150  14.858   7.946  11.971
19751SOL    HW261151   0.052   7.910  12.100
19752SOL     OW61152   1.352  12.864   2.575
19752SOL    HW161153   1.288  12.861   2.646
19752SOL    HW261154   1.299  12.870   2.496
19753SOL     OW61155   9.795   0.680   3.326
19753SOL    HW161156   9.857   0.720   3.264
19753SOL    HW261157   9.837   0.690   3.411
19754SOL     OW61158   4.295  12.490   0.284
19754SOL    HW161159   4.260  12.558   0.343
19754SOL    HW261160   4.389  12.505   0.285
19755SOL     OW61161  12.543  12.379   0.398
19755SOL    HW161162  12.611  12.424   0.447
19755SOL    HW261163  12.583  12.295   0.375
19756SOL     OW61164  14.114   2.119  14.310
19756SOL    HW161165  14.205   2.151  14.313
19756SOL    HW261166  14.063   2.189  14.352
19757SOL     OW61167   1.558   5.345   1.108
19757SOL    HW161168   1.500   5.410   1.148
19757SOL    HW261169   1.550   5.360   1.014
19758SOL     OW61170  14.487  12.920   7.905
19758SOL    HW161171  14.415  12.979   7.927
19758SOL    HW261172  14.518  12.889   7.991
19759SOL     OW61173  12.895   4.797   8.099
19759SOL    HW161174  12.823   4.859   8.100
19759SOL    HW261175  12.855   4.713   8.120
19760SOL     OW61176   2.954   7.970   1.459
19760SOL    HW161177   3.000   8.018   1.390
19760SOL    HW261178   2.866   8.006   1.459
19761SOL     OW61179  13.644   6.858  13.435
19761SOL    HW161180  13.685   6.857  13.521
19761SOL    HW261181  13.601   6.773  13.428
19762SOL     OW61182   3.248   0.349  11.735
19762SOL    HW161183   3.285   0.431  11.703
19762SOL    HW261184   3.302   0.326  11.810
19763SOL     OW61185  11.128   4.665   2.461
19763SOL    HW161186  11.120   4.758   2.482
19763SOL    HW261187  11.187   4.631   2.529
19764SOL     OW61188   9.165   1.228   6.488
19764SOL    HW161189   9.239   1.193   6.439
19764SOL    HW261190   9.152   1.316   6.453
19765SOL     OW61191  10.086  12.377  12.794
19765SOL    HW161192  10.128  12.393  12.879
19765SOL    HW261193  10.158  12.380  12.731
19766SOL     OW61194   5.136   6.392   0.597
19766SOL    HW161195   5.121   6.398   0.691
19766SOL    HW261196   5.057   6.350   0.563
19767SOL     OW61197   5.846   9.551  13.141
19767SOL    HW161198   5.820   9.643  13.131
19767SOL    HW261199   5.842   9.536  13.236
19768SOL     OW61200  11.097  14.860   3.982
19768SOL    HW161201  11.106  14.767   3.962
19768SOL    HW261202  11.163   0.001   4.050
19769SOL     OW61203   7.478  11.183   0.520
19769SOL    HW161204   7.468  11.275   0.544
19769SOL    HW261205   7.477  11.137   0.604
19770SOL     OW61206   2.172   6.611  12.752
19770SOL    HW161207   2.233   6.643  12.684
19770SOL    HW261208   2.113   6.553  12.705
19771SOL     OW61209   2.847   7.943  10.692
19771SOL    HW161210   2.858   7.853  10.660
19771SOL    HW261211   2.857   7.936  10.787
19772SOL     OW61212   2.884   6.541   2.762
19772SOL    HW161213   2.821   6.469   2.764
19772SOL    HW261214   2.918   6.541   2.673
19773SOL     OW61215  14.699   1.157   6.231
19773SOL    HW161216  14.769   1.204   6.277
19773SOL    HW261217  14.619   1.188   6.272
19774SOL     OW61218  10.995  14.292  12.321
19774SOL    HW161219  11.005  14.385  12.298
19774SOL    HW261220  11.082  14.255  12.307
19775SOL     OW61221  11.889  14.392   1.122
19775SOL    HW161222  11.940  14.405   1.202
19775SOL    HW261223  11.943  14.430   1.053
19776SOL     OW61224   0.464   4.628   3.544
19776SOL    HW161225   0.409   4.571   3.597
19776SOL    HW261226   0.414   4.709   3.535
19777SOL     OW61227   4.133  13.013   0.790
19777SOL    HW161228   4.119  13.094   0.838
19777SOL    HW261229   4.223  12.988   0.811
19778SOL     OW61230   1.986  10.914   4.702
19778SOL    HW161231   2.076  10.939   4.719
19778SOL    HW261232   1.941  10.924   4.786
19779SOL     OW61233   5.345  11.467   3.844
19779SOL    HW161234   5.366  11.539   3.784
19779SOL    HW261235   5.326  11.510   3.927
19780SOL     OW61236  12.161   2.673   7.472
19780SOL    HW161237  12.067   2.689   7.471
19780SOL    HW261238  12.193   2.716   7.393
19781SOL     OW61239   8.408  13.802   3.545
19781SOL    HW161240   8.371  13.722   3.509
19781SOL    HW261241   8.393  13.796   3.640
19782SOL     OW61242   5.423  12.969  11.131
19782SOL    HW161243   5.340  12.960  11.177
19782SOL    HW261244   5.410  13.042  11.071
19783SOL     OW61245   2.982  11.216  12.572
19783SOL    HW161246   2.913  11.166  12.529
19783SOL    HW261247   3.051  11.153  12.589
19784SOL     OW61248  13.823   0.694   4.089
19784SOL    HW161249  13.752   0.741   4.045
19784SOL    HW261250  13.810   0.711   4.182
19785SOL     OW61251   7.106  12.352   2.785
19785SOL    HW161252   7.044  12.303   2.731
19785SOL    HW261253   7.059  12.370   2.866
19786SOL     OW61254   6.834  12.284  12.753
19786SOL    HW161255   6.809  12.218  12.818
19786SOL    HW261256   6.881  12.351  12.804
19787SOL     OW61257   7.032   9.226  13.521
19787SOL    HW161258   7.021   9.156  13.456
19787SOL    HW261259   7.122   9.215  13.552
19788SOL     OW61260   9.673   0.233   0.979
19788SOL    HW161261   9.695   0.275   1.062
19788SOL    HW261262   9.707   0.292   0.912
19789SOL     OW61263  12.190  13.202  11.860
19789SOL    HW161264  12.198  13.210  11.955
19789SOL    HW261265  12.197  13.292  11.827
19790SOL     OW61266   2.004   8.853  14.256
19790SOL    HW161267   2.095   8.879  14.238
19790SOL    HW261268   1.973   8.816  14.173
19791SOL     OW61269  11.219  14.068   1.927
19791SOL    HW161270  11.169  14.120   1.990
19791SOL    HW261271  11.155  14.008   1.890
19792SOL     OW61272   2.423   5.580   0.612
19792SOL    HW161273   2.446   5.579   0.519
19792SOL    HW261274   2.506   5.567   0.657
19793SOL     OW61275   0.524   0.849   3.045
19793SOL    HW161276   0.577   0.780   3.006
19793SOL    HW261277   0.449   0.803   3.082
19794SOL     OW61278  12.170  14.873   0.286
19794SOL    HW161279  12.249   0.031   0.329
19794SOL    HW261280  12.185   0.013   0.193
19795SOL     OW61281   1.014  13.542   7.568
19795SOL    HW161282   1.069  13.528   7.491
19795SOL    HW261283   1.006  13.455   7.608
19796SOL     OW61284   2.583  11.405  10.887
19796SOL    HW161285   2.548  11.423  10.974
19796SOL    HW261286   2.574  11.310  10.877
19797SOL     OW61287   8.468  12.095  13.157
19797SOL    HW161288   8.415  12.106  13.078
19797SOL    HW261289   8.554  12.068  13.124
19798SOL     OW61290   7.024   5.154   1.468
19798SOL    HW161291   7.079   5.156   1.390
19798SOL    HW261292   6.936   5.136   1.435
19799SOL     OW61293  12.041   7.023   6.978
19799SOL    HW161294  11.956   7.010   6.937
19799SOL    HW261295  12.031   6.988   7.067
19800SOL     OW61296   3.876  10.384   4.835
19800SOL    HW161297   3.833  10.344   4.759
19800SOL    HW261298   3.969  10.366   4.823
19801SOL     OW61299  12.119  13.902   8.670
19801SOL    HW161300  12.092  13.824   8.623
19801SOL    HW261301  12.046  13.963   8.660
19802SOL     OW61302   6.396  10.100  10.429
19802SOL    HW161303   6.334  10.152  10.480
19802SOL    HW261304   6.419  10.027  10.485
19803SOL     OW61305   1.994   7.527  14.627
19803SOL    HW161306   1.962   7.579  14.554
19803SOL    HW261307   1.924   7.464  14.644
19804SOL     OW61308   4.067  12.964  14.032
19804SOL    HW161309   4.095  13.020  14.104
19804SOL    HW261310   3.978  12.992  14.012
19805SOL     OW61311   0.819  14.675  14.827
19805SOL    HW161312   0.860  14.598  14.788
19805SOL    HW261313   0.760  14.640   0.018
19806SOL     OW61314  10.576   8.406   3.254
19806SOL    HW161315  10.659   8.387   3.297
19806SOL    HW261316  10.547   8.488   3.294
19807SOL     OW61317  14.845   7.527   0.910
19807SOL    HW161318  14.826   7.548   0.819
19807SOL    HW261319   0.001   7.436   0.907
19808SOL     OW61320  11.455   0.908  11.887
19808SOL    HW161321  11.406   0.871  11.813
19808SOL    HW261322  11.522   0.842  11.906
19809SOL     OW61323  13.336  13.103   1.197
19809SOL    HW161324  13.247  13.074   1.177
19809SOL    HW261325  13.377  13.028   1.239
19810SOL     OW61326   7.526   5.693   0.104
19810SOL    HW161327   7.511   5.649   0.188
19810SOL    HW261328   7.495   5.782   0.117
19811SOL     OW61329  14.377   9.302  10.814
19811SOL    HW161330  14.326   9.222  10.822
19811SOL    HW261331  14.413   9.317  10.902
19812SOL     OW61332   1.542  14.046   2.115
19812SOL    HW161333   1.454  14.060   2.081
19812SOL    HW261334   1.591  14.123   2.087
19813SOL     OW61335   6.161   2.482   1.921
19813SOL    HW161336   6.207   2.549   1.870
19813SOL    HW261337   6.169   2.402   1.868
19814SOL     OW61338  10.924   3.514  12.388
19814SOL    HW161339  10.973   3.542  12.466
19814SOL    HW261340  10.986   3.525  12.316
19815SOL     OW61341  13.040   5.309  10.667
19815SOL    HW161342  12.955   5.265  10.662
19815SOL    HW261343  13.100   5.243  10.702
19816SOL     OW61344   2.786   0.541   3.754
19816SOL    HW161345   2.850   0.578   3.693
19816SOL    HW261346   2.758   0.459   3.712
19817SOL     OW61347   7.122   6.272  10.555
19817SOL    HW161348   7.074   6.214  10.495
19817SOL    HW261349   7.210   6.275  10.519
19818SOL     OW61350  11.016   0.294   1.945
19818SOL    HW161351  10.987   0.299   2.036
19818SOL    HW261352  11.081   0.223   1.945
19819SOL     OW61353   8.594   7.964  10.713
19819SOL    HW161354   8.583   7.943  10.620
19819SOL    HW261355   8.634   7.886  10.751
19820SOL     OW61356  12.050  14.272   9.266
19820SOL    HW161357  11.973  14.216   9.275
19820SOL    HW261358  12.089  14.272   9.354
19821SOL     OW61359  12.939   2.387  13.116
19821SOL    HW161360  12.918   2.470  13.158
19821SOL    HW261361  12.911   2.398  13.025
19822SOL     OW61362  11.553   1.905   0.156
19822SOL    HW161363  11.546   1.954   0.239
19822SOL    HW261364  11.475   1.850   0.154
19823SOL     OW61365   0.015   1.323  12.025
19823SOL    HW161366  14.822   1.344  12.089
19823SOL    HW261367   0.074   1.399  12.028
19824SOL     OW61368   3.649   8.737   4.637
19824SOL    HW161369   3.651   8.676   4.711
19824SOL    HW261370   3.692   8.691   4.566
19825SOL     OW61371   3.745  12.316  13.638
19825SOL    HW161372   3.690  12.275  13.571
19825SOL    HW261373   3.749  12.252  13.708
19826SOL     OW61374  13.093   9.505   1.767
19826SOL    HW161375  13.071   9.509   1.860
19826SOL    HW261376  13.050   9.581   1.728
19827SOL     OW61377   9.419   6.942   1.974
19827SOL    HW161378   9.473   6.889   2.033
19827SOL    HW261379   9.472   6.954   1.896
19828SOL     OW61380   4.618   1.678  12.417
19828SOL    HW161381   4.646   1.652  12.505
19828SOL    HW261382   4.523   1.674  12.419
19829SOL     OW61383   5.333   3.857   1.856
19829SOL    HW161384   5.336   3.771   1.814
19829SOL    HW261385   5.283   3.843   1.936
19830SOL     OW61386   5.579   9.751   9.362
19830SOL    HW161387   5.536   9.819   9.413
19830SOL    HW261388   5.661   9.733   9.408
19831SOL     OW61389   8.402   7.024   6.769
19831SOL    HW161390   8.490   7.048   6.797
19831SOL    HW261391   8.344   7.067   6.831
19832SOL     OW61392   3.911  11.037   3.488
19832SOL    HW161393   3.975  11.106   3.472
19832SOL    HW261394   3.828  11.075   3.462
19833SOL     OW61395   6.576  11.262   6.300
19833SOL    HW161396   6.607  11.281   6.388
19833SOL    HW261397   6.637  11.307   6.242
19834SOL     OW61398   4.001   0.280   5.538
19834SOL    HW161399   4.062   0.302   5.467
19834SOL    HW261400   3.914   0.294   5.500
19835SOL     OW61401   7.054  10.574  13.007
19835SOL    HW161402   7.011  10.649  13.048
19835SOL    HW261403   7.119  10.546  13.071
19836SOL     OW61404   1.725   1.699  13.125
19836SOL    HW161405   1.684   1.645  13.193
19836SOL    HW261406   1.753   1.778  13.171
19837SOL     OW61407   4.913   1.207  11.528
19837SOL    HW161408   4.961   1.289  11.524
19837SOL    HW261409   4.957   1.155  11.596
19838SOL     OW61410   2.123  11.907   4.694
19838SOL    HW161411   2.167  11.860   4.624
19838SOL    HW261412   2.071  11.841   4.739
19839SOL     OW61413   3.383   1.424   6.655
19839SOL    HW161414   3.314   1.359   6.670
19839SOL    HW261415   3.464   1.375   6.664
19840SOL     OW61416   7.783  12.467   7.960
19840SOL    HW161417   7.691  12.441   7.958
19840SOL    HW261418   7.792  12.523   8.037
19841SOL     OW61419   9.947   3.414   8.260
19841SOL    HW161420   9.885   3.421   8.188
19841SOL    HW261421   9.934   3.495   8.311
19842SOL     OW61422   8.520  14.851   6.865
19842SOL    HW161423   8.502   0.003   6.775
19842SOL    HW261424   8.452   0.018   6.917
19843SOL     OW61425  12.348   0.427  10.374
19843SOL    HW161426  12.269   0.437  10.427
19843SOL    HW261427  12.419   0.421  10.439
19844SOL     OW61428   4.807   1.493   6.885
19844SOL    HW161429   4.820   1.579   6.845
19844SOL    HW261430   4.715   1.493   6.911
19845SOL     OW61431  13.985   0.225   2.848
19845SOL    HW161432  13.967   0.305   2.801
19845SOL    HW261433  13.966   0.245   2.940
19846SOL     OW61434  13.980  14.050   2.816
19846SOL    HW161435  13.887  14.029   2.822
19846SOL    HW261436  14.006  14.019   2.729
19847SOL     OW61437  11.498   2.761  13.003
19847SOL    HW161438  11.593   2.758  12.992
19847SOL    HW261439  11.477   2.854  13.008
19848SOL     OW61440  11.314  13.033   2.527
19848SOL    HW161441  11.304  13.113   2.579
19848SOL    HW261442  11.248  12.974   2.561
19849SOL     OW61443  11.832  13.388   8.469
19849SOL    HW161444  11.919  13.408   8.503
19849SOL    HW261445  11.822  13.294   8.482
19850SOL     OW61446   1.507   9.731   2.360
19850SOL    HW161447   1.466   9.663   2.306
19850SOL    HW261448   1.502   9.810   2.307
19851SOL     OW61449   3.130   5.343   3.745
19851SOL    HW161450   3.076   5.389   3.680
19851SOL    HW261451   3.070   5.279   3.784
19852SOL     OW61452  10.528  12.265   3.292
19852SOL    HW161453  10.610  12.308   3.269
19852SOL    HW261454  10.504  12.302   3.377
19853SOL     OW61455  14.069   9.733   9.016
19853SOL    HW161456  14.071   9.640   8.993
19853SOL    HW261457  14.121   9.739   9.096
19854SOL     OW61458   6.967  13.330   4.269
19854SOL    HW161459   6.985  13.403   4.209
19854SOL    HW261460   7.050  13.315   4.314
19855SOL     OW61461   3.001   1.213  10.915
19855SOL    HW161462   3.049   1.232  10.995
19855SOL    HW261463   2.938   1.146  10.940
19856SOL     OW61464   9.031  14.286   4.713
19856SOL    HW161465   9.009  14.356   4.775
19856SOL    HW261466   9.098  14.324   4.657
19857SOL     OW61467   6.966   9.204   1.231
19857SOL    HW161468   6.894   9.149   1.201
19857SOL    HW261469   7.037   9.142   1.249
19858SOL     OW61470   2.196   4.935   6.175
19858SOL    HW161471   2.139   4.989   6.229
19858SOL    HW261472   2.282   4.941   6.217
19859SOL     OW61473   4.308   9.510   7.775
19859SOL    HW161474   4.305   9.498   7.870
19859SOL    HW261475   4.279   9.600   7.761
19860SOL     OW61476   9.147  12.935   4.894
19860SOL    HW161477   9.061  12.892   4.892
19860SOL    HW261478   9.127  13.028   4.905
19861SOL     OW61479   6.786  11.413   1.598
19861SOL    HW161480   6.805  11.399   1.690
19861SOL    HW261481   6.842  11.486   1.572
19862SOL     OW61482  14.225   8.869  11.345
19862SOL    HW161483  14.197   8.959  11.328
19862SOL    HW261484  14.251   8.835  11.259
19863SOL     OW61485  14.143   9.729   3.648
19863SOL    HW161486  14.230   9.696   3.673
19863SOL    HW261487  14.155   9.765   3.560
19864SOL     OW61488   5.314   1.611   2.534
19864SOL    HW161489   5.387   1.549   2.536
19864SOL    HW261490   5.265   1.592   2.614
19865SOL     OW61491   8.967   7.392   9.667
19865SOL    HW161492   8.965   7.298   9.645
19865SOL    HW261493   8.956   7.395   9.762
19866SOL     OW61494   2.291   1.895  13.124
19866SOL    HW161495   2.311   1.899  13.030
19866SOL    HW261496   2.351   1.830  13.159
19867SOL     OW61497   4.950   0.207  11.389
19867SOL    HW161498   4.868   0.229  11.434
19867SOL    HW261499   4.922   0.156  11.313
19868SOL     OW61500   2.109   5.071  13.552
19868SOL    HW161501   2.121   5.156  13.511
19868SOL    HW261502   2.015   5.065  13.568
19869SOL     OW61503   6.109   6.793  11.412
19869SOL    HW161504   6.030   6.759  11.370
19869SOL    HW261505   6.182   6.754  11.362
19870SOL     OW61506   7.949   6.425   2.253
19870SOL    HW161507   7.933   6.411   2.160
19870SOL    HW261508   7.983   6.514   2.259
19871SOL     OW61509   0.785   8.919   3.905
19871SOL    HW161510   0.850   8.978   3.867
19871SOL    HW261511   0.714   8.917   3.841
19872SOL     OW61512   6.033   1.909   1.640
19872SOL    HW161513   6.073   1.848   1.702
19872SOL    HW261514   6.053   1.872   1.554
19873SOL     OW61515   9.941  10.286   8.963
19873SOL    HW161516   9.854  10.327   8.964
19873SOL    HW261517   9.973  10.295   9.052
19874SOL     OW61518   4.699   8.931  14.062
19874SOL    HW161519   4.608   8.945  14.036
19874SOL    HW261520   4.699   8.939  14.157
19875SOL     OW61521  13.777  14.155   5.747
19875SOL    HW161522  13.698  14.102   5.746
19875SOL    HW261523  13.746  14.245   5.736
19876SOL     OW61524   8.339   9.841   8.964
19876SOL    HW161525   8.403   9.878   9.025
19876SOL    HW261526   8.270   9.906   8.959
19877SOL     OW61527   7.190   9.466   2.037
19877SOL    HW161528   7.150   9.438   2.120
19877SOL    HW261529   7.280   9.435   2.042
19878SOL     OW61530   6.943   6.686  13.205
19878SOL    HW161531   6.862   6.704  13.252
19878SOL    HW261532   7.012   6.701  13.270
19879SOL     OW61533  11.767   6.104  11.268
19879SOL    HW161534  11.846   6.079  11.220
19879SOL    HW261535  11.714   6.153  11.205
19880SOL     OW61536  10.885  14.746   2.568
19880SOL    HW161537  10.878  14.713   2.479
19880SOL    HW261538  10.823  14.693   2.618
19881SOL     OW61539   0.267  13.308   3.398
19881SOL    HW161540   0.306  13.355   3.323
19881SOL    HW261541   0.340  13.296   3.458
19882SOL     OW61542   7.779   5.614   2.867
19882SOL    HW161543   7.864   5.609   2.912
19882SOL    HW261544   7.795   5.675   2.795
19883SOL     OW61545  12.804  12.740  10.689
19883SOL    HW161546  12.880  12.741  10.632
19883SOL    HW261547  12.800  12.651  10.722
19884SOL     OW61548   2.517   2.447  13.436
19884SOL    HW161549   2.560   2.470  13.354
19884SOL    HW261550   2.533   2.523  13.493
19885SOL     OW61551  12.196   2.457   6.762
19885SOL    HW161552  12.204   2.366   6.790
19885SOL    HW261553  12.197   2.507   6.843
19886SOL     OW61554   2.822   6.400   5.942
19886SOL    HW161555   2.903   6.400   5.993
19886SOL    HW261556   2.820   6.485   5.899
19887SOL     OW61557   1.237   9.648   9.621
19887SOL    HW161558   1.302   9.701   9.667
19887SOL    HW261559   1.170   9.710   9.594
19888SOL     OW61560   7.452   1.966  14.779
19888SOL    HW161561   7.419   2.013  14.855
19888SOL    HW261562   7.486   2.034  14.721
19889SOL     OW61563   1.542  11.764   0.138
19889SOL    HW161564   1.487  11.765   0.060
19889SOL    HW261565   1.548  11.855   0.165
19890SOL     OW61566  11.215   8.083   9.868
19890SOL    HW161567  11.221   7.988   9.860
19890SOL    HW261568  11.127   8.098   9.904
19891SOL     OW61569   6.103  10.667  13.529
19891SOL    HW161570   6.085  10.574  13.544
19891SOL    HW261571   6.101  10.677  13.434
19892SOL     OW61572   6.139   0.238   3.540
19892SOL    HW161573   6.230   0.242   3.569
19892SOL    HW261574   6.111   0.330   3.535
19893SOL     OW61575   1.303  10.808   8.490
19893SOL    HW161576   1.228  10.817   8.431
19893SOL    HW261577   1.289  10.725   8.534
19894SOL     OW61578   6.115   6.880   1.580
19894SOL    HW161579   6.150   6.820   1.645
19894SOL    HW261580   6.037   6.835   1.546
19895SOL     OW61581  11.846  13.849   3.581
19895SOL    HW161582  11.884  13.788   3.517
19895SOL    HW261583  11.899  13.928   3.572
19896SOL     OW61584  12.155  13.659   8.518
19896SOL    HW161585  12.243  13.691   8.537
19896SOL    HW261586  12.146  13.581   8.573
19897SOL     OW61587  11.579   8.217   4.102
19897SOL    HW161588  11.564   8.153   4.033
19897SOL    HW261589  11.644   8.177   4.159
19898SOL     OW61590  10.058   0.303  14.833
19898SOL    HW161591  10.069   0.257  14.749
19898SOL    HW261592   9.968   0.335  14.830
19899SOL     OW61593   9.383   5.206  10.653
19899SOL    HW161594   9.442   5.166  10.590
19899SOL    HW261595   9.295   5.184  10.622
19900SOL     OW61596   0.903   1.632  12.808
19900SOL    HW161597   0.848   1.594  12.740
19900SOL    HW261598   0.844   1.689  12.858
19901SOL     OW61599   1.957   8.045   6.086
19901SOL    HW161600   2.043   8.021   6.119
19901SOL    HW261601   1.903   8.055   6.164
19902SOL     OW61602   6.106   5.253  13.261
19902SOL    HW161603   6.106   5.310  13.338
19902SOL    HW261604   6.014   5.252  13.232
19903SOL     OW61605   9.716   0.220   4.125
19903SOL    HW161606   9.755   0.219   4.212
19903SOL    HW261607   9.782   0.180   4.068
19904SOL     OW61608   4.890   6.828   7.959
19904SOL    HW161609   4.822   6.877   8.005
19904SOL    HW261610   4.879   6.738   7.989
19905SOL     OW61611   4.793  10.978   4.891
19905SOL    HW161612   4.699  10.973   4.874
19905SOL    HW261613   4.833  10.974   4.804
19906SOL     OW61614   4.932   7.054   2.099
19906SOL    HW161615   5.025   7.074   2.110
19906SOL    HW261616   4.930   6.969   2.057
19907SOL     OW61617  11.695   0.488   3.338
19907SOL    HW161618  11.656   0.460   3.255
19907SOL    HW261619  11.663   0.425   3.403
19908SOL     OW61620   7.470   3.295   8.782
19908SOL    HW161621   7.501   3.333   8.699
19908SOL    HW261622   7.530   3.331   8.848
19909SOL     OW61623   4.429   0.306   3.224
19909SOL    HW161624   4.520   0.310   3.253
19909SOL    HW261625   4.392   0.391   3.246
19910SOL     OW61626   2.197  12.774   3.238
19910SOL    HW161627   2.216  12.817   3.155
19910SOL    HW261628   2.183  12.846   3.300
19911SOL     OW61629   0.951   1.294   6.018
19911SOL    HW161630   0.945   1.277   5.924
19911SOL    HW261631   1.003   1.374   6.024
19912SOL     OW61632   0.310   4.745   6.560
19912SOL    HW161633   0.388   4.748   6.506
19912SOL    HW261634   0.327   4.808   6.631
19913SOL     OW61635  12.024  13.225   1.472
19913SOL    HW161636  12.059  13.173   1.400
19913SOL    HW261637  12.032  13.168   1.549
19914SOL     OW61638   9.902  11.121   7.752
19914SOL    HW161639   9.896  11.155   7.662
19914SOL    HW261640   9.952  11.187   7.800
19915SOL     OW61641   4.455   3.246  11.631
19915SOL    HW161642   4.527   3.193  11.597
19915SOL    HW261643   4.479   3.264  11.722
19916SOL     OW61644   9.551   6.174  11.095
19916SOL    HW161645   9.526   6.082  11.090
19916SOL    HW261646   9.480   6.220  11.049
19917SOL     OW61647  14.275   7.010   5.337
19917SOL    HW161648  14.237   6.925   5.359
19917SOL    HW261649  14.297   7.049   5.422
19918SOL     OW61650   0.060   4.474   7.518
19918SOL    HW161651  14.849   4.482   7.477
19918SOL    HW261652   0.121   4.466   7.445
19919SOL     OW61653   8.918   8.456   3.628
19919SOL    HW161654   8.888   8.473   3.717
19919SOL    HW261655   8.990   8.518   3.615
19920SOL     OW61656  12.211  10.273   5.973
19920SOL    HW161657  12.135  10.217   5.989
19920SOL    HW261658  12.285  10.213   5.969
19921SOL     OW61659  14.455   6.080   0.084
19921SOL    HW161660  14.361   6.062   0.086
19921SOL    HW261661  14.461   6.175   0.082
19922SOL     OW61662   6.719  13.471   6.091
19922SOL    HW161663   6.625  13.484   6.105
19922SOL    HW261664   6.737  13.385   6.129
19923SOL     OW61665  11.617   8.304   2.797
19923SOL    HW161666  11.668   8.313   2.717
19923SOL    HW261667  11.538   8.356   2.781
19924SOL     OW61668  10.985   9.681   4.724
19924SOL    HW161669  11.062   9.728   4.756
19924SOL    HW261670  10.950   9.635   4.801
19925SOL     OW61671  12.114   3.128  12.656
19925SOL    HW161672  12.019   3.112  12.657
19925SOL    HW261673  12.122   3.223  12.658
19926SOL     OW61674   8.693   4.906  10.706
19926SOL    HW161675   8.681   4.892  10.800
19926SOL    HW261676   8.645   4.834  10.665
19927SOL     OW61677   4.547  13.755  10.131
19927SOL    HW161678   4.511  13.759  10.042
19927SOL    HW261679   4.553  13.847  10.158
19928SOL     OW61680   9.543  13.436   7.964
19928SOL    HW161681   9.577  13.485   8.039
19928SOL    HW261682   9.521  13.350   8.000
19929SOL     OW61683   3.494   7.700   2.654
19929SOL    HW161684   3.433   7.753   2.705
19929SOL    HW261685   3.508   7.622   2.708
19930SOL     OW61686   5.755  10.716   7.094
19930SOL    HW161687   5.759  10.620   7.085
19930SOL    HW261688   5.667  10.738   7.064
19931SOL     OW61689   5.072   9.028   7.551
19931SOL    HW161690   5.008   8.962   7.525
19931SOL    HW261691   5.131   8.981   7.612
19932SOL     OW61692  13.200   9.200   1.085
19932SOL    HW161693  13.262   9.143   1.131
19932SOL    HW261694  13.136   9.223   1.153
19933SOL     OW61695  13.943   4.244   8.952
19933SOL    HW161696  14.034   4.258   8.924
19933SOL    HW261697  13.892   4.258   8.873
19934SOL     OW61698   9.025   0.540   4.234
19934SOL    HW161699   9.032   0.632   4.257
19934SOL    HW261700   9.115   0.509   4.231
19935SOL     OW61701   3.606   6.494   4.849
19935SOL    HW161702   3.701   6.482   4.840
19935SOL    HW261703   3.570   6.457   4.769
19936SOL     OW61704   4.323   2.845   3.209
19936SOL    HW161705   4.254   2.883   3.263
19936SOL    HW261706   4.379   2.919   3.186
19937SOL     OW61707   8.751   9.243   0.023
19937SOL    HW161708   8.675   9.183   0.020
19937SOL    HW261709   8.825   9.186   0.046
19938SOL     OW61710   7.947   0.699   3.180
19938SOL    HW161711   7.909   0.612   3.191
19938SOL    HW261712   7.905   0.734   3.101
19939SOL     OW61713   5.597   7.029   8.615
19939SOL    HW161714   5.606   7.121   8.638
19939SOL    HW261715   5.684   6.992   8.630
19940SOL     OW61716   0.400  12.822  12.595
19940SOL    HW161717   0.427  12.881  12.525
19940SOL    HW261718   0.364  12.880  12.662
19941SOL     OW61719   6.605  10.454   5.518
19941SOL    HW161720   6.664  10.462   5.444
19941SOL    HW261721   6.621  10.366   5.552
19942SOL     OW61722  11.737   0.856   4.853
19942SOL    HW161723  11.658   0.889   4.896
19942SOL    HW261724  11.709   0.835   4.764
19943SOL     OW61725  10.818  10.348  13.713
19943SOL    HW161726  10.802  10.390  13.798
19943SOL    HW261727  10.769  10.401  13.651
19944SOL     OW61728   6.033  11.350  12.157
19944SOL    HW161729   5.983  11.430  12.145
19944SOL    HW261730   6.120  11.380  12.184
19945SOL     OW61731   4.813   9.472   8.896
19945SOL    HW161732   4.879   9.534   8.927
19945SOL    HW261733   4.858   9.387   8.896
19946SOL     OW61734   4.675  10.303  10.000
19946SOL    HW161735   4.733  10.246   9.950
19946SOL    HW261736   4.645  10.249  10.073
19947SOL     OW61737  13.004  11.912   3.837
19947SOL    HW161738  12.912  11.894   3.822
19947SOL    HW261739  13.020  11.884   3.927
19948SOL     OW61740  12.946  11.845  12.874
19948SOL    HW161741  13.015  11.837  12.940
19948SOL    HW261742  12.931  11.940  12.868
19949SOL     OW61743   0.598   2.208   7.016
19949SOL    HW161744   0.631   2.186   7.103
19949SOL    HW261745   0.664   2.267   6.980
19950SOL     OW61746   4.484   1.006   2.243
19950SOL    HW161747   4.551   0.950   2.204
19950SOL    HW261748   4.401   0.963   2.220
19951SOL     OW61749  14.525   7.027  12.832
19951SOL    HW161750  14.593   7.050  12.768
19951SOL    HW261751  14.571   7.028  12.917
19952SOL     OW61752   5.341   3.601  14.714
19952SOL    HW161753   5.411   3.544  14.683
19952SOL    HW261754   5.287   3.618  14.636
19953SOL     OW61755   9.053  11.703  11.170
19953SOL    HW161756   8.987  11.726  11.236
19953SOL    HW261757   9.130  11.755  11.193
19954SOL     OW61758   3.143   1.024   5.159
19954SOL    HW161759   3.116   1.098   5.104
19954SOL    HW261760   3.060   0.988   5.193
19955SOL     OW61761   1.283   0.618   1.215
19955SOL    HW161762   1.312   0.527   1.211
19955SOL    HW261763   1.193   0.617   1.181
19956SOL     OW61764  11.491  10.283   5.809
19956SOL    HW161765  11.487  10.290   5.905
19956SOL    HW261766  11.542  10.359   5.782
19957SOL     OW61767   4.330   8.478  10.161
19957SOL    HW161768   4.333   8.413  10.091
19957SOL    HW261769   4.372   8.555  10.123
19958SOL     OW61770   7.896  13.004  13.189
19958SOL    HW161771   7.833  12.993  13.118
19958SOL    HW261772   7.982  13.002  13.146
19959SOL     OW61773   6.523   0.672   9.476
19959SOL    HW161774   6.430   0.669   9.499
19959SOL    HW261775   6.527   0.728   9.398
19960SOL     OW61776   7.393   6.931  12.527
19960SOL    HW161777   7.441   6.848  12.521
19960SOL    HW261778   7.453   6.991  12.570
19961SOL     OW61779   4.442   3.011   9.997
19961SOL    HW161780   4.524   2.962   9.997
19961SOL    HW261781   4.375   2.944  10.006
19962SOL     OW61782   1.560  11.154   4.721
19962SOL    HW161783   1.628  11.102   4.678
19962SOL    HW261784   1.609  11.219   4.771
19963SOL     OW61785   6.234   6.661   9.743
19963SOL    HW161786   6.174   6.697   9.677
19963SOL    HW261787   6.176   6.627   9.812
19964SOL     OW61788  12.870   7.293  13.563
19964SOL    HW161789  12.821   7.347  13.500
19964SOL    HW261790  12.802   7.255  13.619
19965SOL     OW61791   7.007  11.549   3.577
19965SOL    HW161792   7.050  11.593   3.650
19965SOL    HW261793   7.026  11.456   3.591
19966SOL     OW61794   4.090   8.946   5.312
19966SOL    HW161795   4.106   8.874   5.373
19966SOL    HW261796   4.063   9.019   5.368
19967SOL     OW61797   4.604  10.693   1.280
19967SOL    HW161798   4.539  10.737   1.225
19967SOL    HW261799   4.621  10.755   1.351
19968SOL     OW61800   6.727  13.332   8.915
19968SOL    HW161801   6.729  13.361   8.824
19968SOL    HW261802   6.728  13.237   8.910
19969SOL     OW61803   1.983  14.412  12.546
19969SOL    HW161804   2.034  14.494  12.548
19969SOL    HW261805   1.902  14.436  12.502
19970SOL     OW61806   5.479  11.558  11.214
19970SOL    HW161807   5.457  11.559  11.120
19970SOL    HW261808   5.574  11.559  11.216
19971SOL     OW61809   1.390   7.701   0.457
19971SOL    HW161810   1.366   7.769   0.395
19971SOL    HW261811   1.317   7.698   0.519
19972SOL     OW61812  14.443  11.050   0.290
19972SOL    HW161813  14.501  10.995   0.238
19972SOL    HW261814  14.502  11.094   0.352
19973SOL     OW61815   0.125  10.953   8.038
19973SOL    HW161816   0.042  10.999   8.052
19973SOL    HW261817   0.190  11.006   8.082
19974SOL     OW61818   0.253  10.586   5.046
19974SOL    HW161819   0.304  10.603   5.126
19974SOL    HW261820   0.168  10.556   5.078
19975SOL     OW61821   1.116   1.026   1.778
19975SOL    HW161822   1.198   1.072   1.758
19975SOL    HW261823   1.144   0.937   1.800
19976SOL     OW61824   3.174  10.298   1.131
19976SOL    HW161825   3.211  10.306   1.219
19976SOL    HW261826   3.250  10.295   1.073
19977SOL     OW61827   7.151   4.144   2.241
19977SOL    HW161828   7.114   4.113   2.158
19977SOL    HW261829   7.220   4.081   2.262
19978SOL     OW61830  13.682   7.795   0.103
19978SOL    HW161831  13.719   7.707   0.110
19978SOL    HW261832  13.750   7.852   0.139
19979SOL     OW61833  11.075   4.058  14.294
19979SOL    HW161834  11.055   3.992  14.229
19979SOL    HW261835  11.022   4.034  14.370
19980SOL     OW61836  13.980   3.782  11.290
19980SOL    HW161837  14.019   3.824  11.367
19980SOL    HW261838  13.917   3.847  11.257
19981SOL     OW61839   4.770   4.960   4.640
19981SOL    HW161840   4.738   4.879   4.680
19981SOL    HW261841   4.848   4.981   4.690
19982SOL     OW61842   2.800   7.242   4.440
19982SOL    HW161843   2.885   7.283   4.425
19982SOL    HW261844   2.741   7.315   4.459
19983SOL     OW61845   4.814   8.584  14.791
19983SOL    HW161846   4.777   8.497  14.811
19983SOL    HW261847   4.908   8.569  14.783
19984SOL     OW61848   9.864  13.238   7.280
19984SOL    HW161849   9.831  13.286   7.204
19984SOL    HW261850   9.888  13.305   7.343
19985SOL     OW61851   2.463   4.676   8.880
19985SOL    HW161852   2.372   4.694   8.856
19985SOL    HW261853   2.468   4.581   8.885
19986SOL     OW61854   2.253  11.581   4.369
19986SOL    HW161855   2.287  11.516   4.431
19986SOL    HW261856   2.277  11.546   4.283
19987SOL     OW61857   3.091  12.048   7.630
19987SOL    HW161858   3.186  12.041   7.638
19987SOL    HW261859   3.056  11.991   7.698
19988SOL     OW61860   7.117   5.728  12.657
19988SOL    HW161861   7.102   5.634  12.656
19988SOL    HW261862   7.212   5.738  12.659
19989SOL     OW61863   1.769   6.911  10.660
19989SOL    HW161864   1.801   6.910  10.570
19989SOL    HW261865   1.674   6.915  10.652
19990SOL     OW61866   3.124  10.698   9.902
19990SOL    HW161867   3.206  10.741   9.876
19990SOL    HW261868   3.115  10.625   9.840
19991SOL     OW61869   3.972  14.427  11.395
19991SOL    HW161870   3.979  14.511  11.350
19991SOL    HW261871   3.894  14.386  11.358
19992SOL     OW61872   5.071   2.338   3.839
19992SOL    HW161873   5.056   2.299   3.925
19992SOL    HW261874   5.123   2.417   3.858
19993SOL     OW61875   4.608  14.364   3.905
19993SOL    HW161876   4.513  14.351   3.908
19993SOL    HW261877   4.621  14.450   3.946
19994SOL     OW61878   5.146   8.698  10.477
19994SOL    HW161879   5.169   8.744  10.396
19994SOL    HW261880   5.206   8.734  10.543
19995SOL     OW61881   1.824   4.442   7.719
19995SOL    HW161882   1.842   4.507   7.787
19995SOL    HW261883   1.755   4.387   7.756
19996SOL     OW61884   4.640   3.267   1.127
19996SOL    HW161885   4.722   3.230   1.093
19996SOL    HW261886   4.656   3.280   1.220
19997SOL     OW61887   1.511   1.207   4.112
19997SOL    HW161888   1.570   1.235   4.182
19997SOL    HW261889   1.513   1.112   4.116
19998SOL     OW61890  10.717  12.131   1.457
19998SOL    HW161891  10.665  12.211   1.452
19998SOL    HW261892  10.740  12.124   1.549
19999SOL     OW61893   2.178  11.181   6.993
19999SOL    HW161894   2.112  11.125   6.952
19999SOL    HW261895   2.127  11.255   7.028
20000SOL     OW61896  10.315   5.513   7.961
20000SOL    HW161897  10.267   5.589   7.993
20000SOL    HW261898  10.404   5.523   7.996
20001SOL     OW61899   7.795   3.816  13.400
20001SOL    HW161900   7.830   3.727  13.401
20001SOL    HW261901   7.871   3.873  13.390
20002SOL     OW61902   0.826   0.679   9.486
20002SOL    HW161903   0.819   0.709   9.576
20002SOL    HW261904   0.736   0.660   9.459
20003SOL     OW61905   9.286  12.802   7.459
20003SOL    HW161906   9.303  12.710   7.480
20003SOL    HW261907   9.364  12.849   7.489
20004SOL     OW61908   8.967  12.667   6.331
20004SOL    HW161909   9.006  12.585   6.302
20004SOL    HW261910   9.011  12.735   6.279
20005SOL     OW61911   5.753   7.016   2.219
20005SOL    HW161912   5.767   6.930   2.257
20005SOL    HW261913   5.671   7.047   2.256
20006SOL     OW61914  13.609   0.006   8.850
20006SOL    HW161915  13.632  14.801   8.898
20006SOL    HW261916  13.630  14.861   8.759
20007SOL     OW61917   2.405  13.783   1.064
20007SOL    HW161918   2.440  13.750   1.147
20007SOL    HW261919   2.482  13.788   1.007
20008SOL     OW61920   2.909   3.022  14.587
20008SOL    HW161921   2.916   3.117  14.592
20008SOL    HW261922   2.999   2.990  14.594
20009SOL     OW61923   5.794   3.387  12.752
20009SOL    HW161924   5.852   3.346  12.688
20009SOL    HW261925   5.706   3.369  12.720
20010SOL     OW61926   9.239  11.319  11.827
20010SOL    HW161927   9.170  11.257  11.803
20010SOL    HW261928   9.320  11.277  11.798
20011SOL     OW61929   4.987  12.964  13.569
20011SOL    HW161930   4.988  13.028  13.640
20011SOL    HW261931   5.026  13.010  13.495
20012SOL     OW61932  11.518   3.846   7.422
20012SOL    HW161933  11.600   3.807   7.393
20012SOL    HW261934  11.464   3.852   7.343
20013SOL     OW61935  10.004  14.835   6.015
20013SOL    HW161936   9.919   0.001   5.996
20013SOL    HW261937   9.994  14.745   5.986
20014SOL     OW61938  12.956  10.277   0.711
20014SOL    HW161939  13.018  10.261   0.641
20014SOL    HW261940  12.976  10.211   0.778
20015SOL     OW61941   5.089  11.740   4.078
20015SOL    HW161942   5.116  11.735   3.986
20015SOL    HW261943   5.125  11.661   4.118
20016SOL     OW61944   4.236   5.746  11.007
20016SOL    HW161945   4.260   5.707  11.091
20016SOL    HW261946   4.228   5.672  10.948
20017SOL     OW61947   9.836   9.174  10.406
20017SOL    HW161948   9.877   9.093  10.377
20017SOL    HW261949   9.756   9.181  10.355
20018SOL     OW61950   3.658   5.301   4.722
20018SOL    HW161951   3.664   5.216   4.765
20018SOL    HW261952   3.572   5.299   4.679
20019SOL     OW61953   5.622   0.137  12.957
20019SOL    HW161954   5.614   0.229  12.930
20019SOL    HW261955   5.632   0.142  13.053
20020SOL     OW61956  12.041  11.514  14.470
20020SOL    HW161957  12.039  11.610  14.465
20020SOL    HW261958  12.107  11.495  14.537
20021SOL     OW61959  11.096  12.583   4.070
20021SOL    HW161960  11.097  12.613   4.162
20021SOL    HW261961  11.003  12.578   4.049
20022SOL     OW61962  12.628   9.585   4.999
20022SOL    HW161963  12.682   9.663   5.008
20022SOL    HW261964  12.645   9.534   5.078
20023SOL     OW61965   7.295  13.807   7.118
20023SOL    HW161966   7.302  13.900   7.141
20023SOL    HW261967   7.224  13.774   7.172
20024SOL     OW61968  12.976  12.939   6.260
20024SOL    HW161969  12.979  12.948   6.355
20024SOL    HW261970  12.973  13.029   6.228
20025SOL     OW61971  13.221  13.363  10.549
20025SOL    HW161972  13.179  13.396  10.469
20025SOL    HW261973  13.159  13.385  10.619
20026SOL     OW61974  11.193   9.098   0.937
20026SOL    HW161975  11.250   9.070   0.865
20026SOL    HW261976  11.123   9.033   0.939
20027SOL     OW61977   8.161  11.669  12.332
20027SOL    HW161978   8.188  11.598  12.391
20027SOL    HW261979   8.138  11.624  12.251
20028SOL     OW61980   6.019   1.329   3.205
20028SOL    HW161981   5.982   1.362   3.123
20028SOL    HW261982   5.948   1.339   3.268
20029SOL     OW61983   3.256  14.701   1.881
20029SOL    HW161984   3.323  14.757   1.919
20029SOL    HW261985   3.212  14.756   1.817
20030SOL     OW61986   3.947  13.935   6.234
20030SOL    HW161987   3.913  13.932   6.323
20030SOL    HW261988   3.919  13.853   6.194
20031SOL     OW61989   2.753   2.287   1.888
20031SOL    HW161990   2.814   2.355   1.858
20031SOL    HW261991   2.712   2.255   1.809
20032SOL     OW61992   7.169  11.532   3.889
20032SOL    HW161993   7.158  11.508   3.981
20032SOL    HW261994   7.100  11.597   3.873
20033SOL     OW61995   6.341   1.992   7.897
20033SOL    HW161996   6.409   2.025   7.956
20033SOL    HW261997   6.387   1.975   7.815
20034SOL     OW61998   3.993   6.233   5.465
20034SOL    HW161999   3.970   6.141   5.470
20034SOL    HW262000   4.073   6.241   5.516
20035SOL     OW62001   2.741   4.054  12.843
20035SOL    HW162002   2.655   4.088  12.818
20035SOL    HW262003   2.803   4.102  12.788
20036SOL     OW62004   7.303   3.821   6.439
20036SOL    HW162005   7.380   3.846   6.389
20036SOL    HW262006   7.247   3.776   6.376
20037SOL     OW62007   6.560   8.978  12.832
20037SOL    HW162008   6.609   8.967  12.914
20037SOL    HW262009   6.626   8.974  12.764
20038SOL     OW62010  13.471  11.179   2.420
20038SOL    HW162011  13.392  11.232   2.412
20038SOL    HW262012  13.520  11.197   2.340
20039SOL     OW62013  10.520   5.957  13.293
20039SOL    HW162014  10.593   5.929  13.346
20039SOL    HW262015  10.449   5.972  13.355
20040SOL     OW62016   3.251   1.948   6.690
20040SOL    HW162017   3.318   2.001   6.647
20040SOL    HW262018   3.195   1.918   6.619
20041SOL     OW62019   3.603   1.566  10.953
20041SOL    HW162020   3.693   1.545  10.929
20041SOL    HW262021   3.569   1.614  10.878
20042SOL     OW62022  12.028   1.196   2.768
20042SOL    HW162023  12.104   1.148   2.736
20042SOL    HW262024  12.057   1.238   2.849
20043SOL     OW62025   2.948   2.443  12.166
20043SOL    HW162026   2.924   2.530  12.135
20043SOL    HW262027   2.898   2.433  12.248
20044SOL     OW62028   6.631   4.855   9.388
20044SOL    HW162029   6.693   4.850   9.461
20044SOL    HW262030   6.634   4.947   9.361
20045SOL     OW62031   6.323  10.097  13.180
20045SOL    HW162032   6.306  10.188  13.157
20045SOL    HW262033   6.326  10.096  13.276
20046SOL     OW62034   4.617   6.504   0.330
20046SOL    HW162035   4.579   6.428   0.375
20046SOL    HW262036   4.682   6.467   0.271
20047SOL     OW62037   9.465   7.318  12.786
20047SOL    HW162038   9.525   7.255  12.826
20047SOL    HW262039   9.438   7.277  12.704
20048SOL     OW62040  14.599   5.196   7.437
20048SOL    HW162041  14.614   5.252   7.360
20048SOL    HW262042  14.687   5.166   7.461
20049SOL     OW62043   1.994   7.162  13.102
20049SOL    HW162044   2.053   7.099  13.145
20049SOL    HW262045   1.916   7.162  13.156
20050SOL     OW62046   8.059   3.161  14.683
20050SOL    HW162047   8.106   3.206  14.752
20050SOL    HW262048   8.127   3.115  14.634
20051SOL     OW62049  12.470   8.564   1.420
20051SOL    HW162050  12.479   8.653   1.452
20051SOL    HW262051  12.560   8.536   1.400
20052SOL     OW62052   7.051   8.966  12.422
20052SOL    HW162053   6.994   8.941  12.350
20052SOL    HW262054   6.996   9.022  12.477
20053SOL     OW62055   7.045   2.446   9.395
20053SOL    HW162056   6.976   2.459   9.460
20053SOL    HW262057   7.003   2.397   9.325
20054SOL     OW62058  12.305  13.120   1.013
20054SOL    HW162059  12.284  13.094   0.924
20054SOL    HW262060  12.384  13.173   1.005
20055SOL     OW62061  14.843  14.297   9.975
20055SOL    HW162062  14.853  14.389   9.953
20055SOL    HW262063  14.748  14.283   9.977
20056SOL     OW62064   6.413  10.863  13.258
20056SOL    HW162065   6.483  10.850  13.322
20056SOL    HW262066   6.335  10.876  13.311
20057SOL     OW62067   0.207   9.905  13.378
20057SOL    HW162068   0.159   9.822  13.376
20057SOL    HW262069   0.253   9.907  13.294
20058SOL     OW62070   8.943   7.625  10.886
20058SOL    HW162071   8.978   7.537  10.900
20058SOL    HW262072   8.856   7.610  10.849
20059SOL     OW62073   4.930   9.637  10.957
20059SOL    HW162074   4.940   9.685  10.875
20059SOL    HW262075   4.964   9.696  11.024
20060SOL     OW62076   5.419   9.118   2.950
20060SOL    HW162077   5.460   9.205   2.947
20060SOL    HW262078   5.426   9.092   3.042
20061SOL     OW62079   6.453  12.782   7.708
20061SOL    HW162080   6.360  12.804   7.703
20061SOL    HW262081   6.456  12.687   7.696
20062SOL     OW62082  13.614   6.015  10.074
20062SOL    HW162083  13.642   5.924  10.079
20062SOL    HW262084  13.534   6.012  10.020
20063SOL     OW62085   0.021   2.049   8.181
20063SOL    HW162086   0.062   2.123   8.136
20063SOL    HW262087   0.058   1.972   8.139
20064SOL     OW62088   4.290  13.365  13.062
20064SOL    HW162089   4.337  13.361  12.978
20064SOL    HW262090   4.276  13.458  13.077
20065SOL     OW62091   2.762   1.083   2.892
20065SOL    HW162092   2.833   1.099   2.829
20065SOL    HW262093   2.739   0.991   2.878
20066SOL     OW62094   8.943  11.198   2.360
20066SOL    HW162095   8.932  11.109   2.395
20066SOL    HW262096   8.855  11.223   2.331
20067SOL     OW62097   6.572  10.117   6.462
20067SOL    HW162098   6.498  10.168   6.429
20067SOL    HW262099   6.556  10.028   6.430
20068SOL     OW62100  10.377  11.784   8.552
20068SOL    HW162101  10.457  11.756   8.596
20068SOL    HW262102  10.385  11.880   8.547
20069SOL     OW62103   4.002  14.280   2.711
20069SOL    HW162104   4.008  14.275   2.807
20069SOL    HW262105   4.084  14.241   2.680
20070SOL     OW62106   2.715   9.693  14.377
20070SOL    HW162107   2.785   9.728  14.322
20070SOL    HW262108   2.635   9.706  14.325
20071SOL     OW62109   7.636   9.320  12.038
20071SOL    HW162110   7.703   9.253  12.031
20071SOL    HW262111   7.675   9.398  11.998
20072SOL     OW62112   6.368   1.133  10.094
20072SOL    HW162113   6.367   1.228  10.079
20072SOL    HW262114   6.461   1.110  10.087
20073SOL     OW62115  12.265   5.506   8.411
20073SOL    HW162116  12.311   5.422   8.405
20073SOL    HW262117  12.201   5.503   8.340
20074SOL     OW62118   1.703  12.792  14.199
20074SOL    HW162119   1.651  12.712  14.202
20074SOL    HW262120   1.742  12.799  14.286
20075SOL     OW62121   0.734   3.883  12.781
20075SOL    HW162122   0.643   3.863  12.802
20075SOL    HW262123   0.786   3.819  12.830
20076SOL     OW62124  11.399  12.213   7.153
20076SOL    HW162125  11.370  12.178   7.237
20076SOL    HW262126  11.462  12.281   7.176
20077SOL     OW62127  12.946   7.494   9.750
20077SOL    HW162128  12.917   7.483   9.841
20077SOL    HW262129  13.022   7.553   9.757
20078SOL     OW62130  12.904   6.576   7.905
20078SOL    HW162131  12.995   6.563   7.933
20078SOL    HW262132  12.865   6.631   7.973
20079SOL     OW62133   5.279  13.765  13.583
20079SOL    HW162134   5.228  13.808  13.515
20079SOL    HW262135   5.230  13.781  13.664
20080SOL     OW62136  12.180   2.246   2.904
20080SOL    HW162137  12.099   2.293   2.926
20080SOL    HW262138  12.189   2.258   2.809
20081SOL     OW62139  11.134   3.496   6.128
20081SOL    HW162140  11.157   3.520   6.038
20081SOL    HW262141  11.123   3.580   6.172
20082SOL     OW62142   5.766   4.211   9.791
20082SOL    HW162143   5.801   4.278   9.732
20082SOL    HW262144   5.778   4.248   9.878
20083SOL     OW62145   9.406  12.898   4.151
20083SOL    HW162146   9.360  12.952   4.215
20083SOL    HW262147   9.338  12.845   4.110
20084SOL     OW62148  12.028  10.140   6.085
20084SOL    HW162149  11.992  10.106   6.167
20084SOL    HW262150  11.974  10.101   6.017
20085SOL     OW62151  11.011  10.825  12.136
20085SOL    HW162152  10.982  10.916  12.131
20085SOL    HW262153  11.094  10.829  12.184
20086SOL     OW62154   1.281   3.112  10.703
20086SOL    HW162155   1.187   3.127  10.694
20086SOL    HW262156   1.301   3.140  10.793
20087SOL     OW62157   8.284   2.697   1.844
20087SOL    HW162158   8.251   2.711   1.755
20087SOL    HW262159   8.377   2.719   1.839
20088SOL     OW62160   8.609   5.115  14.842
20088SOL    HW162161   8.656   5.181  14.791
20088SOL    HW262162   8.519   5.120  14.809
20089SOL     OW62163  14.255   6.341   1.328
20089SOL    HW162164  14.290   6.265   1.374
20089SOL    HW262165  14.310   6.414   1.358
20090SOL     OW62166   8.055   7.635   0.121
20090SOL    HW162167   8.127   7.612   0.178
20090SOL    HW262168   8.055   7.567   0.053
20091SOL     OW62169   3.037  10.087  10.357
20091SOL    HW162170   3.084  10.169  10.372
20091SOL    HW262171   3.015  10.056  10.445
20092SOL     OW62172   8.824  11.418  11.309
20092SOL    HW162173   8.760  11.393  11.242
20092SOL    HW262174   8.798  11.369  11.386
20093SOL     OW62175  14.452   4.720  11.574
20093SOL    HW162176  14.367   4.748  11.609
20093SOL    HW262177  14.446   4.625  11.568
20094SOL     OW62178  14.344   4.289  14.030
20094SOL    HW162179  14.401   4.213  14.021
20094SOL    HW262180  14.286   4.268  14.103
20095SOL     OW62181   2.058   3.181   9.332
20095SOL    HW162182   2.068   3.161   9.425
20095SOL    HW262183   2.137   3.147   9.291
20096SOL     OW62184   3.672   0.943   8.093
20096SOL    HW162185   3.654   0.856   8.130
20096SOL    HW262186   3.636   1.004   8.156
20097SOL     OW62187   2.487   4.669   8.028
20097SOL    HW162188   2.490   4.655   8.123
20097SOL    HW262189   2.452   4.757   8.017
20098SOL     OW62190   7.440  12.860  14.324
20098SOL    HW162191   7.526  12.890  14.296
20098SOL    HW262192   7.386  12.939  14.324
20099SOL     OW62193   9.666   3.258   3.477
20099SOL    HW162194   9.598   3.192   3.492
20099SOL    HW262195   9.730   3.242   3.546
20100SOL     OW62196  14.800  13.551  13.749
20100SOL    HW162197  14.873  13.599  13.787
20100SOL    HW262198  14.727  13.612  13.750
20101SOL     OW62199   6.703   4.153   3.925
20101SOL    HW162200   6.713   4.141   3.831
20101SOL    HW262201   6.754   4.082   3.964
20102SOL     OW62202   8.629  14.709   6.075
20102SOL    HW162203   8.720  14.740   6.078
20102SOL    HW262204   8.626  14.639   6.140
20103SOL     OW62205   7.035   2.671  13.301
20103SOL    HW162206   7.087   2.617  13.241
20103SOL    HW262207   7.027   2.619  13.380
20104SOL     OW62208   7.307   0.068   6.464
20104SOL    HW162209   7.361   0.027   6.397
20104SOL    HW262210   7.252   0.130   6.416
20105SOL     OW62211  11.709   5.584   7.927
20105SOL    HW162212  11.646   5.561   7.860
20105SOL    HW262213  11.779   5.518   7.918
20106SOL     OW62214   7.213   5.363  10.195
20106SOL    HW162215   7.292   5.339  10.147
20106SOL    HW262216   7.244   5.386  10.283
20107SOL     OW62217  10.709   3.989   0.439
20107SOL    HW162218  10.778   3.949   0.493
20107SOL    HW262219  10.740   3.979   0.349
20108SOL     OW62220   4.448   8.774   1.443
20108SOL    HW162221   4.487   8.826   1.372
20108SOL    HW262222   4.355   8.769   1.419
20109SOL     OW62223  12.005  12.602   1.599
20109SOL    HW162224  11.910  12.607   1.607
20109SOL    HW262225  12.029  12.526   1.653
20110SOL     OW62226   4.936   0.594  14.108
20110SOL    HW162227   4.954   0.643  14.028
20110SOL    HW262228   4.941   0.502  14.082
20111SOL     OW62229  13.001   8.766   7.648
20111SOL    HW162230  13.015   8.828   7.720
20111SOL    HW262231  12.925   8.715   7.676
20112SOL     OW62232   8.255   7.018   2.322
20112SOL    HW162233   8.317   6.955   2.359
20112SOL    HW262234   8.184   7.022   2.387
20113SOL     OW62235  10.253   2.806   7.988
20113SOL    HW162236  10.209   2.880   7.947
20113SOL    HW262237  10.253   2.738   7.920
20114SOL     OW62238  14.704  12.505  12.328
20114SOL    HW162239  14.646  12.468  12.394
20114SOL    HW262240  14.786  12.457  12.339
20115SOL     OW62241  13.932   5.048   2.163
20115SOL    HW162242  13.952   5.109   2.235
20115SOL    HW262243  13.922   4.963   2.206
20116SOL     OW62244   4.226  13.369  13.382
20116SOL    HW162245   4.283  13.410  13.447
20116SOL    HW262246   4.283  13.349  13.308
20117SOL     OW62247   3.572   9.790   8.140
20117SOL    HW162248   3.481   9.815   8.122
20117SOL    HW262249   3.623   9.867   8.114
20118SOL     OW62250   8.067   7.210   0.748
20118SOL    HW162251   8.047   7.122   0.716
20118SOL    HW262252   8.135   7.197   0.814
20119SOL     OW62253   4.163   4.816   4.202
20119SOL    HW162254   4.199   4.830   4.115
20119SOL    HW262255   4.097   4.747   4.190
20120SOL     OW62256   2.492   4.306  12.971
20120SOL    HW162257   2.400   4.332  12.980
20120SOL    HW262258   2.494   4.252  12.892
20121SOL     OW62259   9.563   2.432   8.874
20121SOL    HW162260   9.499   2.419   8.944
20121SOL    HW262261   9.616   2.507   8.902
20122SOL     OW62262  12.944   0.544   9.474
20122SOL    HW162263  13.032   0.511   9.491
20122SOL    HW262264  12.897   0.531   9.557
20123SOL     OW62265  11.215   7.276   5.923
20123SOL    HW162266  11.309   7.281   5.906
20123SOL    HW262267  11.184   7.366   5.910
20124SOL     OW62268   8.737  13.271   3.302
20124SOL    HW162269   8.708  13.314   3.221
20124SOL    HW262270   8.726  13.178   3.284
20125SOL     OW62271   9.493  10.952   7.896
20125SOL    HW162272   9.483  10.884   7.963
20125SOL    HW262273   9.533  11.026   7.943
20126SOL     OW62274   1.542  14.397  14.683
20126SOL    HW162275   1.588  14.349  14.614
20126SOL    HW262276   1.609  14.453  14.722
20127SOL     OW62277   5.367   3.290   3.727
20127SOL    HW162278   5.297   3.240   3.687
20127SOL    HW262279   5.347   3.381   3.705
20128SOL     OW62280   5.878  11.588   2.076
20128SOL    HW162281   5.833  11.662   2.117
20128SOL    HW262282   5.856  11.595   1.983
20129SOL     OW62283  12.830  10.695   5.107
20129SOL    HW162284  12.849  10.733   5.193
20129SOL    HW262285  12.867  10.757   5.044
20130SOL     OW62286  12.172   0.756   8.058
20130SOL    HW162287  12.123   0.675   8.040
20130SOL    HW262288  12.243   0.728   8.115
20131SOL     OW62289   1.335   1.555  12.803
20131SOL    HW162290   1.366   1.586  12.888
20131SOL    HW262291   1.415   1.532  12.756
20132SOL     OW62292  13.865  10.448  13.120
20132SOL    HW162293  13.873  10.369  13.067
20132SOL    HW262294  13.947  10.453  13.169
20133SOL     OW62295  12.610  10.958   6.281
20133SOL    HW162296  12.665  10.937   6.356
20133SOL    HW262297  12.666  10.939   6.205
20134SOL     OW62298   1.615  14.829   3.075
20134SOL    HW162299   1.675  14.791   3.139
20134SOL    HW262300   1.591   0.039   3.112
20135SOL     OW62301   4.997   2.599   6.235
20135SOL    HW162302   4.953   2.684   6.226
20135SOL    HW262303   4.971   2.550   6.157
20136SOL     OW62304   3.878   6.026   5.170
20136SOL    HW162305   3.965   6.065   5.158
20136SOL    HW262306   3.819   6.086   5.124
20137SOL     OW62307   7.223   7.703  13.983
20137SOL    HW162308   7.197   7.789  14.016
20137SOL    HW262309   7.159   7.681  13.916
20138SOL     OW62310   9.594   5.891   5.689
20138SOL    HW162311   9.532   5.837   5.738
20138SOL    HW262312   9.553   5.978   5.688
20139SOL     OW62313   5.948   2.814  11.605
20139SOL    HW162314   5.984   2.730  11.631
20139SOL    HW262315   5.877   2.792  11.543
20140SOL     OW62316   7.101  13.050  12.524
20140SOL    HW162317   7.045  12.990  12.474
20140SOL    HW262318   7.049  13.129  12.535
20141SOL     OW62319   1.569   9.772  10.931
20141SOL    HW162320   1.614   9.692  10.903
20141SOL    HW262321   1.480   9.745  10.950
20142SOL     OW62322   4.333   7.454   2.945
20142SOL    HW162323   4.382   7.429   2.867
20142SOL    HW262324   4.254   7.496   2.911
20143SOL     OW62325   9.928   3.394  12.551
20143SOL    HW162326   9.979   3.325  12.509
20143SOL    HW262327   9.966   3.475  12.517
20144SOL     OW62328   1.363   4.941  11.195
20144SOL    HW162329   1.417   4.979  11.264
20144SOL    HW262330   1.367   5.003  11.123
20145SOL     OW62331   6.441   4.376  10.114
20145SOL    HW162332   6.482   4.461  10.098
20145SOL    HW262333   6.359   4.379  10.063
20146SOL     OW62334   9.778   5.508   7.562
20146SOL    HW162335   9.686   5.491   7.582
20146SOL    HW262336   9.779   5.597   7.528
20147SOL     OW62337   7.646   8.074   2.633
20147SOL    HW162338   7.627   8.087   2.540
20147SOL    HW262339   7.723   8.129   2.650
20148SOL     OW62340   9.294  13.539  10.722
20148SOL    HW162341   9.228  13.487  10.769
20148SOL    HW262342   9.290  13.507  10.632
20149SOL     OW62343   1.959   0.641  11.888
20149SOL    HW162344   1.935   0.732  11.905
20149SOL    HW262345   1.917   0.619  11.805
20150SOL     OW62346  12.690   1.562   7.122
20150SOL    HW162347  12.604   1.524   7.140
20150SOL    HW262348  12.674   1.628   7.055
20151SOL     OW62349   2.248   9.683   8.689
20151SOL    HW162350   2.309   9.677   8.615
20151SOL    HW262351   2.175   9.626   8.664
20152SOL     OW62352   0.730   2.858   7.645
20152SOL    HW162353   0.755   2.888   7.558
20152SOL    HW262354   0.756   2.766   7.648
20153SOL     OW62355   8.585  10.484   4.748
20153SOL    HW162356   8.576  10.486   4.843
20153SOL    HW262357   8.624  10.398   4.729
20154SOL     OW62358   1.669   2.102   1.029
20154SOL    HW162359   1.596   2.052   0.992
20154SOL    HW262360   1.747   2.058   0.995
20155SOL     OW62361  13.017  14.495  12.311
20155SOL    HW162362  12.971  14.473  12.231
20155SOL    HW262363  13.028  14.411  12.356
20156SOL     OW62364  13.429   2.058  14.374
20156SOL    HW162365  13.463   2.088  14.459
20156SOL    HW262366  13.394   2.137  14.333
20157SOL     OW62367   5.621   4.483   1.356
20157SOL    HW162368   5.716   4.473   1.357
20157SOL    HW262369   5.598   4.503   1.446
20158SOL     OW62370   1.120   4.057  13.799
20158SOL    HW162371   1.086   4.138  13.760
20158SOL    HW262372   1.047   4.022  13.850
20159SOL     OW62373   6.126   6.794  11.036
20159SOL    HW162374   6.179   6.856  11.086
20159SOL    HW262375   6.060   6.764  11.098
20160SOL     OW62376   2.412   1.699   4.609
20160SOL    HW162377   2.491   1.656   4.578
20160SOL    HW262378   2.444   1.769   4.666
20161SOL     OW62379   9.012  13.007   0.859
20161SOL    HW162380   8.986  13.078   0.918
20161SOL    HW262381   8.978  12.928   0.900
20162SOL     OW62382  11.782   4.802  13.949
20162SOL    HW162383  11.791   4.777  14.041
20162SOL    HW262384  11.688   4.799  13.932
20163SOL     OW62385   9.388   4.549  12.011
20163SOL    HW162386   9.478   4.552  12.043
20163SOL    HW262387   9.348   4.630  12.043
20164SOL     OW62388   7.817   8.492   2.720
20164SOL    HW162389   7.743   8.527   2.770
20164SOL    HW262390   7.892   8.543   2.751
20165SOL     OW62391   6.473   0.369   1.688
20165SOL    HW162392   6.531   0.445   1.693
20165SOL    HW262393   6.503   0.311   1.758
20166SOL     OW62394  14.784   9.238   0.520
20166SOL    HW162395  14.778   9.221   0.614
20166SOL    HW262396  14.696   9.222   0.487
20167SOL     OW62397  13.330   8.149  11.936
20167SOL    HW162398  13.413   8.153  11.887
20167SOL    HW262399  13.275   8.090  11.884
20168SOL     OW62400   6.979   9.124   6.162
20168SOL    HW162401   7.053   9.078   6.203
20168SOL    HW262402   6.916   9.136   6.233
20169SOL     OW62403   0.046  13.239   4.480
20169SOL    HW162404   0.022  13.176   4.548
20169SOL    HW262405   0.087  13.311   4.528
20170SOL     OW62406  13.346  12.251  12.367
20170SOL    HW162407  13.295  12.304  12.429
20170SOL    HW262408  13.437  12.267  12.390
20171SOL     OW62409   2.712   3.147   7.041
20171SOL    HW162410   2.618   3.160   7.054
20171SOL    HW262411   2.719   3.098   6.959
20172SOL     OW62412   0.971  11.442   4.127
20172SOL    HW162413   0.991  11.535   4.134
20172SOL    HW262414   0.930  11.432   4.041
20173SOL     OW62415  13.405   0.755   2.180
20173SOL    HW162416  13.465   0.830   2.178
20173SOL    HW262417  13.406   0.726   2.271
20174SOL     OW62418   0.977  11.329   7.933
20174SOL    HW162419   0.891  11.339   7.893
20174SOL    HW262420   1.039  11.335   7.860
20175SOL     OW62421   8.945   7.426  14.867
20175SOL    HW162422   8.873   7.466  14.818
20175SOL    HW262423   9.024   7.471  14.834
20176SOL     OW62424   4.020   2.248  12.664
20176SOL    HW162425   4.035   2.333  12.706
20176SOL    HW262426   4.108   2.218  12.640
20177SOL     OW62427  14.046   6.367   2.534
20177SOL    HW162428  13.999   6.447   2.558
20177SOL    HW262429  13.994   6.296   2.572
20178SOL     OW62430   8.860  12.091   0.682
20178SOL    HW162431   8.912  12.095   0.601
20178SOL    HW262432   8.898  12.158   0.738
20179SOL     OW62433   3.377   6.721  10.395
20179SOL    HW162434   3.457   6.704  10.444
20179SOL    HW262435   3.307   6.708  10.458
20180SOL     OW62436   8.746   3.739   3.127
20180SOL    HW162437   8.810   3.691   3.074
20180SOL    HW262438   8.781   3.736   3.216
20181SOL     OW62439   2.056  12.787   4.740
20181SOL    HW162440   2.070  12.700   4.777
20181SOL    HW262441   2.022  12.838   4.814
20182SOL     OW62442   0.843  14.640   5.767
20182SOL    HW162443   0.863  14.733   5.777
20182SOL    HW262444   0.886  14.599   5.843
20183SOL     OW62445  13.881   0.520  14.467
20183SOL    HW162446  13.861   0.434  14.429
20183SOL    HW262447  13.937   0.563  14.402
20184SOL     OW62448  14.484  14.776   9.506
20184SOL    HW162449  14.533  14.842   9.457
20184SOL    HW262450  14.550  14.730   9.557
20185SOL     OW62451   2.001   6.835  12.682
20185SOL    HW162452   1.947   6.764  12.714
20185SOL    HW262453   1.939   6.902  12.654
20186SOL     OW62454  11.711  14.482   8.631
20186SOL    HW162455  11.616  14.475   8.629
20186SOL    HW262456  11.729  14.550   8.696
20187SOL     OW62457   1.893  11.551   3.922
20187SOL    HW162458   1.984  11.524   3.923
20187SOL    HW262459   1.891  11.632   3.973
20188SOL     OW62460  14.598   9.434   4.968
20188SOL    HW162461  14.515   9.390   4.948
20188SOL    HW262462  14.583   9.525   4.941
20189SOL     OW62463  10.621  12.300   7.665
20189SOL    HW162464  10.643  12.301   7.758
20189SOL    HW262465  10.532  12.263   7.663
20190SOL     OW62466  10.999   2.440   3.824
20190SOL    HW162467  11.074   2.436   3.884
20190SOL    HW262468  10.963   2.352   3.826
20191SOL     OW62469   1.183   8.163  11.773
20191SOL    HW162470   1.147   8.148  11.685
20191SOL    HW262471   1.113   8.139  11.833
20192SOL     OW62472   4.141   7.538  13.024
20192SOL    HW162473   4.138   7.447  13.053
20192SOL    HW262474   4.234   7.556  13.011
20193SOL     OW62475   9.994   0.154  13.711
20193SOL    HW162476  10.032   0.106  13.638
20193SOL    HW262477  10.068   0.174  13.768
20194SOL     OW62478   9.921   1.276   9.822
20194SOL    HW162479   9.845   1.294   9.877
20194SOL    HW262480   9.944   1.185   9.842
20195SOL     OW62481   7.163   3.859   7.686
20195SOL    HW162482   7.218   3.936   7.677
20195SOL    HW262483   7.075   3.893   7.704
20196SOL     OW62484   4.251   0.870  14.512
20196SOL    HW162485   4.276   0.845  14.601
20196SOL    HW262486   4.157   0.851  14.508
20197SOL     OW62487   4.573  11.997  11.149
20197SOL    HW162488   4.492  11.974  11.104
20197SOL    HW262489   4.585  12.090  11.131
20198SOL     OW62490   4.739   0.314   2.763
20198SOL    HW162491   4.764   0.396   2.804
20198SOL    HW262492   4.647   0.325   2.740
20199SOL     OW62493  11.896   7.163   9.235
20199SOL    HW162494  11.828   7.231   9.228
20199SOL    HW262495  11.973   7.210   9.266
20200SOL     OW62496   2.279   7.155  14.676
20200SOL    HW162497   2.364   7.178  14.714
20200SOL    HW262498   2.234   7.239  14.665
20201SOL     OW62499   9.776  12.645   2.341
20201SOL    HW162500   9.837  12.609   2.277
20201SOL    HW262501   9.832  12.688   2.406
20202SOL     OW62502  13.173   8.542   9.285
20202SOL    HW162503  13.262   8.505   9.292
20202SOL    HW262504  13.137   8.536   9.373
20203SOL     OW62505   6.946   7.516  11.066
20203SOL    HW162506   7.014   7.491  11.130
20203SOL    HW262507   6.882   7.565  11.118
20204SOL     OW62508   2.802   9.748  10.966
20204SOL    HW162509   2.716   9.733  11.007
20204SOL    HW262510   2.859   9.684  11.008
20205SOL     OW62511   8.158   9.855  11.195
20205SOL    HW162512   8.158   9.916  11.122
20205SOL    HW262513   8.248   9.823  11.201
20206SOL     OW62514   8.927   0.090   0.540
20206SOL    HW162515   9.019   0.062   0.533
20206SOL    HW262516   8.877   0.008   0.537
20207SOL     OW62517  13.606   7.989  14.406
20207SOL    HW162518  13.541   7.918  14.405
20207SOL    HW262519  13.689   7.946  14.388
20208SOL     OW62520   6.273   5.420   4.418
20208SOL    HW162521   6.316   5.397   4.336
20208SOL    HW262522   6.345   5.440   4.478
20209SOL     OW62523   9.079   1.779   0.379
20209SOL    HW162524   9.157   1.819   0.342
20209SOL    HW262525   9.068   1.697   0.330
20210SOL     OW62526   1.493  12.748   8.090
20210SOL    HW162527   1.423  12.717   8.033
20210SOL    HW262528   1.556  12.675   8.091
20211SOL     OW62529  11.683   3.016  10.872
20211SOL    HW162530  11.720   3.058  10.949
20211SOL    HW262531  11.589   3.013  10.889
20212SOL     OW62532   1.592   7.941  11.852
20212SOL    HW162533   1.560   7.926  11.763
20212SOL    HW262534   1.529   8.003  11.890
20213SOL     OW62535   3.404   3.653   2.327
20213SOL    HW162536   3.392   3.619   2.239
20213SOL    HW262537   3.390   3.578   2.385
20214SOL     OW62538   0.777   0.930   2.332
20214SOL    HW162539   0.835   0.987   2.383
20214SOL    HW262540   0.698   0.982   2.317
20215SOL     OW62541   6.165   2.867   3.725
20215SOL    HW162542   6.107   2.885   3.651
20215SOL    HW262543   6.227   2.803   3.691
20216SOL     OW62544   5.300  11.876   3.606
20216SOL    HW162545   5.235  11.946   3.607
20216SOL    HW262546   5.350  11.890   3.526
20217SOL     OW62547  12.149  11.751   0.737
20217SOL    HW162548  12.073  11.802   0.708
20217SOL    HW262549  12.130  11.662   0.710
20218SOL     OW62550   1.703   6.863   2.339
20218SOL    HW162551   1.779   6.908   2.303
20218SOL    HW262552   1.668   6.813   2.265
20219SOL     OW62553   5.221   3.570   1.971
20219SOL    HW162554   5.182   3.578   2.058
20219SOL    HW262555   5.305   3.528   1.986
20220SOL     OW62556   2.008   5.541  11.059
20220SOL    HW162557   1.958   5.615  11.093
20220SOL    HW262558   2.039   5.570  10.974
20221SOL     OW62559   2.491   7.888   7.812
20221SOL    HW162560   2.584   7.866   7.806
20221SOL    HW262561   2.474   7.943   7.736
20222SOL     OW62562   2.174  11.588   6.233
20222SOL    HW162563   2.121  11.563   6.157
20222SOL    HW262564   2.203  11.677   6.214
20223SOL     OW62565   6.371  10.977   9.157
20223SOL    HW162566   6.390  11.040   9.226
20223SOL    HW262567   6.428  10.902   9.176
20224SOL     OW62568   7.889   0.625  12.742
20224SOL    HW162569   7.804   0.595  12.710
20224SOL    HW262570   7.877   0.718  12.761
20225SOL     OW62571  10.809  14.817   7.112
20225SOL    HW162572  10.853   0.011   7.161
20225SOL    HW262573  10.836  14.832   7.021
20226SOL     OW62574   1.053  12.019  14.292
20226SOL    HW162575   0.980  12.051  14.238
20226SOL    HW262576   1.081  12.096  14.342
20227SOL     OW62577  14.398   3.755  13.596
20227SOL    HW162578  14.334   3.820  13.567
20227SOL    HW262579  14.444   3.728  13.517
20228SOL     OW62580   2.147   1.400   2.590
20228SOL    HW162581   2.180   1.423   2.677
20228SOL    HW262582   2.186   1.314   2.572
20229SOL     OW62583   3.289   3.455   5.641
20229SOL    HW162584   3.230   3.398   5.692
20229SOL    HW262585   3.377   3.429   5.669
20230SOL     OW62586   2.504   7.072  12.838
20230SOL    HW162587   2.561   7.038  12.770
20230SOL    HW262588   2.418   7.034  12.819
20231SOL     OW62589   9.287   0.484   4.245
20231SOL    HW162590   9.373   0.441   4.238
20231SOL    HW262591   9.303   0.561   4.299
20232SOL     OW62592   6.209   6.336   1.598
20232SOL    HW162593   6.278   6.275   1.622
20232SOL    HW262594   6.193   6.319   1.505
20233SOL     OW62595  10.432   6.914   3.430
20233SOL    HW162596  10.377   6.940   3.505
20233SOL    HW262597  10.479   6.994   3.407
20234SOL     OW62598   2.752   5.126   8.812
20234SOL    HW162599   2.710   5.046   8.843
20234SOL    HW262600   2.844   5.101   8.799
20235SOL     OW62601   5.202   4.434  13.543
20235SOL    HW162602   5.240   4.492  13.609
20235SOL    HW262603   5.277   4.401  13.494
20236SOL     OW62604   9.399   9.386  13.623
20236SOL    HW162605   9.484   9.395  13.582
20236SOL    HW262606   9.369   9.299  13.600
20237SOL     OW62607   3.762  13.739   7.372
20237SOL    HW162608   3.727  13.814   7.420
20237SOL    HW262609   3.754  13.665   7.432
20238SOL     OW62610   6.254   9.374  14.696
20238SOL    HW162611   6.231   9.434  14.767
20238SOL    HW262612   6.259   9.429  14.618
20239SOL     OW62613   4.794  13.898   0.780
20239SOL    HW162614   4.813  13.832   0.846
20239SOL    HW262615   4.764  13.848   0.704
20240SOL     OW62616   2.284  12.433   6.588
20240SOL    HW162617   2.305  12.436   6.494
20240SOL    HW262618   2.354  12.380   6.626
20241SOL     OW62619   2.653   2.189  13.535
20241SOL    HW162620   2.605   2.248  13.593
20241SOL    HW262621   2.708   2.246  13.481
20242SOL     OW62622  13.245   5.701   4.635
20242SOL    HW162623  13.339   5.715   4.647
20242SOL    HW262624  13.233   5.699   4.540
20243SOL     OW62625   4.106   5.191   4.493
20243SOL    HW162626   4.131   5.266   4.547
20243SOL    HW262627   4.179   5.129   4.502
20244SOL     OW62628   7.748   9.054  12.067
20244SOL    HW162629   7.752   8.966  12.106
20244SOL    HW262630   7.712   9.040  11.980
20245SOL     OW62631   1.996   9.676  11.470
20245SOL    HW162632   1.955   9.608  11.418
20245SOL    HW262633   1.977   9.651  11.561
20246SOL     OW62634   3.971   0.404  12.143
20246SOL    HW162635   3.950   0.433  12.055
20246SOL    HW262636   4.023   0.325  12.131
20247SOL     OW62637   8.235   2.077   6.372
20247SOL    HW162638   8.300   2.112   6.433
20247SOL    HW262639   8.217   1.988   6.404
20248SOL     OW62640   9.984   6.401   6.218
20248SOL    HW162641  10.043   6.400   6.294
20248SOL    HW262642   9.919   6.333   6.238
20249SOL     OW62643   3.368   7.115   0.972
20249SOL    HW162644   3.319   7.087   0.894
20249SOL    HW262645   3.406   7.035   1.007
20250SOL     OW62646   4.611   7.667  10.587
20250SOL    HW162647   4.602   7.585  10.636
20250SOL    HW262648   4.642   7.731  10.651
20251SOL     OW62649  11.018   1.566  11.505
20251SOL    HW162650  11.015   1.516  11.586
20251SOL    HW262651  11.106   1.550  11.470
20252SOL     OW62652  10.858  13.829  10.937
20252SOL    HW162653  10.847  13.856  10.846
20252SOL    HW262654  10.832  13.737  10.938
20253SOL     OW62655  10.059   6.922  10.273
20253SOL    HW162656  10.022   6.839  10.244
20253SOL    HW262657   9.998   6.988  10.242
20254SOL     OW62658   1.432  14.652  13.208
20254SOL    HW162659   1.430  14.704  13.288
20254SOL    HW262660   1.525  14.645  13.186
20255SOL     OW62661   0.457   7.269  12.212
20255SOL    HW162662   0.431   7.359  12.232
20255SOL    HW262663   0.439   7.221  12.293
20256SOL     OW62664   4.864   2.713  10.120
20256SOL    HW162665   4.933   2.755  10.069
20256SOL    HW262666   4.911   2.657  10.182
20257SOL     OW62667   1.360  14.229   4.556
20257SOL    HW162668   1.438  14.282   4.574
20257SOL    HW262669   1.296  14.257   4.623
20258SOL     OW62670   3.536  11.603  11.894
20258SOL    HW162671   3.565  11.676  11.840
20258SOL    HW262672   3.449  11.581  11.860
20259SOL     OW62673   2.800   5.148  12.011
20259SOL    HW162674   2.843   5.099  11.941
20259SOL    HW262675   2.804   5.240  11.983
20260SOL     OW62676   4.232   2.209   9.625
20260SOL    HW162677   4.234   2.119   9.656
20260SOL    HW262678   4.301   2.213   9.558
20261SOL     OW62679  14.273  14.599   5.321
20261SOL    HW162680  14.319  14.549   5.253
20261SOL    HW262681  14.318  14.577   5.402
20262SOL     OW62682   9.368   7.631   3.143
20262SOL    HW162683   9.348   7.641   3.050
20262SOL    HW262684   9.366   7.720   3.178
20263SOL     OW62685   6.025   2.396   9.069
20263SOL    HW162686   5.952   2.453   9.045
20263SOL    HW262687   6.096   2.456   9.093
20264SOL     OW62688   7.180  11.882  12.706
20264SOL    HW162689   7.114  11.821  12.739
20264SOL    HW262690   7.148  11.907  12.619
20265SOL     OW62691   3.349   1.934  11.302
20265SOL    HW162692   3.353   1.844  11.334
20265SOL    HW262693   3.432   1.973  11.329
20266SOL     OW62694  12.207  10.361   7.994
20266SOL    HW162695  12.138  10.322   8.048
20266SOL    HW262696  12.161  10.400   7.920
20267SOL     OW62697   1.707  14.534   1.308
20267SOL    HW162698   1.769  14.605   1.324
20267SOL    HW262699   1.751  14.478   1.244
20268SOL     OW62700   2.858   6.235   2.082
20268SOL    HW162701   2.932   6.283   2.120
20268SOL    HW262702   2.862   6.148   2.123
20269SOL     OW62703  10.749   7.908  13.747
20269SOL    HW162704  10.705   7.899  13.832
20269SOL    HW262705  10.739   7.822  13.706
20270SOL     OW62706   5.035  11.181   0.733
20270SOL    HW162707   4.959  11.239   0.732
20270SOL    HW262708   5.101  11.228   0.783
20271SOL     OW62709   5.173   5.263   3.897
20271SOL    HW162710   5.131   5.320   3.833
20271SOL    HW262711   5.178   5.178   3.853
20272SOL     OW62712   4.221  10.042  12.404
20272SOL    HW162713   4.185  10.091  12.478
20272SOL    HW262714   4.144  10.004  12.361
20273SOL     OW62715  10.100  10.764  13.038
20273SOL    HW162716  10.047  10.831  12.994
20273SOL    HW262717  10.188  10.777  13.004
20274SOL     OW62718   8.566   0.669   0.576
20274SOL    HW162719   8.528   0.715   0.501
20274SOL    HW262720   8.516   0.587   0.581
20275SOL     OW62721   3.146  11.680   0.780
20275SOL    HW162722   3.110  11.595   0.755
20275SOL    HW262723   3.087  11.744   0.738
20276SOL     OW62724  13.106   2.344  13.390
20276SOL    HW162725  13.191   2.348  13.345
20276SOL    HW262726  13.048   2.395  13.334
20277SOL     OW62727  14.013   5.062   9.013
20277SOL    HW162728  14.095   5.066   9.062
20277SOL    HW262729  14.037   5.020   8.930
20278SOL     OW62730   6.748   7.763   1.691
20278SOL    HW162731   6.685   7.769   1.619
20278SOL    HW262732   6.834   7.764   1.649
20279SOL     OW62733   4.694   5.393   0.552
20279SOL    HW162734   4.754   5.461   0.520
20279SOL    HW262735   4.645   5.365   0.474
20280SOL     OW62736  12.686   4.826  11.502
20280SOL    HW162737  12.701   4.796  11.592
20280SOL    HW262738  12.606   4.781  11.475
20281SOL     OW62739   1.852   4.151   1.549
20281SOL    HW162740   1.820   4.234   1.586
20281SOL    HW262741   1.926   4.177   1.494
20282SOL     OW62742   6.560  11.479   8.932
20282SOL    HW162743   6.535  11.435   9.013
20282SOL    HW262744   6.595  11.410   8.876
20283SOL     OW62745   3.675  11.900   4.955
20283SOL    HW162746   3.719  11.834   4.901
20283SOL    HW262747   3.713  11.983   4.926
20284SOL     OW62748   4.040  12.423   3.044
20284SOL    HW162749   4.079  12.393   3.126
20284SOL    HW262750   4.090  12.501   3.020
20285SOL     OW62751  10.424   6.892  14.260
20285SOL    HW162752  10.419   6.906  14.355
20285SOL    HW262753  10.509   6.850  14.246
20286SOL     OW62754   2.288   0.658  10.498
20286SOL    HW162755   2.221   0.698  10.442
20286SOL    HW262756   2.315   0.580  10.450
20287SOL     OW62757  13.159   1.319   6.793
20287SOL    HW162758  13.071   1.283   6.784
20287SOL    HW262759  13.146   1.406   6.831
20288SOL     OW62760   9.632   2.552  10.933
20288SOL    HW162761   9.576   2.491  10.980
20288SOL    HW262762   9.643   2.626  10.993
20289SOL     OW62763   9.219   2.763  11.724
20289SOL    HW162764   9.247   2.680  11.762
20289SOL    HW262765   9.300   2.804  11.692
20290SOL     OW62766   8.784  12.097  13.406
20290SOL    HW162767   8.850  12.130  13.345
20290SOL    HW262768   8.826  12.106  13.492
20291SOL     OW62769   6.179   6.198   1.952
20291SOL    HW162770   6.264   6.155   1.961
20291SOL    HW262771   6.200   6.292   1.950
20292SOL     OW62772   5.484  14.852   9.692
20292SOL    HW162773   5.399  14.847   9.735
20292SOL    HW262774   5.546  14.824   9.760
20293SOL     OW62775  10.420   8.222   4.748
20293SOL    HW162776  10.337   8.271   4.743
20293SOL    HW262777  10.482   8.278   4.701
20294SOL     OW62778   9.349   6.245   6.008
20294SOL    HW162779   9.296   6.273   6.083
20294SOL    HW262780   9.291   6.255   5.933
20295SOL     OW62781   6.568   4.618   0.822
20295SOL    HW162782   6.592   4.630   0.914
20295SOL    HW262783   6.472   4.615   0.823
20296SOL     OW62784   3.666   1.670   5.688
20296SOL    HW162785   3.575   1.698   5.679
20296SOL    HW262786   3.717   1.737   5.641
20297SOL     OW62787   1.650  14.214   5.252
20297SOL    HW162788   1.709  14.138   5.257
20297SOL    HW262789   1.640  14.230   5.158
20298SOL     OW62790  11.724   4.592   7.080
20298SOL    HW162791  11.716   4.682   7.111
20298SOL    HW262792  11.652   4.582   7.018
20299SOL     OW62793   9.857   8.612  14.837
20299SOL    HW162794   9.916   8.610   0.037
20299SOL    HW262795   9.771   8.593  14.873
20300SOL     OW62796   6.732  14.070   2.215
20300SOL    HW162797   6.737  14.166   2.208
20300SOL    HW262798   6.727  14.054   2.310
20301SOL     OW62799  12.959   4.809   5.868
20301SOL    HW162800  12.968   4.727   5.820
20301SOL    HW262801  12.893   4.858   5.819
20302SOL     OW62802   8.475   9.524   3.206
20302SOL    HW162803   8.508   9.609   3.178
20302SOL    HW262804   8.384   9.522   3.175
20303SOL     OW62805   9.491   9.011  14.818
20303SOL    HW162806   9.562   8.947  14.821
20303SOL    HW262807   9.521   9.084  14.873
20304SOL     OW62808  11.248   1.334   6.036
20304SOL    HW162809  11.203   1.302   6.115
20304SOL    HW262810  11.281   1.421   6.061
20305SOL     OW62811   7.507   6.147  13.160
20305SOL    HW162812   7.513   6.238  13.188
20305SOL    HW262813   7.512   6.150  13.065
20306SOL     OW62814   9.693   7.946   1.978
20306SOL    HW162815   9.700   7.862   2.023
20306SOL    HW262816   9.736   7.932   1.894
20307SOL     OW62817   7.018   9.454   8.688
20307SOL    HW162818   6.981   9.422   8.606
20307SOL    HW262819   7.110   9.429   8.685
20308SOL     OW62820   7.560  13.569   7.749
20308SOL    HW162821   7.588  13.596   7.836
20308SOL    HW262822   7.538  13.476   7.758
20309SOL     OW62823   2.572  14.690   7.944
20309SOL    HW162824   2.603  14.617   7.891
20309SOL    HW262825   2.580  14.766   7.886
20310SOL     OW62826  14.732   0.229  13.447
20310SOL    HW162827  14.651   0.260  13.409
20310SOL    HW262828  14.799   0.288  13.414
20311SOL     OW62829   0.790  11.162   2.849
20311SOL    HW162830   0.878  11.196   2.867
20311SOL    HW262831   0.792  11.072   2.879
20312SOL     OW62832  10.949   5.874  12.239
20312SOL    HW162833  10.873   5.914  12.283
20312SOL    HW262834  10.929   5.780  12.241
20313SOL     OW62835   7.773   1.095  13.573
20313SOL    HW162836   7.743   1.172  13.526
20313SOL    HW262837   7.753   1.113  13.665
20314SOL     OW62838  12.212   0.824   1.468
20314SOL    HW162839  12.279   0.871   1.418
20314SOL    HW262840  12.151   0.892   1.498
20315SOL     OW62841   4.541   8.492   8.529
20315SOL    HW162842   4.588   8.410   8.543
20315SOL    HW262843   4.560   8.516   8.438
20316SOL     OW62844   4.523   2.247  11.353
20316SOL    HW162845   4.618   2.259  11.345
20316SOL    HW262846   4.486   2.335  11.340
20317SOL     OW62847  12.009   8.348   8.467
20317SOL    HW162848  11.959   8.429   8.458
20317SOL    HW262849  11.944   8.279   8.465
20318SOL     OW62850  10.193   5.770   3.140
20318SOL    HW162851  10.106   5.734   3.155
20318SOL    HW262852  10.244   5.696   3.108
20319SOL     OW62853   4.969   4.393   1.284
20319SOL    HW162854   4.934   4.390   1.373
20319SOL    HW262855   4.892   4.413   1.229
20320SOL     OW62856   8.515  10.484   4.477
20320SOL    HW162857   8.523  10.489   4.572
20320SOL    HW262858   8.501  10.574   4.449
20321SOL     OW62859   7.383  11.943   8.298
20321SOL    HW162860   7.461  11.888   8.300
20321SOL    HW262861   7.310  11.883   8.313
20322SOL     OW62862   5.506   5.838   6.992
20322SOL    HW162863   5.550   5.916   7.026
20322SOL    HW262864   5.544   5.765   7.041
20323SOL     OW62865   9.987   3.878   4.871
20323SOL    HW162866   9.995   3.965   4.909
20323SOL    HW262867   9.939   3.827   4.936
20324SOL     OW62868   2.720   4.413  13.060
20324SOL    HW162869   2.643   4.387  13.010
20324SOL    HW262870   2.705   4.505  13.082
20325SOL     OW62871   6.624  12.375   2.070
20325SOL    HW162872   6.593  12.317   2.140
20325SOL    HW262873   6.719  12.376   2.081
20326SOL     OW62874   9.715   9.493  11.810
20326SOL    HW162875   9.668   9.438  11.748
20326SOL    HW262876   9.737   9.433  11.882
20327SOL     OW62877   8.620   6.346   6.548
20327SOL    HW162878   8.610   6.253   6.566
20327SOL    HW262879   8.609   6.354   6.453
20328SOL     OW62880   9.924  11.951   2.511
20328SOL    HW162881   9.861  11.947   2.438
20328SOL    HW262882   9.874  11.921   2.587
20329SOL     OW62883   3.943  10.716   8.483
20329SOL    HW162884   3.976  10.793   8.437
20329SOL    HW262885   3.968  10.642   8.427
20330SOL     OW62886   8.552  11.728   9.951
20330SOL    HW162887   8.602  11.720  10.032
20330SOL    HW262888   8.478  11.668   9.962
20331SOL     OW62889   0.354  10.897   5.876
20331SOL    HW162890   0.442  10.862   5.856
20331SOL    HW262891   0.305  10.883   5.795
20332SOL     OW62892   4.510   0.228  10.345
20332SOL    HW162893   4.600   0.201  10.329
20332SOL    HW262894   4.486   0.187  10.428
20333SOL     OW62895  13.007  12.942   0.996
20333SOL    HW162896  12.970  12.956   1.084
20333SOL    HW262897  13.019  12.847   0.991
20334SOL     OW62898   4.245   7.163   8.213
20334SOL    HW162899   4.180   7.228   8.184
20334SOL    HW262900   4.193   7.093   8.253
20335SOL     OW62901  10.795  12.196   0.675
20335SOL    HW162902  10.770  12.149   0.755
20335SOL    HW262903  10.712  12.232   0.642
20336SOL     OW62904   5.287   3.437   7.730
20336SOL    HW162905   5.335   3.451   7.649
20336SOL    HW262906   5.208   3.489   7.721
20337SOL     OW62907   9.528   9.853  12.260
20337SOL    HW162908   9.482   9.770  12.273
20337SOL    HW262909   9.468   9.906  12.206
20338SOL     OW62910  10.102   1.105   9.329
20338SOL    HW162911  10.018   1.063   9.347
20338SOL    HW262912  10.083   1.198   9.328
20339SOL     OW62913   0.709   9.149  10.990
20339SOL    HW162914   0.779   9.168  10.928
20339SOL    HW262915   0.663   9.233  10.999
20340SOL     OW62916   8.031   1.467   1.856
20340SOL    HW162917   8.026   1.396   1.793
20340SOL    HW262918   7.941   1.480   1.885
20341SOL     OW62919   2.616   6.313  10.687
20341SOL    HW162920   2.524   6.287  10.687
20341SOL    HW262921   2.628   6.360  10.770
20342SOL     OW62922   6.643   1.592  11.677
20342SOL    HW162923   6.582   1.536  11.629
20342SOL    HW262924   6.723   1.590  11.625
20343SOL     OW62925  11.429  14.584  10.241
20343SOL    HW162926  11.360  14.541  10.190
20343SOL    HW262927  11.436  14.532  10.321
20344SOL     OW62928   1.854  13.086   5.581
20344SOL    HW162929   1.848  13.182   5.573
20344SOL    HW262930   1.877  13.057   5.493
20345SOL     OW62931   4.300  13.779  13.294
20345SOL    HW162932   4.329  13.870  13.296
20345SOL    HW262933   4.205  13.784  13.301
20346SOL     OW62934  11.601   0.867   2.506
20346SOL    HW162935  11.607   0.874   2.601
20346SOL    HW262936  11.512   0.835   2.489
20347SOL     OW62937  10.520   2.731  11.137
20347SOL    HW162938  10.483   2.801  11.084
20347SOL    HW262939  10.562   2.672  11.073
20348SOL     OW62940  14.317  10.545   8.690
20348SOL    HW162941  14.236  10.494   8.696
20348SOL    HW262942  14.387  10.480   8.696
20349SOL     OW62943  11.233   8.554  11.093
20349SOL    HW162944  11.196   8.467  11.079
20349SOL    HW262945  11.166   8.601  11.143
20350SOL     OW62946   4.628  10.075  13.065
20350SOL    HW162947   4.617   9.990  13.107
20350SOL    HW262948   4.648  10.054  12.974
20351SOL     OW62949   1.504  11.884  12.149
20351SOL    HW162950   1.576  11.871  12.087
20351SOL    HW262951   1.524  11.966  12.193
20352SOL     OW62952   9.894   2.168   5.760
20352SOL    HW162953   9.801   2.189   5.748
20352SOL    HW262954   9.904   2.082   5.720
20353SOL     OW62955   9.048   8.956   7.493
20353SOL    HW162956   8.959   8.982   7.515
20353SOL    HW262957   9.039   8.865   7.462
20354SOL     OW62958   5.348  10.196   9.341
20354SOL    HW162959   5.316  10.201   9.431
20354SOL    HW262960   5.435  10.158   9.348
20355SOL     OW62961   9.453   9.984   5.331
20355SOL    HW162962   9.407  10.015   5.409
20355SOL    HW262963   9.489   9.899   5.357
20356SOL     OW62964   3.228   8.084   9.009
20356SOL    HW162965   3.210   8.087   8.915
20356SOL    HW262966   3.271   8.167   9.028
20357SOL     OW62967   1.310  12.402  13.423
20357SOL    HW162968   1.394  12.427  13.385
20357SOL    HW262969   1.300  12.460  13.498
20358SOL     OW62970  13.669   1.636   6.775
20358SOL    HW162971  13.698   1.545   6.771
20358SOL    HW262972  13.730   1.684   6.718
20359SOL     OW62973   9.743   3.038   1.510
20359SOL    HW162974   9.770   3.127   1.535
20359SOL    HW262975   9.802   2.981   1.560
20360SOL     OW62976   0.238   9.215  13.596
20360SOL    HW162977   0.159   9.252  13.557
20360SOL    HW262978   0.218   9.123  13.609
20361SOL     OW62979  12.893   9.235   9.211
20361SOL    HW162980  12.904   9.164   9.148
20361SOL    HW262981  12.900   9.315   9.158
20362SOL     OW62982   5.320   6.138   1.626
20362SOL    HW162983   5.355   6.052   1.649
20362SOL    HW262984   5.391   6.181   1.579
20363SOL     OW62985  12.584   4.032  11.830
20363SOL    HW162986  12.529   3.972  11.882
20363SOL    HW262987  12.566   4.118  11.867
20364SOL     OW62988   7.051   4.876   2.702
20364SOL    HW162989   7.082   4.792   2.737
20364SOL    HW262990   6.979   4.900   2.761
20365SOL     OW62991   3.757  10.805  11.167
20365SOL    HW162992   3.718  10.816  11.080
20365SOL    HW262993   3.842  10.764  11.150
20366SOL     OW62994   0.917   3.942  11.678
20366SOL    HW162995   0.995   3.922  11.728
20366SOL    HW262996   0.904   3.866  11.621
20367SOL     OW62997   9.588  10.075   4.915
20367SOL    HW162998   9.505  10.034   4.936
20367SOL    HW262999   9.619  10.110   4.999
20368SOL     OW63000   0.957  14.059  11.505
20368SOL    HW163001   1.027  14.084  11.444
20368SOL    HW263002   0.881  14.041  11.448
20369SOL     OW63003   9.343   1.043  12.431
20369SOL    HW163004   9.400   0.981  12.476
20369SOL    HW263005   9.275   1.065  12.496
20370SOL     OW63006   9.326   8.327  11.907
20370SOL    HW163007   9.349   8.284  11.825
20370SOL    HW263008   9.231   8.338  11.902
20371SOL     OW63009   2.968   2.031  11.865
20371SOL    HW163010   3.040   2.093  11.877
20371SOL    HW263011   2.897   2.085  11.830
20372SOL     OW63012  12.848  13.668   7.482
20372SOL    HW163013  12.845  13.710   7.568
20372SOL    HW263014  12.818  13.578   7.498
20373SOL     OW63015   6.887   6.548   8.785
20373SOL    HW163016   6.977   6.572   8.764
20373SOL    HW263017   6.865   6.600   8.862
20374SOL     OW63018  11.700   5.154   3.758
20374SOL    HW163019  11.677   5.246   3.745
20374SOL    HW263020  11.768   5.137   3.692
20375SOL     OW63021   0.147  12.055   5.858
20375SOL    HW163022   0.093  11.995   5.806
20375SOL    HW263023   0.185  12.000   5.926
20376SOL     OW63024   0.381   9.768   5.726
20376SOL    HW163025   0.387   9.776   5.631
20376SOL    HW263026   0.287   9.764   5.744
20377SOL     OW63027  12.907   5.084   7.546
20377SOL    HW163028  12.862   5.100   7.629
20377SOL    HW263029  12.850   5.023   7.500
20378SOL     OW63030  11.941  10.146   3.256
20378SOL    HW163031  11.861  10.094   3.259
20378SOL    HW263032  12.005  10.094   3.304
20379SOL     OW63033   6.326   1.862  12.395
20379SOL    HW163034   6.366   1.897  12.474
20379SOL    HW263035   6.344   1.927  12.328
20380SOL     OW63036   7.617   4.331   8.673
20380SOL    HW163037   7.684   4.345   8.740
20380SOL    HW263038   7.610   4.236   8.666
20381SOL     OW63039   1.652   5.167   2.282
20381SOL    HW163040   1.706   5.229   2.234
20381SOL    HW263041   1.628   5.100   2.217
20382SOL     OW63042  12.405   5.539   4.440
20382SOL    HW163043  12.455   5.620   4.430
20382SOL    HW263044  12.320   5.558   4.399
20383SOL     OW63045   1.826  12.903   0.242
20383SOL    HW163046   1.858  12.904   0.152
20383SOL    HW263047   1.805  12.811   0.258
20384SOL     OW63048   6.827   5.476   9.965
20384SOL    HW163049   6.764   5.404   9.969
20384SOL    HW263050   6.790   5.536   9.899
20385SOL     OW63051  12.692   0.285   8.034
20385SOL    HW163052  12.624   0.351   8.048
20385SOL    HW263053  12.731   0.273   8.121
20386SOL     OW63054   6.302   1.625   7.873
20386SOL    HW163055   6.304   1.603   7.780
20386SOL    HW263056   6.306   1.721   7.875
20387SOL     OW63057   5.415   7.140  13.777
20387SOL    HW163058   5.483   7.091  13.731
20387SOL    HW263059   5.462   7.190  13.844
20388SOL     OW63060  10.064   8.425  12.638
20388SOL    HW163061  10.058   8.369  12.716
20388SOL    HW263062   9.975   8.428  12.604
20389SOL     OW63063  12.633  10.062   3.065
20389SOL    HW163064  12.710  10.021   3.025
20389SOL    HW263065  12.562  10.042   3.005
20390SOL     OW63066  11.619   5.571   4.082
20390SOL    HW163067  11.701   5.617   4.100
20390SOL    HW263068  11.615   5.503   4.149
20391SOL     OW63069  14.597   5.375   8.161
20391SOL    HW163070  14.567   5.285   8.157
20391SOL    HW263071  14.518   5.428   8.147
20392SOL     OW63072  13.973   2.797  10.040
20392SOL    HW163073  13.912   2.723  10.033
20392SOL    HW263074  13.943   2.846  10.116
20393SOL     OW63075   0.656   5.535  14.676
20393SOL    HW163076   0.704   5.613  14.704
20393SOL    HW263077   0.703   5.504  14.598
20394SOL     OW63078  10.580  12.486   0.223
20394SOL    HW163079  10.643  12.414   0.224
20394SOL    HW263080  10.505  12.451   0.175
20395SOL     OW63081   5.677   6.364   3.013
20395SOL    HW163082   5.761   6.406   3.033
20395SOL    HW263083   5.612   6.418   3.059
20396SOL     OW63084   0.991   5.125  12.646
20396SOL    HW163085   1.039   5.111  12.565
20396SOL    HW263086   0.983   5.038  12.685
20397SOL     OW63087   4.327   8.143   7.884
20397SOL    HW163088   4.284   8.199   7.818
20397SOL    HW263089   4.393   8.095   7.834
20398SOL     OW63090  12.825   8.876  12.129
20398SOL    HW163091  12.790   8.788  12.146
20398SOL    HW263092  12.748   8.932  12.126
20399SOL     OW63093   0.523   6.164   6.110
20399SOL    HW163094   0.459   6.138   6.176
20399SOL    HW263095   0.533   6.258   6.122
20400SOL     OW63096   5.671   2.641  10.684
20400SOL    HW163097   5.624   2.611  10.606
20400SOL    HW263098   5.744   2.691  10.650
20401SOL     OW63099   2.629   2.650  10.735
20401SOL    HW163100   2.637   2.570  10.787
20401SOL    HW263101   2.579   2.709  10.791
20402SOL     OW63102   1.859  13.868  14.214
20402SOL    HW163103   1.806  13.788  14.211
20402SOL    HW263104   1.849  13.900  14.304
20403SOL     OW63105  13.987   6.861   3.681
20403SOL    HW163106  13.984   6.900   3.594
20403SOL    HW263107  14.014   6.770   3.666
20404SOL     OW63108   3.850   1.409   6.608
20404SOL    HW163109   3.913   1.361   6.662
20404SOL    HW263110   3.902   1.476   6.564
20405SOL     OW63111   5.959  12.216   2.606
20405SOL    HW163112   5.991  12.298   2.568
20405SOL    HW263113   5.949  12.157   2.532
20406SOL     OW63114   4.471  14.546   6.993
20406SOL    HW163115   4.412  14.613   6.956
20406SOL    HW263116   4.508  14.587   7.071
20407SOL     OW63117  12.774   1.354   5.255
20407SOL    HW163118  12.726   1.437   5.248
20407SOL    HW263119  12.801   1.350   5.346
20408SOL     OW63120   8.287   7.339   7.697
20408SOL    HW163121   8.352   7.348   7.767
20408SOL    HW263122   8.205   7.366   7.738
20409SOL     OW63123   3.430  13.167   8.449
20409SOL    HW163124   3.500  13.162   8.515
20409SOL    HW263125   3.439  13.087   8.398
20410SOL     OW63126  10.229   9.471   1.564
20410SOL    HW163127  10.224   9.544   1.626
20410SOL    HW263128  10.139   9.460   1.533
20411SOL     OW63129   3.594   6.881  10.647
20411SOL    HW163130   3.631   6.833  10.573
20411SOL    HW263131   3.605   6.974  10.623
20412SOL     OW63132   3.431   6.327   0.024
20412SOL    HW163133   3.350   6.306  14.853
20412SOL    HW263134   3.483   6.247   0.017
20413SOL     OW63135   6.844   8.402  13.703
20413SOL    HW163136   6.900   8.358  13.768
20413SOL    HW263137   6.826   8.488  13.742
20414SOL     OW63138   7.378   4.690  14.358
20414SOL    HW163139   7.441   4.636  14.407
20414SOL    HW263140   7.294   4.674  14.400
20415SOL     OW63141  13.643   4.856   2.901
20415SOL    HW163142  13.674   4.946   2.906
20415SOL    HW263143  13.712   4.810   2.853
20416SOL     OW63144  11.886   9.805  12.435
20416SOL    HW163145  11.853   9.739  12.374
20416SOL    HW263146  11.877   9.765  12.521
20417SOL     OW63147   3.078  14.407  11.899
20417SOL    HW163148   2.990  14.434  11.872
20417SOL    HW263149   3.073  14.311  11.904
20418SOL     OW63150   8.469   1.967  10.955
20418SOL    HW163151   8.378   1.974  10.927
20418SOL    HW263152   8.465   1.925  11.041
20419SOL     OW63153  13.936   3.241  10.987
20419SOL    HW163154  13.958   3.168  10.929
20419SOL    HW263155  14.018   3.288  10.999
20420SOL     OW63156  14.390   5.672  10.440
20420SOL    HW163157  14.389   5.579  10.463
20420SOL    HW263158  14.410   5.717  10.522
20421SOL     OW63159  10.538   6.487   5.262
20421SOL    HW163160  10.579   6.532   5.188
20421SOL    HW263161  10.555   6.394   5.246
20422SOL     OW63162   8.116   7.533  14.068
20422SOL    HW163163   8.064   7.462  14.105
20422SOL    HW263164   8.202   7.523  14.109
20423SOL     OW63165   5.780  12.009   0.957
20423SOL    HW163166   5.712  12.074   0.974
20423SOL    HW263167   5.734  11.937   0.913
20424SOL     OW63168  10.984   9.397   5.632
20424SOL    HW163169  11.002   9.459   5.561
20424SOL    HW263170  10.988   9.449   5.712
20425SOL     OW63171   2.678  12.173   3.185
20425SOL    HW163172   2.735  12.146   3.257
20425SOL    HW263173   2.632  12.250   3.217
20426SOL     OW63174   6.150  11.506  10.281
20426SOL    HW163175   6.192  11.444  10.221
20426SOL    HW263176   6.057  11.497  10.262
20427SOL     OW63177   9.285  14.008   4.697
20427SOL    HW163178   9.234  13.933   4.666
20427SOL    HW263179   9.294  14.065   4.621
20428SOL     OW63180  12.672  14.121  12.790
20428SOL    HW163181  12.631  14.112  12.876
20428SOL    HW263182  12.667  14.215  12.771
20429SOL     OW63183   9.911  13.000   4.723
20429SOL    HW163184   9.908  12.917   4.675
20429SOL    HW263185   9.970  12.982   4.797
20430SOL     OW63186   0.450   2.478   1.320
20430SOL    HW163187   0.419   2.495   1.408
20430SOL    HW263188   0.523   2.539   1.307
20431SOL     OW63189  10.727   2.774  10.767
20431SOL    HW163190  10.809   2.818  10.749
20431SOL    HW263191  10.741   2.730  10.851
20432SOL     OW63192   1.444   9.404  11.033
20432SOL    HW163193   1.423   9.332  10.974
20432SOL    HW263194   1.532   9.431  11.008
20433SOL     OW63195   2.448   0.660   9.004
20433SOL    HW163196   2.531   0.656   8.956
20433SOL    HW263197   2.462   0.725   9.072
20434SOL     OW63198   0.486   2.183  10.422
20434SOL    HW163199   0.393   2.159  10.416
20434SOL    HW263200   0.486   2.265  10.472
20435SOL     OW63201   1.652  13.983  10.786
20435SOL    HW163202   1.609  14.020  10.863
20435SOL    HW263203   1.702  14.055  10.749
20436SOL     OW63204   0.603  11.215   7.457
20436SOL    HW163205   0.582  11.289   7.400
20436SOL    HW263206   0.522  11.197   7.504
20437SOL     OW63207   9.535   8.639  14.216
20437SOL    HW163208   9.544   8.665  14.308
20437SOL    HW263209   9.517   8.545  14.218
20438SOL     OW63210   8.499   8.665   1.327
20438SOL    HW163211   8.484   8.758   1.344
20438SOL    HW263212   8.553   8.662   1.248
20439SOL     OW63213  10.482   3.562  13.872
20439SOL    HW163214  10.444   3.634  13.923
20439SOL    HW263215  10.535   3.606  13.805
20440SOL     OW63216   4.878  14.306  13.801
20440SOL    HW163217   4.907  14.397  13.793
20440SOL    HW263218   4.945  14.256  13.755
20441SOL     OW63219  11.433  14.828   7.897
20441SOL    HW163220  11.429  14.807   7.804
20441SOL    HW263221  11.460  14.746   7.939
20442SOL     OW63222   1.271   0.865   8.206
20442SOL    HW163223   1.280   0.957   8.228
20442SOL    HW263224   1.183   0.841   8.237
20443SOL     OW63225  11.268   7.128   2.024
20443SOL    HW163226  11.224   7.185   1.961
20443SOL    HW263227  11.241   7.040   2.000
20444SOL     OW63228   0.358   5.727   4.681
20444SOL    HW163229   0.451   5.748   4.686
20444SOL    HW263230   0.340   5.682   4.764
20445SOL     OW63231   1.292   6.431   7.500
20445SOL    HW163232   1.369   6.474   7.537
20445SOL    HW263233   1.327   6.374   7.431
20446SOL     OW63234   5.369   9.796   3.719
20446SOL    HW163235   5.321   9.753   3.648
20446SOL    HW263236   5.405   9.875   3.679
20447SOL     OW63237   2.072   4.979   4.500
20447SOL    HW163238   2.045   5.049   4.441
20447SOL    HW263239   2.013   4.906   4.479
20448SOL     OW63240  12.556   6.914   2.553
20448SOL    HW163241  12.503   6.839   2.526
20448SOL    HW263242  12.582   6.894   2.643
20449SOL     OW63243   8.352   9.666   8.765
20449SOL    HW163244   8.362   9.737   8.828
20449SOL    HW263245   8.276   9.691   8.713
20450SOL     OW63246   5.654   4.424  14.819
20450SOL    HW163247   5.598   4.365  14.869
20450SOL    HW263248   5.614   4.511  14.831
20451SOL     OW63249  12.303   4.941  10.994
20451SOL    HW163250  12.225   4.901  11.032
20451SOL    HW263251  12.269   5.004  10.929
20452SOL     OW63252   1.611  12.113   3.868
20452SOL    HW163253   1.570  12.055   3.933
20452SOL    HW263254   1.579  12.080   3.784
20453SOL     OW63255   0.384   7.299  10.596
20453SOL    HW163256   0.399   7.205  10.606
20453SOL    HW263257   0.463   7.340  10.633
20454SOL     OW63258  14.001  12.269  11.745
20454SOL    HW163259  14.051  12.204  11.794
20454SOL    HW263260  14.066  12.312  11.689
20455SOL     OW63261   7.203   2.602   2.264
20455SOL    HW163262   7.201   2.592   2.359
20455SOL    HW263263   7.286   2.647   2.247
20456SOL     OW63264   6.540  13.066   1.233
20456SOL    HW163265   6.448  13.067   1.205
20456SOL    HW263266   6.573  13.152   1.206
20457SOL     OW63267   6.658  10.662   7.524
20457SOL    HW163268   6.623  10.583   7.483
20457SOL    HW263269   6.737  10.682   7.474
20458SOL     OW63270   2.613  10.794  12.478
20458SOL    HW163271   2.556  10.724  12.510
20458SOL    HW263272   2.699  10.751  12.467
20459SOL     OW63273   2.285   7.207   2.699
20459SOL    HW163274   2.299   7.170   2.786
20459SOL    HW263275   2.369   7.247   2.676
20460SOL     OW63276   9.115   8.623  12.326
20460SOL    HW163277   9.102   8.559  12.256
20460SOL    HW263278   9.166   8.576  12.392
20461SOL     OW63279   4.241   7.379   9.671
20461SOL    HW163280   4.333   7.371   9.648
20461SOL    HW263281   4.198   7.411   9.592
20462SOL     OW63282   0.683   7.498   8.479
20462SOL    HW163283   0.695   7.404   8.461
20462SOL    HW263284   0.771   7.531   8.495
20463SOL     OW63285  10.541   0.827   9.169
20463SOL    HW163286  10.495   0.783   9.097
20463SOL    HW263287  10.611   0.877   9.126
20464SOL     OW63288   0.513   9.005   0.193
20464SOL    HW163289   0.529   8.957   0.112
20464SOL    HW263290   0.419   9.019   0.195
20465SOL     OW63291  13.918   6.311   2.039
20465SOL    HW163292  13.832   6.290   2.075
20465SOL    HW263293  13.963   6.358   2.109
20466SOL     OW63294   9.422  11.716   8.784
20466SOL    HW163295   9.345  11.689   8.834
20466SOL    HW263296   9.415  11.668   8.701
20467SOL     OW63297  13.700   8.378  11.999
20467SOL    HW163298  13.660   8.304  11.953
20467SOL    HW263299  13.794   8.372  11.979
20468SOL     OW63300   5.823   7.120  11.109
20468SOL    HW163301   5.760   7.171  11.058
20468SOL    HW263302   5.908   7.142  11.071
20469SOL     OW63303   9.239  12.466   4.121
20469SOL    HW163304   9.209  12.378   4.144
20469SOL    HW263305   9.235  12.467   4.025
20470SOL     OW63306  12.917   0.924   1.906
20470SOL    HW163307  12.975   0.877   1.847
20470SOL    HW263308  12.913   1.013   1.871
20471SOL     OW63309  14.488   3.634   5.235
20471SOL    HW163310  14.413   3.667   5.285
20471SOL    HW263311  14.562   3.686   5.266
20472SOL     OW63312  12.056   9.825   2.116
20472SOL    HW163313  12.034   9.901   2.170
20472SOL    HW263314  11.971   9.787   2.092
20473SOL     OW63315   6.747  13.191   5.593
20473SOL    HW163316   6.755  13.260   5.527
20473SOL    HW263317   6.770  13.233   5.675
20474SOL     OW63318   4.042  14.309  10.079
20474SOL    HW163319   4.026  14.377  10.144
20474SOL    HW263320   3.967  14.251  10.085
20475SOL     OW63321  11.668   9.091  11.317
20475SOL    HW163322  11.658   9.104  11.223
20475SOL    HW263323  11.579   9.101  11.352
20476SOL     OW63324  10.619   7.519   8.439
20476SOL    HW163325  10.525   7.512   8.424
20476SOL    HW263326  10.649   7.581   8.372
20477SOL     OW63327   0.237   3.024   7.089
20477SOL    HW163328   0.297   3.099   7.096
20477SOL    HW263329   0.153   3.058   7.119
20478SOL     OW63330   0.925   9.535   4.719
20478SOL    HW163331   0.830   9.519   4.716
20478SOL    HW263332   0.949   9.516   4.810
20479SOL     OW63333   6.285   7.586   1.365
20479SOL    HW163334   6.267   7.504   1.319
20479SOL    HW263335   6.229   7.582   1.443
20480SOL     OW63336  12.116   9.525   9.483
20480SOL    HW163337  12.150   9.443   9.518
20480SOL    HW263338  12.155   9.532   9.395
20481SOL     OW63339   4.965   6.771  13.499
20481SOL    HW163340   4.940   6.765  13.591
20481SOL    HW263341   4.884   6.758  13.451
20482SOL     OW63342   2.389   7.020   3.989
20482SOL    HW163343   2.472   7.038   3.946
20482SOL    HW263344   2.342   7.104   3.986
20483SOL     OW63345   1.618   1.719   9.168
20483SOL    HW163346   1.686   1.784   9.149
20483SOL    HW263347   1.598   1.731   9.261
20484SOL     OW63348  11.111  13.378   8.952
20484SOL    HW163349  11.146  13.335   8.874
20484SOL    HW263350  11.173  13.449   8.970
20485SOL     OW63351   0.784   1.674   2.755
20485SOL    HW163352   0.823   1.605   2.702
20485SOL    HW263353   0.801   1.755   2.707
20486SOL     OW63354   7.257   3.512   9.436
20486SOL    HW163355   7.349   3.535   9.450
20486SOL    HW263356   7.215   3.593   9.410
20487SOL     OW63357   4.414  11.671   8.044
20487SOL    HW163358   4.351  11.621   7.992
20487SOL    HW263359   4.360  11.720   8.106
20488SOL     OW63360   4.748  13.512   7.982
20488SOL    HW163361   4.778  13.434   7.935
20488SOL    HW263362   4.798  13.510   8.064
20489SOL     OW63363  11.887   0.218   9.708
20489SOL    HW163364  11.955   0.277   9.676
20489SOL    HW263365  11.854   0.261   9.787
20490SOL     OW63366  14.106   9.373  14.548
20490SOL    HW163367  14.186   9.335  14.585
20490SOL    HW263368  14.089   9.450  14.601
20491SOL     OW63369   6.962  13.409  13.934
20491SOL    HW163370   6.959  13.493  13.980
20491SOL    HW263371   6.881  13.405  13.885
20492SOL     OW63372  12.852   1.201   9.896
20492SOL    HW163373  12.892   1.214   9.810
20492SOL    HW263374  12.882   1.113   9.922
20493SOL     OW63375  12.536  12.081   8.701
20493SOL    HW163376  12.480  12.040   8.635
20493SOL    HW263377  12.567  12.008   8.755
20494SOL     OW63378   4.727   0.903   4.993
20494SOL    HW163379   4.643   0.884   5.033
20494SOL    HW263380   4.749   0.823   4.944
20495SOL     OW63381   5.855  14.051  13.778
20495SOL    HW163382   5.906  13.971  13.790
20495SOL    HW263383   5.910  14.105  13.721
20496SOL     OW63384   2.381   1.659   5.743
20496SOL    HW163385   2.452   1.672   5.680
20496SOL    HW263386   2.372   1.564   5.748
20497SOL     OW63387   6.770   3.306  14.546
20497SOL    HW163388   6.796   3.395  14.522
20497SOL    HW263389   6.763   3.308  14.642
20498SOL     OW63390   7.993   0.833  10.917
20498SOL    HW163391   8.036   0.757  10.956
20498SOL    HW263392   7.934   0.864  10.985
20499SOL     OW63393   8.689   2.072  11.176
20499SOL    HW163394   8.651   2.115  11.099
20499SOL    HW263395   8.765   2.025  11.142
20500SOL     OW63396   0.156   6.152  12.063
20500SOL    HW163397   0.153   6.149  11.968
20500SOL    HW263398   0.081   6.099  12.091
20501SOL     OW63399  11.910  10.557  13.480
20501SOL    HW163400  11.935  10.478  13.527
20501SOL    HW263401  11.871  10.613  13.547
20502SOL     OW63402   4.061   9.548   9.958
20502SOL    HW163403   4.041   9.460   9.927
20502SOL    HW263404   4.028   9.550  10.048
20503SOL     OW63405   1.057   3.654   1.076
20503SOL    HW163406   1.126   3.673   1.012
20503SOL    HW263407   0.992   3.604   1.027
20504SOL     OW63408   0.143  11.234  11.380
20504SOL    HW163409   0.227  11.269  11.350
20504SOL    HW263410   0.157  11.140  11.389
20505SOL     OW63411   2.704  13.945   3.468
20505SOL    HW163412   2.694  14.040   3.464
20505SOL    HW263413   2.615  13.911   3.465
20506SOL     OW63414   1.970   9.959   9.913
20506SOL    HW163415   1.986   9.865   9.917
20506SOL    HW263416   1.883   9.971   9.951
20507SOL     OW63417   0.923   3.870  13.608
20507SOL    HW163418   0.859   3.866  13.679
20507SOL    HW263419   0.918   3.960  13.576
20508SOL     OW63420   2.356   0.729  13.563
20508SOL    HW163421   2.273   0.745  13.609
20508SOL    HW263422   2.423   0.746  13.628
20509SOL     OW63423   5.684   2.582   2.352
20509SOL    HW163424   5.714   2.655   2.406
20509SOL    HW263425   5.730   2.593   2.269
20510SOL     OW63426   6.199  10.210   6.129
20510SOL    HW163427   6.227  10.175   6.044
20510SOL    HW263428   6.193  10.133   6.186
20511SOL     OW63429   8.739  11.801   3.282
20511SOL    HW163430   8.672  11.779   3.217
20511SOL    HW263431   8.777  11.717   3.308
20512SOL     OW63432   7.245  13.881   9.558
20512SOL    HW163433   7.225  13.791   9.531
20512SOL    HW263434   7.170  13.932   9.528
20513SOL     OW63435   3.024   9.377   8.990
20513SOL    HW163436   3.086   9.373   9.062
20513SOL    HW263437   3.074   9.348   8.913
20514SOL     OW63438  14.345   8.519   5.134
20514SOL    HW163439  14.319   8.444   5.082
20514SOL    HW263440  14.407   8.567   5.079
20515SOL     OW63441   2.360   8.467  12.556
20515SOL    HW163442   2.343   8.505  12.469
20515SOL    HW263443   2.446   8.424  12.547
20516SOL     OW63444   3.158   2.666   0.860
20516SOL    HW163445   3.149   2.725   0.785
20516SOL    HW263446   3.069   2.650   0.890
20517SOL     OW63447  12.698   7.622  13.737
20517SOL    HW163448  12.664   7.711  13.736
20517SOL    HW263449  12.679   7.590  13.826
20518SOL     OW63450  10.448   7.937   2.825
20518SOL    HW163451  10.490   8.022   2.813
20518SOL    HW263452  10.519   7.874   2.820
20519SOL     OW63453  10.143   2.796  12.213
20519SOL    HW163454  10.137   2.817  12.306
20519SOL    HW263455  10.151   2.701  12.210
20520SOL     OW63456  14.527   6.079  13.207
20520SOL    HW163457  14.583   6.156  13.210
20520SOL    HW263458  14.522   6.050  13.298
20521SOL     OW63459  10.792   3.882  12.621
20521SOL    HW163460  10.846   3.960  12.633
20521SOL    HW263461  10.817   3.824  12.693
20522SOL     OW63462   4.984   4.941   8.180
20522SOL    HW163463   4.981   5.009   8.113
20522SOL    HW263464   4.926   4.873   8.148
20523SOL     OW63465   8.923   6.751   0.378
20523SOL    HW163466   8.842   6.772   0.424
20523SOL    HW263467   8.992   6.761   0.444
20524SOL     OW63468   5.127   6.874   2.899
20524SOL    HW163469   5.047   6.833   2.930
20524SOL    HW263470   5.120   6.869   2.803
20525SOL     OW63471   2.929   1.739   2.381
20525SOL    HW163472   2.940   1.650   2.349
20525SOL    HW263473   2.845   1.768   2.346
20526SOL     OW63474   4.897  14.530   2.463
20526SOL    HW163475   4.983  14.503   2.431
20526SOL    HW263476   4.887  14.620   2.432
20527SOL     OW63477   4.897   7.058   5.313
20527SOL    HW163478   4.876   7.047   5.405
20527SOL    HW263479   4.851   6.986   5.269
20528SOL     OW63480  11.185  13.374  14.638
20528SOL    HW163481  11.227  13.293  14.609
20528SOL    HW263482  11.190  13.370  14.734
20529SOL     OW63483  12.747   0.223   7.145
20529SOL    HW163484  12.727   0.289   7.211
20529SOL    HW263485  12.803   0.160   7.191
20530SOL     OW63486   4.826  12.993  11.784
20530SOL    HW163487   4.734  12.974  11.803
20530SOL    HW263488   4.854  13.049  11.857
20531SOL     OW63489   4.609   1.494   7.798
20531SOL    HW163490   4.529   1.457   7.758
20531SOL    HW263491   4.670   1.502   7.724
20532SOL     OW63492  11.667  12.378   5.559
20532SOL    HW163493  11.706  12.292   5.571
20532SOL    HW263494  11.575  12.366   5.583
20533SOL     OW63495   8.037  13.086   4.449
20533SOL    HW163496   8.074  13.000   4.430
20533SOL    HW263497   8.016  13.083   4.542
20534SOL     OW63498   9.602   2.462   9.966
20534SOL    HW163499   9.606   2.489   9.875
20534SOL    HW263500   9.625   2.369   9.965
20535SOL     OW63501   0.424   8.412  14.416
20535SOL    HW163502   0.378   8.411  14.501
20535SOL    HW263503   0.415   8.322  14.384
20536SOL     OW63504  12.208  10.582  13.425
20536SOL    HW163505  12.188  10.488  13.426
20536SOL    HW263506  12.276  10.591  13.358
20537SOL     OW63507  14.803   3.274   3.507
20537SOL    HW163508  14.772   3.280   3.598
20537SOL    HW263509   0.022   3.259   3.515
20538SOL     OW63510   7.984   8.406  13.262
20538SOL    HW163511   7.896   8.405  13.300
20538SOL    HW263512   8.019   8.318  13.279
20539SOL     OW63513  12.496   5.707   4.853
20539SOL    HW163514  12.420   5.754   4.887
20539SOL    HW263515  12.480   5.616   4.877
20540SOL     OW63516  11.548  10.445   3.000
20540SOL    HW163517  11.522  10.360   3.037
20540SOL    HW263518  11.558  10.428   2.907
20541SOL     OW63519   6.631  13.672   0.546
20541SOL    HW163520   6.726  13.685   0.548
20541SOL    HW263521   6.619  13.593   0.493
20542SOL     OW63522   0.939   7.955   0.561
20542SOL    HW163523   0.914   7.893   0.629
20542SOL    HW263524   1.001   8.014   0.603
20543SOL     OW63525   2.802   2.908   0.939
20543SOL    HW163526   2.867   2.969   0.975
20543SOL    HW263527   2.754   2.960   0.874
20544SOL     OW63528   8.954  13.433   7.969
20544SOL    HW163529   8.875  13.478   7.940
20544SOL    HW263530   9.021  13.460   7.905
20545SOL     OW63531  10.853  12.875  10.275
20545SOL    HW163532  10.916  12.930  10.323
20545SOL    HW263533  10.811  12.934  10.213
20546SOL     OW63534   7.821   0.349   9.250
20546SOL    HW163535   7.810   0.280   9.316
20546SOL    HW263536   7.892   0.403   9.284
20547SOL     OW63537   2.324  13.445  13.857
20547SOL    HW163538   2.342  13.415  13.946
20547SOL    HW263539   2.409  13.443  13.814
20548SOL     OW63540   7.392   8.698   9.953
20548SOL    HW163541   7.423   8.682  10.042
20548SOL    HW263542   7.427   8.784   9.930
20549SOL     OW63543   8.296   2.561   0.699
20549SOL    HW163544   8.271   2.476   0.665
20549SOL    HW263545   8.299   2.550   0.794
20550SOL     OW63546  10.308   9.404  13.166
20550SOL    HW163547  10.227   9.415  13.216
20550SOL    HW263548  10.310   9.311  13.145
20551SOL     OW63549  12.104   8.606   9.371
20551SOL    HW163550  12.059   8.533   9.328
20551SOL    HW263551  12.040   8.642   9.432
20552SOL     OW63552   2.330   2.551   4.965
20552SOL    HW163553   2.258   2.603   4.929
20552SOL    HW263554   2.400   2.561   4.901
20553SOL     OW63555   5.040   2.618   2.534
20553SOL    HW163556   5.043   2.637   2.628
20553SOL    HW263557   5.073   2.697   2.492
20554SOL     OW63558   0.578   2.945   6.172
20554SOL    HW163559   0.632   2.884   6.121
20554SOL    HW263560   0.580   2.910   6.261
20555SOL     OW63561  13.632   3.256   8.602
20555SOL    HW163562  13.576   3.199   8.653
20555SOL    HW263563  13.643   3.211   8.518
20556SOL     OW63564  11.613   2.169   3.001
20556SOL    HW163565  11.563   2.103   2.953
20556SOL    HW263566  11.690   2.187   2.946
20557SOL     OW63567   3.922   4.081   5.479
20557SOL    HW163568   3.827   4.085   5.489
20557SOL    HW263569   3.954   4.164   5.514
20558SOL     OW63570   1.743   7.237   2.434
20558SOL    HW163571   1.711   7.269   2.518
20558SOL    HW263572   1.815   7.178   2.457
20559SOL     OW63573   1.974   3.254   8.734
20559SOL    HW163574   2.048   3.315   8.737
20559SOL    HW263575   1.897   3.311   8.731
20560SOL     OW63576   9.959   9.083   6.083
20560SOL    HW163577   9.934   9.038   6.002
20560SOL    HW263578   9.899   9.047   6.148
20561SOL     OW63579   3.136   9.266   8.771
20561SOL    HW163580   3.061   9.217   8.739
20561SOL    HW263581   3.211   9.229   8.725
20562SOL     OW63582  13.397  13.415   6.932
20562SOL    HW163583  13.485  13.397   6.898
20562SOL    HW263584  13.383  13.508   6.915
20563SOL     OW63585   9.828  13.069   1.019
20563SOL    HW163586   9.839  12.978   0.992
20563SOL    HW263587   9.745  13.071   1.066
20564SOL     OW63588   6.421   9.157   5.124
20564SOL    HW163589   6.393   9.072   5.156
20564SOL    HW263590   6.481   9.190   5.192
20565SOL     OW63591  10.155   8.549   1.672
20565SOL    HW163592  10.106   8.467   1.681
20565SOL    HW263593  10.170   8.557   1.577
20566SOL     OW63594  14.672   0.824  12.953
20566SOL    HW163595  14.633   0.767  13.020
20566SOL    HW263596  14.766   0.825  12.974
20567SOL     OW63597  12.871  12.967   9.749
20567SOL    HW163598  12.875  12.878   9.784
20567SOL    HW263599  12.781  12.995   9.764
20568SOL     OW63600  11.824   9.296  12.388
20568SOL    HW163601  11.760   9.260  12.449
20568SOL    HW263602  11.777   9.300  12.305
20569SOL     OW63603   2.293  13.290   4.089
20569SOL    HW163604   2.257  13.254   4.008
20569SOL    HW263605   2.239  13.367   4.107
20570SOL     OW63606   6.896   1.627  11.512
20570SOL    HW163607   6.919   1.536  11.492
20570SOL    HW263608   6.980   1.668  11.535
20571SOL     OW63609   0.222   1.059   1.048
20571SOL    HW163610   0.182   0.972   1.041
20571SOL    HW263611   0.194   1.091   1.134
20572SOL     OW63612  10.950  14.484  14.527
20572SOL    HW163613  10.936  14.408  14.583
20572SOL    HW263614  10.863  14.523  14.518
20573SOL     OW63615   7.989   6.692   8.388
20573SOL    HW163616   8.070   6.643   8.374
20573SOL    HW263617   8.017   6.782   8.404
20574SOL     OW63618  14.366   8.432   2.957
20574SOL    HW163619  14.347   8.356   2.902
20574SOL    HW263620  14.309   8.422   3.033
20575SOL     OW63621  12.915   8.742   5.032
20575SOL    HW163622  12.835   8.690   5.042
20575SOL    HW263623  12.963   8.699   4.962
20576SOL     OW63624  14.350   7.101   4.305
20576SOL    HW163625  14.352   7.069   4.214
20576SOL    HW263626  14.319   7.191   4.297
20577SOL     OW63627   5.671   2.997   3.536
20577SOL    HW163628   5.724   3.069   3.502
20577SOL    HW263629   5.731   2.923   3.542
20578SOL     OW63630  12.012   7.612   8.907
20578SOL    HW163631  12.069   7.686   8.886
20578SOL    HW263632  11.976   7.585   8.823
20579SOL     OW63633   5.299   7.727  11.984
20579SOL    HW163634   5.243   7.776  11.924
20579SOL    HW263635   5.285   7.770  12.069
20580SOL     OW63636  10.576  13.272  12.887
20580SOL    HW163637  10.594  13.178  12.891
20580SOL    HW263638  10.585  13.294  12.794
20581SOL     OW63639  10.811  10.513   0.071
20581SOL    HW163640  10.797  10.563  14.866
20581SOL    HW263641  10.740  10.448   0.071
20582SOL     OW63642   7.399  12.483   3.681
20582SOL    HW163643   7.410  12.395   3.645
20582SOL    HW263644   7.336  12.525   3.623
20583SOL     OW63645   2.395  13.835  12.769
20583SOL    HW163646   2.364  13.874  12.851
20583SOL    HW263647   2.362  13.745  12.771
20584SOL     OW63648  11.215  11.706   4.483
20584SOL    HW163649  11.302  11.706   4.522
20584SOL    HW263650  11.217  11.633   4.421
20585SOL     OW63651   5.518   9.761  11.012
20585SOL    HW163652   5.436   9.777  10.965
20585SOL    HW263653   5.492   9.752  11.104
20586SOL     OW63654  12.056   8.946   9.347
20586SOL    HW163655  12.035   8.860   9.382
20586SOL    HW263656  11.999   9.006   9.396
20587SOL     OW63657  12.764   2.102   2.652
20587SOL    HW163658  12.759   2.125   2.559
20587SOL    HW263659  12.800   2.180   2.694
20588SOL     OW63660   5.375   6.262   0.585
20588SOL    HW163661   5.307   6.322   0.555
20588SOL    HW263662   5.329   6.204   0.646
20589SOL     OW63663   9.794   8.799   2.092
20589SOL    HW163664   9.744   8.864   2.042
20589SOL    HW263665   9.797   8.834   2.181
20590SOL     OW63666  14.633  12.629  11.092
20590SOL    HW163667  14.702  12.587  11.144
20590SOL    HW263668  14.608  12.563  11.028
20591SOL     OW63669  12.005  13.980   6.355
20591SOL    HW163670  11.919  13.948   6.381
20591SOL    HW263671  12.036  14.030   6.430
20592SOL     OW63672   3.622   6.562   2.206
20592SOL    HW163673   3.689   6.551   2.273
20592SOL    HW263674   3.632   6.652   2.176
20593SOL     OW63675   9.405  14.851   7.954
20593SOL    HW163676   9.439  14.785   8.014
20593SOL    HW263677   9.328  14.810   7.915
20594SOL     OW63678   8.878   2.550   3.240
20594SOL    HW163679   8.958   2.599   3.222
20594SOL    HW263680   8.807   2.612   3.223
20595SOL     OW63681  13.519   9.678   7.882
20595SOL    HW163682  13.474   9.633   7.953
20595SOL    HW263683  13.489   9.634   7.802
20596SOL     OW63684   3.062  13.597   0.889
20596SOL    HW163685   2.987  13.551   0.852
20596SOL    HW263686   3.080  13.668   0.827
20597SOL     OW63687   4.611  13.302  11.166
20597SOL    HW163688   4.589  13.395  11.164
20597SOL    HW263689   4.528  13.258  11.150
20598SOL     OW63690   1.324  11.214   6.826
20598SOL    HW163691   1.259  11.199   6.758
20598SOL    HW263692   1.299  11.155   6.898
20599SOL     OW63693   9.642   9.202  11.380
20599SOL    HW163694   9.607   9.195  11.292
20599SOL    HW263695   9.727   9.244  11.369
20600SOL     OW63696  11.792   6.987   6.875
20600SOL    HW163697  11.764   6.898   6.853
20600SOL    HW263698  11.809   7.029   6.791
20601SOL     OW63699   0.512   1.328   9.703
20601SOL    HW163700   0.536   1.339   9.611
20601SOL    HW263701   0.587   1.365   9.752
20602SOL     OW63702  11.948   4.208   8.880
20602SOL    HW163703  11.940   4.139   8.813
20602SOL    HW263704  12.039   4.203   8.908
20603SOL     OW63705   2.601   6.958   0.100
20603SOL    HW163706   2.667   6.891   0.080
20603SOL    HW263707   2.535   6.911   0.151
20604SOL     OW63708   8.125   4.496   8.396
20604SOL    HW163709   8.190   4.427   8.412
20604SOL    HW263710   8.052   4.473   8.453
20605SOL     OW63711   0.084   5.619  13.567
20605SOL    HW163712   0.082   5.653  13.477
20605SOL    HW263713   0.045   5.689  13.619
20606SOL     OW63714   6.327  14.087   3.663
20606SOL    HW163715   6.315  14.010   3.607
20606SOL    HW263716   6.342  14.159   3.601
20607SOL     OW63717  12.391   7.214   5.487
20607SOL    HW163718  12.357   7.269   5.558
20607SOL    HW263719  12.312   7.179   5.445
20608SOL     OW63720   4.841   2.871   0.207
20608SOL    HW163721   4.934   2.853   0.190
20608SOL    HW263722   4.800   2.865   0.121
20609SOL     OW63723   6.395   8.388  10.348
20609SOL    HW163724   6.364   8.463  10.398
20609SOL    HW263725   6.337   8.316  10.374
20610SOL     OW63726   2.354  12.681  14.235
20610SOL    HW163727   2.310  12.716  14.158
20610SOL    HW263728   2.374  12.590  14.210
20611SOL     OW63729   0.878   4.157  14.568
20611SOL    HW163730   0.915   4.239  14.536
20611SOL    HW263731   0.796   4.182  14.611
20612SOL     OW63732   2.440  12.243   1.010
20612SOL    HW163733   2.462  12.283   1.095
20612SOL    HW263734   2.365  12.293   0.979
20613SOL     OW63735  13.146  14.531  12.936
20613SOL    HW163736  13.211  14.598  12.919
20613SOL    HW263737  13.101  14.519  12.852
20614SOL     OW63738   1.371   0.224   9.732
20614SOL    HW163739   1.289   0.175   9.745
20614SOL    HW263740   1.403   0.241   9.820
20615SOL     OW63741   5.382   5.955   5.473
20615SOL    HW163742   5.412   6.007   5.547
20615SOL    HW263743   5.289   5.973   5.466
20616SOL     OW63744   5.150   3.405  10.477
20616SOL    HW163745   5.150   3.440  10.566
20616SOL    HW263746   5.234   3.431  10.440
20617SOL     OW63747  11.708  10.565  12.675
20617SOL    HW163748  11.744  10.596  12.758
20617SOL    HW263749  11.637  10.625  12.655
20618SOL     OW63750   9.861   4.339  12.945
20618SOL    HW163751   9.836   4.259  12.992
20618SOL    HW263752   9.943   4.316  12.902
20619SOL     OW63753  11.287   2.365   1.287
20619SOL    HW163754  11.317   2.444   1.242
20619SOL    HW263755  11.230   2.321   1.224
20620SOL     OW63756  10.969   2.828   0.432
20620SOL    HW163757  11.052   2.854   0.392
20620SOL    HW263758  10.930   2.910   0.462
20621SOL     OW63759   7.817  11.396   6.252
20621SOL    HW163760   7.905  11.400   6.289
20621SOL    HW263761   7.769  11.466   6.296
20622SOL     OW63762  11.702   9.559  14.503
20622SOL    HW163763  11.677   9.540  14.413
20622SOL    HW263764  11.678   9.480  14.552
20623SOL     OW63765   4.563   1.412   5.523
20623SOL    HW163766   4.610   1.350   5.579
20623SOL    HW263767   4.533   1.359   5.449
20624SOL     OW63768   2.143   1.344   0.009
20624SOL    HW163769   2.100   1.421  14.846
20624SOL    HW263770   2.100   1.333   0.095
20625SOL     OW63771   2.541   3.497   3.490
20625SOL    HW163772   2.512   3.588   3.482
20625SOL    HW263773   2.562   3.470   3.401
20626SOL     OW63774   9.557  13.523   0.132
20626SOL    HW163775   9.461  13.524   0.135
20626SOL    HW263776   9.579  13.471   0.055
20627SOL     OW63777   6.539   6.715   0.931
20627SOL    HW163778   6.532   6.636   0.877
20627SOL    HW263779   6.625   6.708   0.972
20628SOL     OW63780   9.831  11.183   0.104
20628SOL    HW163781   9.861  11.106   0.152
20628SOL    HW263782   9.908  11.215   0.058
20629SOL     OW63783   6.428   1.847   5.189
20629SOL    HW163784   6.484   1.794   5.247
20629SOL    HW263785   6.374   1.783   5.143
20630SOL     OW63786   5.896   2.894   9.399
20630SOL    HW163787   5.949   2.943   9.336
20630SOL    HW263788   5.960   2.860   9.463
20631SOL     OW63789   3.295   4.927   1.326
20631SOL    HW163790   3.391   4.925   1.322
20631SOL    HW263791   3.270   5.000   1.269
20632SOL     OW63792   5.739   5.057   8.828
20632SOL    HW163793   5.654   5.061   8.873
20632SOL    HW263794   5.765   5.148   8.816
20633SOL     OW63795  11.727   6.799  13.897
20633SOL    HW163796  11.819   6.824  13.891
20633SOL    HW263797  11.679   6.872  13.858
20634SOL     OW63798  13.629   2.686   6.941
20634SOL    HW163799  13.724   2.694   6.940
20634SOL    HW263800  13.599   2.762   6.991
20635SOL     OW63801  14.249  10.528  12.334
20635SOL    HW163802  14.163  10.568  12.342
20635SOL    HW263803  14.274  10.541  12.243
20636SOL     OW63804   8.239   7.142   2.839
20636SOL    HW163805   8.236   7.081   2.912
20636SOL    HW263806   8.314   7.114   2.787
20637SOL     OW63807   4.650   9.127  12.239
20637SOL    HW163808   4.673   9.212  12.275
20637SOL    HW263809   4.722   9.069  12.266
20638SOL     OW63810   0.269   9.695   8.947
20638SOL    HW163811   0.258   9.773   9.000
20638SOL    HW263812   0.362   9.673   8.956
20639SOL     OW63813  12.695   8.946   5.903
20639SOL    HW163814  12.789   8.935   5.892
20639SOL    HW263815  12.657   8.904   5.826
20640SOL     OW63816   0.129   9.642  11.120
20640SOL    HW163817   0.216   9.673  11.093
20640SOL    HW263818   0.119   9.673  11.210
20641SOL     OW63819   1.949   6.851   6.554
20641SOL    HW163820   1.914   6.793   6.622
20641SOL    HW263821   1.910   6.936   6.572
20642SOL     OW63822  10.103   5.462   6.656
20642SOL    HW163823  10.035   5.528   6.650
20642SOL    HW263824  10.074   5.403   6.726
20643SOL     OW63825  12.875   7.689  11.317
20643SOL    HW163826  12.918   7.662  11.398
20643SOL    HW263827  12.946   7.697  11.254
20644SOL     OW63828  14.850   6.618   5.168
20644SOL    HW163829  14.823   6.654   5.083
20644SOL    HW263830   0.070   6.609   5.160
20645SOL     OW63831   8.359   1.352   1.717
20645SOL    HW163832   8.269   1.345   1.686
20645SOL    HW263833   8.368   1.443   1.745
20646SOL     OW63834   4.751   0.259  14.163
20646SOL    HW163835   4.800   0.190  14.208
20646SOL    HW263836   4.801   0.276  14.083
20647SOL     OW63837   6.212  10.685  10.818
20647SOL    HW163838   6.257  10.736  10.886
20647SOL    HW263839   6.279  10.672  10.751
20648SOL     OW63840   4.866  11.456  10.644
20648SOL    HW163841   4.897  11.509  10.571
20648SOL    HW263842   4.858  11.368  10.607
20649SOL     OW63843   7.135   2.050  14.546
20649SOL    HW163844   7.052   2.033  14.501
20649SOL    HW263845   7.131   2.143  14.568
20650SOL     OW63846   4.194   5.044  14.626
20650SOL    HW163847   4.261   5.065  14.691
20650SOL    HW263848   4.177   4.951  14.637
20651SOL     OW63849  10.067  11.697  12.448
20651SOL    HW163850  10.005  11.763  12.418
20651SOL    HW263851  10.016  11.639  12.503
20652SOL     OW63852   0.713  10.569  14.361
20652SOL    HW163853   0.774  10.619  14.415
20652SOL    HW263854   0.739  10.588  14.271
20653SOL     OW63855  10.379   4.228   9.569
20653SOL    HW163856  10.462   4.225   9.521
20653SOL    HW263857  10.360   4.321   9.578
20654SOL     OW63858   8.527   9.363  10.587
20654SOL    HW163859   8.528   9.303  10.512
20654SOL    HW263860   8.594   9.329  10.646
20655SOL     OW63861   5.589  12.304  12.196
20655SOL    HW163862   5.609  12.343  12.111
20655SOL    HW263863   5.549  12.376  12.246
20656SOL     OW63864  14.073   0.250   4.212
20656SOL    HW163865  14.065   0.166   4.168
20656SOL    HW263866  13.990   0.261   4.258
20657SOL     OW63867  14.099   9.947   1.705
20657SOL    HW163868  14.166   9.991   1.653
20657SOL    HW263869  14.137   9.940   1.792
20658SOL     OW63870  12.438  12.323  13.834
20658SOL    HW163871  12.496  12.254  13.868
20658SOL    HW263872  12.380  12.278  13.773
20659SOL     OW63873  10.457   7.014   1.477
20659SOL    HW163874  10.532   7.067   1.504
20659SOL    HW263875  10.489   6.961   1.404
20660SOL     OW63876  10.348  12.206  13.538
20660SOL    HW163877  10.395  12.246  13.465
20660SOL    HW263878  10.343  12.274  13.605
20661SOL     OW63879   5.975   5.395   7.870
20661SOL    HW163880   6.040   5.360   7.810
20661SOL    HW263881   6.020   5.468   7.913
20662SOL     OW63882  12.954   0.799   5.082
20662SOL    HW163883  12.921   0.831   5.166
20662SOL    HW263884  12.877   0.767   5.036
20663SOL     OW63885   1.716   6.770  10.882
20663SOL    HW163886   1.762   6.809  10.956
20663SOL    HW263887   1.765   6.800  10.805
20664SOL     OW63888  12.826   8.608  13.903
20664SOL    HW163889  12.847   8.524  13.863
20664SOL    HW263890  12.874   8.673  13.851
20665SOL     OW63891   5.851   9.955  14.587
20665SOL    HW163892   5.901  10.034  14.565
20665SOL    HW263893   5.892   9.885  14.536
20666SOL     OW63894  11.425   0.117   2.016
20666SOL    HW163895  11.468   0.043   2.058
20666SOL    HW263896  11.479   0.137   1.939
20667SOL     OW63897  13.956  14.167   4.231
20667SOL    HW163898  14.015  14.119   4.288
20667SOL    HW263899  13.889  14.202   4.290
20668SOL     OW63900   7.775   0.186   1.047
20668SOL    HW163901   7.769   0.245   0.972
20668SOL    HW263902   7.748   0.101   1.012
20669SOL     OW63903   3.049   3.132  12.877
20669SOL    HW163904   3.096   3.166  12.801
20669SOL    HW263905   3.115   3.131  12.947
20670SOL     OW63906   6.645   7.415   5.677
20670SOL    HW163907   6.622   7.328   5.710
20670SOL    HW263908   6.706   7.398   5.606
20671SOL     OW63909   3.116   2.852   9.966
20671SOL    HW163910   3.035   2.842  10.017
20671SOL    HW263911   3.126   2.946   9.954
20672SOL     OW63912   5.469  11.415   1.500
20672SOL    HW163913   5.493  11.331   1.539
20672SOL    HW263914   5.396  11.445   1.554
20673SOL     OW63915   1.350   5.865   7.238
20673SOL    HW163916   1.280   5.799   7.239
20673SOL    HW263917   1.318   5.935   7.295
20674SOL     OW63918  11.392   0.562   3.468
20674SOL    HW163919  11.338   0.597   3.397
20674SOL    HW263920  11.480   0.558   3.432
20675SOL     OW63921  11.387   6.099   0.067
20675SOL    HW163922  11.416   6.017   0.106
20675SOL    HW263923  11.315   6.074   0.010
20676SOL     OW63924   5.580  12.200   6.018
20676SOL    HW163925   5.614  12.196   5.929
20676SOL    HW263926   5.572  12.293   6.036
20677SOL     OW63927   1.189  14.826  14.683
20677SOL    HW163928   1.271  14.788  14.714
20677SOL    HW263929   1.217   0.018  14.620
20678SOL     OW63930   8.916   2.717   1.415
20678SOL    HW163931   9.007   2.722   1.444
20678SOL    HW263932   8.898   2.624   1.407
20679SOL     OW63933   9.673   5.386   3.577
20679SOL    HW163934   9.606   5.319   3.588
20679SOL    HW263935   9.746   5.341   3.536
20680SOL     OW63936  13.273  11.263   1.196
20680SOL    HW163937  13.310  11.335   1.145
20680SOL    HW263938  13.344  11.235   1.253
20681SOL     OW63939   3.551   6.789   8.107
20681SOL    HW163940   3.483   6.845   8.145
20681SOL    HW263941   3.605   6.763   8.182
20682SOL     OW63942  14.331  13.550  14.779
20682SOL    HW163943  14.363  13.638  14.760
20682SOL    HW263944  14.319  13.509  14.694
20683SOL     OW63945   7.204  14.126   8.004
20683SOL    HW163946   7.190  14.108   7.911
20683SOL    HW263947   7.189  14.220   8.013
20684SOL     OW63948   5.431   2.529   8.605
20684SOL    HW163949   5.501   2.467   8.584
20684SOL    HW263950   5.471   2.615   8.597
20685SOL     OW63951   8.054   6.330   9.386
20685SOL    HW163952   8.121   6.263   9.369
20685SOL    HW263953   8.005   6.337   9.304
20686SOL     OW63954   6.828   3.600  11.443
20686SOL    HW163955   6.912   3.556  11.429
20686SOL    HW263956   6.766   3.547  11.393
20687SOL     OW63957   4.582   9.261   7.039
20687SOL    HW163958   4.639   9.328   7.000
20687SOL    HW263959   4.643   9.199   7.081
20688SOL     OW63960   9.216  13.730   5.255
20688SOL    HW163961   9.205  13.816   5.215
20688SOL    HW263962   9.294  13.694   5.213
20689SOL     OW63963  14.726   0.536   7.869
20689SOL    HW163964  14.667   0.517   7.942
20689SOL    HW263965  14.676   0.512   7.791
20690SOL     OW63966  13.855  12.856  12.771
20690SOL    HW163967  13.916  12.865  12.698
20690SOL    HW263968  13.768  12.854  12.730
20691SOL     OW63969  14.473   0.222  12.207
20691SOL    HW163970  14.391   0.256  12.172
20691SOL    HW263971  14.510   0.170  12.135
20692SOL     OW63972   2.156   1.694   3.096
20692SOL    HW163973   2.122   1.614   3.136
20692SOL    HW263974   2.236   1.713   3.146
20693SOL     OW63975  10.210   3.633   4.825
20693SOL    HW163976  10.299   3.605   4.843
20693SOL    HW263977  10.159   3.598   4.898
20694SOL     OW63978   6.570   8.279   4.233
20694SOL    HW163979   6.584   8.358   4.180
20694SOL    HW263980   6.610   8.209   4.182
20695SOL     OW63981   1.043  11.940   7.132
20695SOL    HW163982   1.077  12.011   7.076
20695SOL    HW263983   1.050  11.975   7.221
20696SOL     OW63984  10.759   0.921  12.297
20696SOL    HW163985  10.742   1.014  12.281
20696SOL    HW263986  10.673   0.885  12.318
20697SOL     OW63987   4.683  12.749  14.645
20697SOL    HW163988   4.770  12.787  14.643
20697SOL    HW263989   4.697  12.655  14.632
20698SOL     OW63990   9.261   9.596  13.496
20698SOL    HW163991   9.300   9.520  13.541
20698SOL    HW263992   9.337   9.649  13.469
20699SOL     OW63993   1.033  12.703   0.253
20699SOL    HW163994   1.009  12.790   0.221
20699SOL    HW263995   1.080  12.719   0.334
20700SOL     OW63996  10.549  12.969   2.702
20700SOL    HW163997  10.475  12.909   2.694
20700SOL    HW263998  10.510  13.050   2.736
20701SOL     OW63999  13.378   0.229   9.922
20701SOL    HW164000  13.453   0.282   9.950
20701SOL    HW264001  13.410   0.139   9.924
20702SOL     OW64002   7.000  14.118   3.207
20702SOL    HW164003   7.060  14.103   3.280
20702SOL    HW264004   6.916  14.138   3.250
20703SOL     OW64005   9.758  11.275   5.741
20703SOL    HW164006   9.676  11.294   5.695
20703SOL    HW264007   9.730  11.239   5.825
20704SOL     OW64008   8.276  11.567  11.657
20704SOL    HW164009   8.273  11.477  11.624
20704SOL    HW264010   8.223  11.617  11.595
20705SOL     OW64011  10.675  14.169  10.181
20705SOL    HW164012  10.654  14.157  10.273
20705SOL    HW264013  10.646  14.088  10.139
20706SOL     OW64014   8.736   9.557   0.332
20706SOL    HW164015   8.777   9.641   0.351
20706SOL    HW264016   8.644   9.579   0.315
20707SOL     OW64017   6.561  14.571   2.434
20707SOL    HW164018   6.645  14.594   2.395
20707SOL    HW264019   6.574  14.483   2.470
20708SOL     OW64020   6.696   1.476  11.182
20708SOL    HW164021   6.771   1.533  11.172
20708SOL    HW264022   6.730   1.397  11.225
20709SOL     OW64023  12.525   0.443   9.932
20709SOL    HW164024  12.437   0.408   9.946
20709SOL    HW264025  12.582   0.386   9.983
20710SOL     OW64026  10.027   5.458   3.736
20710SOL    HW164027   9.994   5.476   3.648
20710SOL    HW264028  10.038   5.363   3.739
20711SOL     OW64029   5.657   2.312   2.930
20711SOL    HW164030   5.736   2.298   2.982
20711SOL    HW264031   5.652   2.235   2.873
20712SOL     OW64032   5.551   3.129  11.543
20712SOL    HW164033   5.561   3.210  11.492
20712SOL    HW264034   5.510   3.158  11.625
20713SOL     OW64035   5.429   7.190   5.776
20713SOL    HW164036   5.473   7.106   5.763
20713SOL    HW264037   5.428   7.202   5.871
20714SOL     OW64038  10.326   0.474  11.226
20714SOL    HW164039  10.346   0.541  11.161
20714SOL    HW264040  10.313   0.522  11.308
20715SOL     OW64041  10.317  11.694   4.090
20715SOL    HW164042  10.313  11.642   4.011
20715SOL    HW264043  10.361  11.775   4.064
20716SOL     OW64044  11.598   7.957   9.188
20716SOL    HW164045  11.665   7.994   9.129
20716SOL    HW264046  11.577   7.872   9.149
20717SOL     OW64047  11.197   2.136   2.591
20717SOL    HW164048  11.108   2.131   2.556
20717SOL    HW264049  11.193   2.208   2.654
20718SOL     OW64050   2.930   1.838   4.969
20718SOL    HW164051   3.004   1.864   4.915
20718SOL    HW264052   2.868   1.911   4.961
20719SOL     OW64053  10.641   6.287   8.932
20719SOL    HW164054  10.653   6.285   9.026
20719SOL    HW264055  10.552   6.256   8.918
20720SOL     OW64056  12.681   8.709   8.362
20720SOL    HW164057  12.691   8.799   8.331
20720SOL    HW264058  12.627   8.716   8.441
20721SOL     OW64059   8.701   7.377   3.744
20721SOL    HW164060   8.656   7.454   3.710
20721SOL    HW264061   8.778   7.411   3.789
20722SOL     OW64062  14.328  13.339   3.460
20722SOL    HW164063  14.336  13.258   3.409
20722SOL    HW264064  14.242  13.374   3.434
20723SOL     OW64065  11.552   7.215  10.680
20723SOL    HW164066  11.593   7.251  10.601
20723SOL    HW264067  11.466   7.257  10.683
20724SOL     OW64068   5.158  10.698   7.912
20724SOL    HW164069   5.085  10.664   7.965
20724SOL    HW264070   5.153  10.793   7.922
20725SOL     OW64071   7.077   4.309  13.484
20725SOL    HW164072   7.158   4.358  13.469
20725SOL    HW264073   7.015   4.375  13.516
20726SOL     OW64074   8.720   8.441  10.116
20726SOL    HW164075   8.811   8.430  10.143
20726SOL    HW264076   8.672   8.455  10.197
20727SOL     OW64077  12.319   0.112   8.471
20727SOL    HW164078  12.286   0.038   8.420
20727SOL    HW264079  12.241   0.155   8.504
20728SOL     OW64080  11.604   4.394   5.780
20728SOL    HW164081  11.626   4.487   5.791
20728SOL    HW264082  11.530   4.381   5.840
20729SOL     OW64083   3.030  11.348   4.015
20729SOL    HW164084   2.977  11.418   4.054
20729SOL    HW264085   3.034  11.280   4.082
20730SOL     OW64086   4.316   4.722  10.758
20730SOL    HW164087   4.378   4.741  10.687
20730SOL    HW264088   4.302   4.627  10.753
20731SOL     OW64089  13.803   7.030  12.457
20731SOL    HW164090  13.830   7.030  12.549
20731SOL    HW264091  13.736   6.962  12.452
20732SOL     OW64092  13.725  10.006   1.317
20732SOL    HW164093  13.786  10.036   1.249
20732SOL    HW264094  13.779   9.955   1.377
20733SOL     OW64095  14.720  14.060   0.419
20733SOL    HW164096  14.661  13.985   0.416
20733SOL    HW264097  14.698  14.112   0.341
20734SOL     OW64098  13.976  12.497  12.788
20734SOL    HW164099  13.942  12.411  12.812
20734SOL    HW264100  13.936  12.516  12.703
20735SOL     OW64101  11.365   2.938   4.126
20735SOL    HW164102  11.299   2.868   4.122
20735SOL    HW264103  11.400   2.933   4.215
20736SOL     OW64104   5.357   4.312   5.449
20736SOL    HW164105   5.310   4.234   5.419
20736SOL    HW264106   5.365   4.367   5.371
20737SOL     OW64107   2.730   1.195  14.578
20737SOL    HW164108   2.650   1.143  14.584
20737SOL    HW264109   2.702   1.277  14.538
20738SOL     OW64110  14.450   4.426   2.808
20738SOL    HW164111  14.398   4.381   2.874
20738SOL    HW264112  14.405   4.510   2.795
20739SOL     OW64113  11.726  10.223   4.094
20739SOL    HW164114  11.754  10.313   4.113
20739SOL    HW264115  11.749  10.210   4.002
20740SOL     OW64116  11.875  12.740   1.023
20740SOL    HW164117  11.936  12.670   1.044
20740SOL    HW264118  11.846  12.773   1.108
20741SOL     OW64119   5.007   8.469   3.866
20741SOL    HW164120   5.051   8.447   3.783
20741SOL    HW264121   5.002   8.385   3.913
20742SOL     OW64122  14.289   9.961   4.696
20742SOL    HW164123  14.280  10.005   4.611
20742SOL    HW264124  14.383   9.967   4.716
20743SOL     OW64125   1.759   6.368   3.284
20743SOL    HW164126   1.773   6.324   3.368
20743SOL    HW264127   1.841   6.414   3.267
20744SOL     OW64128   0.461  14.467   5.355
20744SOL    HW164129   0.399  14.538   5.335
20744SOL    HW264130   0.444  14.447   5.447
20745SOL     OW64131  12.019   3.888   0.837
20745SOL    HW164132  11.975   3.921   0.915
20745SOL    HW264133  11.960   3.819   0.805
20746SOL     OW64134  14.567   2.406   8.792
20746SOL    HW164135  14.632   2.471   8.819
20746SOL    HW264136  14.617   2.338   8.747
20747SOL     OW64137   6.321   0.863   5.754
20747SOL    HW164138   6.387   0.826   5.813
20747SOL    HW264139   6.259   0.792   5.739
20748SOL     OW64140   4.301   2.338  10.410
20748SOL    HW164141   4.298   2.424  10.370
20748SOL    HW264142   4.327   2.279  10.339
20749SOL     OW64143  14.091   3.064   0.342
20749SOL    HW164144  14.100   3.143   0.289
20749SOL    HW264145  14.067   3.097   0.429
20750SOL     OW64146  13.163  13.473  10.316
20750SOL    HW164147  13.195  13.542  10.257
20750SOL    HW264148  13.097  13.426  10.265
20751SOL     OW64149   5.161   4.624   3.597
20751SOL    HW164150   5.142   4.682   3.671
20751SOL    HW264151   5.176   4.684   3.524
20752SOL     OW64152   5.085  13.776   3.896
20752SOL    HW164153   5.036  13.833   3.954
20752SOL    HW264154   5.021  13.744   3.832
20753SOL     OW64155   4.084   8.485  11.227
20753SOL    HW164156   3.994   8.465  11.201
20753SOL    HW264157   4.133   8.489  11.145
20754SOL     OW64158   3.258  10.367   7.671
20754SOL    HW164159   3.238  10.394   7.581
20754SOL    HW264160   3.175  10.375   7.718
20755SOL     OW64161   5.328   5.393   2.467
20755SOL    HW164162   5.280   5.395   2.384
20755SOL    HW264163   5.416   5.424   2.445
20756SOL     OW64164   2.851  14.022   7.031
20756SOL    HW164165   2.810  13.946   6.988
20756SOL    HW264166   2.881  14.077   6.959
20757SOL     OW64167  14.520   1.604   4.579
20757SOL    HW164168  14.512   1.519   4.535
20757SOL    HW264169  14.431   1.639   4.579
20758SOL     OW64170   3.548  11.846   7.713
20758SOL    HW164171   3.632  11.887   7.693
20758SOL    HW264172   3.567  11.790   7.789
20759SOL     OW64173  12.192   1.765   4.701
20759SOL    HW164174  12.153   1.853   4.699
20759SOL    HW264175  12.283   1.780   4.727
20760SOL     OW64176   7.642  11.189   6.212
20760SOL    HW164177   7.698  11.263   6.188
20760SOL    HW264178   7.703  11.123   6.244
20761SOL     OW64179   0.401   8.835   7.843
20761SOL    HW164180   0.421   8.827   7.750
20761SOL    HW264181   0.486   8.831   7.886
20762SOL     OW64182  12.057   5.012  12.093
20762SOL    HW164183  12.032   5.061  12.014
20762SOL    HW264184  12.016   5.060  12.165
20763SOL     OW64185   3.660   2.965   5.627
20763SOL    HW164186   3.724   2.976   5.697
20763SOL    HW264187   3.581   2.936   5.672
20764SOL     OW64188  11.654   9.188  12.565
20764SOL    HW164189  11.608   9.108  12.542
20764SOL    HW264190  11.590   9.240  12.613
20765SOL     OW64191  14.295   1.532   8.686
20765SOL    HW164192  14.303   1.437   8.692
20765SOL    HW264193  14.354   1.556   8.615
20766SOL     OW64194   6.613  11.584  13.009
20766SOL    HW164195   6.681  11.530  13.049
20766SOL    HW264196   6.614  11.665  13.059
20767SOL     OW64197  14.868   5.851   7.787
20767SOL    HW164198   0.010   5.762   7.757
20767SOL    HW264199  14.806   5.840   7.859
20768SOL     OW64200   6.149   4.524   9.643
20768SOL    HW164201   6.209   4.456   9.675
20768SOL    HW264202   6.137   4.583   9.718
20769SOL     OW64203  13.508   7.392  14.682
20769SOL    HW164204  13.559   7.315  14.656
20769SOL    HW264205  13.509   7.391  14.777
20770SOL     OW64206   5.248   8.709   6.680
20770SOL    HW164207   5.202   8.638   6.723
20770SOL    HW264208   5.227   8.699   6.587
20771SOL     OW64209   7.475   1.406  11.000
20771SOL    HW164210   7.448   1.314  10.999
20771SOL    HW264211   7.432   1.444  10.923
20772SOL     OW64212   9.000  12.618   7.954
20772SOL    HW164213   9.073  12.623   7.892
20772SOL    HW264214   8.940  12.554   7.916
20773SOL     OW64215   7.935   6.748   5.752
20773SOL    HW164216   7.969   6.686   5.687
20773SOL    HW264217   8.003   6.816   5.758
20774SOL     OW64218   6.277   6.649   5.202
20774SOL    HW164219   6.231   6.675   5.123
20774SOL    HW264220   6.222   6.580   5.240
20775SOL     OW64221  13.164   5.338  13.015
20775SOL    HW164222  13.253   5.323  12.983
20775SOL    HW264223  13.176   5.362  13.107
20776SOL     OW64224   3.935   4.597   8.241
20776SOL    HW164225   3.931   4.614   8.335
20776SOL    HW264226   4.002   4.531   8.231
20777SOL     OW64227   2.262  12.893   5.732
20777SOL    HW164228   2.210  12.829   5.781
20777SOL    HW264229   2.205  12.969   5.723
20778SOL     OW64230   5.617   7.794  14.248
20778SOL    HW164231   5.697   7.834  14.214
20778SOL    HW264232   5.552   7.864  14.248
20779SOL     OW64233   0.599  10.038  14.532
20779SOL    HW164234   0.663  10.108  14.516
20779SOL    HW264235   0.525  10.060  14.475
20780SOL     OW64236  11.263   2.879   1.859
20780SOL    HW164237  11.211   2.813   1.812
20780SOL    HW264238  11.319   2.828   1.918
20781SOL     OW64239   0.736  11.354   7.818
20781SOL    HW164240   0.641  11.343   7.814
20781SOL    HW264241   0.749  11.438   7.862
20782SOL     OW64242   2.481   2.737  12.060
20782SOL    HW164243   2.480   2.706  12.150
20782SOL    HW264244   2.547   2.806  12.058
20783SOL     OW64245   4.542   1.769   7.316
20783SOL    HW164246   4.457   1.729   7.300
20783SOL    HW264247   4.573   1.796   7.230
20784SOL     OW64248   8.546  10.385  13.495
20784SOL    HW164249   8.481  10.338  13.547
20784SOL    HW264250   8.496  10.452  13.448
20785SOL     OW64251  11.572   9.827   0.962
20785SOL    HW164252  11.524   9.844   0.882
20785SOL    HW264253  11.565   9.732   0.976
20786SOL     OW64254   7.512   3.551   5.010
20786SOL    HW164255   7.574   3.579   4.942
20786SOL    HW264256   7.534   3.605   5.086
20787SOL     OW64257   9.834   1.955  14.628
20787SOL    HW164258   9.827   1.883  14.691
20787SOL    HW264259   9.868   2.029  14.679
20788SOL     OW64260   7.587   0.016   9.254
20788SOL    HW164261   7.597  14.800   9.280
20788SOL    HW264262   7.593   0.065   9.336
20789SOL     OW64263  11.166  14.741   3.205
20789SOL    HW164264  11.126  14.673   3.150
20789SOL    HW264265  11.097  14.806   3.216
20790SOL     OW64266   8.160   1.557   5.304
20790SOL    HW164267   8.217   1.485   5.331
20790SOL    HW264268   8.093   1.515   5.250
20791SOL     OW64269   2.128   7.868   0.937
20791SOL    HW164270   2.162   7.807   1.002
20791SOL    HW264271   2.204   7.921   0.912
20792SOL     OW64272   6.934   7.311   6.918
20792SOL    HW164273   7.013   7.257   6.910
20792SOL    HW264274   6.962   7.388   6.967
20793SOL     OW64275  12.464   1.041  12.443
20793SOL    HW164276  12.519   1.108  12.402
20793SOL    HW264277  12.418   1.001  12.369
20794SOL     OW64278   6.912   8.884   3.013
20794SOL    HW164279   6.897   8.978   3.022
20794SOL    HW264280   6.887   8.864   2.923
20795SOL     OW64281  13.101   0.639   5.377
20795SOL    HW164282  13.055   0.717   5.410
20795SOL    HW264283  13.058   0.618   5.295
20796SOL     OW64284   5.949  10.579  12.132
20796SOL    HW164285   6.025  10.576  12.073
20796SOL    HW264286   5.970  10.650  12.193
20797SOL     OW64287  11.410  10.897   5.740
20797SOL    HW164288  11.367  10.875   5.657
20797SOL    HW264289  11.478  10.960   5.716
20798SOL     OW64290  14.330   9.121   3.144
20798SOL    HW164291  14.297   9.072   3.068
20798SOL    HW264292  14.421   9.094   3.152
20799SOL     OW64293   3.371   9.747   2.086
20799SOL    HW164294   3.433   9.775   2.018
20799SOL    HW264295   3.424   9.702   2.151
20800SOL     OW64296  10.547   9.587   5.894
20800SOL    HW164297  10.612   9.525   5.860
20800SOL    HW264298  10.568   9.670   5.851
20801SOL     OW64299   6.541  12.354   4.385
20801SOL    HW164300   6.617  12.410   4.373
20801SOL    HW264301   6.470  12.399   4.339
20802SOL     OW64302   1.398   5.613   6.659
20802SOL    HW164303   1.428   5.564   6.582
20802SOL    HW264304   1.479   5.634   6.706
20803SOL     OW64305   5.184   0.910   7.086
20803SOL    HW164306   5.211   0.822   7.112
20803SOL    HW264307   5.225   0.968   7.151
20804SOL     OW64308   4.646  11.312   7.838
20804SOL    HW164309   4.607  11.225   7.845
20804SOL    HW264310   4.615  11.359   7.915
20805SOL     OW64311  10.586   6.684   4.451
20805SOL    HW164312  10.591   6.713   4.542
20805SOL    HW264313  10.637   6.749   4.403
20806SOL     OW64314   3.109  13.714   6.818
20806SOL    HW164315   3.145  13.632   6.852
20806SOL    HW264316   3.093  13.767   6.895
20807SOL     OW64317   4.532  12.706  12.203
20807SOL    HW164318   4.525  12.621  12.160
20807SOL    HW264319   4.445  12.743  12.198
20808SOL     OW64320   9.134   3.361  11.794
20808SOL    HW164321   9.163   3.362  11.703
20808SOL    HW264322   9.209   3.393  11.844
20809SOL     OW64323   0.056   6.754   9.633
20809SOL    HW164324  14.871   6.702   9.686
20809SOL    HW264325   0.131   6.771   9.689
20810SOL     OW64326  13.441   2.816   8.296
20810SOL    HW164327  13.531   2.807   8.328
20810SOL    HW264328  13.448   2.810   8.201
20811SOL     OW64329  13.003   7.326   4.757
20811SOL    HW164330  12.997   7.285   4.670
20811SOL    HW264331  12.929   7.289   4.806
20812SOL     OW64332   6.015   2.053   4.059
20812SOL    HW164333   6.022   2.032   4.152
20812SOL    HW264334   6.037   1.971   4.014
20813SOL     OW64335  13.952  13.597   0.172
20813SOL    HW164336  13.892  13.672   0.175
20813SOL    HW264337  13.911  13.531   0.229
20814SOL     OW64338   0.266   7.270   5.419
20814SOL    HW164339   0.237   7.179   5.411
20814SOL    HW264340   0.293   7.294   5.331
20815SOL     OW64341   9.329   4.098   0.397
20815SOL    HW164342   9.389   4.169   0.376
20815SOL    HW264343   9.377   4.043   0.458
20816SOL     OW64344   9.985   3.124   2.690
20816SOL    HW164345   9.894   3.095   2.695
20816SOL    HW264346   9.997   3.151   2.599
20817SOL     OW64347   1.322   8.717  10.847
20817SOL    HW164348   1.227   8.723  10.852
20817SOL    HW264349   1.342   8.729  10.754
20818SOL     OW64350   9.244  12.116   5.629
20818SOL    HW164351   9.233  12.189   5.690
20818SOL    HW264352   9.162  12.067   5.635
20819SOL     OW64353   5.650   6.428   8.643
20819SOL    HW164354   5.628   6.353   8.587
20819SOL    HW264355   5.569   6.446   8.691
20820SOL     OW64356   5.744   9.725  10.883
20820SOL    HW164357   5.813   9.780  10.920
20820SOL    HW264358   5.663   9.756  10.925
20821SOL     OW64359   1.235   8.039   9.365
20821SOL    HW164360   1.274   7.952   9.364
20821SOL    HW264361   1.265   8.080   9.283
20822SOL     OW64362   2.614   3.935   3.754
20822SOL    HW164363   2.615   3.966   3.663
20822SOL    HW264364   2.539   3.876   3.757
20823SOL     OW64365   2.956   9.582   0.557
20823SOL    HW164366   3.024   9.545   0.613
20823SOL    HW264367   2.980   9.555   0.468
20824SOL     OW64368  13.853  11.932   7.979
20824SOL    HW164369  13.921  11.982   7.934
20824SOL    HW264370  13.867  11.842   7.952
20825SOL     OW64371   1.081   1.276   6.964
20825SOL    HW164372   1.057   1.229   6.884
20825SOL    HW264373   1.049   1.220   7.035
20826SOL     OW64374   4.410  14.475   8.630
20826SOL    HW164375   4.482  14.416   8.652
20826SOL    HW264376   4.353  14.424   8.573
20827SOL     OW64377  10.010   6.913  11.950
20827SOL    HW164378   9.921   6.916  11.916
20827SOL    HW264379  10.054   6.987  11.909
20828SOL     OW64380   9.245   5.556   1.828
20828SOL    HW164381   9.158   5.580   1.795
20828SOL    HW264382   9.284   5.638   1.856
20829SOL     OW64383  11.075   8.265  11.089
20829SOL    HW164384  10.989   8.299  11.065
20829SOL    HW264385  11.056   8.179  11.127
20830SOL     OW64386   9.936   2.589  13.169
20830SOL    HW164387   9.957   2.496  13.171
20830SOL    HW264388   9.854   2.595  13.219
20831SOL     OW64389   4.028   9.130   7.421
20831SOL    HW164390   4.040   9.147   7.328
20831SOL    HW264391   4.070   9.204   7.464
20832SOL     OW64392  11.002   2.325  13.270
20832SOL    HW164393  10.985   2.419  13.267
20832SOL    HW264394  11.081   2.313  13.217
20833SOL     OW64395   0.887  13.508  13.845
20833SOL    HW164396   0.961  13.521  13.785
20833SOL    HW264397   0.903  13.422  13.884
20834SOL     OW64398   3.836  12.002  10.089
20834SOL    HW164399   3.796  11.961  10.012
20834SOL    HW264400   3.915  11.950  10.104
20835SOL     OW64401   3.841  12.725   0.532
20835SOL    HW164402   3.870  12.811   0.563
20835SOL    HW264403   3.921  12.676   0.517
20836SOL     OW64404   0.857   5.885   4.812
20836SOL    HW164405   0.804   5.807   4.822
20836SOL    HW264406   0.872   5.891   4.717
20837SOL     OW64407   8.308   4.451  12.445
20837SOL    HW164408   8.294   4.470  12.353
20837SOL    HW264409   8.231   4.400  12.471
20838SOL     OW64410  11.415  10.147   1.848
20838SOL    HW164411  11.427  10.215   1.781
20838SOL    HW264412  11.395  10.068   1.798
20839SOL     OW64413   3.424  11.885   4.857
20839SOL    HW164414   3.398  11.961   4.806
20839SOL    HW264415   3.515  11.903   4.882
20840SOL     OW64416  13.562   5.842  11.746
20840SOL    HW164417  13.510   5.838  11.826
20840SOL    HW264418  13.647   5.805  11.770
20841SOL     OW64419   9.313   2.737   4.071
20841SOL    HW164420   9.222   2.750   4.100
20841SOL    HW264421   9.333   2.646   4.094
20842SOL     OW64422  11.552  14.868  11.016
20842SOL    HW164423  11.499  14.791  10.995
20842SOL    HW264424  11.638  14.833  11.037
20843SOL     OW64425   3.015  12.258   8.811
20843SOL    HW164426   2.955  12.311   8.863
20843SOL    HW264427   2.964  12.230   8.735
20844SOL     OW64428   1.870   5.167   4.804
20844SOL    HW164429   1.885   5.110   4.880
20844SOL    HW264430   1.934   5.238   4.816
20845SOL     OW64431  12.784   1.773  13.546
20845SOL    HW164432  12.736   1.726  13.478
20845SOL    HW264433  12.823   1.703  13.600
20846SOL     OW64434   7.996  12.017   0.275
20846SOL    HW164435   8.050  12.088   0.238
20846SOL    HW264436   8.005  12.027   0.370
20847SOL     OW64437  13.468   6.235   9.677
20847SOL    HW164438  13.375   6.225   9.701
20847SOL    HW264439  13.488   6.157   9.625
20848SOL     OW64440  14.641   8.369  12.201
20848SOL    HW164441  14.721   8.415  12.228
20848SOL    HW264442  14.646   8.284  12.245
20849SOL     OW64443   2.932   1.070  13.964
20849SOL    HW164444   3.002   1.008  13.945
20849SOL    HW264445   2.952   1.146  13.909
20850SOL     OW64446  10.510  13.860   3.698
20850SOL    HW164447  10.602  13.875   3.677
20850SOL    HW264448  10.463  13.922   3.643
20851SOL     OW64449   6.853  14.603   6.462
20851SOL    HW164450   6.939  14.572   6.437
20851SOL    HW264451   6.838  14.566   6.549
20852SOL     OW64452   1.407   9.209   9.972
20852SOL    HW164453   1.350   9.270  10.017
20852SOL    HW264454   1.403   9.234   9.880
20853SOL     OW64455  14.307   4.553  12.772
20853SOL    HW164456  14.252   4.630  12.785
20853SOL    HW264457  14.379   4.564  12.834
20854SOL     OW64458   0.999   5.421   7.304
20854SOL    HW164459   0.916   5.377   7.324
20854SOL    HW264460   1.013   5.404   7.211
20855SOL     OW64461  12.137   8.247   4.391
20855SOL    HW164462  12.130   8.193   4.469
20855SOL    HW264463  12.053   8.293   4.385
20856SOL     OW64464  14.310  10.476   3.908
20856SOL    HW164465  14.322  10.457   3.815
20856SOL    HW264466  14.376  10.423   3.952
20857SOL     OW64467   5.227   0.314   2.430
20857SOL    HW164468   5.321   0.305   2.441
20857SOL    HW264469   5.206   0.401   2.466
20858SOL     OW64470  10.152   2.026  11.019
20858SOL    HW164471  10.165   2.062  10.932
20858SOL    HW264472  10.136   2.103  11.075
20859SOL     OW64473   9.899  12.053   5.521
20859SOL    HW164474   9.889  11.995   5.596
20859SOL    HW264475   9.880  11.998   5.445
20860SOL     OW64476   3.149   7.446   0.645
20860SOL    HW164477   3.184   7.360   0.623
20860SOL    HW264478   3.099   7.472   0.568
20861SOL     OW64479   0.926  13.119   0.680
20861SOL    HW164480   0.879  13.193   0.718
20861SOL    HW264481   0.972  13.156   0.604
20862SOL     OW64482   2.896   2.563  13.214
20862SOL    HW164483   2.857   2.605  13.138
20862SOL    HW264484   2.935   2.635  13.263
20863SOL     OW64485   8.786   6.291  12.667
20863SOL    HW164486   8.700   6.332  12.665
20863SOL    HW264487   8.847   6.364  12.656
20864SOL     OW64488   7.214   8.980   9.469
20864SOL    HW164489   7.143   8.987   9.405
20864SOL    HW264490   7.271   9.055   9.449
20865SOL     OW64491   6.644   0.916   3.018
20865SOL    HW164492   6.634   0.888   3.109
20865SOL    HW264493   6.604   1.003   3.015
20866SOL     OW64494  11.418  11.402   1.502
20866SOL    HW164495  11.403  11.427   1.593
20866SOL    HW264496  11.447  11.311   1.506
20867SOL     OW64497   4.503   6.856   0.924
20867SOL    HW164498   4.512   6.892   0.835
20867SOL    HW264499   4.532   6.765   0.915
20868SOL     OW64500   5.033  14.096  13.219
20868SOL    HW164501   4.998  14.176  13.257
20868SOL    HW264502   4.988  14.087  13.135
20869SOL     OW64503  10.957   9.857   9.101
20869SOL    HW164504  10.909   9.793   9.050
20869SOL    HW264505  10.940   9.832   9.192
20870SOL     OW64506   7.316  11.119   5.649
20870SOL    HW164507   7.408  11.145   5.660
20870SOL    HW264508   7.266  11.197   5.670
20871SOL     OW64509   9.015   3.654  11.252
20871SOL    HW164510   8.989   3.568  11.220
20871SOL    HW264511   9.095   3.638  11.302
20872SOL     OW64512   0.640   5.417   4.313
20872SOL    HW164513   0.672   5.444   4.227
20872SOL    HW264514   0.604   5.330   4.299
20873SOL     OW64515  10.501  10.258  14.044
20873SOL    HW164516  10.595  10.275  14.037
20873SOL    HW264517  10.462  10.309  13.973
20874SOL     OW64518  12.767  10.090  13.790
20874SOL    HW164519  12.813  10.041  13.721
20874SOL    HW264520  12.751  10.176  13.751
20875SOL     OW64521   5.824   9.409   6.712
20875SOL    HW164522   5.805   9.487   6.765
20875SOL    HW264523   5.750   9.402   6.652
20876SOL     OW64524   4.600   7.508   3.905
20876SOL    HW164525   4.565   7.597   3.908
20876SOL    HW264526   4.686   7.515   3.946
20877SOL     OW64527   7.567   5.461   3.357
20877SOL    HW164528   7.624   5.458   3.281
20877SOL    HW264529   7.599   5.534   3.409
20878SOL     OW64530  11.237  14.242   5.831
20878SOL    HW164531  11.279  14.201   5.907
20878SOL    HW264532  11.150  14.267   5.862
20879SOL     OW64533   6.960  12.425   6.511
20879SOL    HW164534   7.016  12.409   6.587
20879SOL    HW264535   6.930  12.515   6.521
20880SOL     OW64536   8.897   9.296  11.368
20880SOL    HW164537   8.872   9.363  11.305
20880SOL    HW264538   8.892   9.339  11.454
20881SOL     OW64539   9.403  14.323   5.786
20881SOL    HW164540   9.376  14.397   5.840
20881SOL    HW264541   9.335  14.258   5.799
20882SOL     OW64542   4.016   0.679   1.112
20882SOL    HW164543   3.993   0.623   1.187
20882SOL    HW264544   3.933   0.714   1.081
20883SOL     OW64545  10.715   9.435   8.863
20883SOL    HW164546  10.680   9.482   8.939
20883SOL    HW264547  10.638   9.419   8.808
20884SOL     OW64548   4.727   3.506   0.889
20884SOL    HW164549   4.772   3.552   0.818
20884SOL    HW264550   4.786   3.436   0.914
20885SOL     OW64551  11.122  10.376   8.918
20885SOL    HW164552  11.162  10.457   8.888
20885SOL    HW264553  11.099  10.394   9.009
20886SOL     OW64554   1.358  12.838   5.883
20886SOL    HW164555   1.372  12.768   5.948
20886SOL    HW264556   1.352  12.918   5.935
20887SOL     OW64557  13.797   9.153   2.346
20887SOL    HW164558  13.823   9.065   2.320
20887SOL    HW264559  13.702   9.148   2.355
20888SOL     OW64560   5.007   7.686   4.828
20888SOL    HW164561   5.101   7.670   4.817
20888SOL    HW264562   4.972   7.602   4.857
20889SOL     OW64563   7.069   4.695  12.830
20889SOL    HW164564   7.028   4.781  12.836
20889SOL    HW264565   7.011   4.645  12.772
20890SOL     OW64566   2.884   7.641   9.986
20890SOL    HW164567   2.968   7.668   9.948
20890SOL    HW264568   2.864   7.557   9.944
20891SOL     OW64569   1.763   7.093   6.445
20891SOL    HW164570   1.686   7.038   6.463
20891SOL    HW264571   1.796   7.060   6.361
20892SOL     OW64572   1.937   6.390   4.522
20892SOL    HW164573   1.845   6.413   4.531
20892SOL    HW264574   1.948   6.312   4.576
20893SOL     OW64575   4.572   6.101  13.095
20893SOL    HW164576   4.615   6.125  13.013
20893SOL    HW264577   4.583   6.007  13.102
20894SOL     OW64578   5.969  11.193   3.660
20894SOL    HW164579   6.009  11.239   3.733
20894SOL    HW264580   6.003  11.104   3.665
20895SOL     OW64581   8.969   2.204   5.951
20895SOL    HW164582   8.940   2.292   5.974
20895SOL    HW264583   9.046   2.217   5.896
20896SOL     OW64584  11.961  13.966   7.639
20896SOL    HW164585  12.008  14.031   7.586
20896SOL    HW264586  11.988  13.984   7.729
20897SOL     OW64587   7.855   6.570   0.185
20897SOL    HW164588   7.923   6.637   0.193
20897SOL    HW264589   7.902   6.487   0.195
20898SOL     OW64590  10.317   9.785   9.262
20898SOL    HW164591  10.313   9.870   9.220
20898SOL    HW264592  10.369   9.799   9.341
20899SOL     OW64593   1.764   6.045   1.242
20899SOL    HW164594   1.738   6.128   1.282
20899SOL    HW264595   1.822   6.071   1.170
20900SOL     OW64596   5.874   3.569  12.475
20900SOL    HW164597   5.887   3.512  12.551
20900SOL    HW264598   5.826   3.514  12.413
20901SOL     OW64599   6.944   9.433   3.521
20901SOL    HW164600   7.039   9.445   3.520
20901SOL    HW264601   6.930   9.340   3.506
20902SOL     OW64602  11.170  11.162  12.074
20902SOL    HW164603  11.263  11.170  12.052
20902SOL    HW264604  11.142  11.252  12.092
20903SOL     OW64605   0.728  14.071  10.849
20903SOL    HW164606   0.655  14.114  10.804
20903SOL    HW264607   0.688  14.028  10.925
20904SOL     OW64608  11.035  12.163   2.730
20904SOL    HW164609  11.083  12.081   2.722
20904SOL    HW264610  11.033  12.198   2.641
20905SOL     OW64611   9.747   8.448  12.916
20905SOL    HW164612   9.785   8.512  12.856
20905SOL    HW264613   9.671   8.412  12.869
20906SOL     OW64614  12.276  12.326   8.140
20906SOL    HW164615  12.288  12.241   8.181
20906SOL    HW264616  12.205  12.367   8.190
20907SOL     OW64617   0.870   9.479   2.035
20907SOL    HW164618   0.924   9.495   2.113
20907SOL    HW264619   0.845   9.387   2.043
20908SOL     OW64620  13.333   2.259  12.730
20908SOL    HW164621  13.406   2.231  12.675
20908SOL    HW264622  13.292   2.178  12.759
20909SOL     OW64623  11.076   5.283   5.530
20909SOL    HW164624  11.039   5.249   5.612
20909SOL    HW264625  11.011   5.260   5.463
20910SOL     OW64626   2.106  13.956   4.545
20910SOL    HW164627   2.083  13.941   4.636
20910SOL    HW264628   2.162  14.034   4.547
20911SOL     OW64629   6.079  12.822  12.063
20911SOL    HW164630   6.030  12.743  12.040
20911SOL    HW264631   6.157  12.819  12.007
20912SOL     OW64632  10.942   1.383  12.204
20912SOL    HW164633  10.883   1.439  12.255
20912SOL    HW264634  10.894   1.363  12.124
20913SOL     OW64635   8.124   2.907   7.994
20913SOL    HW164636   8.077   2.845   8.049
20913SOL    HW264637   8.216   2.893   8.013
20914SOL     OW64638   8.780   8.189   2.158
20914SOL    HW164639   8.694   8.169   2.122
20914SOL    HW264640   8.775   8.163   2.250
20915SOL     OW64641   3.013   6.364   7.347
20915SOL    HW164642   2.999   6.345   7.439
20915SOL    HW264643   2.974   6.290   7.301
20916SOL     OW64644   0.300   6.678   0.895
20916SOL    HW164645   0.360   6.751   0.887
20916SOL    HW264646   0.265   6.665   0.807
20917SOL     OW64647   4.165   2.589   0.247
20917SOL    HW164648   4.216   2.642   0.186
20917SOL    HW264649   4.217   2.586   0.327
20918SOL     OW64650   8.786   9.434   8.851
20918SOL    HW164651   8.727   9.399   8.784
20918SOL    HW264652   8.827   9.510   8.810
20919SOL     OW64653  14.678   1.693   7.935
20919SOL    HW164654  14.588   1.721   7.925
20919SOL    HW264655  14.704   1.664   7.847
20920SOL     OW64656   0.113  11.305   5.916
20920SOL    HW164657   0.075  11.260   5.840
20920SOL    HW264658   0.193  11.257   5.935
20921SOL     OW64659  13.572  14.401   3.685
20921SOL    HW164660  13.576  14.495   3.667
20921SOL    HW264661  13.652  14.365   3.645
20922SOL     OW64662   3.325   0.222   7.131
20922SOL    HW164663   3.322   0.250   7.223
20922SOL    HW264664   3.290   0.133   7.132
20923SOL     OW64665   9.242   1.502   9.420
20923SOL    HW164666   9.149   1.521   9.407
20923SOL    HW264667   9.268   1.560   9.492
20924SOL     OW64668   2.521   7.527   6.519
20924SOL    HW164669   2.440   7.497   6.560
20924SOL    HW264670   2.573   7.562   6.591
20925SOL     OW64671   2.261   3.648  14.336
20925SOL    HW164672   2.166   3.645  14.347
20925SOL    HW264673   2.275   3.627  14.243
20926SOL     OW64674   4.333  11.629   5.265
20926SOL    HW164675   4.245  11.661   5.245
20926SOL    HW264676   4.362  11.683   5.339
20927SOL     OW64677  11.288  10.679  10.924
20927SOL    HW164678  11.335  10.613  10.975
20927SOL    HW264679  11.200  10.643  10.915
20928SOL     OW64680  10.946  14.618   6.246
20928SOL    HW164681  10.878  14.640   6.309
20928SOL    HW264682  10.942  14.523   6.239
20929SOL     OW64683   4.108   0.700   0.385
20929SOL    HW164684   4.140   0.788   0.409
20929SOL    HW264685   4.026   0.716   0.340
20930SOL     OW64686   6.308   6.180   3.612
20930SOL    HW164687   6.335   6.089   3.624
20930SOL    HW264688   6.231   6.190   3.668
20931SOL     OW64689   2.637   6.433   0.161
20931SOL    HW164690   2.677   6.515   0.190
20931SOL    HW264691   2.553   6.430   0.208
20932SOL     OW64692   1.346   3.535   0.954
20932SOL    HW164693   1.337   3.626   0.981
20932SOL    HW264694   1.412   3.499   1.012
20933SOL     OW64695  11.751  11.761   6.952
20933SOL    HW164696  11.726  11.742   7.043
20933SOL    HW264697  11.811  11.836   6.959
20934SOL     OW64698  14.392   6.395  10.877
20934SOL    HW164699  14.458   6.374  10.811
20934SOL    HW264700  14.379   6.490  10.869
20935SOL     OW64701   8.141  12.569   6.359
20935SOL    HW164702   8.229  12.576   6.394
20935SOL    HW264703   8.148  12.602   6.269
20936SOL     OW64704  14.772   9.741   2.714
20936SOL    HW164705  14.828   9.745   2.791
20936SOL    HW264706  14.727   9.825   2.713
20937SOL     OW64707   5.397   4.565   8.789
20937SOL    HW164708   5.441   4.512   8.855
20937SOL    HW264709   5.306   4.536   8.792
20938SOL     OW64710   5.049   7.126   8.207
20938SOL    HW164711   4.988   7.121   8.281
20938SOL    HW264712   5.076   7.035   8.193
20939SOL     OW64713   1.155  11.563   5.898
20939SOL    HW164714   1.209  11.635   5.867
20939SOL    HW264715   1.081  11.605   5.941
20940SOL     OW64716   8.762   8.772  12.636
20940SOL    HW164717   8.819   8.807  12.704
20940SOL    HW264718   8.821   8.723  12.579
20941SOL     OW64719  14.642  13.192  10.349
20941SOL    HW164720  14.710  13.169  10.286
20941SOL    HW264721  14.567  13.217  10.295
20942SOL     OW64722   3.509   9.060   1.951
20942SOL    HW164723   3.439   9.027   2.009
20942SOL    HW264724   3.469   9.060   1.864
20943SOL     OW64725  12.152   0.122  13.112
20943SOL    HW164726  12.129   0.176  13.187
20943SOL    HW264727  12.238   0.087  13.133
20944SOL     OW64728  11.876   9.932  14.237
20944SOL    HW164729  11.817   9.917  14.310
20944SOL    HW264730  11.905   9.844  14.210
20945SOL     OW64731   5.435   0.477  11.096
20945SOL    HW164732   5.527   0.503  11.105
20945SOL    HW264733   5.439   0.385  11.070
20946SOL     OW64734   6.081   5.827   8.139
20946SOL    HW164735   6.029   5.817   8.219
20946SOL    HW264736   6.156   5.880   8.165
20947SOL     OW64737  11.868   7.045   8.605
20947SOL    HW164738  11.874   7.015   8.514
20947SOL    HW264739  11.859   7.140   8.597
20948SOL     OW64740   5.943   3.637   1.184
20948SOL    HW164741   5.997   3.608   1.257
20948SOL    HW264742   6.006   3.656   1.114
20949SOL     OW64743  10.014   9.237   6.615
20949SOL    HW164744  10.029   9.291   6.538
20949SOL    HW264745  10.002   9.300   6.686
20950SOL     OW64746   0.838   1.024   1.602
20950SOL    HW164747   0.811   1.105   1.645
20950SOL    HW264748   0.863   1.051   1.514
20951SOL     OW64749  12.366   1.085  12.039
20951SOL    HW164750  12.298   1.126  11.985
20951SOL    HW264751  12.439   1.071  11.978
20952SOL     OW64752  11.109   5.358   8.355
20952SOL    HW164753  11.043   5.390   8.294
20952SOL    HW264754  11.139   5.435   8.402
20953SOL     OW64755  13.359   2.462  10.435
20953SOL    HW164756  13.272   2.468  10.474
20953SOL    HW264757  13.365   2.538  10.378
20954SOL     OW64758   6.807  10.631   6.998
20954SOL    HW164759   6.800  10.550   7.048
20954SOL    HW264760   6.717  10.650   6.970
20955SOL     OW64761   2.065   2.415   3.785
20955SOL    HW164762   2.082   2.322   3.778
20955SOL    HW264763   2.141   2.451   3.831
20956SOL     OW64764   8.379  13.036   2.174
20956SOL    HW164765   8.342  13.115   2.135
20956SOL    HW264766   8.324  13.018   2.250
20957SOL     OW64767   3.995   8.513   7.829
20957SOL    HW164768   4.011   8.560   7.911
20957SOL    HW264769   3.906   8.480   7.836
20958SOL     OW64770   0.762  14.467   1.296
20958SOL    HW164771   0.755  14.372   1.304
20958SOL    HW264772   0.833  14.480   1.233
20959SOL     OW64773   3.225   6.926  14.512
20959SOL    HW164774   3.161   6.989  14.545
20959SOL    HW264775   3.195   6.842  14.545
20960SOL     OW64776  13.269   4.404   1.661
20960SOL    HW164777  13.304   4.451   1.585
20960SOL    HW264778  13.176   4.427   1.662
20961SOL     OW64779   6.472  12.182   3.096
20961SOL    HW164780   6.467  12.154   3.188
20961SOL    HW264781   6.513  12.268   3.100
20962SOL     OW64782   3.214   6.878  11.492
20962SOL    HW164783   3.144   6.928  11.451
20962SOL    HW264784   3.177   6.791  11.506
20963SOL     OW64785  12.399   2.453  10.659
20963SOL    HW164786  12.366   2.369  10.626
20963SOL    HW264787  12.379   2.452  10.752
20964SOL     OW64788   0.210   4.791   5.126
20964SOL    HW164789   0.199   4.875   5.082
20964SOL    HW264790   0.163   4.802   5.209
20965SOL     OW64791  11.589   4.778   5.018
20965SOL    HW164792  11.606   4.690   5.053
20965SOL    HW264793  11.585   4.766   4.923
20966SOL     OW64794  13.153   0.322  14.832
20966SOL    HW164795  13.225   0.295   0.013
20966SOL    HW264796  13.082   0.344   0.018
20967SOL     OW64797   5.160  13.527  14.758
20967SOL    HW164798   5.228  13.481  14.808
20967SOL    HW264799   5.097  13.556  14.824
20968SOL     OW64800   5.557   8.855   8.844
20968SOL    HW164801   5.580   8.943   8.876
20968SOL    HW264802   5.567   8.860   8.749
20969SOL     OW64803  13.563   2.200   8.946
20969SOL    HW164804  13.564   2.137   8.874
20969SOL    HW264805  13.494   2.169   9.004
20970SOL     OW64806  11.381   1.124   8.949
20970SOL    HW164807  11.398   1.053   9.011
20970SOL    HW264808  11.315   1.088   8.890
20971SOL     OW64809  13.913  14.554   8.101
20971SOL    HW164810  13.835  14.605   8.081
20971SOL    HW264811  13.964  14.554   8.020
20972SOL     OW64812  14.841  10.547  13.416
20972SOL    HW164813   0.055  10.511  13.418
20972SOL    HW264814  14.808  10.534  13.505
20973SOL     OW64815   6.653   5.331   8.500
20973SOL    HW164816   6.612   5.408   8.461
20973SOL    HW264817   6.658   5.350   8.593
20974SOL     OW64818  14.017   6.178   6.835
20974SOL    HW164819  13.969   6.252   6.871
20974SOL    HW264820  14.105   6.211   6.819
20975SOL     OW64821  12.275  14.325  14.011
20975SOL    HW164822  12.280  14.243  14.059
20975SOL    HW264823  12.292  14.300  13.920
20976SOL     OW64824   8.080   8.231   4.369
20976SOL    HW164825   8.032   8.154   4.340
20976SOL    HW264826   8.121   8.266   4.290
20977SOL     OW64827  12.368   0.987   2.200
20977SOL    HW164828  12.294   1.048   2.210
20977SOL    HW264829  12.329   0.900   2.211
20978SOL     OW64830  12.716   5.479  12.320
20978SOL    HW164831  12.636   5.530  12.306
20978SOL    HW264832  12.783   5.525  12.269
20979SOL     OW64833  13.606  13.593   2.596
20979SOL    HW164834  13.560  13.523   2.550
20979SOL    HW264835  13.695  13.591   2.561
20980SOL     OW64836  12.192   6.819   0.811
20980SOL    HW164837  12.135   6.741   0.809
20980SOL    HW264838  12.154   6.874   0.880
20981SOL     OW64839   9.290  10.003   3.365
20981SOL    HW164840   9.370  10.017   3.314
20981SOL    HW264841   9.318   9.953   3.442
20982SOL     OW64842   9.464   2.247   5.012
20982SOL    HW164843   9.553   2.278   4.997
20982SOL    HW264844   9.463   2.157   4.980
20983SOL     OW64845  13.169  14.593   9.623
20983SOL    HW164846  13.256  14.599   9.584
20983SOL    HW264847  13.112  14.571   9.549
20984SOL     OW64848   2.861   2.529  13.564
20984SOL    HW164849   2.936   2.484  13.603
20984SOL    HW264850   2.843   2.481  13.483
20985SOL     OW64851   8.545   1.301   3.796
20985SOL    HW164852   8.543   1.207   3.779
20985SOL    HW264853   8.584   1.309   3.883
20986SOL     OW64854  10.531   7.267   3.676
20986SOL    HW164855  10.480   7.329   3.624
20986SOL    HW264856  10.468   7.234   3.741
20987SOL     OW64857  14.220  11.427  10.391
20987SOL    HW164858  14.143  11.460  10.436
20987SOL    HW264859  14.244  11.348  10.440
20988SOL     OW64860  12.580   4.627   5.789
20988SOL    HW164861  12.619   4.626   5.876
20988SOL    HW264862  12.533   4.711   5.784
20989SOL     OW64863   2.508   7.815   1.221
20989SOL    HW164864   2.568   7.870   1.170
20989SOL    HW264865   2.425   7.820   1.173
20990SOL     OW64866   4.013   0.735   3.896
20990SOL    HW164867   3.976   0.648   3.883
20990SOL    HW264868   3.982   0.787   3.821
20991SOL     OW64869   3.429  13.700   1.143
20991SOL    HW164870   3.477  13.724   1.064
20991SOL    HW264871   3.488  13.724   1.215
20992SOL     OW64872   5.412   6.572  11.242
20992SOL    HW164873   5.352   6.517  11.293
20992SOL    HW264874   5.355   6.618  11.180
20993SOL     OW64875  11.992   0.388   9.040
20993SOL    HW164876  11.921   0.341   8.995
20993SOL    HW264877  11.947   0.453   9.094
20994SOL     OW64878  12.249  12.629   8.848
20994SOL    HW164879  12.306  12.581   8.788
20994SOL    HW264880  12.298  12.633   8.930
20995SOL     OW64881  12.883   0.979   1.600
20995SOL    HW164882  12.796   0.975   1.640
20995SOL    HW264883  12.867   0.967   1.507
20996SOL     OW64884   6.860  11.044  13.421
20996SOL    HW164885   6.901  10.959  13.435
20996SOL    HW264886   6.877  11.063  13.328
20997SOL     OW64887  13.545   2.375   0.003
20997SOL    HW164888  13.619   2.392   0.061
20997SOL    HW264889  13.573   2.409  14.793
20998SOL     OW64890   0.165   0.870   8.182
20998SOL    HW164891   0.235   0.860   8.117
20998SOL    HW264892   0.097   0.919   8.136
20999SOL     OW64893   7.226   5.838  11.275
20999SOL    HW164894   7.225   5.797  11.189
20999SOL    HW264895   7.203   5.930  11.258
21000SOL     OW64896   8.369  11.318   7.069
21000SOL    HW164897   8.326  11.278   7.146
21000SOL    HW264898   8.298  11.361   7.022
21001SOL     OW64899   1.095  13.516   4.846
21001SOL    HW164900   1.090  13.609   4.821
21001SOL    HW264901   1.077  13.516   4.940
21002SOL     OW64902   4.443   5.049   9.553
21002SOL    HW164903   4.453   5.143   9.564
21002SOL    HW264904   4.529   5.013   9.577
21003SOL     OW64905   3.290  10.563  10.202
21003SOL    HW164906   3.249  10.650  10.202
21003SOL    HW264907   3.384  10.581  10.196
21004SOL     OW64908   5.671   3.705  10.635
21004SOL    HW164909   5.725   3.765  10.686
21004SOL    HW264910   5.584   3.713  10.674
21005SOL     OW64911  12.234  13.930  10.154
21005SOL    HW164912  12.194  13.845  10.169
21005SOL    HW264913  12.237  13.940  10.059
21006SOL     OW64914   9.773  14.359   1.935
21006SOL    HW164915   9.740  14.336   1.848
21006SOL    HW264916   9.696  14.389   1.983
21007SOL     OW64917   3.208  10.970  11.116
21007SOL    HW164918   3.125  10.941  11.155
21007SOL    HW264919   3.273  10.909  11.149
21008SOL     OW64920   6.760   6.300   9.678
21008SOL    HW164921   6.728   6.376   9.631
21008SOL    HW264922   6.782   6.236   9.610
21009SOL     OW64923   4.402   2.216   0.307
21009SOL    HW164924   4.377   2.303   0.278
21009SOL    HW264925   4.438   2.229   0.395
21010SOL     OW64926   1.936   4.412  13.372
21010SOL    HW164927   1.875   4.453  13.433
21010SOL    HW264928   1.923   4.459  13.289
21011SOL     OW64929  12.739   5.716   6.680
21011SOL    HW164930  12.731   5.809   6.698
21011SOL    HW264931  12.745   5.674   6.766
21012SOL     OW64932   5.856   5.238  10.179
21012SOL    HW164933   5.770   5.203  10.199
21012SOL    HW264934   5.901   5.240  10.264
21013SOL     OW64935   5.880  14.807  13.201
21013SOL    HW164936   5.882  14.872  13.131
21013SOL    HW264937   5.883  14.859  13.281
21014SOL     OW64938   0.724  11.221  10.351
21014SOL    HW164939   0.758  11.254  10.267
21014SOL    HW264940   0.631  11.206  10.336
21015SOL     OW64941  11.811  11.375   3.642
21015SOL    HW164942  11.728  11.402   3.603
21015SOL    HW264943  11.877  11.401   3.578
21016SOL     OW64944   5.355   5.520  13.432
21016SOL    HW164945   5.429   5.545  13.486
21016SOL    HW264946   5.393   5.505  13.345
21017SOL     OW64947  10.263   0.712   0.899
21017SOL    HW164948  10.181   0.752   0.871
21017SOL    HW264949  10.249   0.690   0.991
21018SOL     OW64950  13.030  12.384   9.235
21018SOL    HW164951  12.947  12.432   9.233
21018SOL    HW264952  13.081  12.421   9.163
21019SOL     OW64953  10.319   2.843   3.841
21019SOL    HW164954  10.286   2.836   3.751
21019SOL    HW264955  10.242   2.828   3.896
21020SOL     OW64956   5.749   0.060   3.315
21020SOL    HW164957   5.685   0.125   3.346
21020SOL    HW264958   5.795   0.104   3.244
21021SOL     OW64959   8.627  13.890   5.270
21021SOL    HW164960   8.573  13.957   5.312
21021SOL    HW264961   8.700  13.939   5.231
21022SOL     OW64962   9.233  11.124  12.859
21022SOL    HW164963   9.305  11.186  12.843
21022SOL    HW264964   9.192  11.155  12.939
21023SOL     OW64965  11.889   2.716   9.642
21023SOL    HW164966  11.867   2.623   9.634
21023SOL    HW264967  11.806   2.759   9.665
21024SOL     OW64968  13.458   6.696   6.858
21024SOL    HW164969  13.532   6.660   6.808
21024SOL    HW264970  13.407   6.744   6.793
21025SOL     OW64971   0.591  13.992   8.682
21025SOL    HW164972   0.500  13.980   8.711
21025SOL    HW264973   0.615  13.907   8.646
21026SOL     OW64974   5.578  11.254  11.558
21026SOL    HW164975   5.554  11.173  11.603
21026SOL    HW264976   5.522  11.255  11.480
21027SOL     OW64977  11.603   9.782  10.858
21027SOL    HW164978  11.510   9.796  10.839
21027SOL    HW264979  11.649   9.842  10.799
21028SOL     OW64980   9.235   3.115   9.829
21028SOL    HW164981   9.251   3.186   9.892
21028SOL    HW264982   9.322   3.088   9.801
21029SOL     OW64983  13.677   7.423  10.691
21029SOL    HW164984  13.646   7.358  10.628
21029SOL    HW264985  13.759   7.455  10.655
21030SOL     OW64986   2.259   0.839   4.936
21030SOL    HW164987   2.223   0.927   4.924
21030SOL    HW264988   2.197   0.782   4.889
21031SOL     OW64989   2.039   2.470   7.623
21031SOL    HW164990   2.018   2.389   7.669
21031SOL    HW264991   1.980   2.470   7.547
21032SOL     OW64992   8.428   0.948   5.207
21032SOL    HW164993   8.365   0.878   5.195
21032SOL    HW264994   8.394   1.020   5.153
21033SOL     OW64995   5.024   5.769  10.502
21033SOL    HW164996   4.939   5.796  10.466
21033SOL    HW264997   5.059   5.849  10.542
21034SOL     OW64998   4.924   0.235   4.922
21034SOL    HW164999   4.994   0.208   4.981
21034SOL    HW265000   4.865   0.286   4.978
21035SOL     OW65001   5.594   6.131  11.196
21035SOL    HW165002   5.588   6.204  11.257
21035SOL    HW265003   5.670   6.081  11.225
21036SOL     OW65004  11.439  10.822   8.666
21036SOL    HW165005  11.470  10.863   8.746
21036SOL    HW265006  11.352  10.789   8.688
21037SOL     OW65007  10.296   4.782   3.478
21037SOL    HW165008  10.351   4.829   3.415
21037SOL    HW265009  10.249   4.717   3.425
21038SOL     OW65010   4.250  14.061  14.354
21038SOL    HW165011   4.209  14.145  14.333
21038SOL    HW265012   4.178  13.999  14.356
21039SOL     OW65013   1.676   5.320   3.166
21039SOL    HW165014   1.709   5.391   3.222
21039SOL    HW265015   1.602   5.284   3.214
21040SOL     OW65016   6.108   1.562  11.073
21040SOL    HW165017   6.201   1.540  11.078
21040SOL    HW265018   6.090   1.613  11.152
21041SOL     OW65019   4.742   0.001   0.701
21041SOL    HW165020   4.725   0.073   0.641
21041SOL    HW265021   4.655  14.842   0.723
21042SOL     OW65022   8.857   8.139   9.508
21042SOL    HW165023   8.858   8.229   9.539
21042SOL    HW265024   8.870   8.145   9.414
21043SOL     OW65025   4.851   4.793   9.152
21043SOL    HW165026   4.945   4.794   9.172
21043SOL    HW265027   4.810   4.753   9.229
21044SOL     OW65028   3.289  12.483   1.247
21044SOL    HW165029   3.335  12.423   1.189
21044SOL    HW265030   3.197  12.479   1.220
21045SOL     OW65031   3.872   7.631   7.242
21045SOL    HW165032   3.886   7.581   7.322
21045SOL    HW265033   3.916   7.715   7.257
21046SOL     OW65034  12.318  12.291   2.435
21046SOL    HW165035  12.309  12.217   2.375
21046SOL    HW265036  12.299  12.368   2.381
21047SOL     OW65037   7.233  13.418  13.824
21047SOL    HW165038   7.143  13.438  13.849
21047SOL    HW265039   7.235  13.429  13.729
21048SOL     OW65040   3.702   3.241   8.523
21048SOL    HW165041   3.792   3.249   8.552
21048SOL    HW265042   3.684   3.322   8.475
21049SOL     OW65043  12.289   5.949   0.548
21049SOL    HW165044  12.356   6.012   0.572
21049SOL    HW265045  12.329   5.895   0.481
21050SOL     OW65046   9.696   7.698   0.696
21050SOL    HW165047   9.683   7.740   0.781
21050SOL    HW265048   9.752   7.623   0.714
21051SOL     OW65049   5.093   9.168  11.465
21051SOL    HW165050   5.187   9.149  11.476
21051SOL    HW265051   5.074   9.230  11.535
21052SOL     OW65052  12.462   0.483   5.741
21052SOL    HW165053  12.440   0.490   5.648
21052SOL    HW265054  12.557   0.474   5.742
21053SOL     OW65055   9.526   5.540   1.697
21053SOL    HW165056   9.517   5.445   1.691
21053SOL    HW265057   9.445   5.569   1.738
21054SOL     OW65058   3.719   6.335   7.523
21054SOL    HW165059   3.806   6.333   7.483
21054SOL    HW265060   3.659   6.351   7.451
21055SOL     OW65061   5.817   0.977   2.174
21055SOL    HW165062   5.892   0.941   2.126
21055SOL    HW265063   5.790   0.907   2.233
21056SOL     OW65064  12.960   9.550   0.158
21056SOL    HW165065  12.954   9.464   0.198
21056SOL    HW265066  12.907   9.543   0.078
21057SOL     OW65067   0.191   6.688  10.687
21057SOL    HW165068   0.169   6.605  10.731
21057SOL    HW265069   0.217   6.662  10.599
21058SOL     OW65070  12.253   4.517   0.829
21058SOL    HW165071  12.224   4.478   0.911
21058SOL    HW265072  12.322   4.459   0.797
21059SOL     OW65073   4.025   4.151   6.836
21059SOL    HW165074   4.037   4.246   6.836
21059SOL    HW265075   3.938   4.138   6.798
21060SOL     OW65076   5.166   7.768   2.376
21060SOL    HW165077   5.125   7.832   2.434
21060SOL    HW265078   5.216   7.711   2.434
21061SOL     OW65079   5.190   5.557  12.785
21061SOL    HW165080   5.153   5.624  12.728
21061SOL    HW265081   5.168   5.586  12.874
21062SOL     OW65082   1.054   3.658   5.308
21062SOL    HW165083   1.060   3.571   5.266
21062SOL    HW265084   1.093   3.717   5.243
21063SOL     OW65085   8.921   2.730   9.710
21063SOL    HW165086   8.915   2.789   9.785
21063SOL    HW265087   8.985   2.771   9.652
21064SOL     OW65088  14.841   6.462  14.170
21064SOL    HW165089  14.840   6.511  14.253
21064SOL    HW265090  14.784   6.387  14.185
21065SOL     OW65091   2.221   4.851   6.536
21065SOL    HW165092   2.167   4.803   6.600
21065SOL    HW265093   2.158   4.896   6.480
21066SOL     OW65094  13.085   4.541   4.546
21066SOL    HW165095  13.146   4.469   4.533
21066SOL    HW265096  13.100   4.599   4.471
21067SOL     OW65097   9.002  13.643  13.438
21067SOL    HW165098   9.013  13.718  13.496
21067SOL    HW265099   9.008  13.567  13.495
21068SOL     OW65100   5.287  13.767   3.192
21068SOL    HW165101   5.326  13.847   3.160
21068SOL    HW265102   5.213  13.796   3.246
21069SOL     OW65103  14.848   0.417  13.264
21069SOL    HW165104  14.828   0.511  13.259
21069SOL    HW265105  14.774   0.375  13.221
21070SOL     OW65106   0.539   2.077   4.018
21070SOL    HW165107   0.582   2.034   4.092
21070SOL    HW265108   0.465   2.124   4.056
21071SOL     OW65109  10.594   7.305  13.719
21071SOL    HW165110  10.520   7.334  13.666
21071SOL    HW265111  10.589   7.209  13.717
21072SOL     OW65112  10.162   8.098   3.254
21072SOL    HW165113  10.241   8.142   3.222
21072SOL    HW265114  10.166   8.011   3.215
21073SOL     OW65115   8.643  12.069  13.811
21073SOL    HW165116   8.735  12.083  13.789
21073SOL    HW265117   8.595  12.100  13.734
21074SOL     OW65118  14.070   4.910   3.886
21074SOL    HW165119  14.092   4.818   3.901
21074SOL    HW265120  14.155   4.952   3.871
21075SOL     OW65121   0.644  10.365   7.737
21075SOL    HW165122   0.645  10.421   7.815
21075SOL    HW265123   0.575  10.301   7.755
21076SOL     OW65124   6.940   5.598   1.802
21076SOL    HW165125   6.950   5.685   1.763
21076SOL    HW265126   6.973   5.608   1.892
21077SOL     OW65127  12.001   2.150   0.193
21077SOL    HW165128  11.927   2.211   0.200
21077SOL    HW265129  12.057   2.187   0.125
21078SOL     OW65130   5.896   7.424  10.527
21078SOL    HW165131   5.918   7.473  10.606
21078SOL    HW265132   5.860   7.489  10.467
21079SOL     OW65133   9.501  12.204  12.149
21079SOL    HW165134   9.520  12.283  12.099
21079SOL    HW265135   9.484  12.137  12.082
21080SOL     OW65136  13.261   8.534   8.794
21080SOL    HW165137  13.314   8.456   8.810
21080SOL    HW265138  13.182   8.521   8.846
21081SOL     OW65139   4.176  11.267   8.794
21081SOL    HW165140   4.252  11.322   8.772
21081SOL    HW265141   4.156  11.290   8.884
21082SOL     OW65142   1.705   3.006   1.188
21082SOL    HW165143   1.733   2.933   1.243
21082SOL    HW265144   1.626   3.039   1.230
21083SOL     OW65145   6.349   4.192   4.744
21083SOL    HW165146   6.289   4.146   4.686
21083SOL    HW265147   6.359   4.278   4.705
21084SOL     OW65148   8.640   9.256   5.214
21084SOL    HW165149   8.729   9.227   5.196
21084SOL    HW265150   8.626   9.329   5.153
21085SOL     OW65151  10.991  10.313   8.506
21085SOL    HW165152  10.955  10.294   8.593
21085SOL    HW265153  10.915  10.337   8.454
21086SOL     OW65154   0.849  10.970   1.183
21086SOL    HW165155   0.871  11.061   1.202
21086SOL    HW265156   0.754  10.969   1.174
21087SOL     OW65157   2.418   3.005   5.028
21087SOL    HW165158   2.361   3.079   5.050
21087SOL    HW265159   2.490   3.045   4.980
21088SOL     OW65160   6.504   6.435   3.378
21088SOL    HW165161   6.553   6.372   3.326
21088SOL    HW265162   6.413   6.404   3.375
21089SOL     OW65163  13.621   4.249   1.206
21089SOL    HW165164  13.589   4.167   1.167
21089SOL    HW265165  13.675   4.220   1.280
21090SOL     OW65166  10.068   0.826  14.441
21090SOL    HW165167  10.150   0.806  14.397
21090SOL    HW265168  10.090   0.826  14.535
21091SOL     OW65169   9.096   3.839  13.656
21091SOL    HW165170   9.086   3.927  13.619
21091SOL    HW265171   9.149   3.853  13.734
21092SOL     OW65172  13.022   5.320   5.246
21092SOL    HW165173  12.926   5.329   5.246
21092SOL    HW265174  13.046   5.323   5.339
21093SOL     OW65175   5.712   2.366   3.770
21093SOL    HW165176   5.720   2.297   3.836
21093SOL    HW265177   5.781   2.429   3.792
21094SOL     OW65178   1.845   7.799   4.625
21094SOL    HW165179   1.767   7.776   4.574
21094SOL    HW265180   1.913   7.740   4.592
21095SOL     OW65181  14.694   9.845   6.510
21095SOL    HW165182  14.661   9.849   6.600
21095SOL    HW265183  14.773   9.900   6.511
21096SOL     OW65184   3.624  14.285   4.419
21096SOL    HW165185   3.620  14.197   4.383
21096SOL    HW265186   3.628  14.342   4.342
21097SOL     OW65187   7.735   6.805  11.336
21097SOL    HW165188   7.776   6.829  11.419
21097SOL    HW265189   7.644   6.787  11.358
21098SOL     OW65190   0.243  11.936  10.772
21098SOL    HW165191   0.315  11.885  10.810
21098SOL    HW265192   0.190  11.962  10.847
21099SOL     OW65193  12.196  14.427   4.563
21099SOL    HW165194  12.219  14.341   4.599
21099SOL    HW265195  12.121  14.410   4.506
21100SOL     OW65196  13.709   3.754  12.741
21100SOL    HW165197  13.719   3.659  12.729
21100SOL    HW265198  13.621   3.764  12.778
21101SOL     OW65199  13.891   6.352   1.597
21101SOL    HW165200  13.900   6.271   1.547
21101SOL    HW265201  13.864   6.417   1.532
21102SOL     OW65202   9.797  13.173  10.404
21102SOL    HW165203   9.867  13.112  10.430
21102SOL    HW265204   9.723  13.116  10.383
21103SOL     OW65205  10.502  14.291   2.387
21103SOL    HW165206  10.532  14.204   2.359
21103SOL    HW265207  10.420  14.304   2.339
21104SOL     OW65208   5.177   9.128   6.233
21104SOL    HW165209   5.153   9.070   6.305
21104SOL    HW265210   5.213   9.070   6.166
21105SOL     OW65211   4.935   7.521   5.283
21105SOL    HW165212   4.901   7.600   5.242
21105SOL    HW265213   4.951   7.546   5.373
21106SOL     OW65214   6.691   8.220   2.272
21106SOL    HW165215   6.618   8.208   2.212
21106SOL    HW265216   6.761   8.166   2.237
21107SOL     OW65217  13.549   2.476   6.779
21107SOL    HW165218  13.582   2.549   6.832
21107SOL    HW265219  13.510   2.416   6.843
21108SOL     OW65220   9.437  11.145   8.981
21108SOL    HW165221   9.410  11.231   8.947
21108SOL    HW265222   9.498  11.112   8.915
21109SOL     OW65223   0.811  10.499   5.387
21109SOL    HW165224   0.893  10.450   5.379
21109SOL    HW265225   0.810  10.529   5.478
21110SOL     OW65226   2.174  13.042   9.931
21110SOL    HW165227   2.175  12.998   9.846
21110SOL    HW265228   2.266  13.061   9.950
21111SOL     OW65229  11.428   6.827  11.030
21111SOL    HW165230  11.498   6.765  11.010
21111SOL    HW265231  11.474   6.907  11.055
21112SOL     OW65232  11.392   9.349  12.923
21112SOL    HW165233  11.337   9.271  12.928
21112SOL    HW265234  11.418   9.366  13.014
21113SOL     OW65235   0.246   3.568   0.169
21113SOL    HW165236   0.261   3.578   0.075
21113SOL    HW265237   0.335   3.565   0.206
21114SOL     OW65238   0.654   8.601  13.048
21114SOL    HW165239   0.727   8.641  13.095
21114SOL    HW265240   0.665   8.631  12.957
21115SOL     OW65241   7.690   2.875   4.029
21115SOL    HW165242   7.665   2.910   4.115
21115SOL    HW265243   7.697   2.781   4.043
21116SOL     OW65244   8.668   8.881   0.822
21116SOL    HW165245   8.744   8.835   0.788
21116SOL    HW265246   8.648   8.948   0.757
21117SOL     OW65247   0.164   3.917   2.377
21117SOL    HW165248   0.072   3.904   2.353
21117SOL    HW265249   0.173   4.012   2.389
21118SOL     OW65250   1.124   6.061   7.315
21118SOL    HW165251   1.159   6.119   7.383
21118SOL    HW265252   1.067   6.000   7.363
21119SOL     OW65253  14.352   4.946  12.729
21119SOL    HW165254  14.358   5.041  12.734
21119SOL    HW265255  14.277   4.924  12.784
21120SOL     OW65256   6.814   9.951   1.527
21120SOL    HW165257   6.874  10.013   1.569
21120SOL    HW265258   6.769   9.909   1.600
21121SOL     OW65259   9.836   7.050   7.962
21121SOL    HW165260   9.744   7.058   7.936
21121SOL    HW265261   9.859   7.137   7.994
21122SOL     OW65262  11.803  11.325  14.805
21122SOL    HW165263  11.830  11.282   0.011
21122SOL    HW265264  11.884  11.359  14.767
21123SOL     OW65265   0.476  14.191  13.836
21123SOL    HW165266   0.403  14.251  13.852
21123SOL    HW265267   0.440  14.104  13.856
21124SOL     OW65268  11.517   9.899  11.875
21124SOL    HW165269  11.496   9.866  11.787
21124SOL    HW265270  11.592   9.957  11.861
21125SOL     OW65271   8.688   7.471   6.790
21125SOL    HW165272   8.657   7.558   6.763
21125SOL    HW265273   8.611   7.429   6.829
21126SOL     OW65274   7.687  13.504   3.918
21126SOL    HW165275   7.708  13.412   3.935
21126SOL    HW265276   7.605  13.502   3.870
21127SOL     OW65277   5.683   8.486  10.751
21127SOL    HW165278   5.598   8.525  10.732
21127SOL    HW265279   5.663   8.414  10.810
21128SOL     OW65280   7.729  12.938  11.082
21128SOL    HW165281   7.662  12.975  11.025
21128SOL    HW265282   7.805  12.926  11.026
21129SOL     OW65283   7.146   6.515   1.463
21129SOL    HW165284   7.086   6.453   1.421
21129SOL    HW265285   7.093   6.558   1.530
21130SOL     OW65286  14.411  12.459   2.950
21130SOL    HW165287  14.506  12.454   2.949
21130SOL    HW265288  14.389  12.519   2.878
21131SOL     OW65289  12.872  12.441   2.072
21131SOL    HW165290  12.844  12.513   2.128
21131SOL    HW265291  12.803  12.375   2.081
21132SOL     OW65292   8.697   8.086  14.634
21132SOL    HW165293   8.789   8.062  14.644
21132SOL    HW265294   8.654   8.049  14.711
21133SOL     OW65295  12.085   4.299   0.342
21133SOL    HW165296  12.002   4.251   0.338
21133SOL    HW265297  12.103   4.310   0.435
21134SOL     OW65298   8.407  11.949  12.778
21134SOL    HW165299   8.454  12.032  12.769
21134SOL    HW265300   8.411  11.910  12.690
21135SOL     OW65301  11.279   1.245  13.414
21135SOL    HW165302  11.278   1.220  13.506
21135SOL    HW265303  11.290   1.340  13.415
21136SOL     OW65304   1.623  11.013  12.934
21136SOL    HW165305   1.570  11.006  13.014
21136SOL    HW265306   1.653  11.103  12.934
21137SOL     OW65307  13.001   3.468   6.304
21137SOL    HW165308  12.931   3.529   6.326
21137SOL    HW265309  13.081   3.519   6.314
21138SOL     OW65310   8.845   1.091  14.439
21138SOL    HW165311   8.803   1.017  14.395
21138SOL    HW265312   8.819   1.082  14.530
21139SOL     OW65313   7.037   7.292   2.063
21139SOL    HW165314   7.049   7.230   2.135
21139SOL    HW265315   7.099   7.362   2.081
21140SOL     OW65316   3.568   3.613   0.455
21140SOL    HW165317   3.578   3.623   0.360
21140SOL    HW265318   3.522   3.691   0.483
21141SOL     OW65319   0.406   1.990   8.147
21141SOL    HW165320   0.403   2.065   8.087
21141SOL    HW265321   0.314   1.962   8.154
21142SOL     OW65322   4.459   6.042   9.708
21142SOL    HW165323   4.382   6.091   9.679
21142SOL    HW265324   4.425   5.979   9.772
21143SOL     OW65325   7.272  10.226  13.744
21143SOL    HW165326   7.241  10.185  13.825
21143SOL    HW265327   7.357  10.185  13.728
21144SOL     OW65328   0.271  12.767   0.636
21144SOL    HW165329   0.247  12.858   0.619
21144SOL    HW265330   0.288  12.764   0.731
21145SOL     OW65331  10.715  12.743   5.770
21145SOL    HW165332  10.632  12.740   5.723
21145SOL    HW265333  10.755  12.658   5.752
21146SOL     OW65334   8.577   5.801  13.042
21146SOL    HW165335   8.660   5.845  13.061
21146SOL    HW265336   8.527   5.809  13.123
21147SOL     OW65337   4.376  12.410   6.418
21147SOL    HW165338   4.309  12.343   6.434
21147SOL    HW265339   4.411  12.389   6.332
21148SOL     OW65340   9.834   6.077   6.991
21148SOL    HW165341   9.835   5.986   6.960
21148SOL    HW265342   9.769   6.078   7.061
21149SOL     OW65343  11.401  12.697  14.179
21149SOL    HW165344  11.376  12.630  14.115
21149SOL    HW265345  11.379  12.659  14.263
21150SOL     OW65346   8.642   1.819  10.454
21150SOL    HW165347   8.668   1.728  10.469
21150SOL    HW265348   8.624   1.824  10.360
21151SOL     OW65349   3.748   9.795   4.676
21151SOL    HW165350   3.658   9.830   4.677
21151SOL    HW265351   3.764   9.773   4.585
21152SOL     OW65352   9.361   9.130  13.556
21152SOL    HW165353   9.369   9.098  13.466
21152SOL    HW265354   9.274   9.102  13.584
21153SOL     OW65355   4.851   1.328  13.105
21153SOL    HW165356   4.771   1.360  13.061
21153SOL    HW265357   4.830   1.238  13.129
21154SOL     OW65358   4.975  11.987   0.114
21154SOL    HW165359   5.053  12.034   0.142
21154SOL    HW265360   4.938  12.040   0.043
21155SOL     OW65361   0.248   6.607   0.342
21155SOL    HW165362   0.260   6.685   0.288
21155SOL    HW265363   0.337   6.574   0.356
21156SOL     OW65364   6.309   4.440   7.247
21156SOL    HW165365   6.342   4.508   7.306
21156SOL    HW265366   6.385   4.382   7.234
21157SOL     OW65367   8.681  14.471   0.704
21157SOL    HW165368   8.589  14.471   0.733
21157SOL    HW265369   8.731  14.462   0.785
21158SOL     OW65370   1.587   6.851   4.084
21158SOL    HW165371   1.554   6.772   4.041
21158SOL    HW265372   1.649   6.888   4.022
21159SOL     OW65373   9.149   3.225  10.123
21159SOL    HW165374   9.243   3.241  10.124
21159SOL    HW265375   9.112   3.303  10.080
21160SOL     OW65376   2.079  14.128   0.378
21160SOL    HW165377   2.004  14.094   0.329
21160SOL    HW265378   2.105  14.207   0.331
21161SOL     OW65379   5.039   4.892   5.807
21161SOL    HW165380   5.059   4.983   5.784
21161SOL    HW265381   4.970   4.867   5.745
21162SOL     OW65382   8.354   2.046   0.567
21162SOL    HW165383   8.303   1.971   0.597
21162SOL    HW265384   8.445   2.015   0.568
21163SOL     OW65385  11.701  14.329   0.295
21163SOL    HW165386  11.704  14.376   0.212
21163SOL    HW265387  11.740  14.389   0.358
21164SOL     OW65388   6.886   3.679   0.682
21164SOL    HW165389   6.954   3.744   0.666
21164SOL    HW265390   6.920   3.598   0.643
21165SOL     OW65391  11.408   6.792   3.619
21165SOL    HW165392  11.445   6.878   3.638
21165SOL    HW265393  11.474   6.748   3.566
21166SOL     OW65394  10.045   1.281   6.720
21166SOL    HW165395  10.031   1.293   6.626
21166SOL    HW265396  10.084   1.194   6.728
21167SOL     OW65397   6.926   4.647   0.801
21167SOL    HW165398   6.893   4.737   0.813
21167SOL    HW265399   6.932   4.636   0.706
21168SOL     OW65400   8.301   9.311   9.566
21168SOL    HW165401   8.304   9.406   9.550
21168SOL    HW265402   8.214   9.295   9.602
21169SOL     OW65403   3.296  10.372   9.579
21169SOL    HW165404   3.311  10.368   9.484
21169SOL    HW265405   3.383  10.376   9.617
21170SOL     OW65406   2.635  10.807   9.158
21170SOL    HW165407   2.600  10.742   9.098
21170SOL    HW265408   2.608  10.777   9.245
21171SOL     OW65409  12.591   8.993   3.947
21171SOL    HW165410  12.644   8.931   3.997
21171SOL    HW265411  12.532   8.939   3.895
21172SOL     OW65412  10.450  13.399   6.151
21172SOL    HW165413  10.491  13.485   6.154
21172SOL    HW265414  10.356  13.418   6.147
21173SOL     OW65415   6.332   5.042   1.224
21173SOL    HW165416   6.323   5.019   1.317
21173SOL    HW265417   6.427   5.044   1.209
21174SOL     OW65418   1.514   0.686   4.517
21174SOL    HW165419   1.437   0.722   4.562
21174SOL    HW265420   1.581   0.678   4.585
21175SOL     OW65421   9.738   9.787  11.410
21175SOL    HW165422   9.660   9.744  11.374
21175SOL    HW265423   9.795   9.714  11.434
21176SOL     OW65424  12.072   1.722   8.414
21176SOL    HW165425  12.054   1.782   8.486
21176SOL    HW265426  12.054   1.635   8.450
21177SOL     OW65427   9.833   3.814   1.964
21177SOL    HW165428   9.812   3.907   1.970
21177SOL    HW265429   9.760   3.770   2.007
21178SOL     OW65430   5.852   6.494  12.571
21178SOL    HW165431   5.934   6.484  12.618
21178SOL    HW265432   5.848   6.418  12.512
21179SOL     OW65433   6.081   7.022   8.520
21179SOL    HW165434   6.071   7.012   8.425
21179SOL    HW265435   6.110   7.113   8.531
21180SOL     OW65436  13.814   6.367   9.885
21180SOL    HW165437  13.835   6.282   9.923
21180SOL    HW265438  13.898   6.414   9.885
21181SOL     OW65439   1.837   4.636   8.642
21181SOL    HW165440   1.795   4.556   8.610
21181SOL    HW265441   1.913   4.648   8.585
21182SOL     OW65442   3.086   0.250   3.111
21182SOL    HW165443   3.102   0.271   3.203
21182SOL    HW265444   3.088   0.154   3.109
21183SOL     OW65445   4.665  14.704  11.641
21183SOL    HW165446   4.611  14.630  11.668
21183SOL    HW265447   4.701  14.678  11.556
21184SOL     OW65448   8.847   6.134  12.268
21184SOL    HW165449   8.925   6.151  12.321
21184SOL    HW265450   8.819   6.220  12.237
21185SOL     OW65451   9.051   6.961  12.028
21185SOL    HW165452   9.040   6.910  11.947
21185SOL    HW265453   9.055   7.052  11.998
21186SOL     OW65454   1.393   6.711  14.614
21186SOL    HW165455   1.333   6.727  14.687
21186SOL    HW265456   1.347   6.748  14.538
21187SOL     OW65457   9.374   0.048   4.937
21187SOL    HW165458   9.361   0.046   5.032
21187SOL    HW265459   9.356  14.834   4.909
21188SOL     OW65460   7.064   3.246  10.664
21188SOL    HW165461   7.087   3.208  10.579
21188SOL    HW265462   7.046   3.171  10.720
21189SOL     OW65463  13.019   8.220  10.078
21189SOL    HW165464  13.015   8.190   9.987
21189SOL    HW265465  12.987   8.145  10.128
21190SOL     OW65466  10.438   7.883   6.760
21190SOL    HW165467  10.426   7.914   6.849
21190SOL    HW265468  10.351   7.853   6.734
21191SOL     OW65469   2.982   1.497   0.458
21191SOL    HW165470   3.073   1.470   0.460
21191SOL    HW265471   2.944   1.448   0.384
21192SOL     OW65472   9.937   5.826   0.009
21192SOL    HW165473   9.966   5.840   0.099
21192SOL    HW265474  10.018   5.817  14.833
21193SOL     OW65475   3.117  14.851   0.905
21193SOL    HW165476   3.157   0.036   0.968
21193SOL    HW265477   3.129  14.765   0.944
21194SOL     OW65478   1.311   2.060  12.949
21194SOL    HW165479   1.354   2.085  12.867
21194SOL    HW265480   1.226   2.024  12.921
21195SOL     OW65481   5.725  11.146   8.623
21195SOL    HW165482   5.797  11.145   8.686
21195SOL    HW265483   5.743  11.223   8.568
21196SOL     OW65484   8.040   1.147   6.858
21196SOL    HW165485   8.105   1.203   6.816
21196SOL    HW265486   7.992   1.206   6.917
21197SOL     OW65487   7.001   5.005  13.218
21197SOL    HW165488   6.954   5.026  13.138
21197SOL    HW265489   7.091   4.988  13.189
21198SOL     OW65490   3.349  12.709  14.846
21198SOL    HW165491   3.444  12.707  14.854
21198SOL    HW265492   3.327  12.625  14.804
21199SOL     OW65493   6.970   0.310   9.313
21199SOL    HW165494   6.929   0.266   9.238
21199SOL    HW265495   7.052   0.264   9.327
21200SOL     OW65496   1.273   1.341  11.657
21200SOL    HW165497   1.277   1.403  11.584
21200SOL    HW265498   1.348   1.283  11.643
21201SOL     OW65499  12.327   0.659   5.891
21201SOL    HW165500  12.378   0.608   5.828
21201SOL    HW265501  12.363   0.747   5.885
21202SOL     OW65502   7.757   8.634  13.775
21202SOL    HW165503   7.737   8.689  13.699
21202SOL    HW265504   7.744   8.544  13.744
21203SOL     OW65505   2.320   5.740   8.986
21203SOL    HW165506   2.376   5.698   8.920
21203SOL    HW265507   2.240   5.688   8.986
21204SOL     OW65508  11.743   0.415   8.636
21204SOL    HW165509  11.805   0.485   8.616
21204SOL    HW265510  11.770   0.383   8.722
21205SOL     OW65511   4.488   0.189   2.996
21205SOL    HW165512   4.538   0.134   3.057
21205SOL    HW265513   4.436   0.246   3.053
21206SOL     OW65514   7.719   9.211  10.788
21206SOL    HW165515   7.632   9.240  10.763
21206SOL    HW265516   7.778   9.280  10.757
21207SOL     OW65517   5.847   6.146   5.769
21207SOL    HW165518   5.811   6.138   5.680
21207SOL    HW265519   5.891   6.062   5.785
21208SOL     OW65520   0.643   4.340   1.870
21208SOL    HW165521   0.592   4.409   1.828
21208SOL    HW265522   0.646   4.365   1.962
21209SOL     OW65523  10.622  10.981   1.563
21209SOL    HW165524  10.680  11.032   1.506
21209SOL    HW265525  10.546  11.037   1.577
21210SOL     OW65526  11.659   8.030   2.796
21210SOL    HW165527  11.604   7.990   2.863
21210SOL    HW265528  11.642   8.124   2.804
21211SOL     OW65529   3.000  14.337   8.458
21211SOL    HW165530   2.942  14.263   8.437
21211SOL    HW265531   2.946  14.415   8.442
21212SOL     OW65532  11.988   0.821   2.030
21212SOL    HW165533  12.020   0.875   2.102
21212SOL    HW265534  12.066   0.802   1.978
21213SOL     OW65535   0.322   6.962   7.580
21213SOL    HW165536   0.362   6.951   7.494
21213SOL    HW265537   0.258   6.891   7.586
21214SOL     OW65538  11.262   6.538  12.166
21214SOL    HW165539  11.231   6.448  12.160
21214SOL    HW265540  11.320   6.549  12.090
21215SOL     OW65541   4.320  11.886  11.497
21215SOL    HW165542   4.278  11.806  11.526
21215SOL    HW265543   4.259  11.924  11.434
21216SOL     OW65544  10.632   5.655   2.245
21216SOL    HW165545  10.562   5.693   2.192
21216SOL    HW265546  10.676   5.593   2.187
21217SOL     OW65547   0.909  12.901   1.911
21217SOL    HW165548   0.944  12.826   1.958
21217SOL    HW265549   0.887  12.867   1.824
21218SOL     OW65550   1.415   3.099   9.373
21218SOL    HW165551   1.433   3.143   9.290
21218SOL    HW265552   1.370   3.018   9.347
21219SOL     OW65553   4.051   3.192   4.424
21219SOL    HW165554   4.131   3.151   4.393
21219SOL    HW265555   4.042   3.271   4.371
21220SOL     OW65556   8.235  11.242  13.943
21220SOL    HW165557   8.298  11.293  13.891
21220SOL    HW265558   8.254  11.267  14.034
21221SOL     OW65559   0.252   2.664   0.856
21221SOL    HW165560   0.299   2.702   0.781
21221SOL    HW265561   0.321   2.641   0.918
21222SOL     OW65562   8.054   7.457  14.742
21222SOL    HW165563   7.975   7.403  14.748
21222SOL    HW265564   8.037   7.516  14.668
21223SOL     OW65565   2.603  10.683   8.649
21223SOL    HW165566   2.563  10.700   8.564
21223SOL    HW265567   2.697  10.680   8.632
21224SOL     OW65568   7.460  13.634  12.592
21224SOL    HW165569   7.374  13.601  12.565
21224SOL    HW265570   7.493  13.567  12.651
21225SOL     OW65571   7.670   8.245   1.559
21225SOL    HW165572   7.720   8.183   1.613
21225SOL    HW265573   7.587   8.256   1.605
21226SOL     OW65574  12.127   3.159   4.883
21226SOL    HW165575  12.066   3.226   4.914
21226SOL    HW265576  12.181   3.203   4.818
21227SOL     OW65577   0.724   4.411  12.729
21227SOL    HW165578   0.632   4.389  12.717
21227SOL    HW265579   0.762   4.406  12.641
21228SOL     OW65580   5.660  14.380  10.096
21228SOL    HW165581   5.585  14.398  10.153
21228SOL    HW265582   5.696  14.298  10.128
21229SOL     OW65583   5.407   0.130   0.163
21229SOL    HW165584   5.414   0.045   0.206
21229SOL    HW265585   5.493   0.146   0.124
21230SOL     OW65586  14.122   1.542   7.773
21230SOL    HW165587  14.199   1.561   7.719
21230SOL    HW265588  14.096   1.627   7.809
21231SOL     OW65589   2.623   4.097   7.916
21231SOL    HW165590   2.593   4.187   7.897
21231SOL    HW265591   2.555   4.042   7.877
21232SOL     OW65592   6.876   7.647   2.403
21232SOL    HW165593   6.831   7.724   2.437
21232SOL    HW265594   6.846   7.575   2.459
21233SOL     OW65595   9.051   2.136   8.351
21233SOL    HW165596   9.069   2.164   8.441
21233SOL    HW265597   9.060   2.041   8.353
21234SOL     OW65598   5.787   9.179  13.313
21234SOL    HW165599   5.846   9.244  13.351
21234SOL    HW265600   5.844   9.125  13.258
21235SOL     OW65601   6.846   4.910  11.769
21235SOL    HW165602   6.909   4.839  11.764
21235SOL    HW265603   6.789   4.897  11.693
21236SOL     OW65604   0.760  10.614  14.063
21236SOL    HW165605   0.667  10.594  14.069
21236SOL    HW265606   0.766  10.709  14.073
21237SOL     OW65607  11.983   1.295   4.657
21237SOL    HW165608  12.021   1.382   4.642
21237SOL    HW265609  12.058   1.237   4.664
21238SOL     OW65610  11.191  11.263   0.500
21238SOL    HW165611  11.239  11.252   0.583
21238SOL    HW265612  11.252  11.231   0.433
21239SOL     OW65613   7.990   1.690   1.033
21239SOL    HW165614   8.005   1.706   1.126
21239SOL    HW265615   8.021   1.770   0.990
21240SOL     OW65616   2.582  13.488  13.277
21240SOL    HW165617   2.554  13.463  13.189
21240SOL    HW265618   2.582  13.406  13.327
21241SOL     OW65619   4.464  10.984   5.448
21241SOL    HW165620   4.397  10.992   5.516
21241SOL    HW265621   4.489  10.891   5.450
21242SOL     OW65622   4.061   9.785   6.951
21242SOL    HW165623   4.076   9.725   7.024
21242SOL    HW265624   4.134   9.847   6.956
21243SOL     OW65625   8.534  13.952   6.358
21243SOL    HW165626   8.486  13.981   6.436
21243SOL    HW265627   8.626  13.968   6.378
21244SOL     OW65628   4.387   4.685  14.045
21244SOL    HW165629   4.325   4.631  14.094
21244SOL    HW265630   4.473   4.659  14.078
21245SOL     OW65631   3.432   6.191   9.830
21245SOL    HW165632   3.516   6.224   9.798
21245SOL    HW265633   3.381   6.270   9.849
21246SOL     OW65634  12.032   0.984   8.050
21246SOL    HW165635  12.087   0.906   8.040
21246SOL    HW265636  11.963   0.957   8.111
21247SOL     OW65637   9.261   7.319   5.421
21247SOL    HW165638   9.308   7.390   5.464
21247SOL    HW265639   9.329   7.269   5.376
21248SOL     OW65640   4.341  14.122   4.405
21248SOL    HW165641   4.386  14.110   4.489
21248SOL    HW265642   4.256  14.159   4.429
21249SOL     OW65643   7.889  10.094   8.667
21249SOL    HW165644   7.974  10.133   8.685
21249SOL    HW265645   7.908  10.018   8.612
21250SOL     OW65646   4.014   3.260  10.516
21250SOL    HW165647   4.088   3.287  10.461
21250SOL    HW265648   4.047   3.185  10.566
21251SOL     OW65649  10.734   4.904  14.463
21251SOL    HW165650  10.785   4.828  14.437
21251SOL    HW265651  10.799   4.973  14.478
21252SOL     OW65652   5.896   1.266  11.049
21252SOL    HW165653   5.934   1.323  10.982
21252SOL    HW265654   5.806   1.251  11.020
21253SOL     OW65655  11.054   5.105  12.935
21253SOL    HW165656  11.042   5.120  12.841
21253SOL    HW265657  10.972   5.132  12.974
21254SOL     OW65658  12.602   7.080   1.889
21254SOL    HW165659  12.646   6.996   1.887
21254SOL    HW265660  12.658   7.135   1.944
21255SOL     OW65661   9.838  10.795   1.688
21255SOL    HW165662   9.755  10.832   1.719
21255SOL    HW265663   9.846  10.828   1.598
21256SOL     OW65664   0.512   0.590   4.917
21256SOL    HW165665   0.575   0.518   4.919
21256SOL    HW265666   0.437   0.555   4.868
21257SOL     OW65667   9.637   9.722   0.471
21257SOL    HW165668   9.654   9.738   0.379
21257SOL    HW265669   9.685   9.642   0.491
21258SOL     OW65670   0.856   7.642   3.410
21258SOL    HW165671   0.921   7.576   3.435
21258SOL    HW265672   0.865   7.650   3.315
21259SOL     OW65673  13.864  11.945   2.845
21259SOL    HW165674  13.884  12.038   2.839
21259SOL    HW265675  13.860  11.916   2.753
21260SOL     OW65676  13.958   1.509   5.445
21260SOL    HW165677  13.978   1.424   5.484
21260SOL    HW265678  14.044   1.548   5.427
21261SOL     OW65679   9.139  14.813   8.400
21261SOL    HW165680   9.218  14.867   8.411
21261SOL    HW265681   9.067  14.872   8.421
21262SOL     OW65682   6.482  14.369   5.146
21262SOL    HW165683   6.557  14.385   5.203
21262SOL    HW265684   6.474  14.449   5.094
21263SOL     OW65685  14.153   6.303   0.763
21263SOL    HW165686  14.153   6.279   0.856
21263SOL    HW265687  14.194   6.390   0.761
21264SOL     OW65688  11.010  10.167   1.610
21264SOL    HW165689  11.029  10.144   1.701
21264SOL    HW265690  11.012  10.083   1.564
21265SOL     OW65691   7.439  11.836   6.563
21265SOL    HW165692   7.475  11.777   6.497
21265SOL    HW265693   7.467  11.923   6.535
21266SOL     OW65694   6.567  10.768   9.299
21266SOL    HW165695   6.652  10.760   9.256
21266SOL    HW265696   6.514  10.698   9.261
21267SOL     OW65697   9.191   9.670   1.875
21267SOL    HW165698   9.118   9.617   1.908
21267SOL    HW265699   9.260   9.608   1.855
21268SOL     OW65700  13.540   8.180   9.170
21268SOL    HW165701  13.613   8.137   9.214
21268SOL    HW265702  13.485   8.108   9.139
21269SOL     OW65703  10.644   0.441   8.852
21269SOL    HW165704  10.575   0.499   8.820
21269SOL    HW265705  10.716   0.499   8.875
21270SOL     OW65706   6.275  13.825   3.545
21270SOL    HW165707   6.345  13.788   3.491
21270SOL    HW265708   6.195  13.785   3.512
21271SOL     OW65709   8.174   4.235   0.532
21271SOL    HW165710   8.233   4.213   0.459
21271SOL    HW265711   8.116   4.302   0.497
21272SOL     OW65712  11.151   6.318   1.952
21272SOL    HW165713  11.067   6.303   1.994
21272SOL    HW265714  11.156   6.252   1.882
21273SOL     OW65715   8.444  13.198   9.175
21273SOL    HW165716   8.434  13.222   9.267
21273SOL    HW265717   8.438  13.102   9.174
21274SOL     OW65718  10.616   6.323   3.461
21274SOL    HW165719  10.553   6.257   3.430
21274SOL    HW265720  10.646   6.366   3.382
21275SOL     OW65721  10.489   1.681   9.232
21275SOL    HW165722  10.396   1.669   9.254
21275SOL    HW265723  10.519   1.593   9.209
21276SOL     OW65724   2.484  14.059   5.080
21276SOL    HW165725   2.576  14.035   5.068
21276SOL    HW265726   2.438  13.975   5.083
21277SOL     OW65727   1.910   2.820   3.455
21277SOL    HW165728   1.886   2.851   3.368
21277SOL    HW265729   1.830   2.778   3.488
21278SOL     OW65730   6.911  14.407  11.391
21278SOL    HW165731   6.859  14.329  11.410
21278SOL    HW265732   6.929  14.445  11.477
21279SOL     OW65733  12.113   3.248   8.654
21279SOL    HW165734  12.118   3.289   8.740
21279SOL    HW265735  12.187   3.186   8.653
21280SOL     OW65736  10.763   3.882  10.524
21280SOL    HW165737  10.733   3.846  10.607
21280SOL    HW265738  10.857   3.862  10.522
21281SOL     OW65739   0.199  10.832  14.756
21281SOL    HW165740   0.232  10.916  14.722
21281SOL    HW265741   0.105  10.845  14.765
21282SOL     OW65742   7.031   8.871   4.269
21282SOL    HW165743   7.018   8.779   4.245
21282SOL    HW265744   7.111   8.872   4.320
21283SOL     OW65745   4.526   6.914  10.605
21283SOL    HW165746   4.559   6.843  10.660
21283SOL    HW265747   4.468   6.965  10.662
21284SOL     OW65748   3.850  10.708  10.438
21284SOL    HW165749   3.836  10.696  10.344
21284SOL    HW265750   3.766  10.739  10.471
21285SOL     OW65751   9.030   6.864   5.911
21285SOL    HW165752   9.060   6.906   5.831
21285SOL    HW265753   8.969   6.797   5.881
21286SOL     OW65754   3.792   0.199   8.432
21286SOL    HW165755   3.864   0.186   8.370
21286SOL    HW265756   3.767   0.111   8.458
21287SOL     OW65757  13.076  13.340  10.019
21287SOL    HW165758  12.992  13.331  10.064
21287SOL    HW265759  13.125  13.261  10.044
21288SOL     OW65760   5.280   3.942   7.632
21288SOL    HW165761   5.345   3.974   7.570
21288SOL    HW265762   5.321   3.954   7.718
21289SOL     OW65763   1.741  10.953   2.330
21289SOL    HW165764   1.741  10.948   2.426
21289SOL    HW265765   1.658  10.995   2.308
21290SOL     OW65766   6.884   2.230   6.210
21290SOL    HW165767   6.927   2.162   6.262
21290SOL    HW265768   6.916   2.218   6.121
21291SOL     OW65769   9.718   1.037  13.268
21291SOL    HW165770   9.661   0.967  13.237
21291SOL    HW265771   9.804   1.016  13.231
21292SOL     OW65772  14.358   2.754   1.793
21292SOL    HW165773  14.379   2.667   1.760
21292SOL    HW265774  14.409   2.762   1.873
21293SOL     OW65775   3.874   3.049  10.305
21293SOL    HW165776   3.810   3.071  10.372
21293SOL    HW265777   3.933   2.986  10.347
21294SOL     OW65778   3.413   4.837   0.641
21294SOL    HW165779   3.507   4.835   0.624
21294SOL    HW265780   3.394   4.929   0.659
21295SOL     OW65781  12.638   0.305   9.093
21295SOL    HW165782  12.666   0.333   9.180
21295SOL    HW265783  12.718   0.275   9.050
21296SOL     OW65784   1.736   3.652  10.042
21296SOL    HW165785   1.713   3.725   9.985
21296SOL    HW265786   1.672   3.658  10.114
21297SOL     OW65787  11.521   7.350   1.339
21297SOL    HW165788  11.589   7.333   1.274
21297SOL    HW265789  11.491   7.439   1.321
21298SOL     OW65790   2.009   4.286   3.069
21298SOL    HW165791   1.995   4.263   3.161
21298SOL    HW265792   2.099   4.319   3.066
21299SOL     OW65793  11.242   0.342   9.067
21299SOL    HW165794  11.153   0.331   9.034
21299SOL    HW265795  11.231   0.356   9.161
21300SOL     OW65796   5.570   4.227  13.637
21300SOL    HW165797   5.605   4.163  13.698
21300SOL    HW265798   5.609   4.310  13.664
21301SOL     OW65799   4.376   8.360   5.352
21301SOL    HW165800   4.470   8.342   5.353
21301SOL    HW265801   4.338   8.294   5.411
21302SOL     OW65802  13.147   5.158   9.057
21302SOL    HW165803  13.155   5.181   8.964
21302SOL    HW265804  13.071   5.100   9.060
21303SOL     OW65805   2.961   5.986   2.973
21303SOL    HW165806   2.925   5.969   3.060
21303SOL    HW265807   3.028   5.919   2.960
21304SOL     OW65808  11.476   3.884   1.830
21304SOL    HW165809  11.401   3.825   1.819
21304SOL    HW265810  11.552   3.829   1.813
21305SOL     OW65811  11.434   6.780   3.198
21305SOL    HW165812  11.438   6.688   3.174
21305SOL    HW265813  11.351   6.811   3.162
21306SOL     OW65814   0.554   7.638  12.488
21306SOL    HW165815   0.625   7.612  12.547
21306SOL    HW265816   0.578   7.600  12.403
21307SOL     OW65817  10.003  11.238  14.768
21307SOL    HW165818  10.071  11.208  14.708
21307SOL    HW265819   9.921  11.219  14.723
21308SOL     OW65820   3.344   9.893   0.841
21308SOL    HW165821   3.398   9.856   0.771
21308SOL    HW265822   3.254   9.871   0.815
21309SOL     OW65823   9.633   7.608   1.777
21309SOL    HW165824   9.588   7.690   1.756
21309SOL    HW265825   9.565   7.550   1.809
21310SOL     OW65826   7.475   8.503   0.553
21310SOL    HW165827   7.406   8.503   0.619
21310SOL    HW265828   7.546   8.452   0.592
21311SOL     OW65829   8.897  13.614   4.548
21311SOL    HW165830   8.905  13.520   4.566
21311SOL    HW265831   8.818  13.640   4.596
21312SOL     OW65832   8.953   9.711   3.168
21312SOL    HW165833   8.973   9.803   3.188
21312SOL    HW265834   8.863   9.700   3.196
21313SOL     OW65835   1.916   2.778   5.047
21313SOL    HW165836   1.942   2.739   5.130
21313SOL    HW265837   1.997   2.814   5.010
21314SOL     OW65838   5.120   3.834   9.304
21314SOL    HW165839   5.186   3.894   9.270
21314SOL    HW265840   5.165   3.750   9.311
21315SOL     OW65841   4.019   1.089   2.540
21315SOL    HW165842   4.076   1.012   2.536
21315SOL    HW265843   3.991   1.093   2.632
21316SOL     OW65844   5.436   6.325   9.294
21316SOL    HW165845   5.424   6.331   9.200
21316SOL    HW265846   5.372   6.259   9.322
21317SOL     OW65847   3.228  10.197   2.662
21317SOL    HW165848   3.295  10.157   2.718
21317SOL    HW265849   3.276  10.229   2.586
21318SOL     OW65850   2.542   9.580  10.024
21318SOL    HW165851   2.540   9.646  10.094
21318SOL    HW265852   2.471   9.520  10.046
21319SOL     OW65853   3.753   4.619   2.423
21319SOL    HW165854   3.844   4.590   2.422
21319SOL    HW265855   3.703   4.538   2.430
21320SOL     OW65856  14.094   1.692  13.784
21320SOL    HW165857  14.134   1.778  13.792
21320SOL    HW265858  14.135   1.652  13.708
21321SOL     OW65859   3.803   3.140   4.527
21321SOL    HW165860   3.805   3.234   4.547
21321SOL    HW265861   3.876   3.127   4.466
21322SOL     OW65862   5.379   4.262   0.062
21322SOL    HW165863   5.342   4.282   0.148
21322SOL    HW265864   5.339   4.179   0.037
21323SOL     OW65865   2.709   9.614   7.614
21323SOL    HW165866   2.714   9.615   7.709
21323SOL    HW265867   2.734   9.525   7.589
21324SOL     OW65868   5.511  12.075  10.171
21324SOL    HW165869   5.535  12.104  10.259
21324SOL    HW265870   5.495  11.981  10.181
21325SOL     OW65871   8.395  11.957   0.783
21325SOL    HW165872   8.400  11.951   0.688
21325SOL    HW265873   8.458  12.025   0.806
21326SOL     OW65874   8.366   6.013   8.905
21326SOL    HW165875   8.448   5.964   8.912
21326SOL    HW265876   8.304   5.965   8.959
21327SOL     OW65877   1.667   4.006   7.522
21327SOL    HW165878   1.620   3.953   7.457
21327SOL    HW265879   1.684   3.945   7.594
21328SOL     OW65880   6.595  12.572   4.168
21328SOL    HW165881   6.649  12.493   4.173
21328SOL    HW265882   6.618  12.613   4.085
21329SOL     OW65883  13.279   7.838   0.463
21329SOL    HW165884  13.216   7.907   0.439
21329SOL    HW265885  13.335   7.828   0.386
21330SOL     OW65886  13.066   0.447   3.177
21330SOL    HW165887  13.052   0.530   3.131
21330SOL    HW265888  13.158   0.449   3.203
21331SOL     OW65889   2.316  13.158   1.295
21331SOL    HW165890   2.253  13.121   1.234
21331SOL    HW265891   2.359  13.083   1.335
21332SOL     OW65892  12.458   5.572   1.724
21332SOL    HW165893  12.413   5.655   1.705
21332SOL    HW265894  12.470   5.531   1.638
21333SOL     OW65895   9.770   7.614   7.190
21333SOL    HW165896   9.823   7.535   7.178
21333SOL    HW265897   9.692   7.600   7.137
21334SOL     OW65898   3.754   1.338   0.017
21334SOL    HW165899   3.719   1.332  14.803
21334SOL    HW265900   3.848   1.332   0.007
21335SOL     OW65901   0.724   3.709   2.114
21335SOL    HW165902   0.738   3.624   2.073
21335SOL    HW265903   0.645   3.697   2.168
21336SOL     OW65904   4.618  11.781   8.283
21336SOL    HW165905   4.670  11.758   8.207
21336SOL    HW265906   4.550  11.840   8.250
21337SOL     OW65907   5.816   9.471   6.028
21337SOL    HW165908   5.810   9.385   5.988
21337SOL    HW265909   5.737   9.517   6.000
21338SOL     OW65910   6.341   0.266   6.276
21338SOL    HW165911   6.288   0.248   6.198
21338SOL    HW265912   6.431   0.256   6.247
21339SOL     OW65913   3.981   0.831   2.220
21339SOL    HW165914   3.984   0.759   2.283
21339SOL    HW265915   3.971   0.787   2.135
21340SOL     OW65916   4.709   6.543  11.332
21340SOL    HW165917   4.633   6.548  11.275
21340SOL    HW265918   4.764   6.475  11.293
21341SOL     OW65919  11.580  13.391  10.643
21341SOL    HW165920  11.535  13.310  10.619
21341SOL    HW265921  11.584  13.389  10.739
21342SOL     OW65922   6.491  12.392   5.714
21342SOL    HW165923   6.504  12.297   5.715
21342SOL    HW265924   6.479  12.415   5.806
21343SOL     OW65925  13.656   2.139  11.445
21343SOL    HW165926  13.576   2.129  11.496
21343SOL    HW265927  13.725   2.108  11.502
21344SOL     OW65928   6.317   3.132   2.525
21344SOL    HW165929   6.332   3.158   2.434
21344SOL    HW265930   6.299   3.038   2.520
21345SOL     OW65931   8.469  11.029  13.943
21345SOL    HW165932   8.542  11.075  13.985
21345SOL    HW265933   8.390  11.068  13.981
21346SOL     OW65934   6.860  13.877   3.652
21346SOL    HW165935   6.789  13.938   3.632
21346SOL    HW265936   6.873  13.829   3.570
21347SOL     OW65937   3.345   8.949  11.141
21347SOL    HW165938   3.332   8.862  11.103
21347SOL    HW265939   3.278   9.004  11.100
21348SOL     OW65940   4.846   0.495  13.197
21348SOL    HW165941   4.821   0.530  13.283
21348SOL    HW265942   4.867   0.404  13.213
21349SOL     OW65943  11.629   7.550  13.872
21349SOL    HW165944  11.554   7.529  13.927
21349SOL    HW265945  11.622   7.491  13.798
21350SOL     OW65946   4.730   7.150   6.269
21350SOL    HW165947   4.740   7.171   6.176
21350SOL    HW265948   4.776   7.221   6.314
21351SOL     OW65949   5.556   2.160  13.409
21351SOL    HW165950   5.564   2.254  13.428
21351SOL    HW265951   5.494   2.128  13.476
21352SOL     OW65952   4.121   1.627  10.387
21352SOL    HW165953   4.105   1.621  10.482
21352SOL    HW265954   4.132   1.536  10.359
21353SOL     OW65955   6.775   4.020   5.550
21353SOL    HW165956   6.787   4.111   5.577
21353SOL    HW265957   6.707   4.024   5.483
21354SOL     OW65958   7.243   6.402  13.337
21354SOL    HW165959   7.238   6.339  13.408
21354SOL    HW265960   7.336   6.408  13.316
21355SOL     OW65961   5.006   2.889   9.712
21355SOL    HW165962   5.099   2.876   9.692
21355SOL    HW265963   4.997   2.983   9.724
21356SOL     OW65964  11.437   2.541   6.496
21356SOL    HW165965  11.372   2.475   6.520
21356SOL    HW265966  11.397   2.588   6.422
21357SOL     OW65967   4.276   0.498  13.077
21357SOL    HW165968   4.252   0.446  13.000
21357SOL    HW265969   4.196   0.547  13.098
21358SOL     OW65970   6.115   0.110  13.806
21358SOL    HW165971   6.178   0.054  13.852
21358SOL    HW265972   6.031   0.088  13.845
21359SOL     OW65973   2.827   7.474  13.344
21359SOL    HW165974   2.853   7.542  13.281
21359SOL    HW265975   2.803   7.523  13.423
21360SOL     OW65976   2.941  11.279   5.285
21360SOL    HW165977   2.871  11.316   5.339
21360SOL    HW265978   2.975  11.354   5.236
21361SOL     OW65979   5.472   0.927   0.753
21361SOL    HW165980   5.486   0.840   0.717
21361SOL    HW265981   5.485   0.917   0.848
21362SOL     OW65982  12.472   1.431   1.794
21362SOL    HW165983  12.495   1.340   1.810
21362SOL    HW265984  12.502   1.478   1.872
21363SOL     OW65985   3.637   0.548   4.769
21363SOL    HW165986   3.609   0.633   4.735
21363SOL    HW265987   3.560   0.513   4.813
21364SOL     OW65988   8.376  10.605   7.677
21364SOL    HW165989   8.406  10.677   7.621
21364SOL    HW265990   8.432  10.609   7.754
21365SOL     OW65991   0.249   0.280  11.584
21365SOL    HW165992   0.234   0.369  11.617
21365SOL    HW265993   0.291   0.294  11.499
21366SOL     OW65994  10.626  12.186  14.011
21366SOL    HW165995  10.646  12.215  13.922
21366SOL    HW265996  10.672  12.248  14.067
21367SOL     OW65997   9.031  12.360   5.578
21367SOL    HW165998   9.047  12.329   5.488
21367SOL    HW265999   8.974  12.294   5.616
21368SOL     OW66000   1.509  14.775  13.448
21368SOL    HW166001   1.459  14.812  13.521
21368SOL    HW266002   1.559  14.848  13.414
21369SOL     OW66003  11.706   3.119  10.327
21369SOL    HW166004  11.644   3.187  10.352
21369SOL    HW266005  11.783   3.136  10.382
21370SOL     OW66006   2.111  11.987  10.749
21370SOL    HW166007   2.093  12.067  10.699
21370SOL    HW266008   2.031  11.973  10.800
21371SOL     OW66009   7.060   2.089   9.683
21371SOL    HW166010   7.038   2.164   9.738
21371SOL    HW266011   7.110   2.126   9.610
21372SOL     OW66012  12.568   2.333   8.485
21372SOL    HW166013  12.541   2.350   8.395
21372SOL    HW266014  12.641   2.272   8.477
21373SOL     OW66015   7.134  11.172   5.185
21373SOL    HW166016   7.070  11.173   5.256
21373SOL    HW266017   7.113  11.249   5.132
21374SOL     OW66018   4.440  11.747   7.316
21374SOL    HW166019   4.400  11.665   7.345
21374SOL    HW266020   4.495  11.774   7.389
21375SOL     OW66021   4.121   3.340  14.768
21375SOL    HW166022   4.166   3.258  14.787
21375SOL    HW266023   4.187   3.396  14.729
21376SOL     OW66024  14.797   8.713   7.623
21376SOL    HW166025  14.874   8.731   7.676
21376SOL    HW266026  14.766   8.799   7.594
21377SOL     OW66027   8.432   0.954   2.090
21377SOL    HW166028   8.490   0.878   2.093
21377SOL    HW266029   8.483   1.020   2.042
21378SOL     OW66030   9.663  10.101  12.624
21378SOL    HW166031   9.570  10.085  12.637
21378SOL    HW266032   9.703  10.080  12.708
21379SOL     OW66033  11.744  10.017  12.144
21379SOL    HW166034  11.778  10.040  12.231
21379SOL    HW266035  11.732  10.101  12.100
21380SOL     OW66036  13.491   4.227   0.811
21380SOL    HW166037  13.508   4.304   0.757
21380SOL    HW266038  13.579   4.194   0.834
21381SOL     OW66039  14.678   7.521   9.334
21381SOL    HW166040  14.667   7.475   9.251
21381SOL    HW266041  14.611   7.483   9.391
21382SOL     OW66042   7.960   9.680   4.181
21382SOL    HW166043   7.926   9.595   4.154
21382SOL    HW266044   7.990   9.721   4.100
21383SOL     OW66045  10.947  11.498   4.906
21383SOL    HW166046  11.019  11.436   4.921
21383SOL    HW266047  10.972  11.544   4.825
21384SOL     OW66048   4.962   2.694   6.855
21384SOL    HW166049   5.022   2.620   6.858
21384SOL    HW266050   4.917   2.686   6.772
21385SOL     OW66051   0.562   5.518   5.268
21385SOL    HW166052   0.509   5.597   5.282
21385SOL    HW266053   0.620   5.541   5.195
21386SOL     OW66054   4.454   3.828  11.510
21386SOL    HW166055   4.389   3.784  11.454
21386SOL    HW266056   4.402   3.867  11.580
21387SOL     OW66057   6.748   4.726   7.396
21387SOL    HW166058   6.809   4.652   7.385
21387SOL    HW266059   6.748   4.744   7.490
21388SOL     OW66060   6.126   1.848   4.642
21388SOL    HW166061   6.151   1.940   4.652
21388SOL    HW266062   6.092   1.823   4.728
21389SOL     OW66063   5.691   2.259   4.230
21389SOL    HW166064   5.785   2.252   4.212
21389SOL    HW266065   5.686   2.286   4.322
21390SOL     OW66066   4.357   7.880   5.475
21390SOL    HW166067   4.361   7.877   5.379
21390SOL    HW266068   4.397   7.797   5.503
21391SOL     OW66069   6.053   8.049  11.041
21391SOL    HW166070   6.064   8.116  11.109
21391SOL    HW266071   6.128   7.991  11.052
21392SOL     OW66072  10.969  10.660  12.777
21392SOL    HW166073  11.058  10.625  12.777
21392SOL    HW266074  10.942  10.660  12.868
21393SOL     OW66075   2.802  12.522  14.653
21393SOL    HW166076   2.878  12.470  14.627
21393SOL    HW266077   2.831  12.570  14.731
21394SOL     OW66078   0.142   4.787   5.407
21394SOL    HW166079   0.198   4.784   5.485
21394SOL    HW266080   0.104   4.700   5.401
21395SOL     OW66081  10.678  11.732  11.172
21395SOL    HW166082  10.708  11.643  11.192
21395SOL    HW266083  10.644  11.727  11.083
21396SOL     OW66084  13.975   0.778   2.435
21396SOL    HW166085  13.891   0.763   2.478
21396SOL    HW266086  13.964   0.738   2.348
21397SOL     OW66087   2.608  13.699   2.861
21397SOL    HW166088   2.561  13.779   2.838
21397SOL    HW266089   2.539  13.633   2.871
21398SOL     OW66090  12.758   6.340   3.634
21398SOL    HW166091  12.780   6.247   3.620
21398SOL    HW266092  12.791   6.360   3.721
21399SOL     OW66093   0.057   5.527   2.507
21399SOL    HW166094  14.841   5.522   2.536
21399SOL    HW266095   0.104   5.569   2.579
21400SOL     OW66096   9.587   6.966  14.480
21400SOL    HW166097   9.520   6.898  14.492
21400SOL    HW266098   9.550   7.044  14.521
21401SOL     OW66099  12.801   7.662   9.331
21401SOL    HW166100  12.783   7.695   9.243
21401SOL    HW266101  12.714   7.646   9.368
21402SOL     OW66102   9.288   5.981   0.468
21402SOL    HW166103   9.342   6.028   0.532
21402SOL    HW266104   9.235   5.921   0.521
21403SOL     OW66105  13.578   9.772   0.320
21403SOL    HW166106  13.589   9.682   0.350
21403SOL    HW266107  13.584   9.766   0.224
21404SOL     OW66108   3.460   6.035  14.687
21404SOL    HW166109   3.513   6.018  14.609
21404SOL    HW266110   3.463   5.954  14.737
21405SOL     OW66111   8.000   6.431   2.952
21405SOL    HW166112   8.045   6.488   3.015
21405SOL    HW266113   7.948   6.372   3.007
21406SOL     OW66114  10.249   4.326  10.827
21406SOL    HW166115  10.336   4.367  10.832
21406SOL    HW266116  10.215   4.352  10.742
21407SOL     OW66117   7.619   7.580   0.612
21407SOL    HW166118   7.673   7.657   0.627
21407SOL    HW266119   7.540   7.594   0.665
21408SOL     OW66120   2.643  10.094   2.954
21408SOL    HW166121   2.717  10.131   3.002
21408SOL    HW266122   2.565  10.129   2.998
21409SOL     OW66123  14.604  12.407   8.738
21409SOL    HW166124  14.613  12.420   8.832
21409SOL    HW266125  14.679  12.353   8.714
21410SOL     OW66126   4.495  11.003  11.475
21410SOL    HW166127   4.525  11.091  11.498
21410SOL    HW266128   4.540  10.946  11.537
21411SOL     OW66129   5.411   4.930   7.487
21411SOL    HW166130   5.501   4.942   7.517
21411SOL    HW266131   5.387   4.843   7.516
21412SOL     OW66132  10.738  10.301   1.124
21412SOL    HW166133  10.787  10.239   1.178
21412SOL    HW266134  10.728  10.258   1.039
21413SOL     OW66135   1.134   4.580  14.128
21413SOL    HW166136   1.138   4.648  14.195
21413SOL    HW266137   1.079   4.617  14.059
21414SOL     OW66138   3.314   9.464   5.108
21414SOL    HW166139   3.279   9.539   5.060
21414SOL    HW266140   3.364   9.503   5.180
21415SOL     OW66141  14.782   9.853   4.618
21415SOL    HW166142  14.872   9.840   4.589
21415SOL    HW266143  14.729   9.840   4.540
21416SOL     OW66144  13.502   7.331   3.702
21416SOL    HW166145  13.483   7.250   3.748
21416SOL    HW266146  13.449   7.397   3.747
21417SOL     OW66147   5.707   8.546  10.101
21417SOL    HW166148   5.689   8.568  10.193
21417SOL    HW266149   5.620   8.541  10.061
21418SOL     OW66150   8.746   8.158   9.107
21418SOL    HW166151   8.706   8.165   9.194
21418SOL    HW266152   8.708   8.078   9.070
21419SOL     OW66153   5.109  10.322   7.177
21419SOL    HW166154   5.139  10.395   7.230
21419SOL    HW266155   5.025  10.351   7.141
21420SOL     OW66156   4.989   6.553  12.692
21420SOL    HW166157   4.999   6.643  12.662
21420SOL    HW266158   4.953   6.506  12.617
21421SOL     OW66159   4.840   1.456   0.288
21421SOL    HW166160   4.850   1.395   0.360
21421SOL    HW266161   4.788   1.528   0.324
21422SOL     OW66162   3.686  10.805   2.453
21422SOL    HW166163   3.722  10.893   2.440
21422SOL    HW266164   3.695  10.789   2.547
21423SOL     OW66165   4.731   6.342  11.627
21423SOL    HW166166   4.660   6.297  11.581
21423SOL    HW266167   4.712   6.435  11.616
21424SOL     OW66168   5.148   0.423  10.589
21424SOL    HW166169   5.104   0.485  10.531
21424SOL    HW266170   5.184   0.477  10.659
21425SOL     OW66171  11.883   3.802  13.953
21425SOL    HW166172  11.910   3.710  13.961
21425SOL    HW266173  11.790   3.801  13.974
21426SOL     OW66174   5.500   9.017   4.069
21426SOL    HW166175   5.473   9.108   4.068
21426SOL    HW266176   5.443   8.975   4.133
21427SOL     OW66177  14.043  13.112  14.246
21427SOL    HW166178  14.039  13.200  14.210
21427SOL    HW266179  14.126  13.077  14.215
21428SOL     OW66180  14.749   9.229   0.781
21428SOL    HW166181  14.707   9.212   0.866
21428SOL    HW266182  14.706   9.308   0.749
21429SOL     OW66183   6.346  13.353  14.463
21429SOL    HW166184   6.329  13.271  14.510
21429SOL    HW266185   6.265  13.369  14.414
21430SOL     OW66186   9.194   9.761  12.612
21430SOL    HW166187   9.187   9.693  12.679
21430SOL    HW266188   9.106   9.798  12.606
21431SOL     OW66189   5.277   6.394  12.567
21431SOL    HW166190   5.249   6.453  12.637
21431SOL    HW266191   5.247   6.307  12.595
21432SOL     OW66192  10.510   1.641   2.294
21432SOL    HW166193  10.497   1.552   2.259
21432SOL    HW266194  10.450   1.695   2.243
21433SOL     OW66195   5.631   4.729   8.129
21433SOL    HW166196   5.726   4.715   8.121
21433SOL    HW266197   5.615   4.728   8.223
21434SOL     OW66198  10.102   2.502   5.092
21434SOL    HW166199  10.082   2.484   5.000
21434SOL    HW266200  10.017   2.509   5.134
21435SOL     OW66201   4.932  12.188  11.635
21435SOL    HW166202   4.897  12.184  11.724
21435SOL    HW266203   4.862  12.229  11.584
21436SOL     OW66204   7.995  13.446  11.972
21436SOL    HW166205   7.952  13.362  11.957
21436SOL    HW266206   8.058  13.428  12.042
21437SOL     OW66207  11.825  12.785   8.435
21437SOL    HW166208  11.907  12.814   8.475
21437SOL    HW266209  11.761  12.789   8.507
21438SOL     OW66210  14.475   9.948   0.311
21438SOL    HW166211  14.503  10.015   0.372
21438SOL    HW266212  14.524   9.870   0.337
21439SOL     OW66213   5.958  10.222   4.614
21439SOL    HW166214   6.048  10.220   4.582
21439SOL    HW266215   5.905  10.206   4.535
21440SOL     OW66216   8.958  12.860  10.117
21440SOL    HW166217   8.995  12.797  10.179
21440SOL    HW266218   8.898  12.914  10.169
21441SOL     OW66219   1.850   5.892  12.193
21441SOL    HW166220   1.877   5.939  12.114
21441SOL    HW266221   1.880   5.802  12.179
21442SOL     OW66222  11.981  14.599  11.222
21442SOL    HW166223  12.007  14.614  11.131
21442SOL    HW266224  12.010  14.677  11.269
21443SOL     OW66225   2.461   4.105   7.323
21443SOL    HW166226   2.411   4.030   7.354
21443SOL    HW266227   2.526   4.120   7.391
21444SOL     OW66228   4.921   5.693   8.865
21444SOL    HW166229   4.898   5.608   8.903
21444SOL    HW266230   5.014   5.704   8.888
21445SOL     OW66231   1.526   4.821  13.464
21445SOL    HW166232   1.500   4.867  13.384
21445SOL    HW266233   1.446   4.780  13.495
21446SOL     OW66234   6.218   0.231  11.598
21446SOL    HW166235   6.203   0.321  11.628
21446SOL    HW266236   6.169   0.177  11.660
21447SOL     OW66237  12.741   3.918   0.594
21447SOL    HW166238  12.651   3.886   0.592
21447SOL    HW266239  12.784   3.873   0.521
21448SOL     OW66240   2.047  11.280   5.196
21448SOL    HW166241   2.050  11.199   5.247
21448SOL    HW266242   1.956  11.309   5.203
21449SOL     OW66243  11.853  11.191  10.945
21449SOL    HW166244  11.901  11.255  10.997
21449SOL    HW266245  11.921  11.138  10.904
21450SOL     OW66246   2.972   9.393  13.577
21450SOL    HW166247   2.956   9.421  13.667
21450SOL    HW266248   2.915   9.449  13.524
21451SOL     OW66249  14.846   8.223  14.651
21451SOL    HW166250  14.810   8.277  14.720
21451SOL    HW266251   0.025   8.159  14.697
21452SOL     OW66252   0.400   6.399  11.271
21452SOL    HW166253   0.390   6.423  11.363
21452SOL    HW266254   0.450   6.471  11.232
21453SOL     OW66255  12.409   3.868  10.326
21453SOL    HW166256  12.388   3.800  10.390
21453SOL    HW266257  12.493   3.904  10.355
21454SOL     OW66258   1.455   6.247   1.239
21454SOL    HW166259   1.396   6.321   1.231
21454SOL    HW266260   1.542   6.286   1.248
21455SOL     OW66261  11.719  10.926   9.927
21455SOL    HW166262  11.685  10.979   9.855
21455SOL    HW266263  11.791  10.876   9.888
21456SOL     OW66264   8.466  13.880   9.287
21456SOL    HW166265   8.545  13.842   9.326
21456SOL    HW266266   8.452  13.828   9.207
21457SOL     OW66267   3.663   1.849  12.132
21457SOL    HW166268   3.673   1.773  12.191
21457SOL    HW266269   3.651   1.923  12.191
21458SOL     OW66270   5.944  13.592  14.707
21458SOL    HW166271   5.973  13.624  14.793
21458SOL    HW266272   5.850  13.613  14.704
21459SOL     OW66273   6.858   0.442   4.941
21459SOL    HW166274   6.924   0.474   5.002
21459SOL    HW266275   6.820   0.522   4.903
21460SOL     OW66276   5.547   9.658   5.691
21460SOL    HW166277   5.456   9.687   5.702
21460SOL    HW266278   5.589   9.679   5.774
21461SOL     OW66279   5.729  11.832  10.421
21461SOL    HW166280   5.784  11.796  10.351
21461SOL    HW266281   5.647  11.856  10.377
21462SOL     OW66282  12.173   1.222   3.572
21462SOL    HW166283  12.257   1.265   3.554
21462SOL    HW266284  12.160   1.163   3.498
21463SOL     OW66285   9.808   8.045  13.938
21463SOL    HW166286   9.788   7.960  13.899
21463SOL    HW266287   9.776   8.037  14.028
21464SOL     OW66288  11.466  14.432   4.629
21464SOL    HW166289  11.537  14.476   4.677
21464SOL    HW266290  11.409  14.504   4.600
21465SOL     OW66291  11.543  10.785  12.875
21465SOL    HW166292  11.609  10.720  12.900
21465SOL    HW266293  11.587  10.869  12.885
21466SOL     OW66294   0.394  11.753   6.281
21466SOL    HW166295   0.436  11.689   6.224
21466SOL    HW266296   0.411  11.722   6.370
21467SOL     OW66297   3.946   4.994   8.432
21467SOL    HW166298   3.987   5.018   8.349
21467SOL    HW266299   3.891   5.069   8.454
21468SOL     OW66300  12.898  10.206  12.284
21468SOL    HW166301  12.938  10.125  12.316
21468SOL    HW266302  12.959  10.275  12.311
21469SOL     OW66303   0.524   9.696  10.039
21469SOL    HW166304   0.599   9.652   9.998
21469SOL    HW266305   0.485   9.746   9.968
21470SOL     OW66306   0.335   5.053   0.562
21470SOL    HW166307   0.269   4.999   0.519
21470SOL    HW266308   0.417   5.007   0.548
21471SOL     OW66309  13.544   3.418   8.986
21471SOL    HW166310  13.483   3.356   9.027
21471SOL    HW266311  13.602   3.445   9.057
21472SOL     OW66312   7.298   8.081   9.827
21472SOL    HW166313   7.361   8.050   9.892
21472SOL    HW266314   7.223   8.022   9.836
21473SOL     OW66315   8.236  12.857  10.655
21473SOL    HW166316   8.218  12.780  10.709
21473SOL    HW266317   8.156  12.871  10.605
21474SOL     OW66318   4.374   9.860   4.868
21474SOL    HW166319   4.296   9.820   4.830
21474SOL    HW266320   4.348   9.882   4.958
21475SOL     OW66321   5.054   9.051  11.903
21475SOL    HW166322   5.042   9.142  11.876
21475SOL    HW266323   5.109   9.013  11.834
21476SOL     OW66324  13.787  10.271  10.254
21476SOL    HW166325  13.834  10.285  10.171
21476SOL    HW266326  13.832  10.197  10.295
21477SOL     OW66327  14.199   6.740   0.556
21477SOL    HW166328  14.214   6.691   0.475
21477SOL    HW266329  14.208   6.832   0.531
21478SOL     OW66330   2.573   4.092   5.013
21478SOL    HW166331   2.517   4.170   5.015
21478SOL    HW266332   2.536   4.039   4.942
21479SOL     OW66333  13.229  10.525   9.075
21479SOL    HW166334  13.170  10.469   9.124
21479SOL    HW266335  13.222  10.495   8.984
21480SOL     OW66336   1.538   2.345  14.419
21480SOL    HW166337   1.497   2.431  14.425
21480SOL    HW266338   1.555   2.332  14.325
21481SOL     OW66339  11.024  12.443   7.236
21481SOL    HW166340  11.049  12.414   7.148
21481SOL    HW266341  10.972  12.371   7.271
21482SOL     OW66342   4.396   1.687   1.629
21482SOL    HW166343   4.459   1.618   1.649
21482SOL    HW266344   4.353   1.658   1.548
21483SOL     OW66345  12.268   3.626   8.851
21483SOL    HW166346  12.176   3.643   8.831
21483SOL    HW266347  12.267   3.545   8.902
21484SOL     OW66348  11.984   6.485   0.770
21484SOL    HW166349  11.938   6.410   0.732
21484SOL    HW266350  12.019   6.531   0.694
21485SOL     OW66351   3.499  12.390   8.874
21485SOL    HW166352   3.529  12.421   8.960
21485SOL    HW266353   3.421  12.443   8.857
21486SOL     OW66354   9.723   0.790   9.199
21486SOL    HW166355   9.777   0.780   9.120
21486SOL    HW266356   9.652   0.728   9.188
21487SOL     OW66357   7.248   5.660  13.873
21487SOL    HW166358   7.259   5.623  13.786
21487SOL    HW266359   7.164   5.706  13.870
21488SOL     OW66360  12.921  12.018  14.519
21488SOL    HW166361  12.850  12.002  14.457
21488SOL    HW266362  12.951  11.931  14.544
21489SOL     OW66363   4.464  11.037   0.131
21489SOL    HW166364   4.420  11.114   0.168
21489SOL    HW266365   4.485  10.982   0.207
21490SOL     OW66366  12.935   6.483   8.631
21490SOL    HW166367  13.029   6.477   8.647
21490SOL    HW266368  12.906   6.556   8.686
21491SOL     OW66369   2.245   2.492  12.499
21491SOL    HW166370   2.321   2.445  12.532
21491SOL    HW266371   2.219   2.549  12.571
21492SOL     OW66372  10.360   3.598   5.674
21492SOL    HW166373  10.333   3.566   5.588
21492SOL    HW266374  10.443   3.643   5.658
21493SOL     OW66375   8.841   4.307  13.199
21493SOL    HW166376   8.789   4.384  13.177
21493SOL    HW266377   8.800   4.236  13.149
21494SOL     OW66378  13.828   8.789   1.051
21494SOL    HW166379  13.812   8.881   1.028
21494SOL    HW266380  13.868   8.793   1.139
21495SOL     OW66381   0.679   7.242   9.217
21495SOL    HW166382   0.689   7.167   9.275
21495SOL    HW266383   0.600   7.286   9.248
21496SOL     OW66384   1.236  14.200   0.649
21496SOL    HW166385   1.210  14.188   0.741
21496SOL    HW266386   1.325  14.166   0.645
21497SOL     OW66387  10.638   4.090   0.874
21497SOL    HW166388  10.664   4.006   0.911
21497SOL    HW266389  10.704   4.152   0.907
21498SOL     OW66390  10.762   7.759   1.820
21498SOL    HW166391  10.682   7.714   1.846
21498SOL    HW266392  10.747   7.851   1.845
21499SOL     OW66393   8.024   6.790   1.411
21499SOL    HW166394   8.014   6.885   1.408
21499SOL    HW266395   8.079   6.769   1.336
21500SOL     OW66396   0.991   4.277   6.505
21500SOL    HW166397   0.909   4.239   6.474
21500SOL    HW266398   1.005   4.353   6.449
21501SOL     OW66399   9.919   9.416  14.754
21501SOL    HW166400   9.974   9.349  14.795
21501SOL    HW266401   9.978   9.490  14.739
21502SOL     OW66402   7.870  11.861   6.786
21502SOL    HW166403   7.863  11.828   6.697
21502SOL    HW266404   7.814  11.939   6.787
21503SOL     OW66405   2.729   5.258   8.277
21503SOL    HW166406   2.754   5.312   8.352
21503SOL    HW266407   2.809   5.212   8.253
21504SOL     OW66408   4.411  11.808  13.983
21504SOL    HW166409   4.338  11.852  14.027
21504SOL    HW266410   4.370  11.756  13.914
21505SOL     OW66411  13.991   2.218   1.279
21505SOL    HW166412  14.036   2.168   1.346
21505SOL    HW266413  14.060   2.240   1.215
21506SOL     OW66414   9.591   9.576   1.048
21506SOL    HW166415   9.666   9.515   1.047
21506SOL    HW266416   9.606   9.634   0.974
21507SOL     OW66417   8.423   2.901   2.104
21507SOL    HW166418   8.328   2.914   2.107
21507SOL    HW266419   8.443   2.887   2.012
21508SOL     OW66420   5.507  14.702   9.413
21508SOL    HW166421   5.505  14.786   9.460
21508SOL    HW266422   5.501  14.636   9.482
21509SOL     OW66423   4.495   4.300   1.277
21509SOL    HW166424   4.480   4.214   1.238
21509SOL    HW266425   4.410   4.344   1.271
21510SOL     OW66426   0.605   2.972  10.788
21510SOL    HW166427   0.609   3.052  10.736
21510SOL    HW266428   0.697   2.954  10.810
21511SOL     OW66429   4.925  12.121   6.678
21511SOL    HW166430   4.958  12.048   6.625
21511SOL    HW266431   4.997  12.141   6.738
21512SOL     OW66432   7.965   3.910   6.684
21512SOL    HW166433   8.048   3.954   6.698
21512SOL    HW266434   7.913   3.972   6.634
21513SOL     OW66435  10.054   7.784   4.844
21513SOL    HW166436   9.975   7.733   4.825
21513SOL    HW266437  10.053   7.796   4.939
21514SOL     OW66438   7.982   5.791   5.746
21514SOL    HW166439   8.020   5.720   5.695
21514SOL    HW266440   7.895   5.805   5.708
21515SOL     OW66441  11.093   5.024   0.637
21515SOL    HW166442  11.100   5.065   0.723
21515SOL    HW266443  11.097   4.930   0.656
21516SOL     OW66444   9.922  13.215   0.433
21516SOL    HW166445  10.009  13.234   0.397
21516SOL    HW266446   9.875  13.174   0.361
21517SOL     OW66447   4.977   6.694   7.065
21517SOL    HW166448   4.948   6.724   7.151
21517SOL    HW266449   5.047   6.631   7.083
21518SOL     OW66450  12.972   4.232   6.655
21518SOL    HW166451  12.893   4.187   6.685
21518SOL    HW266452  13.033   4.161   6.633
21519SOL     OW66453   2.707   2.152  10.123
21519SOL    HW166454   2.623   2.197  10.123
21519SOL    HW266455   2.716   2.117  10.211
21520SOL     OW66456  13.395  13.029   3.868
21520SOL    HW166457  13.465  13.078   3.825
21520SOL    HW266458  13.412  12.937   3.846
21521SOL     OW66459   1.690   0.933  11.804
21521SOL    HW166460   1.760   0.997  11.816
21521SOL    HW266461   1.612   0.975  11.842
21522SOL     OW66462   2.861  10.188   6.953
21522SOL    HW166463   2.909  10.243   7.015
21522SOL    HW266464   2.881  10.225   6.867
21523SOL     OW66465  11.190   5.312  14.034
21523SOL    HW166466  11.118   5.250  14.039
21523SOL    HW266467  11.165   5.373  13.965
21524SOL     OW66468   7.128   4.615   2.770
21524SOL    HW166469   7.145   4.622   2.864
21524SOL    HW266470   7.128   4.521   2.752
21525SOL     OW66471   1.695   8.511   8.842
21525SOL    HW166472   1.606   8.503   8.877
21525SOL    HW266473   1.724   8.598   8.869
21526SOL     OW66474   2.953   4.987  11.828
21526SOL    HW166475   2.923   4.896  11.827
21526SOL    HW266476   2.920   5.023  11.746
21527SOL     OW66477   4.772  10.018  13.284
21527SOL    HW166478   4.762  10.082  13.354
21527SOL    HW266479   4.737  10.061  13.206
21528SOL     OW66480   4.077   2.247   0.889
21528SOL    HW166481   4.134   2.210   0.957
21528SOL    HW266482   4.120   2.329   0.864
21529SOL     OW66483   4.832   6.492   7.748
21529SOL    HW166484   4.830   6.539   7.831
21529SOL    HW266485   4.755   6.435   7.750
21530SOL     OW66486  11.789  13.288   4.332
21530SOL    HW166487  11.847  13.214   4.314
21530SOL    HW266488  11.845  13.354   4.372
21531SOL     OW66489   0.025   7.190   1.431
21531SOL    HW166490  14.861   7.124   1.375
21531SOL    HW266491   0.099   7.225   1.380
21532SOL     OW66492  12.144   3.295   9.193
21532SOL    HW166493  12.182   3.215   9.230
21532SOL    HW266494  12.066   3.312   9.247
21533SOL     OW66495   1.742  13.562   3.805
21533SOL    HW166496   1.716  13.647   3.768
21533SOL    HW266497   1.753  13.505   3.729
21534SOL     OW66498   3.660   2.660   4.403
21534SOL    HW166499   3.627   2.712   4.330
21534SOL    HW266500   3.650   2.716   4.479
21535SOL     OW66501   1.419  13.180  11.738
21535SOL    HW166502   1.354  13.192  11.807
21535SOL    HW266503   1.385  13.231  11.664
21536SOL     OW66504  13.646  12.133   9.216
21536SOL    HW166505  13.734  12.136   9.177
21536SOL    HW266506  13.588  12.115   9.143
21537SOL     OW66507   9.464  11.406   6.885
21537SOL    HW166508   9.557  11.409   6.866
21537SOL    HW266509   9.429  11.485   6.843
21538SOL     OW66510   4.039  11.023   2.118
21538SOL    HW166511   4.037  10.951   2.055
21538SOL    HW266512   3.949  11.031   2.149
21539SOL     OW66513  14.799   4.645   8.107
21539SOL    HW166514  14.785   4.571   8.167
21539SOL    HW266515  14.720   4.647   8.054
21540SOL     OW66516   2.842  13.010  14.239
21540SOL    HW166517   2.875  12.922  14.254
21540SOL    HW266518   2.863  13.028  14.147
21541SOL     OW66519   5.273   2.451   2.384
21541SOL    HW166520   5.248   2.468   2.293
21541SOL    HW266521   5.214   2.506   2.436
21542SOL     OW66522   6.570   9.280   9.177
21542SOL    HW166523   6.565   9.227   9.257
21542SOL    HW266524   6.658   9.317   9.178
21543SOL     OW66525  14.285   1.047   7.845
21543SOL    HW166526  14.204   1.079   7.884
21543SOL    HW266527  14.257   0.995   7.770
21544SOL     OW66528  11.383   7.255   0.587
21544SOL    HW166529  11.411   7.177   0.540
21544SOL    HW266530  11.422   7.245   0.674
21545SOL     OW66531   5.874  13.161   5.248
21545SOL    HW166532   5.893  13.070   5.269
21545SOL    HW266533   5.850  13.161   5.156
21546SOL     OW66534   7.798   6.445   2.489
21546SOL    HW166535   7.843   6.434   2.405
21546SOL    HW266536   7.838   6.380   2.547
21547SOL     OW66537   7.792   3.373  14.243
21547SOL    HW166538   7.751   3.399  14.161
21547SOL    HW266539   7.854   3.444  14.263
21548SOL     OW66540   5.597  10.817  10.856
21548SOL    HW166541   5.648  10.803  10.776
21548SOL    HW266542   5.625  10.903  10.888
21549SOL     OW66543   0.173  14.331   4.316
21549SOL    HW166544   0.081  14.305   4.314
21549SOL    HW266545   0.202  14.327   4.225
21550SOL     OW66546   3.966  12.211   9.745
21550SOL    HW166547   4.041  12.262   9.713
21550SOL    HW266548   4.004  12.126   9.769
21551SOL     OW66549  11.754   7.353   4.247
21551SOL    HW166550  11.838   7.346   4.203
21551SOL    HW266551  11.735   7.264   4.277
21552SOL     OW66552   4.850   2.008   9.025
21552SOL    HW166553   4.909   1.933   9.038
21552SOL    HW266554   4.890   2.079   9.074
21553SOL     OW66555   9.666   4.720   0.633
21553SOL    HW166556   9.697   4.769   0.557
21553SOL    HW266557   9.600   4.660   0.599
21554SOL     OW66558   6.729   1.027   8.786
21554SOL    HW166559   6.818   1.014   8.755
21554SOL    HW266560   6.689   1.086   8.723
21555SOL     OW66561  13.520  11.040   1.307
21555SOL    HW166562  13.556  11.042   1.219
21555SOL    HW266563  13.486  10.951   1.317
21556SOL     OW66564   9.095   1.512   0.140
21556SOL    HW166565   9.013   1.469   0.162
21556SOL    HW266566   9.070   1.582   0.080
21557SOL     OW66567   0.857   9.255   5.215
21557SOL    HW166568   0.833   9.185   5.156
21557SOL    HW266569   0.780   9.267   5.271
21558SOL     OW66570   9.720   3.835   0.130
21558SOL    HW166571   9.673   3.752   0.145
21558SOL    HW266572   9.656   3.903   0.150
21559SOL     OW66573   5.189  11.680   7.573
21559SOL    HW166574   5.123  11.614   7.553
21559SOL    HW266575   5.164  11.756   7.521
21560SOL     OW66576   1.037  10.588  10.838
21560SOL    HW166577   0.999  10.515  10.789
21560SOL    HW266578   1.061  10.550  10.922
21561SOL     OW66579  14.213   2.366   3.998
21561SOL    HW166580  14.295   2.324   3.971
21561SOL    HW266581  14.241   2.432   4.061
21562SOL     OW66582   4.675   1.888   4.657
21562SOL    HW166583   4.723   1.894   4.575
21562SOL    HW266584   4.649   1.978   4.676
21563SOL     OW66585  11.783   5.639   8.223
21563SOL    HW166586  11.714   5.675   8.167
21563SOL    HW266587  11.799   5.552   8.187
21564SOL     OW66588   3.282   6.013   6.793
21564SOL    HW166589   3.361   6.050   6.831
21564SOL    HW266590   3.224   5.998   6.867
21565SOL     OW66591  12.206   4.709  10.137
21565SOL    HW166592  12.137   4.731  10.075
21565SOL    HW266593  12.249   4.793  10.156
21566SOL     OW66594  12.826   2.019   6.814
21566SOL    HW166595  12.736   2.009   6.783
21566SOL    HW266596  12.880   1.976   6.748
21567SOL     OW66597  12.419  13.187  11.421
21567SOL    HW166598  12.340  13.179  11.368
21567SOL    HW266599  12.491  13.169  11.360
21568SOL     OW66600   1.732  12.316   5.701
21568SOL    HW166601   1.760  12.293   5.790
21568SOL    HW266602   1.761  12.406   5.690
21569SOL     OW66603  12.642   0.588  14.473
21569SOL    HW166604  12.681   0.526  14.534
21569SOL    HW266605  12.621   0.535  14.396
21570SOL     OW66606   2.859  14.734  12.635
21570SOL    HW166607   2.768  14.719  12.661
21570SOL    HW266608   2.861  14.826  12.607
21571SOL     OW66609   2.217  13.789  14.390
21571SOL    HW166610   2.122  13.774  14.397
21571SOL    HW266611   2.228  13.881  14.415
21572SOL     OW66612   1.526   4.697  12.562
21572SOL    HW166613   1.450   4.681  12.506
21572SOL    HW266614   1.575   4.614  12.560
21573SOL     OW66615   1.426  10.883   8.139
21573SOL    HW166616   1.357  10.934   8.182
21573SOL    HW266617   1.467  10.946   8.079
21574SOL     OW66618   1.136  11.617   6.434
21574SOL    HW166619   1.160  11.608   6.526
21574SOL    HW266620   1.219  11.623   6.388
21575SOL     OW66621   2.307  13.330   1.904
21575SOL    HW166622   2.314  13.307   1.812
21575SOL    HW266623   2.340  13.420   1.910
21576SOL     OW66624   9.400   9.564   2.073
21576SOL    HW166625   9.311   9.587   2.102
21576SOL    HW266626   9.455   9.635   2.104
21577SOL     OW66627   6.608  12.580   2.918
21577SOL    HW166628   6.593  12.674   2.929
21577SOL    HW266629   6.527  12.548   2.877
21578SOL     OW66630  13.854   8.840  14.349
21578SOL    HW166631  13.894   8.927  14.346
21578SOL    HW266632  13.902   8.789  14.285
21579SOL     OW66633   5.125  11.923   9.596
21579SOL    HW166634   5.189  11.956   9.659
21579SOL    HW266635   5.160  11.838   9.568
21580SOL     OW66636   0.337   8.018  11.318
21580SOL    HW166637   0.386   8.041  11.240
21580SOL    HW266638   0.276   8.090  11.331
21581SOL     OW66639  10.266   5.373   3.427
21581SOL    HW166640  10.277   5.291   3.475
21581SOL    HW266641  10.300   5.354   3.339
21582SOL     OW66642  14.718  12.351   0.565
21582SOL    HW166643  14.759  12.266   0.584
21582SOL    HW266644  14.712  12.394   0.651
21583SOL     OW66645  10.848  13.948   6.158
21583SOL    HW166646  10.766  13.971   6.114
21583SOL    HW266647  10.822  13.879   6.220
21584SOL     OW66648   8.549   8.363   8.345
21584SOL    HW166649   8.540   8.272   8.316
21584SOL    HW266650   8.510   8.365   8.432
21585SOL     OW66651   1.777  11.515   7.690
21585SOL    HW166652   1.753  11.606   7.678
21585SOL    HW266653   1.813  11.488   7.606
21586SOL     OW66654   4.850   4.329  13.043
21586SOL    HW166655   4.865   4.424  13.052
21586SOL    HW266656   4.858   4.295  13.132
21587SOL     OW66657   9.029  11.618   2.220
21587SOL    HW166658   8.937  11.607   2.196
21587SOL    HW266659   9.053  11.536   2.263
21588SOL     OW66660  12.938  10.814  11.702
21588SOL    HW166661  12.972  10.798  11.790
21588SOL    HW266662  13.001  10.873  11.662
21589SOL     OW66663  13.690   5.852   1.622
21589SOL    HW166664  13.698   5.846   1.527
21589SOL    HW266665  13.610   5.803   1.642
21590SOL     OW66666  14.692  12.951   0.164
21590SOL    HW166667  14.773  12.900   0.172
21590SOL    HW266668  14.679  12.961   0.070
21591SOL     OW66669   9.691   6.918  12.685
21591SOL    HW166670   9.720   6.999  12.644
21591SOL    HW266671   9.621   6.945  12.744
21592SOL     OW66672   8.730   3.816   9.528
21592SOL    HW166673   8.721   3.905   9.563
21592SOL    HW266674   8.823   3.807   9.510
21593SOL     OW66675   1.040  14.694   0.259
21593SOL    HW166676   0.965  14.739   0.300
21593SOL    HW266677   1.075  14.758   0.197
21594SOL     OW66678   2.175   2.774   7.468
21594SOL    HW166679   2.137   2.700   7.514
21594SOL    HW266680   2.150   2.850   7.521
21595SOL     OW66681   1.439   8.545  13.941
21595SOL    HW166682   1.367   8.607  13.947
21595SOL    HW266683   1.406   8.475  13.885
21596SOL     OW66684   7.621  14.625   9.292
21596SOL    HW166685   7.614  14.539   9.251
21596SOL    HW266686   7.535  14.640   9.331
21597SOL     OW66687   5.709   6.930  13.370
21597SOL    HW166688   5.719   6.854  13.427
21597SOL    HW266689   5.708   7.005  13.430
21598SOL     OW66690  12.697  13.735   5.786
21598SOL    HW166691  12.631  13.670   5.806
21598SOL    HW266692  12.727  13.713   5.698
21599SOL     OW66693  11.218   8.603   4.157
21599SOL    HW166694  11.278   8.671   4.127
21599SOL    HW266695  11.145   8.652   4.197
21600SOL     OW66696  12.342  14.280   5.972
21600SOL    HW166697  12.413  14.264   6.034
21600SOL    HW266698  12.301  14.194   5.959
21601SOL     OW66699   7.978   0.288   7.923
21601SOL    HW166700   7.891   0.328   7.937
21601SOL    HW266701   8.028   0.313   8.000
21602SOL     OW66702   1.146  12.441   9.599
21602SOL    HW166703   1.116  12.461   9.688
21602SOL    HW266704   1.155  12.526   9.556
21603SOL     OW66705   4.950  14.468   7.225
21603SOL    HW166706   5.025  14.502   7.177
21603SOL    HW266707   4.927  14.539   7.286
21604SOL     OW66708  11.348   3.253  14.034
21604SOL    HW166709  11.318   3.343  14.027
21604SOL    HW266710  11.405   3.252  14.111
21605SOL     OW66711   1.358  12.200   1.713
21605SOL    HW166712   1.316  12.268   1.766
21605SOL    HW266713   1.289  12.134   1.701
21606SOL     OW66714   2.809   9.953   4.827
21606SOL    HW166715   2.786   9.923   4.916
21606SOL    HW266716   2.745  10.021   4.808
21607SOL     OW66717   3.640   1.588  13.160
21607SOL    HW166718   3.605   1.650  13.096
21607SOL    HW266719   3.598   1.613  13.242
21608SOL     OW66720   8.922   2.433   7.750
21608SOL    HW166721   8.861   2.505   7.731
21608SOL    HW266722   8.988   2.472   7.807
21609SOL     OW66723   0.491  10.570  14.083
21609SOL    HW166724   0.444  10.487  14.093
21609SOL    HW266725   0.452  10.628  14.148
21610SOL     OW66726  14.271  13.798   0.649
21610SOL    HW166727  14.321  13.813   0.569
21610SOL    HW266728  14.242  13.885   0.676
21611SOL     OW66729  13.008   9.968  13.025
21611SOL    HW166730  12.967   9.887  12.994
21611SOL    HW266731  13.095   9.941  13.055
21612SOL     OW66732   4.230   6.864   1.759
21612SOL    HW166733   4.204   6.862   1.667
21612SOL    HW266734   4.306   6.923   1.760
21613SOL     OW66735   7.809   3.600  13.670
21613SOL    HW166736   7.782   3.518  13.629
21613SOL    HW266737   7.794   3.666  13.603
21614SOL     OW66738   2.333  13.484   3.195
21614SOL    HW166739   2.269  13.554   3.195
21614SOL    HW266740   2.411  13.522   3.235
21615SOL     OW66741   2.041   4.786   1.892
21615SOL    HW166742   2.055   4.692   1.880
21615SOL    HW266743   2.025   4.796   1.985
21616SOL     OW66744  14.404  10.835   6.682
21616SOL    HW166745  14.382  10.742   6.685
21616SOL    HW266746  14.499  10.837   6.673
21617SOL     OW66747  11.993  13.523   6.634
21617SOL    HW166748  11.931  13.480   6.692
21617SOL    HW266749  12.058  13.562   6.693
21618SOL     OW66750   8.608   6.747   3.312
21618SOL    HW166751   8.530   6.802   3.304
21618SOL    HW266752   8.594   6.676   3.250
21619SOL     OW66753  10.236   2.839   3.596
21619SOL    HW166754  10.297   2.888   3.540
21619SOL    HW266755  10.164   2.815   3.539
21620SOL     OW66756   0.517   3.031  12.769
21620SOL    HW166757   0.576   3.102  12.744
21620SOL    HW266758   0.473   3.062  12.848
21621SOL     OW66759   4.107   2.501  13.048
21621SOL    HW166760   4.051   2.425  13.034
21621SOL    HW266761   4.196   2.468  13.035
21622SOL     OW66762   5.478   2.187   6.112
21622SOL    HW166763   5.478   2.281   6.128
21622SOL    HW266764   5.436   2.177   6.026
21623SOL     OW66765  13.179  11.348   7.385
21623SOL    HW166766  13.145  11.259   7.378
21623SOL    HW266767  13.105  11.399   7.418
21624SOL     OW66768   0.748   0.055   7.787
21624SOL    HW166769   0.697   0.055   7.706
21624SOL    HW266770   0.683   0.046   7.856
21625SOL     OW66771   8.093  14.184  10.051
21625SOL    HW166772   8.006  14.179  10.012
21625SOL    HW266773   8.083  14.239  10.128
21626SOL     OW66774   7.134   8.597  14.230
21626SOL    HW166775   7.052   8.548  14.227
21626SOL    HW266776   7.200   8.532  14.254
21627SOL     OW66777   0.873   5.268   7.591
21627SOL    HW166778   0.938   5.338   7.597
21627SOL    HW266779   0.827   5.286   7.509
21628SOL     OW66780   9.142  10.580   4.780
21628SOL    HW166781   9.055  10.604   4.811
21628SOL    HW266782   9.133  10.490   4.749
21629SOL     OW66783  12.113   2.774   8.247
21629SOL    HW166784  12.186   2.727   8.286
21629SOL    HW266785  12.150   2.813   8.168
21630SOL     OW66786   1.881   7.200  12.859
21630SOL    HW166787   1.922   7.201  12.946
21630SOL    HW266788   1.841   7.113  12.853
21631SOL     OW66789   9.420  12.864  10.012
21631SOL    HW166790   9.508  12.903  10.018
21631SOL    HW266791   9.409  12.819  10.096
21632SOL     OW66792   8.120   5.943   6.840
21632SOL    HW166793   8.185   5.945   6.769
21632SOL    HW266794   8.117   5.851   6.867
21633SOL     OW66795  10.507   6.114  12.690
21633SOL    HW166796  10.431   6.167  12.713
21633SOL    HW266797  10.496   6.033  12.740
21634SOL     OW66798  14.731  13.229  12.769
21634SOL    HW166799  14.645  13.188  12.776
21634SOL    HW266800  14.728  13.303  12.829
21635SOL     OW66801   1.506  10.375   1.099
21635SOL    HW166802   1.560  10.313   1.148
21635SOL    HW266803   1.416  10.355   1.128
21636SOL     OW66804   4.501  11.016  10.776
21636SOL    HW166805   4.579  11.035  10.723
21636SOL    HW266806   4.427  11.039  10.720
21637SOL     OW66807   5.965  11.627   8.848
21637SOL    HW166808   5.964  11.664   8.936
21637SOL    HW266809   5.887  11.573   8.844
21638SOL     OW66810   9.891   8.765  10.139
21638SOL    HW166811   9.984   8.770  10.117
21638SOL    HW266812   9.853   8.716  10.066
21639SOL     OW66813  12.092   8.443  13.078
21639SOL    HW166814  12.081   8.350  13.056
21639SOL    HW266815  12.063   8.489  12.999
21640SOL     OW66816   6.703   3.549   3.311
21640SOL    HW166817   6.680   3.555   3.218
21640SOL    HW266818   6.734   3.459   3.322
21641SOL     OW66819  12.070  10.644   0.862
21641SOL    HW166820  12.056  10.549   0.867
21641SOL    HW266821  11.991  10.678   0.820
21642SOL     OW66822   1.071   6.347   2.381
21642SOL    HW166823   0.979   6.321   2.379
21642SOL    HW266824   1.074   6.423   2.440
21643SOL     OW66825   3.604  14.618  13.025
21643SOL    HW166826   3.667  14.607  13.096
21643SOL    HW266827   3.615  14.710  12.998
21644SOL     OW66828   0.043  11.416   0.473
21644SOL    HW166829   0.097  11.359   0.528
21644SOL    HW266830  14.871  11.356   0.416
21645SOL     OW66831  13.483   4.209   9.421
21645SOL    HW166832  13.401   4.181   9.461
21645SOL    HW266833  13.479   4.304   9.421
21646SOL     OW66834  14.343  11.774   9.647
21646SOL    HW166835  14.383  11.733   9.723
21646SOL    HW266836  14.259  11.730   9.637
21647SOL     OW66837   4.373   3.882   2.847
21647SOL    HW166838   4.368   3.966   2.892
21647SOL    HW266839   4.466   3.870   2.828
21648SOL     OW66840   3.769   1.450  13.424
21648SOL    HW166841   3.713   1.377  13.397
21648SOL    HW266842   3.729   1.482  13.505
21649SOL     OW66843   5.237   4.853  12.984
21649SOL    HW166844   5.165   4.889  12.932
21649SOL    HW266845   5.209   4.763  13.004
21650SOL     OW66846  11.726   0.970   9.671
21650SOL    HW166847  11.722   1.014   9.586
21650SOL    HW266848  11.635   0.950   9.692
21651SOL     OW66849  12.094  10.401   6.529
21651SOL    HW166850  12.161  10.446   6.581
21651SOL    HW266851  12.084  10.455   6.451
21652SOL     OW66852  10.247   1.697   1.887
21652SOL    HW166853  10.167   1.646   1.873
21652SOL    HW266854  10.318   1.635   1.874
21653SOL     OW66855   7.057   5.429   5.096
21653SOL    HW166856   7.082   5.481   5.172
21653SOL    HW266857   7.139   5.415   5.049
21654SOL     OW66858   2.702   8.551   2.527
21654SOL    HW166859   2.632   8.496   2.562
21654SOL    HW266860   2.676   8.641   2.549
21655SOL     OW66861   3.012   2.409  11.825
21655SOL    HW166862   3.055   2.327  11.847
21655SOL    HW266863   2.943   2.418  11.891
21656SOL     OW66864   5.009   7.340  13.399
21656SOL    HW166865   5.078   7.275  13.411
21656SOL    HW266866   5.034   7.388  13.320
21657SOL     OW66867   6.872   2.305   4.590
21657SOL    HW166868   6.961   2.307   4.626
21657SOL    HW266869   6.869   2.379   4.530
21658SOL     OW66870  10.368   4.200  12.875
21658SOL    HW166871  10.295   4.196  12.813
21658SOL    HW266872  10.361   4.119  12.925
21659SOL     OW66873   8.452  13.642   0.944
21659SOL    HW166874   8.512  13.628   1.017
21659SOL    HW266875   8.407  13.558   0.933
21660SOL     OW66876  10.395   1.436  13.176
21660SOL    HW166877  10.490   1.434  13.183
21660SOL    HW266878  10.365   1.472  13.260
21661SOL     OW66879  13.843   7.575  10.016
21661SOL    HW166880  13.909   7.584  10.085
21661SOL    HW266881  13.790   7.655  10.023
21662SOL     OW66882   7.988   5.539  11.390
21662SOL    HW166883   8.074   5.563  11.425
21662SOL    HW266884   7.937   5.514  11.466
21663SOL     OW66885  14.147  12.124  11.911
21663SOL    HW166886  14.119  12.142  12.000
21663SOL    HW266887  14.240  12.146  11.910
21664SOL     OW66888  12.468  12.161   1.591
21664SOL    HW166889  12.497  12.249   1.614
21664SOL    HW266890  12.489  12.108   1.668
21665SOL     OW66891  12.630   8.217   9.366
21665SOL    HW166892  12.563   8.244   9.303
21665SOL    HW266893  12.712   8.243   9.325
21666SOL     OW66894   2.675   8.924   0.881
21666SOL    HW166895   2.718   8.990   0.935
21666SOL    HW266896   2.590   8.961   0.860
21667SOL     OW66897  13.338   9.856   3.324
21667SOL    HW166898  13.354   9.764   3.301
21667SOL    HW266899  13.292   9.851   3.408
21668SOL     OW66900   6.714   1.799   3.085
21668SOL    HW166901   6.720   1.837   3.172
21668SOL    HW266902   6.802   1.765   3.067
21669SOL     OW66903   1.479  10.424   3.176
21669SOL    HW166904   1.495  10.379   3.092
21669SOL    HW266905   1.528  10.506   3.169
21670SOL     OW66906   1.499   0.391  14.066
21670SOL    HW166907   1.571   0.391  14.003
21670SOL    HW266908   1.446   0.466  14.041
21671SOL     OW66909   1.667   4.070   3.034
21671SOL    HW166910   1.642   4.143   2.976
21671SOL    HW266911   1.584   4.036   3.067
21672SOL     OW66912  10.678  10.218  10.456
21672SOL    HW166913  10.772  10.223  10.474
21672SOL    HW266914  10.654  10.307  10.431
21673SOL     OW66915   8.554  14.399   6.185
21673SOL    HW166916   8.533  14.342   6.259
21673SOL    HW266917   8.613  14.347   6.131
21674SOL     OW66918   1.690   4.164   9.308
21674SOL    HW166919   1.645   4.080   9.323
21674SOL    HW266920   1.737   4.180   9.390
21675SOL     OW66921  13.021   7.763   8.545
21675SOL    HW166922  12.989   7.833   8.489
21675SOL    HW266923  13.000   7.792   8.634
21676SOL     OW66924  10.111   1.584   5.947
21676SOL    HW166925  10.133   1.585   5.854
21676SOL    HW266926  10.124   1.674   5.975
21677SOL     OW66927  10.218   6.815   8.151
21677SOL    HW166928  10.202   6.837   8.059
21677SOL    HW266929  10.233   6.900   8.193
21678SOL     OW66930  11.326   5.731   6.909
21678SOL    HW166931  11.263   5.800   6.932
21678SOL    HW266932  11.410   5.777   6.901
21679SOL     OW66933  13.786  13.328   8.640
21679SOL    HW166934  13.807  13.279   8.719
21679SOL    HW266935  13.858  13.311   8.580
21680SOL     OW66936   2.454   2.924   2.038
21680SOL    HW166937   2.526   2.983   2.062
21680SOL    HW266938   2.388   2.937   2.106
21681SOL     OW66939   6.476  14.105   2.836
21681SOL    HW166940   6.439  14.176   2.888
21681SOL    HW266941   6.402  14.048   2.817
21682SOL     OW66942  10.992   4.136   4.347
21682SOL    HW166943  11.009   4.099   4.433
21682SOL    HW266944  11.065   4.105   4.293
21683SOL     OW66945   8.251  12.940   5.146
21683SOL    HW166946   8.234  12.858   5.100
21683SOL    HW266947   8.165  12.969   5.175
21684SOL     OW66948   9.911   2.489   0.089
21684SOL    HW166949   9.882   2.574   0.057
21684SOL    HW266950   9.830   2.441   0.107
21685SOL     OW66951   9.778   3.435   7.042
21685SOL    HW166952   9.841   3.389   6.987
21685SOL    HW266953   9.734   3.495   6.982
21686SOL     OW66954   4.322  11.809   2.624
21686SOL    HW166955   4.338  11.887   2.678
21686SOL    HW266956   4.410  11.781   2.597
21687SOL     OW66957   6.648   7.713   3.996
21687SOL    HW166958   6.675   7.708   3.905
21687SOL    HW266959   6.557   7.742   3.993
21688SOL     OW66960   4.050   8.538   3.463
21688SOL    HW166961   3.968   8.588   3.458
21688SOL    HW266962   4.062   8.503   3.375
21689SOL     OW66963   3.524   5.923   8.594
21689SOL    HW166964   3.561   5.978   8.663
21689SOL    HW266965   3.482   5.851   8.639
21690SOL     OW66966  11.781  12.384   0.662
21690SOL    HW166967  11.790  12.380   0.757
21690SOL    HW266968  11.694  12.423   0.648
21691SOL     OW66969  11.297  11.318  14.689
21691SOL    HW166970  11.296  11.320  14.593
21691SOL    HW266971  11.362  11.251  14.710
21692SOL     OW66972  13.305  14.418   0.727
21692SOL    HW166973  13.320  14.477   0.801
21692SOL    HW266974  13.227  14.453   0.684
21693SOL     OW66975  10.754   9.753  11.730
21693SOL    HW166976  10.767   9.848  11.741
21693SOL    HW266977  10.745   9.741  11.636
21694SOL     OW66978   1.813  11.661   5.766
21694SOL    HW166979   1.797  11.668   5.860
21694SOL    HW266980   1.729  11.683   5.726
21695SOL     OW66981  13.434   0.698  12.611
21695SOL    HW166982  13.439   0.778  12.559
21695SOL    HW266983  13.444   0.627  12.547
21696SOL     OW66984   9.072   0.334   0.947
21696SOL    HW166985   8.993   0.355   0.897
21696SOL    HW266986   9.039   0.300   1.030
21697SOL     OW66987  12.537   0.085   9.835
21697SOL    HW166988  12.622   0.071   9.877
21697SOL    HW266989  12.515  14.874   9.798
21698SOL     OW66990  14.829   5.811   4.843
21698SOL    HW166991  14.852   5.895   4.803
21698SOL    HW266992  14.747   5.829   4.890
21699SOL     OW66993  11.975   4.655   6.289
21699SOL    HW166994  12.068   4.645   6.309
21699SOL    HW266995  11.932   4.664   6.374
21700SOL     OW66996   1.127   8.359   6.368
21700SOL    HW166997   1.053   8.327   6.420
21700SOL    HW266998   1.194   8.382   6.431
21701SOL     OW66999   8.077   6.739   4.926
21701SOL    HW167000   8.128   6.659   4.932
21701SOL    HW267001   7.987   6.712   4.944
21702SOL     OW67002   5.500   7.590  14.081
21702SOL    HW167003   5.562   7.640  14.134
21702SOL    HW267004   5.550   7.515  14.050
21703SOL     OW67005  10.027  12.878  10.422
21703SOL    HW167006  10.015  12.842  10.335
21703SOL    HW267007   9.950  12.849  10.471
21704SOL     OW67008  12.413  10.700   8.856
21704SOL    HW167009  12.377  10.655   8.780
21704SOL    HW267010  12.478  10.760   8.819
21705SOL     OW67011   5.707   4.805   1.830
21705SOL    HW167012   5.666   4.761   1.905
21705SOL    HW267013   5.635   4.845   1.782
21706SOL     OW67014   3.960   3.185  12.613
21706SOL    HW167015   3.941   3.195  12.706
21706SOL    HW267016   3.884   3.137  12.579
21707SOL     OW67017   8.827   8.639  12.362
21707SOL    HW167018   8.923   8.634  12.358
21707SOL    HW267019   8.798   8.576  12.296
21708SOL     OW67020   7.225   4.342   5.206
21708SOL    HW167021   7.189   4.255   5.186
21708SOL    HW267022   7.319   4.334   5.188
21709SOL     OW67023  12.176   5.694  14.703
21709SOL    HW167024  12.099   5.637  14.696
21709SOL    HW267025  12.217   5.688  14.616
21710SOL     OW67026  14.560   1.220   7.797
21710SOL    HW167027  14.486   1.195   7.852
21710SOL    HW267028  14.525   1.285   7.736
21711SOL     OW67029   7.035   3.279   3.433
21711SOL    HW167030   7.078   3.347   3.486
21711SOL    HW267031   7.037   3.201   3.489
21712SOL     OW67032   7.719   3.988   9.410
21712SOL    HW167033   7.760   3.918   9.359
21712SOL    HW267034   7.647   3.946   9.457
21713SOL     OW67035  13.236   6.660   4.208
21713SOL    HW167036  13.179   6.677   4.282
21713SOL    HW267037  13.294   6.591   4.237
21714SOL     OW67038   2.713  11.984   1.310
21714SOL    HW167039   2.626  11.994   1.349
21714SOL    HW267040   2.713  11.896   1.273
21715SOL     OW67041   6.931  12.956   2.910
21715SOL    HW167042   6.951  12.942   3.003
21715SOL    HW267043   6.896  13.045   2.906
21716SOL     OW67044   7.887   0.824   2.152
21716SOL    HW167045   7.837   0.871   2.086
21716SOL    HW267046   7.951   0.773   2.102
21717SOL     OW67047  14.029  11.921   4.188
21717SOL    HW167048  13.942  11.886   4.166
21717SOL    HW267049  14.063  11.953   4.104
21718SOL     OW67050   7.269   8.091   0.833
21718SOL    HW167051   7.202   8.023   0.829
21718SOL    HW267052   7.303   8.086   0.922
21719SOL     OW67053   8.370   7.634   7.147
21719SOL    HW167054   8.428   7.597   7.214
21719SOL    HW267055   8.316   7.559   7.119
21720SOL     OW67056   5.896   8.061   0.414
21720SOL    HW167057   5.804   8.086   0.402
21720SOL    HW267058   5.939   8.084   0.331
21721SOL     OW67059   4.558  13.055   9.906
21721SOL    HW167060   4.483  13.097   9.947
21721SOL    HW267061   4.615  13.128   9.881
21722SOL     OW67062   3.004   6.582   2.209
21722SOL    HW167063   2.964   6.588   2.122
21722SOL    HW267064   3.043   6.495   2.212
21723SOL     OW67065  13.365  11.173   3.943
21723SOL    HW167066  13.364  11.251   3.998
21723SOL    HW267067  13.446  11.128   3.965
21724SOL     OW67068   6.087   4.510  12.898
21724SOL    HW167069   6.113   4.594  12.862
21724SOL    HW267070   6.141   4.446  12.851
21725SOL     OW67071   1.210   7.689   3.307
21725SOL    HW167072   1.134   7.745   3.290
21725SOL    HW267073   1.236   7.658   3.220
21726SOL     OW67074   0.342  11.259   3.709
21726SOL    HW167075   0.392  11.293   3.783
21726SOL    HW267076   0.400  11.193   3.670
21727SOL     OW67077   6.851   7.740   2.810
21727SOL    HW167078   6.804   7.823   2.807
21727SOL    HW267079   6.880   7.732   2.901
21728SOL     OW67080   9.153   6.942   3.579
21728SOL    HW167081   9.223   7.006   3.588
21728SOL    HW267082   9.149   6.923   3.485
21729SOL     OW67083   2.271   6.208  10.918
21729SOL    HW167084   2.364   6.204  10.939
21729SOL    HW267085   2.268   6.192  10.824
21730SOL     OW67086   6.704   1.029   8.372
21730SOL    HW167087   6.670   1.106   8.327
21730SOL    HW267088   6.694   0.958   8.308
21731SOL     OW67089   9.065  13.406  14.063
21731SOL    HW167090   9.125  13.358  14.121
21731SOL    HW267091   8.986  13.418  14.116
21732SOL     OW67092  12.537  14.859   0.979
21732SOL    HW167093  12.605  14.846   1.045
21732SOL    HW267094  12.488  14.777   0.979
21733SOL     OW67095   1.128   1.356   2.874
21733SOL    HW167096   1.081   1.410   2.810
21733SOL    HW267097   1.220   1.376   2.859
21734SOL     OW67098  14.088  11.647   2.673
21734SOL    HW167099  14.071  11.633   2.580
21734SOL    HW267100  14.071  11.740   2.687
21735SOL     OW67101   8.340   4.467   2.687
21735SOL    HW167102   8.372   4.405   2.753
21735SOL    HW267103   8.380   4.437   2.605
21736SOL     OW67104  10.352   0.826   2.830
21736SOL    HW167105  10.383   0.804   2.741
21736SOL    HW267106  10.271   0.874   2.816
21737SOL     OW67107   9.715   1.511   6.816
21737SOL    HW167108   9.648   1.531   6.882
21737SOL    HW267109   9.785   1.575   6.832
21738SOL     OW67110   5.903  13.725  14.385
21738SOL    HW167111   5.829  13.702  14.328
21738SOL    HW267112   5.929  13.642  14.425
21739SOL     OW67113   4.204   6.435  13.486
21739SOL    HW167114   4.143   6.468  13.419
21739SOL    HW267115   4.180   6.343  13.497
21740SOL     OW67116   9.328  11.387   1.812
21740SOL    HW167117   9.347  11.400   1.904
21740SOL    HW267118   9.257  11.449   1.793
21741SOL     OW67119   0.983   5.016   9.723
21741SOL    HW167120   1.012   5.097   9.681
21741SOL    HW267121   0.997   5.031   9.816
21742SOL     OW67122   9.040   8.608   7.039
21742SOL    HW167123   9.035   8.512   7.049
21742SOL    HW267124   9.104   8.622   6.969
21743SOL     OW67125   8.567   9.630  12.520
21743SOL    HW167126   8.480   9.653  12.553
21743SOL    HW267127   8.613   9.595  12.596
21744SOL     OW67128  11.262   5.562   4.373
21744SOL    HW167129  11.178   5.529   4.343
21744SOL    HW267130  11.249   5.579   4.466
21745SOL     OW67131  12.843  13.417   4.953
21745SOL    HW167132  12.806  13.490   4.905
21745SOL    HW267133  12.934  13.443   4.971
21746SOL     OW67134   2.012   6.688  11.649
21746SOL    HW167135   2.049   6.684  11.561
21746SOL    HW267136   2.003   6.782  11.667
21747SOL     OW67137   8.427  12.165  11.200
21747SOL    HW167138   8.388  12.164  11.287
21747SOL    HW267139   8.393  12.245  11.159
21748SOL     OW67140   5.140  11.272  14.457
21748SOL    HW167141   5.110  11.362  14.467
21748SOL    HW267142   5.110  11.228  14.536
21749SOL     OW67143   5.823   8.421  12.449
21749SOL    HW167144   5.816   8.516  12.458
21749SOL    HW267145   5.749   8.386  12.499
21750SOL     OW67146   7.635  10.850   5.190
21750SOL    HW167147   7.681  10.822   5.111
21750SOL    HW267148   7.625  10.945   5.179
21751SOL     OW67149   0.015  13.788  14.099
21751SOL    HW167150   0.023  13.738  14.018
21751SOL    HW267151  14.841  13.731  14.158
21752SOL     OW67152  12.054   7.957  11.498
21752SOL    HW167153  11.987   8.013  11.537
21752SOL    HW267154  12.134   8.009  11.499
21753SOL     OW67155   2.196   0.689   3.667
21753SOL    HW167156   2.179   0.740   3.588
21753SOL    HW267157   2.292   0.685   3.673
21754SOL     OW67158   7.777   8.065  13.294
21754SOL    HW167159   7.861   8.020  13.285
21754SOL    HW267160   7.723   8.028  13.223
21755SOL     OW67161  13.148   4.794  14.527
21755SOL    HW167162  13.138   4.880  14.485
21755SOL    HW267163  13.187   4.738  14.460
21756SOL     OW67164   2.379   8.894   1.111
21756SOL    HW167165   2.345   8.813   1.075
21756SOL    HW267166   2.313   8.960   1.089
21757SOL     OW67167  14.289  11.171  11.839
21757SOL    HW167168  14.196  11.148  11.835
21757SOL    HW267169  14.291  11.263  11.865
21758SOL     OW67170   1.411   1.648   9.517
21758SOL    HW167171   1.505   1.638   9.504
21758SOL    HW267172   1.404   1.699   9.598
21759SOL     OW67173   7.789   9.401   5.460
21759SOL    HW167174   7.725   9.453   5.508
21759SOL    HW267175   7.866   9.399   5.517
21760SOL     OW67176   6.258   6.440   7.891
21760SOL    HW167177   6.274   6.534   7.887
21760SOL    HW267178   6.182   6.431   7.949
21761SOL     OW67179  13.341   9.988  10.429
21761SOL    HW167180  13.245   9.990  10.434
21761SOL    HW267181  13.370  10.017  10.515
21762SOL     OW67182   8.621   7.147   3.849
21762SOL    HW167183   8.708   7.135   3.889
21762SOL    HW267184   8.629   7.228   3.799
21763SOL     OW67185   6.346  14.703   2.048
21763SOL    HW167186   6.294  14.659   1.981
21763SOL    HW267187   6.296  14.693   2.129
21764SOL     OW67188  14.582  11.513  11.121
21764SOL    HW167189  14.668  11.511  11.164
21764SOL    HW267190  14.602  11.519  11.028
21765SOL     OW67191  12.012   2.650  12.727
21765SOL    HW167192  11.939   2.634  12.787
21765SOL    HW267193  12.063   2.569  12.729
21766SOL     OW67194   0.100  12.524   7.135
21766SOL    HW167195   0.193  12.514   7.156
21766SOL    HW267196   0.095  12.607   7.088
21767SOL     OW67197   1.322   7.036   2.546
21767SOL    HW167198   1.394   7.062   2.489
21767SOL    HW267199   1.246   7.081   2.510
21768SOL     OW67200  12.991   8.844  13.160
21768SOL    HW167201  12.983   8.876  13.070
21768SOL    HW267202  12.901   8.824  13.186
21769SOL     OW67203   8.119   8.396   0.739
21769SOL    HW167204   8.108   8.309   0.778
21769SOL    HW267205   8.206   8.394   0.700
21770SOL     OW67206  12.382   1.925  14.781
21770SOL    HW167207  12.448   1.951  14.717
21770SOL    HW267208  12.298   1.936  14.736
21771SOL     OW67209  14.859   0.548   9.376
21771SOL    HW167210  14.810   0.525   9.297
21771SOL    HW267211   0.073   0.518   9.357
21772SOL     OW67212   8.104  11.308   5.881
21772SOL    HW167213   8.010  11.295   5.891
21772SOL    HW267214   8.144  11.245   5.942
21773SOL     OW67215   8.640  11.979   1.073
21773SOL    HW167216   8.583  12.055   1.072
21773SOL    HW267217   8.639  11.946   0.983
21774SOL     OW67218   5.485   7.749  13.872
21774SOL    HW167219   5.393   7.750  13.846
21774SOL    HW267220   5.485   7.716  13.962
21775SOL     OW67221   4.532   5.572   0.363
21775SOL    HW167222   4.556   5.566   0.271
21775SOL    HW267223   4.485   5.491   0.382
21776SOL     OW67224   7.814  10.715   1.401
21776SOL    HW167225   7.758  10.673   1.336
21776SOL    HW267226   7.778  10.688   1.485
21777SOL     OW67227   6.261   3.549  14.178
21777SOL    HW167228   6.230   3.561  14.267
21777SOL    HW267229   6.217   3.470  14.147
21778SOL     OW67230  10.969   3.538   0.657
21778SOL    HW167231  10.941   3.560   0.746
21778SOL    HW267232  11.059   3.508   0.667
21779SOL     OW67233  12.325  10.072   4.499
21779SOL    HW167234  12.352  10.036   4.415
21779SOL    HW267235  12.395  10.047   4.559
21780SOL     OW67236   6.467   3.422   6.634
21780SOL    HW167237   6.439   3.376   6.555
21780SOL    HW267238   6.530   3.488   6.602
21781SOL     OW67239   6.277   8.353  12.629
21781SOL    HW167240   6.341   8.283  12.619
21781SOL    HW267241   6.196   8.309  12.654
21782SOL     OW67242   1.434  14.734   3.822
21782SOL    HW167243   1.447  14.675   3.748
21782SOL    HW267244   1.521  14.771   3.837
21783SOL     OW67245   4.682   8.327   5.363
21783SOL    HW167246   4.740   8.266   5.318
21783SOL    HW267247   4.702   8.315   5.456
21784SOL     OW67248  14.401  12.066   1.622
21784SOL    HW167249  14.364  11.978   1.634
21784SOL    HW267250  14.438  12.089   1.707
21785SOL     OW67251   3.576  13.688   2.032
21785SOL    HW167252   3.670  13.703   2.023
21785SOL    HW267253   3.569  13.598   2.064
21786SOL     OW67254  13.399   4.591   1.879
21786SOL    HW167255  13.487   4.552   1.882
21786SOL    HW267256  13.359   4.553   1.801
21787SOL     OW67257   5.663   5.301  10.972
21787SOL    HW167258   5.587   5.251  11.003
21787SOL    HW267259   5.626   5.375  10.925
21788SOL     OW67260  10.979   4.006   1.991
21788SOL    HW167261  10.895   4.012   1.944
21788SOL    HW267262  11.030   4.079   1.957
21789SOL     OW67263   0.486   2.431   9.453
21789SOL    HW167264   0.490   2.362   9.387
21789SOL    HW267265   0.409   2.483   9.429
21790SOL     OW67266  10.917   4.048  14.802
21790SOL    HW167267  10.936   3.968  14.753
21790SOL    HW267268  11.001   4.092  14.810
21791SOL     OW67269   6.244  10.372   0.145
21791SOL    HW167270   6.216  10.462   0.128
21791SOL    HW267271   6.167  10.318   0.122
21792SOL     OW67272   5.206   6.086   3.168
21792SOL    HW167273   5.300   6.098   3.154
21792SOL    HW267274   5.171   6.062   3.082
21793SOL     OW67275   2.378   5.871   1.883
21793SOL    HW167276   2.335   5.812   1.945
21793SOL    HW267277   2.309   5.898   1.822
21794SOL     OW67278  13.968   3.881   6.255
21794SOL    HW167279  13.971   3.874   6.159
21794SOL    HW267280  13.891   3.936   6.272
21795SOL     OW67281   4.374  13.692   5.323
21795SOL    HW167282   4.427  13.631   5.271
21795SOL    HW267283   4.328  13.637   5.386
21796SOL     OW67284   1.158  10.904  10.188
21796SOL    HW167285   1.148  10.988  10.144
21796SOL    HW267286   1.246  10.906  10.224
21797SOL     OW67287   9.095   7.342   0.896
21797SOL    HW167288   9.165   7.278   0.905
21797SOL    HW267289   9.016   7.289   0.881
21798SOL     OW67290   3.705   0.082   0.554
21798SOL    HW167291   3.644   0.095   0.627
21798SOL    HW267292   3.741  14.869   0.568
21799SOL     OW67293   4.141   4.321   6.110
21799SOL    HW167294   4.060   4.271   6.115
21799SOL    HW267295   4.209   4.256   6.090
21800SOL     OW67296   0.053   8.777  12.367
21800SOL    HW167297   0.035   8.832  12.290
21800SOL    HW267298   0.130   8.817  12.407
21801SOL     OW67299   2.541   7.361   1.047
21801SOL    HW167300   2.504   7.409   1.121
21801SOL    HW267301   2.618   7.411   1.022
21802SOL     OW67302   4.019   8.577   1.289
21802SOL    HW167303   3.923   8.576   1.292
21802SOL    HW267304   4.040   8.626   1.209
21803SOL     OW67305  10.169   5.890  14.178
21803SOL    HW167306  10.185   5.815  14.120
21803SOL    HW267307  10.209   5.864  14.261
21804SOL     OW67308   5.399  13.131  10.906
21804SOL    HW167309   5.469  13.193  10.928
21804SOL    HW267310   5.418  13.104  10.817
21805SOL     OW67311  13.637   3.237  10.861
21805SOL    HW167312  13.696   3.246  10.936
21805SOL    HW267313  13.555   3.205  10.899
21806SOL     OW67314  11.198  13.164  12.217
21806SOL    HW167315  11.166  13.155  12.306
21806SOL    HW267316  11.223  13.256  12.210
21807SOL     OW67317   7.828   9.739   4.397
21807SOL    HW167318   7.897   9.700   4.343
21807SOL    HW267319   7.790   9.808   4.343
21808SOL     OW67320   3.120   1.865  10.538
21808SOL    HW167321   3.137   1.930  10.470
21808SOL    HW267322   3.206   1.850  10.578
21809SOL     OW67323   8.343  13.776   4.868
21809SOL    HW167324   8.376  13.843   4.808
21809SOL    HW267325   8.263  13.814   4.904
21810SOL     OW67326   2.529   2.070   5.752
21810SOL    HW167327   2.583   2.119   5.691
21810SOL    HW267328   2.468   2.021   5.697
21811SOL     OW67329   5.040  11.662   5.871
21811SOL    HW167330   4.987  11.653   5.950
21811SOL    HW267331   5.095  11.738   5.888
21812SOL     OW67332   4.551  12.644  10.254
21812SOL    HW167333   4.586  12.703  10.187
21812SOL    HW267334   4.490  12.697  10.304
21813SOL     OW67335  10.042   1.203   0.716
21813SOL    HW167336  10.046   1.196   0.620
21813SOL    HW267337  10.124   1.247   0.740
21814SOL     OW67338   1.366   0.396   6.555
21814SOL    HW167339   1.453   0.365   6.581
21814SOL    HW267340   1.312   0.386   6.633
21815SOL     OW67341  12.771  11.544  13.290
21815SOL    HW167342  12.752  11.503  13.374
21815SOL    HW267343  12.709  11.617  13.285
21816SOL     OW67344  10.506   5.439   6.111
21816SOL    HW167345  10.451   5.381   6.058
21816SOL    HW267346  10.494   5.526   6.073
21817SOL     OW67347   1.424   1.938  11.887
21817SOL    HW167348   1.446   2.026  11.918
21817SOL    HW267349   1.459   1.880  11.954
21818SOL     OW67350   5.998  11.732   8.187
21818SOL    HW167351   6.048  11.678   8.248
21818SOL    HW267352   5.938  11.782   8.242
21819SOL     OW67353   3.950  13.479   8.540
21819SOL    HW167354   3.941  13.570   8.567
21819SOL    HW267355   3.862  13.453   8.513
21820SOL     OW67356   3.786  14.403   2.565
21820SOL    HW167357   3.753  14.442   2.647
21820SOL    HW267358   3.870  14.364   2.590
21821SOL     OW67359   2.151  13.577   5.185
21821SOL    HW167360   2.180  13.493   5.149
21821SOL    HW267361   2.114  13.555   5.270
21822SOL     OW67362  11.067   2.078   3.453
21822SOL    HW167363  11.003   2.045   3.391
21822SOL    HW267364  11.150   2.038   3.426
21823SOL     OW67365  13.574   5.653  13.334
21823SOL    HW167366  13.525   5.698  13.403
21823SOL    HW267367  13.664   5.651  13.367
21824SOL     OW67368   3.524   0.321   2.154
21824SOL    HW167369   3.605   0.355   2.117
21824SOL    HW267370   3.552   0.251   2.212
21825SOL     OW67371   2.628   2.122  12.685
21825SOL    HW167372   2.590   2.125  12.773
21825SOL    HW267373   2.691   2.050  12.689
21826SOL     OW67374  14.281   4.737   6.548
21826SOL    HW167375  14.193   4.710   6.520
21826SOL    HW267376  14.337   4.717   6.473
21827SOL     OW67377   6.493  11.618   6.228
21827SOL    HW167378   6.498  11.630   6.133
21827SOL    HW267379   6.549  11.542   6.245
21828SOL     OW67380   0.064   3.541   3.561
21828SOL    HW167381   0.038   3.550   3.653
21828SOL    HW267382  14.857   3.541   3.513
21829SOL     OW67383   5.882   6.938   2.908
21829SOL    HW167384   5.967   6.981   2.917
21829SOL    HW267385   5.898   6.864   2.850
21830SOL     OW67386   6.415   7.446  11.339
21830SOL    HW167387   6.429   7.485  11.425
21830SOL    HW267388   6.463   7.503  11.278
21831SOL     OW67389  12.947  12.886  13.727
21831SOL    HW167390  12.916  12.969  13.688
21831SOL    HW267391  12.975  12.910  13.815
21832SOL     OW67392   8.802   0.449  13.661
21832SOL    HW167393   8.716   0.408  13.672
21832SOL    HW267394   8.855   0.411  13.730
21833SOL     OW67395   0.414   3.413   5.858
21833SOL    HW167396   0.506   3.423   5.833
21833SOL    HW267397   0.407   3.453   5.944
21834SOL     OW67398   3.375   6.745   5.231
21834SOL    HW167399   3.399   6.833   5.260
21834SOL    HW267400   3.454   6.711   5.189
21835SOL     OW67401   4.484  10.091  10.708
21835SOL    HW167402   4.531  10.174  10.701
21835SOL    HW267403   4.554  10.025  10.710
21836SOL     OW67404   3.039  10.453   4.074
21836SOL    HW167405   3.001  10.366   4.056
21836SOL    HW267406   2.968  10.514   4.054
21837SOL     OW67407   4.259   7.840   4.006
21837SOL    HW167408   4.251   7.820   4.100
21837SOL    HW267409   4.224   7.763   3.962
21838SOL     OW67410   1.249  12.965   1.063
21838SOL    HW167411   1.172  12.975   1.006
21838SOL    HW267412   1.213  12.963   1.151
21839SOL     OW67413  10.196  13.297  14.409
21839SOL    HW167414  10.200  13.205  14.383
21839SOL    HW267415  10.246  13.301  14.490
21840SOL     OW67416  12.633   0.136   0.765
21840SOL    HW167417  12.603   0.101   0.848
21840SOL    HW267418  12.621   0.065   0.702
21841SOL     OW67419   4.980  11.063  14.607
21841SOL    HW167420   4.908  11.054  14.545
21841SOL    HW267421   4.941  11.102  14.685
21842SOL     OW67422   0.295   4.692   7.964
21842SOL    HW167423   0.368   4.746   7.932
21842SOL    HW267424   0.317   4.673   8.055
21843SOL     OW67425   4.889   6.795  10.702
21843SOL    HW167426   4.942   6.726  10.662
21843SOL    HW267427   4.856   6.757  10.783
21844SOL     OW67428   7.568   7.885  11.965
21844SOL    HW167429   7.481   7.867  11.929
21844SOL    HW267430   7.559   7.970  12.009
21845SOL     OW67431   6.807   7.451   8.021
21845SOL    HW167432   6.786   7.535   7.979
21845SOL    HW267433   6.753   7.450   8.101
21846SOL     OW67434   7.247   1.748  12.657
21846SOL    HW167435   7.277   1.665  12.622
21846SOL    HW267436   7.214   1.796  12.581
21847SOL     OW67437  12.879   1.616   6.822
21847SOL    HW167438  12.950   1.664   6.780
21847SOL    HW267439  12.923   1.545   6.869
21848SOL     OW67440   8.010   1.164   4.623
21848SOL    HW167441   7.943   1.232   4.621
21848SOL    HW267442   7.970   1.091   4.670
21849SOL     OW67443  11.372   9.123   1.638
21849SOL    HW167444  11.299   9.146   1.697
21849SOL    HW267445  11.448   9.165   1.678
21850SOL     OW67446  14.580   3.443  11.459
21850SOL    HW167447  14.540   3.529  11.444
21850SOL    HW267448  14.518   3.397  11.516
21851SOL     OW67449   0.769   8.786   9.218
21851SOL    HW167450   0.795   8.703   9.256
21851SOL    HW267451   0.817   8.852   9.268
21852SOL     OW67452  12.608   8.310   6.708
21852SOL    HW167453  12.600   8.324   6.802
21852SOL    HW267454  12.520   8.288   6.679
21853SOL     OW67455   5.877  11.671  14.536
21853SOL    HW167456   5.968  11.642  14.531
21853SOL    HW267457   5.836  11.611  14.598
21854SOL     OW67458   0.528   4.811   5.551
21854SOL    HW167459   0.510   4.736   5.494
21854SOL    HW267460   0.504   4.781   5.639
21855SOL     OW67461  12.117   2.280   9.035
21855SOL    HW167462  12.108   2.340   8.961
21855SOL    HW267463  12.113   2.193   8.997
21856SOL     OW67464   4.612   4.634  12.201
21856SOL    HW167465   4.541   4.682  12.158
21856SOL    HW267466   4.620   4.677  12.287
21857SOL     OW67467   7.712   3.758  11.579
21857SOL    HW167468   7.760   3.676  11.591
21857SOL    HW267469   7.778   3.821  11.551
21858SOL     OW67470  13.701   7.041  10.962
21858SOL    HW167471  13.788   7.063  10.931
21858SOL    HW267472  13.697   7.077  11.051
21859SOL     OW67473   3.408   5.980  12.437
21859SOL    HW167474   3.326   5.989  12.387
21859SOL    HW267475   3.383   6.002  12.527
21860SOL     OW67476   9.425   8.365   3.634
21860SOL    HW167477   9.491   8.432   3.652
21860SOL    HW267478   9.345   8.398   3.674
21861SOL     OW67479   5.302   7.750   1.855
21861SOL    HW167480   5.281   7.764   1.947
21861SOL    HW267481   5.395   7.728   1.855
21862SOL     OW67482  10.108   2.853  12.470
21862SOL    HW167483  10.100   2.946  12.492
21862SOL    HW267484  10.178   2.821  12.526
21863SOL     OW67485  13.582  14.269   1.032
21863SOL    HW167486  13.544  14.237   0.951
21863SOL    HW267487  13.671  14.295   1.008
21864SOL     OW67488  11.506   7.618   7.605
21864SOL    HW167489  11.599   7.640   7.610
21864SOL    HW267490  11.480   7.647   7.517
21865SOL     OW67491   9.458   5.373  11.492
21865SOL    HW167492   9.412   5.364  11.576
21865SOL    HW267493   9.393   5.411  11.433
21866SOL     OW67494   8.627  10.641  10.552
21866SOL    HW167495   8.636  10.577  10.481
21866SOL    HW267496   8.543  10.618  10.593
21867SOL     OW67497  11.500  12.704  13.271
21867SOL    HW167498  11.494  12.621  13.222
21867SOL    HW267499  11.443  12.692  13.346
21868SOL     OW67500  14.446   3.751   5.540
21868SOL    HW167501  14.431   3.779   5.630
21868SOL    HW267502  14.358   3.732   5.506
21869SOL     OW67503   8.400   1.381   1.147
21869SOL    HW167504   8.482   1.430   1.152
21869SOL    HW267505   8.404   1.336   1.063
21870SOL     OW67506   4.128  11.649   1.200
21870SOL    HW167507   4.070  11.611   1.266
21870SOL    HW267508   4.137  11.581   1.134
21871SOL     OW67509  14.032   0.805   0.622
21871SOL    HW167510  13.948   0.786   0.665
21871SOL    HW267511  14.094   0.744   0.662
21872SOL     OW67512   1.820   1.172   7.533
21872SOL    HW167513   1.895   1.171   7.592
21872SOL    HW267514   1.788   1.262   7.537
21873SOL     OW67515   2.113  10.266  14.435
21873SOL    HW167516   2.165  10.346  14.423
21873SOL    HW267517   2.078  10.246  14.349
21874SOL     OW67518   5.771   8.461  13.877
21874SOL    HW167519   5.863   8.437  13.878
21874SOL    HW267520   5.729   8.401  13.938
21875SOL     OW67521  13.723  11.439   7.034
21875SOL    HW167522  13.704  11.357   6.989
21875SOL    HW267523  13.815  11.456   7.015
21876SOL     OW67524   9.800  13.074   3.016
21876SOL    HW167525   9.852  13.114   3.086
21876SOL    HW267526   9.751  13.004   3.059
21877SOL     OW67527   9.244   6.252   7.357
21877SOL    HW167528   9.279   6.341   7.350
21877SOL    HW267529   9.258   6.228   7.449
21878SOL     OW67530   0.108   0.529   2.371
21878SOL    HW167531   0.089   0.513   2.464
21878SOL    HW267532   0.196   0.493   2.358
21879SOL     OW67533   8.669   8.260   5.218
21879SOL    HW167534   8.620   8.303   5.148
21879SOL    HW267535   8.667   8.324   5.290
21880SOL     OW67536   2.106   1.427   1.684
21880SOL    HW167537   2.135   1.432   1.775
21880SOL    HW267538   2.129   1.339   1.656
21881SOL     OW67539  14.249   6.361   9.882
21881SOL    HW167540  14.206   6.316   9.955
21881SOL    HW267541  14.189   6.431   9.858
21882SOL     OW67542   5.089   1.893   6.155
21882SOL    HW167543   5.173   1.935   6.174
21882SOL    HW267544   5.105   1.800   6.171
21883SOL     OW67545   1.891   7.584   8.625
21883SOL    HW167546   1.858   7.505   8.669
21883SOL    HW267547   1.826   7.602   8.557
21884SOL     OW67548   1.296  13.752  10.894
21884SOL    HW167549   1.252  13.708  10.821
21884SOL    HW267550   1.365  13.803  10.853
21885SOL     OW67551  11.306  14.541   5.721
21885SOL    HW167552  11.276  14.453   5.701
21885SOL    HW267553  11.401  14.538   5.709
21886SOL     OW67554   1.297   7.369   8.673
21886SOL    HW167555   1.314   7.291   8.725
21886SOL    HW267556   1.244   7.426   8.730
21887SOL     OW67557   6.683   6.587   3.529
21887SOL    HW167558   6.705   6.530   3.603
21887SOL    HW267559   6.633   6.531   3.470
21888SOL     OW67560   4.560  10.753   4.946
21888SOL    HW167561   4.597  10.738   4.859
21888SOL    HW267562   4.535  10.846   4.946
21889SOL     OW67563  12.347   2.793   7.643
21889SOL    HW167564  12.295   2.742   7.581
21889SOL    HW267565  12.294   2.871   7.661
21890SOL     OW67566   4.004  10.548  13.102
21890SOL    HW167567   3.989  10.457  13.077
21890SOL    HW267568   3.917  10.584  13.114
21891SOL     OW67569  14.630  11.740   4.050
21891SOL    HW167570  14.570  11.665   4.053
21891SOL    HW267571  14.716  11.701   4.037
21892SOL     OW67572  13.667   7.162  11.196
21892SOL    HW167573  13.760   7.150  11.218
21892SOL    HW267574  13.659   7.256  11.179
21893SOL     OW67575  12.571   8.136   2.234
21893SOL    HW167576  12.593   8.225   2.261
21893SOL    HW267577  12.621   8.122   2.154
21894SOL     OW67578   0.143  12.838   6.564
21894SOL    HW167579   0.180  12.751   6.546
21894SOL    HW267580   0.049  12.826   6.555
21895SOL     OW67581  11.783   7.616  10.106
21895SOL    HW167582  11.725   7.593  10.178
21895SOL    HW267583  11.787   7.711  10.107
21896SOL     OW67584   0.794  12.025   9.457
21896SOL    HW167585   0.776  12.077   9.535
21896SOL    HW267586   0.889  12.028   9.447
21897SOL     OW67587  10.992  11.385   2.638
21897SOL    HW167588  10.907  11.417   2.607
21897SOL    HW267589  10.996  11.294   2.606
21898SOL     OW67590   2.908  12.988   7.583
21898SOL    HW167591   2.918  12.957   7.673
21898SOL    HW267592   2.833  12.939   7.549
21899SOL     OW67593   9.241   4.815   0.347
21899SOL    HW167594   9.162   4.770   0.317
21899SOL    HW267595   9.313   4.758   0.320
21900SOL     OW67596  10.965   0.267   1.683
21900SOL    HW167597  10.971   0.292   1.775
21900SOL    HW267598  11.056   0.261   1.654
21901SOL     OW67599  13.336   2.767   2.647
21901SOL    HW167600  13.369   2.856   2.640
21901SOL    HW267601  13.415   2.713   2.651
21902SOL     OW67602  12.688  10.750   9.963
21902SOL    HW167603  12.611  10.717   9.918
21902SOL    HW267604  12.762  10.721   9.909
21903SOL     OW67605  13.858   2.201   5.758
21903SOL    HW167606  13.915   2.144   5.707
21903SOL    HW267607  13.832   2.147   5.833
21904SOL     OW67608   1.234   5.068   9.117
21904SOL    HW167609   1.180   5.136   9.076
21904SOL    HW267610   1.299   5.046   9.051
21905SOL     OW67611  13.442   2.924   9.667
21905SOL    HW167612  13.522   2.956   9.710
21905SOL    HW267613  13.473   2.854   9.608
21906SOL     OW67614   9.308  12.401   2.457
21906SOL    HW167615   9.353  12.435   2.380
21906SOL    HW267616   9.359  12.432   2.531
21907SOL     OW67617  12.405  11.227   7.926
21907SOL    HW167618  12.343  11.279   7.977
21907SOL    HW267619  12.353  11.191   7.854
21908SOL     OW67620  13.415   4.208  11.571
21908SOL    HW167621  13.380   4.162  11.495
21908SOL    HW267622  13.349   4.197  11.639
21909SOL     OW67623  14.656   1.907  14.333
21909SOL    HW167624  14.705   1.975  14.286
21909SOL    HW267625  14.687   1.825  14.294
21910SOL     OW67626   9.056   2.877   5.485
21910SOL    HW167627   9.083   2.968   5.496
21910SOL    HW267628   9.100   2.830   5.556
21911SOL     OW67629  13.894  13.965   7.266
21911SOL    HW167630  13.887  14.020   7.344
21911SOL    HW267631  13.806  13.931   7.252
21912SOL     OW67632   6.459   9.967   1.803
21912SOL    HW167633   6.426  10.023   1.733
21912SOL    HW267634   6.495  10.028   1.868
21913SOL     OW67635   5.356  13.478   1.264
21913SOL    HW167636   5.435  13.453   1.217
21913SOL    HW267637   5.300  13.518   1.197
21914SOL     OW67638   0.503   4.384   3.005
21914SOL    HW167639   0.587   4.355   2.968
21914SOL    HW267640   0.526   4.416   3.092
21915SOL     OW67641   6.050  12.423  10.329
21915SOL    HW167642   5.990  12.491  10.298
21915SOL    HW267643   6.091  12.461  10.406
21916SOL     OW67644   1.479  11.769   7.942
21916SOL    HW167645   1.454  11.746   7.853
21916SOL    HW267646   1.449  11.696   7.996
21917SOL     OW67647  12.666  13.718   6.248
21917SOL    HW167648  12.692  13.642   6.196
21917SOL    HW267649  12.579  13.740   6.216
21918SOL     OW67650   8.723  12.494   0.482
21918SOL    HW167651   8.681  12.417   0.520
21918SOL    HW267652   8.791  12.518   0.545
21919SOL     OW67653  10.813   5.346  13.840
21919SOL    HW167654  10.727   5.330  13.878
21919SOL    HW267655  10.874   5.302  13.899
21920SOL     OW67656   6.469  10.098   5.441
21920SOL    HW167657   6.416  10.077   5.364
21920SOL    HW267658   6.415  10.159   5.491
21921SOL     OW67659   5.250   2.801   9.596
21921SOL    HW167660   5.279   2.815   9.506
21921SOL    HW267661   5.270   2.709   9.614
21922SOL     OW67662  14.196   4.577   8.324
21922SOL    HW167663  14.233   4.528   8.251
21922SOL    HW267664  14.221   4.525   8.401
21923SOL     OW67665   8.581   0.373   4.184
21923SOL    HW167666   8.623   0.379   4.270
21923SOL    HW267667   8.626   0.439   4.131
21924SOL     OW67668  14.027   6.387  13.301
21924SOL    HW167669  13.939   6.407  13.270
21924SOL    HW267670  14.024   6.294  13.324
21925SOL     OW67671   7.578   1.824  10.964
21925SOL    HW167672   7.659   1.792  11.003
21925SOL    HW267673   7.560   1.762  10.893
21926SOL     OW67674   7.705   1.721   6.991
21926SOL    HW167675   7.658   1.801   7.013
21926SOL    HW267676   7.637   1.662   6.958
21927SOL     OW67677   5.599   3.754  12.111
21927SOL    HW167678   5.547   3.674  12.118
21927SOL    HW267679   5.542   3.823  12.145
21928SOL     OW67680   5.877   4.304   8.685
21928SOL    HW167681   5.830   4.244   8.627
21928SOL    HW267682   5.874   4.389   8.639
21929SOL     OW67683   0.277   2.996  13.867
21929SOL    HW167684   0.193   3.041  13.869
21929SOL    HW267685   0.260   2.915  13.819
21930SOL     OW67686   5.723   7.311   6.464
21930SOL    HW167687   5.662   7.271   6.526
21930SOL    HW267688   5.671   7.377   6.418
21931SOL     OW67689   9.262   9.233   0.521
21931SOL    HW167690   9.300   9.145   0.523
21931SOL    HW267691   9.202   9.232   0.446
21932SOL     OW67692   5.859   6.967   2.555
21932SOL    HW167693   5.809   6.907   2.500
21932SOL    HW267694   5.905   6.910   2.618
21933SOL     OW67695  11.054  12.823  13.755
21933SOL    HW167696  11.037  12.782  13.839
21933SOL    HW267697  11.098  12.905  13.776
21934SOL     OW67698  13.260  10.774   2.543
21934SOL    HW167699  13.293  10.763   2.632
21934SOL    HW267700  13.240  10.685   2.514
21935SOL     OW67701   0.394   6.670   7.423
21935SOL    HW167702   0.433   6.657   7.510
21935SOL    HW267703   0.319   6.612   7.422
21936SOL     OW67704   3.360   4.026   5.696
21936SOL    HW167705   3.396   4.065   5.616
21936SOL    HW267706   3.343   3.935   5.673
21937SOL     OW67707   8.874   0.067   4.265
21937SOL    HW167708   8.809   0.118   4.315
21937SOL    HW267709   8.847   0.078   4.174
21938SOL     OW67710   7.669  11.733   1.523
21938SOL    HW167711   7.663  11.680   1.602
21938SOL    HW267712   7.751  11.782   1.532
21939SOL     OW67713   7.866   0.251  13.331
21939SOL    HW167714   7.958   0.229  13.316
21939SOL    HW267715   7.868   0.328  13.387
21940SOL     OW67716   4.710   2.664   0.321
21940SOL    HW167717   4.761   2.689   0.398
21940SOL    HW267718   4.718   2.739   0.262
21941SOL     OW67719   7.012   4.849   7.225
21941SOL    HW167720   7.056   4.927   7.259
21941SOL    HW267721   6.919   4.865   7.241
21942SOL     OW67722   8.578  12.892   5.565
21942SOL    HW167723   8.615  12.968   5.610
21942SOL    HW267724   8.490  12.921   5.540
21943SOL     OW67725  13.511   3.859   8.622
21943SOL    HW167726  13.465   3.778   8.600
21943SOL    HW267727  13.520   3.857   8.717
21944SOL     OW67728   1.612  13.146   8.556
21944SOL    HW167729   1.600  13.221   8.498
21944SOL    HW267730   1.616  13.071   8.498
21945SOL     OW67731   4.848   1.916   7.268
21945SOL    HW167732   4.800   1.873   7.197
21945SOL    HW267733   4.937   1.926   7.234
21946SOL     OW67734   6.974   3.200   6.875
21946SOL    HW167735   6.964   3.139   6.802
21946SOL    HW267736   6.986   3.286   6.833
21947SOL     OW67737  10.636  13.648   8.971
21947SOL    HW167738  10.614  13.558   8.950
21947SOL    HW267739  10.718  13.642   9.020
21948SOL     OW67740   3.516   2.545   6.987
21948SOL    HW167741   3.543   2.470   6.935
21948SOL    HW267742   3.456   2.509   7.052
21949SOL     OW67743  12.935   0.677  11.764
21949SOL    HW167744  12.903   0.766  11.781
21949SOL    HW267745  13.026   0.677  11.795
21950SOL     OW67746   5.495   4.468   9.052
21950SOL    HW167747   5.550   4.421   8.990
21950SOL    HW267748   5.541   4.463   9.135
21951SOL     OW67749   9.376   5.796   1.210
21951SOL    HW167750   9.449   5.825   1.264
21951SOL    HW267751   9.411   5.722   1.160
21952SOL     OW67752  13.543   5.792  12.656
21952SOL    HW167753  13.483   5.719  12.641
21952SOL    HW267754  13.628   5.750  12.668
21953SOL     OW67755   2.922   3.579   3.183
21953SOL    HW167756   2.926   3.674   3.177
21953SOL    HW267757   3.013   3.550   3.174
21954SOL     OW67758   7.087  13.187   7.838
21954SOL    HW167759   7.151  13.157   7.902
21954SOL    HW267760   7.043  13.260   7.881
21955SOL     OW67761   1.155   2.783   6.334
21955SOL    HW167762   1.120   2.866   6.301
21955SOL    HW267763   1.155   2.725   6.258
21956SOL     OW67764  13.267   0.256   0.216
21956SOL    HW167765  13.312   0.175   0.192
21956SOL    HW267766  13.196   0.227   0.274
21957SOL     OW67767   5.262   0.909   0.400
21957SOL    HW167768   5.343   0.863   0.421
21957SOL    HW267769   5.291   0.993   0.365
21958SOL     OW67770  10.721  11.124   9.321
21958SOL    HW167771  10.808  11.102   9.289
21958SOL    HW267772  10.733  11.139   9.415
21959SOL     OW67773   7.836   6.936   0.941
21959SOL    HW167774   7.818   6.957   1.033
21959SOL    HW267775   7.751   6.908   0.906
21960SOL     OW67776  11.797  14.123   9.302
21960SOL    HW167777  11.745  14.202   9.318
21960SOL    HW267778  11.759  14.057   9.361
21961SOL     OW67779  13.568   1.908   3.533
21961SOL    HW167780  13.590   1.820   3.563
21961SOL    HW267781  13.544   1.897   3.441
21962SOL     OW67782  13.125  13.235  11.324
21962SOL    HW167783  13.112  13.294  11.250
21962SOL    HW267784  13.153  13.293  11.396
21963SOL     OW67785  14.426  11.178   3.470
21963SOL    HW167786  14.335  11.166   3.496
21963SOL    HW267787  14.424  11.183   3.375
21964SOL     OW67788  12.077  14.438   0.892
21964SOL    HW167789  12.102  14.349   0.915
21964SOL    HW267790  12.048  14.432   0.801
21965SOL     OW67791   2.121   1.840   8.199
21965SOL    HW167792   2.104   1.825   8.292
21965SOL    HW267793   2.216   1.828   8.190
21966SOL     OW67794  11.407   3.299   9.276
21966SOL    HW167795  11.428   3.371   9.335
21966SOL    HW267796  11.338   3.333   9.220
21967SOL     OW67797   2.104   3.611   7.858
21967SOL    HW167798   2.132   3.664   7.932
21967SOL    HW267799   2.043   3.666   7.810
21968SOL     OW67800   7.604   0.305  10.194
21968SOL    HW167801   7.516   0.335  10.217
21968SOL    HW267802   7.658   0.384  10.196
21969SOL     OW67803  14.305  12.672   4.971
21969SOL    HW167804  14.231  12.713   5.016
21969SOL    HW267805  14.338  12.606   5.032
21970SOL     OW67806   4.022  11.546   6.528
21970SOL    HW167807   3.966  11.480   6.569
21970SOL    HW267808   4.052  11.505   6.447
21971SOL     OW67809  11.759  11.485   1.574
21971SOL    HW167810  11.769  11.536   1.494
21971SOL    HW267811  11.721  11.402   1.546
21972SOL     OW67812   3.669   7.742   8.739
21972SOL    HW167813   3.716   7.800   8.798
21972SOL    HW267814   3.584   7.783   8.727
21973SOL     OW67815   1.253   5.310  14.212
21973SOL    HW167816   1.209   5.392  14.188
21973SOL    HW267817   1.183   5.246  14.217
21974SOL     OW67818  13.178   8.032   4.294
21974SOL    HW167819  13.259   8.040   4.245
21974SOL    HW267820  13.109   8.049   4.229
21975SOL     OW67821   6.207  12.477   6.274
21975SOL    HW167822   6.296  12.508   6.292
21975SOL    HW267823   6.155  12.556   6.263
21976SOL     OW67824   9.295   1.652   6.823
21976SOL    HW167825   9.312   1.561   6.797
21976SOL    HW267826   9.222   1.679   6.768
21977SOL     OW67827   2.966  10.541   2.631
21977SOL    HW167828   2.977  10.513   2.540
21977SOL    HW267829   2.899  10.609   2.628
21978SOL     OW67830  14.766  11.932  10.111
21978SOL    HW167831  14.745  11.860  10.170
21978SOL    HW267832  14.748  12.011  10.162
21979SOL     OW67833   0.148   2.349   0.859
21979SOL    HW167834   0.135   2.432   0.814
21979SOL    HW267835   0.243   2.344   0.873
21980SOL     OW67836  11.165   1.967  13.080
21980SOL    HW167837  11.204   2.024  13.014
21980SOL    HW267838  11.086   1.932  13.037
21981SOL     OW67839  13.141   7.363   2.910
21981SOL    HW167840  13.117   7.270   2.908
21981SOL    HW267841  13.194   7.376   2.832
21982SOL     OW67842   6.567  10.495   1.074
21982SOL    HW167843   6.608  10.560   1.018
21982SOL    HW267844   6.551  10.542   1.157
21983SOL     OW67845  12.000  13.017  10.946
21983SOL    HW167846  12.015  13.061  10.862
21983SOL    HW267847  11.907  12.997  10.946
21984SOL     OW67848  12.947  10.732   8.790
21984SOL    HW167849  12.978  10.818   8.818
21984SOL    HW267850  13.022  10.674   8.803
21985SOL     OW67851  11.501  14.107  12.161
21985SOL    HW167852  11.574  14.163  12.188
21985SOL    HW267853  11.528  14.019  12.185
21986SOL     OW67854  11.646   1.175  11.868
21986SOL    HW167855  11.552   1.193  11.872
21986SOL    HW267856  11.655   1.107  11.802
21987SOL     OW67857  12.158  13.667  13.369
21987SOL    HW167858  12.252  13.651  13.358
21987SOL    HW267859  12.115  13.594  13.324
21988SOL     OW67860   9.604  13.834  14.522
21988SOL    HW167861   9.583  13.841  14.429
21988SOL    HW267862   9.527  13.871  14.566
21989SOL     OW67863   1.281  11.146  10.048
21989SOL    HW167864   1.232  11.182  10.122
21989SOL    HW267865   1.371  11.139  10.081
21990SOL     OW67866  14.029  12.385   0.583
21990SOL    HW167867  14.071  12.323   0.643
21990SOL    HW267868  13.960  12.426   0.635
21991SOL     OW67869  13.787  12.140   1.173
21991SOL    HW167870  13.695  12.158   1.154
21991SOL    HW267871  13.788  12.112   1.264
21992SOL     OW67872   9.065   3.143   1.620
21992SOL    HW167873   9.017   3.168   1.698
21992SOL    HW267874   9.104   3.058   1.642
21993SOL     OW67875   5.706   5.021   1.424
21993SOL    HW167876   5.785   5.037   1.477
21993SOL    HW267877   5.696   4.926   1.425
21994SOL     OW67878  13.165   2.732   1.233
21994SOL    HW167879  13.241   2.789   1.218
21994SOL    HW267880  13.090   2.791   1.228
21995SOL     OW67881  11.454   4.739   9.393
21995SOL    HW167882  11.405   4.817   9.367
21995SOL    HW267883  11.525   4.772   9.448
21996SOL     OW67884   3.346   1.005   2.131
21996SOL    HW167885   3.275   1.050   2.087
21996SOL    HW267886   3.362   0.927   2.078
21997SOL     OW67887   9.007   4.939   4.983
21997SOL    HW167888   8.916   4.965   4.969
21997SOL    HW267889   9.058   4.998   4.929
21998SOL     OW67890  11.412   3.652  12.108
21998SOL    HW167891  11.467   3.626  12.035
21998SOL    HW267892  11.472   3.658  12.182
21999SOL     OW67893  12.654   6.091   8.918
21999SOL    HW167894  12.688   6.004   8.898
21999SOL    HW267895  12.729   6.150   8.909
22000SOL     OW67896   1.053   9.689   6.786
22000SOL    HW167897   1.030   9.600   6.762
22000SOL    HW267898   0.978   9.720   6.837
22001SOL     OW67899   2.838   3.508  12.838
22001SOL    HW167900   2.863   3.593  12.802
22001SOL    HW267901   2.861   3.445  12.770
22002SOL     OW67902   6.675  10.385   4.055
22002SOL    HW167903   6.614  10.437   4.107
22002SOL    HW267904   6.721  10.450   4.002
22003SOL     OW67905   8.038   3.784   1.465
22003SOL    HW167906   7.961   3.732   1.443
22003SOL    HW267907   8.053   3.768   1.558
22004SOL     OW67908   8.450   7.395  12.066
22004SOL    HW167909   8.499   7.391  12.148
22004SOL    HW267910   8.480   7.320  12.016
22005SOL     OW67911  13.081   0.805   6.492
22005SOL    HW167912  13.076   0.897   6.468
22005SOL    HW267913  12.990   0.774   6.485
22006SOL     OW67914   9.258   1.920   9.235
22006SOL    HW167915   9.210   1.902   9.153
22006SOL    HW267916   9.189   1.930   9.301
22007SOL     OW67917   8.441   3.121   2.845
22007SOL    HW167918   8.396   3.075   2.916
22007SOL    HW267919   8.424   3.066   2.768
22008SOL     OW67920   3.116   7.930   4.304
22008SOL    HW167921   3.184   7.992   4.331
22008SOL    HW267922   3.057   7.926   4.379
22009SOL     OW67923  14.682   0.294   7.491
22009SOL    HW167924  14.778   0.293   7.494
22009SOL    HW267925  14.661   0.366   7.431
22010SOL     OW67926  14.427   4.809   9.725
22010SOL    HW167927  14.509   4.827   9.771
22010SOL    HW267928  14.370   4.772   9.792
22011SOL     OW67929   4.105   9.501  14.763
22011SOL    HW167930   4.118   9.427  14.822
22011SOL    HW267931   4.146   9.473  14.681
22012SOL     OW67932   1.395  12.663  12.990
22012SOL    HW167933   1.428  12.576  13.011
22012SOL    HW267934   1.383  12.705  13.075
22013SOL     OW67935  14.018  11.886  11.511
22013SOL    HW167936  14.097  11.854  11.556
22013SOL    HW267937  13.957  11.907  11.582
22014SOL     OW67938  12.462   1.294  13.883
22014SOL    HW167939  12.554   1.276  13.862
22014SOL    HW267940  12.464   1.378  13.928
22015SOL     OW67941   5.886  13.175   4.964
22015SOL    HW167942   5.810  13.216   4.921
22015SOL    HW267943   5.937  13.138   4.892
22016SOL     OW67944   9.680   0.238   5.716
22016SOL    HW167945   9.757   0.221   5.662
22016SOL    HW267946   9.606   0.213   5.661
22017SOL     OW67947   8.896  14.633   5.786
22017SOL    HW167948   8.860  14.701   5.729
22017SOL    HW267949   8.921  14.679   5.866
22018SOL     OW67950  12.636   0.761   2.919
22018SOL    HW167951  12.695   0.754   2.994
22018SOL    HW267952  12.548   0.757   2.956
22019SOL     OW67953  10.060   2.493  10.444
22019SOL    HW167954  10.095   2.581  10.455
22019SOL    HW267955  10.107   2.457  10.369
22020SOL     OW67956   6.204   8.609   8.416
22020SOL    HW167957   6.238   8.558   8.342
22020SOL    HW267958   6.279   8.624   8.472
22021SOL     OW67959  12.550   0.134  14.327
22021SOL    HW167960  12.518   0.062  14.273
22021SOL    HW267961  12.558   0.096  14.415
22022SOL     OW67962  13.411   5.381   8.675
22022SOL    HW167963  13.408   5.475   8.662
22022SOL    HW267964  13.504   5.360   8.682
22023SOL     OW67965   7.377   5.985  11.790
22023SOL    HW167966   7.395   6.076  11.810
22023SOL    HW267967   7.442   5.962  11.723
22024SOL     OW67968   4.287  14.085  11.147
22024SOL    HW167969   4.224  14.157  11.157
22024SOL    HW267970   4.261  14.042  11.066
22025SOL     OW67971  14.011   0.425   6.719
22025SOL    HW167972  14.089   0.476   6.742
22025SOL    HW267973  14.039   0.370   6.646
22026SOL     OW67974   9.509   2.023   9.109
22026SOL    HW167975   9.426   2.019   9.156
22026SOL    HW267976   9.563   1.956   9.151
22027SOL     OW67977  12.249  12.654  11.371
22027SOL    HW167978  12.314  12.724  11.382
22027SOL    HW267979  12.226  12.658  11.278
22028SOL     OW67980  12.669   2.957   0.902
22028SOL    HW167981  12.588   2.971   0.951
22028SOL    HW267982  12.694   2.866   0.922
22029SOL     OW67983  11.324   1.753   9.958
22029SOL    HW167984  11.414   1.750   9.924
22029SOL    HW267985  11.307   1.846   9.972
22030SOL     OW67986   4.844   6.886   6.242
22030SOL    HW167987   4.816   6.847   6.160
22030SOL    HW267988   4.815   6.977   6.238
22031SOL     OW67989  10.141   9.685  10.961
22031SOL    HW167990  10.147   9.776  10.931
22031SOL    HW267991  10.060   9.682  11.013
22032SOL     OW67992   0.392  11.495  12.117
22032SOL    HW167993   0.456  11.435  12.154
22032SOL    HW267994   0.354  11.448  12.043
22033SOL     OW67995   2.505  11.119   4.073
22033SOL    HW167996   2.524  11.164   3.990
22033SOL    HW267997   2.591  11.094   4.107
22034SOL     OW67998  10.987  13.161   9.315
22034SOL    HW167999  10.968  13.152   9.221
22034SOL    HW268000  10.908  13.129   9.358
22035SOL     OW68001   9.561   8.755  14.476
22035SOL    HW168002   9.491   8.801  14.523
22035SOL    HW268003   9.599   8.696  14.540
22036SOL     OW68004   1.537  14.649   6.172
22036SOL    HW168005   1.516  14.736   6.139
22036SOL    HW268006   1.589  14.665   6.251
22037SOL     OW68007  11.409   1.339  10.404
22037SOL    HW168008  11.443   1.420  10.442
22037SOL    HW268009  11.324   1.326  10.446
22038SOL     OW68010   4.675  10.227   1.867
22038SOL    HW168011   4.678  10.241   1.772
22038SOL    HW268012   4.584  10.207   1.886
22039SOL     OW68013   0.834   8.629  13.746
22039SOL    HW168014   0.917   8.619  13.793
22039SOL    HW268015   0.815   8.540  13.714
22040SOL     OW68016   4.515   9.039   4.207
22040SOL    HW168017   4.492   9.004   4.122
22040SOL    HW268018   4.518   8.963   4.265
22041SOL     OW68019   2.902  10.769  10.039
22041SOL    HW168020   2.966  10.766   9.968
22041SOL    HW268021   2.942  10.717  10.109
22042SOL     OW68022  11.342   8.685   7.407
22042SOL    HW168023  11.277   8.616   7.400
22042SOL    HW268024  11.313   8.737   7.483
22043SOL     OW68025   1.258   9.324   4.745
22043SOL    HW168026   1.228   9.381   4.674
22043SOL    HW268027   1.202   9.347   4.819
22044SOL     OW68028   8.689   7.634  12.558
22044SOL    HW168029   8.698   7.543  12.587
22044SOL    HW268030   8.636   7.629  12.478
22045SOL     OW68031   0.846   5.774   5.979
22045SOL    HW168032   0.851   5.684   6.011
22045SOL    HW268033   0.856   5.767   5.884
22046SOL     OW68034   7.135   9.415   8.980
22046SOL    HW168035   7.114   9.437   8.889
22046SOL    HW268036   7.130   9.319   8.982
22047SOL     OW68037   7.142   5.843   0.905
22047SOL    HW168038   7.163   5.905   0.835
22047SOL    HW268039   7.058   5.872   0.938
22048SOL     OW68040  11.587   6.706   2.599
22048SOL    HW168041  11.604   6.622   2.642
22048SOL    HW268042  11.613   6.771   2.664
22049SOL     OW68043  13.087  13.612   1.550
22049SOL    HW168044  12.998  13.620   1.585
22049SOL    HW268045  13.139  13.582   1.624
22050SOL     OW68046   0.209   7.313   2.134
22050SOL    HW168047   0.226   7.364   2.213
22050SOL    HW268048   0.151   7.243   2.162
22051SOL     OW68049   5.698   9.367   2.012
22051SOL    HW168050   5.753   9.437   2.047
22051SOL    HW268051   5.618   9.411   1.985
22052SOL     OW68052  13.531   7.361   5.895
22052SOL    HW168053  13.614   7.405   5.916
22052SOL    HW268054  13.544   7.324   5.808
22053SOL     OW68055   9.932  10.814  12.176
22053SOL    HW168056   9.919  10.735  12.123
22053SOL    HW268057  10.006  10.858  12.135
22054SOL     OW68058   2.524   3.045  12.645
22054SOL    HW168059   2.607   3.039  12.692
22054SOL    HW268060   2.547   3.086  12.562
22055SOL     OW68061   5.652  14.402   9.818
22055SOL    HW168062   5.657  14.310   9.792
22055SOL    HW268063   5.669  14.402   9.912
22056SOL     OW68064   2.058  12.529  12.608
22056SOL    HW168065   2.010  12.539  12.689
22056SOL    HW268066   2.006  12.576  12.543
22057SOL     OW68067   3.625  10.053  13.514
22057SOL    HW168068   3.675   9.973  13.527
22057SOL    HW268069   3.676  10.103  13.451
22058SOL     OW68070   4.011  10.270  13.738
22058SOL    HW168071   4.018  10.297  13.646
22058SOL    HW268072   4.031  10.177  13.737
22059SOL     OW68073   0.137   7.316   4.669
22059SOL    HW168074   0.076   7.387   4.685
22059SOL    HW268075   0.094   7.260   4.604
22060SOL     OW68076   3.370   1.875   5.808
22060SOL    HW168077   3.333   1.855   5.894
22060SOL    HW268078   3.360   1.793   5.759
22061SOL     OW68079   5.491  12.698  11.747
22061SOL    HW168080   5.474  12.779  11.700
22061SOL    HW268081   5.414  12.686  11.803
22062SOL     OW68082   4.377   2.201   5.015
22062SOL    HW168083   4.285   2.200   4.991
22062SOL    HW268084   4.384   2.272   5.079
22063SOL     OW68085  13.122  10.776  11.986
22063SOL    HW168086  13.103  10.850  12.044
22063SOL    HW268087  13.217  10.778  11.976
22064SOL     OW68088  12.636  13.617   5.078
22064SOL    HW168089  12.559  13.591   5.127
22064SOL    HW268090  12.710  13.594   5.135
22065SOL     OW68091  13.552  10.296  12.735
22065SOL    HW168092  13.537  10.348  12.656
22065SOL    HW268093  13.550  10.205  12.704
22066SOL     OW68094  14.427   3.945   3.091
22066SOL    HW168095  14.402   3.863   3.047
22066SOL    HW268096  14.375   3.945   3.171
22067SOL     OW68097   0.231   7.415   4.924
22067SOL    HW168098   0.236   7.396   4.830
22067SOL    HW268099   0.284   7.494   4.935
22068SOL     OW68100  14.088  14.373   8.342
22068SOL    HW168101  14.178  14.340   8.346
22068SOL    HW268102  14.034  14.296   8.324
22069SOL     OW68103  10.563  11.823   2.234
22069SOL    HW168104  10.558  11.906   2.283
22069SOL    HW268105  10.508  11.763   2.284
22070SOL     OW68106   1.713  11.793   7.716
22070SOL    HW168107   1.731  11.836   7.800
22070SOL    HW268108   1.701  11.864   7.654
22071SOL     OW68109   1.325  11.495  12.289
22071SOL    HW168110   1.258  11.549  12.329
22071SOL    HW268111   1.337  11.531  12.201
22072SOL     OW68112   2.659  11.629   5.931
22072SOL    HW168113   2.661  11.643   5.836
22072SOL    HW268114   2.566  11.637   5.954
22073SOL     OW68115  14.855  12.354  13.769
22073SOL    HW168116  14.765  12.325  13.749
22073SOL    HW268117   0.022  12.361  13.683
22074SOL     OW68118  11.050   6.883  12.507
22074SOL    HW168119  11.064   6.789  12.514
22074SOL    HW268120  11.045   6.900  12.413
22075SOL     OW68121  14.774   2.714  12.864
22075SOL    HW168122  14.852   2.714  12.809
22075SOL    HW268123  14.790   2.783  12.929
22076SOL     OW68124   6.165  12.645   9.576
22076SOL    HW168125   6.185  12.684   9.661
22076SOL    HW268126   6.095  12.700   9.540
22077SOL     OW68127  11.929   1.270   8.674
22077SOL    HW168128  11.962   1.189   8.712
22077SOL    HW268129  11.881   1.312   8.745
22078SOL     OW68130   5.931   0.659   5.087
22078SOL    HW168131   5.927   0.715   5.009
22078SOL    HW268132   6.020   0.624   5.086
22079SOL     OW68133  13.037  12.912   5.071
22079SOL    HW168134  13.000  12.876   5.151
22079SOL    HW268135  12.963  12.918   5.011
22080SOL     OW68136  12.469   2.639   5.463
22080SOL    HW168137  12.561   2.643   5.440
22080SOL    HW268138  12.461   2.692   5.543
22081SOL     OW68139  12.356  11.492   5.813
22081SOL    HW168140  12.268  11.496   5.776
22081SOL    HW268141  12.342  11.472   5.905
22082SOL     OW68142   1.041   2.359   4.017
22082SOL    HW168143   0.968   2.309   3.980
22082SOL    HW268144   1.105   2.364   3.945
22083SOL     OW68145  12.821   0.268   1.028
22083SOL    HW168146  12.860   0.311   0.952
22083SOL    HW268147  12.858   0.180   1.027
22084SOL     OW68148   0.027  11.292   1.816
22084SOL    HW168149   0.059  11.347   1.745
22084SOL    HW268150   0.022  11.351   1.892
22085SOL     OW68151  11.501   3.006   8.212
22085SOL    HW168152  11.574   3.003   8.150
22085SOL    HW268153  11.502   2.919   8.253
22086SOL     OW68154  11.277   7.496   3.251
22086SOL    HW168155  11.246   7.458   3.169
22086SOL    HW268156  11.222   7.573   3.264
22087SOL     OW68157  12.904   1.970  14.617
22087SOL    HW168158  12.900   1.887  14.569
22087SOL    HW268159  12.991   1.971  14.657
22088SOL     OW68160   8.419   2.335   8.197
22088SOL    HW168161   8.502   2.322   8.242
22088SOL    HW268162   8.355   2.284   8.248
22089SOL     OW68163   2.640   6.830  14.290
22089SOL    HW168164   2.607   6.741  14.303
22089SOL    HW268165   2.616   6.851  14.200
22090SOL     OW68166   4.070   2.955   2.412
22090SOL    HW168167   3.981   2.924   2.424
22090SOL    HW268168   4.123   2.903   2.473
22091SOL     OW68169  14.874   6.616  13.221
22091SOL    HW168170  14.797   6.672  13.228
22091SOL    HW268171   0.002   6.590  13.129
22092SOL     OW68172   1.831  13.459   3.548
22092SOL    HW168173   1.815  13.402   3.473
22092SOL    HW268174   1.780  13.538   3.529
22093SOL     OW68175  12.299   3.768   5.978
22093SOL    HW168176  12.315   3.692   5.922
22093SOL    HW268177  12.340   3.745   6.061
22094SOL     OW68178   4.897  12.812   7.242
22094SOL    HW168179   4.878  12.727   7.204
22094SOL    HW268180   4.871  12.804   7.334
22095SOL     OW68181  11.889  10.491  11.565
22095SOL    HW168182  11.861  10.581  11.581
22095SOL    HW268183  11.829  10.437  11.617
22096SOL     OW68184   6.247   5.199  11.878
22096SOL    HW168185   6.229   5.232  11.965
22096SOL    HW268186   6.251   5.104  11.889
22097SOL     OW68187   8.096  13.070   7.353
22097SOL    HW168188   8.138  13.148   7.317
22097SOL    HW268189   8.027  13.103   7.410
22098SOL     OW68190   4.268   2.524   8.313
22098SOL    HW168191   4.190   2.543   8.365
22098SOL    HW268192   4.290   2.607   8.271
22099SOL     OW68193   3.732  11.508   2.841
22099SOL    HW168194   3.758  11.583   2.788
22099SOL    HW268195   3.642  11.490   2.815
22100SOL     OW68196   0.787   4.840  13.318
22100SOL    HW168197   0.698   4.831  13.284
22100SOL    HW268198   0.788   4.927  13.359
22101SOL     OW68199   0.328   1.375   2.312
22101SOL    HW168200   0.307   1.331   2.394
22101SOL    HW268201   0.391   1.443   2.336
22102SOL     OW68202   3.364  11.241   3.596
22102SOL    HW168203   3.398  11.201   3.676
22102SOL    HW268204   3.333  11.167   3.543
22103SOL     OW68205  11.220   5.714   5.456
22103SOL    HW168206  11.284   5.775   5.492
22103SOL    HW268207  11.226   5.637   5.512
22104SOL     OW68208   9.132   0.555   5.133
22104SOL    HW168209   9.223   0.573   5.157
22104SOL    HW268210   9.138   0.478   5.076
22105SOL     OW68211   9.011   1.335  13.787
22105SOL    HW168212   8.916   1.339  13.775
22105SOL    HW268213   9.027   1.378  13.870
22106SOL     OW68214   7.696   5.950  12.056
22106SOL    HW168215   7.710   6.021  11.993
22106SOL    HW268216   7.626   5.897  12.018
22107SOL     OW68217  13.968   0.280   0.826
22107SOL    HW168218  14.011   0.298   0.742
22107SOL    HW268219  13.902   0.214   0.806
22108SOL     OW68220  14.118   5.406   8.975
22108SOL    HW168221  14.207   5.436   8.995
22108SOL    HW268222  14.084   5.374   9.059
22109SOL     OW68223   7.058  13.491   9.646
22109SOL    HW168224   7.104  13.466   9.566
22109SOL    HW268225   7.036  13.407   9.688
22110SOL     OW68226   6.524   3.083   8.247
22110SOL    HW168227   6.485   2.997   8.262
22110SOL    HW268228   6.457   3.145   8.277
22111SOL     OW68229   6.065  12.442  11.830
22111SOL    HW168230   6.069  12.474  11.920
22111SOL    HW268231   5.976  12.464  11.801
22112SOL     OW68232   0.357   7.357  14.235
22112SOL    HW168233   0.271   7.380  14.201
22112SOL    HW268234   0.404   7.441  14.240
22113SOL     OW68235   4.627   8.911   0.970
22113SOL    HW168236   4.717   8.911   0.937
22113SOL    HW268237   4.575   8.946   0.898
22114SOL     OW68238   7.900   2.581   0.520
22114SOL    HW168239   7.816   2.556   0.483
22114SOL    HW268240   7.943   2.631   0.451
22115SOL     OW68241   7.684  13.642   6.991
22115SOL    HW168242   7.611  13.667   6.934
22115SOL    HW268243   7.673  13.697   7.069
22116SOL     OW68244   7.457  13.516   1.062
22116SOL    HW168245   7.464  13.505   1.157
22116SOL    HW268246   7.411  13.438   1.032
22117SOL     OW68247   4.344  14.345   2.314
22117SOL    HW168248   4.428  14.341   2.360
22117SOL    HW268249   4.366  14.377   2.227
22118SOL     OW68250   8.483   6.381   3.424
22118SOL    HW168251   8.482   6.460   3.480
22118SOL    HW268252   8.563   6.389   3.373
22119SOL     OW68253   2.673  13.869   8.381
22119SOL    HW168254   2.698  13.907   8.465
22119SOL    HW268255   2.695  13.776   8.389
22120SOL     OW68256   9.703   0.151   0.659
22120SOL    HW168257   9.624   0.206   0.660
22120SOL    HW268258   9.705   0.110   0.746
22121SOL     OW68259  14.641   2.052   0.052
22121SOL    HW168260  14.663   2.114  14.858
22121SOL    HW268261  14.617   1.972   0.006
22122SOL     OW68262  12.078  14.598   5.770
22122SOL    HW168263  12.170  14.593   5.798
22122SOL    HW268264  12.068  14.688   5.738
22123SOL     OW68265   2.080   4.608   8.075
22123SOL    HW168266   2.166   4.567   8.082
22123SOL    HW268267   2.036   4.586   8.157
22124SOL     OW68268   1.327   0.990   6.260
22124SOL    HW168269   1.261   1.047   6.220
22124SOL    HW268270   1.314   1.003   6.354
22125SOL     OW68271   1.082   0.311   2.706
22125SOL    HW168272   1.169   0.272   2.700
22125SOL    HW268273   1.099   0.402   2.730
22126SOL     OW68274   8.728   0.545  12.535
22126SOL    HW168275   8.813   0.588  12.550
22126SOL    HW268276   8.750   0.466  12.485
22127SOL     OW68277   6.835   2.323   8.636
22127SOL    HW168278   6.891   2.264   8.686
22127SOL    HW268279   6.805   2.387   8.700
22128SOL     OW68280  11.572  13.077  13.142
22128SOL    HW168281  11.645  13.139  13.143
22128SOL    HW268282  11.521  13.101  13.065
22129SOL     OW68283   6.808   7.432   5.198
22129SOL    HW168284   6.881   7.494   5.198
22129SOL    HW268285   6.732   7.484   5.175
22130SOL     OW68286   6.597  13.664   0.132
22130SOL    HW168287   6.666  13.725   0.159
22130SOL    HW268288   6.622  13.638   0.043
22131SOL     OW68289   4.873   8.443  11.219
22131SOL    HW168290   4.793   8.469  11.265
22131SOL    HW268291   4.943   8.485  11.268
22132SOL     OW68292   2.421  13.592  11.968
22132SOL    HW168293   2.365  13.649  11.915
22132SOL    HW268294   2.388  13.602  12.057
22133SOL     OW68295   2.705   5.940  13.916
22133SOL    HW168296   2.645   5.971  13.847
22133SOL    HW268297   2.772   6.008  13.921
22134SOL     OW68298   3.259   1.001   7.436
22134SOL    HW168299   3.190   0.992   7.502
22134SOL    HW268300   3.277   1.095   7.433
22135SOL     OW68301   8.047   8.075   2.408
22135SOL    HW168302   8.118   8.137   2.424
22135SOL    HW268303   7.968   8.122   2.433
22136SOL     OW68304   2.726   7.586   8.648
22136SOL    HW168305   2.793   7.567   8.714
22136SOL    HW268306   2.772   7.637   8.582
22137SOL     OW68307   4.439  10.969   8.840
22137SOL    HW168308   4.489  10.895   8.805
22137SOL    HW268309   4.350  10.955   8.809
22138SOL     OW68310   4.303   3.749   3.554
22138SOL    HW168311   4.258   3.828   3.587
22138SOL    HW268312   4.245   3.677   3.577
22139SOL     OW68313  10.215  12.760  13.037
22139SOL    HW168314  10.257  12.785  13.119
22139SOL    HW268315  10.228  12.836  12.980
22140SOL     OW68316   8.434   0.707   2.454
22140SOL    HW168317   8.398   0.619   2.444
22140SOL    HW268318   8.375   0.763   2.403
22141SOL     OW68319   0.965  10.845   2.172
22141SOL    HW168320   0.972  10.779   2.102
22141SOL    HW268321   0.972  10.794   2.253
22142SOL     OW68322  11.964   8.930   7.073
22142SOL    HW168323  11.967   8.840   7.104
22142SOL    HW268324  11.874   8.959   7.090
22143SOL     OW68325   6.910   5.501   6.250
22143SOL    HW168326   6.998   5.538   6.237
22143SOL    HW268327   6.926   5.415   6.289
22144SOL     OW68328  14.076  13.632  13.473
22144SOL    HW168329  14.136  13.676  13.413
22144SOL    HW268330  14.130  13.609  13.548
22145SOL     OW68331   0.086   2.302   9.457
22145SOL    HW168332   0.047   2.274   9.374
22145SOL    HW268333   0.174   2.331   9.432
22146SOL     OW68334  12.620   9.821   4.276
22146SOL    HW168335  12.655   9.908   4.254
22146SOL    HW268336  12.580   9.833   4.362
22147SOL     OW68337   0.637  13.419  13.916
22147SOL    HW168338   0.609  13.472  13.842
22147SOL    HW268339   0.724  13.452  13.938
22148SOL     OW68340   2.288  10.669  11.561
22148SOL    HW168341   2.193  10.654  11.563
22148SOL    HW268342   2.307  10.692  11.470
22149SOL     OW68343  11.707   1.148   8.531
22149SOL    HW168344  11.642   1.157   8.601
22149SOL    HW268345  11.791   1.168   8.573
22150SOL     OW68346   1.982   6.458   0.600
22150SOL    HW168347   2.062   6.405   0.603
22150SOL    HW268348   2.012   6.546   0.579
22151SOL     OW68349   4.508   6.414   1.818
22151SOL    HW168350   4.426   6.445   1.857
22151SOL    HW268351   4.498   6.319   1.816
22152SOL     OW68352   7.734   8.760   3.489
22152SOL    HW168353   7.701   8.845   3.461
22152SOL    HW268354   7.667   8.698   3.462
22153SOL     OW68355   3.105   9.336   9.258
22153SOL    HW168356   3.075   9.420   9.292
22153SOL    HW268357   3.188   9.320   9.302
22154SOL     OW68358  13.793   9.710   9.445
22154SOL    HW168359  13.741   9.632   9.463
22154SOL    HW268360  13.768   9.773   9.512
22155SOL     OW68361   3.268   8.903  14.840
22155SOL    HW168362   3.357   8.937  14.849
22155SOL    HW268363   3.212   8.967   0.008
22156SOL     OW68364   8.083   0.595  14.761
22156SOL    HW168365   8.166   0.617  14.719
22156SOL    HW268366   8.024   0.575  14.688
22157SOL     OW68367   1.455  12.325  14.011
22157SOL    HW168368   1.460  12.281  13.926
22157SOL    HW268369   1.400  12.268  14.065
22158SOL     OW68370   3.418   8.916  12.373
22158SOL    HW168371   3.492   8.864  12.406
22158SOL    HW268372   3.381   8.863  12.303
22159SOL     OW68373   1.706   6.006   5.689
22159SOL    HW168374   1.743   6.046   5.767
22159SOL    HW268375   1.645   5.941   5.722
22160SOL     OW68376   0.125   0.888   5.152
22160SOL    HW168377   0.148   0.803   5.115
22160SOL    HW268378   0.079   0.868   5.233
22161SOL     OW68379  14.299   7.313  13.272
22161SOL    HW168380  14.270   7.290  13.361
22161SOL    HW268381  14.220   7.344  13.229
22162SOL     OW68382   4.775  11.637   4.620
22162SOL    HW168383   4.804  11.718   4.577
22162SOL    HW268384   4.773  11.659   4.713
22163SOL     OW68385   1.400   6.599   7.180
22163SOL    HW168386   1.439   6.608   7.267
22163SOL    HW268387   1.308   6.624   7.192
22164SOL     OW68388   6.917   6.088   1.364
22164SOL    HW168389   6.905   5.995   1.342
22164SOL    HW268390   7.009   6.105   1.345
22165SOL     OW68391   7.856  11.947  13.155
22165SOL    HW168392   7.946  11.962  13.183
22165SOL    HW268393   7.802  11.984  13.224
22166SOL     OW68394   4.695   1.328  11.187
22166SOL    HW168395   4.759   1.259  11.205
22166SOL    HW268396   4.646   1.296  11.111
22167SOL     OW68397   2.782   4.563  13.514
22167SOL    HW168398   2.866   4.547  13.471
22167SOL    HW268399   2.799   4.636  13.574
22168SOL     OW68400  14.023   8.229   0.734
22168SOL    HW168401  14.001   8.137   0.749
22168SOL    HW268402  13.940   8.276   0.741
22169SOL     OW68403  13.972  11.488  11.152
22169SOL    HW168404  13.900  11.551  11.164
22169SOL    HW268405  14.041  11.520  11.210
22170SOL     OW68406  11.308   4.659   2.684
22170SOL    HW168407  11.402   4.660   2.700
22170SOL    HW268408  11.270   4.631   2.768
22171SOL     OW68409   2.858   2.925   7.138
22171SOL    HW168410   2.803   2.999   7.111
22171SOL    HW268411   2.815   2.848   7.099
22172SOL     OW68412   2.768  14.863   1.815
22172SOL    HW168413   2.804   0.028   1.736
22172SOL    HW268414   2.823   0.021   1.886
22173SOL     OW68415   2.539   6.123   1.139
22173SOL    HW168416   2.616   6.142   1.085
22173SOL    HW268417   2.497   6.049   1.096
22174SOL     OW68418  11.582   6.854   3.943
22174SOL    HW168419  11.643   6.880   4.012
22174SOL    HW268420  11.575   6.932   3.888
22175SOL     OW68421   2.391   4.390   8.571
22175SOL    HW168422   2.483   4.365   8.564
22175SOL    HW268423   2.383   4.470   8.519
22176SOL     OW68424   6.605   0.568   5.649
22176SOL    HW168425   6.696   0.584   5.623
22176SOL    HW268426   6.578   0.649   5.691
22177SOL     OW68427   1.702   8.744   6.874
22177SOL    HW168428   1.701   8.754   6.970
22177SOL    HW268429   1.624   8.691   6.856
22178SOL     OW68430   1.037   4.005  14.249
22178SOL    HW168431   1.128   4.028  14.271
22178SOL    HW268432   1.028   3.914  14.278
22179SOL     OW68433  10.733   9.887  13.736
22179SOL    HW168434  10.688   9.854  13.814
22179SOL    HW268435  10.781   9.811  13.703
22180SOL     OW68436  12.150   6.189  12.761
22180SOL    HW168437  12.071   6.242  12.769
22180SOL    HW268438  12.121   6.099  12.777
22181SOL     OW68439  11.143   5.164   3.422
22181SOL    HW168440  11.170   5.145   3.332
22181SOL    HW268441  11.221   5.201   3.463
22182SOL     OW68442   7.357  11.158   9.420
22182SOL    HW168443   7.403  11.156   9.504
22182SOL    HW268444   7.396  11.087   9.369
22183SOL     OW68445   5.020  14.004   5.141
22183SOL    HW168446   5.113  13.985   5.151
22183SOL    HW268447   5.016  14.071   5.073
22184SOL     OW68448   6.865  13.744   3.362
22184SOL    HW168449   6.811  13.666   3.348
22184SOL    HW268450   6.845  13.800   3.288
22185SOL     OW68451   7.242   0.208   3.212
22185SOL    HW168452   7.303   0.184   3.282
22185SOL    HW268453   7.297   0.220   3.135
22186SOL     OW68454  12.751   7.835   4.732
22186SOL    HW168455  12.661   7.805   4.736
22186SOL    HW268456  12.802   7.765   4.773
22187SOL     OW68457   4.349  11.664  10.942
22187SOL    HW168458   4.352  11.641  10.849
22187SOL    HW268459   4.402  11.598  10.985
22188SOL     OW68460  14.391   1.063   0.616
22188SOL    HW168461  14.447   0.995   0.653
22188SOL    HW268462  14.449   1.138   0.605
22189SOL     OW68463   3.381  14.667   9.495
22189SOL    HW168464   3.346  14.751   9.523
22189SOL    HW268465   3.429  14.686   9.414
22190SOL     OW68466  11.499   3.192   3.632
22190SOL    HW168467  11.447   3.111   3.629
22190SOL    HW268468  11.554   3.187   3.553
22191SOL     OW68469   9.493   8.239  12.499
22191SOL    HW168470   9.433   8.212  12.568
22191SOL    HW268471   9.479   8.177  12.428
22192SOL     OW68472   5.913   8.654   0.405
22192SOL    HW168473   5.917   8.690   0.316
22192SOL    HW268474   5.870   8.721   0.457
22193SOL     OW68475   5.103   6.547   4.687
22193SOL    HW168476   5.192   6.526   4.715
22193SOL    HW268477   5.080   6.476   4.628
22194SOL     OW68478  12.508  11.363   1.071
22194SOL    HW168479  12.571  11.311   1.021
22194SOL    HW268480  12.558  11.440   1.098
22195SOL     OW68481   0.007   1.265  14.263
22195SOL    HW168482   0.027   1.286  14.354
22195SOL    HW268483   0.092   1.246  14.224
22196SOL     OW68484   8.753  11.197   9.435
22196SOL    HW168485   8.840  11.225   9.463
22196SOL    HW268486   8.735  11.118   9.485
22197SOL     OW68487   1.879  11.876  13.308
22197SOL    HW168488   1.783  11.878  13.313
22197SOL    HW268489   1.898  11.798  13.256
22198SOL     OW68490   9.951   2.410  13.653
22198SOL    HW168491   9.997   2.458  13.722
22198SOL    HW268492  10.020   2.385  13.592
22199SOL     OW68493   1.830   6.889  12.252
22199SOL    HW168494   1.886   6.945  12.306
22199SOL    HW268495   1.890   6.839  12.197
22200SOL     OW68496  11.993   5.055  10.209
22200SOL    HW168497  12.011   5.007  10.290
22200SOL    HW268498  11.938   5.128  10.237
22201SOL     OW68499   8.337   3.172   8.658
22201SOL    HW168500   8.409   3.236   8.661
22201SOL    HW268501   8.364   3.108   8.593
22202SOL     OW68502   8.935   0.436  12.181
22202SOL    HW168503   9.017   0.484  12.188
22202SOL    HW268504   8.908   0.449  12.090
22203SOL     OW68505   5.528   8.500  12.529
22203SOL    HW168506   5.559   8.423  12.577
22203SOL    HW268507   5.563   8.574  12.578
22204SOL     OW68508  13.230   3.829  13.157
22204SOL    HW168509  13.158   3.815  13.096
22204SOL    HW268510  13.300   3.771  13.125
22205SOL     OW68511   6.319   8.655   6.201
22205SOL    HW168512   6.411   8.668   6.225
22205SOL    HW268513   6.312   8.691   6.113
22206SOL     OW68514   6.235   5.088   3.114
22206SOL    HW168515   6.322   5.052   3.096
22206SOL    HW268516   6.188   5.016   3.156
22207SOL     OW68517   4.734  14.497   1.614
22207SOL    HW168518   4.641  14.481   1.598
22207SOL    HW268519   4.773  14.409   1.615
22208SOL     OW68520   2.973   6.033   8.210
22208SOL    HW168521   2.974   6.129   8.215
22208SOL    HW268522   2.968   6.014   8.116
22209SOL     OW68523   9.576   6.974   3.114
22209SOL    HW168524   9.652   7.003   3.164
22209SOL    HW268525   9.543   6.898   3.163
22210SOL     OW68526   3.853   1.813  10.467
22210SOL    HW168527   3.928   1.870  10.454
22210SOL    HW268528   3.880   1.729  10.429
22211SOL     OW68529   6.414   6.263   7.313
22211SOL    HW168530   6.475   6.230   7.246
22211SOL    HW268531   6.366   6.185   7.342
22212SOL     OW68532   9.444   9.067  14.093
22212SOL    HW168533   9.511   9.114  14.142
22212SOL    HW268534   9.493   9.019  14.026
22213SOL     OW68535   8.044   9.127  11.860
22213SOL    HW168536   7.994   9.046  11.849
22213SOL    HW268537   8.033   9.151  11.952
22214SOL     OW68538  12.368   4.048  13.911
22214SOL    HW168539  12.358   4.129  13.962
22214SOL    HW268540  12.455   4.015  13.934
22215SOL     OW68541   5.729   9.694   8.894
22215SOL    HW168542   5.754   9.670   8.983
22215SOL    HW268543   5.802   9.664   8.839
22216SOL     OW68544   7.561   5.990   0.499
22216SOL    HW168545   7.562   5.908   0.549
22216SOL    HW268546   7.498   6.045   0.546
22217SOL     OW68547   6.029   8.357   6.387
22217SOL    HW168548   5.972   8.358   6.311
22217SOL    HW268549   6.030   8.265   6.415
22218SOL     OW68550  14.351   2.866   8.922
22218SOL    HW168551  14.318   2.924   8.853
22218SOL    HW268552  14.290   2.793   8.923
22219SOL     OW68553   0.937   8.561  13.106
22219SOL    HW168554   1.019   8.540  13.150
22219SOL    HW268555   0.963   8.587  13.018
22220SOL     OW68556   6.979   9.319   2.199
22220SOL    HW168557   6.927   9.246   2.231
22220SOL    HW268558   6.920   9.367   2.140
22221SOL     OW68559  14.593  10.241   5.892
22221SOL    HW168560  14.522  10.299   5.920
22221SOL    HW268561  14.584  10.163   5.948
22222SOL     OW68562   4.753  14.369  13.380
22222SOL    HW168563   4.840  14.390  13.347
22222SOL    HW268564   4.743  14.276  13.365
22223SOL     OW68565   0.790   1.891   2.584
22223SOL    HW168566   0.870   1.908   2.536
22223SOL    HW268567   0.762   1.978   2.615
22224SOL     OW68568  12.218   3.936   5.383
22224SOL    HW168569  12.286   3.876   5.353
22224SOL    HW268570  12.137   3.885   5.379
22225SOL     OW68571   8.644   9.148   3.671
22225SOL    HW168572   8.641   9.109   3.758
22225SOL    HW268573   8.725   9.199   3.671
22226SOL     OW68574   9.503  12.201   0.466
22226SOL    HW168575   9.590  12.234   0.491
22226SOL    HW268576   9.521  12.114   0.429
22227SOL     OW68577   6.560   6.683  10.638
22227SOL    HW168578   6.591   6.764  10.678
22227SOL    HW268579   6.478   6.664  10.683
22228SOL     OW68580   6.102   4.584  12.542
22228SOL    HW168581   6.144   4.508  12.581
22228SOL    HW268582   6.099   4.565  12.448
22229SOL     OW68583  12.259  12.072  11.934
22229SOL    HW168584  12.300  11.986  11.941
22229SOL    HW268585  12.309  12.127  11.993
22230SOL     OW68586   1.479   8.113  12.978
22230SOL    HW168587   1.507   8.027  12.950
22230SOL    HW268588   1.525   8.128  13.060
22231SOL     OW68589   7.710   4.545   1.656
22231SOL    HW168590   7.667   4.629   1.672
22231SOL    HW268591   7.747   4.520   1.740
22232SOL     OW68592   0.750   6.173   9.452
22232SOL    HW168593   0.697   6.168   9.532
22232SOL    HW268594   0.812   6.244   9.469
22233SOL     OW68595   6.709   2.734   8.901
22233SOL    HW168596   6.782   2.795   8.903
22233SOL    HW268597   6.632   2.788   8.884
22234SOL     OW68598   6.502  14.505   9.847
22234SOL    HW168599   6.525  14.597   9.835
22234SOL    HW268600   6.490  14.471   9.758
22235SOL     OW68601   4.450  13.988   5.296
22235SOL    HW168602   4.545  13.983   5.287
22235SOL    HW268603   4.419  13.901   5.270
22236SOL     OW68604  13.346  13.454   0.786
22236SOL    HW168605  13.255  13.438   0.809
22236SOL    HW268606  13.385  13.367   0.780
22237SOL     OW68607   4.045   9.237   2.607
22237SOL    HW168608   4.122   9.283   2.575
22237SOL    HW268609   4.008   9.295   2.673
22238SOL     OW68610  12.440  13.604   6.746
22238SOL    HW168611  12.404  13.539   6.685
22238SOL    HW268612  12.390  13.591   6.827
22239SOL     OW68613   9.537  11.907   6.391
22239SOL    HW168614   9.614  11.950   6.355
22239SOL    HW268615   9.471  11.976   6.397
22240SOL     OW68616   6.149   4.472   7.491
22240SOL    HW168617   6.199   4.443   7.415
22240SOL    HW268618   6.216   4.498   7.555
22241SOL     OW68619   4.057   5.325   5.671
22241SOL    HW168620   4.033   5.408   5.632
22241SOL    HW268621   3.996   5.314   5.744
22242SOL     OW68622   2.947   9.067   3.307
22242SOL    HW168623   2.948   9.018   3.389
22242SOL    HW268624   2.883   9.021   3.253
22243SOL     OW68625  13.562   8.947   9.234
22243SOL    HW168626  13.478   8.916   9.265
22243SOL    HW268627  13.569   8.911   9.145
22244SOL     OW68628   2.280   1.904   5.405
22244SOL    HW168629   2.270   1.810   5.396
22244SOL    HW268630   2.271   1.920   5.499
22245SOL     OW68631   5.967  10.862   3.543
22245SOL    HW168632   5.983  10.907   3.627
22245SOL    HW268633   6.054  10.852   3.505
22246SOL     OW68634   6.611   6.264  13.229
22246SOL    HW168635   6.692   6.213  13.216
22246SOL    HW268636   6.541   6.202  13.208
22247SOL     OW68637   0.938  10.529   9.384
22247SOL    HW168638   0.877  10.508   9.312
22247SOL    HW268639   0.994  10.452   9.390
22248SOL     OW68640   6.720   8.747   2.831
22248SOL    HW168641   6.692   8.736   2.740
22248SOL    HW268642   6.655   8.807   2.868
22249SOL     OW68643  11.451   5.614  13.689
22249SOL    HW168644  11.397   5.674  13.638
22249SOL    HW268645  11.502   5.671  13.747
22250SOL     OW68646   2.706  14.863  10.157
22250SOL    HW168647   2.689  14.841  10.249
22250SOL    HW268648   2.733   0.080  10.159
22251SOL     OW68649   3.638  12.833  10.332
22251SOL    HW168650   3.678  12.855  10.416
22251SOL    HW268651   3.687  12.757  10.301
22252SOL     OW68652   3.192   9.313   4.180
22252SOL    HW168653   3.199   9.398   4.224
22252SOL    HW268654   3.191   9.249   4.250
22253SOL     OW68655   4.994   9.788   3.205
22253SOL    HW168656   5.037   9.845   3.268
22253SOL    HW268657   4.910   9.766   3.246
22254SOL     OW68658   5.790   9.265   8.551
22254SOL    HW168659   5.840   9.184   8.534
22254SOL    HW268660   5.712   9.256   8.496
22255SOL     OW68661   9.574  12.454   2.268
22255SOL    HW168662   9.593  12.441   2.175
22255SOL    HW268663   9.659  12.472   2.308
22256SOL     OW68664  12.992   6.629  10.339
22256SOL    HW168665  12.906   6.627  10.380
22256SOL    HW268666  12.994   6.551  10.283
22257SOL     OW68667  14.448   8.295  13.203
22257SOL    HW168668  14.522   8.282  13.143
22257SOL    HW268669  14.402   8.212  13.203
22258SOL     OW68670  13.620  12.713   1.105
22258SOL    HW168671  13.663  12.640   1.060
22258SOL    HW268672  13.687  12.745   1.167
22259SOL     OW68673  11.331   5.798   0.934
22259SOL    HW168674  11.289   5.858   0.996
22259SOL    HW268675  11.265   5.732   0.915
22260SOL     OW68676  14.404  12.612   4.228
22260SOL    HW168677  14.363  12.538   4.273
22260SOL    HW268678  14.359  12.689   4.265
22261SOL     OW68679  14.539   0.276   4.660
22261SOL    HW168680  14.595   0.312   4.590
22261SOL    HW268681  14.506   0.194   4.625
22262SOL     OW68682   2.934  10.460  12.811
22262SOL    HW168683   2.902  10.541  12.850
22262SOL    HW268684   2.855  10.415  12.781
22263SOL     OW68685  13.402   5.467   7.816
22263SOL    HW168686  13.349   5.458   7.895
22263SOL    HW268687  13.476   5.409   7.830
22264SOL     OW68688   4.202   9.372   8.563
22264SOL    HW168689   4.159   9.412   8.487
22264SOL    HW268690   4.201   9.441   8.629
22265SOL     OW68691  10.045   1.831   7.155
22265SOL    HW168692  10.140   1.842   7.159
22265SOL    HW268693  10.023   1.838   7.062
22266SOL     OW68694   3.658   9.317   6.034
22266SOL    HW168695   3.571   9.318   5.996
22266SOL    HW268696   3.716   9.345   5.963
22267SOL     OW68697  10.679   6.664  11.945
22267SOL    HW168698  10.703   6.748  11.905
22267SOL    HW268699  10.584   6.657  11.932
22268SOL     OW68700  14.268   8.481   6.952
22268SOL    HW168701  14.312   8.408   6.995
22268SOL    HW268702  14.334   8.551   6.951
22269SOL     OW68703   2.804  12.817  10.807
22269SOL    HW168704   2.852  12.746  10.765
22269SOL    HW268705   2.765  12.866  10.735
22270SOL     OW68706   9.260   0.828   9.808
22270SOL    HW168707   9.192   0.870   9.861
22270SOL    HW268708   9.321   0.791   9.873
22271SOL     OW68709   9.196   3.561   9.777
22271SOL    HW168710   9.222   3.650   9.754
22271SOL    HW268711   9.121   3.543   9.721
22272SOL     OW68712  10.423   3.278   4.289
22272SOL    HW168713  10.466   3.198   4.320
22272SOL    HW268714  10.332   3.252   4.275
22273SOL     OW68715  14.152   9.568   1.885
22273SOL    HW168716  14.204   9.586   1.807
22273SOL    HW268717  14.112   9.482   1.868
22274SOL     OW68718  13.866  10.652   2.459
22274SOL    HW168719  13.957  10.651   2.489
22274SOL    HW268720  13.865  10.598   2.381
22275SOL     OW68721   0.036   2.835   0.988
22275SOL    HW168722  14.857   2.812   1.063
22275SOL    HW268723   0.121   2.794   1.005
22276SOL     OW68724  12.158   2.424  11.527
22276SOL    HW168725  12.062   2.426  11.532
22276SOL    HW268726  12.177   2.420  11.433
22277SOL     OW68727   8.054  11.423   0.421
22277SOL    HW168728   8.112  11.459   0.354
22277SOL    HW268729   7.982  11.384   0.372
22278SOL     OW68730   8.735   6.104  12.870
22278SOL    HW168731   8.718   6.039  12.802
22278SOL    HW268732   8.781   6.175  12.825
22279SOL     OW68733  11.058   6.271   6.637
22279SOL    HW168734  11.006   6.345   6.668
22279SOL    HW268735  11.132   6.311   6.592
22280SOL     OW68736   3.934  14.203   7.236
22280SOL    HW168737   3.942  14.109   7.222
22280SOL    HW268738   4.013  14.227   7.285
22281SOL     OW68739   0.882   7.340   8.239
22281SOL    HW168740   0.936   7.261   8.240
22281SOL    HW268741   0.815   7.324   8.306
22282SOL     OW68742   9.843   7.305  10.618
22282SOL    HW168743   9.908   7.240  10.593
22282SOL    HW268744   9.760   7.267  10.590
22283SOL     OW68745   8.944   9.654   9.670
22283SOL    HW168746   9.039   9.658   9.660
22283SOL    HW268747   8.912   9.638   9.581
22284SOL     OW68748   5.708   3.343   1.998
22284SOL    HW168749   5.680   3.270   2.053
22284SOL    HW268750   5.766   3.394   2.054
22285SOL     OW68751   8.538  13.031  13.511
22285SOL    HW168752   8.601  13.102  13.500
22285SOL    HW268753   8.583  12.966  13.564
22286SOL     OW68754   7.086   6.314   1.714
22286SOL    HW168755   7.159   6.373   1.734
22286SOL    HW268756   7.128   6.234   1.681
22287SOL     OW68757   8.828   2.590  14.650
22287SOL    HW168758   8.744   2.562  14.615
22287SOL    HW268759   8.878   2.616  14.573
22288SOL     OW68760  13.970  13.245   7.840
22288SOL    HW168761  13.932  13.237   7.753
22288SOL    HW268762  14.053  13.290   7.826
22289SOL     OW68763  10.646   5.577  12.135
22289SOL    HW168764  10.692   5.598  12.054
22289SOL    HW268765  10.673   5.487  12.154
22290SOL     OW68766   5.844  13.979   7.564
22290SOL    HW168767   5.839  14.033   7.485
22290SOL    HW268768   5.775  13.914   7.554
22291SOL     OW68769   6.372   8.270   6.355
22291SOL    HW168770   6.301   8.270   6.420
22291SOL    HW268771   6.386   8.177   6.335
22292SOL     OW68772   8.972  12.375   3.751
22292SOL    HW168773   8.895  12.383   3.807
22292SOL    HW268774   8.964  12.287   3.713
22293SOL     OW68775   3.995  12.494  14.346
22293SOL    HW168776   4.033  12.412  14.315
22293SOL    HW268777   4.018  12.558  14.278
22294SOL     OW68778  10.099   0.073   2.176
22294SOL    HW168779  10.137   0.127   2.245
22294SOL    HW268780  10.007   0.098   2.174
22295SOL     OW68781   4.993  12.199  12.920
22295SOL    HW168782   5.072  12.146  12.912
22295SOL    HW268783   4.940  12.154  12.987
22296SOL     OW68784   9.931   3.433   7.270
22296SOL    HW168785   9.883   3.470   7.197
22296SOL    HW268786   9.869   3.373   7.312
22297SOL     OW68787  12.147   7.578   9.250
22297SOL    HW168788  12.145   7.494   9.296
22297SOL    HW268789  12.055   7.605   9.247
22298SOL     OW68790   4.105   1.354  13.008
22298SOL    HW168791   4.062   1.421  12.955
22298SOL    HW268792   4.056   1.274  12.991
22299SOL     OW68793   0.317   6.899  13.125
22299SOL    HW168794   0.304   6.809  13.096
22299SOL    HW268795   0.383   6.893  13.193
22300SOL     OW68796   9.979   6.386  11.586
22300SOL    HW168797  10.016   6.469  11.555
22300SOL    HW268798   9.884   6.401  11.585
22301SOL     OW68799  13.031  13.871   1.449
22301SOL    HW168800  13.084  13.804   1.493
22301SOL    HW268801  13.079  13.891   1.368
22302SOL     OW68802  10.219   8.675   5.659
22302SOL    HW168803  10.226   8.582   5.681
22302SOL    HW268804  10.271   8.684   5.579
22303SOL     OW68805   1.589   8.755   3.405
22303SOL    HW168806   1.668   8.727   3.451
22303SOL    HW268807   1.585   8.699   3.328
22304SOL     OW68808  13.984   6.562  12.878
22304SOL    HW168809  14.018   6.477  12.906
22304SOL    HW268810  14.049   6.625  12.908
22305SOL     OW68811  11.481   0.750  13.987
22305SOL    HW168812  11.415   0.706  14.041
22305SOL    HW268813  11.484   0.699  13.906
22306SOL     OW68814  14.701   9.324   9.327
22306SOL    HW168815  14.730   9.392   9.388
22306SOL    HW268816  14.690   9.370   9.243
22307SOL     OW68817  14.456   0.203  12.510
22307SOL    HW168818  14.429   0.187  12.420
22307SOL    HW268819  14.516   0.132  12.531
22308SOL     OW68820   4.640   9.212   8.551
22308SOL    HW168821   4.715   9.176   8.598
22308SOL    HW268822   4.633   9.157   8.473
22309SOL     OW68823   0.585   1.059  12.424
22309SOL    HW168824   0.587   1.151  12.400
22309SOL    HW268825   0.657   1.048  12.486
22310SOL     OW68826   9.840  11.865   1.542
22310SOL    HW168827   9.845  11.812   1.463
22310SOL    HW268828   9.778  11.818   1.598
22311SOL     OW68829   8.464   7.968  13.762
22311SOL    HW168830   8.559   7.968  13.760
22311SOL    HW268831   8.439   8.044  13.709
22312SOL     OW68832  13.879   2.682  12.078
22312SOL    HW168833  13.907   2.766  12.114
22312SOL    HW268834  13.804   2.704  12.022
22313SOL     OW68835   9.262  11.880  11.254
22313SOL    HW168836   9.330  11.948  11.257
22313SOL    HW268837   9.224  11.881  11.342
22314SOL     OW68838  14.042   4.853  10.794
22314SOL    HW168839  13.984   4.782  10.767
22314SOL    HW268840  14.074   4.826  10.881
22315SOL     OW68841   7.497  11.812   1.722
22315SOL    HW168842   7.417  11.786   1.676
22315SOL    HW268843   7.566  11.800   1.657
22316SOL     OW68844   8.986  13.847  13.649
22316SOL    HW168845   9.027  13.877  13.730
22316SOL    HW268846   8.909  13.904  13.639
22317SOL     OW68847   9.821   2.738   3.212
22317SOL    HW168848   9.779   2.653   3.216
22317SOL    HW268849   9.824   2.759   3.118
22318SOL     OW68850  12.761   5.317   1.319
22318SOL    HW168851  12.686   5.276   1.276
22318SOL    HW268852  12.794   5.249   1.379
22319SOL     OW68853   9.630  14.490  14.112
22319SOL    HW168854   9.723  14.491  14.089
22319SOL    HW268855   9.589  14.549  14.048
22320SOL     OW68856   4.930   2.830   7.930
22320SOL    HW168857   4.981   2.908   7.950
22320SOL    HW268858   4.856   2.833   7.990
22321SOL     OW68859  12.951   0.117  11.784
22321SOL    HW168860  13.007   0.040  11.798
22321SOL    HW268861  12.941   0.155  11.872
22322SOL     OW68862  11.231  14.506   9.125
22322SOL    HW168863  11.200  14.536   9.039
22322SOL    HW268864  11.241  14.411   9.115
22323SOL     OW68865  11.710   5.604  12.525
22323SOL    HW168866  11.661   5.666  12.470
22323SOL    HW268867  11.705   5.641  12.613
22324SOL     OW68868  13.543   2.032   4.268
22324SOL    HW168869  13.596   1.977   4.326
22324SOL    HW268870  13.457   1.989   4.268
22325SOL     OW68871   6.155   7.543   0.946
22325SOL    HW168872   6.225   7.505   0.892
22325SOL    HW268873   6.143   7.481   1.017
22326SOL     OW68874   1.722  12.546  11.166
22326SOL    HW168875   1.710  12.635  11.198
22326SOL    HW268876   1.709  12.552  11.072
22327SOL     OW68877  14.027  13.164  10.081
22327SOL    HW168878  14.065  13.251  10.094
22327SOL    HW268879  13.994  13.139  10.167
22328SOL     OW68880   9.346   8.788  13.867
22328SOL    HW168881   9.339   8.697  13.837
22328SOL    HW268882   9.435   8.795  13.901
22329SOL     OW68883   2.199  12.498   0.519
22329SOL    HW168884   2.156  12.426   0.564
22329SOL    HW268885   2.132  12.532   0.460
22330SOL     OW68886   7.121   1.801   6.753
22330SOL    HW168887   7.096   1.729   6.811
22330SOL    HW268888   7.209   1.826   6.783
22331SOL     OW68889  13.591   4.494  14.675
22331SOL    HW168890  13.648   4.419  14.659
22331SOL    HW268891  13.504   4.456  14.689
22332SOL     OW68892   0.206  11.606   6.931
22332SOL    HW168893   0.277  11.549   6.900
22332SOL    HW268894   0.154  11.550   6.989
22333SOL     OW68895  11.406   2.654  13.234
22333SOL    HW168896  11.433   2.680  13.146
22333SOL    HW268897  11.355   2.574  13.222
22334SOL     OW68898   3.727  13.083   5.443
22334SOL    HW168899   3.803  13.027   5.455
22334SOL    HW268900   3.694  13.098   5.532
22335SOL     OW68901   3.084   3.450  14.440
22335SOL    HW168902   3.147   3.508  14.396
22335SOL    HW268903   3.007   3.452  14.383
22336SOL     OW68904   6.835   2.593  11.504
22336SOL    HW168905   6.831   2.613  11.597
22336SOL    HW268906   6.802   2.503  11.497
22337SOL     OW68907  14.694   3.305   1.569
22337SOL    HW168908  14.659   3.235   1.514
22337SOL    HW268909  14.713   3.376   1.508
22338SOL     OW68910   5.463   9.159  10.911
22338SOL    HW168911   5.516   9.179  10.834
22338SOL    HW268912   5.422   9.074  10.891
22339SOL     OW68913   4.363  11.907  10.180
22339SOL    HW168914   4.365  11.950  10.266
22339SOL    HW268915   4.451  11.873  10.169
22340SOL     OW68916   7.594   8.339  11.251
22340SOL    HW168917   7.660   8.294  11.198
22340SOL    HW268918   7.601   8.431  11.225
22341SOL     OW68919   1.391  13.072   0.149
22341SOL    HW168920   1.467  13.085   0.206
22341SOL    HW268921   1.380  13.155   0.105
22342SOL     OW68922   4.182   3.980   1.947
22342SOL    HW168923   4.117   4.005   1.882
22342SOL    HW268924   4.135   3.922   2.007
22343SOL     OW68925   0.957   2.986   1.586
22343SOL    HW168926   0.876   2.951   1.624
22343SOL    HW268927   0.953   3.080   1.607
22344SOL     OW68928   1.182   0.027   0.099
22344SOL    HW168929   1.147   0.109   0.133
22344SOL    HW268930   1.131   0.010   0.019
22345SOL     OW68931  11.448  12.821   2.087
22345SOL    HW168932  11.390  12.807   2.012
22345SOL    HW268933  11.536  12.799   2.054
22346SOL     OW68934   2.911  11.242   0.583
22346SOL    HW168935   2.825  11.278   0.607
22346SOL    HW268936   2.932  11.182   0.654
22347SOL     OW68937  13.080   5.571   1.009
22347SOL    HW168938  12.993   5.582   1.048
22347SOL    HW268939  13.061   5.553   0.916
22348SOL     OW68940   0.603   4.486   2.374
22348SOL    HW168941   0.653   4.483   2.455
22348SOL    HW268942   0.591   4.579   2.356
22349SOL     OW68943   9.585  11.082  14.845
22349SOL    HW168944   9.558  11.099  14.754
22349SOL    HW268945   9.666  11.133  14.856
22350SOL     OW68946  10.189   8.911  10.826
22350SOL    HW168947  10.141   8.941  10.903
22350SOL    HW268948  10.280   8.909  10.854
22351SOL     OW68949  12.312   5.730   1.123
22351SOL    HW168950  12.311   5.676   1.202
22351SOL    HW268951  12.225   5.771   1.122
22352SOL     OW68952  10.702  14.780   0.567
22352SOL    HW168953  10.794  14.767   0.540
22352SOL    HW268954  10.671  14.852   0.513
22353SOL     OW68955   3.553   5.466   2.516
22353SOL    HW168956   3.615   5.449   2.445
22353SOL    HW268957   3.474   5.496   2.472
22354SOL     OW68958   2.489  10.329   4.785
22354SOL    HW168959   2.562  10.376   4.826
22354SOL    HW268960   2.415  10.389   4.791
22355SOL     OW68961   1.447  10.867  10.373
22355SOL    HW168962   1.536  10.834  10.364
22355SOL    HW268963   1.399  10.797  10.417
22356SOL     OW68964  12.209  10.485  14.666
22356SOL    HW168965  12.165  10.562  14.701
22356SOL    HW268966  12.161  10.464  14.585
22357SOL     OW68967   1.774   6.073   5.441
22357SOL    HW168968   1.845   6.135   5.461
22357SOL    HW268969   1.749   6.037   5.526
22358SOL     OW68970  10.223   6.722   0.127
22358SOL    HW168971  10.141   6.683   0.096
22358SOL    HW268972  10.230   6.695   0.218
22359SOL     OW68973  14.650  12.090  10.390
22359SOL    HW168974  14.597  12.114  10.466
22359SOL    HW268975  14.650  11.994  10.390
22360SOL     OW68976  12.844   7.991   9.557
22360SOL    HW168977  12.789   7.939   9.616
22360SOL    HW268978  12.889   7.926   9.502
22361SOL     OW68979   9.149  14.178   3.948
22361SOL    HW168980   9.166  14.085   3.935
22361SOL    HW268981   9.104  14.206   3.869
22362SOL     OW68982  12.080   5.619   1.973
22362SOL    HW168983  12.046   5.676   2.043
22362SOL    HW268984  12.175   5.623   1.984
22363SOL     OW68985   7.879   9.975  10.710
22363SOL    HW168986   7.897  10.033  10.637
22363SOL    HW268987   7.820  10.026  10.767
22364SOL     OW68988  13.217  10.502   7.575
22364SOL    HW168989  13.241  10.478   7.486
22364SOL    HW268990  13.215  10.419   7.622
22365SOL     OW68991   3.709   3.425  12.752
22365SOL    HW168992   3.723   3.342  12.706
22365SOL    HW268993   3.632   3.409  12.807
22366SOL     OW68994  12.932  12.343   6.076
22366SOL    HW168995  12.943  12.430   6.113
22366SOL    HW268996  12.842  12.318   6.097
22367SOL     OW68997   7.631   3.186   2.787
22367SOL    HW168998   7.663   3.221   2.704
22367SOL    HW268999   7.666   3.097   2.791
22368SOL     OW69000   9.671   5.375   3.887
22368SOL    HW169001   9.647   5.353   3.797
22368SOL    HW269002   9.744   5.317   3.907
22369SOL     OW69003  12.357  13.874   7.908
22369SOL    HW169004  12.289  13.807   7.907
22369SOL    HW269005  12.312  13.954   7.878
22370SOL     OW69006  14.005   6.085  11.469
22370SOL    HW169007  14.038   5.996  11.455
22370SOL    HW269008  14.083   6.136  11.493
22371SOL     OW69009   1.073  11.015   5.408
22371SOL    HW169010   1.145  10.961   5.439
22371SOL    HW269011   1.047  11.067   5.484
22372SOL     OW69012   7.130  13.815   3.984
22372SOL    HW169013   7.041  13.801   4.016
22372SOL    HW269014   7.132  13.770   3.899
22373SOL     OW69015   9.021   5.456   5.896
22373SOL    HW169016   8.986   5.437   5.983
22373SOL    HW269017   9.005   5.376   5.846
22374SOL     OW69018  13.158   6.696   0.424
22374SOL    HW169019  13.080   6.730   0.380
22374SOL    HW269020  13.166   6.749   0.503
22375SOL     OW69021   7.341  14.118   9.066
22375SOL    HW169022   7.331  14.071   9.149
22375SOL    HW269023   7.418  14.173   9.078
22376SOL     OW69024   1.448   6.737  11.742
22376SOL    HW169025   1.479   6.646  11.736
22376SOL    HW269026   1.518   6.782  11.789
22377SOL     OW69027   8.849   2.285  12.869
22377SOL    HW169028   8.942   2.275  12.848
22377SOL    HW269029   8.809   2.315  12.787
22378SOL     OW69030  10.180   9.252   2.834
22378SOL    HW169031  10.185   9.271   2.740
22378SOL    HW269032  10.193   9.158   2.840
22379SOL     OW69033   1.938   2.956   7.025
22379SOL    HW169034   1.896   2.967   6.940
22379SOL    HW269035   2.032   2.965   7.007
22380SOL     OW69036   9.557   9.527  10.238
22380SOL    HW169037   9.582   9.464  10.169
22380SOL    HW269038   9.462   9.534  10.231
22381SOL     OW69039   9.952  12.053  13.072
22381SOL    HW169040   9.956  11.957  13.075
22381SOL    HW269041  10.044  12.080  13.075
22382SOL     OW69042   3.001   5.991   4.014
22382SOL    HW169043   3.077   6.034   3.975
22382SOL    HW269044   3.037   5.914   4.057
22383SOL     OW69045  13.048   3.367  10.831
22383SOL    HW169046  13.005   3.310  10.895
22383SOL    HW269047  13.086   3.438  10.883
22384SOL     OW69048   0.427   8.643   1.611
22384SOL    HW169049   0.488   8.696   1.560
22384SOL    HW269050   0.468   8.636   1.697
22385SOL     OW69051   8.548   0.992   7.268
22385SOL    HW169052   8.594   0.951   7.193
22385SOL    HW269053   8.596   0.961   7.345
22386SOL     OW69054  10.129  10.023   8.586
22386SOL    HW169055  10.054  10.055   8.636
22386SOL    HW269056  10.096  10.014   8.497
22387SOL     OW69057   6.591  13.953   3.260
22387SOL    HW169058   6.641  14.008   3.320
22387SOL    HW269059   6.626  13.976   3.173
22388SOL     OW69060   5.919   8.672   1.827
22388SOL    HW169061   5.876   8.749   1.864
22388SOL    HW269062   5.850   8.628   1.777
22389SOL     OW69063  12.819   0.085   9.284
22389SOL    HW169064  12.775   0.169   9.274
22389SOL    HW269065  12.806   0.061   9.376
22390SOL     OW69066  13.015   0.652   7.544
22390SOL    HW169067  12.995   0.694   7.627
22390SOL    HW269068  13.054   0.722   7.491
22391SOL     OW69069  14.868  12.856   7.645
22391SOL    HW169070  14.778  12.850   7.615
22391SOL    HW269071   0.005  12.780   7.701
22392SOL     OW69072   4.185   8.326   8.856
22392SOL    HW169073   4.260   8.339   8.798
22392SOL    HW269074   4.217   8.349   8.943
22393SOL     OW69075   0.512  11.972   7.010
22393SOL    HW169076   0.521  11.995   7.102
22393SOL    HW269077   0.429  11.926   7.005
22394SOL     OW69078   6.981   8.364  12.518
22394SOL    HW169079   6.982   8.300  12.590
22394SOL    HW269080   6.889   8.388  12.509
22395SOL     OW69081   6.424   3.381   3.473
22395SOL    HW169082   6.511   3.419   3.459
22395SOL    HW269083   6.399   3.413   3.560
22396SOL     OW69084   9.609   7.890   4.857
22396SOL    HW169085   9.678   7.904   4.792
22396SOL    HW269086   9.581   7.799   4.843
22397SOL     OW69087   8.739  14.357  10.038
22397SOL    HW169088   8.759  14.447  10.014
22397SOL    HW269089   8.646  14.358  10.061
22398SOL     OW69090   1.822   0.010   5.897
22398SOL    HW169091   1.820  14.790   5.894
22398SOL    HW269092   1.732   0.035   5.919
22399SOL     OW69093   1.023  10.638  11.831
22399SOL    HW169094   1.023  10.684  11.915
22399SOL    HW269095   1.047  10.706  11.767
22400SOL     OW69096  14.803   3.394   6.929
22400SOL    HW169097  14.742   3.321   6.916
22400SOL    HW269098   0.003   3.371   6.874
22401SOL     OW69099  14.294  10.237  12.809
22401SOL    HW169100  14.346  10.278  12.878
22401SOL    HW269101  14.339  10.155  12.790
22402SOL     OW69102   9.807  10.837   8.623
22402SOL    HW169103   9.838  10.861   8.710
22402SOL    HW269104   9.796  10.921   8.578
22403SOL     OW69105   3.974   9.920  12.316
22403SOL    HW169106   3.923   9.969  12.380
22403SOL    HW269107   3.965   9.829  12.343
22404SOL     OW69108  10.015   3.508  11.460
22404SOL    HW169109   9.934   3.560  11.458
22404SOL    HW269110  10.023   3.473  11.372
22405SOL     OW69111   1.440   5.028   8.952
22405SOL    HW169112   1.515   5.079   8.920
22405SOL    HW269113   1.380   5.024   8.877
22406SOL     OW69114  13.096   0.554   5.979
22406SOL    HW169115  13.150   0.475   5.973
22406SOL    HW269116  13.152   0.619   6.021
22407SOL     OW69117   8.509   2.774   1.253
22407SOL    HW169118   8.417   2.751   1.244
22407SOL    HW269119   8.518   2.804   1.343
22408SOL     OW69120  14.181  12.702   8.557
22408SOL    HW169121  14.235  12.764   8.606
22408SOL    HW269122  14.098  12.747   8.543
22409SOL     OW69123   5.733   6.852   1.809
22409SOL    HW169124   5.654   6.823   1.855
22409SOL    HW269125   5.800   6.856   1.877
22410SOL     OW69126   5.826   7.778  13.159
22410SOL    HW169127   5.736   7.811  13.159
22410SOL    HW269128   5.852   7.778  13.067
22411SOL     OW69129   9.230   3.923  10.144
22411SOL    HW169130   9.299   3.897  10.083
22411SOL    HW269131   9.233   4.019  10.143
22412SOL     OW69132   9.823  13.876   4.335
22412SOL    HW169133   9.863  13.870   4.249
22412SOL    HW269134   9.746  13.931   4.322
22413SOL     OW69135   3.064  13.208  11.250
22413SOL    HW169136   3.096  13.120  11.228
22413SOL    HW269137   2.973  13.195  11.274
22414SOL     OW69138  13.281   3.751  14.496
22414SOL    HW169139  13.302   3.740  14.589
22414SOL    HW269140  13.355   3.712  14.450
22415SOL     OW69141   7.981  10.899   3.665
22415SOL    HW169142   7.892  10.912   3.696
22415SOL    HW269143   8.026  10.980   3.687
22416SOL     OW69144   3.216   8.865   4.038
22416SOL    HW169145   3.172   8.794   3.990
22416SOL    HW269146   3.305   8.864   4.004
22417SOL     OW69147  12.429   7.288  13.494
22417SOL    HW169148  12.341   7.265  13.466
22417SOL    HW269149  12.486   7.255  13.424
22418SOL     OW69150   7.210  12.704  14.172
22418SOL    HW169151   7.258  12.636  14.218
22418SOL    HW269152   7.226  12.784  14.223
22419SOL     OW69153  11.792   6.881   4.153
22419SOL    HW169154  11.813   6.924   4.070
22419SOL    HW269155  11.861   6.816   4.165
22420SOL     OW69156   5.917  14.550   7.446
22420SOL    HW169157   5.839  14.553   7.502
22420SOL    HW269158   5.987  14.518   7.503
22421SOL     OW69159  11.856   9.944   9.224
22421SOL    HW169160  11.799   9.900   9.287
22421SOL    HW269161  11.799  10.009   9.182
22422SOL     OW69162  10.740  14.553   8.568
22422SOL    HW169163  10.769  14.523   8.482
22422SOL    HW269164  10.645  14.553   8.563
22423SOL     OW69165  10.669  11.390   8.375
22423SOL    HW169166  10.743  11.333   8.355
22423SOL    HW269167  10.612  11.336   8.430
22424SOL     OW69168   4.306   9.837  10.514
22424SOL    HW169169   4.318   9.932  10.512
22424SOL    HW269170   4.230   9.822  10.457
22425SOL     OW69171  11.308  10.550   5.499
22425SOL    HW169172  11.267  10.510   5.576
22425SOL    HW269173  11.309  10.644   5.519
22426SOL     OW69174   0.021  13.057  13.965
22426SOL    HW169175   0.055  12.982  14.012
22426SOL    HW269176  14.856  13.020  13.886
22427SOL     OW69177  12.503   4.772   6.180
22427SOL    HW169178  12.494   4.776   6.085
22427SOL    HW269179  12.427   4.820   6.213
22428SOL     OW69180   1.228   5.841   3.403
22428SOL    HW169181   1.155   5.784   3.426
22428SOL    HW269182   1.261   5.805   3.321
22429SOL     OW69183   2.291  11.617   3.277
22429SOL    HW169184   2.263  11.692   3.329
22429SOL    HW269185   2.386  11.627   3.270
22430SOL     OW69186   6.925   1.577   9.027
22430SOL    HW169187   7.016   1.607   9.017
22430SOL    HW269188   6.914   1.514   8.956
22431SOL     OW69189  11.340  13.506   2.056
22431SOL    HW169190  11.259  13.558   2.060
22431SOL    HW269191  11.322  13.431   2.112
22432SOL     OW69192   3.875   0.425  14.194
22432SOL    HW169193   3.853   0.502  14.140
22432SOL    HW269194   3.852   0.451  14.283
22433SOL     OW69195  14.674  11.733  11.522
22433SOL    HW169196  14.686  11.799  11.591
22433SOL    HW269197  14.667  11.784  11.441
22434SOL     OW69198  12.264   7.279   2.724
22434SOL    HW169199  12.253   7.356   2.667
22434SOL    HW269200  12.358   7.260   2.718
22435SOL     OW69201   6.018   7.851  12.214
22435SOL    HW169202   6.006   7.852  12.309
22435SOL    HW269203   5.961   7.780  12.184
22436SOL     OW69204   6.853   4.973   8.713
22436SOL    HW169205   6.945   4.947   8.709
22436SOL    HW269206   6.852   5.064   8.684
22437SOL     OW69207   3.154  10.684   6.890
22437SOL    HW169208   3.069  10.723   6.908
22437SOL    HW269209   3.142  10.640   6.806
22438SOL     OW69210  10.983  13.633  12.531
22438SOL    HW169211  11.067  13.612  12.491
22438SOL    HW269212  10.982  13.583  12.613
22439SOL     OW69213  13.741  11.237   3.417
22439SOL    HW169214  13.797  11.312   3.433
22439SOL    HW269215  13.659  11.258   3.462
22440SOL     OW69216  14.507   7.979  12.933
22440SOL    HW169217  14.468   7.975  13.021
22440SOL    HW269218  14.591   8.022  12.946
22441SOL     OW69219   8.861  10.291   0.487
22441SOL    HW169220   8.908  10.272   0.406
22441SOL    HW269221   8.906  10.367   0.523
22442SOL     OW69222   9.226  12.032   5.975
22442SOL    HW169223   9.321  12.020   5.976
22442SOL    HW269224   9.192  11.955   6.021
22443SOL     OW69225  13.927   6.097   4.827
22443SOL    HW169226  13.863   6.164   4.852
22443SOL    HW269227  13.948   6.051   4.908
22444SOL     OW69228  11.812  12.360  12.227
22444SOL    HW169229  11.837  12.358  12.320
22444SOL    HW269230  11.738  12.420  12.223
22445SOL     OW69231  13.830   7.643   5.496
22445SOL    HW169232  13.850   7.595   5.416
22445SOL    HW269233  13.734   7.641   5.501
22446SOL     OW69234   6.292   5.856   1.011
22446SOL    HW169235   6.382   5.849   1.044
22446SOL    HW269236   6.261   5.765   1.007
22447SOL     OW69237  12.725   6.970   3.410
22447SOL    HW169238  12.718   6.908   3.483
22447SOL    HW269239  12.741   7.055   3.451
22448SOL     OW69240   8.202  11.964   3.511
22448SOL    HW169241   8.224  12.028   3.578
22448SOL    HW269242   8.201  12.014   3.429
22449SOL     OW69243  11.569   1.417   0.792
22449SOL    HW169244  11.575   1.330   0.832
22449SOL    HW269245  11.478   1.423   0.763
22450SOL     OW69246  12.513  11.527  14.079
22450SOL    HW169247  12.552  11.443  14.059
22450SOL    HW269248  12.435  11.532  14.024
22451SOL     OW69249  12.031  12.040   8.145
22451SOL    HW169250  11.978  12.119   8.136
22451SOL    HW269251  12.027  11.998   8.059
22452SOL     OW69252  10.727  11.247  11.264
22452SOL    HW169253  10.817  11.221  11.278
22452SOL    HW269254  10.724  11.339  11.292
22453SOL     OW69255   7.472  11.998  13.984
22453SOL    HW169256   7.453  12.089  14.007
22453SOL    HW269257   7.457  11.993  13.890
22454SOL     OW69258   2.772   6.126   0.932
22454SOL    HW169259   2.703   6.144   0.868
22454SOL    HW269260   2.813   6.211   0.948
22455SOL     OW69261  12.664   5.914   1.920
22455SOL    HW169262  12.706   5.883   1.839
22455SOL    HW269263  12.613   5.990   1.892
22456SOL     OW69264  11.982   5.179   8.889
22456SOL    HW169265  11.992   5.258   8.835
22456SOL    HW269266  11.903   5.195   8.941
22457SOL     OW69267   2.635   6.097   4.472
22457SOL    HW169268   2.648   6.178   4.421
22457SOL    HW269269   2.572   6.047   4.420
22458SOL     OW69270   2.537  13.361   4.716
22458SOL    HW169271   2.527  13.277   4.671
22458SOL    HW269272   2.582  13.340   4.798
22459SOL     OW69273   9.152  14.436  12.271
22459SOL    HW169274   9.154  14.368  12.339
22459SOL    HW269275   9.244  14.453  12.251
22460SOL     OW69276  11.725   0.622   4.941
22460SOL    HW169277  11.737   0.714   4.917
22460SOL    HW269278  11.631   0.612   4.953
22461SOL     OW69279   6.897  12.258  10.555
22461SOL    HW169280   6.885  12.255  10.650
22461SOL    HW269281   6.910  12.351  10.535
22462SOL     OW69282  11.160  14.226   0.218
22462SOL    HW169283  11.252  14.252   0.215
22462SOL    HW269284  11.159  14.136   0.184
22463SOL     OW69285   7.821  10.178   0.081
22463SOL    HW169286   7.886  10.162   0.150
22463SOL    HW269287   7.856  10.254   0.033
22464SOL     OW69288   5.389   1.485  14.168
22464SOL    HW169289   5.393   1.578  14.147
22464SOL    HW269290   5.313   1.453  14.119
22465SOL     OW69291   9.803   8.928   7.738
22465SOL    HW169292   9.762   8.898   7.657
22465SOL    HW269293   9.731   8.964   7.789
22466SOL     OW69294   2.144   6.750   6.354
22466SOL    HW169295   2.072   6.799   6.393
22466SOL    HW269296   2.112   6.726   6.267
22467SOL     OW69297   7.763   7.227   0.290
22467SOL    HW169298   7.708   7.278   0.230
22467SOL    HW269299   7.753   7.271   0.375
22468SOL     OW69300   2.227   5.567  13.622
22468SOL    HW169301   2.247   5.606  13.537
22468SOL    HW269302   2.148   5.612  13.651
22469SOL     OW69303   8.848  13.258   8.142
22469SOL    HW169304   8.920  13.198   8.159
22469SOL    HW269305   8.880  13.315   8.072
22470SOL     OW69306  12.809  10.881  10.181
22470SOL    HW169307  12.816  10.794  10.221
22470SOL    HW269308  12.756  10.867  10.102
22471SOL     OW69309   1.602  14.803   7.974
22471SOL    HW169310   1.630  14.745   8.045
22471SOL    HW269311   1.674  14.865   7.964
22472SOL     OW69312   2.536  12.490  10.377
22472SOL    HW169313   2.457  12.442  10.400
22472SOL    HW269314   2.549  12.550  10.451
22473SOL     OW69315   7.966  10.181   9.347
22473SOL    HW169316   8.045  10.206   9.395
22473SOL    HW269317   7.942  10.259   9.297
22474SOL     OW69318  11.615   9.101   8.786
22474SOL    HW169319  11.564   9.181   8.793
22474SOL    HW269320  11.549   9.031   8.781
22475SOL     OW69321  11.552  14.253   8.826
22475SOL    HW169322  11.512  14.187   8.769
22475SOL    HW269323  11.511  14.336   8.800
22476SOL     OW69324   7.337  11.558   0.255
22476SOL    HW169325   7.319  11.474   0.298
22476SOL    HW269326   7.423  11.584   0.287
22477SOL     OW69327  11.868   2.636  13.258
22477SOL    HW169328  11.962   2.623  13.264
22477SOL    HW269329  11.833   2.599  13.339
22478SOL     OW69330  11.157   9.128  12.302
22478SOL    HW169331  11.098   9.173  12.364
22478SOL    HW269332  11.174   9.044  12.344
22479SOL     OW69333   8.774   4.906   0.517
22479SOL    HW169334   8.678   4.916   0.518
22479SOL    HW269335   8.789   4.812   0.520
22480SOL     OW69336  14.099   5.219  12.684
22480SOL    HW169337  14.071   5.145  12.738
22480SOL    HW269338  14.021   5.242  12.633
22481SOL     OW69339   1.645  14.127   1.257
22481SOL    HW169340   1.701  14.156   1.329
22481SOL    HW269341   1.705  14.120   1.182
22482SOL     OW69342  12.229   8.502   9.744
22482SOL    HW169343  12.134   8.501   9.746
22482SOL    HW269344  12.254   8.552   9.822
22483SOL     OW69345   1.286   8.044   1.303
22483SOL    HW169346   1.242   7.981   1.359
22483SOL    HW269347   1.366   8.068   1.351
22484SOL     OW69348   3.177  13.998   2.103
22484SOL    HW169349   3.185  14.087   2.068
22484SOL    HW269350   3.267  13.967   2.111
22485SOL     OW69351  11.401   5.622   7.280
22485SOL    HW169352  11.476   5.678   7.297
22485SOL    HW269353  11.363   5.656   7.199
22486SOL     OW69354  12.954   2.124   4.723
22486SOL    HW169355  12.882   2.063   4.740
22486SOL    HW269356  12.917   2.189   4.664
22487SOL     OW69357   7.212   0.658   4.574
22487SOL    HW169358   7.276   0.645   4.504
22487SOL    HW269359   7.157   0.579   4.571
22488SOL     OW69360   3.664   9.047  12.710
22488SOL    HW169361   3.593   9.028  12.648
22488SOL    HW269362   3.743   9.051  12.655
22489SOL     OW69363  14.641   9.945  11.157
22489SOL    HW169364  14.673   9.979  11.074
22489SOL    HW269365  14.549   9.972  11.160
22490SOL     OW69366   3.351   4.545  11.350
22490SOL    HW169367   3.307   4.514  11.429
22490SOL    HW269368   3.282   4.592  11.302
22491SOL     OW69369   4.185   7.129  11.963
22491SOL    HW169370   4.099   7.169  11.948
22491SOL    HW269371   4.172   7.037  11.942
22492SOL     OW69372   0.140   7.543  13.375
22492SOL    HW169373   0.101   7.481  13.313
22492SOL    HW269374   0.220   7.500  13.405
22493SOL     OW69375   7.725   7.030   1.517
22493SOL    HW169376   7.701   6.937   1.522
22493SOL    HW269377   7.644   7.077   1.536
22494SOL     OW69378   1.318  13.517   9.942
22494SOL    HW169379   1.309  13.595   9.887
22494SOL    HW269380   1.242  13.520  10.000
22495SOL     OW69381   7.718   9.653   9.468
22495SOL    HW169382   7.641   9.602   9.443
22495SOL    HW269383   7.766   9.596   9.528
22496SOL     OW69384   5.547   7.255  11.345
22496SOL    HW169385   5.518   7.338  11.384
22496SOL    HW269386   5.633   7.239  11.385
22497SOL     OW69387   8.618  13.131  11.111
22497SOL    HW169388   8.541  13.133  11.168
22497SOL    HW269389   8.670  13.058  11.145
22498SOL     OW69390   0.667   0.117  13.172
22498SOL    HW169391   0.723   0.081  13.102
22498SOL    HW269392   0.578   0.104  13.139
22499SOL     OW69393   1.930  12.613   6.399
22499SOL    HW169394   1.916  12.575   6.312
22499SOL    HW269395   1.870  12.566   6.456
22500SOL     OW69396   7.719  13.725   1.512
22500SOL    HW169397   7.655  13.793   1.533
22500SOL    HW269398   7.772  13.717   1.591
22501SOL     OW69399  10.955   0.702  13.534
22501SOL    HW169400  10.975   0.611  13.556
22501SOL    HW269401  10.931   0.741  13.617
22502SOL     OW69402   8.510   7.900   4.857
22502SOL    HW169403   8.418   7.912   4.834
22502SOL    HW269404   8.509   7.886   4.952
22503SOL     OW69405   6.815   9.787   8.505
22503SOL    HW169406   6.750   9.846   8.543
22503SOL    HW269407   6.898   9.816   8.542
22504SOL     OW69408   0.386   8.298   6.736
22504SOL    HW169409   0.471   8.310   6.779
22504SOL    HW269410   0.394   8.213   6.692
22505SOL     OW69411  11.376  12.954   3.781
22505SOL    HW169412  11.328  13.036   3.766
22505SOL    HW269413  11.343  12.894   3.714
22506SOL     OW69414  12.897   6.100   8.418
22506SOL    HW169415  12.881   6.180   8.369
22506SOL    HW269416  12.910   6.129   8.509
22507SOL     OW69417   7.038   8.832   2.274
22507SOL    HW169418   6.989   8.900   2.228
22507SOL    HW269419   7.068   8.874   2.355
22508SOL     OW69420  12.028   9.070  13.533
22508SOL    HW169421  12.074   9.147  13.567
22508SOL    HW269422  11.989   9.099  13.451
22509SOL     OW69423  11.930   0.490  10.797
22509SOL    HW169424  12.004   0.463  10.743
22509SOL    HW269425  11.965   0.494  10.886
22510SOL     OW69426   0.327  13.762   4.856
22510SOL    HW169427   0.420  13.773   4.880
22510SOL    HW269428   0.330  13.720   4.770
22511SOL     OW69429   2.609   5.504   5.474
22511SOL    HW169430   2.570   5.549   5.549
22511SOL    HW269431   2.698   5.539   5.469
22512SOL     OW69432   4.828   1.758  13.905
22512SOL    HW169433   4.808   1.671  13.871
22512SOL    HW269434   4.753   1.779  13.961
22513SOL     OW69435  12.675   2.238  10.717
22513SOL    HW169436  12.751   2.193  10.679
22513SOL    HW269437  12.616   2.251  10.644
22514SOL     OW69438   3.157  12.379   8.211
22514SOL    HW169439   3.191  12.306   8.262
22514SOL    HW269440   3.107  12.338   8.140
22515SOL     OW69441   3.544   4.999   6.107
22515SOL    HW169442   3.563   4.910   6.138
22515SOL    HW269443   3.461   5.021   6.149
22516SOL     OW69444  11.826  10.145   0.829
22516SOL    HW169445  11.738  10.174   0.854
22516SOL    HW269446  11.813  10.089   0.753
22517SOL     OW69447   9.796   4.793   2.144
22517SOL    HW169448   9.864   4.815   2.208
22517SOL    HW269449   9.726   4.856   2.161
22518SOL     OW69450   3.307  13.487  10.893
22518SOL    HW169451   3.299  13.490  10.988
22518SOL    HW269452   3.397  13.515  10.875
22519SOL     OW69453   8.853  12.386   9.471
22519SOL    HW169454   8.892  12.346   9.393
22519SOL    HW269455   8.766  12.346   9.477
22520SOL     OW69456  14.642   9.990   5.229
22520SOL    HW169457  14.601   9.930   5.292
22520SOL    HW269458  14.720   9.943   5.199
22521SOL     OW69459   8.123   8.497   3.920
22521SOL    HW169460   8.091   8.436   3.854
22521SOL    HW269461   8.046   8.545   3.949
22522SOL     OW69462   2.123   0.112   3.091
22522SOL    HW169463   2.089   0.067   3.014
22522SOL    HW269464   2.086   0.200   3.086
22523SOL     OW69465  10.215   5.263   6.896
22523SOL    HW169466  10.222   5.272   6.991
22523SOL    HW269467  10.122   5.243   6.881
22524SOL     OW69468   5.381   6.957   2.962
22524SOL    HW169469   5.286   6.940   2.960
22524SOL    HW269470   5.397   7.010   2.884
22525SOL     OW69471   0.702   4.892   1.778
22525SOL    HW169472   0.692   4.813   1.832
22525SOL    HW269473   0.669   4.963   1.833
22526SOL     OW69474   6.494   2.709   2.394
22526SOL    HW169475   6.560   2.658   2.441
22526SOL    HW269476   6.544   2.770   2.339
22527SOL     OW69477  11.621  14.249   5.447
22527SOL    HW169478  11.583  14.181   5.392
22527SOL    HW269479  11.567  14.250   5.526
22528SOL     OW69480   5.619  11.304   7.650
22528SOL    HW169481   5.614  11.331   7.741
22528SOL    HW269482   5.597  11.383   7.600
22529SOL     OW69483   8.239   5.904   7.289
22529SOL    HW169484   8.266   5.891   7.380
22529SOL    HW269485   8.224   5.998   7.281
22530SOL     OW69486  10.953   2.152  12.864
22530SOL    HW169487  11.021   2.219  12.869
22530SOL    HW269488  10.916   2.149  12.952
22531SOL     OW69489   8.076   4.021   3.133
22531SOL    HW169490   8.121   4.039   3.216
22531SOL    HW269491   8.115   3.939   3.102
22532SOL     OW69492   8.139   1.762  13.397
22532SOL    HW169493   8.161   1.838  13.343
22532SOL    HW269494   8.131   1.797  13.486
22533SOL     OW69495   3.797  12.498   6.441
22533SOL    HW169496   3.874  12.551   6.458
22533SOL    HW269497   3.795  12.434   6.512
22534SOL     OW69498  11.982   3.511  11.994
22534SOL    HW169499  12.074   3.526  12.017
22534SOL    HW269500  11.977   3.417  11.977
22535SOL     OW69501   9.878   5.231   4.051
22535SOL    HW169502   9.943   5.301   4.056
22535SOL    HW269503   9.929   5.153   4.029
22536SOL     OW69504   5.266   7.637   4.822
22536SOL    HW169505   5.323   7.569   4.787
22536SOL    HW269506   5.279   7.633   4.917
22537SOL     OW69507  13.714   2.852   2.476
22537SOL    HW169508  13.731   2.877   2.567
22537SOL    HW269509  13.666   2.769   2.483
22538SOL     OW69510   7.989  13.758  13.130
22538SOL    HW169511   7.901  13.731  13.155
22538SOL    HW269512   8.047  13.690  13.164
22539SOL     OW69513   3.506   9.152   0.297
22539SOL    HW169514   3.557   9.186   0.371
22539SOL    HW269515   3.539   9.064   0.283
22540SOL     OW69516  11.359   2.382   9.104
22540SOL    HW169517  11.398   2.388   9.192
22540SOL    HW269518  11.422   2.331   9.054
22541SOL     OW69519  12.601  12.750   6.683
22541SOL    HW169520  12.519  12.702   6.675
22541SOL    HW269521  12.599  12.787   6.772
22542SOL     OW69522   1.649  10.422  13.937
22542SOL    HW169523   1.689  10.502  13.904
22542SOL    HW269524   1.682  10.412  14.026
22543SOL     OW69525   7.210   5.698  12.306
22543SOL    HW169526   7.198   5.656  12.221
22543SOL    HW269527   7.135   5.756  12.315
22544SOL     OW69528   3.752  12.840   6.148
22544SOL    HW169529   3.752  12.821   6.242
22544SOL    HW269530   3.683  12.905   6.136
22545SOL     OW69531   7.347  11.932   2.434
22545SOL    HW169532   7.383  11.844   2.430
22545SOL    HW269533   7.272  11.930   2.374
22546SOL     OW69534   9.571  10.415   4.328
22546SOL    HW169535   9.514  10.470   4.274
22546SOL    HW269536   9.576  10.332   4.281
22547SOL     OW69537  12.325   8.578  12.647
22547SOL    HW169538  12.391   8.510  12.663
22547SOL    HW269539  12.244   8.540  12.682
22548SOL     OW69540  10.273   6.932   6.441
22548SOL    HW169541  10.247   7.024   6.446
22548SOL    HW269542  10.192   6.884   6.457
22549SOL     OW69543  12.290  14.080   0.817
22549SOL    HW169544  12.314  13.988   0.827
22549SOL    HW269545  12.303  14.118   0.904
22550SOL     OW69546   6.742   3.933  14.187
22550SOL    HW169547   6.691   4.010  14.214
22550SOL    HW269548   6.830   3.949  14.220
22551SOL     OW69549   2.070   7.015   7.698
22551SOL    HW169550   2.117   7.057   7.626
22551SOL    HW269551   2.062   7.084   7.764
22552SOL     OW69552  13.150  12.305  12.173
22552SOL    HW169553  13.148  12.399  12.156
22552SOL    HW269554  13.223  12.294  12.234
22553SOL     OW69555   2.830   4.014   0.012
22553SOL    HW169556   2.855   4.054   0.095
22553SOL    HW269557   2.736   3.998   0.021
22554SOL     OW69558   4.712  13.266   5.325
22554SOL    HW169559   4.766  13.230   5.395
22554SOL    HW269560   4.750  13.231   5.245
22555SOL     OW69561   8.343   6.999   5.296
22555SOL    HW169562   8.404   6.926   5.309
22555SOL    HW269563   8.317   6.993   5.204
22556SOL     OW69564  13.828  10.550  10.954
22556SOL    HW169565  13.838  10.610  10.880
22556SOL    HW269566  13.745  10.576  10.995
22557SOL     OW69567  11.035  13.473  10.894
22557SOL    HW169568  10.967  13.508  10.952
22557SOL    HW269569  10.995  13.475  10.807
22558SOL     OW69570  14.275   4.045   6.274
22558SOL    HW169571  14.231   3.960   6.277
22558SOL    HW269572  14.212   4.106   6.313
22559SOL     OW69573   9.466   3.961  12.973
22559SOL    HW169574   9.501   4.048  12.952
22559SOL    HW269575   9.372   3.975  12.985
22560SOL     OW69576   7.238   7.837   8.360
22560SOL    HW169577   7.214   7.771   8.295
22560SOL    HW269578   7.293   7.789   8.423
22561SOL     OW69579  14.206   1.809  13.303
22561SOL    HW169580  14.263   1.825  13.378
22561SOL    HW269581  14.118   1.802  13.340
22562SOL     OW69582  11.718  11.032   1.760
22562SOL    HW169583  11.791  11.087   1.790
22562SOL    HW269584  11.697  10.979   1.837
22563SOL     OW69585   0.669   0.389   3.872
22563SOL    HW169586   0.719   0.350   3.944
22563SOL    HW269587   0.726   0.457   3.837
22564SOL     OW69588   5.459   4.103   7.469
22564SOL    HW169589   5.514   4.054   7.408
22564SOL    HW269590   5.458   4.192   7.433
22565SOL     OW69591   9.379   9.956   5.055
22565SOL    HW169592   9.403   9.864   5.042
22565SOL    HW269593   9.406   9.975   5.145
22566SOL     OW69594   7.539  10.489   2.728
22566SOL    HW169595   7.497  10.458   2.809
22566SOL    HW269596   7.538  10.413   2.670
22567SOL     OW69597  13.011   7.891   3.616
22567SOL    HW169598  13.045   7.803   3.606
22567SOL    HW269599  12.957   7.888   3.695
22568SOL     OW69600   9.888   1.955   8.312
22568SOL    HW169601   9.819   1.968   8.377
22568SOL    HW269602   9.943   2.033   8.320
22569SOL     OW69603   1.826   5.211   8.268
22569SOL    HW169604   1.790   5.159   8.197
22569SOL    HW269605   1.759   5.277   8.287
22570SOL     OW69606   5.858   6.947   8.664
22570SOL    HW169607   5.929   6.959   8.602
22570SOL    HW269608   5.886   6.995   8.742
22571SOL     OW69609  12.155  12.641   2.682
22571SOL    HW169610  12.149  12.630   2.587
22571SOL    HW269611  12.110  12.565   2.718
22572SOL     OW69612   9.435  12.016   2.745
22572SOL    HW169613   9.372  12.039   2.813
22572SOL    HW269614   9.393  12.042   2.663
22573SOL     OW69615   9.299   3.107  10.940
22573SOL    HW169616   9.302   3.200  10.918
22573SOL    HW269617   9.304   3.063  10.855
22574SOL     OW69618   4.587   9.446  14.339
22574SOL    HW169619   4.580   9.388  14.415
22574SOL    HW269620   4.639   9.397  14.276
22575SOL     OW69621  12.333   0.809  13.784
22575SOL    HW169622  12.247   0.777  13.810
22575SOL    HW269623  12.391   0.781  13.855
22576SOL     OW69624   6.361   0.144   3.979
22576SOL    HW169625   6.334   0.146   3.887
22576SOL    HW269626   6.315   0.217   4.019
22577SOL     OW69627   7.886   4.959   2.142
22577SOL    HW169628   7.959   5.004   2.185
22577SOL    HW269629   7.908   4.866   2.150
22578SOL     OW69630   4.412   8.097   6.191
22578SOL    HW169631   4.431   8.167   6.253
22578SOL    HW269632   4.340   8.131   6.137
22579SOL     OW69633  10.018   3.799   4.413
22579SOL    HW169634  10.049   3.807   4.323
22579SOL    HW269635   9.923   3.802   4.406
22580SOL     OW69636   0.575   2.830   9.026
22580SOL    HW169637   0.505   2.810   9.088
22580SOL    HW269638   0.604   2.744   8.994
22581SOL     OW69639  13.131   7.480   4.930
22581SOL    HW169640  13.092   7.415   4.872
22581SOL    HW269641  13.222   7.451   4.940
22582SOL     OW69642  13.362   2.937   4.921
22582SOL    HW169643  13.310   2.917   4.844
22582SOL    HW269644  13.452   2.918   4.895
22583SOL     OW69645   8.212   1.943  12.757
22583SOL    HW169646   8.297   1.899  12.758
22583SOL    HW269647   8.148   1.872  12.755
22584SOL     OW69648   0.138   8.890   2.246
22584SOL    HW169649   0.167   8.956   2.308
22584SOL    HW269650   0.110   8.939   2.169
22585SOL     OW69651   8.850  10.515  10.695
22585SOL    HW169652   8.811  10.431  10.719
22585SOL    HW269653   8.801  10.542  10.617
22586SOL     OW69654   8.500   4.647   9.891
22586SOL    HW169655   8.458   4.563   9.869
22586SOL    HW269656   8.592   4.634   9.868
22587SOL     OW69657   4.070   3.213   7.121
22587SOL    HW169658   4.063   3.121   7.147
22587SOL    HW269659   4.012   3.222   7.045
22588SOL     OW69660   6.295   6.323   7.636
22588SOL    HW169661   6.257   6.351   7.720
22588SOL    HW269662   6.247   6.373   7.570
22589SOL     OW69663   5.952   9.711   4.171
22589SOL    HW169664   6.047   9.698   4.167
22589SOL    HW269665   5.942   9.799   4.207
22590SOL     OW69666  10.389  13.469   2.263
22590SOL    HW169667  10.308  13.450   2.216
22590SOL    HW269668  10.423  13.383   2.288
22591SOL     OW69669   4.625   3.312  13.184
22591SOL    HW169670   4.594   3.279  13.100
22591SOL    HW269671   4.546   3.347  13.226
22592SOL     OW69672  11.340   9.470   2.382
22592SOL    HW169673  11.366   9.486   2.472
22592SOL    HW269674  11.382   9.541   2.332
22593SOL     OW69675   2.038  13.759  11.642
22593SOL    HW169676   2.013  13.723  11.557
22593SOL    HW269677   1.983  13.837  11.652
22594SOL     OW69678  14.141   4.810   9.640
22594SOL    HW169679  14.233   4.828   9.660
22594SOL    HW269680  14.134   4.715   9.646
22595SOL     OW69681  11.763   5.876   7.851
22595SOL    HW169682  11.814   5.915   7.922
22595SOL    HW269683  11.720   5.800   7.891
22596SOL     OW69684   3.419  13.783   7.577
22596SOL    HW169685   3.338  13.799   7.529
22596SOL    HW269686   3.439  13.866   7.620
22597SOL     OW69687   9.255   0.497   0.245
22597SOL    HW169688   9.180   0.556   0.255
22597SOL    HW269689   9.315   0.522   0.315
22598SOL     OW69690   2.949   5.483   3.601
22598SOL    HW169691   2.924   5.541   3.673
22598SOL    HW269692   2.886   5.411   3.605
22599SOL     OW69693  10.257   3.147   8.034
22599SOL    HW169694  10.167   3.121   8.016
22599SOL    HW269695  10.250   3.235   8.071
22600SOL     OW69696   9.134  13.730   2.426
22600SOL    HW169697   9.170  13.693   2.345
22600SOL    HW269698   9.184  13.689   2.496
22601SOL     OW69699   8.832  13.400  11.121
22601SOL    HW169700   8.881  13.336  11.070
22601SOL    HW269701   8.837  13.368  11.211
22602SOL     OW69702   9.923   1.433  10.791
22602SOL    HW169703   9.940   1.417  10.698
22602SOL    HW269704   9.887   1.522  10.793
22603SOL     OW69705  11.238   2.649   2.242
22603SOL    HW169706  11.174   2.622   2.177
22603SOL    HW269707  11.320   2.608   2.213
22604SOL     OW69708  12.308   1.928  13.044
22604SOL    HW169709  12.239   1.880  13.092
22604SOL    HW269710  12.388   1.880  13.065
22605SOL     OW69711  11.305  11.283   4.016
22605SOL    HW169712  11.376  11.220   4.001
22605SOL    HW269713  11.293  11.326   3.932
22606SOL     OW69714  14.071   3.425  12.226
22606SOL    HW169715  14.100   3.402  12.315
22606SOL    HW269716  14.086   3.519  12.220
22607SOL     OW69717   1.552   3.403  10.382
22607SOL    HW169718   1.647   3.410  10.394
22607SOL    HW269719   1.520   3.377  10.469
22608SOL     OW69720   5.768  11.287   0.073
22608SOL    HW169721   5.715  11.219   0.032
22608SOL    HW269722   5.855  11.276   0.036
22609SOL     OW69723  11.863   5.980   5.493
22609SOL    HW169724  11.925   5.963   5.422
22609SOL    HW269725  11.784   6.010   5.449
22610SOL     OW69726   1.257   4.154   5.154
22610SOL    HW169727   1.218   4.098   5.086
22610SOL    HW269728   1.350   4.157   5.132
22611SOL     OW69729   0.730  11.252  10.659
22611SOL    HW169730   0.740  11.253  10.564
22611SOL    HW269731   0.759  11.165  10.686
22612SOL     OW69732   8.936   3.495   7.790
22612SOL    HW169733   8.914   3.569   7.846
22612SOL    HW269734   8.971   3.534   7.711
22613SOL     OW69735   7.330   2.852   7.450
22613SOL    HW169736   7.272   2.921   7.419
22613SOL    HW269737   7.281   2.771   7.437
22614SOL     OW69738  13.223   0.608   0.507
22614SOL    HW169739  13.225   0.582   0.414
22614SOL    HW269740  13.161   0.547   0.547
22615SOL     OW69741   2.185   4.447  14.734
22615SOL    HW169742   2.256   4.504  14.762
22615SOL    HW269743   2.117   4.459  14.800
22616SOL     OW69744  14.038   2.998   1.648
22616SOL    HW169745  14.074   3.031   1.731
22616SOL    HW269746  13.947   3.027   1.648
22617SOL     OW69747  14.590  13.951  13.504
22617SOL    HW169748  14.639  13.973  13.583
22617SOL    HW269749  14.643  13.986  13.432
22618SOL     OW69750   0.524   4.504  11.979
22618SOL    HW169751   0.456   4.556  11.938
22618SOL    HW269752   0.480   4.459  12.051
22619SOL     OW69753  14.780   4.512  14.544
22619SOL    HW169754  14.793   4.519  14.450
22619SOL    HW269755  14.775   4.418  14.560
22620SOL     OW69756   8.896  12.134   3.696
22620SOL    HW169757   8.848  12.089   3.765
22620SOL    HW269758   8.881  12.081   3.618
22621SOL     OW69759  11.408   9.810   7.538
22621SOL    HW169760  11.435   9.861   7.615
22621SOL    HW269761  11.442   9.859   7.463
22622SOL     OW69762   2.570  12.713  11.536
22622SOL    HW169763   2.620  12.656  11.594
22622SOL    HW269764   2.553  12.791  11.590
22623SOL     OW69765   8.403  13.156   3.581
22623SOL    HW169766   8.445  13.238   3.605
22623SOL    HW269767   8.335  13.181   3.519
22624SOL     OW69768   0.733   8.583   7.505
22624SOL    HW169769   0.714   8.601   7.597
22624SOL    HW269770   0.646   8.577   7.464
22625SOL     OW69771   3.783  13.637   3.239
22625SOL    HW169772   3.769  13.556   3.288
22625SOL    HW269773   3.822  13.697   3.303
22626SOL     OW69774  10.755   4.967   0.253
22626SOL    HW169775  10.741   5.040   0.192
22626SOL    HW269776  10.837   4.927   0.223
22627SOL     OW69777   1.857   9.478   1.226
22627SOL    HW169778   1.781   9.527   1.256
22627SOL    HW269779   1.821   9.395   1.194
22628SOL     OW69780   9.834   9.031  13.446
22628SOL    HW169781   9.901   8.979  13.490
22628SOL    HW269782   9.866   9.121  13.450
22629SOL     OW69783   7.624  11.906   3.921
22629SOL    HW169784   7.551  11.885   3.863
22629SOL    HW269785   7.640  11.826   3.971
22630SOL     OW69786   1.102   6.187   9.351
22630SOL    HW169787   1.102   6.147   9.438
22630SOL    HW269788   1.042   6.262   9.360
22631SOL     OW69789   4.389   6.028   6.698
22631SOL    HW169790   4.303   5.988   6.684
22631SOL    HW269791   4.391   6.048   6.791
22632SOL     OW69792   2.188   8.448   5.690
22632SOL    HW169793   2.260   8.470   5.749
22632SOL    HW269794   2.137   8.528   5.684
22633SOL     OW69795   0.611  12.885   6.908
22633SOL    HW169796   0.578  12.813   6.854
22633SOL    HW269797   0.548  12.956   6.895
22634SOL     OW69798   2.727   7.792  10.267
22634SOL    HW169799   2.764   7.709  10.239
22634SOL    HW269800   2.654   7.767  10.324
22635SOL     OW69801  12.350  11.378   6.795
22635SOL    HW169802  12.413  11.446   6.773
22635SOL    HW269803  12.268  11.425   6.810
22636SOL     OW69804   5.219   9.217  10.352
22636SOL    HW169805   5.176   9.175  10.427
22636SOL    HW269806   5.269   9.289  10.391
22637SOL     OW69807  11.652   4.725   9.812
22637SOL    HW169808  11.606   4.651   9.854
22637SOL    HW269809  11.729   4.685   9.773
22638SOL     OW69810   0.080   4.907   6.305
22638SOL    HW169811   0.064   4.816   6.328
22638SOL    HW269812   0.014   4.927   6.238
22639SOL     OW69813   7.818   8.152   2.993
22639SOL    HW169814   7.793   8.071   2.948
22639SOL    HW269815   7.736   8.199   3.006
22640SOL     OW69816  10.596  12.266   3.652
22640SOL    HW169817  10.624  12.180   3.621
22640SOL    HW269818  10.534  12.247   3.723
22641SOL     OW69819   7.747   3.128   3.929
22641SOL    HW169820   7.786   3.121   3.843
22641SOL    HW269821   7.748   3.039   3.964
22642SOL     OW69822  11.409   5.275  11.195
22642SOL    HW169823  11.468   5.291  11.268
22642SOL    HW269824  11.354   5.353  11.192
22643SOL     OW69825   9.327  10.128   4.000
22643SOL    HW169826   9.397  10.133   3.935
22643SOL    HW269827   9.269  10.059   3.968
22644SOL     OW69828   0.201  14.681   0.189
22644SOL    HW169829   0.170  14.754   0.243
22644SOL    HW269830   0.286  14.709   0.157
22645SOL     OW69831   2.320   1.566  10.041
22645SOL    HW169832   2.392   1.629  10.033
22645SOL    HW269833   2.364   1.482  10.054
22646SOL     OW69834   0.873   3.262  11.841
22646SOL    HW169835   0.838   3.178  11.813
22646SOL    HW269836   0.967   3.255  11.828
22647SOL     OW69837   7.409   9.678   3.304
22647SOL    HW169838   7.435   9.770   3.307
22647SOL    HW269839   7.492   9.629   3.302
22648SOL     OW69840   9.753   7.671   0.026
22648SOL    HW169841   9.659   7.657   0.042
22648SOL    HW269842   9.766   7.765   0.044
22649SOL     OW69843  14.315   7.507   3.862
22649SOL    HW169844  14.289   7.430   3.812
22649SOL    HW269845  14.276   7.581   3.815
22650SOL     OW69846   9.872   9.791  10.817
22650SOL    HW169847   9.878   9.705  10.857
22650SOL    HW269848   9.944   9.841  10.855
22651SOL     OW69849   8.678   8.228   1.439
22651SOL    HW169850   8.613   8.158   1.439
22651SOL    HW269851   8.747   8.196   1.496
22652SOL     OW69852  11.472   3.580   4.942
22652SOL    HW169853  11.430   3.606   5.024
22652SOL    HW269854  11.478   3.484   4.948
22653SOL     OW69855   6.590   8.508   0.567
22653SOL    HW169856   6.532   8.457   0.510
22653SOL    HW269857   6.656   8.543   0.507
22654SOL     OW69858   8.615  12.756   2.385
22654SOL    HW169859   8.666  12.734   2.308
22654SOL    HW269860   8.680  12.762   2.456
22655SOL     OW69861   1.677   1.246   6.589
22655SOL    HW169862   1.724   1.179   6.638
22655SOL    HW269863   1.586   1.215   6.587
22656SOL     OW69864   9.767  11.175   9.741
22656SOL    HW169865   9.683  11.213   9.714
22656SOL    HW269866   9.745  11.123   9.818
22657SOL     OW69867   9.223   4.735   5.627
22657SOL    HW169868   9.154   4.797   5.604
22657SOL    HW269869   9.247   4.693   5.544
22658SOL     OW69870   3.722   9.400   2.835
22658SOL    HW169871   3.751   9.408   2.925
22658SOL    HW269872   3.673   9.480   2.817
22659SOL     OW69873   4.693  14.546  14.607
22659SOL    HW169874   4.770  14.517  14.656
22659SOL    HW269875   4.623  14.550  14.673
22660SOL     OW69876  10.708  13.243   1.149
22660SOL    HW169877  10.651  13.170   1.125
22660SOL    HW269878  10.676  13.317   1.096
22661SOL     OW69879  14.110   5.504  10.759
22661SOL    HW169880  14.028   5.472  10.722
22661SOL    HW269881  14.144   5.430  10.810
22662SOL     OW69882  13.391   5.523  13.198
22662SOL    HW169883  13.455   5.582  13.239
22662SOL    HW269884  13.443   5.447  13.172
22663SOL     OW69885   5.798   1.379   8.872
22663SOL    HW169886   5.706   1.388   8.848
22663SOL    HW269887   5.842   1.357   8.789
22664SOL     OW69888   4.969   0.892   6.373
22664SOL    HW169889   4.901   0.833   6.404
22664SOL    HW269890   5.000   0.937   6.451
22665SOL     OW69891   4.112   6.429  13.198
22665SOL    HW169892   4.183   6.462  13.142
22665SOL    HW269893   4.087   6.505  13.250
22666SOL     OW69894  10.439   3.915   8.699
22666SOL    HW169895  10.352   3.886   8.726
22666SOL    HW269896  10.457   3.867   8.619
22667SOL     OW69897  11.675  10.493   4.145
22667SOL    HW169898  11.745  10.558   4.141
22667SOL    HW269899  11.622  10.509   4.067
22668SOL     OW69900   9.885   3.372  14.099
22668SOL    HW169901   9.894   3.404  14.009
22668SOL    HW269902   9.798   3.402  14.126
22669SOL     OW69903   3.266  14.726   0.116
22669SOL    HW169904   3.310  14.799   0.074
22669SOL    HW269905   3.230  14.675   0.044
22670SOL     OW69906   5.320  10.914   4.269
22670SOL    HW169907   5.312  10.991   4.213
22670SOL    HW269908   5.375  10.943   4.342
22671SOL     OW69909   6.337  13.792   5.086
22671SOL    HW169910   6.334  13.886   5.069
22671SOL    HW269911   6.304  13.783   5.175
22672SOL     OW69912  12.948  12.500  10.289
22672SOL    HW169913  13.032  12.511  10.335
22672SOL    HW269914  12.885  12.546  10.344
22673SOL     OW69915  12.113   8.212  13.958
22673SOL    HW169916  12.055   8.277  13.919
22673SOL    HW269917  12.118   8.142  13.892
22674SOL     OW69918   3.138   2.852   0.648
22674SOL    HW169919   3.175   2.939   0.661
22674SOL    HW269920   3.045   2.868   0.627
22675SOL     OW69921  13.473  12.019   2.555
22675SOL    HW169922  13.506  12.012   2.465
22675SOL    HW269923  13.407  11.951   2.562
22676SOL     OW69924   6.402   6.732  14.154
22676SOL    HW169925   6.358   6.817  14.145
22676SOL    HW269926   6.488   6.754  14.191
22677SOL     OW69927  12.204   3.982  11.376
22677SOL    HW169928  12.300   3.982  11.377
22677SOL    HW269929  12.180   3.927  11.302
22678SOL     OW69930   1.484   1.830   0.390
22678SOL    HW169931   1.503   1.768   0.319
22678SOL    HW269932   1.434   1.900   0.347
22679SOL     OW69933  14.831  10.688   7.323
22679SOL    HW169934  14.790  10.602   7.325
22679SOL    HW269935  14.838  10.714   7.415
22680SOL     OW69936  11.821   5.912  10.619
22680SOL    HW169937  11.864   5.985  10.574
22680SOL    HW269938  11.885   5.882  10.683
22681SOL     OW69939   5.732   1.731  11.266
22681SOL    HW169940   5.674   1.803  11.288
22681SOL    HW269941   5.755   1.745  11.174
22682SOL     OW69942   1.470  14.823   6.524
22682SOL    HW169943   1.377  14.845   6.521
22682SOL    HW269944   1.474  14.740   6.571
22683SOL     OW69945  11.569   4.155   3.307
22683SOL    HW169946  11.616   4.174   3.226
22683SOL    HW269947  11.476   4.162   3.284
22684SOL     OW69948   0.049   2.471   5.777
22684SOL    HW169949  14.851   2.524   5.810
22684SOL    HW269950   0.077   2.516   5.698
22685SOL     OW69951  12.734  13.566   3.536
22685SOL    HW169952  12.650  13.529   3.507
22685SOL    HW269953  12.785  13.575   3.456
22686SOL     OW69954   1.588  13.763   2.811
22686SOL    HW169955   1.644  13.765   2.888
22686SOL    HW269956   1.599  13.849   2.770
22687SOL     OW69957  10.217   5.840   3.882
22687SOL    HW169958  10.201   5.904   3.951
22687SOL    HW269959  10.163   5.764   3.906
22688SOL     OW69960  11.288   2.467   3.880
22688SOL    HW169961  11.250   2.458   3.967
22688SOL    HW269962  11.378   2.437   3.890
22689SOL     OW69963  14.685  14.148   4.927
22689SOL    HW169964  14.639  14.071   4.960
22689SOL    HW269965  14.775  14.117   4.912
22690SOL     OW69966   1.851  13.421   4.366
22690SOL    HW169967   1.772  13.413   4.312
22690SOL    HW269968   1.906  13.348   4.339
22691SOL     OW69969   1.806  12.663   0.497
22691SOL    HW169970   1.858  12.634   0.572
22691SOL    HW269971   1.718  12.629   0.513
22692SOL     OW69972   9.367   0.861   8.860
22692SOL    HW169973   9.397   0.952   8.857
22692SOL    HW269974   9.280   0.863   8.820
22693SOL     OW69975   8.974   0.869  12.911
22693SOL    HW169976   8.893   0.896  12.866
22693SOL    HW269977   8.967   0.774  12.917
22694SOL     OW69978   7.950   9.899   5.309
22694SOL    HW169979   7.861   9.891   5.273
22694SOL    HW269980   7.962   9.818   5.360
22695SOL     OW69981   3.115  14.677   3.290
22695SOL    HW169982   3.151  14.742   3.230
22695SOL    HW269983   3.192  14.643   3.338
22696SOL     OW69984  13.254   9.703   2.811
22696SOL    HW169985  13.248   9.676   2.903
22696SOL    HW269986  13.164   9.707   2.781
22697SOL     OW69987  13.581  11.267  12.778
22697SOL    HW169988  13.540  11.221  12.705
22697SOL    HW269989  13.611  11.197  12.836
22698SOL     OW69990  12.118  12.435   4.073
22698SOL    HW169991  12.194  12.431   4.132
22698SOL    HW269992  12.063  12.362   4.100
22699SOL     OW69993  14.478   2.828  11.964
22699SOL    HW169994  14.570   2.804  11.969
22699SOL    HW269995  14.477   2.923  11.975
22700SOL     OW69996   1.617   7.595   4.718
22700SOL    HW169997   1.522   7.593   4.722
22700SOL    HW269998   1.644   7.504   4.733
22701SOL     OW69999   6.226   5.358   1.543
22701SOL    HW170000   6.293   5.424   1.563
22701SOL    HW270001   6.167   5.360   1.618
22702SOL     OW70002   4.019  11.238  14.326
22702SOL    HW170003   3.986  11.317  14.370
22702SOL    HW270004   4.005  11.255  14.233
22703SOL     OW70005   8.422   4.277  11.808
22703SOL    HW170006   8.388   4.356  11.767
22703SOL    HW270007   8.516   4.289  11.811
22704SOL     OW70008   8.351   4.698   6.094
22704SOL    HW170009   8.373   4.785   6.125
22704SOL    HW270010   8.260   4.705   6.065
22705SOL     OW70011  14.431  11.358   0.892
22705SOL    HW170012  14.482  11.311   0.958
22705SOL    HW270013  14.402  11.438   0.937
22706SOL     OW70014  12.450   7.644   7.958
22706SOL    HW170015  12.445   7.581   8.030
22706SOL    HW270016  12.437   7.591   7.880
22707SOL     OW70017   7.218   7.531  14.815
22707SOL    HW170018   7.308   7.544  14.787
22707SOL    HW270019   7.200   7.606  14.872
22708SOL     OW70020  10.421  12.450   1.446
22708SOL    HW170021  10.386  12.369   1.409
22708SOL    HW270022  10.476  12.422   1.519
22709SOL     OW70023  12.407  12.231   3.775
22709SOL    HW170024  12.431  12.319   3.804
22709SOL    HW270025  12.412  12.235   3.679
22710SOL     OW70026   9.821  10.668   2.998
22710SOL    HW170027   9.868  10.738   3.042
22710SOL    HW270028   9.883  10.594   2.999
22711SOL     OW70029  14.380  11.665  13.961
22711SOL    HW170030  14.350  11.618  14.039
22711SOL    HW270031  14.448  11.609  13.924
22712SOL     OW70032   0.202   8.529   5.827
22712SOL    HW170033   0.157   8.518   5.743
22712SOL    HW270034   0.199   8.623   5.843
22713SOL     OW70035   0.373   1.203   4.512
22713SOL    HW170036   0.450   1.255   4.532
22713SOL    HW270037   0.305   1.267   4.489
22714SOL     OW70038  11.674   8.583  13.907
22714SOL    HW170039  11.739   8.647  13.879
22714SOL    HW270040  11.684   8.579  14.002
22715SOL     OW70041   1.827  14.034   1.769
22715SOL    HW170042   1.841  13.940   1.762
22715SOL    HW270043   1.813  14.063   1.678
22716SOL     OW70044   2.698   9.383   9.959
22716SOL    HW170045   2.679   9.372   9.866
22716SOL    HW270046   2.655   9.465   9.982
22717SOL     OW70047   8.394  13.788  11.262
22717SOL    HW170048   8.483  13.812  11.285
22717SOL    HW270049   8.396  13.777  11.167
22718SOL     OW70050   0.772  11.972   2.545
22718SOL    HW170051   0.770  12.046   2.485
22718SOL    HW270052   0.680  11.949   2.558
22719SOL     OW70053   8.768   6.917   4.657
22719SOL    HW170054   8.802   6.834   4.690
22719SOL    HW270055   8.787   6.980   4.727
22720SOL     OW70056   9.797   3.752   6.933
22720SOL    HW170057   9.756   3.764   7.019
22720SOL    HW270058   9.723   3.752   6.871
22721SOL     OW70059   8.161   9.736   4.365
22721SOL    HW170060   8.077   9.739   4.319
22721SOL    HW270061   8.218   9.792   4.313
22722SOL     OW70062   3.649  13.444  10.431
22722SOL    HW170063   3.643  13.355  10.395
22722SOL    HW270064   3.559  13.466  10.456
22723SOL     OW70065   5.108   9.377   6.964
22723SOL    HW170066   5.086   9.309   6.901
22723SOL    HW270067   5.047   9.448   6.945
22724SOL     OW70068  13.092   8.905  13.845
22724SOL    HW170069  13.143   8.829  13.815
22724SOL    HW270070  13.152   8.952  13.904
22725SOL     OW70071  10.318   2.995  11.284
22725SOL    HW170072  10.257   2.928  11.315
22725SOL    HW270073  10.334   2.972  11.193
22726SOL     OW70074   0.677   5.355  11.359
22726SOL    HW170075   0.765   5.318  11.350
22726SOL    HW270076   0.646   5.323  11.444
22727SOL     OW70077   6.847   5.664   9.110
22727SOL    HW170078   6.837   5.610   9.031
22727SOL    HW270079   6.867   5.601   9.179
22728SOL     OW70080   0.138   1.372   5.126
22728SOL    HW170081   0.229   1.347   5.111
22728SOL    HW270082   0.094   1.357   5.043
22729SOL     OW70083   4.618   6.787   9.208
22729SOL    HW170084   4.674   6.847   9.258
22729SOL    HW270085   4.530   6.824   9.218
22730SOL     OW70086   9.439   8.686  13.491
22730SOL    HW170087   9.492   8.611  13.518
22730SOL    HW270088   9.500   8.758  13.483
22731SOL     OW70089   2.493  10.909  12.273
22731SOL    HW170090   2.562  10.928  12.209
22731SOL    HW270091   2.538  10.864  12.345
22732SOL     OW70092  11.043  10.564   5.431
22732SOL    HW170093  11.138  10.560   5.430
22732SOL    HW270094  11.015  10.473   5.418
22733SOL     OW70095   9.326   2.602  11.415
22733SOL    HW170096   9.305   2.621  11.324
22733SOL    HW270097   9.279   2.520  11.434
22734SOL     OW70098   7.038  11.943   4.749
22734SOL    HW170099   7.078  11.869   4.796
22734SOL    HW270100   7.026  11.910   4.659
22735SOL     OW70101   9.254   1.503   7.199
22735SOL    HW170102   9.180   1.565   7.200
22735SOL    HW270103   9.319   1.544   7.257
22736SOL     OW70104   6.493   4.575  11.393
22736SOL    HW170105   6.587   4.571  11.378
22736SOL    HW270106   6.484   4.598  11.485
22737SOL     OW70107   0.239   2.097   1.481
22737SOL    HW170108   0.264   2.124   1.393
22737SOL    HW270109   0.322   2.085   1.527
22738SOL     OW70110  11.043  11.129   7.379
22738SOL    HW170111  10.981  11.163   7.315
22738SOL    HW270112  11.065  11.041   7.348
22739SOL     OW70113   4.382  12.659   6.932
22739SOL    HW170114   4.373  12.656   6.836
22739SOL    HW270115   4.357  12.572   6.961
22740SOL     OW70116  11.953  14.142   5.165
22740SOL    HW170117  11.936  14.162   5.257
22740SOL    HW270118  11.866  14.142   5.124
22741SOL     OW70119  13.900   4.445  13.897
22741SOL    HW170120  13.919   4.478  13.985
22741SOL    HW270121  13.804   4.450  13.890
22742SOL     OW70122  13.542  11.879   3.494
22742SOL    HW170123  13.537  11.792   3.454
22742SOL    HW270124  13.504  11.937   3.429
22743SOL     OW70125  12.238   9.470  14.682
22743SOL    HW170126  12.153   9.442  14.648
22743SOL    HW270127  12.274   9.391  14.723
22744SOL     OW70128  11.672  12.132   4.258
22744SOL    HW170129  11.650  12.215   4.214
22744SOL    HW270130  11.652  12.065   4.194
22745SOL     OW70131   0.604   5.612  13.167
22745SOL    HW170132   0.676   5.549  13.177
22745SOL    HW270133   0.610   5.641  13.077
22746SOL     OW70134  11.458  12.237  14.140
22746SOL    HW170135  11.370  12.223  14.105
22746SOL    HW270136  11.501  12.293  14.074
22747SOL     OW70137   5.507  13.892   2.198
22747SOL    HW170138   5.578  13.836   2.167
22747SOL    HW270139   5.550  13.954   2.257
22748SOL     OW70140   1.301   4.195  10.924
22748SOL    HW170141   1.307   4.106  10.890
22748SOL    HW270142   1.214   4.200  10.965
22749SOL     OW70143  13.601   7.473  13.803
22749SOL    HW170144  13.660   7.432  13.867
22749SOL    HW270145  13.529   7.411  13.794
22750SOL     OW70146   7.265   5.040   7.595
22750SOL    HW170147   7.286   4.958   7.640
22750SOL    HW270148   7.348   5.069   7.558
22751SOL     OW70149   9.567   6.981   6.662
22751SOL    HW170150   9.534   6.913   6.722
22751SOL    HW270151   9.488   7.015   6.620
22752SOL     OW70152   7.888   0.105   2.164
22752SOL    HW170153   7.957   0.123   2.228
22752SOL    HW270154   7.897   0.173   2.098
22753SOL     OW70155   2.080  13.599   1.236
22753SOL    HW170156   2.018  13.549   1.289
22753SOL    HW270157   2.154  13.540   1.223
22754SOL     OW70158  10.639   1.052   8.813
22754SOL    HW170159  10.713   1.029   8.756
22754SOL    HW270160  10.660   1.011   8.897
22755SOL     OW70161   7.990   6.411   5.401
22755SOL    HW170162   8.037   6.327   5.407
22755SOL    HW270163   7.901   6.387   5.376
22756SOL     OW70164   7.835   7.163   9.843
22756SOL    HW170165   7.899   7.126   9.782
22756SOL    HW270166   7.874   7.148   9.929
22757SOL     OW70167   1.147  12.680   6.990
22757SOL    HW170168   1.180  12.591   6.979
22757SOL    HW270169   1.145  12.716   6.902
22758SOL     OW70170  12.460   4.965   4.116
22758SOL    HW170171  12.477   5.059   4.120
22758SOL    HW270172  12.404   4.954   4.039
22759SOL     OW70173   5.904   1.350   5.153
22759SOL    HW170174   5.828   1.349   5.213
22759SOL    HW270175   5.879   1.290   5.083
22760SOL     OW70176   3.997   8.135  13.542
22760SOL    HW170177   3.921   8.122  13.599
22760SOL    HW270178   3.987   8.225  13.510
22761SOL     OW70179   6.566   1.371   9.777
22761SOL    HW170180   6.643   1.426   9.795
22761SOL    HW270181   6.601   1.283   9.769
22762SOL     OW70182  13.772  12.268   5.551
22762SOL    HW170183  13.786  12.316   5.633
22762SOL    HW270184  13.681  12.238   5.557
22763SOL     OW70185  11.622   1.666   3.642
22763SOL    HW170186  11.715   1.660   3.662
22763SOL    HW270187  11.580   1.605   3.703
22764SOL     OW70188  11.675  12.425   8.550
22764SOL    HW170189  11.637  12.504   8.590
22764SOL    HW270190  11.749  12.457   8.500
22765SOL     OW70191  13.507   6.286  12.829
22765SOL    HW170192  13.594   6.323  12.844
22765SOL    HW270193  13.448   6.344  12.876
22766SOL     OW70194   6.874   1.607   1.245
22766SOL    HW170195   6.904   1.526   1.287
22766SOL    HW270196   6.954   1.659   1.234
22767SOL     OW70197  12.227  13.059   2.892
22767SOL    HW170198  12.301  13.033   2.838
22767SOL    HW270199  12.254  13.038   2.982
22768SOL     OW70200   2.134   1.816   8.934
22768SOL    HW170201   2.103   1.888   8.989
22768SOL    HW270202   2.225   1.839   8.915
22769SOL     OW70203   7.080  13.334   7.499
22769SOL    HW170204   7.012  13.385   7.542
22769SOL    HW270205   7.161  13.362   7.541
22770SOL     OW70206  14.054  10.789   0.636
22770SOL    HW170207  14.001  10.714   0.611
22770SOL    HW270208  14.126  10.790   0.573
22771SOL     OW70209   1.278   8.779  14.674
22771SOL    HW170210   1.215   8.752  14.608
22771SOL    HW270211   1.310   8.697  14.712
22772SOL     OW70212   0.599   8.123   5.477
22772SOL    HW170213   0.602   8.219   5.470
22772SOL    HW270214   0.513   8.105   5.516
22773SOL     OW70215   0.233   1.966  11.999
22773SOL    HW170216   0.295   1.956  11.927
22773SOL    HW270217   0.230   1.879  12.041
22774SOL     OW70218   7.433   1.178   3.901
22774SOL    HW170219   7.486   1.186   3.980
22774SOL    HW270220   7.343   1.169   3.933
22775SOL     OW70221   6.752   8.763  10.018
22775SOL    HW170222   6.706   8.799   9.942
22775SOL    HW270223   6.786   8.679   9.987
22776SOL     OW70224  11.860  14.751   5.483
22776SOL    HW170225  11.878  14.802   5.404
22776SOL    HW270226  11.940  14.757   5.535
22777SOL     OW70227   8.113   7.735   2.910
22777SOL    HW170228   8.066   7.776   2.837
22777SOL    HW270229   8.044   7.696   2.964
22778SOL     OW70230   8.515   3.234   7.752
22778SOL    HW170231   8.544   3.144   7.737
22778SOL    HW270232   8.565   3.263   7.828
22779SOL     OW70233   1.086   0.370   8.472
22779SOL    HW170234   1.076   0.350   8.565
22779SOL    HW270235   1.130   0.293   8.435
22780SOL     OW70236  10.933  11.476   3.640
22780SOL    HW170237  10.902  11.417   3.571
22780SOL    HW270238  10.865  11.543   3.646
22781SOL     OW70239   9.533   5.991  12.892
22781SOL    HW170240   9.444   5.990  12.858
22781SOL    HW270241   9.567   5.903  12.875
22782SOL     OW70242   8.587   2.629   9.729
22782SOL    HW170243   8.618   2.540   9.747
22782SOL    HW270244   8.638   2.657   9.653
22783SOL     OW70245   5.346  12.992   2.728
22783SOL    HW170246   5.280  13.031   2.785
22783SOL    HW270247   5.376  12.914   2.776
22784SOL     OW70248  12.439  13.663  13.431
22784SOL    HW170249  12.470  13.591  13.486
22784SOL    HW270250  12.517  13.695  13.387
22785SOL     OW70251   2.117  10.604  12.598
22785SOL    HW170252   2.138  10.668  12.530
22785SOL    HW270253   2.026  10.580  12.580
22786SOL     OW70254   7.621   9.914   6.452
22786SOL    HW170255   7.634  10.003   6.486
22786SOL    HW270256   7.710   9.881   6.438
22787SOL     OW70257   5.159  11.703   7.178
22787SOL    HW170258   5.111  11.659   7.247
22787SOL    HW270259   5.203  11.633   7.130
22788SOL     OW70260   1.139   7.070   8.013
22788SOL    HW170261   1.064   7.035   8.062
22788SOL    HW270262   1.186   7.123   8.077
22789SOL     OW70263   4.940  10.639   4.039
22789SOL    HW170264   5.030  10.669   4.047
22789SOL    HW270265   4.890  10.695   4.098
22790SOL     OW70266  13.237   7.028   7.877
22790SOL    HW170267  13.321   7.056   7.838
22790SOL    HW270268  13.198   6.971   7.811
22791SOL     OW70269   2.575   6.047   2.575
22791SOL    HW170270   2.598   6.053   2.482
22791SOL    HW270271   2.481   6.030   2.576
22792SOL     OW70272  10.264   6.480   9.428
22792SOL    HW170273  10.287   6.566   9.393
22792SOL    HW270274  10.325   6.420   9.385
22793SOL     OW70275   5.615  12.049   9.897
22793SOL    HW170276   5.701  12.033   9.936
22793SOL    HW270277   5.575  12.115   9.953
22794SOL     OW70278   9.200   9.385   2.295
22794SOL    HW170279   9.151   9.358   2.217
22794SOL    HW270280   9.208   9.480   2.286
22795SOL     OW70281   9.020   2.978  11.502
22795SOL    HW170282   8.979   2.917  11.564
22795SOL    HW270283   9.092   2.928  11.464
22796SOL     OW70284   0.158   6.595   8.776
22796SOL    HW170285   0.204   6.512   8.761
22796SOL    HW270286   0.066   6.574   8.760
22797SOL     OW70287  12.048   7.320   1.796
22797SOL    HW170288  11.995   7.384   1.749
22797SOL    HW270289  12.086   7.265   1.727
22798SOL     OW70290   2.398   4.013   8.745
22798SOL    HW170291   2.314   4.059   8.747
22798SOL    HW270292   2.417   4.001   8.652
22799SOL     OW70293   4.528   4.105  12.525
22799SOL    HW170294   4.606   4.148  12.559
22799SOL    HW270295   4.523   4.131  12.433
22800SOL     OW70296   4.508  14.350   0.337
22800SOL    HW170297   4.529  14.438   0.368
22800SOL    HW270298   4.419  14.358   0.304
22801SOL     OW70299   3.099  14.074   3.187
22801SOL    HW170300   3.124  14.074   3.094
22801SOL    HW270301   3.140  13.995   3.222
22802SOL     OW70302   0.517   8.789   7.301
22802SOL    HW170303   0.517   8.879   7.269
22802SOL    HW270304   0.485   8.795   7.391
22803SOL     OW70305   1.469   7.356   7.856
22803SOL    HW170306   1.447   7.267   7.884
22803SOL    HW270307   1.386   7.403   7.859
22804SOL     OW70308   4.135   0.170  12.101
22804SOL    HW170309   4.159   0.212  12.019
22804SOL    HW270310   4.215   0.126  12.129
22805SOL     OW70311   4.189   3.434   3.709
22805SOL    HW170312   4.255   3.478   3.762
22805SOL    HW270313   4.107   3.478   3.732
22806SOL     OW70314   6.133  11.444   0.399
22806SOL    HW170315   6.038  11.449   0.390
22806SOL    HW270316   6.166  11.456   0.310
22807SOL     OW70317   1.698   4.834  12.364
22807SOL    HW170318   1.640   4.798  12.296
22807SOL    HW270319   1.651   4.817  12.446
22808SOL     OW70320   9.248   7.741   0.591
22808SOL    HW170321   9.162   7.763   0.556
22808SOL    HW270322   9.231   7.710   0.680
22809SOL     OW70323  11.594  12.975   8.448
22809SOL    HW170324  11.521  13.009   8.396
22809SOL    HW270325  11.608  13.040   8.516
22810SOL     OW70326   1.616   0.379   6.890
22810SOL    HW170327   1.633   0.424   6.973
22810SOL    HW270328   1.605   0.449   6.826
22811SOL     OW70329   9.135  11.891   2.141
22811SOL    HW170330   9.142  11.808   2.189
22811SOL    HW270331   9.211  11.941   2.170
22812SOL     OW70332   1.250   2.276   9.071
22812SOL    HW170333   1.246   2.283   9.166
22812SOL    HW270334   1.212   2.190   9.052
22813SOL     OW70335  14.679  12.447   5.514
22813SOL    HW170336  14.709  12.485   5.432
22813SOL    HW270337  14.619  12.377   5.487
22814SOL     OW70338   0.152   8.554   3.807
22814SOL    HW170339   0.225   8.590   3.757
22814SOL    HW270340   0.157   8.459   3.791
22815SOL     OW70341  14.013   2.313   4.183
22815SOL    HW170342  14.087   2.317   4.122
22815SOL    HW270343  13.992   2.220   4.188
22816SOL     OW70344  10.382   4.141   9.189
22816SOL    HW170345  10.375   4.232   9.218
22816SOL    HW270346  10.388   4.147   9.094
22817SOL     OW70347   2.952  14.265   7.888
22817SOL    HW170348   2.945  14.208   7.964
22817SOL    HW270349   3.038  14.245   7.851
22818SOL     OW70350  13.824  13.826   4.434
22818SOL    HW170351  13.784  13.740   4.452
22818SOL    HW270352  13.917  13.807   4.422
22819SOL     OW70353  12.925  13.277  10.288
22819SOL    HW170354  12.834  13.288  10.261
22819SOL    HW270355  12.920  13.231  10.372
22820SOL     OW70356   5.574   5.445  13.017
22820SOL    HW170357   5.597   5.355  13.039
22820SOL    HW270358   5.607   5.456  12.927
22821SOL     OW70359  12.143   6.831   3.560
22821SOL    HW170360  12.110   6.816   3.472
22821SOL    HW270361  12.066   6.821   3.617
22822SOL     OW70362   8.519   6.648   6.340
22822SOL    HW170363   8.509   6.743   6.351
22822SOL    HW270364   8.496   6.611   6.425
22823SOL     OW70365  14.768  13.439  14.068
22823SOL    HW170366  14.801  13.528  14.072
22823SOL    HW270367  14.844  13.385  14.045
22824SOL     OW70368   0.158   1.130  11.847
22824SOL    HW170369   0.216   1.204  11.862
22824SOL    HW270370   0.082   1.168  11.803
22825SOL     OW70371   1.478   6.682   0.640
22825SOL    HW170372   1.448   6.773   0.635
22825SOL    HW270373   1.415   6.632   0.588
22826SOL     OW70374   3.408   2.764   7.628
22826SOL    HW170375   3.397   2.806   7.543
22826SOL    HW270376   3.451   2.680   7.608
22827SOL     OW70377   9.859  10.094   3.261
22827SOL    HW170378   9.954  10.090   3.274
22827SOL    HW270379   9.846  10.056   3.174
22828SOL     OW70380  12.535  13.447  14.430
22828SOL    HW170381  12.544  13.388  14.355
22828SOL    HW270382  12.620  13.492  14.434
22829SOL     OW70383  14.487   5.654   7.788
22829SOL    HW170384  14.427   5.671   7.715
22829SOL    HW270385  14.561   5.608   7.748
22830SOL     OW70386   4.186   3.688   1.148
22830SOL    HW170387   4.232   3.624   1.201
22830SOL    HW270388   4.116   3.639   1.106
22831SOL     OW70389   2.369  14.124  11.164
22831SOL    HW170390   2.320  14.173  11.230
22831SOL    HW270391   2.454  14.168  11.159
22832SOL     OW70392   6.518   3.516   7.617
22832SOL    HW170393   6.553   3.461   7.548
22832SOL    HW270394   6.553   3.478   7.698
22833SOL     OW70395   2.864  10.685   8.571
22833SOL    HW170396   2.839  10.672   8.479
22833SOL    HW270397   2.916  10.608   8.593
22834SOL     OW70398  14.354   6.080  12.048
22834SOL    HW170399  14.308   6.054  11.968
22834SOL    HW270400  14.354   6.176  12.044
22835SOL     OW70401   6.484   3.940   6.901
22835SOL    HW170402   6.495   3.845   6.905
22835SOL    HW270403   6.550   3.975   6.962
22836SOL     OW70404  12.434   2.037  10.287
22836SOL    HW170405  12.448   2.001  10.199
22836SOL    HW270406  12.389   1.967  10.334
22837SOL     OW70407   1.443   0.008   1.446
22837SOL    HW170408   1.427   0.062   1.524
22837SOL    HW270409   1.422  14.794   1.474
22838SOL     OW70410   2.124  12.443  11.151
22838SOL    HW170411   2.215  12.471  11.138
22838SOL    HW270412   2.085  12.448  11.064
22839SOL     OW70413  10.487   9.087   8.698
22839SOL    HW170414  10.407   9.046   8.734
22839SOL    HW270415  10.558   9.029   8.727
22840SOL     OW70416   3.445   6.632   1.503
22840SOL    HW170417   3.527   6.639   1.553
22840SOL    HW270418   3.412   6.721   1.498
22841SOL     OW70419   4.049  11.314   9.357
22841SOL    HW170420   4.103  11.392   9.345
22841SOL    HW270421   3.965  11.335   9.317
22842SOL     OW70422  14.126   4.283   6.388
22842SOL    HW170423  14.108   4.370   6.352
22842SOL    HW270424  14.063   4.273   6.459
22843SOL     OW70425   8.250  11.200   4.049
22843SOL    HW170426   8.274  11.172   3.961
22843SOL    HW270427   8.207  11.285   4.037
22844SOL     OW70428   2.165   6.245   3.458
22844SOL    HW170429   2.198   6.327   3.420
22844SOL    HW270430   2.241   6.206   3.501
22845SOL     OW70431  13.064   9.271  10.873
22845SOL    HW170432  13.093   9.197  10.820
22845SOL    HW270433  13.068   9.239  10.963
22846SOL     OW70434   9.006  11.839  11.477
22846SOL    HW170435   8.924  11.854  11.430
22846SOL    HW270436   8.986  11.856  11.569
22847SOL     OW70437   2.421  11.219  10.640
22847SOL    HW170438   2.514  11.235  10.660
22847SOL    HW270439   2.423  11.164  10.562
22848SOL     OW70440  10.919  10.562  13.464
22848SOL    HW170441  11.000  10.557  13.513
22848SOL    HW270442  10.918  10.651  13.427
22849SOL     OW70443   1.874  13.027   8.572
22849SOL    HW170444   1.935  13.083   8.620
22849SOL    HW270445   1.793  13.079   8.567
22850SOL     OW70446  10.023   9.871   9.138
22850SOL    HW170447  10.021   9.793   9.192
22850SOL    HW270448  10.015   9.838   9.048
22851SOL     OW70449  14.078   3.956  10.492
22851SOL    HW170450  14.142   3.932  10.425
22851SOL    HW270451  14.022   3.879  10.500
22852SOL     OW70452   4.126  12.900   1.391
22852SOL    HW170453   4.050  12.954   1.411
22852SOL    HW270454   4.137  12.907   1.296
22853SOL     OW70455   6.979  14.251   0.984
22853SOL    HW170456   6.900  14.209   0.950
22853SOL    HW270457   7.018  14.294   0.908
22854SOL     OW70458   3.410   7.582  10.931
22854SOL    HW170459   3.409   7.492  10.899
22854SOL    HW270460   3.483   7.585  10.992
22855SOL     OW70461   4.383   3.119   8.887
22855SOL    HW170462   4.478   3.124   8.874
22855SOL    HW270463   4.354   3.057   8.820
22856SOL     OW70464   2.259  10.403  14.031
22856SOL    HW170465   2.168  10.410  14.003
22856SOL    HW270466   2.285  10.492  14.053
22857SOL     OW70467   9.224  14.476  10.855
22857SOL    HW170468   9.195  14.564  10.832
22857SOL    HW270469   9.144  14.423  10.851
22858SOL     OW70470   5.678   2.983   1.445
22858SOL    HW170471   5.768   3.015   1.452
22858SOL    HW270472   5.682   2.917   1.375
22859SOL     OW70473  14.124  12.756   2.642
22859SOL    HW170474  14.108  12.749   2.736
22859SOL    HW270475  14.159  12.844   2.630
22860SOL     OW70476   4.410   1.273   6.518
22860SOL    HW170477   4.492   1.234   6.487
22860SOL    HW270478   4.432   1.310   6.603
22861SOL     OW70479   3.073  13.090  14.605
22861SOL    HW170480   3.130  13.132  14.542
22861SOL    HW270481   3.124  13.089  14.687
22862SOL     OW70482  14.736   8.403   0.599
22862SOL    HW170483  14.817   8.439   0.636
22862SOL    HW270484  14.726   8.446   0.515
22863SOL     OW70485   7.725   8.009   7.944
22863SOL    HW170486   7.776   7.999   7.864
22863SOL    HW270487   7.736   7.925   7.990
22864SOL     OW70488  14.659   9.092  11.028
22864SOL    HW170489  14.574   9.094  11.071
22864SOL    HW270490  14.718   9.137  11.089
22865SOL     OW70491   4.899   0.718   0.707
22865SOL    HW170492   4.984   0.760   0.695
22865SOL    HW270493   4.842   0.761   0.643
22866SOL     OW70494   5.573   8.348  13.013
22866SOL    HW170495   5.668   8.344  13.016
22866SOL    HW270496   5.548   8.403  13.087
22867SOL     OW70497   2.617   9.162  13.205
22867SOL    HW170498   2.703   9.198  13.228
22867SOL    HW270499   2.609   9.083  13.258
22868SOL     OW70500  13.110   7.831   7.302
22868SOL    HW170501  13.141   7.921   7.314
22868SOL    HW270502  13.052   7.836   7.226
22869SOL     OW70503   2.824  12.252   2.632
22869SOL    HW170504   2.878  12.191   2.683
22869SOL    HW270505   2.753  12.276   2.692
22870SOL     OW70506   1.982   6.197   9.038
22870SOL    HW170507   1.991   6.177   9.131
22870SOL    HW270508   2.071   6.195   9.004
22871SOL     OW70509   2.423   0.884   2.691
22871SOL    HW170510   2.370   0.813   2.654
22871SOL    HW270511   2.476   0.915   2.618
22872SOL     OW70512   3.704   7.316   9.617
22872SOL    HW170513   3.634   7.380   9.607
22872SOL    HW270514   3.785   7.367   9.610
22873SOL     OW70515  11.234  12.105   0.772
22873SOL    HW170516  11.255  12.053   0.694
22873SOL    HW270517  11.155  12.064   0.808
22874SOL     OW70518   4.360   7.972   2.388
22874SOL    HW170519   4.284   7.915   2.372
22874SOL    HW270520   4.331   8.059   2.361
22875SOL     OW70521  10.429   8.616   8.095
22875SOL    HW170522  10.419   8.699   8.047
22875SOL    HW270523  10.485   8.562   8.040
22876SOL     OW70524   5.144   0.059   5.359
22876SOL    HW170525   5.176   0.102   5.438
22876SOL    HW270526   5.208  14.866   5.340
22877SOL     OW70527   0.123  11.139   7.655
22877SOL    HW170528   0.148  11.201   7.587
22877SOL    HW270529   0.204  11.092   7.676
22878SOL     OW70530   2.801   1.583   8.905
22878SOL    HW170531   2.712   1.617   8.917
22878SOL    HW270532   2.826   1.611   8.817
22879SOL     OW70533  13.843  12.220  10.985
22879SOL    HW170534  13.767  12.273  10.962
22879SOL    HW270535  13.886  12.269  11.055
22880SOL     OW70536  11.777  12.236  13.679
22880SOL    HW170537  11.722  12.242  13.602
22880SOL    HW270538  11.819  12.150  13.672
22881SOL     OW70539   2.522   0.827  13.747
22881SOL    HW170540   2.551   0.882  13.675
22881SOL    HW270541   2.474   0.885  13.805
22882SOL     OW70542   1.221   5.789   1.103
22882SOL    HW170543   1.256   5.844   1.033
22882SOL    HW270544   1.239   5.837   1.183
22883SOL     OW70545  13.088   8.062   0.446
22883SOL    HW170546  13.000   8.088   0.473
22883SOL    HW270547  13.142   8.076   0.523
22884SOL     OW70548   1.412   9.322  14.292
22884SOL    HW170549   1.478   9.329  14.224
22884SOL    HW270550   1.450   9.365  14.368
22885SOL     OW70551   1.562  11.143   7.706
22885SOL    HW170552   1.536  11.090   7.631
22885SOL    HW270553   1.515  11.225   7.696
22886SOL     OW70554   1.003   2.532   6.794
22886SOL    HW170555   0.987   2.593   6.866
22886SOL    HW270556   1.049   2.584   6.729
22887SOL     OW70557   6.237  13.087  14.522
22887SOL    HW170558   6.295  13.020  14.486
22887SOL    HW270559   6.234  13.069  14.616
22888SOL     OW70560   6.067  12.208   7.807
22888SOL    HW170561   6.029  12.296   7.806
22888SOL    HW270562   6.149  12.218   7.855
22889SOL     OW70563   6.533  10.576   4.206
22889SOL    HW170564   6.561  10.666   4.221
22889SOL    HW270565   6.440  10.583   4.184
22890SOL     OW70566   5.658   2.661   8.827
22890SOL    HW170567   5.564   2.680   8.820
22890SOL    HW270568   5.700   2.747   8.825
22891SOL     OW70569  14.290  14.197  12.431
22891SOL    HW170570  14.209  14.170  12.475
22891SOL    HW270571  14.325  14.116  12.394
22892SOL     OW70572   6.675  13.996   1.366
22892SOL    HW170573   6.631  14.074   1.331
22892SOL    HW270574   6.768  14.015   1.356
22893SOL     OW70575   7.616  14.227   9.008
22893SOL    HW170576   7.693  14.172   9.025
22893SOL    HW270577   7.586  14.200   8.921
22894SOL     OW70578   2.069  11.450   1.938
22894SOL    HW170579   2.130  11.516   1.972
22894SOL    HW270580   1.988  11.464   1.987
22895SOL     OW70581   0.638  11.121   6.055
22895SOL    HW170582   0.568  11.097   6.116
22895SOL    HW270583   0.712  11.066   6.081
22896SOL     OW70584   4.044   2.942  10.494
22896SOL    HW170585   4.065   2.861  10.446
22896SOL    HW270586   4.128   2.986  10.505
22897SOL     OW70587  10.473  14.149  12.169
22897SOL    HW170588  10.553  14.201  12.161
22897SOL    HW270589  10.408  14.196  12.116
22898SOL     OW70590   2.363   5.847   4.572
22898SOL    HW170591   2.402   5.930   4.545
22898SOL    HW270592   2.391   5.835   4.663
22899SOL     OW70593   8.995  14.229  11.232
22899SOL    HW170594   9.012  14.320  11.208
22899SOL    HW270595   8.902  14.216  11.214
22900SOL     OW70596   1.221  13.250   1.986
22900SOL    HW170597   1.197  13.246   2.078
22900SOL    HW270598   1.301  13.198   1.979
22901SOL     OW70599   9.705   2.700  13.319
22901SOL    HW170600   9.724   2.791  13.342
22901SOL    HW270601   9.721   2.651  13.399
22902SOL     OW70602   4.267   8.743  10.970
22902SOL    HW170603   4.207   8.738  11.045
22902SOL    HW270604   4.209   8.739  10.894
22903SOL     OW70605  11.546   8.122   6.869
22903SOL    HW170606  11.574   8.138   6.779
22903SOL    HW270607  11.615   8.066   6.906
22904SOL     OW70608  12.703   2.136   5.077
22904SOL    HW170609  12.784   2.089   5.097
22904SOL    HW270610  12.665   2.156   5.162
22905SOL     OW70611   9.349  12.838  10.571
22905SOL    HW170612   9.267  12.888  10.574
22905SOL    HW270613   9.322  12.750  10.545
22906SOL     OW70614   1.971   7.673  13.620
22906SOL    HW170615   1.915   7.645  13.693
22906SOL    HW270616   1.952   7.766  13.610
22907SOL     OW70617   7.626   2.209   0.262
22907SOL    HW170618   7.583   2.282   0.307
22907SOL    HW270619   7.561   2.176   0.201
22908SOL     OW70620  10.428   6.216   5.296
22908SOL    HW170621  10.506   6.210   5.352
22908SOL    HW270622  10.377   6.138   5.318
22909SOL     OW70623   3.283   5.707  10.157
22909SOL    HW170624   3.243   5.773  10.215
22909SOL    HW270625   3.217   5.693  10.089
22910SOL     OW70626  13.568   2.659  12.465
22910SOL    HW170627  13.513   2.606  12.524
22910SOL    HW270628  13.570   2.610  12.383
22911SOL     OW70629   2.349  14.620  12.812
22911SOL    HW170630   2.330  14.527  12.796
22911SOL    HW270631   2.414  14.619  12.882
22912SOL     OW70632   8.617  11.400   3.686
22912SOL    HW170633   8.671  11.465   3.732
22912SOL    HW270634   8.677  11.360   3.623
22913SOL     OW70635   1.128   5.882  14.579
22913SOL    HW170636   1.081   5.806  14.613
22913SOL    HW270637   1.067   5.955  14.592
22914SOL     OW70638   4.732  12.070   1.552
22914SOL    HW170639   4.792  12.006   1.513
22914SOL    HW270640   4.718  12.037   1.641
22915SOL     OW70641  12.906   8.759   6.328
22915SOL    HW170642  12.895   8.698   6.255
22915SOL    HW270643  12.844   8.729   6.394
22916SOL     OW70644   6.406   1.457  11.536
22916SOL    HW170645   6.393   1.415  11.451
22916SOL    HW270646   6.371   1.545  11.524
22917SOL     OW70647   3.712  14.607  12.281
22917SOL    HW170648   3.775  14.536  12.271
22917SOL    HW270649   3.752  14.681  12.234
22918SOL     OW70650   7.510   7.541  10.787
22918SOL    HW170651   7.502   7.630  10.754
22918SOL    HW270652   7.485   7.486  10.713
22919SOL     OW70653  11.731   5.753   9.809
22919SOL    HW170654  11.705   5.812   9.880
22919SOL    HW270655  11.653   5.746   9.754
22920SOL     OW70656   5.967   3.082  12.394
22920SOL    HW170657   5.896   3.018  12.399
22920SOL    HW270658   5.975   3.102  12.301
22921SOL     OW70659   7.897   1.578   3.109
22921SOL    HW170660   7.982   1.615   3.084
22921SOL    HW270661   7.911   1.545   3.197
22922SOL     OW70662   0.811   0.847   4.494
22922SOL    HW170663   0.779   0.934   4.519
22922SOL    HW270664   0.733   0.791   4.498
22923SOL     OW70665   1.569  13.924   8.808
22923SOL    HW170666   1.587  13.945   8.899
22923SOL    HW270667   1.481  13.959   8.792
22924SOL     OW70668   1.949  14.067   3.882
22924SOL    HW170669   1.960  14.099   3.792
22924SOL    HW270670   1.989  14.136   3.937
22925SOL     OW70671   4.982  10.053   9.323
22925SOL    HW170672   4.907  10.063   9.381
22925SOL    HW270673   5.057  10.040   9.381
22926SOL     OW70674   0.849  11.849   3.203
22926SOL    HW170675   0.922  11.910   3.192
22926SOL    HW270676   0.771  11.905   3.210
22927SOL     OW70677  14.561   5.332   2.809
22927SOL    HW170678  14.518   5.284   2.880
22927SOL    HW270679  14.652   5.304   2.812
22928SOL     OW70680   1.438   2.911   4.450
22928SOL    HW170681   1.348   2.878   4.443
22928SOL    HW270682   1.482   2.875   4.374
22929SOL     OW70683  14.512   7.549   4.957
22929SOL    HW170684  14.572   7.612   4.918
22929SOL    HW270685  14.531   7.552   5.051
22930SOL     OW70686   1.859  11.768   7.201
22930SOL    HW170687   1.802  11.788   7.127
22930SOL    HW270688   1.939  11.732   7.161
22931SOL     OW70689   3.833  13.554   8.894
22931SOL    HW170690   3.895  13.607   8.843
22931SOL    HW270691   3.748  13.577   8.858
22932SOL     OW70692   6.667  14.300  12.048
22932SOL    HW170693   6.706  14.219  12.080
22932SOL    HW270694   6.739  14.346  12.004
22933SOL     OW70695   6.066  11.158  13.128
22933SOL    HW170696   6.101  11.165  13.217
22933SOL    HW270697   5.986  11.106  13.137
22934SOL     OW70698   6.944  13.754  12.436
22934SOL    HW170699   7.001  13.769  12.361
22934SOL    HW270700   6.918  13.842  12.465
22935SOL     OW70701   8.399   3.711   0.357
22935SOL    HW170702   8.332   3.779   0.344
22935SOL    HW270703   8.358   3.630   0.326
22936SOL     OW70704   2.806  13.001   8.912
22936SOL    HW170705   2.878  13.027   8.969
22936SOL    HW270706   2.798  13.073   8.849
22937SOL     OW70707  11.232   0.367   6.655
22937SOL    HW170708  11.325   0.349   6.665
22937SOL    HW270709  11.201   0.383   6.745
22938SOL     OW70710   0.970  13.413  12.734
22938SOL    HW170711   0.910  13.382  12.667
22938SOL    HW270712   1.056  13.382  12.705
22939SOL     OW70713  11.617   1.392   1.274
22939SOL    HW170714  11.561   1.388   1.352
22939SOL    HW270715  11.565   1.439   1.209
22940SOL     OW70716   6.462   1.954   8.227
22940SOL    HW170717   6.407   2.032   8.214
22940SOL    HW270718   6.534   1.966   8.165
22941SOL     OW70719   6.989   5.836  12.304
22941SOL    HW170720   6.922   5.810  12.366
22941SOL    HW270721   6.954   5.811  12.218
22942SOL     OW70722  13.961  10.437   5.053
22942SOL    HW170723  13.982  10.344   5.038
22942SOL    HW270724  13.901  10.436   5.127
22943SOL     OW70725   0.449   0.016   9.536
22943SOL    HW170726   0.387   0.089   9.535
22943SOL    HW270727   0.503   0.031   9.614
22944SOL     OW70728   7.195   3.944   0.809
22944SOL    HW170729   7.248   4.023   0.802
22944SOL    HW270730   7.110   3.968   0.770
22945SOL     OW70731  14.422  11.596  13.555
22945SOL    HW170732  14.434  11.669  13.614
22945SOL    HW270733  14.465  11.522  13.598
22946SOL     OW70734   0.988   6.849   7.151
22946SOL    HW170735   1.042   6.917   7.112
22946SOL    HW270736   1.029   6.829   7.235
22947SOL     OW70737   6.253   3.236   8.235
22947SOL    HW170738   6.197   3.306   8.201
22947SOL    HW270739   6.197   3.158   8.235
22948SOL     OW70740  10.798   1.486   5.225
22948SOL    HW170741  10.742   1.484   5.147
22948SOL    HW270742  10.739   1.516   5.295
22949SOL     OW70743   3.222  13.618   3.981
22949SOL    HW170744   3.317  13.624   3.993
22949SOL    HW270745   3.188  13.595   4.067
22950SOL     OW70746  10.376  11.635  13.370
22950SOL    HW170747  10.447  11.576  13.344
22950SOL    HW270748  10.353  11.682  13.290
22951SOL     OW70749  12.802   0.094  13.190
22951SOL    HW170750  12.771   0.031  13.255
22951SOL    HW270751  12.832   0.040  13.117
22952SOL     OW70752   1.167   0.015  12.892
22952SOL    HW170753   1.223  14.875  12.816
22952SOL    HW270754   1.192  14.821  12.954
22953SOL     OW70755   4.759  13.799  14.192
22953SOL    HW170756   4.850  13.779  14.215
22953SOL    HW270757   4.752  13.894  14.206
22954SOL     OW70758  10.927   3.251  10.203
22954SOL    HW170759  10.837   3.262  10.172
22954SOL    HW270760  10.981   3.276  10.128
22955SOL     OW70761   1.032   4.763   5.341
22955SOL    HW170762   1.014   4.717   5.258
22955SOL    HW270763   1.112   4.722   5.374
22956SOL     OW70764   4.096  12.729   7.185
22956SOL    HW170765   4.049  12.651   7.154
22956SOL    HW270766   4.103  12.786   7.108
22957SOL     OW70767   3.428   9.112   6.950
22957SOL    HW170768   3.422   9.030   6.901
22957SOL    HW270769   3.508   9.152   6.918
22958SOL     OW70770   8.513   5.378   4.495
22958SOL    HW170771   8.470   5.460   4.518
22958SOL    HW270772   8.522   5.331   4.578
22959SOL     OW70773   4.891  14.634  10.283
22959SOL    HW170774   4.867  14.663  10.370
22959SOL    HW270775   4.811  14.642  10.231
22960SOL     OW70776  11.035  11.373   1.601
22960SOL    HW170777  11.071  11.290   1.632
22960SOL    HW270778  11.009  11.419   1.681
22961SOL     OW70779   8.152   0.746   9.415
22961SOL    HW170780   8.199   0.817   9.459
22961SOL    HW270781   8.220   0.686   9.386
22962SOL     OW70782  10.286   3.601   6.109
22962SOL    HW170783  10.371   3.632   6.139
22962SOL    HW270784  10.306   3.533   6.044
22963SOL     OW70785   3.745  11.059  11.334
22963SOL    HW170786   3.658  11.023  11.351
22963SOL    HW270787   3.781  11.003  11.265
22964SOL     OW70788  10.427  11.119   4.842
22964SOL    HW170789  10.410  11.174   4.918
22964SOL    HW270790  10.455  11.181   4.774
22965SOL     OW70791  12.919   0.992   3.405
22965SOL    HW170792  12.868   0.913   3.425
22965SOL    HW270793  13.009   0.969   3.431
22966SOL     OW70794   4.007   8.294  10.965
22966SOL    HW170795   4.023   8.201  10.946
22966SOL    HW270796   3.916   8.308  10.940
22967SOL     OW70797  13.544   0.318  10.912
22967SOL    HW170798  13.475   0.382  10.931
22967SOL    HW270799  13.519   0.282  10.827
22968SOL     OW70800   0.594  14.667   1.411
22968SOL    HW170801   0.645  14.599   1.366
22968SOL    HW270802   0.570  14.627   1.495
22969SOL     OW70803  13.439   4.632  10.404
22969SOL    HW170804  13.527   4.642  10.439
22969SOL    HW270805  13.428   4.706  10.343
22970SOL     OW70806   4.087  13.876   3.646
22970SOL    HW170807   4.151  13.936   3.685
22970SOL    HW270808   4.005  13.926   3.645
22971SOL     OW70809   9.024  11.999   2.672
22971SOL    HW170810   9.034  11.906   2.653
22971SOL    HW270811   9.111  12.027   2.700
22972SOL     OW70812   5.031   2.679   9.045
22972SOL    HW170813   5.038   2.696   8.951
22972SOL    HW270814   4.951   2.724   9.072
22973SOL     OW70815   2.532   1.695   7.772
22973SOL    HW170816   2.466   1.638   7.731
22973SOL    HW270817   2.482   1.768   7.808
22974SOL     OW70818   5.451   5.346   3.306
22974SOL    HW170819   5.523   5.406   3.286
22974SOL    HW270820   5.423   5.372   3.394
22975SOL     OW70821  12.293   9.548  13.443
22975SOL    HW170822  12.233   9.486  13.486
22975SOL    HW270823  12.380   9.523  13.475
22976SOL     OW70824  11.514   6.081   8.049
22976SOL    HW170825  11.584   6.021   8.023
22976SOL    HW270826  11.523   6.155   7.989
22977SOL     OW70827  12.612   6.906   2.816
22977SOL    HW170828  12.534   6.934   2.864
22977SOL    HW270829  12.639   6.824   2.859
22978SOL     OW70830  10.939   9.048   6.064
22978SOL    HW170831  10.849   9.061   6.034
22978SOL    HW270832  10.935   9.064   6.158
22979SOL     OW70833   8.746  11.595  10.953
22979SOL    HW170834   8.838  11.584  10.928
22979SOL    HW270835   8.735  11.537  11.028
22980SOL     OW70836   0.488  11.253  12.352
22980SOL    HW170837   0.472  11.188  12.421
22980SOL    HW270838   0.446  11.215  12.275
22981SOL     OW70839  11.505  11.920  14.756
22981SOL    HW170840  11.583  11.947  14.805
22981SOL    HW270841  11.508  11.971  14.676
22982SOL     OW70842  14.616   1.808   2.360
22982SOL    HW170843  14.623   1.713   2.350
22982SOL    HW270844  14.565   1.836   2.284
22983SOL     OW70845   0.965   8.519   2.465
22983SOL    HW170846   1.024   8.497   2.393
22983SOL    HW270847   0.924   8.436   2.488
22984SOL     OW70848   1.927   8.076  12.262
22984SOL    HW170849   1.987   8.042  12.328
22984SOL    HW270850   1.842   8.037  12.284
22985SOL     OW70851   7.478  10.597   9.572
22985SOL    HW170852   7.429  10.581   9.652
22985SOL    HW270853   7.454  10.687   9.546
22986SOL     OW70854   7.678   9.517  14.098
22986SOL    HW170855   7.659   9.423  14.099
22986SOL    HW270856   7.611   9.556  14.155
22987SOL     OW70857   7.677  10.471   5.349
22987SOL    HW170858   7.625  10.415   5.291
22987SOL    HW270859   7.626  10.552   5.356
22988SOL     OW70860  14.711   6.709   7.621
22988SOL    HW170861  14.700   6.622   7.660
22988SOL    HW270862  14.624   6.748   7.625
22989SOL     OW70863   7.983   5.390  14.785
22989SOL    HW170864   7.905   5.366  14.735
22989SOL    HW270865   8.029   5.454  14.730
22990SOL     OW70866   4.247   1.902  11.597
22990SOL    HW170867   4.208   1.885  11.511
22990SOL    HW270868   4.306   1.976  11.582
22991SOL     OW70869   0.801   1.662   8.463
22991SOL    HW170870   0.720   1.622   8.432
22991SOL    HW270871   0.799   1.648   8.558
22992SOL     OW70872   0.729   5.515  12.612
22992SOL    HW170873   0.804   5.539  12.668
22992SOL    HW270874   0.746   5.560  12.530
22993SOL     OW70875  11.509   2.253   5.630
22993SOL    HW170876  11.416   2.242   5.611
22993SOL    HW270877  11.534   2.173   5.676
22994SOL     OW70878  13.694   9.010  13.867
22994SOL    HW170879  13.689   8.970  13.954
22994SOL    HW270880  13.746   8.950  13.815
22995SOL     OW70881  10.498   3.281  13.973
22995SOL    HW170882  10.483   3.221  13.899
22995SOL    HW270883  10.483   3.368  13.937
22996SOL     OW70884   5.115   7.847  11.704
22996SOL    HW170885   5.065   7.837  11.784
22996SOL    HW270886   5.096   7.935  11.673
22997SOL     OW70887   4.237  12.272   0.505
22997SOL    HW170888   4.305  12.248   0.568
22997SOL    HW270889   4.269  12.240   0.421
22998SOL     OW70890   9.616  14.072   8.143
22998SOL    HW170891   9.624  13.976   8.136
22998SOL    HW270892   9.653  14.092   8.229
22999SOL     OW70893  11.516   2.019   0.480
22999SOL    HW170894  11.598   2.035   0.527
22999SOL    HW270895  11.447   2.041   0.543
23000SOL     OW70896   5.528   6.623   2.474
23000SOL    HW170897   5.439   6.588   2.470
23000SOL    HW270898   5.582   6.550   2.504
23001SOL     OW70899   7.707   6.600  11.699
23001SOL    HW170900   7.665   6.570  11.780
23001SOL    HW270901   7.707   6.696  11.706
23002SOL     OW70902  14.677   9.297  13.282
23002SOL    HW170903  14.591   9.256  13.292
23002SOL    HW270904  14.670   9.378  13.333
23003SOL     OW70905  11.521   2.323   4.408
23003SOL    HW170906  11.546   2.302   4.498
23003SOL    HW270907  11.483   2.411   4.414
23004SOL     OW70908  10.625  13.877  14.085
23004SOL    HW170909  10.653  13.936  14.015
23004SOL    HW270910  10.679  13.799  14.074
23005SOL     OW70911   2.270  10.854  12.994
23005SOL    HW170912   2.197  10.887  12.941
23005SOL    HW270913   2.337  10.921  12.986
23006SOL     OW70914   0.996   1.049  14.750
23006SOL    HW170915   1.058   1.119  14.767
23006SOL    HW270916   0.994   0.997  14.830
23007SOL     OW70917   4.441  13.259   6.303
23007SOL    HW170918   4.357  13.287   6.264
23007SOL    HW270919   4.460  13.327   6.368
23008SOL     OW70920   0.749   6.443  11.311
23008SOL    HW170921   0.729   6.364  11.260
23008SOL    HW270922   0.781   6.506  11.247
23009SOL     OW70923   5.367   2.975   3.135
23009SOL    HW170924   5.360   3.051   3.193
23009SOL    HW270925   5.370   2.900   3.195
23010SOL     OW70926   2.262   1.855   6.290
23010SOL    HW170927   2.317   1.789   6.248
23010SOL    HW270928   2.253   1.823   6.381
23011SOL     OW70929  12.934   3.872   9.181
23011SOL    HW170930  12.923   3.853   9.088
23011SOL    HW270931  13.022   3.908   9.189
23012SOL     OW70932   3.449  10.479   8.847
23012SOL    HW170933   3.528  10.459   8.797
23012SOL    HW270934   3.438  10.574   8.838
23013SOL     OW70935   7.181   8.431  10.877
23013SOL    HW170936   7.132   8.510  10.899
23013SOL    HW270937   7.228   8.454  10.797
23014SOL     OW70938   3.920   8.611   2.260
23014SOL    HW170939   3.886   8.655   2.182
23014SOL    HW270940   3.879   8.657   2.334
23015SOL     OW70941   9.120  10.556   0.380
23015SOL    HW170942   9.189  10.587   0.322
23015SOL    HW270943   9.038  10.576   0.333
23016SOL     OW70944   1.804  11.163   3.098
23016SOL    HW170945   1.797  11.258   3.108
23016SOL    HW270946   1.815  11.130   3.187
23017SOL     OW70947  14.529  14.870   2.920
23017SOL    HW170948  14.617  14.840   2.942
23017SOL    HW270949  14.529   0.005   2.825
23018SOL     OW70950   6.036   1.544   0.477
23018SOL    HW170951   5.959   1.549   0.420
23018SOL    HW270952   6.060   1.451   0.475
23019SOL     OW70953  14.676   7.847  13.515
23019SOL    HW170954  14.726   7.770  13.544
23019SOL    HW270955  14.668   7.837  13.420
23020SOL     OW70956   5.566   4.081   9.655
23020SOL    HW170957   5.630   4.130   9.706
23020SOL    HW270958   5.618   4.025   9.598
23021SOL     OW70959   3.009   3.338   2.894
23021SOL    HW170960   3.055   3.323   2.977
23021SOL    HW270961   3.007   3.434   2.885
23022SOL     OW70962   0.858   6.991   0.163
23022SOL    HW170963   0.937   6.940   0.178
23022SOL    HW270964   0.873   7.035   0.080
23023SOL     OW70965   1.367   0.189  11.195
23023SOL    HW170966   1.403   0.139  11.268
23023SOL    HW270967   1.303   0.248  11.236
23024SOL     OW70968   0.955   9.486  14.764
23024SOL    HW170969   0.893   9.482  14.692
23024SOL    HW270970   0.905   9.456  14.840
23025SOL     OW70971   2.526  11.414   3.407
23025SOL    HW170972   2.468  11.387   3.336
23025SOL    HW270973   2.586  11.476   3.366
23026SOL     OW70974   3.435   0.339   3.536
23026SOL    HW170975   3.415   0.433   3.542
23026SOL    HW270976   3.502   0.334   3.467
23027SOL     OW70977  13.811   6.856  14.559
23027SOL    HW170978  13.769   6.826  14.479
23027SOL    HW270979  13.739   6.888  14.613
23028SOL     OW70980  13.216   8.586   0.331
23028SOL    HW170981  13.248   8.656   0.275
23028SOL    HW270982  13.293   8.529   0.343
23029SOL     OW70983   8.288   9.942   8.450
23029SOL    HW170984   8.363   9.955   8.508
23029SOL    HW270985   8.266  10.030   8.418
23030SOL     OW70986   7.938   4.086   5.467
23030SOL    HW170987   7.863   4.140   5.441
23030SOL    HW270988   7.927   4.072   5.561
23031SOL     OW70989  12.622   6.714   6.459
23031SOL    HW170990  12.649   6.655   6.529
23031SOL    HW270991  12.696   6.715   6.398
23032SOL     OW70992  11.021  12.657   1.807
23032SOL    HW170993  11.021  12.738   1.755
23032SOL    HW270994  11.050  12.589   1.745
23033SOL     OW70995  14.317  13.850  11.337
23033SOL    HW170996  14.297  13.892  11.421
23033SOL    HW270997  14.358  13.920  11.285
23034SOL     OW70998   5.949   5.181   2.006
23034SOL    HW170999   5.869   5.231   1.997
23034SOL    HW271000   5.935   5.103   1.952
23035SOL     OW71001  14.473   6.185  12.864
23035SOL    HW171002  14.447   6.255  12.923
23035SOL    HW271003  14.488   6.228  12.780
23036SOL     OW71004  12.657   2.796  10.724
23036SOL    HW171005  12.632   2.748  10.802
23036SOL    HW271006  12.753   2.796  10.726
23037SOL     OW71007   1.939   3.805   5.273
23037SOL    HW171008   1.883   3.742   5.318
23037SOL    HW271009   2.015   3.753   5.245
23038SOL     OW71010   1.603  11.146  13.730
23038SOL    HW171011   1.635  11.201  13.659
23038SOL    HW271012   1.545  11.083  13.688
23039SOL     OW71013   0.036  14.747  14.666
23039SOL    HW171014  14.843  14.804  14.703
23039SOL    HW271015   0.115  14.800  14.670
23040SOL     OW71016   9.474   6.024   7.415
23040SOL    HW171017   9.513   5.936   7.411
23040SOL    HW271018   9.379   6.008   7.415
23041SOL     OW71019   4.408   0.315  12.569
23041SOL    HW171020   4.462   0.360  12.635
23041SOL    HW271021   4.385   0.384  12.507
23042SOL     OW71022   8.086   7.609  10.356
23042SOL    HW171023   8.040   7.689  10.381
23042SOL    HW271024   8.022   7.559  10.305
23043SOL     OW71025   3.840   5.405  10.595
23043SOL    HW171026   3.930   5.429  10.573
23043SOL    HW271027   3.829   5.431  10.686
23044SOL     OW71028  13.390  13.685   5.127
23044SOL    HW171029  13.384  13.615   5.192
23044SOL    HW271030  13.299  13.710   5.110
23045SOL     OW71031  13.977   6.918   4.797
23045SOL    HW171032  13.949   7.009   4.797
23045SOL    HW271033  13.993   6.898   4.889
23046SOL     OW71034   0.725   7.299   1.912
23046SOL    HW171035   0.714   7.332   2.002
23046SOL    HW271036   0.762   7.211   1.924
23047SOL     OW71037   4.421   5.118   4.560
23047SOL    HW171038   4.392   5.074   4.641
23047SOL    HW271039   4.398   5.057   4.490
23048SOL     OW71040   6.317   9.873  10.556
23048SOL    HW171041   6.366   9.899  10.633
23048SOL    HW271042   6.235   9.837  10.590
23049SOL     OW71043   3.760   7.879   4.350
23049SOL    HW171044   3.781   7.874   4.444
23049SOL    HW271045   3.843   7.899   4.308
23050SOL     OW71046  11.120  14.781   6.501
23050SOL    HW171047  11.057  14.725   6.545
23050SOL    HW271048  11.082  14.869   6.505
23051SOL     OW71049   1.194  12.303  12.068
23051SOL    HW171050   1.225  12.227  12.019
23051SOL    HW271051   1.226  12.379  12.018
23052SOL     OW71052  11.050   0.337  13.073
23052SOL    HW171053  11.070   0.249  13.042
23052SOL    HW271054  11.124   0.390  13.045
23053SOL     OW71055   0.505   3.996   8.642
23053SOL    HW171056   0.481   3.943   8.566
23053SOL    HW271057   0.457   3.956   8.715
23054SOL     OW71058   7.817   4.041  10.573
23054SOL    HW171059   7.871   4.119  10.585
23054SOL    HW271060   7.869   3.984  10.517
23055SOL     OW71061   6.117   6.248   3.797
23055SOL    HW171062   6.040   6.219   3.847
23055SOL    HW271063   6.149   6.324   3.845
23056SOL     OW71064  10.249   3.077   1.921
23056SOL    HW171065  10.213   3.086   1.833
23056SOL    HW271066  10.298   2.994   1.920
23057SOL     OW71067  10.517   9.848   8.670
23057SOL    HW171068  10.527   9.838   8.765
23057SOL    HW271069  10.607   9.856   8.637
23058SOL     OW71070   1.872  10.187   1.372
23058SOL    HW171071   1.898  10.232   1.291
23058SOL    HW271072   1.923  10.106   1.371
23059SOL     OW71073   7.095   2.713   9.346
23059SOL    HW171074   7.061   2.632   9.308
23059SOL    HW271075   7.022   2.775   9.340
23060SOL     OW71076   2.363  11.798  13.106
23060SOL    HW171077   2.451  11.823  13.078
23060SOL    HW271078   2.332  11.873  13.156
23061SOL     OW71079   4.474  12.161   2.799
23061SOL    HW171080   4.497  12.254   2.807
23061SOL    HW271081   4.547  12.115   2.842
23062SOL     OW71082   5.553   8.683   8.042
23062SOL    HW171083   5.568   8.668   7.949
23062SOL    HW271084   5.586   8.604   8.085
23063SOL     OW71085  14.695   0.585   9.587
23063SOL    HW171086  14.625   0.635   9.544
23063SOL    HW271087  14.762   0.575   9.519
23064SOL     OW71088   9.408   4.139   4.462
23064SOL    HW171089   9.371   4.221   4.494
23064SOL    HW271090   9.468   4.111   4.532
23065SOL     OW71091   0.140  13.464   4.632
23065SOL    HW171092   0.218  13.515   4.655
23065SOL    HW271093   0.067  13.516   4.667
23066SOL     OW71094   6.155  11.051  13.803
23066SOL    HW171095   6.085  11.073  13.863
23066SOL    HW271096   6.150  10.956  13.793
23067SOL     OW71097   5.551   1.102  13.981
23067SOL    HW171098   5.582   1.175  14.034
23067SOL    HW271099   5.458   1.094  14.003
23068SOL     OW71100   7.923  10.131  13.169
23068SOL    HW171101   7.996  10.167  13.119
23068SOL    HW271102   7.959  10.054  13.212
23069SOL     OW71103  13.759   7.844   3.171
23069SOL    HW171104  13.805   7.804   3.245
23069SOL    HW271105  13.825   7.897   3.127
23070SOL     OW71106  12.751   0.970   7.413
23070SOL    HW171107  12.700   0.937   7.487
23070SOL    HW271108  12.708   1.052   7.389
23071SOL     OW71109   9.507  11.140  12.606
23071SOL    HW171110   9.588  11.122  12.558
23071SOL    HW271111   9.447  11.070  12.581
23072SOL     OW71112  14.747   3.713  11.988
23072SOL    HW171113  14.694   3.758  12.054
23072SOL    HW271114  14.713   3.746  11.905
23073SOL     OW71115   1.117   3.752  11.446
23073SOL    HW171116   1.135   3.843  11.422
23073SOL    HW271117   1.027   3.753  11.479
23074SOL     OW71118  13.283   6.028   7.002
23074SOL    HW171119  13.281   6.064   6.913
23074SOL    HW271120  13.374   6.002   7.016
23075SOL     OW71121   5.043   7.098  12.576
23075SOL    HW171122   5.091   7.142  12.506
23075SOL    HW271123   5.083   7.130  12.657
23076SOL     OW71124  10.040  13.281  13.279
23076SOL    HW171125  10.107  13.332  13.324
23076SOL    HW271126  10.078  13.261  13.193
23077SOL     OW71127   1.629   4.812  10.814
23077SOL    HW171128   1.715   4.775  10.792
23077SOL    HW271129   1.645   4.865  10.891
23078SOL     OW71130  14.022   1.538  12.533
23078SOL    HW171131  14.034   1.590  12.613
23078SOL    HW271132  13.985   1.600  12.470
23079SOL     OW71133   1.840   0.272  10.720
23079SOL    HW171134   1.837   0.206  10.789
23079SOL    HW271135   1.785   0.344  10.753
23080SOL     OW71136   4.964   9.759  12.302
23080SOL    HW171137   4.944   9.717  12.219
23080SOL    HW271138   5.027   9.700  12.345
23081SOL     OW71139   5.359  13.756   1.493
23081SOL    HW171140   5.273  13.760   1.451
23081SOL    HW271141   5.343  13.713   1.577
23082SOL     OW71142  11.150   8.244  11.833
23082SOL    HW171143  11.196   8.286  11.907
23082SOL    HW271144  11.093   8.313  11.799
23083SOL     OW71145  10.359   5.246  11.094
23083SOL    HW171146  10.347   5.333  11.056
23083SOL    HW271147  10.421   5.260  11.166
23084SOL     OW71148   4.995  13.361  11.377
23084SOL    HW171149   5.056  13.400  11.314
23084SOL    HW271150   4.999  13.419  11.453
23085SOL     OW71151  11.734   8.990  11.050
23085SOL    HW171152  11.665   9.013  10.988
23085SOL    HW271153  11.801   8.948  10.996
23086SOL     OW71154  11.855   3.184   2.949
23086SOL    HW171155  11.860   3.274   2.979
23086SOL    HW271156  11.774   3.181   2.897
23087SOL     OW71157  14.472   6.917   4.902
23087SOL    HW171158  14.533   6.910   4.829
23087SOL    HW271159  14.448   7.010   4.904
23088SOL     OW71160  14.802   9.845   9.973
23088SOL    HW171161  14.787   9.810  10.061
23088SOL    HW271162   0.021   9.857   9.967
23089SOL     OW71163   0.447   5.756   5.198
23089SOL    HW171164   0.452   5.848   5.222
23089SOL    HW271165   0.433   5.757   5.104
23090SOL     OW71166  10.955   7.198   3.654
23090SOL    HW171167  11.039   7.230   3.619
23090SOL    HW271168  10.943   7.112   3.614
23091SOL     OW71169   7.285  11.627  14.267
23091SOL    HW171170   7.327  11.701  14.224
23091SOL    HW271171   7.332  11.616  14.350
23092SOL     OW71172   6.432   7.914   2.425
23092SOL    HW171173   6.346   7.886   2.455
23092SOL    HW271174   6.438   8.006   2.448
23093SOL     OW71175   1.460  10.521   9.438
23093SOL    HW171176   1.461  10.494   9.346
23093SOL    HW271177   1.475  10.616   9.435
23094SOL     OW71178  13.861  10.746   7.787
23094SOL    HW171179  13.850  10.770   7.879
23094SOL    HW271180  13.942  10.695   7.785
23095SOL     OW71181   3.361   4.386   2.184
23095SOL    HW171182   3.328   4.475   2.168
23095SOL    HW271183   3.283   4.336   2.207
23096SOL     OW71184   9.931  14.572   9.406
23096SOL    HW171185   9.838  14.577   9.384
23096SOL    HW271186   9.960  14.488   9.370
23097SOL     OW71187   2.023  11.550   0.644
23097SOL    HW171188   2.009  11.465   0.686
23097SOL    HW271189   1.995  11.536   0.553
23098SOL     OW71190   4.258  13.369   2.701
23098SOL    HW171191   4.187  13.388   2.639
23098SOL    HW271192   4.282  13.278   2.683
23099SOL     OW71193   9.360   8.217  11.635
23099SOL    HW171194   9.287   8.181  11.584
23099SOL    HW271195   9.438   8.182  11.592
23100SOL     OW71196  10.250  12.430   9.429
23100SOL    HW171197  10.221  12.492   9.362
23100SOL    HW271198  10.345  12.422   9.415
23101SOL     OW71199  13.438   7.160  11.337
23101SOL    HW171200  13.520   7.134  11.294
23101SOL    HW271201  13.440   7.256  11.336
23102SOL     OW71202   7.156   3.161  14.440
23102SOL    HW171203   7.103   3.082  14.436
23102SOL    HW271204   7.101   3.229  14.401
23103SOL     OW71205   7.317  11.283   2.072
23103SOL    HW171206   7.407  11.292   2.103
23103SOL    HW271207   7.263  11.293   2.150
23104SOL     OW71208   4.207   5.273   6.333
23104SOL    HW171209   4.151   5.343   6.366
23104SOL    HW271210   4.152   5.227   6.269
23105SOL     OW71211   7.725   8.376   4.015
23105SOL    HW171212   7.717   8.394   4.108
23105SOL    HW271213   7.779   8.448   3.981
23106SOL     OW71214   6.169  14.402  13.166
23106SOL    HW171215   6.131  14.490  13.163
23106SOL    HW271216   6.234  14.402  13.095
23107SOL     OW71217   7.378   1.435   7.527
23107SOL    HW171218   7.357   1.384   7.448
23107SOL    HW271219   7.445   1.496   7.498
23108SOL     OW71220   2.094  13.285   8.798
23108SOL    HW171221   2.004  13.251   8.800
23108SOL    HW271222   2.132  13.257   8.881
23109SOL     OW71223   4.001   8.140   2.148
23109SOL    HW171224   3.925   8.187   2.183
23109SOL    HW271225   3.964   8.077   2.087
23110SOL     OW71226   7.208   6.078  11.504
23110SOL    HW171227   7.275   6.146  11.495
23110SOL    HW271228   7.146   6.114  11.568
23111SOL     OW71229   0.675   4.494   5.964
23111SOL    HW171230   0.691   4.463   6.053
23111SOL    HW271231   0.615   4.568   5.974
23112SOL     OW71232  11.171   8.220   5.306
23112SOL    HW171233  11.261   8.232   5.334
23112SOL    HW271234  11.133   8.159   5.370
23113SOL     OW71235  14.591   9.909   4.821
23113SOL    HW171236  14.578   9.820   4.854
23113SOL    HW271237  14.642   9.898   4.741
23114SOL     OW71238  14.304   4.630  13.695
23114SOL    HW171239  14.279   4.547  13.735
23114SOL    HW271240  14.265   4.628  13.608
23115SOL     OW71241  14.513  11.140   6.601
23115SOL    HW171242  14.554  11.224   6.582
23115SOL    HW271243  14.506  11.137   6.697
23116SOL     OW71244  13.111   6.841   8.727
23116SOL    HW171245  13.162   6.914   8.692
23116SOL    HW271246  13.168   6.765   8.720
23117SOL     OW71247   2.996  13.981   6.143
23117SOL    HW171248   3.021  14.001   6.233
23117SOL    HW271249   3.051  13.905   6.120
23118SOL     OW71250   2.155   6.740   4.861
23118SOL    HW171251   2.141   6.805   4.793
23118SOL    HW271252   2.240   6.701   4.841
23119SOL     OW71253   7.136   6.299   9.120
23119SOL    HW171254   7.204   6.334   9.178
23119SOL    HW271255   7.183   6.244   9.057
23120SOL     OW71256   4.575   2.876   9.560
23120SOL    HW171257   4.490   2.873   9.604
23120SOL    HW271258   4.638   2.857   9.629
23121SOL     OW71259   0.403   9.876  13.188
23121SOL    HW171260   0.376   9.889  13.098
23121SOL    HW271261   0.461   9.799  13.185
23122SOL     OW71262  12.184   9.635   3.132
23122SOL    HW171263  12.138   9.603   3.209
23122SOL    HW271264  12.145   9.721   3.114
23123SOL     OW71265  12.764   2.466   6.791
23123SOL    HW171266  12.839   2.498   6.843
23123SOL    HW271267  12.762   2.524   6.715
23124SOL     OW71268   5.317   5.941  11.746
23124SOL    HW171269   5.410   5.961  11.738
23124SOL    HW271270   5.302   5.871  11.682
23125SOL     OW71271   2.683  10.000  14.368
23125SOL    HW171272   2.723  10.066  14.312
23125SOL    HW271273   2.706  10.027  14.457
23126SOL     OW71274   0.612   9.446   6.121
23126SOL    HW171275   0.579   9.365   6.160
23126SOL    HW271276   0.635   9.422   6.031
23127SOL     OW71277   0.189   3.672  14.763
23127SOL    HW171278   0.106   3.659  14.808
23127SOL    HW271279   0.201   3.767  14.763
23128SOL     OW71280   4.330   1.888   8.812
23128SOL    HW171281   4.282   1.961   8.774
23128SOL    HW271282   4.398   1.867   8.748
23129SOL     OW71283  10.203  11.272  11.696
23129SOL    HW171284  10.177  11.313  11.614
23129SOL    HW271285  10.137  11.204  11.711
23130SOL     OW71286  14.514   0.137  11.632
23130SOL    HW171287  14.493   0.230  11.630
23130SOL    HW271288  14.502   0.108  11.542
23131SOL     OW71289   8.868  11.619  14.171
23131SOL    HW171290   8.873  11.533  14.128
23131SOL    HW271291   8.870  11.598  14.264
23132SOL     OW71292   3.087   8.591   2.850
23132SOL    HW171293   3.167   8.630   2.814
23132SOL    HW271294   3.115   8.506   2.885
23133SOL     OW71295  14.702  13.736  12.480
23133SOL    HW171296  14.755  13.807  12.516
23133SOL    HW271297  14.765  13.668  12.458
23134SOL     OW71298   9.136   4.844  13.380
23134SOL    HW171299   9.161   4.798  13.461
23134SOL    HW271300   9.085   4.919  13.410
23135SOL     OW71301  11.218   7.463  13.607
23135SOL    HW171302  11.216   7.550  13.647
23135SOL    HW271303  11.291   7.419  13.650
23136SOL     OW71304   6.511   6.418  12.093
23136SOL    HW171305   6.539   6.460  12.012
23136SOL    HW271306   6.548   6.474  12.162
23137SOL     OW71307  14.598  10.605   3.956
23137SOL    HW171308  14.642  10.547   4.018
23137SOL    HW271309  14.609  10.692   3.992
23138SOL     OW71310   1.152   4.643   9.523
23138SOL    HW171311   1.064   4.611   9.503
23138SOL    HW271312   1.177   4.595   9.602
23139SOL     OW71313   5.382  11.992   9.657
23139SOL    HW171314   5.419  12.023   9.740
23139SOL    HW271315   5.454  11.949   9.612
23140SOL     OW71316   2.399   6.220  12.557
23140SOL    HW171317   2.466   6.287  12.551
23140SOL    HW271318   2.421   6.157  12.488
23141SOL     OW71319   2.505   1.331   2.556
23141SOL    HW171320   2.425   1.279   2.559
23141SOL    HW271321   2.550   1.311   2.637
23142SOL     OW71322   5.484   6.365  12.334
23142SOL    HW171323   5.401   6.414  12.325
23142SOL    HW271324   5.493   6.351  12.428
23143SOL     OW71325   4.413   8.497   9.263
23143SOL    HW171326   4.420   8.541   9.178
23143SOL    HW271327   4.429   8.567   9.326
23144SOL     OW71328  12.160  11.421  10.426
23144SOL    HW171329  12.235  11.436  10.368
23144SOL    HW271330  12.196  11.434  10.514
23145SOL     OW71331   6.725   9.785   0.056
23145SOL    HW171332   6.817   9.806   0.071
23145SOL    HW271333   6.726   9.700   0.011
23146SOL     OW71334   3.699   3.309   9.846
23146SOL    HW171335   3.784   3.266   9.835
23146SOL    HW271336   3.681   3.303   9.940
23147SOL     OW71337   9.804   5.605   5.127
23147SOL    HW171338   9.814   5.571   5.038
23147SOL    HW271339   9.870   5.560   5.178
23148SOL     OW71340  14.737  12.367  14.682
23148SOL    HW171341  14.707  12.367  14.773
23148SOL    HW271342  14.690  12.294  14.641
23149SOL     OW71343   0.440  11.169   0.476
23149SOL    HW171344   0.512  11.232   0.473
23149SOL    HW271345   0.451  11.124   0.559
23150SOL     OW71346   7.181   9.741   5.995
23150SOL    HW171347   7.202   9.648   6.003
23150SOL    HW271348   7.086   9.745   6.001
23151SOL     OW71349   9.501   7.386  10.778
23151SOL    HW171350   9.504   7.307  10.724
23151SOL    HW271351   9.434   7.440  10.736
23152SOL     OW71352   1.649  14.684   8.197
23152SOL    HW171353   1.671  14.591   8.201
23152SOL    HW271354   1.573  14.693   8.255
23153SOL     OW71355   0.092   0.846   5.443
23153SOL    HW171356   0.166   0.846   5.504
23153SOL    HW271357   0.019   0.809   5.494
23154SOL     OW71358   7.001   6.757   0.535
23154SOL    HW171359   6.941   6.796   0.599
23154SOL    HW271360   6.961   6.778   0.451
23155SOL     OW71361   7.209  13.625   9.413
23155SOL    HW171362   7.127  13.590   9.378
23155SOL    HW271363   7.274  13.558   9.394
23156SOL     OW71364   2.128   6.227   1.480
23156SOL    HW171365   2.218   6.257   1.471
23156SOL    HW271366   2.123   6.148   1.427
23157SOL     OW71367   7.442  11.363   8.131
23157SOL    HW171368   7.457  11.277   8.091
23157SOL    HW271369   7.456  11.348   8.225
23158SOL     OW71370   1.377   6.129   4.830
23158SOL    HW171371   1.421   6.133   4.745
23158SOL    HW271372   1.306   6.067   4.818
23159SOL     OW71373  12.233   2.839   4.114
23159SOL    HW171374  12.312   2.839   4.059
23159SOL    HW271375  12.161   2.853   4.052
23160SOL     OW71376  13.467   6.086   0.022
23160SOL    HW171377  13.428   6.173   0.010
23160SOL    HW271378  13.391   6.029   0.036
23161SOL     OW71379   0.635   5.421   5.521
23161SOL    HW171380   0.600   5.333   5.531
23161SOL    HW271381   0.621   5.442   5.429
23162SOL     OW71382  13.094   6.321   9.161
23162SOL    HW171383  13.186   6.301   9.143
23162SOL    HW271384  13.091   6.417   9.163
23163SOL     OW71385  11.345  10.912   3.591
23163SOL    HW171386  11.344  10.989   3.535
23163SOL    HW271387  11.390  10.845   3.538
23164SOL     OW71388   3.029   3.000   0.013
23164SOL    HW171389   2.995   3.087   0.033
23164SOL    HW271390   3.083   3.012  14.810
23165SOL     OW71391  12.904   6.572   4.261
23165SOL    HW171392  12.933   6.655   4.299
23165SOL    HW271393  12.841   6.538   4.324
23166SOL     OW71394   6.530   6.248   8.274
23166SOL    HW171395   6.625   6.247   8.285
23166SOL    HW271396   6.516   6.270   8.182
23167SOL     OW71397  14.754   6.662   1.761
23167SOL    HW171398  14.669   6.650   1.804
23167SOL    HW271399  14.789   6.742   1.799
23168SOL     OW71400   2.268   8.051   0.396
23168SOL    HW171401   2.265   7.974   0.453
23168SOL    HW271402   2.360   8.079   0.397
23169SOL     OW71403   6.193   0.080   6.127
23169SOL    HW171404   6.105   0.053   6.154
23169SOL    HW271405   6.238  14.873   6.107
23170SOL     OW71406  14.595  14.262   1.305
23170SOL    HW171407  14.609  14.313   1.226
23170SOL    HW271408  14.605  14.171   1.278
23171SOL     OW71409  14.365   5.096   2.675
23171SOL    HW171410  14.348   5.035   2.603
23171SOL    HW271411  14.362   5.183   2.635
23172SOL     OW71412   4.898   2.340   6.180
23172SOL    HW171413   4.828   2.312   6.240
23172SOL    HW271414   4.975   2.348   6.236
23173SOL     OW71415   3.064   2.980   4.061
23173SOL    HW171416   3.142   2.955   4.109
23173SOL    HW271417   3.096   3.012   3.977
23174SOL     OW71418  14.134   0.340   3.299
23174SOL    HW171419  14.215   0.386   3.318
23174SOL    HW271420  14.065   0.399   3.330
23175SOL     OW71421   8.855   5.698   1.295
23175SOL    HW171422   8.805   5.660   1.367
23175SOL    HW271423   8.937   5.727   1.335
23176SOL     OW71424   1.587   5.243   6.878
23176SOL    HW171425   1.512   5.302   6.877
23176SOL    HW271426   1.595   5.212   6.787
23177SOL     OW71427   8.328   2.683  12.418
23177SOL    HW171428   8.406   2.657  12.468
23177SOL    HW271429   8.295   2.602  12.381
23178SOL     OW71430   6.998   2.438   7.251
23178SOL    HW171431   6.965   2.493   7.322
23178SOL    HW271432   7.019   2.499   7.181
23179SOL     OW71433   6.020   6.725   7.349
23179SOL    HW171434   6.008   6.649   7.292
23179SOL    HW271435   5.984   6.799   7.300
23180SOL     OW71436  11.558   2.417   3.911
23180SOL    HW171437  11.604   2.381   3.835
23180SOL    HW271438  11.550   2.344   3.972
23181SOL     OW71439  12.658   2.831  11.959
23181SOL    HW171440  12.616   2.913  11.984
23181SOL    HW271441  12.589   2.782  11.915
23182SOL     OW71442   5.408  13.440   4.859
23182SOL    HW171443   5.371  13.360   4.821
23182SOL    HW271444   5.406  13.504   4.787
23183SOL     OW71445   0.633   0.498   6.294
23183SOL    HW171446   0.722   0.508   6.259
23183SOL    HW271447   0.616   0.581   6.339
23184SOL     OW71448  10.817   9.911  10.246
23184SOL    HW171449  10.784   9.885  10.161
23184SOL    HW271450  10.742   9.899  10.305
23185SOL     OW71451   4.456  13.666   6.390
23185SOL    HW171452   4.412  13.602   6.447
23185SOL    HW271453   4.543  13.676   6.428
23186SOL     OW71454   9.321  12.118  14.524
23186SOL    HW171455   9.386  12.188  14.513
23186SOL    HW271456   9.350  12.049  14.465
23187SOL     OW71457   1.793   5.561  11.955
23187SOL    HW171458   1.730   5.552  12.027
23187SOL    HW271459   1.855   5.489  11.970
23188SOL     OW71460   1.647   6.734   0.111
23188SOL    HW171461   1.609   6.816   0.079
23188SOL    HW271462   1.649   6.744   0.206
23189SOL     OW71463  11.468   3.421   5.787
23189SOL    HW171464  11.543   3.470   5.822
23189SOL    HW271465  11.494   3.330   5.794
23190SOL     OW71466  14.255   1.739   3.823
23190SOL    HW171467  14.161   1.728   3.808
23190SOL    HW271468  14.262   1.816   3.879
23191SOL     OW71469   7.203  13.622  12.246
23191SOL    HW171470   7.268  13.618  12.176
23191SOL    HW271471   7.120  13.607  12.201
23192SOL     OW71472   1.514  14.161   6.552
23192SOL    HW171473   1.483  14.170   6.462
23192SOL    HW271474   1.538  14.069   6.560
23193SOL     OW71475   7.005   2.274  13.288
23193SOL    HW171476   7.032   2.281  13.380
23193SOL    HW271477   6.917   2.235  13.292
23194SOL     OW71478   4.411  11.960   0.513
23194SOL    HW171479   4.369  12.044   0.529
23194SOL    HW271480   4.440  11.964   0.422
23195SOL     OW71481   7.084   0.113   1.580
23195SOL    HW171482   7.139   0.035   1.592
23195SOL    HW271483   7.145   0.186   1.588
23196SOL     OW71484  13.261   7.833   3.907
23196SOL    HW171485  13.299   7.904   3.855
23196SOL    HW271486  13.184   7.805   3.858
23197SOL     OW71487   4.038   1.262  11.311
23197SOL    HW171488   3.988   1.298  11.237
23197SOL    HW271489   3.994   1.180  11.332
23198SOL     OW71490  13.372  13.269   0.149
23198SOL    HW171491  13.399  13.251   0.059
23198SOL    HW271492  13.441  13.326   0.184
23199SOL     OW71493   6.599   9.675   8.738
23199SOL    HW171494   6.567   9.676   8.829
23199SOL    HW271495   6.612   9.767   8.716
23200SOL     OW71496  10.851   4.554  14.154
23200SOL    HW171497  10.876   4.609  14.079
23200SOL    HW271498  10.868   4.465  14.125
23201SOL     OW71499   2.200   7.196   6.672
23201SOL    HW171500   2.124   7.239   6.710
23201SOL    HW271501   2.249   7.163   6.747
23202SOL     OW71502   2.228   2.845  13.012
23202SOL    HW171503   2.159   2.857  12.947
23202SOL    HW271504   2.186   2.795  13.082
23203SOL     OW71505   4.512   7.794   4.163
23203SOL    HW171506   4.508   7.883   4.197
23203SOL    HW271507   4.506   7.804   4.068
23204SOL     OW71508  10.232   4.656   7.964
23204SOL    HW171509  10.317   4.694   7.943
23204SOL    HW271510  10.171   4.729   7.961
23205SOL     OW71511   9.882   9.094  10.000
23205SOL    HW171512   9.828   9.033  10.050
23205SOL    HW271513   9.965   9.048   9.986
23206SOL     OW71514   1.638  13.150   6.257
23206SOL    HW171515   1.681  13.065   6.268
23206SOL    HW271516   1.565  13.133   6.197
23207SOL     OW71517  13.563  12.673  10.304
23207SOL    HW171518  13.563  12.745  10.367
23207SOL    HW271519  13.486  12.620  10.328
23208SOL     OW71520   2.267   8.365  11.241
23208SOL    HW171521   2.205   8.363  11.314
23208SOL    HW271522   2.230   8.305  11.176
23209SOL     OW71523   8.732  11.940   2.162
23209SOL    HW171524   8.703  12.018   2.114
23209SOL    HW271525   8.781  11.889   2.097
23210SOL     OW71526  10.838   9.636   0.494
23210SOL    HW171527  10.850   9.663   0.586
23210SOL    HW271528  10.745   9.649   0.477
23211SOL     OW71529   9.571   7.357   6.917
23211SOL    HW171530   9.496   7.308   6.884
23211SOL    HW271531   9.641   7.292   6.923
23212SOL     OW71532   8.484  10.183  12.464
23212SOL    HW171533   8.543  10.125  12.512
23212SOL    HW271534   8.507  10.271  12.496
23213SOL     OW71535  12.597   2.611  13.093
23213SOL    HW171536  12.608   2.685  13.152
23213SOL    HW271537  12.647   2.635  13.015
23214SOL     OW71538   1.945   3.684  14.753
23214SOL    HW171539   2.031   3.694  14.794
23214SOL    HW271540   1.894   3.757  14.788
23215SOL     OW71541   1.896   3.534  10.214
23215SOL    HW171542   1.825   3.548  10.151
23215SOL    HW271543   1.851   3.506  10.294
23216SOL     OW71544   5.132   4.366   4.910
23216SOL    HW171545   5.202   4.399   4.854
23216SOL    HW271546   5.176   4.336   4.990
23217SOL     OW71547  11.328   8.120  10.836
23217SOL    HW171548  11.329   8.024  10.837
23217SOL    HW271549  11.246   8.142  10.792
23218SOL     OW71550  14.744   6.464   9.533
23218SOL    HW171551  14.727   6.532   9.467
23218SOL    HW271552  14.766   6.387   9.482
23219SOL     OW71553  11.532   2.503   8.492
23219SOL    HW171554  11.526   2.438   8.422
23219SOL    HW271555  11.590   2.464   8.557
23220SOL     OW71556   9.731  14.013   9.901
23220SOL    HW171557   9.795  13.943   9.895
23220SOL    HW271558   9.679  13.991   9.978
23221SOL     OW71559   3.395   6.653  10.028
23221SOL    HW171560   3.320   6.624  10.079
23221SOL    HW271561   3.462   6.673  10.094
23222SOL     OW71562   7.655   5.239   5.061
23222SOL    HW171563   7.634   5.217   4.970
23222SOL    HW271564   7.723   5.306   5.055
23223SOL     OW71565   0.267   0.110  13.516
23223SOL    HW171566   0.213   0.100  13.437
23223SOL    HW271567   0.270   0.022  13.554
23224SOL     OW71568   2.732   6.274  12.526
23224SOL    HW171569   2.731   6.236  12.438
23224SOL    HW271570   2.812   6.325  12.530
23225SOL     OW71571   0.793  14.557   3.851
23225SOL    HW171572   0.818  14.644   3.882
23225SOL    HW271573   0.796  14.502   3.929
23226SOL     OW71574   5.089   7.437   7.330
23226SOL    HW171575   5.031   7.375   7.373
23226SOL    HW271576   5.141   7.383   7.269
23227SOL     OW71577   6.152   0.547   1.900
23227SOL    HW171578   6.228   0.507   1.943
23227SOL    HW271579   6.186   0.577   1.815
23228SOL     OW71580  11.012   0.069  14.193
23228SOL    HW171581  10.967   0.110  14.267
23228SOL    HW271582  10.950   0.004  14.160
23229SOL     OW71583  12.647  13.159   0.582
23229SOL    HW171584  12.557  13.183   0.558
23229SOL    HW271585  12.682  13.115   0.504
23230SOL     OW71586   1.314   4.473   1.196
23230SOL    HW171587   1.373   4.531   1.244
23230SOL    HW271588   1.235   4.470   1.249
23231SOL     OW71589   6.411   8.105  12.586
23231SOL    HW171590   6.400   8.115  12.492
23231SOL    HW271591   6.504   8.120  12.602
23232SOL     OW71592  11.912   4.060   8.119
23232SOL    HW171593  11.949   4.060   8.207
23232SOL    HW271594  11.821   4.031   8.132
23233SOL     OW71595   7.996  14.212   7.788
23233SOL    HW171596   8.078  14.260   7.786
23233SOL    HW271597   8.021  14.121   7.774
23234SOL     OW71598  12.231   6.887   9.269
23234SOL    HW171599  12.255   6.944   9.196
23234SOL    HW271600  12.253   6.938   9.348
23235SOL     OW71601   8.667   9.349   5.837
23235SOL    HW171602   8.599   9.384   5.779
23235SOL    HW271603   8.643   9.382   5.924
23236SOL     OW71604   1.081   5.597   0.716
23236SOL    HW171605   1.073   5.691   0.731
23236SOL    HW271606   1.015   5.577   0.650
23237SOL     OW71607  10.360   7.804   4.401
23237SOL    HW171608  10.291   7.844   4.453
23237SOL    HW271609  10.366   7.859   4.323
23238SOL     OW71610   0.054  10.971   0.495
23238SOL    HW171611   0.088  10.992   0.408
23238SOL    HW271612   0.130  10.942   0.545
23239SOL     OW71613  13.745   8.494  10.702
23239SOL    HW171614  13.734   8.400  10.716
23239SOL    HW271615  13.751   8.503  10.607
23240SOL     OW71616   7.179   2.969  10.234
23240SOL    HW171617   7.245   3.038  10.231
23240SOL    HW271618   7.209   2.905  10.169
23241SOL     OW71619   5.790   6.987   4.890
23241SOL    HW171620   5.713   7.004   4.944
23241SOL    HW271621   5.789   7.056   4.824
23242SOL     OW71622   1.689   1.016   0.246
23242SOL    HW171623   1.659   0.942   0.299
23242SOL    HW271624   1.633   1.089   0.272
23243SOL     OW71625  11.758  12.028   7.243
23243SOL    HW171626  11.679  12.035   7.189
23243SOL    HW271627  11.822  12.084   7.200
23244SOL     OW71628   3.868  10.423   0.644
23244SOL    HW171629   3.942  10.444   0.587
23244SOL    HW271630   3.817  10.358   0.596
23245SOL     OW71631  13.493   6.460   7.167
23245SOL    HW171632  13.562   6.397   7.189
23245SOL    HW271633  13.412   6.419   7.197
23246SOL     OW71634  11.407   8.452  14.610
23246SOL    HW171635  11.445   8.413  14.689
23246SOL    HW271636  11.433   8.392  14.540
23247SOL     OW71637   1.982  14.443   9.322
23247SOL    HW171638   1.987  14.538   9.331
23247SOL    HW271639   1.915  14.429   9.255
23248SOL     OW71640  12.152   1.511   5.123
23248SOL    HW171641  12.100   1.591   5.126
23248SOL    HW271642  12.090   1.442   5.149
23249SOL     OW71643  14.563   8.391   4.428
23249SOL    HW171644  14.577   8.330   4.356
23249SOL    HW271645  14.476   8.369   4.462
23250SOL     OW71646   2.908  12.873   9.503
23250SOL    HW171647   2.901  12.933   9.577
23250SOL    HW271648   2.991  12.828   9.516
23251SOL     OW71649   9.825  12.355   7.497
23251SOL    HW171650   9.846  12.286   7.434
23251SOL    HW271651   9.752  12.402   7.457
23252SOL     OW71652   6.047   5.939   9.023
23252SOL    HW171653   5.988   5.983   9.084
23252SOL    HW271654   6.126   5.992   9.024
23253SOL     OW71655   0.393  13.498   4.933
23253SOL    HW171656   0.407  13.476   5.025
23253SOL    HW271657   0.325  13.566   4.935
23254SOL     OW71658   8.727   7.517   4.873
23254SOL    HW171659   8.709   7.604   4.908
23254SOL    HW271660   8.752   7.465   4.949
23255SOL     OW71661   4.527   3.450   4.311
23255SOL    HW171662   4.560   3.463   4.222
23255SOL    HW271663   4.433   3.434   4.299
23256SOL     OW71664  14.849   3.126   8.434
23256SOL    HW171665  14.757   3.113   8.458
23256SOL    HW271666   0.022   3.071   8.495
23257SOL     OW71667  10.666   4.163   9.902
23257SOL    HW171668  10.605   4.191   9.971
23257SOL    HW271669  10.687   4.243   9.855
23258SOL     OW71670   5.303   3.500   1.503
23258SOL    HW171671   5.207   3.497   1.500
23258SOL    HW271672   5.329   3.415   1.538
23259SOL     OW71673  12.465   9.539   6.247
23259SOL    HW171674  12.397   9.560   6.310
23259SOL    HW271675  12.448   9.595   6.172
23260SOL     OW71676   3.047   5.390   6.139
23260SOL    HW171677   3.068   5.319   6.078
23260SOL    HW271678   3.113   5.457   6.121
23261SOL     OW71679   0.440   0.283  13.404
23261SOL    HW171680   0.392   0.318  13.329
23261SOL    HW271681   0.397   0.200  13.423
23262SOL     OW71682   1.417   6.633   6.578
23262SOL    HW171683   1.351   6.578   6.536
23262SOL    HW271684   1.500   6.595   6.550
23263SOL     OW71685  10.688  12.750   8.866
23263SOL    HW171686  10.594  12.751   8.882
23263SOL    HW271687  10.700  12.804   8.788
23264SOL     OW71688   0.137  12.673  13.282
23264SOL    HW171689   0.222  12.632  13.300
23264SOL    HW271690   0.134  12.748  13.341
23265SOL     OW71691  14.527  12.224   4.208
23265SOL    HW171692  14.570  12.271   4.279
23265SOL    HW271693  14.563  12.263   4.128
23266SOL     OW71694  10.170   8.715   2.396
23266SOL    HW171695  10.250   8.667   2.420
23266SOL    HW271696  10.197   8.806   2.392
23267SOL     OW71697   1.450  11.836   1.771
23267SOL    HW171698   1.460  11.776   1.697
23267SOL    HW271699   1.517  11.903   1.757
23268SOL     OW71700   3.183  13.532   7.940
23268SOL    HW171701   3.213  13.549   8.029
23268SOL    HW271702   3.247  13.575   7.884
23269SOL     OW71703   9.608   6.065   6.765
23269SOL    HW171704   9.631   6.114   6.686
23269SOL    HW271705   9.691   6.043   6.806
23270SOL     OW71706   8.280   6.768  10.158
23270SOL    HW171707   8.317   6.733  10.077
23270SOL    HW271708   8.208   6.708  10.179
23271SOL     OW71709   3.017   2.733   8.878
23271SOL    HW171710   2.972   2.799   8.825
23271SOL    HW271711   2.985   2.650   8.844
23272SOL     OW71712   8.140  13.501  13.228
23272SOL    HW171713   8.117  13.499  13.135
23272SOL    HW271714   8.103  13.420  13.263
23273SOL     OW71715   1.081  12.156  10.694
23273SOL    HW171716   1.031  12.225  10.651
23273SOL    HW271717   1.015  12.098  10.732
23274SOL     OW71718   4.002   1.926   2.341
23274SOL    HW171719   4.071   1.860   2.331
23274SOL    HW271720   4.040   2.005   2.302
23275SOL     OW71721   8.585  12.112   3.693
23275SOL    HW171722   8.581  12.091   3.600
23275SOL    HW271723   8.610  12.029   3.735
23276SOL     OW71724  11.575   9.718   3.067
23276SOL    HW171725  11.591   9.757   3.153
23276SOL    HW271726  11.655   9.669   3.048
23277SOL     OW71727   2.113   8.087   2.121
23277SOL    HW171728   2.100   8.145   2.047
23277SOL    HW271729   2.193   8.119   2.163
23278SOL     OW71730   8.277   8.618  12.051
23278SOL    HW171731   8.290   8.552  11.984
23278SOL    HW271732   8.182   8.631  12.055
23279SOL     OW71733   6.248   4.826   5.456
23279SOL    HW171734   6.315   4.783   5.403
23279SOL    HW271735   6.207   4.756   5.506
23280SOL     OW71736   2.668   6.140  10.146
23280SOL    HW171737   2.713   6.076  10.200
23280SOL    HW271738   2.738   6.198  10.114
23281SOL     OW71739   0.674   5.950   5.198
23281SOL    HW171740   0.664   5.879   5.134
23281SOL    HW271741   0.739   6.008   5.160
23282SOL     OW71742   6.247  14.804   5.267
23282SOL    HW171743   6.320  14.822   5.208
23282SOL    HW271744   6.287  14.788   5.352
23283SOL     OW71745  14.257   3.257  11.118
23283SOL    HW171746  14.330   3.319  11.112
23283SOL    HW271747  14.196   3.299  11.178
23284SOL     OW71748   0.283   8.940   1.824
23284SOL    HW171749   0.375   8.966   1.828
23284SOL    HW271750   0.285   8.845   1.824
23285SOL     OW71751   9.709   0.528   6.163
23285SOL    HW171752   9.686   0.519   6.255
23285SOL    HW271753   9.766   0.605   6.160
23286SOL     OW71754   4.099   1.658  13.586
23286SOL    HW171755   4.130   1.715  13.515
23286SOL    HW271756   4.108   1.570  13.551
23287SOL     OW71757   7.258   3.150   7.177
23287SOL    HW171758   7.183   3.208   7.167
23287SOL    HW271759   7.310   3.164   7.098
23288SOL     OW71760   6.549   8.213  10.660
23288SOL    HW171761   6.501   8.215  10.577
23288SOL    HW271762   6.606   8.137  10.653
23289SOL     OW71763  10.332   3.881   7.305
23289SOL    HW171764  10.333   3.976   7.307
23289SOL    HW271765  10.313   3.858   7.214
23290SOL     OW71766  14.640  10.729   2.971
23290SOL    HW171767  14.559  10.723   2.921
23290SOL    HW271768  14.705  10.760   2.908
23291SOL     OW71769   9.686   0.648   9.498
23291SOL    HW171770   9.714   0.617   9.412
23291SOL    HW271771   9.603   0.692   9.482
23292SOL     OW71772   2.833   3.615   7.880
23292SOL    HW171773   2.923   3.620   7.912
23292SOL    HW271774   2.794   3.544   7.930
23293SOL     OW71775  10.102  10.067  13.984
23293SOL    HW171776  10.123   9.982  13.947
23293SOL    HW271777  10.168  10.082  14.051
23294SOL     OW71778   9.420  14.579  10.123
23294SOL    HW171779   9.498  14.525  10.114
23294SOL    HW271780   9.404  14.582  10.218
23295SOL     OW71781   6.088   5.055   9.590
23295SOL    HW171782   6.099   5.122   9.522
23295SOL    HW271783   6.164   4.998   9.579
23296SOL     OW71784   2.063   7.655   7.256
23296SOL    HW171785   2.124   7.725   7.233
23296SOL    HW271786   1.982   7.701   7.279
23297SOL     OW71787  13.256   3.842   9.822
23297SOL    HW171788  13.279   3.801   9.905
23297SOL    HW271789  13.323   3.811   9.760
23298SOL     OW71790  10.397  14.724  12.790
23298SOL    HW171791  10.413  14.809  12.749
23298SOL    HW271792  10.394  14.662  12.718
23299SOL     OW71793   5.167   7.013   5.305
23299SOL    HW171794   5.220   6.966   5.240
23299SOL    HW271795   5.077   7.006   5.271
23300SOL     OW71796  11.096  14.561   8.874
23300SOL    HW171797  11.005  14.591   8.872
23300SOL    HW271798  11.093  14.473   8.837
23301SOL     OW71799   2.805  11.250   2.830
23301SOL    HW171800   2.828  11.158   2.844
23301SOL    HW271801   2.778  11.282   2.916
23302SOL     OW71802  10.962   8.150   4.387
23302SOL    HW171803  11.048   8.133   4.427
23302SOL    HW271804  10.921   8.064   4.381
23303SOL     OW71805   4.749   2.013  10.361
23303SOL    HW171806   4.732   2.098  10.321
23303SOL    HW271807   4.669   1.994  10.411
23304SOL     OW71808   9.629  10.769  13.261
23304SOL    HW171809   9.544  10.814  13.265
23304SOL    HW271810   9.615  10.697  13.200
23305SOL     OW71811  12.752   1.079  13.543
23305SOL    HW171812  12.708   1.163  13.529
23305SOL    HW271813  12.819   1.076  13.475
23306SOL     OW71814   6.772   4.006   6.308
23306SOL    HW171815   6.782   4.058   6.228
23306SOL    HW271816   6.707   3.939   6.285
23307SOL     OW71817   2.365  12.673   2.603
23307SOL    HW171818   2.361  12.594   2.658
23307SOL    HW271819   2.281  12.674   2.556
23308SOL     OW71820  12.222   0.756   2.263
23308SOL    HW171821  12.295   0.697   2.280
23308SOL    HW271822  12.144   0.705   2.287
23309SOL     OW71823  14.454   2.542  11.622
23309SOL    HW171824  14.492   2.608  11.681
23309SOL    HW271825  14.363   2.535  11.649
23310SOL     OW71826   1.332   5.473   3.397
23310SOL    HW171827   1.363   5.518   3.319
23310SOL    HW271828   1.374   5.519   3.470
23311SOL     OW71829   0.288   3.152  13.286
23311SOL    HW171830   0.240   3.208  13.348
23311SOL    HW271831   0.224   3.087  13.258
23312SOL     OW71832   4.062   4.474  10.869
23312SOL    HW171833   4.075   4.439  10.957
23312SOL    HW271834   4.151   4.484  10.834
23313SOL     OW71835  12.343   1.391  11.243
23313SOL    HW171836  12.374   1.462  11.187
23313SOL    HW271837  12.423   1.354  11.281
23314SOL     OW71838   5.884   0.943   5.246
23314SOL    HW171839   5.925   0.916   5.329
23314SOL    HW271840   5.847   0.862   5.211
23315SOL     OW71841   4.557  11.655   9.574
23315SOL    HW171842   4.463  11.641   9.568
23315SOL    HW271843   4.590  11.576   9.617
23316SOL     OW71844   9.580   8.304   7.072
23316SOL    HW171845   9.665   8.262   7.081
23316SOL    HW271846   9.519   8.244   7.115
23317SOL     OW71847   3.634   2.633   7.293
23317SOL    HW171848   3.547   2.674   7.293
23317SOL    HW271849   3.619   2.543   7.265
23318SOL     OW71850  14.543   4.364  12.293
23318SOL    HW171851  14.468   4.327  12.247
23318SOL    HW271852  14.505   4.409  12.368
23319SOL     OW71853   4.785   5.530   2.662
23319SOL    HW171854   4.732   5.609   2.672
23319SOL    HW271855   4.777   5.485   2.746
23320SOL     OW71856  12.595   0.805   9.347
23320SOL    HW171857  12.504   0.817   9.319
23320SOL    HW271858  12.615   0.883   9.399
23321SOL     OW71859  11.047   4.821  13.814
23321SOL    HW171860  10.981   4.868  13.763
23321SOL    HW271861  11.100   4.890  13.854
23322SOL     OW71862  11.115  11.356  14.193
23322SOL    HW171863  11.054  11.282  14.200
23322SOL    HW271864  11.097  11.393  14.106
23323SOL     OW71865   0.230   5.650   8.308
23323SOL    HW171866   0.216   5.689   8.222
23323SOL    HW271867   0.202   5.559   8.297
23324SOL     OW71868   8.412   6.357  14.542
23324SOL    HW171869   8.338   6.316  14.497
23324SOL    HW271870   8.402   6.450  14.526
23325SOL     OW71871   0.774  11.445   6.172
23325SOL    HW171872   0.749  11.385   6.242
23325SOL    HW271873   0.717  11.422   6.098
23326SOL     OW71874  12.783   8.948  14.524
23326SOL    HW171875  12.826   8.864  14.507
23326SOL    HW271876  12.742   8.970  14.440
23327SOL     OW71877   3.491   4.733  14.076
23327SOL    HW171878   3.472   4.658  14.133
23327SOL    HW271879   3.486   4.809  14.134
23328SOL     OW71880   6.753   4.689   5.253
23328SOL    HW171881   6.814   4.632   5.301
23328SOL    HW271882   6.792   4.698   5.166
23329SOL     OW71883  10.320   8.430   7.734
23329SOL    HW171884  10.290   8.520   7.737
23329SOL    HW271885  10.240   8.378   7.741
23330SOL     OW71886  10.882   8.296  14.055
23330SOL    HW171887  10.834   8.278  13.974
23330SOL    HW271888  10.903   8.209  14.090
23331SOL     OW71889   7.314  13.944   6.772
23331SOL    HW171890   7.221  13.923   6.765
23331SOL    HW271891   7.316  14.027   6.820
23332SOL     OW71892   5.469   2.110  14.558
23332SOL    HW171893   5.535   2.054  14.599
23332SOL    HW271894   5.493   2.111  14.465
23333SOL     OW71895   6.253  12.481   9.383
23333SOL    HW171896   6.167  12.456   9.349
23333SOL    HW271897   6.235  12.513   9.472
23334SOL     OW71898  10.360   2.128   2.796
23334SOL    HW171899  10.298   2.080   2.851
23334SOL    HW271900  10.406   2.186   2.856
23335SOL     OW71901  12.875  13.637   0.045
23335SOL    HW171902  12.815  13.665   0.114
23335SOL    HW271903  12.941  13.707   0.042
23336SOL     OW71904   1.077  12.023   8.048
23336SOL    HW171905   1.080  11.937   8.006
23336SOL    HW271906   1.169  12.044   8.066
23337SOL     OW71907  10.367  11.862  12.335
23337SOL    HW171908  10.371  11.858  12.430
23337SOL    HW271909  10.346  11.772  12.308
23338SOL     OW71910  13.973   3.456   9.343
23338SOL    HW171911  13.919   3.513   9.398
23338SOL    HW271912  13.959   3.368   9.378
23339SOL     OW71913   8.426   3.364   0.552
23339SOL    HW171914   8.517   3.334   0.555
23339SOL    HW271915   8.417   3.420   0.629
23340SOL     OW71916   9.622  10.281   6.454
23340SOL    HW171917   9.700  10.317   6.412
23340SOL    HW271918   9.595  10.349   6.516
23341SOL     OW71919   0.861   7.414   9.322
23341SOL    HW171920   0.841   7.393   9.414
23341SOL    HW271921   0.795   7.366   9.272
23342SOL     OW71922   2.233   4.671   9.068
23342SOL    HW171923   2.306   4.644   9.124
23342SOL    HW271924   2.164   4.608   9.087
23343SOL     OW71925  11.579  13.773  10.123
23343SOL    HW171926  11.650  13.713  10.144
23343SOL    HW271927  11.527  13.728  10.057
23344SOL     OW71928   3.162   3.482   9.305
23344SOL    HW171929   3.100   3.425   9.350
23344SOL    HW271930   3.126   3.570   9.315
23345SOL     OW71931   9.246   4.910   8.110
23345SOL    HW171932   9.188   4.936   8.182
23345SOL    HW271933   9.214   4.823   8.084
23346SOL     OW71934  10.717   8.928  10.282
23346SOL    HW171935  10.746   9.019  10.276
23346SOL    HW271936  10.798   8.877  10.290
23347SOL     OW71937   3.638   1.856   3.391
23347SOL    HW171938   3.672   1.934   3.436
23347SOL    HW271939   3.707   1.833   3.329
23348SOL     OW71940  12.983  13.553  13.656
23348SOL    HW171941  13.002  13.503  13.735
23348SOL    HW271942  12.890  13.541  13.641
23349SOL     OW71943  13.829   2.342   3.882
23349SOL    HW171944  13.920   2.333   3.854
23349SOL    HW271945  13.794   2.252   3.881
23350SOL     OW71946   4.831  12.777   1.915
23350SOL    HW171947   4.835  12.719   1.992
23350SOL    HW271948   4.762  12.740   1.861
23351SOL     OW71949   8.995  12.678  10.333
23351SOL    HW171950   9.051  12.603  10.312
23351SOL    HW271951   8.920  12.639  10.378
23352SOL     OW71952  12.941   6.956   3.233
23352SOL    HW171953  12.948   7.011   3.310
23352SOL    HW271954  12.849   6.928   3.232
23353SOL     OW71955   7.937   5.415   2.543
23353SOL    HW171956   7.914   5.327   2.512
23353SOL    HW271957   7.857   5.466   2.529
23354SOL     OW71958   0.783  12.758   1.700
23354SOL    HW171959   0.724  12.759   1.626
23354SOL    HW271960   0.855  12.701   1.673
23355SOL     OW71961  14.171   5.904   6.642
23355SOL    HW171962  14.102   5.846   6.610
23355SOL    HW271963  14.167   5.896   6.737
23356SOL     OW71964   0.499   9.189   5.717
23356SOL    HW171965   0.405   9.204   5.731
23356SOL    HW271966   0.515   9.103   5.757
23357SOL     OW71967   8.640  10.185   0.207
23357SOL    HW171968   8.570  10.127   0.178
23357SOL    HW271969   8.717  10.158   0.156
23358SOL     OW71970   5.043   9.870   9.125
23358SOL    HW171971   5.009   9.935   9.187
23358SOL    HW271972   5.135   9.896   9.112
23359SOL     OW71973   0.517   0.951   4.671
23359SOL    HW171974   0.494   0.983   4.758
23359SOL    HW271975   0.550   1.028   4.625
23360SOL     OW71976  12.173   4.772   0.854
23360SOL    HW171977  12.146   4.805   0.769
23360SOL    HW271978  12.213   4.687   0.835
23361SOL     OW71979  10.184   9.934  10.409
23361SOL    HW171980  10.216   9.844  10.418
23361SOL    HW271981  10.262   9.988  10.406
23362SOL     OW71982   8.833   9.195   8.397
23362SOL    HW171983   8.851   9.165   8.486
23362SOL    HW271984   8.813   9.288   8.407
23363SOL     OW71985   5.983   3.476   0.714
23363SOL    HW171986   6.038   3.500   0.789
23363SOL    HW271987   5.997   3.382   0.703
23364SOL     OW71988   3.397  13.781   8.824
23364SOL    HW171989   3.377  13.856   8.768
23364SOL    HW271990   3.312  13.740   8.840
23365SOL     OW71991   8.504   1.613   5.451
23365SOL    HW171992   8.568   1.631   5.383
23365SOL    HW271993   8.517   1.521   5.474
23366SOL     OW71994   0.205   3.684   5.676
23366SOL    HW171995   0.150   3.619   5.721
23366SOL    HW271996   0.176   3.768   5.711
23367SOL     OW71997   5.055   6.838  12.615
23367SOL    HW171998   5.042   6.927  12.582
23367SOL    HW271999   5.118   6.798  12.555
23368SOL     OW72000   0.092   0.010   7.714
23368SOL    HW172001   0.099  14.799   7.756
23368SOL    HW272002   0.073  14.865   7.622
23369SOL     OW72003  14.717  12.971   9.549
23369SOL    HW172004  14.630  13.001   9.524
23369SOL    HW272005  14.743  12.911   9.479
23370SOL     OW72006   3.448   0.401   3.822
23370SOL    HW172007   3.417   0.347   3.750
23370SOL    HW272008   3.374   0.404   3.883
23371SOL     OW72009  13.199  11.224   5.428
23371SOL    HW172010  13.259  11.294   5.454
23371SOL    HW272011  13.253  11.165   5.375
23372SOL     OW72012   8.051  13.262   6.737
23372SOL    HW172013   8.094  13.323   6.677
23372SOL    HW272014   7.964  13.250   6.701
23373SOL     OW72015  11.535  11.514   8.234
23373SOL    HW172016  11.576  11.584   8.285
23373SOL    HW272017  11.541  11.437   8.290
23374SOL     OW72018   1.377   6.234  14.002
23374SOL    HW172019   1.299   6.201  13.957
23374SOL    HW272020   1.393   6.170  14.071
23375SOL     OW72021   4.373   8.685   4.980
23375SOL    HW172022   4.435   8.651   5.044
23375SOL    HW272023   4.325   8.753   5.027
23376SOL     OW72024   2.739  10.184  14.199
23376SOL    HW172025   2.666  10.240  14.174
23376SOL    HW272026   2.762  10.137  14.119
23377SOL     OW72027   3.040  14.492  13.530
23377SOL    HW172028   3.032  14.586  13.511
23377SOL    HW272029   3.099  14.488  13.606
23378SOL     OW72030  12.207  11.288   4.876
23378SOL    HW172031  12.176  11.226   4.810
23378SOL    HW272032  12.167  11.371   4.851
23379SOL     OW72033  12.711   7.451   5.616
23379SOL    HW172034  12.696   7.363   5.651
23379SOL    HW272035  12.624   7.480   5.586
23380SOL     OW72036  13.139   3.676  10.375
23380SOL    HW172037  13.084   3.598  10.368
23380SOL    HW272038  13.110   3.732  10.302
23381SOL     OW72039   9.508   3.774   2.615
23381SOL    HW172040   9.462   3.817   2.687
23381SOL    HW272041   9.595   3.815   2.614
23382SOL     OW72042   7.904   5.423   9.976
23382SOL    HW172043   7.935   5.414   9.886
23382SOL    HW272044   7.902   5.518   9.992
23383SOL     OW72045  10.542  13.041   9.797
23383SOL    HW172046  10.465  12.992   9.827
23383SOL    HW272047  10.506  13.119   9.756
23384SOL     OW72048  10.431   4.654   7.094
23384SOL    HW172049  10.470   4.703   7.166
23384SOL    HW272050  10.350   4.702   7.075
23385SOL     OW72051   8.252  14.002   9.410
23385SOL    HW172052   8.320  13.962   9.356
23385SOL    HW272053   8.176  13.946   9.397
23386SOL     OW72054   7.907   2.056   8.728
23386SOL    HW172055   7.971   2.121   8.700
23386SOL    HW272056   7.958   1.991   8.775
23387SOL     OW72057   4.609  14.259  13.852
23387SOL    HW172058   4.590  14.200  13.779
23387SOL    HW272059   4.704  14.270  13.850
23388SOL     OW72060   6.772   9.637   3.448
23388SOL    HW172061   6.701   9.656   3.510
23388SOL    HW272062   6.817   9.561   3.485
23389SOL     OW72063   8.577  11.508   0.284
23389SOL    HW172064   8.535  11.590   0.310
23389SOL    HW272065   8.516  11.469   0.221
23390SOL     OW72066   3.141   1.573   6.869
23390SOL    HW172067   3.227   1.610   6.888
23390SOL    HW272068   3.103   1.554   6.955
23391SOL     OW72069  11.692  13.600   0.362
23391SOL    HW172070  11.639  13.680   0.364
23391SOL    HW272071  11.652  13.544   0.428
23392SOL     OW72072  14.495   3.700  11.461
23392SOL    HW172073  14.543   3.759  11.403
23392SOL    HW272074  14.405   3.735  11.462
23393SOL     OW72075   1.333   5.108  10.592
23393SOL    HW172076   1.269   5.159  10.642
23393SOL    HW272077   1.391   5.173  10.554
23394SOL     OW72078  13.326   0.688   9.043
23394SOL    HW172079  13.360   0.746   8.975
23394SOL    HW272080  13.396   0.684   9.109
23395SOL     OW72081  13.028   7.491  12.440
23395SOL    HW172082  13.033   7.411  12.387
23395SOL    HW272083  12.953   7.477  12.498
23396SOL     OW72084  13.846  14.070  14.058
23396SOL    HW172085  13.938  14.065  14.033
23396SOL    HW272086  13.846  14.047  14.151
23397SOL     OW72087   1.083   3.875  10.983
23397SOL    HW172088   1.106   3.811  11.050
23397SOL    HW272089   1.167   3.904  10.947
23398SOL     OW72090   8.884   6.024   8.445
23398SOL    HW172091   8.877   5.946   8.501
23398SOL    HW272092   8.849   5.996   8.360
23399SOL     OW72093   3.785   8.131   0.461
23399SOL    HW172094   3.851   8.199   0.449
23399SOL    HW272095   3.792   8.107   0.554
23400SOL     OW72096   9.164  11.723  10.880
23400SOL    HW172097   9.139  11.745  10.970
23400SOL    HW272098   9.165  11.627  10.878
23401SOL     OW72099  14.276   1.770  12.433
23401SOL    HW172100  14.210   1.838  12.417
23401SOL    HW272101  14.294   1.733  12.347
23402SOL     OW72102   6.810  12.763   8.461
23402SOL    HW172103   6.815  12.687   8.404
23402SOL    HW272104   6.886  12.817   8.437
23403SOL     OW72105   5.773   4.162   3.064
23403SOL    HW172106   5.781   4.094   2.996
23403SOL    HW272107   5.848   4.147   3.121
23404SOL     OW72108   7.956  11.378   7.095
23404SOL    HW172109   7.870  11.399   7.057
23404SOL    HW272110   7.940  11.376   7.189
23405SOL     OW72111   2.750   3.671   6.611
23405SOL    HW172112   2.839   3.706   6.611
23405SOL    HW272113   2.697   3.741   6.573
23406SOL     OW72114   6.569   3.227   2.642
23406SOL    HW172115   6.476   3.216   2.626
23406SOL    HW272116   6.592   3.155   2.701
23407SOL     OW72117   5.390   3.283  13.427
23407SOL    HW172118   5.460   3.338  13.391
23407SOL    HW272119   5.340   3.341  13.484
23408SOL     OW72120  11.705   3.687   3.286
23408SOL    HW172121  11.655   3.669   3.366
23408SOL    HW272122  11.657   3.643   3.217
23409SOL     OW72123   9.743   5.216   0.021
23409SOL    HW172124   9.706   5.177  14.817
23409SOL    HW272125   9.811   5.275  14.865
23410SOL     OW72126   2.140  11.769  10.536
23410SOL    HW172127   2.128  11.812  10.452
23410SOL    HW272128   2.210  11.819  10.579
23411SOL     OW72129   7.381   8.474   4.581
23411SOL    HW172130   7.361   8.387   4.615
23411SOL    HW272131   7.437   8.514   4.648
23412SOL     OW72132  13.695  12.220   8.780
23412SOL    HW172133  13.734  12.263   8.704
23412SOL    HW272134  13.742  12.138   8.788
23413SOL     OW72135  12.985   7.916   8.987
23413SOL    HW172136  12.928   7.866   9.045
23413SOL    HW272137  12.968   8.007   9.009
23414SOL     OW72138   1.773  11.254   3.417
23414SOL    HW172139   1.774  11.304   3.498
23414SOL    HW272140   1.823  11.174   3.437
23415SOL     OW72141  10.344   7.175   3.882
23415SOL    HW172142  10.351   7.259   3.928
23415SOL    HW272143  10.320   7.113   3.950
23416SOL     OW72144  13.733   1.993  10.962
23416SOL    HW172145  13.786   1.983  10.883
23416SOL    HW272146  13.753   1.915  11.014
23417SOL     OW72147   8.785  14.623  10.014
23417SOL    HW172148   8.799  14.717  10.022
23417SOL    HW272149   8.692  14.611  10.031
23418SOL     OW72150  13.006   7.045   9.123
23418SOL    HW172151  13.034   7.119   9.178
23418SOL    HW272152  12.921   7.019   9.160
23419SOL     OW72153   1.636   7.583   0.364
23419SOL    HW172154   1.564   7.606   0.423
23419SOL    HW272155   1.634   7.650   0.296
23420SOL     OW72156   0.926   8.689  13.465
23420SOL    HW172157   0.906   8.597  13.481
23420SOL    HW272158   0.961   8.721  13.548
23421SOL     OW72159   7.602   7.345   8.783
23421SOL    HW172160   7.598   7.257   8.822
23421SOL    HW272161   7.514   7.381   8.795
23422SOL     OW72162   6.352  11.956   1.379
23422SOL    HW172163   6.428  11.969   1.322
23422SOL    HW272164   6.289  11.908   1.324
23423SOL     OW72165  12.426  13.973   4.770
23423SOL    HW172166  12.431  13.973   4.865
23423SOL    HW272167  12.482  13.900   4.742
23424SOL     OW72168  11.864   3.471   9.635
23424SOL    HW172169  11.772   3.495   9.627
23424SOL    HW272170  11.865   3.402   9.701
23425SOL     OW72171   5.959   5.812   3.115
23425SOL    HW172172   5.942   5.733   3.166
23425SOL    HW272173   5.909   5.801   3.035
23426SOL     OW72174   6.091   3.157  14.835
23426SOL    HW172175   6.036   3.225  14.798
23426SOL    HW272176   6.030   3.093  14.871
23427SOL     OW72177  10.634   3.947   7.907
23427SOL    HW172178  10.721   3.979   7.931
23427SOL    HW272179  10.612   3.884   7.976
23428SOL     OW72180   6.522   3.979   5.402
23428SOL    HW172181   6.513   3.965   5.308
23428SOL    HW272182   6.441   4.024   5.427
23429SOL     OW72183   4.293   5.778   7.974
23429SOL    HW172184   4.340   5.859   7.996
23429SOL    HW272185   4.346   5.709   8.014
23430SOL     OW72186  11.939   4.812  10.846
23430SOL    HW172187  11.957   4.776  10.933
23430SOL    HW272188  11.848   4.841  10.852
23431SOL     OW72189   5.450   7.067   3.658
23431SOL    HW172190   5.519   7.077   3.592
23431SOL    HW272191   5.438   6.973   3.667
23432SOL     OW72192   7.350  11.540   6.513
23432SOL    HW172193   7.342  11.468   6.450
23432SOL    HW272194   7.428  11.519   6.564
23433SOL     OW72195   8.621   3.399   1.366
23433SOL    HW172196   8.527   3.382   1.363
23433SOL    HW272197   8.645   3.384   1.457
23434SOL     OW72198   0.380  14.107  13.168
23434SOL    HW172199   0.359  14.094  13.260
23434SOL    HW272200   0.409  14.021  13.138
23435SOL     OW72201   8.413  12.197   5.859
23435SOL    HW172202   8.369  12.240   5.933
23435SOL    HW272203   8.505  12.221   5.870
23436SOL     OW72204  14.600   0.970  12.739
23436SOL    HW172205  14.612   0.922  12.821
23436SOL    HW272206  14.510   1.002  12.743
23437SOL     OW72207   0.783   9.286   8.688
23437SOL    HW172208   0.833   9.244   8.618
23437SOL    HW272209   0.830   9.368   8.706
23438SOL     OW72210   4.867   8.340  13.295
23438SOL    HW172211   4.941   8.370  13.348
23438SOL    HW272212   4.880   8.381  13.209
23439SOL     OW72213  10.113  12.963   3.261
23439SOL    HW172214  10.043  12.934   3.319
23439SOL    HW272215  10.192  12.922   3.296
23440SOL     OW72216  11.102  10.828   4.439
23440SOL    HW172217  11.007  10.836   4.443
23440SOL    HW272218  11.118  10.761   4.372
23441SOL     OW72219   6.599   1.981   0.672
23441SOL    HW172220   6.636   1.996   0.759
23441SOL    HW272221   6.662   1.923   0.629
23442SOL     OW72222  14.836  14.739  11.162
23442SOL    HW172223  14.829  14.687  11.242
23442SOL    HW272224  14.810  14.827  11.188
23443SOL     OW72225   6.076   7.456   2.364
23443SOL    HW172226   6.013   7.458   2.436
23443SOL    HW272227   6.047   7.384   2.308
23444SOL     OW72228   3.973  13.167  12.388
23444SOL    HW172229   3.953  13.084  12.346
23444SOL    HW272230   3.911  13.229  12.348
23445SOL     OW72231  14.171   3.478  11.601
23445SOL    HW172232  14.107   3.517  11.661
23445SOL    HW272233  14.118   3.449  11.526
23446SOL     OW72234  10.060   5.272  11.159
23446SOL    HW172235  10.049   5.247  11.067
23446SOL    HW272236   9.971   5.270  11.195
23447SOL     OW72237   6.846   1.357   8.846
23447SOL    HW172238   6.911   1.287   8.839
23447SOL    HW272239   6.836   1.391   8.758
23448SOL     OW72240   6.890   5.926   9.202
23448SOL    HW172241   6.891   5.839   9.163
23448SOL    HW272242   6.798   5.943   9.221
23449SOL     OW72243   8.056   2.303   6.938
23449SOL    HW172244   7.973   2.256   6.926
23449SOL    HW272245   8.124   2.239   6.917
23450SOL     OW72246   9.564  14.333   0.980
23450SOL    HW172247   9.598  14.302   1.063
23450SOL    HW272248   9.480  14.374   1.002
23451SOL     OW72249   0.886  11.954   0.363
23451SOL    HW172250   0.937  11.953   0.444
23451SOL    HW272251   0.838  11.871   0.364
23452SOL     OW72252  14.068   8.257  13.203
23452SOL    HW172253  14.105   8.325  13.146
23452SOL    HW272254  14.142   8.228  13.256
23453SOL     OW72255  12.506   6.906   8.553
23453SOL    HW172256  12.508   6.810   8.549
23453SOL    HW272257  12.490   6.925   8.646
23454SOL     OW72258  11.796   6.298   9.354
23454SOL    HW172259  11.704   6.295   9.381
23454SOL    HW272260  11.794   6.327   9.263
23455SOL     OW72261   2.837   3.846   8.852
23455SOL    HW172262   2.844   3.920   8.913
23455SOL    HW272263   2.776   3.876   8.785
23456SOL     OW72264   9.444  13.713   1.227
23456SOL    HW172265   9.516  13.723   1.166
23456SOL    HW272266   9.470  13.639   1.282
23457SOL     OW72267   1.580   1.531   8.375
23457SOL    HW172268   1.654   1.484   8.413
23457SOL    HW272269   1.526   1.555   8.450
23458SOL     OW72270   4.515  14.003   9.084
23458SOL    HW172271   4.481  14.056   9.012
23458SOL    HW272272   4.462  13.924   9.083
23459SOL     OW72273   8.530   7.032   0.945
23459SOL    HW172274   8.478   7.055   1.022
23459SOL    HW272275   8.540   7.115   0.898
23460SOL     OW72276   7.413   1.543   6.241
23460SOL    HW172277   7.351   1.502   6.301
23460SOL    HW272278   7.399   1.498   6.158
23461SOL     OW72279   2.137  12.711   0.736
23461SOL    HW172280   2.220  12.679   0.700
23461SOL    HW272281   2.071  12.651   0.701
23462SOL     OW72282   8.626  11.241  14.846
23462SOL    HW172283   8.551  11.277   0.018
23462SOL    HW272284   8.596  11.156  14.814
23463SOL     OW72285  10.843   8.733   1.492
23463SOL    HW172286  10.817   8.687   1.412
23463SOL    HW272287  10.804   8.683   1.563
23464SOL     OW72288   1.681   9.795  10.587
23464SOL    HW172289   1.606   9.823  10.639
23464SOL    HW272290   1.651   9.801  10.496
23465SOL     OW72291   0.690   3.827   5.986
23465SOL    HW172292   0.614   3.802   6.039
23465SOL    HW272293   0.664   3.810   5.896
23466SOL     OW72294  10.856  14.546   1.071
23466SOL    HW172295  10.942  14.544   1.112
23466SOL    HW272296  10.801  14.593   1.134
23467SOL     OW72297  14.780   6.043   0.302
23467SOL    HW172298  14.718   5.973   0.321
23467SOL    HW272299  14.826   6.057   0.385
23468SOL     OW72300   4.723  13.582   1.953
23468SOL    HW172301   4.709  13.528   1.876
23468SOL    HW272302   4.636  13.616   1.974
23469SOL     OW72303  10.915   8.038  14.200
23469SOL    HW172304  10.964   8.002  14.126
23469SOL    HW272305  10.873   7.962  14.240
23470SOL     OW72306   3.696   5.315  13.034
23470SOL    HW172307   3.606   5.283  13.040
23470SOL    HW272308   3.732   5.272  12.956
23471SOL     OW72309   9.173   0.249   9.711
23471SOL    HW172310   9.129   0.284   9.788
23471SOL    HW272311   9.221   0.325   9.675
23472SOL     OW72312   5.389   3.181   7.737
23472SOL    HW172313   5.334   3.257   7.754
23472SOL    HW272314   5.398   3.138   7.822
23473SOL     OW72315  14.696   6.829  10.498
23473SOL    HW172316  14.601   6.820  10.502
23473SOL    HW272317  14.712   6.871  10.413
23474SOL     OW72318   6.353   0.914   9.657
23474SOL    HW172319   6.402   0.992   9.629
23474SOL    HW272320   6.417   0.863   9.707
23475SOL     OW72321   3.204  14.093   1.293
23475SOL    HW172322   3.288  14.139   1.284
23475SOL    HW272323   3.180  14.104   1.385
23476SOL     OW72324   6.165  10.948  13.420
23476SOL    HW172325   6.092  10.930  13.361
23476SOL    HW272326   6.138  10.907  13.503
23477SOL     OW72327   4.709  14.279   1.019
23477SOL    HW172328   4.699  14.348   0.952
23477SOL    HW272329   4.705  14.326   1.102
23478SOL     OW72330   6.116   5.142   2.870
23478SOL    HW172331   6.148   5.136   2.960
23478SOL    HW272332   6.190   5.177   2.821
23479SOL     OW72333   4.925   5.532  10.031
23479SOL    HW172334   4.928   5.553  10.125
23479SOL    HW272335   5.015   5.508  10.010
23480SOL     OW72336   3.336   7.240  10.934
23480SOL    HW172337   3.412   7.237  10.992
23480SOL    HW272338   3.268   7.191  10.980
23481SOL     OW72339  12.836   2.988   2.093
23481SOL    HW172340  12.771   2.919   2.107
23481SOL    HW272341  12.806   3.032   2.013
23482SOL     OW72342   1.936   5.041   6.810
23482SOL    HW172343   1.959   5.134   6.808
23482SOL    HW272344   2.000   5.002   6.870
23483SOL     OW72345   2.490   3.297   7.190
23483SOL    HW172346   2.423   3.323   7.127
23483SOL    HW272347   2.446   3.234   7.248
23484SOL     OW72348   4.401  11.482   7.299
23484SOL    HW172349   4.490  11.462   7.330
23484SOL    HW272350   4.392  11.432   7.218
23485SOL     OW72351   5.990   5.009  14.593
23485SOL    HW172352   6.018   5.094  14.560
23485SOL    HW272353   5.994   5.017  14.688
23486SOL     OW72354  12.912   8.492   4.551
23486SOL    HW172355  12.984   8.447   4.595
23486SOL    HW272356  12.946   8.513   4.464
23487SOL     OW72357   8.529   6.504   5.959
23487SOL    HW172358   8.521   6.409   5.971
23487SOL    HW272359   8.601   6.514   5.897
23488SOL     OW72360   9.179   9.517   0.254
23488SOL    HW172361   9.186   9.543   0.162
23488SOL    HW272362   9.117   9.445   0.255
23489SOL     OW72363   1.597   5.875   0.102
23489SOL    HW172364   1.680   5.842   0.068
23489SOL    HW272365   1.620   5.918   0.185
23490SOL     OW72366   9.760   3.936   3.587
23490SOL    HW172367   9.757   3.841   3.600
23490SOL    HW272368   9.765   3.972   3.676
23491SOL     OW72369   0.461   8.570  10.845
23491SOL    HW172370   0.554   8.560  10.822
23491SOL    HW272371   0.450   8.664  10.857
23492SOL     OW72372   3.382  13.003  11.531
23492SOL    HW172373   3.350  12.937  11.592
23492SOL    HW272374   3.467  12.969  11.501
23493SOL     OW72375   5.221   8.656   3.905
23493SOL    HW172376   5.140   8.605   3.895
23493SOL    HW272377   5.191   8.745   3.925
23494SOL     OW72378  12.136   5.484  14.332
23494SOL    HW172379  12.125   5.563  14.279
23494SOL    HW272380  12.214   5.501  14.385
23495SOL     OW72381  14.752   5.678  10.044
23495SOL    HW172382  14.747   5.698  10.137
23495SOL    HW272383  14.677   5.620  10.028
23496SOL     OW72384   0.164  12.607  14.676
23496SOL    HW172385   0.137  12.657  14.599
23496SOL    HW272386   0.178  12.674  14.744
23497SOL     OW72387   0.023   5.301   7.683
23497SOL    HW172388   0.020   5.242   7.759
23497SOL    HW272389  14.845   5.257   7.616
23498SOL     OW72390  13.999  10.225   9.303
23498SOL    HW172391  13.990  10.132   9.323
23498SOL    HW272392  14.078  10.231   9.249
23499SOL     OW72393  14.080   8.383  11.135
23499SOL    HW172394  14.002   8.328  11.141
23499SOL    HW272395  14.047   8.470  11.111
23500SOL     OW72396   4.994   1.930  11.970
23500SOL    HW172397   4.971   2.008  12.021
23500SOL    HW272398   4.917   1.874  11.976
23501SOL     OW72399  13.355   9.700   4.305
23501SOL    HW172400  13.364   9.762   4.377
23501SOL    HW272401  13.445   9.676   4.283
23502SOL     OW72402  10.803   2.708   1.642
23502SOL    HW172403  10.766   2.768   1.707
23502SOL    HW272404  10.742   2.634   1.640
23503SOL     OW72405  12.613  10.569   3.803
23503SOL    HW172406  12.671  10.638   3.771
23503SOL    HW272407  12.671  10.495   3.820
23504SOL     OW72408   6.984  10.987  13.839
23504SOL    HW172409   7.016  10.973  13.929
23504SOL    HW272410   7.017  10.911  13.790
23505SOL     OW72411  11.374   0.737  11.393
23505SOL    HW172412  11.375   0.667  11.329
23505SOL    HW272413  11.464   0.768  11.397
23506SOL     OW72414   7.596   2.712   8.047
23506SOL    HW172415   7.528   2.765   8.006
23506SOL    HW272416   7.641   2.772   8.106
23507SOL     OW72417   7.278  10.906  10.458
23507SOL    HW172418   7.347  10.880  10.520
23507SOL    HW272419   7.285  11.001  10.453
23508SOL     OW72420   7.487   7.194  12.607
23508SOL    HW172421   7.400   7.231  12.621
23508SOL    HW272422   7.532   7.203  12.691
23509SOL     OW72423   4.495  10.030   9.477
23509SOL    HW172424   4.549   9.951   9.485
23509SOL    HW272425   4.405   9.997   9.478
23510SOL     OW72426   5.874   1.928  11.664
23510SOL    HW172427   5.946   1.980  11.699
23510SOL    HW272428   5.798   1.954  11.716
23511SOL     OW72429  14.475   1.429   7.632
23511SOL    HW172430  14.531   1.435   7.555
23511SOL    HW272431  14.414   1.502   7.623
23512SOL     OW72432   8.144   9.426  11.928
23512SOL    HW172433   8.092   9.462  11.856
23512SOL    HW272434   8.181   9.502  11.972
23513SOL     OW72435   9.810   4.303   5.504
23513SOL    HW172436   9.850   4.282   5.588
23513SOL    HW272437   9.760   4.225   5.481
23514SOL     OW72438   5.568  12.040  14.406
23514SOL    HW172439   5.528  11.970  14.354
23514SOL    HW272440   5.646  11.999  14.444
23515SOL     OW72441  12.566   1.723   3.271
23515SOL    HW172442  12.653   1.708   3.235
23515SOL    HW272443  12.508   1.669   3.218
23516SOL     OW72444   9.452   6.811  10.895
23516SOL    HW172445   9.501   6.892  10.909
23516SOL    HW272446   9.511   6.755  10.846
23517SOL     OW72447  13.536   1.608   4.510
23517SOL    HW172448  13.469   1.604   4.579
23517SOL    HW272449  13.517   1.533   4.454
23518SOL     OW72450   5.755  14.871   3.028
23518SOL    HW172451   5.770  14.823   2.947
23518SOL    HW272452   5.746  14.803   3.095
23519SOL     OW72453   4.437   5.396   6.238
23519SOL    HW172454   4.368   5.332   6.253
23519SOL    HW272455   4.503   5.350   6.187
23520SOL     OW72456  12.466   7.205   4.417
23520SOL    HW172457  12.370   7.203   4.420
23520SOL    HW272458  12.493   7.185   4.507
23521SOL     OW72459  10.507   3.027   3.815
23521SOL    HW172460  10.440   2.966   3.847
23521SOL    HW272461  10.460   3.108   3.799
23522SOL     OW72462   6.740   1.682   5.925
23522SOL    HW172463   6.687   1.702   6.002
23522SOL    HW272464   6.821   1.645   5.960
23523SOL     OW72465   9.937   6.980   3.478
23523SOL    HW172466   9.890   6.952   3.557
23523SOL    HW272467  10.017   7.022   3.511
23524SOL     OW72468  12.829   3.235   6.476
23524SOL    HW172469  12.809   3.142   6.474
23524SOL    HW272470  12.905   3.242   6.533
23525SOL     OW72471  12.619  12.369   6.876
23525SOL    HW172472  12.682  12.434   6.908
23525SOL    HW272473  12.673  12.303   6.833
23526SOL     OW72474   3.891   1.274   7.721
23526SOL    HW172475   3.898   1.232   7.806
23526SOL    HW272476   3.949   1.350   7.727
23527SOL     OW72477  12.937  14.762   6.258
23527SOL    HW172478  12.935  14.684   6.201
23527SOL    HW272479  12.848  14.767   6.293
23528SOL     OW72480   9.140   1.909  11.605
23528SOL    HW172481   9.229   1.885  11.629
23528SOL    HW272482   9.085   1.858  11.665
23529SOL     OW72483   3.128   0.534  12.971
23529SOL    HW172484   3.183   0.526  12.893
23529SOL    HW272485   3.041   0.507  12.941
23530SOL     OW72486   7.179   7.268  11.731
23530SOL    HW172487   7.254   7.309  11.775
23530SOL    HW272488   7.113   7.258  11.800
23531SOL     OW72489   8.376   2.851   0.864
23531SOL    HW172490   8.338   2.765   0.884
23531SOL    HW272491   8.309   2.895   0.812
23532SOL     OW72492  12.973   3.512   5.645
23532SOL    HW172493  12.878   3.522   5.642
23532SOL    HW272494  12.986   3.418   5.656
23533SOL     OW72495  12.921   7.240   8.360
23533SOL    HW172496  12.955   7.308   8.417
23533SOL    HW272497  12.858   7.193   8.415
23534SOL     OW72498  11.877   4.024   0.511
23534SOL    HW172499  11.826   3.946   0.486
23534SOL    HW272500  11.828   4.097   0.474
23535SOL     OW72501   7.428   1.069   7.137
23535SOL    HW172502   7.492   0.999   7.145
23535SOL    HW272503   7.450   1.113   7.055
23536SOL     OW72504   2.240   5.658   7.963
23536SOL    HW172505   2.317   5.650   7.907
23536SOL    HW272506   2.270   5.631   8.049
23537SOL     OW72507   8.008   4.410   6.433
23537SOL    HW172508   8.089   4.421   6.384
23537SOL    HW272509   7.955   4.485   6.409
23538SOL     OW72510   5.182  10.378   8.589
23538SOL    HW172511   5.192  10.284   8.604
23538SOL    HW272512   5.231  10.420   8.659
23539SOL     OW72513  13.112   0.633  13.126
23539SOL    HW172514  13.200   0.605  13.100
23539SOL    HW272515  13.054   0.571  13.083
23540SOL     OW72516  14.069   3.045   5.331
23540SOL    HW172517  14.005   3.113   5.352
23540SOL    HW272518  14.016   2.971   5.303
23541SOL     OW72519  14.365  12.763   7.473
23541SOL    HW172520  14.361  12.858   7.468
23541SOL    HW272521  14.287  12.737   7.522
23542SOL     OW72522   3.961   7.768   4.024
23542SOL    HW172523   3.969   7.845   4.080
23542SOL    HW272524   3.963   7.804   3.935
23543SOL     OW72525   2.576   9.138  14.348
23543SOL    HW172526   2.540   9.226  14.332
23543SOL    HW272527   2.502   9.087  14.379
23544SOL     OW72528   5.876   4.706  14.171
23544SOL    HW172529   5.914   4.771  14.112
23544SOL    HW272530   5.834   4.759  14.240
23545SOL     OW72531   3.925   9.600  10.591
23545SOL    HW172532   3.883   9.640  10.667
23545SOL    HW272533   3.946   9.674  10.534
23546SOL     OW72534  13.687   2.302  11.198
23546SOL    HW172535  13.759   2.283  11.138
23546SOL    HW272536  13.703   2.245  11.274
23547SOL     OW72537  12.303   5.175   0.291
23547SOL    HW172538  12.348   5.101   0.252
23547SOL    HW272539  12.250   5.212   0.220
23548SOL     OW72540  14.168   4.740   7.000
23548SOL    HW172541  14.175   4.672   7.066
23548SOL    HW272542  14.200   4.699   6.920
23549SOL     OW72543   9.786  12.429  12.389
23549SOL    HW172544   9.783  12.340  12.354
23549SOL    HW272545   9.762  12.419  12.481
23550SOL     OW72546   6.782  11.163  13.829
23550SOL    HW172547   6.729  11.117  13.764
23550SOL    HW272548   6.844  11.096  13.860
23551SOL     OW72549   7.916   7.229   1.159
23551SOL    HW172550   7.917   7.245   1.065
23551SOL    HW272551   7.823   7.219   1.181
23552SOL     OW72552   2.450  13.597   4.583
23552SOL    HW172553   2.370  13.619   4.630
23552SOL    HW272554   2.467  13.505   4.604
23553SOL     OW72555   4.747  12.026   2.620
23553SOL    HW172556   4.818  12.088   2.635
23553SOL    HW272557   4.716  12.045   2.532
23554SOL     OW72558   1.977  13.093   9.429
23554SOL    HW172559   2.032  13.168   9.449
23554SOL    HW272560   1.902  13.130   9.382
23555SOL     OW72561   2.591  14.852   8.602
23555SOL    HW172562   2.585  14.767   8.558
23555SOL    HW272563   2.683   0.001   8.594
23556SOL     OW72564   1.420   7.178   5.408
23556SOL    HW172565   1.353   7.240   5.381
23556SOL    HW272566   1.498   7.204   5.357
23557SOL     OW72567   3.687  14.008   1.001
23557SOL    HW172568   3.734  13.989   1.083
23557SOL    HW272569   3.651  14.096   1.014
23558SOL     OW72570   6.783  13.199   2.201
23558SOL    HW172571   6.862  13.183   2.253
23558SOL    HW272572   6.800  13.156   2.117
23559SOL     OW72573   9.756   9.674  12.142
23559SOL    HW172574   9.769   9.766  12.120
23559SOL    HW272575   9.688   9.644  12.083
23560SOL     OW72576   7.116  10.072   0.140
23560SOL    HW172577   7.046  10.077   0.205
23560SOL    HW272578   7.121  10.160   0.102
23561SOL     OW72579   0.631   1.766   3.136
23561SOL    HW172580   0.657   1.828   3.205
23561SOL    HW272581   0.714   1.733   3.102
23562SOL     OW72582  13.871   1.921  11.491
23562SOL    HW172583  13.951   1.968  11.515
23562SOL    HW272584  13.853   1.949  11.402
23563SOL     OW72585   7.085   2.173   8.506
23563SOL    HW172586   7.108   2.095   8.455
23563SOL    HW272587   7.031   2.225   8.446
23564SOL     OW72588   1.894   5.465  10.376
23564SOL    HW172589   1.916   5.480  10.284
23564SOL    HW272590   1.877   5.371  10.382
23565SOL     OW72591   3.601   6.169  10.549
23565SOL    HW172592   3.670   6.232  10.527
23565SOL    HW272593   3.520   6.213  10.524
23566SOL     OW72594   0.897  14.097  14.598
23566SOL    HW172595   0.810  14.059  14.586
23566SOL    HW272596   0.880  14.177  14.648
23567SOL     OW72597  10.363  11.705  13.890
23567SOL    HW172598  10.270  11.696  13.867
23567SOL    HW272599  10.401  11.757  13.819
23568SOL     OW72600   8.844   1.259  14.239
23568SOL    HW172601   8.828   1.217  14.323
23568SOL    HW272602   8.891   1.340  14.262
23569SOL     OW72603   2.134   2.187   3.671
23569SOL    HW172604   2.140   2.204   3.577
23569SOL    HW272605   2.108   2.095   3.677
23570SOL     OW72606   4.460   0.859   0.568
23570SOL    HW172607   4.518   0.934   0.579
23570SOL    HW272608   4.462   0.814   0.653
23571SOL     OW72609   0.903   0.609   6.534
23571SOL    HW172610   0.916   0.704   6.525
23571SOL    HW272611   0.986   0.571   6.507
23572SOL     OW72612   3.362  10.453   0.014
23572SOL    HW172613   3.346  10.367   0.054
23572SOL    HW272614   3.300  10.511   0.057
23573SOL     OW72615   7.075   0.544  10.983
23573SOL    HW172616   7.117   0.468  10.942
23573SOL    HW272617   7.025   0.507  11.056
23574SOL     OW72618   6.991   0.952   7.153
23574SOL    HW172619   6.952   0.866   7.168
23574SOL    HW272620   7.085   0.938   7.161
23575SOL     OW72621  13.088   3.687   0.368
23575SOL    HW172622  13.104   3.598   0.338
23575SOL    HW272623  13.163   3.707   0.424
23576SOL     OW72624  11.060  10.725   0.060
23576SOL    HW172625  11.069  10.710  14.841
23576SOL    HW272626  10.993  10.794   0.067
23577SOL     OW72627   8.127  13.238   7.794
23577SOL    HW172628   8.177  13.185   7.856
23577SOL    HW272629   8.060  13.280   7.848
23578SOL     OW72630   9.174   4.376   5.513
23578SOL    HW172631   9.151   4.441   5.447
23578SOL    HW272632   9.100   4.376   5.574
23579SOL     OW72633   0.818   6.736  14.162
23579SOL    HW172634   0.822   6.668  14.230
23579SOL    HW272635   0.878   6.804  14.193
23580SOL     OW72636   4.229  14.016  11.412
23580SOL    HW172637   4.243  14.063  11.330
23580SOL    HW272638   4.189  13.933  11.386
23581SOL     OW72639   7.093   8.309  11.120
23581SOL    HW172640   7.102   8.214  11.126
23581SOL    HW272641   7.101   8.328  11.026
23582SOL     OW72642   5.338  14.381   2.600
23582SOL    HW172643   5.424  14.365   2.638
23582SOL    HW272644   5.286  14.304   2.624
23583SOL     OW72645   0.897   3.465   8.119
23583SOL    HW172646   0.962   3.489   8.184
23583SOL    HW272647   0.929   3.503   8.037
23584SOL     OW72648   1.259  14.694   6.650
23584SOL    HW172649   1.327  14.651   6.703
23584SOL    HW272650   1.232  14.627   6.587
23585SOL     OW72651   7.280  14.556   2.318
23585SOL    HW172652   7.278  14.507   2.401
23585SOL    HW272653   7.363  14.603   2.320
23586SOL     OW72654   3.584   5.771   2.702
23586SOL    HW172655   3.533   5.801   2.627
23586SOL    HW272656   3.663   5.731   2.664
23587SOL     OW72657   6.965   8.357   4.311
23587SOL    HW172658   6.997   8.357   4.401
23587SOL    HW272659   6.871   8.340   4.319
23588SOL     OW72660   7.350  14.309  11.511
23588SOL    HW172661   7.411  14.376  11.540
23588SOL    HW272662   7.283  14.306  11.579
23589SOL     OW72663  11.680  13.772   3.065
23589SOL    HW172664  11.775  13.755   3.066
23589SOL    HW272665  11.642  13.697   3.111
23590SOL     OW72666  14.166   3.602   2.482
23590SOL    HW172667  14.142   3.684   2.438
23590SOL    HW272668  14.094   3.585   2.542
23591SOL     OW72669   5.217  10.233   9.570
23591SOL    HW172670   5.152  10.284   9.521
23591SOL    HW272671   5.257  10.297   9.629
23592SOL     OW72672   7.217   3.394   8.360
23592SOL    HW172673   7.288   3.330   8.353
23592SOL    HW272674   7.149   3.349   8.410
23593SOL     OW72675  11.766   1.805  13.772
23593SOL    HW172676  11.807   1.835  13.691
23593SOL    HW272677  11.813   1.851  13.842
23594SOL     OW72678   3.541   6.315  11.141
23594SOL    HW172679   3.621   6.271  11.170
23594SOL    HW272680   3.473   6.248  11.147
23595SOL     OW72681   5.097   9.457  14.419
23595SOL    HW172682   5.131   9.467  14.330
23595SOL    HW272683   5.160   9.503  14.474
23596SOL     OW72684   4.773  12.805   0.790
23596SOL    HW172685   4.834  12.824   0.861
23596SOL    HW272686   4.829  12.782   0.716
23597SOL     OW72687   2.760   5.972   8.403
23597SOL    HW172688   2.714   5.900   8.360
23597SOL    HW272689   2.835   5.989   8.346
23598SOL     OW72690   6.014   1.312   9.928
23598SOL    HW172691   5.954   1.332  10.000
23598SOL    HW272692   5.964   1.252   9.871
23599SOL     OW72693   8.282  12.036  13.448
23599SOL    HW172694   8.259  12.027  13.540
23599SOL    HW272695   8.357  12.096  13.447
23600SOL     OW72696  12.673   3.546  12.139
23600SOL    HW172697  12.723   3.472  12.175
23600SOL    HW272698  12.724   3.623  12.161
23601SOL     OW72699   7.347   7.419  10.607
23601SOL    HW172700   7.260   7.455  10.593
23601SOL    HW272701   7.335   7.353  10.676
23602SOL     OW72702   1.853  14.491   5.294
23602SOL    HW172703   1.801  14.415   5.266
23602SOL    HW272704   1.942  14.458   5.301
23603SOL     OW72705   8.848   7.043   5.254
23603SOL    HW172706   8.896   6.962   5.272
23603SOL    HW272707   8.905   7.092   5.194
23604SOL     OW72708   2.783  11.259   7.151
23604SOL    HW172709   2.716  11.218   7.097
23604SOL    HW272710   2.773  11.353   7.134
23605SOL     OW72711  10.149   5.553   8.960
23605SOL    HW172712  10.136   5.478   8.901
23605SOL    HW272713  10.217   5.605   8.918
23606SOL     OW72714   1.689   6.562   5.797
23606SOL    HW172715   1.709   6.475   5.763
23606SOL    HW272716   1.767   6.614   5.778
23607SOL     OW72717  13.426  12.340   0.623
23607SOL    HW172718  13.462  12.259   0.658
23607SOL    HW272719  13.331  12.332   0.634
23608SOL     OW72720  12.370   5.049   2.089
23608SOL    HW172721  12.432   5.072   2.020
23608SOL    HW272722  12.318   5.129   2.102
23609SOL     OW72723   7.941  12.670   6.505
23609SOL    HW172724   8.008  12.639   6.444
23609SOL    HW272725   7.888  12.731   6.454
23610SOL     OW72726   8.902   2.208   3.547
23610SOL    HW172727   8.993   2.217   3.577
23610SOL    HW272728   8.868   2.297   3.548
23611SOL     OW72729   6.016   7.894   7.099
23611SOL    HW172730   6.081   7.948   7.144
23611SOL    HW272731   6.058   7.871   7.016
23612SOL     OW72732  12.266   0.076   0.014
23612SOL    HW172733  12.356   0.045   0.017
23612SOL    HW272734  12.257   0.117  14.803
23613SOL     OW72735  10.927   3.900  13.755
23613SOL    HW172736  10.934   3.890  13.660
23613SOL    HW272737  10.879   3.823  13.784
23614SOL     OW72738   6.506  10.078   0.487
23614SOL    HW172739   6.418  10.090   0.450
23614SOL    HW272740   6.505  10.126   0.569
23615SOL     OW72741   6.362  14.271   6.387
23615SOL    HW172742   6.305  14.223   6.447
23615SOL    HW272743   6.447  14.230   6.397
23616SOL     OW72744  12.273   6.664   8.266
23616SOL    HW172745  12.240   6.645   8.177
23616SOL    HW272746  12.239   6.591   8.319
23617SOL     OW72747   5.157  14.752   8.188
23617SOL    HW172748   5.189  14.790   8.106
23617SOL    HW272749   5.154  14.658   8.172
23618SOL     OW72750  10.993   4.988   1.642
23618SOL    HW172751  11.078   5.031   1.646
23618SOL    HW272752  10.930   5.059   1.657
23619SOL     OW72753   4.988   4.859   0.906
23619SOL    HW172754   4.930   4.924   0.866
23619SOL    HW272755   5.076   4.893   0.889
23620SOL     OW72756  14.445  13.292  10.082
23620SOL    HW172757  14.481  13.365  10.032
23620SOL    HW272758  14.394  13.242  10.019
23621SOL     OW72759   4.809   0.367   7.280
23621SOL    HW172760   4.725   0.405   7.308
23621SOL    HW272761   4.790   0.274   7.267
23622SOL     OW72762   4.155  12.619   3.310
23622SOL    HW172763   4.151  12.523   3.309
23622SOL    HW272764   4.109  12.646   3.231
23623SOL     OW72765   5.191   6.106   7.805
23623SOL    HW172766   5.244   6.083   7.730
23623SOL    HW272767   5.120   6.159   7.769
23624SOL     OW72768   1.821   5.234  11.271
23624SOL    HW172769   1.890   5.298  11.251
23624SOL    HW272770   1.867   5.161  11.312
23625SOL     OW72771   5.409  13.647   0.927
23625SOL    HW172772   5.439  13.569   0.881
23625SOL    HW272773   5.489  13.690   0.957
23626SOL     OW72774   5.255   5.473  13.098
23626SOL    HW172775   5.244   5.567  13.088
23626SOL    HW272776   5.338   5.453  13.054
23627SOL     OW72777   7.672   7.313   5.958
23627SOL    HW172778   7.699   7.294   5.868
23627SOL    HW272779   7.748   7.289   6.011
23628SOL     OW72780  12.636  11.434  10.987
23628SOL    HW172781  12.701  11.425  11.056
23628SOL    HW272782  12.665  11.372  10.919
23629SOL     OW72783   5.697   8.797   0.719
23629SOL    HW172784   5.734   8.767   0.802
23629SOL    HW272785   5.679   8.717   0.671
23630SOL     OW72786   8.755   9.856   6.314
23630SOL    HW172787   8.814   9.833   6.242
23630SOL    HW272788   8.745   9.776   6.364
23631SOL     OW72789  14.599  10.246   5.343
23631SOL    HW172790  14.621  10.158   5.311
23631SOL    HW272791  14.564  10.231   5.431
23632SOL     OW72792   2.462  14.016  11.839
23632SOL    HW172793   2.412  13.935  11.832
23632SOL    HW272794   2.453  14.042  11.931
23633SOL     OW72795   2.541  10.970  14.545
23633SOL    HW172796   2.583  10.947  14.628
23633SOL    HW272797   2.592  11.044  14.512
23634SOL     OW72798  14.793   4.109   5.723
23634SOL    HW172799  14.729   4.057   5.772
23634SOL    HW272800  14.740   4.161   5.663
23635SOL     OW72801   4.165   8.145  12.726
23635SOL    HW172802   4.131   8.145  12.816
23635SOL    HW272803   4.251   8.185  12.733
23636SOL     OW72804   8.153   9.020   7.261
23636SOL    HW172805   8.212   8.952   7.230
23636SOL    HW272806   8.184   9.101   7.220
23637SOL     OW72807   9.714   2.699  11.849
23637SOL    HW172808   9.712   2.678  11.755
23637SOL    HW272809   9.806   2.717  11.867
23638SOL     OW72810  12.168   4.077   6.836
23638SOL    HW172811  12.255   4.052   6.867
23638SOL    HW272812  12.173   4.171   6.824
23639SOL     OW72813   8.922   6.171   0.106
23639SOL    HW172814   8.848   6.177   0.166
23639SOL    HW272815   8.981   6.107   0.147
23640SOL     OW72816   0.331   1.949  10.062
23640SOL    HW172817   0.378   1.895   9.999
23640SOL    HW272818   0.397   1.972  10.128
23641SOL     OW72819  12.608   8.698   1.631
23641SOL    HW172820  12.549   8.755   1.583
23641SOL    HW272821  12.576   8.701   1.722
23642SOL     OW72822   0.442   9.282   9.917
23642SOL    HW172823   0.434   9.201   9.868
23642SOL    HW272824   0.479   9.345   9.855
23643SOL     OW72825  11.168   0.828   4.995
23643SOL    HW172826  11.153   0.739   4.963
23643SOL    HW272827  11.184   0.818   5.088
23644SOL     OW72828   2.543  14.630   7.160
23644SOL    HW172829   2.518  14.559   7.219
23644SOL    HW272830   2.636  14.618   7.145
23645SOL     OW72831   3.921   2.380   1.582
23645SOL    HW172832   3.867   2.319   1.633
23645SOL    HW272833   3.863   2.452   1.561
23646SOL     OW72834   7.722  10.585   3.067
23646SOL    HW172835   7.642  10.562   3.020
23646SOL    HW272836   7.725  10.524   3.141
23647SOL     OW72837  13.498   8.918   8.539
23647SOL    HW172838  13.536   8.837   8.573
23647SOL    HW272839  13.520   8.984   8.604
23648SOL     OW72840   1.338  10.907   5.118
23648SOL    HW172841   1.291  10.836   5.075
23648SOL    HW272842   1.425  10.907   5.077
23649SOL     OW72843   3.186   8.252  11.323
23649SOL    HW172844   3.251   8.243  11.392
23649SOL    HW272845   3.214   8.329  11.274
23650SOL     OW72846  11.181   2.409  11.110
23650SOL    HW172847  11.264   2.380  11.074
23650SOL    HW272848  11.199   2.496  11.146
23651SOL     OW72849  10.654   5.408  11.043
23651SOL    HW172850  10.577   5.425  10.988
23651SOL    HW272851  10.628   5.335  11.099
23652SOL     OW72852   7.639   4.225   9.795
23652SOL    HW172853   7.666   4.204   9.705
23652SOL    HW272854   7.720   4.250   9.839
23653SOL     OW72855   5.642   5.309   7.471
23653SOL    HW172856   5.673   5.234   7.522
23653SOL    HW272857   5.689   5.302   7.388
23654SOL     OW72858   5.710   1.557   4.533
23654SOL    HW172859   5.737   1.618   4.603
23654SOL    HW272860   5.619   1.537   4.553
23655SOL     OW72861   0.752   7.353  12.108
23655SOL    HW172862   0.813   7.283  12.082
23655SOL    HW272863   0.759   7.417  12.037
23656SOL     OW72864   7.480   3.709   5.267
23656SOL    HW172865   7.407   3.759   5.305
23656SOL    HW272866   7.488   3.631   5.323
23657SOL     OW72867  14.197   0.891  11.901
23657SOL    HW172868  14.182   0.914  11.993
23657SOL    HW272869  14.293   0.894  11.891
23658SOL     OW72870   1.867   4.742   9.960
23658SOL    HW172871   1.938   4.803   9.942
23658SOL    HW272872   1.816   4.785  10.029
23659SOL     OW72873  14.483   5.753   6.084
23659SOL    HW172874  14.401   5.780   6.126
23659SOL    HW272875  14.513   5.679   6.136
23660SOL     OW72876   1.462   2.078   7.146
23660SOL    HW172877   1.512   2.133   7.086
23660SOL    HW272878   1.448   1.997   7.098
23661SOL     OW72879   2.129   9.721  11.099
23661SOL    HW172880   2.120   9.773  11.179
23661SOL    HW272881   2.156   9.785  11.032
23662SOL     OW72882   0.361   2.475   3.475
23662SOL    HW172883   0.273   2.499   3.446
23662SOL    HW272884   0.384   2.541   3.540
23663SOL     OW72885   2.021   6.236  11.911
23663SOL    HW172886   2.052   6.284  11.988
23663SOL    HW272887   2.049   6.145  11.926
23664SOL     OW72888   3.598   0.564   3.289
23664SOL    HW172889   3.610   0.610   3.372
23664SOL    HW272890   3.636   0.622   3.224
23665SOL     OW72891   3.536   8.406   3.004
23665SOL    HW172892   3.501   8.493   3.025
23665SOL    HW272893   3.631   8.417   3.012
23666SOL     OW72894   8.022   8.314  12.516
23666SOL    HW172895   7.994   8.223  12.501
23666SOL    HW272896   8.098   8.306  12.574
23667SOL     OW72897   9.980   4.796  14.860
23667SOL    HW172898   9.981   4.891  14.850
23667SOL    HW272899  10.067   4.767  14.833
23668SOL     OW72900   4.778   8.984   0.003
23668SOL    HW172901   4.682   8.976  14.874
23668SOL    HW272902   4.802   8.938   0.084
23669SOL     OW72903  13.140  10.286   4.840
23669SOL    HW172904  13.139  10.238   4.922
23669SOL    HW272905  13.123  10.377   4.865
23670SOL     OW72906  13.776  11.846   7.104
23670SOL    HW172907  13.794  11.838   7.010
23670SOL    HW272908  13.857  11.815   7.146
23671SOL     OW72909   4.081   5.660  10.347
23671SOL    HW172910   3.987   5.676  10.357
23671SOL    HW272911   4.093   5.568  10.372
23672SOL     OW72912  13.736   0.046   2.174
23672SOL    HW172913  13.640   0.043   2.178
23672SOL    HW272914  13.757   0.136   2.198
23673SOL     OW72915  14.411  14.676   0.185
23673SOL    HW172916  14.504  14.658   0.175
23673SOL    HW272917  14.401  14.703   0.276
23674SOL     OW72918   4.128  12.572   5.000
23674SOL    HW172919   4.171  12.519   4.934
23674SOL    HW272920   4.036  12.544   4.998
23675SOL     OW72921  12.447   3.681  10.526
23675SOL    HW172922  12.537   3.652  10.536
23675SOL    HW272923  12.395   3.600  10.528
23676SOL     OW72924   7.137   5.158   1.023
23676SOL    HW172925   7.062   5.206   1.057
23676SOL    HW272926   7.208   5.177   1.083
23677SOL     OW72927   1.393   1.463   2.217
23677SOL    HW172928   1.452   1.539   2.216
23677SOL    HW272929   1.371   1.449   2.125
23678SOL     OW72930   6.535  13.380  10.563
23678SOL    HW172931   6.533  13.299  10.512
23678SOL    HW272932   6.626  13.410  10.557
23679SOL     OW72933   0.391   8.171   1.163
23679SOL    HW172934   0.306   8.181   1.121
23679SOL    HW272935   0.376   8.108   1.233
23680SOL     OW72936   8.405  14.232  12.607
23680SOL    HW172937   8.480  14.261  12.660
23680SOL    HW272938   8.442  14.168  12.547
23681SOL     OW72939   4.319   1.849   9.165
23681SOL    HW172940   4.348   1.771   9.213
23681SOL    HW272941   4.395   1.875   9.113
23682SOL     OW72942   8.872   5.583  11.334
23682SOL    HW172943   8.787   5.610  11.299
23682SOL    HW272944   8.851   5.545  11.419
23683SOL     OW72945   5.636  10.812   6.569
23683SOL    HW172946   5.586  10.735   6.597
23683SOL    HW272947   5.601  10.833   6.483
23684SOL     OW72948   9.411  10.803   4.272
23684SOL    HW172949   9.434  10.722   4.227
23684SOL    HW272950   9.435  10.787   4.363
23685SOL     OW72951   4.174  14.194   0.937
23685SOL    HW172952   4.225  14.187   0.857
23685SOL    HW272953   4.214  14.267   0.985
23686SOL     OW72954  12.468   3.708  14.141
23686SOL    HW172955  12.488   3.801  14.156
23686SOL    HW272956  12.549   3.672  14.105
23687SOL     OW72957   6.095   1.032   2.384
23687SOL    HW172958   6.068   0.943   2.362
23687SOL    HW272959   6.170   1.049   2.327
23688SOL     OW72960   9.204   5.183   3.118
23688SOL    HW172961   9.187   5.248   3.050
23688SOL    HW272962   9.151   5.210   3.192
23689SOL     OW72963  10.896   9.529   8.513
23689SOL    HW172964  10.833   9.463   8.542
23689SOL    HW272965  10.938   9.489   8.437
23690SOL     OW72966  13.894   2.538   9.145
23690SOL    HW172967  13.822   2.482   9.114
23690SOL    HW272968  13.904   2.604   9.076
23691SOL     OW72969  14.577   0.117   3.368
23691SOL    HW172970  14.545   0.028   3.382
23691SOL    HW272971  14.549   0.138   3.279
23692SOL     OW72972   8.858   3.101   9.551
23692SOL    HW172973   8.766   3.082   9.536
23692SOL    HW272974   8.905   3.029   9.509
23693SOL     OW72975   3.017   0.703   9.687
23693SOL    HW172976   3.039   0.766   9.756
23693SOL    HW272977   3.075   0.725   9.615
23694SOL     OW72978   5.930   9.316   0.856
23694SOL    HW172979   5.962   9.235   0.817
23694SOL    HW272980   5.952   9.308   0.948
23695SOL     OW72981  12.732   1.386   5.836
23695SOL    HW172982  12.679   1.313   5.870
23695SOL    HW272983  12.670   1.458   5.827
23696SOL     OW72984   2.666  11.469  10.122
23696SOL    HW172985   2.644  11.476  10.215
23696SOL    HW272986   2.730  11.539  10.108
23697SOL     OW72987   7.771  11.252   8.241
23697SOL    HW172988   7.702  11.295   8.291
23697SOL    HW272989   7.848  11.256   8.298
23698SOL     OW72990   3.672  10.530   3.977
23698SOL    HW172991   3.713  10.462   4.031
23698SOL    HW272992   3.596  10.559   4.028
23699SOL     OW72993   9.134   7.442   3.165
23699SOL    HW172994   9.085   7.409   3.240
23699SOL    HW272995   9.170   7.526   3.194
23700SOL     OW72996   9.400  13.402  12.679
23700SOL    HW172997   9.479  13.348  12.684
23700SOL    HW272998   9.380  13.423  12.771
23701SOL     OW72999   0.885  11.863   2.799
23701SOL    HW173000   0.838  11.875   2.716
23701SOL    HW273001   0.973  11.897   2.781
23702SOL     OW73002   1.562   4.365   5.294
23702SOL    HW173003   1.510   4.383   5.216
23702SOL    HW273004   1.616   4.443   5.306
23703SOL     OW73005   8.374  14.044   3.807
23703SOL    HW173006   8.353  13.952   3.790
23703SOL    HW273007   8.289  14.089   3.802
23704SOL     OW73008  11.818  12.556  12.026
23704SOL    HW173009  11.738  12.595  12.061
23704SOL    HW273010  11.819  12.467  12.062
23705SOL     OW73011  14.169  11.925   8.511
23705SOL    HW173012  14.074  11.915   8.522
23705SOL    HW273013  14.200  11.955   8.596
23706SOL     OW73014   2.505  13.874  13.574
23706SOL    HW173015   2.439  13.936  13.605
23706SOL    HW273016   2.536  13.831  13.653
23707SOL     OW73017  11.263   2.012   9.938
23707SOL    HW173018  11.198   2.077   9.965
23707SOL    HW273019  11.329   2.062   9.889
23708SOL     OW73020  10.576   1.564  11.678
23708SOL    HW173021  10.640   1.611  11.624
23708SOL    HW273022  10.606   1.473  11.677
23709SOL     OW73023   4.511   3.649   0.959
23709SOL    HW173024   4.603   3.623   0.959
23709SOL    HW273025   4.486   3.648   0.867
23710SOL     OW73026   3.395  10.081  12.434
23710SOL    HW173027   3.356  10.132  12.504
23710SOL    HW273028   3.431  10.146  12.374
23711SOL     OW73029   4.502  11.740   8.525
23711SOL    HW173030   4.417  11.707   8.495
23711SOL    HW273031   4.553  11.753   8.445
23712SOL     OW73032   2.730   1.946   4.045
23712SOL    HW173033   2.691   1.893   4.115
23712SOL    HW273034   2.666   2.015   4.030
23713SOL     OW73035  14.088   4.686   3.353
23713SOL    HW173036  13.993   4.677   3.367
23713SOL    HW273037  14.119   4.734   3.429
23714SOL     OW73038   6.022   0.863   5.466
23714SOL    HW173039   6.086   0.819   5.409
23714SOL    HW273040   6.041   0.830   5.553
23715SOL     OW73041   5.461   4.947   5.359
23715SOL    HW173042   5.483   4.856   5.340
23715SOL    HW273043   5.545   4.987   5.384
23716SOL     OW73044   2.705  12.432   4.494
23716SOL    HW173045   2.694  12.366   4.426
23716SOL    HW273046   2.671  12.513   4.455
23717SOL     OW73047   9.011  12.137  10.021
23717SOL    HW173048   8.935  12.168   9.970
23717SOL    HW273049   8.973  12.086  10.092
23718SOL     OW73050   1.924  13.391  10.760
23718SOL    HW173051   1.997  13.413  10.818
23718SOL    HW273052   1.961  13.330  10.696
23719SOL     OW73053   5.127   8.983  13.071
23719SOL    HW173054   5.162   8.927  13.141
23719SOL    HW273055   5.085   9.056  13.117
23720SOL     OW73056   0.617   5.093  14.179
23720SOL    HW173057   0.622   5.148  14.257
23720SOL    HW273058   0.547   5.032  14.197
23721SOL     OW73059   5.890   1.397   8.568
23721SOL    HW173060   5.842   1.457   8.511
23721SOL    HW273061   5.869   1.310   8.535
23722SOL     OW73062   6.977   9.636   2.965
23722SOL    HW173063   6.969   9.718   2.917
23722SOL    HW273064   7.021   9.576   2.905
23723SOL     OW73065  12.014  11.133   1.831
23723SOL    HW173066  11.992  11.213   1.878
23723SOL    HW273067  12.013  11.064   1.898
23724SOL     OW73068   2.786   8.291   6.789
23724SOL    HW173069   2.854   8.330   6.844
23724SOL    HW273070   2.752   8.218   6.841
23725SOL     OW73071   9.956  12.603   2.138
23725SOL    HW173072  10.051  12.612   2.129
23725SOL    HW273073   9.921  12.628   2.053
23726SOL     OW73074  13.440   5.288  14.167
23726SOL    HW173075  13.379   5.336  14.224
23726SOL    HW273076  13.469   5.353  14.103
23727SOL     OW73077   9.719   6.251  10.568
23727SOL    HW173078   9.640   6.268  10.620
23727SOL    HW273079   9.744   6.162  10.591
23728SOL     OW73080   6.389   2.158  12.538
23728SOL    HW173081   6.473   2.123  12.507
23728SOL    HW273082   6.399   2.165  12.633
23729SOL     OW73083  11.509  13.507   4.996
23729SOL    HW173084  11.479  13.597   4.996
23729SOL    HW273085  11.603  13.512   4.976
23730SOL     OW73086  11.921  10.347   2.745
23730SOL    HW173087  11.941  10.292   2.820
23730SOL    HW273088  11.937  10.436   2.775
23731SOL     OW73089   6.610   1.712   9.176
23731SOL    HW173090   6.689   1.709   9.230
23731SOL    HW273091   6.624   1.786   9.117
23732SOL     OW73092   3.016  11.490  12.496
23732SOL    HW173093   3.001  11.397  12.480
23732SOL    HW273094   3.055  11.494  12.583
23733SOL     OW73095   9.476   7.703   4.218
23733SOL    HW173096   9.564   7.688   4.252
23733SOL    HW273097   9.425   7.731   4.294
23734SOL     OW73098   2.414  13.503   9.827
23734SOL    HW173099   2.417  13.537   9.737
23734SOL    HW273100   2.410  13.408   9.817
23735SOL     OW73101  13.846   6.063  14.286
23735SOL    HW173102  13.759   6.033  14.313
23735SOL    HW273103  13.829   6.139  14.231
23736SOL     OW73104  11.366  12.335  11.096
23736SOL    HW173105  11.394  12.267  11.157
23736SOL    HW273106  11.435  12.338  11.030
23737SOL     OW73107   4.089   9.659   4.473
23737SOL    HW173108   4.109   9.657   4.380
23737SOL    HW273109   4.174   9.659   4.517
23738SOL     OW73110  14.352  14.371   3.509
23738SOL    HW173111  14.368  14.372   3.604
23738SOL    HW273112  14.439  14.359   3.471
23739SOL     OW73113   6.109   5.671   2.206
23739SOL    HW173114   6.113   5.621   2.124
23739SOL    HW273115   6.167   5.746   2.191
23740SOL     OW73116   9.437   3.542   5.135
23740SOL    HW173117   9.419   3.486   5.059
23740SOL    HW273118   9.531   3.532   5.150
23741SOL     OW73119   2.142   3.231   4.767
23741SOL    HW173120   2.095   3.153   4.738
23741SOL    HW273121   2.213   3.241   4.703
23742SOL     OW73122  14.204   7.804  10.284
23742SOL    HW173123  14.198   7.890  10.244
23742SOL    HW273124  14.272   7.813  10.352
23743SOL     OW73125   8.595   1.551   0.846
23743SOL    HW173126   8.514   1.508   0.874
23743SOL    HW273127   8.627   1.497   0.774
23744SOL     OW73128  14.851   8.894   8.865
23744SOL    HW173129   0.046   8.931   8.919
23744SOL    HW273130  14.820   8.967   8.813
23745SOL     OW73131  10.122   6.809   9.563
23745SOL    HW173132  10.072   6.781   9.639
23745SOL    HW273133  10.071   6.780   9.488
23746SOL     OW73134   2.744   4.887  14.418
23746SOL    HW173135   2.821   4.930  14.381
23746SOL    HW273136   2.764   4.877  14.511
23747SOL     OW73137  10.076   3.060   6.526
23747SOL    HW173138  10.159   3.097   6.554
23747SOL    HW273139  10.077   2.970   6.561
23748SOL     OW73140  14.417   1.178   4.907
23748SOL    HW173141  14.482   1.234   4.948
23748SOL    HW273142  14.398   1.111   4.972
23749SOL     OW73143   1.353   2.393   2.570
23749SOL    HW173144   1.376   2.309   2.529
23749SOL    HW273145   1.409   2.457   2.527
23750SOL     OW73146  12.728  14.586   9.629
23750SOL    HW173147  12.663  14.644   9.670
23750SOL    HW273148  12.794  14.573   9.697
23751SOL     OW73149   6.894  11.946  11.764
23751SOL    HW173150   6.894  11.994  11.682
23751SOL    HW273151   6.985  11.921  11.777
23752SOL     OW73152   3.803   0.164   4.748
23752SOL    HW173153   3.710   0.172   4.726
23752SOL    HW273154   3.805   0.118   4.832
23753SOL     OW73155   6.455  12.753   4.705
23753SOL    HW173156   6.485  12.815   4.639
23753SOL    HW273157   6.386  12.800   4.752
23754SOL     OW73158  13.224   5.110   4.162
23754SOL    HW173159  13.200   5.189   4.210
23754SOL    HW273160  13.247   5.047   4.231
23755SOL     OW73161  12.589  12.522  10.949
23755SOL    HW173162  12.629  12.493  10.867
23755SOL    HW273163  12.563  12.441  10.994
23756SOL     OW73164  12.897  13.026  12.774
23756SOL    HW173165  12.839  13.007  12.700
23756SOL    HW273166  12.936  13.111  12.752
23757SOL     OW73167  11.927  14.337   8.731
23757SOL    HW173168  11.855  14.389   8.695
23757SOL    HW273169  11.913  14.338   8.825
23758SOL     OW73170   0.309   6.732  13.971
23758SOL    HW173171   0.341   6.792  13.903
23758SOL    HW273172   0.234   6.777  14.009
23759SOL     OW73173   5.277   1.915   1.268
23759SOL    HW173174   5.219   1.924   1.192
23759SOL    HW273175   5.297   1.821   1.272
23760SOL     OW73176   6.138   8.862   3.362
23760SOL    HW173177   6.066   8.916   3.331
23760SOL    HW273178   6.217   8.913   3.343
23761SOL     OW73179  11.301   2.472   2.445
23761SOL    HW173180  11.279   2.559   2.411
23761SOL    HW273181  11.360   2.490   2.519
23762SOL     OW73182   7.164   8.042   9.293
23762SOL    HW173183   7.142   7.978   9.224
23762SOL    HW273184   7.110   8.118   9.272
23763SOL     OW73185   0.496   1.349   8.013
23763SOL    HW173186   0.565   1.338   8.079
23763SOL    HW273187   0.421   1.383   8.062
23764SOL     OW73188  12.004  14.331   7.003
23764SOL    HW173189  12.077  14.366   6.950
23764SOL    HW273190  11.975  14.253   6.955
23765SOL     OW73191  12.524   4.836  12.906
23765SOL    HW173192  12.431   4.834  12.886
23765SOL    HW273193  12.560   4.902  12.847
23766SOL     OW73194   2.926  14.749   4.596
23766SOL    HW173195   2.856  14.757   4.660
23766SOL    HW273196   2.891  14.788   4.516
23767SOL     OW73197  13.672   1.579   4.903
23767SOL    HW173198  13.623   1.646   4.855
23767SOL    HW273199  13.759   1.579   4.863
23768SOL     OW73200  14.260   1.759  11.848
23768SOL    HW173201  14.303   1.833  11.805
23768SOL    HW273202  14.167   1.783  11.849
23769SOL     OW73203  10.173   5.627  11.881
23769SOL    HW173204  10.244   5.627  11.945
23769SOL    HW273205  10.202   5.566  11.813
23770SOL     OW73206   1.108  13.308   9.810
23770SOL    HW173207   1.049  13.301   9.735
23770SOL    HW273208   1.186  13.350   9.775
23771SOL     OW73209   7.236   9.161   1.814
23771SOL    HW173210   7.329   9.183   1.824
23771SOL    HW273211   7.223   9.089   1.875
23772SOL     OW73212   2.714   9.537   5.789
23772SOL    HW173213   2.713   9.538   5.885
23772SOL    HW273214   2.797   9.494   5.767
23773SOL     OW73215   7.593   3.465   2.902
23773SOL    HW173216   7.584   3.421   2.818
23773SOL    HW273217   7.505   3.499   2.921
23774SOL     OW73218   6.035  13.551   3.726
23774SOL    HW173219   5.996  13.561   3.639
23774SOL    HW273220   6.069  13.462   3.727
23775SOL     OW73221   1.955  11.044   8.053
23775SOL    HW173222   1.868  11.050   8.092
23775SOL    HW273223   1.941  11.057   7.959
23776SOL     OW73224  13.124   5.442   4.626
23776SOL    HW173225  13.063   5.462   4.555
23776SOL    HW273226  13.147   5.527   4.663
23777SOL     OW73227  10.721   2.019  11.982
23777SOL    HW173228  10.790   2.009  11.916
23777SOL    HW273229  10.678   1.933  11.985
23778SOL     OW73230   7.595   2.570  10.223
23778SOL    HW173231   7.586   2.480  10.191
23778SOL    HW273232   7.518   2.583  10.279
23779SOL     OW73233   0.532   0.315   6.988
23779SOL    HW173234   0.575   0.391   7.026
23779SOL    HW273235   0.521   0.254   7.061
23780SOL     OW73236  14.104   4.376  12.743
23780SOL    HW173237  14.111   4.346  12.652
23780SOL    HW273238  14.188   4.420  12.760
23781SOL     OW73239   0.049   1.470   6.902
23781SOL    HW173240   0.098   1.531   6.846
23781SOL    HW273241   0.038   1.392   6.847
23782SOL     OW73242   5.344  13.679   0.103
23782SOL    HW173243   5.274  13.724   0.150
23782SOL    HW273244   5.382  13.747   0.047
23783SOL     OW73245   5.853   5.739   2.887
23783SOL    HW173246   5.903   5.657   2.878
23783SOL    HW273247   5.778   5.727   2.829
23784SOL     OW73248   8.971  10.343  13.345
23784SOL    HW173249   8.888  10.296  13.339
23784SOL    HW273250   8.947  10.435  13.350
23785SOL     OW73251   1.572   2.616  10.321
23785SOL    HW173252   1.592   2.532  10.360
23785SOL    HW273253   1.644   2.632  10.260
23786SOL     OW73254  14.418   4.471   8.921
23786SOL    HW173255  14.364   4.428   8.987
23786SOL    HW273256  14.477   4.527   8.972
23787SOL     OW73257   0.508   9.581   1.838
23787SOL    HW173258   0.541   9.671   1.846
23787SOL    HW273259   0.540   9.551   1.753
23788SOL     OW73260   7.078   2.278  13.547
23788SOL    HW173261   7.029   2.360  13.546
23788SOL    HW273262   7.056   2.238  13.631
23789SOL     OW73263   2.452   1.110  14.579
23789SOL    HW173264   2.434   1.120  14.486
23789SOL    HW273265   2.405   1.030  14.604
23790SOL     OW73266  10.101  10.922  13.758
23790SOL    HW173267  10.033  10.976  13.717
23790SOL    HW273268  10.053  10.867  13.821
23791SOL     OW73269   9.918   6.447   3.560
23791SOL    HW173270   9.957   6.529   3.529
23791SOL    HW273271   9.899   6.397   3.481
23792SOL     OW73272   0.438   4.723   5.787
23792SOL    HW173273   0.364   4.779   5.810
23792SOL    HW273274   0.477   4.699   5.871
23793SOL     OW73275  11.044  13.958  12.920
23793SOL    HW173276  11.026  14.045  12.955
23793SOL    HW273277  10.975  13.941  12.857
23794SOL     OW73278   0.404   1.022   9.187
23794SOL    HW173279   0.345   1.022   9.262
23794SOL    HW273280   0.372   1.093   9.131
23795SOL     OW73281   6.092   4.130  13.130
23795SOL    HW173282   6.000   4.115  13.111
23795SOL    HW273283   6.107   4.221  13.104
23796SOL     OW73284   9.489  11.737  12.734
23796SOL    HW173285   9.425  11.804  12.711
23796SOL    HW273286   9.439  11.672  12.783
23797SOL     OW73287  14.303   5.210   7.216
23797SOL    HW173288  14.369   5.278   7.204
23797SOL    HW273289  14.308   5.157   7.137
23798SOL     OW73290   5.446  10.308   5.772
23798SOL    HW173291   5.465  10.398   5.747
23798SOL    HW273292   5.529  10.274   5.804
23799SOL     OW73293   3.245   0.653   8.664
23799SOL    HW173294   3.234   0.571   8.616
23799SOL    HW273295   3.164   0.702   8.647
23800SOL     OW73296  10.053   0.499  11.129
23800SOL    HW173297  10.023   0.430  11.188
23800SOL    HW273298  10.148   0.504  11.143
23801SOL     OW73299   0.891   3.521  14.162
23801SOL    HW173300   0.949   3.489  14.093
23801SOL    HW273301   0.881   3.446  14.221
23802SOL     OW73302  14.506  11.829   0.517
23802SOL    HW173303  14.448  11.862   0.448
23802SOL    HW273304  14.590  11.871   0.500
23803SOL     OW73305   2.907   4.927   6.523
23803SOL    HW173306   2.979   4.919   6.586
23803SOL    HW273307   2.941   4.985   6.454
23804SOL     OW73308  12.050   5.893  11.875
23804SOL    HW173309  12.045   5.965  11.937
23804SOL    HW273310  12.071   5.933  11.791
23805SOL     OW73311  13.094  12.216   8.008
23805SOL    HW173312  13.095  12.269   8.088
23805SOL    HW273313  13.036  12.142   8.028
23806SOL     OW73314  12.295   7.414  12.019
23806SOL    HW173315  12.328   7.417  12.109
23806SOL    HW273316  12.309   7.502  11.986
23807SOL     OW73317  10.842   9.833   1.780
23807SOL    HW173318  10.752   9.863   1.768
23807SOL    HW273319  10.883   9.845   1.695
23808SOL     OW73320   1.278   8.887   0.932
23808SOL    HW173321   1.238   8.966   0.896
23808SOL    HW273322   1.324   8.917   1.011
23809SOL     OW73323   1.472  13.143   6.554
23809SOL    HW173324   1.508  13.170   6.469
23809SOL    HW273325   1.513  13.057   6.570
23810SOL     OW73326   4.501   0.919   2.557
23810SOL    HW173327   4.468   0.890   2.473
23810SOL    HW273328   4.552   0.998   2.537
23811SOL     OW73329   3.935   5.062  14.496
23811SOL    HW173330   4.002   5.085  14.559
23811SOL    HW273331   3.946   5.124  14.424
23812SOL     OW73332  10.240  11.362   8.268
23812SOL    HW173333  10.260  11.390   8.179
23812SOL    HW273334  10.291  11.421   8.324
23813SOL     OW73335   6.001  14.207   8.964
23813SOL    HW173336   5.998  14.277   9.030
23813SOL    HW273337   5.921  14.220   8.913
23814SOL     OW73338   4.903   4.100  10.083
23814SOL    HW173339   4.900   4.021  10.138
23814SOL    HW273340   4.815   4.137  10.091
23815SOL     OW73341  13.229  11.235  13.193
23815SOL    HW173342  13.182  11.161  13.229
23815SOL    HW273343  13.224  11.303  13.260
23816SOL     OW73344   7.496   4.265   5.206
23816SOL    HW173345   7.488   4.192   5.267
23816SOL    HW273346   7.591   4.280   5.199
23817SOL     OW73347  10.211   3.906   4.645
23817SOL    HW173348  10.252   3.985   4.680
23817SOL    HW273349  10.120   3.912   4.674
23818SOL     OW73350  12.964  13.479   6.248
23818SOL    HW173351  12.880  13.504   6.211
23818SOL    HW273352  12.992  13.556   6.297
23819SOL     OW73353  11.223   2.875   0.329
23819SOL    HW173354  11.272   2.909   0.404
23819SOL    HW273355  11.250   2.783   0.322
23820SOL     OW73356   5.581   0.120   2.753
23820SOL    HW173357   5.552   0.029   2.751
23820SOL    HW273358   5.662   0.120   2.702
23821SOL     OW73359  10.763   1.339  10.627
23821SOL    HW173360  10.726   1.382  10.705
23821SOL    HW273361  10.772   1.247  10.652
23822SOL     OW73362  12.531  14.568   6.501
23822SOL    HW173363  12.549  14.555   6.594
23822SOL    HW273364  12.596  14.634   6.473
23823SOL     OW73365   8.805   4.027  12.653
23823SOL    HW173366   8.796   4.018  12.558
23823SOL    HW273367   8.803   4.121  12.668
23824SOL     OW73368  13.590   1.238   0.019
23824SOL    HW173369  13.592   1.220  14.800
23824SOL    HW273370  13.576   1.152   0.060
23825SOL     OW73371   5.183   0.409  12.644
23825SOL    HW173372   5.184   0.409  12.548
23825SOL    HW273373   5.246   0.341  12.668
23826SOL     OW73374  14.684   2.542   9.407
23826SOL    HW173375  14.748   2.588   9.353
23826SOL    HW273376  14.727   2.531   9.491
23827SOL     OW73377  12.545  13.006   0.117
23827SOL    HW173378  12.472  12.975   0.171
23827SOL    HW273379  12.546  12.946   0.042
23828SOL     OW73380  13.939   3.941  10.891
23828SOL    HW173381  13.906   3.851  10.896
23828SOL    HW273382  14.033   3.932  10.909
23829SOL     OW73383  14.302  10.993   0.556
23829SOL    HW173384  14.362  10.972   0.627
23829SOL    HW273385  14.254  11.070   0.587
23830SOL     OW73386   6.618  14.858   0.519
23830SOL    HW173387   6.523  14.868   0.521
23830SOL    HW273388   6.638  14.806   0.597
23831SOL     OW73389   8.168  13.584   7.777
23831SOL    HW173390   8.173  13.627   7.862
23831SOL    HW273391   8.243  13.524   7.775
23832SOL     OW73392   0.625   8.649   6.551
23832SOL    HW173393   0.621   8.558   6.523
23832SOL    HW273394   0.700   8.654   6.609
23833SOL     OW73395   8.265   5.879   7.991
23833SOL    HW173396   8.173   5.889   7.967
23833SOL    HW273397   8.264   5.821   8.067
23834SOL     OW73398   2.586   7.636   7.675
23834SOL    HW173399   2.516   7.628   7.609
23834SOL    HW273400   2.547   7.600   7.755
23835SOL     OW73401  12.745  14.359   5.950
23835SOL    HW173402  12.735  14.264   5.958
23835SOL    HW273403  12.769  14.373   5.858
23836SOL     OW73404   5.667   6.882  11.371
23836SOL    HW173405   5.720   6.960  11.386
23836SOL    HW273406   5.722   6.810  11.402
23837SOL     OW73407   5.770   6.262   1.304
23837SOL    HW173408   5.771   6.247   1.398
23837SOL    HW273409   5.844   6.321   1.289
23838SOL     OW73410   6.505   4.059   0.538
23838SOL    HW173411   6.416   4.071   0.507
23838SOL    HW273412   6.500   3.988   0.602
23839SOL     OW73413   7.876  11.680  11.905
23839SOL    HW173414   7.824  11.759  11.893
23839SOL    HW273415   7.824  11.611  11.862
23840SOL     OW73416   8.169   0.514  12.001
23840SOL    HW173417   8.141   0.434  12.046
23840SOL    HW273418   8.264   0.504  11.992
23841SOL     OW73419  11.827  13.636   9.695
23841SOL    HW173420  11.788  13.614   9.611
23841SOL    HW273421  11.771  13.706   9.730
23842SOL     OW73422   6.531  10.166   3.097
23842SOL    HW173423   6.482  10.224   3.154
23842SOL    HW273424   6.488  10.081   3.105
23843SOL     OW73425   3.201   3.705   8.578
23843SOL    HW173426   3.269   3.671   8.636
23843SOL    HW273427   3.203   3.800   8.593
23844SOL     OW73428   1.002  10.759   1.115
23844SOL    HW173429   1.044  10.737   1.198
23844SOL    HW273430   0.938  10.827   1.138
23845SOL     OW73431   3.119  14.514   2.036
23845SOL    HW173432   3.076  14.453   1.976
23845SOL    HW273433   3.165  14.576   1.979
23846SOL     OW73434   2.384   4.849  13.481
23846SOL    HW173435   2.448   4.918  13.498
23846SOL    HW273436   2.304   4.896  13.457
23847SOL     OW73437   7.207   8.505  11.742
23847SOL    HW173438   7.180   8.573  11.803
23847SOL    HW273439   7.298   8.486  11.767
23848SOL     OW73440   0.232   9.870  13.874
23848SOL    HW173441   0.232   9.812  13.798
23848SOL    HW273442   0.257   9.814  13.947
23849SOL     OW73443   3.282  11.903   1.189
23849SOL    HW173444   3.200  11.880   1.145
23849SOL    HW273445   3.264  11.985   1.234
23850SOL     OW73446   2.108  14.583   3.085
23850SOL    HW173447   2.028  14.590   3.032
23850SOL    HW273448   2.168  14.645   3.044
23851SOL     OW73449   0.998   4.895   2.523
23851SOL    HW173450   1.049   4.935   2.593
23851SOL    HW273451   0.935   4.963   2.498
23852SOL     OW73452  13.799   0.692   1.538
23852SOL    HW173453  13.801   0.611   1.488
23852SOL    HW273454  13.874   0.742   1.506
23853SOL     OW73455   6.451   1.351   7.178
23853SOL    HW173456   6.415   1.303   7.103
23853SOL    HW273457   6.541   1.318   7.186
23854SOL     OW73458   8.611   9.188  13.359
23854SOL    HW173459   8.594   9.114  13.417
23854SOL    HW273460   8.593   9.266  13.413
23855SOL     OW73461   6.242   2.307   3.151
23855SOL    HW173462   6.238   2.321   3.056
23855SOL    HW273463   6.327   2.341   3.177
23856SOL     OW73464   1.337  11.257   4.962
23856SOL    HW173465   1.420  11.280   5.002
23856SOL    HW273466   1.294  11.201   5.026
23857SOL     OW73467   2.133   5.454   0.497
23857SOL    HW173468   2.222   5.429   0.522
23857SOL    HW273469   2.122   5.543   0.531
23858SOL     OW73470  14.201   2.803  12.578
23858SOL    HW173471  14.198   2.750  12.657
23858SOL    HW273472  14.208   2.740  12.507
23859SOL     OW73473   6.294   9.424   6.804
23859SOL    HW173474   6.345   9.404   6.883
23859SOL    HW273475   6.234   9.350   6.795
23860SOL     OW73476  11.018   0.194  10.419
23860SOL    HW173477  10.996   0.222  10.330
23860SOL    HW273478  10.934   0.185  10.464
23861SOL     OW73479   8.097  14.019   1.968
23861SOL    HW173480   8.119  14.111   1.958
23861SOL    HW273481   8.095  14.004   2.062
23862SOL     OW73482   8.583   4.072  12.159
23862SOL    HW173483   8.648   4.103  12.096
23862SOL    HW273484   8.602   3.979  12.170
23863SOL     OW73485  10.308   6.149   1.151
23863SOL    HW173486  10.324   6.142   1.057
23863SOL    HW273487  10.268   6.066   1.175
23864SOL     OW73488   2.914   4.279  11.606
23864SOL    HW173489   2.834   4.274  11.554
23864SOL    HW273490   2.949   4.189  11.603
23865SOL     OW73491  11.974   1.826   1.573
23865SOL    HW173492  11.911   1.754   1.568
23865SOL    HW273493  12.019   1.825   1.489
23866SOL     OW73494   3.743   7.798  11.449
23866SOL    HW173495   3.689   7.877  11.457
23866SOL    HW273496   3.716   7.744  11.524
23867SOL     OW73497   2.040   6.198   3.117
23867SOL    HW173498   2.028   6.292   3.125
23867SOL    HW273499   1.976   6.171   3.052
23868SOL     OW73500   2.553   8.235   8.085
23868SOL    HW173501   2.484   8.172   8.105
23868SOL    HW273502   2.634   8.192   8.113
23869SOL     OW73503   4.017  10.618   6.658
23869SOL    HW173504   3.955  10.615   6.585
23869SOL    HW273505   4.038  10.527   6.676
23870SOL     OW73506   7.204   4.662   1.424
23870SOL    HW173507   7.136   4.595   1.431
23870SOL    HW273508   7.286   4.614   1.435
23871SOL     OW73509   9.629  14.841   7.414
23871SOL    HW173510   9.548  14.875   7.452
23871SOL    HW273511   9.601  14.768   7.358
23872SOL     OW73512  12.028   6.610   2.610
23872SOL    HW173513  11.976   6.595   2.531
23872SOL    HW273514  12.072   6.694   2.594
23873SOL     OW73515   5.242   3.958   6.509
23873SOL    HW173516   5.276   4.045   6.487
23873SOL    HW273517   5.189   3.972   6.588
23874SOL     OW73518   3.149  13.388   9.308
23874SOL    HW173519   3.147  13.459   9.373
23874SOL    HW273520   3.132  13.432   9.224
23875SOL     OW73521   3.208   2.776   5.976
23875SOL    HW173522   3.289   2.729   5.956
23875SOL    HW273523   3.142   2.708   5.980
23876SOL     OW73524  10.720   1.943   0.268
23876SOL    HW173525  10.704   2.018   0.325
23876SOL    HW273526  10.765   1.979   0.193
23877SOL     OW73527   6.237   8.420   5.646
23877SOL    HW173528   6.168   8.402   5.581
23877SOL    HW273529   6.313   8.371   5.615
23878SOL     OW73530  10.482  10.353   9.564
23878SOL    HW173531  10.403  10.380   9.518
23878SOL    HW273532  10.467  10.381   9.655
23879SOL     OW73533   6.102  11.583   4.463
23879SOL    HW173534   6.115  11.508   4.406
23879SOL    HW273535   6.042  11.640   4.415
23880SOL     OW73536   8.163  12.655  10.831
23880SOL    HW173537   8.241  12.620  10.874
23880SOL    HW273538   8.145  12.592  10.761
23881SOL     OW73539  13.914   2.054   4.158
23881SOL    HW173540  13.839   1.994   4.162
23881SOL    HW273541  13.933   2.062   4.065
23882SOL     OW73542   6.271  12.746   0.150
23882SOL    HW173543   6.274  12.821   0.209
23882SOL    HW273544   6.203  12.689   0.185
23883SOL     OW73545   2.571  10.830   3.254
23883SOL    HW173546   2.488  10.861   3.289
23883SOL    HW273547   2.548  10.782   3.174
23884SOL     OW73548  12.755   2.389   4.982
23884SOL    HW173549  12.725   2.303   5.012
23884SOL    HW273550  12.850   2.380   4.976
23885SOL     OW73551  11.333   0.472   4.717
23885SOL    HW173552  11.302   0.435   4.634
23885SOL    HW273553  11.399   0.536   4.691
23886SOL     OW73554  12.944  12.526   7.385
23886SOL    HW173555  13.037  12.518   7.365
23886SOL    HW273556  12.927  12.621   7.383
23887SOL     OW73557   2.537  14.769  13.505
23887SOL    HW173558   2.468  14.835  13.517
23887SOL    HW273559   2.499  14.689  13.541
23888SOL     OW73560   3.312   4.854   5.311
23888SOL    HW173561   3.269   4.854   5.396
23888SOL    HW273562   3.405   4.866   5.332
23889SOL     OW73563   1.004   2.927  11.479
23889SOL    HW173564   1.021   2.841  11.519
23889SOL    HW273565   0.912   2.944  11.499
23890SOL     OW73566   6.273   9.368   8.760
23890SOL    HW173567   6.351   9.414   8.731
23890SOL    HW273568   6.292   9.345   8.852
23891SOL     OW73569   0.648   6.561  12.352
23891SOL    HW173570   0.626   6.633  12.412
23891SOL    HW273571   0.568   6.508  12.349
23892SOL     OW73572  13.095   1.694   9.777
23892SOL    HW173573  13.067   1.771   9.827
23892SOL    HW273574  13.029   1.685   9.709
23893SOL     OW73575  10.401   4.213  11.131
23893SOL    HW173576  10.465   4.274  11.095
23893SOL    HW273577  10.419   4.213  11.225
23894SOL     OW73578   7.085   5.806   4.191
23894SOL    HW173579   7.026   5.743   4.150
23894SOL    HW273580   7.144   5.833   4.121
23895SOL     OW73581   3.896   0.364   6.063
23895SOL    HW173582   3.841   0.432   6.101
23895SOL    HW273583   3.898   0.384   5.969
23896SOL     OW73584   7.666  10.728   6.919
23896SOL    HW173585   7.623  10.777   6.989
23896SOL    HW273586   7.603  10.660   6.895
23897SOL     OW73587   9.760   3.357   8.891
23897SOL    HW173588   9.743   3.297   8.964
23897SOL    HW273589   9.679   3.354   8.839
23898SOL     OW73590   3.371   2.076   9.854
23898SOL    HW173591   3.322   1.996   9.834
23898SOL    HW273592   3.462   2.053   9.834
23899SOL     OW73593  13.481   3.888   7.056
23899SOL    HW173594  13.447   3.816   7.110
23899SOL    HW273595  13.547   3.847   7.000
23900SOL     OW73596   3.362   3.733  11.398
23900SOL    HW173597   3.302   3.771  11.334
23900SOL    HW273598   3.429   3.689  11.345
23901SOL     OW73599   0.804   4.070  10.208
23901SOL    HW173600   0.742   4.024  10.152
23901SOL    HW273601   0.801   4.161  10.178
23902SOL     OW73602   5.967   8.447   2.071
23902SOL    HW173603   6.033   8.450   2.002
23902SOL    HW273604   5.887   8.480   2.030
23903SOL     OW73605  14.525   8.642   8.838
23903SOL    HW173606  14.548   8.693   8.760
23903SOL    HW273607  14.560   8.555   8.820
23904SOL     OW73608  10.594  11.207  12.824
23904SOL    HW173609  10.619  11.237  12.736
23904SOL    HW273610  10.635  11.271  12.883
23905SOL     OW73611  14.314   6.350  12.110
23905SOL    HW173612  14.326   6.372  12.203
23905SOL    HW273613  14.323   6.433  12.064
23906SOL     OW73614  12.475   2.661  14.625
23906SOL    HW173615  12.502   2.707  14.704
23906SOL    HW273616  12.421   2.589  14.656
23907SOL     OW73617   5.711   6.068   5.495
23907SOL    HW173618   5.745   6.065   5.405
23907SOL    HW273619   5.712   5.976   5.524
23908SOL     OW73620  14.014   6.427  13.567
23908SOL    HW173621  14.038   6.421  13.474
23908SOL    HW273622  14.004   6.520  13.583
23909SOL     OW73623   4.243   6.520  10.505
23909SOL    HW173624   4.268   6.468  10.582
23909SOL    HW273625   4.204   6.456  10.445
23910SOL     OW73626   3.212  13.975  13.989
23910SOL    HW173627   3.222  13.960  13.895
23910SOL    HW273628   3.277  14.043  14.010
23911SOL     OW73629  13.429   1.481   9.358
23911SOL    HW173630  13.421   1.572   9.332
23911SOL    HW273631  13.346   1.441   9.332
23912SOL     OW73632   7.574   4.518   9.521
23912SOL    HW173633   7.568   4.429   9.488
23912SOL    HW273634   7.565   4.573   9.443
23913SOL     OW73635  12.864  11.046  12.341
23913SOL    HW173636  12.847  11.140  12.332
23913SOL    HW273637  12.925  11.026  12.270
23914SOL     OW73638   1.120   4.383   5.136
23914SOL    HW173639   1.177   4.310   5.111
23914SOL    HW273640   1.175   4.439   5.191
23915SOL     OW73641   3.001   4.176  13.674
23915SOL    HW173642   2.978   4.083  13.677
23915SOL    HW273643   2.922   4.219  13.640
23916SOL     OW73644   1.931  13.799   3.331
23916SOL    HW173645   1.876  13.744   3.386
23916SOL    HW273646   1.989  13.845   3.392
23917SOL     OW73647   8.369  13.409   0.615
23917SOL    HW173648   8.393  13.319   0.593
23917SOL    HW273649   8.369  13.454   0.531
23918SOL     OW73650   6.482  11.485   6.787
23918SOL    HW173651   6.458  11.435   6.709
23918SOL    HW273652   6.419  11.458   6.853
23919SOL     OW73653  14.665  12.844   3.792
23919SOL    HW173654  14.575  12.876   3.804
23919SOL    HW273655  14.719  12.922   3.799
23920SOL     OW73656   1.357   2.312   5.362
23920SOL    HW173657   1.439   2.280   5.325
23920SOL    HW273658   1.296   2.309   5.288
23921SOL     OW73659   1.727   8.862   6.143
23921SOL    HW173660   1.818   8.837   6.157
23921SOL    HW273661   1.679   8.823   6.216
23922SOL     OW73662   7.182   5.097   5.068
23922SOL    HW173663   7.166   5.119   4.976
23922SOL    HW273664   7.277   5.100   5.077
23923SOL     OW73665  12.017   5.920   6.827
23923SOL    HW173666  11.976   6.002   6.852
23923SOL    HW273667  12.111   5.936   6.840
23924SOL     OW73668  13.763   5.368  10.224
23924SOL    HW173669  13.752   5.281  10.262
23924SOL    HW273670  13.777   5.425  10.299
23925SOL     OW73671   5.387   4.965   4.771
23925SOL    HW173672   5.325   4.922   4.829
23925SOL    HW273673   5.361   4.939   4.682
23926SOL     OW73674  11.901   1.398  11.381
23926SOL    HW173675  11.812   1.372  11.358
23926SOL    HW273676  11.938   1.430  11.299
23927SOL     OW73677   2.740   4.768   1.467
23927SOL    HW173678   2.736   4.862   1.484
23927SOL    HW273679   2.651   4.745   1.439
23928SOL     OW73680   2.876   2.854   9.734
23928SOL    HW173681   2.937   2.785   9.707
23928SOL    HW273682   2.919   2.897   9.808
23929SOL     OW73683   8.940   0.153   9.159
23929SOL    HW173684   8.939   0.062   9.188
23929SOL    HW273685   9.033   0.171   9.142
23930SOL     OW73686  13.927   4.097   7.648
23930SOL    HW173687  13.931   4.004   7.669
23930SOL    HW273688  13.906   4.140   7.730
23931SOL     OW73689   4.418   7.174   8.737
23931SOL    HW173690   4.346   7.228   8.768
23931SOL    HW273691   4.421   7.101   8.798
23932SOL     OW73692   5.548  11.176   2.770
23932SOL    HW173693   5.471  11.213   2.814
23932SOL    HW273694   5.511  11.124   2.699
23933SOL     OW73695   3.883   1.286   2.081
23933SOL    HW173696   3.849   1.290   2.170
23933SOL    HW273697   3.822   1.228   2.034
23934SOL     OW73698   1.001   3.585   0.694
23934SOL    HW173699   0.953   3.655   0.739
23934SOL    HW273700   0.952   3.505   0.715
23935SOL     OW73701   9.940   4.776  13.904
23935SOL    HW173702   9.981   4.695  13.873
23935SOL    HW273703   9.959   4.840  13.836
23936SOL     OW73704   3.309   6.428   3.152
23936SOL    HW173705   3.354   6.493   3.098
23936SOL    HW273706   3.375   6.359   3.164
23937SOL     OW73707  12.959  13.545   5.662
23937SOL    HW173708  12.954  13.639   5.682
23937SOL    HW273709  13.003  13.542   5.577
23938SOL     OW73710   8.884  13.780   9.316
23938SOL    HW173711   8.816  13.714   9.298
23938SOL    HW273712   8.835  13.858   9.342
23939SOL     OW73713   3.384  12.369   2.483
23939SOL    HW173714   3.344  12.407   2.561
23939SOL    HW273715   3.333  12.289   2.467
23940SOL     OW73716   5.826   7.711  11.032
23940SOL    HW173717   5.834   7.616  11.038
23940SOL    HW273718   5.864   7.733  10.947
23941SOL     OW73719  12.309   7.074   6.202
23941SOL    HW173720  12.387   7.034   6.242
23941SOL    HW273721  12.240   7.062   6.267
23942SOL     OW73722   6.929   9.277  11.677
23942SOL    HW173723   6.979   9.290  11.758
23942SOL    HW273724   6.838   9.270  11.706
23943SOL     OW73725   5.873  11.263   3.133
23943SOL    HW173726   5.840  11.173   3.128
23943SOL    HW273727   5.956  11.255   3.181
23944SOL     OW73728   8.976  11.688  12.487
23944SOL    HW173729   8.954  11.761  12.544
23944SOL    HW273730   9.019  11.625  12.545
23945SOL     OW73731   3.057  12.024   0.993
23945SOL    HW173732   3.090  12.099   1.042
23945SOL    HW273733   3.056  12.054   0.902
23946SOL     OW73734   6.274   4.731  10.152
23946SOL    HW173735   6.269   4.815  10.196
23946SOL    HW273736   6.305   4.670  10.218
23947SOL     OW73737  12.928   3.364   9.035
23947SOL    HW173738  12.942   3.361   9.130
23947SOL    HW273739  12.900   3.276   9.012
23948SOL     OW73740   7.694   7.583   1.383
23948SOL    HW173741   7.740   7.586   1.467
23948SOL    HW273742   7.624   7.518   1.396
23949SOL     OW73743   4.184  10.389  10.520
23949SOL    HW173744   4.164  10.416  10.610
23949SOL    HW273745   4.099  10.366  10.482
23950SOL     OW73746   3.037   4.784  10.837
23950SOL    HW173747   3.105   4.816  10.778
23950SOL    HW273748   2.982   4.728  10.782
23951SOL     OW73749   7.271   6.259   4.053
23951SOL    HW173750   7.295   6.185   4.109
23951SOL    HW273751   7.318   6.333   4.090
23952SOL     OW73752   9.828   7.651   8.022
23952SOL    HW173753   9.822   7.613   7.934
23952SOL    HW273754   9.739   7.680   8.042
23953SOL     OW73755   1.292  13.969   7.368
23953SOL    HW173756   1.362  14.017   7.325
23953SOL    HW273757   1.336  13.893   7.407
23954SOL     OW73758   7.644   0.730   1.781
23954SOL    HW173759   7.730   0.703   1.815
23954SOL    HW273760   7.590   0.651   1.788
23955SOL     OW73761   2.312   8.257   1.753
23955SOL    HW173762   2.378   8.228   1.816
23955SOL    HW273763   2.237   8.282   1.806
23956SOL     OW73764   8.178  10.212  11.725
23956SOL    HW173765   8.126  10.138  11.754
23956SOL    HW273766   8.180  10.203  11.629
23957SOL     OW73767  10.232   1.937   3.800
23957SOL    HW173768  10.159   1.913   3.857
23957SOL    HW273769  10.199   1.924   3.711
23958SOL     OW73770   2.154   5.201   8.143
23958SOL    HW173771   2.230   5.229   8.092
23958SOL    HW273772   2.081   5.207   8.082
23959SOL     OW73773   7.920   3.793   6.176
23959SOL    HW173774   7.924   3.863   6.111
23959SOL    HW273775   8.007   3.793   6.217
23960SOL     OW73776   5.477  14.384  10.342
23960SOL    HW173777   5.441  14.297  10.358
23960SOL    HW273778   5.559  14.386  10.391
23961SOL     OW73779   8.176   7.299  14.457
23961SOL    HW173780   8.100   7.243  14.472
23961SOL    HW273781   8.155   7.381  14.501
23962SOL     OW73782   1.393  14.859  14.078
23962SOL    HW173783   1.430  14.867  14.166
23962SOL    HW273784   1.466  14.825  14.025
23963SOL     OW73785   1.013  12.586  14.329
23963SOL    HW173786   0.984  12.655  14.269
23963SOL    HW273787   0.932  12.542  14.355
23964SOL     OW73788   3.226   2.472   4.437
23964SOL    HW173789   3.226   2.470   4.341
23964SOL    HW273790   3.312   2.439   4.462
23965SOL     OW73791   4.876   2.385  11.622
23965SOL    HW173792   4.821   2.458  11.594
23965SOL    HW273793   4.966   2.415  11.608
23966SOL     OW73794  11.828  13.833  10.501
23966SOL    HW173795  11.818  13.758  10.560
23966SOL    HW273796  11.740  13.870  10.496
23967SOL     OW73797  10.228  13.600   7.228
23967SOL    HW173798  10.155  13.568   7.176
23967SOL    HW273799  10.257  13.679   7.184
23968SOL     OW73800  12.545   8.703   0.515
23968SOL    HW173801  12.637   8.716   0.539
23968SOL    HW273802  12.546   8.688   0.421
23969SOL     OW73803  12.578   7.302   1.065
23969SOL    HW173804  12.575   7.273   0.974
23969SOL    HW273805  12.646   7.369   1.067
23970SOL     OW73806   2.855   0.078   8.605
23970SOL    HW173807   2.859   0.149   8.542
23970SOL    HW273808   2.908   0.107   8.679
23971SOL     OW73809   1.638   7.234  10.507
23971SOL    HW173810   1.619   7.228  10.601
23971SOL    HW273811   1.587   7.309  10.477
23972SOL     OW73812   7.014   1.121   0.102
23972SOL    HW173813   7.100   1.132   0.143
23972SOL    HW273814   7.014   1.185   0.031
23973SOL     OW73815   1.393   4.685   4.648
23973SOL    HW173816   1.399   4.663   4.555
23973SOL    HW273817   1.450   4.761   4.659
23974SOL     OW73818   8.525   5.676   6.255
23974SOL    HW173819   8.600   5.710   6.303
23974SOL    HW273820   8.503   5.594   6.300
23975SOL     OW73821   3.243   5.847   3.700
23975SOL    HW173822   3.186   5.849   3.623
23975SOL    HW273823   3.198   5.789   3.761
23976SOL     OW73824  10.969   9.440   6.931
23976SOL    HW173825  10.876   9.432   6.952
23976SOL    HW273826  11.007   9.487   7.006
23977SOL     OW73827   1.971   2.389  10.108
23977SOL    HW173828   1.920   2.347  10.177
23977SOL    HW273829   1.937   2.478  10.103
23978SOL     OW73830  13.672  11.166   2.762
23978SOL    HW173831  13.587  11.123   2.750
23978SOL    HW273832  13.651  11.259   2.767
23979SOL     OW73833  13.815   3.782   5.198
23979SOL    HW173834  13.908   3.774   5.175
23979SOL    HW273835  13.809   3.867   5.240
23980SOL     OW73836   3.630   6.936   5.449
23980SOL    HW173837   3.569   6.970   5.514
23980SOL    HW273838   3.603   6.976   5.367
23981SOL     OW73839   1.534   8.269   6.412
23981SOL    HW173840   1.470   8.250   6.481
23981SOL    HW273841   1.553   8.362   6.422
23982SOL     OW73842  14.216   5.682   2.039
23982SOL    HW173843  14.122   5.689   2.058
23982SOL    HW273844  14.223   5.602   1.987
23983SOL     OW73845  14.663  11.078   0.500
23983SOL    HW173846  14.615  11.039   0.574
23983SOL    HW273847  14.754  11.049   0.513
23984SOL     OW73848  14.171   9.606  13.376
23984SOL    HW173849  14.186   9.529  13.430
23984SOL    HW273850  14.233   9.597  13.304
23985SOL     OW73851   9.900   0.010   7.409
23985SOL    HW173852   9.903   0.084   7.349
23985SOL    HW273853   9.807  14.861   7.412
23986SOL     OW73854   1.521  11.460   5.850
23986SOL    HW173855   1.527  11.529   5.784
23986SOL    HW273856   1.485  11.385   5.802
23987SOL     OW73857   9.747   8.760   8.324
23987SOL    HW173858   9.713   8.682   8.369
23987SOL    HW273859   9.810   8.725   8.261
23988SOL     OW73860  12.742  10.615   4.766
23988SOL    HW173861  12.695  10.641   4.845
23988SOL    HW273862  12.690  10.649   4.694
23989SOL     OW73863   9.110   0.951   1.299
23989SOL    HW173864   9.133   0.879   1.357
23989SOL    HW273865   9.034   0.992   1.340
23990SOL     OW73866  11.783   5.348   4.352
23990SOL    HW173867  11.721   5.286   4.392
23990SOL    HW273868  11.735   5.432   4.351
23991SOL     OW73869  14.246   3.523  14.592
23991SOL    HW173870  14.324   3.551  14.545
23991SOL    HW273871  14.269   3.532  14.685
23992SOL     OW73872   6.737   6.264  12.002
23992SOL    HW173873   6.785   6.345  12.020
23992SOL    HW273874   6.647   6.283  12.030
23993SOL     OW73875   4.666   7.352   7.745
23993SOL    HW173876   4.686   7.391   7.830
23993SOL    HW273877   4.719   7.402   7.683
23994SOL     OW73878   2.480   6.258  11.568
23994SOL    HW173879   2.464   6.217  11.653
23994SOL    HW273880   2.501   6.349  11.588
23995SOL     OW73881   5.853  14.543   2.392
23995SOL    HW173882   5.903  14.503   2.463
23995SOL    HW273883   5.889  14.632   2.384
23996SOL     OW73884  13.895   3.231   2.025
23996SOL    HW173885  13.899   3.321   2.057
23996SOL    HW273886  13.969   3.188   2.068
23997SOL     OW73887   9.936   1.743   4.409
23997SOL    HW173888   9.887   1.784   4.480
23997SOL    HW273889   9.899   1.780   4.329
23998SOL     OW73890  14.836  10.319  12.226
23998SOL    HW173891  14.800  10.290  12.143
23998SOL    HW273892  14.840  10.415  12.219
23999SOL     OW73893   8.030   3.194   4.684
23999SOL    HW173894   8.029   3.228   4.595
23999SOL    HW273895   8.122   3.175   4.702
24000SOL     OW73896   2.427   5.240   4.494
24000SOL    HW173897   2.452   5.234   4.586
24000SOL    HW273898   2.332   5.252   4.496
24001SOL     OW73899  10.493   2.170  14.091
24001SOL    HW173900  10.412   2.220  14.105
24001SOL    HW273901  10.513   2.183  13.999
24002SOL     OW73902  10.168   6.705   2.200
24002SOL    HW173903  10.222   6.638   2.157
24002SOL    HW273904  10.132   6.661   2.277
24003SOL     OW73905  11.644   2.532  14.713
24003SOL    HW173906  11.581   2.540  14.642
24003SOL    HW273907  11.605   2.469  14.774
24004SOL     OW73908   4.984   2.589  11.055
24004SOL    HW173909   4.957   2.678  11.034
24004SOL    HW273910   5.062   2.599  11.109
24005SOL     OW73911  10.751   4.448  10.283
24005SOL    HW173912  10.778   4.420  10.195
24005SOL    HW273913  10.815   4.408  10.342
24006SOL     OW73914   9.583  11.796   5.516
24006SOL    HW173915   9.557  11.813   5.426
24006SOL    HW273916   9.667  11.752   5.510
24007SOL     OW73917  12.253  14.757  12.328
24007SOL    HW173918  12.190  14.826  12.345
24007SOL    HW273919  12.338  14.797  12.346
24008SOL     OW73920   1.336   8.992   8.842
24008SOL    HW173921   1.407   9.050   8.816
24008SOL    HW273922   1.292   8.969   8.760
24009SOL     OW73923   5.215   0.225  14.039
24009SOL    HW173924   5.292   0.228  14.095
24009SOL    HW273925   5.159   0.159  14.080
24010SOL     OW73926   4.246  11.333   3.811
24010SOL    HW173927   4.252  11.251   3.860
24010SOL    HW273928   4.259  11.308   3.720
24011SOL     OW73929   3.605  11.698  14.822
24011SOL    HW173930   3.697  11.680  14.844
24011SOL    HW273931   3.600  11.794  14.817
24012SOL     OW73932   8.422   9.569   4.744
24012SOL    HW173933   8.339   9.570   4.696
24012SOL    HW273934   8.418   9.491   4.799
24013SOL     OW73935   3.680   6.656   1.235
24013SOL    HW173936   3.701   6.596   1.307
24013SOL    HW273937   3.763   6.696   1.212
24014SOL     OW73938   3.962  14.193   2.187
24014SOL    HW173939   4.020  14.235   2.251
24014SOL    HW273940   3.913  14.265   2.147
24015SOL     OW73941  12.751  13.181   2.461
24015SOL    HW173942  12.700  13.256   2.491
24015SOL    HW273943  12.840  13.199   2.490
24016SOL     OW73944   4.132   6.669  11.442
24016SOL    HW173945   4.218   6.644  11.408
24016SOL    HW273946   4.122   6.616  11.521
24017SOL     OW73947  13.509  14.647   0.567
24017SOL    HW173948  13.434  14.671   0.620
24017SOL    HW273949  13.482  14.569   0.519
24018SOL     OW73950  10.178   3.589   9.155
24018SOL    HW173951  10.129   3.647   9.213
24018SOL    HW273952  10.163   3.501   9.188
24019SOL     OW73953  12.942   1.550  10.473
24019SOL    HW173954  12.865   1.599  10.503
24019SOL    HW273955  12.946   1.474  10.531
24020SOL     OW73956   6.063   4.922   8.444
24020SOL    HW173957   5.984   4.952   8.398
24020SOL    HW273958   6.066   4.977   8.523
24021SOL     OW73959  11.706  13.024   7.752
24021SOL    HW173960  11.680  12.968   7.825
24021SOL    HW273961  11.714  13.111   7.791
24022SOL     OW73962   6.067  14.002   4.988
24022SOL    HW173963   6.015  14.080   5.006
24022SOL    HW273964   6.152  14.019   5.029
24023SOL     OW73965   0.581   1.205   8.349
24023SOL    HW173966   0.642   1.278   8.359
24023SOL    HW273967   0.637   1.127   8.345
24024SOL     OW73968   1.378   5.508  13.221
24024SOL    HW173969   1.390   5.532  13.313
24024SOL    HW273970   1.336   5.584  13.181
24025SOL     OW73971   2.059   4.320  13.610
24025SOL    HW173972   2.047   4.225  13.615
24025SOL    HW273973   2.033   4.342  13.520
24026SOL     OW73974  14.583   8.391   6.571
24026SOL    HW173975  14.623   8.328   6.511
24026SOL    HW273976  14.510   8.343   6.611
24027SOL     OW73977   9.596   7.122  12.959
24027SOL    HW173978   9.591   7.179  13.036
24027SOL    HW273979   9.672   7.067  12.974
24028SOL     OW73980   8.631   7.537  10.763
24028SOL    HW173981   8.618   7.599  10.836
24028SOL    HW273982   8.544   7.504  10.743
24029SOL     OW73983   7.020   4.489   4.802
24029SOL    HW173984   6.977   4.432   4.865
24029SOL    HW273985   7.090   4.532   4.851
24030SOL     OW73986   9.996   7.841   3.777
24030SOL    HW173987   9.928   7.793   3.731
24030SOL    HW273988  10.068   7.847   3.713
24031SOL     OW73989   4.944   1.983   8.753
24031SOL    HW173990   4.959   2.025   8.838
24031SOL    HW273991   5.021   2.006   8.702
24032SOL     OW73992  10.460  11.824  10.454
24032SOL    HW173993  10.391  11.855  10.395
24032SOL    HW273994  10.425  11.839  10.542
24033SOL     OW73995  14.793  12.041  10.759
24033SOL    HW173996  14.707  12.074  10.733
24033SOL    HW273997  14.844  12.120  10.776
24034SOL     OW73998   6.056  10.243   7.584
24034SOL    HW173999   6.015  10.171   7.631
24034SOL    HW274000   6.079  10.207   7.499
24035SOL     OW74001   4.776  10.449  10.465
24035SOL    HW174002   4.828  10.491  10.534
24035SOL    HW274003   4.742  10.521  10.413
24036SOL     OW74004   6.193  11.695  11.696
24036SOL    HW174005   6.123  11.722  11.637
24036SOL    HW274006   6.216  11.606  11.668
24037SOL     OW74007   3.191  13.764  11.947
24037SOL    HW174008   3.237  13.681  11.933
24037SOL    HW274009   3.109  13.739  11.989
24038SOL     OW74010   2.806   0.700  11.385
24038SOL    HW174011   2.774   0.620  11.426
24038SOL    HW274012   2.820   0.760  11.458
24039SOL     OW74013   2.285   7.298   0.853
24039SOL    HW174014   2.267   7.334   0.940
24039SOL    HW274015   2.263   7.205   0.860
24040SOL     OW74016  10.602   9.895  13.411
24040SOL    HW174017  10.565   9.845  13.484
24040SOL    HW274018  10.630   9.978  13.449
24041SOL     OW74019   0.745  12.373   7.591
24041SOL    HW174020   0.783  12.459   7.604
24041SOL    HW274021   0.677  12.366   7.658
24042SOL     OW74022   4.777   1.191   2.868
24042SOL    HW174023   4.852   1.216   2.921
24042SOL    HW274024   4.799   1.105   2.833
24043SOL     OW74025   6.095  10.750  14.675
24043SOL    HW174026   6.160  10.810  14.711
24043SOL    HW274027   6.147  10.686  14.627
24044SOL     OW74028   4.648   1.167   7.402
24044SOL    HW174029   4.736   1.145   7.370
24044SOL    HW274030   4.627   1.249   7.359
24045SOL     OW74031  13.472   7.282   6.604
24045SOL    HW174032  13.471   7.371   6.640
24045SOL    HW274033  13.532   7.234   6.661
24046SOL     OW74034  13.020   7.487   7.213
24046SOL    HW174035  13.105   7.517   7.244
24046SOL    HW274036  13.006   7.534   7.131
24047SOL     OW74037   9.046  10.227   3.669
24047SOL    HW174038   9.127  10.255   3.712
24047SOL    HW274039   8.994  10.188   3.739
24048SOL     OW74040   9.943   4.949   5.029
24048SOL    HW174041   9.854   4.982   5.022
24048SOL    HW274042   9.939   4.880   5.095
24049SOL     OW74043  14.690   3.326   4.922
24049SOL    HW174044  14.655   3.367   4.844
24049SOL    HW274045  14.733   3.247   4.891
24050SOL     OW74046   6.161   4.059   4.619
24050SOL    HW174047   6.067   4.052   4.603
24050SOL    HW274048   6.194   3.970   4.603
24051SOL     OW74049   0.105   2.096   9.758
24051SOL    HW174050   0.031   2.146   9.724
24051SOL    HW274051   0.122   2.030   9.690
24052SOL     OW74052   7.691   4.968   3.770
24052SOL    HW174053   7.731   5.050   3.800
24052SOL    HW274054   7.749   4.899   3.802
24053SOL     OW74055  10.172  10.066   3.019
24053SOL    HW174056  10.174  10.058   3.115
24053SOL    HW274057  10.172  10.160   3.003
24054SOL     OW74058   7.989   9.417  12.836
24054SOL    HW174059   7.945   9.448  12.757
24054SOL    HW274060   8.082   9.421  12.813
24055SOL     OW74061   4.285   9.781   0.726
24055SOL    HW174062   4.217   9.846   0.712
24055SOL    HW274063   4.345   9.822   0.789
24056SOL     OW74064   7.058  14.166  10.706
24056SOL    HW174065   7.138  14.163  10.758
24056SOL    HW274066   6.988  14.162  10.771
24057SOL     OW74067  10.043  12.520   8.425
24057SOL    HW174068  10.111  12.584   8.404
24057SOL    HW274069   9.963  12.556   8.387
24058SOL     OW74070  10.557  13.728   3.933
24058SOL    HW174071  10.519  13.771   3.856
24058SOL    HW274072  10.618  13.792   3.969
24059SOL     OW74073   0.412  13.244   8.270
24059SOL    HW174074   0.391  13.333   8.239
24059SOL    HW274075   0.488  13.256   8.326
24060SOL     OW74076   6.200  12.252  13.510
24060SOL    HW174077   6.105  12.255  13.520
24060SOL    HW274078   6.234  12.291  13.591
24061SOL     OW74079   1.031  10.642   0.220
24061SOL    HW174080   0.960  10.585   0.189
24061SOL    HW274081   1.011  10.658   0.312
24062SOL     OW74082  10.987  12.217   1.975
24062SOL    HW174083  11.048  12.200   2.047
24062SOL    HW274084  10.935  12.137   1.968
24063SOL     OW74085   4.302   9.311  10.808
24063SOL    HW174086   4.246   9.235  10.788
24063SOL    HW274087   4.252   9.386  10.776
24064SOL     OW74088   7.980   8.400   3.072
24064SOL    HW174089   7.931   8.326   3.035
24064SOL    HW274090   8.064   8.398   3.027
24065SOL     OW74091   9.031  12.671  12.399
24065SOL    HW174092   8.983  12.592  12.375
24065SOL    HW274093   9.119  12.657  12.364
24066SOL     OW74094   7.050  13.475   5.100
24066SOL    HW174095   7.095  13.559   5.105
24066SOL    HW274096   6.964  13.496   5.065
24067SOL     OW74097   7.965   2.352  11.497
24067SOL    HW174098   7.906   2.427  11.487
24067SOL    HW274099   7.910   2.276  11.479
24068SOL     OW74100   7.047   8.717  11.262
24068SOL    HW174101   6.977   8.711  11.198
24068SOL    HW274102   7.119   8.665  11.224
24069SOL     OW74103  12.761   4.205   5.178
24069SOL    HW174104  12.701   4.277   5.197
24069SOL    HW274105  12.726   4.165   5.098
24070SOL     OW74106  14.869  10.853   5.634
24070SOL    HW174107  14.797  10.804   5.595
24070SOL    HW274108   0.011  10.923   5.571
24071SOL     OW74109   2.240   6.825  13.888
24071SOL    HW174110   2.184   6.818  13.965
24071SOL    HW274111   2.268   6.916  13.887
24072SOL     OW74112   7.148  12.621   1.464
24072SOL    HW174113   7.195  12.538   1.452
24072SOL    HW274114   7.067  12.595   1.509
24073SOL     OW74115   2.501   7.983  13.319
24073SOL    HW174116   2.503   7.903  13.373
24073SOL    HW274117   2.582   8.028  13.341
24074SOL     OW74118   2.200   3.960   5.971
24074SOL    HW174119   2.127   3.941   5.913
24074SOL    HW274120   2.164   3.950   6.059
24075SOL     OW74121  12.943   3.534  10.646
24075SOL    HW174122  12.988   3.614  10.672
24075SOL    HW274123  12.966   3.470  10.714
24076SOL     OW74124   5.332   7.224   0.393
24076SOL    HW174125   5.342   7.157   0.460
24076SOL    HW274126   5.413   7.275   0.398
24077SOL     OW74127   4.899  12.644   2.483
24077SOL    HW174128   4.816  12.623   2.441
24077SOL    HW274129   4.965  12.621   2.419
24078SOL     OW74130  14.009   5.858  14.404
24078SOL    HW174131  13.967   5.915  14.339
24078SOL    HW274132  14.099   5.891  14.411
24079SOL     OW74133  14.448   1.351   4.483
24079SOL    HW174134  14.389   1.351   4.558
24079SOL    HW274135  14.503   1.274   4.495
24080SOL     OW74136   4.087  10.888   7.193
24080SOL    HW174137   4.074  10.888   7.288
24080SOL    HW274138   4.007  10.850   7.158
24081SOL     OW74139   8.028   2.555  10.299
24081SOL    HW174140   7.986   2.557  10.213
24081SOL    HW274141   8.122   2.553  10.280
24082SOL     OW74142  13.056  13.871   7.630
24082SOL    HW174143  12.990  13.941   7.637
24082SOL    HW274144  13.013  13.794   7.668
24083SOL     OW74145  10.663   0.045  13.794
24083SOL    HW174146  10.706  14.837  13.812
24083SOL    HW274147  10.613   0.030  13.714
24084SOL     OW74148   7.741   5.469   3.145
24084SOL    HW174149   7.832   5.440   3.135
24084SOL    HW274150   7.737   5.552   3.097
24085SOL     OW74151   6.120  12.990   3.190
24085SOL    HW174152   6.056  12.986   3.120
24085SOL    HW274153   6.101  13.072   3.235
24086SOL     OW74154   0.921  10.374   8.373
24086SOL    HW174155   0.882  10.405   8.455
24086SOL    HW274156   0.920  10.279   8.380
24087SOL     OW74157   6.616   2.394  10.028
24087SOL    HW174158   6.616   2.487  10.053
24087SOL    HW274159   6.704   2.364  10.050
24088SOL     OW74160   9.193   7.833   4.011
24088SOL    HW174161   9.121   7.868   3.958
24088SOL    HW274162   9.154   7.761   4.061
24089SOL     OW74163  10.405  14.529  14.803
24089SOL    HW174164  10.379  14.487   0.010
24089SOL    HW274165  10.325  14.534  14.752
24090SOL     OW74166   0.964   1.759   8.715
24090SOL    HW174167   1.004   1.679   8.748
24090SOL    HW274168   0.870   1.746   8.730
24091SOL     OW74169  11.296   8.196   9.637
24091SOL    HW174170  11.272   8.136   9.708
24091SOL    HW274171  11.354   8.144   9.581
24092SOL     OW74172   8.929   8.138   4.463
24092SOL    HW174173   8.842   8.166   4.434
24092SOL    HW274174   8.940   8.051   4.425
24093SOL     OW74175  14.613  12.498   1.865
24093SOL    HW174176  14.661  12.473   1.944
24093SOL    HW274177  14.621  12.593   1.861
24094SOL     OW74178   4.487  14.042   8.399
24094SOL    HW174179   4.438  14.027   8.318
24094SOL    HW274180   4.555  13.974   8.400
24095SOL     OW74181   3.227  10.995   3.580
24095SOL    HW174182   3.190  10.908   3.595
24095SOL    HW274183   3.209  11.043   3.661
24096SOL     OW74184   7.276   3.039   5.195
24096SOL    HW174185   7.284   2.949   5.164
24096SOL    HW274186   7.329   3.090   5.134
24097SOL     OW74187   3.188   5.645   6.061
24097SOL    HW174188   3.182   5.590   5.983
24097SOL    HW274189   3.148   5.728   6.035
24098SOL     OW74190   8.548   0.351  13.570
24098SOL    HW174191   8.551   0.408  13.493
24098SOL    HW274192   8.455   0.349  13.594
24099SOL     OW74193   8.043   8.324  14.433
24099SOL    HW174194   8.008   8.347  14.346
24099SOL    HW274195   7.967   8.293  14.482
24100SOL     OW74196   1.737   0.939  11.505
24100SOL    HW174197   1.781   0.926  11.589
24100SOL    HW274198   1.644   0.944  11.527
24101SOL     OW74199   0.494   1.337  14.309
24101SOL    HW174200   0.534   1.345  14.222
24101SOL    HW274201   0.409   1.379  14.299
24102SOL     OW74202   8.177   4.118   5.322
24102SOL    HW174203   8.094   4.123   5.370
24102SOL    HW274204   8.152   4.101   5.231
24103SOL     OW74205   0.481  13.279   7.527
24103SOL    HW174206   0.411  13.321   7.478
24103SOL    HW274207   0.451  13.189   7.541
24104SOL     OW74208  10.995  11.054   1.062
24104SOL    HW174209  11.045  11.013   0.991
24104SOL    HW274210  11.053  11.121   1.096
24105SOL     OW74211   5.371   4.813   2.229
24105SOL    HW174212   5.330   4.877   2.288
24105SOL    HW274213   5.372   4.731   2.278
24106SOL     OW74214   3.454   6.375   8.655
24106SOL    HW174215   3.435   6.328   8.736
24106SOL    HW274216   3.429   6.314   8.586
24107SOL     OW74217   4.830   2.173  10.725
24107SOL    HW174218   4.869   2.233  10.789
24107SOL    HW274219   4.806   2.229  10.651
24108SOL     OW74220   9.594  14.874   0.164
24108SOL    HW174221   9.671   0.006   0.108
24108SOL    HW274222   9.624   0.030   0.249
24109SOL     OW74223  11.702  10.773   0.483
24109SOL    HW174224  11.743  10.856   0.509
24109SOL    HW274225  11.775  10.721   0.448
24110SOL     OW74226   0.336  13.318   7.294
24110SOL    HW174227   0.373  13.402   7.269
24110SOL    HW274228   0.285  13.290   7.217
24111SOL     OW74229   2.328   0.204   9.482
24111SOL    HW174230   2.407   0.149   9.491
24111SOL    HW274231   2.259   0.143   9.456
24112SOL     OW74232   1.027  12.954  10.737
24112SOL    HW174233   1.115  12.920  10.718
24112SOL    HW274234   1.043  13.039  10.778
24113SOL     OW74235   5.328   8.179  12.431
24113SOL    HW174236   5.235   8.202  12.436
24113SOL    HW274237   5.369   8.254  12.387
24114SOL     OW74238   2.891   0.287   9.246
24114SOL    HW174239   2.812   0.334   9.218
24114SOL    HW274240   2.940   0.274   9.165
24115SOL     OW74241  10.253   4.928   1.599
24115SOL    HW174242  10.304   4.947   1.677
24115SOL    HW274243  10.287   4.844   1.568
24116SOL     OW74244   6.426   4.985  14.728
24116SOL    HW174245   6.356   5.051  14.721
24116SOL    HW274246   6.497   5.020  14.674
24117SOL     OW74247  10.379   0.841   1.189
24117SOL    HW174248  10.371   0.746   1.181
24117SOL    HW274249  10.459   0.855   1.238
24118SOL     OW74250   9.765  12.563   0.762
24118SOL    HW174251   9.838  12.510   0.731
24118SOL    HW274252   9.688  12.530   0.716
24119SOL     OW74253   3.763   2.850   3.568
24119SOL    HW174254   3.729   2.833   3.656
24119SOL    HW274255   3.741   2.771   3.518
24120SOL     OW74256   5.332   8.254   9.732
24120SOL    HW174257   5.271   8.328   9.737
24120SOL    HW274258   5.377   8.254   9.817
24121SOL     OW74259   3.860   3.584   3.387
24121SOL    HW174260   3.888   3.502   3.427
24121SOL    HW274261   3.778   3.605   3.430
24122SOL     OW74262  14.593  10.249   6.573
24122SOL    HW174263  14.603  10.302   6.652
24122SOL    HW274264  14.681  10.218   6.554
24123SOL     OW74265   6.985   2.973   6.160
24123SOL    HW174266   6.917   2.964   6.093
24123SOL    HW274267   6.976   3.063   6.191
24124SOL     OW74268  13.365   2.784  11.403
24124SOL    HW174269  13.354   2.705  11.456
24124SOL    HW274270  13.363   2.753  11.313
24125SOL     OW74271   9.274   3.254   5.257
24125SOL    HW174272   9.355   3.218   5.220
24125SOL    HW274273   9.242   3.314   5.190
24126SOL     OW74274  11.913   7.227  14.191
24126SOL    HW174275  11.911   7.318  14.159
24126SOL    HW274276  11.830   7.190  14.163
24127SOL     OW74277  12.931   1.659   9.513
24127SOL    HW174278  12.858   1.712   9.545
24127SOL    HW274279  12.891   1.578   9.481
24128SOL     OW74280  14.722   4.516  13.882
24128SOL    HW174281  14.735   4.580  13.811
24128SOL    HW274282  14.674   4.565  13.949
24129SOL     OW74283  12.497   4.328  11.292
24129SOL    HW174284  12.592   4.327  11.301
24129SOL    HW274285  12.479   4.396  11.227
24130SOL     OW74286  14.212   6.122  14.625
24130SOL    HW174287  14.218   6.058  14.554
24130SOL    HW274288  14.170   6.074  14.696
24131SOL     OW74289  13.676  11.521  10.193
24131SOL    HW174290  13.709  11.446  10.242
24131SOL    HW274291  13.713  11.597  10.237
24132SOL     OW74292  11.431   4.924   1.786
24132SOL    HW174293  11.402   4.844   1.831
24132SOL    HW274294  11.498   4.960   1.843
24133SOL     OW74295   0.940  13.265   2.917
24133SOL    HW174296   1.023  13.283   2.872
24133SOL    HW274297   0.877  13.255   2.846
24134SOL     OW74298   6.413  13.452   6.927
24134SOL    HW174299   6.466  13.504   6.867
24134SOL    HW274300   6.381  13.515   6.992
24135SOL     OW74301   5.827   6.250  12.429
24135SOL    HW174302   5.882   6.221  12.357
24135SOL    HW274303   5.786   6.170  12.462
24136SOL     OW74304   7.457   2.065   8.100
24136SOL    HW174305   7.399   1.993   8.123
24136SOL    HW274306   7.398   2.138   8.081
24137SOL     OW74307   2.427   4.894   6.365
24137SOL    HW174308   2.471   4.970   6.403
24137SOL    HW274309   2.369   4.862   6.433
24138SOL     OW74310  12.188   8.757   4.560
24138SOL    HW174311  12.111   8.781   4.612
24138SOL    HW274312  12.165   8.781   4.471
24139SOL     OW74313  11.186  12.138   2.969
24139SOL    HW174314  11.120  12.169   2.907
24139SOL    HW274315  11.269  12.154   2.926
24140SOL     OW74316   3.942   5.202   1.126
24140SOL    HW174317   4.023   5.171   1.086
24140SOL    HW274318   3.968   5.272   1.185
24141SOL     OW74319  11.096   2.017  13.344
24141SOL    HW174320  11.121   1.998  13.253
24141SOL    HW274321  11.048   2.099  13.338
24142SOL     OW74322  11.591   0.175  12.896
24142SOL    HW174323  11.646   0.142  12.968
24142SOL    HW274324  11.514   0.210  12.939
24143SOL     OW74325   4.755   3.562   1.954
24143SOL    HW174326   4.800   3.478   1.946
24143SOL    HW274327   4.741   3.590   1.864
24144SOL     OW74328   8.537   5.392   3.555
24144SOL    HW174329   8.444   5.404   3.537
24144SOL    HW274330   8.579   5.390   3.469
24145SOL     OW74331  14.535   1.431  11.207
24145SOL    HW174332  14.576   1.498  11.152
24145SOL    HW274333  14.457   1.404  11.158
24146SOL     OW74334  11.651   9.359   6.961
24146SOL    HW174335  11.725   9.382   6.904
24146SOL    HW274336  11.591   9.311   6.904
24147SOL     OW74337   2.209   7.924   3.377
24147SOL    HW174338   2.262   7.853   3.414
24147SOL    HW274339   2.124   7.915   3.419
24148SOL     OW74340  10.306   5.448  11.744
24148SOL    HW174341  10.262   5.364  11.737
24148SOL    HW274342  10.376   5.433  11.808
24149SOL     OW74343   0.765   6.667   4.906
24149SOL    HW174344   0.769   6.756   4.942
24149SOL    HW274345   0.682   6.664   4.858
24150SOL     OW74346   6.832   6.584   3.247
24150SOL    HW174347   6.811   6.497   3.211
24150SOL    HW274348   6.892   6.566   3.320
24151SOL     OW74349  12.003  10.555   8.563
24151SOL    HW174350  12.087  10.513   8.541
24151SOL    HW274351  12.011  10.579   8.655
24152SOL     OW74352  11.502   3.488   3.206
24152SOL    HW174353  11.453   3.406   3.206
24152SOL    HW274354  11.445   3.550   3.158
24153SOL     OW74355   7.426  14.368  10.224
24153SOL    HW174356   7.371  14.444  10.241
24153SOL    HW274357   7.515  14.397  10.247
24154SOL     OW74358   0.739   9.385  13.960
24154SOL    HW174359   0.742   9.377  14.056
24154SOL    HW274360   0.671   9.451  13.944
24155SOL     OW74361   5.931   3.311  12.560
24155SOL    HW174362   6.020   3.324  12.528
24155SOL    HW274363   5.898   3.237  12.510
24156SOL     OW74364   1.003   1.247  11.984
24156SOL    HW174365   1.020   1.172  12.043
24156SOL    HW274366   0.917   1.228  11.946
24157SOL     OW74367   1.674   5.168   7.659
24157SOL    HW174368   1.656   5.210   7.743
24157SOL    HW274369   1.734   5.229   7.615
24158SOL     OW74370   2.268   4.217  10.925
24158SOL    HW174371   2.208   4.143  10.936
24158SOL    HW274372   2.343   4.195  10.981
24159SOL     OW74373  12.228  13.612   2.135
24159SOL    HW174374  12.241  13.532   2.186
24159SOL    HW274375  12.278  13.597   2.054
24160SOL     OW74376   5.664  10.809  13.207
24160SOL    HW174377   5.612  10.811  13.127
24160SOL    HW274378   5.625  10.876  13.264
24161SOL     OW74379   2.085   2.180  14.782
24161SOL    HW174380   2.025   2.191  14.709
24161SOL    HW274381   2.037   2.213  14.858
24162SOL     OW74382   5.555  10.415  10.083
24162SOL    HW174383   5.494  10.421  10.157
24162SOL    HW274384   5.507  10.364  10.018
24163SOL     OW74385  11.267  14.255  10.570
24163SOL    HW174386  11.239  14.271  10.480
24163SOL    HW274387  11.311  14.170  10.567
24164SOL     OW74388  10.136   4.155   2.056
24164SOL    HW174389  10.106   4.089   1.993
24164SOL    HW274390  10.125   4.114   2.141
24165SOL     OW74391   2.648   1.380  12.950
24165SOL    HW174392   2.632   1.446  12.883
24165SOL    HW274393   2.586   1.402  13.020
24166SOL     OW74394  10.898   1.093   0.961
24166SOL    HW174395  10.852   1.009   0.961
24166SOL    HW274396  10.942   1.097   0.876
24167SOL     OW74397  11.184  11.915  12.390
24167SOL    HW174398  11.277  11.903  12.406
24167SOL    HW274399  11.169  12.009  12.403
24168SOL     OW74400   1.200   8.525   4.620
24168SOL    HW174401   1.278   8.578   4.633
24168SOL    HW274402   1.171   8.503   4.709
24169SOL     OW74403   5.499  13.053  10.352
24169SOL    HW174404   5.432  13.001  10.396
24169SOL    HW274405   5.474  13.051  10.260
24170SOL     OW74406   7.718   9.943   8.963
24170SOL    HW174407   7.706   9.878   9.033
24170SOL    HW274408   7.674  10.021   8.996
24171SOL     OW74409  11.533  11.487   2.792
24171SOL    HW174410  11.587  11.540   2.733
24171SOL    HW274411  11.583  11.484   2.874
24172SOL     OW74412  11.355   1.631   4.143
24172SOL    HW174413  11.431   1.688   4.154
24172SOL    HW274414  11.303   1.674   4.075
24173SOL     OW74415   8.525   3.532   3.860
24173SOL    HW174416   8.510   3.539   3.766
24173SOL    HW274417   8.610   3.489   3.868
24174SOL     OW74418   5.156   6.777  10.881
24174SOL    HW174419   5.163   6.780  10.786
24174SOL    HW274420   5.070   6.739  10.898
24175SOL     OW74421   8.655   9.847   3.515
24175SOL    HW174422   8.733   9.900   3.501
24175SOL    HW274423   8.607   9.893   3.585
24176SOL     OW74424  10.901   7.224   0.873
24176SOL    HW174425  10.962   7.295   0.850
24176SOL    HW274426  10.815   7.265   0.874
24177SOL     OW74427   0.060  11.017   5.428
24177SOL    HW174428   0.140  11.068   5.420
24177SOL    HW274429  14.868  11.069   5.382
24178SOL     OW74430   6.368   0.664  14.159
24178SOL    HW174431   6.452   0.675  14.202
24178SOL    HW274432   6.379   0.705  14.073
24179SOL     OW74433   4.625   6.722  14.737
24179SOL    HW174434   4.678   6.768  14.802
24179SOL    HW274435   4.659   6.632  14.738
24180SOL     OW74436  13.814  10.155   6.104
24180SOL    HW174437  13.893  10.102   6.100
24180SOL    HW274438  13.839  10.239   6.065
24181SOL     OW74439  10.302   7.204   6.450
24181SOL    HW174440  10.285   7.276   6.389
24181SOL    HW274441  10.356   7.243   6.518
24182SOL     OW74442  14.514   1.112  14.676
24182SOL    HW174443  14.560   1.096  14.594
24182SOL    HW274444  14.579   1.157  14.731
24183SOL     OW74445  11.205   4.497   0.430
24183SOL    HW174446  11.294   4.464   0.436
24183SOL    HW274447  11.151   4.431   0.474
24184SOL     OW74448   4.652   8.543   2.836
24184SOL    HW174449   4.611   8.610   2.781
24184SOL    HW274450   4.618   8.559   2.924
24185SOL     OW74451   4.483   0.438  10.719
24185SOL    HW174452   4.562   0.475  10.678
24185SOL    HW274453   4.423   0.423  10.646
24186SOL     OW74454   9.414  10.611   1.639
24186SOL    HW174455   9.479  10.566   1.692
24186SOL    HW274456   9.413  10.700   1.672
24187SOL     OW74457  11.219   5.973   1.099
24187SOL    HW174458  11.231   6.027   1.178
24187SOL    HW274459  11.148   5.913   1.121
24188SOL     OW74460  14.145   6.499   5.776
24188SOL    HW174461  14.108   6.588   5.770
24188SOL    HW274462  14.239   6.513   5.786
24189SOL     OW74463   6.450  13.579  12.704
24189SOL    HW174464   6.459  13.545  12.793
24189SOL    HW274465   6.482  13.669  12.709
24190SOL     OW74466   8.790   2.878   8.174
24190SOL    HW174467   8.832   2.938   8.236
24190SOL    HW274468   8.819   2.908   8.088
24191SOL     OW74469  10.292  13.764   1.033
24191SOL    HW174470  10.376  13.780   1.075
24191SOL    HW274471  10.233  13.741   1.104
24192SOL     OW74472  10.646  13.956  10.039
24192SOL    HW174473  10.696  13.876  10.055
24192SOL    HW274474  10.653  13.971   9.945
24193SOL     OW74475   3.199   3.413  10.901
24193SOL    HW174476   3.270   3.433  10.840
24193SOL    HW274477   3.128   3.470  10.874
24194SOL     OW74478   6.904   6.738   2.889
24194SOL    HW174479   6.888   6.647   2.915
24194SOL    HW274480   6.844   6.789   2.944
24195SOL     OW74481   4.161  10.625   7.012
24195SOL    HW174482   4.164  10.681   7.089
24195SOL    HW274483   4.082  10.651   6.966
24196SOL     OW74484   6.513   8.985   0.942
24196SOL    HW174485   6.568   8.914   0.976
24196SOL    HW274486   6.525   8.981   0.847
24197SOL     OW74487   6.461   3.390   5.461
24197SOL    HW174488   6.531   3.354   5.516
24197SOL    HW274489   6.507   3.434   5.390
24198SOL     OW74490  13.846  10.900  13.087
24198SOL    HW174491  13.901  10.929  13.160
24198SOL    HW274492  13.905  10.848  13.032
24199SOL     OW74493  13.417  11.124   1.543
24199SOL    HW174494  13.406  11.069   1.465
24199SOL    HW274495  13.463  11.202   1.511
24200SOL     OW74496  14.729   1.102   4.409
24200SOL    HW174497  14.667   1.136   4.344
24200SOL    HW274498  14.679   1.097   4.490
24201SOL     OW74499  12.822   4.578   1.201
24201SOL    HW174500  12.874   4.503   1.229
24201SOL    HW274501  12.734   4.542   1.186
24202SOL     OW74502  14.700  11.309  13.141
24202SOL    HW174503  14.765  11.251  13.101
24202SOL    HW274504  14.749  11.358  13.207
24203SOL     OW74505   8.789   9.980  10.503
24203SOL    HW174506   8.874  10.018  10.527
24203SOL    HW274507   8.738   9.982  10.583
24204SOL     OW74508   0.434   2.772  10.587
24204SOL    HW174509   0.403   2.686  10.617
24204SOL    HW274510   0.503   2.751  10.524
24205SOL     OW74511  11.348  10.218   6.453
24205SOL    HW174512  11.423  10.276   6.442
24205SOL    HW274513  11.273  10.277   6.465
24206SOL     OW74514  10.219  14.724  13.000
24206SOL    HW174515  10.139  14.674  12.984
24206SOL    HW274516  10.271  14.714  12.920
24207SOL     OW74517   4.425  14.486   2.071
24207SOL    HW174518   4.441  14.571   2.030
24207SOL    HW274519   4.511  14.442   2.070
24208SOL     OW74520   1.961  11.603  13.489
24208SOL    HW174521   1.931  11.691  13.510
24208SOL    HW274522   1.939  11.551  13.566
24209SOL     OW74523   0.344  12.767   7.759
24209SOL    HW174524   0.316  12.696   7.701
24209SOL    HW274525   0.402  12.724   7.822
24210SOL     OW74526   1.047  10.745   7.155
24210SOL    HW174527   1.022  10.666   7.107
24210SOL    HW274528   1.127  10.774   7.112
24211SOL     OW74529  13.168   4.205   7.441
24211SOL    HW174530  13.239   4.242   7.389
24211SOL    HW274531  13.208   4.189   7.527
24212SOL     OW74532   9.667   0.963  10.424
24212SOL    HW174533   9.719   1.005  10.493
24212SOL    HW274534   9.624   1.036  10.380
24213SOL     OW74535   8.213   8.812  11.684
24213SOL    HW174536   8.168   8.732  11.711
24213SOL    HW274537   8.249   8.847  11.766
24214SOL     OW74538   9.302  10.483   8.207
24214SOL    HW174539   9.229  10.474   8.145
24214SOL    HW274540   9.311  10.577   8.220
24215SOL     OW74541   1.281   8.322   7.563
24215SOL    HW174542   1.201   8.273   7.543
24215SOL    HW274543   1.335   8.312   7.484
24216SOL     OW74544   5.506   9.262  14.552
24216SOL    HW174545   5.492   9.189  14.491
24216SOL    HW274546   5.591   9.244  14.592
24217SOL     OW74547   4.738   5.496  14.206
24217SOL    HW174548   4.760   5.561  14.273
24217SOL    HW274549   4.686   5.545  14.142
24218SOL     OW74550   1.361   1.648  14.358
24218SOL    HW174551   1.406   1.564  14.352
24218SOL    HW274552   1.425   1.712  14.327
24219SOL     OW74553   8.527   3.366   2.099
24219SOL    HW174554   8.520   3.456   2.130
24219SOL    HW274555   8.531   3.313   2.178
24220SOL     OW74556   5.584   8.271   6.006
24220SOL    HW174557   5.626   8.354   5.981
24220SOL    HW274558   5.494   8.280   5.976
24221SOL     OW74559   7.451  13.293  12.474
24221SOL    HW174560   7.410  13.206  12.481
24221SOL    HW274561   7.412  13.344  12.545
24222SOL     OW74562   3.991   0.421  13.447
24222SOL    HW174563   3.911   0.467  13.475
24222SOL    HW274564   4.062   0.482  13.466
24223SOL     OW74565   6.646   9.203   8.752
24223SOL    HW174566   6.704   9.264   8.798
24223SOL    HW274567   6.682   9.196   8.664
24224SOL     OW74568  10.496   7.108   2.457
24224SOL    HW174569  10.513   7.175   2.391
24224SOL    HW274570  10.421   7.059   2.423
24225SOL     OW74571  11.212   2.389  14.739
24225SOL    HW174572  11.279   2.405  14.672
24225SOL    HW274573  11.178   2.302  14.717
24226SOL     OW74574   1.682  13.679   2.412
24226SOL    HW174575   1.691  13.655   2.319
24226SOL    HW274576   1.660  13.772   2.410
24227SOL     OW74577  13.528   9.072  11.332
24227SOL    HW174578  13.505   9.164  11.321
24227SOL    HW274579  13.566   9.047  11.248
24228SOL     OW74580   3.627   1.967  12.964
24228SOL    HW174581   3.688   1.982  12.891
24228SOL    HW274582   3.581   2.050  12.974
24229SOL     OW74583   9.538  11.343   9.645
24229SOL    HW174584   9.488  11.278   9.694
24229SOL    HW274585   9.545  11.418   9.705
24230SOL     OW74586   7.085   8.705   4.909
24230SOL    HW174587   7.139   8.687   4.832
24230SOL    HW274588   7.105   8.797   4.931
24231SOL     OW74589   1.495   5.623   0.222
24231SOL    HW174590   1.553   5.546   0.223
24231SOL    HW274591   1.542   5.688   0.171
24232SOL     OW74592   0.167   5.950  13.582
24232SOL    HW174593   0.159   5.981  13.492
24232SOL    HW274594   0.079   5.922  13.606
24233SOL     OW74595   5.365  10.165   0.752
24233SOL    HW174596   5.445  10.207   0.721
24233SOL    HW274597   5.371  10.075   0.720
24234SOL     OW74598   7.464   4.689  13.790
24234SOL    HW174599   7.441   4.597  13.804
24234SOL    HW274600   7.388   4.737  13.824
24235SOL     OW74601   3.039   0.297   7.002
24235SOL    HW174602   3.053   0.290   7.096
24235SOL    HW274603   3.039   0.391   6.984
24236SOL     OW74604  10.225  11.015   7.443
24236SOL    HW174605  10.276  11.092   7.418
24236SOL    HW274606  10.270  10.942   7.401
24237SOL     OW74607   4.057  10.173  12.595
24237SOL    HW174608   4.098  10.239  12.651
24237SOL    HW274609   4.011  10.115  12.656
24238SOL     OW74610  11.369  11.801   1.490
24238SOL    HW174611  11.343  11.850   1.568
24238SOL    HW274612  11.288  11.760   1.459
24239SOL     OW74613   5.701  13.793   7.256
24239SOL    HW174614   5.613  13.810   7.221
24239SOL    HW274615   5.687  13.779   7.350
24240SOL     OW74616   2.534  14.272  10.194
24240SOL    HW174617   2.595  14.346  10.195
24240SOL    HW274618   2.530  14.243  10.285
24241SOL     OW74619   1.722   0.414   8.973
24241SOL    HW174620   1.805   0.436   9.015
24241SOL    HW274621   1.673   0.496   8.973
24242SOL     OW74622   7.904   7.632   4.890
24242SOL    HW174623   7.976   7.665   4.835
24242SOL    HW274624   7.833   7.614   4.829
24243SOL     OW74625   4.459   9.713   6.911
24243SOL    HW174626   4.521   9.772   6.954
24243SOL    HW274627   4.405   9.679   6.983
24244SOL     OW74628   5.621   4.265  13.967
24244SOL    HW174629   5.639   4.206  13.894
24244SOL    HW274630   5.632   4.211  14.045
24245SOL     OW74631  13.873  13.021  11.383
24245SOL    HW174632  13.899  13.034  11.474
24245SOL    HW274633  13.813  13.093  11.365
24246SOL     OW74634   2.859   0.460  12.259
24246SOL    HW174635   2.769   0.431  12.240
24246SOL    HW274636   2.914   0.387  12.232
24247SOL     OW74637   8.830  12.229   6.302
24247SOL    HW174638   8.775  12.153   6.322
24247SOL    HW274639   8.788  12.302   6.348
24248SOL     OW74640  11.496  10.280   3.357
24248SOL    HW174641  11.522  10.274   3.265
24248SOL    HW274642  11.506  10.192   3.391
24249SOL     OW74643  12.624   6.330   7.469
24249SOL    HW174644  12.606   6.337   7.563
24249SOL    HW274645  12.544   6.361   7.427
24250SOL     OW74646   6.870   6.920   4.387
24250SOL    HW174647   6.781   6.919   4.351
24250SOL    HW274648   6.895   7.012   4.388
24251SOL     OW74649   3.138   9.635   1.091
24251SOL    HW174650   3.159   9.558   1.145
24251SOL    HW274651   3.086   9.691   1.148
24252SOL     OW74652   9.875   0.821   8.751
24252SOL    HW174653   9.882   0.912   8.722
24252SOL    HW274654   9.782   0.800   8.742
24253SOL     OW74655   6.914   6.559   6.982
24253SOL    HW174656   6.833   6.553   7.033
24253SOL    HW274657   6.945   6.468   6.978
24254SOL     OW74658   4.432   9.022   2.223
24254SOL    HW174659   4.513   9.002   2.175
24254SOL    HW274660   4.402   8.937   2.255
24255SOL     OW74661  11.582   8.282   9.761
24255SOL    HW174662  11.539   8.270   9.845
24255SOL    HW274663  11.548   8.210   9.706
24256SOL     OW74664  14.484   6.128   6.431
24256SOL    HW174665  14.479   6.051   6.375
24256SOL    HW274666  14.544   6.103   6.502
24257SOL     OW74667  10.939   6.622   9.448
24257SOL    HW174668  10.929   6.697   9.507
24257SOL    HW274669  11.033   6.605   9.446
24258SOL     OW74670  10.872   6.707   6.941
24258SOL    HW174671  10.875   6.618   6.974
24258SOL    HW274672  10.878   6.763   7.018
24259SOL     OW74673   9.081  14.482   7.285
24259SOL    HW174674   9.014  14.548   7.301
24259SOL    HW274675   9.054  14.440   7.203
24260SOL     OW74676  14.403  11.809   7.406
24260SOL    HW174677  14.408  11.802   7.311
24260SOL    HW274678  14.480  11.859   7.431
24261SOL     OW74679   6.519  12.491  14.108
24261SOL    HW174680   6.516  12.435  14.030
24261SOL    HW274681   6.441  12.546  14.101
24262SOL     OW74682   3.434  10.687   9.628
24262SOL    HW174683   3.375  10.699   9.554
24262SOL    HW274684   3.496  10.760   9.621
24263SOL     OW74685   4.705  11.592   9.339
24263SOL    HW174686   4.688  11.629   9.426
24263SOL    HW274687   4.652  11.645   9.280
24264SOL     OW74688   4.947  11.075   9.083
24264SOL    HW174689   5.038  11.056   9.064
24264SOL    HW274690   4.902  11.061   9.000
24265SOL     OW74691   2.400   9.116  10.071
24265SOL    HW174692   2.409   9.176  10.145
24265SOL    HW274693   2.308   9.089  10.073
24266SOL     OW74694   8.271  10.110   5.528
24266SOL    HW174695   8.270  10.022   5.564
24266SOL    HW274696   8.256  10.167   5.603
24267SOL     OW74697   0.097   6.897  13.450
24267SOL    HW174698   0.120   6.818  13.401
24267SOL    HW274699   0.059   6.865  13.532
24268SOL     OW74700   6.458   1.868   0.297
24268SOL    HW174701   6.511   1.890   0.221
24268SOL    HW274702   6.473   1.940   0.358
24269SOL     OW74703   2.080  12.608   9.816
24269SOL    HW174704   2.101  12.541   9.751
24269SOL    HW274705   1.985  12.599   9.830
24270SOL     OW74706   8.631  10.732   2.946
24270SOL    HW174707   8.658  10.651   2.904
24270SOL    HW274708   8.651  10.800   2.883
24271SOL     OW74709   4.908   1.159  11.255
24271SOL    HW174710   4.996   1.131  11.231
24271SOL    HW274711   4.917   1.199  11.341
24272SOL     OW74712   9.283  11.806   9.630
24272SOL    HW174713   9.261  11.800   9.537
24272SOL    HW274714   9.368  11.762   9.638
24273SOL     OW74715   6.851   5.321   4.046
24273SOL    HW174716   6.821   5.384   3.981
24273SOL    HW274717   6.939   5.351   4.071
24274SOL     OW74718   8.910  12.148   5.009
24274SOL    HW174719   8.869  12.148   5.096
24274SOL    HW274720   8.876  12.070   4.966
24275SOL     OW74721   8.089  10.781   2.448
24275SOL    HW174722   8.056  10.698   2.413
24275SOL    HW274723   8.119  10.759   2.536
24276SOL     OW74724   6.026   6.153   1.705
24276SOL    HW174725   6.089   6.178   1.772
24276SOL    HW274726   6.054   6.199   1.626
24277SOL     OW74727   9.774   3.350   6.052
24277SOL    HW174728   9.693   3.400   6.063
24277SOL    HW274729   9.774   3.288   6.125
24278SOL     OW74730   3.675   4.001  11.552
24278SOL    HW174731   3.708   3.966  11.635
24278SOL    HW274732   3.704   3.939  11.486
24279SOL     OW74733  14.175   8.540  13.392
24279SOL    HW174734  14.245   8.481  13.419
24279SOL    HW274735  14.199   8.624  13.430
24280SOL     OW74736  10.549  11.335   4.056
24280SOL    HW174737  10.573  11.362   3.967
24280SOL    HW274738  10.576  11.408   4.112
24281SOL     OW74739  11.770   4.651   5.549
24281SOL    HW174740  11.817   4.571   5.572
24281SOL    HW274741  11.702   4.622   5.488
24282SOL     OW74742   8.370  12.687   3.234
24282SOL    HW174743   8.280  12.710   3.258
24282SOL    HW274744   8.405  12.640   3.310
24283SOL     OW74745  13.567  13.300  12.308
24283SOL    HW174746  13.542  13.297  12.401
24283SOL    HW274747  13.548  13.390  12.282
24284SOL     OW74748   4.462   2.407   8.959
24284SOL    HW174749   4.405   2.359   9.020
24284SOL    HW274750   4.500   2.338   8.904
24285SOL     OW74751   9.300  13.711   2.214
24285SOL    HW174752   9.261  13.793   2.184
24285SOL    HW274753   9.351  13.736   2.291
24286SOL     OW74754   8.326   7.207   9.467
24286SOL    HW174755   8.300   7.281   9.413
24286SOL    HW274756   8.366   7.246   9.545
24287SOL     OW74757  11.150   0.961   7.780
24287SOL    HW174758  11.189   0.898   7.841
24287SOL    HW274759  11.065   0.923   7.758
24288SOL     OW74760  10.245   1.428   2.913
24288SOL    HW174761  10.338   1.415   2.898
24288SOL    HW274762  10.211   1.461   2.829
24289SOL     OW74763   2.742  10.193  11.491
24289SOL    HW174764   2.700  10.200  11.405
24289SOL    HW274765   2.812  10.258  11.489
24290SOL     OW74766   4.715  10.331   1.600
24290SOL    HW174767   4.780  10.279   1.554
24290SOL    HW274768   4.759  10.414   1.618
24291SOL     OW74769  11.698   3.237  12.538
24291SOL    HW174770  11.632   3.235  12.608
24291SOL    HW274771  11.675   3.163  12.481
24292SOL     OW74772   6.416  13.065   2.570
24292SOL    HW174773   6.374  13.057   2.484
24292SOL    HW274774   6.472  12.988   2.577
24293SOL     OW74775  11.106   3.234   6.654
24293SOL    HW174776  11.123   3.287   6.733
24293SOL    HW274777  11.036   3.281   6.608
24294SOL     OW74778  10.502   8.789   1.575
24294SOL    HW174779  10.434   8.835   1.525
24294SOL    HW274780  10.482   8.696   1.562
24295SOL     OW74781   0.896  11.077   6.698
24295SOL    HW174782   0.929  11.162   6.724
24295SOL    HW274783   0.906  11.075   6.602
24296SOL     OW74784   2.120   7.694   0.690
24296SOL    HW174785   2.120   7.751   0.768
24296SOL    HW274786   2.035   7.652   0.691
24297SOL     OW74787  10.848  12.026   1.258
24297SOL    HW174788  10.802  12.060   1.335
24297SOL    HW274789  10.779  12.007   1.194
24298SOL     OW74790  12.056   7.364  12.847
24298SOL    HW174791  12.062   7.360  12.752
24298SOL    HW274792  12.140   7.332  12.879
24299SOL     OW74793  10.361  13.557   7.492
24299SOL    HW174794  10.330  13.609   7.565
24299SOL    HW274795  10.314  13.591   7.416
24300SOL     OW74796   4.957   0.898  11.318
24300SOL    HW174797   4.912   0.972  11.276
24300SOL    HW274798   4.927   0.901  11.409
24301SOL     OW74799  14.781  11.510   7.949
24301SOL    HW174800  14.810  11.421   7.929
24301SOL    HW274801  14.740  11.541   7.868
24302SOL     OW74802  14.197  12.350   6.517
24302SOL    HW174803  14.258  12.412   6.557
24302SOL    HW274804  14.154  12.400   6.447
24303SOL     OW74805  11.724   1.951   5.404
24303SOL    HW174806  11.744   1.932   5.312
24303SOL    HW274807  11.759   2.040   5.418
24304SOL     OW74808  12.579   3.962  14.067
24304SOL    HW174809  12.604   4.048  14.102
24304SOL    HW274810  12.660   3.926  14.031
24305SOL     OW74811   4.713   1.081   8.912
24305SOL    HW174812   4.622   1.074   8.882
24305SOL    HW274813   4.751   0.995   8.895
24306SOL     OW74814   6.549   9.257  10.527
24306SOL    HW174815   6.524   9.226  10.440
24306SOL    HW274816   6.541   9.353  10.521
24307SOL     OW74817  14.738   2.994   6.292
24307SOL    HW174818  14.681   3.069   6.309
24307SOL    HW274819  14.820   3.033   6.261
24308SOL     OW74820   6.861   1.027   0.289
24308SOL    HW174821   6.908   1.040   0.207
24308SOL    HW274822   6.926   0.989   0.348
24309SOL     OW74823  14.065   7.044   8.055
24309SOL    HW174824  14.051   6.950   8.065
24309SOL    HW274825  14.043   7.081   8.140
24310SOL     OW74826   3.703   9.934  10.247
24310SOL    HW174827   3.645   9.872  10.203
24310SOL    HW274828   3.689  10.017  10.203
24311SOL     OW74829  10.087  13.898  13.613
24311SOL    HW174830  10.122  13.931  13.530
24311SOL    HW274831   9.999  13.936  13.618
24312SOL     OW74832  11.425  12.095   7.875
24312SOL    HW174833  11.480  12.022   7.903
24312SOL    HW274834  11.441  12.164   7.940
24313SOL     OW74835   6.630  14.671  11.003
24313SOL    HW174836   6.602  14.580  11.006
24313SOL    HW274837   6.653  14.693  11.093
24314SOL     OW74838   2.939   7.014   3.658
24314SOL    HW174839   2.866   6.971   3.703
24314SOL    HW274840   2.947   7.100   3.699
24315SOL     OW74841   0.489   9.700   7.136
24315SOL    HW174842   0.546   9.768   7.172
24315SOL    HW274843   0.548   9.641   7.090
24316SOL     OW74844   9.575   8.993   6.962
24316SOL    HW174845   9.594   8.960   6.874
24316SOL    HW274846   9.494   8.948   6.987
24317SOL     OW74847   0.341  12.099   4.271
24317SOL    HW174848   0.295  12.019   4.246
24317SOL    HW274849   0.413  12.068   4.326
24318SOL     OW74850   4.655  10.932  11.933
24318SOL    HW174851   4.656  11.026  11.949
24318SOL    HW274852   4.745  10.903  11.951
24319SOL     OW74853   3.289   6.364  14.279
24319SOL    HW174854   3.194   6.368  14.277
24319SOL    HW274855   3.309   6.293  14.339
24320SOL     OW74856   3.731   5.855   0.205
24320SOL    HW174857   3.804   5.909   0.177
24320SOL    HW274858   3.771   5.777   0.245
24321SOL     OW74859  13.959   7.879  12.002
24321SOL    HW174860  13.888   7.847  12.058
24321SOL    HW274861  13.936   7.971  11.986
24322SOL     OW74862  11.540   7.323   9.569
24322SOL    HW174863  11.472   7.387   9.545
24322SOL    HW274864  11.499   7.269   9.636
24323SOL     OW74865  11.594   4.687   3.450
24323SOL    HW174866  11.519   4.659   3.397
24323SOL    HW274867  11.667   4.691   3.388
24324SOL     OW74868   9.410   0.280   8.232
24324SOL    HW174869   9.493   0.247   8.197
24324SOL    HW274870   9.389   0.355   8.176
24325SOL     OW74871  14.834  10.913   5.884
24325SOL    HW174872  14.744  10.943   5.892
24325SOL    HW274873  14.844  10.891   5.791
24326SOL     OW74874   1.673   8.088  14.736
24326SOL    HW174875   1.684   8.071  14.830
24326SOL    HW274876   1.667   8.184  14.731
24327SOL     OW74877   3.253   1.524  14.154
24327SOL    HW174878   3.194   1.449  14.143
24327SOL    HW274879   3.331   1.500  14.103
24328SOL     OW74880  13.171   1.550   9.132
24328SOL    HW174881  13.221   1.621   9.172
24328SOL    HW274882  13.186   1.475   9.189
24329SOL     OW74883  11.796   1.414   9.654
24329SOL    HW174884  11.757   1.425   9.741
24329SOL    HW274885  11.884   1.380   9.671
24330SOL     OW74886   2.431   6.505   8.537
24330SOL    HW174887   2.447   6.511   8.631
24330SOL    HW274888   2.354   6.448   8.529
24331SOL     OW74889   8.331   9.290   6.967
24331SOL    HW174890   8.298   9.315   7.053
24331SOL    HW274891   8.314   9.196   6.961
24332SOL     OW74892   3.467   3.438   5.885
24332SOL    HW174893   3.529   3.377   5.844
24332SOL    HW274894   3.415   3.383   5.944
24333SOL     OW74895  10.544   8.074   7.812
24333SOL    HW174896  10.628   8.116   7.796
24333SOL    HW274897  10.493   8.092   7.733
24334SOL     OW74898   6.431   7.940   0.062
24334SOL    HW174899   6.388   7.863   0.024
24334SOL    HW274900   6.494   7.968  14.871
24335SOL     OW74901   8.866   2.185   7.884
24335SOL    HW174902   8.785   2.212   7.926
24335SOL    HW274903   8.884   2.253   7.820
24336SOL     OW74904  12.103   2.734   5.590
24336SOL    HW174905  12.077   2.826   5.594
24336SOL    HW274906  12.151   2.726   5.507
24337SOL     OW74907   0.463   6.117   4.911
24337SOL    HW174908   0.475   6.182   4.841
24337SOL    HW274909   0.480   6.166   4.992
24338SOL     OW74910   3.440   7.657   2.400
24338SOL    HW174911   3.473   7.671   2.489
24338SOL    HW274912   3.390   7.736   2.380
24339SOL     OW74913   2.451  11.545  10.659
24339SOL    HW174914   2.429  11.452  10.661
24339SOL    HW274915   2.514  11.557  10.730
24340SOL     OW74916   3.330  10.298   4.859
24340SOL    HW174917   3.346  10.388   4.831
24340SOL    HW274918   3.409  10.251   4.835
24341SOL     OW74919   6.916   5.404   9.219
24341SOL    HW174920   6.993   5.374   9.267
24341SOL    HW274921   6.907   5.343   9.147
24342SOL     OW74922   5.938  14.738   5.825
24342SOL    HW174923   5.979  14.819   5.857
24342SOL    HW274924   6.000  14.704   5.761
24343SOL     OW74925   7.679  12.891  11.868
24343SOL    HW174926   7.730  12.865  11.945
24343SOL    HW274927   7.628  12.967  11.897
24344SOL     OW74928  11.851   2.534   4.390
24344SOL    HW174929  11.902   2.459   4.420
24344SOL    HW274930  11.809   2.567   4.470
24345SOL     OW74931   0.557   1.756  11.597
24345SOL    HW174932   0.602   1.768  11.681
24345SOL    HW274933   0.625   1.723  11.538
24346SOL     OW74934   3.071  13.372   4.683
24346SOL    HW174935   3.111  13.458   4.693
24346SOL    HW274936   3.114  13.334   4.606
24347SOL     OW74937   6.921  12.521   1.142
24347SOL    HW174938   6.925  12.608   1.182
24347SOL    HW274939   7.010  12.486   1.152
24348SOL     OW74940   3.729   2.557  14.362
24348SOL    HW174941   3.662   2.561  14.430
24348SOL    HW274942   3.787   2.487  14.390
24349SOL     OW74943   8.245   4.998  13.726
24349SOL    HW174944   8.208   4.998  13.637
24349SOL    HW274945   8.245   4.905  13.751
24350SOL     OW74946   8.269   7.402   1.632
24350SOL    HW174947   8.355   7.360   1.631
24350SOL    HW274948   8.214   7.342   1.683
24351SOL     OW74949   3.948   3.832   3.483
24351SOL    HW174950   3.944   3.742   3.451
24351SOL    HW274951   3.861   3.848   3.521
24352SOL     OW74952   1.775   9.922   4.975
24352SOL    HW174953   1.747  10.003   4.933
24352SOL    HW274954   1.863   9.941   5.008
24353SOL     OW74955  13.791   8.174   7.823
24353SOL    HW174956  13.801   8.235   7.750
24353SOL    HW274957  13.722   8.213   7.878
24354SOL     OW74958   4.037  14.682  11.638
24354SOL    HW174959   4.020  14.698  11.546
24354SOL    HW274960   4.027  14.587  11.649
24355SOL     OW74961   9.978  12.735  10.187
24355SOL    HW174962  10.027  12.756  10.108
24355SOL    HW274963   9.897  12.695  10.155
24356SOL     OW74964   5.708   7.000   8.024
24356SOL    HW174965   5.615   6.986   8.004
24356SOL    HW274966   5.707   7.065   8.094
24357SOL     OW74967  13.950   1.616  10.044
24357SOL    HW174968  13.895   1.680  10.089
24357SOL    HW274969  13.930   1.533  10.088
24358SOL     OW74970   1.881   3.180  12.070
24358SOL    HW174971   1.941   3.204  12.000
24358SOL    HW274972   1.858   3.263  12.112
24359SOL     OW74973   1.894   7.784  13.896
24359SOL    HW174974   1.920   7.811  13.984
24359SOL    HW274975   1.976   7.780  13.847
24360SOL     OW74976   0.835   7.544   0.502
24360SOL    HW174977   0.772   7.572   0.567
24360SOL    HW274978   0.909   7.509   0.553
24361SOL     OW74979   2.991  10.327  10.664
24361SOL    HW174980   3.008  10.234  10.649
24361SOL    HW274981   3.029  10.346  10.750
24362SOL     OW74982   5.359   9.855   1.056
24362SOL    HW174983   5.297   9.799   1.009
24362SOL    HW274984   5.305   9.909   1.113
24363SOL     OW74985  14.819   7.120   6.659
24363SOL    HW174986  14.799   7.208   6.691
24363SOL    HW274987  14.874   7.135   6.582
24364SOL     OW74988   3.442   4.561   0.536
24364SOL    HW174989   3.383   4.632   0.513
24364SOL    HW274990   3.517   4.605   0.577
24365SOL     OW74991   0.403  13.799   6.923
24365SOL    HW174992   0.334  13.862   6.941
24365SOL    HW274993   0.481  13.835   6.964
24366SOL     OW74994  14.674  10.381   6.258
24366SOL    HW174995  14.611  10.453   6.248
24366SOL    HW274996  14.630  10.319   6.318
24367SOL     OW74997   9.974   6.674   3.451
24367SOL    HW174998   9.940   6.757   3.485
24367SOL    HW274999  10.033   6.700   3.381
24368SOL     OW75000  14.334  13.081   8.337
24368SOL    HW175001  14.247  13.057   8.305
24368SOL    HW275002  14.323  13.094   8.431
24369SOL     OW75003  13.592  10.840  14.586
24369SOL    HW175004  13.583  10.933  14.610
24369SOL    HW275005  13.686  10.824  14.593
24370SOL     OW75006  14.823   7.000   5.602
24370SOL    HW175007  14.857   6.930   5.547
24370SOL    HW275008  14.742   6.964   5.639
24371SOL     OW75009   1.137   7.385   0.516
24371SOL    HW175010   1.179   7.352   0.436
24371SOL    HW275011   1.090   7.309   0.551
24372SOL     OW75012   2.531  13.495   6.850
24372SOL    HW175013   2.448  13.517   6.808
24372SOL    HW275014   2.536  13.400   6.845
24373SOL     OW75015   4.473   2.393   2.537
24373SOL    HW175016   4.404   2.454   2.511
24373SOL    HW275017   4.502   2.424   2.622
24374SOL     OW75018   2.350   0.901   2.968
24374SOL    HW175019   2.375   0.925   2.878
24374SOL    HW275020   2.377   0.810   2.976
24375SOL     OW75021   6.414   1.150   5.749
24375SOL    HW175022   6.445   1.168   5.660
24375SOL    HW275023   6.370   1.065   5.743
24376SOL     OW75024  13.818   2.614  13.679
24376SOL    HW175025  13.732   2.649  13.655
24376SOL    HW275026  13.799   2.531  13.723
24377SOL     OW75027  10.339  13.666  10.853
24377SOL    HW175028  10.344  13.761  10.860
24377SOL    HW275029  10.254  13.649  10.812
24378SOL     OW75030   2.552   0.298  13.284
24378SOL    HW175031   2.465   0.259  13.275
24378SOL    HW275032   2.537   0.382  13.328
24379SOL     OW75033   2.574   8.394  13.034
24379SOL    HW175034   2.493   8.436  13.006
24379SOL    HW275035   2.562   8.376  13.127
24380SOL     OW75036   5.973   6.480   7.246
24380SOL    HW175037   5.921   6.443   7.175
24380SOL    HW275038   5.993   6.405   7.302
24381SOL     OW75039   5.822   4.006   1.556
24381SOL    HW175040   5.748   3.994   1.615
24381SOL    HW275041   5.789   3.979   1.470
24382SOL     OW75042   6.082  10.044   6.920
24382SOL    HW175043   6.010   9.983   6.903
24382SOL    HW275044   6.046  10.105   6.985
24383SOL     OW75045   9.482   9.980   2.992
24383SOL    HW175046   9.536   9.907   2.963
24383SOL    HW275047   9.400   9.939   3.022
24384SOL     OW75048   3.585  12.277  13.375
24384SOL    HW175049   3.498  12.307  13.401
24384SOL    HW275050   3.632  12.357  13.351
24385SOL     OW75051  10.313   9.103   7.480
24385SOL    HW175052  10.327   9.121   7.573
24385SOL    HW275053  10.225   9.066   7.475
24386SOL     OW75054   2.110   5.367  14.068
24386SOL    HW175055   2.054   5.413  14.131
24386SOL    HW275056   2.050   5.308  14.022
24387SOL     OW75057  11.948   2.508  14.215
24387SOL    HW175058  11.963   2.432  14.159
24387SOL    HW275059  12.030   2.556  14.213
24388SOL     OW75060   8.055   4.998   5.982
24388SOL    HW175061   8.000   5.004   6.060
24388SOL    HW275062   8.126   5.059   5.999
24389SOL     OW75063   3.157  12.651   2.908
24389SOL    HW175064   3.188  12.579   2.962
24389SOL    HW275065   3.085  12.689   2.957
24390SOL     OW75066  13.759   3.543   1.972
24390SOL    HW175067  13.665   3.534   1.956
24390SOL    HW275068  13.800   3.521   1.889
24391SOL     OW75069   2.019   2.930   6.587
24391SOL    HW175070   2.108   2.910   6.557
24391SOL    HW275071   1.982   2.846   6.611
24392SOL     OW75072  13.394   2.596   7.446
24392SOL    HW175073  13.323   2.532   7.445
24392SOL    HW275074  13.460   2.561   7.387
24393SOL     OW75075  12.684  13.638   4.264
24393SOL    HW175076  12.779  13.626   4.262
24393SOL    HW275077  12.649  13.549   4.275
24394SOL     OW75078   5.763   6.953   0.177
24394SOL    HW175079   5.769   6.885   0.244
24394SOL    HW275080   5.773   6.906   0.094
24395SOL     OW75081   9.249   5.883  11.900
24395SOL    HW175082   9.294   5.915  11.822
24395SOL    HW275083   9.157   5.876  11.874
24396SOL     OW75084   2.762  11.313   8.687
24396SOL    HW175085   2.793  11.403   8.686
24396SOL    HW275086   2.696  11.309   8.617
24397SOL     OW75087   0.024   1.210   6.453
24397SOL    HW175088   0.072   1.128   6.443
24397SOL    HW275089  14.862   1.205   6.542
24398SOL     OW75090  14.715  12.706   8.011
24398SOL    HW175091  14.750  12.619   8.033
24398SOL    HW275092  14.622  12.691   7.997
24399SOL     OW75093   4.279   6.770   1.160
24399SOL    HW175094   4.278   6.688   1.211
24399SOL    HW275095   4.354   6.818   1.195
24400SOL     OW75096   3.661   8.314   4.433
24400SOL    HW175097   3.584   8.320   4.488
24400SOL    HW275098   3.658   8.226   4.396
24401SOL     OW75099  14.491   1.256   8.169
24401SOL    HW175100  14.502   1.180   8.111
24401SOL    HW275101  14.497   1.220   8.257
24402SOL     OW75102   0.013  11.866   5.707
24402SOL    HW175103  14.867  11.808   5.780
24402SOL    HW275104  14.821  11.846   5.641
24403SOL     OW75105   5.142   4.125   5.397
24403SOL    HW175106   5.084   4.175   5.339
24403SOL    HW275107   5.140   4.036   5.362
24404SOL     OW75108   2.643   9.968  13.767
24404SOL    HW175109   2.679  10.044  13.812
24404SOL    HW275110   2.713   9.903  13.770
24405SOL     OW75111   0.075   5.632  11.972
24405SOL    HW175112   0.036   5.612  11.887
24405SOL    HW275113   0.163   5.662  11.952
24406SOL     OW75114   5.159   9.678   8.545
24406SOL    HW175115   5.201   9.645   8.465
24406SOL    HW275116   5.165   9.605   8.607
24407SOL     OW75117   0.759   9.238   1.679
24407SOL    HW175118   0.807   9.303   1.730
24407SOL    HW275119   0.816   9.162   1.676
24408SOL     OW75120   2.115  13.873  12.090
24408SOL    HW175121   2.057  13.941  12.055
24408SOL    HW275122   2.071  13.843  12.170
24409SOL     OW75123   6.231  11.790  12.094
24409SOL    HW175124   6.178  11.830  12.024
24409SOL    HW275125   6.264  11.865  12.144
24410SOL     OW75126   2.987   5.475  12.538
24410SOL    HW175127   3.063   5.526  12.564
24410SOL    HW275128   2.986   5.481  12.443
24411SOL     OW75129   3.857   8.849   8.987
24411SOL    HW175130   3.827   8.875   9.074
24411SOL    HW275131   3.785   8.873   8.929
24412SOL     OW75132  10.115  12.119   4.039
24412SOL    HW175133  10.143  12.054   3.975
24412SOL    HW275134  10.120  12.073   4.123
24413SOL     OW75135   4.183  14.385  14.385
24413SOL    HW175136   4.254  14.439  14.420
24413SOL    HW275137   4.196  14.385  14.291
24414SOL     OW75138   6.589   6.135   0.845
24414SOL    HW175139   6.622   6.069   0.906
24414SOL    HW275140   6.662   6.150   0.785
24415SOL     OW75141  11.336   2.988   6.152
24415SOL    HW175142  11.290   3.072   6.154
24415SOL    HW275143  11.422   3.006   6.190
24416SOL     OW75144   9.956  13.995   1.587
24416SOL    HW175145   9.950  13.903   1.612
24416SOL    HW275146   9.865  14.023   1.575
24417SOL     OW75147   2.716   9.071   6.455
24417SOL    HW175148   2.734   9.095   6.364
24417SOL    HW275149   2.628   9.104   6.471
24418SOL     OW75150   1.168  10.517   9.987
24418SOL    HW175151   1.252  10.515  10.033
24418SOL    HW275152   1.118  10.585  10.031
24419SOL     OW75153  12.960  11.769   4.522
24419SOL    HW175154  12.930  11.708   4.454
24419SOL    HW275155  13.018  11.829   4.476
24420SOL     OW75156  11.354   2.413  12.268
24420SOL    HW175157  11.356   2.477  12.197
24420SOL    HW275158  11.433   2.431  12.319
24421SOL     OW75159   9.044  12.905   7.519
24421SOL    HW175160   9.057  12.995   7.550
24421SOL    HW275161   9.130  12.876   7.491
24422SOL     OW75162   1.413   9.850   9.767
24422SOL    HW175163   1.437   9.937   9.736
24422SOL    HW275164   1.339   9.865   9.827
24423SOL     OW75165  11.258   5.420  11.480
24423SOL    HW175166  11.214   5.340  11.454
24423SOL    HW275167  11.191   5.469  11.528
24424SOL     OW75168  14.783  12.818   3.542
24424SOL    HW175169  14.729  12.782   3.612
24424SOL    HW275170  14.723  12.868   3.487
24425SOL     OW75171   2.271  11.552   7.373
24425SOL    HW175172   2.357  11.514   7.387
24425SOL    HW275173   2.258  11.548   7.278
24426SOL     OW75174   6.134   1.209  14.703
24426SOL    HW175175   6.145   1.303  14.689
24426SOL    HW275176   6.064   1.183  14.643
24427SOL     OW75177   2.809   8.812   7.226
24427SOL    HW175178   2.869   8.828   7.299
24427SOL    HW275179   2.796   8.717   7.226
24428SOL     OW75180   5.363  11.019   9.597
24428SOL    HW175181   5.281  11.046   9.639
24428SOL    HW275182   5.427  11.085   9.625
24429SOL     OW75183  14.122   6.599   0.299
24429SOL    HW175184  14.048   6.590   0.239
24429SOL    HW275185  14.198   6.571   0.248
24430SOL     OW75186   3.258   8.590   9.704
24430SOL    HW175187   3.286   8.624   9.789
24430SOL    HW275188   3.200   8.659   9.669
24431SOL     OW75189  10.273   7.035  13.494
24431SOL    HW175190  10.187   7.009  13.463
24431SOL    HW275191  10.310   7.087  13.423
24432SOL     OW75192  11.729   9.910  12.949
24432SOL    HW175193  11.806   9.901  13.005
24432SOL    HW275194  11.660   9.860  12.994
24433SOL     OW75195  14.515   7.716   3.921
24433SOL    HW175196  14.455   7.672   3.981
24433SOL    HW275197  14.460   7.742   3.847
24434SOL     OW75198   2.534   1.694   5.513
24434SOL    HW175199   2.540   1.773   5.459
24434SOL    HW275200   2.503   1.626   5.454
24435SOL     OW75201  11.919  13.793   5.948
24435SOL    HW175202  11.855  13.755   6.008
24435SOL    HW275203  11.936  13.724   5.885
24436SOL     OW75204  14.811  12.118  11.934
24436SOL    HW175205  14.749  12.134  12.006
24436SOL    HW275206  14.856  12.201  11.922
24437SOL     OW75207   6.607   1.333   4.121
24437SOL    HW175208   6.668   1.360   4.189
24437SOL    HW275209   6.590   1.240   4.138
24438SOL     OW75210   9.198  12.182   3.802
24438SOL    HW175211   9.124  12.201   3.860
24438SOL    HW275212   9.270  12.161   3.860
24439SOL     OW75213   9.532   8.361   4.375
24439SOL    HW175214   9.624   8.337   4.380
24439SOL    HW275215   9.493   8.296   4.316
24440SOL     OW75216  13.218  11.816  10.966
24440SOL    HW175217  13.223  11.827  11.061
24440SOL    HW275218  13.306  11.838  10.935
24441SOL     OW75219   7.826   2.734   2.614
24441SOL    HW175220   7.742   2.689   2.606
24441SOL    HW275221   7.888   2.667   2.642
24442SOL     OW75222   6.608   6.617   4.058
24442SOL    HW175223   6.698   6.606   4.088
24442SOL    HW275224   6.596   6.550   3.991
24443SOL     OW75225   7.178   5.205  14.773
24443SOL    HW175226   7.227   5.147  14.715
24443SOL    HW275227   7.180   5.290  14.731
24444SOL     OW75228   4.234  11.764  12.948
24444SOL    HW175229   4.204  11.711  13.022
24444SOL    HW275230   4.190  11.848  12.960
24445SOL     OW75231   2.587   5.033  12.113
24445SOL    HW175232   2.666   5.078  12.082
24445SOL    HW275233   2.515   5.091  12.089
24446SOL     OW75234  12.330   0.832   6.634
24446SOL    HW175235  12.382   0.905   6.667
24446SOL    HW275236  12.374   0.754   6.667
24447SOL     OW75237  10.916  13.350   5.192
24447SOL    HW175238  10.950  13.267   5.226
24447SOL    HW275239  10.960  13.417   5.245
24448SOL     OW75240  14.411   9.947   3.586
24448SOL    HW175241  14.491   9.922   3.632
24448SOL    HW275242  14.415   9.896   3.504
24449SOL     OW75243   4.674  10.308   3.754
24449SOL    HW175244   4.686  10.332   3.662
24449SOL    HW275245   4.729  10.369   3.803
24450SOL     OW75246   2.101   7.233  11.026
24450SOL    HW175247   2.088   7.227  11.121
24450SOL    HW275248   2.117   7.143  10.998
24451SOL     OW75249   6.205  12.915   4.093
24451SOL    HW175250   6.272  12.874   4.038
24451SOL    HW275251   6.234  12.897   4.183
24452SOL     OW75252   6.099   8.634   4.297
24452SOL    HW175253   6.190   8.649   4.324
24452SOL    HW275254   6.047   8.676   4.364
24453SOL     OW75255  13.880   5.637   2.019
24453SOL    HW175256  13.854   5.557   2.063
24453SOL    HW275257  13.863   5.707   2.082
24454SOL     OW75258   3.456   9.571   6.196
24454SOL    HW175259   3.421   9.621   6.271
24454SOL    HW275260   3.551   9.581   6.203
24455SOL     OW75261  14.720   1.805   0.510
24455SOL    HW175262  14.791   1.818   0.448
24455SOL    HW275263  14.645   1.780   0.456
24456SOL     OW75264   5.874  11.575  12.040
24456SOL    HW175265   5.860  11.610  11.952
24456SOL    HW275266   5.823  11.494  12.042
24457SOL     OW75267  12.429   3.770   5.415
24457SOL    HW175268  12.413   3.800   5.504
24457SOL    HW275269  12.473   3.686   5.425
24458SOL     OW75270   7.019   0.767   8.492
24458SOL    HW175271   7.031   0.765   8.397
24458SOL    HW275272   6.925   0.772   8.505
24459SOL     OW75273   5.274   8.494   6.255
24459SOL    HW175274   5.195   8.443   6.270
24459SOL    HW275275   5.263   8.572   6.309
24460SOL     OW75276   6.763   9.191  13.621
24460SOL    HW175277   6.777   9.238  13.703
24460SOL    HW275278   6.847   9.195  13.576
24461SOL     OW75279   8.076   2.862   0.861
24461SOL    HW175280   8.017   2.819   0.799
24461SOL    HW275281   8.122   2.927   0.809
24462SOL     OW75282   1.754   5.997  12.751
24462SOL    HW175283   1.828   6.031  12.801
24462SOL    HW275284   1.792   5.930  12.694
24463SOL     OW75285   9.912  13.803   9.848
24463SOL    HW175286   9.841  13.759   9.803
24463SOL    HW275287   9.991  13.754   9.824
24464SOL     OW75288  14.685  13.505  14.670
24464SOL    HW175289  14.606  13.456  14.693
24464SOL    HW275290  14.685  13.507  14.574
24465SOL     OW75291   5.721   2.903   7.798
24465SOL    HW175292   5.729   2.827   7.740
24465SOL    HW275293   5.728   2.979   7.740
24466SOL     OW75294  13.998  11.241   2.174
24466SOL    HW175295  13.964  11.266   2.260
24466SOL    HW275296  13.959  11.155   2.158
24467SOL     OW75297   4.081   1.507   0.111
24467SOL    HW175298   4.125   1.574   0.059
24467SOL    HW275299   4.014   1.555   0.160
24468SOL     OW75300  11.844   0.601   8.935
24468SOL    HW175301  11.915   0.538   8.944
24468SOL    HW275302  11.873   0.678   8.984
24469SOL     OW75303   1.332  12.437   5.366
24469SOL    HW175304   1.288  12.519   5.384
24469SOL    HW275305   1.403  12.459   5.306
24470SOL     OW75306  12.751   9.371   7.357
24470SOL    HW175307  12.735   9.460   7.326
24470SOL    HW275308  12.664   9.339   7.381
24471SOL     OW75309   1.297  13.725   9.294
24471SOL    HW175310   1.347  13.804   9.276
24471SOL    HW275311   1.206  13.750   9.281
24472SOL     OW75312  12.981  11.789  14.278
24472SOL    HW175313  13.049  11.801  14.212
24472SOL    HW275314  13.023  11.813  14.360
24473SOL     OW75315   2.845  14.162   3.038
24473SOL    HW175316   2.839  14.207   2.954
24473SOL    HW275317   2.874  14.074   3.017
24474SOL     OW75318  14.345   7.397   9.714
24474SOL    HW175319  14.275   7.335   9.733
24474SOL    HW275320  14.386   7.414   9.799
24475SOL     OW75321   2.442   7.203  10.611
24475SOL    HW175322   2.438   7.202  10.706
24475SOL    HW275323   2.444   7.295  10.587
24476SOL     OW75324   0.430   1.192   5.599
24476SOL    HW175325   0.520   1.161   5.584
24476SOL    HW275326   0.401   1.223   5.513
24477SOL     OW75327  13.170   8.110   7.366
24477SOL    HW175328  13.084   8.150   7.376
24477SOL    HW275329  13.207   8.109   7.454
24478SOL     OW75330   0.682  10.155   1.880
24478SOL    HW175331   0.620  10.163   1.807
24478SOL    HW275332   0.642  10.090   1.938
24479SOL     OW75333  14.182   2.574   7.055
24479SOL    HW175334  14.196   2.575   6.960
24479SOL    HW275335  14.199   2.483   7.081
24480SOL     OW75336  11.319  11.596  12.191
24480SOL    HW175337  11.338  11.617  12.100
24480SOL    HW275338  11.333  11.679  12.238
24481SOL     OW75339  13.729   4.430  11.981
24481SOL    HW175340  13.652   4.374  11.995
24481SOL    HW275341  13.777   4.386  11.911
24482SOL     OW75342   5.346   6.983   7.561
24482SOL    HW175343   5.327   7.023   7.646
24482SOL    HW275344   5.442   6.978   7.559
24483SOL     OW75345   9.562   5.620   6.237
24483SOL    HW175346   9.648   5.641   6.201
24483SOL    HW275347   9.565   5.525   6.253
24484SOL     OW75348   4.037   8.990   0.269
24484SOL    HW175349   4.030   8.896   0.282
24484SOL    HW275350   4.079   9.000   0.184
24485SOL     OW75351   8.753   1.727   4.333
24485SOL    HW175352   8.721   1.653   4.384
24485SOL    HW275353   8.701   1.726   4.253
24486SOL     OW75354   7.656   0.893   5.457
24486SOL    HW175355   7.734   0.913   5.508
24486SOL    HW275356   7.603   0.839   5.515
24487SOL     OW75357   2.718   6.247   2.979
24487SOL    HW175358   2.784   6.274   3.043
24487SOL    HW275359   2.765   6.243   2.896
24488SOL     OW75360  13.238  10.786   8.982
24488SOL    HW175361  13.209  10.781   9.073
24488SOL    HW275362  13.250  10.695   8.956
24489SOL     OW75363   0.069   8.247   1.127
24489SOL    HW175364  14.848   8.257   1.125
24489SOL    HW275365   0.093   8.273   1.216
24490SOL     OW75366   4.451  12.651  14.341
24490SOL    HW175367   4.494  12.566  14.332
24490SOL    HW275368   4.504  12.710  14.287
24491SOL     OW75369  14.302   1.615  13.630
24491SOL    HW175370  14.346   1.698  13.646
24491SOL    HW275371  14.368   1.548  13.650
24492SOL     OW75372   4.411  13.111  11.076
24492SOL    HW175373   4.451  13.025  11.085
24492SOL    HW275374   4.320  13.092  11.051
24493SOL     OW75375  13.896  13.407   0.562
24493SOL    HW175376  13.927  13.368   0.643
24493SOL    HW275377  13.920  13.500   0.569
24494SOL     OW75378  13.841  11.676   2.947
24494SOL    HW175379  13.883  11.732   2.882
24494SOL    HW275380  13.821  11.734   3.020
24495SOL     OW75381   7.809   4.648  11.585
24495SOL    HW175382   7.883   4.649  11.646
24495SOL    HW275383   7.765   4.565  11.602
24496SOL     OW75384  11.150   2.665   8.035
24496SOL    HW175385  11.204   2.622   7.969
24496SOL    HW275386  11.206   2.667   8.113
24497SOL     OW75387  13.354   4.326   8.644
24497SOL    HW175388  13.416   4.378   8.593
24497SOL    HW275389  13.374   4.236   8.620
24498SOL     OW75390   5.241  14.032  14.131
24498SOL    HW175391   5.326  14.043  14.173
24498SOL    HW275392   5.197  14.117  14.143
24499SOL     OW75393   4.700   3.832   8.550
24499SOL    HW175394   4.777   3.797   8.504
24499SOL    HW275395   4.672   3.760   8.607
24500SOL     OW75396   0.796   0.262   9.393
24500SOL    HW175397   0.711   0.253   9.349
24500SOL    HW275398   0.794   0.349   9.432
24501SOL     OW75399   1.737   5.985  14.624
24501SOL    HW175400   1.744   6.054  14.690
24501SOL    HW275401   1.650   5.998  14.586
24502SOL     OW75402   7.981  11.919  13.420
24502SOL    HW175403   7.974  11.852  13.352
24502SOL    HW275404   8.061  11.967  13.398
24503SOL     OW75405   6.062  13.282   6.829
24503SOL    HW175406   6.006  13.317   6.759
24503SOL    HW275407   6.102  13.359   6.868
24504SOL     OW75408   7.273   8.334   8.882
24504SOL    HW175409   7.299   8.247   8.851
24504SOL    HW275410   7.300   8.394   8.812
24505SOL     OW75411  14.507   2.362  11.948
24505SOL    HW175412  14.558   2.440  11.927
24505SOL    HW275413  14.502   2.361  12.044
24506SOL     OW75414   5.031  14.463  11.485
24506SOL    HW175415   5.055  14.424  11.401
24506SOL    HW275416   5.087  14.541  11.491
24507SOL     OW75417  13.453   7.179   0.718
24507SOL    HW175418  13.414   7.155   0.803
24507SOL    HW275419  13.517   7.110   0.701
24508SOL     OW75420   2.690   2.587  12.943
24508SOL    HW175421   2.623   2.598  12.875
24508SOL    HW275422   2.641   2.564  13.021
24509SOL     OW75423  13.968  11.936  13.009
24509SOL    HW175424  13.883  11.914  12.971
24509SOL    HW275425  14.014  11.985  12.941
24510SOL     OW75426   6.529   7.842   4.813
24510SOL    HW175427   6.444   7.806   4.789
24510SOL    HW275428   6.590   7.768   4.807
24511SOL     OW75429  10.827   3.291   1.405
24511SOL    HW175430  10.822   3.338   1.322
24511SOL    HW275431  10.760   3.223   1.399
24512SOL     OW75432  13.551   1.777  12.839
24512SOL    HW175433  13.469   1.819  12.811
24512SOL    HW275434  13.618   1.844  12.823
24513SOL     OW75435   6.306   8.091   5.181
24513SOL    HW175436   6.221   8.136   5.183
24513SOL    HW275437   6.365   8.150   5.227
24514SOL     OW75438   5.051   8.245   9.538
24514SOL    HW175439   4.972   8.272   9.491
24514SOL    HW275440   5.077   8.163   9.497
24515SOL     OW75441   3.693  11.637   1.566
24515SOL    HW175442   3.719  11.680   1.647
24515SOL    HW275443   3.601  11.613   1.579
24516SOL     OW75444   8.342   0.436  14.563
24516SOL    HW175445   8.395   0.492  14.620
24516SOL    HW275446   8.406   0.382  14.517
24517SOL     OW75447   9.522   2.770  12.653
24517SOL    HW175448   9.453   2.828  12.620
24517SOL    HW275449   9.557   2.814  12.730
24518SOL     OW75450   6.492  11.609   1.775
24518SOL    HW175451   6.417  11.655   1.815
24518SOL    HW275452   6.564  11.623   1.836
24519SOL     OW75453  14.233  11.060   8.756
24519SOL    HW175454  14.327  11.079   8.765
24519SOL    HW275455  14.202  11.126   8.693
24520SOL     OW75456   1.332  12.615   7.924
24520SOL    HW175457   1.253  12.663   7.900
24520SOL    HW275458   1.301  12.531   7.958
24521SOL     OW75459   1.880   0.371   4.287
24521SOL    HW175460   1.969   0.398   4.265
24521SOL    HW275461   1.825   0.408   4.217
24522SOL     OW75462  10.979   9.504   3.359
24522SOL    HW175463  10.945   9.594   3.361
24522SOL    HW275464  10.925   9.457   3.422
24523SOL     OW75465   7.064   4.994   4.559
24523SOL    HW175466   7.061   4.905   4.523
24523SOL    HW275467   7.146   5.031   4.526
24524SOL     OW75468   7.401   4.112  10.363
24524SOL    HW175469   7.345   4.121  10.441
24524SOL    HW275470   7.486   4.146  10.390
24525SOL     OW75471   1.820   8.463   3.051
24525SOL    HW175472   1.894   8.412   3.084
24525SOL    HW275473   1.859   8.546   3.025
24526SOL     OW75474  13.793   5.940   8.168
24526SOL    HW175475  13.718   5.881   8.180
24526SOL    HW275476  13.863   5.902   8.221
24527SOL     OW75477   5.073   7.253  14.851
24527SOL    HW175478   5.065   7.348  14.852
24527SOL    HW275479   5.108   7.231   0.063
24528SOL     OW75480   0.244  14.507   8.406
24528SOL    HW175481   0.205  14.556   8.478
24528SOL    HW275482   0.251  14.417   8.439
24529SOL     OW75483  10.552   1.065  11.696
24529SOL    HW175484  10.483   1.053  11.630
24529SOL    HW275485  10.632   1.037  11.652
24530SOL     OW75486   0.716  10.613   0.752
24530SOL    HW175487   0.789  10.606   0.812
24530SOL    HW275488   0.679  10.525   0.749
24531SOL     OW75489  12.516  11.182   2.782
24531SOL    HW175490  12.580  11.210   2.848
24531SOL    HW275491  12.432  11.188   2.827
24532SOL     OW75492   2.495   4.240   0.815
24532SOL    HW175493   2.485   4.237   0.910
24532SOL    HW275494   2.468   4.329   0.791
24533SOL     OW75495   2.527   4.612   8.324
24533SOL    HW175496   2.577   4.673   8.379
24533SOL    HW275497   2.562   4.526   8.345
24534SOL     OW75498   7.030  10.822   8.141
24534SOL    HW175499   7.084  10.747   8.164
24534SOL    HW275500   7.093  10.891   8.121
24535SOL     OW75501   0.634   2.541   9.094
24535SOL    HW175502   0.680   2.518   9.013
24535SOL    HW275503   0.583   2.462   9.115
24536SOL     OW75504   8.979   0.648   8.893
24536SOL    HW175505   8.945   0.563   8.923
24536SOL    HW275506   9.013   0.689   8.973
24537SOL     OW75507   2.716  11.704   8.502
24537SOL    HW175508   2.771  11.652   8.560
24537SOL    HW275509   2.709  11.790   8.545
24538SOL     OW75510  14.752   0.154   7.919
24538SOL    HW175511  14.813   0.099   7.968
24538SOL    HW275512  14.726   0.222   7.982
24539SOL     OW75513  11.766  10.820   9.251
24539SOL    HW175514  11.730  10.906   9.269
24539SOL    HW275515  11.844  10.837   9.197
24540SOL     OW75516   2.670   6.763  13.845
24540SOL    HW175517   2.757   6.732  13.871
24540SOL    HW275518   2.679   6.783  13.752
24541SOL     OW75519  13.169   7.440   4.432
24541SOL    HW175520  13.140   7.371   4.374
24541SOL    HW275521  13.236   7.399   4.487
24542SOL     OW75522   1.074   7.096   9.483
24542SOL    HW175523   1.138   7.137   9.543
24542SOL    HW275524   0.994   7.089   9.535
24543SOL     OW75525  12.593  10.459  12.900
24543SOL    HW175526  12.682  10.493  12.892
24543SOL    HW275527  12.599  10.391  12.967
24544SOL     OW75528   5.545   4.359   2.332
24544SOL    HW175529   5.478   4.292   2.329
24544SOL    HW275530   5.502   4.434   2.375
24545SOL     OW75531   9.493  14.579   0.598
24545SOL    HW175532   9.486  14.611   0.688
24545SOL    HW275533   9.583  14.597   0.573
24546SOL     OW75534   9.277  12.645   0.052
24546SOL    HW175535   9.357  12.616   0.009
24546SOL    HW275536   9.290  12.739   0.065
24547SOL     OW75537   5.091   5.081   5.277
24547SOL    HW175538   5.041   5.115   5.203
24547SOL    HW275539   5.182   5.086   5.248
24548SOL     OW75540  13.587   2.513  14.641
24548SOL    HW175541  13.541   2.597  14.643
24548SOL    HW275542  13.584   2.486  14.550
24549SOL     OW75543   3.323   6.546   6.225
24549SOL    HW175544   3.308   6.632   6.187
24549SOL    HW275545   3.240   6.522   6.265
24550SOL     OW75546   7.395   5.576   7.050
24550SOL    HW175547   7.320   5.625   7.085
24550SOL    HW275548   7.386   5.489   7.087
24551SOL     OW75549   5.403  12.206  13.306
24551SOL    HW175550   5.407  12.111  13.306
24551SOL    HW275551   5.325  12.227  13.254
24552SOL     OW75552   9.758   4.335   4.103
24552SOL    HW175553   9.752   4.399   4.174
24552SOL    HW275554   9.703   4.370   4.034
24553SOL     OW75555   5.447   0.618   8.710
24553SOL    HW175556   5.478   0.565   8.636
24553SOL    HW275557   5.507   0.596   8.782
24554SOL     OW75558  11.452   8.696  12.661
24554SOL    HW175559  11.429   8.605  12.643
24554SOL    HW275560  11.389   8.724  12.727
24555SOL     OW75561   8.843   3.930  13.195
24555SOL    HW175562   8.808   3.986  13.126
24555SOL    HW275563   8.825   3.977  13.276
24556SOL     OW75564   3.297   4.544   2.724
24556SOL    HW175565   3.274   4.620   2.672
24556SOL    HW275566   3.379   4.567   2.766
24557SOL     OW75567   4.622  10.061   5.284
24557SOL    HW175568   4.654  10.074   5.373
24557SOL    HW275569   4.536  10.104   5.282
24558SOL     OW75570   8.310  10.541   1.779
24558SOL    HW175571   8.365  10.503   1.710
24558SOL    HW275572   8.361  10.615   1.812
24559SOL     OW75573   6.897   8.574   5.044
24559SOL    HW175574   6.975   8.626   5.023
24559SOL    HW275575   6.858   8.554   4.959
24560SOL     OW75576   9.763  12.713   9.182
24560SOL    HW175577   9.824  12.761   9.239
24560SOL    HW275578   9.812  12.699   9.101
24561SOL     OW75579   2.713   5.275  11.207
24561SOL    HW175580   2.622   5.251  11.221
24561SOL    HW275581   2.748   5.205  11.152
24562SOL     OW75582   2.794   9.377  12.971
24562SOL    HW175583   2.828   9.289  12.980
24562SOL    HW275584   2.800   9.395  12.877
24563SOL     OW75585   2.011  12.280  13.512
24563SOL    HW175586   2.006  12.229  13.431
24563SOL    HW275587   2.081  12.343  13.496
24564SOL     OW75588   9.772   6.045   0.121
24564SOL    HW175589   9.753   6.093   0.201
24564SOL    HW275590   9.868   6.042   0.116
24565SOL     OW75591   0.906   6.996   3.060
24565SOL    HW175592   0.993   6.995   3.021
24565SOL    HW275593   0.857   7.061   3.009
24566SOL     OW75594   0.318   3.447  13.351
24566SOL    HW175595   0.233   3.463  13.391
24566SOL    HW275596   0.302   3.447  13.257
24567SOL     OW75597   2.127   3.632   5.159
24567SOL    HW175598   2.134   3.539   5.184
24567SOL    HW275599   2.188   3.641   5.085
24568SOL     OW75600   5.463   2.373   8.084
24568SOL    HW175601   5.490   2.463   8.068
24568SOL    HW275602   5.465   2.331   7.998
24569SOL     OW75603  10.452   2.760  13.193
24569SOL    HW175604  10.410   2.678  13.219
24569SOL    HW275605  10.524   2.771  13.255
24570SOL     OW75606  12.707   7.209   3.506
24570SOL    HW175607  12.647   7.227   3.578
24570SOL    HW275608  12.744   7.295   3.484
24571SOL     OW75609   8.070   6.142   2.273
24571SOL    HW175610   8.118   6.087   2.211
24571SOL    HW275611   8.095   6.232   2.248
24572SOL     OW75612   2.068   0.744  10.934
24572SOL    HW175613   2.120   0.809  10.887
24572SOL    HW275614   2.119   0.663  10.927
24573SOL     OW75615   1.859  11.621  12.621
24573SOL    HW175616   1.890  11.568  12.695
24573SOL    HW275617   1.818  11.558  12.562
24574SOL     OW75618   9.432   2.462  13.970
24574SOL    HW175619   9.527   2.471  13.957
24574SOL    HW275620   9.395   2.539  13.928
24575SOL     OW75621   3.263   5.792   4.059
24575SOL    HW175622   3.350   5.813   4.025
24575SOL    HW275623   3.231   5.723   4.001
24576SOL     OW75624   2.862  12.568   8.192
24576SOL    HW175625   2.805  12.635   8.229
24576SOL    HW275626   2.886  12.601   8.106
24577SOL     OW75627  12.910   0.105  14.787
24577SOL    HW175628  12.994   0.064  14.806
24577SOL    HW275629  12.898   0.168  14.858
24578SOL     OW75630   5.674   8.292   3.462
24578SOL    HW175631   5.702   8.238   3.537
24578SOL    HW275632   5.585   8.320   3.485
24579SOL     OW75633  11.706   6.466   7.060
24579SOL    HW175634  11.778   6.525   7.082
24579SOL    HW275635  11.632   6.525   7.044
24580SOL     OW75636   7.478   5.928   8.946
24580SOL    HW175637   7.543   5.901   8.882
24580SOL    HW275638   7.518   6.004   8.990
24581SOL     OW75639   7.902   9.276   9.460
24581SOL    HW175640   7.878   9.317   9.543
24581SOL    HW275641   7.946   9.345   9.411
24582SOL     OW75642  12.382  14.756   1.635
24582SOL    HW175643  12.396  14.683   1.575
24582SOL    HW275644  12.289  14.750   1.657
24583SOL     OW75645   4.292   9.269  14.009
24583SOL    HW175646   4.238   9.196  13.979
24583SOL    HW275647   4.249   9.300  14.088
24584SOL     OW75648  12.408   3.738   1.683
24584SOL    HW175649  12.476   3.674   1.703
24584SOL    HW275650  12.357   3.745   1.764
24585SOL     OW75651   8.309   7.447   2.944
24585SOL    HW175652   8.218   7.437   2.917
24585SOL    HW275653   8.359   7.435   2.863
24586SOL     OW75654   4.307  14.393   1.702
24586SOL    HW175655   4.318  14.309   1.747
24586SOL    HW275656   4.219  14.390   1.666
24587SOL     OW75657   6.829   8.015   9.553
24587SOL    HW175658   6.813   7.932   9.597
24587SOL    HW275659   6.765   8.019   9.482
24588SOL     OW75660  14.294  11.089   2.312
24588SOL    HW175661  14.291  11.119   2.221
24588SOL    HW275662  14.222  11.136   2.354
24589SOL     OW75663  11.277   3.707   5.414
24589SOL    HW175664  11.194   3.750   5.439
24589SOL    HW275665  11.269   3.618   5.449
24590SOL     OW75666   6.338  14.676  11.628
24590SOL    HW175667   6.376  14.705  11.545
24590SOL    HW275668   6.406  14.624  11.670
24591SOL     OW75669  11.853  11.747  12.904
24591SOL    HW175670  11.927  11.783  12.953
24591SOL    HW275671  11.883  11.747  12.813
24592SOL     OW75672   2.117  12.644   3.661
24592SOL    HW175673   2.102  12.594   3.581
24592SOL    HW275674   2.092  12.734   3.639
24593SOL     OW75675   0.213   5.001   1.797
24593SOL    HW175676   0.229   5.059   1.872
24593SOL    HW275677   0.247   4.916   1.824
24594SOL     OW75678   3.969   6.123   4.785
24594SOL    HW175679   3.914   6.179   4.839
24594SOL    HW275680   4.047   6.175   4.766
24595SOL     OW75681   4.277   9.908   3.306
24595SOL    HW175682   4.186   9.918   3.279
24595SOL    HW275683   4.316   9.994   3.289
24596SOL     OW75684   0.881   0.514  14.077
24596SOL    HW175685   0.953   0.535  14.018
24596SOL    HW275686   0.902   0.426  14.111
24597SOL     OW75687  13.873  10.528   5.970
24597SOL    HW175688  13.887  10.602   6.029
24597SOL    HW275689  13.789  10.548   5.927
24598SOL     OW75690   2.916   8.266   4.001
24598SOL    HW175691   2.877   8.235   3.919
24598SOL    HW275692   2.891   8.200   4.066
24599SOL     OW75693   5.849   1.728  12.361
24599SOL    HW175694   5.761   1.753  12.390
24599SOL    HW275695   5.902   1.806  12.377
24600SOL     OW75696   7.148   9.252   9.256
24600SOL    HW175697   7.098   9.204   9.322
24600SOL    HW275698   7.125   9.210   9.173
24601SOL     OW75699   8.666   3.229   0.562
24601SOL    HW175700   8.739   3.213   0.502
24601SOL    HW275701   8.672   3.160   0.628
24602SOL     OW75702   7.115   3.637   9.128
24602SOL    HW175703   7.075   3.636   9.216
24602SOL    HW275704   7.130   3.545   9.108
24603SOL     OW75705   4.069   7.554   7.780
24603SOL    HW175706   4.093   7.472   7.738
24603SOL    HW275707   4.001   7.530   7.843
24604SOL     OW75708   0.757   1.097   9.929
24604SOL    HW175709   0.703   1.127  10.002
24604SOL    HW275710   0.846   1.124   9.952
24605SOL     OW75711   1.125   9.940   1.143
24605SOL    HW175712   1.206   9.898   1.173
24605SOL    HW275713   1.132   9.941   1.048
24606SOL     OW75714   1.194   5.740  12.455
24606SOL    HW175715   1.103   5.768  12.468
24606SOL    HW275716   1.218   5.780  12.371
24607SOL     OW75717   0.828   3.666   4.903
24607SOL    HW175718   0.826   3.709   4.988
24607SOL    HW275719   0.743   3.623   4.896
24608SOL     OW75720   0.815   9.327  12.176
24608SOL    HW175721   0.820   9.233  12.162
24608SOL    HW275722   0.888   9.347  12.234
24609SOL     OW75723  10.993  10.066   0.810
24609SOL    HW175724  11.011  10.013   0.888
24609SOL    HW275725  10.907  10.103   0.825
24610SOL     OW75726   5.992  10.114   1.067
24610SOL    HW175727   5.991  10.152   0.979
24610SOL    HW275728   5.900  10.107   1.092
24611SOL     OW75729   3.614  12.315   0.807
24611SOL    HW175730   3.669  12.363   0.746
24611SOL    HW275731   3.666  12.309   0.887
24612SOL     OW75732   1.115   9.525   7.122
24612SOL    HW175733   1.188   9.522   7.061
24612SOL    HW275734   1.082   9.436   7.125
24613SOL     OW75735   6.460  14.435  12.647
24613SOL    HW175736   6.437  14.488  12.723
24613SOL    HW275737   6.463  14.497  12.574
24614SOL     OW75738   1.185  11.097   7.846
24614SOL    HW175739   1.105  11.084   7.796
24614SOL    HW275740   1.161  11.071   7.935
24615SOL     OW75741  14.717   4.336   0.285
24615SOL    HW175742  14.642   4.373   0.238
24615SOL    HW275743  14.742   4.405   0.347
24616SOL     OW75744   5.798   5.817   0.137
24616SOL    HW175745   5.803   5.911   0.122
24616SOL    HW275746   5.739   5.808   0.212
24617SOL     OW75747   0.260   0.698   1.467
24617SOL    HW175748   0.173   0.688   1.506
24617SOL    HW275749   0.271   0.793   1.457
24618SOL     OW75750  14.859   6.103   3.503
24618SOL    HW175751   0.066   6.152   3.514
24618SOL    HW275752  14.804   6.159   3.449
24619SOL     OW75753   3.152  11.108   5.168
24619SOL    HW175754   3.091  11.148   5.230
24619SOL    HW275755   3.218  11.176   5.152
24620SOL     OW75756  14.614   9.697   8.380
24620SOL    HW175757  14.604   9.664   8.469
24620SOL    HW275758  14.609   9.618   8.325
24621SOL     OW75759   9.869   6.937   3.228
24621SOL    HW175760   9.884   6.923   3.322
24621SOL    HW275761   9.956   6.954   3.192
24622SOL     OW75762  11.507   0.693  14.868
24622SOL    HW175763  11.434   0.698  14.807
24622SOL    HW275764  11.467   0.686   0.079
24623SOL     OW75765   8.951  12.294   7.458
24623SOL    HW175766   8.970  12.382   7.490
24623SOL    HW275767   8.931  12.306   7.365
24624SOL     OW75768   2.289   4.389   7.859
24624SOL    HW175769   2.258   4.479   7.864
24624SOL    HW275770   2.296   4.371   7.765
24625SOL     OW75771  11.271   8.438   8.769
24625SOL    HW175772  11.306   8.397   8.689
24625SOL    HW275773  11.269   8.367   8.833
24626SOL     OW75774   9.055   8.001   3.431
24626SOL    HW175775   9.007   8.072   3.386
24626SOL    HW275776   9.142   8.002   3.390
24627SOL     OW75777   6.016   6.930   3.719
24627SOL    HW175778   6.010   6.951   3.812
24627SOL    HW275779   6.094   6.978   3.689
24628SOL     OW75780   3.615  13.968   7.433
24628SOL    HW175781   3.689  14.024   7.455
24628SOL    HW275782   3.568  13.956   7.515
24629SOL     OW75783  10.462   0.416   9.770
24629SOL    HW175784  10.433   0.366   9.693
24629SOL    HW275785  10.409   0.382   9.842
24630SOL     OW75786  11.880  12.221   7.764
24630SOL    HW175787  11.801  12.173   7.739
24630SOL    HW275788  11.886  12.292   7.700
24631SOL     OW75789  11.863  12.376  12.494
24631SOL    HW175790  11.922  12.332  12.555
24631SOL    HW275791  11.779  12.377  12.539
24632SOL     OW75792   3.095   5.352  11.418
24632SOL    HW175793   3.103   5.264  11.381
24632SOL    HW275794   3.001   5.362  11.434
24633SOL     OW75795  12.930  14.384   3.269
24633SOL    HW175796  12.834  14.390   3.269
24633SOL    HW275797  12.953  14.358   3.358
24634SOL     OW75798   0.831  10.914  13.928
24634SOL    HW175799   0.772  10.984  13.902
24634SOL    HW275800   0.865  10.941  14.013
24635SOL     OW75801  14.318  14.106   3.834
24635SOL    HW175802  14.394  14.164   3.830
24635SOL    HW275803  14.247  14.157   3.795
24636SOL     OW75804  10.538   3.958   8.378
24636SOL    HW175805  10.581   4.013   8.444
24636SOL    HW275806  10.466   4.013   8.346
24637SOL     OW75807   7.865   5.378   5.553
24637SOL    HW175808   7.794   5.321   5.582
24637SOL    HW275809   7.922   5.320   5.501
24638SOL     OW75810  14.304   8.241   4.089
24638SOL    HW175811  14.380   8.266   4.036
24638SOL    HW275812  14.257   8.177   4.035
24639SOL     OW75813   4.625   4.261  10.614
24639SOL    HW175814   4.679   4.192  10.576
24639SOL    HW275815   4.667   4.281  10.698
24640SOL     OW75816  11.549   4.791   8.966
24640SOL    HW175817  11.571   4.796   8.873
24640SOL    HW275818  11.557   4.881   8.998
24641SOL     OW75819   3.537  11.864   5.163
24641SOL    HW175820   3.598  11.861   5.088
24641SOL    HW275821   3.592  11.893   5.236
24642SOL     OW75822  14.869  10.482  11.930
24642SOL    HW175823  14.832  10.399  11.900
24642SOL    HW275824   0.084  10.461  11.954
24643SOL     OW75825  12.633   2.091  14.094
24643SOL    HW175826  12.647   2.102  14.188
24643SOL    HW275827  12.593   2.173  14.066
24644SOL     OW75828  10.239   8.527   4.754
24644SOL    HW175829  10.318   8.562   4.797
24644SOL    HW275830  10.168   8.584   4.784
24645SOL     OW75831   3.464   6.907   7.436
24645SOL    HW175832   3.559   6.895   7.434
24645SOL    HW275833   3.446   6.944   7.522
24646SOL     OW75834   1.166   1.241   4.504
24646SOL    HW175835   1.139   1.265   4.592
24646SOL    HW275836   1.086   1.210   4.462
24647SOL     OW75837  10.391   6.816   3.834
24647SOL    HW175838  10.307   6.859   3.849
24647SOL    HW275839  10.456   6.883   3.855
24648SOL     OW75840  13.322  12.992   9.222
24648SOL    HW175841  13.412  12.960   9.215
24648SOL    HW275842  13.313  13.017   9.314
24649SOL     OW75843   8.290  11.899  10.397
24649SOL    HW175844   8.314  11.869  10.485
24649SOL    HW275845   8.369  11.941  10.364
24650SOL     OW75846   1.186   3.242   7.353
24650SOL    HW175847   1.276   3.270   7.337
24650SOL    HW275848   1.185   3.216   7.445
24651SOL     OW75849   5.171   8.674   9.347
24651SOL    HW175850   5.243   8.680   9.410
24651SOL    HW275851   5.158   8.580   9.334
24652SOL     OW75852  12.106   5.056   0.974
24652SOL    HW175853  12.084   5.112   0.899
24652SOL    HW275854  12.112   4.968   0.937
24653SOL     OW75855   5.383   7.970   5.985
24653SOL    HW175856   5.444   7.961   5.912
24653SOL    HW275857   5.351   7.881   6.000
24654SOL     OW75858   3.041   8.174  14.047
24654SOL    HW175859   3.057   8.268  14.061
24654SOL    HW275860   3.063   8.134  14.131
24655SOL     OW75861   2.591  11.812   1.094
24655SOL    HW175862   2.580  11.717   1.089
24655SOL    HW275863   2.562  11.844   1.009
24656SOL     OW75864   9.172  13.259   2.441
24656SOL    HW175865   9.187  13.174   2.399
24656SOL    HW275866   9.084  13.252   2.478
24657SOL     OW75867   3.443  11.395   5.568
24657SOL    HW175868   3.366  11.428   5.613
24657SOL    HW275869   3.497  11.472   5.553
24658SOL     OW75870   1.885  12.307   1.832
24658SOL    HW175871   1.936  12.263   1.763
24658SOL    HW275872   1.947  12.368   1.872
24659SOL     OW75873   5.309   4.753   6.185
24659SOL    HW175874   5.303   4.663   6.153
24659SOL    HW275875   5.219   4.786   6.178
24660SOL     OW75876   8.425   7.484  11.184
24660SOL    HW175877   8.514   7.469  11.152
24660SOL    HW275878   8.368   7.455  11.113
24661SOL     OW75879   3.532   3.876  14.633
24661SOL    HW175880   3.469   3.917  14.574
24661SOL    HW275881   3.566   3.801  14.583
24662SOL     OW75882  13.183   3.215  13.978
24662SOL    HW175883  13.169   3.260  14.061
24662SOL    HW275884  13.272   3.238  13.952
24663SOL     OW75885   4.674   1.655  12.699
24663SOL    HW175886   4.766   1.633  12.686
24663SOL    HW275887   4.639   1.583  12.752
24664SOL     OW75888  10.436  10.426   4.853
24664SOL    HW175889  10.482  10.499   4.895
24664SOL    HW275890  10.505  10.375   4.810
24665SOL     OW75891   5.203   7.718  13.897
24665SOL    HW175892   5.209   7.628  13.864
24665SOL    HW275893   5.165   7.709  13.984
24666SOL     OW75894   0.301   5.288  14.309
24666SOL    HW175895   0.259   5.374  14.315
24666SOL    HW275896   0.343   5.288  14.223
24667SOL     OW75897  12.710   0.779   4.051
24667SOL    HW175898  12.767   0.825   4.113
24667SOL    HW275899  12.625   0.824   4.059
24668SOL     OW75900   2.910  12.971   0.838
24668SOL    HW175901   2.964  13.050   0.839
24668SOL    HW275902   2.850  12.984   0.764
24669SOL     OW75903  10.100  11.786   7.576
24669SOL    HW175904  10.031  11.852   7.577
24669SOL    HW275905  10.171  11.826   7.627
24670SOL     OW75906   0.834   7.167   2.883
24670SOL    HW175907   0.756   7.221   2.873
24670SOL    HW275908   0.855   7.138   2.794
24671SOL     OW75909   3.576   0.864  14.542
24671SOL    HW175910   3.602   0.919  14.615
24671SOL    HW275911   3.484   0.844  14.558
24672SOL     OW75912   2.617  14.659   4.578
24672SOL    HW175913   2.545  14.719   4.595
24672SOL    HW275914   2.675  14.707   4.519
24673SOL     OW75915  10.746   0.571  14.034
24673SOL    HW175916  10.810   0.599  14.099
24673SOL    HW275917  10.689   0.510  14.081
24674SOL     OW75918  13.586   8.281   7.377
24674SOL    HW175919  13.574   8.300   7.470
24674SOL    HW275920  13.527   8.341   7.332
24675SOL     OW75921  12.539   9.961  11.116
24675SOL    HW175922  12.599  10.023  11.075
24675SOL    HW275923  12.582   9.934  11.197
24676SOL     OW75924   8.277  10.726   4.223
24676SOL    HW175925   8.266  10.817   4.197
24676SOL    HW275926   8.372  10.714   4.230
24677SOL     OW75927  12.219  14.665   3.984
24677SOL    HW175928  12.168  14.588   4.008
24677SOL    HW275929  12.161  14.715   3.926
24678SOL     OW75930  12.022  11.502  13.131
24678SOL    HW175931  11.932  11.493  13.099
24678SOL    HW275932  12.036  11.426  13.187
24679SOL     OW75933   2.396  12.963   3.571
24679SOL    HW175934   2.432  13.034   3.624
24679SOL    HW275935   2.467  12.900   3.563
24680SOL     OW75936   0.912   8.823   5.839
24680SOL    HW175937   0.820   8.799   5.833
24680SOL    HW275938   0.925   8.889   5.772
24681SOL     OW75939  10.557   8.476  11.579
24681SOL    HW175940  10.466   8.448  11.565
24681SOL    HW275941  10.571   8.467  11.673
24682SOL     OW75942  12.314   9.190   1.816
24682SOL    HW175943  12.234   9.238   1.837
24682SOL    HW275944  12.358   9.179   1.901
24683SOL     OW75945  12.556  10.466  12.344
24683SOL    HW175946  12.598  10.476  12.429
24683SOL    HW275947  12.546  10.371  12.333
24684SOL     OW75948   5.781   1.488  13.588
24684SOL    HW175949   5.759   1.395  13.588
24684SOL    HW275950   5.876   1.490  13.580
24685SOL     OW75951  11.161   7.272   4.301
24685SOL    HW175952  11.147   7.179   4.283
24685SOL    HW275953  11.128   7.316   4.223
24686SOL     OW75954   9.791   4.940  12.229
24686SOL    HW175955   9.815   4.942  12.322
24686SOL    HW275956   9.829   5.019  12.193
24687SOL     OW75957   7.161  11.168   0.253
24687SOL    HW175958   7.186  11.096   0.310
24687SOL    HW275959   7.108  11.225   0.308
24688SOL     OW75960  12.005   4.371   7.607
24688SOL    HW175961  12.009   4.347   7.514
24688SOL    HW275962  11.965   4.295   7.650
24689SOL     OW75963   3.751   6.506  11.152
24689SOL    HW175964   3.730   6.599  11.142
24689SOL    HW275965   3.675   6.469  11.196
24690SOL     OW75966   6.958   4.048   0.727
24690SOL    HW175967   6.888   4.066   0.789
24690SOL    HW275968   6.916   4.056   0.641
24691SOL     OW75969   4.219  13.078   8.948
24691SOL    HW175970   4.228  13.137   9.023
24691SOL    HW275971   4.143  13.024   8.969
24692SOL     OW75972   5.989   5.122   0.425
24692SOL    HW175973   5.995   5.213   0.394
24692SOL    HW275974   6.040   5.072   0.361
24693SOL     OW75975   9.584   9.869   7.797
24693SOL    HW175976   9.571   9.891   7.705
24693SOL    HW275977   9.642   9.938   7.830
24694SOL     OW75978  10.758   0.573   0.352
24694SOL    HW175979  10.823   0.602   0.416
24694SOL    HW275980  10.674   0.598   0.389
24695SOL     OW75981   1.798   5.424   1.789
24695SOL    HW175982   1.741   5.376   1.729
24695SOL    HW275983   1.747   5.500   1.816
24696SOL     OW75984   6.226  11.239  12.910
24696SOL    HW175985   6.286  11.292  12.962
24696SOL    HW275986   6.159  11.209  12.973
24697SOL     OW75987  10.732   9.292   6.644
24697SOL    HW175988  10.714   9.239   6.721
24697SOL    HW275989  10.656   9.279   6.587
24698SOL     OW75990  11.821   9.595   3.045
24698SOL    HW175991  11.858   9.618   3.130
24698SOL    HW275992  11.882   9.632   2.981
24699SOL     OW75993   3.034  14.196   9.054
24699SOL    HW175994   3.126  14.183   9.079
24699SOL    HW275995   2.986  14.192   9.137
24700SOL     OW75996   3.882   8.161   4.712
24700SOL    HW175997   3.897   8.073   4.678
24700SOL    HW275998   3.965   8.186   4.752
24701SOL     OW75999   5.550  10.568  13.250
24701SOL    HW176000   5.587  10.656  13.261
24701SOL    HW276001   5.624  10.514  13.224
24702SOL     OW76002   1.737  11.517  14.659
24702SOL    HW176003   1.771  11.501  14.571
24702SOL    HW276004   1.764  11.440  14.709
24703SOL     OW76005   8.457  13.181   0.935
24703SOL    HW176006   8.446  13.160   1.028
24703SOL    HW276007   8.433  13.101   0.889
24704SOL     OW76008  12.643  12.961  11.009
24704SOL    HW176009  12.728  12.918  10.996
24704SOL    HW276010  12.583  12.890  11.033
24705SOL     OW76011  14.086   8.291  12.146
24705SOL    HW176012  14.067   8.376  12.185
24705SOL    HW276013  14.181   8.292  12.131
24706SOL     OW76014  12.229   9.928   1.865
24706SOL    HW176015  12.155   9.879   1.901
24706SOL    HW276016  12.190  10.011   1.836
24707SOL     OW76017  12.257   9.639  11.204
24707SOL    HW176018  12.294   9.551  11.197
24707SOL    HW276019  12.247   9.653  11.298
24708SOL     OW76020   9.606  11.034   8.794
24708SOL    HW176021   9.593  10.967   8.728
24708SOL    HW276022   9.699  11.056   8.787
24709SOL     OW76023   2.412   2.858  14.407
24709SOL    HW176024   2.457   2.774  14.395
24709SOL    HW276025   2.471   2.922  14.367
24710SOL     OW76026   2.638  14.675  11.818
24710SOL    HW176027   2.585  14.638  11.888
24710SOL    HW276028   2.585  14.746  11.782
24711SOL     OW76029   0.411   7.165  13.754
24711SOL    HW176030   0.366   7.246  13.777
24711SOL    HW276031   0.368   7.136  13.673
24712SOL     OW76032   3.687  10.934  13.494
24712SOL    HW176033   3.625  10.875  13.452
24712SOL    HW276034   3.743  10.877  13.547
24713SOL     OW76035   1.724   1.575   5.465
24713SOL    HW176036   1.698   1.633   5.537
24713SOL    HW276037   1.733   1.489   5.505
24714SOL     OW76038  11.320   4.321   9.545
24714SOL    HW176039  11.299   4.404   9.502
24714SOL    HW276040  11.409   4.301   9.516
24715SOL     OW76041  10.183   1.045   7.096
24715SOL    HW176042  10.230   0.975   7.141
24715SOL    HW276043  10.144   1.097   7.166
24716SOL     OW76044   2.696   5.969   9.878
24716SOL    HW176045   2.615   5.919   9.866
24716SOL    HW276046   2.675   6.031   9.948
24717SOL     OW76047  10.835   1.240   8.677
24717SOL    HW176048  10.786   1.302   8.732
24717SOL    HW276049  10.774   1.219   8.606
24718SOL     OW76050   1.230  12.151   4.833
24718SOL    HW176051   1.268  12.182   4.752
24718SOL    HW276052   1.162  12.088   4.806
24719SOL     OW76053   6.752  14.305   0.030
24719SOL    HW176054   6.695  14.271   0.099
24719SOL    HW276055   6.707  14.383  14.873
24720SOL     OW76056   7.121   0.394   7.650
24720SOL    HW176057   7.122   0.482   7.687
24720SOL    HW276058   7.118   0.336   7.726
24721SOL     OW76059   7.464   2.898   0.505
24721SOL    HW176060   7.552   2.896   0.469
24721SOL    HW276061   7.465   2.970   0.568
24722SOL     OW76062   6.261   8.866  11.245
24722SOL    HW176063   6.293   8.824  11.165
24722SOL    HW276064   6.178   8.821  11.264
24723SOL     OW76065  13.220   3.175  11.025
24723SOL    HW176066  13.206   3.089  10.985
24723SOL    HW276067  13.263   3.226  10.956
24724SOL     OW76068   3.777  13.645   0.855
24724SOL    HW176069   3.709  13.713   0.852
24724SOL    HW276070   3.728  13.563   0.862
24725SOL     OW76071  10.959   6.705   9.115
24725SOL    HW176072  10.895   6.774   9.131
24725SOL    HW276073  10.910   6.624   9.126
24726SOL     OW76074   4.864   2.952   2.656
24726SOL    HW176075   4.910   2.884   2.705
24726SOL    HW276076   4.898   2.945   2.567
24727SOL     OW76077  10.616   1.585   9.938
24727SOL    HW176078  10.582   1.599   9.850
24727SOL    HW276079  10.546   1.538   9.984
24728SOL     OW76080   0.359  11.638   7.917
24728SOL    HW176081   0.377  11.579   7.991
24728SOL    HW276082   0.329  11.580   7.847
24729SOL     OW76083  12.124   5.402  12.540
24729SOL    HW176084  12.125   5.409  12.445
24729SOL    HW276085  12.032   5.418  12.564
24730SOL     OW76086   5.872   0.364   9.648
24730SOL    HW176087   5.798   0.395   9.596
24730SOL    HW276088   5.833   0.309   9.716
24731SOL     OW76089   4.892   5.805   9.172
24731SOL    HW176090   4.861   5.889   9.205
24731SOL    HW276091   4.813   5.760   9.142
24732SOL     OW76092   6.395  11.197   5.609
24732SOL    HW176093   6.474  11.188   5.556
24732SOL    HW276094   6.365  11.107   5.624
24733SOL     OW76095   9.951  10.841   7.888
24733SOL    HW176096   9.933  10.867   7.798
24733SOL    HW276097   9.880  10.879   7.939
24734SOL     OW76098  12.585  12.607   8.864
24734SOL    HW176099  12.594  12.701   8.873
24734SOL    HW276100  12.673  12.572   8.879
24735SOL     OW76101  10.005   8.429   6.910
24735SOL    HW176102  10.100   8.439   6.914
24735SOL    HW276103   9.972   8.471   6.989
24736SOL     OW76104   4.615  12.983   1.623
24736SOL    HW176105   4.624  12.889   1.638
24736SOL    HW276106   4.541  12.991   1.564
24737SOL     OW76107   7.364   0.019   1.313
24737SOL    HW176108   7.325  14.864   1.396
24737SOL    HW276109   7.379  14.813   1.264
24738SOL     OW76110  14.116  13.313   6.328
24738SOL    HW176111  14.200  13.324   6.284
24738SOL    HW276112  14.096  13.220   6.319
24739SOL     OW76113  11.909   3.434  13.343
24739SOL    HW176114  11.897   3.437  13.248
24739SOL    HW276115  11.821   3.420  13.378
24740SOL     OW76116   5.290   2.709  11.556
24740SOL    HW176117   5.252   2.625  11.529
24740SOL    HW276118   5.215   2.767  11.567
24741SOL     OW76119   8.595   1.258   4.052
24741SOL    HW176120   8.646   1.210   4.118
24741SOL    HW276121   8.529   1.195   4.023
24742SOL     OW76122   8.398   3.943   3.644
24742SOL    HW176123   8.404   3.880   3.715
24742SOL    HW276124   8.489   3.971   3.629
24743SOL     OW76125  10.414   0.081  12.989
24743SOL    HW176126  10.397  14.862  12.995
24743SOL    HW276127  10.351   0.120  13.049
24744SOL     OW76128   7.294   6.102  14.267
24744SOL    HW176129   7.231   6.123  14.337
24744SOL    HW276130   7.357   6.044  14.310
24745SOL     OW76131  11.907   7.927   2.713
24745SOL    HW176132  11.894   7.875   2.634
24745SOL    HW276133  11.818   7.951   2.741
24746SOL     OW76134   2.973   7.258   3.764
24746SOL    HW176135   2.947   7.287   3.851
24746SOL    HW276136   2.976   7.338   3.711
24747SOL     OW76137  14.004   9.554  11.454
24747SOL    HW176138  14.075   9.582  11.397
24747SOL    HW276139  14.044   9.550  11.541
24748SOL     OW76140   5.825   0.596   8.757
24748SOL    HW176141   5.827   0.639   8.843
24748SOL    HW276142   5.771   0.518   8.770
24749SOL     OW76143  13.780  12.093   7.434
24749SOL    HW176144  13.732  12.146   7.497
24749SOL    HW276145  13.749  12.004   7.450
24750SOL     OW76146   6.400   2.268   4.619
24750SOL    HW176147   6.424   2.359   4.636
24750SOL    HW276148   6.391   2.263   4.524
24751SOL     OW76149   0.928   6.229  14.139
24751SOL    HW176150   0.877   6.253  14.216
24751SOL    HW276151   0.995   6.297  14.132
24752SOL     OW76152  12.517  13.462   0.000
24752SOL    HW176153  12.441  13.510  14.841
24752SOL    HW276154  12.489  13.371   0.001
24753SOL     OW76155  11.368   1.002  14.015
24753SOL    HW176156  11.398   1.041  13.933
24753SOL    HW276157  11.357   0.909  13.995
24754SOL     OW76158   9.992   7.868  12.098
24754SOL    HW176159  10.060   7.879  12.163
24754SOL    HW276160  10.038   7.870  12.014
24755SOL     OW76161   7.236   0.896   7.172
24755SOL    HW176162   7.308   0.958   7.164
24755SOL    HW276163   7.273   0.823   7.221
24756SOL     OW76164   0.233   2.720   3.282
24756SOL    HW176165   0.205   2.642   3.235
24756SOL    HW276166   0.323   2.735   3.252
24757SOL     OW76167   6.030   6.655   4.583
24757SOL    HW176168   6.044   6.745   4.612
24757SOL    HW276169   5.954   6.625   4.632
24758SOL     OW76170  10.701   5.344  12.265
24758SOL    HW176171  10.686   5.254  12.238
24758SOL    HW276172  10.760   5.337  12.340
24759SOL     OW76173  13.482   3.317  10.266
24759SOL    HW176174  13.444   3.379  10.329
24759SOL    HW276175  13.415   3.250  10.255
24760SOL     OW76176  14.439   6.565   8.266
24760SOL    HW176177  14.509   6.509   8.232
24760SOL    HW276178  14.359   6.523   8.235
24761SOL     OW76179   3.812   1.450   6.303
24761SOL    HW176180   3.879   1.513   6.330
24761SOL    HW276181   3.729   1.496   6.316
24762SOL     OW76182  13.498   7.382   0.536
24762SOL    HW176183  13.480   7.314   0.601
24762SOL    HW276184  13.587   7.362   0.506
24763SOL     OW76185  13.158  14.330   9.270
24763SOL    HW176186  13.219  14.275   9.320
24763SOL    HW276187  13.144  14.282   9.188
24764SOL     OW76188   0.736  12.498  10.098
24764SOL    HW176189   0.692  12.446  10.165
24764SOL    HW276190   0.665  12.536  10.046
24765SOL     OW76191   5.419   3.112   8.944
24765SOL    HW176192   5.459   3.065   8.871
24765SOL    HW276193   5.359   3.049   8.983
24766SOL     OW76194   8.824   2.265   9.277
24766SOL    HW176195   8.747   2.210   9.265
24766SOL    HW276196   8.797   2.333   9.339
24767SOL     OW76197   9.580   7.054   7.375
24767SOL    HW176198   9.497   7.029   7.334
24767SOL    HW276199   9.615   7.124   7.319
24768SOL     OW76200  12.444  10.657   3.445
24768SOL    HW176201  12.499  10.695   3.376
24768SOL    HW276202  12.473  10.566   3.451
24769SOL     OW76203   5.073   3.023   5.695
24769SOL    HW176204   5.068   2.953   5.760
24769SOL    HW276205   4.998   3.079   5.714
24770SOL     OW76206   0.259  13.043   2.929
24770SOL    HW176207   0.188  13.090   2.885
24770SOL    HW276208   0.217  13.006   3.007
24771SOL     OW76209   3.199   5.076  11.918
24771SOL    HW176210   3.181   5.146  11.980
24771SOL    HW276211   3.122   5.020  11.921
24772SOL     OW76212   7.446   2.818  13.646
24772SOL    HW176213   7.526   2.765  13.656
24772SOL    HW276214   7.405   2.783  13.567
24773SOL     OW76215   2.758  14.450   6.277
24773SOL    HW176216   2.799  14.448   6.364
24773SOL    HW276217   2.760  14.359   6.247
24774SOL     OW76218   8.018  10.231   7.921
24774SOL    HW176219   7.941  10.186   7.885
24774SOL    HW276220   7.996  10.246   8.013
24775SOL     OW76221  11.625   5.000  10.601
24775SOL    HW176222  11.626   4.905  10.604
24775SOL    HW276223  11.621   5.021  10.507
24776SOL     OW76224   4.985   0.113   3.814
24776SOL    HW176225   4.901   0.157   3.827
24776SOL    HW276226   4.982   0.038   3.873
24777SOL     OW76227   5.131   3.160   6.424
24777SOL    HW176228   5.210   3.115   6.453
24777SOL    HW276229   5.162   3.238   6.380
24778SOL     OW76230   1.453   5.055  14.804
24778SOL    HW176231   1.400   5.037  14.726
24778SOL    HW276232   1.504   5.133  14.780
24779SOL     OW76233  11.834   3.604   9.233
24779SOL    HW176234  11.771   3.632   9.300
24779SOL    HW276235  11.872   3.524   9.269
24780SOL     OW76236  13.361   6.151  11.915
24780SOL    HW176237  13.300   6.078  11.906
24780SOL    HW276238  13.433   6.130  11.856
24781SOL     OW76239  10.777  12.622   8.388
24781SOL    HW176240  10.700  12.676   8.371
24781SOL    HW276241  10.746  12.552   8.445
24782SOL     OW76242   0.984   6.851   6.553
24782SOL    HW176243   1.077   6.834   6.535
24782SOL    HW276244   0.954   6.901   6.477
24783SOL     OW76245   8.654  11.606   6.890
24783SOL    HW176246   8.574  11.590   6.840
24783SOL    HW276247   8.684  11.518   6.915
24784SOL     OW76248  10.691  13.018  14.292
24784SOL    HW176249  10.655  13.020  14.381
24784SOL    HW276250  10.636  13.077  14.242
24785SOL     OW76251  10.028   3.254   8.804
24785SOL    HW176252   9.987   3.174   8.836
24785SOL    HW276253   9.956   3.315   8.792
24786SOL     OW76254  10.739   1.135   2.974
24786SOL    HW176255  10.776   1.107   2.891
24786SOL    HW276256  10.655   1.088   2.979
24787SOL     OW76257   6.427  11.171   8.701
24787SOL    HW176258   6.409  11.152   8.793
24787SOL    HW276259   6.522  11.158   8.692
24788SOL     OW76260  11.825   7.865   1.331
24788SOL    HW176261  11.879   7.789   1.308
24788SOL    HW276262  11.736   7.831   1.332
24789SOL     OW76263   5.003   9.616   7.320
24789SOL    HW176264   5.090   9.585   7.294
24789SOL    HW276265   4.943   9.552   7.281
24790SOL     OW76266   9.008   4.304   4.443
24790SOL    HW176267   9.073   4.245   4.403
24790SOL    HW276268   8.954   4.246   4.497
24791SOL     OW76269  13.029   3.317   5.346
24791SOL    HW176270  13.093   3.385   5.367
24791SOL    HW276271  12.950   3.366   5.321
24792SOL     OW76272   0.966   4.254   3.926
24792SOL    HW176273   1.048   4.287   3.890
24792SOL    HW276274   0.903   4.263   3.855
24793SOL     OW76275   1.481   3.056   1.746
24793SOL    HW176276   1.524   3.026   1.826
24793SOL    HW276277   1.405   2.998   1.737
24794SOL     OW76278   4.064   5.344   5.130
24794SOL    HW176279   4.034   5.333   5.040
24794SOL    HW276280   4.110   5.428   5.130
24795SOL     OW76281   0.497   0.807   8.349
24795SOL    HW176282   0.459   0.873   8.290
24795SOL    HW276283   0.519   0.734   8.291
24796SOL     OW76284   9.683   0.166  12.578
24796SOL    HW176285   9.634   0.238  12.618
24796SOL    HW276286   9.766   0.206  12.551
24797SOL     OW76287  14.610  14.266  11.330
24797SOL    HW176288  14.636  14.279  11.421
24797SOL    HW276289  14.654  14.335  11.281
24798SOL     OW76290   2.736   8.680   9.809
24798SOL    HW176291   2.763   8.761   9.853
24798SOL    HW276292   2.806   8.618   9.827
24799SOL     OW76293   3.526   9.723  13.404
24799SOL    HW176294   3.570   9.661  13.346
24799SOL    HW276295   3.588   9.794  13.417
24800SOL     OW76296   4.625  14.581   4.096
24800SOL    HW176297   4.700  14.577   4.155
24800SOL    HW276298   4.549  14.583   4.154
24801SOL     OW76299  14.805   1.902  14.574
24801SOL    HW176300  14.740   1.898  14.503
24801SOL    HW276301  14.770   1.845  14.642
24802SOL     OW76302   9.711  13.734   3.663
24802SOL    HW176303   9.749  13.794   3.599
24802SOL    HW276304   9.695  13.654   3.614
24803SOL     OW76305   3.287   6.235   5.512
24803SOL    HW176306   3.260   6.312   5.561
24803SOL    HW276307   3.291   6.165   5.577
24804SOL     OW76308   4.555  13.566   7.139
24804SOL    HW176309   4.557  13.636   7.203
24804SOL    HW276310   4.463  13.538   7.137
24805SOL     OW76311   4.676   7.004   8.031
24805SOL    HW176312   4.581   7.018   8.038
24805SOL    HW276313   4.700   7.044   7.948
24806SOL     OW76314   9.847  13.308   6.319
24806SOL    HW176315   9.787  13.249   6.364
24806SOL    HW276316   9.934  13.276   6.343
24807SOL     OW76317  13.750   1.640  13.331
24807SOL    HW176318  13.686   1.705  13.301
24807SOL    HW276319  13.698   1.562  13.348
24808SOL     OW76320   8.227   8.203  10.975
24808SOL    HW176321   8.265   8.271  10.919
24808SOL    HW276322   8.132   8.215  10.966
24809SOL     OW76323   3.285  12.810   2.718
24809SOL    HW176324   3.243  12.767   2.793
24809SOL    HW276325   3.214  12.823   2.655
24810SOL     OW76326   5.460  14.593   8.913
24810SOL    HW176327   5.414  14.608   8.996
24810SOL    HW276328   5.462  14.679   8.871
24811SOL     OW76329   1.534  13.110   7.096
24811SOL    HW176330   1.453  13.060   7.088
24811SOL    HW276331   1.534  13.169   7.021
24812SOL     OW76332   3.983   8.434   6.166
24812SOL    HW176333   3.962   8.423   6.073
24812SOL    HW276334   3.912   8.488   6.201
24813SOL     OW76335   3.425  12.281  10.467
24813SOL    HW176336   3.487  12.301  10.537
24813SOL    HW276337   3.468  12.312  10.388
24814SOL     OW76338  13.374   1.565  14.342
24814SOL    HW176339  13.391   1.654  14.312
24814SOL    HW276340  13.291   1.541  14.301
24815SOL     OW76341   3.840   1.009   6.701
24815SOL    HW176342   3.784   1.063   6.756
24815SOL    HW276343   3.925   1.009   6.746
24816SOL     OW76344  12.536  14.559   4.212
24816SOL    HW176345  12.458  14.554   4.268
24816SOL    HW276346  12.575  14.644   4.234
24817SOL     OW76347   7.127   9.529   1.758
24817SOL    HW176348   7.101   9.449   1.712
24817SOL    HW276349   7.152   9.499   1.846
24818SOL     OW76350   8.182   0.470   3.010
24818SOL    HW176351   8.224   0.535   3.066
24818SOL    HW276352   8.248   0.448   2.944
24819SOL     OW76353   7.442   3.188   4.992
24819SOL    HW176354   7.520   3.222   5.036
24819SOL    HW276355   7.472   3.164   4.904
24820SOL     OW76356   9.013   2.788  11.244
24820SOL    HW176357   8.947   2.812  11.309
24820SOL    HW276358   9.010   2.693  11.239
24821SOL     OW76359   0.805  12.278   8.781
24821SOL    HW176360   0.713  12.268   8.805
24821SOL    HW276361   0.826  12.368   8.806
24822SOL     OW76362  13.726   3.108   8.381
24822SOL    HW176363  13.798   3.087   8.322
24822SOL    HW276364  13.652   3.126   8.324
24823SOL     OW76365   2.767  14.434  10.903
24823SOL    HW176366   2.843  14.488  10.928
24823SOL    HW276367   2.695  14.497  10.895
24824SOL     OW76368   2.667   5.136  13.482
24824SOL    HW176369   2.641   5.135  13.574
24824SOL    HW276370   2.612   5.203  13.441
24825SOL     OW76371  11.418   0.184  14.840
24825SOL    HW176372  11.506   0.222  14.831
24825SOL    HW276373  11.377   0.199  14.755
24826SOL     OW76374  14.795   4.800   7.644
24826SOL    HW176375  14.836   4.817   7.729
24826SOL    HW276376  14.762   4.710   7.651
24827SOL     OW76377   0.827   5.326   9.775
24827SOL    HW176378   0.919   5.334   9.752
24827SOL    HW276379   0.826   5.325   9.871
24828SOL     OW76380  10.589   5.622  10.592
24828SOL    HW176381  10.566   5.676  10.516
24828SOL    HW276382  10.578   5.532  10.561
24829SOL     OW76383  12.257   1.438   9.853
24829SOL    HW176384  12.328   1.478   9.902
24829SOL    HW276385  12.190   1.418   9.919
24830SOL     OW76386  13.199   3.247  10.113
24830SOL    HW176387  13.137   3.228  10.042
24830SOL    HW276388  13.284   3.218  10.079
24831SOL     OW76389  11.601   3.613  11.921
24831SOL    HW176390  11.687   3.645  11.945
24831SOL    HW276391  11.584   3.651  11.835
24832SOL     OW76392  14.154   6.998  10.477
24832SOL    HW176393  14.080   6.982  10.417
24832SOL    HW276394  14.134   7.083  10.517
24833SOL     OW76395   1.346  11.619   0.462
24833SOL    HW176396   1.309  11.697   0.419
24833SOL    HW276397   1.270  11.569   0.490
24834SOL     OW76398   8.847   5.489   3.110
24834SOL    HW176399   8.890   5.523   3.031
24834SOL    HW276400   8.917   5.482   3.174
24835SOL     OW76401   4.363   6.532   5.671
24835SOL    HW176402   4.414   6.476   5.730
24835SOL    HW276403   4.281   6.484   5.656
24836SOL     OW76404  14.639   4.739  10.112
24836SOL    HW176405  14.625   4.820  10.161
24836SOL    HW276406  14.557   4.690  10.124
24837SOL     OW76407   7.117  14.495   6.359
24837SOL    HW176408   7.166  14.416   6.338
24837SOL    HW276409   7.141  14.557   6.289
24838SOL     OW76410  13.193   5.082   8.267
24838SOL    HW176411  13.144   5.072   8.186
24838SOL    HW276412  13.178   5.172   8.294
24839SOL     OW76413   9.199   8.985  12.786
24839SOL    HW176414   9.207   8.982  12.881
24839SOL    HW276415   9.213   9.077  12.763
24840SOL     OW76416   4.539  11.053   6.473
24840SOL    HW176417   4.586  11.048   6.390
24840SOL    HW276418   4.527  10.962   6.500
24841SOL     OW76419  10.111   4.667   6.497
24841SOL    HW176420  10.092   4.756   6.527
24841SOL    HW276421  10.080   4.611   6.569
24842SOL     OW76422   7.027   8.226   8.688
24842SOL    HW176423   7.087   8.271   8.629
24842SOL    HW276424   7.055   8.134   8.685
24843SOL     OW76425  13.664  14.320  12.404
24843SOL    HW176426  13.633  14.248  12.349
24843SOL    HW276427  13.650  14.398  12.350
24844SOL     OW76428   9.999   1.889   3.944
24844SOL    HW176429   9.922   1.880   3.887
24844SOL    HW276430   9.962   1.905   4.031
24845SOL     OW76431  12.929   6.845   8.505
24845SOL    HW176432  12.985   6.827   8.580
24845SOL    HW276433  12.983   6.820   8.429
24846SOL     OW76434   0.410   1.061   7.000
24846SOL    HW176435   0.370   1.148   6.997
24846SOL    HW276436   0.372   1.014   6.926
24847SOL     OW76437  11.815   5.937   5.774
24847SOL    HW176438  11.821   5.954   5.680
24847SOL    HW276439  11.748   5.868   5.781
24848SOL     OW76440   5.848   5.143  11.443
24848SOL    HW176441   5.886   5.158  11.529
24848SOL    HW276442   5.879   5.216  11.390
24849SOL     OW76443   6.230  14.705   8.994
24849SOL    HW176444   6.168  14.646   9.037
24849SOL    HW276445   6.211  14.696   8.900
24850SOL     OW76446  14.087   1.568   1.047
24850SOL    HW176447  14.072   1.659   1.024
24850SOL    HW276448  14.055   1.518   0.972
24851SOL     OW76449   6.025   3.923   7.380
24851SOL    HW176450   5.998   3.987   7.314
24851SOL    HW276451   6.106   3.959   7.417
24852SOL     OW76452   6.983  14.073  10.168
24852SOL    HW176453   6.925  14.075  10.092
24852SOL    HW276454   7.057  14.128  10.143
24853SOL     OW76455   9.801   3.514   1.044
24853SOL    HW176456   9.890   3.494   1.016
24853SOL    HW276457   9.802   3.608   1.063
24854SOL     OW76458  11.030   2.202  11.223
24854SOL    HW176459  11.055   2.287  11.189
24854SOL    HW276460  10.935   2.200  11.217
24855SOL     OW76461  13.717   7.017   3.651
24855SOL    HW176462  13.695   6.937   3.603
24855SOL    HW276463  13.673   7.007   3.736
24856SOL     OW76464   4.018   1.952   5.002
24856SOL    HW176465   3.982   1.943   4.914
24856SOL    HW276466   4.043   2.044   5.010
24857SOL     OW76467  10.949  11.219  10.795
24857SOL    HW176468  10.989  11.270  10.724
24857SOL    HW276469  10.953  11.276  10.871
24858SOL     OW76470   6.764   0.181  13.014
24858SOL    HW176471   6.716   0.229  13.081
24858SOL    HW276472   6.701   0.167  12.943
24859SOL     OW76473  12.447  10.337  11.677
24859SOL    HW176474  12.365  10.324  11.630
24859SOL    HW276475  12.422  10.347  11.768
24860SOL     OW76476  12.351   4.207  10.654
24860SOL    HW176477  12.419   4.198  10.587
24860SOL    HW276478  12.316   4.118  10.664
24861SOL     OW76479  10.280  13.889  14.259
24861SOL    HW176480  10.277  13.983  14.240
24861SOL    HW276481  10.242  13.881  14.346
24862SOL     OW76482   0.743  13.322   0.135
24862SOL    HW176483   0.757  13.228   0.137
24862SOL    HW276484   0.830  13.359   0.153
24863SOL     OW76485   7.601  10.974   4.776
24863SOL    HW176486   7.675  11.033   4.766
24863SOL    HW276487   7.619  10.901   4.717
24864SOL     OW76488   3.160   8.403   1.123
24864SOL    HW176489   3.184   8.432   1.035
24864SOL    HW276490   3.241   8.368   1.159
24865SOL     OW76491  14.525   5.120   0.257
24865SOL    HW176492  14.459   5.056   0.284
24865SOL    HW276493  14.481   5.205   0.268
24866SOL     OW76494  14.382   7.375   2.552
24866SOL    HW176495  14.360   7.285   2.530
24866SOL    HW276496  14.356   7.426   2.475
24867SOL     OW76497   0.691   6.369   2.857
24867SOL    HW176498   0.698   6.345   2.950
24867SOL    HW276499   0.678   6.464   2.858
24868SOL     OW76500   1.577   1.538   3.108
24868SOL    HW176501   1.555   1.523   3.200
24868SOL    HW276502   1.666   1.503   3.099
24869SOL     OW76503  13.160   4.363  13.526
24869SOL    HW176504  13.073   4.325  13.514
24869SOL    HW276505  13.213   4.291  13.559
24870SOL     OW76506   6.238  10.684   6.433
24870SOL    HW176507   6.251  10.744   6.507
24870SOL    HW276508   6.172  10.622   6.463
24871SOL     OW76509   5.270   1.077   6.680
24871SOL    HW176510   5.280   1.137   6.606
24871SOL    HW276511   5.360   1.061   6.709
24872SOL     OW76512   9.194   5.398  14.778
24872SOL    HW176513   9.138   5.323  14.798
24872SOL    HW276514   9.147   5.445  14.709
24873SOL     OW76515  10.301   5.032  12.699
24873SOL    HW176516  10.320   5.060  12.609
24873SOL    HW276517  10.385   5.039  12.744
24874SOL     OW76518   3.846   9.548   2.354
24874SOL    HW176519   3.791   9.482   2.395
24874SOL    HW276520   3.807   9.631   2.380
24875SOL     OW76521  12.217   9.200   8.957
24875SOL    HW176522  12.280   9.259   8.916
24875SOL    HW276523  12.266   9.159   9.029
24876SOL     OW76524   9.988   5.690   2.121
24876SOL    HW176525   9.954   5.602   2.137
24876SOL    HW276526  10.083   5.680   2.120
24877SOL     OW76527   2.411  12.122  10.741
24877SOL    HW176528   2.476  12.116  10.671
24877SOL    HW276529   2.369  12.037  10.742
24878SOL     OW76530   5.318   7.886   3.270
24878SOL    HW176531   5.336   7.941   3.194
24878SOL    HW276532   5.368   7.806   3.255
24879SOL     OW76533   8.670   8.260   4.668
24879SOL    HW176534   8.663   8.307   4.585
24879SOL    HW276535   8.582   8.266   4.706
24880SOL     OW76536  11.428   9.357  13.721
24880SOL    HW176537  11.379   9.275  13.719
24880SOL    HW276538  11.360   9.425  13.724
24881SOL     OW76539  12.572   7.208  13.283
24881SOL    HW176540  12.554   7.115  13.271
24881SOL    HW276541  12.668   7.214  13.283
24882SOL     OW76542  12.645  13.063   4.168
24882SOL    HW176543  12.698  13.086   4.091
24882SOL    HW276544  12.702  13.082   4.243
24883SOL     OW76545  10.195   3.264  10.603
24883SOL    HW176546  10.107   3.286  10.631
24883SOL    HW276547  10.191   3.170  10.583
24884SOL     OW76548   3.478   2.939   6.677
24884SOL    HW176549   3.497   2.948   6.584
24884SOL    HW276550   3.561   2.911   6.716
24885SOL     OW76551   5.903   4.394   0.102
24885SOL    HW176552   5.846   4.317   0.107
24885SOL    HW276553   5.962   4.375   0.029
24886SOL     OW76554   7.569  12.249  12.143
24886SOL    HW176555   7.565  12.238  12.047
24886SOL    HW276556   7.490  12.298  12.165
24887SOL     OW76557   9.247   1.329  11.252
24887SOL    HW176558   9.283   1.392  11.314
24887SOL    HW276559   9.168   1.296  11.295
24888SOL     OW76560  11.449  13.367  13.757
24888SOL    HW176561  11.403  13.342  13.677
24888SOL    HW276562  11.541  13.374  13.730
24889SOL     OW76563   5.449  11.761  14.245
24889SOL    HW176564   5.537  11.729  14.268
24889SOL    HW276565   5.391  11.717  14.308
24890SOL     OW76566   2.410  13.519   2.900
24890SOL    HW176567   2.375  13.472   2.824
24890SOL    HW276568   2.339  13.515   2.965
24891SOL     OW76569  12.003  12.289  12.701
24891SOL    HW176570  12.080  12.275  12.756
24891SOL    HW276571  11.944  12.217  12.723
24892SOL     OW76572   4.568   7.745  10.334
24892SOL    HW176573   4.481   7.773  10.305
24892SOL    HW276574   4.555   7.715  10.424
24893SOL     OW76575   6.023   3.273  13.853
24893SOL    HW176576   6.101   3.278  13.908
24893SOL    HW276577   5.993   3.364  13.846
24894SOL     OW76578  13.747  14.749   8.050
24894SOL    HW176579  13.707  14.815   8.106
24894SOL    HW276580  13.802  14.799   7.989
24895SOL     OW76581   7.398  11.631   4.459
24895SOL    HW176582   7.400  11.704   4.522
24895SOL    HW276583   7.317  11.584   4.479
24896SOL     OW76584   8.842  13.560   8.306
24896SOL    HW176585   8.897  13.483   8.320
24896SOL    HW276586   8.785  13.534   8.233
24897SOL     OW76587  12.490   4.532   5.495
24897SOL    HW176588  12.547   4.510   5.569
24897SOL    HW276589  12.493   4.627   5.490
24898SOL     OW76590  14.604   8.631  12.308
24898SOL    HW176591  14.670   8.571  12.274
24898SOL    HW276592  14.563   8.583  12.380
24899SOL     OW76593  10.292  12.892  13.297
24899SOL    HW176594  10.265  12.878  13.387
24899SOL    HW276595  10.388  12.887  13.300
24900SOL     OW76596   8.426   5.856   7.078
24900SOL    HW176597   8.440   5.872   7.171
24900SOL    HW276598   8.394   5.765   7.074
24901SOL     OW76599   1.727   0.146   0.644
24901SOL    HW176600   1.698   0.141   0.735
24901SOL    HW276601   1.763   0.059   0.626
24902SOL     OW76602  12.761   6.889   1.667
24902SOL    HW176603  12.760   6.861   1.758
24902SOL    HW276604  12.738   6.811   1.617
24903SOL     OW76605   3.968   3.876   2.079
24903SOL    HW176606   3.970   3.940   2.150
24903SOL    HW276607   3.982   3.792   2.123
24904SOL     OW76608   8.489  12.267  12.094
24904SOL    HW176609   8.445  12.297  12.014
24904SOL    HW276610   8.579  12.251  12.067
24905SOL     OW76611   0.077   6.793   7.825
24905SOL    HW176612   0.047   6.864   7.769
24905SOL    HW276613   0.090   6.719   7.766
24906SOL     OW76614  12.011  14.353   4.365
24906SOL    HW176615  11.957  14.275   4.373
24906SOL    HW276616  11.949  14.422   4.339
24907SOL     OW76617   4.352   0.697   5.669
24907SOL    HW176618   4.302   0.627   5.627
24907SOL    HW276619   4.412   0.652   5.729
24908SOL     OW76620   8.258   1.617   1.820
24908SOL    HW176621   8.247   1.689   1.883
24908SOL    HW276622   8.184   1.559   1.837
24909SOL     OW76623  10.870   2.788   9.362
24909SOL    HW176624  10.868   2.860   9.426
24909SOL    HW276625  10.963   2.777   9.342
24910SOL     OW76626  11.982   8.568  12.852
24910SOL    HW176627  11.919   8.595  12.785
24910SOL    HW276628  11.982   8.639  12.915
24911SOL     OW76629   6.349   5.733  13.034
24911SOL    HW176630   6.387   5.765  12.952
24911SOL    HW276631   6.410   5.666  13.064
24912SOL     OW76632  14.095  11.574   7.513
24912SOL    HW176633  14.006  11.562   7.545
24912SOL    HW276634  14.141  11.616   7.586
24913SOL     OW76635   3.564   8.976  14.303
24913SOL    HW176636   3.614   8.922  14.364
24913SOL    HW276637   3.604   8.958  14.218
24914SOL     OW76638  12.261   8.888  11.210
24914SOL    HW176639  12.323   8.959  11.191
24914SOL    HW276640  12.315   8.817  11.244
24915SOL     OW76641  11.325   3.807   5.696
24915SOL    HW176642  11.377   3.745   5.646
24915SOL    HW276643  11.267   3.847   5.632
24916SOL     OW76644  13.565  14.086   9.443
24916SOL    HW176645  13.656  14.109   9.460
24916SOL    HW276646  13.543  14.020   9.509
24917SOL     OW76647   6.144   1.639   2.437
24917SOL    HW176648   6.170   1.703   2.504
24917SOL    HW276649   6.127   1.692   2.359
24918SOL     OW76650   0.354  11.168   5.887
24918SOL    HW176651   0.316  11.151   5.973
24918SOL    HW276652   0.383  11.082   5.856
24919SOL     OW76653  13.787   7.640   3.505
24919SOL    HW176654  13.789   7.548   3.530
24919SOL    HW276655  13.820   7.641   3.415
24920SOL     OW76656  11.469   7.259   5.055
24920SOL    HW176657  11.397   7.254   4.992
24920SOL    HW276658  11.548   7.246   5.002
24921SOL     OW76659  12.565  10.981   7.133
24921SOL    HW176660  12.598  10.893   7.117
24921SOL    HW276661  12.641  11.029   7.166
24922SOL     OW76662   4.486   2.956  13.958
24922SOL    HW176663   4.456   3.032  13.907
24922SOL    HW276664   4.527   2.898  13.894
24923SOL     OW76665   9.244   6.681   0.290
24923SOL    HW176666   9.254   6.678   0.195
24923SOL    HW276667   9.299   6.610   0.322
24924SOL     OW76668   4.933   1.644  12.592
24924SOL    HW176669   4.973   1.674  12.510
24924SOL    HW276670   5.003   1.596  12.636
24925SOL     OW76671   0.929   0.695  12.312
24925SOL    HW176672   0.914   0.754  12.386
24925SOL    HW276673   0.875   0.618  12.330
24926SOL     OW76674   5.271   9.959  11.565
24926SOL    HW176675   5.180   9.989  11.576
24926SOL    HW276676   5.301   9.942  11.654
24927SOL     OW76677  11.940   8.421   5.476
24927SOL    HW176678  11.951   8.499   5.530
24927SOL    HW276679  12.026   8.407   5.437
24928SOL     OW76680  14.099   5.469  13.951
24928SOL    HW176681  14.009   5.467  13.981
24928SOL    HW276682  14.151   5.453  14.030
24929SOL     OW76683  11.434  12.720   0.138
24929SOL    HW176684  11.349  12.696   0.099
24929SOL    HW276685  11.482  12.761   0.066
24930SOL     OW76686   7.640   0.513   5.407
24930SOL    HW176687   7.563   0.548   5.361
24930SOL    HW276688   7.714   0.546   5.357
24931SOL     OW76689  13.219  12.264   2.165
24931SOL    HW176690  13.310  12.235   2.151
24931SOL    HW276691  13.225  12.359   2.175
24932SOL     OW76692  14.789   8.431  10.935
24932SOL    HW176693  14.711   8.452  10.884
24932SOL    HW276694  14.841   8.512  10.934
24933SOL     OW76695  10.542  11.096  11.914
24933SOL    HW176696  10.572  11.171  11.862
24933SOL    HW276697  10.562  11.121  12.005
24934SOL     OW76698  13.225   4.568  10.548
24934SOL    HW176699  13.207   4.480  10.514
24934SOL    HW276700  13.304   4.596  10.502
24935SOL     OW76701   9.728   6.278   8.676
24935SOL    HW176702   9.800   6.256   8.735
24935SOL    HW276703   9.746   6.368   8.648
24936SOL     OW76704   3.679   7.148   0.650
24936SOL    HW176705   3.734   7.211   0.605
24936SOL    HW276706   3.657   7.190   0.734
24937SOL     OW76707  13.533   7.938   8.631
24937SOL    HW176708  13.450   7.977   8.660
24937SOL    HW276709  13.529   7.940   8.536
24938SOL     OW76710  13.652  11.414   2.839
24938SOL    HW176711  13.723  11.394   2.901
24938SOL    HW276712  13.600  11.481   2.884
24939SOL     OW76713  13.332   5.037   3.909
24939SOL    HW176714  13.280   4.989   3.845
24939SOL    HW276715  13.269   5.066   3.975
24940SOL     OW76716   3.873   1.714   7.923
24940SOL    HW176717   3.783   1.709   7.891
24940SOL    HW276718   3.869   1.776   7.997
24941SOL     OW76719  13.512   7.701   7.765
24941SOL    HW176720  13.488   7.655   7.684
24941SOL    HW276721  13.494   7.793   7.745
24942SOL     OW76722   2.068  13.222  11.182
24942SOL    HW176723   2.083  13.251  11.272
24942SOL    HW276724   1.983  13.259  11.159
24943SOL     OW76725  12.223   2.428  14.699
24943SOL    HW176726  12.138   2.460  14.729
24943SOL    HW276727  12.215   2.425  14.603
24944SOL     OW76728  11.388  10.959  11.577
24944SOL    HW176729  11.437  11.042  11.581
24944SOL    HW276730  11.431  10.910  11.507
24945SOL     OW76731  10.821   0.414  10.364
24945SOL    HW176732  10.824   0.430  10.459
24945SOL    HW276733  10.762   0.339  10.355
24946SOL     OW76734  10.669  12.118   5.717
24946SOL    HW176735  10.707  12.105   5.804
24946SOL    HW276736  10.577  12.139   5.735
24947SOL     OW76737   2.751   4.295  13.547
24947SOL    HW176738   2.765   4.388  13.565
24947SOL    HW276739   2.777   4.284  13.455
24948SOL     OW76740  12.157   9.439   0.799
24948SOL    HW176741  12.217   9.416   0.728
24948SOL    HW276742  12.095   9.500   0.759
24949SOL     OW76743   3.524   7.888  13.237
24949SOL    HW176744   3.446   7.869  13.288
24949SOL    HW276745   3.532   7.814  13.177
24950SOL     OW76746   4.398  12.793  11.871
24950SOL    HW176747   4.464  12.754  11.813
24950SOL    HW276748   4.363  12.719  11.920
24951SOL     OW76749   0.626   4.767  12.927
24951SOL    HW176750   0.694   4.827  12.957
24951SOL    HW276751   0.650   4.746  12.836
24952SOL     OW76752  13.778  14.239   4.425
24952SOL    HW176753  13.830  14.305   4.471
24952SOL    HW276754  13.727  14.197   4.494
24953SOL     OW76755   4.445   0.712   0.792
24953SOL    HW176756   4.378   0.763   0.839
24953SOL    HW276757   4.490   0.663   0.861
24954SOL     OW76758  12.630   6.814  13.910
24954SOL    HW176759  12.673   6.894  13.940
24954SOL    HW276760  12.571   6.843  13.841
24955SOL     OW76761   1.825  10.026  13.910
24955SOL    HW176762   1.819   9.957  13.976
24955SOL    HW276763   1.740  10.070  13.914
24956SOL     OW76764   3.992   3.965  14.521
24956SOL    HW176765   4.051   4.019  14.468
24956SOL    HW276766   3.917   3.948  14.465
24957SOL     OW76767   2.152  13.769   4.070
24957SOL    HW176768   2.203  13.765   4.151
24957SOL    HW276769   2.083  13.832   4.088
24958SOL     OW76770   9.963   4.289   5.277
24958SOL    HW176771   9.906   4.329   5.342
24958SOL    HW276772  10.000   4.363   5.228
24959SOL     OW76773   5.216  11.691  13.290
24959SOL    HW176774   5.286  11.628  13.272
24959SOL    HW276775   5.138  11.637  13.307
24960SOL     OW76776  14.307   3.485  13.392
24960SOL    HW176777  14.233   3.462  13.337
24960SOL    HW276778  14.317   3.580  13.381
24961SOL     OW76779   5.803   1.170   7.237
24961SOL    HW176780   5.860   1.105   7.197
24961SOL    HW276781   5.823   1.252   7.191
24962SOL     OW76782   4.329  14.630   4.983
24962SOL    HW176783   4.353  14.723   4.990
24962SOL    HW276784   4.321  14.600   5.073
24963SOL     OW76785   8.233   4.733  11.759
24963SOL    HW176786   8.245   4.644  11.726
24963SOL    HW276787   8.159   4.726  11.819
24964SOL     OW76788  10.019   9.208  13.426
24964SOL    HW176789  10.100   9.229  13.472
24964SOL    HW276790  10.022   9.262  13.347
24965SOL     OW76791  14.760   4.010   9.718
24965SOL    HW176792  14.841   4.058   9.734
24965SOL    HW276793  14.693   4.079   9.708
24966SOL     OW76794   8.291   6.456   5.659
24966SOL    HW176795   8.305   6.378   5.607
24966SOL    HW276796   8.234   6.427   5.731
24967SOL     OW76797   0.409   6.271  13.218
24967SOL    HW176798   0.424   6.256  13.312
24967SOL    HW276799   0.316   6.291  13.212
24968SOL     OW76800   1.270   9.722   6.635
24968SOL    HW176801   1.266   9.656   6.566
24968SOL    HW276802   1.191   9.707   6.687
24969SOL     OW76803   1.698   2.757  11.254
24969SOL    HW176804   1.672   2.674  11.216
24969SOL    HW276805   1.793   2.749  11.264
24970SOL     OW76806  11.765   9.308   9.865
24970SOL    HW176807  11.705   9.234   9.856
24970SOL    HW276808  11.709   9.385   9.872
24971SOL     OW76809   2.170  13.362   7.957
24971SOL    HW176810   2.095  13.309   7.931
24971SOL    HW276811   2.246  13.306   7.941
24972SOL     OW76812   8.379   5.822   0.211
24972SOL    HW176813   8.331   5.740   0.227
24972SOL    HW276814   8.311   5.886   0.193
24973SOL     OW76815  11.759   5.972  12.743
24973SOL    HW176816  11.721   6.059  12.751
24973SOL    HW276817  11.697   5.914  12.786
24974SOL     OW76818   8.155   8.799   0.992
24974SOL    HW176819   8.060   8.794   0.977
24974SOL    HW276820   8.167   8.762   1.080
24975SOL     OW76821  10.625   6.685  14.544
24975SOL    HW176822  10.603   6.694  14.636
24975SOL    HW276823  10.693   6.617  14.542
24976SOL     OW76824   0.200   9.597   3.647
24976SOL    HW176825   0.224   9.530   3.583
24976SOL    HW276826   0.284   9.629   3.681
24977SOL     OW76827   3.178   2.114   1.176
24977SOL    HW176828   3.237   2.038   1.180
24977SOL    HW276829   3.091   2.078   1.195
24978SOL     OW76830   2.929   8.451   9.164
24978SOL    HW176831   2.888   8.412   9.241
24978SOL    HW276832   2.973   8.529   9.197
24979SOL     OW76833  11.719  12.840   1.991
24979SOL    HW176834  11.776  12.767   1.967
24979SOL    HW276835  11.693  12.879   1.908
24980SOL     OW76836   1.498   2.172  14.030
24980SOL    HW176837   1.533   2.157  13.942
24980SOL    HW276838   1.445   2.095  14.048
24981SOL     OW76839  10.465  13.776  12.320
24981SOL    HW176840  10.527  13.833  12.365
24981SOL    HW276841  10.444  13.823  12.239
24982SOL     OW76842   5.277   0.313   6.294
24982SOL    HW176843   5.358   0.279   6.331
24982SOL    HW276844   5.223   0.236   6.278
24983SOL     OW76845  13.743   6.045  14.782
24983SOL    HW176846  13.735   6.100  14.704
24983SOL    HW276847  13.658   6.053  14.826
24984SOL     OW76848   4.708   6.983  10.920
24984SOL    HW176849   4.680   6.912  10.861
24984SOL    HW276850   4.773   7.031  10.869
24985SOL     OW76851   7.573  10.177   5.440
24985SOL    HW176852   7.577  10.117   5.514
24985SOL    HW276853   7.664  10.202   5.424
24986SOL     OW76854   9.998   8.758   3.856
24986SOL    HW176855  10.081   8.786   3.897
24986SOL    HW276856   9.954   8.709   3.925
24987SOL     OW76857  10.915   1.558   6.607
24987SOL    HW176858  10.876   1.644   6.591
24987SOL    HW276859  10.864   1.522   6.680
24988SOL     OW76860   0.543  14.462   8.103
24988SOL    HW176861   0.495  14.387   8.069
24988SOL    HW276862   0.635  14.441   8.088
24989SOL     OW76863   9.029   5.443  14.529
24989SOL    HW176864   9.111   5.400  14.507
24989SOL    HW276865   8.981   5.380  14.582
24990SOL     OW76866  12.177   9.190   6.028
24990SOL    HW176867  12.122   9.155   6.098
24990SOL    HW276868  12.254   9.223   6.074
24991SOL     OW76869   8.315   2.004   6.074
24991SOL    HW176870   8.356   2.046   6.149
24991SOL    HW276871   8.282   2.077   6.021
24992SOL     OW76872  11.772   8.279  10.158
24992SOL    HW176873  11.796   8.359  10.204
24992SOL    HW276874  11.691   8.250  10.200
24993SOL     OW76875  12.186   4.782   0.177
24993SOL    HW176876  12.156   4.691   0.184
24993SOL    HW276877  12.106   4.834   0.187
24994SOL     OW76878  11.388   9.307  10.242
24994SOL    HW176879  11.372   9.254  10.164
24994SOL    HW276880  11.458   9.367  10.217
24995SOL     OW76881  11.964  12.270   5.454
24995SOL    HW176882  11.989  12.208   5.522
24995SOL    HW276883  12.033  12.337   5.456
24996SOL     OW76884   2.792  13.933   8.134
24996SOL    HW176885   2.755  13.933   8.223
24996SOL    HW276886   2.876  13.889   8.143
24997SOL     OW76887   0.460  10.231   3.450
24997SOL    HW176888   0.370  10.203   3.438
24997SOL    HW276889   0.512  10.169   3.399
24998SOL     OW76890   0.982  11.175   5.607
24998SOL    HW176891   0.973  11.259   5.561
24998SOL    HW276892   0.979  11.198   5.699
24999SOL     OW76893  10.137   2.742  14.801
24999SOL    HW176894  10.135   2.790   0.009
24999SOL    HW276895  10.054   2.763  14.759
25000SOL     OW76896   3.698   7.310  14.276
25000SOL    HW176897   3.643   7.364  14.219
25000SOL    HW276898   3.775   7.365  14.294
25001SOL     OW76899   5.684   6.086  13.993
25001SOL    HW176900   5.731   6.002  13.989
25001SOL    HW276901   5.604   6.071  13.943
25002SOL     OW76902  11.179  13.935  10.995
25002SOL    HW176903  11.088  13.903  10.992
25002SOL    HW276904  11.176  14.018  10.947
25003SOL     OW76905  11.400  10.655   7.395
25003SOL    HW176906  11.318  10.657   7.445
25003SOL    HW276907  11.427  10.563   7.398
25004SOL     OW76908  14.005   0.888  12.683
25004SOL    HW176909  13.986   0.815  12.741
25004SOL    HW276910  14.047   0.954  12.739
25005SOL     OW76911  12.223  14.775   9.985
25005SOL    HW176912  12.186  14.803   9.901
25005SOL    HW276913  12.275  14.698   9.964
25006SOL     OW76914  12.384   0.096   4.835
25006SOL    HW176915  12.472   0.059   4.826
25006SOL    HW276916  12.326   0.024   4.812
25007SOL     OW76917   8.419  11.482   5.520
25007SOL    HW176918   8.454  11.411   5.467
25007SOL    HW276919   8.424  11.450   5.610
25008SOL     OW76920   2.248   6.444  14.471
25008SOL    HW176921   2.206   6.364  14.502
25008SOL    HW276922   2.291   6.481  14.549
25009SOL     OW76923  11.447   5.138   0.176
25009SOL    HW176924  11.359   5.111   0.203
25009SOL    HW276925  11.433   5.179   0.090
25010SOL     OW76926  14.528   5.077   5.505
25010SOL    HW176927  14.486   4.991   5.497
25010SOL    HW276928  14.551   5.100   5.415
25011SOL     OW76929   4.548   8.089   1.364
25011SOL    HW176930   4.643   8.078   1.364
25011SOL    HW276931   4.527   8.121   1.452
25012SOL     OW76932  13.316  10.741   3.544
25012SOL    HW176933  13.286  10.742   3.454
25012SOL    HW276934  13.242  10.774   3.595
25013SOL     OW76935   3.740   0.433   2.034
25013SOL    HW176936   3.692   0.511   2.007
25013SOL    HW276937   3.820   0.466   2.074
25014SOL     OW76938   9.243   5.860   2.920
25014SOL    HW176939   9.305   5.896   2.856
25014SOL    HW276940   9.158   5.894   2.893
25015SOL     OW76941   0.230   9.843   0.951
25015SOL    HW176942   0.278   9.761   0.959
25015SOL    HW276943   0.144   9.824   0.986
25016SOL     OW76944  12.218  13.648  12.807
25016SOL    HW176945  12.160  13.702  12.860
25016SOL    HW276946  12.297  13.701  12.797
25017SOL     OW76947   0.614  12.541  11.306
25017SOL    HW176948   0.609  12.636  11.317
25017SOL    HW276949   0.647  12.509  11.390
25018SOL     OW76950  12.683   4.104   6.971
25018SOL    HW176951  12.665   4.169   6.903
25018SOL    HW276952  12.777   4.088   6.964
25019SOL     OW76953   9.534   0.266   6.193
25019SOL    HW176954   9.584   0.330   6.244
25019SOL    HW276955   9.539   0.299   6.103
25020SOL     OW76956  14.632   8.162   6.428
25020SOL    HW176957  14.578   8.101   6.478
25020SOL    HW276958  14.594   8.162   6.340
25021SOL     OW76959  13.783   7.438   5.009
25021SOL    HW176960  13.869   7.404   4.982
25021SOL    HW276961  13.722   7.406   4.943
25022SOL     OW76962  13.840  11.354   8.508
25022SOL    HW176963  13.766  11.294   8.503
25022SOL    HW276964  13.846  11.393   8.420
25023SOL     OW76965   6.899  14.572   9.989
25023SOL    HW176966   6.884  14.578  10.083
25023SOL    HW276967   6.845  14.640   9.950
25024SOL     OW76968   3.206   5.488   1.771
25024SOL    HW176969   3.198   5.398   1.803
25024SOL    HW276970   3.169   5.541   1.841
25025SOL     OW76971   9.752  10.356  12.596
25025SOL    HW176972   9.810  10.326  12.526
25025SOL    HW276973   9.705  10.278  12.624
25026SOL     OW76974   4.680   2.284  11.769
25026SOL    HW176975   4.692   2.193  11.744
25026SOL    HW276976   4.756   2.329  11.733
25027SOL     OW76977   9.751  10.944  12.728
25027SOL    HW176978   9.675  10.899  12.765
25027SOL    HW276979   9.716  10.994  12.654
25028SOL     OW76980   8.172   1.386  11.323
25028SOL    HW176981   8.105   1.430  11.270
25028SOL    HW276982   8.134   1.381  11.411
25029SOL     OW76983   6.355   8.305  13.758
25029SOL    HW176984   6.273   8.341  13.793
25029SOL    HW276985   6.388   8.373  13.699
25030SOL     OW76986   6.681   6.438   4.753
25030SOL    HW176987   6.645   6.522   4.725
25030SOL    HW276988   6.693   6.448   4.847
25031SOL     OW76989   8.701  10.658  10.902
25031SOL    HW176990   8.725  10.662  10.995
25031SOL    HW276991   8.739  10.576  10.871
25032SOL     OW76992  10.275   1.849   6.445
25032SOL    HW176993  10.328   1.904   6.386
25032SOL    HW276994  10.189   1.846   6.404
25033SOL     OW76995   6.074  10.560   5.679
25033SOL    HW176996   6.093  10.522   5.765
25033SOL    HW276997   6.147  10.620   5.662
25034SOL     OW76998   8.322   6.891   7.611
25034SOL    HW176999   8.325   6.867   7.704
25034SOL    HW277000   8.254   6.835   7.574
25035SOL     OW77001   9.229  12.611   1.864
25035SOL    HW177002   9.280  12.545   1.818
25035SOL    HW277003   9.242  12.591   1.957
25036SOL     OW77004   6.561  11.418   0.134
25036SOL    HW177005   6.489  11.427   0.072
25036SOL    HW277006   6.584  11.325   0.131
25037SOL     OW77007   2.977   6.978   2.049
25037SOL    HW177008   3.047   6.925   2.011
25037SOL    HW277009   2.960   7.045   1.983
25038SOL     OW77010   9.292  13.964   9.500
25038SOL    HW177011   9.267  14.053   9.524
25038SOL    HW277012   9.354  13.937   9.569
25039SOL     OW77013   9.848   4.899   9.858
25039SOL    HW177014   9.864   4.812   9.893
25039SOL    HW277015   9.923   4.917   9.802
25040SOL     OW77016  14.060   5.437  13.023
25040SOL    HW177017  14.065   5.343  13.039
25040SOL    HW277018  14.101   5.477  13.099
25041SOL     OW77019   0.356   0.131  10.005
25041SOL    HW177020   0.363   0.049  10.055
25041SOL    HW277021   0.339   0.198  10.072
25042SOL     OW77022  11.648   8.971  10.737
25042SOL    HW177023  11.625   8.930  10.653
25042SOL    HW277024  11.737   8.941  10.755
25043SOL     OW77025   2.331   0.335   3.241
25043SOL    HW177026   2.278   0.264   3.203
25043SOL    HW277027   2.350   0.392   3.167
25044SOL     OW77028  13.295   6.637   3.776
25044SOL    HW177029  13.316   6.544   3.782
25044SOL    HW277030  13.234   6.644   3.703
25045SOL     OW77031  13.566   6.997   4.246
25045SOL    HW177032  13.641   6.960   4.200
25045SOL    HW277033  13.490   6.961   4.199
25046SOL     OW77034  14.110   4.736   8.528
25046SOL    HW177035  14.112   4.684   8.609
25046SOL    HW277036  14.156   4.681   8.464
25047SOL     OW77037   3.836   7.258   5.491
25047SOL    HW177038   3.921   7.229   5.459
25047SOL    HW277039   3.854   7.341   5.535
25048SOL     OW77040  10.004  14.535   9.022
25048SOL    HW177041   9.927  14.584   9.049
25048SOL    HW277042   9.973  14.444   9.014
25049SOL     OW77043   7.067   9.844   0.400
25049SOL    HW177044   7.052   9.937   0.383
25049SOL    HW277045   6.984   9.802   0.376
25050SOL     OW77046  13.061   9.101  13.298
25050SOL    HW177047  13.104   9.078  13.380
25050SOL    HW277048  13.048   9.017  13.253
25051SOL     OW77049   6.216   2.614   1.320
25051SOL    HW177050   6.226   2.559   1.242
25051SOL    HW277051   6.148   2.570   1.372
25052SOL     OW77052   9.886   8.709   1.108
25052SOL    HW177053   9.947   8.662   1.051
25052SOL    HW277054   9.837   8.641   1.153
25053SOL     OW77055   5.133   5.443   1.891
25053SOL    HW177056   5.047   5.429   1.851
25053SOL    HW277057   5.187   5.373   1.854
25054SOL     OW77058  10.921   7.485  12.194
25054SOL    HW177059  10.957   7.530  12.271
25054SOL    HW277060  10.993   7.432  12.162
25055SOL     OW77061   1.561  12.519  13.283
25055SOL    HW177062   1.552  12.485  13.193
25055SOL    HW277063   1.642  12.478  13.315
25056SOL     OW77064   5.754   2.340   1.902
25056SOL    HW177065   5.779   2.290   1.980
25056SOL    HW277066   5.793   2.292   1.829
25057SOL     OW77067   1.476  13.938   3.886
25057SOL    HW177068   1.381  13.950   3.891
25057SOL    HW277069   1.492  13.855   3.930
25058SOL     OW77070  12.942   3.591   1.965
25058SOL    HW177071  12.987   3.586   1.881
25058SOL    HW277072  12.918   3.500   1.985
25059SOL     OW77073   6.021  12.654   7.210
25059SOL    HW177074   5.944  12.675   7.263
25059SOL    HW277075   6.071  12.735   7.207
25060SOL     OW77076   7.448  11.237  10.286
25060SOL    HW177077   7.493  11.258  10.204
25060SOL    HW277078   7.360  11.212  10.258
25061SOL     OW77079   2.796   7.179  10.051
25061SOL    HW177080   2.882   7.180  10.093
25061SOL    HW277081   2.803   7.111   9.984
25062SOL     OW77082   1.687   4.029   6.793
25062SOL    HW177083   1.630   4.038   6.716
25062SOL    HW277084   1.684   4.115   6.836
25063SOL     OW77085   6.229   5.679   4.004
25063SOL    HW177086   6.204   5.771   3.999
25063SOL    HW277087   6.299   5.676   4.070
25064SOL     OW77088   4.133  10.041   4.382
25064SOL    HW177089   4.147  10.135   4.373
25064SOL    HW277090   4.071  10.033   4.455
25065SOL     OW77091   5.874   4.020  10.166
25065SOL    HW177092   5.966   4.001  10.145
25065SOL    HW277093   5.875   4.110  10.199
25066SOL     OW77094   1.838   6.118  10.999
25066SOL    HW177095   1.872   6.047  11.054
25066SOL    HW277096   1.745   6.124  11.021
25067SOL     OW77097   7.489   6.359   6.777
25067SOL    HW177098   7.437   6.301   6.722
25067SOL    HW277099   7.440   6.441   6.778
25068SOL     OW77100  13.115   4.318   9.199
25068SOL    HW177101  13.174   4.248   9.171
25068SOL    HW277102  13.090   4.362   9.118
25069SOL     OW77103  14.528   5.163   5.995
25069SOL    HW177104  14.556   5.094   5.935
25069SOL    HW277105  14.577   5.240   5.966
25070SOL     OW77106   8.039   2.965   6.992
25070SOL    HW177107   8.008   3.022   7.062
25070SOL    HW277108   8.107   3.016   6.947
25071SOL     OW77109  12.153   1.769   4.422
25071SOL    HW177110  12.163   1.717   4.502
25071SOL    HW277111  12.073   1.818   4.435
25072SOL     OW77112  10.674  13.268   5.053
25072SOL    HW177113  10.759  13.296   5.086
25072SOL    HW277114  10.640  13.209   5.120
25073SOL     OW77115   9.809   1.034  14.173
25073SOL    HW177116   9.900   1.050  14.197
25073SOL    HW277117   9.781   0.961  14.228
25074SOL     OW77118  14.176  10.618   4.095
25074SOL    HW177119  14.226  10.561   4.037
25074SOL    HW277120  14.192  10.585   4.183
25075SOL     OW77121  10.554   9.552  10.333
25075SOL    HW177122  10.576   9.536  10.242
25075SOL    HW277123  10.638   9.553  10.379
25076SOL     OW77124  12.347   9.643  11.524
25076SOL    HW177125  12.440   9.627  11.538
25076SOL    HW277126  12.329   9.724  11.572
25077SOL     OW77127  12.806   2.773  13.402
25077SOL    HW177128  12.717   2.807  13.408
25077SOL    HW277129  12.845   2.793  13.487
25078SOL     OW77130  14.718   4.124  13.499
25078SOL    HW177131  14.719   4.174  13.581
25078SOL    HW277132  14.810   4.121  13.473
25079SOL     OW77133   1.305   1.684  11.219
25079SOL    HW177134   1.347   1.609  11.177
25079SOL    HW277135   1.360   1.759  11.194
25080SOL     OW77136  11.072  11.143  13.060
25080SOL    HW177137  11.120  11.141  13.143
25080SOL    HW277138  10.982  11.166  13.085
25081SOL     OW77139   5.280   0.703   5.106
25081SOL    HW177140   5.303   0.790   5.138
25081SOL    HW277141   5.353   0.677   5.050
25082SOL     OW77142  13.163  10.405  12.103
25082SOL    HW177143  13.179  10.332  12.043
25082SOL    HW277144  13.094  10.456  12.061
25083SOL     OW77145   8.485   5.216  13.193
25083SOL    HW177146   8.408   5.206  13.249
25083SOL    HW277147   8.527   5.130  13.194
25084SOL     OW77148   4.814   5.105  14.428
25084SOL    HW177149   4.739   5.056  14.462
25084SOL    HW277150   4.777   5.185  14.393
25085SOL     OW77151  11.904   8.891  10.796
25085SOL    HW177152  11.924   8.809  10.751
25085SOL    HW277153  11.970   8.953  10.764
25086SOL     OW77154   0.576   1.277  14.545
25086SOL    HW177155   0.663   1.237  14.541
25086SOL    HW277156   0.559   1.308  14.456
25087SOL     OW77157   3.804   1.365   0.535
25087SOL    HW177158   3.895   1.339   0.524
25087SOL    HW277159   3.784   1.416   0.456
25088SOL     OW77160   8.903  12.704   7.398
25088SOL    HW177161   8.938  12.757   7.470
25088SOL    HW277162   8.949  12.736   7.320
25089SOL     OW77163   3.756   2.711   9.098
25089SOL    HW177164   3.834   2.690   9.047
25089SOL    HW277165   3.755   2.646   9.168
25090SOL     OW77166   6.609   0.805  14.234
25090SOL    HW177167   6.694   0.813  14.277
25090SOL    HW277168   6.602   0.884  14.180
25091SOL     OW77169   1.941   8.667   2.230
25091SOL    HW177170   1.880   8.597   2.254
25091SOL    HW277171   2.026   8.623   2.223
25092SOL     OW77172   4.605  13.263  13.968
25092SOL    HW177173   4.594  13.285  13.875
25092SOL    HW277174   4.601  13.347  14.013
25093SOL     OW77175   6.714  12.021   9.034
25093SOL    HW177176   6.631  12.066   9.049
25093SOL    HW277177   6.689  11.940   8.988
25094SOL     OW77178   4.575   1.009   7.630
25094SOL    HW177179   4.651   0.974   7.676
25094SOL    HW277180   4.613   1.068   7.564
25095SOL     OW77181  12.669   6.361   5.586
25095SOL    HW177182  12.629   6.309   5.657
25095SOL    HW277183  12.707   6.436   5.630
25096SOL     OW77184   3.689  14.348   2.306
25096SOL    HW177185   3.683  14.434   2.263
25096SOL    HW277186   3.726  14.367   2.392
25097SOL     OW77187   2.714  13.927  13.070
25097SOL    HW177188   2.703  13.922  13.164
25097SOL    HW277189   2.809  13.927  13.057
25098SOL     OW77190   7.033   1.941   1.442
25098SOL    HW177191   7.087   2.016   1.463
25098SOL    HW277192   7.055   1.876   1.509
25099SOL     OW77193   7.035   0.233   2.192
25099SOL    HW177194   6.979   0.310   2.204
25099SOL    HW277195   7.106   0.245   2.255
25100SOL     OW77196  13.286  14.774   2.673
25100SOL    HW177197  13.355  14.739   2.616
25100SOL    HW277198  13.289  14.718   2.751
25101SOL     OW77199  10.958  10.987   6.717
25101SOL    HW177200  10.988  11.036   6.794
25101SOL    HW277201  10.932  10.902   6.750
25102SOL     OW77202  13.265   7.366   2.604
25102SOL    HW177203  13.342   7.364   2.661
25102SOL    HW277204  13.282   7.437   2.543
25103SOL     OW77205   8.525   8.741  12.037
25103SOL    HW177206   8.528   8.777  12.126
25103SOL    HW277207   8.437   8.707  12.027
25104SOL     OW77208   0.788  14.373   1.803
25104SOL    HW177209   0.730  14.387   1.728
25104SOL    HW277210   0.859  14.320   1.769
25105SOL     OW77211   1.955  11.521   6.048
25105SOL    HW177212   1.874  11.572   6.056
25105SOL    HW277213   1.931  11.432   6.074
25106SOL     OW77214   7.304   9.950  13.404
25106SOL    HW177215   7.365   9.920  13.336
25106SOL    HW277216   7.302  10.045  13.393
25107SOL     OW77217  11.593   2.480  12.423
25107SOL    HW177218  11.674   2.480  12.372
25107SOL    HW277219  11.618   2.443  12.508
25108SOL     OW77220   9.591  13.591   2.604
25108SOL    HW177221   9.548  13.583   2.690
25108SOL    HW277222   9.523  13.570   2.541
25109SOL     OW77223   0.263   5.321   9.032
25109SOL    HW177224   0.293   5.246   9.083
25109SOL    HW277225   0.184   5.290   8.987
25110SOL     OW77226  13.542   0.283   2.180
25110SOL    HW177227  13.473   0.332   2.135
25110SOL    HW277228  13.616   0.344   2.186
25111SOL     OW77229  10.704   3.138   8.557
25111SOL    HW177230  10.742   3.192   8.487
25111SOL    HW277231  10.727   3.048   8.533
25112SOL     OW77232   3.997   8.617   8.068
25112SOL    HW177233   4.042   8.700   8.057
25112SOL    HW277234   4.065   8.558   8.102
25113SOL     OW77235  12.053   2.224   8.516
25113SOL    HW177236  12.142   2.188   8.521
25113SOL    HW277237  11.997   2.148   8.501
25114SOL     OW77238   9.849   5.941  12.663
25114SOL    HW177239   9.867   5.891  12.742
25114SOL    HW277240   9.773   5.897  12.624
25115SOL     OW77241   7.721   2.381  10.820
25115SOL    HW177242   7.751   2.321  10.888
25115SOL    HW277243   7.735   2.332  10.738
25116SOL     OW77244   1.899   1.643   1.826
25116SOL    HW177245   1.978   1.688   1.797
25116SOL    HW277246   1.891   1.568   1.767
25117SOL     OW77247   8.037  11.901  12.229
25117SOL    HW177248   7.959  11.878  12.280
25117SOL    HW277249   8.097  11.828  12.245
25118SOL     OW77250  13.248  13.492   6.117
25118SOL    HW177251  13.189  13.563   6.143
25118SOL    HW277252  13.212  13.461   6.033
25119SOL     OW77253   0.215   8.558   6.221
25119SOL    HW177254   0.295   8.517   6.189
25119SOL    HW277255   0.150   8.488   6.222
25120SOL     OW77256   4.050   9.126   0.486
25120SOL    HW177257   3.998   9.202   0.459
25120SOL    HW277258   4.058   9.073   0.406
25121SOL     OW77259  12.759   2.183   7.503
25121SOL    HW177260  12.692   2.189   7.572
25121SOL    HW277261  12.751   2.094   7.469
25122SOL     OW77262  13.607   0.415   1.883
25122SOL    HW177263  13.662   0.490   1.904
25122SOL    HW277264  13.664   0.357   1.833
25123SOL     OW77265  14.262   9.386   3.125
25123SOL    HW177266  14.181   9.369   3.075
25123SOL    HW277267  14.288   9.299   3.156
25124SOL     OW77268   5.218   8.918   1.435
25124SOL    HW177269   5.174   8.834   1.454
25124SOL    HW277270   5.310   8.894   1.421
25125SOL     OW77271   9.853   6.133   6.182
25125SOL    HW177272   9.846   6.049   6.227
25125SOL    HW277273   9.763   6.154   6.156
25126SOL     OW77274   2.073  13.368   3.597
25126SOL    HW177275   1.986  13.407   3.589
25126SOL    HW277276   2.113  13.380   3.510
25127SOL     OW77277   2.374  13.074  13.439
25127SOL    HW177278   2.433  13.149  13.433
25127SOL    HW277279   2.424  13.002  13.400
25128SOL     OW77280   6.358  12.558   1.070
25128SOL    HW177281   6.450  12.582   1.086
25128SOL    HW277282   6.353  12.465   1.094
25129SOL     OW77283  11.044  10.881   5.137
25129SOL    HW177284  11.053  10.966   5.094
25129SOL    HW277285  11.104  10.885   5.212
25130SOL     OW77286   7.099   9.848   3.772
25130SOL    HW177287   7.104   9.920   3.835
25130SOL    HW277288   7.063   9.888   3.693
25131SOL     OW77289  10.764   2.077   5.505
25131SOL    HW177290  10.680   2.080   5.551
25131SOL    HW277291  10.828   2.065   5.575
25132SOL     OW77292   4.364  12.377   5.452
25132SOL    HW177293   4.337  12.469   5.445
25132SOL    HW277294   4.398  12.369   5.541
25133SOL     OW77295  10.624   1.022  12.757
25133SOL    HW177296  10.595   1.094  12.813
25133SOL    HW277297  10.644   0.951  12.818
25134SOL     OW77298   1.088  11.110   2.225
25134SOL    HW177299   1.025  11.093   2.155
25134SOL    HW277300   1.140  11.030   2.230
25135SOL     OW77301   6.646   5.982   9.896
25135SOL    HW177302   6.597   6.043   9.952
25135SOL    HW277303   6.737   5.991   9.924
25136SOL     OW77304  10.665   0.081   4.326
25136SOL    HW177305  10.577   0.069   4.289
25136SOL    HW277306  10.649   0.130   4.407
25137SOL     OW77307  12.002   2.126   6.571
25137SOL    HW177308  11.948   2.191   6.617
25137SOL    HW277309  12.025   2.169   6.488
25138SOL     OW77310   9.975   4.250  13.753
25138SOL    HW177311   9.882   4.262  13.736
25138SOL    HW277312   9.979   4.218  13.843
25139SOL     OW77313  11.215   4.770  13.569
25139SOL    HW177314  11.169   4.774  13.653
25139SOL    HW277315  11.307   4.779  13.591
25140SOL     OW77316   4.611   1.774  10.242
25140SOL    HW177317   4.635   1.852  10.192
25140SOL    HW277318   4.527   1.796  10.281
25141SOL     OW77319   2.727   7.816   9.420
25141SOL    HW177320   2.654   7.797   9.479
25141SOL    HW277321   2.799   7.841   9.478
25142SOL     OW77322   8.336   6.616   2.479
25142SOL    HW177323   8.314   6.533   2.522
25142SOL    HW277324   8.299   6.607   2.391
25143SOL     OW77325   5.090   5.338  14.565
25143SOL    HW177326   5.067   5.317  14.475
25143SOL    HW277327   5.120   5.255  14.602
25144SOL     OW77328  12.135   6.296   1.104
25144SOL    HW177329  12.043   6.271   1.099
25144SOL    HW277330  12.183   6.218   1.078
25145SOL     OW77331   5.237  12.260   2.401
25145SOL    HW177332   5.259  12.326   2.467
25145SOL    HW277333   5.146  12.279   2.378
25146SOL     OW77334  12.801  12.791   7.626
25146SOL    HW177335  12.756  12.755   7.550
25146SOL    HW277336  12.839  12.873   7.594
25147SOL     OW77337   8.778  14.078   4.140
25147SOL    HW177338   8.683  14.070   4.132
25147SOL    HW277339   8.812  14.036   4.062
25148SOL     OW77340   6.425  12.438   6.499
25148SOL    HW177341   6.490  12.384   6.545
25148SOL    HW277342   6.364  12.466   6.567
25149SOL     OW77343   3.496   7.591  11.442
25149SOL    HW177344   3.571   7.613  11.498
25149SOL    HW277345   3.464   7.507  11.477
25150SOL     OW77346   2.899   9.157   5.740
25150SOL    HW177347   2.831   9.095   5.715
25150SOL    HW277348   2.945   9.176   5.658
25151SOL     OW77349  11.785   4.761  10.343
25151SOL    HW177350  11.876   4.781  10.320
25151SOL    HW277351  11.782   4.665  10.348
25152SOL     OW77352  12.758   2.693   0.977
25152SOL    HW177353  12.787   2.646   1.055
25152SOL    HW277354  12.839   2.725   0.936
25153SOL     OW77355  11.713  14.147  13.179
25153SOL    HW177356  11.807  14.129  13.184
25153SOL    HW277357  11.708  14.240  13.154
25154SOL     OW77358   7.595   3.642  14.762
25154SOL    HW177359   7.637   3.709  14.709
25154SOL    HW277360   7.606   3.672  14.852
25155SOL     OW77361  10.514  11.105  10.431
25155SOL    HW177362  10.601  11.137  10.453
25155SOL    HW277363  10.455  11.174  10.462
25156SOL     OW77364   6.415   3.914  13.507
25156SOL    HW177365   6.404   3.898  13.601
25156SOL    HW277366   6.358   3.989  13.488
25157SOL     OW77367   3.500   3.666   8.685
25157SOL    HW177368   3.470   3.587   8.639
25157SOL    HW277369   3.502   3.639   8.778
25158SOL     OW77370  10.855  11.746  14.048
25158SOL    HW177371  10.938  11.786  14.073
25158SOL    HW277372  10.790  11.789  14.103
25159SOL     OW77373  10.130  11.558  11.139
25159SOL    HW177374  10.043  11.518  11.139
25159SOL    HW277375  10.162  11.544  11.049
25160SOL     OW77376   7.572   8.802   2.300
25160SOL    HW177377   7.508   8.781   2.368
25160SOL    HW277378   7.548   8.746   2.226
25161SOL     OW77379   8.373   4.712  13.710
25161SOL    HW177380   8.430   4.681  13.640
25161SOL    HW277381   8.430   4.716  13.787
25162SOL     OW77382   8.783  12.383   1.829
25162SOL    HW177383   8.722  12.397   1.756
25162SOL    HW277384   8.841  12.313   1.800
25163SOL     OW77385   7.226  10.014   9.691
25163SOL    HW177386   7.238   9.919   9.691
25163SOL    HW277387   7.254  10.042   9.604
25164SOL     OW77388   4.410   0.377   5.762
25164SOL    HW177389   4.321   0.402   5.738
25164SOL    HW277390   4.407   0.282   5.771
25165SOL     OW77391   6.333   1.691   8.688
25165SOL    HW177392   6.308   1.781   8.664
25165SOL    HW277393   6.300   1.637   8.617
25166SOL     OW77394   1.374  10.630  14.034
25166SOL    HW177395   1.343  10.543  14.007
25166SOL    HW277396   1.312  10.691  13.993
25167SOL     OW77397   8.920   0.712   5.745
25167SOL    HW177398   8.841   0.710   5.799
25167SOL    HW277399   8.982   0.765   5.796
25168SOL     OW77400   0.051   0.064   0.215
25168SOL    HW177401  14.848   0.117   0.199
25168SOL    HW277402   0.092   0.054   0.129
25169SOL     OW77403  13.511   4.866  13.658
25169SOL    HW177404  13.500   4.933  13.726
25169SOL    HW277405  13.604   4.869  13.637
25170SOL     OW77406   0.962   6.077   0.291
25170SOL    HW177407   0.991   5.986   0.307
25170SOL    HW277408   1.025   6.111   0.227
25171SOL     OW77409   2.768   0.253   5.212
25171SOL    HW177410   2.838   0.289   5.157
25171SOL    HW277411   2.807   0.176   5.253
25172SOL     OW77412  10.960   9.103  12.096
25172SOL    HW177413  11.024   9.090  12.166
25172SOL    HW277414  11.010   9.091  12.015
25173SOL     OW77415   1.935   6.358   1.777
25173SOL    HW177416   1.893   6.301   1.712
25173SOL    HW277417   1.884   6.439   1.775
25174SOL     OW77418   7.048   6.746   7.171
25174SOL    HW177419   7.086   6.831   7.193
25174SOL    HW277420   7.009   6.759   7.084
25175SOL     OW77421  14.186  11.329   0.087
25175SOL    HW177422  14.164  11.248   0.133
25175SOL    HW277423  14.117  11.391   0.113
25176SOL     OW77424   8.999   2.678   8.519
25176SOL    HW177425   9.057   2.689   8.444
25176SOL    HW277426   9.010   2.587   8.545
25177SOL     OW77427   2.237   8.429   6.850
25177SOL    HW177428   2.266   8.356   6.794
25177SOL    HW277429   2.193   8.386   6.923
25178SOL     OW77430   0.800   6.304   2.350
25178SOL    HW177431   0.731   6.358   2.311
25178SOL    HW277432   0.817   6.237   2.284
25179SOL     OW77433  14.079  10.464  12.052
25179SOL    HW177434  14.116  10.552  12.057
25179SOL    HW277435  14.047  10.447  12.141
25180SOL     OW77436   5.237   6.567   9.324
25180SOL    HW177437   5.181   6.510   9.272
25180SOL    HW277438   5.283   6.621   9.260
25181SOL     OW77439  11.938   5.344  14.166
25181SOL    HW177440  11.937   5.395  14.085
25181SOL    HW277441  11.992   5.396  14.226
25182SOL     OW77442  11.274   2.846   7.582
25182SOL    HW177443  11.220   2.793   7.641
25182SOL    HW277444  11.229   2.931   7.581
25183SOL     OW77445   0.812   6.098  13.665
25183SOL    HW177446   0.756   6.099  13.742
25183SOL    HW277447   0.761   6.144  13.598
25184SOL     OW77448   5.472   9.370  11.722
25184SOL    HW177449   5.535   9.442  11.728
25184SOL    HW277450   5.464   9.338  11.812
25185SOL     OW77451   1.143   6.052   1.842
25185SOL    HW177452   1.115   6.097   1.922
25185SOL    HW277453   1.121   5.960   1.858
25186SOL     OW77454   9.344  11.919  13.054
25186SOL    HW177455   9.373  11.978  12.984
25186SOL    HW277456   9.422  11.906  13.107
25187SOL     OW77457   6.870  14.713  10.922
25187SOL    HW177458   6.900  14.623  10.909
25187SOL    HW277459   6.776  14.706  10.933
25188SOL     OW77460   9.451   2.798  11.530
25188SOL    HW177461   9.402   2.865  11.484
25188SOL    HW277462   9.429   2.717  11.485
25189SOL     OW77463  10.879   8.969   3.206
25189SOL    HW177464  10.918   8.882   3.209
25189SOL    HW277465  10.835   8.973   3.122
25190SOL     OW77466   9.644  11.998   3.049
25190SOL    HW177467   9.554  12.011   3.079
25190SOL    HW277468   9.651  11.903   3.037
25191SOL     OW77469  10.334   7.768   6.423
25191SOL    HW177470  10.348   7.862   6.412
25191SOL    HW277471  10.263   7.747   6.362
25192SOL     OW77472   2.241   8.229   2.597
25192SOL    HW177473   2.331   8.260   2.585
25192SOL    HW277474   2.212   8.271   2.679
25193SOL     OW77475   2.810   6.781   7.865
25193SOL    HW177476   2.777   6.746   7.782
25193SOL    HW277477   2.749   6.749   7.931
25194SOL     OW77478   8.693   4.711   4.909
25194SOL    HW177479   8.612   4.663   4.928
25194SOL    HW277480   8.748   4.694   4.986
25195SOL     OW77481   1.275   5.631  12.789
25195SOL    HW177482   1.341   5.691  12.755
25195SOL    HW277483   1.247   5.580  12.712
25196SOL     OW77484  13.397   1.712   1.268
25196SOL    HW177485  13.436   1.721   1.181
25196SOL    HW277486  13.305   1.692   1.250
25197SOL     OW77487  12.250   7.522   2.581
25197SOL    HW177488  12.272   7.594   2.640
25197SOL    HW277489  12.282   7.551   2.495
25198SOL     OW77490   4.202   2.667   6.479
25198SOL    HW177491   4.285   2.637   6.443
25198SOL    HW277492   4.217   2.672   6.573
25199SOL     OW77493   8.258   7.972   9.808
25199SOL    HW177494   8.310   7.929   9.876
25199SOL    HW277495   8.265   8.065   9.828
25200SOL     OW77496  14.217  12.914   2.242
25200SOL    HW177497  14.296  12.885   2.289
25200SOL    HW277498  14.221  13.009   2.245
25201SOL     OW77499  14.466   9.935   2.400
25201SOL    HW177500  14.529   9.863   2.411
25201SOL    HW277501  14.457   9.973   2.487
25202SOL     OW77502   6.126  10.499   4.367
25202SOL    HW177503   6.066  10.574   4.363
25202SOL    HW277504   6.071  10.423   4.348
25203SOL     OW77505   3.381   1.657  12.397
25203SOL    HW177506   3.412   1.746  12.411
25203SOL    HW277507   3.291   1.656  12.429
25204SOL     OW77508  11.750   9.822   7.735
25204SOL    HW177509  11.846   9.820   7.727
25204SOL    HW277510  11.720   9.861   7.653
25205SOL     OW77511  14.137  12.500   8.336
25205SOL    HW177512  14.222  12.504   8.293
25205SOL    HW277513  14.135  12.577   8.393
25206SOL     OW77514   2.079   8.242  11.504
25206SOL    HW177515   1.987   8.225  11.485
25206SOL    HW277516   2.078   8.318  11.562
25207SOL     OW77517  14.810   9.452   4.174
25207SOL    HW177518  14.839   9.449   4.083
25207SOL    HW277519  14.773   9.539   4.185
25208SOL     OW77520   0.196  10.393   4.668
25208SOL    HW177521   0.114  10.362   4.706
25208SOL    HW277522   0.189  10.370   4.575
25209SOL     OW77523   4.635  10.729  13.086
25209SOL    HW177524   4.551  10.773  13.095
25209SOL    HW277525   4.693  10.775  13.147
25210SOL     OW77526   6.478   0.297   7.066
25210SOL    HW177527   6.571   0.282   7.046
25210SOL    HW277528   6.442   0.332   6.984
25211SOL     OW77529   8.395   2.658   3.152
25211SOL    HW177530   8.428   2.595   3.088
25211SOL    HW277531   8.305   2.677   3.123
25212SOL     OW77532  13.299   3.008  14.642
25212SOL    HW177533  13.216   2.964  14.623
25212SOL    HW277534  13.284   3.100  14.619
25213SOL     OW77535  11.953   7.663   6.149
25213SOL    HW177536  11.880   7.621   6.104
25213SOL    HW277537  12.016   7.593   6.163
25214SOL     OW77538   5.158  13.179   7.016
25214SOL    HW177539   5.214  13.102   7.023
25214SOL    HW277540   5.107  13.179   7.097
25215SOL     OW77541   1.705   8.840  13.553
25215SOL    HW177542   1.739   8.777  13.617
25215SOL    HW277543   1.730   8.926  13.588
25216SOL     OW77544  10.200   5.050  10.976
25216SOL    HW177545  10.186   5.060  10.881
25216SOL    HW277546  10.244   5.130  11.002
25217SOL     OW77547  14.718   5.924   9.409
25217SOL    HW177548  14.787   5.859   9.424
25217SOL    HW277549  14.764   6.000   9.375
25218SOL     OW77550  12.377   1.310   4.461
25218SOL    HW177551  12.377   1.406   4.463
25218SOL    HW277552  12.286   1.286   4.442
25219SOL     OW77553  14.864   7.381   0.451
25219SOL    HW177554   0.077   7.373   0.414
25219SOL    HW277555  14.834   7.467   0.424
25220SOL     OW77556   3.124  10.432  11.610
25220SOL    HW177557   3.198  10.493  11.613
25220SOL    HW277558   3.153  10.362  11.552
25221SOL     OW77559   2.752   4.583  14.327
25221SOL    HW177560   2.769   4.642  14.400
25221SOL    HW277561   2.665   4.606  14.296
25222SOL     OW77562   6.644  11.867   4.525
25222SOL    HW177563   6.613  11.950   4.487
25222SOL    HW277564   6.699  11.894   4.598
25223SOL     OW77565  11.438   7.672   7.347
25223SOL    HW177566  11.503   7.719   7.295
25223SOL    HW277567  11.370   7.648   7.283
25224SOL     OW77568  14.767   1.905   4.785
25224SOL    HW177569  14.784   1.954   4.866
25224SOL    HW277570  14.712   1.962   4.733
25225SOL     OW77571  13.565   0.583   6.972
25225SOL    HW177572  13.601   0.514   6.915
25225SOL    HW277573  13.477   0.553   6.992
25226SOL     OW77574   9.098   7.698   5.202
25226SOL    HW177575   9.156   7.759   5.246
25226SOL    HW277576   9.120   7.706   5.109
25227SOL     OW77577   7.467  10.312  14.206
25227SOL    HW177578   7.497  10.389  14.253
25227SOL    HW277579   7.426  10.346  14.126
25228SOL     OW77580  10.642  13.044   7.886
25228SOL    HW177581  10.560  12.997   7.873
25228SOL    HW277582  10.618  13.136   7.877
25229SOL     OW77583  12.811   9.870   1.743
25229SOL    HW177584  12.823   9.965   1.748
25229SOL    HW277585  12.737   9.859   1.684
25230SOL     OW77586   2.688   3.494   9.618
25230SOL    HW177587   2.711   3.453   9.535
25230SOL    HW277588   2.709   3.586   9.607
25231SOL     OW77589   0.624   8.648   2.625
25231SOL    HW177590   0.698   8.687   2.580
25231SOL    HW277591   0.662   8.613   2.706
25232SOL     OW77592  14.767  10.010  11.410
25232SOL    HW177593  14.762   9.918  11.439
25232SOL    HW277594  14.737  10.008  11.319
25233SOL     OW77595  14.135  10.973   3.331
25233SOL    HW177596  14.100  11.049   3.377
25233SOL    HW277597  14.099  10.898   3.377
25234SOL     OW77598   8.874   5.641   0.668
25234SOL    HW177599   8.808   5.709   0.684
25234SOL    HW277600   8.854   5.609   0.580
25235SOL     OW77601  13.167   0.998   5.207
25235SOL    HW177602  13.210   0.954   5.134
25235SOL    HW277603  13.173   1.091   5.186
25236SOL     OW77604  10.336   4.599   0.181
25236SOL    HW177605  10.365   4.680   0.224
25236SOL    HW277606  10.374   4.604   0.093
25237SOL     OW77607   5.041   1.022  11.689
25237SOL    HW177608   5.116   1.039  11.632
25237SOL    HW277609   5.003   0.940  11.655
25238SOL     OW77610  14.847   9.507  10.305
25238SOL    HW177611  14.830   9.419  10.272
25238SOL    HW277612  14.858   9.497  10.399
25239SOL     OW77613  10.881   4.613   0.819
25239SOL    HW177614  10.863   4.605   0.913
25239SOL    HW277615  10.894   4.524   0.788
25240SOL     OW77616   2.048   6.603   1.599
25240SOL    HW177617   2.036   6.638   1.687
25240SOL    HW277618   2.140   6.577   1.595
25241SOL     OW77619  10.088  12.034  11.580
25241SOL    HW177620  10.070  12.088  11.503
25241SOL    HW277621  10.170  11.989  11.560
25242SOL     OW77622   6.752  12.701  13.182
25242SOL    HW177623   6.770  12.607  13.173
25242SOL    HW277624   6.822  12.744  13.133
25243SOL     OW77625   2.290  10.422   6.754
25243SOL    HW177626   2.289  10.507   6.708
25243SOL    HW277627   2.379  10.389   6.742
25244SOL     OW77628   3.923   4.562   6.230
25244SOL    HW177629   3.998   4.514   6.266
25244SOL    HW277630   3.900   4.624   6.299
25245SOL     OW77631   5.412   2.017  13.983
25245SOL    HW177632   5.407   2.060  14.068
25245SOL    HW277633   5.480   2.066  13.936
25246SOL     OW77634  14.865   9.628   5.448
25246SOL    HW177635  14.816   9.702   5.485
25246SOL    HW277636  14.820   9.609   5.366
25247SOL     OW77637   1.750   2.059  11.095
25247SOL    HW177638   1.703   2.116  11.034
25247SOL    HW277639   1.681   2.009  11.139
25248SOL     OW77640  11.509  11.348  11.619
25248SOL    HW177641  11.485  11.310  11.535
25248SOL    HW277642  11.452  11.425  11.627
25249SOL     OW77643   6.933   4.659  14.232
25249SOL    HW177644   6.916   4.573  14.270
25249SOL    HW277645   6.872   4.665  14.159
25250SOL     OW77646   6.033  12.636  11.206
25250SOL    HW177647   5.943  12.654  11.235
25250SOL    HW277648   6.023  12.608  11.115
25251SOL     OW77649   8.110  13.311   8.821
25251SOL    HW177650   8.067  13.246   8.877
25251SOL    HW277651   8.193  13.329   8.865
25252SOL     OW77652  11.467   1.785  14.176
25252SOL    HW177653  11.457   1.790  14.081
25252SOL    HW277654  11.442   1.695  14.198
25253SOL     OW77655  10.272   7.006   4.545
25253SOL    HW177656  10.202   6.947   4.572
25253SOL    HW277657  10.230   7.092   4.539
25254SOL     OW77658  10.085   3.674   8.577
25254SOL    HW177659  10.114   3.603   8.633
25254SOL    HW277660  10.000   3.646   8.543
25255SOL     OW77661   1.606  11.641   0.383
25255SOL    HW177662   1.595  11.666   0.291
25255SOL    HW277663   1.517  11.627   0.415
25256SOL     OW77664   4.107   1.452   7.543
25256SOL    HW177665   4.076   1.451   7.634
25256SOL    HW277666   4.048   1.392   7.497
25257SOL     OW77667   5.523   7.623   4.290
25257SOL    HW177668   5.540   7.535   4.256
25257SOL    HW277669   5.538   7.616   4.384
25258SOL     OW77670  10.750  14.541  12.350
25258SOL    HW177671  10.752  14.599  12.273
25258SOL    HW277672  10.766  14.454  12.314
25259SOL     OW77673   3.519  14.867  13.410
25259SOL    HW177674   3.602   0.040  13.405
25259SOL    HW277675   3.494  14.870  13.502
25260SOL     OW77676   8.181  12.730   9.771
25260SOL    HW177677   8.105  12.752   9.716
25260SOL    HW277678   8.147  12.672   9.838
25261SOL     OW77679   8.911   2.975   6.839
25261SOL    HW177680   8.934   3.068   6.848
25261SOL    HW277681   8.857   2.957   6.915
25262SOL     OW77682  14.567   7.575  10.371
25262SOL    HW177683  14.641   7.519  10.394
25262SOL    HW277684  14.587   7.660  10.411
25263SOL     OW77685  10.485   9.762   1.119
25263SOL    HW177686  10.411   9.710   1.149
25263SOL    HW277687  10.561   9.703   1.125
25264SOL     OW77688   3.477   3.645   5.173
25264SOL    HW177689   3.388   3.679   5.177
25264SOL    HW277690   3.532   3.723   5.182
25265SOL     OW77691   3.251   9.770   0.006
25265SOL    HW177692   3.344   9.789   0.019
25265SOL    HW277693   3.232   9.807  14.795
25266SOL     OW77694  11.094  10.341   0.719
25266SOL    HW177695  11.145  10.415   0.751
25266SOL    HW277696  11.058  10.301   0.798
25267SOL     OW77697   3.718   8.467   7.310
25267SOL    HW177698   3.789   8.433   7.257
25267SOL    HW277699   3.762   8.506   7.386
25268SOL     OW77700   7.058   4.555   4.359
25268SOL    HW177701   7.113   4.478   4.345
25268SOL    HW277702   7.057   4.600   4.275
25269SOL     OW77703   2.644  13.076   5.792
25269SOL    HW177704   2.654  13.001   5.734
25269SOL    HW277705   2.553  13.105   5.779
25270SOL     OW77706  10.183   0.189  13.910
25270SOL    HW177707  10.213   0.105  13.944
25270SOL    HW277708  10.187   0.248  13.985
25271SOL     OW77709   7.947   6.201   9.629
25271SOL    HW177710   7.915   6.138   9.565
25271SOL    HW277711   8.041   6.185   9.633
25272SOL     OW77712  14.666  14.137  12.781
25272SOL    HW177713  14.582  14.179  12.761
25272SOL    HW277714  14.676  14.070  12.713
25273SOL     OW77715   8.583   0.096   3.552
25273SOL    HW177716   8.523   0.084   3.626
25273SOL    HW277717   8.542   0.047   3.481
25274SOL     OW77718   2.795   3.404   8.073
25274SOL    HW177719   2.803   3.383   8.166
25274SOL    HW277720   2.862   3.351   8.030
25275SOL     OW77721  13.569   7.641   6.434
25275SOL    HW177722  13.512   7.599   6.499
25275SOL    HW277723  13.656   7.640   6.474
25276SOL     OW77724   4.937   0.218   8.882
25276SOL    HW177725   4.993   0.295   8.872
25276SOL    HW277726   4.987   0.160   8.939
25277SOL     OW77727   8.117   2.817  13.983
25277SOL    HW177728   8.197   2.766  13.992
25277SOL    HW277729   8.135   2.900  14.027
25278SOL     OW77730   0.254   1.459   0.738
25278SOL    HW177731   0.322   1.405   0.778
25278SOL    HW277732   0.251   1.538   0.791
25279SOL     OW77733  10.158  14.623   4.922
25279SOL    HW177734  10.072  14.602   4.884
25279SOL    HW277735  10.210  14.653   4.848
25280SOL     OW77736   5.305   9.226   5.762
25280SOL    HW177737   5.233   9.284   5.740
25280SOL    HW277738   5.292   9.148   5.708
25281SOL     OW77739   9.747   5.299   5.337
25281SOL    HW177740   9.706   5.235   5.280
25281SOL    HW277741   9.747   5.258   5.424
25282SOL     OW77742   3.915   3.376   3.545
25282SOL    HW177743   3.909   3.280   3.548
25282SOL    HW277744   3.944   3.401   3.633
25283SOL     OW77745  13.483  13.446   7.896
25283SOL    HW177746  13.468  13.385   7.968
25283SOL    HW277747  13.439  13.527   7.924
25284SOL     OW77748   6.378  14.647   3.353
25284SOL    HW177749   6.309  14.612   3.298
25284SOL    HW277750   6.433  14.698   3.293
25285SOL     OW77751   9.097   6.145  12.433
25285SOL    HW177752   9.125   6.111  12.517
25285SOL    HW277753   9.176   6.146  12.379
25286SOL     OW77754   2.465   2.677   5.950
25286SOL    HW177755   2.407   2.643   5.882
25286SOL    HW277756   2.461   2.613   6.021
25287SOL     OW77757   0.720   0.803  12.496
25287SOL    HW177758   0.724   0.886  12.543
25287SOL    HW277759   0.643   0.759  12.531
25288SOL     OW77760   3.867  14.312  14.215
25288SOL    HW177761   3.881  14.378  14.282
25288SOL    HW277762   3.941  14.321  14.155
25289SOL     OW77763   3.142   3.621  12.610
25289SOL    HW177764   3.231   3.646  12.636
25289SOL    HW277765   3.086   3.685  12.653
25290SOL     OW77766   4.846   5.638   3.234
25290SOL    HW177767   4.897   5.638   3.153
25290SOL    HW277768   4.872   5.718   3.279
25291SOL     OW77769   7.805  13.080   3.124
25291SOL    HW177770   7.714  13.049   3.126
25291SOL    HW277771   7.830  13.076   3.032
25292SOL     OW77772   1.431   6.513   8.973
25292SOL    HW177773   1.464   6.498   9.061
25292SOL    HW277774   1.429   6.608   8.964
25293SOL     OW77775   6.067   3.612   1.596
25293SOL    HW177776   6.007   3.668   1.645
25293SOL    HW277777   6.016   3.533   1.577
25294SOL     OW77778  12.328   1.231  14.685
25294SOL    HW177779  12.327   1.156  14.746
25294SOL    HW277780  12.419   1.262  14.687
25295SOL     OW77781   9.317  14.749   9.911
25295SOL    HW177782   9.325  14.696   9.831
25295SOL    HW277783   9.379  14.709   9.972
25296SOL     OW77784  11.768   0.326  11.202
25296SOL    HW177785  11.673   0.312  11.196
25296SOL    HW277786  11.782   0.412  11.164
25297SOL     OW77787   5.056  12.812   4.815
25297SOL    HW177788   4.983  12.829   4.756
25297SOL    HW277789   5.040  12.725   4.850
25298SOL     OW77790   7.848   7.609  11.904
25298SOL    HW177791   7.911   7.561  11.957
25298SOL    HW277792   7.778   7.633  11.965
25299SOL     OW77793   4.256  14.261   7.666
25299SOL    HW177794   4.240  14.349   7.701
25299SOL    HW277795   4.324  14.274   7.600
25300SOL     OW77796   2.729   4.875  11.339
25300SOL    HW177797   2.771   4.891  11.423
25300SOL    HW277798   2.774   4.934  11.278
25301SOL     OW77799  12.258   8.743   5.365
25301SOL    HW177800  12.183   8.683   5.369
25301SOL    HW277801  12.332   8.692   5.398
25302SOL     OW77802   5.130   4.935   9.967
25302SOL    HW177803   5.101   4.866   9.908
25302SOL    HW277804   5.226   4.927   9.967
25303SOL     OW77805   3.098   4.876   0.872
25303SOL    HW177806   3.016   4.885   0.824
25303SOL    HW277807   3.134   4.792   0.843
25304SOL     OW77808   7.112  10.182   0.816
25304SOL    HW177809   7.025  10.200   0.779
25304SOL    HW277810   7.171  10.240   0.769
25305SOL     OW77811   5.705  11.658  11.524
25305SOL    HW177812   5.729  11.748  11.505
25305SOL    HW277813   5.727  11.610  11.444
25306SOL     OW77814  12.405   7.388   9.328
25306SOL    HW177815  12.490   7.345   9.317
25306SOL    HW277816  12.357   7.366   9.248
25307SOL     OW77817  11.102  12.872   2.680
25307SOL    HW177818  11.193  12.846   2.694
25307SOL    HW277819  11.065  12.875   2.768
25308SOL     OW77820  10.325   9.293   6.835
25308SOL    HW177821  10.364   9.357   6.775
25308SOL    HW277822  10.282   9.347   6.902
25309SOL     OW77823  12.331   4.360   7.681
25309SOL    HW177824  12.278   4.351   7.760
25309SOL    HW277825  12.268   4.358   7.609
25310SOL     OW77826  12.554  12.844  10.759
25310SOL    HW177827  12.580  12.793  10.836
25310SOL    HW277828  12.636  12.870  10.719
25311SOL     OW77829   9.889  13.456   7.490
25311SOL    HW177830   9.904  13.550   7.499
25311SOL    HW277831   9.821  13.436   7.554
25312SOL     OW77832   7.233   6.190   6.575
25312SOL    HW177833   7.290   6.117   6.601
25312SOL    HW277834   7.234   6.189   6.480
25313SOL     OW77835   2.498   0.697  11.352
25313SOL    HW177836   2.579   0.745  11.366
25313SOL    HW277837   2.487   0.643  11.430
25314SOL     OW77838  12.233   7.274   2.028
25314SOL    HW177839  12.271   7.321   1.953
25314SOL    HW277840  12.204   7.343   2.087
25315SOL     OW77841   7.856   3.390   8.737
25315SOL    HW177842   7.881   3.439   8.815
25315SOL    HW277843   7.841   3.456   8.670
25316SOL     OW77844   7.900  10.936   1.537
25316SOL    HW177845   7.881  10.854   1.491
25316SOL    HW277846   7.954  10.910   1.611
25317SOL     OW77847   4.954   8.057   2.562
25317SOL    HW177848   4.991   8.117   2.627
25317SOL    HW277849   4.966   7.970   2.599
25318SOL     OW77850   4.397   9.964  12.832
25318SOL    HW177851   4.491   9.971  12.852
25318SOL    HW277852   4.368  10.055  12.824
25319SOL     OW77853  12.372   6.699   0.436
25319SOL    HW177854  12.385   6.789   0.405
25319SOL    HW277855  12.319   6.658   0.368
25320SOL     OW77856   6.329  11.757  14.684
25320SOL    HW177857   6.387  11.829  14.708
25320SOL    HW277858   6.320  11.764  14.589
25321SOL     OW77859   1.917   7.907   0.246
25321SOL    HW177860   1.941   7.941   0.161
25321SOL    HW277861   1.938   7.977   0.308
25322SOL     OW77862   1.878   9.420   7.810
25322SOL    HW177863   1.937   9.345   7.803
25322SOL    HW277864   1.915   9.473   7.880
25323SOL     OW77865   4.958   8.098   1.013
25323SOL    HW177866   5.026   8.039   0.981
25323SOL    HW277867   4.970   8.178   0.963
25324SOL     OW77868  10.105   6.175  11.693
25324SOL    HW177869  10.080   6.258  11.653
25324SOL    HW277870  10.026   6.147  11.740
25325SOL     OW77871  12.970  13.436   3.408
25325SOL    HW177872  12.941  13.359   3.359
25325SOL    HW277873  13.008  13.400   3.488
25326SOL     OW77874  11.005  11.799   8.103
25326SOL    HW177875  11.096  11.819   8.081
25326SOL    HW277876  10.976  11.875   8.154
25327SOL     OW77877   8.705  11.334  12.480
25327SOL    HW177878   8.747  11.410  12.519
25327SOL    HW277879   8.776  11.288  12.434
25328SOL     OW77880   3.723  12.731  10.609
25328SOL    HW177881   3.755  12.644  10.588
25328SOL    HW277882   3.798  12.777  10.646
25329SOL     OW77883   3.864   9.481  14.651
25329SOL    HW177884   3.956   9.471  14.676
25329SOL    HW277885   3.866   9.524  14.566
25330SOL     OW77886   1.718   4.902   1.116
25330SOL    HW177887   1.788   4.965   1.133
25330SOL    HW277888   1.682   4.927   1.031
25331SOL     OW77889   1.773  10.180  14.735
25331SOL    HW177890   1.780  10.199  14.642
25331SOL    HW277891   1.857  10.142  14.759
25332SOL     OW77892   8.870   1.328  12.016
25332SOL    HW177893   8.945   1.270  12.003
25332SOL    HW277894   8.824   1.327  11.931
25333SOL     OW77895   1.934   2.697   6.689
25333SOL    HW177896   2.004   2.710   6.753
25333SOL    HW277897   1.947   2.608   6.656
25334SOL     OW77898  14.826   9.489   7.402
25334SOL    HW177899  14.774   9.416   7.368
25334SOL    HW277900  14.827   9.553   7.330
25335SOL     OW77901  10.642  13.527   7.607
25335SOL    HW177902  10.681  13.606   7.646
25335SOL    HW277903  10.558  13.558   7.571
25336SOL     OW77904   4.082   6.756   3.062
25336SOL    HW177905   4.000   6.716   3.033
25336SOL    HW277906   4.124   6.687   3.114
25337SOL     OW77907   8.140  12.119   0.793
25337SOL    HW177908   8.208  12.066   0.835
25337SOL    HW277909   8.062  12.104   0.847
25338SOL     OW77910   5.848   6.150  10.179
25338SOL    HW177911   5.831   6.242  10.157
25338SOL    HW277912   5.771   6.123  10.230
25339SOL     OW77913   0.390   2.415  11.786
25339SOL    HW177914   0.301   2.388  11.812
25339SOL    HW277915   0.378   2.457  11.701
25340SOL     OW77916  13.281   6.400   9.430
25340SOL    HW177917  13.237   6.433   9.508
25340SOL    HW277918  13.214   6.349   9.384
25341SOL     OW77919   4.195   8.901   6.246
25341SOL    HW177920   4.259   8.852   6.194
25341SOL    HW277921   4.227   8.893   6.336
25342SOL     OW77922   2.649   0.846  10.178
25342SOL    HW177923   2.710   0.806  10.241
25342SOL    HW277924   2.565   0.804  10.197
25343SOL     OW77925  12.448   6.676  10.260
25343SOL    HW177926  12.498   6.609  10.307
25343SOL    HW277927  12.512   6.744  10.241
25344SOL     OW77928  14.263   6.373   8.152
25344SOL    HW177929  14.221   6.288   8.164
25344SOL    HW277930  14.240   6.399   8.063
25345SOL     OW77931   5.000   3.835   7.602
25345SOL    HW177932   5.093   3.831   7.623
25345SOL    HW277933   4.967   3.909   7.654
25346SOL     OW77934   4.971   7.050  10.060
25346SOL    HW177935   4.910   7.121  10.079
25346SOL    HW277936   4.948   7.021   9.972
25347SOL     OW77937   5.216   0.672   3.132
25347SOL    HW177938   5.149   0.739   3.117
25347SOL    HW277939   5.228   0.630   3.046
25348SOL     OW77940   2.496   9.644   3.394
25348SOL    HW177941   2.552   9.696   3.336
25348SOL    HW277942   2.414   9.693   3.399
25349SOL     OW77943  12.202   7.677  13.969
25349SOL    HW177944  12.131   7.723  14.013
25349SOL    HW277945  12.276   7.683  14.030
25350SOL     OW77946   0.156   1.492  14.020
25350SOL    HW177947   0.061   1.479  14.021
25350SOL    HW277948   0.167   1.582  13.988
25351SOL     OW77949   1.720   3.273   3.575
25351SOL    HW177950   1.643   3.247   3.525
25351SOL    HW277951   1.721   3.369   3.570
25352SOL     OW77952  14.763   4.152   3.576
25352SOL    HW177953  14.672   4.178   3.560
25352SOL    HW277954  14.759   4.057   3.587
25353SOL     OW77955   3.982  14.316   1.251
25353SOL    HW177956   4.060  14.368   1.232
25353SOL    HW277957   3.920  14.339   1.182
25354SOL     OW77958   6.542  11.364  13.314
25354SOL    HW177959   6.504  11.285  13.353
25354SOL    HW277960   6.619  11.382  13.367
25355SOL     OW77961   3.055   6.965   4.549
25355SOL    HW177962   3.064   7.035   4.614
25355SOL    HW277963   2.973   6.921   4.572
25356SOL     OW77964   2.020   5.622  14.237
25356SOL    HW177965   1.933   5.646  14.269
25356SOL    HW277966   2.070   5.704  14.242
25357SOL     OW77967   7.022  12.103   7.540
25357SOL    HW177968   6.968  12.024   7.538
25357SOL    HW277969   7.005  12.147   7.456
25358SOL     OW77970   4.589   9.458   9.071
25358SOL    HW177971   4.639   9.443   9.151
25358SOL    HW277972   4.653   9.450   9.001
25359SOL     OW77973   3.616   6.656   1.733
25359SOL    HW177974   3.691   6.621   1.781
25359SOL    HW277975   3.648   6.738   1.695
25360SOL     OW77976  14.313   8.401  11.594
25360SOL    HW177977  14.269   8.384  11.511
25360SOL    HW277978  14.366   8.479  11.576
25361SOL     OW77979   6.861  13.828   0.158
25361SOL    HW177980   6.851  13.875   0.075
25361SOL    HW277981   6.803  13.874   0.219
25362SOL     OW77982   7.331   5.294   8.899
25362SOL    HW177983   7.375   5.209   8.907
25362SOL    HW277984   7.395   5.357   8.931
25363SOL     OW77985   8.425   6.572   9.544
25363SOL    HW177986   8.381   6.657   9.541
25363SOL    HW277987   8.366   6.517   9.596
25364SOL     OW77988   2.020   2.001   7.477
25364SOL    HW177989   1.994   2.048   7.398
25364SOL    HW277990   2.109   2.033   7.495
25365SOL     OW77991   6.826   6.473   2.126
25365SOL    HW177992   6.843   6.379   2.126
25365SOL    HW277993   6.739   6.482   2.165
25366SOL     OW77994   5.652   2.049  14.340
25366SOL    HW177995   5.599   1.975  14.309
25366SOL    HW277996   5.629   2.121  14.281
25367SOL     OW77997   2.940  13.178   1.746
25367SOL    HW177998   3.012  13.239   1.757
25367SOL    HW277999   2.965  13.123   1.672
25368SOL     OW78000   4.151   7.083   9.879
25368SOL    HW178001   4.098   7.158   9.906
25368SOL    HW278002   4.089   7.026   9.833
25369SOL     OW78003   3.703   0.092   8.791
25369SOL    HW178004   3.671   0.167   8.741
25369SOL    HW278005   3.764   0.129   8.853
25370SOL     OW78006   9.202  13.461   8.629
25370SOL    HW178007   9.165  13.524   8.691
25370SOL    HW278008   9.204  13.378   8.677
25371SOL     OW78009  13.123  11.611  14.735
25371SOL    HW178010  13.207  11.570  14.715
25371SOL    HW278011  13.136  11.653  14.820
25372SOL     OW78012  13.010   3.117  13.563
25372SOL    HW178013  12.996   3.029  13.596
25372SOL    HW278014  13.025   3.170  13.642
25373SOL     OW78015   4.873  11.872   8.305
25373SOL    HW178016   4.805  11.826   8.355
25373SOL    HW278017   4.875  11.960   8.343
25374SOL     OW78018   3.723   1.047  13.247
25374SOL    HW178019   3.779   1.011  13.178
25374SOL    HW278020   3.718   1.141  13.227
25375SOL     OW78021   1.657   8.917   9.002
25375SOL    HW178022   1.661   8.957   8.915
25375SOL    HW278023   1.714   8.840   8.996
25376SOL     OW78024   0.825  11.525  10.739
25376SOL    HW178025   0.812  11.438  10.701
25376SOL    HW278026   0.759  11.580  10.697
25377SOL     OW78027   0.147   3.067   7.460
25377SOL    HW178028   0.182   3.151   7.489
25377SOL    HW278029   0.108   3.028   7.539
25378SOL     OW78030   2.561  10.372   1.923
25378SOL    HW178031   2.545  10.384   2.016
25378SOL    HW278032   2.560  10.461   1.887
25379SOL     OW78033   0.223   4.454   6.737
25379SOL    HW178034   0.207   4.366   6.772
25379SOL    HW278035   0.283   4.494   6.800
25380SOL     OW78036   8.452  11.167  12.083
25380SOL    HW178037   8.465  11.261  12.068
25380SOL    HW278038   8.417  11.162  12.172
25381SOL     OW78039  14.380   5.024  10.648
25381SOL    HW178040  14.444   4.996  10.714
25381SOL    HW278041  14.389   5.119  10.645
25382SOL     OW78042   1.035   5.218   2.173
25382SOL    HW178043   0.990   5.269   2.239
25382SOL    HW278044   1.104   5.173   2.220
25383SOL     OW78045  12.159  10.838   3.030
25383SOL    HW178046  12.212  10.768   2.993
25383SOL    HW278047  12.221  10.910   3.045
25384SOL     OW78048  11.827   0.191   3.705
25384SOL    HW178049  11.866   0.155   3.784
25384SOL    HW278050  11.899   0.191   3.641
25385SOL     OW78051  10.852  12.459   9.170
25385SOL    HW178052  10.854  12.367   9.147
25385SOL    HW278053  10.878  12.505   9.091
25386SOL     OW78054  11.502  12.106  14.540
25386SOL    HW178055  11.577  12.135  14.488
25386SOL    HW278056  11.452  12.051  14.480
25387SOL     OW78057   1.475  13.954   4.286
25387SOL    HW178058   1.564  13.976   4.312
25387SOL    HW278059   1.480  13.864   4.255
25388SOL     OW78060   4.605   7.990   7.449
25388SOL    HW178061   4.549   8.049   7.399
25388SOL    HW278062   4.564   7.904   7.439
25389SOL     OW78063   4.926   4.775  11.254
25389SOL    HW178064   4.866   4.746  11.322
25389SOL    HW278065   4.874   4.770  11.173
25390SOL     OW78066  10.506   6.281   9.499
25390SOL    HW178067  10.459   6.305   9.579
25390SOL    HW278068  10.595   6.314   9.514
25391SOL     OW78069   2.951   4.162  12.694
25391SOL    HW178070   3.036   4.160  12.649
25391SOL    HW278071   2.955   4.239  12.751
25392SOL     OW78072  12.813   5.442   4.602
25392SOL    HW178073  12.812   5.371   4.538
25392SOL    HW278074  12.799   5.399   4.686
25393SOL     OW78075   2.234   4.937   7.822
25393SOL    HW178076   2.291   5.000   7.778
25393SOL    HW278077   2.278   4.921   7.906
25394SOL     OW78078   8.764   2.644  14.215
25394SOL    HW178079   8.820   2.678  14.146
25394SOL    HW278080   8.704   2.584  14.171
25395SOL     OW78081   1.442  11.370   1.148
25395SOL    HW178082   1.521  11.400   1.103
25395SOL    HW278083   1.425  11.437   1.214
25396SOL     OW78084   5.919   3.583  12.080
25396SOL    HW178085   5.931   3.657  12.021
25396SOL    HW278086   5.951   3.615  12.164
25397SOL     OW78087   7.805  10.094   1.356
25397SOL    HW178088   7.778  10.002   1.352
25397SOL    HW278089   7.896  10.091   1.384
25398SOL     OW78090  12.827   2.251   9.907
25398SOL    HW178091  12.805   2.234   9.815
25398SOL    HW278092  12.877   2.332   9.905
25399SOL     OW78093   5.255   1.355   7.167
25399SOL    HW178094   5.232   1.282   7.109
25399SOL    HW278095   5.318   1.317   7.229
25400SOL     OW78096  12.252   5.548  11.062
25400SOL    HW178097  12.303   5.537  10.982
25400SOL    HW278098  12.306   5.510  11.131
25401SOL     OW78099  13.506   9.095  14.662
25401SOL    HW178100  13.467   9.182  14.658
25401SOL    HW278101  13.481   9.061  14.748
25402SOL     OW78102   3.301  10.398  13.366
25402SOL    HW178103   3.269  10.480  13.405
25402SOL    HW278104   3.348  10.355  13.437
25403SOL     OW78105  11.398   5.936   3.035
25403SOL    HW178106  11.413   6.004   3.100
25403SOL    HW278107  11.309   5.951   3.004
25404SOL     OW78108   7.075   9.728   8.673
25404SOL    HW178109   7.101   9.736   8.765
25404SOL    HW278110   7.056   9.635   8.662
25405SOL     OW78111   0.947   6.268   0.501
25405SOL    HW178112   0.933   6.199   0.436
25405SOL    HW278113   1.039   6.262   0.524
25406SOL     OW78114  11.629   2.866  10.245
25406SOL    HW178115  11.618   2.955  10.277
25406SOL    HW278116  11.580   2.812  10.307
25407SOL     OW78117   1.997  10.101  10.419
25407SOL    HW178118   1.976  10.019  10.375
25407SOL    HW278119   2.046  10.075  10.497
25408SOL     OW78120   1.541   2.208   5.199
25408SOL    HW178121   1.544   2.175   5.109
25408SOL    HW278122   1.611   2.161   5.244
25409SOL     OW78123  10.128  12.903   2.003
25409SOL    HW178124  10.203  12.876   1.950
25409SOL    HW278125  10.080  12.963   1.947
25410SOL     OW78126   2.614   2.435   4.092
25410SOL    HW178127   2.655   2.512   4.055
25410SOL    HW278128   2.669   2.413   4.168
25411SOL     OW78129  13.063   4.763  10.510
25411SOL    HW178130  13.121   4.690  10.533
25411SOL    HW278131  12.977   4.723  10.501
25412SOL     OW78132   4.794  12.684   5.110
25412SOL    HW178133   4.853  12.673   5.184
25412SOL    HW278134   4.722  12.623   5.127
25413SOL     OW78135   4.752   6.919   8.585
25413SOL    HW178136   4.686   6.935   8.517
25413SOL    HW278137   4.751   6.824   8.597
25414SOL     OW78138  10.339  13.854  13.465
25414SOL    HW178139  10.293  13.816  13.540
25414SOL    HW278140  10.375  13.936  13.498
25415SOL     OW78141   2.329   0.510  11.260
25415SOL    HW178142   2.381   0.588  11.282
25415SOL    HW278143   2.358   0.486  11.172
25416SOL     OW78144   2.004   9.446  14.767
25416SOL    HW178145   1.991   9.449  14.672
25416SOL    HW278146   2.050   9.527  14.787
25417SOL     OW78147  11.229   5.805  13.721
25417SOL    HW178148  11.215   5.744  13.794
25417SOL    HW278149  11.241   5.890  13.764
25418SOL     OW78150  10.360  13.418   7.085
25418SOL    HW178151  10.429  13.383   7.141
25418SOL    HW278152  10.324  13.491   7.135
25419SOL     OW78153   9.674   6.472   6.321
25419SOL    HW178154   9.733   6.486   6.395
25419SOL    HW278155   9.589   6.504   6.352
25420SOL     OW78156  13.060  14.244   6.730
25420SOL    HW178157  13.071  14.217   6.639
25420SOL    HW278158  13.068  14.163   6.781
25421SOL     OW78159   5.761   1.718  14.496
25421SOL    HW178160   5.688   1.660  14.522
25421SOL    HW278161   5.788   1.686  14.410
25422SOL     OW78162   1.853  12.579  10.191
25422SOL    HW178163   1.866  12.593  10.285
25422SOL    HW278164   1.937  12.601  10.152
25423SOL     OW78165   1.928   0.977  12.543
25423SOL    HW178166   1.997   1.041  12.560
25423SOL    HW278167   1.847   1.023  12.563
25424SOL     OW78168   3.618  14.250   5.035
25424SOL    HW178169   3.591  14.183   4.973
25424SOL    HW278170   3.538  14.269   5.085
25425SOL     OW78171  14.769   5.260  13.213
25425SOL    HW178172  14.721   5.222  13.287
25425SOL    HW278173  14.769   5.354  13.230
25426SOL     OW78174   2.797   3.228   6.255
25426SOL    HW178175   2.807   3.203   6.347
25426SOL    HW278176   2.743   3.158   6.218
25427SOL     OW78177   5.915  10.878   4.025
25427SOL    HW178178   5.925  10.791   3.987
25427SOL    HW278179   5.833  10.911   3.989
25428SOL     OW78180   8.960  12.532   1.267
25428SOL    HW178181   8.933  12.609   1.317
25428SOL    HW278182   8.988  12.469   1.333
25429SOL     OW78183   6.208   2.649   5.240
25429SOL    HW178184   6.224   2.673   5.149
25429SOL    HW278185   6.253   2.717   5.291
25430SOL     OW78186   5.543   0.747   2.585
25430SOL    HW178187   5.538   0.810   2.657
25430SOL    HW278188   5.458   0.703   2.586
25431SOL     OW78189   6.334   0.910   7.602
25431SOL    HW178190   6.282   0.875   7.529
25431SOL    HW278191   6.279   0.894   7.679
25432SOL     OW78192   7.026  10.313   3.119
25432SOL    HW178193   6.944  10.272   3.091
25432SOL    HW278194   7.094  10.252   3.091
25433SOL     OW78195   5.096  14.315   4.327
25433SOL    HW178196   5.181  14.340   4.291
25433SOL    HW278197   5.114  14.288   4.417
25434SOL     OW78198   3.993  14.516   8.559
25434SOL    HW178199   4.020  14.584   8.621
25434SOL    HW278200   3.997  14.558   8.473
25435SOL     OW78201   4.705   8.004  11.393
25435SOL    HW178202   4.735   7.961  11.313
25435SOL    HW278203   4.719   7.939  11.462
25436SOL     OW78204   7.467  11.087   5.888
25436SOL    HW178205   7.536  11.096   5.822
25436SOL    HW278206   7.423  11.172   5.889
25437SOL     OW78207   2.364  10.787   6.264
25437SOL    HW178208   2.342  10.812   6.353
25437SOL    HW278209   2.282  10.796   6.215
25438SOL     OW78210  13.396   4.757   4.312
25438SOL    HW178211  13.419   4.796   4.228
25438SOL    HW278212  13.315   4.709   4.295
25439SOL     OW78213  11.431   4.937   2.097
25439SOL    HW178214  11.512   4.987   2.113
25439SOL    HW278215  11.381   4.948   2.178
25440SOL     OW78216   4.369   6.193  10.774
25440SOL    HW178217   4.441   6.172  10.833
25440SOL    HW278218   4.341   6.281  10.800
25441SOL     OW78219  11.933  11.840   9.151
25441SOL    HW178220  11.903  11.804   9.235
25441SOL    HW278221  11.870  11.909   9.131
25442SOL     OW78222   1.030  14.729   3.640
25442SOL    HW178223   1.083  14.693   3.710
25442SOL    HW278224   1.053  14.822   3.638
25443SOL     OW78225   9.849  10.777   6.768
25443SOL    HW178226   9.896  10.717   6.710
25443SOL    HW278227   9.774  10.806   6.718
25444SOL     OW78228   6.511  12.951   0.258
25444SOL    HW178229   6.438  13.005   0.227
25444SOL    HW278230   6.577  12.960   0.189
25445SOL     OW78231  10.980   5.682  13.447
25445SOL    HW178232  10.983   5.589  13.472
25445SOL    HW278233  10.955   5.727  13.528
25446SOL     OW78234   3.811   6.780   3.284
25446SOL    HW178235   3.874   6.822   3.342
25446SOL    HW278236   3.726   6.797   3.323
25447SOL     OW78237   0.544   7.224   6.395
25447SOL    HW178238   0.594   7.162   6.341
25447SOL    HW278239   0.496   7.168   6.456
25448SOL     OW78240   4.916  13.145   5.511
25448SOL    HW178241   4.891  13.069   5.459
25448SOL    HW278242   4.945  13.107   5.594
25449SOL     OW78243   7.128   0.604   2.605
25449SOL    HW178244   7.127   0.543   2.679
25449SOL    HW278245   7.220   0.631   2.598
25450SOL     OW78246   5.326   4.641  10.930
25450SOL    HW178247   5.279   4.657  10.848
25450SOL    HW278248   5.262   4.660  10.998
25451SOL     OW78249  13.494   6.094   0.354
25451SOL    HW178250  13.471   6.090   0.447
25451SOL    HW278251  13.417   6.129   0.311
25452SOL     OW78252   9.916  10.076   4.619
25452SOL    HW178253   9.978  10.005   4.602
25452SOL    HW278254   9.942  10.146   4.559
25453SOL     OW78255   6.420  13.830  10.827
25453SOL    HW178256   6.425  13.740  10.794
25453SOL    HW278257   6.361  13.825  10.902
25454SOL     OW78258   1.777  11.163   1.125
25454SOL    HW178259   1.705  11.164   1.062
25454SOL    HW278260   1.850  11.123   1.077
25455SOL     OW78261   2.537  13.205   2.457
25455SOL    HW178262   2.498  13.180   2.373
25455SOL    HW278263   2.629  13.222   2.436
25456SOL     OW78264   4.458   3.381   8.914
25456SOL    HW178265   4.428   3.290   8.916
25456SOL    HW278266   4.534   3.383   8.972
25457SOL     OW78267   7.479   9.198   0.304
25457SOL    HW178268   7.537   9.189   0.379
25457SOL    HW278269   7.404   9.247   0.338
25458SOL     OW78270   6.932   7.030   3.645
25458SOL    HW178271   6.912   6.946   3.604
25458SOL    HW278272   6.946   7.009   3.737
25459SOL     OW78273  10.669   2.733  13.999
25459SOL    HW178274  10.762   2.741  13.978
25459SOL    HW278275  10.639   2.823  14.012
25460SOL     OW78276   8.201   7.547   9.680
25460SOL    HW178277   8.126   7.504   9.721
25460SOL    HW278278   8.183   7.640   9.690
25461SOL     OW78279   0.136   9.794  14.315
25461SOL    HW178280   0.105   9.704  14.324
25461SOL    HW278281   0.162   9.820  14.403
25462SOL     OW78282   2.191  13.344  12.632
25462SOL    HW178283   2.101  13.310  12.633
25462SOL    HW278284   2.237  13.292  12.698
25463SOL     OW78285  11.858   2.632  11.438
25463SOL    HW178286  11.778   2.682  11.454
25463SOL    HW278287  11.866   2.575  11.515
25464SOL     OW78288  11.075  14.090   8.436
25464SOL    HW178289  11.072  14.049   8.523
25464SOL    HW278290  10.988  14.075   8.399
25465SOL     OW78291   0.399   4.945  14.702
25465SOL    HW178292   0.427   4.959  14.611
25465SOL    HW278293   0.303   4.941  14.697
25466SOL     OW78294   0.117  12.045   0.844
25466SOL    HW178295   0.101  12.066   0.936
25466SOL    HW278296   0.062  11.968   0.827
25467SOL     OW78297   6.606   1.567   0.905
25467SOL    HW178298   6.694   1.579   0.870
25467SOL    HW278299   6.552   1.546   0.829
25468SOL     OW78300   5.345   3.144   1.852
25468SOL    HW178301   5.267   3.137   1.907
25468SOL    HW278302   5.414   3.101   1.902
25469SOL     OW78303   5.770   2.567   2.052
25469SOL    HW178304   5.771   2.473   2.030
25469SOL    HW278305   5.679   2.593   2.037
25470SOL     OW78306   5.231  13.937  13.844
25470SOL    HW178307   5.282  14.017  13.833
25470SOL    HW278308   5.218  13.930  13.939
25471SOL     OW78309  12.299   5.513  10.000
25471SOL    HW178310  12.211   5.549   9.996
25471SOL    HW278311  12.287   5.423  10.030
25472SOL     OW78312   3.199  10.363   6.932
25472SOL    HW178313   3.281  10.408   6.910
25472SOL    HW278314   3.176  10.397   7.019
25473SOL     OW78315  14.538   3.874   3.429
25473SOL    HW178316  14.562   3.892   3.520
25473SOL    HW278317  14.618   3.893   3.379
25474SOL     OW78318   6.573  13.884   7.877
25474SOL    HW178319   6.613  13.868   7.792
25474SOL    HW278320   6.479  13.871   7.863
25475SOL     OW78321   3.142   9.570   4.233
25475SOL    HW178322   3.143   9.567   4.328
25475SOL    HW278323   3.056   9.606   4.210
25476SOL     OW78324   8.908  13.226   5.479
25476SOL    HW178325   8.963  13.154   5.448
25476SOL    HW278326   8.906  13.288   5.406
25477SOL     OW78327  11.367  11.399   8.555
25477SOL    HW178328  11.304  11.370   8.489
25477SOL    HW278329  11.412  11.319   8.581
25478SOL     OW78330   6.855  12.996   8.086
25478SOL    HW178331   6.917  13.022   8.155
25478SOL    HW278332   6.789  13.066   8.085
25479SOL     OW78333   7.829   8.345   8.416
25479SOL    HW178334   7.799   8.255   8.406
25479SOL    HW278335   7.808   8.368   8.506
25480SOL     OW78336  11.220  10.597   0.798
25480SOL    HW178337  11.299  10.649   0.810
25480SOL    HW278338  11.183  10.629   0.716
25481SOL     OW78339   0.590   0.968   4.274
25481SOL    HW178340   0.604   1.041   4.334
25481SOL    HW278341   0.502   0.936   4.296
25482SOL     OW78342   7.905  13.633   4.382
25482SOL    HW178343   7.884  13.646   4.289
25482SOL    HW278344   7.968  13.561   4.383
25483SOL     OW78345   4.283   0.743   3.665
25483SOL    HW178346   4.287   0.838   3.674
25483SOL    HW278347   4.191   0.725   3.649
25484SOL     OW78348  10.275  14.666   8.688
25484SOL    HW178349  10.240  14.748   8.724
25484SOL    HW278350  10.340  14.693   8.624
25485SOL     OW78351   8.596   6.296   2.156
25485SOL    HW178352   8.611   6.248   2.075
25485SOL    HW278353   8.507   6.271   2.183
25486SOL     OW78354   9.378  14.224  10.016
25486SOL    HW178355   9.433  14.239  10.093
25486SOL    HW278356   9.304  14.283  10.028
25487SOL     OW78357  10.356  10.449   4.522
25487SOL    HW178358  10.439  10.495   4.521
25487SOL    HW278359  10.292  10.515   4.546
25488SOL     OW78360   6.971   0.096   7.785
25488SOL    HW178361   6.878   0.092   7.805
25488SOL    HW278362   7.003   0.173   7.833
25489SOL     OW78363  14.274   2.787  13.091
25489SOL    HW178364  14.330   2.810  13.017
25489SOL    HW278365  14.187   2.775  13.052
25490SOL     OW78366   1.088   8.035   5.104
25490SOL    HW178367   0.993   8.023   5.101
25490SOL    HW278368   1.122   7.978   5.035
25491SOL     OW78369  14.326   1.171   7.449
25491SOL    HW178370  14.349   1.126   7.530
25491SOL    HW278371  14.294   1.101   7.392
25492SOL     OW78372  13.795   9.725   6.738
25492SOL    HW178373  13.848   9.794   6.776
25492SOL    HW278374  13.724   9.711   6.801
25493SOL     OW78375   7.781   7.230   4.865
25493SOL    HW178376   7.806   7.310   4.818
25493SOL    HW278377   7.703   7.199   4.819
25494SOL     OW78378   9.501   2.057  10.831
25494SOL    HW178379   9.587   2.062  10.874
25494SOL    HW278380   9.494   2.139  10.783
25495SOL     OW78381   9.879   7.746   6.816
25495SOL    HW178382   9.926   7.829   6.823
25495SOL    HW278383   9.946   7.679   6.828
25496SOL     OW78384   8.127   8.833  12.611
25496SOL    HW178385   8.144   8.875  12.527
25496SOL    HW278386   8.089   8.748  12.588
25497SOL     OW78387   3.602  13.568  11.598
25497SOL    HW178388   3.528  13.519  11.562
25497SOL    HW278389   3.572  13.659  11.599
25498SOL     OW78390   2.270  12.244   8.881
25498SOL    HW178391   2.238  12.332   8.858
25498SOL    HW278392   2.350  12.234   8.831
25499SOL     OW78393   8.122  12.354   8.626
25499SOL    HW178394   8.120  12.273   8.678
25499SOL    HW278395   8.177  12.413   8.677
25500SOL     OW78396   6.029  12.589   3.562
25500SOL    HW178397   6.031  12.617   3.653
25500SOL    HW278398   6.107  12.629   3.523
25501SOL     OW78399   3.925  11.269   6.519
25501SOL    HW178400   4.007  11.229   6.550
25501SOL    HW278401   3.865  11.261   6.593
25502SOL     OW78402  10.763  13.467   7.298
25502SOL    HW178403  10.811  13.474   7.215
25502SOL    HW278404  10.826  13.495   7.364
25503SOL     OW78405   8.550  12.219  12.799
25503SOL    HW178406   8.631  12.211  12.849
25503SOL    HW278407   8.502  12.290  12.843
25504SOL     OW78408  12.457   1.410   7.711
25504SOL    HW178409  12.516   1.437   7.640
25504SOL    HW278410  12.515   1.396   7.786
25505SOL     OW78411  10.445   8.613  14.599
25505SOL    HW178412  10.526   8.570  14.572
25505SOL    HW278413  10.466   8.706  14.599
25506SOL     OW78414   8.964   8.437   0.782
25506SOL    HW178415   8.906   8.423   0.856
25506SOL    HW278416   8.977   8.350   0.744
25507SOL     OW78417   3.068   5.337   0.354
25507SOL    HW178418   3.139   5.377   0.403
25507SOL    HW278419   3.035   5.267   0.411
25508SOL     OW78420   1.108  14.670  14.043
25508SOL    HW178421   1.174  14.719  13.995
25508SOL    HW278422   1.143  14.662  14.132
25509SOL     OW78423  14.076  12.398   5.250
25509SOL    HW178424  14.064  12.311   5.214
25509SOL    HW278425  14.153  12.433   5.205
25510SOL     OW78426  13.272  11.026   8.288
25510SOL    HW178427  13.298  10.975   8.211
25510SOL    HW278428  13.179  11.009   8.298
25511SOL     OW78429  13.496   5.472  10.522
25511SOL    HW178430  13.569   5.530  10.502
25511SOL    HW278431  13.532   5.384  10.511
25512SOL     OW78432   7.759   3.272  10.991
25512SOL    HW178433   7.820   3.199  10.986
25512SOL    HW278434   7.797   3.331  11.056
25513SOL     OW78435   5.232   2.547   8.056
25513SOL    HW178436   5.143   2.560   8.088
25513SOL    HW278437   5.276   2.497   8.125
25514SOL     OW78438   3.701   1.551   2.047
25514SOL    HW178439   3.747   1.631   2.020
25514SOL    HW278440   3.754   1.480   2.010
25515SOL     OW78441   8.970  12.493  12.951
25515SOL    HW178442   8.915  12.553  12.901
25515SOL    HW278443   9.059  12.509  12.918
25516SOL     OW78444  11.753   8.524  13.275
25516SOL    HW178445  11.790   8.495  13.359
25516SOL    HW278446  11.701   8.601  13.297
25517SOL     OW78447  11.845  13.326   0.548
25517SOL    HW178448  11.804  13.249   0.588
25517SOL    HW278449  11.868  13.298   0.460
25518SOL     OW78450   3.304   6.912   4.492
25518SOL    HW178451   3.308   6.888   4.399
25518SOL    HW278452   3.214   6.892   4.518
25519SOL     OW78453   1.106   1.499  14.575
25519SOL    HW178454   1.099   1.592  14.552
25519SOL    HW278455   1.191   1.472  14.540
25520SOL     OW78456  11.553  12.504  11.856
25520SOL    HW178457  11.588  12.480  11.771
25520SOL    HW278458  11.581  12.595  11.869
25521SOL     OW78459  13.037  14.516   1.883
25521SOL    HW178460  12.995  14.436   1.851
25521SOL    HW278461  13.047  14.501   1.977
25522SOL     OW78462   3.044   0.849   4.123
25522SOL    HW178463   3.098   0.924   4.098
25522SOL    HW278464   3.077   0.776   4.070
25523SOL     OW78465  14.212   7.842   3.328
25523SOL    HW178466  14.293   7.803   3.293
25523SOL    HW278467  14.218   7.828   3.422
25524SOL     OW78468  11.922   9.725  13.914
25524SOL    HW178469  11.958   9.691  13.996
25524SOL    HW278470  11.984   9.793  13.887
25525SOL     OW78471   2.195  10.165   9.433
25525SOL    HW178472   2.222  10.082   9.394
25525SOL    HW278473   2.240  10.168   9.518
25526SOL     OW78474  12.355   6.226   2.094
25526SOL    HW178475  12.398   6.141   2.103
25526SOL    HW278476  12.301   6.217   2.016
25527SOL     OW78477   7.033   8.393   7.950
25527SOL    HW178478   6.995   8.440   7.876
25527SOL    HW278479   7.120   8.432   7.962
25528SOL     OW78480   2.854  13.060  13.967
25528SOL    HW178481   2.761  13.042  13.978
25528SOL    HW278482   2.857  13.127  13.899
25529SOL     OW78483  12.925   7.792   6.498
25529SOL    HW178484  13.002   7.737   6.480
25529SOL    HW278485  12.899   7.767   6.587
25530SOL     OW78486   7.038  12.282   7.341
25530SOL    HW178487   7.115  12.304   7.288
25530SOL    HW278488   7.008  12.366   7.376
25531SOL     OW78489   2.378  14.480  13.547
25531SOL    HW178490   2.368  14.386  13.538
25531SOL    HW278491   2.392  14.495  13.640
25532SOL     OW78492   9.525   9.205  10.506
25532SOL    HW178493   9.560   9.157  10.431
25532SOL    HW278494   9.445   9.247  10.472
25533SOL     OW78495   4.691   3.592  13.095
25533SOL    HW178496   4.710   3.516  13.149
25533SOL    HW278497   4.640   3.650  13.152
25534SOL     OW78498   2.818  10.927   0.626
25534SOL    HW178499   2.862  10.947   0.543
25534SOL    HW278500   2.862  10.982   0.690
25535SOL     OW78501   4.574  10.783   0.603
25535SOL    HW178502   4.660  10.813   0.575
25535SOL    HW278503   4.530  10.759   0.521
25536SOL     OW78504  14.484  10.901  12.388
25536SOL    HW178505  14.422  10.855  12.444
25536SOL    HW278506  14.510  10.837  12.323
25537SOL     OW78507   4.757   6.010   9.286
25537SOL    HW178508   4.685   5.964   9.329
25537SOL    HW278509   4.760   6.095   9.329
25538SOL     OW78510   1.560   3.581   0.584
25538SOL    HW178511   1.571   3.532   0.503
25538SOL    HW278512   1.468   3.568   0.607
25539SOL     OW78513   3.397   2.802  11.928
25539SOL    HW178514   3.389   2.897  11.936
25539SOL    HW278515   3.491   2.785  11.936
25540SOL     OW78516  10.513   3.476   2.164
25540SOL    HW178517  10.582   3.540   2.147
25540SOL    HW278518  10.444   3.499   2.102
25541SOL     OW78519   6.472   2.447  14.281
25541SOL    HW178520   6.388   2.413  14.314
25541SOL    HW278521   6.513   2.488  14.358
25542SOL     OW78522   3.870   0.496   0.714
25542SOL    HW178523   3.817   0.491   0.634
25542SOL    HW278524   3.821   0.445   0.778
25543SOL     OW78525  12.090   6.606   9.754
25543SOL    HW178526  12.129   6.661   9.686
25543SOL    HW278527  12.163   6.581   9.810
25544SOL     OW78528  14.196  14.276   6.890
25544SOL    HW178529  14.163  14.339   6.954
25544SOL    HW278530  14.118  14.243   6.846
25545SOL     OW78531   0.090  13.730   1.243
25545SOL    HW178532   0.132  13.646   1.264
25545SOL    HW278533   0.105  13.784   1.320
25546SOL     OW78534  14.023  13.363  11.864
25546SOL    HW178535  14.059  13.452  11.865
25546SOL    HW278536  13.955  13.364  11.931
25547SOL     OW78537   7.115   1.001   1.660
25547SOL    HW178538   7.127   1.086   1.701
25547SOL    HW278539   7.192   0.991   1.603
25548SOL     OW78540   5.028   7.792  12.201
25548SOL    HW178541   5.085   7.812  12.275
25548SOL    HW278542   4.941   7.783  12.239
25549SOL     OW78543  11.349  12.082  12.794
25549SOL    HW178544  11.389  12.156  12.839
25549SOL    HW278545  11.279  12.120  12.741
25550SOL     OW78546   7.501  12.711  10.477
25550SOL    HW178547   7.530  12.782  10.535
25550SOL    HW278548   7.559  12.638  10.499
25551SOL     OW78549   7.029   9.466   1.289
25551SOL    HW178550   6.971   9.516   1.231
25551SOL    HW278551   7.027   9.377   1.254
25552SOL     OW78552   0.952   9.638  13.996
25552SOL    HW178553   1.003   9.592  13.929
25552SOL    HW278554   0.927   9.720  13.953
25553SOL     OW78555  11.669   6.441   8.173
25553SOL    HW178556  11.589   6.425   8.122
25553SOL    HW278557  11.649   6.404   8.259
25554SOL     OW78558  12.219   7.801   2.036
25554SOL    HW178559  12.286   7.747   1.994
25554SOL    HW278560  12.266   7.880   2.063
25555SOL     OW78561   0.742   4.250   9.298
25555SOL    HW178562   0.681   4.236   9.226
25555SOL    HW278563   0.686   4.260   9.375
25556SOL     OW78564   3.892   6.259  11.897
25556SOL    HW178565   3.846   6.209  11.964
25556SOL    HW278566   3.829   6.269  11.826
25557SOL     OW78567   8.065   3.107   8.196
25557SOL    HW178568   8.081   3.110   8.101
25557SOL    HW278569   8.152   3.121   8.234
25558SOL     OW78570  10.916  11.496   9.516
25558SOL    HW178571  10.942  11.573   9.567
25558SOL    HW278572  10.821  11.490   9.527
25559SOL     OW78573   5.532   9.990   3.197
25559SOL    HW178574   5.470   9.971   3.268
25559SOL    HW278575   5.478  10.026   3.127
25560SOL     OW78576   2.334   7.304   8.639
25560SOL    HW178577   2.324   7.284   8.546
25560SOL    HW278578   2.371   7.393   8.640
25561SOL     OW78579  10.979  11.453   8.653
25561SOL    HW178580  11.041  11.437   8.723
25561SOL    HW278581  10.917  11.516   8.690
25562SOL     OW78582  14.341   4.300   3.944
25562SOL    HW178583  14.349   4.395   3.958
25562SOL    HW278584  14.323   4.291   3.850
25563SOL     OW78585   0.608   3.023   9.443
25563SOL    HW178586   0.599   2.934   9.477
25563SOL    HW278587   0.650   3.013   9.358
25564SOL     OW78588   4.781   6.312   1.683
25564SOL    HW178589   4.807   6.404   1.692
25564SOL    HW278590   4.716   6.312   1.614
25565SOL     OW78591   3.638   7.150  10.522
25565SOL    HW178592   3.542   7.155  10.524
25565SOL    HW278593   3.663   7.197  10.442
25566SOL     OW78594   9.151   7.168  14.689
25566SOL    HW178595   9.065   7.128  14.702
25566SOL    HW278596   9.138   7.261  14.710
25567SOL     OW78597  10.871   3.259   2.055
25567SOL    HW178598  10.785   3.253   2.015
25567SOL    HW278599  10.890   3.353   2.058
25568SOL     OW78600   6.959   9.988   1.014
25568SOL    HW178601   6.932  10.049   1.083
25568SOL    HW278602   7.005  10.043   0.951
25569SOL     OW78603   4.529  13.777  12.357
25569SOL    HW178604   4.510  13.834  12.282
25569SOL    HW278605   4.565  13.836  12.423
25570SOL     OW78606  13.100  10.566  14.653
25570SOL    HW178607  13.137  10.616  14.581
25570SOL    HW278608  13.072  10.632  14.717
25571SOL     OW78609  13.057   2.729   4.970
25571SOL    HW178610  13.011   2.718   4.886
25571SOL    HW278611  13.056   2.823   4.986
25572SOL     OW78612   7.273   2.197   0.470
25572SOL    HW178613   7.206   2.219   0.405
25572SOL    HW278614   7.253   2.107   0.495
25573SOL     OW78615   0.492   1.941  11.119
25573SOL    HW178616   0.427   2.009  11.134
25573SOL    HW278617   0.526   1.960  11.032
25574SOL     OW78618   2.402   3.678  14.600
25574SOL    HW178619   2.376   3.746  14.662
25574SOL    HW278620   2.355   3.701  14.519
25575SOL     OW78621   1.071  10.012   2.481
25575SOL    HW178622   1.041  10.102   2.474
25575SOL    HW278623   1.003   9.969   2.534
25576SOL     OW78624  11.243  10.772   8.396
25576SOL    HW178625  11.235  10.866   8.411
25576SOL    HW278626  11.336  10.754   8.409
25577SOL     OW78627   0.282  13.935   8.449
25577SOL    HW178628   0.363  13.916   8.400
25577SOL    HW278629   0.231  13.991   8.390
25578SOL     OW78630   1.956  10.312   6.344
25578SOL    HW178631   2.033  10.347   6.299
25578SOL    HW278632   1.958  10.218   6.325
25579SOL     OW78633  14.043   1.395   1.250
25579SOL    HW178634  14.013   1.326   1.190
25579SOL    HW278635  14.086   1.459   1.192
25580SOL     OW78636   1.863   6.176   6.291
25580SOL    HW178637   1.930   6.193   6.224
25580SOL    HW278638   1.865   6.081   6.303
25581SOL     OW78639   6.833  14.184   4.136
25581SOL    HW178640   6.753  14.236   4.147
25581SOL    HW278641   6.804  14.093   4.141
25582SOL     OW78642   3.344  10.219   5.280
25582SOL    HW178643   3.261  10.172   5.275
25582SOL    HW278644   3.389  10.182   5.356
25583SOL     OW78645   3.445  11.326   4.272
25583SOL    HW178646   3.365  11.368   4.241
25583SOL    HW278647   3.484  11.390   4.332
25584SOL     OW78648   8.603   1.781  11.916
25584SOL    HW178649   8.632   1.873  11.921
25584SOL    HW278650   8.680   1.731  11.941
25585SOL     OW78651   6.703  14.205   0.438
25585SOL    HW178652   6.732  14.244   0.521
25585SOL    HW278653   6.783  14.169   0.400
25586SOL     OW78654   8.878  13.390   1.484
25586SOL    HW178655   8.858  13.303   1.517
25586SOL    HW278656   8.793  13.435   1.484
25587SOL     OW78657   7.650   1.815   4.749
25587SOL    HW178658   7.738   1.785   4.729
25587SOL    HW278659   7.639   1.893   4.695
25588SOL     OW78660   0.684  12.731   9.664
25588SOL    HW178661   0.687  12.760   9.755
25588SOL    HW278662   0.769  12.757   9.628
25589SOL     OW78663   0.532   9.793  10.776
25589SOL    HW178664   0.460   9.749  10.732
25589SOL    HW278665   0.507   9.792  10.869
25590SOL     OW78666   4.463  14.013   7.478
25590SOL    HW178667   4.491  14.045   7.564
25590SOL    HW278668   4.509  14.069   7.416
25591SOL     OW78669   8.663  13.642   9.259
25591SOL    HW178670   8.579  13.612   9.224
25591SOL    HW278671   8.654  13.633   9.354
25592SOL     OW78672   8.418   1.238   1.389
25592SOL    HW178673   8.433   1.317   1.442
25592SOL    HW278674   8.415   1.271   1.299
25593SOL     OW78675  11.537  14.133  11.175
25593SOL    HW178676  11.585  14.055  11.201
25593SOL    HW278677  11.545  14.136  11.079
25594SOL     OW78678   8.787   2.568  10.992
25594SOL    HW178679   8.696   2.597  10.997
25594SOL    HW278680   8.838   2.649  10.997
25595SOL     OW78681   8.246   3.629  10.105
25595SOL    HW178682   8.284   3.670  10.027
25595SOL    HW278683   8.300   3.552  10.121
25596SOL     OW78684   7.871  11.970  12.619
25596SOL    HW178685   7.855  11.969  12.714
25596SOL    HW278686   7.895  12.060  12.599
25597SOL     OW78687   3.367  14.638  10.303
25597SOL    HW178688   3.383  14.630  10.397
25597SOL    HW278689   3.348  14.731  10.290
25598SOL     OW78690  12.227   8.407  13.789
25598SOL    HW178691  12.243   8.315  13.809
25598SOL    HW278692  12.147   8.406  13.736
25599SOL     OW78693   1.553  11.285   3.690
25599SOL    HW178694   1.611  11.306   3.763
25599SOL    HW278695   1.561  11.190   3.680
25600SOL     OW78696   5.013   4.253  12.138
25600SOL    HW178697   4.957   4.268  12.062
25600SOL    HW278698   5.088   4.310  12.125
25601SOL     OW78699  13.006   0.114   6.402
25601SOL    HW178700  12.990   0.022   6.379
25601SOL    HW278701  13.038   0.110   6.492
25602SOL     OW78702  13.022   4.909  12.749
25602SOL    HW178703  13.013   5.004  12.760
25602SOL    HW278704  12.946   4.873  12.794
25603SOL     OW78705   1.317  10.240   8.378
25603SOL    HW178706   1.321  10.335   8.371
25603SOL    HW278707   1.318  10.208   8.288
25604SOL     OW78708   8.008   8.797  14.060
25604SOL    HW178709   7.916   8.803  14.034
25604SOL    HW278710   8.018   8.862  14.129
25605SOL     OW78711   1.492  14.187  10.319
25605SOL    HW178712   1.451  14.108  10.283
25605SOL    HW278713   1.424  14.255  10.310
25606SOL     OW78714   0.315   7.078   7.834
25606SOL    HW178715   0.323   7.172   7.821
25606SOL    HW278716   0.324   7.040   7.747
25607SOL     OW78717   1.002   8.302  12.395
25607SOL    HW178718   0.931   8.337  12.342
25607SOL    HW278719   1.079   8.353  12.369
25608SOL     OW78720   2.840   7.109   8.568
25608SOL    HW178721   2.790   7.157   8.503
25608SOL    HW278722   2.826   7.157   8.650
25609SOL     OW78723   4.416   3.134   7.007
25609SOL    HW178724   4.377   3.202   6.952
25609SOL    HW278725   4.367   3.055   6.986
25610SOL     OW78726  13.100   2.116   1.630
25610SOL    HW178727  13.150   2.156   1.559
25610SOL    HW278728  13.166   2.087   1.693
25611SOL     OW78729   0.820   0.561   4.202
25611SOL    HW178730   0.884   0.545   4.272
25611SOL    HW278731   0.841   0.496   4.135
25612SOL     OW78732   0.372   6.800  13.520
25612SOL    HW178733   0.424   6.855  13.462
25612SOL    HW278734   0.307   6.758  13.463
25613SOL     OW78735   1.103   6.272  11.824
25613SOL    HW178736   1.118   6.231  11.909
25613SOL    HW278737   1.142   6.359  11.831
25614SOL     OW78738   0.964   9.520   2.643
25614SOL    HW178739   0.909   9.445   2.661
25614SOL    HW278740   0.973   9.564   2.728
25615SOL     OW78741   0.666   7.250   1.140
25615SOL    HW178742   0.656   7.339   1.105
25615SOL    HW278743   0.730   7.260   1.211
25616SOL     OW78744   8.107   0.176  14.312
25616SOL    HW178745   8.158   0.102  14.344
25616SOL    HW278746   8.155   0.253  14.341
25617SOL     OW78747   0.619   5.948  10.823
25617SOL    HW178748   0.694   5.892  10.802
25617SOL    HW278749   0.588   5.915  10.908
25618SOL     OW78750   6.904  13.102  13.478
25618SOL    HW178751   6.889  13.111  13.384
25618SOL    HW278752   6.952  13.181  13.502
25619SOL     OW78753   3.261   5.827  11.056
25619SOL    HW178754   3.303   5.748  11.089
25619SOL    HW278755   3.187   5.842  11.114
25620SOL     OW78756   1.213   4.652   6.635
25620SOL    HW178757   1.304   4.626   6.649
25620SOL    HW278758   1.188   4.607   6.554
25621SOL     OW78759  12.361   5.989   2.716
25621SOL    HW178760  12.268   5.985   2.739
25621SOL    HW278761  12.376   5.912   2.662
25622SOL     OW78762   1.625   5.607   1.876
25622SOL    HW178763   1.538   5.609   1.916
25622SOL    HW278764   1.628   5.686   1.822
25623SOL     OW78765   1.123  12.470   6.600
25623SOL    HW178766   1.081  12.407   6.542
25623SOL    HW278767   1.105  12.555   6.560
25624SOL     OW78768   8.956   1.754   2.524
25624SOL    HW178769   8.986   1.809   2.451
25624SOL    HW278770   9.011   1.780   2.598
25625SOL     OW78771   9.256   2.901  11.345
25625SOL    HW178772   9.202   2.839  11.298
25625SOL    HW278773   9.334   2.912  11.290
25626SOL     OW78774   9.790  11.394   1.219
25626SOL    HW178775   9.844  11.459   1.173
25626SOL    HW278776   9.716  11.444   1.252
25627SOL     OW78777   7.282  11.296   4.334
25627SOL    HW178778   7.369  11.303   4.374
25627SOL    HW278779   7.261  11.203   4.339
25628SOL     OW78780   6.725   0.482   7.150
25628SOL    HW178781   6.785   0.417   7.188
25628SOL    HW278782   6.653   0.487   7.213
25629SOL     OW78783  13.211   5.264   0.931
25629SOL    HW178784  13.173   5.214   1.003
25629SOL    HW278785  13.142   5.267   0.865
25630SOL     OW78786   6.506   4.045   7.472
25630SOL    HW178787   6.449   4.005   7.406
25630SOL    HW278788   6.569   3.976   7.494
25631SOL     OW78789  13.431   6.916  11.844
25631SOL    HW178790  13.378   6.938  11.768
25631SOL    HW278791  13.509   6.874  11.808
25632SOL     OW78792  13.530   1.721   8.744
25632SOL    HW178793  13.475   1.749   8.670
25632SOL    HW278794  13.486   1.757   8.821
25633SOL     OW78795   9.971   0.012   4.610
25633SOL    HW178796  10.004  14.809   4.656
25633SOL    HW278797  10.046   0.072   4.610
25634SOL     OW78798  13.750  14.807  12.392
25634SOL    HW178799  13.750  14.860  12.472
25634SOL    HW278800  13.724  14.720  12.421
25635SOL     OW78801   0.031   4.854   0.013
25635SOL    HW178802   0.020   4.835  14.795
25635SOL    HW278803   0.109   4.805   0.038
25636SOL     OW78804   4.838   7.530   8.157
25636SOL    HW178805   4.761   7.519   8.214
25636SOL    HW278806   4.903   7.573   8.213
25637SOL     OW78807   0.642   6.820   2.435
25637SOL    HW178808   0.620   6.910   2.457
25637SOL    HW278809   0.689   6.787   2.511
25638SOL     OW78810   1.106  13.961   8.705
25638SOL    HW178811   1.045  13.931   8.637
25638SOL    HW278812   1.105  13.891   8.771
25639SOL     OW78813  10.539  14.545   6.196
25639SOL    HW178814  10.593  14.466   6.206
25639SOL    HW278815  10.498  14.535   6.110
25640SOL     OW78816   8.525  12.309  13.676
25640SOL    HW178817   8.516  12.277  13.587
25640SOL    HW278818   8.435  12.319  13.707
25641SOL     OW78819   8.974  11.218   1.391
25641SOL    HW178820   8.978  11.147   1.455
25641SOL    HW278821   8.901  11.272   1.420
25642SOL     OW78822   9.059   4.816   7.847
25642SOL    HW178823   9.104   4.799   7.764
25642SOL    HW278824   9.088   4.904   7.872
25643SOL     OW78825   0.650  13.173   4.821
25643SOL    HW178826   0.566  13.196   4.781
25643SOL    HW278827   0.627  13.108   4.888
25644SOL     OW78828   6.852   8.516   3.109
25644SOL    HW178829   6.856   8.494   3.016
25644SOL    HW278830   6.763   8.547   3.122
25645SOL     OW78831   6.256  14.373   1.990
25645SOL    HW178832   6.240  14.314   1.917
25645SOL    HW278833   6.170  14.408   2.013
25646SOL     OW78834  11.411   7.435   8.640
25646SOL    HW178835  11.506   7.428   8.649
25646SOL    HW278836  11.388   7.514   8.688
25647SOL     OW78837   6.929  12.992   3.202
25647SOL    HW178838   6.934  13.003   3.297
25647SOL    HW278839   6.861  13.054   3.175
25648SOL     OW78840  10.996   7.651  10.103
25648SOL    HW178841  10.995   7.694  10.017
25648SOL    HW278842  10.944   7.709  10.159
25649SOL     OW78843   1.203  11.969  10.517
25649SOL    HW178844   1.160  11.888  10.492
25649SOL    HW278845   1.138  12.017  10.567
25650SOL     OW78846   8.888   8.034   7.420
25650SOL    HW178847   8.809   8.070   7.381
25650SOL    HW278848   8.891   8.070   7.508
25651SOL     OW78849   8.237  11.239   7.571
25651SOL    HW178850   8.234  11.148   7.604
25651SOL    HW278851   8.185  11.288   7.634
25652SOL     OW78852   7.685   0.340   0.251
25652SOL    HW178853   7.711   0.252   0.278
25652SOL    HW278854   7.653   0.329   0.162
25653SOL     OW78855  14.674   3.050   8.829
25653SOL    HW178856  14.633   3.002   8.901
25653SOL    HW278857  14.733   3.112   8.872
25654SOL     OW78858  11.620   4.195   1.270
25654SOL    HW178859  11.618   4.278   1.223
25654SOL    HW278860  11.536   4.190   1.315
25655SOL     OW78861   0.468  12.738   3.566
25655SOL    HW178862   0.471  12.826   3.604
25655SOL    HW278863   0.447  12.681   3.640
25656SOL     OW78864  12.621  12.130  14.397
25656SOL    HW178865  12.641  12.143  14.304
25656SOL    HW278866  12.639  12.214  14.437
25657SOL     OW78867   2.114  13.571   1.834
25657SOL    HW178868   2.193  13.593   1.884
25657SOL    HW278869   2.087  13.486   1.869
25658SOL     OW78870  11.748   4.860   6.778
25658SOL    HW178871  11.761   4.939   6.725
25658SOL    HW278872  11.693   4.803   6.724
25659SOL     OW78873   7.083   5.024   0.479
25659SOL    HW178874   6.989   5.012   0.494
25659SOL    HW278875   7.124   4.947   0.518
25660SOL     OW78876  14.095   0.492   0.968
25660SOL    HW178877  14.041   0.427   0.924
25660SOL    HW278878  14.080   0.476   1.062
25661SOL     OW78879   4.363   8.958   5.968
25661SOL    HW178880   4.315   9.033   6.005
25661SOL    HW278881   4.429   8.937   6.034
25662SOL     OW78882   1.648   7.673   6.574
25662SOL    HW178883   1.668   7.734   6.503
25662SOL    HW278884   1.588   7.609   6.535
25663SOL     OW78885  10.987  14.235  14.737
25663SOL    HW178886  11.076  14.236  14.701
25663SOL    HW278887  10.980  14.150  14.780
25664SOL     OW78888   8.545  10.391   8.443
25664SOL    HW178889   8.534  10.297   8.457
25664SOL    HW278890   8.592  10.421   8.521
25665SOL     OW78891   1.153   5.462   9.502
25665SOL    HW178892   1.241   5.493   9.524
25665SOL    HW278893   1.103   5.542   9.485
25666SOL     OW78894   8.871  13.198  12.180
25666SOL    HW178895   8.803  13.201  12.112
25666SOL    HW278896   8.925  13.275  12.162
25667SOL     OW78897   4.495   4.453   8.292
25667SOL    HW178898   4.546   4.380   8.257
25667SOL    HW278899   4.531   4.531   8.248
25668SOL     OW78900   7.793  11.571   9.348
25668SOL    HW178901   7.839  11.638   9.299
25668SOL    HW278902   7.709  11.561   9.303
25669SOL     OW78903  13.976   7.757  10.928
25669SOL    HW178904  14.007   7.689  10.988
25669SOL    HW278905  13.963   7.834  10.985
25670SOL     OW78906   2.984  12.750   4.151
25670SOL    HW178907   3.065  12.797   4.168
25670SOL    HW278908   2.988  12.674   4.210
25671SOL     OW78909  10.095   9.898   2.771
25671SOL    HW178910  10.086   9.972   2.832
25671SOL    HW278911  10.008   9.887   2.734
25672SOL     OW78912   2.603   3.398  13.869
25672SOL    HW178913   2.578   3.326  13.811
25672SOL    HW278914   2.529   3.406  13.930
25673SOL     OW78915  11.927   1.571   1.170
25673SOL    HW178916  11.883   1.572   1.085
25673SOL    HW278917  12.000   1.632   1.160
25674SOL     OW78918  13.914   7.013  10.285
25674SOL    HW178919  13.849   6.958  10.329
25674SOL    HW278920  13.950   6.957  10.216
25675SOL     OW78921   2.239   5.531   6.546
25675SOL    HW178922   2.288   5.463   6.499
25675SOL    HW278923   2.154   5.490   6.565
25676SOL     OW78924  13.053   5.841   4.759
25676SOL    HW178925  12.978   5.814   4.707
25676SOL    HW278926  13.129   5.807   4.711
25677SOL     OW78927   6.578   0.071   6.412
25677SOL    HW178928   6.564   0.021   6.331
25677SOL    HW278929   6.521   0.030   6.476
25678SOL     OW78930  10.804  14.396   2.205
25678SOL    HW178931  10.724  14.388   2.153
25678SOL    HW278932  10.837  14.306   2.214
25679SOL     OW78933   1.779   4.688   2.844
25679SOL    HW178934   1.813   4.617   2.790
25679SOL    HW278935   1.762   4.648   2.929
25680SOL     OW78936   3.897  12.456   7.811
25680SOL    HW178937   3.905  12.361   7.806
25680SOL    HW278938   3.848  12.472   7.891
25681SOL     OW78939   4.103   6.856  11.950
25681SOL    HW178940   4.036   6.851  12.019
25681SOL    HW278941   4.155   6.777  11.960
25682SOL     OW78942   2.722   2.991  10.380
25682SOL    HW178943   2.689   2.901  10.379
25682SOL    HW278944   2.644   3.045  10.369
25683SOL     OW78945   1.341   0.229   2.743
25683SOL    HW178946   1.406   0.237   2.673
25683SOL    HW278947   1.364   0.148   2.788
25684SOL     OW78948   6.359  12.462   7.144
25684SOL    HW178949   6.432  12.416   7.103
25684SOL    HW278950   6.378  12.555   7.132
25685SOL     OW78951   3.018   8.749  10.103
25685SOL    HW178952   2.981   8.723  10.188
25685SOL    HW278953   3.112   8.733  10.112
25686SOL     OW78954  13.248  11.448   8.774
25686SOL    HW178955  13.330  11.477   8.735
25686SOL    HW278956  13.220  11.521   8.829
25687SOL     OW78957   4.031  10.607   3.250
25687SOL    HW178958   4.059  10.687   3.294
25687SOL    HW278959   3.959  10.574   3.303
25688SOL     OW78960   2.306   1.165   2.496
25688SOL    HW178961   2.370   1.101   2.464
25688SOL    HW278962   2.228   1.114   2.516
25689SOL     OW78963   8.630  14.573  11.161
25689SOL    HW178964   8.708  14.628  11.165
25689SOL    HW278965   8.652  14.506  11.095
25690SOL     OW78966   2.884   8.424  10.111
25690SOL    HW178967   2.793   8.446  10.127
25690SOL    HW278968   2.931   8.455  10.188
25691SOL     OW78969  14.633   8.928  11.445
25691SOL    HW178970  14.667   9.011  11.479
25691SOL    HW278971  14.640   8.868  11.519
25692SOL     OW78972   0.809  11.803   7.108
25692SOL    HW178973   0.776  11.875   7.053
25692SOL    HW278974   0.904  11.819   7.112
25693SOL     OW78975  11.489  12.287   2.426
25693SOL    HW178976  11.575  12.249   2.407
25693SOL    HW278977  11.451  12.304   2.340
25694SOL     OW78978  14.535   9.024   4.376
25694SOL    HW178979  14.559   9.115   4.362
25694SOL    HW278980  14.580   8.975   4.307
25695SOL     OW78981  10.119  11.786  12.846
25695SOL    HW178982  10.033  11.804  12.884
25695SOL    HW278983  10.118  11.692  12.828
25696SOL     OW78984   0.435   2.353   0.902
25696SOL    HW178985   0.481   2.428   0.865
25696SOL    HW278986   0.486   2.329   0.980
25697SOL     OW78987  14.134   2.170  10.717
25697SOL    HW178988  14.044   2.140  10.703
25697SOL    HW278989  14.187   2.113  10.661
25698SOL     OW78990  13.108   9.495   9.325
25698SOL    HW178991  13.055   9.416   9.334
25698SOL    HW278992  13.163   9.496   9.403
25699SOL     OW78993  10.945  10.832  13.437
25699SOL    HW178994  10.920  10.879  13.357
25699SOL    HW278995  11.036  10.854  13.450
25700SOL     OW78996  11.067   9.116   5.650
25700SOL    HW178997  11.035   9.203   5.626
25700SOL    HW278998  11.045   9.061   5.575
25701SOL     OW78999   5.763  13.829   9.529
25701SOL    HW179000   5.751  13.911   9.482
25701SOL    HW279001   5.715  13.764   9.476
25702SOL     OW79002   2.565  14.205   9.730
25702SOL    HW179003   2.515  14.212   9.811
25702SOL    HW279004   2.588  14.112   9.725
25703SOL     OW79005   1.457  13.844  11.618
25703SOL    HW179006   1.485  13.867  11.707
25703SOL    HW279007   1.539  13.826  11.572
25704SOL     OW79008  13.215  10.983  11.405
25704SOL    HW179009  13.146  11.041  11.436
25704SOL    HW279010  13.181  10.895  11.419
25705SOL     OW79011   7.367   3.274  10.912
25705SOL    HW179012   7.349   3.222  10.834
25705SOL    HW279013   7.355   3.214  10.985
25706SOL     OW79014   9.967   2.064   9.720
25706SOL    HW179015  10.002   2.119   9.650
25706SOL    HW279016   9.926   1.991   9.675
25707SOL     OW79017  14.064  11.568   4.188
25707SOL    HW179018  13.969  11.578   4.175
25707SOL    HW279019  14.082  11.614   4.270
25708SOL     OW79020   2.393   1.979   1.650
25708SOL    HW179021   2.366   1.887   1.649
25708SOL    HW279022   2.316   2.027   1.619
25709SOL     OW79023   4.014   4.451  13.736
25709SOL    HW179024   3.946   4.505  13.696
25709SOL    HW279025   4.092   4.467  13.684
25710SOL     OW79026   4.602   3.351   9.935
25710SOL    HW179027   4.636   3.427   9.887
25710SOL    HW279028   4.575   3.387  10.019
25711SOL     OW79029  13.527   7.794   2.499
25711SOL    HW179030  13.513   7.862   2.566
25711SOL    HW279031  13.573   7.724   2.545
25712SOL     OW79032   8.750  10.751   1.540
25712SOL    HW179033   8.763  10.780   1.630
25712SOL    HW279034   8.751  10.832   1.489
25713SOL     OW79035   5.802   7.226  13.510
25713SOL    HW179036   5.825   7.310  13.549
25713SOL    HW279037   5.713   7.239  13.476
25714SOL     OW79038   6.991  14.116  12.863
25714SOL    HW179039   6.902  14.152  12.862
25714SOL    HW279040   7.033  14.160  12.938
25715SOL     OW79041   2.078   0.891   6.722
25715SOL    HW179042   1.997   0.866   6.677
25715SOL    HW279043   2.086   0.985   6.707
25716SOL     OW79044   6.970   9.768   7.189
25716SOL    HW179045   6.968   9.863   7.195
25716SOL    HW279046   6.974   9.749   7.095
25717SOL     OW79047   5.054  13.974   7.592
25717SOL    HW179048   4.984  14.003   7.650
25717SOL    HW279049   5.029  13.885   7.566
25718SOL     OW79050   3.634   4.022   2.495
25718SOL    HW179051   3.635   3.926   2.486
25718SOL    HW279052   3.659   4.037   2.586
25719SOL     OW79053   2.542   4.769   5.875
25719SOL    HW179054   2.612   4.723   5.827
25719SOL    HW279055   2.519   4.843   5.819
25720SOL     OW79056   3.605  12.652   0.112
25720SOL    HW179057   3.652  12.603   0.179
25720SOL    HW279058   3.674  12.696   0.061
25721SOL     OW79059  11.571  12.778   3.870
25721SOL    HW179060  11.511  12.834   3.822
25721SOL    HW279061  11.515  12.710   3.908
25722SOL     OW79062  11.146   0.524  13.858
25722SOL    HW179063  11.138   0.615  13.887
25722SOL    HW279064  11.104   0.473  13.927
25723SOL     OW79065   9.026  13.293  10.656
25723SOL    HW179066   9.086  13.284  10.582
25723SOL    HW279067   9.001  13.386  10.656
25724SOL     OW79068   7.119   5.397   8.718
25724SOL    HW179069   7.178   5.470   8.700
25724SOL    HW279070   7.176   5.321   8.722
25725SOL     OW79071   4.543  14.685  10.710
25725SOL    HW179072   4.538  14.597  10.672
25725SOL    HW279073   4.534  14.671  10.804
25726SOL     OW79074   7.961   8.262  10.285
25726SOL    HW179075   7.987   8.326  10.350
25726SOL    HW279076   7.865   8.265  10.285
25727SOL     OW79077   0.272   9.103   6.056
25727SOL    HW179078   0.339   9.130   6.120
25727SOL    HW279079   0.240   9.019   6.089
25728SOL     OW79080   1.133   5.235   5.880
25728SOL    HW179081   1.102   5.321   5.908
25728SOL    HW279082   1.228   5.246   5.869
25729SOL     OW79083   7.269   5.109   3.598
25729SOL    HW179084   7.329   5.035   3.609
25729SOL    HW279085   7.308   5.162   3.528
25730SOL     OW79086   6.453   8.271  11.295
25730SOL    HW179087   6.402   8.234  11.367
25730SOL    HW279088   6.495   8.196  11.254
25731SOL     OW79089   6.552   3.107   9.739
25731SOL    HW179090   6.503   3.104   9.821
25731SOL    HW279091   6.485   3.113   9.671
25732SOL     OW79092  13.250  13.084  11.874
25732SOL    HW179093  13.239  13.026  11.799
25732SOL    HW279094  13.198  13.044  11.944
25733SOL     OW79095   5.095   6.941   1.376
25733SOL    HW179096   5.083   6.880   1.304
25733SOL    HW279097   5.189   6.952   1.383
25734SOL     OW79098   1.179   4.020  11.382
25734SOL    HW179099   1.227   3.989  11.305
25734SOL    HW279100   1.247   4.037  11.447
25735SOL     OW79101   1.634   5.134   9.419
25735SOL    HW179102   1.653   5.054   9.470
25735SOL    HW279103   1.604   5.101   9.334
25736SOL     OW79104   2.467  12.233   8.695
25736SOL    HW179105   2.460  12.175   8.619
25736SOL    HW279106   2.459  12.321   8.659
25737SOL     OW79107   4.853  13.126   0.509
25737SOL    HW179108   4.768  13.157   0.478
25737SOL    HW279109   4.873  13.051   0.453
25738SOL     OW79110   8.024   3.895  11.098
25738SOL    HW179111   7.963   3.850  11.039
25738SOL    HW279112   8.093   3.830  11.114
25739SOL     OW79113   0.053   2.124  14.083
25739SOL    HW179114  14.836   2.104  14.066
25739SOL    HW279115   0.100   2.087  14.009
25740SOL     OW79116   6.954  12.315   8.961
25740SOL    HW179117   6.864  12.327   8.989
25740SOL    HW279118   6.954  12.232   8.912
25741SOL     OW79119  13.662  11.381   5.333
25741SOL    HW179120  13.621  11.295   5.318
25741SOL    HW279121  13.754  11.368   5.308
25742SOL     OW79122   2.284   4.749   2.204
25742SOL    HW179123   2.344   4.685   2.243
25742SOL    HW279124   2.332   4.782   2.128
25743SOL     OW79125   4.441  12.856   1.989
25743SOL    HW179126   4.351  12.832   1.968
25743SOL    HW279127   4.456  12.938   1.943
25744SOL     OW79128   4.445   4.036   3.246
25744SOL    HW179129   4.429   4.112   3.189
25744SOL    HW279130   4.419   4.066   3.334
25745SOL     OW79131   3.420   2.363   1.630
25745SOL    HW179132   3.467   2.281   1.647
25745SOL    HW279133   3.374   2.348   1.547
25746SOL     OW79134   1.744  12.665   2.144
25746SOL    HW179135   1.780  12.601   2.206
25746SOL    HW279136   1.670  12.620   2.104
25747SOL     OW79137   2.571   8.749  10.126
25747SOL    HW179138   2.619   8.748  10.209
25747SOL    HW279139   2.634   8.782  10.062
25748SOL     OW79140   7.842   3.253   3.646
25748SOL    HW179141   7.763   3.308   3.645
25748SOL    HW279142   7.910   3.311   3.681
25749SOL     OW79143  10.886   2.137   2.305
25749SOL    HW179144  10.840   2.125   2.388
25749SOL    HW279145  10.967   2.182   2.328
25750SOL     OW79146   5.725   7.607  13.838
25750SOL    HW179147   5.646   7.658  13.822
25750SOL    HW279148   5.746   7.624  13.930
25751SOL     OW79149   7.826  12.275  10.304
25751SOL    HW179150   7.755  12.328  10.269
25751SOL    HW279151   7.902  12.334  10.306
25752SOL     OW79152   0.054   6.725   5.758
25752SOL    HW179153   0.024   6.757   5.673
25752SOL    HW279154   0.083   6.635   5.741
25753SOL     OW79155  13.182  11.730   0.426
25753SOL    HW179156  13.243  11.797   0.458
25753SOL    HW279157  13.202  11.653   0.479
25754SOL     OW79158  13.171   5.248  13.460
25754SOL    HW179159  13.254   5.203  13.478
25754SOL    HW279160  13.170   5.259  13.365
25755SOL     OW79161  14.199   2.079   7.322
25755SOL    HW179162  14.294   2.088   7.316
25755SOL    HW279163  14.181   1.991   7.291
25756SOL     OW79164  12.669   3.539  10.545
25756SOL    HW179165  12.612   3.464  10.530
25756SOL    HW279166  12.750   3.502  10.579
25757SOL     OW79167  11.880  10.744   7.599
25757SOL    HW179168  11.789  10.745   7.627
25757SOL    HW279169  11.890  10.661   7.552
25758SOL     OW79170   9.334  10.107  12.454
25758SOL    HW179171   9.374  10.193  12.444
25758SOL    HW279172   9.328  10.073  12.365
25759SOL     OW79173  12.903   5.443  14.309
25759SOL    HW179174  12.997   5.423  14.316
25759SOL    HW279175  12.896   5.534  14.334
25760SOL     OW79176   4.280   6.709   6.136
25760SOL    HW179177   4.260   6.615   6.136
25760SOL    HW279178   4.326   6.724   6.054
25761SOL     OW79179  11.270   6.360   5.219
25761SOL    HW179180  11.274   6.384   5.127
25761SOL    HW279181  11.212   6.283   5.222
25762SOL     OW79182  10.559   5.584   1.338
25762SOL    HW179183  10.565   5.664   1.389
25762SOL    HW279184  10.500   5.607   1.265
25763SOL     OW79185  12.171   8.007   6.349
25763SOL    HW179186  12.191   8.090   6.306
25763SOL    HW279187  12.240   7.994   6.413
25764SOL     OW79188  10.283   5.174   4.533
25764SOL    HW179189  10.223   5.202   4.602
25764SOL    HW279190  10.247   5.091   4.502
25765SOL     OW79191   6.169   0.735   7.108
25765SOL    HW179192   6.199   0.771   7.192
25765SOL    HW279193   6.091   0.684   7.131
25766SOL     OW79194   0.384   0.945  13.467
25766SOL    HW179195   0.415   0.873  13.412
25766SOL    HW279196   0.381   0.908  13.555
25767SOL     OW79197   9.362   1.886   2.118
25767SOL    HW179198   9.358   1.939   2.038
25767SOL    HW279199   9.330   1.800   2.092
25768SOL     OW79200  12.121  13.305  12.915
25768SOL    HW179201  12.191  13.341  12.861
25768SOL    HW279202  12.138  13.341  13.003
25769SOL     OW79203  11.834   5.029  12.808
25769SOL    HW179204  11.786   4.947  12.820
25769SOL    HW279205  11.791   5.092  12.866
25770SOL     OW79206   7.102  12.746   1.232
25770SOL    HW179207   7.120  12.691   1.307
25770SOL    HW279208   7.183  12.797   1.220
25771SOL     OW79209  13.737  10.849   8.626
25771SOL    HW179210  13.780  10.773   8.666
25771SOL    HW279211  13.788  10.867   8.547
25772SOL     OW79212   4.511  11.259  11.142
25772SOL    HW179213   4.457  11.182  11.155
25772SOL    HW279214   4.497  11.284  11.051
25773SOL     OW79215  12.192  10.662  11.639
25773SOL    HW179216  12.208  10.741  11.587
25773SOL    HW279217  12.149  10.602  11.579
25774SOL     OW79218  14.426   4.734   8.741
25774SOL    HW179219  14.446   4.643   8.718
25774SOL    HW279220  14.436   4.737   8.836
25775SOL     OW79221   1.519   5.473   2.369
25775SOL    HW179222   1.545   5.419   2.444
25775SOL    HW279223   1.601   5.511   2.338
25776SOL     OW79224  10.231   2.978  14.477
25776SOL    HW179225  10.252   3.069  14.457
25776SOL    HW279226  10.153   2.959  14.425
25777SOL     OW79227   6.429   9.232   7.346
25777SOL    HW179228   6.361   9.298   7.335
25777SOL    HW279229   6.510   9.277   7.323
25778SOL     OW79230   0.137   3.470   4.430
25778SOL    HW179231   0.060   3.441   4.480
25778SOL    HW279232   0.187   3.390   4.414
25779SOL     OW79233   6.472   2.718   6.494
25779SOL    HW179234   6.512   2.728   6.580
25779SOL    HW279235   6.434   2.630   6.495
25780SOL     OW79236   1.302  14.079  11.611
25780SOL    HW179237   1.363  14.005  11.611
25780SOL    HW279238   1.268  14.083  11.522
25781SOL     OW79239  11.597   0.438  12.791
25781SOL    HW179240  11.689   0.464  12.797
25781SOL    HW279241  11.593   0.353  12.835
25782SOL     OW79242   7.924   8.527  14.026
25782SOL    HW179243   7.973   8.607  14.007
25782SOL    HW279244   7.838   8.543  13.987
25783SOL     OW79245   5.740  12.362   1.399
25783SOL    HW179246   5.820  12.357   1.348
25783SOL    HW279247   5.769  12.386   1.487
25784SOL     OW79248   6.446   9.822  12.750
25784SOL    HW179249   6.426   9.911  12.780
25784SOL    HW279250   6.442   9.827  12.655
25785SOL     OW79251   0.534   9.959  12.049
25785SOL    HW179252   0.551   9.986  11.959
25785SOL    HW279253   0.444   9.928  12.049
25786SOL     OW79254  11.604  13.375   0.929
25786SOL    HW179255  11.512  13.392   0.949
25786SOL    HW279256  11.634  13.456   0.887
25787SOL     OW79257  13.486  14.725   2.489
25787SOL    HW179258  13.494  14.691   2.400
25787SOL    HW279259  13.550  14.674   2.540
25788SOL     OW79260  10.516   2.481  10.098
25788SOL    HW179261  10.484   2.554  10.152
25788SOL    HW279262  10.555   2.524  10.021
25789SOL     OW79263  10.470  12.108   0.247
25789SOL    HW179264  10.466  12.109   0.152
25789SOL    HW279265  10.548  12.160   0.269
25790SOL     OW79266  13.693  10.808  14.170
25790SOL    HW179267  13.674  10.901  14.185
25790SOL    HW279268  13.652  10.763  14.245
25791SOL     OW79269   9.123   0.581  12.680
25791SOL    HW179270   9.166   0.625  12.607
25791SOL    HW279271   9.146   0.489  12.670
25792SOL     OW79272  11.841  13.909   2.776
25792SOL    HW179273  11.901  13.973   2.814
25792SOL    HW279274  11.763  13.912   2.833
25793SOL     OW79275  13.330   4.261  10.550
25793SOL    HW179276  13.329   4.209  10.470
25793SOL    HW279277  13.266   4.219  10.607
25794SOL     OW79278  11.975  10.349   6.794
25794SOL    HW179279  11.929  10.431   6.809
25794SOL    HW279280  12.005  10.354   6.703
25795SOL     OW79281   4.525   1.175  12.399
25795SOL    HW179282   4.594   1.111  12.414
25795SOL    HW279283   4.478   1.180  12.483
25796SOL     OW79284   4.957   1.499  10.701
25796SOL    HW179285   4.962   1.424  10.761
25796SOL    HW279286   4.886   1.552  10.736
25797SOL     OW79287   0.526   7.334   2.545
25797SOL    HW179288   0.441   7.356   2.507
25797SOL    HW279289   0.548   7.410   2.598
25798SOL     OW79290  11.440   0.404  10.821
25798SOL    HW179291  11.462   0.317  10.854
25798SOL    HW279292  11.350   0.395  10.788
25799SOL     OW79293  13.454   9.748   4.770
25799SOL    HW179294  13.544   9.727   4.793
25799SOL    HW279295  13.455   9.760   4.675
25800SOL     OW79296  12.575   2.887   2.499
25800SOL    HW179297  12.634   2.952   2.536
25800SOL    HW279298  12.494   2.896   2.549
25801SOL     OW79299   4.252   7.923   5.768
25801SOL    HW179300   4.316   7.869   5.814
25801SOL    HW279301   4.284   7.927   5.678
25802SOL     OW79302  10.200   5.917  13.141
25802SOL    HW179303  10.260   5.974  13.189
25802SOL    HW279304  10.122   5.970  13.128
25803SOL     OW79305  11.863   0.292   1.395
25803SOL    HW179306  11.856   0.199   1.375
25803SOL    HW279307  11.796   0.333   1.340
25804SOL     OW79308   3.091   2.828  11.486
25804SOL    HW179309   3.146   2.751  11.498
25804SOL    HW279310   3.002   2.796  11.495
25805SOL     OW79311  12.392   3.107  14.658
25805SOL    HW179312  12.458   3.162  14.700
25805SOL    HW279313  12.319   3.105  14.720
25806SOL     OW79314   7.573   9.549   2.848
25806SOL    HW179315   7.509   9.541   2.918
25806SOL    HW279316   7.637   9.611   2.881
25807SOL     OW79317  14.124   4.262   2.438
25807SOL    HW179318  14.153   4.328   2.502
25807SOL    HW279319  14.205   4.235   2.394
25808SOL     OW79320   4.003   0.128   0.933
25808SOL    HW179321   3.999   0.034   0.914
25808SOL    HW279322   3.912   0.153   0.948
25809SOL     OW79323   9.069  13.307   9.604
25809SOL    HW179324   9.119  13.388   9.593
25809SOL    HW279325   9.096  13.273   9.689
25810SOL     OW79326   4.652   9.845   4.709
25810SOL    HW179327   4.589   9.866   4.640
25810SOL    HW279328   4.652   9.749   4.713
25811SOL     OW79329   0.981   4.852  12.740
25811SOL    HW179330   1.039   4.776  12.735
25811SOL    HW279331   0.901   4.825  12.695
25812SOL     OW79332  12.150   0.120   7.911
25812SOL    HW179333  12.188   0.094   7.827
25812SOL    HW279334  12.056   0.109   7.899
25813SOL     OW79335   9.137   9.039   4.717
25813SOL    HW179336   9.089   8.973   4.667
25813SOL    HW279337   9.218   9.051   4.669
25814SOL     OW79338   0.916  14.639   1.653
25814SOL    HW179339   0.880  14.667   1.569
25814SOL    HW279340   0.931  14.545   1.643
25815SOL     OW79341   8.242   9.016   6.962
25815SOL    HW179342   8.192   9.039   6.884
25815SOL    HW279343   8.209   8.930   6.987
25816SOL     OW79344   6.861  11.877   5.304
25816SOL    HW179345   6.845  11.964   5.268
25816SOL    HW279346   6.909  11.831   5.235
25817SOL     OW79347  14.480  14.584   2.937
25817SOL    HW179348  14.508  14.530   2.863
25817SOL    HW279349  14.459  14.669   2.898
25818SOL     OW79350   2.868   7.477   7.821
25818SOL    HW179351   2.851   7.500   7.729
25818SOL    HW279352   2.785   7.440   7.852
25819SOL     OW79353   2.505   7.272  12.474
25819SOL    HW179354   2.456   7.350  12.502
25819SOL    HW279355   2.456   7.239  12.399
25820SOL     OW79356   1.732   0.306   7.408
25820SOL    HW179357   1.638   0.298   7.420
25820SOL    HW279358   1.767   0.221   7.437
25821SOL     OW79359  10.405  13.984   8.142
25821SOL    HW179360  10.361  13.968   8.059
25821SOL    HW279361  10.384  14.075   8.163
25822SOL     OW79362  13.947   6.497  11.465
25822SOL    HW179363  13.877   6.509  11.529
25822SOL    HW279364  13.967   6.586  11.435
25823SOL     OW79365   2.383   8.862  12.592
25823SOL    HW179366   2.477   8.868  12.574
25823SOL    HW279367   2.342   8.861  12.506
25824SOL     OW79368  13.461   9.995   1.278
25824SOL    HW179369  13.416   9.989   1.363
25824SOL    HW279370  13.554   9.986   1.299
25825SOL     OW79371   6.695   6.681  11.611
25825SOL    HW179372   6.663   6.663  11.699
25825SOL    HW279373   6.788   6.659  11.614
25826SOL     OW79374  14.460   5.734   5.802
25826SOL    HW179375  14.508   5.814   5.782
25826SOL    HW279376  14.448   5.735   5.897
25827SOL     OW79377   5.655  10.301  12.043
25827SOL    HW179378   5.731  10.320  12.097
25827SOL    HW279379   5.661  10.208  12.023
25828SOL     OW79380   5.149   4.867   2.956
25828SOL    HW179381   5.209   4.821   3.014
25828SOL    HW279382   5.128   4.948   3.003
25829SOL     OW79383   7.610   3.341   0.828
25829SOL    HW179384   7.665   3.271   0.861
25829SOL    HW279385   7.643   3.420   0.871
25830SOL     OW79386   0.344   1.290   1.917
25830SOL    HW179387   0.406   1.238   1.968
25830SOL    HW279388   0.258   1.271   1.956
25831SOL     OW79389  12.619   4.561   3.293
25831SOL    HW179390  12.595   4.643   3.250
25831SOL    HW279391  12.675   4.587   3.366
25832SOL     OW79392  12.370   3.734   7.662
25832SOL    HW179393  12.367   3.708   7.754
25832SOL    HW279394  12.306   3.678   7.619
25833SOL     OW79395   2.257   5.928   6.140
25833SOL    HW179396   2.315   5.911   6.065
25833SOL    HW279397   2.317   5.938   6.214
25834SOL     OW79398   8.696   3.982   9.192
25834SOL    HW179399   8.740   4.032   9.261
25834SOL    HW279400   8.616   4.032   9.174
25835SOL     OW79401   5.012   9.923  12.607
25835SOL    HW179402   4.923   9.950  12.585
25835SOL    HW279403   5.004   9.832  12.632
25836SOL     OW79404   5.570   2.031   0.521
25836SOL    HW179405   5.572   2.024   0.617
25836SOL    HW279406   5.566   1.941   0.490
25837SOL     OW79407   4.142  11.531  13.107
25837SOL    HW179408   4.065  11.515  13.053
25837SOL    HW279409   4.214  11.489  13.059
25838SOL     OW79410   6.763  10.394   3.739
25838SOL    HW179411   6.805  10.308   3.736
25838SOL    HW279412   6.672  10.376   3.714
25839SOL     OW79413   4.046  10.712  13.837
25839SOL    HW179414   4.066  10.773  13.907
25839SOL    HW279415   4.131  10.678  13.809
25840SOL     OW79416   6.095   3.873   3.794
25840SOL    HW179417   6.006   3.874   3.761
25840SOL    HW279418   6.148   3.906   3.721
25841SOL     OW79419   4.492   7.659   1.740
25841SOL    HW179420   4.419   7.671   1.801
25841SOL    HW279421   4.569   7.689   1.789
25842SOL     OW79422   3.366   0.707   4.484
25842SOL    HW179423   3.418   0.765   4.540
25842SOL    HW279424   3.312   0.657   4.545
25843SOL     OW79425   9.194   1.554   2.863
25843SOL    HW179426   9.109   1.574   2.824
25843SOL    HW279427   9.219   1.470   2.826
25844SOL     OW79428   2.094   7.304  12.729
25844SOL    HW179429   2.022   7.256  12.771
25844SOL    HW279430   2.103   7.384  12.781
25845SOL     OW79431   2.320  10.933  12.693
25845SOL    HW179432   2.368  10.985  12.629
25845SOL    HW279433   2.228  10.945  12.671
25846SOL     OW79434  13.741  12.155   1.811
25846SOL    HW179435  13.773  12.091   1.874
25846SOL    HW279436  13.804  12.228   1.817
25847SOL     OW79437   2.504   1.732  13.198
25847SOL    HW179438   2.467   1.645  13.217
25847SOL    HW279439   2.594   1.714  13.172
25848SOL     OW79440   0.296  14.601  14.411
25848SOL    HW179441   0.273  14.641  14.495
25848SOL    HW279442   0.359  14.532  14.434
25849SOL     OW79443   3.459   6.908   4.218
25849SOL    HW179444   3.381   6.881   4.170
25849SOL    HW279445   3.483   6.832   4.270
25850SOL     OW79446  13.447  11.596   7.165
25850SOL    HW179447  13.449  11.632   7.254
25850SOL    HW279448  13.459  11.672   7.108
25851SOL     OW79449   9.253   0.509  13.520
25851SOL    HW179450   9.200   0.589  13.523
25851SOL    HW279451   9.188   0.438  13.515
25852SOL     OW79452  13.994   7.162   9.992
25852SOL    HW179453  13.924   7.196  10.048
25852SOL    HW279454  13.989   7.067  10.003
25853SOL     OW79455  12.874   9.600  10.534
25853SOL    HW179456  12.917   9.515  10.524
25853SOL    HW279457  12.785   9.586  10.503
25854SOL     OW79458  10.841  10.618   8.675
25854SOL    HW179459  10.853  10.647   8.585
25854SOL    HW279460  10.920  10.647   8.721
25855SOL     OW79461   3.840   9.150   0.712
25855SOL    HW179462   3.852   9.228   0.766
25855SOL    HW279463   3.896   9.165   0.636
25856SOL     OW79464  10.656   5.209   8.059
25856SOL    HW179465  10.622   5.269   7.994
25856SOL    HW279466  10.580   5.162   8.092
25857SOL     OW79467  14.626   8.396   3.813
25857SOL    HW179468  14.689   8.451   3.860
25857SOL    HW279469  14.541   8.430   3.839
25858SOL     OW79470  13.094  12.762  11.388
25858SOL    HW179471  13.021  12.801  11.435
25858SOL    HW279472  13.158  12.833  11.379
25859SOL     OW79473   1.708   4.220  13.721
25859SOL    HW179474   1.633   4.164  13.700
25859SOL    HW279475   1.702   4.234  13.815
25860SOL     OW79476  13.840   7.354  12.451
25860SOL    HW179477  13.790   7.436  12.455
25860SOL    HW279478  13.798   7.297  12.514
25861SOL     OW79479  13.599   9.941  11.516
25861SOL    HW179480  13.691   9.962  11.531
25861SOL    HW279481  13.600   9.855  11.474
25862SOL     OW79482   9.020  14.552  10.427
25862SOL    HW179483   9.083  14.490  10.464
25862SOL    HW279484   8.971  14.501  10.362
25863SOL     OW79485  14.740   4.414  10.089
25863SOL    HW179486  14.733   4.376  10.176
25863SOL    HW279487  14.813   4.475  10.096
25864SOL     OW79488   6.197  13.513  13.590
25864SOL    HW179489   6.172  13.423  13.572
25864SOL    HW279490   6.293  13.513  13.590
25865SOL     OW79491   4.560   4.605   6.385
25865SOL    HW179492   4.513   4.603   6.468
25865SOL    HW279493   4.619   4.680   6.393
25866SOL     OW79494   1.228  13.567  14.255
25866SOL    HW179495   1.253  13.630  14.188
25866SOL    HW279496   1.203  13.621  14.331
25867SOL     OW79497   3.311   4.142   9.757
25867SOL    HW179498   3.362   4.204   9.704
25867SOL    HW279499   3.259   4.198   9.814
25868SOL     OW79500   4.861  13.446   3.951
25868SOL    HW179501   4.938  13.462   3.896
25868SOL    HW279502   4.797  13.407   3.891
25869SOL     OW79503   6.982  11.869   7.180
25869SOL    HW179504   7.032  11.891   7.101
25869SOL    HW279505   6.924  11.798   7.152
25870SOL     OW79506   5.721   4.659   2.571
25870SOL    HW179507   5.636   4.703   2.573
25870SOL    HW279508   5.712   4.588   2.634
25871SOL     OW79509   4.233   1.523   6.476
25871SOL    HW179510   4.288   1.478   6.540
25871SOL    HW279511   4.294   1.578   6.427
25872SOL     OW79512  12.725  12.556  11.995
25872SOL    HW179513  12.795  12.619  11.976
25872SOL    HW279514  12.647  12.593  11.953
25873SOL     OW79515   5.755   1.002   1.519
25873SOL    HW179516   5.711   1.030   1.439
25873SOL    HW279517   5.834   0.958   1.490
25874SOL     OW79518   6.777   9.944   0.717
25874SOL    HW179519   6.708   9.897   0.669
25874SOL    HW279520   6.793  10.022   0.664
25875SOL     OW79521   4.120   4.886   6.459
25875SOL    HW179522   4.209   4.850   6.460
25875SOL    HW279523   4.094   4.886   6.551
25876SOL     OW79524   9.064  10.838  10.981
25876SOL    HW179525   9.100  10.792  10.905
25876SOL    HW279526   9.117  10.807  11.054
25877SOL     OW79527   6.710   3.061   2.825
25877SOL    HW179528   6.666   2.987   2.868
25877SOL    HW279529   6.735   3.119   2.897
25878SOL     OW79530   5.107   1.387   3.902
25878SOL    HW179531   5.187   1.421   3.862
25878SOL    HW279532   5.128   1.380   3.995
25879SOL     OW79533  13.679   5.230   1.769
25879SOL    HW179534  13.703   5.317   1.737
25879SOL    HW279535  13.702   5.231   1.861
25880SOL     OW79536   6.967  14.299   2.594
25880SOL    HW179537   7.032  14.246   2.547
25880SOL    HW279538   6.962  14.258   2.681
25881SOL     OW79539   7.982  11.651  10.280
25881SOL    HW179540   7.912  11.683  10.224
25881SOL    HW279541   7.967  11.695  10.364
25882SOL     OW79542   3.914  14.394   8.791
25882SOL    HW179543   3.903  14.482   8.828
25882SOL    HW279544   3.941  14.409   8.701
25883SOL     OW79545  13.550   7.253  10.532
25883SOL    HW179546  13.606   7.176  10.520
25883SOL    HW279547  13.512   7.269  10.445
25884SOL     OW79548   4.369   2.762  13.743
25884SOL    HW179549   4.280   2.737  13.716
25884SOL    HW279550   4.360   2.850  13.779
25885SOL     OW79551   3.076   0.154   9.046
25885SOL    HW179552   3.087   0.220   8.979
25885SOL    HW279553   3.004   0.099   9.016
25886SOL     OW79554  13.081   1.215   4.974
25886SOL    HW179555  13.065   1.193   4.882
25886SOL    HW279556  13.174   1.195   4.986
25887SOL     OW79557  12.291   6.446   5.344
25887SOL    HW179558  12.348   6.495   5.403
25887SOL    HW279559  12.205   6.449   5.386
25888SOL     OW79560   3.521   8.533   2.310
25888SOL    HW179561   3.531   8.440   2.330
25888SOL    HW279562   3.476   8.534   2.225
25889SOL     OW79563  13.567   3.308  14.819
25889SOL    HW179564  13.489   3.285  14.869
25889SOL    HW279565  13.639   3.300   0.007
25890SOL     OW79566   0.397   2.792  12.706
25890SOL    HW179567   0.448   2.866  12.738
25890SOL    HW279568   0.462   2.732  12.669
25891SOL     OW79569   6.376  13.653  13.969
25891SOL    HW179570   6.393  13.701  13.888
25891SOL    HW279571   6.381  13.719  14.038
25892SOL     OW79572   7.287   3.874  10.456
25892SOL    HW179573   7.346   3.948  10.448
25892SOL    HW279574   7.209   3.899  10.406
25893SOL     OW79575   3.645   0.374  11.170
25893SOL    HW179576   3.729   0.420  11.174
25893SOL    HW279577   3.622   0.358  11.261
25894SOL     OW79578   6.294   8.500   2.346
25894SOL    HW179579   6.256   8.545   2.422
25894SOL    HW279580   6.228   8.436   2.320
25895SOL     OW79581   6.019   3.216   0.689
25895SOL    HW179582   6.078   3.193   0.761
25895SOL    HW279583   5.938   3.168   0.708
25896SOL     OW79584   2.042   9.791   5.727
25896SOL    HW179585   2.019   9.875   5.769
25896SOL    HW279586   2.129   9.771   5.760
25897SOL     OW79587   2.107  12.004   9.364
25897SOL    HW179588   2.086  11.917   9.332
25897SOL    HW279589   2.034  12.059   9.335
25898SOL     OW79590   3.360   0.788  13.168
25898SOL    HW179591   3.432   0.848  13.185
25898SOL    HW279592   3.282   0.837  13.194
25899SOL     OW79593   0.777   3.740   8.982
25899SOL    HW179594   0.817   3.824   9.004
25899SOL    HW279595   0.684   3.759   8.970
25900SOL     OW79596   3.815  11.018   4.460
25900SOL    HW179597   3.885  11.070   4.420
25900SOL    HW279598   3.856  10.978   4.537
25901SOL     OW79599  14.420   9.104   7.936
25901SOL    HW179600  14.441   9.188   7.976
25901SOL    HW279601  14.459   9.039   7.994
25902SOL     OW79602  14.726  13.070   1.146
25902SOL    HW179603  14.681  13.101   1.067
25902SOL    HW279604  14.819  13.075   1.124
25903SOL     OW79605   2.620  12.779   0.580
25903SOL    HW179606   2.577  12.788   0.495
25903SOL    HW279607   2.640  12.868   0.607
25904SOL     OW79608  14.269  13.147   7.075
25904SOL    HW179609  14.205  13.172   7.141
25904SOL    HW279610  14.348  13.125   7.125
25905SOL     OW79611  13.807   6.471  13.199
25905SOL    HW179612  13.746   6.544  13.189
25905SOL    HW279613  13.774   6.404  13.139
25906SOL     OW79614   9.515   2.701   2.965
25906SOL    HW179615   9.576   2.774   2.976
25906SOL    HW279616   9.428   2.739   2.978
25907SOL     OW79617   1.689   0.400  14.249
25907SOL    HW179618   1.620   0.389  14.184
25907SOL    HW279619   1.710   0.311  14.277
25908SOL     OW79620   8.513   8.461   5.973
25908SOL    HW179621   8.501   8.471   6.067
25908SOL    HW279622   8.596   8.413   5.965
25909SOL     OW79623   5.046  13.011   9.246
25909SOL    HW179624   4.998  13.084   9.206
25909SOL    HW279625   5.006  13.001   9.332
25910SOL     OW79626  12.230   0.377  10.013
25910SOL    HW179627  12.267   0.311  10.072
25910SOL    HW279628  12.260   0.352   9.926
25911SOL     OW79629  12.808   6.458   5.893
25911SOL    HW179630  12.718   6.490   5.901
25911SOL    HW279631  12.862   6.536   5.902
25912SOL     OW79632  10.600  13.369   1.795
25912SOL    HW179633  10.544  13.437   1.833
25912SOL    HW279634  10.598  13.298   1.860
25913SOL     OW79635  11.156   7.224   5.225
25913SOL    HW179636  11.124   7.159   5.287
25913SOL    HW279637  11.102   7.212   5.147
25914SOL     OW79638   0.580   5.004  13.487
25914SOL    HW179639   0.581   5.001  13.583
25914SOL    HW279640   0.491   5.033  13.465
25915SOL     OW79641  13.037  13.279   1.741
25915SOL    HW179642  13.047  13.359   1.792
25915SOL    HW279643  12.942  13.265   1.737
25916SOL     OW79644   1.112  12.862   9.258
25916SOL    HW179645   1.126  12.912   9.338
25916SOL    HW279646   1.145  12.774   9.278
25917SOL     OW79647   5.077   4.713  10.767
25917SOL    HW179648   5.117   4.796  10.739
25917SOL    HW279649   5.072   4.661  10.687
25918SOL     OW79650  14.094  12.107  13.764
25918SOL    HW179651  14.039  12.175  13.726
25918SOL    HW279652  14.051  12.025  13.740
25919SOL     OW79653   4.820   2.887  14.234
25919SOL    HW179654   4.905   2.877  14.277
25919SOL    HW279655   4.758   2.849  14.296
25920SOL     OW79656   9.196  12.424   8.765
25920SOL    HW179657   9.114  12.438   8.812
25920SOL    HW279658   9.255  12.490   8.802
25921SOL     OW79659   5.412   0.106   1.068
25921SOL    HW179660   5.360   0.157   1.005
25921SOL    HW279661   5.368   0.021   1.072
25922SOL     OW79662   6.048  10.671  14.189
25922SOL    HW179663   6.067  10.765  14.183
25922SOL    HW279664   6.001  10.651  14.108
25923SOL     OW79665  14.184  13.416  10.123
25923SOL    HW179666  14.259  13.374  10.081
25923SOL    HW279667  14.215  13.504  10.143
25924SOL     OW79668   1.524   2.127   6.108
25924SOL    HW179669   1.596   2.172   6.064
25924SOL    HW279670   1.553   2.117   6.199
25925SOL     OW79671   7.357   6.172   0.578
25925SOL    HW179672   7.340   6.246   0.520
25925SOL    HW279673   7.271   6.129   0.587
25926SOL     OW79674  11.543  12.980   4.390
25926SOL    HW179675  11.598  12.913   4.349
25926SOL    HW279676  11.468  12.931   4.424
25927SOL     OW79677   5.472   5.214  10.742
25927SOL    HW179678   5.416   5.277  10.787
25927SOL    HW279679   5.532   5.268  10.690
25928SOL     OW79680   1.828   2.859   0.406
25928SOL    HW179681   1.839   2.854   0.501
25928SOL    HW279682   1.860   2.946   0.382
25929SOL     OW79683  13.919  12.331   4.920
25929SOL    HW179684  13.930  12.249   4.967
25929SOL    HW279685  13.951  12.313   4.831
25930SOL     OW79686   8.226  10.959   1.206
25930SOL    HW179687   8.310  10.941   1.248
25930SOL    HW279688   8.225  11.054   1.194
25931SOL     OW79689   6.377   6.773  11.654
25931SOL    HW179690   6.320   6.710  11.609
25931SOL    HW279691   6.319   6.844  11.680
25932SOL     OW79692   7.872  12.431   4.870
25932SOL    HW179693   7.781  12.445   4.842
25932SOL    HW279694   7.878  12.477   4.953
25933SOL     OW79695   0.134  11.424  10.731
25933SOL    HW179696   0.120  11.332  10.706
25933SOL    HW279697   0.142  11.422  10.826
25934SOL     OW79698  10.937  13.369   2.693
25934SOL    HW179699  11.003  13.300   2.698
25934SOL    HW279700  10.981  13.441   2.646
25935SOL     OW79701   6.497   1.203   6.399
25935SOL    HW179702   6.523   1.287   6.437
25935SOL    HW279703   6.542   1.138   6.452
25936SOL     OW79704  14.408   0.807  12.366
25936SOL    HW179705  14.462   0.728  12.368
25936SOL    HW279706  14.367   0.809  12.453
25937SOL     OW79707   9.417   0.269   5.571
25937SOL    HW179708   9.345   0.329   5.590
25937SOL    HW279709   9.459   0.305   5.493
25938SOL     OW79710   9.973   8.950   1.241
25938SOL    HW179711   9.970   8.878   1.178
25938SOL    HW279712   9.884   8.954   1.276
25939SOL     OW79713   4.003  13.654   9.215
25939SOL    HW179714   3.983  13.747   9.219
25939SOL    HW279715   4.085  13.644   9.262
25940SOL     OW79716   3.918   3.177   5.671
25940SOL    HW179717   3.878   3.129   5.744
25940SOL    HW279718   4.012   3.175   5.690
25941SOL     OW79719  12.591  11.821   7.733
25941SOL    HW179720  12.560  11.770   7.658
25941SOL    HW279721  12.518  11.879   7.754
25942SOL     OW79722   2.201  11.977   8.361
25942SOL    HW179723   2.215  11.883   8.369
25942SOL    HW279724   2.255  12.016   8.429
25943SOL     OW79725  10.817   4.915   0.861
25943SOL    HW179726  10.904   4.899   0.898
25943SOL    HW279727  10.783   4.828   0.840
25944SOL     OW79728   4.999  12.693  11.273
25944SOL    HW179729   4.999  12.604  11.308
25944SOL    HW279730   4.974  12.748  11.347
25945SOL     OW79731  13.833   9.987  11.706
25945SOL    HW179732  13.829   9.908  11.653
25945SOL    HW279733  13.916   9.981  11.754
25946SOL     OW79734  10.438  14.487  13.981
25946SOL    HW179735  10.478  14.555  14.035
25946SOL    HW279736  10.364  14.531  13.938
25947SOL     OW79737   4.291   2.280  13.377
25947SOL    HW179738   4.198   2.273  13.398
25947SOL    HW279739   4.297   2.357  13.320
25948SOL     OW79740  11.553  12.283  10.921
25948SOL    HW179741  11.541  12.195  10.887
25948SOL    HW279742  11.643  12.283  10.955
25949SOL     OW79743   9.553   5.032  12.203
25949SOL    HW179744   9.534   4.960  12.264
25949SOL    HW279745   9.634   5.006  12.160
25950SOL     OW79746  12.427   4.231   5.106
25950SOL    HW179747  12.485   4.177   5.051
25950SOL    HW279748  12.449   4.207   5.196
25951SOL     OW79749  12.510   3.065   8.896
25951SOL    HW179750  12.442   3.016   8.943
25951SOL    HW279751  12.508   3.152   8.936
25952SOL     OW79752   2.085  13.770  14.065
25952SOL    HW179753   2.114  13.839  14.006
25952SOL    HW279754   2.004  13.804  14.103
25953SOL     OW79755   1.465   3.340   3.472
25953SOL    HW179756   1.463   3.404   3.544
25953SOL    HW279757   1.372   3.323   3.454
25954SOL     OW79758   2.600   4.638   6.431
25954SOL    HW179759   2.584   4.716   6.377
25954SOL    HW279760   2.572   4.664   6.519
25955SOL     OW79761   5.884   5.572   3.230
25955SOL    HW179762   5.930   5.489   3.244
25955SOL    HW279763   5.795   5.546   3.206
25956SOL     OW79764  14.721   0.905  13.288
25956SOL    HW179765  14.660   0.977  13.275
25956SOL    HW279766  14.777   0.934  13.360
25957SOL     OW79767  13.440   7.488   4.951
25957SOL    HW179768  13.479   7.424   5.011
25957SOL    HW279769  13.499   7.489   4.875
25958SOL     OW79770   8.597  12.287   9.600
25958SOL    HW179771   8.514  12.243   9.615
25958SOL    HW279772   8.662  12.231   9.643
25959SOL     OW79773  11.189   0.813   1.834
25959SOL    HW179774  11.147   0.731   1.808
25959SOL    HW279775  11.275   0.786   1.865
25960SOL     OW79776  12.394   5.035   3.392
25960SOL    HW179777  12.324   4.973   3.409
25960SOL    HW279778  12.400   5.039   3.296
25961SOL     OW79779   9.075   4.594   1.632
25961SOL    HW179780   9.074   4.678   1.677
25961SOL    HW279781   9.165   4.584   1.601
25962SOL     OW79782   4.111   2.497  14.263
25962SOL    HW179783   4.036   2.522  14.208
25962SOL    HW279784   4.072   2.450  14.337
25963SOL     OW79785   4.229  10.589  13.285
25963SOL    HW179786   4.139  10.597  13.254
25963SOL    HW279787   4.238  10.656  13.352
25964SOL     OW79788   1.959  10.320   9.485
25964SOL    HW179789   1.952  10.411   9.457
25964SOL    HW279790   2.043  10.291   9.448
25965SOL     OW79791  12.374   5.902   8.117
25965SOL    HW179792  12.333   5.985   8.094
25965SOL    HW279793  12.407   5.867   8.034
25966SOL     OW79794   9.357  14.555   7.205
25966SOL    HW179795   9.285  14.506   7.246
25966SOL    HW279796   9.320  14.642   7.190
25967SOL     OW79797   8.217   1.456   0.756
25967SOL    HW179798   8.235   1.504   0.837
25967SOL    HW279799   8.185   1.371   0.785
25968SOL     OW79800  14.792  12.264   8.951
25968SOL    HW179801  14.867  12.302   8.996
25968SOL    HW279802  14.722  12.264   9.016
25969SOL     OW79803  14.218   9.629   6.317
25969SOL    HW179804  14.155   9.585   6.259
25969SOL    HW279805  14.203   9.590   6.403
25970SOL     OW79806   6.673   6.934   9.849
25970SOL    HW179807   6.647   6.948   9.758
25970SOL    HW279808   6.590   6.918   9.895
25971SOL     OW79809   9.981  11.477   2.058
25971SOL    HW179810   9.891  11.483   2.025
25971SOL    HW279811   9.996  11.561   2.101
25972SOL     OW79812   3.537  11.094   4.491
25972SOL    HW179813   3.628  11.118   4.505
25972SOL    HW279814   3.518  11.124   4.402
25973SOL     OW79815  11.603   5.150   4.433
25973SOL    HW179816  11.593   5.057   4.452
25973SOL    HW279817  11.522   5.190   4.465
25974SOL     OW79818   0.759   0.232  12.331
25974SOL    HW179819   0.745   0.320  12.365
25974SOL    HW279820   0.816   0.190  12.395
25975SOL     OW79821   9.206  12.506   0.312
25975SOL    HW179822   9.169  12.438   0.256
25975SOL    HW279823   9.244  12.569   0.251
25976SOL     OW79824   1.716   5.145   9.868
25976SOL    HW179825   1.783   5.133   9.801
25976SOL    HW279826   1.765   5.172   9.946
25977SOL     OW79827   1.328   3.436   9.736
25977SOL    HW179828   1.376   3.363   9.698
25977SOL    HW279829   1.237   3.423   9.707
25978SOL     OW79830  14.214  10.699  12.037
25978SOL    HW179831  14.192  10.769  12.097
25978SOL    HW279832  14.186  10.731  11.951
25979SOL     OW79833   8.732   9.005   3.467
25979SOL    HW179834   8.762   8.920   3.500
25979SOL    HW279835   8.697   9.050   3.543
25980SOL     OW79836   0.030  13.884  10.160
25980SOL    HW179837  14.850  13.824  10.109
25980SOL    HW279838  14.850  13.961  10.172
25981SOL     OW79839   6.398   7.909   4.091
25981SOL    HW179840   6.462   7.933   4.158
25981SOL    HW279841   6.394   7.814   4.095
25982SOL     OW79842  10.659  13.817   5.239
25982SOL    HW179843  10.648  13.728   5.204
25982SOL    HW279844  10.583  13.830   5.296
25983SOL     OW79845   2.677  13.792   2.405
25983SOL    HW179846   2.757  13.799   2.352
25983SOL    HW279847   2.606  13.786   2.340
25984SOL     OW79848  13.101   5.145   2.423
25984SOL    HW179849  13.072   5.103   2.342
25984SOL    HW279850  13.073   5.085   2.493
25985SOL     OW79851   8.331  10.859  11.062
25985SOL    HW179852   8.422  10.861  11.090
25985SOL    HW279853   8.329  10.795  10.991
25986SOL     OW79854  14.631   3.901   7.022
25986SOL    HW179855  14.641   3.975   6.961
25986SOL    HW279856  14.647   3.940   7.108
25987SOL     OW79857  11.970   9.899  13.081
25987SOL    HW179858  12.030   9.851  13.138
25987SOL    HW279859  12.007   9.891  12.994
25988SOL     OW79860   3.710   8.998   0.188
25988SOL    HW179861   3.763   8.953   0.254
25988SOL    HW279862   3.726   9.091   0.204
25989SOL     OW79863   0.722   5.823   3.180
25989SOL    HW179864   0.679   5.819   3.094
25989SOL    HW279865   0.653   5.847   3.241
25990SOL     OW79866   9.595  14.100  12.979
25990SOL    HW179867   9.622  14.183  12.939
25990SOL    HW279868   9.636  14.101  13.066
25991SOL     OW79869   6.153   1.823  14.824
25991SOL    HW179870   6.102   1.822  14.743
25991SOL    HW279871   6.101   1.769   0.009
25992SOL     OW79872  11.374   5.357  13.732
25992SOL    HW179873  11.286   5.391  13.746
25992SOL    HW279874  11.428   5.435  13.720
25993SOL     OW79875  13.641   1.311   9.311
25993SOL    HW179876  13.575   1.376   9.287
25993SOL    HW279877  13.629   1.299   9.406
25994SOL     OW79878   3.557  12.619  14.624
25994SOL    HW179879   3.511  12.539  14.648
25994SOL    HW279880   3.532  12.635  14.532
25995SOL     OW79881  10.059   6.105   5.040
25995SOL    HW179882  10.088   6.021   5.075
25995SOL    HW279883  10.022   6.151   5.116
25996SOL     OW79884   2.639   5.159   4.370
25996SOL    HW179885   2.552   5.181   4.402
25996SOL    HW279886   2.695   5.230   4.403
25997SOL     OW79887   1.437  14.052   5.364
25997SOL    HW179888   1.360  14.069   5.310
25997SOL    HW279889   1.507  14.102   5.321
25998SOL     OW79890   4.262   7.713   3.567
25998SOL    HW179891   4.263   7.799   3.524
25998SOL    HW279892   4.338   7.667   3.530
25999SOL     OW79893   4.969   9.453  14.119
25999SOL    HW179894   4.979   9.497  14.035
25999SOL    HW279895   5.025   9.376  14.113
26000SOL     OW79896  14.601   7.284   8.214
26000SOL    HW179897  14.539   7.355   8.198
26000SOL    HW279898  14.648   7.311   8.293
26001SOL     OW79899  13.562  10.260   4.422
26001SOL    HW179900  13.638  10.253   4.365
26001SOL    HW279901  13.592  10.226   4.506
26002SOL     OW79902   8.660  13.352  14.855
26002SOL    HW179903   8.667  13.358  14.760
26002SOL    HW279904   8.627  13.438   0.007
26003SOL     OW79905  12.639   9.062   5.487
26003SOL    HW179906  12.664   9.001   5.417
26003SOL    HW279907  12.707   9.128   5.487
26004SOL     OW79908  14.679  11.603   2.467
26004SOL    HW179909  14.629  11.655   2.404
26004SOL    HW279910  14.637  11.620   2.552
26005SOL     OW79911   9.448   0.204   7.813
26005SOL    HW179912   9.458   0.138   7.882
26005SOL    HW279913   9.355   0.227   7.815
26006SOL     OW79914  12.482  11.453   8.856
26006SOL    HW179915  12.459  11.445   8.949
26006SOL    HW279916  12.452  11.372   8.816
26007SOL     OW79917   8.238   0.293  10.969
26007SOL    HW179918   8.256   0.275  10.877
26007SOL    HW279919   8.275   0.380  10.985
26008SOL     OW79920  10.007   1.392  12.901
26008SOL    HW179921   9.948   1.317  12.906
26008SOL    HW279922  10.074   1.364  12.838
26009SOL     OW79923   2.400   6.744   8.918
26009SOL    HW179924   2.338   6.803   8.960
26009SOL    HW279925   2.485   6.768   8.954
26010SOL     OW79926  13.781   3.300   6.583
26010SOL    HW179927  13.801   3.225   6.526
26010SOL    HW279928  13.867   3.338   6.603
26011SOL     OW79929   4.100  12.589   8.785
26011SOL    HW179930   4.187  12.587   8.744
26011SOL    HW279931   4.068  12.499   8.777
26012SOL     OW79932   4.736   8.258   5.646
26012SOL    HW179933   4.749   8.339   5.696
26012SOL    HW279934   4.660   8.217   5.685
26013SOL     OW79935   8.899  10.478   7.537
26013SOL    HW179936   8.956  10.480   7.613
26013SOL    HW279937   8.854  10.394   7.542
26014SOL     OW79938   8.712  13.808   1.461
26014SOL    HW179939   8.746  13.896   1.475
26014SOL    HW279940   8.630  13.821   1.413
26015SOL     OW79941   3.198  14.665  11.629
26015SOL    HW179942   3.221  14.580  11.668
26015SOL    HW279943   3.267  14.724  11.657
26016SOL     OW79944   3.417  11.204   2.357
26016SOL    HW179945   3.399  11.113   2.335
26016SOL    HW279946   3.423  11.206   2.452
26017SOL     OW79947  10.963   0.765   9.035
26017SOL    HW179948  11.011   0.845   9.058
26017SOL    HW279949  10.958   0.716   9.116
26018SOL     OW79950   2.612   8.277   5.267
26018SOL    HW179951   2.540   8.218   5.244
26018SOL    HW279952   2.658   8.232   5.338
26019SOL     OW79953   1.144   3.832   0.031
26019SOL    HW179954   1.158   3.878   0.113
26019SOL    HW279955   1.145   3.902  14.839
26020SOL     OW79956   8.296   8.146   1.077
26020SOL    HW179957   8.309   8.218   1.138
26020SOL    HW279958   8.361   8.161   1.008
26021SOL     OW79959   7.141   1.006   2.532
26021SOL    HW179960   7.133   0.975   2.442
26021SOL    HW279961   7.051   1.020   2.561
26022SOL     OW79962   0.164  10.420  14.770
26022SOL    HW179963   0.229  10.368  14.816
26022SOL    HW279964   0.114  10.464  14.839
26023SOL     OW79965   6.594   1.135  12.319
26023SOL    HW179966   6.505   1.159  12.295
26023SOL    HW279967   6.637   1.113  12.237
26024SOL     OW79968   2.744  12.532   0.462
26024SOL    HW179969   2.729  12.601   0.527
26024SOL    HW279970   2.659  12.490   0.453
26025SOL     OW79971   4.292   3.885  13.346
26025SOL    HW179972   4.357   3.956  13.344
26025SOL    HW279973   4.208   3.931  13.354
26026SOL     OW79974   9.599   5.698   6.790
26026SOL    HW179975   9.549   5.660   6.863
26026SOL    HW279976   9.677   5.644   6.785
26027SOL     OW79977  11.763   5.598   1.645
26027SOL    HW179978  11.788   5.511   1.613
26027SOL    HW279979  11.713   5.637   1.573
26028SOL     OW79980   5.408  12.673   1.800
26028SOL    HW179981   5.408  12.631   1.714
26028SOL    HW279982   5.315  12.676   1.825
26029SOL     OW79983   9.815   2.418  11.862
26029SOL    HW179984   9.738   2.362  11.872
26029SOL    HW279985   9.856   2.389  11.780
26030SOL     OW79986  11.393   9.915   1.734
26030SOL    HW179987  11.462   9.879   1.790
26030SOL    HW279988  11.315   9.864   1.756
26031SOL     OW79989   7.994  11.763  10.752
26031SOL    HW179990   7.996  11.676  10.714
26031SOL    HW279991   8.083  11.796  10.741
26032SOL     OW79992   9.525   2.042  12.803
26032SOL    HW179993   9.551   2.128  12.836
26032SOL    HW279994   9.485   2.060  12.718
26033SOL     OW79995   8.544  14.802   3.130
26033SOL    HW179996   8.571  14.743   3.059
26033SOL    HW279997   8.588  14.768   3.208
26034SOL     OW79998   0.489   6.628   4.807
26034SOL    HW179999   0.443   6.710   4.824
26034SOL    HW280000   0.439   6.562   4.855
26035SOL     OW80001  14.624   7.756   4.782
26035SOL    HW180002  14.553   7.818   4.764
26035SOL    HW280003  14.702   7.795   4.743
26036SOL     OW80004   0.113   9.375   5.454
26036SOL    HW180005   0.096   9.462   5.417
26036SOL    HW280006   0.034   9.325   5.435
26037SOL     OW80007   9.935   9.679   2.612
26037SOL    HW180008   9.856   9.627   2.598
26037SOL    HW280009   9.969   9.649   2.696
26038SOL     OW80010  13.713   4.706  13.353
26038SOL    HW180011  13.724   4.739  13.442
26038SOL    HW280012  13.747   4.777  13.298
26039SOL     OW80013   8.621  12.154   4.197
26039SOL    HW180014   8.631  12.189   4.108
26039SOL    HW280015   8.537  12.188   4.227
26040SOL     OW80016   0.183  11.015   6.047
26040SOL    HW180017   0.102  10.969   6.026
26040SOL    HW280018   0.250  10.971   5.995
26041SOL     OW80019  12.211  11.903  13.474
26041SOL    HW180020  12.208  11.998  13.472
26041SOL    HW280021  12.304  11.881  13.465
26042SOL     OW80022   2.685  10.911   4.484
26042SOL    HW180023   2.634  10.846   4.436
26042SOL    HW280024   2.775  10.895   4.456
26043SOL     OW80025   2.751   1.590   2.211
26043SOL    HW180026   2.772   1.497   2.212
26043SOL    HW280027   2.655   1.593   2.216
26044SOL     OW80028   2.902   1.553   6.188
26044SOL    HW180029   2.982   1.505   6.208
26044SOL    HW280030   2.898   1.554   6.092
26045SOL     OW80031   4.984   2.571   3.328
26045SOL    HW180032   5.046   2.512   3.286
26045SOL    HW280033   4.908   2.573   3.270
26046SOL     OW80034  12.605   1.307   4.810
26046SOL    HW180035  12.594   1.268   4.896
26046SOL    HW280036  12.522   1.351   4.792
26047SOL     OW80037   5.596   4.311   0.453
26047SOL    HW180038   5.505   4.301   0.480
26047SOL    HW280039   5.608   4.406   0.443
26048SOL     OW80040  10.297  12.375   8.756
26048SOL    HW180041  10.266  12.435   8.689
26048SOL    HW280042  10.243  12.395   8.833
26049SOL     OW80043   5.959  13.246   1.135
26049SOL    HW180044   5.930  13.270   1.223
26049SOL    HW280045   5.994  13.157   1.145
26050SOL     OW80046   3.916   3.114   5.138
26050SOL    HW180047   3.901   3.021   5.122
26050SOL    HW280048   3.914   3.123   5.233
26051SOL     OW80049   4.937  12.027  14.505
26051SOL    HW180050   4.894  11.949  14.541
26051SOL    HW280051   5.004  11.992  14.446
26052SOL     OW80052  11.849   6.436   6.366
26052SOL    HW180053  11.866   6.402   6.454
26052SOL    HW280054  11.928   6.416   6.316
26053SOL     OW80055   0.003   4.819   4.743
26053SOL    HW180056  14.851   4.730   4.761
26053SOL    HW280057  14.826   4.846   4.667
26054SOL     OW80058  12.822   8.127  11.347
26054SOL    HW180059  12.877   8.132  11.269
26054SOL    HW280060  12.871   8.071  11.407
26055SOL     OW80061   1.959   1.221  13.336
26055SOL    HW180062   1.978   1.314  13.328
26055SOL    HW280063   2.042   1.181  13.364
26056SOL     OW80064   1.770  11.738   9.421
26056SOL    HW180065   1.774  11.735   9.516
26056SOL    HW280066   1.814  11.820   9.397
26057SOL     OW80067  10.923   6.659  11.583
26057SOL    HW180068  10.987   6.698  11.523
26057SOL    HW280069  10.848   6.718  11.580
26058SOL     OW80070  13.647  11.013   8.894
26058SOL    HW180071  13.709  11.084   8.878
26058SOL    HW280072  13.680  10.941   8.841
26059SOL     OW80073   7.082  12.865   0.987
26059SOL    HW180074   7.046  12.952   1.001
26059SOL    HW280075   7.076  12.823   1.073
26060SOL     OW80076  12.231  13.831   1.851
26060SOL    HW180077  12.217  13.876   1.935
26060SOL    HW280078  12.145  13.834   1.809
26061SOL     OW80079   2.409   6.602  14.289
26061SOL    HW180080   2.372   6.518  14.318
26061SOL    HW280081   2.332   6.656  14.270
26062SOL     OW80082  12.827  10.543   5.753
26062SOL    HW180083  12.799  10.584   5.835
26062SOL    HW280084  12.795  10.454   5.758
26063SOL     OW80085  14.575   7.346   2.068
26063SOL    HW180086  14.623   7.404   2.010
26063SOL    HW280087  14.596   7.376   2.156
26064SOL     OW80088   6.186   3.749  10.385
26064SOL    HW180089   6.136   3.696  10.321
26064SOL    HW280090   6.208   3.687  10.454
26065SOL     OW80091  14.251   9.381   2.601
26065SOL    HW180092  14.165   9.341   2.587
26065SOL    HW280093  14.304   9.311   2.639
26066SOL     OW80094  11.758   8.208   7.549
26066SOL    HW180095  11.744   8.291   7.504
26066SOL    HW280096  11.804   8.231   7.629
26067SOL     OW80097  10.540  12.746   8.291
26067SOL    HW180098  10.454  12.710   8.270
26067SOL    HW280099  10.581  12.762   8.206
26068SOL     OW80100  13.847   7.619  11.861
26068SOL    HW180101  13.837   7.574  11.777
26068SOL    HW280102  13.918   7.681  11.846
26069SOL     OW80103  12.000   2.199   7.014
26069SOL    HW180104  11.972   2.216   7.104
26069SOL    HW280105  12.084   2.245   7.006
26070SOL     OW80106  10.643  10.499  14.209
26070SOL    HW180107  10.552  10.477  14.227
26070SOL    HW280108  10.644  10.594  14.201
26071SOL     OW80109  10.874   0.902   3.538
26071SOL    HW180110  10.828   0.954   3.604
26071SOL    HW280111  10.826   0.916   3.457
26072SOL     OW80112   4.757  10.608   8.332
26072SOL    HW180113   4.725  10.697   8.340
26072SOL    HW280114   4.819  10.598   8.405
26073SOL     OW80115  11.964   6.484  10.361
26073SOL    HW180116  11.939   6.574  10.339
26073SOL    HW280117  11.950   6.436  10.279
26074SOL     OW80118   7.054   3.892   3.900
26074SOL    HW180119   7.126   3.838   3.932
26074SOL    HW280120   7.043   3.866   3.809
26075SOL     OW80121   7.149   1.575   6.913
26075SOL    HW180122   7.111   1.560   7.000
26075SOL    HW280123   7.244   1.567   6.927
26076SOL     OW80124   3.654   4.208  14.195
26076SOL    HW180125   3.666   4.114  14.178
26076SOL    HW280126   3.625   4.212  14.287
26077SOL     OW80127   5.206  10.820   7.653
26077SOL    HW180128   5.175  10.758   7.719
26077SOL    HW280129   5.300  10.824   7.667
26078SOL     OW80130  12.623  10.234   9.522
26078SOL    HW180131  12.607  10.323   9.488
26078SOL    HW280132  12.549  10.216   9.580
26079SOL     OW80133   4.689   9.111  11.410
26079SOL    HW180134   4.695   9.071  11.324
26079SOL    HW280135   4.669   9.203  11.392
26080SOL     OW80136   9.570   1.483  11.282
26080SOL    HW180137   9.629   1.558  11.270
26080SOL    HW280138   9.597   1.445  11.365
26081SOL     OW80139   2.733   2.717   2.142
26081SOL    HW180140   2.762   2.791   2.195
26081SOL    HW280141   2.643   2.700   2.172
26082SOL     OW80142   9.872   7.080   5.181
26082SOL    HW180143   9.933   7.015   5.146
26082SOL    HW280144   9.801   7.028   5.219
26083SOL     OW80145   9.471   1.455   6.496
26083SOL    HW180146   9.566   1.467   6.506
26083SOL    HW280147   9.462   1.380   6.438
26084SOL     OW80148   0.065  11.174  10.335
26084SOL    HW180149   0.155  11.165  10.305
26084SOL    HW280150   0.012  11.134  10.266
26085SOL     OW80151   4.751  12.265   4.789
26085SOL    HW180152   4.702  12.335   4.832
26085SOL    HW280153   4.703  12.249   4.707
26086SOL     OW80154   9.476   9.354   2.487
26086SOL    HW180155   9.544   9.401   2.437
26086SOL    HW280156   9.394   9.392   2.456
26087SOL     OW80157   9.967   8.678  11.234
26087SOL    HW180158   9.893   8.624  11.204
26087SOL    HW280159  10.030   8.673  11.163
26088SOL     OW80160   2.167   4.099   7.433
26088SOL    HW180161   2.132   4.094   7.344
26088SOL    HW280162   2.091   4.120   7.488
26089SOL     OW80163   1.043   3.291   3.863
26089SOL    HW180164   1.119   3.347   3.879
26089SOL    HW280165   0.994   3.338   3.795
26090SOL     OW80166  11.688  12.120   6.200
26090SOL    HW180167  11.635  12.089   6.126
26090SOL    HW280168  11.704  12.041   6.251
26091SOL     OW80169  12.513   0.531  11.483
26091SOL    HW180170  12.606   0.510  11.469
26091SOL    HW280171  12.511   0.626  11.486
26092SOL     OW80172   2.606   7.136  10.409
26092SOL    HW180173   2.576   7.185  10.485
26092SOL    HW280174   2.534   7.074  10.391
26093SOL     OW80175   1.802   8.223   7.670
26093SOL    HW180176   1.719   8.176   7.663
26093SOL    HW280177   1.795   8.294   7.606
26094SOL     OW80178   7.595   0.617  10.653
26094SOL    HW180179   7.684   0.586  10.642
26094SOL    HW280180   7.594   0.656  10.741
26095SOL     OW80181  10.081  14.005   9.906
26095SOL    HW180182  10.025  13.928   9.895
26095SOL    HW280183  10.170  13.972   9.900
26096SOL     OW80184  12.491  12.950   6.459
26096SOL    HW180185  12.553  12.916   6.523
26096SOL    HW280186  12.537  13.023   6.417
26097SOL     OW80187   6.136   9.966  11.114
26097SOL    HW180188   6.179   9.886  11.086
26097SOL    HW280189   6.161   9.977  11.205
26098SOL     OW80190   0.012   1.899  12.232
26098SOL    HW180191  14.827   1.825  12.227
26098SOL    HW280192   0.097   1.860  12.252
26099SOL     OW80193   2.330  13.652  12.216
26099SOL    HW180194   2.334  13.592  12.290
26099SOL    HW280195   2.248  13.700  12.228
26100SOL     OW80196   2.805   1.010  14.192
26100SOL    HW180197   2.849   1.031  14.110
26100SOL    HW280198   2.850   1.064  14.257
26101SOL     OW80199   1.443  11.751  13.807
26101SOL    HW180200   1.402  11.685  13.862
26101SOL    HW280201   1.513  11.787  13.862
26102SOL     OW80202   8.113   5.883   9.654
26102SOL    HW180203   8.150   5.965   9.686
26102SOL    HW280204   8.026   5.908   9.622
26103SOL     OW80205   5.046  12.828  13.987
26103SOL    HW180206   4.955  12.837  14.015
26103SOL    HW280207   5.095  12.888  14.043
26104SOL     OW80208   9.519   6.159   7.922
26104SOL    HW180209   9.454   6.228   7.932
26104SOL    HW280210   9.549   6.140   8.011
26105SOL     OW80211   6.588   4.898   2.313
26105SOL    HW180212   6.552   4.973   2.266
26105SOL    HW280213   6.539   4.822   2.279
26106SOL     OW80214   6.117   5.688   1.388
26106SOL    HW180215   6.076   5.652   1.310
26106SOL    HW280216   6.211   5.677   1.374
26107SOL     OW80217  11.095  13.901   0.504
26107SOL    HW180218  11.068  13.893   0.595
26107SOL    HW280219  11.021  13.864   0.454
26108SOL     OW80220  13.656  11.462  14.181
26108SOL    HW180221  13.623  11.550  14.162
26108SOL    HW280222  13.620  11.441  14.267
26109SOL     OW80223   8.713   1.947   3.245
26109SOL    HW180224   8.803   1.962   3.274
26109SOL    HW280225   8.701   1.852   3.251
26110SOL     OW80226   0.737   1.161   4.783
26110SOL    HW180227   0.708   1.250   4.799
26110SOL    HW280228   0.780   1.164   4.697
26111SOL     OW80229   0.106   6.567   4.836
26111SOL    HW180230   0.141   6.583   4.924
26111SOL    HW280231   0.036   6.631   4.825
26112SOL     OW80232   0.446   9.952   7.792
26112SOL    HW180233   0.388   9.878   7.773
26112SOL    HW280234   0.482   9.933   7.878
26113SOL     OW80235  14.657   9.118   2.289
26113SOL    HW180236  14.707   9.191   2.251
26113SOL    HW280237  14.567   9.152   2.295
26114SOL     OW80238   6.614   1.071   9.479
26114SOL    HW180239   6.558   1.046   9.405
26114SOL    HW280240   6.599   1.165   9.490
26115SOL     OW80241   1.628   2.968  11.543
26115SOL    HW180242   1.594   2.996  11.627
26115SOL    HW280243   1.592   2.880  11.530
26116SOL     OW80244   3.533   6.660   8.737
26116SOL    HW180245   3.449   6.620   8.715
26116SOL    HW280246   3.522   6.753   8.715
26117SOL     OW80247   2.943   3.604   4.614
26117SOL    HW180248   2.962   3.649   4.531
26117SOL    HW280249   3.014   3.631   4.672
26118SOL     OW80250   4.241   6.977   0.158
26118SOL    HW180251   4.193   6.908   0.204
26118SOL    HW280252   4.306   6.930   0.106
26119SOL     OW80253   8.227   5.452  13.967
26119SOL    HW180254   8.316   5.429  13.941
26119SOL    HW280255   8.206   5.531  13.916
26120SOL     OW80256   8.424   9.779  12.880
26120SOL    HW180257   8.512   9.772  12.917
26120SOL    HW280258   8.375   9.831  12.944
26121SOL     OW80259  10.283   0.404   8.185
26121SOL    HW180260  10.351   0.413   8.251
26121SOL    HW280261  10.325   0.433   8.103
26122SOL     OW80262  10.258  12.377   5.984
26122SOL    HW180263  10.257  12.356   6.077
26122SOL    HW280264  10.169  12.407   5.966
26123SOL     OW80265  14.681  10.650  12.307
26123SOL    HW180266  14.747  10.712  12.279
26123SOL    HW280267  14.617  10.649  12.236
26124SOL     OW80268  12.801   9.294   2.252
26124SOL    HW180269  12.808   9.389   2.248
26124SOL    HW280270  12.892   9.263   2.246
26125SOL     OW80271  11.479   7.024   0.463
26125SOL    HW180272  11.554   7.012   0.406
26125SOL    HW280273  11.406   7.043   0.404
26126SOL     OW80274   4.685   9.402  12.304
26126SOL    HW180275   4.719   9.416  12.392
26126SOL    HW280276   4.713   9.480  12.255
26127SOL     OW80277   6.101  13.275   3.711
26127SOL    HW180278   6.132  13.185   3.706
26127SOL    HW280279   6.006  13.268   3.704
26128SOL     OW80280  13.922   9.534   8.734
26128SOL    HW180281  14.015   9.551   8.751
26128SOL    HW280282  13.900   9.593   8.661
26129SOL     OW80283  14.744   9.834   5.595
26129SOL    HW180284  14.658   9.813   5.632
26129SOL    HW280285  14.787   9.887   5.663
26130SOL     OW80286   4.520  13.339   0.540
26130SOL    HW180287   4.439  13.302   0.506
26130SOL    HW280288   4.501  13.361   0.631
26131SOL     OW80289   2.887  10.855   9.024
26131SOL    HW180290   2.802  10.830   9.061
26131SOL    HW280291   2.923  10.918   9.086
26132SOL     OW80292  10.295   0.637   6.511
26132SOL    HW180293  10.216   0.605   6.556
26132SOL    HW280294  10.333   0.700   6.571
26133SOL     OW80295  13.942   9.673   2.034
26133SOL    HW180296  14.014   9.652   1.975
26133SOL    HW280297  13.951   9.611   2.107
26134SOL     OW80298  10.713   9.099   6.836
26134SOL    HW180299  10.805   9.113   6.858
26134SOL    HW280300  10.666   9.113   6.918
26135SOL     OW80301  10.933  13.698   0.203
26135SOL    HW180302  10.888  13.771   0.247
26135SOL    HW280303  10.958  13.733   0.117
26136SOL     OW80304   1.364  10.674  14.446
26136SOL    HW180305   1.397  10.603  14.391
26136SOL    HW280306   1.442  10.723  14.472
26137SOL     OW80307   1.549   6.478   9.208
26137SOL    HW180308   1.568   6.531   9.286
26137SOL    HW280309   1.488   6.411   9.239
26138SOL     OW80310  11.004  14.650   3.484
26138SOL    HW180311  10.929  14.709   3.487
26138SOL    HW280312  10.994  14.603   3.401
26139SOL     OW80313   9.398   0.578   5.222
26139SOL    HW180314   9.418   0.672   5.221
26139SOL    HW280315   9.437   0.546   5.303
26140SOL     OW80316   5.754   1.653   5.139
26140SOL    HW180317   5.709   1.576   5.174
26140SOL    HW280318   5.831   1.618   5.094
26141SOL     OW80319   8.070   1.022   7.467
26141SOL    HW180320   8.085   1.074   7.388
26141SOL    HW280321   8.092   1.081   7.539
26142SOL     OW80322   1.805   6.546   7.965
26142SOL    HW180323   1.814   6.465   7.914
26142SOL    HW280324   1.732   6.592   7.923
26143SOL     OW80325   7.677   6.713   5.227
26143SOL    HW180326   7.685   6.625   5.190
26143SOL    HW280327   7.627   6.700   5.308
26144SOL     OW80328   8.421   5.241   5.829
26144SOL    HW180329   8.451   5.331   5.838
26144SOL    HW280330   8.418   5.207   5.919
26145SOL     OW80331   6.408  12.532  10.921
26145SOL    HW180332   6.342  12.473  10.884
26145SOL    HW280333   6.490  12.505  10.879
26146SOL     OW80334   7.852   4.395   6.045
26146SOL    HW180335   7.793   4.320   6.036
26146SOL    HW280336   7.937   4.362   6.016
26147SOL     OW80337   8.819   0.054  10.689
26147SOL    HW180338   8.868   0.099  10.620
26147SOL    HW280339   8.780  14.854  10.645
26148SOL     OW80340   0.635   4.722  14.199
26148SOL    HW180341   0.548   4.695  14.171
26148SOL    HW280342   0.695   4.670  14.147
26149SOL     OW80343   4.085   9.070  12.835
26149SOL    HW180344   4.048   9.101  12.917
26149SOL    HW280345   4.044   8.986  12.819
26150SOL     OW80346   1.987   3.333   9.676
26150SOL    HW180347   1.893   3.319   9.665
26150SOL    HW280348   2.025   3.245   9.669
26151SOL     OW80349   4.005   9.631   8.068
26151SOL    HW180350   4.051   9.713   8.086
26151SOL    HW280351   3.948   9.651   7.993
26152SOL     OW80352   7.333   8.403   4.895
26152SOL    HW180353   7.407   8.452   4.860
26152SOL    HW280354   7.330   8.427   4.987
26153SOL     OW80355   8.701   4.052   9.662
26153SOL    HW180356   8.757   4.118   9.702
26153SOL    HW280357   8.620   4.098   9.642
26154SOL     OW80358  10.369   2.943  13.023
26154SOL    HW180359  10.380   2.874  13.088
26154SOL    HW280360  10.342   2.896  12.943
26155SOL     OW80361   4.801   4.476   8.741
26155SOL    HW180362   4.756   4.414   8.685
26155SOL    HW280363   4.799   4.558   8.692
26156SOL     OW80364  14.451   3.699  10.349
26156SOL    HW180365  14.490   3.786  10.353
26156SOL    HW280366  14.362   3.711  10.380
26157SOL     OW80367   3.209   5.398   2.171
26157SOL    HW180368   3.221   5.354   2.087
26157SOL    HW280369   3.207   5.327   2.236
26158SOL     OW80370   1.361   2.177  10.051
26158SOL    HW180371   1.268   2.193  10.036
26158SOL    HW280372   1.369   2.082  10.059
26159SOL     OW80373   2.260   0.252  13.726
26159SOL    HW180374   2.344   0.290  13.752
26159SOL    HW280375   2.214   0.235  13.808
26160SOL     OW80376   0.567   1.077   8.682
26160SOL    HW180377   0.617   1.148   8.641
26160SOL    HW280378   0.620   1.051   8.757
26161SOL     OW80379   6.876   4.790   0.187
26161SOL    HW180380   6.880   4.871   0.238
26161SOL    HW280381   6.948   4.737   0.220
26162SOL     OW80382   8.266  12.269   8.408
26162SOL    HW180383   8.202  12.268   8.479
26162SOL    HW280384   8.216  12.246   8.330
26163SOL     OW80385  10.369  13.266   5.018
26163SOL    HW180386  10.415  13.348   5.030
26163SOL    HW280387  10.393  13.237   4.930
26164SOL     OW80388   9.803  12.181   2.936
26164SOL    HW180389   9.768  12.097   2.967
26164SOL    HW280390   9.773  12.187   2.846
26165SOL     OW80391   1.847   6.311  10.187
26165SOL    HW180392   1.899   6.391  10.191
26165SOL    HW280393   1.911   6.241  10.175
26166SOL     OW80394   9.571   1.390   7.454
26166SOL    HW180395   9.551   1.308   7.409
26166SOL    HW280396   9.660   1.412   7.425
26167SOL     OW80397  11.389   5.248   7.741
26167SOL    HW180398  11.373   5.210   7.655
26167SOL    HW280399  11.336   5.328   7.742
26168SOL     OW80400   0.340   1.481  14.796
26168SOL    HW180401   0.354   1.495  14.703
26168SOL    HW280402   0.418   1.434  14.826
26169SOL     OW80403   7.673  11.589   1.769
26169SOL    HW180404   7.750  11.561   1.820
26169SOL    HW280405   7.600  11.581   1.829
26170SOL     OW80406   3.046   6.048  12.605
26170SOL    HW180407   3.061   6.053  12.699
26170SOL    HW280408   2.963   6.094  12.592
26171SOL     OW80409   2.325   9.831   6.206
26171SOL    HW180410   2.324   9.900   6.272
26171SOL    HW280411   2.415   9.799   6.205
26172SOL     OW80412  13.822  10.317   3.459
26172SOL    HW180413  13.915  10.339   3.448
26172SOL    HW280414  13.823  10.243   3.521
26173SOL     OW80415   4.252   6.058   0.852
26173SOL    HW180416   4.266   6.124   0.784
26173SOL    HW280417   4.337   6.051   0.896
26174SOL     OW80418   4.607   1.393  11.942
26174SOL    HW180419   4.650   1.396  12.027
26174SOL    HW280420   4.533   1.333  11.955
26175SOL     OW80421   9.118   5.613   4.278
26175SOL    HW180422   9.113   5.651   4.366
26175SOL    HW280423   9.168   5.532   4.290
26176SOL     OW80424   3.341  10.206  12.062
26176SOL    HW180425   3.269  10.151  12.091
26176SOL    HW280426   3.418  10.170  12.105
26177SOL     OW80427  11.032   4.833   5.522
26177SOL    HW180428  11.118   4.874   5.520
26177SOL    HW280429  10.993   4.856   5.438
26178SOL     OW80430   5.780   8.174   8.703
26178SOL    HW180431   5.869   8.201   8.679
26178SOL    HW280432   5.745   8.133   8.624
26179SOL     OW80433   5.363   5.856   1.726
26179SOL    HW180434   5.434   5.900   1.773
26179SOL    HW280435   5.299   5.835   1.794
26180SOL     OW80436   9.001   1.303   2.969
26180SOL    HW180437   8.916   1.346   2.964
26180SOL    HW280438   8.980   1.210   2.976
26181SOL     OW80439   0.255  12.226  14.438
26181SOL    HW180440   0.335  12.277  14.435
26181SOL    HW280441   0.240  12.209  14.531
26182SOL     OW80442   2.854   3.264   2.123
26182SOL    HW180443   2.922   3.243   2.187
26182SOL    HW280444   2.830   3.355   2.143
26183SOL     OW80445   9.505   8.130   2.089
26183SOL    HW180446   9.568   8.066   2.056
26183SOL    HW280447   9.471   8.091   2.170
26184SOL     OW80448   9.233   8.929   0.854
26184SOL    HW180449   9.176   8.887   0.920
26184SOL    HW280450   9.318   8.887   0.866
26185SOL     OW80451  13.250  13.338  13.399
26185SOL    HW180452  13.309  13.379  13.463
26185SOL    HW280453  13.228  13.408  13.338
26186SOL     OW80454   5.869   0.955  12.989
26186SOL    HW180455   5.906   0.868  13.006
26186SOL    HW280456   5.891   0.973  12.898
26187SOL     OW80457  12.033   5.312   5.450
26187SOL    HW180458  12.128   5.309   5.441
26187SOL    HW280459  12.008   5.394   5.409
26188SOL     OW80460   0.499  14.797  11.123
26188SOL    HW180461   0.430  14.742  11.160
26188SOL    HW280462   0.506  14.870  11.185
26189SOL     OW80463   8.993   3.932   7.703
26189SOL    HW180464   9.012   4.017   7.664
26189SOL    HW280465   9.050   3.927   7.779
26190SOL     OW80466   3.843  12.615   8.839
26190SOL    HW180467   3.935  12.617   8.813
26190SOL    HW280468   3.845  12.627   8.934
26191SOL     OW80469  14.242  11.958   1.145
26191SOL    HW180470  14.318  12.007   1.176
26191SOL    HW280471  14.274  11.911   1.068
26192SOL     OW80472  12.917   1.800   2.452
26192SOL    HW180473  12.867   1.724   2.481
26192SOL    HW280474  12.930   1.852   2.531
26193SOL     OW80475   1.507   7.807  12.920
26193SOL    HW180476   1.506   7.732  12.860
26193SOL    HW280477   1.414   7.828  12.932
26194SOL     OW80478   4.817   5.347   3.208
26194SOL    HW180479   4.789   5.434   3.237
26194SOL    HW280480   4.891   5.326   3.265
26195SOL     OW80481   5.232   7.953   6.504
26195SOL    HW180482   5.222   7.858   6.500
26195SOL    HW280483   5.174   7.986   6.435
26196SOL     OW80484   1.121  10.793  12.083
26196SOL    HW180485   1.202  10.790  12.032
26196SOL    HW280486   1.120  10.881  12.122
26197SOL     OW80487  14.599  11.949   1.379
26197SOL    HW180488  14.648  11.908   1.450
26197SOL    HW280489  14.512  11.910   1.384
26198SOL     OW80490   8.832   5.175   3.050
26198SOL    HW180491   8.864   5.261   3.022
26198SOL    HW280492   8.843   5.175   3.145
26199SOL     OW80493   0.314  13.041   1.509
26199SOL    HW180494   0.360  13.051   1.592
26199SOL    HW280495   0.245  13.107   1.510
26200SOL     OW80496   6.237   0.216   6.529
26200SOL    HW180497   6.302   0.257   6.586
26200SOL    HW280498   6.274   0.227   6.441
26201SOL     OW80499  13.664  14.054   6.407
26201SOL    HW180500  13.591  14.092   6.359
26201SOL    HW280501  13.653  13.960   6.396
26202SOL     OW80502   6.357  11.721   0.780
26202SOL    HW180503   6.425  11.691   0.840
26202SOL    HW280504   6.387  11.807   0.751
26203SOL     OW80505   6.829   8.633  10.527
26203SOL    HW180506   6.839   8.665  10.437
26203SOL    HW280507   6.766   8.694  10.566
26204SOL     OW80508   8.960   7.880   4.329
26204SOL    HW180509   9.048   7.843   4.334
26204SOL    HW280510   8.905   7.808   4.299
26205SOL     OW80511  10.873   3.341   7.898
26205SOL    HW180512  10.833   3.333   7.811
26205SOL    HW280513  10.955   3.291   7.891
26206SOL     OW80514   9.795  11.269   8.220
26206SOL    HW180515   9.829  11.350   8.257
26206SOL    HW280516   9.705  11.264   8.250
26207SOL     OW80517   0.347  12.970   8.272
26207SOL    HW180518   0.357  13.037   8.339
26207SOL    HW280519   0.403  13.000   8.200
26208SOL     OW80520   6.313  11.311   6.270
26208SOL    HW180521   6.270  11.317   6.355
26208SOL    HW280522   6.405  11.295   6.290
26209SOL     OW80523   8.750  13.985  10.664
26209SOL    HW180524   8.701  13.994  10.746
26209SOL    HW280525   8.717  13.903  10.626
26210SOL     OW80526   6.399  10.104  12.834
26210SOL    HW180527   6.328  10.165  12.815
26210SOL    HW280528   6.371  10.059  12.914
26211SOL     OW80529   8.195  13.355   5.234
26211SOL    HW180530   8.270  13.365   5.293
26211SOL    HW280531   8.219  13.405   5.156
26212SOL     OW80532  14.444   1.377   3.930
26212SOL    HW180533  14.443   1.470   3.908
26212SOL    HW280534  14.371   1.366   3.991
26213SOL     OW80535   2.142   5.318   4.534
26213SOL    HW180536   2.117   5.409   4.519
26213SOL    HW280537   2.083   5.268   4.477
26214SOL     OW80538  12.386  11.191   6.391
26214SOL    HW180539  12.325  11.216   6.321
26214SOL    HW280540  12.465  11.164   6.345
26215SOL     OW80541   5.848   9.882  14.006
26215SOL    HW180542   5.839   9.934  13.926
26215SOL    HW280543   5.802   9.934  14.073
26216SOL     OW80544   3.071  13.452   3.287
26216SOL    HW180545   3.141  13.407   3.239
26216SOL    HW280546   3.005  13.472   3.222
26217SOL     OW80547   5.998   6.578   0.306
26217SOL    HW180548   6.013   6.498   0.358
26217SOL    HW280549   6.084   6.620   0.303
26218SOL     OW80550   0.191   4.332  12.566
26218SOL    HW180551   0.248   4.255  12.560
26218SOL    HW280552   0.168   4.351  12.475
26219SOL     OW80553  11.105   0.894  10.322
26219SOL    HW180554  11.091   0.984  10.352
26219SOL    HW280555  11.187   0.868  10.364
26220SOL     OW80556   3.620  10.409   1.287
26220SOL    HW180557   3.672  10.419   1.206
26220SOL    HW280558   3.575  10.493   1.296
26221SOL     OW80559  12.178   6.834  13.601
26221SOL    HW180560  12.088   6.843  13.569
26221SOL    HW280561  12.230   6.888  13.540
26222SOL     OW80562   0.802  10.802  12.450
26222SOL    HW180563   0.759  10.778  12.368
26222SOL    HW280564   0.730  10.816  12.511
26223SOL     OW80565   1.445   4.315   4.531
26223SOL    HW180566   1.396   4.326   4.612
26223SOL    HW280567   1.424   4.226   4.502
26224SOL     OW80568   1.898  10.365   7.216
26224SOL    HW180569   1.946  10.378   7.298
26224SOL    HW280570   1.806  10.360   7.243
26225SOL     OW80571  13.186   0.402  12.218
26225SOL    HW180572  13.185   0.381  12.311
26225SOL    HW280573  13.147   0.325  12.175
26226SOL     OW80574   9.197   7.728  10.912
26226SOL    HW180575   9.220   7.666  10.980
26226SOL    HW280576   9.119   7.690  10.870
26227SOL     OW80577   0.117  10.764   9.545
26227SOL    HW180578   0.057  10.779   9.472
26227SOL    HW280579   0.099  10.673   9.571
26228SOL     OW80580   6.919  11.877  13.083
26228SOL    HW180581   6.846  11.822  13.109
26228SOL    HW280582   6.980  11.872  13.157
26229SOL     OW80583  11.466   3.882  12.705
26229SOL    HW180584  11.399   3.930  12.656
26229SOL    HW280585  11.437   3.791  12.704
26230SOL     OW80586   3.970  11.877  12.729
26230SOL    HW180587   4.021  11.954  12.704
26230SOL    HW280588   3.981  11.870  12.824
26231SOL     OW80589   4.642  10.833   5.212
26231SOL    HW180590   4.607  10.793   5.133
26231SOL    HW280591   4.704  10.769   5.247
26232SOL     OW80592   3.713   2.666   4.876
26232SOL    HW180593   3.640   2.659   4.939
26232SOL    HW280594   3.702   2.590   4.818
26233SOL     OW80595   5.475   5.757   7.683
26233SOL    HW180596   5.524   5.675   7.677
26233SOL    HW280597   5.427   5.751   7.766
26234SOL     OW80598   5.347  12.601  13.312
26234SOL    HW180599   5.291  12.572  13.384
26234SOL    HW280600   5.379  12.686  13.339
26235SOL     OW80601   3.692  13.416   8.503
26235SOL    HW180602   3.625  13.359   8.542
26235SOL    HW280603   3.658  13.504   8.513
26236SOL     OW80604   7.166   2.808   4.933
26236SOL    HW180605   7.183   2.736   4.994
26236SOL    HW280606   7.184   2.771   4.846
26237SOL     OW80607   2.631   5.544  10.900
26237SOL    HW180608   2.713   5.571  10.942
26237SOL    HW280609   2.605   5.466  10.948
26238SOL     OW80610   4.155  14.528   0.784
26238SOL    HW180611   4.168  14.434   0.785
26238SOL    HW280612   4.170  14.554   0.693
26239SOL     OW80613  13.238   5.807   2.566
26239SOL    HW180614  13.248   5.891   2.610
26239SOL    HW280615  13.187   5.827   2.488
26240SOL     OW80616   7.011  14.141  14.548
26240SOL    HW180617   7.047  14.158  14.461
26240SOL    HW280618   6.916  14.136  14.534
26241SOL     OW80619  12.874   8.605   3.626
26241SOL    HW180620  12.935   8.668   3.589
26241SOL    HW280621  12.852   8.546   3.554
26242SOL     OW80622   1.571   2.943   3.426
26242SOL    HW180623   1.544   3.035   3.420
26242SOL    HW280624   1.593   2.919   3.336
26243SOL     OW80625   7.578   3.537   0.582
26243SOL    HW180626   7.621   3.509   0.502
26243SOL    HW280627   7.637   3.601   0.620
26244SOL     OW80628   3.227   2.390   2.456
26244SOL    HW180629   3.287   2.328   2.418
26244SOL    HW280630   3.208   2.355   2.544
26245SOL     OW80631   0.520  11.942   5.274
26245SOL    HW180632   0.528  11.979   5.362
26245SOL    HW280633   0.554  11.853   5.283
26246SOL     OW80634  14.585   8.843  12.791
26246SOL    HW180635  14.674   8.831  12.825
26246SOL    HW280636  14.594   8.832  12.696
26247SOL     OW80637   4.554   2.760   9.311
26247SOL    HW180638   4.526   2.824   9.246
26247SOL    HW280639   4.541   2.803   9.395
26248SOL     OW80640  12.740   8.063  13.374
26248SOL    HW180641  12.678   8.005  13.419
26248SOL    HW280642  12.697   8.085  13.292
26249SOL     OW80643   8.428  11.770   0.237
26249SOL    HW180644   8.369  11.766   0.162
26249SOL    HW280645   8.487  11.843   0.217
26250SOL     OW80646   1.746  11.157  10.001
26250SOL    HW180647   1.744  11.062   9.991
26250SOL    HW280648   1.838  11.177  10.019
26251SOL     OW80649  12.559  14.067   7.861
26251SOL    HW180650  12.546  13.974   7.880
26251SOL    HW280651  12.471  14.105   7.865
26252SOL     OW80652   7.149  12.446  13.612
26252SOL    HW180653   7.244  12.445  13.601
26252SOL    HW280654   7.120  12.523  13.563
26253SOL     OW80655   9.683  14.300   2.840
26253SOL    HW180656   9.719  14.353   2.769
26253SOL    HW280657   9.690  14.355   2.918
26254SOL     OW80658   6.652   6.769  14.275
26254SOL    HW180659   6.597   6.758  14.353
26254SOL    HW280660   6.716   6.699  14.281
26255SOL     OW80661   1.905  12.164  10.596
26255SOL    HW180662   1.819  12.154  10.637
26255SOL    HW280663   1.957  12.212  10.661
26256SOL     OW80664   3.517  10.032   5.445
26256SOL    HW180665   3.610  10.015   5.429
26256SOL    HW280666   3.471   9.962   5.398
26257SOL     OW80667   2.150   9.026   8.403
26257SOL    HW180668   2.114   8.999   8.319
26257SOL    HW280669   2.087   8.994   8.467
26258SOL     OW80670   9.303  13.805  13.559
26258SOL    HW180671   9.208  13.796  13.550
26258SOL    HW280672   9.314  13.848  13.644
26259SOL     OW80673   8.890   3.773  10.614
26259SOL    HW180674   8.875   3.683  10.644
26259SOL    HW280675   8.985   3.779  10.604
26260SOL     OW80676   9.307  13.284   9.150
26260SOL    HW180677   9.245  13.335   9.203
26260SOL    HW280678   9.323  13.338   9.073
26261SOL     OW80679   7.163   6.840   2.661
26261SOL    HW180680   7.137   6.932   2.669
26261SOL    HW280681   7.099   6.793   2.715
26262SOL     OW80682  10.369   1.747  11.437
26262SOL    HW180683  10.453   1.776  11.403
26262SOL    HW280684  10.342   1.677  11.377
26263SOL     OW80685  14.557   0.477   7.675
26263SOL    HW180686  14.463   0.460   7.669
26263SOL    HW280687  14.597   0.410   7.620
26264SOL     OW80688  12.764   6.983  11.922
26264SOL    HW180689  12.690   7.042  11.936
26264SOL    HW280690  12.734   6.898  11.954
26265SOL     OW80691  13.881   9.941   2.097
26265SOL    HW180692  13.948   9.949   2.165
26265SOL    HW280693  13.893   9.853   2.062
26266SOL     OW80694  11.584   3.563   1.400
26266SOL    HW180695  11.677   3.582   1.412
26266SOL    HW280696  11.583   3.475   1.361
26267SOL     OW80697   1.278   1.525   6.513
26267SOL    HW180698   1.294   1.441   6.558
26267SOL    HW280699   1.365   1.560   6.495
26268SOL     OW80700   4.579   6.299   6.905
26268SOL    HW180701   4.647   6.352   6.947
26268SOL    HW280702   4.628   6.240   6.848
26269SOL     OW80703   6.462   3.636   4.205
26269SOL    HW180704   6.464   3.593   4.291
26269SOL    HW280705   6.514   3.715   4.216
26270SOL     OW80706   3.909   7.164  13.445
26270SOL    HW180707   3.875   7.182  13.533
26270SOL    HW280708   3.831   7.146  13.392
26271SOL     OW80709  13.065  11.940   5.089
26271SOL    HW180710  13.114  11.889   5.155
26271SOL    HW280711  13.133  11.979   5.034
26272SOL     OW80712  13.134  14.160   4.221
26272SOL    HW180713  13.213  14.173   4.274
26272SOL    HW280714  13.151  14.209   4.141
26273SOL     OW80715   5.179   0.096   0.307
26273SOL    HW180716   5.230   0.101   0.387
26273SOL    HW280717   5.234   0.137   0.241
26274SOL     OW80718   7.156  11.856   8.429
26274SOL    HW180719   7.098  11.888   8.498
26274SOL    HW280720   7.098  11.834   8.357
26275SOL     OW80721   4.118   6.448  13.982
26275SOL    HW180722   4.162   6.509  14.042
26275SOL    HW280723   4.137   6.361  14.019
26276SOL     OW80724   2.985   6.944   0.234
26276SOL    HW180725   3.069   6.946   0.280
26276SOL    HW280726   3.006   6.916   0.145
26277SOL     OW80727  13.429   8.594   7.635
26277SOL    HW180728  13.421   8.505   7.666
26277SOL    HW280729  13.359   8.604   7.570
26278SOL     OW80730  14.264   6.285   6.862
26278SOL    HW180731  14.282   6.350   6.930
26278SOL    HW280732  14.326   6.305   6.792
26279SOL     OW80733  13.710   5.970   8.500
26279SOL    HW180734  13.648   5.905   8.467
26279SOL    HW280735  13.796   5.930   8.485
26280SOL     OW80736   9.327   3.349   9.939
26280SOL    HW180737   9.415   3.387   9.944
26280SOL    HW280738   9.271   3.422   9.911
26281SOL     OW80739   1.395   9.554  12.342
26281SOL    HW180740   1.392   9.547  12.437
26281SOL    HW280741   1.308   9.586  12.318
26282SOL     OW80742   3.346  12.886  12.364
26282SOL    HW180743   3.354  12.840  12.280
26282SOL    HW280744   3.385  12.826  12.428
26283SOL     OW80745   1.449   2.740   3.816
26283SOL    HW180746   1.409   2.760   3.900
26283SOL    HW280747   1.433   2.646   3.804
26284SOL     OW80748   3.440  13.060   6.776
26284SOL    HW180749   3.507  12.991   6.783
26284SOL    HW280750   3.480  13.136   6.818
26285SOL     OW80751  13.982   9.242   8.070
26285SOL    HW180752  13.907   9.232   8.012
26285SOL    HW280753  14.017   9.153   8.080
26286SOL     OW80754  11.516   4.038   4.091
26286SOL    HW180755  11.535   4.075   4.005
26286SOL    HW280756  11.574   3.961   4.097
26287SOL     OW80757  10.161  10.215  14.613
26287SOL    HW180758  10.178  10.211  14.519
26287SOL    HW280759  10.111  10.295  14.626
26288SOL     OW80760   0.203  14.345  10.603
26288SOL    HW180761   0.256  14.339  10.524
26288SOL    HW280762   0.177  14.254  10.621
26289SOL     OW80763   2.960   4.145   5.903
26289SOL    HW180764   2.949   4.106   5.990
26289SOL    HW280765   2.876   4.187   5.885
26290SOL     OW80766   5.214   9.736  14.243
26290SOL    HW180767   5.223   9.767  14.153
26290SOL    HW280768   5.276   9.664  14.250
26291SOL     OW80769  13.414   0.982  10.619
26291SOL    HW180770  13.347   1.043  10.590
26291SOL    HW280771  13.428   0.923  10.544
26292SOL     OW80772   6.739   6.945  11.682
26292SOL    HW180773   6.667   6.949  11.745
26292SOL    HW280774   6.731   6.858  11.643
26293SOL     OW80775  10.875  13.094   1.329
26293SOL    HW180776  10.822  13.148   1.271
26293SOL    HW280777  10.821  13.017   1.346
26294SOL     OW80778   3.709   9.995   6.970
26294SOL    HW180779   3.629   9.945   6.988
26294SOL    HW280780   3.680  10.067   6.915
26295SOL     OW80781   5.482   7.739  12.987
26295SOL    HW180782   5.500   7.647  12.968
26295SOL    HW280783   5.402   7.738  13.039
26296SOL     OW80784   5.738   8.254   7.087
26296SOL    HW180785   5.782   8.325   7.135
26296SOL    HW280786   5.731   8.183   7.151
26297SOL     OW80787   4.297   7.396  14.636
26297SOL    HW180788   4.392   7.404  14.642
26297SOL    HW280789   4.268   7.380  14.726
26298SOL     OW80790  12.286   4.979   6.166
26298SOL    HW180791  12.226   4.986   6.092
26298SOL    HW280792  12.345   5.053   6.156
26299SOL     OW80793   9.925  10.388   3.067
26299SOL    HW180794  10.016  10.374   3.039
26299SOL    HW280795   9.873  10.348   2.997
26300SOL     OW80796   0.701   3.120  11.258
26300SOL    HW180797   0.684   3.207  11.221
26300SOL    HW280798   0.784   3.094  11.219
26301SOL     OW80799   3.644  13.055  13.063
26301SOL    HW180800   3.683  13.130  13.018
26301SOL    HW280801   3.559  13.043  13.020
26302SOL     OW80802   1.812   2.790   1.358
26302SOL    HW180803   1.858   2.731   1.298
26302SOL    HW280804   1.735   2.740   1.385
26303SOL     OW80805   4.588  14.349   2.426
26303SOL    HW180806   4.659  14.376   2.368
26303SOL    HW280807   4.604  14.256   2.442
26304SOL     OW80808   0.409   3.238   5.270
26304SOL    HW180809   0.340   3.208   5.330
26304SOL    HW280810   0.369   3.311   5.222
26305SOL     OW80811  14.760   6.768   4.911
26305SOL    HW180812  14.678   6.812   4.930
26305SOL    HW280813  14.803   6.822   4.845
26306SOL     OW80814   7.373   4.745   7.443
26306SOL    HW180815   7.377   4.726   7.536
26306SOL    HW280816   7.309   4.817   7.436
26307SOL     OW80817   1.778  14.356   4.034
26307SOL    HW180818   1.711  14.295   4.003
26307SOL    HW280819   1.732  14.439   4.046
26308SOL     OW80820  14.060   4.350  14.599
26308SOL    HW180821  14.040   4.411  14.670
26308SOL    HW280822  14.098   4.274  14.644
26309SOL     OW80823   4.142   8.403   1.468
26309SOL    HW180824   4.114   8.465   1.400
26309SOL    HW280825   4.061   8.363   1.499
26310SOL     OW80826   3.796  10.063  14.600
26310SOL    HW180827   3.826  10.058  14.691
26310SOL    HW280828   3.794   9.972  14.571
26311SOL     OW80829   6.015   0.385   0.639
26311SOL    HW180830   6.093   0.430   0.670
26311SOL    HW280831   5.988   0.434   0.561
26312SOL     OW80832  14.076  10.386   7.941
26312SOL    HW180833  14.061  10.305   7.990
26312SOL    HW280834  14.168  10.382   7.915
26313SOL     OW80835   3.916   0.377  10.855
26313SOL    HW180836   3.996   0.339  10.818
26313SOL    HW280837   3.898   0.454  10.801
26314SOL     OW80838  13.812   3.448   3.976
26314SOL    HW180839  13.719   3.429   3.967
26314SOL    HW280840  13.826   3.526   3.924
26315SOL     OW80841   7.350   8.454   7.554
26315SOL    HW180842   7.294   8.398   7.608
26315SOL    HW280843   7.403   8.392   7.503
26316SOL     OW80844   8.794  14.760  13.492
26316SOL    HW180845   8.756  14.710  13.420
26316SOL    HW280846   8.732  14.832  13.506
26317SOL     OW80847   6.873   5.878   2.761
26317SOL    HW180848   6.943   5.917   2.709
26317SOL    HW280849   6.885   5.913   2.849
26318SOL     OW80850  13.396   8.020  11.587
26318SOL    HW180851  13.462   8.031  11.655
26318SOL    HW280852  13.316   7.998  11.633
26319SOL     OW80853   8.800   4.601  11.182
26319SOL    HW180854   8.878   4.546  11.175
26319SOL    HW280855   8.831   4.680  11.226
26320SOL     OW80856   9.666   6.197  13.382
26320SOL    HW180857   9.596   6.140  13.411
26320SOL    HW280858   9.659   6.275  13.437
26321SOL     OW80859  10.318  14.579   4.468
26321SOL    HW180860  10.247  14.582   4.403
26321SOL    HW280861  10.313  14.492   4.506
26322SOL     OW80862   6.858   3.065   9.614
26322SOL    HW180863   6.831   3.063   9.522
26322SOL    HW280864   6.831   3.151   9.645
26323SOL     OW80865  12.274  11.116   6.923
26323SOL    HW180866  12.223  11.116   6.842
26323SOL    HW280867  12.328  11.194   6.918
26324SOL     OW80868   1.992   8.550   7.279
26324SOL    HW180869   2.072   8.562   7.227
26324SOL    HW280870   1.995   8.459   7.307
26325SOL     OW80871   3.429   1.790   3.174
26325SOL    HW180872   3.370   1.724   3.210
26325SOL    HW280873   3.376   1.837   3.109
26326SOL     OW80874   5.948   7.585   8.589
26326SOL    HW180875   6.032   7.606   8.548
26326SOL    HW280876   5.910   7.671   8.609
26327SOL     OW80877   0.157   5.495  14.580
26327SOL    HW180878   0.204   5.569  14.541
26327SOL    HW280879   0.227   5.439  14.614
26328SOL     OW80880   4.119  10.793   5.326
26328SOL    HW180881   4.138  10.887   5.323
26328SOL    HW280882   4.027  10.789   5.352
26329SOL     OW80883   7.909   5.515   1.485
26329SOL    HW180884   7.883   5.423   1.492
26329SOL    HW280885   7.827   5.562   1.467
26330SOL     OW80886   3.359   1.229   2.292
26330SOL    HW180887   3.372   1.146   2.247
26330SOL    HW280888   3.407   1.293   2.240
26331SOL     OW80889   3.349   2.134  11.604
26331SOL    HW180890   3.401   2.082  11.665
26331SOL    HW280891   3.405   2.207  11.580
26332SOL     OW80892   9.111  10.389  11.178
26332SOL    HW180893   9.079  10.437  11.101
26332SOL    HW280894   9.038  10.391  11.240
26333SOL     OW80895  11.875  14.142   8.139
26333SOL    HW180896  11.913  14.131   8.227
26333SOL    HW280897  11.816  14.068   8.128
26334SOL     OW80898  10.901   7.176   1.257
26334SOL    HW180899  10.964   7.104   1.268
26334SOL    HW280900  10.946   7.238   1.199
26335SOL     OW80901   0.840  11.458   9.157
26335SOL    HW180902   0.754  11.437   9.120
26335SOL    HW280903   0.855  11.391   9.223
26336SOL     OW80904   1.704   7.687  10.447
26336SOL    HW180905   1.753   7.620  10.400
26336SOL    HW280906   1.643   7.723  10.381
26337SOL     OW80907  11.623   5.752   4.835
26337SOL    HW180908  11.583   5.685   4.891
26337SOL    HW280909  11.711   5.720   4.819
26338SOL     OW80910   2.109   1.063   7.026
26338SOL    HW180911   2.122   1.149   7.066
26338SOL    HW280912   2.119   1.077   6.932
26339SOL     OW80913   4.107   1.465   5.016
26339SOL    HW180914   4.023   1.509   5.009
26339SOL    HW280915   4.160   1.501   4.945
26340SOL     OW80916  12.964   8.679   8.612
26340SOL    HW180917  12.972   8.627   8.692
26340SOL    HW280918  12.909   8.625   8.554
26341SOL     OW80919   1.411   5.489   9.592
26341SOL    HW180920   1.405   5.393   9.594
26341SOL    HW280921   1.456   5.508   9.510
26342SOL     OW80922   3.868  12.648   9.114
26342SOL    HW180923   3.814  12.712   9.160
26342SOL    HW280924   3.879  12.576   9.176
26343SOL     OW80925  11.243   1.416   7.947
26343SOL    HW180926  11.274   1.332   7.982
26343SOL    HW280927  11.298   1.432   7.870
26344SOL     OW80928   0.914  11.028  10.366
26344SOL    HW180929   0.988  11.076  10.329
26344SOL    HW280930   0.845  11.094  10.376
26345SOL     OW80931  13.136  10.272   0.143
26345SOL    HW180932  13.067  10.258   0.078
26345SOL    HW280933  13.170  10.185   0.162
26346SOL     OW80934   1.871   5.309  14.513
26346SOL    HW180935   1.796   5.368  14.509
26346SOL    HW280936   1.843   5.240  14.574
26347SOL     OW80937   7.663   6.750   9.653
26347SOL    HW180938   7.590   6.714   9.704
26347SOL    HW280939   7.625   6.824   9.606
26348SOL     OW80940   1.737   1.523   4.768
26348SOL    HW180941   1.755   1.606   4.724
26348SOL    HW280942   1.812   1.512   4.827
26349SOL     OW80943  10.712  14.323   6.198
26349SOL    HW180944  10.754  14.318   6.284
26349SOL    HW280945  10.785  14.326   6.136
26350SOL     OW80946   9.400  11.092   4.655
26350SOL    HW180947   9.338  11.059   4.720
26350SOL    HW280948   9.451  11.158   4.701
26351SOL     OW80949  10.691   3.143   1.079
26351SOL    HW180950  10.634   3.084   1.029
26351SOL    HW280951  10.674   3.120   1.171
26352SOL     OW80952   5.009  12.095   7.895
26352SOL    HW180953   5.104  12.086   7.890
26352SOL    HW280954   4.991  12.182   7.858
26353SOL     OW80955   7.728   2.642   1.938
26353SOL    HW180956   7.649   2.588   1.943
26353SOL    HW280957   7.759   2.648   2.028
26354SOL     OW80958  10.657   3.260   4.815
26354SOL    HW180959  10.713   3.333   4.788
26354SOL    HW280960  10.573   3.277   4.772
26355SOL     OW80961   9.440  11.492   8.240
26355SOL    HW180962   9.436  11.587   8.250
26355SOL    HW280963   9.430  11.477   8.146
26356SOL     OW80964   4.688   2.275  10.273
26356SOL    HW180965   4.746   2.267  10.197
26356SOL    HW280966   4.600   2.273  10.236
26357SOL     OW80967  12.077   9.206   5.748
26357SOL    HW180968  12.132   9.273   5.708
26357SOL    HW280969  12.108   9.201   5.838
26358SOL     OW80970   4.173   8.232   7.080
26358SOL    HW180971   4.176   8.181   6.999
26358SOL    HW280972   4.082   8.258   7.089
26359SOL     OW80973   1.875  10.314  13.517
26359SOL    HW180974   1.903  10.228  13.485
26359SOL    HW280975   1.779  10.308  13.520
26360SOL     OW80976  11.569   1.456   6.951
26360SOL    HW180977  11.575   1.551   6.939
26360SOL    HW280978  11.479   1.442   6.982
26361SOL     OW80979  12.848   2.711   6.002
26361SOL    HW180980  12.866   2.792   5.954
26361SOL    HW280981  12.866   2.733   6.093
26362SOL     OW80982   0.706   1.126   9.468
26362SOL    HW180983   0.779   1.185   9.486
26362SOL    HW280984   0.716   1.055   9.531
26363SOL     OW80985  13.781  14.471   0.651
26363SOL    HW180986  13.780  14.469   0.746
26363SOL    HW280987  13.813  14.559   0.629
26364SOL     OW80988   9.063   6.753   1.176
26364SOL    HW180989   9.134   6.724   1.233
26364SOL    HW280990   9.107   6.785   1.097
26365SOL     OW80991   2.732   4.004  12.402
26365SOL    HW180992   2.733   4.033  12.311
26365SOL    HW280993   2.824   4.007  12.429
26366SOL     OW80994   7.193  10.098   9.275
26366SOL    HW180995   7.255  10.029   9.299
26366SOL    HW280996   7.246  10.178   9.272
26367SOL     OW80997   5.691  13.766   3.927
26367SOL    HW180998   5.686  13.838   3.863
26367SOL    HW280999   5.748  13.800   3.996
26368SOL     OW81000   2.410   0.101   8.758
26368SOL    HW181001   2.369   0.044   8.823
26368SOL    HW281002   2.487   0.052   8.729
26369SOL     OW81003   8.719  12.212   2.083
26369SOL    HW181004   8.718  12.254   1.997
26369SOL    HW281005   8.792  12.253   2.129
26370SOL     OW81006   5.748   0.428  11.082
26370SOL    HW181007   5.743   0.396  10.992
26370SOL    HW281008   5.744   0.349  11.136
26371SOL     OW81009   5.130   6.854   8.230
26371SOL    HW181010   5.120   6.774   8.179
26371SOL    HW281011   5.110   6.827   8.320
26372SOL     OW81012  14.436  13.584   3.941
26372SOL    HW181013  14.345  13.586   3.912
26372SOL    HW281014  14.485  13.555   3.864
26373SOL     OW81015   4.658   0.658  11.354
26373SOL    HW181016   4.566   0.683  11.353
26373SOL    HW281017   4.685   0.661  11.262
26374SOL     OW81018   0.312   7.586  13.675
26374SOL    HW181019   0.224   7.621  13.687
26374SOL    HW281020   0.300   7.506  13.624
26375SOL     OW81021   3.478  11.947   0.951
26375SOL    HW181022   3.446  12.032   0.920
26375SOL    HW281023   3.422  11.926   1.025
26376SOL     OW81024   0.881  10.246   7.697
26376SOL    HW181025   0.789  10.270   7.704
26376SOL    HW281026   0.909  10.234   7.788
26377SOL     OW81027   3.687   4.919   3.746
26377SOL    HW181028   3.741   4.876   3.679
26377SOL    HW281029   3.680   4.855   3.816
26378SOL     OW81030  10.980  11.847   8.481
26378SOL    HW181031  10.973  11.911   8.410
26378SOL    HW281032  10.956  11.763   8.441
26379SOL     OW81033   2.499   4.656  14.275
26379SOL    HW181034   2.465   4.667  14.363
26379SOL    HW281035   2.464   4.731  14.226
26380SOL     OW81036  11.657   1.457   9.899
26380SOL    HW181037  11.649   1.552   9.903
26380SOL    HW281038  11.568   1.425   9.911
26381SOL     OW81039  13.014   9.410   5.066
26381SOL    HW181040  13.000   9.504   5.053
26381SOL    HW281041  12.989   9.370   4.982
26382SOL     OW81042  10.417   9.460  10.573
26382SOL    HW181043  10.329   9.450  10.610
26382SOL    HW281044  10.403   9.505  10.489
26383SOL     OW81045  14.159   3.546  10.909
26383SOL    HW181046  14.074   3.532  10.867
26383SOL    HW281047  14.137   3.563  11.001
26384SOL     OW81048   1.611   9.083   7.983
26384SOL    HW181049   1.679   9.131   8.031
26384SOL    HW281050   1.659   9.029   7.921
26385SOL     OW81051   1.490   8.251   8.509
26385SOL    HW181052   1.421   8.217   8.567
26385SOL    HW281053   1.490   8.191   8.434
26386SOL     OW81054   6.856  13.435   1.409
26386SOL    HW181055   6.785  13.497   1.427
26386SOL    HW281056   6.815  13.367   1.356
26387SOL     OW81057  10.366  14.393   2.905
26387SOL    HW181058  10.381  14.393   2.811
26387SOL    HW281059  10.278  14.430   2.915
26388SOL     OW81060  10.415  11.447   6.356
26388SOL    HW181061  10.357  11.447   6.279
26388SOL    HW281062  10.468  11.526   6.345
26389SOL     OW81063   3.615  11.527   8.531
26389SOL    HW181064   3.703  11.543   8.500
26389SOL    HW281065   3.620  11.443   8.577
26390SOL     OW81066   8.741   6.372   7.353
26390SOL    HW181067   8.822   6.325   7.337
26390SOL    HW281068   8.681   6.340   7.286
26391SOL     OW81069   0.867  11.290  11.437
26391SOL    HW181070   0.878  11.325  11.349
26391SOL    HW281071   0.899  11.200  11.432
26392SOL     OW81072  10.547   6.138  11.884
26392SOL    HW181073  10.602   6.213  11.861
26392SOL    HW281074  10.511   6.160  11.970
26393SOL     OW81075  10.739   8.427   0.590
26393SOL    HW181076  10.760   8.439   0.683
26393SOL    HW281077  10.817   8.460   0.545
26394SOL     OW81078   9.584   3.428   0.608
26394SOL    HW181079   9.510   3.486   0.592
26394SOL    HW281080   9.660   3.475   0.576
26395SOL     OW81081  14.014  12.761   5.622
26395SOL    HW181082  14.022  12.669   5.599
26395SOL    HW281083  13.935  12.791   5.577
26396SOL     OW81084   9.299   3.525   0.311
26396SOL    HW181085   9.305   3.537   0.405
26396SOL    HW281086   9.337   3.439   0.295
26397SOL     OW81087   9.491   4.893   6.615
26397SOL    HW181088   9.415   4.869   6.563
26397SOL    HW281089   9.464   4.972   6.662
26398SOL     OW81090   0.330  14.656  13.347
26398SOL    HW181091   0.237  14.679  13.343
26398SOL    HW281092   0.336  14.588  13.414
26399SOL     OW81093   1.615   5.868   5.103
26399SOL    HW181094   1.540   5.818   5.136
26399SOL    HW281095   1.579   5.955   5.085
26400SOL     OW81096  10.869  10.985   2.096
26400SOL    HW181097  10.960  10.995   2.123
26400SOL    HW281098  10.872  10.991   2.000
26401SOL     OW81099  11.176   7.642   1.635
26401SOL    HW181100  11.116   7.610   1.568
26401SOL    HW281101  11.263   7.622   1.601
26402SOL     OW81102   3.599   2.015   5.741
26402SOL    HW181103   3.669   1.970   5.789
26402SOL    HW281104   3.521   1.963   5.758
26403SOL     OW81105  13.984   8.517   2.460
26403SOL    HW181106  14.001   8.428   2.491
26403SOL    HW281107  13.922   8.553   2.523
26404SOL     OW81108  11.004   9.000   9.046
26404SOL    HW181109  10.980   8.999   9.138
26404SOL    HW281110  10.973   9.084   9.013
26405SOL     OW81111  14.261   5.395   6.806
26405SOL    HW181112  14.311   5.370   6.729
26405SOL    HW281113  14.203   5.321   6.823
26406SOL     OW81114   6.229  11.651  13.709
26406SOL    HW181115   6.168  11.615  13.645
26406SOL    HW281116   6.307  11.596  13.700
26407SOL     OW81117   5.025  10.054   8.722
26407SOL    HW181118   5.109  10.011   8.705
26407SOL    HW281119   4.959   9.987   8.699
26408SOL     OW81120   0.348   6.749   8.244
26408SOL    HW181121   0.344   6.784   8.155
26408SOL    HW281122   0.256   6.732   8.266
26409SOL     OW81123  12.491   5.225   9.073
26409SOL    HW181124  12.556   5.181   9.019
26409SOL    HW281125  12.516   5.317   9.072
26410SOL     OW81126   0.974   8.338   9.236
26410SOL    HW181127   0.977   8.246   9.260
26410SOL    HW281128   0.895   8.346   9.183
26411SOL     OW81129   3.695   7.204   3.775
26411SOL    HW181130   3.673   7.124   3.728
26411SOL    HW281131   3.732   7.175   3.858
26412SOL     OW81132   2.270   0.703   2.527
26412SOL    HW181133   2.297   0.669   2.442
26412SOL    HW281134   2.187   0.746   2.511
26413SOL     OW81135   5.806   4.916  11.757
26413SOL    HW181136   5.867   4.863  11.706
26413SOL    HW281137   5.803   4.874  11.843
26414SOL     OW81138   8.032   8.493  10.463
26414SOL    HW181139   8.120   8.467  10.435
26414SOL    HW281140   8.043   8.579  10.502
26415SOL     OW81141   0.722  11.925  13.673
26415SOL    HW181142   0.658  11.885  13.613
26415SOL    HW281143   0.673  11.996  13.715
26416SOL     OW81144  10.358  12.161   5.700
26416SOL    HW181145  10.380  12.077   5.660
26416SOL    HW281146  10.299  12.202   5.638
26417SOL     OW81147   9.051  13.059   9.491
26417SOL    HW181148   9.037  13.150   9.518
26417SOL    HW281149   9.038  13.008   9.571
26418SOL     OW81150   0.324  11.061  14.159
26418SOL    HW181151   0.361  11.145  14.131
26418SOL    HW281152   0.378  10.995  14.114
26419SOL     OW81153   8.582   0.672   5.664
26419SOL    HW181154   8.633   0.658   5.584
26419SOL    HW281155   8.640   0.640   5.734
26420SOL     OW81156   7.932  12.485   8.485
26420SOL    HW181157   7.960  12.571   8.453
26420SOL    HW281158   8.006  12.454   8.537
26421SOL     OW81159   5.958  11.308   7.872
26421SOL    HW181160   5.892  11.376   7.886
26421SOL    HW281161   5.977  11.275   7.960
26422SOL     OW81162   2.904   4.541   7.437
26422SOL    HW181163   2.927   4.595   7.362
26422SOL    HW281164   2.902   4.601   7.511
26423SOL     OW81165  13.774   8.214  10.742
26423SOL    HW181166  13.778   8.169  10.827
26423SOL    HW281167  13.729   8.152  10.685
26424SOL     OW81168   3.862   0.305   8.679
26424SOL    HW181169   3.941   0.251   8.676
26424SOL    HW281170   3.823   0.296   8.593
26425SOL     OW81171   1.554   2.695   8.973
26425SOL    HW181172   1.552   2.623   9.036
26425SOL    HW281173   1.606   2.763   9.017
26426SOL     OW81174   6.756   1.792   0.532
26426SOL    HW181175   6.765   1.822   0.442
26426SOL    HW281176   6.846   1.779   0.563
26427SOL     OW81177  11.339   5.969   5.087
26427SOL    HW181178  11.321   5.876   5.100
26427SOL    HW281179  11.253   6.009   5.076
26428SOL     OW81180   5.211   1.659   6.163
26428SOL    HW181181   5.274   1.645   6.093
26428SOL    HW281182   5.264   1.663   6.243
26429SOL     OW81183   4.075   4.752  12.905
26429SOL    HW181184   3.999   4.738  12.849
26429SOL    HW281185   4.098   4.665  12.936
26430SOL     OW81186  10.165   5.141   7.926
26430SOL    HW181187  10.257   5.165   7.927
26430SOL    HW281188  10.135   5.166   7.838
26431SOL     OW81189  12.579   8.874   5.676
26431SOL    HW181190  12.590   8.943   5.611
26431SOL    HW281191  12.488   8.882   5.705
26432SOL     OW81192   2.855   2.320  12.390
26432SOL    HW181193   2.860   2.322  12.485
26432SOL    HW281194   2.772   2.277  12.370
26433SOL     OW81195   2.482  13.647   4.311
26433SOL    HW181196   2.415  13.715   4.311
26433SOL    HW281197   2.482  13.613   4.401
26434SOL     OW81198   8.032   3.186   5.182
26434SOL    HW181199   8.003   3.242   5.254
26434SOL    HW281200   8.124   3.166   5.203
26435SOL     OW81201   8.755   3.986   2.131
26435SOL    HW181202   8.732   4.069   2.089
26435SOL    HW281203   8.846   3.971   2.105
26436SOL     OW81204  11.559  12.824  11.872
26436SOL    HW181205  11.579  12.867  11.788
26436SOL    HW281206  11.572  12.893  11.937
26437SOL     OW81207   6.607  13.558   5.224
26437SOL    HW181208   6.622  13.464   5.236
26437SOL    HW281209   6.512  13.568   5.225
26438SOL     OW81210   0.905   8.103   4.032
26438SOL    HW181211   0.889   8.025   4.085
26438SOL    HW281212   0.891   8.074   3.942
26439SOL     OW81213  10.110  12.943  12.646
26439SOL    HW181214  10.117  13.020  12.589
26439SOL    HW281215  10.196  12.902  12.643
26440SOL     OW81216   2.830   7.830  12.057
26440SOL    HW181217   2.814   7.869  12.143
26440SOL    HW281218   2.829   7.736  12.072
26441SOL     OW81219   7.805  11.559  14.559
26441SOL    HW181220   7.861  11.576  14.483
26441SOL    HW281221   7.783  11.645  14.593
26442SOL     OW81222   7.315  13.609   8.374
26442SOL    HW181223   7.353  13.523   8.393
26442SOL    HW281224   7.389  13.661   8.340
26443SOL     OW81225  12.409  14.589  13.578
26443SOL    HW181226  12.432  14.652  13.510
26443SOL    HW281227  12.367  14.641  13.646
26444SOL     OW81228   8.069   9.051  14.173
26444SOL    HW181229   8.123   9.009  14.240
26444SOL    HW281230   8.023   9.120  14.220
26445SOL     OW81231   9.495   5.451   9.756
26445SOL    HW181232   9.579   5.413   9.781
26445SOL    HW281233   9.516   5.540   9.728
26446SOL     OW81234   4.175  11.155   7.832
26446SOL    HW181235   4.094  11.142   7.784
26446SOL    HW281236   4.185  11.076   7.884
26447SOL     OW81237   1.252   7.043  11.944
26447SOL    HW181238   1.241   7.020  11.852
26447SOL    HW281239   1.186   7.111  11.960
26448SOL     OW81240   4.012  11.624   5.780
26448SOL    HW181241   4.009  11.589   5.691
26448SOL    HW281242   4.037  11.716   5.768
26449SOL     OW81243  14.349  14.446  11.267
26449SOL    HW181244  14.293  14.393  11.211
26449SOL    HW281245  14.416  14.386  11.300
26450SOL     OW81246  10.489  11.297   7.113
26450SOL    HW181247  10.537  11.288   7.031
26450SOL    HW281248  10.399  11.318   7.086
26451SOL     OW81249  10.765  13.678   2.198
26451SOL    HW181250  10.730  13.726   2.122
26451SOL    HW281251  10.709  13.600   2.204
26452SOL     OW81252  12.659   7.531   1.288
26452SOL    HW181253  12.664   7.610   1.235
26452SOL    HW281254  12.633   7.562   1.375
26453SOL     OW81255   2.634   8.069   9.621
26453SOL    HW181256   2.570   8.124   9.577
26453SOL    HW281257   2.604   7.980   9.605
26454SOL     OW81258   7.101   4.840  12.035
26454SOL    HW181259   7.167   4.907  12.019
26454SOL    HW281260   7.151   4.762  12.060
26455SOL     OW81261   0.639   9.012   6.803
26455SOL    HW181262   0.589   9.087   6.835
26455SOL    HW281263   0.574   8.944   6.786
26456SOL     OW81264  12.325  12.974   3.120
26456SOL    HW181265  12.340  12.990   3.213
26456SOL    HW281266  12.372  12.893   3.101
26457SOL     OW81267   5.993   1.209   4.893
26457SOL    HW181268   6.046   1.285   4.871
26457SOL    HW281269   6.053   1.135   4.890
26458SOL     OW81270   1.847   2.136   8.865
26458SOL    HW181271   1.794   2.069   8.907
26458SOL    HW281272   1.895   2.090   8.796
26459SOL     OW81273   7.246   6.134   3.471
26459SOL    HW181274   7.249   6.226   3.494
26459SOL    HW281275   7.290   6.129   3.386
26460SOL     OW81276   5.902   9.531   8.418
26460SOL    HW181277   5.996   9.519   8.406
26460SOL    HW281278   5.875   9.459   8.475
26461SOL     OW81279   7.804   4.282   1.431
26461SOL    HW181280   7.818   4.324   1.515
26461SOL    HW281281   7.872   4.216   1.425
26462SOL     OW81282   8.297   0.466   7.999
26462SOL    HW181283   8.303   0.511   7.915
26462SOL    HW281284   8.353   0.517   8.058
26463SOL     OW81285   5.481   4.317  11.185
26463SOL    HW181286   5.505   4.370  11.109
26463SOL    HW281287   5.472   4.228  11.152
26464SOL     OW81288   3.718   6.343   9.077
26464SOL    HW181289   3.803   6.310   9.047
26464SOL    HW281290   3.700   6.417   9.019
26465SOL     OW81291   5.735  10.880   8.155
26465SOL    HW181292   5.794  10.945   8.192
26465SOL    HW281293   5.696  10.923   8.079
26466SOL     OW81294  13.120  13.474   7.388
26466SOL    HW181295  13.184  13.491   7.457
26466SOL    HW281296  13.038  13.507   7.424
26467SOL     OW81297   6.946  10.648  14.578
26467SOL    HW181298   6.988  10.726  14.542
26467SOL    HW281299   6.898  10.680  14.654
26468SOL     OW81300  14.579   6.705   3.468
26468SOL    HW181301  14.637   6.770   3.508
26468SOL    HW281302  14.637   6.654   3.412
26469SOL     OW81303   4.972   9.002   9.806
26469SOL    HW181304   4.906   8.948   9.850
26469SOL    HW281305   4.946   9.092   9.826
26470SOL     OW81306   8.038  10.321  11.315
26470SOL    HW181307   8.008  10.363  11.234
26470SOL    HW281308   8.132  10.338  11.317
26471SOL     OW81309   2.388  12.993   9.597
26471SOL    HW181310   2.314  12.943   9.630
26471SOL    HW281311   2.358  13.084   9.596
26472SOL     OW81312  11.778   4.263  14.636
26472SOL    HW181313  11.717   4.213  14.582
26472SOL    HW281314  11.863   4.247  14.596
26473SOL     OW81315   7.991   7.975  13.829
26473SOL    HW181316   8.044   7.931  13.895
26473SOL    HW281317   8.052   8.030  13.781
26474SOL     OW81318   8.299   0.877   8.680
26474SOL    HW181319   8.342   0.963   8.682
26474SOL    HW281320   8.281   0.861   8.588
26475SOL     OW81321  10.265  11.671   3.568
26475SOL    HW181322  10.220  11.664   3.653
26475SOL    HW281323  10.215  11.615   3.510
26476SOL     OW81324   7.727   9.445  14.693
26476SOL    HW181325   7.755   9.506  14.624
26476SOL    HW281326   7.657   9.492  14.738
26477SOL     OW81327   2.553   1.566   6.564
26477SOL    HW181328   2.618   1.555   6.494
26477SOL    HW281329   2.491   1.494   6.552
26478SOL     OW81330  14.242   0.977   8.935
26478SOL    HW181331  14.253   1.062   8.893
26478SOL    HW281332  14.265   0.914   8.866
26479SOL     OW81333   0.317  14.676   8.794
26479SOL    HW181334   0.258  14.601   8.805
26479SOL    HW281335   0.288  14.718   8.714
26480SOL     OW81336   3.399  13.340   2.196
26480SOL    HW181337   3.400  13.255   2.152
26480SOL    HW281338   3.482  13.380   2.173
26481SOL     OW81339   9.691  14.402   7.938
26481SOL    HW181340   9.652  14.433   7.856
26481SOL    HW281341   9.736  14.321   7.915
26482SOL     OW81342   7.104   5.546   3.834
26482SOL    HW181343   7.125   5.640   3.842
26482SOL    HW281344   7.162   5.515   3.764
26483SOL     OW81345   8.523  13.368   5.755
26483SOL    HW181346   8.525  13.410   5.841
26483SOL    HW281347   8.455  13.415   5.707
26484SOL     OW81348   8.164   4.971   2.614
26484SOL    HW181349   8.239   5.031   2.614
26484SOL    HW281350   8.164   4.932   2.701
26485SOL     OW81351   7.016   4.578   5.793
26485SOL    HW181352   7.029   4.507   5.856
26485SOL    HW281353   7.097   4.582   5.744
26486SOL     OW81354   9.561  10.431   1.347
26486SOL    HW181355   9.617  10.465   1.277
26486SOL    HW281356   9.621  10.415   1.420
26487SOL     OW81357   1.912   2.331  14.329
26487SOL    HW181358   1.975   2.262  14.309
26487SOL    HW281359   1.836   2.311  14.274
26488SOL     OW81360   2.875  13.736  10.867
26488SOL    HW181361   2.792  13.777  10.845
26488SOL    HW281362   2.941  13.798  10.836
26489SOL     OW81363  11.143  10.057   7.505
26489SOL    HW181364  11.127   9.967   7.534
26489SOL    HW281365  11.072  10.075   7.444
26490SOL     OW81366   7.492   6.356  13.568
26490SOL    HW181367   7.495   6.329  13.476
26490SOL    HW281368   7.461   6.446  13.566
26491SOL     OW81369   5.321   6.467   6.339
26491SOL    HW181370   5.308   6.391   6.395
26491SOL    HW281371   5.285   6.441   6.254
26492SOL     OW81372  14.198   3.738   3.981
26492SOL    HW181373  14.177   3.775   4.067
26492SOL    HW281374  14.115   3.739   3.934
26493SOL     OW81375  10.077  14.622   9.628
26493SOL    HW181376  10.024  14.613   9.549
26493SOL    HW281377  10.143  14.553   9.622
26494SOL     OW81378   0.235  10.973  11.448
26494SOL    HW181379   0.274  10.984  11.534
26494SOL    HW281380   0.200  10.884  11.448
26495SOL     OW81381   5.807  11.997   5.231
26495SOL    HW181382   5.771  11.996   5.142
26495SOL    HW281383   5.825  11.905   5.250
26496SOL     OW81384   1.282   0.616  12.480
26496SOL    HW181385   1.358   0.560  12.499
26496SOL    HW281386   1.235   0.621  12.563
26497SOL     OW81387   6.615  13.092  14.088
26497SOL    HW181388   6.574  13.071  14.004
26497SOL    HW281389   6.550  13.070  14.154
26498SOL     OW81390  13.101   9.975  14.363
26498SOL    HW181391  13.039  10.042  14.336
26498SOL    HW281392  13.050   9.916  14.419
26499SOL     OW81393   9.352  12.536   7.513
26499SOL    HW181394   9.278  12.476   7.509
26499SOL    HW281395   9.413  12.494   7.573
26500SOL     OW81396   1.994   0.105   2.179
26500SOL    HW181397   1.926   0.169   2.200
26500SOL    HW281398   1.963   0.024   2.219
26501SOL     OW81399  13.510  11.930   0.941
26501SOL    HW181400  13.563  11.856   0.912
26501SOL    HW281401  13.480  11.905   1.028
26502SOL     OW81402   8.480   3.460  11.594
26502SOL    HW181403   8.414   3.529  11.596
26502SOL    HW281404   8.554   3.499  11.549
26503SOL     OW81405   7.652  12.781   8.515
26503SOL    HW181406   7.619  12.699   8.479
26503SOL    HW281407   7.574  12.833   8.533
26504SOL     OW81408   4.241   8.912  13.335
26504SOL    HW181409   4.246   8.992  13.388
26504SOL    HW281410   4.202   8.940  13.253
26505SOL     OW81411   1.160  11.784   5.243
26505SOL    HW181412   1.243  11.830   5.257
26505SOL    HW281413   1.107  11.845   5.193
26506SOL     OW81414   6.009   7.763   9.083
26506SOL    HW181415   6.050   7.845   9.055
26506SOL    HW281416   6.065   7.694   9.047
26507SOL     OW81417   6.019   3.945  13.502
26507SOL    HW181418   6.063   3.937  13.587
26507SOL    HW281419   6.014   3.855  13.470
26508SOL     OW81420   6.225   2.773   3.099
26508SOL    HW181421   6.278   2.814   3.030
26508SOL    HW281422   6.266   2.802   3.181
26509SOL     OW81423  10.257  12.594   1.085
26509SOL    HW181424  10.195  12.647   1.035
26509SOL    HW281425  10.311  12.552   1.018
26510SOL     OW81426   0.088   7.627   6.047
26510SOL    HW181427   0.177   7.594   6.064
26510SOL    HW281428   0.101   7.706   5.995
26511SOL     OW81429   3.050   8.483  14.502
26511SOL    HW181430   3.078   8.499  14.592
26511SOL    HW281431   3.127   8.502  14.449
26512SOL     OW81432  10.788  13.133  10.519
26512SOL    HW181433  10.867  13.178  10.549
26512SOL    HW281434  10.725  13.203  10.501
26513SOL     OW81435   7.990   6.180   2.541
26513SOL    HW181436   7.906   6.135   2.552
26513SOL    HW281437   8.025   6.146   2.459
26514SOL     OW81438   1.624   8.319  14.624
26514SOL    HW181439   1.539   8.333  14.665
26514SOL    HW281440   1.661   8.406  14.615
26515SOL     OW81441   4.154   9.195   4.407
26515SOL    HW181442   4.199   9.211   4.491
26515SOL    HW281443   4.071   9.241   4.416
26516SOL     OW81444   0.337   8.608  14.188
26516SOL    HW181445   0.355   8.543  14.257
26516SOL    HW281446   0.242   8.620  14.191
26517SOL     OW81447   8.146  12.202  14.739
26517SOL    HW181448   8.087  12.254  14.685
26517SOL    HW281449   8.181  12.263  14.804
26518SOL     OW81450   6.360   1.092   7.986
26518SOL    HW181451   6.345   1.170   8.039
26518SOL    HW281452   6.391   1.126   7.902
26519SOL     OW81453  14.428   8.935  13.012
26519SOL    HW181454  14.413   9.021  12.975
26519SOL    HW281455  14.462   8.883  12.939
26520SOL     OW81456   5.578  12.106   4.288
26520SOL    HW181457   5.535  12.093   4.204
26520SOL    HW281458   5.512  12.079   4.353
26521SOL     OW81459   8.487   6.353  12.968
26521SOL    HW181460   8.544   6.313  12.903
26521SOL    HW281461   8.399   6.334  12.938
26522SOL     OW81462   6.335   0.817  10.079
26522SOL    HW181463   6.334   0.910  10.057
26522SOL    HW281464   6.293   0.774  10.005
26523SOL     OW81465   8.786   3.879  11.444
26523SOL    HW181466   8.875   3.871  11.411
26523SOL    HW281467   8.795   3.875  11.540
26524SOL     OW81468  10.066  11.278   6.392
26524SOL    HW181469  10.090  11.368   6.415
26524SOL    HW281470  10.143  11.226   6.415
26525SOL     OW81471   7.020  14.587   4.894
26525SOL    HW181472   7.000  14.659   4.834
26525SOL    HW281473   6.935  14.562   4.931
26526SOL     OW81474  13.705   1.783  12.030
26526SOL    HW181475  13.680   1.864  11.984
26526SOL    HW281476  13.786   1.756  11.988
26527SOL     OW81477   5.580   5.833   5.021
26527SOL    HW181478   5.675   5.838   5.031
26527SOL    HW281479   5.549   5.798   5.104
26528SOL     OW81480   3.196   2.793  13.000
26528SOL    HW181481   3.219   2.817  12.910
26528SOL    HW281482   3.101   2.792  13.001
26529SOL     OW81483   3.401  11.808   0.664
26529SOL    HW181484   3.305  11.805   0.673
26529SOL    HW281485   3.432  11.836   0.750
26530SOL     OW81486   5.339   2.097  10.677
26530SOL    HW181487   5.399   2.089  10.603
26530SOL    HW281488   5.393   2.127  10.750
26531SOL     OW81489   8.188  11.789   9.936
26531SOL    HW181490   8.164  11.772  10.027
26531SOL    HW281491   8.215  11.881   9.935
26532SOL     OW81492  13.586   3.605   3.666
26532SOL    HW181493  13.546   3.627   3.581
26532SOL    HW281494  13.619   3.688   3.700
26533SOL     OW81495  11.048   5.058  10.335
26533SOL    HW181496  11.006   5.026  10.255
26533SOL    HW281497  10.976   5.092  10.388
26534SOL     OW81498  11.760  13.288   3.082
26534SOL    HW181499  11.790  13.362   3.030
26534SOL    HW281500  11.834  13.227   3.082
26535SOL     OW81501   9.935  10.969   6.012
26535SOL    HW181502   9.911  10.911   6.084
26535SOL    HW281503   9.943  11.055   6.052
26536SOL     OW81504   8.005   8.738  14.347
26536SOL    HW181505   8.092   8.776  14.355
26536SOL    HW281506   7.948   8.812  14.326
26537SOL     OW81507  14.367   5.112  13.051
26537SOL    HW181508  14.412   5.191  13.081
26537SOL    HW281509  14.369   5.119  12.956
26538SOL     OW81510   1.925  12.346   5.094
26538SOL    HW181511   1.986  12.312   5.159
26538SOL    HW281512   1.932  12.286   5.020
26539SOL     OW81513   4.245   9.144   1.534
26539SOL    HW181514   4.156   9.162   1.563
26539SOL    HW281515   4.300   9.170   1.608
26540SOL     OW81516  14.705   0.924   2.721
26540SOL    HW181517  14.689   0.830   2.726
26540SOL    HW281518  14.628   0.959   2.676
26541SOL     OW81519  11.144  14.538   1.125
26541SOL    HW181520  11.167  14.491   1.044
26541SOL    HW281521  11.175  14.481   1.195
26542SOL     OW81522   7.638   2.078   4.603
26542SOL    HW181523   7.595   2.079   4.689
26542SOL    HW281524   7.696   2.154   4.605
26543SOL     OW81525   3.055  13.541   9.551
26543SOL    HW181526   3.080  13.613   9.609
26543SOL    HW281527   2.986  13.577   9.495
26544SOL     OW81528   1.411   1.753  13.403
26544SOL    HW181529   1.440   1.821  13.342
26544SOL    HW281530   1.321   1.734  13.376
26545SOL     OW81531   0.580  14.817   0.887
26545SOL    HW181532   0.652  14.779   0.836
26545SOL    HW281533   0.556  14.749   0.950
26546SOL     OW81534  10.216   4.124   2.931
26546SOL    HW181535  10.273   4.131   3.008
26546SOL    HW281536  10.264   4.067   2.871
26547SOL     OW81537  11.424   3.083   1.257
26547SOL    HW181538  11.479   3.023   1.308
26547SOL    HW281539  11.378   3.027   1.195
26548SOL     OW81540   5.255   5.538   9.819
26548SOL    HW181541   5.235   5.525   9.726
26548SOL    HW281542   5.238   5.631   9.834
26549SOL     OW81543   0.008   9.814   0.263
26549SOL    HW181544   0.024   9.773   0.348
26549SOL    HW281545   0.070   9.771   0.204
26550SOL     OW81546   8.391  12.595  14.451
26550SOL    HW181547   8.362  12.608  14.360
26550SOL    HW281548   8.484  12.614  14.449
26551SOL     OW81549   1.949   4.152   1.271
26551SOL    HW181550   2.006   4.091   1.225
26551SOL    HW281551   1.986   4.238   1.253
26552SOL     OW81552   2.608   4.322   7.712
26552SOL    HW181553   2.656   4.299   7.632
26552SOL    HW281554   2.673   4.363   7.768
26553SOL     OW81555   0.346   3.852  12.201
26553SOL    HW181556   0.302   3.774  12.167
26553SOL    HW281557   0.424   3.819  12.244
26554SOL     OW81558   4.389  12.615   2.592
26554SOL    HW181559   4.337  12.626   2.672
26554SOL    HW281560   4.460  12.555   2.617
26555SOL     OW81561  10.220   7.700   5.393
26555SOL    HW181562  10.261   7.688   5.478
26555SOL    HW281563  10.136   7.654   5.400
26556SOL     OW81564   0.006  12.817  11.494
26556SOL    HW181565  14.860  12.846  11.405
26556SOL    HW281566  14.799  12.826  11.542
26557SOL     OW81567   3.326   3.528   2.091
26557SOL    HW181568   3.387   3.507   2.020
26557SOL    HW281569   3.246   3.556   2.046
26558SOL     OW81570  11.166   2.166  14.600
26558SOL    HW181571  11.227   2.093  14.601
26558SOL    HW281572  11.158   2.189  14.507
26559SOL     OW81573   0.587   8.925  10.917
26559SOL    HW181574   0.665   8.877  10.889
26559SOL    HW281575   0.621   9.005  10.957
26560SOL     OW81576  11.438   3.414   9.788
26560SOL    HW181577  11.512   3.475   9.795
26560SOL    HW281578  11.367   3.467   9.752
26561SOL     OW81579  12.102   5.500   0.252
26561SOL    HW181580  12.035   5.500   0.184
26561SOL    HW281581  12.177   5.456   0.212
26562SOL     OW81582  14.342   5.244  13.491
26562SOL    HW181583  14.343   5.149  13.482
26562SOL    HW281584  14.273   5.262  13.555
26563SOL     OW81585   6.774   5.050   4.572
26563SOL    HW181586   6.854   5.004   4.545
26563SOL    HW281587   6.715   4.980   4.601
26564SOL     OW81588   2.439   9.542   7.428
26564SOL    HW181589   2.484   9.471   7.474
26564SOL    HW281590   2.372   9.497   7.376
26565SOL     OW81591  11.606   3.942   7.682
26565SOL    HW181592  11.700   3.921   7.686
26565SOL    HW281593  11.577   3.903   7.600
26566SOL     OW81594   4.346   4.971   5.439
26566SOL    HW181595   4.316   4.884   5.414
26566SOL    HW281596   4.285   5.000   5.507
26567SOL     OW81597   2.928  12.592  10.746
26567SOL    HW181598   2.914  12.519  10.806
26567SOL    HW281599   3.013  12.574  10.706
26568SOL     OW81600  13.649   1.319   1.580
26568SOL    HW181601  13.605   1.252   1.528
26568SOL    HW281602  13.656   1.394   1.521
26569SOL     OW81603   9.075   8.994   5.247
26569SOL    HW181604   9.112   8.980   5.160
26569SOL    HW281605   9.059   8.906   5.281
26570SOL     OW81606   0.883  14.305  11.980
26570SOL    HW181607   0.918  14.225  12.019
26570SOL    HW281608   0.884  14.287  11.886
26571SOL     OW81609   8.696  14.453   8.248
26571SOL    HW181610   8.682  14.479   8.157
26571SOL    HW281611   8.729  14.532   8.291
26572SOL     OW81612  12.292   9.439   6.670
26572SOL    HW181613  12.256   9.526   6.648
26572SOL    HW281614  12.246   9.415   6.751
26573SOL     OW81615   8.301  11.713   7.908
26573SOL    HW181616   8.362  11.742   7.840
26573SOL    HW281617   8.350  11.648   7.958
26574SOL     OW81618   9.986  13.298   1.656
26574SOL    HW181619   9.916  13.339   1.604
26574SOL    HW281620   9.992  13.353   1.735
26575SOL     OW81621   4.946  11.890  12.204
26575SOL    HW181622   4.977  11.958  12.264
26575SOL    HW281623   4.856  11.917  12.183
26576SOL     OW81624  10.554   1.358   3.271
26576SOL    HW181625  10.486   1.369   3.338
26576SOL    HW281626  10.524   1.410   3.197
26577SOL     OW81627   7.099   7.747   5.225
26577SOL    HW181628   7.038   7.786   5.287
26577SOL    HW281629   7.155   7.690   5.279
26578SOL     OW81630   3.513  12.851   4.602
26578SOL    HW181631   3.561  12.866   4.684
26578SOL    HW281632   3.470  12.766   4.615
26579SOL     OW81633  13.912   9.449  10.443
26579SOL    HW181634  13.841   9.402  10.487
26579SOL    HW281635  13.962   9.381  10.398
26580SOL     OW81636   4.725   0.293   1.419
26580SOL    HW181637   4.745   0.201   1.410
26580SOL    HW281638   4.649   0.295   1.477
26581SOL     OW81639   9.009   1.228   2.517
26581SOL    HW181640   9.050   1.309   2.485
26581SOL    HW281641   8.990   1.178   2.438
26582SOL     OW81642   6.780   1.592  12.765
26582SOL    HW181643   6.794   1.684  12.788
26582SOL    HW281644   6.701   1.592  12.712
26583SOL     OW81645   2.826   9.073   5.018
26583SOL    HW181646   2.810   8.982   5.044
26583SOL    HW281647   2.912   9.094   5.056
26584SOL     OW81648   7.827   4.902  14.135
26584SOL    HW181649   7.789   4.915  14.048
26584SOL    HW281650   7.784   4.822  14.168
26585SOL     OW81651  13.223  10.671   8.526
26585SOL    HW181652  13.225  10.627   8.442
26585SOL    HW281653  13.309  10.713   8.534
26586SOL     OW81654   9.523   6.938   1.071
26586SOL    HW181655   9.465   6.982   1.133
26586SOL    HW281656   9.544   7.005   1.006
26587SOL     OW81657   7.812  13.295   9.578
26587SOL    HW181658   7.855  13.355   9.640
26587SOL    HW281659   7.855  13.211   9.593
26588SOL     OW81660   0.767  11.807   6.637
26588SOL    HW181661   0.784  11.763   6.554
26588SOL    HW281662   0.854  11.831   6.670
26589SOL     OW81663   9.764   1.981  10.584
26589SOL    HW181664   9.674   1.982  10.550
26589SOL    HW281665   9.805   2.058  10.547
26590SOL     OW81666   9.699   0.127   5.451
26590SOL    HW181667   9.669   0.038   5.469
26590SOL    HW281668   9.795   0.120   5.452
26591SOL     OW81669   2.302   3.312   3.822
26591SOL    HW181670   2.251   3.236   3.851
26591SOL    HW281671   2.383   3.274   3.788
26592SOL     OW81672   4.677   7.930  13.710
26592SOL    HW181673   4.746   7.871  13.680
26592SOL    HW281674   4.709   8.017  13.688
26593SOL     OW81675   9.157   8.586  12.791
26593SOL    HW181676   9.228   8.597  12.728
26593SOL    HW281677   9.107   8.668  12.785
26594SOL     OW81678   9.217  10.268  14.506
26594SOL    HW181679   9.125  10.273  14.533
26594SOL    HW281680   9.246  10.359  14.505
26595SOL     OW81681  13.400   5.196   9.413
26595SOL    HW181682  13.367   5.280   9.381
26595SOL    HW281683  13.370   5.132   9.348
26596SOL     OW81684   6.870   8.134  13.978
26596SOL    HW181685   6.781   8.166  13.963
26596SOL    HW281686   6.927   8.203  13.944
26597SOL     OW81687   4.390   6.625   7.233
26597SOL    HW181688   4.371   6.612   7.140
26597SOL    HW281689   4.305   6.640   7.274
26598SOL     OW81690   6.150   9.581   7.903
26598SOL    HW181691   6.219   9.529   7.863
26598SOL    HW281692   6.189   9.667   7.918
26599SOL     OW81693   7.592   4.444  13.434
26599SOL    HW181694   7.656   4.509  13.404
26599SOL    HW281695   7.555   4.408  13.353
26600SOL     OW81696   6.672   6.761   3.065
26600SOL    HW181697   6.656   6.668   3.050
26600SOL    HW281698   6.589   6.795   3.099
26601SOL     OW81699  10.916   1.241   4.303
26601SOL    HW181700  10.855   1.269   4.235
26601SOL    HW281701  10.889   1.152   4.326
26602SOL     OW81702   8.070   9.710   3.338
26602SOL    HW181703   8.029   9.740   3.419
26602SOL    HW281704   8.088   9.617   3.354
26603SOL     OW81705  12.257   2.624   3.419
26603SOL    HW181706  12.256   2.532   3.392
26603SOL    HW281707  12.188   2.665   3.368
26604SOL     OW81708  11.345   7.142   8.220
26604SOL    HW181709  11.364   7.227   8.260
26604SOL    HW281710  11.255   7.124   8.245
26605SOL     OW81711   0.918   4.559   3.275
26605SOL    HW181712   0.964   4.492   3.225
26605SOL    HW281713   0.950   4.642   3.240
26606SOL     OW81714   3.511  11.230   0.238
26606SOL    HW181715   3.444  11.227   0.307
26606SOL    HW281716   3.582  11.281   0.275
26607SOL     OW81717   2.107   6.365   2.497
26607SOL    HW181718   2.074   6.442   2.452
26607SOL    HW281719   2.035   6.338   2.554
26608SOL     OW81720  10.990  14.387   5.866
26608SOL    HW181721  10.985  14.482   5.857
26608SOL    HW281722  10.989  14.355   5.775
26609SOL     OW81723  11.253  10.666  12.806
26609SOL    HW181724  11.257  10.762  12.808
26609SOL    HW281725  11.319  10.641  12.742
26610SOL     OW81726   1.439  13.525   1.915
26610SOL    HW181727   1.344  13.510   1.910
26610SOL    HW281728   1.477  13.444   1.882
26611SOL     OW81729   7.766   7.967   9.200
26611SOL    HW181730   7.775   7.976   9.105
26611SOL    HW281731   7.855   7.977   9.233
26612SOL     OW81732   2.369   6.548  12.504
26612SOL    HW181733   2.442   6.603  12.476
26612SOL    HW281734   2.291   6.598  12.481
26613SOL     OW81735   3.652   3.968   1.669
26613SOL    HW181736   3.670   3.973   1.763
26613SOL    HW281737   3.734   3.990   1.627
26614SOL     OW81738  12.870  11.797   5.875
26614SOL    HW181739  12.861  11.798   5.970
26614SOL    HW281740  12.843  11.884   5.847
26615SOL     OW81741   6.651  11.226  10.423
26615SOL    HW181742   6.721  11.201  10.363
26615SOL    HW281743   6.695  11.240  10.507
26616SOL     OW81744  10.356  12.307  12.134
26616SOL    HW181745  10.431  12.264  12.175
26616SOL    HW281746  10.300  12.333  12.206
26617SOL     OW81747   9.803  10.622   3.350
26617SOL    HW181748   9.806  10.534   3.312
26617SOL    HW281749   9.739  10.616   3.420
26618SOL     OW81750  12.377   7.707   7.298
26618SOL    HW181751  12.340   7.755   7.224
26618SOL    HW281752  12.425   7.634   7.258
26619SOL     OW81753   4.386   7.446  12.497
26619SOL    HW181754   4.350   7.362  12.529
26619SOL    HW281755   4.314   7.508  12.508
26620SOL     OW81756   8.115   1.886   4.916
26620SOL    HW181757   8.142   1.965   4.869
26620SOL    HW281758   8.194   1.858   4.963
26621SOL     OW81759   0.739   1.433   8.143
26621SOL    HW181760   0.785   1.394   8.217
26621SOL    HW281761   0.682   1.499   8.183
26622SOL     OW81762   6.830   2.697   4.935
26622SOL    HW181763   6.832   2.605   4.963
26622SOL    HW281764   6.871   2.696   4.848
26623SOL     OW81765   8.573   7.700  12.248
26623SOL    HW181766   8.614   7.779  12.283
26623SOL    HW281767   8.584   7.707  12.153
26624SOL     OW81768   7.949   5.036   9.983
26624SOL    HW181769   7.996   5.008  10.062
26624SOL    HW281770   8.018   5.051   9.918
26625SOL     OW81771   2.257   1.143   7.455
26625SOL    HW181772   2.270   1.073   7.391
26625SOL    HW281773   2.260   1.099   7.540
26626SOL     OW81774  11.312  12.915  14.389
26626SOL    HW181775  11.314  12.948  14.300
26626SOL    HW281776  11.243  12.849  14.390
26627SOL     OW81777  11.212   3.832  10.403
26627SOL    HW181778  11.131   3.850  10.451
26627SOL    HW281779  11.215   3.736  10.396
26628SOL     OW81780  11.709   4.140   5.798
26628SOL    HW181781  11.687   4.232   5.784
26628SOL    HW281782  11.642   4.091   5.749
26629SOL     OW81783  13.977   9.957   9.353
26629SOL    HW181784  13.929   9.931   9.432
26629SOL    HW281785  13.935   9.908   9.282
26630SOL     OW81786   7.173  12.128   8.399
26630SOL    HW181787   7.183  12.033   8.400
26630SOL    HW281788   7.258  12.161   8.369
26631SOL     OW81789   7.883   7.245  11.245
26631SOL    HW181790   7.868   7.151  11.236
26631SOL    HW281791   7.842   7.283  11.167
26632SOL     OW81792   7.962   7.145  12.384
26632SOL    HW181793   7.972   7.240  12.381
26632SOL    HW281794   7.869   7.131  12.401
26633SOL     OW81795  14.501   6.442   3.552
26633SOL    HW181796  14.425   6.478   3.598
26633SOL    HW281797  14.535   6.516   3.502
26634SOL     OW81798   2.489   1.034   6.334
26634SOL    HW181799   2.512   0.946   6.366
26634SOL    HW281800   2.503   1.030   6.240
26635SOL     OW81801  12.343   9.039   9.682
26635SOL    HW181802  12.397   8.960   9.688
26635SOL    HW281803  12.348   9.078   9.769
26636SOL     OW81804   6.353   9.917  10.061
26636SOL    HW181805   6.369   9.876  10.146
26636SOL    HW281806   6.286   9.863  10.020
26637SOL     OW81807   0.628   1.332   2.520
26637SOL    HW181808   0.608   1.415   2.477
26637SOL    HW281809   0.572   1.331   2.598
26638SOL     OW81810   1.660   4.509   8.041
26638SOL    HW181811   1.668   4.569   8.115
26638SOL    HW281812   1.712   4.550   7.972
26639SOL     OW81813   2.595  12.911   9.970
26639SOL    HW181814   2.642  12.988  10.002
26639SOL    HW281815   2.564  12.937   9.883
26640SOL     OW81816   7.400   5.847  12.901
26640SOL    HW181817   7.493   5.831  12.916
26640SOL    HW281818   7.375   5.785  12.833
26641SOL     OW81819   1.766   8.002   8.346
26641SOL    HW181820   1.717   8.077   8.311
26641SOL    HW281821   1.718   7.977   8.425
26642SOL     OW81822   0.102   9.068  11.498
26642SOL    HW181823   0.150   9.012  11.437
26642SOL    HW281824   0.160   9.143  11.512
26643SOL     OW81825   8.703  13.922   4.659
26643SOL    HW181826   8.753  13.959   4.585
26643SOL    HW281827   8.769  13.875   4.710
26644SOL     OW81828   9.010   1.501   6.752
26644SOL    HW181829   8.956   1.423   6.740
26644SOL    HW281830   9.083   1.472   6.805
26645SOL     OW81831   6.501   6.919   0.731
26645SOL    HW181832   6.514   6.878   0.817
26645SOL    HW281833   6.574   6.980   0.723
26646SOL     OW81834  11.618  10.636   7.574
26646SOL    HW181835  11.553  10.652   7.506
26646SOL    HW281836  11.591  10.553   7.614
26647SOL     OW81837   0.171   8.792   5.864
26647SOL    HW181838   0.117   8.788   5.943
26647SOL    HW281839   0.126   8.855   5.807
26648SOL     OW81840   9.197   4.368   4.896
26648SOL    HW181841   9.198   4.369   4.992
26648SOL    HW281842   9.105   4.368   4.873
26649SOL     OW81843  12.357   2.373   2.335
26649SOL    HW181844  12.439   2.331   2.362
26649SOL    HW281845  12.324   2.319   2.264
26650SOL     OW81846   3.638   3.679   9.647
26650SOL    HW181847   3.551   3.642   9.632
26650SOL    HW281848   3.657   3.659   9.739
26651SOL     OW81849   5.696   0.250  10.492
26651SOL    HW181850   5.657   0.217  10.411
26651SOL    HW281851   5.788   0.227  10.486
26652SOL     OW81852  10.522  11.545   4.984
26652SOL    HW181853  10.436  11.509   5.003
26652SOL    HW281854  10.506  11.612   4.918
26653SOL     OW81855   2.013   3.066   2.083
26653SOL    HW181856   2.072   3.009   2.034
26653SOL    HW281857   1.947   3.093   2.019
26654SOL     OW81858  13.534   9.546  10.631
26654SOL    HW181859  13.449   9.549  10.675
26654SOL    HW281860  13.540   9.457  10.597
26655SOL     OW81861   1.646  12.992   3.853
26655SOL    HW181862   1.693  13.075   3.847
26655SOL    HW281863   1.715  12.926   3.853
26656SOL     OW81864  10.448  11.747  13.610
26656SOL    HW181865  10.542  11.739  13.599
26656SOL    HW281866  10.411  11.725  13.525
26657SOL     OW81867   5.069   1.457  14.193
26657SOL    HW181868   5.048   1.434  14.102
26657SOL    HW281869   5.035   1.547  14.202
26658SOL     OW81870  12.352   5.998   9.920
26658SOL    HW181871  12.338   5.908   9.950
26658SOL    HW281872  12.387   5.990   9.831
26659SOL     OW81873  11.068   1.468  14.049
26659SOL    HW181874  11.024   1.529  13.989
26659SOL    HW281875  11.051   1.503  14.136
26660SOL     OW81876   2.133  10.472   1.101
26660SOL    HW181877   2.227  10.485   1.088
26660SOL    HW281878   2.096  10.486   1.014
26661SOL     OW81879   0.458   9.816   1.431
26661SOL    HW181880   0.440   9.898   1.385
26661SOL    HW281881   0.448   9.748   1.364
26662SOL     OW81882   3.319   3.089  11.148
26662SOL    HW181883   3.290   3.006  11.185
26662SOL    HW281884   3.270   3.155  11.197
26663SOL     OW81885   7.462   9.238   5.102
26663SOL    HW181886   7.468   9.255   5.196
26663SOL    HW281887   7.404   9.305   5.068
26664SOL     OW81888   2.585  14.820   3.904
26664SOL    HW181889   2.632  14.749   3.860
26664SOL    HW281890   2.568   0.008   3.834
26665SOL     OW81891  10.960   6.523   4.925
26665SOL    HW181892  10.941   6.550   4.835
26665SOL    HW281893  11.054   6.542   4.936
26666SOL     OW81894   8.797   7.560   9.075
26666SOL    HW181895   8.842   7.478   9.052
26666SOL    HW281896   8.762   7.543   9.162
26667SOL     OW81897   8.093   6.869   4.603
26667SOL    HW181898   8.184   6.860   4.630
26667SOL    HW281899   8.048   6.903   4.680
26668SOL     OW81900  12.505   8.969  11.670
26668SOL    HW181901  12.570   8.923  11.723
26668SOL    HW281902  12.555   9.005  11.597
26669SOL     OW81903  10.877   5.548   3.496
26669SOL    HW181904  10.841   5.637   3.494
26669SOL    HW281905  10.814   5.498   3.548
26670SOL     OW81906   9.981   1.270   0.032
26670SOL    HW181907  10.003   1.210  14.836
26670SOL    HW281908   9.924   1.335  14.867
26671SOL     OW81909   8.402  13.309  11.742
26671SOL    HW181910   8.372  13.242  11.803
26671SOL    HW281911   8.323  13.339  11.697
26672SOL     OW81912   2.214   9.782   2.252
26672SOL    HW181913   2.298   9.804   2.292
26672SOL    HW281914   2.213   9.832   2.170
26673SOL     OW81915   0.680   9.062   3.536
26673SOL    HW181916   0.619   8.990   3.552
26673SOL    HW281917   0.753   9.022   3.488
26674SOL     OW81918  14.764  11.715   1.462
26674SOL    HW181919  14.731  11.679   1.544
26674SOL    HW281920  14.726  11.658   1.395
26675SOL     OW81921   5.168   4.693   6.622
26675SOL    HW181922   5.160   4.788   6.632
26675SOL    HW281923   5.108   4.671   6.552
26676SOL     OW81924   6.075   6.310   0.409
26676SOL    HW181925   6.123   6.311   0.492
26676SOL    HW281926   6.021   6.231   0.412
26677SOL     OW81927   7.401   0.216  12.831
26677SOL    HW181928   7.324   0.266  12.804
26677SOL    HW281929   7.475   0.274  12.814
26678SOL     OW81930   8.272  12.927   0.390
26678SOL    HW181931   8.177  12.924   0.380
26678SOL    HW281932   8.305  12.922   0.300
26679SOL     OW81933  11.896   2.632   5.005
26679SOL    HW181934  11.933   2.708   4.959
26679SOL    HW281935  11.827   2.669   5.061
26680SOL     OW81936   0.952   3.983   8.985
26680SOL    HW181937   0.967   4.059   9.041
26680SOL    HW281938   1.038   3.944   8.974
26681SOL     OW81939   2.717   4.084  10.965
26681SOL    HW181940   2.711   4.039  11.049
26681SOL    HW281941   2.641   4.143  10.964
26682SOL     OW81942   8.144   6.975  10.742
26682SOL    HW181943   8.081   7.002  10.809
26682SOL    HW281944   8.117   6.887  10.717
26683SOL     OW81945   6.650  10.373  14.373
26683SOL    HW181946   6.734  10.329  14.386
26683SOL    HW281947   6.652  10.401  14.281
26684SOL     OW81948   6.123   9.440   6.170
26684SOL    HW181949   6.032   9.450   6.142
26684SOL    HW281950   6.125   9.358   6.219
26685SOL     OW81951   0.609   8.162   0.906
26685SOL    HW181952   0.536   8.223   0.892
26685SOL    HW281953   0.686   8.218   0.913
26686SOL     OW81954   1.073   8.729   9.561
26686SOL    HW181955   1.037   8.818   9.560
26686SOL    HW281956   1.141   8.730   9.493
26687SOL     OW81957  10.050  11.961   5.238
26687SOL    HW181958   9.978  12.007   5.193
26687SOL    HW281959  10.035  11.868   5.218
26688SOL     OW81960  11.761   8.289   0.654
26688SOL    HW181961  11.745   8.318   0.743
26688SOL    HW281962  11.676   8.260   0.622
26689SOL     OW81963   5.432  10.762   0.278
26689SOL    HW181964   5.356  10.777   0.334
26689SOL    HW281965   5.444  10.667   0.279
26690SOL     OW81966   9.376   4.064   8.278
26690SOL    HW181967   9.347   3.974   8.293
26690SOL    HW281968   9.317   4.117   8.331
26691SOL     OW81969   3.218  12.175   8.377
26691SOL    HW181970   3.282  12.119   8.332
26691SOL    HW281971   3.254  12.187   8.465
26692SOL     OW81972  12.282  10.395  10.351
26692SOL    HW181973  12.356  10.440  10.390
26692SOL    HW281974  12.247  10.340  10.421
26693SOL     OW81975  14.204   2.466  11.714
26693SOL    HW181976  14.191   2.468  11.809
26693SOL    HW281977  14.117   2.451  11.677
26694SOL     OW81978   8.501   1.490  11.488
26694SOL    HW181979   8.436   1.550  11.452
26694SOL    HW281980   8.521   1.524  11.575
26695SOL     OW81981   8.361   6.351   1.924
26695SOL    HW181982   8.287   6.388   1.876
26695SOL    HW281983   8.359   6.257   1.903
26696SOL     OW81984   4.827   9.375   0.904
26696SOL    HW181985   4.871   9.318   0.840
26696SOL    HW281986   4.893   9.439   0.928
26697SOL     OW81987   2.269   2.330   0.135
26697SOL    HW181988   2.324   2.340   0.212
26697SOL    HW281989   2.262   2.236   0.122
26698SOL     OW81990   0.850   7.884  11.424
26698SOL    HW181991   0.810   7.971  11.418
26698SOL    HW281992   0.854   7.865  11.518
26699SOL     OW81993   9.232  10.887   5.808
26699SOL    HW181994   9.287  10.811   5.793
26699SOL    HW281995   9.204  10.879   5.899
26700SOL     OW81996   9.509   2.450  13.596
26700SOL    HW181997   9.551   2.365  13.590
26700SOL    HW281998   9.580   2.514  13.586
26701SOL     OW81999   2.247   6.109  14.419
26701SOL    HW182000   2.214   6.025  14.452
26701SOL    HW282001   2.314   6.135  14.482
26702SOL     OW82002  12.811   6.494   4.894
26702SOL    HW182003  12.865   6.415   4.899
26702SOL    HW282004  12.737   6.476   4.952
26703SOL     OW82005   7.543   1.730   0.041
26703SOL    HW182006   7.614   1.699   0.099
26703SOL    HW282007   7.561   1.824   0.030
26704SOL     OW82008   4.849   2.444   5.469
26704SOL    HW182009   4.802   2.362   5.482
26704SOL    HW282010   4.936   2.418   5.437
26705SOL     OW82011  14.191   2.187   0.632
26705SOL    HW182012  14.157   2.158   0.716
26705SOL    HW282013  14.130   2.150   0.568
26706SOL     OW82014  11.253   8.101   0.852
26706SOL    HW182015  11.193   8.093   0.778
26706SOL    HW282016  11.331   8.052   0.825
26707SOL     OW82017  14.219   3.709   6.935
26707SOL    HW182018  14.267   3.763   6.997
26707SOL    HW282019  14.136   3.689   6.979
26708SOL     OW82020  13.428  10.286  13.749
26708SOL    HW182021  13.440  10.226  13.823
26708SOL    HW282022  13.341  10.323  13.763
26709SOL     OW82023   5.680   3.321   8.045
26709SOL    HW182024   5.772   3.303   8.066
26709SOL    HW282025   5.631   3.254   8.091
26710SOL     OW82026   8.238   3.717   8.305
26710SOL    HW182027   8.319   3.738   8.352
26710SOL    HW282028   8.197   3.648   8.358
26711SOL     OW82029   0.983   0.794   1.515
26711SOL    HW182030   0.914   0.833   1.568
26711SOL    HW282031   1.060   0.848   1.532
26712SOL     OW82032   9.163  11.371  14.361
26712SOL    HW182033   9.248  11.364  14.405
26712SOL    HW282034   9.099  11.353  14.429
26713SOL     OW82035   4.895   7.244   0.344
26713SOL    HW182036   4.817   7.231   0.290
26713SOL    HW282037   4.864   7.234   0.434
26714SOL     OW82038   8.510  12.924   7.796
26714SOL    HW182039   8.564  12.962   7.865
26714SOL    HW282040   8.434  12.981   7.791
26715SOL     OW82041   0.695   3.099  11.653
26715SOL    HW182042   0.622   3.099  11.715
26715SOL    HW282043   0.765   3.052  11.699
26716SOL     OW82044   8.618  12.972   4.154
26716SOL    HW182045   8.667  12.922   4.219
26716SOL    HW282046   8.630  13.063   4.180
26717SOL     OW82047   1.449   1.803  11.613
26717SOL    HW182048   1.542   1.785  11.629
26717SOL    HW282049   1.434   1.889  11.652
26718SOL     OW82050  12.475  14.050   6.142
26718SOL    HW182051  12.559  14.066   6.099
26718SOL    HW282052  12.419  14.015   6.073
26719SOL     OW82053  12.142   7.414   2.232
26719SOL    HW182054  12.212   7.470   2.265
26719SOL    HW282055  12.070   7.426   2.294
26720SOL     OW82056   5.250  10.312  13.298
26720SOL    HW182057   5.307  10.242  13.268
26720SOL    HW282058   5.164  10.270  13.309
26721SOL     OW82059   4.382   1.636  12.958
26721SOL    HW182060   4.323   1.629  13.033
26721SOL    HW282061   4.343   1.703  12.902
26722SOL     OW82062   1.376   0.205  10.024
26722SOL    HW182063   1.375   0.291  10.065
26722SOL    HW282064   1.302   0.158  10.063
26723SOL     OW82065  14.847   8.997   0.336
26723SOL    HW182066  14.826   9.073   0.390
26723SOL    HW282067  14.803   8.924   0.380
26724SOL     OW82068   0.866  12.519   0.379
26724SOL    HW182069   0.883  12.431   0.345
26724SOL    HW282070   0.927  12.575   0.331
26725SOL     OW82071   6.613   8.962  13.635
26725SOL    HW182072   6.646   8.932  13.550
26725SOL    HW282073   6.667   9.039  13.655
26726SOL     OW82074   3.330   5.472  11.545
26726SOL    HW182075   3.246   5.429  11.526
26726SOL    HW282076   3.395   5.402  11.540
26727SOL     OW82077   9.391   9.417  14.820
26727SOL    HW182078   9.339   9.400  14.742
26727SOL    HW282079   9.426   9.505  14.808
26728SOL     OW82080  10.981   0.484  14.506
26728SOL    HW182081  11.061   0.454  14.548
26728SOL    HW282082  10.947   0.553  14.563
26729SOL     OW82083   0.171   9.119   2.398
26729SOL    HW182084   0.209   9.170   2.327
26729SOL    HW282085   0.109   9.178   2.440
26730SOL     OW82086   9.221   0.244   6.226
26730SOL    HW182087   9.275   0.235   6.148
26730SOL    HW282088   9.171   0.163   6.230
26731SOL     OW82089   3.732   6.745  10.472
26731SOL    HW182090   3.754   6.652  10.480
26731SOL    HW282091   3.805   6.782  10.422
26732SOL     OW82092   3.615   5.163   3.654
26732SOL    HW182093   3.661   5.083   3.679
26732SOL    HW282094   3.607   5.158   3.559
26733SOL     OW82095   9.941  14.146   4.676
26733SOL    HW182096   9.983  14.113   4.597
26733SOL    HW282097  10.006  14.206   4.714
26734SOL     OW82098   3.809  14.349  13.195
26734SOL    HW182099   3.821  14.444  13.188
26734SOL    HW282100   3.853  14.314  13.118
26735SOL     OW82101   4.188  11.612   2.394
26735SOL    HW182102   4.159  11.522   2.378
26735SOL    HW282103   4.220  11.611   2.484
26736SOL     OW82104  10.349   2.382   5.141
26736SOL    HW182105  10.325   2.342   5.225
26736SOL    HW282106  10.271   2.431   5.115
26737SOL     OW82107  14.343   2.213  11.540
26737SOL    HW182108  14.366   2.264  11.617
26737SOL    HW282109  14.290   2.273  11.487
26738SOL     OW82110   6.042   9.087   0.786
26738SOL    HW182111   6.128   9.078   0.828
26738SOL    HW282112   5.986   9.027   0.835
26739SOL     OW82113   2.741  11.504  14.392
26739SOL    HW182114   2.797  11.571  14.352
26739SOL    HW282115   2.724  11.442  14.321
26740SOL     OW82116   7.990   2.272  10.719
26740SOL    HW182117   7.928   2.239  10.784
26740SOL    HW282118   7.979   2.215  10.643
26741SOL     OW82119   1.271  14.310  12.186
26741SOL    HW182120   1.227  14.314  12.101
26741SOL    HW282121   1.236  14.231  12.227
26742SOL     OW82122   3.796   2.816  12.652
26742SOL    HW182123   3.808   2.777  12.565
26742SOL    HW282124   3.794   2.911  12.636
26743SOL     OW82125   8.368   9.089   3.301
26743SOL    HW182126   8.412   9.114   3.219
26743SOL    HW282127   8.305   9.022   3.275
26744SOL     OW82128   5.807  13.734  10.690
26744SOL    HW182129   5.832  13.693  10.607
26744SOL    HW282130   5.712  13.725  10.693
26745SOL     OW82131   8.473  11.077   7.426
26745SOL    HW182132   8.492  11.163   7.465
26745SOL    HW282133   8.488  11.089   7.333
26746SOL     OW82134  13.725   2.103  13.061
26746SOL    HW182135  13.729   2.123  13.154
26746SOL    HW282136  13.781   2.026  13.050
26747SOL     OW82137   5.140   5.155   0.661
26747SOL    HW182138   5.225   5.112   0.659
26747SOL    HW282139   5.140   5.204   0.743
26748SOL     OW82140   3.589   9.709   1.662
26748SOL    HW182141   3.507   9.749   1.690
26748SOL    HW282142   3.592   9.723   1.567
26749SOL     OW82143   4.271   6.001  11.067
26749SOL    HW182144   4.359   6.012  11.031
26749SOL    HW282145   4.242   5.917  11.032
26750SOL     OW82146  11.488   8.012  14.112
26750SOL    HW182147  11.464   7.920  14.100
26750SOL    HW282148  11.418   8.061  14.068
26751SOL     OW82149  13.996  12.037   0.642
26751SOL    HW182150  13.970  11.979   0.714
26751SOL    HW282151  14.092  12.039   0.647
26752SOL     OW82152   3.564   1.966  10.574
26752SOL    HW182153   3.643   2.006  10.538
26752SOL    HW282154   3.514   2.040  10.610
26753SOL     OW82155  14.566  13.430   8.274
26753SOL    HW182156  14.648  13.412   8.230
26753SOL    HW282157  14.524  13.497   8.221
26754SOL     OW82158   3.444   8.275  11.830
26754SOL    HW182159   3.428   8.233  11.915
26754SOL    HW282160   3.539   8.276  11.821
26755SOL     OW82161   0.349   1.331  12.523
26755SOL    HW182162   0.421   1.326  12.459
26755SOL    HW282163   0.334   1.240  12.548
26756SOL     OW82164   1.391   6.987  13.120
26756SOL    HW182165   1.423   6.982  13.030
26756SOL    HW282166   1.462   7.028  13.169
26757SOL     OW82167   5.953  11.233  12.703
26757SOL    HW182168   5.953  11.283  12.622
26757SOL    HW282169   5.986  11.294  12.769
26758SOL     OW82170  10.143  10.565  14.073
26758SOL    HW182171  10.096  10.508  14.133
26758SOL    HW282172  10.178  10.635  14.129
26759SOL     OW82173   5.944   2.281   6.102
26759SOL    HW182174   6.004   2.218   6.142
26759SOL    HW282175   5.895   2.229   6.038
26760SOL     OW82176   8.441  13.709  14.322
26760SOL    HW182177   8.469  13.719  14.232
26760SOL    HW282178   8.346  13.715  14.319
26761SOL     OW82179  14.200   5.593  10.265
26761SOL    HW182180  14.207   5.515  10.211
26761SOL    HW282181  14.281   5.595  10.316
26762SOL     OW82182   9.436   7.962   8.831
26762SOL    HW182183   9.489   7.905   8.886
26762SOL    HW282184   9.372   8.002   8.890
26763SOL     OW82185  14.704   9.391   4.684
26763SOL    HW182186  14.771   9.449   4.722
26763SOL    HW282187  14.753   9.335   4.624
26764SOL     OW82188  13.448   1.327   6.661
26764SOL    HW182189  13.380   1.321   6.727
26764SOL    HW282190  13.445   1.417   6.630
26765SOL     OW82191  14.598   6.464  12.368
26765SOL    HW182192  14.505   6.489  12.376
26765SOL    HW282193  14.644   6.524  12.426
26766SOL     OW82194   3.202   2.935   5.067
26766SOL    HW182195   3.261   2.868   5.102
26766SOL    HW282196   3.260   3.006   5.042
26767SOL     OW82197   2.358   9.124   2.435
26767SOL    HW182198   2.280   9.173   2.409
26767SOL    HW282199   2.326   9.037   2.456
26768SOL     OW82200   1.074  11.273   7.234
26768SOL    HW182201   1.117  11.228   7.307
26768SOL    HW282202   1.077  11.211   7.162
26769SOL     OW82203   6.563   9.075   8.973
26769SOL    HW182204   6.560   9.118   8.888
26769SOL    HW282205   6.568   9.147   9.036
26770SOL     OW82206  11.259   7.067   7.386
26770SOL    HW182207  11.221   6.999   7.443
26770SOL    HW282208  11.281   7.138   7.446
26771SOL     OW82209   4.239  11.393   3.162
26771SOL    HW182210   4.308  11.391   3.095
26771SOL    HW282211   4.172  11.333   3.129
26772SOL     OW82212   0.807   5.040  11.601
26772SOL    HW182213   0.888   4.989  11.604
26772SOL    HW282214   0.757   5.000  11.530
26773SOL     OW82215   5.218   1.467   1.866
26773SOL    HW182216   5.203   1.470   1.960
26773SOL    HW282217   5.288   1.531   1.851
26774SOL     OW82218  12.928   8.150   2.804
26774SOL    HW182219  12.872   8.103   2.742
26774SOL    HW282220  12.935   8.091   2.879
26775SOL     OW82221   8.576   0.185   1.027
26775SOL    HW182222   8.502   0.234   1.063
26775SOL    HW282223   8.542   0.144   0.948
26776SOL     OW82224   1.523   9.799   6.307
26776SOL    HW182225   1.540   9.778   6.399
26776SOL    HW282226   1.427   9.799   6.300
26777SOL     OW82227  13.201   2.155   7.559
26777SOL    HW182228  13.222   2.076   7.509
26777SOL    HW282229  13.170   2.122   7.643
26778SOL     OW82230  11.717   0.886   7.543
26778SOL    HW182231  11.682   0.926   7.463
26778SOL    HW282232  11.712   0.955   7.609
26779SOL     OW82233  13.722   9.392   1.766
26779SOL    HW182234  13.670   9.461   1.807
26779SOL    HW282235  13.788   9.439   1.714
26780SOL     OW82236   7.195  11.699  11.619
26780SOL    HW182237   7.246  11.764  11.667
26780SOL    HW282238   7.138  11.661  11.685
26781SOL     OW82239  12.286   8.022   3.439
26781SOL    HW182240  12.248   8.048   3.355
26781SOL    HW282241  12.283   8.100   3.493
26782SOL     OW82242  11.910   4.055   1.026
26782SOL    HW182243  11.870   3.996   1.090
26782SOL    HW282244  11.840   4.117   1.004
26783SOL     OW82245   3.840   9.180  14.264
26783SOL    HW182246   3.754   9.209  14.232
26783SOL    HW282247   3.829   9.173  14.358
26784SOL     OW82248   3.323  11.291   5.093
26784SOL    HW182249   3.298  11.341   5.016
26784SOL    HW282250   3.410  11.323   5.116
26785SOL     OW82251   9.448   4.768  12.825
26785SOL    HW182252   9.471   4.861  12.822
26785SOL    HW282253   9.490   4.735  12.904
26786SOL     OW82254  11.477   7.589  10.110
26786SOL    HW182255  11.507   7.561  10.196
26786SOL    HW282256  11.384   7.566  10.108
26787SOL     OW82257   4.166   6.089  12.400
26787SOL    HW182258   4.214   6.019  12.445
26787SOL    HW282259   4.219   6.109  12.323
26788SOL     OW82260   7.423  11.676   4.812
26788SOL    HW182261   7.333  11.691   4.839
26788SOL    HW282262   7.475  11.692   4.891
26789SOL     OW82263   4.453  12.965   4.244
26789SOL    HW182264   4.375  12.923   4.280
26789SOL    HW282265   4.418  13.037   4.190
26790SOL     OW82266   6.749  14.865   1.767
26790SOL    HW182267   6.752  14.867   1.671
26790SOL    HW282268   6.664  14.826   1.787
26791SOL     OW82269   5.548  12.055   1.263
26791SOL    HW182270   5.542  12.109   1.184
26791SOL    HW282271   5.506  12.107   1.331
26792SOL     OW82272   8.613   8.050   3.948
26792SOL    HW182273   8.551   8.098   3.893
26792SOL    HW282274   8.564   8.031   4.029
26793SOL     OW82275   5.586   3.472   0.427
26793SOL    HW182276   5.643   3.442   0.498
26793SOL    HW282277   5.645   3.484   0.352
26794SOL     OW82278  13.667  13.919   8.163
26794SOL    HW182279  13.752  13.882   8.141
26794SOL    HW282280  13.677  13.951   8.252
26795SOL     OW82281  13.539   3.865   2.434
26795SOL    HW182282  13.476   3.831   2.498
26795SOL    HW282283  13.557   3.954   2.464
26796SOL     OW82284  10.216   1.812   8.292
26796SOL    HW182285  10.312   1.812   8.300
26796SOL    HW282286  10.198   1.741   8.230
26797SOL     OW82287   1.564   6.700   5.151
26797SOL    HW182288   1.573   6.606   5.135
26797SOL    HW282289   1.605   6.714   5.236
26798SOL     OW82290   6.472   2.791   9.854
26798SOL    HW182291   6.552   2.806   9.904
26798SOL    HW282292   6.417   2.867   9.873
26799SOL     OW82293  13.509   3.559   2.547
26799SOL    HW182294  13.426   3.606   2.555
26799SOL    HW282295  13.520   3.545   2.453
26800SOL     OW82296   0.740   0.080   6.704
26800SOL    HW182297   0.670   0.146   6.708
26800SOL    HW282298   0.708   0.014   6.643
26801SOL     OW82299  10.458  10.462   8.546
26801SOL    HW182300  10.489  10.394   8.486
26801SOL    HW282301  10.445  10.417   8.629
26802SOL     OW82302   3.954   6.739  10.305
26802SOL    HW182303   3.933   6.652  10.339
26802SOL    HW282304   3.956   6.728  10.210
26803SOL     OW82305   7.756  12.947   2.442
26803SOL    HW182306   7.682  12.979   2.493
26803SOL    HW282307   7.748  12.852   2.443
26804SOL     OW82308   7.697   8.698  14.826
26804SOL    HW182309   7.735   8.688  14.739
26804SOL    HW282310   7.767   8.735   0.004
26805SOL     OW82311   0.358   4.896   2.333
26805SOL    HW182312   0.382   4.905   2.241
26805SOL    HW282313   0.329   4.983   2.359
26806SOL     OW82314   7.282  11.495  13.986
26806SOL    HW182315   7.337  11.422  14.016
26806SOL    HW282316   7.316  11.571  14.032
26807SOL     OW82317   1.185  12.581   3.661
26807SOL    HW182318   1.096  12.603   3.690
26807SOL    HW282319   1.224  12.666   3.639
26808SOL     OW82320   1.842   9.922  10.271
26808SOL    HW182321   1.760   9.970  10.280
26808SOL    HW282322   1.858   9.918  10.177
26809SOL     OW82323   8.333  14.338   5.442
26809SOL    HW182324   8.358  14.364   5.353
26809SOL    HW282325   8.416  14.329   5.488
26810SOL     OW82326   8.086  10.549   0.104
26810SOL    HW182327   8.055  10.637   0.081
26810SOL    HW282328   8.174  10.545   0.066
26811SOL     OW82329  13.439  14.442   0.413
26811SOL    HW182330  13.470  14.460   0.324
26811SOL    HW282331  13.344  14.455   0.408
26812SOL     OW82332  10.488   6.064   7.479
26812SOL    HW182333  10.472   6.156   7.502
26812SOL    HW282334  10.407   6.036   7.436
26813SOL     OW82335   3.938   6.452   7.035
26813SOL    HW182336   3.862   6.479   7.087
26813SOL    HW282337   3.936   6.510   6.959
26814SOL     OW82338   9.363   7.157   8.776
26814SOL    HW182339   9.339   7.064   8.771
26814SOL    HW282340   9.340   7.192   8.690
26815SOL     OW82341  12.406   7.908  10.900
26815SOL    HW182342  12.369   7.992  10.930
26815SOL    HW282343  12.419   7.921  10.806
26816SOL     OW82344   4.025  13.469  12.022
26816SOL    HW182345   4.094  13.534  12.008
26816SOL    HW282346   3.943  13.516  12.010
26817SOL     OW82347  14.385   5.719   6.606
26817SOL    HW182348  14.375   5.692   6.697
26817SOL    HW282349  14.326   5.794   6.597
26818SOL     OW82350   4.215  14.398  13.035
26818SOL    HW182351   4.290  14.338  13.041
26818SOL    HW282352   4.239  14.472  13.092
26819SOL     OW82353   1.546   1.223  11.624
26819SOL    HW182354   1.629   1.240  11.668
26819SOL    HW282355   1.534   1.128  11.630
26820SOL     OW82356  13.145   7.489  13.306
26820SOL    HW182357  13.112   7.403  13.281
26820SOL    HW282358  13.205   7.513  13.236
26821SOL     OW82359   6.353   6.771   3.661
26821SOL    HW182360   6.302   6.813   3.591
26821SOL    HW282361   6.438   6.753   3.621
26822SOL     OW82362   6.626   7.137   3.950
26822SOL    HW182363   6.643   7.054   3.995
26822SOL    HW282364   6.621   7.114   3.858
26823SOL     OW82365  10.226   0.481   4.760
26823SOL    HW182366  10.232   0.442   4.673
26823SOL    HW282367  10.134   0.473   4.783
26824SOL     OW82368   7.195  14.516   9.906
26824SOL    HW182369   7.208  14.473   9.991
26824SOL    HW282370   7.100  14.518   9.895
26825SOL     OW82371  10.991   2.011   4.161
26825SOL    HW182372  11.006   2.079   4.226
26825SOL    HW282373  10.924   1.955   4.200
26826SOL     OW82374   5.448   8.245   8.063
26826SOL    HW182375   5.529   8.196   8.076
26826SOL    HW282376   5.435   8.245   7.968
26827SOL     OW82377   8.068  12.740   0.597
26827SOL    HW182378   7.997  12.709   0.655
26827SOL    HW282379   8.059  12.835   0.598
26828SOL     OW82380   7.978  13.103   9.631
26828SOL    HW182381   7.969  13.008   9.641
26828SOL    HW282382   8.063  13.124   9.671
26829SOL     OW82383   0.750   5.747   8.619
26829SOL    HW182384   0.770   5.759   8.711
26829SOL    HW282385   0.714   5.831   8.591
26830SOL     OW82386  11.438   1.527  10.581
26830SOL    HW182387  11.487   1.570  10.650
26830SOL    HW282388  11.365   1.586  10.562
26831SOL     OW82389   3.421   6.601  11.748
26831SOL    HW182390   3.410   6.659  11.823
26831SOL    HW282391   3.453   6.658  11.678
26832SOL     OW82392   6.635   2.296   1.196
26832SOL    HW182393   6.618   2.382   1.234
26832SOL    HW282394   6.569   2.239   1.234
26833SOL     OW82395   2.543  11.600  12.837
26833SOL    HW182396   2.451  11.593  12.814
26833SOL    HW282397   2.552  11.548  12.917
26834SOL     OW82398   3.710   4.341   6.828
26834SOL    HW182399   3.696   4.275   6.896
26834SOL    HW282400   3.728   4.290   6.749
26835SOL     OW82401   2.677   6.865   0.855
26835SOL    HW182402   2.771   6.868   0.842
26835SOL    HW282403   2.653   6.954   0.879
26836SOL     OW82404   2.516   1.695   2.965
26836SOL    HW182405   2.573   1.618   2.964
26836SOL    HW282406   2.568   1.765   2.926
26837SOL     OW82407  11.243   8.839  14.345
26837SOL    HW182408  11.179   8.770  14.331
26837SOL    HW282409  11.326   8.802  14.316
26838SOL     OW82410  11.462   1.252   8.416
26838SOL    HW182411  11.405   1.186   8.375
26838SOL    HW282412  11.498   1.207   8.492
26839SOL     OW82413   8.212  13.668   6.118
26839SOL    HW182414   8.301  13.693   6.142
26839SOL    HW282415   8.156  13.734   6.158
26840SOL     OW82416   5.468   3.244   8.227
26840SOL    HW182417   5.444   3.320   8.173
26840SOL    HW282418   5.386   3.198   8.242
26841SOL     OW82419  13.430   4.413  10.204
26841SOL    HW182420  13.437   4.475  10.278
26841SOL    HW282421  13.392   4.465  10.133
26842SOL     OW82422  12.716   5.907  13.634
26842SOL    HW182423  12.640   5.931  13.688
26842SOL    HW282424  12.777   5.980  13.644
26843SOL     OW82425   8.147   9.609   4.633
26843SOL    HW182426   8.143   9.675   4.564
26843SOL    HW282427   8.095   9.645   4.704
26844SOL     OW82428   5.021   0.591   0.904
26844SOL    HW182429   4.968   0.638   0.840
26844SOL    HW282430   5.070   0.660   0.950
26845SOL     OW82431   0.830  11.992  10.677
26845SOL    HW182432   0.742  12.013  10.709
26845SOL    HW282433   0.830  12.021  10.586
26846SOL     OW82434   8.046   6.061   2.881
26846SOL    HW182435   8.058   6.117   2.805
26846SOL    HW282436   8.128   6.069   2.930
26847SOL     OW82437   5.389   2.729   3.311
26847SOL    HW182438   5.411   2.668   3.241
26847SOL    HW282439   5.472   2.767   3.337
26848SOL     OW82440  11.393   8.359  11.615
26848SOL    HW182441  11.323   8.398  11.562
26848SOL    HW282442  11.391   8.407  11.697
26849SOL     OW82443   3.933   6.943   8.344
26849SOL    HW182444   4.007   6.890   8.313
26849SOL    HW282445   3.967   6.988   8.421
26850SOL     OW82446   9.719   2.689   6.024
26850SOL    HW182447   9.703   2.778   5.993
26850SOL    HW282448   9.662   2.634   5.971
26851SOL     OW82449   5.592  13.289   7.587
26851SOL    HW182450   5.516  13.335   7.550
26851SOL    HW282451   5.578  13.197   7.564
26852SOL     OW82452   6.990   1.691   8.053
26852SOL    HW182453   6.963   1.685   7.961
26852SOL    HW282454   6.976   1.783   8.075
26853SOL     OW82455   6.917  11.637   1.427
26853SOL    HW182456   7.002  11.601   1.403
26853SOL    HW282457   6.856  11.598   1.364
26854SOL     OW82458  11.398   4.323   2.849
26854SOL    HW182459  11.431   4.361   2.931
26854SOL    HW282460  11.436   4.378   2.780
26855SOL     OW82461   2.922   7.307  14.748
26855SOL    HW182462   2.836   7.319  14.790
26855SOL    HW282463   2.912   7.349  14.662
26856SOL     OW82464  13.055   1.774   8.955
26856SOL    HW182465  13.002   1.700   8.987
26856SOL    HW282466  12.999   1.850   8.966
26857SOL     OW82467   5.907   2.875   7.228
26857SOL    HW182468   5.818   2.849   7.252
26857SOL    HW282469   5.902   2.970   7.219
26858SOL     OW82470   0.087   2.046  10.851
26858SOL    HW182471   0.168   1.996  10.849
26858SOL    HW282472   0.074   2.077  10.762
26859SOL     OW82473   1.983   7.063   9.889
26859SOL    HW182474   1.970   6.994   9.823
26859SOL    HW282475   1.989   7.144   9.838
26860SOL     OW82476   3.362   8.185  11.554
26860SOL    HW182477   3.293   8.121  11.571
26860SOL    HW282478   3.406   8.197  11.638
26861SOL     OW82479  13.591   9.410   3.762
26861SOL    HW182480  13.644   9.467   3.818
26861SOL    HW282481  13.543   9.355   3.823
26862SOL     OW82482   7.248   6.645  14.350
26862SOL    HW182483   7.339   6.667  14.330
26862SOL    HW282484   7.246   6.549  14.349
26863SOL     OW82485  10.231   7.935   2.640
26863SOL    HW182486  10.306   7.947   2.698
26863SOL    HW282487  10.242   7.848   2.603
26864SOL     OW82488  11.419   9.263  14.138
26864SOL    HW182489  11.348   9.205  14.166
26864SOL    HW282490  11.380   9.350  14.140
26865SOL     OW82491   4.486   3.990   2.249
26865SOL    HW182492   4.404   4.039   2.240
26865SOL    HW282493   4.504   3.957   2.161
26866SOL     OW82494   1.973  14.331   6.850
26866SOL    HW182495   2.031  14.325   6.926
26866SOL    HW282496   1.968  14.242   6.817
26867SOL     OW82497   3.941  12.859   9.600
26867SOL    HW182498   3.856  12.815   9.605
26867SOL    HW282499   4.003  12.787   9.585
26868SOL     OW82500   5.237  13.698   4.674
26868SOL    HW182501   5.210  13.678   4.763
26868SOL    HW282502   5.249  13.793   4.673
26869SOL     OW82503   4.150  10.321   4.269
26869SOL    HW182504   4.119  10.270   4.194
26869SOL    HW282505   4.188  10.400   4.230
26870SOL     OW82506   9.320   7.190   2.692
26870SOL    HW182507   9.236   7.233   2.704
26870SOL    HW282508   9.339   7.150   2.777
26871SOL     OW82509  12.208   1.414   4.860
26871SOL    HW182510  12.170   1.452   4.939
26871SOL    HW282511  12.155   1.448   4.788
26872SOL     OW82512  13.828   3.795   9.648
26872SOL    HW182513  13.781   3.824   9.726
26872SOL    HW282514  13.896   3.737   9.681
26873SOL     OW82515   0.406   0.838  13.730
26873SOL    HW182516   0.417   0.748  13.699
26873SOL    HW282517   0.423   0.833  13.824
26874SOL     OW82518   3.654  14.764   8.173
26874SOL    HW182519   3.611  14.681   8.152
26874SOL    HW282520   3.728  14.739   8.229
26875SOL     OW82521   2.097  12.436   1.954
26875SOL    HW182522   2.176  12.411   1.908
26875SOL    HW282523   2.107  12.399   2.042
26876SOL     OW82524   0.810   0.333   6.491
26876SOL    HW182525   0.721   0.326   6.526
26876SOL    HW282526   0.832   0.426   6.501
26877SOL     OW82527   8.088  13.621   6.787
26877SOL    HW182528   8.123  13.575   6.864
26877SOL    HW282529   8.125  13.574   6.712
26878SOL     OW82530   0.629   0.020  10.255
26878SOL    HW182531   0.629   0.107  10.297
26878SOL    HW282532   0.537   0.006  10.231
26879SOL     OW82533   1.280   3.724   7.274
26879SOL    HW182534   1.286   3.752   7.183
26879SOL    HW282535   1.189   3.696   7.285
26880SOL     OW82536   5.854   2.375   7.074
26880SOL    HW182537   5.779   2.416   7.030
26880SOL    HW282538   5.817   2.300   7.119
26881SOL     OW82539  13.239   6.263  13.412
26881SOL    HW182540  13.182   6.186  13.420
26881SOL    HW282541  13.252   6.292  13.503
26882SOL     OW82542  11.187  10.130   9.354
26882SOL    HW182543  11.148  10.079   9.425
26882SOL    HW282544  11.250  10.187   9.398
26883SOL     OW82545   2.702   9.114   7.025
26883SOL    HW182546   2.611   9.085   7.017
26883SOL    HW282547   2.750   9.057   6.966
26884SOL     OW82548  11.970   8.006  11.917
26884SOL    HW182549  12.002   7.957  11.841
26884SOL    HW282550  12.000   7.955  11.992
26885SOL     OW82551  14.131  13.508   7.234
26885SOL    HW182552  14.071  13.563   7.184
26885SOL    HW282553  14.215  13.517   7.189
26886SOL     OW82554   4.093  12.324   4.036
26886SOL    HW182555   4.134  12.330   3.950
26886SOL    HW282556   4.071  12.231   4.046
26887SOL     OW82557   7.803  11.184  11.997
26887SOL    HW182558   7.870  11.133  11.952
26887SOL    HW282559   7.751  11.118  12.043
26888SOL     OW82560   3.689  10.753   9.881
26888SOL    HW182561   3.710  10.824   9.942
26888SOL    HW282562   3.675  10.797   9.797
26889SOL     OW82563   5.632  11.973   8.501
26889SOL    HW182564   5.640  11.894   8.555
26889SOL    HW282565   5.572  12.029   8.550
26890SOL     OW82566   6.309   1.709  13.524
26890SOL    HW182567   6.401   1.695  13.547
26890SOL    HW282568   6.301   1.803  13.514
26891SOL     OW82569   7.682   3.118   5.098
26891SOL    HW182570   7.747   3.135   5.030
26891SOL    HW282571   7.689   3.024   5.116
26892SOL     OW82572  13.318  10.202   8.933
26892SOL    HW182573  13.330  10.115   8.971
26892SOL    HW282574  13.279  10.186   8.847
26893SOL     OW82575   0.171   2.558   2.508
26893SOL    HW182576   0.229   2.623   2.468
26893SOL    HW282577   0.124   2.607   2.576
26894SOL     OW82578   9.832   1.731   1.805
26894SOL    HW182579   9.879   1.796   1.857
26894SOL    HW282580   9.753   1.776   1.776
26895SOL     OW82581   3.103   8.934   1.577
26895SOL    HW182582   3.102   8.968   1.488
26895SOL    HW282583   3.064   9.003   1.630
26896SOL     OW82584  11.765   0.072  11.733
26896SOL    HW182585  11.762  14.858  11.698
26896SOL    HW282586  11.689   0.116  11.695
26897SOL     OW82587   7.901  12.311   3.698
26897SOL    HW182588   7.850  12.262   3.633
26897SOL    HW282589   7.838  12.369   3.740
26898SOL     OW82590   1.582   3.855   9.882
26898SOL    HW182591   1.559   3.851   9.789
26898SOL    HW282592   1.529   3.927   9.916
26899SOL     OW82593  10.261   7.702   5.681
26899SOL    HW182594  10.233   7.653   5.759
26899SOL    HW282595  10.204   7.778   5.679
26900SOL     OW82596  10.479  10.050   9.066
26900SOL    HW182597  10.389  10.051   9.099
26900SOL    HW282598  10.531  10.092   9.136
26901SOL     OW82599   7.715  10.219   6.024
26901SOL    HW182600   7.640  10.195   6.078
26901SOL    HW282601   7.716  10.314   6.025
26902SOL     OW82602   2.185  11.983   4.951
26902SOL    HW182603   2.137  11.962   4.871
26902SOL    HW282604   2.257  12.039   4.923
26903SOL     OW82605  12.777   3.334   0.568
26903SOL    HW182606  12.741   3.269   0.629
26903SOL    HW282607  12.759   3.297   0.482
26904SOL     OW82608   6.036  12.254  14.776
26904SOL    HW182609   6.073  12.208  14.851
26904SOL    HW282610   6.072  12.343  14.783
26905SOL     OW82611  14.447   0.792  13.122
26905SOL    HW182612  14.436   0.697  13.129
26905SOL    HW282613  14.451   0.822  13.213
26906SOL     OW82614  11.509   3.543   2.020
26906SOL    HW182615  11.603   3.559   2.012
26906SOL    HW282616  11.492   3.546   2.114
26907SOL     OW82617   6.464   6.051  13.159
26907SOL    HW182618   6.425   6.029  13.074
26907SOL    HW282619   6.534   5.987  13.171
26908SOL     OW82620  10.474   1.252  13.538
26908SOL    HW182621  10.397   1.212  13.498
26908SOL    HW282622  10.437   1.312  13.604
26909SOL     OW82623  13.529   1.487  10.728
26909SOL    HW182624  13.556   1.549  10.661
26909SOL    HW282625  13.529   1.538  10.809
26910SOL     OW82626   8.786   0.021  10.085
26910SOL    HW182627   8.843   0.095  10.108
26910SOL    HW282628   8.698   0.052  10.106
26911SOL     OW82629   6.846   5.650  11.541
26911SOL    HW182630   6.775   5.598  11.578
26911SOL    HW282631   6.807   5.695  11.466
26912SOL     OW82632   9.841   3.747  11.760
26912SOL    HW182633   9.900   3.821  11.744
26912SOL    HW282634   9.769   3.759  11.698
26913SOL     OW82635   4.028  13.329   6.830
26913SOL    HW182636   4.121  13.322   6.811
26913SOL    HW282637   4.015  13.422   6.849
26914SOL     OW82638  14.344  12.536   6.656
26914SOL    HW182639  14.386  12.586   6.726
26914SOL    HW282640  14.252  12.561   6.661
26915SOL     OW82641  12.173   6.611  12.673
26915SOL    HW182642  12.213   6.555  12.740
26915SOL    HW282643  12.200   6.700  12.696
26916SOL     OW82644   7.758   2.556   7.660
26916SOL    HW182645   7.775   2.635   7.711
26916SOL    HW282646   7.843   2.511   7.658
26917SOL     OW82647  11.181  11.087  11.725
26917SOL    HW182648  11.225  11.025  11.782
26917SOL    HW282649  11.191  11.051  11.637
26918SOL     OW82650  13.320   2.498   5.335
26918SOL    HW182651  13.270   2.512   5.255
26918SOL    HW282652  13.268   2.433   5.384
26919SOL     OW82653   6.559   0.640  14.867
26919SOL    HW182654   6.580   0.731  14.849
26919SOL    HW282655   6.598   0.591  14.795
26920SOL     OW82656   4.480   8.582   1.762
26920SOL    HW182657   4.561   8.610   1.718
26920SOL    HW282658   4.457   8.655   1.819
26921SOL     OW82659  13.579   4.724   1.001
26921SOL    HW182660  13.528   4.795   1.041
26921SOL    HW282661  13.613   4.674   1.076
26922SOL     OW82662  12.689  13.880   2.136
26922SOL    HW182663  12.605  13.909   2.171
26922SOL    HW282664  12.669  13.800   2.088
26923SOL     OW82665   7.125   2.206  10.496
26923SOL    HW182666   7.066   2.143  10.538
26923SOL    HW282667   7.116   2.189  10.403
26924SOL     OW82668   4.791  14.627   8.755
26924SOL    HW182669   4.704  14.629   8.715
26924SOL    HW282670   4.849  14.663   8.688
26925SOL     OW82671   2.642  12.593  14.391
26925SOL    HW182672   2.709  12.601  14.324
26925SOL    HW282673   2.676  12.527  14.451
26926SOL     OW82674  14.410  10.394   7.108
26926SOL    HW182675  14.382  10.441   7.030
26926SOL    HW282676  14.417  10.462   7.175
26927SOL     OW82677  10.872   5.320  13.294
26927SOL    HW182678  10.967   5.331  13.291
26927SOL    HW282679  10.842   5.379  13.363
26928SOL     OW82680  13.165   8.043  13.535
26928SOL    HW182681  13.123   7.980  13.594
26928SOL    HW282682  13.113   8.040  13.455
26929SOL     OW82683   6.169   0.393   1.617
26929SOL    HW182684   6.262   0.413   1.629
26929SOL    HW282685   6.160   0.302   1.644
26930SOL     OW82686   3.091   6.386   6.796
26930SOL    HW182687   3.040   6.311   6.764
26930SOL    HW282688   3.039   6.462   6.771
26931SOL     OW82689  14.115   5.691   8.794
26931SOL    HW182690  14.087   5.622   8.855
26931SOL    HW282691  14.036   5.744   8.781
26932SOL     OW82692  13.548   1.615   9.584
26932SOL    HW182693  13.523   1.536   9.535
26932SOL    HW282694  13.467   1.665   9.591
26933SOL     OW82695   3.507   5.163   8.930
26933SOL    HW182696   3.451   5.188   9.004
26933SOL    HW282697   3.590   5.208   8.947
26934SOL     OW82698   2.700  12.305   1.690
26934SOL    HW182699   2.708  12.230   1.748
26934SOL    HW282700   2.739  12.378   1.738
26935SOL     OW82701  11.526   3.839   5.327
26935SOL    HW182702  11.492   3.751   5.342
26935SOL    HW282703  11.452   3.887   5.288
26936SOL     OW82704   9.495  11.103  10.589
26936SOL    HW182705   9.515  11.146  10.672
26936SOL    HW282706   9.522  11.167  10.522
26937SOL     OW82707   3.261   8.106   6.134
26937SOL    HW182708   3.238   8.148   6.217
26937SOL    HW282709   3.177   8.084   6.094
26938SOL     OW82710   7.193  10.339   4.839
26938SOL    HW182711   7.284  10.368   4.832
26938SOL    HW282712   7.197  10.244   4.831
26939SOL     OW82713   8.185  12.770   6.119
26939SOL    HW182714   8.092  12.780   6.140
26939SOL    HW282715   8.225  12.850   6.154
26940SOL     OW82716  11.516   7.923   8.183
26940SOL    HW182717  11.490   7.893   8.096
26940SOL    HW282718  11.582   7.860   8.211
26941SOL     OW82719   2.447   1.956  11.457
26941SOL    HW182720   2.398   1.884  11.497
26941SOL    HW282721   2.379   2.015  11.423
26942SOL     OW82722   2.028  12.087   1.059
26942SOL    HW182723   2.117  12.072   1.091
26942SOL    HW282724   2.010  12.178   1.081
26943SOL     OW82725   7.224   0.328   7.395
26943SOL    HW182726   7.311   0.366   7.380
26943SOL    HW282727   7.199   0.359   7.481
26944SOL     OW82728   5.288   9.278   3.220
26944SOL    HW182729   5.194   9.274   3.205
26944SOL    HW282730   5.326   9.296   3.134
26945SOL     OW82731   9.482   8.670  12.148
26945SOL    HW182732   9.546   8.598  12.144
26945SOL    HW282733   9.536   8.748  12.163
26946SOL     OW82734   5.094  13.837   3.369
26946SOL    HW182735   5.065  13.770   3.430
26946SOL    HW282736   5.016  13.858   3.317
26947SOL     OW82737   5.282   0.174   8.880
26947SOL    HW182738   5.305   0.262   8.910
26947SOL    HW282739   5.239   0.134   8.956
26948SOL     OW82740   2.135   1.475  10.961
26948SOL    HW182741   2.111   1.411  11.027
26948SOL    HW282742   2.091   1.445  10.881
26949SOL     OW82743  12.125   0.413   6.126
26949SOL    HW182744  12.138   0.361   6.205
26949SOL    HW282745  12.083   0.354   6.064
26950SOL     OW82746  13.563   7.202  11.893
26950SOL    HW182747  13.566   7.293  11.863
26950SOL    HW282748  13.491   7.200  11.956
26951SOL     OW82749   2.370  11.110   1.808
26951SOL    HW182750   2.355  11.153   1.723
26951SOL    HW282751   2.401  11.022   1.785
26952SOL     OW82752   7.354   5.954   5.245
26952SOL    HW182753   7.283   5.895   5.268
26952SOL    HW282754   7.323   6.000   5.167
26953SOL     OW82755   1.486  13.298   1.154
26953SOL    HW182756   1.536  13.227   1.114
26953SOL    HW282757   1.440  13.257   1.228
26954SOL     OW82758   2.621   6.226  11.864
26954SOL    HW182759   2.553   6.282  11.825
26954SOL    HW282760   2.703   6.265  11.834
26955SOL     OW82761   3.216   3.986   1.133
26955SOL    HW182762   3.146   3.993   1.068
26955SOL    HW282763   3.285   3.938   1.089
26956SOL     OW82764   2.333   0.233   6.318
26956SOL    HW182765   2.368   0.184   6.243
26956SOL    HW282766   2.393   0.308   6.327
26957SOL     OW82767   5.919   6.731  11.200
26957SOL    HW182768   5.857   6.737  11.273
26957SOL    HW282769   5.878   6.779  11.129
26958SOL     OW82770  10.203   2.784   1.119
26958SOL    HW182771  10.266   2.814   1.184
26958SOL    HW282772  10.252   2.723   1.064
26959SOL     OW82773  12.068   3.245   2.275
26959SOL    HW182774  12.115   3.187   2.335
26959SOL    HW282775  12.128   3.261   2.203
26960SOL     OW82776  13.643  10.471   9.900
26960SOL    HW182777  13.658  10.377   9.895
26960SOL    HW282778  13.572  10.488   9.838
26961SOL     OW82779   2.983   4.054   6.188
26961SOL    HW182780   3.024   4.109   6.255
26961SOL    HW282781   2.965   3.971   6.233
26962SOL     OW82782   6.848   9.626   5.177
26962SOL    HW182783   6.933   9.645   5.217
26962SOL    HW282784   6.812   9.553   5.229
26963SOL     OW82785  14.425  10.333   3.019
26963SOL    HW182786  14.462  10.274   3.084
26963SOL    HW282787  14.407  10.414   3.067
26964SOL     OW82788  10.970   7.034   2.947
26964SOL    HW182789  10.916   7.030   2.868
26964SOL    HW282790  10.920   6.990   3.014
26965SOL     OW82791  10.683  11.182   6.886
26965SOL    HW182792  10.756  11.244   6.896
26965SOL    HW282793  10.701  11.114   6.951
26966SOL     OW82794   8.412  14.051  14.776
26966SOL    HW182795   8.430  14.015  14.689
26966SOL    HW282796   8.448  14.140  14.772
26967SOL     OW82797  14.015   1.190   8.582
26967SOL    HW182798  13.955   1.170   8.653
26967SOL    HW282799  13.985   1.135   8.509
26968SOL     OW82800  12.009   7.778   0.352
26968SOL    HW182801  12.014   7.686   0.324
26968SOL    HW282802  12.099   7.810   0.343
26969SOL     OW82803  14.655   2.149   7.211
26969SOL    HW182804  14.617   2.195   7.286
26969SOL    HW282805  14.690   2.068   7.248
26970SOL     OW82806  14.196  13.405  11.366
26970SOL    HW182807  14.154  13.356  11.437
26970SOL    HW282808  14.124  13.424  11.306
26971SOL     OW82809  10.746   8.321  13.213
26971SOL    HW182810  10.674   8.378  13.184
26971SOL    HW282811  10.800   8.309  13.135
26972SOL     OW82812   2.383  14.254   4.327
26972SOL    HW182813   2.338  14.216   4.252
26972SOL    HW282814   2.410  14.341   4.297
26973SOL     OW82815   7.339   8.155   6.931
26973SOL    HW182816   7.423   8.165   6.886
26973SOL    HW282817   7.328   8.235   6.981
26974SOL     OW82818   8.566  12.830   6.130
26974SOL    HW182819   8.595  12.744   6.159
26974SOL    HW282820   8.552  12.820   6.035
26975SOL     OW82821   2.571   1.267  11.467
26975SOL    HW182822   2.482   1.232  11.470
26975SOL    HW282823   2.612   1.234  11.547
26976SOL     OW82824   1.454  10.016   7.417
26976SOL    HW182825   1.495   9.941   7.459
26976SOL    HW282826   1.405  10.059   7.487
26977SOL     OW82827   7.346   1.429   1.456
26977SOL    HW182828   7.326   1.523   1.447
26977SOL    HW282829   7.334   1.393   1.369
26978SOL     OW82830   8.371  11.689  12.042
26978SOL    HW182831   8.293  11.676  11.988
26978SOL    HW282832   8.362  11.777  12.078
26979SOL     OW82833   9.291   9.244   7.251
26979SOL    HW182834   9.262   9.154   7.266
26979SOL    HW282835   9.345   9.239   7.172
26980SOL     OW82836   0.202   9.183  13.031
26980SOL    HW182837   0.257   9.163  13.106
26980SOL    HW282838   0.113   9.185  13.066
26981SOL     OW82839   2.577   5.257   6.159
26981SOL    HW182840   2.544   5.168   6.151
26981SOL    HW282841   2.591   5.286   6.069
26982SOL     OW82842   3.294  13.263   3.024
26982SOL    HW182843   3.240  13.184   3.021
26982SOL    HW282844   3.273  13.310   2.944
26983SOL     OW82845   9.817   4.020   5.688
26983SOL    HW182846   9.736   3.981   5.721
26983SOL    HW282847   9.814   4.110   5.718
26984SOL     OW82848   1.783  10.183   9.653
26984SOL    HW182849   1.838  10.223   9.585
26984SOL    HW282850   1.838  10.182   9.731
26985SOL     OW82851  11.515  11.185   6.996
26985SOL    HW182852  11.455  11.149   7.062
26985SOL    HW282853  11.459  11.203   6.920
26986SOL     OW82854   0.638  10.858  11.234
26986SOL    HW182855   0.638  10.859  11.330
26986SOL    HW282856   0.547  10.841  11.210
26987SOL     OW82857   0.583   0.124   3.942
26987SOL    HW182858   0.492   0.127   3.914
26987SOL    HW282859   0.618   0.211   3.920
26988SOL     OW82860   2.443   1.958   2.014
26988SOL    HW182861   2.406   1.907   2.086
26988SOL    HW282862   2.510   1.902   1.976
26989SOL     OW82863   2.355  11.351   5.725
26989SOL    HW182864   2.306  11.353   5.643
26989SOL    HW282865   2.301  11.400   5.787
26990SOL     OW82866   0.758   1.622   4.730
26990SOL    HW182867   0.720   1.707   4.706
26990SOL    HW282868   0.834   1.645   4.784
26991SOL     OW82869   0.190  10.044  11.279
26991SOL    HW182870   0.155   9.972  11.331
26991SOL    HW282871   0.285  10.037  11.289
26992SOL     OW82872   8.581  12.672  10.117
26992SOL    HW182873   8.625  12.757  10.111
26992SOL    HW282874   8.515  12.683  10.186
26993SOL     OW82875   1.676   5.826   8.067
26993SOL    HW182876   1.598   5.821   8.011
26993SOL    HW282877   1.742   5.867   8.012
26994SOL     OW82878   3.131  11.530   6.132
26994SOL    HW182879   3.126  11.529   6.227
26994SOL    HW282880   3.117  11.622   6.108
26995SOL     OW82881   2.121  11.624   2.761
26995SOL    HW182882   2.062  11.577   2.702
26995SOL    HW282883   2.208  11.612   2.723
26996SOL     OW82884   0.292   3.904  14.827
26996SOL    HW182885   0.384   3.877  14.827
26996SOL    HW282886   0.292   3.989  14.872
26997SOL     OW82887  12.734   3.602  14.022
26997SOL    HW182888  12.773   3.564  13.943
26997SOL    HW282889  12.793   3.574  14.092
26998SOL     OW82890  14.258  10.651   8.296
26998SOL    HW182891  14.304  10.686   8.372
26998SOL    HW282892  14.273  10.556   8.300
26999SOL     OW82893   9.925   2.169  14.377
26999SOL    HW182894   9.873   2.095  14.407
26999SOL    HW282895   9.953   2.214  14.457
27000SOL     OW82896   4.906   8.129   7.886
27000SOL    HW182897   4.975   8.110   7.823
27000SOL    HW282898   4.867   8.044   7.906
27001SOL     OW82899   5.349  12.687   8.992
27001SOL    HW182900   5.365  12.623   9.061
27001SOL    HW282901   5.357  12.772   9.037
27002SOL     OW82902   2.380   8.061   3.734
27002SOL    HW182903   2.369   8.062   3.639
27002SOL    HW282904   2.391   7.968   3.755
27003SOL     OW82905  11.253   0.210  12.701
27003SOL    HW182906  11.331   0.193  12.647
27003SOL    HW282907  11.264   0.301  12.730
27004SOL     OW82908   6.886   5.682   6.036
27004SOL    HW182909   6.813   5.742   6.023
27004SOL    HW282910   6.858   5.625   6.107
27005SOL     OW82911  12.188   2.018   9.436
27005SOL    HW182912  12.210   2.097   9.486
27005SOL    HW282913  12.146   1.961   9.500
27006SOL     OW82914  13.740   7.267   8.085
27006SOL    HW182915  13.785   7.351   8.098
27006SOL    HW282916  13.769   7.237   7.999
27007SOL     OW82917  10.211   8.064   6.919
27007SOL    HW182918  10.213   8.159   6.928
27007SOL    HW282919  10.158   8.048   6.841
27008SOL     OW82920   6.994  11.250   3.169
27008SOL    HW182921   7.071  11.247   3.112
27008SOL    HW282922   6.991  11.163   3.210
27009SOL     OW82923   7.669  14.683   4.279
27009SOL    HW182924   7.646  14.595   4.309
27009SOL    HW282925   7.739  14.711   4.338
27010SOL     OW82926  13.676   2.730   5.556
27010SOL    HW182927  13.704   2.728   5.647
27010SOL    HW282928  13.588   2.693   5.557
27011SOL     OW82929   1.209   5.706  11.157
27011SOL    HW182930   1.208   5.798  11.130
27011SOL    HW282931   1.124   5.691  11.197
27012SOL     OW82932   3.152  10.990   8.409
27012SOL    HW182933   3.143  11.000   8.504
27012SOL    HW282934   3.185  10.902   8.397
27013SOL     OW82935   1.081   8.056   8.506
27013SOL    HW182936   1.159   8.028   8.554
27013SOL    HW282937   1.073   8.149   8.527
27014SOL     OW82938   1.148   2.700   0.570
27014SOL    HW182939   1.149   2.609   0.542
27014SOL    HW282940   1.231   2.713   0.616
27015SOL     OW82941  13.922   5.303  10.653
27015SOL    HW182942  13.985   5.232  10.662
27015SOL    HW282943  13.859   5.288  10.724
27016SOL     OW82944   3.289   0.747  13.529
27016SOL    HW182945   3.205   0.723  13.568
27016SOL    HW282946   3.300   0.685  13.457
27017SOL     OW82947   1.927   8.584  12.851
27017SOL    HW182948   1.836   8.614  12.853
27017SOL    HW282949   1.944   8.553  12.940
27018SOL     OW82950   3.650   5.952  11.513
27018SOL    HW182951   3.685   6.012  11.579
27018SOL    HW282952   3.719   5.946  11.447
27019SOL     OW82953  10.657   2.378  13.458
27019SOL    HW182954  10.669   2.284  13.450
27019SOL    HW282955  10.663   2.395  13.552
27020SOL     OW82956   7.483   4.228  10.846
27020SOL    HW182957   7.552   4.162  10.857
27020SOL    HW282958   7.454   4.247  10.935
27021SOL     OW82959   3.093   5.671   1.959
27021SOL    HW182960   3.072   5.761   1.934
27021SOL    HW282961   3.151   5.680   2.035
27022SOL     OW82962   9.185  11.383   3.349
27022SOL    HW182963   9.152  11.471   3.366
27022SOL    HW282964   9.107  11.329   3.342
27023SOL     OW82965   8.483  12.638   6.552
27023SOL    HW182966   8.501  12.685   6.633
27023SOL    HW282967   8.471  12.706   6.486
27024SOL     OW82968   9.400  10.916  13.249
27024SOL    HW182969   9.320  10.953  13.287
27024SOL    HW282970   9.411  10.962  13.166
27025SOL     OW82971   6.537   4.486   6.155
27025SOL    HW182972   6.508   4.428   6.226
27025SOL    HW282973   6.457   4.529   6.125
27026SOL     OW82974  11.186   3.339   6.355
27026SOL    HW182975  11.164   3.372   6.268
27026SOL    HW282976  11.137   3.257   6.363
27027SOL     OW82977  11.859   3.048  12.702
27027SOL    HW182978  11.850   2.966  12.654
27027SOL    HW282979  11.809   3.112  12.651
27028SOL     OW82980  12.235   3.249  10.758
27028SOL    HW182981  12.179   3.196  10.701
27028SOL    HW282982  12.325   3.225  10.732
27029SOL     OW82983  14.747   5.456   3.046
27029SOL    HW182984  14.750   5.501   2.962
27029SOL    HW282985  14.751   5.363   3.024
27030SOL     OW82986   2.337  10.807   8.892
27030SOL    HW182987   2.311  10.779   8.804
27030SOL    HW282988   2.413  10.753   8.913
27031SOL     OW82989   2.096   9.425  10.654
27031SOL    HW182990   2.174   9.478  10.635
27031SOL    HW282991   2.066   9.456  10.740
27032SOL     OW82992   3.618   2.865   8.070
27032SOL    HW182993   3.564   2.923   8.016
27032SOL    HW282994   3.572   2.860   8.154
27033SOL     OW82995   2.355  10.002   9.654
27033SOL    HW182996   2.353   9.911   9.626
27033SOL    HW282997   2.266  10.021   9.682
27034SOL     OW82998   5.739   5.033  12.765
27034SOL    HW182999   5.663   4.989  12.804
27034SOL    HW283000   5.705   5.114  12.730
27035SOL     OW83001  10.764   7.155   5.236
27035SOL    HW183002  10.736   7.064   5.225
27035SOL    HW283003  10.683   7.206   5.230
27036SOL     OW83004  14.823  14.816   1.650
27036SOL    HW183005   0.006  14.830   1.575
27036SOL    HW283006  14.812  14.721   1.655
27037SOL     OW83007  10.222   7.368   5.001
27037SOL    HW183008  10.287   7.397   4.937
27037SOL    HW283009  10.186   7.288   4.964
27038SOL     OW83010  11.328  12.785   8.272
27038SOL    HW183011  11.264  12.753   8.208
27038SOL    HW283012  11.390  12.713   8.283
27039SOL     OW83013   8.244  11.440   8.467
27039SOL    HW183014   8.230  11.522   8.420
27039SOL    HW283015   8.207  11.456   8.554
27040SOL     OW83016   0.188   1.823   8.157
27040SOL    HW183017   0.154   1.767   8.227
27040SOL    HW283018   0.208   1.763   8.085
27041SOL     OW83019  11.803   4.188   6.494
27041SOL    HW183020  11.747   4.116   6.522
27041SOL    HW283021  11.891   4.151   6.495
27042SOL     OW83022   0.622  12.577   8.158
27042SOL    HW183023   0.586  12.652   8.204
27042SOL    HW283024   0.715  12.595   8.150
27043SOL     OW83025   6.450   4.622   3.546
27043SOL    HW183026   6.386   4.567   3.591
27043SOL    HW283027   6.499   4.664   3.616
27044SOL     OW83028   8.833   3.770   1.800
27044SOL    HW183029   8.896   3.738   1.736
27044SOL    HW283030   8.883   3.778   1.881
27045SOL     OW83031  10.086  10.939   9.527
27045SOL    HW183032  10.002  10.983   9.543
27045SOL    HW283033  10.108  10.899   9.611
27046SOL     OW83034   0.091   5.804   9.461
27046SOL    HW183035   0.127   5.889   9.488
27046SOL    HW283036   0.116   5.744   9.531
27047SOL     OW83037   8.007  13.368   4.339
27047SOL    HW183038   7.913  13.355   4.339
27047SOL    HW283039   8.042  13.298   4.394
27048SOL     OW83040   0.812   8.649   3.968
27048SOL    HW183041   0.824   8.743   3.951
27048SOL    HW283042   0.898   8.619   3.998
27049SOL     OW83043   5.363   4.752   9.095
27049SOL    HW183044   5.385   4.811   9.167
27049SOL    HW283045   5.441   4.696   9.086
27050SOL     OW83046  12.849  10.766   0.581
27050SOL    HW183047  12.884  10.734   0.499
27050SOL    HW283048  12.871  10.698   0.645
27051SOL     OW83049  12.320  10.917  10.892
27051SOL    HW183050  12.271  10.885  10.816
27051SOL    HW283051  12.255  10.920  10.962
27052SOL     OW83052   8.479   2.268  11.981
27052SOL    HW183053   8.422   2.330  11.934
27052SOL    HW283054   8.427   2.241  12.056
27053SOL     OW83055   5.741  10.045   2.256
27053SOL    HW183056   5.748  10.069   2.349
27053SOL    HW283057   5.717   9.952   2.258
27054SOL     OW83058  13.691  11.622   4.439
27054SOL    HW183059  13.662  11.532   4.451
27054SOL    HW283060  13.612  11.670   4.415
27055SOL     OW83061   3.579   7.254   5.344
27055SOL    HW183062   3.673   7.237   5.350
27055SOL    HW283063   3.572   7.319   5.273
27056SOL     OW83064  14.660   6.912   9.699
27056SOL    HW183065  14.643   6.837   9.642
27056SOL    HW283066  14.574   6.949   9.717
27057SOL     OW83067  13.882   4.947   6.333
27057SOL    HW183068  13.925   4.903   6.260
27057SOL    HW283069  13.796   4.973   6.300
27058SOL     OW83070   2.534   9.444  13.336
27058SOL    HW183071   2.496   9.371  13.385
27058SOL    HW283072   2.488   9.444  13.253
27059SOL     OW83073   3.680  11.967   5.376
27059SOL    HW183074   3.673  12.059   5.351
27059SOL    HW283075   3.774  11.948   5.372
27060SOL     OW83076   6.467   5.071  12.774
27060SOL    HW183077   6.500   5.046  12.688
27060SOL    HW283078   6.506   5.156  12.791
27061SOL     OW83079  14.419   4.467  12.523
27061SOL    HW183080  14.384   4.538  12.577
27061SOL    HW283081  14.412   4.389  12.578
27062SOL     OW83082   7.493   2.107  11.040
27062SOL    HW183083   7.507   2.019  11.004
27062SOL    HW283084   7.418   2.141  10.992
27063SOL     OW83085   4.380  10.917   7.419
27063SOL    HW183086   4.288  10.912   7.445
27063SOL    HW283087   4.396  11.010   7.403
27064SOL     OW83088   9.404  10.630   5.833
27064SOL    HW183089   9.450  10.549   5.815
27064SOL    HW283090   9.469  10.686   5.876
27065SOL     OW83091  12.495   3.471  14.605
27065SOL    HW183092  12.556   3.412  14.648
27065SOL    HW283093  12.410   3.449  14.641
27066SOL     OW83094   3.655   9.673  13.920
27066SOL    HW183095   3.572   9.646  13.880
27066SOL    HW283096   3.644   9.767  13.937
27067SOL     OW83097  11.217   7.425   2.805
27067SOL    HW183098  11.307   7.444   2.831
27067SOL    HW283099  11.199   7.338   2.840
27068SOL     OW83100   5.547   1.670   2.145
27068SOL    HW183101   5.483   1.712   2.201
27068SOL    HW283102   5.532   1.707   2.058
27069SOL     OW83103  11.061   4.145  11.765
27069SOL    HW183104  10.982   4.156  11.818
27069SOL    HW283105  11.058   4.054  11.736
27070SOL     OW83106   9.075   8.100   6.779
27070SOL    HW183107   9.023   8.030   6.743
27070SOL    HW283108   9.166   8.073   6.764
27071SOL     OW83109  13.772   4.022   2.716
27071SOL    HW183110  13.760   4.075   2.794
27071SOL    HW283111  13.689   4.027   2.670
27072SOL     OW83112  12.173  10.736   3.529
27072SOL    HW183113  12.260  10.707   3.501
27072SOL    HW283114  12.188  10.822   3.569
27073SOL     OW83115   2.232  10.414  13.572
27073SOL    HW183116   2.176  10.418  13.495
27073SOL    HW283117   2.262  10.323  13.576
27074SOL     OW83118   1.393   5.688   8.408
27074SOL    HW183119   1.323   5.677   8.344
27074SOL    HW283120   1.348   5.707   8.491
27075SOL     OW83121   9.148   0.974   7.467
27075SOL    HW183122   9.163   0.987   7.560
27075SOL    HW283123   9.137   1.063   7.432
27076SOL     OW83124   8.088  11.139  12.441
27076SOL    HW183125   8.141  11.067  12.475
27076SOL    HW283126   8.009  11.096  12.407
27077SOL     OW83127   0.376   1.453   7.466
27077SOL    HW183128   0.462   1.496   7.463
27077SOL    HW283129   0.314   1.526   7.471
27078SOL     OW83130  13.679  10.942  13.672
27078SOL    HW183131  13.702  11.015  13.730
27078SOL    HW283132  13.758  10.927  13.620
27079SOL     OW83133   2.781   2.242  13.813
27079SOL    HW183134   2.841   2.167  13.817
27079SOL    HW283135   2.711   2.219  13.873
27080SOL     OW83136   7.253   0.742  13.262
27080SOL    HW183137   7.175   0.721  13.313
27080SOL    HW283138   7.309   0.790  13.323
27081SOL     OW83139   7.538   7.889   9.896
27081SOL    HW183140   7.582   7.836   9.962
27081SOL    HW283141   7.536   7.977   9.933
27082SOL     OW83142  13.981   7.704   3.326
27082SOL    HW183143  13.998   7.622   3.281
27082SOL    HW283144  14.059   7.757   3.312
27083SOL     OW83145   1.710   1.230   4.303
27083SOL    HW183146   1.797   1.190   4.305
27083SOL    HW283147   1.649   1.157   4.317
27084SOL     OW83148   7.771   5.449   7.190
27084SOL    HW183149   7.808   5.419   7.107
27084SOL    HW283150   7.770   5.544   7.183
27085SOL     OW83151   3.558   2.015  11.705
27085SOL    HW183152   3.645   2.002  11.668
27085SOL    HW283153   3.541   1.935  11.755
27086SOL     OW83154   5.467  10.659  14.204
27086SOL    HW183155   5.387  10.626  14.163
27086SOL    HW283156   5.529  10.587  14.198
27087SOL     OW83157   7.314  11.162  10.527
27087SOL    HW183158   7.317  11.236  10.588
27087SOL    HW283159   7.375  11.185  10.458
27088SOL     OW83160   2.989  13.748  12.135
27088SOL    HW183161   3.038  13.798  12.199
27088SOL    HW283162   2.956  13.672  12.183
27089SOL     OW83163   6.756  11.371  13.475
27089SOL    HW183164   6.789  11.387  13.563
27089SOL    HW283165   6.777  11.279  13.458
27090SOL     OW83166  12.488   4.645   7.200
27090SOL    HW183167  12.549   4.704   7.155
27090SOL    HW283168  12.485   4.567   7.145
27091SOL     OW83169  11.673  14.214   0.736
27091SOL    HW183170  11.686  14.198   0.830
27091SOL    HW283171  11.748  14.268   0.710
27092SOL     OW83172  11.131   8.384  10.051
27092SOL    HW183173  11.117   8.443  10.125
27092SOL    HW283174  11.051   8.332  10.046
27093SOL     OW83175   0.836   9.733   5.485
27093SOL    HW183176   0.884   9.811   5.510
27093SOL    HW283177   0.856   9.669   5.553
27094SOL     OW83178   2.109   9.369   8.997
27094SOL    HW183179   2.187   9.328   8.960
27094SOL    HW283180   2.118   9.356   9.091
27095SOL     OW83181   5.666   3.716  12.878
27095SOL    HW183182   5.630   3.805  12.870
27095SOL    HW283183   5.689   3.693  12.788
27096SOL     OW83184   3.964   4.664   0.103
27096SOL    HW183185   3.968   4.716   0.023
27096SOL    HW283186   3.964   4.573   0.073
27097SOL     OW83187  10.669  13.955   7.995
27097SOL    HW183188  10.581  13.932   8.024
27097SOL    HW283189  10.658  14.035   7.944
27098SOL     OW83190   9.593   2.645   8.119
27098SOL    HW183191   9.543   2.690   8.051
27098SOL    HW283192   9.680   2.685   8.115
27099SOL     OW83193  12.253   8.758  13.034
27099SOL    HW183194  12.287   8.716  13.113
27099SOL    HW283195  12.160   8.771  13.051
27100SOL     OW83196   9.300  14.767  11.623
27100SOL    HW183197   9.240  14.842  11.619
27100SOL    HW283198   9.244  14.691  11.607
27101SOL     OW83199   6.758   9.060   9.717
27101SOL    HW183200   6.686   9.119   9.742
27101SOL    HW283201   6.831   9.119   9.698
27102SOL     OW83202  12.391   0.914   5.617
27102SOL    HW183203  12.383   1.000   5.656
27102SOL    HW283204  12.459   0.870   5.669
27103SOL     OW83205   3.145  10.827   7.620
27103SOL    HW183206   3.146  10.869   7.534
27103SOL    HW283207   3.131  10.734   7.601
27104SOL     OW83208   6.384   6.113   3.882
27104SOL    HW183209   6.447   6.160   3.937
27104SOL    HW283210   6.355   6.179   3.818
27105SOL     OW83211  13.656  14.059  10.827
27105SOL    HW183212  13.705  13.982  10.854
27105SOL    HW283213  13.616  14.034  10.743
27106SOL     OW83214   0.609   9.414   7.577
27106SOL    HW183215   0.539   9.404   7.642
27106SOL    HW283216   0.633   9.507   7.582
27107SOL     OW83217   8.122   7.428  13.270
27107SOL    HW183218   8.078   7.353  13.230
27107SOL    HW283219   8.083   7.435  13.357
27108SOL     OW83220  14.513   3.081   1.866
27108SOL    HW183221  14.605   3.064   1.848
27108SOL    HW283222  14.511   3.170   1.900
27109SOL     OW83223   9.151   0.980  14.552
27109SOL    HW183224   9.108   0.936  14.625
27109SOL    HW283225   9.235   1.008  14.588
27110SOL     OW83226   1.388  10.162   4.704
27110SOL    HW183227   1.307  10.148   4.654
27110SOL    HW283228   1.367  10.129   4.791
27111SOL     OW83229   3.456   5.943   7.114
27111SOL    HW183230   3.459   5.848   7.106
27111SOL    HW283231   3.548   5.971   7.110
27112SOL     OW83232   8.196  13.533   2.802
27112SOL    HW183233   8.195  13.443   2.769
27112SOL    HW283234   8.167  13.525   2.893
27113SOL     OW83235   3.334  13.992  10.742
27113SOL    HW183236   3.263  13.964  10.800
27113SOL    HW283237   3.336  14.088  10.752
27114SOL     OW83238  10.550   5.723   6.411
27114SOL    HW183239  10.503   5.788   6.359
27114SOL    HW283240  10.483   5.687   6.470
27115SOL     OW83241   3.032  11.283   6.531
27115SOL    HW183242   2.947  11.325   6.516
27115SOL    HW283243   3.067  11.328   6.608
27116SOL     OW83244  13.147  12.078   4.305
27116SOL    HW183245  13.230  12.052   4.265
27116SOL    HW283246  13.170  12.104   4.394
27117SOL     OW83247   7.668  12.412   1.715
27117SOL    HW183248   7.682  12.377   1.627
27117SOL    HW283249   7.754  12.443   1.743
27118SOL     OW83250   5.105   0.433  13.018
27118SOL    HW183251   5.053   0.452  12.940
27118SOL    HW283252   5.054   0.471  13.090
27119SOL     OW83253   5.160  13.677  12.748
27119SOL    HW183254   5.239  13.731  12.753
27119SOL    HW283255   5.107  13.704  12.823
27120SOL     OW83256  10.531  12.856   0.757
27120SOL    HW183257  10.523  12.813   0.672
27120SOL    HW283258  10.556  12.785   0.817
27121SOL     OW83259   9.301   3.775   5.035
27121SOL    HW183260   9.312   3.773   4.940
27121SOL    HW283261   9.333   3.690   5.064
27122SOL     OW83262  14.046   3.938   2.591
27122SOL    HW183263  14.022   3.998   2.662
27122SOL    HW283264  14.122   3.890   2.624
27123SOL     OW83265  14.767   4.035  14.141
27123SOL    HW183266  14.773   3.991  14.056
27123SOL    HW283267  14.827   3.987  14.198
27124SOL     OW83268   4.792   8.013   8.593
27124SOL    HW183269   4.798   7.935   8.649
27124SOL    HW283270   4.882   8.046   8.589
27125SOL     OW83271   3.638  10.972  10.674
27125SOL    HW183272   3.630  10.923  10.592
27125SOL    HW283273   3.559  10.950  10.723
27126SOL     OW83274   8.559  10.754   4.179
27126SOL    HW183275   8.605  10.805   4.246
27126SOL    HW283276   8.617  10.680   4.161
27127SOL     OW83277  11.633  12.503  12.572
27127SOL    HW183278  11.596  12.585  12.540
27127SOL    HW283279  11.714  12.529  12.616
27128SOL     OW83280   3.467   7.541   5.147
27128SOL    HW183281   3.488   7.583   5.230
27128SOL    HW283282   3.464   7.613   5.084
27129SOL     OW83283   8.442   6.770  14.663
27129SOL    HW183284   8.508   6.837  14.684
27129SOL    HW283285   8.414   6.791  14.574
27130SOL     OW83286   0.715  13.537   9.836
27130SOL    HW183287   0.791  13.501   9.790
27130SOL    HW283288   0.751  13.602   9.896
27131SOL     OW83289   9.335   6.537  13.762
27131SOL    HW183290   9.294   6.529  13.848
27131SOL    HW283291   9.262   6.544  13.701
27132SOL     OW83292   1.312   9.280  12.303
27132SOL    HW183293   1.377   9.248  12.366
27132SOL    HW283294   1.317   9.375  12.309
27133SOL     OW83295   6.111  11.928   5.261
27133SOL    HW183296   6.158  11.930   5.178
27133SOL    HW283297   6.034  11.873   5.244
27134SOL     OW83298   1.879  12.228   2.175
27134SOL    HW183299   1.831  12.262   2.251
27134SOL    HW283300   1.956  12.285   2.168
27135SOL     OW83301   5.436   7.373   2.309
27135SOL    HW183302   5.482   7.308   2.361
27135SOL    HW283303   5.416   7.328   2.227
27136SOL     OW83304  13.275  12.136   8.340
27136SOL    HW183305  13.302  12.225   8.317
27136SOL    HW283306  13.287  12.085   8.260
27137SOL     OW83307  12.192  14.677   6.742
27137SOL    HW183308  12.235  14.759   6.768
27137SOL    HW283309  12.216  14.666   6.650
27138SOL     OW83310  13.687   0.491   0.372
27138SOL    HW183311  13.625   0.562   0.356
27138SOL    HW283312  13.643   0.413   0.340
27139SOL     OW83313   3.902   9.351   0.439
27139SOL    HW183314   3.814   9.387   0.451
27139SOL    HW283315   3.955   9.426   0.414
27140SOL     OW83316   1.036   0.066   4.312
27140SOL    HW183317   1.028   0.001   4.242
27140SOL    HW283318   0.958   0.121   4.304
27141SOL     OW83319  12.827  11.020  11.934
27141SOL    HW183320  12.836  10.999  11.841
27141SOL    HW283321  12.759  11.087  11.938
27142SOL     OW83322  13.476  10.124   3.668
27142SOL    HW183323  13.502  10.106   3.578
27142SOL    HW283324  13.424  10.048   3.695
27143SOL     OW83325   2.813   2.808   5.880
27143SOL    HW183326   2.846   2.718   5.889
27143SOL    HW283327   2.763   2.823   5.960
27144SOL     OW83328  14.330   7.253  10.610
27144SOL    HW183329  14.373   7.215  10.533
27144SOL    HW283330  14.355   7.346  10.607
27145SOL     OW83331   3.305  12.093   2.502
27145SOL    HW183332   3.221  12.085   2.456
27145SOL    HW283333   3.341  12.004   2.501
27146SOL     OW83334   4.960   0.227   2.629
27146SOL    HW183335   5.035   0.229   2.689
27146SOL    HW283336   4.886   0.257   2.683
27147SOL     OW83337   9.958   5.534   5.886
27147SOL    HW183338  10.044   5.526   5.845
27147SOL    HW283339   9.916   5.607   5.840
27148SOL     OW83340  14.146   8.970  12.346
27148SOL    HW183341  14.223   8.918  12.368
27148SOL    HW283342  14.080   8.905  12.319
27149SOL     OW83343   9.793  13.684   9.155
27149SOL    HW183344   9.879  13.667   9.192
27149SOL    HW283345   9.748  13.738   9.221
27150SOL     OW83346   9.611  14.099  10.698
27150SOL    HW183347   9.543  14.106  10.765
27150SOL    HW283348   9.564  14.076  10.618
27151SOL     OW83349   0.485   4.177  10.809
27151SOL    HW183350   0.401   4.223  10.812
27151SOL    HW283351   0.531   4.206  10.887
27152SOL     OW83352   0.063   5.629  12.268
27152SOL    HW183353  14.843   5.623  12.265
27152SOL    HW283354   0.091   5.603  12.180
27153SOL     OW83355   0.383   9.115   7.655
27153SOL    HW183356   0.353   9.091   7.568
27153SOL    HW283357   0.364   9.208   7.663
27154SOL     OW83358  10.672   0.271   2.486
27154SOL    HW183359  10.702   0.230   2.567
27154SOL    HW283360  10.742   0.252   2.423
27155SOL     OW83361  11.157   3.370   1.763
27155SOL    HW183362  11.209   3.319   1.701
27155SOL    HW283363  11.205   3.451   1.775
27156SOL     OW83364   5.578  13.470  11.457
27156SOL    HW183365   5.540  13.557  11.451
27156SOL    HW283366   5.507  13.414  11.487
27157SOL     OW83367   8.790  10.526  12.746
27157SOL    HW183368   8.874  10.562  12.719
27157SOL    HW283369   8.748  10.597  12.795
27158SOL     OW83370   2.127  10.795   6.895
27158SOL    HW183371   2.038  10.799   6.931
27158SOL    HW283372   2.137  10.878   6.847
27159SOL     OW83373  13.870   5.944  12.548
27159SOL    HW183374  13.806   6.015  12.555
27159SOL    HW283375  13.828   5.870  12.591
27160SOL     OW83376   6.564   2.350   1.924
27160SOL    HW183377   6.505   2.416   1.960
27160SOL    HW283378   6.514   2.268   1.926
27161SOL     OW83379   7.424  13.488   9.275
27161SOL    HW183380   7.449  13.576   9.246
27161SOL    HW283381   7.405  13.440   9.195
27162SOL     OW83382  13.166   4.794   8.283
27162SOL    HW183383  13.199   4.883   8.291
27162SOL    HW283384  13.083   4.803   8.236
27163SOL     OW83385   1.660  11.413   4.847
27163SOL    HW183386   1.735  11.392   4.791
27163SOL    HW283387   1.649  11.508   4.838
27164SOL     OW83388   1.587   0.898  10.269
27164SOL    HW183389   1.574   0.809  10.235
27164SOL    HW283390   1.644   0.940  10.204
27165SOL     OW83391   1.452   9.960   5.004
27165SOL    HW183392   1.399  10.033   5.035
27165SOL    HW283393   1.525  10.001   4.958
27166SOL     OW83394  10.260  13.203   1.356
27166SOL    HW183395  10.262  13.296   1.334
27166SOL    HW283396  10.173  13.174   1.328
27167SOL     OW83397  12.249  11.498  13.916
27167SOL    HW183398  12.246  11.566  13.849
27167SOL    HW283399  12.252  11.547  13.999
27168SOL     OW83400   8.758  12.209  10.939
27168SOL    HW183401   8.712  12.140  10.891
27168SOL    HW283402   8.796  12.264  10.871
27169SOL     OW83403  13.524  10.692  14.372
27169SOL    HW183404  13.529  10.736  14.457
27169SOL    HW283405  13.571  10.610  14.385
27170SOL     OW83406   9.316   1.723  12.157
27170SOL    HW183407   9.290   1.756  12.243
27170SOL    HW283408   9.392   1.667  12.173
27171SOL     OW83409   7.097   7.949  13.860
27171SOL    HW183410   7.002   7.956  13.860
27171SOL    HW283411   7.121   7.956  13.953
27172SOL     OW83412   1.794  13.877  12.461
27172SOL    HW183413   1.858  13.864  12.532
27172SOL    HW283414   1.744  13.954  12.488
27173SOL     OW83415  12.227   6.344   9.383
27173SOL    HW183416  12.230   6.440   9.376
27173SOL    HW283417  12.247   6.327   9.475
27174SOL     OW83418  13.882   7.489  14.430
27174SOL    HW183419  13.954   7.463  14.373
27174SOL    HW283420  13.923   7.545  14.496
27175SOL     OW83421   3.766  14.249   8.312
27175SOL    HW183422   3.806  14.317   8.366
27175SOL    HW283423   3.768  14.170   8.368
27176SOL     OW83424   9.098   9.477  10.425
27176SOL    HW183425   9.025   9.455  10.367
27176SOL    HW283426   9.068   9.449  10.512
27177SOL     OW83427  14.581  10.942  11.335
27177SOL    HW183428  14.640  10.992  11.391
27177SOL    HW283429  14.501  10.994  11.331
27178SOL     OW83430  11.776   1.590   4.864
27178SOL    HW183431  11.684   1.571   4.847
27178SOL    HW283432  11.799   1.533   4.937
27179SOL     OW83433   5.527  10.192   4.146
27179SOL    HW183434   5.505  10.163   4.057
27179SOL    HW283435   5.568  10.116   4.187
27180SOL     OW83436  11.750   4.538  14.743
27180SOL    HW183437  11.782   4.554  14.832
27180SOL    HW283438  11.763   4.445  14.729
27181SOL     OW83439  13.470   8.242   2.966
27181SOL    HW183440  13.398   8.281   3.014
27181SOL    HW283441  13.534   8.218   3.033
27182SOL     OW83442   6.013  13.204   3.340
27182SOL    HW183443   6.018  13.299   3.347
27182SOL    HW283444   5.938  13.180   3.394
27183SOL     OW83445   4.330  10.895  13.274
27183SOL    HW183446   4.349  10.873  13.182
27183SOL    HW283447   4.245  10.939  13.271
27184SOL     OW83448   3.565   0.299   3.281
27184SOL    HW183449   3.562   0.395   3.273
27184SOL    HW283450   3.531   0.267   3.197
27185SOL     OW83451   0.145   1.470   5.601
27185SOL    HW183452   0.159   1.430   5.686
27185SOL    HW283453   0.078   1.537   5.617
27186SOL     OW83454  10.999   5.851   0.123
27186SOL    HW183455  11.068   5.826   0.061
27186SOL    HW283456  11.001   5.784   0.191
27187SOL     OW83457   4.667   4.374  12.333
27187SOL    HW183458   4.730   4.305  12.353
27187SOL    HW283459   4.716   4.456  12.345
27188SOL     OW83460   6.910   8.161   8.939
27188SOL    HW183461   6.911   8.066   8.949
27188SOL    HW283462   6.997   8.183   8.905
27189SOL     OW83463   0.717   3.276   0.514
27189SOL    HW183464   0.729   3.332   0.438
27189SOL    HW283465   0.690   3.191   0.478
27190SOL     OW83466   9.784  11.336  12.383
27190SOL    HW183467   9.700  11.372  12.413
27190SOL    HW283468   9.765  11.300  12.297
27191SOL     OW83469   0.460   8.632   3.956
27191SOL    HW183470   0.458   8.540   3.927
27191SOL    HW283471   0.462   8.682   3.874
27192SOL     OW83472   1.324   5.892   2.390
27192SOL    HW183473   1.383   5.873   2.317
27192SOL    HW283474   1.293   5.981   2.374
27193SOL     OW83475   7.783  11.815  10.957
27193SOL    HW183476   7.860  11.809  10.900
27193SOL    HW283477   7.709  11.814  10.896
27194SOL     OW83478   3.641   4.744   0.984
27194SOL    HW183479   3.570   4.797   0.949
27194SOL    HW283480   3.721   4.786   0.950
27195SOL     OW83481   6.848   2.518  11.813
27195SOL    HW183482   6.772   2.460  11.818
27195SOL    HW283483   6.829   2.588  11.876
27196SOL     OW83484   3.312   0.936   1.193
27196SOL    HW183485   3.234   0.916   1.245
27196SOL    HW283486   3.355   1.006   1.241
27197SOL     OW83487   9.486   0.193  13.752
27197SOL    HW183488   9.412   0.157  13.703
27197SOL    HW283489   9.556   0.130  13.739
27198SOL     OW83490   1.307  11.677  11.791
27198SOL    HW183491   1.331  11.765  11.761
27198SOL    HW283492   1.211  11.677  11.791
27199SOL     OW83493   2.669   3.758   7.431
27199SOL    HW183494   2.732   3.792   7.495
27199SOL    HW283495   2.708   3.677   7.400
27200SOL     OW83496   5.935  14.708   7.225
27200SOL    HW183497   6.023  14.744   7.238
27200SOL    HW283498   5.922  14.651   7.301
27201SOL     OW83499   8.265   5.444   3.583
27201SOL    HW183500   8.205   5.434   3.509
27201SOL    HW283501   8.295   5.534   3.577
27202SOL     OW83502  13.486   2.624  10.749
27202SOL    HW183503  13.554   2.559  10.768
27202SOL    HW283504  13.461   2.607  10.658
27203SOL     OW83505   2.614   8.316   6.446
27203SOL    HW183506   2.610   8.222   6.428
27203SOL    HW283507   2.706   8.339   6.433
27204SOL     OW83508   0.153   7.823  13.282
27204SOL    HW183509   0.183   7.743  13.324
27204SOL    HW283510   0.067   7.801  13.247
27205SOL     OW83511  14.522  13.378  13.967
27205SOL    HW183512  14.598  13.425  14.001
27205SOL    HW283513  14.516  13.407  13.875
27206SOL     OW83514   3.700  14.302   3.720
27206SOL    HW183515   3.729  14.393   3.715
27206SOL    HW283516   3.746  14.267   3.796
27207SOL     OW83517   7.291  11.665   2.262
27207SOL    HW183518   7.295  11.707   2.175
27207SOL    HW283519   7.200  11.673   2.289
27208SOL     OW83520   4.026   2.115  11.438
27208SOL    HW183521   4.087   2.054  11.398
27208SOL    HW283522   4.041   2.198  11.392
27209SOL     OW83523   2.883   7.843   5.225
27209SOL    HW183524   2.958   7.795   5.259
27209SOL    HW283525   2.833   7.779   5.175
27210SOL     OW83526   9.233   0.700   4.010
27210SOL    HW183527   9.298   0.677   4.077
27210SOL    HW283528   9.150   0.706   4.058
27211SOL     OW83529  10.032   6.145   0.099
27211SOL    HW183530  10.044   6.196   0.019
27211SOL    HW283531  10.088   6.188   0.163
27212SOL     OW83532  11.868  11.992  13.669
27212SOL    HW183533  11.849  11.953  13.584
27212SOL    HW283534  11.828  11.933  13.733
27213SOL     OW83535   3.005  10.974   4.430
27213SOL    HW183536   3.024  11.004   4.519
27213SOL    HW283537   2.998  10.879   4.438
27214SOL     OW83538   6.259  14.647   7.485
27214SOL    HW183539   6.215  14.602   7.557
27214SOL    HW283540   6.342  14.599   7.474
27215SOL     OW83541  12.851  13.045   7.530
27215SOL    HW183542  12.830  13.100   7.454
27215SOL    HW283543  12.947  13.038   7.528
27216SOL     OW83544  14.384   9.163   2.678
27216SOL    HW183545  14.409   9.072   2.696
27216SOL    HW283546  14.414   9.211   2.756
27217SOL     OW83547   8.815  10.449   0.802
27217SOL    HW183548   8.888  10.437   0.742
27217SOL    HW283549   8.804  10.544   0.808
27218SOL     OW83550   3.826   8.236  10.761
27218SOL    HW183551   3.907   8.251  10.712
27218SOL    HW283552   3.832   8.145  10.790
27219SOL     OW83553  13.525   6.756  11.160
27219SOL    HW183554  13.615   6.761  11.129
27219SOL    HW283555  13.480   6.701  11.096
27220SOL     OW83556   8.098  14.525  14.017
27220SOL    HW183557   8.113  14.438  13.979
27220SOL    HW283558   8.098  14.510  14.112
27221SOL     OW83559   8.782  14.051   2.632
27221SOL    HW183560   8.732  14.000   2.567
27221SOL    HW283561   8.716  14.104   2.677
27222SOL     OW83562   3.555  11.798   6.307
27222SOL    HW183563   3.574  11.707   6.329
27222SOL    HW283564   3.594  11.811   6.221
27223SOL     OW83565  11.558   7.386  12.169
27223SOL    HW183566  11.580   7.312  12.226
27223SOL    HW283567  11.636   7.441  12.170
27224SOL     OW83568   7.117  13.999  13.262
27224SOL    HW183569   7.116  13.958  13.175
27224SOL    HW283570   7.198  14.051  13.263
27225SOL     OW83571   4.585   2.967   2.666
27225SOL    HW183572   4.575   2.930   2.754
27225SOL    HW283573   4.673   2.941   2.639
27226SOL     OW83574   1.189   3.495  14.448
27226SOL    HW183575   1.211   3.541  14.529
27226SOL    HW283576   1.116   3.438  14.472
27227SOL     OW83577   4.204   1.240   4.198
27227SOL    HW183578   4.191   1.145   4.202
27227SOL    HW283579   4.290   1.250   4.156
27228SOL     OW83580  12.774  14.184   8.519
27228SOL    HW183581  12.797  14.206   8.429
27228SOL    HW283582  12.821  14.247   8.573
27229SOL     OW83583  12.308  14.233   6.295
27229SOL    HW183584  12.306  14.141   6.270
27229SOL    HW283585  12.304  14.232   6.391
27230SOL     OW83586   3.742   4.448  14.277
27230SOL    HW183587   3.706   4.360  14.268
27230SOL    HW283588   3.739   4.485  14.188
27231SOL     OW83589   1.019  13.362   0.225
27231SOL    HW183590   1.042  13.335   0.136
27231SOL    HW283591   1.079  13.435   0.244
27232SOL     OW83592   4.951   9.787   6.673
27232SOL    HW183593   4.992   9.834   6.601
27232SOL    HW283594   4.921   9.855   6.733
27233SOL     OW83595  10.361   2.718   8.641
27233SOL    HW183596  10.439   2.772   8.627
27233SOL    HW283597  10.369   2.688   8.732
27234SOL     OW83598   8.629   0.769  10.786
27234SOL    HW183599   8.724   0.781  10.792
27234SOL    HW283600   8.607   0.712  10.860
27235SOL     OW83601  14.397  12.266  10.788
27235SOL    HW183602  14.373  12.218  10.867
27235SOL    HW283603  14.432  12.349  10.821
27236SOL     OW83604   4.548   9.697   0.887
27236SOL    HW183605   4.520   9.789   0.885
27236SOL    HW283606   4.591   9.684   0.802
27237SOL     OW83607  14.205   0.754   4.576
27237SOL    HW183608  14.143   0.764   4.503
27237SOL    HW283609  14.191   0.832   4.630
27238SOL     OW83610   6.335   7.338  11.783
27238SOL    HW183611   6.372   7.397  11.717
27238SOL    HW283612   6.241   7.341  11.767
27239SOL     OW83613  13.390   9.322   4.517
27239SOL    HW183614  13.318   9.314   4.455
27239SOL    HW283615  13.452   9.253   4.492
27240SOL     OW83616   1.376   8.471   2.296
27240SOL    HW183617   1.420   8.521   2.365
27240SOL    HW283618   1.315   8.533   2.256
27241SOL     OW83619  14.060   1.260   3.193
27241SOL    HW183620  14.142   1.218   3.165
27241SOL    HW283621  14.070   1.271   3.288
27242SOL     OW83622  11.451   2.394  11.039
27242SOL    HW183623  11.498   2.320  11.076
27242SOL    HW283624  11.486   2.470  11.084
27243SOL     OW83625   5.627   4.198   5.554
27243SOL    HW183626   5.669   4.130   5.502
27243SOL    HW283627   5.533   4.188   5.537
27244SOL     OW83628  13.077   1.433   5.362
27244SOL    HW183629  13.055   1.504   5.303
27244SOL    HW283630  13.114   1.477   5.439
27245SOL     OW83631  10.140   3.027   7.688
27245SOL    HW183632  10.068   3.070   7.735
27245SOL    HW283633  10.215   3.085   7.701
27246SOL     OW83634   3.680  10.761   1.958
27246SOL    HW183635   3.738  10.742   2.032
27246SOL    HW283636   3.593  10.771   1.997
27247SOL     OW83637   4.675   3.130   7.026
27247SOL    HW183638   4.590   3.086   7.028
27247SOL    HW283639   4.657   3.220   7.053
27248SOL     OW83640   3.691   6.529   6.563
27248SOL    HW183641   3.714   6.447   6.609
27248SOL    HW283642   3.671   6.501   6.474
27249SOL     OW83643   4.638   2.918   7.781
27249SOL    HW183644   4.723   2.960   7.765
27249SOL    HW283645   4.648   2.876   7.866
27250SOL     OW83646   0.849   6.077   2.978
27250SOL    HW183647   0.838   6.172   2.980
27250SOL    HW283648   0.765   6.042   3.008
27251SOL     OW83649   0.494   0.202  11.006
27251SOL    HW183650   0.574   0.200  11.057
27251SOL    HW283651   0.479   0.111  10.980
27252SOL     OW83652   1.769   4.308   7.388
27252SOL    HW183653   1.696   4.250   7.410
27252SOL    HW283654   1.728   4.391   7.363
27253SOL     OW83655  12.562  11.518   2.739
27253SOL    HW183656  12.633  11.580   2.723
27253SOL    HW283657  12.577  11.447   2.677
27254SOL     OW83658  10.946   0.024   6.031
27254SOL    HW183659  11.039   0.047   6.036
27254SOL    HW283660  10.918   0.021   6.123
27255SOL     OW83661   9.431   4.210  13.557
27255SOL    HW183662   9.355   4.245  13.603
27255SOL    HW283663   9.398   4.188  13.469
27256SOL     OW83664   4.572   4.692   0.747
27256SOL    HW183665   4.612   4.609   0.773
27256SOL    HW283666   4.599   4.753   0.816
27257SOL     OW83667  13.606   1.756   9.825
27257SOL    HW183668  13.556   1.690   9.777
27257SOL    HW283669  13.665   1.793   9.759
27258SOL     OW83670   4.917   6.904  12.042
27258SOL    HW183671   4.978   6.863  12.103
27258SOL    HW283672   4.836   6.915  12.091
27259SOL     OW83673   6.056  11.339   3.903
27259SOL    HW183674   6.097  11.312   3.985
27259SOL    HW283675   5.962  11.340   3.923
27260SOL     OW83676   8.506  14.471   1.111
27260SOL    HW183677   8.524  14.437   1.023
27260SOL    HW283678   8.411  14.475   1.116
27261SOL     OW83679  13.098   4.235   8.931
27261SOL    HW183680  13.014   4.195   8.952
27261SOL    HW283681  13.109   4.221   8.837
27262SOL     OW83682  10.378   6.259  12.076
27262SOL    HW183683  10.338   6.347  12.078
27262SOL    HW283684  10.309   6.201  12.107
27263SOL     OW83685  11.751  10.871  12.447
27263SOL    HW183686  11.755  10.880  12.352
27263SOL    HW283687  11.832  10.911  12.478
27264SOL     OW83688  10.987   3.477   7.075
27264SOL    HW183689  10.935   3.521   7.008
27264SOL    HW283690  11.048   3.544   7.105
27265SOL     OW83691  10.118   8.399   5.681
27265SOL    HW183692  10.128   8.409   5.775
27265SOL    HW283693  10.114   8.304   5.667
27266SOL     OW83694   2.378   4.086   0.619
27266SOL    HW183695   2.432   4.129   0.685
27266SOL    HW283696   2.309   4.149   0.600
27267SOL     OW83697   8.004  11.355   1.732
27267SOL    HW183698   8.058  11.279   1.714
27267SOL    HW283699   8.032  11.421   1.669
27268SOL     OW83700  14.017  13.837   9.878
27268SOL    HW183701  13.961  13.774   9.924
27268SOL    HW283702  13.970  13.920   9.888
27269SOL     OW83703   9.856  11.386   4.582
27269SOL    HW183704   9.843  11.375   4.677
27269SOL    HW283705   9.944  11.421   4.574
27270SOL     OW83706   8.737   3.445   9.032
27270SOL    HW183707   8.708   3.525   9.076
27270SOL    HW283708   8.736   3.468   8.939
27271SOL     OW83709  12.114   6.096   4.975
27271SOL    HW183710  12.186   6.114   4.914
27271SOL    HW283711  12.048   6.162   4.955
27272SOL     OW83712  10.035   0.082   5.332
27272SOL    HW183713  10.016   0.117   5.245
27272SOL    HW283714  10.080   0.154   5.377
27273SOL     OW83715   0.806   8.037  10.294
27273SOL    HW183716   0.826   8.121  10.252
27273SOL    HW283717   0.891   7.996  10.307
27274SOL     OW83718   9.036   6.947   8.373
27274SOL    HW183719   9.123   6.908   8.363
27274SOL    HW283720   8.991   6.927   8.292
27275SOL     OW83721   2.792   7.374   1.385
27275SOL    HW183722   2.839   7.314   1.327
27275SOL    HW283723   2.792   7.331   1.470
27276SOL     OW83724   4.149  14.221   6.480
27276SOL    HW183725   4.173  14.143   6.430
27276SOL    HW283726   4.232  14.251   6.519
27277SOL     OW83727   0.255   2.876   4.647
27277SOL    HW183728   0.278   2.939   4.715
27277SOL    HW283729   0.222   2.930   4.575
27278SOL     OW83730   0.270   2.046   8.531
27278SOL    HW183731   0.279   2.131   8.488
27278SOL    HW283732   0.179   2.020   8.515
27279SOL     OW83733  14.359  12.008   2.337
27279SOL    HW183734  14.341  12.087   2.387
27279SOL    HW283735  14.281  11.954   2.348
27280SOL     OW83736   2.173   9.168  14.576
27280SOL    HW183737   2.158   9.121  14.658
27280SOL    HW283738   2.258   9.136  14.545
27281SOL     OW83739   0.413   9.861   3.647
27281SOL    HW183740   0.439   9.936   3.594
27281SOL    HW283741   0.496   9.823   3.677
27282SOL     OW83742   2.013   6.970   4.375
27282SOL    HW183743   2.055   7.036   4.429
27282SOL    HW283744   2.025   6.888   4.424
27283SOL     OW83745   0.741  12.046   0.672
27283SOL    HW183746   0.650  12.076   0.669
27283SOL    HW283747   0.785  12.095   0.602
27284SOL     OW83748  10.120   1.970   8.087
27284SOL    HW183749  10.118   1.904   8.156
27284SOL    HW283750  10.209   2.006   8.091
27285SOL     OW83751   2.545   3.691   8.586
27285SOL    HW183752   2.581   3.644   8.661
27285SOL    HW283753   2.466   3.642   8.564
27286SOL     OW83754   1.470   3.854   1.375
27286SOL    HW183755   1.446   3.865   1.283
27286SOL    HW283756   1.542   3.791   1.373
27287SOL     OW83757  11.509   4.848  13.901
27287SOL    HW183758  11.483   4.940  13.899
27287SOL    HW283759  11.527   4.827  13.809
27288SOL     OW83760  13.340  14.635  10.566
27288SOL    HW183761  13.342  14.556  10.512
27288SOL    HW283762  13.424  14.677  10.552
27289SOL     OW83763   2.463  12.091   1.376
27289SOL    HW183764   2.406  12.152   1.329
27289SOL    HW283765   2.406  12.051   1.442
27290SOL     OW83766   9.439   6.463   3.717
27290SOL    HW183767   9.419   6.456   3.810
27290SOL    HW283768   9.386   6.537   3.686
27291SOL     OW83769   3.651  10.507   0.352
27291SOL    HW183770   3.728  10.525   0.299
27291SOL    HW283771   3.682  10.446   0.419
27292SOL     OW83772   5.113   1.756  10.900
27292SOL    HW183773   5.117   1.797  10.814
27292SOL    HW283774   5.191   1.788  10.946
27293SOL     OW83775   6.295   7.473  10.418
27293SOL    HW183776   6.248   7.397  10.383
27293SOL    HW283777   6.387   7.448  10.415
27294SOL     OW83778   5.086   3.075  10.056
27294SOL    HW183779   5.081   3.155  10.108
27294SOL    HW283780   5.025   3.088   9.984
27295SOL     OW83781   0.909  14.863   8.581
27295SOL    HW183782   0.926  14.801   8.510
27295SOL    HW283783   0.996   0.015   8.611
27296SOL     OW83784  12.759   6.755   0.760
27296SOL    HW183785  12.820   6.798   0.819
27296SOL    HW283786  12.682   6.812   0.759
27297SOL     OW83787   8.252   6.863  11.702
27297SOL    HW183788   8.275   6.778  11.664
27297SOL    HW283789   8.241   6.845  11.796
27298SOL     OW83790   8.257   3.018  10.793
27298SOL    HW183791   8.172   3.058  10.771
27298SOL    HW283792   8.253   3.005  10.887
27299SOL     OW83793  11.488   2.288   2.798
27299SOL    HW183794  11.516   2.379   2.797
27299SOL    HW283795  11.494   2.261   2.890
27300SOL     OW83796   7.052   4.051   5.041
27300SOL    HW183797   6.967   4.087   5.014
27300SOL    HW283798   7.029   3.982   5.104
27301SOL     OW83799   0.494   7.641   1.610
27301SOL    HW183800   0.404   7.665   1.586
27301SOL    HW283801   0.505   7.675   1.699
27302SOL     OW83802   4.433  10.169  12.257
27302SOL    HW183803   4.367  10.103  12.279
27302SOL    HW283804   4.393  10.220  12.186
27303SOL     OW83805  12.537   8.128   5.913
27303SOL    HW183806  12.603   8.168   5.858
27303SOL    HW283807  12.478   8.199   5.937
27304SOL     OW83808  13.280  11.430   6.189
27304SOL    HW183809  13.215  11.375   6.235
27304SOL    HW283810  13.346  11.368   6.159
27305SOL     OW83811   1.958   1.456   7.794
27305SOL    HW183812   1.876   1.461   7.745
27305SOL    HW283813   1.978   1.546   7.817
27306SOL     OW83814   8.720   1.828   9.883
27306SOL    HW183815   8.788   1.764   9.905
27306SOL    HW283816   8.764   1.913   9.885
27307SOL     OW83817  11.219  11.810   2.145
27307SOL    HW183818  11.194  11.888   2.195
27307SOL    HW283819  11.136  11.770   2.120
27308SOL     OW83820   9.964   2.889  10.287
27308SOL    HW183821   9.966   2.794  10.287
27308SOL    HW283822   9.903   2.912  10.217
27309SOL     OW83823   2.821  12.599   0.867
27309SOL    HW183824   2.859  12.519   0.832
27309SOL    HW283825   2.837  12.665   0.799
27310SOL     OW83826  13.376  11.513  14.674
27310SOL    HW183827  13.423  11.561  14.742
27310SOL    HW283828  13.376  11.573  14.599
27311SOL     OW83829   0.084   8.665  10.881
27311SOL    HW183830   0.048   8.753  10.895
27311SOL    HW283831   0.117   8.667  10.791
27312SOL     OW83832   5.525   0.459   1.939
27312SOL    HW183833   5.567   0.453   1.853
27312SOL    HW283834   5.596   0.482   1.999
27313SOL     OW83835  11.963   6.600   9.371
27313SOL    HW183836  11.911   6.679   9.384
27313SOL    HW283837  11.900   6.535   9.341
27314SOL     OW83838   3.481   2.872   9.804
27314SOL    HW183839   3.541   2.841   9.736
27314SOL    HW283840   3.433   2.944   9.762
27315SOL     OW83841  13.753   4.948  11.460
27315SOL    HW183842  13.692   4.949  11.534
27315SOL    HW283843  13.736   4.865  11.415
27316SOL     OW83844   8.405  14.535  13.012
27316SOL    HW183845   8.475  14.485  12.970
27316SOL    HW283846   8.351  14.566  12.940
27317SOL     OW83847   1.625   0.367   4.472
27317SOL    HW183848   1.707   0.353   4.424
27317SOL    HW283849   1.654   0.399   4.558
27318SOL     OW83850   3.647   1.318  13.203
27318SOL    HW183851   3.553   1.301  13.207
27318SOL    HW283852   3.655   1.413  13.211
27319SOL     OW83853  10.154   1.008   3.014
27319SOL    HW183854  10.232   1.043   3.058
27319SOL    HW283855  10.084   1.070   3.037
27320SOL     OW83856   0.733   3.749  13.859
27320SOL    HW183857   0.773   3.662  13.851
27320SOL    HW283858   0.802   3.803  13.898
27321SOL     OW83859   5.054  12.155   6.277
27321SOL    HW183860   5.099  12.183   6.198
27321SOL    HW283861   5.120  12.159   6.346
27322SOL     OW83862   3.821   8.403   3.875
27322SOL    HW183863   3.812   8.324   3.821
27322SOL    HW283864   3.824   8.475   3.811
27323SOL     OW83865   6.672   3.761  13.632
27323SOL    HW183866   6.684   3.852  13.605
27323SOL    HW283867   6.600   3.765  13.695
27324SOL     OW83868  14.394  10.510  13.174
27324SOL    HW183869  14.374  10.543  13.262
27324SOL    HW283870  14.490  10.514  13.168
27325SOL     OW83871   4.488   2.153   6.736
27325SOL    HW183872   4.461   2.067   6.705
27325SOL    HW283873   4.425   2.213   6.696
27326SOL     OW83874   7.598  14.399   8.229
27326SOL    HW183875   7.600  14.336   8.157
27326SOL    HW283876   7.555  14.353   8.301
27327SOL     OW83877   9.268   1.950   0.263
27327SOL    HW183878   9.248   1.955   0.170
27327SOL    HW283879   9.291   2.039   0.288
27328SOL     OW83880   1.807   6.079   8.830
27328SOL    HW183881   1.873   6.121   8.886
27328SOL    HW283882   1.730   6.135   8.838
27329SOL     OW83883   7.381   2.166   8.741
27329SOL    HW183884   7.350   2.251   8.774
27329SOL    HW283885   7.476   2.170   8.751
27330SOL     OW83886   1.134  14.075   0.875
27330SOL    HW183887   1.074  14.016   0.920
27330SOL    HW283888   1.192  14.109   0.943
27331SOL     OW83889   5.516  11.709  10.813
27331SOL    HW183890   5.601  11.705  10.771
27331SOL    HW283891   5.460  11.756  10.751
27332SOL     OW83892   2.535  13.292  14.872
27332SOL    HW183893   2.470  13.242   0.046
27332SOL    HW283894   2.518  13.271  14.780
27333SOL     OW83895   9.185   8.681   5.522
27333SOL    HW183896   9.227   8.764   5.540
27333SOL    HW283897   9.203   8.627   5.599
27334SOL     OW83898  11.288   4.102   7.446
27334SOL    HW183899  11.340   4.032   7.407
27334SOL    HW283900  11.201   4.093   7.406
27335SOL     OW83901   8.908   4.692  13.276
27335SOL    HW183902   8.990   4.728  13.310
27335SOL    HW283903   8.908   4.715  13.183
27336SOL     OW83904   5.931   4.956   1.839
27336SOL    HW183905   5.985   4.903   1.898
27336SOL    HW283906   5.864   4.896   1.807
27337SOL     OW83907   9.023   6.824  13.762
27337SOL    HW183908   9.108   6.847  13.799
27337SOL    HW283909   9.037   6.737  13.723
27338SOL     OW83910   8.107  13.125  12.523
27338SOL    HW183911   8.195  13.112  12.557
27338SOL    HW283912   8.067  13.188  12.583
27339SOL     OW83913  12.853   4.742   9.715
27339SOL    HW183914  12.767   4.761   9.678
27339SOL    HW283915  12.887   4.828   9.740
27340SOL     OW83916   8.062   6.268   1.468
27340SOL    HW183917   8.087   6.356   1.440
27340SOL    HW283918   7.967   6.272   1.475
27341SOL     OW83919  11.998  12.124  13.900
27341SOL    HW183920  11.979  12.100  13.810
27341SOL    HW283921  11.932  12.077  13.952
27342SOL     OW83922   5.778   6.864  10.992
27342SOL    HW183923   5.808   6.950  11.023
27342SOL    HW283924   5.709   6.884  10.930
27343SOL     OW83925   5.348  14.351   4.235
27343SOL    HW183926   5.435  14.350   4.275
27343SOL    HW283927   5.346  14.274   4.179
27344SOL     OW83928   1.667   1.261   5.275
27344SOL    HW183929   1.670   1.254   5.180
27344SOL    HW283930   1.615   1.186   5.303
27345SOL     OW83931  13.683   0.413   7.500
27345SOL    HW183932  13.684   0.324   7.465
27345SOL    HW283933  13.775   0.439   7.502
27346SOL     OW83934   0.110   4.457  11.364
27346SOL    HW183935   0.135   4.502  11.283
27346SOL    HW283936   0.160   4.502  11.432
27347SOL     OW83937   7.295   2.214  10.881
27347SOL    HW183938   7.292   2.306  10.858
27347SOL    HW283939   7.318   2.169  10.799
27348SOL     OW83940  10.176   6.449   5.290
27348SOL    HW183941  10.197   6.540   5.312
27348SOL    HW283942  10.257   6.401   5.307
27349SOL     OW83943  14.150  11.552   9.660
27349SOL    HW183944  14.125  11.480   9.719
27349SOL    HW283945  14.113  11.527   9.575
27350SOL     OW83946  11.678  12.879  13.345
27350SOL    HW183947  11.611  12.814  13.326
27350SOL    HW283948  11.650  12.957  13.298
27351SOL     OW83949  12.758   0.213  14.042
27351SOL    HW183950  12.852   0.206  14.031
27351SOL    HW283951  12.724   0.126  14.022
27352SOL     OW83952   6.116   1.737   8.861
27352SOL    HW183953   6.189   1.711   8.805
27352SOL    HW283954   6.039   1.734   8.803
27353SOL     OW83955   3.718   2.403   0.253
27353SOL    HW183956   3.656   2.378   0.184
27353SOL    HW283957   3.795   2.349   0.237
27354SOL     OW83958   5.328  13.675   1.743
27354SOL    HW183959   5.255  13.643   1.795
27354SOL    HW283960   5.367  13.744   1.796
27355SOL     OW83961  14.220   3.108   1.195
27355SOL    HW183962  14.267   3.045   1.250
27355SOL    HW283963  14.211   3.064   1.110
27356SOL     OW83964   7.263   7.410  14.333
27356SOL    HW183965   7.276   7.492  14.381
27356SOL    HW283966   7.305   7.425  14.248
27357SOL     OW83967  13.525  13.667   1.429
27357SOL    HW183968  13.581  13.745   1.429
27357SOL    HW283969  13.460  13.685   1.497
27358SOL     OW83970  11.201   6.475   7.724
27358SOL    HW183971  11.264   6.537   7.761
27358SOL    HW283972  11.141   6.456   7.796
27359SOL     OW83973   0.292   2.822   5.622
27359SOL    HW183974   0.323   2.732   5.611
27359SOL    HW283975   0.200   2.813   5.647
27360SOL     OW83976  10.989  12.609  10.013
27360SOL    HW183977  10.989  12.609  10.109
27360SOL    HW283978  10.897  12.610   9.989
27361SOL     OW83979   2.447   3.399   6.420
27361SOL    HW183980   2.528   3.429   6.461
27361SOL    HW283981   2.444   3.444   6.335
27362SOL     OW83982   7.295  11.807   3.574
27362SOL    HW183983   7.315  11.727   3.525
27362SOL    HW283984   7.369  11.864   3.556
27363SOL     OW83985   5.592   9.787   2.953
27363SOL    HW183986   5.681   9.808   2.982
27363SOL    HW283987   5.544   9.771   3.034
27364SOL     OW83988  14.334  13.577  11.487
27364SOL    HW183989  14.319  13.672  11.480
27364SOL    HW283990  14.276  13.539  11.421
27365SOL     OW83991   0.341  12.810   1.739
27365SOL    HW183992   0.341  12.870   1.814
27365SOL    HW283993   0.391  12.856   1.671
27366SOL     OW83994   1.901   6.899   2.860
27366SOL    HW183995   1.816   6.907   2.817
27366SOL    HW283996   1.960   6.868   2.791
27367SOL     OW83997   3.704   2.610   6.152
27367SOL    HW183998   3.635   2.668   6.119
27367SOL    HW283999   3.750   2.580   6.074
27368SOL     OW84000   3.723   7.964  13.512
27368SOL    HW184001   3.698   7.900  13.445
27368SOL    HW284002   3.717   8.049  13.468
27369SOL     OW84003   2.433   5.018  10.212
27369SOL    HW184004   2.443   4.931  10.250
27369SOL    HW284005   2.340   5.037  10.221
27370SOL     OW84006   3.702   0.300  12.206
27370SOL    HW184007   3.782   0.352  12.194
27370SOL    HW284008   3.732   0.210  12.200
27371SOL     OW84009   9.233  13.100  10.559
27371SOL    HW184010   9.256  13.189  10.533
27371SOL    HW284011   9.261  13.094  10.650
27372SOL     OW84012   4.260   4.953   4.414
27372SOL    HW184013   4.235   4.923   4.327
27372SOL    HW284014   4.243   4.879   4.471
27373SOL     OW84015  10.897   3.529   0.131
27373SOL    HW184016  10.945   3.524   0.213
27373SOL    HW284017  10.809   3.558   0.156
27374SOL     OW84018   6.556   2.191  14.171
27374SOL    HW184019   6.558   2.281  14.204
27374SOL    HW284020   6.628   2.148  14.218
27375SOL     OW84021   3.282  12.160   1.268
27375SOL    HW184022   3.336  12.206   1.204
27375SOL    HW284023   3.319  12.185   1.353
27376SOL     OW84024   5.452   7.442   5.664
27376SOL    HW184025   5.515   7.404   5.603
27376SOL    HW284026   5.419   7.367   5.713
27377SOL     OW84027   1.102  14.549  13.483
27377SOL    HW184028   1.162  14.509  13.546
27377SOL    HW284029   1.050  14.610  13.535
27378SOL     OW84030  10.220   5.773  10.597
27378SOL    HW184031  10.205   5.736  10.510
27378SOL    HW284032  10.167   5.718  10.656
27379SOL     OW84033  10.417  10.890  10.278
27379SOL    HW184034  10.431  10.959  10.343
27379SOL    HW284035  10.341  10.919  10.228
27380SOL     OW84036  13.226   5.717   1.349
27380SOL    HW184037  13.253   5.744   1.261
27380SOL    HW284038  13.204   5.624   1.340
27381SOL     OW84039   8.666   8.785  13.318
27381SOL    HW184040   8.663   8.790  13.222
27381SOL    HW284041   8.746   8.736  13.337
27382SOL     OW84042  10.536   5.097  10.935
27382SOL    HW184043  10.525   5.129  11.025
27382SOL    HW284044  10.490   5.161  10.881
27383SOL     OW84045   6.671  10.108   8.363
27383SOL    HW184046   6.594  10.159   8.388
27383SOL    HW284047   6.745  10.161   8.392
27384SOL     OW84048   7.408  13.564  12.089
27384SOL    HW184049   7.388  13.475  12.060
27384SOL    HW284050   7.497  13.580  12.055
27385SOL     OW84051   7.140   4.901   8.083
27385SOL    HW184052   7.199   4.956   8.135
27385SOL    HW284053   7.067   4.882   8.142
27386SOL     OW84054   5.401  11.023   0.239
27386SOL    HW184055   5.417  11.028   0.145
27386SOL    HW284056   5.406  10.929   0.258
27387SOL     OW84057   2.387   7.612   7.068
27387SOL    HW184058   2.350   7.526   7.049
27387SOL    HW284059   2.465   7.594   7.120
27388SOL     OW84060   5.219   9.373   0.558
27388SOL    HW184061   5.140   9.333   0.521
27388SOL    HW284062   5.271   9.398   0.483
27389SOL     OW84063   3.708   1.720   6.139
27389SOL    HW184064   3.647   1.657   6.179
27389SOL    HW284065   3.715   1.693   6.048
27390SOL     OW84066   4.423   4.124   3.505
27390SOL    HW184067   4.371   4.203   3.495
27390SOL    HW284068   4.387   4.082   3.584
27391SOL     OW84069   7.064   3.413   9.857
27391SOL    HW184070   7.144   3.460   9.834
27391SOL    HW284071   7.010   3.418   9.778
27392SOL     OW84072   6.010   1.929   1.269
27392SOL    HW184073   6.009   1.901   1.177
27392SOL    HW284074   5.943   1.998   1.273
27393SOL     OW84075  10.980   8.019  11.283
27393SOL    HW184076  11.002   7.970  11.363
27393SOL    HW284077  10.900   7.977  11.251
27394SOL     OW84078   7.530   7.725   8.558
27394SOL    HW184079   7.495   7.668   8.626
27394SOL    HW284080   7.518   7.676   8.477
27395SOL     OW84081   1.148   4.416   3.806
27395SOL    HW184082   1.148   4.506   3.775
27395SOL    HW284083   1.133   4.363   3.728
27396SOL     OW84084   8.804  10.647   4.800
27396SOL    HW184085   8.727  10.591   4.784
27396SOL    HW284086   8.825  10.683   4.714
27397SOL     OW84087  14.475   2.489  10.294
27397SOL    HW184088  14.534   2.433  10.244
27397SOL    HW284089  14.439   2.431  10.362
27398SOL     OW84090   5.835  14.873   7.777
27398SOL    HW184091   5.908   0.010   7.716
27398SOL    HW284092   5.759   0.034   7.731
27399SOL     OW84093   7.387   9.376   2.351
27399SOL    HW184094   7.436   9.398   2.272
27399SOL    HW284095   7.403   9.450   2.410
27400SOL     OW84096   4.057   9.396   3.598
27400SOL    HW184097   4.088   9.442   3.677
27400SOL    HW284098   4.019   9.315   3.631
27401SOL     OW84099  12.200   5.376   0.966
27401SOL    HW184100  12.139   5.442   0.997
27401SOL    HW284101  12.218   5.322   1.043
27402SOL     OW84102   3.449   1.142  11.719
27402SOL    HW184103   3.539   1.141  11.687
27402SOL    HW284104   3.446   1.218  11.777
27403SOL     OW84105   8.079   5.421   9.756
27403SOL    HW184106   8.129   5.342   9.735
27403SOL    HW284107   8.124   5.491   9.709
27404SOL     OW84108   2.328   2.933  13.421
27404SOL    HW184109   2.285   2.987  13.354
27404SOL    HW284110   2.421   2.942  13.403
27405SOL     OW84111   7.493   9.611  11.798
27405SOL    HW184112   7.586   9.602  11.817
27405SOL    HW284113   7.458   9.662  11.872
27406SOL     OW84114   0.480   1.751  12.522
27406SOL    HW184115   0.398   1.709  12.548
27406SOL    HW284116   0.474   1.840  12.556
27407SOL     OW84117  10.973  13.050   9.674
27407SOL    HW184118  11.017  13.006   9.601
27407SOL    HW284119  11.040  13.055   9.743
27408SOL     OW84120   4.359  10.206   7.262
27408SOL    HW184121   4.415  10.219   7.338
27408SOL    HW284122   4.376  10.115   7.235
27409SOL     OW84123   0.741  11.107   7.174
27409SOL    HW184124   0.712  11.177   7.233
27409SOL    HW284125   0.748  11.030   7.231
27410SOL     OW84126   0.684   7.236   8.408
27410SOL    HW184127   0.618   7.217   8.475
27410SOL    HW284128   0.651   7.193   8.330
27411SOL     OW84129   7.264   8.193  13.769
27411SOL    HW184130   7.313   8.177  13.688
27411SOL    HW284131   7.306   8.136  13.834
27412SOL     OW84132  10.120   1.758  11.572
27412SOL    HW184133  10.153   1.800  11.651
27412SOL    HW284134  10.191   1.769  11.508
27413SOL     OW84135  10.340   6.090   0.155
27413SOL    HW184136  10.275   6.102   0.085
27413SOL    HW284137  10.379   6.176   0.167
27414SOL     OW84138  14.343   6.687  11.762
27414SOL    HW184139  14.377   6.752  11.700
27414SOL    HW284140  14.352   6.603  11.716
27415SOL     OW84141   9.126  13.395   8.180
27415SOL    HW184142   9.050  13.425   8.130
27415SOL    HW284143   9.097  13.398   8.271
27416SOL     OW84144  13.473   9.105  12.424
27416SOL    HW184145  13.428   9.025  12.399
27416SOL    HW284146  13.497   9.147  12.341
27417SOL     OW84147   9.617   5.147   0.385
27417SOL    HW184148   9.579   5.230   0.414
27417SOL    HW284149   9.596   5.085   0.455
27418SOL     OW84150   5.122  10.088   2.878
27418SOL    HW184151   5.066  10.130   2.943
27418SOL    HW284152   5.077  10.007   2.856
27419SOL     OW84153   0.239  10.099   3.375
27419SOL    HW184154   0.148  10.120   3.395
27419SOL    HW284155   0.234  10.019   3.322
27420SOL     OW84156   1.740   5.457   4.029
27420SOL    HW184157   1.834   5.468   4.043
27420SOL    HW284158   1.702   5.541   4.056
27421SOL     OW84159  14.190   5.778   5.855
27421SOL    HW184160  14.278   5.766   5.821
27421SOL    HW284161  14.200   5.844   5.924
27422SOL     OW84162   3.215  10.000  13.294
27422SOL    HW184163   3.205   9.933  13.226
27422SOL    HW284164   3.309  10.010  13.305
27423SOL     OW84165   6.735   7.055   2.853
27423SOL    HW184166   6.666   7.122   2.849
27423SOL    HW284167   6.688   6.974   2.874
27424SOL     OW84168  12.220   5.727  13.237
27424SOL    HW184169  12.303   5.708  13.193
27424SOL    HW284170  12.164   5.652  13.216
27425SOL     OW84171   9.091   3.545   3.291
27425SOL    HW184172   9.111   3.633   3.324
27425SOL    HW284173   9.092   3.490   3.369
27426SOL     OW84174  13.281   8.386   4.161
27426SOL    HW184175  13.377   8.381   4.162
27426SOL    HW284176  13.253   8.341   4.240
27427SOL     OW84177  13.805   1.262   8.772
27427SOL    HW184178  13.806   1.236   8.864
27427SOL    HW284179  13.751   1.341   8.771
27428SOL     OW84180   1.296   7.471   2.703
27428SOL    HW184181   1.325   7.454   2.793
27428SOL    HW284182   1.309   7.565   2.690
27429SOL     OW84183  11.704   1.784   0.529
27429SOL    HW184184  11.710   1.878   0.546
27429SOL    HW284185  11.795   1.756   0.516
27430SOL     OW84186   6.826   2.361  10.986
27430SOL    HW184187   6.891   2.405  11.041
27430SOL    HW284188   6.772   2.432  10.951
27431SOL     OW84189   7.429   8.876   9.179
27431SOL    HW184190   7.421   8.946   9.243
27431SOL    HW284191   7.521   8.850   9.184
27432SOL     OW84192  14.522   4.073  10.071
27432SOL    HW184193  14.576   4.021  10.011
27432SOL    HW284194  14.517   4.159  10.030
27433SOL     OW84195  12.624  11.342   2.528
27433SOL    HW184196  12.639  11.332   2.434
27433SOL    HW284197  12.586  11.258   2.555
27434SOL     OW84198   9.515   7.124   4.352
27434SOL    HW184199   9.468   7.042   4.370
27434SOL    HW284200   9.548   7.152   4.437
27435SOL     OW84201   9.439   6.724   1.629
27435SOL    HW184202   9.492   6.678   1.564
27435SOL    HW284203   9.353   6.683   1.623
27436SOL     OW84204  13.746   9.620   3.881
27436SOL    HW184205  13.821   9.636   3.938
27436SOL    HW284206  13.781   9.627   3.792
27437SOL     OW84207   4.965   2.098   4.386
27437SOL    HW184208   4.888   2.042   4.387
27437SOL    HW284209   4.950   2.161   4.457
27438SOL     OW84210  13.863   0.295   2.357
27438SOL    HW184211  13.948   0.309   2.399
27438SOL    HW284212  13.800   0.300   2.429
27439SOL     OW84213   1.316   6.451   4.356
27439SOL    HW184214   1.358   6.517   4.412
27439SOL    HW284215   1.255   6.406   4.415
27440SOL     OW84216   3.181   1.547  10.772
27440SOL    HW184217   3.254   1.508  10.820
27440SOL    HW284218   3.110   1.553  10.836
27441SOL     OW84219   2.748   2.647   0.150
27441SOL    HW184220   2.721   2.684   0.234
27441SOL    HW284221   2.790   2.719   0.104
27442SOL     OW84222   2.502   1.517   3.565
27442SOL    HW184223   2.467   1.428   3.561
27442SOL    HW284224   2.536   1.533   3.477
27443SOL     OW84225   0.602   6.052   4.526
27443SOL    HW184226   0.690   6.031   4.495
27443SOL    HW284227   0.557   5.967   4.531
27444SOL     OW84228  13.635   3.031  11.101
27444SOL    HW184229  13.623   3.013  11.008
27444SOL    HW284230  13.675   2.951  11.137
27445SOL     OW84231   2.548  12.777   1.774
27445SOL    HW184232   2.580  12.694   1.811
27445SOL    HW284233   2.620  12.807   1.718
27446SOL     OW84234   0.047  13.484   2.204
27446SOL    HW184235  14.845  13.536   2.182
27446SOL    HW284236   0.012  13.401   2.236
27447SOL     OW84237   6.454   9.667  14.440
27447SOL    HW184238   6.481   9.589  14.392
27447SOL    HW284239   6.446   9.734  14.372
27448SOL     OW84240   7.316   4.960   4.437
27448SOL    HW184241   7.390   4.990   4.383
27448SOL    HW284242   7.330   4.866   4.447
27449SOL     OW84243   4.918   6.089  13.324
27449SOL    HW184244   4.962   6.008  13.298
27449SOL    HW284245   4.970   6.158  13.286
27450SOL     OW84246  13.610   4.514   6.412
27450SOL    HW184247  13.540   4.488   6.353
27450SOL    HW284248  13.601   4.456   6.487
27451SOL     OW84249  14.131   6.061   9.004
27451SOL    HW184250  14.098   5.976   8.976
27451SOL    HW284251  14.149   6.108   8.923
27452SOL     OW84252   4.206  10.290  14.859
27452SOL    HW184253   4.145  10.316  14.790
27452SOL    HW284254   4.292  10.295  14.819
27453SOL     OW84255   5.194   0.683  12.733
27453SOL    HW184256   5.206   0.590  12.715
27453SOL    HW284257   5.265   0.705  12.793
27454SOL     OW84258   3.106  10.998  13.409
27454SOL    HW184259   3.146  11.011  13.495
27454SOL    HW284260   3.124  10.906  13.388
27455SOL     OW84261  11.731  13.992   6.386
27455SOL    HW184262  11.735  14.084   6.361
27455SOL    HW284263  11.654  13.986   6.442
27456SOL     OW84264   3.228   6.051  10.682
27456SOL    HW184265   3.136   6.034  10.664
27456SOL    HW284266   3.267   6.066  10.596
27457SOL     OW84267   6.302   7.675   4.795
27457SOL    HW184268   6.212   7.706   4.795
27457SOL    HW284269   6.299   7.592   4.841
27458SOL     OW84270   1.741   1.761   4.652
27458SOL    HW184271   1.735   1.815   4.731
27458SOL    HW284272   1.689   1.808   4.587
27459SOL     OW84273   1.196  14.145  14.557
27459SOL    HW184274   1.221  14.108  14.473
27459SOL    HW284275   1.108  14.111  14.573
27460SOL     OW84276   0.154   6.422   5.651
27460SOL    HW184277   0.108   6.374   5.583
27460SOL    HW284278   0.240   6.381   5.655
27461SOL     OW84279  12.848  10.544   9.784
27461SOL    HW184280  12.914  10.514   9.722
27461SOL    HW284281  12.877  10.510   9.869
27462SOL     OW84282   3.600  10.975  14.091
27462SOL    HW184283   3.666  10.907  14.103
27462SOL    HW284284   3.554  10.979  14.175
27463SOL     OW84285   4.026   1.464  10.632
27463SOL    HW184286   3.990   1.516  10.704
27463SOL    HW284287   4.049   1.380  10.673
27464SOL     OW84288  13.170   3.088   2.124
27464SOL    HW184289  13.087   3.132   2.141
27464SOL    HW284290  13.150   3.025   2.054
27465SOL     OW84291   9.598   0.380   6.778
27465SOL    HW184292   9.569   0.318   6.844
27465SOL    HW284293   9.521   0.435   6.760
27466SOL     OW84294   3.362  12.444  13.831
27466SOL    HW184295   3.282  12.495  13.843
27466SOL    HW284296   3.409  12.489  13.761
27467SOL     OW84297   4.626   4.844  10.081
27467SOL    HW184298   4.580   4.787  10.020
27467SOL    HW284299   4.630   4.795  10.162
27468SOL     OW84300  13.173  13.920   3.202
27468SOL    HW184301  13.134  13.989   3.256
27468SOL    HW284302  13.247  13.889   3.254
27469SOL     OW84303   5.506   8.858  11.424
27469SOL    HW184304   5.473   8.772  11.448
27469SOL    HW284305   5.569   8.841  11.354
27470SOL     OW84306  14.625  11.967  14.657
27470SOL    HW184307  14.611  11.973  14.751
27470SOL    HW284308  14.652  12.055  14.631
27471SOL     OW84309  14.507   5.450   9.312
27471SOL    HW184310  14.586   5.486   9.353
27471SOL    HW284311  14.443   5.522   9.317
27472SOL     OW84312   3.239   2.022  12.188
27472SOL    HW184313   3.153   2.052  12.159
27472SOL    HW284314   3.264   1.955  12.124
27473SOL     OW84315   8.639  10.528   5.394
27473SOL    HW184316   8.555  10.557   5.359
27473SOL    HW284317   8.648  10.438   5.363
27474SOL     OW84318   2.442   6.645   2.364
27474SOL    HW184319   2.443   6.549   2.367
27474SOL    HW284320   2.474   6.667   2.277
27475SOL     OW84321   3.018   1.343  13.087
27475SOL    HW184322   3.053   1.256  13.105
27475SOL    HW284323   3.085   1.385  13.032
27476SOL     OW84324   0.083  12.693  10.594
27476SOL    HW184325  14.875  12.650  10.616
27476SOL    HW284326   0.059  12.784  10.578
27477SOL     OW84327   7.070   3.320   4.398
27477SOL    HW184328   7.080   3.238   4.448
27477SOL    HW284329   6.992   3.361   4.435
27478SOL     OW84330  13.556   9.327   9.690
27478SOL    HW184331  13.633   9.281   9.658
27478SOL    HW284332  13.566   9.328   9.785
27479SOL     OW84333  14.674   5.849  14.223
27479SOL    HW184334  14.719   5.790  14.163
27479SOL    HW284335  14.730   5.926  14.228
27480SOL     OW84336  12.125   5.198  13.595
27480SOL    HW184337  12.094   5.118  13.553
27480SOL    HW284338  12.203   5.171  13.644
27481SOL     OW84339   6.876   7.588   5.573
27481SOL    HW184340   6.954   7.591   5.629
27481SOL    HW284341   6.802   7.593   5.634
27482SOL     OW84342   6.806   3.504   2.290
27482SOL    HW184343   6.806   3.436   2.357
27482SOL    HW284344   6.714   3.525   2.277
27483SOL     OW84345  11.866  12.500   7.302
27483SOL    HW184346  11.868  12.590   7.336
27483SOL    HW284347  11.944  12.459   7.340
27484SOL     OW84348  10.610   0.743   7.984
27484SOL    HW184349  10.610   0.649   8.000
27484SOL    HW284350  10.556   0.779   8.054
27485SOL     OW84351   6.492  11.980   7.434
27485SOL    HW184352   6.406  11.939   7.429
27485SOL    HW284353   6.539  11.948   7.356
27486SOL     OW84354  11.959  13.447  11.910
27486SOL    HW184355  12.020  13.454  11.837
27486SOL    HW284356  11.881  13.406  11.873
27487SOL     OW84357   4.713  12.032   7.939
27487SOL    HW184358   4.802  12.039   7.906
27487SOL    HW284359   4.698  11.937   7.947
27488SOL     OW84360   2.660  10.081  12.620
27488SOL    HW184361   2.718  10.023  12.668
27488SOL    HW284362   2.718  10.137  12.568
27489SOL     OW84363   7.055   6.866  14.206
27489SOL    HW184364   7.125   6.816  14.249
27489SOL    HW284365   7.082   6.957  14.215
27490SOL     OW84366   2.560  11.366  11.760
27490SOL    HW184367   2.636  11.309  11.763
27490SOL    HW284368   2.511  11.338  11.683
27491SOL     OW84369   8.592   6.481   6.793
27491SOL    HW184370   8.587   6.429   6.713
27491SOL    HW284371   8.514   6.457   6.842
27492SOL     OW84372   5.142  13.454   1.489
27492SOL    HW184373   5.067  13.450   1.430
27492SOL    HW284374   5.208  13.502   1.440
27493SOL     OW84375   7.386  14.178   5.542
27493SOL    HW184376   7.330  14.110   5.578
27493SOL    HW284377   7.415  14.142   5.458
27494SOL     OW84378   4.226   9.191   6.058
27494SOL    HW184379   4.261   9.280   6.055
27494SOL    HW284380   4.132   9.202   6.071
27495SOL     OW84381   6.470  11.291  14.697
27495SOL    HW184382   6.518  11.209  14.684
27495SOL    HW284383   6.378  11.266  14.693
27496SOL     OW84384   8.609   7.075  12.388
27496SOL    HW184385   8.554   7.086  12.466
27496SOL    HW284386   8.684   7.024  12.418
27497SOL     OW84387   3.818   2.763   5.393
27497SOL    HW184388   3.878   2.730   5.460
27497SOL    HW284389   3.813   2.857   5.412
27498SOL     OW84390   6.015   4.461   3.716
27498SOL    HW184391   6.084   4.524   3.738
27498SOL    HW284392   6.060   4.390   3.670
27499SOL     OW84393   6.685  12.275   7.430
27499SOL    HW184394   6.668  12.348   7.371
27499SOL    HW284395   6.759  12.229   7.390
27500SOL     OW84396  11.986   2.054  11.906
27500SOL    HW184397  11.987   2.058  11.810
27500SOL    HW284398  11.898   2.084  11.930
27501SOL     OW84399   9.524  11.060   4.110
27501SOL    HW184400   9.529  11.071   4.206
27501SOL    HW284401   9.516  10.966   4.097
27502SOL     OW84402  13.821   0.006   7.669
27502SOL    HW184403  13.735  14.839   7.665
27502SOL    HW284404  13.823   0.048   7.755
27503SOL     OW84405  13.295   5.712   5.062
27503SOL    HW184406  13.212   5.667   5.078
27503SOL    HW284407  13.279   5.761   4.981
27504SOL     OW84408   4.719  11.576   5.230
27504SOL    HW184409   4.786  11.571   5.161
27504SOL    HW284410   4.638  11.594   5.182
27505SOL     OW84411   5.991  14.679  10.706
27505SOL    HW184412   6.006  14.656  10.614
27505SOL    HW284413   5.903  14.717  10.707
27506SOL     OW84414  11.618   6.466  10.326
27506SOL    HW184415  11.645   6.503  10.410
27506SOL    HW284416  11.556   6.396  10.350
27507SOL     OW84417   1.900  10.860  11.610
27507SOL    HW184418   1.903  10.955  11.599
27507SOL    HW284419   1.812  10.835  11.580
27508SOL     OW84420  11.262  10.065   3.040
27508SOL    HW184421  11.238   9.987   3.091
27508SOL    HW284422  11.224  10.049   2.954
27509SOL     OW84423   0.528   8.438   2.842
27509SOL    HW184424   0.615   8.430   2.881
27509SOL    HW284425   0.535   8.393   2.757
27510SOL     OW84426  12.031  13.087   7.985
27510SOL    HW184427  12.110  13.127   8.021
27510SOL    HW284428  11.962  13.153   7.997
27511SOL     OW84429   9.533  10.201   5.193
27511SOL    HW184430   9.502  10.120   5.233
27511SOL    HW284431   9.608  10.228   5.247
27512SOL     OW84432   3.422  10.082   2.418
27512SOL    HW184433   3.417  10.156   2.357
27512SOL    HW284434   3.378  10.010   2.372
27513SOL     OW84435  13.291  11.665   3.027
27513SOL    HW184436  13.317  11.753   3.001
27513SOL    HW284437  13.363  11.609   2.998
27514SOL     OW84438  14.599  13.941   9.885
27514SOL    HW184439  14.554  14.025   9.890
27514SOL    HW284440  14.692  13.964   9.882
27515SOL     OW84441   5.159   2.996  11.079
27515SOL    HW184442   5.118   3.075  11.115
27515SOL    HW284443   5.206   3.028  11.002
27516SOL     OW84444   5.010  10.516  11.131
27516SOL    HW184445   5.080  10.451  11.143
27516SOL    HW284446   4.941  10.468  11.086
27517SOL     OW84447   9.652   3.870   3.207
27517SOL    HW184448   9.634   3.859   3.114
27517SOL    HW284449   9.566   3.878   3.247
27518SOL     OW84450   9.440   2.106  13.711
27518SOL    HW184451   9.507   2.070  13.653
27518SOL    HW284452   9.485   2.120  13.794
27519SOL     OW84453  13.461   2.744  12.120
27519SOL    HW184454  13.430   2.774  12.035
27519SOL    HW284455  13.403   2.672  12.143
27520SOL     OW84456  10.951  13.960  10.275
27520SOL    HW184457  10.894  13.995  10.207
27520SOL    HW284458  10.945  14.022  10.348
27521SOL     OW84459   4.841  11.922   4.552
27521SOL    HW184460   4.836  12.011   4.518
27521SOL    HW284461   4.903  11.927   4.625
27522SOL     OW84462   3.050  12.533   0.044
27522SOL    HW184463   3.119  12.489  14.869
27522SOL    HW284464   3.079  12.527   0.135
27523SOL     OW84465   8.358   0.264  11.331
27523SOL    HW184466   8.373   0.355  11.356
27523SOL    HW284467   8.434   0.242  11.276
27524SOL     OW84468   0.018   8.501   8.424
27524SOL    HW184469  14.798   8.512   8.413
27524SOL    HW284470   0.053   8.504   8.335
27525SOL     OW84471   8.713   0.213   0.696
27525SOL    HW184472   8.671   0.131   0.720
27525SOL    HW284473   8.797   0.187   0.658
27526SOL     OW84474   6.341   1.925   0.633
27526SOL    HW184475   6.433   1.922   0.662
27526SOL    HW284476   6.332   1.851   0.572
27527SOL     OW84477   5.828   7.123   9.144
27527SOL    HW184478   5.751   7.114   9.088
27527SOL    HW284479   5.869   7.037   9.142
27528SOL     OW84480   7.500   3.396   0.168
27528SOL    HW184481   7.538   3.360   0.088
27528SOL    HW284482   7.574   3.402   0.229
27529SOL     OW84483   0.713  10.001   6.219
27529SOL    HW184484   0.760   9.932   6.265
27529SOL    HW284485   0.778  10.039   6.160
27530SOL     OW84486   2.126   9.924  11.939
27530SOL    HW184487   2.091   9.835  11.947
27530SOL    HW284488   2.214   9.919  11.974
27531SOL     OW84489   0.053   3.618   6.469
27531SOL    HW184490   0.128   3.560   6.456
27531SOL    HW284491  14.855   3.558   6.487
27532SOL     OW84492   6.563  13.393   7.196
27532SOL    HW184493   6.481  13.375   7.242
27532SOL    HW284494   6.576  13.487   7.207
27533SOL     OW84495   4.344  10.204   1.053
27533SOL    HW184496   4.291  10.235   0.980
27533SOL    HW284497   4.389  10.282   1.086
27534SOL     OW84498   7.777   0.487   3.163
27534SOL    HW184499   7.716   0.505   3.234
27534SOL    HW284500   7.722   0.476   3.085
27535SOL     OW84501  13.281  11.335   2.262
27535SOL    HW184502  13.251  11.422   2.235
27535SOL    HW284503  13.286  11.285   2.181
27536SOL     OW84504  11.756  10.076  13.775
27536SOL    HW184505  11.667  10.093  13.746
27536SOL    HW284506  11.802  10.049  13.695
27537SOL     OW84507  14.434   1.349   5.419
27537SOL    HW184508  14.421   1.255   5.408
27537SOL    HW284509  14.492   1.374   5.347
27538SOL     OW84510   1.765  14.858   8.357
27538SOL    HW184511   1.714  14.862   8.438
27538SOL    HW284512   1.724  14.787   8.306
27539SOL     OW84513  13.533   0.798  13.551
27539SOL    HW184514  13.489   0.841  13.478
27539SOL    HW284515  13.574   0.869  13.600
27540SOL     OW84516   4.693  10.154  13.512
27540SOL    HW184517   4.709  10.085  13.577
27540SOL    HW284518   4.630  10.212  13.554
27541SOL     OW84519  12.493   8.540  12.106
27541SOL    HW184520  12.457   8.455  12.129
27541SOL    HW284521  12.417   8.593  12.083
27542SOL     OW84522  11.211  11.923   1.193
27542SOL    HW184523  11.287  11.866   1.185
27542SOL    HW284524  11.208  11.946   1.286
27543SOL     OW84525   6.683   4.858   2.575
27543SOL    HW184526   6.745   4.904   2.519
27543SOL    HW284527   6.612   4.833   2.516
27544SOL     OW84528   7.202   5.868   3.626
27544SOL    HW184529   7.202   5.933   3.555
27544SOL    HW284530   7.253   5.909   3.695
27545SOL     OW84531  11.382   8.562  11.890
27545SOL    HW184532  11.338   8.647  11.892
27545SOL    HW284533  11.472   8.581  11.915
27546SOL     OW84534   1.014   3.938  12.663
27546SOL    HW184535   0.927   3.900  12.654
27546SOL    HW284536   1.020   3.963  12.755
27547SOL     OW84537  13.700  13.028  11.036
27547SOL    HW184538  13.626  13.048  11.093
27547SOL    HW284539  13.735  13.114  11.011
27548SOL     OW84540   7.465   5.350   2.646
27548SOL    HW184541   7.404   5.419   2.671
27548SOL    HW284542   7.451   5.281   2.712
27549SOL     OW84543   0.660  14.514   0.147
27549SOL    HW184544   0.602  14.568   0.202
27549SOL    HW284545   0.666  14.431   0.193
27550SOL     OW84546  10.390   1.506  14.551
27550SOL    HW184547  10.485   1.497  14.546
27550SOL    HW284548  10.376   1.600  14.562
27551SOL     OW84549  14.024   7.696   0.501
27551SOL    HW184550  14.073   7.665   0.425
27551SOL    HW284551  14.058   7.784   0.518
27552SOL     OW84552  11.529   9.190  14.401
27552SOL    HW184553  11.519   9.245  14.479
27552SOL    HW284554  11.525   9.251  14.327
27553SOL     OW84555   7.917   3.103   1.801
27553SOL    HW184556   7.948   3.108   1.710
27553SOL    HW284557   7.895   3.011   1.813
27554SOL     OW84558   1.156  12.204  11.673
27554SOL    HW184559   1.085  12.179  11.613
27554SOL    HW284560   1.155  12.299  11.673
27555SOL     OW84561   6.205  13.136   1.361
27555SOL    HW184562   6.155  13.182   1.428
27555SOL    HW284563   6.248  13.207   1.312
27556SOL     OW84564   4.252  14.659   6.873
27556SOL    HW184565   4.193  14.733   6.885
27556SOL    HW284566   4.253  14.644   6.779
27557SOL     OW84567  13.630   7.640   7.333
27557SOL    HW184568  13.592   7.636   7.246
27557SOL    HW284569  13.680   7.722   7.334
27558SOL     OW84570  10.730   3.905   1.695
27558SOL    HW184571  10.693   3.838   1.637
27558SOL    HW284572  10.654   3.941   1.742
27559SOL     OW84573   9.752   6.020   8.482
27559SOL    HW184574   9.706   5.954   8.534
27559SOL    HW284575   9.729   6.104   8.523
27560SOL     OW84576   2.299   4.167   5.188
27560SOL    HW184577   2.251   4.249   5.177
27560SOL    HW284578   2.381   4.192   5.230
27561SOL     OW84579  12.003  12.185   4.064
27561SOL    HW184580  11.918  12.219   4.090
27561SOL    HW284581  12.004  12.194   3.968
27562SOL     OW84582   0.331   3.510   6.950
27562SOL    HW184583   0.424   3.527   6.941
27562SOL    HW284584   0.323   3.414   6.947
27563SOL     OW84585   3.811  14.868  10.026
27563SOL    HW184586   3.720  14.842  10.039
27563SOL    HW284587   3.827  14.857   9.933
27564SOL     OW84588  10.981  10.927   1.490
27564SOL    HW184589  10.931  11.003   1.459
27564SOL    HW284590  10.915  10.858   1.499
27565SOL     OW84591   1.678   7.134  12.325
27565SOL    HW184592   1.715   7.066  12.382
27565SOL    HW284593   1.657   7.205  12.385
27566SOL     OW84594  11.688  11.871   5.034
27566SOL    HW184595  11.775  11.831   5.029
27566SOL    HW284596  11.703  11.957   5.071
27567SOL     OW84597   9.639   6.577  13.215
27567SOL    HW184598   9.710   6.607  13.272
27567SOL    HW284599   9.559   6.604  13.260
27568SOL     OW84600   3.165   8.339   2.925
27568SOL    HW184601   3.198   8.336   3.015
27568SOL    HW284602   3.127   8.252   2.911
27569SOL     OW84603   7.474   8.630   3.420
27569SOL    HW184604   7.506   8.541   3.425
27569SOL    HW284605   7.380   8.621   3.405
27570SOL     OW84606   0.464  12.456   4.131
27570SOL    HW184607   0.545  12.486   4.171
27570SOL    HW284608   0.488  12.379   4.080
27571SOL     OW84609  12.246   2.943   6.129
27571SOL    HW184610  12.278   2.871   6.075
27571SOL    HW284611  12.168   2.975   6.084
27572SOL     OW84612   9.549  12.795   1.137
27572SOL    HW184613   9.549  12.719   1.078
27572SOL    HW284614   9.459  12.803   1.167
27573SOL     OW84615  12.630   4.445   0.363
27573SOL    HW184616  12.542   4.464   0.395
27573SOL    HW284617  12.643   4.352   0.381
27574SOL     OW84618   8.251   8.697  10.977
27574SOL    HW184619   8.175   8.756  10.975
27574SOL    HW284620   8.214   8.611  11.000
27575SOL     OW84621  10.321   0.425  13.277
27575SOL    HW184622  10.339   0.361  13.207
27575SOL    HW284623  10.286   0.501  13.231
27576SOL     OW84624   2.035  14.750   5.487
27576SOL    HW184625   2.028  14.808   5.563
27576SOL    HW284626   2.104  14.688   5.510
27577SOL     OW84627  11.113   3.017   5.163
27577SOL    HW184628  11.144   2.981   5.079
27577SOL    HW284629  11.022   2.990   5.169
27578SOL     OW84630  14.484  11.679   0.151
27578SOL    HW184631  14.456  11.747   0.090
27578SOL    HW284632  14.579  11.688   0.155
27579SOL     OW84633   7.008   1.800   5.166
27579SOL    HW184634   6.952   1.868   5.128
27579SOL    HW284635   6.976   1.791   5.257
27580SOL     OW84636  12.525  13.924  12.533
27580SOL    HW184637  12.561  13.979  12.602
27580SOL    HW284638  12.533  13.977  12.454
27581SOL     OW84639  11.419   4.855  12.872
27581SOL    HW184640  11.372   4.774  12.851
27581SOL    HW284641  11.369   4.893  12.944
27582SOL     OW84642  13.542   2.470   8.366
27582SOL    HW184643  13.521   2.553   8.325
27582SOL    HW284644  13.461   2.443   8.409
27583SOL     OW84645   1.957  10.800  13.554
27583SOL    HW184646   1.996  10.805  13.641
27583SOL    HW284647   2.030  10.780  13.496
27584SOL     OW84648   2.207   0.521  10.896
27584SOL    HW184649   2.275   0.459  10.922
27584SOL    HW284650   2.181   0.493  10.809
27585SOL     OW84651   9.324   0.725   4.714
27585SOL    HW184652   9.243   0.685   4.747
27585SOL    HW284653   9.301   0.817   4.700
27586SOL     OW84654  14.602   8.938   1.417
27586SOL    HW184655  14.687   8.902   1.442
27586SOL    HW284656  14.558   8.866   1.373
27587SOL     OW84657  12.494   9.599   4.058
27587SOL    HW184658  12.561   9.587   4.126
27587SOL    HW284659  12.412   9.605   4.107
27588SOL     OW84660  10.411   3.324   4.660
27588SOL    HW184661  10.420   3.316   4.565
27588SOL    HW284662  10.316   3.321   4.675
27589SOL     OW84663   2.128   5.677  10.831
27589SOL    HW184664   2.078   5.651  10.753
27589SOL    HW284665   2.096   5.764  10.853
27590SOL     OW84666   1.173   5.979  11.118
27590SOL    HW184667   1.138   6.019  11.039
27590SOL    HW284668   1.221   6.050  11.162
27591SOL     OW84669   0.267   6.420   4.207
27591SOL    HW184670   0.357   6.445   4.227
27591SOL    HW284671   0.273   6.327   4.183
27592SOL     OW84672   5.760  14.831  14.482
27592SOL    HW184673   5.808  14.783  14.549
27592SOL    HW284674   5.824   0.015  14.444
27593SOL     OW84675   3.398  14.101   9.060
27593SOL    HW184676   3.462  14.164   9.094
27593SOL    HW284677   3.330  14.097   9.128
27594SOL     OW84678   8.110   2.975   4.433
27594SOL    HW184679   8.081   2.983   4.342
27594SOL    HW284680   8.099   3.063   4.469
27595SOL     OW84681  13.834  12.021   4.789
27595SOL    HW184682  13.847  11.986   4.877
27595SOL    HW284683  13.749  12.065   4.792
27596SOL     OW84684   5.579   8.371  13.671
27596SOL    HW184685   5.562   8.277  13.678
27596SOL    HW284686   5.634   8.391  13.746
27597SOL     OW84687   0.028   6.343   7.105
27597SOL    HW184688   0.123   6.359   7.103
27597SOL    HW284689   0.019   6.252   7.077
27598SOL     OW84690  13.445  12.845  14.463
27598SOL    HW184691  13.498  12.811  14.535
27598SOL    HW284692  13.404  12.768  14.425
27599SOL     OW84693   8.067   5.563  12.198
27599SOL    HW184694   8.065   5.469  12.180
27599SOL    HW284695   7.992   5.599  12.150
27600SOL     OW84696   8.598   9.712  14.567
27600SOL    HW184697   8.603   9.725  14.662
27600SOL    HW284698   8.587   9.800  14.532
27601SOL     OW84699   3.675  10.388  12.471
27601SOL    HW184700   3.735  10.442  12.420
27601SOL    HW284701   3.688  10.415  12.562
27602SOL     OW84702   3.479   9.405   3.067
27602SOL    HW184703   3.497   9.312   3.060
27602SOL    HW284704   3.553   9.440   3.118
27603SOL     OW84705   4.646   5.905   2.226
27603SOL    HW184706   4.578   5.851   2.266
27603SOL    HW284707   4.598   5.975   2.181
27604SOL     OW84708   8.251  11.595   9.599
27604SOL    HW184709   8.220  11.573   9.511
27604SOL    HW284710   8.246  11.512   9.647
27605SOL     OW84711   2.327  11.530   1.261
27605SOL    HW184712   2.269  11.484   1.322
27605SOL    HW284713   2.389  11.462   1.232
27606SOL     OW84714   7.932  14.679  13.750
27606SOL    HW184715   8.008  14.728  13.780
27606SOL    HW284716   7.914  14.714  13.663
27607SOL     OW84717   7.983  10.519   2.960
27607SOL    HW184718   7.901  10.512   3.010
27607SOL    HW284719   7.973  10.600   2.910
27608SOL     OW84720   2.423  11.729  14.625
27608SOL    HW184721   2.452  11.815  14.656
27608SOL    HW284722   2.414  11.677  14.706
27609SOL     OW84723  10.029  12.071   8.558
27609SOL    HW184724   9.983  11.992   8.529
27609SOL    HW284725  10.095  12.038   8.621
27610SOL     OW84726   2.270  10.000   5.991
27610SOL    HW184727   2.308   9.947   6.062
27610SOL    HW284728   2.345  10.046   5.953
27611SOL     OW84729  11.724   9.953  10.641
27611SOL    HW184730  11.635   9.981  10.621
27611SOL    HW284731  11.778  10.030  10.625
27612SOL     OW84732   0.726  13.075   4.128
27612SOL    HW184733   0.799  13.034   4.175
27612SOL    HW284734   0.705  13.153   4.179
27613SOL     OW84735  14.271   3.392  13.857
27613SOL    HW184736  14.266   3.347  13.772
27613SOL    HW284737  14.310   3.477  13.837
27614SOL     OW84738  12.153   4.299   7.879
27614SOL    HW184739  12.145   4.385   7.921
27614SOL    HW284740  12.064   4.279   7.849
27615SOL     OW84741   7.639   5.067   1.207
27615SOL    HW184742   7.589   4.991   1.236
27615SOL    HW284743   7.698   5.085   1.280
27616SOL     OW84744   8.423  12.367  14.094
27616SOL    HW184745   8.357  12.340  14.158
27616SOL    HW284746   8.436  12.461  14.112
27617SOL     OW84747   8.037   8.451   4.621
27617SOL    HW184748   8.029   8.410   4.535
27617SOL    HW284749   8.129   8.478   4.627
27618SOL     OW84750   3.600  10.538   8.302
27618SOL    HW184751   3.536  10.467   8.295
27618SOL    HW284752   3.642  10.540   8.215
27619SOL     OW84753   7.584   7.343  14.234
27619SOL    HW184754   7.608   7.281  14.166
27619SOL    HW284755   7.511   7.393  14.197
27620SOL     OW84756  12.186   0.117  12.021
27620SOL    HW184757  12.124   0.106  11.949
27620SOL    HW284758  12.210   0.028  12.046
27621SOL     OW84759   0.967  13.255   3.204
27621SOL    HW184760   0.956  13.224   3.114
27621SOL    HW284761   1.037  13.320   3.199
27622SOL     OW84762  12.651   3.511   5.712
27622SOL    HW184763  12.662   3.545   5.801
27622SOL    HW284764  12.614   3.424   5.723
27623SOL     OW84765   7.937   1.064  11.785
27623SOL    HW184766   7.902   1.125  11.850
27623SOL    HW284767   8.019   1.032  11.824
27624SOL     OW84768   9.547   3.890  13.504
27624SOL    HW184769   9.516   3.977  13.478
27624SOL    HW284770   9.477   3.831  13.477
27625SOL     OW84771   0.620  14.055  14.130
27625SOL    HW184772   0.706  14.061  14.089
27625SOL    HW284773   0.631  13.992  14.202
27626SOL     OW84774   4.156   3.241   5.936
27626SOL    HW184775   4.225   3.232   6.000
27626SOL    HW284776   4.181   3.183   5.864
27627SOL     OW84777  14.102  13.713   3.389
27627SOL    HW184778  14.111  13.709   3.294
27627SOL    HW284779  14.054  13.795   3.405
27628SOL     OW84780   2.768   6.077  10.647
27628SOL    HW184781   2.739   6.015  10.715
27628SOL    HW284782   2.725   6.159  10.669
27629SOL     OW84783   6.281  10.967  12.815
27629SOL    HW184784   6.373  10.977  12.839
27629SOL    HW284785   6.239  11.045  12.851
27630SOL     OW84786   6.350   3.094  10.678
27630SOL    HW184787   6.342   3.063  10.768
27630SOL    HW284788   6.363   3.014  10.626
27631SOL     OW84789   8.597   4.266   1.008
27631SOL    HW184790   8.678   4.217   1.018
27631SOL    HW284791   8.592   4.287   0.915
27632SOL     OW84792   7.590   6.142   6.609
27632SOL    HW184793   7.634   6.226   6.621
27632SOL    HW284794   7.620   6.088   6.682
27633SOL     OW84795   0.577  14.655   9.440
27633SOL    HW184796   0.535  14.731   9.480
27633SOL    HW284797   0.526  14.580   9.473
27634SOL     OW84798   0.270   4.055  13.002
27634SOL    HW184799   0.304   4.109  13.073
27634SOL    HW284800   0.213   4.115  12.953
27635SOL     OW84801   5.382  12.707   9.280
27635SOL    HW184802   5.364  12.765   9.354
27635SOL    HW284803   5.473  12.680   9.293
27636SOL     OW84804   8.246   5.573   0.877
27636SOL    HW184805   8.308   5.572   0.804
27636SOL    HW284806   8.213   5.663   0.879
27637SOL     OW84807   0.506  11.905   4.623
27637SOL    HW184808   0.554  11.971   4.673
27637SOL    HW284809   0.510  11.936   4.532
27638SOL     OW84810  11.724   6.108  12.449
27638SOL    HW184811  11.756   6.180  12.396
27638SOL    HW284812  11.645   6.142  12.492
27639SOL     OW84813  10.439  11.670  11.982
27639SOL    HW184814  10.356  11.705  12.013
27639SOL    HW284815  10.476  11.625  12.057
27640SOL     OW84816   1.798  14.810   7.237
27640SOL    HW184817   1.753   0.015   7.264
27640SOL    HW284818   1.770  14.744   7.300
27641SOL     OW84819   0.961   5.113   0.908
27641SOL    HW184820   1.023   5.156   0.967
27641SOL    HW284821   0.962   5.166   0.828
27642SOL     OW84822   0.126   9.416   5.004
27642SOL    HW184823   0.051   9.447   5.054
27642SOL    HW284824   0.166   9.350   5.060
27643SOL     OW84825   3.847   7.965   1.536
27643SOL    HW184826   3.863   7.876   1.505
27643SOL    HW284827   3.928   8.013   1.516
27644SOL     OW84828  10.927   6.474  10.936
27644SOL    HW184829  10.953   6.450  11.025
27644SOL    HW284830  10.913   6.390  10.893
27645SOL     OW84831   0.464   0.711   8.603
27645SOL    HW184832   0.474   0.753   8.518
27645SOL    HW284833   0.423   0.777   8.658
27646SOL     OW84834   0.254   7.965   3.517
27646SOL    HW184835   0.202   7.954   3.597
27646SOL    HW284836   0.334   7.915   3.534
27647SOL     OW84837   5.358   5.298   8.270
27647SOL    HW184838   5.345   5.224   8.328
27647SOL    HW284839   5.423   5.353   8.314
27648SOL     OW84840  11.273  10.204   5.610
27648SOL    HW184841  11.217  10.279   5.587
27648SOL    HW284842  11.339  10.241   5.669
27649SOL     OW84843   1.657  13.535   9.209
27649SOL    HW184844   1.606  13.611   9.182
27649SOL    HW284845   1.694  13.560   9.294
27650SOL     OW84846  14.062   5.288   6.081
27650SOL    HW184847  14.120   5.364   6.076
27650SOL    HW284848  14.026   5.292   6.169
27651SOL     OW84849   8.303   2.434   3.706
27651SOL    HW184850   8.368   2.366   3.722
27651SOL    HW284851   8.246   2.432   3.782
27652SOL     OW84852   1.605  11.257   0.919
27652SOL    HW184853   1.559  11.219   0.844
27652SOL    HW284854   1.620  11.348   0.894
27653SOL     OW84855   3.359   6.166   8.255
27653SOL    HW184856   3.348   6.246   8.307
27653SOL    HW284857   3.278   6.117   8.267
27654SOL     OW84858  11.816  12.760   4.162
27654SOL    HW184859  11.823  12.849   4.126
27654SOL    HW284860  11.752  12.768   4.233
27655SOL     OW84861  13.243   6.673  12.604
27655SOL    HW184862  13.160   6.720  12.601
27655SOL    HW284863  13.273   6.683  12.695
27656SOL     OW84864  10.642  12.313   2.784
27656SOL    HW184865  10.557  12.274   2.808
27656SOL    HW284866  10.640  12.400   2.824
27657SOL     OW84867   6.402  10.874   2.316
27657SOL    HW184868   6.431  10.866   2.407
27657SOL    HW284869   6.471  10.926   2.274
27658SOL     OW84870   2.675  11.992  10.010
27658SOL    HW184871   2.724  12.037   9.941
27658SOL    HW284872   2.625  11.925   9.965
27659SOL     OW84873   6.503   9.170   7.743
27659SOL    HW184874   6.513   9.122   7.825
27659SOL    HW284875   6.425   9.131   7.702
27660SOL     OW84876   6.890   7.315   9.281
27660SOL    HW184877   6.943   7.275   9.350
27660SOL    HW284878   6.823   7.249   9.261
27661SOL     OW84879  12.466   8.685  11.001
27661SOL    HW184880  12.518   8.698  11.080
27661SOL    HW284881  12.454   8.590  10.996
27662SOL     OW84882   9.137  12.481   1.609
27662SOL    HW184883   9.169  12.394   1.583
27662SOL    HW284884   9.125  12.474   1.704
27663SOL     OW84885   6.444   5.594  14.236
27663SOL    HW184886   6.483   5.672  14.276
27663SOL    HW284887   6.445   5.528  14.306
27664SOL     OW84888   0.615   8.375   5.322
27664SOL    HW184889   0.630   8.361   5.228
27664SOL    HW284890   0.697   8.412   5.354
27665SOL     OW84891  12.518   4.827   8.211
27665SOL    HW184892  12.450   4.781   8.260
27665SOL    HW284893  12.583   4.760   8.192
27666SOL     OW84894  13.428  13.550  10.890
27666SOL    HW184895  13.496  13.547  10.823
27666SOL    HW284896  13.350  13.581  10.843
27667SOL     OW84897  11.405  14.117   6.052
27667SOL    HW184898  11.447  14.199   6.077
27667SOL    HW284899  11.467  14.049   6.078
27668SOL     OW84900  13.954  13.616  12.456
27668SOL    HW184901  14.047  13.620  12.477
27668SOL    HW284902  13.918  13.550  12.516
27669SOL     OW84903   2.051  14.519  13.526
27669SOL    HW184904   2.098  14.529  13.444
27669SOL    HW284905   1.958  14.523  13.502
27670SOL     OW84906   4.000   8.899   4.754
27670SOL    HW184907   4.092   8.876   4.743
27670SOL    HW284908   3.955   8.815   4.765
27671SOL     OW84909   3.091   7.552   8.711
27671SOL    HW184910   3.176   7.508   8.703
27671SOL    HW284911   3.113   7.643   8.730
27672SOL     OW84912   5.286   7.535  12.907
27672SOL    HW184913   5.333   7.612  12.878
27672SOL    HW284914   5.201   7.541  12.864
27673SOL     OW84915   2.388  12.180   4.501
27673SOL    HW184916   2.314  12.164   4.443
27673SOL    HW284917   2.458  12.125   4.465
27674SOL     OW84918   3.744   5.199   5.773
27674SOL    HW184919   3.704   5.283   5.752
27674SOL    HW284920   3.739   5.149   5.692
27675SOL     OW84921   4.484   5.253  10.282
27675SOL    HW184922   4.445   5.172  10.251
27675SOL    HW284923   4.513   5.233  10.371
27676SOL     OW84924   8.772   8.121   0.245
27676SOL    HW184925   8.737   8.141   0.159
27676SOL    HW284926   8.763   8.026   0.254
27677SOL     OW84927   6.685   9.584  12.169
27677SOL    HW184928   6.742   9.531  12.225
27677SOL    HW284929   6.596   9.558  12.193
27678SOL     OW84930   7.317   6.816  14.846
27678SOL    HW184931   7.300   6.865  14.766
27678SOL    HW284932   7.240   6.832   0.026
27679SOL     OW84933  14.288   6.556   7.569
27679SOL    HW184934  14.356   6.559   7.503
27679SOL    HW284935  14.293   6.468   7.605
27680SOL     OW84936   7.058  13.820   2.869
27680SOL    HW184937   7.079  13.904   2.827
27680SOL    HW284938   7.010  13.771   2.802
27681SOL     OW84939  10.274   2.256   8.620
27681SOL    HW184940  10.267   2.199   8.543
27681SOL    HW284941  10.343   2.318   8.598
27682SOL     OW84942  11.487   8.722   3.580
27682SOL    HW184943  11.575   8.693   3.557
27682SOL    HW284944  11.429   8.667   3.527
27683SOL     OW84945   1.928  10.782   3.029
27683SOL    HW184946   1.849  10.775   2.975
27683SOL    HW284947   1.994  10.733   2.980
27684SOL     OW84948   5.105  11.808  11.628
27684SOL    HW184949   5.119  11.870  11.699
27684SOL    HW284950   5.017  11.828  11.595
27685SOL     OW84951   9.928  13.355   2.670
27685SOL    HW184952   9.951  13.446   2.689
27685SOL    HW284953   9.867  13.330   2.739
27686SOL     OW84954   9.870  14.371  14.006
27686SOL    HW184955   9.956  14.360  14.047
27686SOL    HW284956   9.889  14.396  13.916
27687SOL     OW84957  12.737   6.152   2.036
27687SOL    HW184958  12.831   6.141   2.024
27687SOL    HW284959  12.703   6.063   2.040
27688SOL     OW84960  12.858  13.172   1.434
27688SOL    HW184961  12.846  13.252   1.485
27688SOL    HW284962  12.774  13.128   1.438
27689SOL     OW84963  13.288   9.907  11.601
27689SOL    HW184964  13.249   9.994  11.607
27689SOL    HW284965  13.296   9.890  11.508
27690SOL     OW84966  13.421  12.468  13.467
27690SOL    HW184967  13.373  12.539  13.510
27690SOL    HW284968  13.452  12.506  13.385
27691SOL     OW84969  10.317   0.116   8.201
27691SOL    HW184970  10.378   0.123   8.128
27691SOL    HW284971  10.257   0.190   8.190
27692SOL     OW84972  10.729   8.766   1.081
27692SOL    HW184973  10.786   8.705   1.128
27692SOL    HW284974  10.781   8.846   1.074
27693SOL     OW84975  13.811   7.987   1.481
27693SOL    HW184976  13.755   7.932   1.536
27693SOL    HW284977  13.830   7.933   1.404
27694SOL     OW84978   9.894   1.387   5.735
27694SOL    HW184979   9.870   1.412   5.645
27694SOL    HW284980   9.984   1.416   5.745
27695SOL     OW84981   2.048   4.783   4.797
27695SOL    HW184982   2.132   4.742   4.775
27695SOL    HW284983   1.984   4.737   4.742
27696SOL     OW84984   2.712   9.081   7.865
27696SOL    HW184985   2.675   9.020   7.801
27696SOL    HW284986   2.681   9.049   7.949
27697SOL     OW84987  12.647  11.122   4.466
27697SOL    HW184988  12.632  11.168   4.383
27697SOL    HW284989  12.731  11.077   4.454
27698SOL     OW84990  11.096   5.224  12.274
27698SOL    HW184991  11.187   5.236  12.248
27698SOL    HW284992  11.078   5.131  12.258
27699SOL     OW84993   9.731   0.081   7.952
27699SOL    HW184994   9.705   0.172   7.967
27699SOL    HW284995   9.651   0.037   7.923
27700SOL     OW84996   8.023   8.342   6.665
27700SOL    HW184997   8.017   8.253   6.701
27700SOL    HW284998   8.043   8.329   6.572
27701SOL     OW84999   7.132   8.364   1.034
27701SOL    HW185000   7.206   8.333   0.982
27701SOL    HW285001   7.071   8.401   0.970
27702SOL     OW85002   6.771   4.514  10.666
27702SOL    HW185003   6.710   4.452  10.707
27702SOL    HW285004   6.759   4.500  10.572
27703SOL     OW85005  14.674  13.224   6.571
27703SOL    HW185006  14.686  13.140   6.615
27703SOL    HW285007  14.583  13.249   6.588
27704SOL     OW85008   2.056   9.797  12.778
27704SOL    HW185009   2.077   9.816  12.869
27704SOL    HW285010   2.133   9.823  12.729
27705SOL     OW85011   6.832   9.318   2.816
27705SOL    HW185012   6.888   9.247   2.786
27705SOL    HW285013   6.820   9.373   2.739
27706SOL     OW85014   9.862   8.794   7.334
27706SOL    HW185015   9.858   8.803   7.239
27706SOL    HW285016   9.807   8.865   7.367
27707SOL     OW85017   7.795  13.665   0.016
27707SOL    HW185018   7.725  13.640  14.830
27707SOL    HW285019   7.793  13.760   0.019
27708SOL     OW85020   6.550  13.476   8.075
27708SOL    HW185021   6.478  13.495   8.135
27708SOL    HW285022   6.628  13.506   8.120
27709SOL     OW85023   3.936  12.780  10.841
27709SOL    HW185024   3.943  12.837  10.918
27709SOL    HW285025   4.002  12.814  10.780
27710SOL     OW85026  14.591   3.033   5.690
27710SOL    HW185027  14.515   2.983   5.661
27710SOL    HW285028  14.578   3.121   5.653
27711SOL     OW85029   0.174   7.024  10.846
27711SOL    HW185030   0.223   7.103  10.867
27711SOL    HW285031   0.175   7.020  10.751
27712SOL     OW85032   1.859   6.400   7.507
27712SOL    HW185033   1.906   6.325   7.470
27712SOL    HW285034   1.911   6.476   7.481
27713SOL     OW85035   2.961  12.048   2.834
27713SOL    HW185036   3.040  12.006   2.801
27713SOL    HW285037   2.988  12.136   2.858
27714SOL     OW85038  12.985  10.678   5.580
27714SOL    HW185039  12.935  10.609   5.624
27714SOL    HW285040  12.943  10.759   5.606
27715SOL     OW85041   1.163   1.717  12.688
27715SOL    HW185042   1.232   1.664  12.728
27715SOL    HW285043   1.082   1.680  12.722
27716SOL     OW85044   5.359   3.954  11.305
27716SOL    HW185045   5.445   3.930  11.270
27716SOL    HW285046   5.334   4.031  11.254
27717SOL     OW85047   9.819  11.229  14.577
27717SOL    HW185048   9.766  11.166  14.528
27717SOL    HW285049   9.766  11.308  14.578
27718SOL     OW85050   0.219   3.195   1.803
27718SOL    HW185051   0.247   3.262   1.740
27718SOL    HW285052   0.149   3.147   1.757
27719SOL     OW85053   9.521   6.804   6.374
27719SOL    HW185054   9.465   6.731   6.398
27719SOL    HW285055   9.460   6.875   6.354
27720SOL     OW85056  14.434   9.508  12.710
27720SOL    HW185057  14.385   9.426  12.710
27720SOL    HW285058  14.440   9.533  12.802
27721SOL     OW85059   7.914   0.320  13.772
27721SOL    HW185060   7.924   0.370  13.691
27721SOL    HW285061   7.877   0.382  13.835
27722SOL     OW85062   8.890   8.055  11.700
27722SOL    HW185063   8.859   8.123  11.640
27722SOL    HW285064   8.918   7.984  11.643
27723SOL     OW85065   6.591   6.406  14.639
27723SOL    HW185066   6.600   6.443  14.727
27723SOL    HW285067   6.508   6.441  14.607
27724SOL     OW85068   2.206  14.826   8.137
27724SOL    HW185069   2.257  14.874   8.072
27724SOL    HW285070   2.269  14.767   8.178
27725SOL     OW85071   1.219   9.954  14.213
27725SOL    HW185072   1.256   9.927  14.297
27725SOL    HW285073   1.127   9.971  14.233
27726SOL     OW85074   4.943  12.139  14.766
27726SOL    HW185075   5.037  12.124  14.777
27726SOL    HW285076   4.927  12.129  14.672
27727SOL     OW85077  13.679  12.924   3.357
27727SOL    HW185078  13.717  12.879   3.283
27727SOL    HW285079  13.694  13.017   3.340
27728SOL     OW85080   9.146   6.402  11.224
27728SOL    HW185081   9.146   6.307  11.233
27728SOL    HW285082   9.167   6.417  11.132
27729SOL     OW85083   1.892   5.725   9.749
27729SOL    HW185084   1.827   5.668   9.709
27729SOL    HW285085   1.843   5.804   9.774
27730SOL     OW85086   4.870   1.288   5.545
27730SOL    HW185087   4.886   1.201   5.582
27730SOL    HW285088   4.851   1.273   5.453
27731SOL     OW85089  13.111  14.514  11.690
27731SOL    HW185090  13.168  14.510  11.613
27731SOL    HW285091  13.027  14.482  11.659
27732SOL     OW85092   9.486   0.416  13.371
27732SOL    HW185093   9.473   0.321  13.364
27732SOL    HW285094   9.414   0.447  13.426
27733SOL     OW85095   5.569  14.226  14.454
27733SOL    HW185096   5.554  14.316  14.426
27733SOL    HW285097   5.615  14.233  14.537
27734SOL     OW85098   6.877   9.055   0.290
27734SOL    HW185099   6.922   9.097   0.217
27734SOL    HW285100   6.866   9.124   0.355
27735SOL     OW85101   1.289  13.814  14.488
27735SOL    HW185102   1.252  13.869  14.419
27735SOL    HW285103   1.372  13.782  14.451
27736SOL     OW85104   0.600   5.080   9.173
27736SOL    HW185105   0.681   5.034   9.194
27736SOL    HW285106   0.616   5.171   9.200
27737SOL     OW85107   6.224   5.118   3.654
27737SOL    HW185108   6.167   5.184   3.693
27737SOL    HW285109   6.304   5.165   3.632
27738SOL     OW85110   0.876   3.560   2.492
27738SOL    HW185111   0.789   3.590   2.465
27738SOL    HW285112   0.870   3.549   2.586
27739SOL     OW85113   2.672   3.752   9.508
27739SOL    HW185114   2.655   3.838   9.469
27739SOL    HW285115   2.695   3.697   9.433
27740SOL     OW85116   5.106   4.695   4.027
27740SOL    HW185117   5.138   4.755   3.959
27740SOL    HW285118   5.035   4.646   3.985
27741SOL     OW85119   9.304  11.641   7.229
27741SOL    HW185120   9.210  11.653   7.212
27741SOL    HW285121   9.347  11.667   7.148
27742SOL     OW85122  14.574  12.751   1.846
27742SOL    HW185123  14.574  12.817   1.916
27742SOL    HW285124  14.534  12.796   1.771
27743SOL     OW85125   9.051   1.738   7.821
27743SOL    HW185126   9.111   1.740   7.747
27743SOL    HW285127   9.061   1.823   7.863
27744SOL     OW85128   6.755   2.479  13.306
27744SOL    HW185129   6.662   2.476  13.282
27744SOL    HW285130   6.802   2.453  13.227
27745SOL     OW85131   3.933   8.840  13.802
27745SOL    HW185132   3.875   8.777  13.760
27745SOL    HW285133   3.909   8.837  13.895
27746SOL     OW85134   2.464  14.851  13.251
27746SOL    HW185135   2.513  14.845  13.333
27746SOL    HW285136   2.521  14.809  13.186
27747SOL     OW85137   7.425  11.734   3.811
27747SOL    HW185138   7.359  11.687   3.861
27747SOL    HW285139   7.376  11.777   3.741
27748SOL     OW85140  13.586  13.323   7.548
27748SOL    HW185141  13.564  13.329   7.455
27748SOL    HW285142  13.563  13.409   7.583
27749SOL     OW85143   9.903   4.304   8.610
27749SOL    HW185144   9.819   4.294   8.655
27749SOL    HW285145   9.879   4.323   8.519
27750SOL     OW85146   9.518   8.569   2.127
27750SOL    HW185147   9.561   8.496   2.171
27750SOL    HW285148   9.589   8.631   2.109
27751SOL     OW85149  11.455   0.139   2.939
27751SOL    HW185150  11.550   0.130   2.934
27751SOL    HW285151  11.431   0.094   3.020
27752SOL     OW85152   2.592   2.152   1.707
27752SOL    HW185153   2.518   2.093   1.697
27752SOL    HW285154   2.582   2.216   1.637
27753SOL     OW85155  11.975  13.113   4.278
27753SOL    HW185156  11.976  13.082   4.187
27753SOL    HW285157  12.063  13.093   4.311
27754SOL     OW85158   7.852   8.060  14.074
27754SOL    HW185159   7.809   7.984  14.113
27754SOL    HW285160   7.874   8.033  13.985
27755SOL     OW85161   8.052   9.901   5.848
27755SOL    HW185162   8.001   9.982   5.844
27755SOL    HW285163   8.117   9.912   5.778
27756SOL     OW85164   5.313   2.027   6.655
27756SOL    HW185165   5.224   2.026   6.690
27756SOL    HW285166   5.369   2.031   6.733
27757SOL     OW85167   6.378  11.522  14.483
27757SOL    HW185168   6.407  11.435  14.509
27757SOL    HW285169   6.435  11.546  14.410
27758SOL     OW85170  12.079  10.731   6.642
27758SOL    HW185171  12.135  10.660   6.672
27758SOL    HW285172  12.032  10.759   6.721
27759SOL     OW85173  11.711  11.955   0.083
27759SOL    HW185174  11.803  11.960   0.110
27759SOL    HW285175  11.662  11.988   0.158
27760SOL     OW85176   2.218   3.234   5.036
27760SOL    HW185177   2.185   3.258   4.949
27760SOL    HW285178   2.151   3.176   5.071
27761SOL     OW85179  12.236   8.149   1.173
27761SOL    HW185180  12.187   8.079   1.216
27761SOL    HW285181  12.243   8.217   1.239
27762SOL     OW85182   7.071  13.125  14.633
27762SOL    HW185183   7.043  13.209  14.599
27762SOL    HW285184   7.036  13.122  14.722
27763SOL     OW85185  14.400   1.569   1.879
27763SOL    HW185186  14.360   1.653   1.901
27763SOL    HW285187  14.328   1.506   1.884
27764SOL     OW85188   3.120   3.089   6.660
27764SOL    HW185189   3.195   3.117   6.712
27764SOL    HW285190   3.157   3.061   6.576
27765SOL     OW85191  14.221   6.873  14.179
27765SOL    HW185192  14.280   6.894  14.107
27765SOL    HW285193  14.133   6.881  14.141
27766SOL     OW85194   6.133   3.702  14.757
27766SOL    HW185195   6.096   3.777  14.805
27766SOL    HW285196   6.194   3.742  14.694
27767SOL     OW85197  14.708   5.481   4.386
27767SOL    HW185198  14.634   5.462   4.328
27767SOL    HW285199  14.784   5.487   4.328
27768SOL     OW85200   7.756  11.815   6.462
27768SOL    HW185201   7.760  11.910   6.453
27768SOL    HW285202   7.843  11.785   6.435
27769SOL     OW85203   6.934  11.671   6.290
27769SOL    HW185204   6.892  11.585   6.286
27769SOL    HW285205   6.868  11.732   6.257
27770SOL     OW85206   4.353   3.289   1.492
27770SOL    HW185207   4.321   3.199   1.506
27770SOL    HW285208   4.445   3.285   1.515
27771SOL     OW85209   8.728   3.025   2.493
27771SOL    HW185210   8.682   3.063   2.568
27771SOL    HW285211   8.816   3.063   2.497
27772SOL     OW85212  12.726   1.501  14.617
27772SOL    HW185213  12.812   1.493  14.659
27772SOL    HW285214  12.698   1.591  14.634
27773SOL     OW85215   0.213   0.640   0.975
27773SOL    HW185216   0.261   0.626   1.056
27773SOL    HW285217   0.150   0.709   0.995
27774SOL     OW85218   2.902   6.587  10.454
27774SOL    HW185219   2.943   6.634  10.381
27774SOL    HW285220   2.965   6.595  10.525
27775SOL     OW85221  13.186  12.914   2.278
27775SOL    HW185222  13.184  12.852   2.206
27775SOL    HW285223  13.240  12.872   2.345
27776SOL     OW85224   0.955   6.392  12.924
27776SOL    HW185225   1.029   6.436  12.964
27776SOL    HW285226   0.991   6.354  12.844
27777SOL     OW85227  12.599   3.598  10.112
27777SOL    HW185228  12.508   3.568  10.116
27777SOL    HW285229  12.593   3.693  10.123
27778SOL     OW85230  12.838   0.786   5.589
27778SOL    HW185231  12.911   0.821   5.537
27778SOL    HW285232  12.782   0.862   5.606
27779SOL     OW85233  10.634  13.070   5.986
27779SOL    HW185234  10.570  13.022   5.934
27779SOL    HW285235  10.719  13.043   5.951
27780SOL     OW85236   1.300  13.074   9.833
27780SOL    HW185237   1.216  13.036   9.806
27780SOL    HW285238   1.290  13.168   9.818
27781SOL     OW85239   1.568  14.367   7.005
27781SOL    HW185240   1.634  14.303   6.980
27781SOL    HW285241   1.489  14.315   7.021
27782SOL     OW85242   0.003  13.143   3.124
27782SOL    HW185243   0.053  13.103   3.195
27782SOL    HW285244  14.810  13.079   3.103
27783SOL     OW85245   3.150  10.241   3.255
27783SOL    HW185246   3.182  10.252   3.345
27783SOL    HW285247   3.057  10.221   3.264
27784SOL     OW85248  11.836   3.901   9.514
27784SOL    HW185249  11.813   3.990   9.543
27784SOL    HW285250  11.931   3.905   9.499
27785SOL     OW85251   3.616  12.392   2.273
27785SOL    HW185252   3.699  12.437   2.292
27785SOL    HW285253   3.556  12.422   2.340
27786SOL     OW85254   3.206   8.764   6.607
27786SOL    HW185255   3.155   8.688   6.636
27786SOL    HW285256   3.142   8.819   6.561
27787SOL     OW85257   2.828   4.441   2.982
27787SOL    HW185258   2.842   4.463   3.074
27787SOL    HW285259   2.915   4.446   2.942
27788SOL     OW85260   8.139   6.146  13.322
27788SOL    HW185261   8.115   6.100  13.403
27788SOL    HW285262   8.219   6.194  13.345
27789SOL     OW85263  10.942   4.780   8.719
27789SOL    HW185264  10.925   4.813   8.807
27789SOL    HW285265  11.004   4.709   8.732
27790SOL     OW85266   3.008   5.103   9.586
27790SOL    HW185267   2.976   5.125   9.498
27790SOL    HW285268   3.103   5.097   9.576
27791SOL     OW85269   6.151   1.515  14.827
27791SOL    HW185270   6.159   1.517  14.731
27791SOL    HW285271   6.216   1.578  14.858
27792SOL     OW85272  13.858   2.484   5.291
27792SOL    HW185273  13.769   2.514   5.278
27792SOL    HW285274  13.871   2.418   5.223
27793SOL     OW85275   2.564  13.760   1.804
27793SOL    HW185276   2.558  13.742   1.710
27793SOL    HW285277   2.656  13.744   1.825
27794SOL     OW85278   0.359   4.694   8.235
27794SOL    HW185279   0.267   4.687   8.261
27794SOL    HW285280   0.402   4.621   8.280
27795SOL     OW85281   8.690   3.507   1.797
27795SOL    HW185282   8.745   3.581   1.822
27795SOL    HW285283   8.640   3.487   1.876
27796SOL     OW85284   4.352   8.556  12.039
27796SOL    HW185285   4.447   8.558  12.032
27796SOL    HW285286   4.322   8.633  11.989
27797SOL     OW85287  13.422  11.733   7.461
27797SOL    HW185288  13.406  11.642   7.485
27797SOL    HW285289  13.343  11.760   7.414
27798SOL     OW85290   4.678  11.559   3.696
27798SOL    HW185291   4.761  11.606   3.685
27798SOL    HW285292   4.689  11.510   3.777
27799SOL     OW85293   7.070   6.576   9.214
27799SOL    HW185294   7.066   6.597   9.308
27799SOL    HW285295   7.157   6.603   9.187
27800SOL     OW85296   7.994   5.672   3.405
27800SOL    HW185297   8.007   5.579   3.385
27800SOL    HW285298   7.900   5.680   3.422
27801SOL     OW85299   0.326   9.725  14.085
27801SOL    HW185300   0.280   9.644  14.106
27801SOL    HW285301   0.315   9.779  14.163
27802SOL     OW85302   6.373   1.662   5.980
27802SOL    HW185303   6.356   1.618   6.063
27802SOL    HW285304   6.376   1.591   5.916
27803SOL     OW85305  11.131  12.604   6.139
27803SOL    HW185306  11.046  12.564   6.123
27803SOL    HW285307  11.130  12.627   6.232
27804SOL     OW85308   0.715   4.774   8.293
27804SOL    HW185309   0.653   4.782   8.220
27804SOL    HW285310   0.724   4.863   8.326
27805SOL     OW85311   9.749  10.260  13.243
27805SOL    HW185312   9.815  10.193  13.260
27805SOL    HW285313   9.800  10.338  13.218
27806SOL     OW85314   3.949  14.640   6.983
27806SOL    HW185315   3.962  14.668   6.892
27806SOL    HW285316   3.877  14.694   7.015
27807SOL     OW85317   4.085   5.427   3.861
27807SOL    HW185318   4.034   5.372   3.921
27807SOL    HW285319   4.148   5.367   3.821
27808SOL     OW85320   8.369   7.688   7.955
27808SOL    HW185321   8.317   7.665   8.033
27808SOL    HW285322   8.310   7.742   7.903
27809SOL     OW85323   5.399   0.935   9.361
27809SOL    HW185324   5.443   0.976   9.436
27809SOL    HW285325   5.376   0.848   9.392
27810SOL     OW85326  10.105  11.751   2.423
27810SOL    HW185327  10.057  11.746   2.340
27810SOL    HW285328  10.048  11.800   2.481
27811SOL     OW85329   4.416   9.637   8.913
27811SOL    HW185330   4.481   9.590   8.965
27811SOL    HW285331   4.385   9.707   8.971
27812SOL     OW85332  13.128   8.228   3.589
27812SOL    HW185333  13.035   8.233   3.566
27812SOL    HW285334  13.130   8.217   3.684
27813SOL     OW85335  11.175  10.105  14.065
27813SOL    HW185336  11.132  10.184  14.032
27813SOL    HW285337  11.157  10.107  14.160
27814SOL     OW85338  11.588  12.948   0.247
27814SOL    HW185339  11.550  12.894   0.178
27814SOL    HW285340  11.651  13.004   0.201
27815SOL     OW85341  14.425  14.418   6.035
27815SOL    HW185342  14.450  14.347   6.094
27815SOL    HW285343  14.330  14.426   6.045
27816SOL     OW85344   3.099   0.382  13.367
27816SOL    HW185345   3.086   0.340  13.281
27816SOL    HW285346   3.015   0.371  13.412
27817SOL     OW85347  13.232  10.182  12.472
27817SOL    HW185348  13.248  10.138  12.555
27817SOL    HW285349  13.168  10.250  12.493
27818SOL     OW85350   5.222   2.002  14.589
27818SOL    HW185351   5.298   2.060  14.591
27818SOL    HW285352   5.161   2.040  14.653
27819SOL     OW85353   9.165  10.809  11.627
27819SOL    HW185354   9.230  10.817  11.697
27819SOL    HW285355   9.200  10.860  11.555
27820SOL     OW85356  14.854   8.221  10.658
27820SOL    HW185357  14.829   8.255  10.572
27820SOL    HW285358  14.829   8.291  10.719
27821SOL     OW85359  11.325   0.111   0.196
27821SOL    HW185360  11.361   0.133   0.110
27821SOL    HW285361  11.241   0.069   0.177
27822SOL     OW85362  10.428   3.573   0.631
27822SOL    HW185363  10.423   3.662   0.595
27822SOL    HW285364  10.512   3.539   0.600
27823SOL     OW85365   3.034   9.696  11.578
27823SOL    HW185366   3.031   9.704  11.674
27823SOL    HW285367   3.113   9.744  11.552
27824SOL     OW85368   5.072   8.210  10.293
27824SOL    HW185369   5.073   8.137  10.356
27824SOL    HW285370   5.152   8.198  10.242
27825SOL     OW85371   2.309   3.228  11.529
27825SOL    HW185372   2.382   3.171  11.507
27825SOL    HW285373   2.315   3.300  11.465
27826SOL     OW85374   2.660  12.899   7.463
27826SOL    HW185375   2.633  12.844   7.390
27826SOL    HW285376   2.643  12.989   7.434
27827SOL     OW85377  10.975   5.326  10.065
27827SOL    HW185378  10.922   5.368  10.132
27827SOL    HW285379  10.938   5.356   9.982
27828SOL     OW85380  12.640  14.691  13.380
27828SOL    HW185381  12.659  14.749  13.453
27828SOL    HW285382  12.712  14.627  13.381
27829SOL     OW85383  14.067   6.446  11.972
27829SOL    HW185384  14.033   6.448  12.061
27829SOL    HW285385  14.157   6.416  11.981
27830SOL     OW85386   4.851  10.466   4.713
27830SOL    HW185387   4.934  10.507   4.736
27830SOL    HW285388   4.836  10.400   4.781
27831SOL     OW85389   6.922   8.219  12.144
27831SOL    HW185390   6.933   8.139  12.094
27831SOL    HW285391   6.933   8.289  12.079
27832SOL     OW85392  13.949  11.892   1.195
27832SOL    HW185393  13.904  11.976   1.188
27832SOL    HW285394  14.037  11.909   1.162
27833SOL     OW85395   2.606  13.068   8.556
27833SOL    HW185396   2.693  13.037   8.532
27833SOL    HW285397   2.553  12.988   8.562
27834SOL     OW85398   1.162   0.361   1.783
27834SOL    HW185399   1.131   0.312   1.859
27834SOL    HW285400   1.132   0.311   1.707
27835SOL     OW85401   9.657   7.838   0.909
27835SOL    HW185402   9.697   7.785   0.978
27835SOL    HW285403   9.567   7.853   0.939
27836SOL     OW85404   9.085   4.844   9.296
27836SOL    HW185405   9.007   4.863   9.348
27836SOL    HW285406   9.051   4.813   9.212
27837SOL     OW85407   3.585   6.647  14.779
27837SOL    HW185408   3.535   6.616  14.854
27837SOL    HW285409   3.536   6.617  14.703
27838SOL     OW85410   4.126  14.096   1.631
27838SOL    HW185411   4.090  14.177   1.668
27838SOL    HW285412   4.058  14.030   1.648
27839SOL     OW85413   0.878   4.433   0.518
27839SOL    HW185414   0.940   4.411   0.587
27839SOL    HW285415   0.920   4.504   0.470
27840SOL     OW85416  13.377  12.632  14.252
27840SOL    HW185417  13.455  12.596  14.210
27840SOL    HW285418  13.364  12.717  14.210
27841SOL     OW85419   5.823   5.615   7.768
27841SOL    HW185420   5.757   5.598   7.835
27841SOL    HW285421   5.886   5.544   7.779
27842SOL     OW85422  13.700   0.329   2.576
27842SOL    HW185423  13.656   0.245   2.583
27842SOL    HW285424  13.667   0.379   2.651
27843SOL     OW85425  14.432   1.974   7.458
27843SOL    HW185426  14.412   1.900   7.401
27843SOL    HW285427  14.425   1.938   7.547
27844SOL     OW85428  14.325   5.205   9.801
27844SOL    HW185429  14.243   5.179   9.843
27844SOL    HW285430  14.337   5.141   9.731
27845SOL     OW85431   4.830   5.030   4.958
27845SOL    HW185432   4.824   4.950   5.009
27845SOL    HW285433   4.924   5.047   4.950
27846SOL     OW85434   1.477  13.642  13.349
27846SOL    HW185435   1.413  13.644  13.277
27846SOL    HW285436   1.432  13.684  13.422
27847SOL     OW85437  10.656  11.875   5.235
27847SOL    HW185438  10.704  11.958   5.232
27847SOL    HW285439  10.564  11.900   5.242
27848SOL     OW85440   0.680   4.435   2.626
27848SOL    HW185441   0.699   4.436   2.719
27848SOL    HW285442   0.737   4.367   2.590
27849SOL     OW85443   9.562  13.971   4.647
27849SOL    HW185444   9.600  13.944   4.731
27849SOL    HW285445   9.470  13.990   4.667
27850SOL     OW85446   3.489   4.099   2.779
27850SOL    HW185447   3.459   4.012   2.754
27850SOL    HW285448   3.420   4.131   2.838
27851SOL     OW85449   6.466   3.184  11.079
27851SOL    HW185450   6.501   3.180  11.168
27851SOL    HW285451   6.455   3.277  11.062
27852SOL     OW85452   0.282   4.643  13.015
27852SOL    HW185453   0.223   4.716  12.997
27852SOL    HW285454   0.273   4.586  12.938
27853SOL     OW85455   9.988   6.566  12.561
27853SOL    HW185456  10.016   6.528  12.478
27853SOL    HW285457   9.898   6.596  12.546
27854SOL     OW85458  10.358   1.493  12.216
27854SOL    HW185459  10.343   1.416  12.271
27854SOL    HW285460  10.310   1.475  12.136
27855SOL     OW85461  12.074   4.721   3.579
27855SOL    HW185462  12.035   4.795   3.625
27855SOL    HW285463  12.088   4.655   3.647
27856SOL     OW85464  12.661   5.712  14.819
27856SOL    HW185465  12.629   5.659   0.017
27856SOL    HW285466  12.581   5.744  14.776
27857SOL     OW85467  12.065  12.759   7.160
27857SOL    HW185468  12.027  12.711   7.086
27857SOL    HW285469  12.000  12.752   7.230
27858SOL     OW85470  14.715   8.264  13.690
27858SOL    HW185471  14.784   8.311  13.644
27858SOL    HW285472  14.694   8.319  13.765
27859SOL     OW85473   7.075   2.260   2.457
27859SOL    HW185474   7.012   2.259   2.529
27859SOL    HW285475   7.043   2.328   2.398
27860SOL     OW85476   9.628   1.243   3.803
27860SOL    HW185477   9.585   1.235   3.718
27860SOL    HW285478   9.558   1.265   3.864
27861SOL     OW85479   6.996  12.682  13.494
27861SOL    HW185480   7.050  12.754  13.527
27861SOL    HW285481   6.909  12.720  13.486
27862SOL     OW85482   0.171  12.819   1.407
27862SOL    HW185483   0.219  12.886   1.457
27862SOL    HW285484   0.096  12.865   1.372
27863SOL     OW85485  14.332   1.971  10.570
27863SOL    HW185486  14.403   1.945  10.511
27863SOL    HW285487  14.265   1.904  10.558
27864SOL     OW85488  14.468   9.093  12.592
27864SOL    HW185489  14.437   9.120  12.679
27864SOL    HW285490  14.448   8.999  12.588
27865SOL     OW85491  12.708   0.084   3.747
27865SOL    HW185492  12.643   0.051   3.809
27865SOL    HW285493  12.789   0.040   3.771
27866SOL     OW85494   4.062   1.110  10.055
27866SOL    HW185495   4.157   1.115  10.041
27866SOL    HW285496   4.053   1.105  10.150
27867SOL     OW85497   9.969   5.067   8.401
27867SOL    HW185498  10.011   5.051   8.486
27867SOL    HW285499  10.023   5.136   8.361
27868SOL     OW85500   5.222   4.652   0.646
27868SOL    HW185501   5.292   4.716   0.654
27868SOL    HW285502   5.189   4.641   0.735
27869SOL     OW85503   8.819   6.185   3.224
27869SOL    HW185504   8.813   6.173   3.319
27869SOL    HW285505   8.797   6.099   3.188
27870SOL     OW85506   2.983   0.560   5.368
27870SOL    HW185507   3.051   0.624   5.389
27870SOL    HW285508   2.977   0.564   5.272
27871SOL     OW85509   0.612   5.236   4.087
27871SOL    HW185510   0.651   5.189   4.013
27871SOL    HW285511   0.648   5.324   4.081
27872SOL     OW85512   3.821   4.423   0.441
27872SOL    HW185513   3.729   4.402   0.456
27872SOL    HW285514   3.848   4.363   0.372
27873SOL     OW85515   4.867  12.923   2.234
27873SOL    HW185516   4.804  12.995   2.236
27873SOL    HW285517   4.817  12.847   2.263
27874SOL     OW85518   7.502   5.731   7.513
27874SOL    HW185519   7.573   5.734   7.576
27874SOL    HW285520   7.514   5.648   7.466
27875SOL     OW85521   0.251   5.067   9.434
27875SOL    HW185522   0.313   5.127   9.476
27875SOL    HW285523   0.285   4.980   9.454
27876SOL     OW85524   1.924  11.357   4.787
27876SOL    HW185525   1.999  11.302   4.764
27876SOL    HW285526   1.934  11.435   4.731
27877SOL     OW85527   3.207   4.755  11.058
27877SOL    HW185528   3.145   4.772  10.988
27877SOL    HW285529   3.180   4.670  11.094
27878SOL     OW85530   6.833   6.929   5.043
27878SOL    HW185531   6.846   7.022   5.031
27878SOL    HW285532   6.920   6.894   5.065
27879SOL     OW85533   7.454   8.700  13.366
27879SOL    HW185534   7.417   8.744  13.289
27879SOL    HW285535   7.412   8.614  13.367
27880SOL     OW85536  11.863  11.365   4.325
27880SOL    HW185537  11.958  11.355   4.334
27880SOL    HW285538  11.852  11.443   4.270
27881SOL     OW85539   1.816   1.279  11.891
27881SOL    HW185540   1.771   1.211  11.942
27881SOL    HW285541   1.888   1.307  11.948
27882SOL     OW85542   9.264   6.582   9.854
27882SOL    HW185543   9.256   6.590   9.949
27882SOL    HW285544   9.209   6.506   9.831
27883SOL     OW85545   6.099  14.399   8.626
27883SOL    HW185546   6.171  14.418   8.686
27883SOL    HW285547   6.098  14.304   8.618
27884SOL     OW85548   9.495  14.079   3.548
27884SOL    HW185549   9.462  14.081   3.458
27884SOL    HW285550   9.451  14.152   3.591
27885SOL     OW85551   4.272   2.675   8.935
27885SOL    HW185552   4.300   2.751   8.884
27885SOL    HW285553   4.354   2.634   8.963
27886SOL     OW85554  12.493   6.269  11.415
27886SOL    HW185555  12.580   6.307  11.423
27886SOL    HW285556  12.449   6.291  11.498
27887SOL     OW85557   6.437   7.388   6.077
27887SOL    HW185558   6.374   7.346   6.018
27887SOL    HW285559   6.474   7.459   6.025
27888SOL     OW85560   4.380   9.169   5.226
27888SOL    HW185561   4.355   9.096   5.282
27888SOL    HW285562   4.450   9.135   5.170
27889SOL     OW85563  13.464   7.483   1.597
27889SOL    HW185564  13.463   7.465   1.503
27889SOL    HW285565  13.433   7.573   1.604
27890SOL     OW85566   2.257   9.481   0.081
27890SOL    HW185567   2.222   9.556   0.033
27890SOL    HW285568   2.185   9.417   0.081
27891SOL     OW85569  11.456  14.462  10.468
27891SOL    HW185570  11.540  14.419  10.452
27891SOL    HW285571  11.398  14.391  10.497
27892SOL     OW85572   4.217   9.498  12.897
27892SOL    HW185573   4.131   9.471  12.865
27892SOL    HW285574   4.217   9.593  12.888
27893SOL     OW85575   3.944  12.160   5.746
27893SOL    HW185576   3.995  12.209   5.811
27893SOL    HW285577   3.949  12.214   5.667
27894SOL     OW85578   7.784   0.859   9.070
27894SOL    HW185579   7.873   0.886   9.046
27894SOL    HW285580   7.732   0.939   9.062
27895SOL     OW85581   6.577   1.632   5.342
27895SOL    HW185582   6.638   1.563   5.317
27895SOL    HW285583   6.550   1.608   5.430
27896SOL     OW85584   9.036   3.583  10.339
27896SOL    HW185585   8.948   3.614  10.321
27896SOL    HW285586   9.025   3.491  10.364
27897SOL     OW85587   0.937   4.984  14.316
27897SOL    HW185588   0.914   5.030  14.235
27897SOL    HW285589   0.992   5.045  14.364
27898SOL     OW85590   4.249  13.031  13.616
27898SOL    HW185591   4.303  13.023  13.537
27898SOL    HW285592   4.311  13.017  13.688
27899SOL     OW85593   5.529   6.961  11.125
27899SOL    HW185594   5.543   7.055  11.121
27899SOL    HW285595   5.552   6.937  11.215
27900SOL     OW85596  13.877   9.552   1.622
27900SOL    HW185597  13.929   9.483   1.579
27900SOL    HW285598  13.845   9.606   1.550
27901SOL     OW85599   6.241  12.252   4.844
27901SOL    HW185600   6.292  12.172   4.835
27901SOL    HW285601   6.292  12.306   4.905
27902SOL     OW85602   5.550  14.792   2.204
27902SOL    HW185603   5.476  14.849   2.180
27902SOL    HW285604   5.517  14.703   2.191
27903SOL     OW85605   8.686   2.469   8.840
27903SOL    HW185606   8.635   2.390   8.820
27903SOL    HW285607   8.720   2.455   8.928
27904SOL     OW85608   1.105   4.007   1.577
27904SOL    HW185609   1.156   3.933   1.544
27904SOL    HW285610   1.089   4.061   1.500
27905SOL     OW85611   4.838   3.785  12.570
27905SOL    HW185612   4.875   3.840  12.639
27905SOL    HW285613   4.914   3.749  12.525
27906SOL     OW85614   3.328  11.271   4.561
27906SOL    HW185615   3.412  11.227   4.572
27906SOL    HW285616   3.334  11.348   4.618
27907SOL     OW85617  11.530   4.589   5.449
27907SOL    HW185618  11.480   4.623   5.523
27907SOL    HW285619  11.465   4.580   5.379
27908SOL     OW85620   3.107   9.141   0.566
27908SOL    HW185621   3.077   9.055   0.598
27908SOL    HW285622   3.051   9.158   0.490
27909SOL     OW85623   6.964  12.811  14.743
27909SOL    HW185624   6.880  12.822  14.700
27909SOL    HW285625   6.944  12.813  14.837
27910SOL     OW85626  11.526   1.298   0.462
27910SOL    HW185627  11.596   1.361   0.477
27910SOL    HW285628  11.480   1.331   0.384
27911SOL     OW85629   4.665   7.268   8.823
27911SOL    HW185630   4.644   7.277   8.916
27911SOL    HW285631   4.594   7.215   8.787
27912SOL     OW85632  11.462   9.807   3.896
27912SOL    HW185633  11.426   9.723   3.866
27912SOL    HW285634  11.389   9.868   3.888
27913SOL     OW85635   9.066   0.041   3.839
27913SOL    HW185636   9.101   0.126   3.815
27913SOL    HW285637   9.142  14.861   3.854
27914SOL     OW85638   3.039  12.647   4.636
27914SOL    HW185639   2.965  12.699   4.604
27914SOL    HW285640   3.107  12.658   4.569
27915SOL     OW85641   7.773  13.559   7.500
27915SOL    HW185642   7.844  13.529   7.443
27915SOL    HW285643   7.712  13.485   7.504
27916SOL     OW85644  12.599   7.571   1.560
27916SOL    HW185645  12.692   7.570   1.580
27916SOL    HW285646  12.559   7.619   1.632
27917SOL     OW85647  13.016   2.340   4.945
27917SOL    HW185648  13.094   2.389   4.921
27917SOL    HW285649  13.040   2.248   4.931
27918SOL     OW85650  11.282   5.497  12.638
27918SOL    HW185651  11.348   5.505  12.569
27918SOL    HW285652  11.224   5.572  12.625
27919SOL     OW85653  12.595   3.692   0.379
27919SOL    HW185654  12.656   3.651   0.440
27919SOL    HW285655  12.645   3.701   0.298
27920SOL     OW85656  13.370   7.718   3.520
27920SOL    HW185657  13.419   7.780   3.573
27920SOL    HW285658  13.424   7.704   3.442
27921SOL     OW85659   6.637   7.100   8.156
27921SOL    HW185660   6.720   7.067   8.188
27921SOL    HW285661   6.649   7.107   8.061
27922SOL     OW85662  13.607  14.170   5.174
27922SOL    HW185663  13.702  14.184   5.163
27922SOL    HW285664  13.587  14.212   5.258
27923SOL     OW85665   1.043   4.993  13.651
27923SOL    HW185666   1.014   5.050  13.580
27923SOL    HW285667   1.032   4.904  13.616
27924SOL     OW85668   9.323  11.540  12.888
27924SOL    HW185669   9.344  11.575  12.975
27924SOL    HW285670   9.366  11.454  12.886
27925SOL     OW85671   0.094  12.410  11.621
27925SOL    HW185672   0.086  12.414  11.716
27925SOL    HW285673   0.128  12.322  11.604
27926SOL     OW85674  11.209   5.622   7.479
27926SOL    HW185675  11.268   5.620   7.403
27926SOL    HW285676  11.125   5.592   7.445
27927SOL     OW85677   3.687  14.680   3.179
27927SOL    HW185678   3.753  14.715   3.238
27927SOL    HW285679   3.736  14.622   3.120
27928SOL     OW85680   1.450   8.986   3.379
27928SOL    HW185681   1.523   8.927   3.398
27928SOL    HW285682   1.492   9.069   3.356
27929SOL     OW85683   9.141  13.699  12.873
27929SOL    HW185684   9.200  13.624  12.880
27929SOL    HW285685   9.071  13.669  12.815
27930SOL     OW85686   3.014   1.488   7.088
27930SOL    HW185687   2.929   1.531   7.077
27930SOL    HW285688   3.048   1.522   7.170
27931SOL     OW85689   2.951   0.269  13.825
27931SOL    HW185690   2.936   0.348  13.877
27931SOL    HW285691   3.042   0.277  13.796
27932SOL     OW85692   4.601  14.396  10.271
27932SOL    HW185693   4.599  14.399  10.367
27932SOL    HW285694   4.593  14.487  10.244
27933SOL     OW85695  14.520   5.229   3.121
27933SOL    HW185696  14.603   5.183   3.108
27933SOL    HW285697  14.515   5.243   3.215
27934SOL     OW85698  11.810  14.453  14.457
27934SOL    HW185699  11.780  14.412  14.539
27934SOL    HW285700  11.778  14.543  14.463
27935SOL     OW85701   4.993   6.459   1.175
27935SOL    HW185702   4.915   6.447   1.120
27935SOL    HW285703   4.975   6.408   1.254
27936SOL     OW85704  13.572   2.339   3.054
27936SOL    HW185705  13.543   2.287   3.129
27936SOL    HW285706  13.497   2.395   3.034
27937SOL     OW85707  11.188   0.957   6.532
27937SOL    HW185708  11.100   0.983   6.504
27937SOL    HW285709  11.198   0.867   6.501
27938SOL     OW85710   2.736   8.726   8.712
27938SOL    HW185711   2.672   8.659   8.685
27938SOL    HW285712   2.739   8.718   8.808
27939SOL     OW85713   7.520  11.572   7.534
27939SOL    HW185714   7.609  11.538   7.530
27939SOL    HW285715   7.466  11.495   7.551
27940SOL     OW85716   3.245  13.377   6.509
27940SOL    HW185717   3.207  13.350   6.425
27940SOL    HW285718   3.306  13.307   6.532
27941SOL     OW85719   9.867   5.840   3.996
27941SOL    HW185720   9.855   5.755   4.039
27941SOL    HW285721   9.909   5.819   3.913
27942SOL     OW85722  10.833   7.479   8.145
27942SOL    HW185723  10.791   7.541   8.205
27942SOL    HW285724  10.791   7.395   8.164
27943SOL     OW85725   5.984   5.481   5.399
27943SOL    HW185726   6.004   5.392   5.427
27943SOL    HW285727   6.002   5.481   5.305
27944SOL     OW85728   6.641  11.723   9.882
27944SOL    HW185729   6.661  11.629   9.885
27944SOL    HW285730   6.681  11.759   9.961
27945SOL     OW85731   8.581  14.032   2.036
27945SOL    HW185732   8.519  14.067   1.971
27945SOL    HW285733   8.667  14.044   1.995
27946SOL     OW85734   4.939  10.577   9.114
27946SOL    HW185735   4.933  10.488   9.149
27946SOL    HW285736   4.855  10.618   9.137
27947SOL     OW85737   8.420  12.348  12.322
27947SOL    HW185738   8.409  12.434  12.282
27947SOL    HW285739   8.456  12.293  12.252
27948SOL     OW85740   6.591   5.551   3.482
27948SOL    HW185741   6.631   5.600   3.411
27948SOL    HW285742   6.506   5.524   3.447
27949SOL     OW85743   0.258  13.675   8.367
27949SOL    HW185744   0.262  13.757   8.415
27949SOL    HW285745   0.208  13.616   8.423
27950SOL     OW85746  10.913  10.969   0.000
27950SOL    HW185747  10.997  10.996  14.838
27950SOL    HW285748  10.856  11.045  14.863
27951SOL     OW85749  12.515   4.268  11.973
27951SOL    HW185750  12.441   4.292  12.029
27951SOL    HW285751  12.585   4.246  12.035
27952SOL     OW85752  10.619  13.976   6.008
27952SOL    HW185753  10.534  13.997   6.048
27952SOL    HW285754  10.628  14.039   5.937
27953SOL     OW85755  11.574   9.073   4.795
27953SOL    HW185756  11.621   9.155   4.778
27953SOL    HW285757  11.537   9.084   4.883
27954SOL     OW85758  14.519  12.062  10.631
27954SOL    HW185759  14.482  12.134  10.682
27954SOL    HW285760  14.478  11.984  10.668
27955SOL     OW85761  10.471   8.999  12.967
27955SOL    HW185762  10.432   9.011  13.053
27955SOL    HW285763  10.486   9.087  12.934
27956SOL     OW85764  10.989  10.130   0.518
27956SOL    HW185765  11.018  10.040   0.504
27956SOL    HW285766  10.986  10.139   0.613
27957SOL     OW85767   3.641  13.948  13.573
27957SOL    HW185768   3.599  14.005  13.636
27957SOL    HW285769   3.735  13.965  13.584
27958SOL     OW85770  10.040   2.323   1.611
27958SOL    HW185771  10.122   2.372   1.599
27958SOL    HW285772  10.068   2.241   1.651
27959SOL     OW85773   4.295  13.649   8.754
27959SOL    HW185774   4.259  13.637   8.666
27959SOL    HW285775   4.222  13.685   8.805
27960SOL     OW85776   8.927   8.450  12.670
27960SOL    HW185777   8.986   8.520  12.696
27960SOL    HW285778   8.873   8.434  12.747
27961SOL     OW85779   4.898   6.909   9.724
27961SOL    HW185780   4.807   6.934   9.739
27961SOL    HW285781   4.892   6.840   9.657
27962SOL     OW85782  12.409   8.164   9.821
27962SOL    HW185783  12.334   8.126   9.866
27962SOL    HW285784  12.386   8.161   9.728
27963SOL     OW85785   7.414   0.429   0.419
27963SOL    HW185786   7.359   0.507   0.420
27963SOL    HW285787   7.425   0.409   0.326
27964SOL     OW85788   3.949  13.645   3.036
27964SOL    HW185789   3.902  13.636   3.119
27964SOL    HW285790   3.888  13.693   2.980
27965SOL     OW85791   3.091  10.935   2.738
27965SOL    HW185792   3.083  11.001   2.670
27965SOL    HW285793   3.028  10.961   2.805
27966SOL     OW85794  10.055  10.629   5.093
27966SOL    HW185795  10.106  10.625   5.012
27966SOL    HW285796   9.964  10.619   5.066
27967SOL     OW85797  11.158  11.787   4.940
27967SOL    HW185798  11.062  11.784   4.944
27967SOL    HW285799  11.184  11.821   5.026
27968SOL     OW85800   9.103   0.041  12.879
27968SOL    HW185801   9.032   0.036  12.814
27968SOL    HW285802   9.059   0.064  12.960
27969SOL     OW85803   8.717   6.005   3.937
27969SOL    HW185804   8.746   5.958   4.015
27969SOL    HW285805   8.730   6.097   3.959
27970SOL     OW85806  11.809  12.637  13.431
27970SOL    HW185807  11.881  12.690  13.464
27970SOL    HW285808  11.746  12.700  13.395
27971SOL     OW85809   9.849   6.028  10.731
27971SOL    HW185810   9.826   6.023  10.824
27971SOL    HW285811   9.820   5.944  10.695
27972SOL     OW85812   9.434   7.944   0.329
27972SOL    HW185813   9.432   7.969   0.237
27972SOL    HW285814   9.448   7.849   0.329
27973SOL     OW85815   3.980   5.079   0.005
27973SOL    HW185816   4.060   5.036  14.851
27973SOL    HW285817   4.006   5.170   0.020
27974SOL     OW85818   9.507   6.467  12.022
27974SOL    HW185819   9.567   6.541  12.016
27974SOL    HW285820   9.440   6.485  11.955
27975SOL     OW85821   3.344  12.418  12.231
27975SOL    HW185822   3.280  12.485  12.257
27975SOL    HW285823   3.292  12.350  12.189
27976SOL     OW85824   1.848   9.851   7.960
27976SOL    HW185825   1.874   9.913   7.891
27976SOL    HW285826   1.856   9.901   8.041
27977SOL     OW85827  10.031  10.604   2.090
27977SOL    HW185828  10.031  10.637   2.000
27977SOL    HW285829   9.948  10.635   2.127
27978SOL     OW85830  14.198   9.460   5.759
27978SOL    HW185831  14.164   9.549   5.757
27978SOL    HW285832  14.219   9.444   5.851
27979SOL     OW85833   3.006   7.975   0.472
27979SOL    HW185834   3.003   8.059   0.517
27979SOL    HW285835   3.018   7.998   0.379
27980SOL     OW85836   2.667  14.198  10.766
27980SOL    HW185837   2.709  14.255  10.830
27980SOL    HW285838   2.712  14.114  10.776
27981SOL     OW85839   6.300   2.645   7.055
27981SOL    HW185840   6.252   2.725   7.075
27981SOL    HW285841   6.307   2.600   7.139
27982SOL     OW85842  14.031   9.553  10.931
27982SOL    HW185843  13.979   9.608  10.873
27982SOL    HW285844  14.047   9.473  10.881
27983SOL     OW85845   1.445   5.269   3.966
27983SOL    HW185846   1.466   5.190   4.016
27983SOL    HW285847   1.518   5.278   3.904
27984SOL     OW85848   7.164  13.457  11.138
27984SOL    HW185849   7.223  13.409  11.196
27984SOL    HW285850   7.119  13.519  11.195
27985SOL     OW85851  13.444   9.512   0.092
27985SOL    HW185852  13.385   9.442   0.065
27985SOL    HW285853  13.387   9.577   0.134
27986SOL     OW85854  14.503   9.421  10.058
27986SOL    HW185855  14.555   9.403  10.136
27986SOL    HW285856  14.451   9.497  10.080
27987SOL     OW85857   4.358   1.869   1.878
27987SOL    HW185858   4.398   1.818   1.807
27987SOL    HW285859   4.323   1.803   1.938
27988SOL     OW85860   6.973   2.326   0.862
27988SOL    HW185861   7.045   2.386   0.879
27988SOL    HW285862   6.933   2.310   0.947
27989SOL     OW85863  13.536   9.319   3.508
27989SOL    HW185864  13.560   9.338   3.599
27989SOL    HW285865  13.483   9.239   3.514
27990SOL     OW85866   7.483  12.571  13.213
27990SOL    HW185867   7.403  12.596  13.258
27990SOL    HW285868   7.540  12.538  13.282
27991SOL     OW85869  12.620   7.775  13.315
27991SOL    HW185870  12.557   7.704  13.329
27991SOL    HW285871  12.704   7.730  13.306
27992SOL     OW85872   6.750   7.640   0.773
27992SOL    HW185873   6.733   7.618   0.681
27992SOL    HW285874   6.788   7.560   0.810
27993SOL     OW85875  10.244   0.714   8.144
27993SOL    HW185876  10.194   0.712   8.226
27993SOL    HW285877  10.333   0.732   8.172
27994SOL     OW85878   6.590   1.044  11.606
27994SOL    HW185879   6.496   1.028  11.618
27994SOL    HW285880   6.600   1.138  11.617
27995SOL     OW85881   1.382  13.660   2.236
27995SOL    HW185882   1.311  13.637   2.176
27995SOL    HW285883   1.424  13.577   2.257
27996SOL     OW85884  14.488   8.423   7.414
27996SOL    HW185885  14.446   8.420   7.328
27996SOL    HW285886  14.485   8.515   7.439
27997SOL     OW85887   3.900   6.336  14.657
27997SOL    HW185888   3.807   6.327  14.678
27997SOL    HW285889   3.926   6.417  14.700
27998SOL     OW85890  10.850  10.671   1.430
27998SOL    HW185891  10.760  10.670   1.464
27998SOL    HW285892  10.846  10.621   1.349
27999SOL     OW85893  13.185   8.287   4.403
27999SOL    HW185894  13.216   8.196   4.402
27999SOL    HW285895  13.179   8.309   4.496
28000SOL     OW85896  12.420   4.228   2.959
28000SOL    HW185897  12.416   4.207   2.866
28000SOL    HW285898  12.468   4.155   2.998
28001SOL     OW85899  14.546  13.818   0.916
28001SOL    HW185900  14.464  13.815   0.964
28001SOL    HW285901  14.552  13.908   0.884
28002SOL     OW85902  14.475   9.351   2.873
28002SOL    HW185903  14.483   9.372   2.966
28002SOL    HW285904  14.498   9.433   2.828
28003SOL     OW85905   7.205  10.104   6.637
28003SOL    HW185906   7.218  10.009   6.639
28003SOL    HW285907   7.179  10.127   6.726
28004SOL     OW85908  11.183  10.339  12.276
28004SOL    HW185909  11.274  10.308  12.279
28004SOL    HW285910  11.179  10.409  12.341
28005SOL     OW85911   2.851   0.933   6.958
28005SOL    HW185912   2.898   0.995   6.901
28005SOL    HW285913   2.887   0.847   6.934
28006SOL     OW85914  12.243   3.172  14.430
28006SOL    HW185915  12.297   3.131  14.498
28006SOL    HW285916  12.158   3.127  14.437
28007SOL     OW85917   4.742  12.229  14.166
28007SOL    HW185918   4.699  12.244  14.082
28007SOL    HW285919   4.833  12.208  14.143
28008SOL     OW85920   7.679   5.539   2.542
28008SOL    HW185921   7.634   5.479   2.601
28008SOL    HW285922   7.644   5.519   2.456
28009SOL     OW85923  11.521  14.462  14.620
28009SOL    HW185924  11.473  14.472  14.702
28009SOL    HW285925  11.571  14.543  14.611
28010SOL     OW85926   3.780   5.639   9.338
28010SOL    HW185927   3.807   5.656   9.428
28010SOL    HW285928   3.774   5.726   9.298
28011SOL     OW85929  14.482   1.227   0.149
28011SOL    HW185930  14.568   1.218   0.109
28011SOL    HW285931  14.422   1.239   0.076
28012SOL     OW85932   5.471  14.231   8.077
28012SOL    HW185933   5.439  14.176   8.149
28012SOL    HW285934   5.395  14.285   8.054
28013SOL     OW85935  11.601  14.729   2.969
28013SOL    HW185936  11.667  14.716   3.036
28013SOL    HW285937  11.531  14.778   3.012
28014SOL     OW85938  14.408   1.408   2.594
28014SOL    HW185939  14.494   1.437   2.624
28014SOL    HW285940  14.353   1.410   2.673
28015SOL     OW85941   0.821  14.375   6.418
28015SOL    HW185942   0.852  14.445   6.362
28015SOL    HW285943   0.790  14.419   6.497
28016SOL     OW85944  11.361  11.265   9.847
28016SOL    HW185945  11.365  11.264   9.943
28016SOL    HW285946  11.343  11.174   9.823
28017SOL     OW85947   0.936  14.719  13.826
28017SOL    HW185948   0.943  14.770  13.907
28017SOL    HW285949   0.865  14.761  13.777
28018SOL     OW85950  10.797   5.099  10.807
28018SOL    HW185951  10.826   5.187  10.834
28018SOL    HW285952  10.736   5.072  10.876
28019SOL     OW85953  12.372   4.234   0.305
28019SOL    HW185954  12.395   4.259   0.394
28019SOL    HW285955  12.279   4.212   0.309
28020SOL     OW85956  14.417   2.905   2.041
28020SOL    HW185957  14.434   2.948   2.125
28020SOL    HW285958  14.441   2.971   1.976
28021SOL     OW85959   3.780   3.882   7.676
28021SOL    HW185960   3.701   3.833   7.698
28021SOL    HW285961   3.824   3.897   7.760
28022SOL     OW85962  10.657   4.726  11.089
28022SOL    HW185963  10.625   4.693  11.005
28022SOL    HW285964  10.672   4.648  11.141
28023SOL     OW85965   9.683  13.268   2.845
28023SOL    HW185966   9.726  13.217   2.914
28023SOL    HW285967   9.607  13.216   2.820
28024SOL     OW85968   9.261  12.942   3.687
28024SOL    HW185969   9.350  12.976   3.683
28024SOL    HW285970   9.267  12.867   3.747
28025SOL     OW85971   1.843  14.060   2.559
28025SOL    HW185972   1.813  14.009   2.484
28025SOL    HW285973   1.939  14.061   2.549
28026SOL     OW85974  13.257   3.697  11.419
28026SOL    HW185975  13.253   3.735  11.506
28026SOL    HW285976  13.262   3.602  11.434
28027SOL     OW85977  13.791   0.130   0.547
28027SOL    HW185978  13.813   0.215   0.509
28027SOL    HW285979  13.774   0.149   0.639
28028SOL     OW85980   5.083   7.531  13.597
28028SOL    HW185981   4.997   7.536  13.640
28028SOL    HW285982   5.068   7.475  13.521
28029SOL     OW85983  14.122   2.842   2.638
28029SOL    HW185984  14.053   2.805   2.693
28029SOL    HW285985  14.182   2.884   2.700
28030SOL     OW85986   7.040  11.912   3.529
28030SOL    HW185987   7.047  12.004   3.503
28030SOL    HW285988   7.131  11.880   3.528
28031SOL     OW85989  11.853   6.736   0.876
28031SOL    HW185990  11.892   6.663   0.829
28031SOL    HW285991  11.759   6.717   0.874
28032SOL     OW85992  12.589   7.888  13.798
28032SOL    HW185993  12.563   7.917  13.711
28032SOL    HW285994  12.509   7.894  13.850
28033SOL     OW85995   8.549   1.525   4.749
28033SOL    HW185996   8.552   1.613   4.786
28033SOL    HW285997   8.503   1.473   4.815
28034SOL     OW85998   5.082   2.133  14.776
28034SOL    HW185999   5.018   2.080  14.824
28034SOL    HW286000   5.039   2.218  14.764
28035SOL     OW86001   3.309   9.366   8.091
28035SOL    HW186002   3.246   9.407   8.032
28035SOL    HW286003   3.391   9.414   8.077
28036SOL     OW86004   7.662  14.166   5.408
28036SOL    HW186005   7.590  14.229   5.414
28036SOL    HW286006   7.618  14.083   5.389
28037SOL     OW86007   8.346   7.283  11.622
28037SOL    HW186008   8.255   7.274  11.595
28037SOL    HW286009   8.395   7.286  11.540
28038SOL     OW86010  14.323   7.645   4.200
28038SOL    HW186011  14.298   7.608   4.284
28038SOL    HW286012  14.418   7.658   4.207
28039SOL     OW86013   9.727   5.553   9.968
28039SOL    HW186014   9.756   5.478   9.915
28039SOL    HW286015   9.652   5.587   9.919
28040SOL     OW86016   5.898   4.793  14.474
28040SOL    HW186017   5.959   4.856  14.512
28040SOL    HW286018   5.854   4.753  14.549
28041SOL     OW86019   2.597  13.292   2.038
28041SOL    HW186020   2.502  13.282   2.046
28041SOL    HW286021   2.618  13.260   1.951
28042SOL     OW86022   4.971   1.469  11.556
28042SOL    HW186023   4.990   1.547  11.608
28042SOL    HW286024   4.974   1.499  11.465
28043SOL     OW86025  13.579   4.359   3.610
28043SOL    HW186026  13.622   4.293   3.665
28043SOL    HW286027  13.498   4.318   3.581
28044SOL     OW86028  12.522  11.081   1.932
28044SOL    HW186029  12.573  11.103   1.854
28044SOL    HW286030  12.431  11.076   1.900
28045SOL     OW86031   9.032  12.299  11.800
28045SOL    HW186032   9.121  12.264  11.797
28045SOL    HW286033   8.983  12.237  11.854
28046SOL     OW86034   5.497   3.748   5.723
28046SOL    HW186035   5.422   3.765   5.667
28046SOL    HW286036   5.515   3.833   5.765
28047SOL     OW86037   2.758   5.731   0.111
28047SOL    HW186038   2.759   5.776   0.196
28047SOL    HW286039   2.693   5.662   0.123
28048SOL     OW86040   5.077  10.110   7.797
28048SOL    HW186041   5.129  10.179   7.839
28048SOL    HW286042   5.127  10.030   7.813
28049SOL     OW86043   3.457   6.524   4.215
28049SOL    HW186044   3.534   6.473   4.186
28049SOL    HW286045   3.492   6.583   4.282
28050SOL     OW86046  14.461   4.050  14.406
28050SOL    HW186047  14.370   4.023  14.422
28050SOL    HW286048  14.455   4.144  14.391
28051SOL     OW86049   3.789   9.212   8.669
28051SOL    HW186050   3.836   9.287   8.632
28051SOL    HW286051   3.716   9.198   8.609
28052SOL     OW86052   7.878   5.528   4.604
28052SOL    HW186053   7.812   5.563   4.664
28052SOL    HW286054   7.909   5.448   4.646
28053SOL     OW86055  10.358  12.881   9.918
28053SOL    HW186056  10.296  12.932   9.970
28053SOL    HW286057  10.361  12.796   9.961
28054SOL     OW86058  13.853   6.971   5.277
28054SOL    HW186059  13.825   7.061   5.257
28054SOL    HW286060  13.848   6.966   5.373
28055SOL     OW86061  11.884   2.407   4.820
28055SOL    HW186062  11.892   2.492   4.863
28055SOL    HW286063  11.848   2.349   4.888
28056SOL     OW86064  13.661  14.108  12.200
28056SOL    HW186065  13.722  14.168  12.158
28056SOL    HW286066  13.602  14.081  12.129
28057SOL     OW86067  14.579   6.816   4.091
28057SOL    HW186068  14.503   6.773   4.129
28057SOL    HW286069  14.542   6.885   4.036
28058SOL     OW86070   1.675   3.640   5.752
28058SOL    HW186071   1.671   3.577   5.823
28058SOL    HW286072   1.657   3.725   5.794
28059SOL     OW86073  14.696   0.978  13.766
28059SOL    HW186074  14.650   0.908  13.719
28059SOL    HW286075  14.681   1.057  13.714
28060SOL     OW86076   6.583  13.488   4.151
28060SOL    HW186077   6.552  13.412   4.102
28060SOL    HW286078   6.525  13.492   4.228
28061SOL     OW86079  13.126  13.141   2.007
28061SOL    HW186080  13.087  13.136   2.094
28061SOL    HW286081  13.063  13.099   1.949
28062SOL     OW86082  11.603   3.674   8.938
28062SOL    HW186083  11.554   3.719   9.007
28062SOL    HW286084  11.560   3.589   8.930
28063SOL     OW86085  14.416   0.622   8.285
28063SOL    HW186086  14.400   0.712   8.313
28063SOL    HW286087  14.451   0.578   8.363
28064SOL     OW86088   0.587   7.815  11.688
28064SOL    HW186089   0.563   7.785  11.600
28064SOL    HW286090   0.609   7.735  11.735
28065SOL     OW86091  14.383  13.144  13.475
28065SOL    HW186092  14.339  13.063  13.449
28065SOL    HW286093  14.372  13.203  13.400
28066SOL     OW86094  11.183   1.453  12.288
28066SOL    HW186095  11.203   1.537  12.246
28066SOL    HW286096  11.100   1.425  12.249
28067SOL     OW86097   7.201  10.306   0.335
28067SOL    HW186098   7.251  10.337   0.260
28067SOL    HW286099   7.217  10.371   0.403
28068SOL     OW86100  10.483   4.219   4.603
28068SOL    HW186101  10.417   4.178   4.660
28068SOL    HW286102  10.523   4.286   4.658
28069SOL     OW86103   9.378   7.533  11.731
28069SOL    HW186104   9.314   7.540  11.660
28069SOL    HW286105   9.423   7.450  11.715
28070SOL     OW86106   1.835   3.002   8.718
28070SOL    HW186107   1.757   3.001   8.775
28070SOL    HW286108   1.866   3.093   8.722
28071SOL     OW86109   0.709  10.691   1.349
28071SOL    HW186110   0.649  10.762   1.326
28071SOL    HW286111   0.721  10.643   1.266
28072SOL     OW86112  14.866   8.044   0.720
28072SOL    HW186113   0.020   8.120   0.771
28072SOL    HW286114  14.823   8.082   0.643
28073SOL     OW86115   2.176  14.188   4.938
28073SOL    HW186116   2.227  14.134   4.999
28073SOL    HW286117   2.222  14.180   4.855
28074SOL     OW86118   5.989   0.765   9.518
28074SOL    HW186119   6.012   0.848   9.475
28074SOL    HW286120   5.894   0.766   9.523
28075SOL     OW86121   0.750   0.055   2.358
28075SOL    HW186122   0.695   0.113   2.306
28075SOL    HW286123   0.812   0.113   2.401
28076SOL     OW86124   6.836   9.061   7.315
28076SOL    HW186125   6.830   9.124   7.243
28076SOL    HW286126   6.874   8.982   7.275
28077SOL     OW86127   1.009   9.479   8.659
28077SOL    HW186128   0.986   9.571   8.673
28077SOL    HW286129   1.093   9.468   8.704
28078SOL     OW86130   4.976   1.119   4.458
28078SOL    HW186131   5.030   1.141   4.534
28078SOL    HW286132   5.038   1.115   4.385
28079SOL     OW86133  10.374   6.454   7.971
28079SOL    HW186134  10.436   6.400   7.922
28079SOL    HW286135  10.346   6.521   7.909
28080SOL     OW86136   1.483   3.344   5.327
28080SOL    HW186137   1.528   3.342   5.411
28080SOL    HW286138   1.398   3.383   5.346
28081SOL     OW86139  10.747   6.313   9.869
28081SOL    HW186140  10.654   6.288   9.870
28081SOL    HW286141  10.756   6.374   9.942
28082SOL     OW86142   2.975   5.896  13.046
28082SOL    HW186143   2.953   5.803  13.050
28082SOL    HW286144   2.893   5.939  13.022
28083SOL     OW86145  14.628   5.269   4.562
28083SOL    HW186146  14.545   5.278   4.609
28083SOL    HW286147  14.636   5.349   4.511
28084SOL     OW86148   5.771  14.325   0.919
28084SOL    HW186149   5.697  14.307   0.977
28084SOL    HW286150   5.785  14.419   0.927
28085SOL     OW86151   1.798   9.985   0.674
28085SOL    HW186152   1.799  10.080   0.679
28085SOL    HW286153   1.759   9.966   0.589
28086SOL     OW86154   9.860   2.753   7.380
28086SOL    HW186155   9.823   2.747   7.291
28086SOL    HW286156   9.786   2.778   7.435
28087SOL     OW86157   4.948   1.957   7.966
28087SOL    HW186158   4.911   1.999   7.888
28087SOL    HW286159   5.035   1.928   7.938
28088SOL     OW86160   0.576  13.247   3.263
28088SOL    HW186161   0.615  13.322   3.217
28088SOL    HW286162   0.645  13.215   3.320
28089SOL     OW86163   2.487   4.622  13.836
28089SOL    HW186164   2.488   4.566  13.913
28089SOL    HW286165   2.417   4.587  13.781
28090SOL     OW86166   8.552  14.848   9.447
28090SOL    HW186167   8.564  14.850   9.542
28090SOL    HW286168   8.538   0.064   9.423
28091SOL     OW86169  10.370   9.647   2.372
28091SOL    HW186170  10.420   9.653   2.453
28091SOL    HW286171  10.279   9.664   2.398
28092SOL     OW86172  14.152  10.970   3.817
28092SOL    HW186173  14.218  10.905   3.840
28092SOL    HW286174  14.110  10.991   3.900
28093SOL     OW86175   4.383   9.002  11.027
28093SOL    HW186176   4.304   9.053  11.042
28093SOL    HW286177   4.355   8.911  11.034
28094SOL     OW86178   9.517   2.906   6.648
28094SOL    HW186179   9.506   2.978   6.710
28094SOL    HW286180   9.601   2.867   6.672
28095SOL     OW86181   5.495   8.288  11.987
28095SOL    HW186182   5.475   8.198  11.964
28095SOL    HW286183   5.478   8.293  12.081
28096SOL     OW86184   6.962   3.856   2.480
28096SOL    HW186185   6.936   3.784   2.536
28096SOL    HW286186   6.913   3.932   2.513
28097SOL     OW86187   3.226   3.978   0.637
28097SOL    HW186188   3.318   3.952   0.633
28097SOL    HW286189   3.177   3.900   0.611
28098SOL     OW86190   9.739   6.693  12.505
28098SOL    HW186191   9.683   6.653  12.571
28098SOL    HW286192   9.740   6.786  12.527
28099SOL     OW86193  12.221   8.342   5.426
28099SOL    HW186194  12.217   8.412   5.360
28099SOL    HW286195  12.315   8.324   5.435
28100SOL     OW86196   0.624   1.772  12.810
28100SOL    HW186197   0.648   1.863  12.794
28100SOL    HW286198   0.601   1.737  12.724
28101SOL     OW86199   8.987   0.344  13.818
28101SOL    HW186200   8.979   0.256  13.855
28101SOL    HW286201   8.993   0.402  13.894
28102SOL     OW86202   8.040   5.949   8.508
28102SOL    HW186203   8.111   6.010   8.527
28102SOL    HW286204   8.032   5.897   8.588
28103SOL     OW86205   1.913   1.848  10.642
28103SOL    HW186206   1.962   1.841  10.723
28103SOL    HW286207   1.832   1.800  10.658
28104SOL     OW86208   6.731   9.426   7.042
28104SOL    HW186209   6.683   9.446   7.122
28104SOL    HW286210   6.679   9.466   6.972
28105SOL     OW86211   4.851   4.551   7.308
28105SOL    HW186212   4.866   4.543   7.402
28105SOL    HW286213   4.846   4.461   7.277
28106SOL     OW86214   0.831   6.417  13.312
28106SOL    HW186215   0.882   6.355  13.365
28106SOL    HW286216   0.783   6.362  13.251
28107SOL     OW86217  12.771  14.631   7.163
28107SOL    HW186218  12.866  14.634   7.155
28107SOL    HW286219  12.739  14.649   7.075
28108SOL     OW86220   9.684   1.066  11.633
28108SOL    HW186221   9.661   0.981  11.670
28108SOL    HW286222   9.658   1.060  11.541
28109SOL     OW86223   7.003  14.465   5.315
28109SOL    HW186224   7.030  14.410   5.241
28109SOL    HW286225   7.078  14.522   5.332
28110SOL     OW86226  10.631   3.137   8.845
28110SOL    HW186227  10.540   3.114   8.864
28110SOL    HW286228  10.640   3.123   8.750
28111SOL     OW86229   5.564  10.085   9.734
28111SOL    HW186230   5.550  10.066   9.827
28111SOL    HW286231   5.651  10.049   9.715
28112SOL     OW86232   2.575  14.578   1.816
28112SOL    HW186233   2.584  14.673   1.809
28112SOL    HW286234   2.489  14.566   1.856
28113SOL     OW86235   2.450  10.207   0.360
28113SOL    HW186236   2.455  10.302   0.350
28113SOL    HW286237   2.452  10.173   0.271
28114SOL     OW86238  13.090  10.977   7.689
28114SOL    HW186239  13.165  10.918   7.682
28114SOL    HW286240  13.036  10.955   7.614
28115SOL     OW86241  14.215   0.385   7.226
28115SOL    HW186242  14.218   0.456   7.162
28115SOL    HW286243  14.239   0.427   7.309
28116SOL     OW86244  11.610   3.712  12.348
28116SOL    HW186245  11.697   3.696  12.309
28116SOL    HW286246  11.578   3.790  12.303
28117SOL     OW86247  13.044  12.440   8.476
28117SOL    HW186248  12.956  12.466   8.503
28117SOL    HW286249  13.032  12.396   8.392
28118SOL     OW86250   2.066  10.747   8.077
28118SOL    HW186251   2.003  10.819   8.068
28118SOL    HW286252   2.134  10.781   8.135
28119SOL     OW86253   1.747   6.305  10.783
28119SOL    HW186254   1.825   6.345  10.823
28119SOL    HW286255   1.747   6.336  10.693
28120SOL     OW86256  13.117  14.331  12.009
28120SOL    HW186257  13.170  14.377  11.944
28120SOL    HW286258  13.156  14.244  12.015
28121SOL     OW86259   0.051   8.379   7.779
28121SOL    HW186260   0.022   8.289   7.794
28121SOL    HW286261  14.864   8.414   7.715
28122SOL     OW86262   6.936  12.891   4.307
28122SOL    HW186263   6.900  12.856   4.389
28122SOL    HW286264   6.885  12.969   4.289
28123SOL     OW86265   4.497   9.292   9.456
28123SOL    HW186266   4.452   9.315   9.537
28123SOL    HW286267   4.427   9.262   9.398
28124SOL     OW86268   3.641  13.124   4.138
28124SOL    HW186269   3.557  13.152   4.102
28124SOL    HW286270   3.703  13.191   4.108
28125SOL     OW86271  13.227  12.125   1.185
28125SOL    HW186272  13.137  12.112   1.155
28125SOL    HW286273  13.233  12.220   1.199
28126SOL     OW86274  11.601   5.237  11.380
28126SOL    HW186275  11.592   5.158  11.434
28126SOL    HW286276  11.695   5.249  11.371
28127SOL     OW86277   8.550   6.980  13.110
28127SOL    HW186278   8.575   6.894  13.077
28127SOL    HW286279   8.628   7.012  13.155
28128SOL     OW86280   3.053   8.923  12.948
28128SOL    HW186281   2.987   8.988  12.972
28128SOL    HW286282   3.010   8.869  12.881
28129SOL     OW86283   6.505   2.586   4.543
28129SOL    HW186284   6.584   2.634   4.518
28129SOL    HW286285   6.496   2.600   4.637
28130SOL     OW86286  11.249  10.626   3.185
28130SOL    HW186287  11.320  10.589   3.133
28130SOL    HW286288  11.241  10.567   3.260
28131SOL     OW86289   0.349   3.671  13.667
28131SOL    HW186290   0.426   3.624  13.635
28131SOL    HW286291   0.275   3.617  13.640
28132SOL     OW86292   0.555  10.854   1.941
28132SOL    HW186293   0.526  10.923   1.882
28132SOL    HW286294   0.618  10.803   1.890
28133SOL     OW86295   9.641   9.728   0.814
28133SOL    HW186296   9.659   9.810   0.861
28133SOL    HW286297   9.557   9.744   0.771
28134SOL     OW86298   2.531  10.360  14.139
28134SOL    HW186299   2.438  10.336  14.142
28134SOL    HW286300   2.545  10.417  14.214
28135SOL     OW86301  10.706   0.498  11.364
28135SOL    HW186302  10.791   0.455  11.378
28135SOL    HW286303  10.665   0.447  11.294
28136SOL     OW86304  14.062   8.074   7.954
28136SOL    HW186305  14.065   8.005   7.887
28136SOL    HW286306  13.994   8.134   7.923
28137SOL     OW86307   5.337   0.877  11.280
28137SOL    HW186308   5.280   0.895  11.355
28137SOL    HW286309   5.342   0.782  11.277
28138SOL     OW86310   1.156   4.691   8.360
28138SOL    HW186311   1.085   4.628   8.355
28138SOL    HW286312   1.143   4.736   8.443
28139SOL     OW86313   0.594  12.841   7.958
28139SOL    HW186314   0.662  12.778   7.981
28139SOL    HW286315   0.628  12.926   7.988
28140SOL     OW86316   0.546   8.276   2.633
28140SOL    HW186317   0.501   8.211   2.687
28140SOL    HW286318   0.477   8.314   2.579
28141SOL     OW86319   0.037   1.292   0.754
28141SOL    HW186320   0.009   1.286   0.846
28141SOL    HW286321   0.113   1.351   0.757
28142SOL     OW86322   1.039  11.567   8.503
28142SOL    HW186323   1.009  11.642   8.555
28142SOL    HW286324   1.110  11.529   8.555
28143SOL     OW86325   2.918   1.950  10.680
28143SOL    HW186326   2.984   1.919  10.619
28143SOL    HW286327   2.872   2.020  10.633
28144SOL     OW86328   2.842  10.217  11.079
28144SOL    HW186329   2.800  10.293  11.038
28144SOL    HW286330   2.929  10.213  11.039
28145SOL     OW86331  12.195   6.385   5.070
28145SOL    HW186332  12.125   6.324   5.048
28145SOL    HW286333  12.173   6.416   5.159
28146SOL     OW86334  11.321  13.320   2.256
28146SOL    HW186335  11.229  13.297   2.238
28146SOL    HW286336  11.341  13.276   2.338
28147SOL     OW86337   8.644   6.060   1.872
28147SOL    HW186338   8.556   6.095   1.883
28147SOL    HW286339   8.665   6.076   1.780
28148SOL     OW86340   3.223   6.223  12.424
28148SOL    HW186341   3.154   6.181  12.475
28148SOL    HW286342   3.290   6.246  12.489
28149SOL     OW86343  10.186   3.764  12.250
28149SOL    HW186344  10.258   3.743  12.310
28149SOL    HW286345  10.201   3.707  12.175
28150SOL     OW86346   1.044  12.820   4.766
28150SOL    HW186347   0.985  12.761   4.813
28150SOL    HW286348   1.020  12.810   4.674
28151SOL     OW86349   5.240  10.657   0.704
28151SOL    HW186350   5.218  10.564   0.706
28151SOL    HW286351   5.320  10.662   0.651
28152SOL     OW86352   6.968  10.380   4.043
28152SOL    HW186353   6.992  10.370   3.951
28152SOL    HW286354   6.973  10.291   4.079
28153SOL     OW86355   5.874   6.031   3.431
28153SOL    HW186356   5.925   6.107   3.459
28153SOL    HW286357   5.923   5.956   3.464
28154SOL     OW86358   1.614   7.703   3.482
28154SOL    HW186359   1.650   7.620   3.515
28154SOL    HW286360   1.632   7.700   3.388
28155SOL     OW86361  10.803   4.460   8.590
28155SOL    HW186362  10.889   4.422   8.610
28155SOL    HW286363  10.742   4.387   8.594
28156SOL     OW86364  14.096   2.949   8.644
28156SOL    HW186365  14.072   2.968   8.735
28156SOL    HW286366  14.105   3.035   8.603
28157SOL     OW86367   4.226   2.101   3.678
28157SOL    HW186368   4.222   2.028   3.617
28157SOL    HW286369   4.315   2.136   3.670
28158SOL     OW86370   1.101   6.438   4.563
28158SOL    HW186371   1.054   6.507   4.610
28158SOL    HW286372   1.047   6.360   4.575
28159SOL     OW86373   2.751   1.591   7.407
28159SOL    HW186374   2.728   1.512   7.359
28159SOL    HW286375   2.707   1.581   7.492
28160SOL     OW86376   1.000   6.019   8.363
28160SOL    HW186377   0.973   6.026   8.455
28160SOL    HW286378   0.964   5.936   8.333
28161SOL     OW86379   7.094  12.850  11.381
28161SOL    HW186380   7.122  12.778  11.323
28161SOL    HW286381   7.091  12.926  11.323
28162SOL     OW86382   3.209   5.116  11.654
28162SOL    HW186383   3.236   5.092  11.743
28162SOL    HW286384   3.180   5.207  11.662
28163SOL     OW86385   5.963   6.457   2.782
28163SOL    HW186386   5.941   6.422   2.868
28163SOL    HW286387   5.889   6.434   2.726
28164SOL     OW86388   2.952   5.644   5.627
28164SOL    HW186389   2.905   5.579   5.679
28164SOL    HW286390   2.884   5.696   5.584
28165SOL     OW86391   6.078   2.085   5.004
28165SOL    HW186392   6.045   2.007   5.048
28165SOL    HW286393   6.169   2.092   5.032
28166SOL     OW86394   3.107   5.241   7.578
28166SOL    HW186395   3.189   5.249   7.529
28166SOL    HW286396   3.134   5.249   7.670
28167SOL     OW86397  13.959   3.108   3.720
28167SOL    HW186398  14.035   3.088   3.775
28167SOL    HW286399  13.887   3.118   3.782
28168SOL     OW86400  12.483  11.266   4.030
28168SOL    HW186401  12.450  11.325   3.962
28168SOL    HW286402  12.466  11.178   3.996
28169SOL     OW86403  11.255   3.052   2.370
28169SOL    HW186404  11.288   2.969   2.402
28169SOL    HW286405  11.183   3.029   2.312
28170SOL     OW86406   7.439   1.412   5.977
28170SOL    HW186407   7.480   1.384   5.896
28170SOL    HW286408   7.446   1.336   6.035
28171SOL     OW86409  14.573   6.236  13.520
28171SOL    HW186410  14.597   6.278  13.438
28171SOL    HW286411  14.609   6.294  13.588
28172SOL     OW86412  10.443  14.416   6.998
28172SOL    HW186413  10.432  14.497   6.948
28172SOL    HW286414  10.358  14.373   6.992
28173SOL     OW86415   3.490   3.820   0.015
28173SOL    HW186416   3.412   3.865   0.049
28173SOL    HW286417   3.482   3.829  14.795
28174SOL     OW86418   5.766   6.953   1.556
28174SOL    HW186419   5.755   6.948   1.651
28174SOL    HW286420   5.689   6.909   1.521
28175SOL     OW86421   6.434   4.479   9.027
28175SOL    HW186422   6.456   4.516   8.942
28175SOL    HW286423   6.455   4.548   9.090
28176SOL     OW86424   6.524   9.710   6.016
28176SOL    HW186425   6.599   9.726   6.073
28176SOL    HW286426   6.461   9.664   6.072
28177SOL     OW86427   9.409   0.797   7.748
28177SOL    HW186428   9.360   0.765   7.673
28177SOL    HW286429   9.399   0.892   7.745
28178SOL     OW86430   7.959   3.855  12.169
28178SOL    HW186431   8.008   3.873  12.249
28178SOL    HW286432   7.995   3.916  12.105
28179SOL     OW86433  14.820   0.631  12.742
28179SOL    HW186434  14.729   0.648  12.767
28179SOL    HW286435  14.865   0.614  12.825
28180SOL     OW86436   2.723   6.525   8.494
28180SOL    HW186437   2.661   6.570   8.552
28180SOL    HW286438   2.785   6.593   8.467
28181SOL     OW86439   8.377  13.679   2.045
28181SOL    HW186440   8.289  13.647   2.025
28181SOL    HW286441   8.424  13.672   1.962
28182SOL     OW86442   0.950   0.738  10.401
28182SOL    HW186443   0.905   0.654  10.392
28182SOL    HW286444   1.042   0.717  10.385
28183SOL     OW86445  11.589   5.987   1.622
28183SOL    HW186446  11.630   6.056   1.569
28183SOL    HW286447  11.598   6.017   1.712
28184SOL     OW86448   4.968  13.040  12.029
28184SOL    HW186449   4.954  13.031  12.123
28184SOL    HW286450   5.026  13.115  12.020
28185SOL     OW86451  13.469   8.019   2.702
28185SOL    HW186452  13.528   8.040   2.775
28185SOL    HW286453  13.499   8.074   2.630
28186SOL     OW86454   9.950   6.034   7.849
28186SOL    HW186455   9.930   6.105   7.910
28186SOL    HW286456  10.039   6.009   7.870
28187SOL     OW86457   1.825  11.841   9.127
28187SOL    HW186458   1.869  11.856   9.043
28187SOL    HW286459   1.855  11.754   9.154
28188SOL     OW86460   5.352  12.504   9.555
28188SOL    HW186461   5.409  12.464   9.621
28188SOL    HW286462   5.379  12.596   9.552
28189SOL     OW86463   5.369   6.120   7.995
28189SOL    HW186464   5.452   6.150   7.957
28189SOL    HW286465   5.304   6.138   7.926
28190SOL     OW86466   3.580  14.724   4.652
28190SOL    HW186467   3.569  14.671   4.731
28190SOL    HW286468   3.632  14.669   4.594
28191SOL     OW86469  13.833   4.979  12.205
28191SOL    HW186470  13.921   5.012  12.224
28191SOL    HW286471  13.848   4.896  12.159
28192SOL     OW86472   6.182   6.285  11.715
28192SOL    HW186473   6.214   6.358  11.661
28192SOL    HW286474   6.262   6.244  11.749
28193SOL     OW86475   7.880  14.673   9.241
28193SOL    HW186476   7.785  14.672   9.234
28193SOL    HW286477   7.898  14.620   9.318
28194SOL     OW86478  14.187  12.299  14.370
28194SOL    HW186479  14.205  12.335  14.283
28194SOL    HW286480  14.118  12.234  14.355
28195SOL     OW86481  11.004   3.874  14.075
28195SOL    HW186482  11.008   3.781  14.050
28195SOL    HW286483  10.934   3.910  14.021
28196SOL     OW86484   9.966   3.453  14.351
28196SOL    HW186485   9.983   3.545  14.331
28196SOL    HW286486   9.934   3.416  14.268
28197SOL     OW86487   8.407   4.030   1.308
28197SOL    HW186488   8.406   4.121   1.339
28197SOL    HW286489   8.393   3.978   1.387
28198SOL     OW86490  10.277   8.714   5.980
28198SOL    HW186491  10.358   8.723   6.030
28198SOL    HW286492  10.297   8.648   5.914
28199SOL     OW86493  13.201  12.346   7.144
28199SOL    HW186494  13.199  12.397   7.062
28199SOL    HW286495  13.196  12.412   7.213
28200SOL     OW86496   0.201   6.985  14.119
28200SOL    HW186497   0.204   6.924  14.193
28200SOL    HW286498   0.282   7.035  14.125
28201SOL     OW86499   8.240   1.326   6.776
28201SOL    HW186500   8.159   1.377   6.778
28201SOL    HW286501   8.295   1.366   6.843
28202SOL     OW86502   8.722   6.876   1.054
28202SOL    HW186503   8.783   6.944   1.083
28202SOL    HW286504   8.648   6.925   1.018
28203SOL     OW86505   5.496   7.645   8.720
28203SOL    HW186506   5.532   7.657   8.808
28203SOL    HW286507   5.403   7.628   8.734
28204SOL     OW86508   0.866   4.976   0.047
28204SOL    HW186509   0.852   4.885   0.022
28204SOL    HW286510   0.777   5.013   0.054
28205SOL     OW86511  11.087  12.140   7.428
28205SOL    HW186512  11.065  12.215   7.484
28205SOL    HW286513  11.052  12.064   7.474
28206SOL     OW86514   4.849   0.824  10.767
28206SOL    HW186515   4.846   0.729  10.761
28206SOL    HW286516   4.942   0.846  10.760
28207SOL     OW86517   0.511   9.960   0.439
28207SOL    HW186518   0.597   9.954   0.397
28207SOL    HW286519   0.449   9.944   0.369
28208SOL     OW86520   3.626   8.056   8.593
28208SOL    HW186521   3.557   8.115   8.625
28208SOL    HW286522   3.589   7.969   8.601
28209SOL     OW86523   3.220   5.209   2.867
28209SOL    HW186524   3.276   5.281   2.838
28209SOL    HW286525   3.271   5.165   2.936
28210SOL     OW86526   6.069  11.269   0.742
28210SOL    HW186527   6.160  11.271   0.713
28210SOL    HW286528   6.019  11.252   0.662
28211SOL     OW86529   4.112   7.442   7.249
28211SOL    HW186530   4.107   7.533   7.221
28211SOL    HW286531   4.150   7.396   7.174
28212SOL     OW86532  10.373   7.060  12.462
28212SOL    HW186533  10.407   6.976  12.492
28212SOL    HW286534  10.336   7.043  12.376
28213SOL     OW86535   9.295   6.185  13.702
28213SOL    HW186536   9.346   6.266  13.711
28213SOL    HW286537   9.324   6.148  13.619
28214SOL     OW86538   2.125  12.340   2.245
28214SOL    HW186539   2.219  12.346   2.262
28214SOL    HW286540   2.087  12.318   2.330
28215SOL     OW86541   2.312   7.277   4.015
28215SOL    HW186542   2.283   7.303   3.927
28215SOL    HW286543   2.368   7.349   4.044
28216SOL     OW86544  10.292   9.670   5.689
28216SOL    HW186545  10.222   9.624   5.735
28216SOL    HW286546  10.354   9.601   5.665
28217SOL     OW86547   8.457   9.989   1.332
28217SOL    HW186548   8.454  10.011   1.239
28217SOL    HW286549   8.543  10.019   1.361
28218SOL     OW86550   2.201   2.906   1.267
28218SOL    HW186551   2.247   2.843   1.322
28218SOL    HW286552   2.112   2.909   1.302
28219SOL     OW86553   0.246   7.644   7.947
28219SOL    HW186554   0.321   7.634   7.888
28219SOL    HW286555   0.250   7.735   7.976
28220SOL     OW86556   3.461   9.151   5.067
28220SOL    HW186557   3.413   9.233   5.082
28220SOL    HW286558   3.486   9.155   4.975
28221SOL     OW86559   0.191   6.217   1.437
28221SOL    HW186560   0.175   6.294   1.490
28221SOL    HW286561   0.241   6.158   1.493
28222SOL     OW86562  11.949   4.429   9.502
28222SOL    HW186563  11.861   4.466   9.499
28222SOL    HW286564  11.982   4.454   9.588
28223SOL     OW86565   1.864   4.689   8.903
28223SOL    HW186566   1.932   4.753   8.881
28223SOL    HW286567   1.850   4.640   8.822
28224SOL     OW86568  10.780   6.906  11.820
28224SOL    HW186569  10.778   6.955  11.738
28224SOL    HW286570  10.865   6.929  11.859
28225SOL     OW86571   5.305  14.444   5.553
28225SOL    HW186572   5.395  14.474   5.565
28225SOL    HW286573   5.262  14.461   5.637
28226SOL     OW86574  13.520   6.922   1.668
28226SOL    HW186575  13.562   6.853   1.720
28226SOL    HW286576  13.476   6.976   1.733
28227SOL     OW86577   8.559   6.566   5.213
28227SOL    HW186578   8.529   6.535   5.128
28227SOL    HW286579   8.643   6.609   5.196
28228SOL     OW86580   7.892   4.824   9.822
28228SOL    HW186581   7.947   4.811   9.745
28228SOL    HW286582   7.932   4.896   9.870
28229SOL     OW86583   1.300   5.432   5.639
28229SOL    HW186584   1.335   5.480   5.563
28229SOL    HW286585   1.285   5.499   5.705
28230SOL     OW86586  13.341   3.504  14.179
28230SOL    HW186587  13.435   3.511  14.165
28230SOL    HW286588  13.302   3.550  14.106
28231SOL     OW86589   8.245   3.289  10.721
28231SOL    HW186590   8.249   3.312  10.814
28231SOL    HW286591   8.271   3.197  10.717
28232SOL     OW86592  10.998   7.787   3.905
28232SOL    HW186593  11.088   7.789   3.873
28232SOL    HW286594  10.962   7.705   3.872
28233SOL     OW86595   6.407   7.242   8.187
28233SOL    HW186596   6.490   7.196   8.200
28233SOL    HW286597   6.388   7.231   8.094
28234SOL     OW86598   4.525   0.319   6.418
28234SOL    HW186599   4.456   0.261   6.386
28234SOL    HW286600   4.514   0.400   6.367
28235SOL     OW86601   3.039   6.826   0.749
28235SOL    HW186602   2.995   6.832   0.665
28235SOL    HW286603   3.052   6.732   0.764
28236SOL     OW86604  10.111  14.072  13.397
28236SOL    HW186605  10.189  14.068  13.342
28236SOL    HW286606  10.050  14.129  13.350
28237SOL     OW86607  14.327   5.511   1.864
28237SOL    HW186608  14.360   5.480   1.780
28237SOL    HW286609  14.405   5.540   1.911
28238SOL     OW86610   5.742   5.255   3.995
28238SOL    HW186611   5.651   5.271   3.971
28238SOL    HW286612   5.748   5.280   4.087
28239SOL     OW86613  12.414   3.886   1.278
28239SOL    HW186614  12.343   3.892   1.214
28239SOL    HW286615  12.370   3.882   1.363
28240SOL     OW86616   8.417  11.445   5.129
28240SOL    HW186617   8.458  11.409   5.208
28240SOL    HW286618   8.323  11.432   5.143
28241SOL     OW86619   8.821  14.733   5.059
28241SOL    HW186620   8.867  14.779   4.989
28241SOL    HW286621   8.879  14.741   5.135
28242SOL     OW86622   2.481   8.833   5.989
28242SOL    HW186623   2.558   8.791   6.029
28242SOL    HW286624   2.455   8.900   6.053
28243SOL     OW86625  13.282   2.472   8.518
28243SOL    HW186626  13.219   2.526   8.564
28243SOL    HW286627  13.340   2.440   8.587
28244SOL     OW86628   7.711   9.831   2.448
28244SOL    HW186629   7.804   9.847   2.436
28244SOL    HW286630   7.702   9.736   2.451
28245SOL     OW86631  12.022   5.135   4.288
28245SOL    HW186632  12.049   5.129   4.379
28245SOL    HW286633  12.099   5.169   4.242
28246SOL     OW86634   6.946  13.846   7.435
28246SOL    HW186635   6.851  13.831   7.431
28246SOL    HW286636   6.978  13.782   7.498
28247SOL     OW86637   3.635   7.156  12.540
28247SOL    HW186638   3.694   7.231  12.550
28247SOL    HW286639   3.638   7.136  12.447
28248SOL     OW86640   0.843  11.684   2.977
28248SOL    HW186641   0.847  11.733   3.059
28248SOL    HW286642   0.858  11.750   2.909
28249SOL     OW86643   2.825   0.143   4.159
28249SOL    HW186644   2.903   0.087   4.152
28249SOL    HW286645   2.832   0.204   4.086
28250SOL     OW86646   9.508   0.358  12.633
28250SOL    HW186647   9.498   0.362  12.728
28250SOL    HW286648   9.430   0.401  12.599
28251SOL     OW86649   7.653   9.887   0.405
28251SOL    HW186650   7.713   9.812   0.396
28251SOL    HW286651   7.671   9.921   0.493
28252SOL     OW86652   5.686  12.079   0.069
28252SOL    HW186653   5.624  12.092   0.140
28252SOL    HW286654   5.690  11.985   0.056
28253SOL     OW86655   4.212   0.225   7.598
28253SOL    HW186656   4.299   0.205   7.562
28253SOL    HW286657   4.226   0.300   7.656
28254SOL     OW86658   5.745  12.948   8.733
28254SOL    HW186659   5.816  12.978   8.677
28254SOL    HW286660   5.787  12.885   8.792
28255SOL     OW86661   1.272   9.920   1.883
28255SOL    HW186662   1.271  10.007   1.843
28255SOL    HW286663   1.290   9.861   1.810
28256SOL     OW86664   3.095  13.272   0.378
28256SOL    HW186665   3.027  13.294   0.314
28256SOL    HW286666   3.088  13.177   0.388
28257SOL     OW86667   8.283   9.131   5.013
28257SOL    HW186668   8.348   9.062   5.008
28257SOL    HW286669   8.286   9.160   5.105
28258SOL     OW86670   2.697  13.885  13.356
28258SOL    HW186671   2.728  13.958  13.410
28258SOL    HW286672   2.633  13.840  13.410
28259SOL     OW86673   7.272  12.028   7.419
28259SOL    HW186674   7.181  12.048   7.442
28259SOL    HW286675   7.324  12.090   7.469
28260SOL     OW86676  11.061   7.814   5.613
28260SOL    HW186677  10.987   7.819   5.673
28260SOL    HW286678  11.021   7.804   5.526
28261SOL     OW86679  13.854  11.359  14.778
28261SOL    HW186680  13.823  11.340  14.689
28261SOL    HW286681  13.945  11.385  14.766
28262SOL     OW86682   8.834   2.897   2.861
28262SOL    HW186683   8.826   2.886   2.955
28262SOL    HW286684   8.771   2.966   2.839
28263SOL     OW86685   9.997   7.097  10.519
28263SOL    HW186686  10.008   7.071  10.427
28263SOL    HW286687  10.026   7.020  10.569
28264SOL     OW86688   7.285   1.421   0.534
28264SOL    HW186689   7.355   1.445   0.593
28264SOL    HW286690   7.299   1.476   0.456
28265SOL     OW86691   5.026   1.540  13.193
28265SOL    HW186692   5.033   1.624  13.146
28265SOL    HW286693   4.998   1.477  13.126
28266SOL     OW86694   4.697  14.215   4.114
28266SOL    HW186695   4.630  14.237   4.179
28266SOL    HW286696   4.662  14.247   4.031
28267SOL     OW86697   1.965   5.239   7.651
28267SOL    HW186698   1.938   5.153   7.619
28267SOL    HW286699   1.997   5.285   7.574
28268SOL     OW86700  14.842   9.953  10.758
28268SOL    HW186701  14.797   9.869  10.762
28268SOL    HW286702  14.792  10.011  10.816
28269SOL     OW86703  13.417   1.911  10.561
28269SOL    HW186704  13.468   1.892  10.640
28269SOL    HW286705  13.404   2.006  10.564
28270SOL     OW86706   2.128   9.041  13.365
28270SOL    HW186707   2.220   9.056  13.385
28270SOL    HW286708   2.103   9.113  13.308
28271SOL     OW86709  11.502   1.359   9.573
28271SOL    HW186710  11.475   1.447   9.600
28271SOL    HW286711  11.568   1.334   9.639
28272SOL     OW86712   2.837  12.730   2.189
28272SOL    HW186713   2.791  12.790   2.247
28272SOL    HW286714   2.848  12.779   2.107
28273SOL     OW86715   1.415   3.612   4.282
28273SOL    HW186716   1.434   3.655   4.199
28273SOL    HW286717   1.497   3.568   4.306
28274SOL     OW86718   1.156   5.224   2.580
28274SOL    HW186719   1.112   5.305   2.606
28274SOL    HW286720   1.229   5.253   2.525
28275SOL     OW86721   4.712   7.814   6.025
28275SOL    HW186722   4.803   7.829   6.051
28275SOL    HW286723   4.698   7.720   6.036
28276SOL     OW86724   9.631   2.447   4.254
28276SOL    HW186725   9.557   2.505   4.239
28276SOL    HW286726   9.645   2.449   4.349
28277SOL     OW86727   2.132   2.501  12.178
28277SOL    HW186728   2.146   2.518  12.271
28277SOL    HW286729   2.209   2.453  12.150
28278SOL     OW86730   2.109   7.219  10.325
28278SOL    HW186731   2.133   7.188  10.238
28278SOL    HW286732   2.014   7.214  10.328
28279SOL     OW86733  10.510  14.447  11.746
28279SOL    HW186734  10.544  14.534  11.769
28279SOL    HW286735  10.415  14.456  11.754
28280SOL     OW86736   5.747  12.793   5.662
28280SOL    HW186737   5.761  12.726   5.595
28280SOL    HW286738   5.653  12.789   5.681
28281SOL     OW86739   5.167   3.357  10.123
28281SOL    HW186740   5.218   3.432  10.154
28281SOL    HW286741   5.200   3.341  10.034
28282SOL     OW86742   5.319   5.780   7.956
28282SOL    HW186743   5.225   5.762   7.953
28282SOL    HW286744   5.326   5.874   7.938
28283SOL     OW86745  12.415  11.393   3.791
28283SOL    HW186746  12.462  11.322   3.748
28283SOL    HW286747  12.480  11.461   3.805
28284SOL     OW86748   8.025   6.627   4.211
28284SOL    HW186749   8.032   6.709   4.260
28284SOL    HW286750   8.069   6.562   4.266
28285SOL     OW86751   0.218  10.866   8.900
28285SOL    HW186752   0.294  10.920   8.877
28285SOL    HW286753   0.202  10.885   8.992
28286SOL     OW86754   2.428   2.609  12.328
28286SOL    HW186755   2.469   2.530  12.294
28286SOL    HW286756   2.361   2.578  12.389
28287SOL     OW86757   6.348   0.733   0.926
28287SOL    HW186758   6.397   0.669   0.978
28287SOL    HW286759   6.268   0.687   0.901
28288SOL     OW86760   8.022  11.033  14.096
28288SOL    HW186761   8.037  10.956  14.150
28288SOL    HW286762   8.051  11.008  14.008
28289SOL     OW86763   2.493   0.372   1.551
28289SOL    HW186764   2.460   0.375   1.461
28289SOL    HW286765   2.421   0.336   1.602
28290SOL     OW86766  10.891   5.337  10.905
28290SOL    HW186767  10.944   5.415  10.917
28290SOL    HW286768  10.811   5.354  10.956
28291SOL     OW86769   3.816  12.590   3.078
28291SOL    HW186770   3.867  12.509   3.075
28291SOL    HW286771   3.783  12.601   2.989
28292SOL     OW86772   3.873  13.777   3.460
28292SOL    HW186773   3.881  13.869   3.483
28292SOL    HW286774   3.963  13.746   3.449
28293SOL     OW86775   9.693  10.292   9.417
28293SOL    HW186776   9.605  10.279   9.452
28293SOL    HW286777   9.696  10.237   9.338
28294SOL     OW86778   9.319   3.535   5.692
28294SOL    HW186779   9.265   3.614   5.687
28294SOL    HW286780   9.377   3.549   5.767
28295SOL     OW86781   0.009   7.055  11.075
28295SOL    HW186782   0.076   7.113  11.113
28295SOL    HW286783   0.049   7.022  10.994
28296SOL     OW86784   6.569   9.186   3.346
28296SOL    HW186785   6.606   9.275   3.344
28296SOL    HW286786   6.522   9.182   3.429
28297SOL     OW86787   0.277  11.308   1.212
28297SOL    HW186788   0.334  11.259   1.271
28297SOL    HW286789   0.253  11.244   1.144
28298SOL     OW86790   5.546   0.983   3.269
28298SOL    HW186791   5.518   0.911   3.213
28298SOL    HW286792   5.619   1.024   3.221
28299SOL     OW86793   1.154   1.796   0.176
28299SOL    HW186794   1.153   1.708   0.139
28299SOL    HW286795   1.064   1.812   0.204
28300SOL     OW86796   0.432   4.105   1.467
28300SOL    HW186797   0.404   4.065   1.385
28300SOL    HW286798   0.506   4.052   1.496
28301SOL     OW86799  13.551   2.022   5.162
28301SOL    HW186800  13.613   2.091   5.184
28301SOL    HW286801  13.605   1.945   5.146
28302SOL     OW86802   2.643   0.767   3.073
28302SOL    HW186803   2.573   0.705   3.052
28302SOL    HW286804   2.603   0.853   3.062
28303SOL     OW86805   0.164   7.877   5.925
28303SOL    HW186806   0.200   7.807   5.870
28303SOL    HW286807   0.139   7.946   5.863
28304SOL     OW86808   5.149   7.372   9.402
28304SOL    HW186809   5.219   7.418   9.449
28304SOL    HW286810   5.163   7.280   9.424
28305SOL     OW86811  11.939   0.614  14.804
28305SOL    HW186812  11.898   0.685  14.755
28305SOL    HW286813  11.871   0.547  14.809
28306SOL     OW86814   0.227   5.996   9.174
28306SOL    HW186815   0.306   6.036   9.139
28306SOL    HW286816   0.156   6.035   9.122
28307SOL     OW86817   1.505   7.579   6.960
28307SOL    HW186818   1.592   7.608   6.933
28307SOL    HW286819   1.520   7.494   7.001
28308SOL     OW86820   0.798  10.526   0.136
28308SOL    HW186821   0.713  10.560   0.109
28308SOL    HW286822   0.779  10.470   0.212
28309SOL     OW86823   4.848   4.721   6.972
28309SOL    HW186824   4.912   4.650   6.960
28309SOL    HW286825   4.887   4.796   6.926
28310SOL     OW86826   8.139  10.899   0.646
28310SOL    HW186827   8.178  10.847   0.717
28310SOL    HW286828   8.063  10.940   0.686
28311SOL     OW86829  10.506   9.782  12.588
28311SOL    HW186830  10.453   9.790  12.509
28311SOL    HW286831  10.520   9.872  12.617
28312SOL     OW86832  12.725   1.433   1.516
28312SOL    HW186833  12.772   1.364   1.468
28312SOL    HW286834  12.773   1.441   1.599
28313SOL     OW86835   2.659  13.900   0.931
28313SOL    HW186836   2.730  13.923   0.991
28313SOL    HW286837   2.656  13.972   0.868
28314SOL     OW86838   8.703  11.554   5.372
28314SOL    HW186839   8.646  11.481   5.347
28314SOL    HW286840   8.729  11.534   5.462
28315SOL     OW86841   3.687   7.709   3.829
28315SOL    HW186842   3.767   7.662   3.806
28315SOL    HW286843   3.684   7.706   3.924
28316SOL     OW86844   1.271  12.771  14.566
28316SOL    HW186845   1.284  12.820  14.648
28316SOL    HW286846   1.176  12.770  14.554
28317SOL     OW86847   2.493   3.169   4.815
28317SOL    HW186848   2.587   3.169   4.795
28317SOL    HW286849   2.456   3.104   4.754
28318SOL     OW86850   0.459  13.148   3.583
28318SOL    HW186851   0.439  13.216   3.648
28318SOL    HW286852   0.452  13.066   3.631
28319SOL     OW86853   6.372   8.192   2.414
28319SOL    HW186854   6.416   8.265   2.370
28319SOL    HW286855   6.299   8.170   2.356
28320SOL     OW86856  11.695   4.412   8.328
28320SOL    HW186857  11.662   4.457   8.406
28320SOL    HW286858  11.654   4.325   8.332
28321SOL     OW86859   7.084   6.372  14.317
28321SOL    HW186860   7.015   6.374  14.384
28321SOL    HW286861   7.132   6.292  14.335
28322SOL     OW86862  12.760   2.375   0.759
28322SOL    HW186863  12.772   2.287   0.724
28322SOL    HW286864  12.775   2.365   0.853
28323SOL     OW86865   2.414   9.395   6.832
28323SOL    HW186866   2.368   9.353   6.760
28323SOL    HW286867   2.366   9.477   6.846
28324SOL     OW86868  14.084   7.769  14.193
28324SOL    HW186869  14.153   7.762  14.259
28324SOL    HW286870  14.130   7.761  14.110
28325SOL     OW86871  10.578   9.892   6.764
28325SOL    HW186872  10.627   9.867   6.843
28325SOL    HW286873  10.557   9.809   6.722
28326SOL     OW86874  11.489   7.668  11.530
28326SOL    HW186875  11.560   7.629  11.582
28326SOL    HW286876  11.414   7.669  11.590
28327SOL     OW86877   7.300   5.060   0.814
28327SOL    HW186878   7.354   5.135   0.835
28327SOL    HW286879   7.224   5.067   0.872
28328SOL     OW86880   3.941   0.059  10.418
28328SOL    HW186881   3.981   0.018  10.342
28328SOL    HW286882   3.847   0.055  10.401
28329SOL     OW86883  10.124   2.807   8.770
28329SOL    HW186884  10.205   2.795   8.722
28329SOL    HW286885  10.094   2.718   8.789
28330SOL     OW86886   7.039  12.516   2.332
28330SOL    HW186887   7.076  12.522   2.244
28330SOL    HW286888   7.113  12.530   2.391
28331SOL     OW86889   3.554   8.495  13.222
28331SOL    HW186890   3.534   8.517  13.313
28331SOL    HW286891   3.644   8.461  13.225
28332SOL     OW86892   1.945  10.848   2.184
28332SOL    HW186893   1.919  10.779   2.122
28332SOL    HW286894   1.866  10.864   2.235
28333SOL     OW86895   3.642  10.273   7.176
28333SOL    HW186896   3.640  10.361   7.213
28333SOL    HW286897   3.590  10.220   7.237
28334SOL     OW86898  13.960   5.177   2.800
28334SOL    HW186899  13.912   5.228   2.864
28334SOL    HW286900  14.003   5.242   2.744
28335SOL     OW86901  13.470   5.152   8.013
28335SOL    HW186902  13.466   5.139   7.918
28335SOL    HW286903  13.513   5.237   8.024
28336SOL     OW86904   0.722   7.250   5.677
28336SOL    HW186905   0.744   7.335   5.716
28336SOL    HW286906   0.679   7.272   5.595
28337SOL     OW86907  11.523   4.913   4.305
28337SOL    HW186908  11.475   4.832   4.318
28337SOL    HW286909  11.601   4.888   4.255
28338SOL     OW86910   1.068  11.816   9.274
28338SOL    HW186911   1.111  11.872   9.209
28338SOL    HW286912   1.070  11.866   9.355
28339SOL     OW86913   4.315   1.604   1.400
28339SOL    HW186914   4.322   1.511   1.377
28339SOL    HW286915   4.288   1.646   1.318
28340SOL     OW86916   3.022  11.835  10.219
28340SOL    HW186917   2.955  11.870  10.278
28340SOL    HW286918   3.105  11.851  10.264
28341SOL     OW86919   5.390   6.508   8.030
28341SOL    HW186920   5.308   6.517   7.981
28341SOL    HW286921   5.456   6.491   7.964
28342SOL     OW86922   0.688  13.339   5.854
28342SOL    HW186923   0.762  13.397   5.871
28342SOL    HW286924   0.611  13.389   5.880
28343SOL     OW86925  14.774  11.829   8.728
28343SOL    HW186926  14.691  11.803   8.768
28343SOL    HW286927  14.839  11.813   8.796
28344SOL     OW86928   5.459   1.648   8.295
28344SOL    HW186929   5.482   1.557   8.317
28344SOL    HW286930   5.367   1.656   8.317
28345SOL     OW86931   4.460  13.058   7.931
28345SOL    HW186932   4.377  13.021   7.960
28345SOL    HW286933   4.456  13.150   7.957
28346SOL     OW86934   4.909   7.422  11.850
28346SOL    HW186935   4.989   7.421  11.797
28346SOL    HW286936   4.865   7.504  11.826
28347SOL     OW86937   7.564  11.704   5.064
28347SOL    HW186938   7.526  11.788   5.092
28347SOL    HW286939   7.641  11.729   5.013
28348SOL     OW86940   5.146   1.997   8.977
28348SOL    HW186941   5.122   2.086   9.003
28348SOL    HW286942   5.105   1.941   9.042
28349SOL     OW86943   3.480  14.040   7.674
28349SOL    HW186944   3.548  14.093   7.715
28349SOL    HW286945   3.414  14.102   7.645
28350SOL     OW86946   4.769   6.743   5.684
28350SOL    HW186947   4.790   6.674   5.747
28350SOL    HW286948   4.830   6.814   5.704
28351SOL     OW86949  11.547   3.253   0.869
28351SOL    HW186950  11.556   3.322   0.934
28351SOL    HW286951  11.453   3.244   0.857
28352SOL     OW86952  14.451   5.293   6.296
28352SOL    HW186953  14.390   5.223   6.272
28352SOL    HW286954  14.525   5.282   6.236
28353SOL     OW86955  14.279   0.519   7.740
28353SOL    HW186956  14.338   0.558   7.804
28353SOL    HW286957  14.289   0.425   7.752
28354SOL     OW86958   8.290   7.587  12.017
28354SOL    HW186959   8.319   7.665  12.064
28354SOL    HW286960   8.354   7.519  12.039
28355SOL     OW86961   6.582  13.774   9.112
28355SOL    HW186962   6.548  13.722   9.039
28355SOL    HW286963   6.513  13.838   9.129
28356SOL     OW86964   2.897   2.519  14.356
28356SOL    HW186965   2.893   2.434  14.401
28356SOL    HW286966   2.963   2.568  14.405
28357SOL     OW86967  14.697  11.333   8.743
28357SOL    HW186968  14.673  11.354   8.833
28357SOL    HW286969  14.657  11.402   8.691
28358SOL     OW86970   2.145  14.863   8.606
28358SOL    HW186971   2.084  14.841   8.676
28358SOL    HW286972   2.095  14.849   8.525
28359SOL     OW86973   1.053   0.471  14.329
28359SOL    HW186974   1.113   0.424  14.271
28359SOL    HW286975   0.985   0.407  14.349
28360SOL     OW86976  13.406   3.638   8.963
28360SOL    HW186977  13.462   3.561   8.966
28360SOL    HW286978  13.317   3.602   8.962
28361SOL     OW86979   5.858   2.528  13.574
28361SOL    HW186980   5.855   2.619  13.546
28361SOL    HW286981   5.879   2.531  13.667
28362SOL     OW86982   4.342   7.131   2.144
28362SOL    HW186983   4.434   7.106   2.147
28362SOL    HW286984   4.296   7.052   2.116
28363SOL     OW86985   6.914   5.521   8.405
28363SOL    HW186986   6.889   5.445   8.352
28363SOL    HW286987   7.008   5.511   8.419
28364SOL     OW86988   5.756   4.441  13.244
28364SOL    HW186989   5.828   4.492  13.208
28364SOL    HW286990   5.710   4.502  13.302
28365SOL     OW86991  14.363  14.074  10.272
28365SOL    HW186992  14.408  14.011  10.214
28365SOL    HW286993  14.363  14.031  10.358
28366SOL     OW86994  13.937   0.649   5.471
28366SOL    HW186995  13.912   0.722   5.527
28366SOL    HW286996  14.028   0.631   5.494
28367SOL     OW86997   7.039   1.555   9.490
28367SOL    HW186998   6.960   1.587   9.447
28367SOL    HW286999   7.088   1.512   9.419
28368SOL     OW87000   3.152  11.629  12.006
28368SOL    HW187001   3.184  11.703  11.954
28368SOL    HW287002   3.126  11.668  12.090
28369SOL     OW87003  10.576   8.404   4.592
28369SOL    HW187004  10.569   8.451   4.675
28369SOL    HW287005  10.671   8.398   4.576
28370SOL     OW87006   1.901   4.252  11.673
28370SOL    HW187007   1.918   4.344  11.695
28370SOL    HW287008   1.987   4.211  11.669
28371SOL     OW87009   0.907  13.480  12.019
28371SOL    HW187010   0.828  13.457  12.069
28371SOL    HW287011   0.972  13.500  12.086
28372SOL     OW87012   3.773   5.033   3.987
28372SOL    HW187013   3.783   5.003   3.897
28372SOL    HW287014   3.796   4.956   4.041
28373SOL     OW87015  10.427  13.130   0.476
28373SOL    HW187016  10.411  13.198   0.410
28373SOL    HW287017  10.351  13.073   0.471
28374SOL     OW87018   4.808   9.085   1.473
28374SOL    HW187019   4.903   9.090   1.469
28374SOL    HW287020   4.780   9.174   1.495
28375SOL     OW87021   2.025   8.491   8.949
28375SOL    HW187022   2.044   8.434   8.875
28375SOL    HW287023   1.968   8.440   9.006
28376SOL     OW87024   6.186   9.867  13.702
28376SOL    HW187025   6.249   9.928  13.662
28376SOL    HW287026   6.232   9.783  13.705
28377SOL     OW87027  13.010   3.257  13.780
28377SOL    HW187028  13.069   3.246  13.855
28377SOL    HW287029  12.995   3.352  13.775
28378SOL     OW87030  13.449   3.692   9.708
28378SOL    HW187031  13.383   3.623   9.717
28378SOL    HW287032  13.490   3.674   9.624
28379SOL     OW87033   6.634  10.436   6.166
28379SOL    HW187034   6.554  10.487   6.171
28379SOL    HW287035   6.704  10.502   6.159
28380SOL     OW87036   1.008   2.105   3.804
28380SOL    HW187037   1.010   2.023   3.853
28380SOL    HW287038   0.917   2.114   3.775
28381SOL     OW87039  10.493   3.646   1.858
28381SOL    HW187040  10.431   3.577   1.837
28381SOL    HW287041  10.460   3.724   1.813
28382SOL     OW87042   4.533   2.954   4.340
28382SOL    HW187043   4.605   2.969   4.401
28382SOL    HW287044   4.557   2.873   4.294
28383SOL     OW87045  11.188  11.999  12.998
28383SOL    HW187046  11.229  12.001  12.912
28383SOL    HW287047  11.189  12.090  13.027
28384SOL     OW87048  12.632  14.492   8.789
28384SOL    HW187049  12.669  14.485   8.877
28384SOL    HW287050  12.546  14.533   8.803
28385SOL     OW87051   1.352  14.075   6.879
28385SOL    HW187052   1.351  14.168   6.857
28385SOL    HW287053   1.439  14.060   6.917
28386SOL     OW87054   0.944  10.693   3.319
28386SOL    HW187055   0.896  10.616   3.349
28386SOL    HW287056   1.027  10.659   3.287
28387SOL     OW87057   9.796  12.083   5.921
28387SOL    HW187058   9.762  12.036   5.845
28387SOL    HW287059   9.891  12.072   5.915
28388SOL     OW87060   0.880   8.841   1.346
28388SOL    HW187061   0.938   8.791   1.403
28388SOL    HW287062   0.917   8.831   1.258
28389SOL     OW87063   8.710  12.217  11.777
28389SOL    HW187064   8.742  12.169  11.701
28389SOL    HW287065   8.692  12.150  11.842
28390SOL     OW87066  10.807  11.144   7.206
28390SOL    HW187067  10.842  11.201   7.138
28390SOL    HW287068  10.785  11.203   7.278
28391SOL     OW87069   4.174   7.246   6.390
28391SOL    HW187070   4.167   7.277   6.480
28391SOL    HW287071   4.262   7.210   6.383
28392SOL     OW87072  14.312   4.429  13.336
28392SOL    HW187073  14.367   4.400  13.409
28392SOL    HW287074  14.358   4.400  13.258
28393SOL     OW87075  10.764  10.401  11.643
28393SOL    HW187076  10.669  10.397  11.636
28393SOL    HW287077  10.795  10.326  11.592
28394SOL     OW87078   8.138   5.027   9.803
28394SOL    HW187079   8.201   5.090   9.767
28394SOL    HW287080   8.170   4.942   9.773
28395SOL     OW87081   5.643  12.536   1.034
28395SOL    HW187082   5.606  12.603   0.977
28395SOL    HW287083   5.680  12.471   0.975
28396SOL     OW87084  13.525  11.026  12.379
28396SOL    HW187085  13.561  10.968  12.446
28396SOL    HW287086  13.466  11.083  12.427
28397SOL     OW87087  13.981   6.735  12.643
28397SOL    HW187088  13.975   6.682  12.722
28397SOL    HW287089  13.942   6.819  12.668
28398SOL     OW87090   8.848   3.578   1.216
28398SOL    HW187091   8.842   3.543   1.305
28398SOL    HW287092   8.757   3.582   1.186
28399SOL     OW87093   3.255   2.409   5.838
28399SOL    HW187094   3.173   2.372   5.871
28399SOL    HW287095   3.308   2.333   5.815
28400SOL     OW87096   3.504   8.049  10.194
28400SOL    HW187097   3.597   8.070  10.206
28400SOL    HW287098   3.486   7.985  10.262
28401SOL     OW87099  11.641   0.951  12.238
28401SOL    HW187100  11.694   1.017  12.194
28401SOL    HW287101  11.551   0.979  12.223
28402SOL     OW87102   2.471   2.840   5.537
28402SOL    HW187103   2.425   2.899   5.596
28402SOL    HW287104   2.547   2.891   5.507
28403SOL     OW87105   9.219   2.213   2.961
28403SOL    HW187106   9.141   2.159   2.950
28403SOL    HW287107   9.202   2.266   3.039
28404SOL     OW87108  14.429   4.414   1.592
28404SOL    HW187109  14.519   4.446   1.586
28404SOL    HW287110  14.379   4.471   1.533
28405SOL     OW87111   5.691   1.633  10.943
28405SOL    HW187112   5.786   1.640  10.952
28405SOL    HW287113   5.676   1.542  10.918
28406SOL     OW87114   1.227   6.704  12.816
28406SOL    HW187115   1.212   6.616  12.851
28406SOL    HW287116   1.319   6.722  12.835
28407SOL     OW87117   6.352   3.422   5.046
28407SOL    HW187118   6.312   3.509   5.049
28407SOL    HW287119   6.337   3.386   5.134
28408SOL     OW87120   9.674  10.335   7.311
28408SOL    HW187121   9.682  10.430   7.299
28408SOL    HW287122   9.641  10.326   7.400
28409SOL     OW87123   7.377   5.563  11.060
28409SOL    HW187124   7.413   5.555  10.971
28409SOL    HW287125   7.444   5.610  11.109
28410SOL     OW87126  11.726   5.501   5.220
28410SOL    HW187127  11.741   5.441   5.147
28410SOL    HW287128  11.813   5.536   5.240
28411SOL     OW87129   8.966   9.290   7.682
28411SOL    HW187130   8.960   9.209   7.732
28411SOL    HW287131   8.883   9.295   7.635
28412SOL     OW87132   4.634  12.406  14.351
28412SOL    HW187133   4.700  12.475  14.354
28412SOL    HW287134   4.675  12.336  14.299
28413SOL     OW87135   7.708   6.915  14.490
28413SOL    HW187136   7.744   6.840  14.443
28413SOL    HW287137   7.784   6.972  14.505
28414SOL     OW87138   3.291  11.602   6.847
28414SOL    HW187139   3.272  11.661   6.774
28414SOL    HW287140   3.274  11.656   6.925
28415SOL     OW87141  10.560  10.044  11.083
28415SOL    HW187142  10.600   9.964  11.049
28415SOL    HW287143  10.467  10.036  11.060
28416SOL     OW87144  13.431   2.977   0.011
28416SOL    HW187145  13.388   2.996  14.803
28416SOL    HW287146  13.429   3.061   0.058
28417SOL     OW87147   4.045   8.789  11.205
28417SOL    HW187148   4.001   8.718  11.252
28417SOL    HW287149   3.974   8.843  11.171
28418SOL     OW87150   2.084   2.395   2.195
28418SOL    HW187151   2.060   2.307   2.166
28418SOL    HW287152   2.169   2.383   2.237
28419SOL     OW87153  11.363   8.237  11.097
28419SOL    HW187154  11.273   8.249  11.127
28419SOL    HW287155  11.356   8.176  11.024
28420SOL     OW87156  10.515   9.160  14.873
28420SOL    HW187157  10.450   9.110  14.824
28420SOL    HW287158  10.525   9.112   0.080
28421SOL     OW87159   5.123  13.264  14.141
28421SOL    HW187160   5.194  13.325  14.119
28421SOL    HW287161   5.076  13.307  14.212
28422SOL     OW87162   6.162   4.311   8.650
28422SOL    HW187163   6.067   4.322   8.663
28422SOL    HW287164   6.201   4.351   8.728
28423SOL     OW87165   7.351   2.008   5.382
28423SOL    HW187166   7.286   1.962   5.436
28423SOL    HW287167   7.343   1.968   5.296
28424SOL     OW87168  11.635  12.202   4.880
28424SOL    HW187169  11.562  12.141   4.866
28424SOL    HW287170  11.686  12.197   4.799
28425SOL     OW87171  11.509   0.947  13.607
28425SOL    HW187172  11.421   0.980  13.620
28425SOL    HW287173  11.514   0.929  13.513
28426SOL     OW87174   7.199  11.735   7.963
28426SOL    HW187175   7.210  11.771   7.875
28426SOL    HW287176   7.178  11.810   8.018
28427SOL     OW87177  13.785   7.015   1.284
28427SOL    HW187178  13.734   6.966   1.220
28427SOL    HW287179  13.720   7.058   1.340
28428SOL     OW87180   2.871   9.823  10.510
28428SOL    HW187181   2.806   9.799  10.576
28428SOL    HW287182   2.948   9.848  10.561
28429SOL     OW87183   9.286   4.733  11.702
28429SOL    HW187184   9.378   4.738  11.729
28429SOL    HW287185   9.237   4.742  11.783
28430SOL     OW87186  14.370   7.402   4.464
28430SOL    HW187187  14.284   7.362   4.452
28430SOL    HW287188  14.396   7.377   4.553
28431SOL     OW87189   7.435   2.446   3.118
28431SOL    HW187190   7.514   2.398   3.144
28431SOL    HW287191   7.363   2.390   3.147
28432SOL     OW87192   1.780  13.936   2.293
28432SOL    HW187193   1.716  13.978   2.236
28432SOL    HW287194   1.810  13.860   2.244
28433SOL     OW87195   6.605   1.122   0.565
28433SOL    HW187196   6.514   1.120   0.536
28433SOL    HW287197   6.644   1.195   0.517
28434SOL     OW87198   9.059   9.043   5.862
28434SOL    HW187199   9.068   9.115   5.925
28434SOL    HW287200   9.146   9.003   5.858
28435SOL     OW87201  11.383  13.579  12.701
28435SOL    HW187202  11.477  13.597  12.697
28435SOL    HW287203  11.361  13.586  12.794
28436SOL     OW87204  14.609   6.172  13.984
28436SOL    HW187205  14.691   6.164  13.936
28436SOL    HW287206  14.634   6.204  14.071
28437SOL     OW87207   2.802   1.390   5.939
28437SOL    HW187208   2.801   1.325   6.009
28437SOL    HW287209   2.852   1.350   5.869
28438SOL     OW87210  14.445   0.256   0.692
28438SOL    HW187211  14.453   0.299   0.607
28438SOL    HW287212  14.407   0.323   0.749
28439SOL     OW87213   4.674   0.266   0.453
28439SOL    HW187214   4.735   0.262   0.379
28439SOL    HW287215   4.685   0.353   0.489
28440SOL     OW87216   8.527  12.181  13.410
28440SOL    HW187217   8.504  12.176  13.318
28440SOL    HW287218   8.612  12.138  13.416
28441SOL     OW87219   6.164   9.762   2.687
28441SOL    HW187220   6.072   9.781   2.703
28441SOL    HW287221   6.176   9.778   2.593
28442SOL     OW87222   6.303   6.710   7.902
28442SOL    HW187223   6.297   6.791   7.851
28442SOL    HW287224   6.397   6.701   7.920
28443SOL     OW87225  13.984   3.388   7.363
28443SOL    HW187226  14.044   3.354   7.429
28443SOL    HW287227  13.960   3.311   7.312
28444SOL     OW87228   6.265   1.458   2.609
28444SOL    HW187229   6.235   1.533   2.559
28444SOL    HW287230   6.306   1.496   2.687
28445SOL     OW87231   0.816  12.271  10.916
28445SOL    HW187232   0.782  12.334  10.852
28445SOL    HW287233   0.769  12.292  10.997
28446SOL     OW87234   7.003   3.404   4.717
28446SOL    HW187235   7.077   3.367   4.765
28446SOL    HW287236   7.043   3.461   4.652
28447SOL     OW87237  11.233  12.282  13.976
28447SOL    HW187238  11.144  12.302  13.946
28447SOL    HW287239  11.286  12.356  13.946
28448SOL     OW87240   1.355   5.131  10.961
28448SOL    HW187241   1.364   5.226  10.947
28448SOL    HW287242   1.377   5.092  10.876
28449SOL     OW87243  14.022   0.020   6.937
28449SOL    HW187244  14.038   0.038   6.844
28449SOL    HW287245  14.078  14.819   6.956
28450SOL     OW87246  10.234  12.784   6.828
28450SOL    HW187247  10.147  12.808   6.794
28450SOL    HW287248  10.295  12.823   6.765
28451SOL     OW87249   5.482   2.771   2.279
28451SOL    HW187250   5.509   2.689   2.320
28451SOL    HW287251   5.563   2.807   2.241
28452SOL     OW87252   1.422   5.260   1.426
28452SOL    HW187253   1.349   5.292   1.374
28452SOL    HW287254   1.468   5.199   1.368
28453SOL     OW87255   8.473   6.375   5.040
28453SOL    HW187256   8.413   6.312   5.082
28453SOL    HW287257   8.531   6.320   4.987
28454SOL     OW87258   8.942   1.749  11.741
28454SOL    HW187259   8.856   1.752  11.783
28454SOL    HW287260   8.965   1.655  11.740
28455SOL     OW87261   0.209   1.676   0.938
28455SOL    HW187262   0.186   1.757   0.984
28455SOL    HW287263   0.151   1.610   0.977
28456SOL     OW87264  12.979  12.950  14.420
28456SOL    HW187265  12.933  13.022  14.377
28456SOL    HW287266  12.994  12.887  14.350
28457SOL     OW87267   7.583   7.281  10.421
28457SOL    HW187268   7.654   7.333  10.459
28457SOL    HW287269   7.506   7.338  10.429
28458SOL     OW87270  10.666   1.337  12.899
28458SOL    HW187271  10.571   1.336  12.885
28458SOL    HW287272  10.697   1.412  12.848
28459SOL     OW87273   8.670   8.763   3.687
28459SOL    HW187274   8.608   8.748   3.615
28459SOL    HW287275   8.616   8.756   3.766
28460SOL     OW87276   2.194  14.323  12.900
28460SOL    HW187277   2.238  14.331  12.815
28460SOL    HW287278   2.212  14.234  12.928
28461SOL     OW87279  14.709   6.489  11.518
28461SOL    HW187280  14.640   6.475  11.454
28461SOL    HW287281  14.709   6.410  11.571
28462SOL     OW87282   9.937   3.421  11.195
28462SOL    HW187283  10.017   3.464  11.162
28462SOL    HW287284   9.867   3.456  11.139
28463SOL     OW87285  10.622  11.088   1.906
28463SOL    HW187286  10.541  11.132   1.929
28463SOL    HW287287  10.608  10.996   1.931
28464SOL     OW87288   9.825   2.857  10.895
28464SOL    HW187289   9.832   2.947  10.865
28464SOL    HW287290   9.914   2.823  10.890
28465SOL     OW87291   5.620   0.489  13.861
28465SOL    HW187292   5.700   0.437  13.860
28465SOL    HW287293   5.616   0.530  13.774
28466SOL     OW87294   2.645   9.737   8.102
28466SOL    HW187295   2.636   9.647   8.133
28466SOL    HW287296   2.588   9.788   8.159
28467SOL     OW87297   1.863   6.795   3.413
28467SOL    HW187298   1.881   6.751   3.497
28467SOL    HW287299   1.793   6.742   3.373
28468SOL     OW87300   7.228  12.860   9.354
28468SOL    HW187301   7.215  12.926   9.286
28468SOL    HW287302   7.195  12.900   9.434
28469SOL     OW87303   8.737  13.003  12.328
28469SOL    HW187304   8.737  13.073  12.262
28469SOL    HW287305   8.776  12.928  12.283
28470SOL     OW87306   7.648   2.590  10.667
28470SOL    HW187307   7.655   2.552  10.755
28470SOL    HW287308   7.664   2.516  10.609
28471SOL     OW87309   8.418   7.132   2.579
28471SOL    HW187310   8.416   7.037   2.592
28471SOL    HW287311   8.384   7.145   2.490
28472SOL     OW87312  13.856  11.058   1.293
28472SOL    HW187313  13.854  11.016   1.207
28472SOL    HW287314  13.859  11.152   1.273
28473SOL     OW87315   6.112   1.233  13.824
28473SOL    HW187316   6.128   1.186  13.906
28473SOL    HW287317   6.016   1.239  13.818
28474SOL     OW87318   0.308  13.732   5.438
28474SOL    HW187319   0.339  13.805   5.492
28474SOL    HW287320   0.300  13.769   5.350
28475SOL     OW87321   6.113  10.543   8.114
28475SOL    HW187322   6.099  10.457   8.155
28475SOL    HW287323   6.077  10.533   8.025
28476SOL     OW87324   7.225   6.257   8.305
28476SOL    HW187325   7.175   6.338   8.312
28476SOL    HW287326   7.190   6.201   8.374
28477SOL     OW87327   0.041   8.921   7.297
28477SOL    HW187328   0.061   8.846   7.242
28477SOL    HW287329  14.841   8.963   7.255
28478SOL     OW87330   2.848  10.750   1.504
28478SOL    HW187331   2.856  10.689   1.577
28478SOL    HW287332   2.773  10.805   1.526
28479SOL     OW87333   3.068   7.151   6.172
28479SOL    HW187334   3.131   7.158   6.100
28479SOL    HW287335   2.986   7.127   6.130
28480SOL     OW87336  11.017   3.286   3.860
28480SOL    HW187337  11.087   3.222   3.871
28480SOL    HW287338  11.002   3.290   3.766
28481SOL     OW87339  10.816  11.062   3.404
28481SOL    HW187340  10.859  10.980   3.430
28481SOL    HW287341  10.780  11.044   3.317
28482SOL     OW87342   4.583   1.678   6.688
28482SOL    HW187343   4.649   1.711   6.749
28482SOL    HW287344   4.632   1.629   6.623
28483SOL     OW87345   2.176   8.895   3.707
28483SOL    HW187346   2.199   8.912   3.798
28483SOL    HW287347   2.101   8.836   3.711
28484SOL     OW87348   0.142  11.370   9.726
28484SOL    HW187349   0.176  11.438   9.785
28484SOL    HW287350   0.061  11.408   9.691
28485SOL     OW87351   7.385  10.396   0.161
28485SOL    HW187352   7.478  10.394   0.182
28485SOL    HW287353   7.370  10.485   0.129
28486SOL     OW87354   0.632   9.513   1.602
28486SOL    HW187355   0.705   9.498   1.662
28486SOL    HW287356   0.645   9.448   1.533
28487SOL     OW87357   6.462   2.835  11.681
28487SOL    HW187358   6.377   2.863  11.645
28487SOL    HW287359   6.526   2.859  11.614
28488SOL     OW87360   4.820  12.812  10.234
28488SOL    HW187361   4.903  12.839  10.195
28488SOL    HW287362   4.763  12.793  10.160
28489SOL     OW87363   5.053  10.177   0.364
28489SOL    HW187364   4.979  10.117   0.375
28489SOL    HW287365   5.043  10.212   0.276
28490SOL     OW87366   7.398   3.391   3.224
28490SOL    HW187367   7.457   3.317   3.214
28490SOL    HW287368   7.432   3.440   3.299
28491SOL     OW87369   5.720  14.364   2.233
28491SOL    HW187370   5.772  14.421   2.290
28491SOL    HW287371   5.674  14.306   2.294
28492SOL     OW87372   9.381   2.322   9.405
28492SOL    HW187373   9.463   2.369   9.422
28492SOL    HW287374   9.397   2.234   9.440
28493SOL     OW87375   4.022   4.027   1.687
28493SOL    HW187376   3.961   4.053   1.619
28493SOL    HW287377   4.068   3.951   1.650
28494SOL     OW87378  14.744   7.420  11.649
28494SOL    HW187379  14.784   7.478  11.714
28494SOL    HW287380  14.798   7.429  11.571
28495SOL     OW87381  14.286  14.778  14.691
28495SOL    HW187382  14.339  14.702  14.668
28495SOL    HW287383  14.218  14.744  14.750
28496SOL     OW87384   9.895   6.616  14.256
28496SOL    HW187385   9.882   6.534  14.209
28496SOL    HW287386   9.905   6.682  14.187
28497SOL     OW87387  11.852   9.052   6.112
28497SOL    HW187388  11.862   9.016   6.024
28497SOL    HW287389  11.764   9.026   6.138
28498SOL     OW87390  14.345   4.993   6.444
28498SOL    HW187391  14.321   4.914   6.492
28498SOL    HW287392  14.440   5.001   6.457
28499SOL     OW87393   5.551   2.851  10.916
28499SOL    HW187394   5.548   2.888  10.828
28499SOL    HW287395   5.541   2.756  10.903
28500SOL     OW87396   9.982  13.490   1.040
28500SOL    HW187397  10.032  13.520   1.116
28500SOL    HW287398  10.019  13.405   1.018
28501SOL     OW87399   5.392  11.488  10.931
28501SOL    HW187400   5.427  11.570  10.897
28501SOL    HW287401   5.311  11.475  10.881
28502SOL     OW87402   7.256   1.211   0.368
28502SOL    HW187403   7.243   1.274   0.439
28502SOL    HW287404   7.193   1.142   0.386
28503SOL     OW87405   0.349   7.083  14.861
28503SOL    HW187406   0.418   7.090  14.795
28503SOL    HW287407   0.277   7.136  14.826
28504SOL     OW87408  14.080  13.978  11.771
28504SOL    HW187409  14.040  13.913  11.714
28504SOL    HW287410  14.065  13.944  11.860
28505SOL     OW87411   3.267   0.793  10.701
28505SOL    HW187412   3.229   0.770  10.616
28505SOL    HW287413   3.241   0.884  10.715
28506SOL     OW87414   3.036   0.665  12.160
28506SOL    HW187415   2.978   0.606  12.208
28506SOL    HW287416   3.032   0.634  12.070
28507SOL     OW87417   2.418   6.476   9.504
28507SOL    HW187418   2.435   6.418   9.578
28507SOL    HW287419   2.418   6.564   9.541
28508SOL     OW87420   0.748  10.451   9.217
28508SOL    HW187421   0.664  10.412   9.241
28508SOL    HW287422   0.762  10.424   9.126
28509SOL     OW87423  10.453   9.800   2.613
28509SOL    HW187424  10.549   9.807   2.614
28509SOL    HW287425  10.422   9.886   2.641
28510SOL     OW87426   8.612   9.097   7.058
28510SOL    HW187427   8.537   9.047   7.027
28510SOL    HW287428   8.649   9.138   6.980
28511SOL     OW87429   9.703   9.453   5.835
28511SOL    HW187430   9.653   9.390   5.783
28511SOL    HW287431   9.782   9.470   5.783
28512SOL     OW87432   5.165   8.531   6.920
28512SOL    HW187433   5.229   8.470   6.883
28512SOL    HW287434   5.152   8.500   7.010
28513SOL     OW87435   6.996   9.267   6.757
28513SOL    HW187436   7.082   9.310   6.755
28513SOL    HW287437   6.936   9.332   6.719
28514SOL     OW87438   1.737  12.326   5.406
28514SOL    HW187439   1.756  12.340   5.499
28514SOL    HW287440   1.823  12.313   5.366
28515SOL     OW87441  13.815   7.320   8.346
28515SOL    HW187442  13.813   7.284   8.257
28515SOL    HW287443  13.792   7.412   8.336
28516SOL     OW87444  11.191   7.463   2.540
28516SOL    HW187445  11.224   7.478   2.628
28516SOL    HW287446  11.099   7.437   2.552
28517SOL     OW87447   5.993  11.986   4.740
28517SOL    HW187448   5.934  11.913   4.719
28517SOL    HW287449   5.935  12.054   4.774
28518SOL     OW87450   8.983   0.721   5.288
28518SOL    HW187451   9.037   0.677   5.222
28518SOL    HW287452   9.009   0.681   5.371
28519SOL     OW87453   9.247   9.097   6.757
28519SOL    HW187454   9.249   9.073   6.850
28519SOL    HW287455   9.299   9.178   6.752
28520SOL     OW87456   0.621   7.864   1.252
28520SOL    HW187457   0.620   7.769   1.265
28520SOL    HW287458   0.662   7.876   1.166
28521SOL     OW87459   7.794   5.007   0.028
28521SOL    HW187460   7.809   4.917  14.873
28521SOL    HW287461   7.733   4.998   0.101
28522SOL     OW87462   4.211  13.703  11.642
28522SOL    HW187463   4.272  13.717  11.570
28522SOL    HW287464   4.254  13.639  11.699
28523SOL     OW87465   6.354  14.032   6.106
28523SOL    HW187466   6.305  13.985   6.174
28523SOL    HW287467   6.293  14.098   6.074
28524SOL     OW87468   3.388   7.009   7.198
28524SOL    HW187469   3.470   7.059   7.187
28524SOL    HW287470   3.396   6.968   7.284
28525SOL     OW87471   8.762   9.437   8.506
28525SOL    HW187472   8.702   9.446   8.580
28525SOL    HW287473   8.753   9.519   8.457
28526SOL     OW87474  13.072   3.207   5.102
28526SOL    HW187475  13.058   3.262   5.179
28526SOL    HW287476  13.167   3.193   5.100
28527SOL     OW87477   9.413   2.476  10.126
28527SOL    HW187478   9.448   2.424  10.198
28527SOL    HW287479   9.471   2.458  10.053
28528SOL     OW87480   6.720   6.217   8.502
28528SOL    HW187481   6.810   6.227   8.532
28528SOL    HW287482   6.701   6.124   8.513
28529SOL     OW87483   9.566  12.415  11.714
28529SOL    HW187484   9.603  12.497  11.748
28529SOL    HW287485   9.485  12.442  11.671
28530SOL     OW87486   4.023   7.767   1.154
28530SOL    HW187487   4.084   7.824   1.107
28530SOL    HW287488   3.957   7.744   1.089
28531SOL     OW87489  14.694   5.352   8.529
28531SOL    HW187490  14.667   5.434   8.488
28531SOL    HW287491  14.757   5.378   8.597
28532SOL     OW87492   1.017  14.663  13.239
28532SOL    HW187493   1.049  14.629  13.322
28532SOL    HW287494   1.088  14.717  13.206
28533SOL     OW87495   2.212   0.863   0.234
28533SOL    HW187496   2.119   0.868   0.211
28533SOL    HW287497   2.222   0.927   0.305
28534SOL     OW87498   1.585   2.849   0.873
28534SOL    HW187499   1.671   2.891   0.873
28534SOL    HW287500   1.592   2.779   0.938
28535SOL     OW87501   5.971   0.130   9.076
28535SOL    HW187502   5.946   0.043   9.105
28535SOL    HW287503   6.021   0.167   9.149
28536SOL     OW87504   9.560  10.019  10.706
28536SOL    HW187505   9.490  10.080  10.686
28536SOL    HW287506   9.641  10.066  10.684
28537SOL     OW87507   3.768   2.342  11.567
28537SOL    HW187508   3.831   2.384  11.626
28537SOL    HW287509   3.769   2.398  11.488
28538SOL     OW87510   6.657   2.803   0.760
28538SOL    HW187511   6.710   2.882   0.745
28538SOL    HW287512   6.597   2.800   0.685
28539SOL     OW87513  12.987   1.922  14.279
28539SOL    HW187514  12.962   1.859  14.347
28539SOL    HW287515  12.915   1.985  14.277
28540SOL     OW87516  12.667   0.626   0.109
28540SOL    HW187517  12.701   0.700   0.058
28540SOL    HW287518  12.739   0.602   0.168
28541SOL     OW87519   8.329   2.188   2.958
28541SOL    HW187520   8.270   2.194   3.033
28541SOL    HW287521   8.416   2.178   2.997
28542SOL     OW87522  14.140   5.498  12.307
28542SOL    HW187523  14.065   5.553  12.327
28542SOL    HW287524  14.114   5.410  12.335
28543SOL     OW87525  13.574  12.273  14.018
28543SOL    HW187526  13.527  12.272  14.102
28543SOL    HW287527  13.505  12.270  13.952
28544SOL     OW87528   6.783  13.158   6.584
28544SOL    HW187529   6.843  13.100   6.630
28544SOL    HW287530   6.784  13.240   6.635
28545SOL     OW87531   8.955  14.672   5.492
28545SOL    HW187532   8.992  14.690   5.405
28545SOL    HW287533   8.985  14.584   5.513
28546SOL     OW87534   6.086   6.730   9.450
28546SOL    HW187535   6.124   6.681   9.377
28546SOL    HW287536   5.995   6.701   9.453
28547SOL     OW87537   7.318   0.237   8.751
28547SOL    HW187538   7.284   0.161   8.799
28547SOL    HW287539   7.269   0.311   8.786
28548SOL     OW87540   3.045  10.678  14.753
28548SOL    HW187541   3.031  10.583  14.751
28548SOL    HW287542   3.140  10.689  14.757
28549SOL     OW87543   3.187   8.721  13.112
28549SOL    HW187544   3.137   8.788  13.066
28549SOL    HW287545   3.196   8.755  13.201
28550SOL     OW87546  13.835   8.398  14.268
28550SOL    HW187547  13.842   8.440  14.183
28550SOL    HW287548  13.750   8.354  14.267
28551SOL     OW87549  11.100   5.724   2.919
28551SOL    HW187550  11.005   5.715   2.911
28551SOL    HW287551  11.115   5.739   3.012
28552SOL     OW87552   7.044  11.756   8.929
28552SOL    HW187553   7.118  11.719   8.881
28552SOL    HW287554   6.967  11.720   8.886
28553SOL     OW87555  14.068  11.349  13.587
28553SOL    HW187556  14.026  11.320  13.669
28553SOL    HW287557  14.036  11.288  13.521
28554SOL     OW87558   9.167   9.809   8.260
28554SOL    HW187559   9.248   9.839   8.219
28554SOL    HW287560   9.146   9.728   8.214
28555SOL     OW87561  10.960   9.529   4.069
28555SOL    HW187562  10.924   9.492   4.151
28555SOL    HW287563  11.039   9.574   4.096
28556SOL     OW87564  14.719   3.493   6.205
28556SOL    HW187565  14.662   3.507   6.281
28556SOL    HW287566  14.757   3.578   6.188
28557SOL     OW87567  14.274  13.483  14.513
28557SOL    HW187568  14.240  13.393  14.519
28557SOL    HW287569  14.306  13.490  14.423
28558SOL     OW87570   2.793  10.683   5.286
28558SOL    HW187571   2.736  10.703   5.360
28558SOL    HW287572   2.842  10.764   5.270
28559SOL     OW87573   2.086   1.784  12.238
28559SOL    HW187574   2.105   1.794  12.332
28559SOL    HW287575   2.086   1.690  12.223
28560SOL     OW87576  12.185   1.967  10.668
28560SOL    HW187577  12.173   1.901  10.737
28560SOL    HW287578  12.135   1.932  10.593
28561SOL     OW87579   8.612   5.273   6.572
28561SOL    HW187580   8.623   5.236   6.660
28561SOL    HW287581   8.554   5.348   6.585
28562SOL     OW87582  10.396   5.695   6.039
28562SOL    HW187583  10.359   5.769   6.086
28562SOL    HW287584  10.477   5.729   6.000
28563SOL     OW87585   6.943   1.521   6.356
28563SOL    HW187586   6.990   1.605   6.356
28563SOL    HW287587   6.858   1.541   6.394
28564SOL     OW87588   4.113  13.869   6.801
28564SOL    HW187589   4.079  13.947   6.758
28564SOL    HW287590   4.035  13.821   6.830
28565SOL     OW87591  14.626   4.252   1.904
28565SOL    HW187592  14.667   4.225   1.986
28565SOL    HW287593  14.700   4.271   1.846
28566SOL     OW87594   8.821  10.214  12.939
28566SOL    HW187595   8.887  10.250  12.997
28566SOL    HW287596   8.758  10.172  12.997
28567SOL     OW87597  11.918   6.140   1.144
28567SOL    HW187598  11.908   6.086   1.222
28567SOL    HW287599  11.839   6.195   1.142
28568SOL     OW87600   5.524   4.553   1.604
28568SOL    HW187601   5.573   4.563   1.685
28568SOL    HW287602   5.448   4.500   1.628
28569SOL     OW87603   3.696   4.828   5.033
28569SOL    HW187604   3.652   4.820   4.948
28569SOL    HW287605   3.626   4.854   5.094
28570SOL     OW87606   5.877  10.622  13.147
28570SOL    HW187607   5.840  10.603  13.061
28570SOL    HW287608   5.819  10.690  13.183
28571SOL     OW87609  12.477   1.358  14.307
28571SOL    HW187610  12.555   1.413  14.298
28571SOL    HW287611  12.428   1.398  14.379
28572SOL     OW87612   5.460   3.345   3.400
28572SOL    HW187613   5.455   3.433   3.438
28572SOL    HW287614   5.506   3.358   3.317
28573SOL     OW87615   3.464  14.610   3.062
28573SOL    HW187616   3.425  14.672   3.001
28573SOL    HW287617   3.540  14.656   3.098
28574SOL     OW87618   3.488   9.981  14.551
28574SOL    HW187619   3.427  10.055  14.557
28574SOL    HW287620   3.439   9.913  14.505
28575SOL     OW87621   8.562  13.948   5.768
28575SOL    HW187622   8.635  14.000   5.734
28575SOL    HW287623   8.490  14.012   5.779
28576SOL     OW87624   2.565   2.546  11.432
28576SOL    HW187625   2.599   2.628  11.468
28576SOL    HW287626   2.471   2.561  11.421
28577SOL     OW87627   4.916   4.125   3.118
28577SOL    HW187628   4.832   4.080   3.109
28577SOL    HW287629   4.952   4.126   3.029
28578SOL     OW87630   4.557   0.122  14.652
28578SOL    HW187631   4.524   0.091  14.737
28578SOL    HW287632   4.567   0.043  14.599
28579SOL     OW87633  11.048   5.551  11.589
28579SOL    HW187634  11.036   5.595  11.673
28579SOL    HW287635  10.961   5.550  11.549
28580SOL     OW87636   5.100   1.169   3.318
28580SOL    HW187637   5.168   1.191   3.382
28580SOL    HW287638   5.145   1.172   3.233
28581SOL     OW87639   6.569   9.503  10.167
28581SOL    HW187640   6.546   9.451  10.091
28581SOL    HW287641   6.661   9.526  10.154
28582SOL     OW87642  14.489  13.799  12.645
28582SOL    HW187643  14.445  13.718  12.670
28582SOL    HW287644  14.538  13.777  12.566
28583SOL     OW87645   3.148   0.741   8.131
28583SOL    HW187646   3.124   0.650   8.147
28583SOL    HW287647   3.243   0.739   8.122
28584SOL     OW87648   0.916   2.274   9.516
28584SOL    HW187649   0.981   2.232   9.459
28584SOL    HW287650   0.939   2.366   9.516
28585SOL     OW87651   9.835   6.100  14.622
28585SOL    HW187652   9.921   6.095  14.664
28585SOL    HW287653   9.791   6.173  14.666
28586SOL     OW87654   0.233   8.841   6.180
28586SOL    HW187655   0.143   8.855   6.208
28586SOL    HW287656   0.249   8.748   6.193
28587SOL     OW87657  14.113   1.432   0.197
28587SOL    HW187658  14.155   1.490   0.260
28587SOL    HW287659  14.044   1.388   0.246
28588SOL     OW87660  10.473   3.717   6.536
28588SOL    HW187661  10.396   3.768   6.564
28588SOL    HW287662  10.518   3.694   6.617
28589SOL     OW87663   6.208   6.527   3.748
28589SOL    HW187664   6.116   6.534   3.772
28589SOL    HW287665   6.233   6.615   3.719
28590SOL     OW87666   0.665   5.265  13.867
28590SOL    HW187667   0.645   5.274  13.960
28590SOL    HW287668   0.732   5.331  13.851
28591SOL     OW87669   7.164  10.573   8.074
28591SOL    HW187670   7.089  10.551   8.019
28591SOL    HW287671   7.152  10.519   8.152
28592SOL     OW87672  12.190   6.902   1.724
28592SOL    HW187673  12.247   6.960   1.775
28592SOL    HW287674  12.108   6.951   1.714
28593SOL     OW87675  13.545  10.009   4.905
28593SOL    HW187676  13.462   9.973   4.875
28593SOL    HW287677  13.569   9.955   4.980
28594SOL     OW87678   3.637   5.943   2.305
28594SOL    HW187679   3.683   5.955   2.222
28594SOL    HW287680   3.702   5.963   2.372
28595SOL     OW87681   0.447  11.667  12.528
28595SOL    HW187682   0.380  11.603  12.505
28595SOL    HW287683   0.428  11.688  12.620
28596SOL     OW87684  12.225   9.293   1.562
28596SOL    HW187685  12.205   9.385   1.582
28596SOL    HW287686  12.271   9.262   1.640
28597SOL     OW87687   8.477  12.056  14.683
28597SOL    HW187688   8.486  12.134  14.629
28597SOL    HW287689   8.525  11.988  14.636
28598SOL     OW87690   2.740   6.327   5.318
28598SOL    HW187691   2.645   6.310   5.317
28598SOL    HW287692   2.779   6.240   5.325
28599SOL     OW87693  13.521   4.156   0.443
28599SOL    HW187694  13.525   4.251   0.454
28599SOL    HW287695  13.559   4.121   0.524
28600SOL     OW87696   9.593   0.680   6.665
28600SOL    HW187697   9.546   0.755   6.628
28600SOL    HW287698   9.530   0.636   6.721
28601SOL     OW87699  14.088   4.037   0.585
28601SOL    HW187700  14.065   4.008   0.674
28601SOL    HW287701  14.166   3.986   0.562
28602SOL     OW87702  13.132   7.202  11.844
28602SOL    HW187703  13.217   7.236  11.817
28602SOL    HW287704  13.104   7.147  11.771
28603SOL     OW87705   3.317   8.740  10.172
28603SOL    HW187706   3.397   8.778  10.208
28603SOL    HW287707   3.348   8.666  10.119
28604SOL     OW87708  12.337   8.599  14.029
28604SOL    HW187709  12.265   8.623  13.970
28604SOL    HW287710  12.415   8.634  13.987
28605SOL     OW87711  10.370   7.751   9.337
28605SOL    HW187712  10.313   7.712   9.271
28605SOL    HW287713  10.346   7.709   9.419
28606SOL     OW87714   3.013  13.475   3.010
28606SOL    HW187715   2.960  13.495   2.933
28606SOL    HW287716   3.089  13.533   3.003
28607SOL     OW87717   0.627   9.589  11.445
28607SOL    HW187718   0.602   9.568  11.535
28607SOL    HW287719   0.688   9.662  11.454
28608SOL     OW87720   7.860   0.207   1.563
28608SOL    HW187721   7.859   0.291   1.517
28608SOL    HW287722   7.822   0.145   1.501
28609SOL     OW87723   8.123  11.833   3.787
28609SOL    HW187724   8.132  11.875   3.702
28609SOL    HW287725   8.074  11.897   3.840
28610SOL     OW87726   9.735   9.609   3.788
28610SOL    HW187727   9.733   9.542   3.720
28610SOL    HW287728   9.662   9.587   3.846
28611SOL     OW87729  11.805  12.317  10.995
28611SOL    HW187730  11.811  12.263  10.916
28611SOL    HW287731  11.886  12.299  11.043
28612SOL     OW87732  14.444   7.933   4.741
28612SOL    HW187733  14.388   8.006   4.712
28612SOL    HW287734  14.391   7.855   4.726
28613SOL     OW87735  12.888  13.309   0.598
28613SOL    HW187736  12.925  13.221   0.600
28613SOL    HW287737  12.794  13.295   0.587
28614SOL     OW87738   3.895   9.149  10.421
28614SOL    HW187739   3.838   9.226  10.432
28614SOL    HW287740   3.887   9.126  10.328
28615SOL     OW87741   2.198   2.298   5.613
28615SOL    HW187742   2.237   2.254   5.538
28615SOL    HW287743   2.161   2.228   5.666
28616SOL     OW87744  14.723   6.110   2.813
28616SOL    HW187745  14.817   6.112   2.797
28616SOL    HW287746  14.685   6.153   2.736
28617SOL     OW87747   4.290   8.742   3.208
28617SOL    HW187748   4.385   8.727   3.204
28617SOL    HW287749   4.271   8.795   3.131
28618SOL     OW87750   8.096   0.229   6.218
28618SOL    HW187751   8.006   0.200   6.233
28618SOL    HW287752   8.147   0.148   6.216
28619SOL     OW87753  11.198  10.661   9.173
28619SOL    HW187754  11.182  10.567   9.185
28619SOL    HW287755  11.241  10.667   9.088
28620SOL     OW87756   1.117  11.649  12.383
28620SOL    HW187757   1.127  11.662  12.477
28620SOL    HW287758   1.165  11.722  12.344
28621SOL     OW87759   3.694   0.481   0.007
28621SOL    HW187760   3.728   0.396  14.856
28621SOL    HW287761   3.727   0.493   0.096
28622SOL     OW87762   3.707  12.427  14.330
28622SOL    HW187763   3.793  12.427  14.371
28622SOL    HW287764   3.682  12.519  14.324
28623SOL     OW87765  10.290   2.779  12.820
28623SOL    HW187766  10.309   2.812  12.732
28623SOL    HW287767  10.195   2.776  12.825
28624SOL     OW87768   9.085  11.624   3.264
28624SOL    HW187769   8.992  11.602   3.262
28624SOL    HW287770   9.104  11.656   3.176
28625SOL     OW87771   9.322  14.186   7.758
28625SOL    HW187772   9.283  14.225   7.680
28625SOL    HW287773   9.276  14.103   7.769
28626SOL     OW87774   4.968  13.195   6.790
28626SOL    HW187775   4.949  13.102   6.784
28626SOL    HW287776   5.022  13.204   6.868
28627SOL     OW87777  11.643   0.847  12.566
28627SOL    HW187778  11.679   0.863  12.479
28627SOL    HW287779  11.558   0.892  12.566
28628SOL     OW87780   9.376  14.371   1.373
28628SOL    HW187781   9.393  14.429   1.298
28628SOL    HW287782   9.300  14.319   1.346
28629SOL     OW87783   8.213  13.519  12.734
28629SOL    HW187784   8.266  13.597  12.714
28629SOL    HW287785   8.158  13.508  12.656
28630SOL     OW87786  11.986  11.100  13.440
28630SOL    HW187787  12.069  11.147  13.429
28630SOL    HW287788  12.012  11.011  13.463
28631SOL     OW87789   7.030   3.901   9.803
28631SOL    HW187790   7.035   3.905   9.898
28631SOL    HW287791   7.059   3.987   9.773
28632SOL     OW87792  11.245   1.761   5.488
28632SOL    HW187793  11.226   1.686   5.544
28632SOL    HW287794  11.274   1.723   5.405
28633SOL     OW87795  14.530   4.942   7.326
28633SOL    HW187796  14.556   5.028   7.357
28633SOL    HW287797  14.440   4.954   7.294
28634SOL     OW87798   4.168  12.684  11.159
28634SOL    HW187799   4.113  12.608  11.138
28634SOL    HW287800   4.109  12.758  11.154
28635SOL     OW87801   2.920   9.129   1.648
28635SOL    HW187802   2.853   9.106   1.713
28635SOL    HW287803   2.879   9.110   1.564
28636SOL     OW87804   1.970  12.522   2.453
28636SOL    HW187805   1.997  12.597   2.507
28636SOL    HW287806   2.021  12.530   2.373
28637SOL     OW87807   2.114  13.125   5.660
28637SOL    HW187808   2.126  13.199   5.720
28637SOL    HW287809   2.020  13.124   5.642
28638SOL     OW87810  13.023   1.434  14.231
28638SOL    HW187811  13.070   1.515  14.208
28638SOL    HW287812  13.070   1.365  14.184
28639SOL     OW87813   0.540  11.070   1.726
28639SOL    HW187814   0.464  11.092   1.672
28639SOL    HW287815   0.608  11.047   1.663
28640SOL     OW87816   2.868   3.706   7.058
28640SOL    HW187817   2.873   3.798   7.084
28640SOL    HW287818   2.925   3.699   6.981
28641SOL     OW87819   3.827  14.508  12.853
28641SOL    HW187820   3.754  14.531  12.911
28641SOL    HW287821   3.785  14.477  12.773
28642SOL     OW87822  13.012  14.348   7.280
28642SOL    HW187823  12.986  14.260   7.251
28642SOL    HW287824  12.986  14.352   7.372
28643SOL     OW87825   7.022   3.347   8.540
28643SOL    HW187826   7.066   3.285   8.598
28643SOL    HW287827   7.043   3.433   8.577
28644SOL     OW87828   2.682  10.381   4.955
28644SOL    HW187829   2.772  10.377   4.921
28644SOL    HW287830   2.681  10.316   5.025
28645SOL     OW87831  12.993  10.075  11.782
28645SOL    HW187832  12.932  10.122  11.837
28645SOL    HW287833  13.025  10.140  11.719
28646SOL     OW87834   5.607   3.949   4.835
28646SOL    HW187835   5.556   3.912   4.908
28646SOL    HW287836   5.588   3.890   4.761
28647SOL     OW87837   3.075   7.153   8.289
28647SOL    HW187838   3.038   7.238   8.313
28647SOL    HW287839   3.015   7.089   8.328
28648SOL     OW87840  10.020  11.964  13.988
28648SOL    HW187841  10.100  11.947  13.937
28648SOL    HW287842   9.949  11.950  13.925
28649SOL     OW87843   0.054   9.549   2.037
28649SOL    HW187844  14.867   9.502   1.981
28649SOL    HW287845   0.126   9.573   1.979
28650SOL     OW87846   3.057  12.583   9.959
28650SOL    HW187847   2.983  12.629   9.998
28650SOL    HW287848   3.061  12.499  10.005
28651SOL     OW87849  12.971   0.329  13.787
28651SOL    HW187850  12.967   0.415  13.828
28651SOL    HW287851  13.042   0.335  13.723
28652SOL     OW87852   4.358   1.184   8.529
28652SOL    HW187853   4.426   1.236   8.486
28652SOL    HW287854   4.319   1.132   8.459
28653SOL     OW87855  10.453   5.429  12.421
28653SOL    HW187856  10.530   5.383  12.454
28653SOL    HW287857  10.482   5.520  12.411
28654SOL     OW87858   1.984   3.373  14.237
28654SOL    HW187859   2.027   3.399  14.318
28654SOL    HW287860   1.917   3.440  14.222
28655SOL     OW87861  13.203   7.162   7.047
28655SOL    HW187862  13.268   7.144   6.980
28655SOL    HW287863  13.219   7.096   7.115
28656SOL     OW87864   2.059   5.041   8.598
28656SOL    HW187865   2.009   5.004   8.525
28656SOL    HW287866   2.103   5.117   8.560
28657SOL     OW87867   3.969   6.304   7.385
28657SOL    HW187868   4.046   6.356   7.409
28657SOL    HW287869   4.006   6.223   7.349
28658SOL     OW87870   9.491  11.367   0.229
28658SOL    HW187871   9.515  11.283   0.266
28658SOL    HW287872   9.548  11.430   0.273
28659SOL     OW87873   3.630   3.574   9.896
28659SOL    HW187874   3.667   3.487   9.880
28659SOL    HW287875   3.541   3.569   9.860
28660SOL     OW87876  10.034   0.703   0.221
28660SOL    HW187877   9.977   0.680   0.295
28660SOL    HW287878   9.976   0.749   0.160
28661SOL     OW87879   9.743   2.279   0.233
28661SOL    HW187880   9.662   2.247   0.274
28661SOL    HW287881   9.812   2.253   0.295
28662SOL     OW87882  14.513  11.291   8.401
28662SOL    HW187883  14.538  11.318   8.312
28662SOL    HW287884  14.550  11.358   8.458
28663SOL     OW87885  11.965  11.001  10.784
28663SOL    HW187886  11.906  10.925  10.781
28663SOL    HW287887  12.037  10.978  10.725
28664SOL     OW87888  10.888   7.263  13.949
28664SOL    HW187889  10.834   7.273  13.871
28664SOL    HW287890  10.834   7.297  14.020
28665SOL     OW87891   0.451  12.329   5.909
28665SOL    HW187892   0.501  12.401   5.870
28665SOL    HW287893   0.482  12.325   6.000
28666SOL     OW87894  10.274  14.173  12.761
28666SOL    HW187895  10.324  14.165  12.842
28666SOL    HW287896  10.338  14.200  12.695
28667SOL     OW87897  14.184   7.280   7.044
28667SOL    HW187898  14.235   7.257   6.966
28667SOL    HW287899  14.214   7.219   7.111
28668SOL     OW87900  11.418   4.414   2.297
28668SOL    HW187901  11.467   4.494   2.280
28668SOL    HW287902  11.353   4.410   2.226
28669SOL     OW87903  13.363  13.378   1.060
28669SOL    HW187904  13.270  13.390   1.041
28669SOL    HW287905  13.376  13.283   1.059
28670SOL     OW87906   7.639   6.024   7.116
28670SOL    HW187907   7.731   6.050   7.108
28670SOL    HW287908   7.590   6.097   7.078
28671SOL     OW87909   8.204   4.360  10.654
28671SOL    HW187910   8.188   4.440  10.704
28671SOL    HW287911   8.259   4.387  10.581
28672SOL     OW87912   7.444   7.769   2.711
28672SOL    HW187913   7.430   7.831   2.640
28672SOL    HW287914   7.422   7.684   2.673
28673SOL     OW87915   4.795   0.372   9.711
28673SOL    HW187916   4.867   0.417   9.667
28673SOL    HW287917   4.772   0.301   9.651
28674SOL     OW87918   1.210   1.251   3.321
28674SOL    HW187919   1.262   1.194   3.264
28674SOL    HW287920   1.272   1.283   3.387
28675SOL     OW87921  13.112   1.103   9.023
28675SOL    HW187922  13.091   1.043   9.094
28675SOL    HW287923  13.118   1.047   8.945
28676SOL     OW87924  10.145   7.464   7.944
28676SOL    HW187925  10.204   7.528   7.985
28676SOL    HW287926  10.129   7.500   7.856
28677SOL     OW87927   6.081   3.103   3.435
28677SOL    HW187928   6.043   3.016   3.443
28677SOL    HW287929   6.071   3.142   3.522
28678SOL     OW87930   6.737   3.016   7.010
28678SOL    HW187931   6.820   2.970   7.023
28678SOL    HW287932   6.741   3.049   6.921
28679SOL     OW87933   8.292  10.071   3.383
28679SOL    HW187934   8.201  10.060   3.408
28679SOL    HW287935   8.289  10.108   3.295
28680SOL     OW87936  11.872   4.319   3.775
28680SOL    HW187937  11.798   4.335   3.717
28680SOL    HW287938  11.879   4.223   3.780
28681SOL     OW87939  10.235   5.302   0.572
28681SOL    HW187940  10.288   5.223   0.567
28681SOL    HW287941  10.290   5.366   0.617
28682SOL     OW87942   6.763   3.669  12.866
28682SOL    HW187943   6.790   3.621  12.788
28682SOL    HW287944   6.844   3.707  12.900
28683SOL     OW87945  11.503  13.937  14.078
28683SOL    HW187946  11.521  13.965  13.988
28683SOL    HW287947  11.407  13.938  14.084
28684SOL     OW87948  10.332   1.636  11.843
28684SOL    HW187949  10.289   1.721  11.845
28684SOL    HW287950  10.406   1.648  11.784
28685SOL     OW87951   4.062   7.576  10.467
28685SOL    HW187952   3.986   7.609  10.418
28685SOL    HW287953   4.092   7.501  10.416
28686SOL     OW87954  10.968   9.647  11.258
28686SOL    HW187955  11.058   9.630  11.284
28686SOL    HW287956  10.943   9.570  11.208
28687SOL     OW87957   6.950   5.864   7.269
28687SOL    HW187958   6.867   5.895   7.306
28687SOL    HW287959   7.017   5.918   7.310
28688SOL     OW87960   0.652  14.186  12.782
28688SOL    HW187961   0.584  14.201  12.848
28688SOL    HW287962   0.733  14.212  12.825
28689SOL     OW87963  10.981   5.145  13.966
28689SOL    HW187964  10.920   5.072  13.982
28689SOL    HW287965  11.067   5.104  13.962
28690SOL     OW87966   6.685  11.728   9.533
28690SOL    HW187967   6.642  11.794   9.587
28690SOL    HW287968   6.679  11.761   9.444
28691SOL     OW87969   7.191   2.199   9.439
28691SOL    HW187970   7.278   2.228   9.467
28691SOL    HW287971   7.144   2.280   9.419
28692SOL     OW87972  13.384   0.815   6.612
28692SOL    HW187973  13.306   0.801   6.666
28692SOL    HW287974  13.376   0.904   6.579
28693SOL     OW87975   4.094  11.329   0.191
28693SOL    HW187976   4.085  11.346   0.284
28693SOL    HW287977   4.013  11.286   0.165
28694SOL     OW87978   8.420  10.172   4.979
28694SOL    HW187979   8.370  10.249   4.953
28694SOL    HW287980   8.369  10.098   4.945
28695SOL     OW87981   9.689  10.091   7.080
28695SOL    HW187982   9.730  10.065   7.162
28695SOL    HW287983   9.714  10.183   7.069
28696SOL     OW87984   2.884   0.563   7.993
28696SOL    HW187985   2.941   0.501   8.038
28696SOL    HW287986   2.821   0.509   7.946
28697SOL     OW87987   1.977   6.590  14.291
28697SOL    HW187988   1.947   6.557  14.375
28697SOL    HW287989   1.935   6.534  14.226
28698SOL     OW87990   5.651  14.423  11.817
28698SOL    HW187991   5.736  14.411  11.858
28698SOL    HW287992   5.621  14.509  11.847
28699SOL     OW87993   6.486   1.203   1.795
28699SOL    HW187994   6.423   1.202   1.868
28699SOL    HW287995   6.458   1.278   1.742
28700SOL     OW87996   8.664   8.880   2.163
28700SOL    HW187997   8.687   8.889   2.071
28700SOL    HW287998   8.686   8.965   2.202
28701SOL     OW87999  11.025  12.864  11.555
28701SOL    HW188000  11.004  12.864  11.648
28701SOL    HW288001  11.084  12.789  11.544
28702SOL     OW88002   5.346   5.157   5.195
28702SOL    HW188003   5.346   5.080   5.139
28702SOL    HW288004   5.421   5.144   5.254
28703SOL     OW88005  10.410   6.914   0.062
28703SOL    HW188006  10.368   6.969   0.128
28703SOL    HW288007  10.356   6.835   0.058
28704SOL     OW88008   5.763   4.445   3.796
28704SOL    HW188009   5.854   4.455   3.768
28704SOL    HW288010   5.723   4.530   3.779
28705SOL     OW88011   7.843   2.251   7.346
28705SOL    HW188012   7.803   2.335   7.323
28705SOL    HW288013   7.925   2.275   7.389
28706SOL     OW88014   5.538   2.612   3.093
28706SOL    HW188015   5.605   2.653   3.147
28706SOL    HW288016   5.585   2.547   3.041
28707SOL     OW88017   9.007   7.462  11.618
28707SOL    HW188018   8.988   7.459  11.712
28707SOL    HW288019   9.055   7.382  11.600
28708SOL     OW88020   7.949   6.034  13.969
28708SOL    HW188021   8.013   5.974  13.929
28708SOL    HW288022   7.865   5.990  13.959
28709SOL     OW88023   9.410   1.983  14.190
28709SOL    HW188024   9.381   2.068  14.156
28709SOL    HW288025   9.494   2.001  14.231
28710SOL     OW88026  11.785   4.905   2.016
28710SOL    HW188027  11.737   4.920   1.934
28710SOL    HW288028  11.863   4.961   2.008
28711SOL     OW88029   8.803   2.087  13.550
28711SOL    HW188030   8.894   2.058  13.548
28711SOL    HW288031   8.760   2.038  13.480
28712SOL     OW88032   7.266   0.225   2.346
28712SOL    HW188033   7.325   0.178   2.287
28712SOL    HW288034   7.321   0.247   2.421
28713SOL     OW88035   3.707   9.127   6.354
28713SOL    HW188036   3.771   9.185   6.394
28713SOL    HW288037   3.642   9.111   6.422
28714SOL     OW88038  14.754   8.908   1.011
28714SOL    HW188039  14.751   8.995   1.052
28714SOL    HW288040  14.681   8.908   0.949
28715SOL     OW88041   5.010  11.607  12.278
28715SOL    HW188042   5.099  11.613  12.314
28715SOL    HW288043   5.002  11.684  12.222
28716SOL     OW88044  11.760   2.155   7.964
28716SOL    HW188045  11.828   2.156   7.896
28716SOL    HW288046  11.808   2.151   8.046
28717SOL     OW88047  14.684  11.148  11.011
28717SOL    HW188048  14.710  11.176  11.099
28717SOL    HW288049  14.681  11.228  10.959
28718SOL     OW88050   2.820  12.150   9.610
28718SOL    HW188051   2.857  12.190   9.532
28718SOL    HW288052   2.734  12.192   9.619
28719SOL     OW88053  13.209   3.589   4.904
28719SOL    HW188054  13.114   3.589   4.905
28719SOL    HW288055  13.235   3.581   4.996
28720SOL     OW88056   6.824  13.784  13.841
28720SOL    HW188057   6.783  13.821  13.763
28720SOL    HW288058   6.758  13.725  13.876
28721SOL     OW88059   4.564   8.877  11.909
28721SOL    HW188060   4.645   8.919  11.937
28721SOL    HW288061   4.500   8.949  11.906
28722SOL     OW88062   9.980   8.631   5.377
28722SOL    HW188063   9.945   8.719   5.389
28722SOL    HW288064  10.033   8.637   5.297
28723SOL     OW88065   2.281   1.819   0.313
28723SOL    HW188066   2.373   1.832   0.336
28723SOL    HW288067   2.258   1.736   0.354
28724SOL     OW88068  14.465  14.179   0.566
28724SOL    HW188069  14.471  14.274   0.564
28724SOL    HW288070  14.555  14.149   0.555
28725SOL     OW88071   2.296  14.513  12.327
28725SOL    HW188072   2.358  14.552  12.389
28725SOL    HW288073   2.317  14.420  12.326
28726SOL     OW88074   5.788   3.427  13.865
28726SOL    HW188075   5.713   3.486  13.874
28726SOL    HW288076   5.775   3.384  13.780
28727SOL     OW88077   6.636  14.493   8.826
28727SOL    HW188078   6.719  14.461   8.861
28727SOL    HW288079   6.606  14.558   8.891
28728SOL     OW88080   6.945   7.198   4.498
28728SOL    HW188081   7.036   7.176   4.514
28728SOL    HW288082   6.904   7.195   4.584
28729SOL     OW88083  13.641   4.289   2.849
28729SOL    HW188084  13.613   4.368   2.894
28729SOL    HW288085  13.560   4.243   2.827
28730SOL     OW88086  11.997  12.394   0.513
28730SOL    HW188087  11.961  12.412   0.427
28730SOL    HW288088  11.922  12.399   0.572
28731SOL     OW88089  12.125   4.382   3.193
28731SOL    HW188090  12.207   4.408   3.152
28731SOL    HW288091  12.143   4.387   3.287
28732SOL     OW88092   5.894  10.477  10.348
28732SOL    HW188093   5.937  10.440  10.425
28732SOL    HW288094   5.927  10.427  10.274
28733SOL     OW88095  14.624   2.392   5.596
28733SOL    HW188096  14.535   2.385   5.630
28733SOL    HW288097  14.663   2.306   5.610
28734SOL     OW88098  11.582   3.720  10.255
28734SOL    HW188099  11.550   3.724  10.164
28734SOL    HW288100  11.513   3.672  10.301
28735SOL     OW88101   4.398   2.450   0.093
28735SOL    HW188102   4.386   2.544   0.078
28735SOL    HW288103   4.327   2.408   0.044
28736SOL     OW88104  14.837  12.043   6.758
28736SOL    HW188105   0.007  12.076   6.835
28736SOL    HW288106  14.858  11.950   6.754
28737SOL     OW88107   2.100   2.698   2.126
28737SOL    HW188108   2.169   2.739   2.178
28737SOL    HW288109   2.123   2.605   2.125
28738SOL     OW88110   7.835  14.699  14.224
28738SOL    HW188111   7.928  14.716  14.235
28738SOL    HW288112   7.827  14.604  14.232
28739SOL     OW88113  12.603  11.973   8.380
28739SOL    HW188114  12.680  12.004   8.428
28739SOL    HW288115  12.537  12.041   8.395
28740SOL     OW88116  12.851   5.984   1.723
28740SOL    HW188117  12.866   6.076   1.746
28740SOL    HW288118  12.936   5.954   1.691
28741SOL     OW88119   7.796  13.927   2.746
28741SOL    HW188120   7.887  13.946   2.725
28741SOL    HW288121   7.761  13.891   2.664
28742SOL     OW88122   1.041   6.917  12.741
28742SOL    HW188123   1.074   7.006  12.726
28742SOL    HW288124   1.119   6.867  12.766
28743SOL     OW88125   8.633  11.376  10.095
28743SOL    HW188126   8.585  11.399  10.015
28743SOL    HW288127   8.573  11.397  10.166
28744SOL     OW88128  11.593  12.260   8.302
28744SOL    HW188129  11.579  12.265   8.207
28744SOL    HW288130  11.683  12.289   8.314
28745SOL     OW88131   8.446   7.974   5.524
28745SOL    HW188132   8.383   7.902   5.516
28745SOL    HW288133   8.431   8.028   5.447
28746SOL     OW88134   2.401   7.531   0.394
28746SOL    HW188135   2.464   7.603   0.386
28746SOL    HW288136   2.332   7.566   0.451
28747SOL     OW88137  13.567   2.250   0.303
28747SOL    HW188138  13.647   2.299   0.285
28747SOL    HW288139  13.594   2.158   0.303
28748SOL     OW88140  10.463  11.550  10.627
28748SOL    HW188141  10.518  11.628  10.631
28748SOL    HW288142  10.376  11.580  10.655
28749SOL     OW88143   5.598   2.600  10.430
28749SOL    HW188144   5.521   2.567  10.383
28749SOL    HW288145   5.670   2.547  10.399
28750SOL     OW88146   9.513   0.026   4.227
28750SOL    HW188147   9.589   0.079   4.202
28750SOL    HW288148   9.536  14.864   4.312
28751SOL     OW88149   3.657   4.961  14.589
28751SOL    HW188150   3.740   4.993  14.554
28751SOL    HW288151   3.665   4.972  14.684
28752SOL     OW88152   8.661   9.518   1.707
28752SOL    HW188153   8.636   9.447   1.647
28752SOL    HW288154   8.599   9.588   1.688
28753SOL     OW88155  13.264  14.546   1.243
28753SOL    HW188156  13.257  14.508   1.331
28753SOL    HW288157  13.219  14.631   1.251
28754SOL     OW88158  10.101  12.030   1.057
28754SOL    HW188159  10.155  12.036   0.978
28754SOL    HW288160  10.025  11.978   1.029
28755SOL     OW88161   7.577   2.526   0.085
28755SOL    HW188162   7.483   2.527   0.106
28755SOL    HW288163   7.590   2.445   0.037
28756SOL     OW88164   7.588   7.191  14.762
28756SOL    HW188165   7.543   7.260  14.812
28756SOL    HW288166   7.525   7.120  14.757
28757SOL     OW88167   6.635   9.013  11.445
28757SOL    HW188168   6.639   8.921  11.419
28757SOL    HW288169   6.645   9.011  11.540
28758SOL     OW88170  12.704  12.356   6.536
28758SOL    HW188171  12.723  12.447   6.560
28758SOL    HW288172  12.610  12.346   6.553
28759SOL     OW88173  12.237   1.736   8.866
28759SOL    HW188174  12.321   1.696   8.843
28759SOL    HW288175  12.214   1.694   8.949
28760SOL     OW88176   8.971   5.217   5.757
28760SOL    HW188177   8.937   5.197   5.844
28760SOL    HW288178   9.025   5.142   5.734
28761SOL     OW88179   4.577   3.229   5.561
28761SOL    HW188180   4.523   3.159   5.526
28761SOL    HW288181   4.564   3.225   5.655
28762SOL     OW88182   7.649   3.906  13.594
28762SOL    HW188183   7.701   3.880  13.517
28762SOL    HW288184   7.632   4.000  13.580
28763SOL     OW88185  12.168   9.630   1.969
28763SOL    HW188186  12.227   9.579   2.025
28763SOL    HW288187  12.134   9.699   2.027
28764SOL     OW88188   4.408   8.786  14.179
28764SOL    HW188189   4.421   8.878  14.154
28764SOL    HW288190   4.454   8.736  14.111
28765SOL     OW88191   3.134   3.352   3.153
28765SOL    HW188192   3.119   3.310   3.238
28765SOL    HW288193   3.201   3.418   3.170
28766SOL     OW88194   7.451   6.322   6.006
28766SOL    HW188195   7.442   6.259   6.077
28766SOL    HW288196   7.373   6.377   6.013
28767SOL     OW88197   3.783  11.311   6.280
28767SOL    HW188198   3.850  11.346   6.221
28767SOL    HW288199   3.813  11.336   6.367
28768SOL     OW88200   8.851   2.379   9.035
28768SOL    HW188201   8.859   2.343   9.124
28768SOL    HW288202   8.862   2.303   8.978
28769SOL     OW88203   4.265   9.189   6.354
28769SOL    HW188204   4.298   9.129   6.420
28769SOL    HW288205   4.230   9.132   6.285
28770SOL     OW88206  11.499   8.206   3.046
28770SOL    HW188207  11.531   8.225   3.134
28770SOL    HW288208  11.517   8.286   2.996
28771SOL     OW88209  13.837  14.748   2.621
28771SOL    HW188210  13.784  14.669   2.632
28771SOL    HW288211  13.859  14.749   2.528
28772SOL     OW88212   1.168   2.602  14.014
28772SOL    HW188213   1.250   2.571  14.054
28772SOL    HW288214   1.194   2.677  13.961
28773SOL     OW88215  10.265   8.704   3.960
28773SOL    HW188216  10.332   8.758   3.918
28773SOL    HW288217  10.296   8.614   3.950
28774SOL     OW88218   0.501   9.453  10.181
28774SOL    HW188219   0.520   9.535  10.135
28774SOL    HW288220   0.410   9.461  10.209
28775SOL     OW88221   9.586   8.416   9.042
28775SOL    HW188222   9.537   8.447   9.118
28775SOL    HW288223   9.540   8.454   8.967
28776SOL     OW88224   0.806   6.479  12.538
28776SOL    HW188225   0.831   6.562  12.578
28776SOL    HW288226   0.763   6.504  12.457
28777SOL     OW88227   1.498   5.700   4.611
28777SOL    HW188228   1.578   5.705   4.663
28777SOL    HW288229   1.430   5.675   4.674
28778SOL     OW88230   1.715  10.750   7.909
28778SOL    HW188231   1.733  10.676   7.967
28778SOL    HW288232   1.659  10.713   7.840
28779SOL     OW88233   1.294   1.440   1.945
28779SOL    HW188234   1.305   1.457   1.851
28779SOL    HW288235   1.250   1.356   1.950
28780SOL     OW88236   4.148   2.538   9.345
28780SOL    HW188237   4.080   2.522   9.280
28780SOL    HW288238   4.175   2.451   9.374
28781SOL     OW88239   0.306  12.204   3.584
28781SOL    HW188240   0.395  12.172   3.569
28781SOL    HW288241   0.310  12.248   3.669
28782SOL     OW88242  10.403   8.584   2.478
28782SOL    HW188243  10.423   8.618   2.565
28782SOL    HW288244  10.489   8.577   2.435
28783SOL     OW88245   3.896  12.499   1.398
28783SOL    HW188246   3.857  12.464   1.478
28783SOL    HW288247   3.945  12.576   1.427
28784SOL     OW88248   7.432   3.417  10.184
28784SOL    HW188249   7.431   3.488  10.248
28784SOL    HW288250   7.502   3.440  10.123
28785SOL     OW88251  13.309   7.069   8.132
28785SOL    HW188252  13.255   7.145   8.154
28785SOL    HW288253  13.276   7.040   8.047
28786SOL     OW88254   7.328  13.223  10.303
28786SOL    HW188255   7.409  13.274  10.307
28786SOL    HW288256   7.264  13.283  10.264
28787SOL     OW88257   0.798   7.950   1.810
28787SOL    HW188258   0.764   7.879   1.756
28787SOL    HW288259   0.799   7.914   1.899
28788SOL     OW88260   7.595  11.094  11.449
28788SOL    HW188261   7.594  11.187  11.471
28788SOL    HW288262   7.668  11.058  11.501
28789SOL     OW88263   6.979  14.331  13.966
28789SOL    HW188264   7.005  14.330  13.874
28789SOL    HW288265   6.999  14.243  13.998
28790SOL     OW88266   2.896   4.240   8.474
28790SOL    HW188267   2.966   4.177   8.487
28790SOL    HW288268   2.839   4.229   8.550
28791SOL     OW88269   1.692  10.675  13.601
28791SOL    HW188270   1.750  10.717  13.539
28791SOL    HW288271   1.747  10.656  13.677
28792SOL     OW88272   5.626   9.244   9.614
28792SOL    HW188273   5.539   9.282   9.627
28792SOL    HW288274   5.684   9.320   9.605
28793SOL     OW88275   6.046   1.628   0.738
28793SOL    HW188276   6.009   1.717   0.740
28793SOL    HW288277   6.005   1.587   0.662
28794SOL     OW88278  12.151   0.058   2.735
28794SOL    HW188279  12.213   0.120   2.696
28794SOL    HW288280  12.191  14.847   2.719
28795SOL     OW88281   0.356   7.878   5.339
28795SOL    HW188282   0.289   7.946   5.344
28795SOL    HW288283   0.411   7.903   5.265
28796SOL     OW88284   4.082  12.737   3.554
28796SOL    HW188285   4.109  12.687   3.478
28796SOL    HW288286   4.114  12.688   3.629
28797SOL     OW88287   1.686   7.233   0.092
28797SOL    HW188288   1.763   7.225   0.147
28797SOL    HW288289   1.701   7.311   0.039
28798SOL     OW88290  12.057   8.826  11.048
28798SOL    HW188291  12.127   8.857  11.106
28798SOL    HW288292  12.070   8.874  10.966
28799SOL     OW88293  12.330   4.565  11.883
28799SOL    HW188294  12.418   4.570  11.920
28799SOL    HW288295  12.305   4.656  11.868
28800SOL     OW88296   7.185   7.809   1.787
28800SOL    HW188297   7.123   7.864   1.738
28800SOL    HW288298   7.255   7.791   1.724
28801SOL     OW88299   2.886  10.340   5.294
28801SOL    HW188300   2.875  10.348   5.389
28801SOL    HW288301   2.811  10.289   5.265
28802SOL     OW88302   9.340   3.369   4.956
28802SOL    HW188303   9.356   3.294   4.899
28802SOL    HW288304   9.244   3.375   4.961
28803SOL     OW88305   8.613   2.777   7.089
28803SOL    HW188306   8.617   2.795   6.996
28803SOL    HW288307   8.520   2.767   7.108
28804SOL     OW88308   2.773   0.037   9.383
28804SOL    HW188309   2.809   0.116   9.344
28804SOL    HW288310   2.836  14.843   9.362
28805SOL     OW88311  11.574   3.532   7.640
28805SOL    HW188312  11.589   3.456   7.697
28805SOL    HW288313  11.618   3.509   7.558
28806SOL     OW88314  11.277  13.057  13.931
28806SOL    HW188315  11.249  13.022  14.015
28806SOL    HW288316  11.196  13.089  13.890
28807SOL     OW88317   6.573  10.717   8.857
28807SOL    HW188318   6.609  10.790   8.806
28807SOL    HW288319   6.478  10.726   8.847
28808SOL     OW88320   4.875   6.985   7.569
28808SOL    HW188321   4.883   6.945   7.482
28808SOL    HW288322   4.943   6.943   7.621
28809SOL     OW88323  11.078  12.447   1.338
28809SOL    HW188324  11.105  12.385   1.270
28809SOL    HW288325  11.070  12.531   1.293
28810SOL     OW88326  13.701   5.358   8.677
28810SOL    HW188327  13.719   5.285   8.736
28810SOL    HW288328  13.779   5.413   8.683
28811SOL     OW88329  11.664  13.057  12.167
28811SOL    HW188330  11.635  13.106  12.090
28811SOL    HW288331  11.757  13.079  12.176
28812SOL     OW88332  13.120   3.171   7.730
28812SOL    HW188333  13.203   3.140   7.694
28812SOL    HW288334  13.053   3.130   7.676
28813SOL     OW88335   8.150   4.114  10.798
28813SOL    HW188336   8.239   4.088  10.821
28813SOL    HW288337   8.157   4.206  10.773
28814SOL     OW88338   2.674  14.289   5.226
28814SOL    HW188339   2.656  14.382   5.214
28814SOL    HW288340   2.629  14.266   5.307
28815SOL     OW88341  10.181  14.088   3.629
28815SOL    HW188342  10.269  14.070   3.598
28815SOL    HW288343  10.185  14.178   3.661
28816SOL     OW88344  14.309   0.006   2.201
28816SOL    HW188345  14.383  14.834   2.163
28816SOL    HW288346  14.289  14.833   2.282
28817SOL     OW88347   1.905   1.898  14.545
28817SOL    HW188348   1.898   1.992  14.560
28817SOL    HW288349   1.955   1.865  14.620
28818SOL     OW88350   6.556   7.499   8.494
28818SOL    HW188351   6.482   7.445   8.465
28818SOL    HW288352   6.570   7.473   8.585
28819SOL     OW88353  14.626   6.701  14.317
28819SOL    HW188354  14.714   6.670  14.341
28819SOL    HW288355  14.642   6.772  14.255
28820SOL     OW88356   6.979  14.511   2.402
28820SOL    HW188357   6.989  14.442   2.468
28820SOL    HW288358   7.067  14.522   2.366
28821SOL     OW88359  11.014   7.654   2.857
28821SOL    HW188360  11.056   7.679   2.940
28821SOL    HW288361  11.071   7.587   2.821
28822SOL     OW88362  11.980   9.760   0.326
28822SOL    HW188363  11.944   9.764   0.414
28822SOL    HW288364  12.072   9.783   0.336
28823SOL     OW88365  14.572   5.096   8.197
28823SOL    HW188366  14.562   5.005   8.168
28823SOL    HW288367  14.491   5.114   8.246
28824SOL     OW88368   1.411   1.820   0.650
28824SOL    HW188369   1.442   1.825   0.559
28824SOL    HW288370   1.316   1.817   0.643
28825SOL     OW88371   9.295  11.034   7.082
28825SOL    HW188372   9.388  11.031   7.106
28825SOL    HW288373   9.249  11.007   7.162
28826SOL     OW88374   0.930  12.326   3.295
28826SOL    HW188375   0.852  12.366   3.256
28826SOL    HW288376   0.995  12.396   3.297
28827SOL     OW88377  10.539   6.994   8.409
28827SOL    HW188378  10.581   7.075   8.440
28827SOL    HW288379  10.500   6.956   8.488
28828SOL     OW88380  11.904   3.793   1.602
28828SOL    HW188381  11.908   3.889   1.610
28828SOL    HW288382  11.865   3.764   1.685
28829SOL     OW88383  10.181  12.829   2.274
28829SOL    HW188384  10.165  12.845   2.181
28829SOL    HW288385  10.230  12.905   2.304
28830SOL     OW88386  14.051   8.142   6.094
28830SOL    HW188387  13.960   8.124   6.118
28830SOL    HW288388  14.082   8.060   6.056
28831SOL     OW88389   9.765   3.642   6.222
28831SOL    HW188390   9.787   3.561   6.268
28831SOL    HW288391   9.688   3.621   6.170
28832SOL     OW88392   4.654   7.324  11.076
28832SOL    HW188393   4.744   7.355  11.073
28832SOL    HW288394   4.644   7.284  11.162
28833SOL     OW88395   5.449   0.634   6.349
28833SOL    HW188396   5.379   0.611   6.289
28833SOL    HW288397   5.519   0.571   6.330
28834SOL     OW88398   9.402   7.607  12.149
28834SOL    HW188399   9.398   7.685  12.094
28834SOL    HW288400   9.326   7.615  12.207
28835SOL     OW88401   4.601   9.777   8.537
28835SOL    HW188402   4.597   9.733   8.452
28835SOL    HW288403   4.640   9.713   8.596
28836SOL     OW88404  11.947   4.590   2.268
28836SOL    HW188405  11.880   4.530   2.300
28836SOL    HW288406  12.027   4.538   2.263
28837SOL     OW88407   9.106   5.086   7.877
28837SOL    HW188408   9.151   5.093   7.961
28837SOL    HW288409   9.028   5.141   7.887
28838SOL     OW88410   1.375  13.489   0.953
28838SOL    HW188411   1.348  13.564   1.006
28838SOL    HW288412   1.402  13.423   1.018
28839SOL     OW88413   1.525   4.374   9.349
28839SOL    HW188414   1.568   4.458   9.337
28839SOL    HW288415   1.591   4.309   9.325
28840SOL     OW88416  10.819  12.888   7.726
28840SOL    HW188417  10.787  12.972   7.759
28840SOL    HW288418  10.871  12.852   7.798
28841SOL     OW88419   5.846  13.102  10.754
28841SOL    HW188420   5.824  13.060  10.837
28841SOL    HW288421   5.791  13.058  10.690
28842SOL     OW88422   2.937  14.699   0.442
28842SOL    HW188423   2.963  14.663   0.527
28842SOL    HW288424   3.012  14.751   0.414
28843SOL     OW88425  11.541   4.035  14.177
28843SOL    HW188426  11.562   3.966  14.240
28843SOL    HW288427  11.619   4.039  14.121
28844SOL     OW88428   5.667   9.020   6.041
28844SOL    HW188429   5.615   8.982   5.970
28844SOL    HW288430   5.739   8.959   6.054
28845SOL     OW88431  12.609   5.998  11.008
28845SOL    HW188432  12.674   5.971  10.944
28845SOL    HW288433  12.558   6.066  10.964
28846SOL     OW88434   0.560   8.006   6.953
28846SOL    HW188435   0.472   7.995   6.918
28846SOL    HW288436   0.607   8.055   6.886
28847SOL     OW88437   3.962   6.632   0.565
28847SOL    HW188438   3.980   6.574   0.491
28847SOL    HW288439   3.877   6.602   0.598
28848SOL     OW88440   8.111  13.688  11.061
28848SOL    HW188441   8.136  13.617  11.002
28848SOL    HW288442   8.116  13.649  11.148
28849SOL     OW88443   0.126   3.235  14.806
28849SOL    HW188444   0.034   3.213  14.792
28849SOL    HW288445   0.137   3.235   0.026
28850SOL     OW88446   5.221   0.312   8.529
28850SOL    HW188447   5.139   0.263   8.535
28850SOL    HW288448   5.261   0.282   8.448
28851SOL     OW88449   4.497   8.148   4.901
28851SOL    HW188450   4.517   8.206   4.827
28851SOL    HW288451   4.410   8.176   4.930
28852SOL     OW88452  12.926   3.070  10.373
28852SOL    HW188453  12.964   3.112  10.450
28852SOL    HW288454  12.986   3.091  10.302
28853SOL     OW88455   7.420   9.534  14.515
28853SOL    HW188456   7.428   9.533  14.611
28853SOL    HW288457   7.423   9.442  14.490
28854SOL     OW88458   4.690  13.316   7.212
28854SOL    HW188459   4.639  13.397   7.210
28854SOL    HW288460   4.624  13.246   7.212
28855SOL     OW88461   8.161   9.158   2.889
28855SOL    HW188462   8.153   9.073   2.846
28855SOL    HW288463   8.246   9.191   2.862
28856SOL     OW88464   0.417  14.113   0.678
28856SOL    HW188465   0.466  14.137   0.756
28856SOL    HW288466   0.326  14.109   0.706
28857SOL     OW88467   2.080   4.477   7.241
28857SOL    HW188468   2.002   4.479   7.295
28857SOL    HW288469   2.114   4.567   7.244
28858SOL     OW88470   0.425  14.853   3.356
28858SOL    HW188471   0.419  14.807   3.440
28858SOL    HW288472   0.472   0.059   3.376
28859SOL     OW88473   4.709   0.015   4.462
28859SOL    HW188474   4.738   0.007   4.552
28859SOL    HW288475   4.673   0.104   4.455
28860SOL     OW88476  12.029   9.715   8.219
28860SOL    HW188477  12.015   9.677   8.305
28860SOL    HW288478  12.118   9.751   8.223
28861SOL     OW88479   3.395  12.941  11.194
28861SOL    HW188480   3.304  12.969  11.205
28861SOL    HW288481   3.391  12.869  11.132
28862SOL     OW88482  14.540   8.092   7.191
28862SOL    HW188483  14.594   8.062   7.118
28862SOL    HW288484  14.588   8.066   7.270
28863SOL     OW88485   3.824   6.604  11.537
28863SOL    HW188486   3.904   6.645  11.504
28863SOL    HW288487   3.831   6.610  11.632
28864SOL     OW88488  14.246   7.917  13.712
28864SOL    HW188489  14.302   7.994  13.704
28864SOL    HW288490  14.157   7.952  13.718
28865SOL     OW88491   0.991   4.800  14.001
28865SOL    HW188492   0.926   4.729  13.997
28865SOL    HW288493   0.940   4.880  13.983
28866SOL     OW88494   9.827   1.438  14.788
28866SOL    HW188495   9.785   1.434  14.702
28866SOL    HW288496   9.760   1.474  14.846
28867SOL     OW88497   1.667  13.116   2.301
28867SOL    HW188498   1.700  13.193   2.254
28867SOL    HW288499   1.678  13.044   2.239
28868SOL     OW88500   2.415   2.339  14.758
28868SOL    HW188501   2.326   2.328  14.791
28868SOL    HW288502   2.410   2.411  14.696
28869SOL     OW88503  13.124   4.843   7.948
28869SOL    HW188504  13.083   4.851   7.862
28869SOL    HW288505  13.052   4.855   8.010
28870SOL     OW88506   6.001   1.208   2.124
28870SOL    HW188507   6.010   1.260   2.204
28870SOL    HW288508   5.939   1.138   2.148
28871SOL     OW88509  11.944   7.987  14.559
28871SOL    HW188510  11.925   7.941  14.641
28871SOL    HW288511  11.861   7.986  14.512
28872SOL     OW88512  14.233   1.331  13.242
28872SOL    HW188513  14.280   1.411  13.219
28872SOL    HW288514  14.143   1.359  13.257
28873SOL     OW88515   1.215   4.379   5.952
28873SOL    HW188516   1.137   4.430   5.934
28873SOL    HW288517   1.287   4.442   5.947
28874SOL     OW88518   1.916  12.180   4.891
28874SOL    HW188519   1.934  12.086   4.901
28874SOL    HW288520   1.980  12.210   4.827
28875SOL     OW88521   6.674   0.374  13.188
28875SOL    HW188522   6.724   0.453  13.207
28875SOL    HW288523   6.635   0.349  13.271
28876SOL     OW88524   1.798  13.301   8.414
28876SOL    HW188525   1.795  13.246   8.336
28876SOL    HW288526   1.891  13.312   8.432
28877SOL     OW88527   7.941  13.925   3.296
28877SOL    HW188528   7.928  14.020   3.301
28877SOL    HW288529   7.901  13.900   3.212
28878SOL     OW88530  11.206   8.940   2.996
28878SOL    HW188531  11.287   8.889   3.003
28878SOL    HW288532  11.136   8.876   3.011
28879SOL     OW88533  11.569  10.677   4.523
28879SOL    HW188534  11.534  10.590   4.502
28879SOL    HW288535  11.657  10.660   4.555
28880SOL     OW88536   0.406  13.664   9.494
28880SOL    HW188537   0.419  13.682   9.401
28880SOL    HW288538   0.492  13.676   9.533
28881SOL     OW88539   0.044  10.858   0.825
28881SOL    HW188540   0.101  10.853   0.749
28881SOL    HW288541   0.098  10.898   0.893
28882SOL     OW88542   9.162  11.260  13.085
28882SOL    HW188543   9.103  11.321  13.128
28882SOL    HW288544   9.231  11.244  13.149
28883SOL     OW88545   9.285   2.262   0.198
28883SOL    HW188546   9.340   2.229   0.127
28883SOL    HW288547   9.326   2.344   0.224
28884SOL     OW88548   4.914   1.003  12.739
28884SOL    HW188549   4.880   0.973  12.655
28884SOL    HW288550   5.001   1.038  12.720
28885SOL     OW88551   5.383   2.261   1.779
28885SOL    HW188552   5.376   2.293   1.869
28885SOL    HW288553   5.296   2.277   1.742
28886SOL     OW88554   3.721  11.344  14.775
28886SOL    HW188555   3.629  11.361  14.793
28886SOL    HW288556   3.738  11.386  14.691
28887SOL     OW88557   6.105   5.850   2.517
28887SOL    HW188558   6.138   5.898   2.441
28887SOL    HW288559   6.183   5.821   2.564
28888SOL     OW88560  14.282   7.911   2.318
28888SOL    HW188561  14.237   7.853   2.380
28888SOL    HW288562  14.357   7.859   2.289
28889SOL     OW88563   2.775  10.976   8.611
28889SOL    HW188564   2.821  10.921   8.674
28889SOL    HW288565   2.694  11.000   8.655
28890SOL     OW88566   7.969   7.775  14.086
28890SOL    HW188567   7.886   7.735  14.113
28890SOL    HW288568   8.025   7.700  14.065
28891SOL     OW88569   5.281   7.722  13.556
28891SOL    HW188570   5.220   7.651  13.575
28891SOL    HW288571   5.359   7.679  13.521
28892SOL     OW88572   7.110   5.416   4.070
28892SOL    HW188573   7.103   5.447   3.980
28892SOL    HW288574   7.157   5.333   4.063
28893SOL     OW88575   0.617   5.056   8.578
28893SOL    HW188576   0.658   4.979   8.617
28893SOL    HW288577   0.546   5.078   8.638
28894SOL     OW88578   5.975   8.502   3.516
28894SOL    HW188579   5.890   8.529   3.551
28894SOL    HW288580   6.030   8.579   3.527
28895SOL     OW88581   8.649   3.019  11.718
28895SOL    HW188582   8.712   2.948  11.729
28895SOL    HW288583   8.601   3.021  11.800
28896SOL     OW88584   7.948  10.361   3.511
28896SOL    HW188585   7.865  10.398   3.482
28896SOL    HW288586   7.933  10.336   3.603
28897SOL     OW88587  11.254  13.294   8.313
28897SOL    HW188588  11.301  13.376   8.298
28897SOL    HW288589  11.322  13.227   8.315
28898SOL     OW88590   6.295   6.098   2.745
28898SOL    HW188591   6.249   6.070   2.824
28898SOL    HW288592   6.388   6.090   2.767
28899SOL     OW88593   4.479   1.896  12.257
28899SOL    HW188594   4.537   1.823  12.236
28899SOL    HW288595   4.413   1.895  12.187
28900SOL     OW88596   8.115  14.111   5.865
28900SOL    HW188597   8.087  14.020   5.851
28900SOL    HW288598   8.048  14.147   5.923
28901SOL     OW88599   5.000   9.963   5.742
28901SOL    HW188600   4.993   9.928   5.653
28901SOL    HW288601   5.077  10.020   5.740
28902SOL     OW88602  14.159   3.782   1.552
28902SOL    HW188603  14.101   3.853   1.580
28902SOL    HW288604  14.151   3.715   1.620
28903SOL     OW88605   7.053  13.874  14.694
28903SOL    HW188606   7.050  13.948  14.633
28903SOL    HW288607   6.985  13.894  14.759
28904SOL     OW88608   3.993   4.773   9.450
28904SOL    HW188609   3.906   4.785   9.487
28904SOL    HW288610   4.032   4.861   9.453
28905SOL     OW88611   7.311   8.417   8.025
28905SOL    HW188612   7.361   8.338   8.006
28905SOL    HW288613   7.299   8.415   8.119
28906SOL     OW88614  12.410  14.212   1.457
28906SOL    HW188615  12.348  14.163   1.511
28906SOL    HW288616  12.485  14.152   1.447
28907SOL     OW88617  12.319   5.731   8.576
28907SOL    HW188618  12.296   5.656   8.522
28907SOL    HW288619  12.377   5.784   8.521
28908SOL     OW88620   9.922   6.217  11.389
28908SOL    HW188621   9.937   6.278  11.461
28908SOL    HW288622   9.828   6.199  11.393
28909SOL     OW88623   2.368   0.829  12.591
28909SOL    HW188624   2.443   0.803  12.645
28909SOL    HW288625   2.383   0.922  12.573
28910SOL     OW88626   8.489  10.347  14.001
28910SOL    HW188627   8.583  10.368  14.002
28910SOL    HW288628   8.481  10.278  13.935
28911SOL     OW88629   4.303  13.513  14.326
28911SOL    HW188630   4.397  13.529  14.333
28911SOL    HW288631   4.266  13.561  14.400
28912SOL     OW88632   9.479  10.878  13.731
28912SOL    HW188633   9.444  10.959  13.695
28912SOL    HW288634   9.402  10.822  13.742
28913SOL     OW88635   6.689  13.950  13.382
28913SOL    HW188636   6.599  13.971  13.359
28913SOL    HW288637   6.729  13.921  13.300
28914SOL     OW88638   0.813   1.807   5.803
28914SOL    HW188639   0.825   1.779   5.893
28914SOL    HW288640   0.818   1.727   5.751
28915SOL     OW88641  11.921   7.845  10.964
28915SOL    HW188642  11.938   7.855  11.058
28915SOL    HW288643  11.827   7.828  10.959
28916SOL     OW88644   2.071   6.389  13.880
28916SOL    HW188645   2.127   6.443  13.936
28916SOL    HW288646   2.092   6.299  13.906
28917SOL     OW88647   2.060   0.599   9.316
28917SOL    HW188648   2.027   0.556   9.394
28917SOL    HW288649   2.121   0.666   9.349
28918SOL     OW88650   3.927   5.705   5.644
28918SOL    HW188651   3.855   5.766   5.657
28918SOL    HW288652   3.929   5.691   5.549
28919SOL     OW88653   0.324  12.517   5.710
28919SOL    HW188654   0.303  12.434   5.666
28919SOL    HW288655   0.251  12.532   5.770
28920SOL     OW88656  10.827   5.448   5.661
28920SOL    HW188657  10.904   5.428   5.715
28920SOL    HW288658  10.764   5.379   5.683
28921SOL     OW88659   5.248   8.801   4.755
28921SOL    HW188660   5.344   8.808   4.761
28921SOL    HW288661   5.230   8.796   4.662
28922SOL     OW88662   2.746  10.995   2.544
28922SOL    HW188663   2.831  11.023   2.575
28922SOL    HW288664   2.691  10.991   2.622
28923SOL     OW88665   5.251   1.596  11.516
28923SOL    HW188666   5.204   1.601  11.599
28923SOL    HW288667   5.309   1.673  11.517
28924SOL     OW88668   2.680  14.191   8.130
28924SOL    HW188669   2.698  14.099   8.116
28924SOL    HW288670   2.608  14.211   8.070
28925SOL     OW88671  12.790   0.903  11.853
28925SOL    HW188672  12.832   0.926  11.936
28925SOL    HW288673  12.714   0.850  11.879
28926SOL     OW88674   5.795  10.694   9.101
28926SOL    HW188675   5.865  10.750   9.067
28926SOL    HW288676   5.765  10.644   9.026
28927SOL     OW88677   1.015   8.828   0.818
28927SOL    HW188678   1.074   8.826   0.893
28927SOL    HW288679   0.984   8.919   0.815
28928SOL     OW88680  10.568  14.228   7.810
28928SOL    HW188681  10.578  14.239   7.716
28928SOL    HW288682  10.474  14.215   7.823
28929SOL     OW88683   9.042   1.738  12.823
28929SOL    HW188684   8.984   1.815  12.832
28929SOL    HW288685   9.009   1.676  12.888
28930SOL     OW88686   0.093   2.960   2.261
28930SOL    HW188687   0.103   2.890   2.196
28930SOL    HW288688   0.177   3.005   2.260
28931SOL     OW88689   8.182   9.101  11.638
28931SOL    HW188690   8.139   9.087  11.722
28931SOL    HW288691   8.113   9.086  11.573
28932SOL     OW88692   6.625   5.592   3.748
28932SOL    HW188693   6.581   5.668   3.786
28932SOL    HW288694   6.606   5.597   3.655
28933SOL     OW88695   5.374  12.644   4.457
28933SOL    HW188696   5.283  12.613   4.457
28933SOL    HW288697   5.377  12.709   4.527
28934SOL     OW88698   8.237  12.643   9.459
28934SOL    HW188699   8.258  12.682   9.544
28934SOL    HW288700   8.311  12.585   9.441
28935SOL     OW88701   0.851   4.901   9.216
28935SOL    HW188702   0.934   4.872   9.176
28935SOL    HW288703   0.878   4.957   9.288
28936SOL     OW88704  11.893   0.913   1.372
28936SOL    HW188705  11.927   0.828   1.345
28936SOL    HW288706  11.933   0.976   1.311
28937SOL     OW88707   0.542  13.105   0.584
28937SOL    HW188708   0.561  13.087   0.676
28937SOL    HW288709   0.609  13.055   0.536
28938SOL     OW88710   0.682  13.794  13.645
28938SOL    HW188711   0.736  13.803  13.724
28938SOL    HW288712   0.657  13.884  13.623
28939SOL     OW88713   5.758   9.945   3.652
28939SOL    HW188714   5.835   9.961   3.599
28939SOL    HW288715   5.742   9.851   3.644
28940SOL     OW88716   7.273   5.609   0.907
28940SOL    HW188717   7.225   5.692   0.916
28940SOL    HW288718   7.282   5.597   0.813
28941SOL     OW88719   8.454  11.315  13.788
28941SOL    HW188720   8.494  11.229  13.779
28941SOL    HW288721   8.440  11.345  13.699
28942SOL     OW88722  14.361  12.866   6.813
28942SOL    HW188723  14.356  12.790   6.871
28942SOL    HW288724  14.434  12.917   6.846
28943SOL     OW88725   9.751  11.180   2.837
28943SOL    HW188726   9.670  11.214   2.875
28943SOL    HW288727   9.814  11.252   2.846
28944SOL     OW88728  11.822   2.252   5.332
28944SOL    HW188729  11.909   2.244   5.371
28944SOL    HW288730  11.788   2.335   5.367
28945SOL     OW88731   0.063  14.732  10.470
28945SOL    HW188732   0.073  14.685  10.386
28945SOL    HW288733  14.868  14.795  10.454
28946SOL     OW88734   2.543   9.360   7.105
28946SOL    HW188735   2.596   9.438   7.127
28946SOL    HW288736   2.497   9.384   7.025
28947SOL     OW88737   4.135  14.574   2.568
28947SOL    HW188738   4.056  14.581   2.622
28947SOL    HW288739   4.206  14.594   2.629
28948SOL     OW88740   7.593   1.840  12.735
28948SOL    HW188741   7.659   1.782  12.773
28948SOL    HW288742   7.526   1.849  12.803
28949SOL     OW88743   6.835   7.373   3.411
28949SOL    HW188744   6.890   7.382   3.489
28949SOL    HW288745   6.791   7.288   3.423
28950SOL     OW88746  10.854   3.499   3.104
28950SOL    HW188747  10.797   3.515   3.180
28950SOL    HW288748  10.845   3.578   3.051
28951SOL     OW88749  11.955   7.050  10.744
28951SOL    HW188750  12.015   7.076  10.814
28951SOL    HW288751  11.927   7.133  10.705
28952SOL     OW88752  13.589  10.665   4.484
28952SOL    HW188753  13.494  10.655   4.477
28952SOL    HW288754  13.623  10.627   4.403
28953SOL     OW88755  14.548   4.969  12.552
28953SOL    HW188756  14.625   4.985  12.605
28953SOL    HW288757  14.479   4.947  12.615
28954SOL     OW88758   9.665   0.647  11.204
28954SOL    HW188759   9.669   0.742  11.213
28954SOL    HW288760   9.576   0.624  11.231
28955SOL     OW88761   6.296  10.849   3.038
28955SOL    HW188762   6.291  10.753   3.041
28955SOL    HW288763   6.223  10.875   2.983
28956SOL     OW88764   9.731   4.698   0.244
28956SOL    HW188765   9.782   4.722   0.166
28956SOL    HW288766   9.733   4.777   0.298
28957SOL     OW88767   0.862  12.162   4.060
28957SOL    HW188768   0.917  12.239   4.047
28957SOL    HW288769   0.913  12.090   4.022
28958SOL     OW88770   3.202   8.513   6.371
28958SOL    HW188771   3.241   8.472   6.448
28958SOL    HW288772   3.127   8.562   6.405
28959SOL     OW88773  11.953   6.507   4.336
28959SOL    HW188774  11.887   6.472   4.276
28959SOL    HW288775  11.906   6.524   4.417
28960SOL     OW88776   5.317   6.202   0.030
28960SOL    HW188777   5.338   6.167  14.819
28960SOL    HW288778   5.229   6.239   0.020
28961SOL     OW88779   6.651   5.867  13.195
28961SOL    HW188780   6.733   5.917  13.196
28961SOL    HW288781   6.678   5.776  13.211
28962SOL     OW88782  10.584  13.878  12.534
28962SOL    HW188783  10.676  13.877  12.508
28962SOL    HW288784  10.585  13.915  12.622
28963SOL     OW88785   0.019  10.320   5.351
28963SOL    HW188786  14.849  10.258   5.408
28963SOL    HW288787  14.868  10.406   5.384
28964SOL     OW88788   7.254   1.169   6.307
28964SOL    HW188789   7.235   1.246   6.361
28964SOL    HW288790   7.225   1.095   6.360
28965SOL     OW88791   5.929  13.828   4.098
28965SOL    HW188792   5.926  13.924   4.095
28965SOL    HW288793   5.869  13.804   4.169
28966SOL     OW88794   0.851   0.574   0.456
28966SOL    HW188795   0.793   0.650   0.448
28966SOL    HW288796   0.849   0.552   0.549
28967SOL     OW88797   4.810  14.645   1.812
28967SOL    HW188798   4.861  14.720   1.783
28967SOL    HW288799   4.783  14.601   1.731
28968SOL     OW88800   2.356  14.383   0.799
28968SOL    HW188801   2.442  14.413   0.827
28968SOL    HW288802   2.375  14.313   0.736
28969SOL     OW88803  13.285   0.761   1.395
28969SOL    HW188804  13.286   0.785   1.303
28969SOL    HW288805  13.205   0.709   1.405
28970SOL     OW88806   8.272   1.678  12.851
28970SOL    HW188807   8.301   1.606  12.908
28970SOL    HW288808   8.280   1.642  12.762
28971SOL     OW88809   4.352   5.124   0.007
28971SOL    HW188810   4.281   5.179  14.849
28971SOL    HW288811   4.308   5.051   0.050
28972SOL     OW88812  12.262  10.515   8.722
28972SOL    HW188813  12.330  10.467   8.768
28972SOL    HW288814  12.276  10.494   8.629
28973SOL     OW88815  14.807  12.959   1.374
28973SOL    HW188816  14.773  13.020   1.439
28973SOL    HW288817  14.771  12.989   1.291
28974SOL     OW88818   7.892  12.041   1.730
28974SOL    HW188819   7.895  11.974   1.799
28974SOL    HW288820   7.931  11.998   1.653
28975SOL     OW88821  10.892   7.903   3.234
28975SOL    HW188822  10.988   7.900   3.225
28975SOL    HW288823  10.872   7.834   3.296
28976SOL     OW88824  13.461   6.496   5.580
28976SOL    HW188825  13.490   6.529   5.495
28976SOL    HW288826  13.369   6.473   5.567
28977SOL     OW88827   0.956  14.573  11.104
28977SOL    HW188828   0.923  14.484  11.119
28977SOL    HW288829   0.877  14.626  11.096
28978SOL     OW88830   9.270   4.055   3.409
28978SOL    HW188831   9.345   4.008   3.445
28978SOL    HW288832   9.262   4.133   3.464
28979SOL     OW88833   7.829  10.270  10.184
28979SOL    HW188834   7.825  10.365  10.196
28979SOL    HW288835   7.922  10.252  10.170
28980SOL     OW88836  10.509   5.443   4.347
28980SOL    HW188837  10.464   5.481   4.272
28980SOL    HW288838  10.443   5.439   4.416
28981SOL     OW88839  13.950   6.522   6.664
28981SOL    HW188840  14.044   6.505   6.669
28981SOL    HW288841  13.914   6.493   6.748
28982SOL     OW88842   6.302   7.480   9.523
28982SOL    HW188843   6.287   7.574   9.510
28982SOL    HW288844   6.396   7.473   9.540
28983SOL     OW88845   6.389   6.374   6.510
28983SOL    HW188846   6.429   6.317   6.575
28983SOL    HW288847   6.459   6.434   6.484
28984SOL     OW88848   7.970   1.819   9.283
28984SOL    HW188849   7.955   1.879   9.211
28984SOL    HW288850   7.903   1.840   9.347
28985SOL     OW88851  12.824  10.949  13.644
28985SOL    HW188852  12.770  10.996  13.707
28985SOL    HW288853  12.908  10.995  13.645
28986SOL     OW88854  12.070   0.430  12.488
28986SOL    HW188855  11.996   0.369  12.485
28986SOL    HW288856  12.123   0.400  12.561
28987SOL     OW88857   9.076   7.427   5.251
28987SOL    HW188858   9.137   7.395   5.318
28987SOL    HW288859   9.094   7.521   5.246
28988SOL     OW88860   7.932   2.777  12.460
28988SOL    HW188861   8.012   2.807  12.502
28988SOL    HW288862   7.864   2.837  12.492
28989SOL     OW88863  12.927   2.565   8.053
28989SOL    HW188864  12.938   2.470   8.063
28989SOL    HW288865  12.907   2.577   7.960
28990SOL     OW88866   7.357  12.635   4.214
28990SOL    HW188867   7.292  12.693   4.255
28990SOL    HW288868   7.361  12.663   4.123
28991SOL     OW88869   7.222   5.987   6.109
28991SOL    HW188870   7.316   5.995   6.095
28991SOL    HW288871   7.214   5.940   6.192
28992SOL     OW88872  14.427  10.901   9.380
28992SOL    HW188873  14.437  10.886   9.286
28992SOL    HW288874  14.333  10.891   9.396
28993SOL     OW88875   2.352   8.416   8.747
28993SOL    HW188876   2.348   8.485   8.681
28993SOL    HW288877   2.443   8.385   8.743
28994SOL     OW88878  12.190   3.406  13.656
28994SOL    HW188879  12.223   3.384  13.569
28994SOL    HW288880  12.209   3.329  13.710
28995SOL     OW88881   3.758   6.724   5.848
28995SOL    HW188882   3.783   6.806   5.805
28995SOL    HW288883   3.663   6.731   5.860
28996SOL     OW88884   5.224   1.949  13.769
28996SOL    HW188885   5.134   1.940  13.801
28996SOL    HW288886   5.272   1.982  13.845
28997SOL     OW88887  11.073   6.721  14.258
28997SOL    HW188888  11.141   6.672  14.213
28997SOL    HW288889  10.992   6.672  14.240
28998SOL     OW88890   6.816   6.495  13.416
28998SOL    HW188891   6.874   6.437  13.367
28998SOL    HW288892   6.736   6.443  13.429
28999SOL     OW88893   6.803   5.816   1.350
28999SOL    HW188894   6.716   5.792   1.318
28999SOL    HW288895   6.844   5.732   1.373
29000SOL     OW88896   0.510   8.247   7.468
29000SOL    HW188897   0.473   8.231   7.381
29000SOL    HW288898   0.437   8.230   7.528
29001SOL     OW88899   4.450   5.749  13.238
29001SOL    HW188900   4.483   5.674  13.288
29001SOL    HW288901   4.526   5.781  13.189
29002SOL     OW88902   6.580   6.570  14.868
29002SOL    HW188903   6.563   6.547   0.084
29002SOL    HW288904   6.671   6.600  14.868
29003SOL     OW88905  13.665  12.245   2.726
29003SOL    HW188906  13.710  12.197   2.795
29003SOL    HW288907  13.573  12.240   2.750
29004SOL     OW88908   7.219  14.167   4.830
29004SOL    HW188909   7.238  14.260   4.826
29004SOL    HW288910   7.305  14.126   4.846
29005SOL     OW88911   6.307   7.127   1.247
29005SOL    HW188912   6.385   7.167   1.208
29005SOL    HW288913   6.341   7.063   1.309
29006SOL     OW88914   0.780   8.039   2.197
29006SOL    HW188915   0.854   8.054   2.139
29006SOL    HW288916   0.744   8.126   2.215
29007SOL     OW88917   8.154   1.208   5.633
29007SOL    HW188918   8.106   1.290   5.622
29007SOL    HW288919   8.183   1.209   5.724
29008SOL     OW88920   0.837   9.859  10.802
29008SOL    HW188921   0.744   9.857  10.776
29008SOL    HW288922   0.885   9.835  10.723
29009SOL     OW88923   9.910   2.001  13.811
29009SOL    HW188924   9.967   1.998  13.887
29009SOL    HW288925   9.835   1.946  13.836
29010SOL     OW88926   8.209   0.745   2.778
29010SOL    HW188927   8.187   0.837   2.767
29010SOL    HW288928   8.303   0.745   2.797
29011SOL     OW88929   0.509   5.338  14.824
29011SOL    HW188930   0.452   5.330  14.748
29011SOL    HW288931   0.577   5.400  14.798
29012SOL     OW88932   2.501  12.636   6.180
29012SOL    HW188933   2.568  12.607   6.118
29012SOL    HW288934   2.549  12.692   6.242
29013SOL     OW88935   9.928   2.728   5.789
29013SOL    HW188936   9.891   2.804   5.835
29013SOL    HW288937   9.856   2.665   5.785
29014SOL     OW88938   1.111   0.021   6.728
29014SOL    HW188939   1.071   0.046   6.644
29014SOL    HW288940   1.185  14.841   6.704
29015SOL     OW88941  14.072   1.011  11.085
29015SOL    HW188942  13.995   0.962  11.057
29015SOL    HW288943  14.124   0.947  11.135
29016SOL     OW88944  13.106   4.151  14.338
29016SOL    HW188945  13.065   4.172  14.254
29016SOL    HW288946  13.047   4.189  14.403
29017SOL     OW88947   5.115   2.257  13.806
29017SOL    HW188948   5.068   2.280  13.886
29017SOL    HW288949   5.049   2.216  13.750
29018SOL     OW88950  10.434   0.074   3.191
29018SOL    HW188951  10.479   0.088   3.275
29018SOL    HW288952  10.455   0.152   3.139
29019SOL     OW88953   3.446  10.862   8.653
29019SOL    HW188954   3.362  10.903   8.635
29019SOL    HW288955   3.438  10.827   8.741
29020SOL     OW88956  11.661  14.047   8.429
29020SOL    HW188957  11.666  14.140   8.408
29020SOL    HW288958  11.580  14.017   8.387
29021SOL     OW88959   5.737   9.989  14.278
29021SOL    HW188960   5.671   9.930  14.242
29021SOL    HW288961   5.689  10.068  14.301
29022SOL     OW88962   9.331   6.354   4.496
29022SOL    HW188963   9.343   6.389   4.585
29022SOL    HW288964   9.373   6.268   4.499
29023SOL     OW88965   0.977   7.357  13.167
29023SOL    HW188966   1.055   7.329  13.216
29023SOL    HW288967   1.012   7.402  13.090
29024SOL     OW88968   2.263   7.976   3.129
29024SOL    HW188969   2.221   7.899   3.090
29024SOL    HW288970   2.235   7.974   3.221
29025SOL     OW88971   9.918  13.932   5.838
29025SOL    HW188972   9.990  13.960   5.895
29025SOL    HW288973   9.883  14.013   5.802
29026SOL     OW88974   1.236   5.693  13.058
29026SOL    HW188975   1.173   5.765  13.053
29026SOL    HW288976   1.262   5.677  12.967
29027SOL     OW88977   5.176   4.367   4.178
29027SOL    HW188978   5.134   4.333   4.257
29027SOL    HW288979   5.225   4.292   4.143
29028SOL     OW88980   1.284   7.821  10.624
29028SOL    HW188981   1.267   7.874  10.703
29028SOL    HW288982   1.370   7.782  10.639
29029SOL     OW88983   5.783   6.373   4.712
29029SOL    HW188984   5.780   6.408   4.801
29029SOL    HW288985   5.843   6.299   4.717
29030SOL     OW88986   1.695   4.109   1.241
29030SOL    HW188987   1.648   4.167   1.300
29030SOL    HW288988   1.787   4.135   1.249
29031SOL     OW88989   4.071   9.514   8.374
29031SOL    HW188990   4.019   9.457   8.318
29031SOL    HW288991   4.007   9.574   8.413
29032SOL     OW88992  12.627   7.648  14.667
29032SOL    HW188993  12.615   7.596  14.747
29032SOL    HW288994  12.676   7.725  14.696
29033SOL     OW88995   0.591   5.095   1.938
29033SOL    HW188996   0.514   5.146   1.911
29033SOL    HW288997   0.650   5.160   1.977
29034SOL     OW88998  11.455   5.802   6.471
29034SOL    HW188999  11.498   5.837   6.392
29034SOL    HW289000  11.515   5.824   6.542
29035SOL     OW89001  13.645  14.411  11.025
29035SOL    HW189002  13.633  14.506  11.029
29035SOL    HW289003  13.732  14.397  11.063
29036SOL     OW89004   6.084   1.288   1.186
29036SOL    HW189005   6.068   1.334   1.269
29036SOL    HW289006   6.124   1.206   1.212
29037SOL     OW89007  13.789   2.411   0.175
29037SOL    HW189008  13.834   2.496   0.175
29037SOL    HW289009  13.859   2.347   0.163
29038SOL     OW89010   6.151   0.728  11.574
29038SOL    HW189011   6.065   0.691  11.592
29038SOL    HW289012   6.134   0.820  11.555
29039SOL     OW89013   5.633   6.106   0.804
29039SOL    HW189014   5.577   6.044   0.757
29039SOL    HW289015   5.597   6.192   0.781
29040SOL     OW89016  14.455   4.157   1.689
29040SOL    HW189017  14.515   4.163   1.763
29040SOL    HW289018  14.451   4.246   1.654
29041SOL     OW89019   7.248  11.319   1.073
29041SOL    HW189020   7.229  11.402   1.028
29041SOL    HW289021   7.343  11.316   1.080
29042SOL     OW89022   5.400   1.496   9.876
29042SOL    HW189023   5.385   1.566   9.940
29042SOL    HW289024   5.495   1.480   9.881
29043SOL     OW89025   8.557   9.120  14.043
29043SOL    HW189026   8.650   9.098  14.038
29043SOL    HW289027   8.555   9.216  14.051
29044SOL     OW89028   0.899  12.027   3.604
29044SOL    HW189029   0.896  12.122   3.615
29044SOL    HW289030   0.945  12.015   3.521
29045SOL     OW89031   8.102   8.582  12.482
29045SOL    HW189032   8.080   8.489  12.487
29045SOL    HW289033   8.190   8.584  12.444
29046SOL     OW89034  10.120  10.330  12.563
29046SOL    HW189035  10.096  10.238  12.563
29046SOL    HW289036  10.112  10.357  12.472
29047SOL     OW89037   6.560   5.383  12.497
29047SOL    HW189038   6.496   5.439  12.541
29047SOL    HW289039   6.645   5.411  12.532
29048SOL     OW89040  10.854  14.135   2.256
29048SOL    HW189041  10.783  14.077   2.229
29048SOL    HW289042  10.884  14.100   2.340
29049SOL     OW89043  12.923  10.310   1.069
29049SOL    HW189044  12.839  10.352   1.049
29049SOL    HW289045  12.988  10.364   1.024
29050SOL     OW89046  13.873  13.258  10.984
29050SOL    HW189047  13.863  13.336  10.929
29050SOL    HW289048  13.941  13.207  10.941
29051SOL     OW89049  11.258   4.082  12.132
29051SOL    HW189050  11.276   4.088  12.039
29051SOL    HW289051  11.222   4.167  12.155
29052SOL     OW89052   0.282   1.171  10.619
29052SOL    HW189053   0.374   1.152  10.637
29052SOL    HW289054   0.273   1.264  10.641
29053SOL     OW89055  12.348   1.498  12.384
29053SOL    HW189056  12.304   1.476  12.466
29053SOL    HW289057  12.310   1.439  12.319
29054SOL     OW89058   5.315   4.612   9.440
29054SOL    HW189059   5.385   4.625   9.504
29054SOL    HW289060   5.238   4.654   9.479
29055SOL     OW89061   9.679  14.188   1.169
29055SOL    HW189062   9.714  14.099   1.179
29055SOL    HW289063   9.707  14.234   1.248
29056SOL     OW89064   7.563  14.418   4.237
29056SOL    HW189065   7.565  14.386   4.327
29056SOL    HW289066   7.630  14.366   4.192
29057SOL     OW89067  13.020   8.711  12.750
29057SOL    HW189068  13.115   8.713  12.735
29057SOL    HW289069  13.003   8.787  12.804
29058SOL     OW89070   8.709   5.811   6.412
29058SOL    HW189071   8.756   5.794   6.494
29058SOL    HW289072   8.770   5.864   6.360
29059SOL     OW89073  13.348  13.680   7.975
29059SOL    HW189074  13.256  13.692   7.954
29059SOL    HW289075  13.367  13.747   8.039
29060SOL     OW89076   4.094  13.743  11.284
29060SOL    HW189077   4.019  13.739  11.225
29060SOL    HW289078   4.090  13.661  11.334
29061SOL     OW89079   3.947   1.962  12.525
29061SOL    HW189080   3.896   2.034  12.489
29061SOL    HW289081   3.895   1.884  12.507
29062SOL     OW89082   9.555  12.264   5.657
29062SOL    HW189083   9.537  12.223   5.573
29062SOL    HW289084   9.508  12.347   5.654
29063SOL     OW89085   3.446  11.055  14.764
29063SOL    HW189086   3.432  11.008  14.682
29063SOL    HW289087   3.515  11.006  14.809
29064SOL     OW89088   7.542   8.473  10.668
29064SOL    HW189089   7.539   8.559  10.625
29064SOL    HW289090   7.455   8.436  10.652
29065SOL     OW89091   8.156   3.926   9.830
29065SOL    HW189092   8.129   3.855   9.772
29065SOL    HW289093   8.248   3.942   9.807
29066SOL     OW89094   7.960   9.120   9.798
29066SOL    HW189095   8.029   9.061   9.768
29066SOL    HW289096   8.006   9.194   9.838
29067SOL     OW89097   8.735   3.608   2.459
29067SOL    HW189098   8.734   3.594   2.365
29067SOL    HW289099   8.721   3.701   2.471
29068SOL     OW89100  14.369   6.858   3.210
29068SOL    HW189101  14.345   6.860   3.303
29068SOL    HW289102  14.297   6.812   3.168
29069SOL     OW89103   3.661   0.069   1.440
29069SOL    HW189104   3.741   0.020   1.458
29069SOL    HW289105   3.690   0.142   1.385
29070SOL     OW89106  13.609   5.094   4.940
29070SOL    HW189107  13.535   5.155   4.940
29070SOL    HW289108  13.630   5.083   5.033
29071SOL     OW89109   6.411   7.494   2.154
29071SOL    HW189110   6.502   7.518   2.173
29071SOL    HW289111   6.415   7.400   2.135
29072SOL     OW89112   4.181   0.183  13.096
29072SOL    HW189113   4.198   0.238  13.019
29072SOL    HW289114   4.104   0.224  13.136
29073SOL     OW89115   4.768   2.664   2.669
29073SOL    HW189116   4.854   2.680   2.708
29073SOL    HW289117   4.776   2.695   2.579
29074SOL     OW89118   7.073   3.996  10.071
29074SOL    HW189119   7.094   3.957  10.156
29074SOL    HW289120   7.127   4.075  10.067
29075SOL     OW89121   1.638  14.138  11.602
29075SOL    HW189122   1.686  14.221  11.596
29075SOL    HW289123   1.560  14.152  11.549
29076SOL     OW89124   3.080   6.311  10.958
29076SOL    HW189125   3.054   6.351  11.041
29076SOL    HW289126   3.048   6.221  10.963
29077SOL     OW89127   2.710   7.352   8.448
29077SOL    HW189128   2.624   7.334   8.486
29077SOL    HW289129   2.693   7.417   8.380
29078SOL     OW89130   2.326  13.463  12.402
29078SOL    HW189131   2.280  13.439  12.483
29078SOL    HW289132   2.328  13.383  12.351
29079SOL     OW89133  11.942   3.637  10.681
29079SOL    HW189134  11.916   3.687  10.759
29079SOL    HW289135  11.866   3.581  10.663
29080SOL     OW89136   3.435  13.940  11.097
29080SOL    HW189137   3.353  13.892  11.104
29080SOL    HW289138   3.466  13.948  11.187
29081SOL     OW89139  12.919  14.217   3.927
29081SOL    HW189140  13.007  14.183   3.938
29081SOL    HW289141  12.862  14.140   3.933
29082SOL     OW89142   5.812   2.498  12.108
29082SOL    HW189143   5.896   2.490  12.063
29082SOL    HW289144   5.750   2.449  12.054
29083SOL     OW89145   0.023   8.037   9.086
29083SOL    HW189146  14.828   8.099   9.065
29083SOL    HW289147   0.003   7.960   9.033
29084SOL     OW89148   2.283  14.201  14.213
29084SOL    HW189149   2.302  14.281  14.263
29084SOL    HW289150   2.338  14.207  14.136
29085SOL     OW89151   7.353   3.762   2.750
29085SOL    HW189152   7.320   3.758   2.660
29085SOL    HW289153   7.329   3.849   2.780
29086SOL     OW89154   1.983   3.972  10.919
29086SOL    HW189155   2.004   3.946  11.009
29086SOL    HW289156   2.051   3.930  10.866
29087SOL     OW89157  13.908   8.581  13.414
29087SOL    HW189158  14.002   8.564  13.418
29087SOL    HW289159  13.898   8.649  13.348
29088SOL     OW89160   4.144   5.517   2.317
29088SOL    HW189161   4.166   5.489   2.229
29088SOL    HW289162   4.049   5.503   2.324
29089SOL     OW89163  11.099   7.160   9.689
29089SOL    HW189164  11.131   7.080   9.729
29089SOL    HW289165  11.091   7.139   9.595
29090SOL     OW89166   7.003   0.488   5.776
29090SOL    HW189167   6.966   0.433   5.707
29090SOL    HW289168   6.935   0.493   5.843
29091SOL     OW89169   2.184  13.324  14.424
29091SOL    HW189170   2.093  13.307  14.448
29091SOL    HW289171   2.179  13.355  14.334
29092SOL     OW89172   1.115  11.017   4.837
29092SOL    HW189173   1.210  11.017   4.849
29092SOL    HW289174   1.102  11.045   4.747
29093SOL     OW89175   6.334  11.889  11.251
29093SOL    HW189176   6.363  11.860  11.338
29093SOL    HW289177   6.350  11.813  11.194
29094SOL     OW89178  14.486   5.870   1.732
29094SOL    HW189179  14.439   5.814   1.671
29094SOL    HW289180  14.567   5.893   1.686
29095SOL     OW89181  10.428   5.264  10.708
29095SOL    HW189182  10.405   5.176  10.679
29095SOL    HW289183  10.466   5.306  10.631
29096SOL     OW89184   5.848   7.219  10.264
29096SOL    HW189185   5.866   7.173  10.347
29096SOL    HW289186   5.935   7.232  10.225
29097SOL     OW89187   5.636   0.290   8.029
29097SOL    HW189188   5.576   0.330   7.966
29097SOL    HW289189   5.721   0.332   8.010
29098SOL     OW89190   0.437  10.303   6.337
29098SOL    HW189191   0.357  10.326   6.384
29098SOL    HW289192   0.407  10.274   6.251
29099SOL     OW89193  10.118   5.179   0.216
29099SOL    HW189194  10.028   5.159   0.244
29099SOL    HW289195  10.173   5.118   0.266
29100SOL     OW89196   1.395   9.439  13.911
29100SOL    HW189197   1.350   9.487  13.980
29100SOL    HW289198   1.327   9.382  13.873
29101SOL     OW89199   4.493   0.325  12.201
29101SOL    HW189200   4.440   0.391  12.247
29101SOL    HW289201   4.450   0.242  12.221
29102SOL     OW89202   1.211   8.849  11.406
29102SOL    HW189203   1.263   8.772  11.381
29102SOL    HW289204   1.179   8.884  11.322
29103SOL     OW89205  14.716   3.798   2.520
29103SOL    HW189206  14.664   3.813   2.600
29103SOL    HW289207  14.659   3.744   2.465
29104SOL     OW89208  12.399   8.377  10.936
29104SOL    HW189209  12.365   8.402  10.850
29104SOL    HW289210  12.341   8.307  10.966
29105SOL     OW89211  10.334   1.759   2.144
29105SOL    HW189212  10.311   1.750   2.051
29105SOL    HW289213  10.295   1.843   2.170
29106SOL     OW89214   6.692   2.873  13.762
29106SOL    HW189215   6.623   2.864  13.828
29106SOL    HW289216   6.774   2.872  13.812
29107SOL     OW89217   0.133   5.203  12.629
29107SOL    HW189218   0.082   5.284  12.623
29107SOL    HW289219   0.190   5.206  12.552
29108SOL     OW89220   6.527   4.407   3.898
29108SOL    HW189221   6.494   4.420   3.987
29108SOL    HW289222   6.583   4.329   3.905
29109SOL     OW89223  11.578   6.740   1.933
29109SOL    HW189224  11.517   6.716   1.863
29109SOL    HW289225  11.661   6.701   1.906
29110SOL     OW89226   6.844   6.159   0.663
29110SOL    HW189227   6.859   6.091   0.598
29110SOL    HW289228   6.895   6.234   0.633
29111SOL     OW89229  13.241  11.580  11.777
29111SOL    HW189230  13.235  11.589  11.872
29111SOL    HW289231  13.291  11.656  11.749
29112SOL     OW89232   6.629  11.725   2.897
29112SOL    HW189233   6.553  11.722   2.839
29112SOL    HW289234   6.641  11.818   2.917
29113SOL     OW89235   7.988   2.043   9.673
29113SOL    HW189236   7.952   2.131   9.656
29113SOL    HW289237   8.067   2.040   9.618
29114SOL     OW89238  14.210   2.792   1.545
29114SOL    HW189239  14.155   2.865   1.574
29114SOL    HW289240  14.260   2.767   1.622
29115SOL     OW89241   7.464  12.152  13.499
29115SOL    HW189242   7.472  12.188  13.411
29115SOL    HW289243   7.389  12.198  13.537
29116SOL     OW89244   5.179  11.867  12.055
29116SOL    HW189245   5.203  11.916  11.977
29116SOL    HW289246   5.110  11.920  12.097
29117SOL     OW89247   4.123  10.059   7.098
29117SOL    HW189248   4.166  10.142   7.122
29117SOL    HW289249   4.037  10.064   7.140
29118SOL     OW89250   3.191   1.055  10.772
29118SOL    HW189251   3.180   1.112  10.696
29118SOL    HW289252   3.127   1.088  10.836
29119SOL     OW89253  10.659   4.420  12.039
29119SOL    HW189254  10.599   4.429  12.113
29119SOL    HW289255  10.604   4.431  11.962
29120SOL     OW89256   2.745   6.738   9.500
29120SOL    HW189257   2.821   6.769   9.549
29120SOL    HW289258   2.780   6.713   9.414
29121SOL     OW89259   4.871   6.050   4.122
29121SOL    HW189260   4.887   6.140   4.149
29121SOL    HW289261   4.857   6.002   4.204
29122SOL     OW89262   8.875  10.698   3.174
29122SOL    HW189263   8.782  10.674   3.170
29122SOL    HW289264   8.903  10.704   3.083
29123SOL     OW89265   7.366   7.773  13.530
29123SOL    HW189266   7.304   7.718  13.577
29123SOL    HW289267   7.437   7.714  13.505
29124SOL     OW89268  10.668   2.058  14.384
29124SOL    HW189269  10.596   2.120  14.395
29124SOL    HW289270  10.633   1.991  14.325
29125SOL     OW89271   1.570   1.180   0.036
29125SOL    HW189272   1.518   1.135  14.844
29125SOL    HW289273   1.637   1.116   0.061
29126SOL     OW89274  13.231   9.513  14.083
29126SOL    HW189275  13.144   9.552  14.090
29126SOL    HW289276  13.264   9.509  14.173
29127SOL     OW89277   8.950  11.928   9.671
29127SOL    HW189278   8.949  11.863   9.601
29127SOL    HW289279   9.024  11.903   9.725
29128SOL     OW89280   7.708  14.011   7.922
29128SOL    HW189281   7.666  13.926   7.911
29128SOL    HW289282   7.801  13.995   7.902
29129SOL     OW89283   7.052   5.097   9.682
29129SOL    HW189284   6.992   5.171   9.682
29129SOL    HW289285   7.057   5.070   9.774
29130SOL     OW89286   8.143   6.373  14.705
29130SOL    HW189287   8.137   6.468  14.709
29130SOL    HW289288   8.150   6.353  14.611
29131SOL     OW89289  13.989  13.126   6.038
29131SOL    HW189290  14.009  13.097   6.127
29131SOL    HW289291  14.067  13.103   5.987
29132SOL     OW89292   4.643   5.195   5.219
29132SOL    HW189293   4.574   5.141   5.181
29132SOL    HW289294   4.695   5.134   5.272
29133SOL     OW89295   8.537   9.645   4.158
29133SOL    HW189296   8.599   9.675   4.225
29133SOL    HW289297   8.461   9.703   4.168
29134SOL     OW89298   7.034  13.961  11.049
29134SOL    HW189299   7.037  14.034  10.987
29134SOL    HW289300   7.059  13.884  10.997
29135SOL     OW89301   0.096  14.317   5.569
29135SOL    HW189302   0.041  14.383   5.528
29135SOL    HW289303   0.046  14.235   5.560
29136SOL     OW89304   3.494  12.221   0.029
29136SOL    HW189305   3.569  12.262  14.860
29136SOL    HW289306   3.503  12.245   0.121
29137SOL     OW89307  10.280   8.989   2.895
29137SOL    HW189308  10.355   8.963   2.841
29137SOL    HW289309  10.227   8.910   2.903
29138SOL     OW89310   7.645  11.676  10.375
29138SOL    HW189311   7.557  11.697  10.407
29138SOL    HW289312   7.643  11.695  10.282
29139SOL     OW89313   6.028   1.494   4.342
29139SOL    HW189314   5.957   1.554   4.364
29139SOL    HW289315   6.099   1.551   4.313
29140SOL     OW89316   2.174  12.208   3.911
29140SOL    HW189317   2.109  12.202   3.981
29140SOL    HW289318   2.148  12.285   3.860
29141SOL     OW89319  14.390  11.260   9.155
29141SOL    HW189320  14.353  11.177   9.186
29141SOL    HW289321  14.318  11.300   9.106
29142SOL     OW89322   0.584  10.548   6.374
29142SOL    HW189323   0.642  10.575   6.303
29142SOL    HW289324   0.521  10.489   6.332
29143SOL     OW89325  10.449   5.740   3.728
29143SOL    HW189326  10.400   5.769   3.651
29143SOL    HW289327  10.384   5.736   3.798
29144SOL     OW89328  13.532  12.468  12.403
29144SOL    HW189329  13.522  12.509  12.317
29144SOL    HW289330  13.522  12.539  12.466
29145SOL     OW89331   9.891   5.054  13.755
29145SOL    HW189332   9.808   5.094  13.781
29145SOL    HW289333   9.957   5.121  13.772
29146SOL     OW89334   6.655   2.143  12.278
29146SOL    HW189335   6.598   2.172  12.208
29146SOL    HW289336   6.696   2.224  12.311
29147SOL     OW89337   9.152   8.872  11.486
29147SOL    HW189338   9.096   8.806  11.529
29147SOL    HW289339   9.237   8.864  11.530
29148SOL     OW89340  10.666  12.093   8.115
29148SOL    HW189341  10.664  12.050   8.200
29148SOL    HW289342  10.574  12.096   8.088
29149SOL     OW89343  12.369   3.371   0.304
29149SOL    HW189344  12.335   3.459   0.321
29149SOL    HW289345  12.293   3.313   0.313
29150SOL     OW89346   1.973  14.089   8.954
29150SOL    HW189347   1.962  13.994   8.962
29150SOL    HW289348   2.065  14.101   8.934
29151SOL     OW89349   9.115   0.871  13.238
29151SOL    HW189350   9.057   0.883  13.162
29151SOL    HW289351   9.195   0.918  13.214
29152SOL     OW89352   6.036  10.574   3.966
29152SOL    HW189353   5.989  10.491   3.974
29152SOL    HW289354   5.968  10.637   3.941
29153SOL     OW89355  13.170  13.955   8.555
29153SOL    HW189356  13.094  13.997   8.595
29153SOL    HW289357  13.199  13.890   8.620
29154SOL     OW89358  10.342  12.717   3.634
29154SOL    HW189359  10.320  12.761   3.716
29154SOL    HW289360  10.432  12.688   3.645
29155SOL     OW89361  12.397   3.005   1.411
29155SOL    HW189362  12.333   3.025   1.343
29155SOL    HW289363  12.348   2.953   1.475
29156SOL     OW89364   9.221  10.191  11.651
29156SOL    HW189365   9.316  10.192  11.666
29156SOL    HW289366   9.212  10.215  11.558
29157SOL     OW89367   1.986   6.067   7.629
29157SOL    HW189368   1.984   5.979   7.591
29157SOL    HW289369   2.056   6.112   7.581
29158SOL     OW89370  13.268   3.954   5.272
29158SOL    HW189371  13.261   4.002   5.190
29158SOL    HW289372  13.325   4.008   5.327
29159SOL     OW89373   8.599  14.509   6.609
29159SOL    HW189374   8.520  14.552   6.576
29159SOL    HW289375   8.583  14.498   6.703
29160SOL     OW89376   6.128   6.461  12.634
29160SOL    HW189377   6.216   6.486  12.608
29160SOL    HW289378   6.138   6.424  12.722
29161SOL     OW89379  14.389  14.777   6.154
29161SOL    HW189380  14.387  14.741   6.066
29161SOL    HW289381  14.341  14.860   6.148
29162SOL     OW89382  12.077   7.969  13.295
29162SOL    HW189383  11.999   7.972  13.351
29162SOL    HW289384  12.072   8.050  13.244
29163SOL     OW89385   6.265   3.276   0.923
29163SOL    HW189386   6.335   3.311   0.868
29163SOL    HW289387   6.306   3.205   0.972
29164SOL     OW89388  14.795   7.150  12.658
29164SOL    HW189389  14.829   7.147  12.747
29164SOL    HW289390  14.778   7.059  12.635
29165SOL     OW89391   7.386  12.834   2.023
29165SOL    HW189392   7.442  12.798   1.954
29165SOL    HW289393   7.444  12.844   2.099
29166SOL     OW89394   2.561  12.042  13.259
29166SOL    HW189395   2.588  11.988  13.332
29166SOL    HW289396   2.632  12.034  13.195
29167SOL     OW89397  12.337   0.085   5.292
29167SOL    HW189398  12.425   0.048   5.294
29167SOL    HW289399  12.282   0.017   5.253
29168SOL     OW89400   1.540   7.620   9.439
29168SOL    HW189401   1.520   7.703   9.482
29168SOL    HW289402   1.603   7.642   9.371
29169SOL     OW89403  12.410   8.300   7.275
29169SOL    HW189404  12.335   8.257   7.315
29169SOL    HW289405  12.373   8.371   7.222
29170SOL     OW89406   7.628   0.136  10.850
29170SOL    HW189407   7.640   0.205  10.915
29170SOL    HW289408   7.705   0.143  10.793
29171SOL     OW89409   4.767   6.699   1.214
29171SOL    HW189410   4.735   6.610   1.229
29171SOL    HW289411   4.687   6.750   1.200
29172SOL     OW89412   0.978   1.365   2.387
29172SOL    HW189413   0.932   1.438   2.345
29172SOL    HW289414   1.060   1.404   2.418
29173SOL     OW89415   5.790   9.777   6.132
29173SOL    HW189416   5.749   9.747   6.051
29173SOL    HW289417   5.828   9.862   6.109
29174SOL     OW89418   7.437   5.747   6.854
29174SOL    HW189419   7.388   5.695   6.790
29174SOL    HW289420   7.425   5.700   6.937
29175SOL     OW89421   9.327   1.172  13.432
29175SOL    HW189422   9.400   1.174  13.494
29175SOL    HW289423   9.259   1.224  13.473
29176SOL     OW89424   4.523   4.002   8.465
29176SOL    HW189425   4.459   4.018   8.534
29176SOL    HW289426   4.587   3.944   8.505
29177SOL     OW89427   8.713   8.532   3.209
29177SOL    HW189428   8.672   8.456   3.168
29177SOL    HW289429   8.652   8.604   3.194
29178SOL     OW89430   0.994   7.166  14.225
29178SOL    HW189431   1.026   7.220  14.153
29178SOL    HW289432   1.024   7.211  14.304
29179SOL     OW89433   3.633   8.628  12.035
29179SOL    HW189434   3.587   8.654  11.955
29179SOL    HW289435   3.725   8.623  12.010
29180SOL     OW89436   1.279  10.205   1.864
29180SOL    HW189437   1.293  10.271   1.932
29180SOL    HW289438   1.365  10.165   1.851
29181SOL     OW89439   4.709   3.103   9.403
29181SOL    HW189440   4.657   3.029   9.435
29181SOL    HW289441   4.670   3.180   9.445
29182SOL     OW89442   5.621  14.543   2.035
29182SOL    HW189443   5.674  14.485   2.091
29182SOL    HW289444   5.535  14.546   2.078
29183SOL     OW89445   5.539  14.597   3.861
29183SOL    HW189446   5.590  14.604   3.942
29183SOL    HW289447   5.589  14.535   3.807
29184SOL     OW89448   7.479  12.225   1.280
29184SOL    HW189449   7.465  12.130   1.274
29184SOL    HW289450   7.528  12.247   1.200
29185SOL     OW89451   1.677  13.576   4.607
29185SOL    HW189452   1.589  13.595   4.638
29185SOL    HW289453   1.678  13.482   4.592
29186SOL     OW89454   2.926   6.731   3.920
29186SOL    HW189455   2.956   6.675   3.849
29186SOL    HW289456   2.999   6.791   3.936
29187SOL     OW89457   4.880  11.084   8.027
29187SOL    HW189458   4.928  11.114   7.950
29187SOL    HW289459   4.820  11.017   7.993
29188SOL     OW89460   0.617   3.577  13.643
29188SOL    HW189461   0.698   3.579  13.693
29188SOL    HW289462   0.645   3.579  13.551
29189SOL     OW89463   0.626  11.030  12.883
29189SOL    HW189464   0.573  11.104  12.912
29189SOL    HW289465   0.708  11.070  12.853
29190SOL     OW89466   9.907   5.782   1.210
29190SOL    HW189467   9.837   5.791   1.146
29190SOL    HW289468   9.908   5.688   1.230
29191SOL     OW89469  11.565   7.575   2.158
29191SOL    HW189470  11.578   7.490   2.116
29191SOL    HW289471  11.649   7.619   2.149
29192SOL     OW89472   1.621   0.993   8.286
29192SOL    HW189473   1.685   1.017   8.219
29192SOL    HW289474   1.594   0.905   8.263
29193SOL     OW89475  14.074   8.703   1.905
29193SOL    HW189476  14.144   8.648   1.871
29193SOL    HW289477  14.117   8.761   1.967
29194SOL     OW89478  11.538   8.857  10.519
29194SOL    HW189479  11.541   8.825  10.429
29194SOL    HW289480  11.452   8.829  10.552
29195SOL     OW89481   7.692   2.245   6.236
29195SOL    HW189482   7.764   2.285   6.284
29195SOL    HW289483   7.633   2.212   6.304
29196SOL     OW89484   1.679  14.140   5.952
29196SOL    HW189485   1.622  14.213   5.978
29196SOL    HW289486   1.650  14.067   6.005
29197SOL     OW89487   3.435   5.207   5.626
29197SOL    HW189488   3.513   5.182   5.578
29197SOL    HW289489   3.416   5.297   5.598
29198SOL     OW89490   0.395   7.973   4.367
29198SOL    HW189491   0.421   7.893   4.320
29198SOL    HW289492   0.455   7.978   4.442
29199SOL     OW89493  10.960   9.081   1.216
29199SOL    HW189494  11.018   9.013   1.182
29199SOL    HW289495  10.948   9.141   1.143
29200SOL     OW89496   4.590  13.296   8.232
29200SOL    HW189497   4.513  13.263   8.278
29200SOL    HW289498   4.557  13.325   8.147
29201SOL     OW89499   4.425  12.722   3.132
29201SOL    HW189500   4.512  12.701   3.168
29201SOL    HW289501   4.375  12.750   3.209
29202SOL     OW89502  11.403  10.766   0.287
29202SOL    HW189503  11.319  10.719   0.279
29202SOL    HW289504  11.469  10.696   0.286
29203SOL     OW89505   9.595   8.655   1.266
29203SOL    HW189506   9.526   8.717   1.244
29203SOL    HW289507   9.604   8.662   1.361
29204SOL     OW89508  11.516  14.273   8.173
29204SOL    HW189509  11.573  14.283   8.250
29204SOL    HW289510  11.428  14.276   8.209
29205SOL     OW89511   4.053   0.053  11.778
29205SOL    HW189512   4.075  14.840  11.749
29205SOL    HW289513   3.979   0.079  11.724
29206SOL     OW89514   9.096   3.977   1.582
29206SOL    HW189515   9.004   3.973   1.554
29206SOL    HW289516   9.130   4.056   1.540
29207SOL     OW89517   2.459   6.511   7.842
29207SOL    HW189518   2.546   6.505   7.804
29207SOL    HW289519   2.431   6.421   7.854
29208SOL     OW89520   2.443   0.307  14.415
29208SOL    HW189521   2.494   0.361  14.354
29208SOL    HW289522   2.373   0.365  14.445
29209SOL     OW89523   8.510  12.271  14.518
29209SOL    HW189524   8.463  12.310  14.444
29209SOL    HW289525   8.592  12.320  14.522
29210SOL     OW89526   1.727   0.044  10.006
29210SOL    HW189527   1.763  14.860   9.941
29210SOL    HW289528   1.733   0.131   9.967
29211SOL     OW89529   3.599   0.195  11.649
29211SOL    HW189530   3.574   0.276  11.691
29211SOL    HW289531   3.662   0.154  11.708
29212SOL     OW89532   8.726   1.290  10.681
29212SOL    HW189533   8.681   1.375  10.688
29212SOL    HW289534   8.656   1.225  10.687
29213SOL     OW89535   0.093   8.206   3.117
29213SOL    HW189536   0.019   8.263   3.134
29213SOL    HW289537   0.170   8.259   3.138
29214SOL     OW89538  12.824   7.466  12.644
29214SOL    HW189539  12.896   7.493  12.700
29214SOL    HW289540  12.815   7.372  12.659
29215SOL     OW89541   2.360   0.030  10.714
29215SOL    HW189542   2.450   0.041  10.743
29215SOL    HW289543   2.367   0.006  10.622
29216SOL     OW89544  13.562   8.280   4.164
29216SOL    HW189545  13.578   8.248   4.253
29216SOL    HW289546  13.649   8.289   4.125
29217SOL     OW89547   4.726  10.624   6.618
29217SOL    HW189548   4.631  10.623   6.633
29217SOL    HW289549   4.761  10.564   6.684
29218SOL     OW89550  14.842   9.113  13.145
29218SOL    HW189551  14.833   9.021  13.170
29218SOL    HW289552  14.778   9.158  13.200
29219SOL     OW89553   8.672   6.438   3.201
29219SOL    HW189554   8.638   6.442   3.112
29219SOL    HW289555   8.736   6.367   3.200
29220SOL     OW89556   2.972   9.151   0.818
29220SOL    HW189557   2.994   9.243   0.831
29220SOL    HW289558   2.899   9.135   0.877
29221SOL     OW89559   7.403   1.588   3.757
29221SOL    HW189560   7.472   1.654   3.766
29221SOL    HW289561   7.345   1.624   3.690
29222SOL     OW89562   5.328   2.457  13.314
29222SOL    HW189563   5.289   2.488  13.232
29222SOL    HW289564   5.422   2.472  13.303
29223SOL     OW89565   7.573   9.357   9.001
29223SOL    HW189566   7.516   9.403   9.063
29223SOL    HW289567   7.662   9.375   9.032
29224SOL     OW89568   7.637  13.799   5.836
29224SOL    HW189569   7.604  13.878   5.879
29224SOL    HW289570   7.690  13.832   5.763
29225SOL     OW89571   5.278  12.085   7.871
29225SOL    HW189572   5.326  12.129   7.801
29225SOL    HW289573   5.328  12.103   7.950
29226SOL     OW89574  12.586  11.959   2.341
29226SOL    HW189575  12.491  11.960   2.346
29226SOL    HW289576  12.614  12.012   2.417
29227SOL     OW89577   4.616  12.586   0.777
29227SOL    HW189578   4.652  12.670   0.751
29227SOL    HW289579   4.630  12.580   0.871
29228SOL     OW89580   5.386  12.332  10.843
29228SOL    HW189581   5.344  12.415  10.866
29228SOL    HW289582   5.347  12.268  10.902
29229SOL     OW89583   1.882   9.974   5.553
29229SOL    HW189584   1.920   9.893   5.586
29229SOL    HW289585   1.895   9.969   5.458
29230SOL     OW89586   4.110   4.751   7.042
29230SOL    HW189587   4.118   4.771   7.135
29230SOL    HW289588   4.120   4.656   7.037
29231SOL     OW89589   9.363   0.944   2.601
29231SOL    HW189590   9.459   0.939   2.594
29231SOL    HW289591   9.331   0.871   2.549
29232SOL     OW89592  13.383   5.566  12.595
29232SOL    HW189593  13.391   5.481  12.639
29232SOL    HW289594  13.291   5.573  12.571
29233SOL     OW89595  10.381  14.237  12.512
29233SOL    HW189596  10.472  14.222  12.537
29233SOL    HW289597  10.346  14.151  12.491
29234SOL     OW89598   2.376  14.278  13.272
29234SOL    HW189599   2.280  14.274  13.279
29234SOL    HW289600   2.406  14.197  13.313
29235SOL     OW89601  12.144   3.885  10.637
29235SOL    HW189602  12.104   3.887  10.724
29235SOL    HW289603  12.096   3.817  10.590
29236SOL     OW89604   6.626   9.019   3.869
29236SOL    HW189605   6.693   9.087   3.880
29236SOL    HW289606   6.675   8.938   3.856
29237SOL     OW89607   4.251  14.732   8.987
29237SOL    HW189608   4.223  14.659   8.931
29237SOL    HW289609   4.321  14.774   8.939
29238SOL     OW89610  12.069   4.715  11.695
29238SOL    HW189611  11.995   4.776  11.683
29238SOL    HW289612  12.110   4.743  11.776
29239SOL     OW89613  13.612  13.739   4.920
29239SOL    HW189614  13.598  13.675   4.850
29239SOL    HW289615  13.539  13.724   4.981
29240SOL     OW89616   5.361  10.713   5.007
29240SOL    HW189617   5.316  10.711   4.923
29240SOL    HW289618   5.429  10.646   5.000
29241SOL     OW89619  11.393  11.227   0.294
29241SOL    HW189620  11.343  11.299   0.256
29241SOL    HW289621  11.485  11.255   0.286
29242SOL     OW89622   6.045  14.146  10.851
29242SOL    HW189623   6.002  14.095  10.782
29242SOL    HW289624   6.043  14.089  10.927
29243SOL     OW89625   1.994   1.280  14.076
29243SOL    HW189626   1.969   1.356  14.023
29243SOL    HW289627   2.014   1.317  14.162
29244SOL     OW89628   5.096   9.270   3.976
29244SOL    HW189629   5.090   9.319   3.894
29244SOL    HW289630   5.012   9.286   4.020
29245SOL     OW89631  13.568  11.646   2.681
29245SOL    HW189632  13.559  11.656   2.776
29245SOL    HW289633  13.525  11.562   2.662
29246SOL     OW89634  11.881   8.209   7.286
29246SOL    HW189635  11.951   8.264   7.250
29246SOL    HW289636  11.830   8.268   7.341
29247SOL     OW89637   3.201   2.324   1.017
29247SOL    HW189638   3.212   2.239   1.059
29247SOL    HW289639   3.290   2.360   1.012
29248SOL     OW89640   4.742   2.215  14.478
29248SOL    HW189641   4.780   2.227  14.391
29248SOL    HW289642   4.648   2.210  14.463
29249SOL     OW89643  12.711   1.052   4.920
29249SOL    HW189644  12.638   0.990   4.918
29249SOL    HW289645  12.767   1.026   4.847
29250SOL     OW89646   4.965   9.635   9.047
29250SOL    HW189647   4.991   9.723   9.075
29250SOL    HW289648   5.042   9.601   9.001
29251SOL     OW89649  12.346   4.524   5.858
29251SOL    HW189650  12.440   4.537   5.852
29251SOL    HW289651  12.332   4.488   5.946
29252SOL     OW89652   0.882  14.545   4.994
29252SOL    HW189653   0.977  14.561   4.990
29252SOL    HW289654   0.843  14.630   4.972
29253SOL     OW89655   0.661   3.141   2.383
29253SOL    HW189656   0.663   3.052   2.348
29253SOL    HW289657   0.732   3.143   2.447
29254SOL     OW89658   5.081  12.597   2.283
29254SOL    HW189659   5.161  12.564   2.241
29254SOL    HW289660   5.097  12.690   2.295
29255SOL     OW89661  12.285   0.835   4.362
29255SOL    HW189662  12.263   0.789   4.281
29255SOL    HW289663  12.207   0.887   4.381
29256SOL     OW89664   0.637   1.486  11.911
29256SOL    HW189665   0.565   1.498  11.973
29256SOL    HW289666   0.595   1.484  11.825
29257SOL     OW89667  11.151   6.122  10.824
29257SOL    HW189668  11.063   6.147  10.851
29257SOL    HW289669  11.141   6.097  10.732
29258SOL     OW89670   7.131   4.268  11.520
29258SOL    HW189671   7.123   4.317  11.438
29258SOL    HW289672   7.225   4.251  11.529
29259SOL     OW89673   2.943   0.302   9.914
29259SOL    HW189674   2.984   0.367   9.856
29259SOL    HW289675   2.854   0.334   9.928
29260SOL     OW89676   0.437  12.297  12.860
29260SOL    HW189677   0.397  12.211  12.867
29260SOL    HW289678   0.379  12.355  12.909
29261SOL     OW89679  13.050   2.639   1.767
29261SOL    HW189680  13.041   2.553   1.726
29261SOL    HW289681  13.131   2.674   1.732
29262SOL     OW89682  14.327   9.937   3.907
29262SOL    HW189683  14.247   9.974   3.942
29262SOL    HW289684  14.300   9.891   3.827
29263SOL     OW89685  13.117   8.101   5.651
29263SOL    HW189686  13.048   8.038   5.629
29263SOL    HW289687  13.105   8.118   5.744
29264SOL     OW89688  10.304   1.499   4.564
29264SOL    HW189689  10.285   1.514   4.472
29264SOL    HW289690  10.225   1.456   4.598
29265SOL     OW89691   8.000  12.116   8.295
29265SOL    HW189692   7.940  12.111   8.220
29265SOL    HW289693   8.087  12.106   8.257
29266SOL     OW89694   6.611  13.348   1.632
29266SOL    HW189695   6.669  13.418   1.662
29266SOL    HW289696   6.551  13.391   1.572
29267SOL     OW89697   5.420   0.338   4.092
29267SOL    HW189698   5.392   0.420   4.134
29267SOL    HW289699   5.338   0.297   4.063
29268SOL     OW89700   2.244  13.224   7.501
29268SOL    HW189701   2.238  13.162   7.573
29268SOL    HW289702   2.235  13.171   7.422
29269SOL     OW89703   1.777  14.042   6.316
29269SOL    HW189704   1.745  14.012   6.231
29269SOL    HW289705   1.870  14.062   6.301
29270SOL     OW89706  14.493  14.235   4.102
29270SOL    HW189707  14.445  14.165   4.145
29270SOL    HW289708  14.459  14.315   4.141
29271SOL     OW89709   2.289  12.638  11.642
29271SOL    HW189710   2.249  12.711  11.689
29271SOL    HW289711   2.368  12.618  11.691
29272SOL     OW89712   0.741  13.043   0.230
29272SOL    HW189713   0.710  12.990   0.303
29272SOL    HW289714   0.837  13.037   0.235
29273SOL     OW89715  12.756  11.463  12.688
29273SOL    HW189716  12.671  11.457  12.645
29273SOL    HW289717  12.806  11.524  12.635
29274SOL     OW89718   4.460   5.739   7.480
29274SOL    HW189719   4.486   5.648   7.468
29274SOL    HW289720   4.396   5.736   7.551
29275SOL     OW89721   0.430   1.925  13.841
29275SOL    HW189722   0.460   1.841  13.876
29275SOL    HW289723   0.459   1.924  13.750
29276SOL     OW89724  14.573  14.233   1.557
29276SOL    HW189725  14.641  14.168   1.573
29276SOL    HW289726  14.587  14.261   1.467
29277SOL     OW89727  11.380  13.344  11.631
29277SOL    HW189728  11.290  13.333  11.600
29277SOL    HW289729  11.434  13.338  11.553
29278SOL     OW89730  11.730  13.158   9.448
29278SOL    HW189731  11.665  13.089   9.435
29278SOL    HW289732  11.769  13.171   9.361
29279SOL     OW89733  10.148   1.089   8.357
29279SOL    HW189734  10.077   1.146   8.329
29279SOL    HW289735  10.193   1.064   8.276
29280SOL     OW89736   6.487  13.480   7.791
29280SOL    HW189737   6.506  13.469   7.884
29280SOL    HW289738   6.573  13.494   7.750
29281SOL     OW89739   7.478   5.204   0.585
29281SOL    HW189740   7.553   5.230   0.638
29281SOL    HW289741   7.479   5.109   0.587
29282SOL     OW89742  10.005   0.731   5.781
29282SOL    HW189743  10.086   0.746   5.830
29282SOL    HW289744  10.033   0.683   5.703
29283SOL     OW89745  10.097   4.045   2.642
29283SOL    HW189746  10.077   4.091   2.561
29283SOL    HW289747  10.036   4.082   2.706
29284SOL     OW89748   7.962   6.378  12.986
29284SOL    HW189749   7.980   6.291  13.023
29284SOL    HW289750   7.955   6.363  12.892
29285SOL     OW89751   4.680   9.374  11.478
29285SOL    HW189752   4.591   9.410  11.476
29285SOL    HW289753   4.737   9.451  11.480
29286SOL     OW89754  10.056   2.022   0.747
29286SOL    HW189755  10.074   2.109   0.782
29286SOL    HW289756  10.125   1.966   0.782
29287SOL     OW89757   7.227  13.026  13.933
29287SOL    HW189758   7.145  12.980  13.950
29287SOL    HW289759   7.255  13.057  14.020
29288SOL     OW89760   2.071   0.288   0.372
29288SOL    HW189761   2.078   0.224   0.443
29288SOL    HW289762   2.139   0.263   0.310
29289SOL     OW89763   0.024  12.082   3.310
29289SOL    HW189764   0.095  12.018   3.305
29289SOL    HW289765  14.857  12.065   3.394
29290SOL     OW89766   6.385   7.371  14.422
29290SOL    HW189767   6.426   7.376  14.508
29290SOL    HW289768   6.323   7.444  14.421
29291SOL     OW89769   6.547  10.955   6.306
29291SOL    HW189770   6.578  11.027   6.361
29291SOL    HW289771   6.495  10.997   6.238
29292SOL     OW89772  11.601   8.087   4.698
29292SOL    HW189773  11.619   8.103   4.791
29292SOL    HW289774  11.636   8.000   4.682
29293SOL     OW89775  13.443  13.198   0.780
29293SOL    HW189776  13.389  13.129   0.817
29293SOL    HW289777  13.533  13.168   0.792
29294SOL     OW89778   1.391  12.570   0.059
29294SOL    HW189779   1.296  12.572   0.045
29294SOL    HW289780   1.424  12.643   0.007
29295SOL     OW89781  11.367   7.107   0.025
29295SOL    HW189782  11.445   7.102  14.845
29295SOL    HW289783  11.342   7.015   0.040
29296SOL     OW89784   4.568   7.643  12.396
29296SOL    HW189785   4.586   7.565  12.343
29296SOL    HW289786   4.521   7.610  12.472
29297SOL     OW89787  11.935   0.311  12.925
29297SOL    HW189788  11.970   0.233  12.882
29297SOL    HW289789  11.890   0.277  13.002
29298SOL     OW89790   7.672   1.691  13.761
29298SOL    HW189791   7.611   1.658  13.826
29298SOL    HW289792   7.649   1.644  13.681
29299SOL     OW89793   2.595   5.942  12.574
29299SOL    HW189794   2.581   5.972  12.663
29299SOL    HW289795   2.674   5.888  12.578
29300SOL     OW89796  12.262  12.645   4.524
29300SOL    HW189797  12.223  12.656   4.438
29300SOL    HW289798  12.197  12.595   4.574
29301SOL     OW89799   4.345   2.832  12.152
29301SOL    HW189800   4.270   2.881  12.118
29301SOL    HW289801   4.404   2.822  12.077
29302SOL     OW89802   0.589   5.775   8.338
29302SOL    HW189803   0.628   5.728   8.411
29302SOL    HW289804   0.506   5.808   8.372
29303SOL     OW89805  13.206   0.436  12.515
29303SOL    HW189806  13.182   0.528  12.507
29303SOL    HW289807  13.298   0.433  12.489
29304SOL     OW89808   2.536  11.943   4.586
29304SOL    HW189809   2.447  11.909   4.573
29304SOL    HW289810   2.575  11.943   4.499
29305SOL     OW89811   1.791   8.690   7.589
29305SOL    HW189812   1.714   8.634   7.596
29305SOL    HW289813   1.787   8.725   7.500
29306SOL     OW89814   0.257   2.528   9.383
29306SOL    HW189815   0.164   2.546   9.400
29306SOL    HW289816   0.271   2.562   9.294
29307SOL     OW89817   2.654   2.944  14.660
29307SOL    HW189818   2.611   2.921  14.577
29307SOL    HW289819   2.734   2.990  14.633
29308SOL     OW89820  10.651   4.153   8.518
29308SOL    HW189821  10.634   4.183   8.428
29308SOL    HW289822  10.575   4.182   8.568
29309SOL     OW89823   9.568   1.062  12.265
29309SOL    HW189824   9.494   1.078  12.324
29309SOL    HW289825   9.529   1.024  12.187
29310SOL     OW89826   6.762  11.875  10.087
29310SOL    HW189827   6.747  11.964  10.120
29310SOL    HW289828   6.758  11.820  10.164
29311SOL     OW89829   6.805   6.714   7.804
29311SOL    HW189830   6.832   6.623   7.817
29311SOL    HW289831   6.863   6.746   7.735
29312SOL     OW89832   5.596   3.345   8.877
29312SOL    HW189833   5.592   3.249   8.877
29312SOL    HW289834   5.533   3.371   8.810
29313SOL     OW89835   8.518   8.234  11.873
29313SOL    HW189836   8.423   8.242  11.869
29313SOL    HW289837   8.550   8.318  11.839
29314SOL     OW89838   2.395   1.356   4.346
29314SOL    HW189839   2.361   1.267   4.338
29314SOL    HW289840   2.325   1.412   4.313
29315SOL     OW89841  11.856  14.816   8.453
29315SOL    HW189842  11.761  14.826   8.444
29315SOL    HW289843  11.893   0.016   8.406
29316SOL     OW89844  13.976   0.424  14.030
29316SOL    HW189845  14.068   0.448  14.035
29316SOL    HW289846  13.958   0.415  13.936
29317SOL     OW89847   2.524  13.983   2.874
29317SOL    HW189848   2.565  14.005   2.958
29317SOL    HW289849   2.430  13.978   2.894
29318SOL     OW89850   7.210  10.206  13.074
29318SOL    HW189851   7.170  10.235  13.156
29318SOL    HW289852   7.189  10.113  13.069
29319SOL     OW89853   9.069   6.695   7.433
29319SOL    HW189854   9.105   6.693   7.344
29319SOL    HW289855   8.980   6.661   7.423
29320SOL     OW89856  12.378   0.044   3.224
29320SOL    HW189857  12.443  14.848   3.222
29320SOL    HW289858  12.425   0.121   3.192
29321SOL     OW89859   6.718   5.981   1.008
29321SOL    HW189860   6.782   5.911   0.996
29321SOL    HW289861   6.761   6.043   1.066
29322SOL     OW89862   3.282   0.096  11.366
29322SOL    HW189863   3.202   0.148  11.372
29322SOL    HW289864   3.348   0.158  11.336
29323SOL     OW89865   4.561   9.340   4.254
29323SOL    HW189866   4.551   9.386   4.171
29323SOL    HW289867   4.514   9.258   4.242
29324SOL     OW89868   4.135  12.186  11.813
29324SOL    HW189869   4.053  12.214  11.772
29324SOL    HW289870   4.203  12.239  11.771
29325SOL     OW89871  14.342   2.803  13.826
29325SOL    HW189872  14.405   2.799  13.754
29325SOL    HW289873  14.359   2.724  13.877
29326SOL     OW89874  10.786  14.730   2.186
29326SOL    HW189875  10.717  14.740   2.252
29326SOL    HW289876  10.823  14.643   2.204
29327SOL     OW89877   0.005   9.820   2.455
29327SOL    HW189878  14.861   9.793   2.544
29327SOL    HW289879   0.020   9.914   2.461
29328SOL     OW89880   0.248   3.390   2.365
29328SOL    HW189881   0.305   3.347   2.429
29328SOL    HW289882   0.285   3.478   2.356
29329SOL     OW89883   3.142   9.587  10.180
29329SOL    HW189884   3.183   9.506  10.209
29329SOL    HW289885   3.205   9.627  10.121
29330SOL     OW89886  10.878  13.152   6.757
29330SOL    HW189887  10.886  13.106   6.841
29330SOL    HW289888  10.854  13.083   6.694
29331SOL     OW89889   4.879   9.535   2.278
29331SOL    HW189890   4.834   9.450   2.279
29331SOL    HW289891   4.915   9.542   2.190
29332SOL     OW89892   8.073   0.717  10.192
29332SOL    HW189893   7.993   0.766  10.174
29332SOL    HW289894   8.044   0.640  10.241
29333SOL     OW89895   2.330  11.136   7.837
29333SOL    HW189896   2.402  11.184   7.796
29333SOL    HW289897   2.260  11.200   7.843
29334SOL     OW89898   4.288   5.332   2.734
29334SOL    HW189899   4.352   5.344   2.804
29334SOL    HW289900   4.339   5.301   2.659
29335SOL     OW89901   5.301   3.657   3.920
29335SOL    HW189902   5.338   3.739   3.888
29335SOL    HW289903   5.251   3.681   3.998
29336SOL     OW89904  11.479   7.324   9.268
29336SOL    HW189905  11.516   7.236   9.278
29336SOL    HW289906  11.389   7.308   9.239
29337SOL     OW89907   0.691  10.358   6.751
29337SOL    HW189908   0.623  10.399   6.698
29337SOL    HW289909   0.747  10.312   6.688
29338SOL     OW89910  13.065  10.691   5.861
29338SOL    HW189911  13.063  10.629   5.934
29338SOL    HW289912  12.980  10.683   5.819
29339SOL     OW89913   2.775  14.506   2.739
29339SOL    HW189914   2.680  14.516   2.734
29339SOL    HW289915   2.789  14.417   2.772
29340SOL     OW89916   6.888   4.946   8.260
29340SOL    HW189917   6.822   4.958   8.193
29340SOL    HW289918   6.845   4.892   8.327
29341SOL     OW89919  11.563   7.194   5.552
29341SOL    HW189920  11.518   7.242   5.483
29341SOL    HW289921  11.629   7.255   5.585
29342SOL     OW89922   3.963  11.262   8.195
29342SOL    HW189923   4.054  11.241   8.174
29342SOL    HW289924   3.968  11.343   8.246
29343SOL     OW89925   8.267   7.417   0.032
29343SOL    HW189926   8.296   7.328   0.052
29343SOL    HW289927   8.216   7.408  14.826
29344SOL     OW89928   1.922   2.792  12.478
29344SOL    HW189929   1.893   2.757  12.562
29344SOL    HW289930   2.017   2.804  12.489
29345SOL     OW89931  13.134  14.355   6.160
29345SOL    HW189932  13.121  14.426   6.222
29345SOL    HW289933  13.049  14.313   6.153
29346SOL     OW89934  13.455  13.859   1.101
29346SOL    HW189935  13.501  13.777   1.120
29346SOL    HW289936  13.411  13.843   1.017
29347SOL     OW89937   2.246   1.040   1.861
29347SOL    HW189938   2.328   1.060   1.817
29347SOL    HW289939   2.254   0.947   1.883
29348SOL     OW89940   8.262   9.165   0.223
29348SOL    HW189941   8.231   9.127   0.141
29348SOL    HW289942   8.183   9.178   0.275
29349SOL     OW89943   4.539   9.202   1.095
29349SOL    HW189944   4.629   9.185   1.121
29349SOL    HW289945   4.544   9.277   1.036
29350SOL     OW89946  14.036  12.660   4.686
29350SOL    HW189947  13.986  12.731   4.646
29350SOL    HW289948  13.996  12.649   4.773
29351SOL     OW89949   9.050   6.684  10.335
29351SOL    HW189950   9.103   6.763  10.330
29351SOL    HW289951   8.994   6.697  10.411
29352SOL     OW89952   4.662   3.978  12.947
29352SOL    HW189953   4.603   4.017  13.010
29352SOL    HW289954   4.744   3.966  12.995
29353SOL     OW89955   1.158  11.879  11.521
29353SOL    HW189956   1.196  11.907  11.604
29353SOL    HW289957   1.064  11.872  11.539
29354SOL     OW89958   1.431  11.457   0.211
29354SOL    HW189959   1.342  11.423   0.202
29354SOL    HW289960   1.421  11.538   0.262
29355SOL     OW89961  10.289  11.801  12.592
29355SOL    HW189962  10.245  11.857  12.656
29355SOL    HW289963  10.218  11.750  12.552
29356SOL     OW89964   4.619   3.349   5.074
29356SOL    HW189965   4.533   3.331   5.038
29356SOL    HW289966   4.635   3.441   5.055
29357SOL     OW89967  10.439   5.932   2.276
29357SOL    HW189968  10.419   5.848   2.317
29357SOL    HW289969  10.453   5.991   2.350
29358SOL     OW89970   7.676  14.694  11.058
29358SOL    HW189971   7.754  14.671  11.108
29358SOL    HW289972   7.691  14.655  10.971
29359SOL     OW89973   3.722  12.985   9.835
29359SOL    HW189974   3.745  12.988   9.928
29359SOL    HW289975   3.646  12.928   9.831
29360SOL     OW89976  10.661   2.637   9.895
29360SOL    HW189977  10.755   2.652   9.906
29360SOL    HW289978  10.622   2.725   9.897
29361SOL     OW89979   8.595   9.645  10.599
29361SOL    HW189980   8.563   9.682  10.681
29361SOL    HW289981   8.566   9.554  10.600
29362SOL     OW89982   8.354   8.409  10.832
29362SOL    HW189983   8.423   8.421  10.896
29362SOL    HW289984   8.298   8.487  10.842
29363SOL     OW89985   3.418   3.653   8.186
29363SOL    HW189986   3.437   3.608   8.104
29363SOL    HW289987   3.427   3.586   8.253
29364SOL     OW89988  12.792  11.740   5.163
29364SOL    HW189989  12.871  11.747   5.216
29364SOL    HW289990  12.759  11.830   5.156
29365SOL     OW89991   0.722   6.653  13.397
29365SOL    HW189992   0.701   6.617  13.483
29365SOL    HW289993   0.773   6.585  13.353
29366SOL     OW89994   7.217  13.445  13.292
29366SOL    HW189995   7.232  13.458  13.198
29366SOL    HW289996   7.148  13.506  13.315
29367SOL     OW89997   0.662  10.773  12.226
29367SOL    HW189998   0.661  10.852  12.172
29367SOL    HW289999   0.699  10.706  12.169
29368SOL     OW90000   3.198   1.885   2.761
29368SOL    HW190001   3.178   1.802   2.719
29368SOL    HW290002   3.195   1.950   2.691
29369SOL     OW90003   2.159   3.482  11.150
29369SOL    HW190004   2.188   3.481  11.241
29369SOL    HW290005   2.080   3.428  11.149
29370SOL     OW90006  10.996  13.404   7.792
29370SOL    HW190007  11.070  13.427   7.848
29370SOL    HW290008  10.928  13.376   7.853
29371SOL     OW90009   4.701   9.990  12.824
29371SOL    HW190010   4.793   9.977  12.844
29371SOL    HW290011   4.698   9.995  12.728
29372SOL     OW90012  14.201   4.776  11.670
29372SOL    HW190013  14.141   4.704  11.689
29372SOL    HW290014  14.190   4.836  11.744
29373SOL     OW90015  12.878  12.145   1.242
29373SOL    HW190016  12.865  12.120   1.151
29373SOL    HW290017  12.820  12.220   1.255
29374SOL     OW90018   4.666  10.223   1.255
29374SOL    HW190019   4.694  10.314   1.245
29374SOL    HW290020   4.574  10.229   1.280
29375SOL     OW90021   8.876   6.447   3.529
29375SOL    HW190022   8.844   6.359   3.509
29375SOL    HW290023   8.797   6.499   3.542
29376SOL     OW90024   4.882   1.112  12.439
29376SOL    HW190025   4.845   1.141  12.356
29376SOL    HW290026   4.949   1.048  12.414
29377SOL     OW90027   6.544  13.281  11.147
29377SOL    HW190028   6.474  13.234  11.100
29377SOL    HW290029   6.512  13.371  11.154
29378SOL     OW90030   9.068   6.686   2.803
29378SOL    HW190031   9.075   6.592   2.790
29378SOL    HW290032   9.151   6.711   2.844
29379SOL     OW90033   3.289   3.747   1.532
29379SOL    HW190034   3.308   3.815   1.596
29379SOL    HW290035   3.226   3.788   1.472
29380SOL     OW90036   2.062   8.935   6.892
29380SOL    HW190037   2.054   8.854   6.942
29380SOL    HW290038   1.992   8.992   6.925
29381SOL     OW90039   6.149  14.701   4.213
29381SOL    HW190040   6.073  14.720   4.268
29381SOL    HW290041   6.119  14.714   4.124
29382SOL     OW90042   5.230   6.358   3.526
29382SOL    HW190043   5.136   6.364   3.542
29382SOL    HW290044   5.270   6.403   3.601
29383SOL     OW90045   0.753   1.609   7.912
29383SOL    HW190046   0.757   1.551   7.989
29383SOL    HW290047   0.844   1.625   7.890
29384SOL     OW90048   4.374   7.150  13.539
29384SOL    HW190049   4.365   7.084  13.608
29384SOL    HW290050   4.304   7.128  13.477
29385SOL     OW90051  10.267   2.794   2.924
29385SOL    HW190052  10.214   2.799   2.844
29385SOL    HW290053  10.308   2.708   2.920
29386SOL     OW90054   5.263   0.691  10.360
29386SOL    HW190055   5.311   0.631  10.417
29386SOL    HW290056   5.220   0.751  10.420
29387SOL     OW90057   0.386   5.546  13.737
29387SOL    HW190058   0.437   5.623  13.712
29387SOL    HW290059   0.398   5.485  13.665
29388SOL     OW90060   0.237   5.614  12.774
29388SOL    HW190061   0.146   5.589  12.784
29388SOL    HW290062   0.274   5.606  12.863
29389SOL     OW90063   8.759   5.477   8.329
29389SOL    HW190064   8.744   5.502   8.420
29389SOL    HW290065   8.756   5.560   8.281
29390SOL     OW90066   2.768   5.075   5.851
29390SOL    HW190067   2.729   4.998   5.892
29390SOL    HW290068   2.704   5.144   5.864
29391SOL     OW90069   3.691   6.783   0.763
29391SOL    HW190070   3.779   6.777   0.799
29391SOL    HW290071   3.697   6.853   0.697
29392SOL     OW90072  12.555   5.588  13.333
29392SOL    HW190073  12.551   5.683  13.343
29392SOL    HW290074  12.633   5.562  13.381
29393SOL     OW90075   0.779   0.884   9.275
29393SOL    HW190076   0.736   0.965   9.248
29393SOL    HW290077   0.776   0.887   9.371
29394SOL     OW90078   7.435   9.278   8.219
29394SOL    HW190079   7.433   9.279   8.315
29394SOL    HW290080   7.366   9.217   8.194
29395SOL     OW90081  11.998  14.531  14.824
29395SOL    HW190082  12.073  14.542  14.765
29395SOL    HW290083  11.973  14.620  14.848
29396SOL     OW90084  10.220  10.342   3.035
29396SOL    HW190085  10.296  10.312   3.085
29396SOL    HW290086  10.255  10.406   2.973
29397SOL     OW90087   4.856  12.557   3.791
29397SOL    HW190088   4.894  12.636   3.753
29397SOL    HW290089   4.792  12.527   3.727
29398SOL     OW90090   6.422  12.518  14.457
29398SOL    HW190091   6.334  12.499  14.489
29398SOL    HW290092   6.411  12.592  14.397
29399SOL     OW90093   3.550   5.549   8.815
29399SOL    HW190094   3.492   5.541   8.739
29399SOL    HW290095   3.496   5.592   8.881
29400SOL     OW90096  10.307   9.379   5.395
29400SOL    HW190097  10.330   9.414   5.309
29400SOL    HW290098  10.220   9.340   5.382
29401SOL     OW90099   0.060   8.989   2.011
29401SOL    HW190100   0.132   8.985   1.948
29401SOL    HW290101  14.857   8.998   1.957
29402SOL     OW90102   4.034   2.484  13.516
29402SOL    HW190103   4.052   2.549  13.449
29402SOL    HW290104   3.944   2.455  13.498
29403SOL     OW90105   5.297   9.347   2.431
29403SOL    HW190106   5.281   9.337   2.337
29403SOL    HW290107   5.296   9.258   2.466
29404SOL     OW90108  11.586  10.371  14.085
29404SOL    HW190109  11.521  10.355  14.153
29404SOL    HW290110  11.670  10.364  14.130
29405SOL     OW90111   2.637  12.668   2.690
29405SOL    HW190112   2.650  12.585   2.645
29405SOL    HW290113   2.553  12.700   2.656
29406SOL     OW90114   4.500   4.012  14.348
29406SOL    HW190115   4.578   3.986  14.397
29406SOL    HW290116   4.531   4.029  14.259
29407SOL     OW90117   1.083   7.257   9.224
29407SOL    HW190118   1.016   7.317   9.257
29407SOL    HW290119   1.098   7.196   9.296
29408SOL     OW90120   3.188   0.296  10.871
29408SOL    HW190121   3.163   0.283  10.779
29408SOL    HW290122   3.217   0.387  10.875
29409SOL     OW90123   8.151   4.963  14.256
29409SOL    HW190124   8.153   5.050  14.294
29409SOL    HW290125   8.219   4.915  14.303
29410SOL     OW90126  12.845   9.451   9.843
29410SOL    HW190127  12.935   9.474   9.822
29410SOL    HW290128  12.843   9.356   9.840
29411SOL     OW90129   5.964  14.153   1.726
29411SOL    HW190130   5.930  14.239   1.700
29411SOL    HW290131   5.932  14.093   1.659
29412SOL     OW90132   9.005  10.078  10.639
29412SOL    HW190133   9.067  10.017  10.599
29412SOL    HW290134   9.019  10.067  10.733
29413SOL     OW90135  12.363  11.021   1.620
29413SOL    HW190136  12.278  11.001   1.580
29413SOL    HW290137  12.427  10.987   1.557
29414SOL     OW90138   9.005   8.576   9.436
29414SOL    HW190139   8.926   8.630   9.435
29414SOL    HW290140   9.016   8.547   9.346
29415SOL     OW90141  11.152  12.886   2.286
29415SOL    HW190142  11.211  12.954   2.318
29415SOL    HW290143  11.068  12.905   2.328
29416SOL     OW90144  10.174   8.407  10.405
29416SOL    HW190145  10.158   8.455  10.323
29416SOL    HW290146  10.096   8.423  10.457
29417SOL     OW90147  14.345   2.419   7.237
29417SOL    HW190148  14.387   2.505   7.249
29417SOL    HW290149  14.390   2.363   7.300
29418SOL     OW90150   3.414   6.356   7.798
29418SOL    HW190151   3.449   6.421   7.737
29418SOL    HW290152   3.320   6.377   7.804
29419SOL     OW90153   9.902  11.922  12.406
29419SOL    HW190154   9.839  11.955  12.342
29419SOL    HW290155   9.861  11.939  12.491
29420SOL     OW90156  11.378  12.661   5.401
29420SOL    HW190157  11.419  12.747   5.394
29420SOL    HW290158  11.405  12.615   5.322
29421SOL     OW90159  12.854  10.902   5.666
29421SOL    HW190160  12.837  10.973   5.605
29421SOL    HW290161  12.803  10.924   5.744
29422SOL     OW90162   6.961   2.185   5.176
29422SOL    HW190163   7.005   2.170   5.260
29422SOL    HW290164   7.028   2.227   5.122
29423SOL     OW90165  12.653   4.446   3.758
29423SOL    HW190166  12.587   4.377   3.743
29423SOL    HW290167  12.618   4.496   3.832
29424SOL     OW90168   8.681  11.959  10.229
29424SOL    HW190169   8.755  11.914  10.189
29424SOL    HW290170   8.625  11.983  10.155
29425SOL     OW90171  12.638   6.404   8.825
29425SOL    HW190172  12.729   6.388   8.849
29425SOL    HW290173  12.587   6.379   8.902
29426SOL     OW90174   1.030   1.347   9.740
29426SOL    HW190175   1.100   1.404   9.710
29426SOL    HW290176   1.049   1.332   9.833
29427SOL     OW90177  10.135  13.615  14.847
29427SOL    HW190178  10.159  13.706  14.861
29427SOL    HW290179  10.209  13.578  14.799
29428SOL     OW90180  12.799   6.970   4.402
29428SOL    HW190181  12.757   6.919   4.333
29428SOL    HW290182  12.741   7.045   4.415
29429SOL     OW90183   7.417   1.438   7.811
29429SOL    HW190184   7.397   1.423   7.719
29429SOL    HW290185   7.417   1.350   7.850
29430SOL     OW90186   1.831  13.513   8.122
29430SOL    HW190187   1.891  13.440   8.108
29430SOL    HW290188   1.790  13.495   8.206
29431SOL     OW90189   9.649   0.949   1.061
29431SOL    HW190190   9.735   0.980   1.086
29431SOL    HW290191   9.664   0.897   0.982
29432SOL     OW90192   9.552  12.041   9.375
29432SOL    HW190193   9.496  11.968   9.349
29432SOL    HW290194   9.496  12.118   9.371
29433SOL     OW90195  10.353   8.125  11.477
29433SOL    HW190196  10.321   8.038  11.500
29433SOL    HW290197  10.444   8.127  11.507
29434SOL     OW90198   1.793  13.573   8.716
29434SOL    HW190199   1.794  13.500   8.778
29434SOL    HW290200   1.872  13.560   8.663
29435SOL     OW90201   0.338  13.736   1.808
29435SOL    HW190202   0.411  13.784   1.847
29435SOL    HW290203   0.302  13.685   1.881
29436SOL     OW90204   0.243  13.736   2.555
29436SOL    HW190205   0.206  13.654   2.522
29436SOL    HW290206   0.336  13.717   2.566
29437SOL     OW90207   4.904   2.272  12.949
29437SOL    HW190208   4.856   2.351  12.973
29437SOL    HW290209   4.871   2.249  12.862
29438SOL     OW90210  14.176   0.549   7.001
29438SOL    HW190211  14.231   0.562   6.924
29438SOL    HW290212  14.088   0.534   6.966
29439SOL     OW90213  12.835   6.082  11.404
29439SOL    HW190214  12.900   6.148  11.428
29439SOL    HW290215  12.812   6.040  11.487
29440SOL     OW90216   7.281   7.952   1.547
29440SOL    HW190217   7.200   7.951   1.497
29440SOL    HW290218   7.280   8.036   1.593
29441SOL     OW90219   9.092   9.736   4.085
29441SOL    HW190220   9.066   9.665   4.026
29441SOL    HW290221   9.130   9.802   4.027
29442SOL     OW90222   9.584   4.164  12.825
29442SOL    HW190223   9.561   4.253  12.851
29442SOL    HW290224   9.555   4.157  12.734
29443SOL     OW90225   6.683  10.072   8.107
29443SOL    HW190226   6.665  10.160   8.074
29443SOL    HW290227   6.689  10.083   8.202
29444SOL     OW90228  12.206   8.580   1.199
29444SOL    HW190229  12.115   8.558   1.218
29444SOL    HW290230  12.257   8.536   1.267
29445SOL     OW90231   5.005  14.410  13.259
29445SOL    HW190232   5.029  14.376  13.173
29445SOL    HW290233   5.087  14.445  13.295
29446SOL     OW90234  11.742   9.911   9.502
29446SOL    HW190235  11.761   9.888   9.593
29446SOL    HW290236  11.671   9.975   9.507
29447SOL     OW90237   1.087   6.789   2.248
29447SOL    HW190238   1.134   6.866   2.281
29447SOL    HW290239   1.078   6.732   2.325
29448SOL     OW90240  12.472   8.879   1.448
29448SOL    HW190241  12.433   8.911   1.529
29448SOL    HW290242  12.417   8.916   1.379
29449SOL     OW90243   2.600  11.209   6.352
29449SOL    HW190244   2.691  11.217   6.321
29449SOL    HW290245   2.576  11.119   6.331
29450SOL     OW90246  11.205   0.080  14.587
29450SOL    HW190247  11.125   0.052  14.543
29450SOL    HW290248  11.183   0.077  14.680
29451SOL     OW90249   2.537   2.099   0.249
29451SOL    HW190250   2.552   2.147   0.168
29451SOL    HW290251   2.543   2.166   0.318
29452SOL     OW90252   7.355   0.015   7.023
29452SOL    HW190253   7.353   0.011   6.928
29452SOL    HW290254   7.328   0.104   7.044
29453SOL     OW90255   6.862   3.837  10.602
29453SOL    HW190256   6.768   3.849  10.589
29453SOL    HW290257   6.889   3.912  10.654
29454SOL     OW90258   4.810  14.532   0.216
29454SOL    HW190259   4.809  14.573   0.303
29454SOL    HW290260   4.898  14.495   0.209
29455SOL     OW90261  12.326  10.850   9.279
29455SOL    HW190262  12.417  10.879   9.287
29455SOL    HW290263  12.291  10.858   9.368
29456SOL     OW90264  14.663  12.367   4.672
29456SOL    HW190265  14.671  12.425   4.597
29456SOL    HW290266  14.624  12.422   4.741
29457SOL     OW90267   2.108   2.251   0.466
29457SOL    HW190268   2.081   2.169   0.423
29457SOL    HW290269   2.047   2.317   0.431
29458SOL     OW90270   9.561   6.826   9.195
29458SOL    HW190271   9.628   6.773   9.153
29458SOL    HW290272   9.595   6.916   9.191
29459SOL     OW90273  13.142   5.098   3.683
29459SOL    HW190274  13.052   5.116   3.657
29459SOL    HW290275  13.185   5.183   3.682
29460SOL     OW90276   3.039   1.616   6.608
29460SOL    HW190277   2.951   1.653   6.603
29460SOL    HW290278   3.069   1.637   6.697
29461SOL     OW90279  14.633   5.850   2.696
29461SOL    HW190280  14.582   5.929   2.711
29461SOL    HW290281  14.585   5.804   2.627
29462SOL     OW90282   0.490   0.525  10.691
29462SOL    HW190283   0.465   0.504  10.781
29462SOL    HW290284   0.468   0.617  10.680
29463SOL     OW90285  10.082  14.689   1.663
29463SOL    HW190286  10.039  14.624   1.719
29463SOL    HW290287  10.175  14.673   1.676
29464SOL     OW90288   6.525  13.936   1.577
29464SOL    HW190289   6.440  13.975   1.557
29464SOL    HW290290   6.580  13.958   1.502
29465SOL     OW90291   1.872   1.068   8.151
29465SOL    HW190292   1.925   1.131   8.201
29465SOL    HW290293   1.886   0.985   8.197
29466SOL     OW90294  10.399   3.230   2.261
29466SOL    HW190295  10.468   3.167   2.240
29466SOL    HW290296  10.427   3.311   2.218
29467SOL     OW90297  11.933  11.435   3.936
29467SOL    HW190298  11.878  11.429   3.859
29467SOL    HW290299  11.886  11.493   3.996
29468SOL     OW90300   8.865  11.057   1.169
29468SOL    HW190301   8.922  11.128   1.198
29468SOL    HW290302   8.817  11.094   1.095
29469SOL     OW90303   1.383   6.528   9.566
29469SOL    HW190304   1.380   6.433   9.568
29469SOL    HW290305   1.292   6.555   9.553
29470SOL     OW90306  13.734  11.657  11.193
29470SOL    HW190307  13.672  11.584  11.188
29470SOL    HW290308  13.726  11.690  11.282
29471SOL     OW90309   0.139   7.590  12.239
29471SOL    HW190310   0.132   7.684  12.258
29471SOL    HW290311   0.184   7.554  12.315
29472SOL     OW90312   2.443  13.125  11.157
29472SOL    HW190313   2.464  13.195  11.095
29472SOL    HW290314   2.389  13.064  11.108
29473SOL     OW90315   3.088  11.136   3.361
29473SOL    HW190316   3.135  11.072   3.415
29473SOL    HW290317   3.074  11.092   3.278
29474SOL     OW90318  12.370   1.589   4.363
29474SOL    HW190319  12.334   1.677   4.375
29474SOL    HW290320  12.442   1.601   4.300
29475SOL     OW90321  13.835  13.027   9.477
29475SOL    HW190322  13.911  12.998   9.426
29475SOL    HW290323  13.761  13.013   9.419
29476SOL     OW90324   0.699   5.686   4.864
29476SOL    HW190325   0.641   5.646   4.929
29476SOL    HW290326   0.722   5.614   4.806
29477SOL     OW90327  14.584   2.785   8.304
29477SOL    HW190328  14.604   2.780   8.210
29477SOL    HW290329  14.669   2.777   8.347
29478SOL     OW90330   8.115  11.219  14.280
29478SOL    HW190331   8.199  11.184  14.251
29478SOL    HW290332   8.054  11.145  14.272
29479SOL     OW90333  11.736  12.350  14.462
29479SOL    HW190334  11.653  12.395  14.444
29479SOL    HW290335  11.766  12.389  14.544
29480SOL     OW90336   8.721  11.235   9.140
29480SOL    HW190337   8.758  11.146   9.141
29480SOL    HW290338   8.737  11.268   9.228
29481SOL     OW90339  13.978   5.826   0.856
29481SOL    HW190340  13.998   5.786   0.771
29481SOL    HW290341  13.917   5.766   0.897
29482SOL     OW90342   0.531   5.073   9.976
29482SOL    HW190343   0.493   5.055   9.890
29482SOL    HW290344   0.495   5.157  10.002
29483SOL     OW90345   3.294  10.319  12.513
29483SOL    HW190346   3.260  10.380  12.447
29483SOL    HW290347   3.256  10.349  12.595
29484SOL     OW90348   8.926   2.698  10.747
29484SOL    HW190349   8.870   2.776  10.743
29484SOL    HW290350   9.010   2.731  10.779
29485SOL     OW90351   4.245   2.822   2.574
29485SOL    HW190352   4.336   2.812   2.548
29485SOL    HW290353   4.226   2.743   2.624
29486SOL     OW90354  11.071   8.882  13.969
29486SOL    HW190355  11.016   8.946  13.924
29486SOL    HW290356  11.080   8.810  13.907
29487SOL     OW90357  12.254  11.753   2.571
29487SOL    HW190358  12.333  11.756   2.624
29487SOL    HW290359  12.201  11.826   2.603
29488SOL     OW90360  11.852   2.069   1.428
29488SOL    HW190361  11.864   2.079   1.523
29488SOL    HW290362  11.814   1.982   1.418
29489SOL     OW90363   8.402  14.475   0.500
29489SOL    HW190364   8.410  14.392   0.454
29489SOL    HW290365   8.435  14.458   0.588
29490SOL     OW90366   6.364   7.346  13.714
29490SOL    HW190367   6.432   7.409  13.689
29490SOL    HW290368   6.374   7.338  13.809
29491SOL     OW90369   0.536   7.781  11.428
29491SOL    HW190370   0.445   7.806  11.415
29491SOL    HW290371   0.586   7.846  11.378
29492SOL     OW90372   7.424  12.276  13.267
29492SOL    HW190373   7.451  12.353  13.216
29492SOL    HW290374   7.329  12.274  13.261
29493SOL     OW90375   2.010  11.468   8.878
29493SOL    HW190376   1.951  11.464   8.954
29493SOL    HW290377   2.083  11.523   8.908
29494SOL     OW90378  13.524   3.158   2.019
29494SOL    HW190379  13.579   3.202   2.084
29494SOL    HW290380  13.548   3.066   2.025
29495SOL     OW90381  13.039  11.252   4.848
29495SOL    HW190382  13.017  11.246   4.941
29495SOL    HW290383  12.960  11.225   4.802
29496SOL     OW90384  12.179   4.468  13.612
29496SOL    HW190385  12.091   4.450  13.644
29496SOL    HW290386  12.203   4.389  13.563
29497SOL     OW90387   5.056   8.842   3.577
29497SOL    HW190388   5.022   8.925   3.610
29497SOL    HW290389   4.989   8.778   3.600
29498SOL     OW90390  12.685   5.833   9.297
29498SOL    HW190391  12.684   5.821   9.392
29498SOL    HW290392  12.597   5.862   9.275
29499SOL     OW90393   3.215   7.170   0.267
29499SOL    HW190394   3.286   7.234   0.260
29499SOL    HW290395   3.145   7.207   0.212
29500SOL     OW90396  10.893  10.630   6.467
29500SOL    HW190397  10.923  10.561   6.408
29500SOL    HW290398  10.798  10.619   6.472
29501SOL     OW90399   5.976   7.928   8.584
29501SOL    HW190400   6.065   7.951   8.609
29501SOL    HW290401   5.976   7.932   8.488
29502SOL     OW90402   1.031   3.737   3.768
29502SOL    HW190403   1.067   3.818   3.806
29502SOL    HW290404   0.944   3.761   3.739
29503SOL     OW90405  13.270  11.808  14.162
29503SOL    HW190406  13.299  11.803  14.071
29503SOL    HW290407  13.346  11.839  14.210
29504SOL     OW90408   9.635   0.005   9.881
29504SOL    HW190409   9.718   0.052   9.883
29504SOL    HW290410   9.640  14.819   9.954
29505SOL     OW90411   3.885  13.099   3.608
29505SOL    HW190412   3.900  13.079   3.516
29505SOL    HW290413   3.912  13.191   3.617
29506SOL     OW90414   3.619   8.272  14.731
29506SOL    HW190415   3.643   8.285  14.823
29506SOL    HW290416   3.702   8.250  14.688
29507SOL     OW90417   7.519   4.927   4.021
29507SOL    HW190418   7.527   5.023   4.022
29507SOL    HW290419   7.563   4.900   3.941
29508SOL     OW90420   5.708  12.706   4.696
29508SOL    HW190421   5.776  12.653   4.656
29508SOL    HW290422   5.673  12.651   4.767
29509SOL     OW90423   1.385   4.492  10.940
29509SOL    HW190424   1.412   4.532  10.857
29509SOL    HW290425   1.394   4.398  10.926
29510SOL     OW90426   3.566   5.004   2.850
29510SOL    HW190427   3.581   5.063   2.776
29510SOL    HW290428   3.583   4.917   2.813
29511SOL     OW90429   1.811   5.432  13.335
29511SOL    HW190430   1.884   5.412  13.277
29511SOL    HW290431   1.849   5.490  13.402
29512SOL     OW90432   0.168   8.796  14.791
29512SOL    HW190433   0.171   8.799   0.011
29512SOL    HW290434   0.240   8.851  14.761
29513SOL     OW90435  11.154   5.820   6.121
29513SOL    HW190436  11.106   5.751   6.074
29513SOL    HW290437  11.124   5.813   6.211
29514SOL     OW90438  11.320   1.221   5.512
29514SOL    HW190439  11.373   1.229   5.433
29514SOL    HW290440  11.257   1.152   5.491
29515SOL     OW90441  12.803   1.248   8.896
29515SOL    HW190442  12.849   1.226   8.815
29515SOL    HW290443  12.850   1.322   8.932
29516SOL     OW90444   7.975  11.399  13.325
29516SOL    HW190445   8.046  11.355  13.278
29516SOL    HW290446   7.990  11.378  13.417
29517SOL     OW90447   8.585   6.395   8.191
29517SOL    HW190448   8.557   6.372   8.280
29517SOL    HW290449   8.509   6.375   8.136
29518SOL     OW90450   4.664   6.454   1.315
29518SOL    HW190451   4.675   6.359   1.327
29518SOL    HW290452   4.644   6.486   1.403
29519SOL     OW90453  12.450  14.815   3.958
29519SOL    HW190454  12.379  14.751   3.955
29519SOL    HW290455  12.530  14.762   3.953
29520SOL     OW90456  13.632  10.737   3.187
29520SOL    HW190457  13.679  10.717   3.268
29520SOL    HW290458  13.700  10.764   3.125
29521SOL     OW90459  11.183  10.020  12.286
29521SOL    HW190460  11.095  10.052  12.265
29521SOL    HW290461  11.232  10.029  12.204
29522SOL     OW90462  11.309   1.098   6.723
29522SOL    HW190463  11.292   1.155   6.647
29522SOL    HW290464  11.277   1.012   6.696
29523SOL     OW90465   4.283  11.620   4.750
29523SOL    HW190466   4.326  11.536   4.737
29523SOL    HW290467   4.242  11.614   4.837
29524SOL     OW90468   7.795  13.358   5.920
29524SOL    HW190469   7.717  13.319   5.960
29524SOL    HW290470   7.803  13.444   5.962
29525SOL     OW90471   9.665  14.233   4.696
29525SOL    HW190472   9.612  14.199   4.624
29525SOL    HW290473   9.741  14.175   4.699
29526SOL     OW90474  10.825   6.847   0.752
29526SOL    HW190475  10.767   6.818   0.823
29526SOL    HW290476  10.892   6.779   0.747
29527SOL     OW90477  11.334   3.573   9.603
29527SOL    HW190478  11.274   3.533   9.539
29527SOL    HW290479  11.334   3.666   9.580
29528SOL     OW90480  13.254  14.664   8.053
29528SOL    HW190481  13.332  14.612   8.071
29528SOL    HW290482  13.199  14.608   7.998
29529SOL     OW90483   8.036   1.589   4.603
29529SOL    HW190484   8.068   1.613   4.516
29529SOL    HW290485   7.994   1.669   4.636
29530SOL     OW90486   7.214   1.210   0.700
29530SOL    HW190487   7.243   1.279   0.640
29530SOL    HW290488   7.130   1.181   0.664
29531SOL     OW90489   9.810   6.605  11.299
29531SOL    HW190490   9.765   6.671  11.246
29531SOL    HW290491   9.767   6.610  11.385
29532SOL     OW90492  11.751  14.387   2.417
29532SOL    HW190493  11.794  14.448   2.477
29532SOL    HW290494  11.821  14.328   2.389
29533SOL     OW90495  12.866   6.572   4.624
29533SOL    HW190496  12.865   6.562   4.720
29533SOL    HW290497  12.792   6.520   4.594
29534SOL     OW90498   9.740   3.111   5.339
29534SOL    HW190499   9.792   3.075   5.410
29534SOL    HW290500   9.790   3.187   5.308
29535SOL     OW90501   2.711   7.258  12.635
29535SOL    HW190502   2.714   7.168  12.667
29535SOL    HW290503   2.626   7.265  12.592
29536SOL     OW90504   3.993  10.871  12.785
29536SOL    HW190505   3.931  10.827  12.726
29536SOL    HW290506   4.065  10.810  12.794
29537SOL     OW90507   7.804  11.255   7.338
29537SOL    HW190508   7.877  11.194   7.332
29537SOL    HW290509   7.825  11.310   7.413
29538SOL     OW90510   3.557   0.638   3.969
29538SOL    HW190511   3.499   0.656   4.043
29538SOL    HW290512   3.507   0.579   3.913
29539SOL     OW90513  10.933   8.224   0.394
29539SOL    HW190514  10.951   8.313   0.425
29539SOL    HW290515  10.846   8.204   0.427
29540SOL     OW90516   6.665  12.021   7.647
29540SOL    HW190517   6.661  12.110   7.682
29540SOL    HW290518   6.590  12.015   7.588
29541SOL     OW90519   5.080  10.490   8.892
29541SOL    HW190520   5.050  10.509   8.981
29541SOL    HW290521   5.170  10.458   8.903
29542SOL     OW90522   8.438   4.315   2.140
29542SOL    HW190523   8.437   4.239   2.198
29542SOL    HW290524   8.442   4.390   2.198
29543SOL     OW90525   2.077  12.914   2.226
29543SOL    HW190526   2.015  12.984   2.246
29543SOL    HW290527   2.111  12.936   2.139
29544SOL     OW90528   6.097   2.935   6.134
29544SOL    HW190529   6.068   2.952   6.045
29544SOL    HW290530   6.045   2.859   6.162
29545SOL     OW90531   5.632   4.756  10.053
29545SOL    HW190532   5.718   4.798  10.055
29545SOL    HW290533   5.632   4.699  10.130
29546SOL     OW90534   7.106  13.808  10.401
29546SOL    HW190535   7.120  13.902  10.387
29546SOL    HW290536   7.194  13.771  10.409
29547SOL     OW90537   5.564   6.147   6.349
29547SOL    HW190538   5.484   6.111   6.309
29547SOL    HW290539   5.610   6.190   6.277
29548SOL     OW90540  10.646   4.649  13.280
29548SOL    HW190541  10.649   4.553  13.282
29548SOL    HW290542  10.737   4.676  13.273
29549SOL     OW90543   7.859   7.487   1.590
29549SOL    HW190544   7.771   7.501   1.625
29549SOL    HW290545   7.915   7.538   1.648
29550SOL     OW90546   3.729   6.959   7.452
29550SOL    HW190547   3.819   6.936   7.427
29550SOL    HW290548   3.737   7.044   7.494
29551SOL     OW90549   9.893  14.402   3.348
29551SOL    HW190550   9.892  14.498   3.347
29551SOL    HW290551   9.962  14.378   3.286
29552SOL     OW90552  13.810  11.586   8.614
29552SOL    HW190553  13.822  11.496   8.582
29552SOL    HW290554  13.718  11.606   8.594
29553SOL     OW90555   8.847   4.521   4.314
29553SOL    HW190556   8.901   4.472   4.377
29553SOL    HW290557   8.868   4.481   4.229
29554SOL     OW90558   9.416   0.842   6.504
29554SOL    HW190559   9.452   0.807   6.422
29554SOL    HW290560   9.324   0.856   6.485
29555SOL     OW90561  11.424  13.767   7.182
29555SOL    HW190562  11.500  13.802   7.230
29555SOL    HW290563  11.462  13.712   7.114
29556SOL     OW90564  10.470   2.198  10.067
29556SOL    HW190565  10.524   2.167   9.995
29556SOL    HW290566  10.498   2.288  10.081
29557SOL     OW90567   0.697   7.083  13.846
29557SOL    HW190568   0.790   7.060  13.849
29557SOL    HW290569   0.652   6.999  13.841
29558SOL     OW90570   7.009   1.012  13.227
29558SOL    HW190571   6.963   1.085  13.184
29558SOL    HW290572   6.954   0.936  13.209
29559SOL     OW90573   0.361   3.904  12.476
29559SOL    HW190574   0.282   3.852  12.460
29559SOL    HW290575   0.347   3.942  12.563
29560SOL     OW90576  14.588   6.514  13.896
29560SOL    HW190577  14.621   6.470  13.818
29560SOL    HW290578  14.496   6.490  13.900
29561SOL     OW90579  12.139  10.058   7.350
29561SOL    HW190580  12.177   9.998   7.414
29561SOL    HW290581  12.155  10.016   7.265
29562SOL     OW90582   6.041   9.729  10.378
29562SOL    HW190583   6.075   9.641  10.363
29562SOL    HW290584   6.029   9.734  10.473
29563SOL     OW90585   0.798   7.845   4.635
29563SOL    HW190586   0.886   7.882   4.646
29563SOL    HW290587   0.743   7.893   4.697
29564SOL     OW90588   7.267  14.725   3.253
29564SOL    HW190589   7.174  14.745   3.248
29564SOL    HW290590   7.311  14.806   3.227
29565SOL     OW90591   2.899   7.676  10.592
29565SOL    HW190592   2.820   7.633  10.559
29565SOL    HW290593   2.947   7.606  10.637
29566SOL     OW90594   8.209   6.010   0.145
29566SOL    HW190595   8.129   6.039   0.187
29566SOL    HW290596   8.259   6.090   0.127
29567SOL     OW90597  14.561  10.506   5.490
29567SOL    HW190598  14.630  10.450   5.527
29567SOL    HW290599  14.535  10.461   5.410
29568SOL     OW90600   4.268  11.394   1.428
29568SOL    HW190601   4.184  11.438   1.436
29568SOL    HW290602   4.296  11.412   1.338
29569SOL     OW90603  11.251   4.072   9.614
29569SOL    HW190604  11.199   4.066   9.694
29569SOL    HW290605  11.253   4.166   9.594
29570SOL     OW90606   8.682  10.211   4.783
29570SOL    HW190607   8.672  10.198   4.877
29570SOL    HW290608   8.744  10.143   4.756
29571SOL     OW90609   0.429  10.121  10.688
29571SOL    HW190610   0.354  10.149  10.742
29571SOL    HW290611   0.389  10.082  10.610
29572SOL     OW90612   0.239   0.655   9.561
29572SOL    HW190613   0.300   0.727   9.547
29572SOL    HW290614   0.227   0.616   9.474
29573SOL     OW90615   2.586  10.042   9.512
29573SOL    HW190616   2.510  10.041   9.571
29573SOL    HW290617   2.597   9.951   9.486
29574SOL     OW90618   1.331  14.738   3.278
29574SOL    HW190619   1.413  14.754   3.325
29574SOL    HW290620   1.323  14.642   3.277
29575SOL     OW90621   4.812  14.685   9.873
29575SOL    HW190622   4.848  14.602   9.841
29575SOL    HW290623   4.736  14.702   9.818
29576SOL     OW90624  10.410   5.346   9.700
29576SOL    HW190625  10.361   5.424   9.675
29576SOL    HW290626  10.394   5.283   9.629
29577SOL     OW90627  14.026   5.115   3.270
29577SOL    HW190628  14.026   5.055   3.344
29577SOL    HW290629  14.097   5.177   3.289
29578SOL     OW90630   7.952   1.426   7.503
29578SOL    HW190631   7.943   1.430   7.598
29578SOL    HW290632   8.046   1.427   7.488
29579SOL     OW90633   9.814  11.126   8.572
29579SOL    HW190634   9.753  11.199   8.583
29579SOL    HW290635   9.824  11.117   8.478
29580SOL     OW90636   7.623   6.151   9.850
29580SOL    HW190637   7.566   6.220   9.883
29580SOL    HW290638   7.610   6.152   9.755
29581SOL     OW90639   0.131  13.138  12.805
29581SOL    HW190640   0.039  13.162  12.809
29581SOL    HW290641   0.153  13.144  12.712
29582SOL     OW90642   3.062  11.647   8.298
29582SOL    HW190643   3.114  11.575   8.335
29582SOL    HW290644   3.062  11.713   8.367
29583SOL     OW90645   5.235  13.264   9.061
29583SOL    HW190646   5.256  13.346   9.016
29583SOL    HW290647   5.164  13.287   9.121
29584SOL     OW90648   1.381  12.807  10.647
29584SOL    HW190649   1.312  12.811  10.581
29584SOL    HW290650   1.419  12.720  10.638
29585SOL     OW90651   6.121   0.207   5.593
29585SOL    HW190652   6.128   0.302   5.586
29585SOL    HW290653   6.045   0.185   5.538
29586SOL     OW90654  14.532  12.664   4.017
29586SOL    HW190655  14.465  12.645   4.083
29586SOL    HW290656  14.491  12.729   3.960
29587SOL     OW90657   7.921   4.310  10.549
29587SOL    HW190658   8.012   4.317  10.578
29587SOL    HW290659   7.884   4.396  10.567
29588SOL     OW90660   3.879   2.645  14.156
29588SOL    HW190661   3.815   2.597  14.209
29588SOL    HW290662   3.829   2.717  14.118
29589SOL     OW90663   6.249   4.340  12.732
29589SOL    HW190664   6.311   4.344  12.805
29589SOL    HW290665   6.237   4.247  12.717
29590SOL     OW90666  11.003   1.287   5.365
29590SOL    HW190667  10.958   1.363   5.328
29590SOL    HW290668  10.978   1.286   5.457
29591SOL     OW90669  14.020   9.121  11.562
29591SOL    HW190670  13.938   9.166  11.542
29591SOL    HW290671  14.000   9.068  11.639
29592SOL     OW90672   8.872  13.687   3.750
29592SOL    HW190673   8.823  13.734   3.817
29592SOL    HW290674   8.922  13.621   3.798
29593SOL     OW90675   5.083   5.845   7.180
29593SOL    HW190676   5.167   5.878   7.211
29593SOL    HW290677   5.023   5.918   7.192
29594SOL     OW90678   6.104   3.137   6.632
29594SOL    HW190679   6.130   3.209   6.575
29594SOL    HW290680   6.096   3.062   6.573
29595SOL     OW90681   2.090  13.984  10.111
29595SOL    HW190682   2.077  14.047  10.040
29595SOL    HW290683   2.033  14.015  10.181
29596SOL     OW90684   9.145  11.019   3.423
29596SOL    HW190685   9.204  11.055   3.489
29596SOL    HW290686   9.083  10.966   3.473
29597SOL     OW90687  13.977  11.193  10.938
29597SOL    HW190688  13.983  11.271  10.883
29597SOL    HW290689  13.892  11.154  10.915
29598SOL     OW90690   3.910   7.553   3.769
29598SOL    HW190691   3.930   7.497   3.843
29598SOL    HW290692   3.931   7.500   3.692
29599SOL     OW90693   8.501  12.705   4.959
29599SOL    HW190694   8.531  12.685   5.048
29599SOL    HW290695   8.501  12.621   4.914
29600SOL     OW90696  14.737   1.728   9.841
29600SOL    HW190697  14.665   1.741   9.903
29600SOL    HW290698  14.815   1.758   9.887
29601SOL     OW90699  10.428   3.204   9.132
29601SOL    HW190700  10.489   3.142   9.172
29601SOL    HW290701  10.475   3.288   9.134
29602SOL     OW90702  14.048  10.871   8.851
29602SOL    HW190703  14.097  10.947   8.821
29602SOL    HW290704  14.099  10.836   8.924
29603SOL     OW90705  14.851  14.281   2.123
29603SOL    HW190706  14.791  14.241   2.059
29603SOL    HW290707   0.055  14.227   2.118
29604SOL     OW90708  10.464   2.507   1.834
29604SOL    HW190709  10.479   2.597   1.865
29604SOL    HW290710  10.492   2.452   1.907
29605SOL     OW90711   8.464   1.259   0.932
29605SOL    HW190712   8.402   1.195   0.898
29605SOL    HW290713   8.550   1.219   0.919
29606SOL     OW90714  10.581  13.237  12.377
29606SOL    HW190715  10.505  13.202  12.330
29606SOL    HW290716  10.574  13.200  12.465
29607SOL     OW90717  13.452   9.324   3.249
29607SOL    HW190718  13.496   9.319   3.333
29607SOL    HW290719  13.417   9.413   3.245
29608SOL     OW90720   7.508  13.284   0.174
29608SOL    HW190721   7.583  13.293   0.234
29608SOL    HW290722   7.539  13.323   0.092
29609SOL     OW90723  12.683   3.927  11.596
29609SOL    HW190724  12.648   3.981  11.667
29609SOL    HW290725  12.650   3.839  11.614
29610SOL     OW90726   2.972   2.446   1.120
29610SOL    HW190727   3.062   2.429   1.092
29610SOL    HW290728   2.929   2.484   1.043
29611SOL     OW90729   0.278   6.422   5.282
29611SOL    HW190730   0.231   6.388   5.359
29611SOL    HW290731   0.261   6.357   5.214
29612SOL     OW90732  12.127   1.291   1.687
29612SOL    HW190733  12.032   1.296   1.681
29612SOL    HW290734  12.149   1.340   1.766
29613SOL     OW90735   7.382   5.138  14.579
29613SOL    HW190736   7.474   5.111  14.573
29613SOL    HW290737   7.381   5.227  14.543
29614SOL     OW90738   4.592   5.003   0.095
29614SOL    HW190739   4.682   5.028   0.113
29614SOL    HW290740   4.543   5.086   0.096
29615SOL     OW90741  10.208   9.927   4.186
29615SOL    HW190742  10.209   9.945   4.092
29615SOL    HW290743  10.214  10.013   4.227
29616SOL     OW90744   3.483   1.281   3.924
29616SOL    HW190745   3.554   1.336   3.891
29616SOL    HW290746   3.463   1.318   4.010
29617SOL     OW90747  12.674  14.528   7.402
29617SOL    HW190748  12.740  14.478   7.449
29617SOL    HW290749  12.718  14.556   7.321
29618SOL     OW90750   0.487   7.035  13.427
29618SOL    HW190751   0.491   7.110  13.368
29618SOL    HW290752   0.577   7.005  13.434
29619SOL     OW90753   4.859  13.813   6.354
29619SOL    HW190754   4.799  13.888   6.356
29619SOL    HW290755   4.833  13.759   6.428
29620SOL     OW90756  12.822   1.040   5.190
29620SOL    HW190757  12.849   1.017   5.101
29620SOL    HW290758  12.813   1.135   5.189
29621SOL     OW90759   9.865  10.118   7.295
29621SOL    HW190760   9.916  10.107   7.375
29621SOL    HW290761   9.805  10.190   7.314
29622SOL     OW90762   7.018   4.306   3.660
29622SOL    HW190763   7.066   4.388   3.651
29622SOL    HW290764   7.064   4.244   3.604
29623SOL     OW90765  14.578   3.847  12.160
29623SOL    HW190766  14.524   3.895  12.097
29623SOL    HW290767  14.514   3.798  12.213
29624SOL     OW90768   5.204   1.101   8.029
29624SOL    HW190769   5.291   1.065   8.012
29624SOL    HW290770   5.218   1.165   8.098
29625SOL     OW90771   0.150   4.775   3.717
29625SOL    HW190772   0.194   4.768   3.633
29625SOL    HW290773   0.116   4.688   3.735
29626SOL     OW90774   8.027   4.202   0.122
29626SOL    HW190775   7.949   4.247   0.090
29626SOL    HW290776   8.079   4.271   0.164
29627SOL     OW90777   9.138  10.881   8.494
29627SOL    HW190778   9.174  10.814   8.552
29627SOL    HW290779   9.043  10.872   8.503
29628SOL     OW90780   3.945   8.539  10.478
29628SOL    HW190781   3.957   8.556  10.571
29628SOL    HW290782   4.015   8.590  10.435
29629SOL     OW90783   5.342   4.449   7.647
29629SOL    HW190784   5.422   4.462   7.596
29629SOL    HW290785   5.274   4.434   7.583
29630SOL     OW90786  12.366   9.805   2.551
29630SOL    HW190787  12.357   9.872   2.484
29630SOL    HW290788  12.287   9.751   2.542
29631SOL     OW90789   1.780  14.392   6.269
29631SOL    HW190790   1.730  14.453   6.322
29631SOL    HW290791   1.846  14.356   6.328
29632SOL     OW90792   6.336  13.125   5.547
29632SOL    HW190793   6.261  13.067   5.533
29632SOL    HW290794   6.331  13.187   5.474
29633SOL     OW90795   2.443  11.252  12.543
29633SOL    HW190796   2.374  11.292  12.596
29633SOL    HW290797   2.430  11.287  12.455
29634SOL     OW90798   4.971   3.361   1.613
29634SOL    HW190799   4.979   3.294   1.545
29634SOL    HW290800   4.879   3.356   1.640
29635SOL     OW90801   6.506   6.728   8.846
29635SOL    HW190802   6.496   6.719   8.751
29635SOL    HW290803   6.600   6.719   8.861
29636SOL     OW90804   0.819   0.783   5.609
29636SOL    HW190805   0.799   0.833   5.530
29636SOL    HW290806   0.840   0.850   5.675
29637SOL     OW90807   4.641  12.353   3.751
29637SOL    HW190808   4.576  12.334   3.820
29637SOL    HW290809   4.698  12.276   3.751
29638SOL     OW90810   2.672   7.476   4.918
29638SOL    HW190811   2.651   7.396   4.872
29638SOL    HW290812   2.588   7.509   4.951
29639SOL     OW90813   7.523   4.105  10.119
29639SOL    HW190814   7.593   4.047  10.147
29639SOL    HW290815   7.453   4.090  10.182
29640SOL     OW90816   2.105   8.861   6.308
29640SOL    HW190817   2.100   8.805   6.230
29640SOL    HW290818   2.076   8.947   6.277
29641SOL     OW90819   9.072  14.416   5.492
29641SOL    HW190820   9.103  14.434   5.581
29641SOL    HW290821   9.115  14.333   5.469
29642SOL     OW90822   6.238  11.993  10.217
29642SOL    HW190823   6.204  12.052  10.285
29642SOL    HW290824   6.316  12.038  10.184
29643SOL     OW90825  11.212   0.800   9.243
29643SOL    HW190826  11.151   0.728   9.226
29643SOL    HW290827  11.176   0.844   9.321
29644SOL     OW90828   9.135   1.359   9.858
29644SOL    HW190829   9.068   1.299   9.825
29644SOL    HW290830   9.154   1.417   9.784
29645SOL     OW90831   9.723  10.594   0.094
29645SOL    HW190832   9.809  10.582   0.134
29645SOL    HW290833   9.661  10.555   0.156
29646SOL     OW90834   9.088   5.872   6.141
29646SOL    HW190835   9.098   5.777   6.150
29646SOL    HW290836   9.079   5.886   6.046
29647SOL     OW90837   8.669  13.449   8.118
29647SOL    HW190838   8.728  13.374   8.114
29647SOL    HW290839   8.655  13.473   8.027
29648SOL     OW90840   3.717   3.879   4.015
29648SOL    HW190841   3.720   3.895   3.920
29648SOL    HW290842   3.642   3.929   4.045
29649SOL     OW90843   4.798   8.175  13.732
29649SOL    HW190844   4.893   8.171  13.746
29649SOL    HW290845   4.770   8.249  13.786
29650SOL     OW90846   2.558   3.141   1.811
29650SOL    HW190847   2.504   3.105   1.881
29650SOL    HW290848   2.635   3.084   1.809
29651SOL     OW90849  10.974   3.428  10.862
29651SOL    HW190850  10.879   3.432  10.853
29651SOL    HW290851  10.988   3.408  10.954
29652SOL     OW90852   9.434   3.316  11.615
29652SOL    HW190853   9.500   3.384  11.598
29652SOL    HW290854   9.485   3.235  11.624
29653SOL     OW90855   5.122   5.091  13.756
29653SOL    HW190856   5.204   5.119  13.714
29653SOL    HW290857   5.147   5.013  13.806
29654SOL     OW90858  10.144  13.281  11.316
29654SOL    HW190859  10.202  13.320  11.381
29654SOL    HW290860  10.056  13.298  11.350
29655SOL     OW90861   7.118   7.614   2.538
29655SOL    HW190862   7.071   7.650   2.463
29655SOL    HW290863   7.199   7.578   2.500
29656SOL     OW90864  13.141   9.782   1.054
29656SOL    HW190865  13.219   9.739   1.090
29656SOL    HW290866  13.152   9.773   0.959
29657SOL     OW90867  12.040   0.095   6.155
29657SOL    HW190868  12.048   0.030   6.225
29657SOL    HW290869  11.958   0.141   6.173
29658SOL     OW90870   8.298  10.991   3.255
29658SOL    HW190871   8.267  11.001   3.346
29658SOL    HW290872   8.343  10.906   3.254
29659SOL     OW90873   7.288  13.758   3.019
29659SOL    HW190874   7.201  13.753   2.979
29659SOL    HW290875   7.284  13.836   3.075
29660SOL     OW90876  13.466   3.221   8.248
29660SOL    HW190877  13.449   3.278   8.173
29660SOL    HW290878  13.389   3.164   8.252
29661SOL     OW90879   5.747  14.864   3.597
29661SOL    HW190880   5.742  14.854   3.502
29661SOL    HW290881   5.779   0.078   3.609
29662SOL     OW90882   0.687  11.213   5.455
29662SOL    HW190883   0.766  11.265   5.467
29662SOL    HW290884   0.687  11.191   5.361
29663SOL     OW90885   3.294   9.589   9.572
29663SOL    HW190886   3.372   9.549   9.612
29663SOL    HW290887   3.328   9.669   9.531
29664SOL     OW90888   2.719  13.707  11.125
29664SOL    HW190889   2.744  13.796  11.100
29664SOL    HW290890   2.648  13.718  11.188
29665SOL     OW90891   1.402   8.226  10.624
29665SOL    HW190892   1.467   8.186  10.566
29665SOL    HW290893   1.413   8.320  10.611
29666SOL     OW90894  10.726   6.240   6.384
29666SOL    HW190895  10.810   6.201   6.409
29666SOL    HW290896  10.733   6.255   6.290
29667SOL     OW90897   0.844  11.604  10.391
29667SOL    HW190898   0.899  11.678  10.365
29667SOL    HW290899   0.772  11.604  10.328
29668SOL     OW90900  14.347   1.984  12.230
29668SOL    HW190901  14.309   2.066  12.197
29668SOL    HW290902  14.421   1.967  12.171
29669SOL     OW90903  11.569   6.473  14.101
29669SOL    HW190904  11.506   6.404  14.123
29669SOL    HW290905  11.638   6.463  14.166
29670SOL     OW90906  14.856   6.844  12.948
29670SOL    HW190907  14.808   6.888  13.017
29670SOL    HW290908   0.031   6.913  12.905
29671SOL     OW90909   8.974   2.391   8.571
29671SOL    HW190910   8.905   2.372   8.634
29671SOL    HW290911   9.055   2.378   8.621
29672SOL     OW90912  14.665   2.360   7.961
29672SOL    HW190913  14.729   2.431   7.967
29672SOL    HW290914  14.582   2.403   7.942
29673SOL     OW90915   3.969   9.512  11.923
29673SOL    HW190916   3.901   9.446  11.911
29673SOL    HW290917   4.051   9.463  11.916
29674SOL     OW90918   4.460  14.310   7.511
29674SOL    HW190919   4.440  14.399   7.480
29674SOL    HW290920   4.496  14.266   7.434
29675SOL     OW90921   7.515   0.951   9.523
29675SOL    HW190922   7.448   1.013   9.494
29675SOL    HW290923   7.514   0.959   9.619
29676SOL     OW90924   3.363  11.094  13.017
29676SOL    HW190925   3.426  11.041  13.066
29676SOL    HW290926   3.416  11.165  12.981
29677SOL     OW90927   2.985  11.498   1.138
29677SOL    HW190928   3.047  11.504   1.211
29677SOL    HW290929   2.974  11.588   1.108
29678SOL     OW90930  14.218  10.643  10.886
29678SOL    HW190931  14.309  10.614  10.894
29678SOL    HW290932  14.177  10.617  10.968
29679SOL     OW90933   7.545   7.271  11.409
29679SOL    HW190934   7.580   7.313  11.331
29679SOL    HW290935   7.616   7.276  11.473
29680SOL     OW90936  10.402   5.710   5.653
29680SOL    HW190937  10.438   5.649   5.588
29680SOL    HW290938  10.359   5.653   5.717
29681SOL     OW90939   4.769   4.333   7.463
29681SOL    HW190940   4.765   4.240   7.485
29681SOL    HW290941   4.842   4.367   7.515
29682SOL     OW90942   2.897   3.315   7.162
29682SOL    HW190943   2.814   3.268   7.171
29682SOL    HW290944   2.934   3.283   7.079
29683SOL     OW90945  11.323   9.407  14.551
29683SOL    HW190946  11.296   9.410  14.643
29683SOL    HW290947  11.320   9.498  14.522
29684SOL     OW90948  13.501  13.115  11.821
29684SOL    HW190949  13.545  13.119  11.906
29684SOL    HW290950  13.408  13.128  11.842
29685SOL     OW90951  11.426  14.638   8.271
29685SOL    HW190952  11.433  14.634   8.176
29685SOL    HW290953  11.515  14.621   8.303
29686SOL     OW90954  10.306   9.889   6.904
29686SOL    HW190955  10.379   9.928   6.855
29686SOL    HW290956  10.324   9.795   6.901
29687SOL     OW90957  11.988   9.415  14.594
29687SOL    HW190958  12.005   9.350  14.527
29687SOL    HW290959  11.893   9.413  14.606
29688SOL     OW90960  13.107   1.035   6.808
29688SOL    HW190961  13.039   1.063   6.747
29688SOL    HW290962  13.188   1.071   6.772
29689SOL     OW90963  14.378  13.598   4.204
29689SOL    HW190964  14.400  13.580   4.113
29689SOL    HW290965  14.459  13.580   4.252
29690SOL     OW90966   6.870  14.098  12.280
29690SOL    HW190967   6.899  14.186  12.301
29690SOL    HW290968   6.942  14.060  12.230
29691SOL     OW90969   9.510  14.577   1.744
29691SOL    HW190970   9.456  14.503   1.773
29691SOL    HW290971   9.558  14.543   1.668
29692SOL     OW90972   3.603   6.147   3.446
29692SOL    HW190973   3.580   6.059   3.476
29692SOL    HW290974   3.546   6.205   3.496
29693SOL     OW90975   6.588  11.736   6.467
29693SOL    HW190976   6.535  11.806   6.507
29693SOL    HW290977   6.535  11.706   6.393
29694SOL     OW90978   7.711  14.224   2.458
29694SOL    HW190979   7.765  14.212   2.536
29694SOL    HW290980   7.642  14.159   2.465
29695SOL     OW90981   7.499   8.181   7.969
29695SOL    HW190982   7.584   8.139   7.961
29695SOL    HW290983   7.472   8.163   8.059
29696SOL     OW90984   6.162  11.897   0.954
29696SOL    HW190985   6.114  11.826   0.912
29696SOL    HW290986   6.218  11.854   1.018
29697SOL     OW90987  13.519   2.662   0.347
29697SOL    HW190988  13.464   2.690   0.273
29697SOL    HW290989  13.470   2.592   0.388
29698SOL     OW90990  14.254  10.677   1.918
29698SOL    HW190991  14.300  10.758   1.897
29698SOL    HW290992  14.223  10.689   2.007
29699SOL     OW90993   9.548   5.638  14.799
29699SOL    HW190994   9.573   5.700  14.866
29699SOL    HW290995   9.576   5.678  14.716
29700SOL     OW90996  12.112   9.306   3.032
29700SOL    HW190997  12.092   9.343   3.118
29700SOL    HW290998  12.083   9.215   3.038
29701SOL     OW90999  11.517   9.061   0.389
29701SOL    HW191000  11.451   9.074   0.321
29701SOL    HW291001  11.483   9.107   0.466
29702SOL     OW91002   3.779   5.311   3.393
29702SOL    HW191003   3.731   5.321   3.311
29702SOL    HW291004   3.862   5.271   3.367
29703SOL     OW91005   9.818  11.613   5.602
29703SOL    HW191006   9.793  11.546   5.667
29703SOL    HW291007   9.898  11.579   5.563
29704SOL     OW91008  14.342  11.329   7.720
29704SOL    HW191009  14.272  11.380   7.678
29704SOL    HW291010  14.306  11.240   7.726
29705SOL     OW91011   4.181   3.862   3.858
29705SOL    HW191012   4.192   3.915   3.779
29705SOL    HW291013   4.088   3.844   3.862
29706SOL     OW91014  12.855   1.247  10.970
29706SOL    HW191015  12.858   1.260  10.875
29706SOL    HW291016  12.787   1.181  10.984
29707SOL     OW91017   0.977   6.190   9.830
29707SOL    HW191018   0.986   6.163   9.921
29707SOL    HW291019   0.999   6.111   9.780
29708SOL     OW91020   3.535   2.040   3.147
29708SOL    HW191021   3.470   2.042   3.077
29708SOL    HW291022   3.527   1.952   3.185
29709SOL     OW91023   1.937  11.651   2.520
29709SOL    HW191024   1.950  11.727   2.576
29709SOL    HW291025   1.862  11.674   2.465
29710SOL     OW91026   4.082   3.149  11.872
29710SOL    HW191027   4.028   3.214  11.918
29710SOL    HW291028   4.164   3.194  11.855
29711SOL     OW91029  14.117  10.147   5.481
29711SOL    HW191030  14.193  10.116   5.531
29711SOL    HW291031  14.153  10.209   5.418
29712SOL     OW91032   5.558   0.503  11.614
29712SOL    HW191033   5.528   0.499  11.705
29712SOL    HW291034   5.518   0.427  11.572
29713SOL     OW91035  13.268   8.681   3.841
29713SOL    HW191036  13.314   8.765   3.848
29713SOL    HW291037  13.180   8.705   3.809
29714SOL     OW91038   5.311   6.452  14.108
29714SOL    HW191039   5.286   6.487  14.022
29714SOL    HW291040   5.329   6.529  14.161
29715SOL     OW91041   5.516  14.073  14.212
29715SOL    HW191042   5.549  14.100  14.297
29715SOL    HW291043   5.590  14.088  14.152
29716SOL     OW91044   2.667  11.532   2.263
29716SOL    HW191045   2.576  11.510   2.283
29716SOL    HW291046   2.703  11.562   2.346
29717SOL     OW91047   9.232   9.258  12.721
29717SOL    HW191048   9.317   9.302  12.715
29717SOL    HW291049   9.187   9.300  12.794
29718SOL     OW91050   6.292   8.103   5.568
29718SOL    HW191051   6.215   8.118   5.513
29718SOL    HW291052   6.324   8.017   5.541
29719SOL     OW91053  12.119  13.472   8.281
29719SOL    HW191054  12.110  13.534   8.354
29719SOL    HW291055  12.085  13.390   8.315
29720SOL     OW91056  13.192   1.257  10.961
29720SOL    HW191057  13.239   1.233  11.040
29720SOL    HW291058  13.113   1.303  10.992
29721SOL     OW91059   9.907  13.229  14.828
29721SOL    HW191060   9.913  13.278   0.035
29721SOL    HW291061   9.930  13.292  14.760
29722SOL     OW91062  13.434  12.008  11.359
29722SOL    HW191063  13.416  12.016  11.452
29722SOL    HW291064  13.459  11.916  11.347
29723SOL     OW91065   9.805   6.703   8.004
29723SOL    HW191066   9.727   6.728   8.053
29723SOL    HW291067   9.807   6.763   7.929
29724SOL     OW91068   0.944   8.712   8.141
29724SOL    HW191069   0.913   8.630   8.180
29724SOL    HW291070   0.977   8.686   8.055
29725SOL     OW91071   1.264  14.566   8.081
29725SOL    HW191072   1.267  14.661   8.097
29725SOL    HW291073   1.336  14.550   8.020
29726SOL     OW91074  14.468   7.391   9.440
29726SOL    HW191075  14.452   7.356   9.528
29726SOL    HW291076  14.422   7.330   9.381
29727SOL     OW91077  11.998   5.958   5.223
29727SOL    HW191078  12.059   5.997   5.161
29727SOL    HW291079  11.919   6.012   5.216
29728SOL     OW91080  10.685   3.662   5.917
29728SOL    HW191081  10.622   3.689   5.984
29728SOL    HW291082  10.659   3.710   5.839
29729SOL     OW91083   1.150   6.177   7.794
29729SOL    HW191084   1.118   6.212   7.711
29729SOL    HW291085   1.074   6.133   7.832
29730SOL     OW91086   1.791  11.268   9.395
29730SOL    HW191087   1.783  11.349   9.345
29730SOL    HW291088   1.856  11.216   9.346
29731SOL     OW91089  12.632   4.087   3.137
29731SOL    HW191090  12.667   4.175   3.124
29731SOL    HW291091  12.679   4.053   3.213
29732SOL     OW91092  10.217   3.201   2.474
29732SOL    HW191093  10.277   3.208   2.400
29732SOL    HW291094  10.160   3.278   2.468
29733SOL     OW91095   6.767  14.337   8.072
29733SOL    HW191096   6.750  14.249   8.038
29733SOL    HW291097   6.681  14.379   8.073
29734SOL     OW91098   2.692  11.361   4.566
29734SOL    HW191099   2.736  11.304   4.630
29734SOL    HW291100   2.756  11.430   4.548
29735SOL     OW91101  13.556   1.169   1.368
29735SOL    HW191102  13.467   1.191   1.344
29735SOL    HW291103  13.554   1.075   1.384
29736SOL     OW91104   0.139  14.579  11.945
29736SOL    HW191105   0.124  14.487  11.964
29736SOL    HW291106   0.092  14.626  12.014
29737SOL     OW91107  11.080   7.029   8.083
29737SOL    HW191108  11.019   7.022   8.156
29737SOL    HW291109  11.137   6.953   8.091
29738SOL     OW91110  12.905   5.553   2.981
29738SOL    HW191111  12.944   5.528   2.898
29738SOL    HW291112  12.877   5.644   2.968
29739SOL     OW91113   3.327   5.137   8.226
29739SOL    HW191114   3.319   5.231   8.238
29739SOL    HW291115   3.421   5.121   8.220
29740SOL     OW91116  12.510  11.605  11.979
29740SOL    HW191117  12.584  11.571  12.029
29740SOL    HW291118  12.476  11.529  11.932
29741SOL     OW91119  14.781   3.943   6.034
29741SOL    HW191120  14.867   3.983   6.028
29741SOL    HW291121  14.722   4.006   5.993
29742SOL     OW91122  13.928   2.336   3.259
29742SOL    HW191123  13.852   2.281   3.242
29742SOL    HW291124  13.891   2.420   3.287
29743SOL     OW91125  10.980   8.000   5.058
29743SOL    HW191126  11.038   7.961   4.993
29743SOL    HW291127  10.983   7.939   5.132
29744SOL     OW91128   5.651   4.074   6.888
29744SOL    HW191129   5.573   4.126   6.908
29744SOL    HW291130   5.645   4.059   6.794
29745SOL     OW91131   4.498   8.592   6.169
29745SOL    HW191132   4.487   8.552   6.256
29745SOL    HW291133   4.412   8.584   6.128
29746SOL     OW91134   3.112  12.934  11.203
29746SOL    HW191135   3.061  12.872  11.256
29746SOL    HW291136   3.080  12.920  11.113
29747SOL     OW91137   6.266   0.567  12.559
29747SOL    HW191138   6.338   0.624  12.587
29747SOL    HW291139   6.309   0.486  12.532
29748SOL     OW91140  13.229  13.804   4.628
29748SOL    HW191141  13.151  13.831   4.676
29748SOL    HW291142  13.302  13.840   4.679
29749SOL     OW91143  13.101  10.852   3.732
29749SOL    HW191144  13.031  10.899   3.688
29749SOL    HW291145  13.115  10.900   3.814
29750SOL     OW91146   0.150   4.363   2.627
29750SOL    HW191147   0.225   4.422   2.628
29750SOL    HW291148   0.084   4.410   2.576
29751SOL     OW91149  10.051   5.634   3.932
29751SOL    HW191150  10.040   5.570   3.861
29751SOL    HW291151  10.046   5.581   4.012
29752SOL     OW91152  13.581   2.822   9.938
29752SOL    HW191153  13.631   2.831   9.857
29752SOL    HW291154  13.491   2.844   9.914
29753SOL     OW91155   7.989  14.864  11.387
29753SOL    HW191156   8.033   0.074  11.382
29753SOL    HW291157   8.036  14.810  11.324
29754SOL     OW91158   8.169   5.051   5.258
29754SOL    HW191159   8.191   4.983   5.322
29754SOL    HW291160   8.247   5.108   5.257
29755SOL     OW91161  11.575   7.015   8.122
29755SOL    HW191162  11.507   7.053   8.178
29755SOL    HW291163  11.655   7.060   8.147
29756SOL     OW91164  10.787   3.803   4.777
29756SOL    HW191165  10.843   3.866   4.731
29756SOL    HW291166  10.803   3.820   4.869
29757SOL     OW91167   6.177  11.011   8.625
29757SOL    HW191168   6.255  11.053   8.662
29757SOL    HW291169   6.104  11.046   8.677
29758SOL     OW91170   9.693  11.306  10.125
29758SOL    HW191171   9.779  11.325  10.163
29758SOL    HW291172   9.712  11.284  10.034
29759SOL     OW91173   9.192   2.704  13.150
29759SOL    HW191174   9.252   2.632  13.163
29759SOL    HW291175   9.218   2.769  13.215
29760SOL     OW91176   7.323   9.216  14.499
29760SOL    HW191177   7.304   9.127  14.527
29760SOL    HW291178   7.316   9.213  14.403
29761SOL     OW91179  11.578  12.308  12.900
29761SOL    HW191180  11.647  12.336  12.959
29761SOL    HW291181  11.512  12.377  12.905
29762SOL     OW91182   2.751   6.557   7.323
29762SOL    HW191183   2.827   6.503   7.302
29762SOL    HW291184   2.677   6.496   7.321
29763SOL     OW91185   1.491  10.353  13.724
29763SOL    HW191186   1.456  10.432  13.683
29763SOL    HW291187   1.536  10.384  13.803
29764SOL     OW91188  13.616  11.506  12.900
29764SOL    HW191189  13.630  11.473  12.989
29764SOL    HW291190  13.608  11.428  12.846
29765SOL     OW91191   3.270  10.671  13.567
29765SOL    HW191192   3.236  10.665  13.656
29765SOL    HW291193   3.362  10.697  13.578
29766SOL     OW91194   3.879   0.656   4.568
29766SOL    HW191195   3.893   0.693   4.481
29766SOL    HW291196   3.838   0.571   4.552
29767SOL     OW91197   9.549  10.294   4.051
29767SOL    HW191198   9.617  10.231   4.075
29767SOL    HW291199   9.468  10.243   4.053
29768SOL     OW91200  13.988  13.434  11.177
29768SOL    HW191201  13.945  13.360  11.135
29768SOL    HW291202  13.936  13.510  11.150
29769SOL     OW91203  12.858   3.242   5.602
29769SOL    HW191204  12.787   3.202   5.553
29769SOL    HW291205  12.938   3.211   5.560
29770SOL     OW91206   1.778   3.642   2.767
29770SOL    HW191207   1.809   3.656   2.856
29770SOL    HW291208   1.853   3.667   2.711
29771SOL     OW91209   4.327   6.007   9.290
29771SOL    HW191210   4.273   5.929   9.299
29771SOL    HW291211   4.403   5.991   9.345
29772SOL     OW91212   0.993   8.397  11.241
29772SOL    HW191213   1.085   8.368  11.242
29772SOL    HW291214   0.956   8.359  11.320
29773SOL     OW91215  11.983   2.234   4.646
29773SOL    HW191216  11.895   2.196   4.658
29773SOL    HW291217  11.987   2.305   4.709
29774SOL     OW91218  10.845   8.899  12.310
29774SOL    HW191219  10.927   8.875  12.355
29774SOL    HW291220  10.869   8.972  12.253
29775SOL     OW91221   6.652   4.791   4.581
29775SOL    HW191222   6.719   4.750   4.526
29775SOL    HW291223   6.637   4.728   4.651
29776SOL     OW91224  14.709   9.425   9.068
29776SOL    HW191225  14.642   9.453   9.006
29776SOL    HW291226  14.751   9.507   9.096
29777SOL     OW91227   4.337  13.954   3.815
29777SOL    HW191228   4.280  13.879   3.799
29777SOL    HW291229   4.365  13.943   3.906
29778SOL     OW91230   9.807   8.891  12.565
29778SOL    HW191231   9.815   8.825  12.496
29778SOL    HW291232   9.721   8.930  12.551
29779SOL     OW91233   1.403  13.063  10.078
29779SOL    HW191234   1.370  13.069   9.989
29779SOL    HW291235   1.332  13.097  10.132
29780SOL     OW91236  10.436   7.344   5.865
29780SOL    HW191237  10.444   7.362   5.959
29780SOL    HW291238  10.421   7.429   5.825
29781SOL     OW91239   0.023   0.194   1.746
29781SOL    HW191240  14.863   0.104   1.748
29781SOL    HW291241   0.105   0.186   1.697
29782SOL     OW91242   5.323  10.400   8.895
29782SOL    HW191243   5.391  10.422   8.959
29782SOL    HW291244   5.360  10.329   8.843
29783SOL     OW91245   8.526   0.442  13.824
29783SOL    HW191246   8.537   0.533  13.797
29783SOL    HW291247   8.539   0.392  13.744
29784SOL     OW91248  10.800  12.611  10.833
29784SOL    HW191249  10.840  12.609  10.746
29784SOL    HW291250  10.797  12.704  10.856
29785SOL     OW91251  10.982   1.118   9.070
29785SOL    HW191252  11.020   1.149   9.152
29785SOL    HW291253  11.041   1.151   9.002
29786SOL     OW91254   2.173   9.135   3.550
29786SOL    HW191255   2.165   9.067   3.616
29786SOL    HW291256   2.255   9.179   3.571
29787SOL     OW91257  10.108   5.847   5.188
29787SOL    HW191258  10.041   5.825   5.251
29787SOL    HW291259  10.168   5.772   5.189
29788SOL     OW91260   4.698   3.427  10.386
29788SOL    HW191261   4.627   3.370  10.416
29788SOL    HW291262   4.765   3.367  10.353
29789SOL     OW91263  13.412   9.989   0.359
29789SOL    HW191264  13.480  10.055   0.342
29789SOL    HW291265  13.458   9.905   0.351
29790SOL     OW91266  14.242  10.413  11.048
29790SOL    HW191267  14.304  10.420  11.121
29790SOL    HW291268  14.157  10.401  11.090
29791SOL     OW91269   5.470  10.850   3.347
29791SOL    HW191270   5.555  10.836   3.389
29791SOL    HW291271   5.466  10.784   3.278
29792SOL     OW91272   9.555   3.052   2.811
29792SOL    HW191273   9.507   3.105   2.748
29792SOL    HW291274   9.643   3.044   2.773
29793SOL     OW91275   3.565   4.843   1.898
29793SOL    HW191276   3.644   4.884   1.932
29793SOL    HW291277   3.524   4.802   1.974
29794SOL     OW91278   3.629  10.663   7.996
29794SOL    HW191279   3.661  10.727   7.932
29794SOL    HW291280   3.582  10.715   8.061
29795SOL     OW91281  10.548   6.965   2.735
29795SOL    HW191282  10.463   7.008   2.723
29795SOL    HW291283  10.532   6.899   2.804
29796SOL     OW91284  13.902   4.838   6.559
29796SOL    HW191285  13.913   4.864   6.467
29796SOL    HW291286  13.813   4.868   6.581
29797SOL     OW91287  13.558   2.087   1.048
29797SOL    HW191288  13.541   2.134   0.966
29797SOL    HW291289  13.653   2.078   1.051
29798SOL     OW91290   8.121   3.835   7.505
29798SOL    HW191291   8.038   3.842   7.459
29798SOL    HW291292   8.172   3.910   7.475
29799SOL     OW91293  10.674   2.464   2.587
29799SOL    HW191294  10.629   2.384   2.616
29799SOL    HW291295  10.736   2.483   2.657
29800SOL     OW91296   9.483  14.526  13.011
29800SOL    HW191297   9.487  14.482  12.926
29800SOL    HW291298   9.558  14.585  13.010
29801SOL     OW91299   6.297   1.184   6.618
29801SOL    HW191300   6.299   1.090   6.635
29801SOL    HW291301   6.306   1.191   6.523
29802SOL     OW91302   6.207  12.845  13.798
29802SOL    HW191303   6.272  12.775  13.805
29802SOL    HW291304   6.132  12.804  13.755
29803SOL     OW91305   8.015  12.307  12.244
29803SOL    HW191306   8.068  12.384  12.264
29803SOL    HW291307   7.924  12.336  12.256
29804SOL     OW91308  12.478  12.679   5.095
29804SOL    HW191309  12.507  12.685   5.186
29804SOL    HW291310  12.502  12.763   5.055
29805SOL     OW91311  13.803   4.209  13.186
29805SOL    HW191312  13.886   4.179  13.150
29805SOL    HW291313  13.819   4.299  13.214
29806SOL     OW91314   4.294   6.081  11.783
29806SOL    HW191315   4.238   6.155  11.804
29806SOL    HW291316   4.309   6.037  11.867
29807SOL     OW91317   1.687   2.431  12.994
29807SOL    HW191318   1.698   2.522  12.965
29807SOL    HW291319   1.774   2.393  12.988
29808SOL     OW91320   9.726   2.457  13.949
29808SOL    HW191321   9.728   2.376  13.898
29808SOL    HW291322   9.751   2.526  13.887
29809SOL     OW91323  10.019   8.198  10.951
29809SOL    HW191324  10.073   8.274  10.976
29809SOL    HW291325  10.075   8.123  10.968
29810SOL     OW91326   8.800  13.082   5.091
29810SOL    HW191327   8.773  13.168   5.121
29810SOL    HW291328   8.894  13.090   5.075
29811SOL     OW91329   8.148  13.300  10.043
29811SOL    HW191330   8.130  13.281  10.135
29811SOL    HW291331   8.118  13.389  10.030
29812SOL     OW91332  11.775  11.218  10.378
29812SOL    HW191333  11.778  11.285  10.447
29812SOL    HW291334  11.707  11.158  10.407
29813SOL     OW91335  11.228   6.876   1.947
29813SOL    HW191336  11.304   6.833   1.987
29813SOL    HW291337  11.189   6.809   1.892
29814SOL     OW91338   6.696   3.401  10.770
29814SOL    HW191339   6.709   3.459  10.845
29814SOL    HW291340   6.746   3.322  10.791
29815SOL     OW91341   1.843  12.349   0.457
29815SOL    HW191342   1.748  12.332   0.454
29815SOL    HW291343   1.862  12.394   0.375
29816SOL     OW91344   1.614   9.492  10.629
29816SOL    HW191345   1.586   9.455  10.545
29816SOL    HW291346   1.651   9.577  10.608
29817SOL     OW91347   8.446   9.036  11.673
29817SOL    HW191348   8.352   9.036  11.657
29817SOL    HW291349   8.455   9.016  11.766
29818SOL     OW91350   7.871  14.266   7.528
29818SOL    HW191351   7.874  14.355   7.493
29818SOL    HW291352   7.919  14.271   7.611
29819SOL     OW91353   5.384  10.382   1.494
29819SOL    HW191354   5.432  10.332   1.560
29819SOL    HW291355   5.329  10.441   1.545
29820SOL     OW91356   5.882  10.571   1.291
29820SOL    HW191357   5.900  10.595   1.200
29820SOL    HW291358   5.848  10.482   1.287
29821SOL     OW91359   4.298   0.979  12.921
29821SOL    HW191360   4.264   0.958  13.008
29821SOL    HW291361   4.243   0.928  12.861
29822SOL     OW91362  11.942   3.166   8.239
29822SOL    HW191363  11.906   3.078   8.233
29822SOL    HW291364  11.914   3.209   8.158
29823SOL     OW91365   9.356  13.818   6.051
29823SOL    HW191366   9.401  13.740   6.084
29823SOL    HW291367   9.315  13.789   5.969
29824SOL     OW91368   5.277   7.299  10.015
29824SOL    HW191369   5.288   7.267   9.925
29824SOL    HW291370   5.283   7.221  10.069
29825SOL     OW91371   5.976  11.333  11.003
29825SOL    HW191372   6.047  11.278  10.969
29825SOL    HW291373   5.934  11.368  10.925
29826SOL     OW91374  10.465  12.665  13.682
29826SOL    HW191375  10.513  12.613  13.748
29826SOL    HW291376  10.523  12.667  13.606
29827SOL     OW91377   4.344  14.532   4.370
29827SOL    HW191378   4.320  14.502   4.457
29827SOL    HW291379   4.374  14.622   4.382
29828SOL     OW91380   0.280   0.272  10.222
29828SOL    HW191381   0.310   0.341  10.281
29828SOL    HW291382   0.208   0.230  10.269
29829SOL     OW91383  12.678  12.817   2.009
29829SOL    HW191384  12.685  12.758   2.084
29829SOL    HW291385  12.602  12.873   2.030
29830SOL     OW91386   7.433  10.500  10.586
29830SOL    HW191387   7.453  10.540  10.670
29830SOL    HW291388   7.369  10.432  10.607
29831SOL     OW91389  13.792   3.353  11.762
29831SOL    HW191390  13.883   3.354  11.792
29831SOL    HW291391  13.798   3.345  11.667
29832SOL     OW91392   3.625   4.096   0.613
29832SOL    HW191393   3.666   4.129   0.693
29832SOL    HW291394   3.592   4.174   0.569
29833SOL     OW91395  14.101   5.613   7.314
29833SOL    HW191396  14.038   5.617   7.242
29833SOL    HW291397  14.108   5.520   7.336
29834SOL     OW91398  10.217   6.288   3.668
29834SOL    HW191399  10.239   6.200   3.635
29834SOL    HW291400  10.265   6.348   3.611
29835SOL     OW91401   0.863   1.046  12.999
29835SOL    HW191402   0.913   1.112  13.047
29835SOL    HW291403   0.791   1.094  12.958
29836SOL     OW91404  13.873   7.471   9.083
29836SOL    HW191405  13.964   7.442   9.073
29836SOL    HW291406  13.880   7.564   9.103
29837SOL     OW91407   2.436   3.126   6.450
29837SOL    HW191408   2.444   3.222   6.454
29837SOL    HW291409   2.374   3.110   6.379
29838SOL     OW91410   4.206   7.394   4.340
29838SOL    HW191411   4.141   7.402   4.410
29838SOL    HW291412   4.271   7.461   4.360
29839SOL     OW91413  13.758   9.773   1.878
29839SOL    HW191414  13.802   9.736   1.801
29839SOL    HW291415  13.807   9.741   1.953
29840SOL     OW91416  11.095   9.318   6.332
29840SOL    HW191417  11.086   9.223   6.322
29840SOL    HW291418  11.026   9.354   6.276
29841SOL     OW91419   6.463   4.093  12.566
29841SOL    HW191420   6.387   4.081  12.623
29841SOL    HW291421   6.538   4.081  12.624
29842SOL     OW91422   3.281   8.377   1.630
29842SOL    HW191423   3.334   8.408   1.703
29842SOL    HW291424   3.272   8.453   1.572
29843SOL     OW91425   4.023   3.052  14.259
29843SOL    HW191426   4.017   3.127  14.318
29843SOL    HW291427   4.117   3.033  14.255
29844SOL     OW91428  12.285   5.878   6.836
29844SOL    HW191429  12.331   5.852   6.756
29844SOL    HW291430  12.354   5.899   6.898
29845SOL     OW91431   2.335  13.970  13.324
29845SOL    HW191432   2.249  13.943  13.358
29845SOL    HW291433   2.397  13.909  13.364
29846SOL     OW91434   5.532  11.623   6.319
29846SOL    HW191435   5.624  11.638   6.295
29846SOL    HW291436   5.518  11.678   6.395
29847SOL     OW91437   2.495   7.462  10.398
29847SOL    HW191438   2.468   7.553  10.384
29847SOL    HW291439   2.506   7.427  10.310
29848SOL     OW91440   8.631   0.306   7.988
29848SOL    HW191441   8.645   0.299   8.082
29848SOL    HW291442   8.544   0.269   7.974
29849SOL     OW91443  13.916   7.264   3.395
29849SOL    HW191444  13.843   7.316   3.429
29849SOL    HW291445  13.971   7.327   3.349
29850SOL     OW91446   1.531   1.066  13.246
29850SOL    HW191447   1.492   1.143  13.288
29850SOL    HW291448   1.562   1.013  13.319
29851SOL     OW91449   7.526  13.314   7.692
29851SOL    HW191450   7.561  13.317   7.603
29851SOL    HW291451   7.433  13.291   7.680
29852SOL     OW91452   2.092   1.229   1.161
29852SOL    HW191453   2.147   1.304   1.141
29852SOL    HW291454   2.007   1.266   1.186
29853SOL     OW91455   1.582   5.418   4.789
29853SOL    HW191456   1.520   5.483   4.755
29853SOL    HW291457   1.627   5.386   4.711
29854SOL     OW91458   8.086   2.396   7.196
29854SOL    HW191459   8.084   2.375   7.103
29854SOL    HW291460   8.164   2.350   7.229
29855SOL     OW91461  12.305   3.494  14.087
29855SOL    HW191462  12.307   3.410  14.132
29855SOL    HW291463  12.369   3.548  14.134
29856SOL     OW91464   3.845  13.317   7.333
29856SOL    HW191465   3.882  13.298   7.247
29856SOL    HW291466   3.839  13.233   7.377
29857SOL     OW91467  13.647   3.136   5.406
29857SOL    HW191468  13.665   3.059   5.352
29857SOL    HW291469  13.618   3.101   5.490
29858SOL     OW91470   6.131   3.977  11.737
29858SOL    HW191471   6.080   3.927  11.801
29858SOL    HW291472   6.070   4.044  11.704
29859SOL     OW91473   2.752  11.585  11.079
29859SOL    HW191474   2.703  11.607  10.999
29859SOL    HW291475   2.801  11.665  11.099
29860SOL     OW91476  11.335  12.834   4.481
29860SOL    HW191477  11.347  12.794   4.567
29860SOL    HW291478  11.250  12.879   4.487
29861SOL     OW91479   0.485   8.306   3.606
29861SOL    HW191480   0.525   8.386   3.572
29861SOL    HW291481   0.527   8.291   3.690
29862SOL     OW91482   3.429   7.563   6.699
29862SOL    HW191483   3.340   7.584   6.672
29862SOL    HW291484   3.456   7.638   6.752
29863SOL     OW91485   0.733   9.491  12.712
29863SOL    HW191486   0.814   9.471  12.759
29863SOL    HW291487   0.663   9.472  12.774
29864SOL     OW91488  13.484   8.704   2.627
29864SOL    HW191489  13.447   8.692   2.714
29864SOL    HW291490  13.435   8.643   2.572
29865SOL     OW91491  11.173  12.296   4.488
29865SOL    HW191492  11.082  12.288   4.460
29865SOL    HW291493  11.180  12.386   4.520
29866SOL     OW91494  10.984   3.056   0.801
29866SOL    HW191495  11.062   3.003   0.784
29866SOL    HW291496  10.912   2.993   0.804
29867SOL     OW91497  13.664  12.887   1.802
29867SOL    HW191498  13.660  12.839   1.719
29867SOL    HW291499  13.696  12.974   1.776
29868SOL     OW91500  11.281   8.549  12.283
29868SOL    HW191501  11.294   8.639  12.253
29868SOL    HW291502  11.364   8.505  12.262
29869SOL     OW91503  13.039  12.740   1.629
29869SOL    HW191504  13.030  12.828   1.592
29869SOL    HW291505  13.119  12.705   1.588
29870SOL     OW91506   5.654   7.738   3.893
29870SOL    HW191507   5.621   7.650   3.908
29870SOL    HW291508   5.589   7.779   3.835
29871SOL     OW91509  14.626   4.958  10.815
29871SOL    HW191510  14.602   4.882  10.868
29871SOL    HW291511  14.607   5.034  10.869
29872SOL     OW91512  10.695  11.008   3.164
29872SOL    HW191513  10.736  11.091   3.142
29872SOL    HW291514  10.721  10.948   3.093
29873SOL     OW91515  14.149   5.395   5.088
29873SOL    HW191516  14.076   5.457   5.086
29873SOL    HW291517  14.113   5.314   5.051
29874SOL     OW91518   9.780   2.077   5.018
29874SOL    HW191519   9.770   2.148   4.954
29874SOL    HW291520   9.741   2.001   4.975
29875SOL     OW91521  14.857   4.338  13.153
29875SOL    HW191522   0.033   4.392  13.093
29875SOL    HW291523  14.771   4.380  13.154
29876SOL     OW91524   8.229   9.128  13.952
29876SOL    HW191525   8.296   9.176  14.000
29876SOL    HW291526   8.195   9.065  14.016
29877SOL     OW91527   5.482   6.568   3.011
29877SOL    HW191528   5.420   6.599   3.077
29877SOL    HW291529   5.555   6.629   3.016
29878SOL     OW91530   4.956   8.759   3.070
29878SOL    HW191531   4.980   8.810   3.148
29878SOL    HW291532   5.031   8.702   3.054
29879SOL     OW91533   2.650   4.280   0.587
29879SOL    HW191534   2.729   4.316   0.627
29879SOL    HW291535   2.594   4.256   0.661
29880SOL     OW91536  11.607  10.657  11.304
29880SOL    HW191537  11.647  10.673  11.389
29880SOL    HW291538  11.545  10.728  11.292
29881SOL     OW91539  14.700  13.747   7.420
29881SOL    HW191540  14.777  13.799   7.446
29881SOL    HW291541  14.733  13.688   7.353
29882SOL     OW91542   3.471  12.900   0.651
29882SOL    HW191543   3.488  12.872   0.561
29882SOL    HW291544   3.503  12.827   0.705
29883SOL     OW91545   1.814   9.015   6.567
29883SOL    HW191546   1.752   8.980   6.503
29883SOL    HW291547   1.883   8.949   6.572
29884SOL     OW91548   7.077   8.136  11.410
29884SOL    HW191549   7.158   8.181  11.386
29884SOL    HW291550   7.009   8.204  11.405
29885SOL     OW91551   4.330   0.842   7.884
29885SOL    HW191552   4.350   0.931   7.857
29885SOL    HW291553   4.238   0.845   7.911
29886SOL     OW91554   3.007   2.762   9.285
29886SOL    HW191555   3.002   2.834   9.349
29886SOL    HW291556   3.093   2.723   9.301
29887SOL     OW91557  10.658   5.481   0.901
29887SOL    HW191558  10.596   5.549   0.925
29887SOL    HW291559  10.605   5.401   0.896
29888SOL     OW91560  11.986   9.672  11.152
29888SOL    HW191561  12.071   9.629  11.162
29888SOL    HW291562  11.953   9.641  11.068
29889SOL     OW91563  13.533   2.441   1.267
29889SOL    HW191564  13.551   2.350   1.292
29889SOL    HW291565  13.493   2.434   1.181
29890SOL     OW91566  11.180   8.589   9.843
29890SOL    HW191567  11.183   8.515   9.903
29890SOL    HW291568  11.120   8.651   9.884
29891SOL     OW91569   7.062   7.551   1.909
29891SOL    HW191570   7.115   7.629   1.915
29891SOL    HW291571   7.063   7.527   1.816
29892SOL     OW91572  11.811  10.141   0.554
29892SOL    HW191573  11.882  10.200   0.530
29892SOL    HW291574  11.742  10.199   0.586
29893SOL     OW91575  10.770  12.258  14.660
29893SOL    HW191576  10.785  12.346  14.695
29893SOL    HW291577  10.768  12.201  14.737
29894SOL     OW91578   6.768   7.038   1.593
29894SOL    HW191579   6.770   7.127   1.627
29894SOL    HW291580   6.851   7.028   1.546
29895SOL     OW91581  13.809  11.577  12.196
29895SOL    HW191582  13.781  11.590  12.105
29895SOL    HW291583  13.815  11.482  12.206
29896SOL     OW91584  13.696  14.012   8.447
29896SOL    HW191585  13.711  14.106   8.458
29896SOL    HW291586  13.622  13.993   8.504
29897SOL     OW91587   4.010  12.464  11.113
29897SOL    HW191588   3.962  12.405  11.171
29897SOL    HW291589   4.088  12.415  11.088
29898SOL     OW91590   7.274   3.559   9.747
29898SOL    HW191591   7.358   3.588   9.784
29898SOL    HW291592   7.238   3.637   9.705
29899SOL     OW91593   3.365   4.915   3.800
29899SOL    HW191594   3.406   4.830   3.814
29899SOL    HW291595   3.408   4.973   3.863
29900SOL     OW91596  13.515   1.637   2.296
29900SOL    HW191597  13.471   1.552   2.289
29900SOL    HW291598  13.588   1.632   2.235
29901SOL     OW91599   6.871   1.610   0.781
29901SOL    HW191600   6.946   1.572   0.826
29901SOL    HW291601   6.908   1.671   0.718
29902SOL     OW91602   8.013   9.200   8.178
29902SOL    HW191603   7.949   9.140   8.217
29902SOL    HW291604   8.097   9.155   8.187
29903SOL     OW91605   3.475   8.642   7.490
29903SOL    HW191606   3.392   8.658   7.536
29903SOL    HW291607   3.530   8.598   7.554
29904SOL     OW91608   8.296   0.927   3.001
29904SOL    HW191609   8.352   0.865   2.954
29904SOL    HW291610   8.247   0.972   2.932
29905SOL     OW91611  13.540   1.646   0.806
29905SOL    HW191612  13.545   1.566   0.754
29905SOL    HW291613  13.611   1.701   0.774
29906SOL     OW91614  11.843   2.418   1.591
29906SOL    HW191615  11.892   2.335   1.588
29906SOL    HW291616  11.789   2.410   1.669
29907SOL     OW91617   7.388   5.520  11.406
29907SOL    HW191618   7.456   5.499  11.341
29907SOL    HW291619   7.358   5.435  11.438
29908SOL     OW91620   5.856   3.127   9.825
29908SOL    HW191621   5.919   3.167   9.886
29908SOL    HW291622   5.774   3.126   9.873
29909SOL     OW91623  14.694   3.914  10.616
29909SOL    HW191624  14.720   3.880  10.531
29909SOL    HW291625  14.758   3.982  10.636
29910SOL     OW91626  14.795   9.999  14.245
29910SOL    HW191627  14.843  10.029  14.169
29910SOL    HW291628  14.859   9.950  14.297
29911SOL     OW91629   6.853  13.806   1.608
29911SOL    HW191630   6.905  13.736   1.647
29911SOL    HW291631   6.917  13.861   1.563
29912SOL     OW91632   6.384   8.757   7.887
29912SOL    HW191633   6.376   8.795   7.974
29912SOL    HW291634   6.453   8.809   7.844
29913SOL     OW91635  10.566  14.377   1.474
29913SOL    HW191636  10.509  14.356   1.400
29913SOL    HW291637  10.565  14.298   1.528
29914SOL     OW91638  12.863   8.948   8.735
29914SOL    HW191639  12.919   8.906   8.670
29914SOL    HW291640  12.774   8.920   8.712
29915SOL     OW91641   6.051  13.682  12.174
29915SOL    HW191642   6.077  13.648  12.259
29915SOL    HW291643   6.116  13.647  12.113
29916SOL     OW91644  10.551   0.689   7.349
29916SOL    HW191645  10.460   0.700   7.323
29916SOL    HW291646  10.549   0.616   7.412
29917SOL     OW91647  13.339   9.272   2.990
29917SOL    HW191648  13.409   9.272   3.056
29917SOL    HW291649  13.371   9.214   2.921
29918SOL     OW91650   7.901   4.679   0.446
29918SOL    HW191651   7.928   4.759   0.493
29918SOL    HW291652   7.849   4.711   0.373
29919SOL     OW91653   0.149   2.380   4.345
29919SOL    HW191654   0.139   2.456   4.402
29919SOL    HW291655   0.155   2.417   4.257
29920SOL     OW91656   5.295   1.317  12.952
29920SOL    HW191657   5.205   1.320  12.919
29920SOL    HW291658   5.347   1.352  12.880
29921SOL     OW91659   4.295   4.284   9.284
29921SOL    HW191660   4.300   4.379   9.295
29921SOL    HW291661   4.362   4.250   9.343
29922SOL     OW91662   2.108   9.892   9.078
29922SOL    HW191663   2.027   9.863   9.120
29922SOL    HW291664   2.086   9.898   8.985
29923SOL     OW91665   4.881   4.770   1.834
29923SOL    HW191666   4.879   4.860   1.802
29923SOL    HW291667   4.883   4.716   1.755
29924SOL     OW91668   1.443   5.215   8.717
29924SOL    HW191669   1.363   5.175   8.751
29924SOL    HW291670   1.415   5.266   8.641
29925SOL     OW91671   5.974   1.893   5.147
29925SOL    HW191672   6.022   1.865   5.224
29925SOL    HW291673   5.892   1.929   5.181
29926SOL     OW91674  10.996   2.837  13.206
29926SOL    HW191675  11.051   2.893  13.260
29926SOL    HW291676  11.032   2.846  13.118
29927SOL     OW91677   5.127  11.678   1.322
29927SOL    HW191678   5.170  11.594   1.308
29927SOL    HW291679   5.170  11.737   1.260
29928SOL     OW91680   4.660   9.651  10.426
29928SOL    HW191681   4.614   9.702  10.492
29928SOL    HW291682   4.671   9.564  10.465
29929SOL     OW91683  12.032  11.804  11.063
29929SOL    HW191684  11.993  11.841  10.984
29929SOL    HW291685  11.961  11.755  11.104
29930SOL     OW91686   2.569  10.321   3.681
29930SOL    HW191687   2.492  10.267   3.663
29930SOL    HW291688   2.552  10.359   3.767
29931SOL     OW91689   3.222   3.499   3.830
29931SOL    HW191690   3.140   3.517   3.785
29931SOL    HW291691   3.197   3.444   3.905
29932SOL     OW91692  13.727  12.972   6.215
29932SOL    HW191693  13.810  12.930   6.194
29932SOL    HW291694  13.694  13.003   6.130
29933SOL     OW91695   7.704   2.855   9.264
29933SOL    HW191696   7.719   2.832   9.172
29933SOL    HW291697   7.787   2.837   9.307
29934SOL     OW91698   0.866   6.560   8.295
29934SOL    HW191699   0.885   6.650   8.322
29934SOL    HW291700   0.867   6.510   8.376
29935SOL     OW91701  12.466   3.426  11.956
29935SOL    HW191702  12.499   3.489  12.020
29935SOL    HW291703  12.522   3.349  11.967
29936SOL     OW91704  12.831  11.292  13.176
29936SOL    HW191705  12.759  11.250  13.223
29936SOL    HW291706  12.822  11.385  13.196
29937SOL     OW91707  10.683   6.215   0.897
29937SOL    HW191708  10.660   6.135   0.945
29937SOL    HW291709  10.618   6.279   0.926
29938SOL     OW91710   2.970  10.781   4.691
29938SOL    HW191711   2.903  10.817   4.634
29938SOL    HW291712   2.948  10.688   4.699
29939SOL     OW91713  14.059   3.993   7.135
29939SOL    HW191714  14.152   3.973   7.120
29939SOL    HW291715  14.036   3.942   7.213
29940SOL     OW91716   0.206   7.924  12.208
29940SOL    HW191717   0.244   8.012  12.196
29940SOL    HW291718   0.273   7.864  12.176
29941SOL     OW91719  13.326   0.724  12.218
29941SOL    HW191720  13.275   0.665  12.163
29941SOL    HW291721  13.316   0.691  12.307
29942SOL     OW91722   2.522   4.456   4.174
29942SOL    HW191723   2.515   4.499   4.259
29942SOL    HW291724   2.510   4.363   4.192
29943SOL     OW91725   8.699   2.411   9.510
29943SOL    HW191726   8.603   2.411   9.508
29943SOL    HW291727   8.723   2.503   9.521
29944SOL     OW91728   6.550  12.361   4.703
29944SOL    HW191729   6.562  12.411   4.621
29944SOL    HW291730   6.551  12.428   4.771
29945SOL     OW91731  14.712   4.477   3.976
29945SOL    HW191732  14.641   4.495   3.915
29945SOL    HW291733  14.687   4.524   4.056
29946SOL     OW91734   7.616   7.040   7.955
29946SOL    HW191735   7.640   7.021   8.045
29946SOL    HW291736   7.598   6.955   7.915
29947SOL     OW91737  13.845   7.957   8.283
29947SOL    HW191738  13.897   7.942   8.204
29947SOL    HW291739  13.837   8.052   8.288
29948SOL     OW91740  14.276  13.162   7.815
29948SOL    HW191741  14.272  13.216   7.736
29948SOL    HW291742  14.290  13.224   7.886
29949SOL     OW91743  14.141   9.757   4.647
29949SOL    HW191744  14.186   9.840   4.665
29949SOL    HW291745  14.186   9.693   4.702
29950SOL     OW91746  12.371   4.807   2.370
29950SOL    HW191747  12.409   4.731   2.326
29950SOL    HW291748  12.317   4.849   2.303
29951SOL     OW91749   6.001   7.437   0.148
29951SOL    HW191750   5.971   7.348   0.167
29951SOL    HW291751   5.957   7.460   0.066
29952SOL     OW91752   4.703  12.769  11.286
29952SOL    HW191753   4.625  12.762  11.342
29952SOL    HW291754   4.759  12.697  11.314
29953SOL     OW91755  13.167   8.754  14.667
29953SOL    HW191756  13.192   8.762  14.576
29953SOL    HW291757  13.124   8.668  14.673
29954SOL     OW91758   2.868  12.226   7.147
29954SOL    HW191759   2.958  12.253   7.128
29954SOL    HW291760   2.851  12.154   7.087
29955SOL     OW91761   1.080  10.776   8.308
29955SOL    HW191762   0.998  10.793   8.356
29955SOL    HW291763   1.105  10.687   8.335
29956SOL     OW91764   8.868  10.778   4.517
29956SOL    HW191765   8.948  10.823   4.545
29956SOL    HW291766   8.875  10.772   4.422
29957SOL     OW91767   9.089   7.710   2.885
29957SOL    HW191768   9.082   7.732   2.978
29957SOL    HW291769   9.161   7.648   2.881
29958SOL     OW91770   7.627  10.580   9.257
29958SOL    HW191771   7.716  10.595   9.225
29958SOL    HW291772   7.622  10.486   9.272
29959SOL     OW91773  14.175   9.028   0.861
29959SOL    HW191774  14.133   9.007   0.778
29959SOL    HW291775  14.189   8.944   0.903
29960SOL     OW91776   4.839   2.967   7.220
29960SOL    HW191777   4.890   3.045   7.242
29960SOL    HW291778   4.803   2.985   7.133
29961SOL     OW91779   4.819  11.275   2.897
29961SOL    HW191780   4.857  11.329   2.966
29961SOL    HW291781   4.839  11.321   2.816
29962SOL     OW91782  14.565   1.829  10.388
29962SOL    HW191783  14.549   1.735  10.401
29962SOL    HW291784  14.618   1.855  10.463
29963SOL     OW91785   0.818  10.401   3.746
29963SOL    HW191786   0.761  10.477   3.753
29963SOL    HW291787   0.872  10.403   3.825
29964SOL     OW91788  14.057   5.779   2.592
29964SOL    HW191789  14.135   5.784   2.648
29964SOL    HW291790  13.986   5.812   2.646
29965SOL     OW91791   6.287  13.374   5.679
29965SOL    HW191792   6.333  13.300   5.640
29965SOL    HW291793   6.194  13.351   5.672
29966SOL     OW91794   5.270  10.334   5.361
29966SOL    HW191795   5.256  10.239   5.370
29966SOL    HW291796   5.249  10.352   5.270
29967SOL     OW91797   9.851  13.914   2.067
29967SOL    HW191798   9.780  13.864   2.106
29967SOL    HW291799   9.927  13.855   2.071
29968SOL     OW91800   6.646  13.372  13.960
29968SOL    HW191801   6.598  13.326  14.028
29968SOL    HW291802   6.666  13.458  13.997
29969SOL     OW91803   7.466   0.437   7.312
29969SOL    HW191804   7.493   0.481   7.231
29969SOL    HW291805   7.520   0.358   7.315
29970SOL     OW91806  10.562  13.256  11.643
29970SOL    HW191807  10.603  13.179  11.682
29970SOL    HW291808  10.507  13.292  11.713
29971SOL     OW91809  14.307  13.758   3.579
29971SOL    HW191810  14.243  13.721   3.517
29971SOL    HW291811  14.285  13.717   3.662
29972SOL     OW91812   8.845  13.502   7.125
29972SOL    HW191813   8.865  13.491   7.218
29972SOL    HW291814   8.930  13.496   7.081
29973SOL     OW91815  12.808   3.816   5.750
29973SOL    HW191816  12.819   3.746   5.814
29973SOL    HW291817  12.811   3.772   5.665
29974SOL     OW91818   9.367  13.345   2.203
29974SOL    HW191819   9.308  13.419   2.189
29974SOL    HW291820   9.354  13.289   2.126
29975SOL     OW91821   4.772   3.863   3.907
29975SOL    HW191822   4.815   3.780   3.890
29975SOL    HW291823   4.681   3.840   3.925
29976SOL     OW91824   0.746   3.751   7.580
29976SOL    HW191825   0.781   3.762   7.668
29976SOL    HW291826   0.669   3.808   7.577
29977SOL     OW91827   9.369   8.138  13.153
29977SOL    HW191828   9.437   8.156  13.088
29977SOL    HW291829   9.367   8.043  13.160
29978SOL     OW91830   3.309  14.080   8.809
29978SOL    HW191831   3.221  14.114   8.795
29978SOL    HW291832   3.331  14.107   8.899
29979SOL     OW91833   5.318  14.136   6.431
29979SOL    HW191834   5.373  14.069   6.472
29979SOL    HW291835   5.228  14.105   6.445
29980SOL     OW91836  10.294  13.766   7.653
29980SOL    HW191837  10.291  13.821   7.731
29980SOL    HW291838  10.339  13.819   7.587
29981SOL     OW91839   3.604   7.893   3.264
29981SOL    HW191840   3.567   7.805   3.251
29981SOL    HW291841   3.529   7.952   3.254
29982SOL     OW91842   1.488   0.864   6.066
29982SOL    HW191843   1.464   0.914   6.144
29982SOL    HW291844   1.446   0.779   6.079
29983SOL     OW91845   8.705  13.675   3.986
29983SOL    HW191846   8.612  13.670   4.007
29983SOL    HW291847   8.743  13.721   4.061
29984SOL     OW91848   2.295  12.243   0.629
29984SOL    HW191849   2.343  12.178   0.577
29984SOL    HW291850   2.205  12.211   0.630
29985SOL     OW91851   7.734   0.820   0.173
29985SOL    HW191852   7.801   0.875   0.213
29985SOL    HW291853   7.783   0.749   0.132
29986SOL     OW91854   4.602   7.057  11.592
29986SOL    HW191855   4.683   7.042  11.545
29986SOL    HW291856   4.622   7.032  11.682
29987SOL     OW91857   6.536  10.806  10.395
29987SOL    HW191858   6.479  10.736  10.427
29987SOL    HW291859   6.477  10.867  10.349
29988SOL     OW91860   9.380  11.445  10.750
29988SOL    HW191861   9.403  11.514  10.812
29988SOL    HW291862   9.368  11.491  10.667
29989SOL     OW91863   8.720  14.627   4.264
29989SOL    HW191864   8.732  14.721   4.256
29989SOL    HW291865   8.808  14.590   4.256
29990SOL     OW91866  14.595   7.069   1.859
29990SOL    HW191867  14.545   7.125   1.799
29990SOL    HW291868  14.632   7.001   1.803
29991SOL     OW91869  12.774   5.618  13.503
29991SOL    HW191870  12.745   5.587  13.590
29991SOL    HW291871  12.785   5.713  13.514
29992SOL     OW91872   1.212   4.963   7.012
29992SOL    HW191873   1.139   4.904   7.026
29992SOL    HW291874   1.259   4.964   7.096
29993SOL     OW91875   8.614   3.455  10.587
29993SOL    HW191876   8.595   3.488  10.499
29993SOL    HW291877   8.532   3.466  10.634
29994SOL     OW91878  11.151   7.202   6.199
29994SOL    HW191879  11.205   7.125   6.185
29994SOL    HW291880  11.174   7.261   6.128
29995SOL     OW91881   0.930   5.852   4.562
29995SOL    HW191882   0.880   5.853   4.480
29995SOL    HW291883   1.011   5.807   4.540
29996SOL     OW91884   0.681   6.337   5.482
29996SOL    HW191885   0.763   6.347   5.434
29996SOL    HW291886   0.707   6.317   5.572
29997SOL     OW91887   8.169  13.461   8.253
29997SOL    HW191888   8.263  13.449   8.240
29997SOL    HW291889   8.136  13.492   8.169
29998SOL     OW91890   6.123  10.534   7.836
29998SOL    HW191891   6.118  10.575   7.750
29998SOL    HW291892   6.206  10.487   7.836
29999SOL     OW91893   9.038   6.056   1.618
29999SOL    HW191894   8.952   6.096   1.625
29999SOL    HW291895   9.045   6.000   1.696
30000SOL     OW91896  11.493   7.065   0.811
30000SOL    HW191897  11.544   7.055   0.891
30000SOL    HW291898  11.402   7.067   0.839
30001SOL     OW91899   0.705  14.869   4.726
30001SOL    HW191900   0.784  14.857   4.673
30001SOL    HW291901   0.643   0.038   4.667
30002SOL     OW91902   3.237  12.761   3.986
30002SOL    HW191903   3.277  12.755   3.899
30002SOL    HW291904   3.182  12.839   3.983
30003SOL     OW91905   1.962  12.814   4.998
30003SOL    HW191906   1.956  12.870   5.075
30003SOL    HW291907   1.918  12.733   5.024
30004SOL     OW91908   3.346  13.420   1.250
30004SOL    HW191909   3.355  13.489   1.184
30004SOL    HW291910   3.317  13.343   1.200
30005SOL     OW91911   1.802   9.568   0.859
30005SOL    HW191912   1.861   9.562   0.784
30005SOL    HW291913   1.745   9.642   0.840
30006SOL     OW91914  14.303   0.868   9.598
30006SOL    HW191915  14.291   0.805   9.527
30006SOL    HW291916  14.372   0.926   9.567
30007SOL     OW91917   6.050  12.325   0.418
30007SOL    HW191918   6.074  12.410   0.382
30007SOL    HW291919   5.967  12.342   0.464
30008SOL     OW91920   6.558   1.569   4.381
30008SOL    HW191921   6.629   1.518   4.345
30008SOL    HW291922   6.598   1.621   4.450
30009SOL     OW91923   4.715   8.280   6.754
30009SOL    HW191924   4.745   8.367   6.728
30009SOL    HW291925   4.636   8.296   6.806
30010SOL     OW91926  11.026   1.406   9.572
30010SOL    HW191927  11.020   1.362   9.656
30010SOL    HW291928  11.081   1.483   9.588
30011SOL     OW91929   2.149   0.148   0.613
30011SOL    HW191930   2.104   0.187   0.687
30011SOL    HW291931   2.242   0.164   0.630
30012SOL     OW91932   8.892  14.201  12.292
30012SOL    HW191933   8.907  14.237  12.379
30012SOL    HW291934   8.872  14.276  12.237
30013SOL     OW91935   8.557   5.186  14.547
30013SOL    HW191936   8.513   5.129  14.484
30013SOL    HW291937   8.496   5.259  14.559
30014SOL     OW91938   0.723   6.021   5.761
30014SOL    HW191939   0.680   5.989   5.840
30014SOL    HW291940   0.684   5.969   5.690
30015SOL     OW91941   2.871   1.423  13.298
30015SOL    HW191942   2.840   1.338  13.329
30015SOL    HW291943   2.928   1.402  13.224
30016SOL     OW91944   5.424  11.006   4.526
30016SOL    HW191945   5.517  11.016   4.506
30016SOL    HW291946   5.395  11.095   4.549
30017SOL     OW91947  12.322   6.252   1.584
30017SOL    HW191948  12.370   6.231   1.504
30017SOL    HW291949  12.359   6.336   1.613
30018SOL     OW91950   4.492  11.830   1.530
30018SOL    HW191951   4.477  11.744   1.570
30018SOL    HW291952   4.471  11.892   1.600
30019SOL     OW91953   9.678   2.469  14.553
30019SOL    HW191954   9.707   2.518  14.630
30019SOL    HW291955   9.596   2.427  14.581
30020SOL     OW91956   5.856  13.249  11.675
30020SOL    HW191957   5.842  13.222  11.766
30020SOL    HW291958   5.912  13.181  11.638
30021SOL     OW91959   6.107   3.785   8.577
30021SOL    HW191960   6.163   3.745   8.643
30021SOL    HW291961   6.130   3.877   8.578
30022SOL     OW91962  14.279   7.791   5.379
30022SOL    HW191963  14.202   7.818   5.431
30022SOL    HW291964  14.269   7.697   5.369
30023SOL     OW91965   8.122   8.258  10.659
30023SOL    HW191966   8.086   8.347  10.659
30023SOL    HW291967   8.217   8.271  10.653
30024SOL     OW91968   2.827   5.912   6.119
30024SOL    HW191969   2.803   5.958   6.200
30024SOL    HW291970   2.747   5.868   6.092
30025SOL     OW91971   8.561   4.083   4.334
30025SOL    HW191972   8.621   4.102   4.406
30025SOL    HW291973   8.532   3.994   4.350
30026SOL     OW91974  11.984   8.887   8.589
30026SOL    HW191975  11.901   8.898   8.542
30026SOL    HW291976  11.990   8.962   8.647
30027SOL     OW91977  10.707   9.150   2.471
30027SOL    HW191978  10.733   9.176   2.383
30027SOL    HW291979  10.753   9.211   2.529
30028SOL     OW91980   6.590  14.547   6.378
30028SOL    HW191981   6.686  14.540   6.381
30028SOL    HW291982   6.559  14.460   6.404
30029SOL     OW91983   1.632   5.128   1.292
30029SOL    HW191984   1.648   5.189   1.220
30029SOL    HW291985   1.613   5.044   1.249
30030SOL     OW91986   2.348  10.012  11.352
30030SOL    HW191987   2.263   9.967  11.348
30030SOL    HW291988   2.327  10.100  11.383
30031SOL     OW91989  14.582   3.577   2.845
30031SOL    HW191990  14.547   3.656   2.803
30031SOL    HW291991  14.515   3.510   2.829
30032SOL     OW91992  13.866  12.309  14.443
30032SOL    HW191993  13.838  12.319  14.534
30032SOL    HW291994  13.879  12.215  14.432
30033SOL     OW91995  12.561   7.948   3.424
30033SOL    HW191996  12.559   7.874   3.363
30033SOL    HW291997  12.471   7.978   3.428
30034SOL     OW91998  14.240   4.909  13.534
30034SOL    HW191999  14.270   4.850  13.465
30034SOL    HW292000  14.151   4.933  13.508
30035SOL     OW92001   7.403  13.112   9.357
30035SOL    HW192002   7.439  13.187   9.404
30035SOL    HW292003   7.329  13.147   9.308
30036SOL     OW92004   5.846  10.855   5.537
30036SOL    HW192005   5.919  10.916   5.544
30036SOL    HW292006   5.793  10.889   5.465
30037SOL     OW92007   0.412   4.376   8.085
30037SOL    HW192008   0.328   4.420   8.073
30037SOL    HW292009   0.437   4.395   8.175
30038SOL     OW92010   2.308   2.279  13.300
30038SOL    HW192011   2.347   2.357  13.340
30038SOL    HW292012   2.266   2.233  13.373
30039SOL     OW92013  11.073   3.496  11.933
30039SOL    HW192014  11.167   3.479  11.935
30039SOL    HW292015  11.038   3.448  12.009
30040SOL     OW92016   1.346  12.049  10.784
30040SOL    HW192017   1.281  12.030  10.716
30040SOL    HW292018   1.325  12.137  10.813
30041SOL     OW92019   6.054  11.696   0.743
30041SOL    HW192020   6.148  11.713   0.733
30041SOL    HW292021   6.050  11.612   0.788
30042SOL     OW92022   8.274   8.525   7.232
30042SOL    HW192023   8.243   8.446   7.189
30042SOL    HW292024   8.195   8.566   7.268
30043SOL     OW92025   0.689  13.486  13.021
30043SOL    HW192026   0.737  13.564  12.993
30043SOL    HW292027   0.598  13.505  12.995
30044SOL     OW92028   6.663  14.742   5.511
30044SOL    HW192029   6.721  14.789   5.571
30044SOL    HW292030   6.622  14.674   5.566
30045SOL     OW92031   5.043   9.712  13.481
30045SOL    HW192032   4.994   9.782  13.524
30045SOL    HW292033   4.979   9.668  13.426
30046SOL     OW92034   6.783   1.664   1.629
30046SOL    HW192035   6.690   1.656   1.648
30046SOL    HW292036   6.793   1.753   1.593
30047SOL     OW92037  14.476   8.179   0.652
30047SOL    HW192038  14.415   8.175   0.725
30047SOL    HW292039  14.500   8.272   0.646
30048SOL     OW92040   0.257   0.690   5.015
30048SOL    HW192041   0.351   0.698   5.030
30048SOL    HW292042   0.246   0.603   4.977
30049SOL     OW92043   9.559   8.447   5.310
30049SOL    HW192044   9.632   8.417   5.365
30049SOL    HW292045   9.482   8.404   5.347
30050SOL     OW92046  14.054   8.208  10.704
30050SOL    HW192047  14.081   8.262  10.630
30050SOL    HW292048  13.962   8.230  10.717
30051SOL     OW92049  11.193   9.492   1.226
30051SOL    HW192050  11.186   9.444   1.143
30051SOL    HW292051  11.121   9.459   1.279
30052SOL     OW92052   4.269   7.459   8.077
30052SOL    HW192053   4.342   7.487   8.021
30052SOL    HW292054   4.195   7.511   8.047
30053SOL     OW92055   0.270   9.594   8.018
30053SOL    HW192056   0.357   9.555   8.028
30053SOL    HW292057   0.285   9.688   8.024
30054SOL     OW92058   3.299   5.431   7.207
30054SOL    HW192059   3.279   5.514   7.164
30054SOL    HW292060   3.385   5.407   7.174
30055SOL     OW92061   9.230  10.771   5.434
30055SOL    HW192062   9.154  10.732   5.477
30055SOL    HW292063   9.204  10.780   5.342
30056SOL     OW92064  13.049   8.332  12.137
30056SOL    HW192065  13.123   8.383  12.169
30056SOL    HW292066  13.087   8.261  12.086
30057SOL     OW92067  11.578  11.338   7.952
30057SOL    HW192068  11.554  11.327   7.861
30057SOL    HW292069  11.498  11.317   8.001
30058SOL     OW92070  12.881  10.561  13.907
30058SOL    HW192071  12.838  10.493  13.958
30058SOL    HW292072  12.819  10.582  13.837
30059SOL     OW92073   4.484  10.014   7.689
30059SOL    HW192074   4.520  10.054   7.768
30059SOL    HW292075   4.561   9.981   7.642
30060SOL     OW92076  14.102   4.560   6.781
30060SOL    HW192077  14.011   4.578   6.758
30060SOL    HW292078  14.121   4.475   6.742
30061SOL     OW92079  14.081   6.755  10.623
30061SOL    HW192080  14.073   6.834  10.570
30061SOL    HW292081  14.110   6.687  10.562
30062SOL     OW92082   5.387   4.411  10.088
30062SOL    HW192083   5.352   4.334  10.044
30062SOL    HW292084   5.413   4.380  10.175
30063SOL     OW92085   5.402   2.446   4.267
30063SOL    HW192086   5.365   2.358   4.255
30063SOL    HW292087   5.477   2.448   4.207
30064SOL     OW92088   1.764  12.533   3.857
30064SOL    HW192089   1.762  12.470   3.930
30064SOL    HW292090   1.767  12.479   3.778
30065SOL     OW92091   3.399   4.501   3.234
30065SOL    HW192092   3.459   4.517   3.306
30065SOL    HW292093   3.406   4.407   3.218
30066SOL     OW92094  12.684   4.488  10.123
30066SOL    HW192095  12.625   4.426  10.080
30066SOL    HW292096  12.753   4.503  10.058
30067SOL     OW92097  13.176  14.470   5.901
30067SOL    HW192098  13.146  14.461   5.991
30067SOL    HW292099  13.120  14.411   5.851
30068SOL     OW92100   2.212  14.076   0.863
30068SOL    HW192101   2.184  14.008   0.924
30068SOL    HW292102   2.226  14.030   0.780
30069SOL     OW92103   6.543   2.540   8.057
30069SOL    HW192104   6.608   2.610   8.057
30069SOL    HW292105   6.474   2.571   7.998
30070SOL     OW92106   6.475   5.008   3.376
30070SOL    HW192107   6.480   4.948   3.301
30070SOL    HW292108   6.501   4.955   3.451
30071SOL     OW92109   4.540   1.985  12.527
30071SOL    HW192110   4.518   1.969  12.435
30071SOL    HW292111   4.619   2.040  12.523
30072SOL     OW92112  12.918   5.133  12.302
30072SOL    HW192113  12.875   5.133  12.388
30072SOL    HW292114  12.974   5.055  12.304
30073SOL     OW92115   5.745  12.645  11.365
30073SOL    HW192116   5.658  12.619  11.395
30073SOL    HW292117   5.776  12.705  11.432
30074SOL     OW92118   2.604  10.406  11.316
30074SOL    HW192119   2.644  10.448  11.393
30074SOL    HW292120   2.604  10.474  11.249
30075SOL     OW92121   5.339  11.537   6.121
30075SOL    HW192122   5.259  11.508   6.164
30075SOL    HW292123   5.389  11.581   6.190
30076SOL     OW92124   9.334   6.141   3.930
30076SOL    HW192125   9.405   6.199   3.901
30076SOL    HW292126   9.350   6.129   4.024
30077SOL     OW92127   4.346   3.548  11.725
30077SOL    HW192128   4.343   3.452  11.727
30077SOL    HW292129   4.281   3.576  11.789
30078SOL     OW92130   6.929   5.947  14.125
30078SOL    HW192131   6.874   6.002  14.181
30078SOL    HW292132   6.932   5.863  14.170
30079SOL     OW92133  14.094  10.650   9.704
30079SOL    HW192134  14.020  10.667   9.763
30079SOL    HW292135  14.065  10.576   9.650
30080SOL     OW92136   5.431  12.078   2.552
30080SOL    HW192137   5.496  12.108   2.616
30080SOL    HW292138   5.386  12.158   2.525
30081SOL     OW92139   2.365   0.892   4.611
30081SOL    HW192140   2.417   0.972   4.606
30081SOL    HW292141   2.391   0.851   4.694
30082SOL     OW92142   3.957  14.199   2.983
30082SOL    HW192143   3.879  14.154   3.016
30082SOL    HW292144   3.976  14.266   3.049
30083SOL     OW92145  10.470  14.677  11.970
30083SOL    HW192146  10.378  14.649  11.967
30083SOL    HW292147  10.479  14.739  11.898
30084SOL     OW92148  10.720  13.485   9.779
30084SOL    HW192149  10.743  13.454   9.691
30084SOL    HW292150  10.741  13.578   9.777
30085SOL     OW92151   1.278  13.326  11.539
30085SOL    HW192152   1.194  13.372  11.530
30085SOL    HW292153   1.343  13.390  11.509
30086SOL     OW92154   9.095   0.113   1.596
30086SOL    HW192155   9.078   0.073   1.682
30086SOL    HW292156   9.172   0.168   1.610
30087SOL     OW92157   8.551   6.076   5.019
30087SOL    HW192158   8.478   6.019   5.043
30087SOL    HW292159   8.629   6.023   5.033
30088SOL     OW92160   0.369   2.582   4.718
30088SOL    HW192161   0.461   2.563   4.737
30088SOL    HW292162   0.355   2.669   4.753
30089SOL     OW92163  10.465  12.143  14.840
30089SOL    HW192164  10.411  12.089  14.782
30089SOL    HW292165  10.442  12.233  14.817
30090SOL     OW92166   9.740   9.851  13.665
30090SOL    HW192167   9.691   9.802  13.730
30090SOL    HW292168   9.743   9.940  13.699
30091SOL     OW92169   1.268   0.321  11.424
30091SOL    HW192170   1.313   0.403  11.445
30091SOL    HW292171   1.281   0.265  11.501
30092SOL     OW92172   0.888   7.753   0.747
30092SOL    HW192173   0.939   7.711   0.816
30092SOL    HW292174   0.800   7.716   0.756
30093SOL     OW92175  12.192  13.667   4.105
30093SOL    HW192176  12.172  13.582   4.065
30093SOL    HW292177  12.141  13.730   4.055
30094SOL     OW92178   8.628  12.387  12.497
30094SOL    HW192179   8.618  12.331  12.574
30094SOL    HW292180   8.549  12.371  12.445
30095SOL     OW92181   3.833   4.219   0.201
30095SOL    HW192182   3.878   4.253   0.124
30095SOL    HW292183   3.789   4.140   0.169
30096SOL     OW92184   4.041  14.033   9.136
30096SOL    HW192185   3.997  14.077   9.209
30096SOL    HW292186   3.979  13.965   9.108
30097SOL     OW92187   5.096   8.434   3.596
30097SOL    HW192188   5.027   8.434   3.529
30097SOL    HW292189   5.155   8.504   3.569
30098SOL     OW92190   3.429   1.008   4.105
30098SOL    HW192191   3.512   0.969   4.131
30098SOL    HW292192   3.452   1.068   4.034
30099SOL     OW92193   2.143  11.104   8.222
30099SOL    HW192194   2.081  11.080   8.153
30099SOL    HW292195   2.229  11.095   8.181
30100SOL     OW92196   3.610  13.159   0.718
30100SOL    HW192197   3.585  13.095   0.651
30100SOL    HW292198   3.527  13.197   0.747
30101SOL     OW92199   3.465   3.608   8.952
30101SOL    HW192200   3.389   3.554   8.975
30101SOL    HW292201   3.455   3.687   9.004
30102SOL     OW92202   5.197   7.432   2.788
30102SOL    HW192203   5.118   7.484   2.803
30102SOL    HW292204   5.196   7.366   2.857
30103SOL     OW92205   2.634   0.296   7.429
30103SOL    HW192206   2.712   0.344   7.401
30103SOL    HW292207   2.602   0.345   7.505
30104SOL     OW92208   3.407   3.837   7.447
30104SOL    HW192209   3.431   3.926   7.473
30104SOL    HW292210   3.323   3.821   7.489
30105SOL     OW92211   4.790   5.123  13.391
30105SOL    HW192212   4.824   5.055  13.449
30105SOL    HW292213   4.821   5.097  13.304
30106SOL     OW92214  10.388  12.581  11.386
30106SOL    HW192215  10.357  12.578  11.477
30106SOL    HW292216  10.321  12.632  11.340
30107SOL     OW92217   3.595   0.684  13.381
30107SOL    HW192218   3.617   0.776  13.365
30107SOL    HW292219   3.510   0.672  13.339
30108SOL     OW92220   4.713  11.184   0.728
30108SOL    HW192221   4.723  11.277   0.751
30108SOL    HW292222   4.696  11.141   0.812
30109SOL     OW92223   5.615   4.546   3.236
30109SOL    HW192224   5.609   4.503   3.322
30109SOL    HW292225   5.531   4.529   3.195
30110SOL     OW92226   6.632  10.907  12.457
30110SOL    HW192227   6.684  10.839  12.500
30110SOL    HW292228   6.542  10.890  12.486
30111SOL     OW92229   4.275   9.457   2.261
30111SOL    HW192230   4.284   9.405   2.181
30111SOL    HW292231   4.339   9.528   2.250
30112SOL     OW92232  10.205  13.335   1.826
30112SOL    HW192233  10.281  13.294   1.785
30112SOL    HW292234  10.190  13.414   1.774
30113SOL     OW92235   9.391  12.795   7.118
30113SOL    HW192236   9.462  12.774   7.179
30113SOL    HW292237   9.421  12.873   7.072
30114SOL     OW92238  14.761   4.209  10.937
30114SOL    HW192239  14.694   4.142  10.925
30114SOL    HW292240  14.831   4.165  10.985
30115SOL     OW92241   1.593   6.002   0.729
30115SOL    HW192242   1.557   6.051   0.803
30115SOL    HW292243   1.578   6.058   0.653
30116SOL     OW92244  10.504   8.690   6.649
30116SOL    HW192245  10.532   8.781   6.637
30116SOL    HW292246  10.563   8.640   6.592
30117SOL     OW92247   1.105   4.602   6.178
30117SOL    HW192248   1.200   4.612   6.181
30117SOL    HW292249   1.087   4.572   6.088
30118SOL     OW92250   8.792  14.729   1.481
30118SOL    HW192251   8.838  14.648   1.503
30118SOL    HW292252   8.757  14.713   1.393
30119SOL     OW92253   0.839   9.516   4.988
30119SOL    HW192254   0.855   9.522   5.082
30119SOL    HW292255   0.745   9.503   4.981
30120SOL     OW92256  13.446  12.618   0.635
30120SOL    HW192257  13.516  12.639   0.572
30120SOL    HW292258  13.424  12.527   0.616
30121SOL     OW92259   8.148   1.750   6.654
30121SOL    HW192260   8.146   1.845   6.662
30121SOL    HW292261   8.078   1.730   6.592
30122SOL     OW92262  12.441   5.196  13.535
30122SOL    HW192263  12.417   5.289  13.535
30122SOL    HW292264  12.409   5.164  13.451
30123SOL     OW92265   5.944   7.279   7.286
30123SOL    HW192266   5.878   7.277   7.355
30123SOL    HW292267   5.913   7.217   7.220
30124SOL     OW92268   9.971   4.282  11.819
30124SOL    HW192269   9.914   4.247  11.887
30124SOL    HW292270   9.930   4.365  11.794
30125SOL     OW92271   7.088  12.168  12.613
30125SOL    HW192272   7.019  12.179  12.679
30125SOL    HW292273   7.084  12.075  12.590
30126SOL     OW92274  12.973  10.647   7.532
30126SOL    HW192275  12.908  10.606   7.590
30126SOL    HW292276  13.053  10.598   7.547
30127SOL     OW92277   1.033   9.135   1.366
30127SOL    HW192278   1.024   9.117   1.459
30127SOL    HW292279   1.037   9.230   1.360
30128SOL     OW92280  13.631  11.078   5.962
30128SOL    HW192281  13.639  11.091   6.056
30128SOL    HW292282  13.716  11.045   5.934
30129SOL     OW92283   7.805  13.701   5.300
30129SOL    HW192284   7.726  13.671   5.345
30129SOL    HW292285   7.878  13.662   5.349
30130SOL     OW92286   3.654  12.756   3.825
30130SOL    HW192287   3.712  12.748   3.749
30130SOL    HW292288   3.653  12.850   3.844
30131SOL     OW92289   3.308   7.440   3.853
30131SOL    HW192290   3.246   7.512   3.865
30131SOL    HW292291   3.271   7.368   3.905
30132SOL     OW92292  13.426   0.050   6.877
30132SOL    HW192293  13.375   0.131   6.875
30132SOL    HW292294  13.401   0.008   6.959
30133SOL     OW92295  10.745  12.482   5.907
30133SOL    HW192296  10.671  12.431   5.874
30133SOL    HW292297  10.713  12.520   5.989
30134SOL     OW92298  10.826   0.719  13.797
30134SOL    HW192299  10.783   0.660  13.858
30134SOL    HW292300  10.804   0.807  13.828
30135SOL     OW92301   5.542   8.548   4.652
30135SOL    HW192302   5.489   8.618   4.613
30135SOL    HW292303   5.489   8.516   4.725
30136SOL     OW92304   9.186  11.531  12.638
30136SOL    HW192305   9.236  11.549  12.718
30136SOL    HW292306   9.241  11.565  12.567
30137SOL     OW92307  14.216   4.213   7.357
30137SOL    HW192308  14.209   4.183   7.266
30137SOL    HW292309  14.217   4.309   7.351
30138SOL     OW92310   2.434   6.134   5.953
30138SOL    HW192311   2.362   6.182   5.912
30138SOL    HW292312   2.482   6.201   6.002
30139SOL     OW92313   4.849   0.810   2.399
30139SOL    HW192314   4.828   0.882   2.458
30139SOL    HW292315   4.803   0.735   2.435
30140SOL     OW92316   4.995  11.145   7.800
30140SOL    HW192317   5.001  11.085   7.725
30140SOL    HW292318   5.011  11.231   7.762
30141SOL     OW92319  14.751   2.758  11.495
30141SOL    HW192320  14.720   2.751  11.405
30141SOL    HW292321  14.794   2.674  11.512
30142SOL     OW92322   6.685  12.666   5.668
30142SOL    HW192323   6.739  12.610   5.725
30142SOL    HW292324   6.596  12.634   5.681
30143SOL     OW92325   1.710   7.275   3.344
30143SOL    HW192326   1.720   7.183   3.322
30143SOL    HW292327   1.657   7.311   3.274
30144SOL     OW92328   1.442  11.616   1.612
30144SOL    HW192329   1.474  11.564   1.685
30144SOL    HW292330   1.393  11.553   1.558
30145SOL     OW92331   7.282   7.599   3.508
30145SOL    HW192332   7.293   7.683   3.464
30145SOL    HW292333   7.358   7.548   3.481
30146SOL     OW92334  12.795  14.776   3.517
30146SOL    HW192335  12.878  14.798   3.558
30146SOL    HW292336  12.759  14.860   3.488
30147SOL     OW92337   2.533  12.409   7.678
30147SOL    HW192338   2.482  12.391   7.599
30147SOL    HW292339   2.529  12.504   7.689
30148SOL     OW92340   4.253  14.861   0.814
30148SOL    HW192341   4.309   0.058   0.844
30148SOL    HW292342   4.164   0.018   0.828
30149SOL     OW92343   2.797  11.495  13.958
30149SOL    HW192344   2.708  11.522  13.934
30149SOL    HW292345   2.837  11.468  13.875
30150SOL     OW92346   2.930   1.241   5.752
30150SOL    HW192347   3.011   1.282   5.722
30150SOL    HW292348   2.867   1.261   5.682
30151SOL     OW92349   4.600   0.182   3.511
30151SOL    HW192350   4.613   0.217   3.423
30151SOL    HW292351   4.639   0.248   3.569
30152SOL     OW92352   7.895   5.506   4.053
30152SOL    HW192353   7.891   5.493   4.148
30152SOL    HW292354   7.988   5.523   4.035
30153SOL     OW92355  12.505   7.956   2.416
30153SOL    HW192356  12.500   8.009   2.495
30153SOL    HW292357  12.538   8.015   2.348
30154SOL     OW92358   6.196   3.703   8.338
30154SOL    HW192359   6.288   3.727   8.331
30154SOL    HW292360   6.175   3.716   8.431
30155SOL     OW92361  13.246   5.383   6.722
30155SOL    HW192362  13.227   5.399   6.629
30155SOL    HW292363  13.194   5.307   6.744
30156SOL     OW92364   1.262   9.228  13.780
30156SOL    HW192365   1.218   9.146  13.802
30156SOL    HW292366   1.234   9.248  13.691
30157SOL     OW92367  10.684   8.568  14.038
30157SOL    HW192368  10.670   8.626  13.964
30157SOL    HW292369  10.706   8.483  13.998
30158SOL     OW92370   6.020   9.637   7.486
30158SOL    HW192371   6.052   9.674   7.403
30158SOL    HW292372   5.946   9.582   7.461
30159SOL     OW92373   2.614   8.760   4.445
30159SOL    HW192374   2.686   8.724   4.497
30159SOL    HW292375   2.536   8.717   4.478
30160SOL     OW92376   6.628  14.786   7.248
30160SOL    HW192377   6.683  14.772   7.171
30160SOL    HW292378   6.556  14.842   7.217
30161SOL     OW92379   6.761  13.689   7.652
30161SOL    HW192380   6.698  13.677   7.580
30161SOL    HW292381   6.757  13.782   7.671
30162SOL     OW92382   1.390   8.687   3.582
30162SOL    HW192383   1.472   8.706   3.536
30162SOL    HW292384   1.376   8.762   3.639
30163SOL     OW92385  13.794   1.855   9.656
30163SOL    HW192386  13.768   1.803   9.580
30163SOL    HW292387  13.849   1.925   9.620
30164SOL     OW92388  11.072   5.851   4.333
30164SOL    HW192389  11.007   5.806   4.387
30164SOL    HW292390  11.147   5.863   4.391
30165SOL     OW92391  10.548  12.148   6.159
30165SOL    HW192392  10.600  12.210   6.210
30165SOL    HW292393  10.610  12.106   6.100
30166SOL     OW92394  11.639   3.092   7.248
30166SOL    HW192395  11.597   3.166   7.204
30166SOL    HW292396  11.732   3.113   7.247
30167SOL     OW92397   8.095   1.269  12.272
30167SOL    HW192398   8.080   1.344  12.330
30167SOL    HW292399   8.051   1.196  12.316
30168SOL     OW92400  12.969   1.275   1.436
30168SOL    HW192401  12.898   1.228   1.392
30168SOL    HW292402  12.980   1.230   1.519
30169SOL     OW92403   8.390   5.829   2.898
30169SOL    HW192404   8.346   5.831   2.814
30169SOL    HW292405   8.483   5.823   2.876
30170SOL     OW92406  13.607   0.043   6.048
30170SOL    HW192407  13.586   0.135   6.031
30170SOL    HW292408  13.602   0.035   6.144
30171SOL     OW92409  14.748   8.517   4.616
30171SOL    HW192410  14.683   8.456   4.583
30171SOL    HW292411  14.820   8.513   4.552
30172SOL     OW92412   8.139   2.445   9.255
30172SOL    HW192413   8.232   2.425   9.268
30172SOL    HW292414   8.126   2.529   9.300
30173SOL     OW92415   7.436  10.435   7.552
30173SOL    HW192416   7.530  10.415   7.557
30173SOL    HW292417   7.396  10.379   7.618
30174SOL     OW92418   4.386  11.206   6.155
30174SOL    HW192419   4.429  11.122   6.173
30174SOL    HW292420   4.436  11.243   6.082
30175SOL     OW92421   4.882   2.379   2.578
30175SOL    HW192422   4.935   2.456   2.559
30175SOL    HW292423   4.856   2.391   2.670
30176SOL     OW92424  10.483  11.884   1.939
30176SOL    HW192425  10.529  11.880   2.023
30176SOL    HW292426  10.413  11.819   1.947
30177SOL     OW92427   5.957   4.050   4.003
30177SOL    HW192428   5.938   4.041   3.909
30177SOL    HW292429   6.052   4.036   4.010
30178SOL     OW92430   0.072  10.395   7.314
30178SOL    HW192431  14.854  10.401   7.336
30178SOL    HW292432   0.117  10.392   7.399
30179SOL     OW92433   6.285   8.569  14.190
30179SOL    HW192434   6.354   8.556  14.256
30179SOL    HW292435   6.306   8.505  14.122
30180SOL     OW92436  10.504  10.693   6.213
30180SOL    HW192437  10.543  10.637   6.280
30180SOL    HW292438  10.468  10.631   6.149
30181SOL     OW92439   1.050   7.940  10.331
30181SOL    HW192440   1.118   7.918  10.268
30181SOL    HW292441   1.091   8.005  10.389
30182SOL     OW92442   7.890   4.247  14.313
30182SOL    HW192443   7.971   4.244  14.263
30182SOL    HW292444   7.848   4.329  14.285
30183SOL     OW92445   1.259   9.532   6.171
30183SOL    HW192446   1.322   9.599   6.142
30183SOL    HW292447   1.305   9.449   6.156
30184SOL     OW92448   8.022   3.764   9.641
30184SOL    HW192449   8.059   3.812   9.567
30184SOL    HW292450   7.945   3.814   9.666
30185SOL     OW92451   9.063  11.045  11.721
30185SOL    HW192452   9.009  11.038  11.799
30185SOL    HW292453   9.086  10.954  11.699
30186SOL     OW92454   1.188   7.772   9.595
30186SOL    HW192455   1.120   7.740   9.536
30186SOL    HW292456   1.251   7.815   9.537
30187SOL     OW92457   2.872   6.630  10.826
30187SOL    HW192458   2.873   6.718  10.788
30187SOL    HW292459   2.957   6.593  10.802
30188SOL     OW92460  12.158   9.199   4.158
30188SOL    HW192461  12.169   9.106   4.141
30188SOL    HW292462  12.184   9.242   4.077
30189SOL     OW92463   0.842   4.049  13.145
30189SOL    HW192464   0.880   4.056  13.057
30189SOL    HW292465   0.812   4.138  13.165
30190SOL     OW92466  10.080   0.561   6.649
30190SOL    HW192467  10.095   0.545   6.742
30190SOL    HW292468  10.017   0.493   6.624
30191SOL     OW92469   5.845   8.178   2.607
30191SOL    HW192470   5.917   8.192   2.668
30191SOL    HW292471   5.817   8.088   2.622
30192SOL     OW92472   7.051   7.936   0.902
30192SOL    HW192473   6.999   7.894   0.971
30192SOL    HW292474   7.033   7.885   0.823
30193SOL     OW92475   9.817  12.595  11.198
30193SOL    HW192476   9.774  12.667  11.152
30193SOL    HW292477   9.794  12.517  11.148
30194SOL     OW92478   3.165  14.828   1.665
30194SOL    HW192479   3.254  14.848   1.637
30194SOL    HW292480   3.119  14.803   1.585
30195SOL     OW92481   5.600  10.011   4.328
30195SOL    HW192482   5.519  10.009   4.379
30195SOL    HW292483   5.665   9.972   4.386
30196SOL     OW92484  12.254   4.415   9.593
30196SOL    HW192485  12.320   4.347   9.579
30196SOL    HW292486  12.246   4.459   9.509
30197SOL     OW92487  14.616   3.399  13.339
30197SOL    HW192488  14.632   3.422  13.431
30197SOL    HW292489  14.596   3.306  13.341
30198SOL     OW92490   5.157   3.777  14.868
30198SOL    HW192491   5.102   3.700   0.005
30198SOL    HW292492   5.226   3.748  14.808
30199SOL     OW92493   2.550   4.103   6.691
30199SOL    HW192494   2.461   4.084   6.662
30199SOL    HW292495   2.606   4.058   6.628
30200SOL     OW92496   6.536   5.276   7.021
30200SOL    HW192497   6.461   5.215   7.021
30200SOL    HW292498   6.612   5.219   7.032
30201SOL     OW92499   3.029   3.961   5.096
30201SOL    HW192500   3.035   4.056   5.106
30201SOL    HW292501   2.937   3.940   5.117
30202SOL     OW92502   3.975   0.616  14.677
30202SOL    HW192503   4.027   0.601  14.756
30202SOL    HW292504   3.898   0.663  14.708
30203SOL     OW92505   9.927  14.203   4.157
30203SOL    HW192506   9.990  14.236   4.222
30203SOL    HW292507   9.842  14.214   4.198
30204SOL     OW92508   7.878   2.024   2.100
30204SOL    HW192509   7.795   1.977   2.114
30204SOL    HW292510   7.937   1.957   2.064
30205SOL     OW92511  10.712  10.320   8.307
30205SOL    HW192512  10.669  10.270   8.238
30205SOL    HW292513  10.718  10.259   8.381
30206SOL     OW92514  13.275  11.793   1.641
30206SOL    HW192515  13.219  11.871   1.631
30206SOL    HW292516  13.294  11.767   1.551
30207SOL     OW92517  12.743   9.722  14.299
30207SOL    HW192518  12.792   9.789  14.252
30207SOL    HW292519  12.659   9.765  14.320
30208SOL     OW92520  13.481   3.537   1.905
30208SOL    HW192521  13.450   3.622   1.937
30208SOL    HW292522  13.442   3.473   1.965
30209SOL     OW92523   9.352   3.384   9.617
30209SOL    HW192524   9.294   3.419   9.684
30209SOL    HW292525   9.436   3.426   9.633
30210SOL     OW92526  14.873   8.536   5.019
30210SOL    HW192527   0.060   8.475   5.061
30210SOL    HW292528   0.053   8.609   4.990
30211SOL     OW92529   8.962   0.269   1.211
30211SOL    HW192530   8.876   0.306   1.230
30211SOL    HW292531   8.964   0.188   1.262
30212SOL     OW92532   6.548   4.881  13.689
30212SOL    HW192533   6.506   4.904  13.606
30212SOL    HW292534   6.558   4.964  13.734
30213SOL     OW92535  11.210   9.275   9.135
30213SOL    HW192536  11.288   9.220   9.137
30213SOL    HW292537  11.137   9.215   9.152
30214SOL     OW92538  10.102   0.333   7.970
30214SOL    HW192539  10.079   0.256   8.022
30214SOL    HW292540  10.170   0.378   8.021
30215SOL     OW92541   8.388   4.583  13.253
30215SOL    HW192542   8.362   4.655  13.195
30215SOL    HW292543   8.308   4.534  13.270
30216SOL     OW92544   6.956   6.180   0.919
30216SOL    HW192545   6.897   6.198   0.992
30216SOL    HW292546   6.900   6.188   0.841
30217SOL     OW92547   9.497   1.334  14.532
30217SOL    HW192548   9.477   1.248  14.493
30217SOL    HW292549   9.592   1.342  14.522
30218SOL     OW92550   3.302   8.338   6.539
30218SOL    HW192551   3.290   8.271   6.472
30218SOL    HW292552   3.242   8.313   6.609
30219SOL     OW92553   6.151   3.695  12.613
30219SOL    HW192554   6.174   3.661  12.526
30219SOL    HW292555   6.075   3.750  12.597
30220SOL     OW92556   8.455   6.943   6.471
30220SOL    HW192557   8.470   6.956   6.565
30220SOL    HW292558   8.363   6.965   6.459
30221SOL     OW92559   2.970   0.741   1.388
30221SOL    HW192560   3.065   0.731   1.391
30221SOL    HW292561   2.945   0.755   1.479
30222SOL     OW92562   4.775  14.745  12.868
30222SOL    HW192563   4.803  14.834  12.844
30222SOL    HW292564   4.741  14.754  12.957
30223SOL     OW92565   3.193  10.964   4.170
30223SOL    HW192566   3.148  11.045   4.191
30223SOL    HW292567   3.282  10.990   4.149
30224SOL     OW92568   1.937  14.234  11.754
30224SOL    HW192569   1.973  14.318  11.784
30224SOL    HW292570   1.859  14.221  11.807
30225SOL     OW92571  11.099   2.128   0.139
30225SOL    HW192572  11.169   2.084   0.090
30225SOL    HW292573  11.021   2.075   0.122
30226SOL     OW92574  11.784  11.668   1.368
30226SOL    HW192575  11.709  11.727   1.374
30226SOL    HW292576  11.853  11.713   1.418
30227SOL     OW92577  11.752  12.161  12.786
30227SOL    HW192578  11.670  12.209  12.798
30227SOL    HW292579  11.770  12.122  12.872
30228SOL     OW92580  12.841  14.150   3.149
30228SOL    HW192581  12.871  14.240   3.165
30228SOL    HW292582  12.907  14.096   3.192
30229SOL     OW92583   2.650   8.755  11.946
30229SOL    HW192584   2.641   8.710  11.862
30229SOL    HW292585   2.645   8.848  11.924
30230SOL     OW92586   1.353  13.197   1.355
30230SOL    HW192587   1.424  13.136   1.376
30230SOL    HW292588   1.296  13.194   1.432
30231SOL     OW92589   9.841  14.603   0.077
30231SOL    HW192590   9.850  14.557   0.160
30231SOL    HW292591   9.756  14.577   0.043
30232SOL     OW92592   4.010   3.662  10.432
30232SOL    HW192593   4.012   3.630  10.522
30232SOL    HW292594   3.959   3.743  10.437
30233SOL     OW92595  11.513   1.489  11.229
30233SOL    HW192596  11.578   1.496  11.160
30233SOL    HW292597  11.454   1.563  11.214
30234SOL     OW92598   3.161   7.973   3.090
30234SOL    HW192599   3.191   7.885   3.069
30234SOL    HW292600   3.231   8.010   3.143
30235SOL     OW92601   8.442   8.696   3.537
30235SOL    HW192602   8.420   8.788   3.552
30235SOL    HW292603   8.388   8.648   3.599
30236SOL     OW92604   4.194  13.351   3.152
30236SOL    HW192605   4.226  13.431   3.111
30236SOL    HW292606   4.136  13.382   3.222
30237SOL     OW92607  13.658  13.001   8.145
30237SOL    HW192608  13.678  12.910   8.165
30237SOL    HW292609  13.697  13.050   8.218
30238SOL     OW92610   3.129   5.639   3.828
30238SOL    HW192611   3.034   5.629   3.821
30238SOL    HW292612   3.165   5.556   3.796
30239SOL     OW92613  13.074   0.674  12.559
30239SOL    HW192614  13.110   0.761  12.541
30239SOL    HW292615  13.014   0.687  12.632
30240SOL     OW92616   4.730  10.950  13.375
30240SOL    HW192617   4.721  10.936  13.469
30240SOL    HW292618   4.718  11.044  13.363
30241SOL     OW92619   2.790   9.940  12.809
30241SOL    HW192620   2.727   9.882  12.852
30241SOL    HW292621   2.860   9.882  12.780
30242SOL     OW92622   8.763   9.370   4.279
30242SOL    HW192623   8.773   9.409   4.366
30242SOL    HW292624   8.851   9.371   4.242
30243SOL     OW92625   1.562   2.132   5.634
30243SOL    HW192626   1.515   2.197   5.687
30243SOL    HW292627   1.496   2.068   5.609
30244SOL     OW92628  12.449   6.857   0.664
30244SOL    HW192629  12.412   6.791   0.606
30244SOL    HW292630  12.379   6.874   0.728
30245SOL     OW92631   6.787   7.965  10.653
30245SOL    HW192632   6.840   8.029  10.605
30245SOL    HW292633   6.737   7.920  10.584
30246SOL     OW92634   8.703   5.771  12.804
30246SOL    HW192635   8.793   5.779  12.835
30246SOL    HW292636   8.650   5.776  12.884
30247SOL     OW92637   9.516   3.954   7.836
30247SOL    HW192638   9.498   3.886   7.901
30247SOL    HW292639   9.461   4.028   7.863
30248SOL     OW92640  10.040  12.753  11.891
30248SOL    HW192641  10.019  12.689  11.959
30248SOL    HW292642   9.956  12.790  11.866
30249SOL     OW92643  12.194   3.238   4.246
30249SOL    HW192644  12.194   3.144   4.262
30249SOL    HW292645  12.119   3.272   4.294
30250SOL     OW92646   3.303   6.003   1.927
30250SOL    HW192647   3.332   6.048   1.848
30250SOL    HW292648   3.271   5.918   1.896
30251SOL     OW92649   0.185   7.730   4.255
30251SOL    HW192650   0.163   7.768   4.170
30251SOL    HW292651   0.127   7.776   4.317
30252SOL     OW92652   7.980  10.962   8.321
30252SOL    HW192653   8.032  10.893   8.362
30252SOL    HW292654   7.995  11.040   8.376
30253SOL     OW92655   3.135   8.144  10.785
30253SOL    HW192656   3.141   8.203  10.860
30253SOL    HW292657   3.067   8.182  10.729
30254SOL     OW92658   7.419   2.349   9.911
30254SOL    HW192659   7.412   2.445   9.911
30254SOL    HW292660   7.359   2.320   9.843
30255SOL     OW92661   6.279   0.876   2.608
30255SOL    HW192662   6.204   0.922   2.570
30255SOL    HW292663   6.290   0.799   2.551
30256SOL     OW92664   2.862   7.993  12.269
30256SOL    HW192665   2.780   8.043  12.277
30256SOL    HW292666   2.926   8.057  12.239
30257SOL     OW92667  10.823  14.835   3.626
30257SOL    HW192668  10.868  14.856   3.708
30257SOL    HW292669  10.732  14.820   3.651
30258SOL     OW92670   8.503   4.339   0.175
30258SOL    HW192671   8.551   4.274   0.228
30258SOL    HW292672   8.571   4.379   0.120
30259SOL     OW92673   3.103   6.872   4.862
30259SOL    HW192674   3.090   6.928   4.786
30259SOL    HW292675   3.143   6.929   4.928
30260SOL     OW92676  14.180   3.657   8.153
30260SOL    HW192677  14.251   3.647   8.091
30260SOL    HW292678  14.107   3.610   8.114
30261SOL     OW92679   5.122   7.141   2.664
30261SOL    HW192680   5.139   7.226   2.623
30261SOL    HW292681   5.140   7.078   2.595
30262SOL     OW92682   7.450   2.598   7.668
30262SOL    HW192683   7.467   2.529   7.732
30262SOL    HW292684   7.504   2.672   7.697
30263SOL     OW92685  10.407   6.627  11.857
30263SOL    HW192686  10.330   6.633  11.914
30263SOL    HW292687  10.379   6.573  11.783
30264SOL     OW92688   6.555   7.203  12.853
30264SOL    HW192689   6.647   7.229  12.844
30264SOL    HW292690   6.519   7.264  12.917
30265SOL     OW92691   8.591   2.079   8.238
30265SOL    HW192692   8.634   2.010   8.287
30265SOL    HW292693   8.559   2.037   8.159
30266SOL     OW92694  10.957  13.141  14.238
30266SOL    HW192695  10.986  13.224  14.277
30266SOL    HW292696  10.873  13.162  14.197
30267SOL     OW92697   2.040   7.058   1.629
30267SOL    HW192698   2.127   7.097   1.620
30267SOL    HW292699   2.034   6.994   1.557
30268SOL     OW92700   4.001  14.395   1.626
30268SOL    HW192701   3.940  14.325   1.600
30268SOL    HW292702   3.959  14.435   1.702
30269SOL     OW92703   8.953   5.004   2.408
30269SOL    HW192704   8.958   4.917   2.370
30269SOL    HW292705   8.952   5.063   2.333
30270SOL     OW92706   5.085  12.996   9.543
30270SOL    HW192707   5.138  13.046   9.605
30270SOL    HW292708   4.996  13.001   9.579
30271SOL     OW92709  13.679   2.358   0.567
30271SOL    HW192710  13.624   2.297   0.518
30271SOL    HW292711  13.711   2.306   0.641
30272SOL     OW92712  13.833   5.602  13.361
30272SOL    HW192713  13.901   5.598  13.428
30272SOL    HW292714  13.872   5.653  13.290
30273SOL     OW92715   9.484   2.977   9.748
30273SOL    HW192716   9.578   2.995   9.736
30273SOL    HW292717   9.470   2.895   9.699
30274SOL     OW92718  13.022   7.275  13.965
30274SOL    HW192719  13.077   7.347  13.936
30274SOL    HW292720  13.007   7.222  13.887
30275SOL     OW92721   4.183  12.902   8.202
30275SOL    HW192722   4.161  12.985   8.161
30275SOL    HW292723   4.244  12.860   8.141
30276SOL     OW92724  14.712  14.656   4.912
30276SOL    HW192725  14.661  14.588   4.867
30276SOL    HW292726  14.656  14.685   4.984
30277SOL     OW92727   1.299   2.664   5.968
30277SOL    HW192728   1.217   2.662   6.017
30277SOL    HW292729   1.351   2.593   6.005
30278SOL     OW92730   4.076   6.773   6.928
30278SOL    HW192731   4.102   6.737   7.013
30278SOL    HW292732   3.981   6.764   6.927
30279SOL     OW92733   5.529   3.518   6.338
30279SOL    HW192734   5.505   3.470   6.417
30279SOL    HW292735   5.572   3.453   6.282
30280SOL     OW92736  14.563  10.608  13.929
30280SOL    HW192737  14.528  10.519  13.924
30280SOL    HW292738  14.511  10.650  13.998
30281SOL     OW92739  13.363   9.745   9.123
30281SOL    HW192740  13.431   9.698   9.170
30281SOL    HW292741  13.408   9.784   9.048
30282SOL     OW92742  11.995  12.527  12.993
30282SOL    HW192743  11.912  12.481  13.005
30282SOL    HW292744  12.014  12.567  13.078
30283SOL     OW92745   9.023  10.314   4.687
30283SOL    HW192746   8.941  10.285   4.727
30283SOL    HW292747   9.086  10.247   4.711
30284SOL     OW92748  11.753  12.889   5.099
30284SOL    HW192749  11.841  12.895   5.063
30284SOL    HW292750  11.722  12.979   5.104
30285SOL     OW92751  10.736  10.530   4.268
30285SOL    HW192752  10.747  10.479   4.188
30285SOL    HW292753  10.774  10.616   4.248
30286SOL     OW92754   2.950   0.182  13.151
30286SOL    HW192755   2.894   0.259  13.159
30286SOL    HW292756   2.889   0.108  13.146
30287SOL     OW92757   3.895   5.252   6.839
30287SOL    HW192758   3.985   5.239   6.810
30287SOL    HW292759   3.881   5.186   6.906
30288SOL     OW92760  12.020   7.671   1.294
30288SOL    HW192761  12.001   7.591   1.245
30288SOL    HW292762  12.055   7.640   1.378
30289SOL     OW92763   9.810   1.723   2.442
30289SOL    HW192764   9.735   1.744   2.386
30289SOL    HW292765   9.800   1.629   2.461
30290SOL     OW92766   8.438   1.112   0.646
30290SOL    HW192767   8.367   1.052   0.670
30290SOL    HW292768   8.395   1.195   0.628
30291SOL     OW92769   0.743  14.338   6.106
30291SOL    HW192770   0.723  14.354   6.013
30291SOL    HW292771   0.839  14.334   6.110
30292SOL     OW92772   2.968   0.376   5.019
30292SOL    HW192773   2.953   0.411   4.931
30292SOL    HW292774   3.061   0.356   5.021
30293SOL     OW92775   4.377   2.247  12.359
30293SOL    HW192776   4.465   2.234  12.323
30293SOL    HW292777   4.319   2.208  12.294
30294SOL     OW92778   1.072   8.607   2.680
30294SOL    HW192779   1.028   8.582   2.599
30294SOL    HW292780   1.049   8.699   2.693
30295SOL     OW92781  11.605   0.121   8.881
30295SOL    HW192782  11.583   0.080   8.965
30295SOL    HW292783  11.698   0.140   8.887
30296SOL     OW92784   8.092  14.024  11.683
30296SOL    HW192785   8.088  14.019  11.587
30296SOL    HW292786   8.183  14.048  11.701
30297SOL     OW92787  12.116  12.236   3.538
30297SOL    HW192788  12.142  12.228   3.630
30297SOL    HW292789  12.025  12.209   3.536
30298SOL     OW92790  12.758   9.814   1.090
30298SOL    HW192791  12.812   9.893   1.089
30298SOL    HW292792  12.669   9.845   1.105
30299SOL     OW92793  13.382   3.677  12.946
30299SOL    HW192794  13.451   3.647  13.006
30299SOL    HW292795  13.344   3.596  12.912
30300SOL     OW92796   8.441   2.496   7.007
30300SOL    HW192797   8.433   2.504   7.102
30300SOL    HW292798   8.365   2.543   6.972
30301SOL     OW92799   7.750  10.499   9.833
30301SOL    HW192800   7.748  10.590   9.805
30301SOL    HW292801   7.660  10.480   9.860
30302SOL     OW92802   3.150  14.846   0.348
30302SOL    HW192803   3.198  14.807   0.275
30302SOL    HW292804   3.212   0.033   0.387
30303SOL     OW92805   6.842  14.214   8.730
30303SOL    HW192806   6.820  14.275   8.801
30303SOL    HW292807   6.909  14.259   8.680
30304SOL     OW92808  13.024   9.600   9.668
30304SOL    HW192809  13.115   9.613   9.692
30304SOL    HW292810  12.991   9.687   9.648
30305SOL     OW92811   6.967   6.402  10.146
30305SOL    HW192812   6.922   6.362  10.072
30305SOL    HW292813   7.059   6.403  10.121
30306SOL     OW92814   5.557  12.981  10.700
30306SOL    HW192815   5.590  12.922  10.632
30306SOL    HW292816   5.516  13.053  10.651
30307SOL     OW92817  12.881   9.888  14.157
30307SOL    HW192818  12.942   9.961  14.158
30307SOL    HW292819  12.801   9.924  14.119
30308SOL     OW92820  12.337  13.492  12.000
30308SOL    HW192821  12.425  13.528  11.986
30308SOL    HW292822  12.288  13.565  12.038
30309SOL     OW92823   8.724   9.095  10.718
30309SOL    HW192824   8.805   9.057  10.684
30309SOL    HW292825   8.746   9.186  10.736
30310SOL     OW92826   9.234   1.765   3.072
30310SOL    HW192827   9.286   1.743   3.149
30310SOL    HW292828   9.210   1.681   3.034
30311SOL     OW92829   1.873   4.067  13.402
30311SOL    HW192830   1.949   4.087  13.456
30311SOL    HW292831   1.820   4.008  13.456
30312SOL     OW92832  14.427   4.758   3.679
30312SOL    HW192833  14.406   4.819   3.750
30312SOL    HW292834  14.514   4.785   3.650
30313SOL     OW92835   4.098   0.948  14.236
30313SOL    HW192836   4.151   1.025  14.258
30313SOL    HW292837   4.063   0.919  14.320
30314SOL     OW92838   6.575   5.437   9.529
30314SOL    HW192839   6.538   5.351   9.510
30314SOL    HW292840   6.525   5.469   9.604
30315SOL     OW92841   6.356   7.699   6.976
30315SOL    HW192842   6.424   7.634   6.994
30315SOL    HW292843   6.274   7.652   6.987
30316SOL     OW92844   9.667   7.427   2.460
30316SOL    HW192845   9.599   7.491   2.481
30316SOL    HW292846   9.712   7.413   2.544
30317SOL     OW92847   8.956   7.740   9.310
30317SOL    HW192848   8.934   7.651   9.340
30317SOL    HW292849   9.050   7.747   9.324
30318SOL     OW92850   2.782  14.179   2.375
30318SOL    HW192851   2.814  14.126   2.448
30318SOL    HW292852   2.862  14.207   2.330
30319SOL     OW92853   3.910  13.673  12.973
30319SOL    HW192854   3.973  13.719  13.029
30319SOL    HW292855   3.844  13.639  13.033
30320SOL     OW92856   5.831  14.679   2.801
30320SOL    HW192857   5.919  14.645   2.817
30320SOL    HW292858   5.841  14.737   2.726
30321SOL     OW92859   1.339  13.397  13.556
30321SOL    HW192860   1.423  13.353  13.540
30321SOL    HW292861   1.273  13.331  13.533
30322SOL     OW92862   0.768   6.091   1.057
30322SOL    HW192863   0.748   6.173   1.103
30322SOL    HW292864   0.850   6.061   1.096
30323SOL     OW92865   5.429   0.010  10.649
30323SOL    HW192866   5.389  14.865  10.564
30323SOL    HW292867   5.458  14.800  10.682
30324SOL     OW92868   7.099   5.746  10.358
30324SOL    HW192869   7.111   5.716  10.448
30324SOL    HW292870   7.073   5.668  10.309
30325SOL     OW92871   2.498   7.358  12.209
30325SOL    HW192872   2.485   7.430  12.271
30325SOL    HW292873   2.481   7.397  12.123
30326SOL     OW92874  10.367   3.454   1.698
30326SOL    HW192875  10.454   3.451   1.660
30326SOL    HW292876  10.309   3.423   1.628
30327SOL     OW92877   8.628   8.354   4.968
30327SOL    HW192878   8.575   8.357   4.889
30327SOL    HW292879   8.610   8.437   5.013
30328SOL     OW92880   6.948   1.318   4.074
30328SOL    HW192881   6.944   1.370   3.993
30328SOL    HW292882   6.920   1.231   4.048
30329SOL     OW92883   8.682  12.947   8.396
30329SOL    HW192884   8.710  13.038   8.381
30329SOL    HW292885   8.611  12.955   8.460
30330SOL     OW92886   6.827  13.590   2.688
30330SOL    HW192887   6.865  13.668   2.647
30330SOL    HW292888   6.897  13.525   2.685
30331SOL     OW92889  14.023  10.261  10.564
30331SOL    HW192890  14.051  10.292  10.477
30331SOL    HW292891  14.039  10.166  10.561
30332SOL     OW92892   3.806   3.559   3.073
30332SOL    HW192893   3.787   3.481   3.126
30332SOL    HW292894   3.755   3.628   3.114
30333SOL     OW92895   9.080   3.198  13.750
30333SOL    HW192896   9.037   3.274  13.711
30333SOL    HW292897   9.106   3.227  13.837
30334SOL     OW92898  10.706  14.854   8.497
30334SOL    HW192899  10.665   0.039   8.559
30334SOL    HW292900  10.635  14.799   8.466
30335SOL     OW92901   9.720   9.424   6.768
30335SOL    HW192902   9.794   9.482   6.749
30335SOL    HW292903   9.732   9.400   6.859
30336SOL     OW92904   4.722   7.819   1.613
30336SOL    HW192905   4.755   7.874   1.542
30336SOL    HW292906   4.643   7.863   1.643
30337SOL     OW92907   9.641   6.297  14.731
30337SOL    HW192908   9.614   6.372  14.784
30337SOL    HW292909   9.617   6.322  14.641
30338SOL     OW92910  10.882   1.885  14.392
30338SOL    HW192911  10.808   1.939  14.419
30338SOL    HW292912  10.907   1.920  14.306
30339SOL     OW92913   6.824   7.014  12.218
30339SOL    HW192914   6.888   7.014  12.146
30339SOL    HW292915   6.877   7.023  12.297
30340SOL     OW92916   0.598   2.100   5.047
30340SOL    HW192917   0.546   2.028   5.083
30340SOL    HW292918   0.534   2.161   5.012
30341SOL     OW92919   7.894  14.832   6.775
30341SOL    HW192920   7.923  14.774   6.845
30341SOL    HW292921   7.826  14.781   6.729
30342SOL     OW92922  13.345   3.558  11.836
30342SOL    HW192923  13.406   3.579  11.906
30342SOL    HW292924  13.391   3.583  11.756
30343SOL     OW92925   6.478  12.018   5.480
30343SOL    HW192926   6.401  12.071   5.460
30343SOL    HW292927   6.547  12.082   5.500
30344SOL     OW92928  13.838  10.995   3.356
30344SOL    HW192929  13.920  11.026   3.317
30344SOL    HW292930  13.777  11.068   3.344
30345SOL     OW92931   6.970   7.826   6.766
30345SOL    HW192932   6.916   7.867   6.699
30345SOL    HW292933   7.034   7.893   6.791
30346SOL     OW92934   1.668   3.043  11.198
30346SOL    HW192935   1.682   2.960  11.243
30346SOL    HW292936   1.650   3.018  11.107
30347SOL     OW92937   3.376   0.307   7.371
30347SOL    HW192938   3.327   0.290   7.451
30347SOL    HW292939   3.448   0.243   7.372
30348SOL     OW92940   0.973  12.666   9.084
30348SOL    HW192941   0.980  12.594   9.146
30348SOL    HW292942   0.997  12.744   9.136
30349SOL     OW92943  11.927   6.166   6.881
30349SOL    HW192944  11.933   6.158   6.976
30349SOL    HW292945  11.985   6.240   6.860
30350SOL     OW92946   5.448   6.474  12.069
30350SOL    HW192947   5.434   6.563  12.036
30350SOL    HW292948   5.542   6.460  12.062
30351SOL     OW92949   1.963   2.550  12.973
30351SOL    HW192950   1.944   2.556  13.067
30351SOL    HW292951   1.951   2.457  12.952
30352SOL     OW92952   7.435   7.738   6.870
30352SOL    HW192953   7.424   7.685   6.791
30352SOL    HW292954   7.359   7.797   6.870
30353SOL     OW92955   1.560  13.973   3.338
30353SOL    HW192956   1.553  13.914   3.413
30353SOL    HW292957   1.606  14.050   3.372
30354SOL     OW92958  10.778   8.202   4.017
30354SOL    HW192959  10.782   8.117   3.973
30354SOL    HW292960  10.740   8.183   4.103
30355SOL     OW92961  13.297   8.057   8.725
30355SOL    HW192962  13.232   8.121   8.755
30355SOL    HW292963  13.276   7.977   8.773
30356SOL     OW92964   4.677   7.170   8.285
30356SOL    HW192965   4.689   7.107   8.215
30356SOL    HW292966   4.762   7.176   8.328
30357SOL     OW92967   4.961   3.306   3.654
30357SOL    HW192968   4.895   3.283   3.588
30357SOL    HW292969   4.984   3.397   3.635
30358SOL     OW92970   1.064   7.736   5.764
30358SOL    HW192971   1.078   7.784   5.682
30358SOL    HW292972   1.019   7.798   5.821
30359SOL     OW92973   3.080  11.885   7.860
30359SOL    HW192974   3.159  11.834   7.842
30359SOL    HW292975   3.038  11.839   7.933
30360SOL     OW92976   6.747  11.488   0.883
30360SOL    HW192977   6.767  11.408   0.833
30360SOL    HW292978   6.780  11.559   0.829
30361SOL     OW92979   4.010   5.378   1.281
30361SOL    HW192980   3.956   5.375   1.360
30361SOL    HW292981   4.100   5.384   1.314
30362SOL     OW92982   1.763   7.129   1.542
30362SOL    HW192983   1.722   7.094   1.621
30362SOL    HW292984   1.856   7.137   1.564
30363SOL     OW92985   9.485   3.555   7.003
30363SOL    HW192986   9.474   3.516   6.917
30363SOL    HW292987   9.416   3.515   7.057
30364SOL     OW92988  12.219   2.699  10.664
30364SOL    HW192989  12.180   2.661  10.743
30364SOL    HW292990  12.273   2.628  10.629
30365SOL     OW92991  13.445   6.940   0.178
30365SOL    HW192992  13.509   6.871   0.196
30365SOL    HW292993  13.490   7.021   0.204
30366SOL     OW92994  13.747  14.736   0.437
30366SOL    HW192995  13.672  14.706   0.489
30366SOL    HW292996  13.778  14.814   0.483
30367SOL     OW92997   9.929   7.450  14.318
30367SOL    HW192998  10.000   7.508  14.346
30367SOL    HW292999   9.959   7.416  14.234
30368SOL     OW93000   1.000  10.008  13.614
30368SOL    HW193001   0.927  10.032  13.557
30368SOL    HW293002   1.046  10.090  13.630
30369SOL     OW93003  14.737  11.742  12.328
30369SOL    HW193004  14.763  11.697  12.247
30369SOL    HW293005  14.746  11.677  12.396
30370SOL     OW93006   9.961   1.406   5.084
30370SOL    HW193007  10.010   1.328   5.058
30370SOL    HW293008   9.928   1.442   5.002
30371SOL     OW93009  11.679   3.555   5.958
30371SOL    HW193010  11.769   3.588   5.959
30371SOL    HW293011  11.664   3.524   6.047
30372SOL     OW93012   8.953   9.799   5.391
30372SOL    HW193013   8.997   9.857   5.453
30372SOL    HW293014   9.010   9.797   5.314
30373SOL     OW93015   1.452   3.357   8.144
30373SOL    HW193016   1.378   3.357   8.204
30373SOL    HW293017   1.482   3.266   8.143
30374SOL     OW93018  10.558   3.166  11.242
30374SOL    HW193019  10.494   3.105  11.279
30374SOL    HW293020  10.513   3.205  11.167
30375SOL     OW93021   1.013   2.617   7.080
30375SOL    HW193022   1.013   2.679   7.153
30375SOL    HW293023   1.057   2.540   7.114
30376SOL     OW93024   1.699  11.151   0.635
30376SOL    HW193025   1.752  11.225   0.605
30376SOL    HW293026   1.609  11.175   0.613
30377SOL     OW93027   6.582  14.262  13.213
30377SOL    HW193028   6.612  14.310  13.135
30377SOL    HW293029   6.548  14.330  13.271
30378SOL     OW93030   5.882   3.617   0.512
30378SOL    HW193031   5.835   3.575   0.440
30378SOL    HW293032   5.913   3.545   0.566
30379SOL     OW93033   4.832   5.716  13.969
30379SOL    HW193034   4.816   5.671  13.887
30379SOL    HW293035   4.841   5.808  13.946
30380SOL     OW93036  14.075   5.742  11.850
30380SOL    HW193037  14.113   5.685  11.917
30380SOL    HW293038  14.045   5.682  11.782
30381SOL     OW93039   7.742   9.035   2.558
30381SOL    HW193040   7.835   9.047   2.575
30381SOL    HW293041   7.714   8.970   2.622
30382SOL     OW93042  10.776   6.349   9.596
30382SOL    HW193043  10.780   6.329   9.689
30382SOL    HW293044  10.768   6.445   9.592
30383SOL     OW93045  12.924  10.155   1.729
30383SOL    HW193046  12.839  10.178   1.691
30383SOL    HW293047  12.988  10.177   1.661
30384SOL     OW93048   6.339  10.271   1.336
30384SOL    HW193049   6.420  10.236   1.373
30384SOL    HW293050   6.308  10.334   1.401
30385SOL     OW93051  10.633   3.741  10.710
30385SOL    HW193052  10.577   3.789  10.770
30385SOL    HW293053  10.678   3.677  10.766
30386SOL     OW93054  10.159  14.802   7.182
30386SOL    HW193055  10.076  14.807   7.134
30386SOL    HW293056  10.179   0.018   7.204
30387SOL     OW93057   7.420   8.163   2.781
30387SOL    HW193058   7.389   8.237   2.730
30387SOL    HW293059   7.498   8.133   2.735
30388SOL     OW93060   9.899   3.645   5.214
30388SOL    HW193061   9.942   3.695   5.283
30388SOL    HW293062   9.835   3.705   5.177
30389SOL     OW93063  13.488   7.638   1.128
30389SOL    HW193064  13.394   7.650   1.117
30389SOL    HW293065  13.510   7.690   1.205
30390SOL     OW93066   6.074  10.628   9.748
30390SOL    HW193067   5.989  10.651   9.784
30390SOL    HW293068   6.120  10.711   9.740
30391SOL     OW93069   5.219   4.642   4.257
30391SOL    HW193070   5.179   4.683   4.180
30391SOL    HW293071   5.202   4.549   4.246
30392SOL     OW93072   6.137   5.930  14.042
30392SOL    HW193073   6.202   5.892  13.983
30392SOL    HW293074   6.162   6.022  14.050
30393SOL     OW93075   1.366   3.883  11.216
30393SOL    HW193076   1.450   3.909  11.254
30393SOL    HW293077   1.390   3.842  11.133
30394SOL     OW93078   0.932   6.624   2.717
30394SOL    HW193079   0.891   6.545   2.681
30394SOL    HW293080   0.864   6.691   2.712
30395SOL     OW93081   8.620   8.456  14.262
30395SOL    HW193082   8.668   8.524  14.215
30395SOL    HW293083   8.575   8.502  14.333
30396SOL     OW93084   4.214   2.266   7.044
30396SOL    HW193085   4.246   2.346   7.085
30396SOL    HW293086   4.226   2.198   7.110
30397SOL     OW93087   6.975   6.321   8.518
30397SOL    HW193088   7.036   6.334   8.590
30397SOL    HW293089   6.989   6.396   8.460
30398SOL     OW93090  14.111   3.571  11.182
30398SOL    HW193091  14.057   3.643  11.215
30398SOL    HW293092  14.127   3.515  11.258
30399SOL     OW93093   1.773   9.228  11.518
30399SOL    HW193094   1.802   9.255  11.605
30399SOL    HW293095   1.688   9.187  11.532
30400SOL     OW93096  14.095   6.000   0.353
30400SOL    HW193097  14.119   5.986   0.445
30400SOL    HW293098  13.999   6.007   0.355
30401SOL     OW93099  11.967   2.963   4.579
30401SOL    HW193100  11.917   2.912   4.515
30401SOL    HW293101  12.013   2.896   4.631
30402SOL     OW93102  13.606  13.824   9.916
30402SOL    HW193103  13.661  13.797   9.989
30402SOL    HW293104  13.517  13.826   9.952
30403SOL     OW93105  11.612   8.698   7.407
30403SOL    HW193106  11.516   8.696   7.405
30403SOL    HW293107  11.633   8.714   7.499
30404SOL     OW93108   9.980  12.602  10.945
30404SOL    HW193109  10.076  12.605  10.952
30404SOL    HW293110   9.953  12.694  10.948
30405SOL     OW93111  13.828   9.875   4.137
30405SOL    HW193112  13.759   9.875   4.204
30405SOL    HW293113  13.784   9.904   4.058
30406SOL     OW93114   4.024  10.559   9.880
30406SOL    HW193115   4.007  10.557   9.974
30406SOL    HW293116   4.119  10.546   9.873
30407SOL     OW93117   5.506   2.508  14.116
30407SOL    HW193118   5.467   2.529  14.201
30407SOL    HW293119   5.476   2.579  14.059
30408SOL     OW93120   6.781   3.499  12.095
30408SOL    HW193121   6.729   3.566  12.051
30408SOL    HW293122   6.782   3.425  12.034
30409SOL     OW93123   5.691  10.813   0.443
30409SOL    HW193124   5.609  10.791   0.397
30409SOL    HW293125   5.726  10.887   0.394
30410SOL     OW93126   3.568   9.837   7.319
30410SOL    HW193127   3.633   9.801   7.379
30410SOL    HW293128   3.570   9.778   7.243
30411SOL     OW93129   3.124   7.237   9.071
30411SOL    HW193130   3.079   7.167   9.119
30411SOL    HW293131   3.075   7.316   9.093
30412SOL     OW93132  14.772  10.133  14.522
30412SOL    HW193133  14.692  10.106  14.568
30412SOL    HW293134  14.760  10.103  14.432
30413SOL     OW93135  10.728   1.451   1.830
30413SOL    HW193136  10.683   1.532   1.856
30413SOL    HW293137  10.817   1.462   1.861
30414SOL     OW93138   8.005   0.473  11.171
30414SOL    HW193139   7.993   0.491  11.078
30414SOL    HW293140   8.049   0.551  11.205
30415SOL     OW93141  10.207   4.419   2.726
30415SOL    HW193142  10.281   4.454   2.675
30415SOL    HW293143  10.227   4.326   2.735
30416SOL     OW93144   2.797   3.844  12.984
30416SOL    HW193145   2.768   3.904  12.916
30416SOL    HW293146   2.743   3.867  13.060
30417SOL     OW93147   9.916   5.775   4.880
30417SOL    HW193148   9.828   5.737   4.869
30417SOL    HW293149   9.910   5.827   4.960
30418SOL     OW93150   0.357   0.169  14.138
30418SOL    HW193151   0.412   0.124  14.074
30418SOL    HW293152   0.315   0.099  14.187
30419SOL     OW93153   7.471   3.654   7.320
30419SOL    HW193154   7.562   3.683   7.325
30419SOL    HW293155   7.420   3.734   7.332
30420SOL     OW93156   8.984   7.845  10.415
30420SOL    HW193157   8.962   7.762  10.372
30420SOL    HW293158   8.987   7.909  10.343
30421SOL     OW93159   4.901   4.578   8.286
30421SOL    HW193160   4.962   4.613   8.352
30421SOL    HW293161   4.943   4.596   8.202
30422SOL     OW93162   9.977   9.711   5.607
30422SOL    HW193163  10.052   9.668   5.566
30422SOL    HW293164   9.914   9.722   5.535
30423SOL     OW93165   6.472  13.152   7.749
30423SOL    HW193166   6.480  13.247   7.742
30423SOL    HW293167   6.476  13.134   7.842
30424SOL     OW93168   3.818   6.509   5.985
30424SOL    HW193169   3.814   6.600   5.959
30424SOL    HW293170   3.779   6.461   5.912
30425SOL     OW93171  13.225  14.849   9.405
30425SOL    HW193172  13.314  14.814   9.395
30425SOL    HW293173  13.228   0.025   9.486
30426SOL     OW93174   0.670  14.039   0.129
30426SOL    HW193175   0.654  14.133   0.140
30426SOL    HW293176   0.619  13.998   0.199
30427SOL     OW93177  11.426  12.594  14.649
30427SOL    HW193178  11.454  12.554  14.731
30427SOL    HW293179  11.383  12.524  14.601
30428SOL     OW93180  10.905  11.829   9.620
30428SOL    HW193181  10.820  11.849   9.579
30428SOL    HW293182  10.883  11.803   9.709
30429SOL     OW93183  13.088   2.326   2.748
30429SOL    HW193184  13.006   2.340   2.702
30429SOL    HW293185  13.147   2.291   2.682
30430SOL     OW93186   7.851   8.604   4.054
30430SOL    HW193187   7.894   8.618   4.139
30430SOL    HW293188   7.837   8.692   4.020
30431SOL     OW93189   0.703   0.073   2.638
30431SOL    HW193190   0.686   0.062   2.544
30431SOL    HW293191   0.699  14.859   2.674
30432SOL     OW93192  12.864   4.487   4.677
30432SOL    HW193193  12.954   4.494   4.647
30432SOL    HW293194  12.812   4.525   4.606
30433SOL     OW93195   8.191  12.150   7.302
30433SOL    HW193196   8.280  12.126   7.325
30433SOL    HW293197   8.188  12.245   7.312
30434SOL     OW93198   0.360   2.330   5.608
30434SOL    HW193199   0.454   2.340   5.592
30434SOL    HW293200   0.352   2.324   5.704
30435SOL     OW93201   1.012   7.694   2.188
30435SOL    HW193202   1.097   7.725   2.157
30435SOL    HW293203   1.008   7.603   2.158
30436SOL     OW93204   8.411  12.583   1.054
30436SOL    HW193205   8.408  12.509   0.993
30436SOL    HW293206   8.334  12.636   1.032
30437SOL     OW93207  11.860   9.849   7.363
30437SOL    HW193208  11.891   9.769   7.405
30437SOL    HW293209  11.886   9.919   7.422
30438SOL     OW93210   0.038  11.224   8.615
30438SOL    HW193211  14.845  11.286   8.590
30438SOL    HW293212   0.021  11.205   8.707
30439SOL     OW93213   1.689   7.468   5.652
30439SOL    HW193214   1.631   7.404   5.691
30439SOL    HW293215   1.641   7.551   5.656
30440SOL     OW93216  12.483  10.491   5.963
30440SOL    HW193217  12.454  10.527   5.879
30440SOL    HW293218  12.416  10.519   6.025
30441SOL     OW93219  14.236   2.755  11.635
30441SOL    HW193220  14.186   2.704  11.699
30441SOL    HW293221  14.225   2.846  11.664
30442SOL     OW93222   1.023   3.410   9.947
30442SOL    HW193223   1.042   3.413   9.853
30442SOL    HW293224   1.093   3.459   9.988
30443SOL     OW93225   6.601   8.012   9.376
30443SOL    HW193226   6.548   8.008   9.455
30443SOL    HW293227   6.634   8.102   9.373
30444SOL     OW93228   9.670   0.150   1.354
30444SOL    HW193229   9.578   0.138   1.332
30444SOL    HW293230   9.682   0.245   1.360
30445SOL     OW93231  11.812   2.455   7.212
30445SOL    HW193232  11.733   2.415   7.176
30445SOL    HW293233  11.785   2.486   7.299
30446SOL     OW93234  12.963   2.905   2.366
30446SOL    HW193235  12.893   2.945   2.315
30446SOL    HW293236  13.008   2.848   2.304
30447SOL     OW93237  11.073   5.376   4.700
30447SOL    HW193238  10.981   5.392   4.679
30447SOL    HW293239  11.079   5.280   4.707
30448SOL     OW93240   9.113  13.555   0.788
30448SOL    HW193241   9.163  13.525   0.865
30448SOL    HW293242   9.097  13.475   0.738
30449SOL     OW93243  11.135   2.965  13.415
30449SOL    HW193244  11.094   2.984  13.499
30449SOL    HW293245  11.179   3.047  13.391
30450SOL     OW93246  13.676  10.573   6.413
30450SOL    HW193247  13.749  10.607   6.465
30450SOL    HW293248  13.702  10.484   6.390
30451SOL     OW93249   5.337  13.355  11.607
30451SOL    HW193250   5.362  13.297  11.678
30451SOL    HW293251   5.244  13.336  11.592
30452SOL     OW93252   6.977   5.322  10.354
30452SOL    HW193253   6.940   5.410  10.344
30452SOL    HW293254   7.063   5.327  10.313
30453SOL     OW93255   2.848   2.874  12.769
30453SOL    HW193256   2.920   2.818  12.741
30453SOL    HW293257   2.770   2.831  12.735
30454SOL     OW93258   6.457   7.175   7.906
30454SOL    HW193259   6.413   7.094   7.881
30454SOL    HW293260   6.550   7.158   7.890
30455SOL     OW93261  12.895   4.332   1.287
30455SOL    HW193262  12.884   4.246   1.246
30455SOL    HW293263  12.809   4.351   1.325
30456SOL     OW93264  14.063   1.956   4.453
30456SOL    HW193265  14.038   2.045   4.479
30456SOL    HW293266  14.050   1.955   4.358
30457SOL     OW93267   2.392  12.342   5.845
30457SOL    HW193268   2.423  12.338   5.935
30457SOL    HW293269   2.309  12.390   5.850
30458SOL     OW93270   4.306   0.235   9.586
30458SOL    HW193271   4.215   0.264   9.582
30458SOL    HW293272   4.354   0.309   9.624
30459SOL     OW93273   5.124  10.586  14.569
30459SOL    HW193274   5.113  10.536  14.488
30459SOL    HW293275   5.066  10.661  14.560
30460SOL     OW93276   5.485  11.729   2.895
30460SOL    HW193277   5.578  11.705   2.905
30460SOL    HW293278   5.442  11.686   2.968
30461SOL     OW93279   1.090   4.814   5.004
30461SOL    HW193280   1.066   4.726   5.032
30461SOL    HW293281   1.017   4.869   5.031
30462SOL     OW93282   3.453   7.718   4.047
30462SOL    HW193283   3.420   7.731   3.958
30462SOL    HW293284   3.436   7.802   4.090
30463SOL     OW93285   1.076   9.799   0.557
30463SOL    HW193286   1.000   9.801   0.498
30463SOL    HW293287   1.038   9.786   0.644
30464SOL     OW93288  12.034   6.420  13.720
30464SOL    HW193289  12.055   6.396  13.810
30464SOL    HW293290  12.002   6.510  13.726
30465SOL     OW93291   1.530   8.836   3.842
30465SOL    HW193292   1.549   8.825   3.935
30465SOL    HW293293   1.575   8.763   3.800
30466SOL     OW93294   3.845   8.443  13.220
30466SOL    HW193295   3.832   8.395  13.139
30466SOL    HW293296   3.844   8.535  13.194
30467SOL     OW93297  14.534   8.061   9.435
30467SOL    HW193298  14.491   7.983   9.401
30467SOL    HW293299  14.627   8.045   9.423
30468SOL     OW93300  13.270  11.686   0.076
30468SOL    HW193301  13.358  11.656   0.101
30468SOL    HW293302  13.213  11.653   0.146
30469SOL     OW93303  13.897   9.868   6.387
30469SOL    HW193304  13.859   9.824   6.310
30469SOL    HW293305  13.991   9.866   6.371
30470SOL     OW93306  12.863   4.456   6.527
30470SOL    HW193307  12.899   4.373   6.559
30470SOL    HW293308  12.885   4.519   6.595
30471SOL     OW93309   9.106   9.683  11.049
30471SOL    HW193310   9.098   9.713  11.139
30471SOL    HW293311   9.194   9.647  11.042
30472SOL     OW93312   0.103   5.546   2.224
30472SOL    HW193313   0.058   5.541   2.308
30472SOL    HW293314   0.178   5.603   2.240
30473SOL     OW93315   4.959  13.187   2.217
30473SOL    HW193316   4.939  13.103   2.175
30473SOL    HW293317   4.891  13.247   2.184
30474SOL     OW93318  14.619   0.877   4.953
30474SOL    HW193319  14.704   0.850   4.918
30474SOL    HW293320  14.571   0.795   4.967
30475SOL     OW93321   5.411   0.811   1.443
30475SOL    HW193322   5.322   0.784   1.421
30475SOL    HW293323   5.463   0.789   1.366
30476SOL     OW93324   9.979   3.765  12.648
30476SOL    HW193325  10.008   3.693  12.592
30476SOL    HW293326   9.884   3.757  12.650
30477SOL     OW93327   0.021  11.975   8.206
30477SOL    HW193328   0.110  11.986   8.239
30477SOL    HW293329   0.024  11.896   8.152
30478SOL     OW93330   0.990   5.243  13.893
30478SOL    HW193331   0.950   5.320  13.853
30478SOL    HW293332   0.988   5.176  13.825
30479SOL     OW93333   9.207  12.751  13.679
30479SOL    HW193334   9.185  12.664  13.713
30479SOL    HW293335   9.245  12.797  13.754
30480SOL     OW93336   9.818  12.066   0.078
30480SOL    HW193337   9.842  12.089   0.168
30480SOL    HW293338   9.873  12.122   0.023
30481SOL     OW93339  13.250   9.799   7.791
30481SOL    HW193340  13.174   9.855   7.807
30481SOL    HW293341  13.262   9.751   7.873
30482SOL     OW93342   4.223   1.685   9.480
30482SOL    HW193343   4.288   1.716   9.418
30482SOL    HW293344   4.261   1.607   9.519
30483SOL     OW93345   0.740   5.110  13.298
30483SOL    HW193346   0.682   5.085  13.226
30483SOL    HW293347   0.690   5.091  13.377
30484SOL     OW93348  13.774   4.472   0.261
30484SOL    HW193349  13.718   4.460   0.184
30484SOL    HW293350  13.765   4.565   0.282
30485SOL     OW93351   0.585   0.550   1.109
30485SOL    HW193352   0.608   0.586   1.195
30485SOL    HW293353   0.493   0.525   1.118
30486SOL     OW93354   0.941   3.741   9.980
30486SOL    HW193355   1.034   3.732   9.962
30486SOL    HW293356   0.910   3.806   9.916
30487SOL     OW93357  11.462   5.702   2.525
30487SOL    HW193358  11.411   5.782   2.517
30487SOL    HW293359  11.415   5.650   2.590
30488SOL     OW93360   7.413  11.784  10.968
30488SOL    HW193361   7.462  11.709  10.934
30488SOL    HW293362   7.406  11.767  11.062
30489SOL     OW93363   1.534   3.425   0.019
30489SOL    HW193364   1.531   3.426  14.798
30489SOL    HW293365   1.455   3.471   0.047
30490SOL     OW93366  10.878   0.169   6.280
30490SOL    HW193367  10.803   0.227   6.265
30490SOL    HW293368  10.952   0.213   6.238
30491SOL     OW93369   5.645   9.095   3.483
30491SOL    HW193370   5.728   9.060   3.513
30491SOL    HW293371   5.654   9.190   3.495
30492SOL     OW93372  11.599   9.857   5.428
30492SOL    HW193373  11.639   9.909   5.358
30492SOL    HW293374  11.671   9.836   5.487
30493SOL     OW93375   2.647   5.007   4.982
30493SOL    HW193376   2.564   4.993   5.029
30493SOL    HW293377   2.626   4.988   4.891
30494SOL     OW93378  10.103  14.805   9.388
30494SOL    HW193379  10.058  14.750   9.452
30494SOL    HW293380  10.077  14.769   9.303
30495SOL     OW93381   7.520   1.701   4.116
30495SOL    HW193382   7.550   1.681   4.205
30495SOL    HW293383   7.573   1.645   4.059
30496SOL     OW93384   4.086  10.463   0.483
30496SOL    HW193385   4.131  10.536   0.525
30496SOL    HW293386   4.124  10.458   0.395
30497SOL     OW93387   6.736   0.756   8.553
30497SOL    HW193388   6.727   0.826   8.488
30497SOL    HW293389   6.652   0.711   8.550
30498SOL     OW93390   6.555   2.812   2.881
30498SOL    HW193391   6.606   2.771   2.950
30498SOL    HW293392   6.596   2.781   2.800
30499SOL     OW93393  13.681  11.048  11.903
30499SOL    HW193394  13.597  11.064  11.861
30499SOL    HW293395  13.701  11.130  11.949
30500SOL     OW93396   6.482   3.501   8.209
30500SOL    HW193397   6.523   3.542   8.285
30500SOL    HW293398   6.477   3.408   8.231
30501SOL     OW93399   8.104   7.576  11.601
30501SOL    HW193400   8.193   7.575  11.636
30501SOL    HW293401   8.110   7.525  11.520
30502SOL     OW93402  10.322   1.472  14.268
30502SOL    HW193403  10.380   1.490  14.342
30502SOL    HW293404  10.238   1.448  14.308
30503SOL     OW93405  14.387   7.321   4.102
30503SOL    HW193406  14.460   7.374   4.133
30503SOL    HW293407  14.340   7.378   4.042
30504SOL     OW93408   5.373   9.842  12.239
30504SOL    HW193409   5.317   9.904  12.191
30504SOL    HW293410   5.362   9.867  12.331
30505SOL     OW93411   2.072  11.085  12.956
30505SOL    HW193412   2.015  11.086  13.033
30505SOL    HW293413   2.021  11.041  12.888
30506SOL     OW93414  10.905   6.326   2.077
30506SOL    HW193415  10.889   6.345   2.170
30506SOL    HW293416  10.841   6.380   2.030
30507SOL     OW93417   0.205   9.533   8.745
30507SOL    HW193418   0.195   9.606   8.807
30507SOL    HW293419   0.295   9.539   8.715
30508SOL     OW93420  10.445  14.609   9.035
30508SOL    HW193421  10.415  14.518   9.030
30508SOL    HW293422  10.365  14.661   9.027
30509SOL     OW93423   9.465   3.060   0.017
30509SOL    HW193424   9.461   3.154  14.875
30509SOL    HW293425   9.449   3.019  14.807
30510SOL     OW93426   8.719   1.918   5.376
30510SOL    HW193427   8.675   1.909   5.460
30510SOL    HW293428   8.681   1.996   5.337
30511SOL     OW93429  13.281   8.241   9.833
30511SOL    HW193430  13.336   8.179   9.882
30511SOL    HW293431  13.312   8.233   9.743
30512SOL     OW93432  13.157   5.454   1.258
30512SOL    HW193433  13.136   5.485   1.170
30512SOL    HW293434  13.217   5.380   1.244
30513SOL     OW93435   0.187  14.429   7.089
30513SOL    HW193436   0.245  14.499   7.059
30513SOL    HW293437   0.241  14.350   7.089
30514SOL     OW93438   6.556  13.136   9.710
30514SOL    HW193439   6.580  13.216   9.756
30514SOL    HW293440   6.529  13.165   9.623
30515SOL     OW93441   2.430   5.252   8.745
30515SOL    HW193442   2.498   5.250   8.813
30515SOL    HW293443   2.357   5.205   8.784
30516SOL     OW93444  11.592  13.754  11.057
30516SOL    HW193445  11.598  13.787  10.967
30516SOL    HW293446  11.505  13.715  11.062
30517SOL     OW93447  11.591  12.235  13.493
30517SOL    HW193448  11.547  12.285  13.424
30517SOL    HW293449  11.543  12.153  13.497
30518SOL     OW93450  11.121   8.246   2.501
30518SOL    HW193451  11.101   8.330   2.460
30518SOL    HW293452  11.041   8.194   2.492
30519SOL     OW93453   9.171   0.605  12.158
30519SOL    HW193454   9.167   0.660  12.080
30519SOL    HW293455   9.194   0.666  12.229
30520SOL     OW93456   6.104  10.564   6.634
30520SOL    HW193457   6.137  10.626   6.699
30520SOL    HW293458   6.098  10.481   6.681
30521SOL     OW93459   1.420   2.728   0.194
30521SOL    HW193460   1.515   2.737   0.192
30521SOL    HW293461   1.401   2.664   0.125
30522SOL     OW93462   7.183   9.192  10.066
30522SOL    HW193463   7.174   9.138   9.988
30522SOL    HW293464   7.277   9.203  10.078
30523SOL     OW93465  13.138   5.759  12.385
30523SOL    HW193466  13.149   5.715  12.301
30523SOL    HW293467  13.192   5.838  12.378
30524SOL     OW93468   8.473  11.647   3.745
30524SOL    HW193469   8.420  11.684   3.675
30524SOL    HW293470   8.498  11.560   3.713
30525SOL     OW93471  10.870  10.919   8.318
30525SOL    HW193472  10.876  10.851   8.385
30525SOL    HW293473  10.940  10.981   8.341
30526SOL     OW93474   9.368   2.693  12.180
30526SOL    HW193475   9.438   2.684  12.245
30526SOL    HW293476   9.412   2.680  12.096
30527SOL     OW93477  13.523  11.735  13.571
30527SOL    HW193478  13.596  11.793  13.594
30527SOL    HW293479  13.482  11.778  13.496
30528SOL     OW93480   2.483   5.812   6.697
30528SOL    HW193481   2.576   5.814   6.719
30528SOL    HW293482   2.453   5.726   6.727
30529SOL     OW93483   5.612   7.628   5.823
30529SOL    HW193484   5.624   7.581   5.905
30529SOL    HW293485   5.572   7.563   5.765
30530SOL     OW93486   9.242   7.637   1.531
30530SOL    HW193487   9.262   7.676   1.616
30530SOL    HW293488   9.213   7.548   1.551
30531SOL     OW93489   0.166   0.956   3.807
30531SOL    HW193490   0.147   1.047   3.786
30531SOL    HW293491   0.128   0.942   3.893
30532SOL     OW93492   3.684   3.806   1.107
30532SOL    HW193493   3.689   3.786   1.201
30532SOL    HW293494   3.699   3.900   1.101
30533SOL     OW93495  10.397   7.659   1.352
30533SOL    HW193496  10.311   7.619   1.361
30533SOL    HW293497  10.454   7.607   1.408
30534SOL     OW93498  13.534   4.484   9.355
30534SOL    HW193499  13.614   4.537   9.349
30534SOL    HW293500  13.463   4.548   9.357
30535SOL     OW93501   2.893   4.035  12.166
30535SOL    HW193502   2.957   4.049  12.096
30535SOL    HW293503   2.943   4.047  12.247
30536SOL     OW93504   8.245   1.101  11.148
30536SOL    HW193505   8.243   1.089  11.053
30536SOL    HW293506   8.286   1.187  11.160
30537SOL     OW93507   6.939  10.066   6.507
30537SOL    HW193508   6.954   9.979   6.543
30537SOL    HW293509   7.026  10.103   6.493
30538SOL     OW93510  13.110   0.665   3.942
30538SOL    HW193511  13.063   0.629   3.868
30538SOL    HW293512  13.072   0.752   3.955
30539SOL     OW93513   5.487   0.268   2.483
30539SOL    HW193514   5.524   0.350   2.450
30539SOL    HW293515   5.560   0.206   2.481
30540SOL     OW93516   9.926   4.173  14.049
30540SOL    HW193517   9.937   4.148  14.141
30540SOL    HW293518   9.834   4.151  14.029
30541SOL     OW93519  10.903  12.301   1.718
30541SOL    HW193520  10.916  12.209   1.696
30541SOL    HW293521  10.930  12.308   1.809
30542SOL     OW93522   9.589   6.794   5.625
30542SOL    HW193523   9.523   6.740   5.668
30542SOL    HW293524   9.630   6.735   5.561
30543SOL     OW93525  12.818   1.689   1.363
30543SOL    HW193526  12.763   1.684   1.284
30543SOL    HW293527  12.770   1.638   1.428
30544SOL     OW93528   3.335   6.396   8.408
30544SOL    HW193529   3.318   6.449   8.330
30544SOL    HW293530   3.256   6.404   8.461
30545SOL     OW93531  14.564  11.350  10.106
30545SOL    HW193532  14.505  11.404  10.159
30545SOL    HW293533  14.549  11.260  10.136
30546SOL     OW93534   3.947  14.809   2.939
30546SOL    HW193535   4.032  14.853   2.931
30546SOL    HW293536   3.896  14.866   2.996
30547SOL     OW93537   2.651   7.481   9.421
30547SOL    HW193538   2.574   7.459   9.475
30547SOL    HW293539   2.614   7.505   9.336
30548SOL     OW93540   2.762   9.735  12.192
30548SOL    HW193541   2.668   9.723  12.207
30548SOL    HW293542   2.769   9.755  12.099
30549SOL     OW93543  14.386   7.116  14.807
30549SOL    HW193544  14.344   7.147  14.726
30549SOL    HW293545  14.343   7.032  14.825
30550SOL     OW93546  12.147   4.247  14.074
30550SOL    HW193547  12.130   4.153  14.081
30550SOL    HW293548  12.210   4.265  14.144
30551SOL     OW93549   7.081   7.886  10.391
30551SOL    HW193550   7.021   7.960  10.385
30551SOL    HW293551   7.117   7.892  10.480
30552SOL     OW93552   1.729  10.640  10.720
30552SOL    HW193553   1.668  10.714  10.719
30552SOL    HW293554   1.794  10.663  10.787
30553SOL     OW93555  11.530  13.163  13.406
30553SOL    HW193556  11.486  13.117  13.477
30553SOL    HW293557  11.495  13.122  13.326
30554SOL     OW93558   8.672   7.614   3.207
30554SOL    HW193559   8.705   7.701   3.226
30554SOL    HW293560   8.732   7.579   3.141
30555SOL     OW93561   7.154   6.939  12.369
30555SOL    HW193562   7.138   7.027  12.334
30555SOL    HW293563   7.211   6.953  12.445
30556SOL     OW93564   1.302   4.291   0.397
30556SOL    HW193565   1.250   4.263   0.321
30556SOL    HW293566   1.353   4.214   0.422
30557SOL     OW93567   0.878  12.033   8.644
30557SOL    HW193568   0.964  12.023   8.603
30557SOL    HW293569   0.892  12.099   8.712
30558SOL     OW93570   4.170   3.208   9.633
30558SOL    HW193571   4.179   3.140   9.566
30558SOL    HW293572   4.252   3.204   9.683
30559SOL     OW93573   9.748   0.970   3.740
30559SOL    HW193574   9.745   1.027   3.663
30559SOL    HW293575   9.728   1.028   3.813
30560SOL     OW93576   8.247   4.404   6.297
30560SOL    HW193577   8.270   4.317   6.331
30560SOL    HW293578   8.321   4.460   6.322
30561SOL     OW93579   4.387   6.030   5.916
30561SOL    HW193580   4.387   5.940   5.883
30561SOL    HW293581   4.450   6.030   5.987
30562SOL     OW93582   5.774  11.936  14.661
30562SOL    HW193583   5.737  11.884  14.733
30562SOL    HW293584   5.824  11.873  14.610
30563SOL     OW93585  13.902   2.901   6.178
30563SOL    HW193586  13.943   2.957   6.112
30563SOL    HW293587  13.957   2.823   6.181
30564SOL     OW93588   1.322   5.075   1.653
30564SOL    HW193589   1.322   5.122   1.736
30564SOL    HW293590   1.294   5.139   1.589
30565SOL     OW93591   0.702   4.029   5.170
30565SOL    HW193592   0.785   4.062   5.136
30565SOL    HW293593   0.637   4.090   5.135
30566SOL     OW93594   5.997   4.144   6.760
30566SOL    HW193595   6.034   4.233   6.765
30566SOL    HW293596   5.936   4.140   6.833
30567SOL     OW93597  14.112   9.676   1.396
30567SOL    HW193598  14.176   9.669   1.466
30567SOL    HW293599  14.127   9.599   1.341
30568SOL     OW93600   2.891  11.170   9.596
30568SOL    HW193601   2.872  11.121   9.516
30568SOL    HW293602   2.983  11.150   9.615
30569SOL     OW93603  10.541   0.703   2.015
30569SOL    HW193604  10.611   0.721   2.078
30569SOL    HW293605  10.470   0.668   2.069
30570SOL     OW93606   7.218   7.079  11.275
30570SOL    HW193607   7.238   7.140  11.345
30570SOL    HW293608   7.122   7.082  11.266
30571SOL     OW93609   6.954   1.166   3.300
30571SOL    HW193610   7.013   1.147   3.373
30571SOL    HW293611   6.973   1.257   3.277
30572SOL     OW93612  13.178   0.044   1.785
30572SOL    HW193613  13.176   0.118   1.724
30572SOL    HW293614  13.229   0.077   1.860
30573SOL     OW93615   1.371   9.732   1.686
30573SOL    HW193616   1.373   9.636   1.679
30573SOL    HW293617   1.420   9.763   1.611
30574SOL     OW93618   2.963   3.527   3.756
30574SOL    HW193619   2.912   3.608   3.760
30574SOL    HW293620   2.916   3.466   3.811
30575SOL     OW93621  10.541   5.340   7.865
30575SOL    HW193622  10.586   5.401   7.806
30575SOL    HW293623  10.500   5.276   7.806
30576SOL     OW93624  10.896   3.456   1.619
30576SOL    HW193625  10.984   3.452   1.656
30576SOL    HW293626  10.900   3.400   1.542
30577SOL     OW93627  12.880   8.371  14.226
30577SOL    HW193628  12.867   8.282  14.257
30577SOL    HW293629  12.913   8.360  14.137
30578SOL     OW93630   0.799   0.779   8.472
30578SOL    HW193631   0.766   0.722   8.541
30578SOL    HW293632   0.818   0.721   8.399
30579SOL     OW93633  14.720   7.936   0.124
30579SOL    HW193634  14.642   7.882   0.109
30579SOL    HW293635  14.791   7.889   0.081
30580SOL     OW93636   7.818  10.274   2.707
30580SOL    HW193637   7.765  10.255   2.629
30580SOL    HW293638   7.894  10.321   2.673
30581SOL     OW93639   8.859   7.766   4.581
30581SOL    HW193640   8.905   7.763   4.665
30581SOL    HW293641   8.783   7.821   4.597
30582SOL     OW93642  13.297   6.391   3.967
30582SOL    HW193643  13.259   6.413   4.052
30582SOL    HW293644  13.388   6.369   3.987
30583SOL     OW93645  13.616  13.089   7.858
30583SOL    HW193646  13.632  13.044   7.941
30583SOL    HW293647  13.526  13.121   7.865
30584SOL     OW93648  11.085   1.151   7.202
30584SOL    HW193649  11.110   1.239   7.232
30584SOL    HW293650  11.010   1.166   7.144
30585SOL     OW93651   5.626   0.487   0.363
30585SOL    HW193652   5.674   0.566   0.389
30585SOL    HW293653   5.575   0.515   0.286
30586SOL     OW93654   3.692   3.119  12.592
30586SOL    HW193655   3.617   3.083  12.640
30586SOL    HW293656   3.676   3.094  12.501
30587SOL     OW93657  12.613   8.409   3.138
30587SOL    HW193658  12.680   8.457   3.186
30587SOL    HW293659  12.652   8.395   3.051
30588SOL     OW93660   9.677  10.681   6.406
30588SOL    HW193661   9.719  10.604   6.444
30588SOL    HW293662   9.616  10.711   6.473
30589SOL     OW93663   7.022   7.272  10.111
30589SOL    HW193664   7.112   7.304  10.124
30589SOL    HW293665   7.012   7.201  10.175
30590SOL     OW93666  12.605   8.226  11.499
30590SOL    HW193667  12.684   8.230  11.444
30590SOL    HW293668  12.533   8.235  11.437
30591SOL     OW93669  10.155   2.205  12.337
30591SOL    HW193670  10.118   2.131  12.386
30591SOL    HW293671  10.209   2.164  12.269
30592SOL     OW93672  12.579   6.569  14.285
30592SOL    HW193673  12.617   6.487  14.252
30592SOL    HW293674  12.594   6.565  14.380
30593SOL     OW93675   0.066   2.955  13.272
30593SOL    HW193676   0.051   2.861  13.270
30593SOL    HW293677  14.854   2.993  13.259
30594SOL     OW93678   5.890  12.916  14.144
30594SOL    HW193679   5.840  12.890  14.066
30594SOL    HW293680   5.890  12.838  14.199
30595SOL     OW93681   0.741   4.855   0.358
30595SOL    HW193682   0.709   4.820   0.275
30595SOL    HW293683   0.836   4.844   0.353
30596SOL     OW93684  11.918  12.273   5.049
30596SOL    HW193685  11.868  12.306   4.974
30596SOL    HW293686  11.874  12.309   5.126
30597SOL     OW93687   3.517   4.609   4.360
30597SOL    HW193688   3.514   4.611   4.456
30597SOL    HW293689   3.472   4.689   4.333
30598SOL     OW93690   9.053   4.931  14.122
30598SOL    HW193691   9.006   4.853  14.151
30598SOL    HW293692   8.984   4.990  14.091
30599SOL     OW93693   4.359   3.090  13.732
30599SOL    HW193694   4.425   3.055  13.673
30599SOL    HW293695   4.295   3.132  13.673
30600SOL     OW93696  14.727   6.671   3.746
30600SOL    HW193697  14.814   6.710   3.758
30600SOL    HW293698  14.744   6.578   3.734
30601SOL     OW93699   7.115  10.492   3.322
30601SOL    HW193700   7.109  10.434   3.246
30601SOL    HW293701   7.031  10.481   3.367
30602SOL     OW93702  10.866   3.981   8.105
30602SOL    HW193703  10.933   4.006   8.041
30602SOL    HW293704  10.914   3.932   8.172
30603SOL     OW93705   8.258   2.243   1.040
30603SOL    HW193706   8.350   2.263   1.057
30603SOL    HW293707   8.251   2.236   0.945
30604SOL     OW93708  11.081   7.487  13.877
30604SOL    HW193709  11.070   7.396  13.850
30604SOL    HW293710  11.030   7.494  13.958
30605SOL     OW93711  10.041  14.036  10.504
30605SOL    HW193712  10.085  14.114  10.470
30605SOL    HW293713  10.064  13.966  10.442
30606SOL     OW93714   9.452  12.832  10.843
30606SOL    HW193715   9.479  12.862  10.756
30606SOL    HW293716   9.359  12.855  10.848
30607SOL     OW93717   8.748   9.373  10.757
30607SOL    HW193718   8.729   9.361  10.850
30607SOL    HW293719   8.829   9.424  10.755
30608SOL     OW93720  11.018  11.230   9.492
30608SOL    HW193721  11.105  11.237   9.531
30608SOL    HW293722  10.985  11.320   9.488
30609SOL     OW93723   4.980   0.940  14.111
30609SOL    HW193724   4.958   0.884  14.037
30609SOL    HW293725   5.029   1.012  14.072
30610SOL     OW93726   8.397   6.786   2.042
30610SOL    HW193727   8.447   6.719   1.996
30610SOL    HW293728   8.443   6.868   2.023
30611SOL     OW93729  14.126  13.947   8.101
30611SOL    HW193730  14.172  14.024   8.067
30611SOL    HW293731  14.192  13.878   8.103
30612SOL     OW93732   9.881  12.410   1.643
30612SOL    HW193733   9.900  12.471   1.571
30612SOL    HW293734   9.822  12.459   1.701
30613SOL     OW93735   2.736   4.638   2.816
30613SOL    HW193736   2.829   4.622   2.801
30613SOL    HW293737   2.718   4.601   2.902
30614SOL     OW93738   8.055   7.096   6.738
30614SOL    HW193739   7.966   7.108   6.769
30614SOL    HW293740   8.051   7.017   6.684
30615SOL     OW93741   2.204   0.544   1.152
30615SOL    HW193742   2.291   0.512   1.130
30615SOL    HW293743   2.183   0.608   1.084
30616SOL     OW93744   1.758   0.351  13.914
30616SOL    HW193745   1.788   0.335  14.003
30616SOL    HW293746   1.839   0.365  13.864
30617SOL     OW93747   4.237   8.261   0.186
30617SOL    HW193748   4.329   8.286   0.197
30617SOL    HW293749   4.226   8.185   0.244
30618SOL     OW93750   5.835  13.590   0.185
30618SOL    HW193751   5.836  13.498   0.161
30618SOL    HW293752   5.747  13.605   0.220
30619SOL     OW93753   2.491   6.661   4.557
30619SOL    HW193754   2.403   6.693   4.536
30619SOL    HW293755   2.542   6.677   4.477
30620SOL     OW93756  11.158  10.193   1.294
30620SOL    HW193757  11.246  10.228   1.313
30620SOL    HW293758  11.170  10.098   1.292
30621SOL     OW93759   7.286   3.063  12.823
30621SOL    HW193760   7.343   3.013  12.764
30621SOL    HW293761   7.298   3.154  12.798
30622SOL     OW93762   1.026   7.953   5.584
30622SOL    HW193763   0.932   7.941   5.598
30622SOL    HW293764   1.040   8.047   5.597
30623SOL     OW93765   1.739   0.701   0.040
30623SOL    HW193766   1.764   0.727  14.826
30623SOL    HW293767   1.643   0.707   0.040
30624SOL     OW93768   4.913   9.484   2.798
30624SOL    HW193769   4.970   9.437   2.738
30624SOL    HW293770   4.962   9.490   2.880
30625SOL     OW93771   7.030   8.204  14.431
30625SOL    HW193772   7.039   8.280  14.488
30625SOL    HW293773   7.102   8.146  14.455
30626SOL     OW93774   9.284  10.038  14.020
30626SOL    HW193775   9.349  10.056  13.953
30626SOL    HW293776   9.274   9.943  14.019
30627SOL     OW93777   4.308   0.759  14.158
30627SOL    HW193778   4.281   0.673  14.190
30627SOL    HW293779   4.233   0.816  14.175
30628SOL     OW93780  10.420   1.351   2.338
30628SOL    HW193781  10.337   1.339   2.292
30628SOL    HW293782  10.397   1.399   2.418
30629SOL     OW93783   7.227   6.472   5.641
30629SOL    HW193784   7.309   6.518   5.662
30629SOL    HW293785   7.242   6.382   5.669
30630SOL     OW93786  12.184  10.067   6.877
30630SOL    HW193787  12.140  10.035   6.956
30630SOL    HW293788  12.248  10.000   6.856
30631SOL     OW93789  11.845   2.267   6.770
30631SOL    HW193790  11.895   2.259   6.851
30631SOL    HW293791  11.790   2.344   6.782
30632SOL     OW93792   9.955  13.973   3.776
30632SOL    HW193793   9.894  13.980   3.703
30632SOL    HW293794  10.032  14.022   3.747
30633SOL     OW93795  14.606   9.589   0.163
30633SOL    HW193796  14.627   9.541   0.243
30633SOL    HW293797  14.580   9.522   0.101
30634SOL     OW93798   3.419  14.473   1.741
30634SOL    HW193799   3.379  14.387   1.730
30634SOL    HW293800   3.344  14.533   1.750
30635SOL     OW93801   1.052   0.643   5.666
30635SOL    HW193802   1.076   0.645   5.758
30635SOL    HW293803   0.964   0.681   5.663
30636SOL     OW93804   8.098  13.580   5.872
30636SOL    HW193805   8.004  13.558   5.876
30636SOL    HW293806   8.111  13.642   5.943
30637SOL     OW93807  14.095  12.435   9.560
30637SOL    HW193808  14.007  12.426   9.596
30637SOL    HW293809  14.129  12.345   9.557
30638SOL     OW93810   5.552   0.971  11.641
30638SOL    HW193811   5.507   1.030  11.581
30638SOL    HW293812   5.641   1.005  11.647
30639SOL     OW93813  11.663   6.325  10.677
30639SOL    HW193814  11.585   6.275  10.700
30639SOL    HW293815  11.731   6.290  10.735
30640SOL     OW93816   3.731  14.509   5.292
30640SOL    HW193817   3.797  14.541   5.231
30640SOL    HW293818   3.648  14.514   5.243
30641SOL     OW93819   7.295   5.038   9.561
30641SOL    HW193820   7.227   5.074   9.618
30641SOL    HW293821   7.377   5.071   9.597
30642SOL     OW93822  11.649   8.908   5.188
30642SOL    HW193823  11.738   8.943   5.190
30642SOL    HW293824  11.594   8.983   5.166
30643SOL     OW93825   2.302  11.489   2.599
30643SOL    HW193826   2.274  11.419   2.540
30643SOL    HW293827   2.376  11.452   2.647
30644SOL     OW93828  11.137   5.541   3.636
30644SOL    HW193829  11.053   5.527   3.593
30644SOL    HW293830  11.125   5.620   3.689
30645SOL     OW93831   9.035   2.547   6.459
30645SOL    HW193832   9.084   2.479   6.506
30645SOL    HW293833   8.944   2.520   6.466
30646SOL     OW93834  11.055   3.544   4.903
30646SOL    HW193835  10.995   3.498   4.845
30646SOL    HW293836  11.083   3.477   4.966
30647SOL     OW93837   2.472  13.188  10.070
30647SOL    HW193838   2.554  13.203  10.117
30647SOL    HW293839   2.406  13.236  10.120
30648SOL     OW93840  12.574   8.486   7.461
30648SOL    HW193841  12.541   8.443   7.540
30648SOL    HW293842  12.539   8.434   7.389
30649SOL     OW93843   7.953   9.585  13.076
30649SOL    HW193844   7.962   9.527  13.000
30649SOL    HW293845   8.019   9.554  13.137
30650SOL     OW93846   4.029   0.103   4.296
30650SOL    HW193847   3.987   0.174   4.246
30650SOL    HW293848   3.977   0.097   4.376
30651SOL     OW93849   7.974  10.018   8.191
30651SOL    HW193850   7.963  10.113   8.186
30651SOL    HW293851   8.062  10.002   8.159
30652SOL     OW93852  13.018   7.002  12.477
30652SOL    HW193853  13.032   6.916  12.439
30652SOL    HW293854  12.980   6.985  12.563
30653SOL     OW93855  14.859  14.480   8.689
30653SOL    HW193856  14.793  14.540   8.724
30653SOL    HW293857  14.813  14.430   8.621
30654SOL     OW93858   7.771   0.355  14.107
30654SOL    HW193859   7.815   0.271  14.103
30654SOL    HW293860   7.696   0.340  14.166
30655SOL     OW93861  13.516   4.940   2.177
30655SOL    HW193862  13.444   4.939   2.114
30655SOL    HW293863  13.523   5.032   2.204
30656SOL     OW93864  10.086   0.462   5.243
30656SOL    HW193865  10.021   0.471   5.173
30656SOL    HW293866  10.041   0.413   5.312
30657SOL     OW93867   6.196   6.634   2.797
30657SOL    HW193868   6.127   6.568   2.795
30657SOL    HW293869   6.227   6.633   2.888
30658SOL     OW93870  13.085   6.305   3.817
30658SOL    HW193871  13.007   6.361   3.815
30658SOL    HW293872  13.145   6.350   3.876
30659SOL     OW93873   9.615  13.812   9.358
30659SOL    HW193874   9.535  13.852   9.324
30659SOL    HW293875   9.591  13.721   9.376
30660SOL     OW93876   8.483  13.732   8.804
30660SOL    HW193877   8.495  13.643   8.836
30660SOL    HW293878   8.530  13.787   8.867
30661SOL     OW93879   2.701   4.034   6.501
30661SOL    HW193880   2.760   3.986   6.443
30661SOL    HW293881   2.670   4.108   6.448
30662SOL     OW93882  11.241   0.418   4.472
30662SOL    HW193883  11.272   0.475   4.401
30662SOL    HW293884  11.145   0.418   4.462
30663SOL     OW93885   1.561   0.406  13.506
30663SOL    HW193886   1.556   0.421  13.411
30663SOL    HW293887   1.490   0.460  13.542
30664SOL     OW93888  10.318  12.930   6.246
30664SOL    HW193889  10.343  12.866   6.179
30664SOL    HW293890  10.245  12.977   6.207
30665SOL     OW93891   2.871   8.449  10.612
30665SOL    HW193892   2.827   8.388  10.552
30665SOL    HW293893   2.964   8.433  10.597
30666SOL     OW93894  11.446  10.864   7.964
30666SOL    HW193895  11.530  10.832   7.996
30666SOL    HW293896  11.447  10.846   7.870
30667SOL     OW93897   1.252   2.494   3.434
30667SOL    HW193898   1.332   2.468   3.480
30667SOL    HW293899   1.280   2.561   3.372
30668SOL     OW93900   3.212   6.174   4.029
30668SOL    HW193901   3.212   6.152   4.122
30668SOL    HW293902   3.149   6.246   4.021
30669SOL     OW93903   2.880   6.198   4.811
30669SOL    HW193904   2.961   6.185   4.860
30669SOL    HW293905   2.905   6.256   4.739
30670SOL     OW93906   3.024  11.357  10.353
30670SOL    HW193907   2.974  11.284  10.315
30670SOL    HW293908   2.958  11.424  10.370
30671SOL     OW93909   9.857   3.122  10.819
30671SOL    HW193910   9.887   3.191  10.761
30671SOL    HW293911   9.903   3.139  10.902
30672SOL     OW93912   7.077  12.604  11.252
30672SOL    HW193913   6.981  12.600  11.254
30672SOL    HW293914   7.101  12.569  11.167
30673SOL     OW93915   3.410  11.589  14.673
30673SOL    HW193916   3.407  11.505  14.719
30673SOL    HW293917   3.480  11.638  14.716
30674SOL     OW93918   4.775  13.386   6.199
30674SOL    HW193919   4.682  13.411   6.200
30674SOL    HW293920   4.815  13.438   6.268
30675SOL     OW93921   8.312   7.191   3.136
30675SOL    HW193922   8.382   7.231   3.188
30675SOL    HW293923   8.285   7.260   3.076
30676SOL     OW93924   2.198   8.207  10.996
30676SOL    HW193925   2.190   8.224  10.902
30676SOL    HW293926   2.112   8.229  11.032
30677SOL     OW93927   6.482  12.894   2.161
30677SOL    HW193928   6.508  12.818   2.213
30677SOL    HW293929   6.481  12.967   2.224
30678SOL     OW93930  14.702   8.840   3.008
30678SOL    HW193931  14.667   8.751   3.004
30678SOL    HW293932  14.792   8.831   2.975
30679SOL     OW93933  13.750  11.667   9.836
30679SOL    HW193934  13.725  11.714   9.756
30679SOL    HW293935  13.740  11.575   9.814
30680SOL     OW93936   9.131  11.884   7.295
30680SOL    HW193937   9.088  11.821   7.238
30680SOL    HW293938   9.061  11.918   7.351
30681SOL     OW93939  11.607   3.759  13.570
30681SOL    HW193940  11.604   3.758  13.474
30681SOL    HW293941  11.602   3.667  13.595
30682SOL     OW93942  14.682   1.463  13.391
30682SOL    HW193943  14.712   1.375  13.366
30682SOL    HW293944  14.675   1.460  13.486
30683SOL     OW93945   3.219  12.976   7.867
30683SOL    HW193946   3.189  12.911   7.931
30683SOL    HW293947   3.223  12.927   7.785
30684SOL     OW93948   4.126   9.899  14.228
30684SOL    HW193949   4.057   9.961  14.251
30684SOL    HW293950   4.177   9.889  14.309
30685SOL     OW93951   6.173   7.540   9.005
30685SOL    HW193952   6.223   7.522   9.084
30685SOL    HW293953   6.128   7.458   8.985
30686SOL     OW93954   1.669   8.979  12.619
30686SOL    HW193955   1.574   8.985  12.610
30686SOL    HW293956   1.684   8.981  12.713
30687SOL     OW93957  11.583  10.305   2.373
30687SOL    HW193958  11.566  10.265   2.288
30687SOL    HW293959  11.677  10.292   2.388
30688SOL     OW93960   0.941   2.222  14.230
30688SOL    HW193961   0.938   2.314  14.203
30688SOL    HW293962   0.856   2.187  14.204
30689SOL     OW93963  13.312   8.800   6.586
30689SOL    HW193964  13.336   8.748   6.510
30689SOL    HW293965  13.221   8.776   6.604
30690SOL     OW93966   2.125   5.516   3.209
30690SOL    HW193967   2.185   5.501   3.135
30690SOL    HW293968   2.171   5.578   3.265
30691SOL     OW93969   4.067   4.412   4.350
30691SOL    HW193970   4.162   4.397   4.353
30691SOL    HW293971   4.033   4.356   4.420
30692SOL     OW93972   0.916  11.725   4.574
30692SOL    HW193973   1.001  11.711   4.531
30692SOL    HW293974   0.888  11.811   4.545
30693SOL     OW93975  13.972   1.656   9.778
30693SOL    HW193976  13.918   1.733   9.763
30693SOL    HW293977  13.967   1.640   9.872
30694SOL     OW93978   6.956  14.690   2.610
30694SOL    HW193979   6.924  14.650   2.530
30694SOL    HW293980   7.043  14.722   2.588
30695SOL     OW93981   6.904   2.129   1.860
30695SOL    HW193982   6.915   2.188   1.934
30695SOL    HW293983   6.927   2.043   1.894
30696SOL     OW93984   8.282  13.111   4.712
30696SOL    HW193985   8.329  13.047   4.765
30696SOL    HW293986   8.196  13.118   4.754
30697SOL     OW93987   2.544  11.546  10.401
30697SOL    HW193988   2.530  11.558  10.495
30697SOL    HW293989   2.478  11.601  10.359
30698SOL     OW93990  10.490   0.268  14.505
30698SOL    HW193991  10.585   0.268  14.520
30698SOL    HW293992  10.468   0.361  14.495
30699SOL     OW93993  14.841   0.009   2.883
30699SOL    HW193994   0.015  14.809   2.917
30699SOL    HW293995  14.868   0.015   2.791
30700SOL     OW93996   6.550  11.287   1.858
30700SOL    HW193997   6.567  11.378   1.832
30700SOL    HW293998   6.627  11.263   1.910
30701SOL     OW93999   2.721  13.026   0.180
30701SOL    HW194000   2.651  12.985   0.231
30701SOL    HW294001   2.700  13.005   0.089
30702SOL     OW94002   4.435   6.788  11.445
30702SOL    HW194003   4.509   6.738  11.482
30702SOL    HW294004   4.460   6.804  11.354
30703SOL     OW94005   2.727   6.792  11.121
30703SOL    HW194006   2.783   6.715  11.111
30703SOL    HW294007   2.663   6.784  11.050
30704SOL     OW94008  10.642   0.499   3.203
30704SOL    HW194009  10.729   0.514   3.167
30704SOL    HW294010  10.636   0.558   3.278
30705SOL     OW94011   4.794  14.693   6.598
30705SOL    HW194012   4.832  14.622   6.546
30705SOL    HW294013   4.808  14.772   6.545
30706SOL     OW94014  13.424  12.271  10.435
30706SOL    HW194015  13.518  12.283  10.421
30706SOL    HW294016  13.395  12.214  10.364
30707SOL     OW94017  13.604   2.401  13.968
30707SOL    HW194018  13.662   2.399  13.892
30707SOL    HW294019  13.645   2.464  14.028
30708SOL     OW94020   9.955   6.086   2.092
30708SOL    HW194021  10.005   6.157   2.052
30708SOL    HW294022   9.930   6.031   2.018
30709SOL     OW94023   4.626   9.467  13.256
30709SOL    HW194024   4.550   9.524  13.261
30709SOL    HW294025   4.599   9.387  13.301
30710SOL     OW94026   7.110   4.505   1.884
30710SOL    HW194027   7.091   4.598   1.877
30710SOL    HW294028   7.182   4.499   1.946
30711SOL     OW94029   5.914   4.051   6.489
30711SOL    HW194030   5.869   3.972   6.518
30711SOL    HW294031   5.951   4.089   6.569
30712SOL     OW94032   9.187   6.567   8.426
30712SOL    HW194033   9.258   6.582   8.364
30712SOL    HW294034   9.118   6.527   8.374
30713SOL     OW94035  14.324   6.367   9.271
30713SOL    HW194036  14.365   6.427   9.209
30713SOL    HW294037  14.243   6.339   9.229
30714SOL     OW94038   1.797   5.210  10.412
30714SOL    HW194039   1.710   5.240  10.438
30714SOL    HW294040   1.810   5.128  10.459
30715SOL     OW94041   4.190  10.153   3.587
30715SOL    HW194042   4.205  10.066   3.624
30715SOL    HW294043   4.265  10.167   3.529
30716SOL     OW94044  13.508   3.136  11.322
30716SOL    HW194045  13.574   3.106  11.261
30716SOL    HW294046  13.425   3.106  11.284
30717SOL     OW94047   8.230   1.030   0.365
30717SOL    HW194048   8.220   0.970   0.291
30717SOL    HW294049   8.252   0.973   0.439
30718SOL     OW94050   9.287   6.546  11.017
30718SOL    HW194051   9.369   6.587  11.045
30718SOL    HW294052   9.314   6.462  10.980
30719SOL     OW94053   0.088   4.208  12.877
30719SOL    HW194054  14.875   4.175  12.862
30719SOL    HW294055   0.082   4.302  12.863
30720SOL     OW94056   7.031  11.080  10.575
30720SOL    HW194057   7.124  11.094  10.556
30720SOL    HW294058   7.025  11.078  10.670
30721SOL     OW94059   6.948  10.048  11.444
30721SOL    HW194060   6.897  10.028  11.523
30721SOL    HW294061   7.029  10.000  11.455
30722SOL     OW94062  11.529  10.896   1.326
30722SOL    HW194063  11.561  10.873   1.413
30722SOL    HW294064  11.433  10.892   1.334
30723SOL     OW94065   5.407  11.911   5.972
30723SOL    HW194066   5.443  11.824   5.953
30723SOL    HW294067   5.470  11.951   6.031
30724SOL     OW94068   5.993   5.766   8.430
30724SOL    HW194069   5.961   5.761   8.519
30724SOL    HW294070   5.919   5.741   8.375
30725SOL     OW94071  14.093   4.633   3.906
30725SOL    HW194072  14.079   4.618   3.999
30725SOL    HW294073  14.101   4.545   3.869
30726SOL     OW94074   4.264   1.194   8.987
30726SOL    HW194075   4.321   1.270   9.002
30726SOL    HW294076   4.320   1.130   8.944
30727SOL     OW94077   3.213   2.762   2.208
30727SOL    HW194078   3.275   2.828   2.237
30727SOL    HW294079   3.213   2.769   2.113
30728SOL     OW94080  11.503  13.836   8.940
30728SOL    HW194081  11.566  13.850   8.870
30728SOL    HW294082  11.418  13.837   8.897
30729SOL     OW94083   4.438   8.241  12.633
30729SOL    HW194084   4.502   8.227  12.563
30729SOL    HW294085   4.367   8.289  12.590
30730SOL     OW94086   7.811   4.997   0.492
30730SOL    HW194087   7.718   4.985   0.511
30730SOL    HW294088   7.852   5.005   0.578
30731SOL     OW94089   3.042   9.242  14.138
30731SOL    HW194090   3.011   9.318  14.188
30731SOL    HW294091   3.011   9.167  14.188
30732SOL     OW94092   5.708  11.815   0.030
30732SOL    HW194093   5.788  11.765   0.047
30732SOL    HW294094   5.643  11.776   0.088
30733SOL     OW94095   2.926   6.500   3.745
30733SOL    HW194096   2.952   6.408   3.741
30733SOL    HW294097   2.831   6.499   3.734
30734SOL     OW94098   0.626   4.789   3.397
30734SOL    HW194099   0.574   4.733   3.455
30734SOL    HW294100   0.580   4.785   3.313
30735SOL     OW94101   1.216   9.059   5.448
30735SOL    HW194102   1.152   8.990   5.428
30735SOL    HW294103   1.224   9.058   5.543
30736SOL     OW94104   7.835   4.049  11.244
30736SOL    HW194105   7.915   4.018  11.201
30736SOL    HW294106   7.782   3.971  11.257
30737SOL     OW94107   9.636   6.387   4.479
30737SOL    HW194108   9.575   6.344   4.419
30737SOL    HW294109   9.708   6.325   4.489
30738SOL     OW94110   5.148  12.099   3.511
30738SOL    HW194111   5.072  12.145   3.545
30738SOL    HW294112   5.214  12.168   3.498
30739SOL     OW94113   5.635  14.002  10.866
30739SOL    HW194114   5.635  14.091  10.901
30739SOL    HW294115   5.664  13.948  10.939
30740SOL     OW94116  14.043  14.582   6.761
30740SOL    HW194117  14.024  14.644   6.691
30740SOL    HW294118  14.115  14.621   6.810
30741SOL     OW94119  12.597   5.563   0.196
30741SOL    HW194120  12.604   5.612   0.278
30741SOL    HW294121  12.597   5.471   0.222
30742SOL     OW94122   6.360   1.997  14.603
30742SOL    HW194123   6.310   2.074  14.577
30742SOL    HW294124   6.418   1.980  14.528
30743SOL     OW94125   9.265   7.965  14.697
30743SOL    HW194126   9.308   7.940  14.778
30743SOL    HW294127   9.246   8.058  14.707
30744SOL     OW94128   3.370   4.789   9.932
30744SOL    HW194129   3.357   4.883   9.916
30744SOL    HW294130   3.372   4.750   9.845
30745SOL     OW94131  13.185  11.666  10.126
30745SOL    HW194132  13.195  11.727  10.198
30745SOL    HW294133  13.275  11.646  10.099
30746SOL     OW94134   7.409   4.200  12.280
30746SOL    HW194135   7.448   4.170  12.198
30746SOL    HW294136   7.399   4.121  12.333
30747SOL     OW94137  12.020  14.831   2.960
30747SOL    HW194138  12.051   0.022   3.023
30747SOL    HW294139  12.048  14.865   2.875
30748SOL     OW94140   4.168   3.147   9.052
30748SOL    HW194141   4.231   3.152   8.980
30748SOL    HW294142   4.220   3.167   9.130
30749SOL     OW94143   2.684   5.446   2.099
30749SOL    HW194144   2.728   5.501   2.034
30749SOL    HW294145   2.730   5.464   2.181
30750SOL     OW94146  13.988   3.285   2.950
30750SOL    HW194147  14.050   3.232   3.000
30750SOL    HW294148  14.035   3.309   2.870
30751SOL     OW94149   6.932  11.200   2.404
30751SOL    HW194150   6.916  11.189   2.310
30751SOL    HW294151   6.850  11.172   2.445
30752SOL     OW94152   2.085   2.101  14.253
30752SOL    HW194153   2.094   2.094  14.348
30752SOL    HW294154   2.146   2.037  14.218
30753SOL     OW94155   8.863   6.923   0.689
30753SOL    HW194156   8.833   6.860   0.753
30753SOL    HW294157   8.785   6.947   0.639
30754SOL     OW94158   9.478   3.898   3.502
30754SOL    HW194159   9.460   3.883   3.595
30754SOL    HW294160   9.569   3.928   3.499
30755SOL     OW94161   6.539   1.300  11.985
30755SOL    HW194162   6.449   1.269  11.986
30755SOL    HW294163   6.535   1.387  12.024
30756SOL     OW94164   4.867  11.979   7.590
30756SOL    HW194165   4.897  11.939   7.671
30756SOL    HW294166   4.912  12.063   7.587
30757SOL     OW94167   6.476   9.166  10.247
30757SOL    HW194168   6.382   9.155  10.253
30757SOL    HW294169   6.511   9.077  10.247
30758SOL     OW94170   1.583   4.493  14.781
30758SOL    HW194171   1.559   4.582  14.806
30758SOL    HW294172   1.601   4.497  14.687
30759SOL     OW94173  11.864  14.070  12.093
30759SOL    HW194174  11.843  14.111  12.177
30759SOL    HW294175  11.781  14.065  12.047
30760SOL     OW94176   0.639  10.040   3.295
30760SOL    HW194177   0.587   9.970   3.254
30760SOL    HW294178   0.690  10.077   3.223
30761SOL     OW94179  10.945   2.016  14.673
30761SOL    HW194180  10.964   2.005  14.579
30761SOL    HW294181  11.016   2.072  14.705
30762SOL     OW94182   2.292  10.729  12.000
30762SOL    HW194183   2.316  10.650  11.952
30762SOL    HW294184   2.297  10.799  11.935
30763SOL     OW94185   5.611  13.042   6.202
30763SOL    HW194186   5.585  12.950   6.195
30763SOL    HW294187   5.550  13.089   6.146
30764SOL     OW94188   5.814   0.842   7.379
30764SOL    HW194189   5.836   0.907   7.312
30764SOL    HW294190   5.724   0.862   7.404
30765SOL     OW94191  13.974  12.749   2.284
30765SOL    HW194192  14.064  12.761   2.253
30765SOL    HW294193  13.943  12.838   2.301
30766SOL     OW94194   8.178   1.261   6.209
30766SOL    HW194195   8.187   1.223   6.296
30766SOL    HW294196   8.129   1.341   6.222
30767SOL     OW94197  12.572  12.732   2.515
30767SOL    HW194198  12.516  12.720   2.591
30767SOL    HW294199  12.512  12.756   2.444
30768SOL     OW94200  10.269  10.250   6.335
30768SOL    HW194201  10.363  10.251   6.350
30768SOL    HW294202  10.238  10.169   6.375
30769SOL     OW94203   9.189   1.800  12.393
30769SOL    HW194204   9.102   1.763  12.381
30769SOL    HW294205   9.238   1.732  12.439
30770SOL     OW94206   5.320   9.887   6.609
30770SOL    HW194207   5.325   9.794   6.588
30770SOL    HW294208   5.349   9.931   6.529
30771SOL     OW94209   8.824   2.074   0.876
30771SOL    HW194210   8.800   2.147   0.818
30771SOL    HW294211   8.849   2.003   0.816
30772SOL     OW94212  13.603  13.761   6.474
30772SOL    HW194213  13.564  13.793   6.556
30772SOL    HW294214  13.531  13.716   6.429
30773SOL     OW94215  10.902   5.713   4.540
30773SOL    HW194216  10.885   5.765   4.618
30773SOL    HW294217  10.980   5.662   4.562
30774SOL     OW94218   2.226   5.143   0.269
30774SOL    HW194219   2.151   5.200   0.255
30774SOL    HW294220   2.189   5.055   0.275
30775SOL     OW94221   9.609  14.619   7.236
30775SOL    HW194222   9.523  14.581   7.218
30775SOL    HW294223   9.650  14.626   7.150
30776SOL     OW94224  12.362   7.408   5.710
30776SOL    HW194225  12.409   7.480   5.752
30776SOL    HW294226  12.360   7.339   5.777
30777SOL     OW94227   5.847   6.942   3.501
30777SOL    HW194228   5.827   6.854   3.470
30777SOL    HW294229   5.898   6.928   3.581
30778SOL     OW94230   3.504   9.145  10.906
30778SOL    HW194231   3.467   9.185  10.984
30778SOL    HW294232   3.482   9.052  10.913
30779SOL     OW94233  13.700  10.503  14.424
30779SOL    HW194234  13.733  10.425  14.469
30779SOL    HW294235  13.729  10.491  14.333
30780SOL     OW94236   5.344  14.677  14.221
30780SOL    HW194237   5.342  14.765  14.259
30780SOL    HW294238   5.434  14.648  14.231
30781SOL     OW94239   4.178   4.631  12.634
30781SOL    HW194240   4.164   4.636  12.539
30781SOL    HW294241   4.117   4.695  12.670
30782SOL     OW94242   2.327   0.531   5.227
30782SOL    HW194243   2.293   0.493   5.308
30782SOL    HW294244   2.412   0.489   5.215
30783SOL     OW94245   0.813  13.625   0.052
30783SOL    HW194246   0.838  13.691  14.862
30783SOL    HW294247   0.720  13.609   0.036
30784SOL     OW94248   0.452  14.154   4.700
30784SOL    HW194249   0.365  14.194   4.702
30784SOL    HW294250   0.511  14.227   4.681
30785SOL     OW94251   8.890   2.801  10.204
30785SOL    HW194252   8.853   2.888  10.214
30785SOL    HW294253   8.973   2.815  10.157
30786SOL     OW94254   7.741   2.784  13.929
30786SOL    HW194255   7.716   2.797  13.838
30786SOL    HW294256   7.694   2.853  13.976
30787SOL     OW94257   9.810   8.155  10.122
30787SOL    HW194258   9.810   8.205  10.203
30787SOL    HW294259   9.721   8.120  10.115
30788SOL     OW94260  11.432  10.489  14.527
30788SOL    HW194261  11.501  10.429  14.497
30788SOL    HW294262  11.364  10.483  14.459
30789SOL     OW94263  14.463   4.864  10.414
30789SOL    HW194264  14.543   4.913  10.393
30789SOL    HW294265  14.439   4.893  10.502
30790SOL     OW94266   8.668   2.990  14.136
30790SOL    HW194267   8.743   2.944  14.099
30790SOL    HW294268   8.618   2.921  14.180
30791SOL     OW94269   9.636   6.194   8.187
30791SOL    HW194270   9.560   6.185   8.244
30791SOL    HW294271   9.650   6.288   8.178
30792SOL     OW94272   2.545   9.007   5.466
30792SOL    HW194273   2.499   8.989   5.548
30792SOL    HW294274   2.605   8.933   5.455
30793SOL     OW94275  14.179   0.017   4.561
30793SOL    HW194276  14.195   0.105   4.596
30793SOL    HW294277  14.139  14.844   4.634
30794SOL     OW94278   7.242  14.187   9.798
30794SOL    HW194279   7.152  14.172   9.768
30794SOL    HW294280   7.296  14.151   9.728
30795SOL     OW94281   2.432   7.795   4.337
30795SOL    HW194282   2.394   7.874   4.374
30795SOL    HW294283   2.524   7.816   4.323
30796SOL     OW94284   1.106   5.577  11.940
30796SOL    HW194285   1.137   5.486  11.933
30796SOL    HW294286   1.011   5.569  11.946
30797SOL     OW94287   5.274   5.302   8.013
30797SOL    HW194288   5.189   5.343   7.999
30797SOL    HW294289   5.282   5.296   8.109
30798SOL     OW94290  10.403   9.490  11.373
30798SOL    HW194291  10.383   9.435  11.448
30798SOL    HW294292  10.348   9.454  11.302
30799SOL     OW94293  14.679   5.685   0.578
30799SOL    HW194294  14.687   5.725   0.491
30799SOL    HW294295  14.601   5.630   0.571
30800SOL     OW94296   7.552   5.555   7.320
30800SOL    HW194297   7.622   5.508   7.275
30800SOL    HW294298   7.508   5.606   7.252
30801SOL     OW94299   1.249   8.426   9.257
30801SOL    HW194300   1.301   8.359   9.301
30801SOL    HW294301   1.162   8.388   9.249
30802SOL     OW94302   0.036  13.026   6.853
30802SOL    HW194303   0.111  13.025   6.793
30802SOL    HW294304   0.040  12.942   6.898
30803SOL     OW94305   7.674   1.822   3.565
30803SOL    HW194306   7.622   1.795   3.489
30803SOL    HW294307   7.756   1.854   3.529
30804SOL     OW94308   3.539   0.438  11.760
30804SOL    HW194309   3.462   0.483  11.796
30804SOL    HW294310   3.577   0.500  11.699
30805SOL     OW94311  10.881   3.920   6.885
30805SOL    HW194312  10.868   3.989   6.950
30805SOL    HW294313  10.869   3.964   6.800
30806SOL     OW94314   8.300   0.242   2.041
30806SOL    HW194315   8.234   0.308   2.020
30806SOL    HW294316   8.383   0.290   2.044
30807SOL     OW94317   9.226   0.865  12.802
30807SOL    HW194318   9.141   0.858  12.845
30807SOL    HW294319   9.254   0.955  12.818
30808SOL     OW94320  13.231   6.492   8.654
30808SOL    HW194321  13.281   6.467   8.576
30808SOL    HW294322  13.272   6.572   8.684
30809SOL     OW94323   6.647   5.994   4.892
30809SOL    HW194324   6.687   5.987   4.805
30809SOL    HW294325   6.715   5.966   4.952
30810SOL     OW94326  10.509  13.418   6.568
30810SOL    HW194327  10.579  13.389   6.509
30810SOL    HW294328  10.429  13.378   6.532
30811SOL     OW94329   1.338   5.655   3.185
30811SOL    HW194330   1.257   5.642   3.136
30811SOL    HW294331   1.404   5.606   3.136
30812SOL     OW94332  11.300   2.598   1.127
30812SOL    HW194333  11.218   2.635   1.093
30812SOL    HW294334  11.356   2.590   1.050
30813SOL     OW94335   9.747  11.625   8.117
30813SOL    HW194336   9.673  11.571   8.090
30813SOL    HW294337   9.765  11.680   8.041
30814SOL     OW94338  10.373   7.945   1.292
30814SOL    HW194339  10.283   7.961   1.320
30814SOL    HW294340  10.378   7.850   1.280
30815SOL     OW94341   6.349   4.638  12.268
30815SOL    HW194342   6.429   4.692  12.270
30815SOL    HW294343   6.366   4.568  12.331
30816SOL     OW94344  13.784   2.701   5.081
30816SOL    HW194345  13.802   2.650   5.002
30816SOL    HW294346  13.843   2.664   5.147
30817SOL     OW94347   7.806   4.717   9.251
30817SOL    HW194348   7.829   4.647   9.311
30817SOL    HW294349   7.771   4.672   9.174
30818SOL     OW94350  10.262  13.709   1.801
30818SOL    HW194351  10.309  13.693   1.719
30818SOL    HW294352  10.231  13.799   1.794
30819SOL     OW94353   9.371   7.948   5.108
30819SOL    HW194354   9.449   7.994   5.078
30819SOL    HW294355   9.364   7.971   5.201
30820SOL     OW94356  10.343   4.104  14.378
30820SOL    HW194357  10.281   4.042  14.341
30820SOL    HW294358  10.310   4.190  14.354
30821SOL     OW94359   3.311   9.639  10.751
30821SOL    HW194360   3.258   9.560  10.745
30821SOL    HW294361   3.344   9.640  10.841
30822SOL     OW94362  10.468  13.606  10.226
30822SOL    HW194363  10.457  13.514  10.205
30822SOL    HW294364  10.525  13.607  10.303
30823SOL     OW94365   1.185   0.635  12.748
30823SOL    HW194366   1.204   0.664  12.837
30823SOL    HW294367   1.095   0.666  12.732
30824SOL     OW94368   5.277   2.462  13.783
30824SOL    HW194369   5.247   2.492  13.698
30824SOL    HW294370   5.242   2.373  13.791
30825SOL     OW94371   6.894   3.084   2.359
30825SOL    HW194372   6.896   3.114   2.449
30825SOL    HW294373   6.838   3.006   2.361
30826SOL     OW94374   5.412   9.081  12.824
30826SOL    HW194375   5.401   9.159  12.770
30826SOL    HW294376   5.471   9.108  12.894
30827SOL     OW94377   4.926  12.924   6.234
30827SOL    HW194378   4.972  12.853   6.188
30827SOL    HW294379   4.837  12.921   6.200
30828SOL     OW94380   1.462   8.082   9.686
30828SOL    HW194381   1.412   8.161   9.664
30828SOL    HW294382   1.420   8.049   9.765
30829SOL     OW94383   0.913  12.376  10.596
30829SOL    HW194384   0.942  12.425  10.672
30829SOL    HW294385   0.819  12.364  10.609
30830SOL     OW94386   6.198  12.215   6.273
30830SOL    HW194387   6.138  12.255   6.209
30830SOL    HW294388   6.245  12.289   6.311
30831SOL     OW94389   2.055   1.977   2.628
30831SOL    HW194390   2.051   2.056   2.574
30831SOL    HW294391   2.108   2.003   2.704
30832SOL     OW94392   1.317   3.575   7.842
30832SOL    HW194393   1.348   3.583   7.752
30832SOL    HW294394   1.396   3.568   7.895
30833SOL     OW94395   9.141   2.036  12.562
30833SOL    HW194396   9.234   2.040  12.543
30833SOL    HW294397   9.109   1.959  12.514
30834SOL     OW94398  14.292   3.871  12.525
30834SOL    HW194399  14.327   3.804  12.585
30834SOL    HW294400  14.309   3.835  12.438
30835SOL     OW94401   3.681   8.839   7.390
30835SOL    HW194402   3.761   8.838   7.442
30835SOL    HW294403   3.625   8.773   7.431
30836SOL     OW94404   2.105   1.898   0.989
30836SOL    HW194405   2.120   1.958   1.062
30836SOL    HW294406   2.111   1.952   0.911
30837SOL     OW94407   8.282  14.732  14.609
30837SOL    HW194408   8.193  14.700  14.600
30837SOL    HW294409   8.276  14.803  14.674
30838SOL     OW94410   8.786   5.926  14.804
30838SOL    HW194411   8.872   5.963  14.781
30838SOL    HW294412   8.750   5.990  14.866
30839SOL     OW94413  10.574   7.566   1.912
30839SOL    HW194414  10.520   7.497   1.950
30839SOL    HW294415  10.664   7.537   1.928
30840SOL     OW94416   0.544   2.758   0.139
30840SOL    HW194417   0.569   2.797   0.055
30840SOL    HW294418   0.501   2.829   0.187
30841SOL     OW94419  12.885  12.220   9.566
30841SOL    HW194420  12.953  12.288   9.558
30841SOL    HW294421  12.927  12.151   9.618
30842SOL     OW94422  10.589   8.783   3.181
30842SOL    HW194423  10.648   8.844   3.138
30842SOL    HW294424  10.644   8.735   3.243
30843SOL     OW94425   4.602   1.060  11.061
30843SOL    HW194426   4.520   1.062  11.109
30843SOL    HW294427   4.654   0.993  11.106
30844SOL     OW94428   6.695   7.845   5.124
30844SOL    HW194429   6.660   7.885   5.045
30844SOL    HW294430   6.693   7.915   5.190
30845SOL     OW94431   6.057   3.547  12.821
30845SOL    HW194432   6.080   3.589  12.739
30845SOL    HW294433   6.084   3.609  12.889
30846SOL     OW94434  14.440   1.507   3.481
30846SOL    HW194435  14.528   1.541   3.461
30846SOL    HW294436  14.381   1.573   3.446
30847SOL     OW94437   3.340   9.186  10.249
30847SOL    HW194438   3.279   9.204  10.177
30847SOL    HW294439   3.338   9.266  10.302
30848SOL     OW94440  11.248  14.291   1.706
30848SOL    HW194441  11.195  14.340   1.642
30848SOL    HW294442  11.320  14.350   1.727
30849SOL     OW94443  13.197  12.770   2.992
30849SOL    HW194444  13.189  12.845   2.933
30849SOL    HW294445  13.192  12.693   2.935
30850SOL     OW94446  11.952   7.430   7.491
30850SOL    HW194447  12.001   7.505   7.456
30850SOL    HW294448  11.869   7.431   7.443
30851SOL     OW94449   3.519   4.258   9.978
30851SOL    HW194450   3.435   4.264  10.024
30851SOL    HW294451   3.562   4.181  10.017
30852SOL     OW94452   5.444   2.292   6.633
30852SOL    HW194453   5.405   2.205   6.641
30852SOL    HW294454   5.371   2.349   6.609
30853SOL     OW94455   0.158   4.295  10.532
30853SOL    HW194456   0.158   4.199  10.528
30853SOL    HW294457   0.223   4.321  10.467
30854SOL     OW94458  11.551  13.097   6.429
30854SOL    HW194459  11.573  13.183   6.464
30854SOL    HW294460  11.617  13.082   6.360
30855SOL     OW94461   6.121  13.161   4.155
30855SOL    HW194462   6.127  13.081   4.104
30855SOL    HW294463   6.162  13.228   4.101
30856SOL     OW94464   9.493   3.688  10.817
30856SOL    HW194465   9.508   3.663  10.726
30856SOL    HW294466   9.578   3.723  10.846
30857SOL     OW94467   0.716   5.035   4.479
30857SOL    HW194468   0.649   5.074   4.536
30857SOL    HW294469   0.795   5.085   4.498
30858SOL     OW94470   3.797  10.021   4.802
30858SOL    HW194471   3.863   9.992   4.864
30858SOL    HW294472   3.776   9.943   4.751
30859SOL     OW94473   5.413  14.606   7.463
30859SOL    HW194474   5.425  14.511   7.471
30859SOL    HW294475   5.359  14.617   7.385
30860SOL     OW94476  11.165  10.297  11.996
30860SOL    HW194477  11.104  10.353  11.948
30860SOL    HW294478  11.158  10.325  12.087
30861SOL     OW94479   0.978   7.276   4.649
30861SOL    HW194480   0.956   7.221   4.574
30861SOL    HW294481   1.069   7.252   4.670
30862SOL     OW94482   7.058   0.145  13.412
30862SOL    HW194483   7.088   0.088  13.483
30862SOL    HW294484   7.073   0.095  13.332
30863SOL     OW94485   7.834   1.200   5.153
30863SOL    HW194486   7.740   1.213   5.168
30863SOL    HW294487   7.875   1.217   5.237
30864SOL     OW94488  10.057   4.564  13.218
30864SOL    HW194489   9.963   4.548  13.210
30864SOL    HW294490  10.082   4.601  13.133
30865SOL     OW94491   0.029  12.400   7.824
30865SOL    HW194492  14.864  12.384   7.910
30865SOL    HW294493   0.075  12.484   7.835
30866SOL     OW94494   1.457  11.202   9.638
30866SOL    HW194495   1.509  11.260   9.694
30866SOL    HW294496   1.408  11.261   9.581
30867SOL     OW94497   2.456   8.372   3.370
30867SOL    HW194498   2.376   8.324   3.393
30867SOL    HW294499   2.493   8.399   3.454
30868SOL     OW94500  12.882   8.523  12.913
30868SOL    HW194501  12.919   8.512  13.000
30868SOL    HW294502  12.944   8.580  12.867
30869SOL     OW94503   3.852   3.507   4.992
30869SOL    HW194504   3.915   3.503   5.064
30869SOL    HW294505   3.818   3.418   4.984
30870SOL     OW94506   5.285   6.599   8.424
30870SOL    HW194507   5.355   6.620   8.486
30870SOL    HW294508   5.216   6.561   8.479
30871SOL     OW94509   4.384   8.439  11.194
30871SOL    HW194510   4.353   8.353  11.221
30871SOL    HW294511   4.354   8.448  11.103
30872SOL     OW94512   5.438   4.949   7.058
30872SOL    HW194513   5.381   5.017   7.022
30872SOL    HW294514   5.526   4.985   7.050
30873SOL     OW94515   2.331  14.098   9.216
30873SOL    HW194516   2.362  14.188   9.200
30873SOL    HW294517   2.310  14.096   9.309
30874SOL     OW94518   5.476  12.217   1.508
30874SOL    HW194519   5.512  12.202   1.595
30874SOL    HW294520   5.502  12.307   1.487
30875SOL     OW94521  14.483   9.455   5.417
30875SOL    HW194522  14.492   9.368   5.455
30875SOL    HW294523  14.534   9.452   5.336
30876SOL     OW94524   8.847  13.919   8.513
30876SOL    HW194525   8.917  13.976   8.545
30876SOL    HW294526   8.780  13.923   8.582
30877SOL     OW94527   0.333   0.755   3.792
30877SOL    HW194528   0.275   0.831   3.781
30877SOL    HW294529   0.363   0.761   3.883
30878SOL     OW94530   7.978   7.450   5.542
30878SOL    HW194531   7.928   7.437   5.622
30878SOL    HW294532   7.912   7.463   5.474
30879SOL     OW94533   8.169   9.097   5.815
30879SOL    HW194534   8.225   9.095   5.893
30879SOL    HW294535   8.141   9.006   5.804
30880SOL     OW94536  12.643   5.564  14.407
30880SOL    HW194537  12.646   5.495  14.474
30880SOL    HW294538  12.619   5.643  14.455
30881SOL     OW94539   3.748   7.817  12.926
30881SOL    HW194540   3.702   7.798  13.008
30881SOL    HW294541   3.838   7.790  12.942
30882SOL     OW94542   0.004  14.269   6.942
30882SOL    HW194543   0.018  14.192   6.998
30882SOL    HW294544   0.073  14.263   6.876
30883SOL     OW94545  12.738   7.864   0.529
30883SOL    HW194546  12.761   7.798   0.595
30883SOL    HW294547  12.768   7.947   0.566
30884SOL     OW94548   8.268  12.779   2.482
30884SOL    HW194549   8.173  12.787   2.490
30884SOL    HW294550   8.282  12.691   2.446
30885SOL     OW94551  13.164   0.360   9.520
30885SOL    HW194552  13.122   0.275   9.511
30885SOL    HW294553  13.211   0.356   9.603
30886SOL     OW94554  12.238   9.038   0.919
30886SOL    HW194555  12.224   8.954   0.962
30886SOL    HW294556  12.302   9.020   0.850
30887SOL     OW94557  14.083   6.338   7.705
30887SOL    HW194558  13.992   6.358   7.726
30887SOL    HW294559  14.134   6.382   7.773
30888SOL     OW94560   1.956  14.118   9.233
30888SOL    HW194561   1.969  14.126   9.139
30888SOL    HW294562   2.040  14.142   9.271
30889SOL     OW94563  10.141  14.160  14.797
30889SOL    HW194564  10.092  14.241  14.783
30889SOL    HW294565  10.198  14.152  14.721
30890SOL     OW94566   5.802   7.716   5.061
30890SOL    HW194567   5.795   7.621   5.053
30890SOL    HW294568   5.896   7.733   5.064
30891SOL     OW94569   7.876   5.502   0.156
30891SOL    HW194570   7.920   5.465   0.080
30891SOL    HW294571   7.791   5.458   0.158
30892SOL     OW94572   7.428   3.784   1.005
30892SOL    HW194573   7.470   3.870   1.003
30892SOL    HW294574   7.334   3.803   1.011
30893SOL     OW94575   4.972   6.230   0.209
30893SOL    HW194576   5.059   6.269   0.221
30893SOL    HW294577   4.916   6.303   0.183
30894SOL     OW94578  13.511  11.657  12.181
30894SOL    HW194579  13.593  11.647  12.231
30894SOL    HW294580  13.447  11.685  12.246
30895SOL     OW94581   1.147  13.320   0.918
30895SOL    HW194582   1.231  13.365   0.917
30895SOL    HW294583   1.168  13.231   0.944
30896SOL     OW94584   6.027   7.910   7.541
30896SOL    HW194585   6.000   7.819   7.545
30896SOL    HW294586   6.117   7.910   7.571
30897SOL     OW94587   5.548   3.426   2.816
30897SOL    HW194588   5.620   3.412   2.755
30897SOL    HW294589   5.588   3.418   2.903
30898SOL     OW94590   1.715   4.768  12.711
30898SOL    HW194591   1.650   4.740  12.647
30898SOL    HW294592   1.785   4.806  12.659
30899SOL     OW94593   8.689  11.546  10.485
30899SOL    HW194594   8.756  11.491  10.527
30899SOL    HW294595   8.620  11.485  10.461
30900SOL     OW94596   6.430   8.033   1.701
30900SOL    HW194597   6.432   7.961   1.638
30900SOL    HW294598   6.380   7.999   1.775
30901SOL     OW94599  13.711  13.269   4.505
30901SOL    HW194600  13.665  13.353   4.500
30901SOL    HW294601  13.645  13.204   4.481
30902SOL     OW94602   5.822  11.209  10.528
30902SOL    HW194603   5.813  11.144  10.599
30902SOL    HW294604   5.912  11.241  10.536
30903SOL     OW94605   1.916   6.545   6.407
30903SOL    HW194606   1.998   6.508   6.374
30903SOL    HW294607   1.899   6.619   6.349
30904SOL     OW94608   0.786   8.965   9.434
30904SOL    HW194609   0.749   8.931   9.516
30904SOL    HW294610   0.880   8.975   9.454
30905SOL     OW94611   4.950   5.960   5.943
30905SOL    HW194612   4.954   5.883   5.886
30905SOL    HW294613   4.987   5.929   6.026
30906SOL     OW94614   7.286   0.930   2.774
30906SOL    HW194615   7.229   0.912   2.849
30906SOL    HW294616   7.225   0.959   2.705
30907SOL     OW94617   9.924   3.357   3.010
30907SOL    HW194618   9.976   3.336   3.088
30907SOL    HW294619   9.866   3.428   3.039
30908SOL     OW94620   9.786   9.825   2.073
30908SOL    HW194621   9.820   9.914   2.073
30908SOL    HW294622   9.837   9.780   2.141
30909SOL     OW94623   0.928   4.190   5.090
30909SOL    HW194624   0.970   4.263   5.137
30909SOL    HW294625   0.979   4.182   5.009
30910SOL     OW94626   4.082   1.368  11.909
30910SOL    HW194627   4.114   1.333  11.826
30910SOL    HW294628   4.088   1.295  11.970
30911SOL     OW94629   7.383   5.038  12.558
30911SOL    HW194630   7.397   4.989  12.477
30911SOL    HW294631   7.432   5.119  12.547
30912SOL     OW94632  14.111   4.942   9.406
30912SOL    HW194633  14.084   5.015   9.461
30912SOL    HW294634  14.141   4.875   9.468
30913SOL     OW94635  11.878   5.962   7.105
30913SOL    HW194636  11.897   6.044   7.151
30913SOL    HW294637  11.956   5.946   7.051
30914SOL     OW94638   2.805   6.174  14.213
30914SOL    HW194639   2.713   6.147  14.205
30914SOL    HW294640   2.816   6.240  14.144
30915SOL     OW94641   2.804   3.710   4.816
30915SOL    HW194642   2.865   3.656   4.767
30915SOL    HW294643   2.722   3.705   4.768
30916SOL     OW94644   2.198  14.136   8.758
30916SOL    HW194645   2.138  14.095   8.696
30916SOL    HW294646   2.186  14.230   8.745
30917SOL     OW94647  12.874   7.229  12.421
30917SOL    HW194648  12.844   7.228  12.512
30917SOL    HW294649  12.938   7.159  12.416
30918SOL     OW94650   3.972  13.752  10.525
30918SOL    HW194651   4.061  13.726  10.504
30918SOL    HW294652   3.976  13.782  10.616
30919SOL     OW94653  14.337   8.279   0.299
30919SOL    HW194654  14.316   8.316   0.385
30919SOL    HW294655  14.263   8.304   0.243
30920SOL     OW94656  11.029   8.037   1.033
30920SOL    HW194657  11.042   7.942   1.026
30920SOL    HW294658  11.102   8.075   0.985
30921SOL     OW94659  10.081  14.153  12.588
30921SOL    HW194660  10.135  14.100  12.530
30921SOL    HW294661  10.138  14.173  12.662
30922SOL     OW94662   2.004   9.782  14.370
30922SOL    HW194663   1.969   9.694  14.359
30922SOL    HW294664   2.095   9.768  14.400
30923SOL     OW94665   6.872   4.077   8.410
30923SOL    HW194666   6.882   3.983   8.393
30923SOL    HW294667   6.955   4.115   8.383
30924SOL     OW94668   2.058  12.950  13.784
30924SOL    HW194669   2.089  12.863  13.757
30924SOL    HW294670   1.978  12.963  13.732
30925SOL     OW94671  13.613  13.800   2.780
30925SOL    HW194672  13.604  13.745   2.702
30925SOL    HW294673  13.526  13.800   2.820
30926SOL     OW94674   8.689  13.072   4.813
30926SOL    HW194675   8.730  13.090   4.898
30926SOL    HW294676   8.603  13.038   4.834
30927SOL     OW94677   5.280  13.463   6.509
30927SOL    HW194678   5.270  13.368   6.522
30927SOL    HW294679   5.338  13.471   6.434
30928SOL     OW94680   4.094   4.065  10.677
30928SOL    HW194681   4.180   4.096  10.648
30928SOL    HW294682   4.096   4.074  10.773
30929SOL     OW94683   7.774   4.787  12.789
30929SOL    HW194684   7.712   4.797  12.717
30929SOL    HW294685   7.750   4.705  12.831
30930SOL     OW94686   7.475  13.477   6.858
30930SOL    HW194687   7.449  13.568   6.871
30930SOL    HW294688   7.569  13.480   6.844
30931SOL     OW94689  13.254   0.790   7.222
30931SOL    HW194690  13.183   0.819   7.280
30931SOL    HW294691  13.210   0.735   7.157
30932SOL     OW94692   8.071   9.684   2.440
30932SOL    HW194693   8.145   9.743   2.456
30932SOL    HW294694   8.055   9.691   2.346
30933SOL     OW94695  10.115   6.190  10.216
30933SOL    HW194696  10.092   6.152  10.300
30933SOL    HW294697  10.111   6.117  10.154
30934SOL     OW94698   3.999   5.338   2.713
30934SOL    HW194699   3.979   5.355   2.805
30934SOL    HW294700   4.093   5.317   2.713
30935SOL     OW94701   4.404  14.443  12.663
30935SOL    HW194702   4.328  14.394  12.630
30935SOL    HW294703   4.366  14.523  12.700
30936SOL     OW94704   1.963   9.129  11.870
30936SOL    HW194705   1.899   9.191  11.836
30936SOL    HW294706   1.914   9.048  11.884
30937SOL     OW94707   6.239   1.251   6.979
30937SOL    HW194708   6.157   1.203   6.973
30937SOL    HW294709   6.222   1.335   6.936
30938SOL     OW94710   0.992   4.512   2.852
30938SOL    HW194711   1.044   4.432   2.843
30938SOL    HW294712   0.961   4.531   2.763
30939SOL     OW94713   2.914   5.568  14.836
30939SOL    HW194714   2.854   5.621   0.013
30939SOL    HW294715   2.997   5.616  14.838
30940SOL     OW94716   7.315   2.847  14.834
30940SOL    HW194717   7.404   2.877  14.812
30940SOL    HW294718   7.288   2.904   0.031
30941SOL     OW94719   9.313   9.569   8.049
30941SOL    HW194720   9.282   9.479   8.034
30941SOL    HW294721   9.331   9.573   8.142
30942SOL     OW94722   2.754  11.730   1.692
30942SOL    HW194723   2.800  11.735   1.775
30942SOL    HW294724   2.665  11.760   1.712
30943SOL     OW94725   7.538   6.521   1.985
30943SOL    HW194726   7.463   6.578   2.003
30943SOL    HW294727   7.537   6.456   2.056
30944SOL     OW94728   0.092   2.149   2.395
30944SOL    HW194729   0.149   2.123   2.322
30944SOL    HW294730   0.066   2.067   2.436
30945SOL     OW94731   1.670  10.522   9.624
30945SOL    HW194732   1.689  10.445   9.570
30945SOL    HW294733   1.596  10.564   9.581
30946SOL     OW94734   5.637   3.949   5.200
30946SOL    HW194735   5.707   3.973   5.140
30946SOL    HW294736   5.674   3.962   5.287
30947SOL     OW94737   6.281   0.673  10.912
30947SOL    HW194738   6.199   0.708  10.878
30947SOL    HW294739   6.322   0.748  10.955
30948SOL     OW94740   2.880   5.016   4.341
30948SOL    HW194741   2.853   4.925   4.325
30948SOL    HW294742   2.799   5.060   4.367
30949SOL     OW94743   6.304  12.476   2.434
30949SOL    HW194744   6.316  12.441   2.346
30949SOL    HW294745   6.389  12.464   2.477
30950SOL     OW94746  10.944   6.280   9.404
30950SOL    HW194747  10.885   6.320   9.468
30950SOL    HW294748  10.903   6.196   9.383
30951SOL     OW94749   5.452   8.743   4.477
30951SOL    HW194750   5.498   8.826   4.488
30951SOL    HW294751   5.360   8.767   4.470
30952SOL     OW94752   2.263  14.195  14.679
30952SOL    HW194753   2.280  14.274  14.730
30952SOL    HW294754   2.284  14.220  14.589
30953SOL     OW94755   5.061   3.474  11.428
30953SOL    HW194756   5.075   3.435  11.514
30953SOL    HW294757   5.099   3.411  11.366
30954SOL     OW94758   8.390  13.321   4.892
30954SOL    HW194759   8.357  13.251   4.836
30954SOL    HW294760   8.418  13.277   4.972
30955SOL     OW94761   9.283   5.491   8.367
30955SOL    HW194762   9.353   5.544   8.328
30955SOL    HW294763   9.205   5.547   8.363
30956SOL     OW94764   8.751   6.839   1.871
30956SOL    HW194765   8.742   6.894   1.792
30956SOL    HW294766   8.678   6.866   1.927
30957SOL     OW94767   9.376   5.738   4.783
30957SOL    HW194768   9.291   5.774   4.759
30957SOL    HW294769   9.355   5.661   4.837
30958SOL     OW94770   6.610   7.612   4.243
30958SOL    HW194771   6.677   7.610   4.312
30958SOL    HW294772   6.656   7.647   4.166
30959SOL     OW94773   3.132   2.824  10.593
30959SOL    HW194774   3.071   2.850  10.524
30959SOL    HW294775   3.218   2.824  10.551
30960SOL     OW94776  12.135  10.280  10.129
30960SOL    HW194777  12.205  10.254  10.068
30960SOL    HW294778  12.179  10.328  10.198
30961SOL     OW94779  14.348   7.686   0.417
30961SOL    HW194780  14.407   7.674   0.342
30961SOL    HW294781  14.315   7.599   0.436
30962SOL     OW94782  12.507  10.370   7.611
30962SOL    HW194783  12.459  10.293   7.582
30962SOL    HW294784  12.597  10.355   7.582
30963SOL     OW94785  13.462   4.273   2.219
30963SOL    HW194786  13.463   4.181   2.191
30963SOL    HW294787  13.554   4.296   2.228
30964SOL     OW94788  14.463   1.818   9.370
30964SOL    HW194789  14.501   1.882   9.310
30964SOL    HW294790  14.479   1.733   9.329
30965SOL     OW94791   9.602   7.918   8.085
30965SOL    HW194792   9.561   7.934   8.170
30965SOL    HW294793   9.535   7.872   8.034
30966SOL     OW94794   2.850   0.307   9.502
30966SOL    HW194795   2.860   0.294   9.408
30966SOL    HW294796   2.756   0.318   9.516
30967SOL     OW94797  12.292   4.898  12.168
30967SOL    HW194798  12.217   4.946  12.132
30967SOL    HW294799  12.254   4.822  12.211
30968SOL     OW94800  13.452   0.049   7.792
30968SOL    HW194801  13.499   0.017   7.715
30968SOL    HW294802  13.430   0.139   7.770
30969SOL     OW94803   4.425   5.026  10.156
30969SOL    HW194804   4.407   4.984  10.071
30969SOL    HW294805   4.511   4.995  10.181
30970SOL     OW94806  11.704   8.918  12.242
30970SOL    HW194807  11.791   8.908  12.281
30970SOL    HW294808  11.654   8.966  12.309
30971SOL     OW94809   7.460   5.459  14.568
30971SOL    HW194810   7.384   5.462  14.626
30971SOL    HW294811   7.533   5.490  14.623
30972SOL     OW94812   0.250   7.197   3.137
30972SOL    HW194813   0.165   7.229   3.105
30972SOL    HW294814   0.277   7.262   3.202
30973SOL     OW94815   1.756   6.976  12.866
30973SOL    HW194816   1.722   6.981  12.956
30973SOL    HW294817   1.728   6.890  12.835
30974SOL     OW94818   1.876   9.449  11.366
30974SOL    HW194819   1.897   9.414  11.280
30974SOL    HW294820   1.833   9.377  11.412
30975SOL     OW94821  14.731   0.280   2.222
30975SOL    HW194822  14.784   0.297   2.144
30975SOL    HW294823  14.694   0.193   2.208
30976SOL     OW94824   5.755  12.522   1.674
30976SOL    HW194825   5.786  12.613   1.667
30976SOL    HW294826   5.730  12.512   1.766
30977SOL     OW94827   9.223   6.439  13.186
30977SOL    HW194828   9.272   6.358  13.173
30977SOL    HW294829   9.205   6.441  13.280
30978SOL     OW94830   9.226  11.855   9.350
30978SOL    HW194831   9.165  11.873   9.278
30978SOL    HW294832   9.304  11.818   9.307
30979SOL     OW94833   5.542   1.800   3.450
30979SOL    HW194834   5.572   1.762   3.367
30979SOL    HW294835   5.461   1.752   3.470
30980SOL     OW94836  11.733   0.033   9.564
30980SOL    HW194837  11.775   0.094   9.624
30980SOL    HW294838  11.783   0.040   9.483
30981SOL     OW94839   3.749  12.179  13.870
30981SOL    HW194840   3.770  12.177  13.963
30981SOL    HW294841   3.664  12.135  13.863
30982SOL     OW94842   8.224   3.803   3.090
30982SOL    HW194843   8.315   3.777   3.072
30982SOL    HW294844   8.171   3.729   3.062
30983SOL     OW94845  11.343  13.718   8.204
30983SOL    HW194846  11.355  13.758   8.118
30983SOL    HW294847  11.249  13.698   8.208
30984SOL     OW94848  12.183   0.255   3.153
30984SOL    HW194849  12.107   0.269   3.211
30984SOL    HW294850  12.231   0.183   3.194
30985SOL     OW94851   6.157   6.365  12.883
30985SOL    HW194852   6.136   6.272  12.873
30985SOL    HW294853   6.253   6.367  12.892
30986SOL     OW94854   9.165  12.110   0.767
30986SOL    HW194855   9.168  12.192   0.817
30986SOL    HW294856   9.233  12.055   0.807
30987SOL     OW94857  14.535   5.128   0.988
30987SOL    HW194858  14.502   5.159   0.904
30987SOL    HW294859  14.536   5.206   1.043
30988SOL     OW94860   1.672   9.625  11.347
30988SOL    HW194861   1.759   9.585  11.349
30988SOL    HW294862   1.638   9.613  11.435
30989SOL     OW94863   4.961   7.816   6.131
30989SOL    HW194864   4.983   7.729   6.165
30989SOL    HW294865   5.009   7.822   6.049
30990SOL     OW94866   9.160   1.398   1.218
30990SOL    HW194867   9.194   1.471   1.271
30990SOL    HW294868   9.071   1.385   1.250
30991SOL     OW94869   2.082  12.541   4.828
30991SOL    HW194870   2.116  12.464   4.782
30991SOL    HW294871   2.027  12.505   4.897
30992SOL     OW94872   6.737   4.823   5.517
30992SOL    HW194873   6.712   4.750   5.461
30992SOL    HW294874   6.662   4.883   5.513
30993SOL     OW94875   6.968   0.141  11.938
30993SOL    HW194876   7.019   0.151  12.019
30993SOL    HW294877   6.968   0.228  11.899
30994SOL     OW94878   7.337   4.055   7.702
30994SOL    HW194879   7.431   4.040   7.687
30994SOL    HW294880   7.334   4.132   7.759
30995SOL     OW94881  11.683  11.740   7.201
30995SOL    HW194882  11.616  11.773   7.261
30995SOL    HW294883  11.725  11.669   7.249
30996SOL     OW94884  13.847  12.055   0.921
30996SOL    HW194885  13.798  12.114   0.864
30996SOL    HW294886  13.829  12.087   1.010
30997SOL     OW94887  10.121  14.030   1.216
30997SOL    HW194888  10.175  13.977   1.274
30997SOL    HW294889  10.128  13.988   1.131
30998SOL     OW94890  14.515   8.358   0.934
30998SOL    HW194891  14.527   8.378   0.841
30998SOL    HW294892  14.422   8.337   0.942
30999SOL     OW94893   9.149   1.331   1.654
30999SOL    HW194894   9.083   1.373   1.598
30999SOL    HW294895   9.182   1.257   1.601
31000SOL     OW94896  11.209   1.784   7.145
31000SOL    HW194897  11.220   1.693   7.118
31000SOL    HW294898  11.247   1.835   7.074
31001SOL     OW94899   6.460   4.278   8.595
31001SOL    HW194900   6.540   4.325   8.619
31001SOL    HW294901   6.483   4.231   8.515
31002SOL     OW94902  10.681   8.413   5.429
31002SOL    HW194903  10.759   8.467   5.445
31002SOL    HW294904  10.665   8.370   5.513
31003SOL     OW94905   9.014  10.130   2.968
31003SOL    HW194906   8.969  10.210   2.995
31003SOL    HW294907   8.956  10.090   2.903
31004SOL     OW94908   3.712   8.703   2.446
31004SOL    HW194909   3.692   8.757   2.370
31004SOL    HW294910   3.646   8.633   2.444
31005SOL     OW94911   9.737   3.424  11.652
31005SOL    HW194912   9.677   3.497  11.671
31005SOL    HW294913   9.732   3.368  11.729
31006SOL     OW94914  12.434   3.045  12.316
31006SOL    HW194915  12.366   3.073  12.255
31006SOL    HW294916  12.415   3.092  12.397
31007SOL     OW94917   7.724   1.125  10.489
31007SOL    HW194918   7.772   1.197  10.529
31007SOL    HW294919   7.632   1.153  10.492
31008SOL     OW94920   8.634   0.754   7.802
31008SOL    HW194921   8.606   0.832   7.850
31008SOL    HW294922   8.721   0.734   7.838
31009SOL     OW94923   5.362   6.143   1.090
31009SOL    HW194924   5.378   6.048   1.093
31009SOL    HW294925   5.449   6.182   1.093
31010SOL     OW94926   5.200   5.843  11.203
31010SOL    HW194927   5.242   5.809  11.281
31010SOL    HW294928   5.268   5.895  11.160
31011SOL     OW94929   0.815  10.129   1.607
31011SOL    HW194930   0.761  10.050   1.619
31011SOL    HW294931   0.892  10.113   1.661
31012SOL     OW94932   4.038   8.145  12.463
31012SOL    HW194933   4.068   8.218  12.410
31012SOL    HW294934   4.062   8.168  12.553
31013SOL     OW94935  14.827   3.756  13.702
31013SOL    HW194936  14.770   3.817  13.748
31013SOL    HW294937   0.037   3.767  13.743
31014SOL     OW94938   3.549   8.844   5.860
31014SOL    HW194939   3.585   8.896   5.932
31014SOL    HW294940   3.573   8.754   5.883
31015SOL     OW94941   3.993  12.911   9.885
31015SOL    HW194942   3.977  12.960   9.966
31015SOL    HW294943   3.929  12.946   9.823
31016SOL     OW94944   2.382  13.606   1.925
31016SOL    HW194945   2.408  13.644   2.009
31016SOL    HW294946   2.440  13.647   1.861
31017SOL     OW94947  11.298   9.201   0.185
31017SOL    HW194948  11.216   9.250   0.182
31017SOL    HW294949  11.355   9.246   0.122
31018SOL     OW94950   0.650   2.705  12.706
31018SOL    HW194951   0.743   2.709  12.681
31018SOL    HW294952   0.652   2.681  12.799
31019SOL     OW94953   1.317   7.671   6.763
31019SOL    HW194954   1.343   7.652   6.853
31019SOL    HW294955   1.355   7.601   6.710
31020SOL     OW94956   2.281   4.913   0.617
31020SOL    HW194957   2.358   4.965   0.639
31020SOL    HW294958   2.214   4.978   0.594
31021SOL     OW94959   1.965  10.364  10.470
31021SOL    HW194960   1.978  10.282  10.422
31021SOL    HW294961   1.961  10.337  10.562
31022SOL     OW94962   9.999   5.581  11.404
31022SOL    HW194963   9.961   5.667  11.384
31022SOL    HW294964  10.094   5.595  11.396
31023SOL     OW94965   0.867  11.432  12.155
31023SOL    HW194966   0.843  11.524  12.171
31023SOL    HW294967   0.821  11.409  12.074
31024SOL     OW94968  13.619  10.665   4.834
31024SOL    HW194969  13.680  10.593   4.816
31024SOL    HW294970  13.533  10.630   4.814
31025SOL     OW94971  11.939   5.239  10.946
31025SOL    HW194972  11.986   5.321  10.962
31025SOL    HW294973  11.916   5.242  10.853
31026SOL     OW94974  11.797   9.975   7.116
31026SOL    HW194975  11.798   9.929   7.200
31026SOL    HW294976  11.752   9.916   7.057
31027SOL     OW94977   4.312  10.948  14.781
31027SOL    HW194978   4.379  10.975  14.718
31027SOL    HW294979   4.326  11.003  14.857
31028SOL     OW94980   4.950   8.309  14.033
31028SOL    HW194981   5.025   8.284  14.087
31028SOL    HW294982   4.987   8.325  13.946
31029SOL     OW94983  12.548   3.986   2.298
31029SOL    HW194984  12.563   3.902   2.255
31029SOL    HW294985  12.610   4.046   2.256
31030SOL     OW94986   4.598   0.017   9.504
31030SOL    HW194987   4.617   0.110   9.492
31030SOL    HW294988   4.513   0.004   9.463
31031SOL     OW94989  12.465   8.248   4.922
31031SOL    HW194990  12.479   8.174   4.981
31031SOL    HW294991  12.373   8.273   4.936
31032SOL     OW94992  14.382   1.310  12.919
31032SOL    HW194993  14.292   1.338  12.939
31032SOL    HW294994  14.425   1.389  12.887
31033SOL     OW94995  10.170  10.828   9.271
31033SOL    HW194996  10.141  10.868   9.353
31033SOL    HW294997  10.115  10.751   9.261
31034SOL     OW94998  10.378   9.884   8.421
31034SOL    HW194999  10.428   9.874   8.502
31034SOL    HW295000  10.306   9.822   8.430
31035SOL     OW95001   0.492   9.616   2.912
31035SOL    HW195002   0.503   9.710   2.930
31035SOL    HW295003   0.559   9.574   2.967
31036SOL     OW95004  13.235   9.861  13.162
31036SOL    HW195005  13.305   9.907  13.208
31036SOL    HW295006  13.245   9.770  13.188
31037SOL     OW95007  13.153   1.439   8.356
31037SOL    HW195008  13.177   1.373   8.420
31037SOL    HW295009  13.203   1.517   8.381
31038SOL     OW95010  10.907   8.814   7.289
31038SOL    HW195011  10.846   8.851   7.353
31038SOL    HW295012  10.973   8.768   7.341
31039SOL     OW95013  10.629   9.158   4.961
31039SOL    HW195014  10.667   9.176   4.874
31039SOL    HW295015  10.655   9.068   4.981
31040SOL     OW95016  12.086  11.411   9.771
31040SOL    HW195017  12.003  11.444   9.807
31040SOL    HW295018  12.152  11.439   9.834
31041SOL     OW95019   1.874   8.369   8.665
31041SOL    HW195020   1.878   8.459   8.696
31041SOL    HW295021   1.793   8.334   8.703
31042SOL     OW95022  10.567   3.006  12.056
31042SOL    HW195023  10.639   2.997  11.994
31042SOL    HW295024  10.489   2.977  12.008
31043SOL     OW95025  11.030   7.620  10.922
31043SOL    HW195026  10.954   7.677  10.911
31043SOL    HW295027  11.013   7.545  10.864
31044SOL     OW95028   0.873   7.402  11.846
31044SOL    HW195029   0.969   7.401  11.847
31044SOL    HW295030   0.850   7.491  11.820
31045SOL     OW95031   6.719   4.328  12.380
31045SOL    HW195032   6.632   4.310  12.344
31045SOL    HW295033   6.755   4.397  12.324
31046SOL     OW95034  12.100   3.252  11.076
31046SOL    HW195035  12.089   3.342  11.044
31046SOL    HW295036  12.193   3.244  11.095
31047SOL     OW95037  13.109   1.813   6.085
31047SOL    HW195038  13.156   1.870   6.146
31047SOL    HW295039  13.020   1.848   6.083
31048SOL     OW95040   7.610   7.506   1.691
31048SOL    HW195041   7.643   7.435   1.746
31048SOL    HW295042   7.516   7.508   1.708
31049SOL     OW95043  13.898   9.148  12.938
31049SOL    HW195044  13.907   9.210  13.010
31049SOL    HW295045  13.858   9.198  12.867
31050SOL     OW95046   1.651   0.453  10.770
31050SOL    HW195047   1.659   0.529  10.827
31050SOL    HW295048   1.576   0.472  10.714
31051SOL     OW95049   5.253   6.304   1.842
31051SOL    HW195050   5.340   6.343   1.840
31051SOL    HW295051   5.254   6.240   1.770
31052SOL     OW95052   4.245   8.133   6.845
31052SOL    HW195053   4.256   8.224   6.818
31052SOL    HW295054   4.216   8.087   6.766
31053SOL     OW95055   4.354   6.808   6.903
31053SOL    HW195056   4.260   6.806   6.919
31053SOL    HW295057   4.363   6.835   6.812
31054SOL     OW95058   3.681  10.130  10.044
31054SOL    HW195059   3.753  10.186  10.072
31054SOL    HW295060   3.612  10.191  10.016
31055SOL     OW95061  10.279   8.936   4.452
31055SOL    HW195062  10.296   8.878   4.378
31055SOL    HW295063  10.257   8.877   4.524
31056SOL     OW95064   7.795   5.540   3.812
31056SOL    HW195065   7.858   5.541   3.883
31056SOL    HW295066   7.750   5.625   3.818
31057SOL     OW95067   6.878  13.966   0.634
31057SOL    HW195068   6.869  13.871   0.636
31057SOL    HW295069   6.917  13.986   0.549
31058SOL     OW95070   2.479  11.343   7.174
31058SOL    HW195071   2.409  11.403   7.148
31058SOL    HW295072   2.439  11.256   7.169
31059SOL     OW95073   4.089   7.713   6.048
31059SOL    HW195074   3.997   7.718   6.019
31059SOL    HW295075   4.090   7.759   6.132
31060SOL     OW95076  13.902  10.910   6.009
31060SOL    HW195077  13.943  10.896   6.094
31060SOL    HW295078  13.968  10.880   5.946
31061SOL     OW95079   9.826   0.926   7.275
31061SOL    HW195080   9.803   0.970   7.193
31061SOL    HW295081   9.830   0.833   7.252
31062SOL     OW95082  14.345   6.331  13.079
31062SOL    HW195083  14.385   6.269  13.139
31062SOL    HW295084  14.263   6.357  13.121
31063SOL     OW95085   5.948   6.007  11.055
31063SOL    HW195086   5.887   5.937  11.033
31063SOL    HW295087   5.980   6.040  10.971
31064SOL     OW95088   1.187  10.027   8.516
31064SOL    HW195089   1.228  10.097   8.466
31064SOL    HW295090   1.094  10.032   8.493
31065SOL     OW95091  14.499   4.972  13.600
31065SOL    HW195092  14.510   4.922  13.682
31065SOL    HW295093  14.415   4.943  13.566
31066SOL     OW95094  12.809   1.333  12.103
31066SOL    HW195095  12.750   1.267  12.066
31066SOL    HW295096  12.833   1.387  12.028
31067SOL     OW95097   4.508   2.293  12.702
31067SOL    HW195098   4.425   2.249  12.684
31067SOL    HW295099   4.535   2.260  12.788
31068SOL     OW95100   9.479   9.732  13.069
31068SOL    HW195101   9.516   9.763  12.986
31068SOL    HW295102   9.385   9.752  13.061
31069SOL     OW95103  11.687   7.546   8.368
31069SOL    HW195104  11.756   7.520   8.306
31069SOL    HW295105  11.636   7.467   8.381
31070SOL     OW95106   9.835  11.266   0.504
31070SOL    HW195107   9.777  11.287   0.577
31070SOL    HW295108   9.809  11.327   0.435
31071SOL     OW95109   1.329  10.394   2.039
31071SOL    HW195110   1.371  10.435   2.114
31071SOL    HW295111   1.316  10.467   1.977
31072SOL     OW95112  13.557   8.188   6.340
31072SOL    HW195113  13.584   8.233   6.420
31072SOL    HW295114  13.531   8.101   6.370
31073SOL     OW95115   0.030  12.338   2.497
31073SOL    HW195116   0.095  12.344   2.567
31073SOL    HW295117  14.825  12.374   2.535
31074SOL     OW95118   2.185   6.008   0.205
31074SOL    HW195119   2.156   6.099   0.219
31074SOL    HW295120   2.202   5.975   0.294
31075SOL     OW95121  11.504   4.487   9.744
31075SOL    HW195122  11.507   4.451   9.833
31075SOL    HW295123  11.419   4.531   9.738
31076SOL     OW95124   5.453  13.791   9.742
31076SOL    HW195125   5.548  13.790   9.757
31076SOL    HW295126   5.419  13.853   9.807
31077SOL     OW95127   3.659   5.368   2.268
31077SOL    HW195128   3.638   5.276   2.253
31077SOL    HW295129   3.606   5.416   2.204
31078SOL     OW95130  12.186   7.193  12.282
31078SOL    HW195131  12.128   7.226  12.214
31078SOL    HW295132  12.253   7.260  12.292
31079SOL     OW95133   0.939   7.669  10.235
31079SOL    HW195134   0.974   7.748  10.192
31079SOL    HW295135   0.873   7.703  10.296
31080SOL     OW95136  13.933  12.783   3.420
31080SOL    HW195137  13.959  12.790   3.512
31080SOL    HW295138  13.911  12.872   3.394
31081SOL     OW95139   6.567   1.751   6.125
31081SOL    HW195140   6.500   1.735   6.060
31081SOL    HW295141   6.523   1.801   6.194
31082SOL     OW95142  13.432  10.100   6.145
31082SOL    HW195143  13.455  10.011   6.174
31082SOL    HW295144  13.360  10.087   6.084
31083SOL     OW95145   2.745   1.041   4.506
31083SOL    HW195146   2.710   1.019   4.420
31083SOL    HW295147   2.836   1.065   4.490
31084SOL     OW95148   3.312   9.651  14.049
31084SOL    HW195149   3.304   9.562  14.083
31084SOL    HW295150   3.395   9.683  14.086
31085SOL     OW95151  14.220   6.806   2.995
31085SOL    HW195152  14.172   6.888   2.984
31085SOL    HW295153  14.287   6.808   2.927
31086SOL     OW95154   9.690  12.863   9.804
31086SOL    HW195155   9.647  12.811   9.736
31086SOL    HW295156   9.725  12.798   9.865
31087SOL     OW95157   9.562  12.220   1.038
31087SOL    HW195158   9.513  12.268   1.105
31087SOL    HW295159   9.592  12.141   1.083
31088SOL     OW95160   2.146   5.346   5.078
31088SOL    HW195161   2.188   5.264   5.104
31088SOL    HW295162   2.112   5.328   4.991
31089SOL     OW95163   6.866  11.874   3.227
31089SOL    HW195164   6.924  11.799   3.225
31089SOL    HW295165   6.826  11.871   3.314
31090SOL     OW95166   0.847   6.611   3.934
31090SOL    HW195167   0.932   6.580   3.904
31090SOL    HW295168   0.814   6.666   3.864
31091SOL     OW95169  12.595  10.163  10.448
31091SOL    HW195170  12.586  10.174  10.543
31091SOL    HW295171  12.630  10.075  10.437
31092SOL     OW95172   4.479  12.574   9.435
31092SOL    HW195173   4.572  12.574   9.412
31092SOL    HW295174   4.464  12.660   9.475
31093SOL     OW95175   3.610   4.721   8.422
31093SOL    HW195176   3.677   4.668   8.465
31093SOL    HW295177   3.640   4.728   8.331
31094SOL     OW95178  14.357  11.566   1.056
31094SOL    HW195179  14.359  11.660   1.043
31094SOL    HW295180  14.343  11.555   1.150
31095SOL     OW95181  10.959   2.257   5.865
31095SOL    HW195182  11.054   2.240   5.862
31095SOL    HW295183  10.942   2.310   5.787
31096SOL     OW95184   8.945  10.194   0.932
31096SOL    HW195185   8.911  10.143   0.858
31096SOL    HW295186   8.926  10.285   0.909
31097SOL     OW95187   0.537   5.993   3.337
31097SOL    HW195188   0.466   5.934   3.309
31097SOL    HW295189   0.544   5.978   3.431
31098SOL     OW95190   6.802   9.376   1.674
31098SOL    HW195191   6.794   9.451   1.615
31098SOL    HW295192   6.741   9.395   1.744
31099SOL     OW95193  13.460  13.119   5.520
31099SOL    HW195194  13.540  13.170   5.533
31099SOL    HW295195  13.393  13.185   5.499
31100SOL     OW95196  11.919  11.779  14.754
31100SOL    HW195197  11.994  11.817  14.799
31100SOL    HW295198  11.917  11.688  14.782
31101SOL     OW95199   9.742  12.140  13.935
31101SOL    HW195200   9.727  12.229  13.903
31101SOL    HW295201   9.787  12.152  14.019
31102SOL     OW95202  10.783   9.084  12.566
31102SOL    HW195203  10.689   9.101  12.557
31102SOL    HW295204  10.790   9.030  12.645
31103SOL     OW95205   6.465   2.311   5.188
31103SOL    HW195206   6.481   2.378   5.121
31103SOL    HW295207   6.552   2.289   5.222
31104SOL     OW95208   7.259  10.364  10.760
31104SOL    HW195209   7.289  10.337  10.847
31104SOL    HW295210   7.219  10.286  10.722
31105SOL     OW95211  12.136  10.554   0.165
31105SOL    HW195212  12.095  10.628   0.119
31105SOL    HW295213  12.186  10.594   0.236
31106SOL     OW95214   0.542   8.387  10.123
31106SOL    HW195215   0.595   8.465  10.102
31106SOL    HW295216   0.607   8.319  10.142
31107SOL     OW95217   9.513   7.069   7.646
31107SOL    HW195218   9.528   7.062   7.551
31107SOL    HW295219   9.433   7.018   7.661
31108SOL     OW95220  11.663   4.400   1.873
31108SOL    HW195221  11.607   4.460   1.824
31108SOL    HW295222  11.674   4.443   1.958
31109SOL     OW95223   9.484   0.340   4.164
31109SOL    HW195224   9.453   0.364   4.077
31109SOL    HW295225   9.574   0.310   4.150
31110SOL     OW95226  10.015   8.087  14.681
31110SOL    HW195227   9.974   8.136  14.609
31110SOL    HW295228  10.058   8.013  14.638
31111SOL     OW95229   9.148  10.816   0.992
31111SOL    HW195230   9.100  10.783   1.068
31111SOL    HW295231   9.154  10.911   1.008
31112SOL     OW95232   6.214  13.361   9.611
31112SOL    HW195233   6.191  13.268   9.608
31112SOL    HW295234   6.150  13.404   9.555
31113SOL     OW95235   5.057  11.490   3.421
31113SOL    HW195236   5.015  11.511   3.505
31113SOL    HW295237   5.036  11.565   3.365
31114SOL     OW95238  14.248  14.818   4.288
31114SOL    HW195239  14.340  14.791   4.293
31114SOL    HW295240  14.223  14.835   4.379
31115SOL     OW95241  11.489   7.489   4.587
31115SOL    HW195242  11.462   7.407   4.628
31115SOL    HW295243  11.418   7.510   4.526
31116SOL     OW95244   3.045   4.893   8.191
31116SOL    HW195245   3.102   4.825   8.156
31116SOL    HW295246   3.023   4.862   8.279
31117SOL     OW95247   3.818   3.874   9.507
31117SOL    HW195248   3.826   3.956   9.556
31117SOL    HW295249   3.746   3.828   9.550
31118SOL     OW95250   8.752   0.914   9.073
31118SOL    HW195251   8.674   0.966   9.095
31118SOL    HW295252   8.813   0.932   9.145
31119SOL     OW95253   4.258   9.502   3.453
31119SOL    HW195254   4.254   9.596   3.470
31119SOL    HW295255   4.182   9.467   3.498
31120SOL     OW95256  12.476   4.214   5.896
31120SOL    HW195257  12.519   4.146   5.843
31120SOL    HW295258  12.423   4.263   5.833
31121SOL     OW95259   9.408  12.547   9.256
31121SOL    HW195260   9.487  12.585   9.294
31121SOL    HW295261   9.426  12.543   9.162
31122SOL     OW95262   4.512   8.449  12.410
31122SOL    HW195263   4.601   8.416  12.425
31122SOL    HW295264   4.524   8.536  12.373
31123SOL     OW95265   9.091   4.971   1.125
31123SOL    HW195266   9.129   4.884   1.113
31123SOL    HW295267   9.126   5.002   1.208
31124SOL     OW95268  13.199   7.473  13.843
31124SOL    HW195269  13.226   7.563  13.863
31124SOL    HW295270  13.222   7.462  13.750
31125SOL     OW95271   5.761   4.303   5.009
31125SOL    HW195272   5.834   4.261   4.964
31125SOL    HW295273   5.755   4.258   5.093
31126SOL     OW95274   2.701   7.551   1.841
31126SOL    HW195275   2.790   7.542   1.809
31126SOL    HW295276   2.664   7.625   1.792
31127SOL     OW95277   9.661  13.194   4.179
31127SOL    HW195278   9.704  13.110   4.195
31127SOL    HW295279   9.644  13.195   4.085
31128SOL     OW95280   9.925   2.065  12.769
31128SOL    HW195281   9.868   2.051  12.693
31128SOL    HW295282   9.880   2.130  12.822
31129SOL     OW95283  11.510   3.047   9.979
31129SOL    HW195284  11.540   2.995  10.053
31129SOL    HW295285  11.489   3.133  10.016
31130SOL     OW95286  12.344   8.471   7.070
31130SOL    HW195287  12.323   8.514   6.988
31130SOL    HW295288  12.438   8.482   7.080
31131SOL     OW95289   9.669  13.514   7.283
31131SOL    HW195290   9.625  13.463   7.351
31131SOL    HW295291   9.656  13.605   7.309
31132SOL     OW95292   4.155  10.061   5.350
31132SOL    HW195293   4.086  10.124   5.332
31132SOL    HW295294   4.117   9.976   5.326
31133SOL     OW95295   9.319  13.817  10.740
31133SOL    HW195296   9.301  13.727  10.767
31133SOL    HW295297   9.301  13.870  10.819
31134SOL     OW95298   0.308  11.599  13.430
31134SOL    HW195299   0.330  11.572  13.519
31134SOL    HW295300   0.270  11.521  13.390
31135SOL     OW95301  12.343   2.737   8.354
31135SOL    HW195302  12.381   2.819   8.384
31135SOL    HW295303  12.409   2.701   8.295
31136SOL     OW95304   8.970   7.146   7.523
31136SOL    HW195305   8.884   7.136   7.564
31136SOL    HW295306   8.950   7.153   7.429
31137SOL     OW95307   9.166   4.675   5.117
31137SOL    HW195308   9.076   4.661   5.087
31137SOL    HW295309   9.196   4.750   5.065
31138SOL     OW95310   2.266   2.745   3.000
31138SOL    HW195311   2.335   2.680   3.012
31138SOL    HW295312   2.192   2.710   3.049
31139SOL     OW95313   9.109   6.827   3.335
31139SOL    HW195314   9.115   6.738   3.301
31139SOL    HW295315   9.016   6.838   3.356
31140SOL     OW95316   2.911   5.179   5.483
31140SOL    HW195317   2.964   5.141   5.413
31140SOL    HW295318   2.916   5.274   5.467
31141SOL     OW95319   4.275   3.951   9.671
31141SOL    HW195320   4.229   4.006   9.734
31141SOL    HW295321   4.213   3.882   9.650
31142SOL     OW95322  14.724   5.269   6.446
31142SOL    HW195323  14.816   5.274   6.421
31142SOL    HW295324  14.684   5.347   6.407
31143SOL     OW95325   4.363   2.358   1.855
31143SOL    HW195326   4.326   2.386   1.772
31143SOL    HW295327   4.457   2.351   1.838
31144SOL     OW95328   8.398   2.332   7.430
31144SOL    HW195329   8.446   2.287   7.499
31144SOL    HW295330   8.395   2.269   7.358
31145SOL     OW95331   8.970   9.542   1.620
31145SOL    HW195332   8.882   9.512   1.597
31145SOL    HW295333   9.013   9.557   1.537
31146SOL     OW95334   8.312   1.851   3.895
31146SOL    HW195335   8.267   1.803   3.964
31146SOL    HW295336   8.398   1.811   3.890
31147SOL     OW95337   7.059  13.516   8.659
31147SOL    HW195338   6.964  13.513   8.665
31147SOL    HW295339   7.080  13.478   8.574
31148SOL     OW95340   5.274  13.290   3.383
31148SOL    HW195341   5.269  13.372   3.432
31148SOL    HW295342   5.304  13.226   3.447
31149SOL     OW95343   3.748   8.082  11.876
31149SOL    HW195344   3.685   8.108  11.943
31149SOL    HW295345   3.832   8.112  11.910
31150SOL     OW95346  14.249   0.674  14.831
31150SOL    HW195347  14.217   0.764  14.828
31150SOL    HW295348  14.333   0.679   0.001
31151SOL     OW95349  13.521   0.461   4.855
31151SOL    HW195350  13.490   0.537   4.806
31151SOL    HW295351  13.440   0.417   4.883
31152SOL     OW95352   8.460   0.288  12.786
31152SOL    HW195353   8.373   0.319  12.812
31152SOL    HW295354   8.520   0.356  12.815
31153SOL     OW95355   4.650   6.003   7.359
31153SOL    HW195356   4.650   6.069   7.427
31153SOL    HW295357   4.592   5.934   7.393
31154SOL     OW95358  10.422  10.550   0.441
31154SOL    HW195359  10.448  10.630   0.486
31154SOL    HW295360  10.385  10.580   0.357
31155SOL     OW95361  12.392  12.999   2.689
31155SOL    HW195362  12.380  12.905   2.673
31155SOL    HW295363  12.485  13.014   2.671
31156SOL     OW95364   3.618  14.523   1.924
31156SOL    HW195365   3.545  14.509   1.864
31156SOL    HW295366   3.689  14.469   1.889
31157SOL     OW95367   7.433  14.183  12.234
31157SOL    HW195368   7.409  14.091  12.239
31157SOL    HW295369   7.523  14.183  12.202
31158SOL     OW95370   5.764  12.595  10.573
31158SOL    HW195371   5.850  12.611  10.613
31158SOL    HW295372   5.751  12.501  10.581
31159SOL     OW95373   1.013   2.679  11.572
31159SOL    HW195374   0.954   2.604  11.572
31159SOL    HW295375   1.081   2.657  11.636
31160SOL     OW95376   2.130   8.312   1.956
31160SOL    HW195377   2.055   8.274   1.911
31160SOL    HW295378   2.097   8.392   1.995
31161SOL     OW95379   5.358   4.599   7.388
31161SOL    HW195380   5.384   4.652   7.464
31161SOL    HW295381   5.263   4.595   7.393
31162SOL     OW95382   6.928   8.456  12.937
31162SOL    HW195383   6.978   8.472  12.857
31162SOL    HW295384   6.946   8.365  12.958
31163SOL     OW95385   3.865   5.763   7.004
31163SOL    HW195386   3.795   5.759   6.939
31163SOL    HW295387   3.907   5.677   6.999
31164SOL     OW95388   6.938   5.121   2.886
31164SOL    HW195389   6.939   5.124   2.982
31164SOL    HW295390   7.016   5.169   2.860
31165SOL     OW95391   1.289   6.702   1.751
31165SOL    HW195392   1.322   6.615   1.728
31165SOL    HW295393   1.201   6.686   1.785
31166SOL     OW95394   5.311  12.788  12.608
31166SOL    HW195395   5.329  12.719  12.544
31166SOL    HW295396   5.275  12.742  12.684
31167SOL     OW95397   8.574   4.051   7.538
31167SOL    HW195398   8.562   4.047   7.443
31167SOL    HW295399   8.618   4.135   7.552
31168SOL     OW95400  10.831  14.852  11.690
31168SOL    HW195401  10.860  14.860  11.599
31168SOL    HW295402  10.850   0.063  11.729
31169SOL     OW95403   5.356   6.737   3.195
31169SOL    HW195404   5.264   6.712   3.185
31169SOL    HW295405   5.360   6.827   3.162
31170SOL     OW95406  14.850  11.796   0.807
31170SOL    HW195407  14.811  11.730   0.750
31170SOL    HW295408  14.779  11.825   0.864
31171SOL     OW95409   3.301   5.012   1.576
31171SOL    HW195410   3.214   5.049   1.588
31171SOL    HW295411   3.303   4.983   1.485
31172SOL     OW95412  11.490   5.864   9.235
31172SOL    HW195413  11.573   5.910   9.249
31172SOL    HW295414  11.486   5.801   9.307
31173SOL     OW95415   4.691  14.165   8.190
31173SOL    HW195416   4.680  14.160   8.095
31173SOL    HW295417   4.622  14.224   8.219
31174SOL     OW95418   1.662  10.246   5.923
31174SOL    HW195419   1.576  10.236   5.965
31174SOL    HW295420   1.723  10.202   5.983
31175SOL     OW95421   5.737   2.150   3.962
31175SOL    HW195422   5.801   2.079   3.959
31175SOL    HW295423   5.741   2.182   4.052
31176SOL     OW95424   6.754   6.480  12.712
31176SOL    HW195425   6.835   6.530  12.702
31176SOL    HW295426   6.782   6.393  12.741
31177SOL     OW95427   6.531  10.217   9.664
31177SOL    HW195428   6.594  10.276   9.624
31177SOL    HW295429   6.526  10.245   9.756
31178SOL     OW95430   4.970  11.298   1.831
31178SOL    HW195431   4.959  11.220   1.775
31178SOL    HW295432   4.892  11.351   1.813
31179SOL     OW95433  10.304  11.241   5.042
31179SOL    HW195434  10.264  11.328   5.048
31179SOL    HW295435  10.231  11.180   5.054
31180SOL     OW95436   6.560  12.243   0.508
31180SOL    HW195437   6.621  12.175   0.478
31180SOL    HW295438   6.475  12.199   0.510
31181SOL     OW95439  12.916   7.447   5.408
31181SOL    HW195440  12.847   7.410   5.465
31181SOL    HW295441  12.947   7.372   5.356
31182SOL     OW95442   5.840  13.486   2.635
31182SOL    HW195443   5.802  13.398   2.645
31182SOL    HW295444   5.932  13.475   2.661
31183SOL     OW95445  10.812   6.475   1.768
31183SOL    HW195446  10.790   6.562   1.800
31183SOL    HW295447  10.831   6.487   1.675
31184SOL     OW95448   7.306   2.706   1.682
31184SOL    HW195449   7.356   2.787   1.676
31184SOL    HW295450   7.338   2.663   1.761
31185SOL     OW95451  14.575   4.520   8.631
31185SOL    HW195452  14.608   4.572   8.557
31185SOL    HW295453  14.639   4.535   8.701
31186SOL     OW95454   4.633   6.828  14.440
31186SOL    HW195455   4.555   6.880  14.418
31186SOL    HW295456   4.636   6.828  14.535
31187SOL     OW95457  10.257   4.890   4.522
31187SOL    HW195458  10.321   4.829   4.484
31187SOL    HW295459  10.220   4.843   4.596
31188SOL     OW95460   5.810  11.687   6.920
31188SOL    HW195461   5.870  11.736   6.976
31188SOL    HW295462   5.807  11.737   6.838
31189SOL     OW95463   2.035   1.043   0.668
31189SOL    HW195464   2.037   0.962   0.719
31189SOL    HW295465   1.942   1.067   0.667
31190SOL     OW95466  14.124   0.334   2.506
31190SOL    HW195467  14.086   0.303   2.589
31190SOL    HW295468  14.151   0.424   2.525
31191SOL     OW95469  11.378   1.517  14.169
31191SOL    HW195470  11.299   1.481  14.127
31191SOL    HW295471  11.433   1.440  14.185
31192SOL     OW95472  13.354  10.065  12.720
31192SOL    HW195473  13.360  10.108  12.805
31192SOL    HW295474  13.388   9.977  12.735
31193SOL     OW95475   5.485   2.469   6.115
31193SOL    HW195476   5.545   2.495   6.186
31193SOL    HW295477   5.409   2.526   6.127
31194SOL     OW95478  10.450  13.668  12.652
31194SOL    HW195479  10.480  13.745  12.605
31194SOL    HW295480  10.499  13.669  12.735
31195SOL     OW95481  12.134   8.885   2.398
31195SOL    HW195482  12.102   8.971   2.370
31195SOL    HW295483  12.109   8.826   2.327
31196SOL     OW95484  12.704   1.464  11.050
31196SOL    HW195485  12.720   1.388  10.994
31196SOL    HW295486  12.681   1.426  11.135
31197SOL     OW95487  12.561   1.628   1.615
31197SOL    HW195488  12.625   1.561   1.593
31197SOL    HW295489  12.498   1.583   1.672
31198SOL     OW95490   2.128   6.246   0.274
31198SOL    HW195491   2.039   6.269   0.248
31198SOL    HW295492   2.132   6.268   0.367
31199SOL     OW95493  14.097   5.098  10.654
31199SOL    HW195494  14.189   5.084  10.676
31199SOL    HW295495  14.051   5.029  10.701
31200SOL     OW95496   3.068   1.361   0.058
31200SOL    HW195497   3.011   1.439   0.056
31200SOL    HW295498   3.115   1.364  14.850
31201SOL     OW95499   0.752  14.577  10.703
31201SOL    HW195500   0.727  14.503  10.758
31201SOL    HW295501   0.794  14.639  10.763
31202SOL     OW95502   3.126   8.070  14.277
31202SOL    HW195503   3.129   7.991  14.331
31202SOL    HW295504   3.068   8.130  14.325
31203SOL     OW95505   5.673   4.756   1.450
31203SOL    HW195506   5.634   4.674   1.420
31203SOL    HW295507   5.615   4.784   1.522
31204SOL     OW95508  13.198   9.421   9.859
31204SOL    HW195509  13.257   9.391   9.928
31204SOL    HW295510  13.223   9.513   9.845
31205SOL     OW95511  13.672  12.396   7.046
31205SOL    HW195512  13.649  12.327   7.108
31205SOL    HW295513  13.744  12.358   6.994
31206SOL     OW95514   1.720   7.931  12.368
31206SOL    HW195515   1.638   7.881  12.366
31206SOL    HW295516   1.739   7.941  12.462
31207SOL     OW95517  12.073  10.037  11.228
31207SOL    HW195518  12.167  10.037  11.246
31207SOL    HW295519  12.039  10.111  11.279
31208SOL     OW95520   4.249   1.122   9.256
31208SOL    HW195521   4.187   1.190   9.284
31208SOL    HW295522   4.267   1.142   9.164
31209SOL     OW95523   1.641   4.424  11.192
31209SOL    HW195524   1.605   4.393  11.109
31209SOL    HW295525   1.564   4.435  11.249
31210SOL     OW95526  13.872  13.792  12.253
31210SOL    HW195527  13.803  13.843  12.296
31210SOL    HW295528  13.893  13.723  12.317
31211SOL     OW95529  11.245   5.109   1.645
31211SOL    HW195530  11.297   5.161   1.583
31211SOL    HW295531  11.300   5.033   1.664
31212SOL     OW95532   1.433  12.237   1.076
31212SOL    HW195533   1.423  12.332   1.079
31212SOL    HW295534   1.428  12.209   1.168
31213SOL     OW95535   4.814   1.238   5.251
31213SOL    HW195536   4.750   1.209   5.185
31213SOL    HW295537   4.838   1.326   5.223
31214SOL     OW95538  14.765  14.227  12.424
31214SOL    HW195539  14.845  14.270  12.451
31214SOL    HW295540  14.695  14.277  12.467
31215SOL     OW95541   2.020  12.720  10.706
31215SOL    HW195542   2.070  12.787  10.659
31215SOL    HW295543   2.084  12.653  10.729
31216SOL     OW95544   8.502   6.274  12.290
31216SOL    HW195545   8.504   6.278  12.386
31216SOL    HW295546   8.573   6.331  12.262
31217SOL     OW95547   7.195   7.854  10.635
31217SOL    HW195548   7.114   7.850  10.684
31217SOL    HW295549   7.248   7.919  10.681
31218SOL     OW95550   6.143  10.049   3.780
31218SOL    HW195551   6.069  10.093   3.821
31218SOL    HW295552   6.118   9.957   3.775
31219SOL     OW95553   7.894   1.750   1.814
31219SOL    HW195554   7.834   1.683   1.847
31219SOL    HW295555   7.968   1.749   1.874
31220SOL     OW95556  14.380   9.220   9.084
31220SOL    HW195557  14.352   9.173   9.163
31220SOL    HW295558  14.470   9.191   9.070
31221SOL     OW95559  12.821   6.271   0.753
31221SOL    HW195560  12.832   6.356   0.709
31221SOL    HW295561  12.773   6.218   0.689
31222SOL     OW95562   3.535  14.016  14.565
31222SOL    HW195563   3.597  13.951  14.598
31222SOL    HW295564   3.571  14.100  14.595
31223SOL     OW95565   8.650   0.918   7.510
31223SOL    HW195566   8.694   0.994   7.547
31223SOL    HW295567   8.709   0.845   7.527
31224SOL     OW95568  14.311   9.802  12.439
31224SOL    HW195569  14.287   9.796  12.532
31224SOL    HW295570  14.288   9.892  12.415
31225SOL     OW95571   5.571  11.634  12.099
31225SOL    HW195572   5.599  11.693  12.029
31225SOL    HW295573   5.488  11.672  12.130
31226SOL     OW95574  10.726  13.201   0.822
31226SOL    HW195575  10.745  13.263   0.752
31226SOL    HW295576  10.638  13.168   0.801
31227SOL     OW95577   8.162   5.293   5.845
31227SOL    HW195578   8.255   5.272   5.836
31227SOL    HW295579   8.117   5.230   5.789
31228SOL     OW95580   1.711   2.610  13.751
31228SOL    HW195581   1.651   2.545  13.715
31228SOL    HW295582   1.792   2.561  13.769
31229SOL     OW95583   8.615  11.804  13.839
31229SOL    HW195584   8.649  11.893  13.854
31229SOL    HW295585   8.574  11.809  13.753
31230SOL     OW95586   0.302   6.845   7.990
31230SOL    HW195587   0.351   6.906   7.934
31230SOL    HW295588   0.227   6.820   7.937
31231SOL     OW95589  14.115   9.127   1.178
31231SOL    HW195590  14.032   9.093   1.212
31231SOL    HW295591  14.164   9.150   1.257
31232SOL     OW95592   4.435   6.835  11.160
31232SOL    HW195593   4.471   6.909  11.112
31232SOL    HW295594   4.350   6.818  11.120
31233SOL     OW95595   1.906   2.868  11.527
31233SOL    HW195596   1.817   2.899  11.546
31233SOL    HW295597   1.893   2.793  11.470
31234SOL     OW95598   5.231   0.573  14.580
31234SOL    HW195599   5.202   0.569  14.489
31234SOL    HW295600   5.180   0.644  14.619
31235SOL     OW95601   6.608  11.311   5.364
31235SOL    HW195602   6.602  11.216   5.378
31235SOL    HW295603   6.523  11.335   5.329
31236SOL     OW95604   1.905   4.653  11.947
31236SOL    HW195605   1.823   4.635  11.994
31236SOL    HW295606   1.890   4.739  11.907
31237SOL     OW95607  14.418   0.679   2.663
31237SOL    HW195608  14.491   0.633   2.623
31237SOL    HW295609  14.385   0.737   2.594
31238SOL     OW95610   2.653   9.341   1.145
31238SOL    HW195611   2.574   9.371   1.100
31238SOL    HW295612   2.620   9.296   1.223
31239SOL     OW95613  11.205  14.577   4.590
31239SOL    HW195614  11.173  14.634   4.660
31239SOL    HW295615  11.207  14.633   4.512
31240SOL     OW95616   6.827   1.143   1.896
31240SOL    HW195617   6.764   1.117   1.830
31240SOL    HW295618   6.782   1.131   1.980
31241SOL     OW95619  14.259  11.210  10.547
31241SOL    HW195620  14.292  11.243  10.630
31241SOL    HW295621  14.255  11.115  10.558
31242SOL     OW95622   6.116   5.857   7.137
31242SOL    HW195623   6.104   5.826   7.227
31242SOL    HW295624   6.122   5.952   7.145
31243SOL     OW95625  11.772   5.315   5.025
31243SOL    HW195626  11.697   5.256   5.025
31243SOL    HW295627  11.832   5.278   4.961
31244SOL     OW95628   5.705   7.384  13.987
31244SOL    HW195629   5.760   7.307  13.973
31244SOL    HW295630   5.734   7.447  13.920
31245SOL     OW95631   0.645   1.701  11.162
31245SOL    HW195632   0.584   1.633  11.135
31245SOL    HW295633   0.590   1.778  11.179
31246SOL     OW95634  12.625   3.433  12.477
31246SOL    HW195635  12.687   3.421  12.405
31246SOL    HW295636  12.680   3.446  12.554
31247SOL     OW95637   6.740   3.124   9.381
31247SOL    HW195638   6.787   3.184   9.324
31247SOL    HW295639   6.651   3.158   9.384
31248SOL     OW95640   7.381  10.636   5.147
31248SOL    HW195641   7.428  10.647   5.230
31248SOL    HW295642   7.428  10.692   5.086
31249SOL     OW95643   7.376   9.518   8.121
31249SOL    HW195644   7.404   9.430   8.146
31249SOL    HW295645   7.282   9.520   8.140
31250SOL     OW95646   0.440  13.103   6.842
31250SOL    HW195647   0.507  13.167   6.819
31250SOL    HW295648   0.396  13.085   6.759
31251SOL     OW95649   6.047   0.974   4.583
31251SOL    HW195650   6.042   1.038   4.512
31251SOL    HW295651   6.133   0.988   4.622
31252SOL     OW95652   6.130   0.055   8.218
31252SOL    HW195653   6.152  14.874   8.292
31252SOL    HW295654   6.092  14.871   8.153
31253SOL     OW95655  10.106   7.249   3.659
31253SOL    HW195656  10.067   7.323   3.613
31253SOL    HW295657  10.060   7.246   3.743
31254SOL     OW95658   8.384  14.680   5.488
31254SOL    HW195659   8.435  14.604   5.463
31254SOL    HW295660   8.321  14.647   5.553
31255SOL     OW95661   1.918   5.378  12.519
31255SOL    HW195662   1.882   5.309  12.574
31255SOL    HW295663   2.000   5.403  12.562
31256SOL     OW95664   0.065   0.285   9.940
31256SOL    HW195665   0.092   0.309  10.029
31256SOL    HW295666   0.005   0.212   9.952
31257SOL     OW95667   2.158  10.580   5.605
31257SOL    HW195668   2.073  10.595   5.564
31257SOL    HW295669   2.155  10.629   5.686
31258SOL     OW95670   2.903   0.418   0.241
31258SOL    HW195671   2.987   0.450   0.209
31258SOL    HW295672   2.909   0.323   0.233
31259SOL     OW95673  10.548   2.045  14.686
31259SOL    HW195674  10.596   1.972  14.645
31259SOL    HW295675  10.617   2.102  14.720
31260SOL     OW95676   2.553   7.626   6.777
31260SOL    HW195677   2.471   7.670   6.756
31260SOL    HW295678   2.533   7.570   6.851
31261SOL     OW95679   6.860   2.649   1.976
31261SOL    HW195680   6.935   2.693   1.936
31261SOL    HW295681   6.816   2.717   2.026
31262SOL     OW95682   8.379  12.060  11.762
31262SOL    HW195683   8.425  11.978  11.744
31262SOL    HW295684   8.363  12.059  11.856
31263SOL     OW95685  13.969  10.126   1.008
31263SOL    HW195686  13.876  10.123   1.030
31263SOL    HW295687  13.974  10.095   0.918
31264SOL     OW95688   3.066  11.845   8.484
31264SOL    HW195689   3.009  11.922   8.478
31264SOL    HW295690   3.152  11.880   8.502
31265SOL     OW95691   4.518   1.376  10.744
31265SOL    HW195692   4.514   1.454  10.689
31265SOL    HW295693   4.610   1.350  10.743
31266SOL     OW95694  13.814   0.951  12.508
31266SOL    HW195695  13.870   0.938  12.584
31266SOL    HW295696  13.874   0.981  12.439
31267SOL     OW95697   1.911   4.877   9.604
31267SOL    HW195698   1.946   4.794   9.636
31267SOL    HW295699   1.817   4.862   9.595
31268SOL     OW95700   7.805   4.263   0.779
31268SOL    HW195701   7.856   4.340   0.753
31268SOL    HW295702   7.810   4.261   0.875
31269SOL     OW95703   4.628   9.843   1.168
31269SOL    HW195704   4.577   9.924   1.175
31269SOL    HW295705   4.580   9.789   1.106
31270SOL     OW95706  13.115  14.140   9.103
31270SOL    HW195707  13.041  14.173   9.052
31270SOL    HW295708  13.091  14.049   9.124
31271SOL     OW95709  14.164  14.227   7.549
31271SOL    HW195710  14.126  14.215   7.461
31271SOL    HW295711  14.243  14.279   7.533
31272SOL     OW95712  13.299   3.169   0.491
31272SOL    HW195713  13.378   3.197   0.537
31272SOL    HW295714  13.244   3.247   0.486
31273SOL     OW95715   5.124   9.407   0.071
31273SOL    HW195716   5.177   9.338   0.032
31273SOL    HW295717   5.037   9.395   0.031
31274SOL     OW95718   0.744   0.128  12.640
31274SOL    HW195719   0.809   0.059  12.647
31274SOL    HW295720   0.661   0.082  12.629
31275SOL     OW95721   6.507  14.669   9.040
31275SOL    HW195722   6.418  14.691   9.012
31275SOL    HW295723   6.500  14.581   9.077
31276SOL     OW95724   4.861  10.265   0.692
31276SOL    HW195725   4.919  10.190   0.702
31276SOL    HW295726   4.906  10.322   0.630
31277SOL     OW95727  11.110   4.068   5.331
31277SOL    HW195728  11.205   4.067   5.330
31277SOL    HW295729  11.086   4.154   5.297
31278SOL     OW95730  12.801  10.378  10.380
31278SOL    HW195731  12.761  10.293  10.358
31278SOL    HW295732  12.880  10.381  10.326
31279SOL     OW95733  13.494   3.182  14.376
31279SOL    HW195734  13.401   3.207  14.374
31279SOL    HW295735  13.534   3.245  14.437
31280SOL     OW95736  12.819   8.557   7.663
31280SOL    HW195737  12.728   8.579   7.642
31280SOL    HW295738  12.813   8.475   7.713
31281SOL     OW95739   5.419  12.213   9.156
31281SOL    HW195740   5.409  12.234   9.063
31281SOL    HW295741   5.330  12.192   9.186
31282SOL     OW95742   9.785   3.493   2.733
31282SOL    HW195743   9.840   3.565   2.703
31282SOL    HW295744   9.808   3.482   2.825
31283SOL     OW95745  11.021   6.118   8.917
31283SOL    HW195746  10.971   6.196   8.942
31283SOL    HW295747  11.097   6.117   8.975
31284SOL     OW95748   4.909   5.508   4.131
31284SOL    HW195749   4.841   5.452   4.094
31284SOL    HW295750   4.932   5.467   4.214
31285SOL     OW95751   7.230  14.717  10.841
31285SOL    HW195752   7.312  14.758  10.870
31285SOL    HW295753   7.258  14.654  10.774
31286SOL     OW95754  12.183  10.315   7.008
31286SOL    HW195755  12.102  10.308   6.958
31286SOL    HW295756  12.248  10.266   6.958
31287SOL     OW95757   0.281   8.919   9.585
31287SOL    HW195758   0.260   8.855   9.653
31287SOL    HW295759   0.212   8.907   9.519
31288SOL     OW95760  13.579   6.359   0.477
31288SOL    HW195761  13.501   6.311   0.450
31288SOL    HW295762  13.548   6.447   0.496
31289SOL     OW95763  14.540   2.136   7.875
31289SOL    HW195764  14.585   2.056   7.900
31289SOL    HW295765  14.584   2.206   7.923
31290SOL     OW95766   5.905   4.476   1.276
31290SOL    HW195767   5.958   4.397   1.286
31290SOL    HW295768   5.946   4.522   1.203
31291SOL     OW95769  14.160   7.045   7.756
31291SOL    HW195770  14.186   6.964   7.713
31291SOL    HW295771  14.236   7.102   7.749
31292SOL     OW95772  13.908   0.825  11.471
31292SOL    HW195773  13.891   0.731  11.479
31292SOL    HW295774  13.960   0.846  11.549
31293SOL     OW95775  12.243  12.255  10.317
31293SOL    HW195776  12.211  12.245  10.227
31293SOL    HW295777  12.327  12.300  10.308
31294SOL     OW95778   8.033  12.593   7.458
31294SOL    HW195779   8.118  12.565   7.492
31294SOL    HW295780   7.989  12.634   7.533
31295SOL     OW95781   7.175   9.395   7.746
31295SOL    HW195782   7.204   9.485   7.730
31295SOL    HW295783   7.149   9.363   7.659
31296SOL     OW95784   5.935  11.924   3.825
31296SOL    HW195785   5.917  11.999   3.881
31296SOL    HW295786   6.026  11.901   3.845
31297SOL     OW95787  10.829   2.540   7.863
31297SOL    HW195788  10.875   2.456   7.863
31297SOL    HW295789  10.851   2.580   7.947
31298SOL     OW95790   0.544   9.553  13.467
31298SOL    HW195791   0.487   9.479  13.448
31298SOL    HW295792   0.510   9.590  13.549
31299SOL     OW95793   8.379  12.218   2.596
31299SOL    HW195794   8.433  12.146   2.562
31299SOL    HW295795   8.418  12.238   2.681
31300SOL     OW95796   6.116   0.722  14.129
31300SOL    HW195797   6.096   0.768  14.210
31300SOL    HW295798   6.211   0.713  14.129
31301SOL     OW95799   7.848   1.380   4.635
31301SOL    HW195800   7.825   1.403   4.725
31301SOL    HW295801   7.903   1.453   4.605
31302SOL     OW95802   7.403  10.173   9.846
31302SOL    HW195803   7.330  10.120   9.814
31302SOL    HW295804   7.459  10.111   9.893
31303SOL     OW95805   1.957   3.355   1.419
31303SOL    HW195806   1.870   3.313   1.420
31303SOL    HW295807   1.946   3.429   1.358
31304SOL     OW95808  11.340  13.799   3.351
31304SOL    HW195809  11.295  13.810   3.435
31304SOL    HW295810  11.413  13.861   3.355
31305SOL     OW95811   8.520   8.916   0.109
31305SOL    HW195812   8.560   8.912   0.022
31305SOL    HW295813   8.594   8.924   0.169
31306SOL     OW95814   0.865   1.451  14.809
31306SOL    HW195815   0.775   1.473  14.834
31306SOL    HW295816   0.904   1.535  14.782
31307SOL     OW95817   8.506   2.760  11.578
31307SOL    HW195818   8.443   2.830  11.595
31307SOL    HW295819   8.569   2.766  11.650
31308SOL     OW95820  11.315   0.418   5.692
31308SOL    HW195821  11.350   0.495   5.647
31308SOL    HW295822  11.367   0.411   5.772
31309SOL     OW95823   3.341   0.756  12.879
31309SOL    HW195824   3.335   0.771  12.973
31309SOL    HW295825   3.374   0.667  12.871
31310SOL     OW95826   4.201  10.069  13.322
31310SOL    HW195827   4.286  10.025  13.314
31310SOL    HW295828   4.220  10.161  13.305
31311SOL     OW95829  12.350   8.281   2.427
31311SOL    HW195830  12.354   8.330   2.509
31311SOL    HW295831  12.431   8.303   2.382
31312SOL     OW95832   3.523   4.007   4.187
31312SOL    HW195833   3.511   3.968   4.273
31312SOL    HW295834   3.495   4.098   4.198
31313SOL     OW95835  12.514   2.707   1.636
31313SOL    HW195836  12.588   2.689   1.694
31313SOL    HW295837  12.514   2.635   1.573
31314SOL     OW95838   7.232   9.036  12.913
31314SOL    HW195839   7.243   9.032  12.818
31314SOL    HW295840   7.321   9.050  12.947
31315SOL     OW95841   3.544   3.299   3.603
31315SOL    HW195842   3.457   3.260   3.598
31315SOL    HW295843   3.597   3.245   3.543
31316SOL     OW95844  11.963   3.745   2.804
31316SOL    HW195845  11.886   3.803   2.799
31316SOL    HW295846  12.021   3.788   2.867
31317SOL     OW95847  11.338  13.733   6.577
31317SOL    HW195848  11.283  13.768   6.647
31317SOL    HW295849  11.307  13.778   6.498
31318SOL     OW95850  13.832  10.842   9.440
31318SOL    HW195851  13.797  10.761   9.402
31318SOL    HW295852  13.790  10.847   9.526
31319SOL     OW95853   3.162   5.150   3.472
31319SOL    HW195854   3.069   5.170   3.467
31319SOL    HW295855   3.188   5.176   3.560
31320SOL     OW95856  14.777   7.845   0.909
31320SOL    HW195857  14.824   7.913   0.861
31320SOL    HW295858  14.802   7.763   0.867
31321SOL     OW95859  11.778  12.142   4.628
31321SOL    HW195860  11.769  12.079   4.557
31321SOL    HW295861  11.792  12.226   4.583
31322SOL     OW95862   0.748   7.898   5.567
31322SOL    HW195863   0.676   7.838   5.588
31322SOL    HW295864   0.705   7.976   5.531
31323SOL     OW95865  10.374   3.225   0.347
31323SOL    HW195866  10.309   3.234   0.277
31323SOL    HW295867  10.351   3.294   0.410
31324SOL     OW95868   3.811   8.395  11.217
31324SOL    HW195869   3.779   8.399  11.307
31324SOL    HW295870   3.756   8.329  11.175
31325SOL     OW95871   6.208   9.655  14.559
31325SOL    HW195872   6.302   9.643  14.549
31325SOL    HW295873   6.177   9.677  14.471
31326SOL     OW95874  13.693   9.264   9.916
31326SOL    HW195875  13.730   9.198   9.858
31326SOL    HW295876  13.744   9.256   9.997
31327SOL     OW95877  12.130   3.761   8.531
31327SOL    HW195878  12.155   3.800   8.615
31327SOL    HW295879  12.095   3.834   8.480
31328SOL     OW95880   7.147   5.402   1.827
31328SOL    HW195881   7.140   5.316   1.867
31328SOL    HW295882   7.138   5.463   1.900
31329SOL     OW95883   3.559   1.701   9.965
31329SOL    HW195884   3.545   1.682   9.872
31329SOL    HW295885   3.475   1.734   9.995
31330SOL     OW95886   7.672   6.702   0.337
31330SOL    HW195887   7.689   6.644   0.412
31330SOL    HW295888   7.708   6.654   0.262
31331SOL     OW95889   7.564   0.087   6.552
31331SOL    HW195890   7.501   0.081   6.481
31331SOL    HW295891   7.591   0.179   6.552
31332SOL     OW95892   7.263   6.261   4.553
31332SOL    HW195893   7.319   6.234   4.626
31332SOL    HW295894   7.196   6.192   4.548
31333SOL     OW95895  12.301  14.267   0.609
31333SOL    HW195896  12.278  14.189   0.659
31333SOL    HW295897  12.225  14.282   0.552
31334SOL     OW95898   3.586  14.103   4.238
31334SOL    HW195899   3.625  14.178   4.193
31334SOL    HW295900   3.496  14.100   4.206
31335SOL     OW95901   6.254   1.936   5.912
31335SOL    HW195902   6.260   1.841   5.926
31335SOL    HW295903   6.339   1.970   5.937
31336SOL     OW95904   8.555   2.232   6.171
31336SOL    HW195905   8.567   2.206   6.080
31336SOL    HW295906   8.614   2.307   6.182
31337SOL     OW95907  11.546   3.985   8.641
31337SOL    HW195908  11.550   3.895   8.674
31337SOL    HW295909  11.539   3.975   8.546
31338SOL     OW95910   9.990  11.960   6.912
31338SOL    HW195911  10.051  12.033   6.901
31338SOL    HW295912  10.027  11.908   6.984
31339SOL     OW95913   5.312   6.090  11.380
31339SOL    HW195914   5.384   6.052  11.430
31339SOL    HW295915   5.335   6.072  11.289
31340SOL     OW95916   7.339  11.774  12.173
31340SOL    HW195917   7.297  11.839  12.228
31340SOL    HW295918   7.398  11.825  12.117
31341SOL     OW95919   4.384  14.288   6.604
31341SOL    HW195920   4.428  14.367   6.634
31341SOL    HW295921   4.371  14.236   6.684
31342SOL     OW95922  10.891   8.974   4.126
31342SOL    HW195923  10.962   9.030   4.158
31342SOL    HW295924  10.860   9.018   4.047
31343SOL     OW95925   2.148   7.853  10.207
31343SOL    HW195926   2.156   7.760  10.188
31343SOL    HW295927   2.182   7.896  10.129
31344SOL     OW95928   5.515   0.540  14.447
31344SOL    HW195929   5.494   0.603  14.378
31344SOL    HW295930   5.432   0.524  14.492
31345SOL     OW95931   6.469   3.880  13.218
31345SOL    HW195932   6.457   3.916  13.307
31345SOL    HW295933   6.499   3.955  13.167
31346SOL     OW95934   5.882   1.159   1.733
31346SOL    HW195935   5.853   1.123   1.817
31346SOL    HW295936   5.828   1.115   1.667
31347SOL     OW95937   2.873   6.486  11.975
31347SOL    HW195938   2.899   6.571  12.011
31347SOL    HW295939   2.789   6.467  12.018
31348SOL     OW95940   7.599   6.057   3.893
31348SOL    HW195941   7.562   6.024   3.975
31348SOL    HW295942   7.637   6.142   3.915
31349SOL     OW95943   2.993  12.957  10.463
31349SOL    HW195944   2.947  12.933  10.382
31349SOL    HW295945   3.007  13.052  10.455
31350SOL     OW95946   2.787   9.611  11.549
31350SOL    HW195947   2.880   9.600  11.569
31350SOL    HW295948   2.775   9.706  11.541
31351SOL     OW95949   5.091   2.425  14.075
31351SOL    HW195950   5.136   2.446  13.993
31351SOL    HW295951   5.125   2.489  14.138
31352SOL     OW95952   8.250   7.500  12.924
31352SOL    HW195953   8.300   7.419  12.938
31352SOL    HW295954   8.309   7.570  12.951
31353SOL     OW95955   9.097   1.982   7.939
31353SOL    HW195956   9.163   2.035   7.984
31353SOL    HW295957   9.022   2.041   7.927
31354SOL     OW95958  10.391   2.533   3.091
31354SOL    HW195959  10.432   2.479   3.159
31354SOL    HW295960  10.464   2.574   3.046
31355SOL     OW95961   3.956   0.334  11.501
31355SOL    HW195962   4.024   0.372  11.558
31355SOL    HW295963   4.001   0.315  11.419
31356SOL     OW95964   6.187   1.503  13.872
31356SOL    HW195965   6.278   1.523  13.850
31356SOL    HW295966   6.177   1.411  13.846
31357SOL     OW95967  14.604   0.722  12.553
31357SOL    HW195968  14.685   0.768  12.530
31357SOL    HW295969  14.552   0.788  12.598
31358SOL     OW95970   1.633   9.722   6.577
31358SOL    HW195971   1.583   9.703   6.656
31358SOL    HW295972   1.706   9.777   6.607
31359SOL     OW95973   7.991  14.032  11.418
31359SOL    HW195974   8.051  14.018  11.345
31359SOL    HW295975   7.906  14.002  11.386
31360SOL     OW95976   3.546   8.075   6.976
31360SOL    HW195977   3.634   8.075   6.938
31360SOL    HW295978   3.508   8.159   6.950
31361SOL     OW95979   8.233  10.464   3.127
31361SOL    HW195980   8.323  10.436   3.139
31361SOL    HW295981   8.235  10.517   3.047
31362SOL     OW95982   1.317   2.457   4.815
31362SOL    HW195983   1.288   2.428   4.901
31362SOL    HW295984   1.410   2.434   4.811
31363SOL     OW95985   3.556  13.912   6.956
31363SOL    HW195986   3.629  13.935   7.013
31363SOL    HW295987   3.578  13.824   6.923
31364SOL     OW95988   8.723   6.340  12.128
31364SOL    HW195989   8.657   6.329  12.059
31364SOL    HW295990   8.802   6.368  12.082
31365SOL     OW95991  10.181   2.122   0.148
31365SOL    HW195992  10.194   2.216   0.153
31365SOL    HW295993  10.090   2.109   0.173
31366SOL     OW95994   4.942   9.711   2.039
31366SOL    HW195995   5.004   9.776   2.070
31366SOL    HW295996   4.856   9.748   2.059
31367SOL     OW95997   6.600   3.411   6.878
31367SOL    HW195998   6.691   3.439   6.881
31367SOL    HW295999   6.583   3.394   6.785
31368SOL     OW96000  12.319   8.765  14.808
31368SOL    HW196001  12.376   8.715  14.749
31368SOL    HW296002  12.231   8.734  14.788
31369SOL     OW96003   4.417   8.656   5.267
31369SOL    HW196004   4.510   8.659   5.243
31369SOL    HW296005   4.402   8.564   5.290
31370SOL     OW96006  12.234   1.173  13.764
31370SOL    HW196007  12.263   1.088  13.796
31370SOL    HW296008  12.142   1.160  13.742
31371SOL     OW96009   4.354   1.292  12.889
31371SOL    HW196010   4.288   1.337  12.941
31371SOL    HW296011   4.357   1.203  12.924
31372SOL     OW96012   3.862   1.858  10.883
31372SOL    HW196013   3.901   1.915  10.817
31372SOL    HW296014   3.851   1.915  10.960
31373SOL     OW96015   8.314  12.101   3.723
31373SOL    HW196016   8.303  12.092   3.818
31373SOL    HW296017   8.405  12.079   3.707
31374SOL     OW96018  14.727   3.939   5.375
31374SOL    HW196019  14.782   3.953   5.451
31374SOL    HW296020  14.748   3.850   5.346
31375SOL     OW96021   1.944   4.424  13.841
31375SOL    HW196022   2.001   4.415  13.765
31375SOL    HW296023   1.864   4.376  13.817
31376SOL     OW96024   3.162   2.253  14.306
31376SOL    HW196025   3.238   2.288  14.258
31376SOL    HW296026   3.185   2.162  14.325
31377SOL     OW96027   3.663   5.921   5.302
31377SOL    HW196028   3.649   5.968   5.384
31377SOL    HW296029   3.751   5.946   5.275
31378SOL     OW96030   5.539  10.000  14.528
31378SOL    HW196031   5.557  10.094  14.521
31378SOL    HW296032   5.625   9.958  14.534
31379SOL     OW96033  10.651   9.885   8.947
31379SOL    HW196034  10.607   9.941   9.011
31379SOL    HW296035  10.744   9.895   8.965
31380SOL     OW96036   5.197   3.747   7.835
31380SOL    HW196037   5.228   3.837   7.846
31380SOL    HW296038   5.253   3.695   7.892
31381SOL     OW96039   7.447   2.406   1.797
31381SOL    HW196040   7.482   2.347   1.863
31381SOL    HW296041   7.406   2.476   1.846
31382SOL     OW96042  10.386   3.848   0.765
31382SOL    HW196043  10.463   3.874   0.815
31382SOL    HW296044  10.416   3.844   0.674
31383SOL     OW96045  14.812   6.398   2.117
31383SOL    HW196046  14.788   6.335   2.048
31383SOL    HW296047  14.761   6.476   2.097
31384SOL     OW96048   3.249   4.921   0.216
31384SOL    HW196049   3.334   4.965   0.220
31384SOL    HW296050   3.187   4.990   0.194
31385SOL     OW96051  12.549  12.280  14.812
31385SOL    HW196052  12.454  12.271  14.800
31385SOL    HW296053  12.560  12.365  14.854
31386SOL     OW96054   0.416   8.072  11.913
31386SOL    HW196055   0.410   8.098  12.005
31386SOL    HW296056   0.357   7.997  11.905
31387SOL     OW96057   5.413  10.162   6.584
31387SOL    HW196058   5.416  10.142   6.490
31387SOL    HW296059   5.361  10.092   6.622
31388SOL     OW96060  13.972   6.212   7.273
31388SOL    HW196061  14.019   6.152   7.332
31388SOL    HW296062  14.034   6.228   7.202
31389SOL     OW96063   2.523   5.336   3.664
31389SOL    HW196064   2.501   5.340   3.757
31389SOL    HW296065   2.569   5.253   3.653
31390SOL     OW96066  13.234   7.518  10.206
31390SOL    HW196067  13.303   7.563  10.157
31390SOL    HW296068  13.160   7.514  10.146
31391SOL     OW96069   9.803   3.216   0.253
31391SOL    HW196070   9.855   3.144   0.288
31391SOL    HW296071   9.850   3.295   0.279
31392SOL     OW96072  10.638   5.863   4.354
31392SOL    HW196073  10.696   5.827   4.421
31392SOL    HW296074  10.574   5.915   4.404
31393SOL     OW96075   0.287  13.169  11.014
31393SOL    HW196076   0.242  13.208  10.939
31393SOL    HW296077   0.306  13.079  10.987
31394SOL     OW96078   2.711   3.999   3.221
31394SOL    HW196079   2.679   3.995   3.131
31394SOL    HW296080   2.802   3.969   3.215
31395SOL     OW96081   8.083   5.571  12.564
31395SOL    HW196082   7.997   5.529  12.572
31395SOL    HW296083   8.130   5.546  12.643
31396SOL     OW96084  10.989   6.779   6.193
31396SOL    HW196085  10.901   6.817   6.190
31396SOL    HW296086  10.974   6.685   6.180
31397SOL     OW96087   7.682  12.837   2.778
31397SOL    HW196088   7.637  12.874   2.703
31397SOL    HW296089   7.637  12.754   2.795
31398SOL     OW96090   5.874  11.459  10.206
31398SOL    HW196091   5.853  11.369  10.183
31398SOL    HW296092   5.814  11.512  10.153
31399SOL     OW96093   8.735  10.118   2.080
31399SOL    HW196094   8.765  10.088   2.166
31399SOL    HW296095   8.779  10.060   2.018
31400SOL     OW96096   0.619   8.282   7.168
31400SOL    HW196097   0.567   8.357   7.197
31400SOL    HW296098   0.571   8.206   7.200
31401SOL     OW96099   5.879   0.072  12.431
31401SOL    HW196100   5.905  14.857  12.452
31401SOL    HW296101   5.959   0.114  12.401
31402SOL     OW96102  10.938   2.558  13.568
31402SOL    HW196103  10.906   2.578  13.480
31402SOL    HW296104  10.945   2.463  13.571
31403SOL     OW96105   1.919   1.593  12.894
31403SOL    HW196106   1.853   1.535  12.934
31403SOL    HW296107   1.909   1.676  12.940
31404SOL     OW96108  10.338   9.058   9.612
31404SOL    HW196109  10.301   9.102   9.536
31404SOL    HW296110  10.309   9.111   9.687
31405SOL     OW96111   2.363   8.527   4.280
31405SOL    HW196112   2.271   8.514   4.302
31405SOL    HW296113   2.405   8.547   4.364
31406SOL     OW96114  13.212  14.771  14.057
31406SOL    HW196115  13.264  14.824  14.117
31406SOL    HW296116  13.236  14.803  13.970
31407SOL     OW96117   8.119   4.236  11.783
31407SOL    HW196118   8.137   4.144  11.798
31407SOL    HW296119   8.029   4.249  11.812
31408SOL     OW96120  12.211  13.530   9.235
31408SOL    HW196121  12.126  13.573   9.226
31408SOL    HW296122  12.269  13.581   9.178
31409SOL     OW96123  13.167   3.121   8.530
31409SOL    HW196124  13.074   3.124   8.509
31409SOL    HW296125  13.169   3.103   8.624
31410SOL     OW96126   4.576   0.853   1.404
31410SOL    HW196127   4.592   0.774   1.456
31410SOL    HW296128   4.557   0.821   1.316
31411SOL     OW96129  11.081   1.598  12.511
31411SOL    HW196130  11.113   1.559  12.430
31411SOL    HW296131  11.000   1.550  12.531
31412SOL     OW96132   5.921   2.061  12.701
31412SOL    HW196133   5.941   2.115  12.624
31412SOL    HW296134   5.858   2.113  12.750
31413SOL     OW96135  10.554  12.898   7.422
31413SOL    HW196136  10.479  12.884   7.364
31413SOL    HW296137  10.625  12.922   7.363
31414SOL     OW96138   9.543  14.811   8.676
31414SOL    HW196139   9.554  14.806   8.581
31414SOL    HW296140   9.600  14.742   8.710
31415SOL     OW96141   1.946   8.154   5.814
31415SOL    HW196142   1.932   8.141   5.908
31415SOL    HW296143   1.923   8.246   5.799
31416SOL     OW96144   0.704   8.509  10.823
31416SOL    HW196145   0.733   8.486  10.912
31416SOL    HW296146   0.756   8.586  10.800
31417SOL     OW96147   9.527   6.125   3.149
31417SOL    HW196148   9.572   6.136   3.233
31417SOL    HW296149   9.468   6.052   3.162
31418SOL     OW96150   9.829   1.640   5.952
31418SOL    HW196151   9.812   1.605   5.864
31418SOL    HW296152   9.912   1.599   5.978
31419SOL     OW96153   3.065   9.495   5.472
31419SOL    HW196154   3.155   9.526   5.484
31419SOL    HW296155   3.043   9.454   5.556
31420SOL     OW96156   5.510   3.304  10.290
31420SOL    HW196157   5.450   3.230  10.296
31420SOL    HW296158   5.467   3.374  10.339
31421SOL     OW96159   1.609   6.618   8.418
31421SOL    HW196160   1.689   6.670   8.426
31421SOL    HW296161   1.552   6.671   8.361
31422SOL     OW96162   6.216   0.613   8.375
31422SOL    HW196163   6.231   0.707   8.376
31422SOL    HW296164   6.228   0.586   8.467
31423SOL     OW96165   5.288   1.724   3.881
31423SOL    HW196166   5.239   1.740   3.962
31423SOL    HW296167   5.249   1.784   3.817
31424SOL     OW96168   1.949   3.110  14.363
31424SOL    HW196169   1.985   3.196  14.384
31424SOL    HW296170   2.024   3.060  14.330
31425SOL     OW96171  10.965   3.083   1.148
31425SOL    HW196172  10.916   3.001   1.142
31425SOL    HW296173  10.910   3.147   1.102
31426SOL     OW96174  11.923   5.464  12.031
31426SOL    HW196175  11.946   5.525  11.961
31426SOL    HW296176  11.847   5.416  11.997
31427SOL     OW96177   1.331  13.859  12.284
31427SOL    HW196178   1.370  13.794  12.226
31427SOL    HW296179   1.404  13.894  12.334
31428SOL     OW96180   7.345   2.716  10.954
31428SOL    HW196181   7.304   2.722  11.041
31428SOL    HW296182   7.328   2.626  10.926
31429SOL     OW96183   6.100   9.787  10.019
31429SOL    HW196184   6.087   9.807   9.926
31429SOL    HW296185   6.016   9.751  10.048
31430SOL     OW96186   6.131   3.273   2.281
31430SOL    HW196187   6.062   3.207   2.282
31430SOL    HW296188   6.210   3.224   2.261
31431SOL     OW96189  12.738   2.152   5.660
31431SOL    HW196190  12.752   2.060   5.681
31431SOL    HW296191  12.648   2.170   5.689
31432SOL     OW96192   7.286   5.819   4.684
31432SOL    HW196193   7.236   5.880   4.630
31432SOL    HW296194   7.377   5.837   4.663
31433SOL     OW96195   4.122   9.999  13.046
31433SOL    HW196196   4.184  10.063  13.010
31433SOL    HW296197   4.123  10.016  13.140
31434SOL     OW96198   2.662   7.736  11.010
31434SOL    HW196199   2.622   7.823  11.003
31434SOL    HW296200   2.754   7.750  10.988
31435SOL     OW96201  13.171   7.425  11.453
31435SOL    HW196202  13.229   7.395  11.524
31435SOL    HW296203  13.153   7.345  11.403
31436SOL     OW96204   0.078   0.010   1.409
31436SOL    HW196205  14.861   0.023   1.383
31436SOL    HW296206   0.128   0.045   1.335
31437SOL     OW96207  13.030   3.977   0.510
31437SOL    HW196208  12.993   4.037   0.575
31437SOL    HW296209  13.045   3.895   0.558
31438SOL     OW96210  13.401  12.220   5.402
31438SOL    HW196211  13.320  12.248   5.359
31438SOL    HW296212  13.423  12.137   5.361
31439SOL     OW96213  10.191  10.649   4.844
31439SOL    HW196214  10.128  10.707   4.802
31439SOL    HW296215  10.265  10.645   4.784
31440SOL     OW96216   4.628   1.369  12.691
31440SOL    HW196217   4.579   1.287  12.686
31440SOL    HW296218   4.563   1.437  12.672
31441SOL     OW96219  13.430  11.204  13.408
31441SOL    HW196220  13.447  11.112  13.426
31441SOL    HW296221  13.393  11.238  13.490
31442SOL     OW96222   8.969  12.537   4.609
31442SOL    HW196223   8.960  12.475   4.682
31442SOL    HW296224   9.043  12.593   4.634
31443SOL     OW96225   6.334  13.903   9.017
31443SOL    HW196226   6.338  13.985   8.967
31443SOL    HW296227   6.257  13.858   8.982
31444SOL     OW96228   6.557   2.756   5.247
31444SOL    HW196229   6.637   2.793   5.210
31444SOL    HW296230   6.486   2.808   5.209
31445SOL     OW96231   0.790   2.164   8.108
31445SOL    HW196232   0.807   2.074   8.081
31445SOL    HW296233   0.808   2.217   8.030
31446SOL     OW96234   9.344   4.415   0.624
31446SOL    HW196235   9.282   4.387   0.556
31446SOL    HW296236   9.413   4.461   0.575
31447SOL     OW96237  12.486   2.768   9.194
31447SOL    HW196238  12.421   2.704   9.166
31447SOL    HW296239  12.436   2.848   9.210
31448SOL     OW96240   6.746   1.618  11.931
31448SOL    HW196241   6.666   1.610  11.982
31448SOL    HW296242   6.722   1.584  11.844
31449SOL     OW96243   0.499   4.934  11.069
31449SOL    HW196244   0.586   4.916  11.105
31449SOL    HW296245   0.495   5.030  11.064
31450SOL     OW96246  12.342   7.560   7.497
31450SOL    HW196247  12.380   7.622   7.434
31450SOL    HW296248  12.249   7.559   7.476
31451SOL     OW96249   0.547  11.086  14.837
31451SOL    HW196250   0.577  11.028  14.767
31451SOL    HW296251   0.452  11.091  14.825
31452SOL     OW96252   0.529   7.592   7.279
31452SOL    HW196253   0.521   7.578   7.184
31452SOL    HW296254   0.588   7.666   7.287
31453SOL     OW96255   4.794   8.968  11.174
31453SOL    HW196256   4.731   8.896  11.175
31453SOL    HW296257   4.783   9.008  11.087
31454SOL     OW96258  12.046   4.807  14.667
31454SOL    HW196259  11.951   4.819  14.668
31454SOL    HW296260  12.058   4.712  14.674
31455SOL     OW96261   7.007   2.242   7.053
31455SOL    HW196262   7.101   2.250   7.035
31455SOL    HW296263   6.990   2.307   7.121
31456SOL     OW96264  13.211  11.580   4.525
31456SOL    HW196265  13.136  11.601   4.468
31456SOL    HW296266  13.175  11.579   4.613
31457SOL     OW96267  11.014   1.284   5.042
31457SOL    HW196268  10.957   1.293   5.118
31457SOL    HW296269  10.976   1.213   4.991
31458SOL     OW96270   6.384  11.056   2.705
31458SOL    HW196271   6.300  11.010   2.703
31458SOL    HW296272   6.406  11.063   2.798
31459SOL     OW96273   7.721   2.683  12.058
31459SOL    HW196274   7.656   2.626  12.099
31459SOL    HW296275   7.785   2.700  12.128
31460SOL     OW96276   3.144   6.124   5.818
31460SOL    HW196277   3.166   6.208   5.778
31460SOL    HW296278   3.050   6.129   5.836
31461SOL     OW96279  13.849   1.551   0.685
31461SOL    HW196280  13.768   1.499   0.677
31461SOL    HW296281  13.846   1.610   0.610
31462SOL     OW96282   5.058   3.135  14.812
31462SOL    HW196283   4.975   3.101  14.778
31462SOL    HW296284   5.061   3.226  14.783
31463SOL     OW96285   6.521   9.583   7.529
31463SOL    HW196286   6.502   9.629   7.610
31463SOL    HW296287   6.464   9.624   7.464
31464SOL     OW96288  10.368  12.659  10.063
31464SOL    HW196289  10.329  12.580  10.026
31464SOL    HW296290  10.409  12.630  10.145
31465SOL     OW96291  10.731   6.531   5.961
31465SOL    HW196292  10.713   6.525   5.867
31465SOL    HW296293  10.654   6.575   5.997
31466SOL     OW96294   4.250  14.693   6.611
31466SOL    HW196295   4.257  14.785   6.585
31466SOL    HW296296   4.186  14.656   6.550
31467SOL     OW96297  10.393   9.561   7.315
31467SOL    HW196298  10.337   9.596   7.385
31467SOL    HW296299  10.478   9.549   7.356
31468SOL     OW96300  12.098   9.272  10.672
31468SOL    HW196301  12.014   9.262  10.626
31468SOL    HW296302  12.127   9.360  10.651
31469SOL     OW96303   1.903   5.954  14.049
31469SOL    HW196304   1.979   5.903  14.078
31469SOL    HW296305   1.923   6.044  14.072
31470SOL     OW96306   7.806  14.135   3.704
31470SOL    HW196307   7.843  14.083   3.776
31470SOL    HW296308   7.719  14.099   3.691
31471SOL     OW96309  13.666   1.668  14.431
31471SOL    HW196310  13.682   1.755  14.468
31471SOL    HW296311  13.637   1.615  14.506
31472SOL     OW96312  13.226   6.541  12.072
31472SOL    HW196313  13.227   6.508  11.982
31472SOL    HW296314  13.222   6.462  12.126
31473SOL     OW96315   6.668  14.793   3.509
31473SOL    HW196316   6.742  14.743   3.542
31473SOL    HW296317   6.703   0.006   3.496
31474SOL     OW96318   6.189  10.969  14.806
31474SOL    HW196319   6.214  11.057  14.778
31474SOL    HW296320   6.103  10.980  14.847
31475SOL     OW96321   8.776   0.829   7.102
31475SOL    HW196322   8.824   0.907   7.131
31475SOL    HW296323   8.805   0.760   7.162
31476SOL     OW96324   2.927   5.286   2.491
31476SOL    HW196325   2.958   5.365   2.536
31476SOL    HW296326   2.834   5.281   2.514
31477SOL     OW96327  13.700   8.692  13.026
31477SOL    HW196328  13.683   8.777  12.985
31477SOL    HW296329  13.768   8.652  12.973
31478SOL     OW96330  14.390   6.269  14.188
31478SOL    HW196331  14.324   6.297  14.125
31478SOL    HW296332  14.347   6.280  14.273
31479SOL     OW96333  11.661   9.950   3.808
31479SOL    HW196334  11.605   9.884   3.849
31479SOL    HW296335  11.619  10.033   3.826
31480SOL     OW96336   2.580  13.103  13.965
31480SOL    HW196337   2.558  13.166  13.896
31480SOL    HW296338   2.558  13.148  14.047
31481SOL     OW96339   4.809   2.418  10.463
31481SOL    HW196340   4.772   2.382  10.382
31481SOL    HW296341   4.734   2.454  10.510
31482SOL     OW96342   1.814   9.932   6.514
31482SOL    HW196343   1.802  10.012   6.565
31482SOL    HW296344   1.909   9.919   6.513
31483SOL     OW96345   3.366   9.892   6.668
31483SOL    HW196346   3.397   9.946   6.741
31483SOL    HW296347   3.346   9.807   6.708
31484SOL     OW96348   1.238   2.398  10.390
31484SOL    HW196349   1.309   2.337  10.372
31484SOL    HW296350   1.161   2.360  10.347
31485SOL     OW96351   3.545   3.332   7.742
31485SOL    HW196352   3.473   3.361   7.687
31485SOL    HW296353   3.574   3.250   7.702
31486SOL     OW96354   9.350   8.751   6.281
31486SOL    HW196355   9.318   8.824   6.229
31486SOL    HW296356   9.441   8.740   6.253
31487SOL     OW96357  12.904  13.949   3.640
31487SOL    HW196358  12.881  13.914   3.726
31487SOL    HW296359  12.913  13.871   3.584
31488SOL     OW96360   3.865   8.937  12.151
31488SOL    HW196361   3.930   8.912  12.086
31488SOL    HW296362   3.912   8.938  12.234
31489SOL     OW96363   4.418   8.197  14.385
31489SOL    HW196364   4.335   8.208  14.339
31489SOL    HW296365   4.454   8.115  14.350
31490SOL     OW96366   3.915   3.371   8.027
31490SOL    HW196367   3.863   3.313   7.971
31490SOL    HW296368   3.951   3.436   7.967
31491SOL     OW96369   7.812   4.597   4.875
31491SOL    HW196370   7.816   4.685   4.912
31491SOL    HW296371   7.816   4.610   4.781
31492SOL     OW96372   2.522   2.576   9.746
31492SOL    HW196373   2.576   2.576   9.825
31492SOL    HW296374   2.479   2.491   9.746
31493SOL     OW96375   7.708  12.190   2.443
31493SOL    HW196376   7.730  12.156   2.530
31493SOL    HW296377   7.774  12.256   2.425
31494SOL     OW96378  13.455   6.911   2.638
31494SOL    HW196379  13.524   6.911   2.704
31494SOL    HW296380  13.493   6.867   2.563
31495SOL     OW96381   1.250   4.955   0.698
31495SOL    HW196382   1.202   4.874   0.718
31495SOL    HW296383   1.342   4.929   0.699
31496SOL     OW96384  10.416  13.094  13.862
31496SOL    HW196385  10.500  13.066  13.825
31496SOL    HW296386  10.435  13.179  13.902
31497SOL     OW96387   3.243   1.428   3.478
31497SOL    HW196388   3.242   1.519   3.447
31497SOL    HW296389   3.335   1.402   3.473
31498SOL     OW96390  12.049   0.282  14.733
31498SOL    HW196391  12.114   0.337  14.690
31498SOL    HW296392  12.050   0.200  14.684
31499SOL     OW96393   6.733   7.176   9.134
31499SOL    HW196394   6.687   7.092   9.127
31499SOL    HW296395   6.672   7.239   9.096
31500SOL     OW96396  12.375   1.354   2.634
31500SOL    HW196397  12.386   1.306   2.715
31500SOL    HW296398  12.465   1.366   2.601
31501SOL     OW96399   4.163  11.250   6.742
31501SOL    HW196400   4.173  11.168   6.693
31501SOL    HW296401   4.242  11.255   6.796
31502SOL     OW96402   0.963  12.530   2.272
31502SOL    HW196403   0.947  12.508   2.364
31502SOL    HW296404   1.029  12.467   2.243
31503SOL     OW96405   5.461   9.587   5.204
31503SOL    HW196406   5.529   9.588   5.271
31503SOL    HW296407   5.506   9.617   5.125
31504SOL     OW96408  10.961   2.410   5.611
31504SOL    HW196409  10.962   2.457   5.528
31504SOL    HW296410  10.886   2.446   5.658
31505SOL     OW96411   4.576   3.407  14.716
31505SOL    HW196412   4.528   3.331  14.751
31505SOL    HW296413   4.545   3.481  14.768
31506SOL     OW96414  10.108   3.926   1.909
31506SOL    HW196415  10.173   3.862   1.881
31506SOL    HW296416  10.036   3.874   1.943
31507SOL     OW96417   5.918   9.665   1.410
31507SOL    HW196418   5.891   9.718   1.334
31507SOL    HW296419   5.949   9.583   1.372
31508SOL     OW96420   7.933   0.743  13.450
31508SOL    HW196421   7.923   0.725  13.357
31508SOL    HW296422   8.028   0.749  13.463
31509SOL     OW96423   4.520   5.082   0.710
31509SOL    HW196424   4.544   5.167   0.749
31509SOL    HW296425   4.528   5.020   0.783
31510SOL     OW96426   5.445   5.079  12.290
31510SOL    HW196427   5.454   5.051  12.381
31510SOL    HW296428   5.391   5.011  12.249
31511SOL     OW96429   2.290   3.050   6.240
31511SOL    HW196430   2.210   3.098   6.260
31511SOL    HW296431   2.267   2.996   6.165
31512SOL     OW96432   7.275  11.026   7.577
31512SOL    HW196433   7.261  11.039   7.483
31512SOL    HW296434   7.370  11.020   7.586
31513SOL     OW96435  13.630   3.119   6.870
31513SOL    HW196436  13.633   3.048   6.934
31513SOL    HW296437  13.539   3.121   6.840
31514SOL     OW96438   1.711   6.777  12.620
31514SOL    HW196439   1.657   6.760  12.543
31514SOL    HW296440   1.766   6.698  12.629
31515SOL     OW96441   7.668   4.215  10.409
31515SOL    HW196442   7.732   4.259  10.465
31515SOL    HW296443   7.717   4.144  10.367
31516SOL     OW96444   7.729  12.308  11.207
31516SOL    HW196445   7.797  12.317  11.273
31516SOL    HW296446   7.758  12.233  11.154
31517SOL     OW96447  10.864   3.843   9.544
31517SOL    HW196448  10.848   3.926   9.589
31517SOL    HW296449  10.777   3.808   9.524
31518SOL     OW96450   1.625  11.731   5.004
31518SOL    HW196451   1.537  11.768   5.008
31518SOL    HW296452   1.669  11.768   5.081
31519SOL     OW96453   8.429   1.654   6.780
31519SOL    HW196454   8.481   1.575   6.764
31519SOL    HW296455   8.399   1.681   6.694
31520SOL     OW96456   9.689   8.759  11.670
31520SOL    HW196457   9.746   8.782  11.744
31520SOL    HW296458   9.671   8.666  11.682
31521SOL     OW96459   5.747   6.560   5.708
31521SOL    HW196460   5.840   6.576   5.717
31521SOL    HW296461   5.717   6.624   5.644
31522SOL     OW96462  11.870   4.729   7.389
31522SOL    HW196463  11.902   4.718   7.479
31522SOL    HW296464  11.775   4.727   7.398
31523SOL     OW96465   9.328  11.792   3.902
31523SOL    HW196466   9.338  11.861   3.967
31523SOL    HW296467   9.411  11.745   3.903
31524SOL     OW96468   5.745  10.935  14.134
31524SOL    HW196469   5.711  11.022  14.154
31524SOL    HW296470   5.748  10.891  14.219
31525SOL     OW96471   1.965   5.302   6.957
31525SOL    HW196472   2.007   5.245   7.022
31525SOL    HW296473   1.883   5.329   6.998
31526SOL     OW96474   4.997   8.457  10.447
31526SOL    HW196475   5.061   8.526  10.430
31526SOL    HW296476   5.046   8.376  10.434
31527SOL     OW96477   6.725   4.745   8.770
31527SOL    HW196478   6.759   4.833   8.763
31527SOL    HW296479   6.794   4.695   8.814
31528SOL     OW96480  13.112   4.957   9.629
31528SOL    HW196481  13.137   4.922   9.543
31528SOL    HW296482  13.027   4.999   9.615
31529SOL     OW96483   8.833   4.560   3.442
31529SOL    HW196484   8.909   4.618   3.439
31529SOL    HW296485   8.781   4.584   3.365
31530SOL     OW96486   4.305   7.941   1.388
31530SOL    HW196487   4.354   7.860   1.400
31530SOL    HW296488   4.357   7.992   1.326
31531SOL     OW96489  14.853   2.501  14.482
31531SOL    HW196490   0.021   2.546  14.555
31531SOL    HW296491   0.036   2.428  14.461
31532SOL     OW96492  11.881   4.293   1.461
31532SOL    HW196493  11.886   4.378   1.505
31532SOL    HW296494  11.888   4.315   1.368
31533SOL     OW96495   8.047  13.036   0.786
31533SOL    HW196496   8.073  13.121   0.749
31533SOL    HW296497   8.128  12.985   0.788
31534SOL     OW96498  13.620   6.169  11.022
31534SOL    HW196499  13.698   6.118  11.045
31534SOL    HW296500  13.557   6.104  10.992
31535SOL     OW96501  13.935   4.508   5.230
31535SOL    HW196502  13.983   4.524   5.149
31535SOL    HW296503  13.966   4.576   5.290
31536SOL     OW96504   5.613  10.838   3.694
31536SOL    HW196505   5.663  10.913   3.727
31536SOL    HW296506   5.556  10.813   3.766
31537SOL     OW96507   4.471   7.385   2.046
31537SOL    HW196508   4.532   7.434   2.102
31537SOL    HW296509   4.445   7.309   2.098
31538SOL     OW96510   5.331   6.498   2.208
31538SOL    HW196511   5.256   6.512   2.265
31538SOL    HW296512   5.330   6.404   2.190
31539SOL     OW96513  14.161  12.051  12.854
31539SOL    HW196514  14.166  12.044  12.758
31539SOL    HW296515  14.191  12.140  12.873
31540SOL     OW96516   3.645  13.177  10.342
31540SOL    HW196517   3.591  13.145  10.269
31540SOL    HW296518   3.715  13.112  10.350
31541SOL     OW96519  13.636   7.300   2.570
31541SOL    HW196520  13.692   7.309   2.493
31541SOL    HW296521  13.671   7.224   2.616
31542SOL     OW96522   8.782   7.686   7.898
31542SOL    HW196523   8.705   7.634   7.878
31542SOL    HW296524   8.750   7.758   7.951
31543SOL     OW96525   9.370   0.288   6.474
31543SOL    HW196526   9.343   0.269   6.384
31543SOL    HW296527   9.392   0.202   6.510
31544SOL     OW96528   7.047   6.825   3.342
31544SOL    HW196529   7.009   6.790   3.422
31544SOL    HW296530   7.101   6.898   3.371
31545SOL     OW96531   4.492   7.847   8.320
31545SOL    HW196532   4.487   7.869   8.227
31545SOL    HW296533   4.404   7.818   8.343
31546SOL     OW96534   8.996   9.851  13.724
31546SOL    HW196535   9.086   9.843  13.756
31546SOL    HW296536   8.963   9.932  13.763
31547SOL     OW96537   4.339   4.075  14.557
31547SOL    HW196538   4.260   4.084  14.503
31547SOL    HW296539   4.405   4.043  14.496
31548SOL     OW96540   0.173  10.813   2.445
31548SOL    HW196541   0.199  10.888   2.498
31548SOL    HW296542   0.233  10.743   2.470
31549SOL     OW96543   8.864   3.489   3.168
31549SOL    HW196544   8.921   3.541   3.224
31549SOL    HW296545   8.921   3.421   3.132
31550SOL     OW96546  13.381   9.067   3.637
31550SOL    HW196547  13.410   8.995   3.582
31550SOL    HW296548  13.346   9.026   3.716
31551SOL     OW96549   5.777  13.551  10.088
31551SOL    HW196550   5.850  13.491  10.104
31551SOL    HW296551   5.780  13.612  10.162
31552SOL     OW96552   3.986   4.022   2.291
31552SOL    HW196553   4.022   4.036   2.379
31552SOL    HW296554   3.909   4.080   2.288
31553SOL     OW96555   6.397   8.889   8.142
31553SOL    HW196556   6.460   8.858   8.207
31553SOL    HW296557   6.320   8.914   8.193
31554SOL     OW96558   5.654   3.344   6.191
31554SOL    HW196559   5.602   3.347   6.111
31554SOL    HW296560   5.679   3.252   6.201
31555SOL     OW96561  11.588   3.814  10.958
31555SOL    HW196562  11.660   3.860  10.915
31555SOL    HW296563  11.609   3.722  10.947
31556SOL     OW96564   9.027  11.801   8.845
31556SOL    HW196565   9.007  11.882   8.797
31556SOL    HW296566   8.941  11.766   8.870
31557SOL     OW96567   1.447   6.506   2.838
31557SOL    HW196568   1.461   6.585   2.786
31557SOL    HW296569   1.475   6.530   2.926
31558SOL     OW96570   4.576  12.558  11.005
31558SOL    HW196571   4.666  12.590  11.003
31558SOL    HW296572   4.554  12.540  10.914
31559SOL     OW96573  10.530  12.739   6.613
31559SOL    HW196574  10.469  12.761   6.542
31559SOL    HW296575  10.510  12.802   6.682
31560SOL     OW96576  12.004   8.582  11.666
31560SOL    HW196577  11.945   8.592  11.592
31560SOL    HW296578  12.081   8.634  11.642
31561SOL     OW96579   2.705   2.919   6.121
31561SOL    HW196580   2.697   2.883   6.210
31561SOL    HW296581   2.648   2.996   6.122
31562SOL     OW96582   1.398  11.564   0.749
31562SOL    HW196583   1.344  11.639   0.775
31562SOL    HW296584   1.406  11.573   0.654
31563SOL     OW96585  11.385   9.930   4.424
31563SOL    HW196586  11.396  10.016   4.463
31563SOL    HW296587  11.418   9.869   4.490
31564SOL     OW96588   6.823   8.015   2.720
31564SOL    HW196589   6.845   8.108   2.714
31564SOL    HW296590   6.908   7.970   2.716
31565SOL     OW96591   4.278   5.329   6.970
31565SOL    HW196592   4.234   5.251   6.935
31565SOL    HW296593   4.359   5.294   7.009
31566SOL     OW96594  11.447  10.126  13.977
31566SOL    HW196595  11.524  10.169  14.014
31566SOL    HW296596  11.373  10.165  14.024
31567SOL     OW96597   4.711  13.602  11.960
31567SOL    HW196598   4.686  13.510  11.973
31567SOL    HW296599   4.707  13.640  12.048
31568SOL     OW96600   9.377   3.010  10.172
31568SOL    HW196601   9.430   2.976  10.100
31568SOL    HW296602   9.412   3.097  10.189
31569SOL     OW96603  10.202   8.675  11.070
31569SOL    HW196604  10.242   8.760  11.047
31569SOL    HW296605  10.266   8.610  11.040
31570SOL     OW96606   1.877   8.352  10.166
31570SOL    HW196607   1.926   8.273  10.144
31570SOL    HW296608   1.809   8.357  10.099
31571SOL     OW96609   7.473   8.119  14.137
31571SOL    HW196610   7.386   8.146  14.108
31571SOL    HW296611   7.532   8.188  14.106
31572SOL     OW96612   3.438   3.236   8.300
31572SOL    HW196613   3.429   3.222   8.205
31572SOL    HW296614   3.494   3.164   8.329
31573SOL     OW96615   5.570  14.283   1.087
31573SOL    HW196616   5.495  14.229   1.064
31573SOL    HW296617   5.585  14.266   1.180
31574SOL     OW96618  13.676   0.938   1.120
31574SOL    HW196619  13.747   0.985   1.165
31574SOL    HW296620  13.612   0.920   1.189
31575SOL     OW96621   6.924   0.486   6.406
31575SOL    HW196622   6.907   0.391   6.413
31575SOL    HW296623   7.018   0.493   6.396
31576SOL     OW96624   9.013   1.927  11.359
31576SOL    HW196625   8.940   1.975  11.399
31576SOL    HW296626   9.081   1.927  11.426
31577SOL     OW96627   7.162   0.744  12.348
31577SOL    HW196628   7.185   0.667  12.295
31577SOL    HW296629   7.193   0.818  12.296
31578SOL     OW96630  13.758  10.232  14.056
31578SOL    HW196631  13.675  10.272  14.083
31578SOL    HW296632  13.744  10.138  14.067
31579SOL     OW96633   2.083   8.334  13.080
31579SOL    HW196634   2.095   8.239  13.075
31579SOL    HW296635   2.169   8.370  13.056
31580SOL     OW96636  14.366   7.406   0.026
31580SOL    HW196637  14.426   7.429   0.097
31580SOL    HW296638  14.374   7.311   0.017
31581SOL     OW96639   7.309  13.484  10.487
31581SOL    HW196640   7.246  13.452  10.422
31581SOL    HW296641   7.315  13.578  10.470
31582SOL     OW96642  13.115   4.099   2.153
31582SOL    HW196643  13.063   4.021   2.131
31582SOL    HW296644  13.147   4.131   2.068
31583SOL     OW96645   0.075  11.118  12.107
31583SOL    HW196646   0.088  11.202  12.150
31583SOL    HW296647   0.071  11.139  12.013
31584SOL     OW96648  13.835   8.313   0.409
31584SOL    HW196649  13.760   8.254   0.406
31584SOL    HW296650  13.843   8.347   0.319
31585SOL     OW96651  12.657   5.824  14.496
31585SOL    HW196652  12.596   5.836  14.569
31585SOL    HW296653  12.626   5.883  14.428
31586SOL     OW96654   9.056   1.512  10.456
31586SOL    HW196655   9.140   1.553  10.479
31586SOL    HW296656   9.053   1.433  10.510
31587SOL     OW96657  12.281  14.686   6.424
31587SOL    HW196658  12.362  14.636   6.430
31587SOL    HW296659  12.290  14.737   6.343
31588SOL     OW96660  13.269  13.437   3.988
31588SOL    HW196661  13.258  13.481   4.072
31588SOL    HW296662  13.362  13.448   3.968
31589SOL     OW96663   5.338   2.484   7.333
31589SOL    HW196664   5.388   2.555   7.372
31589SOL    HW296665   5.309   2.431   7.408
31590SOL     OW96666  12.549   5.850  10.130
31590SOL    HW196667  12.596   5.931  10.149
31590SOL    HW296668  12.553   5.800  10.211
31591SOL     OW96669   5.197   4.027   0.058
31591SOL    HW196670   5.117   4.079   0.060
31591SOL    HW296671   5.170   3.940   0.029
31592SOL     OW96672  14.124  11.776  11.894
31592SOL    HW196673  14.160  11.809  11.976
31592SOL    HW296674  14.042  11.823  11.882
31593SOL     OW96675  14.557   2.462   5.086
31593SOL    HW196676  14.535   2.393   5.023
31593SOL    HW296677  14.588   2.414   5.163
31594SOL     OW96678   6.978   0.624   0.980
31594SOL    HW196679   6.939   0.548   1.024
31594SOL    HW296680   6.910   0.656   0.922
31595SOL     OW96681  11.282  14.749   8.924
31595SOL    HW196682  11.235  14.805   8.986
31595SOL    HW296683  11.214  14.695   8.884
31596SOL     OW96684   5.470   5.906   9.486
31596SOL    HW196685   5.501   5.899   9.576
31596SOL    HW296686   5.443   5.817   9.463
31597SOL     OW96687   6.863  14.427  13.422
31597SOL    HW196688   6.943  14.421  13.370
31597SOL    HW296689   6.796  14.453  13.358
31598SOL     OW96690   6.151  13.303   5.088
31598SOL    HW196691   6.077  13.359   5.112
31598SOL    HW296692   6.122  13.258   5.008
31599SOL     OW96693   1.885   2.279   0.702
31599SOL    HW196694   1.948   2.324   0.758
31599SOL    HW296695   1.938   2.243   0.630
31600SOL     OW96696   0.068   6.090   0.499
31600SOL    HW196697   0.151   6.126   0.468
31600SOL    HW296698   0.081   6.078   0.593
31601SOL     OW96699   0.514   4.777   6.357
31601SOL    HW196700   0.444   4.723   6.320
31601SOL    HW296701   0.551   4.823   6.283
31602SOL     OW96702  14.689   8.617   6.688
31602SOL    HW196703  14.752   8.580   6.750
31602SOL    HW296704  14.637   8.542   6.660
31603SOL     OW96705   6.947   7.393  14.137
31603SOL    HW196706   7.011   7.322  14.134
31603SOL    HW296707   6.879   7.361  14.197
31604SOL     OW96708   3.150   5.737   1.343
31604SOL    HW196709   3.126   5.792   1.417
31604SOL    HW296710   3.141   5.647   1.375
31605SOL     OW96711   8.846  13.714  14.856
31605SOL    HW196712   8.763  13.671  14.875
31605SOL    HW296713   8.875  13.749   0.065
31606SOL     OW96714   2.794   6.754  13.174
31606SOL    HW196715   2.883   6.779  13.200
31606SOL    HW296716   2.778   6.672  13.221
31607SOL     OW96717   1.898   2.600   1.717
31607SOL    HW196718   1.907   2.510   1.746
31607SOL    HW296719   1.986   2.625   1.688
31608SOL     OW96720   7.121   4.992  10.386
31608SOL    HW196721   7.075   5.053  10.443
31608SOL    HW296722   7.081   5.005  10.300
31609SOL     OW96723  12.335   0.070   6.880
31609SOL    HW196724  12.322   0.026   6.964
31609SOL    HW296725  12.413   0.123   6.893
31610SOL     OW96726  12.700  13.835   4.497
31610SOL    HW196727  12.752  13.790   4.430
31610SOL    HW296728  12.683  13.922   4.460
31611SOL     OW96729   1.005   1.880   9.753
31611SOL    HW196730   0.978   1.971   9.764
31611SOL    HW296731   0.988   1.839   9.838
31612SOL     OW96732   5.201  13.133   2.900
31612SOL    HW196733   5.114  13.169   2.882
31612SOL    HW296734   5.211  13.138   2.995
31613SOL     OW96735  11.986   0.044  14.133
31613SOL    HW196736  12.040   0.046  14.212
31613SOL    HW296737  11.925  14.847  14.147
31614SOL     OW96738  13.751   2.432  12.039
31614SOL    HW196739  13.774   2.523  12.052
31614SOL    HW296740  13.711   2.430  11.952
31615SOL     OW96741   9.093  11.173   7.294
31615SOL    HW196742   9.112  11.220   7.213
31615SOL    HW296743   9.002  11.193   7.313
31616SOL     OW96744  14.823  14.860   9.505
31616SOL    HW196745  14.753  14.809   9.546
31616SOL    HW296746  14.799  14.863   9.412
31617SOL     OW96747  11.152  11.528   5.486
31617SOL    HW196748  11.126  11.521   5.394
31617SOL    HW296749  11.128  11.617   5.511
31618SOL     OW96750   1.838   1.880   2.311
31618SOL    HW196751   1.781   1.951   2.341
31618SOL    HW296752   1.846   1.822   2.387
31619SOL     OW96753  14.003   8.826   6.570
31619SOL    HW196754  14.068   8.896   6.561
31619SOL    HW296755  14.036   8.755   6.515
31620SOL     OW96756   2.683  14.396   4.654
31620SOL    HW196757   2.643  14.471   4.611
31620SOL    HW296758   2.617  14.327   4.650
31621SOL     OW96759   7.464   9.661  12.052
31621SOL    HW196760   7.546   9.671  12.099
31621SOL    HW296761   7.406   9.728  12.089
31622SOL     OW96762  11.272   8.787   5.991
31622SOL    HW196763  11.365   8.796   5.974
31622SOL    HW296764  11.233   8.864   5.951
31623SOL     OW96765  11.603   8.998   6.250
31623SOL    HW196766  11.614   8.904   6.265
31623SOL    HW296767  11.530   9.024   6.306
31624SOL     OW96768  13.611  13.300   1.291
31624SOL    HW196769  13.525  13.287   1.251
31624SOL    HW296770  13.624  13.225   1.348
31625SOL     OW96771   3.823   4.748  11.738
31625SOL    HW196772   3.848   4.813  11.671
31625SOL    HW296773   3.817   4.799  11.819
31626SOL     OW96774   5.200   3.340   0.837
31626SOL    HW196775   5.174   3.408   0.776
31626SOL    HW296776   5.234   3.269   0.782
31627SOL     OW96777   9.239   6.311   0.715
31627SOL    HW196778   9.285   6.279   0.793
31627SOL    HW296779   9.173   6.371   0.750
31628SOL     OW96780   1.572   5.380   1.614
31628SOL    HW196781   1.512   5.323   1.566
31628SOL    HW296782   1.516   5.428   1.675
31629SOL     OW96783  13.293   1.704   0.887
31629SOL    HW196784  13.284   1.627   0.944
31629SOL    HW296785  13.386   1.709   0.867
31630SOL     OW96786   5.089   0.992   4.201
31630SOL    HW196787   5.165   0.946   4.236
31630SOL    HW296788   5.110   1.085   4.211
31631SOL     OW96789   3.491   1.560  14.315
31631SOL    HW196790   3.526   1.624  14.254
31631SOL    HW296791   3.410   1.529  14.273
31632SOL     OW96792   4.520   2.874   6.588
31632SOL    HW196793   4.530   2.821   6.667
31632SOL    HW296794   4.482   2.957   6.619
31633SOL     OW96795  10.318  10.521   2.841
31633SOL    HW196796  10.300  10.612   2.820
31633SOL    HW296797  10.340  10.481   2.757
31634SOL     OW96798   5.780  10.035  13.695
31634SOL    HW196799   5.725  10.071  13.764
31634SOL    HW296800   5.741   9.950  13.675
31635SOL     OW96801   1.264  14.152   1.305
31635SOL    HW196802   1.199  14.222   1.299
31635SOL    HW296803   1.318  14.163   1.226
31636SOL     OW96804   0.697   5.954  10.002
31636SOL    HW196805   0.632   5.884   9.998
31636SOL    HW296806   0.781   5.910   9.999
31637SOL     OW96807  10.755   6.035  12.351
31637SOL    HW196808  10.782   6.125  12.337
31637SOL    HW296809  10.776   6.016  12.442
31638SOL     OW96810   2.558   3.915   1.812
31638SOL    HW196811   2.615   3.973   1.761
31638SOL    HW296812   2.540   3.842   1.754
31639SOL     OW96813   6.628   7.273  11.922
31639SOL    HW196814   6.721   7.291  11.906
31639SOL    HW296815   6.584   7.355  11.898
31640SOL     OW96816   6.477   0.304   7.425
31640SOL    HW196817   6.451   0.389   7.388
31640SOL    HW296818   6.572   0.311   7.436
31641SOL     OW96819   4.578   1.495   8.140
31641SOL    HW196820   4.671   1.519   8.146
31641SOL    HW296821   4.538   1.568   8.093
31642SOL     OW96822  11.951  10.344   0.141
31642SOL    HW196823  12.037  10.384   0.127
31642SOL    HW296824  11.963  10.288   0.218
31643SOL     OW96825   4.675   6.604  13.528
31643SOL    HW196826   4.626   6.661  13.587
31643SOL    HW296827   4.626   6.605  13.446
31644SOL     OW96828   7.444   0.624   2.351
31644SOL    HW196829   7.368   0.590   2.303
31644SOL    HW296830   7.411   0.704   2.392
31645SOL     OW96831  10.897  10.683  13.856
31645SOL    HW196832  10.987  10.658  13.837
31645SOL    HW296833  10.888  10.771  13.820
31646SOL     OW96834  13.554  10.436  12.258
31646SOL    HW196835  13.525  10.469  12.174
31646SOL    HW296836  13.588  10.348  12.239
31647SOL     OW96837   1.153   6.875  11.497
31647SOL    HW196838   1.126   6.788  11.527
31647SOL    HW296839   1.137   6.874  11.403
31648SOL     OW96840   4.938  13.864  11.057
31648SOL    HW196841   4.964  13.861  11.150
31648SOL    HW296842   4.944  13.773  11.029
31649SOL     OW96843   2.840   1.209   6.150
31649SOL    HW196844   2.892   1.241   6.223
31649SOL    HW296845   2.890   1.135   6.115
31650SOL     OW96846  11.010   9.132   9.720
31650SOL    HW196847  10.919   9.117   9.695
31650SOL    HW296848  11.010   9.222   9.754
31651SOL     OW96849   8.848   6.503   6.546
31651SOL    HW196850   8.855   6.437   6.477
31651SOL    HW296851   8.758   6.495   6.577
31652SOL     OW96852  10.290   0.347   0.077
31652SOL    HW196853  10.325   0.365  14.865
31652SOL    HW296854  10.204   0.310   0.061
31653SOL     OW96855   7.894   2.893  10.428
31653SOL    HW196856   7.823   2.957  10.433
31653SOL    HW296857   7.909   2.868  10.519
31654SOL     OW96858   6.290   0.615   0.059
31654SOL    HW196859   6.285   0.521   0.072
31654SOL    HW296860   6.384   0.633   0.050
31655SOL     OW96861  11.991   5.550   3.888
31655SOL    HW196862  11.953   5.618   3.943
31655SOL    HW296863  12.005   5.593   3.803
31656SOL     OW96864  11.645  10.181   6.642
31656SOL    HW196865  11.702  10.156   6.715
31656SOL    HW296866  11.670  10.272   6.622
31657SOL     OW96867   1.423   3.115   5.597
31657SOL    HW196868   1.449   3.068   5.518
31657SOL    HW296869   1.442   3.207   5.578
31658SOL     OW96870   4.036   5.218   2.295
31658SOL    HW196871   3.989   5.183   2.370
31658SOL    HW296872   3.972   5.274   2.250
31659SOL     OW96873   1.570   5.279  14.720
31659SOL    HW196874   1.611   5.250  14.638
31659SOL    HW296875   1.508   5.347  14.693
31660SOL     OW96876  10.464   1.678   6.554
31660SOL    HW196877  10.394   1.710   6.497
31660SOL    HW296878  10.445   1.585   6.566
31661SOL     OW96879   6.803   2.179   0.416
31661SOL    HW196880   6.848   2.095   0.428
31661SOL    HW296881   6.818   2.227   0.497
31662SOL     OW96882   0.394   3.676   2.583
31662SOL    HW196883   0.405   3.647   2.673
31662SOL    HW296884   0.320   3.737   2.586
31663SOL     OW96885   0.302  14.255  14.729
31663SOL    HW196886   0.328  14.207  14.807
31663SOL    HW296887   0.370  14.321  14.717
31664SOL     OW96888  10.716  11.897  10.253
31664SOL    HW196889  10.808  11.918  10.239
31664SOL    HW296890  10.678  11.976  10.291
31665SOL     OW96891   7.479   8.694   1.561
31665SOL    HW196892   7.557   8.669   1.511
31665SOL    HW296893   7.475   8.789   1.552
31666SOL     OW96894  12.142   8.400  12.717
31666SOL    HW196895  12.113   8.309  12.717
31666SOL    HW296896  12.081   8.445  12.775
31667SOL     OW96897   5.260   2.302   0.375
31667SOL    HW196898   5.273   2.235   0.307
31667SOL    HW296899   5.346   2.340   0.388
31668SOL     OW96900  11.131   6.336  14.393
31668SOL    HW196901  11.212   6.382  14.418
31668SOL    HW296902  11.087   6.318  14.477
31669SOL     OW96903  14.366  10.414   1.887
31669SOL    HW196904  14.350  10.492   1.940
31669SOL    HW296905  14.461  10.402   1.889
31670SOL     OW96906  12.613   5.755  12.887
31670SOL    HW196907  12.598   5.753  12.981
31670SOL    HW296908  12.709   5.754  12.878
31671SOL     OW96909   0.819  14.490  13.524
31671SOL    HW196910   0.755  14.531  13.465
31671SOL    HW296911   0.901  14.495  13.476
31672SOL     OW96912  11.048   0.701   8.621
31672SOL    HW196913  11.116   0.691   8.688
31672SOL    HW296914  11.082   0.654   8.545
31673SOL     OW96915   6.435   3.162   6.937
31673SOL    HW196916   6.463   3.253   6.949
31673SOL    HW296917   6.489   3.130   6.865
31674SOL     OW96918   7.277   7.773   2.088
31674SOL    HW196919   7.303   7.849   2.140
31674SOL    HW296920   7.190   7.796   2.054
31675SOL     OW96921  14.848  10.215   8.692
31675SOL    HW196922  14.799  10.206   8.773
31675SOL    HW296923   0.027  10.293   8.704
31676SOL     OW96924   6.283   0.970  14.797
31676SOL    HW196925   6.225   1.046  14.798
31676SOL    HW296926   6.250   0.914  14.868
31677SOL     OW96927   3.601   1.950   9.770
31677SOL    HW196928   3.590   1.859   9.800
31677SOL    HW296929   3.584   1.946   9.676
31678SOL     OW96930   6.445  12.135   9.674
31678SOL    HW196931   6.517  12.074   9.661
31678SOL    HW296932   6.446  12.191   9.597
31679SOL     OW96933  11.597   9.564   4.478
31679SOL    HW196934  11.576   9.548   4.386
31679SOL    HW296935  11.676   9.617   4.476
31680SOL     OW96936   4.340   1.696   5.549
31680SOL    HW196937   4.315   1.646   5.471
31680SOL    HW296938   4.435   1.701   5.545
31681SOL     OW96939   7.138  11.708  11.957
31681SOL    HW196940   7.146  11.640  12.024
31681SOL    HW296941   7.168  11.788  12.000
31682SOL     OW96942  13.082   1.008  11.970
31682SOL    HW196943  13.015   0.981  12.032
31682SOL    HW296944  13.146   1.057  12.022
31683SOL     OW96945   6.105  14.492   9.102
31683SOL    HW196946   6.154  14.410   9.114
31683SOL    HW296947   6.051  14.477   9.025
31684SOL     OW96948   3.673   7.156   8.396
31684SOL    HW196949   3.690   7.070   8.435
31684SOL    HW296950   3.699   7.145   8.304
31685SOL     OW96951   5.666   5.232  10.373
31685SOL    HW196952   5.692   5.248  10.463
31685SOL    HW296953   5.660   5.319  10.334
31686SOL     OW96954   1.916   8.131   5.357
31686SOL    HW196955   1.948   8.215   5.388
31686SOL    HW296956   1.874   8.091   5.433
31687SOL     OW96957   0.434   2.222  12.760
31687SOL    HW196958   0.482   2.278  12.699
31687SOL    HW296959   0.342   2.240  12.743
31688SOL     OW96960  13.606   8.890   8.964
31688SOL    HW196961  13.648   8.964   8.920
31688SOL    HW296962  13.649   8.813   8.926
31689SOL     OW96963  14.008   9.776  10.168
31689SOL    HW196964  14.074   9.844  10.157
31689SOL    HW296965  14.027   9.712  10.100
31690SOL     OW96966   1.509   0.674   8.939
31690SOL    HW196967   1.523   0.769   8.938
31690SOL    HW296968   1.497   0.654   9.032
31691SOL     OW96969  11.626  11.106   3.283
31691SOL    HW196970  11.575  11.077   3.359
31691SOL    HW296971  11.690  11.036   3.270
31692SOL     OW96972   4.126  14.277  11.213
31692SOL    HW196973   4.099  14.329  11.138
31692SOL    HW296974   4.145  14.342  11.281
31693SOL     OW96975   2.564   6.350  11.156
31693SOL    HW196976   2.479   6.319  11.189
31693SOL    HW296977   2.541   6.416  11.091
31694SOL     OW96978  14.002   5.114  13.822
31694SOL    HW196979  14.031   5.156  13.903
31694SOL    HW296980  14.000   5.021  13.843
31695SOL     OW96981  10.288   5.096  10.194
31695SOL    HW196982  10.289   5.054  10.108
31695SOL    HW296983  10.222   5.165  10.187
31696SOL     OW96984   8.693  11.248   4.557
31696SOL    HW196985   8.780  11.279   4.531
31696SOL    HW296986   8.633  11.290   4.495
31697SOL     OW96987  10.818  11.962   4.645
31697SOL    HW196988  10.914  11.963   4.641
31697SOL    HW296989  10.798  11.958   4.739
31698SOL     OW96990   4.133  11.343  10.253
31698SOL    HW196991   4.124  11.354  10.159
31698SOL    HW296992   4.054  11.296  10.279
31699SOL     OW96993   0.590   1.714   4.254
31699SOL    HW196994   0.632   1.646   4.306
31699SOL    HW296995   0.525   1.668   4.202
31700SOL     OW96996  12.775   9.420   8.379
31700SOL    HW196997  12.744   9.475   8.451
31700SOL    HW296998  12.782   9.332   8.418
31701SOL     OW96999   3.030   7.126   4.750
31701SOL    HW197000   3.086   7.203   4.760
31701SOL    HW297001   2.959   7.141   4.812
31702SOL     OW97002   2.055  14.582   1.847
31702SOL    HW197003   2.000  14.504   1.843
31702SOL    HW297004   1.998  14.651   1.880
31703SOL     OW97005   4.119  12.286   1.624
31703SOL    HW197006   4.194  12.229   1.642
31703SOL    HW297007   4.068  12.239   1.558
31704SOL     OW97008  13.125   0.829   8.442
31704SOL    HW197009  13.057   0.796   8.501
31704SOL    HW297010  13.170   0.750   8.412
31705SOL     OW97011   6.553   6.450  13.413
31705SOL    HW197012   6.481   6.512  13.401
31705SOL    HW297013   6.540   6.383  13.346
31706SOL     OW97014   2.986   6.151  11.827
31706SOL    HW197015   2.929   6.221  11.797
31706SOL    HW297016   3.048   6.138  11.755
31707SOL     OW97017  13.982  10.384  14.681
31707SOL    HW197018  14.038  10.307  14.680
31707SOL    HW297019  13.908  10.361  14.624
31708SOL     OW97020   3.752   2.129   9.208
31708SOL    HW197021   3.716   2.112   9.121
31708SOL    HW297022   3.727   2.219   9.227
31709SOL     OW97023  11.378   3.968  12.971
31709SOL    HW197024  11.460   3.988  13.015
31709SOL    HW297025  11.403   3.942  12.882
31710SOL     OW97026   7.061   7.547   6.183
31710SOL    HW197027   7.077   7.482   6.252
31710SOL    HW297028   7.139   7.603   6.185
31711SOL     OW97029   1.277   4.951  13.815
31711SOL    HW197030   1.213   4.996  13.761
31711SOL    HW297031   1.346   5.016  13.830
31712SOL     OW97032   9.417   9.473  10.591
31712SOL    HW197033   9.427   9.558  10.549
31712SOL    HW297034   9.375   9.418  10.525
31713SOL     OW97035   4.365  12.944  14.035
31713SOL    HW197036   4.328  12.870  14.083
31713SOL    HW297037   4.295  13.010  14.034
31714SOL     OW97038   3.920   8.998  14.640
31714SOL    HW197039   3.988   8.933  14.623
31714SOL    HW297040   3.876   8.967  14.719
31715SOL     OW97041   1.666   3.545   3.834
31715SOL    HW197042   1.741   3.576   3.783
31715SOL    HW297043   1.590   3.576   3.786
31716SOL     OW97044  12.821  10.314   5.474
31716SOL    HW197045  12.868  10.231   5.481
31716SOL    HW297046  12.881  10.372   5.427
31717SOL     OW97047  14.289   9.893   8.877
31717SOL    HW197048  14.312   9.841   8.800
31717SOL    HW297049  14.207   9.856   8.908
31718SOL     OW97050   3.529  12.764  13.798
31718SOL    HW197051   3.539  12.847  13.751
31718SOL    HW297052   3.574  12.700  13.744
31719SOL     OW97053   9.916   4.118   1.383
31719SOL    HW197054   9.968   4.101   1.462
31719SOL    HW297055   9.861   4.193   1.406
31720SOL     OW97056   0.534  11.139  13.565
31720SOL    HW197057   0.594  11.090  13.509
31720SOL    HW297058   0.583  11.217  13.589
31721SOL     OW97059  12.290   7.033  13.247
31721SOL    HW197060  12.238   7.099  13.293
31721SOL    HW297061  12.323   6.976  13.316
31722SOL     OW97062   8.455  14.300  10.147
31722SOL    HW197063   8.380  14.338  10.100
31722SOL    HW297064   8.459  14.349  10.229
31723SOL     OW97065  14.303   4.832   7.965
31723SOL    HW197066  14.262   4.815   7.880
31723SOL    HW297067  14.248   4.785   8.028
31724SOL     OW97068   0.348  14.110   9.437
31724SOL    HW197069   0.421  14.052   9.415
31724SOL    HW297070   0.328  14.090   9.528
31725SOL     OW97071   3.328  11.497  13.427
31725SOL    HW197072   3.257  11.433  13.420
31725SOL    HW297073   3.383  11.479  13.351
31726SOL     OW97074   8.176   0.775   8.425
31726SOL    HW197075   8.187   0.729   8.341
31726SOL    HW297076   8.136   0.709   8.483
31727SOL     OW97077   6.186   3.889   0.205
31727SOL    HW197078   6.159   3.829   0.274
31727SOL    HW297079   6.115   3.885   0.140
31728SOL     OW97080  13.499   7.938   6.472
31728SOL    HW197081  13.521   7.845   6.467
31728SOL    HW297082  13.506   7.960   6.564
31729SOL     OW97083  10.078   6.010   2.671
31729SOL    HW197084  10.051   6.101   2.658
31729SOL    HW297085   9.996   5.960   2.668
31730SOL     OW97086   4.184   0.479  14.801
31730SOL    HW197087   4.198   0.395  14.758
31730SOL    HW297088   4.165   0.457   0.017
31731SOL     OW97089   1.064  12.028  12.706
31731SOL    HW197090   1.080  12.119  12.684
31731SOL    HW297091   1.080  12.022  12.801
31732SOL     OW97092   5.266  11.955   6.846
31732SOL    HW197093   5.194  11.894   6.861
31732SOL    HW297094   5.294  11.937   6.756
31733SOL     OW97095   9.016  12.176   8.092
31733SOL    HW197096   9.001  12.253   8.146
31733SOL    HW297097   8.986  12.201   8.004
31734SOL     OW97098   6.870  14.038  11.616
31734SOL    HW197099   6.823  13.961  11.584
31734SOL    HW297100   6.842  14.109  11.560
31735SOL     OW97101  14.754  14.042  13.686
31735SOL    HW197102  14.734  14.121  13.735
31735SOL    HW297103  14.848  14.049  13.666
31736SOL     OW97104   5.420   8.680   3.743
31736SOL    HW197105   5.439   8.590   3.714
31736SOL    HW297106   5.362   8.669   3.818
31737SOL     OW97107  14.774   2.219  12.552
31737SOL    HW197108  14.696   2.196  12.603
31737SOL    HW297109  14.758   2.180  12.466
31738SOL     OW97110   6.099  11.958   8.063
31738SOL    HW197111   6.187  11.974   8.029
31738SOL    HW297112   6.093  11.863   8.069
31739SOL     OW97113   6.251   0.932   9.342
31739SOL    HW197114   6.253   0.937   9.438
31739SOL    HW297115   6.196   1.006   9.316
31740SOL     OW97116   4.379   6.861   2.152
31740SOL    HW197117   4.428   6.906   2.083
31740SOL    HW297118   4.406   6.904   2.233
31741SOL     OW97119   9.124  11.679   0.116
31741SOL    HW197120   9.068  11.727   0.178
31741SOL    HW297121   9.079  11.596   0.103
31742SOL     OW97122   6.197   5.087   0.230
31742SOL    HW197123   6.283   5.049   0.215
31742SOL    HW297124   6.213   5.182   0.236
31743SOL     OW97125   1.333   7.080   1.606
31743SOL    HW197126   1.357   7.004   1.659
31743SOL    HW297127   1.411   7.135   1.607
31744SOL     OW97128  10.377   2.304   5.573
31744SOL    HW197129  10.322   2.290   5.650
31744SOL    HW297130  10.323   2.274   5.500
31745SOL     OW97131  14.290   5.931  14.436
31745SOL    HW197132  14.327   5.919  14.348
31745SOL    HW297133  14.328   5.860  14.488
31746SOL     OW97134   9.513   0.468   7.710
31746SOL    HW197135   9.505   0.374   7.729
31746SOL    HW297136   9.606   0.480   7.690
31747SOL     OW97137   7.355  13.878  13.714
31747SOL    HW197138   7.262  13.872  13.733
31747SOL    HW297139   7.384  13.957  13.758
31748SOL     OW97140   4.453  12.578   2.885
31748SOL    HW197141   4.450  12.659   2.935
31748SOL    HW297142   4.515  12.595   2.814
31749SOL     OW97143   4.825   9.936   7.879
31749SOL    HW197144   4.909   9.899   7.854
31749SOL    HW297145   4.761   9.871   7.850
31750SOL     OW97146  10.335   5.491   4.559
31750SOL    HW197147  10.255   5.493   4.507
31750SOL    HW297148  10.306   5.494   4.650
31751SOL     OW97149   1.023   3.135   7.157
31751SOL    HW197150   1.071   3.165   7.235
31751SOL    HW297151   1.075   3.166   7.083
31752SOL     OW97152   6.723   7.858   6.917
31752SOL    HW197153   6.732   7.951   6.939
31752SOL    HW297154   6.806   7.836   6.874
31753SOL     OW97155   9.400   4.574   7.990
31753SOL    HW197156   9.440   4.653   8.027
31753SOL    HW297157   9.378   4.598   7.900
31754SOL     OW97158   0.980  11.180   4.254
31754SOL    HW197159   0.990  11.272   4.231
31754SOL    HW297160   0.887  11.169   4.270
31755SOL     OW97161  14.031   8.374   5.099
31755SOL    HW197162  14.061   8.339   5.183
31755SOL    HW297163  13.941   8.403   5.116
31756SOL     OW97164  12.500  13.139   6.838
31756SOL    HW197165  12.453  13.190   6.904
31756SOL    HW297166  12.443  13.064   6.821
31757SOL     OW97167   6.768  13.582   8.256
31757SOL    HW197168   6.843  13.618   8.304
31757SOL    HW297169   6.738  13.655   8.201
31758SOL     OW97170   7.261   3.411  14.224
31758SOL    HW197171   7.327   3.383  14.287
31758SOL    HW297172   7.247   3.504  14.243
31759SOL     OW97173   5.502  12.504   1.552
31759SOL    HW197174   5.593  12.524   1.576
31759SOL    HW297175   5.500  12.511   1.457
31760SOL     OW97176   6.642  14.450  13.001
31760SOL    HW197177   6.716  14.470  12.943
31760SOL    HW297178   6.576  14.516  12.978
31761SOL     OW97179   4.757  14.541   3.179
31761SOL    HW197180   4.738  14.576   3.092
31761SOL    HW297181   4.852  14.545   3.187
31762SOL     OW97182   1.226  12.507  11.291
31762SOL    HW197183   1.275  12.583  11.322
31762SOL    HW297184   1.135  12.539  11.284
31763SOL     OW97185   0.039   8.505   4.398
31763SOL    HW197186   0.073   8.571   4.338
31763SOL    HW297187  14.834   8.473   4.356
31764SOL     OW97188  14.354  14.247   2.527
31764SOL    HW197189  14.316  14.234   2.614
31764SOL    HW297190  14.432  14.300   2.542
31765SOL     OW97191   1.386  12.764   3.587
31765SOL    HW197192   1.448  12.698   3.620
31765SOL    HW297193   1.400  12.840   3.643
31766SOL     OW97194  10.309   3.433   5.074
31766SOL    HW197195  10.227   3.430   5.025
31766SOL    HW297196  10.294   3.378   5.150
31767SOL     OW97197   4.462   9.420  10.121
31767SOL    HW197198   4.464   9.377  10.207
31767SOL    HW297199   4.434   9.509  10.140
31768SOL     OW97200   0.396  13.505   5.842
31768SOL    HW197201   0.318  13.510   5.787
31768SOL    HW297202   0.363  13.523   5.931
31769SOL     OW97203   6.444   7.207   7.611
31769SOL    HW197204   6.507   7.275   7.635
31769SOL    HW297205   6.458   7.193   7.517
31770SOL     OW97206   6.067  14.537  13.879
31770SOL    HW197207   6.161  14.552  13.882
31770SOL    HW297208   6.055  14.449  13.917
31771SOL     OW97209   9.460   3.435   2.136
31771SOL    HW197210   9.478   3.387   2.217
31771SOL    HW297211   9.371   3.467   2.146
31772SOL     OW97212   2.111   3.864   2.949
31772SOL    HW197213   2.032   3.910   2.976
31772SOL    HW297214   2.127   3.894   2.859
31773SOL     OW97215  13.492   6.643  13.506
31773SOL    HW197216  13.521   6.554  13.528
31773SOL    HW297217  13.428   6.665  13.574
31774SOL     OW97218   6.935   6.341  12.862
31774SOL    HW197219   6.940   6.259  12.813
31774SOL    HW297220   6.986   6.403  12.809
31775SOL     OW97221   3.350  12.132  10.710
31775SOL    HW197222   3.403  12.170  10.639
31775SOL    HW297223   3.344  12.202  10.775
31776SOL     OW97224   6.366   6.374   5.036
31776SOL    HW197225   6.290   6.430   5.025
31776SOL    HW297226   6.370   6.323   4.956
31777SOL     OW97227   4.711   5.866   3.797
31777SOL    HW197228   4.750   5.804   3.858
31777SOL    HW297229   4.699   5.946   3.848
31778SOL     OW97230   2.960   9.249  14.796
31778SOL    HW197231   2.918   9.177  14.750
31778SOL    HW297232   3.032   9.275  14.738
31779SOL     OW97233   3.725  11.138  13.926
31779SOL    HW197234   3.717  11.200  13.999
31779SOL    HW297235   3.688  11.056  13.960
31780SOL     OW97236  13.644   8.385   0.939
31780SOL    HW197237  13.564   8.418   0.980
31780SOL    HW297238  13.653   8.295   0.971
31781SOL     OW97239  12.255  13.974   3.457
31781SOL    HW197240  12.277  14.067   3.469
31781SOL    HW297241  12.239  13.942   3.546
31782SOL     OW97242   3.104   6.294   5.024
31782SOL    HW197243   3.154   6.252   5.094
31782SOL    HW297244   3.127   6.246   4.945
31783SOL     OW97245   4.580   6.881  12.513
31783SOL    HW197246   4.654   6.939  12.530
31783SOL    HW297247   4.516   6.935  12.467
31784SOL     OW97248   2.776   4.667   1.732
31784SOL    HW197249   2.782   4.572   1.732
31784SOL    HW297250   2.769   4.691   1.639
31785SOL     OW97251   9.306   4.153  14.259
31785SOL    HW197252   9.321   4.133  14.166
31785SOL    HW297253   9.332   4.245  14.268
31786SOL     OW97254  12.033  12.241  11.118
31786SOL    HW197255  12.061  12.151  11.098
31786SOL    HW297256  12.110  12.282  11.157
31787SOL     OW97257  14.472   1.906   2.134
31787SOL    HW197258  14.555   1.947   2.109
31787SOL    HW297259  14.414   1.979   2.155
31788SOL     OW97260   6.639  13.371   1.099
31788SOL    HW197261   6.649  13.344   1.008
31788SOL    HW297262   6.718  13.338   1.142
31789SOL     OW97263  13.146  10.693   5.071
31789SOL    HW197264  13.060  10.733   5.059
31789SOL    HW297265  13.171  10.717   5.160
31790SOL     OW97266  12.635  13.613   8.811
31790SOL    HW197267  12.685  13.694   8.806
31790SOL    HW297268  12.651  13.581   8.900
31791SOL     OW97269  12.962  13.671   0.916
31791SOL    HW197270  12.909  13.609   0.865
31791SOL    HW297271  12.994  13.734   0.851
31792SOL     OW97272   6.054   0.752   6.249
31792SOL    HW197273   5.971   0.705   6.238
31792SOL    HW297274   6.030   0.844   6.243
31793SOL     OW97275   9.860  11.240   9.252
31793SOL    HW197276   9.925  11.311   9.249
31793SOL    HW297277   9.793  11.272   9.312
31794SOL     OW97278  10.492   5.134   3.323
31794SOL    HW197279  10.454   5.118   3.410
31794SOL    HW297280  10.426   5.185   3.277
31795SOL     OW97281   2.088   1.538   4.519
31795SOL    HW197282   2.020   1.473   4.533
31795SOL    HW297283   2.130   1.512   4.437
31796SOL     OW97284  11.010   0.295   5.364
31796SOL    HW197285  11.042   0.280   5.453
31796SOL    HW297286  11.046   0.381   5.340
31797SOL     OW97287  13.492   7.452   4.146
31797SOL    HW197288  13.463   7.521   4.206
31797SOL    HW297289  13.477   7.371   4.194
31798SOL     OW97290  12.955  12.567   7.836
31798SOL    HW197291  12.870  12.542   7.871
31798SOL    HW297292  12.941  12.655   7.800
31799SOL     OW97293   6.094   7.233  11.009
31799SOL    HW197294   6.179   7.250  11.049
31799SOL    HW297295   6.107   7.154  10.957
31800SOL     OW97296   4.496   8.945   3.958
31800SOL    HW197297   4.565   9.007   3.935
31800SOL    HW297298   4.456   8.921   3.874
31801SOL     OW97299  13.812   2.422  12.417
31801SOL    HW197300  13.832   2.404  12.509
31801SOL    HW297301  13.897   2.445  12.378
31802SOL     OW97302  14.811  11.574   2.749
31802SOL    HW197303  14.771  11.656   2.779
31802SOL    HW297304   0.024  11.599   2.721
31803SOL     OW97305  14.099   9.057  12.672
31803SOL    HW197306  14.093   9.004  12.593
31803SOL    HW297307  14.050   9.008  12.738
31804SOL     OW97308   6.805   0.300   5.627
31804SOL    HW197309   6.732   0.350   5.591
31804SOL    HW297310   6.864   0.286   5.552
31805SOL     OW97311  12.448   8.295  11.243
31805SOL    HW197312  12.539   8.325  11.233
31805SOL    HW297313  12.399   8.375  11.262
31806SOL     OW97314   1.502   7.071  13.501
31806SOL    HW197315   1.584   7.023  13.513
31806SOL    HW297316   1.505   7.140  13.567
31807SOL     OW97317  14.225   6.120  11.270
31807SOL    HW197318  14.201   6.073  11.190
31807SOL    HW297319  14.297   6.177  11.244
31808SOL     OW97320   0.031   9.716  11.915
31808SOL    HW197321   0.075   9.690  11.996
31808SOL    HW297322   0.039   9.640  11.858
31809SOL     OW97323  13.099   7.461  10.922
31809SOL    HW197324  13.051   7.386  10.959
31809SOL    HW297325  13.120   7.515  10.998
31810SOL     OW97326   7.854   8.314   8.108
31810SOL    HW197327   7.783   8.356   8.060
31810SOL    HW297328   7.825   8.314   8.199
31811SOL     OW97329   1.301   8.361  11.317
31811SOL    HW197330   1.278   8.343  11.409
31811SOL    HW297331   1.371   8.298  11.298
31812SOL     OW97332  13.172   0.671  14.874
31812SOL    HW197333  13.241   0.628  14.822
31812SOL    HW297334  13.117   0.714  14.809
31813SOL     OW97335   3.527   8.787   5.172
31813SOL    HW197336   3.559   8.758   5.258
31813SOL    HW297337   3.579   8.866   5.153
31814SOL     OW97338  13.656   2.149   2.217
31814SOL    HW197339  13.712   2.101   2.156
31814SOL    HW297340  13.568   2.144   2.178
31815SOL     OW97341   5.634  13.280   3.527
31815SOL    HW197342   5.566  13.343   3.551
31815SOL    HW297343   5.661  13.306   3.440
31816SOL     OW97344  14.540  14.800   2.630
31816SOL    HW197345  14.462  14.747   2.619
31816SOL    HW297346  14.607  14.738   2.661
31817SOL     OW97347  10.632   3.006   2.749
31817SOL    HW197348  10.656   3.099   2.752
31817SOL    HW297349  10.556   2.999   2.807
31818SOL     OW97350  12.789  12.681   9.508
31818SOL    HW197351  12.796  12.608   9.447
31818SOL    HW297352  12.869  12.733   9.493
31819SOL     OW97353  12.625  13.026  14.100
31819SOL    HW197354  12.560  12.956  14.111
31819SOL    HW297355  12.669  13.005  14.018
31820SOL     OW97356   7.496  13.597  14.159
31820SOL    HW197357   7.437  13.667  14.130
31820SOL    HW297358   7.518  13.621  14.249
31821SOL     OW97359   6.935  11.582   4.361
31821SOL    HW197360   6.839  11.582   4.352
31821SOL    HW297361   6.965  11.521   4.293
31822SOL     OW97362   1.069   1.037   6.112
31822SOL    HW197363   0.991   0.982   6.115
31822SOL    HW297364   1.040   1.118   6.070
31823SOL     OW97365   8.754   7.017   4.413
31823SOL    HW197366   8.824   7.082   4.409
31823SOL    HW297367   8.764   6.977   4.499
31824SOL     OW97368  11.102  12.003   4.167
31824SOL    HW197369  11.021  12.043   4.199
31824SOL    HW297370  11.171  12.042   4.221
31825SOL     OW97371  12.118   7.084   4.009
31825SOL    HW197372  12.169   7.110   3.932
31825SOL    HW297373  12.085   6.997   3.988
31826SOL     OW97374   5.907   3.061   1.159
31826SOL    HW197375   5.821   3.084   1.193
31826SOL    HW297376   5.952   3.145   1.146
31827SOL     OW97377   2.929  11.196   6.296
31827SOL    HW197378   2.960  11.205   6.386
31827SOL    HW297379   3.006  11.171   6.246
31828SOL     OW97380  10.847   0.254   4.861
31828SOL    HW197381  10.752   0.243   4.866
31828SOL    HW297382  10.861   0.301   4.778
31829SOL     OW97383  12.299   9.668  14.135
31829SOL    HW197384  12.265   9.604  14.073
31829SOL    HW297385  12.386   9.636  14.159
31830SOL     OW97386  14.869   1.040  14.069
31830SOL    HW197387   0.032   0.964  14.025
31830SOL    HW297388  14.872   1.019  14.162
31831SOL     OW97389   4.144   3.882   9.034
31831SOL    HW197390   4.190   3.966   9.041
31831SOL    HW297391   4.205   3.818   9.070
31832SOL     OW97392   7.477   6.509   6.446
31832SOL    HW197393   7.421   6.484   6.520
31832SOL    HW297394   7.429   6.579   6.403
31833SOL     OW97395   4.802  10.918   9.277
31833SOL    HW197396   4.862  10.927   9.350
31833SOL    HW297397   4.842  10.968   9.206
31834SOL     OW97398   9.070  14.281  11.495
31834SOL    HW197399   9.058  14.231  11.414
31834SOL    HW297400   8.999  14.252  11.552
31835SOL     OW97401  10.353   3.649   0.338
31835SOL    HW197402  10.267   3.686   0.360
31835SOL    HW297403  10.351   3.561   0.376
31836SOL     OW97404   6.543   2.766   7.640
31836SOL    HW197405   6.477   2.833   7.657
31836SOL    HW297406   6.600   2.805   7.574
31837SOL     OW97407   0.606   8.418   2.350
31837SOL    HW197408   0.606   8.377   2.264
31837SOL    HW297409   0.678   8.375   2.397
31838SOL     OW97410   0.255   5.599   7.599
31838SOL    HW197411   0.336   5.554   7.625
31838SOL    HW297412   0.191   5.570   7.664
31839SOL     OW97413  10.171  12.528  14.108
31839SOL    HW197414  10.080  12.541  14.135
31839SOL    HW297415  10.168  12.525  14.013
31840SOL     OW97416  13.251  12.318   6.336
31840SOL    HW197417  13.270  12.410   6.321
31840SOL    HW297418  13.168  12.317   6.383
31841SOL     OW97419   5.519  13.630   7.925
31841SOL    HW197420   5.516  13.604   8.017
31841SOL    HW297421   5.434  13.603   7.889
31842SOL     OW97422  11.978  11.981   6.845
31842SOL    HW197423  11.916  11.926   6.798
31842SOL    HW297424  11.956  12.070   6.820
31843SOL     OW97425  13.418   4.430   4.074
31843SOL    HW197426  13.362   4.362   4.112
31843SOL    HW297427  13.507   4.397   4.086
31844SOL     OW97428   1.842   9.763   9.708
31844SOL    HW197429   1.896   9.700   9.660
31844SOL    HW297430   1.866   9.751   9.799
31845SOL     OW97431  12.691   8.183   3.493
31845SOL    HW197432  12.680   8.089   3.476
31845SOL    HW297433  12.746   8.187   3.571
31846SOL     OW97434   8.229   7.029   9.160
31846SOL    HW197435   8.217   6.937   9.140
31846SOL    HW297436   8.252   7.031   9.253
31847SOL     OW97437   1.485   8.537  13.112
31847SOL    HW197438   1.518   8.615  13.158
31847SOL    HW297439   1.496   8.466  13.175
31848SOL     OW97440   8.268   9.055   8.450
31848SOL    HW197441   8.242   9.041   8.359
31848SOL    HW297442   8.188   9.085   8.494
31849SOL     OW97443   4.683   2.354   6.799
31849SOL    HW197444   4.611   2.312   6.752
31849SOL    HW297445   4.647   2.373   6.886
31850SOL     OW97446  14.313  12.826  13.625
31850SOL    HW197447  14.303  12.792  13.536
31850SOL    HW297448  14.289  12.919  13.618
31851SOL     OW97449  13.818   0.252   0.141
31851SOL    HW197450  13.884   0.183   0.153
31851SOL    HW297451  13.782   0.265   0.228
31852SOL     OW97452   4.153  13.550  14.547
31852SOL    HW197453   4.083  13.616  14.548
31852SOL    HW297454   4.169  13.531  14.639
31853SOL     OW97455   1.591   0.697   7.137
31853SOL    HW197456   1.643   0.617   7.129
31853SOL    HW297457   1.641   0.763   7.088
31854SOL     OW97458   7.662   1.133   3.199
31854SOL    HW197459   7.734   1.079   3.168
31854SOL    HW297460   7.654   1.110   3.292
31855SOL     OW97461   8.217  13.043   4.251
31855SOL    HW197462   8.224  12.971   4.314
31855SOL    HW297463   8.222  13.123   4.304
31856SOL     OW97464  13.951   7.687   7.578
31856SOL    HW197465  13.987   7.608   7.539
31856SOL    HW297466  13.861   7.664   7.600
31857SOL     OW97467   5.093   6.494   2.334
31857SOL    HW197468   5.067   6.402   2.343
31857SOL    HW297469   5.154   6.509   2.407
31858SOL     OW97470   2.848   2.880   3.328
31858SOL    HW197471   2.935   2.872   3.367
31858SOL    HW297472   2.791   2.902   3.402
31859SOL     OW97473  11.044   8.242  14.412
31859SOL    HW197474  10.998   8.187  14.348
31859SOL    HW297475  11.128   8.261  14.370
31860SOL     OW97476   3.903  13.948  11.025
31860SOL    HW197477   3.911  14.004  11.102
31860SOL    HW297478   3.965  13.986  10.962
31861SOL     OW97479   1.151   4.825   5.748
31861SOL    HW197480   1.206   4.877   5.806
31861SOL    HW297481   1.191   4.835   5.661
31862SOL     OW97482  14.464   8.288  12.828
31862SOL    HW197483  14.490   8.368  12.783
31862SOL    HW297484  14.515   8.288  12.909
31863SOL     OW97485   2.618   0.257   5.851
31863SOL    HW197486   2.646   0.253   5.760
31863SOL    HW297487   2.595   0.349   5.865
31864SOL     OW97488  12.891   3.490   0.140
31864SOL    HW197489  12.804   3.460   0.113
31864SOL    HW297490  12.915   3.555   0.074
31865SOL     OW97491   7.850   3.664   7.140
31865SOL    HW197492   7.773   3.607   7.136
31865SOL    HW297493   7.856   3.701   7.052
31866SOL     OW97494   9.172   8.779   9.982
31866SOL    HW197495   9.078   8.794   9.992
31866SOL    HW297496   9.179   8.731   9.899
31867SOL     OW97497   8.767  12.275   9.948
31867SOL    HW197498   8.774  12.339  10.019
31867SOL    HW297499   8.674  12.250   9.947
31868SOL     OW97500   4.920  11.822   7.800
31868SOL    HW197501   4.984  11.762   7.840
31868SOL    HW297502   4.836  11.792   7.834
31869SOL     OW97503  13.519  13.966  10.589
31869SOL    HW197504  13.563  13.891  10.548
31869SOL    HW297505  13.427  13.940  10.593
31870SOL     OW97506   7.616   4.338   4.104
31870SOL    HW197507   7.676   4.317   4.175
31870SOL    HW297508   7.605   4.255   4.056
31871SOL     OW97509   1.119  14.322  10.826
31871SOL    HW197510   1.166  14.345  10.745
31871SOL    HW297511   1.118  14.226  10.826
31872SOL     OW97512  13.758  12.533  10.592
31872SOL    HW197513  13.808  12.535  10.674
31872SOL    HW297514  13.775  12.446  10.556
31873SOL     OW97515  10.829   8.728   2.273
31873SOL    HW197516  10.910   8.778   2.282
31873SOL    HW297517  10.849   8.660   2.209
31874SOL     OW97518   6.653  12.060   0.295
31874SOL    HW197519   6.568  12.048   0.252
31874SOL    HW297520   6.696  11.975   0.286
31875SOL     OW97521   5.554   6.495  11.650
31875SOL    HW197522   5.583   6.438  11.722
31875SOL    HW297523   5.600   6.462  11.573
31876SOL     OW97524  11.134   8.670  13.203
31876SOL    HW197525  11.109   8.662  13.111
31876SOL    HW297526  11.186   8.750  13.206
31877SOL     OW97527   9.699   6.602   0.105
31877SOL    HW197528   9.617   6.552   0.105
31877SOL    HW297529   9.731   6.596   0.195
31878SOL     OW97530  11.671  14.835   3.649
31878SOL    HW197531  11.705   0.048   3.664
31878SOL    HW297532  11.593  14.830   3.703
31879SOL     OW97533  14.260  11.976   9.248
31879SOL    HW197534  14.204  11.930   9.311
31879SOL    HW297535  14.221  12.064   9.241
31880SOL     OW97536   4.718   4.757   7.568
31880SOL    HW197537   4.793   4.698   7.573
31880SOL    HW297538   4.730   4.817   7.641
31881SOL     OW97539   1.304   6.313   3.885
31881SOL    HW197540   1.380   6.301   3.828
31881SOL    HW297541   1.331   6.381   3.947
31882SOL     OW97542  14.697   6.431   0.022
31882SOL    HW197543  14.692   6.507  14.840
31882SOL    HW297544  14.718   6.467   0.108
31883SOL     OW97545  13.243  13.052   8.158
31883SOL    HW197546  13.246  13.028   8.251
31883SOL    HW297547  13.272  12.973   8.112
31884SOL     OW97548   4.476  10.469  13.091
31884SOL    HW197549   4.505  10.447  13.180
31884SOL    HW297550   4.505  10.560  13.079
31885SOL     OW97551   9.763   9.132   8.461
31885SOL    HW197552   9.839   9.183   8.434
31885SOL    HW297553   9.737   9.169   8.545
31886SOL     OW97554  12.286   9.633   8.737
31886SOL    HW197555  12.236   9.629   8.655
31886SOL    HW297556  12.222   9.617   8.806
31887SOL     OW97557   8.651   3.012   2.239
31887SOL    HW197558   8.685   2.979   2.323
31887SOL    HW297559   8.599   2.940   2.204
31888SOL     OW97560   2.846   2.593   8.585
31888SOL    HW197561   2.889   2.541   8.653
31888SOL    HW297562   2.875   2.682   8.602
31889SOL     OW97563   8.986   9.322  12.306
31889SOL    HW197564   8.989   9.264  12.382
31889SOL    HW297565   8.894   9.324  12.280
31890SOL     OW97566  11.523   9.906  11.223
31890SOL    HW197567  11.586   9.961  11.271
31890SOL    HW297568  11.575   9.832  11.193
31891SOL     OW97569   4.246  11.462   2.618
31891SOL    HW197570   4.330  11.427   2.591
31891SOL    HW297571   4.182  11.396   2.592
31892SOL     OW97572   4.394   7.740   0.992
31892SOL    HW197573   4.415   7.829   1.019
31892SOL    HW297574   4.413   7.687   1.069
31893SOL     OW97575   9.979   9.756   6.915
31893SOL    HW197576  10.007   9.823   6.977
31893SOL    HW297577   9.994   9.673   6.961
31894SOL     OW97578   9.870   0.365   1.129
31894SOL    HW197579   9.902   0.282   1.095
31894SOL    HW297580   9.924   0.382   1.207
31895SOL     OW97581   7.157  13.690  13.168
31895SOL    HW197582   7.148  13.772  13.119
31895SOL    HW297583   7.225  13.708  13.233
31896SOL     OW97584  12.729   8.722  11.693
31896SOL    HW197585  12.767   8.794  11.745
31896SOL    HW297586  12.802   8.688  11.642
31897SOL     OW97587   6.894   5.704   5.384
31897SOL    HW197588   6.889   5.618   5.427
31897SOL    HW297589   6.812   5.747   5.408
31898SOL     OW97590   5.217  10.759   4.009
31898SOL    HW197591   5.223  10.833   4.068
31898SOL    HW297592   5.175  10.794   3.930
31899SOL     OW97593   7.828   9.949   9.370
31899SOL    HW197594   7.876  10.029   9.349
31899SOL    HW297595   7.799   9.915   9.285
31900SOL     OW97596   9.307  11.757   1.933
31900SOL    HW197597   9.229  11.705   1.946
31900SOL    HW297598   9.371  11.722   1.995
31901SOL     OW97599   3.050   7.243   0.988
31901SOL    HW197600   3.004   7.214   1.067
31901SOL    HW297601   3.124   7.183   0.980
31902SOL     OW97602  13.424   0.874  11.441
31902SOL    HW197603  13.484   0.851  11.511
31902SOL    HW297604  13.383   0.792  11.416
31903SOL     OW97605   5.766   6.538  11.864
31903SOL    HW197606   5.745   6.452  11.828
31903SOL    HW297607   5.862   6.542  11.862
31904SOL     OW97608   1.984   2.622   5.551
31904SOL    HW197609   2.077   2.644   5.554
31904SOL    HW297610   1.967   2.576   5.633
31905SOL     OW97611   0.096  11.112   9.889
31905SOL    HW197612   0.046  11.071   9.818
31905SOL    HW297613   0.107  11.203   9.862
31906SOL     OW97614   4.205  11.813  13.526
31906SOL    HW197615   4.147  11.757  13.474
31906SOL    HW297616   4.155  11.893  13.540
31907SOL     OW97617   3.395   1.828   5.338
31907SOL    HW197618   3.333   1.900   5.333
31907SOL    HW297619   3.481   1.870   5.341
31908SOL     OW97620  12.905   7.696  10.838
31908SOL    HW197621  12.821   7.650  10.837
31908SOL    HW297622  12.946   7.673  10.754
31909SOL     OW97623   3.300   7.392  12.295
31909SOL    HW197624   3.236   7.464  12.295
31909SOL    HW297625   3.344   7.400  12.380
31910SOL     OW97626   4.849   2.563  14.421
31910SOL    HW197627   4.884   2.527  14.503
31910SOL    HW297628   4.835   2.486  14.366
31911SOL     OW97629  12.119   8.418   5.790
31911SOL    HW197630  12.099   8.504   5.826
31911SOL    HW297631  12.049   8.402   5.725
31912SOL     OW97632   2.666  12.100   8.840
31912SOL    HW197633   2.583  12.129   8.804
31912SOL    HW297634   2.703  12.177   8.882
31913SOL     OW97635   3.226   1.825   9.849
31913SOL    HW197636   3.207   1.791   9.761
31913SOL    HW297637   3.203   1.753   9.908
31914SOL     OW97638   0.162   5.990   7.598
31914SOL    HW197639   0.095   5.945   7.651
31914SOL    HW297640   0.142   5.964   7.508
31915SOL     OW97641   6.933   2.521  13.514
31915SOL    HW197642   6.899   2.515  13.603
31915SOL    HW297643   6.855   2.519  13.459
31916SOL     OW97644   9.983   4.586   1.498
31916SOL    HW197645  10.047   4.549   1.559
31916SOL    HW297646  10.030   4.594   1.415
31917SOL     OW97647  11.433   5.378   2.258
31917SOL    HW197648  11.481   5.460   2.248
31917SOL    HW297649  11.500   5.310   2.261
31918SOL     OW97650   5.381   7.023  10.787
31918SOL    HW197651   5.328   6.988  10.716
31918SOL    HW297652   5.321   7.033  10.861
31919SOL     OW97653   5.593  11.871   0.821
31919SOL    HW197654   5.509  11.914   0.804
31919SOL    HW297655   5.578  11.779   0.797
31920SOL     OW97656   6.425   3.775   6.667
31920SOL    HW197657   6.447   3.696   6.716
31920SOL    HW297658   6.371   3.826   6.727
31921SOL     OW97659   9.793   7.900   4.654
31921SOL    HW197660   9.768   7.848   4.577
31921SOL    HW297661   9.820   7.984   4.618
31922SOL     OW97662  14.057   3.807  14.364
31922SOL    HW197663  14.018   3.839  14.282
31922SOL    HW297664  14.083   3.887  14.411
31923SOL     OW97665   0.591  13.932   7.789
31923SOL    HW197666   0.580  13.867   7.719
31923SOL    HW297667   0.679  13.967   7.776
31924SOL     OW97668   0.700   4.670  10.052
31924SOL    HW197669   0.680   4.658   9.959
31924SOL    HW297670   0.614   4.680  10.094
31925SOL     OW97671   3.338  13.923   6.419
31925SOL    HW197672   3.417  13.976   6.423
31925SOL    HW297673   3.368  13.838   6.388
31926SOL     OW97674   3.129   6.903  10.439
31926SOL    HW197675   3.059   6.966  10.457
31926SOL    HW297676   3.112   6.831  10.499
31927SOL     OW97677   3.639   1.998   5.065
31927SOL    HW197678   3.668   1.998   4.974
31927SOL    HW297679   3.559   1.946   5.065
31928SOL     OW97680  14.556  14.253   9.514
31928SOL    HW197681  14.623  14.194   9.547
31928SOL    HW297682  14.514  14.205   9.443
31929SOL     OW97683   4.621   1.440  12.972
31929SOL    HW197684   4.535   1.478  12.988
31929SOL    HW297685   4.617   1.408  12.881
31930SOL     OW97686   2.995   1.950  13.000
31930SOL    HW197687   3.057   1.991  12.940
31930SOL    HW297688   2.993   1.858  12.973
31931SOL     OW97689   4.379   9.685   5.659
31931SOL    HW197690   4.384   9.657   5.751
31931SOL    HW297691   4.302   9.741   5.655
31932SOL     OW97692   5.839  13.975   4.735
31932SOL    HW197693   5.789  14.048   4.771
31932SOL    HW297694   5.812  13.899   4.787
31933SOL     OW97695   2.841   4.169   2.330
31933SOL    HW197696   2.784   4.096   2.305
31933SOL    HW297697   2.908   4.172   2.262
31934SOL     OW97698   4.855  14.655   3.537
31934SOL    HW197699   4.806  14.710   3.597
31934SOL    HW297700   4.796  14.582   3.517
31935SOL     OW97701   4.240  12.630  12.495
31935SOL    HW197702   4.326  12.667  12.478
31935SOL    HW297703   4.243  12.603  12.587
31936SOL     OW97704   7.226   1.371  12.016
31936SOL    HW197705   7.184   1.454  11.992
31936SOL    HW297706   7.199   1.310  11.947
31937SOL     OW97707  11.677   0.446  10.666
31937SOL    HW197708  11.602   0.404  10.708
31937SOL    HW297709  11.734   0.471  10.739
31938SOL     OW97710  10.734  11.381  12.970
31938SOL    HW197711  10.789  11.382  12.892
31938SOL    HW297712  10.746  11.467  13.009
31939SOL     OW97713   0.831   9.827   7.395
31939SOL    HW197714   0.885   9.790   7.326
31939SOL    HW297715   0.883   9.900   7.430
31940SOL     OW97716  13.827   8.268   8.198
31940SOL    HW197717  13.738   8.272   8.163
31940SOL    HW297718  13.825   8.325   8.274
31941SOL     OW97719  11.281   4.805   5.178
31941SOL    HW197720  11.301   4.802   5.085
31941SOL    HW297721  11.311   4.720   5.212
31942SOL     OW97722  14.554   2.094   4.368
31942SOL    HW197723  14.475   2.124   4.324
31942SOL    HW297724  14.587   2.024   4.311
31943SOL     OW97725   1.045   8.250   4.846
31943SOL    HW197726   0.975   8.308   4.817
31943SOL    HW297727   1.000   8.168   4.868
31944SOL     OW97728   3.392  12.232   8.589
31944SOL    HW197729   3.482  12.202   8.591
31944SOL    HW297730   3.388  12.302   8.654
31945SOL     OW97731   3.099   3.598   1.948
31945SOL    HW197732   3.153   3.676   1.937
31945SOL    HW297733   3.049   3.591   1.866
31946SOL     OW97734  13.494  10.453   3.372
31946SOL    HW197735  13.569  10.497   3.413
31946SOL    HW297736  13.524  10.364   3.356
31947SOL     OW97737   0.474   1.373   8.572
31947SOL    HW197738   0.519   1.448   8.533
31947SOL    HW297739   0.450   1.318   8.497
31948SOL     OW97740   2.009   9.150   3.935
31948SOL    HW197741   2.018   9.228   3.989
31948SOL    HW297742   2.095   9.137   3.895
31949SOL     OW97743   2.488   8.942  10.588
31949SOL    HW197744   2.511   8.994  10.665
31949SOL    HW297745   2.400   8.911  10.606
31950SOL     OW97746   7.297   5.242   1.313
31950SOL    HW197747   7.324   5.151   1.299
31950SOL    HW297748   7.306   5.256   1.407
31951SOL     OW97749   0.389  14.692   3.125
31951SOL    HW197750   0.303  14.687   3.084
31951SOL    HW297751   0.375  14.743   3.205
31952SOL     OW97752   0.872   1.126   7.938
31952SOL    HW197753   0.928   1.093   8.008
31952SOL    HW297754   0.786   1.091   7.957
31953SOL     OW97755  12.365   1.512   0.392
31953SOL    HW197756  12.280   1.500   0.350
31953SOL    HW297757  12.346   1.506   0.486
31954SOL     OW97758  10.147   8.044   1.415
31954SOL    HW197759  10.155   8.139   1.410
31954SOL    HW297760  10.096   8.028   1.494
31955SOL     OW97761   3.201   9.265  14.668
31955SOL    HW197762   3.278   9.208  14.659
31955SOL    HW297763   3.237   9.353  14.667
31956SOL     OW97764  13.170  11.955   6.829
31956SOL    HW197765  13.232  12.026   6.847
31956SOL    HW297766  13.116  11.987   6.757
31957SOL     OW97767  13.936  12.662   4.934
31957SOL    HW197768  13.863  12.700   4.984
31957SOL    HW297769  13.956  12.580   4.980
31958SOL     OW97770   7.704  10.847   1.038
31958SOL    HW197771   7.652  10.794   1.098
31958SOL    HW297772   7.791  10.849   1.077
31959SOL     OW97773  10.688   7.472   9.297
31959SOL    HW197774  10.754   7.451   9.231
31959SOL    HW297775  10.737   7.479   9.379
31960SOL     OW97776  12.408   2.270   3.909
31960SOL    HW197777  12.329   2.225   3.939
31960SOL    HW297778  12.477   2.204   3.916
31961SOL     OW97779   2.735   6.058   8.033
31961SOL    HW197780   2.715   6.151   8.019
31961SOL    HW297781   2.818   6.045   7.987
31962SOL     OW97782   7.848  14.140   5.623
31962SOL    HW197783   7.795  14.146   5.543
31962SOL    HW297784   7.925  14.194   5.605
31963SOL     OW97785   0.889  14.869   9.445
31963SOL    HW197786   0.802  14.838   9.418
31963SOL    HW297787   0.891   0.086   9.421
31964SOL     OW97788  11.555   1.038  10.034
31964SOL    HW197789  11.591   1.032   9.946
31964SOL    HW297790  11.460   1.042  10.021
31965SOL     OW97791   3.811   7.904   3.082
31965SOL    HW197792   3.743   7.907   3.149
31965SOL    HW297793   3.891   7.884   3.131
31966SOL     OW97794   4.871  14.051   8.600
31966SOL    HW197795   4.794  14.007   8.635
31966SOL    HW297796   4.871  14.030   8.507
31967SOL     OW97797   9.169   9.603  12.879
31967SOL    HW197798   9.179   9.539  12.950
31967SOL    HW297799   9.154   9.686  12.924
31968SOL     OW97800  10.010   8.089   4.814
31968SOL    HW197801  10.081   8.067   4.873
31968SOL    HW297802   9.939   8.030   4.838
31969SOL     OW97803  10.600   3.325   6.601
31969SOL    HW197804  10.631   3.235   6.612
31969SOL    HW297805  10.594   3.360   6.690
31970SOL     OW97806   1.326  11.968   9.785
31970SOL    HW197807   1.402  12.025   9.797
31970SOL    HW297808   1.259  12.005   9.843
31971SOL     OW97809   6.860   5.938  12.099
31971SOL    HW197810   6.867   5.977  12.012
31971SOL    HW297811   6.772   5.901  12.101
31972SOL     OW97812   5.551   6.013  10.812
31972SOL    HW197813   5.589   6.079  10.870
31972SOL    HW297814   5.571   5.930  10.855
31973SOL     OW97815  11.502   9.111  11.817
31973SOL    HW197816  11.488   9.059  11.738
31973SOL    HW297817  11.550   9.188  11.787
31974SOL     OW97818  11.027   8.447   9.402
31974SOL    HW197819  11.111   8.441   9.449
31974SOL    HW297820  11.031   8.532   9.358
31975SOL     OW97821   2.381   5.722   5.372
31975SOL    HW197822   2.471   5.755   5.361
31975SOL    HW297823   2.359   5.683   5.288
31976SOL     OW97824   8.847  10.020   6.826
31976SOL    HW197825   8.803  10.030   6.742
31976SOL    HW297826   8.854  10.109   6.860
31977SOL     OW97827   3.548   4.744   1.618
31977SOL    HW197828   3.501   4.776   1.695
31977SOL    HW297829   3.485   4.689   1.572
31978SOL     OW97830  12.592   8.351   9.848
31978SOL    HW197831  12.520   8.288   9.837
31978SOL    HW297832  12.626   8.333   9.935
31979SOL     OW97833   5.169   7.844   9.451
31979SOL    HW197834   5.090   7.895   9.431
31979SOL    HW297835   5.135   7.758   9.478
31980SOL     OW97836   5.874  10.768   5.129
31980SOL    HW197837   5.804  10.720   5.174
31980SOL    HW297838   5.939  10.702   5.107
31981SOL     OW97839   1.308   7.932   5.294
31981SOL    HW197840   1.344   7.877   5.225
31981SOL    HW297841   1.238   7.982   5.251
31982SOL     OW97842   0.682   2.440   1.713
31982SOL    HW197843   0.752   2.394   1.666
31982SOL    HW297844   0.684   2.403   1.801
31983SOL     OW97845   3.974  11.333   3.753
31983SOL    HW197846   4.060  11.360   3.784
31983SOL    HW297847   3.936  11.412   3.716
31984SOL     OW97848   1.748   0.622   1.424
31984SOL    HW197849   1.729   0.616   1.517
31984SOL    HW297850   1.748   0.532   1.393
31985SOL     OW97851  12.107   9.109  10.405
31985SOL    HW197852  12.017   9.139  10.421
31985SOL    HW297853  12.139   9.165  10.334
31986SOL     OW97854   8.546   5.333   5.450
31986SOL    HW197855   8.618   5.366   5.396
31986SOL    HW297856   8.589   5.299   5.529
31987SOL     OW97857   9.580   1.465   0.336
31987SOL    HW197858   9.593   1.384   0.286
31987SOL    HW297859   9.520   1.439   0.406
31988SOL     OW97860   2.393   4.003   7.749
31988SOL    HW197861   2.332   4.038   7.814
31988SOL    HW297862   2.340   3.943   7.696
31989SOL     OW97863   2.469   5.795   3.721
31989SOL    HW197864   2.393   5.839   3.759
31989SOL    HW297865   2.512   5.862   3.668
31990SOL     OW97866   2.698   3.332   9.338
31990SOL    HW197867   2.780   3.314   9.290
31990SOL    HW297868   2.643   3.376   9.273
31991SOL     OW97869   8.513  12.275  10.626
31991SOL    HW197870   8.561  12.198  10.593
31991SOL    HW297871   8.582  12.338  10.647
31992SOL     OW97872   2.762  11.340   6.564
31992SOL    HW197873   2.687  11.373   6.514
31992SOL    HW297874   2.740  11.249   6.584
31993SOL     OW97875   1.390  11.953   8.493
31993SOL    HW197876   1.441  12.030   8.466
31993SOL    HW297877   1.349  11.923   8.412
31994SOL     OW97878   4.982   0.263   2.351
31994SOL    HW197879   4.965   0.224   2.436
31994SOL    HW297880   5.074   0.287   2.353
31995SOL     OW97881   9.039   7.045   2.510
31995SOL    HW197882   8.976   7.114   2.531
31995SOL    HW297883   9.112   7.091   2.469
31996SOL     OW97884   8.359   6.326  13.218
31996SOL    HW197885   8.413   6.309  13.141
31996SOL    HW297886   8.299   6.395  13.190
31997SOL     OW97887   9.164  13.696   3.073
31997SOL    HW197888   9.163  13.610   3.115
31997SOL    HW297889   9.248  13.699   3.027
31998SOL     OW97890   4.668   8.669   1.558
31998SOL    HW197891   4.712   8.605   1.503
31998SOL    HW297892   4.584   8.683   1.514
31999SOL     OW97893   6.179   2.430  13.691
31999SOL    HW197894   6.129   2.355  13.720
31999SOL    HW297895   6.141   2.504  13.738
32000SOL     OW97896   4.155  12.072  12.675
32000SOL    HW197897   4.168  12.046  12.584
32000SOL    HW297898   4.243  12.074  12.713
32001SOL     OW97899  11.785   8.703   3.226
32001SOL    HW197900  11.690   8.716   3.234
32001SOL    HW297901  11.796   8.665   3.139
32002SOL     OW97902   2.941   9.720   5.081
32002SOL    HW197903   2.867   9.773   5.054
32002SOL    HW297904   2.923   9.699   5.173
32003SOL     OW97905  13.611   4.940  12.430
32003SOL    HW197906  13.697   4.947  12.389
32003SOL    HW297907  13.593   4.846  12.433
32004SOL     OW97908   1.604  14.241  12.929
32004SOL    HW197909   1.567  14.181  12.864
32004SOL    HW297910   1.528  14.280  12.972
32005SOL     OW97911   0.109   7.627   3.581
32005SOL    HW197912   0.111   7.630   3.676
32005SOL    HW297913   0.195   7.660   3.554
32006SOL     OW97914   8.033   8.753   6.736
32006SOL    HW197915   7.953   8.700   6.743
32006SOL    HW297916   8.073   8.748   6.823
32007SOL     OW97917   4.028   9.853   9.548
32007SOL    HW197918   3.981   9.824   9.626
32007SOL    HW297919   4.071   9.774   9.515
32008SOL     OW97920   7.452  11.167   9.703
32008SOL    HW197921   7.529  11.223   9.708
32008SOL    HW297922   7.396  11.196   9.775
32009SOL     OW97923  14.291  10.996  13.019
32009SOL    HW197924  14.306  10.987  13.113
32009SOL    HW297925  14.295  10.906  12.986
32010SOL     OW97926   3.314  14.442   8.665
32010SOL    HW197927   3.394  14.399   8.695
32010SOL    HW297928   3.244  14.381   8.688
32011SOL     OW97929   2.530   2.625   1.133
32011SOL    HW197930   2.575   2.679   1.197
32011SOL    HW297931   2.484   2.687   1.076
32012SOL     OW97932   6.759   9.084  10.068
32012SOL    HW197933   6.701   9.148  10.027
32012SOL    HW297934   6.732   9.000  10.032
32013SOL     OW97935   7.205  13.577   3.828
32013SOL    HW197936   7.239  13.496   3.790
32013SOL    HW297937   7.269  13.599   3.897
32014SOL     OW97938  14.127   1.942   1.693
32014SOL    HW197939  14.141   1.850   1.714
32014SOL    HW297940  14.067   1.973   1.762
32015SOL     OW97941   2.918  13.204   7.243
32015SOL    HW197942   2.892  13.152   7.319
32015SOL    HW297943   2.888  13.153   7.167
32016SOL     OW97944  11.596  12.897   2.608
32016SOL    HW197945  11.665  12.956   2.577
32016SOL    HW297946  11.526  12.956   2.636
32017SOL     OW97947  12.434   9.150  13.200
32017SOL    HW197948  12.480   9.150  13.116
32017SOL    HW297949  12.451   9.062  13.236
32018SOL     OW97950  14.373  14.549   5.548
32018SOL    HW197951  14.375  14.624   5.608
32018SOL    HW297952  14.363  14.473   5.605
32019SOL     OW97953   2.307   3.824   9.610
32019SOL    HW197954   2.365   3.832   9.535
32019SOL    HW297955   2.238   3.888   9.594
32020SOL     OW97956  10.660   0.308   6.246
32020SOL    HW197957  10.626   0.220   6.265
32020SOL    HW297958  10.605   0.340   6.175
32021SOL     OW97959   8.343   7.558  13.371
32021SOL    HW197960   8.262   7.530  13.329
32021SOL    HW297961   8.360   7.490  13.437
32022SOL     OW97962   6.261   4.891   6.647
32022SOL    HW197963   6.322   4.844   6.703
32022SOL    HW297964   6.280   4.859   6.558
32023SOL     OW97965   8.845   1.759   7.049
32023SOL    HW197966   8.921   1.753   7.106
32023SOL    HW297967   8.877   1.803   6.970
32024SOL     OW97968   4.516  10.235   0.436
32024SOL    HW197969   4.456  10.290   0.487
32024SOL    HW297970   4.527  10.156   0.489
32025SOL     OW97971  10.296  11.806   1.294
32025SOL    HW197972  10.351  11.750   1.239
32025SOL    HW297973  10.350  11.883   1.312
32026SOL     OW97974   8.849  10.985  14.641
32026SOL    HW197975   8.858  10.919  14.573
32026SOL    HW297976   8.924  11.043  14.628
32027SOL     OW97977  14.053   4.651   5.015
32027SOL    HW197978  14.029   4.610   4.932
32027SOL    HW297979  14.095   4.733   4.990
32028SOL     OW97980  11.527   6.355   5.024
32028SOL    HW197981  11.541   6.274   4.975
32028SOL    HW297982  11.439   6.383   4.997
32029SOL     OW97983   0.530   5.718   6.948
32029SOL    HW197984   0.566   5.637   6.983
32029SOL    HW297985   0.541   5.782   7.018
32030SOL     OW97986  10.969  13.095   1.593
32030SOL    HW197987  10.999  13.182   1.569
32030SOL    HW297988  10.902  13.074   1.527
32031SOL     OW97989   4.696   5.205   0.936
32031SOL    HW197990   4.761   5.226   0.869
32031SOL    HW297991   4.719   5.116   0.964
32032SOL     OW97992   4.374  10.975  12.556
32032SOL    HW197993   4.390  10.881  12.567
32032SOL    HW297994   4.290  10.979  12.510
32033SOL     OW97995   9.813  13.675  12.587
32033SOL    HW197996   9.806  13.655  12.680
32033SOL    HW297997   9.884  13.740  12.582
32034SOL     OW97998  11.407   6.372   2.727
32034SOL    HW197999  11.497   6.390   2.702
32034SOL    HW298000  11.414   6.332   2.814
32035SOL     OW98001  13.792  10.383   0.153
32035SOL    HW198002  13.769  10.454   0.213
32035SOL    HW298003  13.872  10.412   0.111
32036SOL     OW98004  14.330  14.539   6.608
32036SOL    HW198005  14.270  14.467   6.628
32036SOL    HW298006  14.400  14.529   6.672
32037SOL     OW98007   8.589  13.178   9.659
32037SOL    HW198008   8.532  13.110   9.624
32037SOL    HW298009   8.678  13.142   9.650
32038SOL     OW98010   3.566   9.152   0.776
32038SOL    HW198011   3.535   9.213   0.709
32038SOL    HW298012   3.647   9.116   0.741
32039SOL     OW98013   1.171   0.433   4.673
32039SOL    HW198014   1.225   0.363   4.709
32039SOL    HW298015   1.138   0.398   4.590
32040SOL     OW98016   7.944  12.504   1.618
32040SOL    HW198017   7.966  12.473   1.530
32040SOL    HW298018   7.956  12.428   1.674
32041SOL     OW98019  11.059   4.193   6.889
32041SOL    HW198020  10.995   4.140   6.842
32041SOL    HW298021  11.122   4.220   6.822
32042SOL     OW98022   9.482   0.545   2.073
32042SOL    HW198023   9.427   0.574   2.146
32042SOL    HW298024   9.429   0.480   2.027
32043SOL     OW98025   1.873   0.091   6.346
32043SOL    HW198026   1.932   0.165   6.356
32043SOL    HW298027   1.854   0.062   6.435
32044SOL     OW98028   0.046   4.536   3.768
32044SOL    HW198029   0.137   4.508   3.772
32044SOL    HW298030   0.016   4.533   3.859
32045SOL     OW98031   2.544  10.970   7.042
32045SOL    HW198032   2.605  10.934   7.108
32045SOL    HW298033   2.464  10.989   7.091
32046SOL     OW98034  12.946   7.832  10.575
32046SOL    HW198035  12.887   7.907  10.585
32046SOL    HW298036  12.888   7.756  10.568
32047SOL     OW98037  12.688   4.176   0.476
32047SOL    HW198038  12.775   4.199   0.507
32047SOL    HW298039  12.652   4.120   0.546
32048SOL     OW98040   5.733  11.334  12.861
32048SOL    HW198041   5.745  11.239  12.863
32048SOL    HW298042   5.761  11.360  12.773
32049SOL     OW98043   3.362  11.961  12.086
32049SOL    HW198044   3.446  11.925  12.113
32049SOL    HW298045   3.302  11.940  12.157
32050SOL     OW98046   5.334  11.046   6.102
32050SOL    HW198047   5.351  11.139   6.111
32050SOL    HW298048   5.263  11.040   6.037
32051SOL     OW98049   2.460  11.716   0.255
32051SOL    HW198050   2.379  11.697   0.303
32051SOL    HW298051   2.482  11.806   0.280
32052SOL     OW98052  10.061   0.796  10.850
32052SOL    HW198053   9.993   0.809  10.784
32052SOL    HW298054  10.018   0.814  10.933
32053SOL     OW98055   8.750  14.504   9.661
32053SOL    HW198056   8.769  14.446   9.587
32053SOL    HW298057   8.664  14.475   9.692
32054SOL     OW98058   3.639   4.721   6.183
32054SOL    HW198059   3.589   4.678   6.252
32054SOL    HW298060   3.725   4.736   6.222
32055SOL     OW98061   4.016   1.712   6.089
32055SOL    HW198062   3.955   1.762   6.035
32055SOL    HW298063   3.961   1.658   6.145
32056SOL     OW98064   6.275   9.272  11.303
32056SOL    HW198065   6.259   9.228  11.219
32056SOL    HW298066   6.302   9.201  11.362
32057SOL     OW98067   0.619  12.280   3.959
32057SOL    HW198068   0.680  12.221   4.002
32057SOL    HW298069   0.675  12.346   3.918
32058SOL     OW98070  10.281  12.740   9.184
32058SOL    HW198071  10.219  12.694   9.241
32058SOL    HW298072  10.263  12.706   9.096
32059SOL     OW98073   7.478  14.672   5.804
32059SOL    HW198074   7.406  14.727   5.772
32059SOL    HW298075   7.547  14.684   5.738
32060SOL     OW98076   2.906  14.809   8.152
32060SOL    HW198077   2.993  14.783   8.182
32060SOL    HW298078   2.873  14.733   8.105
32061SOL     OW98079  13.165   2.007   6.837
32061SOL    HW198080  13.100   2.072   6.860
32061SOL    HW298081  13.156   1.939   6.904
32062SOL     OW98082   2.482   4.064   2.019
32062SOL    HW198083   2.387   4.066   2.035
32062SOL    HW298084   2.493   3.997   1.952
32063SOL     OW98085   5.604   6.983  14.758
32063SOL    HW198086   5.633   6.894  14.779
32063SOL    HW298087   5.682   7.037  14.773
32064SOL     OW98088   0.915   9.112   9.819
32064SOL    HW198089   0.873   9.033   9.852
32064SOL    HW298090   1.008   9.090   9.818
32065SOL     OW98091   3.059  11.805  13.799
32065SOL    HW198092   2.980  11.817  13.851
32065SOL    HW298093   3.100  11.891  13.795
32066SOL     OW98094   1.246   9.262   7.090
32066SOL    HW198095   1.189   9.220   7.026
32066SOL    HW298096   1.202   9.248   7.174
32067SOL     OW98097  12.408   2.736  11.314
32067SOL    HW198098  12.336   2.780  11.359
32067SOL    HW298099  12.373   2.716  11.227
32068SOL     OW98100   7.163   6.306   7.678
32068SOL    HW198101   7.163   6.400   7.656
32068SOL    HW298102   7.140   6.262   7.596
32069SOL     OW98103   9.524   8.631  14.720
32069SOL    HW198104   9.579   8.633  14.798
32069SOL    HW298105   9.434   8.634  14.753
32070SOL     OW98106   9.861  12.247   9.341
32070SOL    HW198107   9.851  12.246   9.246
32070SOL    HW298108   9.799  12.314   9.371
32071SOL     OW98109   2.466   7.478   2.113
32071SOL    HW198110   2.559   7.495   2.104
32071SOL    HW298111   2.424   7.564   2.101
32072SOL     OW98112   5.127  13.688  13.817
32072SOL    HW198113   5.050  13.730  13.854
32072SOL    HW298114   5.199  13.716  13.873
32073SOL     OW98115   4.212  12.246   8.408
32073SOL    HW198116   4.150  12.206   8.346
32073SOL    HW298117   4.266  12.303   8.353
32074SOL     OW98118   7.930   1.342   6.999
32074SOL    HW198119   7.928   1.431   7.035
32074SOL    HW298120   7.842   1.308   7.015
32075SOL     OW98121  12.182   7.863   4.290
32075SOL    HW198122  12.225   7.948   4.280
32075SOL    HW298123  12.142   7.866   4.376
32076SOL     OW98124   3.954   3.956   4.356
32076SOL    HW198125   4.017   3.902   4.308
32076SOL    HW298126   3.975   4.046   4.330
32077SOL     OW98127   4.781   4.626   0.074
32077SOL    HW198128   4.692   4.657   0.092
32077SOL    HW298129   4.818   4.607   0.160
32078SOL     OW98130  11.793   8.155   7.031
32078SOL    HW198131  11.852   8.175   7.104
32078SOL    HW298132  11.831   8.078   6.989
32079SOL     OW98133   6.928   6.777   0.250
32079SOL    HW198134   6.855   6.812   0.198
32079SOL    HW298135   7.006   6.819   0.212
32080SOL     OW98136  10.189  14.153  14.151
32080SOL    HW198137  10.160  14.197  14.070
32080SOL    HW298138  10.279  14.184  14.164
32081SOL     OW98139   0.180   6.541   9.502
32081SOL    HW198140   0.183   6.549   9.406
32081SOL    HW298141   0.109   6.599   9.529
32082SOL     OW98142  10.594  11.588   2.897
32082SOL    HW198143  10.669  11.533   2.916
32082SOL    HW298144  10.518  11.532   2.915
32083SOL     OW98145   1.497  11.275   8.494
32083SOL    HW198146   1.450  11.337   8.438
32083SOL    HW298147   1.461  11.189   8.469
32084SOL     OW98148   0.613  10.667   2.351
32084SOL    HW198149   0.688  10.634   2.302
32084SOL    HW298150   0.566  10.723   2.290
32085SOL     OW98151   5.071  14.492   0.090
32085SOL    HW198152   5.125  14.453   0.159
32085SOL    HW298153   5.096  14.585   0.089
32086SOL     OW98154   0.248   1.657  10.823
32086SOL    HW198155   0.199   1.681  10.745
32086SOL    HW298156   0.309   1.589  10.794
32087SOL     OW98157  10.897   2.494   2.410
32087SOL    HW198158  10.911   2.585   2.436
32087SOL    HW298159  10.823   2.465   2.464
32088SOL     OW98160  12.886  14.383  11.629
32088SOL    HW198161  12.844  14.382  11.715
32088SOL    HW298162  12.820  14.420  11.571
32089SOL     OW98163   2.446   8.291   6.678
32089SOL    HW198164   2.500   8.338   6.742
32089SOL    HW298165   2.493   8.299   6.596
32090SOL     OW98166  14.406   6.762  12.783
32090SOL    HW198167  14.343   6.783  12.714
32090SOL    HW298168  14.441   6.847  12.811
32091SOL     OW98169   9.170   4.410   0.402
32091SOL    HW198170   9.083   4.415   0.362
32091SOL    HW298171   9.229   4.397   0.328
32092SOL     OW98172   3.157  13.721   9.749
32092SOL    HW198173   3.171  13.812   9.725
32092SOL    HW298174   3.241  13.678   9.733
32093SOL     OW98175   1.983  10.849   9.731
32093SOL    HW198176   1.993  10.897   9.814
32093SOL    HW298177   1.913  10.787   9.749
32094SOL     OW98178  11.416   2.589  11.516
32094SOL    HW198179  11.361   2.608  11.592
32094SOL    HW298180  11.419   2.493  11.513
32095SOL     OW98181   7.511  11.983  14.868
32095SOL    HW198182   7.606  11.993  14.860
32095SOL    HW298183   7.476  12.069  14.843
32096SOL     OW98184  12.539   3.298   1.744
32096SOL    HW198185  12.547   3.204   1.763
32096SOL    HW298186  12.448   3.309   1.716
32097SOL     OW98187   5.529   8.884  12.686
32097SOL    HW198188   5.477   8.952  12.731
32097SOL    HW298189   5.599   8.933  12.642
32098SOL     OW98190   0.791   2.242   3.616
32098SOL    HW198191   0.734   2.294   3.672
32098SOL    HW298192   0.833   2.306   3.559
32099SOL     OW98193  13.724  13.954  14.473
32099SOL    HW198194  13.716  13.878  14.530
32099SOL    HW298195  13.646  13.950  14.417
32100SOL     OW98196   4.666   0.809  12.869
32100SOL    HW198197   4.758   0.786  12.859
32100SOL    HW298198   4.637   0.762  12.947
32101SOL     OW98199  13.714  10.533  14.135
32101SOL    HW198200  13.695  10.622  14.107
32101SOL    HW298201  13.634  10.484  14.117
32102SOL     OW98202   6.439   4.985  13.480
32102SOL    HW198203   6.414   4.985  13.388
32102SOL    HW298204   6.405   5.068  13.514
32103SOL     OW98205   8.141   3.419  13.912
32103SOL    HW198206   8.230   3.387  13.899
32103SOL    HW298207   8.126   3.480  13.839
32104SOL     OW98208   2.869   9.409  10.819
32104SOL    HW198209   2.876   9.495  10.779
32104SOL    HW298210   2.777   9.400  10.842
32105SOL     OW98211   9.328  12.507  11.584
32105SOL    HW198212   9.270  12.477  11.513
32105SOL    HW298213   9.366  12.588  11.551
32106SOL     OW98214   6.685   8.355   2.564
32106SOL    HW198215   6.679   8.303   2.484
32106SOL    HW298216   6.779   8.358   2.583
32107SOL     OW98217   0.257  12.838   5.243
32107SOL    HW198218   0.259  12.751   5.283
32107SOL    HW298219   0.209  12.892   5.306
32108SOL     OW98220   9.266   4.844   0.634
32108SOL    HW198221   9.237   4.829   0.544
32108SOL    HW298222   9.232   4.930   0.658
32109SOL     OW98223  11.605  14.172   1.948
32109SOL    HW198224  11.680  14.114   1.934
32109SOL    HW298225  11.537  14.137   1.891
32110SOL     OW98226   0.854  12.308   0.006
32110SOL    HW198227   0.949  12.323   0.009
32110SOL    HW298228   0.830  12.288   0.096
32111SOL     OW98229  14.775  12.684   3.151
32111SOL    HW198230  14.840  12.614   3.162
32111SOL    HW298231  14.700  12.655   3.205
32112SOL     OW98232   1.870   3.435   2.085
32112SOL    HW198233   1.903   3.414   1.998
32112SOL    HW298234   1.775   3.444   2.073
32113SOL     OW98235   0.582  14.643   8.853
32113SOL    HW198236   0.488  14.653   8.839
32113SOL    HW298237   0.594  14.651   8.948
32114SOL     OW98238   4.425   0.618   7.771
32114SOL    HW198239   4.482   0.575   7.835
32114SOL    HW298240   4.412   0.706   7.807
32115SOL     OW98241   4.595  10.331  11.928
32115SOL    HW198242   4.628  10.350  12.016
32115SOL    HW298243   4.537  10.404  11.908
32116SOL     OW98244   9.740   0.084  12.999
32116SOL    HW198245   9.764   0.119  13.085
32116SOL    HW298246   9.824   0.067  12.956
32117SOL     OW98247   2.329   7.528  11.215
32117SOL    HW198248   2.401   7.477  11.178
32117SOL    HW298249   2.364   7.564  11.297
32118SOL     OW98250   4.299   4.692   0.910
32118SOL    HW198251   4.365   4.731   0.853
32118SOL    HW298252   4.223   4.679   0.853
32119SOL     OW98253   9.950   0.524   4.782
32119SOL    HW198254   9.900   0.467   4.723
32119SOL    HW298255   9.930   0.613   4.752
32120SOL     OW98256  10.614   6.633   6.830
32120SOL    HW198257  10.706   6.631   6.854
32120SOL    HW298258  10.580   6.549   6.860
32121SOL     OW98259   6.776   4.052  12.624
32121SOL    HW198260   6.774   4.041  12.529
32121SOL    HW298261   6.826   4.132  12.639
32122SOL     OW98262   6.325  13.194   1.056
32122SOL    HW198263   6.276  13.266   1.096
32122SOL    HW298264   6.377  13.234   0.987
32123SOL     OW98265  11.454  10.443   8.889
32123SOL    HW198266  11.534  10.465   8.841
32123SOL    HW298267  11.485  10.388   8.962
32124SOL     OW98268   6.256   5.236   0.606
32124SOL    HW198269   6.272   5.145   0.583
32124SOL    HW298270   6.266   5.284   0.523
32125SOL     OW98271  10.073  10.448   1.131
32125SOL    HW198272  10.066  10.374   1.071
32125SOL    HW298273  10.027  10.420   1.210
32126SOL     OW98274   8.351   4.886   4.985
32126SOL    HW198275   8.347   4.811   4.925
32126SOL    HW298276   8.358   4.846   5.072
32127SOL     OW98277   2.299   2.202   5.383
32127SOL    HW198278   2.281   2.110   5.362
32127SOL    HW298279   2.333   2.239   5.302
32128SOL     OW98280  12.045   6.673  12.387
32128SOL    HW198281  11.973   6.626  12.346
32128SOL    HW298282  12.018   6.685  12.478
32129SOL     OW98283   2.841   7.779   0.557
32129SOL    HW198284   2.903   7.847   0.530
32129SOL    HW298285   2.777   7.775   0.486
32130SOL     OW98286   3.868  11.327   5.980
32130SOL    HW198287   3.954  11.369   5.987
32130SOL    HW298288   3.806  11.399   5.975
32131SOL     OW98289   3.825  10.781  14.169
32131SOL    HW198290   3.847  10.845  14.237
32131SOL    HW298291   3.904  10.729  14.158
32132SOL     OW98292   9.984  13.766  13.112
32132SOL    HW198293   9.979  13.673  13.132
32132SOL    HW298294   9.897  13.800  13.133
32133SOL     OW98295   9.005   4.537  10.225
32133SOL    HW198296   9.016   4.443  10.210
32133SOL    HW298297   8.979   4.544  10.317
32134SOL     OW98298   9.124  14.277   1.629
32134SOL    HW198299   9.160  14.195   1.664
32134SOL    HW298300   9.143  14.273   1.535
32135SOL     OW98301   4.630   7.524   9.358
32135SOL    HW198302   4.575   7.460   9.403
32135SOL    HW298303   4.715   7.519   9.404
32136SOL     OW98304   9.671  12.770   2.813
32136SOL    HW198305   9.604  12.838   2.818
32136SOL    HW298306   9.749  12.815   2.781
32137SOL     OW98307   7.441  14.389  13.310
32137SOL    HW198308   7.383  14.450  13.265
32137SOL    HW298309   7.528  14.429  13.304
32138SOL     OW98310  12.259   5.648   5.169
32138SOL    HW198311  12.354   5.637   5.168
32138SOL    HW298312  12.244   5.722   5.227
32139SOL     OW98313   5.414   8.320  10.916
32139SOL    HW198314   5.327   8.344  10.886
32139SOL    HW298315   5.399   8.265  10.993
32140SOL     OW98316   6.273   7.137   9.331
32140SOL    HW198317   6.186   7.171   9.350
32140SOL    HW298318   6.331   7.213   9.339
32141SOL     OW98319   9.329   0.625   2.285
32141SOL    HW198320   9.322   0.714   2.320
32141SOL    HW298321   9.239   0.593   2.284
32142SOL     OW98322   7.583   5.879   9.673
32142SOL    HW198323   7.662   5.932   9.682
32142SOL    HW298324   7.590   5.840   9.586
32143SOL     OW98325   4.913   8.020   9.388
32143SOL    HW198326   4.880   8.019   9.298
32143SOL    HW298327   4.865   8.091   9.430
32144SOL     OW98328   2.379   0.301  12.398
32144SOL    HW198329   2.374   0.234  12.467
32144SOL    HW298330   2.363   0.383  12.445
32145SOL     OW98331   8.614   0.735   8.758
32145SOL    HW198332   8.631   0.655   8.707
32145SOL    HW298333   8.693   0.787   8.748
32146SOL     OW98334  12.925   7.822   0.285
32146SOL    HW198335  12.857   7.771   0.241
32146SOL    HW298336  12.877   7.879   0.345
32147SOL     OW98337   7.572  14.059  10.522
32147SOL    HW198338   7.578  14.018  10.436
32147SOL    HW298339   7.636  14.130  10.519
32148SOL     OW98340   6.009   7.730   0.434
32148SOL    HW198341   6.089   7.746   0.383
32148SOL    HW298342   5.942   7.782   0.389
32149SOL     OW98343   7.233   5.623   8.561
32149SOL    HW198344   7.168   5.691   8.581
32149SOL    HW298345   7.291   5.664   8.496
32150SOL     OW98346  12.811   2.410  14.763
32150SOL    HW198347  12.768   2.349  14.703
32150SOL    HW298348  12.777   2.387  14.849
32151SOL     OW98349   9.439   7.597   2.304
32151SOL    HW198350   9.482   7.642   2.377
32151SOL    HW298351   9.352   7.575   2.337
32152SOL     OW98352   6.635   1.445   6.146
32152SOL    HW198353   6.678   1.530   6.135
32152SOL    HW298354   6.703   1.389   6.183
32153SOL     OW98355   6.345   6.909  10.098
32153SOL    HW198356   6.290   6.943  10.169
32153SOL    HW298357   6.428   6.888  10.139
32154SOL     OW98358   7.574   1.611   7.403
32154SOL    HW198359   7.561   1.704   7.382
32154SOL    HW298360   7.657   1.589   7.361
32155SOL     OW98361  11.881   6.048  14.320
32155SOL    HW198362  11.893   6.066  14.413
32155SOL    HW298363  11.912   6.126  14.275
32156SOL     OW98364  13.343   9.052   8.741
32156SOL    HW198365  13.428   9.054   8.785
32156SOL    HW298366  13.306   8.966   8.761
32157SOL     OW98367   9.686  10.180   2.098
32157SOL    HW198368   9.726  10.245   2.156
32157SOL    HW298369   9.667  10.229   2.018
32158SOL     OW98370  12.487   5.639   3.916
32158SOL    HW198371  12.402   5.597   3.903
32158SOL    HW298372  12.467   5.726   3.950
32159SOL     OW98373   5.293   9.839  13.388
32159SOL    HW198374   5.305   9.908  13.454
32159SOL    HW298375   5.207   9.802  13.408
32160SOL     OW98376  11.236   2.103   8.845
32160SOL    HW198377  11.171   2.048   8.802
32160SOL    HW298378  11.218   2.191   8.813
32161SOL     OW98379   1.484   1.575   4.655
32161SOL    HW198380   1.572   1.552   4.683
32161SOL    HW298381   1.493   1.597   4.562
32162SOL     OW98382   4.083   1.608   3.005
32162SOL    HW198383   4.129   1.541   2.955
32162SOL    HW298384   4.116   1.599   3.094
32163SOL     OW98385  11.800  10.020  10.005
32163SOL    HW198386  11.754  10.055  10.080
32163SOL    HW298387  11.885   9.992  10.040
32164SOL     OW98388   9.093   0.396   5.900
32164SOL    HW198389   9.096   0.423   5.992
32164SOL    HW298390   9.021   0.448   5.863
32165SOL     OW98391   5.442   5.218   3.031
32165SOL    HW198392   5.436   5.232   3.125
32165SOL    HW298393   5.415   5.127   3.018
32166SOL     OW98394   0.793   6.653   1.843
32166SOL    HW198395   0.772   6.642   1.936
32166SOL    HW298396   0.711   6.634   1.798
32167SOL     OW98397   6.659   5.286  12.911
32167SOL    HW198398   6.580   5.338  12.895
32167SOL    HW298399   6.636   5.231  12.986
32168SOL     OW98400  12.275   2.871   7.985
32168SOL    HW198401  12.251   2.917   7.905
32168SOL    HW298402  12.349   2.921   8.021
32169SOL     OW98403   0.664   3.048  13.821
32169SOL    HW198404   0.614   2.966  13.820
32169SOL    HW298405   0.603   3.112  13.856
32170SOL     OW98406   9.515   2.293   8.422
32170SOL    HW198407   9.431   2.270   8.383
32170SOL    HW298408   9.554   2.355   8.360
32171SOL     OW98409   5.491   8.505  13.229
32171SOL    HW198410   5.495   8.596  13.256
32171SOL    HW298411   5.542   8.457  13.294
32172SOL     OW98412   4.368  11.511   3.999
32172SOL    HW198413   4.375  11.469   4.085
32172SOL    HW298414   4.326  11.445   3.944
32173SOL     OW98415   9.761   3.259   6.765
32173SOL    HW198416   9.782   3.236   6.675
32173SOL    HW298417   9.788   3.183   6.817
32174SOL     OW98418  10.481  13.703  14.266
32174SOL    HW198419  10.539  13.725  14.193
32174SOL    HW298420  10.411  13.768  14.260
32175SOL     OW98421  10.341  13.179   8.898
32175SOL    HW198422  10.290  13.256   8.872
32175SOL    HW298423  10.304  13.108   8.846
32176SOL     OW98424  10.520   8.905   7.181
32176SOL    HW198425  10.560   8.967   7.120
32176SOL    HW298426  10.522   8.821   7.135
32177SOL     OW98427   2.749   3.345   0.391
32177SOL    HW198428   2.725   3.401   0.317
32177SOL    HW298429   2.678   3.358   0.454
32178SOL     OW98430  14.062  10.315   1.171
32178SOL    HW198431  14.062  10.275   1.258
32178SOL    HW298432  14.027  10.247   1.113
32179SOL     OW98433   2.730   3.389  10.048
32179SOL    HW198434   2.674   3.454  10.006
32179SOL    HW298435   2.774   3.344   9.975
32180SOL     OW98436   5.142  12.399   9.059
32180SOL    HW198437   5.157  12.404   9.154
32180SOL    HW298438   5.073  12.333   9.050
32181SOL     OW98439   1.536   6.170   3.339
32181SOL    HW198440   1.593   6.238   3.374
32181SOL    HW298441   1.477   6.217   3.279
32182SOL     OW98442   3.675  13.366   1.363
32182SOL    HW198443   3.653  13.280   1.325
32182SOL    HW298444   3.591  13.398   1.397
32183SOL     OW98445   9.901   0.537   9.629
32183SOL    HW198446   9.816   0.562   9.592
32183SOL    HW298447   9.963   0.600   9.592
32184SOL     OW98448   7.021   6.014   0.133
32184SOL    HW198449   6.958   5.944   0.153
32184SOL    HW298450   7.096   5.996   0.189
32185SOL     OW98451   0.243   1.813   1.559
32185SOL    HW198452   0.228   1.907   1.567
32185SOL    HW298453   0.312   1.805   1.494
32186SOL     OW98454   7.435  14.820   4.519
32186SOL    HW198455   7.384  14.847   4.443
32186SOL    HW298456   7.487   0.023   4.541
32187SOL     OW98457  14.625  14.458  13.438
32187SOL    HW198458  14.589  14.546  13.438
32187SOL    HW298459  14.627  14.433  13.345
32188SOL     OW98460   8.235  13.975   4.207
32188SOL    HW198461   8.142  13.998   4.211
32188SOL    HW298462   8.239  13.908   4.139
32189SOL     OW98463   0.309  12.061   3.276
32189SOL    HW198464   0.351  12.128   3.222
32189SOL    HW298465   0.276  11.996   3.214
32190SOL     OW98466   8.030   6.750   7.729
32190SOL    HW198467   8.086   6.743   7.652
32190SOL    HW298468   8.014   6.659   7.755
32191SOL     OW98469   5.933  13.731   1.881
32191SOL    HW198470   5.853  13.760   1.836
32191SOL    HW298471   5.995  13.803   1.868
32192SOL     OW98472   3.762   3.894  13.052
32192SOL    HW198473   3.825   3.966  13.055
32192SOL    HW298474   3.678   3.934  13.076
32193SOL     OW98475  10.590  14.425   9.810
32193SOL    HW198476  10.663  14.377   9.770
32193SOL    HW298477  10.614  14.517   9.800
32194SOL     OW98478  12.666  10.815   7.407
32194SOL    HW198479  12.710  10.870   7.341
32194SOL    HW298480  12.672  10.726   7.372
32195SOL     OW98481   2.835   8.683   0.120
32195SOL    HW198482   2.862   8.620   0.054
32195SOL    HW298483   2.740   8.683   0.116
32196SOL     OW98484   0.528   3.356   6.497
32196SOL    HW198485   0.596   3.321   6.554
32196SOL    HW298486   0.569   3.359   6.410
32197SOL     OW98487   0.041  11.638  13.891
32197SOL    HW198488   0.036  11.657  13.985
32197SOL    HW298489  14.863  11.559  13.880
32198SOL     OW98490   6.738  13.193   3.170
32198SOL    HW198491   6.681  13.243   3.227
32198SOL    HW298492   6.679  13.151   3.108
32199SOL     OW98493   5.961   2.850  14.359
32199SOL    HW198494   6.011   2.881  14.434
32199SOL    HW298495   6.024   2.796  14.309
32200SOL     OW98496   6.571   7.377   3.167
32200SOL    HW198497   6.649   7.325   3.150
32200SOL    HW298498   6.563   7.434   3.091
32201SOL     OW98499   2.326   5.550   0.015
32201SOL    HW198500   2.290   5.507  14.812
32201SOL    HW298501   2.272   5.629   0.026
32202SOL     OW98502   2.133   0.771  12.394
32202SOL    HW198503   2.156   0.859  12.426
32202SOL    HW298504   2.038   0.775  12.383
32203SOL     OW98505  13.784   2.951   4.003
32203SOL    HW198506  13.776   2.866   3.960
32203SOL    HW298507  13.737   3.011   3.946
32204SOL     OW98508   2.218  13.132   8.184
32204SOL    HW198509   2.279  13.206   8.191
32204SOL    HW298510   2.258  13.063   8.237
32205SOL     OW98511  12.989   1.219   5.983
32205SOL    HW198512  12.914   1.159   5.986
32205SOL    HW298513  12.962   1.293   6.038
32206SOL     OW98514   3.735   7.530  10.842
32206SOL    HW198515   3.752   7.458  10.781
32206SOL    HW298516   3.788   7.509  10.919
32207SOL     OW98517   8.063   1.903   6.137
32207SOL    HW198518   8.151   1.936   6.119
32207SOL    HW298519   8.072   1.857   6.221
32208SOL     OW98520   4.224   6.670  12.114
32208SOL    HW198521   4.285   6.701  12.180
32208SOL    HW298522   4.278   6.625  12.049
32209SOL     OW98523   0.387   0.008   1.745
32209SOL    HW198524   0.319  14.820   1.766
32209SOL    HW298525   0.341   0.080   1.701
32210SOL     OW98526   7.589  13.497  11.645
32210SOL    HW198527   7.586  13.587  11.611
32210SOL    HW298528   7.670  13.493  11.696
32211SOL     OW98529   2.487   5.875   5.896
32211SOL    HW198530   2.557   5.833   5.947
32211SOL    HW298531   2.487   5.966   5.926
32212SOL     OW98532   7.231   1.495   4.412
32212SOL    HW198533   7.270   1.567   4.363
32212SOL    HW298534   7.260   1.416   4.367
32213SOL     OW98535   5.368   9.416   4.565
32213SOL    HW198536   5.371   9.441   4.658
32213SOL    HW298537   5.431   9.474   4.523
32214SOL     OW98538   2.693  13.697   9.637
32214SOL    HW198539   2.747  13.681   9.559
32214SOL    HW298540   2.677  13.610   9.673
32215SOL     OW98541   3.647  10.996  13.049
32215SOL    HW198542   3.736  10.972  13.024
32215SOL    HW298543   3.655  11.027  13.139
32216SOL     OW98544   6.900   7.040   5.896
32216SOL    HW198545   6.861   7.015   5.813
32216SOL    HW298546   6.994   7.049   5.877
32217SOL     OW98547  10.000   5.793   7.125
32217SOL    HW198548   9.968   5.780   7.215
32217SOL    HW298549   9.932   5.844   7.083
32218SOL     OW98550   5.163  11.986   2.058
32218SOL    HW198551   5.235  12.042   2.087
32218SOL    HW298552   5.129  11.948   2.139
32219SOL     OW98553   3.025   6.461   6.146
32219SOL    HW198554   3.050   6.411   6.223
32219SOL    HW298555   2.980   6.538   6.180
32220SOL     OW98556  10.487   3.772   3.559
32220SOL    HW198557  10.553   3.831   3.523
32220SOL    HW298558  10.437   3.743   3.483
32221SOL     OW98559   0.202   1.209   2.156
32221SOL    HW198560   0.254   1.272   2.206
32221SOL    HW298561   0.190   1.135   2.216
32222SOL     OW98562   6.847   4.662   1.267
32222SOL    HW198563   6.907   4.657   1.192
32222SOL    HW298564   6.831   4.571   1.291
32223SOL     OW98565   4.617   4.809   4.827
32223SOL    HW198566   4.628   4.820   4.922
32223SOL    HW298567   4.616   4.714   4.814
32224SOL     OW98568   4.702  10.920  14.256
32224SOL    HW198569   4.634  10.871  14.211
32224SOL    HW298570   4.769  10.935  14.189
32225SOL     OW98571   6.636   9.942  10.427
32225SOL    HW198572   6.603  10.027  10.398
32225SOL    HW298573   6.720   9.933  10.382
32226SOL     OW98574   9.754   7.504  11.660
32226SOL    HW198575   9.839   7.461  11.676
32226SOL    HW298576   9.690   7.434  11.670
32227SOL     OW98577   0.534   8.787   4.885
32227SOL    HW198578   0.504   8.812   4.972
32227SOL    HW298579   0.475   8.716   4.859
32228SOL     OW98580   9.273   2.294   3.240
32228SOL    HW198581   9.289   2.381   3.203
32228SOL    HW298582   9.343   2.239   3.206
32229SOL     OW98583   1.803   8.899  11.891
32229SOL    HW198584   1.796   8.817  11.842
32229SOL    HW298585   1.836   8.874  11.977
32230SOL     OW98586   3.389   0.779   9.183
32230SOL    HW198587   3.310   0.829   9.206
32230SOL    HW298588   3.423   0.825   9.106
32231SOL     OW98589   5.964   9.054  13.158
32231SOL    HW198590   5.989   8.963  13.146
32231SOL    HW298591   5.996   9.098  13.080
32232SOL     OW98592  12.635   6.245   4.018
32232SOL    HW198593  12.553   6.243   3.968
32232SOL    HW298594  12.626   6.319   4.077
32233SOL     OW98595  10.106   1.073   6.034
32233SOL    HW198596  10.111   1.167   6.050
32233SOL    HW298597  10.051   1.039   6.104
32234SOL     OW98598   4.978  11.768  14.092
32234SOL    HW198599   4.924  11.702  14.048
32234SOL    HW298600   4.939  11.776  14.179
32235SOL     OW98601   7.755   0.249   6.293
32235SOL    HW198602   7.730   0.204   6.374
32235SOL    HW298603   7.779   0.178   6.233
32236SOL     OW98604   1.598   8.024   4.693
32236SOL    HW198605   1.606   8.004   4.599
32236SOL    HW298606   1.564   8.113   4.695
32237SOL     OW98607   0.366   7.898   7.951
32237SOL    HW198608   0.416   7.839   7.894
32237SOL    HW298609   0.424   7.915   8.025
32238SOL     OW98610   2.248  10.737   3.591
32238SOL    HW198611   2.207  10.737   3.678
32238SOL    HW298612   2.306  10.660   3.592
32239SOL     OW98613  14.521  11.473  13.011
32239SOL    HW198614  14.584  11.414  13.053
32239SOL    HW298615  14.574  11.527  12.952
32240SOL     OW98616   7.265  10.775   8.577
32240SOL    HW198617   7.315  10.812   8.504
32240SOL    HW298618   7.174  10.775   8.545
32241SOL     OW98619   1.093   2.352  11.973
32241SOL    HW198620   1.153   2.329  11.902
32241SOL    HW298621   1.013   2.379  11.929
32242SOL     OW98622   3.115   8.464  14.125
32242SOL    HW198623   3.158   8.400  14.183
32242SOL    HW298624   3.187   8.518  14.092
32243SOL     OW98625  14.445   9.326  13.615
32243SOL    HW198626  14.514   9.366  13.562
32243SOL    HW298627  14.366   9.336  13.562
32244SOL     OW98628  11.024   7.208   0.357
32244SOL    HW198629  11.062   7.162   0.432
32244SOL    HW298630  11.058   7.297   0.363
32245SOL     OW98631  12.975   0.042   0.946
32245SOL    HW198632  13.015  14.836   0.978
32245SOL    HW298633  12.915   0.013   0.877
32246SOL     OW98634   2.703   4.120   7.445
32246SOL    HW198635   2.759   4.058   7.398
32246SOL    HW298636   2.765   4.179   7.488
32247SOL     OW98637   7.738   7.039   3.521
32247SOL    HW198638   7.776   7.119   3.557
32247SOL    HW298639   7.687   7.068   3.446
32248SOL     OW98640  12.136  13.582  11.490
32248SOL    HW198641  12.089  13.498  11.489
32248SOL    HW298642  12.155  13.599  11.398
32249SOL     OW98643  12.936  10.706  12.360
32249SOL    HW198644  12.865  10.676  12.304
32249SOL    HW298645  12.910  10.793  12.388
32250SOL     OW98646  14.567   0.995   0.281
32250SOL    HW198647  14.484   0.953   0.254
32250SOL    HW298648  14.548   1.089   0.278
32251SOL     OW98649   9.890   6.196   2.499
32251SOL    HW198650   9.901   6.281   2.456
32251SOL    HW298651   9.799   6.196   2.528
32252SOL     OW98652   4.602   1.701   0.658
32252SOL    HW198653   4.553   1.777   0.689
32252SOL    HW298654   4.535   1.635   0.641
32253SOL     OW98655   3.003   7.881   2.530
32253SOL    HW198656   2.937   7.871   2.461
32253SOL    HW298657   2.993   7.803   2.584
32254SOL     OW98658   1.547   4.325   5.914
32254SOL    HW198659   1.464   4.373   5.909
32254SOL    HW298660   1.532   4.258   5.980
32255SOL     OW98661   6.507   0.131  10.065
32255SOL    HW198662   6.473   0.044  10.087
32255SOL    HW298663   6.535   0.167  10.150
32256SOL     OW98664   6.802   9.486   2.092
32256SOL    HW198665   6.816   9.566   2.042
32256SOL    HW298666   6.739   9.436   2.040
32257SOL     OW98667  13.938   1.268   5.069
32257SOL    HW198668  13.875   1.234   5.005
32257SOL    HW298669  13.900   1.351   5.098
32258SOL     OW98670   7.823   2.540   6.351
32258SOL    HW198671   7.896   2.487   6.385
32258SOL    HW298672   7.866   2.609   6.302
32259SOL     OW98673  12.574   1.739   5.520
32259SOL    HW198674  12.483   1.726   5.496
32259SOL    HW298675  12.571   1.777   5.607
32260SOL     OW98676  10.456   1.786   7.982
32260SOL    HW198677  10.485   1.756   7.895
32260SOL    HW298678  10.371   1.742   7.995
32261SOL     OW98679  10.708  12.426  13.456
32261SOL    HW198680  10.801  12.401  13.455
32261SOL    HW298681  10.665  12.360  13.401
32262SOL     OW98682   7.963  10.975   9.737
32262SOL    HW198683   8.037  11.010   9.787
32262SOL    HW298684   7.983  10.997   9.646
32263SOL     OW98685   4.291   7.705   9.943
32263SOL    HW198686   4.346   7.748   9.878
32263SOL    HW298687   4.206   7.696   9.900
32264SOL     OW98688   2.328   3.471  10.006
32264SOL    HW198689   2.306   3.510  10.090
32264SOL    HW298690   2.248   3.478   9.954
32265SOL     OW98691   9.064   2.866  14.870
32265SOL    HW198692   9.061   2.826  14.783
32265SOL    HW298693   9.059   2.791   0.055
32266SOL     OW98694   8.858   8.506   4.582
32266SOL    HW198695   8.880   8.492   4.674
32266SOL    HW298696   8.938   8.544   4.544
32267SOL     OW98697  12.026   6.075  11.170
32267SOL    HW198698  12.109   6.110  11.138
32267SOL    HW298699  11.988   6.030  11.094
32268SOL     OW98700   4.260   1.122   3.908
32268SOL    HW198701   4.202   1.060   3.953
32268SOL    HW298702   4.348   1.087   3.922
32269SOL     OW98703   9.448   3.877   9.993
32269SOL    HW198704   9.504   3.843  10.062
32269SOL    HW298705   9.480   3.966   9.978
32270SOL     OW98706  11.246  12.455   8.898
32270SOL    HW198707  11.282  12.372   8.867
32270SOL    HW298708  11.217  12.499   8.818
32271SOL     OW98709   2.162   9.124   0.490
32271SOL    HW198710   2.166   9.136   0.585
32271SOL    HW298711   2.216   9.195   0.454
32272SOL     OW98712   6.258  10.243   9.862
32272SOL    HW198713   6.247  10.337   9.878
32272SOL    HW298714   6.326  10.216   9.923
32273SOL     OW98715   9.112   8.875  12.407
32273SOL    HW198716   9.103   8.788  12.368
32273SOL    HW298717   9.085   8.935  12.338
32274SOL     OW98718   9.891   4.301   9.085
32274SOL    HW198719   9.797   4.317   9.071
32274SOL    HW298720   9.895   4.212   9.120
32275SOL     OW98721   5.148   8.910  13.395
32275SOL    HW198722   5.194   8.989  13.426
32275SOL    HW298723   5.055   8.931  13.404
32276SOL     OW98724   6.210  11.425   7.695
32276SOL    HW198725   6.116  11.438   7.698
32276SOL    HW298726   6.227  11.352   7.755
32277SOL     OW98727   4.389   7.382   8.321
32277SOL    HW198728   4.379   7.287   8.318
32277SOL    HW298729   4.337   7.414   8.248
32278SOL     OW98730   3.116   4.419  10.253
32278SOL    HW198731   3.161   4.446  10.173
32278SOL    HW298732   3.170   4.348  10.288
32279SOL     OW98733   3.704   7.605  11.621
32279SOL    HW198734   3.797   7.582  11.620
32279SOL    HW298735   3.669   7.562  11.699
32280SOL     OW98736   0.120   5.341  11.906
32280SOL    HW198737   0.208   5.363  11.877
32280SOL    HW298738   0.064   5.407  11.864
32281SOL     OW98739   3.008   6.410  14.529
32281SOL    HW198740   3.034   6.319  14.518
32281SOL    HW298741   2.916   6.406  14.554
32282SOL     OW98742   9.524  11.072   7.560
32282SOL    HW198743   9.607  11.113   7.586
32282SOL    HW298744   9.457  11.132   7.594
32283SOL     OW98745  12.182   0.663   9.139
32283SOL    HW198746  12.142   0.650   9.225
32283SOL    HW298747  12.236   0.585   9.125
32284SOL     OW98748   7.889   7.247   3.609
32284SOL    HW198749   7.948   7.266   3.682
32284SOL    HW298750   7.883   7.329   3.561
32285SOL     OW98751   5.157  14.565   5.966
32285SOL    HW198752   5.130  14.645   5.920
32285SOL    HW298753   5.252  14.561   5.953
32286SOL     OW98754   4.402  12.770   0.728
32286SOL    HW198755   4.486  12.725   0.737
32286SOL    HW298756   4.425  12.863   0.732
32287SOL     OW98757  14.186  10.987   5.505
32287SOL    HW198758  14.223  11.038   5.577
32287SOL    HW298759  14.119  10.933   5.546
32288SOL     OW98760  12.742  13.974   3.903
32288SOL    HW198761  12.710  13.954   3.991
32288SOL    HW298762  12.668  14.015   3.858
32289SOL     OW98763   5.590  11.521   0.820
32289SOL    HW198764   5.543  11.580   0.761
32289SOL    HW298765   5.617  11.448   0.765
32290SOL     OW98766  11.295   8.966   1.306
32290SOL    HW198767  11.268   9.054   1.332
32290SOL    HW298768  11.276   8.912   1.383
32291SOL     OW98769   7.019  14.624  12.562
32291SOL    HW198770   7.007  14.687  12.633
32291SOL    HW298771   7.035  14.541  12.607
32292SOL     OW98772   5.900   8.718   7.372
32292SOL    HW198773   5.934   8.793   7.323
32292SOL    HW298774   5.811   8.743   7.395
32293SOL     OW98775   5.841   4.296  14.676
32293SOL    HW198776   5.922   4.321  14.722
32293SOL    HW298777   5.772   4.336  14.728
32294SOL     OW98778   4.937   3.985   3.542
32294SOL    HW198779   4.845   3.967   3.526
32294SOL    HW298780   4.975   3.900   3.565
32295SOL     OW98781   6.629   8.374  10.863
32295SOL    HW198782   6.713   8.388  10.821
32295SOL    HW298783   6.583   8.312  10.806
32296SOL     OW98784   0.342   1.212  13.540
32296SOL    HW198785   0.373   1.122  13.529
32296SOL    HW298786   0.402   1.250  13.605
32297SOL     OW98787   7.687  12.928   9.057
32297SOL    HW198788   7.638  12.988   9.001
32297SOL    HW298789   7.663  12.953   9.146
32298SOL     OW98790   3.300   7.718  14.739
32298SOL    HW198791   3.288   7.625  14.719
32298SOL    HW298792   3.266   7.728  14.828
32299SOL     OW98793   5.819  11.468   8.100
32299SOL    HW198794   5.777  11.455   8.185
32299SOL    HW298795   5.895  11.524   8.119
32300SOL     OW98796   5.441  11.212  11.002
32300SOL    HW198797   5.465  11.300  10.974
32300SOL    HW298798   5.524  11.167  11.015
32301SOL     OW98799   1.298  13.568   8.485
32301SOL    HW198800   1.307  13.500   8.551
32301SOL    HW298801   1.342  13.644   8.523
32302SOL     OW98802   3.319   9.029   0.438
32302SOL    HW198803   3.341   9.088   0.365
32302SOL    HW298804   3.258   9.079   0.491
32303SOL     OW98805  14.735  13.386   6.369
32303SOL    HW198806  14.721  13.329   6.444
32303SOL    HW298807  14.652  13.385   6.322
32304SOL     OW98808   9.742  12.537   2.892
32304SOL    HW198809   9.828  12.545   2.851
32304SOL    HW298810   9.693  12.612   2.860
32305SOL     OW98811   6.075  11.484  14.131
32305SOL    HW198812   6.046  11.413  14.074
32305SOL    HW298813   6.131  11.538  14.075
32306SOL     OW98814  11.009   9.416   0.137
32306SOL    HW198815  10.948   9.474   0.184
32306SOL    HW298816  10.983   9.424   0.045
32307SOL     OW98817   3.785   2.627  10.569
32307SOL    HW198818   3.767   2.698  10.506
32307SOL    HW298819   3.703   2.577  10.572
32308SOL     OW98820   9.524   1.768   6.850
32308SOL    HW198821   9.438   1.735   6.824
32308SOL    HW298822   9.533   1.742   6.942
32309SOL     OW98823   7.894  12.835   8.911
32309SOL    HW198824   7.900  12.747   8.949
32309SOL    HW298825   7.827  12.879   8.964
32310SOL     OW98826  12.306  12.954  10.766
32310SOL    HW198827  12.251  12.881  10.796
32310SOL    HW298828  12.396  12.924  10.781
32311SOL     OW98829  10.756   1.944   6.617
32311SOL    HW198830  10.690   1.893   6.664
32311SOL    HW298831  10.763   1.902   6.532
32312SOL     OW98832  10.174  12.141   8.198
32312SOL    HW198833  10.156  12.216   8.254
32312SOL    HW298834  10.089  12.119   8.158
32313SOL     OW98835   0.099  11.472   0.043
32313SOL    HW198836   0.166  11.406   0.061
32313SOL    HW298837   0.148  11.554   0.032
32314SOL     OW98838   8.077   3.904   6.988
32314SOL    HW198839   7.982   3.906   6.976
32314SOL    HW298840   8.095   3.974   7.051
32315SOL     OW98841   5.074   2.839   6.383
32315SOL    HW198842   5.014   2.914   6.377
32315SOL    HW298843   5.161   2.877   6.369
32316SOL     OW98844   9.122   9.187   0.778
32316SOL    HW198845   9.156   9.107   0.818
32316SOL    HW298846   9.139   9.178   0.685
32317SOL     OW98847   5.374  11.427  12.327
32317SOL    HW198848   5.371  11.470  12.413
32317SOL    HW298849   5.331  11.489  12.268
32318SOL     OW98850   5.757   1.420  10.572
32318SOL    HW198851   5.835   1.377  10.607
32318SOL    HW298852   5.711   1.352  10.523
32319SOL     OW98853   5.336   4.940   1.847
32319SOL    HW198854   5.420   4.965   1.886
32319SOL    HW298855   5.303   4.872   1.905
32320SOL     OW98856   3.840   5.925  11.300
32320SOL    HW198857   3.905   5.859  11.322
32320SOL    HW298858   3.829   5.919  11.205
32321SOL     OW98859   0.293   9.321   1.557
32321SOL    HW198860   0.237   9.352   1.628
32321SOL    HW298861   0.372   9.289   1.601
32322SOL     OW98862  10.735   5.922   7.135
32322SOL    HW198863  10.655   5.892   7.177
32322SOL    HW298864  10.707   5.991   7.075
32323SOL     OW98865   5.297   9.673   0.510
32323SOL    HW198866   5.264   9.703   0.426
32323SOL    HW298867   5.224   9.624   0.549
32324SOL     OW98868   7.414   0.009   1.894
32324SOL    HW198869   7.484   0.024   1.830
32324SOL    HW298870   7.345   0.071   1.870
32325SOL     OW98871   0.901  13.425   9.653
32325SOL    HW198872   0.874  13.364   9.585
32325SOL    HW298873   0.941  13.498   9.606
32326SOL     OW98874  14.620   9.797   0.918
32326SOL    HW198875  14.671   9.856   0.973
32326SOL    HW298876  14.565   9.749   0.980
32327SOL     OW98877  12.704  14.333   4.384
32327SOL    HW198878  12.735  14.352   4.295
32327SOL    HW298879  12.625  14.281   4.371
32328SOL     OW98880  14.682  14.680   9.651
32328SOL    HW198881  14.731  14.601   9.628
32328SOL    HW298882  14.679  14.680   9.747
32329SOL     OW98883   9.470   9.356   7.806
32329SOL    HW198884   9.466   9.441   7.850
32329SOL    HW298885   9.560   9.350   7.774
32330SOL     OW98886  11.594   5.329   7.104
32330SOL    HW198887  11.541   5.318   7.024
32330SOL    HW298888  11.590   5.423   7.123
32331SOL     OW98889   8.535   2.982   1.061
32331SOL    HW198890   8.485   2.937   0.992
32331SOL    HW298891   8.567   2.911   1.117
32332SOL     OW98892   7.676   9.284   7.108
32332SOL    HW198893   7.764   9.320   7.119
32332SOL    HW298894   7.687   9.189   7.116
32333SOL     OW98895   7.652  14.269   5.009
32333SOL    HW198896   7.563  14.303   5.022
32333SOL    HW298897   7.708  14.332   5.052
32334SOL     OW98898   3.597   0.123   4.016
32334SOL    HW198899   3.645   0.205   4.007
32334SOL    HW298900   3.663   0.059   4.043
32335SOL     OW98901   5.353   2.022   3.346
32335SOL    HW198902   5.344   1.952   3.410
32335SOL    HW298903   5.391   2.095   3.394
32336SOL     OW98904   4.906  13.582  14.621
32336SOL    HW198905   4.994  13.592  14.657
32336SOL    HW298906   4.905  13.494  14.583
32337SOL     OW98907   0.743   4.969   4.231
32337SOL    HW198908   0.659   5.000   4.198
32337SOL    HW298909   0.729   4.956   4.325
32338SOL     OW98910   9.539   0.654   5.893
32338SOL    HW198911   9.513   0.709   5.967
32338SOL    HW298912   9.552   0.716   5.821
32339SOL     OW98913   5.711   3.178   6.680
32339SOL    HW198914   5.689   3.086   6.694
32339SOL    HW298915   5.778   3.197   6.746
32340SOL     OW98916   1.163   9.476   4.556
32340SOL    HW198917   1.162   9.533   4.480
32340SOL    HW298918   1.085   9.502   4.606
32341SOL     OW98919   3.709   2.369   9.563
32341SOL    HW198920   3.633   2.334   9.517
32341SOL    HW298921   3.781   2.311   9.538
32342SOL     OW98922   3.529  12.104   9.716
32342SOL    HW198923   3.457  12.154   9.752
32342SOL    HW298924   3.488  12.028   9.675
32343SOL     OW98925   7.301   1.645  11.360
32343SOL    HW198926   7.278   1.589  11.434
32343SOL    HW298927   7.227   1.706  11.352
32344SOL     OW98928   0.613   0.535  13.966
32344SOL    HW198929   0.657   0.579  13.894
32344SOL    HW298930   0.680   0.523  14.033
32345SOL     OW98931   6.564   8.591   7.004
32345SOL    HW198932   6.579   8.521   7.067
32345SOL    HW298933   6.469   8.589   6.989
32346SOL     OW98934  13.386   1.077   5.770
32346SOL    HW198935  13.342   1.070   5.855
32346SOL    HW298936  13.356   1.001   5.721
32347SOL     OW98937   4.186  14.183   8.699
32347SOL    HW198938   4.153  14.183   8.789
32347SOL    HW298939   4.196  14.091   8.677
32348SOL     OW98940   5.395  11.182   2.469
32348SOL    HW198941   5.381  11.253   2.406
32348SOL    HW298942   5.445  11.116   2.420
32349SOL     OW98943  12.153   6.464   8.784
32349SOL    HW198944  12.232   6.428   8.826
32349SOL    HW298945  12.080   6.426   8.834
32350SOL     OW98946   4.989   8.121   5.337
32350SOL    HW198947   5.005   8.168   5.419
32350SOL    HW298948   5.066   8.065   5.326
32351SOL     OW98949   8.852   6.378   9.279
32351SOL    HW198950   8.772   6.397   9.328
32351SOL    HW298951   8.882   6.294   9.314
32352SOL     OW98952   7.161   1.241   3.026
32352SOL    HW198953   7.188   1.332   3.036
32352SOL    HW298954   7.220   1.192   3.082
32353SOL     OW98955   8.441   9.480   3.959
32353SOL    HW198956   8.390   9.546   3.913
32353SOL    HW298957   8.486   9.528   4.028
32354SOL     OW98958   4.704  12.840   7.786
32354SOL    HW198959   4.648  12.762   7.784
32354SOL    HW298960   4.707  12.865   7.878
32355SOL     OW98961   0.446  11.391   1.625
32355SOL    HW198962   0.538  11.400   1.649
32355SOL    HW298963   0.400  11.379   1.708
32356SOL     OW98964  14.648  13.789   8.617
32356SOL    HW198965  14.588  13.850   8.575
32356SOL    HW298966  14.677  13.731   8.547
32357SOL     OW98967  12.254  11.206  13.496
32357SOL    HW198968  12.227  11.196  13.587
32357SOL    HW298969  12.339  11.163  13.492
32358SOL     OW98970   7.383   4.404  12.674
32358SOL    HW198971   7.449   4.428  12.610
32358SOL    HW298972   7.385   4.308  12.676
32359SOL     OW98973   7.494   1.204   6.911
32359SOL    HW198974   7.440   1.254   6.850
32359SOL    HW298975   7.550   1.150   6.855
32360SOL     OW98976   7.952   3.165   8.992
32360SOL    HW198977   8.001   3.145   8.912
32360SOL    HW298978   7.864   3.131   8.975
32361SOL     OW98979  10.041   1.367  12.557
32361SOL    HW198980  10.078   1.452  12.533
32361SOL    HW298981  10.091   1.341  12.635
32362SOL     OW98982   1.634   0.494   3.576
32362SOL    HW198983   1.545   0.522   3.559
32362SOL    HW298984   1.690   0.557   3.530
32363SOL     OW98985   7.155   7.927   3.122
32363SOL    HW198986   7.091   7.994   3.099
32363SOL    HW298987   7.212   7.920   3.045
32364SOL     OW98988   2.921   6.331  10.093
32364SOL    HW198989   2.993   6.281  10.131
32364SOL    HW298990   2.943   6.338  10.000
32365SOL     OW98991  12.077   7.268   4.632
32365SOL    HW198992  12.085   7.177   4.660
32365SOL    HW298993  12.066   7.317   4.714
32366SOL     OW98994   4.696   3.278   2.052
32366SOL    HW198995   4.648   3.235   2.123
32366SOL    HW298996   4.788   3.271   2.078
32367SOL     OW98997   0.924  10.776  14.442
32367SOL    HW198998   0.965  10.728  14.370
32367SOL    HW298999   0.866  10.838  14.399
32368SOL     OW99000   4.908   6.319  10.527
32368SOL    HW199001   4.922   6.315  10.433
32368SOL    HW299002   4.863   6.237  10.548
32369SOL     OW99003  11.560   9.498  11.693
32369SOL    HW199004  11.486   9.447  11.658
32369SOL    HW299005  11.549   9.585  11.655
32370SOL     OW99006   3.610   9.011  12.087
32370SOL    HW199007   3.545   8.970  12.145
32370SOL    HW299008   3.694   8.983  12.122
32371SOL     OW99009   4.648  11.773   4.329
32371SOL    HW199010   4.580  11.787   4.395
32371SOL    HW299011   4.669  11.680   4.335
32372SOL     OW99012  10.500   0.283   7.675
32372SOL    HW199013  10.573   0.237   7.717
32372SOL    HW299014  10.428   0.220   7.675
32373SOL     OW99015  14.257   0.498  14.618
32373SOL    HW199016  14.271   0.541  14.702
32373SOL    HW299017  14.252   0.570  14.555
32374SOL     OW99018   4.044  11.718   5.188
32374SOL    HW199019   4.060  11.796   5.241
32374SOL    HW299020   3.953  11.728   5.159
32375SOL     OW99021  11.636   1.579   8.473
32375SOL    HW199022  11.597   1.506   8.523
32375SOL    HW299023  11.588   1.656   8.502
32376SOL     OW99024   3.613  11.511   2.018
32376SOL    HW199025   3.602  11.437   2.078
32376SOL    HW299026   3.688  11.488   1.964
32377SOL     OW99027   1.552  12.767   6.890
32377SOL    HW199028   1.519  12.678   6.877
32377SOL    HW299029   1.513  12.795   6.973
32378SOL     OW99030   4.821  14.390  12.072
32378SOL    HW199031   4.733  14.419  12.049
32378SOL    HW299032   4.808  14.322  12.138
32379SOL     OW99033   6.078   3.406   4.401
32379SOL    HW199034   6.089   3.480   4.460
32379SOL    HW299035   6.166   3.386   4.371
32380SOL     OW99036  10.236   3.088   4.045
32380SOL    HW199037  10.192   3.013   4.005
32380SOL    HW299038  10.297   3.051   4.108
32381SOL     OW99039  12.033  13.735   9.241
32381SOL    HW199040  12.006  13.751   9.331
32381SOL    HW299041  12.069  13.818   9.210
32382SOL     OW99042  13.395   6.346   5.953
32382SOL    HW199043  13.482   6.305   5.945
32382SOL    HW299044  13.351   6.324   5.871
32383SOL     OW99045  11.357   4.287   0.543
32383SOL    HW199046  11.447   4.308   0.568
32383SOL    HW299047  11.357   4.293   0.448
32384SOL     OW99048   1.954   1.401   0.518
32384SOL    HW199049   1.886   1.369   0.459
32384SOL    HW299050   2.032   1.350   0.496
32385SOL     OW99051   7.939   9.763   3.114
32385SOL    HW199052   7.978   9.727   3.194
32385SOL    HW299053   8.015   9.790   3.062
32386SOL     OW99054   6.785   1.861   8.857
32386SOL    HW199055   6.779   1.828   8.946
32386SOL    HW299056   6.879   1.869   8.841
32387SOL     OW99057  12.407   5.561   1.327
32387SOL    HW199058  12.486   5.509   1.340
32387SOL    HW299059  12.411   5.630   1.394
32388SOL     OW99060  13.843  10.571   4.636
32388SOL    HW199061  13.812  10.597   4.550
32388SOL    HW299062  13.772  10.516   4.671
32389SOL     OW99063   9.406  14.122   6.920
32389SOL    HW199064   9.331  14.169   6.885
32389SOL    HW299065   9.414  14.153   7.010
32390SOL     OW99066  12.777   0.842   1.347
32390SOL    HW199067  12.685   0.847   1.324
32390SOL    HW299068  12.796   0.748   1.352
32391SOL     OW99069  12.489   6.862   8.166
32391SOL    HW199070  12.436   6.809   8.225
32391SOL    HW299071  12.579   6.849   8.196
32392SOL     OW99072   5.677   1.578   1.537
32392SOL    HW199073   5.741   1.536   1.594
32392SOL    HW299074   5.729   1.636   1.481
32393SOL     OW99075   6.299   9.945   6.139
32393SOL    HW199076   6.282   9.922   6.048
32393SOL    HW299077   6.372   9.889   6.165
32394SOL     OW99078  14.067   6.009   4.570
32394SOL    HW199079  14.046   6.048   4.655
32394SOL    HW299080  13.989   6.024   4.517
32395SOL     OW99081   6.446   3.905   7.930
32395SOL    HW199082   6.481   3.818   7.949
32395SOL    HW299083   6.404   3.933   8.012
32396SOL     OW99084   1.245   3.087  12.983
32396SOL    HW199085   1.166   3.120  13.026
32396SOL    HW299086   1.312   3.089  13.051
32397SOL     OW99087   4.309   0.658   3.070
32397SOL    HW199088   4.325   0.652   2.976
32397SOL    HW299089   4.382   0.711   3.103
32398SOL     OW99090   0.967  14.020   7.239
32398SOL    HW199091   0.978  13.928   7.214
32398SOL    HW299092   1.009  14.027   7.324
32399SOL     OW99093   8.224   9.355   0.667
32399SOL    HW199094   8.134   9.331   0.644
32399SOL    HW299095   8.219   9.447   0.691
32400SOL     OW99096   3.886   2.163   8.911
32400SOL    HW199097   3.794   2.182   8.930
32400SOL    HW299098   3.891   2.067   8.911
32401SOL     OW99099  12.194  11.205  14.032
32401SOL    HW199100  12.153  11.277  14.079
32401SOL    HW299101  12.275  11.187  14.081
32402SOL     OW99102   5.817  12.317   3.193
32402SOL    HW199103   5.770  12.314   3.276
32402SOL    HW299104   5.910  12.318   3.218
32403SOL     OW99105   3.515   3.509  14.079
32403SOL    HW199106   3.470   3.475  14.002
32403SOL    HW299107   3.608   3.505  14.056
32404SOL     OW99108   2.619   4.234  12.251
32404SOL    HW199109   2.567   4.291  12.307
32404SOL    HW299110   2.702   4.280  12.241
32405SOL     OW99111   8.292  12.710  11.309
32405SOL    HW199112   8.224  12.743  11.251
32405SOL    HW299113   8.255  12.630  11.347
32406SOL     OW99114  11.070  14.714  11.845
32406SOL    HW199115  11.105  14.708  11.933
32406SOL    HW299116  10.984  14.755  11.856
32407SOL     OW99117  11.972   1.646   6.132
32407SOL    HW199118  11.943   1.555   6.134
32407SOL    HW299119  11.903   1.693   6.085
32408SOL     OW99120   7.843   7.625   2.970
32408SOL    HW199121   7.818   7.535   2.948
32408SOL    HW299122   7.760   7.671   2.982
32409SOL     OW99123   4.342   0.940   5.516
32409SOL    HW199124   4.258   0.918   5.475
32409SOL    HW299125   4.356   0.871   5.581
32410SOL     OW99126   8.347   6.345   1.308
32410SOL    HW199127   8.320   6.280   1.243
32410SOL    HW299128   8.442   6.349   1.298
32411SOL     OW99129  10.247   5.450  14.373
32411SOL    HW199130  10.188   5.496  14.434
32411SOL    HW299131  10.283   5.379  14.425
32412SOL     OW99132   7.322   5.480  12.941
32412SOL    HW199133   7.269   5.506  12.865
32412SOL    HW299134   7.393   5.428  12.905
32413SOL     OW99135   8.352   4.133   1.077
32413SOL    HW199136   8.390   4.087   1.152
32413SOL    HW299137   8.425   4.185   1.042
32414SOL     OW99138  11.187  10.291   8.115
32414SOL    HW199139  11.094  10.297   8.092
32414SOL    HW299140  11.188  10.261   8.206
32415SOL     OW99141   2.062  13.535   7.065
32415SOL    HW199142   2.127  13.594   7.027
32415SOL    HW299143   2.103  13.502   7.145
32416SOL     OW99144  11.247   7.040   8.505
32416SOL    HW199145  11.338   7.047   8.478
32416SOL    HW299146  11.224   7.127   8.538
32417SOL     OW99147   8.869   1.888   6.406
32417SOL    HW199148   8.781   1.924   6.417
32417SOL    HW299149   8.909   1.943   6.339
32418SOL     OW99150   3.703   4.150   7.028
32418SOL    HW199151   3.765   4.151   7.101
32418SOL    HW299152   3.702   4.059   6.998
32419SOL     OW99153   4.935  13.703   9.989
32419SOL    HW199154   4.997  13.724   9.919
32419SOL    HW299155   4.865  13.655   9.946
32420SOL     OW99156  12.791   5.663   9.808
32420SOL    HW199157  12.741   5.585   9.833
32420SOL    HW299158  12.868   5.661   9.865
32421SOL     OW99159   4.440   2.099  11.559
32421SOL    HW199160   4.463   2.137  11.474
32421SOL    HW299161   4.524   2.078  11.600
32422SOL     OW99162  11.910  11.282  11.457
32422SOL    HW199163  11.997  11.243  11.454
32422SOL    HW299164  11.881  11.269  11.547
32423SOL     OW99165  12.662  11.334  10.218
32423SOL    HW199166  12.634  11.246  10.245
32423SOL    HW299167  12.640  11.389  10.293
32424SOL     OW99168  11.695  13.427   5.327
32424SOL    HW199169  11.607  13.390   5.326
32424SOL    HW299170  11.685  13.515   5.291
32425SOL     OW99171  13.063   3.854  13.635
32425SOL    HW199172  13.024   3.786  13.580
32425SOL    HW299173  13.113   3.909  13.574
32426SOL     OW99174   6.100  12.299   3.206
32426SOL    HW199175   6.185  12.343   3.209
32426SOL    HW299176   6.118  12.209   3.232
32427SOL     OW99177  10.250  11.144   9.886
32427SOL    HW199178  10.258  11.238   9.903
32427SOL    HW299179  10.157  11.126   9.896
32428SOL     OW99180   0.249   2.043   0.334
32428SOL    HW199181   0.266   2.096   0.412
32428SOL    HW299182   0.295   2.089   0.264
32429SOL     OW99183   7.010   5.879  10.920
32429SOL    HW199184   6.997   5.794  10.962
32429SOL    HW299185   7.102   5.900  10.936
32430SOL     OW99186   8.099  13.034  13.739
32430SOL    HW199187   8.140  13.106  13.786
32430SOL    HW299188   8.133  12.955  13.780
32431SOL     OW99189   3.219  10.858   6.520
32431SOL    HW199190   3.196  10.835   6.430
32431SOL    HW299191   3.310  10.887   6.515
32432SOL     OW99192  14.173   3.580  10.396
32432SOL    HW199193  14.236   3.543  10.458
32432SOL    HW299194  14.154   3.508  10.336
32433SOL     OW99195  11.382   4.260  13.882
32433SOL    HW199196  11.448   4.214  13.830
32433SOL    HW299197  11.424   4.274  13.967
32434SOL     OW99198   7.990   2.432   6.616
32434SOL    HW199199   7.931   2.485   6.669
32434SOL    HW299200   8.053   2.495   6.580
32435SOL     OW99201   0.404   1.884   3.390
32435SOL    HW199202   0.446   1.811   3.435
32435SOL    HW299203   0.459   1.960   3.412
32436SOL     OW99204   3.237   7.531   7.400
32436SOL    HW199205   3.206   7.461   7.456
32436SOL    HW299206   3.293   7.487   7.335
32437SOL     OW99207   7.858   3.320  10.315
32437SOL    HW199208   7.837   3.413  10.320
32437SOL    HW299209   7.878   3.295  10.406
32438SOL     OW99210   4.779  10.490   1.239
32438SOL    HW199211   4.860  10.528   1.205
32438SOL    HW299212   4.725  10.566   1.263
32439SOL     OW99213   0.741   9.009   2.690
32439SOL    HW199214   0.742   8.978   2.781
32439SOL    HW299215   0.824   8.978   2.654
32440SOL     OW99216   8.358   3.390  10.178
32440SOL    HW199217   8.419   3.331  10.134
32440SOL    HW299218   8.273   3.347  10.170
32441SOL     OW99219   2.372   0.124   6.974
32441SOL    HW199220   2.414   0.133   7.059
32441SOL    HW299221   2.319   0.045   6.981
32442SOL     OW99222   2.801  13.269  13.788
32442SOL    HW199223   2.860  13.291  13.716
32442SOL    HW299224   2.815  13.338  13.852
32443SOL     OW99225   6.993   9.780   1.348
32443SOL    HW199226   7.083   9.811   1.343
32443SOL    HW299227   6.951   9.835   1.414
32444SOL     OW99228   7.480  10.973   1.631
32444SOL    HW199229   7.447  10.980   1.720
32444SOL    HW299230   7.442  10.892   1.597
32445SOL     OW99231   6.894   4.436  14.417
32445SOL    HW199232   6.804   4.432  14.448
32445SOL    HW299233   6.938   4.495  14.479
32446SOL     OW99234   5.176  11.509   6.828
32446SOL    HW199235   5.246  11.445   6.817
32446SOL    HW299236   5.098  11.464   6.794
32447SOL     OW99237  13.785  13.045   4.863
32447SOL    HW199238  13.846  13.109   4.899
32447SOL    HW299239  13.707  13.052   4.918
32448SOL     OW99240   4.972   3.447   4.174
32448SOL    HW199241   4.980   3.419   4.083
32448SOL    HW299242   4.915   3.381   4.214
32449SOL     OW99243  13.183  12.665   0.625
32449SOL    HW199244  13.148  12.754   0.635
32449SOL    HW299245  13.278  12.676   0.633
32450SOL     OW99246   8.967   3.353   1.101
32450SOL    HW199247   8.888   3.404   1.118
32450SOL    HW299248   9.033   3.418   1.077
32451SOL     OW99249   0.448   6.633   9.309
32451SOL    HW199250   0.369   6.676   9.343
32451SOL    HW299251   0.510   6.638   9.381
32452SOL     OW99252   7.944  14.078   4.094
32452SOL    HW199253   7.996  14.146   4.136
32452SOL    HW299254   7.853  14.104   4.109
32453SOL     OW99255   5.944   5.644   1.938
32453SOL    HW199256   5.953   5.716   1.875
32453SOL    HW299257   5.851   5.624   1.937
32454SOL     OW99258   9.983   4.881   2.313
32454SOL    HW199259  10.007   4.973   2.303
32454SOL    HW299260  10.067   4.835   2.319
32455SOL     OW99261   9.038  10.971   8.011
32455SOL    HW199262   9.099  11.006   8.076
32455SOL    HW299263   8.965  10.936   8.062
32456SOL     OW99264   3.784  13.034   2.573
32456SOL    HW199265   3.718  13.104   2.567
32456SOL    HW299266   3.783  13.008   2.665
32457SOL     OW99267   1.792  13.123  11.567
32457SOL    HW199268   1.843  13.198  11.598
32457SOL    HW299269   1.757  13.150  11.483
32458SOL     OW99270  12.516  13.063   7.147
32458SOL    HW199271  12.468  13.137   7.109
32458SOL    HW299272  12.449  13.000   7.172
32459SOL     OW99273  13.867   6.193   3.993
32459SOL    HW199274  13.922   6.182   3.916
32459SOL    HW299275  13.842   6.285   3.992
32460SOL     OW99276   3.953   1.767   4.419
32460SOL    HW199277   4.033   1.749   4.468
32460SOL    HW299278   3.963   1.856   4.387
32461SOL     OW99279   0.340   9.447   0.664
32461SOL    HW199280   0.246   9.429   0.677
32461SOL    HW299281   0.375   9.367   0.625
32462SOL     OW99282   9.941   3.677   1.771
32462SOL    HW199283   9.900   3.723   1.844
32462SOL    HW299284   9.988   3.605   1.812
32463SOL     OW99285   2.546   5.261   5.878
32463SOL    HW199286   2.548   5.321   5.804
32463SOL    HW299287   2.462   5.216   5.871
32464SOL     OW99288  14.251  10.078   4.459
32464SOL    HW199289  14.203  10.066   4.377
32464SOL    HW299290  14.300  10.159   4.446
32465SOL     OW99291  13.636   0.777   0.089
32465SOL    HW199292  13.731   0.764   0.094
32465SOL    HW299293  13.601   0.723   0.160
32466SOL     OW99294   3.507   5.597  13.664
32466SOL    HW199295   3.510   5.691  13.677
32466SOL    HW299296   3.448   5.565  13.732
32467SOL     OW99297  13.540  13.401   2.403
32467SOL    HW199298  13.519  13.332   2.466
32467SOL    HW299299  13.602  13.359   2.343
32468SOL     OW99300   2.692   6.351   4.343
32468SOL    HW199301   2.662   6.358   4.434
32468SOL    HW299302   2.774   6.401   4.340
32469SOL     OW99303   2.209   9.879   0.515
32469SOL    HW199304   2.197   9.967   0.480
32469SOL    HW299305   2.217   9.890   0.609
32470SOL     OW99306   2.413   2.858   1.056
32470SOL    HW199307   2.449   2.944   1.037
32470SOL    HW299308   2.344   2.875   1.120
32471SOL     OW99309  12.441   0.899  13.373
32471SOL    HW199310  12.406   0.873  13.288
32471SOL    HW299311  12.385   0.972  13.401
32472SOL     OW99312  12.643   5.706  10.345
32472SOL    HW199313  12.688   5.635  10.299
32472SOL    HW299314  12.592   5.662  10.412
32473SOL     OW99315   7.219   0.748  11.266
32473SOL    HW199316   7.262   0.754  11.351
32473SOL    HW299317   7.176   0.662  11.267
32474SOL     OW99318   0.396   9.500  12.333
32474SOL    HW199319   0.444   9.570  12.378
32474SOL    HW299320   0.317   9.489  12.385
32475SOL     OW99321  10.314   8.713   4.245
32475SOL    HW199322  10.279   8.706   4.156
32475SOL    HW299323  10.308   8.625   4.280
32476SOL     OW99324  13.232   4.973   4.375
32476SOL    HW199325  13.210   4.995   4.466
32476SOL    HW299326  13.297   4.903   4.383
32477SOL     OW99327   5.688  11.833  11.934
32477SOL    HW199328   5.726  11.772  11.871
32477SOL    HW299329   5.763  11.878  11.973
32478SOL     OW99330   5.152  12.159   4.854
32478SOL    HW199331   5.220  12.226   4.854
32478SOL    HW299332   5.184  12.091   4.913
32479SOL     OW99333   0.878   1.144  11.360
32479SOL    HW199334   0.964   1.182  11.341
32479SOL    HW299335   0.896   1.053  11.382
32480SOL     OW99336  12.502  10.050   7.016
32480SOL    HW199337  12.473   9.997   7.090
32480SOL    HW299338  12.531  10.132   7.054
32481SOL     OW99339   7.090   7.347   0.981
32481SOL    HW199340   7.017   7.284   0.981
32481SOL    HW299341   7.156   7.308   1.037
32482SOL     OW99342  13.305   3.733   1.994
32482SOL    HW199343  13.216   3.767   1.987
32482SOL    HW299344  13.361   3.807   1.972
32483SOL     OW99345  11.074   2.239   9.946
32483SOL    HW199346  11.009   2.286   9.894
32483SOL    HW299347  11.054   2.263  10.037
32484SOL     OW99348   8.106   9.770   9.400
32484SOL    HW199349   8.043   9.788   9.470
32484SOL    HW299350   8.091   9.840   9.336
32485SOL     OW99351   1.521  14.847   2.792
32485SOL    HW199352   1.578  14.776   2.762
32485SOL    HW299353   1.561   0.003   2.874
32486SOL     OW99354  13.774   9.848  10.991
32486SOL    HW199355  13.733   9.915  10.936
32486SOL    HW299356  13.703   9.787  11.011
32487SOL     OW99357   8.718   5.535   1.486
32487SOL    HW199358   8.706   5.440   1.491
32487SOL    HW299359   8.654   5.570   1.548
32488SOL     OW99360   4.525  14.700   1.934
32488SOL    HW199361   4.601  14.692   1.877
32488SOL    HW299362   4.555  14.752   2.008
32489SOL     OW99363   5.259   2.501   6.621
32489SOL    HW199364   5.227   2.486   6.710
32489SOL    HW299365   5.179   2.517   6.570
32490SOL     OW99366   8.287  12.255   2.222
32490SOL    HW199367   8.366  12.292   2.261
32490SOL    HW299368   8.296  12.161   2.234
32491SOL     OW99369   7.189  12.889   6.714
32491SOL    HW199370   7.214  12.978   6.739
32491SOL    HW299371   7.115  12.900   6.655
32492SOL     OW99372  11.461   3.934   4.665
32492SOL    HW199373  11.423   3.846   4.670
32492SOL    HW299374  11.550   3.920   4.633
32493SOL     OW99375  12.235   6.449  14.104
32493SOL    HW199376  12.216   6.481  14.192
32493SOL    HW299377  12.272   6.524  14.058
32494SOL     OW99378  10.476  12.452  10.631
32494SOL    HW199379  10.556  12.402  10.645
32494SOL    HW299380  10.432  12.408  10.558
32495SOL     OW99381   3.358   9.543   0.896
32495SOL    HW199382   3.396   9.590   0.822
32495SOL    HW299383   3.282   9.594   0.921
32496SOL     OW99384   6.591   9.481   1.844
32496SOL    HW199385   6.541   9.400   1.850
32496SOL    HW299386   6.525   9.550   1.851
32497SOL     OW99387   6.966   8.761   1.831
32497SOL    HW199388   6.902   8.727   1.894
32497SOL    HW299389   6.917   8.823   1.777
32498SOL     OW99390   6.710   4.712   6.422
32498SOL    HW199391   6.702   4.721   6.327
32498SOL    HW299392   6.725   4.619   6.436
32499SOL     OW99393   2.769   5.371  14.163
32499SOL    HW199394   2.859   5.403  14.155
32499SOL    HW299395   2.725   5.437  14.217
32500SOL     OW99396   7.961  10.046   2.520
32500SOL    HW199397   7.876  10.073   2.555
32500SOL    HW299398   7.983  10.114   2.456
32501SOL     OW99399   3.132   2.538   6.508
32501SOL    HW199400   3.050   2.555   6.554
32501SOL    HW299401   3.109   2.476   6.439
32502SOL     OW99402  12.136   3.931  13.600
32502SOL    HW199403  12.173   3.847  13.629
32502SOL    HW299404  12.051   3.908  13.562
32503SOL     OW99405   7.457   6.165  11.516
32503SOL    HW199406   7.514   6.096  11.550
32503SOL    HW299407   7.467   6.160  11.421
32504SOL     OW99408  13.611   5.399   8.052
32504SOL    HW199409  13.706   5.401   8.062
32504SOL    HW299410  13.577   5.419   8.140
32505SOL     OW99411   2.179   3.546  12.366
32505SOL    HW199412   2.271   3.543  12.340
32505SOL    HW299413   2.180   3.573  12.457
32506SOL     OW99414  10.504   0.305   3.085
32506SOL    HW199415  10.552   0.377   3.126
32506SOL    HW299416  10.438   0.349   3.031
32507SOL     OW99417  11.245  13.722  12.059
32507SOL    HW199418  11.245  13.654  12.126
32507SOL    HW299419  11.176  13.696  11.998
32508SOL     OW99420   7.041   6.172  11.722
32508SOL    HW199421   7.080   6.235  11.783
32508SOL    HW299422   7.001   6.227  11.654
32509SOL     OW99423   5.888   4.020   4.579
32509SOL    HW199424   5.884   4.043   4.487
32509SOL    HW299425   5.809   4.059   4.617
32510SOL     OW99426   1.470   3.160   1.010
32510SOL    HW199427   1.399   3.222   0.994
32510SOL    HW299428   1.545   3.214   1.031
32511SOL     OW99429   8.315   2.236  14.060
32511SOL    HW199430   8.307   2.321  14.019
32511SOL    HW299431   8.256   2.179  14.010
32512SOL     OW99432   5.754   9.815  13.139
32512SOL    HW199433   5.801   9.877  13.194
32512SOL    HW299434   5.662   9.832  13.156
32513SOL     OW99435   2.469   4.838   5.208
32513SOL    HW199436   2.557   4.834   5.246
32513SOL    HW299437   2.435   4.923   5.235
32514SOL     OW99438  13.753  14.163   3.833
32514SOL    HW199439  13.809  14.221   3.884
32514SOL    HW299440  13.757  14.079   3.878
32515SOL     OW99441   3.950  10.309   3.541
32515SOL    HW199442   3.903  10.232   3.509
32515SOL    HW299443   4.042  10.285   3.534
32516SOL     OW99444   5.934  14.186   3.175
32516SOL    HW199445   6.004  14.190   3.111
32516SOL    HW299446   5.910  14.278   3.189
32517SOL     OW99447  13.546   8.622   9.170
32517SOL    HW199448  13.627   8.671   9.183
32517SOL    HW299449  13.563   8.568   9.092
32518SOL     OW99450   6.111  12.616   4.386
32518SOL    HW199451   6.076  12.530   4.363
32518SOL    HW299452   6.206  12.606   4.376
32519SOL     OW99453   2.466   5.366  14.652
32519SOL    HW199454   2.490   5.320  14.732
32519SOL    HW299455   2.386   5.321  14.623
32520SOL     OW99456   8.750   9.227   6.830
32520SOL    HW199457   8.677   9.234   6.769
32520SOL    HW299458   8.810   9.164   6.789
32521SOL     OW99459   6.717   6.635   9.811
32521SOL    HW199460   6.761   6.611   9.729
32521SOL    HW299461   6.705   6.730   9.804
32522SOL     OW99462  13.964  14.614   8.665
32522SOL    HW199463  13.975  14.660   8.749
32522SOL    HW299464  14.002  14.528   8.681
32523SOL     OW99465   2.210  14.871   7.337
32523SOL    HW199466   2.231  14.854   7.428
32523SOL    HW299467   2.239  14.793   7.290
32524SOL     OW99468   8.075   5.821  14.813
32524SOL    HW199469   8.112   5.847   0.022
32524SOL    HW299470   7.992   5.869  14.807
32525SOL     OW99471  12.518  11.359   9.461
32525SOL    HW199472  12.513  11.454   9.477
32525SOL    HW299473  12.433  11.325   9.491
32526SOL     OW99474   7.464   5.536   9.765
32526SOL    HW199475   7.516   5.498   9.694
32526SOL    HW299476   7.529   5.582   9.819
32527SOL     OW99477  11.296   3.939   5.137
32527SOL    HW199478  11.247   3.883   5.077
32527SOL    HW299479  11.356   3.988   5.081
32528SOL     OW99480  13.370  13.461   2.956
32528SOL    HW199481  13.317  13.394   2.999
32528SOL    HW299482  13.386  13.527   3.024
32529SOL     OW99483   4.849   2.033   2.672
32529SOL    HW199484   4.759   2.043   2.641
32529SOL    HW299485   4.902   2.084   2.611
32530SOL     OW99486   6.950  11.159   6.904
32530SOL    HW199487   6.955  11.250   6.874
32530SOL    HW299488   6.957  11.108   6.824
32531SOL     OW99489   7.009   0.178  13.936
32531SOL    HW199490   6.919   0.209  13.944
32531SOL    HW299491   7.005   0.085  13.960
32532SOL     OW99492   4.479   4.004  12.031
32532SOL    HW199493   4.560   3.986  12.078
32532SOL    HW299494   4.414   4.020  12.100
32533SOL     OW99495  12.897  11.371   9.371
32533SOL    HW199496  12.877  11.304   9.306
32533SOL    HW299497  12.870  11.332   9.455
32534SOL     OW99498   5.611  12.187  10.813
32534SOL    HW199499   5.586  12.111  10.867
32534SOL    HW299500   5.545  12.253  10.834
32535SOL     OW99501   4.006  11.038   3.820
32535SOL    HW199502   3.997  11.131   3.801
32535SOL    HW299503   3.917  11.007   3.834
32536SOL     OW99504   1.859   0.197   4.510
32536SOL    HW199505   1.901   0.261   4.453
32536SOL    HW299506   1.857   0.239   4.596
32537SOL     OW99507   2.686  14.740   1.555
32537SOL    HW199508   2.626  14.801   1.512
32537SOL    HW299509   2.772  14.780   1.546
32538SOL     OW99510  10.337   3.617   4.504
32538SOL    HW199511  10.421   3.635   4.546
32538SOL    HW299512  10.356   3.622   4.410
32539SOL     OW99513  12.105   8.941  11.418
32539SOL    HW199514  12.020   8.910  11.387
32539SOL    HW299515  12.166   8.914  11.350
32540SOL     OW99516   4.792  14.196   4.622
32540SOL    HW199517   4.809  14.136   4.695
32540SOL    HW299518   4.724  14.152   4.571
32541SOL     OW99519  13.648   5.858  14.126
32541SOL    HW199520  13.742   5.849  14.138
32541SOL    HW299521  13.627   5.944  14.164
32542SOL     OW99522  13.406  10.143  11.447
32542SOL    HW199523  13.465  10.075  11.478
32542SOL    HW299524  13.433  10.159  11.357
32543SOL     OW99525   8.162  13.444   0.383
32543SOL    HW199526   8.131  13.530   0.354
32543SOL    HW299527   8.083  13.394   0.402
32544SOL     OW99528   1.141   2.610   0.222
32544SOL    HW199529   1.145   2.577   0.312
32544SOL    HW299530   1.222   2.659   0.211
32545SOL     OW99531   6.180  10.907   0.993
32545SOL    HW199532   6.113  10.963   1.030
32545SOL    HW299533   6.223  10.867   1.069
32546SOL     OW99534   0.233   5.680   7.082
32546SOL    HW199535   0.252   5.771   7.059
32546SOL    HW299536   0.214   5.683   7.176
32547SOL     OW99537   0.477   7.806  13.528
32547SOL    HW199538   0.397   7.858  13.524
32547SOL    HW299539   0.452   7.725  13.572
32548SOL     OW99540  10.404   0.537   4.072
32548SOL    HW199541  10.408   0.585   3.990
32548SOL    HW299542  10.494   0.537   4.105
32549SOL     OW99543   9.511  10.239   8.146
32549SOL    HW199544   9.558  10.305   8.096
32549SOL    HW299545   9.424  10.275   8.159
32550SOL     OW99546   8.896  11.535   1.262
32550SOL    HW199547   8.820  11.501   1.310
32550SOL    HW299548   8.863  11.613   1.217
32551SOL     OW99549   1.565   8.551  11.142
32551SOL    HW199550   1.624   8.479  11.163
32551SOL    HW299551   1.621   8.616  11.099
32552SOL     OW99552   1.356   1.408   9.657
32552SOL    HW199553   1.340   1.454   9.575
32552SOL    HW299554   1.417   1.464   9.705
32553SOL     OW99555   1.528  14.377   8.241
32553SOL    HW199556   1.510  14.352   8.150
32553SOL    HW299557   1.623  14.379   8.247
32554SOL     OW99558   7.720   9.725  12.180
32554SOL    HW199559   7.777   9.678  12.119
32554SOL    HW299560   7.763   9.809  12.194
32555SOL     OW99561   7.169   1.396   5.991
32555SOL    HW199562   7.262   1.396   5.971
32555SOL    HW299563   7.157   1.324   6.053
32556SOL     OW99564  12.085   3.930  14.147
32556SOL    HW199565  12.094   3.909  14.054
32556SOL    HW299566  12.121   3.854  14.192
32557SOL     OW99567   4.262   2.422   0.800
32557SOL    HW199568   4.293   2.365   0.730
32557SOL    HW299569   4.214   2.492   0.755
32558SOL     OW99570   1.956   6.278   5.479
32558SOL    HW199571   2.002   6.328   5.412
32558SOL    HW299572   2.026   6.229   5.523
32559SOL     OW99573  13.027   8.447   0.499
32559SOL    HW199574  13.059   8.522   0.448
32559SOL    HW299575  13.089   8.377   0.480
32560SOL     OW99576  14.720  12.063   4.858
32560SOL    HW199577  14.728  11.998   4.789
32560SOL    HW299578  14.665  12.021   4.925
32561SOL     OW99579   3.795  11.088   8.034
32561SOL    HW199580   3.718  11.137   8.061
32561SOL    HW299581   3.865  11.118   8.093
32562SOL     OW99582   8.176  10.534   2.004
32562SOL    HW199583   8.198  10.625   2.023
32562SOL    HW299584   8.209  10.519   1.916
32563SOL     OW99585   6.650   2.018   9.098
32563SOL    HW199586   6.689   2.024   9.186
32563SOL    HW299587   6.695   2.085   9.047
32564SOL     OW99588   0.206  10.072   0.785
32564SOL    HW199589   0.199   9.990   0.834
32564SOL    HW299590   0.299  10.095   0.788
32565SOL     OW99591  10.071   9.584   5.168
32565SOL    HW199592  10.140   9.542   5.116
32565SOL    HW299593  10.098   9.675   5.175
32566SOL     OW99594  12.208  12.740  14.299
32566SOL    HW199595  12.179  12.649  14.291
32566SOL    HW299596  12.136  12.784  14.344
32567SOL     OW99597   6.936  14.794  12.751
32567SOL    HW199598   6.846  14.770  12.729
32567SOL    HW299599   6.936   0.015  12.751
32568SOL     OW99600  13.497  14.395  12.743
32568SOL    HW199601  13.568  14.334  12.724
32568SOL    HW299602  13.418  14.342  12.737
32569SOL     OW99603   4.143   2.594   0.596
32569SOL    HW199604   4.114   2.684   0.612
32569SOL    HW299605   4.223   2.604   0.545
32570SOL     OW99606   2.170   9.003   4.171
32570SOL    HW199607   2.110   9.016   4.097
32570SOL    HW299608   2.232   8.937   4.139
32571SOL     OW99609   9.763   7.558   0.416
32571SOL    HW199610   9.780   7.614   0.341
32571SOL    HW299611   9.671   7.571   0.437
32572SOL     OW99612  12.588   8.135   4.718
32572SOL    HW199613  12.549   8.168   4.799
32572SOL    HW299614  12.668   8.187   4.708
32573SOL     OW99615   5.959   2.929   1.905
32573SOL    HW199616   6.045   2.891   1.888
32573SOL    HW299617   5.978   3.022   1.921
32574SOL     OW99618  12.574   0.269   3.203
32574SOL    HW199619  12.553   0.344   3.259
32574SOL    HW299620  12.529   0.288   3.121
32575SOL     OW99621   5.063   4.627  12.293
32575SOL    HW199622   5.025   4.606  12.208
32575SOL    HW299623   5.112   4.708  12.278
32576SOL     OW99624  11.794   2.753  14.735
32576SOL    HW199625  11.732   2.820  14.707
32576SOL    HW299626  11.750   2.670  14.715
32577SOL     OW99627   6.289  13.484   7.346
32577SOL    HW199628   6.288  13.557   7.284
32577SOL    HW299629   6.209  13.496   7.398
32578SOL     OW99630  11.569   8.963   1.483
32578SOL    HW199631  11.565   9.018   1.405
32578SOL    HW299632  11.511   9.005   1.545
32579SOL     OW99633  12.530   1.339  10.478
32579SOL    HW199634  12.442   1.352  10.442
32579SOL    HW299635  12.517   1.279  10.551
32580SOL     OW99636   8.416   2.078  14.295
32580SOL    HW199637   8.408   2.124  14.212
32580SOL    HW299638   8.342   2.017  14.295
32581SOL     OW99639   9.382   3.835  11.479
32581SOL    HW199640   9.327   3.758  11.462
32581SOL    HW299641   9.405   3.868  11.392
32582SOL     OW99642   1.639   8.909   5.270
32582SOL    HW199643   1.593   8.877   5.193
32582SOL    HW299644   1.577   8.898   5.342
32583SOL     OW99645  14.583   1.650  11.093
32583SOL    HW199646  14.564   1.647  10.999
32583SOL    HW299647  14.512   1.702  11.130
32584SOL     OW99648   6.548   2.440   7.012
32584SOL    HW199649   6.531   2.395   6.929
32584SOL    HW299650   6.466   2.485   7.032
32585SOL     OW99651   4.994  13.887   8.835
32585SOL    HW199652   5.081  13.870   8.873
32585SOL    HW299653   5.013  13.922   8.747
32586SOL     OW99654  11.419   9.780   4.659
32586SOL    HW199655  11.410   9.685   4.663
32586SOL    HW299656  11.456   9.805   4.743
32587SOL     OW99657   7.085   8.468   6.181
32587SOL    HW199658   6.998   8.457   6.219
32587SOL    HW299659   7.108   8.381   6.148
32588SOL     OW99660   9.217   1.550   5.232
32588SOL    HW199661   9.142   1.584   5.183
32588SOL    HW299662   9.285   1.539   5.165
32589SOL     OW99663   3.558   5.639   3.750
32589SOL    HW199664   3.576   5.556   3.706
32589SOL    HW299665   3.517   5.694   3.683
32590SOL     OW99666   5.098   1.243   9.740
32590SOL    HW199667   5.069   1.208   9.655
32590SOL    HW299668   5.125   1.333   9.720
32591SOL     OW99669  14.208  11.793   7.937
32591SOL    HW199670  14.210  11.836   7.851
32591SOL    HW299671  14.138  11.728   7.930
32592SOL     OW99672   5.418   3.399   3.990
32592SOL    HW199673   5.461   3.363   3.912
32592SOL    HW299674   5.376   3.480   3.960
32593SOL     OW99675  13.180  14.186   6.492
32593SOL    HW199676  13.247  14.220   6.433
32593SOL    HW299677  13.138  14.116   6.442
32594SOL     OW99678   8.789  11.189   1.682
32594SOL    HW199679   8.786  11.280   1.710
32594SOL    HW299680   8.762  11.191   1.590
32595SOL     OW99681  12.534   3.575  13.596
32595SOL    HW199682  12.548   3.486  13.564
32595SOL    HW299683  12.443   3.577  13.625
32596SOL     OW99684   1.720   6.254   9.617
32596SOL    HW199685   1.781   6.277   9.546
32596SOL    HW299686   1.758   6.293   9.695
32597SOL     OW99687   4.914  11.979   6.033
32597SOL    HW199688   4.905  11.977   6.129
32597SOL    HW299689   5.000  11.942   6.016
32598SOL     OW99690   8.577   9.310   1.561
32598SOL    HW199691   8.637   9.236   1.555
32598SOL    HW299692   8.516   9.297   1.488
32599SOL     OW99693  11.892   4.675  12.410
32599SOL    HW199694  11.932   4.748  12.458
32599SOL    HW299695  11.836   4.717  12.344
32600SOL     OW99696  13.631   6.564   2.864
32600SOL    HW199697  13.536   6.556   2.868
32600SOL    HW299698  13.664   6.508   2.934
32601SOL     OW99699   7.765   6.252   6.180
32601SOL    HW199700   7.843   6.207   6.210
32601SOL    HW299701   7.779   6.343   6.205
32602SOL     OW99702  13.299   6.373   7.828
32602SOL    HW199703  13.236   6.356   7.758
32602SOL    HW299704  13.246   6.398   7.903
32603SOL     OW99705  10.919  12.680   9.676
32603SOL    HW199706  10.848  12.637   9.628
32603SOL    HW299707  10.875  12.751   9.724
32604SOL     OW99708   0.597  14.205   4.314
32604SOL    HW199709   0.610  14.162   4.230
32604SOL    HW299710   0.502  14.201   4.328
32605SOL     OW99711  13.639  10.997   9.967
32605SOL    HW199712  13.634  10.956  10.054
32605SOL    HW299713  13.560  11.051   9.962
32606SOL     OW99714   6.553   7.212  11.378
32606SOL    HW199715   6.499   7.289  11.357
32606SOL    HW299716   6.490   7.141  11.386
32607SOL     OW99717  11.642   9.118   1.704
32607SOL    HW199718  11.655   9.089   1.614
32607SOL    HW299719  11.619   9.039   1.752
32608SOL     OW99720   1.376   6.047   2.846
32608SOL    HW199721   1.423   6.111   2.792
32608SOL    HW299722   1.284   6.060   2.824
32609SOL     OW99723  10.044  14.825  11.142
32609SOL    HW199724  10.027   0.033  11.098
32609SOL    HW299725  10.049  14.760  11.072
32610SOL     OW99726  13.981   8.699   6.164
32610SOL    HW199727  14.002   8.637   6.094
32610SOL    HW299728  14.013   8.657   6.244
32611SOL     OW99729  11.875  13.126   8.608
32611SOL    HW199730  11.853  13.085   8.524
32611SOL    HW299731  11.793  13.125   8.657
32612SOL     OW99732  11.620  11.775  12.698
32612SOL    HW199733  11.666  11.709  12.646
32612SOL    HW299734  11.598  11.730  12.780
32613SOL     OW99735   3.775  12.690  11.550
32613SOL    HW199736   3.829  12.719  11.623
32613SOL    HW299737   3.831  12.626  11.504
32614SOL     OW99738   0.147   5.312   6.448
32614SOL    HW199739   0.194   5.360   6.380
32614SOL    HW299740   0.207   5.241   6.473
32615SOL     OW99741   0.036   1.429   1.480
32615SOL    HW199742   0.058   1.442   1.572
32615SOL    HW299743  14.834   1.484   1.465
32616SOL     OW99744   6.475  12.057  13.576
32616SOL    HW199745   6.442  12.032  13.662
32616SOL    HW299746   6.526  11.982  13.547
32617SOL     OW99747  14.353   3.106  12.996
32617SOL    HW199748  14.364   3.189  13.042
32617SOL    HW299749  14.430   3.054  13.021
32618SOL     OW99750   4.476   0.419   6.932
32618SOL    HW199751   4.415   0.384   6.867
32618SOL    HW299752   4.462   0.366   7.010
32619SOL     OW99753   5.345   3.028  11.276
32619SOL    HW199754   5.271   3.017  11.216
32619SOL    HW299755   5.305   3.048  11.361
32620SOL     OW99756   3.546  10.797  11.359
32620SOL    HW199757   3.590  10.795  11.445
32620SOL    HW299758   3.617  10.788  11.296
32621SOL     OW99759  11.198   1.937   9.113
32621SOL    HW199760  11.225   2.017   9.068
32621SOL    HW299761  11.111   1.918   9.077
32622SOL     OW99762   5.924   7.380   2.625
32622SOL    HW199763   6.002   7.325   2.622
32622SOL    HW299764   5.855   7.322   2.656
32623SOL     OW99765  13.207   2.394   6.127
32623SOL    HW199766  13.195   2.480   6.088
32623SOL    HW299767  13.129   2.345   6.102
32624SOL     OW99768   5.741   7.275   1.772
32624SOL    HW199769   5.654   7.239   1.754
32624SOL    HW299770   5.744   7.283   1.867
32625SOL     OW99771  11.697   7.117   8.868
32625SOL    HW199772  11.677   7.056   8.938
32625SOL    HW299773  11.730   7.062   8.797
32626SOL     OW99774   9.225  10.163   5.964
32626SOL    HW199775   9.283  10.148   5.889
32626SOL    HW299776   9.263  10.239   6.009
32627SOL     OW99777  11.079   9.629   3.759
32627SOL    HW199778  11.059   9.545   3.800
32627SOL    HW299779  10.993   9.668   3.742
32628SOL     OW99780   7.995   4.050   2.826
32628SOL    HW199781   8.040   3.985   2.773
32628SOL    HW299782   7.962   4.114   2.762
32629SOL     OW99783  12.390  12.281   3.122
32629SOL    HW199784  12.416  12.195   3.155
32629SOL    HW299785  12.307  12.265   3.076
32630SOL     OW99786   0.193  12.310   2.281
32630SOL    HW199787   0.139  12.322   2.359
32630SOL    HW299788   0.132  12.312   2.208
32631SOL     OW99789   1.459   5.596   3.585
32631SOL    HW199790   1.404   5.625   3.658
32631SOL    HW299791   1.521   5.535   3.624
32632SOL     OW99792   8.321   8.884   0.503
32632SOL    HW199793   8.410   8.915   0.488
32632SOL    HW299794   8.314   8.873   0.597
32633SOL     OW99795  10.807   4.643  13.862
32633SOL    HW199796  10.853   4.678  13.785
32633SOL    HW299797  10.798   4.549  13.844
32634SOL     OW99798  12.390  14.686  13.271
32634SOL    HW199799  12.478  14.651  13.284
32634SOL    HW299800  12.404  14.770  13.228
32635SOL     OW99801   3.538   7.601   3.615
32635SOL    HW199802   3.603   7.624   3.680
32635SOL    HW299803   3.509   7.686   3.579
32636SOL     OW99804   2.748  12.724   7.659
32636SOL    HW199805   2.735  12.788   7.589
32636SOL    HW299806   2.816  12.665   7.625
32637SOL     OW99807  13.259  11.204   2.024
32637SOL    HW199808  13.266  11.110   2.038
32637SOL    HW299809  13.166  11.219   2.005
32638SOL     OW99810   7.115  12.350   1.169
32638SOL    HW199811   7.202  12.388   1.185
32638SOL    HW299812   7.123  12.260   1.200
32639SOL     OW99813  13.898  13.851   2.443
32639SOL    HW199814  13.990  13.824   2.449
32639SOL    HW299815  13.900  13.946   2.452
32640SOL     OW99816   7.578   2.151  14.111
32640SOL    HW199817   7.551   2.124  14.199
32640SOL    HW299818   7.572   2.247  14.113
32641SOL     OW99819   0.058   9.705   4.430
32641SOL    HW199820   0.108   9.787   4.433
32641SOL    HW299821   0.063   9.678   4.339
32642SOL     OW99822   0.758   2.273   4.520
32642SOL    HW199823   0.805   2.351   4.489
32642SOL    HW299824   0.819   2.201   4.503
32643SOL     OW99825   0.810   8.632   3.666
32643SOL    HW199826   0.815   8.658   3.758
32643SOL    HW299827   0.901   8.612   3.642
32644SOL     OW99828   8.465  11.865   3.904
32644SOL    HW199829   8.384  11.916   3.911
32644SOL    HW299830   8.444  11.797   3.840
32645SOL     OW99831  10.863   4.409  14.432
32645SOL    HW199832  10.817   4.329  14.410
32645SOL    HW299833  10.882   4.401  14.526
32646SOL     OW99834  10.233  10.285   8.839
32646SOL    HW199835  10.295  10.214   8.855
32646SOL    HW299836  10.285  10.365   8.846
32647SOL     OW99837   4.950   4.597   7.989
32647SOL    HW199838   4.884   4.568   7.926
32647SOL    HW299839   4.989   4.675   7.949
32648SOL     OW99840   5.738   0.501  13.366
32648SOL    HW199841   5.829   0.530  13.369
32648SOL    HW299842   5.701   0.546  13.290
32649SOL     OW99843   6.827  12.071   2.839
32649SOL    HW199844   6.859  12.110   2.757
32649SOL    HW299845   6.877  12.114   2.908
32650SOL     OW99846   1.435  12.982   9.602
32650SOL    HW199847   1.413  12.978   9.695
32650SOL    HW299848   1.528  13.005   9.601
32651SOL     OW99849   8.170  11.654  11.888
32651SOL    HW199850   8.078  11.679  11.878
32651SOL    HW299851   8.195  11.622  11.802
32652SOL     OW99852   8.124  14.073   3.709
32652SOL    HW199853   8.046  14.028   3.741
32652SOL    HW299854   8.160  14.014   3.642
32653SOL     OW99855  14.029   0.844  10.359
32653SOL    HW199856  13.957   0.832  10.297
32653SOL    HW299857  14.097   0.888  10.307
32654SOL     OW99858   5.129   5.638   7.521
32654SOL    HW199859   5.081   5.721   7.515
32654SOL    HW299860   5.069   5.574   7.484
32655SOL     OW99861  12.665   4.035   9.902
32655SOL    HW199862  12.578   4.053   9.936
32655SOL    HW299863  12.652   4.024   9.807
32656SOL     OW99864   6.441   7.088  12.386
32656SOL    HW199865   6.367   7.039  12.350
32656SOL    HW299866   6.493   7.111  12.309
32657SOL     OW99867   6.681   4.090   0.336
32657SOL    HW199868   6.621   4.107   0.263
32657SOL    HW299869   6.624   4.064   0.408
32658SOL     OW99870  12.587   7.795   4.365
32658SOL    HW199871  12.557   7.845   4.442
32658SOL    HW299872  12.678   7.821   4.354
32659SOL     OW99873   6.661   1.928   2.121
32659SOL    HW199874   6.695   1.878   2.047
32659SOL    HW299875   6.623   1.862   2.179
32660SOL     OW99876  11.241   1.718  12.200
32660SOL    HW199877  11.267   1.710  12.108
32660SOL    HW299878  11.276   1.802  12.228
32661SOL     OW99879   5.871   1.849   2.402
32661SOL    HW199880   5.957   1.886   2.380
32661SOL    HW299881   5.820   1.861   2.322
32662SOL     OW99882  12.489   5.643  12.316
32662SOL    HW199883  12.405   5.690  12.317
32662SOL    HW299884  12.538   5.680  12.390
32663SOL     OW99885  10.259   2.765   9.944
32663SOL    HW199886  10.200   2.690   9.941
32663SOL    HW299887  10.205   2.839   9.916
32664SOL     OW99888   7.335   1.692   1.362
32664SOL    HW199889   7.403   1.719   1.301
32664SOL    HW299890   7.253   1.721   1.321
32665SOL     OW99891   4.496  13.595   8.089
32665SOL    HW199892   4.577  13.564   8.049
32665SOL    HW299893   4.452  13.644   8.020
32666SOL     OW99894  10.631   7.718   6.940
32666SOL    HW199895  10.619   7.795   6.885
32666SOL    HW299896  10.617   7.644   6.881
32667SOL     OW99897   5.904   0.104  12.977
32667SOL    HW199898   5.814   0.111  12.947
32667SOL    HW299899   5.920   0.185  13.025
32668SOL     OW99900  10.839   3.277   8.313
32668SOL    HW199901  10.917   3.331   8.323
32668SOL    HW299902  10.869   3.200   8.265
32669SOL     OW99903  12.933   6.373  14.007
32669SOL    HW199904  13.016   6.347  13.967
32669SOL    HW299905  12.904   6.448  13.954
32670SOL     OW99906  11.521  11.560   5.862
32670SOL    HW199907  11.470  11.544   5.783
32670SOL    HW299908  11.464  11.614   5.916
32671SOL     OW99909   2.544   9.208   1.365
32671SOL    HW199910   2.567   9.290   1.409
32671SOL    HW299911   2.450   9.197   1.383
32672SOL     OW99912   0.324   2.239   1.258
32672SOL    HW199913   0.418   2.254   1.251
32672SOL    HW299914   0.283   2.317   1.222
32673SOL     OW99915  13.486   6.505   1.424
32673SOL    HW199916  13.485   6.409   1.427
32673SOL    HW299917  13.491   6.531   1.516
32674SOL     OW99918   8.960  12.456   8.864
32674SOL    HW199919   8.871  12.485   8.845
32674SOL    HW299920   8.968  12.462   8.959
32675SOL     OW99921  11.726   5.844   2.546
32675SOL    HW199922  11.702   5.851   2.638
32675SOL    HW299923  11.697   5.757   2.519
32676SOL     OW99924   2.528   5.407   5.208
32676SOL    HW199925   2.589   5.334   5.202
32676SOL    HW299926   2.517   5.421   5.302
32677SOL     OW99927   6.918  12.417   3.029
32677SOL    HW199928   6.866  12.446   2.954
32677SOL    HW299929   6.940  12.498   3.076
32678SOL     OW99930   8.926  13.800   5.562
32678SOL    HW199931   8.916  13.885   5.520
32678SOL    HW299932   9.020  13.788   5.572
32679SOL     OW99933   7.302   2.310  12.152
32679SOL    HW199934   7.212   2.315  12.120
32679SOL    HW299935   7.342   2.241  12.098
32680SOL     OW99936  14.463  13.116   3.102
32680SOL    HW199937  14.506  13.198   3.081
32680SOL    HW299938  14.525  13.048   3.076
32681SOL     OW99939  12.399  14.633   8.891
32681SOL    HW199940  12.317  14.585   8.881
32681SOL    HW299941  12.380  14.721   8.860
32682SOL     OW99942  12.194   3.310   0.889
32682SOL    HW199943  12.288   3.298   0.877
32682SOL    HW299944  12.176   3.398   0.857
32683SOL     OW99945   4.717   9.928  12.556
32683SOL    HW199946   4.740   9.965  12.471
32683SOL    HW299947   4.639   9.876  12.539
32684SOL     OW99948   4.977   6.314  11.999
32684SOL    HW199949   5.048   6.274  11.948
32684SOL    HW299950   4.969   6.402  11.964
32685SOL     OW99951  10.122  11.021   8.037
32685SOL    HW199952  10.072  11.037   8.117
32685SOL    HW299953  10.070  10.957   7.988
32686SOL     OW99954   3.457   7.577   7.131
32686SOL    HW199955   3.524   7.616   7.075
32686SOL    HW299956   3.374   7.614   7.098
32687SOL     OW99957  11.497   6.102  12.051
32687SOL    HW199958  11.561   6.074  11.985
32687SOL    HW299959  11.412   6.085  12.010
32688SOL     OW99960  14.775   4.925   1.915
32688SOL    HW199961  14.848   4.886   1.964
32688SOL    HW299962  14.794   5.019   1.913
32689SOL     OW99963  11.703   3.824   4.107
32689SOL    HW199964  11.775   3.885   4.089
32689SOL    HW299965  11.745   3.738   4.108
32690SOL     OW99966   1.384  14.760   5.368
32690SOL    HW199967   1.356  14.828   5.429
32690SOL    HW299968   1.454  14.801   5.317
32691SOL     OW99969   6.894   3.136   2.637
32691SOL    HW199970   6.832   3.087   2.691
32691SOL    HW299971   6.970   3.151   2.694
32692SOL     OW99972  13.641   1.551  11.408
32692SOL    HW199973  13.582   1.624  11.429
32692SOL    HW299974  13.728   1.583  11.432
32693SOL     OW99975  13.549  12.786   0.381
32693SOL    HW199976  13.522  12.878   0.374
32693SOL    HW299977  13.499  12.741   0.313
32694SOL     OW99978  13.251  10.858   0.226
32694SOL    HW199979  13.256  10.826   0.136
32694SOL    HW299980  13.269  10.952   0.219
32695SOL     OW99981   8.179   8.875  13.721
32695SOL    HW199982   8.106   8.936  13.706
32695SOL    HW299983   8.257   8.930  13.718
32696SOL     OW99984   6.601   9.073   8.348
32696SOL    HW199985   6.593   9.123   8.267
32696SOL    HW299986   6.673   9.115   8.395
32697SOL     OW99987   1.936   4.054   3.625
32697SOL    HW199988   2.026   4.021   3.617
32697SOL    HW299989   1.939   4.111   3.702
32698SOL     OW99990   4.542   4.043   3.812
32698SOL    HW199991   4.546   4.135   3.786
32698SOL    HW299992   4.588   3.996   3.742
32699SOL     OW99993   2.316   9.777   5.813
32699SOL    HW199994   2.302   9.838   5.885
32699SOL    HW299995   2.314   9.832   5.734
32700SOL     OW99996   8.272   7.109  13.399
32700SOL    HW199997   8.316   7.027  13.420
32700SOL    HW299998   8.179   7.086  13.393
32701SOL     OW99999  11.736  10.815   3.458
32701SOL    HW1    0  11.731  10.758   3.535
32701SOL    HW2    1  11.757  10.901   3.493
32702SOL     OW    2  10.599  11.666  12.919
32702SOL    HW1    3  10.560  11.596  12.867
32702SOL    HW2    4  10.556  11.659  13.004
32703SOL     OW    5   8.489   0.875   6.073
32703SOL    HW1    6   8.555   0.939   6.099
32703SOL    HW2    7   8.480   0.817   6.148
32704SOL     OW    8  13.900   5.492   5.636
32704SOL    HW1    9  13.935   5.438   5.565
32704SOL    HW2   10  13.968   5.488   5.704
32705SOL     OW   11  14.136   2.272  13.616
32705SOL    HW1   12  14.083   2.318  13.681
32705SOL    HW2   13  14.226   2.295  13.637
32706SOL     OW   14   8.912  12.510   6.955
32706SOL    HW1   15   8.825  12.519   6.994
32706SOL    HW2   16   8.918  12.417   6.933
32707SOL     OW   17   4.761   0.452   0.271
32707SOL    HW1   18   4.741   0.514   0.341
32707SOL    HW2   19   4.793   0.506   0.199
32708SOL     OW   20   2.780   6.909   5.028
32708SOL    HW1   21   2.842   6.856   4.977
32708SOL    HW2   22   2.801   6.999   5.006
32709SOL     OW   23  10.553   2.820   1.246
32709SOL    HW1   24  10.534   2.737   1.290
32709SOL    HW2   25  10.632   2.852   1.289
32710SOL     OW   26   3.662  14.047   3.448
32710SOL    HW1   27   3.609  14.022   3.373
32710SOL    HW2   28   3.600  14.089   3.508
32711SOL     OW   29  11.861   3.704   0.702
32711SOL    HW1   30  11.816   3.622   0.680
32711SOL    HW2   31  11.854   3.757   0.623
32712SOL     OW   32   2.085   1.053   4.825
32712SOL    HW1   33   2.135   1.085   4.750
32712SOL    HW2   34   2.044   1.131   4.862
32713SOL     OW   35  13.381   6.584   9.871
32713SOL    HW1   36  13.427   6.666   9.890
32713SOL    HW2   37  13.447   6.516   9.886
32714SOL     OW   38   0.064   1.030  10.670
32714SOL    HW1   39   0.145   1.078  10.655
32714SOL    HW2   40  14.869   1.092  10.647
32715SOL     OW   41   1.423   7.816  13.229
32715SOL    HW1   42   1.347   7.850  13.276
32715SOL    HW2   43   1.396   7.816  13.137
32716SOL     OW   44  14.126  10.146  14.666
32716SOL    HW1   45  14.215  10.146  14.631
32716SOL    HW2   46  14.085  10.068  14.629
32717SOL     OW   47   1.660   2.686   8.389
32717SOL    HW1   48   1.690   2.647   8.471
32717SOL    HW2   49   1.649   2.611   8.330
32718SOL     OW   50  11.308   1.728  13.629
32718SOL    HW1   51  11.251   1.805  13.636
32718SOL    HW2   52  11.391   1.756  13.666
32719SOL     OW   53   8.567  10.861  11.229
32719SOL    HW1   54   8.547  10.786  11.285
32719SOL    HW2   55   8.662  10.874  11.238
32720SOL     OW   56  13.004  13.681   8.462
32720SOL    HW1   57  12.949  13.747   8.505
32720SOL    HW2   58  12.951  13.601   8.466
32721SOL     OW   59   4.202   3.261   0.674
32721SOL    HW1   60   4.156   3.311   0.607
32721SOL    HW2   61   4.295   3.276   0.656
32722SOL     OW   62  11.033  12.370   7.590
32722SOL    HW1   63  11.113  12.423   7.597
32722SOL    HW2   64  10.981  12.396   7.666
32723SOL     OW   65  11.962   3.991  13.794
32723SOL    HW1   66  11.923   3.910  13.826
32723SOL    HW2   67  12.028   3.962  13.730
32724SOL     OW   68   2.110  11.044  12.568
32724SOL    HW1   69   2.131  11.054  12.476
32724SOL    HW2   70   2.034  10.985  12.569
32725SOL     OW   71   2.477  13.481   0.577
32725SOL    HW1   72   2.412  13.415   0.603
32725SOL    HW2   73   2.464  13.553   0.639
32726SOL     OW   74   2.232   4.569   5.903
32726SOL    HW1   75   2.262   4.598   5.989
32726SOL    HW2   76   2.174   4.639   5.873
32727SOL     OW   77  10.582   6.304   0.519
32727SOL    HW1   78  10.568   6.374   0.455
32727SOL    HW2   79  10.548   6.340   0.601
32728SOL     OW   80   6.512   4.928   0.908
32728SOL    HW1   81   6.422   4.914   0.939
32728SOL    HW2   82   6.565   4.867   0.959
32729SOL     OW   83  14.866  10.225  12.492
32729SOL    HW1   84  14.831  10.292  12.550
32729SOL    HW2   85   0.014  10.273  12.412
32730SOL     OW   86  11.337   5.680   3.507
32730SOL    HW1   87  11.259   5.635   3.541
32730SOL    HW2   88  11.337   5.660   3.413
32731SOL     OW   89   1.048   4.737  14.342
32731SOL    HW1   90   0.979   4.711  14.404
32731SOL    HW2   91   1.016   4.819  14.304
32732SOL     OW   92   8.958   2.493   0.673
32732SOL    HW1   93   8.939   2.579   0.711
32732SOL    HW2   94   9.048   2.475   0.698
32733SOL     OW   95   4.062   7.982   7.977
32733SOL    HW1   96   4.130   8.046   7.956
32733SOL    HW2   97   4.015   8.020   8.051
32734SOL     OW   98   7.183   7.296  14.569
32734SOL    HW1   99   7.206   7.328  14.481
32734SOL    HW2  100   7.107   7.349  14.594
32735SOL     OW  101  10.386  13.519   9.173
32735SOL    HW1  102  10.324  13.481   9.110
32735SOL    HW2  103  10.371  13.613   9.168
32736SOL     OW  104   2.285  14.545  10.391
32736SOL    HW1  105   2.249  14.495  10.317
32736SOL    HW2  106   2.267  14.491  10.468
32737SOL     OW  107   7.003   8.637   6.002
32737SOL    HW1  108   7.049   8.588   6.070
32737SOL    HW2  109   6.914   8.649   6.038
32738SOL     OW  110   2.195   0.506   5.458
32738SOL    HW1  111   2.218   0.528   5.549
32738SOL    HW2  112   2.150   0.422   5.464
32739SOL     OW  113   3.998   2.525  12.765
32739SOL    HW1  114   3.963   2.563  12.846
32739SOL    HW2  115   3.927   2.534  12.702
32740SOL     OW  116   1.183   4.979   2.246
32740SOL    HW1  117   1.215   4.901   2.202
32740SOL    HW2  118   1.110   4.949   2.299
32741SOL     OW  119   1.598   0.215  14.780
32741SOL    HW1  120   1.535   0.194  14.850
32741SOL    HW2  121   1.618   0.131  14.740
32742SOL     OW  122  13.356   3.097   2.310
32742SOL    HW1  123  13.382   3.006   2.298
32742SOL    HW2  124  13.281   3.109   2.251
32743SOL     OW  125   3.814  11.284   7.437
32743SOL    HW1  126   3.830  11.346   7.508
32743SOL    HW2  127   3.833  11.333   7.357
32744SOL     OW  128   0.942  13.751  13.114
32744SOL    HW1  129   0.858  13.753  13.160
32744SOL    HW2  130   0.921  13.717  13.027
32745SOL     OW  131   7.251   6.206   9.805
32745SOL    HW1  132   7.231   6.198   9.898
32745SOL    HW2  133   7.268   6.116   9.776
32746SOL     OW  134  14.348  10.541  13.540
32746SOL    HW1  135  14.394  10.617  13.505
32746SOL    HW2  136  14.416  10.476  13.555
32747SOL     OW  137   9.658   9.246   0.446
32747SOL    HW1  138   9.611   9.163   0.432
32747SOL    HW2  139   9.618   9.283   0.525
32748SOL     OW  140   6.981  12.034   9.394
32748SOL    HW1  141   7.001  11.956   9.447
32748SOL    HW2  142   7.026  12.018   9.311
32749SOL     OW  143   3.012   7.655   4.184
32749SOL    HW1  144   3.039   7.745   4.199
32749SOL    HW2  145   3.023   7.641   4.090
32750SOL     OW  146   2.280   3.072   3.109
32750SOL    HW1  147   2.313   3.056   3.020
32750SOL    HW2  148   2.293   2.988   3.154
32751SOL     OW  149   2.864   5.343   4.452
32751SOL    HW1  150   2.933   5.408   4.436
32751SOL    HW2  151   2.853   5.343   4.547
32752SOL     OW  152   9.741   8.689  13.896
32752SOL    HW1  153   9.727   8.606  13.941
32752SOL    HW2  154   9.752   8.665  13.804
32753SOL     OW  155   1.602   0.594   0.785
32753SOL    HW1  156   1.530   0.534   0.805
32753SOL    HW2  157   1.618   0.641   0.867
32754SOL     OW  158  10.952  10.038   8.333
32754SOL    HW1  159  10.870   9.992   8.315
32754SOL    HW2  160  10.925  10.121   8.374
32755SOL     OW  161   9.784   7.189   0.493
32755SOL    HW1  162   9.847   7.170   0.563
32755SOL    HW2  163   9.829   7.252   0.437
32756SOL     OW  164  14.732   4.531  12.198
32756SOL    HW1  165  14.676   4.473  12.248
32756SOL    HW2  166  14.693   4.618  12.209
32757SOL     OW  167   9.933   5.334  14.756
32757SOL    HW1  168  10.008   5.394  14.760
32757SOL    HW2  169   9.874   5.375  14.692
32758SOL     OW  170   4.845   9.615  13.290
32758SOL    HW1  171   4.870   9.654  13.205
32758SOL    HW2  172   4.766   9.565  13.270
32759SOL     OW  173   4.886   9.700  13.964
32759SOL    HW1  174   4.977   9.686  13.936
32759SOL    HW2  175   4.890   9.704  14.059
32760SOL     OW  176   8.693   6.613   9.621
32760SOL    HW1  177   8.602   6.598   9.593
32760SOL    HW2  178   8.698   6.572   9.708
32761SOL     OW  179   5.300   0.051   5.047
32761SOL    HW1  180   5.316   0.023   5.137
32761SOL    HW2  181   5.231   0.118   5.054
32762SOL     OW  182   0.883   9.368   7.520
32762SOL    HW1  183   0.911   9.455   7.549
32762SOL    HW2  184   0.789   9.367   7.537
32763SOL     OW  185   7.912  11.313   2.400
32763SOL    HW1  186   7.831  11.333   2.448
32763SOL    HW2  187   7.939  11.227   2.434
32764SOL     OW  188   2.024   8.827   6.578
32764SOL    HW1  189   2.050   8.825   6.486
32764SOL    HW2  190   2.103   8.800   6.625
32765SOL     OW  191   4.813   1.886  14.312
32765SOL    HW1  192   4.743   1.935  14.269
32765SOL    HW2  193   4.791   1.891  14.405
32766SOL     OW  194   6.671   5.237   0.040
32766SOL    HW1  195   6.633   5.170  14.859
32766SOL    HW2  196   6.756   5.202   0.066
32767SOL     OW  197   8.102   4.208   2.131
32767SOL    HW1  198   8.089   4.166   2.216
32767SOL    HW2  199   8.182   4.168   2.097
32768SOL     OW  200  10.415   6.492  14.429
32768SOL    HW1  201  10.421   6.576  14.474
32768SOL    HW2  202  10.325   6.488  14.397
32769SOL     OW  203   0.925  12.425   2.832
32769SOL    HW1  204   0.840  12.412   2.789
32769SOL    HW2  205   0.944  12.340   2.872
32770SOL     OW  206  12.917   3.150   7.031
32770SOL    HW1  207  12.856   3.154   7.105
32770SOL    HW2  208  13.002   3.136   7.071
32771SOL     OW  209   7.847  14.238  10.860
32771SOL    HW1  210   7.851  14.143  10.876
32771SOL    HW2  211   7.898  14.251  10.780
32772SOL     OW  212   8.628  14.674   9.264
32772SOL    HW1  213   8.614  14.586   9.301
32772SOL    HW2  214   8.591  14.733   9.329
32773SOL     OW  215   5.676   1.124   5.197
32773SOL    HW1  216   5.730   1.048   5.215
32773SOL    HW2  217   5.679   1.133   5.101
32774SOL     OW  218   3.554   8.472   6.356
32774SOL    HW1  219   3.461   8.451   6.368
32774SOL    HW2  220   3.554   8.563   6.326
32775SOL     OW  221   8.838   7.315   7.819
32775SOL    HW1  222   8.810   7.272   7.738
32775SOL    HW2  223   8.831   7.408   7.799
32776SOL     OW  224   5.317  11.538   0.414
32776SOL    HW1  225   5.245  11.592   0.380
32776SOL    HW2  226   5.320  11.463   0.355
32777SOL     OW  227   3.584   9.243   2.200
32777SOL    HW1  228   3.643   9.201   2.262
32777SOL    HW2  229   3.564   9.175   2.136
32778SOL     OW  230   3.379   5.024  13.810
32778SOL    HW1  231   3.294   5.067  13.818
32778SOL    HW2  232   3.358   4.930  13.807
32779SOL     OW  233   9.183   7.617   6.722
32779SOL    HW1  234   9.099   7.640   6.762
32779SOL    HW2  235   9.233   7.699   6.723
32780SOL     OW  236   3.448   6.962  12.397
32780SOL    HW1  237   3.392   7.028  12.356
32780SOL    HW2  238   3.504   6.930  12.326
32781SOL     OW  239  14.106   2.432  11.963
32781SOL    HW1  240  14.133   2.524  11.967
32781SOL    HW2  241  14.038   2.424  12.031
32782SOL     OW  242  10.942   6.770   2.019
32782SOL    HW1  243  10.980   6.714   2.087
32782SOL    HW2  244  10.961   6.724   1.937
32783SOL     OW  245   2.391   5.633   0.315
32783SOL    HW1  246   2.320   5.673   0.365
32783SOL    HW2  247   2.353   5.615   0.230
32784SOL     OW  248   5.292   0.431   9.042
32784SOL    HW1  249   5.211   0.412   9.089
32784SOL    HW2  250   5.346   0.479   9.105
32785SOL     OW  251   1.985   4.821   7.341
32785SOL    HW1  252   2.068   4.796   7.300
32785SOL    HW2  253   1.944   4.738   7.364
32786SOL     OW  254   6.460  12.816   2.841
32786SOL    HW1  255   6.504  12.835   2.757
32786SOL    HW2  256   6.367  12.814   2.819
32787SOL     OW  257   7.605   9.078  13.245
32787SOL    HW1  258   7.654   9.145  13.293
32787SOL    HW2  259   7.673   9.018  13.212
32788SOL     OW  260   0.115   8.855  11.289
32788SOL    HW1  261   0.035   8.815  11.254
32788SOL    HW2  262   0.186   8.808  11.248
32789SOL     OW  263   9.341   7.707   9.796
32789SOL    HW1  264   9.316   7.652   9.721
32789SOL    HW2  265   9.266   7.701   9.855
32790SOL     OW  266  12.891  13.264  10.723
32790SOL    HW1  267  12.797  13.249  10.736
32790SOL    HW2  268  12.933  13.213  10.792
32791SOL     OW  269   5.501  14.014  12.047
32791SOL    HW1  270   5.589  13.985  12.020
32791SOL    HW2  271   5.515  14.099  12.088
32792SOL     OW  272  10.227   0.018  11.369
32792SOL    HW1  273  10.199  14.866  11.282
32792SOL    HW2  274  10.296   0.082  11.354
32793SOL     OW  275  11.860   8.413  14.022
32793SOL    HW1  276  11.813   8.331  14.038
32793SOL    HW2  277  11.814   8.452  13.947
32794SOL     OW  278   5.290   2.869   8.663
32794SOL    HW1  279   5.386   2.866   8.663
32794SOL    HW2  280   5.265   2.823   8.743
32795SOL     OW  281  14.337   2.431  13.709
32795SOL    HW1  282  14.321   2.505  13.651
32795SOL    HW2  283  14.344   2.469  13.796
32796SOL     OW  284   5.732   0.225  11.775
32796SOL    HW1  285   5.741   0.131  11.785
32796SOL    HW2  286   5.742   0.241  11.681
32797SOL     OW  287   6.382   7.043   2.930
32797SOL    HW1  288   6.373   6.983   2.856
32797SOL    HW2  289   6.401   7.128   2.889
32798SOL     OW  290  10.323   9.095   3.929
32798SOL    HW1  291  10.318   9.188   3.908
32798SOL    HW2  292  10.234   9.072   3.957
32799SOL     OW  293   6.366   3.201  11.367
32799SOL    HW1  294   6.358   3.245  11.452
32799SOL    HW2  295   6.417   3.122  11.385
32800SOL     OW  296   2.164   7.795  11.109
32800SOL    HW1  297   2.092   7.806  11.047
32800SOL    HW2  298   2.142   7.715  11.157
32801SOL     OW  299   3.588   0.662  11.569
32801SOL    HW1  300   3.575   0.741  11.622
32801SOL    HW2  301   3.680   0.638  11.586
32802SOL     OW  302   7.846  11.785   2.844
32802SOL    HW1  303   7.899  11.849   2.892
32802SOL    HW2  304   7.879  11.788   2.755
32803SOL     OW  305   1.686  13.624   6.659
32803SOL    HW1  306   1.774  13.654   6.682
32803SOL    HW2  307   1.672  13.548   6.716
32804SOL     OW  308   9.857  10.097   6.557
32804SOL    HW1  309   9.809  10.082   6.638
32804SOL    HW2  310   9.858  10.192   6.545
32805SOL     OW  311   1.384  14.277   8.471
32805SOL    HW1  312   1.296  14.299   8.504
32805SOL    HW2  313   1.392  14.327   8.390
32806SOL     OW  314  13.647  12.894  10.762
32806SOL    HW1  315  13.655  12.948  10.840
32806SOL    HW2  316  13.679  12.808  10.788
32807SOL     OW  317   8.082  13.897   9.049
32807SOL    HW1  318   8.024  13.854   8.986
32807SOL    HW2  319   8.045  13.874   9.135
32808SOL     OW  320   6.565  14.713  13.214
32808SOL    HW1  321   6.511  14.773  13.163
32808SOL    HW2  322   6.655  14.735  13.190
32809SOL     OW  323   6.918  10.218   1.186
32809SOL    HW1  324   6.914  10.288   1.121
32809SOL    HW2  325   6.835  10.223   1.232
32810SOL     OW  326  10.841   7.029  12.666
32810SOL    HW1  327  10.768   7.040  12.605
32810SOL    HW2  328  10.901   6.970  12.621
32811SOL     OW  329  10.634   3.832  12.000
32811SOL    HW1  330  10.683   3.757  11.967
32811SOL    HW2  331  10.670   3.849  12.087
32812SOL     OW  332  14.296  13.211   1.548
32812SOL    HW1  333  14.328  13.151   1.481
32812SOL    HW2  334  14.267  13.155   1.620
32813SOL     OW  335   8.597   0.112   2.922
32813SOL    HW1  336   8.536   0.183   2.903
32813SOL    HW2  337   8.573   0.083   3.010
32814SOL     OW  338   7.550   4.937   5.698
32814SOL    HW1  339   7.476   4.973   5.747
32814SOL    HW2  340   7.526   4.845   5.683
32815SOL     OW  341   2.966  13.273   5.488
32815SOL    HW1  342   2.933  13.231   5.409
32815SOL    HW2  343   3.028  13.338   5.456
32816SOL     OW  344  10.351  14.254  11.032
32816SOL    HW1  345  10.394  14.293  11.108
32816SOL    HW2  346  10.283  14.198  11.070
32817SOL     OW  347   7.047  13.929   4.927
32817SOL    HW1  348   7.030  13.886   4.844
32817SOL    HW2  349   7.051  14.022   4.906
32818SOL     OW  350   6.833   1.233   6.720
32818SOL    HW1  351   6.852   1.197   6.806
32818SOL    HW2  352   6.833   1.328   6.732
32819SOL     OW  353   2.124   2.555   2.853
32819SOL    HW1  354   2.039   2.588   2.824
32819SOL    HW2  355   2.147   2.609   2.928
32820SOL     OW  356  13.001   1.769   0.306
32820SOL    HW1  357  13.091   1.757   0.337
32820SOL    HW2  358  13.008   1.836   0.238
32821SOL     OW  359   1.267   4.300   7.946
32821SOL    HW1  360   1.247   4.238   7.875
32821SOL    HW2  361   1.219   4.379   7.922
32822SOL     OW  362   9.941   4.949   1.922
32822SOL    HW1  363   9.994   5.007   1.977
32822SOL    HW2  364   9.897   4.891   1.983
32823SOL     OW  365   2.138  14.655  12.639
32823SOL    HW1  366   2.232  14.655  12.656
32823SOL    HW2  367   2.098  14.672  12.724
32824SOL     OW  368   8.142  13.389  11.645
32824SOL    HW1  369   8.120  13.296  11.641
32824SOL    HW2  370   8.070  13.432  11.599
32825SOL     OW  371   9.733   3.316   9.736
32825SOL    HW1  372   9.799   3.265   9.784
32825SOL    HW2  373   9.757   3.303   9.643
32826SOL     OW  374   1.801   6.658   3.659
32826SOL    HW1  375   1.851   6.694   3.733
32826SOL    HW2  376   1.860   6.595   3.618
32827SOL     OW  377   2.568  10.654   1.038
32827SOL    HW1  378   2.503  10.587   1.061
32827SOL    HW2  379   2.645  10.603   1.011
32828SOL     OW  380   6.070  14.690   8.079
32828SOL    HW1  381   6.108  14.742   8.008
32828SOL    HW2  382   5.987  14.659   8.044
32829SOL     OW  383  12.030   3.099   6.944
32829SOL    HW1  384  12.084   3.065   7.016
32829SOL    HW2  385  11.940   3.079   6.969
32830SOL     OW  386  12.177  12.069   3.222
32830SOL    HW1  387  12.123  12.038   3.295
32830SOL    HW2  388  12.128  12.042   3.144
32831SOL     OW  389  12.946   0.152  14.441
32831SOL    HW1  390  13.030   0.152  14.486
32831SOL    HW2  391  12.936   0.063  14.408
32832SOL     OW  392   7.517   3.052   9.094
32832SOL    HW1  393   7.552   2.999   9.166
32832SOL    HW2  394   7.426   3.071   9.119
32833SOL     OW  395  11.013   4.300   8.973
32833SOL    HW1  396  11.032   4.259   9.057
32833SOL    HW2  397  11.007   4.228   8.911
32834SOL     OW  398  12.265   3.443   8.463
32834SOL    HW1  399  12.219   3.481   8.538
32834SOL    HW2  400  12.223   3.482   8.387
32835SOL     OW  401  12.044   6.081   6.507
32835SOL    HW1  402  12.061   6.012   6.571
32835SOL    HW2  403  12.108   6.066   6.438
32836SOL     OW  404  13.401  13.427   8.307
32836SOL    HW1  405  13.378  13.506   8.259
32836SOL    HW2  406  13.419  13.362   8.239
32837SOL     OW  407   7.681   1.805   5.480
32837SOL    HW1  408   7.646   1.785   5.567
32837SOL    HW2  409   7.706   1.897   5.485
32838SOL     OW  410  10.426   5.318   5.436
32838SOL    HW1  411  10.341   5.292   5.399
32838SOL    HW2  412  10.456   5.240   5.483
32839SOL     OW  413   7.267   6.333   2.821
32839SOL    HW1  414   7.192   6.280   2.795
32839SOL    HW2  415   7.228   6.411   2.862
32840SOL     OW  416   0.403  13.344   2.009
32840SOL    HW1  417   0.402  13.421   1.952
32840SOL    HW2  418   0.311  13.333   2.035
32841SOL     OW  419  12.290   9.133   9.955
32841SOL    HW1  420  12.207   9.179   9.940
32841SOL    HW2  421  12.300   9.134  10.050
32842SOL     OW  422  11.408   8.104  11.320
32842SOL    HW1  423  11.480   8.042  11.309
32842SOL    HW2  424  11.416   8.164  11.245
32843SOL     OW  425   3.725   6.456   6.254
32843SOL    HW1  426   3.762   6.475   6.168
32843SOL    HW2  427   3.702   6.363   6.250
32844SOL     OW  428  12.924   4.825   0.191
32844SOL    HW1  429  12.905   4.839   0.283
32844SOL    HW2  430  12.924   4.913   0.152
32845SOL     OW  431   2.577   0.592  14.302
32845SOL    HW1  432   2.648   0.552  14.352
32845SOL    HW2  433   2.565   0.678  14.341
32846SOL     OW  434   0.194  13.781  13.652
32846SOL    HW1  435   0.250  13.824  13.716
32846SOL    HW2  436   0.172  13.850  13.589
32847SOL     OW  437   1.585   8.622   0.040
32847SOL    HW1  438   1.613   8.563   0.110
32847SOL    HW2  439   1.648   8.607  14.844
32848SOL     OW  440  10.382  14.726   3.023
32848SOL    HW1  441  10.390  14.809   3.070
32848SOL    HW2  442  10.290  14.719   3.000
32849SOL     OW  443  13.310  12.506   4.045
32849SOL    HW1  444  13.399  12.541   4.036
32849SOL    HW2  445  13.261  12.577   4.086
32850SOL     OW  446  11.487   8.993  12.062
32850SOL    HW1  447  11.576   8.978  12.094
32850SOL    HW2  448  11.499   9.030  11.974
32851SOL     OW  449  14.489  11.165   8.756
32851SOL    HW1  450  14.566  11.217   8.734
32851SOL    HW2  451  14.509  11.127   8.842
32852SOL     OW  452  13.447   2.836   4.209
32852SOL    HW1  453  13.464   2.899   4.139
32852SOL    HW2  454  13.357   2.809   4.195
32853SOL     OW  455   9.804  14.103   2.940
32853SOL    HW1  456   9.747  14.169   2.902
32853SOL    HW2  457   9.893  14.133   2.920
32854SOL     OW  458  14.742   6.766   8.039
32854SOL    HW1  459  14.806   6.777   7.969
32854SOL    HW2  460  14.725   6.855   8.069
32855SOL     OW  461   9.707  12.471   0.225
32855SOL    HW1  462   9.774  12.418   0.181
32855SOL    HW2  463   9.624  12.429   0.200
32856SOL     OW  464   2.628   2.764   7.837
32856SOL    HW1  465   2.646   2.677   7.802
32856SOL    HW2  466   2.711   2.811   7.830
32857SOL     OW  467   1.675   8.012   5.053
32857SOL    HW1  468   1.620   8.047   5.123
32857SOL    HW2  469   1.619   7.951   5.005
32858SOL     OW  470   5.687  12.047   3.018
32858SOL    HW1  471   5.778  12.019   3.021
32858SOL    HW2  472   5.688  12.135   3.057
32859SOL     OW  473   0.312   6.425   7.149
32859SOL    HW1  474   0.341   6.516   7.155
32859SOL    HW2  475   0.323   6.402   7.057
32860SOL     OW  476   1.802   0.464   9.595
32860SOL    HW1  477   1.833   0.383   9.636
32860SOL    HW2  478   1.873   0.526   9.608
32861SOL     OW  479   1.751  13.384   9.753
32861SOL    HW1  480   1.752  13.468   9.800
32861SOL    HW2  481   1.824  13.390   9.691
32862SOL     OW  482  10.441  10.756   1.640
32862SOL    HW1  483  10.470  10.701   1.567
32862SOL    HW2  484  10.498  10.833   1.635
32863SOL     OW  485   5.059   3.602  13.621
32863SOL    HW1  486   4.973   3.620  13.583
32863SOL    HW2  487   5.051   3.629  13.712
32864SOL     OW  488   9.225   5.163   6.452
32864SOL    HW1  489   9.320   5.151   6.452
32864SOL    HW2  490   9.204   5.190   6.542
32865SOL     OW  491   2.031  13.837   9.260
32865SOL    HW1  492   2.010  13.929   9.275
32865SOL    HW2  493   2.004  13.820   9.170
32866SOL     OW  494  12.326  14.231   5.492
32866SOL    HW1  495  12.359  14.290   5.559
32866SOL    HW2  496  12.234  14.217   5.516
32867SOL     OW  497   5.316  13.744   6.279
32867SOL    HW1  498   5.337  13.650   6.279
32867SOL    HW2  499   5.335  13.772   6.368
32868SOL     OW  500   7.752  12.479  13.241
32868SOL    HW1  501   7.755  12.541  13.315
32868SOL    HW2  502   7.811  12.518  13.176
32869SOL     OW  503   2.834   0.573   0.934
32869SOL    HW1  504   2.808   0.481   0.934
32869SOL    HW2  505   2.898   0.579   1.005
32870SOL     OW  506   2.243  11.824   7.872
32870SOL    HW1  507   2.296  11.855   7.945
32870SOL    HW2  508   2.168  11.883   7.869
32871SOL     OW  509  10.474   5.649   4.121
32871SOL    HW1  510  10.391   5.694   4.105
32871SOL    HW2  511  10.541   5.716   4.106
32872SOL     OW  512   9.872  12.568  14.188
32872SOL    HW1  513   9.819  12.590  14.112
32872SOL    HW2  514   9.818  12.509  14.240
32873SOL     OW  515   9.799   9.078  10.691
32873SOL    HW1  516   9.790   9.115  10.779
32873SOL    HW2  517   9.765   9.146  10.633
32874SOL     OW  518  11.406   7.722   8.001
32874SOL    HW1  519  11.381   7.723   7.909
32874SOL    HW2  520  11.473   7.655   8.007
32875SOL     OW  521   0.182  14.319  13.722
32875SOL    HW1  522   0.114  14.301  13.657
32875SOL    HW2  523   0.155  14.402  13.762
32876SOL     OW  524  14.550  14.777   8.435
32876SOL    HW1  525  14.468  14.781   8.386
32876SOL    HW2  526  14.600  14.853   8.405
32877SOL     OW  527  14.600  12.886   3.055
32877SOL    HW1  528  14.677  12.835   3.028
32877SOL    HW2  529  14.560  12.833   3.125
32878SOL     OW  530  14.787   0.569   3.291
32878SOL    HW1  531  14.698   0.557   3.256
32878SOL    HW2  532  14.843   0.570   3.213
32879SOL     OW  533  11.885   9.756  11.392
32879SOL    HW1  534  11.928   9.696  11.452
32879SOL    HW2  535  11.923   9.737  11.306
32880SOL     OW  536  11.041   5.390   6.646
32880SOL    HW1  537  11.047   5.361   6.555
32880SOL    HW2  538  11.121   5.440   6.661
32881SOL     OW  539   9.334   1.293   7.614
32881SOL    HW1  540   9.399   1.321   7.550
32881SOL    HW2  541   9.322   1.369   7.671
32882SOL     OW  542   2.629   6.822   9.040
32882SOL    HW1  543   2.655   6.866   9.121
32882SOL    HW2  544   2.690   6.855   8.974
32883SOL     OW  545  13.513   5.633   3.840
32883SOL    HW1  546  13.460   5.555   3.857
32883SOL    HW2  547  13.450   5.698   3.809
32884SOL     OW  548   0.273  11.330   2.752
32884SOL    HW1  549   0.239  11.351   2.839
32884SOL    HW2  550   0.357  11.286   2.768
32885SOL     OW  551  12.582   1.486   2.909
32885SOL    HW1  552  12.653   1.496   2.972
32885SOL    HW2  553  12.518   1.553   2.934
32886SOL     OW  554  14.098   1.886   0.375
32886SOL    HW1  555  14.154   1.912   0.302
32886SOL    HW2  556  14.048   1.965   0.395
32887SOL     OW  557   4.138   6.121   5.149
32887SOL    HW1  558   4.167   6.142   5.060
32887SOL    HW2  559   4.156   6.201   5.199
32888SOL     OW  560   8.084   2.846  10.103
32888SOL    HW1  561   8.133   2.896  10.168
32888SOL    HW2  562   7.996   2.839  10.140
32889SOL     OW  563  14.035  12.131   4.424
32889SOL    HW1  564  13.977  12.056   4.440
32889SOL    HW2  565  14.075  12.113   4.339
32890SOL     OW  566  10.760   3.947   0.170
32890SOL    HW1  567  10.829   4.012   0.158
32890SOL    HW2  568  10.730   3.927   0.081
32891SOL     OW  569   4.709   3.752   1.752
32891SOL    HW1  570   4.758   3.804   1.688
32891SOL    HW2  571   4.663   3.817   1.806
32892SOL     OW  572  10.824   8.736  10.738
32892SOL    HW1  573  10.764   8.749  10.812
32892SOL    HW2  574  10.798   8.653  10.699
32893SOL     OW  575   8.923   8.173   0.691
32893SOL    HW1  576   8.939   8.120   0.613
32893SOL    HW2  577   8.828   8.171   0.702
32894SOL     OW  578   1.202  12.829   7.585
32894SOL    HW1  579   1.278  12.771   7.593
32894SOL    HW2  580   1.128  12.770   7.571
32895SOL     OW  581   6.009  13.585  11.375
32895SOL    HW1  582   5.979  13.626  11.293
32895SOL    HW2  583   5.949  13.512  11.388
32896SOL     OW  584  10.915   3.947   9.830
32896SOL    HW1  585  10.996   3.993   9.851
32896SOL    HW2  586  10.859   4.015   9.792
32897SOL     OW  587  11.295   3.922   8.046
32897SOL    HW1  588  11.224   3.899   7.987
32897SOL    HW2  589  11.361   3.963   7.990
32898SOL     OW  590   8.330   0.039  14.831
32898SOL    HW1  591   8.285   0.115  14.794
32898SOL    HW2  592   8.423   0.060  14.822
32899SOL     OW  593  14.342  12.632   1.552
32899SOL    HW1  594  14.413  12.697   1.561
32899SOL    HW2  595  14.344  12.583   1.634
32900SOL     OW  596   7.389  10.505   0.925
32900SOL    HW1  597   7.402  10.479   1.016
32900SOL    HW2  598   7.354  10.594   0.931
32901SOL     OW  599   1.044  14.271   4.140
32901SOL    HW1  600   1.011  14.183   4.121
32901SOL    HW2  601   1.133  14.256   4.174
32902SOL     OW  602   8.493   1.894   2.434
32902SOL    HW1  603   8.578   1.885   2.477
32902SOL    HW2  604   8.495   1.830   2.363
32903SOL     OW  605   0.059  12.230  10.915
32903SOL    HW1  606   0.116  12.269  10.981
32903SOL    HW2  607   0.115  12.219  10.838
32904SOL     OW  608   1.954   4.030   6.909
32904SOL    HW1  609   2.047   4.053   6.904
32904SOL    HW2  610   1.914   4.102   6.958
32905SOL     OW  611   1.487   1.061   2.867
32905SOL    HW1  612   1.570   1.100   2.839
32905SOL    HW2  613   1.421   1.107   2.815
32906SOL     OW  614   5.910   0.513   3.262
32906SOL    HW1  615   5.830   0.565   3.270
32906SOL    HW2  616   5.975   0.574   3.228
32907SOL     OW  617   6.229  10.554   9.286
32907SOL    HW1  618   6.289  10.564   9.211
32907SOL    HW2  619   6.272  10.491   9.343
32908SOL     OW  620   2.558  12.932   8.117
32908SOL    HW1  621   2.486  12.887   8.160
32908SOL    HW2  622   2.562  12.892   8.030
32909SOL     OW  623   2.094   9.312   1.677
32909SOL    HW1  624   2.047   9.385   1.635
32909SOL    HW2  625   2.130   9.349   1.757
32910SOL     OW  626  11.395   1.182  11.923
32910SOL    HW1  627  11.313   1.204  11.877
32910SOL    HW2  628  11.390   1.087  11.936
32911SOL     OW  629   3.786   5.880   1.319
32911SOL    HW1  630   3.788   5.863   1.413
32911SOL    HW2  631   3.837   5.808   1.280
32912SOL     OW  632   6.076   3.864   5.443
32912SOL    HW1  633   6.007   3.798   5.452
32912SOL    HW2  634   6.137   3.843   5.514
32913SOL     OW  635  11.641   4.313   5.272
32913SOL    HW1  636  11.560   4.319   5.220
32913SOL    HW2  637  11.612   4.328   5.362
32914SOL     OW  638   7.324   9.855  12.658
32914SOL    HW1  639   7.299   9.946  12.675
32914SOL    HW2  640   7.242   9.810  12.639
32915SOL     OW  641   9.999   4.806  12.109
32915SOL    HW1  642   9.939   4.843  12.174
32915SOL    HW2  643  10.084   4.805  12.152
32916SOL     OW  644   5.019  10.432   3.770
32916SOL    HW1  645   4.945  10.416   3.829
32916SOL    HW2  646   5.002  10.519   3.734
32917SOL     OW  647   2.605   2.006   9.596
32917SOL    HW1  648   2.700   2.008   9.579
32917SOL    HW2  649   2.597   2.029   9.688
32918SOL     OW  650  10.131   3.538  10.233
32918SOL    HW1  651  10.139   3.511  10.325
32918SOL    HW2  652  10.108   3.458  10.186
32919SOL     OW  653   1.687  14.603   0.971
32919SOL    HW1  654   1.697  14.538   1.042
32919SOL    HW2  655   1.635  14.558   0.905
32920SOL     OW  656  10.179   6.700   2.783
32920SOL    HW1  657  10.104   6.672   2.834
32920SOL    HW2  658  10.142   6.734   2.702
32921SOL     OW  659  13.074   6.657   7.566
32921SOL    HW1  660  13.002   6.595   7.561
32921SOL    HW2  661  13.054   6.723   7.499
32922SOL     OW  662   2.918   7.558   3.406
32922SOL    HW1  663   2.903   7.472   3.367
32922SOL    HW2  664   2.846   7.569   3.468
32923SOL     OW  665  12.019  11.483   0.721
32923SOL    HW1  666  11.930  11.464   0.690
32923SOL    HW2  667  12.008  11.502   0.814
32924SOL     OW  668   5.578   3.743  10.989
32924SOL    HW1  669   5.500   3.744  10.933
32924SOL    HW2  670   5.610   3.653  10.983
32925SOL     OW  671  10.559   6.482   3.734
32925SOL    HW1  672  10.589   6.413   3.676
32925SOL    HW2  673  10.578   6.563   3.687
32926SOL     OW  674   3.852  13.092   5.184
32926SOL    HW1  675   3.792  13.030   5.143
32926SOL    HW2  676   3.828  13.090   5.277
32927SOL     OW  677   3.898   7.870  14.055
32927SOL    HW1  678   3.927   7.781  14.076
32927SOL    HW2  679   3.813   7.858  14.012
32928SOL     OW  680  11.574   9.499   1.934
32928SOL    HW1  681  11.496   9.444   1.930
32928SOL    HW2  682  11.638   9.454   1.879
32929SOL     OW  683   6.678   4.918   5.909
32929SOL    HW1  684   6.709   4.838   5.867
32929SOL    HW2  685   6.752   4.949   5.961
32930SOL     OW  686  13.848   4.836  13.093
32930SOL    HW1  687  13.856   4.927  13.064
32930SOL    HW2  688  13.923   4.823  13.151
32931SOL     OW  689   9.158  13.177  13.647
32931SOL    HW1  690   9.160  13.152  13.740
32931SOL    HW2  691   9.131  13.097  13.602
32932SOL     OW  692   4.910   3.294  10.251
32932SOL    HW1  693   4.932   3.281  10.344
32932SOL    HW2  694   4.991   3.323  10.211
32933SOL     OW  695   1.784  10.576   0.459
32933SOL    HW1  696   1.695  10.601   0.485
32933SOL    HW2  697   1.820  10.655   0.418
32934SOL     OW  698   3.977   2.247   0.436
32934SOL    HW1  699   3.943   2.315   0.494
32934SOL    HW2  700   3.988   2.291   0.352
32935SOL     OW  701   0.845  10.411   4.784
32935SOL    HW1  702   0.838  10.507   4.775
32935SOL    HW2  703   0.769  10.387   4.837
32936SOL     OW  704  10.889   3.352   9.799
32936SOL    HW1  705  10.824   3.406   9.844
32936SOL    HW2  706  10.933   3.413   9.740
32937SOL     OW  707   8.298   4.375   3.609
32937SOL    HW1  708   8.293   4.400   3.702
32937SOL    HW2  709   8.392   4.374   3.590
32938SOL     OW  710   6.561   6.397   4.481
32938SOL    HW1  711   6.556   6.489   4.505
32938SOL    HW2  712   6.488   6.356   4.528
32939SOL     OW  713   9.114   0.537   9.171
32939SOL    HW1  714   9.172   0.527   9.246
32939SOL    HW2  715   9.081   0.627   9.177
32940SOL     OW  716  14.369   3.502   2.190
32940SOL    HW1  717  14.315   3.469   2.262
32940SOL    HW2  718  14.393   3.423   2.141
32941SOL     OW  719   8.954   8.745  13.301
32941SOL    HW1  720   8.946   8.776  13.211
32941SOL    HW2  721   8.991   8.819  13.349
32942SOL     OW  722   9.705   3.145  14.269
32942SOL    HW1  723   9.790   3.183  14.245
32942SOL    HW2  724   9.687   3.181  14.356
32943SOL     OW  725   5.496  13.909  14.872
32943SOL    HW1  726   5.423  13.971  14.872
32943SOL    HW2  727   5.547  13.932  14.794
32944SOL     OW  728   9.188  10.795   1.963
32944SOL    HW1  729   9.206  10.837   1.880
32944SOL    HW2  730   9.155  10.708   1.939
32945SOL     OW  731   6.299  10.883   4.466
32945SOL    HW1  732   6.218  10.833   4.455
32945SOL    HW2  733   6.355  10.826   4.520
32946SOL     OW  734   2.318  11.092   3.814
32946SOL    HW1  735   2.249  11.042   3.859
32946SOL    HW2  736   2.370  11.026   3.769
32947SOL     OW  737  14.741   7.507   1.545
32947SOL    HW1  738  14.818   7.480   1.597
32947SOL    HW2  739  14.713   7.426   1.502
32948SOL     OW  740   6.514   7.343  14.175
32948SOL    HW1  741   6.475   7.365  14.260
32948SOL    HW2  742   6.545   7.253  14.186
32949SOL     OW  743  11.560   7.788  11.927
32949SOL    HW1  744  11.568   7.881  11.946
32949SOL    HW2  745  11.467   7.769  11.939
32950SOL     OW  746   0.615  13.832   2.092
32950SOL    HW1  747   0.668  13.911   2.099
32950SOL    HW2  748   0.529  13.857   2.126
32951SOL     OW  749   7.054   4.246  13.899
32951SOL    HW1  750   6.982   4.283  13.847
32951SOL    HW2  751   7.073   4.313  13.964
32952SOL     OW  752  13.026   0.156  14.028
32952SOL    HW1  753  13.048   0.210  13.953
32952SOL    HW2  754  13.104   0.158  14.084
32953SOL     OW  755  10.053   2.570  10.001
32953SOL    HW1  756  10.030   2.578  10.093
32953SOL    HW2  757  10.051   2.476   9.983
32954SOL     OW  758   4.975  14.217  14.332
32954SOL    HW1  759   5.014  14.252  14.252
32954SOL    HW2  760   5.014  14.269  14.403
32955SOL     OW  761   7.026   8.401   5.226
32955SOL    HW1  762   6.995   8.455   5.153
32955SOL    HW2  763   7.107   8.442   5.254
32956SOL     OW  764  13.122  11.050   1.197
32956SOL    HW1  765  13.197  11.108   1.207
32956SOL    HW2  766  13.078  11.081   1.117
32957SOL     OW  767   4.530  13.217   5.566
32957SOL    HW1  768   4.600  13.241   5.505
32957SOL    HW2  769   4.507  13.127   5.543
32958SOL     OW  770   3.110   7.720   1.840
32958SOL    HW1  771   3.156   7.678   1.768
32958SOL    HW2  772   3.076   7.647   1.892
32959SOL     OW  773   1.284   5.933   6.088
32959SOL    HW1  774   1.214   5.999   6.088
32959SOL    HW2  775   1.241   5.852   6.117
32960SOL     OW  776   3.790   1.841   1.360
32960SOL    HW1  777   3.719   1.904   1.342
32960SOL    HW2  778   3.764   1.800   1.442
32961SOL     OW  779  10.409   3.550   8.983
32961SOL    HW1  780  10.438   3.637   9.009
32961SOL    HW2  781  10.371   3.512   9.062
32962SOL     OW  782   8.375  12.460   4.323
32962SOL    HW1  783   8.448  12.453   4.384
32962SOL    HW2  784   8.412  12.438   4.238
32963SOL     OW  785   3.938  13.600   7.227
32963SOL    HW1  786   3.938  13.505   7.242
32963SOL    HW2  787   3.869  13.633   7.285
32964SOL     OW  788   8.175   6.944   9.497
32964SOL    HW1  789   8.233   7.020   9.498
32964SOL    HW2  790   8.121   6.953   9.575
32965SOL     OW  791  14.866  14.401   9.306
32965SOL    HW1  792   0.062  14.434   9.250
32965SOL    HW2  793  14.821  14.336   9.251
32966SOL     OW  794   0.942   7.434   2.903
32966SOL    HW1  795   0.963   7.343   2.885
32966SOL    HW2  796   0.849   7.434   2.924
32967SOL     OW  797   8.921   5.334   1.292
32967SOL    HW1  798   8.875   5.290   1.364
32967SOL    HW2  799   8.854   5.387   1.249
32968SOL     OW  800   7.029   3.567   3.955
32968SOL    HW1  801   7.113   3.521   3.965
32968SOL    HW2  802   6.965   3.497   3.943
32969SOL     OW  803  10.368  10.518  14.254
32969SOL    HW1  804  10.348  10.611  14.254
32969SOL    HW2  805  10.321  10.483  14.178
32970SOL     OW  806   2.990   6.631  14.336
32970SOL    HW1  807   3.027   6.645  14.423
32970SOL    HW2  808   2.907   6.586  14.353
32971SOL     OW  809  11.159   9.503  10.554
32971SOL    HW1  810  11.146   9.593  10.585
32971SOL    HW2  811  11.218   9.513  10.479
32972SOL     OW  812   2.205   7.801  11.739
32972SOL    HW1  813   2.156   7.812  11.658
32972SOL    HW2  814   2.262   7.877  11.743
32973SOL     OW  815   4.655   6.830  14.135
32973SOL    HW1  816   4.669   6.802  14.225
32973SOL    HW2  817   4.711   6.771  14.083
32974SOL     OW  818   7.553   3.473  11.722
32974SOL    HW1  819   7.604   3.464  11.802
32974SOL    HW2  820   7.606   3.430  11.655
32975SOL     OW  821   5.808   5.215  13.641
32975SOL    HW1  822   5.740   5.279  13.625
32975SOL    HW2  823   5.796   5.189  13.732
32976SOL     OW  824   2.039  12.260   8.618
32976SOL    HW1  825   2.028  12.178   8.569
32976SOL    HW2  826   2.000  12.241   8.703
32977SOL     OW  827   7.932   6.379  13.413
32977SOL    HW1  828   7.944   6.286  13.390
32977SOL    HW2  829   8.009   6.399  13.467
32978SOL     OW  830   4.359   3.810   0.155
32978SOL    HW1  831   4.290   3.844   0.211
32978SOL    HW2  832   4.396   3.736   0.203
32979SOL     OW  833  14.438  10.760  11.175
32979SOL    HW1  834  14.449  10.666  11.188
32979SOL    HW2  835  14.496  10.799  11.241
32980SOL     OW  836   0.782   7.483   0.071
32980SOL    HW1  837   0.735   7.478   0.155
32980SOL    HW2  838   0.874   7.485   0.095
32981SOL     OW  839  10.704   2.756  14.624
32981SOL    HW1  840  10.681   2.848  14.611
32981SOL    HW2  841  10.650   2.727  14.697
32982SOL     OW  842  12.136   0.689   1.817
32982SOL    HW1  843  12.133   0.642   1.733
32982SOL    HW2  844  12.206   0.753   1.806
32983SOL     OW  845   4.084  13.748  14.107
32983SOL    HW1  846   4.064  13.794  14.188
32983SOL    HW2  847   4.168  13.784  14.079
32984SOL     OW  848  11.972   8.064  12.233
32984SOL    HW1  849  11.933   8.148  12.209
32984SOL    HW2  850  12.017   8.082  12.316
32985SOL     OW  851  14.616   6.608   2.153
32985SOL    HW1  852  14.569   6.529   2.179
32985SOL    HW2  853  14.635   6.653   2.236
32986SOL     OW  854   8.208   5.027  11.767
32986SOL    HW1  855   8.208   5.035  11.863
32986SOL    HW2  856   8.230   4.936  11.751
32987SOL     OW  857  14.174   0.295   9.860
32987SOL    HW1  858  14.225   0.376   9.852
32987SOL    HW2  859  14.195   0.245   9.781
32988SOL     OW  860  11.906  10.776   6.198
32988SOL    HW1  861  11.873  10.866   6.193
32988SOL    HW2  862  11.851  10.727   6.137
32989SOL     OW  863   3.453  12.396  11.254
32989SOL    HW1  864   3.510  12.469  11.231
32989SOL    HW2  865   3.365  12.426  11.231
32990SOL     OW  866   4.556  14.181   7.938
32990SOL    HW1  867   4.468  14.213   7.955
32990SOL    HW2  868   4.583  14.226   7.858
32991SOL     OW  869   6.567   4.383   0.473
32991SOL    HW1  870   6.571   4.297   0.514
32991SOL    HW2  871   6.647   4.427   0.501
32992SOL     OW  872   5.101   7.744   2.753
32992SOL    HW1  873   5.006   7.741   2.739
32992SOL    HW2  874   5.111   7.759   2.847
32993SOL     OW  875  11.537   8.099  11.711
32993SOL    HW1  876  11.488   8.180  11.724
32993SOL    HW2  877  11.477   8.041  11.665
32994SOL     OW  878   5.682   0.100   0.142
32994SOL    HW1  879   5.726   0.167   0.194
32994SOL    HW2  880   5.741   0.084   0.068
32995SOL     OW  881   3.773   5.633  13.740
32995SOL    HW1  882   3.686   5.602  13.713
32995SOL    HW2  883   3.829   5.615  13.665
32996SOL     OW  884  10.276  13.637   9.486
32996SOL    HW1  885  10.315  13.724   9.486
32996SOL    HW2  886  10.194  13.646   9.535
32997SOL     OW  887   2.135   8.390   0.788
32997SOL    HW1  888   2.110   8.482   0.778
32997SOL    HW2  889   2.069   8.353   0.847
32998SOL     OW  890   9.532   2.116  12.015
32998SOL    HW1  891   9.471   2.086  11.947
32998SOL    HW2  892   9.489   2.192  12.054
32999SOL     OW  893   7.006   5.926   8.124
32999SOL    HW1  894   6.984   5.884   8.207
32999SOL    HW2  895   7.100   5.910   8.112
33000SOL     OW  896   2.476  14.707   4.884
33000SOL    HW1  897   2.523  14.761   4.947
33000SOL    HW2  898   2.383  14.721   4.905
33001SOL     OW  899   6.402  10.944   9.580
33001SOL    HW1  900   6.494  10.970   9.581
33001SOL    HW2  901   6.381  10.934   9.487
33002SOL     OW  902   6.013  11.842  13.379
33002SOL    HW1  903   6.051  11.893  13.450
33002SOL    HW2  904   6.035  11.890  13.299
33003SOL     OW  905   7.735   1.430  10.918
33003SOL    HW1  906   7.660   1.411  10.975
33003SOL    HW2  907   7.697   1.473  10.841
33004SOL     OW  908   5.168   2.969   3.732
33004SOL    HW1  909   5.188   3.036   3.667
33004SOL    HW2  910   5.163   2.888   3.682
33005SOL     OW  911   3.082   5.855  13.601
33005SOL    HW1  912   2.989   5.879  13.592
33005SOL    HW2  913   3.086   5.805  13.682
33006SOL     OW  914   4.799   9.602  13.725
33006SOL    HW1  915   4.740   9.657  13.673
33006SOL    HW2  916   4.814   9.652  13.805
33007SOL     OW  917   9.107  12.526   0.584
33007SOL    HW1  918   9.185  12.568   0.620
33007SOL    HW2  919   9.122  12.525   0.489
33008SOL     OW  920  12.463  14.582   8.185
33008SOL    HW1  921  12.532  14.524   8.154
33008SOL    HW2  922  12.508  14.666   8.200
33009SOL     OW  923  12.591  11.680   3.548
33009SOL    HW1  924  12.507  11.718   3.572
33009SOL    HW2  925  12.645  11.755   3.522
33010SOL     OW  926   2.392  12.217  12.150
33010SOL    HW1  927   2.459  12.160  12.112
33010SOL    HW2  928   2.435  12.301  12.161
33011SOL     OW  929   2.153   6.714  12.475
33011SOL    HW1  930   2.183   6.795  12.433
33011SOL    HW2  931   2.102   6.744  12.550
33012SOL     OW  932  12.841   3.402  12.294
33012SOL    HW1  933  12.930   3.432  12.311
33012SOL    HW2  934  12.847   3.358  12.210
33013SOL     OW  935  12.478   4.039   5.299
33013SOL    HW1  936  12.390   4.022   5.333
33013SOL    HW2  937  12.527   3.960   5.322
33014SOL     OW  938   8.058  12.941   5.401
33014SOL    HW1  939   8.033  13.005   5.335
33014SOL    HW2  940   8.051  12.988   5.484
33015SOL     OW  941  11.211   1.905  10.932
33015SOL    HW1  942  11.170   1.977  10.883
33015SOL    HW2  943  11.298   1.938  10.955
33016SOL     OW  944   5.855   7.079  14.776
33016SOL    HW1  945   5.861   7.082  14.680
33016SOL    HW2  946   5.914   7.148  14.805
33017SOL     OW  947   2.491  11.543  14.008
33017SOL    HW1  948   2.468  11.465  13.957
33017SOL    HW2  949   2.444  11.533  14.090
33018SOL     OW  950  14.372  12.098  12.409
33018SOL    HW1  951  14.423  12.054  12.340
33018SOL    HW2  952  14.293  12.129  12.364
33019SOL     OW  953   1.277   6.447  12.440
33019SOL    HW1  954   1.291   6.537  12.470
33019SOL    HW2  955   1.358   6.424  12.395
33020SOL     OW  956   8.948   2.446   1.412
33020SOL    HW1  957   9.005   2.411   1.481
33020SOL    HW2  958   8.928   2.369   1.358
33021SOL     OW  959   6.772  14.784   8.682
33021SOL    HW1  960   6.766  14.710   8.744
33021SOL    HW2  961   6.815  14.853   8.732
33022SOL     OW  962  12.057  11.604   8.557
33022SOL    HW1  963  12.083  11.662   8.629
33022SOL    HW2  964  11.961  11.605   8.560
33023SOL     OW  965  11.508   8.665   4.090
33023SOL    HW1  966  11.554   8.708   4.018
33023SOL    HW2  967  11.447   8.605   4.047
33024SOL     OW  968   8.481   7.013  12.634
33024SOL    HW1  969   8.532   6.950  12.684
33024SOL    HW2  970   8.411   7.040  12.694
33025SOL     OW  971  10.284   4.581  12.616
33025SOL    HW1  972  10.257   4.673  12.621
33025SOL    HW2  973  10.203   4.531  12.616
33026SOL     OW  974   9.773   0.897  11.281
33026SOL    HW1  975   9.695   0.894  11.335
33026SOL    HW2  976   9.843   0.926  11.340
33027SOL     OW  977  14.334   9.995   5.987
33027SOL    HW1  978  14.365   9.919   6.037
33027SOL    HW2  979  14.320   9.961   5.898
33028SOL     OW  980   7.563   5.619  12.127
33028SOL    HW1  981   7.556   5.681  12.054
33028SOL    HW2  982   7.549   5.533  12.088
33029SOL     OW  983   0.993   2.647   7.536
33029SOL    HW1  984   0.960   2.639   7.626
33029SOL    HW2  985   1.088   2.647   7.545
33030SOL     OW  986  11.536   7.221  13.485
33030SOL    HW1  987  11.511   7.243  13.395
33030SOL    HW2  988  11.454   7.214  13.533
33031SOL     OW  989  14.742  12.901  12.176
33031SOL    HW1  990  14.713  12.899  12.085
33031SOL    HW2  991  14.681  12.962  12.219
33032SOL     OW  992   6.307   2.439   4.066
33032SOL    HW1  993   6.242   2.369   4.079
33032SOL    HW2  994   6.316   2.478   4.153
33033SOL     OW  995  12.946  12.726  12.003
33033SOL    HW1  996  13.003  12.795  12.037
33033SOL    HW2  997  12.976  12.713  11.913
33034SOL     OW  998   2.305   6.485   1.714
33034SOL    HW1  999   2.306   6.414   1.779
33034SOL    HW2 1000   2.358   6.554   1.753
33035SOL     OW 1001  11.960  14.450   5.576
33035SOL    HW1 1002  11.912  14.512   5.521
33035SOL    HW2 1003  12.004  14.505   5.641
33036SOL     OW 1004   1.563   7.913   2.280
33036SOL    HW1 1005   1.585   7.938   2.370
33036SOL    HW2 1006   1.636   7.860   2.251
33037SOL     OW 1007   2.901   1.225  10.227
33037SOL    HW1 1008   2.953   1.305  10.222
33037SOL    HW2 1009   2.812   1.256  10.245
33038SOL     OW 1010   9.570   7.753   8.541
33038SOL    HW1 1011   9.560   7.663   8.510
33038SOL    HW2 1012   9.627   7.745   8.618
33039SOL     OW 1013  10.450   8.756   1.155
33039SOL    HW1 1014  10.428   8.820   1.088
33039SOL    HW2 1015  10.540   8.729   1.134
33040SOL     OW 1016   8.138   5.607  14.666
33040SOL    HW1 1017   8.117   5.685  14.717
33040SOL    HW2 1018   8.137   5.637  14.575
33041SOL     OW 1019   3.395  14.189   5.177
33041SOL    HW1 1020   3.302  14.211   5.180
33041SOL    HW2 1021   3.427  14.208   5.265
33042SOL     OW 1022   7.057   8.694   3.168
33042SOL    HW1 1023   6.994   8.622   3.161
33042SOL    HW2 1024   7.004   8.773   3.164
33043SOL     OW 1025   5.675   2.249   9.122
33043SOL    HW1 1026   5.734   2.244   9.197
33043SOL    HW2 1027   5.616   2.175   9.134
33044SOL     OW 1028  12.365  11.777   6.706
33044SOL    HW1 1029  12.283  11.789   6.754
33044SOL    HW2 1030  12.344  11.801   6.616
33045SOL     OW 1031  12.132  12.219   0.186
33045SOL    HW1 1032  12.133  12.315   0.187
33045SOL    HW2 1033  12.162  12.194   0.273
33046SOL     OW 1034  12.593  12.957   4.701
33046SOL    HW1 1035  12.571  12.987   4.613
33046SOL    HW2 1036  12.538  12.879   4.714
33047SOL     OW 1037   6.327  13.242   8.746
33047SOL    HW1 1038   6.401  13.188   8.719
33047SOL    HW2 1039   6.354  13.277   8.832
33048SOL     OW 1040   7.792   2.403  14.217
33048SOL    HW1 1041   7.842   2.467  14.166
33048SOL    HW2 1042   7.854   2.332  14.235
33049SOL     OW 1043  14.437   0.618  10.993
33049SOL    HW1 1044  14.474   0.542  10.948
33049SOL    HW2 1045  14.359   0.641  10.942
33050SOL     OW 1046  14.231   6.696  10.849
33050SOL    HW1 1047  14.188   6.730  10.771
33050SOL    HW2 1048  14.323   6.721  10.839
33051SOL     OW 1049   7.539   3.393  12.380
33051SOL    HW1 1050   7.594   3.372  12.305
33051SOL    HW2 1051   7.471   3.452  12.345
33052SOL     OW 1052   0.754   1.907   7.782
33052SOL    HW1 1053   0.735   1.814   7.786
33052SOL    HW2 1054   0.668   1.949   7.781
33053SOL     OW 1055   5.444  14.417   9.183
33053SOL    HW1 1056   5.464  14.411   9.277
33053SOL    HW2 1057   5.349  14.424   9.179
33054SOL     OW 1058  10.224   0.716  12.670
33054SOL    HW1 1059  10.291   0.774  12.634
33054SOL    HW2 1060  10.197   0.757  12.752
33055SOL     OW 1061  12.676   7.567   8.340
33055SOL    HW1 1062  12.709   7.526   8.420
33055SOL    HW2 1063  12.724   7.650   8.333
33056SOL     OW 1064   0.338   9.081   9.202
33056SOL    HW1 1065   0.392   9.004   9.185
33056SOL    HW2 1066   0.390   9.155   9.171
33057SOL     OW 1067  10.051   4.192  12.818
33057SOL    HW1 1068   9.998   4.113  12.825
33057SOL    HW2 1069  10.080   4.194  12.726
33058SOL     OW 1070   3.669   0.952   5.212
33058SOL    HW1 1071   3.672   0.905   5.128
33058SOL    HW2 1072   3.688   1.043   5.189
33059SOL     OW 1073   8.862   9.710  10.709
33059SOL    HW1 1074   8.951   9.724  10.677
33059SOL    HW2 1075   8.812   9.684  10.632
33060SOL     OW 1076   0.132  13.070   5.393
33060SOL    HW1 1077   0.096  13.131   5.330
33060SOL    HW2 1078   0.186  13.124   5.451
33061SOL     OW 1079  13.752   1.769  13.599
33061SOL    HW1 1080  13.689   1.704  13.569
33061SOL    HW2 1081  13.781   1.738  13.684
33062SOL     OW 1082  10.835   6.943  10.825
33062SOL    HW1 1083  10.894   6.876  10.860
33062SOL    HW2 1084  10.810   6.910  10.739
33063SOL     OW 1085   2.972   9.646   6.831
33063SOL    HW1 1086   2.882   9.633   6.801
33063SOL    HW2 1087   2.969   9.730   6.878
33064SOL     OW 1088   7.590  11.419   1.567
33064SOL    HW1 1089   7.666  11.408   1.510
33064SOL    HW2 1090   7.620  11.479   1.636
33065SOL     OW 1091  14.500   5.138   1.865
33065SOL    HW1 1092  14.591   5.169   1.864
33065SOL    HW2 1093  14.454   5.202   1.919
33066SOL     OW 1094   8.059   9.959   9.851
33066SOL    HW1 1095   8.012   9.934   9.771
33066SOL    HW2 1096   7.993   9.955   9.920
33067SOL     OW 1097   5.886   9.862   3.002
33067SOL    HW1 1098   5.883   9.929   3.070
33067SOL    HW2 1099   5.964   9.811   3.022
33068SOL     OW 1100   3.149   2.654   1.858
33068SOL    HW1 1101   3.224   2.685   1.908
33068SOL    HW2 1102   3.178   2.659   1.767
33069SOL     OW 1103   4.522   3.940   1.421
33069SOL    HW1 1104   4.506   3.963   1.512
33069SOL    HW2 1105   4.470   4.002   1.370
33070SOL     OW 1106  12.946   4.737   1.818
33070SOL    HW1 1107  12.904   4.669   1.767
33070SOL    HW2 1108  12.992   4.791   1.753
33071SOL     OW 1109  11.300  11.836  12.674
33071SOL    HW1 1110  11.344  11.900  12.730
33071SOL    HW2 1111  11.356  11.830  12.597
33072SOL     OW 1112   6.635   0.990   1.750
33072SOL    HW1 1113   6.612   0.964   1.661
33072SOL    HW2 1114   6.601   1.079   1.760
33073SOL     OW 1115   3.899   6.736   2.005
33073SOL    HW1 1116   3.980   6.729   2.056
33073SOL    HW2 1117   3.908   6.817   1.956
33074SOL     OW 1118   2.096   5.992  11.974
33074SOL    HW1 1119   2.187   5.974  11.997
33074SOL    HW2 1120   2.063   5.909  11.938
33075SOL     OW 1121  10.069   6.723  11.156
33075SOL    HW1 1122  10.134   6.705  11.088
33075SOL    HW2 1123   9.990   6.747  11.108
33076SOL     OW 1124  10.270  13.915   3.289
33076SOL    HW1 1125  10.295  13.833   3.331
33076SOL    HW2 1126  10.244  13.889   3.200
33077SOL     OW 1127   4.076   4.872   7.914
33077SOL    HW1 1128   4.156   4.926   7.921
33077SOL    HW2 1129   4.028   4.911   7.841
33078SOL     OW 1130  11.611   8.432   3.796
33078SOL    HW1 1131  11.666   8.511   3.802
33078SOL    HW2 1132  11.673   8.360   3.798
33079SOL     OW 1133   1.458   2.339   5.794
33079SOL    HW1 1134   1.394   2.400   5.758
33079SOL    HW2 1135   1.504   2.390   5.861
33080SOL     OW 1136   1.045   0.714   8.282
33080SOL    HW1 1137   1.089   0.650   8.226
33080SOL    HW2 1138   1.072   0.690   8.371
33081SOL     OW 1139  13.470   3.556  10.913
33081SOL    HW1 1140  13.566   3.561  10.919
33081SOL    HW2 1141  13.443   3.523  10.999
33082SOL     OW 1142   1.412  12.485   9.364
33082SOL    HW1 1143   1.456  12.519   9.441
33082SOL    HW2 1144   1.380  12.562   9.318
33083SOL     OW 1145   6.090   2.020   2.914
33083SOL    HW1 1146   6.007   2.023   2.962
33083SOL    HW2 1147   6.129   1.936   2.939
33084SOL     OW 1148   9.546   0.199   8.776
33084SOL    HW1 1149   9.522   0.106   8.772
33084SOL    HW2 1150   9.567   0.222   8.685
33085SOL     OW 1151  14.432   1.878   8.609
33085SOL    HW1 1152  14.460   1.794   8.572
33085SOL    HW2 1153  14.363   1.909   8.551
33086SOL     OW 1154   3.865   9.663  12.407
33086SOL    HW1 1155   3.859   9.595  12.340
33086SOL    HW2 1156   3.824   9.623  12.484
33087SOL     OW 1157  10.430   0.929   1.511
33087SOL    HW1 1158  10.349   0.981   1.511
33087SOL    HW2 1159  10.432   0.888   1.597
33088SOL     OW 1160   2.438   6.674   1.352
33088SOL    HW1 1161   2.451   6.614   1.278
33088SOL    HW2 1162   2.358   6.722   1.330
33089SOL     OW 1163  12.953  11.995   8.051
33089SOL    HW1 1164  12.991  11.933   7.988
33089SOL    HW2 1165  12.953  11.947   8.134
33090SOL     OW 1166   9.927  13.677  14.297
33090SOL    HW1 1167   9.935  13.731  14.219
33090SOL    HW2 1168   9.855  13.616  14.277
33091SOL     OW 1169   6.253   6.136  10.808
33091SOL    HW1 1170   6.295   6.122  10.894
33091SOL    HW2 1171   6.160   6.123  10.824
33092SOL     OW 1172   9.752   6.276   7.721
33092SOL    HW1 1173   9.752   6.352   7.779
33092SOL    HW2 1174   9.728   6.203   7.777
33093SOL     OW 1175  12.899  12.148  12.342
33093SOL    HW1 1176  12.868  12.157  12.252
33093SOL    HW2 1177  12.994  12.158  12.337
33094SOL     OW 1178   8.318  11.169   3.757
33094SOL    HW1 1179   8.337  11.080   3.728
33094SOL    HW2 1180   8.299  11.217   3.676
33095SOL     OW 1181   3.622   2.151   1.595
33095SOL    HW1 1182   3.623   2.155   1.500
33095SOL    HW2 1183   3.679   2.077   1.617
33096SOL     OW 1184   1.195  12.578   1.369
33096SOL    HW1 1185   1.272  12.629   1.348
33096SOL    HW2 1186   1.138  12.587   1.293
33097SOL     OW 1187   5.102  10.362   0.965
33097SOL    HW1 1188   5.187  10.353   1.007
33097SOL    HW2 1189   5.040  10.321   1.025
33098SOL     OW 1190   1.367  11.357  11.477
33098SOL    HW1 1191   1.389  11.267  11.453
33098SOL    HW2 1192   1.348  11.353  11.570
33099SOL     OW 1193   6.758   5.655   2.196
33099SOL    HW1 1194   6.686   5.645   2.134
33099SOL    HW2 1195   6.817   5.717   2.153
33100SOL     OW 1196   3.713  10.254   0.483
33100SOL    HW1 1197   3.692  10.220   0.396
33100SOL    HW2 1198   3.649  10.211   0.541
33101SOL     OW 1199  14.201   1.376   2.807
33101SOL    HW1 1200  14.196   1.293   2.760
33101SOL    HW2 1201  14.124   1.375   2.865
33102SOL     OW 1202   5.656  12.368   0.083
33102SOL    HW1 1203   5.563  12.354   0.068
33102SOL    HW2 1204   5.697  12.285   0.057
33103SOL     OW 1205   8.303   5.429   1.369
33103SOL    HW1 1206   8.240   5.451   1.300
33103SOL    HW2 1207   8.378   5.391   1.323
33104SOL     OW 1208  14.530   0.586  12.861
33104SOL    HW1 1209  14.532   0.672  12.903
33104SOL    HW2 1210  14.453   0.589  12.803
33105SOL     OW 1211  12.277   5.261   1.194
33105SOL    HW1 1212  12.257   5.167   1.190
33105SOL    HW2 1213  12.373   5.265   1.192
33106SOL     OW 1214   3.563   6.841   3.411
33106SOL    HW1 1215   3.498   6.911   3.421
33106SOL    HW2 1216   3.511   6.761   3.404
33107SOL     OW 1217  12.304  13.481   5.624
33107SOL    HW1 1218  12.350  13.429   5.558
33107SOL    HW2 1219  12.234  13.424   5.655
33108SOL     OW 1220   4.544  13.549  11.094
33108SOL    HW1 1221   4.511  13.558  11.005
33108SOL    HW2 1222   4.523  13.633  11.136
33109SOL     OW 1223   3.911   8.335  13.967
33109SOL    HW1 1224   3.989   8.282  13.951
33109SOL    HW2 1225   3.843   8.295  13.913
33110SOL     OW 1226  13.573   8.772  12.341
33110SOL    HW1 1227  13.502   8.811  12.291
33110SOL    HW2 1228  13.571   8.679  12.318
33111SOL     OW 1229   0.372  10.736   7.866
33111SOL    HW1 1230   0.417  10.796   7.806
33111SOL    HW2 1231   0.278  10.751   7.849
33112SOL     OW 1232   7.091   4.606   9.221
33112SOL    HW1 1233   7.067   4.657   9.298
33112SOL    HW2 1234   7.149   4.538   9.255
33113SOL     OW 1235   4.929  12.006   4.819
33113SOL    HW1 1236   4.864  12.077   4.822
33113SOL    HW2 1237   5.012  12.049   4.842
33114SOL     OW 1238   1.799   6.343   7.776
33114SOL    HW1 1239   1.781   6.375   7.688
33114SOL    HW2 1240   1.739   6.269   7.788
33115SOL     OW 1241   7.706   9.030  13.540
33115SOL    HW1 1242   7.733   9.078  13.461
33115SOL    HW2 1243   7.781   9.035  13.598
33116SOL     OW 1244   4.501   0.371  14.223
33116SOL    HW1 1245   4.465   0.338  14.141
33116SOL    HW2 1246   4.596   0.365  14.212
33117SOL     OW 1247   2.033  12.528   3.887
33117SOL    HW1 1248   2.070  12.564   3.806
33117SOL    HW2 1249   1.938  12.541   3.877
33118SOL     OW 1250   7.632   3.893   2.384
33118SOL    HW1 1251   7.711   3.925   2.428
33118SOL    HW2 1252   7.575   3.970   2.379
33119SOL     OW 1253   9.055   4.568  13.896
33119SOL    HW1 1254   9.035   4.614  13.977
33119SOL    HW2 1255   8.981   4.588  13.838
33120SOL     OW 1256   7.244   7.046   6.483
33120SOL    HW1 1257   7.293   7.079   6.408
33120SOL    HW2 1258   7.239   7.120   6.544
33121SOL     OW 1259  13.898   3.907   4.301
33121SOL    HW1 1260  13.832   3.847   4.335
33121SOL    HW2 1261  13.926   3.958   4.377
33122SOL     OW 1262   9.831   0.530   6.864
33122SOL    HW1 1263   9.788   0.615   6.868
33122SOL    HW2 1264   9.763   0.470   6.832
33123SOL     OW 1265   9.308   5.762  13.392
33123SOL    HW1 1266   9.365   5.753  13.315
33123SOL    HW2 1267   9.230   5.806  13.359
33124SOL     OW 1268   0.164   9.686   3.326
33124SOL    HW1 1269   0.221   9.663   3.253
33124SOL    HW2 1270   0.201   9.640   3.401
33125SOL     OW 1271  11.332   0.056   6.008
33125SOL    HW1 1272  11.304  14.872   6.078
33125SOL    HW2 1273  11.353   0.138   6.053
33126SOL     OW 1274  13.327   5.687  13.856
33126SOL    HW1 1275  13.272   5.683  13.935
33126SOL    HW2 1276  13.408   5.643  13.881
33127SOL     OW 1277   1.909  12.004   6.670
33127SOL    HW1 1278   1.853  11.976   6.597
33127SOL    HW2 1279   1.897  12.099   6.674
33128SOL     OW 1280   4.584  14.120  13.632
33128SOL    HW1 1281   4.548  14.197  13.588
33128SOL    HW2 1282   4.646  14.083  13.570
33129SOL     OW 1283  11.353   5.294   3.204
33129SOL    HW1 1284  11.292   5.221   3.198
33129SOL    HW2 1285  11.431   5.264   3.156
33130SOL     OW 1286   6.610   6.842   4.320
33130SOL    HW1 1287   6.631   6.801   4.236
33130SOL    HW2 1288   6.530   6.798   4.349
33131SOL     OW 1289  10.868  12.777   6.767
33131SOL    HW1 1290  10.906  12.849   6.817
33131SOL    HW2 1291  10.859  12.812   6.678
33132SOL     OW 1292   2.668  13.645  11.491
33132SOL    HW1 1293   2.599  13.689  11.541
33132SOL    HW2 1294   2.641  13.553  11.488
33133SOL     OW 1295   9.158   0.737   3.178
33133SOL    HW1 1296   9.243   0.761   3.140
33133SOL    HW2 1297   9.141   0.805   3.243
33134SOL     OW 1298   8.160   7.319   6.623
33134SOL    HW1 1299   8.148   7.233   6.663
33134SOL    HW2 1300   8.073   7.358   6.624
33135SOL     OW 1301   4.583   3.793  10.852
33135SOL    HW1 1302   4.547   3.880  10.866
33135SOL    HW2 1303   4.678   3.805  10.854
33136SOL     OW 1304   7.154   5.326  13.867
33136SOL    HW1 1305   7.103   5.403  13.891
33136SOL    HW2 1306   7.202   5.302  13.946
33137SOL     OW 1307  13.291   6.714   7.115
33137SOL    HW1 1308  13.384   6.712   7.094
33137SOL    HW2 1309  13.247   6.697   7.031
33138SOL     OW 1310   6.323  10.093  11.554
33138SOL    HW1 1311   6.354  10.090  11.464
33138SOL    HW2 1312   6.375  10.162  11.595
33139SOL     OW 1313   1.144  14.577   6.400
33139SOL    HW1 1314   1.172  14.554   6.312
33139SOL    HW2 1315   1.162  14.498   6.452
33140SOL     OW 1316   2.274  11.517   0.992
33140SOL    HW1 1317   2.310  11.514   1.080
33140SOL    HW2 1318   2.331  11.578   0.945
33141SOL     OW 1319  13.583   7.169   0.252
33141SOL    HW1 1320  13.595   7.172   0.347
33141SOL    HW2 1321  13.557   7.258   0.229
33142SOL     OW 1322   6.287   5.895   3.581
33142SOL    HW1 1323   6.311   5.842   3.657
33142SOL    HW2 1324   6.343   5.862   3.511
33143SOL     OW 1325   7.428   2.447  11.068
33143SOL    HW1 1326   7.500   2.509  11.077
33143SOL    HW2 1327   7.465   2.374  11.020
33144SOL     OW 1328   2.203  12.453   8.216
33144SOL    HW1 1329   2.164  12.369   8.192
33144SOL    HW2 1330   2.292  12.448   8.183
33145SOL     OW 1331   2.801   3.151  11.746
33145SOL    HW1 1332   2.741   3.183  11.814
33145SOL    HW2 1333   2.764   3.184  11.664
33146SOL     OW 1334   2.895  13.720   4.802
33146SOL    HW1 1335   2.877  13.813   4.789
33146SOL    HW2 1336   2.940  13.692   4.722
33147SOL     OW 1337   3.821   0.695   9.523
33147SOL    HW1 1338   3.769   0.647   9.459
33147SOL    HW2 1339   3.789   0.665   9.608
33148SOL     OW 1340  12.370   0.568   3.743
33148SOL    HW1 1341  12.411   0.638   3.693
33148SOL    HW2 1342  12.276   0.586   3.738
33149SOL     OW 1343   5.566  14.092  10.584
33149SOL    HW1 1344   5.601  14.181  10.588
33149SOL    HW2 1345   5.594  14.052  10.667
33150SOL     OW 1346   1.914   5.490  10.107
33150SOL    HW1 1347   1.828   5.489  10.064
33150SOL    HW2 1348   1.974   5.523  10.040
33151SOL     OW 1349   2.689  14.010  14.303
33151SOL    HW1 1350   2.678  13.959  14.384
33151SOL    HW2 1351   2.602  14.009  14.262
33152SOL     OW 1352  10.768   4.774   3.395
33152SOL    HW1 1353  10.743   4.820   3.476
33152SOL    HW2 1354  10.842   4.824   3.361
33153SOL     OW 1355   3.607   7.042   7.873
33153SOL    HW1 1356   3.598   6.994   7.955
33153SOL    HW2 1357   3.700   7.067   7.870
33154SOL     OW 1358   7.342   9.534   4.318
33154SOL    HW1 1359   7.434   9.557   4.328
33154SOL    HW2 1360   7.342   9.452   4.268
33155SOL     OW 1361   6.488   0.730  10.677
33155SOL    HW1 1362   6.543   0.651  10.677
33155SOL    HW2 1363   6.479   0.754  10.769
33156SOL     OW 1364   5.401  10.799   8.509
33156SOL    HW1 1365   5.415  10.891   8.530
33156SOL    HW2 1366   5.462  10.781   8.437
33157SOL     OW 1367  11.143  13.378  11.461
33157SOL    HW1 1368  11.122  13.471  11.454
33157SOL    HW2 1369  11.205  13.363  11.390
33158SOL     OW 1370  13.359  12.244   2.596
33158SOL    HW1 1371  13.283  12.250   2.539
33158SOL    HW2 1372  13.392  12.155   2.582
33159SOL     OW 1373  12.142  13.951   0.219
33159SOL    HW1 1374  12.076  13.889   0.190
33159SOL    HW2 1375  12.224  13.902   0.217
33160SOL     OW 1376   7.001   5.309   7.114
33160SOL    HW1 1377   6.934   5.257   7.070
33160SOL    HW2 1378   7.081   5.293   7.064
33161SOL     OW 1379  12.812  10.067  11.514
33161SOL    HW1 1380  12.804   9.990  11.570
33161SOL    HW2 1381  12.851  10.034  11.433
33162SOL     OW 1382   2.367  13.244   3.048
33162SOL    HW1 1383   2.284  13.198   3.037
33162SOL    HW2 1384   2.348  13.311   3.114
33163SOL     OW 1385   2.088  10.692   6.403
33163SOL    HW1 1386   2.099  10.726   6.314
33163SOL    HW2 1387   1.994  10.696   6.419
33164SOL     OW 1388  11.585   8.686  14.708
33164SOL    HW1 1389  11.543   8.600  14.702
33164SOL    HW2 1390  11.527   8.744  14.659
33165SOL     OW 1391   8.529   3.083  13.228
33165SOL    HW1 1392   8.467   3.036  13.285
33165SOL    HW2 1393   8.615   3.062  13.264
33166SOL     OW 1394   6.333  12.398   0.193
33166SOL    HW1 1395   6.315  12.454   0.268
33166SOL    HW2 1396   6.299  12.312   0.218
33167SOL     OW 1397  12.676   2.460   6.414
33167SOL    HW1 1398  12.587   2.460   6.380
33167SOL    HW2 1399  12.680   2.537   6.471
33168SOL     OW 1400   4.403   8.257   8.645
33168SOL    HW1 1401   4.361   8.270   8.560
33168SOL    HW2 1402   4.494   8.236   8.624
33169SOL     OW 1403   8.893   8.234   1.681
33169SOL    HW1 1404   8.879   8.176   1.756
33169SOL    HW2 1405   8.983   8.266   1.692
33170SOL     OW 1406   1.061   1.925   3.057
33170SOL    HW1 1407   1.156   1.919   3.069
33170SOL    HW2 1408   1.029   1.963   3.139
33171SOL     OW 1409   9.699  13.563  14.192
33171SOL    HW1 1410   9.713  13.550  14.098
33171SOL    HW2 1411   9.624  13.622  14.197
33172SOL     OW 1412   4.384  14.639   1.329
33172SOL    HW1 1413   4.456  14.693   1.361
33172SOL    HW2 1414   4.315  14.651   1.394
33173SOL     OW 1415   0.376   0.987   0.076
33173SOL    HW1 1416   0.426   1.052   0.026
33173SOL    HW2 1417   0.307   1.038   0.118
33174SOL     OW 1418   8.429  10.626  10.872
33174SOL    HW1 1419   8.421  10.552  10.932
33174SOL    HW2 1420   8.519  10.657  10.885
33175SOL     OW 1421   7.389   3.263  10.577
33175SOL    HW1 1422   7.456   3.210  10.620
33175SOL    HW2 1423   7.314   3.205  10.570
33176SOL     OW 1424  14.190   3.856  10.958
33176SOL    HW1 1425  14.199   3.770  10.919
33176SOL    HW2 1426  14.225   3.846  11.047
33177SOL     OW 1427   4.922   1.123   7.321
33177SOL    HW1 1428   4.930   1.187   7.251
33177SOL    HW2 1429   4.976   1.158   7.392
33178SOL     OW 1430   5.006   9.267   6.085
33178SOL    HW1 1431   5.066   9.203   6.123
33178SOL    HW2 1432   5.061   9.340   6.059
33179SOL     OW 1433   3.890  12.462  11.479
33179SOL    HW1 1434   3.955  12.408  11.433
33179SOL    HW2 1435   3.844  12.401  11.536
33180SOL     OW 1436   7.572   8.187   3.895
33180SOL    HW1 1437   7.606   8.255   3.953
33180SOL    HW2 1438   7.533   8.235   3.822
33181SOL     OW 1439   8.712   1.893   8.380
33181SOL    HW1 1440   8.652   1.837   8.429
33181SOL    HW2 1441   8.788   1.837   8.364
33182SOL     OW 1442   1.286  14.322  13.337
33182SOL    HW1 1443   1.331  14.283  13.412
33182SOL    HW2 1444   1.258  14.409  13.368
33183SOL     OW 1445   0.708   9.597   4.040
33183SOL    HW1 1446   0.775   9.629   3.980
33183SOL    HW2 1447   0.733   9.632   4.126
33184SOL     OW 1448   9.391   0.390   7.395
33184SOL    HW1 1449   9.297   0.406   7.394
33184SOL    HW2 1450   9.416   0.400   7.487
33185SOL     OW 1451   3.433   7.531   3.031
33185SOL    HW1 1452   3.408   7.443   3.059
33185SOL    HW2 1453   3.465   7.519   2.942
33186SOL     OW 1454  10.488   8.949   5.524
33186SOL    HW1 1455  10.501   8.998   5.443
33186SOL    HW2 1456  10.416   8.995   5.568
33187SOL     OW 1457   9.115  12.391   4.390
33187SOL    HW1 1458   9.163  12.416   4.469
33187SOL    HW2 1459   9.076  12.306   4.411
33188SOL     OW 1460   5.394   9.108   4.564
33188SOL    HW1 1461   5.354   9.065   4.488
33188SOL    HW2 1462   5.409   9.198   4.534
33189SOL     OW 1463  10.598   7.276  11.934
33189SOL    HW1 1464  10.594   7.191  11.979
33189SOL    HW2 1465  10.560   7.259  11.848
33190SOL     OW 1466   6.006  13.925   8.992
33190SOL    HW1 1467   6.004  14.017   8.964
33190SOL    HW2 1468   6.010  13.929   9.087
33191SOL     OW 1469   6.292   0.593   1.415
33191SOL    HW1 1470   6.219   0.639   1.376
33191SOL    HW2 1471   6.294   0.508   1.371
33192SOL     OW 1472  11.902   3.754   6.168
33192SOL    HW1 1473  11.815   3.794   6.181
33192SOL    HW2 1474  11.960   3.806   6.223
33193SOL     OW 1475   6.225   9.674   7.019
33193SOL    HW1 1476   6.316   9.686   6.993
33193SOL    HW2 1477   6.198   9.594   6.975
33194SOL     OW 1478  10.719   5.213   5.679
33194SOL    HW1 1479  10.792   5.156   5.653
33194SOL    HW2 1480  10.683   5.170   5.757
33195SOL     OW 1481   6.083  10.696   1.437
33195SOL    HW1 1482   6.095  10.664   1.527
33195SOL    HW2 1483   6.027  10.631   1.395
33196SOL     OW 1484   6.914   2.658   7.369
33196SOL    HW1 1485   6.962   2.683   7.448
33196SOL    HW2 1486   6.925   2.733   7.310
33197SOL     OW 1487   1.732   1.837   5.996
33197SOL    HW1 1488   1.805   1.898   5.979
33197SOL    HW2 1489   1.654   1.884   5.968
33198SOL     OW 1490   4.111   7.017  12.555
33198SOL    HW1 1491   4.104   7.069  12.475
33198SOL    HW2 1492   4.149   6.934  12.527
33199SOL     OW 1493   9.895   0.514   7.208
33199SOL    HW1 1494   9.902   0.531   7.114
33199SOL    HW2 1495   9.813   0.557   7.234
33200SOL     OW 1496   6.386  11.750   8.602
33200SOL    HW1 1497   6.301  11.774   8.640
33200SOL    HW2 1498   6.406  11.823   8.543
33201SOL     OW 1499  14.071   8.029   4.510
33201SOL    HW1 1500  14.080   8.074   4.426
33201SOL    HW2 1501  13.983   8.049   4.539
33202SOL     OW 1502  10.738  12.903   8.646
33202SOL    HW1 1503  10.689  12.984   8.663
33202SOL    HW2 1504  10.765  12.912   8.554
33203SOL     OW 1505   6.702  10.538  10.570
33203SOL    HW1 1506   6.660  10.544  10.484
33203SOL    HW2 1507   6.774  10.477  10.558
33204SOL     OW 1508   0.804   3.859   3.563
33204SOL    HW1 1509   0.764   3.830   3.481
33204SOL    HW2 1510   0.886   3.901   3.537
33205SOL     OW 1511   3.589  14.043   6.369
33205SOL    HW1 1512   3.632  14.121   6.332
33205SOL    HW2 1513   3.546  14.002   6.294
33206SOL     OW 1514   9.812  12.836   0.886
33206SOL    HW1 1515   9.780  12.763   0.939
33206SOL    HW2 1516   9.826  12.799   0.799
33207SOL     OW 1517  12.842  10.584  12.918
33207SOL    HW1 1518  12.875  10.588  12.828
33207SOL    HW2 1519  12.920  10.590  12.973
33208SOL     OW 1520  14.606   3.966  11.764
33208SOL    HW1 1521  14.695   4.000  11.761
33208SOL    HW2 1522  14.574   3.974  11.674
33209SOL     OW 1523   5.641   7.991  13.860
33209SOL    HW1 1524   5.616   7.899  13.861
33209SOL    HW2 1525   5.604   8.027  13.940
33210SOL     OW 1526  14.332   3.299   7.044
33210SOL    HW1 1527  14.352   3.352   7.121
33210SOL    HW2 1528  14.357   3.354   6.970
33211SOL     OW 1529   8.973   8.632   6.090
33211SOL    HW1 1530   8.939   8.721   6.080
33211SOL    HW2 1531   8.986   8.602   6.000
33212SOL     OW 1532  10.258   0.289   9.912
33212SOL    HW1 1533  10.174   0.332   9.895
33212SOL    HW2 1534  10.235   0.200   9.939
33213SOL     OW 1535   5.871  12.116   1.747
33213SOL    HW1 1536   5.899  12.201   1.713
33213SOL    HW2 1537   5.840  12.068   1.669
33214SOL     OW 1538  11.151   3.544  12.246
33214SOL    HW1 1539  11.148   3.449  12.255
33214SOL    HW2 1540  11.237   3.563  12.210
33215SOL     OW 1541  13.604   9.927   3.999
33215SOL    HW1 1542  13.580   9.891   3.914
33215SOL    HW2 1543  13.532   9.902   4.057
33216SOL     OW 1544  14.489   6.286  10.224
33216SOL    HW1 1545  14.570   6.324  10.191
33216SOL    HW2 1546  14.463   6.223  10.157
33217SOL     OW 1547   4.014   8.128   5.430
33217SOL    HW1 1548   4.045   8.197   5.371
33217SOL    HW2 1549   4.087   8.115   5.491
33218SOL     OW 1550   9.793  12.082  10.026
33218SOL    HW1 1551   9.720  12.073   9.965
33218SOL    HW2 1552   9.753  12.117  10.106
33219SOL     OW 1553   5.216  10.849  14.279
33219SOL    HW1 1554   5.300  10.806  14.260
33219SOL    HW2 1555   5.240  10.940  14.300
33220SOL     OW 1556  14.238   6.020  10.492
33220SOL    HW1 1557  14.146   5.993  10.496
33220SOL    HW2 1558  14.271   6.007  10.580
33221SOL     OW 1559   7.076   9.512  13.000
33221SOL    HW1 1560   7.130   9.575  12.951
33221SOL    HW2 1561   6.988   9.549  12.998
33222SOL     OW 1562   0.093  13.337   8.800
33222SOL    HW1 1563   0.085  13.296   8.714
33222SOL    HW2 1564   0.037  13.415   8.794
33223SOL     OW 1565   5.949  13.565   8.652
33223SOL    HW1 1566   5.993  13.564   8.737
33223SOL    HW2 1567   5.924  13.656   8.638
33224SOL     OW 1568  12.851   8.253   3.701
33224SOL    HW1 1569  12.895   8.307   3.766
33224SOL    HW2 1570  12.758   8.269   3.715
33225SOL     OW 1571   7.376   7.410   5.010
33225SOL    HW1 1572   7.404   7.341   4.950
33225SOL    HW2 1573   7.320   7.467   4.957
33226SOL     OW 1574  13.194  10.196  11.615
33226SOL    HW1 1575  13.122  10.237  11.566
33226SOL    HW2 1576  13.268  10.197  11.555
33227SOL     OW 1577   0.426  12.024  14.292
33227SOL    HW1 1578   0.373  12.091  14.336
33227SOL    HW2 1579   0.364  11.977  14.237
33228SOL     OW 1580   1.202   6.476  13.022
33228SOL    HW1 1581   1.253   6.530  13.083
33228SOL    HW2 1582   1.266   6.418  12.982
33229SOL     OW 1583  12.656   6.977   0.337
33229SOL    HW1 1584  12.648   7.013   0.426
33229SOL    HW2 1585  12.621   6.888   0.344
33230SOL     OW 1586   4.247  14.519   4.097
33230SOL    HW1 1587   4.204  14.603   4.085
33230SOL    HW2 1588   4.284  14.523   4.185
33231SOL     OW 1589   7.589   1.025  11.498
33231SOL    HW1 1590   7.511   1.027  11.553
33231SOL    HW2 1591   7.578   1.098  11.438
33232SOL     OW 1592  13.943   1.532   5.972
33232SOL    HW1 1593  14.000   1.510   5.898
33232SOL    HW2 1594  13.867   1.575   5.932
33233SOL     OW 1595   0.263  12.938  10.835
33233SOL    HW1 1596   0.288  12.972  10.749
33233SOL    HW2 1597   0.328  12.871  10.854
33234SOL     OW 1598   1.694   1.450  12.180
33234SOL    HW1 1599   1.686   1.436  12.085
33234SOL    HW2 1600   1.676   1.365  12.219
33235SOL     OW 1601   2.579  11.866  13.458
33235SOL    HW1 1602   2.492  11.847  13.494
33235SOL    HW2 1603   2.638  11.852  13.532
33236SOL     OW 1604   3.450  12.594   1.439
33236SOL    HW1 1605   3.360  12.605   1.406
33236SOL    HW2 1606   3.484  12.519   1.390
33237SOL     OW 1607   3.073   3.147   3.833
33237SOL    HW1 1608   2.992   3.119   3.790
33237SOL    HW2 1609   3.135   3.161   3.762
33238SOL     OW 1610   3.179   0.574   3.667
33238SOL    HW1 1611   3.128   0.654   3.651
33238SOL    HW2 1612   3.259   0.586   3.616
33239SOL     OW 1613   1.718   6.310   1.313
33239SOL    HW1 1614   1.788   6.324   1.376
33239SOL    HW2 1615   1.732   6.378   1.246
33240SOL     OW 1616  14.588  14.283   5.836
33240SOL    HW1 1617  14.595  14.322   5.923
33240SOL    HW2 1618  14.497  14.296   5.811
33241SOL     OW 1619  10.130  13.548   5.443
33241SOL    HW1 1620  10.037  13.571   5.453
33241SOL    HW2 1621  10.163  13.609   5.377
33242SOL     OW 1622   1.506   5.839   3.924
33242SOL    HW1 1623   1.459   5.911   3.881
33242SOL    HW2 1624   1.591   5.837   3.879
33243SOL     OW 1625   8.676  13.900   7.233
33243SOL    HW1 1626   8.597  13.856   7.267
33243SOL    HW2 1627   8.645  13.987   7.207
33244SOL     OW 1628   3.765   1.543  11.314
33244SOL    HW1 1629   3.672   1.543  11.334
33244SOL    HW2 1630   3.807   1.573  11.395
33245SOL     OW 1631   8.892   5.007   0.276
33245SOL    HW1 1632   8.846   4.972   0.352
33245SOL    HW2 1633   8.967   5.054   0.313
33246SOL     OW 1634   6.726   7.768  10.050
33246SOL    HW1 1635   6.788   7.801  10.114
33246SOL    HW2 1636   6.714   7.676  10.074
33247SOL     OW 1637   9.567   4.901  13.611
33247SOL    HW1 1638   9.641   4.849  13.581
33247SOL    HW2 1639   9.544   4.956  13.536
33248SOL     OW 1640   1.269   6.775   9.667
33248SOL    HW1 1641   1.329   6.823   9.611
33248SOL    HW2 1642   1.269   6.823   9.750
33249SOL     OW 1643   0.569   9.786   3.189
33249SOL    HW1 1644   0.512   9.711   3.197
33249SOL    HW2 1645   0.534   9.835   3.115
33250SOL     OW 1646   3.648   4.650  11.047
33250SOL    HW1 1647   3.639   4.587  11.118
33250SOL    HW2 1648   3.562   4.651  11.004
33251SOL     OW 1649  12.220   5.121  12.401
33251SOL    HW1 1650  12.206   5.047  12.342
33251SOL    HW2 1651  12.209   5.084  12.489
33252SOL     OW 1652   0.682  12.623  14.119
33252SOL    HW1 1653   0.744  12.593  14.186
33252SOL    HW2 1654   0.611  12.560  14.123
33253SOL     OW 1655  13.954  11.811   8.271
33253SOL    HW1 1656  13.999  11.896   8.270
33253SOL    HW2 1657  14.017  11.751   8.232
33254SOL     OW 1658   1.165   7.905  13.314
33254SOL    HW1 1659   1.158   7.972  13.382
33254SOL    HW2 1660   1.139   7.950  13.233
33255SOL     OW 1661   9.686   2.851   3.485
33255SOL    HW1 1662   9.604   2.877   3.528
33255SOL    HW2 1663   9.740   2.817   3.556
33256SOL     OW 1664  10.634   2.709  14.347
33256SOL    HW1 1665  10.713   2.677  14.303
33256SOL    HW2 1666  10.664   2.736  14.434
33257SOL     OW 1667  13.747   8.107  14.134
33257SOL    HW1 1668  13.757   8.056  14.215
33257SOL    HW2 1669  13.824   8.084  14.082
33258SOL     OW 1670   2.580   9.577   2.575
33258SOL    HW1 1671   2.538   9.492   2.565
33258SOL    HW2 1672   2.642   9.582   2.502
33259SOL     OW 1673   7.374   4.139   0.787
33259SOL    HW1 1674   7.454   4.129   0.736
33259SOL    HW2 1675   7.404   4.137   0.878
33260SOL     OW 1676   5.623   5.948  11.765
33260SOL    HW1 1677   5.690   5.892  11.804
33260SOL    HW2 1678   5.615   6.023  11.825
33261SOL     OW 1679   8.786   1.280   4.525
33261SOL    HW1 1680   8.747   1.365   4.509
33261SOL    HW2 1681   8.857   1.297   4.587
33262SOL     OW 1682  13.076   1.007  14.339
33262SOL    HW1 1683  13.042   1.068  14.404
33262SOL    HW2 1684  13.150   0.965  14.383
33263SOL     OW 1685   5.880  11.461   2.306
33263SOL    HW1 1686   5.901  11.524   2.375
33263SOL    HW2 1687   5.880  11.513   2.226
33264SOL     OW 1688   4.927   8.410   2.491
33264SOL    HW1 1689   4.986   8.346   2.450
33264SOL    HW2 1690   4.939   8.396   2.585
33265SOL     OW 1691   1.565  14.605   6.667
33265SOL    HW1 1692   1.523  14.601   6.753
33265SOL    HW2 1693   1.632  14.536   6.669
33266SOL     OW 1694  11.372  12.078   8.371
33266SOL    HW1 1695  11.453  12.121   8.342
33266SOL    HW2 1696  11.335  12.138   8.435
33267SOL     OW 1697   9.068  10.801   2.409
33267SOL    HW1 1698   8.991  10.834   2.364
33267SOL    HW2 1699   9.053  10.823   2.501
33268SOL     OW 1700  11.634   1.561   6.552
33268SOL    HW1 1701  11.660   1.485   6.501
33268SOL    HW2 1702  11.653   1.537   6.643
33269SOL     OW 1703   0.800  11.512   0.696
33269SOL    HW1 1704   0.818  11.529   0.603
33269SOL    HW2 1705   0.827  11.592   0.741
33270SOL     OW 1706   9.317   6.805   9.302
33270SOL    HW1 1707   9.278   6.773   9.221
33270SOL    HW2 1708   9.408   6.825   9.279
33271SOL     OW 1709   8.904  11.643   5.972
33271SOL    HW1 1710   8.957  11.679   6.043
33271SOL    HW2 1711   8.864  11.564   6.010
33272SOL     OW 1712   8.967   4.364   1.443
33272SOL    HW1 1713   9.030   4.312   1.492
33272SOL    HW2 1714   8.928   4.423   1.508
33273SOL     OW 1715   7.438   6.126   2.422
33273SOL    HW1 1716   7.465   6.130   2.513
33273SOL    HW2 1717   7.495   6.187   2.376
33274SOL     OW 1718   9.746  13.609  14.575
33274SOL    HW1 1719   9.793  13.614  14.659
33274SOL    HW2 1720   9.672  13.669  14.586
33275SOL     OW 1721   5.365   4.590   2.417
33275SOL    HW1 1722   5.377   4.672   2.464
33275SOL    HW2 1723   5.272   4.568   2.429
33276SOL     OW 1724  13.706  13.158  13.819
33276SOL    HW1 1725  13.790  13.168  13.774
33276SOL    HW2 1726  13.678  13.069  13.797
33277SOL     OW 1727   3.293   9.722  13.552
33277SOL    HW1 1728   3.381   9.726  13.513
33277SOL    HW2 1729   3.234   9.721  13.477
33278SOL     OW 1730   3.043   3.148   5.529
33278SOL    HW1 1731   3.137   3.137   5.539
33278SOL    HW2 1732   3.007   3.138   5.617
33279SOL     OW 1733   7.708   2.548   1.262
33279SOL    HW1 1734   7.636   2.488   1.280
33279SOL    HW2 1735   7.665   2.630   1.236
33280SOL     OW 1736   9.893   5.747  12.081
33280SOL    HW1 1737   9.987   5.741  12.097
33280SOL    HW2 1738   9.854   5.706  12.158
33281SOL     OW 1739  10.706  11.300   2.623
33281SOL    HW1 1740  10.630  11.316   2.679
33281SOL    HW2 1741  10.726  11.208   2.635
33282SOL     OW 1742   4.497  13.928  12.096
33282SOL    HW1 1743   4.589  13.954  12.093
33282SOL    HW2 1744   4.478  13.899  12.006
33283SOL     OW 1745   4.683   5.164   8.833
33283SOL    HW1 1746   4.622   5.199   8.897
33283SOL    HW2 1747   4.758   5.134   8.884
33284SOL     OW 1748   4.916   9.232   8.196
33284SOL    HW1 1749   4.971   9.156   8.176
33284SOL    HW2 1750   4.979   9.301   8.218
33285SOL     OW 1751   7.476  10.400   3.274
33285SOL    HW1 1752   7.422  10.321   3.270
33285SOL    HW2 1753   7.562  10.369   3.302
33286SOL     OW 1754   6.264   7.475   2.856
33286SOL    HW1 1755   6.227   7.389   2.877
33286SOL    HW2 1756   6.337   7.485   2.918
33287SOL     OW 1757   6.920   1.697   3.716
33287SOL    HW1 1758   7.008   1.699   3.753
33287SOL    HW2 1759   6.934   1.700   3.621
33288SOL     OW 1760   3.004   9.201   0.278
33288SOL    HW1 1761   3.067   9.169   0.215
33288SOL    HW2 1762   2.928   9.143   0.269
33289SOL     OW 1763   0.168   1.914   7.393
33289SOL    HW1 1764   0.112   1.990   7.377
33289SOL    HW2 1765   0.251   1.936   7.351
33290SOL     OW 1766   6.102   2.892   4.132
33290SOL    HW1 1767   6.108   2.959   4.063
33290SOL    HW2 1768   6.166   2.826   4.106
33291SOL     OW 1769   0.904  11.191   5.901
33291SOL    HW1 1770   0.871  11.121   5.846
33291SOL    HW2 1771   0.916  11.151   5.987
33292SOL     OW 1772   7.452   2.110   2.166
33292SOL    HW1 1773   7.395   2.182   2.191
33292SOL    HW2 1774   7.495   2.140   2.086
33293SOL     OW 1775   8.616   3.037   0.114
33293SOL    HW1 1776   8.555   2.967   0.139
33293SOL    HW2 1777   8.703   3.000   0.130
33294SOL     OW 1778   1.360   3.561   4.998
33294SOL    HW1 1779   1.415   3.488   4.970
33294SOL    HW2 1780   1.276   3.544   4.955
33295SOL     OW 1781   7.830   9.589   0.398
33295SOL    HW1 1782   7.814   9.549   0.313
33295SOL    HW2 1783   7.879   9.669   0.378
33296SOL     OW 1784   4.241   4.552  13.602
33296SOL    HW1 1785   4.281   4.597  13.528
33296SOL    HW2 1786   4.311   4.546  13.667
33297SOL     OW 1787   7.797   2.382   6.968
33297SOL    HW1 1788   7.831   2.450   6.911
33297SOL    HW2 1789   7.805   2.419   7.056
33298SOL     OW 1790  12.327   7.096   6.564
33298SOL    HW1 1791  12.396   7.075   6.502
33298SOL    HW2 1792  12.252   7.043   6.535
33299SOL     OW 1793   5.695  12.933   8.246
33299SOL    HW1 1794   5.604  12.903   8.245
33299SOL    HW2 1795   5.746  12.857   8.216
33300SOL     OW 1796  10.895   4.553  12.040
33300SOL    HW1 1797  10.811   4.506  12.039
33300SOL    HW2 1798  10.870   4.645  12.037
33301SOL     OW 1799   5.487  12.303   9.710
33301SOL    HW1 1800   5.412  12.327   9.765
33301SOL    HW2 1801   5.563  12.320   9.765
33302SOL     OW 1802   5.569   1.507   2.821
33302SOL    HW1 1803   5.525   1.484   2.903
33302SOL    HW2 1804   5.598   1.424   2.784
33303SOL     OW 1805  14.298   3.777   6.044
33303SOL    HW1 1806  14.312   3.719   5.970
33303SOL    HW2 1807  14.386   3.810   6.066
33304SOL     OW 1808   0.027   2.509   3.469
33304SOL    HW1 1809   0.030   2.427   3.421
33304SOL    HW2 1810  14.832   2.559   3.428
33305SOL     OW 1811  11.776   0.718   2.884
33305SOL    HW1 1812  11.708   0.656   2.858
33305SOL    HW2 1813  11.750   0.801   2.845
33306SOL     OW 1814   2.054   5.275   1.552
33306SOL    HW1 1815   2.032   5.360   1.514
33306SOL    HW2 1816   1.971   5.240   1.583
33307SOL     OW 1817   8.048   6.943  13.791
33307SOL    HW1 1818   7.983   6.955  13.722
33307SOL    HW2 1819   8.022   7.005  13.859
33308SOL     OW 1820   6.561   5.696  14.754
33308SOL    HW1 1821   6.634   5.636  14.764
33308SOL    HW2 1822   6.598   5.773  14.712
33309SOL     OW 1823   9.803   0.216   2.509
33309SOL    HW1 1824   9.867   0.178   2.570
33309SOL    HW2 1825   9.757   0.140   2.473
33310SOL     OW 1826   7.901  10.640  11.727
33310SOL    HW1 1827   7.865  10.552  11.716
33310SOL    HW2 1828   7.994  10.631  11.707
33311SOL     OW 1829  12.579   7.935   1.867
33311SOL    HW1 1830  12.487   7.944   1.846
33311SOL    HW2 1831  12.589   7.844   1.893
33312SOL     OW 1832   5.907   2.004   8.058
33312SOL    HW1 1833   5.990   1.984   8.013
33312SOL    HW2 1834   5.858   1.922   8.054
33313SOL     OW 1835  13.923   5.782   8.330
33313SOL    HW1 1836  14.014   5.768   8.357
33313SOL    HW2 1837  13.894   5.697   8.299
33314SOL     OW 1838   1.944  13.729   6.726
33314SOL    HW1 1839   1.993  13.751   6.648
33314SOL    HW2 1840   2.005  13.678   6.780
33315SOL     OW 1841   6.814  12.383   9.593
33315SOL    HW1 1842   6.857  12.352   9.514
33315SOL    HW2 1843   6.769  12.463   9.567
33316SOL     OW 1844  13.845   6.728   7.873
33316SOL    HW1 1845  13.899   6.736   7.952
33316SOL    HW2 1846  13.779   6.796   7.883
33317SOL     OW 1847   0.761   6.875   7.324
33317SOL    HW1 1848   0.821   6.855   7.252
33317SOL    HW2 1849   0.724   6.790   7.348
33318SOL     OW 1850  11.038   5.819  11.076
33318SOL    HW1 1851  11.004   5.738  11.113
33318SOL    HW2 1852  10.987   5.833  10.997
33319SOL     OW 1853   7.027   7.213   9.508
33319SOL    HW1 1854   7.119   7.205   9.481
33319SOL    HW2 1855   7.031   7.231   9.602
33320SOL     OW 1856  12.457  10.677   1.404
33320SOL    HW1 1857  12.510  10.734   1.459
33320SOL    HW2 1858  12.384  10.733   1.376
33321SOL     OW 1859  12.516  10.604   2.617
33321SOL    HW1 1860  12.608  10.592   2.640
33321SOL    HW2 1861  12.511  10.581   2.525
33322SOL     OW 1862   2.226   0.009   3.329
33322SOL    HW1 1863   2.160   0.050   3.273
33322SOL    HW2 1864   2.309   0.037   3.292
33323SOL     OW 1865   6.020   4.608  13.857
33323SOL    HW1 1866   6.102   4.658  13.858
33323SOL    HW2 1867   6.035   4.536  13.919
33324SOL     OW 1868   8.509   1.736   3.055
33324SOL    HW1 1869   8.512   1.717   3.149
33324SOL    HW2 1870   8.529   1.652   3.013
33325SOL     OW 1871   6.634   3.136  14.012
33325SOL    HW1 1872   6.644   3.166  13.922
33325SOL    HW2 1873   6.722   3.143  14.050
33326SOL     OW 1874   5.506  10.671   4.544
33326SOL    HW1 1875   5.541  10.730   4.477
33326SOL    HW2 1876   5.441  10.722   4.591
33327SOL     OW 1877   1.874   2.478   4.220
33327SOL    HW1 1878   1.883   2.384   4.232
33327SOL    HW2 1879   1.841   2.488   4.131
33328SOL     OW 1880  12.606   4.992   7.286
33328SOL    HW1 1881  12.600   5.086   7.302
33328SOL    HW2 1882  12.627   4.954   7.371
33329SOL     OW 1883  10.596  13.322  10.452
33329SOL    HW1 1884  10.603  13.417  10.462
33329SOL    HW2 1885  10.540  13.309  10.376
33330SOL     OW 1886   4.535   7.762  13.492
33330SOL    HW1 1887   4.548   7.842  13.543
33330SOL    HW2 1888   4.579   7.694  13.543
33331SOL     OW 1889  10.173  14.721   3.635
33331SOL    HW1 1890  10.085  14.691   3.659
33331SOL    HW2 1891  10.231  14.675   3.696
33332SOL     OW 1892   5.158   0.748   1.417
33332SOL    HW1 1893   5.118   0.728   1.501
33332SOL    HW2 1894   5.086   0.781   1.363
33333SOL     OW 1895   8.445   4.593   3.488
33333SOL    HW1 1896   8.492   4.510   3.496
33333SOL    HW2 1897   8.435   4.623   3.579
33334SOL     OW 1898   9.500   9.586   3.927
33334SOL    HW1 1899   9.433   9.613   3.864
33334SOL    HW2 1900   9.518   9.665   3.979
33335SOL     OW 1901   5.694  12.140   7.169
33335SOL    HW1 1902   5.769  12.179   7.125
33335SOL    HW2 1903   5.618  12.179   7.126
33336SOL     OW 1904  13.120   3.137  12.074
33336SOL    HW1 1905  13.147   3.217  12.028
33336SOL    HW2 1906  13.199   3.110  12.122
33337SOL     OW 1907  10.574   3.035   2.489
33337SOL    HW1 1908  10.564   3.008   2.580
33337SOL    HW2 1909  10.488   3.021   2.450
33338SOL     OW 1910  13.341   2.482   7.980
33338SOL    HW1 1911  13.285   2.472   8.057
33338SOL    HW2 1912  13.405   2.548   8.005
33339SOL     OW 1913   0.341   4.432   0.280
33339SOL    HW1 1914   0.272   4.437   0.214
33339SOL    HW2 1915   0.419   4.466   0.236
33340SOL     OW 1916   5.481  13.405   0.824
33340SOL    HW1 1917   5.406  13.348   0.840
33340SOL    HW2 1918   5.533  13.359   0.758
33341SOL     OW 1919   4.320   0.517  11.955
33341SOL    HW1 1920   4.348   0.552  11.870
33341SOL    HW2 1921   4.253   0.453  11.934
33342SOL     OW 1922   6.608   0.013   4.008
33342SOL    HW1 1923   6.539   0.075   3.983
33342SOL    HW2 1924   6.603  14.819   3.942
33343SOL     OW 1925   6.604  14.236   1.262
33343SOL    HW1 1926   6.628  14.315   1.311
33343SOL    HW2 1927   6.513  14.251   1.236
33344SOL     OW 1928   0.920   8.443   5.107
33344SOL    HW1 1929   0.918   8.416   5.198
33344SOL    HW2 1930   0.924   8.361   5.058
33345SOL     OW 1931  14.266   4.702   0.543
33345SOL    HW1 1932  14.188   4.753   0.520
33345SOL    HW2 1933  14.291   4.657   0.463
33346SOL     OW 1934   1.488   7.231   1.904
33346SOL    HW1 1935   1.509   7.204   1.993
33346SOL    HW2 1936   1.392   7.239   1.903
33347SOL     OW 1937   9.040   1.278   6.207
33347SOL    HW1 1938   8.970   1.340   6.192
33347SOL    HW2 1939   9.118   1.319   6.169
33348SOL     OW 1940   7.435  11.160  12.327
33348SOL    HW1 1941   7.511  11.210  12.356
33348SOL    HW2 1942   7.415  11.194  12.240
33349SOL     OW 1943  11.438   7.885  13.375
33349SOL    HW1 1944  11.354   7.930  13.364
33349SOL    HW2 1945  11.501   7.955  13.390
33350SOL     OW 1946  10.765  10.757  10.933
33350SOL    HW1 1947  10.752  10.670  10.894
33350SOL    HW2 1948  10.849  10.787  10.899
33351SOL     OW 1949   8.388  14.016   7.904
33351SOL    HW1 1950   8.446  14.069   7.849
33351SOL    HW2 1951   8.409  14.043   7.993
33352SOL     OW 1952  10.942  12.446  14.089
33352SOL    HW1 1953  10.851  12.432  14.116
33352SOL    HW2 1954  10.941  12.431  13.994
33353SOL     OW 1955   8.454  14.803   8.487
33353SOL    HW1 1956   8.492  14.743   8.552
33353SOL    HW2 1957   8.388  14.750   8.441
33354SOL     OW 1958  14.503   5.909   3.358
33354SOL    HW1 1959  14.507   5.959   3.440
33354SOL    HW2 1960  14.411   5.913   3.332
33355SOL     OW 1961  14.115  13.618  13.767
33355SOL    HW1 1962  14.160  13.596  13.848
33355SOL    HW2 1963  14.090  13.710  13.777
33356SOL     OW 1964  12.779  13.965   6.339
33356SOL    HW1 1965  12.793  13.946   6.432
33356SOL    HW2 1966  12.740  13.885   6.304
33357SOL     OW 1967   9.423  14.724   3.770
33357SOL    HW1 1968   9.375  14.745   3.850
33357SOL    HW2 1969   9.363  14.669   3.720
33358SOL     OW 1970   2.614  12.831   8.764
33358SOL    HW1 1971   2.588  12.904   8.819
33358SOL    HW2 1972   2.702  12.807   8.795
33359SOL     OW 1973  12.352  13.250   2.501
33359SOL    HW1 1974  12.376  13.166   2.538
33359SOL    HW2 1975  12.262  13.264   2.531
33360SOL     OW 1976   6.201   9.617   4.758
33360SOL    HW1 1977   6.271   9.580   4.705
33360SOL    HW2 1978   6.241   9.689   4.806
33361SOL     OW 1979   5.542  14.089   0.601
33361SOL    HW1 1980   5.585  14.005   0.583
33361SOL    HW2 1981   5.480  14.069   0.671
33362SOL     OW 1982  13.597   4.084   0.179
33362SOL    HW1 1983  13.659   4.018   0.210
33362SOL    HW2 1984  13.543   4.104   0.255
33363SOL     OW 1985  11.838  13.222   5.690
33363SOL    HW1 1986  11.881  13.185   5.767
33363SOL    HW2 1987  11.752  13.249   5.721
33364SOL     OW 1988   1.707   5.755  10.564
33364SOL    HW1 1989   1.612   5.752  10.574
33364SOL    HW2 1990   1.727   5.848  10.555
33365SOL     OW 1991  13.913   3.027   9.874
33365SOL    HW1 1992  13.950   3.037   9.787
33365SOL    HW2 1993  13.904   2.932   9.885
33366SOL     OW 1994  11.190  10.215  11.685
33366SOL    HW1 1995  11.278  10.230  11.650
33366SOL    HW2 1996  11.165  10.300  11.723
33367SOL     OW 1997   3.055   9.294   3.228
33367SOL    HW1 1998   2.973   9.342   3.217
33367SOL    HW2 1999   3.029   9.213   3.272
33368SOL     OW 2000   9.421   8.147   2.964
33368SOL    HW1 2001   9.389   8.232   2.934
33368SOL    HW2 2002   9.451   8.164   3.054
33369SOL     OW 2003   5.107  13.154  13.391
33369SOL    HW1 2004   5.145  13.107  13.316
33369SOL    HW2 2005   5.141  13.243  13.383
33370SOL     OW 2006  12.683  10.339   5.889
33370SOL    HW1 2007  12.637  10.324   5.806
33370SOL    HW2 2008  12.627  10.401   5.936
33371SOL     OW 2009  13.844   3.689   8.658
33371SOL    HW1 2010  13.774   3.627   8.676
33371SOL    HW2 2011  13.821   3.766   8.710
33372SOL     OW 2012   4.510   6.486   3.756
33372SOL    HW1 2013   4.432   6.439   3.728
33372SOL    HW2 2014   4.488   6.578   3.744
33373SOL     OW 2015   7.610   3.278   9.518
33373SOL    HW1 2016   7.666   3.300   9.593
33373SOL    HW2 2017   7.625   3.185   9.504
33374SOL     OW 2018   5.033   5.751   8.008
33374SOL    HW1 2019   4.975   5.783   8.077
33374SOL    HW2 2020   5.030   5.655   8.016
33375SOL     OW 2021  12.934  10.893   4.965
33375SOL    HW1 2022  12.951  10.870   4.873
33375SOL    HW2 2023  13.012  10.942   4.992
33376SOL     OW 2024  13.636   7.589   2.670
33376SOL    HW1 2025  13.720   7.571   2.714
33376SOL    HW2 2026  13.627   7.516   2.608
33377SOL     OW 2027  10.453   7.265   8.754
33377SOL    HW1 2028  10.380   7.294   8.699
33377SOL    HW2 2029  10.421   7.274   8.843
33378SOL     OW 2030  11.255   8.773   6.305
33378SOL    HW1 2031  11.266   8.779   6.210
33378SOL    HW2 2032  11.181   8.714   6.317
33379SOL     OW 2033   5.528   0.792   4.039
33379SOL    HW1 2034   5.551   0.702   4.064
33379SOL    HW2 2035   5.535   0.842   4.120
33380SOL     OW 2036   0.841  14.264   2.054
33380SOL    HW1 2037   0.912  14.326   2.069
33380SOL    HW2 2038   0.797  14.296   1.975
33381SOL     OW 2039   9.826   8.334   3.949
33381SOL    HW1 2040   9.863   8.360   4.033
33381SOL    HW2 2041   9.894   8.280   3.909
33382SOL     OW 2042   8.768   3.364   3.988
33382SOL    HW1 2043   8.754   3.427   4.059
33382SOL    HW2 2044   8.857   3.333   4.001
33383SOL     OW 2045   8.033   9.474   9.298
33383SOL    HW1 2046   8.077   9.559   9.292
33383SOL    HW2 2047   8.075   9.421   9.231
33384SOL     OW 2048   8.482   2.320  12.851
33384SOL    HW1 2049   8.554   2.277  12.897
33384SOL    HW2 2050   8.486   2.411  12.880
33385SOL     OW 2051  11.569   4.168  10.666
33385SOL    HW1 2052  11.638   4.116  10.709
33385SOL    HW2 2053  11.529   4.107  10.603
33386SOL     OW 2054   3.848   0.760   0.260
33386SOL    HW1 2055   3.805   0.810   0.190
33386SOL    HW2 2056   3.867   0.675   0.220
33387SOL     OW 2057   8.726  11.886  14.576
33387SOL    HW1 2058   8.751  11.800  14.611
33387SOL    HW2 2059   8.786  11.900  14.503
33388SOL     OW 2060   8.111   9.266  12.169
33388SOL    HW1 2061   8.123   9.322  12.092
33388SOL    HW2 2062   8.192   9.216  12.175
33389SOL     OW 2063  14.739   3.444   8.647
33389SOL    HW1 2064  14.747   3.467   8.740
33389SOL    HW2 2065  14.792   3.510   8.602
33390SOL     OW 2066   9.882   7.419   7.442
33390SOL    HW1 2067   9.972   7.449   7.425
33390SOL    HW2 2068   9.828   7.497   7.432
33391SOL     OW 2069  10.111  13.969   0.964
33391SOL    HW1 2070  10.103  14.017   0.882
33391SOL    HW2 2071  10.159  13.889   0.941
33392SOL     OW 2072  12.641   1.954  10.564
33392SOL    HW1 2073  12.628   2.036  10.516
33392SOL    HW2 2074  12.716   1.913  10.522
33393SOL     OW 2075  11.205   6.505   8.203
33393SOL    HW1 2076  11.230   6.596   8.217
33393SOL    HW2 2077  11.254   6.456   8.268
33394SOL     OW 2078  14.588   3.678  10.082
33394SOL    HW1 2079  14.622   3.589  10.073
33394SOL    HW2 2080  14.512   3.669  10.139
33395SOL     OW 2081   0.837  11.416   1.488
33395SOL    HW1 2082   0.751  11.413   1.448
33395SOL    HW2 2083   0.823  11.456   1.574
33396SOL     OW 2084   1.117   6.024   3.147
33396SOL    HW1 2085   1.105   6.050   3.055
33396SOL    HW2 2086   1.207   6.049   3.167
33397SOL     OW 2087   7.177  10.714  11.625
33397SOL    HW1 2088   7.198  10.789  11.680
33397SOL    HW2 2089   7.260  10.669  11.612
33398SOL     OW 2090   9.928  10.095   1.431
33398SOL    HW1 2091   9.861  10.058   1.488
33398SOL    HW2 2092  10.007  10.046   1.451
33399SOL     OW 2093   7.901  11.396   0.161
33399SOL    HW1 2094   7.830  11.399   0.097
33399SOL    HW2 2095   7.971  11.447   0.121
33400SOL     OW 2096   5.140   9.319   7.485
33400SOL    HW1 2097   5.045   9.317   7.493
33400SOL    HW2 2098   5.157   9.303   7.393
33401SOL     OW 2099   0.888  10.624   1.549
33401SOL    HW1 2100   0.889  10.669   1.464
33401SOL    HW2 2101   0.824  10.554   1.537
33402SOL     OW 2102  12.666   1.407   9.902
33402SOL    HW1 2103  12.618   1.406   9.819
33402SOL    HW2 2104  12.747   1.359   9.883
33403SOL     OW 2105   3.852   8.756  13.297
33403SOL    HW1 2106   3.880   8.846  13.314
33403SOL    HW2 2107   3.806   8.730  13.377
33404SOL     OW 2108   3.345  13.161   9.742
33404SOL    HW1 2109   3.289  13.084   9.753
33404SOL    HW2 2110   3.301  13.213   9.674
33405SOL     OW 2111   3.015   9.037   7.260
33405SOL    HW1 2112   2.971   8.994   7.186
33405SOL    HW2 2113   3.057   8.966   7.308
33406SOL     OW 2114  10.782   9.471   4.648
33406SOL    HW1 2115  10.842   9.544   4.655
33406SOL    HW2 2116  10.837   9.396   4.628
33407SOL     OW 2117   0.589   3.529   6.881
33407SOL    HW1 2118   0.641   3.450   6.867
33407SOL    HW2 2119   0.632   3.573   6.954
33408SOL     OW 2120   8.689  13.597  14.437
33408SOL    HW1 2121   8.605  13.614  14.394
33408SOL    HW2 2122   8.740  13.676  14.422
33409SOL     OW 2123   2.484   2.601   4.737
33409SOL    HW1 2124   2.517   2.543   4.669
33409SOL    HW2 2125   2.561   2.648   4.768
33410SOL     OW 2126   7.492  13.328   5.957
33410SOL    HW1 2127   7.409  13.364   5.990
33410SOL    HW2 2128   7.511  13.380   5.879
33411SOL     OW 2129   9.718   1.598   1.460
33411SOL    HW1 2130   9.742   1.565   1.547
33411SOL    HW2 2131   9.663   1.674   1.478
33412SOL     OW 2132   0.266   8.714   9.244
33412SOL    HW1 2133   0.221   8.780   9.297
33412SOL    HW2 2134   0.343   8.760   9.209
33413SOL     OW 2135  13.621   5.286   6.573
33413SOL    HW1 2136  13.655   5.318   6.490
33413SOL    HW2 2137  13.692   5.234   6.610
33414SOL     OW 2138   7.842   7.195   8.618
33414SOL    HW1 2139   7.834   7.100   8.617
33414SOL    HW2 2140   7.855   7.217   8.710
33415SOL     OW 2141   2.659  13.008   6.216
33415SOL    HW1 2142   2.678  12.925   6.260
33415SOL    HW2 2143   2.721  13.012   6.143
33416SOL     OW 2144   1.418   5.922   3.140
33416SOL    HW1 2145   1.462   5.935   3.056
33416SOL    HW2 2146   1.388   5.831   3.137
33417SOL     OW 2147   9.839   6.935   3.963
33417SOL    HW1 2148   9.818   6.842   3.953
33417SOL    HW2 2149   9.769   6.969   4.019
33418SOL     OW 2150   9.904  14.453  13.521
33418SOL    HW1 2151   9.824  14.456  13.574
33418SOL    HW2 2152   9.889  14.516  13.451
33419SOL     OW 2153   6.881  11.795  14.117
33419SOL    HW1 2154   6.947  11.752  14.062
33419SOL    HW2 2155   6.858  11.875  14.068
33420SOL     OW 2156   1.178   1.742  10.701
33420SOL    HW1 2157   1.083   1.731  10.706
33420SOL    HW2 2158   1.207   1.732  10.792
33421SOL     OW 2159   3.173  12.961   9.851
33421SOL    HW1 2160   3.172  12.866   9.860
33421SOL    HW2 2161   3.187  12.993   9.941
33422SOL     OW 2162   4.867   2.504   4.173
33422SOL    HW1 2163   4.945   2.557   4.188
33422SOL    HW2 2164   4.794   2.562   4.194
33423SOL     OW 2165  14.041  11.174   1.462
33423SOL    HW1 2166  14.063  11.108   1.527
33423SOL    HW2 2167  13.976  11.132   1.406
33424SOL     OW 2168  12.232  14.102  11.191
33424SOL    HW1 2169  12.295  14.158  11.236
33424SOL    HW2 2170  12.190  14.159  11.127
33425SOL     OW 2171  14.355   3.975   8.663
33425SOL    HW1 2172  14.434   3.939   8.623
33425SOL    HW2 2173  14.378   3.989   8.754
33426SOL     OW 2174   6.403  13.687   2.841
33426SOL    HW1 2175   6.455  13.739   2.902
33426SOL    HW2 2176   6.459  13.678   2.763
33427SOL     OW 2177  10.878   4.406  13.170
33427SOL    HW1 2178  10.936   4.474  13.204
33427SOL    HW2 2179  10.844   4.362  13.247
33428SOL     OW 2180   8.756   6.469   4.463
33428SOL    HW1 2181   8.790   6.539   4.408
33428SOL    HW2 2182   8.689   6.510   4.518
33429SOL     OW 2183   3.414   0.792   7.875
33429SOL    HW1 2184   3.426   0.747   7.959
33429SOL    HW2 2185   3.460   0.875   7.886
33430SOL     OW 2186  14.414  11.993   9.509
33430SOL    HW1 2187  14.376  11.935   9.576
33430SOL    HW2 2188  14.476  11.938   9.462
33431SOL     OW 2189   7.760   1.869   3.280
33431SOL    HW1 2190   7.850   1.891   3.305
33431SOL    HW2 2191   7.766   1.843   3.188
33432SOL     OW 2192  10.496   4.947   4.204
33432SOL    HW1 2193  10.488   4.948   4.108
33432SOL    HW2 2194  10.590   4.956   4.220
33433SOL     OW 2195  10.474   3.452  10.224
33433SOL    HW1 2196  10.412   3.382  10.205
33433SOL    HW2 2197  10.431   3.532  10.192
33434SOL     OW 2198   3.467   9.809   9.838
33434SOL    HW1 2199   3.478   9.795   9.744
33434SOL    HW2 2200   3.555   9.814   9.873
33435SOL     OW 2201   2.377   0.066   1.652
33435SOL    HW1 2202   2.432   0.036   1.579
33435SOL    HW2 2203   2.313   0.124   1.611
33436SOL     OW 2204   3.009  14.484   2.383
33436SOL    HW1 2205   3.014  14.434   2.302
33436SOL    HW2 2206   3.063  14.562   2.367
33437SOL     OW 2207   2.333  13.965  12.452
33437SOL    HW1 2208   2.339  13.931  12.542
33437SOL    HW2 2209   2.253  14.017  12.452
33438SOL     OW 2210  14.561   7.026  13.692
33438SOL    HW1 2211  14.479   6.993  13.655
33438SOL    HW2 2212  14.595   7.086  13.626
33439SOL     OW 2213   6.229   8.128   4.039
33439SOL    HW1 2214   6.265   8.044   4.066
33439SOL    HW2 2215   6.135   8.115   4.039
33440SOL     OW 2216  13.922  12.652   2.038
33440SOL    HW1 2217  13.950  12.656   2.130
33440SOL    HW2 2218  13.968  12.725   1.996
33441SOL     OW 2219   6.817   0.531   5.433
33441SOL    HW1 2220   6.758   0.467   5.393
33441SOL    HW2 2221   6.905   0.494   5.420
33442SOL     OW 2222   7.066   4.100   2.829
33442SOL    HW1 2223   6.973   4.080   2.838
33442SOL    HW2 2224   7.107   4.062   2.907
33443SOL     OW 2225  10.333   3.169   9.822
33443SOL    HW1 2226  10.383   3.098   9.781
33443SOL    HW2 2227  10.256   3.180   9.766
33444SOL     OW 2228   9.283  12.240  11.910
33444SOL    HW1 2229   9.265  12.158  11.956
33444SOL    HW2 2230   9.377  12.240  11.896
33445SOL     OW 2231  12.875   9.401   4.027
33445SOL    HW1 2232  12.787   9.379   3.994
33445SOL    HW2 2233  12.859   9.464   4.097
33446SOL     OW 2234   7.029  11.873   8.173
33446SOL    HW1 2235   6.937  11.866   8.146
33446SOL    HW2 2236   7.043  11.966   8.187
33447SOL     OW 2237   6.056   6.258   5.098
33447SOL    HW1 2238   6.098   6.192   5.154
33447SOL    HW2 2239   6.098   6.248   5.013
33448SOL     OW 2240   6.226   5.320  12.126
33448SOL    HW1 2241   6.174   5.391  12.163
33448SOL    HW2 2242   6.264   5.275  12.202
33449SOL     OW 2243  11.439   0.186  12.469
33449SOL    HW1 2244  11.414   0.101  12.434
33449SOL    HW2 2245  11.519   0.170  12.519
33450SOL     OW 2246  11.507  12.032   1.894
33450SOL    HW1 2247  11.537  11.997   1.978
33450SOL    HW2 2248  11.467  12.116   1.916
33451SOL     OW 2249  10.183   4.464   1.669
33451SOL    HW1 2250  10.164   4.454   1.762
33451SOL    HW2 2251  10.208   4.376   1.640
33452SOL     OW 2252   3.759   8.442   0.752
33452SOL    HW1 2253   3.757   8.491   0.834
33452SOL    HW2 2254   3.831   8.481   0.703
33453SOL     OW 2255   3.666   3.852   5.184
33453SOL    HW1 2256   3.664   3.883   5.094
33453SOL    HW2 2257   3.687   3.930   5.236
33454SOL     OW 2258  12.766  10.088   3.748
33454SOL    HW1 2259  12.832  10.035   3.793
33454SOL    HW2 2260  12.684  10.041   3.763
33455SOL     OW 2261   7.193  12.813   4.323
33455SOL    HW1 2262   7.105  12.851   4.321
33455SOL    HW2 2263   7.216  12.809   4.415
33456SOL     OW 2264  14.846   9.559   6.049
33456SOL    HW1 2265  14.871   9.647   6.076
33456SOL    HW2 2266   0.027   9.540   5.973
33457SOL     OW 2267   2.237  13.576  10.734
33457SOL    HW1 2268   2.296  13.516  10.689
33457SOL    HW2 2269   2.290  13.653  10.753
33458SOL     OW 2270   3.412   7.946   6.551
33458SOL    HW1 2271   3.388   7.881   6.617
33458SOL    HW2 2272   3.335   8.003   6.545
33459SOL     OW 2273   2.383   3.649   4.168
33459SOL    HW1 2274   2.420   3.733   4.198
33459SOL    HW2 2275   2.354   3.605   4.248
33460SOL     OW 2276  11.875   9.673   3.284
33460SOL    HW1 2277  11.920   9.684   3.368
33460SOL    HW2 2278  11.856   9.762   3.255
33461SOL     OW 2279   1.488   9.370   7.099
33461SOL    HW1 2280   1.484   9.446   7.042
33461SOL    HW2 2281   1.400   9.333   7.096
33462SOL     OW 2282   1.296   2.374   4.416
33462SOL    HW1 2283   1.333   2.422   4.342
33462SOL    HW2 2284   1.373   2.349   4.468
33463SOL     OW 2285  13.474   0.025   0.186
33463SOL    HW1 2286  13.536   0.060   0.250
33463SOL    HW2 2287  13.471  14.806   0.205
33464SOL     OW 2288   1.812   8.607   1.548
33464SOL    HW1 2289   1.835   8.534   1.490
33464SOL    HW2 2290   1.896   8.641   1.578
33465SOL     OW 2291   0.720  10.452  13.687
33465SOL    HW1 2292   0.796  10.404  13.720
33465SOL    HW2 2293   0.757  10.534  13.654
33466SOL     OW 2294   3.644   7.897   0.079
33466SOL    HW1 2295   3.636   7.802   0.088
33466SOL    HW2 2296   3.555   7.927   0.063
33467SOL     OW 2297   3.798  12.472   9.312
33467SOL    HW1 2298   3.890  12.453   9.330
33467SOL    HW2 2299   3.755  12.468   9.398
33468SOL     OW 2300   9.640  12.751   7.267
33468SOL    HW1 2301   9.687  12.680   7.223
33468SOL    HW2 2302   9.690  12.830   7.243
33469SOL     OW 2303  13.522  12.009   7.749
33469SOL    HW1 2304  13.510  11.970   7.835
33469SOL    HW2 2305  13.444  12.064   7.737
33470SOL     OW 2306   1.189  13.061   3.506
33470SOL    HW1 2307   1.243  13.038   3.581
33470SOL    HW2 2308   1.100  13.067   3.541
33471SOL     OW 2309   9.437  10.474  13.097
33471SOL    HW1 2310   9.418  10.388  13.061
33471SOL    HW2 2311   9.522  10.497  13.060
33472SOL     OW 2312  11.600   2.044  11.694
33472SOL    HW1 2313  11.622   2.123  11.644
33472SOL    HW2 2314  11.670   2.038  11.759
33473SOL     OW 2315  11.837   0.645   3.995
33473SOL    HW1 2316  11.775   0.615   3.929
33473SOL    HW2 2317  11.921   0.649   3.949
33474SOL     OW 2318  14.124   9.448  13.745
33474SOL    HW1 2319  14.122   9.371  13.802
33474SOL    HW2 2320  14.032   9.474  13.737
33475SOL     OW 2321   7.700   3.393   4.501
33475SOL    HW1 2322   7.638   3.431   4.439
33475SOL    HW2 2323   7.738   3.468   4.546
33476SOL     OW 2324   9.808  12.642   8.336
33476SOL    HW1 2325   9.727  12.660   8.287
33476SOL    HW2 2326   9.813  12.712   8.400
33477SOL     OW 2327   7.727   6.454   1.772
33477SOL    HW1 2328   7.643   6.479   1.811
33477SOL    HW2 2329   7.789   6.520   1.805
33478SOL     OW 2330   9.022   5.705  14.672
33478SOL    HW1 2331   8.976   5.675  14.594
33478SOL    HW2 2332   8.963   5.685  14.744
33479SOL     OW 2333   4.332   1.882  13.395
33479SOL    HW1 2334   4.360   1.790  13.392
33479SOL    HW2 2335   4.254   1.885  13.341
33480SOL     OW 2336  13.272  13.645  10.144
33480SOL    HW1 2337  13.356  13.614  10.110
33480SOL    HW2 2338  13.260  13.731  10.105
33481SOL     OW 2339   3.019   4.736  11.343
33481SOL    HW1 2340   3.020   4.688  11.260
33481SOL    HW2 2341   2.950   4.694  11.394
33482SOL     OW 2342   2.491  13.394   1.670
33482SOL    HW1 2343   2.499  13.472   1.616
33482SOL    HW2 2344   2.514  13.322   1.611
33483SOL     OW 2345   7.506   4.972   7.868
33483SOL    HW1 2346   7.446   5.022   7.923
33483SOL    HW2 2347   7.587   5.023   7.868
33484SOL     OW 2348  11.202   1.517   0.234
33484SOL    HW1 2349  11.250   1.434   0.236
33484SOL    HW2 2350  11.184   1.536   0.326
33485SOL     OW 2351   0.313   9.800   5.415
33485SOL    HW1 2352   0.238   9.759   5.372
33485SOL    HW2 2353   0.387   9.783   5.356
33486SOL     OW 2354  14.831   3.531  12.889
33486SOL    HW1 2355  14.754   3.530  12.945
33486SOL    HW2 2356  14.840   3.622  12.862
33487SOL     OW 2357  10.457  10.246   0.161
33487SOL    HW1 2358  10.430  10.230   0.070
33487SOL    HW2 2359  10.394  10.198   0.214
33488SOL     OW 2360  13.593  10.078   9.276
33488SOL    HW1 2361  13.503  10.066   9.246
33488SOL    HW2 2362  13.621  10.159   9.234
33489SOL     OW 2363   9.248   6.516  10.467
33489SOL    HW1 2364   9.183   6.571  10.424
33489SOL    HW2 2365   9.250   6.547  10.558
33490SOL     OW 2366  12.454   1.301   9.180
33490SOL    HW1 2367  12.484   1.242   9.110
33490SOL    HW2 2368  12.414   1.374   9.134
33491SOL     OW 2369   6.141  12.030   3.248
33491SOL    HW1 2370   6.216  11.971   3.251
33491SOL    HW2 2371   6.095  12.015   3.331
33492SOL     OW 2372  12.680  14.390   5.361
33492SOL    HW1 2373  12.653  14.306   5.398
33492SOL    HW2 2374  12.686  14.448   5.437
33493SOL     OW 2375  11.152  14.808   7.740
33493SOL    HW1 2376  11.175  14.773   7.826
33493SOL    HW2 2377  11.058  14.797   7.734
33494SOL     OW 2378   0.663   8.201   1.205
33494SOL    HW1 2379   0.574   8.178   1.178
33494SOL    HW2 2380   0.718   8.177   1.130
33495SOL     OW 2381   6.558   9.752   3.042
33495SOL    HW1 2382   6.507   9.732   2.964
33495SOL    HW2 2383   6.524   9.692   3.109
33496SOL     OW 2384   4.404   9.292   1.321
33496SOL    HW1 2385   4.383   9.244   1.401
33496SOL    HW2 2386   4.421   9.223   1.256
33497SOL     OW 2387  11.329  11.129   4.366
33497SOL    HW1 2388  11.336  11.034   4.375
33497SOL    HW2 2389  11.419  11.161   4.364
33498SOL     OW 2390  10.263   2.327   8.299
33498SOL    HW1 2391  10.273   2.387   8.225
33498SOL    HW2 2392  10.353   2.312   8.329
33499SOL     OW 2393   0.439   9.985  14.740
33499SOL    HW1 2394   0.494  10.006  14.664
33499SOL    HW2 2395   0.473   9.901  14.772
33500SOL     OW 2396   6.791   9.917   3.055
33500SOL    HW1 2397   6.830   9.900   3.140
33500SOL    HW2 2398   6.717   9.858   3.049
33501SOL     OW 2399   8.510   7.863  11.438
33501SOL    HW1 2400   8.422   7.880  11.405
33501SOL    HW2 2401   8.512   7.769  11.455
33502SOL     OW 2402  14.038   7.101  10.905
33502SOL    HW1 2403  14.056   7.176  10.850
33502SOL    HW2 2404  14.111   7.096  10.966
33503SOL     OW 2405   3.424   5.619   8.417
33503SOL    HW1 2406   3.442   5.690   8.355
33503SOL    HW2 2407   3.366   5.659   8.482
33504SOL     OW 2408  11.786   5.449   9.951
33504SOL    HW1 2409  11.788   5.377   9.887
33504SOL    HW2 2410  11.755   5.524   9.901
33505SOL     OW 2411   1.451   3.341   9.982
33505SOL    HW1 2412   1.415   3.387   9.906
33505SOL    HW2 2413   1.544   3.329   9.961
33506SOL     OW 2414   0.485   1.678  13.949
33506SOL    HW1 2415   0.527   1.703  14.031
33506SOL    HW2 2416   0.438   1.597  13.970
33507SOL     OW 2417   3.019   0.977   7.585
33507SOL    HW1 2418   2.935   0.984   7.541
33507SOL    HW2 2419   2.998   0.972   7.678
33508SOL     OW 2420  10.863   9.978  13.971
33508SOL    HW1 2421  10.932   9.912  13.969
33508SOL    HW2 2422  10.854  10.007  13.880
33509SOL     OW 2423   1.954   9.979   9.456
33509SOL    HW1 2424   1.881  10.012   9.508
33509SOL    HW2 2425   2.033  10.011   9.501
33510SOL     OW 2426   6.713   0.690   1.189
33510SOL    HW1 2427   6.669   0.714   1.271
33510SOL    HW2 2428   6.650   0.711   1.121
33511SOL     OW 2429   2.665  10.755   0.215
33511SOL    HW1 2430   2.601  10.807   0.263
33511SOL    HW2 2431   2.749  10.779   0.253
33512SOL     OW 2432  12.287   3.650  14.503
33512SOL    HW1 2433  12.268   3.574  14.557
33512SOL    HW2 2434  12.250   3.629  14.417
33513SOL     OW 2435   2.957   7.238   0.176
33513SOL    HW1 2436   2.955   7.240   0.081
33513SOL    HW2 2437   2.955   7.144   0.198
33514SOL     OW 2438  10.027  14.655   7.354
33514SOL    HW1 2439   9.979  14.728   7.392
33514SOL    HW2 2440  10.100  14.695   7.308
33515SOL     OW 2441   8.356   1.204  12.458
33515SOL    HW1 2442   8.284   1.248  12.414
33515SOL    HW2 2443   8.314   1.133  12.507
33516SOL     OW 2444   4.190   5.324   8.250
33516SOL    HW1 2445   4.158   5.246   8.203
33516SOL    HW2 2446   4.110   5.372   8.273
33517SOL     OW 2447  13.082  13.168   9.379
33517SOL    HW1 2448  13.154  13.107   9.399
33517SOL    HW2 2449  13.075  13.223   9.456
33518SOL     OW 2450   9.262  11.015   5.555
33518SOL    HW1 2451   9.263  10.934   5.504
33518SOL    HW2 2452   9.259  10.986   5.646
33519SOL     OW 2453  11.311  13.432   5.623
33519SOL    HW1 2454  11.291  13.419   5.716
33519SOL    HW2 2455  11.347  13.521   5.619
33520SOL     OW 2456   8.687  14.781   2.502
33520SOL    HW1 2457   8.663  14.863   2.546
33520SOL    HW2 2458   8.779  14.768   2.523
33521SOL     OW 2459   7.142   3.348   2.583
33521SOL    HW1 2460   7.221   3.400   2.567
33521SOL    HW2 2461   7.085   3.368   2.508
33522SOL     OW 2462   8.908   4.042   3.479
33522SOL    HW1 2463   8.968   4.040   3.553
33522SOL    HW2 2464   8.921   4.129   3.440
33523SOL     OW 2465   8.595  13.907  11.419
33523SOL    HW1 2466   8.532  13.979  11.425
33523SOL    HW2 2467   8.627  13.911  11.329
33524SOL     OW 2468   1.333   2.599  12.606
33524SOL    HW1 2469   1.256   2.551  12.636
33524SOL    HW2 2470   1.301   2.651  12.532
33525SOL     OW 2471   3.382   9.676   7.902
33525SOL    HW1 2472   3.307   9.627   7.935
33525SOL    HW2 2473   3.362   9.692   7.810
33526SOL     OW 2474   9.173   6.447  13.949
33526SOL    HW1 2475   9.149   6.374  14.006
33526SOL    HW2 2476   9.113   6.517  13.974
33527SOL     OW 2477  10.569   2.823   3.119
33527SOL    HW1 2478  10.480   2.809   3.087
33527SOL    HW2 2479  10.569   2.913   3.152
33528SOL     OW 2480   8.203   1.241   9.846
33528SOL    HW1 2481   8.258   1.211   9.773
33528SOL    HW2 2482   8.122   1.272   9.804
33529SOL     OW 2483   5.216   4.873   8.511
33529SOL    HW1 2484   5.286   4.853   8.573
33529SOL    HW2 2485   5.257   4.930   8.446
33530SOL     OW 2486   1.978   5.435   2.792
33530SOL    HW1 2487   1.968   5.340   2.783
33530SOL    HW2 2488   2.046   5.445   2.859
33531SOL     OW 2489  12.323   7.299   9.076
33531SOL    HW1 2490  12.335   7.206   9.055
33531SOL    HW2 2491  12.230   7.315   9.066
33532SOL     OW 2492   0.539   6.487   0.946
33532SOL    HW1 2493   0.495   6.563   0.908
33532SOL    HW2 2494   0.616   6.523   0.991
33533SOL     OW 2495  12.773   5.407   9.953
33533SOL    HW1 2496  12.754   5.456  10.033
33533SOL    HW2 2497  12.868   5.395   9.954
33534SOL     OW 2498   5.617   0.995  10.481
33534SOL    HW1 2499   5.570   0.991  10.397
33534SOL    HW2 2500   5.624   0.903  10.508
33535SOL     OW 2501  11.876  10.264   2.481
33535SOL    HW1 2502  11.966  10.279   2.453
33535SOL    HW2 2503  11.872  10.297   2.571
33536SOL     OW 2504   0.802  14.342  14.643
33536SOL    HW1 2505   0.884  14.378  14.678
33536SOL    HW2 2506   0.821  14.324  14.551
33537SOL     OW 2507   3.584   2.139   8.086
33537SOL    HW1 2508   3.661   2.116   8.138
33537SOL    HW2 2509   3.614   2.209   8.029
33538SOL     OW 2510   3.574   8.838  10.256
33538SOL    HW1 2511   3.645   8.777  10.235
33538SOL    HW2 2512   3.587   8.859  10.348
33539SOL     OW 2513   3.705   8.765  12.517
33539SOL    HW1 2514   3.670   8.718  12.441
33539SOL    HW2 2515   3.642   8.748  12.587
33540SOL     OW 2516  11.706   8.545  14.385
33540SOL    HW1 2517  11.744   8.463  14.353
33540SOL    HW2 2518  11.701   8.534  14.480
33541SOL     OW 2519  10.580  13.023   6.280
33541SOL    HW1 2520  10.486  13.003   6.272
33541SOL    HW2 2521  10.616  13.006   6.194
33542SOL     OW 2522   8.693   0.194  13.899
33542SOL    HW1 2523   8.681   0.159  13.987
33542SOL    HW2 2524   8.723   0.284  13.913
33543SOL     OW 2525  13.534   9.746   6.831
33543SOL    HW1 2526  13.463   9.748   6.896
33543SOL    HW2 2527  13.570   9.835   6.834
33544SOL     OW 2528   2.868   8.137   3.765
33544SOL    HW1 2529   2.813   8.062   3.788
33544SOL    HW2 2530   2.951   8.097   3.738
33545SOL     OW 2531   5.968   3.828   8.186
33545SOL    HW1 2532   5.991   3.759   8.247
33545SOL    HW2 2533   5.933   3.899   8.240
33546SOL     OW 2534   9.293   4.322   2.333
33546SOL    HW1 2535   9.269   4.400   2.381
33546SOL    HW2 2536   9.280   4.250   2.395
33547SOL     OW 2537   1.283   7.916  14.710
33547SOL    HW1 2538   1.262   7.948  14.798
33547SOL    HW2 2539   1.206   7.938  14.657
33548SOL     OW 2540  11.286   9.709  14.368
33548SOL    HW1 2541  11.366   9.730  14.320
33548SOL    HW2 2542  11.280   9.778  14.434
33549SOL     OW 2543   0.286   2.311  13.319
33549SOL    HW1 2544   0.213   2.255  13.295
33549SOL    HW2 2545   0.360   2.278  13.268
33550SOL     OW 2546   2.376  10.240   2.584
33550SOL    HW1 2547   2.326  10.233   2.665
33550SOL    HW2 2548   2.427  10.159   2.579
33551SOL     OW 2549   0.099  12.490   1.213
33551SOL    HW1 2550   0.020  12.440   1.198
33551SOL    HW2 2551   0.170  12.436   1.179
33552SOL     OW 2552   5.508   5.387   1.645
33552SOL    HW1 2553   5.572   5.458   1.638
33552SOL    HW2 2554   5.423   5.431   1.652
33553SOL     OW 2555  11.216   3.853  10.949
33553SOL    HW1 2556  11.292   3.836  11.005
33553SOL    HW2 2557  11.236   3.936  10.906
33554SOL     OW 2558   5.951   7.367   1.449
33554SOL    HW1 2559   5.969   7.276   1.468
33554SOL    HW2 2560   5.928   7.406   1.534
33555SOL     OW 2561   9.547  13.054   1.079
33555SOL    HW1 2562   9.486  13.086   1.145
33555SOL    HW2 2563   9.557  12.961   1.100
33556SOL     OW 2564  11.677  11.257   8.377
33556SOL    HW1 2565  11.711  11.277   8.464
33556SOL    HW2 2566  11.756  11.247   8.323
33557SOL     OW 2567   3.125   9.395   0.668
33557SOL    HW1 2568   3.108   9.302   0.653
33557SOL    HW2 2569   3.087   9.413   0.755
33558SOL     OW 2570   7.571   1.829   8.438
33558SOL    HW1 2571   7.582   1.788   8.352
33558SOL    HW2 2572   7.661   1.839   8.471
33559SOL     OW 2573   9.385  14.594   2.292
33559SOL    HW1 2574   9.387  14.686   2.315
33559SOL    HW2 2575   9.300  14.563   2.322
33560SOL     OW 2576  13.463  11.314   3.465
33560SOL    HW1 2577  13.416  11.273   3.392
33560SOL    HW2 2578  13.428  11.270   3.543
33561SOL     OW 2579   6.996   8.518   7.634
33561SOL    HW1 2580   6.902   8.502   7.642
33561SOL    HW2 2581   7.030   8.436   7.598
33562SOL     OW 2582  12.247  14.531   6.046
33562SOL    HW1 2583  12.296  14.462   6.002
33562SOL    HW2 2584  12.174  14.485   6.089
33563SOL     OW 2585  13.407   2.207   5.035
33563SOL    HW1 2586  13.370   2.160   4.961
33563SOL    HW2 2587  13.458   2.141   5.083
33564SOL     OW 2588  10.089   9.997   7.852
33564SOL    HW1 2589  10.162   9.943   7.823
33564SOL    HW2 2590  10.016   9.935   7.861
33565SOL     OW 2591   2.512   4.705   6.670
33565SOL    HW1 2592   2.445   4.758   6.712
33565SOL    HW2 2593   2.594   4.754   6.683
33566SOL     OW 2594   8.945   7.686   6.813
33566SOL    HW1 2595   8.905   7.643   6.888
33566SOL    HW2 2596   8.871   7.714   6.758
33567SOL     OW 2597  11.901   0.398   0.475
33567SOL    HW1 2598  11.824   0.436   0.433
33567SOL    HW2 2599  11.975   0.435   0.426
33568SOL     OW 2600   1.105   1.893  11.187
33568SOL    HW1 2601   1.180   1.834  11.183
33568SOL    HW2 2602   1.077   1.902  11.096
33569SOL     OW 2603   4.018  11.042  13.337
33569SOL    HW1 2604   4.006  10.947  13.335
33569SOL    HW2 2605   4.011  11.066  13.429
33570SOL     OW 2606  13.078   5.378  13.661
33570SOL    HW1 2607  13.129   5.337  13.591
33570SOL    HW2 2608  13.083   5.472  13.641
33571SOL     OW 2609   0.127  13.498  12.760
33571SOL    HW1 2610   0.146  13.479  12.668
33571SOL    HW2 2611   0.183  13.573  12.781
33572SOL     OW 2612   7.372   1.585   8.074
33572SOL    HW1 2613   7.363   1.547   7.987
33572SOL    HW2 2614   7.373   1.510   8.133
33573SOL     OW 2615   1.121   4.227  11.882
33573SOL    HW1 2616   1.199   4.253  11.931
33573SOL    HW2 2617   1.149   4.151  11.830
33574SOL     OW 2618   9.525   0.369   5.951
33574SOL    HW1 2619   9.572   0.451   5.934
33574SOL    HW2 2620   9.562   0.308   5.887
33575SOL     OW 2621   5.902   7.272  14.305
33575SOL    HW1 2622   5.898   7.306  14.394
33575SOL    HW2 2623   5.991   7.237  14.297
33576SOL     OW 2624  13.901   0.351   0.389
33576SOL    HW1 2625  13.825   0.408   0.392
33576SOL    HW2 2626  13.960   0.392   0.325
33577SOL     OW 2627   5.313   4.051  13.619
33577SOL    HW1 2628   5.402   4.070  13.591
33577SOL    HW2 2629   5.277   4.136  13.644
33578SOL     OW 2630   0.227   7.496   8.981
33578SOL    HW1 2631   0.146   7.513   9.029
33578SOL    HW2 2632   0.205   7.424   8.922
33579SOL     OW 2633   5.761   8.149  11.556
33579SOL    HW1 2634   5.800   8.236  11.542
33579SOL    HW2 2635   5.774   8.132  11.649
33580SOL     OW 2636   8.607  13.240   7.057
33580SOL    HW1 2637   8.530  13.224   7.112
33580SOL    HW2 2638   8.665  13.165   7.075
33581SOL     OW 2639   9.653   8.562   7.074
33581SOL    HW1 2640   9.590   8.601   7.135
33581SOL    HW2 2641   9.633   8.468   7.077
33582SOL     OW 2642   4.702   5.596   3.673
33582SOL    HW1 2643   4.715   5.691   3.675
33582SOL    HW2 2644   4.779   5.562   3.628
33583SOL     OW 2645   4.860   6.692   4.346
33583SOL    HW1 2646   4.917   6.619   4.322
33583SOL    HW2 2647   4.847   6.740   4.264
33584SOL     OW 2648  10.459   5.022   8.086
33584SOL    HW1 2649  10.384   4.981   8.130
33584SOL    HW2 2650  10.483   4.960   8.017
33585SOL     OW 2651   2.521   7.235   9.440
33585SOL    HW1 2652   2.504   7.303   9.375
33585SOL    HW2 2653   2.612   7.209   9.423
33586SOL     OW 2654   4.522   1.708  11.289
33586SOL    HW1 2655   4.559   1.675  11.371
33586SOL    HW2 2656   4.586   1.686  11.222
33587SOL     OW 2657  13.848  14.228   8.031
33587SOL    HW1 2658  13.754  14.232   8.048
33587SOL    HW2 2659  13.871  14.316   8.001
33588SOL     OW 2660   8.959   3.253  12.852
33588SOL    HW1 2661   9.014   3.323  12.816
33588SOL    HW2 2662   8.975   3.257  12.946
33589SOL     OW 2663   5.110  12.645   3.571
33589SOL    HW1 2664   5.130  12.576   3.633
33589SOL    HW2 2665   5.119  12.603   3.485
33590SOL     OW 2666   8.837  12.769   7.678
33590SOL    HW1 2667   8.917  12.815   7.652
33590SOL    HW2 2668   8.769  12.837   7.677
33591SOL     OW 2669  14.687   2.381   4.789
33591SOL    HW1 2670  14.735   2.408   4.711
33591SOL    HW2 2671  14.646   2.298   4.765
33592SOL     OW 2672   1.675   1.527   3.594
33592SOL    HW1 2673   1.722   1.608   3.572
33592SOL    HW2 2674   1.711   1.500   3.678
33593SOL     OW 2675  12.681   6.474   4.427
33593SOL    HW1 2676  12.638   6.429   4.354
33593SOL    HW2 2677  12.619   6.541   4.454
33594SOL     OW 2678  10.587   8.336  14.707
33594SOL    HW1 2679  10.646   8.275  14.751
33594SOL    HW2 2680  10.622   8.422  14.727
33595SOL     OW 2681   0.140   4.429   6.053
33595SOL    HW1 2682   0.096   4.378   5.985
33595SOL    HW2 2683   0.217   4.377   6.076
33596SOL     OW 2684   8.637   9.149  12.444
33596SOL    HW1 2685   8.668   9.174  12.532
33596SOL    HW2 2686   8.691   9.074  12.421
33597SOL     OW 2687   3.132   4.365   4.249
33597SOL    HW1 2688   3.131   4.386   4.342
33597SOL    HW2 2689   3.051   4.403   4.215
33598SOL     OW 2690   9.850  12.169   4.151
33598SOL    HW1 2691   9.932  12.138   4.111
33598SOL    HW2 2692   9.868  12.259   4.176
33599SOL     OW 2693  13.002  13.529   3.154
33599SOL    HW1 2694  13.039  13.462   3.097
33599SOL    HW2 2695  13.023  13.500   3.243
33600SOL     OW 2696   0.778  13.711  10.971
33600SOL    HW1 2697   0.765  13.689  11.063
33600SOL    HW2 2698   0.694  13.694  10.930
33601SOL     OW 2699  11.140   3.392   9.461
33601SOL    HW1 2700  11.139   3.298   9.479
33601SOL    HW2 2701  11.060   3.407   9.409
33602SOL     OW 2702  11.440  13.226   9.132
33602SOL    HW1 2703  11.375  13.239   9.201
33602SOL    HW2 2704  11.473  13.314   9.113
33603SOL     OW 2705  12.018   5.460   6.319
33603SOL    HW1 2706  12.098   5.473   6.370
33603SOL    HW2 2707  12.048   5.424   6.236
33604SOL     OW 2708   8.077   8.084   6.356
33604SOL    HW1 2709   8.075   8.177   6.334
33604SOL    HW2 2710   8.166   8.055   6.333
33605SOL     OW 2711  14.726   5.455  10.953
33605SOL    HW1 2712  14.813   5.494  10.946
33605SOL    HW2 2713  14.673   5.503  10.889
33606SOL     OW 2714   9.494  12.330  14.518
33606SOL    HW1 2715   9.587  12.316  14.503
33606SOL    HW2 2716   9.489  12.392  14.590
33607SOL     OW 2717   2.792   7.500  10.345
33607SOL    HW1 2718   2.700   7.489  10.368
33607SOL    HW2 2719   2.835   7.421  10.379
33608SOL     OW 2720   8.732   9.045   4.929
33608SOL    HW1 2721   8.816   9.003   4.946
33608SOL    HW2 2722   8.678   8.975   4.892
33609SOL     OW 2723   8.721   7.404  10.243
33609SOL    HW1 2724   8.696   7.464  10.173
33609SOL    HW2 2725   8.667   7.327  10.229
33610SOL     OW 2726   3.134   8.474   7.073
33610SOL    HW1 2727   3.145   8.429   7.157
33610SOL    HW2 2728   3.221   8.510   7.054
33611SOL     OW 2729  13.407  13.641   6.335
33611SOL    HW1 2730  13.337  13.633   6.272
33611SOL    HW2 2731  13.487  13.620   6.286
33612SOL     OW 2732   4.970   6.315   8.738
33612SOL    HW1 2733   4.960   6.356   8.823
33612SOL    HW2 2734   4.969   6.221   8.755
33613SOL     OW 2735  14.130   2.901   8.334
33613SOL    HW1 2736  14.215   2.934   8.363
33613SOL    HW2 2737  14.101   2.844   8.405
33614SOL     OW 2738   7.529   1.875   2.277
33614SOL    HW1 2739   7.514   1.957   2.230
33614SOL    HW2 2740   7.594   1.829   2.224
33615SOL     OW 2741   7.435   4.449  14.109
33615SOL    HW1 2742   7.448   4.416  14.021
33615SOL    HW2 2743   7.342   4.472  14.113
33616SOL     OW 2744   3.718   1.887   3.951
33616SOL    HW1 2745   3.792   1.893   3.891
33616SOL    HW2 2746   3.666   1.813   3.919
33617SOL     OW 2747   0.083   2.551   0.629
33617SOL    HW1 2748   0.171   2.548   0.591
33617SOL    HW2 2749   0.094   2.597   0.712
33618SOL     OW 2750   4.605   2.175   8.814
33618SOL    HW1 2751   4.588   2.081   8.817
33618SOL    HW2 2752   4.596   2.199   8.722
33619SOL     OW 2753   5.479   6.872   2.565
33619SOL    HW1 2754   5.492   6.787   2.521
33619SOL    HW2 2755   5.511   6.858   2.654
33620SOL     OW 2756  10.910   7.196   1.981
33620SOL    HW1 2757  11.001   7.225   1.980
33620SOL    HW2 2758  10.915   7.101   1.967
33621SOL     OW 2759   6.277   8.666   4.832
33621SOL    HW1 2760   6.227   8.634   4.757
33621SOL    HW2 2761   6.354   8.608   4.836
33622SOL     OW 2762  11.634  13.712   6.529
33622SOL    HW1 2763  11.635  13.779   6.461
33622SOL    HW2 2764  11.543  13.709   6.558
33623SOL     OW 2765   2.434  11.781   5.641
33623SOL    HW1 2766   2.409  11.850   5.581
33623SOL    HW2 2767   2.369  11.785   5.711
33624SOL     OW 2768   7.002  13.951   6.379
33624SOL    HW1 2769   6.927  13.953   6.320
33624SOL    HW2 2770   6.998  14.035   6.426
33625SOL     OW 2771   1.913  12.866   3.639
33625SOL    HW1 2772   1.913  12.959   3.658
33625SOL    HW2 2773   1.852  12.856   3.565
33626SOL     OW 2774  12.267   2.656   2.541
33626SOL    HW1 2775  12.262   2.682   2.633
33626SOL    HW2 2776  12.225   2.727   2.494
33627SOL     OW 2777   2.709   1.530   7.070
33627SOL    HW1 2778   2.750   1.611   7.042
33627SOL    HW2 2779   2.618   1.554   7.090
33628SOL     OW 2780   2.114   9.036  12.455
33628SOL    HW1 2781   2.053   9.031  12.381
33628SOL    HW2 2782   2.184   8.974  12.433
33629SOL     OW 2783   1.739   9.668   8.319
33629SOL    HW1 2784   1.686   9.684   8.240
33629SOL    HW2 2785   1.696   9.721   8.387
33630SOL     OW 2786  13.198  10.593   1.305
33630SOL    HW1 2787  13.248  10.521   1.266
33630SOL    HW2 2788  13.122  10.551   1.344
33631SOL     OW 2789   7.426   5.784   7.902
33631SOL    HW1 2790   7.425   5.846   7.830
33631SOL    HW2 2791   7.498   5.725   7.882
33632SOL     OW 2792   4.920   5.326   1.735
33632SOL    HW1 2793   4.958   5.337   1.647
33632SOL    HW2 2794   4.838   5.279   1.719
33633SOL     OW 2795  11.443  14.106   2.386
33633SOL    HW1 2796  11.461  14.151   2.469
33633SOL    HW2 2797  11.528  14.105   2.342
33634SOL     OW 2798   1.776   1.831   8.353
33634SOL    HW1 2799   1.740   1.913   8.318
33634SOL    HW2 2800   1.726   1.763   8.309
33635SOL     OW 2801  12.759   2.620   2.744
33635SOL    HW1 2802  12.749   2.712   2.765
33635SOL    HW2 2803  12.672   2.583   2.758
33636SOL     OW 2804  13.719   9.984  14.367
33636SOL    HW1 2805  13.709  10.001  14.461
33636SOL    HW2 2806  13.798  10.032  14.342
33637SOL     OW 2807   5.694   2.373   6.682
33637SOL    HW1 2808   5.699   2.464   6.652
33637SOL    HW2 2809   5.601   2.350   6.674
33638SOL     OW 2810   0.565   7.730  12.049
33638SOL    HW1 2811   0.603   7.802  12.000
33638SOL    HW2 2812   0.540   7.665  11.983
33639SOL     OW 2813  13.208  12.200   8.864
33639SOL    HW1 2814  13.221  12.168   8.775
33639SOL    HW2 2815  13.296  12.217   8.897
33640SOL     OW 2816   2.226  10.173   9.137
33640SOL    HW1 2817   2.226  10.225   9.217
33640SOL    HW2 2818   2.139  10.132   9.136
33641SOL     OW 2819  13.830   9.389   7.138
33641SOL    HW1 2820  13.815   9.309   7.088
33641SOL    HW2 2821  13.755   9.445   7.119
33642SOL     OW 2822  10.181   0.107   3.704
33642SOL    HW1 2823  10.160   0.021   3.666
33642SOL    HW2 2824  10.168   0.169   3.632
33643SOL     OW 2825   0.394  11.910   4.020
33643SOL    HW1 2826   0.334  11.936   4.090
33643SOL    HW2 2827   0.371  11.819   4.001
33644SOL     OW 2828   3.656   2.313   7.510
33644SOL    HW1 2829   3.630   2.222   7.498
33644SOL    HW2 2830   3.708   2.333   7.432
33645SOL     OW 2831   7.936  13.593   0.234
33645SOL    HW1 2832   7.888  13.632   0.162
33645SOL    HW2 2833   7.970  13.668   0.283
33646SOL     OW 2834  10.866   6.892   9.515
33646SOL    HW1 2835  10.847   6.891   9.609
33646SOL    HW2 2836  10.781   6.879   9.472
33647SOL     OW 2837  14.742  14.102   0.996
33647SOL    HW1 2838  14.745  14.035   1.065
33647SOL    HW2 2839  14.652  14.100   0.965
33648SOL     OW 2840  11.248   9.185  14.768
33648SOL    HW1 2841  11.178   9.166  14.831
33648SOL    HW2 2842  11.230   9.127  14.694
33649SOL     OW 2843  13.742  13.162   8.881
33649SOL    HW1 2844  13.683  13.237   8.881
33649SOL    HW2 2845  13.692  13.092   8.838
33650SOL     OW 2846   4.664  11.767  11.310
33650SOL    HW1 2847   4.658  11.860  11.288
33650SOL    HW2 2848   4.659  11.722  11.225
33651SOL     OW 2849   1.373   5.743  11.392
33651SOL    HW1 2850   1.371   5.698  11.307
33651SOL    HW2 2851   1.295   5.798  11.392
33652SOL     OW 2852  13.278   6.029  14.191
33652SOL    HW1 2853  13.239   5.942  14.195
33652SOL    HW2 2854  13.311   6.036  14.101
33653SOL     OW 2855   5.214   7.085   9.478
33653SOL    HW1 2856   5.211   7.047   9.390
33653SOL    HW2 2857   5.265   7.021   9.529
33654SOL     OW 2858   5.560   1.487  14.480
33654SOL    HW1 2859   5.525   1.405  14.447
33654SOL    HW2 2860   5.488   1.549  14.475
33655SOL     OW 2861  13.813   1.200   6.065
33655SOL    HW1 2862  13.734   1.155   6.038
33655SOL    HW2 2863  13.793   1.293   6.055
33656SOL     OW 2864   7.986  14.174   6.331
33656SOL    HW1 2865   8.067  14.167   6.382
33656SOL    HW2 2866   7.995  14.254   6.281
33657SOL     OW 2867   0.671   3.366   1.134
33657SOL    HW1 2868   0.676   3.281   1.090
33657SOL    HW2 2869   0.581   3.396   1.120
33658SOL     OW 2870   0.025   3.566   9.301
33658SOL    HW1 2871   0.006   3.479   9.265
33658SOL    HW2 2872  14.834   3.579   9.369
33659SOL     OW 2873   9.269   7.036  13.566
33659SOL    HW1 2874   9.352   6.988  13.563
33659SOL    HW2 2875   9.287   7.117  13.517
33660SOL     OW 2876   9.105   9.695   5.828
33660SOL    HW1 2877   9.187   9.668   5.868
33660SOL    HW2 2878   9.043   9.697   5.901
33661SOL     OW 2879  13.274   3.823   3.423
33661SOL    HW1 2880  13.230   3.864   3.349
33661SOL    HW2 2881  13.248   3.875   3.499
33662SOL     OW 2882  12.504  10.854  10.433
33662SOL    HW1 2883  12.533  10.903  10.355
33662SOL    HW2 2884  12.432  10.799  10.401
33663SOL     OW 2885  10.195   3.806   2.561
33663SOL    HW1 2886  10.131   3.792   2.492
33663SOL    HW2 2887  10.178   3.895   2.592
33664SOL     OW 2888  11.454   7.911   2.630
33664SOL    HW1 2889  11.479   7.886   2.541
33664SOL    HW2 2890  11.537   7.934   2.672
33665SOL     OW 2891   2.677  12.940   3.896
33665SOL    HW1 2892   2.687  12.944   3.801
33665SOL    HW2 2893   2.749  12.994   3.930
33666SOL     OW 2894  11.052   7.114   8.738
33666SOL    HW1 2895  11.092   7.028   8.726
33666SOL    HW2 2896  11.100   7.171   8.678
33667SOL     OW 2897   1.782  13.203   2.659
33667SOL    HW1 2898   1.819  13.115   2.653
33667SOL    HW2 2899   1.856  13.262   2.647
33668SOL     OW 2900   0.287   5.400   2.503
33668SOL    HW1 2901   0.271   5.377   2.595
33668SOL    HW2 2902   0.209   5.449   2.477
33669SOL     OW 2903   8.378   4.240   5.488
33669SOL    HW1 2904   8.331   4.179   5.430
33669SOL    HW2 2905   8.432   4.183   5.544
33670SOL     OW 2906   8.987   6.142   5.713
33670SOL    HW1 2907   8.897   6.112   5.706
33670SOL    HW2 2908   9.020   6.142   5.623
33671SOL     OW 2909  11.221   5.595   8.089
33671SOL    HW1 2910  11.156   5.603   8.159
33671SOL    HW2 2911  11.239   5.501   8.084
33672SOL     OW 2912  13.777  14.206   5.397
33672SOL    HW1 2913  13.750  14.260   5.472
33672SOL    HW2 2914  13.863  14.240   5.373
33673SOL     OW 2915   7.727   8.352   5.885
33673SOL    HW1 2916   7.794   8.351   5.953
33673SOL    HW2 2917   7.710   8.445   5.869
33674SOL     OW 2918  13.795   3.914   2.117
33674SOL    HW1 2919  13.771   3.827   2.150
33674SOL    HW2 2920  13.831   3.959   2.193
33675SOL     OW 2921   0.524   9.322  10.448
33675SOL    HW1 2922   0.527   9.392  10.513
33675SOL    HW2 2923   0.487   9.247  10.496
33676SOL     OW 2924   8.362  12.993   5.848
33676SOL    HW1 2925   8.314  13.015   5.928
33676SOL    HW2 2926   8.388  13.077   5.811
33677SOL     OW 2927   1.439   3.325   0.494
33677SOL    HW1 2928   1.430   3.396   0.431
33677SOL    HW2 2929   1.371   3.263   0.470
33678SOL     OW 2930   0.028   9.679  12.572
33678SOL    HW1 2931  14.808   9.684  12.555
33678SOL    HW2 2932   0.063   9.759  12.534
33679SOL     OW 2933   4.491   2.796   2.133
33679SOL    HW1 2934   4.531   2.882   2.122
33679SOL    HW2 2935   4.400   2.815   2.159
33680SOL     OW 2936  14.413   6.678   3.773
33680SOL    HW1 2937  14.369   6.615   3.831
33680SOL    HW2 2938  14.506   6.652   3.776
33681SOL     OW 2939   2.489   3.171  12.156
33681SOL    HW1 2940   2.450   3.250  12.119
33681SOL    HW2 2941   2.418   3.106  12.152
33682SOL     OW 2942  12.030   5.926   2.493
33682SOL    HW1 2943  12.051   5.967   2.577
33682SOL    HW2 2944  11.939   5.897   2.502
33683SOL     OW 2945   7.593   5.557   4.419
33683SOL    HW1 2946   7.626   5.633   4.468
33683SOL    HW2 2947   7.589   5.487   4.484
33684SOL     OW 2948   5.580   8.128  10.437
33684SOL    HW1 2949   5.506   8.075  10.467
33684SOL    HW2 2950   5.657   8.072  10.452
33685SOL     OW 2951   8.325  11.920  11.436
33685SOL    HW1 2952   8.359  11.843  11.482
33685SOL    HW2 2953   8.255  11.886  11.381
33686SOL     OW 2954  10.909  14.081  14.475
33686SOL    HW1 2955  10.841  14.016  14.485
33686SOL    HW2 2956  10.919  14.120  14.562
33687SOL     OW 2957   9.967   7.069   1.942
33687SOL    HW1 2958  10.026   6.999   1.916
33687SOL    HW2 2959   9.978   7.075   2.037
33688SOL     OW 2960   6.336   4.631   7.632
33688SOL    HW1 2961   6.383   4.618   7.715
33688SOL    HW2 2962   6.253   4.671   7.658
33689SOL     OW 2963   9.081   6.044  10.355
33689SOL    HW1 2964   9.031   6.077  10.430
33689SOL    HW2 2965   9.170   6.033  10.389
33690SOL     OW 2966   2.853   0.433  10.341
33690SOL    HW1 2967   2.805   0.515  10.352
33690SOL    HW2 2968   2.812   0.373  10.403
33691SOL     OW 2969  11.899  13.696   6.435
33691SOL    HW1 2970  11.944  13.638   6.496
33691SOL    HW2 2971  11.820  13.723   6.481
33692SOL     OW 2972   9.772   0.613  13.787
33692SOL    HW1 2973   9.723   0.674  13.732
33692SOL    HW2 2974   9.756   0.527  13.748
33693SOL     OW 2975   2.067   7.654   0.240
33693SOL    HW1 2976   2.020   7.734   0.262
33693SOL    HW2 2977   2.080   7.659   0.145
33694SOL     OW 2978   6.567  12.989  14.849
33694SOL    HW1 2979   6.588  13.027  14.764
33694SOL    HW2 2980   6.573  12.894  14.835
33695SOL     OW 2981  10.427  14.045  10.253
33695SOL    HW1 2982  10.393  13.964  10.215
33695SOL    HW2 2983  10.421  14.032  10.348
33696SOL     OW 2984  12.874  13.593   3.762
33696SOL    HW1 2985  12.961  13.595   3.724
33696SOL    HW2 2986  12.817  13.569   3.689
33697SOL     OW 2987   0.579  13.919   0.342
33697SOL    HW1 2988   0.558  13.856   0.410
33697SOL    HW2 2989   0.557  14.004   0.380
33698SOL     OW 2990   6.303   7.904   5.385
33698SOL    HW1 2991   6.316   7.974   5.320
33698SOL    HW2 2992   6.299   7.824   5.334
33699SOL     OW 2993   6.653  11.114  12.276
33699SOL    HW1 2994   6.715  11.163  12.329
33699SOL    HW2 2995   6.604  11.060  12.338
33700SOL     OW 2996   4.233   0.963  13.176
33700SOL    HW1 2997   4.156   0.951  13.231
33700SOL    HW2 2998   4.250   1.057  13.179
33701SOL     OW 2999  14.365   4.145   6.791
33701SOL    HW1 3000  14.458   4.123   6.788
33701SOL    HW2 3001  14.352   4.185   6.877
33702SOL     OW 3002   3.518   1.443   7.674
33702SOL    HW1 3003   3.484   1.399   7.752
33702SOL    HW2 3004   3.440   1.481   7.632
33703SOL     OW 3005   9.446  14.648   0.859
33703SOL    HW1 3006   9.489  14.675   0.940
33703SOL    HW2 3007   9.392  14.574   0.884
33704SOL     OW 3008  11.128  11.278  12.571
33704SOL    HW1 3009  11.149  11.228  12.650
33704SOL    HW2 3010  11.212  11.306  12.537
33705SOL     OW 3011  13.849  11.763   3.783
33705SOL    HW1 3012  13.931  11.812   3.786
33705SOL    HW2 3013  13.783  11.829   3.758
33706SOL     OW 3014   7.093  13.575   5.946
33706SOL    HW1 3015   7.135  13.501   5.991
33706SOL    HW2 3016   7.154  13.647   5.955
33707SOL     OW 3017  11.051   5.066   2.922
33707SOL    HW1 3018  10.971   5.042   2.875
33707SOL    HW2 3019  11.044   5.161   2.932
33708SOL     OW 3020  14.748  13.085   1.978
33708SOL    HW1 3021  14.693  13.030   2.034
33708SOL    HW2 3022  14.730  13.055   1.889
33709SOL     OW 3023   3.964   0.606   4.829
33709SOL    HW1 3024   3.933   0.631   4.742
33709SOL    HW2 3025   3.980   0.690   4.873
33710SOL     OW 3026   6.469   8.673  11.868
33710SOL    HW1 3027   6.376   8.687  11.847
33710SOL    HW2 3028   6.468   8.610  11.941
33711SOL     OW 3029  13.259  11.057  10.367
33711SOL    HW1 3030  13.215  10.989  10.418
33711SOL    HW2 3031  13.220  11.051  10.280
33712SOL     OW 3032  12.105   7.817   0.980
33712SOL    HW1 3033  12.026   7.850   1.022
33712SOL    HW2 3034  12.117   7.872   0.903
33713SOL     OW 3035   2.289   5.465   3.501
33713SOL    HW1 3036   2.361   5.423   3.548
33713SOL    HW2 3037   2.331   5.530   3.446
33714SOL     OW 3038  14.492  11.400  12.494
33714SOL    HW1 3039  14.492  11.413  12.399
33714SOL    HW2 3040  14.399  11.394  12.517
33715SOL     OW 3041  14.377  12.151   3.607
33715SOL    HW1 3042  14.446  12.139   3.673
33715SOL    HW2 3043  14.339  12.236   3.628
33716SOL     OW 3044   3.361   1.676  11.370
33716SOL    HW1 3045   3.446   1.672  11.414
33716SOL    HW2 3046   3.303   1.622  11.424
33717SOL     OW 3047   7.731   8.156  10.166
33717SOL    HW1 3048   7.819   8.179  10.135
33717SOL    HW2 3049   7.740   8.066  10.197
33718SOL     OW 3050   0.117   4.964   1.549
33718SOL    HW1 3051   0.027   4.995   1.560
33718SOL    HW2 3052   0.157   4.977   1.635
33719SOL     OW 3053  13.211   9.887   2.289
33719SOL    HW1 3054  13.236   9.957   2.230
33719SOL    HW2 3055  13.291   9.836   2.301
33720SOL     OW 3056  14.225   9.757   9.837
33720SOL    HW1 3057  14.208   9.850   9.851
33720SOL    HW2 3058  14.264   9.753   9.749
33721SOL     OW 3059  10.968   9.768   9.964
33721SOL    HW1 3060  10.953   9.711   9.889
33721SOL    HW2 3061  10.918   9.729  10.035
33722SOL     OW 3062  12.844   0.170   4.149
33722SOL    HW1 3063  12.763   0.219   4.144
33722SOL    HW2 3064  12.910   0.234   4.174
33723SOL     OW 3065   2.703   1.295   1.652
33723SOL    HW1 3066   2.742   1.381   1.638
33723SOL    HW2 3067   2.681   1.293   1.745
33724SOL     OW 3068   1.232   2.349   0.115
33724SOL    HW1 3069   1.162   2.317   0.172
33724SOL    HW2 3070   1.194   2.426   0.071
33725SOL     OW 3071  12.643  14.421   3.273
33725SOL    HW1 3072  12.568  14.459   3.228
33725SOL    HW2 3073  12.606  14.381   3.352
33726SOL     OW 3074   9.294   3.179   1.389
33726SOL    HW1 3075   9.297   3.161   1.483
33726SOL    HW2 3076   9.201   3.187   1.369
33727SOL     OW 3077   9.005   5.601   3.830
33727SOL    HW1 3078   9.080   5.605   3.889
33727SOL    HW2 3079   8.945   5.539   3.871
33728SOL     OW 3080  11.237   3.437   8.339
33728SOL    HW1 3081  11.204   3.511   8.289
33728SOL    HW2 3082  11.234   3.363   8.278
33729SOL     OW 3083   4.602  10.949   0.365
33729SOL    HW1 3084   4.543  10.996   0.423
33729SOL    HW2 3085   4.667  11.015   0.338
33730SOL     OW 3086   1.901   7.775   0.497
33730SOL    HW1 3087   1.889   7.829   0.420
33730SOL    HW2 3088   1.926   7.836   0.566
33731SOL     OW 3089  11.443   8.033   6.279
33731SOL    HW1 3090  11.400   8.102   6.330
33731SOL    HW2 3091  11.531   8.025   6.317
33732SOL     OW 3092   9.843   2.430   4.095
33732SOL    HW1 3093   9.844   2.347   4.048
33732SOL    HW2 3094   9.766   2.426   4.151
33733SOL     OW 3095   0.851   0.489  10.374
33733SOL    HW1 3096   0.779   0.478  10.313
33733SOL    HW2 3097   0.809   0.492  10.460
33734SOL     OW 3098   9.116   6.227  14.577
33734SOL    HW1 3099   9.154   6.140  14.586
33734SOL    HW2 3100   9.032   6.222  14.621
33735SOL     OW 3101  14.735   1.638   1.919
33735SOL    HW1 3102  14.649   1.596   1.926
33735SOL    HW2 3103  14.725   1.700   1.846
33736SOL     OW 3104   5.656   9.011   7.526
33736SOL    HW1 3105   5.695   8.927   7.548
33736SOL    HW2 3106   5.610   9.038   7.605
33737SOL     OW 3107   1.105   0.916   7.599
33737SOL    HW1 3108   1.062   0.960   7.672
33737SOL    HW2 3109   1.132   0.987   7.540
33738SOL     OW 3110   0.736  13.017   7.130
33738SOL    HW1 3111   0.673  13.063   7.186
33738SOL    HW2 3112   0.692  13.011   7.045
33739SOL     OW 3113   5.610   6.399   8.975
33739SOL    HW1 3114   5.601   6.493   8.992
33739SOL    HW2 3115   5.521   6.364   8.983
33740SOL     OW 3116   3.617  12.414   1.331
33740SOL    HW1 3117   3.648  12.338   1.281
33740SOL    HW2 3118   3.691  12.437   1.387
33741SOL     OW 3119   7.669   2.044   7.402
33741SOL    HW1 3120   7.738   2.111   7.396
33741SOL    HW2 3121   7.615   2.072   7.475
33742SOL     OW 3122   0.935   6.830  11.829
33742SOL    HW1 3123   0.858   6.774  11.818
33742SOL    HW2 3124   0.964   6.847  11.740
33743SOL     OW 3125   3.710  11.505  14.538
33743SOL    HW1 3126   3.639  11.501  14.474
33743SOL    HW2 3127   3.790  11.489  14.487
33744SOL     OW 3128   9.949  10.112   8.736
33744SOL    HW1 3129   9.868  10.072   8.770
33744SOL    HW2 3130   9.980  10.167   8.808
33745SOL     OW 3131   4.778   1.787  12.075
33745SOL    HW1 3132   4.830   1.708  12.089
33745SOL    HW2 3133   4.697   1.756  12.036
33746SOL     OW 3134   7.640   1.705   3.812
33746SOL    HW1 3135   7.662   1.763   3.739
33746SOL    HW2 3136   7.691   1.625   3.794
33747SOL     OW 3137   8.472   1.216  13.121
33747SOL    HW1 3138   8.524   1.227  13.042
33747SOL    HW2 3139   8.418   1.295  13.125
33748SOL     OW 3140  13.398  10.696  14.870
33748SOL    HW1 3141  13.455  10.621  14.854
33748SOL    HW2 3142  13.407  10.751  14.792
33749SOL     OW 3143   9.653   6.328   4.845
33749SOL    HW1 3144   9.712   6.276   4.790
33749SOL    HW2 3145   9.579   6.270   4.863
33750SOL     OW 3146   8.060   4.197  12.301
33750SOL    HW1 3147   8.030   4.130  12.362
33750SOL    HW2 3148   8.001   4.188  12.226
33751SOL     OW 3149   6.456   9.025   8.663
33751SOL    HW1 3150   6.378   9.058   8.708
33751SOL    HW2 3151   6.523   9.090   8.681
33752SOL     OW 3152  12.412   8.809   3.876
33752SOL    HW1 3153  12.383   8.777   3.790
33752SOL    HW2 3154  12.417   8.730   3.930
33753SOL     OW 3155   0.971   7.291  10.720
33753SOL    HW1 3156   0.934   7.350  10.654
33753SOL    HW2 3157   0.907   7.292  10.792
33754SOL     OW 3158   0.382   8.336   1.610
33754SOL    HW1 3159   0.390   8.412   1.551
33754SOL    HW2 3160   0.323   8.365   1.679
33755SOL     OW 3161   4.034   8.338   9.600
33755SOL    HW1 3162   3.984   8.349   9.681
33755SOL    HW2 3163   4.029   8.423   9.557
33756SOL     OW 3164   2.902  14.515   3.372
33756SOL    HW1 3165   2.872  14.532   3.461
33756SOL    HW2 3166   2.965  14.584   3.354
33757SOL     OW 3167  10.204   1.578  12.488
33757SOL    HW1 3168  10.262   1.586  12.412
33757SOL    HW2 3169  10.233   1.646  12.548
33758SOL     OW 3170  14.688   0.172   0.828
33758SOL    HW1 3171  14.762   0.199   0.773
33758SOL    HW2 3172  14.615   0.227   0.798
33759SOL     OW 3173   7.426   7.815   3.405
33759SOL    HW1 3174   7.476   7.856   3.334
33759SOL    HW2 3175   7.337   7.846   3.392
33760SOL     OW 3176   3.034   0.444   6.205
33760SOL    HW1 3177   3.053   0.532   6.172
33760SOL    HW2 3178   2.975   0.406   6.140
33761SOL     OW 3179  12.895  10.733  10.616
33761SOL    HW1 3180  12.803  10.760  10.621
33761SOL    HW2 3181  12.924  10.729  10.707
33762SOL     OW 3182   3.125  11.686  14.519
33762SOL    HW1 3183   3.205  11.672  14.569
33762SOL    HW2 3184   3.078  11.756  14.565
33763SOL     OW 3185  11.803  12.857  14.496
33763SOL    HW1 3186  11.718  12.831  14.531
33763SOL    HW2 3187  11.830  12.783  14.442
33764SOL     OW 3188   9.130  12.709  11.339
33764SOL    HW1 3189   9.205  12.651  11.324
33764SOL    HW2 3190   9.053  12.655  11.323
33765SOL     OW 3191   1.203  12.736   4.983
33765SOL    HW1 3192   1.186  12.643   4.970
33765SOL    HW2 3193   1.159  12.780   4.910
33766SOL     OW 3194  13.436  14.309  14.092
33766SOL    HW1 3195  13.406  14.242  14.030
33766SOL    HW2 3196  13.364  14.371  14.096
33767SOL     OW 3197   3.686   3.064   1.252
33767SOL    HW1 3198   3.749   3.110   1.196
33767SOL    HW2 3199   3.672   2.981   1.208
33768SOL     OW 3200   4.669   4.010  11.131
33768SOL    HW1 3201   4.699   4.100  11.140
33768SOL    HW2 3202   4.661   3.978  11.221
33769SOL     OW 3203   6.681  13.094   1.558
33769SOL    HW1 3204   6.666  13.187   1.576
33769SOL    HW2 3205   6.593  13.057   1.548
33770SOL     OW 3206   3.888  12.930  12.224
33770SOL    HW1 3207   3.807  12.885  12.199
33770SOL    HW2 3208   3.935  12.941  12.141
33771SOL     OW 3209   4.058   7.883   1.711
33771SOL    HW1 3210   4.050   7.959   1.768
33771SOL    HW2 3211   4.069   7.919   1.623
33772SOL     OW 3212   5.694  13.970  11.304
33772SOL    HW1 3213   5.737  14.030  11.243
33772SOL    HW2 3214   5.766  13.928  11.351
33773SOL     OW 3215   6.833   0.973   4.335
33773SOL    HW1 3216   6.841   0.964   4.430
33773SOL    HW2 3217   6.770   0.906   4.310
33774SOL     OW 3218   0.422   9.550  10.580
33774SOL    HW1 3219   0.399   9.640  10.557
33774SOL    HW2 3220   0.346   9.498  10.552
33775SOL     OW 3221   8.347  11.368   3.198
33775SOL    HW1 3222   8.313  11.447   3.240
33775SOL    HW2 3223   8.268  11.318   3.176
33776SOL     OW 3224  12.499   4.849   5.512
33776SOL    HW1 3225  12.453   4.928   5.486
33776SOL    HW2 3226  12.534   4.869   5.599
33777SOL     OW 3227   9.484   7.449   2.760
33777SOL    HW1 3228   9.536   7.391   2.816
33777SOL    HW2 3229   9.393   7.428   2.782
33778SOL     OW 3230   2.335  14.418  14.805
33778SOL    HW1 3231   2.364  14.361   0.001
33778SOL    HW2 3232   2.403  14.486  14.801
33779SOL     OW 3233   0.083   0.903   1.798
33779SOL    HW1 3234   0.059   0.888   1.706
33779SOL    HW2 3235   0.073   0.997   1.811
33780SOL     OW 3236  13.835   0.275  12.476
33780SOL    HW1 3237  13.823   0.259  12.382
33780SOL    HW2 3238  13.835   0.371  12.483
33781SOL     OW 3239   1.305   9.764   1.274
33781SOL    HW1 3240   1.245   9.748   1.347
33781SOL    HW2 3241   1.388   9.788   1.316
33782SOL     OW 3242  11.982   9.037   4.425
33782SOL    HW1 3243  12.010   9.022   4.516
33782SOL    HW2 3244  12.022   8.965   4.376
33783SOL     OW 3245  11.278   7.955   3.580
33783SOL    HW1 3246  11.208   8.019   3.585
33783SOL    HW2 3247  11.275   7.909   3.664
33784SOL     OW 3248   6.149   5.452  13.460
33784SOL    HW1 3249   6.137   5.470  13.554
33784SOL    HW2 3250   6.172   5.537  13.422
33785SOL     OW 3251  13.542   8.839   7.616
33785SOL    HW1 3252  13.453   8.871   7.606
33785SOL    HW2 3253  13.533   8.744   7.621
33786SOL     OW 3254   3.645   5.460   5.659
33786SOL    HW1 3255   3.559   5.422   5.643
33786SOL    HW2 3256   3.640   5.548   5.622
33787SOL     OW 3257   6.883   4.467  10.046
33787SOL    HW1 3258   6.964   4.438  10.087
33787SOL    HW2 3259   6.816   4.406  10.078
33788SOL     OW 3260   4.873   2.345   2.048
33788SOL    HW1 3261   4.849   2.364   2.139
33788SOL    HW2 3262   4.853   2.252   2.037
33789SOL     OW 3263  12.999  12.741  14.207
33789SOL    HW1 3264  13.030  12.675  14.269
33789SOL    HW2 3265  12.928  12.697  14.160
33790SOL     OW 3266   6.111   7.751  13.267
33790SOL    HW1 3267   6.097   7.737  13.360
33790SOL    HW2 3268   6.024   7.743  13.228
33791SOL     OW 3269   4.177   9.568  10.964
33791SOL    HW1 3270   4.260   9.523  10.979
33791SOL    HW2 3271   4.170   9.575  10.869
33792SOL     OW 3272   6.368   0.114   7.241
33792SOL    HW1 3273   6.402   0.187   7.190
33792SOL    HW2 3274   6.388   0.138   7.332
33793SOL     OW 3275   1.849   8.148  14.492
33793SOL    HW1 3276   1.831   8.177  14.581
33793SOL    HW2 3277   1.872   8.228  14.445
33794SOL     OW 3278  10.924   4.592   1.096
33794SOL    HW1 3279  11.016   4.607   1.118
33794SOL    HW2 3280  10.875   4.628   1.170
33795SOL     OW 3281  12.364  13.193   1.661
33795SOL    HW1 3282  12.304  13.132   1.618
33795SOL    HW2 3283  12.306  13.254   1.708
33796SOL     OW 3284   0.400  13.399   0.722
33796SOL    HW1 3285   0.323  13.397   0.778
33796SOL    HW2 3286   0.448  13.318   0.743
33797SOL     OW 3287   3.651  13.686  11.336
33797SOL    HW1 3288   3.567  13.724  11.360
33797SOL    HW2 3289   3.715  13.755  11.353
33798SOL     OW 3290  14.623   8.718   4.467
33798SOL    HW1 3291  14.696   8.780   4.468
33798SOL    HW2 3292  14.661   8.635   4.497
33799SOL     OW 3293   4.782   5.198   2.450
33799SOL    HW1 3294   4.760   5.149   2.530
33799SOL    HW2 3295   4.711   5.177   2.389
33800SOL     OW 3296   0.533   1.859   1.249
33800SOL    HW1 3297   0.575   1.942   1.269
33800SOL    HW2 3298   0.569   1.834   1.164
33801SOL     OW 3299  13.709  12.459   4.793
33801SOL    HW1 3300  13.776  12.438   4.858
33801SOL    HW2 3301  13.640  12.503   4.843
33802SOL     OW 3302   3.339   9.931   8.129
33802SOL    HW1 3303   3.333  10.004   8.067
33802SOL    HW2 3304   3.308   9.967   8.212
33803SOL     OW 3305   3.810   3.191   7.840
33803SOL    HW1 3306   3.899   3.156   7.835
33803SOL    HW2 3307   3.771   3.170   7.755
33804SOL     OW 3308   6.900   3.113  12.751
33804SOL    HW1 3309   6.961   3.056  12.704
33804SOL    HW2 3310   6.952   3.154  12.820
33805SOL     OW 3311  12.029  13.752   1.424
33805SOL    HW1 3312  12.046  13.796   1.340
33805SOL    HW2 3313  11.934  13.742   1.426
33806SOL     OW 3314   5.377   3.733   6.505
33806SOL    HW1 3315   5.442   3.754   6.439
33806SOL    HW2 3316   5.320   3.810   6.509
33807SOL     OW 3317   3.752   0.051   7.933
33807SOL    HW1 3318   3.729  14.849   7.985
33807SOL    HW2 3319   3.825   0.091   7.981
33808SOL     OW 3320  12.696   1.982  12.831
33808SOL    HW1 3321  12.775   1.945  12.870
33808SOL    HW2 3322  12.704   1.964  12.737
33809SOL     OW 3323   2.209  14.570   3.886
33809SOL    HW1 3324   2.156  14.540   3.959
33809SOL    HW2 3325   2.290  14.601   3.926
33810SOL     OW 3326  13.888   4.268   7.422
33810SOL    HW1 3327  13.908   4.193   7.479
33810SOL    HW2 3328  13.944   4.338   7.455
33811SOL     OW 3329  12.884   8.015   0.981
33811SOL    HW1 3330  12.867   8.033   1.073
33811SOL    HW2 3331  12.963   7.961   0.982
33812SOL     OW 3332   8.729   2.620   0.261
33812SOL    HW1 3333   8.794   2.574   0.314
33812SOL    HW2 3334   8.645   2.582   0.286
33813SOL     OW 3335  14.369   3.063  10.521
33813SOL    HW1 3336  14.400   3.134  10.576
33813SOL    HW2 3337  14.449   3.028  10.480
33814SOL     OW 3338   7.017  11.537  11.792
33814SOL    HW1 3339   7.014  11.615  11.848
33814SOL    HW2 3340   6.989  11.466  11.849
33815SOL     OW 3341   7.933   8.233  12.852
33815SOL    HW1 3342   7.999   8.164  12.841
33815SOL    HW2 3343   7.982   8.314  12.838
33816SOL     OW 3344   2.664  11.649  12.195
33816SOL    HW1 3345   2.665  11.580  12.261
33816SOL    HW2 3346   2.648  11.604  12.112
33817SOL     OW 3347   7.228   8.983  14.613
33817SOL    HW1 3348   7.317   8.977  14.646
33817SOL    HW2 3349   7.174   8.941  14.681
33818SOL     OW 3350   2.615   0.230  10.954
33818SOL    HW1 3351   2.606   0.324  10.971
33818SOL    HW2 3352   2.684   0.225  10.888
33819SOL     OW 3353   9.876   2.762  14.729
33819SOL    HW1 3354   9.781   2.758  14.741
33819SOL    HW2 3355   9.892   2.852  14.701
33820SOL     OW 3356   0.218   7.987   3.218
33820SOL    HW1 3357   0.228   8.003   3.312
33820SOL    HW2 3358   0.165   8.061   3.187
33821SOL     OW 3359  12.125   3.474  10.859
33821SOL    HW1 3360  12.104   3.520  10.777
33821SOL    HW2 3361  12.160   3.390  10.831
33822SOL     OW 3362   4.525   4.404  13.012
33822SOL    HW1 3363   4.466   4.478  13.001
33822SOL    HW2 3364   4.613   4.440  12.997
33823SOL     OW 3365  10.009  11.510   8.695
33823SOL    HW1 3366  10.035  11.598   8.668
33823SOL    HW2 3367  10.062  11.451   8.640
33824SOL     OW 3368  11.335   7.493   4.098
33824SOL    HW1 3369  11.324   7.587   4.113
33824SOL    HW2 3370  11.304   7.479   4.009
33825SOL     OW 3371   8.313  14.059   8.410
33825SOL    HW1 3372   8.286  13.968   8.395
33825SOL    HW2 3373   8.342  14.090   8.324
33826SOL     OW 3374  10.247   9.148  12.473
33826SOL    HW1 3375  10.228   9.144  12.379
33826SOL    HW2 3376  10.165   9.119  12.515
33827SOL     OW 3377   4.001  12.238  10.388
33827SOL    HW1 3378   3.924  12.204  10.433
33827SOL    HW2 3379   4.000  12.332  10.406
33828SOL     OW 3380   6.173   2.132  10.851
33828SOL    HW1 3381   6.156   2.038  10.840
33828SOL    HW2 3382   6.142   2.172  10.770
33829SOL     OW 3383  12.669  11.558   5.999
33829SOL    HW1 3384  12.600  11.493   5.987
33829SOL    HW2 3385  12.723  11.523   6.070
33830SOL     OW 3386  12.797   7.375   2.172
33830SOL    HW1 3387  12.708   7.347   2.152
33830SOL    HW2 3388  12.852   7.328   2.110
33831SOL     OW 3389  11.507   1.343   5.673
33831SOL    HW1 3390  11.436   1.329   5.610
33831SOL    HW2 3391  11.587   1.332   5.621
33832SOL     OW 3392   2.136  10.144   4.044
33832SOL    HW1 3393   2.155  10.191   3.963
33832SOL    HW2 3394   2.145  10.210   4.113
33833SOL     OW 3395   7.913  12.922  10.881
33833SOL    HW1 3396   7.946  12.866  10.810
33833SOL    HW2 3397   7.927  13.011  10.851
33834SOL     OW 3398   9.054  13.141  13.883
33834SOL    HW1 3399   9.029  13.049  13.891
33834SOL    HW2 3400   9.080  13.166  13.972
33835SOL     OW 3401  11.555   7.078   9.367
33835SOL    HW1 3402  11.606   7.105   9.444
33835SOL    HW2 3403  11.496   7.010   9.400
33836SOL     OW 3404   4.312   5.600   2.511
33836SOL    HW1 3405   4.257   5.583   2.434
33836SOL    HW2 3406   4.395   5.557   2.490
33837SOL     OW 3407  13.976   8.796   0.333
33837SOL    HW1 3408  14.008   8.744   0.407
33837SOL    HW2 3409  14.056   8.822   0.286
33838SOL     OW 3410  10.500  13.449   2.577
33838SOL    HW1 3411  10.544  13.515   2.522
33838SOL    HW2 3412  10.433  13.498   2.624
33839SOL     OW 3413  12.851   6.592  10.960
33839SOL    HW1 3414  12.809   6.584  11.045
33839SOL    HW2 3415  12.856   6.686  10.944
33840SOL     OW 3416  10.128  13.268  11.824
33840SOL    HW1 3417  10.079  13.199  11.779
33840SOL    HW2 3418  10.120  13.245  11.917
33841SOL     OW 3419  11.700   2.018   2.075
33841SOL    HW1 3420  11.629   2.082   2.069
33841SOL    HW2 3421  11.764   2.059   2.133
33842SOL     OW 3422   6.789  10.398  10.005
33842SOL    HW1 3423   6.763  10.488  10.021
33842SOL    HW2 3424   6.757  10.379   9.916
33843SOL     OW 3425   2.285  13.420   1.301
33843SOL    HW1 3426   2.365  13.442   1.252
33843SOL    HW2 3427   2.283  13.325   1.302
33844SOL     OW 3428   1.854  11.036  13.405
33844SOL    HW1 3429   1.938  11.082  13.402
33844SOL    HW2 3430   1.863  10.975  13.478
33845SOL     OW 3431  14.440  10.805   9.662
33845SOL    HW1 3432  14.407  10.857   9.589
33845SOL    HW2 3433  14.383  10.827   9.736
33846SOL     OW 3434  11.659   1.057   5.722
33846SOL    HW1 3435  11.681   1.077   5.631
33846SOL    HW2 3436  11.744   1.042   5.764
33847SOL     OW 3437   6.689   7.689   7.930
33847SOL    HW1 3438   6.735   7.771   7.952
33847SOL    HW2 3439   6.597   7.714   7.927
33848SOL     OW 3440   3.073  12.753   1.683
33848SOL    HW1 3441   3.148  12.791   1.727
33848SOL    HW2 3442   3.088  12.771   1.590
33849SOL     OW 3443  11.630   0.578  10.411
33849SOL    HW1 3444  11.628   0.554  10.503
33849SOL    HW2 3445  11.620   0.495  10.364
33850SOL     OW 3446  12.468  11.282  12.921
33850SOL    HW1 3447  12.488  11.218  12.853
33850SOL    HW2 3448  12.380  11.258  12.952
33851SOL     OW 3449   1.401  12.154   5.066
33851SOL    HW1 3450   1.328  12.206   5.031
33851SOL    HW2 3451   1.479  12.193   5.026
33852SOL     OW 3452   5.917  12.387  12.353
33852SOL    HW1 3453   5.943  12.298  12.329
33852SOL    HW2 3454   5.948  12.399  12.442
33853SOL     OW 3455   2.390  10.097  10.120
33853SOL    HW1 3456   2.325  10.168  10.119
33853SOL    HW2 3457   2.415  10.087  10.028
33854SOL     OW 3458   1.621   8.744   1.398
33854SOL    HW1 3459   1.678   8.821   1.391
33854SOL    HW2 3460   1.663   8.688   1.462
33855SOL     OW 3461  11.753   1.412   9.396
33855SOL    HW1 3462  11.741   1.503   9.369
33855SOL    HW2 3463  11.757   1.416   9.492
33856SOL     OW 3464   5.792   4.692   5.559
33856SOL    HW1 3465   5.732   4.617   5.568
33856SOL    HW2 3466   5.789   4.714   5.466
33857SOL     OW 3467   8.582   2.248  14.847
33857SOL    HW1 3468   8.533   2.189  14.790
33857SOL    HW2 3469   8.644   2.291  14.788
33858SOL     OW 3470   8.793  14.421  13.391
33858SOL    HW1 3471   8.874  14.375  13.414
33858SOL    HW2 3472   8.812  14.462  13.307
33859SOL     OW 3473   9.012   7.381   9.999
33859SOL    HW1 3474   9.020   7.330  10.079
33859SOL    HW2 3475   8.918   7.394   9.989
33860SOL     OW 3476   4.195   7.070   4.446
33860SOL    HW1 3477   4.146   7.004   4.495
33860SOL    HW2 3478   4.208   7.141   4.509
33861SOL     OW 3479  10.911   2.187   3.822
33861SOL    HW1 3480  10.896   2.143   3.738
33861SOL    HW2 3481  10.994   2.151   3.854
33862SOL     OW 3482  14.326  13.833  13.602
33862SOL    HW1 3483  14.272  13.790  13.668
33862SOL    HW2 3484  14.379  13.896  13.652
33863SOL     OW 3485   7.590   7.964   8.698
33863SOL    HW1 3486   7.529   8.037   8.685
33863SOL    HW2 3487   7.541   7.887   8.670
33864SOL     OW 3488  14.181   8.921   6.366
33864SOL    HW1 3489  14.276   8.922   6.356
33864SOL    HW2 3490  14.150   8.861   6.299
33865SOL     OW 3491  10.115  12.316   0.909
33865SOL    HW1 3492  10.164  12.398   0.898
33865SOL    HW2 3493  10.161  12.254   0.852
33866SOL     OW 3494   9.241   2.747   2.959
33866SOL    HW1 3495   9.206   2.832   2.934
33866SOL    HW2 3496   9.217   2.689   2.886
33867SOL     OW 3497  11.225  11.759  10.111
33867SOL    HW1 3498  11.227  11.841  10.060
33867SOL    HW2 3499  11.281  11.699  10.061
33868SOL     OW 3500   4.943   9.548   6.228
33868SOL    HW1 3501   4.977   9.610   6.293
33868SOL    HW2 3502   5.007   9.552   6.157
33869SOL     OW 3503  12.257   8.991   7.157
33869SOL    HW1 3504  12.309   9.030   7.088
33869SOL    HW2 3505  12.179   8.956   7.113
33870SOL     OW 3506   8.903  11.194   8.369
33870SOL    HW1 3507   8.955  11.152   8.301
33870SOL    HW2 3508   8.812  11.188   8.338
33871SOL     OW 3509   3.335   2.655   1.087
33871SOL    HW1 3510   3.261   2.653   1.027
33871SOL    HW2 3511   3.302   2.701   1.164
33872SOL     OW 3512   3.862   6.142   0.195
33872SOL    HW1 3513   3.812   6.168   0.118
33872SOL    HW2 3514   3.953   6.139   0.165
33873SOL     OW 3515   2.399  11.757   0.626
33873SOL    HW1 3516   2.336  11.716   0.566
33873SOL    HW2 3517   2.478  11.704   0.618
33874SOL     OW 3518   5.717   1.291  12.257
33874SOL    HW1 3519   5.664   1.337  12.323
33874SOL    HW2 3520   5.673   1.308  12.174
33875SOL     OW 3521  14.678  12.756  14.588
33875SOL    HW1 3522  14.681  12.673  14.540
33875SOL    HW2 3523  14.669  12.730  14.680
33876SOL     OW 3524   7.755   8.809  13.988
33876SOL    HW1 3525   7.761   8.780  13.897
33876SOL    HW2 3526   7.663   8.797  14.012
33877SOL     OW 3527  13.552   9.427   8.263
33877SOL    HW1 3528  13.578   9.468   8.181
33877SOL    HW2 3529  13.522   9.340   8.238
33878SOL     OW 3530   9.968   3.002   0.327
33878SOL    HW1 3531  10.050   2.997   0.280
33878SOL    HW2 3532   9.961   2.919   0.373
33879SOL     OW 3533   4.040   6.782   4.869
33879SOL    HW1 3534   4.121   6.792   4.919
33879SOL    HW2 3535   4.069   6.770   4.779
33880SOL     OW 3536   7.798   5.736   2.361
33880SOL    HW1 3537   7.805   5.680   2.439
33880SOL    HW2 3538   7.709   5.773   2.367
33881SOL     OW 3539  13.411   9.862   6.243
33881SOL    HW1 3540  13.411   9.858   6.339
33881SOL    HW2 3541  13.325   9.828   6.218
33882SOL     OW 3542  11.519  10.482  11.041
33882SOL    HW1 3543  11.542  10.395  11.071
33882SOL    HW2 3544  11.558  10.541  11.105
33883SOL     OW 3545  10.841   3.236   7.138
33883SOL    HW1 3546  10.905   3.276   7.080
33883SOL    HW2 3547  10.783   3.308   7.164
33884SOL     OW 3548  14.557   7.601   4.520
33884SOL    HW1 3549  14.496   7.528   4.511
33884SOL    HW2 3550  14.538   7.638   4.607
33885SOL     OW 3551   6.838  10.128   4.642
33885SOL    HW1 3552   6.812  10.203   4.588
33885SOL    HW2 3553   6.756  10.095   4.679
33886SOL     OW 3554  11.929   0.971   0.935
33886SOL    HW1 3555  11.935   0.882   0.969
33886SOL    HW2 3556  12.014   0.987   0.894
33887SOL     OW 3557   6.159   4.994  13.771
33887SOL    HW1 3558   6.192   5.001  13.861
33887SOL    HW2 3559   6.158   4.900  13.753
33888SOL     OW 3560   9.095   3.699   0.334
33888SOL    HW1 3561   9.156   3.629   0.312
33888SOL    HW2 3562   9.026   3.655   0.383
33889SOL     OW 3563   9.249  10.362   2.189
33889SOL    HW1 3564   9.316  10.388   2.252
33889SOL    HW2 3565   9.166  10.376   2.235
33890SOL     OW 3566   9.446   8.279  10.200
33890SOL    HW1 3567   9.493   8.197  10.211
33890SOL    HW2 3568   9.403   8.271  10.115
33891SOL     OW 3569   9.665   4.870  11.243
33891SOL    HW1 3570   9.724   4.893  11.315
33891SOL    HW2 3571   9.605   4.805  11.281
33892SOL     OW 3572   9.940   0.007  12.831
33892SOL    HW1 3573   9.970  14.791  12.832
33892SOL    HW2 3574  10.020   0.058  12.845
33893SOL     OW 3575   4.458   5.732  14.769
33893SOL    HW1 3576   4.435   5.789  14.842
33893SOL    HW2 3577   4.377   5.725  14.718
33894SOL     OW 3578  13.535   6.314   4.091
33894SOL    HW1 3579  13.567   6.227   4.113
33894SOL    HW2 3580  13.610   6.357   4.050
33895SOL     OW 3581  12.666   0.326   7.484
33895SOL    HW1 3582  12.710   0.242   7.473
33895SOL    HW2 3583  12.575   0.309   7.462
33896SOL     OW 3584   1.467  10.054   5.505
33896SOL    HW1 3585   1.419  10.112   5.446
33896SOL    HW2 3586   1.535  10.109   5.542
33897SOL     OW 3587   7.911   9.250   0.115
33897SOL    HW1 3588   7.947   9.251   0.027
33897SOL    HW2 3589   7.853   9.326   0.118
33898SOL     OW 3590   4.846   0.390   4.535
33898SOL    HW1 3591   4.764   0.343   4.550
33898SOL    HW2 3592   4.824   0.461   4.476
33899SOL     OW 3593   3.491   5.031   0.169
33899SOL    HW1 3594   3.489   5.117   0.212
33899SOL    HW2 3595   3.539   4.975   0.230
33900SOL     OW 3596   8.462  12.287   4.922
33900SOL    HW1 3597   8.550  12.299   4.887
33900SOL    HW2 3598   8.473  12.292   5.017
33901SOL     OW 3599   6.083   9.224  11.733
33901SOL    HW1 3600   6.078   9.159  11.664
33901SOL    HW2 3601   6.090   9.308  11.687
33902SOL     OW 3602   1.433   3.925   9.124
33902SOL    HW1 3603   1.517   3.892   9.156
33902SOL    HW2 3604   1.456   4.003   9.073
33903SOL     OW 3605   2.298   3.091   1.595
33903SOL    HW1 3606   2.300   3.035   1.672
33903SOL    HW2 3607   2.385   3.081   1.556
33904SOL     OW 3608   2.862   2.922   6.454
33904SOL    HW1 3609   2.953   2.919   6.424
33904SOL    HW2 3610   2.861   2.990   6.522
33905SOL     OW 3611   7.460   9.228  10.060
33905SOL    HW1 3612   7.460   9.175  10.140
33905SOL    HW2 3613   7.523   9.298  10.077
33906SOL     OW 3614   6.585  12.908   4.528
33906SOL    HW1 3615   6.652  12.972   4.550
33906SOL    HW2 3616   6.602  12.885   4.437
33907SOL     OW 3617  13.070  11.132   9.622
33907SOL    HW1 3618  13.112  11.138   9.536
33907SOL    HW2 3619  13.110  11.203   9.673
33908SOL     OW 3620  14.534   0.213   9.627
33908SOL    HW1 3621  14.616   0.226   9.674
33908SOL    HW2 3622  14.480   0.288   9.652
33909SOL     OW 3623   1.190   7.851   4.773
33909SOL    HW1 3624   1.239   7.769   4.780
33909SOL    HW2 3625   1.130   7.849   4.848
33910SOL     OW 3626  12.098  12.506  14.262
33910SOL    HW1 3627  12.054  12.461  14.190
33910SOL    HW2 3628  12.122  12.436  14.324
33911SOL     OW 3629  14.713  11.816  10.360
33911SOL    HW1 3630  14.655  11.803  10.435
33911SOL    HW2 3631  14.690  11.746  10.299
33912SOL     OW 3632  14.717   1.690   2.845
33912SOL    HW1 3633  14.752   1.606   2.814
33912SOL    HW2 3634  14.626   1.670   2.867
33913SOL     OW 3635   6.811   6.254   8.960
33913SOL    HW1 3636   6.860   6.291   9.034
33913SOL    HW2 3637   6.814   6.323   8.893
33914SOL     OW 3638   7.597   0.963   9.789
33914SOL    HW1 3639   7.523   0.932   9.842
33914SOL    HW2 3640   7.668   0.903   9.809
33915SOL     OW 3641   0.048  10.399   8.359
33915SOL    HW1 3642   0.017  10.470   8.415
33915SOL    HW2 3643   0.027  10.428   8.270
33916SOL     OW 3644  10.122   0.794   9.262
33916SOL    HW1 3645  10.042   0.835   9.297
33916SOL    HW2 3646  10.099   0.771   9.172
33917SOL     OW 3647   7.862  12.001   0.842
33917SOL    HW1 3648   7.778  12.045   0.853
33917SOL    HW2 3649   7.865  11.977   0.749
33918SOL     OW 3650  12.999   7.005   4.809
33918SOL    HW1 3651  12.913   6.975   4.778
33918SOL    HW2 3652  13.058   6.933   4.788
33919SOL     OW 3653   6.816  11.655   4.923
33919SOL    HW1 3654   6.803  11.736   4.874
33919SOL    HW2 3655   6.838  11.589   4.857
33920SOL     OW 3656  13.977  10.419  14.092
33920SOL    HW1 3657  13.906  10.358  14.113
33920SOL    HW2 3658  13.933  10.501  14.072
33921SOL     OW 3659   0.094  14.497   0.483
33921SOL    HW1 3660   0.013  14.473   0.529
33921SOL    HW2 3661   0.068  14.501   0.391
33922SOL     OW 3662   2.607   3.552  14.485
33922SOL    HW1 3663   2.535   3.542  14.547
33922SOL    HW2 3664   2.664   3.618  14.525
33923SOL     OW 3665  11.744   1.034   6.343
33923SOL    HW1 3666  11.839   1.046   6.346
33923SOL    HW2 3667  11.718   1.015   6.433
33924SOL     OW 3668  10.032   2.533  12.005
33924SOL    HW1 3669   9.959   2.478  11.977
33924SOL    HW2 3670  10.026   2.611  11.949
33925SOL     OW 3671   0.898   4.225  12.025
33925SOL    HW1 3672   0.972   4.233  11.964
33925SOL    HW2 3673   0.826   4.271  11.981
33926SOL     OW 3674   0.264   8.193   7.590
33926SOL    HW1 3675   0.210   8.124   7.627
33926SOL    HW2 3676   0.215   8.274   7.607
33927SOL     OW 3677   2.014  10.456   5.181
33927SOL    HW1 3678   1.969  10.394   5.239
33927SOL    HW2 3679   2.107  10.445   5.201
33928SOL     OW 3680   5.923  14.475   8.889
33928SOL    HW1 3681   5.837  14.474   8.848
33928SOL    HW2 3682   5.979  14.523   8.827
33929SOL     OW 3683   6.942   3.460   7.702
33929SOL    HW1 3684   6.854   3.490   7.724
33929SOL    HW2 3685   6.990   3.459   7.785
33930SOL     OW 3686   2.139  13.440  12.962
33930SOL    HW1 3687   2.133  13.532  12.938
33930SOL    HW2 3688   2.205  13.404  12.902
33931SOL     OW 3689   2.667   4.243   0.190
33931SOL    HW1 3690   2.623   4.299   0.126
33931SOL    HW2 3691   2.620   4.160   0.187
33932SOL     OW 3692   2.693   0.285   5.563
33932SOL    HW1 3693   2.652   0.356   5.513
33932SOL    HW2 3694   2.787   0.303   5.557
33933SOL     OW 3695   2.552   2.183  11.632
33933SOL    HW1 3696   2.623   2.247  11.635
33933SOL    HW2 3697   2.529   2.176  11.540
33934SOL     OW 3698  13.749  11.558  10.553
33934SOL    HW1 3699  13.738  11.471  10.514
33934SOL    HW2 3700  13.740  11.619  10.480
33935SOL     OW 3701   6.057  11.255   0.042
33935SOL    HW1 3702   6.060  11.285  14.826
33935SOL    HW2 3703   6.102  11.324   0.091
33936SOL     OW 3704  14.378   7.799   6.579
33936SOL    HW1 3705  14.298   7.826   6.622
33936SOL    HW2 3706  14.443   7.795   6.649
33937SOL     OW 3707   1.208   8.200   9.574
33937SOL    HW1 3708   1.115   8.192   9.595
33937SOL    HW2 3709   1.222   8.137   9.504
33938SOL     OW 3710   9.555  10.197   1.829
33938SOL    HW1 3711   9.626  10.188   1.767
33938SOL    HW2 3712   9.492  10.255   1.785
33939SOL     OW 3713  14.838  14.123  14.772
33939SOL    HW1 3714   0.053  14.134  14.801
33939SOL    HW2 3715  14.833  14.172  14.691
33940SOL     OW 3716   9.141   5.060   0.401
33940SOL    HW1 3717   9.162   4.968   0.389
33940SOL    HW2 3718   9.175   5.082   0.488
33941SOL     OW 3719  11.179   1.832  12.486
33941SOL    HW1 3720  11.116   1.900  12.509
33941SOL    HW2 3721  11.131   1.750  12.500
33942SOL     OW 3722   9.088  12.848   9.021
33942SOL    HW1 3723   9.151  12.776   9.021
33942SOL    HW2 3724   9.078  12.871   9.113
33943SOL     OW 3725  14.582  13.188   1.332
33943SOL    HW1 3726  14.505  13.131   1.327
33943SOL    HW2 3727  14.639  13.157   1.262
33944SOL     OW 3728   3.384  14.425   2.133
33944SOL    HW1 3729   3.290  14.436   2.125
33944SOL    HW2 3730   3.422  14.491   2.075
33945SOL     OW 3731   3.775   3.102   3.528
33945SOL    HW1 3732   3.762   3.009   3.547
33945SOL    HW2 3733   3.754   3.110   3.435
33946SOL     OW 3734   2.089   6.460  13.640
33946SOL    HW1 3735   2.084   6.410  13.722
33946SOL    HW2 3736   2.085   6.551  13.668
33947SOL     OW 3737   3.963   8.173   9.866
33947SOL    HW1 3738   3.986   8.083   9.841
33947SOL    HW2 3739   3.876   8.187   9.828
33948SOL     OW 3740   6.332  14.060   5.036
33948SOL    HW1 3741   6.407  14.105   4.997
33948SOL    HW2 3742   6.316  14.106   5.118
33949SOL     OW 3743   9.286  10.889   7.707
33949SOL    HW1 3744   9.341  10.929   7.774
33949SOL    HW2 3745   9.253  10.962   7.656
33950SOL     OW 3746   8.762  10.557   4.123
33950SOL    HW1 3747   8.849  10.577   4.086
33950SOL    HW2 3748   8.776  10.481   4.179
33951SOL     OW 3749   7.703  12.360   6.939
33951SOL    HW1 3750   7.752  12.390   6.862
33951SOL    HW2 3751   7.764  12.305   6.987
33952SOL     OW 3752   6.547  11.008   7.920
33952SOL    HW1 3753   6.521  10.941   7.857
33952SOL    HW2 3754   6.638  10.986   7.943
33953SOL     OW 3755   4.268   9.050   6.578
33953SOL    HW1 3756   4.175   9.050   6.600
33953SOL    HW2 3757   4.306   9.114   6.638
33954SOL     OW 3758   0.881   6.813   8.408
33954SOL    HW1 3759   0.822   6.889   8.407
33954SOL    HW2 3760   0.894   6.796   8.501
33955SOL     OW 3761   7.342  14.822  14.404
33955SOL    HW1 3762   7.400   0.003  14.353
33955SOL    HW2 3763   7.254  14.841  14.371
33956SOL     OW 3764  10.690   4.115   6.407
33956SOL    HW1 3765  10.714   4.207   6.405
33956SOL    HW2 3766  10.728   4.078   6.328
33957SOL     OW 3767   8.231   1.247  12.049
33957SOL    HW1 3768   8.217   1.308  11.977
33957SOL    HW2 3769   8.171   1.277  12.117
33958SOL     OW 3770  10.124   7.320   0.207
33958SOL    HW1 3771  10.079   7.379   0.146
33958SOL    HW2 3772  10.091   7.345   0.293
33959SOL     OW 3773  14.489   8.958   5.621
33959SOL    HW1 3774  14.508   8.865   5.635
33959SOL    HW2 3775  14.401   8.971   5.655
33960SOL     OW 3776   0.914   6.948   6.310
33960SOL    HW1 3777   0.917   6.915   6.220
33960SOL    HW2 3778   0.889   7.040   6.301
33961SOL     OW 3779   9.776  14.480   0.326
33961SOL    HW1 3780   9.795  14.523   0.409
33961SOL    HW2 3781   9.746  14.393   0.351
33962SOL     OW 3782  14.182   4.216  14.244
33962SOL    HW1 3783  14.167   4.149  14.310
33962SOL    HW2 3784  14.113   4.281  14.260
33963SOL     OW 3785  14.829   5.127   9.393
33963SOL    HW1 3786   0.048   5.115   9.406
33963SOL    HW2 3787  14.821   5.173   9.309
33964SOL     OW 3788   6.535  12.440   0.702
33964SOL    HW1 3789   6.489  12.515   0.665
33964SOL    HW2 3790   6.531  12.373   0.633
33965SOL     OW 3791   7.610   6.218   2.195
33965SOL    HW1 3792   7.624   6.210   2.100
33965SOL    HW2 3793   7.672   6.157   2.234
33966SOL     OW 3794   5.446   4.953   1.157
33966SOL    HW1 3795   5.490   4.907   1.085
33966SOL    HW2 3796   5.502   5.028   1.174
33967SOL     OW 3797   9.690  10.520  11.948
33967SOL    HW1 3798   9.775  10.552  11.976
33967SOL    HW2 3799   9.698  10.425  11.948
33968SOL     OW 3800  11.294   4.786  10.621
33968SOL    HW1 3801  11.238   4.856  10.652
33968SOL    HW2 3802  11.293   4.794  10.526
33969SOL     OW 3803   0.118   5.314   6.863
33969SOL    HW1 3804   0.131   5.240   6.804
33969SOL    HW2 3805   0.085   5.276   6.944
33970SOL     OW 3806  13.669   6.409   2.591
33970SOL    HW1 3807  13.600   6.400   2.525
33970SOL    HW2 3808  13.622   6.436   2.670
33971SOL     OW 3809   3.888   6.010   6.588
33971SOL    HW1 3810   3.860   6.025   6.498
33971SOL    HW2 3811   3.816   5.964   6.629
33972SOL     OW 3812  14.645   4.146   2.760
33972SOL    HW1 3813  14.652   4.066   2.812
33972SOL    HW2 3814  14.705   4.132   2.687
33973SOL     OW 3815   8.636   2.219   6.628
33973SOL    HW1 3816   8.608   2.306   6.655
33973SOL    HW2 3817   8.667   2.177   6.708
33974SOL     OW 3818   7.287  12.033   3.318
33974SOL    HW1 3819   7.256  11.990   3.238
33974SOL    HW2 3820   7.367  11.985   3.341
33975SOL     OW 3821   3.493   8.369  11.389
33975SOL    HW1 3822   3.576   8.394  11.431
33975SOL    HW2 3823   3.457   8.301  11.445
33976SOL     OW 3824   1.580  11.445   1.757
33976SOL    HW1 3825   1.668  11.465   1.723
33976SOL    HW2 3826   1.583  11.472   1.849
33977SOL     OW 3827   3.550  13.811   0.891
33977SOL    HW1 3828   3.590  13.894   0.915
33977SOL    HW2 3829   3.456  13.827   0.892
33978SOL     OW 3830  13.138   6.033  11.336
33978SOL    HW1 3831  13.060   6.088  11.326
33978SOL    HW2 3832  13.174   6.057  11.421
33979SOL     OW 3833   7.270  11.257  13.565
33979SOL    HW1 3834   7.304  11.338  13.604
33979SOL    HW2 3835   7.178  11.276  13.548
33980SOL     OW 3836   7.187   4.741   2.469
33980SOL    HW1 3837   7.165   4.791   2.548
33980SOL    HW2 3838   7.105   4.699   2.444
33981SOL     OW 3839   3.618   8.263   2.337
33981SOL    HW1 3840   3.663   8.243   2.419
33981SOL    HW2 3841   3.567   8.184   2.318
33982SOL     OW 3842   7.071   7.126  10.694
33982SOL    HW1 3843   7.088   7.150  10.603
33982SOL    HW2 3844   7.132   7.055  10.712
33983SOL     OW 3845  11.852   9.972  11.052
33983SOL    HW1 3846  11.904  10.010  11.124
33983SOL    HW2 3847  11.826   9.886  11.085
33984SOL     OW 3848   8.531  13.128  10.348
33984SOL    HW1 3849   8.490  13.157  10.267
33984SOL    HW2 3850   8.603  13.189  10.363
33985SOL     OW 3851  11.024  13.887  14.309
33985SOL    HW1 3852  10.943  13.838  14.291
33985SOL    HW2 3853  10.995  13.962  14.361
33986SOL     OW 3854   7.697  10.534   4.982
33986SOL    HW1 3855   7.767  10.592   4.952
33986SOL    HW2 3856   7.739  10.449   4.992
33987SOL     OW 3857  13.755  10.598   8.454
33987SOL    HW1 3858  13.760  10.562   8.366
33987SOL    HW2 3859  13.827  10.660   8.460
33988SOL     OW 3860   1.332   0.460  13.838
33988SOL    HW1 3861   1.324   0.499  13.924
33988SOL    HW2 3862   1.379   0.378  13.853
33989SOL     OW 3863  14.576  12.376  11.845
33989SOL    HW1 3864  14.538  12.432  11.777
33989SOL    HW2 3865  14.598  12.436  11.916
33990SOL     OW 3866   8.054  14.484   7.879
33990SOL    HW1 3867   7.997  14.409   7.893
33990SOL    HW2 3868   8.118  14.455   7.814
33991SOL     OW 3869  10.743   3.054   3.618
33991SOL    HW1 3870  10.759   3.009   3.535
33991SOL    HW2 3871  10.665   3.012   3.653
33992SOL     OW 3872   0.633  14.572   3.082
33992SOL    HW1 3873   0.547  14.600   3.114
33992SOL    HW2 3874   0.676  14.653   3.055
33993SOL     OW 3875   7.218   2.008   9.025
33993SOL    HW1 3876   7.144   2.020   9.085
33993SOL    HW2 3877   7.182   2.027   8.939
33994SOL     OW 3878   1.958  14.085   8.596
33994SOL    HW1 3879   1.897  14.032   8.647
33994SOL    HW2 3880   1.902  14.142   8.544
33995SOL     OW 3881   7.979   2.225  14.529
33995SOL    HW1 3882   7.949   2.216  14.619
33995SOL    HW2 3883   7.902   2.206  14.476
33996SOL     OW 3884   7.647   8.327  13.747
33996SOL    HW1 3885   7.702   8.304  13.672
33996SOL    HW2 3886   7.579   8.384  13.710
33997SOL     OW 3887   7.532  14.150  13.779
33997SOL    HW1 3888   7.608  14.199  13.810
33997SOL    HW2 3889   7.499  14.202  13.706
33998SOL     OW 3890  13.274  14.829  10.804
33998SOL    HW1 3891  13.226  14.815  10.722
33998SOL    HW2 3892  13.309  14.742  10.826
33999SOL     OW 3893   7.416   7.839  10.890
33999SOL    HW1 3894   7.333   7.793  10.905
33999SOL    HW2 3895   7.436   7.880  10.974
34000SOL     OW 3896   7.632  12.415   3.422
34000SOL    HW1 3897   7.660  12.493   3.469
34000SOL    HW2 3898   7.667  12.342   3.474
34001SOL     OW 3899   7.017   7.657   3.522
34001SOL    HW1 3900   7.110   7.635   3.532
34001SOL    HW2 3901   6.971   7.579   3.551
34002SOL     OW 3902   8.849  11.211  14.286
34002SOL    HW1 3903   8.844  11.256  14.370
34002SOL    HW2 3904   8.926  11.154  14.293
34003SOL     OW 3905   7.824  13.921   1.899
34003SOL    HW1 3906   7.785  14.008   1.889
34003SOL    HW2 3907   7.909  13.936   1.939
34004SOL     OW 3908   6.169   9.032   1.763
34004SOL    HW1 3909   6.184   8.959   1.824
34004SOL    HW2 3910   6.165   9.109   1.820
34005SOL     OW 3911  12.705   5.934   5.412
34005SOL    HW1 3912  12.685   5.955   5.320
34005SOL    HW2 3913  12.633   5.973   5.461
34006SOL     OW 3914   9.024   8.132   3.669
34006SOL    HW1 3915   8.952   8.181   3.629
34006SOL    HW2 3916   9.059   8.079   3.597
34007SOL     OW 3917   7.419   9.133  10.303
34007SOL    HW1 3918   7.343   9.126  10.361
34007SOL    HW2 3919   7.494   9.133  10.363
34008SOL     OW 3920  10.315  14.595   9.366
34008SOL    HW1 3921  10.299  14.531   9.435
34008SOL    HW2 3922  10.338  14.675   9.412
34009SOL     OW 3923   0.963   5.068   5.691
34009SOL    HW1 3924   0.964   5.146   5.747
34009SOL    HW2 3925   1.010   5.001   5.741
34010SOL     OW 3926   5.715   1.870  13.408
34010SOL    HW1 3927   5.710   1.872  13.503
34010SOL    HW2 3928   5.650   1.935  13.379
34011SOL     OW 3929   0.833   3.234  14.019
34011SOL    HW1 3930   0.845   3.256  14.111
34011SOL    HW2 3931   0.878   3.151  14.007
34012SOL     OW 3932   9.229   5.647  12.865
34012SOL    HW1 3933   9.210   5.593  12.943
34012SOL    HW2 3934   9.287   5.592  12.812
34013SOL     OW 3935  13.182   7.612  11.176
34013SOL    HW1 3936  13.175   7.594  11.270
34013SOL    HW2 3937  13.276   7.605  11.157
34014SOL     OW 3938   1.248   3.251   7.622
34014SOL    HW1 3939   1.334   3.273   7.588
34014SOL    HW2 3940   1.259   3.246   7.717
34015SOL     OW 3941   6.185  13.036  14.778
34015SOL    HW1 3942   6.258  12.989  14.819
34015SOL    HW2 3943   6.116  12.971  14.770
34016SOL     OW 3944   1.734  11.662   6.108
34016SOL    HW1 3945   1.642  11.634   6.105
34016SOL    HW2 3946   1.735  11.734   6.171
34017SOL     OW 3947  11.491  14.734   2.139
34017SOL    HW1 3948  11.480  14.641   2.154
34017SOL    HW2 3949  11.560  14.761   2.199
34018SOL     OW 3950   2.749   9.275  14.508
34018SOL    HW1 3951   2.802   9.209  14.553
34018SOL    HW2 3952   2.712   9.229  14.432
34019SOL     OW 3953   1.256   4.796   1.638
34019SOL    HW1 3954   1.168   4.765   1.618
34019SOL    HW2 3955   1.243   4.887   1.665
34020SOL     OW 3956   5.135   9.465   8.105
34020SOL    HW1 3957   5.123   9.557   8.082
34020SOL    HW2 3958   5.125   9.418   8.022
34021SOL     OW 3959   3.637   7.963  10.566
34021SOL    HW1 3960   3.620   8.057  10.569
34021SOL    HW2 3961   3.596   7.930  10.646
34022SOL     OW 3962   2.035   0.700   0.681
34022SOL    HW1 3963   1.951   0.744   0.691
34022SOL    HW2 3964   2.022   0.639   0.609
34023SOL     OW 3965   4.363  14.356   9.213
34023SOL    HW1 3966   4.401  14.423   9.269
34023SOL    HW2 3967   4.335  14.403   9.135
34024SOL     OW 3968  13.401   3.297   6.951
34024SOL    HW1 3969  13.408   3.380   6.905
34024SOL    HW2 3970  13.398   3.230   6.882
34025SOL     OW 3971  10.728   6.335   2.897
34025SOL    HW1 3972  10.676   6.290   2.963
34025SOL    HW2 3973  10.665   6.363   2.831
34026SOL     OW 3974   6.748  11.775  10.716
34026SOL    HW1 3975   6.829  11.745  10.756
34026SOL    HW2 3976   6.775  11.835  10.647
34027SOL     OW 3977  10.787   3.844   2.387
34027SOL    HW1 3978  10.872   3.882   2.366
34027SOL    HW2 3979  10.801   3.749   2.380
34028SOL     OW 3980   1.924  10.362  13.001
34028SOL    HW1 3981   1.925  10.266  13.007
34028SOL    HW2 3982   1.999  10.384  12.946
34029SOL     OW 3983   0.554   5.308  11.618
34029SOL    HW1 3984   0.566   5.214  11.604
34029SOL    HW2 3985   0.465   5.325  11.586
34030SOL     OW 3986  10.973   7.509  14.219
34030SOL    HW1 3987  11.063   7.496  14.250
34030SOL    HW2 3988  10.925   7.433  14.253
34031SOL     OW 3989   4.781  13.600  12.589
34031SOL    HW1 3990   4.854  13.551  12.626
34031SOL    HW2 3991   4.762  13.556  12.506
34032SOL     OW 3992   5.280   4.570  12.603
34032SOL    HW1 3993   5.227   4.518  12.543
34032SOL    HW2 3994   5.370   4.554  12.577
34033SOL     OW 3995   7.676  12.382   6.386
34033SOL    HW1 3996   7.765  12.379   6.352
34033SOL    HW2 3997   7.650  12.474   6.380
34034SOL     OW 3998   0.191  12.544   6.786
34034SOL    HW1 3999   0.239  12.497   6.718
34034SOL    HW2 4000   0.130  12.480   6.822
34035SOL     OW 4001   6.431   5.449  12.901
34035SOL    HW1 4002   6.347   5.444  12.946
34035SOL    HW2 4003   6.410   5.484  12.814
34036SOL     OW 4004   8.964  13.765   0.230
34036SOL    HW1 4005   9.013  13.815   0.165
34036SOL    HW2 4006   9.027  13.748   0.300
34037SOL     OW 4007   1.552  13.382   5.472
34037SOL    HW1 4008   1.533  13.475   5.465
34037SOL    HW2 4009   1.576  13.355   5.384
34038SOL     OW 4010   1.620   1.163   6.094
34038SOL    HW1 4011   1.693   1.198   6.044
34038SOL    HW2 4012   1.660   1.117   6.168
34039SOL     OW 4013  10.502   0.915   4.164
34039SOL    HW1 4014  10.515   0.940   4.255
34039SOL    HW2 4015  10.407   0.915   4.152
34040SOL     OW 4016   0.144  13.119   0.790
34040SOL    HW1 4017   0.153  13.213   0.806
34040SOL    HW2 4018   0.197  13.103   0.712
34041SOL     OW 4019   7.362  13.021  11.761
34041SOL    HW1 4020   7.340  13.039  11.852
34041SOL    HW2 4021   7.309  12.945  11.738
34042SOL     OW 4022   3.665   4.923   5.654
34042SOL    HW1 4023   3.602   4.898   5.721
34042SOL    HW2 4024   3.750   4.908   5.696
34043SOL     OW 4025   2.736   9.135   6.180
34043SOL    HW1 4026   2.730   9.208   6.119
34043SOL    HW2 4027   2.798   9.074   6.139
34044SOL     OW 4028  14.071   7.507   7.155
34044SOL    HW1 4029  14.067   7.552   7.070
34044SOL    HW2 4030  14.116   7.425   7.136
34045SOL     OW 4031  11.204   9.730   0.668
34045SOL    HW1 4032  11.245   9.705   0.750
34045SOL    HW2 4033  11.112   9.744   0.690
34046SOL     OW 4034   3.666  14.182   7.838
34046SOL    HW1 4035   3.705  14.265   7.867
34046SOL    HW2 4036   3.656  14.132   7.918
34047SOL     OW 4037   0.720   1.910   6.603
34047SOL    HW1 4038   0.807   1.950   6.597
34047SOL    HW2 4039   0.665   1.978   6.643
34048SOL     OW 4040   2.304  14.729   3.000
34048SOL    HW1 4041   2.242  14.802   2.990
34048SOL    HW2 4042   2.380  14.755   2.948
34049SOL     OW 4043   7.686   8.600   5.167
34049SOL    HW1 4044   7.733   8.664   5.113
34049SOL    HW2 4045   7.698   8.631   5.256
34050SOL     OW 4046   0.074   2.468  13.451
34050SOL    HW1 4047   0.132   2.454  13.526
34050SOL    HW2 4048   0.134   2.477  13.377
34051SOL     OW 4049   4.731   1.092   9.205
34051SOL    HW1 4050   4.721   1.105   9.111
34051SOL    HW2 4051   4.646   1.059   9.234
34052SOL     OW 4052  11.396   5.474   1.874
34052SOL    HW1 4053  11.315   5.485   1.923
34052SOL    HW2 4054  11.376   5.507   1.786
34053SOL     OW 4055  12.620   2.223   0.482
34053SOL    HW1 4056  12.538   2.212   0.530
34053SOL    HW2 4057  12.651   2.134   0.467
34054SOL     OW 4058   1.759  13.502   5.804
34054SOL    HW1 4059   1.673  13.470   5.776
34054SOL    HW2 4060   1.784  13.442   5.875
34055SOL     OW 4061   7.428   3.054   5.815
34055SOL    HW1 4062   7.502   2.994   5.806
34055SOL    HW2 4063   7.354   2.998   5.839
34056SOL     OW 4064  12.112   6.946   8.753
34056SOL    HW1 4065  12.133   6.877   8.691
34056SOL    HW2 4066  12.029   6.982   8.722
34057SOL     OW 4067   5.520  12.970   9.030
34057SOL    HW1 4068   5.455  13.014   9.085
34057SOL    HW2 4069   5.540  13.033   8.961
34058SOL     OW 4070   3.279  11.745   2.024
34058SOL    HW1 4071   3.232  11.763   1.942
34058SOL    HW2 4072   3.211  11.727   2.088
34059SOL     OW 4073   3.095  10.257  12.754
34059SOL    HW1 4074   3.058  10.219  12.674
34059SOL    HW2 4075   3.043  10.336  12.770
34060SOL     OW 4076  11.583  10.558   3.842
34060SOL    HW1 4077  11.607  10.488   3.780
34060SOL    HW2 4078  11.489  10.548   3.854
34061SOL     OW 4079  12.610  10.491  13.467
34061SOL    HW1 4080  12.680  10.456  13.412
34061SOL    HW2 4081  12.611  10.585  13.450
34062SOL     OW 4082   3.675   5.893  11.983
34062SOL    HW1 4083   3.620   5.946  11.926
34062SOL    HW2 4084   3.764   5.907  11.950
34063SOL     OW 4085  13.976  10.799   6.265
34063SOL    HW1 4086  13.893  10.768   6.301
34063SOL    HW2 4087  14.014  10.852   6.334
34064SOL     OW 4088   7.011   3.469  11.909
34064SOL    HW1 4089   6.955   3.523  11.853
34064SOL    HW2 4090   6.973   3.382  11.904
34065SOL     OW 4091   2.759   1.046   9.499
34065SOL    HW1 4092   2.813   1.067   9.423
34065SOL    HW2 4093   2.783   0.955   9.520
34066SOL     OW 4094  13.283   4.914   3.272
34066SOL    HW1 4095  13.360   4.918   3.328
34066SOL    HW2 4096  13.211   4.940   3.329
34067SOL     OW 4097   0.466  12.249   3.179
34067SOL    HW1 4098   0.556  12.239   3.147
34067SOL    HW2 4099   0.459  12.342   3.201
34068SOL     OW 4100   4.692   0.489   5.425
34068SOL    HW1 4101   4.665   0.530   5.507
34068SOL    HW2 4102   4.693   0.561   5.361
34069SOL     OW 4103   3.217  11.773  10.409
34069SOL    HW1 4104   3.151  11.719  10.453
34069SOL    HW2 4105   3.248  11.833  10.477
34070SOL     OW 4106   0.344  11.815   5.557
34070SOL    HW1 4107   0.324  11.747   5.492
34070SOL    HW2 4108   0.317  11.777   5.641
34071SOL     OW 4109   6.399   0.285   5.865
34071SOL    HW1 4110   6.449   0.217   5.911
34071SOL    HW2 4111   6.434   0.282   5.775
34072SOL     OW 4112   4.304   2.835  12.421
34072SOL    HW1 4113   4.217   2.874  12.420
34072SOL    HW2 4114   4.325   2.819  12.328
34073SOL     OW 4115  12.253   4.829   1.958
34073SOL    HW1 4116  12.265   4.903   2.017
34073SOL    HW2 4117  12.341   4.808   1.927
34074SOL     OW 4118   9.890  14.780   4.059
34074SOL    HW1 4119   9.801  14.753   4.079
34074SOL    HW2 4120   9.936  14.698   4.041
34075SOL     OW 4121  11.569  11.420   3.521
34075SOL    HW1 4122  11.540  11.510   3.538
34075SOL    HW2 4123  11.498  11.366   3.554
34076SOL     OW 4124   3.151  13.298  14.391
34076SOL    HW1 4125   3.201  13.344  14.459
34076SOL    HW2 4126   3.175  13.341  14.310
34077SOL     OW 4127  10.434   4.849   0.246
34077SOL    HW1 4128  10.387   4.932   0.256
34077SOL    HW2 4129  10.465   4.828   0.334
34078SOL     OW 4130   9.259   0.384  12.015
34078SOL    HW1 4131   9.227   0.451  12.075
34078SOL    HW2 4132   9.182   0.358  11.964
34079SOL     OW 4133   1.715   2.674   7.698
34079SOL    HW1 4134   1.706   2.583   7.670
34079SOL    HW2 4135   1.768   2.715   7.629
34080SOL     OW 4136   8.335   5.241   9.101
34080SOL    HW1 4137   8.389   5.214   9.027
34080SOL    HW2 4138   8.377   5.199   9.177
34081SOL     OW 4139  13.414  10.583   0.886
34081SOL    HW1 4140  13.388  10.611   0.798
34081SOL    HW2 4141  13.426  10.665   0.934
34082SOL     OW 4142  12.542   0.234   4.200
34082SOL    HW1 4143  12.493   0.194   4.272
34082SOL    HW2 4144  12.503   0.197   4.121
34083SOL     OW 4145   8.042   1.452   5.636
34083SOL    HW1 4146   8.117   1.501   5.670
34083SOL    HW2 4147   8.002   1.511   5.573
34084SOL     OW 4148  14.615  14.354   3.102
34084SOL    HW1 4149  14.691  14.357   3.045
34084SOL    HW2 4150  14.547  14.403   3.055
34085SOL     OW 4151   3.448  13.871  12.935
34085SOL    HW1 4152   3.438  13.870  12.840
34085SOL    HW2 4153   3.490  13.954  12.954
34086SOL     OW 4154  14.219   7.029   6.144
34086SOL    HW1 4155  14.264   7.000   6.223
34086SOL    HW2 4156  14.215   7.125   6.152
34087SOL     OW 4157   1.514   7.344   7.056
34087SOL    HW1 4158   1.526   7.254   7.026
34087SOL    HW2 4159   1.437   7.341   7.113
34088SOL     OW 4160  10.771  12.371  10.286
34088SOL    HW1 4161  10.776  12.462  10.317
34088SOL    HW2 4162  10.862  12.346  10.269
34089SOL     OW 4163   2.202  10.824   8.604
34089SOL    HW1 4164   2.153  10.875   8.540
34089SOL    HW2 4165   2.286  10.805   8.561
34090SOL     OW 4166   7.191   6.464  11.026
34090SOL    HW1 4167   7.152   6.523  10.961
34090SOL    HW2 4168   7.175   6.376  10.992
34091SOL     OW 4169  14.298  11.007  13.337
34091SOL    HW1 4170  14.389  11.030  13.317
34091SOL    HW2 4171  14.300  10.912  13.350
34092SOL     OW 4172  10.977   6.728   1.697
34092SOL    HW1 4173  10.947   6.819   1.695
34092SOL    HW2 4174  11.008   6.710   1.608
34093SOL     OW 4175   1.828  13.901   4.411
34093SOL    HW1 4176   1.904  13.854   4.447
34093SOL    HW2 4177   1.788  13.839   4.351
34094SOL     OW 4178   6.233   7.831  11.015
34094SOL    HW1 4179   6.323   7.859  11.002
34094SOL    HW2 4180   6.238   7.735  11.016
34095SOL     OW 4181   1.820   9.058  14.344
34095SOL    HW1 4182   1.894   9.003  14.318
34095SOL    HW2 4183   1.776   9.080  14.261
34096SOL     OW 4184  12.376   9.738   9.060
34096SOL    HW1 4185  12.432   9.807   9.095
34096SOL    HW2 4186  12.351   9.769   8.973
34097SOL     OW 4187  13.181   0.716  10.667
34097SOL    HW1 4188  13.164   0.771  10.590
34097SOL    HW2 4189  13.140   0.762  10.740
34098SOL     OW 4190   8.311   4.244   3.277
34098SOL    HW1 4191   8.240   4.291   3.234
34098SOL    HW2 4192   8.388   4.259   3.222
34099SOL     OW 4193  10.228   8.436   3.854
34099SOL    HW1 4194  10.285   8.368   3.891
34099SOL    HW2 4195  10.139   8.408   3.876
34100SOL     OW 4196  11.128  10.315   5.931
34100SOL    HW1 4197  11.124  10.391   5.988
34100SOL    HW2 4198  11.165  10.348   5.849
34101SOL     OW 4199  13.417   6.902   6.673
34101SOL    HW1 4200  13.441   6.967   6.607
34101SOL    HW2 4201  13.476   6.828   6.656
34102SOL     OW 4202   9.707   5.017   8.404
34102SOL    HW1 4203   9.672   5.077   8.470
34102SOL    HW2 4204   9.801   5.035   8.402
34103SOL     OW 4205  13.482   4.895  11.914
34103SOL    HW1 4206  13.406   4.920  11.966
34103SOL    HW2 4207  13.499   4.804  11.939
34104SOL     OW 4208  11.236  10.966  12.481
34104SOL    HW1 4209  11.323  10.988  12.513
34104SOL    HW2 4210  11.182  10.962  12.560
34105SOL     OW 4211   2.943  10.579   5.719
34105SOL    HW1 4212   2.951  10.673   5.704
34105SOL    HW2 4213   2.989  10.565   5.803
34106SOL     OW 4214   5.999  10.808  12.252
34106SOL    HW1 4215   6.062  10.879  12.255
34106SOL    HW2 4216   5.914  10.850  12.259
34107SOL     OW 4217   7.453   0.905  14.689
34107SOL    HW1 4218   7.469   0.986  14.737
34107SOL    HW2 4219   7.369   0.874  14.721
34108SOL     OW 4220   8.349   7.769  13.061
34108SOL    HW1 4221   8.370   7.823  12.985
34108SOL    HW2 4222   8.434   7.746  13.098
34109SOL     OW 4223  13.752   4.355   6.193
34109SOL    HW1 4224  13.769   4.344   6.287
34109SOL    HW2 4225  13.740   4.265   6.161
34110SOL     OW 4226   9.166   5.103   0.682
34110SOL    HW1 4227   9.078   5.096   0.719
34110SOL    HW2 4228   9.211   5.165   0.739
34111SOL     OW 4229  10.229   4.390   0.928
34111SOL    HW1 4230  10.307   4.442   0.907
34111SOL    HW2 4231  10.256   4.300   0.912
34112SOL     OW 4232   7.867   9.717  10.705
34112SOL    HW1 4233   7.814   9.742  10.628
34112SOL    HW2 4234   7.909   9.799  10.733
34113SOL     OW 4235   2.634   1.126   6.632
34113SOL    HW1 4236   2.637   1.044   6.582
34113SOL    HW2 4237   2.549   1.123   6.677
34114SOL     OW 4238   1.436  10.673   1.529
34114SOL    HW1 4239   1.504  10.718   1.479
34114SOL    HW2 4240   1.390  10.743   1.576
34115SOL     OW 4241  11.553   0.172   7.562
34115SOL    HW1 4242  11.461   0.163   7.588
34115SOL    HW2 4243  11.559   0.127   7.478
34116SOL     OW 4244   3.374   7.778   9.187
34116SOL    HW1 4245   3.358   7.846   9.252
34116SOL    HW2 4246   3.469   7.781   9.172
34117SOL     OW 4247   9.339   9.569   5.922
34117SOL    HW1 4248   9.357   9.618   6.002
34117SOL    HW2 4249   9.368   9.480   5.941
34118SOL     OW 4250   1.692   1.186  14.286
34118SOL    HW1 4251   1.704   1.222  14.374
34118SOL    HW2 4252   1.611   1.225  14.255
34119SOL     OW 4253  10.957   1.690   9.269
34119SOL    HW1 4254  10.915   1.772   9.242
34119SOL    HW2 4255  10.899   1.654   9.336
34120SOL     OW 4256  11.200   0.399   1.586
34120SOL    HW1 4257  11.268   0.340   1.616
34120SOL    HW2 4258  11.185   0.458   1.660
34121SOL     OW 4259   0.144   6.817  10.085
34121SOL    HW1 4260   0.124   6.763  10.162
34121SOL    HW2 4261   0.139   6.756  10.011
34122SOL     OW 4262   7.465  13.767   7.586
34122SOL    HW1 4263   7.480  13.731   7.499
34122SOL    HW2 4264   7.505  13.703   7.645
34123SOL     OW 4265  13.028   1.552  13.543
34123SOL    HW1 4266  13.104   1.606  13.522
34123SOL    HW2 4267  12.995   1.523  13.458
34124SOL     OW 4268  13.595   0.386  10.574
34124SOL    HW1 4269  13.533   0.319  10.601
34124SOL    HW2 4270  13.555   0.468  10.603
34125SOL     OW 4271   4.704   9.680   7.860
34125SOL    HW1 4272   4.791   9.647   7.880
34125SOL    HW2 4273   4.647   9.639   7.926
34126SOL     OW 4274   0.373   8.157   9.672
34126SOL    HW1 4275   0.348   8.149   9.764
34126SOL    HW2 4276   0.345   8.075   9.632
34127SOL     OW 4277   9.295   4.571   3.466
34127SOL    HW1 4278   9.380   4.553   3.426
34127SOL    HW2 4279   9.233   4.570   3.393
34128SOL     OW 4280  12.480  13.754   0.599
34128SOL    HW1 4281  12.545  13.705   0.549
34128SOL    HW2 4282  12.523  13.837   0.619
34129SOL     OW 4283   6.760   4.367   3.342
34129SOL    HW1 4284   6.761   4.448   3.290
34129SOL    HW2 4285   6.746   4.397   3.432
34130SOL     OW 4286   6.762   4.657   4.359
34130SOL    HW1 4287   6.703   4.702   4.298
34130SOL    HW2 4288   6.850   4.681   4.329
34131SOL     OW 4289   6.107   2.749  14.152
34131SOL    HW1 4290   6.178   2.690  14.127
34131SOL    HW2 4291   6.148   2.836  14.153
34132SOL     OW 4292   9.065   7.358  10.598
34132SOL    HW1 4293   9.068   7.293  10.528
34132SOL    HW2 4294   8.973   7.358  10.627
34133SOL     OW 4295   7.484  10.423  14.490
34133SOL    HW1 4296   7.558  10.477  14.460
34133SOL    HW2 4297   7.434  10.480  14.547
34134SOL     OW 4298  12.428   3.785  12.668
34134SOL    HW1 4299  12.338   3.752  12.665
34134SOL    HW2 4300  12.462   3.768  12.580
34135SOL     OW 4301  12.753  13.303   4.547
34135SOL    HW1 4302  12.772  13.259   4.631
34135SOL    HW2 4303  12.661  13.284   4.531
34136SOL     OW 4304  13.658   2.594   2.575
34136SOL    HW1 4305  13.649   2.635   2.661
34136SOL    HW2 4306  13.743   2.551   2.577
34137SOL     OW 4307  12.023  12.082  11.772
34137SOL    HW1 4308  11.962  12.060  11.842
34137SOL    HW2 4309  12.103  12.110  11.818
34138SOL     OW 4310  12.303   7.317   3.902
34138SOL    HW1 4311  12.270   7.301   3.990
34138SOL    HW2 4312  12.226   7.310   3.845
34139SOL     OW 4313  12.216   1.749  11.399
34139SOL    HW1 4314  12.294   1.721  11.448
34139SOL    HW2 4315  12.142   1.718  11.452
34140SOL     OW 4316   9.115   0.166  10.959
34140SOL    HW1 4317   9.049   0.153  10.891
34140SOL    HW2 4318   9.085   0.244  11.007
34141SOL     OW 4319  10.025   6.584   8.500
34141SOL    HW1 4320  10.120   6.579   8.494
34141SOL    HW2 4321  10.007   6.672   8.532
34142SOL     OW 4322   9.868   7.685   3.559
34142SOL    HW1 4323   9.905   7.605   3.596
34142SOL    HW2 4324   9.773   7.674   3.568
34143SOL     OW 4325   5.753   9.052  11.039
34143SOL    HW1 4326   5.689   9.049  10.968
34143SOL    HW2 4327   5.771   9.145  11.052
34144SOL     OW 4328   8.167  12.327   3.590
34144SOL    HW1 4329   8.197  12.275   3.665
34144SOL    HW2 4330   8.072  12.331   3.600
34145SOL     OW 4331  12.872   1.985   3.725
34145SOL    HW1 4332  12.837   2.074   3.727
34145SOL    HW2 4333  12.967   1.996   3.727
34146SOL     OW 4334  10.592   2.391   8.042
34146SOL    HW1 4335  10.533   2.403   7.967
34146SOL    HW2 4336  10.621   2.479   8.064
34147SOL     OW 4337   2.882   8.041  10.297
34147SOL    HW1 4338   2.971   8.006  10.299
34147SOL    HW2 4339   2.826   7.964  10.307
34148SOL     OW 4340   3.845   8.546   2.620
34148SOL    HW1 4341   3.921   8.601   2.639
34148SOL    HW2 4342   3.794   8.597   2.557
34149SOL     OW 4343   4.609  12.423  12.361
34149SOL    HW1 4344   4.684  12.413  12.419
34149SOL    HW2 4345   4.551  12.484  12.408
34150SOL     OW 4346   4.459   5.203  13.044
34150SOL    HW1 4347   4.408   5.129  13.077
34150SOL    HW2 4348   4.394   5.265  13.011
34151SOL     OW 4349   1.981  12.888   0.835
34151SOL    HW1 4350   2.040  12.823   0.797
34151SOL    HW2 4351   1.992  12.878   0.930
34152SOL     OW 4352  13.716   5.580   4.516
34152SOL    HW1 4353  13.714   5.644   4.444
34152SOL    HW2 4354  13.808   5.554   4.522
34153SOL     OW 4355   8.516   3.209   9.022
34153SOL    HW1 4356   8.505   3.303   9.008
34153SOL    HW2 4357   8.564   3.201   9.104
34154SOL     OW 4358  12.632   1.496  10.193
34154SOL    HW1 4359  12.630   1.566  10.259
34154SOL    HW2 4360  12.697   1.435  10.226
34155SOL     OW 4361   4.858   3.049   0.412
34155SOL    HW1 4362   4.764   3.053   0.427
34155SOL    HW2 4363   4.872   2.965   0.368
34156SOL     OW 4364   0.340   8.783   2.089
34156SOL    HW1 4365   0.411   8.847   2.093
34156SOL    HW2 4366   0.277   8.812   2.154
34157SOL     OW 4367  13.067  13.954   7.945
34157SOL    HW1 4368  13.024  14.039   7.951
34157SOL    HW2 4369  13.153  13.974   7.907
34158SOL     OW 4370   4.303   0.547   3.315
34158SOL    HW1 4371   4.368   0.592   3.369
34158SOL    HW2 4372   4.309   0.589   3.229
34159SOL     OW 4373   9.502   8.401   7.977
34159SOL    HW1 4374   9.555   8.388   8.056
34159SOL    HW2 4375   9.473   8.492   7.983
34160SOL     OW 4376   2.732   3.306   5.681
34160SOL    HW1 4377   2.798   3.368   5.713
34160SOL    HW2 4378   2.743   3.228   5.736
34161SOL     OW 4379   3.058   4.120   6.990
34161SOL    HW1 4380   3.015   4.176   7.055
34161SOL    HW2 4381   3.055   4.170   6.909
34162SOL     OW 4382   7.572   4.784   1.694
34162SOL    HW1 4383   7.492   4.813   1.651
34162SOL    HW2 4384   7.557   4.803   1.787
34163SOL     OW 4385   9.505   7.626  13.197
34163SOL    HW1 4386   9.469   7.613  13.109
34163SOL    HW2 4387   9.594   7.591  13.192
34164SOL     OW 4388   4.162  12.676   2.979
34164SOL    HW1 4389   4.249  12.693   3.015
34164SOL    HW2 4390   4.171  12.694   2.885
34165SOL     OW 4391  12.599   0.029  11.960
34165SOL    HW1 4392  12.578   0.066  12.046
34165SOL    HW2 4393  12.534   0.066  11.901
34166SOL     OW 4394   8.739  11.880   3.764
34166SOL    HW1 4395   8.660  11.827   3.780
34166SOL    HW2 4396   8.786  11.832   3.696
34167SOL     OW 4397  13.706  12.267   9.579
34167SOL    HW1 4398  13.693  12.212   9.502
34167SOL    HW2 4399  13.768  12.218   9.633
34168SOL     OW 4400   8.160   3.617  10.364
34168SOL    HW1 4401   8.213   3.572  10.430
34168SOL    HW2 4402   8.213   3.614  10.284
34169SOL     OW 4403   3.758   9.939  10.889
34169SOL    HW1 4404   3.804   9.980  10.962
34169SOL    HW2 4405   3.821   9.940  10.817
34170SOL     OW 4406  10.228   9.831   0.872
34170SOL    HW1 4407  10.133   9.826   0.883
34170SOL    HW2 4408  10.257   9.892   0.940
34171SOL     OW 4409   7.939  10.146   2.081
34171SOL    HW1 4410   8.007  10.080   2.096
34171SOL    HW2 4411   7.856  10.098   2.091
34172SOL     OW 4412   6.515   8.476   7.596
34172SOL    HW1 4413   6.541   8.548   7.539
34172SOL    HW2 4414   6.469   8.414   7.538
34173SOL     OW 4415   1.933   7.232  14.370
34173SOL    HW1 4416   1.910   7.270  14.455
34173SOL    HW2 4417   1.931   7.138  14.385
34174SOL     OW 4418   4.994   3.224   0.616
34174SOL    HW1 4419   4.973   3.301   0.564
34174SOL    HW2 4420   4.969   3.150   0.561
34175SOL     OW 4421   0.066  13.545  14.789
34175SOL    HW1 4422  14.870  13.587  14.741
34175SOL    HW2 4423   0.028  13.464  14.822
34176SOL     OW 4424  14.722   4.052  12.829
34176SOL    HW1 4425  14.699   3.966  12.867
34176SOL    HW2 4426  14.640   4.084  12.791
34177SOL     OW 4427   5.952   0.368   1.267
34177SOL    HW1 4428   5.882   0.330   1.320
34177SOL    HW2 4429   6.031   0.322   1.295
34178SOL     OW 4430   0.667   5.794   6.467
34178SOL    HW1 4431   0.628   5.860   6.525
34178SOL    HW2 4432   0.637   5.818   6.380
34179SOL     OW 4433  10.995  14.572   7.636
34179SOL    HW1 4434  11.087  14.574   7.610
34179SOL    HW2 4435  10.957  14.500   7.586
34180SOL     OW 4436   1.597  14.535   3.019
34180SOL    HW1 4437   1.617  14.472   2.950
34180SOL    HW2 4438   1.648  14.612   2.996
34181SOL     OW 4439  11.018   9.395   8.281
34181SOL    HW1 4440  11.093   9.363   8.332
34181SOL    HW2 4441  11.057   9.450   8.213
34182SOL     OW 4442   2.468  12.859   0.355
34182SOL    HW1 4443   2.467  12.842   0.261
34182SOL    HW2 4444   2.376  12.870   0.379
34183SOL     OW 4445   5.076  11.378  13.582
34183SOL    HW1 4446   5.019  11.348  13.653
34183SOL    HW2 4447   5.024  11.444  13.536
34184SOL     OW 4448  12.181   4.445   9.138
34184SOL    HW1 4449  12.088   4.439   9.157
34184SOL    HW2 4450  12.220   4.473   9.221
34185SOL     OW 4451   4.959  12.921   7.734
34185SOL    HW1 4452   5.018  12.848   7.749
34185SOL    HW2 4453   4.871  12.885   7.748
34186SOL     OW 4454   4.034   0.406  14.488
34186SOL    HW1 4455   4.051   0.456  14.569
34186SOL    HW2 4456   4.116   0.358  14.473
34187SOL     OW 4457   1.320   4.828   1.022
34187SOL    HW1 4458   1.407   4.811   1.058
34187SOL    HW2 4459   1.260   4.807   1.094
34188SOL     OW 4460   3.875   4.880   3.277
34188SOL    HW1 4461   3.839   4.956   3.232
34188SOL    HW2 4462   3.897   4.819   3.207
34189SOL     OW 4463   1.109  11.179  11.815
34189SOL    HW1 4464   1.032  11.194  11.868
34189SOL    HW2 4465   1.182  11.207  11.870
34190SOL     OW 4466   1.102   5.775  14.335
34190SOL    HW1 4467   1.016   5.815  14.323
34190SOL    HW2 4468   1.147   5.833  14.396
34191SOL     OW 4469  13.448   9.194  10.117
34191SOL    HW1 4470  13.433   9.131  10.047
34191SOL    HW2 4471  13.445   9.279  10.073
34192SOL     OW 4472   2.706   5.981   7.149
34192SOL    HW1 4473   2.790   6.025   7.166
34192SOL    HW2 4474   2.688   6.000   7.057
34193SOL     OW 4475  10.089   5.750  12.424
34193SOL    HW1 4476  10.007   5.703  12.436
34193SOL    HW2 4477  10.125   5.714  12.343
34194SOL     OW 4478  13.565  11.078   0.204
34194SOL    HW1 4479  13.471  11.084   0.190
34194SOL    HW2 4480  13.599  11.165   0.182
34195SOL     OW 4481   3.469   2.284   4.441
34195SOL    HW1 4482   3.485   2.197   4.479
34195SOL    HW2 4483   3.493   2.274   4.349
34196SOL     OW 4484   5.398   9.299   8.108
34196SOL    HW1 4485   5.397   9.204   8.114
34196SOL    HW2 4486   5.319   9.327   8.152
34197SOL     OW 4487   5.593   0.382  14.133
34197SOL    HW1 4488   5.657   0.448  14.162
34197SOL    HW2 4489   5.574   0.405  14.042
34198SOL     OW 4490   1.011  14.168   1.706
34198SOL    HW1 4491   0.931  14.116   1.715
34198SOL    HW2 4492   1.063  14.145   1.783
34199SOL     OW 4493  14.185   0.624  12.794
34199SOL    HW1 4494  14.151   0.599  12.709
34199SOL    HW2 4495  14.148   0.560  12.855
34200SOL     OW 4496   6.152  14.836   6.478
34200SOL    HW1 4497   6.193  14.799   6.556
34200SOL    HW2 4498   6.182   0.051   6.475
34201SOL     OW 4499   7.090   0.655   2.294
34201SOL    HW1 4500   7.098   0.651   2.389
34201SOL    HW2 4501   7.136   0.578   2.263
34202SOL     OW 4502  10.226   7.533   5.912
34202SOL    HW1 4503  10.193   7.474   5.981
34202SOL    HW2 4504  10.180   7.505   5.833
34203SOL     OW 4505   5.462   6.379   6.672
34203SOL    HW1 4506   5.422   6.294   6.691
34203SOL    HW2 4507   5.546   6.358   6.633
34204SOL     OW 4508  12.176   7.800   8.791
34204SOL    HW1 4509  12.174   7.895   8.775
34204SOL    HW2 4510  12.215   7.763   8.712
34205SOL     OW 4511   0.918   2.528   2.394
34205SOL    HW1 4512   0.913   2.575   2.310
34205SOL    HW2 4513   0.886   2.440   2.374
34206SOL     OW 4514  12.607   5.384   2.403
34206SOL    HW1 4515  12.559   5.384   2.320
34206SOL    HW2 4516  12.542   5.410   2.469
34207SOL     OW 4517   7.935   8.907  11.342
34207SOL    HW1 4518   7.913   8.886  11.251
34207SOL    HW2 4519   8.022   8.947  11.338
34208SOL     OW 4520   6.817   6.259  10.950
34208SOL    HW1 4521   6.847   6.275  10.860
34208SOL    HW2 4522   6.864   6.324  11.002
34209SOL     OW 4523   9.690  14.456   9.953
34209SOL    HW1 4524   9.713  14.495   9.868
34209SOL    HW2 4525   9.713  14.523  10.017
34210SOL     OW 4526  10.611   1.989   4.610
34210SOL    HW1 4527  10.654   2.017   4.691
34210SOL    HW2 4528  10.518   1.989   4.631
34211SOL     OW 4529   9.587  14.490   1.494
34211SOL    HW1 4530   9.595  14.566   1.436
34211SOL    HW2 4531   9.509  14.444   1.463
34212SOL     OW 4532   9.526  12.437  12.041
34212SOL    HW1 4533   9.564  12.391  11.966
34212SOL    HW2 4534   9.509  12.526  12.008
34213SOL     OW 4535   7.042   6.004   9.718
34213SOL    HW1 4536   7.047   5.909   9.725
34213SOL    HW2 4537   7.036   6.034   9.809
34214SOL     OW 4538  11.346  14.558   1.633
34214SOL    HW1 4539  11.334  14.620   1.560
34214SOL    HW2 4540  11.374  14.613   1.706
34215SOL     OW 4541   0.469   6.608   3.671
34215SOL    HW1 4542   0.483   6.575   3.759
34215SOL    HW2 4543   0.390   6.563   3.640
34216SOL     OW 4544   3.715   2.713  13.208
34216SOL    HW1 4545   3.667   2.633  13.230
34216SOL    HW2 4546   3.649   2.770  13.169
34217SOL     OW 4547  14.018  10.950   7.123
34217SOL    HW1 4548  13.934  10.939   7.078
34217SOL    HW2 4549  14.050  11.035   7.094
34218SOL     OW 4550   5.519  14.337   6.348
34218SOL    HW1 4551   5.440  14.299   6.387
34218SOL    HW2 4552   5.494  14.427   6.328
34219SOL     OW 4553  13.427  13.078   2.195
34219SOL    HW1 4554  13.369  13.142   2.155
34219SOL    HW2 4555  13.378  12.996   2.193
34220SOL     OW 4556  14.133   2.162   3.355
34220SOL    HW1 4557  14.111   2.230   3.291
34220SOL    HW2 4558  14.106   2.197   3.439
34221SOL     OW 4559  14.688   6.913  11.403
34221SOL    HW1 4560  14.703   6.845  11.469
34221SOL    HW2 4561  14.715   6.872  11.321
34222SOL     OW 4562   0.670  10.531  10.132
34222SOL    HW1 4563   0.738  10.504  10.070
34222SOL    HW2 4564   0.596  10.558  10.077
34223SOL     OW 4565   2.260   2.395  10.427
34223SOL    HW1 4566   2.268   2.395  10.331
34223SOL    HW2 4567   2.344   2.427  10.458
34224SOL     OW 4568  10.100   8.261   7.738
34224SOL    HW1 4569  10.027   8.260   7.677
34224SOL    HW2 4570  10.059   8.257   7.825
34225SOL     OW 4571   1.513  11.779  12.450
34225SOL    HW1 4572   1.519  11.795  12.356
34225SOL    HW2 4573   1.440  11.833  12.480
34226SOL     OW 4574   1.977  11.348   5.808
34226SOL    HW1 4575   1.942  11.313   5.726
34226SOL    HW2 4576   1.964  11.442   5.801
34227SOL     OW 4577   1.979   1.147   4.321
34227SOL    HW1 4578   2.038   1.184   4.255
34227SOL    HW2 4579   2.016   1.061   4.341
34228SOL     OW 4580   1.476   3.312   6.377
34228SOL    HW1 4581   1.502   3.285   6.465
34228SOL    HW2 4582   1.470   3.407   6.381
34229SOL     OW 4583   7.342   9.416  10.359
34229SOL    HW1 4584   7.419   9.402  10.305
34229SOL    HW2 4585   7.374   9.409  10.449
34230SOL     OW 4586   6.972  14.316   5.925
34230SOL    HW1 4587   6.945  14.406   5.909
34230SOL    HW2 4588   6.908  14.282   5.987
34231SOL     OW 4589   2.981   4.145  14.715
34231SOL    HW1 4590   3.062   4.093  14.723
34231SOL    HW2 4591   2.915   4.093  14.761
34232SOL     OW 4592   5.540   6.638   9.830
34232SOL    HW1 4593   5.537   6.725   9.870
34232SOL    HW2 4594   5.608   6.644   9.763
34233SOL     OW 4595  12.491   4.508   8.857
34233SOL    HW1 4596  12.501   4.518   8.762
34233SOL    HW2 4597  12.421   4.568   8.880
34234SOL     OW 4598   0.177   6.669   2.694
34234SOL    HW1 4599   0.157   6.661   2.787
34234SOL    HW2 4600   0.161   6.581   2.659
34235SOL     OW 4601   2.003  13.226   2.089
34235SOL    HW1 4602   1.957  13.241   2.171
34235SOL    HW2 4603   1.956  13.279   2.024
34236SOL     OW 4604   3.890  12.089   2.302
34236SOL    HW1 4605   3.824  12.022   2.284
34236SOL    HW2 4606   3.907  12.081   2.396
34237SOL     OW 4607   0.920  12.366  12.804
34237SOL    HW1 4608   0.901  12.407  12.888
34237SOL    HW2 4609   1.015  12.375  12.794
34238SOL     OW 4610   2.940  14.423   4.259
34238SOL    HW1 4611   2.984  14.472   4.189
34238SOL    HW2 4612   3.002  14.354   4.282
34239SOL     OW 4613   6.425   6.187   1.713
34239SOL    HW1 4614   6.417   6.155   1.802
34239SOL    HW2 4615   6.518   6.181   1.693
34240SOL     OW 4616   9.303  14.225   9.587
34240SOL    HW1 4617   9.385  14.259   9.622
34240SOL    HW2 4618   9.263  14.299   9.541
34241SOL     OW 4619   1.702  10.384  10.843
34241SOL    HW1 4620   1.676  10.460  10.792
34241SOL    HW2 4621   1.658  10.395  10.927
34242SOL     OW 4622   1.291  12.834   6.779
34242SOL    HW1 4623   1.357  12.873   6.836
34242SOL    HW2 4624   1.340  12.794   6.708
34243SOL     OW 4625   3.138   1.941  11.655
34243SOL    HW1 4626   3.051   1.981  11.648
34243SOL    HW2 4627   3.198   2.005  11.618
34244SOL     OW 4628  12.065  10.757  14.265
34244SOL    HW1 4629  12.151  10.773  14.303
34244SOL    HW2 4630  12.026  10.844  14.258
34245SOL     OW 4631   9.697  13.511   0.595
34245SOL    HW1 4632   9.669  13.568   0.524
34245SOL    HW2 4633   9.617  13.465   0.622
34246SOL     OW 4634  14.002   2.743   4.419
34246SOL    HW1 4635  13.942   2.769   4.488
34246SOL    HW2 4636  14.089   2.761   4.455
34247SOL     OW 4637  11.295   0.955  12.884
34247SOL    HW1 4638  11.365   0.908  12.930
34247SOL    HW2 4639  11.254   1.008  12.953
34248SOL     OW 4640   2.270  12.350   3.346
34248SOL    HW1 4641   2.237  12.438   3.366
34248SOL    HW2 4642   2.220  12.322   3.270
34249SOL     OW 4643   9.516   4.980   2.631
34249SOL    HW1 4644   9.576   4.911   2.661
34249SOL    HW2 4645   9.430   4.949   2.659
34250SOL     OW 4646   2.336  13.552   6.684
34250SOL    HW1 4647   2.310  13.644   6.678
34250SOL    HW2 4648   2.341  13.523   6.593
34251SOL     OW 4649   7.662   7.610  10.483
34251SOL    HW1 4650   7.614   7.580  10.405
34251SOL    HW2 4651   7.594   7.646  10.540
34252SOL     OW 4652   9.089  11.205   5.484
34252SOL    HW1 4653   9.141  11.127   5.500
34252SOL    HW2 4654   9.116  11.235   5.397
34253SOL     OW 4655   1.642   8.866   2.563
34253SOL    HW1 4656   1.711   8.910   2.513
34253SOL    HW2 4657   1.626   8.924   2.637
34254SOL     OW 4658   1.760  14.161   7.014
34254SOL    HW1 4659   1.843  14.209   7.015
34254SOL    HW2 4660   1.777  14.084   6.959
34255SOL     OW 4661  13.115   8.234  11.321
34255SOL    HW1 4662  13.053   8.280  11.378
34255SOL    HW2 4663  13.201   8.249  11.362
34256SOL     OW 4664   7.656   3.856   0.760
34256SOL    HW1 4665   7.566   3.823   0.762
34256SOL    HW2 4666   7.650   3.939   0.712
34257SOL     OW 4667   4.937   8.893  10.618
34257SOL    HW1 4668   4.889   8.853  10.690
34257SOL    HW2 4669   4.993   8.824  10.584
34258SOL     OW 4670   2.091  10.063  10.697
34258SOL    HW1 4671   2.158  10.124  10.667
34258SOL    HW2 4672   2.030  10.117  10.748
34259SOL     OW 4673  12.040   4.983  13.451
34259SOL    HW1 4674  12.048   4.896  13.491
34259SOL    HW2 4675  12.053   4.968  13.357
34260SOL     OW 4676   5.536   6.190   2.225
34260SOL    HW1 4677   5.571   6.277   2.205
34260SOL    HW2 4678   5.465   6.178   2.162
34261SOL     OW 4679   9.561   6.835   4.703
34261SOL    HW1 4680   9.648   6.858   4.670
34261SOL    HW2 4681   9.535   6.759   4.651
34262SOL     OW 4682   4.978   2.222   7.626
34262SOL    HW1 4683   4.979   2.217   7.531
34262SOL    HW2 4684   4.989   2.314   7.646
34263SOL     OW 4685  11.049   6.209   8.632
34263SOL    HW1 4686  11.139   6.239   8.628
34263SOL    HW2 4687  11.039   6.176   8.722
34264SOL     OW 4688   6.252   7.845  14.293
34264SOL    HW1 4689   6.237   7.937  14.272
34264SOL    HW2 4690   6.261   7.802  14.208
34265SOL     OW 4691   9.092  12.176  10.932
34265SOL    HW1 4692   9.041  12.096  10.946
34265SOL    HW2 4693   9.183  12.148  10.935
34266SOL     OW 4694   3.730   1.840  11.319
34266SOL    HW1 4695   3.768   1.894  11.250
34266SOL    HW2 4696   3.759   1.751  11.299
34267SOL     OW 4697   0.310   0.554   0.754
34267SOL    HW1 4698   0.265   0.561   0.838
34267SOL    HW2 4699   0.346   0.641   0.738
34268SOL     OW 4700  13.133   5.922   8.770
34268SOL    HW1 4701  13.042   5.918   8.743
34268SOL    HW2 4702  13.130   5.963   8.857
34269SOL     OW 4703   8.657   8.179  13.457
34269SOL    HW1 4704   8.701   8.191  13.540
34269SOL    HW2 4705   8.668   8.262  13.410
34270SOL     OW 4706   6.425   5.816  13.446
34270SOL    HW1 4707   6.457   5.754  13.512
34270SOL    HW2 4708   6.501   5.869  13.424
34271SOL     OW 4709   9.780  13.782   6.843
34271SOL    HW1 4710   9.750  13.832   6.767
34271SOL    HW2 4711   9.724  13.705   6.845
34272SOL     OW 4712   2.000   5.000   8.307
34272SOL    HW1 4713   2.039   5.018   8.222
34272SOL    HW2 4714   1.917   5.048   8.306
34273SOL     OW 4715   0.618  13.939   7.000
34273SOL    HW1 4716   0.656  14.010   7.053
34273SOL    HW2 4717   0.670  13.938   6.920
34274SOL     OW 4718   3.645   3.664   4.596
34274SOL    HW1 4719   3.564   3.616   4.582
34274SOL    HW2 4720   3.663   3.655   4.690
34275SOL     OW 4721  11.888   5.186   3.966
34275SOL    HW1 4722  11.834   5.148   3.897
34275SOL    HW2 4723  11.860   5.141   4.046
34276SOL     OW 4724   4.864   0.092   4.688
34276SOL    HW1 4725   4.813   0.155   4.637
34276SOL    HW2 4726   4.877   0.134   4.773
34277SOL     OW 4727   8.123   8.699  13.330
34277SOL    HW1 4728   8.134   8.630  13.265
34277SOL    HW2 4729   8.199   8.757  13.316
34278SOL     OW 4730   6.276   5.777  14.609
34278SOL    HW1 4731   6.361   5.763  14.568
34278SOL    HW2 4732   6.213   5.761  14.540
34279SOL     OW 4733  13.886   1.171   3.891
34279SOL    HW1 4734  13.915   1.137   3.806
34279SOL    HW2 4735  13.909   1.101   3.953
34280SOL     OW 4736  13.553   5.058   5.987
34280SOL    HW1 4737  13.642   5.088   6.006
34280SOL    HW2 4738  13.548   5.056   5.892
34281SOL     OW 4739   4.273  14.255   9.972
34281SOL    HW1 4740   4.270  14.160   9.970
34281SOL    HW2 4741   4.202  14.280  10.031
34282SOL     OW 4742  13.986  11.999  10.463
34282SOL    HW1 4743  14.038  12.076  10.440
34282SOL    HW2 4744  13.896  12.031  10.470
34283SOL     OW 4745  11.025   1.943  11.244
34283SOL    HW1 4746  11.030   1.888  11.165
34283SOL    HW2 4747  11.040   2.032  11.211
34284SOL     OW 4748   3.706   0.421   4.520
34284SOL    HW1 4749   3.677   0.466   4.599
34284SOL    HW2 4750   3.649   0.344   4.514
34285SOL     OW 4751  14.155   0.541   4.197
34285SOL    HW1 4752  14.113   0.458   4.173
34285SOL    HW2 4753  14.212   0.519   4.271
34286SOL     OW 4754   2.711   9.214   3.140
34286SOL    HW1 4755   2.717   9.154   3.065
34286SOL    HW2 4756   2.650   9.282   3.110
34287SOL     OW 4757   3.394  13.546  10.508
34287SOL    HW1 4758   3.314  13.513  10.548
34287SOL    HW2 4759   3.418  13.622  10.561
34288SOL     OW 4760   8.346   3.508   4.078
34288SOL    HW1 4761   8.409   3.475   4.014
34288SOL    HW2 4762   8.274   3.542   4.025
34289SOL     OW 4763  10.580   7.952  14.792
34289SOL    HW1 4764  10.490   7.950  14.760
34289SOL    HW2 4765  10.573   7.983   0.007
34290SOL     OW 4766   6.869   4.353   4.980
34290SOL    HW1 4767   6.785   4.323   4.946
34290SOL    HW2 4768   6.880   4.305   5.062
34291SOL     OW 4769   4.712   2.918   2.001
34291SOL    HW1 4770   4.720   2.825   2.022
34291SOL    HW2 4771   4.745   2.963   2.078
34292SOL     OW 4772  11.473   9.820   0.619
34292SOL    HW1 4773  11.443   9.736   0.583
34292SOL    HW2 4774  11.393   9.870   0.633
34293SOL     OW 4775   8.297  11.083   0.869
34293SOL    HW1 4776   8.329  11.135   0.943
34293SOL    HW2 4777   8.361  11.012   0.860
34294SOL     OW 4778  11.122   0.920   9.481
34294SOL    HW1 4779  11.074   0.918   9.564
34294SOL    HW2 4780  11.114   1.011   9.451
34295SOL     OW 4781  14.721  12.049   8.550
34295SOL    HW1 4782  14.699  11.977   8.608
34295SOL    HW2 4783  14.745  12.121   8.608
34296SOL     OW 4784   7.926  11.898   7.629
34296SOL    HW1 4785   7.928  11.805   7.603
34296SOL    HW2 4786   7.938  11.945   7.547
34297SOL     OW 4787   9.078   1.528  14.487
34297SOL    HW1 4788   9.165   1.538  14.448
34297SOL    HW2 4789   9.079   1.439  14.524
34298SOL     OW 4790   4.327   9.608   8.211
34298SOL    HW1 4791   4.252   9.551   8.229
34298SOL    HW2 4792   4.393   9.582   8.276
34299SOL     OW 4793   6.435   4.469   2.865
34299SOL    HW1 4794   6.392   4.554   2.857
34299SOL    HW2 4795   6.526   4.490   2.888
34300SOL     OW 4796  13.262   0.720   1.106
34300SOL    HW1 4797  13.172   0.730   1.077
34300SOL    HW2 4798  13.315   0.744   1.030
34301SOL     OW 4799   6.749  10.269  10.458
34301SOL    HW1 4800   6.695  10.267  10.537
34301SOL    HW2 4801   6.837  10.290  10.489
34302SOL     OW 4802  10.181   7.280   8.327
34302SOL    HW1 4803  10.179   7.222   8.250
34302SOL    HW2 4804  10.256   7.337   8.311
34303SOL     OW 4805   1.290   5.873  13.558
34303SOL    HW1 4806   1.315   5.780  13.558
34303SOL    HW2 4807   1.202   5.873  13.520
34304SOL     OW 4808   5.823  11.439   3.571
34304SOL    HW1 4809   5.876  11.362   3.593
34304SOL    HW2 4810   5.735  11.415   3.598
34305SOL     OW 4811  14.685  14.750  10.729
34305SOL    HW1 4812  14.754  14.683  10.722
34305SOL    HW2 4813  14.664  14.753  10.822
34306SOL     OW 4814   7.166   0.524  11.695
34306SOL    HW1 4815   7.121   0.597  11.652
34306SOL    HW2 4816   7.097   0.461  11.715
34307SOL     OW 4817   4.003   4.345  14.317
34307SOL    HW1 4818   3.979   4.283  14.248
34307SOL    HW2 4819   3.920   4.388  14.340
34308SOL     OW 4820   4.358   4.464  10.957
34308SOL    HW1 4821   4.356   4.510  11.041
34308SOL    HW2 4822   4.386   4.375  10.978
34309SOL     OW 4823  12.787   2.066   0.784
34309SOL    HW1 4824  12.831   1.994   0.739
34309SOL    HW2 4825  12.857   2.117   0.824
34310SOL     OW 4826   9.828   8.760   2.966
34310SOL    HW1 4827   9.779   8.799   2.893
34310SOL    HW2 4828   9.813   8.665   2.957
34311SOL     OW 4829   8.529   7.655   8.996
34311SOL    HW1 4830   8.604   7.605   9.029
34311SOL    HW2 4831   8.547   7.665   8.903
34312SOL     OW 4832   3.398   3.871   9.058
34312SOL    HW1 4833   3.341   3.844   9.130
34312SOL    HW2 4834   3.464   3.927   9.100
34313SOL     OW 4835  12.313  11.557   0.978
34313SOL    HW1 4836  12.296  11.510   1.060
34313SOL    HW2 4837  12.299  11.491   0.910
34314SOL     OW 4838   3.495   0.119   8.221
34314SOL    HW1 4839   3.521   0.181   8.153
34314SOL    HW2 4840   3.562   0.051   8.217
34315SOL     OW 4841  13.081   1.961   8.298
34315SOL    HW1 4842  13.140   2.001   8.235
34315SOL    HW2 4843  13.111   1.992   8.383
34316SOL     OW 4844   5.234   4.573   1.057
34316SOL    HW1 4845   5.210   4.602   1.145
34316SOL    HW2 4846   5.324   4.540   1.067
34317SOL     OW 4847   0.216  13.020  14.307
34317SOL    HW1 4848   0.218  12.951  14.241
34317SOL    HW2 4849   0.124  13.026  14.333
34318SOL     OW 4850  11.734   9.538   5.339
34318SOL    HW1 4851  11.672   9.466   5.330
34318SOL    HW2 4852  11.820   9.497   5.329
34319SOL     OW 4853  11.119  10.598   4.291
34319SOL    HW1 4854  11.098  10.521   4.343
34319SOL    HW2 4855  11.076  10.583   4.206
34320SOL     OW 4856   2.954  13.208   8.083
34320SOL    HW1 4857   2.926  13.238   7.996
34320SOL    HW2 4858   2.952  13.287   8.137
34321SOL     OW 4859   7.087   7.267   9.780
34321SOL    HW1 4860   7.059   7.245   9.868
34321SOL    HW2 4861   7.167   7.216   9.766
34322SOL     OW 4862   1.413  12.665   7.579
34322SOL    HW1 4863   1.399  12.575   7.606
34322SOL    HW2 4864   1.508  12.677   7.584
34323SOL     OW 4865   9.637  11.505   4.013
34323SOL    HW1 4866   9.685  11.438   4.062
34323SOL    HW2 4867   9.564  11.529   4.070
34324SOL     OW 4868   1.075   2.561   1.690
34324SOL    HW1 4869   1.070   2.561   1.786
34324SOL    HW2 4870   1.021   2.487   1.663
34325SOL     OW 4871   2.546   2.112   3.340
34325SOL    HW1 4872   2.623   2.069   3.376
34325SOL    HW2 4873   2.579   2.194   3.302
34326SOL     OW 4874  13.779  10.618  11.463
34326SOL    HW1 4875  13.838  10.692  11.450
34326SOL    HW2 4876  13.832  10.554  11.511
34327SOL     OW 4877   4.920   6.474  13.608
34327SOL    HW1 4878   4.841   6.523  13.583
34327SOL    HW2 4879   4.892   6.383  13.613
34328SOL     OW 4880   6.670   9.860  11.401
34328SOL    HW1 4881   6.742   9.853  11.339
34328SOL    HW2 4882   6.663   9.954  11.419
34329SOL     OW 4883   7.393  12.214   2.867
34329SOL    HW1 4884   7.305  12.253   2.866
34329SOL    HW2 4885   7.416  12.209   2.960
34330SOL     OW 4886   0.016   1.518   1.063
34330SOL    HW1 4887  14.827   1.454   1.030
34330SOL    HW2 4888   0.072   1.467   1.122
34331SOL     OW 4889   3.659   7.239   2.384
34331SOL    HW1 4890   3.693   7.233   2.473
34331SOL    HW2 4891   3.570   7.272   2.394
34332SOL     OW 4892  13.027  13.399   8.321
34332SOL    HW1 4893  13.043  13.481   8.273
34332SOL    HW2 4894  13.093  13.400   8.390
34333SOL     OW 4895   3.531  12.110   1.697
34333SOL    HW1 4896   3.530  12.087   1.789
34333SOL    HW2 4897   3.492  12.035   1.653
34334SOL     OW 4898  14.763   9.934  11.864
34334SOL    HW1 4899  14.679   9.897  11.837
34334SOL    HW2 4900  14.816   9.858  11.888
34335SOL     OW 4901   2.783   3.433  14.830
34335SOL    HW1 4902   2.805   3.526  14.833
34335SOL    HW2 4903   2.844   3.396  14.765
34336SOL     OW 4904   4.720  14.527   2.143
34336SOL    HW1 4905   4.777  14.507   2.070
34336SOL    HW2 4906   4.708  14.622   2.139
34337SOL     OW 4907   9.427   2.060  12.534
34337SOL    HW1 4908   9.443   2.145  12.491
34337SOL    HW2 4909   9.490   2.001  12.494
34338SOL     OW 4910   0.998   2.984   7.861
34338SOL    HW1 4911   1.037   3.013   7.944
34338SOL    HW2 4912   1.028   2.893   7.851
34339SOL     OW 4913  11.909   1.338  10.785
34339SOL    HW1 4914  11.851   1.343  10.709
34339SOL    HW2 4915  11.952   1.424  10.788
34340SOL     OW 4916  11.774   0.906   4.005
34340SOL    HW1 4917  11.846   0.950   4.049
34340SOL    HW2 4918  11.794   0.813   4.014
34341SOL     OW 4919   7.882   1.171   4.892
34341SOL    HW1 4920   7.816   1.109   4.861
34341SOL    HW2 4921   7.879   1.162   4.988
34342SOL     OW 4922   2.476   2.655   2.236
34342SOL    HW1 4923   2.385   2.668   2.264
34342SOL    HW2 4924   2.472   2.577   2.180
34343SOL     OW 4925   6.778   6.733   1.678
34343SOL    HW1 4926   6.826   6.658   1.712
34343SOL    HW2 4927   6.787   6.726   1.583
34344SOL     OW 4928  13.391  11.946   5.356
34344SOL    HW1 4929  13.367  11.880   5.291
34344SOL    HW2 4930  13.358  11.910   5.439
34345SOL     OW 4931  10.179   0.174   6.637
34345SOL    HW1 4932  10.207   0.209   6.722
34345SOL    HW2 4933  10.239   0.214   6.574
34346SOL     OW 4934   2.377  12.642  14.499
34346SOL    HW1 4935   2.471  12.626  14.490
34346SOL    HW2 4936   2.350  12.675  14.414
34347SOL     OW 4937  10.656   8.376   0.858
34347SOL    HW1 4938  10.564   8.362   0.880
34347SOL    HW2 4939  10.701   8.298   0.890
34348SOL     OW 4940   5.335   8.088   5.379
34348SOL    HW1 4941   5.336   8.039   5.461
34348SOL    HW2 4942   5.370   8.174   5.401
34349SOL     OW 4943  10.440   9.209  12.018
34349SOL    HW1 4944  10.520   9.184  11.972
34349SOL    HW2 4945  10.458   9.188  12.110
34350SOL     OW 4946   2.470   7.671   7.955
34350SOL    HW1 4947   2.486   7.752   7.906
34350SOL    HW2 4948   2.483   7.695   8.047
34351SOL     OW 4949   1.687  13.334   8.799
34351SOL    HW1 4950   1.763  13.275   8.796
34351SOL    HW2 4951   1.648  13.319   8.886
34352SOL     OW 4952   5.147   2.885   6.715
34352SOL    HW1 4953   5.116   2.858   6.802
34352SOL    HW2 4954   5.069   2.885   6.660
34353SOL     OW 4955   8.165   5.940   2.083
34353SOL    HW1 4956   8.166   5.910   1.992
34353SOL    HW2 4957   8.130   5.866   2.133
34354SOL     OW 4958   6.213   6.513   6.614
34354SOL    HW1 4959   6.276   6.445   6.590
34354SOL    HW2 4960   6.241   6.590   6.565
34355SOL     OW 4961   5.119   4.169   6.277
34355SOL    HW1 4962   5.197   4.183   6.223
34355SOL    HW2 4963   5.080   4.089   6.243
34356SOL     OW 4964  11.363   7.432   7.815
34356SOL    HW1 4965  11.386   7.412   7.905
34356SOL    HW2 4966  11.447   7.432   7.768
34357SOL     OW 4967   3.660   1.033   7.101
34357SOL    HW1 4968   3.681   1.078   7.019
34357SOL    HW2 4969   3.684   1.096   7.169
34358SOL     OW 4970   7.113   6.949   6.900
34358SOL    HW1 4971   7.028   6.989   6.918
34358SOL    HW2 4972   7.126   6.962   6.806
34359SOL     OW 4973   2.613  14.837  10.737
34359SOL    HW1 4974   2.607  14.784  10.657
34359SOL    HW2 4975   2.683   0.024  10.719
34360SOL     OW 4976   4.279   3.425   5.193
34360SOL    HW1 4977   4.289   3.330   5.192
34360SOL    HW2 4978   4.304   3.451   5.281
34361SOL     OW 4979  11.113   5.230   7.390
34361SOL    HW1 4980  11.183   5.244   7.327
34361SOL    HW2 4981  11.033   5.235   7.339
34362SOL     OW 4982   1.213   0.366   1.114
34362SOL    HW1 4983   1.123   0.365   1.147
34362SOL    HW2 4984   1.257   0.297   1.162
34363SOL     OW 4985   4.103  12.426   7.236
34363SOL    HW1 4986   4.151  12.466   7.309
34363SOL    HW2 4987   4.012  12.429   7.263
34364SOL     OW 4988   2.481   2.724   6.247
34364SOL    HW1 4989   2.482   2.786   6.320
34364SOL    HW2 4990   2.442   2.773   6.175
34365SOL     OW 4991  10.624   3.482  13.629
34365SOL    HW1 4992  10.591   3.399  13.663
34365SOL    HW2 4993  10.550   3.520  13.582
34366SOL     OW 4994  10.904   9.524   8.020
34366SOL    HW1 4995  10.965   9.567   8.081
34366SOL    HW2 4996  10.949   9.444   7.994
34367SOL     OW 4997   6.821   0.648   3.022
34367SOL    HW1 4998   6.897   0.630   2.967
34367SOL    HW2 4999   6.854   0.706   3.091
34368SOL     OW 5000   3.908   1.947  11.145
34368SOL    HW1 5001   3.972   1.975  11.080
34368SOL    HW2 5002   3.958   1.938  11.226
34369SOL     OW 5003  12.493  14.340  10.705
34369SOL    HW1 5004  12.447  14.292  10.636
34369SOL    HW2 5005  12.462  14.431  10.694
34370SOL     OW 5006   2.485  10.800  11.315
34370SOL    HW1 5007   2.422  10.864  11.349
34370SOL    HW2 5008   2.447  10.769  11.234
34371SOL     OW 5009  12.048   1.495  10.047
34371SOL    HW1 5010  11.990   1.571  10.038
34371SOL    HW2 5011  11.994   1.430  10.094
34372SOL     OW 5012   9.655  10.782  14.359
34372SOL    HW1 5013   9.702  10.700  14.367
34372SOL    HW2 5014   9.619  10.798  14.447
34373SOL     OW 5015   8.591   7.115   1.437
34373SOL    HW1 5016   8.512   7.063   1.429
34373SOL    HW2 5017   8.619   7.132   1.347
34374SOL     OW 5018   6.491  10.225  11.014
34374SOL    HW1 5019   6.398  10.238  10.999
34374SOL    HW2 5020   6.533  10.258  10.934
34375SOL     OW 5021   0.641   7.614   3.580
34375SOL    HW1 5022   0.699   7.628   3.505
34375SOL    HW2 5023   0.698   7.621   3.656
34376SOL     OW 5024   7.265  13.023   1.759
34376SOL    HW1 5025   7.261  13.115   1.785
34376SOL    HW2 5026   7.329  12.984   1.820
34377SOL     OW 5027  11.938   6.315  10.109
34377SOL    HW1 5028  11.892   6.374  10.050
34377SOL    HW2 5029  12.008   6.277  10.056
34378SOL     OW 5030   6.466   2.072   6.925
34378SOL    HW1 5031   6.408   2.000   6.948
34378SOL    HW2 5032   6.549   2.029   6.901
34379SOL     OW 5033   6.976  14.706   9.234
34379SOL    HW1 5034   6.954  14.799   9.241
34379SOL    HW2 5035   6.947  14.680   9.147
34380SOL     OW 5036   4.353   4.423  11.913
34380SOL    HW1 5037   4.312   4.507  11.894
34380SOL    HW2 5038   4.339   4.409  12.006
34381SOL     OW 5039   3.250  12.731  11.037
34381SOL    HW1 5040   3.224  12.659  11.096
34381SOL    HW2 5041   3.167  12.768  11.007
34382SOL     OW 5042   0.789  10.536   2.184
34382SOL    HW1 5043   0.852  10.603   2.208
34382SOL    HW2 5044   0.805  10.521   2.090
34383SOL     OW 5045   5.764   9.190  14.661
34383SOL    HW1 5046   5.761   9.100  14.693
34383SOL    HW2 5047   5.841   9.193  14.604
34384SOL     OW 5048   5.016  11.306   1.129
34384SOL    HW1 5049   5.069  11.294   1.207
34384SOL    HW2 5050   5.079  11.317   1.058
34385SOL     OW 5051  12.387   9.378   0.655
34385SOL    HW1 5052  12.468   9.381   0.707
34385SOL    HW2 5053  12.378   9.285   0.631
34386SOL     OW 5054   5.906   6.346  10.868
34386SOL    HW1 5055   5.857   6.391  10.799
34386SOL    HW2 5056   5.986   6.398  10.879
34387SOL     OW 5057   2.322   0.148   5.170
34387SOL    HW1 5058   2.382   0.076   5.189
34387SOL    HW2 5059   2.377   0.219   5.141
34388SOL     OW 5060   5.298   2.139   0.119
34388SOL    HW1 5061   5.224   2.160   0.062
34388SOL    HW2 5062   5.372   2.132   0.059
34389SOL     OW 5063   4.694  13.812   8.285
34389SOL    HW1 5064   4.654  13.807   8.199
34389SOL    HW2 5065   4.737  13.726   8.297
34390SOL     OW 5066  11.208   6.809   7.175
34390SOL    HW1 5067  11.284   6.867   7.181
34390SOL    HW2 5068  11.225   6.741   7.240
34391SOL     OW 5069   1.064  11.675  11.086
34391SOL    HW1 5070   1.006  11.646  11.157
34391SOL    HW2 5071   1.128  11.732  11.130
34392SOL     OW 5072   6.713   9.197   6.663
34392SOL    HW1 5073   6.765   9.270   6.630
34392SOL    HW2 5074   6.764   9.161   6.735
34393SOL     OW 5075   5.784   6.045   9.751
34393SOL    HW1 5076   5.817   6.019   9.837
34393SOL    HW2 5077   5.858   6.032   9.692
34394SOL     OW 5078  14.811   1.148   7.135
34394SOL    HW1 5079  14.734   1.119   7.184
34394SOL    HW2 5080  14.841   1.070   7.089
34395SOL     OW 5081   7.623   8.728  12.481
34395SOL    HW1 5082   7.704   8.731  12.430
34395SOL    HW2 5083   7.652   8.717  12.571
34396SOL     OW 5084  10.715   0.889   0.922
34396SOL    HW1 5085  10.665   0.839   0.858
34396SOL    HW2 5086  10.649   0.934   0.974
34397SOL     OW 5087   6.942   7.382  12.026
34397SOL    HW1 5088   6.939   7.314  11.959
34397SOL    HW2 5089   7.033   7.383  12.056
34398SOL     OW 5090  14.286  13.595   1.897
34398SOL    HW1 5091  14.233  13.517   1.917
34398SOL    HW2 5092  14.373  13.560   1.877
34399SOL     OW 5093   2.884  13.991  12.603
34399SOL    HW1 5094   2.922  14.073  12.571
34399SOL    HW2 5095   2.795  14.014  12.629
34400SOL     OW 5096   6.870   6.451   0.561
34400SOL    HW1 5097   6.800   6.423   0.502
34400SOL    HW2 5098   6.951   6.430   0.515
34401SOL     OW 5099  12.764   3.767   0.148
34401SOL    HW1 5100  12.799   3.823   0.218
34401SOL    HW2 5101  12.760   3.823   0.071
34402SOL     OW 5102  11.685   7.100   4.356
34402SOL    HW1 5103  11.760   7.042   4.343
34402SOL    HW2 5104  11.611   7.042   4.372
34403SOL     OW 5105   2.622   6.328   8.016
34403SOL    HW1 5106   2.647   6.405   7.965
34403SOL    HW2 5107   2.657   6.344   8.104
34404SOL     OW 5108  10.577  10.006   4.130
34404SOL    HW1 5109  10.532  10.056   4.062
34404SOL    HW2 5110  10.603   9.925   4.087
34405SOL     OW 5111  12.835  14.297   7.772
34405SOL    HW1 5112  12.751  14.337   7.797
34405SOL    HW2 5113  12.890  14.308   7.850
34406SOL     OW 5114  12.847  13.550   4.622
34406SOL    HW1 5115  12.881  13.604   4.551
34406SOL    HW2 5116  12.808  13.475   4.578
34407SOL     OW 5117   6.725   5.442  11.302
34407SOL    HW1 5118   6.697   5.435  11.394
34407SOL    HW2 5119   6.770   5.526  11.297
34408SOL     OW 5120   9.727  13.246  12.184
34408SOL    HW1 5121   9.748  13.317  12.123
34408SOL    HW2 5122   9.695  13.291  12.263
34409SOL     OW 5123   8.908  14.776   3.190
34409SOL    HW1 5124   8.951  14.730   3.262
34409SOL    HW2 5125   8.819  14.739   3.187
34410SOL     OW 5126   6.776   8.942   4.358
34410SOL    HW1 5127   6.871   8.933   4.352
34410SOL    HW2 5128   6.754   9.007   4.291
34411SOL     OW 5129   3.531   9.531   8.134
34411SOL    HW1 5130   3.582   9.487   8.066
34411SOL    HW2 5131   3.549   9.624   8.120
34412SOL     OW 5132  13.277   4.949  11.678
34412SOL    HW1 5133  13.233   5.028  11.645
34412SOL    HW2 5134  13.281   4.962  11.773
34413SOL     OW 5135   8.992  12.895   2.338
34413SOL    HW1 5136   9.012  12.807   2.305
34413SOL    HW2 5137   9.062  12.950   2.304
34414SOL     OW 5138  10.840   1.662   1.632
34414SOL    HW1 5139  10.916   1.692   1.583
34414SOL    HW2 5140  10.765   1.687   1.578
34415SOL     OW 5141   3.298   8.667  11.026
34415SOL    HW1 5142   3.207   8.685  11.049
34415SOL    HW2 5143   3.321   8.588  11.076
34416SOL     OW 5144   3.008  12.645   9.691
34416SOL    HW1 5145   3.014  12.616   9.782
34416SOL    HW2 5146   3.073  12.593   9.645
34417SOL     OW 5147   9.964   9.013  12.192
34417SOL    HW1 5148   9.951   9.096  12.147
34417SOL    HW2 5149  10.052   9.019  12.229
34418SOL     OW 5150   0.987   9.490  12.868
34418SOL    HW1 5151   1.046   9.496  12.942
34418SOL    HW2 5152   1.015   9.559  12.808
34419SOL     OW 5153   0.555   9.708   2.196
34419SOL    HW1 5154   0.616   9.717   2.270
34419SOL    HW2 5155   0.602   9.744   2.121
34420SOL     OW 5156  12.832  13.471   9.013
34420SOL    HW1 5157  12.791  13.556   9.023
34420SOL    HW2 5158  12.922  13.490   8.988
34421SOL     OW 5159   7.131   9.576  14.203
34421SOL    HW1 5160   7.101   9.589  14.293
34421SOL    HW2 5161   7.168   9.660  14.178
34422SOL     OW 5162   3.979   5.754   8.310
34422SOL    HW1 5163   3.922   5.829   8.325
34422SOL    HW2 5164   3.927   5.679   8.338
34423SOL     OW 5165   7.983  11.723  14.347
34423SOL    HW1 5166   8.010  11.648  14.294
34423SOL    HW2 5167   8.038  11.795  14.316
34424SOL     OW 5168  14.761   6.412  13.711
34424SOL    HW1 5169  14.826   6.459  13.659
34424SOL    HW2 5170  14.806   6.390  13.792
34425SOL     OW 5171   3.376   0.315  10.154
34425SOL    HW1 5172   3.284   0.313  10.178
34425SOL    HW2 5173   3.423   0.308  10.237
34426SOL     OW 5174   3.967  10.112  14.338
34426SOL    HW1 5175   3.922  10.175  14.282
34426SOL    HW2 5176   3.914  10.107  14.417
34427SOL     OW 5177   8.103  11.513   5.710
34427SOL    HW1 5178   8.114  11.454   5.784
34427SOL    HW2 5179   8.119  11.459   5.633
34428SOL     OW 5180  11.793   7.561   0.339
34428SOL    HW1 5181  11.718   7.532   0.391
34428SOL    HW2 5182  11.864   7.569   0.402
34429SOL     OW 5183   8.631   2.072  10.581
34429SOL    HW1 5184   8.650   1.996  10.525
34429SOL    HW2 5185   8.546   2.051  10.621
34430SOL     OW 5186   6.060  14.850  12.789
34430SOL    HW1 5187   6.101   0.044  12.738
34430SOL    HW2 5188   6.004   0.021  12.851
34431SOL     OW 5189   1.452   0.625   6.414
34431SOL    HW1 5190   1.416   0.557   6.471
34431SOL    HW2 5191   1.534   0.588   6.381
34432SOL     OW 5192  11.983   3.673  14.693
34432SOL    HW1 5193  12.006   3.754  14.647
34432SOL    HW2 5194  11.945   3.702  14.776
34433SOL     OW 5195  10.032   3.297  12.264
34433SOL    HW1 5196  10.022   3.384  12.226
34433SOL    HW2 5197  10.126   3.288  12.280
34434SOL     OW 5198   7.071   9.207   4.912
34434SOL    HW1 5199   7.162   9.211   4.882
34434SOL    HW2 5200   7.047   9.298   4.929
34435SOL     OW 5201   6.979   8.069   5.537
34435SOL    HW1 5202   7.075   8.070   5.529
34435SOL    HW2 5203   6.957   7.976   5.534
34436SOL     OW 5204   6.742   2.639   7.060
34436SOL    HW1 5205   6.695   2.671   7.137
34436SOL    HW2 5206   6.681   2.577   7.019
34437SOL     OW 5207  12.745  13.019  11.896
34437SOL    HW1 5208  12.773  12.985  11.980
34437SOL    HW2 5209  12.649  13.015  11.899
34438SOL     OW 5210   7.180  12.594   0.576
34438SOL    HW1 5211   7.224  12.660   0.521
34438SOL    HW2 5212   7.100  12.637   0.606
34439SOL     OW 5213   9.598   2.051   9.785
34439SOL    HW1 5214   9.642   2.004   9.715
34439SOL    HW2 5215   9.637   2.016   9.866
34440SOL     OW 5216  10.079   8.975  13.017
34440SOL    HW1 5217  10.061   8.918  13.091
34440SOL    HW2 5218  10.078   8.917  12.941
34441SOL     OW 5219  10.788  12.979  12.452
34441SOL    HW1 5220  10.832  12.895  12.461
34441SOL    HW2 5221  10.806  13.007  12.362
34442SOL     OW 5222   9.249   3.320   0.876
34442SOL    HW1 5223   9.184   3.279   0.819
34442SOL    HW2 5224   9.322   3.257   0.878
34443SOL     OW 5225   7.659   4.583   9.918
34443SOL    HW1 5226   7.700   4.528   9.851
34443SOL    HW2 5227   7.678   4.538  10.001
34444SOL     OW 5228   2.691   7.045   5.374
34444SOL    HW1 5229   2.676   7.103   5.299
34444SOL    HW2 5230   2.735   6.968   5.336
34445SOL     OW 5231   7.367   8.492   5.848
34445SOL    HW1 5232   7.452   8.535   5.846
34445SOL    HW2 5233   7.304   8.564   5.845
34446SOL     OW 5234   0.947  11.247  13.846
34446SOL    HW1 5235   0.963  11.341  13.838
34446SOL    HW2 5236   1.010  11.218  13.913
34447SOL     OW 5237  14.759  14.413  14.096
34447SOL    HW1 5238  14.831  14.449  14.148
34447SOL    HW2 5239  14.725  14.341  14.148
34448SOL     OW 5240  13.765  12.818   7.181
34448SOL    HW1 5241  13.757  12.906   7.219
34448SOL    HW2 5242  13.679  12.779   7.195
34449SOL     OW 5243   5.340  13.730  12.091
34449SOL    HW1 5244   5.293  13.672  12.030
34449SOL    HW2 5245   5.337  13.684  12.175
34450SOL     OW 5246   2.931  12.966   7.869
34450SOL    HW1 5247   3.024  12.984   7.860
34450SOL    HW2 5248   2.901  13.023   7.940
34451SOL     OW 5249   6.548   3.525  14.144
34451SOL    HW1 5250   6.457   3.496  14.148
34451SOL    HW2 5251   6.573   3.540  14.236
34452SOL     OW 5252   4.984  13.222   4.635
34452SOL    HW1 5253   4.957  13.144   4.587
34452SOL    HW2 5254   4.903  13.256   4.673
34453SOL     OW 5255   9.969   0.987  13.200
34453SOL    HW1 5256   9.933   0.927  13.135
34453SOL    HW2 5257  10.042   1.031  13.154
34454SOL     OW 5258   3.589  11.823  10.498
34454SOL    HW1 5259   3.499  11.833  10.527
34454SOL    HW2 5260   3.641  11.820  10.578
34455SOL     OW 5261   4.012   0.272   9.564
34455SOL    HW1 5262   3.924   0.257   9.529
34455SOL    HW2 5263   4.050   0.339   9.507
34456SOL     OW 5264  14.847   5.886   8.834
34456SOL    HW1 5265  14.812   5.874   8.922
34456SOL    HW2 5266   0.007   5.975   8.834
34457SOL     OW 5267   6.183   4.666   5.659
34457SOL    HW1 5268   6.266   4.649   5.704
34457SOL    HW2 5269   6.119   4.674   5.730
34458SOL     OW 5270  10.680   0.700   9.947
34458SOL    HW1 5271  10.754   0.713  10.006
34458SOL    HW2 5272  10.693   0.612   9.911
34459SOL     OW 5273   9.972   4.887   1.617
34459SOL    HW1 5274  10.067   4.888   1.614
34459SOL    HW2 5275   9.951   4.834   1.694
34460SOL     OW 5276   4.702   5.951  12.407
34460SOL    HW1 5277   4.770   5.893  12.372
34460SOL    HW2 5278   4.746   6.035  12.418
34461SOL     OW 5279   1.074   7.395  14.087
34461SOL    HW1 5280   1.133   7.450  14.139
34461SOL    HW2 5281   1.089   7.423  13.997
34462SOL     OW 5282   4.464   5.878   8.759
34462SOL    HW1 5283   4.447   5.837   8.675
34462SOL    HW2 5284   4.528   5.946   8.740
34463SOL     OW 5285  12.135   1.093   2.081
34463SOL    HW1 5286  12.184   1.112   2.001
34463SOL    HW2 5287  12.104   1.178   2.112
34464SOL     OW 5288   3.000  10.156   4.238
34464SOL    HW1 5289   3.007  10.100   4.315
34464SOL    HW2 5290   3.066  10.224   4.251
34465SOL     OW 5291   6.861   6.540  14.838
34465SOL    HW1 5292   6.840   6.450  14.863
34465SOL    HW2 5293   6.932   6.565   0.022
34466SOL     OW 5294   6.586   5.068   8.442
34466SOL    HW1 5295   6.513   5.086   8.382
34466SOL    HW2 5296   6.620   5.154   8.466
34467SOL     OW 5297   0.541   6.926  12.796
34467SOL    HW1 5298   0.593   6.931  12.715
34467SOL    HW2 5299   0.606   6.922  12.866
34468SOL     OW 5300   6.879   6.860  10.596
34468SOL    HW1 5301   6.857   6.865  10.689
34468SOL    HW2 5302   6.952   6.798  10.592
34469SOL     OW 5303   9.776   1.196   1.875
34469SOL    HW1 5304   9.850   1.250   1.846
34469SOL    HW2 5305   9.746   1.237   1.955
34470SOL     OW 5306   1.734   2.463   9.854
34470SOL    HW1 5307   1.707   2.505   9.773
34470SOL    HW2 5308   1.803   2.402   9.828
34471SOL     OW 5309   8.685   7.289   8.526
34471SOL    HW1 5310   8.675   7.292   8.431
34471SOL    HW2 5311   8.648   7.372   8.556
34472SOL     OW 5312   6.614   8.734  11.363
34472SOL    HW1 5313   6.523   8.736  11.394
34472SOL    HW2 5314   6.640   8.643  11.373
34473SOL     OW 5315   7.544   9.127   3.332
34473SOL    HW1 5316   7.567   9.088   3.416
34473SOL    HW2 5317   7.557   9.057   3.268
34474SOL     OW 5318   5.774   9.696   1.938
34474SOL    HW1 5319   5.771   9.730   1.849
34474SOL    HW2 5320   5.862   9.660   1.947
34475SOL     OW 5321   1.287   4.083   3.518
34475SOL    HW1 5322   1.376   4.113   3.537
34475SOL    HW2 5323   1.286   4.069   3.423
34476SOL     OW 5324  11.142   6.987  10.660
34476SOL    HW1 5325  11.211   6.988  10.726
34476SOL    HW2 5326  11.189   6.978  10.577
34477SOL     OW 5327  14.184   5.179  14.042
34477SOL    HW1 5328  14.128   5.230  14.100
34477SOL    HW2 5329  14.216   5.107  14.097
34478SOL     OW 5330   6.332   1.048  13.253
34478SOL    HW1 5331   6.256   1.015  13.205
34478SOL    HW2 5332   6.310   1.138  13.276
34479SOL     OW 5333  14.261   0.033   5.114
34479SOL    HW1 5334  14.265   0.067   5.203
34479SOL    HW2 5335  14.334   0.075   5.069
34480SOL     OW 5336  10.689  14.033   0.567
34480SOL    HW1 5337  10.610  14.003   0.613
34480SOL    HW2 5338  10.736  14.086   0.631
34481SOL     OW 5339   8.175   9.332   9.083
34481SOL    HW1 5340   8.192   9.365   8.995
34481SOL    HW2 5341   8.258   9.340   9.129
34482SOL     OW 5342  10.431  12.438  11.169
34482SOL    HW1 5343  10.432  12.495  11.246
34482SOL    HW2 5344  10.473  12.489  11.101
34483SOL     OW 5345   3.568  11.764  14.259
34483SOL    HW1 5346   3.586  11.673  14.237
34483SOL    HW2 5347   3.655  11.803  14.271
34484SOL     OW 5348   8.187  14.829   4.289
34484SOL    HW1 5349   8.193   0.003   4.207
34484SOL    HW2 5350   8.252  14.870   4.346
34485SOL     OW 5351   5.809  13.175   9.551
34485SOL    HW1 5352   5.803  13.111   9.621
34485SOL    HW2 5353   5.762  13.252   9.583
34486SOL     OW 5354   4.595   2.191   5.843
34486SOL    HW1 5355   4.647   2.229   5.914
34486SOL    HW2 5356   4.540   2.126   5.886
34487SOL     OW 5357  12.695  14.684   3.968
34487SOL    HW1 5358  12.730  14.621   4.030
34487SOL    HW2 5359  12.772  14.726   3.930
34488SOL     OW 5360   9.168  13.373   5.939
34488SOL    HW1 5361   9.247  13.428   5.934
34488SOL    HW2 5362   9.184  13.302   5.878
34489SOL     OW 5363  13.962  12.565  11.538
34489SOL    HW1 5364  13.872  12.597  11.539
34489SOL    HW2 5365  13.954  12.473  11.512
34490SOL     OW 5366   4.126   3.229   1.240
34490SOL    HW1 5367   4.104   3.283   1.316
34490SOL    HW2 5368   4.212   3.261   1.213
34491SOL     OW 5369  13.568   0.250   0.345
34491SOL    HW1 5370  13.542   0.238   0.436
34491SOL    HW2 5371  13.487   0.272   0.300
34492SOL     OW 5372   0.218   2.491   3.126
34492SOL    HW1 5373   0.226   2.452   3.039
34492SOL    HW2 5374   0.208   2.417   3.186
34493SOL     OW 5375  13.840   4.436   3.529
34493SOL    HW1 5376  13.759   4.393   3.558
34493SOL    HW2 5377  13.810   4.518   3.489
34494SOL     OW 5378   2.805  13.615   8.866
34494SOL    HW1 5379   2.835  13.525   8.879
34494SOL    HW2 5380   2.754  13.635   8.944
34495SOL     OW 5381   7.714   4.895  13.882
34495SOL    HW1 5382   7.633   4.857  13.848
34495SOL    HW2 5383   7.782   4.862  13.824
34496SOL     OW 5384   4.869   5.816  12.737
34496SOL    HW1 5385   4.900   5.836  12.825
34496SOL    HW2 5386   4.800   5.750  12.750
34497SOL     OW 5387  13.971   0.004  14.143
34497SOL    HW1 5388  14.057  14.863  14.103
34497SOL    HW2 5389  13.926   0.063  14.083
34498SOL     OW 5390   7.203   5.596  13.368
34498SOL    HW1 5391   7.205   5.685  13.403
34498SOL    HW2 5392   7.288   5.585  13.325
34499SOL     OW 5393   7.839   7.224   2.551
34499SOL    HW1 5394   7.847   7.188   2.640
34499SOL    HW2 5395   7.809   7.314   2.564
34500SOL     OW 5396  13.536   2.775  14.052
34500SOL    HW1 5397  13.493   2.795  13.969
34500SOL    HW2 5398  13.499   2.838  14.114
34501SOL     OW 5399   3.666   9.730   8.792
34501SOL    HW1 5400   3.655   9.700   8.883
34501SOL    HW2 5401   3.660   9.650   8.740
34502SOL     OW 5402  12.744   7.765  12.220
34502SOL    HW1 5403  12.729   7.818  12.142
34502SOL    HW2 5404  12.665   7.775  12.273
34503SOL     OW 5405  14.116   5.654   0.160
34503SOL    HW1 5406  14.045   5.699   0.113
34503SOL    HW2 5407  14.123   5.569   0.116
34504SOL     OW 5408  14.789  10.269   0.448
34504SOL    HW1 5409  14.857  10.266   0.515
34504SOL    HW2 5410  14.742  10.350   0.465
34505SOL     OW 5411  10.388   3.407   2.680
34505SOL    HW1 5412  10.400   3.493   2.642
34505SOL    HW2 5413  10.325   3.364   2.622
34506SOL     OW 5414   1.049  11.169   0.929
34506SOL    HW1 5415   1.119  11.227   0.898
34506SOL    HW2 5416   1.063  11.162   1.023
34507SOL     OW 5417   9.561   3.788   9.439
34507SOL    HW1 5418   9.598   3.713   9.486
34507SOL    HW2 5419   9.553   3.856   9.506
34508SOL     OW 5420   3.695   2.908   8.905
34508SOL    HW1 5421   3.729   2.833   8.954
34508SOL    HW2 5422   3.699   2.980   8.967
34509SOL     OW 5423   0.026  12.840   5.509
34509SOL    HW1 5424   0.052  12.921   5.466
34509SOL    HW2 5425   0.056  12.851   5.599
34510SOL     OW 5426   1.121   2.965   9.900
34510SOL    HW1 5427   1.100   2.888   9.954
34510SOL    HW2 5428   1.051   3.027   9.920
34511SOL     OW 5429  12.912   1.248  14.455
34511SOL    HW1 5430  12.826   1.262  14.496
34511SOL    HW2 5431  12.900   1.280  14.365
34512SOL     OW 5432   0.385   2.603   8.101
34512SOL    HW1 5433   0.343   2.546   8.037
34512SOL    HW2 5434   0.447   2.655   8.050
34513SOL     OW 5435   2.999   0.462  12.512
34513SOL    HW1 5436   2.931   0.515  12.471
34513SOL    HW2 5437   3.055   0.434  12.439
34514SOL     OW 5438   2.832  11.700  12.563
34514SOL    HW1 5439   2.902  11.639  12.542
34514SOL    HW2 5440   2.878  11.782  12.583
34515SOL     OW 5441  14.673   4.261  14.380
34515SOL    HW1 5442  14.724   4.303  14.311
34515SOL    HW2 5443  14.713   4.175  14.390
34516SOL     OW 5444   1.986  10.143   4.996
34516SOL    HW1 5445   1.968  10.136   4.902
34516SOL    HW2 5446   2.078  10.118   5.004
34517SOL     OW 5447   8.761  14.015   6.144
34517SOL    HW1 5448   8.817  13.974   6.211
34517SOL    HW2 5449   8.677  13.970   6.152
34518SOL     OW 5450  14.218   2.528   6.331
34518SOL    HW1 5451  14.163   2.456   6.360
34518SOL    HW2 5452  14.246   2.571   6.412
34519SOL     OW 5453  10.119  11.209   3.894
34519SOL    HW1 5454  10.032  11.212   3.934
34519SOL    HW2 5455  10.172  11.162   3.959
34520SOL     OW 5456   5.804   4.616   0.197
34520SOL    HW1 5457   5.815   4.541   0.139
34520SOL    HW2 5458   5.758   4.581   0.273
34521SOL     OW 5459   2.783   8.520   3.956
34521SOL    HW1 5460   2.828   8.563   4.028
34521SOL    HW2 5461   2.816   8.430   3.958
34522SOL     OW 5462   5.675   8.224  10.885
34522SOL    HW1 5463   5.592   8.265  10.911
34522SOL    HW2 5464   5.653   8.132  10.873
34523SOL     OW 5465   0.206  11.169   1.555
34523SOL    HW1 5466   0.187  11.080   1.584
34523SOL    HW2 5467   0.152  11.225   1.612
34524SOL     OW 5468  13.655   3.655   9.494
34524SOL    HW1 5469  13.729   3.685   9.547
34524SOL    HW2 5470  13.642   3.564   9.520
34525SOL     OW 5471   0.883   2.859   5.418
34525SOL    HW1 5472   0.941   2.909   5.361
34525SOL    HW2 5473   0.799   2.857   5.372
34526SOL     OW 5474  12.324   3.559   1.287
34526SOL    HW1 5475  12.363   3.548   1.200
34526SOL    HW2 5476  12.291   3.649   1.288
34527SOL     OW 5477  13.876   8.224   8.630
34527SOL    HW1 5478  13.904   8.297   8.574
34527SOL    HW2 5479  13.955   8.199   8.678
34528SOL     OW 5480   3.651  11.462   3.880
34528SOL    HW1 5481   3.726  11.431   3.829
34528SOL    HW2 5482   3.677  11.447   3.971
34529SOL     OW 5483   1.951   1.918  13.421
34529SOL    HW1 5484   2.026   1.859  13.411
34529SOL    HW2 5485   1.912   1.893  13.505
34530SOL     OW 5486   6.401   7.094   9.692
34530SOL    HW1 5487   6.490   7.130   9.687
34530SOL    HW2 5488   6.396   7.033   9.618
34531SOL     OW 5489   7.322   6.985  12.844
34531SOL    HW1 5490   7.358   7.066  12.880
34531SOL    HW2 5491   7.319   7.000  12.750
34532SOL     OW 5492  14.453   7.669   9.671
34532SOL    HW1 5493  14.409   7.585   9.660
34532SOL    HW2 5494  14.539   7.647   9.707
34533SOL     OW 5495  10.263   7.107  12.894
34533SOL    HW1 5496  10.202   7.181  12.892
34533SOL    HW2 5497  10.339   7.139  12.942
34534SOL     OW 5498   6.622  10.764   5.430
34534SOL    HW1 5499   6.538  10.720   5.443
34534SOL    HW2 5500   6.687  10.697   5.453
34535SOL     OW 5501  10.036   4.087   4.317
34535SOL    HW1 5502  10.131   4.089   4.305
34535SOL    HW2 5503  10.020   4.011   4.373
34536SOL     OW 5504  12.154  10.384  12.212
34536SOL    HW1 5505  12.102  10.306  12.229
34536SOL    HW2 5506  12.243  10.351  12.196
34537SOL     OW 5507  14.146   0.459  10.507
34537SOL    HW1 5508  14.107   0.532  10.556
34537SOL    HW2 5509  14.083   0.441  10.437
34538SOL     OW 5510   5.769   2.376   5.578
34538SOL    HW1 5511   5.816   2.389   5.496
34538SOL    HW2 5512   5.684   2.416   5.564
34539SOL     OW 5513   1.197   9.315   1.120
34539SOL    HW1 5514   1.286   9.303   1.153
34539SOL    HW2 5515   1.182   9.409   1.124
34540SOL     OW 5516   2.142  10.128  12.688
34540SOL    HW1 5517   2.234  10.100  12.690
34540SOL    HW2 5518   2.092  10.047  12.681
34541SOL     OW 5519   7.366   5.002  10.235
34541SOL    HW1 5520   7.293   5.011  10.296
34541SOL    HW2 5521   7.437   4.966  10.288
34542SOL     OW 5522   1.235  14.362   9.288
34542SOL    HW1 5523   1.246  14.453   9.315
34542SOL    HW2 5524   1.312  14.344   9.234
34543SOL     OW 5525  13.308  10.140   9.252
34543SOL    HW1 5526  13.269  10.066   9.300
34543SOL    HW2 5527  13.247  10.156   9.180
34544SOL     OW 5528   0.573   3.064   4.478
34544SOL    HW1 5529   0.656   3.052   4.431
34544SOL    HW2 5530   0.599   3.075   4.570
34545SOL     OW 5531   2.790   7.210   8.802
34545SOL    HW1 5532   2.707   7.217   8.757
34545SOL    HW2 5533   2.813   7.300   8.827
34546SOL     OW 5534  14.449   9.660  11.367
34546SOL    HW1 5535  14.455   9.665  11.271
34546SOL    HW2 5536  14.408   9.743  11.393
34547SOL     OW 5537  10.290  12.674  14.458
34547SOL    HW1 5538  10.203  12.635  14.453
34547SOL    HW2 5539  10.338  12.618  14.518
34548SOL     OW 5540   6.725   1.730   4.554
34548SOL    HW1 5541   6.664   1.788   4.600
34548SOL    HW2 5542   6.811   1.769   4.570
34549SOL     OW 5543  12.870  11.377  14.756
34549SOL    HW1 5544  12.953  11.346  14.719
34549SOL    HW2 5545  12.881  11.472  14.759
34550SOL     OW 5546   6.795   9.678  11.677
34550SOL    HW1 5547   6.715   9.693  11.728
34550SOL    HW2 5548   6.768   9.691  11.586
34551SOL     OW 5549   1.245   5.952   7.990
34551SOL    HW1 5550   1.326   5.967   8.039
34551SOL    HW2 5551   1.237   6.028   7.933
34552SOL     OW 5552   6.579   7.947  14.709
34552SOL    HW1 5553   6.551   7.901  14.630
34552SOL    HW2 5554   6.672   7.966  14.695
34553SOL     OW 5555   7.582  12.874   4.097
34553SOL    HW1 5556   7.574  12.944   4.032
34553SOL    HW2 5557   7.535  12.800   4.058
34554SOL     OW 5558   6.508   6.701   2.404
34554SOL    HW1 5559   6.415   6.712   2.428
34554SOL    HW2 5560   6.509   6.711   2.309
34555SOL     OW 5561  12.035   6.612   5.170
34555SOL    HW1 5562  11.964   6.639   5.228
34555SOL    HW2 5563  12.007   6.642   5.083
34556SOL     OW 5564  14.410   3.321  11.633
34556SOL    HW1 5565  14.435   3.366  11.714
34556SOL    HW2 5566  14.334   3.370  11.602
34557SOL     OW 5567   1.937  13.121   0.341
34557SOL    HW1 5568   1.871  13.098   0.406
34557SOL    HW2 5569   1.935  13.049   0.278
34558SOL     OW 5570   6.836   5.254   5.104
34558SOL    HW1 5571   6.912   5.303   5.072
34558SOL    HW2 5572   6.837   5.173   5.053
34559SOL     OW 5573  14.053   7.025   2.930
34559SOL    HW1 5574  14.024   7.085   2.999
34559SOL    HW2 5575  13.973   6.978   2.904
34560SOL     OW 5576  11.887   5.851  12.191
34560SOL    HW1 5577  11.943   5.924  12.215
34560SOL    HW2 5578  11.894   5.847  12.095
34561SOL     OW 5579  11.063   7.816   8.661
34561SOL    HW1 5580  11.156   7.830   8.641
34561SOL    HW2 5581  11.058   7.726   8.691
34562SOL     OW 5582  14.160  12.287   1.936
34562SOL    HW1 5583  14.119  12.289   2.022
34562SOL    HW2 5584  14.111  12.221   1.887
34563SOL     OW 5585   0.030   7.167  12.282
34563SOL    HW1 5586   0.122   7.155  12.306
34563SOL    HW2 5587  14.867   7.214  12.357
34564SOL     OW 5588   3.796   4.009  12.014
34564SOL    HW1 5589   3.725   3.946  12.026
34564SOL    HW2 5590   3.751   4.093  12.000
34565SOL     OW 5591  14.783   1.376   9.548
34565SOL    HW1 5592  14.794   1.282   9.534
34565SOL    HW2 5593  14.692   1.393   9.522
34566SOL     OW 5594   6.166  13.710   8.891
34566SOL    HW1 5595   6.137  13.619   8.898
34566SOL    HW2 5596   6.089  13.761   8.917
34567SOL     OW 5597  11.950   1.306  12.558
34567SOL    HW1 5598  12.029   1.358  12.569
34567SOL    HW2 5599  11.886   1.367  12.521
34568SOL     OW 5600  10.915  11.215  11.717
34568SOL    HW1 5601  10.857  11.140  11.702
34568SOL    HW2 5602  11.003  11.180  11.706
34569SOL     OW 5603   2.976   0.705   6.074
34569SOL    HW1 5604   2.896   0.742   6.113
34569SOL    HW2 5605   2.966   0.722   5.980
34570SOL     OW 5606   0.479  12.235   0.593
34570SOL    HW1 5607   0.459  12.153   0.640
34570SOL    HW2 5608   0.414  12.297   0.626
34571SOL     OW 5609   7.336   5.572   0.630
34571SOL    HW1 5610   7.363   5.485   0.657
34571SOL    HW2 5611   7.418   5.619   0.614
34572SOL     OW 5612  12.777   8.390   2.915
34572SOL    HW1 5613  12.853   8.336   2.895
34572SOL    HW2 5614  12.811   8.479   2.921
34573SOL     OW 5615  11.194   0.811  10.091
34573SOL    HW1 5616  11.163   0.841  10.176
34573SOL    HW2 5617  11.140   0.734  10.072
34574SOL     OW 5618  14.043   1.236   4.727
34574SOL    HW1 5619  14.007   1.263   4.643
34574SOL    HW2 5620  13.968   1.236   4.787
34575SOL     OW 5621   4.063   7.142   2.405
34575SOL    HW1 5622   4.090   7.206   2.338
34575SOL    HW2 5623   4.074   7.189   2.488
34576SOL     OW 5624   8.363   4.201  12.059
34576SOL    HW1 5625   8.439   4.148  12.084
34576SOL    HW2 5626   8.381   4.227  11.968
34577SOL     OW 5627  14.743   8.440   4.211
34577SOL    HW1 5628  14.791   8.367   4.172
34577SOL    HW2 5629  14.699   8.482   4.136
34578SOL     OW 5630   2.830   3.922   2.102
34578SOL    HW1 5631   2.745   3.900   2.063
34578SOL    HW2 5632   2.861   3.997   2.051
34579SOL     OW 5633  13.504   0.874  13.926
34579SOL    HW1 5634  13.497   0.967  13.905
34579SOL    HW2 5635  13.419   0.837  13.902
34580SOL     OW 5636   0.510  14.323   2.959
34580SOL    HW1 5637   0.423  14.340   2.922
34580SOL    HW2 5638   0.544  14.411   2.978
34581SOL     OW 5639   2.580  11.256   5.159
34581SOL    HW1 5640   2.639  11.306   5.102
34581SOL    HW2 5641   2.587  11.300   5.244
34582SOL     OW 5642  13.648  13.839  11.436
34582SOL    HW1 5643  13.648  13.808  11.346
34582SOL    HW2 5644  13.581  13.787  11.480
34583SOL     OW 5645   7.851   1.717  11.920
34583SOL    HW1 5646   7.790   1.779  11.880
34583SOL    HW2 5647   7.922   1.771  11.954
34584SOL     OW 5648   1.136   1.897  10.086
34584SOL    HW1 5649   1.231   1.883  10.086
34584SOL    HW2 5650   1.099   1.809  10.074
34585SOL     OW 5651   0.279   2.046   2.809
34585SOL    HW1 5652   0.202   2.060   2.863
34585SOL    HW2 5653   0.348   2.022   2.871
34586SOL     OW 5654   2.280  14.219  13.927
34586SOL    HW1 5655   2.185  14.230  13.929
34586SOL    HW2 5656   2.309  14.274  13.854
34587SOL     OW 5657   4.809  14.105  10.969
34587SOL    HW1 5658   4.737  14.125  11.029
34587SOL    HW2 5659   4.850  14.027  11.007
34588SOL     OW 5660  12.715   5.736  11.440
34588SOL    HW1 5661  12.803   5.710  11.468
34588SOL    HW2 5662  12.658   5.667  11.474
34589SOL     OW 5663   6.262   3.352   5.653
34589SOL    HW1 5664   6.233   3.261   5.664
34589SOL    HW2 5665   6.342   3.345   5.600
34590SOL     OW 5666  10.214   1.882  11.817
34590SOL    HW1 5667  10.161   1.955  11.850
34590SOL    HW2 5668  10.299   1.920  11.797
34591SOL     OW 5669   7.221  13.802  10.006
34591SOL    HW1 5670   7.204  13.712   9.977
34591SOL    HW2 5671   7.135  13.834  10.033
34592SOL     OW 5672  12.468  12.033  13.906
34592SOL    HW1 5673  12.426  11.955  13.870
34592SOL    HW2 5674  12.416  12.055  13.984
34593SOL     OW 5675  12.468  11.242  12.171
34593SOL    HW1 5676  12.510  11.315  12.216
34593SOL    HW2 5677  12.376  11.247  12.198
34594SOL     OW 5678   3.820   3.639   9.179
34594SOL    HW1 5679   3.833   3.730   9.204
34594SOL    HW2 5680   3.774   3.600   9.253
34595SOL     OW 5681   6.282   6.292   6.942
34595SOL    HW1 5682   6.308   6.381   6.968
34595SOL    HW2 5683   6.365   6.248   6.923
34596SOL     OW 5684   1.226  10.703   5.980
34596SOL    HW1 5685   1.297  10.692   6.044
34596SOL    HW2 5686   1.152  10.656   6.018
34597SOL     OW 5687   6.388   3.389  13.398
34597SOL    HW1 5688   6.363   3.465  13.451
34597SOL    HW2 5689   6.406   3.426  13.312
34598SOL     OW 5690  11.732   2.045   9.118
34598SOL    HW1 5691  11.790   2.117   9.143
34598SOL    HW2 5692  11.712   2.001   9.201
34599SOL     OW 5693  11.415   7.666   5.768
34599SOL    HW1 5694  11.370   7.588   5.734
34599SOL    HW2 5695  11.372   7.739   5.724
34600SOL     OW 5696  11.687   9.644   9.554
34600SOL    HW1 5697  11.751   9.626   9.623
34600SOL    HW2 5698  11.718   9.724   9.512
34601SOL     OW 5699  12.641  10.208   7.900
34601SOL    HW1 5700  12.668  10.299   7.888
34601SOL    HW2 5701  12.689  10.159   7.833
34602SOL     OW 5702   0.505   3.555   3.118
34602SOL    HW1 5703   0.524   3.505   3.197
34602SOL    HW2 5704   0.433   3.613   3.143
34603SOL     OW 5705   8.552   9.920   2.695
34603SOL    HW1 5706   8.493   9.995   2.700
34603SOL    HW2 5707   8.518   9.867   2.623
34604SOL     OW 5708  14.214  14.230   9.088
34604SOL    HW1 5709  14.245  14.139   9.083
34604SOL    HW2 5710  14.187  14.242   9.179
34605SOL     OW 5711  11.641  10.102  10.229
34605SOL    HW1 5712  11.719  10.157  10.220
34605SOL    HW2 5713  11.580  10.155  10.280
34606SOL     OW 5714   0.275   7.401  10.342
34606SOL    HW1 5715   0.321   7.364  10.417
34606SOL    HW2 5716   0.283   7.496  10.353
34607SOL     OW 5717   4.243  11.060   6.498
34607SOL    HW1 5718   4.338  11.058   6.501
34607SOL    HW2 5719   4.217  10.968   6.503
34608SOL     OW 5720   0.379   3.361  14.357
34608SOL    HW1 5721   0.310   3.323  14.411
34608SOL    HW2 5722   0.460   3.319  14.387
34609SOL     OW 5723   7.699   1.751   9.110
34609SOL    HW1 5724   7.738   1.836   9.131
34609SOL    HW2 5725   7.653   1.765   9.027
34610SOL     OW 5726   2.962   4.982   9.238
34610SOL    HW1 5727   3.025   4.911   9.221
34610SOL    HW2 5728   2.879   4.937   9.251
34611SOL     OW 5729   9.278   3.687   3.095
34611SOL    HW1 5730   9.197   3.642   3.121
34611SOL    HW2 5731   9.337   3.677   3.169
34612SOL     OW 5732  14.200   8.878   7.501
34612SOL    HW1 5733  14.112   8.868   7.463
34612SOL    HW2 5734  14.246   8.932   7.437
34613SOL     OW 5735  14.045   7.295   2.737
34613SOL    HW1 5736  14.017   7.236   2.808
34613SOL    HW2 5737  14.139   7.306   2.751
34614SOL     OW 5738  10.653  10.515  12.369
34614SOL    HW1 5739  10.628  10.595  12.322
34614SOL    HW2 5740  10.708  10.545  12.441
34615SOL     OW 5741   3.637   9.297   3.390
34615SOL    HW1 5742   3.713   9.350   3.411
34615SOL    HW2 5743   3.660   9.254   3.308
34616SOL     OW 5744   6.814   1.257   7.756
34616SOL    HW1 5745   6.734   1.309   7.742
34616SOL    HW2 5746   6.793   1.171   7.720
34617SOL     OW 5747   3.908  13.017   4.066
34617SOL    HW1 5748   3.872  12.933   4.096
34617SOL    HW2 5749   3.835  13.058   4.019
34618SOL     OW 5750   2.294   2.539  10.888
34618SOL    HW1 5751   2.249   2.623  10.891
34618SOL    HW2 5752   2.339   2.540  10.804
34619SOL     OW 5753   5.979  11.882  14.372
34619SOL    HW1 5754   6.073  11.889  14.360
34619SOL    HW2 5755   5.966  11.796  14.413
34620SOL     OW 5756   1.963   9.512  14.473
34620SOL    HW1 5757   1.915   9.534  14.393
34620SOL    HW2 5758   1.920   9.434  14.507
34621SOL     OW 5759   5.028   3.361  14.626
34621SOL    HW1 5760   5.085   3.338  14.553
34621SOL    HW2 5761   4.942   3.329  14.600
34622SOL     OW 5762  13.434   8.652   5.782
34622SOL    HW1 5763  13.495   8.624   5.714
34622SOL    HW2 5764  13.487   8.660   5.861
34623SOL     OW 5765  13.718   1.981   5.612
34623SOL    HW1 5766  13.711   1.908   5.550
34623SOL    HW2 5767  13.711   2.060   5.558
34624SOL     OW 5768   0.845  14.639   8.843
34624SOL    HW1 5769   0.858  14.679   8.929
34624SOL    HW2 5770   0.758  14.599   8.847
34625SOL     OW 5771  12.774  14.688  11.038
34625SOL    HW1 5772  12.680  14.672  11.041
34625SOL    HW2 5773  12.810  14.616  10.987
34626SOL     OW 5774  12.873  10.588   6.739
34626SOL    HW1 5775  12.792  10.637   6.755
34626SOL    HW2 5776  12.845  10.497   6.733
34627SOL     OW 5777  10.737   2.901  13.310
34627SOL    HW1 5778  10.729   2.815  13.351
34627SOL    HW2 5779  10.819   2.895  13.259
34628SOL     OW 5780  12.631  10.747  12.708
34628SOL    HW1 5781  12.722  10.763  12.732
34628SOL    HW2 5782  12.614  10.809  12.636
34629SOL     OW 5783  14.717  10.982   4.319
34629SOL    HW1 5784  14.678  10.944   4.398
34629SOL    HW2 5785  14.724  10.909   4.258
34630SOL     OW 5786  10.044  10.603   0.382
34630SOL    HW1 5787  10.080  10.684   0.345
34630SOL    HW2 5788  10.062  10.609   0.476
34631SOL     OW 5789   7.913   6.683  13.196
34631SOL    HW1 5790   7.864   6.710  13.119
34631SOL    HW2 5791   7.937   6.592  13.179
34632SOL     OW 5792   8.133   1.750   9.617
34632SOL    HW1 5793   8.194   1.768   9.688
34632SOL    HW2 5794   8.056   1.713   9.660
34633SOL     OW 5795  14.521   7.860  14.218
34633SOL    HW1 5796  14.499   7.895  14.305
34633SOL    HW2 5797  14.615   7.877  14.209
34634SOL     OW 5798   1.796   5.919   6.308
34634SOL    HW1 5799   1.712   5.891   6.272
34634SOL    HW2 5800   1.861   5.889   6.245
34635SOL     OW 5801  14.275  11.488  11.026
34635SOL    HW1 5802  14.317  11.436  11.095
34635SOL    HW2 5803  14.183  11.488  11.050
34636SOL     OW 5804  13.395  10.990   9.455
34636SOL    HW1 5805  13.321  11.033   9.412
34636SOL    HW2 5806  13.471  11.041   9.426
34637SOL     OW 5807  13.583   9.649   6.112
34637SOL    HW1 5808  13.671   9.678   6.089
34637SOL    HW2 5809  13.546   9.723   6.161
34638SOL     OW 5810  14.047   2.525   1.622
34638SOL    HW1 5811  14.000   2.608   1.633
34638SOL    HW2 5812  13.979   2.463   1.595
34639SOL     OW 5813   5.621   1.775  11.954
34639SOL    HW1 5814   5.579   1.752  12.037
34639SOL    HW2 5815   5.627   1.692  11.906
34640SOL     OW 5816  11.480   0.280   2.246
34640SOL    HW1 5817  11.439   0.272   2.160
34640SOL    HW2 5818  11.446   0.206   2.296
34641SOL     OW 5819   1.878   3.167   6.467
34641SOL    HW1 5820   1.946   3.100   6.472
34641SOL    HW2 5821   1.878   3.209   6.553
34642SOL     OW 5822   4.414   5.410  11.149
34642SOL    HW1 5823   4.502   5.431  11.179
34642SOL    HW2 5824   4.362   5.487  11.170
34643SOL     OW 5825   2.917  12.792  11.413
34643SOL    HW1 5826   2.914  12.888  11.416
34643SOL    HW2 5827   2.931  12.766  11.504
34644SOL     OW 5828   7.977   6.582  11.622
34644SOL    HW1 5829   7.882   6.595  11.612
34644SOL    HW2 5830   7.998   6.512  11.561
34645SOL     OW 5831  12.648   4.167  14.613
34645SOL    HW1 5832  12.643   4.131  14.524
34645SOL    HW2 5833  12.594   4.245  14.610
34646SOL     OW 5834   8.123   3.553   3.054
34646SOL    HW1 5835   8.195   3.494   3.033
34646SOL    HW2 5836   8.050   3.521   3.001
34647SOL     OW 5837  13.505   1.056   0.279
34647SOL    HW1 5838  13.599   1.078   0.280
34647SOL    HW2 5839  13.502   0.964   0.306
34648SOL     OW 5840  13.266   5.711   4.349
34648SOL    HW1 5841  13.254   5.804   4.331
34648SOL    HW2 5842  13.337   5.685   4.289
34649SOL     OW 5843  13.087  13.368   9.592
34649SOL    HW1 5844  13.137  13.402   9.667
34649SOL    HW2 5845  13.000  13.352   9.627
34650SOL     OW 5846  11.236  14.494   5.434
34650SOL    HW1 5847  11.231  14.568   5.373
34650SOL    HW2 5848  11.290  14.526   5.506
34651SOL     OW 5849   9.348   2.875   7.491
34651SOL    HW1 5850   9.344   2.952   7.548
34651SOL    HW2 5851   9.441   2.857   7.483
34652SOL     OW 5852   7.920   1.728   2.334
34652SOL    HW1 5853   8.008   1.763   2.320
34652SOL    HW2 5854   7.933   1.650   2.387
34653SOL     OW 5855   8.122  10.517  14.573
34653SOL    HW1 5856   8.142  10.611  14.577
34653SOL    HW2 5857   8.028  10.513  14.560
34654SOL     OW 5858  13.852   3.871  13.308
34654SOL    HW1 5859  13.763   3.902  13.293
34654SOL    HW2 5860  13.895   3.882  13.223
34655SOL     OW 5861   6.816   3.391   6.206
34655SOL    HW1 5862   6.739   3.420   6.158
34655SOL    HW2 5863   6.889   3.406   6.145
34656SOL     OW 5864  14.099  12.600   6.594
34656SOL    HW1 5865  14.042  12.666   6.632
34656SOL    HW2 5866  14.064  12.585   6.506
34657SOL     OW 5867  10.754   0.406  12.502
34657SOL    HW1 5868  10.809   0.377  12.575
34657SOL    HW2 5869  10.816   0.439  12.437
34658SOL     OW 5870   9.746   6.514  13.521
34658SOL    HW1 5871   9.823   6.525  13.467
34658SOL    HW2 5872   9.776   6.531  13.610
34659SOL     OW 5873  13.681   9.728   4.607
34659SOL    HW1 5874  13.616   9.669   4.568
34659SOL    HW2 5875  13.710   9.682   4.685
34660SOL     OW 5876   8.487   0.550   7.390
34660SOL    HW1 5877   8.415   0.605   7.420
34660SOL    HW2 5878   8.495   0.570   7.297
34661SOL     OW 5879   9.898   9.237   1.910
34661SOL    HW1 5880   9.986   9.201   1.903
34661SOL    HW2 5881   9.851   9.202   1.834
34662SOL     OW 5882  10.861   0.868   6.521
34662SOL    HW1 5883  10.783   0.812   6.517
34662SOL    HW2 5884  10.910   0.836   6.596
34663SOL     OW 5885  13.499   5.866  10.910
34663SOL    HW1 5886  13.496   5.810  10.988
34663SOL    HW2 5887  13.419   5.845  10.862
34664SOL     OW 5888   5.028   0.097  13.620
34664SOL    HW1 5889   5.107   0.148  13.637
34664SOL    HW2 5890   4.957   0.161  13.621
34665SOL     OW 5891  12.854   7.203   1.980
34665SOL    HW1 5892  12.926   7.140   1.968
34665SOL    HW2 5893  12.861   7.261   1.904
34666SOL     OW 5894   7.388  11.262   1.670
34666SOL    HW1 5895   7.447  11.335   1.650
34666SOL    HW2 5896   7.444  11.198   1.715
34667SOL     OW 5897  14.641   4.191   6.866
34667SOL    HW1 5898  14.631   4.238   6.783
34667SOL    HW2 5899  14.632   4.258   6.933
34668SOL     OW 5900  10.979   8.890   9.851
34668SOL    HW1 5901  10.893   8.877   9.812
34668SOL    HW2 5902  11.019   8.959   9.798
34669SOL     OW 5903  11.638   6.129   5.398
34669SOL    HW1 5904  11.546   6.121   5.374
34669SOL    HW2 5905  11.667   6.212   5.359
34670SOL     OW 5906   0.588   9.090  14.483
34670SOL    HW1 5907   0.635   9.089  14.400
34670SOL    HW2 5908   0.524   9.020  14.475
34671SOL     OW 5909  13.224  11.167   9.382
34671SOL    HW1 5910  13.295  11.225   9.408
34671SOL    HW2 5911  13.182  11.212   9.308
34672SOL     OW 5912   6.553   0.514  10.432
34672SOL    HW1 5913   6.512   0.428  10.445
34672SOL    HW2 5914   6.480   0.574  10.418
34673SOL     OW 5915   7.330   9.040   5.236
34673SOL    HW1 5916   7.357   9.088   5.157
34673SOL    HW2 5917   7.260   9.093   5.274
34674SOL     OW 5918  12.349   2.512  13.632
34674SOL    HW1 5919  12.339   2.606  13.619
34674SOL    HW2 5920  12.280   2.473  13.579
34675SOL     OW 5921  10.803  13.061  13.413
34675SOL    HW1 5922  10.812  13.156  13.401
34675SOL    HW2 5923  10.770  13.051  13.502
34676SOL     OW 5924  14.188  12.501   5.887
34676SOL    HW1 5925  14.136  12.432   5.846
34676SOL    HW2 5926  14.262  12.454   5.926
34677SOL     OW 5927   7.471  10.443   9.921
34677SOL    HW1 5928   7.459  10.451  10.016
34677SOL    HW2 5929   7.427  10.361   9.898
34678SOL     OW 5930   5.188  12.307   5.779
34678SOL    HW1 5931   5.267  12.315   5.726
34678SOL    HW2 5932   5.128  12.373   5.742
34679SOL     OW 5933   8.898  10.097  10.990
34679SOL    HW1 5934   8.991  10.093  10.965
34679SOL    HW2 5935   8.866  10.008  10.977
34680SOL     OW 5936  10.416   2.789  11.727
34680SOL    HW1 5937  10.451   2.877  11.713
34680SOL    HW2 5938  10.339   2.784  11.670
34681SOL     OW 5939   5.745   1.135  14.480
34681SOL    HW1 5940   5.799   1.211  14.458
34681SOL    HW2 5941   5.656   1.170  14.484
34682SOL     OW 5942   2.004   4.974  12.656
34682SOL    HW1 5943   2.066   5.013  12.718
34682SOL    HW2 5944   1.938   5.041  12.642
34683SOL     OW 5945   2.501   1.774   0.850
34683SOL    HW1 5946   2.444   1.739   0.918
34683SOL    HW2 5947   2.587   1.781   0.892
34684SOL     OW 5948   3.367   7.302   9.124
34684SOL    HW1 5949   3.280   7.275   9.096
34684SOL    HW2 5950   3.415   7.221   9.136
34685SOL     OW 5951  10.079   4.588  14.134
34685SOL    HW1 5952  10.034   4.620  14.212
34685SOL    HW2 5953  10.011   4.579  14.068
34686SOL     OW 5954  14.438  12.081   8.466
34686SOL    HW1 5955  14.520  12.085   8.515
34686SOL    HW2 5956  14.411  12.172   8.456
34687SOL     OW 5957   7.962   5.745   0.242
34687SOL    HW1 5958   7.952   5.659   0.200
34687SOL    HW2 5959   7.873   5.781   0.243
34688SOL     OW 5960   2.182   6.859   3.980
34688SOL    HW1 5961   2.255   6.922   3.973
34688SOL    HW2 5962   2.110   6.911   4.014
34689SOL     OW 5963   6.066  11.919   1.799
34689SOL    HW1 5964   6.068  11.860   1.723
34689SOL    HW2 5965   5.997  11.982   1.779
34690SOL     OW 5966   8.375   9.451   5.761
34690SOL    HW1 5967   8.377   9.488   5.673
34690SOL    HW2 5968   8.342   9.523   5.816
34691SOL     OW 5969  14.390   6.424  11.649
34691SOL    HW1 5970  14.302   6.394  11.624
34691SOL    HW2 5971  14.444   6.407  11.571
34692SOL     OW 5972   3.061   1.703   2.610
34692SOL    HW1 5973   3.066   1.609   2.623
34692SOL    HW2 5974   3.012   1.714   2.528
34693SOL     OW 5975   8.953   0.856  10.720
34693SOL    HW1 5976   9.015   0.928  10.723
34693SOL    HW2 5977   8.929   0.841  10.811
34694SOL     OW 5978   2.711  12.330  11.051
34694SOL    HW1 5979   2.799  12.337  11.013
34694SOL    HW2 5980   2.653  12.328  10.974
34695SOL     OW 5981   7.185   6.174   5.390
34695SOL    HW1 5982   7.199   6.082   5.369
34695SOL    HW2 5983   7.238   6.189   5.468
34696SOL     OW 5984   1.908   6.691   6.190
34696SOL    HW1 5985   1.829   6.656   6.148
34696SOL    HW2 5986   1.928   6.770   6.140
34697SOL     OW 5987   2.199   3.727   8.090
34697SOL    HW1 5988   2.273   3.785   8.109
34697SOL    HW2 5989   2.204   3.660   8.158
34698SOL     OW 5990   2.666   7.690   5.744
34698SOL    HW1 5991   2.603   7.704   5.815
34698SOL    HW2 5992   2.678   7.595   5.740
34699SOL     OW 5993  11.915   0.899   6.099
34699SOL    HW1 5994  11.821   0.915   6.091
34699SOL    HW2 5995  11.927   0.812   6.059
34700SOL     OW 5996  11.755   0.649   1.725
34700SOL    HW1 5997  11.725   0.728   1.768
34700SOL    HW2 5998  11.827   0.677   1.669
34701SOL     OW 5999  10.780  13.832   4.231
34701SOL    HW1 6000  10.745  13.841   4.320
34701SOL    HW2 6001  10.728  13.894   4.180
34702SOL     OW 6002   7.143   7.005   0.925
34702SOL    HW1 6003   7.180   6.967   0.845
34702SOL    HW2 6004   7.213   7.000   0.989
34703SOL     OW 6005   0.595   1.983   5.784
34703SOL    HW1 6006   0.662   1.915   5.778
34703SOL    HW2 6007   0.641   2.059   5.821
34704SOL     OW 6008  12.668   5.436  10.219
34704SOL    HW1 6009  12.574   5.422  10.210
34704SOL    HW2 6010  12.686   5.418  10.311
34705SOL     OW 6011  12.901   9.826   7.448
34705SOL    HW1 6012  12.954   9.765   7.499
34705SOL    HW2 6013  12.892   9.783   7.363
34706SOL     OW 6014  12.226  11.560  12.952
34706SOL    HW1 6015  12.281  11.574  13.028
34706SOL    HW2 6016  12.144  11.525  12.987
34707SOL     OW 6017   8.653   6.937  14.075
34707SOL    HW1 6018   8.725   6.876  14.090
34707SOL    HW2 6019   8.580   6.901  14.126
34708SOL     OW 6020   4.714   6.647  12.282
34708SOL    HW1 6021   4.804   6.629  12.256
34708SOL    HW2 6022   4.675   6.561  12.296
34709SOL     OW 6023   8.398   7.869  12.826
34709SOL    HW1 6024   8.349   7.946  12.798
34709SOL    HW2 6025   8.362   7.797  12.774
34710SOL     OW 6026  11.566  12.072  13.825
34710SOL    HW1 6027  11.628  12.129  13.780
34710SOL    HW2 6028  11.587  12.083  13.918
34711SOL     OW 6029   5.174   8.077  11.394
34711SOL    HW1 6030   5.240   8.108  11.331
34711SOL    HW2 6031   5.091   8.085  11.347
34712SOL     OW 6032  12.962  12.723  10.113
34712SOL    HW1 6033  12.951  12.663  10.187
34712SOL    HW2 6034  13.010  12.672  10.047
34713SOL     OW 6035  10.109  13.031  14.318
34713SOL    HW1 6036  10.039  13.094  14.300
34713SOL    HW2 6037  10.089  12.956  14.262
34714SOL     OW 6038  13.291  11.136   0.144
34714SOL    HW1 6039  13.338  11.212   0.109
34714SOL    HW2 6040  13.201  11.167   0.157
34715SOL     OW 6041  14.849  11.052   8.376
34715SOL    HW1 6042  14.868  11.129   8.430
34715SOL    HW2 6043  14.780  11.082   8.316
34716SOL     OW 6044   7.455  14.506   5.054
34716SOL    HW1 6045   7.371  14.548   5.033
34716SOL    HW2 6046   7.487  14.553   5.131
34717SOL     OW 6047  14.345   4.690   9.983
34717SOL    HW1 6048  14.392   4.612   9.952
34717SOL    HW2 6049  14.362   4.693  10.077
34718SOL     OW 6050  14.806  13.104  10.156
34718SOL    HW1 6051   0.007  13.144  10.114
34718SOL    HW2 6052  14.731  13.135  10.104
34719SOL     OW 6053   8.015   1.228  10.757
34719SOL    HW1 6054   7.928   1.254  10.725
34719SOL    HW2 6055   8.018   1.134  10.743
34720SOL     OW 6056   6.074   8.964   5.163
34720SOL    HW1 6057   6.099   8.908   5.089
34720SOL    HW2 6058   6.157   8.985   5.206
34721SOL     OW 6059   6.773  11.198   4.995
34721SOL    HW1 6060   6.801  11.113   4.961
34721SOL    HW2 6061   6.795  11.260   4.925
34722SOL     OW 6062  13.313  12.474   9.630
34722SOL    HW1 6063  13.388  12.470   9.571
34722SOL    HW2 6064  13.352  12.483   9.717
34723SOL     OW 6065   6.268   8.664   9.805
34723SOL    HW1 6066   6.271   8.644   9.712
34723SOL    HW2 6067   6.224   8.589   9.845
34724SOL     OW 6068   4.040  14.552  13.993
34724SOL    HW1 6069   4.078  14.625  13.944
34724SOL    HW2 6070   4.111  14.520  14.048
34725SOL     OW 6071  10.121   6.870   4.944
34725SOL    HW1 6072  10.098   6.830   5.028
34725SOL    HW2 6073  10.103   6.802   4.879
34726SOL     OW 6074   6.741   0.943   2.765
34726SOL    HW1 6075   6.739   0.910   2.855
34726SOL    HW2 6076   6.649   0.960   2.744
34727SOL     OW 6077   3.618   7.257  11.570
34727SOL    HW1 6078   3.605   7.162  11.574
34727SOL    HW2 6079   3.533   7.293  11.548
34728SOL     OW 6080  11.370  12.029   3.671
34728SOL    HW1 6081  11.279  12.002   3.662
34728SOL    HW2 6082  11.397  12.051   3.581
34729SOL     OW 6083   2.433   4.878  14.137
34729SOL    HW1 6084   2.418   4.966  14.171
34729SOL    HW2 6085   2.376   4.872  14.060
34730SOL     OW 6086  10.398  13.765   8.940
34730SOL    HW1 6087  10.481  13.722   8.959
34730SOL    HW2 6088  10.354  13.770   9.025
34731SOL     OW 6089  11.394   1.319  13.889
34731SOL    HW1 6090  11.333   1.309  13.816
34731SOL    HW2 6091  11.464   1.257  13.871
34732SOL     OW 6092   4.519  13.115  14.589
34732SOL    HW1 6093   4.493  13.029  14.554
34732SOL    HW2 6094   4.437  13.155  14.616
34733SOL     OW 6095   3.178   5.970  13.994
34733SOL    HW1 6096   3.272   5.990  13.989
34733SOL    HW2 6097   3.136   6.039  13.943
34734SOL     OW 6098   4.101  10.047   2.903
34734SOL    HW1 6099   4.106  10.138   2.876
34734SOL    HW2 6100   4.192  10.017   2.905
34735SOL     OW 6101  13.455   0.326  14.697
34735SOL    HW1 6102  13.517   0.367  14.757
34735SOL    HW2 6103  13.437   0.393  14.632
34736SOL     OW 6104   2.813  13.107   3.467
34736SOL    HW1 6105   2.771  13.188   3.439
34736SOL    HW2 6106   2.864  13.079   3.391
34737SOL     OW 6107   1.262  12.223  11.333
34737SOL    HW1 6108   1.351  12.243  11.361
34737SOL    HW2 6109   1.218  12.308  11.328
34738SOL     OW 6110  14.155   8.330   0.986
34738SOL    HW1 6111  14.117   8.292   0.906
34738SOL    HW2 6112  14.136   8.423   0.978
34739SOL     OW 6113  13.675   2.100   3.693
34739SOL    HW1 6114  13.650   2.036   3.626
34739SOL    HW2 6115  13.606   2.166   3.691
34740SOL     OW 6116   7.826  13.482   1.271
34740SOL    HW1 6117   7.879  13.405   1.293
34740SOL    HW2 6118   7.861  13.551   1.328
34741SOL     OW 6119  10.768  13.626   1.687
34741SOL    HW1 6120  10.817  13.545   1.702
34741SOL    HW2 6121  10.710  13.606   1.613
34742SOL     OW 6122   2.792  13.537   4.961
34742SOL    HW1 6123   2.795  13.591   5.040
34742SOL    HW2 6124   2.847  13.584   4.898
34743SOL     OW 6125  12.785   8.151   3.247
34743SOL    HW1 6126  12.870   8.123   3.281
34743SOL    HW2 6127  12.731   8.166   3.324
34744SOL     OW 6128   2.265   2.305   8.755
34744SOL    HW1 6129   2.180   2.328   8.719
34744SOL    HW2 6130   2.248   2.292   8.849
34745SOL     OW 6131  12.178   1.783   4.126
34745SOL    HW1 6132  12.175   1.804   4.219
34745SOL    HW2 6133  12.091   1.750   4.106
34746SOL     OW 6134  13.385  12.189   7.951
34746SOL    HW1 6135  13.290  12.191   7.965
34746SOL    HW2 6136  13.409  12.281   7.938
34747SOL     OW 6137   6.342   8.739  13.801
34747SOL    HW1 6138   6.363   8.663  13.747
34747SOL    HW2 6139   6.349   8.814  13.741
34748SOL     OW 6140   1.544  12.617  12.353
34748SOL    HW1 6141   1.565  12.525  12.336
34748SOL    HW2 6142   1.542  12.657  12.266
34749SOL     OW 6143   6.089   6.477   5.290
34749SOL    HW1 6144   6.119   6.432   5.369
34749SOL    HW2 6145   6.060   6.407   5.232
34750SOL     OW 6146  14.689   8.496  11.263
34750SOL    HW1 6147  14.722   8.585  11.277
34750SOL    HW2 6148  14.596   8.507  11.244
34751SOL     OW 6149   0.979  12.725   7.234
34751SOL    HW1 6150   1.030  12.690   7.161
34751SOL    HW2 6151   0.896  12.677   7.231
34752SOL     OW 6152   6.649  11.165   0.153
34752SOL    HW1 6153   6.736  11.189   0.121
34752SOL    HW2 6154   6.662  11.143   0.245
34753SOL     OW 6155   2.356   7.671   3.765
34753SOL    HW1 6156   2.271   7.683   3.806
34753SOL    HW2 6157   2.410   7.631   3.834
34754SOL     OW 6158   2.008  13.708   8.147
34754SOL    HW1 6159   1.983  13.716   8.239
34754SOL    HW2 6160   1.951  13.640   8.112
34755SOL     OW 6161   9.355  14.198  12.887
34755SOL    HW1 6162   9.343  14.264  12.955
34755SOL    HW2 6163   9.414  14.133  12.926
34756SOL     OW 6164   6.041   0.953   1.987
34756SOL    HW1 6165   6.111   0.899   2.026
34756SOL    HW2 6166   6.085   1.033   1.959
34757SOL     OW 6167  14.177  11.868   9.005
34757SOL    HW1 6168  14.200  11.914   9.086
34757SOL    HW2 6169  14.164  11.777   9.032
34758SOL     OW 6170  10.060  13.920   9.566
34758SOL    HW1 6171  10.100  13.977   9.501
34758SOL    HW2 6172  10.049  13.976   9.643
34759SOL     OW 6173   2.358   4.253   2.257
34759SOL    HW1 6174   2.346   4.211   2.172
34759SOL    HW2 6175   2.310   4.336   2.250
34760SOL     OW 6176   0.894   3.670  10.427
34760SOL    HW1 6177   0.832   3.618  10.478
34760SOL    HW2 6178   0.865   3.661  10.337
34761SOL     OW 6179   9.771   9.406  12.473
34761SOL    HW1 6180   9.695   9.401  12.414
34761SOL    HW2 6181   9.839   9.450  12.422
34762SOL     OW 6182   9.275  13.768   0.690
34762SOL    HW1 6183   9.346  13.748   0.750
34762SOL    HW2 6184   9.216  13.692   0.696
34763SOL     OW 6185  13.039   6.191  14.762
34763SOL    HW1 6186  13.128   6.172  14.791
34763SOL    HW2 6187  12.991   6.209  14.843
34764SOL     OW 6188  13.652   6.572   5.759
34764SOL    HW1 6189  13.714   6.501   5.775
34764SOL    HW2 6190  13.581   6.531   5.709
34765SOL     OW 6191   9.080   5.330   6.277
34765SOL    HW1 6192   9.096   5.262   6.342
34765SOL    HW2 6193   9.151   5.319   6.214
34766SOL     OW 6194   4.537  14.612   0.436
34766SOL    HW1 6195   4.466  14.649   0.383
34766SOL    HW2 6196   4.617  14.643   0.395
34767SOL     OW 6197  11.283   9.109  13.801
34767SOL    HW1 6198  11.363   9.097  13.852
34767SOL    HW2 6199  11.224   9.156  13.859
34768SOL     OW 6200   6.288   7.694  12.445
34768SOL    HW1 6201   6.327   7.740  12.371
34768SOL    HW2 6202   6.212   7.648  12.408
34769SOL     OW 6203  12.977   1.493  11.868
34769SOL    HW1 6204  13.058   1.507  11.916
34769SOL    HW2 6205  12.980   1.401  11.841
34770SOL     OW 6206  10.785  11.062   7.776
34770SOL    HW1 6207  10.785  10.971   7.746
34770SOL    HW2 6208  10.707  11.100   7.735
34771SOL     OW 6209  11.498   7.099   9.744
34771SOL    HW1 6210  11.485   7.055   9.660
34771SOL    HW2 6211  11.555   7.040   9.793
34772SOL     OW 6212  10.495   5.577   5.448
34772SOL    HW1 6213  10.577   5.588   5.400
34772SOL    HW2 6214  10.469   5.487   5.431
34773SOL     OW 6215   8.289   6.947   9.822
34773SOL    HW1 6216   8.373   6.932   9.866
34773SOL    HW2 6217   8.235   6.872   9.846
34774SOL     OW 6218   4.720   9.922  10.142
34774SOL    HW1 6219   4.800   9.921  10.194
34774SOL    HW2 6220   4.744   9.968  10.061
34775SOL     OW 6221   0.349  11.517  14.717
34775SOL    HW1 6222   0.427  11.552  14.673
34775SOL    HW2 6223   0.338  11.573  14.794
34776SOL     OW 6224   3.584   0.718  10.490
34776SOL    HW1 6225   3.596   0.699  10.583
34776SOL    HW2 6226   3.538   0.802  10.488
34777SOL     OW 6227   5.903   6.883  10.701
34777SOL    HW1 6228   5.825   6.936  10.719
34777SOL    HW2 6229   5.886   6.800  10.746
34778SOL     OW 6230   1.289  10.107   8.896
34778SOL    HW1 6231   1.298  10.200   8.877
34778SOL    HW2 6232   1.195  10.093   8.908
34779SOL     OW 6233   5.551   7.506   6.368
34779SOL    HW1 6234   5.462   7.473   6.379
34779SOL    HW2 6235   5.551   7.592   6.410
34780SOL     OW 6236  11.442   3.273  10.080
34780SOL    HW1 6237  11.430   3.309  10.168
34780SOL    HW2 6238  11.380   3.321  10.026
34781SOL     OW 6239  14.787   9.344   0.126
34781SOL    HW1 6240  14.780   9.411   0.059
34781SOL    HW2 6241  14.802   9.393   0.207
34782SOL     OW 6242   7.489  13.023  11.516
34782SOL    HW1 6243   7.485  12.931  11.490
34782SOL    HW2 6244   7.443  13.027  11.600
34783SOL     OW 6245   2.731  11.599  10.711
34783SOL    HW1 6246   2.750  11.507  10.730
34783SOL    HW2 6247   2.687  11.631  10.790
34784SOL     OW 6248   2.629  12.356   2.806
34784SOL    HW1 6249   2.671  12.360   2.891
34784SOL    HW2 6250   2.537  12.374   2.823
34785SOL     OW 6251   0.999   1.174  12.662
34785SOL    HW1 6252   1.065   1.106  12.665
34785SOL    HW2 6253   1.034   1.245  12.716
34786SOL     OW 6254   2.561   4.381   8.953
34786SOL    HW1 6255   2.605   4.321   9.014
34786SOL    HW2 6256   2.468   4.368   8.969
34787SOL     OW 6257  13.290   3.244  13.600
34787SOL    HW1 6258  13.210   3.206  13.563
34787SOL    HW2 6259  13.262   3.330  13.632
34788SOL     OW 6260   7.444  11.343   8.756
34788SOL    HW1 6261   7.349  11.350   8.752
34788SOL    HW2 6262   7.469  11.402   8.827
34789SOL     OW 6263  14.718   9.073  12.885
34789SOL    HW1 6264  14.627   9.044  12.888
34789SOL    HW2 6265  14.750   9.060  12.974
34790SOL     OW 6266   6.827  14.033  13.620
34790SOL    HW1 6267   6.774  14.011  13.544
34790SOL    HW2 6268   6.892  14.096  13.586
34791SOL     OW 6269  12.186  14.827   9.218
34791SOL    HW1 6270  12.230  14.750   9.181
34791SOL    HW2 6271  12.251   0.022   9.208
34792SOL     OW 6272  12.298   7.824   6.145
34792SOL    HW1 6273  12.246   7.814   6.066
34792SOL    HW2 6274  12.251   7.889   6.197
34793SOL     OW 6275   8.964  13.994  10.141
34793SOL    HW1 6276   9.054  14.019  10.158
34793SOL    HW2 6277   8.932  14.061  10.080
34794SOL     OW 6278   5.155   3.662   4.156
34794SOL    HW1 6279   5.097   3.738   4.150
34794SOL    HW2 6280   5.095   3.587   4.155
34795SOL     OW 6281   0.145  12.897   5.873
34795SOL    HW1 6282   0.062  12.930   5.838
34795SOL    HW2 6283   0.212  12.946   5.825
34796SOL     OW 6284  10.620  12.574   0.932
34796SOL    HW1 6285  10.682  12.574   0.859
34796SOL    HW2 6286  10.656  12.638   0.993
34797SOL     OW 6287   7.757   2.263   0.807
34797SOL    HW1 6288   7.735   2.355   0.812
34797SOL    HW2 6289   7.673   2.217   0.807
34798SOL     OW 6290  11.569  13.124   8.932
34798SOL    HW1 6291  11.507  13.164   8.992
34798SOL    HW2 6292  11.638  13.088   8.988
34799SOL     OW 6293   3.934   4.806   4.934
34799SOL    HW1 6294   3.852   4.808   4.982
34799SOL    HW2 6295   3.932   4.886   4.881
34800SOL     OW 6296   7.475   8.407   6.663
34800SOL    HW1 6297   7.558   8.432   6.622
34800SOL    HW2 6298   7.482   8.313   6.676
34801SOL     OW 6299   8.487   6.630  10.452
34801SOL    HW1 6300   8.563   6.605  10.504
34801SOL    HW2 6301   8.486   6.726  10.455
34802SOL     OW 6302  10.427   7.768   0.551
34802SOL    HW1 6303  10.410   7.769   0.457
34802SOL    HW2 6304  10.506   7.715   0.560
34803SOL     OW 6305   9.152   1.007   8.798
34803SOL    HW1 6306   9.092   1.063   8.748
34803SOL    HW2 6307   9.118   1.011   8.887
34804SOL     OW 6308   4.078   3.421   9.792
34804SOL    HW1 6309   4.147   3.361   9.764
34804SOL    HW2 6310   4.039   3.453   9.711
34805SOL     OW 6311  13.179   4.590   7.924
34805SOL    HW1 6312  13.163   4.555   8.012
34805SOL    HW2 6313  13.166   4.684   7.933
34806SOL     OW 6314   4.471   0.041  10.581
34806SOL    HW1 6315   4.415   0.027  10.505
34806SOL    HW2 6316   4.480  14.829  10.621
34807SOL     OW 6317   2.578   6.350   6.056
34807SOL    HW1 6318   2.609   6.368   6.145
34807SOL    HW2 6319   2.657   6.344   6.004
34808SOL     OW 6320   4.648   3.487   6.565
34808SOL    HW1 6321   4.636   3.582   6.562
34808SOL    HW2 6322   4.586   3.453   6.500
34809SOL     OW 6323   2.070   6.192   9.308
34809SOL    HW1 6324   2.151   6.156   9.271
34809SOL    HW2 6325   2.091   6.285   9.323
34810SOL     OW 6326  11.421  14.044  14.829
34810SOL    HW1 6327  11.486  14.112  14.808
34810SOL    HW2 6328  11.426  13.983  14.756
34811SOL     OW 6329  13.387  10.015   6.913
34811SOL    HW1 6330  13.476  10.036   6.887
34811SOL    HW2 6331  13.396   9.936   6.967
34812SOL     OW 6332   2.326   5.962   2.595
34812SOL    HW1 6333   2.296   5.881   2.554
34812SOL    HW2 6334   2.266   5.975   2.669
34813SOL     OW 6335   0.147  14.870  11.350
34813SOL    HW1 6336   0.129   0.077  11.304
34813SOL    HW2 6337   0.232   0.010  11.391
34814SOL     OW 6338  11.012   9.073   8.691
34814SOL    HW1 6339  10.988   9.035   8.607
34814SOL    HW2 6340  11.013   8.999   8.751
34815SOL     OW 6341  10.106  10.151   5.596
34815SOL    HW1 6342  10.139  10.229   5.640
34815SOL    HW2 6343  10.152  10.078   5.638
34816SOL     OW 6344  13.542   3.112   1.155
34816SOL    HW1 6345  13.515   3.204   1.153
34816SOL    HW2 6346  13.460   3.063   1.158
34817SOL     OW 6347  13.308   7.368   9.693
34817SOL    HW1 6348  13.266   7.454   9.693
34817SOL    HW2 6349  13.399   7.386   9.670
34818SOL     OW 6350   8.651   2.728   3.245
34818SOL    HW1 6351   8.647   2.719   3.340
34818SOL    HW2 6352   8.559   2.728   3.217
34819SOL     OW 6353   8.382  10.957   8.411
34819SOL    HW1 6354   8.322  11.015   8.364
34819SOL    HW2 6355   8.423  11.014   8.476
34820SOL     OW 6356   4.731  11.079  14.470
34820SOL    HW1 6357   4.732  11.041  14.383
34820SOL    HW2 6358   4.730  11.174  14.455
34821SOL     OW 6359  13.567   5.144   3.813
34821SOL    HW1 6360  13.572   5.087   3.736
34821SOL    HW2 6361  13.506   5.099   3.872
34822SOL     OW 6362   4.793   9.988  12.287
34822SOL    HW1 6363   4.845  10.055  12.244
34822SOL    HW2 6364   4.854   9.915  12.301
34823SOL     OW 6365   2.861  14.753   9.927
34823SOL    HW1 6366   2.914  14.827   9.895
34823SOL    HW2 6367   2.821  14.786  10.007
34824SOL     OW 6368  14.588   4.755   0.021
34824SOL    HW1 6369  14.596   4.664  14.867
34824SOL    HW2 6370  14.656   4.766   0.086
34825SOL     OW 6371  11.446   1.570  14.801
34825SOL    HW1 6372  11.485   1.620  14.729
34825SOL    HW2 6373  11.413   1.636  14.862
34826SOL     OW 6374   5.655   0.386   3.458
34826SOL    HW1 6375   5.685   0.435   3.534
34826SOL    HW2 6376   5.632   0.454   3.393
34827SOL     OW 6377  10.185   3.517   3.687
34827SOL    HW1 6378  10.107   3.474   3.722
34827SOL    HW2 6379  10.257   3.479   3.736
34828SOL     OW 6380   5.925   0.951   7.128
34828SOL    HW1 6381   5.936   0.859   7.105
34828SOL    HW2 6382   5.936   0.998   7.045
34829SOL     OW 6383   9.048  14.092   6.917
34829SOL    HW1 6384   9.086  14.005   6.909
34829SOL    HW2 6385   8.954  14.079   6.906
34830SOL     OW 6386  12.303   4.251   0.948
34830SOL    HW1 6387  12.355   4.204   0.883
34830SOL    HW2 6388  12.328   4.212   1.032
34831SOL     OW 6389   3.551   5.910   5.856
34831SOL    HW1 6390   3.575   5.818   5.852
34831SOL    HW2 6391   3.546   5.929   5.950
34832SOL     OW 6392   4.794   3.121  12.484
34832SOL    HW1 6393   4.705   3.154  12.479
34832SOL    HW2 6394   4.787   3.039  12.534
34833SOL     OW 6395   4.811  13.144   5.096
34833SOL    HW1 6396   4.808  13.210   5.026
34833SOL    HW2 6397   4.752  13.075   5.066
34834SOL     OW 6398  10.546   1.153   9.425
34834SOL    HW1 6399  10.499   1.072   9.406
34834SOL    HW2 6400  10.580   1.140   9.514
34835SOL     OW 6401   2.255   5.743   3.286
34835SOL    HW1 6402   2.233   5.821   3.336
34835SOL    HW2 6403   2.343   5.719   3.315
34836SOL     OW 6404   3.722   2.266   2.367
34836SOL    HW1 6405   3.753   2.357   2.364
34836SOL    HW2 6406   3.722   2.244   2.460
34837SOL     OW 6407  12.133  11.261  14.651
34837SOL    HW1 6408  12.118  11.250  14.744
34837SOL    HW2 6409  12.182  11.343  14.644
34838SOL     OW 6410  10.850   5.415   9.141
34838SOL    HW1 6411  10.803   5.406   9.059
34838SOL    HW2 6412  10.790   5.381   9.208
34839SOL     OW 6413   7.813  12.594   5.128
34839SOL    HW1 6414   7.861  12.533   5.184
34839SOL    HW2 6415   7.810  12.676   5.177
34840SOL     OW 6416   9.672   9.455  10.747
34840SOL    HW1 6417   9.589   9.413  10.724
34840SOL    HW2 6418   9.719   9.462  10.664
34841SOL     OW 6419   8.250  12.807   4.732
34841SOL    HW1 6420   8.182  12.852   4.681
34841SOL    HW2 6421   8.331  12.825   4.684
34842SOL     OW 6422   9.485  12.365  14.188
34842SOL    HW1 6423   9.505  12.430  14.121
34842SOL    HW2 6424   9.452  12.416  14.262
34843SOL     OW 6425  14.556  12.280   5.165
34843SOL    HW1 6426  14.550  12.250   5.256
34843SOL    HW2 6427  14.532  12.203   5.113
34844SOL     OW 6428   5.832   1.387   6.792
34844SOL    HW1 6429   5.891   1.330   6.743
34844SOL    HW2 6430   5.852   1.475   6.761
34845SOL     OW 6431   6.720   4.169   6.602
34845SOL    HW1 6432   6.695   4.119   6.525
34845SOL    HW2 6433   6.641   4.218   6.626
34846SOL     OW 6434   0.738   9.954   5.858
34846SOL    HW1 6435   0.735   9.871   5.905
34846SOL    HW2 6436   0.651   9.991   5.868
34847SOL     OW 6437  13.646   4.109   4.542
34847SOL    HW1 6438  13.697   4.053   4.600
34847SOL    HW2 6439  13.712   4.165   4.499
34848SOL     OW 6440  13.661  13.992   4.260
34848SOL    HW1 6441  13.697  13.933   4.326
34848SOL    HW2 6442  13.679  14.079   4.294
34849SOL     OW 6443   4.659   8.919   1.281
34849SOL    HW1 6444   4.685   8.977   1.209
34849SOL    HW2 6445   4.678   8.970   1.360
34850SOL     OW 6446   6.609   7.530   2.494
34850SOL    HW1 6447   6.586   7.572   2.411
34850SOL    HW2 6448   6.687   7.478   2.473
34851SOL     OW 6449   9.024   2.784   8.782
34851SOL    HW1 6450   9.116   2.780   8.807
34851SOL    HW2 6451   9.019   2.738   8.699
34852SOL     OW 6452  11.454   8.710   5.505
34852SOL    HW1 6453  11.472   8.629   5.553
34852SOL    HW2 6454  11.462   8.780   5.570
34853SOL     OW 6455   0.287   2.050   3.792
34853SOL    HW1 6456   0.282   2.069   3.886
34853SOL    HW2 6457   0.362   2.101   3.761
34854SOL     OW 6458   5.352   9.925   0.608
34854SOL    HW1 6459   5.385   9.963   0.527
34854SOL    HW2 6460   5.345   9.831   0.589
34855SOL     OW 6461   2.124   8.370   0.439
34855SOL    HW1 6462   2.090   8.390   0.527
34855SOL    HW2 6463   2.058   8.314   0.400
34856SOL     OW 6464   0.745   3.532   2.994
34856SOL    HW1 6465   0.797   3.479   3.054
34856SOL    HW2 6466   0.657   3.532   3.032
34857SOL     OW 6467   7.851   9.466   9.645
34857SOL    HW1 6468   7.945   9.468   9.667
34857SOL    HW2 6469   7.809   9.512   9.717
34858SOL     OW 6470   6.949   6.033   6.065
34858SOL    HW1 6471   7.044   6.039   6.079
34858SOL    HW2 6472   6.932   6.092   5.992
34859SOL     OW 6473   3.898  11.744   0.216
34859SOL    HW1 6474   3.853  11.663   0.190
34859SOL    HW2 6475   3.981  11.714   0.254
34860SOL     OW 6476   0.209   8.354   1.359
34860SOL    HW1 6477   0.175   8.302   1.432
34860SOL    HW2 6478   0.304   8.345   1.365
34861SOL     OW 6479   9.175  12.638  13.147
34861SOL    HW1 6480   9.154  12.727  13.119
34861SOL    HW2 6481   9.090  12.597  13.164
34862SOL     OW 6482   9.913  12.583   8.661
34862SOL    HW1 6483   9.958  12.543   8.586
34862SOL    HW2 6484   9.823  12.551   8.655
34863SOL     OW 6485  10.566   9.570   0.857
34863SOL    HW1 6486  10.568   9.590   0.763
34863SOL    HW2 6487  10.479   9.535   0.872
34864SOL     OW 6488  14.351   8.806   3.941
34864SOL    HW1 6489  14.400   8.888   3.936
34864SOL    HW2 6490  14.321   8.803   4.032
34865SOL     OW 6491   9.811   8.391   1.535
34865SOL    HW1 6492   9.728   8.439   1.540
34865SOL    HW2 6493   9.857   8.415   1.616
34866SOL     OW 6494  14.483  14.647  12.609
34866SOL    HW1 6495  14.534  14.713  12.658
34866SOL    HW2 6496  14.397  14.688  12.596
34867SOL     OW 6497  14.410   1.184   6.354
34867SOL    HW1 6498  14.468   1.183   6.430
34867SOL    HW2 6499  14.386   1.276   6.343
34868SOL     OW 6500   3.803   5.257   7.215
34868SOL    HW1 6501   3.763   5.252   7.302
34868SOL    HW2 6502   3.873   5.322   7.224
34869SOL     OW 6503   8.274   1.310   3.785
34869SOL    HW1 6504   8.252   1.315   3.692
34869SOL    HW2 6505   8.365   1.339   3.790
34870SOL     OW 6506   0.075   0.637  13.567
34870SOL    HW1 6507   0.121   0.573  13.513
34870SOL    HW2 6508  14.859   0.606  13.570
34871SOL     OW 6509   5.412   0.067  11.899
34871SOL    HW1 6510   5.409   0.161  11.911
34871SOL    HW2 6511   5.454   0.034  11.978
34872SOL     OW 6512   2.757   3.968   8.249
34872SOL    HW1 6513   2.784   3.960   8.157
34872SOL    HW2 6514   2.839   3.970   8.297
34873SOL     OW 6515   2.613   5.696   9.192
34873SOL    HW1 6516   2.679   5.679   9.125
34873SOL    HW2 6517   2.646   5.773   9.239
34874SOL     OW 6518   5.126   0.424   8.799
34874SOL    HW1 6519   5.210   0.439   8.843
34874SOL    HW2 6520   5.149   0.410   8.707
34875SOL     OW 6521   1.437   0.767  14.694
34875SOL    HW1 6522   1.490   0.758  14.774
34875SOL    HW2 6523   1.475   0.704  14.633
34876SOL     OW 6524   4.602  13.142   3.669
34876SOL    HW1 6525   4.675  13.176   3.617
34876SOL    HW2 6526   4.529  13.200   3.649
34877SOL     OW 6527   2.408   1.209   4.943
34877SOL    HW1 6528   2.323   1.175   4.971
34877SOL    HW2 6529   2.439   1.146   4.878
34878SOL     OW 6530   4.032   7.871   6.942
34878SOL    HW1 6531   4.109   7.837   6.897
34878SOL    HW2 6532   3.958   7.842   6.888
34879SOL     OW 6533   1.690   4.120   8.375
34879SOL    HW1 6534   1.614   4.088   8.325
34879SOL    HW2 6535   1.746   4.161   8.309
34880SOL     OW 6536   7.305   4.215   0.384
34880SOL    HW1 6537   7.244   4.269   0.334
34880SOL    HW2 6538   7.389   4.258   0.374
34881SOL     OW 6539  10.380  10.592   5.234
34881SOL    HW1 6540  10.423  10.526   5.288
34881SOL    HW2 6541  10.301  10.615   5.283
34882SOL     OW 6542   4.113  12.488   6.646
34882SOL    HW1 6543   4.039  12.428   6.635
34882SOL    HW2 6544   4.096  12.532   6.729
34883SOL     OW 6545  14.807   0.250   2.507
34883SOL    HW1 6546  14.718   0.216   2.517
34883SOL    HW2 6547  14.806   0.294   2.422
34884SOL     OW 6548   5.241   0.784   9.540
34884SOL    HW1 6549   5.165   0.831   9.574
34884SOL    HW2 6550   5.302   0.782   9.613
34885SOL     OW 6551   1.828   1.603   9.780
34885SOL    HW1 6552   1.845   1.694   9.805
34885SOL    HW2 6553   1.876   1.590   9.699
34886SOL     OW 6554  10.558   0.313   6.689
34886SOL    HW1 6555  10.510   0.372   6.747
34886SOL    HW2 6556  10.506   0.312   6.608
34887SOL     OW 6557   0.388   9.268   5.032
34887SOL    HW1 6558   0.435   9.276   5.115
34887SOL    HW2 6559   0.453   9.290   4.966
34888SOL     OW 6560  14.408   3.467   0.737
34888SOL    HW1 6561  14.455   3.451   0.819
34888SOL    HW2 6562  14.385   3.560   0.741
34889SOL     OW 6563  14.508  10.002  13.105
34889SOL    HW1 6564  14.466  10.087  13.098
34889SOL    HW2 6565  14.585  10.009  13.048
34890SOL     OW 6566   8.251   3.127   9.063
34890SOL    HW1 6567   8.166   3.161   9.036
34890SOL    HW2 6568   8.314   3.186   9.022
34891SOL     OW 6569   8.467   4.274   2.845
34891SOL    HW1 6570   8.485   4.305   2.933
34891SOL    HW2 6571   8.435   4.185   2.857
34892SOL     OW 6572   0.314   8.149  14.791
34892SOL    HW1 6573   0.233   8.108  14.761
34892SOL    HW2 6574   0.374   8.076  14.806
34893SOL     OW 6575   6.243   9.997   4.912
34893SOL    HW1 6576   6.292  10.078   4.921
34893SOL    HW2 6577   6.297   9.931   4.955
34894SOL     OW 6578   9.993   1.291   2.682
34894SOL    HW1 6579  10.025   1.226   2.620
34894SOL    HW2 6580  10.016   1.257   2.768
34895SOL     OW 6581   3.708   8.464   4.131
34895SOL    HW1 6582   3.629   8.421   4.167
34895SOL    HW2 6583   3.714   8.431   4.042
34896SOL     OW 6584   2.572   6.303   5.696
34896SOL    HW1 6585   2.507   6.367   5.727
34896SOL    HW2 6586   2.540   6.220   5.730
34897SOL     OW 6587   5.840   7.624  14.818
34897SOL    HW1 6588   5.799   7.709  14.803
34897SOL    HW2 6589   5.766   7.565  14.836
34898SOL     OW 6590   2.871   3.840   6.341
34898SOL    HW1 6591   2.942   3.784   6.371
34898SOL    HW2 6592   2.807   3.780   6.303
34899SOL     OW 6593  10.307   8.357  11.696
34899SOL    HW1 6594  10.289   8.441  11.738
34899SOL    HW2 6595  10.221   8.319  11.678
34900SOL     OW 6596   8.190   4.377  11.412
34900SOL    HW1 6597   8.102   4.408  11.390
34900SOL    HW2 6598   8.247   4.419  11.348
34901SOL     OW 6599  13.689  10.610   9.320
34901SOL    HW1 6600  13.615  10.646   9.272
34901SOL    HW2 6601  13.722  10.539   9.264
34902SOL     OW 6602  12.719  11.916   2.011
34902SOL    HW1 6603  12.678  11.867   2.082
34902SOL    HW2 6604  12.812  11.894   2.016
34903SOL     OW 6605   3.876   9.977   0.250
34903SOL    HW1 6606   3.877   9.882   0.237
34903SOL    HW2 6607   3.886  10.012   0.161
34904SOL     OW 6608  13.347  14.251  13.038
34904SOL    HW1 6609  13.293  14.315  13.084
34904SOL    HW2 6610  13.312  14.166  13.065
34905SOL     OW 6611  11.462   2.139   2.565
34905SOL    HW1 6612  11.480   2.178   2.650
34905SOL    HW2 6613  11.367   2.136   2.559
34906SOL     OW 6614  13.802  12.574  12.579
34906SOL    HW1 6615  13.862  12.584  12.506
34906SOL    HW2 6616  13.730  12.634  12.559
34907SOL     OW 6617  11.577   6.782   6.732
34907SOL    HW1 6618  11.484   6.760   6.729
34907SOL    HW2 6619  11.592   6.834   6.653
34908SOL     OW 6620   2.601  13.392   5.774
34908SOL    HW1 6621   2.557  13.315   5.740
34908SOL    HW2 6622   2.695  13.373   5.764
34909SOL     OW 6623   8.316  12.156   1.551
34909SOL    HW1 6624   8.299  12.091   1.619
34909SOL    HW2 6625   8.328  12.239   1.598
34910SOL     OW 6626   9.161  12.279   5.837
34910SOL    HW1 6627   9.148  12.198   5.885
34910SOL    HW2 6628   9.099  12.341   5.877
34911SOL     OW 6629  12.971  11.258   2.363
34911SOL    HW1 6630  13.056  11.215   2.353
34911SOL    HW2 6631  12.916  11.218   2.295
34912SOL     OW 6632  14.767   3.874   3.615
34912SOL    HW1 6633  14.723   3.903   3.695
34912SOL    HW2 6634  14.824   3.803   3.645
34913SOL     OW 6635   2.222  10.694   5.843
34913SOL    HW1 6636   2.189  10.625   5.901
34913SOL    HW2 6637   2.313  10.707   5.870
34914SOL     OW 6638  12.184   5.499   6.539
34914SOL    HW1 6639  12.185   5.409   6.571
34914SOL    HW2 6640  12.149   5.550   6.612
34915SOL     OW 6641   1.584  14.008  11.831
34915SOL    HW1 6642   1.530  14.083  11.859
34915SOL    HW2 6643   1.644  14.045  11.767
34916SOL     OW 6644  14.108   7.532   8.508
34916SOL    HW1 6645  14.102   7.594   8.435
34916SOL    HW2 6646  14.024   7.541   8.553
34917SOL     OW 6647   3.140  12.699  13.142
34917SOL    HW1 6648   3.066  12.641  13.158
34917SOL    HW2 6649   3.195  12.651  13.080
34918SOL     OW 6650   2.223   2.056  10.456
34918SOL    HW1 6651   2.224   1.999  10.533
34918SOL    HW2 6652   2.301   2.111  10.466
34919SOL     OW 6653  13.420   8.230   4.611
34919SOL    HW1 6654  13.349   8.167   4.622
34919SOL    HW2 6655  13.466   8.230   4.695
34920SOL     OW 6656   3.224   0.280   0.115
34920SOL    HW1 6657   3.305   0.283   0.166
34920SOL    HW2 6658   3.169   0.216   0.160
34921SOL     OW 6659   1.346   2.546  13.617
34921SOL    HW1 6660   1.419   2.578  13.564
34921SOL    HW2 6661   1.365   2.454  13.631
34922SOL     OW 6662   9.975   3.505   4.592
34922SOL    HW1 6663   9.936   3.584   4.629
34922SOL    HW2 6664   9.907   3.469   4.535
34923SOL     OW 6665   2.714   1.837   2.040
34923SOL    HW1 6666   2.773   1.839   1.964
34923SOL    HW2 6667   2.753   1.900   2.102
34924SOL     OW 6668  11.666   1.769  11.372
34924SOL    HW1 6669  11.612   1.781  11.450
34924SOL    HW2 6670  11.649   1.679  11.344
34925SOL     OW 6671   8.240   2.547  12.995
34925SOL    HW1 6672   8.205   2.636  12.990
34925SOL    HW2 6673   8.198   2.500  12.923
34926SOL     OW 6674   4.012   0.820  13.266
34926SOL    HW1 6675   3.939   0.865  13.223
34926SOL    HW2 6676   4.030   0.873  13.344
34927SOL     OW 6677  14.561   7.488   6.279
34927SOL    HW1 6678  14.536   7.408   6.232
34927SOL    HW2 6679  14.616   7.535   6.216
34928SOL     OW 6680  14.650   9.570   3.864
34928SOL    HW1 6681  14.686   9.647   3.820
34928SOL    HW2 6682  14.720   9.506   3.862
34929SOL     OW 6683  11.627   6.289   6.333
34929SOL    HW1 6684  11.547   6.332   6.302
34929SOL    HW2 6685  11.693   6.358   6.329
34930SOL     OW 6686  14.039   7.163   8.294
34930SOL    HW1 6687  13.959   7.189   8.340
34930SOL    HW2 6688  14.093   7.242   8.292
34931SOL     OW 6689   8.356   3.143   8.258
34931SOL    HW1 6690   8.375   3.060   8.302
34931SOL    HW2 6691   8.394   3.134   8.171
34932SOL     OW 6692   0.098   1.726  13.770
34932SOL    HW1 6693   0.063   1.779  13.698
34932SOL    HW2 6694   0.139   1.790  13.828
34933SOL     OW 6695   8.790  10.567   1.109
34933SOL    HW1 6696   8.795  10.625   1.033
34933SOL    HW2 6697   8.854  10.603   1.171
34934SOL     OW 6698   2.543   5.192  11.749
34934SOL    HW1 6699   2.536   5.285  11.768
34934SOL    HW2 6700   2.455   5.158  11.767
34935SOL     OW 6701   1.699   4.534   6.113
34935SOL    HW1 6702   1.663   4.487   6.038
34935SOL    HW2 6703   1.733   4.616   6.076
34936SOL     OW 6704  13.187  10.038   3.092
34936SOL    HW1 6705  13.256  10.051   3.157
34936SOL    HW2 6706  13.134   9.966   3.127
34937SOL     OW 6707  12.373   5.627  13.723
34937SOL    HW1 6708  12.374   5.723  13.727
34937SOL    HW2 6709  12.340   5.600  13.809
34938SOL     OW 6710   4.590   9.784   2.568
34938SOL    HW1 6711   4.635   9.792   2.484
34938SOL    HW2 6712   4.616   9.698   2.601
34939SOL     OW 6713   9.017   2.338   3.147
34939SOL    HW1 6714   9.095   2.354   3.201
34939SOL    HW2 6715   8.954   2.403   3.176
34940SOL     OW 6716   7.148   6.366   5.046
34940SOL    HW1 6717   7.224   6.316   5.017
34940SOL    HW2 6718   7.075   6.329   4.998
34941SOL     OW 6719  13.253  11.300  12.932
34941SOL    HW1 6720  13.224  11.225  12.881
34941SOL    HW2 6721  13.255  11.268  13.022
34942SOL     OW 6722  13.995  10.628   8.209
34942SOL    HW1 6723  14.062  10.624   8.277
34942SOL    HW2 6724  13.966  10.538   8.198
34943SOL     OW 6725   4.337   8.156   5.517
34943SOL    HW1 6726   4.338   8.068   5.479
34943SOL    HW2 6727   4.410   8.156   5.579
34944SOL     OW 6728   0.209  11.516   4.613
34944SOL    HW1 6729   0.167  11.474   4.688
34944SOL    HW2 6730   0.299  11.534   4.642
34945SOL     OW 6731   9.337  10.127   6.246
34945SOL    HW1 6732   9.264  10.189   6.255
34945SOL    HW2 6733   9.307  10.064   6.180
34946SOL     OW 6734   8.232  12.035  10.999
34946SOL    HW1 6735   8.163  12.073  11.054
34946SOL    HW2 6736   8.298  12.104  10.993
34947SOL     OW 6737  11.223  14.273   5.255
34947SOL    HW1 6738  11.203  14.333   5.328
34947SOL    HW2 6739  11.139  14.233   5.234
34948SOL     OW 6740   7.118   0.277  14.468
34948SOL    HW1 6741   7.151   0.198  14.512
34948SOL    HW2 6742   7.194   0.311  14.420
34949SOL     OW 6743   8.610   0.694  14.609
34949SOL    HW1 6744   8.618   0.783  14.576
34949SOL    HW2 6745   8.572   0.703  14.696
34950SOL     OW 6746  12.673  14.189   1.707
34950SOL    HW1 6747  12.617  14.265   1.723
34950SOL    HW2 6748  12.681  14.184   1.612
34951SOL     OW 6749  14.383   5.821  10.714
34951SOL    HW1 6750  14.415   5.885  10.777
34951SOL    HW2 6751  14.312   5.776  10.760
34952SOL     OW 6752  11.026   2.017   6.684
34952SOL    HW1 6753  10.930   2.014   6.687
34952SOL    HW2 6754  11.050   2.077   6.755
34953SOL     OW 6755  12.600   2.134   9.983
34953SOL    HW1 6756  12.617   2.041  10.000
34953SOL    HW2 6757  12.686   2.172   9.969
34954SOL     OW 6758   2.806   4.461   7.822
34954SOL    HW1 6759   2.864   4.386   7.831
34954SOL    HW2 6760   2.845   4.528   7.878
34955SOL     OW 6761   0.556   5.797   7.829
34955SOL    HW1 6762   0.536   5.811   7.922
34955SOL    HW2 6763   0.496   5.855   7.782
34956SOL     OW 6764   3.118  14.517   9.202
34956SOL    HW1 6765   3.209  14.506   9.176
34956SOL    HW2 6766   3.103  14.450   9.269
34957SOL     OW 6767  14.166  11.310   3.548
34957SOL    HW1 6768  14.105  11.315   3.474
34957SOL    HW2 6769  14.144  11.386   3.602
34958SOL     OW 6770   8.173   0.647  10.994
34958SOL    HW1 6771   8.222   0.704  11.053
34958SOL    HW2 6772   8.237   0.621  10.928
34959SOL     OW 6773   5.266   0.305   5.795
34959SOL    HW1 6774   5.299   0.237   5.855
34959SOL    HW2 6775   5.188   0.339   5.838
34960SOL     OW 6776   5.293   9.896   8.708
34960SOL    HW1 6777   5.260   9.829   8.648
34960SOL    HW2 6778   5.357   9.849   8.762
34961SOL     OW 6779   3.957   6.631   6.381
34961SOL    HW1 6780   3.983   6.557   6.436
34961SOL    HW2 6781   3.886   6.596   6.326
34962SOL     OW 6782   3.908   8.710  14.250
34962SOL    HW1 6783   3.857   8.663  14.184
34962SOL    HW2 6784   3.903   8.654  14.328
34963SOL     OW 6785  14.595   9.829   1.547
34963SOL    HW1 6786  14.541   9.791   1.478
34963SOL    HW2 6787  14.685   9.819   1.514
34964SOL     OW 6788   1.854   0.822   6.568
34964SOL    HW1 6789   1.762   0.805   6.548
34964SOL    HW2 6790   1.902   0.762   6.510
34965SOL     OW 6791   4.980   1.516   7.984
34965SOL    HW1 6792   4.989   1.421   7.981
34965SOL    HW2 6793   5.066   1.548   8.011
34966SOL     OW 6794  14.271   6.720   1.956
34966SOL    HW1 6795  14.222   6.770   1.890
34966SOL    HW2 6796  14.254   6.765   2.038
34967SOL     OW 6797   4.456   4.686  11.811
34967SOL    HW1 6798   4.480   4.724  11.895
34967SOL    HW2 6799   4.364   4.661  11.821
34968SOL     OW 6800   0.595   1.966   1.893
34968SOL    HW1 6801   0.513   2.011   1.911
34968SOL    HW2 6802   0.659   2.008   1.951
34969SOL     OW 6803   0.635   8.640   1.203
34969SOL    HW1 6804   0.685   8.665   1.125
34969SOL    HW2 6805   0.613   8.723   1.245
34970SOL     OW 6806  12.760   9.442  14.465
34970SOL    HW1 6807  12.797   9.529  14.448
34970SOL    HW2 6808  12.808   9.384  14.406
34971SOL     OW 6809   5.731   6.125   8.972
34971SOL    HW1 6810   5.763   6.103   8.884
34971SOL    HW2 6811   5.689   6.210   8.962
34972SOL     OW 6812   7.283   1.615   8.421
34972SOL    HW1 6813   7.293   1.522   8.402
34972SOL    HW2 6814   7.356   1.657   8.375
34973SOL     OW 6815   6.823   5.519  10.551
34973SOL    HW1 6816   6.791   5.599  10.509
34973SOL    HW2 6817   6.917   5.532  10.559
34974SOL     OW 6818   9.667  13.061   9.273
34974SOL    HW1 6819   9.614  13.129   9.231
34974SOL    HW2 6820   9.721  13.026   9.203
34975SOL     OW 6821   8.642  13.447   1.819
34975SOL    HW1 6822   8.677  13.526   1.860
34975SOL    HW2 6823   8.656  13.461   1.725
34976SOL     OW 6824   7.514  14.314   0.596
34976SOL    HW1 6825   7.556  14.396   0.569
34976SOL    HW2 6826   7.580  14.247   0.578
34977SOL     OW 6827   0.700   5.722  12.914
34977SOL    HW1 6828   0.626   5.760  12.866
34977SOL    HW2 6829   0.762   5.695  12.847
34978SOL     OW 6830   4.787   8.919   9.993
34978SOL    HW1 6831   4.786   8.930  10.088
34978SOL    HW2 6832   4.705   8.959   9.963
34979SOL     OW 6833   1.795   4.306   8.798
34979SOL    HW1 6834   1.718   4.315   8.742
34979SOL    HW2 6835   1.771   4.353   8.878
34980SOL     OW 6836   5.763   0.321   9.336
34980SOL    HW1 6837   5.857   0.322   9.319
34980SOL    HW2 6838   5.754   0.274   9.420
34981SOL     OW 6839   9.653  10.216  12.900
34981SOL    HW1 6840   9.726  10.275  12.917
34981SOL    HW2 6841   9.664  10.145  12.963
34982SOL     OW 6842  10.638   3.095  10.341
34982SOL    HW1 6843  10.689   3.069  10.418
34982SOL    HW2 6844  10.576   3.160  10.374
34983SOL     OW 6845   1.262   3.456   4.650
34983SOL    HW1 6846   1.281   3.364   4.667
34983SOL    HW2 6847   1.209   3.483   4.725
34984SOL     OW 6848  12.683   3.348   1.514
34984SOL    HW1 6849  12.658   3.335   1.605
34984SOL    HW2 6850  12.658   3.438   1.494
34985SOL     OW 6851  11.843  12.673   8.988
34985SOL    HW1 6852  11.760  12.695   8.946
34985SOL    HW2 6853  11.909  12.694   8.922
34986SOL     OW 6854   5.790   6.880  13.996
34986SOL    HW1 6855   5.793   6.971  13.965
34986SOL    HW2 6856   5.866   6.838  13.956
34987SOL     OW 6857   6.508   9.197   4.708
34987SOL    HW1 6858   6.486   9.226   4.619
34987SOL    HW2 6859   6.568   9.124   4.696
34988SOL     OW 6860   1.571  11.227   5.133
34988SOL    HW1 6861   1.657  11.204   5.098
34988SOL    HW2 6862   1.545  11.151   5.185
34989SOL     OW 6863  11.219  14.357   6.355
34989SOL    HW1 6864  11.195  14.443   6.322
34989SOL    HW2 6865  11.197  14.297   6.284
34990SOL     OW 6866   1.727   7.619   8.404
34990SOL    HW1 6867   1.655   7.678   8.382
34990SOL    HW2 6868   1.804   7.658   8.363
34991SOL     OW 6869   3.198   1.076   8.387
34991SOL    HW1 6870   3.202   1.166   8.354
34991SOL    HW2 6871   3.140   1.031   8.326
34992SOL     OW 6872   9.696   5.985  10.125
34992SOL    HW1 6873   9.702   6.080  10.123
34992SOL    HW2 6874   9.737   5.959  10.207
34993SOL     OW 6875   7.569   5.189  10.389
34993SOL    HW1 6876   7.650   5.240  10.390
34993SOL    HW2 6877   7.499   5.255  10.386
34994SOL     OW 6878  10.595   9.959  11.479
34994SOL    HW1 6879  10.514   9.908  11.476
34994SOL    HW2 6880  10.658   9.905  11.432
34995SOL     OW 6881   8.802   9.272   7.472
34995SOL    HW1 6882   8.875   9.294   7.413
34995SOL    HW2 6883   8.731   9.329   7.443
34996SOL     OW 6884   6.238   8.011   9.315
34996SOL    HW1 6885   6.214   7.982   9.226
34996SOL    HW2 6886   6.303   7.947   9.343
34997SOL     OW 6887   3.292   1.728   4.068
34997SOL    HW1 6888   3.253   1.642   4.050
34997SOL    HW2 6889   3.332   1.755   3.985
34998SOL     OW 6890  10.997   7.502   0.315
34998SOL    HW1 6891  11.084   7.543   0.313
34998SOL    HW2 6892  10.942   7.566   0.362
34999SOL     OW 6893   8.569  11.519   1.997
34999SOL    HW1 6894   8.617  11.590   1.954
34999SOL    HW2 6895   8.516  11.562   2.063
35000SOL     OW 6896  10.605   1.605  12.179
35000SOL    HW1 6897  10.518   1.571  12.200
35000SOL    HW2 6898  10.640   1.542  12.116
35001SOL     OW 6899   9.009   0.004   6.331
35001SOL    HW1 6900   9.040  14.791   6.309
35001SOL    HW2 6901   8.948  14.866   6.404
35002SOL     OW 6902   7.520   7.036  11.251
35002SOL    HW1 6903   7.479   6.968  11.305
35002SOL    HW2 6904   7.532   7.109  11.312
35003SOL     OW 6905   4.360  12.492   3.565
35003SOL    HW1 6906   4.434  12.548   3.542
35003SOL    HW2 6907   4.361  12.489   3.661
35004SOL     OW 6908   1.808   2.446   2.203
35004SOL    HW1 6909   1.782   2.531   2.166
35004SOL    HW2 6910   1.901   2.440   2.185
35005SOL     OW 6911   2.060   3.944  12.891
35005SOL    HW1 6912   2.143   3.911  12.856
35005SOL    HW2 6913   2.030   3.875  12.950
35006SOL     OW 6914   7.435   4.335   3.287
35006SOL    HW1 6915   7.519   4.306   3.324
35006SOL    HW2 6916   7.400   4.396   3.352
35007SOL     OW 6917   5.177   6.949   6.480
35007SOL    HW1 6918   5.238   6.948   6.554
35007SOL    HW2 6919   5.113   6.880   6.501
35008SOL     OW 6920   4.703   2.752  12.312
35008SOL    HW1 6921   4.660   2.669  12.288
35008SOL    HW2 6922   4.737   2.737  12.400
35009SOL     OW 6923   2.459  13.247   9.795
35009SOL    HW1 6924   2.548  13.219   9.772
35009SOL    HW2 6925   2.454  13.236   9.890
35010SOL     OW 6926  13.372   9.321   6.749
35010SOL    HW1 6927  13.388   9.228   6.765
35010SOL    HW2 6928  13.278   9.327   6.730
35011SOL     OW 6929  10.209   1.025   5.648
35011SOL    HW1 6930  10.251   1.061   5.726
35011SOL    HW2 6931  10.242   0.935   5.642
35012SOL     OW 6932  13.107   9.714  13.414
35012SOL    HW1 6933  13.093   9.800  13.375
35012SOL    HW2 6934  13.057   9.715  13.495
35013SOL     OW 6935  14.708  14.809  11.705
35013SOL    HW1 6936  14.629  14.851  11.673
35013SOL    HW2 6937  14.779  14.868  11.680
35014SOL     OW 6938  14.078  10.296   8.426
35014SOL    HW1 6939  14.071  10.210   8.467
35014SOL    HW2 6940  13.988  10.329   8.422
35015SOL     OW 6941  13.685   1.306  11.878
35015SOL    HW1 6942  13.605   1.332  11.832
35015SOL    HW2 6943  13.750   1.370  11.850
35016SOL     OW 6944   5.258   5.119   3.629
35016SOL    HW1 6945   5.310   5.039   3.618
35016SOL    HW2 6946   5.322   5.190   3.625
35017SOL     OW 6947  11.088   9.065   1.577
35017SOL    HW1 6948  11.101   9.082   1.670
35017SOL    HW2 6949  11.015   9.003   1.573
35018SOL     OW 6950   5.162  11.059  11.503
35018SOL    HW1 6951   5.215  11.045  11.425
35018SOL    HW2 6952   5.072  11.048  11.473
35019SOL     OW 6953  12.296  11.703  12.706
35019SOL    HW1 6954  12.279  11.654  12.786
35019SOL    HW2 6955  12.299  11.794  12.734
35020SOL     OW 6956  11.283   1.910  14.582
35020SOL    HW1 6957  11.361   1.935  14.533
35020SOL    HW2 6958  11.285   1.814  14.583
35021SOL     OW 6959   8.959   4.946   4.602
35021SOL    HW1 6960   8.968   4.920   4.694
35021SOL    HW2 6961   9.035   5.002   4.585
35022SOL     OW 6962   7.226   2.488  10.795
35022SOL    HW1 6963   7.221   2.542  10.715
35022SOL    HW2 6964   7.136   2.462  10.811
35023SOL     OW 6965   1.766   4.614   4.112
35023SOL    HW1 6966   1.857   4.628   4.138
35023SOL    HW2 6967   1.714   4.654   4.182
35024SOL     OW 6968   6.565  13.463  12.977
35024SOL    HW1 6969   6.574  13.371  13.004
35024SOL    HW2 6970   6.596  13.513  13.053
35025SOL     OW 6971   1.934   7.733  10.919
35025SOL    HW1 6972   1.930   7.679  10.841
35025SOL    HW2 6973   1.844   7.763  10.933
35026SOL     OW 6974   4.164   7.849   0.917
35026SOL    HW1 6975   4.157   7.925   0.974
35026SOL    HW2 6976   4.248   7.809   0.940
35027SOL     OW 6977   4.751   9.747   2.345
35027SOL    HW1 6978   4.796   9.666   2.323
35027SOL    HW2 6979   4.715   9.779   2.262
35028SOL     OW 6980   0.699  12.656  14.666
35028SOL    HW1 6981   0.605  12.643  14.677
35028SOL    HW2 6982   0.721  12.726  14.727
35029SOL     OW 6983  11.518  10.173  12.848
35029SOL    HW1 6984  11.601  10.219  12.844
35029SOL    HW2 6985  11.460  10.231  12.896
35030SOL     OW 6986   8.892   7.934  13.527
35030SOL    HW1 6987   8.933   7.853  13.556
35030SOL    HW2 6988   8.964   7.997  13.521
35031SOL     OW 6989  12.342   1.542   3.163
35031SOL    HW1 6990  12.285   1.516   3.236
35031SOL    HW2 6991  12.299   1.619   3.125
35032SOL     OW 6992  14.022   5.636  10.501
35032SOL    HW1 6993  14.062   5.577  10.566
35032SOL    HW2 6994  14.066   5.614  10.419
35033SOL     OW 6995   9.821   0.547   1.801
35033SOL    HW1 6996   9.789   0.629   1.838
35033SOL    HW2 6997   9.892   0.520   1.858
35034SOL     OW 6998  11.231  12.592   7.589
35034SOL    HW1 6999  11.147  12.602   7.542
35034SOL    HW2 7000  11.294  12.571   7.520
35035SOL     OW 7001   8.290  14.214   2.507
35035SOL    HW1 7002   8.352  14.263   2.451
35035SOL    HW2 7003   8.300  14.254   2.593
35036SOL     OW 7004   2.823   1.108   3.453
35036SOL    HW1 7005   2.886   1.180   3.464
35036SOL    HW2 7006   2.783   1.098   3.539
35037SOL     OW 7007  13.735  12.258  12.379
35037SOL    HW1 7008  13.766  12.324  12.316
35037SOL    HW2 7009  13.666  12.303  12.428
35038SOL     OW 7010   4.210  11.730  14.488
35038SOL    HW1 7011   4.297  11.762  14.464
35038SOL    HW2 7012   4.224  11.675  14.565
35039SOL     OW 7013   8.683   3.546  12.137
35039SOL    HW1 7014   8.594   3.529  12.169
35039SOL    HW2 7015   8.706   3.631  12.174
35040SOL     OW 7016   2.006   1.264   8.305
35040SOL    HW1 7017   2.067   1.259   8.379
35040SOL    HW2 7018   2.006   1.356   8.280
35041SOL     OW 7019   4.865  13.424   4.930
35041SOL    HW1 7020   4.872  13.504   4.878
35041SOL    HW2 7021   4.954  13.409   4.962
35042SOL     OW 7022   1.797   0.114  10.507
35042SOL    HW1 7023   1.859   0.042  10.516
35042SOL    HW2 7024   1.801   0.160  10.591
35043SOL     OW 7025   5.010   2.034   6.436
35043SOL    HW1 7026   4.924   2.019   6.396
35043SOL    HW2 7027   5.068   2.048   6.361
35044SOL     OW 7028  11.724   6.685  11.777
35044SOL    HW1 7029  11.789   6.752  11.753
35044SOL    HW2 7030  11.688   6.657  11.693
35045SOL     OW 7031  14.875  11.763   8.041
35045SOL    HW1 7032  14.838  11.675   8.028
35045SOL    HW2 7033   0.001  11.801   7.954
35046SOL     OW 7034  13.526  14.659   2.224
35046SOL    HW1 7035  13.471  14.611   2.162
35046SOL    HW2 7036  13.502  14.751   2.210
35047SOL     OW 7037  13.189   0.106  10.593
35047SOL    HW1 7038  13.227   0.089  10.506
35047SOL    HW2 7039  13.173   0.201  10.593
35048SOL     OW 7040  10.615   0.851   1.323
35048SOL    HW1 7041  10.558   0.837   1.398
35048SOL    HW2 7042  10.704   0.840   1.357
35049SOL     OW 7043   7.302   8.691   7.964
35049SOL    HW1 7044   7.209   8.695   7.942
35049SOL    HW2 7045   7.309   8.621   8.029
35050SOL     OW 7046   3.687   4.805   0.676
35050SOL    HW1 7047   3.745   4.821   0.602
35050SOL    HW2 7048   3.705   4.714   0.701
35051SOL     OW 7049  11.512   0.187   6.722
35051SOL    HW1 7050  11.452   0.129   6.768
35051SOL    HW2 7051  11.542   0.136   6.647
35052SOL     OW 7052   5.581   4.576   4.034
35052SOL    HW1 7053   5.513   4.535   3.982
35052SOL    HW2 7054   5.563   4.670   4.028
35053SOL     OW 7055  11.087   4.292   4.951
35053SOL    HW1 7056  11.089   4.210   4.903
35053SOL    HW2 7057  11.141   4.352   4.900
35054SOL     OW 7058   0.701   7.668  10.389
35054SOL    HW1 7059   0.641   7.622  10.331
35054SOL    HW2 7060   0.652   7.679  10.471
35055SOL     OW 7061   8.933  13.540   5.955
35055SOL    HW1 7062   8.967  13.621   5.918
35055SOL    HW2 7063   9.000  13.474   5.937
35056SOL     OW 7064  10.913   9.544   6.448
35056SOL    HW1 7065  10.976   9.476   6.422
35056SOL    HW2 7066  10.897   9.528   6.541
35057SOL     OW 7067   6.918   6.217   5.862
35057SOL    HW1 7068   6.854   6.153   5.831
35057SOL    HW2 7069   6.939   6.269   5.785
35058SOL     OW 7070   5.491   6.166   5.636
35058SOL    HW1 7071   5.497   6.107   5.711
35058SOL    HW2 7072   5.574   6.152   5.588
35059SOL     OW 7073   0.623  10.744   7.517
35059SOL    HW1 7074   0.681  10.784   7.452
35059SOL    HW2 7075   0.679  10.684   7.567
35060SOL     OW 7076   1.577   2.538   5.987
35060SOL    HW1 7077   1.557   2.499   6.072
35060SOL    HW2 7078   1.632   2.614   6.007
35061SOL     OW 7079   2.273   6.337  11.197
35061SOL    HW1 7080   2.233   6.323  11.283
35061SOL    HW2 7081   2.234   6.418  11.165
35062SOL     OW 7082  10.490   9.310  14.549
35062SOL    HW1 7083  10.552   9.237  14.559
35062SOL    HW2 7084  10.515   9.352  14.467
35063SOL     OW 7085  10.028   5.276  10.859
35063SOL    HW1 7086  10.008   5.328  10.781
35063SOL    HW2 7087   9.943   5.246  10.890
35064SOL     OW 7088  13.581   8.403   1.453
35064SOL    HW1 7089  13.603   8.316   1.419
35064SOL    HW2 7090  13.566   8.389   1.547
35065SOL     OW 7091  13.428   8.693   5.243
35065SOL    HW1 7092  13.412   8.776   5.289
35065SOL    HW2 7093  13.394   8.708   5.155
35066SOL     OW 7094   0.179  13.938   2.173
35066SOL    HW1 7095   0.227  13.861   2.203
35066SOL    HW2 7096   0.090  13.906   2.155
35067SOL     OW 7097  12.909  11.451   0.914
35067SOL    HW1 7098  12.906  11.374   0.857
35067SOL    HW2 7099  12.965  11.513   0.866
35068SOL     OW 7100   3.156   5.342   0.758
35068SOL    HW1 7101   3.175   5.412   0.820
35068SOL    HW2 7102   3.074   5.304   0.789
35069SOL     OW 7103   8.137   8.336   7.055
35069SOL    HW1 7104   8.200   8.267   7.073
35069SOL    HW2 7105   8.145   8.350   6.960
35070SOL     OW 7106   1.672   5.130   7.365
35070SOL    HW1 7107   1.706   5.110   7.452
35070SOL    HW2 7108   1.694   5.223   7.352
35071SOL     OW 7109   1.491   1.647  12.291
35071SOL    HW1 7110   1.532   1.561  12.293
35071SOL    HW2 7111   1.534   1.696  12.361
35072SOL     OW 7112  12.797   0.624  10.904
35072SOL    HW1 7113  12.722   0.626  10.845
35072SOL    HW2 7114  12.759   0.616  10.991
35073SOL     OW 7115  13.878   3.277   8.782
35073SOL    HW1 7116  13.818   3.225   8.836
35073SOL    HW2 7117  13.903   3.351   8.837
35074SOL     OW 7118  11.483   9.839  14.255
35074SOL    HW1 7119  11.522   9.894  14.187
35074SOL    HW2 7120  11.548   9.838  14.325
35075SOL     OW 7121  10.413  10.978   6.975
35075SOL    HW1 7122  10.462  10.965   6.894
35075SOL    HW2 7123  10.478  10.970   7.044
35076SOL     OW 7124   5.552   7.280  13.133
35076SOL    HW1 7125   5.635   7.286  13.086
35076SOL    HW2 7126   5.502   7.213  13.086
35077SOL     OW 7127  10.529   4.183  12.480
35077SOL    HW1 7128  10.556   4.095  12.456
35077SOL    HW2 7129  10.572   4.201  12.563
35078SOL     OW 7130   7.032   9.486   4.969
35078SOL    HW1 7131   6.953   9.526   5.005
35078SOL    HW2 7132   7.034   9.514   4.878
35079SOL     OW 7133   5.826  13.278  13.962
35079SOL    HW1 7134   5.802  13.216  13.893
35079SOL    HW2 7135   5.893  13.231  14.013
35080SOL     OW 7136   7.135   7.423  10.349
35080SOL    HW1 7137   7.055   7.472  10.328
35080SOL    HW2 7138   7.198   7.490  10.377
35081SOL     OW 7139   4.429  12.955  13.049
35081SOL    HW1 7140   4.449  12.877  13.100
35081SOL    HW2 7141   4.446  13.028  13.109
35082SOL     OW 7142  11.502   8.569  11.271
35082SOL    HW1 7143  11.520   8.516  11.194
35082SOL    HW2 7144  11.508   8.659  11.239
35083SOL     OW 7145   8.168   1.165   8.550
35083SOL    HW1 7146   8.116   1.145   8.628
35083SOL    HW2 7147   8.132   1.108   8.482
35084SOL     OW 7148   1.870  10.164   2.336
35084SOL    HW1 7149   1.785  10.209   2.333
35084SOL    HW2 7150   1.921  10.214   2.400
35085SOL     OW 7151   3.627  14.114   2.519
35085SOL    HW1 7152   3.676  14.094   2.440
35085SOL    HW2 7153   3.607  14.208   2.512
35086SOL     OW 7154   6.826  12.957   6.001
35086SOL    HW1 7155   6.850  12.911   6.081
35086SOL    HW2 7156   6.883  12.919   5.934
35087SOL     OW 7157   0.809   5.570   2.760
35087SOL    HW1 7158   0.727   5.547   2.717
35087SOL    HW2 7159   0.836   5.489   2.803
35088SOL     OW 7160   0.500  10.487   3.382
35088SOL    HW1 7161   0.417  10.526   3.353
35088SOL    HW2 7162   0.476  10.400   3.413
35089SOL     OW 7163  12.995   9.962  13.320
35089SOL    HW1 7164  12.997   9.978  13.226
35089SOL    HW2 7165  12.907   9.926  13.336
35090SOL     OW 7166  13.235   3.541   4.480
35090SOL    HW1 7167  13.248   3.629   4.514
35090SOL    HW2 7168  13.228   3.486   4.558
35091SOL     OW 7169  13.011  11.963   6.423
35091SOL    HW1 7170  12.930  11.912   6.429
35091SOL    HW2 7171  13.035  11.959   6.330
35092SOL     OW 7172   9.573   2.953   6.369
35092SOL    HW1 7173   9.484   2.949   6.334
35092SOL    HW2 7174   9.562   2.952   6.464
35093SOL     OW 7175  13.244  13.946  10.420
35093SOL    HW1 7176  13.206  13.865  10.453
35093SOL    HW2 7177  13.176  14.012  10.432
35094SOL     OW 7178  13.282  13.546   1.750
35094SOL    HW1 7179  13.333  13.486   1.696
35094SOL    HW2 7180  13.248  13.492   1.821
35095SOL     OW 7181   3.356   2.321   3.669
35095SOL    HW1 7182   3.306   2.243   3.645
35095SOL    HW2 7183   3.300   2.368   3.730
35096SOL     OW 7184  11.095   6.384   3.295
35096SOL    HW1 7185  11.118   6.344   3.211
35096SOL    HW2 7186  11.057   6.312   3.346
35097SOL     OW 7187  13.574   3.271  12.323
35097SOL    HW1 7188  13.635   3.328  12.277
35097SOL    HW2 7189  13.602   3.183  12.300
35098SOL     OW 7190   6.082   1.938   0.972
35098SOL    HW1 7191   6.174   1.916   0.982
35098SOL    HW2 7192   6.076   2.030   0.998
35099SOL     OW 7193  13.247   8.008   2.939
35099SOL    HW1 7194  13.274   7.939   3.000
35099SOL    HW2 7195  13.322   8.067   2.935
35100SOL     OW 7196   3.875   3.271   1.105
35100SOL    HW1 7197   3.895   3.221   1.025
35100SOL    HW2 7198   3.951   3.257   1.161
35101SOL     OW 7199  12.505   5.218  13.022
35101SOL    HW1 7200  12.496   5.228  12.927
35101SOL    HW2 7201  12.456   5.291  13.058
35102SOL     OW 7202   7.239  14.365  14.138
35102SOL    HW1 7203   7.238  14.302  14.210
35102SOL    HW2 7204   7.262  14.313  14.060
35103SOL     OW 7205   9.908  11.823  14.744
35103SOL    HW1 7206   9.904  11.850  14.652
35103SOL    HW2 7207   9.855  11.887  14.791
35104SOL     OW 7208   8.535   1.720  13.459
35104SOL    HW1 7209   8.484   1.678  13.390
35104SOL    HW2 7210   8.469   1.757  13.518
35105SOL     OW 7211   6.255   4.751  14.712
35105SOL    HW1 7212   6.308   4.829  14.732
35105SOL    HW2 7213   6.209   4.732  14.794
35106SOL     OW 7214  14.097   6.770   7.642
35106SOL    HW1 7215  14.152   6.694   7.621
35106SOL    HW2 7216  14.087   6.766   7.737
35107SOL     OW 7217   2.202  14.660   9.384
35107SOL    HW1 7218   2.227  14.598   9.314
35107SOL    HW2 7219   2.181  14.741   9.337
35108SOL     OW 7220   0.741   2.274   1.956
35108SOL    HW1 7221   0.835   2.288   1.970
35108SOL    HW2 7222   0.727   2.183   1.982
35109SOL     OW 7223   1.017   5.265  13.020
35109SOL    HW1 7224   1.037   5.343  13.072
35109SOL    HW2 7225   1.053   5.284  12.933
35110SOL     OW 7226   5.899  12.673   0.036
35110SOL    HW1 7227   5.807  12.652   0.049
35110SOL    HW2 7228   5.927  12.711   0.120
35111SOL     OW 7229  11.119   2.215   9.116
35111SOL    HW1 7230  11.071   2.298   9.123
35111SOL    HW2 7231  11.211   2.239   9.125
35112SOL     OW 7232  14.450   9.179   6.722
35112SOL    HW1 7233  14.382   9.246   6.712
35112SOL    HW2 7234  14.477   9.158   6.633
35113SOL     OW 7235  13.420   6.609  14.682
35113SOL    HW1 7236  13.426   6.514  14.692
35113SOL    HW2 7237  13.404   6.642  14.771
35114SOL     OW 7238   1.112  12.797  10.494
35114SOL    HW1 7239   1.017  12.792  10.494
35114SOL    HW2 7240   1.134  12.835  10.409
35115SOL     OW 7241  10.654   7.763  13.164
35115SOL    HW1 7242  10.684   7.747  13.075
35115SOL    HW2 7243  10.589   7.833  13.156
35116SOL     OW 7244  10.527  10.253   6.074
35116SOL    HW1 7245  10.513  10.182   6.011
35116SOL    HW2 7246  10.517  10.211   6.160
35117SOL     OW 7247   5.036   0.941   5.954
35117SOL    HW1 7248   5.063   0.851   5.974
35117SOL    HW2 7249   5.115   0.982   5.919
35118SOL     OW 7250   0.467   7.453  10.922
35118SOL    HW1 7251   0.420   7.515  10.868
35118SOL    HW2 7252   0.548   7.498  10.946
35119SOL     OW 7253   2.676   8.647  11.238
35119SOL    HW1 7254   2.608   8.579  11.233
35119SOL    HW2 7255   2.631   8.728  11.213
35120SOL     OW 7256   5.567   6.479   0.249
35120SOL    HW1 7257   5.623   6.542   0.295
35120SOL    HW2 7258   5.611   6.466   0.165
35121SOL     OW 7259   8.871   6.539   6.977
35121SOL    HW1 7260   8.799   6.481   6.951
35121SOL    HW2 7261   8.934   6.532   6.905
35122SOL     OW 7262   6.815   0.563   6.006
35122SOL    HW1 7263   6.729   0.588   5.974
35122SOL    HW2 7264   6.838   0.630   6.070
35123SOL     OW 7265   3.392  14.238   8.116
35123SOL    HW1 7266   3.409  14.288   8.036
35123SOL    HW2 7267   3.366  14.304   8.180
35124SOL     OW 7268   7.508   7.205   1.620
35124SOL    HW1 7269   7.568   7.253   1.678
35124SOL    HW2 7270   7.428   7.195   1.671
35125SOL     OW 7271   0.437   8.866   2.690
35125SOL    HW1 7272   0.514   8.813   2.670
35125SOL    HW2 7273   0.390   8.816   2.758
35126SOL     OW 7274  11.464  11.366   6.730
35126SOL    HW1 7275  11.378  11.396   6.702
35126SOL    HW2 7276  11.503  11.442   6.773
35127SOL     OW 7277   3.474  13.615   5.649
35127SOL    HW1 7278   3.483  13.564   5.568
35127SOL    HW2 7279   3.452  13.704   5.618
35128SOL     OW 7280   4.278   2.690  12.941
35128SOL    HW1 7281   4.190   2.677  12.976
35128SOL    HW2 7282   4.324   2.609  12.961
35129SOL     OW 7283  10.369  12.410   4.306
35129SOL    HW1 7284  10.410  12.431   4.222
35129SOL    HW2 7285  10.346  12.496   4.343
35130SOL     OW 7286  14.392  14.082   4.439
35130SOL    HW1 7287  14.444  14.100   4.517
35130SOL    HW2 7288  14.439  14.013   4.393
35131SOL     OW 7289   5.184   6.196  13.757
35131SOL    HW1 7290   5.090   6.183  13.752
35131SOL    HW2 7291   5.196   6.291  13.746
35132SOL     OW 7292  13.892   3.236   9.490
35132SOL    HW1 7293  13.911   3.145   9.468
35132SOL    HW2 7294  13.800   3.235   9.517
35133SOL     OW 7295   5.502   9.515  14.609
35133SOL    HW1 7296   5.591   9.534  14.640
35133SOL    HW2 7297   5.507   9.425  14.576
35134SOL     OW 7298  13.182   4.771  14.148
35134SOL    HW1 7299  13.141   4.719  14.078
35134SOL    HW2 7300  13.109   4.822  14.185
35135SOL     OW 7301   7.491  11.057   5.064
35135SOL    HW1 7302   7.479  11.071   4.970
35135SOL    HW2 7303   7.420  10.999   5.090
35136SOL     OW 7304   7.066  13.770   9.136
35136SOL    HW1 7305   7.084  13.776   9.043
35136SOL    HW2 7306   7.081  13.678   9.158
35137SOL     OW 7307  10.371   8.276   3.516
35137SOL    HW1 7308  10.336   8.360   3.488
35137SOL    HW2 7309  10.315   8.211   3.473
35138SOL     OW 7310  10.184   1.171   3.903
35138SOL    HW1 7311  10.185   1.257   3.944
35138SOL    HW2 7312  10.145   1.186   3.817
35139SOL     OW 7313   0.089  12.402  11.901
35139SOL    HW1 7314   0.045  12.477  11.941
35139SOL    HW2 7315   0.131  12.357  11.974
35140SOL     OW 7316  11.171   3.418  13.085
35140SOL    HW1 7317  11.228   3.490  13.111
35140SOL    HW2 7318  11.093   3.429  13.138
35141SOL     OW 7319   1.051   7.348  14.433
35141SOL    HW1 7320   1.067   7.365  14.525
35141SOL    HW2 7321   0.969   7.393  14.414
35142SOL     OW 7322   1.796   8.555  14.706
35142SOL    HW1 7323   1.819   8.609  14.630
35142SOL    HW2 7324   1.866   8.570  14.769
35143SOL     OW 7325  13.721   6.464   8.227
35143SOL    HW1 7326  13.694   6.381   8.267
35143SOL    HW2 7327  13.714   6.449   8.133
35144SOL     OW 7328  13.488  10.930   7.831
35144SOL    HW1 7329  13.419  10.973   7.781
35144SOL    HW2 7330  13.464  10.838   7.830
35145SOL     OW 7331   1.195   9.061   9.174
35145SOL    HW1 7332   1.181   9.112   9.253
35145SOL    HW2 7333   1.290   9.046   9.171
35146SOL     OW 7334   5.241  11.341   3.235
35146SOL    HW1 7335   5.194  11.395   3.299
35146SOL    HW2 7336   5.178  11.274   3.209
35147SOL     OW 7337   4.468  11.325   4.949
35147SOL    HW1 7338   4.560  11.305   4.937
35147SOL    HW2 7339   4.460  11.343   5.043
35148SOL     OW 7340  11.361  12.530  12.919
35148SOL    HW1 7341  11.280  12.550  12.967
35148SOL    HW2 7342  11.421  12.601  12.944
35149SOL     OW 7343  13.073   3.277  10.554
35149SOL    HW1 7344  13.030   3.261  10.638
35149SOL    HW2 7345  13.066   3.372  10.541
35150SOL     OW 7346   4.768   0.428   8.249
35150SOL    HW1 7347   4.804   0.370   8.182
35150SOL    HW2 7348   4.844   0.472   8.287
35151SOL     OW 7349   1.623  12.033  12.624
35151SOL    HW1 7350   1.697  11.985  12.588
35151SOL    HW2 7351   1.602  11.987  12.705
35152SOL     OW 7352   6.916  14.184   2.835
35152SOL    HW1 7353   7.010  14.181   2.850
35152SOL    HW2 7354   6.882  14.239   2.906
35153SOL     OW 7355  11.688   2.663   1.858
35153SOL    HW1 7356  11.671   2.569   1.855
35153SOL    HW2 7357  11.773   2.671   1.902
35154SOL     OW 7358   4.961   6.194   0.554
35154SOL    HW1 7359   4.927   6.105   0.566
35154SOL    HW2 7360   4.886   6.245   0.526
35155SOL     OW 7361   5.402   4.562  10.607
35155SOL    HW1 7362   5.417   4.635  10.547
35155SOL    HW2 7363   5.489   4.528  10.626
35156SOL     OW 7364  10.814   9.182   0.120
35156SOL    HW1 7365  10.723   9.212   0.120
35156SOL    HW2 7366  10.866   9.261   0.135
35157SOL     OW 7367  14.350   0.235   2.366
35157SOL    HW1 7368  14.266   0.266   2.400
35157SOL    HW2 7369  14.325   0.177   2.293
35158SOL     OW 7370   4.808   7.551   2.403
35158SOL    HW1 7371   4.811   7.646   2.416
35158SOL    HW2 7372   4.881   7.533   2.343
35159SOL     OW 7373  12.632   5.143   9.998
35159SOL    HW1 7374  12.716   5.154  10.042
35159SOL    HW2 7375  12.591   5.230  10.003
35160SOL     OW 7376  12.432   1.997   5.353
35160SOL    HW1 7377  12.434   2.081   5.399
35160SOL    HW2 7378  12.519   1.960   5.367
35161SOL     OW 7379  12.324  10.873  14.333
35161SOL    HW1 7380  12.406  10.873  14.381
35161SOL    HW2 7381  12.317  10.962  14.298
35162SOL     OW 7382  10.120   1.616   5.352
35162SOL    HW1 7383  10.056   1.677   5.316
35162SOL    HW2 7384  10.074   1.532   5.354
35163SOL     OW 7385   8.192   3.684   1.714
35163SOL    HW1 7386   8.275   3.649   1.682
35163SOL    HW2 7387   8.138   3.607   1.732
35164SOL     OW 7388   4.189   8.238   4.526
35164SOL    HW1 7389   4.191   8.263   4.618
35164SOL    HW2 7390   4.096   8.230   4.505
35165SOL     OW 7391  11.106   0.143   9.892
35165SOL    HW1 7392  11.039   0.076   9.905
35165SOL    HW2 7393  11.169   0.130   9.963
35166SOL     OW 7394  13.505  11.023  10.724
35166SOL    HW1 7395  13.519  11.055  10.813
35166SOL    HW2 7396  13.589  10.985  10.699
35167SOL     OW 7397   1.964   9.710   4.242
35167SOL    HW1 7398   2.038   9.671   4.197
35167SOL    HW2 7399   2.003   9.759   4.315
35168SOL     OW 7400  11.802   1.442   5.498
35168SOL    HW1 7401  11.821   1.489   5.579
35168SOL    HW2 7402  11.800   1.509   5.430
35169SOL     OW 7403   6.784   6.359   8.146
35169SOL    HW1 7404   6.729   6.330   8.073
35169SOL    HW2 7405   6.868   6.317   8.131
35170SOL     OW 7406   3.587   3.497  10.542
35170SOL    HW1 7407   3.556   3.568  10.485
35170SOL    HW2 7408   3.647   3.447  10.487
35171SOL     OW 7409   6.300   3.579   7.154
35171SOL    HW1 7410   6.268   3.610   7.238
35171SOL    HW2 7411   6.281   3.485   7.154
35172SOL     OW 7412   1.795   6.001  10.513
35172SOL    HW1 7413   1.735   6.022  10.442
35172SOL    HW2 7414   1.859   6.073  10.512
35173SOL     OW 7415  12.146  10.294   2.355
35173SOL    HW1 7416  12.220  10.238   2.332
35173SOL    HW2 7417  12.186  10.373   2.393
35174SOL     OW 7418  10.626  14.062   1.321
35174SOL    HW1 7419  10.548  14.117   1.326
35174SOL    HW2 7420  10.687  14.112   1.267
35175SOL     OW 7421   9.572   5.623   1.404
35175SOL    HW1 7422   9.553   5.597   1.494
35175SOL    HW2 7423   9.603   5.713   1.411
35176SOL     OW 7424   0.028   8.405   3.415
35176SOL    HW1 7425   0.069   8.326   3.450
35176SOL    HW2 7426  14.810   8.396   3.435
35177SOL     OW 7427   3.545   2.320   6.841
35177SOL    HW1 7428   3.457   2.293   6.867
35177SOL    HW2 7429   3.555   2.285   6.752
35178SOL     OW 7430   5.101   3.381  12.211
35178SOL    HW1 7431   5.077   3.334  12.291
35178SOL    HW2 7432   5.058   3.466  12.219
35179SOL     OW 7433   7.607   3.928   3.487
35179SOL    HW1 7434   7.584   3.940   3.579
35179SOL    HW2 7435   7.696   3.892   3.488
35180SOL     OW 7436   9.899   4.648  10.499
35180SOL    HW1 7437   9.893   4.715  10.430
35180SOL    HW2 7438   9.875   4.695  10.580
35181SOL     OW 7439   6.608   6.642   6.067
35181SOL    HW1 7440   6.655   6.676   6.144
35181SOL    HW2 7441   6.677   6.615   6.006
35182SOL     OW 7442   4.576   5.669  12.504
35182SOL    HW1 7443   4.512   5.649  12.435
35182SOL    HW2 7444   4.587   5.764  12.500
35183SOL     OW 7445   3.335   7.154   8.193
35183SOL    HW1 7446   3.259   7.107   8.228
35183SOL    HW2 7447   3.301   7.240   8.168
35184SOL     OW 7448  14.000  10.386   2.410
35184SOL    HW1 7449  14.022  10.376   2.503
35184SOL    HW2 7450  13.916  10.341   2.401
35185SOL     OW 7451  12.109   0.992  13.955
35185SOL    HW1 7452  12.062   1.075  13.967
35185SOL    HW2 7453  12.201   1.016  13.966
35186SOL     OW 7454   3.358  10.332   0.288
35186SOL    HW1 7455   3.393  10.396   0.350
35186SOL    HW2 7456   3.268  10.362   0.272
35187SOL     OW 7457   0.849   8.649   6.724
35187SOL    HW1 7458   0.871   8.742   6.731
35187SOL    HW2 7459   0.841   8.620   6.815
35188SOL     OW 7460  14.873   2.190   4.533
35188SOL    HW1 7461   0.000   2.125   4.463
35188SOL    HW2 7462  14.829   2.145   4.606
35189SOL     OW 7463   2.169  10.316   9.722
35189SOL    HW1 7464   2.129  10.395   9.686
35189SOL    HW2 7465   2.252  10.346   9.759
35190SOL     OW 7466  14.340  10.786   8.517
35190SOL    HW1 7467  14.415  10.842   8.535
35190SOL    HW2 7468  14.346  10.715   8.580
35191SOL     OW 7469   0.555  13.657  13.376
35191SOL    HW1 7470   0.620  13.620  13.435
35191SOL    HW2 7471   0.471  13.635  13.417
35192SOL     OW 7472   4.822   6.704   9.587
35192SOL    HW1 7473   4.813   6.670   9.499
35192SOL    HW2 7474   4.738   6.685   9.629
35193SOL     OW 7475   8.761  10.862  10.457
35193SOL    HW1 7476   8.791  10.862  10.548
35193SOL    HW2 7477   8.702  10.788  10.452
35194SOL     OW 7478   1.942   4.313   3.358
35194SOL    HW1 7479   1.948   4.294   3.451
35194SOL    HW2 7480   1.848   4.315   3.340
35195SOL     OW 7481   6.467  11.061   2.995
35195SOL    HW1 7482   6.405  10.989   3.008
35195SOL    HW2 7483   6.551  11.026   3.024
35196SOL     OW 7484  14.488   8.918   2.788
35196SOL    HW1 7485  14.572   8.939   2.831
35196SOL    HW2 7486  14.509   8.843   2.731
35197SOL     OW 7487   8.303  12.028   9.279
35197SOL    HW1 7488   8.362  12.039   9.205
35197SOL    HW2 7489   8.224  11.989   9.242
35198SOL     OW 7490  10.065   5.599   4.725
35198SOL    HW1 7491  10.122   5.665   4.685
35198SOL    HW2 7492  10.007   5.649   4.782
35199SOL     OW 7493  10.775  10.652   3.981
35199SOL    HW1 7494  10.707  10.629   3.918
35199SOL    HW2 7495  10.728  10.701   4.049
35200SOL     OW 7496   4.637  12.814   3.785
35200SOL    HW1 7497   4.698  12.781   3.852
35200SOL    HW2 7498   4.577  12.871   3.833
35201SOL     OW 7499  14.394   0.725   0.943
35201SOL    HW1 7500  14.390   0.729   1.039
35201SOL    HW2 7501  14.303   0.728   0.915
35202SOL     OW 7502  12.553  13.248   1.031
35202SOL    HW1 7503  12.624  13.184   1.026
35202SOL    HW2 7504  12.597  13.333   1.025
35203SOL     OW 7505  11.219   7.213  13.947
35203SOL    HW1 7506  11.182   7.125  13.944
35203SOL    HW2 7507  11.219   7.236  14.040
35204SOL     OW 7508   3.599   3.629  14.492
35204SOL    HW1 7509   3.654   3.557  14.460
35204SOL    HW2 7510   3.515   3.588  14.510
35205SOL     OW 7511  12.053   1.571   7.377
35205SOL    HW1 7512  12.126   1.630   7.396
35205SOL    HW2 7513  12.029   1.590   7.287
35206SOL     OW 7514  10.736   8.907   4.983
35206SOL    HW1 7515  10.776   8.873   5.063
35206SOL    HW2 7516  10.742   8.835   4.921
35207SOL     OW 7517  12.141   9.439   9.987
35207SOL    HW1 7518  12.225   9.427   9.943
35207SOL    HW2 7519  12.091   9.360   9.966
35208SOL     OW 7520   8.430   7.261  11.364
35208SOL    HW1 7521   8.517   7.299  11.380
35208SOL    HW2 7522   8.388   7.323  11.304
35209SOL     OW 7523   6.455   2.480   3.518
35209SOL    HW1 7524   6.543   2.513   3.532
35209SOL    HW2 7525   6.467   2.388   3.493
35210SOL     OW 7526   5.832  13.299   0.315
35210SOL    HW1 7527   5.835  13.380   0.366
35210SOL    HW2 7528   5.752  13.255   0.343
35211SOL     OW 7529  13.479   7.524   6.199
35211SOL    HW1 7530  13.499   7.570   6.280
35211SOL    HW2 7531  13.417   7.581   6.154
35212SOL     OW 7532   7.240   8.967   5.660
35212SOL    HW1 7533   7.315   8.934   5.610
35212SOL    HW2 7534   7.258   9.060   5.673
35213SOL     OW 7535  11.334  14.869   4.141
35213SOL    HW1 7536  11.428  14.867   4.124
35213SOL    HW2 7537  11.318   0.080   4.181
35214SOL     OW 7538  12.310  10.967   6.245
35214SOL    HW1 7539  12.287  10.920   6.325
35214SOL    HW2 7540  12.404  10.983   6.253
35215SOL     OW 7541  11.620   9.218  12.249
35215SOL    HW1 7542  11.528   9.193  12.245
35215SOL    HW2 7543  11.622   9.309  12.217
35216SOL     OW 7544   6.856   8.319   9.547
35216SOL    HW1 7545   6.934   8.373   9.562
35216SOL    HW2 7546   6.862   8.250   9.612
35217SOL     OW 7547  14.687   7.549   2.282
35217SOL    HW1 7548  14.722   7.481   2.340
35217SOL    HW2 7549  14.765   7.592   2.247
35218SOL     OW 7550   2.327   0.092  12.569
35218SOL    HW1 7551   2.326   0.001  12.539
35218SOL    HW2 7552   2.304   0.086  12.662
35219SOL     OW 7553  14.702  12.434   1.586
35219SOL    HW1 7554  14.683  12.437   1.679
35219SOL    HW2 7555  14.723  12.524   1.562
35220SOL     OW 7556   6.228  11.736   5.860
35220SOL    HW1 7557   6.172  11.746   5.784
35220SOL    HW2 7558   6.168  11.713   5.931
35221SOL     OW 7559   8.984   6.543   9.515
35221SOL    HW1 7560   8.986   6.449   9.501
35221SOL    HW2 7561   8.911   6.557   9.575
35222SOL     OW 7562   4.562  12.688   4.383
35222SOL    HW1 7563   4.599  12.600   4.374
35222SOL    HW2 7564   4.632  12.739   4.424
35223SOL     OW 7565   7.405  10.771   7.277
35223SOL    HW1 7566   7.354  10.712   7.333
35223SOL    HW2 7567   7.342  10.801   7.211
35224SOL     OW 7568   9.532  11.329  10.369
35224SOL    HW1 7569   9.525  11.424  10.360
35224SOL    HW2 7570   9.600  11.304  10.307
35225SOL     OW 7571   1.106  12.722   5.971
35225SOL    HW1 7572   1.102  12.805   5.923
35225SOL    HW2 7573   1.165  12.667   5.919
35226SOL     OW 7574   3.838  11.942   1.522
35226SOL    HW1 7575   3.803  11.904   1.442
35226SOL    HW2 7576   3.785  11.903   1.592
35227SOL     OW 7577   5.135   4.646  11.513
35227SOL    HW1 7578   5.207   4.586  11.535
35227SOL    HW2 7579   5.069   4.590  11.471
35228SOL     OW 7580  13.387   8.850   1.775
35228SOL    HW1 7581  13.379   8.840   1.870
35228SOL    HW2 7582  13.318   8.913   1.752
35229SOL     OW 7583   4.672   4.641  14.080
35229SOL    HW1 7584   4.652   4.700  14.152
35229SOL    HW2 7585   4.749   4.678  14.038
35230SOL     OW 7586  10.825   9.777  13.264
35230SOL    HW1 7587  10.764   9.810  13.330
35230SOL    HW2 7588  10.777   9.785  13.181
35231SOL     OW 7589   5.381  11.900  11.611
35231SOL    HW1 7590   5.296  11.865  11.636
35231SOL    HW2 7591   5.415  11.838  11.546
35232SOL     OW 7592   3.482   2.342   2.086
35232SOL    HW1 7593   3.445   2.418   2.132
35232SOL    HW2 7594   3.556   2.315   2.140
35233SOL     OW 7595   5.887   2.908  13.689
35233SOL    HW1 7596   5.965   2.856  13.708
35233SOL    HW2 7597   5.848   2.864  13.613
35234SOL     OW 7598  10.905   8.217  11.612
35234SOL    HW1 7599  10.945   8.294  11.653
35234SOL    HW2 7600  10.890   8.156  11.685
35235SOL     OW 7601   5.579  11.316  10.057
35235SOL    HW1 7602   5.556  11.305  10.150
35235SOL    HW2 7603   5.563  11.231  10.018
35236SOL     OW 7604   1.488  12.466  10.294
35236SOL    HW1 7605   1.524  12.448  10.207
35236SOL    HW2 7606   1.556  12.435  10.354
35237SOL     OW 7607  10.590  11.951  13.242
35237SOL    HW1 7608  10.514  11.896  13.225
35237SOL    HW2 7609  10.630  11.913  13.321
35238SOL     OW 7610   5.947  11.256   4.581
35238SOL    HW1 7611   6.031  11.234   4.541
35238SOL    HW2 7612   5.935  11.191   4.650
35239SOL     OW 7613   7.677   2.663   1.590
35239SOL    HW1 7614   7.698   2.580   1.634
35239SOL    HW2 7615   7.717   2.654   1.503
35240SOL     OW 7616  10.267   8.697  13.350
35240SOL    HW1 7617  10.309   8.777  13.382
35240SOL    HW2 7618  10.200   8.727  13.289
35241SOL     OW 7619   2.479  10.175   0.976
35241SOL    HW1 7620   2.528  10.153   1.055
35241SOL    HW2 7621   2.475  10.093   0.927
35242SOL     OW 7622   2.247  11.701  14.390
35242SOL    HW1 7623   2.171  11.727  14.442
35242SOL    HW2 7624   2.321  11.709  14.451
35243SOL     OW 7625  13.487   3.958   9.303
35243SOL    HW1 7626  13.484   4.052   9.321
35243SOL    HW2 7627  13.578   3.933   9.321
35244SOL     OW 7628   3.279   9.276   0.980
35244SOL    HW1 7629   3.276   9.368   0.952
35244SOL    HW2 7630   3.372   9.259   0.998
35245SOL     OW 7631   7.792   2.604  11.486
35245SOL    HW1 7632   7.730   2.623  11.556
35245SOL    HW2 7633   7.877   2.633  11.520
35246SOL     OW 7634   3.745   8.465   6.901
35246SOL    HW1 7635   3.680   8.476   6.831
35246SOL    HW2 7636   3.727   8.537   6.961
35247SOL     OW 7637   1.396  10.024  13.357
35247SOL    HW1 7638   1.440   9.950  13.400
35247SOL    HW2 7639   1.359  10.075  13.429
35248SOL     OW 7640   8.234   3.008   1.647
35248SOL    HW1 7641   8.171   2.941   1.619
35248SOL    HW2 7642   8.314   2.988   1.598
35249SOL     OW 7643  10.067   2.064   6.105
35249SOL    HW1 7644  10.126   2.066   6.180
35249SOL    HW2 7645   9.981   2.042   6.141
35250SOL     OW 7646   9.653  13.619   5.836
35250SOL    HW1 7647   9.684  13.646   5.923
35250SOL    HW2 7648   9.667  13.696   5.781
35251SOL     OW 7649  11.278   9.943   8.629
35251SOL    HW1 7650  11.201   9.890   8.650
35251SOL    HW2 7651  11.278  10.012   8.695
35252SOL     OW 7652   9.151   0.980   2.801
35252SOL    HW1 7653   9.208   0.949   2.730
35252SOL    HW2 7654   9.157   1.075   2.797
35253SOL     OW 7655   3.271   8.267   8.326
35253SOL    HW1 7656   3.226   8.249   8.243
35253SOL    HW2 7657   3.295   8.360   8.320
35254SOL     OW 7658   1.416  10.472   8.303
35254SOL    HW1 7659   1.329  10.490   8.268
35254SOL    HW2 7660   1.469  10.548   8.277
35255SOL     OW 7661   0.664   0.411  12.900
35255SOL    HW1 7662   0.604   0.343  12.933
35255SOL    HW2 7663   0.719   0.366  12.837
35256SOL     OW 7664   7.503   1.149   0.742
35256SOL    HW1 7665   7.549   1.202   0.676
35256SOL    HW2 7666   7.410   1.168   0.728
35257SOL     OW 7667   7.322   8.258  11.296
35257SOL    HW1 7668   7.351   8.318  11.365
35257SOL    HW2 7669   7.383   8.275  11.223
35258SOL     OW 7670   7.303   2.581   0.092
35258SOL    HW1 7671   7.330   2.658   0.043
35258SOL    HW2 7672   7.233   2.612   0.149
35259SOL     OW 7673   1.514   9.673   3.274
35259SOL    HW1 7674   1.455   9.652   3.202
35259SOL    HW2 7675   1.506   9.599   3.334
35260SOL     OW 7676  12.098  12.371   3.318
35260SOL    HW1 7677  12.173  12.326   3.279
35260SOL    HW2 7678  12.087  12.330   3.404
35261SOL     OW 7679   1.896   2.190  14.575
35261SOL    HW1 7680   1.803   2.179  14.598
35261SOL    HW2 7681   1.894   2.241  14.494
35262SOL     OW 7682  12.148  10.036   7.849
35262SOL    HW1 7683  12.238  10.044   7.882
35262SOL    HW2 7684  12.098  10.002   7.923
35263SOL     OW 7685   4.129   5.162   0.945
35263SOL    HW1 7686   4.199   5.103   0.973
35263SOL    HW2 7687   4.173   5.243   0.921
35264SOL     OW 7688  12.896   8.110  11.066
35264SOL    HW1 7689  12.815   8.083  11.022
35264SOL    HW2 7690  12.953   8.033  11.061
35265SOL     OW 7691   0.488   7.237   3.385
35265SOL    HW1 7692   0.485   7.273   3.473
35265SOL    HW2 7693   0.535   7.154   3.395
35266SOL     OW 7694   0.562   8.654   3.104
35266SOL    HW1 7695   0.469   8.645   3.124
35266SOL    HW2 7696   0.593   8.564   3.095
35267SOL     OW 7697   6.207   4.273  12.240
35267SOL    HW1 7698   6.160   4.355  12.228
35267SOL    HW2 7699   6.298   4.299  12.256
35268SOL     OW 7700   0.221  13.422  12.501
35268SOL    HW1 7701   0.302  13.403  12.547
35268SOL    HW2 7702   0.244  13.414  12.408
35269SOL     OW 7703   8.225  11.224   7.262
35269SOL    HW1 7704   8.155  11.162   7.241
35269SOL    HW2 7705   8.233  11.220   7.357
35270SOL     OW 7706   9.597   7.566  12.338
35270SOL    HW1 7707   9.534   7.609  12.281
35270SOL    HW2 7708   9.565   7.476  12.346
35271SOL     OW 7709   6.446   6.140  11.813
35271SOL    HW1 7710   6.482   6.054  11.792
35271SOL    HW2 7711   6.413   6.132  11.902
35272SOL     OW 7712  12.007   5.658   3.042
35272SOL    HW1 7713  12.092   5.695   3.017
35272SOL    HW2 7714  12.005   5.665   3.137
35273SOL     OW 7715   3.413   3.361   0.084
35273SOL    HW1 7716   3.392   3.287   0.028
35273SOL    HW2 7717   3.430   3.433   0.022
35274SOL     OW 7718   5.843   2.010   3.060
35274SOL    HW1 7719   5.823   1.969   3.144
35274SOL    HW2 7720   5.836   2.104   3.076
35275SOL     OW 7721   3.391  11.815  13.628
35275SOL    HW1 7722   3.331  11.772  13.690
35275SOL    HW2 7723   3.454  11.747  13.605
35276SOL     OW 7724   2.871   8.023   8.473
35276SOL    HW1 7725   2.890   8.097   8.530
35276SOL    HW2 7726   2.955   7.976   8.466
35277SOL     OW 7727   0.542   6.157  10.272
35277SOL    HW1 7728   0.585   6.178  10.355
35277SOL    HW2 7729   0.562   6.065  10.257
35278SOL     OW 7730   7.937  10.582  12.665
35278SOL    HW1 7731   8.019  10.535  12.679
35278SOL    HW2 7732   7.964  10.668  12.632
35279SOL     OW 7733   5.735   6.729   0.370
35279SOL    HW1 7734   5.825   6.714   0.398
35279SOL    HW2 7735   5.684   6.729   0.451
35280SOL     OW 7736  13.566   5.954   7.051
35280SOL    HW1 7737  13.626   6.013   7.006
35280SOL    HW2 7738  13.620   5.912   7.119
35281SOL     OW 7739   1.229  14.151  13.131
35281SOL    HW1 7740   1.243  14.216  13.201
35281SOL    HW2 7741   1.304  14.091  13.139
35282SOL     OW 7742  11.808   8.785   2.548
35282SOL    HW1 7743  11.886   8.793   2.493
35282SOL    HW2 7744  11.779   8.875   2.561
35283SOL     OW 7745  14.129  10.774  11.796
35283SOL    HW1 7746  14.047  10.808  11.759
35283SOL    HW2 7747  14.197  10.829  11.756
35284SOL     OW 7748   6.092  12.195   2.196
35284SOL    HW1 7749   6.041  12.272   2.172
35284SOL    HW2 7750   6.135  12.167   2.115
35285SOL     OW 7751   7.685   1.220   8.754
35285SOL    HW1 7752   7.628   1.200   8.828
35285SOL    HW2 7753   7.647   1.172   8.680
35286SOL     OW 7754   6.939  12.954   7.789
35286SOL    HW1 7755   6.986  13.037   7.797
35286SOL    HW2 7756   6.847  12.977   7.800
35287SOL     OW 7757   8.148  11.090   6.235
35287SOL    HW1 7758   8.151  11.019   6.299
35287SOL    HW2 7759   8.062  11.083   6.194
35288SOL     OW 7760   2.179   0.028   9.260
35288SOL    HW1 7761   2.084   0.027   9.252
35288SOL    HW2 7762   2.208   0.095   9.198
35289SOL     OW 7763   7.873  13.451   8.746
35289SOL    HW1 7764   7.946  13.408   8.792
35289SOL    HW2 7765   7.916  13.517   8.691
35290SOL     OW 7766  14.141   9.523  12.633
35290SOL    HW1 7767  14.185   9.497  12.552
35290SOL    HW2 7768  14.165   9.455  12.696
35291SOL     OW 7769   0.150   2.202   5.476
35291SOL    HW1 7770   0.153   2.251   5.394
35291SOL    HW2 7771   0.234   2.219   5.518
35292SOL     OW 7772   5.509   4.611  14.560
35292SOL    HW1 7773   5.549   4.615  14.646
35292SOL    HW2 7774   5.422   4.574  14.576
35293SOL     OW 7775   0.813   5.727  14.782
35293SOL    HW1 7776   0.787   5.774  14.861
35293SOL    HW2 7777   0.897   5.686  14.805
35294SOL     OW 7778   6.808   8.290  11.639
35294SOL    HW1 7779   6.759   8.208  11.629
35294SOL    HW2 7780   6.762   8.336  11.710
35295SOL     OW 7781  13.460  13.606  12.996
35295SOL    HW1 7782  13.375  13.645  12.978
35295SOL    HW2 7783  13.500  13.663  13.061
35296SOL     OW 7784  14.322   1.664   1.205
35296SOL    HW1 7785  14.238   1.633   1.169
35296SOL    HW2 7786  14.351   1.731   1.143
35297SOL     OW 7787   2.122   5.789   9.569
35297SOL    HW1 7788   2.049   5.755   9.620
35297SOL    HW2 7789   2.198   5.738   9.598
35298SOL     OW 7790   0.543  11.429   9.112
35298SOL    HW1 7791   0.555  11.480   9.192
35298SOL    HW2 7792   0.513  11.343   9.142
35299SOL     OW 7793  10.572   0.318  13.860
35299SOL    HW1 7794  10.643   0.382  13.859
35299SOL    HW2 7795  10.616   0.233  13.867
35300SOL     OW 7796   3.470   8.400   4.938
35300SOL    HW1 7797   3.392   8.432   4.984
35300SOL    HW2 7798   3.499   8.325   4.990
35301SOL     OW 7799   6.405   4.259  10.582
35301SOL    HW1 7800   6.344   4.332  10.576
35301SOL    HW2 7801   6.401   4.217  10.496
35302SOL     OW 7802  11.330  10.197   7.131
35302SOL    HW1 7803  11.309  10.206   7.223
35302SOL    HW2 7804  11.325  10.286   7.095
35303SOL     OW 7805  12.504   4.626  11.423
35303SOL    HW1 7806  12.524   4.557  11.486
35303SOL    HW2 7807  12.495   4.580  11.339
35304SOL     OW 7808   0.931   6.649   6.991
35304SOL    HW1 7809   0.944   6.721   7.052
35304SOL    HW2 7810   0.995   6.583   7.018
35305SOL     OW 7811   7.625  13.874  10.294
35305SOL    HW1 7812   7.552  13.926  10.260
35305SOL    HW2 7813   7.675  13.851  10.216
35306SOL     OW 7814   0.550   4.476  13.009
35306SOL    HW1 7815   0.522   4.562  12.977
35306SOL    HW2 7816   0.534   4.416  12.936
35307SOL     OW 7817   1.821   7.838   7.663
35307SOL    HW1 7818   1.866   7.755   7.682
35307SOL    HW2 7819   1.739   7.811   7.622
35308SOL     OW 7820   2.321   2.272   9.643
35308SOL    HW1 7821   2.349   2.289   9.733
35308SOL    HW2 7822   2.317   2.177   9.636
35309SOL     OW 7823  13.603   5.774  10.422
35309SOL    HW1 7824  13.595   5.864  10.392
35309SOL    HW2 7825  13.606   5.781  10.518
35310SOL     OW 7826  12.262   2.289   6.134
35310SOL    HW1 7827  12.236   2.292   6.042
35310SOL    HW2 7828  12.355   2.266   6.133
35311SOL     OW 7829   3.870   5.912   2.972
35311SOL    HW1 7830   3.889   5.858   3.048
35311SOL    HW2 7831   3.908   5.865   2.898
35312SOL     OW 7832   2.213  12.248   5.059
35312SOL    HW1 7833   2.246  12.162   5.032
35312SOL    HW2 7834   2.226  12.304   4.983
35313SOL     OW 7835   9.115   5.345   2.248
35313SOL    HW1 7836   9.070   5.429   2.248
35313SOL    HW2 7837   9.207   5.367   2.260
35314SOL     OW 7838   4.007  13.200   3.024
35314SOL    HW1 7839   3.955  13.258   2.969
35314SOL    HW2 7840   4.083  13.252   3.049
35315SOL     OW 7841   5.523   0.029   7.258
35315SOL    HW1 7842   5.555   0.095   7.196
35315SOL    HW2 7843   5.598   0.013   7.317
35316SOL     OW 7844  13.639   4.277   1.829
35316SOL    HW1 7845  13.709   4.226   1.868
35316SOL    HW2 7846  13.641   4.361   1.875
35317SOL     OW 7847   9.753  13.222   6.944
35317SOL    HW1 7848   9.748  13.318   6.950
35317SOL    HW2 7849   9.830  13.205   6.891
35318SOL     OW 7850   1.586   3.332  14.202
35318SOL    HW1 7851   1.572   3.378  14.119
35318SOL    HW2 7852   1.645   3.388  14.252
35319SOL     OW 7853   0.598  10.460   5.192
35319SOL    HW1 7854   0.680  10.478   5.238
35319SOL    HW2 7855   0.555  10.394   5.246
35320SOL     OW 7856   9.630   3.595   1.839
35320SOL    HW1 7857   9.598   3.513   1.802
35320SOL    HW2 7858   9.638   3.577   1.932
35321SOL     OW 7859   9.036   0.658  13.425
35321SOL    HW1 7860   9.056   0.733  13.369
35321SOL    HW2 7861   8.967   0.611  13.378
35322SOL     OW 7862   9.508   2.154   0.399
35322SOL    HW1 7863   9.487   2.086   0.463
35322SOL    HW2 7864   9.495   2.236   0.445
35323SOL     OW 7865  13.074   5.638  14.738
35323SOL    HW1 7866  13.148   5.681  14.781
35323SOL    HW2 7867  13.013   5.710  14.719
35324SOL     OW 7868  14.410  12.161   8.862
35324SOL    HW1 7869  14.399  12.227   8.794
35324SOL    HW2 7870  14.365  12.198   8.938
35325SOL     OW 7871   4.261   1.961   6.753
35325SOL    HW1 7872   4.217   2.045   6.763
35325SOL    HW2 7873   4.261   1.923   6.841
35326SOL     OW 7874  11.848  11.215  14.058
35326SOL    HW1 7875  11.942  11.227  14.072
35326SOL    HW2 7876  11.823  11.288  14.001
35327SOL     OW 7877   4.368  10.956   3.505
35327SOL    HW1 7878   4.283  10.912   3.511
35327SOL    HW2 7879   4.427  10.889   3.471
35328SOL     OW 7880  11.917   3.570   9.926
35328SOL    HW1 7881  11.865   3.548  10.004
35328SOL    HW2 7882  11.882   3.655   9.898
35329SOL     OW 7883   7.366  10.929  14.148
35329SOL    HW1 7884   7.286  10.880  14.163
35329SOL    HW2 7885   7.395  10.901  14.060
35330SOL     OW 7886   1.379   1.412   2.795
35330SOL    HW1 7887   1.401   1.505   2.798
35330SOL    HW2 7888   1.456   1.370   2.756
35331SOL     OW 7889  12.050  11.638   2.842
35331SOL    HW1 7890  12.064  11.628   2.748
35331SOL    HW2 7891  11.965  11.683   2.849
35332SOL     OW 7892   0.320  11.911   7.965
35332SOL    HW1 7893   0.352  11.966   7.893
35332SOL    HW2 7894   0.324  11.822   7.931
35333SOL     OW 7895  12.850   7.434  10.002
35333SOL    HW1 7896  12.865   7.448  10.095
35333SOL    HW2 7897  12.757   7.410   9.996
35334SOL     OW 7898   9.139  14.006   0.743
35334SOL    HW1 7899   9.204  13.936   0.733
35334SOL    HW2 7900   9.055  13.961   0.744
35335SOL     OW 7901   0.437   6.419  12.314
35335SOL    HW1 7902   0.354   6.440  12.272
35335SOL    HW2 7903   0.437   6.324  12.322
35336SOL     OW 7904  14.284   0.062   5.409
35336SOL    HW1 7905  14.191   0.040   5.408
35336SOL    HW2 7906  14.321   0.010   5.481
35337SOL     OW 7907  12.862   9.001   1.617
35337SOL    HW1 7908  12.813   8.978   1.538
35337SOL    HW2 7909  12.854   9.097   1.622
35338SOL     OW 7910   6.585   2.936   7.249
35338SOL    HW1 7911   6.656   2.986   7.288
35338SOL    HW2 7912   6.618   2.911   7.163
35339SOL     OW 7913   8.979   8.224  12.486
35339SOL    HW1 7914   8.960   8.297  12.545
35339SOL    HW2 7915   8.985   8.265  12.399
35340SOL     OW 7916  13.409   5.477   9.308
35340SOL    HW1 7917  13.320   5.469   9.276
35340SOL    HW2 7918  13.440   5.561   9.275
35341SOL     OW 7919   2.473  14.525   4.310
35341SOL    HW1 7920   2.453  14.601   4.365
35341SOL    HW2 7921   2.560  14.497   4.338
35342SOL     OW 7922  11.108   0.644   5.736
35342SOL    HW1 7923  11.089   0.550   5.736
35342SOL    HW2 7924  11.179   0.654   5.673
35343SOL     OW 7925   8.028   0.559   2.317
35343SOL    HW1 7926   8.019   0.529   2.408
35343SOL    HW2 7927   8.048   0.652   2.324
35344SOL     OW 7928  14.248   1.460  14.409
35344SOL    HW1 7929  14.195   1.413  14.474
35344SOL    HW2 7930  14.331   1.412  14.408
35345SOL     OW 7931   5.673   4.640   0.955
35345SOL    HW1 7932   5.726   4.679   1.025
35345SOL    HW2 7933   5.729   4.574   0.916
35346SOL     OW 7934  12.911  13.285  13.385
35346SOL    HW1 7935  12.985  13.309  13.441
35346SOL    HW2 7936  12.925  13.193  13.364
35347SOL     OW 7937   6.578   4.147  14.297
35347SOL    HW1 7938   6.622   4.227  14.267
35347SOL    HW2 7939   6.485   4.172  14.302
35348SOL     OW 7940  11.273   3.519   5.194
35348SOL    HW1 7941  11.221   3.462   5.251
35348SOL    HW2 7942  11.280   3.602   5.243
35349SOL     OW 7943   7.981   6.076   1.295
35349SOL    HW1 7944   8.030   6.126   1.360
35349SOL    HW2 7945   8.003   5.984   1.315
35350SOL     OW 7946   8.316   4.788   9.741
35350SOL    HW1 7947   8.308   4.716   9.679
35350SOL    HW2 7948   8.370   4.752   9.812
35351SOL     OW 7949   9.457   4.282   1.635
35351SOL    HW1 7950   9.516   4.218   1.676
35351SOL    HW2 7951   9.473   4.363   1.684
35352SOL     OW 7952   4.660   5.045   4.404
35352SOL    HW1 7953   4.693   5.007   4.485
35352SOL    HW2 7954   4.612   5.123   4.432
35353SOL     OW 7955   9.335  12.693  12.380
35353SOL    HW1 7956   9.326  12.672  12.473
35353SOL    HW2 7957   9.384  12.619  12.344
35354SOL     OW 7958   9.260   4.959   5.282
35354SOL    HW1 7959   9.262   4.940   5.189
35354SOL    HW2 7960   9.249   5.054   5.288
35355SOL     OW 7961  12.434  12.569   6.969
35355SOL    HW1 7962  12.361  12.547   7.027
35355SOL    HW2 7963  12.480  12.486   6.954
35356SOL     OW 7964   1.351   1.305   4.873
35356SOL    HW1 7965   1.350   1.386   4.924
35356SOL    HW2 7966   1.399   1.327   4.793
35357SOL     OW 7967   4.117  10.439   5.144
35357SOL    HW1 7968   4.025  10.464   5.148
35357SOL    HW2 7969   4.143  10.426   5.235
35358SOL     OW 7970   4.836   4.039   1.907
35358SOL    HW1 7971   4.898   3.968   1.924
35358SOL    HW2 7972   4.786   4.046   1.989
35359SOL     OW 7973   3.681   5.895   7.760
35359SOL    HW1 7974   3.673   5.977   7.808
35359SOL    HW2 7975   3.678   5.920   7.668
35360SOL     OW 7976   8.410  13.739   5.146
35360SOL    HW1 7977   8.474  13.788   5.197
35360SOL    HW2 7978   8.417  13.774   5.057
35361SOL     OW 7979  11.595   2.387  11.955
35361SOL    HW1 7980  11.558   2.408  12.041
35361SOL    HW2 7981  11.519   2.380  11.897
35362SOL     OW 7982   6.268   8.381   0.906
35362SOL    HW1 7983   6.285   8.309   0.967
35362SOL    HW2 7984   6.233   8.451   0.961
35363SOL     OW 7985  11.330   6.767   2.557
35363SOL    HW1 7986  11.315   6.786   2.464
35363SOL    HW2 7987  11.417   6.729   2.560
35364SOL     OW 7988  13.135   9.178   3.127
35364SOL    HW1 7989  13.195   9.200   3.055
35364SOL    HW2 7990  13.172   9.224   3.203
35365SOL     OW 7991   7.710  11.901   1.287
35365SOL    HW1 7992   7.732  11.835   1.352
35365SOL    HW2 7993   7.750  11.868   1.206
35366SOL     OW 7994  14.183   4.395  13.807
35366SOL    HW1 7995  14.109   4.440  13.847
35366SOL    HW2 7996  14.234   4.362  13.881
35367SOL     OW 7997   9.623   4.169  11.730
35367SOL    HW1 7998   9.573   4.152  11.650
35367SOL    HW2 7999   9.577   4.240  11.773
35368SOL     OW 8000   6.269   5.591   1.006
35368SOL    HW1 8001   6.239   5.594   0.915
35368SOL    HW2 8002   6.327   5.515   1.009
35369SOL     OW 8003   3.560  13.524   6.440
35369SOL    HW1 8004   3.577  13.560   6.527
35369SOL    HW2 8005   3.484  13.574   6.408
35370SOL     OW 8006  11.075   2.119   7.261
35370SOL    HW1 8007  11.011   2.125   7.190
35370SOL    HW2 8008  11.023   2.111   7.340
35371SOL     OW 8009   3.675  12.257  12.720
35371SOL    HW1 8010   3.709  12.217  12.800
35371SOL    HW2 8011   3.707  12.201  12.649
35372SOL     OW 8012  14.723   8.077   0.488
35372SOL    HW1 8013  14.685   7.991   0.468
35372SOL    HW2 8014  14.652   8.126   0.529
35373SOL     OW 8015   6.487  11.303   9.123
35373SOL    HW1 8016   6.434  11.239   9.076
35373SOL    HW2 8017   6.462  11.292   9.215
35374SOL     OW 8018  12.163   8.063   5.772
35374SOL    HW1 8019  12.203   8.129   5.829
35374SOL    HW2 8020  12.230   7.994   5.765
35375SOL     OW 8021  10.815   4.381   7.989
35375SOL    HW1 8022  10.839   4.412   8.076
35375SOL    HW2 8023  10.889   4.408   7.933
35376SOL     OW 8024   3.097   4.893  13.286
35376SOL    HW1 8025   3.042   4.819  13.258
35376SOL    HW2 8026   3.070   4.911  13.376
35377SOL     OW 8027   9.174   5.845  13.906
35377SOL    HW1 8028   9.131   5.929  13.918
35377SOL    HW2 8029   9.178   5.806  13.994
35378SOL     OW 8030  13.823  12.507   7.729
35378SOL    HW1 8031  13.815  12.413   7.749
35378SOL    HW2 8032  13.872  12.509   7.647
35379SOL     OW 8033  12.173   4.884   9.129
35379SOL    HW1 8034  12.268   4.881   9.120
35379SOL    HW2 8035  12.157   4.951   9.196
35380SOL     OW 8036   7.927   7.121  10.088
35380SOL    HW1 8037   8.019   7.096  10.100
35380SOL    HW2 8038   7.877   7.050  10.129
35381SOL     OW 8039   1.646  10.035   6.334
35381SOL    HW1 8040   1.708  10.008   6.401
35381SOL    HW2 8041   1.600   9.955   6.311
35382SOL     OW 8042   8.038   1.218   0.464
35382SOL    HW1 8043   7.969   1.171   0.510
35382SOL    HW2 8044   8.109   1.154   0.456
35383SOL     OW 8045  11.194   8.270   8.286
35383SOL    HW1 8046  11.170   8.362   8.303
35383SOL    HW2 8047  11.110   8.226   8.273
35384SOL     OW 8048   8.142   1.614  10.967
35384SOL    HW1 8049   8.218   1.592  11.020
35384SOL    HW2 8050   8.080   1.543  10.983
35385SOL     OW 8051   2.811   6.272   6.897
35385SOL    HW1 8052   2.781   6.185   6.870
35385SOL    HW2 8053   2.875   6.255   6.966
35386SOL     OW 8054  10.230  11.746   5.979
35386SOL    HW1 8055  10.184  11.735   5.896
35386SOL    HW2 8056  10.239  11.840   5.990
35387SOL     OW 8057   0.020   2.171   5.719
35387SOL    HW1 8058   0.032   2.250   5.771
35387SOL    HW2 8059   0.057   2.193   5.633
35388SOL     OW 8060   2.145   0.563   5.744
35388SOL    HW1 8061   2.178   0.627   5.806
35388SOL    HW2 8062   2.189   0.482   5.767
35389SOL     OW 8063   2.643   3.424   6.616
35389SOL    HW1 8064   2.582   3.437   6.688
35389SOL    HW2 8065   2.684   3.510   6.603
35390SOL     OW 8066   7.962  13.059   8.558
35390SOL    HW1 8067   7.998  13.033   8.643
35390SOL    HW2 8068   7.868  13.066   8.572
35391SOL     OW 8069   6.980  11.181   1.718
35391SOL    HW1 8070   7.014  11.232   1.644
35391SOL    HW2 8071   7.011  11.227   1.795
35392SOL     OW 8072   7.388   7.889  13.824
35392SOL    HW1 8073   7.333   7.824  13.867
35392SOL    HW2 8074   7.399   7.856  13.735
35393SOL     OW 8075  13.735  13.943   3.992
35393SOL    HW1 8076  13.785  13.861   3.990
35393SOL    HW2 8077  13.732  13.967   4.084
35394SOL     OW 8078   5.145  12.229  13.247
35394SOL    HW1 8079   5.131  12.321  13.268
35394SOL    HW2 8080   5.077  12.182  13.295
35395SOL     OW 8081  12.926   6.834   0.523
35395SOL    HW1 8082  12.865   6.881   0.465
35395SOL    HW2 8083  12.873   6.810   0.599
35396SOL     OW 8084  12.106   2.718   4.677
35396SOL    HW1 8085  12.173   2.670   4.726
35396SOL    HW2 8086  12.130   2.705   4.585
35397SOL     OW 8087   7.196  12.101   5.120
35397SOL    HW1 8088   7.240  12.184   5.136
35397SOL    HW2 8089   7.154  12.112   5.034
35398SOL     OW 8090   8.891   9.192  13.171
35398SOL    HW1 8091   8.812   9.159  13.129
35398SOL    HW2 8092   8.858   9.246  13.243
35399SOL     OW 8093  11.984   1.351  13.094
35399SOL    HW1 8094  12.017   1.263  13.081
35399SOL    HW2 8095  11.929   1.368  13.017
35400SOL     OW 8096   9.323   7.862   6.759
35400SOL    HW1 8097   9.306   7.883   6.851
35400SOL    HW2 8098   9.403   7.810   6.761
35401SOL     OW 8099   0.715   9.485   6.910
35401SOL    HW1 8100   0.781   9.426   6.873
35401SOL    HW2 8101   0.740   9.572   6.879
35402SOL     OW 8102   4.195  12.910   8.485
35402SOL    HW1 8103   4.100  12.904   8.482
35402SOL    HW2 8104   4.221  12.939   8.397
35403SOL     OW 8105   9.957  12.780  13.432
35403SOL    HW1 8106   9.968  12.766  13.338
35403SOL    HW2 8107  10.030  12.838  13.456
35404SOL     OW 8108  14.445  14.822  13.649
35404SOL    HW1 8109  14.485  14.809  13.563
35404SOL    HW2 8110  14.452  14.736  13.691
35405SOL     OW 8111   6.864   2.043   2.927
35405SOL    HW1 8112   6.908   2.023   2.845
35405SOL    HW2 8113   6.842   1.957   2.964
35406SOL     OW 8114   5.958   6.001   8.764
35406SOL    HW1 8115   6.026   6.004   8.697
35406SOL    HW2 8116   6.002   5.965   8.841
35407SOL     OW 8117   3.735  12.499   0.307
35407SOL    HW1 8118   3.807  12.448   0.270
35407SOL    HW2 8119   3.770  12.534   0.389
35408SOL     OW 8120   2.493  13.293  12.205
35408SOL    HW1 8121   2.531  13.377  12.179
35408SOL    HW2 8122   2.461  13.255  12.123
35409SOL     OW 8123   7.264  14.779   9.872
35409SOL    HW1 8124   7.251  14.684   9.865
35409SOL    HW2 8125   7.231  14.801   9.959
35410SOL     OW 8126   3.709   9.671  10.113
35410SOL    HW1 8127   3.710   9.740  10.047
35410SOL    HW2 8128   3.800   9.664  10.142
35411SOL     OW 8129   0.126   4.286   3.540
35411SOL    HW1 8130   0.040   4.250   3.560
35411SOL    HW2 8131   0.108   4.371   3.500
35412SOL     OW 8132   0.106   3.380  12.353
35412SOL    HW1 8133   0.122   3.413  12.442
35412SOL    HW2 8134   0.031   3.430  12.323
35413SOL     OW 8135  11.519   0.029   7.272
35413SOL    HW1 8136  11.423   0.028   7.274
35413SOL    HW2 8137  11.542  14.831   7.215
35414SOL     OW 8138   6.483  10.819  11.713
35414SOL    HW1 8139   6.453  10.893  11.766
35414SOL    HW2 8140   6.572  10.803  11.743
35415SOL     OW 8141   8.581  11.701  10.229
35415SOL    HW1 8142   8.619  11.663  10.308
35415SOL    HW2 8143   8.592  11.796  10.239
35416SOL     OW 8144  11.803  11.951   8.551
35416SOL    HW1 8145  11.739  11.889   8.515
35416SOL    HW2 8146  11.756  11.996   8.621
35417SOL     OW 8147   7.744   5.961   9.145
35417SOL    HW1 8148   7.814   5.997   9.199
35417SOL    HW2 8149   7.764   5.992   9.056
35418SOL     OW 8150  12.215   9.275   7.415
35418SOL    HW1 8151  12.288   9.326   7.380
35418SOL    HW2 8152  12.143   9.337   7.423
35419SOL     OW 8153  14.859  10.252  11.282
35419SOL    HW1 8154  14.822  10.177  11.328
35419SOL    HW2 8155   0.079  10.239  11.285
35420SOL     OW 8156   4.847   6.496   6.650
35420SOL    HW1 8157   4.772   6.535   6.695
35420SOL    HW2 8158   4.808   6.439   6.584
35421SOL     OW 8159   5.614   7.515   8.460
35421SOL    HW1 8160   5.545   7.513   8.527
35421SOL    HW2 8161   5.660   7.598   8.475
35422SOL     OW 8162   5.242   8.565   8.660
35422SOL    HW1 8163   5.264   8.479   8.698
35422SOL    HW2 8164   5.219   8.619   8.735
35423SOL     OW 8165   6.641   6.898   0.397
35423SOL    HW1 8166   6.613   6.988   0.381
35423SOL    HW2 8167   6.687   6.902   0.481
35424SOL     OW 8168  14.752   5.913   3.176
35424SOL    HW1 8169  14.676   5.908   3.234
35424SOL    HW2 8170  14.828   5.902   3.233
35425SOL     OW 8171   5.242   3.653  10.182
35425SOL    HW1 8172   5.305   3.711  10.139
35425SOL    HW2 8173   5.177   3.712  10.220
35426SOL     OW 8174  11.662   0.255   4.643
35426SOL    HW1 8175  11.702   0.338   4.668
35426SOL    HW2 8176  11.618   0.274   4.561
35427SOL     OW 8177  14.261   2.204  10.033
35427SOL    HW1 8178  14.304   2.258   9.967
35427SOL    HW2 8179  14.333   2.159  10.078
35428SOL     OW 8180   8.707  12.441  10.668
35428SOL    HW1 8181   8.771  12.371  10.658
35428SOL    HW2 8182   8.732  12.485  10.749
35429SOL     OW 8183   7.084  10.668   6.587
35429SOL    HW1 8184   7.049  10.696   6.502
35429SOL    HW2 8185   7.082  10.572   6.584
35430SOL     OW 8186  12.859   3.163   5.861
35430SOL    HW1 8187  12.870   3.236   5.922
35430SOL    HW2 8188  12.862   3.203   5.774
35431SOL     OW 8189  13.560   3.503   4.550
35431SOL    HW1 8190  13.618   3.494   4.626
35431SOL    HW2 8191  13.490   3.561   4.579
35432SOL     OW 8192   9.375  11.144   3.219
35432SOL    HW1 8193   9.318  11.217   3.244
35432SOL    HW2 8194   9.328  11.067   3.251
35433SOL     OW 8195   8.146   4.657   3.282
35433SOL    HW1 8196   8.226   4.621   3.242
35433SOL    HW2 8197   8.122   4.730   3.225
35434SOL     OW 8198   4.752   8.104   3.355
35434SOL    HW1 8199   4.830   8.135   3.308
35434SOL    HW2 8200   4.756   8.147   3.440
35435SOL     OW 8201  12.729   4.731   7.705
35435SOL    HW1 8202  12.763   4.673   7.637
35435SOL    HW2 8203  12.638   4.704   7.716
35436SOL     OW 8204   7.504  10.632  13.502
35436SOL    HW1 8205   7.584  10.636  13.450
35436SOL    HW2 8206   7.508  10.546  13.544
35437SOL     OW 8207   6.793  13.978   2.708
35437SOL    HW1 8208   6.704  13.997   2.740
35437SOL    HW2 8209   6.848  14.044   2.751
35438SOL     OW 8210   6.718  13.159   7.087
35438SOL    HW1 8211   6.751  13.201   7.166
35438SOL    HW2 8212   6.627  13.189   7.079
35439SOL     OW 8213  12.310   8.530   6.125
35439SOL    HW1 8214  12.326   8.622   6.108
35439SOL    HW2 8215  12.298   8.525   6.220
35440SOL     OW 8216  11.086   1.630  13.769
35440SOL    HW1 8217  11.173   1.660  13.745
35440SOL    HW2 8218  11.027   1.700  13.740
35441SOL     OW 8219   8.465   4.294   1.838
35441SOL    HW1 8220   8.402   4.351   1.795
35441SOL    HW2 8221   8.455   4.312   1.931
35442SOL     OW 8222  11.134   3.799   1.712
35442SOL    HW1 8223  11.191   3.730   1.746
35442SOL    HW2 8224  11.052   3.788   1.760
35443SOL     OW 8225   4.261   1.661   1.146
35443SOL    HW1 8226   4.169   1.686   1.149
35443SOL    HW2 8227   4.277   1.640   1.054
35444SOL     OW 8228   9.815   1.559  13.911
35444SOL    HW1 8229   9.903   1.538  13.880
35444SOL    HW2 8230   9.806   1.510  13.993
35445SOL     OW 8231  14.329  12.363  10.523
35445SOL    HW1 8232  14.327  12.448  10.567
35445SOL    HW2 8233  14.354  12.301  10.591
35446SOL     OW 8234  14.853   7.335   5.193
35446SOL    HW1 8235  14.817   7.286   5.267
35446SOL    HW2 8236  14.785   7.328   5.125
35447SOL     OW 8237  11.716   9.358   0.375
35447SOL    HW1 8238  11.761   9.425   0.426
35447SOL    HW2 8239  11.679   9.405   0.300
35448SOL     OW 8240  11.312  13.025   8.406
35448SOL    HW1 8241  11.283  12.942   8.368
35448SOL    HW2 8242  11.263  13.034   8.487
35449SOL     OW 8243   4.452   0.458   9.598
35449SOL    HW1 8244   4.434   0.462   9.692
35449SOL    HW2 8245   4.489   0.544   9.577
35450SOL     OW 8246   3.838  13.043   8.145
35450SOL    HW1 8247   3.823  13.122   8.197
35450SOL    HW2 8248   3.754  12.997   8.147
35451SOL     OW 8249   9.840   4.967   9.433
35451SOL    HW1 8250   9.876   4.983   9.346
35451SOL    HW2 8251   9.760   4.918   9.418
35452SOL     OW 8252  12.389   1.259   2.889
35452SOL    HW1 8253  12.463   1.311   2.920
35452SOL    HW2 8254  12.408   1.170   2.918
35453SOL     OW 8255   5.392   3.100   5.147
35453SOL    HW1 8256   5.349   3.058   5.073
35453SOL    HW2 8257   5.457   3.158   5.108
35454SOL     OW 8258   1.452   2.681  11.725
35454SOL    HW1 8259   1.463   2.668  11.631
35454SOL    HW2 8260   1.364   2.719  11.734
35455SOL     OW 8261   7.815   6.912   4.018
35455SOL    HW1 8262   7.908   6.905   3.994
35455SOL    HW2 8263   7.811   6.879   4.107
35456SOL     OW 8264   7.159   4.604   0.928
35456SOL    HW1 8265   7.220   4.579   0.859
35456SOL    HW2 8266   7.077   4.623   0.883
35457SOL     OW 8267   1.085   9.401  13.631
35457SOL    HW1 8268   1.011   9.460  13.614
35457SOL    HW2 8269   1.082   9.385  13.725
35458SOL     OW 8270   7.374  11.343   3.583
35458SOL    HW1 8271   7.431  11.266   3.584
35458SOL    HW2 8272   7.355  11.359   3.676
35459SOL     OW 8273  13.736  11.056  10.903
35459SOL    HW1 8274  13.652  11.045  10.946
35459SOL    HW2 8275  13.734  10.995  10.829
35460SOL     OW 8276   4.966   5.887   1.745
35460SOL    HW1 8277   4.902   5.816   1.738
35460SOL    HW2 8278   5.051   5.843   1.746
35461SOL     OW 8279   9.528  14.838  14.755
35461SOL    HW1 8280   9.473  14.767  14.789
35461SOL    HW2 8281   9.506   0.038  14.809
35462SOL     OW 8282   1.136  10.400  14.621
35462SOL    HW1 8283   1.220  10.403  14.666
35462SOL    HW2 8284   1.072  10.388  14.692
35463SOL     OW 8285   9.643   6.989  10.924
35463SOL    HW1 8286   9.733   6.962  10.910
35463SOL    HW2 8287   9.649   7.067  10.980
35464SOL     OW 8288   5.005  11.536  14.802
35464SOL    HW1 8289   4.967  11.469  14.744
35464SOL    HW2 8290   5.046  11.598  14.742
35465SOL     OW 8291   2.575   0.050   4.181
35465SOL    HW1 8292   2.578   0.011   4.094
35465SOL    HW2 8293   2.664   0.080   4.197
35466SOL     OW 8294  12.679   6.067   6.197
35466SOL    HW1 8295  12.604   6.082   6.140
35466SOL    HW2 8296  12.702   5.975   6.184
35467SOL     OW 8297   0.481   0.645   2.548
35467SOL    HW1 8298   0.397   0.674   2.584
35467SOL    HW2 8299   0.542   0.650   2.622
35468SOL     OW 8300   2.039  12.584   1.599
35468SOL    HW1 8301   2.128  12.616   1.588
35468SOL    HW2 8302   2.026  12.581   1.694
35469SOL     OW 8303   4.743   9.627  13.014
35469SOL    HW1 8304   4.657   9.591  12.991
35469SOL    HW2 8305   4.802   9.551  13.013
35470SOL     OW 8306  10.094   2.234   6.507
35470SOL    HW1 8307  10.033   2.295   6.465
35470SOL    HW2 8308  10.095   2.260   6.599
35471SOL     OW 8309   7.487  12.381   0.016
35471SOL    HW1 8310   7.487  12.476   0.022
35471SOL    HW2 8311   7.394  12.357   0.014
35472SOL     OW 8312   0.027  12.425   7.449
35472SOL    HW1 8313  14.874  12.466   7.367
35472SOL    HW2 8314  14.827  12.436   7.507
35473SOL     OW 8315   5.841  10.383   3.904
35473SOL    HW1 8316   5.762  10.415   3.949
35473SOL    HW2 8317   5.820  10.389   3.811
35474SOL     OW 8318  13.914   7.774   9.754
35474SOL    HW1 8319  13.998   7.729   9.740
35474SOL    HW2 8320  13.929   7.832   9.828
35475SOL     OW 8321  12.153   9.160   2.328
35475SOL    HW1 8322  12.225   9.186   2.385
35475SOL    HW2 8323  12.074   9.192   2.371
35476SOL     OW 8324   4.518   4.490   4.998
35476SOL    HW1 8325   4.543   4.424   4.933
35476SOL    HW2 8326   4.469   4.440   5.064
35477SOL     OW 8327   2.431  14.793   5.577
35477SOL    HW1 8328   2.419  14.830   5.664
35477SOL    HW2 8329   2.517  14.823   5.549
35478SOL     OW 8330  14.591  11.116   2.322
35478SOL    HW1 8331  14.663  11.062   2.354
35478SOL    HW2 8332  14.520  11.053   2.304
35479SOL     OW 8333   6.149   4.757   0.080
35479SOL    HW1 8334   6.058   4.782   0.091
35479SOL    HW2 8335   6.196   4.807   0.147
35480SOL     OW 8336  13.170   9.149   8.990
35480SOL    HW1 8337  13.197   9.089   8.921
35480SOL    HW2 8338  13.074   9.152   8.983
35481SOL     OW 8339   6.150  13.043   6.293
35481SOL    HW1 8340   6.132  13.111   6.228
35481SOL    HW2 8341   6.086  12.975   6.274
35482SOL     OW 8342   1.555   6.528  12.634
35482SOL    HW1 8343   1.508   6.474  12.570
35482SOL    HW2 8344   1.648   6.515  12.612
35483SOL     OW 8345   3.444   0.737  13.741
35483SOL    HW1 8346   3.406   0.732  13.654
35483SOL    HW2 8347   3.498   0.658  13.749
35484SOL     OW 8348   5.996   5.188  12.894
35484SOL    HW1 8349   5.912   5.143  12.898
35484SOL    HW2 8350   6.060   5.119  12.880
35485SOL     OW 8351   9.147  13.799   1.562
35485SOL    HW1 8352   9.063  13.771   1.524
35485SOL    HW2 8353   9.207  13.799   1.487
35486SOL     OW 8354   4.159  11.089   0.638
35486SOL    HW1 8355   4.223  11.020   0.622
35486SOL    HW2 8356   4.113  11.060   0.717
35487SOL     OW 8357   3.671   9.037   5.218
35487SOL    HW1 8358   3.592   9.067   5.172
35487SOL    HW2 8359   3.736   9.105   5.199
35488SOL     OW 8360   0.447  13.443   2.262
35488SOL    HW1 8361   0.423  13.395   2.182
35488SOL    HW2 8362   0.521  13.395   2.298
35489SOL     OW 8363   4.171   2.007   2.961
35489SOL    HW1 8364   4.098   2.056   2.924
35489SOL    HW2 8365   4.186   1.935   2.900
35490SOL     OW 8366  13.640  12.046  10.140
35490SOL    HW1 8367  13.593  11.962  10.138
35490SOL    HW2 8368  13.659  12.065  10.048
35491SOL     OW 8369   1.594   9.197   1.424
35491SOL    HW1 8370   1.611   9.290   1.405
35491SOL    HW2 8371   1.507   9.196   1.463
35492SOL     OW 8372   0.936  11.967   4.855
35492SOL    HW1 8373   0.930  12.043   4.797
35492SOL    HW2 8374   0.851  11.923   4.845
35493SOL     OW 8375  13.226   4.005  12.745
35493SOL    HW1 8376  13.177   4.006  12.828
35493SOL    HW2 8377  13.238   4.098  12.724
35494SOL     OW 8378   7.290   8.968   8.626
35494SOL    HW1 8379   7.313   9.021   8.703
35494SOL    HW2 8380   7.367   8.972   8.570
35495SOL     OW 8381   7.251   4.634  12.110
35495SOL    HW1 8382   7.225   4.595  12.193
35495SOL    HW2 8383   7.342   4.660  12.123
35496SOL     OW 8384   7.840   4.159   6.317
35496SOL    HW1 8385   7.932   4.133   6.326
35496SOL    HW2 8386   7.844   4.251   6.289
35497SOL     OW 8387  10.489   9.252   9.849
35497SOL    HW1 8388  10.413   9.284   9.799
35497SOL    HW2 8389  10.454   9.231   9.935
35498SOL     OW 8390   2.420   6.982  11.126
35498SOL    HW1 8391   2.477   7.059  11.127
35498SOL    HW2 8392   2.431   6.943  11.213
35499SOL     OW 8393   6.309  13.819   7.783
35499SOL    HW1 8394   6.230  13.858   7.747
35499SOL    HW2 8395   6.278  13.766   7.857
35500SOL     OW 8396   2.215  12.574   1.181
35500SOL    HW1 8397   2.232  12.610   1.268
35500SOL    HW2 8398   2.276  12.620   1.124
35501SOL     OW 8399  14.487   1.578   2.976
35501SOL    HW1 8400  14.406   1.532   2.996
35501SOL    HW2 8401  14.554   1.532   3.027
35502SOL     OW 8402  12.306   9.762   1.366
35502SOL    HW1 8403  12.305   9.674   1.328
35502SOL    HW2 8404  12.296   9.748   1.460
35503SOL     OW 8405   2.882   5.391   9.735
35503SOL    HW1 8406   2.870   5.431   9.649
35503SOL    HW2 8407   2.858   5.461   9.797
35504SOL     OW 8408   6.537  12.369   2.514
35504SOL    HW1 8409   6.544  12.290   2.567
35504SOL    HW2 8410   6.626  12.387   2.485
35505SOL     OW 8411  12.968  13.516  10.732
35505SOL    HW1 8412  12.934  13.427  10.724
35505SOL    HW2 8413  12.976  13.530  10.827
35506SOL     OW 8414  11.947  14.141   6.800
35506SOL    HW1 8415  11.864  14.094   6.789
35506SOL    HW2 8416  11.947  14.206   6.730
35507SOL     OW 8417   0.587  12.045  10.191
35507SOL    HW1 8418   0.547  11.959  10.181
35507SOL    HW2 8419   0.526  12.106  10.149
35508SOL     OW 8420   1.707   0.591  11.011
35508SOL    HW1 8421   1.625   0.542  11.002
35508SOL    HW2 8422   1.735   0.575  11.101
35509SOL     OW 8423  10.292   4.781   5.019
35509SOL    HW1 8424  10.306   4.687   5.008
35509SOL    HW2 8425  10.332   4.802   5.104
35510SOL     OW 8426   7.309  11.253   9.903
35510SOL    HW1 8427   7.292  11.238   9.996
35510SOL    HW2 8428   7.223  11.269   9.865
35511SOL     OW 8429  12.157   8.521   2.042
35511SOL    HW1 8430  12.215   8.445   2.047
35511SOL    HW2 8431  12.129   8.535   2.133
35512SOL     OW 8432  12.764  10.651   6.016
35512SOL    HW1 8433  12.766  10.739   6.054
35512SOL    HW2 8434  12.770  10.592   6.092
35513SOL     OW 8435   5.278   4.214  12.940
35513SOL    HW1 8436   5.311   4.201  13.028
35513SOL    HW2 8437   5.352   4.249  12.890
35514SOL     OW 8438   7.898   2.706  14.143
35514SOL    HW1 8439   7.858   2.705  14.056
35514SOL    HW2 8440   7.992   2.713  14.127
35515SOL     OW 8441   5.661   3.542   5.207
35515SOL    HW1 8442   5.694   3.453   5.198
35515SOL    HW2 8443   5.680   3.584   5.123
35516SOL     OW 8444   9.043   3.668   1.624
35516SOL    HW1 8445   9.086   3.749   1.598
35516SOL    HW2 8446   9.101   3.599   1.593
35517SOL     OW 8447   6.810  12.340   2.404
35517SOL    HW1 8448   6.768  12.316   2.321
35517SOL    HW2 8449   6.894  12.379   2.378
35518SOL     OW 8450   4.005   0.990   3.983
35518SOL    HW1 8451   3.969   0.988   4.072
35518SOL    HW2 8452   4.025   0.898   3.963
35519SOL     OW 8453   4.293   4.933   9.925
35519SOL    HW1 8454   4.253   4.902   9.844
35519SOL    HW2 8455   4.225   4.985   9.967
35520SOL     OW 8456   4.895   5.281  12.264
35520SOL    HW1 8457   4.979   5.245  12.237
35520SOL    HW2 8458   4.906   5.302  12.356
35521SOL     OW 8459   7.190  11.477   5.436
35521SOL    HW1 8460   7.177  11.512   5.524
35521SOL    HW2 8461   7.280  11.444   5.436
35522SOL     OW 8462  10.113   9.128   8.687
35522SOL    HW1 8463  10.063   9.194   8.734
35522SOL    HW2 8464  10.143   9.067   8.755
35523SOL     OW 8465   8.983   9.113   0.167
35523SOL    HW1 8466   9.007   9.021   0.183
35523SOL    HW2 8467   9.050   9.144   0.106
35524SOL     OW 8468   0.201   1.894  13.024
35524SOL    HW1 8469   0.147   1.837  12.969
35524SOL    HW2 8470   0.287   1.852  13.024
35525SOL     OW 8471   4.630   4.910   2.049
35525SOL    HW1 8472   4.578   4.989   2.034
35525SOL    HW2 8473   4.638   4.870   1.962
35526SOL     OW 8474   5.757  13.053   6.847
35526SOL    HW1 8475   5.821  13.098   6.793
35526SOL    HW2 8476   5.708  12.998   6.786
35527SOL     OW 8477   9.226   7.438   7.958
35527SOL    HW1 8478   9.147   7.480   7.990
35527SOL    HW2 8479   9.222   7.450   7.863
35528SOL     OW 8480  10.406  11.194   1.976
35528SOL    HW1 8481  10.312  11.206   1.964
35528SOL    HW2 8482  10.433  11.268   2.030
35529SOL     OW 8483   2.985   5.330   9.029
35529SOL    HW1 8484   2.959   5.267   8.962
35529SOL    HW2 8485   2.952   5.294   9.111
35530SOL     OW 8486   5.340  11.307   8.005
35530SOL    HW1 8487   5.429  11.282   8.031
35530SOL    HW2 8488   5.352  11.380   7.945
35531SOL     OW 8489   8.342   4.388   3.899
35531SOL    HW1 8490   8.345   4.315   3.960
35531SOL    HW2 8491   8.285   4.453   3.942
35532SOL     OW 8492   8.416   4.676   1.532
35532SOL    HW1 8493   8.415   4.584   1.557
35532SOL    HW2 8494   8.397   4.676   1.439
35533SOL     OW 8495   1.172   2.755  11.810
35533SOL    HW1 8496   1.191   2.836  11.763
35533SOL    HW2 8497   1.165   2.781  11.902
35534SOL     OW 8498   5.676  10.458   4.986
35534SOL    HW1 8499   5.632  10.496   5.062
35534SOL    HW2 8500   5.608  10.446   4.921
35535SOL     OW 8501  13.973  11.601   6.154
35535SOL    HW1 8502  13.954  11.644   6.237
35535SOL    HW2 8503  14.069  11.596   6.151
35536SOL     OW 8504   4.874  12.737   0.194
35536SOL    HW1 8505   4.850  12.662   0.248
35536SOL    HW2 8506   4.802  12.799   0.205
35537SOL     OW 8507  14.094  12.889   4.911
35537SOL    HW1 8508  14.085  12.878   5.005
35537SOL    HW2 8509  14.046  12.816   4.873
35538SOL     OW 8510   0.589  12.827  10.183
35538SOL    HW1 8511   0.511  12.882  10.180
35538SOL    HW2 8512   0.556  12.740  10.209
35539SOL     OW 8513   9.206  14.122   6.425
35539SOL    HW1 8514   9.193  14.088   6.336
35539SOL    HW2 8515   9.178  14.050   6.482
35540SOL     OW 8516  12.333   1.672   5.504
35540SOL    HW1 8517  12.264   1.694   5.442
35540SOL    HW2 8518  12.287   1.656   5.586
35541SOL     OW 8519   8.871   6.698   3.184
35541SOL    HW1 8520   8.799   6.737   3.235
35541SOL    HW2 8521   8.847   6.715   3.093
35542SOL     OW 8522   3.529   1.477   3.095
35542SOL    HW1 8523   3.497   1.562   3.125
35542SOL    HW2 8524   3.592   1.450   3.163
35543SOL     OW 8525  11.250   1.418  11.388
35543SOL    HW1 8526  11.321   1.419  11.452
35543SOL    HW2 8527  11.282   1.474  11.317
35544SOL     OW 8528   3.561  14.141  13.080
35544SOL    HW1 8529   3.654  14.130  13.059
35544SOL    HW2 8530   3.560  14.177  13.168
35545SOL     OW 8531   9.546   1.573  10.773
35545SOL    HW1 8532   9.535   1.478  10.773
35545SOL    HW2 8533   9.542   1.598  10.866
35546SOL     OW 8534  11.822   9.658   8.475
35546SOL    HW1 8535  11.840   9.713   8.552
35546SOL    HW2 8536  11.749   9.702   8.432
35547SOL     OW 8537   3.465   5.192  14.454
35547SOL    HW1 8538   3.492   5.251  14.525
35547SOL    HW2 8539   3.523   5.116  14.463
35548SOL     OW 8540  11.274   7.235   3.674
35548SOL    HW1 8541  11.320   7.199   3.598
35548SOL    HW2 8542  11.262   7.161   3.733
35549SOL     OW 8543   3.141   2.272  13.376
35549SOL    HW1 8544   3.121   2.208  13.307
35549SOL    HW2 8545   3.073   2.258  13.442
35550SOL     OW 8546  13.283  10.529  10.142
35550SOL    HW1 8547  13.274  10.493  10.231
35550SOL    HW2 8548  13.309  10.620  10.155
35551SOL     OW 8549   4.505   4.535  10.542
35551SOL    HW1 8550   4.416   4.524  10.577
35551SOL    HW2 8551   4.551   4.455  10.569
35552SOL     OW 8552   6.602  11.494   3.046
35552SOL    HW1 8553   6.677  11.441   3.020
35552SOL    HW2 8554   6.603  11.568   2.985
35553SOL     OW 8555   7.792   0.742   7.968
35553SOL    HW1 8556   7.886   0.763   7.967
35553SOL    HW2 8557   7.763   0.758   7.878
35554SOL     OW 8558   1.465  13.997   0.441
35554SOL    HW1 8559   1.521  13.921   0.423
35554SOL    HW2 8560   1.392  13.989   0.381
35555SOL     OW 8561   2.662   8.091   1.512
35555SOL    HW1 8562   2.669   8.143   1.432
35555SOL    HW2 8563   2.575   8.050   1.506
35556SOL     OW 8564   1.923   4.165  14.856
35556SOL    HW1 8565   1.872   4.237   0.018
35556SOL    HW2 8566   1.874   4.138  14.779
35557SOL     OW 8567   5.539  10.055  10.937
35557SOL    HW1 8568   5.539   9.961  10.921
35557SOL    HW2 8569   5.505  10.064  11.026
35558SOL     OW 8570   4.584   0.920  13.918
35558SOL    HW1 8571   4.594   0.835  13.961
35558SOL    HW2 8572   4.672   0.957  13.917
35559SOL     OW 8573   5.605  13.694   1.561
35559SOL    HW1 8574   5.526  13.731   1.522
35559SOL    HW2 8575   5.627  13.619   1.505
35560SOL     OW 8576   7.953   0.904   2.560
35560SOL    HW1 8577   7.933   0.992   2.529
35560SOL    HW2 8578   7.901   0.846   2.504
35561SOL     OW 8579  12.953   4.097  12.537
35561SOL    HW1 8580  12.881   4.061  12.587
35561SOL    HW2 8581  13.026   4.101  12.599
35562SOL     OW 8582   4.867   5.131  13.771
35562SOL    HW1 8583   4.869   5.189  13.848
35562SOL    HW2 8584   4.952   5.086  13.773
35563SOL     OW 8585  11.684  10.889   0.085
35563SOL    HW1 8586  11.593  10.879   0.115
35563SOL    HW2 8587  11.677  10.897  14.865
35564SOL     OW 8588   8.791   2.995   1.281
35564SOL    HW1 8589   8.838   2.923   1.323
35564SOL    HW2 8590   8.735   3.030   1.351
35565SOL     OW 8591  10.787   2.014   3.645
35565SOL    HW1 8592  10.792   1.966   3.562
35565SOL    HW2 8593  10.794   1.946   3.712
35566SOL     OW 8594   5.568   4.709   6.801
35566SOL    HW1 8595   5.625   4.744   6.870
35566SOL    HW2 8596   5.605   4.622   6.783
35567SOL     OW 8597  10.867  10.325  10.995
35567SOL    HW1 8598  10.885  10.337  11.088
35567SOL    HW2 8599  10.841  10.234  10.986
35568SOL     OW 8600   1.847   6.330   0.914
35568SOL    HW1 8601   1.889   6.386   0.849
35568SOL    HW2 8602   1.755   6.329   0.890
35569SOL     OW 8603  11.852  10.958   6.686
35569SOL    HW1 8604  11.793  10.961   6.761
35569SOL    HW2 8605  11.904  11.039   6.693
35570SOL     OW 8606  12.632   7.241   3.085
35570SOL    HW1 8607  12.728   7.246   3.081
35570SOL    HW2 8608  12.606   7.314   3.141
35571SOL     OW 8609   9.479   0.933  10.732
35571SOL    HW1 8610   9.478   0.947  10.827
35571SOL    HW2 8611   9.567   0.902  10.713
35572SOL     OW 8612   6.382   4.685  13.059
35572SOL    HW1 8613   6.333   4.706  12.980
35572SOL    HW2 8614   6.354   4.597  13.082
35573SOL     OW 8615   1.874  10.446  13.243
35573SOL    HW1 8616   1.952  10.458  13.297
35573SOL    HW2 8617   1.908  10.422  13.157
35574SOL     OW 8618   6.428  10.083   2.237
35574SOL    HW1 8619   6.444  10.009   2.296
35574SOL    HW2 8620   6.508  10.136   2.242
35575SOL     OW 8621   3.388  14.398   9.271
35575SOL    HW1 8622   3.375  14.304   9.282
35575SOL    HW2 8623   3.398  14.431   9.360
35576SOL     OW 8624   0.647   4.403  11.547
35576SOL    HW1 8625   0.689   4.322  11.520
35576SOL    HW2 8626   0.586   4.424  11.477
35577SOL     OW 8627   3.317   7.797   3.806
35577SOL    HW1 8628   3.344   7.773   3.718
35577SOL    HW2 8629   3.366   7.877   3.825
35578SOL     OW 8630   9.696   7.821   9.348
35578SOL    HW1 8631   9.742   7.802   9.429
35578SOL    HW2 8632   9.746   7.776   9.280
35579SOL     OW 8633   7.124  10.956   1.836
35579SOL    HW1 8634   7.137  11.047   1.810
35579SOL    HW2 8635   7.210  10.927   1.868
35580SOL     OW 8636  10.057   4.361   7.618
35580SOL    HW1 8637  10.007   4.358   7.700
35580SOL    HW2 8638  10.139   4.404   7.642
35581SOL     OW 8639   3.389  11.839   2.448
35581SOL    HW1 8640   3.425  11.763   2.404
35581SOL    HW2 8641   3.327  11.803   2.513
35582SOL     OW 8642   3.119   8.640  14.737
35582SOL    HW1 8643   3.105   8.721  14.688
35582SOL    HW2 8644   3.211   8.646  14.766
35583SOL     OW 8645   4.327   8.261  14.782
35583SOL    HW1 8646   4.290   8.215  14.857
35583SOL    HW2 8647   4.355   8.191  14.723
35584SOL     OW 8648   2.432   7.066   7.941
35584SOL    HW1 8649   2.453   7.125   7.869
35584SOL    HW2 8650   2.443   6.978   7.904
35585SOL     OW 8651  12.120  11.697   4.691
35585SOL    HW1 8652  12.207  11.678   4.655
35585SOL    HW2 8653  12.135  11.771   4.750
35586SOL     OW 8654   4.154  13.294   8.283
35586SOL    HW1 8655   4.236  13.258   8.317
35586SOL    HW2 8656   4.086  13.243   8.327
35587SOL     OW 8657   8.675  10.992   9.582
35587SOL    HW1 8658   8.688  10.978   9.676
35587SOL    HW2 8659   8.725  10.923   9.539
35588SOL     OW 8660   7.139   5.052   6.531
35588SOL    HW1 8661   7.226   5.047   6.571
35588SOL    HW2 8662   7.156   5.045   6.437
35589SOL     OW 8663   8.367   9.670   9.320
35589SOL    HW1 8664   8.386   9.605   9.252
35589SOL    HW2 8665   8.271   9.670   9.326
35590SOL     OW 8666  11.177   2.940   9.736
35590SOL    HW1 8667  11.262   2.960   9.698
35590SOL    HW2 8668  11.188   2.955   9.830
35591SOL     OW 8669   3.962   5.605  14.225
35591SOL    HW1 8670   3.914   5.596  14.307
35591SOL    HW2 8671   3.894   5.596  14.157
35592SOL     OW 8672   4.210   4.590   3.309
35592SOL    HW1 8673   4.186   4.639   3.230
35592SOL    HW2 8674   4.170   4.504   3.297
35593SOL     OW 8675   0.418   8.571  14.827
35593SOL    HW1 8676   0.335   8.613  14.804
35593SOL    HW2 8677   0.484   8.618  14.777
35594SOL     OW 8678  13.519   0.791  12.023
35594SOL    HW1 8679  13.472   0.758  12.099
35594SOL    HW2 8680  13.516   0.718  11.960
35595SOL     OW 8681  12.791   2.604   7.137
35595SOL    HW1 8682  12.858   2.608   7.069
35595SOL    HW2 8683  12.840   2.609   7.219
35596SOL     OW 8684  10.774  10.492   7.021
35596SOL    HW1 8685  10.719  10.449   6.956
35596SOL    HW2 8686  10.861  10.452   7.010
35597SOL     OW 8687   0.065  14.289  11.133
35597SOL    HW1 8688   0.081  14.362  11.073
35597SOL    HW2 8689   0.044  14.330  11.217
35598SOL     OW 8690   0.739  10.883   0.602
35598SOL    HW1 8691   0.675  10.818   0.632
35598SOL    HW2 8692   0.813  10.873   0.661
35599SOL     OW 8693   0.379   0.544  13.593
35599SOL    HW1 8694   0.316   0.567  13.660
35599SOL    HW2 8695   0.329   0.489  13.531
35600SOL     OW 8696   8.433   9.609   0.279
35600SOL    HW1 8697   8.372   9.680   0.264
35600SOL    HW2 8698   8.435   9.598   0.374
35601SOL     OW 8699   0.741   4.476   7.585
35601SOL    HW1 8700   0.658   4.437   7.614
35601SOL    HW2 8701   0.795   4.478   7.664
35602SOL     OW 8702  14.592   2.496  12.860
35602SOL    HW1 8703  14.642   2.577  12.854
35602SOL    HW2 8704  14.631   2.438  12.794
35603SOL     OW 8705  14.344  11.580   4.425
35603SOL    HW1 8706  14.427  11.563   4.381
35603SOL    HW2 8707  14.311  11.660   4.385
35604SOL     OW 8708  12.671  10.555  14.334
35604SOL    HW1 8709  12.593  10.568  14.388
35604SOL    HW2 8710  12.684  10.641  14.292
35605SOL     OW 8711  14.644   3.614   6.731
35605SOL    HW1 8712  14.613   3.693   6.685
35605SOL    HW2 8713  14.687   3.562   6.663
35606SOL     OW 8714   2.455   7.174  10.880
35606SOL    HW1 8715   2.535   7.192  10.929
35606SOL    HW2 8716   2.385   7.193  10.942
35607SOL     OW 8717   8.898  10.488   8.358
35607SOL    HW1 8718   8.938  10.430   8.293
35607SOL    HW2 8719   8.808  10.499   8.328
35608SOL     OW 8720   6.552  11.502  10.831
35608SOL    HW1 8721   6.645  11.508  10.811
35608SOL    HW2 8722   6.544  11.534  10.921
35609SOL     OW 8723  12.158   8.190   8.161
35609SOL    HW1 8724  12.168   8.216   8.069
35609SOL    HW2 8725  12.065   8.172   8.171
35610SOL     OW 8726   8.977  10.096   2.621
35610SOL    HW1 8727   8.950  10.004   2.621
35610SOL    HW2 8728   8.896  10.144   2.641
35611SOL     OW 8729   8.103  11.408   9.968
35611SOL    HW1 8730   8.053  11.489   9.966
35611SOL    HW2 8731   8.076  11.364  10.049
35612SOL     OW 8732  14.047   0.337   2.118
35612SOL    HW1 8733  14.024   0.251   2.155
35612SOL    HW2 8734  14.062   0.320   2.025
35613SOL     OW 8735   8.771  13.995  13.619
35613SOL    HW1 8736   8.813  14.072  13.657
35613SOL    HW2 8737   8.684  14.025  13.593
35614SOL     OW 8738   7.639   8.018   2.356
35614SOL    HW1 8739   7.716   7.962   2.367
35614SOL    HW2 8740   7.661   8.075   2.282
35615SOL     OW 8741  14.757   8.356   5.392
35615SOL    HW1 8742  14.757   8.324   5.301
35615SOL    HW2 8743  14.668   8.391   5.404
35616SOL     OW 8744   9.734  13.780  11.240
35616SOL    HW1 8745   9.689  13.741  11.315
35616SOL    HW2 8746   9.781  13.855  11.278
35617SOL     OW 8747  13.323   0.444  10.423
35617SOL    HW1 8748  13.265   0.387  10.473
35617SOL    HW2 8749  13.372   0.493  10.490
35618SOL     OW 8750   0.265   3.393   1.312
35618SOL    HW1 8751   0.207   3.460   1.277
35618SOL    HW2 8752   0.266   3.324   1.245
35619SOL     OW 8753   0.962   5.337   5.552
35619SOL    HW1 8754   1.047   5.345   5.509
35619SOL    HW2 8755   0.902   5.384   5.494
35620SOL     OW 8756  10.347  12.821   1.859
35620SOL    HW1 8757  10.383  12.875   1.789
35620SOL    HW2 8758  10.422  12.797   1.913
35621SOL     OW 8759   6.271   7.375  13.342
35621SOL    HW1 8760   6.324   7.445  13.382
35621SOL    HW2 8761   6.329   7.299  13.341
35622SOL     OW 8762   4.378  14.138  12.458
35622SOL    HW1 8763   4.392  14.079  12.532
35622SOL    HW2 8764   4.320  14.206  12.492
35623SOL     OW 8765  10.396  12.173  14.377
35623SOL    HW1 8766  10.490  12.160  14.388
35623SOL    HW2 8767  10.385  12.194  14.284
35624SOL     OW 8768  13.545   6.605  13.075
35624SOL    HW1 8769  13.462   6.557  13.071
35624SOL    HW2 8770  13.526   6.681  13.129
35625SOL     OW 8771   1.937  11.044   6.969
35625SOL    HW1 8772   1.856  11.093   6.957
35625SOL    HW2 8773   1.912  10.971   7.026
35626SOL     OW 8774   3.878   2.102   8.555
35626SOL    HW1 8775   3.911   2.034   8.613
35626SOL    HW2 8776   3.957   2.143   8.519
35627SOL     OW 8777  13.474   6.198  14.305
35627SOL    HW1 8778  13.406   6.156  14.252
35627SOL    HW2 8779  13.525   6.126  14.342
35628SOL     OW 8780   2.038   8.454   5.152
35628SOL    HW1 8781   2.122   8.497   5.166
35628SOL    HW2 8782   2.022   8.405   5.233
35629SOL     OW 8783   7.853   7.144   9.448
35629SOL    HW1 8784   7.902   7.127   9.528
35629SOL    HW2 8785   7.843   7.239   9.445
35630SOL     OW 8786   7.832  13.154   5.362
35630SOL    HW1 8787   7.794  13.147   5.450
35630SOL    HW2 8788   7.788  13.230   5.324
35631SOL     OW 8789  12.055  14.231   0.225
35631SOL    HW1 8790  12.124  14.268   0.170
35631SOL    HW2 8791  12.075  14.138   0.230
35632SOL     OW 8792   4.173   7.173  14.854
35632SOL    HW1 8793   4.186   7.110   0.050
35632SOL    HW2 8794   4.232   7.245   0.000
35633SOL     OW 8795   6.246  13.778  11.016
35633SOL    HW1 8796   6.259  13.787  11.111
35633SOL    HW2 8797   6.198  13.696  11.006
35634SOL     OW 8798   9.459  12.431   1.943
35634SOL    HW1 8799   9.410  12.461   2.020
35634SOL    HW2 8800   9.404  12.363   1.904
35635SOL     OW 8801  10.657  12.232   5.459
35635SOL    HW1 8802  10.655  12.178   5.538
35635SOL    HW2 8803  10.570  12.223   5.421
35636SOL     OW 8804   4.364   4.556   4.009
35636SOL    HW1 8805   4.452   4.585   3.986
35636SOL    HW2 8806   4.362   4.558   4.105
35637SOL     OW 8807   0.293   5.044  13.478
35637SOL    HW1 8808   0.291   5.131  13.439
35637SOL    HW2 8809   0.208   5.006  13.456
35638SOL     OW 8810   3.919  14.757   1.226
35638SOL    HW1 8811   3.904  14.729   1.317
35638SOL    HW2 8812   4.001  14.806   1.230
35639SOL     OW 8813  13.769   9.301  14.848
35639SOL    HW1 8814  13.701   9.302   0.040
35639SOL    HW2 8815  13.788   9.209  14.834
35640SOL     OW 8816  11.156   9.715   2.533
35640SOL    HW1 8817  11.182   9.629   2.567
35640SOL    HW2 8818  11.078   9.737   2.584
35641SOL     OW 8819   5.959   8.195  10.814
35641SOL    HW1 8820   5.987   8.139  10.886
35641SOL    HW2 8821   5.867   8.215  10.834
35642SOL     OW 8822   3.206  12.983   8.989
35642SOL    HW1 8823   3.179  13.065   9.031
35642SOL    HW2 8824   3.284  13.007   8.938
35643SOL     OW 8825   1.046   1.067   6.386
35643SOL    HW1 8826   1.063   1.092   6.296
35643SOL    HW2 8827   1.059   1.147   6.437
35644SOL     OW 8828  14.560  13.569   4.547
35644SOL    HW1 8829  14.521  13.508   4.484
35644SOL    HW2 8830  14.523  13.654   4.524
35645SOL     OW 8831   4.925   4.247   0.869
35645SOL    HW1 8832   5.018   4.240   0.847
35645SOL    HW2 8833   4.907   4.172   0.925
35646SOL     OW 8834  14.415   4.671   6.079
35646SOL    HW1 8835  14.457   4.753   6.106
35646SOL    HW2 8836  14.322   4.685   6.096
35647SOL     OW 8837   9.840   9.073  13.150
35647SOL    HW1 8838   9.933   9.080  13.129
35647SOL    HW2 8839   9.837   9.049  13.243
35648SOL     OW 8840   9.524   9.709   6.550
35648SOL    HW1 8841   9.575   9.748   6.478
35648SOL    HW2 8842   9.434   9.736   6.533
35649SOL     OW 8843   5.007   0.879  13.500
35649SOL    HW1 8844   4.918   0.899  13.529
35649SOL    HW2 8845   5.002   0.880  13.404
35650SOL     OW 8846   5.260   5.215   6.667
35650SOL    HW1 8847   5.235   5.288   6.723
35650SOL    HW2 8848   5.188   5.208   6.605
35651SOL     OW 8849   7.866  13.350  13.198
35651SOL    HW1 8850   7.833  13.330  13.110
35651SOL    HW2 8851   7.859  13.268  13.246
35652SOL     OW 8852  11.852   3.593   1.418
35652SOL    HW1 8853  11.890   3.679   1.436
35652SOL    HW2 8854  11.905   3.532   1.470
35653SOL     OW 8855   2.246   3.891   0.801
35653SOL    HW1 8856   2.277   3.959   0.742
35653SOL    HW2 8857   2.325   3.859   0.845
35654SOL     OW 8858  10.823   9.094   3.886
35654SOL    HW1 8859  10.797   9.059   3.801
35654SOL    HW2 8860  10.758   9.162   3.905
35655SOL     OW 8861  12.291   6.196   0.900
35655SOL    HW1 8862  12.301   6.291   0.903
35655SOL    HW2 8863  12.330   6.170   0.816
35656SOL     OW 8864  13.498   5.997   9.555
35656SOL    HW1 8865  13.426   5.936   9.539
35656SOL    HW2 8866  13.577   5.946   9.535
35657SOL     OW 8867   8.327   9.628   3.781
35657SOL    HW1 8868   8.352   9.699   3.722
35657SOL    HW2 8869   8.232   9.622   3.772
35658SOL     OW 8870   6.239   5.718  13.858
35658SOL    HW1 8871   6.204   5.770  13.786
35658SOL    HW2 8872   6.236   5.628  13.826
35659SOL     OW 8873   4.999  10.275   2.255
35659SOL    HW1 8874   4.924  10.255   2.199
35659SOL    HW2 8875   5.064  10.312   2.196
35660SOL     OW 8876   9.019  14.483   9.670
35660SOL    HW1 8877   8.925  14.498   9.666
35660SOL    HW2 8878   9.047  14.522   9.753
35661SOL     OW 8879  10.876  13.531   5.769
35661SOL    HW1 8880  10.848  13.518   5.860
35661SOL    HW2 8881  10.902  13.623   5.765
35662SOL     OW 8882  10.038  14.434   2.661
35662SOL    HW1 8883  10.015  14.433   2.754
35662SOL    HW2 8884  10.061  14.343   2.641
35663SOL     OW 8885   8.988   5.637   7.734
35663SOL    HW1 8886   8.929   5.666   7.803
35663SOL    HW2 8887   9.074   5.671   7.760
35664SOL     OW 8888  14.548   3.686  13.372
35664SOL    HW1 8889  14.623   3.742  13.386
35664SOL    HW2 8890  14.584   3.597  13.367
35665SOL     OW 8891  13.774   0.816  14.003
35665SOL    HW1 8892  13.696   0.844  13.955
35665SOL    HW2 8893  13.758   0.724  14.022
35666SOL     OW 8894   6.416   4.914   0.177
35666SOL    HW1 8895   6.461   4.844   0.225
35666SOL    HW2 8896   6.460   4.917   0.092
35667SOL     OW 8897  14.685   6.870  10.020
35667SOL    HW1 8898  14.691   6.832   9.932
35667SOL    HW2 8899  14.648   6.957  10.006
35668SOL     OW 8900  12.083   9.186  11.145
35668SOL    HW1 8901  12.080   9.092  11.132
35668SOL    HW2 8902  12.132   9.220  11.070
35669SOL     OW 8903  13.544   7.293   5.115
35669SOL    HW1 8904  13.630   7.335   5.104
35669SOL    HW2 8905  13.555   7.206   5.077
35670SOL     OW 8906   2.142   6.758   0.218
35670SOL    HW1 8907   2.098   6.687   0.265
35670SOL    HW2 8908   2.149   6.727   0.128
35671SOL     OW 8909  13.854   2.066  10.296
35671SOL    HW1 8910  13.850   1.978  10.261
35671SOL    HW2 8911  13.822   2.122  10.226
35672SOL     OW 8912  12.384   9.552   3.477
35672SOL    HW1 8913  12.337   9.635   3.481
35672SOL    HW2 8914  12.476   9.576   3.489
35673SOL     OW 8915   4.593   5.270  11.922
35673SOL    HW1 8916   4.673   5.219  11.908
35673SOL    HW2 8917   4.620   5.340  11.981
35674SOL     OW 8918   1.135  12.855   8.940
35674SOL    HW1 8919   1.167  12.800   9.011
35674SOL    HW2 8920   1.066  12.803   8.898
35675SOL     OW 8921   1.504   8.941   0.484
35675SOL    HW1 8922   1.418   8.901   0.473
35675SOL    HW2 8923   1.498   9.022   0.433
35676SOL     OW 8924   4.312   3.531  10.057
35676SOL    HW1 8925   4.317   3.441  10.087
35676SOL    HW2 8926   4.237   3.568  10.103
35677SOL     OW 8927   9.419   0.610  11.320
35677SOL    HW1 8928   9.411   0.521  11.353
35677SOL    HW2 8929   9.395   0.665  11.394
35678SOL     OW 8930  14.750  10.342   1.120
35678SOL    HW1 8931  14.815  10.376   1.059
35678SOL    HW2 8932  14.743  10.410   1.188
35679SOL     OW 8933  13.694   2.005  12.798
35679SOL    HW1 8934  13.661   2.053  12.874
35679SOL    HW2 8935  13.764   2.061  12.763
35680SOL     OW 8936  12.426  11.447   0.463
35680SOL    HW1 8937  12.349  11.503   0.470
35680SOL    HW2 8938  12.423  11.391   0.540
35681SOL     OW 8939   7.412   0.844   4.985
35681SOL    HW1 8940   7.334   0.883   5.025
35681SOL    HW2 8941   7.483   0.864   5.045
35682SOL     OW 8942   9.257   5.007   0.074
35682SOL    HW1 8943   9.292   5.076   0.018
35682SOL    HW2 8944   9.322   4.998   0.144
35683SOL     OW 8945   1.976  11.466   1.278
35683SOL    HW1 8946   2.048  11.439   1.336
35683SOL    HW2 8947   1.931  11.384   1.256
35684SOL     OW 8948   0.966   7.064   0.971
35684SOL    HW1 8949   1.020   7.141   0.986
35684SOL    HW2 8950   0.993   7.002   1.039
35685SOL     OW 8951   6.533   0.033  14.742
35685SOL    HW1 8952   6.626   0.011  14.747
35685SOL    HW2 8953   6.510   0.017  14.650
35686SOL     OW 8954  13.612  12.754   6.310
35686SOL    HW1 8955  13.666  12.830   6.290
35686SOL    HW2 8956  13.669  12.679   6.291
35687SOL     OW 8957  12.547  14.103   0.180
35687SOL    HW1 8958  12.607  14.056   0.237
35687SOL    HW2 8959  12.515  14.036   0.119
35688SOL     OW 8960   5.316   0.828   4.578
35688SOL    HW1 8961   5.250   0.779   4.627
35688SOL    HW2 8962   5.380   0.763   4.552
35689SOL     OW 8963   1.086   2.108   2.528
35689SOL    HW1 8964   1.090   2.162   2.607
35689SOL    HW2 8965   1.149   2.037   2.545
35690SOL     OW 8966  13.670  10.575   7.705
35690SOL    HW1 8967  13.739  10.636   7.731
35690SOL    HW2 8968  13.713  10.489   7.703
35691SOL     OW 8969   7.668   6.709   6.548
35691SOL    HW1 8970   7.642   6.621   6.521
35691SOL    HW2 8971   7.742   6.696   6.607
35692SOL     OW 8972   2.475  13.938  14.165
35692SOL    HW1 8973   2.428  13.864  14.128
35692SOL    HW2 8974   2.407  13.999  14.192
35693SOL     OW 8975   2.122   0.115   0.117
35693SOL    HW1 8976   2.081   0.040   0.161
35693SOL    HW2 8977   2.153   0.080   0.034
35694SOL     OW 8978   9.030   6.504   3.307
35694SOL    HW1 8979   8.992   6.497   3.395
35694SOL    HW2 8980   8.967   6.557   3.258
35695SOL     OW 8981  13.150   0.354   9.832
35695SOL    HW1 8982  13.228   0.307   9.862
35695SOL    HW2 8983  13.174   0.446   9.836
35696SOL     OW 8984   8.269   8.707   7.611
35696SOL    HW1 8985   8.297   8.721   7.701
35696SOL    HW2 8986   8.301   8.783   7.563
35697SOL     OW 8987  14.176   0.778   7.147
35697SOL    HW1 8988  14.125   0.833   7.088
35697SOL    HW2 8989  14.168   0.690   7.111
35698SOL     OW 8990  10.124   9.797   2.113
35698SOL    HW1 8991  10.075   9.791   2.195
35698SOL    HW2 8992  10.156   9.887   2.112
35699SOL     OW 8993  10.310   5.704   5.290
35699SOL    HW1 8994  10.308   5.795   5.320
35699SOL    HW2 8995  10.360   5.658   5.358
35700SOL     OW 8996  12.154  10.497   5.277
35700SOL    HW1 8997  12.082  10.467   5.334
35700SOL    HW2 8998  12.181  10.580   5.315
35701SOL     OW 8999   7.976  12.963   9.229
35701SOL    HW1 9000   7.889  12.994   9.205
35701SOL    HW2 9001   8.024  13.043   9.251
35702SOL     OW 9002   3.869  11.884  14.575
35702SOL    HW1 9003   3.949  11.917  14.617
35702SOL    HW2 9004   3.804  11.952  14.589
35703SOL     OW 9005   1.503   9.082  11.281
35703SOL    HW1 9006   1.480   9.173  11.262
35703SOL    HW2 9007   1.449   9.030  11.221
35704SOL     OW 9008   5.895   9.295   5.690
35704SOL    HW1 9009   5.878   9.273   5.782
35704SOL    HW2 9010   5.865   9.219   5.641
35705SOL     OW 9011   0.291   1.066  10.918
35705SOL    HW1 9012   0.378   1.102  10.902
35705SOL    HW2 9013   0.283   1.064  11.013
35706SOL     OW 9014   4.341   0.853  11.867
35706SOL    HW1 9015   4.256   0.855  11.911
35706SOL    HW2 9016   4.320   0.844  11.774
35707SOL     OW 9017  10.591   3.604   6.789
35707SOL    HW1 9018  10.562   3.522   6.829
35707SOL    HW2 9019  10.685   3.608   6.807
35708SOL     OW 9020  14.122   8.850   1.534
35708SOL    HW1 9021  14.197   8.907   1.548
35708SOL    HW2 9022  14.054   8.885   1.590
35709SOL     OW 9023  11.964  11.825   7.203
35709SOL    HW1 9024  11.964  11.731   7.190
35709SOL    HW2 9025  11.872  11.849   7.209
35710SOL     OW 9026  12.563   4.244  12.841
35710SOL    HW1 9027  12.472   4.236  12.813
35710SOL    HW2 9028  12.575   4.175  12.907
35711SOL     OW 9029   7.912  12.993   4.226
35711SOL    HW1 9030   7.846  13.060   4.243
35711SOL    HW2 9031   7.996  13.038   4.235
35712SOL     OW 9032  12.943   0.365   6.974
35712SOL    HW1 9033  12.869   0.307   6.989
35712SOL    HW2 9034  13.011   0.309   6.938
35713SOL     OW 9035   9.569   5.138  11.537
35713SOL    HW1 9036   9.534   5.225  11.519
35713SOL    HW2 9037   9.553   5.088  11.457
35714SOL     OW 9038  14.180  13.850   5.790
35714SOL    HW1 9039  14.257  13.803   5.758
35714SOL    HW2 9040  14.159  13.912   5.721
35715SOL     OW 9041   1.472   2.779  14.125
35715SOL    HW1 9042   1.386   2.780  14.166
35715SOL    HW2 9043   1.501   2.870  14.125
35716SOL     OW 9044   7.683  11.691  14.180
35716SOL    HW1 9045   7.744  11.674  14.251
35716SOL    HW2 9046   7.608  11.733  14.221
35717SOL     OW 9047   9.851  12.921   5.274
35717SOL    HW1 9048   9.804  12.964   5.346
35717SOL    HW2 9049   9.918  12.984   5.249
35718SOL     OW 9050  10.532  12.226  13.300
35718SOL    HW1 9051  10.547  12.134  13.278
35718SOL    HW2 9052  10.586  12.275  13.237
35719SOL     OW 9053  10.773   9.342   3.084
35719SOL    HW1 9054  10.851   9.397   3.087
35719SOL    HW2 9055  10.783   9.290   3.004
35720SOL     OW 9056   9.349   2.978  12.579
35720SOL    HW1 9057   9.268   2.990  12.531
35720SOL    HW2 9058   9.410   3.040  12.540
35721SOL     OW 9059  11.277   2.027   0.607
35721SOL    HW1 9060  11.271   1.941   0.565
35721SOL    HW2 9061  11.237   2.087   0.544
35722SOL     OW 9062  11.205   8.324   3.394
35722SOL    HW1 9063  11.167   8.266   3.460
35722SOL    HW2 9064  11.295   8.294   3.385
35723SOL     OW 9065  11.674   7.568   1.149
35723SOL    HW1 9066  11.715   7.482   1.142
35723SOL    HW2 9067  11.682   7.606   1.062
35724SOL     OW 9068   7.440   6.579   5.725
35724SOL    HW1 9069   7.527   6.566   5.764
35724SOL    HW2 9070   7.422   6.671   5.739
35725SOL     OW 9071  12.652   2.586  11.363
35725SOL    HW1 9072  12.591   2.657  11.341
35725SOL    HW2 9073  12.706   2.623  11.434
35726SOL     OW 9074  12.923   7.498  10.257
35726SOL    HW1 9075  12.966   7.417  10.285
35726SOL    HW2 9076  12.908   7.546  10.339
35727SOL     OW 9077  14.326   9.449   2.090
35727SOL    HW1 9078  14.370   9.406   2.017
35727SOL    HW2 9079  14.322   9.542   2.065
35728SOL     OW 9080  12.375   7.421   1.846
35728SOL    HW1 9081  12.354   7.508   1.811
35728SOL    HW2 9082  12.374   7.363   1.769
35729SOL     OW 9083   8.149   4.729  12.064
35729SOL    HW1 9084   8.110   4.710  12.149
35729SOL    HW2 9085   8.207   4.803  12.080
35730SOL     OW 9086   6.121   3.687   3.998
35730SOL    HW1 9087   6.110   3.757   3.934
35730SOL    HW2 9088   6.059   3.619   3.971
35731SOL     OW 9089   8.768   8.935   0.180
35731SOL    HW1 9090   8.817   8.877   0.122
35731SOL    HW2 9091   8.822   9.014   0.186
35732SOL     OW 9092   9.163  10.746   7.059
35732SOL    HW1 9093   9.188  10.817   7.118
35732SOL    HW2 9094   9.230  10.680   7.072
35733SOL     OW 9095   2.355   1.013   8.344
35733SOL    HW1 9096   2.444   1.019   8.310
35733SOL    HW2 9097   2.300   1.009   8.266
35734SOL     OW 9098   9.376  13.068  12.868
35734SOL    HW1 9099   9.347  12.976  12.872
35734SOL    HW2 9100   9.361  13.093  12.777
35735SOL     OW 9101   5.556  11.720   9.298
35735SOL    HW1 9102   5.497  11.791   9.271
35735SOL    HW2 9103   5.565  11.731   9.393
35736SOL     OW 9104   7.781   1.873   3.983
35736SOL    HW1 9105   7.862   1.893   3.936
35736SOL    HW2 9106   7.733   1.815   3.924
35737SOL     OW 9107   4.245  14.491   4.629
35737SOL    HW1 9108   4.306  14.439   4.682
35737SOL    HW2 9109   4.181  14.524   4.692
35738SOL     OW 9110   7.820  11.073   5.436
35738SOL    HW1 9111   7.820  10.980   5.413
35738SOL    HW2 9112   7.767  11.114   5.368
35739SOL     OW 9113   3.661  12.722   9.634
35739SOL    HW1 9114   3.650  12.721   9.729
35739SOL    HW2 9115   3.658  12.629   9.609
35740SOL     OW 9116   1.258   3.648   0.634
35740SOL    HW1 9117   1.262   3.673   0.726
35740SOL    HW2 9118   1.177   3.597   0.627
35741SOL     OW 9119  12.439   2.988   5.312
35741SOL    HW1 9120  12.438   3.060   5.249
35741SOL    HW2 9121  12.524   2.946   5.298
35742SOL     OW 9122   0.653   1.899   4.721
35742SOL    HW1 9123   0.572   1.940   4.689
35742SOL    HW2 9124   0.630   1.864   4.807
35743SOL     OW 9125   2.101   0.691  13.328
35743SOL    HW1 9126   2.041   0.641  13.383
35743SOL    HW2 9127   2.162   0.625  13.294
35744SOL     OW 9128   5.173   5.875   0.757
35744SOL    HW1 9129   5.209   5.787   0.765
35744SOL    HW2 9130   5.189   5.900   0.666
35745SOL     OW 9131   5.409  10.428   7.083
35745SOL    HW1 9132   5.332  10.412   7.028
35745SOL    HW2 9133   5.376  10.479   7.157
35746SOL     OW 9134   0.776   9.754   8.233
35746SOL    HW1 9135   0.734   9.734   8.317
35746SOL    HW2 9136   0.780   9.670   8.187
35747SOL     OW 9137  14.575   6.820   3.035
35747SOL    HW1 9138  14.588   6.725   3.030
35747SOL    HW2 9139  14.508   6.831   3.103
35748SOL     OW 9140   3.529   0.199   2.668
35748SOL    HW1 9141   3.546   0.142   2.743
35748SOL    HW2 9142   3.435   0.213   2.668
35749SOL     OW 9143  13.475   0.789   8.558
35749SOL    HW1 9144  13.550   0.831   8.600
35749SOL    HW2 9145  13.491   0.695   8.567
35750SOL     OW 9146   6.269   8.086   2.881
35750SOL    HW1 9147   6.334   8.015   2.881
35750SOL    HW2 9148   6.290   8.137   2.959
35751SOL     OW 9149   0.560  11.409   7.273
35751SOL    HW1 9150   0.534  11.385   7.184
35751SOL    HW2 9151   0.621  11.482   7.262
35752SOL     OW 9152   7.372   1.565   0.325
35752SOL    HW1 9153   7.466   1.574   0.342
35752SOL    HW2 9154   7.350   1.642   0.272
35753SOL     OW 9155   8.278  10.876   5.390
35753SOL    HW1 9156   8.313  10.808   5.448
35753SOL    HW2 9157   8.258  10.949   5.449
35754SOL     OW 9158  11.626   4.843   6.454
35754SOL    HW1 9159  11.688   4.813   6.388
35754SOL    HW2 9160  11.661   4.928   6.483
35755SOL     OW 9161   2.181   0.782   6.471
35755SOL    HW1 9162   2.197   0.745   6.384
35755SOL    HW2 9163   2.174   0.706   6.529
35756SOL     OW 9164   8.149  10.883   5.732
35756SOL    HW1 9165   8.055  10.876   5.750
35756SOL    HW2 9166   8.154  10.940   5.655
35757SOL     OW 9167   2.972   8.698   5.609
35757SOL    HW1 9168   2.987   8.611   5.571
35757SOL    HW2 9169   3.048   8.749   5.583
35758SOL     OW 9170   1.382   6.739  11.139
35758SOL    HW1 9171   1.351   6.668  11.082
35758SOL    HW2 9172   1.357   6.712  11.227
35759SOL     OW 9173   3.748   7.691   6.289
35759SOL    HW1 9174   3.679   7.751   6.315
35759SOL    HW2 9175   3.817   7.747   6.254
35760SOL     OW 9176   1.785   2.733   4.783
35760SOL    HW1 9177   1.851   2.726   4.851
35760SOL    HW2 9178   1.762   2.826   4.780
35761SOL     OW 9179  10.170  10.433  13.835
35761SOL    HW1 9180  10.136  10.468  13.917
35761SOL    HW2 9181  10.265  10.432  13.846
35762SOL     OW 9182   8.558   9.994   2.348
35762SOL    HW1 9183   8.480  10.024   2.394
35762SOL    HW2 9184   8.529   9.985   2.257
35763SOL     OW 9185   5.468  10.181  10.713
35763SOL    HW1 9186   5.527  10.138  10.774
35763SOL    HW2 9187   5.433  10.255  10.763
35764SOL     OW 9188   4.672   8.940   7.304
35764SOL    HW1 9189   4.686   9.008   7.238
35764SOL    HW2 9190   4.639   8.865   7.254
35765SOL     OW 9191   5.070   5.499   2.645
35765SOL    HW1 9192   5.114   5.464   2.567
35765SOL    HW2 9193   4.980   5.516   2.616
35766SOL     OW 9194  11.974   8.180   9.615
35766SOL    HW1 9195  11.925   8.254   9.651
35766SOL    HW2 9196  11.934   8.164   9.529
35767SOL     OW 9197   7.690   7.681  12.101
35767SOL    HW1 9198   7.619   7.623  12.130
35767SOL    HW2 9199   7.645   7.761  12.073
35768SOL     OW 9200   7.992  12.209  13.662
35768SOL    HW1 9201   7.994  12.163  13.746
35768SOL    HW2 9202   7.931  12.157  13.609
35769SOL     OW 9203   6.318   7.292   6.341
35769SOL    HW1 9204   6.322   7.243   6.259
35769SOL    HW2 9205   6.263   7.368   6.321
35770SOL     OW 9206  13.802   3.925   8.802
35770SOL    HW1 9207  13.895   3.946   8.809
35770SOL    HW2 9208  13.758   3.999   8.844
35771SOL     OW 9209   8.161   7.651   9.004
35771SOL    HW1 9210   8.095   7.596   9.046
35771SOL    HW2 9211   8.237   7.645   9.061
35772SOL     OW 9212   3.081   8.451   4.600
35772SOL    HW1 9213   3.161   8.399   4.603
35772SOL    HW2 9214   3.111   8.542   4.607
35773SOL     OW 9215  13.571  10.043  14.870
35773SOL    HW1 9216  13.570   9.952   0.022
35773SOL    HW2 9217  13.598  10.092   0.073
35774SOL     OW 9218   9.672   9.093   9.642
35774SOL    HW1 9219   9.577   9.101   9.646
35774SOL    HW2 9220   9.688   8.999   9.652
35775SOL     OW 9221   6.024  14.348   2.565
35775SOL    HW1 9222   5.955  14.283   2.549
35775SOL    HW2 9223   6.086  14.335   2.492
35776SOL     OW 9224  13.814   8.711   9.198
35776SOL    HW1 9225  13.853   8.634   9.239
35776SOL    HW2 9226  13.864   8.784   9.234
35777SOL     OW 9227   6.223   4.913   0.880
35777SOL    HW1 9228   6.180   4.852   0.820
35777SOL    HW2 9229   6.209   4.876   0.967
35778SOL     OW 9230   7.298   8.790  13.162
35778SOL    HW1 9231   7.344   8.823  13.084
35778SOL    HW2 9232   7.206   8.786  13.135
35779SOL     OW 9233   0.278   9.518  10.292
35779SOL    HW1 9234   0.286   9.487  10.382
35779SOL    HW2 9235   0.184   9.513  10.273
35780SOL     OW 9236   1.479  11.934   3.195
35780SOL    HW1 9237   1.418  12.002   3.223
35780SOL    HW2 9238   1.538  11.977   3.134
35781SOL     OW 9239   2.061  13.893   1.020
35781SOL    HW1 9240   2.108  13.840   0.956
35781SOL    HW2 9241   2.062  13.842   1.100
35782SOL     OW 9242   8.576  14.234   0.039
35782SOL    HW1 9243   8.622  14.263  14.835
35782SOL    HW2 9244   8.625  14.157   0.068
35783SOL     OW 9245   2.600   5.789  10.584
35783SOL    HW1 9246   2.531   5.730  10.554
35783SOL    HW2 9247   2.575   5.811  10.674
35784SOL     OW 9248  10.968   2.568  10.334
35784SOL    HW1 9249  10.963   2.547  10.427
35784SOL    HW2 9250  11.026   2.644  10.329
35785SOL     OW 9251   7.461   9.310  10.721
35785SOL    HW1 9252   7.431   9.399  10.738
35785SOL    HW2 9253   7.385   9.255  10.741
35786SOL     OW 9254   7.427  11.668   2.663
35786SOL    HW1 9255   7.473  11.655   2.580
35786SOL    HW2 9256   7.472  11.743   2.703
35787SOL     OW 9257  12.232   8.000   6.823
35787SOL    HW1 9258  12.244   8.015   6.917
35787SOL    HW2 9259  12.295   7.931   6.802
35788SOL     OW 9260   8.399   4.118  13.350
35788SOL    HW1 9261   8.430   4.033  13.320
35788SOL    HW2 9262   8.411   4.175  13.274
35789SOL     OW 9263   0.313   0.976   1.373
35789SOL    HW1 9264   0.296   1.059   1.417
35789SOL    HW2 9265   0.408   0.971   1.367
35790SOL     OW 9266   6.290   2.924   7.655
35790SOL    HW1 9267   6.253   2.936   7.567
35790SOL    HW2 9268   6.339   3.005   7.670
35791SOL     OW 9269   4.608  14.832   8.399
35791SOL    HW1 9270   4.579  14.778   8.472
35791SOL    HW2 9271   4.649   0.033   8.439
35792SOL     OW 9272   9.611   5.089   3.892
35792SOL    HW1 9273   9.530   5.101   3.941
35792SOL    HW2 9274   9.674   5.056   3.957
35793SOL     OW 9275   5.230   1.976   4.459
35793SOL    HW1 9276   5.135   1.989   4.453
35793SOL    HW2 9277   5.255   2.023   4.539
35794SOL     OW 9278   5.095  10.622   6.564
35794SOL    HW1 9279   5.107  10.560   6.493
35794SOL    HW2 9280   5.039  10.691   6.527
35795SOL     OW 9281   6.853   7.665  11.981
35795SOL    HW1 9282   6.864   7.571  11.994
35795SOL    HW2 9283   6.764   7.683  12.012
35796SOL     OW 9284   4.002   9.406   2.167
35796SOL    HW1 9285   4.084   9.427   2.211
35796SOL    HW2 9286   3.935   9.453   2.217
35797SOL     OW 9287  11.663   9.898   5.804
35797SOL    HW1 9288  11.686   9.989   5.786
35797SOL    HW2 9289  11.613   9.870   5.727
35798SOL     OW 9290   2.432  14.640   8.178
35798SOL    HW1 9291   2.425  14.545   8.170
35798SOL    HW2 9292   2.504  14.663   8.120
35799SOL     OW 9293   4.636  11.972  10.617
35799SOL    HW1 9294   4.714  11.993  10.566
35799SOL    HW2 9295   4.669  11.948  10.703
35800SOL     OW 9296   3.678  10.061   1.480
35800SOL    HW1 9297   3.598  10.044   1.430
35800SOL    HW2 9298   3.721   9.975   1.487
35801SOL     OW 9299   4.156   4.766   3.088
35801SOL    HW1 9300   4.209   4.846   3.090
35801SOL    HW2 9301   4.211   4.703   3.042
35802SOL     OW 9302  12.195  12.391   1.747
35802SOL    HW1 9303  12.150  12.314   1.710
35802SOL    HW2 9304  12.288  12.369   1.742
35803SOL     OW 9305  11.601   1.809  14.742
35803SOL    HW1 9306  11.585   1.880  14.804
35803SOL    HW2 9307  11.684   1.833  14.700
35804SOL     OW 9308   5.934  11.002   0.045
35804SOL    HW1 9309   5.961  11.088   0.078
35804SOL    HW2 9310   5.854  11.020  14.870
35805SOL     OW 9311  11.595   2.916   1.414
35805SOL    HW1 9312  11.640   2.902   1.498
35805SOL    HW2 9313  11.555   2.832   1.393
35806SOL     OW 9314   9.217  14.580   8.083
35806SOL    HW1 9315   9.258  14.513   8.028
35806SOL    HW2 9316   9.290  14.622   8.129
35807SOL     OW 9317  10.747   6.252  12.645
35807SOL    HW1 9318  10.674   6.195  12.669
35807SOL    HW2 9319  10.817   6.192  12.621
35808SOL     OW 9320  11.164  13.596   0.558
35808SOL    HW1 9321  11.096  13.579   0.623
35808SOL    HW2 9322  11.236  13.635   0.608
35809SOL     OW 9323  13.973   3.019   5.661
35809SOL    HW1 9324  13.898   3.051   5.611
35809SOL    HW2 9325  14.028   3.096   5.675
35810SOL     OW 9326   7.934   5.890   7.136
35810SOL    HW1 9327   7.953   5.977   7.172
35810SOL    HW2 9328   8.008   5.872   7.077
35811SOL     OW 9329  10.281  10.791  11.843
35811SOL    HW1 9330  10.356  10.798  11.783
35811SOL    HW2 9331  10.210  10.758  11.788
35812SOL     OW 9332   3.623   8.201  11.124
35812SOL    HW1 9333   3.547   8.242  11.083
35812SOL    HW2 9334   3.610   8.107  11.111
35813SOL     OW 9335   9.068   2.910   9.461
35813SOL    HW1 9336   9.136   2.964   9.500
35813SOL    HW2 9337   9.110   2.873   9.382
35814SOL     OW 9338  14.479   6.496   6.697
35814SOL    HW1 9339  14.540   6.550   6.646
35814SOL    HW2 9340  14.525   6.412   6.706
35815SOL     OW 9341  13.728  13.537   7.983
35815SOL    HW1 9342  13.783  13.471   8.025
35815SOL    HW2 9343  13.658  13.488   7.941
35816SOL     OW 9344   2.065  14.297   7.097
35816SOL    HW1 9345   2.066  14.359   7.170
35816SOL    HW2 9346   2.082  14.212   7.136
35817SOL     OW 9347   9.811   5.129   1.680
35817SOL    HW1 9348   9.838   5.043   1.711
35817SOL    HW2 9349   9.838   5.189   1.749
35818SOL     OW 9350   0.397  13.193  11.259
35818SOL    HW1 9351   0.405  13.288  11.272
35818SOL    HW2 9352   0.367  13.184  11.169
35819SOL     OW 9353   7.149  14.607  14.109
35819SOL    HW1 9354   7.195  14.524  14.099
35819SOL    HW2 9355   7.151  14.624  14.203
35820SOL     OW 9356   3.065   3.765   2.202
35820SOL    HW1 9357   2.977   3.796   2.177
35820SOL    HW2 9358   3.119   3.780   2.125
35821SOL     OW 9359   6.039   4.448   5.514
35821SOL    HW1 9360   6.046   4.514   5.583
35821SOL    HW2 9361   6.123   4.403   5.515
35822SOL     OW 9362  12.624   1.246   4.556
35822SOL    HW1 9363  12.547   1.286   4.516
35822SOL    HW2 9364  12.619   1.272   4.648
35823SOL     OW 9365   6.987   9.023  10.595
35823SOL    HW1 9366   6.907   8.991  10.553
35823SOL    HW2 9367   6.973   9.117  10.606
35824SOL     OW 9368  13.854  12.438  12.198
35824SOL    HW1 9369  13.863  12.529  12.171
35824SOL    HW2 9370  13.938  12.415  12.238
35825SOL     OW 9371  14.510  11.142  12.935
35825SOL    HW1 9372  14.426  11.096  12.939
35825SOL    HW2 9373  14.489  11.232  12.963
35826SOL     OW 9374  11.848   9.013  12.612
35826SOL    HW1 9375  11.889   9.039  12.694
35826SOL    HW2 9376  11.795   9.088  12.586
35827SOL     OW 9377  12.745  12.741   5.799
35827SOL    HW1 9378  12.729  12.818   5.745
35827SOL    HW2 9379  12.762  12.775   5.887
35828SOL     OW 9380   9.098  14.031   2.471
35828SOL    HW1 9381   9.136  13.945   2.488
35828SOL    HW2 9382   9.153  14.092   2.521
35829SOL     OW 9383   3.324   8.570  11.916
35829SOL    HW1 9384   3.374   8.543  11.839
35829SOL    HW2 9385   3.233   8.551  11.894
35830SOL     OW 9386   6.240   7.672   2.306
35830SOL    HW1 9387   6.292   7.616   2.248
35830SOL    HW2 9388   6.176   7.612   2.345
35831SOL     OW 9389  11.486   7.934   0.818
35831SOL    HW1 9390  11.540   7.941   0.897
35831SOL    HW2 9391  11.492   7.842   0.793
35832SOL     OW 9392   9.747  10.999   0.504
35832SOL    HW1 9393   9.657  11.011   0.532
35832SOL    HW2 9394   9.776  11.086   0.476
35833SOL     OW 9395   4.620  14.825   7.584
35833SOL    HW1 9396   4.551  14.813   7.649
35833SOL    HW2 9397   4.622  14.742   7.535
35834SOL     OW 9398   7.263  14.054  10.367
35834SOL    HW1 9399   7.338  14.059  10.425
35834SOL    HW2 9400   7.221  14.140  10.373
35835SOL     OW 9401   7.606   6.467  11.906
35835SOL    HW1 9402   7.683   6.426  11.947
35835SOL    HW2 9403   7.533   6.440  11.961
35836SOL     OW 9404  11.023   4.098  10.768
35836SOL    HW1 9405  11.053   4.173  10.716
35836SOL    HW2 9406  11.102   4.051  10.791
35837SOL     OW 9407   1.787   0.080  13.676
35837SOL    HW1 9408   1.704   0.122  13.697
35837SOL    HW2 9409   1.763  14.871  13.637
35838SOL     OW 9410   7.646  13.784   3.874
35838SOL    HW1 9411   7.591  13.793   3.952
35838SOL    HW2 9412   7.664  13.690   3.869
35839SOL     OW 9413   6.311   2.075   5.591
35839SOL    HW1 9414   6.392   2.086   5.542
35839SOL    HW2 9415   6.242   2.091   5.527
35840SOL     OW 9416   3.116  11.333  13.390
35840SOL    HW1 9417   3.152  11.259  13.341
35840SOL    HW2 9418   3.032  11.351  13.347
35841SOL     OW 9419  12.430   9.071   6.965
35841SOL    HW1 9420  12.518   9.044   6.989
35841SOL    HW2 9421  12.435   9.087   6.871
35842SOL     OW 9422  14.524   1.222   2.915
35842SOL    HW1 9423  14.590   1.180   2.971
35842SOL    HW2 9424  14.522   1.167   2.836
35843SOL     OW 9425  13.964   7.341  14.184
35843SOL    HW1 9426  13.926   7.426  14.206
35843SOL    HW2 9427  14.053   7.361  14.155
35844SOL     OW 9428   6.153   9.805   3.303
35844SOL    HW1 9429   6.115   9.881   3.346
35844SOL    HW2 9430   6.147   9.735   3.368
35845SOL     OW 9431  13.711   4.135   9.820
35845SOL    HW1 9432  13.650   4.073   9.859
35845SOL    HW2 9433  13.703   4.119   9.725
35846SOL     OW 9434   2.402  10.242  13.303
35846SOL    HW1 9435   2.412  10.225  13.397
35846SOL    HW2 9436   2.327  10.188  13.276
35847SOL     OW 9437  14.556  11.977  11.032
35847SOL    HW1 9438  14.491  11.934  10.977
35847SOL    HW2 9439  14.630  11.916  11.034
35848SOL     OW 9440   3.337  10.737   1.698
35848SOL    HW1 9441   3.426  10.767   1.680
35848SOL    HW2 9442   3.323  10.754   1.791
35849SOL     OW 9443  12.081   1.001   1.626
35849SOL    HW1 9444  12.071   1.093   1.601
35849SOL    HW2 9445  12.007   0.983   1.682
35850SOL     OW 9446  10.248   2.958   4.776
35850SOL    HW1 9447  10.233   3.044   4.814
35850SOL    HW2 9448  10.165   2.911   4.789
35851SOL     OW 9449  13.381   9.988  11.136
35851SOL    HW1 9450  13.455   9.929  11.153
35851SOL    HW2 9451  13.422  10.075  11.130
35852SOL     OW 9452  11.956   5.101   2.689
35852SOL    HW1 9453  11.957   5.008   2.666
35852SOL    HW2 9454  11.944   5.146   2.606
35853SOL     OW 9455  14.448   9.890   7.038
35853SOL    HW1 9456  14.408   9.976   7.048
35853SOL    HW2 9457  14.498   9.877   7.119
35854SOL     OW 9458   2.167   4.047   9.058
35854SOL    HW1 9459   2.088   4.073   9.010
35854SOL    HW2 9460   2.234   4.110   9.032
35855SOL     OW 9461   2.637   3.088  13.066
35855SOL    HW1 9462   2.595   3.005  13.041
35855SOL    HW2 9463   2.658   3.130  12.982
35856SOL     OW 9464  11.116  14.044   0.835
35856SOL    HW1 9465  11.045  14.001   0.788
35856SOL    HW2 9466  11.119  14.132   0.798
35857SOL     OW 9467   4.866  12.993  11.160
35857SOL    HW1 9468   4.820  12.910  11.171
35857SOL    HW2 9469   4.859  13.036  11.246
35858SOL     OW 9470   1.517  12.527  14.213
35858SOL    HW1 9471   1.432  12.528  14.257
35858SOL    HW2 9472   1.503  12.472  14.135
35859SOL     OW 9473   8.754  14.416  14.135
35859SOL    HW1 9474   8.838  14.451  14.164
35859SOL    HW2 9475   8.736  14.464  14.054
35860SOL     OW 9476   8.392   1.760   4.306
35860SOL    HW1 9477   8.446   1.688   4.275
35860SOL    HW2 9478   8.440   1.839   4.281
35861SOL     OW 9479   9.780  11.972   9.237
35861SOL    HW1 9480   9.789  11.891   9.288
35861SOL    HW2 9481   9.701  12.014   9.273
35862SOL     OW 9482   4.392   1.022  11.616
35862SOL    HW1 9483   4.433   1.105  11.639
35862SOL    HW2 9484   4.341   1.041  11.537
35863SOL     OW 9485   7.621   2.546   0.812
35863SOL    HW1 9486   7.690   2.598   0.854
35863SOL    HW2 9487   7.645   2.545   0.719
35864SOL     OW 9488  10.929   9.262   8.955
35864SOL    HW1 9489  10.841   9.276   8.920
35864SOL    HW2 9490  10.983   9.245   8.878
35865SOL     OW 9491  11.138  13.223   4.368
35865SOL    HW1 9492  11.049  13.201   4.395
35865SOL    HW2 9493  11.192  13.208   4.446
35866SOL     OW 9494   2.887  14.544   1.490
35866SOL    HW1 9495   2.794  14.526   1.474
35866SOL    HW2 9496   2.895  14.553   1.584
35867SOL     OW 9497  10.704  11.975   0.462
35867SOL    HW1 9498  10.708  11.899   0.404
35867SOL    HW2 9499  10.664  11.942   0.542
35868SOL     OW 9500  11.297  12.767  11.823
35868SOL    HW1 9501  11.297  12.829  11.749
35868SOL    HW2 9502  11.374  12.792  11.874
35869SOL     OW 9503  11.813  11.780  13.449
35869SOL    HW1 9504  11.746  11.712  13.439
35869SOL    HW2 9505  11.891  11.733  13.479
35870SOL     OW 9506  13.993   6.481   6.377
35870SOL    HW1 9507  14.016   6.446   6.464
35870SOL    HW2 9508  13.902   6.509   6.386
35871SOL     OW 9509   3.085  11.128   0.227
35871SOL    HW1 9510   2.991  11.135   0.210
35871SOL    HW2 9511   3.122  11.210   0.193
35872SOL     OW 9512   7.422  12.260   6.874
35872SOL    HW1 9513   7.391  12.346   6.901
35872SOL    HW2 9514   7.499  12.277   6.820
35873SOL     OW 9515   7.263  12.906   2.508
35873SOL    HW1 9516   7.172  12.910   2.539
35873SOL    HW2 9517   7.295  12.821   2.538
35874SOL     OW 9518  12.990  11.634   8.076
35874SOL    HW1 9519  12.928  11.562   8.059
35874SOL    HW2 9520  13.009  11.669   7.989
35875SOL     OW 9521   3.064  14.379   1.785
35875SOL    HW1 9522   3.006  14.328   1.728
35875SOL    HW2 9523   3.022  14.465   1.790
35876SOL     OW 9524  14.623   2.742  11.083
35876SOL    HW1 9525  14.685   2.679  11.120
35876SOL    HW2 9526  14.610   2.713  10.992
35877SOL     OW 9527  11.914   8.591  10.678
35877SOL    HW1 9528  11.962   8.510  10.697
35877SOL    HW2 9529  11.848   8.564  10.614
35878SOL     OW 9530  11.756   7.852  12.332
35878SOL    HW1 9531  11.782   7.913  12.263
35878SOL    HW2 9532  11.824   7.859  12.398
35879SOL     OW 9533  14.692   4.417   3.626
35879SOL    HW1 9534  14.766   4.453   3.675
35879SOL    HW2 9535  14.714   4.325   3.612
35880SOL     OW 9536   0.586   9.423  12.956
35880SOL    HW1 9537   0.613   9.411  13.047
35880SOL    HW2 9538   0.510   9.481  12.961
35881SOL     OW 9539   1.918   6.925  14.091
35881SOL    HW1 9540   1.921   6.930  14.186
35881SOL    HW2 9541   1.876   6.840  14.072
35882SOL     OW 9542  14.490   6.065  10.818
35882SOL    HW1 9543  14.530   6.035  10.900
35882SOL    HW2 9544  14.562   6.106  10.770
35883SOL     OW 9545   5.120   5.146   3.055
35883SOL    HW1 9546   5.152   5.195   2.980
35883SOL    HW2 9547   5.134   5.204   3.130
35884SOL     OW 9548   8.331   6.017  13.575
35884SOL    HW1 9549   8.387   5.951  13.616
35884SOL    HW2 9550   8.249   5.971  13.557
35885SOL     OW 9551   9.921   0.059   9.963
35885SOL    HW1 9552   9.914   0.126  10.031
35885SOL    HW2 9553  10.013   0.034   9.964
35886SOL     OW 9554   4.930   3.415   0.430
35886SOL    HW1 9555   4.972   3.500   0.443
35886SOL    HW2 9556   4.957   3.388   0.342
35887SOL     OW 9557   0.392   5.737  10.744
35887SOL    HW1 9558   0.458   5.726  10.676
35887SOL    HW2 9559   0.417   5.819  10.788
35888SOL     OW 9560  14.685   8.749   4.825
35888SOL    HW1 9561  14.724   8.721   4.742
35888SOL    HW2 9562  14.760   8.772   4.879
35889SOL     OW 9563   0.360   4.528   2.540
35889SOL    HW1 9564   0.429   4.472   2.503
35889SOL    HW2 9565   0.407   4.589   2.597
35890SOL     OW 9566   6.503   8.798   2.005
35890SOL    HW1 9567   6.468   8.744   1.934
35890SOL    HW2 9568   6.482   8.749   2.085
35891SOL     OW 9569  12.883   5.242  13.811
35891SOL    HW1 9570  12.823   5.220  13.739
35891SOL    HW2 9571  12.948   5.299  13.771
35892SOL     OW 9572  14.389   6.402   0.608
35892SOL    HW1 9573  14.443   6.325   0.623
35892SOL    HW2 9574  14.431   6.447   0.535
35893SOL     OW 9575   7.507   5.260   7.674
35893SOL    HW1 9576   7.601   5.278   7.668
35893SOL    HW2 9577   7.488   5.201   7.601
35894SOL     OW 9578   8.962  10.233   9.016
35894SOL    HW1 9579   9.029  10.220   9.083
35894SOL    HW2 9580   8.884  10.193   9.052
35895SOL     OW 9581   6.424  11.314   3.051
35895SOL    HW1 9582   6.491  11.375   3.021
35895SOL    HW2 9583   6.455  11.228   3.023
35896SOL     OW 9584   4.120  11.930   1.602
35896SOL    HW1 9585   4.036  11.976   1.610
35896SOL    HW2 9586   4.127  11.911   1.508
35897SOL     OW 9587   6.514   3.615   5.646
35897SOL    HW1 9588   6.572   3.547   5.680
35897SOL    HW2 9589   6.562   3.653   5.573
35898SOL     OW 9590   6.911   6.993  11.258
35898SOL    HW1 9591   6.945   6.970  11.171
35898SOL    HW2 9592   6.887   7.085  11.251
35899SOL     OW 9593   8.263   9.519   4.230
35899SOL    HW1 9594   8.346   9.501   4.275
35899SOL    HW2 9595   8.228   9.596   4.274
35900SOL     OW 9596   1.932  13.128   3.597
35900SOL    HW1 9597   1.984  13.206   3.620
35900SOL    HW2 9598   1.871  13.159   3.530
35901SOL     OW 9599   5.130  14.476   9.140
35901SOL    HW1 9600   5.051  14.528   9.124
35901SOL    HW2 9601   5.103  14.412   9.207
35902SOL     OW 9602  14.744   7.480   1.895
35902SOL    HW1 9603  14.691   7.553   1.863
35902SOL    HW2 9604  14.795   7.452   1.819
35903SOL     OW 9605   6.733   4.501   7.094
35903SOL    HW1 9606   6.787   4.432   7.056
35903SOL    HW2 9607   6.782   4.529   7.172
35904SOL     OW 9608   3.843  13.442  13.662
35904SOL    HW1 9609   3.899  13.502  13.712
35904SOL    HW2 9610   3.891  13.429  13.580
35905SOL     OW 9611   4.235   2.801   4.736
35905SOL    HW1 9612   4.144   2.772   4.748
35905SOL    HW2 9613   4.228   2.892   4.709
35906SOL     OW 9614  11.755   7.849   5.117
35906SOL    HW1 9615  11.818   7.918   5.139
35906SOL    HW2 9616  11.775   7.778   5.178
35907SOL     OW 9617   6.323  13.421   5.977
35907SOL    HW1 9618   6.342  13.391   5.888
35907SOL    HW2 9619   6.317  13.516   5.968
35908SOL     OW 9620   9.343   8.775  13.212
35908SOL    HW1 9621   9.328   8.733  13.296
35908SOL    HW2 9622   9.357   8.702  13.151
35909SOL     OW 9623  13.013   5.702  10.014
35909SOL    HW1 9624  13.011   5.798  10.009
35909SOL    HW2 9625  13.067   5.676   9.940
35910SOL     OW 9626   6.729  10.371  10.981
35910SOL    HW1 9627   6.822  10.349  10.975
35910SOL    HW2 9628   6.719  10.413  11.066
35911SOL     OW 9629   3.914   4.271   2.608
35911SOL    HW1 9630   3.856   4.251   2.682
35911SOL    HW2 9631   3.858   4.261   2.531
35912SOL     OW 9632   8.935  11.991   4.010
35912SOL    HW1 9633   8.979  11.956   3.932
35912SOL    HW2 9634   8.854  11.940   4.016
35913SOL     OW 9635   3.178   5.468   4.539
35913SOL    HW1 9636   3.117   5.541   4.539
35913SOL    HW2 9637   3.235   5.484   4.464
35914SOL     OW 9638  10.039   1.009   3.509
35914SOL    HW1 9639   9.986   0.930   3.523
35914SOL    HW2 9640  10.126   0.976   3.491
35915SOL     OW 9641  12.856   7.054   2.776
35915SOL    HW1 9642  12.767   7.018   2.769
35915SOL    HW2 9643  12.849   7.141   2.737
35916SOL     OW 9644  11.751  12.652  13.115
35916SOL    HW1 9645  11.680  12.679  13.057
35916SOL    HW2 9646  11.707  12.620  13.194
35917SOL     OW 9647   2.385   8.992  14.462
35917SOL    HW1 9648   2.318   8.924  14.451
35917SOL    HW2 9649   2.436   8.964  14.538
35918SOL     OW 9650   7.063  14.702  11.468
35918SOL    HW1 9651   7.058  14.778  11.409
35918SOL    HW2 9652   7.087  14.629  11.412
35919SOL     OW 9653   4.403   8.951   0.303
35919SOL    HW1 9654   4.323   8.911   0.339
35919SOL    HW2 9655   4.405   9.039   0.342
35920SOL     OW 9656   7.247   2.759   4.599
35920SOL    HW1 9657   7.275   2.751   4.507
35920SOL    HW2 9658   7.321   2.801   4.642
35921SOL     OW 9659  14.260   5.373  11.890
35921SOL    HW1 9660  14.223   5.357  11.803
35921SOL    HW2 9661  14.189   5.416  11.938
35922SOL     OW 9662   3.883   1.152  14.701
35922SOL    HW1 9663   3.941   1.138  14.626
35922SOL    HW2 9664   3.941   1.184  14.770
35923SOL     OW 9665  12.195  13.229  11.555
35923SOL    HW1 9666  12.199  13.207  11.648
35923SOL    HW2 9667  12.286  13.227  11.526
35924SOL     OW 9668   6.643  13.879   1.785
35924SOL    HW1 9669   6.711  13.820   1.752
35924SOL    HW2 9670   6.588  13.898   1.709
35925SOL     OW 9671   0.076  10.564   1.406
35925SOL    HW1 9672  14.863  10.565   1.370
35925SOL    HW2 9673   0.065  10.592   1.497
35926SOL     OW 9674  12.891  14.786   0.248
35926SOL    HW1 9675  12.945  14.736   0.309
35926SOL    HW2 9676  12.805  14.745   0.253
35927SOL     OW 9677   3.961   3.516   7.014
35927SOL    HW1 9678   4.014   3.534   7.092
35927SOL    HW2 9679   3.956   3.420   7.010
35928SOL     OW 9680   3.488  13.584   4.890
35928SOL    HW1 9681   3.472  13.675   4.916
35928SOL    HW2 9682   3.405  13.540   4.907
35929SOL     OW 9683   6.775   7.939   0.766
35929SOL    HW1 9684   6.772   7.845   0.788
35929SOL    HW2 9685   6.868   7.959   0.759
35930SOL     OW 9686   5.146   7.496   5.079
35930SOL    HW1 9687   5.099   7.513   5.161
35930SOL    HW2 9688   5.078   7.498   5.012
35931SOL     OW 9689   7.201   1.532   4.798
35931SOL    HW1 9690   7.272   1.586   4.764
35931SOL    HW2 9691   7.152   1.504   4.720
35932SOL     OW 9692   9.888   5.052   0.251
35932SOL    HW1 9693   9.800   5.089   0.250
35932SOL    HW2 9694   9.912   5.047   0.158
35933SOL     OW 9695   6.232   6.503   7.135
35933SOL    HW1 9696   6.287   6.429   7.162
35933SOL    HW2 9697   6.143   6.478   7.160
35934SOL     OW 9698   7.441   6.237  12.042
35934SOL    HW1 9699   7.531   6.206  12.047
35934SOL    HW2 9700   7.423   6.244  11.948
35935SOL     OW 9701   0.270   3.499  13.075
35935SOL    HW1 9702   0.262   3.590  13.049
35935SOL    HW2 9703   0.190   3.457  13.042
35936SOL     OW 9704   6.662   2.465   4.248
35936SOL    HW1 9705   6.710   2.382   4.255
35936SOL    HW2 9706   6.726   2.528   4.215
35937SOL     OW 9707  14.691   1.441   3.115
35937SOL    HW1 9708  14.678   1.346   3.116
35937SOL    HW2 9709  14.777   1.452   3.075
35938SOL     OW 9710   3.385   5.604  11.149
35938SOL    HW1 9711   3.365   5.510  11.150
35938SOL    HW2 9712   3.412   5.624  11.238
35939SOL     OW 9713   5.068   0.306   0.906
35939SOL    HW1 9714   5.061   0.296   1.001
35939SOL    HW2 9715   5.054   0.400   0.891
35940SOL     OW 9716   3.028  10.524   5.977
35940SOL    HW1 9717   2.971  10.522   6.055
35940SOL    HW2 9718   3.115  10.505   6.011
35941SOL     OW 9719  11.457   4.316   9.287
35941SOL    HW1 9720  11.442   4.224   9.308
35941SOL    HW2 9721  11.552   4.326   9.288
35942SOL     OW 9722  14.487   2.809   4.628
35942SOL    HW1 9723  14.506   2.717   4.649
35942SOL    HW2 9724  14.556   2.858   4.672
35943SOL     OW 9725   2.344   3.568   5.985
35943SOL    HW1 9726   2.360   3.585   5.892
35943SOL    HW2 9727   2.355   3.653   6.028
35944SOL     OW 9728   1.129  13.528   5.823
35944SOL    HW1 9729   1.084  13.598   5.774
35944SOL    HW2 9730   1.093  13.447   5.787
35945SOL     OW 9731   7.886   0.915   1.214
35945SOL    HW1 9732   7.959   0.853   1.223
35945SOL    HW2 9733   7.897   0.975   1.288
35946SOL     OW 9734  11.698  14.319   7.003
35946SOL    HW1 9735  11.764  14.375   7.043
35946SOL    HW2 9736  11.628  14.379   6.977
35947SOL     OW 9737   7.080   9.840  12.533
35947SOL    HW1 9738   7.059   9.779  12.463
35947SOL    HW2 9739   7.017   9.820  12.602
35948SOL     OW 9740   8.627   2.244   7.668
35948SOL    HW1 9741   8.671   2.238   7.753
35948SOL    HW2 9742   8.558   2.308   7.681
35949SOL     OW 9743   4.660   9.725   0.217
35949SOL    HW1 9744   4.572   9.763   0.212
35949SOL    HW2 9745   4.695   9.757   0.300
35950SOL     OW 9746  12.859   2.350   2.626
35950SOL    HW1 9747  12.818   2.435   2.643
35950SOL    HW2 9748  12.857   2.342   2.530
35951SOL     OW 9749   2.878   9.651   4.176
35951SOL    HW1 9750   2.803   9.659   4.236
35951SOL    HW2 9751   2.848   9.694   4.096
35952SOL     OW 9752   1.589   3.721   6.140
35952SOL    HW1 9753   1.637   3.638   6.145
35952SOL    HW2 9754   1.647   3.784   6.182
35953SOL     OW 9755  11.078   1.464   4.107
35953SOL    HW1 9756  11.161   1.469   4.058
35953SOL    HW2 9757  11.010   1.464   4.039
35954SOL     OW 9758   6.446  12.694  13.131
35954SOL    HW1 9759   6.417  12.765  13.188
35954SOL    HW2 9760   6.527  12.663  13.171
35955SOL     OW 9761   1.128   4.481   1.617
35955SOL    HW1 9762   1.155   4.533   1.693
35955SOL    HW2 9763   1.060   4.423   1.650
35956SOL     OW 9764   8.335   9.089   3.787
35956SOL    HW1 9765   8.375   9.171   3.756
35956SOL    HW2 9766   8.348   9.028   3.714
35957SOL     OW 9767   9.680  10.701   3.661
35957SOL    HW1 9768   9.754  10.647   3.689
35957SOL    HW2 9769   9.715  10.789   3.654
35958SOL     OW 9770   6.854   3.035   0.169
35958SOL    HW1 9771   6.794   2.998   0.235
35958SOL    HW2 9772   6.931   2.979   0.173
35959SOL     OW 9773   2.350  14.655   6.174
35959SOL    HW1 9774   2.315  14.565   6.171
35959SOL    HW2 9775   2.445  14.644   6.168
35960SOL     OW 9776   5.364  10.742  11.714
35960SOL    HW1 9777   5.333  10.688  11.787
35960SOL    HW2 9778   5.459  10.731  11.716
35961SOL     OW 9779   0.702   3.855   9.594
35961SOL    HW1 9780   0.686   3.930   9.651
35961SOL    HW2 9781   0.741   3.789   9.652
35962SOL     OW 9782   0.626   7.021   3.512
35962SOL    HW1 9783   0.712   6.992   3.479
35962SOL    HW2 9784   0.633   7.010   3.607
35963SOL     OW 9785   4.967  14.328  11.847
35963SOL    HW1 9786   4.901  14.323  11.778
35963SOL    HW2 9787   4.918  14.350  11.926
35964SOL     OW 9788   8.791   8.240   4.009
35964SOL    HW1 9789   8.860   8.188   4.050
35964SOL    HW2 9790   8.719   8.178   3.995
35965SOL     OW 9791   5.706   8.888   4.273
35965SOL    HW1 9792   5.722   8.794   4.262
35965SOL    HW2 9793   5.691   8.899   4.367
35966SOL     OW 9794  12.311   7.079   1.854
35966SOL    HW1 9795  12.281   7.138   1.923
35966SOL    HW2 9796  12.405   7.094   1.848
35967SOL     OW 9797   3.814  12.138  13.068
35967SOL    HW1 9798   3.908  12.137  13.087
35967SOL    HW2 9799   3.796  12.228  13.043
35968SOL     OW 9800   8.181  12.425  11.324
35968SOL    HW1 9801   8.276  12.417  11.317
35968SOL    HW2 9802   8.161  12.388  11.410
35969SOL     OW 9803  13.987   1.779  13.472
35969SOL    HW1 9804  14.004   1.688  13.495
35969SOL    HW2 9805  13.896   1.794  13.500
35970SOL     OW 9806   5.879  12.052   9.427
35970SOL    HW1 9807   5.919  12.069   9.512
35970SOL    HW2 9808   5.795  12.012   9.447
35971SOL     OW 9809   9.804  11.734   9.559
35971SOL    HW1 9810   9.859  11.812   9.572
35971SOL    HW2 9811   9.854  11.663   9.599
35972SOL     OW 9812   8.102  12.372   0.666
35972SOL    HW1 9813   8.082  12.279   0.676
35972SOL    HW2 9814   8.070  12.412   0.747
35973SOL     OW 9815  13.239  13.999   6.942
35973SOL    HW1 9816  13.295  13.943   6.996
35973SOL    HW2 9817  13.300  14.055   6.893
35974SOL     OW 9818   2.511  10.025   0.575
35974SOL    HW1 9819   2.508   9.957   0.508
35974SOL    HW2 9820   2.456  10.095   0.541
35975SOL     OW 9821  13.391   6.126   0.638
35975SOL    HW1 9822  13.377   6.202   0.695
35975SOL    HW2 9823  13.472   6.087   0.670
35976SOL     OW 9824   0.070   0.610   0.533
35976SOL    HW1 9825   0.072   0.698   0.570
35976SOL    HW2 9826   0.114   0.555   0.597
35977SOL     OW 9827  12.263  13.850   9.612
35977SOL    HW1 9828  12.182  13.844   9.561
35977SOL    HW2 9829  12.303  13.763   9.604
35978SOL     OW 9830  11.051  13.465   3.900
35978SOL    HW1 9831  11.094  13.424   3.975
35978SOL    HW2 9832  10.963  13.485   3.931
35979SOL     OW 9833   1.036   3.111   8.125
35979SOL    HW1 9834   1.096   3.156   8.185
35979SOL    HW2 9835   0.956   3.099   8.175
35980SOL     OW 9836   6.278   7.662   4.487
35980SOL    HW1 9837   6.338   7.709   4.429
35980SOL    HW2 9838   6.277   7.713   4.568
35981SOL     OW 9839   0.647  10.009  10.581
35981SOL    HW1 9840   0.599   9.936  10.620
35981SOL    HW2 9841   0.594  10.087  10.600
35982SOL     OW 9842   9.467  10.222  11.831
35982SOL    HW1 9843   9.535  10.215  11.764
35982SOL    HW2 9844   9.498  10.165  11.902
35983SOL     OW 9845   2.086  10.528  11.780
35983SOL    HW1 9846   2.027  10.453  11.791
35983SOL    HW2 9847   2.034  10.604  11.807
35984SOL     OW 9848  11.409  12.555   4.407
35984SOL    HW1 9849  11.457  12.524   4.483
35984SOL    HW2 9850  11.441  12.644   4.392
35985SOL     OW 9851   8.438  14.218  14.117
35985SOL    HW1 9852   8.434  14.133  14.073
35985SOL    HW2 9853   8.449  14.282  14.046
35986SOL     OW 9854  11.998   1.242   7.216
35986SOL    HW1 9855  11.973   1.303   7.146
35986SOL    HW2 9856  11.922   1.240   7.274
35987SOL     OW 9857  12.453   5.408  11.986
35987SOL    HW1 9858  12.543   5.382  12.006
35987SOL    HW2 9859  12.408   5.405  12.071
35988SOL     OW 9860   7.184   5.628  12.038
35988SOL    HW1 9861   7.246   5.612  11.967
35988SOL    HW2 9862   7.152   5.716  12.023
35989SOL     OW 9863   6.803  11.268   7.860
35989SOL    HW1 9864   6.815  11.359   7.886
35989SOL    HW2 9865   6.834  11.217   7.935
35990SOL     OW 9866  11.948  13.369   2.317
35990SOL    HW1 9867  11.977  13.409   2.235
35990SOL    HW2 9868  11.855  13.349   2.302
35991SOL     OW 9869   0.319  11.371  14.455
35991SOL    HW1 9870   0.329  11.440  14.520
35991SOL    HW2 9871   0.269  11.303  14.499
35992SOL     OW 9872  13.406   2.932  14.242
35992SOL    HW1 9873  13.317   2.900  14.255
35992SOL    HW2 9874  13.414   3.007  14.300
35993SOL     OW 9875  11.925   9.303   7.204
35993SOL    HW1 9876  11.949   9.249   7.279
35993SOL    HW2 9877  11.968   9.260   7.130
35994SOL     OW 9878   7.596  12.902  10.796
35994SOL    HW1 9879   7.671  12.849  10.823
35994SOL    HW2 9880   7.610  12.918  10.703
35995SOL     OW 9881   9.780   4.543  13.116
35995SOL    HW1 9882   9.769   4.487  13.040
35995SOL    HW2 9883   9.752   4.489  13.190
35996SOL     OW 9884  11.601  11.238   4.369
35996SOL    HW1 9885  11.542  11.313   4.367
35996SOL    HW2 9886  11.687  11.274   4.346
35997SOL     OW 9887   1.104   6.173  12.417
35997SOL    HW1 9888   1.014   6.203  12.402
35997SOL    HW2 9889   1.150   6.251  12.447
35998SOL     OW 9890   7.006   2.050   7.311
35998SOL    HW1 9891   6.967   2.095   7.235
35998SOL    HW2 9892   6.994   1.957   7.292
35999SOL     OW 9893   6.242   5.046   2.107
35999SOL    HW1 9894   6.192   4.974   2.069
35999SOL    HW2 9895   6.216   5.047   2.200
36000SOL     OW 9896  12.144  14.861   7.645
36000SOL    HW1 9897  12.092   0.045   7.590
36000SOL    HW2 9898  12.231   0.026   7.649
36001SOL     OW 9899  10.679   1.175   7.637
36001SOL    HW1 9900  10.697   1.182   7.544
36001SOL    HW2 9901  10.584   1.164   7.643
36002SOL     OW 9902   3.478   9.738   0.663
36002SOL    HW1 9903   3.415   9.707   0.599
36002SOL    HW2 9904   3.563   9.716   0.625
36003SOL     OW 9905  13.221  11.306   4.583
36003SOL    HW1 9906  13.285  11.324   4.651
36003SOL    HW2 9907  13.192  11.392   4.554
36004SOL     OW 9908  12.807   7.316   2.690
36004SOL    HW1 9909  12.765   7.335   2.606
36004SOL    HW2 9910  12.898   7.297   2.668
36005SOL     OW 9911   2.327  13.691  13.346
36005SOL    HW1 9912   2.236  13.704  13.372
36005SOL    HW2 9913   2.348  13.602  13.376
36006SOL     OW 9914  13.814  11.233  14.504
36006SOL    HW1 9915  13.749  11.220  14.436
36006SOL    HW2 9916  13.896  11.202  14.466
36007SOL     OW 9917   6.306   9.464   3.062
36007SOL    HW1 9918   6.321   9.504   3.148
36007SOL    HW2 9919   6.389   9.422   3.040
36008SOL     OW 9920  11.924   5.360   4.665
36008SOL    HW1 9921  11.929   5.356   4.570
36008SOL    HW2 9922  11.934   5.269   4.694
36009SOL     OW 9923  10.852  11.792   2.594
36009SOL    HW1 9924  10.835  11.853   2.522
36009SOL    HW2 9925  10.836  11.706   2.556
36010SOL     OW 9926  11.148  14.075   8.871
36010SOL    HW1 9927  11.171  14.105   8.959
36010SOL    HW2 9928  11.232  14.055   8.830
36011SOL     OW 9929  12.207   9.440   2.157
36011SOL    HW1 9930  12.234   9.349   2.165
36011SOL    HW2 9931  12.260   9.486   2.222
36012SOL     OW 9932   5.627  12.162  13.776
36012SOL    HW1 9933   5.603  12.246  13.814
36012SOL    HW2 9934   5.641  12.105  13.852
36013SOL     OW 9935  12.482  10.074   0.589
36013SOL    HW1 9936  12.569  10.110   0.575
36013SOL    HW2 9937  12.425  10.125   0.531
36014SOL     OW 9938   0.679   6.108   0.328
36014SOL    HW1 9939   0.610   6.077   0.269
36014SOL    HW2 9940   0.759   6.104   0.275
36015SOL     OW 9941  10.229   9.379  14.607
36015SOL    HW1 9942  10.173   9.346  14.537
36015SOL    HW2 9943  10.315   9.387  14.568
36016SOL     OW 9944   9.718  11.385   3.475
36016SOL    HW1 9945   9.660  11.459   3.495
36016SOL    HW2 9946   9.705  11.324   3.548
36017SOL     OW 9947   9.991   7.653  14.632
36017SOL    HW1 9948   9.923   7.716  14.605
36017SOL    HW2 9949   9.948   7.568  14.624
36018SOL     OW 9950   6.801   4.896   2.832
36018SOL    HW1 9951   6.828   4.984   2.856
36018SOL    HW2 9952   6.747   4.907   2.754
36019SOL     OW 9953  10.279  11.426   4.276
36019SOL    HW1 9954  10.237  11.511   4.286
36019SOL    HW2 9955  10.372  11.446   4.263
36020SOL     OW 9956   5.623   3.333   4.721
36020SOL    HW1 9957   5.610   3.243   4.690
36020SOL    HW2 9958   5.679   3.373   4.655
36021SOL     OW 9959  12.143   1.105   9.560
36021SOL    HW1 9960  12.129   1.058   9.478
36021SOL    HW2 9961  12.203   1.049   9.610
36022SOL     OW 9962   5.113   9.941   7.321
36022SOL    HW1 9963   5.166  10.020   7.306
36022SOL    HW2 9964   5.170   9.883   7.371
36023SOL     OW 9965   2.252   2.538  12.815
36023SOL    HW1 9966   2.183   2.599  12.841
36023SOL    HW2 9967   2.222   2.453  12.846
36024SOL     OW 9968   8.826   6.206  13.138
36024SOL    HW1 9969   8.761   6.175  13.074
36024SOL    HW2 9970   8.832   6.300  13.123
36025SOL     OW 9971   4.530   4.151   0.158
36025SOL    HW1 9972   4.599   4.201   0.202
36025SOL    HW2 9973   4.537   4.177   0.066
36026SOL     OW 9974   5.877   0.969  10.142
36026SOL    HW1 9975   5.802   1.017  10.176
36026SOL    HW2 9976   5.856   0.877  10.158
36027SOL     OW 9977   9.668   0.696   4.222
36027SOL    HW1 9978   9.689   0.786   4.247
36027SOL    HW2 9979   9.670   0.647   4.304
36028SOL     OW 9980  12.227   1.845   6.057
36028SOL    HW1 9981  12.309   1.861   6.102
36028SOL    HW2 9982  12.168   1.809   6.123
36029SOL     OW 9983  11.191  14.166  12.172
36029SOL    HW1 9984  11.285  14.151  12.168
36029SOL    HW2 9985  11.152  14.085  12.139
36030SOL     OW 9986   7.959   7.495  11.193
36030SOL    HW1 9987   7.883   7.548  11.216
36030SOL    HW2 9988   7.937   7.406  11.220
36031SOL     OW 9989   4.139   8.204   7.687
36031SOL    HW1 9990   4.107   8.161   7.608
36031SOL    HW2 9991   4.130   8.298   7.668
36032SOL     OW 9992   9.458   4.483  10.395
36032SOL    HW1 9993   9.530   4.545  10.404
36032SOL    HW2 9994   9.433   4.489  10.303
36033SOL     OW 9995   3.133  14.348  14.475
36033SOL    HW1 9996   3.170  14.275  14.525
36033SOL    HW2 9997   3.071  14.307  14.415
36034SOL     OW 9998   0.453   8.567   5.491
36034SOL    HW1 9999   0.518   8.575   5.421
36034SOL    HW210000   0.439   8.656   5.522
36035SOL     OW10001   9.838   4.442   2.693
36035SOL    HW110002   9.908   4.508   2.700
36035SOL    HW210003   9.771   4.471   2.755
36036SOL     OW10004  10.386   9.366   9.389
36036SOL    HW110005  10.409   9.274   9.398
36036SOL    HW210006  10.360   9.393   9.477
36037SOL     OW10007  13.779   1.392   0.112
36037SOL    HW110008  13.710   1.329   0.093
36037SOL    HW210009  13.824   1.405   0.029
36038SOL     OW10010   2.901   9.427  14.324
36038SOL    HW110011   2.861   9.398  14.406
36038SOL    HW210012   2.828   9.432  14.262
36039SOL     OW10013   1.684   2.079  12.554
36039SOL    HW110014   1.603   2.125  12.573
36039SOL    HW210015   1.667   2.034  12.471
36040SOL     OW10016   4.958   9.173  13.203
36040SOL    HW110017   4.960   9.242  13.269
36040SOL    HW210018   4.882   9.120  13.225
36041SOL     OW10019  10.489   4.658   2.200
36041SOL    HW110020  10.535   4.706   2.131
36041SOL    HW210021  10.416   4.715   2.225
36042SOL     OW10022  10.273   8.705  13.925
36042SOL    HW110023  10.183   8.696  13.959
36042SOL    HW210024  10.327   8.706  14.004
36043SOL     OW10025   0.829  11.804  11.471
36043SOL    HW110026   0.859  11.876  11.415
36043SOL    HW210027   0.778  11.847  11.540
36044SOL     OW10028   8.249  10.575  11.835
36044SOL    HW110029   8.337  10.562  11.801
36044SOL    HW210030   8.207  10.490  11.828
36045SOL     OW10031  14.811   2.639   9.657
36045SOL    HW110032   0.009   2.580   9.677
36045SOL    HW210033  14.852   2.725   9.645
36046SOL     OW10034   8.724   5.166  13.641
36046SOL    HW110035   8.789   5.191  13.706
36046SOL    HW210036   8.725   5.070  13.640
36047SOL     OW10037  11.734   5.693   6.116
36047SOL    HW110038  11.690   5.646   6.046
36047SOL    HW210039  11.669   5.757   6.147
36048SOL     OW10040   7.449   8.480   6.359
36048SOL    HW110041   7.531   8.438   6.386
36048SOL    HW210042   7.397   8.483   6.440
36049SOL     OW10043   0.682   5.258   8.441
36049SOL    HW110044   0.610   5.321   8.450
36049SOL    HW210045   0.653   5.183   8.493
36050SOL     OW10046   7.654   8.428   3.296
36050SOL    HW110047   7.624   8.337   3.298
36050SOL    HW210048   7.740   8.425   3.338
36051SOL     OW10049   6.312   4.890   9.581
36051SOL    HW110050   6.364   4.954   9.532
36051SOL    HW210051   6.351   4.889   9.668
36052SOL     OW10052   7.558   5.433   6.106
36052SOL    HW110053   7.594   5.365   6.049
36052SOL    HW210054   7.617   5.507   6.094
36053SOL     OW10055   9.576   6.966   0.051
36053SOL    HW110056   9.640   6.959   0.122
36053SOL    HW210057   9.625   7.002  14.853
36054SOL     OW10058   2.465   8.575  11.765
36054SOL    HW110059   2.383   8.618  11.789
36054SOL    HW210060   2.510   8.639  11.709
36055SOL     OW10061   9.298   5.862   9.102
36055SOL    HW110062   9.316   5.942   9.151
36055SOL    HW210063   9.383   5.819   9.093
36056SOL     OW10064   1.031  10.864   6.791
36056SOL    HW110065   1.043  10.872   6.886
36056SOL    HW210066   0.977  10.940   6.768
36057SOL     OW10067   0.111   4.787   0.857
36057SOL    HW110068   0.085   4.838   0.781
36057SOL    HW210069   0.037   4.729   0.873
36058SOL     OW10070  10.404  14.030   3.492
36058SOL    HW110071  10.411  14.121   3.464
36058SOL    HW210072  10.375  13.983   3.413
36059SOL     OW10073   3.350   9.358   3.519
36059SOL    HW110074   3.440   9.346   3.489
36059SOL    HW210075   3.344   9.450   3.545
36060SOL     OW10076   2.942   4.129   9.327
36060SOL    HW110077   3.011   4.164   9.271
36060SOL    HW210078   2.986   4.110   9.410
36061SOL     OW10079  10.052   6.450   7.610
36061SOL    HW110080  10.034   6.409   7.695
36061SOL    HW210081   9.969   6.445   7.563
36062SOL     OW10082   3.858  10.822   5.379
36062SOL    HW110083   3.778  10.856   5.420
36062SOL    HW210084   3.845  10.727   5.377
36063SOL     OW10085  13.371  12.870   1.853
36063SOL    HW110086  13.372  12.964   1.871
36063SOL    HW210087  13.439  12.857   1.788
36064SOL     OW10088   2.106   5.103   3.361
36064SOL    HW110089   2.061   5.136   3.283
36064SOL    HW210090   2.104   5.008   3.352
36065SOL     OW10091   9.930  10.934  13.326
36065SOL    HW110092  10.006  10.972  13.282
36065SOL    HW210093   9.955  10.843  13.343
36066SOL     OW10094  10.820   4.046   6.161
36066SOL    HW110095  10.876   4.111   6.205
36066SOL    HW210096  10.854   4.040   6.072
36067SOL     OW10097  12.360   4.962   1.708
36067SOL    HW110098  12.324   4.943   1.794
36067SOL    HW210099  12.316   4.902   1.648
36068SOL     OW10100   2.602   6.418  12.052
36068SOL    HW110101   2.601   6.337  12.001
36068SOL    HW210102   2.535   6.406  12.119
36069SOL     OW10103   7.257   0.460   3.342
36069SOL    HW110104   7.171   0.457   3.301
36069SOL    HW210105   7.308   0.393   3.296
36070SOL     OW10106   8.730   9.960   1.457
36070SOL    HW110107   8.748   9.871   1.427
36070SOL    HW210108   8.738   9.954   1.553
36071SOL     OW10109   3.984   2.744   0.370
36071SOL    HW110110   3.889   2.737   0.379
36071SOL    HW210111   4.008   2.671   0.312
36072SOL     OW10112  14.063   1.573  10.771
36072SOL    HW110113  14.012   1.511  10.823
36072SOL    HW210114  14.136   1.597  10.828
36073SOL     OW10115   1.515  11.632   5.637
36073SOL    HW110116   1.424  11.620   5.609
36073SOL    HW210117   1.566  11.626   5.557
36074SOL     OW10118  14.188   5.444   9.694
36074SOL    HW110119  14.246   5.368   9.707
36074SOL    HW210120  14.156   5.464   9.782
36075SOL     OW10121  14.238   3.095   1.810
36075SOL    HW110122  14.244   3.110   1.904
36075SOL    HW210123  14.320   3.049   1.788
36076SOL     OW10124   5.198  13.620   1.100
36076SOL    HW110125   5.189  13.708   1.138
36076SOL    HW210126   5.247  13.634   1.019
36077SOL     OW10127   1.112   5.462   6.554
36077SOL    HW110128   1.057   5.499   6.623
36077SOL    HW210129   1.073   5.494   6.473
36078SOL     OW10130  14.239   0.077   8.690
36078SOL    HW110131  14.321   0.033   8.713
36078SOL    HW210132  14.224   0.139   8.762
36079SOL     OW10133   2.334   8.169   4.659
36079SOL    HW110134   2.270   8.157   4.730
36079SOL    HW210135   2.419   8.169   4.703
36080SOL     OW10136   0.437   4.988   1.130
36080SOL    HW110137   0.467   4.961   1.044
36080SOL    HW210138   0.347   4.954   1.136
36081SOL     OW10139   0.692  10.661   1.790
36081SOL    HW110140   0.723  10.578   1.826
36081SOL    HW210141   0.762  10.690   1.732
36082SOL     OW10142  13.715   2.227   9.635
36082SOL    HW110143  13.734   2.145   9.681
36082SOL    HW210144  13.718   2.204   9.542
36083SOL     OW10145   5.729   5.214   5.131
36083SOL    HW110146   5.727   5.309   5.138
36083SOL    HW210147   5.698   5.195   5.043
36084SOL     OW10148  12.794  12.562   7.000
36084SOL    HW110149  12.838  12.595   7.078
36084SOL    HW210150  12.798  12.635   6.938
36085SOL     OW10151   1.748   0.373   8.082
36085SOL    HW110152   1.843   0.368   8.093
36085SOL    HW210153   1.736   0.400   7.991
36086SOL     OW10154   5.367  14.458   7.116
36086SOL    HW110155   5.323  14.539   7.140
36086SOL    HW210156   5.460  14.480   7.113
36087SOL     OW10157   9.249  14.060  13.273
36087SOL    HW110158   9.341  14.039  13.289
36087SOL    HW210159   9.227  14.012  13.193
36088SOL     OW10160   2.667  13.477  10.200
36088SOL    HW110161   2.578  13.477  10.235
36088SOL    HW210162   2.691  13.570  10.197
36089SOL     OW10163   5.217   9.997  14.794
36089SOL    HW110164   5.175  10.082  14.805
36089SOL    HW210165   5.274  10.008  14.718
36090SOL     OW10166   7.462  13.994   5.951
36090SOL    HW110167   7.382  14.044   5.938
36090SOL    HW210168   7.477  13.999   6.046
36091SOL     OW10169  10.487   3.073   8.173
36091SOL    HW110170  10.427   3.090   8.101
36091SOL    HW210171  10.514   3.160   8.202
36092SOL     OW10172  10.414  10.744   9.881
36092SOL    HW110173  10.405  10.726   9.788
36092SOL    HW210174  10.464  10.826   9.886
36093SOL     OW10175  13.307  11.200   4.341
36093SOL    HW110176  13.260  11.221   4.421
36093SOL    HW210177  13.339  11.111   4.354
36094SOL     OW10178   6.459  12.046  11.071
36094SOL    HW110179   6.391  12.003  11.123
36094SOL    HW210180   6.488  11.980  11.009
36095SOL     OW10181  11.395   4.787   0.159
36095SOL    HW110182  11.328   4.813   0.096
36095SOL    HW210183  11.348   4.775   0.241
36096SOL     OW10184   2.230   1.347  12.735
36096SOL    HW110185   2.303   1.400  12.703
36096SOL    HW210186   2.271   1.272  12.777
36097SOL     OW10187   9.131  12.538  13.889
36097SOL    HW110188   9.190  12.464  13.874
36097SOL    HW210189   9.134  12.552  13.984
36098SOL     OW10190  10.165   0.260   5.833
36098SOL    HW110191  10.257   0.271   5.811
36098SOL    HW210192  10.165   0.222   5.920
36099SOL     OW10193  14.159   4.801   6.206
36099SOL    HW110194  14.091   4.805   6.140
36099SOL    HW210195  14.186   4.892   6.219
36100SOL     OW10196   2.413   3.807  10.726
36100SOL    HW110197   2.325   3.834  10.752
36100SOL    HW210198   2.412   3.810  10.630
36101SOL     OW10199   5.155  11.901   5.924
36101SOL    HW110200   5.242  11.897   5.965
36101SOL    HW210201   5.171  11.935   5.836
36102SOL     OW10202   2.252   2.002   3.069
36102SOL    HW110203   2.347   2.017   3.072
36102SOL    HW210204   2.223   2.011   3.160
36103SOL     OW10205   4.803  13.686   8.891
36103SOL    HW110206   4.719  13.690   8.846
36103SOL    HW210207   4.853  13.759   8.854
36104SOL     OW10208  13.157   9.962   4.648
36104SOL    HW110209  13.081   9.906   4.657
36104SOL    HW210210  13.192   9.970   4.737
36105SOL     OW10211  11.517   7.864   6.549
36105SOL    HW110212  11.590   7.821   6.595
36105SOL    HW210213  11.560   7.912   6.478
36106SOL     OW10214  11.180  10.616   0.278
36106SOL    HW110215  11.138  10.655   0.202
36106SOL    HW210216  11.151  10.525   0.278
36107SOL     OW10217   7.695   7.667   0.016
36107SOL    HW110218   7.652   7.591   0.054
36107SOL    HW210219   7.758   7.695   0.084
36108SOL     OW10220   1.894  14.390   8.526
36108SOL    HW110221   1.961  14.435   8.475
36108SOL    HW210222   1.847  14.336   8.463
36109SOL     OW10223   1.270   8.613  13.449
36109SOL    HW110224   1.209   8.657  13.509
36109SOL    HW210225   1.298   8.535  13.498
36110SOL     OW10226  11.524   2.190  12.725
36110SOL    HW110227  11.559   2.278  12.712
36110SOL    HW210228  11.577   2.134  12.668
36111SOL     OW10229   1.414   9.662  10.116
36111SOL    HW110230   1.489   9.655  10.056
36111SOL    HW210231   1.339   9.637  10.063
36112SOL     OW10232   8.620   2.313  10.714
36112SOL    HW110233   8.608   2.234  10.660
36112SOL    HW210234   8.566   2.297  10.791
36113SOL     OW10235  14.528   7.845   6.207
36113SOL    HW110236  14.588   7.782   6.167
36113SOL    HW210237  14.447   7.796   6.221
36114SOL     OW10238   0.160   7.057   1.006
36114SOL    HW110239   0.106   7.007   0.945
36114SOL    HW210240   0.173   6.998   1.080
36115SOL     OW10241   1.240   1.613   3.637
36115SOL    HW110242   1.217   1.690   3.584
36115SOL    HW210243   1.325   1.635   3.675
36116SOL     OW10244   1.913   5.838   8.769
36116SOL    HW110245   1.882   5.928   8.772
36116SOL    HW210246   1.859   5.796   8.702
36117SOL     OW10247   7.871   1.090  13.251
36117SOL    HW110248   7.796   1.045  13.290
36117SOL    HW210249   7.937   1.022  13.239
36118SOL     OW10250  13.239   4.684  11.630
36118SOL    HW110251  13.250   4.779  11.634
36118SOL    HW210252  13.238   4.664  11.536
36119SOL     OW10253  12.449   9.024   4.316
36119SOL    HW110254  12.444   9.064   4.403
36119SOL    HW210255  12.484   8.937   4.332
36120SOL     OW10256  14.576   9.031   3.161
36120SOL    HW110257  14.640   9.100   3.143
36120SOL    HW210258  14.609   8.955   3.114
36121SOL     OW10259  12.501  13.940  11.046
36121SOL    HW110260  12.586  13.982  11.061
36121SOL    HW210261  12.441  14.013  11.036
36122SOL     OW10262   6.556   1.635  12.622
36122SOL    HW110263   6.500   1.557  12.628
36122SOL    HW210264   6.495   1.708  12.613
36123SOL     OW10265   8.358   8.091  11.185
36123SOL    HW110266   8.304   8.122  11.113
36123SOL    HW210267   8.318   8.008  11.212
36124SOL     OW10268   8.041  13.127   3.732
36124SOL    HW110269   7.992  13.065   3.786
36124SOL    HW210270   8.097  13.174   3.795
36125SOL     OW10271   1.694  14.448   9.455
36125SOL    HW110272   1.702  14.409   9.368
36125SOL    HW210273   1.656  14.534   9.439
36126SOL     OW10274   7.258   2.584   7.462
36126SOL    HW110275   7.175   2.544   7.487
36126SOL    HW210276   7.312   2.579   7.540
36127SOL     OW10277   7.253   7.549  10.096
36127SOL    HW110278   7.224   7.464  10.130
36127SOL    HW210279   7.244   7.609  10.170
36128SOL     OW10280   1.671   3.982  12.044
36128SOL    HW110281   1.642   4.033  12.120
36128SOL    HW210282   1.673   3.891  12.076
36129SOL     OW10283   5.253   7.188  12.414
36129SOL    HW110284   5.221   7.278  12.426
36129SOL    HW210285   5.323   7.196  12.349
36130SOL     OW10286   3.863  10.003   2.767
36130SOL    HW110287   3.935  10.002   2.830
36130SOL    HW210288   3.890  10.067   2.700
36131SOL     OW10289   2.178   6.430   8.800
36131SOL    HW110290   2.091   6.408   8.766
36131SOL    HW210291   2.166   6.517   8.839
36132SOL     OW10292   3.372   0.725   1.969
36132SOL    HW110293   3.333   0.647   2.008
36132SOL    HW210294   3.309   0.751   1.901
36133SOL     OW10295  11.750  13.987   7.432
36133SOL    HW110296  11.761  13.991   7.528
36133SOL    HW210297  11.696  13.910   7.417
36134SOL     OW10298  11.257   9.573   5.276
36134SOL    HW110299  11.178   9.606   5.319
36134SOL    HW210300  11.321   9.565   5.346
36135SOL     OW10301   4.672  13.636   3.845
36135SOL    HW110302   4.687  13.570   3.913
36135SOL    HW210303   4.666  13.719   3.892
36136SOL     OW10304   5.884   4.386   9.608
36136SOL    HW110305   5.975   4.415   9.608
36136SOL    HW210306   5.858   4.385   9.516
36137SOL     OW10307   9.818   7.350   0.962
36137SOL    HW110308   9.781   7.331   1.048
36137SOL    HW210309   9.902   7.393   0.981
36138SOL     OW10310   3.558   6.981  10.961
36138SOL    HW110311   3.630   6.937  11.006
36138SOL    HW210312   3.600   7.035  10.895
36139SOL     OW10313   0.849  10.659   5.635
36139SOL    HW110314   0.918  10.705   5.684
36139SOL    HW210315   0.803  10.729   5.589
36140SOL     OW10316   8.717  13.074  13.213
36140SOL    HW110317   8.723  13.115  13.299
36140SOL    HW210318   8.732  12.981  13.229
36141SOL     OW10319   6.228   0.107  13.247
36141SOL    HW110320   6.150   0.119  13.300
36141SOL    HW210321   6.257   0.195  13.225
36142SOL     OW10322  10.895   6.890   8.629
36142SOL    HW110323  10.898   6.984   8.647
36142SOL    HW210324  10.806   6.863   8.653
36143SOL     OW10325   0.398   9.063   4.215
36143SOL    HW110326   0.425   9.150   4.186
36143SOL    HW210327   0.402   9.067   4.310
36144SOL     OW10328   2.200  12.968   7.944
36144SOL    HW110329   2.137  12.899   7.968
36144SOL    HW210330   2.172  13.044   7.996
36145SOL     OW10331   3.316  10.536  12.725
36145SOL    HW110332   3.286  10.578  12.806
36145SOL    HW210333   3.368  10.604  12.681
36146SOL     OW10334  10.409  12.148   8.058
36146SOL    HW110335  10.320  12.135   8.091
36146SOL    HW210336  10.426  12.241   8.070
36147SOL     OW10337  11.848   5.220  10.356
36147SOL    HW110338  11.842   5.306  10.314
36147SOL    HW210339  11.860   5.240  10.449
36148SOL     OW10340  11.197   2.788   2.469
36148SOL    HW110341  11.185   2.744   2.385
36148SOL    HW210342  11.283   2.759   2.499
36149SOL     OW10343   4.950   7.126   3.238
36149SOL    HW110344   4.963   7.132   3.144
36149SOL    HW210345   4.877   7.185   3.256
36150SOL     OW10346   6.770  12.728   1.792
36150SOL    HW110347   6.812  12.811   1.771
36150SOL    HW210348   6.693  12.752   1.844
36151SOL     OW10349   1.640   7.515  14.834
36151SOL    HW110350   1.644   7.602  14.793
36151SOL    HW210351   1.670   7.529   0.048
36152SOL     OW10352   9.286   8.166   3.328
36152SOL    HW110353   9.291   8.260   3.310
36152SOL    HW210354   9.340   8.154   3.406
36153SOL     OW10355   4.811   1.586   5.214
36153SOL    HW110356   4.863   1.570   5.293
36153SOL    HW210357   4.794   1.680   5.216
36154SOL     OW10358   9.767   2.255  10.392
36154SOL    HW110359   9.792   2.190  10.326
36154SOL    HW210360   9.850   2.279  10.434
36155SOL     OW10361   9.286  11.793  10.313
36155SOL    HW110362   9.348  11.866  10.305
36155SOL    HW210363   9.296  11.745  10.231
36156SOL     OW10364   8.556   2.108   5.263
36156SOL    HW110365   8.462   2.096   5.253
36156SOL    HW210366   8.566   2.161   5.342
36157SOL     OW10367  13.022   0.041  12.358
36157SOL    HW110368  12.964  14.852  12.318
36157SOL    HW210369  13.029   0.014  12.449
36158SOL     OW10370   7.045   9.879  13.437
36158SOL    HW110371   7.137   9.902  13.421
36158SOL    HW210372   7.029   9.906  13.527
36159SOL     OW10373   0.944   2.810  13.806
36159SOL    HW110374   0.905   2.852  13.883
36159SOL    HW210375   1.026   2.772  13.837
36160SOL     OW10376   7.722   6.026  12.365
36160SOL    HW110377   7.714   5.980  12.282
36160SOL    HW210378   7.644   6.001  12.414
36161SOL     OW10379  14.789   2.270   6.990
36161SOL    HW110380  14.724   2.330   6.954
36161SOL    HW210381  14.741   2.219   7.056
36162SOL     OW10382   5.222   8.157   8.194
36162SOL    HW110383   5.306   8.180   8.154
36162SOL    HW210384   5.242   8.150   8.288
36163SOL     OW10385  12.744  14.051   7.174
36163SOL    HW110386  12.676  14.010   7.228
36163SOL    HW210387  12.814  14.071   7.236
36164SOL     OW10388  11.229   6.394   7.478
36164SOL    HW110389  11.161   6.326   7.473
36164SOL    HW210390  11.222   6.428   7.567
36165SOL     OW10391  10.242   5.917   7.420
36165SOL    HW110392  10.179   5.925   7.491
36165SOL    HW210393  10.267   5.825   7.419
36166SOL     OW10394   1.444   4.939   5.306
36166SOL    HW110395   1.484   4.870   5.252
36166SOL    HW210396   1.351   4.917   5.308
36167SOL     OW10397   7.247   2.549   6.604
36167SOL    HW110398   7.340   2.533   6.589
36167SOL    HW210399   7.223   2.614   6.538
36168SOL     OW10400  12.932  11.080  10.785
36168SOL    HW110401  12.952  11.033  10.866
36168SOL    HW210402  12.983  11.161  10.792
36169SOL     OW10403   1.346  10.919   1.287
36169SOL    HW110404   1.308  10.993   1.238
36169SOL    HW210405   1.396  10.961   1.357
36170SOL     OW10406   2.975  11.470   0.753
36170SOL    HW110407   2.988  11.404   0.820
36170SOL    HW210408   2.902  11.523   0.786
36171SOL     OW10409   6.126  13.857   0.506
36171SOL    HW110410   6.063  13.920   0.539
36171SOL    HW210411   6.204  13.909   0.485
36172SOL     OW10412   2.074   2.067   0.772
36172SOL    HW110413   1.998   2.094   0.824
36172SOL    HW210414   2.116   2.148   0.747
36173SOL     OW10415  13.125   7.301  12.174
36173SOL    HW110416  13.115   7.222  12.226
36173SOL    HW210417  13.133   7.269  12.084
36174SOL     OW10418  10.928   8.040   7.724
36174SOL    HW110419  10.962   7.988   7.797
36174SOL    HW210420  10.892   8.118   7.766
36175SOL     OW10421   1.281   1.282  12.229
36175SOL    HW110422   1.338   1.334  12.171
36175SOL    HW210423   1.301   1.191  12.205
36176SOL     OW10424   6.641   4.334   5.350
36176SOL    HW110425   6.650   4.428   5.367
36176SOL    HW210426   6.591   4.301   5.425
36177SOL     OW10427  11.786   1.765   3.891
36177SOL    HW110428  11.696   1.769   3.858
36177SOL    HW210429  11.828   1.697   3.839
36178SOL     OW10430  13.876  13.048   5.352
36178SOL    HW110431  13.941  13.100   5.305
36178SOL    HW210432  13.793  13.093   5.335
36179SOL     OW10433   6.178   5.651   7.341
36179SOL    HW110434   6.100   5.636   7.395
36179SOL    HW210435   6.247   5.673   7.404
36180SOL     OW10436   9.676   5.836   1.747
36180SOL    HW110437   9.738   5.825   1.675
36180SOL    HW210438   9.591   5.819   1.709
36181SOL     OW10439  11.155   3.792  12.475
36181SOL    HW110440  11.194   3.722  12.422
36181SOL    HW210441  11.085   3.827  12.420
36182SOL     OW10442   8.583   8.642   2.058
36182SOL    HW110443   8.507   8.673   2.007
36182SOL    HW210444   8.614   8.720   2.104
36183SOL     OW10445   1.676  12.544   8.183
36183SOL    HW110446   1.715  12.586   8.260
36183SOL    HW210447   1.744  12.483   8.153
36184SOL     OW10448  12.272   4.925  12.585
36184SOL    HW110449  12.292   4.905  12.676
36184SOL    HW210450  12.357   4.926  12.541
36185SOL     OW10451   8.732  14.497  13.805
36185SOL    HW110452   8.650  14.510  13.759
36185SOL    HW210453   8.789  14.567  13.774
36186SOL     OW10454  13.771   2.037  13.585
36186SOL    HW110455  13.823   2.038  13.665
36186SOL    HW210456  13.742   1.947  13.576
36187SOL     OW10457   0.065   2.899   9.677
36187SOL    HW110458  14.870   2.943   9.725
36187SOL    HW210459   0.107   2.968   9.626
36188SOL     OW10460   0.352   6.860   9.728
36188SOL    HW110461   0.292   6.882   9.800
36188SOL    HW210462   0.390   6.776   9.753
36189SOL     OW10463   1.843  11.847   6.333
36189SOL    HW110464   1.935  11.824   6.331
36189SOL    HW210465   1.833  11.903   6.410
36190SOL     OW10466   6.931   0.684   7.144
36190SOL    HW110467   6.926   0.710   7.052
36190SOL    HW210468   6.865   0.614   7.152
36191SOL     OW10469   6.438  12.393  10.135
36191SOL    HW110470   6.470  12.478  10.165
36191SOL    HW210471   6.457  12.333  10.207
36192SOL     OW10472  14.861  13.479   0.662
36192SOL    HW110473  14.837  13.437   0.744
36192SOL    HW210474  14.837  13.570   0.673
36193SOL     OW10475   4.700  14.859   3.669
36193SOL    HW110476   4.694   0.059   3.610
36193SOL    HW210477   4.718   0.022   3.755
36194SOL     OW10478   0.376   3.061   8.119
36194SOL    HW110479   0.468   3.045   8.097
36194SOL    HW210480   0.379   3.119   8.195
36195SOL     OW10481   7.659   3.723   6.208
36195SOL    HW110482   7.660   3.649   6.269
36195SOL    HW210483   7.751   3.737   6.186
36196SOL     OW10484   1.790   2.938   5.928
36196SOL    HW110485   1.774   3.000   5.999
36196SOL    HW210486   1.805   2.854   5.971
36197SOL     OW10487  11.238   2.947   1.091
36197SOL    HW110488  11.204   2.870   1.045
36197SOL    HW210489  11.161   3.002   1.105
36198SOL     OW10490   5.421   4.807   0.688
36198SOL    HW110491   5.438   4.887   0.636
36198SOL    HW210492   5.475   4.817   0.765
36199SOL     OW10493   2.502  13.566  10.910
36199SOL    HW110494   2.482  13.643  10.857
36199SOL    HW210495   2.597  13.556  10.902
36200SOL     OW10496   5.630   6.668   4.824
36200SOL    HW110497   5.719   6.690   4.851
36200SOL    HW210498   5.598   6.609   4.892
36201SOL     OW10499   9.199   0.213   9.103
36201SOL    HW110500   9.267   0.272   9.137
36201SOL    HW210501   9.215   0.209   9.009
36202SOL     OW10502  10.639   2.747   5.244
36202SOL    HW110503  10.639   2.652   5.249
36202SOL    HW210504  10.548   2.772   5.260
36203SOL     OW10505  13.572   6.629  10.211
36203SOL    HW110506  13.478   6.617  10.200
36203SOL    HW210507  13.583   6.651  10.304
36204SOL     OW10508   3.469   3.359   3.867
36204SOL    HW110509   3.510   3.347   3.782
36204SOL    HW210510   3.379   3.386   3.848
36205SOL     OW10511   7.164   9.714   8.027
36205SOL    HW110512   7.173   9.765   8.108
36205SOL    HW210513   7.249   9.671   8.016
36206SOL     OW10514   5.748  10.375   1.061
36206SOL    HW110515   5.775  10.459   1.099
36206SOL    HW210516   5.736  10.395   0.968
36207SOL     OW10517   3.943   7.638   2.511
36207SOL    HW110518   3.871   7.687   2.551
36207SOL    HW210519   4.001   7.617   2.584
36208SOL     OW10520   8.696  12.508  13.712
36208SOL    HW110521   8.705  12.520  13.807
36208SOL    HW210522   8.631  12.439  13.703
36209SOL     OW10523  10.627  14.348  13.827
36209SOL    HW110524  10.563  14.381  13.890
36209SOL    HW210525  10.711  14.355  13.872
36210SOL     OW10526   2.007  10.652  11.166
36210SOL    HW110527   1.964  10.733  11.192
36210SOL    HW210528   2.019  10.603  11.247
36211SOL     OW10529   1.225   9.171   3.898
36211SOL    HW110530   1.225   9.254   3.946
36211SOL    HW210531   1.314   9.163   3.863
36212SOL     OW10532   9.485   4.702   4.231
36212SOL    HW110533   9.397   4.693   4.268
36212SOL    HW210534   9.499   4.797   4.226
36213SOL     OW10535  14.380   0.270  14.246
36213SOL    HW110536  14.359   0.271  14.339
36213SOL    HW210537  14.448   0.203  14.237
36214SOL     OW10538  14.295   9.853   5.019
36214SOL    HW110539  14.256   9.783   5.072
36214SOL    HW210540  14.221   9.894   4.975
36215SOL     OW10541   7.844  14.168   9.962
36215SOL    HW110542   7.833  14.168   9.867
36215SOL    HW210543   7.755  14.167   9.997
36216SOL     OW10544   2.135   7.339  12.472
36216SOL    HW110545   2.126   7.334  12.567
36216SOL    HW210546   2.137   7.433  12.453
36217SOL     OW10547   9.424   5.012   3.120
36217SOL    HW110548   9.447   5.003   3.212
36217SOL    HW210549   9.334   5.045   3.120
36218SOL     OW10550  13.646  13.214   5.266
36218SOL    HW110551  13.651  13.255   5.352
36218SOL    HW210552  13.664  13.286   5.205
36219SOL     OW10553   9.834  11.923  12.670
36219SOL    HW110554   9.750  11.968  12.665
36219SOL    HW210555   9.891  11.983  12.719
36220SOL     OW10556   7.761   0.746   2.432
36220SOL    HW110557   7.744   0.783   2.345
36220SOL    HW210558   7.747   0.652   2.421
36221SOL     OW10559  12.846   4.133  12.105
36221SOL    HW110560  12.762   4.102  12.141
36221SOL    HW210561  12.831   4.227  12.089
36222SOL     OW10562   3.382   6.923   8.684
36222SOL    HW110563   3.373   6.920   8.589
36222SOL    HW210564   3.299   6.889   8.718
36223SOL     OW10565   0.563   5.359  10.549
36223SOL    HW110566   0.632   5.411  10.590
36223SOL    HW210567   0.587   5.268  10.569
36224SOL     OW10568   0.935   6.732  13.078
36224SOL    HW110569   0.997   6.689  13.019
36224SOL    HW210570   0.951   6.691  13.163
36225SOL     OW10571   8.321   3.796   5.526
36225SOL    HW110572   8.347   3.729   5.589
36225SOL    HW210573   8.228   3.781   5.511
36226SOL     OW10574   5.798   7.475   4.264
36226SOL    HW110575   5.854   7.550   4.249
36226SOL    HW210576   5.796   7.429   4.180
36227SOL     OW10577   4.075   9.541   7.502
36227SOL    HW110578   4.123   9.461   7.484
36227SOL    HW210579   4.049   9.533   7.594
36228SOL     OW10580  13.283   7.091   9.631
36228SOL    HW110581  13.282   7.181   9.662
36228SOL    HW210582  13.266   7.098   9.537
36229SOL     OW10583   7.313   7.109  12.131
36229SOL    HW110584   7.346   7.113  12.220
36229SOL    HW210585   7.388   7.131  12.076
36230SOL     OW10586   1.163  11.598   2.553
36230SOL    HW110587   1.150  11.503   2.559
36230SOL    HW210588   1.076  11.634   2.540
36231SOL     OW10589  11.825   2.848   7.757
36231SOL    HW110590  11.794   2.908   7.825
36231SOL    HW210591  11.828   2.763   7.801
36232SOL     OW10592   6.048   0.025   2.358
36232SOL    HW110593   6.103   0.068   2.292
36232SOL    HW210594   5.958   0.043   2.331
36233SOL     OW10595   1.934   0.096  13.425
36233SOL    HW110596   1.978   0.180  13.413
36233SOL    HW210597   1.899   0.099  13.514
36234SOL     OW10598  11.056  14.230  13.024
36234SOL    HW110599  11.140  14.222  13.069
36234SOL    HW210600  11.035  14.324  13.027
36235SOL     OW10601  13.557   8.483   2.814
36235SOL    HW110602  13.501   8.466   2.739
36235SOL    HW210603  13.514   8.439   2.887
36236SOL     OW10604   4.481   7.089   3.144
36236SOL    HW110605   4.399   7.058   3.185
36236SOL    HW210606   4.475   7.184   3.148
36237SOL     OW10607  10.402  10.503   8.849
36237SOL    HW110608  10.379  10.546   8.931
36237SOL    HW210609  10.476  10.554   8.815
36238SOL     OW10610   7.078   8.396   0.592
36238SOL    HW110611   7.079   8.467   0.527
36238SOL    HW210612   6.985   8.382   0.610
36239SOL     OW10613   4.510  11.176   9.026
36239SOL    HW110614   4.492  11.122   8.949
36239SOL    HW210615   4.481  11.122   9.100
36240SOL     OW10616   4.820   6.450   0.559
36240SOL    HW110617   4.890   6.491   0.611
36240SOL    HW210618   4.763   6.522   0.533
36241SOL     OW10619   2.411   8.068   8.576
36241SOL    HW110620   2.475   8.136   8.598
36241SOL    HW210621   2.347   8.072   8.646
36242SOL     OW10622   1.767  13.072   8.227
36242SOL    HW110623   1.839  13.015   8.253
36242SOL    HW210624   1.742  13.041   8.140
36243SOL     OW10625   5.139  10.068   2.355
36243SOL    HW110626   5.097  10.152   2.334
36243SOL    HW210627   5.152  10.071   2.450
36244SOL     OW10628  12.529   7.043  11.235
36244SOL    HW110629  12.581   7.123  11.227
36244SOL    HW210630  12.592   6.976  11.260
36245SOL     OW10631  11.329   3.982   2.363
36245SOL    HW110632  11.292   3.907   2.317
36245SOL    HW210633  11.297   4.058   2.315
36246SOL     OW10634   7.660  12.698  12.244
36246SOL    HW110635   7.702  12.612  12.249
36246SOL    HW210636   7.722  12.752  12.193
36247SOL     OW10637  11.156   1.800   1.697
36247SOL    HW110638  11.126   1.742   1.627
36247SOL    HW210639  11.132   1.755   1.777
36248SOL     OW10640   9.778   1.064   2.866
36248SOL    HW110641   9.706   1.064   2.928
36248SOL    HW210642   9.850   1.109   2.912
36249SOL     OW10643   2.280   6.996   8.348
36249SOL    HW110644   2.260   6.903   8.357
36249SOL    HW210645   2.235   7.023   8.267
36250SOL     OW10646   0.643  14.840   5.204
36250SOL    HW110647   0.667  14.796   5.285
36250SOL    HW210648   0.694  14.795   5.136
36251SOL     OW10649   3.709   5.402   6.400
36251SOL    HW110650   3.644   5.389   6.330
36251SOL    HW210651   3.713   5.497   6.411
36252SOL     OW10652   3.219  11.211   1.317
36252SOL    HW110653   3.310  11.185   1.327
36252SOL    HW210654   3.198  11.191   1.226
36253SOL     OW10655   8.336  13.017  14.215
36253SOL    HW110656   8.338  13.068  14.296
36253SOL    HW210657   8.243  13.001  14.199
36254SOL     OW10658   1.013   2.296   7.081
36254SOL    HW110659   1.100   2.256   7.072
36254SOL    HW210660   1.012   2.332   7.169
36255SOL     OW10661   5.172   0.050  12.794
36255SOL    HW110662   5.244   0.102  12.758
36255SOL    HW210663   5.176   0.066  12.888
36256SOL     OW10664   2.081  12.585  12.171
36256SOL    HW110665   2.120  12.504  12.204
36256SOL    HW210666   2.081  12.644  12.246
36257SOL     OW10667  14.400   3.356  13.147
36257SOL    HW110668  14.366   3.422  13.087
36257SOL    HW210669  14.442   3.406  13.217
36258SOL     OW10670   7.066   4.968   2.151
36258SOL    HW110671   7.035   5.058   2.158
36258SOL    HW210672   7.016   4.920   2.217
36259SOL     OW10673   5.598   7.028  12.665
36259SOL    HW110674   5.642   6.966  12.607
36259SOL    HW210675   5.593   7.109  12.615
36260SOL     OW10676   9.647   4.120  11.109
36260SOL    HW110677   9.552   4.126  11.100
36260SOL    HW210678   9.674   4.206  11.141
36261SOL     OW10679   0.997  13.223   3.787
36261SOL    HW110680   0.990  13.277   3.707
36261SOL    HW210681   0.907  13.213   3.817
36262SOL     OW10682  10.220   8.578  14.726
36262SOL    HW110683  10.309   8.585  14.691
36262SOL    HW210684  10.189   8.492  14.698
36263SOL     OW10685   3.715   9.716   4.412
36263SOL    HW110686   3.630   9.752   4.385
36263SOL    HW210687   3.727   9.638   4.357
36264SOL     OW10688  11.366   5.276   1.475
36264SOL    HW110689  11.289   5.292   1.420
36264SOL    HW210690  11.435   5.251   1.414
36265SOL     OW10691   9.536  12.177  10.572
36265SOL    HW110692   9.523  12.149  10.481
36265SOL    HW210693   9.462  12.235  10.591
36266SOL     OW10694   6.299   3.137   6.106
36266SOL    HW110695   6.273   3.048   6.131
36266SOL    HW210696   6.257   3.193   6.171
36267SOL     OW10697   1.042  10.206   7.486
36267SOL    HW110698   1.020  10.291   7.449
36267SOL    HW210699   0.981  10.196   7.560
36268SOL     OW10700  12.037   1.290   9.721
36268SOL    HW110701  12.100   1.359   9.739
36268SOL    HW210702  12.085   1.227   9.667
36269SOL     OW10703   0.932   2.129   9.188
36269SOL    HW110704   0.878   2.101   9.114
36269SOL    HW210705   0.878   2.113   9.265
36270SOL     OW10706  10.246   4.455   5.687
36270SOL    HW110707  10.292   4.422   5.764
36270SOL    HW210708  10.156   4.425   5.698
36271SOL     OW10709   0.030  12.756   0.138
36271SOL    HW110710   0.080  12.787   0.063
36271SOL    HW210711   0.096  12.715   0.195
36272SOL     OW10712   9.250   7.893   7.698
36272SOL    HW110713   9.250   7.907   7.603
36272SOL    HW210714   9.166   7.851   7.716
36273SOL     OW10715  14.204  10.990   2.985
36273SOL    HW110716  14.239  11.036   2.909
36273SOL    HW210717  14.126  11.041   3.010
36274SOL     OW10718   3.649   3.800   0.827
36274SOL    HW110719   3.698   3.734   0.776
36274SOL    HW210720   3.682   3.789   0.917
36275SOL     OW10721  11.646   1.903  12.611
36275SOL    HW110722  11.597   1.824  12.586
36275SOL    HW210723  11.665   1.891  12.704
36276SOL     OW10724   5.797  13.070  10.196
36276SOL    HW110725   5.843  13.006  10.251
36276SOL    HW210726   5.767  13.136  10.258
36277SOL     OW10727   0.170   5.237  10.026
36277SOL    HW110728   0.128   5.278   9.950
36277SOL    HW210729   0.167   5.143  10.007
36278SOL     OW10730  11.690   1.603  12.789
36278SOL    HW110731  11.598   1.585  12.807
36278SOL    HW210732  11.704   1.692  12.821
36279SOL     OW10733  13.999   7.148   5.943
36279SOL    HW110734  13.925   7.151   6.004
36279SOL    HW210735  14.071   7.189   5.991
36280SOL     OW10736   3.219  14.462  13.767
36280SOL    HW110737   3.196  14.371  13.749
36280SOL    HW210738   3.313  14.459  13.788
36281SOL     OW10739   4.688   7.794  12.828
36281SOL    HW110740   4.706   7.773  12.736
36281SOL    HW210741   4.623   7.864  12.824
36282SOL     OW10742   8.618   9.972   1.768
36282SOL    HW110743   8.524   9.953   1.775
36282SOL    HW210744   8.661   9.895   1.804
36283SOL     OW10745   8.790   7.635   4.277
36283SOL    HW110746   8.782   7.682   4.360
36283SOL    HW210747   8.700   7.628   4.245
36284SOL     OW10748  14.296  11.916   6.433
36284SOL    HW110749  14.355  11.881   6.499
36284SOL    HW210750  14.345  11.911   6.351
36285SOL     OW10751  11.743   4.221   3.087
36285SOL    HW110752  11.751   4.247   2.995
36285SOL    HW210753  11.829   4.186   3.110
36286SOL     OW10754   9.863   5.833   6.862
36286SOL    HW110755   9.786   5.791   6.900
36286SOL    HW210756   9.874   5.789   6.777
36287SOL     OW10757   7.352   4.241   5.653
36287SOL    HW110758   7.284   4.231   5.720
36287SOL    HW210759   7.303   4.263   5.573
36288SOL     OW10760   1.340   6.408   6.193
36288SOL    HW110761   1.313   6.350   6.265
36288SOL    HW210762   1.259   6.425   6.144
36289SOL     OW10763  13.751   2.163   5.410
36289SOL    HW110764  13.835   2.208   5.416
36289SOL    HW210765  13.694   2.224   5.363
36290SOL     OW10766   9.549   0.977  13.043
36290SOL    HW110767   9.528   0.886  13.022
36290SOL    HW210768   9.498   0.996  13.122
36291SOL     OW10769   3.066   6.032   8.912
36291SOL    HW110770   2.997   6.040   8.846
36291SOL    HW210771   3.021   6.011   8.993
36292SOL     OW10772   5.619   0.656   7.605
36292SOL    HW110773   5.566   0.594   7.555
36292SOL    HW210774   5.592   0.742   7.574
36293SOL     OW10775  13.216  12.537   2.234
36293SOL    HW110776  13.195  12.584   2.153
36293SOL    HW210777  13.140  12.551   2.290
36294SOL     OW10778   8.270   2.534   0.968
36294SOL    HW110779   8.189   2.584   0.979
36294SOL    HW210780   8.305   2.524   1.056
36295SOL     OW10781  11.451   2.975   1.678
36295SOL    HW110782  11.392   2.970   1.753
36295SOL    HW210783  11.395   2.954   1.603
36296SOL     OW10784   4.604  14.469   9.099
36296SOL    HW110785   4.626  14.459   9.192
36296SOL    HW210786   4.576  14.381   9.072
36297SOL     OW10787   7.301   5.450   6.036
36297SOL    HW110788   7.389   5.432   6.068
36297SOL    HW210789   7.315   5.507   5.960
36298SOL     OW10790   2.924   3.864   7.589
36298SOL    HW110791   2.913   3.959   7.581
36298SOL    HW210792   2.970   3.852   7.672
36299SOL     OW10793   9.460   6.724   9.681
36299SOL    HW110794   9.434   6.724   9.589
36299SOL    HW210795   9.384   6.692   9.729
36300SOL     OW10796  11.000   2.312   3.319
36300SOL    HW110797  11.065   2.377   3.292
36300SOL    HW210798  11.049   2.250   3.373
36301SOL     OW10799  12.327   9.760   7.919
36301SOL    HW110800  12.402   9.806   7.880
36301SOL    HW210801  12.335   9.775   8.013
36302SOL     OW10802   0.585   9.012   0.782
36302SOL    HW110803   0.543   8.960   0.713
36302SOL    HW210804   0.546   8.980   0.863
36303SOL     OW10805   6.743   5.162   3.541
36303SOL    HW110806   6.703   5.127   3.621
36303SOL    HW210807   6.800   5.233   3.572
36304SOL     OW10808   8.356   6.570   6.139
36304SOL    HW110809   8.413   6.547   6.065
36304SOL    HW210810   8.415   6.579   6.214
36305SOL     OW10811  14.115  12.872   1.964
36305SOL    HW110812  14.041  12.931   1.974
36305SOL    HW210813  14.170  12.888   2.041
36306SOL     OW10814  14.679   8.989  10.792
36306SOL    HW110815  14.663   9.037  10.873
36306SOL    HW210816  14.612   8.921  10.790
36307SOL     OW10817  14.315   2.346  13.139
36307SOL    HW110818  14.320   2.252  13.155
36307SOL    HW210819  14.386   2.383  13.192
36308SOL     OW10820   4.767   8.183   9.546
36308SOL    HW110821   4.786   8.211   9.636
36308SOL    HW210822   4.691   8.236   9.521
36309SOL     OW10823   1.081   8.643   1.797
36309SOL    HW110824   1.058   8.674   1.710
36309SOL    HW210825   1.177   8.640   1.798
36310SOL     OW10826  10.068   0.474   3.756
36310SOL    HW110827  10.092   0.396   3.806
36310SOL    HW210828   9.977   0.491   3.781
36311SOL     OW10829   4.647   7.322   4.335
36311SOL    HW110830   4.700   7.294   4.260
36311SOL    HW210831   4.581   7.253   4.345
36312SOL     OW10832  14.282   2.593  10.083
36312SOL    HW110833  14.338   2.555  10.151
36312SOL    HW210834  14.210   2.634  10.132
36313SOL     OW10835   0.496  12.495   7.951
36313SOL    HW110836   0.537  12.514   8.036
36313SOL    HW210837   0.408  12.533   7.958
36314SOL     OW10838   6.619   5.835   5.257
36314SOL    HW110839   6.630   5.752   5.210
36314SOL    HW210840   6.560   5.814   5.329
36315SOL     OW10841   9.305  12.078  13.310
36315SOL    HW110842   9.262  12.148  13.360
36315SOL    HW210843   9.353  12.123  13.242
36316SOL     OW10844   9.046   2.491  10.575
36316SOL    HW110845   9.013   2.527  10.656
36316SOL    HW210846   8.974   2.501  10.512
36317SOL     OW10847   3.672  11.921  13.704
36317SOL    HW110848   3.650  11.889  13.792
36317SOL    HW210849   3.604  11.887  13.647
36318SOL     OW10850   4.140   6.364   9.786
36318SOL    HW110851   4.060   6.401   9.748
36318SOL    HW210852   4.108   6.308   9.858
36319SOL     OW10853   8.783   7.859   7.046
36319SOL    HW110854   8.743   7.888   7.128
36319SOL    HW210855   8.805   7.767   7.062
36320SOL     OW10856   4.515   8.027   7.712
36320SOL    HW110857   4.476   7.941   7.722
36320SOL    HW210858   4.544   8.029   7.621
36321SOL     OW10859  14.274   2.883  13.367
36321SOL    HW110860  14.266   2.857  13.275
36321SOL    HW210861  14.187   2.918  13.389
36322SOL     OW10862   5.861   7.833  14.105
36322SOL    HW110863   5.910   7.801  14.029
36322SOL    HW210864   5.871   7.928  14.102
36323SOL     OW10865   9.636  10.013   0.878
36323SOL    HW110866   9.558  10.055   0.914
36323SOL    HW210867   9.654  10.062   0.797
36324SOL     OW10868  14.443   5.371   4.767
36324SOL    HW110869  14.498   5.439   4.727
36324SOL    HW210870  14.442   5.393   4.860
36325SOL     OW10871   2.004   8.186   3.171
36325SOL    HW110872   1.998   8.095   3.143
36325SOL    HW210873   1.957   8.189   3.254
36326SOL     OW10874  13.306   2.379   0.652
36326SOL    HW110875  13.215   2.407   0.667
36326SOL    HW210876  13.326   2.408   0.564
36327SOL     OW10877   3.229   1.863  12.561
36327SOL    HW110878   3.325   1.855  12.558
36327SOL    HW210879   3.210   1.941  12.508
36328SOL     OW10880   2.327   7.046   7.485
36328SOL    HW110881   2.367   6.977   7.537
36328SOL    HW210882   2.361   7.034   7.397
36329SOL     OW10883   1.129  11.014  14.583
36329SOL    HW110884   1.189  10.979  14.650
36329SOL    HW210885   1.162  10.977  14.501
36330SOL     OW10886   8.636  13.007   3.246
36330SOL    HW110887   8.672  12.960   3.321
36330SOL    HW210888   8.543  13.018   3.266
36331SOL     OW10889   2.704   9.735  10.697
36331SOL    HW110890   2.647   9.812  10.701
36331SOL    HW210891   2.681   9.683  10.774
36332SOL     OW10892  12.027  12.629   6.909
36332SOL    HW110893  12.028  12.534   6.911
36332SOL    HW210894  11.994  12.651   6.822
36333SOL     OW10895   2.988   6.527  12.609
36333SOL    HW110896   2.936   6.584  12.664
36333SOL    HW210897   3.014   6.581  12.535
36334SOL     OW10898   8.607   0.637   6.645
36334SOL    HW110899   8.579   0.724   6.615
36334SOL    HW210900   8.619   0.648   6.739
36335SOL     OW10901   4.516   0.122  13.313
36335SOL    HW110902   4.485   0.204  13.275
36335SOL    HW210903   4.544   0.144  13.401
36336SOL     OW10904   5.976   1.467   3.497
36336SOL    HW110905   5.892   1.511   3.512
36336SOL    HW210906   6.039   1.521   3.545
36337SOL     OW10907   6.799   6.255  14.181
36337SOL    HW110908   6.808   6.189  14.250
36337SOL    HW210909   6.704   6.263  14.169
36338SOL     OW10910   9.020   3.508   4.633
36338SOL    HW110911   9.099   3.455   4.645
36338SOL    HW210912   9.008   3.510   4.538
36339SOL     OW10913   4.447   9.777   3.143
36339SOL    HW110914   4.396   9.807   3.218
36339SOL    HW210915   4.437   9.682   3.144
36340SOL     OW10916   8.786   7.869   9.633
36340SOL    HW110917   8.840   7.943   9.604
36340SOL    HW210918   8.847   7.813   9.682
36341SOL     OW10919   0.547   7.371   8.101
36341SOL    HW110920   0.529   7.445   8.159
36341SOL    HW210921   0.500   7.298   8.141
36342SOL     OW10922   8.016   1.622   0.647
36342SOL    HW110923   7.945   1.656   0.702
36342SOL    HW210924   8.079   1.586   0.709
36343SOL     OW10925  14.715  11.311   3.814
36343SOL    HW110926  14.784  11.377   3.807
36343SOL    HW210927  14.753  11.244   3.870
36344SOL     OW10928   0.069   3.168  11.600
36344SOL    HW110929   0.038   3.194  11.513
36344SOL    HW210930   0.056   3.073  11.602
36345SOL     OW10931   2.413   1.420   5.422
36345SOL    HW110932   2.394   1.357   5.352
36345SOL    HW210933   2.470   1.371   5.482
36346SOL     OW10934   4.693   5.429   4.436
36346SOL    HW110935   4.605   5.408   4.406
36346SOL    HW210936   4.687   5.520   4.466
36347SOL     OW10937   1.822   9.556  14.238
36347SOL    HW110938   1.851   9.561  14.147
36347SOL    HW210939   1.734   9.517  14.233
36348SOL     OW10940   6.268   7.594   0.107
36348SOL    HW110941   6.205   7.552   0.166
36348SOL    HW210942   6.239   7.569   0.020
36349SOL     OW10943  11.007   8.843   3.717
36349SOL    HW110944  10.980   8.841   3.808
36349SOL    HW210945  10.927   8.824   3.668
36350SOL     OW10946   9.823   5.386  11.464
36350SOL    HW110947   9.873   5.462  11.435
36350SOL    HW210948   9.799   5.341  11.383
36351SOL     OW10949  11.837  13.374   8.994
36351SOL    HW110950  11.742  13.360   8.993
36351SOL    HW210951  11.850  13.454   8.945
36352SOL     OW10952   6.776  12.283  11.700
36352SOL    HW110953   6.794  12.248  11.787
36352SOL    HW210954   6.806  12.374  11.704
36353SOL     OW10955   4.961  11.843  13.563
36353SOL    HW110956   4.897  11.786  13.604
36353SOL    HW210957   5.041  11.790  13.557
36354SOL     OW10958   2.230   7.706   4.011
36354SOL    HW110959   2.275   7.782   4.048
36354SOL    HW210960   2.295   7.635   4.014
36355SOL     OW10961  10.982  10.915   6.455
36355SOL    HW110962  10.972  10.951   6.543
36355SOL    HW210963  10.987  10.821   6.468
36356SOL     OW10964  11.361   9.484   5.876
36356SOL    HW110965  11.321   9.436   5.803
36356SOL    HW210966  11.431   9.534   5.836
36357SOL     OW10967  11.121  12.436  10.498
36357SOL    HW110968  11.186  12.413  10.564
36357SOL    HW210969  11.120  12.362  10.438
36358SOL     OW10970  14.769   9.353   6.191
36358SOL    HW110971  14.758   9.394   6.277
36358SOL    HW210972  14.798   9.424   6.134
36359SOL     OW10973  14.799   2.814   2.483
36359SOL    HW110974  14.850   2.863   2.417
36359SOL    HW210975  14.862   2.798   2.554
36360SOL     OW10976   2.602   5.825  14.345
36360SOL    HW110977   2.689   5.788  14.357
36360SOL    HW210978   2.580   5.808  14.254
36361SOL     OW10979  12.008   0.222   1.060
36361SOL    HW110980  11.939   0.283   1.034
36361SOL    HW210981  11.971   0.135   1.044
36362SOL     OW10982  14.107  10.544   0.857
36362SOL    HW110983  14.077  10.505   0.776
36362SOL    HW210984  14.033  10.596   0.889
36363SOL     OW10985  12.422   1.858   0.266
36363SOL    HW110986  12.397   1.845   0.357
36363SOL    HW210987  12.369   1.795   0.217
36364SOL     OW10988   4.645   7.305  10.036
36364SOL    HW110989   4.604   7.386  10.007
36364SOL    HW210990   4.715   7.290   9.972
36365SOL     OW10991   8.136   0.919   6.703
36365SOL    HW110992   8.132   1.014   6.713
36365SOL    HW210993   8.174   0.887   6.785
36366SOL     OW10994   2.463   0.911   3.688
36366SOL    HW110995   2.486   0.910   3.595
36366SOL    HW210996   2.476   0.821   3.717
36367SOL     OW10997   2.798   9.972   2.709
36367SOL    HW110998   2.755  10.022   2.779
36367SOL    HW210999   2.745   9.990   2.631
36368SOL     OW11000   1.465  12.993  11.443
36368SOL    HW111001   1.371  13.006  11.433
36368SOL    HW211002   1.477  12.973  11.535
36369SOL     OW11003   1.952   9.965   3.231
36369SOL    HW111004   1.882   9.900   3.226
36369SOL    HW211005   1.965   9.979   3.325
36370SOL     OW11006   0.708   0.355   0.348
36370SOL    HW111007   0.742   0.327   0.263
36370SOL    HW211008   0.751   0.439   0.365
36371SOL     OW11009   9.991   0.288   3.062
36371SOL    HW111010   9.897   0.287   3.076
36371SOL    HW211011  10.006   0.364   3.004
36372SOL     OW11012  11.074  10.459   7.050
36372SOL    HW111013  11.096  10.552   7.051
36372SOL    HW211014  11.134  10.422   6.985
36373SOL     OW11015   0.075  13.036  10.458
36373SOL    HW111016   0.158  13.008  10.497
36373SOL    HW211017   0.099  13.108  10.399
36374SOL     OW11018   4.096   6.607  10.067
36374SOL    HW111019   4.179   6.601  10.021
36374SOL    HW211020   4.108   6.555  10.146
36375SOL     OW11021   2.471  10.124   5.843
36375SOL    HW111022   2.509  10.204   5.879
36375SOL    HW211023   2.441  10.149   5.755
36376SOL     OW11024   8.996   7.561   7.987
36376SOL    HW111025   9.002   7.592   8.077
36376SOL    HW211026   8.914   7.598   7.954
36377SOL     OW11027   3.179   6.636   9.552
36377SOL    HW111028   3.128   6.559   9.575
36377SOL    HW211029   3.169   6.644   9.457
36378SOL     OW11030  12.964   3.695  12.753
36378SOL    HW111031  12.907   3.622  12.728
36378SOL    HW211032  12.925   3.771  12.710
36379SOL     OW11033  12.089   4.364   3.467
36379SOL    HW111034  12.113   4.411   3.546
36379SOL    HW211035  11.994   4.354   3.473
36380SOL     OW11036   4.257  13.144   3.328
36380SOL    HW111037   4.261  13.199   3.250
36380SOL    HW211038   4.330  13.082   3.316
36381SOL     OW11039  11.343   5.418  10.826
36381SOL    HW111040  11.317   5.331  10.798
36381SOL    HW211041  11.435   5.409  10.851
36382SOL     OW11042   9.085  12.855  12.590
36382SOL    HW111043   9.072  12.796  12.516
36382SOL    HW211044   9.062  12.941  12.556
36383SOL     OW11045   3.197   0.286  14.122
36383SOL    HW111046   3.224   0.200  14.089
36383SOL    HW211047   3.264   0.346  14.089
36384SOL     OW11048   9.164   7.630   6.104
36384SOL    HW111049   9.177   7.664   6.015
36384SOL    HW211050   9.091   7.569   6.096
36385SOL     OW11051   3.088  14.514   4.500
36385SOL    HW111052   3.076  14.609   4.512
36385SOL    HW211053   3.143  14.507   4.422
36386SOL     OW11054   4.212   9.518   0.200
36386SOL    HW111055   4.216   9.598   0.147
36386SOL    HW211056   4.172   9.545   0.282
36387SOL     OW11057   9.039  11.966   0.012
36387SOL    HW111058   9.106  12.009   0.064
36387SOL    HW211059   9.032  11.878   0.049
36388SOL     OW11060   9.597  13.644  11.443
36388SOL    HW111061   9.530  13.690  11.495
36388SOL    HW211062   9.547  13.586  11.386
36389SOL     OW11063  14.098   0.776   8.421
36389SOL    HW111064  14.084   0.691   8.378
36389SOL    HW211065  14.105   0.838   8.349
36390SOL     OW11066   5.103  13.361   5.022
36390SOL    HW111067   5.171  13.303   4.986
36390SOL    HW211068   5.148  13.410   5.090
36391SOL     OW11069   2.204   8.727  13.860
36391SOL    HW111070   2.218   8.814  13.824
36391SOL    HW211071   2.251   8.668  13.801
36392SOL     OW11072  12.139   3.162  11.797
36392SOL    HW111073  12.210   3.101  11.814
36392SOL    HW211074  12.126   3.158  11.702
36393SOL     OW11075   1.948   8.430   6.578
36393SOL    HW111076   1.894   8.508   6.565
36393SOL    HW211077   2.031   8.451   6.535
36394SOL     OW11078   5.252   9.750   2.151
36394SOL    HW111079   5.223   9.692   2.081
36394SOL    HW211080   5.182   9.814   2.159
36395SOL     OW11081   6.119   3.240  11.236
36395SOL    HW111082   6.203   3.237  11.281
36395SOL    HW211083   6.087   3.149  11.239
36396SOL     OW11084   9.091  10.249   7.590
36396SOL    HW111085   9.151  10.323   7.579
36396SOL    HW211086   9.095  10.227   7.683
36397SOL     OW11087   4.939   5.819  13.005
36397SOL    HW111088   5.030   5.830  12.976
36397SOL    HW211089   4.944   5.762  13.081
36398SOL     OW11090  14.331   4.074   3.691
36398SOL    HW111091  14.263   4.049   3.754
36398SOL    HW211092  14.283   4.105   3.615
36399SOL     OW11093   3.301   1.337   1.033
36399SOL    HW111094   3.229   1.362   0.974
36399SOL    HW211095   3.370   1.307   0.974
36400SOL     OW11096   3.962   2.426  14.002
36400SOL    HW111097   3.875   2.392  13.983
36400SOL    HW211098   3.950   2.521  14.010
36401SOL     OW11099   3.919  13.286  11.361
36401SOL    HW111100   3.830  13.301  11.393
36401SOL    HW211101   3.964  13.369  11.376
36402SOL     OW11102   2.365   5.148   7.128
36402SOL    HW111103   2.383   5.160   7.034
36402SOL    HW211104   2.272   5.127   7.132
36403SOL     OW11105  14.469  13.992   3.579
36403SOL    HW111106  14.419  13.911   3.567
36403SOL    HW211107  14.411  14.049   3.630
36404SOL     OW11108  13.411   1.172  12.977
36404SOL    HW111109  13.490   1.203  13.021
36404SOL    HW211110  13.443   1.120  12.903
36405SOL     OW11111   9.224   1.905   7.200
36405SOL    HW111112   9.261   1.930   7.115
36405SOL    HW211113   9.298   1.868   7.248
36406SOL     OW11114   2.107  13.633   9.426
36406SOL    HW111115   2.183  13.668   9.473
36406SOL    HW211116   2.084  13.701   9.363
36407SOL     OW11117   1.090  10.833   6.211
36407SOL    HW111118   1.096  10.745   6.249
36407SOL    HW211119   1.169  10.841   6.158
36408SOL     OW11120   4.581   8.982   9.785
36408SOL    HW111121   4.601   8.937   9.703
36408SOL    HW211122   4.487   8.970   9.796
36409SOL     OW11123   3.594   9.215   1.440
36409SOL    HW111124   3.550   9.255   1.515
36409SOL    HW211125   3.639   9.287   1.397
36410SOL     OW11126   8.745   0.899  12.731
36410SOL    HW111127   8.707   0.943  12.655
36410SOL    HW211128   8.805   0.834  12.694
36411SOL     OW11129  14.703  11.483  14.835
36411SOL    HW111130  14.730  11.517   0.046
36411SOL    HW211131  14.756  11.405  14.823
36412SOL     OW11132  14.786  13.448   7.394
36412SOL    HW111133  14.693  13.433   7.377
36412SOL    HW211134  14.831  13.382   7.341
36413SOL     OW11135  14.266   1.026  13.595
36413SOL    HW111136  14.256   1.116  13.565
36413SOL    HW211137  14.262   1.031  13.690
36414SOL     OW11138   5.678   8.415  12.200
36414SOL    HW111139   5.751   8.387  12.255
36414SOL    HW211140   5.601   8.409  12.257
36415SOL     OW11141  10.931   3.801   9.074
36415SOL    HW111142  11.004   3.781   9.016
36415SOL    HW211143  10.896   3.883   9.041
36416SOL     OW11144   6.459  14.445   7.512
36416SOL    HW111145   6.456  14.378   7.580
36416SOL    HW211146   6.531  14.502   7.537
36417SOL     OW11147   1.614  10.987   6.831
36417SOL    HW111148   1.600  10.911   6.773
36417SOL    HW211149   1.597  10.954   6.919
36418SOL     OW11150  11.065   9.971   6.347
36418SOL    HW111151  11.069   9.882   6.314
36418SOL    HW211152  11.090  10.026   6.273
36419SOL     OW11153   4.643   9.311  12.963
36419SOL    HW111154   4.727   9.356  12.956
36419SOL    HW211155   4.600   9.352  13.038
36420SOL     OW11156  12.592   1.202  12.278
36420SOL    HW111157  12.594   1.292  12.311
36420SOL    HW211158  12.525   1.204  12.209
36421SOL     OW11159  14.433  12.587   0.661
36421SOL    HW111160  14.505  12.527   0.681
36421SOL    HW211161  14.355  12.532   0.662
36422SOL     OW11162  14.204  14.257  13.512
36422SOL    HW111163  14.135  14.263  13.446
36422SOL    HW211164  14.259  14.184  13.484
36423SOL     OW11165   1.035   3.283   4.883
36423SOL    HW111166   1.104   3.216   4.889
36423SOL    HW211167   0.966   3.251   4.941
36424SOL     OW11168   5.636   2.539   7.349
36424SOL    HW111169   5.722   2.544   7.307
36424SOL    HW211170   5.629   2.448   7.378
36425SOL     OW11171  11.408   8.394  12.621
36425SOL    HW111172  11.404   8.335  12.545
36425SOL    HW211173  11.440   8.338  12.692
36426SOL     OW11174  10.215  12.152  10.232
36426SOL    HW111175  10.202  12.179  10.141
36426SOL    HW211176  10.291  12.202  10.261
36427SOL     OW11177   9.706   7.363   4.921
36427SOL    HW111178   9.746   7.364   5.007
36427SOL    HW211179   9.718   7.273   4.890
36428SOL     OW11180   0.260   0.950   6.820
36428SOL    HW111181   0.196   1.011   6.784
36428SOL    HW211182   0.313   0.922   6.746
36429SOL     OW11183   6.821   0.878  13.674
36429SOL    HW111184   6.794   0.956  13.723
36429SOL    HW211185   6.824   0.907  13.583
36430SOL     OW11186  11.950  12.474   7.658
36430SOL    HW111187  11.972  12.441   7.571
36430SOL    HW211188  12.026  12.526   7.683
36431SOL     OW11189  11.582  12.660   7.823
36431SOL    HW111190  11.488  12.673   7.816
36431SOL    HW211191  11.612  12.732   7.879
36432SOL     OW11192   2.811  11.552   7.091
36432SOL    HW111193   2.864  11.559   7.012
36432SOL    HW211194   2.850  11.613   7.153
36433SOL     OW11195   2.149   2.059  10.196
36433SOL    HW111196   2.152   2.056  10.291
36433SOL    HW211197   2.059   2.085  10.175
36434SOL     OW11198   3.968  13.962   4.003
36434SOL    HW111199   3.974  13.889   3.940
36434SOL    HW211200   3.963  13.919   4.088
36435SOL     OW11201   8.087   1.986   7.192
36435SOL    HW111202   8.009   2.029   7.158
36435SOL    HW211203   8.058   1.946   7.274
36436SOL     OW11204   4.382  13.001  12.583
36436SOL    HW111205   4.364  12.955  12.665
36436SOL    HW211206   4.406  12.932  12.522
36437SOL     OW11207  11.583  10.879  11.812
36437SOL    HW111208  11.492  10.883  11.782
36437SOL    HW211209  11.634  10.909  11.736
36438SOL     OW11210   4.045   7.868   7.294
36438SOL    HW111211   4.015   7.930   7.226
36438SOL    HW211212   4.129   7.836   7.262
36439SOL     OW11213   4.040  10.172   8.497
36439SOL    HW111214   4.031  10.241   8.431
36439SOL    HW211215   4.111  10.118   8.465
36440SOL     OW11216  13.603  10.665  10.750
36440SOL    HW111217  13.599  10.581  10.704
36440SOL    HW211218  13.579  10.645  10.840
36441SOL     OW11219  14.284   7.850  12.520
36441SOL    HW111220  14.285   7.924  12.581
36441SOL    HW211221  14.284   7.891  12.433
36442SOL     OW11222  14.070   1.908   5.216
36442SOL    HW111223  14.013   1.886   5.290
36442SOL    HW211224  14.157   1.918   5.254
36443SOL     OW11225   7.871   2.339  11.161
36443SOL    HW111226   7.828   2.316  11.244
36443SOL    HW211227   7.864   2.261  11.107
36444SOL     OW11228  11.157   2.712   3.831
36444SOL    HW111229  11.083   2.721   3.770
36444SOL    HW211230  11.199   2.630   3.805
36445SOL     OW11231  11.253  10.629  11.953
36445SOL    HW111232  11.176  10.623  12.009
36445SOL    HW211233  11.325  10.596  12.007
36446SOL     OW11234   4.504   4.100   8.899
36446SOL    HW111235   4.573   4.162   8.921
36446SOL    HW211236   4.425   4.136   8.940
36447SOL     OW11237   4.478  13.561   5.941
36447SOL    HW111238   4.413  13.601   5.999
36447SOL    HW211239   4.449  13.470   5.932
36448SOL     OW11240   1.445  13.622   3.716
36448SOL    HW111241   1.441  13.709   3.676
36448SOL    HW211242   1.449  13.561   3.642
36449SOL     OW11243  13.080   4.944   1.631
36449SOL    HW111244  13.047   4.877   1.571
36449SOL    HW211245  13.174   4.946   1.614
36450SOL     OW11246   7.814   7.084  12.740
36450SOL    HW111247   7.890   7.028  12.725
36450SOL    HW211248   7.739   7.028  12.722
36451SOL     OW11249   9.789   5.874   5.125
36451SOL    HW111250   9.778   5.779   5.123
36451SOL    HW211251   9.830   5.892   5.210
36452SOL     OW11252   1.430   9.231   8.365
36452SOL    HW111253   1.420   9.205   8.273
36452SOL    HW211254   1.480   9.312   8.361
36453SOL     OW11255   9.446   3.610   8.519
36453SOL    HW111256   9.458   3.537   8.457
36453SOL    HW211257   9.509   3.676   8.489
36454SOL     OW11258   2.164   9.295   5.547
36454SOL    HW111259   2.180   9.260   5.460
36454SOL    HW211260   2.168   9.390   5.536
36455SOL     OW11261  13.838   0.687   7.340
36455SOL    HW111262  13.811   0.615   7.283
36455SOL    HW211263  13.759   0.741   7.349
36456SOL     OW11264   4.162   0.176   5.123
36456SOL    HW111265   4.169   0.160   5.029
36456SOL    HW211266   4.069   0.192   5.138
36457SOL     OW11267   0.389  10.658   9.461
36457SOL    HW111268   0.335  10.737   9.464
36457SOL    HW211269   0.381  10.620   9.548
36458SOL     OW11270   2.031   1.930  12.530
36458SOL    HW111271   2.057   1.896  12.615
36458SOL    HW211272   1.953   1.880  12.507
36459SOL     OW11273   3.088  13.975   2.401
36459SOL    HW111274   3.174  14.003   2.431
36459SOL    HW211275   3.107  13.907   2.336
36460SOL     OW11276  12.806   1.911   5.736
36460SOL    HW111277  12.760   1.840   5.691
36460SOL    HW211278  12.898   1.887   5.731
36461SOL     OW11279  11.133   0.478   0.557
36461SOL    HW111280  11.209   0.462   0.612
36461SOL    HW211281  11.099   0.391   0.536
36462SOL     OW11282   6.007   6.169   4.431
36462SOL    HW111283   6.043   6.256   4.444
36462SOL    HW211284   5.917   6.184   4.402
36463SOL     OW11285   5.634   3.596   8.087
36463SOL    HW111286   5.639   3.665   8.021
36463SOL    HW211287   5.653   3.515   8.039
36464SOL     OW11288   4.446  11.913  12.036
36464SOL    HW111289   4.427  12.000  12.002
36464SOL    HW211290   4.391  11.854  11.984
36465SOL     OW11291   2.019   6.759  10.809
36465SOL    HW111292   2.006   6.850  10.836
36465SOL    HW211293   2.049   6.766  10.718
36466SOL     OW11294  10.791   0.814   8.621
36466SOL    HW111295  10.758   0.761   8.693
36466SOL    HW211296  10.885   0.794   8.618
36467SOL     OW11297   8.521  11.428  10.882
36467SOL    HW111298   8.529  11.334  10.865
36467SOL    HW211299   8.599  11.466  10.843
36468SOL     OW11300   7.508   4.918   3.558
36468SOL    HW111301   7.583   4.956   3.605
36468SOL    HW211302   7.524   4.824   3.560
36469SOL     OW11303   6.684  10.487  13.979
36469SOL    HW111304   6.652  10.532  14.057
36469SOL    HW211305   6.730  10.555  13.929
36470SOL     OW11306   4.057  13.448   3.348
36470SOL    HW111307   4.019  13.402   3.423
36470SOL    HW211308   4.115  13.512   3.387
36471SOL     OW11309   2.932  14.287   4.574
36471SOL    HW111310   2.855  14.317   4.623
36471SOL    HW211311   2.967  14.367   4.535
36472SOL     OW11312   2.802   9.765   2.915
36472SOL    HW111313   2.809   9.836   2.851
36472SOL    HW211314   2.880   9.774   2.969
36473SOL     OW11315   8.593   4.381  10.580
36473SOL    HW111316   8.513   4.426  10.553
36473SOL    HW211317   8.570   4.339  10.663
36474SOL     OW11318  10.375   3.657  13.488
36474SOL    HW111319  10.380   3.752  13.498
36474SOL    HW211320  10.327   3.627  13.565
36475SOL     OW11321   1.477   6.154   0.485
36475SOL    HW111322   1.383   6.146   0.503
36475SOL    HW211323   1.483   6.213   0.410
36476SOL     OW11324   8.191   0.464   3.855
36476SOL    HW111325   8.128   0.505   3.915
36476SOL    HW211326   8.243   0.538   3.823
36477SOL     OW11327   0.131  12.536   3.189
36477SOL    HW111328   0.146  12.468   3.255
36477SOL    HW211329   0.203  12.597   3.201
36478SOL     OW11330   3.426   9.187  14.361
36478SOL    HW111331   3.424   9.178  14.457
36478SOL    HW211332   3.482   9.116  14.332
36479SOL     OW11333  13.229   3.624   8.343
36479SOL    HW111334  13.221   3.528   8.350
36479SOL    HW211335  13.313   3.643   8.385
36480SOL     OW11336   9.892   5.547   7.026
36480SOL    HW111337   9.829   5.530   7.095
36480SOL    HW211338   9.946   5.619   7.059
36481SOL     OW11339  13.314   2.707   0.814
36481SOL    HW111340  13.299   2.623   0.858
36481SOL    HW211341  13.400   2.735   0.846
36482SOL     OW11342   3.068   3.498  12.336
36482SOL    HW111343   3.070   3.573  12.277
36482SOL    HW211344   3.100   3.533  12.420
36483SOL     OW11345   3.335   6.741   0.262
36483SOL    HW111346   3.394   6.687   0.209
36483SOL    HW211347   3.388   6.816   0.289
36484SOL     OW11348   3.423   2.181   5.181
36484SOL    HW111349   3.516   2.180   5.204
36484SOL    HW211350   3.380   2.218   5.257
36485SOL     OW11351  11.182  14.341   3.159
36485SOL    HW111352  11.152  14.280   3.092
36485SOL    HW211353  11.264  14.376   3.126
36486SOL     OW11354   0.225   7.165  13.088
36486SOL    HW111355   0.297   7.196  13.033
36486SOL    HW211356   0.247   7.074  13.107
36487SOL     OW11357   9.394   9.613   2.393
36487SOL    HW111358   9.466   9.661   2.351
36487SOL    HW211359   9.327   9.606   2.326
36488SOL     OW11360   3.008   4.251   3.948
36488SOL    HW111361   2.975   4.340   3.932
36488SOL    HW211362   2.953   4.217   4.018
36489SOL     OW11363   0.233   6.682   1.318
36489SOL    HW111364   0.200   6.625   1.249
36489SOL    HW211365   0.175   6.666   1.392
36490SOL     OW11366  13.559   5.140  13.154
36490SOL    HW111367  13.599   5.068  13.105
36490SOL    HW211368  13.608   5.143  13.236
36491SOL     OW11369   0.386   2.994   8.684
36491SOL    HW111370   0.379   2.932   8.612
36491SOL    HW211371   0.474   2.980   8.720
36492SOL     OW11372   4.138   6.710   2.138
36492SOL    HW111373   4.209   6.769   2.164
36492SOL    HW211374   4.151   6.632   2.190
36493SOL     OW11375   6.070   9.980   6.332
36493SOL    HW111376   6.139   9.914   6.325
36493SOL    HW211377   6.047  10.000   6.241
36494SOL     OW11378   1.702   3.476   6.160
36494SOL    HW111379   1.766   3.430   6.215
36494SOL    HW211380   1.636   3.409   6.139
36495SOL     OW11381   9.253   8.521  10.755
36495SOL    HW111382   9.308   8.444  10.770
36495SOL    HW211383   9.316   8.592  10.741
36496SOL     OW11384   4.465   0.499  10.209
36496SOL    HW111385   4.503   0.555  10.277
36496SOL    HW211386   4.489   0.410  10.236
36497SOL     OW11387   2.954  12.617   5.285
36497SOL    HW111388   3.021  12.684   5.271
36497SOL    HW211389   2.998  12.550   5.338
36498SOL     OW11390  10.796   6.953   0.250
36498SOL    HW111391  10.815   6.992   0.165
36498SOL    HW211392  10.858   6.995   0.310
36499SOL     OW11393  10.867   8.096  13.377
36499SOL    HW111394  10.833   8.160  13.313
36499SOL    HW211395  10.788   8.053  13.411
36500SOL     OW11396   8.676  13.413   5.427
36500SOL    HW111397   8.675  13.508   5.435
36500SOL    HW211398   8.727  13.383   5.502
36501SOL     OW11399   7.042   1.769   1.678
36501SOL    HW111400   6.961   1.718   1.673
36501SOL    HW211401   7.044   1.803   1.768
36502SOL     OW11402   7.602  12.599   4.346
36502SOL    HW111403   7.671  12.632   4.289
36502SOL    HW211404   7.520  12.620   4.300
36503SOL     OW11405  13.842   0.088   1.520
36503SOL    HW111406  13.937   0.078   1.522
36503SOL    HW211407  13.809   0.009   1.565
36504SOL     OW11408   4.601   2.647   1.816
36504SOL    HW111409   4.510   2.677   1.824
36504SOL    HW211410   4.623   2.614   1.903
36505SOL     OW11411  13.998   7.394  12.701
36505SOL    HW111412  13.979   7.399  12.607
36505SOL    HW211413  13.916   7.362  12.740
36506SOL     OW11414   1.196   9.033   9.794
36506SOL    HW111415   1.237   8.971   9.734
36506SOL    HW211416   1.244   9.115   9.780
36507SOL     OW11417   5.380  14.264   0.480
36507SOL    HW111418   5.298  14.215   0.491
36507SOL    HW211419   5.444  14.216   0.533
36508SOL     OW11420   8.188  10.072  13.508
36508SOL    HW111421   8.252  10.015  13.465
36508SOL    HW211422   8.240  10.141  13.548
36509SOL     OW11423   1.426   8.296   9.963
36509SOL    HW111424   1.451   8.271  10.052
36509SOL    HW211425   1.362   8.230   9.937
36510SOL     OW11426  13.600  14.162   6.135
36510SOL    HW111427  13.602  14.256   6.117
36510SOL    HW211428  13.602  14.121   6.048
36511SOL     OW11429   8.930  11.392   4.493
36511SOL    HW111430   9.016  11.397   4.452
36511SOL    HW211431   8.874  11.447   4.438
36512SOL     OW11432  10.130   9.004   6.577
36512SOL    HW111433  10.162   9.030   6.491
36512SOL    HW211434  10.074   9.077   6.605
36513SOL     OW11435   9.751   0.483   9.290
36513SOL    HW111436   9.777   0.511   9.202
36513SOL    HW211437   9.739   0.388   9.282
36514SOL     OW11438   4.781   9.401   3.466
36514SOL    HW111439   4.689   9.405   3.493
36514SOL    HW211440   4.783   9.442   3.380
36515SOL     OW11441  13.562  10.489   2.795
36515SOL    HW111442  13.646  10.482   2.751
36515SOL    HW211443  13.583  10.491   2.888
36516SOL     OW11444   4.644   7.208  11.342
36516SOL    HW111445   4.601   7.203  11.428
36516SOL    HW211446   4.706   7.136  11.342
36517SOL     OW11447  10.388   5.849   5.002
36517SOL    HW111448  10.426   5.835   5.089
36517SOL    HW211449  10.303   5.804   5.007
36518SOL     OW11450  12.285  11.094   5.334
36518SOL    HW111451  12.213  11.035   5.311
36518SOL    HW211452  12.270  11.171   5.280
36519SOL     OW11453   1.255  11.543   9.698
36519SOL    HW111454   1.199  11.506   9.766
36519SOL    HW211455   1.305  11.612   9.742
36520SOL     OW11456   9.478   4.010  10.362
36520SOL    HW111457   9.456   4.036  10.451
36520SOL    HW211458   9.432   4.072  10.306
36521SOL     OW11459   1.587  10.532  14.347
36521SOL    HW111460   1.661  10.587  14.373
36521SOL    HW211461   1.627  10.460  14.299
36522SOL     OW11462  14.321   4.952   2.923
36522SOL    HW111463  14.239   4.979   2.966
36522SOL    HW211464  14.319   4.995   2.838
36523SOL     OW11465   3.570  12.560   4.013
36523SOL    HW111466   3.559  12.628   4.079
36523SOL    HW211467   3.570  12.606   3.930
36524SOL     OW11468   1.816   8.668   6.621
36524SOL    HW111469   1.790   8.662   6.713
36524SOL    HW211470   1.883   8.736   6.619
36525SOL     OW11471  14.870  10.121   5.589
36525SOL    HW111472   0.071  10.064   5.585
36525SOL    HW211473  14.859  10.139   5.683
36526SOL     OW11474  13.161   2.558   1.032
36526SOL    HW111475  13.175   2.610   1.111
36526SOL    HW211476  13.213   2.478   1.048
36527SOL     OW11477   8.942  11.387  10.140
36527SOL    HW111478   8.849  11.370  10.126
36527SOL    HW211479   8.963  11.337  10.219
36528SOL     OW11480   1.374   5.116  13.563
36528SOL    HW111481   1.328   5.200  13.555
36528SOL    HW211482   1.320   5.054  13.515
36529SOL     OW11483   7.920  14.385  11.416
36529SOL    HW111484   7.996  14.369  11.359
36529SOL    HW211485   7.958  14.420  11.496
36530SOL     OW11486   7.505  14.799   6.300
36530SOL    HW111487   7.486  14.706   6.313
36530SOL    HW211488   7.598  14.802   6.278
36531SOL     OW11489   5.731  13.400   2.347
36531SOL    HW111490   5.768  13.343   2.279
36531SOL    HW211491   5.807  13.431   2.396
36532SOL     OW11492   3.048   5.921   1.818
36532SOL    HW111493   3.076   5.938   1.728
36532SOL    HW211494   2.975   5.980   1.832
36533SOL     OW11495  10.961   7.170  10.802
36533SOL    HW111496  11.033   7.124  10.759
36533SOL    HW211497  10.896   7.103  10.819
36534SOL     OW11498  12.380   5.456   4.901
36534SOL    HW111499  12.334   5.423   4.825
36534SOL    HW211500  12.319   5.444   4.974
36535SOL     OW11501   8.037   9.974  11.824
36535SOL    HW111502   7.968   9.983  11.890
36535SOL    HW211503   8.071   9.886  11.836
36536SOL     OW11504   7.355   8.874   4.768
36536SOL    HW111505   7.365   8.950   4.826
36536SOL    HW211506   7.397   8.901   4.686
36537SOL     OW11507   9.665   6.124   5.238
36537SOL    HW111508   9.722   6.056   5.201
36537SOL    HW211509   9.620   6.080   5.310
36538SOL     OW11510   7.496   7.152   7.578
36538SOL    HW111511   7.466   7.236   7.541
36538SOL    HW211512   7.447   7.143   7.659
36539SOL     OW11513  13.270   3.499   9.790
36539SOL    HW111514  13.268   3.476   9.882
36539SOL    HW211515  13.302   3.420   9.746
36540SOL     OW11516   5.358  14.272  10.105
36540SOL    HW111517   5.429  14.245  10.047
36540SOL    HW211518   5.384  14.241  10.191
36541SOL     OW11519   7.190   1.605   9.009
36541SOL    HW111520   7.180   1.522   8.962
36541SOL    HW211521   7.248   1.657   8.953
36542SOL     OW11522   6.041  10.089   8.388
36542SOL    HW111523   6.064  10.020   8.326
36542SOL    HW211524   6.100  10.074   8.462
36543SOL     OW11525   4.216   2.201   1.142
36543SOL    HW111526   4.291   2.148   1.115
36543SOL    HW211527   4.241   2.238   1.226
36544SOL     OW11528  11.826  11.841   2.833
36544SOL    HW111529  11.737  11.861   2.862
36544SOL    HW211530  11.852  11.915   2.778
36545SOL     OW11531   9.432  13.613  13.983
36545SOL    HW111532   9.419  13.681  14.049
36545SOL    HW211533   9.346  13.571  13.975
36546SOL     OW11534  12.614  14.522  10.275
36546SOL    HW111535  12.657  14.519  10.190
36546SOL    HW211536  12.639  14.607  10.311
36547SOL     OW11537  10.838   0.711   1.856
36547SOL    HW111538  10.774   0.731   1.925
36547SOL    HW211539  10.790   0.653   1.796
36548SOL     OW11540   5.483  13.877   3.705
36548SOL    HW111541   5.559  13.930   3.728
36548SOL    HW211542   5.508  13.834   3.622
36549SOL     OW11543   9.951   8.965   5.839
36549SOL    HW111544   9.871   8.991   5.794
36549SOL    HW211545  10.020   8.976   5.773
36550SOL     OW11546   2.376   8.000   2.346
36550SOL    HW111547   2.407   7.949   2.271
36550SOL    HW211548   2.436   7.977   2.417
36551SOL     OW11549   2.656  11.465   1.640
36551SOL    HW111550   2.594  11.445   1.709
36551SOL    HW211551   2.686  11.554   1.659
36552SOL     OW11552   1.204  13.934   3.826
36552SOL    HW111553   1.248  13.974   3.751
36552SOL    HW211554   1.129  13.990   3.843
36553SOL     OW11555   9.576  14.367  12.422
36553SOL    HW111556   9.499  14.368  12.479
36553SOL    HW211557   9.648  14.394  12.479
36554SOL     OW11558   7.272   4.401   9.179
36554SOL    HW111559   7.239   4.432   9.095
36554SOL    HW211560   7.349   4.348   9.157
36555SOL     OW11561  13.374   1.843   1.506
36555SOL    HW111562  13.467   1.847   1.528
36555SOL    HW211563  13.370   1.792   1.425
36556SOL     OW11564   7.089  14.665  12.160
36556SOL    HW111565   7.126  14.577  12.165
36556SOL    HW211566   7.123  14.709  12.238
36557SOL     OW11567  11.109   0.164   4.378
36557SOL    HW111568  11.117   0.069   4.382
36557SOL    HW211569  11.029   0.183   4.428
36558SOL     OW11570   6.035  11.297   8.481
36558SOL    HW111571   6.118  11.288   8.435
36558SOL    HW211572   6.051  11.365   8.547
36559SOL     OW11573  13.623   0.955   3.535
36559SOL    HW111574  13.700   0.998   3.496
36559SOL    HW211575  13.634   0.969   3.629
36560SOL     OW11576   7.212  14.783   0.070
36560SOL    HW111577   7.279  14.741   0.015
36560SOL    HW211578   7.173  14.711   0.120
36561SOL     OW11579   8.339   0.160   5.462
36561SOL    HW111580   8.294   0.078   5.442
36561SOL    HW211581   8.273   0.228   5.450
36562SOL     OW11582  12.441   8.785  10.132
36562SOL    HW111583  12.429   8.879  10.143
36562SOL    HW211584  12.534   8.774  10.112
36563SOL     OW11585  10.760   9.649   6.253
36563SOL    HW111586  10.805   9.584   6.308
36563SOL    HW211587  10.757   9.728   6.308
36564SOL     OW11588  10.956  12.992   6.138
36564SOL    HW111589  10.905  12.966   6.061
36564SOL    HW211590  10.936  12.925   6.203
36565SOL     OW11591  13.580   1.003   4.952
36565SOL    HW111592  13.571   1.051   5.035
36565SOL    HW211593  13.576   0.911   4.977
36566SOL     OW11594   0.441   6.600   5.407
36566SOL    HW111595   0.401   6.520   5.374
36566SOL    HW211596   0.503   6.627   5.339
36567SOL     OW11597  10.933   0.716   9.595
36567SOL    HW111598  10.912   0.796   9.644
36567SOL    HW211599  10.997   0.745   9.530
36568SOL     OW11600   6.546  11.599  10.497
36568SOL    HW111601   6.546  11.641  10.583
36568SOL    HW211602   6.629  11.551  10.494
36569SOL     OW11603   0.282   7.944   6.894
36569SOL    HW111604   0.235   8.010   6.842
36569SOL    HW211605   0.263   7.861   6.850
36570SOL     OW11606   0.402   1.485   4.619
36570SOL    HW111607   0.324   1.507   4.669
36570SOL    HW211608   0.382   1.512   4.530
36571SOL     OW11609   0.038   9.399   7.814
36571SOL    HW111610   0.033   9.309   7.781
36571SOL    HW211611   0.054   9.388   7.908
36572SOL     OW11612   4.783   5.537   8.167
36572SOL    HW111613   4.763   5.483   8.243
36572SOL    HW211614   4.719   5.511   8.101
36573SOL     OW11615   6.869   9.517   8.451
36573SOL    HW111616   6.831   9.600   8.481
36573SOL    HW211617   6.896   9.534   8.361
36574SOL     OW11618  10.287   8.805   6.287
36574SOL    HW111619  10.249   8.754   6.359
36574SOL    HW211620  10.344   8.744   6.241
36575SOL     OW11621   5.944  10.706   0.284
36575SOL    HW111622   6.011  10.683   0.220
36575SOL    HW211623   5.866  10.658   0.255
36576SOL     OW11624  12.166   7.001   8.251
36576SOL    HW111625  12.258   7.015   8.276
36576SOL    HW211626  12.162   7.025   8.159
36577SOL     OW11627  14.666  12.702  10.684
36577SOL    HW111628  14.713  12.748  10.754
36577SOL    HW211629  14.631  12.773  10.629
36578SOL     OW11630   4.464   0.550   4.568
36578SOL    HW111631   4.486   0.515   4.655
36578SOL    HW211632   4.484   0.643   4.574
36579SOL     OW11633   5.632  12.576   1.929
36579SOL    HW111634   5.552  12.621   1.905
36579SOL    HW211635   5.666  12.625   2.004
36580SOL     OW11636   5.641   9.421  11.304
36580SOL    HW111637   5.683   9.403  11.388
36580SOL    HW211638   5.585   9.345  11.288
36581SOL     OW11639   0.314   2.219  11.043
36581SOL    HW111640   0.298   2.312  11.053
36581SOL    HW211641   0.254   2.177  11.105
36582SOL     OW11642  10.235   3.434  11.884
36582SOL    HW111643  10.181   3.471  11.814
36582SOL    HW211644  10.290   3.506  11.912
36583SOL     OW11645  13.280   7.409  10.489
36583SOL    HW111646  13.347   7.340  10.489
36583SOL    HW211647  13.306   7.467  10.418
36584SOL     OW11648   4.606   6.042  14.520
36584SOL    HW111649   4.579   5.952  14.498
36584SOL    HW211650   4.526   6.094  14.510
36585SOL     OW11651   9.087   7.139  11.784
36585SOL    HW111652   9.158   7.171  11.839
36585SOL    HW211653   9.131   7.088  11.715
36586SOL     OW11654   0.166   8.254   9.159
36586SOL    HW111655   0.142   8.164   9.141
36586SOL    HW211656   0.229   8.249   9.231
36587SOL     OW11657   5.105   4.087   8.954
36587SOL    HW111658   5.086   4.139   9.032
36587SOL    HW211659   5.158   4.014   8.987
36588SOL     OW11660   4.207   3.530   7.186
36588SOL    HW111661   4.215   3.438   7.210
36588SOL    HW211662   4.297   3.563   7.184
36589SOL     OW11663  11.456   4.759   6.177
36589SOL    HW111664  11.550   4.741   6.187
36589SOL    HW211665  11.452   4.827   6.109
36590SOL     OW11666  12.041  11.029   8.422
36590SOL    HW111667  12.097  11.039   8.500
36590SOL    HW211668  11.970  10.972   8.451
36591SOL     OW11669   4.596   9.096  10.201
36591SOL    HW111670   4.502   9.107  10.216
36591SOL    HW211671   4.637   9.156  10.263
36592SOL     OW11672  12.941   0.310   0.145
36592SOL    HW111673  12.855   0.321   0.185
36592SOL    HW211674  12.986   0.248   0.202
36593SOL     OW11675   0.702   2.460   2.683
36593SOL    HW111676   0.608   2.463   2.668
36593SOL    HW211677   0.740   2.501   2.605
36594SOL     OW11678  11.867   0.311  10.503
36594SOL    HW111679  11.816   0.329  10.423
36594SOL    HW211680  11.806   0.330  10.574
36595SOL     OW11681   5.768  10.455   0.784
36595SOL    HW111682   5.701  10.510   0.823
36595SOL    HW211683   5.822  10.515   0.732
36596SOL     OW11684   3.088   6.869   8.019
36596SOL    HW111685   3.131   6.947   7.984
36596SOL    HW211686   3.002   6.868   7.976
36597SOL     OW11687   6.165  11.596   6.289
36597SOL    HW111688   6.259  11.585   6.274
36597SOL    HW211689   6.155  11.688   6.315
36598SOL     OW11690   7.150   1.354   8.243
36598SOL    HW111691   7.127   1.354   8.150
36598SOL    HW211692   7.244   1.370   8.245
36599SOL     OW11693   1.702   2.426   1.874
36599SOL    HW111694   1.786   2.469   1.888
36599SOL    HW211695   1.641   2.497   1.856
36600SOL     OW11696   9.752   5.635   4.509
36600SOL    HW111697   9.705   5.604   4.432
36600SOL    HW211698   9.822   5.689   4.474
36601SOL     OW11699   9.173  13.971   3.167
36601SOL    HW111700   9.167  13.876   3.161
36601SOL    HW211701   9.179  14.001   3.076
36602SOL     OW11702   4.621   6.832  13.805
36602SOL    HW111703   4.561   6.777  13.854
36602SOL    HW211704   4.566   6.903  13.770
36603SOL     OW11705   6.312   3.213  11.845
36603SOL    HW111706   6.379   3.248  11.903
36603SOL    HW211707   6.305   3.121  11.868
36604SOL     OW11708   4.215  13.503   0.898
36604SOL    HW111709   4.164  13.489   0.977
36604SOL    HW211710   4.201  13.595   0.875
36605SOL     OW11711   6.311  11.116   8.942
36605SOL    HW111712   6.331  11.060   9.017
36605SOL    HW211713   6.245  11.177   8.974
36606SOL     OW11714   9.363   0.030   2.047
36606SOL    HW111715   9.358  14.866   1.960
36606SOL    HW211716   9.404  14.837   2.101
36607SOL     OW11717   7.636  12.990  14.184
36607SOL    HW111718   7.620  13.054  14.115
36607SOL    HW211719   7.702  12.931  14.148
36608SOL     OW11720  14.250   1.542   6.124
36608SOL    HW111721  14.236   1.633   6.098
36608SOL    HW211722  14.211   1.491   6.053
36609SOL     OW11723  11.217   3.981   3.125
36609SOL    HW111724  11.235   4.075   3.138
36609SOL    HW211725  11.226   3.969   3.031
36610SOL     OW11726   1.883   0.563  13.491
36610SOL    HW111727   1.804   0.559  13.437
36610SOL    HW211728   1.851   0.560  13.581
36611SOL     OW11729   7.392   4.773   1.005
36611SOL    HW111730   7.410   4.701   1.065
36611SOL    HW211731   7.313   4.747   0.958
36612SOL     OW11732   4.919   9.126   8.623
36612SOL    HW111733   4.928   9.045   8.571
36612SOL    HW211734   5.009   9.154   8.638
36613SOL     OW11735   8.694  11.129  11.454
36613SOL    HW111736   8.650  11.145  11.538
36613SOL    HW211737   8.782  11.100  11.478
36614SOL     OW11738   9.846   6.306   3.345
36614SOL    HW111739   9.838   6.211   3.344
36614SOL    HW211740   9.756   6.338   3.354
36615SOL     OW11741  10.288   8.373   7.441
36615SOL    HW111742  10.339   8.424   7.378
36615SOL    HW211743  10.326   8.394   7.526
36616SOL     OW11744   8.399   6.855  13.500
36616SOL    HW111745   8.356   6.867  13.585
36616SOL    HW211746   8.349   6.786  13.457
36617SOL     OW11747  12.773   1.969   0.433
36617SOL    HW111748  12.800   1.936   0.519
36617SOL    HW211749  12.825   1.918   0.370
36618SOL     OW11750   0.239   5.036   7.518
36618SOL    HW111751   0.225   4.944   7.493
36618SOL    HW211752   0.298   5.031   7.593
36619SOL     OW11753   4.492   1.711   2.977
36619SOL    HW111754   4.547   1.636   2.999
36619SOL    HW211755   4.551   1.786   2.984
36620SOL     OW11756   3.303   6.233   0.577
36620SOL    HW111757   3.244   6.276   0.640
36620SOL    HW211758   3.260   6.244   0.492
36621SOL     OW11759  10.725   0.246   8.370
36621SOL    HW111760  10.773   0.195   8.305
36621SOL    HW211761  10.749   0.207   8.454
36622SOL     OW11762   5.593   8.977  14.032
36622SOL    HW111763   5.589   9.073  14.032
36622SOL    HW211764   5.631   8.955  13.947
36623SOL     OW11765   5.767   7.401   3.986
36623SOL    HW111766   5.747   7.386   3.894
36623SOL    HW211767   5.862   7.390   3.991
36624SOL     OW11768   3.535  14.672  11.034
36624SOL    HW111769   3.505  14.653  11.123
36624SOL    HW211770   3.512  14.764  11.020
36625SOL     OW11771   2.697   1.183   9.200
36625SOL    HW111772   2.676   1.242   9.273
36625SOL    HW211773   2.744   1.110   9.241
36626SOL     OW11774  14.136  10.607  12.650
36626SOL    HW111775  14.073  10.536  12.665
36626SOL    HW211776  14.215  10.580  12.697
36627SOL     OW11777   6.055   3.828   1.845
36627SOL    HW111778   6.060   3.921   1.867
36627SOL    HW211779   6.120   3.786   1.902
36628SOL     OW11780   2.923  10.250  12.483
36628SOL    HW111781   2.968  10.166  12.482
36628SOL    HW211782   2.910  10.272  12.391
36629SOL     OW11783   7.919   0.232   8.295
36629SOL    HW111784   7.974   0.162   8.329
36629SOL    HW211785   7.842   0.233   8.352
36630SOL     OW11786  13.227   1.424  10.711
36630SOL    HW111787  13.320   1.437  10.732
36630SOL    HW211788  13.196   1.361  10.775
36631SOL     OW11789  10.718  10.757   6.990
36631SOL    HW111790  10.667  10.774   6.911
36631SOL    HW211791  10.756  10.670   6.976
36632SOL     OW11792   2.580   6.903   5.618
36632SOL    HW111793   2.552   6.898   5.526
36632SOL    HW211794   2.675   6.906   5.614
36633SOL     OW11795   3.993  10.562  12.611
36633SOL    HW111796   4.048  10.495  12.650
36633SOL    HW211797   3.909  10.553  12.656
36634SOL     OW11798   4.366  11.469   8.766
36634SOL    HW111799   4.351  11.489   8.674
36634SOL    HW211800   4.425  11.538   8.796
36635SOL     OW11801  10.940   3.313  14.321
36635SOL    HW111802  11.027   3.283  14.347
36635SOL    HW211803  10.940   3.308  14.225
36636SOL     OW11804   0.745   4.867   2.116
36636SOL    HW111805   0.659   4.837   2.087
36636SOL    HW211806   0.733   4.889   2.209
36637SOL     OW11807   4.945   5.913  11.065
36637SOL    HW111808   4.897   5.861  11.000
36637SOL    HW211809   5.029   5.868  11.074
36638SOL     OW11810   0.197  11.427   3.363
36638SOL    HW111811   0.126  11.425   3.298
36638SOL    HW211812   0.152  11.414   3.446
36639SOL     OW11813   5.898   8.544   7.645
36639SOL    HW111814   5.932   8.553   7.555
36639SOL    HW211815   5.970   8.573   7.700
36640SOL     OW11816   4.419  14.569  14.473
36640SOL    HW111817   4.487  14.506  14.497
36640SOL    HW211818   4.447  14.604  14.389
36641SOL     OW11819   5.869   9.507  12.671
36641SOL    HW111820   5.955   9.472  12.649
36641SOL    HW211821   5.867   9.506  12.767
36642SOL     OW11822   4.217   4.112  13.790
36642SOL    HW111823   4.134   4.076  13.820
36642SOL    HW211824   4.284   4.059  13.832
36643SOL     OW11825   4.030  13.523  11.487
36643SOL    HW111826   4.050  13.487  11.573
36643SOL    HW211827   3.959  13.585  11.503
36644SOL     OW11828  10.584  13.772  13.670
36644SOL    HW111829  10.673  13.759  13.639
36644SOL    HW211830  10.563  13.862  13.648
36645SOL     OW11831   1.111   6.916   0.231
36645SOL    HW111832   1.143   6.984   0.289
36645SOL    HW211833   1.146   6.835   0.268
36646SOL     OW11834  10.107  14.866  13.512
36646SOL    HW111835  10.154  14.785  13.494
36646SOL    HW211836  10.176   0.057  13.520
36647SOL     OW11837  14.560   2.647   2.076
36647SOL    HW111838  14.549   2.741   2.088
36647SOL    HW211839  14.495   2.608   2.135
36648SOL     OW11840   7.874  14.591   8.464
36648SOL    HW111841   7.829  14.596   8.548
36648SOL    HW211842   7.805  14.605   8.399
36649SOL     OW11843   2.451   8.100   5.164
36649SOL    HW111844   2.522   8.040   5.188
36649SOL    HW211845   2.371   8.048   5.175
36650SOL     OW11846   0.351  12.538   7.201
36650SOL    HW111847   0.374  12.505   7.288
36650SOL    HW211848   0.401  12.483   7.141
36651SOL     OW11849   3.520   2.465   3.989
36651SOL    HW111850   3.507   2.547   4.037
36651SOL    HW211851   3.432   2.442   3.958
36652SOL     OW11852   3.985  13.544   6.191
36652SOL    HW111853   3.993  13.615   6.127
36652SOL    HW211854   3.907  13.566   6.242
36653SOL     OW11855   1.139  12.663   8.330
36653SOL    HW111856   1.199  12.730   8.361
36653SOL    HW211857   1.077  12.651   8.402
36654SOL     OW11858  12.835   2.349  11.752
36654SOL    HW111859  12.909   2.327  11.808
36654SOL    HW211860  12.857   2.311  11.667
36655SOL     OW11861   6.890   5.604   5.002
36655SOL    HW111862   6.875   5.592   4.908
36655SOL    HW211863   6.959   5.541   5.024
36656SOL     OW11864  11.092  13.992  11.800
36656SOL    HW111865  11.102  13.934  11.876
36656SOL    HW211866  11.039  14.064  11.832
36657SOL     OW11867   0.232   0.796   6.109
36657SOL    HW111868   0.222   0.803   6.014
36657SOL    HW211869   0.162   0.737   6.136
36658SOL     OW11870   9.431  11.738  14.720
36658SOL    HW111871   9.480  11.686  14.784
36658SOL    HW211872   9.419  11.823  14.763
36659SOL     OW11873  14.202   4.627   3.124
36659SOL    HW111874  14.145   4.652   3.197
36659SOL    HW211875  14.271   4.693   3.125
36660SOL     OW11876   2.707   7.087   0.368
36660SOL    HW111877   2.793   7.126   0.356
36660SOL    HW211878   2.681   7.058   0.281
36661SOL     OW11879   9.516   2.311   2.506
36661SOL    HW111880   9.450   2.266   2.558
36661SOL    HW211881   9.477   2.395   2.483
36662SOL     OW11882   1.865   7.282  13.687
36662SOL    HW111883   1.849   7.255  13.777
36662SOL    HW211884   1.960   7.279  13.677
36663SOL     OW11885   6.542   5.200  13.161
36663SOL    HW111886   6.464   5.222  13.211
36663SOL    HW211887   6.606   5.266  13.186
36664SOL     OW11888   8.283   3.184   7.189
36664SOL    HW111889   8.265   3.240   7.114
36664SOL    HW211890   8.216   3.116   7.185
36665SOL     OW11891   4.852   7.128   6.723
36665SOL    HW111892   4.759   7.148   6.739
36665SOL    HW211893   4.869   7.052   6.779
36666SOL     OW11894  13.655  10.018  12.838
36666SOL    HW111895  13.574   9.998  12.790
36666SOL    HW211896  13.680   9.935  12.878
36667SOL     OW11897  11.970  12.000   0.178
36667SOL    HW111898  12.018  12.082   0.179
36667SOL    HW211899  12.029  11.938   0.135
36668SOL     OW11900   6.546   7.125  13.948
36668SOL    HW111901   6.518   7.189  14.014
36668SOL    HW211902   6.610   7.070  13.993
36669SOL     OW11903   2.469  10.708   6.012
36669SOL    HW111904   2.447  10.739   6.100
36669SOL    HW211905   2.538  10.643   6.026
36670SOL     OW11906   1.920   5.997  13.783
36670SOL    HW111907   1.998   6.050  13.797
36670SOL    HW211908   1.881   5.987  13.870
36671SOL     OW11909  14.828  12.249   8.690
36671SOL    HW111910   0.029  12.305   8.675
36671SOL    HW211911  14.815  12.250   8.785
36672SOL     OW11912  10.256   4.784   1.295
36672SOL    HW111913  10.291   4.754   1.379
36672SOL    HW211914  10.168   4.817   1.316
36673SOL     OW11915   3.550  14.243   1.105
36673SOL    HW111916   3.542  14.210   1.194
36673SOL    HW211917   3.468  14.218   1.062
36674SOL     OW11918   0.016   6.094   2.177
36674SOL    HW111919   0.035   6.180   2.139
36674SOL    HW211920  14.829   6.054   2.117
36675SOL     OW11921   6.966   9.002   2.059
36675SOL    HW111922   7.054   8.970   2.039
36675SOL    HW211923   6.937   9.045   1.979
36676SOL     OW11924   3.923   2.639   8.070
36676SOL    HW111925   3.926   2.684   7.985
36676SOL    HW211926   3.842   2.670   8.110
36677SOL     OW11927   6.919   5.336   9.723
36677SOL    HW111928   6.911   5.415   9.668
36677SOL    HW211929   6.908   5.369   9.813
36678SOL     OW11930  13.276  12.121   8.627
36678SOL    HW111931  13.268  12.131   8.532
36678SOL    HW211932  13.252  12.030   8.643
36679SOL     OW11933   8.484   9.525   6.964
36679SOL    HW111934   8.487   9.514   7.059
36679SOL    HW211935   8.459   9.439   6.930
36680SOL     OW11936   2.129  14.402  10.898
36680SOL    HW111937   2.119  14.392  10.993
36680SOL    HW211938   2.130  14.496  10.883
36681SOL     OW11939   0.184  14.111  11.845
36681SOL    HW111940   0.099  14.068  11.851
36681SOL    HW211941   0.199  14.122  11.751
36682SOL     OW11942   7.383   3.862   9.336
36682SOL    HW111943   7.336   3.825   9.261
36682SOL    HW211944   7.386   3.956   9.318
36683SOL     OW11945  13.302   1.983   5.696
36683SOL    HW111946  13.315   1.899   5.651
36683SOL    HW211947  13.371   1.986   5.762
36684SOL     OW11948   1.927  14.434   7.326
36684SOL    HW111949   1.869  14.501   7.362
36684SOL    HW211950   1.910  14.356   7.379
36685SOL     OW11951  13.474   4.259   6.129
36685SOL    HW111952  13.555   4.214   6.106
36685SOL    HW211953  13.412   4.233   6.062
36686SOL     OW11954   6.824   5.695  10.797
36686SOL    HW111955   6.891   5.763  10.795
36686SOL    HW211956   6.784   5.698  10.709
36687SOL     OW11957  10.207  11.036   0.990
36687SOL    HW111958  10.248  10.950   0.990
36687SOL    HW211959  10.177  11.050   1.080
36688SOL     OW11960   5.414   7.273   3.849
36688SOL    HW111961   5.419   7.182   3.818
36688SOL    HW211962   5.349   7.271   3.920
36689SOL     OW11963   6.983   8.606   4.210
36689SOL    HW111964   6.966   8.533   4.268
36689SOL    HW211965   7.077   8.599   4.189
36690SOL     OW11966   3.051  13.591   3.682
36690SOL    HW111967   2.979  13.615   3.623
36690SOL    HW211968   3.086  13.675   3.712
36691SOL     OW11969   2.186  14.063  13.014
36691SOL    HW111970   2.162  14.102  13.099
36691SOL    HW211971   2.148  13.975  13.017
36692SOL     OW11972   3.417   3.038   4.732
36692SOL    HW111973   3.323   3.032   4.719
36692SOL    HW211974   3.427   3.081   4.817
36693SOL     OW11975  13.089   9.638  14.431
36693SOL    HW111976  13.060   9.556  14.392
36693SOL    HW211977  13.184   9.629  14.438
36694SOL     OW11978  13.440   4.639   3.895
36694SOL    HW111979  13.432   4.558   3.946
36694SOL    HW211980  13.435   4.709   3.961
36695SOL     OW11981   6.367   0.793   9.044
36695SOL    HW111982   6.419   0.795   8.963
36695SOL    HW211983   6.291   0.849   9.025
36696SOL     OW11984  13.230   2.082   8.536
36696SOL    HW111985  13.183   2.145   8.591
36696SOL    HW211986  13.295   2.134   8.489
36697SOL     OW11987   7.975  11.724  12.996
36697SOL    HW111988   7.992  11.817  12.978
36697SOL    HW211989   8.037  11.677  12.939
36698SOL     OW11990   7.377  13.922   2.382
36698SOL    HW111991   7.390  13.977   2.460
36698SOL    HW211992   7.425  13.968   2.313
36699SOL     OW11993   0.953   9.162   9.062
36699SOL    HW111994   1.035   9.176   9.109
36699SOL    HW211995   0.972   9.092   9.000
36700SOL     OW11996   5.865  10.017   0.608
36700SOL    HW111997   5.774  10.000   0.634
36700SOL    HW211998   5.860  10.035   0.514
36701SOL     OW11999   3.434   4.874   3.543
36701SOL    HW112000   3.482   4.953   3.521
36701SOL    HW212001   3.400   4.890   3.631
36702SOL     OW12002   2.386   5.067  10.499
36702SOL    HW112003   2.331   5.000  10.541
36702SOL    HW212004   2.329   5.143  10.490
36703SOL     OW12005   8.029   7.474  13.523
36703SOL    HW112006   8.045   7.433  13.607
36703SOL    HW212007   8.077   7.557  13.527
36704SOL     OW12008  13.966   3.590   2.682
36704SOL    HW112009  13.952   3.679   2.713
36704SOL    HW212010  13.879   3.551   2.680
36705SOL     OW12011   0.274   0.485   6.333
36705SOL    HW112012   0.210   0.417   6.355
36705SOL    HW212013   0.307   0.460   6.247
36706SOL     OW12014  11.348   0.488   3.821
36706SOL    HW112015  11.396   0.455   3.745
36706SOL    HW212016  11.260   0.506   3.788
36707SOL     OW12017  10.127   7.806   9.805
36707SOL    HW112018  10.123   7.714   9.829
36707SOL    HW212019  10.068   7.850   9.866
36708SOL     OW12020  14.408   8.203   3.145
36708SOL    HW112021  14.444   8.179   3.060
36708SOL    HW212022  14.404   8.120   3.193
36709SOL     OW12023  14.155   7.182  13.876
36709SOL    HW112024  14.145   7.243  13.949
36709SOL    HW212025  14.073   7.190  13.827
36710SOL     OW12026  13.425  12.511   6.051
36710SOL    HW112027  13.365  12.528   5.978
36710SOL    HW212028  13.375  12.536   6.129
36711SOL     OW12029   5.408  13.117   3.539
36711SOL    HW112030   5.482  13.138   3.483
36711SOL    HW212031   5.401  13.022   3.536
36712SOL     OW12032  14.669   0.269   8.782
36712SOL    HW112033  14.735   0.332   8.752
36712SOL    HW212034  14.651   0.294   8.872
36713SOL     OW12035   7.328   0.832   3.171
36713SOL    HW112036   7.331   0.927   3.181
36713SOL    HW212037   7.373   0.798   3.249
36714SOL     OW12038  12.770   0.415  12.136
36714SOL    HW112039  12.789   0.491  12.080
36714SOL    HW212040  12.686   0.436  12.177
36715SOL     OW12041   3.771   4.794   7.754
36715SOL    HW112042   3.810   4.707   7.753
36715SOL    HW212043   3.690   4.785   7.704
36716SOL     OW12044   4.195   9.833   9.930
36716SOL    HW112045   4.219   9.741   9.914
36716SOL    HW212046   4.104   9.829   9.962
36717SOL     OW12047   4.867  14.828  11.787
36717SOL    HW112048   4.804  14.800  11.720
36717SOL    HW212049   4.838  14.784  11.867
36718SOL     OW12050   6.907   1.116  12.746
36718SOL    HW112051   6.851   1.075  12.812
36718SOL    HW212052   6.887   1.069  12.665
36719SOL     OW12053   1.372   9.478   1.534
36719SOL    HW112054   1.282   9.452   1.513
36719SOL    HW212055   1.392   9.430   1.615
36720SOL     OW12056   2.173   3.853  12.267
36720SOL    HW112057   2.135   3.779  12.220
36720SOL    HW212058   2.263   3.858  12.235
36721SOL     OW12059   5.053   1.902   5.612
36721SOL    HW112060   5.071   1.879   5.520
36721SOL    HW212061   4.958   1.901   5.619
36722SOL     OW12062   3.768   6.219   5.878
36722SOL    HW112063   3.801   6.145   5.827
36722SOL    HW212064   3.782   6.295   5.821
36723SOL     OW12065  11.217  11.854   8.622
36723SOL    HW112066  11.285  11.811   8.571
36723SOL    HW212067  11.136  11.837   8.573
36724SOL     OW12068   4.897  14.672  12.024
36724SOL    HW112069   4.884  14.592  12.076
36724SOL    HW212070   4.989  14.669  11.998
36725SOL     OW12071   4.366  11.967   8.617
36725SOL    HW112072   4.424  11.900   8.581
36725SOL    HW212073   4.320  11.923   8.688
36726SOL     OW12074   3.656  12.527  13.296
36726SOL    HW112075   3.697  12.579  13.365
36726SOL    HW212076   3.593  12.586  13.255
36727SOL     OW12077   2.369  11.593   5.292
36727SOL    HW112078   2.377  11.623   5.201
36727SOL    HW212079   2.288  11.633   5.324
36728SOL     OW12080  11.552   7.447   0.860
36728SOL    HW112081  11.482   7.510   0.876
36728SOL    HW212082  11.629   7.501   0.839
36729SOL     OW12083   2.209  10.830   2.141
36729SOL    HW112084   2.228  10.809   2.049
36729SOL    HW212085   2.114  10.826   2.147
36730SOL     OW12086   4.147   6.093   0.239
36730SOL    HW112087   4.148   6.081   0.334
36730SOL    HW212088   4.211   6.161   0.222
36731SOL     OW12089  10.183  10.347   4.762
36731SOL    HW112090  10.162  10.441   4.757
36731SOL    HW212091  10.266  10.344   4.810
36732SOL     OW12092   3.834  12.229   7.262
36732SOL    HW112093   3.827  12.252   7.354
36732SOL    HW212094   3.819  12.312   7.216
36733SOL     OW12095   9.906   6.182  12.700
36733SOL    HW112096   9.878   6.090  12.695
36733SOL    HW212097  10.001   6.179  12.692
36734SOL     OW12098   4.860  12.777   8.468
36734SOL    HW112099   4.868  12.738   8.381
36734SOL    HW212100   4.832  12.705   8.524
36735SOL     OW12101   4.332   9.955   5.118
36735SOL    HW112102   4.381  10.036   5.104
36735SOL    HW212103   4.268   9.978   5.186
36736SOL     OW12104  10.107   6.404   6.447
36736SOL    HW112105  10.161   6.332   6.477
36736SOL    HW212106  10.114   6.470   6.516
36737SOL     OW12107   4.288   5.208   6.595
36737SOL    HW112108   4.380   5.235   6.596
36737SOL    HW212109   4.254   5.244   6.513
36738SOL     OW12110   0.866  10.138   2.715
36738SOL    HW112111   0.805  10.184   2.772
36738SOL    HW212112   0.945  10.192   2.715
36739SOL     OW12113   5.325   5.925   7.243
36739SOL    HW112114   5.347   5.893   7.155
36739SOL    HW212115   5.344   5.850   7.300
36740SOL     OW12116   6.748   3.828  11.004
36740SOL    HW112117   6.783   3.908  11.043
36740SOL    HW212118   6.692   3.791  11.072
36741SOL     OW12119  11.961   6.683  13.765
36741SOL    HW112120  12.007   6.765  13.785
36741SOL    HW212121  11.950   6.640  13.849
36742SOL     OW12122   6.633   0.008   9.380
36742SOL    HW112123   6.708   0.046   9.427
36742SOL    HW212124   6.634   0.051   9.295
36743SOL     OW12125   6.074  10.305   6.743
36743SOL    HW112126   5.981  10.318   6.727
36743SOL    HW212127   6.105  10.255   6.668
36744SOL     OW12128  10.925   6.582   1.221
36744SOL    HW112129  10.977   6.504   1.203
36744SOL    HW212130  10.835   6.550   1.227
36745SOL     OW12131   5.255   6.498   1.115
36745SOL    HW112132   5.283   6.503   1.206
36745SOL    HW212133   5.174   6.447   1.118
36746SOL     OW12134  10.496   1.095   4.378
36746SOL    HW112135  10.462   1.083   4.467
36746SOL    HW212136  10.431   1.150   4.335
36747SOL     OW12137   9.152  13.462   5.112
36747SOL    HW112138   9.166  13.486   5.021
36747SOL    HW212139   9.224  13.505   5.159
36748SOL     OW12140   8.170  11.898  14.188
36748SOL    HW112141   8.170  11.853  14.104
36748SOL    HW212142   8.249  11.867  14.233
36749SOL     OW12143   2.897  11.557  11.877
36749SOL    HW112144   2.898  11.633  11.819
36749SOL    HW212145   2.983  11.559  11.921
36750SOL     OW12146   1.163  10.327   2.632
36750SOL    HW112147   1.121  10.311   2.547
36750SOL    HW212148   1.236  10.266   2.634
36751SOL     OW12149  13.411  13.316  14.308
36751SOL    HW112150  13.480  13.382  14.316
36751SOL    HW212151  13.435  13.248  14.371
36752SOL     OW12152  13.883   7.234   6.877
36752SOL    HW112153  13.898   7.227   6.971
36752SOL    HW212154  13.897   7.326   6.857
36753SOL     OW12155   9.101   6.098   6.678
36753SOL    HW112156   9.116   6.118   6.586
36753SOL    HW212157   9.188   6.089   6.716
36754SOL     OW12158   7.607   2.648   4.829
36754SOL    HW112159   7.579   2.561   4.858
36754SOL    HW212160   7.689   2.631   4.781
36755SOL     OW12161   2.735  13.507   8.016
36755SOL    HW112162   2.685  13.556   8.081
36755SOL    HW212163   2.779  13.575   7.964
36756SOL     OW12164   8.067   7.011   5.995
36756SOL    HW112165   8.065   7.006   5.899
36756SOL    HW212166   8.158   6.990   6.017
36757SOL     OW12167   4.776   0.719   6.481
36757SOL    HW112168   4.793   0.639   6.433
36757SOL    HW212169   4.791   0.696   6.573
36758SOL     OW12170   1.964   2.818  12.947
36758SOL    HW112171   1.875   2.845  12.922
36758SOL    HW212172   1.967   2.725  12.928
36759SOL     OW12173   9.212   3.580   8.247
36759SOL    HW112174   9.232   3.672   8.264
36759SOL    HW212175   9.251   3.562   8.162
36760SOL     OW12176   7.440   9.060  12.180
36760SOL    HW112177   7.519   9.097  12.140
36760SOL    HW212178   7.394   9.017  12.108
36761SOL     OW12179  10.355   9.053  11.692
36761SOL    HW112180  10.305   9.019  11.766
36761SOL    HW212181  10.347   8.987  11.624
36762SOL     OW12182  10.193   9.346   4.652
36762SOL    HW112183  10.216   9.291   4.577
36762SOL    HW212184  10.098   9.345   4.655
36763SOL     OW12185   9.178   2.945   1.906
36763SOL    HW112186   9.257   2.981   1.947
36763SOL    HW212187   9.106   2.981   1.958
36764SOL     OW12188  14.473   0.475  10.118
36764SOL    HW112189  14.414   0.534  10.165
36764SOL    HW212190  14.540   0.451  10.182
36765SOL     OW12191  13.990   2.219   0.164
36765SOL    HW112192  14.080   2.214   0.194
36765SOL    HW212193  13.975   2.137   0.117
36766SOL     OW12194   5.508   5.484   7.717
36766SOL    HW112195   5.535   5.468   7.808
36766SOL    HW212196   5.587   5.466   7.665
36767SOL     OW12197  14.335  12.929  13.295
36767SOL    HW112198  14.377  12.846  13.315
36767SOL    HW212199  14.280  12.910  13.219
36768SOL     OW12200  10.519  13.762   0.020
36768SOL    HW112201  10.554  13.685   0.064
36768SOL    HW212202  10.572  13.834   0.051
36769SOL     OW12203   1.064  14.559   4.752
36769SOL    HW112204   1.135  14.557   4.688
36769SOL    HW212205   1.015  14.638   4.731
36770SOL     OW12206  13.855  10.990   2.191
36770SOL    HW112207  13.853  10.938   2.272
36770SOL    HW212208  13.769  11.030   2.185
36771SOL     OW12209   2.088   9.414  13.239
36771SOL    HW112210   2.130   9.496  13.264
36771SOL    HW212211   2.014   9.405  13.300
36772SOL     OW12212   5.848   3.865  12.204
36772SOL    HW112213   5.785   3.817  12.150
36772SOL    HW212214   5.794   3.911  12.268
36773SOL     OW12215  12.800   5.889  11.202
36773SOL    HW112216  12.813   5.946  11.278
36773SOL    HW212217  12.705   5.882  11.193
36774SOL     OW12218   1.669   3.378   9.658
36774SOL    HW112219   1.587   3.330   9.649
36774SOL    HW212220   1.685   3.382   9.752
36775SOL     OW12221   0.447   7.871  10.996
36775SOL    HW112222   0.490   7.949  11.032
36775SOL    HW212223   0.370   7.905  10.951
36776SOL     OW12224   1.272   1.156  13.034
36776SOL    HW112225   1.293   1.062  13.029
36776SOL    HW212226   1.180   1.158  13.060
36777SOL     OW12227   7.730   8.600   9.728
36777SOL    HW112228   7.701   8.644   9.648
36777SOL    HW212229   7.789   8.531   9.697
36778SOL     OW12230   8.475  10.285  11.516
36778SOL    HW112231   8.532  10.226  11.466
36778SOL    HW212232   8.521  10.297  11.599
36779SOL     OW12233  12.279   7.848  13.755
36779SOL    HW112234  12.273   7.799  13.837
36779SOL    HW212235  12.286   7.781  13.687
36780SOL     OW12236   2.463   5.745  10.832
36780SOL    HW112237   2.370   5.747  10.813
36780SOL    HW212238   2.487   5.653  10.827
36781SOL     OW12239   2.408   6.901  11.408
36781SOL    HW112240   2.385   6.827  11.464
36781SOL    HW212241   2.503   6.910  11.417
36782SOL     OW12242   2.079  11.634   7.596
36782SOL    HW112243   2.162  11.644   7.550
36782SOL    HW212244   2.027  11.710   7.570
36783SOL     OW12245   9.139   0.730   3.504
36783SOL    HW112246   9.234   0.723   3.498
36783SOL    HW212247   9.118   0.701   3.593
36784SOL     OW12248  10.163   3.377  14.745
36784SOL    HW112249  10.118   3.313  14.690
36784SOL    HW212250  10.105   3.453  14.746
36785SOL     OW12251   0.511  11.687  13.763
36785SOL    HW112252   0.530  11.601  13.724
36785SOL    HW212253   0.530  11.750  13.693
36786SOL     OW12254  11.990  11.614   5.310
36786SOL    HW112255  11.988  11.709   5.325
36786SOL    HW212256  12.063  11.601   5.250
36787SOL     OW12257  14.794   9.263  10.177
36787SOL    HW112258  14.862   9.198  10.159
36787SOL    HW212259  14.720   9.212  10.209
36788SOL     OW12260  10.526   3.182   7.843
36788SOL    HW112261  10.508   3.257   7.900
36788SOL    HW212262  10.443   3.166   7.798
36789SOL     OW12263  10.148   4.193  11.560
36789SOL    HW112264  10.091   4.198  11.636
36789SOL    HW212265  10.158   4.284  11.532
36790SOL     OW12266   1.420   4.036  11.517
36790SOL    HW112267   1.480   3.971  11.552
36790SOL    HW212268   1.476   4.109  11.492
36791SOL     OW12269   5.372   6.307   9.006
36791SOL    HW112270   5.292   6.352   9.031
36791SOL    HW212271   5.345   6.217   8.989
36792SOL     OW12272   6.543   9.216  12.688
36792SOL    HW112273   6.576   9.236  12.775
36792SOL    HW212274   6.507   9.128  12.695
36793SOL     OW12275   3.309   8.618   4.662
36793SOL    HW112276   3.301   8.654   4.750
36793SOL    HW212277   3.401   8.632   4.639
36794SOL     OW12278   3.938   2.782   6.575
36794SOL    HW112279   3.927   2.710   6.513
36794SOL    HW212280   4.032   2.796   6.579
36795SOL     OW12281  12.820  13.117   4.370
36795SOL    HW112282  12.908  13.083   4.387
36795SOL    HW212283  12.807  13.184   4.437
36796SOL     OW12284  10.212   3.436   0.497
36796SOL    HW112285  10.196   3.343   0.515
36796SOL    HW212286  10.187   3.481   0.577
36797SOL     OW12287   3.887  12.066  13.427
36797SOL    HW112288   3.891  11.981  13.383
36797SOL    HW212289   3.831  12.051  13.503
36798SOL     OW12290  14.225   7.713   5.922
36798SOL    HW112291  14.238   7.705   5.828
36798SOL    HW212292  14.132   7.691   5.935
36799SOL     OW12293   6.242   1.161   3.226
36799SOL    HW112294   6.164   1.207   3.257
36799SOL    HW212295   6.300   1.156   3.302
36800SOL     OW12296   2.801  12.986   2.285
36800SOL    HW112297   2.793  12.987   2.381
36800SOL    HW212298   2.741  13.054   2.256
36801SOL     OW12299   9.278   4.075   4.813
36801SOL    HW112300   9.213   4.063   4.882
36801SOL    HW212301   9.281   3.991   4.767
36802SOL     OW12302   9.053  12.856  10.559
36802SOL    HW112303   9.025  12.798  10.488
36802SOL    HW212304   8.972  12.901  10.586
36803SOL     OW12305   0.070   5.841  14.075
36803SOL    HW112306   0.103   5.771  14.018
36803SOL    HW212307   0.081   5.921  14.024
36804SOL     OW12308  13.235  10.751   6.273
36804SOL    HW112309  13.327  10.756   6.300
36804SOL    HW212310  13.214  10.658   6.277
36805SOL     OW12311   5.075  13.272   0.589
36805SOL    HW112312   4.996  13.219   0.581
36805SOL    HW212313   5.070  13.334   0.515
36806SOL     OW12314   0.291   4.936  13.167
36806SOL    HW112315   0.283   5.017  13.117
36806SOL    HW212316   0.202   4.917  13.197
36807SOL     OW12317   3.246   8.045  13.845
36807SOL    HW112318   3.167   8.092  13.874
36807SOL    HW212319   3.238   8.043  13.749
36808SOL     OW12320   8.275  10.202   7.059
36808SOL    HW112321   8.287  10.227   7.151
36808SOL    HW212322   8.361  10.170   7.031
36809SOL     OW12323  13.056   2.017   7.757
36809SOL    HW112324  13.057   1.982   7.846
36809SOL    HW212325  12.976   2.069   7.753
36810SOL     OW12326   4.348   7.737   0.639
36810SOL    HW112327   4.338   7.644   0.659
36810SOL    HW212328   4.284   7.781   0.694
36811SOL     OW12329   8.608  13.504   2.311
36811SOL    HW112330   8.675  13.481   2.375
36811SOL    HW212331   8.647  13.577   2.262
36812SOL     OW12332   6.893   9.286   0.903
36812SOL    HW112333   6.816   9.274   0.847
36812SOL    HW212334   6.869   9.357   0.963
36813SOL     OW12335   2.891  14.682  12.910
36813SOL    HW112336   2.889  14.680  12.815
36813SOL    HW212337   2.983  14.691  12.932
36814SOL     OW12338   7.707  10.208  12.088
36814SOL    HW112339   7.656  10.129  12.102
36814SOL    HW212340   7.797  10.182  12.109
36815SOL     OW12341  12.314  10.097   3.566
36815SOL    HW112342  12.250  10.094   3.638
36815SOL    HW212343  12.313  10.188   3.537
36816SOL     OW12344   3.362   8.958   1.718
36816SOL    HW112345   3.299   8.909   1.665
36816SOL    HW212346   3.442   8.961   1.665
36817SOL     OW12347  13.454   3.602  13.808
36817SOL    HW112348  13.550   3.606  13.805
36817SOL    HW212349  13.430   3.644  13.891
36818SOL     OW12350   0.686  11.794   4.926
36818SOL    HW112351   0.747  11.723   4.947
36818SOL    HW212352   0.600  11.758   4.944
36819SOL     OW12353  10.882   9.507  10.871
36819SOL    HW112354  10.788   9.487  10.871
36819SOL    HW212355  10.888   9.592  10.828
36820SOL     OW12356  14.726  11.761   4.349
36820SOL    HW112357  14.638  11.787   4.322
36820SOL    HW212358  14.739  11.805   4.433
36821SOL     OW12359   9.647   9.539   2.996
36821SOL    HW112360   9.650   9.447   3.022
36821SOL    HW212361   9.619   9.585   3.075
36822SOL     OW12362  12.632   3.823   1.946
36822SOL    HW112363  12.627   3.785   2.033
36822SOL    HW212364  12.656   3.751   1.889
36823SOL     OW12365  14.714   8.511   6.931
36823SOL    HW112366  14.657   8.579   6.965
36823SOL    HW212367  14.780   8.498   6.999
36824SOL     OW12368  11.701   1.819   1.382
36824SOL    HW112369  11.669   1.806   1.293
36824SOL    HW212370  11.758   1.744   1.399
36825SOL     OW12371  12.691   5.752   2.155
36825SOL    HW112372  12.690   5.815   2.083
36825SOL    HW212373  12.783   5.747   2.181
36826SOL     OW12374   3.948   1.957   1.026
36826SOL    HW112375   3.876   1.999   0.980
36826SOL    HW212376   3.950   2.000   1.112
36827SOL     OW12377  12.021  13.027   3.725
36827SOL    HW112378  12.038  12.936   3.751
36827SOL    HW212379  12.087  13.046   3.659
36828SOL     OW12380   0.128   9.205   9.415
36828SOL    HW112381   0.160   9.131   9.364
36828SOL    HW212382   0.067   9.250   9.357
36829SOL     OW12383   1.426   9.245  12.957
36829SOL    HW112384   1.385   9.331  12.942
36829SOL    HW212385   1.352   9.187  12.977
36830SOL     OW12386   2.833  10.640   8.305
36830SOL    HW112387   2.851  10.734   8.306
36830SOL    HW212388   2.806  10.622   8.215
36831SOL     OW12389   7.245   8.624   7.366
36831SOL    HW112390   7.249   8.712   7.402
36831SOL    HW212391   7.263   8.567   7.441
36832SOL     OW12392   7.977   8.018   8.962
36832SOL    HW112393   8.022   7.957   8.903
36832SOL    HW212394   8.047   8.052   9.019
36833SOL     OW12395  12.233   9.088  13.913
36833SOL    HW112396  12.214   9.137  13.993
36833SOL    HW212397  12.227   9.154  13.843
36834SOL     OW12398   3.331   0.709  12.522
36834SOL    HW112399   3.337   0.781  12.584
36834SOL    HW212400   3.292   0.748  12.444
36835SOL     OW12401  14.571   9.307   8.745
36835SOL    HW112402  14.645   9.249   8.764
36835SOL    HW212403  14.503   9.248   8.712
36836SOL     OW12404   1.626  13.596   3.150
36836SOL    HW112405   1.541  13.584   3.192
36836SOL    HW212406   1.645  13.689   3.161
36837SOL     OW12407   7.249   7.647   7.916
36837SOL    HW112408   7.276   7.571   7.865
36837SOL    HW212409   7.296   7.720   7.876
36838SOL     OW12410  14.379  10.423  13.888
36838SOL    HW112411  14.289  10.399  13.866
36838SOL    HW212412  14.423  10.341  13.907
36839SOL     OW12413   5.133   2.322   1.683
36839SOL    HW112414   5.141   2.398   1.625
36839SOL    HW212415   5.103   2.251   1.626
36840SOL     OW12416  12.593   7.723  10.362
36840SOL    HW112417  12.604   7.784  10.434
36840SOL    HW212418  12.681   7.714  10.324
36841SOL     OW12419  10.622   1.578   2.895
36841SOL    HW112420  10.565   1.579   2.971
36841SOL    HW212421  10.599   1.657   2.847
36842SOL     OW12422  13.324   6.730   8.396
36842SOL    HW112423  13.334   6.652   8.342
36842SOL    HW212424  13.413   6.756   8.417
36843SOL     OW12425  11.199   6.437  10.294
36843SOL    HW112426  11.112   6.427  10.332
36843SOL    HW212427  11.253   6.373  10.340
36844SOL     OW12428  14.286   7.763   3.731
36844SOL    HW112429  14.354   7.818   3.692
36844SOL    HW212430  14.218   7.825   3.758
36845SOL     OW12431   8.932   1.132   5.997
36845SOL    HW112432   8.948   1.180   6.078
36845SOL    HW212433   9.019   1.099   5.971
36846SOL     OW12434  14.552  12.024   3.140
36846SOL    HW112435  14.567  11.959   3.208
36846SOL    HW212436  14.533  12.105   3.187
36847SOL     OW12437   2.748   2.224   8.711
36847SOL    HW112438   2.674   2.280   8.685
36847SOL    HW212439   2.781   2.263   8.791
36848SOL     OW12440   7.094  12.481   7.853
36848SOL    HW112441   7.048  12.553   7.809
36848SOL    HW212442   7.046  12.402   7.826
36849SOL     OW12443  12.188   4.323   5.599
36849SOL    HW112444  12.261   4.262   5.601
36849SOL    HW212445  12.134   4.298   5.675
36850SOL     OW12446   9.372   0.968   0.185
36850SOL    HW112447   9.417   0.887   0.209
36850SOL    HW212448   9.325   0.994   0.264
36851SOL     OW12449  13.537  11.516   4.023
36851SOL    HW112450  13.593  11.442   4.049
36851SOL    HW212451  13.449  11.492   4.054
36852SOL     OW12452   0.712  10.961   6.327
36852SOL    HW112453   0.635  11.004   6.365
36852SOL    HW212454   0.677  10.907   6.256
36853SOL     OW12455   6.802   8.717  11.112
36853SOL    HW112456   6.770   8.718  11.202
36853SOL    HW212457   6.732   8.676  11.061
36854SOL     OW12458   9.339   7.569   4.047
36854SOL    HW112459   9.400   7.606   4.111
36854SOL    HW212460   9.315   7.643   3.991
36855SOL     OW12461   4.342   3.336  11.996
36855SOL    HW112462   4.377   3.422  12.022
36855SOL    HW212463   4.282   3.312  12.067
36856SOL     OW12464   4.270  13.161   4.816
36856SOL    HW112465   4.278  13.066   4.824
36856SOL    HW212466   4.182  13.174   4.783
36857SOL     OW12467   9.901  12.857   8.621
36857SOL    HW112468   9.921  12.774   8.663
36857SOL    HW212469   9.867  12.913   8.691
36858SOL     OW12470  11.362  12.029  11.884
36858SOL    HW112471  11.444  12.077  11.891
36858SOL    HW212472  11.343  12.002  11.974
36859SOL     OW12473   6.990   2.985   3.981
36859SOL    HW112474   7.011   3.034   4.061
36859SOL    HW212475   6.912   2.935   4.003
36860SOL     OW12476   3.037   4.183  14.328
36860SOL    HW112477   3.109   4.191  14.265
36860SOL    HW212478   2.966   4.234  14.289
36861SOL     OW12479   5.892   7.193   5.226
36861SOL    HW112480   5.820   7.134   5.245
36861SOL    HW212481   5.956   7.176   5.296
36862SOL     OW12482  12.141   8.662   7.096
36862SOL    HW112483  12.174   8.661   7.186
36862SOL    HW212484  12.218   8.675   7.042
36863SOL     OW12485  10.789   9.728  11.452
36863SOL    HW112486  10.744   9.670  11.391
36863SOL    HW212487  10.880   9.729  11.422
36864SOL     OW12488  10.943   7.934   5.877
36864SOL    HW112489  10.949   8.026   5.905
36864SOL    HW212490  10.853   7.925   5.847
36865SOL     OW12491  12.762   5.454   0.590
36865SOL    HW112492  12.699   5.519   0.561
36865SOL    HW212493  12.721   5.370   0.569
36866SOL     OW12494  12.166   9.949  10.477
36866SOL    HW112495  12.227   9.981  10.411
36866SOL    HW212496  12.106   9.893  10.428
36867SOL     OW12497   5.721  10.292   7.783
36867SOL    HW112498   5.628  10.269   7.780
36867SOL    HW212499   5.722  10.386   7.800
36868SOL     OW12500   7.979   4.987  12.770
36868SOL    HW112501   7.916   4.916  12.787
36868SOL    HW212502   8.064   4.945  12.778
36869SOL     OW12503   1.778  12.049  13.770
36869SOL    HW112504   1.795  12.143  13.772
36869SOL    HW212505   1.840  12.015  13.705
36870SOL     OW12506   8.164   7.446   7.337
36870SOL    HW112507   8.168   7.447   7.242
36870SOL    HW212508   8.114   7.368   7.359
36871SOL     OW12509   8.539  10.132   5.861
36871SOL    HW112510   8.587  10.049   5.854
36871SOL    HW212511   8.607  10.197   5.881
36872SOL     OW12512   4.309  10.498   8.383
36872SOL    HW112513   4.373  10.473   8.317
36872SOL    HW212514   4.338  10.454   8.463
36873SOL     OW12515  12.505   0.077  14.597
36873SOL    HW112516  12.584   0.023  14.597
36873SOL    HW212517  12.525   0.148  14.657
36874SOL     OW12518  11.970  13.711   2.032
36874SOL    HW112519  12.047  13.663   2.064
36874SOL    HW212520  11.957  13.680   1.943
36875SOL     OW12521  10.709   7.755   4.667
36875SOL    HW112522  10.712   7.737   4.573
36875SOL    HW212523  10.713   7.851   4.673
36876SOL     OW12524   8.888   9.001   6.188
36876SOL    HW112525   8.917   9.007   6.097
36876SOL    HW212526   8.828   9.075   6.199
36877SOL     OW12527   9.939   5.448  11.895
36877SOL    HW112528   9.933   5.516  11.828
36877SOL    HW212529   9.963   5.495  11.975
36878SOL     OW12530   3.668   2.759  10.367
36878SOL    HW112531   3.665   2.851  10.341
36878SOL    HW212532   3.680   2.711  10.286
36879SOL     OW12533   9.111  12.379  12.107
36879SOL    HW112534   9.170  12.352  12.037
36879SOL    HW212535   9.060  12.451  12.069
36880SOL     OW12536  12.972   1.395   0.591
36880SOL    HW112537  12.883   1.426   0.574
36880SOL    HW212538  13.017   1.472   0.627
36881SOL     OW12539   9.338  11.951  11.553
36881SOL    HW112540   9.328  12.045  11.567
36881SOL    HW212541   9.430  11.941  11.526
36882SOL     OW12542   0.751   1.117   4.502
36882SOL    HW112543   0.828   1.132   4.446
36882SOL    HW212544   0.707   1.202   4.506
36883SOL     OW12545  12.648   7.040   0.636
36883SOL    HW112546  12.567   6.991   0.651
36883SOL    HW212547  12.619   7.129   0.618
36884SOL     OW12548   2.183  10.699  13.728
36884SOL    HW112549   2.259  10.642  13.737
36884SOL    HW212550   2.220  10.786  13.712
36885SOL     OW12551   7.201   6.646   2.443
36885SOL    HW112552   7.191   6.728   2.492
36885SOL    HW212553   7.245   6.672   2.362
36886SOL     OW12554   2.602   3.110   5.313
36886SOL    HW112555   2.656   3.187   5.294
36886SOL    HW212556   2.662   3.051   5.360
36887SOL     OW12557   6.143  12.728   6.353
36887SOL    HW112558   6.198  12.747   6.429
36887SOL    HW212559   6.054  12.743   6.384
36888SOL     OW12560   7.111   4.188   7.213
36888SOL    HW112561   7.111   4.281   7.239
36888SOL    HW212562   7.113   4.140   7.296
36889SOL     OW12563  11.810  14.631  13.095
36889SOL    HW112564  11.879  14.690  13.124
36889SOL    HW212565  11.731  14.685  13.096
36890SOL     OW12566  11.268   4.960   9.280
36890SOL    HW112567  11.302   5.046   9.305
36890SOL    HW212568  11.173   4.968   9.288
36891SOL     OW12569   4.269   1.611   5.277
36891SOL    HW112570   4.336   1.544   5.266
36891SOL    HW212571   4.270   1.660   5.195
36892SOL     OW12572  10.948   1.047   4.633
36892SOL    HW112573  10.869   1.100   4.622
36892SOL    HW212574  10.983   1.036   4.544
36893SOL     OW12575   0.415   5.320  12.058
36893SOL    HW112576   0.511   5.327  12.055
36893SOL    HW212577   0.384   5.383  11.993
36894SOL     OW12578   5.242   1.850   0.965
36894SOL    HW112579   5.255   1.937   0.929
36894SOL    HW212580   5.152   1.850   0.996
36895SOL     OW12581  10.757  12.093  11.398
36895SOL    HW112582  10.832  12.105  11.456
36895SOL    HW212583  10.691  12.154  11.432
36896SOL     OW12584   3.263   9.918   4.297
36896SOL    HW112585   3.170   9.903   4.314
36896SOL    HW212586   3.280  10.006   4.331
36897SOL     OW12587  14.533   9.659  14.073
36897SOL    HW112588  14.542   9.580  14.020
36897SOL    HW212589  14.589   9.643  14.149
36898SOL     OW12590  13.123   6.772  12.345
36898SOL    HW112591  13.135   6.770  12.250
36898SOL    HW212592  13.113   6.680  12.369
36899SOL     OW12593   9.082  13.019   2.667
36899SOL    HW112594   9.176  13.031   2.683
36899SOL    HW212595   9.058  12.943   2.719
36900SOL     OW12596   0.246   0.057   3.118
36900SOL    HW112597   0.332   0.098   3.116
36900SOL    HW212598   0.194   0.113   3.177
36901SOL     OW12599   6.416   0.332   3.234
36901SOL    HW112600   6.402   0.309   3.142
36901SOL    HW212601   6.340   0.297   3.280
36902SOL     OW12602  13.658   8.623   6.740
36902SOL    HW112603  13.671   8.656   6.651
36902SOL    HW212604  13.634   8.700   6.791
36903SOL     OW12605   8.705   7.503   7.588
36903SOL    HW112606   8.633   7.547   7.632
36903SOL    HW212607   8.778   7.564   7.594
36904SOL     OW12608  11.561   2.772   3.207
36904SOL    HW112609  11.611   2.695   3.181
36904SOL    HW212610  11.574   2.834   3.135
36905SOL     OW12611   7.049   2.928  12.880
36905SOL    HW112612   7.125   2.985  12.873
36905SOL    HW212613   7.023   2.935  12.972
36906SOL     OW12614   2.097   7.817   9.569
36906SOL    HW112615   2.109   7.726   9.593
36906SOL    HW212616   2.051   7.814   9.485
36907SOL     OW12617  12.453  14.664  10.857
36907SOL    HW112618  12.367  14.633  10.827
36907SOL    HW212619  12.510  14.655  10.781
36908SOL     OW12620   9.742  12.287   0.492
36908SOL    HW112621   9.714  12.368   0.448
36908SOL    HW212622   9.801  12.317   0.561
36909SOL     OW12623   3.212  13.344   3.793
36909SOL    HW112624   3.153  13.386   3.856
36909SOL    HW212625   3.186  13.379   3.708
36910SOL     OW12626  13.555   0.931   0.866
36910SOL    HW112627  13.466   0.907   0.891
36910SOL    HW212628  13.601   0.944   0.949
36911SOL     OW12629   1.569  12.280   7.442
36911SOL    HW112630   1.507  12.353   7.435
36911SOL    HW212631   1.645  12.309   7.390
36912SOL     OW12632  11.863  12.568  12.749
36912SOL    HW112633  11.925  12.495  12.738
36912SOL    HW212634  11.894  12.613  12.827
36913SOL     OW12635  14.519   3.384   9.565
36913SOL    HW112636  14.555   3.297   9.580
36913SOL    HW212637  14.597   3.441   9.560
36914SOL     OW12638   6.070   4.101   1.883
36914SOL    HW112639   6.048   4.152   1.805
36914SOL    HW212640   6.129   4.158   1.933
36915SOL     OW12641  11.540  14.663   4.409
36915SOL    HW112642  11.622  14.616   4.423
36915SOL    HW212643  11.524  14.709   4.491
36916SOL     OW12644   5.992   6.651   9.178
36916SOL    HW112645   5.982   6.561   9.149
36916SOL    HW212646   5.922   6.664   9.242
36917SOL     OW12647   9.143   3.781   3.399
36917SOL    HW112648   9.113   3.753   3.485
36917SOL    HW212649   9.192   3.862   3.415
36918SOL     OW12650   6.445  12.916  12.915
36918SOL    HW112651   6.412  12.967  12.842
36918SOL    HW212652   6.367  12.876  12.954
36919SOL     OW12653   5.395   3.665   0.465
36919SOL    HW112654   5.443   3.584   0.444
36919SOL    HW212655   5.406   3.676   0.559
36920SOL     OW12656   8.517   0.063  12.134
36920SOL    HW112657   8.536   0.005  12.207
36920SOL    HW212658   8.545   0.150  12.165
36921SOL     OW12659   5.136  10.834  13.403
36921SOL    HW112660   5.108  10.752  13.362
36921SOL    HW212661   5.056  10.885  13.412
36922SOL     OW12662  12.402  10.350   9.203
36922SOL    HW112663  12.338  10.412   9.169
36922SOL    HW212664  12.471  10.347   9.137
36923SOL     OW12665   2.290   1.015   9.305
36923SOL    HW112666   2.378   1.037   9.336
36923SOL    HW212667   2.300   1.004   9.211
36924SOL     OW12668   6.371   9.038   0.271
36924SOL    HW112669   6.346   8.956   0.313
36924SOL    HW212670   6.309   9.102   0.306
36925SOL     OW12671   4.715   9.947   3.796
36925SOL    HW112672   4.701   9.987   3.882
36925SOL    HW212673   4.717   9.853   3.813
36926SOL     OW12674  14.848  10.204   3.948
36926SOL    HW112675   0.064  10.226   3.966
36926SOL    HW212676  14.798  10.276   3.988
36927SOL     OW12677   9.726  11.877   8.232
36927SOL    HW112678   9.734  11.806   8.169
36927SOL    HW212679   9.761  11.840   8.314
36928SOL     OW12680  14.147   8.099   3.729
36928SOL    HW112681  14.192   8.074   3.810
36928SOL    HW212682  14.133   8.194   3.739
36929SOL     OW12683   1.716   6.016   7.648
36929SOL    HW112684   1.797   6.068   7.650
36929SOL    HW212685   1.672   6.036   7.730
36930SOL     OW12686  13.063   9.607   6.004
36930SOL    HW112687  12.977   9.623   6.043
36930SOL    HW212688  13.075   9.679   5.941
36931SOL     OW12689  12.523   7.994   6.136
36931SOL    HW112690  12.465   7.921   6.117
36931SOL    HW212691  12.542   8.033   6.050
36932SOL     OW12692   3.096   6.159   3.754
36932SOL    HW112693   3.136   6.197   3.833
36932SOL    HW212694   3.122   6.067   3.756
36933SOL     OW12695   7.125   8.042   3.586
36933SOL    HW112696   7.202   8.004   3.630
36933SOL    HW212697   7.110   7.985   3.511
36934SOL     OW12698   7.163   2.123   2.973
36934SOL    HW112699   7.254   2.115   3.003
36934SOL    HW212700   7.138   2.034   2.951
36935SOL     OW12701   4.559  14.800   9.165
36935SOL    HW112702   4.563   0.018   9.145
36935SOL    HW212703   4.625  14.760   9.109
36936SOL     OW12704  11.676  12.381   6.013
36936SOL    HW112705  11.616  12.454   6.028
36936SOL    HW212706  11.621  12.303   6.016
36937SOL     OW12707   5.239   2.772   7.889
36937SOL    HW112708   5.210   2.692   7.933
36937SOL    HW212709   5.201   2.766   7.801
36938SOL     OW12710   7.993  14.849   0.408
36938SOL    HW112711   7.984  14.754   0.403
36938SOL    HW212712   8.051  14.872   0.336
36939SOL     OW12713   8.693   2.783  13.871
36939SOL    HW112714   8.784   2.784  13.900
36939SOL    HW212715   8.696   2.746  13.783
36940SOL     OW12716   1.558   3.747   6.854
36940SOL    HW112717   1.631   3.809   6.858
36940SOL    HW212718   1.595   3.664   6.885
36941SOL     OW12719  12.649  11.699   4.555
36941SOL    HW112720  12.653  11.771   4.618
36941SOL    HW212721  12.687  11.624   4.601
36942SOL     OW12722  13.744   3.688  14.677
36942SOL    HW112723  13.806   3.636  14.626
36942SOL    HW212724  13.675   3.626  14.701
36943SOL     OW12725  12.316   6.164  14.840
36943SOL    HW112726  12.236   6.182   0.014
36943SOL    HW212727  12.373   6.120   0.028
36944SOL     OW12728   3.816   9.844  11.266
36944SOL    HW112729   3.828   9.796  11.348
36944SOL    HW212730   3.799   9.934  11.293
36945SOL     OW12731   2.072  14.605   4.132
36945SOL    HW112732   1.991  14.657   4.128
36945SOL    HW212733   2.059  14.547   4.207
36946SOL     OW12734   0.724  12.871   3.274
36946SOL    HW112735   0.639  12.895   3.237
36946SOL    HW212736   0.737  12.933   3.346
36947SOL     OW12737   4.771   6.044  14.281
36947SOL    HW112738   4.689   6.058  14.234
36947SOL    HW212739   4.748   6.047  14.373
36948SOL     OW12740  13.348   5.074   8.504
36948SOL    HW112741  13.320   5.154   8.460
36948SOL    HW212742  13.267   5.029   8.526
36949SOL     OW12743  14.843   6.451   2.451
36949SOL    HW112744   0.022   6.476   2.376
36949SOL    HW212745  14.782   6.386   2.416
36950SOL     OW12746   5.891   5.750   9.529
36950SOL    HW112747   5.838   5.707   9.596
36950SOL    HW212748   5.895   5.687   9.457
36951SOL     OW12749   6.627  14.519  12.218
36951SOL    HW112750   6.713  14.551  12.246
36951SOL    HW212751   6.646  14.443  12.162
36952SOL     OW12752  11.687  12.212   9.795
36952SOL    HW112753  11.637  12.285   9.759
36952SOL    HW212754  11.752  12.253   9.852
36953SOL     OW12755  13.509   0.950  14.780
36953SOL    HW112756  13.583   0.989  14.734
36953SOL    HW212757  13.547   0.915  14.860
36954SOL     OW12758   2.256   5.705   8.438
36954SOL    HW112759   2.309   5.784   8.437
36954SOL    HW212760   2.209   5.709   8.522
36955SOL     OW12761   8.150   1.852   3.637
36955SOL    HW112762   8.234   1.817   3.609
36955SOL    HW212763   8.148   1.839   3.732
36956SOL     OW12764   1.237   7.142   4.609
36956SOL    HW112765   1.240   7.140   4.513
36956SOL    HW212766   1.244   7.050   4.635
36957SOL     OW12767  10.481   0.057   8.662
36957SOL    HW112768  10.482  14.874   8.738
36957SOL    HW212769  10.564   0.104   8.667
36958SOL     OW12770  10.335  12.406   7.961
36958SOL    HW112771  10.376  12.454   7.889
36958SOL    HW212772  10.250  12.379   7.926
36959SOL     OW12773   2.500   0.547  13.408
36959SOL    HW112774   2.466   0.595  13.483
36959SOL    HW212775   2.558   0.609  13.363
36960SOL     OW12776  14.219   2.933  10.330
36960SOL    HW112777  14.200   2.999  10.263
36960SOL    HW212778  14.284   2.974  10.387
36961SOL     OW12779   3.992   9.059  11.541
36961SOL    HW112780   4.058   9.025  11.481
36961SOL    HW212781   3.909   9.023  11.508
36962SOL     OW12782   8.659  11.908   7.985
36962SOL    HW112783   8.699  11.907   7.898
36962SOL    HW212784   8.693  11.829   8.028
36963SOL     OW12785   9.989  13.330   5.619
36963SOL    HW112786   9.983  13.250   5.671
36963SOL    HW212787  10.033  13.302   5.538
36964SOL     OW12788  12.318   6.171  13.318
36964SOL    HW112789  12.238   6.177  13.266
36964SOL    HW212790  12.293   6.205  13.404
36965SOL     OW12791  10.687   7.328   1.682
36965SOL    HW112792  10.742   7.406   1.677
36965SOL    HW212793  10.600   7.362   1.704
36966SOL     OW12794  12.704  13.933  14.823
36966SOL    HW112795  12.758  14.003  14.859
36966SOL    HW212796  12.704  13.865   0.016
36967SOL     OW12797  11.417  13.094   4.197
36967SOL    HW112798  11.397  13.181   4.229
36967SOL    HW212799  11.470  13.054   4.267
36968SOL     OW12800   8.406   6.595   6.593
36968SOL    HW112801   8.488   6.594   6.642
36968SOL    HW212802   8.357   6.670   6.628
36969SOL     OW12803  12.363   0.436   8.572
36969SOL    HW112804  12.444   0.417   8.525
36969SOL    HW212805  12.316   0.497   8.515
36970SOL     OW12806  13.431   6.940  10.354
36970SOL    HW112807  13.497   6.981  10.298
36970SOL    HW212808  13.352   6.993  10.342
36971SOL     OW12809  13.509  12.596  12.141
36971SOL    HW112810  13.460  12.563  12.066
36971SOL    HW212811  13.542  12.682  12.113
36972SOL     OW12812   5.151  13.576   2.242
36972SOL    HW112813   5.190  13.654   2.203
36972SOL    HW212814   5.064  13.571   2.202
36973SOL     OW12815  10.630   2.484   5.210
36973SOL    HW112816  10.558   2.438   5.168
36973SOL    HW212817  10.704   2.473   5.150
36974SOL     OW12818  12.216   6.850   5.644
36974SOL    HW112819  12.137   6.801   5.623
36974SOL    HW212820  12.221   6.848   5.740
36975SOL     OW12821  11.359   5.985  11.236
36975SOL    HW112822  11.327   5.960  11.149
36975SOL    HW212823  11.378   5.902  11.279
36976SOL     OW12824   4.628   9.939  11.743
36976SOL    HW112825   4.688  10.013  11.733
36976SOL    HW212826   4.553   9.976  11.791
36977SOL     OW12827  12.150  11.500   1.221
36977SOL    HW112828  12.128  11.460   1.305
36977SOL    HW212829  12.241  11.529   1.232
36978SOL     OW12830   8.390  12.481  10.461
36978SOL    HW112831   8.449  12.556  10.458
36978SOL    HW212832   8.444  12.409  10.494
36979SOL     OW12833   0.685   8.396   3.101
36979SOL    HW112834   0.647   8.315   3.135
36979SOL    HW212835   0.772   8.401   3.139
36980SOL     OW12836   1.327   1.074   5.647
36980SOL    HW112837   1.272   1.035   5.715
36980SOL    HW212838   1.315   1.017   5.571
36981SOL     OW12839   2.313   3.180   0.611
36981SOL    HW112840   2.337   3.157   0.521
36981SOL    HW212841   2.266   3.104   0.644
36982SOL     OW12842   6.779  11.783  14.657
36982SOL    HW112843   6.756  11.692  14.640
36982SOL    HW212844   6.825  11.812  14.578
36983SOL     OW12845   7.953   3.062  10.749
36983SOL    HW112846   7.940   3.057  10.844
36983SOL    HW212847   7.937   2.973  10.718
36984SOL     OW12848  13.419  12.048   6.448
36984SOL    HW112849  13.467  12.003   6.378
36984SOL    HW212850  13.349  12.094   6.403
36985SOL     OW12851   9.715   9.736   7.120
36985SOL    HW112852   9.751   9.653   7.150
36985SOL    HW212853   9.687   9.780   7.201
36986SOL     OW12854   0.174   3.012   4.416
36986SOL    HW112855   0.135   3.092   4.379
36986SOL    HW212856   0.242   2.988   4.354
36987SOL     OW12857   8.305   6.353   8.103
36987SOL    HW112858   8.300   6.441   8.066
36987SOL    HW212859   8.288   6.295   8.030
36988SOL     OW12860   1.838  14.271   9.586
36988SOL    HW112861   1.885  14.307   9.661
36988SOL    HW212862   1.791  14.345   9.548
36989SOL     OW12863   5.699   9.378   3.458
36989SOL    HW112864   5.774   9.387   3.398
36989SOL    HW212865   5.686   9.466   3.493
36990SOL     OW12866  13.583  13.202   9.721
36990SOL    HW112867  13.663  13.151   9.706
36990SOL    HW212868  13.561  13.185   9.813
36991SOL     OW12869   9.594   1.152   7.228
36991SOL    HW112870   9.575   1.075   7.280
36991SOL    HW212871   9.678   1.132   7.186
36992SOL     OW12872   4.581   7.507   8.710
36992SOL    HW112873   4.663   7.513   8.662
36992SOL    HW212874   4.583   7.420   8.750
36993SOL     OW12875  10.020   4.420  14.421
36993SOL    HW112876  10.012   4.363  14.497
36993SOL    HW212877  10.099   4.390  14.376
36994SOL     OW12878   8.897   9.855   0.556
36994SOL    HW112879   8.966   9.853   0.490
36994SOL    HW212880   8.933   9.806   0.630
36995SOL     OW12881   7.663   3.740   8.063
36995SOL    HW112882   7.695   3.727   8.152
36995SOL    HW212883   7.729   3.795   8.021
36996SOL     OW12884   6.427   3.604  10.568
36996SOL    HW112885   6.420   3.509  10.576
36996SOL    HW212886   6.422   3.636  10.658
36997SOL     OW12887  11.432   9.599  12.193
36997SOL    HW112888  11.503   9.662  12.183
36997SOL    HW212889  11.359   9.651  12.227
36998SOL     OW12890  11.502   3.258   4.355
36998SOL    HW112891  11.526   3.226   4.442
36998SOL    HW212892  11.414   3.222   4.340
36999SOL     OW12893  12.958  14.512   8.985
36999SOL    HW112894  13.050  14.538   8.981
36999SOL    HW212895  12.912  14.590   9.014
37000SOL     OW12896  13.228   1.738   2.602
37000SOL    HW112897  13.177   1.817   2.617
37000SOL    HW212898  13.319   1.766   2.611
37001SOL     OW12899   0.525   9.546   5.719
37001SOL    HW112900   0.514   9.502   5.634
37001SOL    HW212901   0.458   9.614   5.719
37002SOL     OW12902  14.623  14.042   5.696
37002SOL    HW112903  14.615  13.975   5.764
37002SOL    HW212904  14.613  14.125   5.742
37003SOL     OW12905   1.486  14.614   8.791
37003SOL    HW112906   1.414  14.575   8.840
37003SOL    HW212907   1.522  14.542   8.739
37004SOL     OW12908  13.408  13.842   0.662
37004SOL    HW112909  13.343  13.828   0.731
37004SOL    HW212910  13.491  13.849   0.708
37005SOL     OW12911  12.652  11.932  13.216
37005SOL    HW112912  12.745  11.934  13.241
37005SOL    HW212913  12.652  11.946  13.121
37006SOL     OW12914   7.963  12.524   5.365
37006SOL    HW112915   8.042  12.560   5.405
37006SOL    HW212916   7.986  12.434   5.343
37007SOL     OW12917  13.695   6.430  12.615
37007SOL    HW112918  13.607   6.465  12.599
37007SOL    HW212919  13.713   6.454  12.707
37008SOL     OW12920   2.547   1.615   4.078
37008SOL    HW112921   2.587   1.650   3.998
37008SOL    HW212922   2.453   1.627   4.063
37009SOL     OW12923   3.477  12.469   3.682
37009SOL    HW112924   3.545  12.403   3.694
37009SOL    HW212925   3.478  12.487   3.588
37010SOL     OW12926  14.759   4.786   2.789
37010SOL    HW112927  14.772   4.708   2.844
37010SOL    HW212928  14.746   4.750   2.701
37011SOL     OW12929   0.337   3.914   0.415
37011SOL    HW112930   0.327   3.999   0.372
37011SOL    HW212931   0.414   3.875   0.372
37012SOL     OW12932   4.640   2.167   9.261
37012SOL    HW112933   4.641   2.105   9.188
37012SOL    HW212934   4.686   2.244   9.228
37013SOL     OW12935  12.716  10.428   0.614
37013SOL    HW112936  12.782  10.359   0.627
37013SOL    HW212937  12.708  10.434   0.519
37014SOL     OW12938  14.754  10.735  11.971
37014SOL    HW112939  14.801  10.651  11.978
37014SOL    HW212940  14.663  10.712  11.986
37015SOL     OW12941  11.032   2.996   4.180
37015SOL    HW112942  10.979   3.055   4.126
37015SOL    HW212943  11.058   2.926   4.120
37016SOL     OW12944   9.991   0.912  13.481
37016SOL    HW112945  10.006   0.946  13.393
37016SOL    HW212946  10.072   0.931  13.528
37017SOL     OW12947   8.134   8.546  14.554
37017SOL    HW112948   8.115   8.466  14.505
37017SOL    HW212949   8.130   8.616  14.489
37018SOL     OW12950   9.230   1.779   0.825
37018SOL    HW112951   9.155   1.766   0.767
37018SOL    HW212952   9.294   1.715   0.795
37019SOL     OW12953   7.793   3.991   8.558
37019SOL    HW112954   7.756   4.015   8.473
37019SOL    HW212955   7.869   3.938   8.536
37020SOL     OW12956  11.446  14.378   3.968
37020SOL    HW112957  11.504  14.321   3.917
37020SOL    HW212958  11.463  14.353   4.059
37021SOL     OW12959  10.989   8.268   8.709
37021SOL    HW112960  11.072   8.241   8.749
37021SOL    HW212961  10.924   8.260   8.779
37022SOL     OW12962   3.846   6.153  12.769
37022SOL    HW112963   3.764   6.165  12.721
37022SOL    HW212964   3.912   6.192  12.712
37023SOL     OW12965   9.992   6.215  14.423
37023SOL    HW112966   9.976   6.305  14.452
37023SOL    HW212967   9.917   6.165  14.456
37024SOL     OW12968  11.731   5.503  11.434
37024SOL    HW112969  11.821   5.494  11.402
37024SOL    HW212970  11.682   5.536  11.359
37025SOL     OW12971   6.933   3.785  12.442
37025SOL    HW112972   6.929   3.761  12.350
37025SOL    HW212973   6.866   3.852  12.453
37026SOL     OW12974  12.019   3.464   1.845
37026SOL    HW112975  12.002   3.370   1.847
37026SOL    HW212976  12.073   3.480   1.923
37027SOL     OW12977  10.453   1.822   7.357
37027SOL    HW112978  10.543   1.790   7.370
37027SOL    HW212979  10.404   1.784   7.430
37028SOL     OW12980  11.461  10.749   2.006
37028SOL    HW112981  11.457  10.682   2.074
37028SOL    HW212982  11.455  10.701   1.924
37029SOL     OW12983   7.875   4.184  12.088
37029SOL    HW112984   7.878   4.226  12.002
37029SOL    HW212985   7.822   4.105  12.075
37030SOL     OW12986   5.266   8.389   9.322
37030SOL    HW112987   5.294   8.298   9.335
37030SOL    HW212988   5.177   8.382   9.289
37031SOL     OW12989  13.418   9.476  10.083
37031SOL    HW112990  13.332   9.489  10.122
37031SOL    HW212991  13.445   9.563  10.055
37032SOL     OW12992   0.190   0.337   2.856
37032SOL    HW112993   0.246   0.261   2.839
37032SOL    HW212994   0.130   0.307   2.925
37033SOL     OW12995  12.354   1.787  10.384
37033SOL    HW112996  12.273   1.752  10.421
37033SOL    HW212997  12.420   1.774  10.453
37034SOL     OW12998   5.553   6.326   7.196
37034SOL    HW112999   5.484   6.390   7.214
37034SOL    HW213000   5.631   6.378   7.177
37035SOL     OW13001  12.329  10.577   2.059
37035SOL    HW113002  12.389  10.502   2.053
37035SOL    HW213003  12.333  10.616   1.972
37036SOL     OW13004  13.371  13.188   7.690
37036SOL    HW113005  13.458  13.215   7.661
37036SOL    HW213006  13.332  13.268   7.725
37037SOL     OW13007   9.088  11.904   1.783
37037SOL    HW113008   9.088  11.869   1.694
37037SOL    HW213009   9.173  11.880   1.818
37038SOL     OW13010  13.223   2.892   3.656
37038SOL    HW113011  13.141   2.855   3.625
37038SOL    HW213012  13.280   2.817   3.671
37039SOL     OW13013   4.164   9.747   0.001
37039SOL    HW113014   4.128   9.665  14.844
37039SOL    HW213015   4.230   9.772  14.811
37040SOL     OW13016   1.730  10.904   4.151
37040SOL    HW113017   1.730  10.983   4.205
37040SOL    HW213018   1.795  10.847   4.192
37041SOL     OW13019   3.779   0.344   9.870
37041SOL    HW113020   3.697   0.297   9.888
37041SOL    HW213021   3.751   0.431   9.842
37042SOL     OW13022   7.640  13.106   8.445
37042SOL    HW113023   7.585  13.041   8.487
37042SOL    HW213024   7.633  13.086   8.351
37043SOL     OW13025  11.537   8.878   1.830
37043SOL    HW113026  11.599   8.815   1.867
37043SOL    HW213027  11.458   8.827   1.813
37044SOL     OW13028  13.208   6.048  13.673
37044SOL    HW113029  13.186   6.141  13.666
37044SOL    HW213030  13.188   6.011  13.587
37045SOL     OW13031   8.043   8.295   5.752
37045SOL    HW113032   8.020   8.285   5.844
37045SOL    HW213033   8.120   8.352   5.752
37046SOL     OW13034   9.509  11.030   0.600
37046SOL    HW113035   9.564  11.053   0.675
37046SOL    HW213036   9.429  10.995   0.639
37047SOL     OW13037  12.792  11.750   0.904
37047SOL    HW113038  12.829  11.764   0.991
37047SOL    HW213039  12.697  11.751   0.918
37048SOL     OW13040  13.069   4.556   8.986
37048SOL    HW113041  13.123   4.536   8.909
37048SOL    HW213042  13.018   4.633   8.960
37049SOL     OW13043   9.122  12.904   5.735
37049SOL    HW113044   9.064  12.906   5.659
37049SOL    HW213045   9.119  12.994   5.770
37050SOL     OW13046   8.675   8.045   3.401
37050SOL    HW113047   8.584   8.072   3.387
37050SOL    HW213048   8.720   8.124   3.428
37051SOL     OW13049  10.201  10.070   4.933
37051SOL    HW113050  10.110  10.042   4.935
37051SOL    HW213051  10.197  10.165   4.935
37052SOL     OW13052   8.313   9.811   0.100
37052SOL    HW113053   8.225   9.799   0.066
37052SOL    HW213054   8.301   9.847   0.188
37053SOL     OW13055   5.044   7.799   6.961
37053SOL    HW113056   5.012   7.879   6.919
37053SOL    HW213057   5.115   7.829   7.018
37054SOL     OW13058   1.183  13.667  10.673
37054SOL    HW113059   1.171  13.581  10.633
37054SOL    HW213060   1.116  13.722  10.634
37055SOL     OW13061   9.826   5.139   7.886
37055SOL    HW113062   9.829   5.060   7.832
37055SOL    HW213063   9.852   5.209   7.826
37056SOL     OW13064   8.496   6.882  11.009
37056SOL    HW113065   8.442   6.814  11.049
37056SOL    HW213066   8.566   6.898  11.072
37057SOL     OW13067   5.732  14.088   8.077
37057SOL    HW113068   5.739  14.030   8.001
37057SOL    HW213069   5.652  14.137   8.062
37058SOL     OW13070  11.755   9.702   8.021
37058SOL    HW113071  11.754   9.706   7.926
37058SOL    HW213072  11.847   9.704   8.044
37059SOL     OW13073   2.853   5.790   2.611
37059SOL    HW113074   2.905   5.865   2.584
37059SOL    HW213075   2.792   5.826   2.675
37060SOL     OW13076   0.355   2.581   5.527
37060SOL    HW113077   0.297   2.582   5.451
37060SOL    HW213078   0.330   2.503   5.575
37061SOL     OW13079   1.020  13.849  10.519
37061SOL    HW113080   0.947  13.895  10.559
37061SOL    HW213081   1.059  13.912  10.459
37062SOL     OW13082  13.177   2.864  12.421
37062SOL    HW113083  13.207   2.828  12.505
37062SOL    HW213084  13.082   2.855  12.425
37063SOL     OW13085   7.616   8.365  12.705
37063SOL    HW113086   7.700   8.412  12.708
37063SOL    HW213087   7.565   8.412  12.638
37064SOL     OW13088  13.724  12.602   5.985
37064SOL    HW113089  13.653  12.563   6.037
37064SOL    HW213090  13.777  12.651   6.048
37065SOL     OW13091   7.538  14.633   7.440
37065SOL    HW113092   7.628  14.600   7.435
37065SOL    HW213093   7.489  14.562   7.481
37066SOL     OW13094   0.486  10.414   9.326
37066SOL    HW113095   0.470  10.504   9.355
37066SOL    HW213096   0.419  10.362   9.369
37067SOL     OW13097   4.492   2.981  11.281
37067SOL    HW113098   4.420   3.020  11.332
37067SOL    HW213099   4.525   3.052  11.227
37068SOL     OW13100   9.794   8.629  12.732
37068SOL    HW113101   9.717   8.586  12.695
37068SOL    HW213102   9.792   8.717  12.695
37069SOL     OW13103   9.380  13.039   0.631
37069SOL    HW113104   9.455  13.039   0.573
37069SOL    HW213105   9.378  12.951   0.668
37070SOL     OW13106  14.488   8.154  14.791
37070SOL    HW113107  14.442   8.150   0.000
37070SOL    HW213108  14.465   8.072  14.747
37071SOL     OW13109  14.521   6.452   4.701
37071SOL    HW113110  14.485   6.364   4.685
37071SOL    HW213111  14.570   6.472   4.621
37072SOL     OW13112  11.729   8.413   5.866
37072SOL    HW113113  11.737   8.381   5.776
37072SOL    HW213114  11.637   8.399   5.889
37073SOL     OW13115   2.495   7.306  11.608
37073SOL    HW113116   2.549   7.328  11.532
37073SOL    HW213117   2.417   7.359  11.599
37074SOL     OW13118   5.032   3.827  10.604
37074SOL    HW113119   4.966   3.761  10.584
37074SOL    HW213120   5.050   3.869  10.520
37075SOL     OW13121   3.870  11.601  10.201
37075SOL    HW113122   3.812  11.583  10.275
37075SOL    HW213123   3.945  11.647  10.239
37076SOL     OW13124   6.484   3.173   9.297
37076SOL    HW113125   6.417   3.115   9.332
37076SOL    HW213126   6.435   3.233   9.240
37077SOL     OW13127   3.536  12.166   5.163
37077SOL    HW113128   3.480  12.223   5.214
37077SOL    HW213129   3.487  12.085   5.154
37078SOL     OW13130   9.900   1.915   5.652
37078SOL    HW113131   9.913   1.921   5.558
37078SOL    HW213132   9.838   1.843   5.663
37079SOL     OW13133   2.504   4.489   6.229
37079SOL    HW113134   2.550   4.550   6.286
37079SOL    HW213135   2.422   4.534   6.207
37080SOL     OW13136   6.671   1.681   6.448
37080SOL    HW113137   6.681   1.721   6.362
37080SOL    HW213138   6.678   1.755   6.509
37081SOL     OW13139  13.407   6.465   4.259
37081SOL    HW113140  13.475   6.431   4.200
37081SOL    HW213141  13.448   6.465   4.345
37082SOL     OW13142  11.563   9.852   3.312
37082SOL    HW113143  11.598   9.937   3.340
37082SOL    HW213144  11.573   9.795   3.388
37083SOL     OW13145  12.848   4.217   7.832
37083SOL    HW113146  12.755   4.239   7.836
37083SOL    HW213147  12.873   4.235   7.741
37084SOL     OW13148   7.883  10.171  10.511
37084SOL    HW113149   7.928  10.160  10.427
37084SOL    HW213150   7.793  10.193  10.486
37085SOL     OW13151   4.014  12.420  13.726
37085SOL    HW113152   3.999  12.363  13.651
37085SOL    HW213153   4.078  12.484  13.695
37086SOL     OW13154  14.395   6.741   1.672
37086SOL    HW113155  14.332   6.706   1.609
37086SOL    HW213156  14.401   6.673   1.740
37087SOL     OW13157  13.857   3.569  10.016
37087SOL    HW113158  13.835   3.559  10.109
37087SOL    HW213159  13.789   3.629   9.983
37088SOL     OW13160   2.670   1.385   4.204
37088SOL    HW113161   2.711   1.446   4.142
37088SOL    HW213162   2.582   1.419   4.217
37089SOL     OW13163   5.103   1.257   4.250
37089SOL    HW113164   5.026   1.311   4.270
37089SOL    HW213165   5.173   1.320   4.232
37090SOL     OW13166   8.475   3.875  10.846
37090SOL    HW113167   8.471   3.951  10.904
37090SOL    HW213168   8.563   3.840  10.858
37091SOL     OW13169  12.565   2.266   7.697
37091SOL    HW113170  12.559   2.357   7.728
37091SOL    HW213171  12.504   2.218   7.753
37092SOL     OW13172   3.535  11.641   7.533
37092SOL    HW113173   3.526  11.729   7.569
37092SOL    HW213174   3.493  11.584   7.597
37093SOL     OW13175   9.054   1.313  13.510
37093SOL    HW113176   9.021   1.304  13.600
37093SOL    HW213177   9.081   1.405  13.504
37094SOL     OW13178   1.492  14.545   7.476
37094SOL    HW113179   1.481  14.631   7.516
37094SOL    HW213180   1.410  14.529   7.429
37095SOL     OW13181   3.718   5.336  11.244
37095SOL    HW113182   3.727   5.383  11.326
37095SOL    HW213183   3.676   5.398  11.184
37096SOL     OW13184  11.380   4.367  10.356
37096SOL    HW113185  11.329   4.364  10.436
37096SOL    HW213186  11.319   4.343  10.287
37097SOL     OW13187  13.626   7.802   0.579
37097SOL    HW113188  13.594   7.794   0.489
37097SOL    HW213189  13.605   7.717   0.619
37098SOL     OW13190  12.385   6.311   6.016
37098SOL    HW113191  12.299   6.332   5.979
37098SOL    HW213192  12.394   6.217   6.003
37099SOL     OW13193   6.063   9.280   3.094
37099SOL    HW113194   6.153   9.307   3.079
37099SOL    HW213195   6.021   9.284   3.007
37100SOL     OW13196  13.528   9.699   2.167
37100SOL    HW113197  13.540   9.610   2.133
37100SOL    HW213198  13.583   9.703   2.245
37101SOL     OW13199  13.357  10.717   9.549
37101SOL    HW113200  13.394  10.788   9.498
37101SOL    HW213201  13.282  10.756   9.594
37102SOL     OW13202  12.536  11.418   2.004
37102SOL    HW113203  12.522  11.327   1.976
37102SOL    HW213204  12.608  11.449   1.949
37103SOL     OW13205  12.000   9.102   8.818
37103SOL    HW113206  12.090   9.111   8.847
37103SOL    HW213207  11.985   9.178   8.761
37104SOL     OW13208  10.303   1.889  13.930
37104SOL    HW113209  10.307   1.806  13.977
37104SOL    HW213210  10.223   1.931  13.961
37105SOL     OW13211   4.724   4.953  10.489
37105SOL    HW113212   4.780   4.876  10.484
37105SOL    HW213213   4.724   4.989  10.400
37106SOL     OW13214   5.958  14.327  12.271
37106SOL    HW113215   5.938  14.244  12.228
37106SOL    HW213216   5.890  14.338  12.338
37107SOL     OW13217   2.388   7.062   3.630
37107SOL    HW113218   2.477   7.095   3.615
37107SOL    HW213219   2.331   7.132   3.599
37108SOL     OW13220   5.771  13.706   4.904
37108SOL    HW113221   5.713  13.699   4.980
37108SOL    HW213222   5.753  13.627   4.853
37109SOL     OW13223   2.898   3.950   3.506
37109SOL    HW113224   2.887   4.013   3.435
37109SOL    HW213225   2.907   4.004   3.585
37110SOL     OW13226   6.614   8.634  10.946
37110SOL    HW113227   6.597   8.542  10.924
37110SOL    HW213228   6.622   8.677  10.861
37111SOL     OW13229   4.295  12.574  13.141
37111SOL    HW113230   4.235  12.516  13.095
37111SOL    HW213231   4.338  12.517  13.205
37112SOL     OW13232   1.298   4.592   0.186
37112SOL    HW113233   1.277   4.569   0.095
37112SOL    HW213234   1.289   4.687   0.190
37113SOL     OW13235   6.717   9.066   6.050
37113SOL    HW113236   6.723   8.971   6.045
37113SOL    HW213237   6.792   9.092   6.104
37114SOL     OW13238  10.325  12.391   2.879
37114SOL    HW113239  10.231  12.384   2.900
37114SOL    HW213240  10.364  12.427   2.959
37115SOL     OW13241   8.227   2.073   4.749
37115SOL    HW113242   8.285   2.015   4.700
37115SOL    HW213243   8.155   2.092   4.689
37116SOL     OW13244   1.386   5.884  14.062
37116SOL    HW113245   1.360   5.926  13.980
37116SOL    HW213246   1.471   5.844  14.043
37117SOL     OW13247   0.397   1.827  14.351
37117SOL    HW113248   0.324   1.830  14.413
37117SOL    HW213249   0.460   1.891  14.387
37118SOL     OW13250   1.372   8.135  12.452
37118SOL    HW113251   1.316   8.165  12.524
37118SOL    HW213252   1.366   8.040  12.455
37119SOL     OW13253   4.958   3.174   9.786
37119SOL    HW113254   4.899   3.188   9.859
37119SOL    HW213255   4.908   3.200   9.709
37120SOL     OW13256  12.709   0.336  12.861
37120SOL    HW113257  12.681   0.365  12.947
37120SOL    HW213258  12.633   0.351  12.804
37121SOL     OW13259   8.319   6.883  13.773
37121SOL    HW113260   8.345   6.972  13.795
37121SOL    HW213261   8.223   6.884  13.776
37122SOL     OW13262   4.388   4.883   2.538
37122SOL    HW113263   4.408   4.924   2.453
37122SOL    HW213264   4.472   4.848   2.568
37123SOL     OW13265   0.463  10.179   0.986
37123SOL    HW113266   0.472  10.269   0.956
37123SOL    HW213267   0.496  10.126   0.913
37124SOL     OW13268  14.371   6.491   4.940
37124SOL    HW113269  14.435   6.510   4.871
37124SOL    HW213270  14.423   6.485   5.020
37125SOL     OW13271   4.134   5.130   6.830
37125SOL    HW113272   4.177   5.140   6.745
37125SOL    HW213273   4.103   5.039   6.831
37126SOL     OW13274   8.910   0.707   1.621
37126SOL    HW113275   8.970   0.780   1.640
37126SOL    HW213276   8.943   0.635   1.674
37127SOL     OW13277  10.534   8.727  12.920
37127SOL    HW113278  10.480   8.800  12.950
37127SOL    HW213279  10.544   8.742  12.826
37128SOL     OW13280   0.707   3.518   2.721
37128SOL    HW113281   0.661   3.439   2.695
37128SOL    HW213282   0.708   3.516   2.817
37129SOL     OW13283   6.825   4.928   6.541
37129SOL    HW113284   6.763   4.897   6.475
37129SOL    HW213285   6.885   4.855   6.555
37130SOL     OW13286   6.975   8.699   8.484
37130SOL    HW113287   6.920   8.656   8.418
37130SOL    HW213288   6.944   8.789   8.486
37131SOL     OW13289   2.939   3.684   5.851
37131SOL    HW113290   2.908   3.752   5.792
37131SOL    HW213291   2.997   3.729   5.912
37132SOL     OW13292   7.382  10.948   0.424
37132SOL    HW113293   7.366  10.884   0.493
37132SOL    HW213294   7.396  11.031   0.469
37133SOL     OW13295   0.779  13.888   3.031
37133SOL    HW113296   0.706  13.938   3.067
37133SOL    HW213297   0.756  13.876   2.938
37134SOL     OW13298  14.048   7.762   2.496
37134SOL    HW113299  13.985   7.820   2.454
37134SOL    HW213300  14.016   7.754   2.586
37135SOL     OW13301  12.288  11.495   7.974
37135SOL    HW113302  12.339  11.487   8.055
37135SOL    HW213303  12.314  11.579   7.938
37136SOL     OW13304   9.945  12.646   7.969
37136SOL    HW113305   9.878  12.580   7.986
37136SOL    HW213306  10.024  12.595   7.948
37137SOL     OW13307  12.609   9.269   3.976
37137SOL    HW113308  12.602   9.173   3.972
37137SOL    HW213309  12.543   9.301   3.915
37138SOL     OW13310   9.030   0.946   7.747
37138SOL    HW113311   8.976   0.867   7.748
37138SOL    HW213312   9.005   0.994   7.826
37139SOL     OW13313   4.190   9.330   7.272
37139SOL    HW113314   4.147   9.253   7.234
37139SOL    HW213315   4.157   9.403   7.221
37140SOL     OW13316   2.202  12.052  12.017
37140SOL    HW113317   2.269  12.095  12.071
37140SOL    HW213318   2.151  12.000  12.080
37141SOL     OW13319   3.124   8.120   0.694
37141SOL    HW113320   3.076   8.086   0.769
37141SOL    HW213321   3.203   8.066   0.688
37142SOL     OW13322   6.039   8.799  12.392
37142SOL    HW113323   5.976   8.733  12.422
37142SOL    HW213324   6.013   8.816  12.301
37143SOL     OW13325   9.709   1.875   6.042
37143SOL    HW113326   9.743   1.793   6.007
37143SOL    HW213327   9.645   1.904   5.977
37144SOL     OW13328   2.331   4.796  10.367
37144SOL    HW113329   2.312   4.835  10.452
37144SOL    HW213330   2.392   4.724  10.386
37145SOL     OW13331  14.729   2.589   6.166
37145SOL    HW113332  14.673   2.660   6.197
37145SOL    HW213333  14.680   2.509   6.185
37146SOL     OW13334   1.671   9.477   2.196
37146SOL    HW113335   1.590   9.513   2.161
37146SOL    HW213336   1.701   9.542   2.259
37147SOL     OW13337   6.283  14.218  13.824
37147SOL    HW113338   6.283  14.248  13.733
37147SOL    HW213339   6.372  14.236  13.856
37148SOL     OW13340   0.036   9.594   6.926
37148SOL    HW113341   0.074   9.606   7.013
37148SOL    HW213342   0.052   9.502   6.905
37149SOL     OW13343   7.944  10.382  14.800
37149SOL    HW113344   7.868  10.416  14.752
37149SOL    HW213345   7.975  10.456  14.851
37150SOL     OW13346   0.213   9.925   8.078
37150SOL    HW113347   0.290   9.957   8.125
37150SOL    HW213348   0.155   9.893   8.147
37151SOL     OW13349   4.898   5.482  10.465
37151SOL    HW113350   4.923   5.470  10.557
37151SOL    HW213351   4.940   5.409  10.420
37152SOL     OW13352  12.957   1.746  13.146
37152SOL    HW113353  12.891   1.730  13.079
37152SOL    HW213354  12.967   1.661  13.190
37153SOL     OW13355   9.563   9.784   4.075
37153SOL    HW113356   9.644   9.816   4.036
37153SOL    HW213357   9.509   9.862   4.085
37154SOL     OW13358  13.044   9.025  10.446
37154SOL    HW113359  13.102   8.955  10.475
37154SOL    HW213360  13.083   9.057  10.364
37155SOL     OW13361   0.253  14.486   3.656
37155SOL    HW113362   0.173  14.434   3.662
37155SOL    HW213363   0.324  14.424   3.672
37156SOL     OW13364   4.363   8.519   7.131
37156SOL    HW113365   4.369   8.609   7.162
37156SOL    HW213366   4.268   8.503   7.123
37157SOL     OW13367  13.340   4.926  12.201
37157SOL    HW113368  13.382   5.001  12.242
37157SOL    HW213369  13.335   4.860  12.270
37158SOL     OW13370   0.653   0.669  12.844
37158SOL    HW113371   0.653   0.574  12.831
37158SOL    HW213372   0.561   0.692  12.853
37159SOL     OW13373  10.197   2.776   0.230
37159SOL    HW113374  10.286   2.753   0.256
37159SOL    HW213375  10.144   2.701   0.260
37160SOL     OW13376  10.412   9.090   1.576
37160SOL    HW113377  10.424   9.091   1.671
37160SOL    HW213378  10.413   9.182   1.550
37161SOL     OW13379  13.329   2.153  11.034
37161SOL    HW113380  13.312   2.202  11.114
37161SOL    HW213381  13.302   2.064  11.053
37162SOL     OW13382   4.561   8.407  13.635
37162SOL    HW113383   4.586   8.362  13.716
37162SOL    HW213384   4.607   8.359  13.566
37163SOL     OW13385  12.546   2.716   6.944
37163SOL    HW113386  12.615   2.677   6.998
37163SOL    HW213387  12.529   2.651   6.876
37164SOL     OW13388   8.448   4.046   0.047
37164SOL    HW113389   8.539   4.026   0.026
37164SOL    HW213390   8.414   4.090  14.844
37165SOL     OW13391   6.432   3.740  10.798
37165SOL    HW113392   6.426   3.834  10.783
37165SOL    HW213393   6.524   3.725  10.821
37166SOL     OW13394  11.681   1.665   9.348
37166SOL    HW113395  11.601   1.620   9.321
37166SOL    HW213396  11.691   1.737   9.285
37167SOL     OW13397   7.671   4.808   6.654
37167SOL    HW113398   7.744   4.870   6.653
37167SOL    HW213399   7.593   4.864   6.647
37168SOL     OW13400   9.134   0.399  10.363
37168SOL    HW113401   9.216   0.448  10.371
37168SOL    HW213402   9.085   0.420  10.442
37169SOL     OW13403   6.139   9.105   4.335
37169SOL    HW113404   6.232   9.087   4.350
37169SOL    HW213405   6.120   9.178   4.394
37170SOL     OW13406   1.054  13.299   5.096
37170SOL    HW113407   0.960  13.303   5.114
37170SOL    HW213408   1.060  13.257   5.010
37171SOL     OW13409   6.578   8.780   8.322
37171SOL    HW113410   6.660   8.735   8.342
37171SOL    HW213411   6.593   8.871   8.349
37172SOL     OW13412  10.212   3.220   8.582
37172SOL    HW113413  10.128   3.209   8.627
37172SOL    HW213414  10.201   3.174   8.499
37173SOL     OW13415   2.851   5.144  10.193
37173SOL    HW113416   2.886   5.169  10.279
37173SOL    HW213417   2.875   5.051  10.184
37174SOL     OW13418   9.831   2.502  12.720
37174SOL    HW113419   9.793   2.530  12.636
37174SOL    HW213420   9.911   2.457  12.696
37175SOL     OW13421   7.017   5.200  13.430
37175SOL    HW113422   6.996   5.120  13.382
37175SOL    HW213423   7.026   5.268  13.363
37176SOL     OW13424  11.277  14.359   8.288
37176SOL    HW113425  11.320  14.439   8.257
37176SOL    HW213426  11.220  14.389   8.359
37177SOL     OW13427   7.894   8.201   9.909
37177SOL    HW113428   7.831   8.273   9.903
37177SOL    HW213429   7.849   8.126   9.870
37178SOL     OW13430   4.255   1.815   0.331
37178SOL    HW113431   4.165   1.832   0.359
37178SOL    HW213432   4.268   1.874   0.256
37179SOL     OW13433  11.179  11.260   1.108
37179SOL    HW113434  11.125  11.309   1.170
37179SOL    HW213435  11.241  11.213   1.164
37180SOL     OW13436   3.314  12.472  14.746
37180SOL    HW113437   3.302  12.389  14.791
37180SOL    HW213438   3.298  12.452  14.654
37181SOL     OW13439   7.913  11.519   3.129
37181SOL    HW113440   7.945  11.593   3.182
37181SOL    HW213441   7.913  11.552   3.039
37182SOL     OW13442   2.182  10.716   2.895
37182SOL    HW113443   2.225  10.631   2.884
37182SOL    HW213444   2.205  10.765   2.817
37183SOL     OW13445   7.775   0.055   2.905
37183SOL    HW113446   7.826   0.043   2.985
37183SOL    HW213447   7.717  14.853   2.902
37184SOL     OW13448   2.700   4.808   2.149
37184SOL    HW113449   2.676   4.820   2.241
37184SOL    HW213450   2.662   4.724   2.125
37185SOL     OW13451  14.613   6.502   8.711
37185SOL    HW113452  14.685   6.441   8.693
37185SOL    HW213453  14.539   6.446   8.732
37186SOL     OW13454   8.141  12.783   9.118
37186SOL    HW113455   8.078  12.734   9.064
37186SOL    HW213456   8.093  12.861   9.145
37187SOL     OW13457   3.221   4.306  14.462
37187SOL    HW113458   3.137   4.271  14.431
37187SOL    HW213459   3.200   4.396  14.489
37188SOL     OW13460   4.070  12.407   5.380
37188SOL    HW113461   4.023  12.325   5.395
37188SOL    HW213462   4.163  12.382   5.380
37189SOL     OW13463   0.419  11.878  14.771
37189SOL    HW113464   0.504  11.867  14.729
37189SOL    HW213465   0.399  11.971  14.760
37190SOL     OW13466   1.050  10.558   6.391
37190SOL    HW113467   1.099  10.491   6.439
37190SOL    HW213468   1.006  10.609   6.459
37191SOL     OW13469   6.956   1.193  11.983
37191SOL    HW113470   6.978   1.164  12.072
37191SOL    HW213471   6.986   1.284  11.980
37192SOL     OW13472   4.954  13.358   2.899
37192SOL    HW113473   4.963  13.449   2.926
37192SOL    HW213474   4.885  13.359   2.832
37193SOL     OW13475   2.960   6.961  12.818
37193SOL    HW113476   2.933   6.986  12.906
37193SOL    HW213477   3.001   7.040  12.782
37194SOL     OW13478  11.680   9.324   3.504
37194SOL    HW113479  11.757   9.308   3.559
37194SOL    HW213480  11.640   9.403   3.542
37195SOL     OW13481   0.628  13.540   0.834
37195SOL    HW113482   0.550  13.505   0.792
37195SOL    HW213483   0.614  13.523   0.928
37196SOL     OW13484  11.883   9.720   5.873
37196SOL    HW113485  11.814   9.670   5.918
37196SOL    HW213486  11.842   9.804   5.853
37197SOL     OW13487  14.571  11.875  11.311
37197SOL    HW113488  14.561  11.900  11.219
37197SOL    HW213489  14.567  11.958  11.359
37198SOL     OW13490   6.253   2.622   8.888
37198SOL    HW113491   6.173   2.578   8.859
37198SOL    HW213492   6.226   2.673   8.965
37199SOL     OW13493  12.173  10.970  11.109
37199SOL    HW113494  12.162  11.060  11.138
37199SOL    HW213495  12.090  10.927  11.131
37200SOL     OW13496   2.750  11.790   0.351
37200SOL    HW113497   2.846  11.796   0.350
37200SOL    HW213498   2.733  11.699   0.375
37201SOL     OW13499   2.795   0.433  14.677
37201SOL    HW113500   2.746   0.367  14.727
37201SOL    HW213501   2.727   0.487  14.636
37202SOL     OW13502  10.409   7.517   0.127
37202SOL    HW113503  10.368   7.463   0.060
37202SOL    HW213504  10.497   7.480   0.138
37203SOL     OW13505   5.655   7.351  14.818
37203SOL    HW113506   5.560   7.343  14.828
37203SOL    HW213507   5.690   7.271  14.857
37204SOL     OW13508  12.367  10.861   6.957
37204SOL    HW113509  12.330  10.924   6.896
37204SOL    HW213510  12.411  10.914   7.023
37205SOL     OW13511   5.064   5.251  12.712
37205SOL    HW113512   5.077   5.342  12.737
37205SOL    HW213513   4.969   5.237  12.722
37206SOL     OW13514  10.908   3.004   2.709
37206SOL    HW113515  10.838   2.952   2.748
37206SOL    HW213516  10.989   2.963   2.740
37207SOL     OW13517   0.970  13.912   4.948
37207SOL    HW113518   0.934  13.982   4.894
37207SOL    HW213519   0.993  13.843   4.887
37208SOL     OW13520  14.700   3.574  11.049
37208SOL    HW113521  14.706   3.641  10.981
37208SOL    HW213522  14.705   3.622  11.131
37209SOL     OW13523   9.374   7.083   2.928
37209SOL    HW113524   9.358   7.116   3.017
37209SOL    HW213525   9.437   7.012   2.940
37210SOL     OW13526  11.486   6.948  13.876
37210SOL    HW113527  11.444   6.936  13.962
37210SOL    HW213528  11.452   6.877  13.822
37211SOL     OW13529   3.492  11.178   1.336
37211SOL    HW113530   3.569  11.223   1.300
37211SOL    HW213531   3.525  11.133   1.414
37212SOL     OW13532   2.231   0.437   2.985
37212SOL    HW113533   2.138   0.439   3.008
37212SOL    HW213534   2.231   0.434   2.889
37213SOL     OW13535   3.994  14.039  10.389
37213SOL    HW113536   3.962  14.083  10.468
37213SOL    HW213537   4.002  13.947  10.415
37214SOL     OW13538   7.093   2.806   3.198
37214SOL    HW113539   7.162   2.743   3.221
37214SOL    HW213540   7.123   2.845   3.116
37215SOL     OW13541   4.703  10.614  12.588
37215SOL    HW113542   4.782  10.665  12.566
37215SOL    HW213543   4.682  10.640  12.678
37216SOL     OW13544   7.853  12.500  11.947
37216SOL    HW113545   7.803  12.543  11.877
37216SOL    HW213546   7.945  12.510  11.920
37217SOL     OW13547   0.346  10.898   5.584
37217SOL    HW113548   0.413  10.967   5.577
37217SOL    HW213549   0.263  10.944   5.571
37218SOL     OW13550  13.989   2.925  13.377
37218SOL    HW113551  13.991   3.008  13.425
37218SOL    HW213552  13.994   2.858  13.445
37219SOL     OW13553   0.473  11.791  14.024
37219SOL    HW113554   0.484  11.764  13.933
37219SOL    HW213555   0.491  11.885  14.024
37220SOL     OW13556  11.032  11.057  11.042
37220SOL    HW113557  11.008  11.032  10.953
37220SOL    HW213558  11.018  11.151  11.045
37221SOL     OW13559   3.130  13.653  14.870
37221SOL    HW113560   3.174  13.681  14.791
37221SOL    HW213561   3.190  13.590   0.035
37222SOL     OW13562   5.401   1.161   0.324
37222SOL    HW113563   5.462   1.109   0.272
37222SOL    HW213564   5.400   1.247   0.282
37223SOL     OW13565  10.887   5.797   8.218
37223SOL    HW113566  10.974   5.808   8.258
37223SOL    HW213567  10.832   5.766   8.290
37224SOL     OW13568   9.198   2.527   8.163
37224SOL    HW113569   9.157   2.603   8.203
37224SOL    HW213570   9.169   2.529   8.072
37225SOL     OW13571   9.216  10.890  12.164
37225SOL    HW113572   9.160  10.861  12.237
37225SOL    HW213573   9.171  10.859  12.086
37226SOL     OW13574   8.188  12.805  13.377
37226SOL    HW113575   8.114  12.769  13.425
37226SOL    HW213576   8.206  12.890  13.418
37227SOL     OW13577  10.103   0.743   9.619
37227SOL    HW113578  10.182   0.794   9.603
37227SOL    HW213579  10.091   0.747   9.714
37228SOL     OW13580   5.527  12.364   2.609
37228SOL    HW113581   5.616  12.369   2.644
37228SOL    HW213582   5.499  12.455   2.603
37229SOL     OW13583   8.261   5.316   6.842
37229SOL    HW113584   8.265   5.332   6.936
37229SOL    HW213585   8.290   5.225   6.831
37230SOL     OW13586   9.665   2.151   6.833
37230SOL    HW113587   9.714   2.079   6.872
37230SOL    HW213588   9.582   2.112   6.807
37231SOL     OW13589   4.514   6.285   1.071
37231SOL    HW113590   4.457   6.355   1.103
37231SOL    HW213591   4.599   6.304   1.111
37232SOL     OW13592   1.414   2.915   1.120
37232SOL    HW113593   1.353   2.957   1.180
37232SOL    HW213594   1.452   2.987   1.069
37233SOL     OW13595   0.943   7.710  13.202
37233SOL    HW113596   1.008   7.660  13.153
37233SOL    HW213597   0.987   7.794  13.221
37234SOL     OW13598  11.656   5.571   1.000
37234SOL    HW113599  11.564   5.555   1.023
37234SOL    HW213600  11.702   5.572   1.084
37235SOL     OW13601  14.288   3.518  12.945
37235SOL    HW113602  14.287   3.597  12.999
37235SOL    HW213603  14.326   3.546  12.862
37236SOL     OW13604  11.702   2.368   1.878
37236SOL    HW113605  11.784   2.319   1.880
37236SOL    HW213606  11.643   2.315   1.824
37237SOL     OW13607   8.046   8.567   2.329
37237SOL    HW113608   8.031   8.642   2.387
37237SOL    HW213609   8.109   8.599   2.264
37238SOL     OW13610  14.628   8.815   8.647
37238SOL    HW113611  14.582   8.889   8.687
37238SOL    HW213612  14.701   8.797   8.706
37239SOL     OW13613  10.538  14.773   4.855
37239SOL    HW113614  10.616  14.733   4.893
37239SOL    HW213615  10.468  14.751   4.916
37240SOL     OW13616   6.705   1.974   6.907
37240SOL    HW113617   6.779   1.916   6.923
37240SOL    HW213618   6.730   2.057   6.948
37241SOL     OW13619   6.251   9.065   7.794
37241SOL    HW113620   6.195   9.029   7.726
37241SOL    HW213621   6.218   9.026   7.875
37242SOL     OW13622  14.352  10.326  14.797
37242SOL    HW113623  14.343  10.232  14.812
37242SOL    HW213624  14.442  10.337  14.766
37243SOL     OW13625  10.230   5.422  13.117
37243SOL    HW113626  10.214   5.472  13.037
37243SOL    HW213627  10.216   5.485  13.188
37244SOL     OW13628  10.417  13.871   9.518
37244SOL    HW113629  10.503  13.850   9.482
37244SOL    HW213630  10.395  13.955   9.479
37245SOL     OW13631   6.175   2.654   2.604
37245SOL    HW113632   6.158   2.637   2.696
37245SOL    HW213633   6.092   2.637   2.560
37246SOL     OW13634   5.331   9.446   8.671
37246SOL    HW113635   5.383   9.496   8.608
37246SOL    HW213636   5.383   9.366   8.686
37247SOL     OW13637   5.306  11.771   1.874
37247SOL    HW113638   5.318  11.866   1.875
37247SOL    HW213639   5.309  11.745   1.966
37248SOL     OW13640  11.213  13.556  10.469
37248SOL    HW113641  11.307  13.540  10.468
37248SOL    HW213642  11.187  13.551  10.377
37249SOL     OW13643   9.066  10.619  13.283
37249SOL    HW113644   9.112  10.616  13.199
37249SOL    HW213645   8.974  10.607  13.259
37250SOL     OW13646   0.205   9.907   4.542
37250SOL    HW113647   0.246   9.836   4.591
37250SOL    HW213648   0.251   9.986   4.570
37251SOL     OW13649   1.089   2.624   6.127
37251SOL    HW113650   1.062   2.538   6.161
37251SOL    HW213651   1.041   2.632   6.044
37252SOL     OW13652  12.761   0.482  11.677
37252SOL    HW113653  12.810   0.485  11.595
37252SOL    HW213654  12.789   0.559  11.726
37253SOL     OW13655  13.842  14.449  11.395
37253SOL    HW113656  13.808  14.390  11.327
37253SOL    HW213657  13.937  14.449  11.380
37254SOL     OW13658   7.033   0.448   1.911
37254SOL    HW113659   7.119   0.413   1.934
37254SOL    HW213660   7.016   0.516   1.976
37255SOL     OW13661   1.851   5.936   6.920
37255SOL    HW113662   1.889   6.002   6.978
37255SOL    HW213663   1.798   5.986   6.858
37256SOL     OW13664   1.935   9.583  11.754
37256SOL    HW113665   1.875   9.630  11.811
37256SOL    HW213666   2.021   9.594  11.795
37257SOL     OW13667   6.058  12.850   8.096
37257SOL    HW113668   6.051  12.897   8.013
37257SOL    HW213669   5.968  12.840   8.126
37258SOL     OW13670   6.794   5.595   7.096
37258SOL    HW113671   6.711   5.584   7.141
37258SOL    HW213672   6.792   5.531   7.025
37259SOL     OW13673   4.866   1.595   7.742
37259SOL    HW113674   4.888   1.683   7.772
37259SOL    HW213675   4.922   1.537   7.793
37260SOL     OW13676   4.213   9.578   6.547
37260SOL    HW113677   4.129   9.552   6.585
37260SOL    HW213678   4.274   9.579   6.620
37261SOL     OW13679   8.910   8.302  13.519
37261SOL    HW113680   9.000   8.269  13.526
37261SOL    HW213681   8.913   8.362  13.445
37262SOL     OW13682   7.482   9.870  10.164
37262SOL    HW113683   7.533   9.949  10.146
37262SOL    HW213684   7.548   9.806  10.192
37263SOL     OW13685   6.126   4.848   4.762
37263SOL    HW113686   6.178   4.773   4.732
37263SOL    HW213687   6.060   4.810   4.820
37264SOL     OW13688   1.082   5.285   9.013
37264SOL    HW113689   1.099   5.332   8.931
37264SOL    HW213690   1.095   5.351   9.081
37265SOL     OW13691   5.557  13.955   6.896
37265SOL    HW113692   5.598  13.868   6.889
37265SOL    HW213693   5.568  13.980   6.988
37266SOL     OW13694  11.510   6.303   0.466
37266SOL    HW113695  11.427   6.285   0.509
37266SOL    HW213696  11.487   6.323   0.375
37267SOL     OW13697  13.604  11.603   5.022
37267SOL    HW113698  13.662  11.583   5.096
37267SOL    HW213699  13.519  11.570   5.049
37268SOL     OW13700  11.962  10.375   2.137
37268SOL    HW113701  11.978  10.325   2.217
37268SOL    HW213702  11.928  10.310   2.075
37269SOL     OW13703   3.792   7.393  10.611
37269SOL    HW113704   3.841   7.345  10.544
37269SOL    HW213705   3.810   7.485  10.592
37270SOL     OW13706   5.649   0.526   4.104
37270SOL    HW113707   5.727   0.519   4.159
37270SOL    HW213708   5.645   0.441   4.059
37271SOL     OW13709   3.027   5.354  11.771
37271SOL    HW113710   3.011   5.425  11.709
37271SOL    HW213711   2.979   5.279  11.735
37272SOL     OW13712  12.588   2.459   9.824
37272SOL    HW113713  12.554   2.373   9.848
37272SOL    HW213714  12.544   2.520   9.884
37273SOL     OW13715   7.503   7.037  14.376
37273SOL    HW113716   7.570   6.994  14.428
37273SOL    HW213717   7.443   7.076  14.441
37274SOL     OW13718   5.174   2.164  13.280
37274SOL    HW113719   5.255   2.214  13.270
37274SOL    HW213720   5.104   2.229  13.269
37275SOL     OW13721   2.670  12.559   1.891
37275SOL    HW113722   2.610  12.491   1.923
37275SOL    HW213723   2.742  12.558   1.955
37276SOL     OW13724  13.956   2.086  12.718
37276SOL    HW113725  13.945   2.176  12.688
37276SOL    HW213726  14.050   2.069  12.712
37277SOL     OW13727   5.490  11.278   6.118
37277SOL    HW113728   5.581  11.279   6.145
37277SOL    HW213729   5.479  11.358   6.066
37278SOL     OW13730  10.943   6.319   3.788
37278SOL    HW113731  10.902   6.312   3.702
37278SOL    HW213732  10.997   6.240   3.796
37279SOL     OW13733   1.604  12.479  11.613
37279SOL    HW113734   1.671  12.445  11.673
37279SOL    HW213735   1.635  12.452  11.526
37280SOL     OW13736  13.529   6.743  11.436
37280SOL    HW113737  13.508   6.832  11.408
37280SOL    HW213738  13.511   6.689  11.359
37281SOL     OW13739  13.848  12.251   7.817
37281SOL    HW113740  13.924  12.194   7.830
37281SOL    HW213741  13.798  12.242   7.898
37282SOL     OW13742   9.758   6.972  11.435
37282SOL    HW113743   9.837   6.917  11.433
37282SOL    HW213744   9.789   7.061  11.418
37283SOL     OW13745   0.375   6.578  12.558
37283SOL    HW113746   0.284   6.607  12.554
37283SOL    HW213747   0.383   6.515  12.487
37284SOL     OW13748   9.362  13.021  12.571
37284SOL    HW113749   9.309  12.942  12.560
37284SOL    HW213750   9.338  13.077  12.497
37285SOL     OW13751   3.603  13.994  10.021
37285SOL    HW113752   3.619  14.003   9.927
37285SOL    HW213753   3.668  14.051  10.062
37286SOL     OW13754   9.605   8.264   0.639
37286SOL    HW113755   9.661   8.339   0.655
37286SOL    HW213756   9.565   8.245   0.724
37287SOL     OW13757   0.477  10.297  11.300
37287SOL    HW113758   0.527  10.292  11.381
37287SOL    HW213759   0.530  10.352  11.242
37288SOL     OW13760  13.747   1.437   6.286
37288SOL    HW113761  13.841   1.421   6.296
37288SOL    HW213762  13.740   1.532   6.272
37289SOL     OW13763  13.770   1.168   4.841
37289SOL    HW113764  13.701   1.118   4.886
37289SOL    HW213765  13.724   1.213   4.771
37290SOL     OW13766  12.336   4.501   6.634
37290SOL    HW113767  12.320   4.433   6.701
37290SOL    HW213768  12.257   4.500   6.580
37291SOL     OW13769  12.454   3.585   4.335
37291SOL    HW113770  12.384   3.622   4.389
37291SOL    HW213771  12.472   3.500   4.375
37292SOL     OW13772   2.988   2.621   6.076
37292SOL    HW113773   3.005   2.527   6.064
37292SOL    HW213774   2.940   2.626   6.159
37293SOL     OW13775   5.188   4.880   7.208
37293SOL    HW113776   5.139   4.942   7.155
37293SOL    HW213777   5.279   4.889   7.179
37294SOL     OW13778   5.299   6.737  12.352
37294SOL    HW113779   5.309   6.806  12.417
37294SOL    HW213780   5.382   6.734  12.305
37295SOL     OW13781   3.851   0.934  13.027
37295SOL    HW113782   3.845   0.844  12.997
37295SOL    HW213783   3.868   0.985  12.948
37296SOL     OW13784   1.555  12.557   0.744
37296SOL    HW113785   1.473  12.603   0.763
37296SOL    HW213786   1.600  12.553   0.828
37297SOL     OW13787  13.501  12.826   7.910
37297SOL    HW113788  13.504  12.840   7.815
37297SOL    HW213789  13.585  12.784   7.931
37298SOL     OW13790   0.328  12.658   6.178
37298SOL    HW113791   0.316  12.596   6.107
37298SOL    HW213792   0.327  12.744   6.135
37299SOL     OW13793   4.210   5.938   1.681
37299SOL    HW113794   4.302   5.922   1.658
37299SOL    HW213795   4.162   5.920   1.600
37300SOL     OW13796   4.342   4.140   2.693
37300SOL    HW113797   4.391   4.164   2.772
37300SOL    HW213798   4.405   4.091   2.640
37301SOL     OW13799   9.647  14.821   9.138
37301SOL    HW113800   9.565  14.869   9.125
37301SOL    HW213801   9.710   0.014   9.163
37302SOL     OW13802   8.459  14.115  12.335
37302SOL    HW113803   8.548  14.113  12.299
37302SOL    HW213804   8.403  14.101  12.259
37303SOL     OW13805   8.516   3.430   2.885
37303SOL    HW113806   8.496   3.352   2.834
37303SOL    HW213807   8.542   3.397   2.971
37304SOL     OW13808   3.123   3.535  13.825
37304SOL    HW113809   3.029   3.543  13.813
37304SOL    HW213810   3.134   3.455  13.877
37305SOL     OW13811  10.986   8.471   7.598
37305SOL    HW113812  11.013   8.482   7.689
37305SOL    HW213813  10.892   8.456   7.602
37306SOL     OW13814   0.234   2.573   6.391
37306SOL    HW113815   0.156   2.566   6.445
37306SOL    HW213816   0.209   2.534   6.307
37307SOL     OW13817   1.545  12.470   7.875
37307SOL    HW113818   1.476  12.534   7.890
37307SOL    HW213819   1.501  12.385   7.881
37308SOL     OW13820  13.149  12.411   9.001
37308SOL    HW113821  13.156  12.322   8.968
37308SOL    HW213822  13.108  12.460   8.930
37309SOL     OW13823  13.287  13.124   4.263
37309SOL    HW113824  13.252  13.161   4.182
37309SOL    HW213825  13.375  13.095   4.240
37310SOL     OW13826   7.969   4.925   4.787
37310SOL    HW113827   7.963   4.962   4.875
37310SOL    HW213828   7.884   4.944   4.747
37311SOL     OW13829  11.133  13.452   4.544
37311SOL    HW113830  11.043  13.424   4.562
37311SOL    HW213831  11.150  13.419   4.456
37312SOL     OW13832  10.899   1.515  14.573
37312SOL    HW113833  10.900   1.433  14.623
37312SOL    HW213834  10.974   1.564  14.607
37313SOL     OW13835  12.590   0.767   5.834
37313SOL    HW113836  12.633   0.749   5.918
37313SOL    HW213837  12.661   0.790   5.775
37314SOL     OW13838  11.661   2.053   6.647
37314SOL    HW113839  11.676   2.132   6.699
37314SOL    HW213840  11.681   1.981   6.707
37315SOL     OW13841   5.842   6.602   9.407
37315SOL    HW113842   5.778   6.532   9.398
37315SOL    HW213843   5.802   6.663   9.469
37316SOL     OW13844   6.138   3.757   6.978
37316SOL    HW113845   6.076   3.709   6.923
37316SOL    HW213846   6.197   3.689   7.012
37317SOL     OW13847   3.890   6.182   7.051
37317SOL    HW113848   3.956   6.176   7.120
37317SOL    HW213849   3.899   6.271   7.017
37318SOL     OW13850   0.954  12.944   5.812
37318SOL    HW113851   0.916  12.994   5.885
37318SOL    HW213852   0.882  12.889   5.781
37319SOL     OW13853   1.154  13.464   1.377
37319SOL    HW113854   1.245  13.491   1.363
37319SOL    HW213855   1.139  13.396   1.313
37320SOL     OW13856   2.656   5.249  13.123
37320SOL    HW113857   2.608   5.250  13.040
37320SOL    HW213858   2.627   5.327  13.169
37321SOL     OW13859  10.596  10.825   4.534
37321SOL    HW113860  10.525  10.889   4.543
37321SOL    HW213861  10.672  10.868   4.574
37322SOL     OW13862  11.248   7.684   7.137
37322SOL    HW113863  11.271   7.593   7.152
37322SOL    HW213864  11.325   7.722   7.095
37323SOL     OW13865  14.164  11.053   0.187
37323SOL    HW113866  14.253  11.063   0.221
37323SOL    HW213867  14.157  10.960   0.167
37324SOL     OW13868   4.922   9.173   4.809
37324SOL    HW113869   4.952   9.172   4.900
37324SOL    HW213870   5.001   9.190   4.758
37325SOL     OW13871  13.513   9.131   2.283
37325SOL    HW113872  13.464   9.191   2.340
37325SOL    HW213873  13.515   9.175   2.198
37326SOL     OW13874   1.534   8.925  12.283
37326SOL    HW113875   1.563   8.973  12.205
37326SOL    HW213876   1.603   8.939  12.347
37327SOL     OW13877   4.991   1.018   6.628
37327SOL    HW113878   4.977   1.083   6.697
37327SOL    HW213879   5.083   0.992   6.638
37328SOL     OW13880   6.538   1.251   6.772
37328SOL    HW113881   6.474   1.234   6.703
37328SOL    HW213882   6.611   1.293   6.728
37329SOL     OW13883   2.837   8.882   2.455
37329SOL    HW113884   2.741   8.881   2.449
37329SOL    HW213885   2.858   8.970   2.487
37330SOL     OW13886   6.231   5.156  13.577
37330SOL    HW113887   6.197   5.099  13.646
37330SOL    HW213888   6.160   5.161  13.512
37331SOL     OW13889   7.864   0.310   5.529
37331SOL    HW113890   7.914   0.235   5.560
37331SOL    HW213891   7.901   0.330   5.443
37332SOL     OW13892  13.872   2.774   8.177
37332SOL    HW113893  13.952   2.810   8.214
37332SOL    HW213894  13.890   2.764   8.084
37333SOL     OW13895  14.771   0.032   5.167
37333SOL    HW113896  14.754   0.091   5.241
37333SOL    HW213897  14.689  14.860   5.155
37334SOL     OW13898  13.807   8.154   1.074
37334SOL    HW113899  13.891   8.129   1.035
37334SOL    HW213900  13.761   8.072   1.087
37335SOL     OW13901  11.822   1.151   9.456
37335SOL    HW113902  11.816   1.244   9.435
37335SOL    HW213903  11.792   1.106   9.377
37336SOL     OW13904   0.178   9.959  10.209
37336SOL    HW113905   0.116   9.894  10.241
37336SOL    HW213906   0.264   9.916  10.216
37337SOL     OW13907   0.817   6.790   1.487
37337SOL    HW113908   0.826   6.842   1.407
37337SOL    HW213909   0.732   6.816   1.523
37338SOL     OW13910  11.650  11.846  13.085
37338SOL    HW113911  11.698  11.855  13.004
37338SOL    HW213912  11.702  11.894  13.150
37339SOL     OW13913   6.790   9.875   3.321
37339SOL    HW113914   6.811   9.787   3.352
37339SOL    HW213915   6.696   9.874   3.307
37340SOL     OW13916  14.221   2.624   8.927
37340SOL    HW113917  14.232   2.574   9.008
37340SOL    HW213918  14.242   2.562   8.857
37341SOL     OW13919  14.235  14.585   3.075
37341SOL    HW113920  14.173  14.607   3.006
37341SOL    HW213921  14.320  14.579   3.030
37342SOL     OW13922   3.667   1.016   3.846
37342SOL    HW113923   3.666   0.973   3.931
37342SOL    HW213924   3.651   1.108   3.865
37343SOL     OW13925   4.911  14.003   4.847
37343SOL    HW113926   4.908  14.086   4.894
37343SOL    HW213927   4.876  13.939   4.909
37344SOL     OW13928   6.635   5.104   9.731
37344SOL    HW113929   6.697   5.078   9.663
37344SOL    HW213930   6.587   5.178   9.693
37345SOL     OW13931   7.469  12.970   7.947
37345SOL    HW113932   7.461  13.014   8.032
37345SOL    HW213933   7.444  13.036   7.883
37346SOL     OW13934  14.565   5.371   7.226
37346SOL    HW113935  14.636   5.351   7.165
37346SOL    HW213936  14.551   5.465   7.216
37347SOL     OW13937  10.943   9.771   7.868
37347SOL    HW113938  10.919   9.684   7.899
37347SOL    HW213939  11.001   9.754   7.794
37348SOL     OW13940   8.181   1.927  10.087
37348SOL    HW113941   8.154   1.851  10.139
37348SOL    HW213942   8.103   1.952  10.038
37349SOL     OW13943  13.544   9.978   9.516
37349SOL    HW113944  13.571  10.022   9.435
37349SOL    HW213945  13.611   9.911   9.530
37350SOL     OW13946   5.932   0.666   2.035
37350SOL    HW113947   5.878   0.712   1.971
37350SOL    HW213948   6.002   0.626   1.982
37351SOL     OW13949   9.695   5.551   2.239
37351SOL    HW113950   9.787   5.532   2.224
37351SOL    HW213951   9.689   5.646   2.236
37352SOL     OW13952   0.300  10.785   2.871
37352SOL    HW113953   0.208  10.776   2.845
37352SOL    HW213954   0.309  10.730   2.949
37353SOL     OW13955   5.016   9.985  13.145
37353SOL    HW113956   4.993   9.925  13.074
37353SOL    HW213957   4.943   9.980  13.206
37354SOL     OW13958   6.180   5.839   8.702
37354SOL    HW113959   6.269   5.870   8.690
37354SOL    HW213960   6.191   5.748   8.731
37355SOL     OW13961  10.368   6.734   7.094
37355SOL    HW113962  10.323   6.801   7.145
37355SOL    HW213963  10.298   6.691   7.045
37356SOL     OW13964   7.881   8.916   8.529
37356SOL    HW113965   7.883   8.919   8.433
37356SOL    HW213966   7.821   8.986   8.554
37357SOL     OW13967   7.437   6.648   9.762
37357SOL    HW113968   7.436   6.552   9.759
37357SOL    HW213969   7.363   6.674   9.708
37358SOL     OW13970   6.594   1.067   9.069
37358SOL    HW113971   6.534   1.067   8.994
37358SOL    HW213972   6.545   1.111   9.139
37359SOL     OW13973   2.542   0.064   1.435
37359SOL    HW113974   2.578   0.150   1.411
37359SOL    HW213975   2.520   0.023   1.351
37360SOL     OW13976   7.027  12.808  13.079
37360SOL    HW113977   7.019  12.804  12.984
37360SOL    HW213978   7.110  12.851  13.095
37361SOL     OW13979   5.944   3.241   8.058
37361SOL    HW113980   5.960   3.299   7.983
37361SOL    HW213981   5.982   3.288   8.133
37362SOL     OW13982  11.536  12.830  14.541
37362SOL    HW113983  11.478  12.889  14.493
37362SOL    HW213984  11.478  12.761  14.573
37363SOL     OW13985   7.753   8.880   9.075
37363SOL    HW113986   7.744   8.849   9.165
37363SOL    HW213987   7.841   8.853   9.048
37364SOL     OW13988   5.950   6.483  14.068
37364SOL    HW113989   5.952   6.388  14.064
37364SOL    HW213990   5.858   6.506  14.058
37365SOL     OW13991   8.546   9.983   8.013
37365SOL    HW113992   8.482  10.010   7.948
37365SOL    HW213993   8.608   9.928   7.964
37366SOL     OW13994  11.697  13.140  12.651
37366SOL    HW113995  11.750  13.131  12.731
37366SOL    HW213996  11.607  13.146  12.682
37367SOL     OW13997  14.774   8.170  11.810
37367SOL    HW113998  14.689   8.204  11.782
37367SOL    HW213999  14.810   8.129  11.732
37368SOL     OW14000  13.767  11.896  13.542
37368SOL    HW114001  13.747  11.976  13.493
37368SOL    HW214002  13.787  11.831  13.474
37369SOL     OW14003   7.453   6.829   4.364
37369SOL    HW114004   7.472   6.745   4.323
37369SOL    HW214005   7.408   6.879   4.295
37370SOL     OW14006   5.627   5.872  14.700
37370SOL    HW114007   5.629   5.883  14.795
37370SOL    HW214008   5.540   5.838  14.681
37371SOL     OW14009   8.089  13.895   8.613
37371SOL    HW114010   8.030  13.916   8.686
37371SOL    HW214011   8.054  13.945   8.539
37372SOL     OW14012   9.412   2.497   0.288
37372SOL    HW114013   9.358   2.545   0.351
37372SOL    HW214014   9.501   2.506   0.321
37373SOL     OW14015   7.009  10.309   2.726
37373SOL    HW114016   7.057  10.263   2.657
37373SOL    HW214017   7.078  10.352   2.777
37374SOL     OW14018   9.802  12.985   7.987
37374SOL    HW114019   9.804  12.924   8.061
37374SOL    HW214020   9.818  13.070   8.026
37375SOL     OW14021   1.471   4.432   6.585
37375SOL    HW114022   1.536   4.472   6.527
37375SOL    HW214023   1.408   4.391   6.526
37376SOL     OW14024   1.818   2.698   6.076
37376SOL    HW114025   1.821   2.739   6.162
37376SOL    HW214026   1.868   2.617   6.086
37377SOL     OW14027   5.827  14.817   9.415
37377SOL    HW114028   5.896  14.793   9.353
37377SOL    HW214029   5.759  14.750   9.402
37378SOL     OW14030   0.999   7.556   2.678
37378SOL    HW114031   0.979   7.532   2.768
37378SOL    HW214032   1.066   7.493   2.650
37379SOL     OW14033   8.855  11.722  13.803
37379SOL    HW114034   8.856  11.696  13.710
37379SOL    HW214035   8.762  11.737  13.822
37380SOL     OW14036   7.641   6.071  10.478
37380SOL    HW114037   7.696   6.020  10.537
37380SOL    HW214038   7.701   6.133  10.436
37381SOL     OW14039   2.752  12.169   2.369
37381SOL    HW114040   2.801  12.103   2.419
37381SOL    HW214041   2.754  12.247   2.424
37382SOL     OW14042   3.462   7.535   0.381
37382SOL    HW114043   3.513   7.556   0.459
37382SOL    HW214044   3.371   7.553   0.405
37383SOL     OW14045  11.612   3.064   8.681
37383SOL    HW114046  11.611   3.142   8.737
37383SOL    HW214047  11.705   3.044   8.670
37384SOL     OW14048  10.230   8.219  12.504
37384SOL    HW114049  10.249   8.253  12.416
37384SOL    HW214050  10.150   8.264  12.531
37385SOL     OW14051  10.284  14.202   7.845
37385SOL    HW114052  10.289  14.212   7.750
37385SOL    HW214053  10.203  14.246   7.870
37386SOL     OW14054  14.179   1.238  10.817
37386SOL    HW114055  14.214   1.155  10.850
37386SOL    HW214056  14.092   1.216  10.782
37387SOL     OW14057   0.808   8.466  12.539
37387SOL    HW114058   0.862   8.388  12.539
37387SOL    HW214059   0.861   8.531  12.586
37388SOL     OW14060  10.366   1.579  13.410
37388SOL    HW114061  10.291   1.592  13.469
37388SOL    HW214062  10.434   1.636  13.445
37389SOL     OW14063   5.396   9.766  14.559
37389SOL    HW114064   5.457   9.695  14.579
37389SOL    HW214065   5.450   9.845  14.558
37390SOL     OW14066   5.652   0.014   1.219
37390SOL    HW114067   5.560   0.006   1.244
37390SOL    HW214068   5.677   0.103   1.243
37391SOL     OW14069  11.695   2.485   9.625
37391SOL    HW114070  11.628   2.531   9.575
37391SOL    HW214071  11.657   2.473   9.712
37392SOL     OW14072   0.140   6.181   6.714
37392SOL    HW114073   0.206   6.149   6.652
37392SOL    HW214074   0.094   6.103   6.744
37393SOL     OW14075   8.863  12.821   6.025
37393SOL    HW114076   8.793  12.772   6.068
37393SOL    HW214077   8.914  12.859   6.097
37394SOL     OW14078  10.128  13.100  10.138
37394SOL    HW114079  10.082  13.046  10.073
37394SOL    HW214080  10.080  13.182  10.140
37395SOL     OW14081   6.791   9.057  10.837
37395SOL    HW114082   6.744   9.039  10.756
37395SOL    HW214083   6.867   9.109  10.810
37396SOL     OW14084   1.839  14.773  11.568
37396SOL    HW114085   1.831  14.748  11.476
37396SOL    HW214086   1.820  14.867  11.569
37397SOL     OW14087   4.130  10.499   1.241
37397SOL    HW114088   4.080  10.529   1.317
37397SOL    HW214089   4.140  10.405   1.254
37398SOL     OW14090  13.849   7.951  13.442
37398SOL    HW114091  13.844   8.038  13.480
37398SOL    HW214092  13.759   7.926  13.424
37399SOL     OW14093   6.400   9.796   1.167
37399SOL    HW114094   6.452   9.767   1.092
37399SOL    HW214095   6.331   9.850   1.128
37400SOL     OW14096  11.678  12.657   3.520
37400SOL    HW114097  11.702  12.701   3.439
37400SOL    HW214098  11.750  12.597   3.537
37401SOL     OW14099  13.338  13.026   8.896
37401SOL    HW114100  13.421  13.026   8.849
37401SOL    HW214101  13.330  12.937   8.930
37402SOL     OW14102  10.072   2.068   1.402
37402SOL    HW114103  10.058   1.994   1.460
37402SOL    HW214104  10.094   2.141   1.460
37403SOL     OW14105  14.236   1.595   4.768
37403SOL    HW114106  14.281   1.513   4.748
37403SOL    HW214107  14.229   1.641   4.684
37404SOL     OW14108   8.718   4.086   7.873
37404SOL    HW114109   8.678   4.173   7.870
37404SOL    HW214110   8.781   4.086   7.801
37405SOL     OW14111   4.957   4.063   9.806
37405SOL    HW114112   4.862   4.067   9.803
37405SOL    HW214113   4.979   4.081   9.898
37406SOL     OW14114  12.885  12.271  12.082
37406SOL    HW114115  12.973  12.302  12.101
37406SOL    HW214116  12.897  12.180  12.054
37407SOL     OW14117   1.983   7.921   3.153
37407SOL    HW114118   2.007   7.834   3.184
37407SOL    HW214119   1.888   7.918   3.143
37408SOL     OW14120  14.700  12.555   7.138
37408SOL    HW114121  14.638  12.495   7.097
37408SOL    HW214122  14.784  12.510   7.132
37409SOL     OW14123   5.744   6.234   1.762
37409SOL    HW114124   5.816   6.239   1.825
37409SOL    HW214125   5.785   6.202   1.681
37410SOL     OW14126  10.548   2.523   2.330
37410SOL    HW114127  10.565   2.616   2.317
37410SOL    HW214128  10.588   2.502   2.415
37411SOL     OW14129   3.536   1.346   7.971
37411SOL    HW114130   3.583   1.411   8.023
37411SOL    HW214131   3.602   1.282   7.947
37412SOL     OW14132   9.658   9.818   4.797
37412SOL    HW114133   9.673   9.754   4.867
37412SOL    HW214134   9.647   9.901   4.843
37413SOL     OW14135  13.674   0.470   6.242
37413SOL    HW114136  13.686   0.565   6.245
37413SOL    HW214137  13.606   0.451   6.306
37414SOL     OW14138   3.825   9.550   0.049
37414SOL    HW114139   3.837   9.543  14.829
37414SOL    HW214140   3.913   9.538   0.084
37415SOL     OW14141   9.232   2.252  10.199
37415SOL    HW114142   9.305   2.280  10.253
37415SOL    HW214143   9.164   2.318  10.213
37416SOL     OW14144   4.184   0.684   4.494
37416SOL    HW114145   4.242   0.618   4.532
37416SOL    HW214146   4.170   0.747   4.565
37417SOL     OW14147   9.510   1.283   2.983
37417SOL    HW114148   9.506   1.247   2.895
37417SOL    HW214149   9.421   1.276   3.017
37418SOL     OW14150  12.186  12.135   8.596
37418SOL    HW114151  12.117  12.123   8.530
37418SOL    HW214152  12.207  12.046   8.624
37419SOL     OW14153  14.766   5.139  11.754
37419SOL    HW114154  14.750   5.222  11.708
37419SOL    HW214155  14.768   5.163  11.847
37420SOL     OW14156  10.311  12.423   7.487
37420SOL    HW114157  10.352  12.462   7.564
37420SOL    HW214158  10.360  12.461   7.413
37421SOL     OW14159   9.962   2.762   6.599
37421SOL    HW114160   9.905   2.769   6.522
37421SOL    HW214161  10.036   2.710   6.569
37422SOL     OW14162   6.236  14.074   0.275
37422SOL    HW114163   6.319  14.112   0.304
37422SOL    HW214164   6.260  13.991   0.236
37423SOL     OW14165  14.113   5.639   6.881
37423SOL    HW114166  14.149   5.561   6.838
37423SOL    HW214167  14.044   5.605   6.938
37424SOL     OW14168  13.504   1.074  13.449
37424SOL    HW114169  13.417   1.111  13.431
37424SOL    HW214170  13.536   1.123  13.525
37425SOL     OW14171   6.091   6.774  14.237
37425SOL    HW114172   6.000   6.802  14.245
37425SOL    HW214173   6.102   6.756  14.144
37426SOL     OW14174   8.177   9.451   8.816
37426SOL    HW114175   8.253   9.510   8.814
37426SOL    HW214176   8.102   9.509   8.802
37427SOL     OW14177  14.335  12.550   2.711
37427SOL    HW114178  14.256  12.588   2.674
37427SOL    HW214179  14.406  12.606   2.678
37428SOL     OW14180  11.320   4.569  11.377
37428SOL    HW114181  11.274   4.651  11.358
37428SOL    HW214182  11.260   4.500  11.348
37429SOL     OW14183   0.550  10.094  14.143
37429SOL    HW114184   0.501  10.125  14.067
37429SOL    HW214185   0.628  10.052  14.105
37430SOL     OW14186   3.295   6.577   4.641
37430SOL    HW114187   3.278   6.527   4.721
37430SOL    HW214188   3.344   6.653   4.671
37431SOL     OW14189   7.545  12.966   9.939
37431SOL    HW114190   7.519  12.916   9.861
37431SOL    HW214191   7.553  13.056   9.908
37432SOL     OW14192   1.619   7.910   1.383
37432SOL    HW114193   1.543   7.921   1.441
37432SOL    HW214194   1.660   7.996   1.382
37433SOL     OW14195  12.044   4.032  13.288
37433SOL    HW114196  12.059   3.938  13.277
37433SOL    HW214197  11.954   4.040  13.320
37434SOL     OW14198  14.437   3.299   7.468
37434SOL    HW114199  14.493   3.224   7.449
37434SOL    HW214200  14.435   3.349   7.386
37435SOL     OW14201   0.013   7.255   0.872
37435SOL    HW114202   0.054   7.198   0.936
37435SOL    HW214203  14.805   7.212   0.851
37436SOL     OW14204   4.167   3.771  14.825
37436SOL    HW114205   4.150   3.863  14.805
37436SOL    HW214206   4.097   3.746   0.010
37437SOL     OW14207  10.678  12.912   2.484
37437SOL    HW114208  10.640  12.954   2.560
37437SOL    HW214209  10.681  12.819   2.506
37438SOL     OW14210  14.358  12.403  13.276
37438SOL    HW114211  14.440  12.435  13.240
37438SOL    HW214212  14.370  12.308  13.285
37439SOL     OW14213  13.803  14.149  13.381
37439SOL    HW114214  13.756  14.222  13.342
37439SOL    HW214215  13.775  14.148  13.472
37440SOL     OW14216   2.192   7.088  10.539
37440SOL    HW114217   2.281   7.123  10.538
37440SOL    HW214218   2.151   7.126  10.461
37441SOL     OW14219   9.154   3.614   2.575
37441SOL    HW114220   9.189   3.605   2.663
37441SOL    HW214221   9.074   3.665   2.586
37442SOL     OW14222   3.974  14.590   2.300
37442SOL    HW114223   4.043  14.548   2.351
37442SOL    HW214224   3.912  14.622   2.364
37443SOL     OW14225   2.599  11.955   9.472
37443SOL    HW114226   2.599  11.860   9.462
37443SOL    HW214227   2.648  11.970   9.553
37444SOL     OW14228  12.429   3.097  13.756
37444SOL    HW114229  12.357   3.126  13.812
37444SOL    HW214230  12.458   3.015  13.796
37445SOL     OW14231   8.315  10.652   9.317
37445SOL    HW114232   8.261  10.731   9.319
37445SOL    HW214233   8.405  10.684   9.324
37446SOL     OW14234  11.222  11.248  11.382
37446SOL    HW114235  11.186  11.313  11.442
37446SOL    HW214236  11.190  11.164  11.414
37447SOL     OW14237  12.421   1.375   6.534
37447SOL    HW114238  12.419   1.439   6.605
37447SOL    HW214239  12.341   1.323   6.546
37448SOL     OW14240   7.628  14.731   5.567
37448SOL    HW114241   7.629  14.811   5.514
37448SOL    HW214242   7.681  14.669   5.517
37449SOL     OW14243  13.948  14.437   4.500
37449SOL    HW114244  13.943  14.472   4.589
37449SOL    HW214245  14.027  14.383   4.501
37450SOL     OW14246   8.622   1.955   0.643
37450SOL    HW114247   8.695   1.894   0.649
37450SOL    HW214248   8.660   2.034   0.604
37451SOL     OW14249  13.294   1.428   8.697
37451SOL    HW114250  13.271   1.387   8.780
37451SOL    HW214251  13.387   1.450   8.706
37452SOL     OW14252  11.464   1.318   4.531
37452SOL    HW114253  11.469   1.384   4.599
37452SOL    HW214254  11.402   1.354   4.467
37453SOL     OW14255   8.474   5.587   6.775
37453SOL    HW114256   8.446   5.626   6.858
37453SOL    HW214257   8.522   5.508   6.800
37454SOL     OW14258   1.017   9.341  13.896
37454SOL    HW114259   0.925   9.367  13.900
37454SOL    HW214260   1.045   9.341  13.988
37455SOL     OW14261   3.732   2.611   0.423
37455SOL    HW114262   3.716   2.538   0.363
37455SOL    HW214263   3.659   2.607   0.485
37456SOL     OW14264   3.124   9.389   4.450
37456SOL    HW114265   3.035   9.362   4.470
37456SOL    HW214266   3.179   9.337   4.509
37457SOL     OW14267   3.917   7.107   5.820
37457SOL    HW114268   3.889   7.041   5.756
37457SOL    HW214269   3.996   7.145   5.782
37458SOL     OW14270   0.531   8.446  11.596
37458SOL    HW114271   0.599   8.478  11.655
37458SOL    HW214272   0.515   8.356  11.625
37459SOL     OW14273  11.122   5.686  13.974
37459SOL    HW114274  11.045   5.682  14.030
37459SOL    HW214275  11.196   5.690  14.035
37460SOL     OW14276   1.232  13.086   5.247
37460SOL    HW114277   1.253  13.122   5.333
37460SOL    HW214278   1.141  13.112   5.232
37461SOL     OW14279   4.369  11.198  10.220
37461SOL    HW114280   4.364  11.273  10.279
37461SOL    HW214281   4.278  11.170  10.210
37462SOL     OW14282   8.617   9.860   9.052
37462SOL    HW114283   8.678   9.809   8.998
37462SOL    HW214284   8.626   9.823   9.139
37463SOL     OW14285   6.346   4.007   3.919
37463SOL    HW114286   6.420   3.978   3.866
37463SOL    HW214287   6.270   3.966   3.877
37464SOL     OW14288   4.629  12.127   0.080
37464SOL    HW114289   4.567  12.179   0.029
37464SOL    HW214290   4.711  12.175   0.075
37465SOL     OW14291   6.574  11.306   4.035
37465SOL    HW114292   6.620  11.358   3.969
37465SOL    HW214293   6.569  11.218   3.997
37466SOL     OW14294  10.268   3.460   9.826
37466SOL    HW114295  10.307   3.523   9.766
37466SOL    HW214296  10.335   3.392   9.837
37467SOL     OW14297   3.580   7.204   6.877
37467SOL    HW114298   3.543   7.193   6.789
37467SOL    HW214299   3.570   7.117   6.918
37468SOL     OW14300  11.257   7.949   1.702
37468SOL    HW114301  11.317   7.946   1.776
37468SOL    HW214302  11.228   7.859   1.690
37469SOL     OW14303   4.016   9.258  12.091
37469SOL    HW114304   3.981   9.270  12.179
37469SOL    HW214305   3.939   9.244  12.036
37470SOL     OW14306   7.830   9.899  10.005
37470SOL    HW114307   7.748   9.943   9.980
37470SOL    HW214308   7.807   9.850  10.084
37471SOL     OW14309   6.582   8.488   6.496
37471SOL    HW114310   6.588   8.394   6.474
37471SOL    HW214311   6.521   8.491   6.570
37472SOL     OW14312  11.012   6.993   0.971
37472SOL    HW114313  10.968   7.059   0.917
37472SOL    HW214314  10.957   6.984   1.049
37473SOL     OW14315   0.651   3.526   4.409
37473SOL    HW114316   0.583   3.572   4.458
37473SOL    HW214317   0.679   3.456   4.469
37474SOL     OW14318   3.808  13.856   9.113
37474SOL    HW114319   3.735  13.893   9.062
37474SOL    HW214320   3.766  13.818   9.190
37475SOL     OW14321  14.676  12.354   3.024
37475SOL    HW114322  14.757  12.385   2.985
37475SOL    HW214323  14.694  12.350   3.118
37476SOL     OW14324   4.634   8.491  11.346
37476SOL    HW114325   4.559   8.445  11.309
37476SOL    HW214326   4.664   8.434  11.417
37477SOL     OW14327  13.296   3.874   3.069
37477SOL    HW114328  13.222   3.821   3.100
37477SOL    HW214329  13.277   3.890   2.977
37478SOL     OW14330  14.582   4.893  12.007
37478SOL    HW114331  14.661   4.947  12.016
37478SOL    HW214332  14.542   4.897  12.094
37479SOL     OW14333   7.468   6.825   1.932
37479SOL    HW114334   7.462   6.916   1.962
37479SOL    HW214335   7.535   6.827   1.864
37480SOL     OW14336   5.383  10.718  12.224
37480SOL    HW114337   5.339  10.635  12.245
37480SOL    HW214338   5.432  10.700  12.144
37481SOL     OW14339   3.604   9.414  14.317
37481SOL    HW114340   3.548   9.362  14.374
37481SOL    HW214341   3.607   9.365  14.235
37482SOL     OW14342  12.980   9.357  10.578
37482SOL    HW114343  13.039   9.354  10.654
37482SOL    HW214344  13.015   9.292  10.517
37483SOL     OW14345   4.521   0.169   7.435
37483SOL    HW114346   4.556   0.116   7.363
37483SOL    HW214347   4.543   0.120   7.514
37484SOL     OW14348   8.581   0.044   0.487
37484SOL    HW114349   8.662   0.013   0.527
37484SOL    HW214350   8.607   0.078   0.401
37485SOL     OW14351  13.434   7.357   5.414
37485SOL    HW114352  13.377   7.419   5.368
37485SOL    HW214353  13.425   7.276   5.365
37486SOL     OW14354   2.699  12.482   6.074
37486SOL    HW114355   2.654  12.407   6.036
37486SOL    HW214356   2.711  12.459   6.167
37487SOL     OW14357   4.551   0.451   7.358
37487SOL    HW114358   4.466   0.476   7.321
37487SOL    HW214359   4.544   0.356   7.370
37488SOL     OW14360   9.377   9.305   3.836
37488SOL    HW114361   9.358   9.328   3.745
37488SOL    HW214362   9.461   9.261   3.833
37489SOL     OW14363  11.235   6.672   7.414
37489SOL    HW114364  11.325   6.651   7.440
37489SOL    HW214365  11.192   6.588   7.404
37490SOL     OW14366   9.959   0.180   8.276
37490SOL    HW114367   9.997   0.263   8.246
37490SOL    HW214368   9.948   0.129   8.196
37491SOL     OW14369   4.602  13.195  10.462
37491SOL    HW114370   4.683  13.147  10.444
37491SOL    HW214371   4.616  13.233  10.549
37492SOL     OW14372   9.299   0.094  13.586
37492SOL    HW114373   9.246   0.174  13.582
37492SOL    HW214374   9.235   0.023  13.583
37493SOL     OW14375   2.285   9.493  14.646
37493SOL    HW114376   2.375   9.461  14.649
37493SOL    HW214377   2.231   9.414  14.646
37494SOL     OW14378  14.551  12.565   3.522
37494SOL    HW114379  14.623  12.522   3.569
37494SOL    HW214380  14.485  12.580   3.590
37495SOL     OW14381   2.927  12.351  10.916
37495SOL    HW114382   3.010  12.324  10.956
37495SOL    HW214383   2.914  12.290  10.843
37496SOL     OW14384   8.686  12.340   0.879
37496SOL    HW114385   8.775  12.345   0.843
37496SOL    HW214386   8.691  12.389   0.961
37497SOL     OW14387   1.301   9.472  10.344
37497SOL    HW114388   1.317   9.566  10.337
37497SOL    HW214389   1.254   9.450  10.263
37498SOL     OW14390   1.688   3.599   4.495
37498SOL    HW114391   1.633   3.560   4.563
37498SOL    HW214392   1.636   3.672   4.461
37499SOL     OW14393   0.923  10.561   0.922
37499SOL    HW114394   0.928  10.633   0.985
37499SOL    HW214395   1.012  10.555   0.886
37500SOL     OW14396  13.618   3.295  12.974
37500SOL    HW114397  13.558   3.286  12.900
37500SOL    HW214398  13.703   3.268  12.940
37501SOL     OW14399  10.232  10.750   3.542
37501SOL    HW114400  10.176  10.799   3.602
37501SOL    HW214401  10.319  10.788   3.555
37502SOL     OW14402   2.971  10.375  13.124
37502SOL    HW114403   3.008  10.322  13.195
37502SOL    HW214404   3.032  10.364  13.051
37503SOL     OW14405   4.697   2.033   5.046
37503SOL    HW114406   4.637   2.084   4.992
37503SOL    HW214407   4.777   2.086   5.050
37504SOL     OW14408  10.377   0.954   9.382
37504SOL    HW114409  10.299   0.977   9.332
37504SOL    HW214410  10.428   0.897   9.323
37505SOL     OW14411   9.177   8.859  11.226
37505SOL    HW114412   9.270   8.872  11.213
37505SOL    HW214413   9.164   8.874  11.320
37506SOL     OW14414  11.681   6.276   1.149
37506SOL    HW114415  11.681   6.268   1.054
37506SOL    HW214416  11.603   6.329   1.169
37507SOL     OW14417   6.036   6.734  13.963
37507SOL    HW114418   6.104   6.723  13.896
37507SOL    HW214419   5.999   6.646  13.975
37508SOL     OW14420   2.929  13.543  11.927
37508SOL    HW114421   2.944  13.625  11.974
37508SOL    HW214422   2.845  13.556  11.882
37509SOL     OW14423   0.670  12.489   5.868
37509SOL    HW114424   0.708  12.561   5.917
37509SOL    HW214425   0.742  12.427   5.857
37510SOL     OW14426   5.995  14.095   0.681
37510SOL    HW114427   5.944  14.058   0.753
37510SOL    HW214428   5.946  14.173   0.655
37511SOL     OW14429   2.328   8.593   8.951
37511SOL    HW114430   2.246   8.639   8.934
37511SOL    HW214431   2.336   8.530   8.879
37512SOL     OW14432   6.550  13.198   8.387
37512SOL    HW114433   6.466  13.171   8.352
37512SOL    HW214434   6.556  13.154   8.472
37513SOL     OW14435   4.829   5.509  11.598
37513SOL    HW114436   4.798   5.598  11.613
37513SOL    HW214437   4.752   5.454  11.613
37514SOL     OW14438   2.240   3.335   1.669
37514SOL    HW114439   2.162   3.338   1.725
37514SOL    HW214440   2.256   3.242   1.656
37515SOL     OW14441   1.774  11.965  14.626
37515SOL    HW114442   1.804  11.953  14.716
37515SOL    HW214443   1.722  11.887  14.607
37516SOL     OW14444   5.897   7.442   0.943
37516SOL    HW114445   5.970   7.502   0.929
37516SOL    HW214446   5.831   7.468   0.879
37517SOL     OW14447  11.456   7.387   6.735
37517SOL    HW114448  11.438   7.422   6.823
37517SOL    HW214449  11.550   7.399   6.724
37518SOL     OW14450  12.873  14.854   4.708
37518SOL    HW114451  12.834   0.006   4.625
37518SOL    HW214452  12.804  14.867   4.773
37519SOL     OW14453   6.857   1.758   6.998
37519SOL    HW114454   6.938   1.771   7.047
37519SOL    HW214455   6.793   1.732   7.064
37520SOL     OW14456  12.490   0.655  10.224
37520SOL    HW114457  12.510   0.564  10.245
37520SOL    HW214458  12.400   0.654  10.193
37521SOL     OW14459  13.425  10.463  12.918
37521SOL    HW114460  13.368  10.403  12.966
37521SOL    HW214461  13.470  10.407  12.854
37522SOL     OW14462  10.033  11.804   2.839
37522SOL    HW114463   9.992  11.772   2.919
37522SOL    HW214464  10.029  11.900   2.847
37523SOL     OW14465   4.501  10.067  13.984
37523SOL    HW114466   4.437   9.996  13.981
37523SOL    HW214467   4.564  10.046  13.916
37524SOL     OW14468  12.381   4.432   0.112
37524SOL    HW114469  12.404   4.367   0.179
37524SOL    HW214470  12.464   4.467   0.082
37525SOL     OW14471  11.934   0.945   3.135
37525SOL    HW114472  11.979   0.861   3.137
37525SOL    HW214473  11.891   0.948   3.050
37526SOL     OW14474   7.264   9.702   0.891
37526SOL    HW114475   7.246   9.608   0.891
37526SOL    HW214476   7.213   9.737   0.818
37527SOL     OW14477   9.149   8.583  11.375
37527SOL    HW114478   9.110   8.577  11.288
37527SOL    HW214479   9.243   8.588  11.360
37528SOL     OW14480   1.983   8.568   9.267
37528SOL    HW114481   1.937   8.587   9.349
37528SOL    HW214482   2.075   8.558   9.293
37529SOL     OW14483   0.565  13.604   6.410
37529SOL    HW114484   0.586  13.542   6.340
37529SOL    HW214485   0.593  13.689   6.377
37530SOL     OW14486   2.245  12.741   8.611
37530SOL    HW114487   2.241  12.658   8.565
37530SOL    HW214488   2.234  12.718   8.703
37531SOL     OW14489  11.040   9.805  11.779
37531SOL    HW114490  11.111   9.779  11.838
37531SOL    HW214491  10.961   9.799  11.832
37532SOL     OW14492   8.228   6.232   0.375
37532SOL    HW114493   8.314   6.190   0.381
37532SOL    HW214494   8.247   6.326   0.385
37533SOL     OW14495   8.668   8.281  12.487
37533SOL    HW114496   8.595   8.339  12.505
37533SOL    HW214497   8.742   8.339  12.469
37534SOL     OW14498  14.541  10.555   3.188
37534SOL    HW114499  14.554  10.611   3.111
37534SOL    HW214500  14.518  10.616   3.258
37535SOL     OW14501  10.713   1.641   5.917
37535SOL    HW114502  10.786   1.593   5.879
37535SOL    HW214503  10.738   1.655   6.008
37536SOL     OW14504   7.134   4.134   7.489
37536SOL    HW114505   7.183   4.122   7.570
37536SOL    HW214506   7.044   4.115   7.512
37537SOL     OW14507   5.789  13.515   3.839
37537SOL    HW114508   5.756  13.605   3.846
37537SOL    HW214509   5.881  13.526   3.814
37538SOL     OW14510   6.015   1.839  14.605
37538SOL    HW114511   6.087   1.856  14.545
37538SOL    HW214512   5.948   1.799  14.551
37539SOL     OW14513   1.405   7.439   3.715
37539SOL    HW114514   1.355   7.364   3.683
37539SOL    HW214515   1.357   7.515   3.684
37540SOL     OW14516   8.981   4.436   9.229
37540SOL    HW114517   8.984   4.475   9.316
37540SOL    HW214518   8.890   4.444   9.201
37541SOL     OW14519   3.856   2.197   3.817
37541SOL    HW114520   3.877   2.248   3.894
37541SOL    HW214521   3.761   2.207   3.807
37542SOL     OW14522  13.600   4.104   2.522
37542SOL    HW114523  13.548   4.161   2.578
37542SOL    HW214524  13.674   4.158   2.495
37543SOL     OW14525   7.885   3.480   8.121
37543SOL    HW114526   7.927   3.566   8.118
37543SOL    HW214527   7.944   3.423   8.072
37544SOL     OW14528  11.332   6.558  14.713
37544SOL    HW114529  11.420   6.540  14.680
37544SOL    HW214530  11.278   6.567  14.634
37545SOL     OW14531  12.450   7.029   3.042
37545SOL    HW114532  12.507   6.957   3.067
37545SOL    HW214533  12.506   7.107   3.046
37546SOL     OW14534  10.356   9.150   6.007
37546SOL    HW114535  10.338   9.244   6.015
37546SOL    HW214536  10.303   9.110   6.076
37547SOL     OW14537   4.802  11.530   7.816
37547SOL    HW114538   4.772  11.442   7.838
37547SOL    HW214539   4.854  11.519   7.737
37548SOL     OW14540   8.154  14.835  13.569
37548SOL    HW114541   8.193  14.799  13.649
37548SOL    HW214542   8.129   0.049  13.593
37549SOL     OW14543   9.801  13.996   5.451
37549SOL    HW114544   9.787  13.928   5.385
37549SOL    HW214545   9.896  14.003   5.459
37550SOL     OW14546   1.829  14.482  12.149
37550SOL    HW114547   1.922  14.491  12.129
37550SOL    HW214548   1.813  14.545  12.218
37551SOL     OW14549   0.082  12.629  11.069
37551SOL    HW114550   0.148  12.566  11.038
37551SOL    HW214551   0.057  12.596  11.155
37552SOL     OW14552   2.657   8.250   3.221
37552SOL    HW114553   2.720   8.276   3.288
37552SOL    HW214554   2.578   8.301   3.243
37553SOL     OW14555   2.862  10.747  12.409
37553SOL    HW114556   2.852  10.713  12.320
37553SOL    HW214557   2.916  10.681  12.454
37554SOL     OW14558   6.061   9.205   9.812
37554SOL    HW114559   6.019   9.291   9.808
37554SOL    HW214560   5.990   9.145   9.836
37555SOL     OW14561   7.986  14.855   1.174
37555SOL    HW114562   7.933   0.049   1.135
37555SOL    HW214563   7.929  14.778   1.172
37556SOL     OW14564  12.297   9.619   0.943
37556SOL    HW114565  12.240   9.557   0.897
37556SOL    HW214566  12.346   9.663   0.873
37557SOL     OW14567   1.636   2.177  11.576
37557SOL    HW114568   1.592   2.259  11.557
37557SOL    HW214569   1.655   2.182  11.670
37558SOL     OW14570   8.957   2.505   1.097
37558SOL    HW114571   9.014   2.579   1.073
37558SOL    HW214572   9.005   2.428   1.067
37559SOL     OW14573   8.252   2.184   1.464
37559SOL    HW114574   8.289   2.110   1.414
37559SOL    HW214575   8.221   2.245   1.397
37560SOL     OW14576   4.417   5.248  14.448
37560SOL    HW114577   4.349   5.197  14.404
37560SOL    HW214578   4.498   5.227  14.400
37561SOL     OW14579   8.151   7.377  13.783
37561SOL    HW114580   8.224   7.318  13.765
37561SOL    HW214581   8.192   7.456  13.817
37562SOL     OW14582   9.929   7.531   3.883
37562SOL    HW114583   9.848   7.581   3.872
37562SOL    HW214584   9.901   7.445   3.913
37563SOL     OW14585   2.770  13.533   6.708
37563SOL    HW114586   2.820  13.464   6.751
37563SOL    HW214587   2.684  13.531   6.750
37564SOL     OW14588  12.111   4.720  13.479
37564SOL    HW114589  12.201   4.746  13.497
37564SOL    HW214590  12.097   4.643  13.534
37565SOL     OW14591   9.889  11.434   2.904
37565SOL    HW114592   9.885  11.477   2.819
37565SOL    HW214593   9.981  11.442   2.930
37566SOL     OW14594  10.740   9.088  14.104
37566SOL    HW114595  10.757   9.067  14.013
37566SOL    HW214596  10.791   9.024  14.154
37567SOL     OW14597  13.484  14.705  11.528
37567SOL    HW114598  13.555  14.700  11.592
37567SOL    HW214599  13.446  14.793  11.541
37568SOL     OW14600   2.664  12.121  11.878
37568SOL    HW114601   2.638  12.033  11.907
37568SOL    HW214602   2.757  12.127  11.901
37569SOL     OW14603   7.424   9.029  13.612
37569SOL    HW114604   7.515   9.037  13.584
37569SOL    HW214605   7.414   9.097  13.679
37570SOL     OW14606   7.149   1.118   3.502
37570SOL    HW114607   7.170   1.061   3.576
37570SOL    HW214608   7.233   1.152   3.473
37571SOL     OW14609  10.046  14.223   5.742
37571SOL    HW114610   9.967  14.216   5.688
37571SOL    HW214611  10.109  14.165   5.699
37572SOL     OW14612   8.426  10.400   0.176
37572SOL    HW114613   8.516  10.387   0.208
37572SOL    HW214614   8.399  10.484   0.215
37573SOL     OW14615   6.969   0.696   2.051
37573SOL    HW114616   6.991   0.700   2.144
37573SOL    HW214617   6.985   0.785   2.019
37574SOL     OW14618  11.010   8.750   3.053
37574SOL    HW114619  11.015   8.741   2.958
37574SOL    HW214620  11.002   8.660   3.085
37575SOL     OW14621   5.409  14.213   3.648
37575SOL    HW114622   5.398  14.222   3.743
37575SOL    HW214623   5.370  14.128   3.628
37576SOL     OW14624   8.385   8.074  13.522
37576SOL    HW114625   8.414   7.984  13.509
37576SOL    HW214626   8.457   8.128  13.488
37577SOL     OW14627   7.502   9.729   0.994
37577SOL    HW114628   7.492   9.758   1.084
37577SOL    HW214629   7.416   9.740   0.955
37578SOL     OW14630   3.906  12.963   0.655
37578SOL    HW114631   3.987  12.970   0.705
37578SOL    HW214632   3.878  13.053   0.640
37579SOL     OW14633  12.512  12.417   1.734
37579SOL    HW114634  12.588  12.389   1.684
37579SOL    HW214635  12.540  12.498   1.776
37580SOL     OW14636  14.613   0.785   5.341
37580SOL    HW114637  14.687   0.729   5.321
37580SOL    HW214638  14.638   0.871   5.308
37581SOL     OW14639   9.698   6.890  10.594
37581SOL    HW114640   9.657   6.832  10.658
37581SOL    HW214641   9.783   6.913  10.632
37582SOL     OW14642   5.466  10.047  11.216
37582SOL    HW114643   5.516  10.126  11.235
37582SOL    HW214644   5.502   9.980  11.274
37583SOL     OW14645   5.139  11.075  13.887
37583SOL    HW114646   5.095  10.992  13.904
37583SOL    HW214647   5.108  11.102  13.801
37584SOL     OW14648   6.740   6.981   8.653
37584SOL    HW114649   6.784   6.937   8.580
37584SOL    HW214650   6.712   7.065   8.616
37585SOL     OW14651   3.729  11.887   9.122
37585SOL    HW114652   3.822  11.871   9.107
37585SOL    HW214653   3.727  11.970   9.170
37586SOL     OW14654   7.375   1.119   3.174
37586SOL    HW114655   7.471   1.110   3.174
37586SOL    HW214656   7.356   1.184   3.241
37587SOL     OW14657   2.602   1.284   6.895
37587SOL    HW114658   2.583   1.376   6.912
37587SOL    HW214659   2.697   1.279   6.890
37588SOL     OW14660  12.331   8.918  10.902
37588SOL    HW114661  12.346   8.836  10.949
37588SOL    HW214662  12.413   8.935  10.856
37589SOL     OW14663   3.650   3.520   7.137
37589SOL    HW114664   3.745   3.525   7.130
37589SOL    HW214665   3.617   3.581   7.071
37590SOL     OW14666   5.008   0.127  10.891
37590SOL    HW114667   5.103   0.121  10.888
37590SOL    HW214668   4.978   0.038  10.871
37591SOL     OW14669   5.817   7.130   7.099
37591SOL    HW114670   5.776   7.193   7.039
37591SOL    HW214671   5.832   7.052   7.045
37592SOL     OW14672   8.879   8.915  12.897
37592SOL    HW114673   8.943   8.858  12.940
37592SOL    HW214674   8.798   8.902  12.947
37593SOL     OW14675   2.536   9.931  10.714
37593SOL    HW114676   2.555   9.999  10.651
37593SOL    HW214677   2.485   9.974  10.782
37594SOL     OW14678   5.831   3.220   9.362
37594SOL    HW114679   5.899   3.167   9.320
37594SOL    HW214680   5.878   3.294   9.400
37595SOL     OW14681   9.771   8.486   6.177
37595SOL    HW114682   9.719   8.408   6.196
37595SOL    HW214683   9.830   8.459   6.107
37596SOL     OW14684  11.832   7.495  14.062
37596SOL    HW114685  11.773   7.529  13.995
37596SOL    HW214686  11.775   7.479  14.138
37597SOL     OW14687   4.583   5.282   0.293
37597SOL    HW114688   4.537   5.201   0.314
37597SOL    HW214689   4.580   5.288   0.198
37598SOL     OW14690  13.515  11.797   8.911
37598SOL    HW114691  13.537  11.708   8.882
37598SOL    HW214692  13.575  11.814   8.984
37599SOL     OW14693  11.759   5.592   6.635
37599SOL    HW114694  11.786   5.571   6.545
37599SOL    HW214695  11.700   5.667   6.625
37600SOL     OW14696  10.627   7.406   8.959
37600SOL    HW114697  10.574   7.347   9.012
37600SOL    HW214698  10.626   7.366   8.871
37601SOL     OW14699  14.052   2.408   4.716
37601SOL    HW114700  14.041   2.313   4.724
37601SOL    HW214701  14.027   2.427   4.626
37602SOL     OW14702   2.415   3.234  12.829
37602SOL    HW114703   2.446   3.154  12.786
37602SOL    HW214704   2.379   3.287  12.758
37603SOL     OW14705   2.403  11.454   2.894
37603SOL    HW114706   2.409  11.400   2.973
37603SOL    HW214707   2.461  11.410   2.831
37604SOL     OW14708   9.736  10.071   7.873
37604SOL    HW114709   9.798  10.129   7.830
37604SOL    HW214710   9.786  10.031   7.944
37605SOL     OW14711   5.722  13.174   9.951
37605SOL    HW114712   5.795  13.233   9.934
37605SOL    HW214713   5.736  13.143  10.040
37606SOL     OW14714   7.178   3.599   7.570
37606SOL    HW114715   7.225   3.648   7.637
37606SOL    HW214716   7.135   3.528   7.619
37607SOL     OW14717   8.929   0.084   7.905
37607SOL    HW114718   8.835   0.082   7.887
37607SOL    HW214719   8.939   0.042   7.990
37608SOL     OW14720  12.091   7.499   0.347
37608SOL    HW114721  12.096   7.504   0.443
37608SOL    HW214722  12.070   7.407   0.330
37609SOL     OW14723  14.210   2.040   6.729
37609SOL    HW114724  14.148   2.064   6.660
37609SOL    HW214725  14.175   2.083   6.808
37610SOL     OW14726   7.166   8.285   6.427
37610SOL    HW114727   7.085   8.336   6.432
37610SOL    HW214728   7.234   8.350   6.408
37611SOL     OW14729   4.446   2.728  14.742
37611SOL    HW114730   4.506   2.801  14.726
37611SOL    HW214731   4.445   2.679  14.660
37612SOL     OW14732  10.486   6.274  13.753
37612SOL    HW114733  10.408   6.221  13.731
37612SOL    HW214734  10.451   6.348  13.802
37613SOL     OW14735  10.005   2.025   0.449
37613SOL    HW114736  10.029   1.950   0.395
37613SOL    HW214737  10.089   2.058   0.482
37614SOL     OW14738  12.965   0.910   2.378
37614SOL    HW114739  12.974   0.869   2.292
37614SOL    HW214740  12.955   0.836   2.438
37615SOL     OW14741  10.878   1.584   5.629
37615SOL    HW114742  10.825   1.508   5.606
37615SOL    HW214743  10.838   1.657   5.582
37616SOL     OW14744  13.973   2.070   9.594
37616SOL    HW114745  14.000   1.998   9.537
37616SOL    HW214746  14.048   2.085   9.651
37617SOL     OW14747   3.907   0.468  11.141
37617SOL    HW114748   3.922   0.422  11.058
37617SOL    HW214749   3.969   0.429  11.202
37618SOL     OW14750   2.752   0.419  12.944
37618SOL    HW114751   2.739   0.329  12.915
37618SOL    HW214752   2.664   0.456  12.949
37619SOL     OW14753   9.875   5.856  13.461
37619SOL    HW114754   9.878   5.768  13.424
37619SOL    HW214755   9.785   5.885  13.449
37620SOL     OW14756  11.630  10.339   0.567
37620SOL    HW114757  11.689  10.412   0.586
37620SOL    HW214758  11.548  10.380   0.541
37621SOL     OW14759   2.240   1.462   1.213
37621SOL    HW114760   2.320   1.506   1.185
37621SOL    HW214761   2.176   1.484   1.145
37622SOL     OW14762   2.525  14.619  13.022
37622SOL    HW114763   2.475  14.585  13.096
37622SOL    HW214764   2.599  14.560  13.013
37623SOL     OW14765   3.679   8.276  12.753
37623SOL    HW114766   3.738   8.203  12.773
37623SOL    HW214767   3.707   8.307  12.667
37624SOL     OW14768   1.954  13.411  13.370
37624SOL    HW114769   1.867  13.426  13.333
37624SOL    HW214770   1.944  13.332  13.424
37625SOL     OW14771  10.422   1.690   4.111
37625SOL    HW114772  10.420   1.601   4.146
37625SOL    HW214773  10.368   1.741   4.172
37626SOL     OW14774   3.487  10.320   9.961
37626SOL    HW114775   3.428  10.245   9.955
37626SOL    HW214776   3.448  10.386   9.905
37627SOL     OW14777   2.863  14.823   5.303
37627SOL    HW114778   2.942  14.815   5.356
37627SOL    HW214779   2.885  14.784   5.219
37628SOL     OW14780   8.037   0.924   9.001
37628SOL    HW114781   8.112   0.923   9.060
37628SOL    HW214782   8.012   1.016   8.995
37629SOL     OW14783   1.711  12.029   2.277
37629SOL    HW114784   1.712  12.073   2.362
37629SOL    HW214785   1.775  12.077   2.225
37630SOL     OW14786  10.138   8.077   9.283
37630SOL    HW114787  10.126   8.072   9.189
37630SOL    HW214788  10.231   8.096   9.295
37631SOL     OW14789   5.399   6.982   7.122
37631SOL    HW114790   5.476   6.960   7.175
37631SOL    HW214791   5.327   6.985   7.184
37632SOL     OW14792  11.845   7.376   6.011
37632SOL    HW114793  11.906   7.373   5.938
37632SOL    HW214794  11.774   7.433   5.981
37633SOL     OW14795  13.901   7.825   6.837
37633SOL    HW114796  13.831   7.822   6.902
37633SOL    HW214797  13.916   7.918   6.823
37634SOL     OW14798  12.610  14.406  12.201
37634SOL    HW114799  12.596  14.500  12.190
37634SOL    HW214800  12.681  14.384  12.141
37635SOL     OW14801   0.445   5.058   7.720
37635SOL    HW114802   0.531   5.100   7.716
37635SOL    HW214803   0.410   5.082   7.806
37636SOL     OW14804   4.902   8.462  10.705
37636SOL    HW114805   4.942   8.500  10.627
37636SOL    HW214806   4.832   8.406  10.671
37637SOL     OW14807   8.252  13.427  12.245
37637SOL    HW114808   8.345  13.441  12.224
37637SOL    HW214809   8.211  13.512  12.226
37638SOL     OW14810   1.267   1.452   5.975
37638SOL    HW114811   1.316   1.372   5.956
37638SOL    HW214812   1.335   1.519   5.985
37639SOL     OW14813   9.885  12.563   1.131
37639SOL    HW114814   9.939  12.622   1.079
37639SOL    HW214815   9.803  12.557   1.083
37640SOL     OW14816   9.931   6.584  13.325
37640SOL    HW114817   9.974   6.530  13.258
37640SOL    HW214818   9.939   6.674  13.293
37641SOL     OW14819   4.071  13.600   5.855
37641SOL    HW114820   4.017  13.629   5.781
37641SOL    HW214821   4.147  13.658   5.853
37642SOL     OW14822  12.635  12.215   9.652
37642SOL    HW114823  12.727  12.210   9.624
37642SOL    HW214824  12.585  12.221   9.571
37643SOL     OW14825   4.058  13.089   6.246
37643SOL    HW114826   4.154  13.080   6.246
37643SOL    HW214827   4.041  13.155   6.313
37644SOL     OW14828   3.886   0.156   5.223
37644SOL    HW114829   3.838   0.208   5.288
37644SOL    HW214830   3.929   0.088   5.274
37645SOL     OW14831   2.438   5.053   3.655
37645SOL    HW114832   2.531   5.062   3.677
37645SOL    HW214833   2.391   5.091   3.729
37646SOL     OW14834  12.724   8.926   1.378
37646SOL    HW114835  12.711   9.020   1.382
37646SOL    HW214836  12.637   8.890   1.366
37647SOL     OW14837   7.687   0.826   6.866
37647SOL    HW114838   7.704   0.904   6.813
37647SOL    HW214839   7.746   0.759   6.831
37648SOL     OW14840   0.165  11.148   3.130
37648SOL    HW114841   0.171  11.101   3.046
37648SOL    HW214842   0.242  11.205   3.130
37649SOL     OW14843   3.203   6.647  11.099
37649SOL    HW114844   3.108   6.636  11.099
37649SOL    HW214845   3.238   6.559  11.084
37650SOL     OW14846  13.406  13.634   0.280
37650SOL    HW114847  13.430  13.604   0.368
37650SOL    HW214848  13.312  13.653   0.287
37651SOL     OW14849   4.504   5.920  10.136
37651SOL    HW114850   4.432   5.967  10.178
37651SOL    HW214851   4.575   5.985  10.130
37652SOL     OW14852  11.401  10.079   4.966
37652SOL    HW114853  11.435   9.993   4.991
37652SOL    HW214854  11.306  10.070   4.974
37653SOL     OW14855   9.002   0.464   4.489
37653SOL    HW114856   9.015   0.476   4.395
37653SOL    HW214857   8.907   0.455   4.500
37654SOL     OW14858   8.886  10.727   0.809
37654SOL    HW114859   8.915  10.795   0.869
37654SOL    HW214860   8.919  10.754   0.723
37655SOL     OW14861   3.685   5.630   7.996
37655SOL    HW114862   3.653   5.719   8.015
37655SOL    HW214863   3.774   5.629   8.029
37656SOL     OW14864   3.206   8.090   8.088
37656SOL    HW114865   3.233   8.008   8.129
37656SOL    HW214866   3.120   8.072   8.051
37657SOL     OW14867   6.593   0.400   0.663
37657SOL    HW114868   6.544   0.477   0.634
37657SOL    HW214869   6.625   0.360   0.582
37658SOL     OW14870   7.144  10.375  11.086
37658SOL    HW114871   7.108  10.380  11.175
37658SOL    HW214872   7.223  10.429  11.088
37659SOL     OW14873   1.831   1.387   1.687
37659SOL    HW114874   1.799   1.325   1.621
37659SOL    HW214875   1.926   1.387   1.676
37660SOL     OW14876   7.511   4.956   8.246
37660SOL    HW114877   7.536   4.988   8.333
37660SOL    HW214878   7.427   4.998   8.228
37661SOL     OW14879  14.857  14.492   9.540
37661SOL    HW114880  14.865  14.471   9.447
37661SOL    HW214881   0.036  14.427   9.584
37662SOL     OW14882  14.115  14.255   9.361
37662SOL    HW114883  14.164  14.228   9.439
37662SOL    HW214884  14.118  14.351   9.364
37663SOL     OW14885   4.530  13.493   1.396
37663SOL    HW114886   4.595  13.552   1.357
37663SOL    HW214887   4.473  13.549   1.446
37664SOL     OW14888   4.349   7.128   4.886
37664SOL    HW114889   4.418   7.163   4.943
37664SOL    HW214890   4.333   7.197   4.823
37665SOL     OW14891   2.165   5.924   9.203
37665SOL    HW114892   2.244   5.978   9.206
37665SOL    HW214893   2.199   5.834   9.207
37666SOL     OW14894   6.604  12.796   4.965
37666SOL    HW114895   6.564  12.773   4.881
37666SOL    HW214896   6.695  12.817   4.943
37667SOL     OW14897  12.257   8.246   3.657
37667SOL    HW114898  12.194   8.262   3.727
37667SOL    HW214899  12.253   8.324   3.603
37668SOL     OW14900   1.309   4.518   4.026
37668SOL    HW114901   1.278   4.464   3.954
37668SOL    HW214902   1.404   4.519   4.017
37669SOL     OW14903   9.518   6.656  14.185
37669SOL    HW114904   9.568   6.737  14.196
37669SOL    HW214905   9.486   6.636  14.273
37670SOL     OW14906   9.768  14.034   3.593
37670SOL    HW114907   9.701  14.100   3.574
37670SOL    HW214908   9.786  13.994   3.508
37671SOL     OW14909   7.489   4.543   0.093
37671SOL    HW114910   7.580   4.568   0.081
37671SOL    HW214911   7.477   4.467   0.036
37672SOL     OW14912   4.836   5.074   0.177
37672SOL    HW114913   4.856   5.111   0.263
37672SOL    HW214914   4.911   5.096   0.122
37673SOL     OW14915  13.271  12.833   6.780
37673SOL    HW114916  13.287  12.771   6.708
37673SOL    HW214917  13.186  12.872   6.760
37674SOL     OW14918   3.773  13.212   2.049
37674SOL    HW114919   3.683  13.213   2.016
37674SOL    HW214920   3.762  13.215   2.145
37675SOL     OW14921   9.172   4.312  13.064
37675SOL    HW114922   9.150   4.405  13.068
37675SOL    HW214923   9.138   4.275  13.146
37676SOL     OW14924   1.948  14.760   2.354
37676SOL    HW114925   1.855  14.755   2.335
37676SOL    HW214926   1.964  14.690   2.416
37677SOL     OW14927  10.038   8.073   0.323
37677SOL    HW114928   9.999   8.146   0.371
37677SOL    HW214929  10.126   8.065   0.359
37678SOL     OW14930   1.701   1.004   7.953
37678SOL    HW114931   1.752   0.971   7.879
37678SOL    HW214932   1.766   1.039   8.013
37679SOL     OW14933   0.336  14.098   4.329
37679SOL    HW114934   0.264  14.157   4.353
37679SOL    HW214935   0.305  14.053   4.251
37680SOL     OW14936  11.872   9.988   3.625
37680SOL    HW114937  11.942   9.994   3.690
37680SOL    HW214938  11.806   9.931   3.665
37681SOL     OW14939   3.937   6.800  11.306
37681SOL    HW114940   4.008   6.745  11.340
37681SOL    HW214941   3.981   6.863  11.248
37682SOL     OW14942   0.882   4.162  13.545
37682SOL    HW114943   0.966   4.199  13.516
37682SOL    HW214944   0.819   4.193  13.480
37683SOL     OW14945   5.593   4.662   4.363
37683SOL    HW114946   5.565   4.631   4.277
37683SOL    HW214947   5.515   4.701   4.402
37684SOL     OW14948   1.824  11.893   0.333
37684SOL    HW114949   1.823  11.802   0.361
37684SOL    HW214950   1.854  11.942   0.409
37685SOL     OW14951   2.868   1.546  11.715
37685SOL    HW114952   2.839   1.530  11.805
37685SOL    HW214953   2.809   1.616  11.685
37686SOL     OW14954  12.592   7.178   6.697
37686SOL    HW114955  12.531   7.247   6.724
37686SOL    HW214956  12.549   7.097   6.724
37687SOL     OW14957  14.278   3.315   0.550
37687SOL    HW114958  14.353   3.271   0.512
37687SOL    HW214959  14.314   3.367   0.623
37688SOL     OW14960   6.444   0.485   9.147
37688SOL    HW114961   6.370   0.527   9.192
37688SOL    HW214962   6.447   0.527   9.061
37689SOL     OW14963   7.508   9.062  12.994
37689SOL    HW114964   7.537   9.058  13.085
37689SOL    HW214965   7.586   9.045  12.942
37690SOL     OW14966  10.902  12.281   5.295
37690SOL    HW114967  10.879  12.374   5.302
37690SOL    HW214968  10.857  12.240   5.369
37691SOL     OW14969   4.408   5.798   0.706
37691SOL    HW114970   4.339   5.739   0.674
37691SOL    HW214971   4.373   5.886   0.691
37692SOL     OW14972   6.049   4.576   6.385
37692SOL    HW114973   6.121   4.514   6.399
37692SOL    HW214974   6.073   4.624   6.306
37693SOL     OW14975   3.532   2.973  13.920
37693SOL    HW114976   3.599   3.008  13.862
37693SOL    HW214977   3.521   3.040  13.987
37694SOL     OW14978  11.918   5.520   7.073
37694SOL    HW114979  11.958   5.439   7.103
37694SOL    HW214980  11.883   5.498   6.987
37695SOL     OW14981   7.010   7.188   1.812
37695SOL    HW114982   7.006   7.227   1.899
37695SOL    HW214983   6.979   7.098   1.824
37696SOL     OW14984   0.510   0.039   1.290
37696SOL    HW114985   0.416   0.036   1.276
37696SOL    HW214986   0.533  14.826   1.319
37697SOL     OW14987   1.828  10.314   2.735
37697SOL    HW114988   1.912  10.272   2.718
37697SOL    HW214989   1.842  10.364   2.815
37698SOL     OW14990   3.211   3.782   8.303
37698SOL    HW114991   3.300   3.760   8.275
37698SOL    HW214992   3.204   3.747   8.391
37699SOL     OW14993   4.303   0.073   2.494
37699SOL    HW114994   4.322  14.873   2.438
37699SOL    HW214995   4.210   0.067   2.512
37700SOL     OW14996  11.344   5.193  13.515
37700SOL    HW114997  11.408   5.128  13.541
37700SOL    HW214998  11.358   5.266  13.575
37701SOL     OW14999  11.834   5.133  13.722
37701SOL    HW115000  11.887   5.058  13.749
37701SOL    HW215001  11.864   5.154  13.634
37702SOL     OW15002  10.993   2.712   8.249
37702SOL    HW115003  11.040   2.702   8.166
37702SOL    HW215004  11.052   2.673   8.314
37703SOL     OW15005  10.921   4.537  13.571
37703SOL    HW115006  10.883   4.521  13.484
37703SOL    HW215007  10.865   4.486  13.631
37704SOL     OW15008   8.413   0.168   4.064
37704SOL    HW115009   8.467   0.123   4.129
37704SOL    HW215010   8.452   0.256   4.058
37705SOL     OW15011  13.515  14.500  12.245
37705SOL    HW115012  13.498  14.433  12.179
37705SOL    HW215013  13.429  14.517  12.284
37706SOL     OW15014   7.932   7.391   2.192
37706SOL    HW115015   7.986   7.408   2.269
37706SOL    HW215016   7.855   7.346   2.226
37707SOL     OW15017  14.000   8.221   1.519
37707SOL    HW115018  14.035   8.222   1.429
37707SOL    HW215019  13.928   8.159   1.516
37708SOL     OW15020   8.850   8.392  10.803
37708SOL    HW115021   8.816   8.459  10.863
37708SOL    HW215022   8.784   8.323  10.805
37709SOL     OW15023   4.501  11.750   0.699
37709SOL    HW115024   4.563  11.805   0.746
37709SOL    HW215025   4.463  11.807   0.633
37710SOL     OW15026   3.634  13.084   9.375
37710SOL    HW115027   3.586  13.096   9.292
37710SOL    HW215028   3.574  13.033   9.429
37711SOL     OW15029  10.155   6.172   4.759
37711SOL    HW115030  10.128   6.157   4.849
37711SOL    HW215031  10.251   6.176   4.763
37712SOL     OW15032   4.422   7.654  14.430
37712SOL    HW115033   4.365   7.688  14.361
37712SOL    HW215034   4.380   7.682  14.511
37713SOL     OW15035   9.674  11.059  11.532
37713SOL    HW115036   9.703  11.038  11.620
37713SOL    HW215037   9.583  11.087  11.542
37714SOL     OW15038  10.173   4.974  12.930
37714SOL    HW115039  10.175   5.044  12.995
37714SOL    HW215040  10.233   5.003  12.862
37715SOL     OW15041   1.147   9.870   9.846
37715SOL    HW115042   1.069   9.906   9.804
37715SOL    HW215043   1.174   9.937   9.908
37716SOL     OW15044   3.576   7.201  13.579
37716SOL    HW115045   3.557   7.291  13.553
37716SOL    HW215046   3.626   7.210  13.660
37717SOL     OW15047   1.628  10.358  12.478
37717SOL    HW115048   1.647  10.447  12.507
37717SOL    HW215049   1.678  10.348  12.397
37718SOL     OW15050  14.254  10.517  14.435
37718SOL    HW115051  14.262  10.422  14.426
37718SOL    HW215052  14.261  10.550  14.346
37719SOL     OW15053   7.109   4.617   8.741
37719SOL    HW115054   7.030   4.578   8.702
37719SOL    HW215055   7.135   4.555   8.809
37720SOL     OW15056   4.105   8.123   2.642
37720SOL    HW115057   4.034   8.182   2.665
37720SOL    HW215058   4.081   8.088   2.556
37721SOL     OW15059   3.445   1.189   2.685
37721SOL    HW115060   3.387   1.141   2.744
37721SOL    HW215061   3.399   1.271   2.668
37722SOL     OW15062   2.601   6.758   6.486
37722SOL    HW115063   2.524   6.702   6.496
37722SOL    HW215064   2.604   6.779   6.393
37723SOL     OW15065   3.107   6.553  14.041
37723SOL    HW115066   3.193   6.594  14.030
37723SOL    HW215067   3.074   6.588  14.124
37724SOL     OW15068  11.891  14.618  10.374
37724SOL    HW115069  11.935  14.654  10.297
37724SOL    HW215070  11.884  14.693  10.434
37725SOL     OW15071   5.654  11.475   4.239
37725SOL    HW115072   5.602  11.555   4.242
37725SOL    HW215073   5.694  11.469   4.326
37726SOL     OW15074  10.465  13.308  10.194
37726SOL    HW115075  10.405  13.238  10.168
37726SOL    HW215076  10.513  13.329  10.113
37727SOL     OW15077   8.977  13.567  12.625
37727SOL    HW115078   8.909  13.590  12.688
37727SOL    HW215079   8.930  13.542  12.545
37728SOL     OW15080   7.298   0.909  11.955
37728SOL    HW115081   7.382   0.923  11.910
37728SOL    HW215082   7.318   0.925  12.047
37729SOL     OW15083  12.746   4.224  14.004
37729SOL    HW115084  12.786   4.186  13.926
37729SOL    HW215085  12.815   4.220  14.071
37730SOL     OW15086   4.410   7.270   7.711
37730SOL    HW115087   4.443   7.196   7.761
37730SOL    HW215088   4.483   7.332   7.707
37731SOL     OW15089   9.304  11.700   1.476
37731SOL    HW115090   9.287  11.606   1.467
37731SOL    HW215091   9.389  11.704   1.521
37732SOL     OW15092   3.025   6.141  11.291
37732SOL    HW115093   2.933   6.157  11.311
37732SOL    HW215094   3.024   6.107  11.202
37733SOL     OW15095   2.926   4.439   4.568
37733SOL    HW115096   2.913   4.393   4.650
37733SOL    HW215097   2.838   4.461   4.538
37734SOL     OW15098   1.743  11.891  13.035
37734SOL    HW115099   1.703  11.843  13.107
37734SOL    HW215100   1.757  11.979  13.070
37735SOL     OW15101   9.323   9.381   1.117
37735SOL    HW115102   9.320   9.416   1.028
37735SOL    HW215103   9.406   9.414   1.152
37736SOL     OW15104  10.930   0.195   7.110
37736SOL    HW115105  10.859   0.194   7.045
37736SOL    HW215106  10.907   0.267   7.169
37737SOL     OW15107   7.842  14.117   5.887
37737SOL    HW115108   7.832  14.118   5.792
37737SOL    HW215109   7.784  14.186   5.918
37738SOL     OW15110   4.605   8.594   8.291
37738SOL    HW115111   4.674   8.605   8.226
37738SOL    HW215112   4.525   8.622   8.247
37739SOL     OW15113   5.354   7.659   1.562
37739SOL    HW115114   5.290   7.708   1.614
37739SOL    HW215115   5.429   7.648   1.621
37740SOL     OW15116   5.978   0.466   3.512
37740SOL    HW115117   5.911   0.507   3.567
37740SOL    HW215118   5.945   0.476   3.423
37741SOL     OW15119   4.215   5.604  14.009
37741SOL    HW115120   4.196   5.672  13.945
37741SOL    HW215121   4.141   5.608  14.071
37742SOL     OW15122   1.253  14.556   0.426
37742SOL    HW115123   1.233  14.563   0.519
37742SOL    HW215124   1.185  14.607   0.382
37743SOL     OW15125   0.355   9.823  11.145
37743SOL    HW115126   0.375   9.790  11.232
37743SOL    HW215127   0.406   9.903  11.137
37744SOL     OW15128   8.140  10.317   6.812
37744SOL    HW115129   8.184  10.383   6.758
37744SOL    HW215130   8.187  10.320   6.896
37745SOL     OW15131   7.379   1.165   1.579
37745SOL    HW115132   7.452   1.116   1.541
37745SOL    HW215133   7.381   1.250   1.534
37746SOL     OW15134  11.049   8.999  13.273
37746SOL    HW115135  11.111   9.008  13.346
37746SOL    HW215136  11.036   9.089  13.242
37747SOL     OW15137  14.019   9.527   6.839
37747SOL    HW115138  13.941   9.487   6.800
37747SOL    HW215139  14.004   9.621   6.831
37748SOL     OW15140   8.742  12.550   5.971
37748SOL    HW115141   8.678  12.590   5.911
37748SOL    HW215142   8.819  12.535   5.916
37749SOL     OW15143   1.955   2.334   3.325
37749SOL    HW115144   2.050   2.342   3.318
37749SOL    HW215145   1.922   2.366   3.242
37750SOL     OW15146  12.559  10.105  12.480
37750SOL    HW115147  12.581  10.098  12.387
37750SOL    HW215148  12.463  10.113  12.481
37751SOL     OW15149   6.692   1.642   7.211
37751SOL    HW115150   6.667   1.553   7.184
37751SOL    HW215151   6.769   1.629   7.266
37752SOL     OW15152   9.258  13.962  13.821
37752SOL    HW115153   9.208  13.935  13.898
37752SOL    HW215154   9.310  14.036  13.852
37753SOL     OW15155   6.864   4.522  12.128
37753SOL    HW115156   6.932   4.511  12.062
37753SOL    HW215157   6.909   4.560  12.203
37754SOL     OW15158  10.732   6.928   2.032
37754SOL    HW115159  10.728   6.957   2.123
37754SOL    HW215160  10.802   6.863   2.031
37755SOL     OW15161   0.282   1.084  12.890
37755SOL    HW115162   0.224   1.145  12.846
37755SOL    HW215163   0.229   1.006  12.906
37756SOL     OW15164   4.915   4.172   0.092
37756SOL    HW115165   4.920   4.233   0.018
37756SOL    HW215166   4.846   4.206   0.147
37757SOL     OW15167   9.754   6.598   1.211
37757SOL    HW115168   9.701   6.586   1.133
37757SOL    HW215169   9.803   6.678   1.195
37758SOL     OW15170   6.289   3.324   3.227
37758SOL    HW115171   6.290   3.405   3.175
37758SOL    HW215172   6.311   3.353   3.316
37759SOL     OW15173   9.292   3.947   7.642
37759SOL    HW115174   9.377   3.935   7.684
37759SOL    HW215175   9.265   4.035   7.668
37760SOL     OW15176   0.278   5.175   5.803
37760SOL    HW115177   0.264   5.214   5.717
37760SOL    HW215178   0.371   5.152   5.805
37761SOL     OW15179  12.093   9.826  10.753
37761SOL    HW115180  12.126   9.853  10.839
37761SOL    HW215181  12.155   9.864  10.691
37762SOL     OW15182   9.052   8.809  12.657
37762SOL    HW115183   9.040   8.845  12.569
37762SOL    HW215184   9.099   8.878  12.704
37763SOL     OW15185  13.021   8.211   9.456
37763SOL    HW115186  13.024   8.270   9.532
37763SOL    HW215187  12.970   8.136   9.487
37764SOL     OW15188   6.369   9.067   2.974
37764SOL    HW115189   6.300   9.079   2.909
37764SOL    HW215190   6.437   9.129   2.948
37765SOL     OW15191  11.351   8.193   0.526
37765SOL    HW115192  11.311   8.276   0.551
37765SOL    HW215193  11.279   8.139   0.494
37766SOL     OW15194   5.682  12.784   9.128
37766SOL    HW115195   5.619  12.850   9.100
37766SOL    HW215196   5.737  12.769   9.051
37767SOL     OW15197  12.049  13.272   8.801
37767SOL    HW115198  11.987  13.289   8.872
37767SOL    HW215199  12.021  13.188   8.764
37768SOL     OW15200   1.211  12.952  14.801
37768SOL    HW115201   1.127  12.932  14.758
37768SOL    HW215202   1.203  13.044  14.826
37769SOL     OW15203  13.918   2.327  14.126
37769SOL    HW115204  13.903   2.272  14.203
37769SOL    HW215205  13.841   2.385  14.123
37770SOL     OW15206   7.650   2.379  12.398
37770SOL    HW115207   7.714   2.377  12.327
37770SOL    HW215208   7.644   2.471  12.423
37771SOL     OW15209  12.199  12.179  13.382
37771SOL    HW115210  12.288  12.168  13.348
37771SOL    HW215211  12.145  12.193  13.304
37772SOL     OW15212   8.766  12.565  10.430
37772SOL    HW115213   8.775  12.510  10.507
37772SOL    HW215214   8.692  12.622  10.449
37773SOL     OW15215   3.142   2.533  11.140
37773SOL    HW115216   3.079   2.471  11.104
37773SOL    HW215217   3.200   2.481  11.195
37774SOL     OW15218  12.047  13.845   1.169
37774SOL    HW115219  12.136  13.882   1.165
37774SOL    HW215220  12.019  13.842   1.078
37775SOL     OW15221   9.830  11.793   7.924
37775SOL    HW115222   9.772  11.836   7.861
37775SOL    HW215223   9.877  11.727   7.873
37776SOL     OW15224  14.322   6.070   7.069
37776SOL    HW115225  14.302   5.985   7.108
37776SOL    HW215226  14.283   6.066   6.981
37777SOL     OW15227   2.492   4.610  13.052
37777SOL    HW115228   2.509   4.643  13.140
37777SOL    HW215229   2.405   4.571  13.057
37778SOL     OW15230   4.686  12.973  12.113
37778SOL    HW115231   4.616  12.999  12.173
37778SOL    HW215232   4.666  12.882  12.090
37779SOL     OW15233  14.715   0.352   5.770
37779SOL    HW115234  14.680   0.264   5.785
37779SOL    HW215235  14.788   0.338   5.709
37780SOL     OW15236   4.923   7.856   9.752
37780SOL    HW115237   4.910   7.877   9.660
37780SOL    HW215238   4.995   7.913   9.780
37781SOL     OW15239  11.751   7.283  11.568
37781SOL    HW115240  11.778   7.204  11.522
37781SOL    HW215241  11.656   7.286  11.557
37782SOL     OW15242   4.257   5.584   3.684
37782SOL    HW115243   4.346   5.550   3.688
37782SOL    HW215244   4.203   5.515   3.722
37783SOL     OW15245   5.759  10.781   2.201
37783SOL    HW115246   5.757  10.842   2.275
37783SOL    HW215247   5.830  10.721   2.223
37784SOL     OW15248   1.530   1.719  13.882
37784SOL    HW115249   1.533   1.805  13.839
37784SOL    HW215250   1.491   1.662  13.816
37785SOL     OW15251  14.466  14.522   8.529
37785SOL    HW115252  14.506  14.607   8.511
37785SOL    HW215253  14.440  14.527   8.621
37786SOL     OW15254  11.395   2.692   5.038
37786SOL    HW115255  11.406   2.726   5.126
37786SOL    HW215256  11.309   2.650   5.039
37787SOL     OW15257   3.090  11.932   7.370
37787SOL    HW115258   3.185  11.920   7.366
37787SOL    HW215259   3.076  11.993   7.442
37788SOL     OW15260  12.847   5.045   6.771
37788SOL    HW115261  12.818   4.979   6.835
37788SOL    HW215262  12.780   5.113   6.775
37789SOL     OW15263   0.432   5.478   8.618
37789SOL    HW115264   0.462   5.466   8.528
37789SOL    HW215265   0.385   5.561   8.618
37790SOL     OW15266   3.477   9.326   1.970
37790SOL    HW115267   3.480   9.329   2.065
37790SOL    HW215268   3.512   9.239   1.948
37791SOL     OW15269   8.041   7.965  12.777
37791SOL    HW115270   8.135   7.982  12.771
37791SOL    HW215271   8.029   7.878  12.739
37792SOL     OW15272   6.101   1.712  11.774
37792SOL    HW115273   6.124   1.630  11.731
37792SOL    HW215274   6.021   1.692  11.822
37793SOL     OW15275   4.320   5.983   0.525
37793SOL    HW115276   4.306   5.924   0.451
37793SOL    HW215277   4.233   6.018   0.544
37794SOL     OW15278   1.061  12.294  13.555
37794SOL    HW115279   1.110  12.230  13.606
37794SOL    HW215280   1.112  12.302  13.474
37795SOL     OW15281   4.248   6.349   7.974
37795SOL    HW115282   4.246   6.271   7.919
37795SOL    HW215283   4.156   6.374   7.984
37796SOL     OW15284   1.002  13.787  12.534
37796SOL    HW115285   1.029  13.790  12.442
37796SOL    HW215286   0.941  13.714  12.540
37797SOL     OW15287   6.985   8.293   9.827
37797SOL    HW115288   6.969   8.365   9.765
37797SOL    HW215289   7.079   8.277   9.821
37798SOL     OW15290   1.858  10.360   0.690
37798SOL    HW115291   1.827  10.336   0.602
37798SOL    HW215292   1.826  10.291   0.747
37799SOL     OW15293   8.873  10.867  14.865
37799SOL    HW115294   8.816  10.925   0.041
37799SOL    HW215295   8.868  10.901  14.775
37800SOL     OW15296  14.017   1.304  10.253
37800SOL    HW115297  14.064   1.246  10.313
37800SOL    HW215298  13.925   1.278  10.262
37801SOL     OW15299   8.188   8.989  11.262
37801SOL    HW115300   8.161   8.971  11.171
37801SOL    HW215301   8.196   9.085  11.265
37802SOL     OW15302   4.786  14.296  11.657
37802SOL    HW115303   4.815  14.332  11.573
37802SOL    HW215304   4.702  14.340  11.674
37803SOL     OW15305  11.450   8.622   9.192
37803SOL    HW115306  11.364   8.584   9.175
37803SOL    HW215307  11.492   8.626   9.106
37804SOL     OW15308   1.251   3.202   5.195
37804SOL    HW115309   1.291   3.205   5.108
37804SOL    HW215310   1.325   3.198   5.256
37805SOL     OW15311   1.044  14.453   2.073
37805SOL    HW115312   1.047  14.543   2.103
37805SOL    HW215313   1.106  14.406   2.129
37806SOL     OW15314   2.318   0.699   4.107
37806SOL    HW115315   2.303   0.736   4.194
37806SOL    HW215316   2.412   0.678   4.106
37807SOL     OW15317   0.059  11.688   6.472
37807SOL    HW115318   0.004  11.721   6.401
37807SOL    HW215319   0.098  11.608   6.437
37808SOL     OW15320  14.455   1.061   5.381
37808SOL    HW115321  14.524   1.037   5.320
37808SOL    HW215322  14.482   1.023   5.465
37809SOL     OW15323   7.247   0.738   5.389
37809SOL    HW115324   7.282   0.827   5.385
37809SOL    HW215325   7.225   0.725   5.482
37810SOL     OW15326   4.690  11.997   9.821
37810SOL    HW115327   4.698  11.913   9.775
37810SOL    HW215328   4.634  12.050   9.765
37811SOL     OW15329   7.790   4.585   1.118
37811SOL    HW115330   7.809   4.603   1.210
37811SOL    HW215331   7.850   4.515   1.093
37812SOL     OW15332  13.610  10.470  11.899
37812SOL    HW115333  13.587  10.389  11.853
37812SOL    HW215334  13.527  10.504  11.931
37813SOL     OW15335   9.303   8.136  10.456
37813SOL    HW115336   9.229   8.193  10.434
37813SOL    HW215337   9.378   8.179  10.416
37814SOL     OW15338   6.002   9.452   1.269
37814SOL    HW115339   6.001   9.379   1.208
37814SOL    HW215340   6.083   9.499   1.249
37815SOL     OW15341   2.857   5.037   9.788
37815SOL    HW115342   2.898   5.068   9.708
37815SOL    HW215343   2.895   5.091   9.858
37816SOL     OW15344  11.148   8.949   6.672
37816SOL    HW115345  11.154   9.044   6.661
37816SOL    HW215346  11.231   8.925   6.713
37817SOL     OW15347  13.940  13.445  10.796
37817SOL    HW115348  13.994  13.507  10.845
37817SOL    HW215349  13.989  13.429  10.716
37818SOL     OW15350  14.415   1.886  13.655
37818SOL    HW115351  14.438   1.895  13.562
37818SOL    HW215352  14.336   1.939  13.665
37819SOL     OW15353   3.325   1.363  11.495
37819SOL    HW115354   3.356   1.272  11.490
37819SOL    HW215355   3.230   1.355  11.497
37820SOL     OW15356  11.553   7.796   2.398
37820SOL    HW115357  11.483   7.743   2.360
37820SOL    HW215358  11.613   7.733   2.437
37821SOL     OW15359   2.855   4.200   7.934
37821SOL    HW115360   2.940   4.177   7.898
37821SOL    HW215361   2.800   4.123   7.915
37822SOL     OW15362   3.250   7.847  14.501
37822SOL    HW115363   3.280   7.821  14.588
37822SOL    HW215364   3.196   7.774  14.472
37823SOL     OW15365   0.332   7.744   2.123
37823SOL    HW115366   0.318   7.836   2.146
37823SOL    HW215367   0.380   7.708   2.198
37824SOL     OW15368   9.140   9.866   1.439
37824SOL    HW115369   9.133   9.782   1.393
37824SOL    HW215370   9.089   9.927   1.385
37825SOL     OW15371  12.689   5.087   8.939
37825SOL    HW115372  12.733   5.036   9.006
37825SOL    HW215373  12.664   5.023   8.873
37826SOL     OW15374   8.313   3.336  13.701
37826SOL    HW115375   8.278   3.251  13.677
37826SOL    HW215376   8.291   3.393  13.628
37827SOL     OW15377   6.159   5.752   0.423
37827SOL    HW115378   6.127   5.794   0.503
37827SOL    HW215379   6.125   5.806   0.352
37828SOL     OW15380   0.638   7.627   9.917
37828SOL    HW115381   0.595   7.625  10.003
37828SOL    HW215382   0.673   7.715   9.910
37829SOL     OW15383  14.202   8.253  12.925
37829SOL    HW115384  14.147   8.261  12.847
37829SOL    HW215385  14.291   8.271  12.894
37830SOL     OW15386   1.947  14.458   8.778
37830SOL    HW115387   1.932  14.437   8.685
37830SOL    HW215388   1.933  14.552   8.784
37831SOL     OW15389  12.683   2.588   4.777
37831SOL    HW115390  12.705   2.532   4.851
37831SOL    HW215391  12.653   2.670   4.816
37832SOL     OW15392  11.509   6.524  12.757
37832SOL    HW115393  11.553   6.603  12.788
37832SOL    HW215394  11.417   6.548  12.749
37833SOL     OW15395   2.034   4.644   5.037
37833SOL    HW115396   2.049   4.708   4.967
37833SOL    HW215397   2.093   4.672   5.107
37834SOL     OW15398  12.224  13.359  10.503
37834SOL    HW115399  12.182  13.432  10.549
37834SOL    HW215400  12.295  13.332  10.560
37835SOL     OW15401   0.552   8.809   9.539
37835SOL    HW115402   0.485   8.876   9.525
37835SOL    HW215403   0.505   8.726   9.542
37836SOL     OW15404   4.874   4.615   6.111
37836SOL    HW115405   4.809   4.667   6.065
37836SOL    HW215406   4.958   4.649   6.080
37837SOL     OW15407  12.710   3.856   8.209
37837SOL    HW115408  12.797   3.862   8.168
37837SOL    HW215409  12.728   3.865   8.303
37838SOL     OW15410  14.020  14.669   8.927
37838SOL    HW115411  14.076  14.737   8.964
37838SOL    HW215412  13.984  14.624   9.003
37839SOL     OW15413  14.381   6.870   6.903
37839SOL    HW115414  14.390   6.789   6.953
37839SOL    HW215415  14.367   6.842   6.813
37840SOL     OW15416   4.642   6.523  13.096
37840SOL    HW115417   4.650   6.450  13.158
37840SOL    HW215418   4.706   6.503  13.027
37841SOL     OW15419   7.409   5.770  10.641
37841SOL    HW115420   7.479   5.800  10.700
37841SOL    HW215421   7.448   5.696  10.594
37842SOL     OW15422   5.015   9.222   5.437
37842SOL    HW115423   4.955   9.296   5.428
37842SOL    HW215424   4.967   9.147   5.402
37843SOL     OW15425   2.557   2.184  14.000
37843SOL    HW115426   2.525   2.106  13.954
37843SOL    HW215427   2.487   2.248  13.988
37844SOL     OW15428   4.339   0.611   2.799
37844SOL    HW115429   4.401   0.678   2.771
37844SOL    HW215430   4.256   0.637   2.760
37845SOL     OW15431  12.731  13.954   0.299
37845SOL    HW115432  12.766  13.870   0.328
37845SOL    HW215433  12.796  14.018   0.326
37846SOL     OW15434   8.684   2.613   2.027
37846SOL    HW115435   8.670   2.584   1.936
37846SOL    HW215436   8.777   2.636   2.030
37847SOL     OW15437   7.037   1.832   9.761
37847SOL    HW115438   7.043   1.924   9.737
37847SOL    HW215439   6.974   1.795   9.699
37848SOL     OW15440  10.236   7.643  12.235
37848SOL    HW115441  10.162   7.679  12.284
37848SOL    HW215442  10.279   7.584  12.297
37849SOL     OW15443   6.951   6.156  12.259
37849SOL    HW115444   6.926   6.068  12.231
37849SOL    HW215445   7.046   6.152  12.272
37850SOL     OW15446   1.589   0.864   6.512
37850SOL    HW115447   1.540   0.783   6.523
37850SOL    HW215448   1.533   0.932   6.550
37851SOL     OW15449   9.415   3.214  12.336
37851SOL    HW115450   9.489   3.242  12.281
37851SOL    HW215451   9.361   3.161  12.278
37852SOL     OW15452   7.559   9.320   3.056
37852SOL    HW115453   7.479   9.307   3.106
37852SOL    HW215454   7.550   9.262   2.981
37853SOL     OW15455   2.022   8.856   7.647
37853SOL    HW115456   1.941   8.823   7.609
37853SOL    HW215457   2.054   8.921   7.585
37854SOL     OW15458   8.801  11.191   5.464
37854SOL    HW115459   8.883  11.219   5.504
37854SOL    HW215460   8.821  11.107   5.424
37855SOL     OW15461   0.975   7.165  12.011
37855SOL    HW115462   0.956   7.073  12.029
37855SOL    HW215463   0.915   7.187  11.939
37856SOL     OW15464   6.398   4.372   1.563
37856SOL    HW115465   6.305   4.386   1.551
37856SOL    HW215466   6.423   4.433   1.633
37857SOL     OW15467  14.607  11.566  14.261
37857SOL    HW115468  14.544  11.559  14.190
37857SOL    HW215469  14.579  11.501  14.325
37858SOL     OW15470   5.643  14.850  11.046
37858SOL    HW115471   5.725  14.809  11.018
37858SOL    HW215472   5.612  14.796  11.119
37859SOL     OW15473   2.896   0.130  11.173
37859SOL    HW115474   2.940   0.084  11.102
37859SOL    HW215475   2.846   0.062  11.218
37860SOL     OW15476   6.148  13.898  12.865
37860SOL    HW115477   6.065  13.866  12.900
37860SOL    HW215478   6.144  13.877  12.772
37861SOL     OW15479   7.317   7.037   6.083
37861SOL    HW115480   7.384   7.079   6.137
37861SOL    HW215481   7.350   6.948   6.069
37862SOL     OW15482   3.667   5.305   1.761
37862SOL    HW115483   3.613   5.377   1.727
37862SOL    HW215484   3.611   5.228   1.757
37863SOL     OW15485   7.953   2.433   6.010
37863SOL    HW115486   7.997   2.353   5.981
37863SOL    HW215487   7.862   2.407   6.025
37864SOL     OW15488   6.235   6.721  12.454
37864SOL    HW115489   6.303   6.661  12.484
37864SOL    HW215490   6.192   6.674  12.382
37865SOL     OW15491   1.493   7.913   7.898
37865SOL    HW115492   1.517   7.820   7.902
37865SOL    HW215493   1.408   7.918   7.941
37866SOL     OW15494   7.076   1.308  10.564
37866SOL    HW115495   7.037   1.342  10.644
37866SOL    HW215496   7.107   1.220  10.587
37867SOL     OW15497   8.176   2.547   6.917
37867SOL    HW115498   8.134   2.461   6.922
37867SOL    HW215499   8.119   2.605   6.967
37868SOL     OW15500  14.670   5.635  12.142
37868SOL    HW115501  14.601   5.586  12.097
37868SOL    HW215502  14.729   5.663  12.073
37869SOL     OW15503   2.762   5.464  12.257
37869SOL    HW115504   2.784   5.381  12.299
37869SOL    HW215505   2.789   5.452  12.166
37870SOL     OW15506  11.809  12.934  11.827
37870SOL    HW115507  11.759  12.895  11.756
37870SOL    HW215508  11.832  13.022  11.795
37871SOL     OW15509   6.715  11.143  11.365
37871SOL    HW115510   6.794  11.163  11.415
37871SOL    HW215511   6.648  11.202  11.400
37872SOL     OW15512  13.717  14.267  12.661
37872SOL    HW115513  13.702  14.281  12.567
37872SOL    HW215514  13.790  14.205  12.664
37873SOL     OW15515   8.019   4.333   7.206
37873SOL    HW115516   8.031   4.412   7.154
37873SOL    HW215517   7.933   4.343   7.247
37874SOL     OW15518  12.345  11.752   3.638
37874SOL    HW115519  12.300  11.768   3.555
37874SOL    HW215520  12.320  11.826   3.694
37875SOL     OW15521  11.481  14.557   3.737
37875SOL    HW115522  11.462  14.516   3.653
37875SOL    HW215523  11.463  14.490   3.802
37876SOL     OW15524   0.082  13.942  12.847
37876SOL    HW115525   0.079  13.928  12.753
37876SOL    HW215526   0.133  14.023  12.858
37877SOL     OW15527  14.162  10.028   7.477
37877SOL    HW115528  14.214  10.106   7.458
37877SOL    HW215529  14.122  10.004   7.393
37878SOL     OW15530   2.702  14.637   0.931
37878SOL    HW115531   2.733  14.622   0.841
37878SOL    HW215532   2.649  14.560   0.950
37879SOL     OW15533   0.815   3.225   4.680
37879SOL    HW115534   0.856   3.312   4.683
37879SOL    HW215535   0.749   3.228   4.749
37880SOL     OW15536   3.976   3.425   0.828
37880SOL    HW115537   4.007   3.339   0.798
37880SOL    HW215538   4.056   3.473   0.849
37881SOL     OW15539  10.807   3.652  10.197
37881SOL    HW115540  10.773   3.599  10.270
37881SOL    HW215541  10.901   3.659  10.215
37882SOL     OW15542  12.601   5.598   2.968
37882SOL    HW115543  12.579   5.507   2.989
37882SOL    HW215544  12.635   5.594   2.879
37883SOL     OW15545  11.750  14.742   7.888
37883SOL    HW115546  11.785  14.831   7.887
37883SOL    HW215547  11.758  14.715   7.979
37884SOL     OW15548   0.038  13.853   5.627
37884SOL    HW115549   0.019  13.880   5.717
37884SOL    HW215550  14.831  13.814   5.596
37885SOL     OW15551   2.370  12.253  13.129
37885SOL    HW115552   2.409  12.195  13.193
37885SOL    HW215553   2.368  12.201  13.048
37886SOL     OW15554   9.937  13.363   2.060
37886SOL    HW115555   9.930  13.278   2.018
37886SOL    HW215556   9.854  13.375   2.106
37887SOL     OW15557  14.091  14.549  11.290
37887SOL    HW115558  14.175  14.505  11.305
37887SOL    HW215559  14.089  14.618  11.357
37888SOL     OW15560   0.632   3.534   9.313
37888SOL    HW115561   0.607   3.479   9.239
37888SOL    HW215562   0.675   3.610   9.273
37889SOL     OW15563   2.828   4.263   5.046
37889SOL    HW115564   2.902   4.238   5.101
37889SOL    HW215565   2.765   4.192   5.056
37890SOL     OW15566   1.379   7.681  13.860
37890SOL    HW115567   1.373   7.691  13.765
37890SOL    HW215568   1.342   7.762  13.894
37891SOL     OW15569   7.443  13.800   8.911
37891SOL    HW115570   7.398  13.851   8.844
37891SOL    HW215571   7.510  13.751   8.863
37892SOL     OW15572   1.775   6.342   7.183
37892SOL    HW115573   1.716   6.362   7.111
37892SOL    HW215574   1.718   6.333   7.259
37893SOL     OW15575  13.805  14.717   0.889
37893SOL    HW115576  13.870  14.705   0.959
37893SOL    HW215577  13.734  14.657   0.912
37894SOL     OW15578  13.327   0.256   9.107
37894SOL    HW115579  13.285   0.313   9.042
37894SOL    HW215580  13.324   0.306   9.188
37895SOL     OW15581   1.180   3.057   5.702
37895SOL    HW115582   1.273   3.056   5.681
37895SOL    HW215583   1.139   3.097   5.626
37896SOL     OW15584  14.595  13.746   1.493
37896SOL    HW115585  14.567  13.743   1.401
37896SOL    HW215586  14.613  13.654   1.515
37897SOL     OW15587  13.674   4.634   5.437
37897SOL    HW115588  13.603   4.677   5.389
37897SOL    HW215589  13.675   4.545   5.403
37898SOL     OW15590   1.038  14.416   2.980
37898SOL    HW115591   1.004  14.417   3.069
37898SOL    HW215592   1.022  14.504   2.947
37899SOL     OW15593   5.300   5.460   2.153
37899SOL    HW115594   5.289   5.551   2.179
37899SOL    HW215595   5.267   5.456   2.063
37900SOL     OW15596   3.747   8.213  13.389
37900SOL    HW115597   3.812   8.282  13.404
37900SOL    HW215598   3.724   8.221  13.296
37901SOL     OW15599  13.685  13.694  13.129
37901SOL    HW115600  13.725  13.610  13.154
37901SOL    HW215601  13.721  13.757  13.192
37902SOL     OW15602   7.641  11.206  10.061
37902SOL    HW115603   7.628  11.112  10.053
37902SOL    HW215604   7.693  11.216  10.141
37903SOL     OW15605  13.787  10.342   5.734
37903SOL    HW115606  13.877  10.365   5.760
37903SOL    HW215607  13.732  10.408   5.776
37904SOL     OW15608   6.934  12.854   0.396
37904SOL    HW115609   6.884  12.927   0.433
37904SOL    HW215610   6.975  12.812   0.472
37905SOL     OW15611   7.914   5.817   0.870
37905SOL    HW115612   7.835   5.858   0.906
37905SOL    HW215613   7.922   5.854   0.783
37906SOL     OW15614   2.969   2.125  12.160
37906SOL    HW115615   2.979   2.215  12.192
37906SOL    HW215616   2.882   2.124  12.119
37907SOL     OW15617  13.713   7.795  12.111
37907SOL    HW115618  13.624   7.829  12.125
37907SOL    HW215619  13.702   7.700  12.108
37908SOL     OW15620   3.704  12.333   4.039
37908SOL    HW115621   3.655  12.408   4.007
37908SOL    HW215622   3.708  12.345   4.134
37909SOL     OW15623  13.980   3.193  12.464
37909SOL    HW115624  14.031   3.135  12.520
37909SOL    HW215625  13.968   3.273  12.516
37910SOL     OW15626   4.650  14.358   9.602
37910SOL    HW115627   4.698  14.394   9.678
37910SOL    HW215628   4.569  14.324   9.639
37911SOL     OW15629   5.569   1.186   6.387
37911SOL    HW115630   5.571   1.167   6.293
37911SOL    HW215631   5.592   1.279   6.394
37912SOL     OW15632   2.759   9.178   2.627
37912SOL    HW115633   2.720   9.204   2.543
37912SOL    HW215634   2.695   9.118   2.666
37913SOL     OW15635   5.017   1.936   1.130
37913SOL    HW115636   4.939   1.900   1.172
37913SOL    HW215637   5.013   2.030   1.148
37914SOL     OW15638  10.025   1.514   4.580
37914SOL    HW115639   9.984   1.437   4.539
37914SOL    HW215640  10.019   1.582   4.514
37915SOL     OW15641  10.439   2.293  11.986
37915SOL    HW115642  10.528   2.309  12.017
37915SOL    HW215643  10.418   2.205  12.019
37916SOL     OW15644  13.629   3.375   7.702
37916SOL    HW115645  13.617   3.280   7.700
37916SOL    HW215646  13.661   3.397   7.614
37917SOL     OW15647  12.099   7.048  14.086
37917SOL    HW115648  12.170   7.021  14.144
37917SOL    HW215649  12.045   7.105  14.141
37918SOL     OW15650  12.058   7.385   9.542
37918SOL    HW115651  12.122   7.452   9.564
37918SOL    HW215652  12.026   7.353   9.626
37919SOL     OW15653   7.930   8.950  10.022
37919SOL    HW115654   7.897   8.861  10.005
37919SOL    HW215655   7.912   8.998   9.941
37920SOL     OW15656   1.544   0.213   7.873
37920SOL    HW115657   1.617   0.170   7.828
37920SOL    HW215658   1.553   0.187   7.964
37921SOL     OW15659   4.306   1.450   3.634
37921SOL    HW115660   4.287   1.417   3.721
37921SOL    HW215661   4.399   1.471   3.636
37922SOL     OW15662  13.539   3.459   0.367
37922SOL    HW115663  13.607   3.465   0.434
37922SOL    HW215664  13.554   3.374   0.325
37923SOL     OW15665  11.534   1.679   3.191
37923SOL    HW115666  11.539   1.618   3.264
37923SOL    HW215667  11.506   1.625   3.116
37924SOL     OW15668  11.633  11.093   9.718
37924SOL    HW115669  11.543  11.101   9.687
37924SOL    HW215670  11.684  11.147   9.657
37925SOL     OW15671   9.704   5.195   4.242
37925SOL    HW115672   9.639   5.251   4.199
37925SOL    HW215673   9.783   5.205   4.189
37926SOL     OW15674  12.416   0.583   0.581
37926SOL    HW115675  12.500   0.610   0.544
37926SOL    HW215676  12.386   0.659   0.630
37927SOL     OW15677   9.605   7.403  10.047
37927SOL    HW115678   9.533   7.358  10.091
37927SOL    HW215679   9.566   7.441   9.969
37928SOL     OW15680  12.003  12.536   2.167
37928SOL    HW115681  12.078  12.513   2.112
37928SOL    HW215682  11.930  12.483   2.133
37929SOL     OW15683   7.819  13.591  12.256
37929SOL    HW115684   7.756  13.528  12.292
37929SOL    HW215685   7.816  13.665  12.318
37930SOL     OW15686   6.107  11.899   9.033
37930SOL    HW115687   6.079  11.887   9.124
37930SOL    HW215688   6.072  11.984   9.008
37931SOL     OW15689   5.537   0.650   2.919
37931SOL    HW115690   5.518   0.738   2.889
37931SOL    HW215691   5.612   0.622   2.866
37932SOL     OW15692   5.606  14.422  11.190
37932SOL    HW115693   5.696  14.439  11.162
37932SOL    HW215694   5.609  14.337  11.232
37933SOL     OW15695   4.660   7.340  11.953
37933SOL    HW115696   4.633   7.425  11.987
37933SOL    HW215697   4.750   7.353  11.922
37934SOL     OW15698   3.999  11.820  11.288
37934SOL    HW115699   3.955  11.880  11.347
37934SOL    HW215700   3.946  11.740  11.290
37935SOL     OW15701   1.976   5.161   3.618
37935SOL    HW115702   2.030   5.097   3.665
37935SOL    HW215703   2.016   5.166   3.531
37936SOL     OW15704   5.475   2.714  13.626
37936SOL    HW115705   5.469   2.809  13.625
37936SOL    HW215706   5.533   2.694  13.699
37937SOL     OW15707  11.285   8.506  11.411
37937SOL    HW115708  11.361   8.496  11.354
37937SOL    HW215709  11.215   8.459  11.366
37938SOL     OW15710   2.188  11.267   3.024
37938SOL    HW115711   2.157  11.178   3.037
37938SOL    HW215712   2.228  11.266   2.937
37939SOL     OW15713   5.090   8.985   6.453
37939SOL    HW115714   5.052   9.049   6.512
37939SOL    HW215715   5.176   8.965   6.490
37940SOL     OW15716   1.044   5.455   8.813
37940SOL    HW115717   1.005   5.470   8.727
37940SOL    HW215718   1.009   5.525   8.869
37941SOL     OW15719   2.158  12.468   5.908
37941SOL    HW115720   2.109  12.550   5.902
37941SOL    HW215721   2.166  12.451   6.002
37942SOL     OW15722   2.523   5.703   4.127
37942SOL    HW115723   2.554   5.791   4.103
37942SOL    HW215724   2.580   5.644   4.078
37943SOL     OW15725   7.039   2.700   1.276
37943SOL    HW115726   7.014   2.608   1.267
37943SOL    HW215727   7.121   2.707   1.227
37944SOL     OW15728   9.312   8.422   3.023
37944SOL    HW115729   9.343   8.509   2.997
37944SOL    HW215730   9.369   8.397   3.096
37945SOL     OW15731   3.831  13.654  12.082
37945SOL    HW115732   3.843  13.671  12.176
37945SOL    HW215733   3.834  13.740  12.041
37946SOL     OW15734  11.983  13.978   0.463
37946SOL    HW115735  12.039  13.941   0.395
37946SOL    HW215736  11.998  13.924   0.540
37947SOL     OW15737   6.794  11.961   5.609
37947SOL    HW115738   6.796  11.895   5.539
37947SOL    HW215739   6.886  11.970   5.635
37948SOL     OW15740   6.403   2.480   4.859
37948SOL    HW115741   6.439   2.569   4.863
37948SOL    HW215742   6.315   2.491   4.822
37949SOL     OW15743   8.496   6.635  12.503
37949SOL    HW115744   8.540   6.649  12.419
37949SOL    HW215745   8.422   6.695  12.501
37950SOL     OW15746   3.493  11.461   2.743
37950SOL    HW115747   3.477  11.553   2.721
37950SOL    HW215748   3.417  11.436   2.796
37951SOL     OW15749   2.171  10.849   9.219
37951SOL    HW115750   2.246  10.900   9.250
37951SOL    HW215751   2.153  10.883   9.131
37952SOL     OW15752  14.513  10.285  11.785
37952SOL    HW115753  14.533  10.361  11.731
37952SOL    HW215754  14.430  10.306  11.828
37953SOL     OW15755   1.863   3.927   3.137
37953SOL    HW115756   1.877   3.957   3.227
37953SOL    HW215757   1.806   3.994   3.098
37954SOL     OW15758  11.124  10.810   1.949
37954SOL    HW115759  11.146  10.782   1.860
37954SOL    HW215760  11.194  10.774   2.003
37955SOL     OW15761  12.277   0.666  11.155
37955SOL    HW115762  12.308   0.587  11.199
37955SOL    HW215763  12.224   0.712  11.220
37956SOL     OW15764   4.432  11.950   6.497
37956SOL    HW115765   4.438  12.009   6.423
37956SOL    HW215766   4.500  11.980   6.558
37957SOL     OW15767   0.616   2.399   3.387
37957SOL    HW115768   0.621   2.313   3.429
37957SOL    HW215769   0.529   2.432   3.411
37958SOL     OW15770   6.394   8.767  11.006
37958SOL    HW115771   6.317   8.734  10.961
37958SOL    HW215772   6.465   8.708  10.980
37959SOL     OW15773  10.568   3.887   5.754
37959SOL    HW115774  10.585   3.940   5.832
37959SOL    HW215775  10.475   3.898   5.737
37960SOL     OW15776  11.668   6.864   7.217
37960SOL    HW115777  11.639   6.871   7.308
37960SOL    HW215778  11.587   6.860   7.166
37961SOL     OW15779   1.769   8.602   0.684
37961SOL    HW115780   1.811   8.662   0.747
37961SOL    HW215781   1.754   8.656   0.607
37962SOL     OW15782  14.046  10.378   4.498
37962SOL    HW115783  14.022  10.466   4.525
37962SOL    HW215784  14.027  10.323   4.574
37963SOL     OW15785   2.335  13.248  12.860
37963SOL    HW115786   2.332  13.153  12.870
37963SOL    HW215787   2.426  13.267  12.839
37964SOL     OW15788  14.107  13.915   2.002
37964SOL    HW115789  14.052  13.838   1.989
37964SOL    HW215790  14.045  13.987   2.019
37965SOL     OW15791  14.609  14.187   6.169
37965SOL    HW115792  14.652  14.243   6.233
37965SOL    HW215793  14.680  14.156   6.113
37966SOL     OW15794   8.320   2.753  13.680
37966SOL    HW115795   8.229   2.782  13.686
37966SOL    HW215796   8.343   2.728  13.769
37967SOL     OW15797  12.096   5.977   8.204
37967SOL    HW115798  12.131   5.973   8.292
37967SOL    HW215799  12.145   6.049   8.162
37968SOL     OW15800   6.516   6.236   4.229
37968SOL    HW115801   6.558   6.282   4.156
37968SOL    HW215802   6.538   6.288   4.306
37969SOL     OW15803  11.687   6.673  10.148
37969SOL    HW115804  11.782   6.684  10.139
37969SOL    HW215805  11.677   6.608  10.217
37970SOL     OW15806  12.901   9.401   9.542
37970SOL    HW115807  12.960   9.461   9.588
37970SOL    HW215808  12.827   9.391   9.601
37971SOL     OW15809   7.337   8.462   0.311
37971SOL    HW115810   7.377   8.470   0.398
37971SOL    HW215811   7.397   8.509   0.253
37972SOL     OW15812   5.906   8.477   7.207
37972SOL    HW115813   5.893   8.552   7.265
37972SOL    HW215814   5.889   8.511   7.119
37973SOL     OW15815  12.420   0.536   5.461
37973SOL    HW115816  12.341   0.498   5.422
37973SOL    HW215817  12.421   0.626   5.429
37974SOL     OW15818   0.525   9.115   7.906
37974SOL    HW115819   0.472   9.092   7.830
37974SOL    HW215820   0.492   9.059   7.976
37975SOL     OW15821   0.808   7.141  13.517
37975SOL    HW115822   0.875   7.108  13.457
37975SOL    HW215823   0.785   7.065  13.571
37976SOL     OW15824  13.151   7.822   0.739
37976SOL    HW115825  13.197   7.806   0.656
37976SOL    HW215826  13.153   7.917   0.750
37977SOL     OW15827  11.122   8.628   1.311
37977SOL    HW115828  11.136   8.703   1.370
37977SOL    HW215829  11.135   8.551   1.367
37978SOL     OW15830  10.674  11.254  12.571
37978SOL    HW115831  10.747  11.193  12.560
37978SOL    HW215832  10.629  11.253  12.486
37979SOL     OW15833   3.139   3.850   9.987
37979SOL    HW115834   3.217   3.874   9.938
37979SOL    HW215835   3.134   3.914  10.057
37980SOL     OW15836  10.640  11.826   0.071
37980SOL    HW115837  10.546  11.843   0.081
37980SOL    HW215838  10.669  11.803   0.160
37981SOL     OW15839  10.986   5.161   3.748
37981SOL    HW115840  11.066   5.209   3.769
37981SOL    HW215841  10.940   5.153   3.832
37982SOL     OW15842  14.793   5.167   2.966
37982SOL    HW115843  14.786   5.120   2.883
37982SOL    HW215844  14.842   5.108   3.023
37983SOL     OW15845   5.612   6.369  11.332
37983SOL    HW115846   5.575   6.454  11.308
37983SOL    HW215847   5.700   6.390  11.365
37984SOL     OW15848  12.130   9.098   4.707
37984SOL    HW115849  12.076   9.157   4.760
37984SOL    HW215850  12.158   9.030   4.768
37985SOL     OW15851  13.828   9.488   9.182
37985SOL    HW115852  13.920   9.498   9.157
37985SOL    HW215853  13.827   9.414   9.242
37986SOL     OW15854  10.469   8.821  11.323
37986SOL    HW115855  10.494   8.913  11.329
37986SOL    HW215856  10.541   8.774  11.365
37987SOL     OW15857  14.568   6.159   7.088
37987SOL    HW115858  14.556   6.222   7.159
37987SOL    HW215859  14.481   6.124   7.071
37988SOL     OW15860   8.348  11.523   9.989
37988SOL    HW115861   8.270  11.472   9.968
37988SOL    HW215862   8.325  11.570  10.069
37989SOL     OW15863  11.305  10.170   8.812
37989SOL    HW115864  11.358  10.232   8.761
37989SOL    HW215865  11.279  10.219   8.890
37990SOL     OW15866   6.091   2.803   8.098
37990SOL    HW115867   6.062   2.844   8.180
37990SOL    HW215868   6.068   2.711   8.109
37991SOL     OW15869   5.803   5.473   5.024
37991SOL    HW115870   5.839   5.562   5.027
37991SOL    HW215871   5.709   5.485   5.038
37992SOL     OW15872  11.099   0.529   1.813
37992SOL    HW115873  11.093   0.476   1.892
37992SOL    HW215874  11.010   0.561   1.799
37993SOL     OW15875   2.046   1.897  10.922
37993SOL    HW115876   2.103   1.826  10.952
37993SOL    HW215877   2.105   1.959  10.879
37994SOL     OW15878   0.104  14.144  13.474
37994SOL    HW115879   0.043  14.217  13.465
37994SOL    HW215880   0.104  14.102  13.388
37995SOL     OW15881   1.066  14.050   3.404
37995SOL    HW115882   1.023  13.970   3.435
37995SOL    HW215883   1.010  14.082   3.333
37996SOL     OW15884   8.196   6.706   9.355
37996SOL    HW115885   8.163   6.628   9.399
37996SOL    HW215886   8.198   6.774   9.423
37997SOL     OW15887  11.825  14.175   3.493
37997SOL    HW115888  11.850  14.172   3.401
37997SOL    HW215889  11.816  14.269   3.512
37998SOL     OW15890  10.142  11.503   8.023
37998SOL    HW115891  10.073  11.531   8.083
37998SOL    HW215892  10.201  11.578   8.017
37999SOL     OW15893   5.244  10.466  12.247
37999SOL    HW115894   5.164  10.452  12.297
37999SOL    HW215895   5.224  10.431  12.160
38000SOL     OW15896   3.601   0.281   8.027
38000SOL    HW115897   3.652   0.231   7.963
38000SOL    HW215898   3.610   0.372   7.998
38001SOL     OW15899   9.765   0.310   9.716
38001SOL    HW115900   9.824   0.377   9.681
38001SOL    HW215901   9.696   0.360   9.760
38002SOL     OW15902  13.131  10.155   0.503
38002SOL    HW115903  13.128  10.083   0.441
38002SOL    HW215904  13.215  10.147   0.547
38003SOL     OW15905   0.885   2.153  13.668
38003SOL    HW115906   0.889   2.206  13.589
38003SOL    HW215907   0.900   2.214  13.740
38004SOL     OW15908   0.327   0.741  10.765
38004SOL    HW115909   0.353   0.794  10.840
38004SOL    HW215910   0.375   0.778  10.692
38005SOL     OW15911  13.242   1.520   4.244
38005SOL    HW115912  13.230   1.614   4.232
38005SOL    HW215913  13.214   1.505   4.334
38006SOL     OW15914  10.928   8.854  14.492
38006SOL    HW115915  11.001   8.892  14.444
38006SOL    HW215916  10.943   8.759  14.489
38007SOL     OW15917   1.458  12.747  10.342
38007SOL    HW115918   1.518  12.713  10.409
38007SOL    HW215919   1.440  12.672  10.285
38008SOL     OW15920   2.288   6.707   6.730
38008SOL    HW115921   2.205   6.751   6.746
38008SOL    HW215922   2.341   6.724   6.808
38009SOL     OW15923   8.289  13.895  10.451
38009SOL    HW115924   8.367  13.852  10.417
38009SOL    HW215925   8.321  13.976  10.491
38010SOL     OW15926   8.087  14.504   1.330
38010SOL    HW115927   7.996  14.482   1.307
38010SOL    HW215928   8.078  14.567   1.401
38011SOL     OW15929   1.912   1.964   1.339
38011SOL    HW115930   1.916   2.060   1.337
38011SOL    HW215931   1.831   1.944   1.387
38012SOL     OW15932   0.425  12.440   0.099
38012SOL    HW115933   0.499  12.452   0.158
38012SOL    HW215934   0.428  12.346   0.077
38013SOL     OW15935   1.659   6.630   6.072
38013SOL    HW115936   1.682   6.610   5.982
38013SOL    HW215937   1.572   6.669   6.067
38014SOL     OW15938   0.819   8.117   4.989
38014SOL    HW115939   0.756   8.141   5.058
38014SOL    HW215940   0.768   8.065   4.927
38015SOL     OW15941  11.803   0.360   2.805
38015SOL    HW115942  11.868   0.357   2.735
38015SOL    HW215943  11.790   0.268   2.829
38016SOL     OW15944  12.159  11.115  11.529
38016SOL    HW115945  12.195  11.191  11.484
38016SOL    HW215946  12.234  11.075  11.574
38017SOL     OW15947   5.730   9.788   2.326
38017SOL    HW115948   5.645   9.800   2.284
38017SOL    HW215949   5.720   9.709   2.379
38018SOL     OW15950  11.932   4.989   1.732
38018SOL    HW115951  11.838   4.969   1.729
38018SOL    HW215952  11.975   4.906   1.716
38019SOL     OW15953   5.533   3.384   6.612
38019SOL    HW115954   5.582   3.457   6.651
38019SOL    HW215955   5.591   3.309   6.622
38020SOL     OW15956   6.614   5.766  14.025
38020SOL    HW115957   6.641   5.856  14.040
38020SOL    HW215958   6.530   5.758  14.069
38021SOL     OW15959   1.748   7.822   5.982
38021SOL    HW115960   1.775   7.798   6.071
38021SOL    HW215961   1.740   7.917   5.985
38022SOL     OW15962   3.367  11.271   6.432
38022SOL    HW115963   3.282  11.228   6.439
38022SOL    HW215964   3.426  11.216   6.484
38023SOL     OW15965   7.858   3.720   6.517
38023SOL    HW115966   7.837   3.766   6.436
38023SOL    HW215967   7.901   3.786   6.571
38024SOL     OW15968   7.241  10.680   6.109
38024SOL    HW115969   7.330  10.685   6.074
38024SOL    HW215970   7.251  10.700   6.202
38025SOL     OW15971   2.126   8.042   4.226
38025SOL    HW115972   2.162   8.115   4.276
38025SOL    HW215973   2.057   8.082   4.172
38026SOL     OW15974   8.080  12.300   1.467
38026SOL    HW115975   8.172  12.303   1.439
38026SOL    HW215976   8.080  12.243   1.543
38027SOL     OW15977  14.697   2.061   6.681
38027SOL    HW115978  14.778   2.053   6.732
38027SOL    HW215979  14.726   2.093   6.596
38028SOL     OW15980   6.717  11.312   3.523
38028SOL    HW115981   6.665  11.283   3.598
38028SOL    HW215982   6.747  11.231   3.482
38029SOL     OW15983  11.998  13.555   8.059
38029SOL    HW115984  12.063  13.523   8.121
38029SOL    HW215985  11.963  13.634   8.099
38030SOL     OW15986   3.676  10.807  11.601
38030SOL    HW115987   3.760  10.852  11.611
38030SOL    HW215988   3.626  10.832  11.678
38031SOL     OW15989  10.492   5.950  12.423
38031SOL    HW115990  10.479   6.006  12.500
38031SOL    HW215991  10.571   5.985  12.382
38032SOL     OW15992  14.249   6.334   2.008
38032SOL    HW115993  14.177   6.272   1.994
38032SOL    HW215994  14.207   6.420   2.004
38033SOL     OW15995  11.904   6.612   5.789
38033SOL    HW115996  11.938   6.660   5.864
38033SOL    HW215997  11.912   6.520   5.814
38034SOL     OW15998   2.187   0.819   3.184
38034SOL    HW115999   2.238   0.870   3.120
38034SOL    HW216000   2.244   0.745   3.206
38035SOL     OW16001   3.945  11.452   6.830
38035SOL    HW116002   3.988  11.378   6.787
38035SOL    HW216003   4.016  11.514   6.848
38036SOL     OW16004   8.027   5.873  12.284
38036SOL    HW116005   8.066   5.918  12.209
38036SOL    HW216006   7.976   5.802  12.246
38037SOL     OW16007  10.446  14.494   8.068
38037SOL    HW116008  10.531  14.490   8.112
38037SOL    HW216009  10.398  14.418   8.102
38038SOL     OW16010   4.221   8.147   5.898
38038SOL    HW116011   4.172   8.128   5.977
38038SOL    HW216012   4.211   8.069   5.844
38039SOL     OW16013  12.064   8.009   9.198
38039SOL    HW116014  12.017   7.938   9.243
38039SOL    HW216015  12.106   8.059   9.269
38040SOL     OW16016   6.584   3.081   4.142
38040SOL    HW116017   6.550   3.168   4.161
38040SOL    HW216018   6.514   3.022   4.170
38041SOL     OW16019   8.348   0.587   9.297
38041SOL    HW116020   8.358   0.520   9.230
38041SOL    HW216021   8.436   0.624   9.307
38042SOL     OW16022   2.869   0.315   3.915
38042SOL    HW116023   2.853   0.398   3.871
38042SOL    HW216024   2.829   0.249   3.858
38043SOL     OW16025   4.736  14.871   6.114
38043SOL    HW116026   4.659  14.840   6.162
38043SOL    HW216027   4.740  14.813   6.037
38044SOL     OW16028   4.814   9.974  10.580
38044SOL    HW116029   4.810   9.993  10.487
38044SOL    HW216030   4.742   9.912  10.595
38045SOL     OW16031   4.201   8.567   2.310
38045SOL    HW116032   4.201   8.503   2.239
38045SOL    HW216033   4.127   8.625   2.290
38046SOL     OW16034   9.765  12.186  12.263
38046SOL    HW116035   9.816  12.167  12.184
38046SOL    HW216036   9.674  12.171  12.238
38047SOL     OW16037   1.992   9.158   5.684
38047SOL    HW116038   1.901   9.167   5.656
38047SOL    HW216039   2.040   9.221   5.631
38048SOL     OW16040   9.981   5.211   8.973
38048SOL    HW116041   9.954   5.164   8.894
38048SOL    HW216042   9.910   5.274   8.987
38049SOL     OW16043   4.910  10.616   2.567
38049SOL    HW116044   4.862  10.541   2.603
38049SOL    HW216045   5.002  10.588   2.566
38050SOL     OW16046   5.309  11.936   7.214
38050SOL    HW116047   5.223  11.895   7.216
38050SOL    HW216048   5.369  11.866   7.239
38051SOL     OW16049   6.770  11.585   3.436
38051SOL    HW116050   6.733  11.503   3.469
38051SOL    HW216051   6.856  11.591   3.478
38052SOL     OW16052   6.421   4.858   3.078
38052SOL    HW116053   6.502   4.840   3.125
38052SOL    HW216054   6.353   4.815   3.130
38053SOL     OW16055  11.841   5.653  13.996
38053SOL    HW116056  11.786   5.629  14.070
38053SOL    HW216057  11.816   5.591  13.927
38054SOL     OW16058   8.069   4.266   9.644
38054SOL    HW116059   8.075   4.287   9.551
38054SOL    HW216060   8.003   4.197   9.650
38055SOL     OW16061   0.258   4.735  12.616
38055SOL    HW116062   0.166   4.763  12.613
38055SOL    HW216063   0.299   4.796  12.677
38056SOL     OW16064   7.289   2.764   8.319
38056SOL    HW116065   7.286   2.809   8.235
38056SOL    HW216066   7.227   2.691   8.310
38057SOL     OW16067   2.786   3.697   1.891
38057SOL    HW116068   2.838   3.662   1.818
38057SOL    HW216069   2.713   3.742   1.849
38058SOL     OW16070   1.080   2.265   8.326
38058SOL    HW116071   1.171   2.291   8.316
38058SOL    HW216072   1.033   2.311   8.256
38059SOL     OW16073   9.165  12.831   3.448
38059SOL    HW116074   9.185  12.880   3.528
38059SOL    HW216075   9.120  12.752   3.478
38060SOL     OW16076  12.441   2.090   0.099
38060SOL    HW116077  12.422   2.024   0.166
38060SOL    HW216078  12.447   2.040   0.018
38061SOL     OW16079   1.706  13.793   0.795
38061SOL    HW116080   1.654  13.862   0.755
38061SOL    HW216081   1.792  13.832   0.809
38062SOL     OW16082   0.338  12.635  11.959
38062SOL    HW116083   0.392  12.698  11.911
38062SOL    HW216084   0.251  12.643  11.920
38063SOL     OW16085  11.300   8.942   8.380
38063SOL    HW116086  11.232   8.876   8.388
38063SOL    HW216087  11.380   8.892   8.363
38064SOL     OW16088   9.036   0.270   1.913
38064SOL    HW116089   9.083   0.201   1.866
38064SOL    HW216090   8.950   0.232   1.932
38065SOL     OW16091   8.881   4.907   6.649
38065SOL    HW116092   8.950   4.841   6.655
38065SOL    HW216093   8.814   4.865   6.594
38066SOL     OW16094   2.449   0.303   2.400
38066SOL    HW116095   2.502   0.382   2.414
38066SOL    HW216096   2.503   0.247   2.345
38067SOL     OW16097  14.281  13.752   4.880
38067SOL    HW116098  14.367  13.790   4.898
38067SOL    HW216099  14.222  13.827   4.874
38068SOL     OW16100  11.212   7.755   8.208
38068SOL    HW116101  11.280   7.737   8.142
38068SOL    HW216102  11.249   7.722   8.290
38069SOL     OW16103   0.108  14.341   6.262
38069SOL    HW116104   0.052  14.391   6.322
38069SOL    HW216105   0.113  14.254   6.301
38070SOL     OW16106   4.043   1.838   6.601
38070SOL    HW116107   4.128   1.876   6.624
38070SOL    HW216108   4.013   1.797   6.682
38071SOL     OW16109  10.214   7.007   9.970
38071SOL    HW116110  10.306   7.009   9.999
38071SOL    HW216111  10.170   6.953  10.036
38072SOL     OW16112  10.134   9.467   6.481
38072SOL    HW116113  10.178   9.508   6.555
38072SOL    HW216114  10.063   9.527   6.459
38073SOL     OW16115   1.043   0.956  13.232
38073SOL    HW116116   0.965   0.912  13.266
38073SOL    HW216117   1.080   0.999  13.309
38074SOL     OW16118  13.548  14.500   1.307
38074SOL    HW116119  13.454  14.505   1.286
38074SOL    HW216120  13.554  14.534   1.396
38075SOL     OW16121   1.205   9.850  13.950
38075SOL    HW116122   1.117   9.888  13.945
38075SOL    HW216123   1.236   9.873  14.038
38076SOL     OW16124  14.841   8.441   1.992
38076SOL    HW116125  14.859   8.483   2.076
38076SOL    HW216126  14.786   8.366   2.014
38077SOL     OW16127   2.185   0.391  14.511
38077SOL    HW116128   2.222   0.335  14.579
38077SOL    HW216129   2.115   0.439  14.555
38078SOL     OW16130  11.041   5.325   2.964
38078SOL    HW116131  10.974   5.374   3.012
38078SOL    HW216132  11.092   5.392   2.919
38079SOL     OW16133  13.925   5.163   7.353
38079SOL    HW116134  13.883   5.241   7.389
38079SOL    HW216135  13.963   5.119   7.428
38080SOL     OW16136   3.213   3.752   5.153
38080SOL    HW116137   3.173   3.674   5.191
38080SOL    HW216138   3.140   3.801   5.116
38081SOL     OW16139   0.399  11.535  10.911
38081SOL    HW116140   0.457  11.476  10.862
38081SOL    HW216141   0.445  11.552  10.993
38082SOL     OW16142   7.358  13.125   6.835
38082SOL    HW116143   7.325  13.205   6.795
38082SOL    HW216144   7.369  13.148   6.928
38083SOL     OW16145   7.507   8.729   0.963
38083SOL    HW116146   7.413   8.737   0.976
38083SOL    HW216147   7.542   8.715   1.051
38084SOL     OW16148   1.819   6.701  10.120
38084SOL    HW116149   1.841   6.794  10.119
38084SOL    HW216150   1.798   6.679  10.030
38085SOL     OW16151  13.917  11.814  12.299
38085SOL    HW116152  13.892  11.732  12.257
38085SOL    HW216153  13.852  11.877  12.268
38086SOL     OW16154   6.086   2.449  12.307
38086SOL    HW116155   6.107   2.379  12.369
38086SOL    HW216156   5.997   2.476  12.330
38087SOL     OW16157  14.576   0.833  11.162
38087SOL    HW116158  14.601   0.747  11.128
38087SOL    HW216159  14.482   0.824  11.182
38088SOL     OW16160  11.616   2.908   2.978
38088SOL    HW116161  11.671   2.874   2.907
38088SOL    HW216162  11.644   2.999   2.988
38089SOL     OW16163   3.679   8.941   8.784
38089SOL    HW116164   3.713   9.025   8.752
38089SOL    HW216165   3.641   8.900   8.706
38090SOL     OW16166  10.018   6.905   0.228
38090SOL    HW116167  10.095   6.953   0.198
38090SOL    HW216168  10.020   6.822   0.179
38091SOL     OW16169   3.869  10.807  12.551
38091SOL    HW116170   3.801  10.798  12.484
38091SOL    HW216171   3.927  10.732  12.538
38092SOL     OW16172   7.920   0.407  14.555
38092SOL    HW116173   7.900   0.500  14.567
38092SOL    HW216174   7.992   0.406  14.492
38093SOL     OW16175   9.694   5.108   7.509
38093SOL    HW116176   9.643   5.096   7.589
38093SOL    HW216177   9.783   5.084   7.533
38094SOL     OW16178   0.577  11.369   8.843
38094SOL    HW116179   0.575  11.422   8.923
38094SOL    HW216180   0.659  11.320   8.849
38095SOL     OW16181   1.735   2.615  14.378
38095SOL    HW116182   1.800   2.546  14.391
38095SOL    HW216183   1.705   2.603  14.288
38096SOL     OW16184   5.214  11.747  12.445
38096SOL    HW116185   5.125  11.752  12.479
38096SOL    HW216186   5.270  11.748  12.523
38097SOL     OW16187   5.935  13.765   7.830
38097SOL    HW116188   5.983  13.805   7.757
38097SOL    HW216189   5.862  13.825   7.846
38098SOL     OW16190   0.067  14.712   8.301
38098SOL    HW116191   0.148  14.662   8.290
38098SOL    HW216192   0.007  14.652   8.346
38099SOL     OW16193   3.849  13.669   4.501
38099SOL    HW116194   3.794  13.716   4.563
38099SOL    HW216195   3.788  13.633   4.437
38100SOL     OW16196   2.906   5.948   0.011
38100SOL    HW116197   2.845   6.021   0.001
38100SOL    HW216198   2.850   5.874   0.038
38101SOL     OW16199  12.317   8.397   2.672
38101SOL    HW116200  12.400   8.380   2.716
38101SOL    HW216201  12.260   8.432   2.741
38102SOL     OW16202   6.907   7.984   4.158
38102SOL    HW116203   6.975   7.929   4.119
38102SOL    HW216204   6.830   7.969   4.103
38103SOL     OW16205  12.760   1.317  13.297
38103SOL    HW116206  12.668   1.332  13.321
38103SOL    HW216207  12.759   1.312  13.202
38104SOL     OW16208  10.298  12.941   4.794
38104SOL    HW116209  10.349  13.021   4.805
38104SOL    HW216210  10.218  12.957   4.845
38105SOL     OW16211  12.686   6.572   9.818
38105SOL    HW116212  12.692   6.617   9.902
38105SOL    HW216213  12.754   6.505   9.821
38106SOL     OW16214  14.613   9.302   1.651
38106SOL    HW116215  14.623   9.374   1.588
38106SOL    HW216216  14.702   9.272   1.667
38107SOL     OW16217  14.117   7.480   3.208
38107SOL    HW116218  14.158   7.433   3.280
38107SOL    HW216219  14.190   7.519   3.160
38108SOL     OW16220  11.247   1.953   5.810
38108SOL    HW116221  11.244   1.858   5.802
38108SOL    HW216222  11.219   1.985   5.724
38109SOL     OW16223   6.652   3.313  13.784
38109SOL    HW116224   6.647   3.395  13.736
38109SOL    HW216225   6.743   3.306  13.812
38110SOL     OW16226  11.297   6.737   6.690
38110SOL    HW116227  11.266   6.737   6.781
38110SOL    HW216228  11.240   6.800   6.646
38111SOL     OW16229   1.931  12.458   0.923
38111SOL    HW116230   1.843  12.491   0.941
38111SOL    HW216231   1.943  12.386   0.985
38112SOL     OW16232   2.942   5.461  13.306
38112SOL    HW116233   2.908   5.371  13.308
38112SOL    HW216234   3.016   5.460  13.366
38113SOL     OW16235   6.319  10.817   1.202
38113SOL    HW116236   6.370  10.762   1.262
38113SOL    HW216237   6.269  10.875   1.259
38114SOL     OW16238  11.492   4.301   4.192
38114SOL    HW116239  11.568   4.321   4.137
38114SOL    HW216240  11.479   4.207   4.182
38115SOL     OW16241   6.793  11.249   8.278
38115SOL    HW116242   6.833  11.218   8.197
38115SOL    HW216243   6.722  11.187   8.295
38116SOL     OW16244   7.768  13.605  13.700
38116SOL    HW116245   7.850  13.597  13.651
38116SOL    HW216246   7.764  13.696  13.727
38117SOL     OW16247   3.225   3.212  14.417
38117SOL    HW116248   3.303   3.237  14.367
38117SOL    HW216249   3.177   3.294  14.429
38118SOL     OW16250   6.415   2.537   4.295
38118SOL    HW116251   6.507   2.513   4.285
38118SOL    HW216252   6.401   2.542   4.389
38119SOL     OW16253   6.661   2.875   3.798
38119SOL    HW116254   6.698   2.849   3.714
38119SOL    HW216255   6.604   2.949   3.777
38120SOL     OW16256  10.977   9.473  13.392
38120SOL    HW116257  10.889   9.444  13.371
38120SOL    HW216258  10.965   9.555  13.441
38121SOL     OW16259   3.489   3.112   0.888
38121SOL    HW116260   3.483   3.016   0.891
38121SOL    HW216261   3.554   3.130   0.820
38122SOL     OW16262   2.512   0.010   6.739
38122SOL    HW116263   2.418  14.874   6.729
38122SOL    HW216264   2.524   0.032   6.831
38123SOL     OW16265   7.581   1.154  11.799
38123SOL    HW116266   7.568   1.059  11.807
38123SOL    HW216267   7.643   1.163  11.727
38124SOL     OW16268   0.630   7.939   4.860
38124SOL    HW116269   0.537   7.955   4.846
38124SOL    HW216270   0.635   7.849   4.892
38125SOL     OW16271   0.920   8.919  13.049
38125SOL    HW116272   1.004   8.896  13.088
38125SOL    HW216273   0.930   8.894  12.957
38126SOL     OW16274  11.458   6.884   9.538
38126SOL    HW116275  11.415   6.874   9.623
38126SOL    HW216276  11.475   6.794   9.508
38127SOL     OW16277  14.336  12.704   0.023
38127SOL    HW116278  14.306  12.794   0.011
38127SOL    HW216279  14.429  12.707  14.874
38128SOL     OW16280   0.582   8.098   8.516
38128SOL    HW116281   0.642   8.129   8.448
38128SOL    HW216282   0.512   8.163   8.517
38129SOL     OW16283  13.651   2.782   2.790
38129SOL    HW116284  13.714   2.765   2.860
38129SOL    HW216285  13.582   2.833   2.832
38130SOL     OW16286   8.779   6.177   3.498
38130SOL    HW116287   8.690   6.188   3.532
38130SOL    HW216288   8.826   6.134   3.570
38131SOL     OW16289   2.189  14.746   6.465
38131SOL    HW116290   2.255  14.815   6.475
38131SOL    HW216291   2.123  14.766   6.531
38132SOL     OW16292  13.521  13.375   0.350
38132SOL    HW116293  13.546  13.437   0.281
38132SOL    HW216294  13.522  13.427   0.431
38133SOL     OW16295   3.172  11.372   0.124
38133SOL    HW116296   3.249  11.428   0.110
38133SOL    HW216297   3.097  11.430   0.114
38134SOL     OW16298   7.733   5.518   4.823
38134SOL    HW116299   7.657   5.463   4.807
38134SOL    HW216300   7.772   5.483   4.903
38135SOL     OW16301   9.180  12.483   6.692
38135SOL    HW116302   9.232  12.545   6.743
38135SOL    HW216303   9.120  12.538   6.641
38136SOL     OW16304  12.170   3.682  11.473
38136SOL    HW116305  12.149   3.761  11.523
38136SOL    HW216306  12.250   3.704  11.425
38137SOL     OW16307   2.523   2.097   6.023
38137SOL    HW116308   2.526   2.071   5.931
38137SOL    HW216309   2.454   2.163   6.026
38138SOL     OW16310   2.472   2.850   3.357
38138SOL    HW116311   2.433   2.808   3.280
38138SOL    HW216312   2.487   2.778   3.418
38139SOL     OW16313   9.990  10.814   9.774
38139SOL    HW116314  10.023  10.739   9.825
38139SOL    HW216315   9.915  10.779   9.726
38140SOL     OW16316   0.507   5.571  12.328
38140SOL    HW116317   0.488   5.579  12.421
38140SOL    HW216318   0.421   5.576  12.285
38141SOL     OW16319   2.627   9.401   8.173
38141SOL    HW116320   2.715   9.370   8.192
38141SOL    HW216321   2.607   9.366   8.086
38142SOL     OW16322   3.308  13.836   6.697
38142SOL    HW116323   3.239  13.781   6.733
38142SOL    HW216324   3.304  13.820   6.603
38143SOL     OW16325   5.254   7.169  13.537
38143SOL    HW116326   5.232   7.077  13.525
38143SOL    HW216327   5.282   7.175  13.629
38144SOL     OW16328  12.905   3.314   6.108
38144SOL    HW116329  12.889   3.236   6.161
38144SOL    HW216330  12.962   3.368   6.163
38145SOL     OW16331   3.771   9.821  13.475
38145SOL    HW116332   3.766   9.748  13.537
38145SOL    HW216333   3.865   9.830  13.456
38146SOL     OW16334   9.503   5.737  11.731
38146SOL    HW116335   9.419   5.704  11.697
38146SOL    HW216336   9.568   5.675  11.698
38147SOL     OW16337   5.060   4.660   8.501
38147SOL    HW116338   5.115   4.582   8.489
38147SOL    HW216339   5.122   4.732   8.511
38148SOL     OW16340   6.114   4.767   7.697
38148SOL    HW116341   6.066   4.685   7.694
38148SOL    HW216342   6.071   4.818   7.766
38149SOL     OW16343   2.772   3.192   0.096
38149SOL    HW116344   2.847   3.216   0.150
38149SOL    HW216345   2.742   3.274   0.058
38150SOL     OW16346   1.667   5.098   6.364
38150SOL    HW116347   1.742   5.077   6.420
38150SOL    HW216348   1.665   5.027   6.299
38151SOL     OW16349   9.455   8.152   0.043
38151SOL    HW116350   9.511   8.201   0.104
38151SOL    HW216351   9.410   8.220  14.868
38152SOL     OW16352   8.688   1.934  12.962
38152SOL    HW116353   8.635   1.858  12.986
38152SOL    HW216354   8.639   2.009  12.995
38153SOL     OW16355   2.725  12.874  11.796
38153SOL    HW116356   2.764  12.875  11.883
38153SOL    HW216357   2.653  12.811  11.802
38154SOL     OW16358   3.856   4.429   0.942
38154SOL    HW116359   3.828   4.401   1.028
38154SOL    HW216360   3.949   4.451   0.953
38155SOL     OW16361   4.221   5.856  12.064
38155SOL    HW116362   4.309   5.893  12.061
38155SOL    HW216363   4.205   5.839  12.157
38156SOL     OW16364   3.321  10.128   7.766
38156SOL    HW116365   3.287  10.214   7.739
38156SOL    HW216366   3.270  10.107   7.845
38157SOL     OW16367  13.159   6.406   4.437
38157SOL    HW116368  13.129   6.497   4.444
38157SOL    HW216369  13.112   6.371   4.361
38158SOL     OW16370  10.088  11.511  12.775
38158SOL    HW116371  10.007  11.495  12.726
38158SOL    HW216372  10.079  11.458  12.854
38159SOL     OW16373  14.012   6.093   2.314
38159SOL    HW116374  14.048   6.164   2.261
38159SOL    HW216375  13.985   6.135   2.395
38160SOL     OW16376   1.362   9.900  10.576
38160SOL    HW116377   1.343   9.811  10.606
38160SOL    HW216378   1.295   9.918  10.511
38161SOL     OW16379  14.029   7.161  12.922
38161SOL    HW116380  14.018   7.244  12.968
38161SOL    HW216381  14.097   7.179  12.856
38162SOL     OW16382  14.033   6.579   3.595
38162SOL    HW116383  14.062   6.501   3.642
38162SOL    HW216384  13.941   6.589   3.620
38163SOL     OW16385  11.625   6.087   8.304
38163SOL    HW116386  11.710   6.044   8.298
38163SOL    HW216387  11.581   6.066   8.221
38164SOL     OW16388  10.772   3.563  12.652
38164SOL    HW116389  10.802   3.653  12.637
38164SOL    HW216390  10.733   3.565  12.740
38165SOL     OW16391   8.300  12.847  12.619
38165SOL    HW116392   8.358  12.921  12.634
38165SOL    HW216393   8.212  12.882  12.632
38166SOL     OW16394   1.786   7.374   6.498
38166SOL    HW116395   1.770   7.280   6.493
38166SOL    HW216396   1.702   7.414   6.478
38167SOL     OW16397  13.564   1.688   1.074
38167SOL    HW116398  13.553   1.666   0.982
38167SOL    HW216399  13.605   1.611   1.113
38168SOL     OW16400  10.180  13.395   6.611
38168SOL    HW116401  10.133  13.477   6.633
38168SOL    HW216402  10.192  13.352   6.696
38169SOL     OW16403  10.459  13.188  11.035
38169SOL    HW116404  10.439  13.147  10.951
38169SOL    HW216405  10.532  13.135  11.070
38170SOL     OW16406   1.265   4.050   6.527
38170SOL    HW116407   1.237   3.991   6.597
38170SOL    HW216408   1.210   4.128   6.538
38171SOL     OW16409  14.830  11.136   3.978
38171SOL    HW116410  14.821  11.183   4.061
38171SOL    HW216411   0.050  11.134   3.962
38172SOL     OW16412   0.333  10.828   7.087
38172SOL    HW116413   0.324  10.790   7.000
38172SOL    HW216414   0.397  10.772   7.131
38173SOL     OW16415  11.763   7.534   7.706
38173SOL    HW116416  11.813   7.506   7.629
38173SOL    HW216417  11.677   7.492   7.695
38174SOL     OW16418  14.830   5.539  14.264
38174SOL    HW116419  14.858   5.462  14.314
38174SOL    HW216420   0.005   5.611  14.301
38175SOL     OW16421   1.016   7.985   6.152
38175SOL    HW116422   1.045   8.076   6.145
38175SOL    HW216423   0.949   7.976   6.085
38176SOL     OW16424  13.357   8.282  11.538
38176SOL    HW116425  13.346   8.322  11.624
38176SOL    HW216426  13.352   8.188  11.556
38177SOL     OW16427   3.485   9.542   4.779
38177SOL    HW116428   3.571   9.502   4.783
38177SOL    HW216429   3.489   9.602   4.705
38178SOL     OW16430   9.243   4.329   5.172
38178SOL    HW116431   9.307   4.398   5.188
38178SOL    HW216432   9.285   4.249   5.202
38179SOL     OW16433  11.980   9.045   0.709
38179SOL    HW116434  11.973   9.119   0.649
38179SOL    HW216435  12.070   9.048   0.741
38180SOL     OW16436  12.210  10.156   3.017
38180SOL    HW116437  12.242  10.183   2.930
38180SOL    HW216438  12.239  10.226   3.076
38181SOL     OW16439  12.902   2.024   0.172
38181SOL    HW116440  12.890   2.094   0.236
38181SOL    HW216441  12.987   2.041   0.133
38182SOL     OW16442   8.829   7.687   5.121
38182SOL    HW116443   8.898   7.706   5.185
38182SOL    HW216444   8.766   7.633   5.169
38183SOL     OW16445  14.633  11.434  10.873
38183SOL    HW116446  14.592  11.374  10.810
38183SOL    HW216447  14.674  11.501  10.818
38184SOL     OW16448  14.074   2.144   4.763
38184SOL    HW116449  13.981   2.151   4.782
38184SOL    HW216450  14.113   2.108   4.842
38185SOL     OW16451   2.818  10.131  13.179
38185SOL    HW116452   2.880  10.201  13.195
38185SOL    HW216453   2.754  10.168  13.118
38186SOL     OW16454  11.553   8.040   0.559
38186SOL    HW116455  11.542   8.024   0.652
38186SOL    HW216456  11.481   8.098   0.535
38187SOL     OW16457   2.952   8.560   3.505
38187SOL    HW116458   2.949   8.610   3.423
38187SOL    HW216459   2.985   8.622   3.570
38188SOL     OW16460   3.726   9.493   9.887
38188SOL    HW116461   3.698   9.546   9.962
38188SOL    HW216462   3.792   9.434   9.923
38189SOL     OW16463  10.008  14.142   3.135
38189SOL    HW116464   9.997  14.103   3.221
38189SOL    HW216465  10.033  14.233   3.153
38190SOL     OW16466   7.754  13.156  12.591
38190SOL    HW116467   7.761  13.251  12.600
38190SOL    HW216468   7.810  13.135  12.516
38191SOL     OW16469  12.451   1.974   2.076
38191SOL    HW116470  12.414   1.919   2.145
38191SOL    HW216471  12.515   1.917   2.032
38192SOL     OW16472   5.597   9.085   0.485
38192SOL    HW116473   5.675   9.038   0.458
38192SOL    HW216474   5.531   9.062   0.420
38193SOL     OW16475   2.207  11.431   6.496
38193SOL    HW116476   2.210  11.338   6.519
38193SOL    HW216477   2.215  11.432   6.400
38194SOL     OW16478   0.927   8.785  12.361
38194SOL    HW116479   0.909   8.698  12.394
38194SOL    HW216480   0.892   8.844  12.427
38195SOL     OW16481   5.134   8.607  13.188
38195SOL    HW116482   5.145   8.533  13.247
38195SOL    HW216483   5.049   8.644  13.211
38196SOL     OW16484   4.701  11.036   0.941
38196SOL    HW116485   4.642  10.963   0.960
38196SOL    HW216486   4.785  11.009   0.977
38197SOL     OW16487  12.463  12.824   9.832
38197SOL    HW116488  12.550  12.791   9.808
38197SOL    HW216489  12.450  12.899   9.774
38198SOL     OW16490  11.296   7.171   2.325
38198SOL    HW116491  11.282   7.138   2.237
38198SOL    HW216492  11.303   7.266   2.314
38199SOL     OW16493  12.303   5.311   5.354
38199SOL    HW116494  12.332   5.294   5.265
38199SOL    HW216495  12.356   5.385   5.383
38200SOL     OW16496  14.424  13.239  14.173
38200SOL    HW116497  14.388  13.153  14.156
38200SOL    HW216498  14.476  13.259  14.095
38201SOL     OW16499  11.874   2.745  11.913
38201SOL    HW116500  11.819   2.679  11.870
38201SOL    HW216501  11.963   2.726  11.883
38202SOL     OW16502   7.937   7.156   0.095
38202SOL    HW116503   7.892   7.144   0.179
38202SOL    HW216504   8.016   7.205   0.117
38203SOL     OW16505  14.321   4.752   1.731
38203SOL    HW116506  14.399   4.808   1.726
38203SOL    HW216507  14.249   4.814   1.746
38204SOL     OW16508   0.427   0.963   5.742
38204SOL    HW116509   0.426   1.049   5.700
38204SOL    HW216510   0.339   0.955   5.780
38205SOL     OW16511  12.125   4.680   5.809
38205SOL    HW116512  12.208   4.633   5.804
38205SOL    HW216513  12.101   4.680   5.901
38206SOL     OW16514   1.560   8.998   7.652
38206SOL    HW116515   1.553   9.091   7.632
38206SOL    HW216516   1.529   8.953   7.573
38207SOL     OW16517   0.052  13.901   5.256
38207SOL    HW116518   0.121  13.942   5.203
38207SOL    HW216519   0.014  13.973   5.305
38208SOL     OW16520   8.281  14.873   8.228
38208SOL    HW116521   8.191   0.012   8.198
38208SOL    HW216522   8.280   0.026   8.320
38209SOL     OW16523   2.200   0.013  13.056
38209SOL    HW116524   2.143   0.085  13.081
38209SOL    HW216525   2.272   0.017  13.119
38210SOL     OW16526   7.317   0.754  11.515
38210SOL    HW116527   7.282   0.666  11.526
38210SOL    HW216528   7.411   0.745  11.529
38211SOL     OW16529   9.850   7.896  10.904
38211SOL    HW116530   9.899   7.906  10.985
38211SOL    HW216531   9.804   7.979  10.893
38212SOL     OW16532  11.554   2.550   7.708
38212SOL    HW116533  11.610   2.501   7.647
38212SOL    HW216534  11.615   2.592   7.768
38213SOL     OW16535   0.473   3.898   1.846
38213SOL    HW116536   0.428   3.903   1.930
38213SOL    HW216537   0.565   3.886   1.868
38214SOL     OW16538   9.846   6.106   4.857
38214SOL    HW116539   9.897   6.114   4.776
38214SOL    HW216540   9.911   6.109   4.927
38215SOL     OW16541   1.401   4.580   5.955
38215SOL    HW116542   1.418   4.662   5.908
38215SOL    HW216543   1.410   4.603   6.047
38216SOL     OW16544   2.668  12.472   2.254
38216SOL    HW116545   2.719  12.451   2.332
38216SOL    HW216546   2.695  12.561   2.231
38217SOL     OW16547   6.882   1.228  13.130
38217SOL    HW116548   6.876   1.283  13.052
38217SOL    HW216549   6.791   1.220  13.160
38218SOL     OW16550   1.203   7.600  12.023
38218SOL    HW116551   1.110   7.593  12.000
38218SOL    HW216552   1.226   7.690  12.000
38219SOL     OW16553   8.863  12.955   2.971
38219SOL    HW116554   8.899  13.028   3.021
38219SOL    HW216555   8.776  12.985   2.944
38220SOL     OW16556  13.212   1.666   4.882
38220SOL    HW116557  13.239   1.734   4.943
38220SOL    HW216558  13.136   1.703   4.838
38221SOL     OW16559   5.615   9.908  11.785
38221SOL    HW116560   5.698   9.933  11.826
38221SOL    HW216561   5.582   9.989  11.746
38222SOL     OW16562   8.330  14.286   2.141
38222SOL    HW116563   8.273  14.216   2.172
38222SOL    HW216564   8.394  14.298   2.210
38223SOL     OW16565   2.762   6.280  14.471
38223SOL    HW116566   2.754   6.203  14.527
38223SOL    HW216567   2.764   6.245  14.382
38224SOL     OW16568  12.328  12.900   7.984
38224SOL    HW116569  12.361  12.851   7.908
38224SOL    HW216570  12.233  12.903   7.971
38225SOL     OW16571   3.694  12.162   0.395
38225SOL    HW116572   3.621  12.215   0.364
38225SOL    HW216573   3.654  12.092   0.447
38226SOL     OW16574   5.779   2.460  11.405
38226SOL    HW116575   5.874   2.454  11.415
38226SOL    HW216576   5.760   2.553  11.416
38227SOL     OW16577   9.645  10.499   3.891
38227SOL    HW116578   9.609  10.420   3.932
38227SOL    HW216579   9.582  10.521   3.822
38228SOL     OW16580  11.588   9.936  12.689
38228SOL    HW116581  11.579  10.003  12.758
38228SOL    HW216582  11.549   9.857  12.727
38229SOL     OW16583   7.454   2.852   6.362
38229SOL    HW116584   7.550   2.849   6.361
38229SOL    HW216585   7.431   2.884   6.274
38230SOL     OW16586   7.189   8.565   3.392
38230SOL    HW116587   7.150   8.595   3.311
38230SOL    HW216588   7.183   8.470   3.389
38231SOL     OW16589  12.286   8.515  11.313
38231SOL    HW116590  12.224   8.530  11.384
38231SOL    HW216591  12.340   8.593  11.311
38232SOL     OW16592   0.811   9.879   5.188
38232SOL    HW116593   0.861   9.900   5.109
38232SOL    HW216594   0.794   9.964   5.229
38233SOL     OW16595   9.293   6.223  10.105
38233SOL    HW116596   9.253   6.143  10.071
38233SOL    HW216597   9.354   6.192  10.172
38234SOL     OW16598   3.996  11.272   3.083
38234SOL    HW116599   3.911  11.266   3.128
38234SOL    HW216600   3.983  11.341   3.019
38235SOL     OW16601   4.673  11.704  10.775
38235SOL    HW116602   4.691  11.694  10.681
38235SOL    HW216603   4.754  11.742  10.810
38236SOL     OW16604   6.246   3.736   6.393
38236SOL    HW116605   6.314   3.751   6.459
38236SOL    HW216606   6.174   3.795   6.419
38237SOL     OW16607   8.688   8.227   5.526
38237SOL    HW116608   8.760   8.165   5.511
38237SOL    HW216609   8.639   8.188   5.599
38238SOL     OW16610   5.686  10.895  12.647
38238SOL    HW116611   5.634  10.931  12.719
38238SOL    HW216612   5.636  10.819  12.617
38239SOL     OW16613   2.329  14.223   5.505
38239SOL    HW116614   2.379  14.272   5.570
38239SOL    HW216615   2.255  14.187   5.552
38240SOL     OW16616   6.231   8.207   6.749
38240SOL    HW116617   6.251   8.120   6.783
38240SOL    HW216618   6.274   8.267   6.810
38241SOL     OW16619   0.742   7.579  10.967
38241SOL    HW116620   0.831   7.613  10.964
38241SOL    HW216621   0.702   7.622  11.043
38242SOL     OW16622   4.201  12.213  13.271
38242SOL    HW116623   4.290  12.216  13.307
38242SOL    HW216624   4.147  12.187  13.346
38243SOL     OW16625   6.059   8.475   4.092
38243SOL    HW116626   6.046   8.520   4.176
38243SOL    HW216627   6.103   8.394   4.115
38244SOL     OW16628   7.380   7.956  10.373
38244SOL    HW116629   7.322   7.965  10.297
38244SOL    HW216630   7.331   7.994  10.445
38245SOL     OW16631  12.214   0.831   8.891
38245SOL    HW116632  12.192   0.769   8.961
38245SOL    HW216633  12.274   0.893   8.932
38246SOL     OW16634   2.415   0.242  10.206
38246SOL    HW116635   2.405   0.213  10.115
38246SOL    HW216636   2.494   0.198  10.237
38247SOL     OW16637  11.274   1.567   5.058
38247SOL    HW116638  11.247   1.521   5.138
38247SOL    HW216639  11.345   1.624   5.086
38248SOL     OW16640   3.333  11.117   2.930
38248SOL    HW116641   3.393  11.158   2.992
38248SOL    HW216642   3.377  11.036   2.904
38249SOL     OW16643  11.810   6.639   1.198
38249SOL    HW116644  11.768   6.573   1.253
38249SOL    HW216645  11.851   6.590   1.127
38250SOL     OW16646   6.465   2.436  11.671
38250SOL    HW116647   6.503   2.480  11.595
38250SOL    HW216648   6.405   2.500  11.708
38251SOL     OW16649   9.708  11.966   2.389
38251SOL    HW116650   9.663  11.909   2.326
38251SOL    HW216651   9.651  12.042   2.397
38252SOL     OW16652  13.546  14.362   9.704
38252SOL    HW116653  13.592  14.282   9.679
38252SOL    HW216654  13.591  14.431   9.656
38253SOL     OW16655   4.478   1.556  10.468
38253SOL    HW116656   4.488   1.475  10.419
38253SOL    HW216657   4.567   1.589  10.478
38254SOL     OW16658   6.933   8.262   2.700
38254SOL    HW116659   6.993   8.225   2.635
38254SOL    HW216660   6.989   8.285   2.775
38255SOL     OW16661  11.688   7.630   2.572
38255SOL    HW116662  11.635   7.551   2.564
38255SOL    HW216663  11.704   7.639   2.666
38256SOL     OW16664   3.450  10.103   0.401
38256SOL    HW116665   3.410  10.182   0.364
38256SOL    HW216666   3.391  10.077   0.471
38257SOL     OW16667   9.764   2.593   1.997
38257SOL    HW116668   9.710   2.669   1.976
38257SOL    HW216669   9.835   2.628   2.050
38258SOL     OW16670   6.167  14.653   5.042
38258SOL    HW116671   6.125  14.579   5.085
38258SOL    HW216672   6.193  14.711   5.113
38259SOL     OW16673   4.721   7.431  12.772
38259SOL    HW116674   4.741   7.346  12.813
38259SOL    HW216675   4.626   7.439  12.779
38260SOL     OW16676  14.101   3.592   3.309
38260SOL    HW116677  14.186   3.620   3.275
38260SOL    HW216678  14.037   3.641   3.258
38261SOL     OW16679   4.803  11.617   6.331
38261SOL    HW116680   4.765  11.616   6.418
38261SOL    HW216681   4.798  11.526   6.301
38262SOL     OW16682  14.873   0.563   6.186
38262SOL    HW116683  14.821   0.526   6.257
38262SOL    HW216684   0.002   0.494   6.120
38263SOL     OW16685   9.854  10.094   8.415
38263SOL    HW116686   9.938  10.089   8.370
38263SOL    HW216687   9.859  10.174   8.468
38264SOL     OW16688   2.301   2.879   7.260
38264SOL    HW116689   2.374   2.823   7.288
38264SOL    HW216690   2.227   2.852   7.315
38265SOL     OW16691   2.017   4.794   2.190
38265SOL    HW116692   2.111   4.800   2.176
38265SOL    HW216693   1.999   4.857   2.260
38266SOL     OW16694  13.273  14.012   4.993
38266SOL    HW116695  13.310  13.974   4.913
38266SOL    HW216696  13.252  14.102   4.969
38267SOL     OW16697  14.610   2.349  11.266
38267SOL    HW116698  14.536   2.377  11.212
38267SOL    HW216699  14.629   2.260  11.237
38268SOL     OW16700   1.501   5.160   3.313
38268SOL    HW116701   1.499   5.072   3.277
38268SOL    HW216702   1.523   5.148   3.406
38269SOL     OW16703   5.342   3.192   2.326
38269SOL    HW116704   5.346   3.130   2.399
38269SOL    HW216705   5.410   3.163   2.265
38270SOL     OW16706   8.155   2.343   1.269
38270SOL    HW116707   8.193   2.301   1.192
38270SOL    HW216708   8.083   2.396   1.235
38271SOL     OW16709   2.530  10.303   6.837
38271SOL    HW116710   2.459  10.253   6.876
38271SOL    HW216711   2.575  10.344   6.912
38272SOL     OW16712   0.644   2.039  14.758
38272SOL    HW116713   0.554   2.072  14.762
38272SOL    HW216714   0.683   2.084  14.684
38273SOL     OW16715   5.999  13.735   5.069
38273SOL    HW116716   5.913  13.720   5.029
38273SOL    HW216717   6.027  13.819   5.033
38274SOL     OW16718   8.792   7.060  13.206
38274SOL    HW116719   8.788   7.110  13.287
38274SOL    HW216720   8.877   7.082  13.167
38275SOL     OW16721  10.790  14.782   1.770
38275SOL    HW116722  10.758  14.700   1.808
38275SOL    HW216723  10.825  14.831   1.845
38276SOL     OW16724   1.495   7.066   6.150
38276SOL    HW116725   1.474   7.127   6.221
38276SOL    HW216726   1.548   6.998   6.191
38277SOL     OW16727   2.817   7.908  11.303
38277SOL    HW116728   2.908   7.925  11.327
38277SOL    HW216729   2.814   7.815  11.282
38278SOL     OW16730   0.352  13.616   8.800
38278SOL    HW116731   0.368  13.541   8.743
38278SOL    HW216732   0.257  13.625   8.803
38279SOL     OW16733  13.642  13.870   0.818
38279SOL    HW116734  13.723  13.879   0.768
38279SOL    HW216735  13.642  13.779   0.849
38280SOL     OW16736   4.941   8.195  12.367
38280SOL    HW116737   4.929   8.113  12.415
38280SOL    HW216738   4.864   8.200  12.310
38281SOL     OW16739  11.216   6.223   2.538
38281SOL    HW116740  11.311   6.235   2.536
38281SOL    HW216741  11.182   6.312   2.544
38282SOL     OW16742   5.026   4.427  11.309
38282SOL    HW116743   4.955   4.419  11.372
38282SOL    HW216744   4.983   4.440  11.225
38283SOL     OW16745   9.298  14.170  14.723
38283SOL    HW116746   9.384  14.129  14.715
38283SOL    HW216747   9.295  14.202  14.814
38284SOL     OW16748   7.031  13.418   1.036
38284SOL    HW116749   7.064  13.472   1.108
38284SOL    HW216750   7.111  13.388   0.991
38285SOL     OW16751   5.885  10.957   9.427
38285SOL    HW116752   5.957  10.965   9.364
38285SOL    HW216753   5.822  10.900   9.383
38286SOL     OW16754   5.036   6.587   3.492
38286SOL    HW116755   5.066   6.678   3.488
38286SOL    HW216756   4.996   6.571   3.407
38287SOL     OW16757  13.469   7.905   2.230
38287SOL    HW116758  13.541   7.928   2.170
38287SOL    HW216759  13.513   7.867   2.306
38288SOL     OW16760   9.398  13.595  13.424
38288SOL    HW116761   9.482  13.578  13.465
38288SOL    HW216762   9.360  13.666  13.474
38289SOL     OW16763   5.519   6.326   1.874
38289SOL    HW116764   5.539   6.351   1.964
38289SOL    HW216765   5.598   6.284   1.842
38290SOL     OW16766  14.744  14.271   4.057
38290SOL    HW116767  14.652  14.249   4.062
38290SOL    HW216768  14.779  14.248   4.143
38291SOL     OW16769  13.782   1.241   8.224
38291SOL    HW116770  13.781   1.291   8.142
38291SOL    HW216771  13.691   1.215   8.238
38292SOL     OW16772   6.097   0.358   2.709
38292SOL    HW116773   6.177   0.317   2.740
38292SOL    HW216774   6.033   0.341   2.778
38293SOL     OW16775   7.269   6.625   2.921
38293SOL    HW116776   7.242   6.707   2.962
38293SOL    HW216777   7.353   6.644   2.880
38294SOL     OW16778  10.926   1.988   3.212
38294SOL    HW116779  10.873   2.065   3.192
38294SOL    HW216780  10.998   1.992   3.149
38295SOL     OW16781   4.485   1.403   9.350
38295SOL    HW116782   4.434   1.337   9.397
38295SOL    HW216783   4.576   1.373   9.357
38296SOL     OW16784   1.160   3.779   8.852
38296SOL    HW116785   1.084   3.727   8.826
38296SOL    HW216786   1.184   3.827   8.773
38297SOL     OW16787   0.018   4.695   5.781
38297SOL    HW116788  14.840   4.741   5.716
38297SOL    HW216789   0.102   4.680   5.737
38298SOL     OW16790  13.102   2.537   7.156
38298SOL    HW116791  13.182   2.491   7.183
38298SOL    HW216792  13.133   2.609   7.101
38299SOL     OW16793  13.699  10.194   1.093
38299SOL    HW116794  13.641  10.220   1.164
38299SOL    HW216795  13.671  10.104   1.072
38300SOL     OW16796   2.076   3.470  13.301
38300SOL    HW116797   2.106   3.511  13.220
38300SOL    HW216798   2.123   3.387  13.305
38301SOL     OW16799  12.911   3.047   6.211
38301SOL    HW116800  12.959   3.062   6.292
38301SOL    HW216801  12.836   2.993   6.238
38302SOL     OW16802  12.397   9.919   7.226
38302SOL    HW116803  12.353   9.846   7.182
38302SOL    HW216804  12.454   9.878   7.291
38303SOL     OW16805   3.091   4.192   1.292
38303SOL    HW116806   3.157   4.131   1.260
38303SOL    HW216807   3.078   4.254   1.220
38304SOL     OW16808   3.411   4.257  13.207
38304SOL    HW116809   3.406   4.326  13.272
38304SOL    HW216810   3.320   4.232  13.191
38305SOL     OW16811   7.005  14.256   2.080
38305SOL    HW116812   6.932  14.252   2.018
38305SOL    HW216813   7.051  14.337   2.057
38306SOL     OW16814  13.246   7.425  14.592
38306SOL    HW116815  13.332   7.388  14.611
38306SOL    HW216816  13.250   7.450  14.499
38307SOL     OW16817   6.378   8.522   6.656
38307SOL    HW116818   6.348   8.554   6.570
38307SOL    HW216819   6.316   8.561   6.718
38308SOL     OW16820   6.973  11.358   6.505
38308SOL    HW116821   6.903  11.423   6.509
38308SOL    HW216822   7.024  11.372   6.585
38309SOL     OW16823   4.338   0.682   1.964
38309SOL    HW116824   4.343   0.731   1.881
38309SOL    HW216825   4.358   0.592   1.939
38310SOL     OW16826   9.954  10.600   6.581
38310SOL    HW116827  10.026  10.571   6.525
38310SOL    HW216828   9.926  10.522   6.628
38311SOL     OW16829   1.011  10.831   5.019
38311SOL    HW116830   0.987  10.764   4.956
38311SOL    HW216831   1.032  10.908   4.965
38312SOL     OW16832   3.639  11.345   4.628
38312SOL    HW116833   3.596  11.293   4.695
38312SOL    HW216834   3.732  11.339   4.648
38313SOL     OW16835   7.055   4.590  10.374
38313SOL    HW116836   7.122   4.525  10.398
38313SOL    HW216837   6.973   4.540  10.371
38314SOL     OW16838   9.180   4.567   2.465
38314SOL    HW116839   9.254   4.606   2.511
38314SOL    HW216840   9.157   4.490   2.517
38315SOL     OW16841   5.314   5.075  11.785
38315SOL    HW116842   5.250   5.136  11.747
38315SOL    HW216843   5.362   5.042  11.709
38316SOL     OW16844   3.833   4.574   6.639
38316SOL    HW116845   3.764   4.622   6.593
38316SOL    HW216846   3.791   4.492   6.666
38317SOL     OW16847   0.496   6.388   7.563
38317SOL    HW116848   0.487   6.471   7.608
38317SOL    HW216849   0.407   6.353   7.557
38318SOL     OW16850   4.651   4.375   9.398
38318SOL    HW116851   4.602   4.294   9.410
38318SOL    HW216852   4.721   4.352   9.337
38319SOL     OW16853  11.369  11.441   3.780
38319SOL    HW116854  11.454  11.407   3.807
38319SOL    HW216855  11.352  11.399   3.696
38320SOL     OW16856   4.857  12.344   1.454
38320SOL    HW116857   4.823  12.260   1.484
38320SOL    HW216858   4.936  12.323   1.404
38321SOL     OW16859  13.556  10.204   8.410
38321SOL    HW116860  13.538  10.222   8.317
38321SOL    HW216861  13.534  10.287   8.454
38322SOL     OW16862   9.274  13.286   1.865
38322SOL    HW116863   9.277  13.380   1.882
38322SOL    HW216864   9.212  13.278   1.791
38323SOL     OW16865   0.405   5.624   0.304
38323SOL    HW116866   0.402   5.659   0.215
38323SOL    HW216867   0.431   5.533   0.293
38324SOL     OW16868  11.230   6.099   0.846
38324SOL    HW116869  11.231   6.065   0.936
38324SOL    HW216870  11.243   6.194   0.857
38325SOL     OW16871  11.019   5.111  12.652
38325SOL    HW116872  11.049   5.022  12.633
38325SOL    HW216873  11.099   5.163  12.655
38326SOL     OW16874  14.414   9.397   1.025
38326SOL    HW116875  14.373   9.477   0.994
38326SOL    HW216876  14.362   9.327   0.987
38327SOL     OW16877   6.656  13.129   7.440
38327SOL    HW116878   6.583  13.191   7.436
38327SOL    HW216879   6.616  13.043   7.434
38328SOL     OW16880   7.398  11.271   2.433
38328SOL    HW116881   7.401  11.311   2.520
38328SOL    HW216882   7.312  11.295   2.399
38329SOL     OW16883   3.520   1.850   8.070
38329SOL    HW116884   3.553   1.938   8.050
38329SOL    HW216885   3.544   1.797   7.993
38330SOL     OW16886   7.128  11.530   4.592
38330SOL    HW116887   7.114  11.445   4.634
38330SOL    HW216888   7.059  11.537   4.526
38331SOL     OW16889   5.565   3.109   4.122
38331SOL    HW116890   5.570   3.041   4.189
38331SOL    HW216891   5.532   3.064   4.044
38332SOL     OW16892   3.794   8.554  13.751
38332SOL    HW116893   3.781   8.563  13.845
38332SOL    HW216894   3.889   8.549  13.741
38333SOL     OW16895   7.679   5.507   0.561
38333SOL    HW116896   7.767   5.497   0.527
38333SOL    HW216897   7.674   5.446   0.634
38334SOL     OW16898  12.231   2.622  12.136
38334SOL    HW116899  12.259   2.631  12.044
38334SOL    HW216900  12.292   2.677  12.185
38335SOL     OW16901  12.221   0.623   3.484
38335SOL    HW116902  12.189   0.709   3.458
38335SOL    HW216903  12.147   0.581   3.527
38336SOL     OW16904   2.127   0.173  10.628
38336SOL    HW116905   2.214   0.153  10.665
38336SOL    HW216906   2.067   0.121  10.681
38337SOL     OW16907  11.082   1.954   4.452
38337SOL    HW116908  11.017   2.023   4.438
38337SOL    HW216909  11.043   1.877   4.410
38338SOL     OW16910  14.021   4.726   1.465
38338SOL    HW116911  13.993   4.790   1.531
38338SOL    HW216912  13.952   4.729   1.399
38339SOL     OW16913   4.027   3.053   8.805
38339SOL    HW116914   3.970   3.057   8.728
38339SOL    HW216915   3.971   3.076   8.878
38340SOL     OW16916   8.412   6.525   0.677
38340SOL    HW116917   8.467   6.489   0.747
38340SOL    HW216918   8.324   6.529   0.715
38341SOL     OW16919  12.013  10.000   2.927
38341SOL    HW116920  12.087  10.051   2.960
38341SOL    HW216921  12.004  10.028   2.835
38342SOL     OW16922   6.550   9.602   9.024
38342SOL    HW116923   6.606   9.531   8.992
38342SOL    HW216924   6.610   9.663   9.067
38343SOL     OW16925   9.279  14.758  12.232
38343SOL    HW116926   9.338  14.777  12.306
38343SOL    HW216927   9.310  14.674  12.198
38344SOL     OW16928   0.385   7.848   9.023
38344SOL    HW116929   0.304   7.846   8.973
38344SOL    HW216930   0.431   7.769   8.997
38345SOL     OW16931   4.522   0.865   4.276
38345SOL    HW116932   4.512   0.827   4.189
38345SOL    HW216933   4.609   0.839   4.304
38346SOL     OW16934  10.381   3.422  12.250
38346SOL    HW116935  10.404   3.341  12.205
38346SOL    HW216936  10.349   3.394  12.335
38347SOL     OW16937  14.036  12.819   2.901
38347SOL    HW116938  14.082  12.754   2.954
38347SOL    HW216939  14.092  12.897   2.905
38348SOL     OW16940  10.790  10.928   4.827
38348SOL    HW116941  10.811  10.851   4.774
38348SOL    HW216942  10.847  10.997   4.792
38349SOL     OW16943  12.340   1.837  11.758
38349SOL    HW116944  12.344   1.929  11.732
38349SOL    HW216945  12.373   1.789  11.681
38350SOL     OW16946   4.504   4.992   2.305
38350SOL    HW116947   4.485   4.986   2.212
38350SOL    HW216948   4.590   4.953   2.315
38351SOL     OW16949   3.174  10.101   0.155
38351SOL    HW116950   3.169  10.179   0.210
38351SOL    HW216951   3.116  10.038   0.198
38352SOL     OW16952   6.813   7.244  11.258
38352SOL    HW116953   6.865   7.300  11.315
38352SOL    HW216954   6.729   7.235  11.304
38353SOL     OW16955   5.897   5.080   5.665
38353SOL    HW116956   5.969   5.036   5.711
38353SOL    HW216957   5.820   5.062   5.718
38354SOL     OW16958   4.728   4.966   9.788
38354SOL    HW116959   4.751   5.016   9.710
38354SOL    HW216960   4.706   5.032   9.854
38355SOL     OW16961  10.556   6.356  11.048
38355SOL    HW116962  10.464   6.348  11.075
38355SOL    HW216963  10.599   6.282  11.091
38356SOL     OW16964   1.808   7.735   1.879
38356SOL    HW116965   1.733   7.689   1.841
38356SOL    HW216966   1.854   7.667   1.929
38357SOL     OW16967   3.052   8.494   8.575
38357SOL    HW116968   3.058   8.468   8.483
38357SOL    HW216969   3.000   8.574   8.574
38358SOL     OW16970  13.570   9.830  14.223
38358SOL    HW116971  13.479   9.829  14.253
38358SOL    HW216972  13.613   9.895  14.278
38359SOL     OW16973   4.997   7.165   9.699
38359SOL    HW116974   4.971   7.192   9.611
38359SOL    HW216975   4.977   7.072   9.702
38360SOL     OW16976   5.199  10.753   8.327
38360SOL    HW116977   5.145  10.832   8.327
38360SOL    HW216978   5.264  10.769   8.396
38361SOL     OW16979   3.075  12.930   6.194
38361SOL    HW116980   3.004  12.878   6.231
38361SOL    HW216981   3.050  12.944   6.103
38362SOL     OW16982   7.459   8.607  12.068
38362SOL    HW116983   7.404   8.668  12.117
38362SOL    HW216984   7.396   8.551  12.022
38363SOL     OW16985   7.455   6.977   8.411
38363SOL    HW116986   7.501   6.909   8.361
38363SOL    HW216987   7.520   7.010   8.472
38364SOL     OW16988   9.687  10.037  11.267
38364SOL    HW116989   9.696   9.950  11.307
38364SOL    HW216990   9.775  10.073  11.267
38365SOL     OW16991   6.556   6.905   5.974
38365SOL    HW116992   6.541   6.824   6.023
38365SOL    HW216993   6.532   6.883   5.884
38366SOL     OW16994  14.643  12.567  12.059
38366SOL    HW116995  14.663  12.529  12.145
38366SOL    HW216996  14.725  12.607  12.031
38367SOL     OW16997   0.748   9.061   4.183
38367SOL    HW116998   0.823   9.041   4.127
38367SOL    HW216999   0.683   8.995   4.160
38368SOL     OW17000  14.669   6.197   4.938
38368SOL    HW117001  14.582   6.233   4.922
38368SOL    HW217002  14.713   6.264   4.992
38369SOL     OW17003   4.261   1.207   9.706
38369SOL    HW117004   4.288   1.174   9.791
38369SOL    HW217005   4.197   1.275   9.725
38370SOL     OW17006   4.397   1.418   5.131
38370SOL    HW117007   4.469   1.440   5.072
38370SOL    HW217008   4.437   1.362   5.198
38371SOL     OW17009   1.107   4.188  13.206
38371SOL    HW117010   1.016   4.161  13.200
38371SOL    HW217011   1.127   4.225  13.120
38372SOL     OW17012   2.702  14.120  13.953
38372SOL    HW117013   2.791  14.150  13.933
38372SOL    HW217014   2.687  14.149  14.043
38373SOL     OW17015   6.514   1.783   4.724
38373SOL    HW117016   6.453   1.723   4.767
38373SOL    HW217017   6.522   1.857   4.784
38374SOL     OW17018   3.771   4.481   7.483
38374SOL    HW117019   3.791   4.526   7.565
38374SOL    HW217020   3.827   4.523   7.418
38375SOL     OW17021   2.131   1.526   5.585
38375SOL    HW117022   2.203   1.465   5.602
38375SOL    HW217023   2.071   1.476   5.530
38376SOL     OW17024  13.291   3.359  12.273
38376SOL    HW117025  13.324   3.270  12.284
38376SOL    HW217026  13.369   3.410  12.250
38377SOL     OW17027   2.061   1.619   6.805
38377SOL    HW117028   2.043   1.713   6.805
38377SOL    HW217029   1.979   1.578   6.831
38378SOL     OW17030   1.510  10.275   6.386
38378SOL    HW117031   1.590  10.322   6.412
38378SOL    HW217032   1.541  10.187   6.364
38379SOL     OW17033  11.495  12.326   1.659
38379SOL    HW117034  11.419  12.320   1.717
38379SOL    HW217035  11.467  12.385   1.589
38380SOL     OW17036  13.034  10.234   7.945
38380SOL    HW117037  13.057  10.322   7.974
38380SOL    HW217038  12.962  10.208   8.003
38381SOL     OW17039   9.021   1.689   7.487
38381SOL    HW117040   8.961   1.748   7.532
38381SOL    HW217041   9.098   1.686   7.544
38382SOL     OW17042   8.314  12.496  13.208
38382SOL    HW117043   8.268  12.432  13.263
38382SOL    HW217044   8.342  12.563  13.270
38383SOL     OW17045  12.085  10.920   9.918
38383SOL    HW117046  12.014  10.971   9.956
38383SOL    HW217047  12.090  10.949   9.827
38384SOL     OW17048   6.008   0.969   8.160
38384SOL    HW117049   5.946   1.018   8.106
38384SOL    HW217050   5.961   0.954   8.242
38385SOL     OW17051   8.275  10.191   1.768
38385SOL    HW117052   8.249  10.282   1.779
38385SOL    HW217053   8.319  10.168   1.849
38386SOL     OW17054   2.165   3.074   9.983
38386SOL    HW117055   2.235   3.071   9.919
38386SOL    HW217056   2.208   3.094  10.066
38387SOL     OW17057   3.714   8.037  12.525
38387SOL    HW117058   3.775   8.005  12.592
38387SOL    HW217059   3.723   8.133  12.529
38388SOL     OW17060  10.249   9.279   1.263
38388SOL    HW117061  10.297   9.240   1.190
38388SOL    HW217062  10.311   9.276   1.336
38389SOL     OW17063  10.271   9.564  12.212
38389SOL    HW117064  10.346   9.521  12.172
38389SOL    HW217065  10.206   9.569  12.141
38390SOL     OW17066  10.569   3.989  10.376
38390SOL    HW117067  10.560   3.915  10.316
38390SOL    HW217068  10.646   3.968  10.428
38391SOL     OW17069   6.633   3.198  12.752
38391SOL    HW117070   6.592   3.188  12.838
38391SOL    HW217071   6.724   3.173  12.766
38392SOL     OW17072   9.840   8.184   7.066
38392SOL    HW117073   9.831   8.110   7.005
38392SOL    HW217074   9.897   8.246   7.020
38393SOL     OW17075  11.644   3.402   7.418
38393SOL    HW117076  11.734   3.372   7.432
38393SOL    HW217077  11.592   3.322   7.411
38394SOL     OW17078   4.623  10.623  12.308
38394SOL    HW117079   4.627  10.628  12.403
38394SOL    HW217080   4.592  10.709  12.281
38395SOL     OW17081   9.926   3.182  13.681
38395SOL    HW117082   9.901   3.228  13.600
38395SOL    HW217083   9.870   3.105  13.683
38396SOL     OW17084  14.286   5.488   5.999
38396SOL    HW117085  14.367   5.441   5.978
38396SOL    HW217086  14.301   5.520   6.088
38397SOL     OW17087   5.328  12.746   3.909
38397SOL    HW117088   5.235  12.762   3.892
38397SOL    HW217089   5.361  12.830   3.941
38398SOL     OW17090   3.771   8.326   6.550
38398SOL    HW117091   3.755   8.275   6.470
38398SOL    HW217092   3.700   8.391   6.550
38399SOL     OW17093   2.119   9.412   4.987
38399SOL    HW117094   2.155   9.332   4.951
38399SOL    HW217095   2.024   9.398   4.987
38400SOL     OW17096   7.712   5.310   0.778
38400SOL    HW117097   7.682   5.340   0.864
38400SOL    HW217098   7.744   5.221   0.793
38401SOL     OW17099   4.517   1.367   7.193
38401SOL    HW117100   4.538   1.379   7.100
38401SOL    HW217101   4.423   1.350   7.194
38402SOL     OW17102   2.984  11.402   2.585
38402SOL    HW117103   2.918  11.382   2.652
38402SOL    HW217104   3.003  11.495   2.597
38403SOL     OW17105   5.181   8.787   2.352
38403SOL    HW117106   5.266   8.745   2.369
38403SOL    HW217107   5.138   8.728   2.290
38404SOL     OW17108  11.911   2.260  12.173
38404SOL    HW117109  11.882   2.186  12.227
38404SOL    HW217110  11.979   2.302  12.225
38405SOL     OW17111   5.106  13.315  10.254
38405SOL    HW117112   5.030  13.316  10.196
38405SOL    HW217113   5.177  13.280  10.201
38406SOL     OW17114   4.388  11.439   6.314
38406SOL    HW117115   4.298  11.427   6.345
38406SOL    HW217116   4.401  11.367   6.252
38407SOL     OW17117  14.873   4.809  12.690
38407SOL    HW117118   0.005   4.803  12.785
38407SOL    HW217119  14.814   4.884  12.676
38408SOL     OW17120   3.790   5.508   5.137
38408SOL    HW117121   3.811   5.460   5.057
38408SOL    HW217122   3.821   5.597   5.120
38409SOL     OW17123   3.173   7.098   7.063
38409SOL    HW117124   3.211   7.163   7.003
38409SOL    HW217125   3.243   7.077   7.124
38410SOL     OW17126   2.846  11.196   4.713
38410SOL    HW117127   2.789  11.128   4.748
38410SOL    HW217128   2.928  11.187   4.762
38411SOL     OW17129   4.463  13.395   0.798
38411SOL    HW117130   4.539  13.418   0.851
38411SOL    HW217131   4.388  13.415   0.854
38412SOL     OW17132  14.373   1.140   6.073
38412SOL    HW117133  14.431   1.068   6.046
38412SOL    HW217134  14.377   1.139   6.168
38413SOL     OW17135  10.002   8.823   0.758
38413SOL    HW117136  10.039   8.814   0.670
38413SOL    HW217137   9.909   8.799   0.748
38414SOL     OW17138  13.849   2.186   8.315
38414SOL    HW117139  13.805   2.135   8.247
38414SOL    HW217140  13.804   2.270   8.314
38415SOL     OW17141  13.784   1.238   9.060
38415SOL    HW117142  13.718   1.258   9.126
38415SOL    HW217143  13.839   1.171   9.102
38416SOL     OW17144   9.328   2.471   4.118
38416SOL    HW117145   9.279   2.416   4.057
38416SOL    HW217146   9.332   2.421   4.199
38417SOL     OW17147   9.302  13.429  14.777
38417SOL    HW117148   9.291  13.460  14.867
38417SOL    HW217149   9.397  13.429  14.763
38418SOL     OW17150   5.782   1.868   8.564
38418SOL    HW117151   5.846   1.919   8.614
38418SOL    HW217152   5.705   1.925   8.558
38419SOL     OW17153  11.969  13.780   3.042
38419SOL    HW117154  11.980  13.874   3.028
38419SOL    HW217155  12.034  13.739   2.984
38420SOL     OW17156   3.363  13.018  12.920
38420SOL    HW117157   3.294  13.051  12.862
38420SOL    HW217158   3.322  13.014  13.006
38421SOL     OW17159   0.011   4.999   5.302
38421SOL    HW117160  14.792   4.981   5.299
38421SOL    HW217161   0.047   4.928   5.355
38422SOL     OW17162   4.532   7.301   5.728
38422SOL    HW117163   4.484   7.380   5.752
38422SOL    HW217164   4.570   7.321   5.643
38423SOL     OW17165   0.549   1.447   5.779
38423SOL    HW117166   0.607   1.482   5.712
38423SOL    HW217167   0.502   1.376   5.736
38424SOL     OW17168  12.242  10.744   9.047
38424SOL    HW117169  12.307  10.724   8.979
38424SOL    HW217170  12.293  10.786   9.116
38425SOL     OW17171  11.942   8.647   6.918
38425SOL    HW117172  11.860   8.645   6.968
38425SOL    HW217173  12.010   8.626   6.982
38426SOL     OW17174  14.862   4.530  10.468
38426SOL    HW117175  14.817   4.450  10.497
38426SOL    HW217176   0.031   4.562  10.546
38427SOL     OW17177   5.678  10.696   6.210
38427SOL    HW117178   5.671  10.774   6.265
38427SOL    HW217179   5.772  10.679   6.205
38428SOL     OW17180  11.246   7.797   9.915
38428SOL    HW117181  11.308   7.737   9.872
38428SOL    HW217182  11.161   7.754   9.906
38429SOL     OW17183   5.261   4.246   9.858
38429SOL    HW117184   5.181   4.272   9.904
38429SOL    HW217185   5.234   4.173   9.802
38430SOL     OW17186   0.825   3.948  11.045
38430SOL    HW117187   0.916   3.935  11.018
38430SOL    HW217188   0.830   4.015  11.114
38431SOL     OW17189   2.459   4.277   4.623
38431SOL    HW117190   2.364   4.281   4.611
38431SOL    HW217191   2.472   4.285   4.717
38432SOL     OW17192   3.632  11.914   0.241
38432SOL    HW117193   3.601  11.910   0.332
38432SOL    HW217194   3.717  11.870   0.244
38433SOL     OW17195   1.076   4.753  13.529
38433SOL    HW117196   1.028   4.702  13.464
38433SOL    HW217197   1.162   4.712  13.534
38434SOL     OW17198  12.546   8.979   2.030
38434SOL    HW117199  12.537   9.021   2.115
38434SOL    HW217200  12.605   9.036   1.981
38435SOL     OW17201  11.913   0.450   7.493
38435SOL    HW117202  11.824   0.477   7.471
38435SOL    HW217203  11.966   0.476   7.418
38436SOL     OW17204   0.174   9.542   9.335
38436SOL    HW117205   0.091   9.524   9.378
38436SOL    HW217206   0.212   9.615   9.385
38437SOL     OW17207   1.240  13.393  10.502
38437SOL    HW117208   1.301  13.361  10.568
38437SOL    HW217209   1.296  13.436  10.437
38438SOL     OW17210  12.213   5.548  13.030
38438SOL    HW117211  12.224   5.593  12.946
38438SOL    HW217212  12.287   5.487  13.034
38439SOL     OW17213   2.567   1.601   0.056
38439SOL    HW117214   2.565   1.688   0.015
38439SOL    HW217215   2.632   1.610   0.127
38440SOL     OW17216  12.723   4.112  13.701
38440SOL    HW117217  12.633   4.143  13.705
38440SOL    HW217218  12.725   4.057  13.623
38441SOL     OW17219   0.113  10.989  10.143
38441SOL    HW117220   0.043  10.924  10.137
38441SOL    HW217221   0.103  11.043  10.064
38442SOL     OW17222  10.999   0.923  14.869
38442SOL    HW117223  10.938   0.965  14.809
38442SOL    HW217224  11.080   0.972  14.859
38443SOL     OW17225  12.514   0.591   4.631
38443SOL    HW117226  12.537   0.499   4.644
38443SOL    HW217227  12.502   0.600   4.536
38444SOL     OW17228   3.187  11.074  10.831
38444SOL    HW117229   3.163  11.047  10.920
38444SOL    HW217230   3.155  11.164  10.824
38445SOL     OW17231   8.822   1.314   6.692
38445SOL    HW117232   8.728   1.327   6.702
38445SOL    HW217233   8.838   1.328   6.599
38446SOL     OW17234   9.709  14.830  12.203
38446SOL    HW117235   9.761  14.781  12.266
38446SOL    HW217236   9.643  14.875  12.256
38447SOL     OW17237  12.637  14.602   6.004
38447SOL    HW117238  12.651  14.508   5.994
38447SOL    HW217239  12.564  14.622   5.945
38448SOL     OW17240   2.420   8.921   9.649
38448SOL    HW117241   2.416   8.836   9.694
38448SOL    HW217242   2.457   8.981   9.714
38449SOL     OW17243   9.923   4.514   5.869
38449SOL    HW117244   9.896   4.554   5.952
38449SOL    HW217245   9.947   4.588   5.813
38450SOL     OW17246   2.528   7.907  10.570
38450SOL    HW117247   2.607   7.921  10.621
38450SOL    HW217248   2.456   7.922  10.632
38451SOL     OW17249  13.719  11.891   5.041
38451SOL    HW117250  13.709  11.899   5.136
38451SOL    HW217251  13.681  11.805   5.021
38452SOL     OW17252  11.045  13.012  10.407
38452SOL    HW117253  11.043  13.053  10.320
38452SOL    HW217254  11.000  13.074  10.464
38453SOL     OW17255   9.921   9.564   4.639
38453SOL    HW117256   9.836   9.603   4.618
38453SOL    HW217257   9.948   9.520   4.558
38454SOL     OW17258  11.705  11.361   9.601
38454SOL    HW117259  11.627  11.376   9.655
38454SOL    HW217260  11.699  11.428   9.532
38455SOL     OW17261  13.158  12.830  10.524
38455SOL    HW117262  13.092  12.898  10.522
38455SOL    HW217263  13.122  12.762  10.580
38456SOL     OW17264  12.372  12.071  13.108
38456SOL    HW117265  12.455  12.092  13.065
38456SOL    HW217266  12.320  12.150  13.100
38457SOL     OW17267  13.534   6.014   4.129
38457SOL    HW117268  13.492   6.029   4.044
38457SOL    HW217269  13.553   5.920   4.130
38458SOL     OW17270   8.580  11.732   9.665
38458SOL    HW117271   8.503  11.684   9.635
38458SOL    HW217272   8.561  11.752   9.757
38459SOL     OW17273  11.599   6.118   6.602
38459SOL    HW117274  11.586   6.167   6.683
38459SOL    HW217275  11.632   6.183   6.540
38460SOL     OW17276   8.369   4.113   5.041
38460SOL    HW117277   8.337   4.024   5.054
38460SOL    HW217278   8.458   4.112   5.076
38461SOL     OW17279   1.064   4.293   0.674
38461SOL    HW117280   1.020   4.212   0.649
38461SOL    HW217281   1.153   4.285   0.640
38462SOL     OW17282   8.248   6.409   9.016
38462SOL    HW117283   8.288   6.484   9.061
38462SOL    HW217284   8.312   6.384   8.950
38463SOL     OW17285   5.666  13.805   8.172
38463SOL    HW117286   5.629  13.892   8.188
38463SOL    HW217287   5.593  13.745   8.183
38464SOL     OW17288  12.005   7.429   5.453
38464SOL    HW117289  12.008   7.515   5.411
38464SOL    HW217290  12.059   7.374   5.397
38465SOL     OW17291   1.744   9.951   2.093
38465SOL    HW117292   1.832   9.982   2.118
38465SOL    HW217293   1.735   9.867   2.136
38466SOL     OW17294   1.509  13.617   0.734
38466SOL    HW117295   1.576  13.681   0.758
38466SOL    HW217296   1.519  13.547   0.798
38467SOL     OW17297  11.874   2.006   1.739
38467SOL    HW117298  11.782   1.983   1.734
38467SOL    HW217299  11.920   1.930   1.702
38468SOL     OW17300   5.057  11.651  11.928
38468SOL    HW117301   5.092  11.730  11.968
38468SOL    HW217302   5.134  11.594  11.916
38469SOL     OW17303   6.809   2.852  10.372
38469SOL    HW117304   6.728   2.903  10.364
38469SOL    HW217305   6.871   2.896  10.314
38470SOL     OW17306   8.220  11.238   1.267
38470SOL    HW117307   8.157  11.184   1.315
38470SOL    HW217308   8.172  11.318   1.247
38471SOL     OW17309  14.244  14.463   1.801
38471SOL    HW117310  14.301  14.529   1.841
38471SOL    HW217311  14.251  14.387   1.858
38472SOL     OW17312   4.391   6.619   9.377
38472SOL    HW117313   4.304   6.592   9.407
38472SOL    HW217314   4.395   6.713   9.398
38473SOL     OW17315  11.134   2.989  12.980
38473SOL    HW117316  11.205   3.049  12.999
38473SOL    HW217317  11.166   2.935  12.908
38474SOL     OW17318   4.124   1.344   9.383
38474SOL    HW117319   4.129   1.415   9.448
38474SOL    HW217320   4.116   1.264   9.435
38475SOL     OW17321  11.744   3.341  12.299
38475SOL    HW117322  11.698   3.329  12.382
38475SOL    HW217323  11.797   3.262  12.288
38476SOL     OW17324   4.337  13.462  12.396
38476SOL    HW117325   4.315  13.381  12.443
38476SOL    HW217326   4.287  13.530  12.440
38477SOL     OW17327   9.911   5.784   4.306
38477SOL    HW117328   9.840   5.842   4.335
38477SOL    HW217329   9.918   5.800   4.212
38478SOL     OW17330   7.547   3.757   4.601
38478SOL    HW117331   7.456   3.772   4.629
38478SOL    HW217332   7.590   3.718   4.677
38479SOL     OW17333   1.794   7.747   5.738
38479SOL    HW117334   1.716   7.694   5.722
38479SOL    HW217335   1.783   7.779   5.828
38480SOL     OW17336  11.244   9.601  10.125
38480SOL    HW117337  11.265   9.619  10.216
38480SOL    HW217338  11.263   9.683  10.079
38481SOL     OW17339   8.405   6.415   7.166
38481SOL    HW117340   8.477   6.355   7.183
38481SOL    HW217341   8.376   6.393   7.077
38482SOL     OW17342   1.661   3.776  13.537
38482SOL    HW117343   1.676   3.768  13.631
38482SOL    HW217344   1.642   3.687  13.508
38483SOL     OW17345   4.804  11.286  12.436
38483SOL    HW117346   4.811  11.274  12.341
38483SOL    HW217347   4.865  11.222  12.473
38484SOL     OW17348   4.048  13.804   8.915
38484SOL    HW117349   3.991  13.756   8.975
38484SOL    HW217350   4.001  13.804   8.831
38485SOL     OW17351   5.388  10.417   7.558
38485SOL    HW117352   5.430  10.393   7.640
38485SOL    HW217353   5.461  10.437   7.499
38486SOL     OW17354   6.962  12.216  14.242
38486SOL    HW117355   6.873  12.228  14.208
38486SOL    HW217356   7.003  12.156  14.180
38487SOL     OW17357  11.812   4.935  14.770
38487SOL    HW117358  11.833   5.024  14.742
38487SOL    HW217359  11.716   4.929  14.762
38488SOL     OW17360  11.677   1.781   6.398
38488SOL    HW117361  11.738   1.825   6.457
38488SOL    HW217362  11.646   1.705   6.448
38489SOL     OW17363   8.129   6.821   1.001
38489SOL    HW117364   8.037   6.798   0.985
38489SOL    HW217365   8.161   6.752   1.059
38490SOL     OW17366   5.552   9.607   1.372
38490SOL    HW117367   5.521   9.697   1.362
38490SOL    HW217368   5.583   9.582   1.285
38491SOL     OW17369   4.678  12.787   1.385
38491SOL    HW117370   4.659  12.864   1.331
38491SOL    HW217371   4.597  12.735   1.381
38492SOL     OW17372  11.168  12.329   1.124
38492SOL    HW117373  11.257  12.353   1.149
38492SOL    HW217374  11.145  12.393   1.056
38493SOL     OW17375   6.650   4.670  13.038
38493SOL    HW117376   6.703   4.633  13.109
38493SOL    HW217377   6.561   4.644  13.060
38494SOL     OW17378   9.970   3.289   4.026
38494SOL    HW117379  10.037   3.241   3.977
38494SOL    HW217380   9.889   3.239   4.011
38495SOL     OW17381   1.387   8.626  11.338
38495SOL    HW117382   1.347   8.541  11.359
38495SOL    HW217383   1.426   8.612  11.251
38496SOL     OW17384   6.929   4.903   7.907
38496SOL    HW117385   7.008   4.915   7.959
38496SOL    HW217386   6.940   4.961   7.832
38497SOL     OW17387   5.311   9.207  13.154
38497SOL    HW117388   5.316   9.136  13.089
38497SOL    HW217389   5.395   9.252  13.148
38498SOL     OW17390   2.160   5.021  10.180
38498SOL    HW117391   2.088   4.976  10.223
38498SOL    HW217392   2.204   4.953  10.130
38499SOL     OW17393   7.002   4.092   9.023
38499SOL    HW117394   7.033   4.130   9.105
38499SOL    HW217395   6.933   4.151   8.993
38500SOL     OW17396   5.813   4.898   5.018
38500SOL    HW117397   5.835   4.838   4.947
38500SOL    HW217398   5.783   4.978   4.974
38501SOL     OW17399  10.401   2.667   4.537
38501SOL    HW117400  10.426   2.748   4.580
38501SOL    HW217401  10.418   2.599   4.602
38502SOL     OW17402   5.827  14.337   8.042
38502SOL    HW117403   5.911  14.364   8.078
38502SOL    HW217404   5.806  14.256   8.088
38503SOL     OW17405  12.064  14.701   7.002
38503SOL    HW117406  12.011  14.629   7.036
38503SOL    HW217407  12.074  14.682   6.909
38504SOL     OW17408  11.188  12.027  10.049
38504SOL    HW117409  11.118  12.024   9.983
38504SOL    HW217410  11.240  12.104  10.025
38505SOL     OW17411   6.830  10.140   3.679
38505SOL    HW117412   6.751  10.096   3.711
38505SOL    HW217413   6.848  10.099   3.595
38506SOL     OW17414  14.732   6.444   6.396
38506SOL    HW117415  14.757   6.527   6.354
38506SOL    HW217416  14.778   6.445   6.480
38507SOL     OW17417  10.391   2.505   4.323
38507SOL    HW117418  10.464   2.534   4.268
38507SOL    HW217419  10.390   2.566   4.396
38508SOL     OW17420   2.819   1.997   1.808
38508SOL    HW117421   2.874   2.011   1.731
38508SOL    HW217422   2.734   2.034   1.783
38509SOL     OW17423   0.091   4.817   2.069
38509SOL    HW117424   0.143   4.737   2.073
38509SOL    HW217425   0.134   4.877   2.130
38510SOL     OW17426   5.362  12.171   7.389
38510SOL    HW117427   5.362  12.076   7.393
38510SOL    HW217428   5.319  12.192   7.306
38511SOL     OW17429  14.179   1.656   5.424
38511SOL    HW117430  14.274   1.664   5.415
38511SOL    HW217431  14.151   1.742   5.453
38512SOL     OW17432   7.124   6.084   2.843
38512SOL    HW117433   7.148   6.015   2.906
38512SOL    HW217434   7.156   6.052   2.759
38513SOL     OW17435  11.674   0.101   9.173
38513SOL    HW117436  11.607   0.042   9.209
38513SOL    HW217437  11.750   0.045   9.160
38514SOL     OW17438   3.631  12.511   6.840
38514SOL    HW117439   3.561  12.500   6.905
38514SOL    HW217440   3.592  12.566   6.772
38515SOL     OW17441  13.401   4.733   6.754
38515SOL    HW117442  13.401   4.643   6.785
38515SOL    HW217443  13.371   4.728   6.664
38516SOL     OW17444   9.319   7.096   9.268
38516SOL    HW117445   9.287   7.124   9.183
38516SOL    HW217446   9.317   7.000   9.264
38517SOL     OW17447  14.130   3.394   4.313
38517SOL    HW117448  14.065   3.390   4.383
38517SOL    HW217449  14.096   3.334   4.246
38518SOL     OW17450   5.921   0.386  13.076
38518SOL    HW117451   5.874   0.439  13.012
38518SOL    HW217452   5.876   0.404  13.159
38519SOL     OW17453   0.182   0.146  10.998
38519SOL    HW117454   0.213   0.079  10.936
38519SOL    HW217455   0.243   0.219  10.987
38520SOL     OW17456  10.654   7.411   0.132
38520SOL    HW117457  10.736   7.441   0.092
38520SOL    HW217458  10.668   7.422   0.226
38521SOL     OW17459  11.442  14.512   5.017
38521SOL    HW117460  11.378  14.444   4.996
38521SOL    HW217461  11.510  14.503   4.950
38522SOL     OW17462   9.052   9.580   8.498
38522SOL    HW117463   9.058   9.485   8.495
38522SOL    HW217464   9.018   9.605   8.413
38523SOL     OW17465   5.677   8.432   5.284
38523SOL    HW117466   5.678   8.454   5.191
38523SOL    HW217467   5.716   8.509   5.327
38524SOL     OW17468   9.516  14.503   4.234
38524SOL    HW117469   9.516  14.528   4.326
38524SOL    HW217470   9.561  14.575   4.189
38525SOL     OW17471   1.277   5.990  11.890
38525SOL    HW117472   1.295   5.899  11.914
38525SOL    HW217473   1.182   5.999  11.898
38526SOL     OW17474  11.374   9.669   1.960
38526SOL    HW117475  11.460   9.629   1.969
38526SOL    HW217476  11.374   9.742   2.022
38527SOL     OW17477  14.437   3.974  11.963
38527SOL    HW117478  14.505   3.968  11.896
38527SOL    HW217479  14.443   4.064  11.995
38528SOL     OW17480   0.628  12.102   4.774
38528SOL    HW117481   0.556  12.146   4.819
38528SOL    HW217482   0.705  12.124   4.828
38529SOL     OW17483  11.670   9.935   1.773
38529SOL    HW117484  11.610  10.010   1.774
38529SOL    HW217485  11.757   9.975   1.773
38530SOL     OW17486  11.555   7.840  11.331
38530SOL    HW117487  11.536   7.776  11.400
38530SOL    HW217488  11.645   7.820  11.304
38531SOL     OW17489   9.557   4.588   6.655
38531SOL    HW117490   9.601   4.604   6.738
38531SOL    HW217491   9.520   4.673   6.631
38532SOL     OW17492   3.602   6.464  12.620
38532SOL    HW117493   3.646   6.497  12.698
38532SOL    HW217494   3.546   6.536  12.591
38533SOL     OW17495  11.885   2.028   5.758
38533SOL    HW117496  11.902   2.122   5.755
38533SOL    HW217497  11.968   1.990   5.788
38534SOL     OW17498   9.681   2.068   8.484
38534SOL    HW117499   9.643   2.144   8.441
38534SOL    HW217500   9.633   1.993   8.448
38535SOL     OW17501  13.830   3.574  11.973
38535SOL    HW117502  13.857   3.547  12.061
38535SOL    HW217503  13.867   3.508  11.915
38536SOL     OW17504   9.780   8.499   3.051
38536SOL    HW117505   9.741   8.418   3.019
38536SOL    HW217506   9.746   8.508   3.140
38537SOL     OW17507  13.918   4.061   0.036
38537SOL    HW117508  13.870   3.981   0.058
38537SOL    HW217509  13.861   4.132   0.066
38538SOL     OW17510   5.850   2.438   5.207
38538SOL    HW117511   5.928   2.450   5.153
38538SOL    HW217512   5.877   2.376   5.275
38539SOL     OW17513  13.029   7.232   5.274
38539SOL    HW117514  13.014   7.164   5.340
38539SOL    HW217515  12.977   7.204   5.199
38540SOL     OW17516   8.771   1.027  11.151
38540SOL    HW117517   8.746   1.111  11.112
38540SOL    HW217518   8.740   1.032  11.241
38541SOL     OW17519   9.511   0.187   4.734
38541SOL    HW117520   9.476   0.272   4.705
38541SOL    HW217521   9.451   0.159   4.803
38542SOL     OW17522   8.098   1.023   8.315
38542SOL    HW117523   8.130   0.937   8.342
38542SOL    HW217524   8.145   1.041   8.234
38543SOL     OW17525  14.803   3.691   7.875
38543SOL    HW117526  14.797   3.666   7.783
38543SOL    HW217527  14.848   3.617   7.916
38544SOL     OW17528  13.412   2.588   9.827
38544SOL    HW117529  13.505   2.564   9.821
38544SOL    HW217530  13.384   2.552   9.911
38545SOL     OW17531  13.486   5.924  12.946
38545SOL    HW117532  13.538   5.898  12.869
38545SOL    HW217533  13.411   5.969  12.909
38546SOL     OW17534   0.677   5.358   4.754
38546SOL    HW117535   0.640   5.281   4.711
38546SOL    HW217536   0.685   5.423   4.683
38547SOL     OW17537   9.972  13.463   0.744
38547SOL    HW117538   9.959  13.441   0.837
38547SOL    HW217539   9.884  13.486   0.713
38548SOL     OW17540  10.588  13.507   0.142
38548SOL    HW117541  10.546  13.546   0.218
38548SOL    HW217542  10.530  13.435   0.117
38549SOL     OW17543  12.007   6.685   5.554
38549SOL    HW117544  12.020   6.600   5.512
38549SOL    HW217545  11.976   6.664   5.642
38550SOL     OW17546  11.120   1.799   0.548
38550SOL    HW117547  11.065   1.809   0.469
38550SOL    HW217548  11.133   1.705   0.556
38551SOL     OW17549   8.258   0.450  13.652
38551SOL    HW117550   8.263   0.469  13.745
38551SOL    HW217551   8.274   0.534  13.609
38552SOL     OW17552   0.358   0.910  11.653
38552SOL    HW117553   0.326   0.965  11.725
38552SOL    HW217554   0.320   0.950  11.574
38553SOL     OW17555   9.244   8.766   4.567
38553SOL    HW117556   9.315   8.731   4.621
38553SOL    HW217557   9.276   8.851   4.538
38554SOL     OW17558   5.783  13.249   7.784
38554SOL    HW117559   5.787  13.338   7.821
38554SOL    HW217560   5.726  13.258   7.708
38555SOL     OW17561   7.175   2.515   1.528
38555SOL    HW117562   7.221   2.592   1.560
38555SOL    HW217563   7.132   2.478   1.605
38556SOL     OW17564   6.646   5.246   1.104
38556SOL    HW117565   6.559   5.265   1.068
38556SOL    HW217566   6.633   5.170   1.161
38557SOL     OW17567   2.583   4.625   3.593
38557SOL    HW117568   2.519   4.554   3.600
38557SOL    HW217569   2.659   4.593   3.643
38558SOL     OW17570   5.050   0.747   0.288
38558SOL    HW117571   4.998   0.794   0.223
38558SOL    HW217572   5.113   0.812   0.319
38559SOL     OW17573  10.125   4.056   5.365
38559SOL    HW117574  10.062   3.990   5.337
38559SOL    HW217575  10.100   4.135   5.318
38560SOL     OW17576   3.580  13.859   9.316
38560SOL    HW117577   3.628  13.939   9.336
38560SOL    HW217578   3.615  13.794   9.378
38561SOL     OW17579   3.099   7.724  14.181
38561SOL    HW117580   3.117   7.631  14.192
38561SOL    HW217581   3.156   7.751  14.109
38562SOL     OW17582   8.521   8.438   4.215
38562SOL    HW117583   8.471   8.395   4.145
38562SOL    HW217584   8.547   8.522   4.178
38563SOL     OW17585  10.979   7.527   5.396
38563SOL    HW117586  11.047   7.504   5.332
38563SOL    HW217587  11.000   7.473   5.473
38564SOL     OW17588   4.299  11.498   5.554
38564SOL    HW117589   4.337  11.564   5.613
38564SOL    HW217590   4.372  11.471   5.498
38565SOL     OW17591   6.687  11.451  14.650
38565SOL    HW117592   6.664  11.451  14.557
38565SOL    HW217593   6.619  11.397  14.691
38566SOL     OW17594   1.168   5.820   0.261
38566SOL    HW117595   1.263   5.809   0.273
38566SOL    HW217596   1.134   5.731   0.257
38567SOL     OW17597   9.820   4.412   3.301
38567SOL    HW117598   9.864   4.388   3.382
38567SOL    HW217599   9.798   4.328   3.260
38568SOL     OW17600  11.831  12.440   4.539
38568SOL    HW117601  11.886  12.480   4.606
38568SOL    HW217602  11.890  12.427   4.465
38569SOL     OW17603   7.192   1.860   7.564
38569SOL    HW117604   7.193   1.766   7.583
38569SOL    HW217605   7.256   1.871   7.494
38570SOL     OW17606   8.553  10.179   3.347
38570SOL    HW117607   8.498  10.253   3.322
38570SOL    HW217608   8.493  10.104   3.348
38571SOL     OW17609  11.271   2.665  14.847
38571SOL    HW117610  11.182   2.639  14.870
38571SOL    HW217611  11.263   2.703  14.760
38572SOL     OW17612   4.910   3.708   4.824
38572SOL    HW117613   5.005   3.723   4.817
38572SOL    HW217614   4.871   3.788   4.787
38573SOL     OW17615  12.775   5.176  14.584
38573SOL    HW117616  12.855   5.145  14.627
38573SOL    HW217617  12.798   5.181  14.491
38574SOL     OW17618   1.861   5.806   7.395
38574SOL    HW117619   1.808   5.760   7.461
38574SOL    HW217620   1.891   5.737   7.336
38575SOL     OW17621   2.257   4.840   0.261
38575SOL    HW117622   2.318   4.831   0.334
38575SOL    HW217623   2.286   4.775   0.197
38576SOL     OW17624   3.502   0.299  13.133
38576SOL    HW117625   3.409   0.279  13.144
38576SOL    HW217626   3.526   0.344  13.215
38577SOL     OW17627   6.530   2.083   0.442
38577SOL    HW117628   6.613   2.128   0.424
38577SOL    HW217629   6.545   2.039   0.526
38578SOL     OW17630   2.742   1.673   1.282
38578SOL    HW117631   2.759   1.718   1.365
38578SOL    HW217632   2.800   1.597   1.284
38579SOL     OW17633   0.354   1.911   4.739
38579SOL    HW117634   0.367   1.922   4.645
38579SOL    HW217635   0.341   1.999   4.772
38580SOL     OW17636   2.977   1.047  13.453
38580SOL    HW117637   2.896   1.071  13.407
38580SOL    HW217638   2.948   0.998  13.530
38581SOL     OW17639  13.648   4.717  11.011
38581SOL    HW117640  13.562   4.759  11.010
38581SOL    HW217641  13.634   4.632  10.969
38582SOL     OW17642  10.881   7.439  12.902
38582SOL    HW117643  10.884   7.429  12.998
38582SOL    HW217644  10.822   7.369  12.873
38583SOL     OW17645   2.236   6.289   1.046
38583SOL    HW117646   2.292   6.246   1.110
38583SOL    HW217647   2.294   6.308   0.972
38584SOL     OW17648  11.684   6.403   2.607
38584SOL    HW117649  11.771   6.415   2.645
38584SOL    HW217650  11.681   6.310   2.584
38585SOL     OW17651   0.964   0.083   2.783
38585SOL    HW117652   1.002   0.150   2.725
38585SOL    HW217653   0.870   0.087   2.765
38586SOL     OW17654  13.759   4.906   5.518
38586SOL    HW117655  13.727   4.817   5.504
38586SOL    HW217656  13.853   4.902   5.498
38587SOL     OW17657   7.850   4.227  12.666
38587SOL    HW117658   7.932   4.179  12.657
38587SOL    HW217659   7.783   4.168  12.631
38588SOL     OW17660   4.281   9.007   1.288
38588SOL    HW117661   4.239   8.926   1.316
38588SOL    HW217662   4.275   9.065   1.365
38589SOL     OW17663   7.842  13.348   9.937
38589SOL    HW117664   7.752  13.376   9.919
38589SOL    HW217665   7.895  13.395   9.872
38590SOL     OW17666   3.451   4.693  13.669
38590SOL    HW117667   3.379   4.651  13.622
38590SOL    HW217668   3.409   4.739  13.742
38591SOL     OW17669   5.927   7.058  10.479
38591SOL    HW117670   5.996   7.038  10.416
38591SOL    HW217671   5.937   6.992  10.548
38592SOL     OW17672   3.798  11.830   1.275
38592SOL    HW117673   3.704  11.839   1.289
38592SOL    HW217674   3.808  11.746   1.230
38593SOL     OW17675   8.834   7.592  13.660
38593SOL    HW117676   8.756   7.563  13.706
38593SOL    HW217677   8.887   7.635  13.727
38594SOL     OW17678  12.410   5.691   0.686
38594SOL    HW117679  12.325   5.734   0.680
38594SOL    HW217680  12.406   5.642   0.768
38595SOL     OW17681   6.947  12.686  14.100
38595SOL    HW117682   7.031  12.666  14.142
38595SOL    HW217683   6.957  12.653  14.011
38596SOL     OW17684  14.239  10.055   3.265
38596SOL    HW117685  14.333  10.054   3.248
38596SOL    HW217686  14.219  10.147   3.282
38597SOL     OW17687   1.123   5.980   6.907
38597SOL    HW117688   1.197   5.923   6.889
38597SOL    HW217689   1.070   5.932   6.971
38598SOL     OW17690   7.280   9.383   8.725
38598SOL    HW117691   7.371   9.405   8.705
38598SOL    HW217692   7.286   9.316   8.793
38599SOL     OW17693   7.906   2.758  10.964
38599SOL    HW117694   7.992   2.719  10.950
38599SOL    HW217695   7.871   2.712  11.041
38600SOL     OW17696  12.847   5.799   2.865
38600SOL    HW117697  12.822   5.805   2.773
38600SOL    HW217698  12.872   5.888   2.890
38601SOL     OW17699   9.492   1.570  12.700
38601SOL    HW117700   9.575   1.524  12.693
38601SOL    HW217701   9.516   1.663  12.702
38602SOL     OW17702   1.412  11.642  12.070
38602SOL    HW117703   1.388  11.681  11.985
38602SOL    HW217704   1.427  11.717  12.127
38603SOL     OW17705   8.835   8.064   9.863
38603SOL    HW117706   8.761   8.114   9.897
38603SOL    HW217707   8.869   8.118   9.791
38604SOL     OW17708   7.736  12.820   1.265
38604SOL    HW117709   7.672  12.773   1.318
38604SOL    HW217710   7.689  12.844   1.185
38605SOL     OW17711   2.745   4.866  13.564
38605SOL    HW117712   2.675   4.864  13.629
38605SOL    HW217713   2.733   4.948  13.517
38606SOL     OW17714   5.244  13.924   7.320
38606SOL    HW117715   5.213  13.938   7.231
38606SOL    HW217716   5.173  13.876   7.364
38607SOL     OW17717   1.422  12.328   3.438
38607SOL    HW117718   1.483  12.398   3.414
38607SOL    HW217719   1.361  12.324   3.365
38608SOL     OW17720   5.836   4.193   8.018
38608SOL    HW117721   5.891   4.272   8.021
38608SOL    HW217722   5.819   4.179   7.925
38609SOL     OW17723  12.884   8.605   1.958
38609SOL    HW117724  12.876   8.581   1.865
38609SOL    HW217725  12.796   8.634   1.982
38610SOL     OW17726   5.166   8.883   1.877
38610SOL    HW117727   5.191   8.791   1.867
38610SOL    HW217728   5.071   8.884   1.871
38611SOL     OW17729   8.049   7.782  13.617
38611SOL    HW117730   8.006   7.716  13.670
38611SOL    HW217731   8.096   7.837  13.680
38612SOL     OW17732   7.820   8.861   1.202
38612SOL    HW117733   7.836   8.833   1.112
38612SOL    HW217734   7.839   8.955   1.203
38613SOL     OW17735   3.419  14.501   2.397
38613SOL    HW117736   3.424  14.466   2.307
38613SOL    HW217737   3.352  14.569   2.392
38614SOL     OW17738   2.299   8.642  14.795
38614SOL    HW117739   2.380   8.596  14.773
38614SOL    HW217740   2.326   8.707  14.860
38615SOL     OW17741   5.116   8.574   7.818
38615SOL    HW117742   5.141   8.499   7.873
38615SOL    HW217743   5.044   8.541   7.765
38616SOL     OW17744   7.269   1.346   3.702
38616SOL    HW117745   7.225   1.282   3.758
38616SOL    HW217746   7.351   1.365   3.748
38617SOL     OW17747  11.592   6.878  12.634
38617SOL    HW117748  11.501   6.857  12.611
38617SOL    HW217749  11.586   6.916  12.722
38618SOL     OW17750   5.237   1.455   5.927
38618SOL    HW117751   5.325   1.419   5.921
38618SOL    HW217752   5.231   1.516   5.853
38619SOL     OW17753  11.569   0.903  10.296
38619SOL    HW117754  11.567   0.907  10.200
38619SOL    HW217755  11.589   0.811  10.316
38620SOL     OW17756   6.441  14.170  12.714
38620SOL    HW117757   6.416  14.260  12.695
38620SOL    HW217758   6.448  14.128  12.628
38621SOL     OW17759  12.304   3.445   4.119
38621SOL    HW117760  12.343   3.502   4.186
38621SOL    HW217761  12.264   3.374   4.169
38622SOL     OW17762   2.374   2.857   1.770
38622SOL    HW117763   2.369   2.875   1.864
38622SOL    HW217764   2.467   2.867   1.749
38623SOL     OW17765   0.804   1.149  13.538
38623SOL    HW117766   0.750   1.111  13.468
38623SOL    HW217767   0.766   1.114  13.618
38624SOL     OW17768  11.894   6.204   4.225
38624SOL    HW117769  11.868   6.290   4.192
38624SOL    HW217770  11.862   6.202   4.315
38625SOL     OW17771  12.957   7.176   7.879
38625SOL    HW117772  13.007   7.099   7.854
38625SOL    HW217773  12.984   7.193   7.970
38626SOL     OW17774  11.692   5.100   1.050
38626SOL    HW117775  11.764   5.132   1.104
38626SOL    HW217776  11.735   5.054   0.978
38627SOL     OW17777  11.918   2.750   1.277
38627SOL    HW117778  11.975   2.702   1.336
38627SOL    HW217779  11.909   2.836   1.317
38628SOL     OW17780   1.920   5.179   2.822
38628SOL    HW117781   1.838   5.183   2.772
38628SOL    HW217782   1.926   5.088   2.850
38629SOL     OW17783  13.189   6.239   9.711
38629SOL    HW117784  13.156   6.217   9.624
38629SOL    HW217785  13.168   6.163   9.765
38630SOL     OW17786  11.298   7.747   0.599
38630SOL    HW117787  11.376   7.692   0.612
38630SOL    HW217788  11.318   7.798   0.520
38631SOL     OW17789  12.062  11.334   8.606
38631SOL    HW117790  11.985  11.294   8.567
38631SOL    HW217791  12.044  11.428   8.605
38632SOL     OW17792  13.940  14.541   1.981
38632SOL    HW117793  13.929  14.455   1.941
38632SOL    HW217794  13.850  14.572   1.997
38633SOL     OW17795   6.969  12.924   5.059
38633SOL    HW117796   6.931  12.921   5.146
38633SOL    HW217797   7.057  12.960   5.072
38634SOL     OW17798   1.883   9.453   2.039
38634SOL    HW117799   1.899   9.543   2.066
38634SOL    HW217800   1.799   9.430   2.080
38635SOL     OW17801   2.096   3.085   9.617
38635SOL    HW117802   2.064   2.996   9.607
38635SOL    HW217803   2.186   3.075   9.648
38636SOL     OW17804   1.187   6.906   8.330
38636SOL    HW117805   1.166   6.887   8.421
38636SOL    HW217806   1.282   6.900   8.325
38637SOL     OW17807  11.302   4.313   8.979
38637SOL    HW117808  11.206   4.313   8.969
38637SOL    HW217809  11.315   4.332   9.072
38638SOL     OW17810   4.351   6.743   4.850
38638SOL    HW117811   4.356   6.786   4.935
38638SOL    HW217812   4.324   6.653   4.869
38639SOL     OW17813   4.308   8.281   1.004
38639SOL    HW117814   4.310   8.339   1.080
38639SOL    HW217815   4.245   8.213   1.026
38640SOL     OW17816   3.537   5.086   3.399
38640SOL    HW117817   3.590   5.082   3.319
38640SOL    HW217818   3.461   5.139   3.375
38641SOL     OW17819   3.450   4.170   5.187
38641SOL    HW117820   3.414   4.109   5.122
38641SOL    HW217821   3.435   4.256   5.149
38642SOL     OW17822   0.271   6.491  10.471
38642SOL    HW117823   0.209   6.425  10.502
38642SOL    HW217824   0.217   6.552  10.420
38643SOL     OW17825  13.947   4.739  10.015
38643SOL    HW117826  14.024   4.711  10.063
38643SOL    HW217827  13.904   4.803  10.072
38644SOL     OW17828   9.119  12.973  11.400
38644SOL    HW117829   9.118  12.879  11.380
38644SOL    HW217830   9.210  12.992  11.422
38645SOL     OW17831  11.921  13.107   7.233
38645SOL    HW117832  12.000  13.086   7.183
38645SOL    HW217833  11.948  13.099   7.324
38646SOL     OW17834  12.676   7.382  12.991
38646SOL    HW117835  12.756   7.424  13.023
38646SOL    HW217836  12.700   7.289  12.981
38647SOL     OW17837   5.913   4.801  10.130
38647SOL    HW117838   5.942   4.849  10.208
38647SOL    HW217839   5.970   4.831  10.060
38648SOL     OW17840   4.981   5.629   2.983
38648SOL    HW117841   5.024   5.670   2.908
38648SOL    HW217842   4.924   5.563   2.944
38649SOL     OW17843   3.010  11.784   4.811
38649SOL    HW117844   3.091  11.764   4.856
38649SOL    HW217845   3.036  11.841   4.739
38650SOL     OW17846   0.232   5.859   3.863
38650SOL    HW117847   0.237   5.945   3.906
38650SOL    HW217848   0.309   5.812   3.894
38651SOL     OW17849   3.229   7.988   3.425
38651SOL    HW117850   3.142   8.024   3.441
38651SOL    HW217851   3.214   7.894   3.411
38652SOL     OW17852  10.484  14.065   8.714
38652SOL    HW117853  10.402  14.065   8.664
38652SOL    HW217854  10.549  14.029   8.654
38653SOL     OW17855   1.846  13.343  11.227
38653SOL    HW117856   1.851  13.429  11.185
38653SOL    HW217857   1.762  13.343  11.272
38654SOL     OW17858  12.740  10.255   1.895
38654SOL    HW117859  12.826  10.226   1.863
38654SOL    HW217860  12.683  10.180   1.882
38655SOL     OW17861   3.861  11.307   5.145
38655SOL    HW117862   3.841  11.214   5.150
38655SOL    HW217863   3.921  11.314   5.070
38656SOL     OW17864  14.017   6.471   3.989
38656SOL    HW117865  14.043   6.460   3.898
38656SOL    HW217866  14.080   6.534   4.024
38657SOL     OW17867  13.968   4.796   2.285
38657SOL    HW117868  13.882   4.763   2.309
38657SOL    HW217869  14.002   4.732   2.222
38658SOL     OW17870   8.423   4.636  11.963
38658SOL    HW117871   8.331   4.657  11.948
38658SOL    HW217872   8.471   4.695  11.905
38659SOL     OW17873   9.800   8.529   0.442
38659SOL    HW117874   9.733   8.574   0.493
38659SOL    HW217875   9.882   8.552   0.486
38660SOL     OW17876  13.857  10.405   8.193
38660SOL    HW117877  13.852  10.328   8.137
38660SOL    HW217878  13.770  10.444   8.188
38661SOL     OW17879   6.937   6.249   5.332
38661SOL    HW117880   7.033   6.242   5.330
38661SOL    HW217881   6.907   6.159   5.342
38662SOL     OW17882  11.136  11.128   1.663
38662SOL    HW117883  11.213  11.124   1.719
38662SOL    HW217884  11.157  11.071   1.589
38663SOL     OW17885   7.672  13.522   1.897
38663SOL    HW117886   7.585  13.519   1.937
38663SOL    HW217887   7.677  13.442   1.844
38664SOL     OW17888   9.664   6.167  12.499
38664SOL    HW117889   9.732   6.151  12.433
38664SOL    HW217890   9.712   6.194  12.577
38665SOL     OW17891  12.714   3.598   7.197
38665SOL    HW117892  12.760   3.565   7.120
38665SOL    HW217893  12.772   3.665   7.233
38666SOL     OW17894  14.738   8.781   6.481
38666SOL    HW117895  14.799   8.841   6.523
38666SOL    HW217896  14.701   8.730   6.553
38667SOL     OW17897   9.974   5.612   0.342
38667SOL    HW117898  10.017   5.697   0.342
38667SOL    HW217899  10.036   5.552   0.384
38668SOL     OW17900  10.792  11.484   3.955
38668SOL    HW117901  10.830  11.534   3.882
38668SOL    HW217902  10.822  11.394   3.941
38669SOL     OW17903   6.466  13.310   0.864
38669SOL    HW117904   6.426  13.298   0.777
38669SOL    HW217905   6.441  13.398   0.890
38670SOL     OW17906   7.063   3.528   7.313
38670SOL    HW117907   7.127   3.510   7.382
38670SOL    HW217908   7.108   3.588   7.254
38671SOL     OW17909   7.958   2.257   7.985
38671SOL    HW117910   8.045   2.297   7.986
38671SOL    HW217911   7.949   2.221   7.897
38672SOL     OW17912  12.105   9.578   8.947
38672SOL    HW117913  12.058   9.498   8.972
38672SOL    HW217914  12.036   9.643   8.939
38673SOL     OW17915  13.886  12.455   8.198
38673SOL    HW117916  13.926  12.468   8.112
38673SOL    HW217917  13.956  12.473   8.260
38674SOL     OW17918   5.111   4.048   0.526
38674SOL    HW117919   5.108   3.997   0.607
38674SOL    HW217920   5.201   4.081   0.522
38675SOL     OW17921   0.778  12.557   6.907
38675SOL    HW117922   0.866  12.579   6.876
38675SOL    HW217923   0.722  12.627   6.873
38676SOL     OW17924   7.860   8.484   3.787
38676SOL    HW117925   7.938   8.462   3.736
38676SOL    HW217926   7.838   8.573   3.761
38677SOL     OW17927  10.865   8.509   2.124
38677SOL    HW117928  10.933   8.479   2.064
38677SOL    HW217929  10.796   8.444   2.117
38678SOL     OW17930   0.169   6.544   6.757
38678SOL    HW117931   0.203   6.522   6.844
38678SOL    HW217932   0.217   6.486   6.698
38679SOL     OW17933   0.132  12.688   3.501
38679SOL    HW117934   0.057  12.744   3.521
38679SOL    HW217935   0.113  12.605   3.545
38680SOL     OW17936   8.888   0.260   4.909
38680SOL    HW117937   8.901   0.169   4.882
38680SOL    HW217938   8.823   0.294   4.847
38681SOL     OW17939   1.905   3.907  14.128
38681SOL    HW117940   1.954   3.986  14.106
38681SOL    HW217941   1.967   3.835  14.118
38682SOL     OW17942  14.734  14.448   0.596
38682SOL    HW117943  14.721  14.360   0.631
38682SOL    HW217944  14.687  14.449   0.513
38683SOL     OW17945   3.841   5.340   7.800
38683SOL    HW117946   3.750   5.371   7.807
38683SOL    HW217947   3.838   5.273   7.732
38684SOL     OW17948   9.833  10.198   9.988
38684SOL    HW117949   9.833  10.282   9.942
38684SOL    HW217950   9.843  10.133   9.919
38685SOL     OW17951  12.522  12.063   1.845
38685SOL    HW117952  12.466  12.104   1.910
38685SOL    HW217953  12.593  12.022   1.895
38686SOL     OW17954   2.762   7.814  14.248
38686SOL    HW117955   2.716   7.875  14.191
38686SOL    HW217956   2.852   7.815  14.217
38687SOL     OW17957  13.866  10.704   3.336
38687SOL    HW117958  13.953  10.691   3.375
38687SOL    HW217959  13.836  10.788   3.371
38688SOL     OW17960   7.782   1.617  14.162
38688SOL    HW117961   7.735   1.594  14.242
38688SOL    HW217962   7.724   1.679  14.117
38689SOL     OW17963   5.231   4.276   6.826
38689SOL    HW117964   5.210   4.185   6.806
38689SOL    HW217965   5.181   4.326   6.761
38690SOL     OW17966   2.415  14.081   1.755
38690SOL    HW117967   2.386  14.150   1.815
38690SOL    HW217968   2.475  14.125   1.695
38691SOL     OW17969  13.252  12.976   8.431
38691SOL    HW117970  13.345  12.996   8.439
38691SOL    HW217971  13.245  12.884   8.458
38692SOL     OW17972   5.514  11.360   5.806
38692SOL    HW117973   5.608  11.366   5.787
38692SOL    HW217974   5.496  11.266   5.806
38693SOL     OW17975  13.429   6.416  10.776
38693SOL    HW117976  13.453   6.411  10.683
38693SOL    HW217977  13.411   6.325  10.801
38694SOL     OW17978   4.643  12.723   8.649
38694SOL    HW117979   4.670  12.746   8.738
38694SOL    HW217980   4.548  12.735   8.649
38695SOL     OW17981  10.871   3.101  14.503
38695SOL    HW117982  10.868   3.164  14.431
38695SOL    HW217983  10.782   3.064  14.505
38696SOL     OW17984   4.401  12.828  10.850
38696SOL    HW117985   4.465  12.840  10.780
38696SOL    HW217986   4.453  12.808  10.927
38697SOL     OW17987  11.529   3.165   8.443
38697SOL    HW117988  11.511   3.102   8.512
38697SOL    HW217989  11.502   3.121   8.362
38698SOL     OW17990   1.892   8.703   2.987
38698SOL    HW117991   1.834   8.712   2.912
38698SOL    HW217992   1.898   8.791   3.023
38699SOL     OW17993  11.419   9.861  10.397
38699SOL    HW117994  11.460   9.909  10.470
38699SOL    HW217995  11.361   9.925  10.357
38700SOL     OW17996  14.437   8.032   0.235
38700SOL    HW117997  14.349   8.003   0.209
38700SOL    HW217998  14.428   8.127   0.246
38701SOL     OW17999   5.309   4.315   5.134
38701SOL    HW118000   5.343   4.234   5.096
38701SOL    HW218001   5.386   4.372   5.141
38702SOL     OW18002   2.155   8.269   2.343
38702SOL    HW118003   2.168   8.263   2.437
38702SOL    HW218004   2.106   8.190   2.320
38703SOL     OW18005  13.383   2.562  14.187
38703SOL    HW118006  13.312   2.626  14.196
38703SOL    HW218007  13.454   2.611  14.145
38704SOL     OW18008   0.068   1.321  11.398
38704SOL    HW118009   0.060   1.414  11.377
38704SOL    HW218010   0.148   1.315  11.451
38705SOL     OW18011   0.490   4.405  11.314
38705SOL    HW118012   0.449   4.329  11.271
38705SOL    HW218013   0.495   4.471  11.245
38706SOL     OW18014  10.952  14.245   5.646
38706SOL    HW118015  10.956  14.150   5.654
38706SOL    HW218016  10.961  14.262   5.552
38707SOL     OW18017   3.577   0.908   0.772
38707SOL    HW118018   3.552   0.900   0.680
38707SOL    HW218019   3.494   0.924   0.818
38708SOL     OW18020   5.944   5.212   9.770
38708SOL    HW118021   5.954   5.300   9.735
38708SOL    HW218022   6.011   5.160   9.725
38709SOL     OW18023   3.451   7.654   0.938
38709SOL    HW118024   3.388   7.589   0.969
38709SOL    HW218025   3.536   7.616   0.958
38710SOL     OW18026  10.498   4.062   3.789
38710SOL    HW118027  10.549   4.142   3.804
38710SOL    HW218028  10.555   4.007   3.735
38711SOL     OW18029  10.653   3.498  14.264
38711SOL    HW118030  10.653   3.405  14.243
38711SOL    HW218031  10.612   3.503  14.350
38712SOL     OW18032   4.693  13.458   1.735
38712SOL    HW118033   4.673  13.364   1.731
38712SOL    HW218034   4.783  13.465   1.703
38713SOL     OW18035   2.826   3.751   0.226
38713SOL    HW118036   2.822   3.716   0.315
38713SOL    HW218037   2.784   3.837   0.232
38714SOL     OW18038  11.796  10.339  10.820
38714SOL    HW118039  11.883  10.378  10.824
38714SOL    HW218040  11.752  10.387  10.750
38715SOL     OW18041  11.601  14.489   5.268
38715SOL    HW118042  11.586  14.410   5.320
38715SOL    HW218043  11.542  14.480   5.193
38716SOL     OW18044  13.425   8.902   1.462
38716SOL    HW118045  13.427   8.878   1.554
38716SOL    HW218046  13.334   8.891   1.436
38717SOL     OW18047   2.159   0.225   7.200
38717SOL    HW118048   2.184   0.153   7.258
38717SOL    HW218049   2.127   0.181   7.121
38718SOL     OW18050   2.072   0.768   7.675
38718SOL    HW118051   2.056   0.801   7.586
38718SOL    HW218052   2.074   0.673   7.665
38719SOL     OW18053   5.954  12.902   6.153
38719SOL    HW118054   5.900  12.957   6.096
38719SOL    HW218055   5.935  12.812   6.125
38720SOL     OW18056   3.291  12.756   7.104
38720SOL    HW118057   3.279  12.839   7.059
38720SOL    HW218058   3.386  12.746   7.113
38721SOL     OW18059   6.026   5.697  13.658
38721SOL    HW118060   5.944   5.710  13.610
38721SOL    HW218061   6.033   5.602  13.667
38722SOL     OW18062  14.561  11.614   9.333
38722SOL    HW118063  14.535  11.611   9.425
38722SOL    HW218064  14.532  11.700   9.303
38723SOL     OW18065   9.275   9.793   3.026
38723SOL    HW118066   9.197   9.847   3.038
38723SOL    HW218067   9.243   9.711   2.989
38724SOL     OW18068  11.128  12.544   4.580
38724SOL    HW118069  11.207  12.597   4.575
38724SOL    HW218070  11.105  12.543   4.673
38725SOL     OW18071  12.283   6.931   1.134
38725SOL    HW118072  12.192   6.923   1.105
38725SOL    HW218073  12.293   6.863   1.200
38726SOL     OW18074   7.856  14.358   7.075
38726SOL    HW118075   7.843  14.308   7.156
38726SOL    HW218076   7.938  14.325   7.039
38727SOL     OW18077   7.656   2.766   4.491
38727SOL    HW118078   7.736   2.796   4.449
38727SOL    HW218079   7.660   2.670   4.487
38728SOL     OW18080  12.423   9.223   8.272
38728SOL    HW118081  12.504   9.219   8.322
38728SOL    HW218082  12.400   9.132   8.256
38729SOL     OW18083  10.379   4.028   0.172
38729SOL    HW118084  10.319   4.037   0.246
38729SOL    HW218085  10.424   4.112   0.167
38730SOL     OW18086   4.460   3.382   0.602
38730SOL    HW118087   4.469   3.368   0.697
38730SOL    HW218088   4.527   3.447   0.581
38731SOL     OW18089   6.610  14.038   4.750
38731SOL    HW118090   6.563  13.955   4.758
38731SOL    HW218091   6.587  14.086   4.830
38732SOL     OW18092  13.819   7.204   0.897
38732SOL    HW118093  13.755   7.133   0.893
38732SOL    HW218094  13.848   7.205   0.989
38733SOL     OW18095   7.099   1.235   8.514
38733SOL    HW118096   7.193   1.253   8.510
38733SOL    HW218097   7.070   1.241   8.423
38734SOL     OW18098   7.519   4.311   9.088
38734SOL    HW118099   7.584   4.338   9.024
38734SOL    HW218100   7.509   4.217   9.074
38735SOL     OW18101   7.824   4.964  13.503
38735SOL    HW118102   7.766   4.892  13.528
38735SOL    HW218103   7.765   5.030  13.466
38736SOL     OW18104   1.785   0.579  11.653
38736SOL    HW118105   1.755   0.517  11.587
38736SOL    HW218106   1.708   0.597  11.707
38737SOL     OW18107  12.327   2.217  10.504
38737SOL    HW118108  12.295   2.131  10.530
38737SOL    HW218109  12.422   2.204  10.493
38738SOL     OW18110   8.323   8.577  11.238
38738SOL    HW118111   8.310   8.630  11.160
38738SOL    HW218112   8.330   8.641  11.310
38739SOL     OW18113   2.353   4.912   3.077
38739SOL    HW118114   2.360   4.911   3.173
38739SOL    HW218115   2.277   4.969   3.060
38740SOL     OW18116  10.115  11.766   8.652
38740SOL    HW118117  10.113  11.848   8.700
38740SOL    HW218118  10.200  11.766   8.607
38741SOL     OW18119   8.976   4.677   0.309
38741SOL    HW118120   8.993   4.644   0.221
38741SOL    HW218121   8.883   4.658   0.324
38742SOL     OW18122   9.021   4.878   0.063
38742SOL    HW118123   8.974   4.891   0.145
38742SOL    HW218124   9.108   4.915   0.078
38743SOL     OW18125   3.256   1.574   3.209
38743SOL    HW118126   3.218   1.626   3.280
38743SOL    HW218127   3.292   1.497   3.253
38744SOL     OW18128  10.501  14.220   1.050
38744SOL    HW118129  10.494  14.280   0.976
38744SOL    HW218130  10.594  14.224   1.075
38745SOL     OW18131   1.051  10.277  11.387
38745SOL    HW118132   0.973  10.239  11.428
38745SOL    HW218133   1.104  10.202  11.360
38746SOL     OW18134   4.908  10.487   7.083
38746SOL    HW118135   4.913  10.536   7.001
38746SOL    HW218136   4.884  10.552   7.149
38747SOL     OW18137   1.377   2.984   0.304
38747SOL    HW118138   1.441   2.996   0.373
38747SOL    HW218139   1.389   2.894   0.275
38748SOL     OW18140   1.974  10.446   2.155
38748SOL    HW118141   1.991  10.540   2.161
38748SOL    HW218142   2.053  10.410   2.114
38749SOL     OW18143   8.548   1.948   3.523
38749SOL    HW118144   8.640   1.968   3.538
38749SOL    HW218145   8.514   2.023   3.474
38750SOL     OW18146   6.692   4.765   0.529
38750SOL    HW118147   6.763   4.701   0.531
38750SOL    HW218148   6.633   4.737   0.600
38751SOL     OW18149  11.236   5.758   0.026
38751SOL    HW118150  11.309   5.766   0.087
38751SOL    HW218151  11.237   5.666  14.873
38752SOL     OW18152   2.437  12.163   3.855
38752SOL    HW118153   2.356  12.206   3.879
38752SOL    HW218154   2.490  12.164   3.935
38753SOL     OW18155   7.044  14.304   1.442
38753SOL    HW118156   6.998  14.221   1.429
38753SOL    HW218157   7.064  14.335   1.354
38754SOL     OW18158  14.451   1.835  11.255
38754SOL    HW118159  14.495   1.877  11.329
38754SOL    HW218160  14.364   1.874  11.254
38755SOL     OW18161   2.364   0.677   3.322
38755SOL    HW118162   2.325   0.642   3.402
38755SOL    HW218163   2.444   0.626   3.311
38756SOL     OW18164   8.655   2.802   8.487
38756SOL    HW118165   8.692   2.739   8.425
38756SOL    HW218166   8.730   2.856   8.513
38757SOL     OW18167  10.293   3.617   6.994
38757SOL    HW118168  10.370   3.654   6.949
38757SOL    HW218169  10.221   3.676   6.970
38758SOL     OW18170  11.335  13.408   1.061
38758SOL    HW118171  11.295  13.345   1.120
38758SOL    HW218172  11.379  13.471   1.118
38759SOL     OW18173   4.685   3.519  12.046
38759SOL    HW118174   4.701   3.590  12.108
38759SOL    HW218175   4.725   3.549  11.965
38760SOL     OW18176  13.227   0.588   6.384
38760SOL    HW118177  13.239   0.537   6.464
38760SOL    HW218178  13.168   0.659   6.409
38761SOL     OW18179   6.993   4.916   5.176
38761SOL    HW118180   7.075   4.961   5.155
38761SOL    HW218181   6.950   4.903   5.092
38762SOL     OW18182   1.575   5.715   3.367
38762SOL    HW118183   1.536   5.681   3.448
38762SOL    HW218184   1.500   5.732   3.310
38763SOL     OW18185  14.654  10.889  10.971
38763SOL    HW118186  14.657  10.984  10.985
38763SOL    HW218187  14.572  10.861  11.012
38764SOL     OW18188  12.285   0.943   3.716
38764SOL    HW118189  12.330   0.976   3.639
38764SOL    HW218190  12.341   0.967   3.790
38765SOL     OW18191  12.800   9.062   0.173
38765SOL    HW118192  12.883   9.015   0.175
38765SOL    HW218193  12.823   9.153   0.157
38766SOL     OW18194  10.198   9.550   3.277
38766SOL    HW118195  10.195   9.466   3.232
38766SOL    HW218196  10.182   9.615   3.208
38767SOL     OW18197   6.428   8.497   2.802
38767SOL    HW118198   6.359   8.450   2.756
38767SOL    HW218199   6.382   8.561   2.857
38768SOL     OW18200   9.394  10.931  12.985
38768SOL    HW118201   9.344  11.011  12.969
38768SOL    HW218202   9.431  10.908  12.899
38769SOL     OW18203   0.551   0.626   4.235
38769SOL    HW118204   0.645   0.606   4.232
38769SOL    HW218205   0.535   0.650   4.326
38770SOL     OW18206   1.708  14.306  10.442
38770SOL    HW118207   1.700  14.388  10.394
38770SOL    HW218208   1.635  14.252  10.409
38771SOL     OW18209   3.739   7.850   4.648
38771SOL    HW118210   3.792   7.791   4.701
38771SOL    HW218211   3.651   7.811   4.649
38772SOL     OW18212   7.919   1.084   8.020
38772SOL    HW118213   7.933   1.116   7.930
38772SOL    HW218214   8.006   1.057   8.049
38773SOL     OW18215   4.990   4.968   4.074
38773SOL    HW118216   4.953   4.881   4.067
38773SOL    HW218217   4.943   5.019   4.008
38774SOL     OW18218  14.736   1.144   3.092
38774SOL    HW118219  14.796   1.079   3.055
38774SOL    HW218220  14.714   1.109   3.178
38775SOL     OW18221   2.877  13.933  11.565
38775SOL    HW118222   2.820  14.001  11.602
38775SOL    HW218223   2.820  13.856  11.559
38776SOL     OW18224   6.098  10.605   8.825
38776SOL    HW118225   6.083  10.573   8.914
38776SOL    HW218226   6.063  10.536   8.768
38777SOL     OW18227  14.868   8.122   7.843
38777SOL    HW118228  14.797   8.125   7.778
38777SOL    HW218229   0.016   8.029   7.849
38778SOL     OW18230   5.596   4.461  11.799
38778SOL    HW118231   5.687   4.462  11.770
38778SOL    HW218232   5.562   4.377  11.767
38779SOL     OW18233   0.479   6.725   7.032
38779SOL    HW118234   0.507   6.811   7.066
38779SOL    HW218235   0.486   6.734   6.937
38780SOL     OW18236   7.035   4.265   1.759
38780SOL    HW118237   6.984   4.287   1.681
38780SOL    HW218238   7.073   4.348   1.787
38781SOL     OW18239   3.135   4.347  10.942
38781SOL    HW118240   3.210   4.291  10.919
38781SOL    HW218241   3.060   4.288  10.941
38782SOL     OW18242   0.342   1.438  10.680
38782SOL    HW118243   0.403   1.486  10.624
38782SOL    HW218244   0.388   1.428  10.763
38783SOL     OW18245   6.121   1.164   9.060
38783SOL    HW118246   6.212   1.148   9.035
38783SOL    HW218247   6.093   1.237   9.004
38784SOL     OW18248   3.885  11.234  11.951
38784SOL    HW118249   3.949  11.171  11.917
38784SOL    HW218250   3.800  11.202  11.919
38785SOL     OW18251  11.491   2.716   6.066
38785SOL    HW118252  11.493   2.752   6.154
38785SOL    HW218253  11.422   2.650   6.069
38786SOL     OW18254  11.803  14.379  10.104
38786SOL    HW118255  11.864  14.413  10.038
38786SOL    HW218256  11.859  14.340  10.171
38787SOL     OW18257   0.085  12.610   5.841
38787SOL    HW118258   0.090  12.558   5.921
38787SOL    HW218259   0.088  12.701   5.871
38788SOL     OW18260  10.301   4.358   3.627
38788SOL    HW118261  10.328   4.357   3.719
38788SOL    HW218262  10.270   4.269   3.611
38789SOL     OW18263   6.861   2.463   1.504
38789SOL    HW118264   6.800   2.398   1.537
38789SOL    HW218265   6.947   2.432   1.533
38790SOL     OW18266  12.132   8.855   1.807
38790SOL    HW118267  12.170   8.876   1.892
38790SOL    HW218268  12.132   8.759   1.803
38791SOL     OW18269   2.974   9.617   4.521
38791SOL    HW118270   2.968   9.604   4.615
38791SOL    HW218271   2.937   9.538   4.483
38792SOL     OW18272  14.102  12.831   5.188
38792SOL    HW118273  14.022  12.869   5.225
38792SOL    HW218274  14.165  12.833   5.261
38793SOL     OW18275   3.050  14.455   8.164
38793SOL    HW118276   3.077  14.511   8.237
38793SOL    HW218277   2.969  14.494   8.132
38794SOL     OW18278  13.721   7.290  10.118
38794SOL    HW118279  13.793   7.348  10.140
38794SOL    HW218280  13.664   7.343  10.062
38795SOL     OW18281   7.418   5.294  10.970
38795SOL    HW118282   7.397   5.351  11.044
38795SOL    HW218283   7.455   5.353  10.904
38796SOL     OW18284   8.220  14.465  13.190
38796SOL    HW118285   8.286  14.495  13.128
38796SOL    HW218286   8.138  14.500  13.157
38797SOL     OW18287   2.205  12.696   8.959
38797SOL    HW118288   2.271  12.657   9.016
38797SOL    HW218289   2.176  12.775   9.006
38798SOL     OW18290  14.758   8.467   7.494
38798SOL    HW118291  14.664   8.452   7.496
38798SOL    HW218292  14.770   8.553   7.533
38799SOL     OW18293   5.374   0.976  12.760
38799SOL    HW118294   5.334   0.953  12.844
38799SOL    HW218295   5.447   1.034  12.784
38800SOL     OW18296  10.947  11.713   6.287
38800SOL    HW118297  10.924  11.634   6.336
38800SOL    HW218298  11.031  11.741   6.322
38801SOL     OW18299   1.435  11.249   2.419
38801SOL    HW118300   1.433  11.329   2.471
38801SOL    HW218301   1.401  11.181   2.477
38802SOL     OW18302   5.304   6.481   3.765
38802SOL    HW118303   5.277   6.410   3.823
38802SOL    HW218304   5.396   6.497   3.787
38803SOL     OW18305   6.403  14.566   1.529
38803SOL    HW118306   6.403  14.550   1.623
38803SOL    HW218307   6.335  14.508   1.494
38804SOL     OW18308  11.262   5.389   6.041
38804SOL    HW118309  11.218   5.304   6.042
38804SOL    HW218310  11.308   5.393   6.125
38805SOL     OW18311   5.991  11.368  14.669
38805SOL    HW118312   5.902  11.392  14.645
38805SOL    HW218313   6.046  11.438  14.632
38806SOL     OW18314   5.749   1.376   4.315
38806SOL    HW118315   5.781   1.440   4.252
38806SOL    HW218316   5.762   1.417   4.400
38807SOL     OW18317   4.764   2.737  14.008
38807SOL    HW118318   4.764   2.800  14.079
38807SOL    HW218319   4.744   2.788  13.930
38808SOL     OW18320   7.075  10.120  13.951
38808SOL    HW118321   7.027  10.037  13.951
38808SOL    HW218322   7.013  10.184  13.987
38809SOL     OW18323   5.012   7.380  12.370
38809SOL    HW118324   4.943   7.315  12.382
38809SOL    HW218325   4.990   7.425  12.289
38810SOL     OW18326  10.006  10.424  14.277
38810SOL    HW118327  10.045  10.338  14.293
38810SOL    HW218328   9.931  10.406  14.220
38811SOL     OW18329  13.435  14.053   4.109
38811SOL    HW118330  13.521  14.021   4.136
38811SOL    HW218331  13.454  14.135   4.063
38812SOL     OW18332  11.908   6.023  13.366
38812SOL    HW118333  11.973   6.002  13.433
38812SOL    HW218334  11.824   6.007  13.409
38813SOL     OW18335   4.193  13.733   2.792
38813SOL    HW118336   4.154  13.817   2.768
38813SOL    HW218337   4.155  13.712   2.877
38814SOL     OW18338  11.653  14.135   6.790
38814SOL    HW118339  11.592  14.201   6.755
38814SOL    HW218340  11.673  14.165   6.879
38815SOL     OW18341   6.609   6.043  13.530
38815SOL    HW118342   6.560   6.124  13.543
38815SOL    HW218343   6.691   6.070  13.490
38816SOL     OW18344   0.219   3.242   2.080
38816SOL    HW118345   0.219   3.251   1.985
38816SOL    HW218346   0.279   3.310   2.110
38817SOL     OW18347  14.576  14.560   2.364
38817SOL    HW118348  14.552  14.576   2.455
38817SOL    HW218349  14.592  14.466   2.359
38818SOL     OW18350   6.722   5.033  11.317
38818SOL    HW118351   6.643   5.052  11.266
38818SOL    HW218352   6.755   5.118  11.343
38819SOL     OW18353   2.143   7.807  11.464
38819SOL    HW118354   2.224   7.757  11.470
38819SOL    HW218355   2.170   7.893  11.431
38820SOL     OW18356  13.752  13.497   3.917
38820SOL    HW118357  13.665  13.530   3.893
38820SOL    HW218358  13.733  13.422   3.974
38821SOL     OW18359   3.813   2.236  11.928
38821SOL    HW118360   3.836   2.143  11.921
38821SOL    HW218361   3.724   2.242  11.894
38822SOL     OW18362   9.813   3.464   4.824
38822SOL    HW118363   9.752   3.532   4.795
38822SOL    HW218364   9.797   3.390   4.765
38823SOL     OW18365   3.497   6.375   7.353
38823SOL    HW118366   3.434   6.441   7.380
38823SOL    HW218367   3.530   6.406   7.268
38824SOL     OW18368  10.667   5.760   1.688
38824SOL    HW118369  10.599   5.766   1.755
38824SOL    HW218370  10.700   5.850   1.680
38825SOL     OW18371   6.010   9.119   8.046
38825SOL    HW118372   6.096   9.160   8.052
38825SOL    HW218373   5.950   9.182   8.086
38826SOL     OW18374  13.407   3.078   6.303
38826SOL    HW118375  13.349   3.069   6.227
38826SOL    HW218376  13.495   3.069   6.266
38827SOL     OW18377   3.987  10.595   3.963
38827SOL    HW118378   3.993  10.500   3.973
38827SOL    HW218379   3.938  10.608   3.882
38828SOL     OW18380   5.178   7.896   9.046
38828SOL    HW118381   5.254   7.919   9.099
38828SOL    HW218382   5.129   7.977   9.038
38829SOL     OW18383   8.810   9.739   9.884
38829SOL    HW118384   8.853   9.707   9.805
38829SOL    HW218385   8.721   9.705   9.879
38830SOL     OW18386   2.116   8.839   0.563
38830SOL    HW118387   2.157   8.915   0.521
38830SOL    HW218388   2.057   8.803   0.497
38831SOL     OW18389   1.752   7.552   5.321
38831SOL    HW118390   1.808   7.623   5.289
38831SOL    HW218391   1.761   7.557   5.417
38832SOL     OW18392   5.438   0.212   1.314
38832SOL    HW118393   5.372   0.282   1.322
38832SOL    HW218394   5.434   0.187   1.222
38833SOL     OW18395   8.030  13.023  11.858
38833SOL    HW118396   8.086  13.008  11.934
38833SOL    HW218397   7.999  12.936  11.834
38834SOL     OW18398   5.735  12.563  12.226
38834SOL    HW118399   5.709  12.528  12.141
38834SOL    HW218400   5.795  12.498  12.262
38835SOL     OW18401   8.785   0.575   9.736
38835SOL    HW118402   8.785   0.529   9.652
38835SOL    HW218403   8.718   0.531   9.788
38836SOL     OW18404   3.282   0.023  10.843
38836SOL    HW118405   3.336   0.064  10.910
38836SOL    HW218406   3.278   0.087  10.772
38837SOL     OW18407   5.561   9.898   0.883
38837SOL    HW118408   5.480   9.881   0.930
38837SOL    HW218409   5.589   9.984   0.913
38838SOL     OW18410  10.184   2.304   7.814
38838SOL    HW118411  10.119   2.304   7.885
38838SOL    HW218412  10.133   2.287   7.735
38839SOL     OW18413   9.330  13.505   2.490
38839SOL    HW118414   9.263  13.438   2.491
38839SOL    HW218415   9.362  13.506   2.400
38840SOL     OW18416  11.446   8.899   9.260
38840SOL    HW118417  11.472   8.807   9.249
38840SOL    HW218418  11.421   8.906   9.352
38841SOL     OW18419   5.645   3.690   7.429
38841SOL    HW118420   5.736   3.695   7.399
38841SOL    HW218421   5.645   3.623   7.497
38842SOL     OW18422   0.792   3.007   3.318
38842SOL    HW118423   0.798   2.996   3.223
38842SOL    HW218424   0.797   2.918   3.352
38843SOL     OW18425  11.579   4.449   4.400
38843SOL    HW118426  11.607   4.393   4.472
38843SOL    HW218427  11.509   4.399   4.356
38844SOL     OW18428  13.331   0.641   5.521
38844SOL    HW118429  13.239   0.619   5.508
38844SOL    HW218430  13.359   0.682   5.439
38845SOL     OW18431  10.690   2.142   8.796
38845SOL    HW118432  10.669   2.136   8.703
38845SOL    HW218433  10.618   2.097   8.840
38846SOL     OW18434   5.163   1.160   6.986
38846SOL    HW118435   5.071   1.177   6.967
38846SOL    HW218436   5.168   1.065   7.000
38847SOL     OW18437   4.247   3.895   4.219
38847SOL    HW118438   4.314   3.952   4.181
38847SOL    HW218439   4.182   3.884   4.149
38848SOL     OW18440  11.886   0.913   1.780
38848SOL    HW118441  11.938   0.886   1.856
38848SOL    HW218442  11.795   0.908   1.811
38849SOL     OW18443   5.108  13.592   5.236
38849SOL    HW118444   5.185  13.627   5.281
38849SOL    HW218445   5.034  13.627   5.285
38850SOL     OW18446   3.020  13.855  14.221
38850SOL    HW118447   2.932  13.877  14.190
38850SOL    HW218448   3.074  13.928  14.193
38851SOL     OW18449  10.401  10.993   4.615
38851SOL    HW118450  10.376  11.012   4.706
38851SOL    HW218451  10.422  11.079   4.578
38852SOL     OW18452  10.275  13.001   0.116
38852SOL    HW118453  10.352  13.005   0.173
38852SOL    HW218454  10.242  13.091   0.113
38853SOL     OW18455   5.235  12.224   6.471
38853SOL    HW118456   5.202  12.152   6.525
38853SOL    HW218457   5.327  12.231   6.493
38854SOL     OW18458   4.740  10.110  14.768
38854SOL    HW118459   4.651  10.144  14.776
38854SOL    HW218460   4.770  10.097  14.858
38855SOL     OW18461   7.624   8.362   7.101
38855SOL    HW118462   7.641   8.319   7.185
38855SOL    HW218463   7.607   8.290   7.040
38856SOL     OW18464   9.848   9.259   3.194
38856SOL    HW118465   9.915   9.270   3.262
38856SOL    HW218466   9.892   9.281   3.112
38857SOL     OW18467   7.947   7.340  14.169
38857SOL    HW118468   7.862   7.381  14.151
38857SOL    HW218469   7.953   7.337  14.265
38858SOL     OW18470   2.202  11.405  13.128
38858SOL    HW118471   2.253  11.459  13.067
38858SOL    HW218472   2.248  11.320  13.129
38859SOL     OW18473   2.076  10.610   1.641
38859SOL    HW118474   2.045  10.686   1.689
38859SOL    HW218475   2.042  10.622   1.552
38860SOL     OW18476   3.672   3.187   9.379
38860SOL    HW118477   3.686   3.116   9.317
38860SOL    HW218478   3.596   3.234   9.345
38861SOL     OW18479   2.161  10.124   0.438
38861SOL    HW118480   2.076  10.162   0.415
38861SOL    HW218481   2.216  10.143   0.361
38862SOL     OW18482   5.884   2.170   1.752
38862SOL    HW118483   5.890   2.097   1.690
38862SOL    HW218484   5.944   2.146   1.823
38863SOL     OW18485  11.671   2.844   4.165
38863SOL    HW118486  11.617   2.814   4.092
38863SOL    HW218487  11.644   2.791   4.239
38864SOL     OW18488  11.813   2.645  13.694
38864SOL    HW118489  11.724   2.631  13.726
38864SOL    HW218490  11.809   2.618  13.602
38865SOL     OW18491  10.713   5.047   0.623
38865SOL    HW118492  10.703   4.978   0.558
38865SOL    HW218493  10.711   5.001   0.708
38866SOL     OW18494   6.168   4.337   6.482
38866SOL    HW118495   6.078   4.310   6.462
38866SOL    HW218496   6.201   4.270   6.541
38867SOL     OW18497   6.555   4.939   5.163
38867SOL    HW118498   6.549   5.025   5.205
38867SOL    HW218499   6.648   4.916   5.169
38868SOL     OW18500   6.527  12.520  10.556
38868SOL    HW118501   6.592  12.541  10.624
38868SOL    HW218502   6.444  12.552  10.591
38869SOL     OW18503   2.367   6.243   7.774
38869SOL    HW118504   2.381   6.153   7.746
38869SOL    HW218505   2.298   6.276   7.716
38870SOL     OW18506   2.766   7.194   2.955
38870SOL    HW118507   2.858   7.217   2.968
38870SOL    HW218508   2.768   7.116   2.900
38871SOL     OW18509   7.477   1.594   1.843
38871SOL    HW118510   7.440   1.636   1.766
38871SOL    HW218511   7.412   1.610   1.912
38872SOL     OW18512  13.126   1.536   6.950
38872SOL    HW118513  13.110   1.562   7.040
38872SOL    HW218514  13.131   1.618   6.901
38873SOL     OW18515   7.048  10.853   5.651
38873SOL    HW118516   7.112  10.898   5.706
38873SOL    HW218517   7.099  10.795   5.596
38874SOL     OW18518  11.222  12.779  10.064
38874SOL    HW118519  11.156  12.729  10.017
38874SOL    HW218520  11.259  12.716  10.127
38875SOL     OW18521  13.964   0.127   3.401
38875SOL    HW118522  13.919   0.043   3.404
38875SOL    HW218523  14.056   0.104   3.389
38876SOL     OW18524   9.813   6.702   8.299
38876SOL    HW118525   9.851   6.731   8.217
38876SOL    HW218526   9.887   6.672   8.351
38877SOL     OW18527   6.628   0.577   1.716
38877SOL    HW118528   6.709   0.581   1.666
38877SOL    HW218529   6.621   0.663   1.756
38878SOL     OW18530   2.447   6.924   3.394
38878SOL    HW118531   2.503   6.945   3.468
38878SOL    HW218532   2.429   7.008   3.353
38879SOL     OW18533   4.952   2.154   7.007
38879SOL    HW118534   5.046   2.170   7.004
38879SOL    HW218535   4.915   2.235   7.043
38880SOL     OW18536   1.581   3.026   9.964
38880SOL    HW118537   1.636   3.082   9.909
38880SOL    HW218538   1.637   3.000  10.037
38881SOL     OW18539   0.514  13.588  12.367
38881SOL    HW118540   0.432  13.558  12.326
38881SOL    HW218541   0.541  13.515  12.423
38882SOL     OW18542   7.071  10.106   3.864
38882SOL    HW118543   6.994  10.102   3.806
38882SOL    HW218544   7.108  10.192   3.848
38883SOL     OW18545  14.479  11.980   3.992
38883SOL    HW118546  14.525  12.033   4.058
38883SOL    HW218547  14.520  11.894   3.998
38884SOL     OW18548   4.938  13.616   2.916
38884SOL    HW118549   4.966  13.636   2.827
38884SOL    HW218550   4.996  13.668   2.972
38885SOL     OW18551   1.510  10.900   2.912
38885SOL    HW118552   1.579  10.954   2.873
38885SOL    HW218553   1.486  10.947   2.992
38886SOL     OW18554  11.536   4.156   3.856
38886SOL    HW118555  11.526   4.250   3.870
38886SOL    HW218556  11.534   4.146   3.760
38887SOL     OW18557   0.668  10.455   0.430
38887SOL    HW118558   0.593  10.507   0.399
38887SOL    HW218559   0.628  10.381   0.476
38888SOL     OW18560  14.458  11.642   9.872
38888SOL    HW118561  14.430  11.660   9.961
38888SOL    HW218562  14.515  11.565   9.879
38889SOL     OW18563   7.246   1.688  14.353
38889SOL    HW118564   7.272   1.771  14.394
38889SOL    HW218565   7.194   1.643  14.419
38890SOL     OW18566   4.077   5.526   7.763
38890SOL    HW118567   4.066   5.518   7.668
38890SOL    HW218568   4.027   5.453   7.799
38891SOL     OW18569   1.966   3.042   3.604
38891SOL    HW118570   1.887   3.041   3.660
38891SOL    HW218571   1.958   2.963   3.551
38892SOL     OW18572   3.950   6.320   4.244
38892SOL    HW118573   4.001   6.262   4.300
38892SOL    HW218574   3.911   6.262   4.179
38893SOL     OW18575   3.202  12.202  10.964
38893SOL    HW118576   3.226  12.294  10.952
38893SOL    HW218577   3.285  12.157  10.972
38894SOL     OW18578   1.974  13.886   4.806
38894SOL    HW118579   2.007  13.889   4.896
38894SOL    HW218580   1.892  13.936   4.810
38895SOL     OW18581  12.696   3.861   5.126
38895SOL    HW118582  12.654   3.869   5.041
38895SOL    HW218583  12.733   3.773   5.127
38896SOL     OW18584  11.643  13.293   1.336
38896SOL    HW118585  11.640  13.232   1.409
38896SOL    HW218586  11.705  13.254   1.274
38897SOL     OW18587   3.834   5.514   8.654
38897SOL    HW118588   3.773   5.499   8.726
38897SOL    HW218589   3.785   5.491   8.575
38898SOL     OW18590   8.177   6.658  14.741
38898SOL    HW118591   8.134   6.731  14.787
38898SOL    HW218592   8.255   6.697  14.702
38899SOL     OW18593   9.084   2.504   2.146
38899SOL    HW118594   9.087   2.552   2.228
38899SOL    HW218595   9.067   2.413   2.171
38900SOL     OW18596   9.123  11.208   8.559
38900SOL    HW118597   9.078  11.237   8.480
38900SOL    HW218598   9.213  11.190   8.530
38901SOL     OW18599   5.050   3.238   5.135
38901SOL    HW118600   5.111   3.236   5.062
38901SOL    HW218601   4.970   3.200   5.101
38902SOL     OW18602   6.637   8.497   5.578
38902SOL    HW118603   6.727   8.504   5.611
38902SOL    HW218604   6.623   8.404   5.564
38903SOL     OW18605   3.184   2.754   4.473
38903SOL    HW118606   3.090   2.764   4.489
38903SOL    HW218607   3.199   2.660   4.479
38904SOL     OW18608  10.538   7.984  13.062
38904SOL    HW118609  10.589   8.025  12.992
38904SOL    HW218610  10.483   8.055  13.095
38905SOL     OW18611  11.635   4.433  14.321
38905SOL    HW118612  11.631   4.341  14.347
38905SOL    HW218613  11.619   4.481  14.402
38906SOL     OW18614   0.774   9.617   7.866
38906SOL    HW118615   0.780   9.565   7.947
38906SOL    HW218616   0.753   9.553   7.798
38907SOL     OW18617   5.293   2.050   6.259
38907SOL    HW118618   5.357   2.060   6.188
38907SOL    HW218619   5.347   2.040   6.338
38908SOL     OW18620   2.356   4.706   6.112
38908SOL    HW118621   2.314   4.790   6.131
38908SOL    HW218622   2.403   4.721   6.029
38909SOL     OW18623  14.334  10.024  10.072
38909SOL    HW118624  14.331  10.086   9.999
38909SOL    HW218625  14.401  10.058  10.130
38910SOL     OW18626  14.747   1.682  11.681
38910SOL    HW118627  14.683   1.611  11.690
38910SOL    HW218628  14.695   1.758  11.653
38911SOL     OW18629  13.171  11.179   1.672
38911SOL    HW118630  13.246  11.131   1.636
38911SOL    HW218631  13.171  11.262   1.624
38912SOL     OW18632  11.799  12.836   9.812
38912SOL    HW118633  11.706  12.856   9.811
38912SOL    HW218634  11.843  12.920   9.799
38913SOL     OW18635   1.468   6.388   2.247
38913SOL    HW118636   1.385   6.432   2.229
38913SOL    HW218637   1.507   6.440   2.317
38914SOL     OW18638   3.174   9.155  12.336
38914SOL    HW118639   3.144   9.241  12.366
38914SOL    HW218640   3.206   9.112  12.416
38915SOL     OW18641   1.629   5.359  12.820
38915SOL    HW118642   1.573   5.363  12.898
38915SOL    HW218643   1.709   5.317  12.851
38916SOL     OW18644   5.740  11.959   4.978
38916SOL    HW118645   5.651  11.931   4.999
38916SOL    HW218646   5.776  11.885   4.929
38917SOL     OW18647   8.059   1.389   3.994
38917SOL    HW118648   8.100   1.359   4.075
38917SOL    HW218649   8.123   1.368   3.926
38918SOL     OW18650  13.554  13.256   2.951
38918SOL    HW118651  13.615  13.293   3.015
38918SOL    HW218652  13.512  13.332   2.911
38919SOL     OW18653   3.865   6.542  13.610
38919SOL    HW118654   3.908   6.580  13.686
38919SOL    HW218655   3.856   6.615  13.548
38920SOL     OW18656   0.186  13.769  11.608
38920SOL    HW118657   0.097  13.802  11.591
38920SOL    HW218658   0.241  13.815  11.545
38921SOL     OW18659  10.545   0.082  11.028
38921SOL    HW118660  10.464   0.103  10.982
38921SOL    HW218661  10.547  14.861  11.029
38922SOL     OW18662   0.896  12.551   8.849
38922SOL    HW118663   0.895  12.594   8.934
38922SOL    HW218664   0.885  12.622   8.786
38923SOL     OW18665  12.713   6.163   4.979
38923SOL    HW118666  12.681   6.252   4.989
38923SOL    HW218667  12.798   6.172   4.935
38924SOL     OW18668   5.738  10.390  13.970
38924SOL    HW118669   5.745  10.432  14.056
38924SOL    HW218670   5.737  10.463  13.908
38925SOL     OW18671   9.043  13.388   4.002
38925SOL    HW118672   9.080  13.301   4.012
38925SOL    HW218673   8.954  13.380   4.036
38926SOL     OW18674   2.161   4.667   5.533
38926SOL    HW118675   2.094   4.608   5.568
38926SOL    HW218676   2.242   4.641   5.578
38927SOL     OW18677   8.277   7.320   3.577
38927SOL    HW118678   8.236   7.244   3.535
38927SOL    HW218679   8.279   7.387   3.509
38928SOL     OW18680  13.699  10.886   6.542
38928SOL    HW118681  13.757  10.957   6.571
38928SOL    HW218682  13.757  10.813   6.524
38929SOL     OW18683  11.628   4.285   7.586
38929SOL    HW118684  11.596   4.303   7.498
38929SOL    HW218685  11.617   4.367   7.633
38930SOL     OW18686   1.202   8.365   1.509
38930SOL    HW118687   1.251   8.427   1.564
38930SOL    HW218688   1.223   8.279   1.546
38931SOL     OW18689   0.916  13.837   6.889
38931SOL    HW118690   1.006  13.842   6.920
38931SOL    HW218691   0.874  13.775   6.949
38932SOL     OW18692   0.906  14.031   1.317
38932SOL    HW118693   0.995  13.998   1.306
38932SOL    HW218694   0.915  14.109   1.372
38933SOL     OW18695   4.642   1.709   4.019
38933SOL    HW118696   4.581   1.636   4.004
38933SOL    HW218697   4.611   1.779   3.961
38934SOL     OW18698   5.691  14.579   0.924
38934SOL    HW118699   5.671  14.654   0.981
38934SOL    HW218700   5.722  14.618   0.843
38935SOL     OW18701   4.774  13.597   9.252
38935SOL    HW118702   4.731  13.625   9.171
38935SOL    HW218703   4.810  13.677   9.289
38936SOL     OW18704   8.272   7.160   8.939
38936SOL    HW118705   8.260   7.123   9.026
38936SOL    HW218706   8.343   7.108   8.901
38937SOL     OW18707  12.681  10.647   9.618
38937SOL    HW118708  12.597  10.672   9.655
38937SOL    HW218709  12.735  10.622   9.693
38938SOL     OW18710   9.442   6.060   3.416
38938SOL    HW118711   9.418   6.022   3.501
38938SOL    HW218712   9.359   6.064   3.368
38939SOL     OW18713  11.243  14.590  11.411
38939SOL    HW118714  11.166  14.533  11.408
38939SOL    HW218715  11.293  14.568  11.332
38940SOL     OW18716   9.619  13.632   0.375
38940SOL    HW118717   9.552  13.698   0.359
38940SOL    HW218718   9.621  13.578   0.296
38941SOL     OW18719   3.770   8.552  10.996
38941SOL    HW118720   3.812   8.504  11.068
38941SOL    HW218721   3.709   8.490  10.958
38942SOL     OW18722   4.260   7.277   3.802
38942SOL    HW118723   4.333   7.301   3.859
38942SOL    HW218724   4.199   7.232   3.860
38943SOL     OW18725   6.797   0.141   3.453
38943SOL    HW118726   6.738   0.203   3.411
38943SOL    HW218727   6.867   0.196   3.489
38944SOL     OW18728  12.471  14.505   0.532
38944SOL    HW118729  12.501  14.422   0.494
38944SOL    HW218730  12.380  14.513   0.503
38945SOL     OW18731   1.724   2.099   7.388
38945SOL    HW118732   1.755   2.083   7.477
38945SOL    HW218733   1.643   2.148   7.399
38946SOL     OW18734  12.642   3.519   7.852
38946SOL    HW118735  12.705   3.472   7.907
38946SOL    HW218736  12.676   3.608   7.845
38947SOL     OW18737   0.517   2.948   2.027
38947SOL    HW118738   0.576   2.872   2.027
38947SOL    HW218739   0.484   2.954   1.938
38948SOL     OW18740   6.076  10.931   0.392
38948SOL    HW118741   6.031  10.847   0.382
38948SOL    HW218742   6.164  10.914   0.360
38949SOL     OW18743   4.419   6.593   4.322
38949SOL    HW118744   4.334   6.554   4.302
38949SOL    HW218745   4.470   6.582   4.241
38950SOL     OW18746   5.291  14.276   0.043
38950SOL    HW118747   5.250  14.337  14.856
38950SOL    HW218748   5.385  14.294   0.034
38951SOL     OW18749   4.302   2.162   9.940
38951SOL    HW118750   4.349   2.186   9.860
38951SOL    HW218751   4.345   2.213  10.009
38952SOL     OW18752  14.422   7.054   9.783
38952SOL    HW118753  14.361   7.126   9.765
38952SOL    HW218754  14.489   7.092   9.839
38953SOL     OW18755  14.583   9.511  12.340
38953SOL    HW118756  14.510   9.557  12.299
38953SOL    HW218757  14.624   9.576  12.397
38954SOL     OW18758   9.291   2.462   4.941
38954SOL    HW118759   9.309   2.375   4.977
38954SOL    HW218760   9.307   2.452   4.847
38955SOL     OW18761   6.970   3.406   8.886
38955SOL    HW118762   7.057   3.365   8.889
38955SOL    HW218763   6.985   3.493   8.850
38956SOL     OW18764   2.051   2.229   9.101
38956SOL    HW118765   2.029   2.321   9.086
38956SOL    HW218766   2.143   2.222   9.078
38957SOL     OW18767  12.679   6.910  11.654
38957SOL    HW118768  12.690   6.999  11.621
38957SOL    HW218769  12.735   6.906  11.731
38958SOL     OW18770   5.803   3.468   4.411
38958SOL    HW118771   5.732   3.458   4.347
38958SOL    HW218772   5.873   3.413   4.378
38959SOL     OW18773   7.446  13.370   3.392
38959SOL    HW118774   7.465  13.295   3.336
38959SOL    HW218775   7.425  13.441   3.331
38960SOL     OW18776  10.676   5.027  13.128
38960SOL    HW118777  10.630   5.111  13.138
38960SOL    HW218778  10.608   4.961  13.142
38961SOL     OW18779   9.343   0.227   0.510
38961SOL    HW118780   9.347   0.233   0.415
38961SOL    HW218781   9.290   0.149   0.527
38962SOL     OW18782   7.751   6.579   2.972
38962SOL    HW118783   7.841   6.557   2.950
38962SOL    HW218784   7.719   6.502   3.020
38963SOL     OW18785   0.002  11.269   7.923
38963SOL    HW118786   0.087  11.297   7.957
38963SOL    HW218787   0.020  11.243   7.832
38964SOL     OW18788   3.884   1.281   4.113
38964SOL    HW118789   3.928   1.352   4.159
38964SOL    HW218790   3.941   1.205   4.128
38965SOL     OW18791   2.277   2.885   6.567
38965SOL    HW118792   2.273   2.822   6.496
38965SOL    HW218793   2.355   2.938   6.548
38966SOL     OW18794   2.496  11.315  13.869
38966SOL    HW118795   2.526  11.250  13.932
38966SOL    HW218796   2.413  11.280  13.836
38967SOL     OW18797   1.292  14.366   2.845
38967SOL    HW118798   1.217  14.359   2.905
38967SOL    HW218799   1.341  14.284   2.858
38968SOL     OW18800   2.560  13.983   0.654
38968SOL    HW118801   2.470  14.016   0.656
38968SOL    HW218802   2.556  13.907   0.595
38969SOL     OW18803  13.485   0.313   7.692
38969SOL    HW118804  13.549   0.357   7.637
38969SOL    HW218805  13.412   0.375   7.699
38970SOL     OW18806   5.117   1.761   1.590
38970SOL    HW118807   5.073   1.682   1.558
38970SOL    HW218808   5.210   1.742   1.584
38971SOL     OW18809   9.748  10.117  13.755
38971SOL    HW118810   9.724  10.155  13.840
38971SOL    HW218811   9.844  10.123  13.753
38972SOL     OW18812   4.904   2.846  11.016
38972SOL    HW118813   4.993   2.881  11.026
38972SOL    HW218814   4.850   2.924  11.002
38973SOL     OW18815  12.305  12.448   7.752
38973SOL    HW118816  12.394  12.432   7.719
38973SOL    HW218817  12.279  12.531   7.713
38974SOL     OW18818   7.006   6.159   4.416
38974SOL    HW118819   6.982   6.237   4.466
38974SOL    HW218820   6.960   6.169   4.333
38975SOL     OW18821  10.580  12.908  12.215
38975SOL    HW118822  10.612  12.924  12.304
38975SOL    HW218823  10.517  12.837  12.225
38976SOL     OW18824  13.478   2.248   0.826
38976SOL    HW118825  13.565   2.253   0.785
38976SOL    HW218826  13.421   2.300   0.768
38977SOL     OW18827   3.378   2.357   1.330
38977SOL    HW118828   3.369   2.263   1.312
38977SOL    HW218829   3.444   2.387   1.268
38978SOL     OW18830  12.520   3.323   6.802
38978SOL    HW118831  12.602   3.274   6.795
38978SOL    HW218832  12.546   3.404   6.847
38979SOL     OW18833  12.644  12.247   6.012
38979SOL    HW118834  12.550  12.235   6.023
38979SOL    HW218835  12.675  12.273   6.098
38980SOL     OW18836   4.386   3.017   5.507
38980SOL    HW118837   4.373   2.922   5.503
38980SOL    HW218838   4.331   3.051   5.437
38981SOL     OW18839   6.458  14.305   0.356
38981SOL    HW118840   6.413  14.319   0.439
38981SOL    HW218841   6.548  14.283   0.380
38982SOL     OW18842   1.836   0.762   1.779
38982SOL    HW118843   1.779   0.688   1.759
38982SOL    HW218844   1.782   0.820   1.832
38983SOL     OW18845   8.663   8.855  14.727
38983SOL    HW118846   8.614   8.874  14.647
38983SOL    HW218847   8.736   8.800  14.699
38984SOL     OW18848   3.499   8.860  13.603
38984SOL    HW118849   3.478   8.945  13.566
38984SOL    HW218850   3.566   8.824  13.545
38985SOL     OW18851  14.649   4.199   4.680
38985SOL    HW118852  14.718   4.264   4.680
38985SOL    HW218853  14.651   4.162   4.591
38986SOL     OW18854   7.551  11.306   0.842
38986SOL    HW118855   7.508  11.335   0.762
38986SOL    HW218856   7.644  11.322   0.827
38987SOL     OW18857  11.237   6.607   4.797
38987SOL    HW118858  11.288   6.571   4.725
38987SOL    HW218859  11.265   6.698   4.804
38988SOL     OW18860   0.963   4.561  13.369
38988SOL    HW118861   1.042   4.510  13.382
38988SOL    HW218862   0.929   4.533  13.284
38989SOL     OW18863   0.326  13.175  12.222
38989SOL    HW118864   0.238  13.143  12.242
38989SOL    HW218865   0.326  13.187  12.127
38990SOL     OW18866  12.403   5.827  11.339
38990SOL    HW118867  12.376   5.902  11.285
38990SOL    HW218868  12.427   5.866  11.423
38991SOL     OW18869  11.795   4.185   2.805
38991SOL    HW118870  11.826   4.097   2.826
38991SOL    HW218871  11.729   4.172   2.737
38992SOL     OW18872   7.870   3.304   9.769
38992SOL    HW118873   7.953   3.285   9.813
38992SOL    HW218874   7.867   3.400   9.764
38993SOL     OW18875   8.295  12.211   2.903
38993SOL    HW118876   8.230  12.280   2.916
38993SOL    HW218877   8.375  12.258   2.880
38994SOL     OW18878   4.336  13.133  10.432
38994SOL    HW118879   4.412  13.188  10.452
38994SOL    HW218880   4.303  13.106  10.517
38995SOL     OW18881   6.112   5.006  14.261
38995SOL    HW118882   6.185   5.052  14.304
38995SOL    HW218883   6.045   5.073  14.251
38996SOL     OW18884   1.544   3.512   1.335
38996SOL    HW118885   1.450   3.498   1.322
38996SOL    HW218886   1.577   3.427   1.365
38997SOL     OW18887  13.531   6.279   7.960
38997SOL    HW118888  13.487   6.217   8.018
38997SOL    HW218889  13.460   6.323   7.914
38998SOL     OW18890   8.415   1.530  13.653
38998SOL    HW118891   8.482   1.527  13.721
38998SOL    HW218892   8.388   1.622  13.651
38999SOL     OW18893   3.696  14.352   9.827
38999SOL    HW118894   3.730  14.263   9.818
38999SOL    HW218895   3.699  14.388   9.739
39000SOL     OW18896   8.243   6.132   1.163
39000SOL    HW118897   8.267   6.039   1.170
39000SOL    HW218898   8.157   6.137   1.205
39001SOL     OW18899   2.364   3.410  10.969
39001SOL    HW118900   2.294   3.435  11.030
39001SOL    HW218901   2.436   3.469  10.990
39002SOL     OW18902   7.459   4.997   5.420
39002SOL    HW118903   7.513   4.956   5.487
39002SOL    HW218904   7.385   4.938   5.408
39003SOL     OW18905  11.373  12.591   0.408
39003SOL    HW118906  11.288  12.623   0.439
39003SOL    HW218907  11.388  12.638   0.326
39004SOL     OW18908   6.431   9.150  12.303
39004SOL    HW118909   6.512   9.175  12.258
39004SOL    HW218910   6.373   9.225  12.290
39005SOL     OW18911   3.830   0.714  10.872
39005SOL    HW118912   3.878   0.762  10.804
39005SOL    HW218913   3.738   0.730  10.853
39006SOL     OW18914   8.293   1.542  12.584
39006SOL    HW118915   8.352   1.477  12.622
39006SOL    HW218916   8.343   1.581  12.512
39007SOL     OW18917   6.599  11.230   2.771
39007SOL    HW118918   6.602  11.214   2.865
39007SOL    HW218919   6.506  11.233   2.750
39008SOL     OW18920   1.912   0.743   4.184
39008SOL    HW118921   1.860   0.771   4.109
39008SOL    HW218922   1.848   0.704   4.244
39009SOL     OW18923   0.768   8.785   0.999
39009SOL    HW118924   0.779   8.862   0.944
39009SOL    HW218925   0.856   8.764   1.031
39010SOL     OW18926   6.400  11.388   5.995
39010SOL    HW118927   6.373  11.421   6.080
39010SOL    HW218928   6.492  11.414   5.988
39011SOL     OW18929   2.492   4.939   8.288
39011SOL    HW118930   2.502   4.983   8.372
39011SOL    HW218931   2.576   4.894   8.275
39012SOL     OW18932  10.498   6.784  11.097
39012SOL    HW118933  10.546   6.712  11.055
39012SOL    HW218934  10.536   6.791  11.184
39013SOL     OW18935   3.023   4.558   8.237
39013SOL    HW118936   3.109   4.544   8.197
39013SOL    HW218937   2.964   4.500   8.188
39014SOL     OW18938   0.380   0.576  11.283
39014SOL    HW118939   0.422   0.502  11.326
39014SOL    HW218940   0.450   0.615  11.230
39015SOL     OW18941  13.960   4.558  12.943
39015SOL    HW118942  14.013   4.498  12.891
39015SOL    HW218943  13.877   4.564  12.896
39016SOL     OW18944  10.701   9.472   2.050
39016SOL    HW118945  10.650   9.399   2.083
39016SOL    HW218946  10.647   9.549   2.066
39017SOL     OW18947  13.514   9.385   5.947
39017SOL    HW118948  13.454   9.422   6.012
39017SOL    HW218949  13.512   9.449   5.875
39018SOL     OW18950   7.046  14.858   3.931
39018SOL    HW118951   7.061   0.058   3.873
39018SOL    HW218952   7.132  14.837   3.966
39019SOL     OW18953  12.687   2.965   5.802
39019SOL    HW118954  12.738   3.044   5.822
39019SOL    HW218955  12.732   2.926   5.727
39020SOL     OW18956   2.434   7.781   0.644
39020SOL    HW118957   2.400   7.742   0.724
39020SOL    HW218958   2.367   7.761   0.578
39021SOL     OW18959   1.741  14.846   6.548
39021SOL    HW118960   1.749   0.044   6.611
39021SOL    HW218961   1.648  14.844   6.526
39022SOL     OW18962  14.704   7.977   6.999
39022SOL    HW118963  14.720   8.044   6.933
39022SOL    HW218964  14.723   7.895   6.955
39023SOL     OW18965   3.715  12.893   1.139
39023SOL    HW118966   3.702  12.893   1.045
39023SOL    HW218967   3.772  12.818   1.155
39024SOL     OW18968   4.477   9.799  13.092
39024SOL    HW118969   4.483   9.709  13.060
39024SOL    HW218970   4.430   9.846  13.023
39025SOL     OW18971   2.303   5.189   0.976
39025SOL    HW118972   2.391   5.221   0.994
39025SOL    HW218973   2.314   5.097   0.954
39026SOL     OW18974  13.446   1.354   6.034
39026SOL    HW118975  13.394   1.278   6.006
39026SOL    HW218976  13.488   1.324   6.115
39027SOL     OW18977  12.931   1.152   6.657
39027SOL    HW118978  12.969   1.173   6.572
39027SOL    HW218979  12.838   1.174   6.648
39028SOL     OW18980   5.058  13.692   2.675
39028SOL    HW118981   4.988  13.686   2.610
39028SOL    HW218982   5.125  13.632   2.643
39029SOL     OW18983  14.461   9.758   9.625
39029SOL    HW118984  14.453   9.681   9.568
39029SOL    HW218985  14.542   9.743   9.674
39030SOL     OW18986  13.315   0.131   4.312
39030SOL    HW118987  13.235   0.183   4.321
39030SOL    HW218988  13.320   0.112   4.218
39031SOL     OW18989   7.962   9.787   3.900
39031SOL    HW118990   7.867   9.785   3.914
39031SOL    HW218991   7.985   9.880   3.903
39032SOL     OW18992   6.767  11.837   6.639
39032SOL    HW118993   6.746  11.784   6.716
39032SOL    HW218994   6.711  11.802   6.569
39033SOL     OW18995   2.276  14.410   4.728
39033SOL    HW118996   2.258  14.502   4.745
39033SOL    HW218997   2.347  14.387   4.788
39034SOL     OW18998   3.661   0.736   0.956
39034SOL    HW118999   3.621   0.804   0.902
39034SOL    HW219000   3.643   0.655   0.909
39035SOL     OW19001  14.799   3.040   1.889
39035SOL    HW119002  14.806   2.945   1.892
39035SOL    HW219003   0.012   3.072   1.909
39036SOL     OW19004  13.086   9.680   2.452
39036SOL    HW119005  13.089   9.752   2.389
39036SOL    HW219006  13.155   9.620   2.423
39037SOL     OW19007   6.523   1.570  12.072
39037SOL    HW119008   6.520   1.595  12.165
39037SOL    HW219009   6.463   1.631  12.029
39038SOL     OW19010   3.092   4.666   4.838
39038SOL    HW119011   3.001   4.696   4.840
39038SOL    HW219012   3.144   4.746   4.847
39039SOL     OW19013   9.770  10.745  11.105
39039SOL    HW119014   9.760  10.779  11.194
39039SOL    HW219015   9.864  10.729  11.096
39040SOL     OW19016  11.930   7.370   1.443
39040SOL    HW119017  11.866   7.374   1.514
39040SOL    HW219018  12.011   7.404   1.482
39041SOL     OW19019   1.923   1.529   0.762
39041SOL    HW119020   1.837   1.498   0.789
39041SOL    HW219021   1.937   1.491   0.676
39042SOL     OW19022   4.692   1.790   4.926
39042SOL    HW119023   4.660   1.875   4.954
39042SOL    HW219024   4.702   1.798   4.831
39043SOL     OW19025   6.543  10.386   4.718
39043SOL    HW119026   6.633  10.362   4.694
39043SOL    HW219027   6.508  10.430   4.641
39044SOL     OW19028   5.705  10.691   0.033
39044SOL    HW119029   5.736  10.763   0.088
39044SOL    HW219030   5.610  10.699   0.033
39045SOL     OW19031   9.598   0.069  14.019
39045SOL    HW119032   9.505   0.055  14.005
39045SOL    HW219033   9.618   0.021  14.099
39046SOL     OW19034  12.196   0.136   1.298
39046SOL    HW119035  12.140   0.158   1.223
39046SOL    HW219036  12.147   0.069   1.345
39047SOL     OW19037   9.682   2.676  10.149
39047SOL    HW119038   9.660   2.592  10.109
39047SOL    HW219039   9.634   2.741  10.097
39048SOL     OW19040  13.377  10.100   7.627
39048SOL    HW119041  13.440  10.171   7.612
39048SOL    HW219042  13.405  10.030   7.567
39049SOL     OW19043   4.005   2.020   0.701
39049SOL    HW119044   3.951   1.946   0.729
39049SOL    HW219045   4.038   2.058   0.783
39050SOL     OW19046  14.562   1.955   5.047
39050SOL    HW119047  14.523   1.868   5.037
39050SOL    HW219048  14.621   1.947   5.122
39051SOL     OW19049  13.692   2.701   3.523
39051SOL    HW119050  13.600   2.677   3.510
39051SOL    HW219051  13.691   2.797   3.528
39052SOL     OW19052   4.733   1.074  11.813
39052SOL    HW119053   4.795   1.056  11.884
39052SOL    HW219054   4.755   1.162  11.783
39053SOL     OW19055  14.845   7.064   9.576
39053SOL    HW119056  14.767   7.017   9.604
39053SOL    HW219057   0.041   7.000   9.586
39054SOL     OW19058   7.310  10.331   6.208
39054SOL    HW119059   7.219  10.312   6.183
39054SOL    HW219060   7.315  10.303   6.299
39055SOL     OW19061   1.628  12.378   6.882
39055SOL    HW119062   1.680  12.434   6.824
39055SOL    HW219063   1.564  12.337   6.824
39056SOL     OW19064  12.773   5.218   4.234
39056SOL    HW119065  12.682   5.191   4.217
39056SOL    HW219066  12.784   5.299   4.184
39057SOL     OW19067   0.333   5.850   5.746
39057SOL    HW119068   0.320   5.764   5.705
39057SOL    HW219069   0.412   5.840   5.798
39058SOL     OW19070  11.415   7.357   0.105
39058SOL    HW119071  11.431   7.422   0.037
39058SOL    HW219072  11.379   7.282   0.057
39059SOL     OW19073   4.448   2.314   0.989
39059SOL    HW119074   4.376   2.371   0.964
39059SOL    HW219075   4.504   2.368   1.044
39060SOL     OW19076   0.437   9.673   6.208
39060SOL    HW119077   0.464   9.596   6.158
39060SOL    HW219078   0.358   9.705   6.164
39061SOL     OW19079   2.826  13.985   7.863
39061SOL    HW119080   2.834  13.994   7.958
39061SOL    HW219081   2.766  13.912   7.851
39062SOL     OW19082   9.016   2.515  11.200
39062SOL    HW119083   8.927   2.478  11.202
39062SOL    HW219084   9.073   2.442  11.223
39063SOL     OW19085   3.036  11.674   7.226
39063SOL    HW119086   3.045  11.768   7.213
39063SOL    HW219087   3.025  11.664   7.321
39064SOL     OW19088   4.847   7.588  10.464
39064SOL    HW119089   4.844   7.528  10.389
39064SOL    HW219090   4.754   7.604  10.485
39065SOL     OW19091   4.120   5.575   4.404
39065SOL    HW119092   4.039   5.523   4.402
39065SOL    HW219093   4.118   5.625   4.323
39066SOL     OW19094  11.483   6.227  14.522
39066SOL    HW119095  11.401   6.257  14.482
39066SOL    HW219096  11.531   6.187  14.450
39067SOL     OW19097  13.071   2.680   7.753
39067SOL    HW119098  13.076   2.602   7.697
39067SOL    HW219099  12.977   2.693   7.766
39068SOL     OW19100   8.241   4.640   5.696
39068SOL    HW119101   8.190   4.672   5.771
39068SOL    HW219102   8.275   4.555   5.724
39069SOL     OW19103   9.066   7.577   7.360
39069SOL    HW119104   9.083   7.530   7.441
39069SOL    HW219105   9.091   7.516   7.291
39070SOL     OW19106   5.853   9.677  11.634
39070SOL    HW119107   5.909   9.688  11.558
39070SOL    HW219108   5.913   9.655  11.705
39071SOL     OW19109  14.438  12.903   5.927
39071SOL    HW119110  14.513  12.851   5.958
39071SOL    HW219111  14.392  12.844   5.867
39072SOL     OW19112   1.814  10.254   4.346
39072SOL    HW119113   1.801  10.235   4.439
39072SOL    HW219114   1.727  10.274   4.313
39073SOL     OW19115   9.636   1.838   9.258
39073SOL    HW119116   9.613   1.820   9.349
39073SOL    HW219117   9.702   1.772   9.236
39074SOL     OW19118   3.369  11.486   5.999
39074SOL    HW119119   3.405  11.405   6.034
39074SOL    HW219120   3.303  11.513   6.064
39075SOL     OW19121   5.939  11.518   7.348
39075SOL    HW119122   5.860  11.516   7.294
39075SOL    HW219123   5.934  11.437   7.400
39076SOL     OW19124   3.290   3.064   9.237
39076SOL    HW119125   3.379   3.084   9.209
39076SOL    HW219126   3.296   2.975   9.272
39077SOL     OW19127   3.327  14.460   9.922
39077SOL    HW119128   3.396  14.488   9.862
39077SOL    HW219129   3.271  14.537   9.933
39078SOL     OW19130   9.316   3.328  14.243
39078SOL    HW119131   9.240   3.375  14.276
39078SOL    HW219132   9.314   3.243  14.287
39079SOL     OW19133  10.782  12.915   9.070
39079SOL    HW119134  10.862  12.962   9.048
39079SOL    HW219135  10.755  12.874   8.988
39080SOL     OW19136   1.130   8.745  13.683
39080SOL    HW119137   1.097   8.824  13.726
39080SOL    HW219138   1.139   8.681  13.754
39081SOL     OW19139   8.440   7.350   6.871
39081SOL    HW119140   8.413   7.441   6.855
39081SOL    HW219141   8.358   7.302   6.882
39082SOL     OW19142   3.487   6.142   4.464
39082SOL    HW119143   3.507   6.048   4.456
39082SOL    HW219144   3.517   6.165   4.552
39083SOL     OW19145   5.574   3.021   1.004
39083SOL    HW119146   5.649   3.004   0.947
39083SOL    HW219147   5.513   2.950   0.984
39084SOL     OW19148  12.348   4.204   7.162
39084SOL    HW119149  12.254   4.188   7.152
39084SOL    HW219150  12.390   4.127   7.124
39085SOL     OW19151   8.633  10.573   3.281
39085SOL    HW119152   8.608  10.507   3.216
39085SOL    HW219153   8.569  10.563   3.352
39086SOL     OW19154   1.501  12.842  12.554
39086SOL    HW119155   1.570  12.848  12.488
39086SOL    HW219156   1.515  12.758  12.597
39087SOL     OW19157  10.539   1.758   0.250
39087SOL    HW119158  10.602   1.830   0.251
39087SOL    HW219159  10.453   1.800   0.244
39088SOL     OW19160   7.071  13.550   2.241
39088SOL    HW119161   7.119  13.485   2.190
39088SOL    HW219162   7.005  13.584   2.180
39089SOL     OW19163  14.867   3.079  13.888
39089SOL    HW119164  14.857   3.113  13.977
39089SOL    HW219165  14.857   3.156  13.831
39090SOL     OW19166   5.837   2.811  11.948
39090SOL    HW119167   5.818   2.729  11.903
39090SOL    HW219168   5.883   2.864  11.883
39091SOL     OW19169   9.997   3.152   1.338
39091SOL    HW119170   9.942   3.104   1.275
39091SOL    HW219171   9.957   3.238   1.344
39092SOL     OW19172   1.550  11.930   9.034
39092SOL    HW119173   1.624  11.872   9.053
39092SOL    HW219174   1.509  11.891   8.956
39093SOL     OW19175   5.268  13.110   8.150
39093SOL    HW119176   5.236  13.150   8.230
39093SOL    HW219177   5.189  13.080   8.105
39094SOL     OW19178   6.421  14.156   2.337
39094SOL    HW119179   6.470  14.073   2.344
39094SOL    HW219180   6.423  14.177   2.244
39095SOL     OW19181   1.263   1.737   3.953
39095SOL    HW119182   1.188   1.746   3.894
39095SOL    HW219183   1.227   1.752   4.041
39096SOL     OW19184   1.439   1.466   5.250
39096SOL    HW119185   1.504   1.402   5.278
39096SOL    HW219186   1.463   1.487   5.160
39097SOL     OW19187  12.036  13.919   2.311
39097SOL    HW119188  12.070  13.889   2.395
39097SOL    HW219189  11.977  13.848   2.283
39098SOL     OW19190   8.588   7.523   0.261
39098SOL    HW119191   8.535   7.444   0.264
39098SOL    HW219192   8.548   7.582   0.326
39099SOL     OW19193  12.840   8.281   2.382
39099SOL    HW119194  12.806   8.354   2.433
39099SOL    HW219195  12.881   8.224   2.446
39100SOL     OW19196  11.294  14.033   3.195
39100SOL    HW119197  11.310  13.939   3.204
39100SOL    HW219198  11.322  14.055   3.107
39101SOL     OW19199   4.000   7.305   2.656
39101SOL    HW119200   4.046   7.388   2.673
39101SOL    HW219201   4.036   7.245   2.721
39102SOL     OW19202   7.382  10.323   4.278
39102SOL    HW119203   7.289  10.342   4.286
39102SOL    HW219204   7.392  10.286   4.190
39103SOL     OW19205   6.975  13.688  14.443
39103SOL    HW119206   6.912  13.699  14.515
39103SOL    HW219207   6.939  13.741  14.372
39104SOL     OW19208  13.338   3.837   5.622
39104SOL    HW119209  13.263   3.896   5.620
39104SOL    HW219210  13.304   3.757   5.662
39105SOL     OW19211   6.403   2.154   1.881
39105SOL    HW119212   6.385   2.062   1.903
39105SOL    HW219213   6.336   2.176   1.817
39106SOL     OW19214  13.996   7.759  12.511
39106SOL    HW119215  14.083   7.798  12.500
39106SOL    HW219216  13.989   7.695  12.440
39107SOL     OW19217   6.780  14.076   0.874
39107SOL    HW119218   6.818  14.043   0.792
39107SOL    HW219219   6.768  13.998   0.928
39108SOL     OW19220   6.136   2.894   4.592
39108SOL    HW119221   6.209   2.894   4.653
39108SOL    HW219222   6.144   2.977   4.545
39109SOL     OW19223  14.593  13.164   5.847
39109SOL    HW119224  14.564  13.186   5.759
39109SOL    HW219225  14.541  13.088   5.872
39110SOL     OW19226   0.632   0.384  14.401
39110SOL    HW119227   0.693   0.322  14.360
39110SOL    HW219228   0.562   0.329  14.436
39111SOL     OW19229   0.962  11.972   7.399
39111SOL    HW119230   0.908  12.034   7.448
39111SOL    HW219231   0.972  11.897   7.458
39112SOL     OW19232   3.455  12.024   1.967
39112SOL    HW119233   3.459  11.943   2.018
39112SOL    HW219234   3.363  12.030   1.939
39113SOL     OW19235   0.165   0.638   7.917
39113SOL    HW119236   0.148   0.609   8.007
39113SOL    HW219237   0.133   0.566   7.863
39114SOL     OW19238  12.442  10.335   8.813
39114SOL    HW119239  12.480  10.402   8.869
39114SOL    HW219240  12.499  10.332   8.736
39115SOL     OW19241  12.853   5.838  12.361
39115SOL    HW119242  12.857   5.902  12.290
39115SOL    HW219243  12.937   5.792  12.356
39116SOL     OW19244   8.324  10.316   7.297
39116SOL    HW119245   8.318  10.320   7.392
39116SOL    HW219246   8.312  10.407   7.268
39117SOL     OW19247   5.948   6.983   9.671
39117SOL    HW119248   6.022   6.939   9.711
39117SOL    HW219249   5.944   7.068   9.716
39118SOL     OW19250  11.520  12.395   6.465
39118SOL    HW119251  11.510  12.464   6.400
39118SOL    HW219252  11.561  12.439   6.540
39119SOL     OW19253  12.232   6.544   4.677
39119SOL    HW119254  12.181   6.463   4.692
39119SOL    HW219255  12.226   6.558   4.583
39120SOL     OW19256   6.594   7.352   1.876
39120SOL    HW119257   6.611   7.317   1.789
39120SOL    HW219258   6.660   7.420   1.888
39121SOL     OW19259  14.502   9.308   0.612
39121SOL    HW119260  14.535   9.391   0.649
39121SOL    HW219261  14.408   9.321   0.604
39122SOL     OW19262   5.892  13.849   2.834
39122SOL    HW119263   5.983  13.820   2.840
39122SOL    HW219264   5.866  13.866   2.925
39123SOL     OW19265  11.178   0.543   2.990
39123SOL    HW119266  11.223   0.608   3.042
39123SOL    HW219267  11.247   0.489   2.952
39124SOL     OW19268  12.289  12.850   1.077
39124SOL    HW119269  12.260  12.813   0.994
39124SOL    HW219270  12.302  12.943   1.059
39125SOL     OW19271   9.981   1.348   4.019
39125SOL    HW119272  10.075   1.359   4.038
39125SOL    HW219273   9.942   1.431   4.044
39126SOL     OW19274   7.214   7.262   4.201
39126SOL    HW119275   7.209   7.169   4.180
39126SOL    HW219276   7.260   7.265   4.285
39127SOL     OW19277   9.305  13.039  13.297
39127SOL    HW119278   9.357  13.019  13.219
39127SOL    HW219279   9.227  13.083  13.264
39128SOL     OW19280   6.405   7.394   2.615
39128SOL    HW119281   6.346   7.460   2.652
39128SOL    HW219282   6.473   7.444   2.571
39129SOL     OW19283   7.051   2.009  11.104
39129SOL    HW119284   7.110   1.934  11.108
39129SOL    HW219285   7.090   2.074  11.163
39130SOL     OW19286   5.390  10.394  11.945
39130SOL    HW119287   5.332  10.320  11.927
39130SOL    HW219288   5.477  10.356  11.949
39131SOL     OW19289   6.662   5.270   9.960
39131SOL    HW119290   6.667   5.201   9.893
39131SOL    HW219291   6.717   5.238  10.032
39132SOL     OW19292  12.519  14.062  14.633
39132SOL    HW119293  12.606  14.041  14.665
39132SOL    HW219294  12.462  14.056  14.710
39133SOL     OW19295   5.264   0.172   7.407
39133SOL    HW119296   5.201   0.216   7.350
39133SOL    HW219297   5.311   0.112   7.350
39134SOL     OW19298   0.419   7.119   1.787
39134SOL    HW119299   0.402   7.212   1.770
39134SOL    HW219300   0.332   7.080   1.793
39135SOL     OW19301   8.500  13.124   1.213
39135SOL    HW119302   8.568  13.123   1.281
39135SOL    HW219303   8.418  13.132   1.262
39136SOL     OW19304   0.046   6.279   0.216
39136SOL    HW119305  14.863   6.202   0.216
39136SOL    HW219306   0.035   6.318   0.302
39137SOL     OW19307  14.006  10.713  12.902
39137SOL    HW119308  13.979  10.634  12.856
39137SOL    HW219309  14.093  10.694  12.935
39138SOL     OW19310   5.024  12.176   8.972
39138SOL    HW119311   4.943  12.199   8.927
39138SOL    HW219312   5.086  12.158   8.901
39139SOL     OW19313   3.773  12.713   1.803
39139SOL    HW119314   3.770  12.645   1.871
39139SOL    HW219315   3.738  12.669   1.725
39140SOL     OW19316  13.808   7.416   5.964
39140SOL    HW119317  13.840   7.329   5.987
39140SOL    HW219318  13.792   7.459   6.048
39141SOL     OW19319   2.084   1.541   3.710
39141SOL    HW119320   2.179   1.554   3.721
39141SOL    HW219321   2.050   1.545   3.800
39142SOL     OW19322  12.661  14.365   0.072
39142SOL    HW119323  12.633  14.277   0.094
39142SOL    HW219324  12.692  14.402   0.155
39143SOL     OW19325  13.528   7.145   9.223
39143SOL    HW119326  13.452   7.190   9.186
39143SOL    HW219327  13.518   7.054   9.193
39144SOL     OW19328   9.726   7.515  12.005
39144SOL    HW119329   9.767   7.567  11.935
39144SOL    HW219330   9.674   7.579  12.054
39145SOL     OW19331   4.207  12.465   2.449
39145SOL    HW119332   4.269  12.523   2.494
39145SOL    HW219333   4.263  12.405   2.399
39146SOL     OW19334   1.240   1.746  14.715
39146SOL    HW119335   1.245   1.826  14.767
39146SOL    HW219336   1.297   1.684  14.760
39147SOL     OW19337  11.239  14.336   4.975
39147SOL    HW119338  11.167  14.398   4.987
39147SOL    HW219339  11.267  14.314   5.064
39148SOL     OW19340  13.845  14.349   6.266
39148SOL    HW119341  13.862  14.370   6.174
39148SOL    HW219342  13.847  14.433   6.311
39149SOL     OW19343   4.658   4.337   2.908
39149SOL    HW119344   4.645   4.380   2.824
39149SOL    HW219345   4.701   4.403   2.962
39150SOL     OW19346  14.765   3.655   0.490
39150SOL    HW119347  14.779   3.706   0.411
39150SOL    HW219348  14.842   3.598   0.496
39151SOL     OW19349   2.216  10.153   8.260
39151SOL    HW119350   2.198  10.084   8.195
39151SOL    HW219351   2.157  10.133   8.333
39152SOL     OW19352   8.790   1.301  12.726
39152SOL    HW119353   8.815   1.353  12.803
39152SOL    HW219354   8.713   1.252  12.755
39153SOL     OW19355   3.872   3.374  13.473
39153SOL    HW119356   3.820   3.375  13.393
39153SOL    HW219357   3.946   3.432  13.454
39154SOL     OW19358   8.650  10.584  14.658
39154SOL    HW119359   8.720  10.560  14.597
39154SOL    HW219360   8.588  10.633  14.604
39155SOL     OW19361   5.765  11.633  13.456
39155SOL    HW119362   5.816  11.712  13.434
39155SOL    HW219363   5.810  11.597  13.532
39156SOL     OW19364  10.107  13.407   9.097
39156SOL    HW119365  10.076  13.366   9.177
39156SOL    HW219366  10.049  13.375   9.029
39157SOL     OW19367  10.730  10.964   5.997
39157SOL    HW119368  10.755  10.950   6.088
39157SOL    HW219369  10.813  10.969   5.949
39158SOL     OW19370  12.589   6.441  12.411
39158SOL    HW119371  12.606   6.395  12.329
39158SOL    HW219372  12.500   6.475  12.401
39159SOL     OW19373   6.897  13.878  14.255
39159SOL    HW119374   6.895  13.967  14.290
39159SOL    HW219375   6.830  13.877  14.187
39160SOL     OW19376   3.389   4.009   7.069
39160SOL    HW119377   3.298   3.980   7.069
39160SOL    HW219378   3.437   3.937   7.108
39161SOL     OW19379   2.646  12.672   4.335
39161SOL    HW119380   2.680  12.635   4.254
39161SOL    HW219381   2.573  12.728   4.307
39162SOL     OW19382  12.960   5.565  12.179
39162SOL    HW119383  12.995   5.509  12.248
39162SOL    HW219384  12.985   5.522  12.098
39163SOL     OW19385   7.629  14.400  14.095
39163SOL    HW119386   7.617  14.305  14.097
39163SOL    HW219387   7.699  14.417  14.158
39164SOL     OW19388   9.962   9.800   4.178
39164SOL    HW119389  10.036   9.858   4.191
39164SOL    HW219390  10.001   9.714   4.161
39165SOL     OW19391   8.046  11.875   6.263
39165SOL    HW119392   8.136  11.884   6.230
39165SOL    HW219393   7.995  11.935   6.208
39166SOL     OW19394   1.656   5.797   1.694
39166SOL    HW119395   1.580   5.854   1.685
39166SOL    HW219396   1.730   5.856   1.707
39167SOL     OW19397   0.637   1.039  13.739
39167SOL    HW119398   0.662   1.000  13.823
39167SOL    HW219399   0.568   0.982  13.705
39168SOL     OW19400  14.370   3.469   3.070
39168SOL    HW119401  14.405   3.387   3.104
39168SOL    HW219402  14.352   3.522   3.148
39169SOL     OW19403   6.900  12.896  11.038
39169SOL    HW119404   6.919  12.893  10.944
39169SOL    HW219405   6.805  12.883  11.044
39170SOL     OW19406   8.712   3.314   1.617
39170SOL    HW119407   8.785   3.266   1.657
39170SOL    HW219408   8.697   3.388   1.676
39171SOL     OW19409  10.461   9.149   5.336
39171SOL    HW119410  10.420   9.231   5.365
39171SOL    HW219411  10.427   9.136   5.247
39172SOL     OW19412  13.725   8.378  13.387
39172SOL    HW119413  13.801   8.435  13.379
39172SOL    HW219414  13.682   8.407  13.468
39173SOL     OW19415   2.762  13.151  14.463
39173SOL    HW119416   2.828  13.213  14.493
39173SOL    HW219417   2.805  13.101  14.394
39174SOL     OW19418   0.231  13.353   8.035
39174SOL    HW119419   0.232  13.448   8.046
39174SOL    HW219420   0.321  13.329   8.016
39175SOL     OW19421   2.452   6.970  10.154
39175SOL    HW119422   2.358   6.955  10.151
39175SOL    HW219423   2.461   7.065  10.144
39176SOL     OW19424  14.611   2.858   4.317
39176SOL    HW119425  14.565   2.854   4.401
39176SOL    HW219426  14.617   2.767   4.288
39177SOL     OW19427   9.466  10.742   5.248
39177SOL    HW119428   9.409  10.679   5.204
39177SOL    HW219429   9.426  10.828   5.230
39178SOL     OW19430   6.210   8.560  11.151
39178SOL    HW119431   6.155   8.552  11.229
39178SOL    HW219432   6.272   8.487  11.159
39179SOL     OW19433   3.619   9.501  13.259
39179SOL    HW119434   3.590   9.432  13.318
39179SOL    HW219435   3.651   9.454  13.181
39180SOL     OW19436   1.671   5.618   1.504
39180SOL    HW119437   1.670   5.526   1.530
39180SOL    HW219438   1.676   5.666   1.587
39181SOL     OW19439  11.714   9.542   2.374
39181SOL    HW119440  11.707   9.482   2.448
39181SOL    HW219441  11.762   9.492   2.307
39182SOL     OW19442   1.772   9.130   9.992
39182SOL    HW119443   1.744   9.088   9.911
39182SOL    HW219444   1.746   9.068  10.061
39183SOL     OW19445  12.570   8.295  12.575
39183SOL    HW119446  12.503   8.302  12.643
39183SOL    HW219447  12.646   8.340  12.612
39184SOL     OW19448  10.764  12.967   0.490
39184SOL    HW119449  10.694  12.923   0.538
39184SOL    HW219450  10.733  13.058   0.481
39185SOL     OW19451  13.556   6.564   1.102
39185SOL    HW119452  13.579   6.492   1.160
39185SOL    HW219453  13.480   6.605   1.144
39186SOL     OW19454   7.382   7.040   1.071
39186SOL    HW119455   7.417   7.003   1.152
39186SOL    HW219456   7.441   7.008   1.002
39187SOL     OW19457   6.094   4.482   0.610
39187SOL    HW119458   6.038   4.412   0.576
39187SOL    HW219459   6.054   4.563   0.577
39188SOL     OW19460   3.745   4.814  12.296
39188SOL    HW119461   3.695   4.834  12.216
39188SOL    HW219462   3.687   4.839  12.367
39189SOL     OW19463   6.814   5.456   3.220
39189SOL    HW119464   6.766   5.382   3.256
39189SOL    HW219465   6.778   5.465   3.131
39190SOL     OW19466  10.355   9.270  13.791
39190SOL    HW119467  10.437   9.262  13.841
39190SOL    HW219468  10.306   9.191  13.813
39191SOL     OW19469   2.469   0.824  13.058
39191SOL    HW119470   2.534   0.821  13.128
39191SOL    HW219471   2.517   0.800  12.979
39192SOL     OW19472   0.674  13.792   2.358
39192SOL    HW119473   0.649  13.806   2.266
39192SOL    HW219474   0.708  13.876   2.387
39193SOL     OW19475   1.145   6.185  14.434
39193SOL    HW119476   1.181   6.273  14.424
39193SOL    HW219477   1.167   6.141  14.352
39194SOL     OW19478   6.967   9.081   9.351
39194SOL    HW119479   6.911   9.148   9.389
39194SOL    HW219480   6.909   9.032   9.293
39195SOL     OW19481   8.030   8.213   1.665
39195SOL    HW119482   8.024   8.223   1.570
39195SOL    HW219483   8.099   8.273   1.691
39196SOL     OW19484   3.245   2.730   0.435
39196SOL    HW119485   3.203   2.749   0.519
39196SOL    HW219486   3.224   2.805   0.380
39197SOL     OW19487  12.656  13.151  14.501
39197SOL    HW119488  12.636  13.150  14.594
39197SOL    HW219489  12.571  13.153  14.457
39198SOL     OW19490  12.229   4.669   3.147
39198SOL    HW119491  12.194   4.677   3.058
39198SOL    HW219492  12.290   4.595   3.142
39199SOL     OW19493   0.940   4.200  14.108
39199SOL    HW119494   0.953   4.124  14.164
39199SOL    HW219495   0.850   4.227  14.123
39200SOL     OW19496   4.510  14.794   1.569
39200SOL    HW119497   4.460  14.750   1.638
39200SOL    HW219498   4.585  14.832   1.614
39201SOL     OW19499   6.693   5.640   8.170
39201SOL    HW119500   6.651   5.718   8.205
39201SOL    HW219501   6.786   5.652   8.189
39202SOL     OW19502  13.996   9.445   0.411
39202SOL    HW119503  14.003   9.438   0.316
39202SOL    HW219504  13.937   9.518   0.426
39203SOL     OW19505   6.940  12.019   6.725
39203SOL    HW119506   6.881  11.962   6.676
39203SOL    HW219507   7.024  11.973   6.724
39204SOL     OW19508   3.489   4.431  11.673
39204SOL    HW119509   3.504   4.367  11.603
39204SOL    HW219510   3.399   4.461  11.658
39205SOL     OW19511  10.288   9.256   6.433
39205SOL    HW119512  10.250   9.339   6.404
39205SOL    HW219513  10.268   9.195   6.362
39206SOL     OW19514   9.409   1.716   5.058
39206SOL    HW119515   9.411   1.665   4.977
39206SOL    HW219516   9.461   1.665   5.120
39207SOL     OW19517   6.077  14.099   2.227
39207SOL    HW119518   5.995  14.134   2.194
39207SOL    HW219519   6.140  14.117   2.157
39208SOL     OW19520   4.835   1.266   1.369
39208SOL    HW119521   4.810   1.177   1.395
39208SOL    HW219522   4.931   1.265   1.372
39209SOL     OW19523  14.384  13.710  11.870
39209SOL    HW119524  14.444  13.773  11.830
39209SOL    HW219525  14.423  13.691  11.955
39210SOL     OW19526   2.106  12.167   7.162
39210SOL    HW119527   2.125  12.133   7.074
39210SOL    HW219528   2.185  12.148   7.212
39211SOL     OW19529   2.339  13.851   5.321
39211SOL    HW119530   2.407  13.786   5.301
39211SOL    HW219531   2.373  13.898   5.397
39212SOL     OW19532  11.019   7.700   9.101
39212SOL    HW119533  10.976   7.616   9.116
39212SOL    HW219534  10.950   7.765   9.115
39213SOL     OW19535   6.099   0.250   0.862
39213SOL    HW119536   6.078   0.265   0.770
39213SOL    HW219537   6.190   0.278   0.872
39214SOL     OW19538   3.140   6.817  11.837
39214SOL    HW119539   3.066   6.877  11.832
39214SOL    HW219540   3.217   6.873  11.830
39215SOL     OW19541   4.453   1.914  11.792
39215SOL    HW119542   4.397   1.990  11.804
39215SOL    HW219543   4.425   1.877  11.709
39216SOL     OW19544   9.770  12.325   6.596
39216SOL    HW119545   9.695  12.265   6.595
39216SOL    HW219546   9.847  12.269   6.587
39217SOL     OW19547  14.238   1.331   8.981
39217SOL    HW119548  14.306   1.297   9.038
39217SOL    HW219549  14.201   1.406   9.029
39218SOL     OW19550  14.304  14.235   8.771
39218SOL    HW119551  14.251  14.172   8.821
39218SOL    HW219552  14.373  14.261   8.832
39219SOL     OW19553   9.102  13.623   9.993
39219SOL    HW119554   9.020  13.666  10.019
39219SOL    HW219555   9.133  13.674   9.918
39220SOL     OW19556   5.299   0.862   5.602
39220SOL    HW119557   5.353   0.863   5.523
39220SOL    HW219558   5.355   0.821   5.668
39221SOL     OW19559   4.877   2.038  13.198
39221SOL    HW119560   4.874   1.979  13.122
39221SOL    HW219561   4.788   2.075  13.203
39222SOL     OW19562   2.326   4.267  13.427
39222SOL    HW119563   2.329   4.237  13.337
39222SOL    HW219564   2.320   4.362  13.420
39223SOL     OW19565   7.606   7.558   3.245
39223SOL    HW119566   7.562   7.620   3.187
39223SOL    HW219567   7.681   7.607   3.280
39224SOL     OW19568  10.405   8.881  10.987
39224SOL    HW119569  10.416   8.870  11.082
39224SOL    HW219570  10.492   8.909  10.956
39225SOL     OW19571  10.522  14.128   7.296
39225SOL    HW119572  10.549  14.219   7.301
39225SOL    HW219573  10.533  14.105   7.204
39226SOL     OW19574   7.206  14.031   2.768
39226SOL    HW119575   7.301  14.036   2.768
39226SOL    HW219576   7.179  14.081   2.690
39227SOL     OW19577  14.167  12.385  13.522
39227SOL    HW119578  14.087  12.355  13.566
39227SOL    HW219579  14.183  12.319  13.455
39228SOL     OW19580   1.388  10.341   9.216
39228SOL    HW119581   1.320  10.289   9.257
39228SOL    HW219582   1.432  10.281   9.155
39229SOL     OW19583   7.431   0.770   3.941
39229SOL    HW119584   7.503   0.777   3.878
39229SOL    HW219585   7.472   0.733   4.019
39230SOL     OW19586  11.738  12.925   8.218
39230SOL    HW119587  11.705  12.929   8.308
39230SOL    HW219588  11.794  12.848   8.216
39231SOL     OW19589   6.778   7.488  10.065
39231SOL    HW119590   6.837   7.422  10.102
39231SOL    HW219591   6.715   7.437  10.014
39232SOL     OW19592   6.359   4.393   9.839
39232SOL    HW119593   6.413   4.468   9.815
39232SOL    HW219594   6.404   4.318   9.803
39233SOL     OW19595   7.641  13.942  11.204
39233SOL    HW119596   7.575  13.905  11.145
39233SOL    HW219597   7.592  14.005  11.258
39234SOL     OW19598   0.546  11.922   3.742
39234SOL    HW119599   0.480  11.919   3.673
39234SOL    HW219600   0.496  11.943   3.821
39235SOL     OW19601   9.125   5.780   1.394
39235SOL    HW119602   9.145   5.855   1.450
39235SOL    HW219603   9.163   5.802   1.310
39236SOL     OW19604   9.737   6.665   7.530
39236SOL    HW119605   9.799   6.733   7.554
39236SOL    HW219606   9.684   6.705   7.461
39237SOL     OW19607   9.170  11.071   9.110
39237SOL    HW119608   9.241  11.064   9.046
39237SOL    HW219609   9.174  10.989   9.159
39238SOL     OW19610  14.341   6.370  10.452
39238SOL    HW119611  14.417   6.352  10.398
39238SOL    HW219612  14.360   6.327  10.536
39239SOL     OW19613   6.590   9.479   7.274
39239SOL    HW119614   6.502   9.507   7.298
39239SOL    HW219615   6.642   9.492   7.353
39240SOL     OW19616   2.142  10.558   9.923
39240SOL    HW119617   2.065  10.578   9.976
39240SOL    HW219618   2.110  10.557   9.833
39241SOL     OW19619   7.226   7.190  12.640
39241SOL    HW119620   7.169   7.160  12.710
39241SOL    HW219621   7.203   7.282  12.628
39242SOL     OW19622  10.119   0.949   2.745
39242SOL    HW119623  10.069   0.871   2.770
39242SOL    HW219624  10.136   0.994   2.827
39243SOL     OW19625  13.239   4.129   5.059
39243SOL    HW119626  13.263   4.211   5.101
39243SOL    HW219627  13.193   4.154   4.980
39244SOL     OW19628  14.718   3.501  12.295
39244SOL    HW119629  14.644   3.441  12.308
39244SOL    HW219630  14.716   3.558  12.371
39245SOL     OW19631   4.248   8.370   9.113
39245SOL    HW119632   4.210   8.311   9.178
39245SOL    HW219633   4.320   8.413   9.159
39246SOL     OW19634   0.417  10.043   8.196
39246SOL    HW119635   0.458  10.124   8.165
39246SOL    HW219636   0.476  10.012   8.265
39247SOL     OW19637   2.873   2.622   0.926
39247SOL    HW119638   2.801   2.593   0.870
39247SOL    HW219639   2.861   2.717   0.934
39248SOL     OW19640   7.202   6.378   2.058
39248SOL    HW119641   7.163   6.394   2.143
39248SOL    HW219642   7.185   6.285   2.041
39249SOL     OW19643  14.321  13.299  13.007
39249SOL    HW119644  14.378  13.258  12.942
39249SOL    HW219645  14.256  13.232  13.027
39250SOL     OW19646  14.001  13.189   0.355
39250SOL    HW119647  13.938  13.118   0.366
39250SOL    HW219648  13.953  13.256   0.306
39251SOL     OW19649   9.362   8.158   6.699
39251SOL    HW119650   9.414   8.092   6.743
39251SOL    HW219651   9.384   8.240   6.744
39252SOL     OW19652  14.703  11.223   5.713
39252SOL    HW119653  14.663  11.215   5.626
39252SOL    HW219654  14.793  11.194   5.700
39253SOL     OW19655   4.166   2.261   6.367
39253SOL    HW119656   4.183   2.169   6.385
39253SOL    HW219657   4.211   2.308   6.438
39254SOL     OW19658   4.382  13.202   8.418
39254SOL    HW119659   4.413  13.292   8.425
39254SOL    HW219660   4.410  13.160   8.499
39255SOL     OW19661   5.675   7.583   9.661
39255SOL    HW119662   5.667   7.490   9.680
39255SOL    HW219663   5.730   7.588   9.583
39256SOL     OW19664   2.060  11.358  10.723
39256SOL    HW119665   1.975  11.395  10.748
39256SOL    HW219666   2.038  11.279  10.673
39257SOL     OW19667  10.647  10.167  13.536
39257SOL    HW119668  10.720  10.173  13.597
39257SOL    HW219669  10.684  10.190  13.451
39258SOL     OW19670  13.787   6.326  11.906
39258SOL    HW119671  13.742   6.351  11.986
39258SOL    HW219672  13.830   6.243  11.927
39259SOL     OW19673   1.800   1.076   3.701
39259SOL    HW119674   1.726   1.135   3.686
39259SOL    HW219675   1.799   1.016   3.627
39260SOL     OW19676  14.586  10.736   4.460
39260SOL    HW119677  14.499  10.699   4.472
39260SOL    HW219678  14.593  10.804   4.527
39261SOL     OW19679  14.138  10.716   2.146
39261SOL    HW119680  14.098  10.802   2.134
39261SOL    HW219681  14.063  10.656   2.151
39262SOL     OW19682   3.298  12.682   9.884
39262SOL    HW119683   3.309  12.673   9.789
39262SOL    HW219684   3.222  12.627   9.904
39263SOL     OW19685   4.562  14.139   4.922
39263SOL    HW119686   4.641  14.086   4.935
39263SOL    HW219687   4.566  14.205   4.990
39264SOL     OW19688  10.543  10.157   1.535
39264SOL    HW119689  10.455  10.193   1.543
39264SOL    HW219690  10.568  10.133   1.625
39265SOL     OW19691   3.867  10.251   8.704
39265SOL    HW119692   3.878  10.344   8.726
39265SOL    HW219693   3.942  10.231   8.648
39266SOL     OW19694   7.016   7.531   9.731
39266SOL    HW119695   6.980   7.553   9.645
39266SOL    HW219696   7.023   7.435   9.730
39267SOL     OW19697  11.629   0.866   1.471
39267SOL    HW119698  11.723   0.862   1.454
39267SOL    HW219699  11.618   0.943   1.527
39268SOL     OW19700   4.629   8.346  14.770
39268SOL    HW119701   4.593   8.379  14.687
39268SOL    HW219702   4.654   8.256  14.751
39269SOL     OW19703  13.605   3.578   5.598
39269SOL    HW119704  13.518   3.591   5.637
39269SOL    HW219705  13.659   3.647   5.636
39270SOL     OW19706   3.383   5.646  12.758
39270SOL    HW119707   3.324   5.575  12.785
39270SOL    HW219708   3.463   5.601  12.729
39271SOL     OW19709   6.981   8.384   4.571
39271SOL    HW119710   6.932   8.305   4.597
39271SOL    HW219711   7.060   8.382   4.626
39272SOL     OW19712   3.072   0.728  10.147
39272SOL    HW119713   3.081   0.823  10.144
39272SOL    HW219714   2.978   0.713  10.157
39273SOL     OW19715   0.731   6.868  13.599
39273SOL    HW119716   0.752   6.837  13.511
39273SOL    HW219717   0.784   6.812  13.657
39274SOL     OW19718   2.926  10.848   0.044
39274SOL    HW119719   2.958  10.938   0.039
39274SOL    HW219720   2.972  10.803  14.848
39275SOL     OW19721   3.327   8.140   2.654
39275SOL    HW119722   3.403   8.196   2.639
39275SOL    HW219723   3.356   8.078   2.721
39276SOL     OW19724   1.079  12.820  13.724
39276SOL    HW119725   1.089  12.909  13.756
39276SOL    HW219726   1.023  12.777  13.788
39277SOL     OW19727   9.634  10.767  12.073
39277SOL    HW119728   9.557  10.758  12.128
39277SOL    HW219729   9.657  10.677  12.049
39278SOL     OW19730   5.187   6.461  13.643
39278SOL    HW119731   5.097   6.486  13.625
39278SOL    HW219732   5.238   6.507  13.576
39279SOL     OW19733   9.005   9.943   3.507
39279SOL    HW119734   9.073   9.918   3.444
39279SOL    HW219735   8.977  10.030   3.478
39280SOL     OW19736   1.802   2.902  10.449
39280SOL    HW119737   1.802   2.847  10.527
39280SOL    HW219738   1.745   2.975  10.471
39281SOL     OW19739   6.322   7.677  14.080
39281SOL    HW119740   6.387   7.611  14.104
39281SOL    HW219741   6.303   7.660  13.987
39282SOL     OW19742   2.295  13.875  10.219
39282SOL    HW119743   2.219  13.920  10.182
39282SOL    HW219744   2.360  13.875  10.148
39283SOL     OW19745  11.031   9.032   2.422
39283SOL    HW119746  11.074   9.085   2.355
39283SOL    HW219747  11.035   8.942   2.387
39284SOL     OW19748  12.630  11.007  14.326
39284SOL    HW119749  12.683  10.931  14.300
39284SOL    HW219750  12.647  11.017  14.420
39285SOL     OW19751  13.296   7.190  13.601
39285SOL    HW119752  13.293   7.286  13.603
39285SOL    HW219753  13.372   7.169  13.547
39286SOL     OW19754   0.948   9.389   1.352
39286SOL    HW119755   0.942   9.470   1.302
39286SOL    HW219756   0.857   9.363   1.367
39287SOL     OW19757   9.775   3.143  14.868
39287SOL    HW119758   9.810   3.166   0.079
39287SOL    HW219759   9.786   3.048  14.862
39288SOL     OW19760  14.430   9.355   1.850
39288SOL    HW119761  14.499   9.354   1.783
39288SOL    HW219762  14.348   9.358   1.801
39289SOL     OW19763   0.897   5.616   9.714
39289SOL    HW119764   0.847   5.539   9.741
39289SOL    HW219765   0.978   5.580   9.677
39290SOL     OW19766   5.508  14.787  12.855
39290SOL    HW119767   5.421  14.827  12.856
39290SOL    HW219768   5.563  14.848  12.906
39291SOL     OW19769   2.824   9.103  12.920
39291SOL    HW119770   2.738   9.076  12.954
39291SOL    HW219771   2.818   9.085  12.826
39292SOL     OW19772   8.457   0.848   6.512
39292SOL    HW119773   8.501   0.921   6.557
39292SOL    HW219774   8.366   0.854   6.541
39293SOL     OW19775   2.238   4.356  11.553
39293SOL    HW119776   2.280   4.427  11.504
39293SOL    HW219777   2.291   4.348  11.633
39294SOL     OW19778   1.340   6.754   6.788
39294SOL    HW119779   1.355   6.692   6.717
39294SOL    HW219780   1.306   6.701   6.860
39295SOL     OW19781   1.124   8.093  11.218
39295SOL    HW119782   1.067   8.082  11.142
39295SOL    HW219783   1.208   8.118  11.181
39296SOL     OW19784   7.164   5.562   7.698
39296SOL    HW119785   7.120   5.484   7.731
39296SOL    HW219786   7.255   5.551   7.726
39297SOL     OW19787   2.001   1.876   6.845
39297SOL    HW119788   2.070   1.938   6.867
39297SOL    HW219789   1.919   1.926   6.855
39298SOL     OW19790  14.636   2.633  10.832
39298SOL    HW119791  14.654   2.688  10.756
39298SOL    HW219792  14.651   2.544  10.801
39299SOL     OW19793   0.400   7.033   9.074
39299SOL    HW119794   0.383   7.063   9.163
39299SOL    HW219795   0.316   7.000   9.044
39300SOL     OW19796   0.515  12.063   7.802
39300SOL    HW119797   0.590  12.096   7.851
39300SOL    HW219798   0.545  11.980   7.765
39301SOL     OW19799   2.747   3.118  10.076
39301SOL    HW119800   2.750   3.214  10.084
39301SOL    HW219801   2.680   3.091  10.139
39302SOL     OW19802   8.796  13.257   6.136
39302SOL    HW119803   8.882  13.286   6.168
39302SOL    HW219804   8.748  13.337   6.121
39303SOL     OW19805   7.918  11.574  14.827
39303SOL    HW119806   7.870  11.650  14.862
39303SOL    HW219807   7.866  11.545  14.752
39304SOL     OW19808  14.180   2.513   9.795
39304SOL    HW119809  14.228   2.437   9.762
39304SOL    HW219810  14.200   2.515   9.889
39305SOL     OW19811  10.153   5.099   2.642
39305SOL    HW119812  10.152   5.146   2.725
39305SOL    HW219813  10.183   5.164   2.578
39306SOL     OW19814   0.823   5.316   3.428
39306SOL    HW119815   0.812   5.397   3.378
39306SOL    HW219816   0.836   5.345   3.518
39307SOL     OW19817   1.587   8.845   5.842
39307SOL    HW119818   1.636   8.927   5.855
39307SOL    HW219819   1.629   8.783   5.901
39308SOL     OW19820   3.874   0.708   4.184
39308SOL    HW119821   3.856   0.614   4.180
39308SOL    HW219822   3.967   0.716   4.166
39309SOL     OW19823   1.151  11.795   3.900
39309SOL    HW119824   1.087  11.862   3.876
39309SOL    HW219825   1.192  11.771   3.817
39310SOL     OW19826   4.918   7.597  11.636
39310SOL    HW119827   5.010   7.622  11.627
39310SOL    HW219828   4.904   7.532  11.568
39311SOL     OW19829   3.904  10.223   1.685
39311SOL    HW119830   3.918  10.255   1.596
39311SOL    HW219831   3.950  10.139   1.688
39312SOL     OW19832   4.659   2.628  10.891
39312SOL    HW119833   4.563   2.629  10.900
39312SOL    HW219834   4.687   2.554  10.946
39313SOL     OW19835  14.149  10.785   4.696
39313SOL    HW119836  14.072  10.834   4.667
39313SOL    HW219837  14.112  10.713   4.748
39314SOL     OW19838   9.828   0.839   0.105
39314SOL    HW119839   9.774   0.766   0.136
39314SOL    HW219840   9.770   0.915   0.111
39315SOL     OW19841   1.290  10.450   0.005
39315SOL    HW119842   1.257  10.537   0.029
39315SOL    HW219843   1.354  10.430   0.073
39316SOL     OW19844   6.761  10.393  11.265
39316SOL    HW119845   6.760  10.488  11.257
39316SOL    HW219846   6.852  10.372  11.289
39317SOL     OW19847  10.444   3.961   4.220
39317SOL    HW119848  10.520   3.927   4.172
39317SOL    HW219849  10.368   3.924   4.176
39318SOL     OW19850  13.062  11.571  10.999
39318SOL    HW119851  13.086  11.643  10.941
39318SOL    HW219852  13.038  11.500  10.940
39319SOL     OW19853   5.956   8.929  11.786
39319SOL    HW119854   5.902   8.883  11.721
39319SOL    HW219855   6.004   8.994  11.735
39320SOL     OW19856   9.212   1.300   3.143
39320SOL    HW119857   9.181   1.349   3.219
39320SOL    HW219858   9.158   1.331   3.071
39321SOL     OW19859  12.493  14.081  13.392
39321SOL    HW119860  12.429  14.021  13.354
39321SOL    HW219861  12.484  14.068  13.487
39322SOL     OW19862   3.170   3.888   3.837
39322SOL    HW119863   3.139   3.897   3.927
39322SOL    HW219864   3.208   3.973   3.815
39323SOL     OW19865   3.626   2.540   1.252
39323SOL    HW119866   3.624   2.545   1.348
39323SOL    HW219867   3.619   2.631   1.223
39324SOL     OW19868   6.452   5.407  13.365
39324SOL    HW119869   6.362   5.418  13.394
39324SOL    HW219870   6.504   5.451  13.433
39325SOL     OW19871   2.594  13.550   0.253
39325SOL    HW119872   2.525  13.496   0.291
39325SOL    HW219873   2.662  13.554   0.322
39326SOL     OW19874  13.753   2.610   9.609
39326SOL    HW119875  13.810   2.592   9.535
39326SOL    HW219876  13.727   2.524   9.642
39327SOL     OW19877  11.198  12.695   7.171
39327SOL    HW119878  11.140  12.629   7.209
39327SOL    HW219879  11.259  12.644   7.117
39328SOL     OW19880  13.718  10.420   2.040
39328SOL    HW119881  13.775  10.361   1.992
39328SOL    HW219882  13.690  10.369   2.116
39329SOL     OW19883   4.261   3.654  11.412
39329SOL    HW119884   4.186   3.634  11.355
39329SOL    HW219885   4.223   3.706  11.483
39330SOL     OW19886   4.606   2.708  13.367
39330SOL    HW119887   4.654   2.771  13.421
39330SOL    HW219888   4.518   2.706  13.404
39331SOL     OW19889   9.975   6.123   9.399
39331SOL    HW119890  10.063   6.089   9.417
39331SOL    HW219891   9.916   6.053   9.428
39332SOL     OW19892  11.161   3.461   2.818
39332SOL    HW119893  11.166   3.541   2.766
39332SOL    HW219894  11.124   3.489   2.902
39333SOL     OW19895   7.156   9.745   9.988
39333SOL    HW119896   7.076   9.753   9.937
39333SOL    HW219897   7.130   9.767  10.077
39334SOL     OW19898   3.477   5.635   5.840
39334SOL    HW119899   3.391   5.660   5.808
39334SOL    HW219900   3.480   5.540   5.830
39335SOL     OW19901   9.305  12.721   3.818
39335SOL    HW119902   9.318  12.630   3.789
39335SOL    HW219903   9.236  12.715   3.884
39336SOL     OW19904   3.768   7.596  12.039
39336SOL    HW119905   3.728   7.545  11.968
39336SOL    HW219906   3.737   7.686  12.023
39337SOL     OW19907   8.864   4.360   3.102
39337SOL    HW119908   8.915   4.284   3.071
39337SOL    HW219909   8.887   4.367   3.194
39338SOL     OW19910   5.777  14.253   6.468
39338SOL    HW119911   5.778  14.176   6.525
39338SOL    HW219912   5.699  14.241   6.413
39339SOL     OW19913   3.388   4.597   1.468
39339SOL    HW119914   3.393   4.506   1.437
39339SOL    HW219915   3.366   4.647   1.389
39340SOL     OW19916  11.990   9.952  11.944
39340SOL    HW119917  11.951   9.865  11.934
39340SOL    HW219918  11.922  10.003  11.989
39341SOL     OW19919  13.002  13.048   7.853
39341SOL    HW119920  13.064  13.064   7.781
39341SOL    HW219921  12.988  13.134   7.893
39342SOL     OW19922   9.992   8.719   6.760
39342SOL    HW119923  10.053   8.717   6.834
39342SOL    HW219924   9.944   8.801   6.771
39343SOL     OW19925   3.541   3.971  13.165
39343SOL    HW119926   3.476   3.923  13.216
39343SOL    HW219927   3.513   4.062  13.169
39344SOL     OW19928   5.726   4.411   2.701
39344SOL    HW119929   5.759   4.352   2.633
39344SOL    HW219930   5.799   4.420   2.762
39345SOL     OW19931   6.803   7.291   1.680
39345SOL    HW119932   6.825   7.369   1.629
39345SOL    HW219933   6.881   7.273   1.733
39346SOL     OW19934   0.946  12.217   5.488
39346SOL    HW119935   0.904  12.169   5.416
39346SOL    HW219936   1.023  12.165   5.510
39347SOL     OW19937  10.905   6.556  14.104
39347SOL    HW119938  10.939   6.476  14.142
39347SOL    HW219939  10.916   6.545  14.009
39348SOL     OW19940   9.341   7.103   1.218
39348SOL    HW119941   9.404   7.173   1.200
39348SOL    HW219942   9.272   7.145   1.269
39349SOL     OW19943   4.708  10.040   2.700
39349SOL    HW119944   4.729  10.092   2.623
39349SOL    HW219945   4.645   9.974   2.668
39350SOL     OW19946  14.221   0.237   3.746
39350SOL    HW119947  14.153   0.173   3.726
39350SOL    HW219948  14.184   0.291   3.816
39351SOL     OW19949   8.055   6.933  12.678
39351SOL    HW119950   8.096   6.886  12.605
39351SOL    HW219951   8.112   7.008  12.694
39352SOL     OW19952  10.167   6.844   1.962
39352SOL    HW119953  10.251   6.868   1.923
39352SOL    HW219954  10.190   6.802   2.045
39353SOL     OW19955   6.040   5.584   1.160
39353SOL    HW119956   5.985   5.508   1.140
39353SOL    HW219957   6.126   5.562   1.123
39354SOL     OW19958   6.858  14.572  10.308
39354SOL    HW119959   6.874  14.567  10.403
39354SOL    HW219960   6.810  14.492  10.288
39355SOL     OW19961   1.301  14.363  10.239
39355SOL    HW119962   1.297  14.455  10.213
39355SOL    HW219963   1.276  14.315  10.161
39356SOL     OW19964   9.669   3.282   4.160
39356SOL    HW119965   9.596   3.279   4.222
39356SOL    HW219966   9.724   3.354   4.191
39357SOL     OW19967   5.503   2.030   1.755
39357SOL    HW119968   5.443   1.987   1.817
39357SOL    HW219969   5.474   2.122   1.754
39358SOL     OW19970  13.933   0.995   1.568
39358SOL    HW119971  13.942   1.081   1.528
39358SOL    HW219972  13.874   1.008   1.642
39359SOL     OW19973  12.640   0.981   2.102
39359SOL    HW119974  12.554   1.015   2.128
39359SOL    HW219975  12.647   0.896   2.145
39360SOL     OW19976   3.606   2.464  12.353
39360SOL    HW119977   3.690   2.478  12.309
39360SOL    HW219978   3.553   2.417  12.288
39361SOL     OW19979   4.843   8.707  13.118
39361SOL    HW119980   4.760   8.745  13.146
39361SOL    HW219981   4.845   8.719  13.023
39362SOL     OW19982  14.719  10.611   5.965
39362SOL    HW119983  14.745  10.530   5.920
39362SOL    HW219984  14.672  10.661   5.899
39363SOL     OW19985   8.481   9.885   1.028
39363SOL    HW119986   8.458   9.965   1.074
39363SOL    HW219987   8.571   9.898   1.000
39364SOL     OW19988  14.636   5.401   6.777
39364SOL    HW119989  14.710   5.439   6.730
39364SOL    HW219990  14.655   5.307   6.781
39365SOL     OW19991  12.103  10.675   4.281
39365SOL    HW119992  12.043  10.749   4.288
39365SOL    HW219993  12.189  10.715   4.266
39366SOL     OW19994  10.750   6.890   6.164
39366SOL    HW119995  10.682   6.824   6.178
39366SOL    HW219996  10.730   6.959   6.228
39367SOL     OW19997  10.795  13.292   8.684
39367SOL    HW119998  10.706  13.292   8.649
39367SOL    HW219999  10.833  13.209   8.654
39368SOL     OW20000  13.237   3.720   2.277
39368SOL    HW120001  13.304   3.724   2.208
39368SOL    HW220002  13.176   3.652   2.247
39369SOL     OW20003  11.014   0.712  14.663
39369SOL    HW120004  11.092   0.713  14.718
39369SOL    HW220005  10.965   0.789  14.691
39370SOL     OW20006  12.866   4.314   2.754
39370SOL    HW120007  12.953   4.321   2.715
39370SOL    HW220008  12.828   4.236   2.713
39371SOL     OW20009   9.357  12.022   7.278
39371SOL    HW120010   9.380  12.089   7.343
39371SOL    HW220011   9.278  11.981   7.312
39372SOL     OW20012  12.474   8.935   8.899
39372SOL    HW120013  12.537   8.999   8.930
39372SOL    HW220014  12.412   8.986   8.846
39373SOL     OW20015   9.205  13.087   4.337
39373SOL    HW120016   9.255  13.166   4.317
39373SOL    HW220017   9.257  13.042   4.403
39374SOL     OW20018   2.541   1.897   5.314
39374SOL    HW120019   2.454   1.914   5.350
39374SOL    HW220020   2.570   1.982   5.280
39375SOL     OW20021  13.594   0.996   7.329
39375SOL    HW120022  13.661   1.064   7.337
39375SOL    HW220023  13.512   1.041   7.347
39376SOL     OW20024   0.324   0.461  12.863
39376SOL    HW120025   0.332   0.554  12.841
39376SOL    HW220026   0.318   0.417  12.778
39377SOL     OW20027   9.675   3.256   5.675
39377SOL    HW120028   9.595   3.270   5.624
39377SOL    HW220029   9.693   3.340   5.717
39378SOL     OW20030   3.513   6.862   9.443
39378SOL    HW120031   3.473   6.919   9.377
39378SOL    HW220032   3.489   6.902   9.526
39379SOL     OW20033   2.111  10.242   3.326
39379SOL    HW120034   2.142  10.332   3.334
39379SOL    HW220035   2.033  10.238   3.381
39380SOL     OW20036   5.066   6.312  14.789
39380SOL    HW120037   5.026   6.385  14.837
39380SOL    HW220038   5.008   6.297  14.715
39381SOL     OW20039   7.262   3.893   1.917
39381SOL    HW120040   7.221   3.807   1.927
39381SOL    HW220041   7.193   3.955   1.941
39382SOL     OW20042   9.815   1.475   0.464
39382SOL    HW120043   9.888   1.448   0.407
39382SOL    HW220044   9.738   1.469   0.407
39383SOL     OW20045   2.134  14.075   7.267
39383SOL    HW120046   2.214  14.056   7.316
39383SOL    HW220047   2.134  14.011   7.196
39384SOL     OW20048   3.487   7.609  12.868
39384SOL    HW120049   3.579   7.612  12.893
39384SOL    HW220050   3.480   7.671  12.795
39385SOL     OW20051   9.481   8.186   4.179
39385SOL    HW120052   9.566   8.159   4.144
39385SOL    HW220053   9.448   8.250   4.116
39386SOL     OW20054   7.136   1.584  13.962
39386SOL    HW120055   7.097   1.629  13.887
39386SOL    HW220056   7.115   1.491  13.948
39387SOL     OW20057   4.692   6.648   2.132
39387SOL    HW120058   4.775   6.669   2.175
39387SOL    HW220059   4.628   6.702   2.178
39388SOL     OW20060   0.426   9.105   9.703
39388SOL    HW120061   0.442   9.161   9.627
39388SOL    HW220062   0.369   9.035   9.671
39389SOL     OW20063   2.168   3.770   8.962
39389SOL    HW120064   2.157   3.857   9.001
39389SOL    HW220065   2.249   3.776   8.913
39390SOL     OW20066  12.396  12.129   2.787
39390SOL    HW120067  12.476  12.180   2.799
39390SOL    HW220068  12.425  12.039   2.774
39391SOL     OW20069  11.769   9.056   0.278
39391SOL    HW120070  11.681   9.072   0.314
39391SOL    HW220071  11.769   9.103   0.195
39392SOL     OW20072  14.511   5.905  13.546
39392SOL    HW120073  14.467   5.990  13.554
39392SOL    HW220074  14.479   5.854  13.620
39393SOL     OW20075  12.466   9.676   2.950
39393SOL    HW120076  12.467   9.585   2.981
39393SOL    HW220077  12.466   9.728   3.031
39394SOL     OW20078  14.753   9.484   0.347
39394SOL    HW120079  14.758   9.417   0.415
39394SOL    HW220080  14.824   9.545   0.368
39395SOL     OW20081   0.973   8.300   2.717
39395SOL    HW120082   1.053   8.347   2.693
39395SOL    HW220083   0.998   8.208   2.714
39396SOL     OW20084   9.525   2.574  11.970
39396SOL    HW120085   9.569   2.492  11.950
39396SOL    HW220086   9.580   2.642  11.929
39397SOL     OW20087   3.417   0.606   2.387
39397SOL    HW120088   3.425   0.546   2.313
39397SOL    HW220089   3.432   0.693   2.350
39398SOL     OW20090  10.974   6.943   3.574
39398SOL    HW120091  11.040   6.877   3.554
39398SOL    HW220092  10.930   6.910   3.652
39399SOL     OW20093  11.047  10.650   9.796
39399SOL    HW120094  11.087  10.632   9.711
39399SOL    HW220095  10.960  10.685   9.775
39400SOL     OW20096  12.480   6.586  14.650
39400SOL    HW120097  12.463   6.495  14.626
39400SOL    HW220098  12.545   6.581  14.720
39401SOL     OW20099  13.460  11.850  12.947
39401SOL    HW120100  13.506  11.919  12.994
39401SOL    HW220101  13.452  11.779  13.010
39402SOL     OW20102   4.906   9.024  11.622
39402SOL    HW120103   4.962   8.976  11.683
39402SOL    HW220104   4.967   9.068  11.563
39403SOL     OW20105   3.370   8.359   4.201
39403SOL    HW120106   3.385   8.452   4.190
39403SOL    HW220107   3.276   8.351   4.217
39404SOL     OW20108   0.724   1.399   8.971
39404SOL    HW120109   0.788   1.443   9.027
39404SOL    HW220110   0.679   1.339   9.029
39405SOL     OW20111   3.072   8.282  11.016
39405SOL    HW120112   3.024   8.212  11.061
39405SOL    HW220113   3.039   8.363  11.056
39406SOL     OW20114   6.901  13.751   4.508
39406SOL    HW120115   6.878  13.821   4.568
39406SOL    HW220116   6.819  13.731   4.462
39407SOL     OW20117   9.462   7.170   5.312
39407SOL    HW120118   9.482   7.081   5.284
39407SOL    HW220119   9.479   7.170   5.407
39408SOL     OW20120   2.040  13.563   5.953
39408SOL    HW120121   1.998  13.540   6.036
39408SOL    HW220122   1.984  13.631   5.916
39409SOL     OW20123   8.713   0.620   8.392
39409SOL    HW120124   8.651   0.576   8.335
39409SOL    HW220125   8.661   0.682   8.442
39410SOL     OW20126   9.467   7.274  14.864
39410SOL    HW120127   9.544   7.294   0.041
39410SOL    HW220128   9.402   7.338   0.016
39411SOL     OW20129   5.526  10.905  12.330
39411SOL    HW120130   5.474  10.839  12.284
39411SOL    HW220131   5.469  10.982  12.334
39412SOL     OW20132   3.527   3.469  10.980
39412SOL    HW120133   3.495   3.387  10.941
39412SOL    HW220134   3.597   3.498  10.922
39413SOL     OW20135   8.355   4.082  12.326
39413SOL    HW120136   8.420   4.078  12.256
39413SOL    HW220137   8.316   4.169  12.318
39414SOL     OW20138  14.452  13.711   9.050
39414SOL    HW120139  14.510  13.671   9.116
39414SOL    HW220140  14.424  13.637   8.996
39415SOL     OW20141  12.702  12.014   6.289
39415SOL    HW120142  12.660  11.940   6.245
39415SOL    HW220143  12.686  11.998   6.382
39416SOL     OW20144   3.345   4.401   4.451
39416SOL    HW120145   3.280   4.458   4.491
39416SOL    HW220146   3.411   4.461   4.416
39417SOL     OW20147  10.894  12.109  13.943
39417SOL    HW120148  10.799  12.103  13.933
39417SOL    HW220149  10.910  12.078  14.033
39418SOL     OW20150  14.721  12.779   5.324
39418SOL    HW120151  14.790  12.804   5.384
39418SOL    HW220152  14.756  12.702   5.278
39419SOL     OW20153  14.013   8.868   5.744
39419SOL    HW120154  13.988   8.886   5.835
39419SOL    HW220155  13.930   8.869   5.696
39420SOL     OW20156   8.168  10.670  12.405
39420SOL    HW120157   8.101  10.737  12.394
39420SOL    HW220158   8.174  10.628  12.319
39421SOL     OW20159   4.140   3.003  12.113
39421SOL    HW120160   4.175   3.037  12.031
39421SOL    HW220161   4.156   3.072  12.177
39422SOL     OW20162  10.993   4.934   9.327
39422SOL    HW120163  10.921   4.894   9.376
39422SOL    HW220164  10.961   4.939   9.238
39423SOL     OW20165   4.745  11.807   0.405
39423SOL    HW120166   4.790  11.888   0.428
39423SOL    HW220167   4.666  11.837   0.359
39424SOL     OW20168  12.505   1.180   7.368
39424SOL    HW120169  12.449   1.240   7.416
39424SOL    HW220170  12.478   1.093   7.397
39425SOL     OW20171   7.347  12.077   0.853
39425SOL    HW120172   7.323  12.024   0.930
39425SOL    HW220173   7.266  12.083   0.803
39426SOL     OW20174  10.844   7.865  12.196
39426SOL    HW120175  10.782   7.819  12.138
39426SOL    HW220176  10.797   7.943  12.225
39427SOL     OW20177  11.118  13.044   8.149
39427SOL    HW120178  11.197  13.055   8.202
39427SOL    HW220179  11.061  13.115   8.177
39428SOL     OW20180  10.156   8.002  12.339
39428SOL    HW120181  10.243   7.967  12.319
39428SOL    HW220182  10.155   8.009  12.434
39429SOL     OW20183  12.457   3.036   5.559
39429SOL    HW120184  12.440   3.022   5.466
39429SOL    HW220185  12.476   2.949   5.594
39430SOL     OW20186  14.590   6.251   6.807
39430SOL    HW120187  14.593   6.248   6.902
39430SOL    HW220188  14.678   6.280   6.781
39431SOL     OW20189   3.973  12.207  14.475
39431SOL    HW120190   4.053  12.209  14.422
39431SOL    HW220191   3.999  12.165  14.557
39432SOL     OW20192   0.267  10.162   1.763
39432SOL    HW120193   0.192  10.191   1.711
39432SOL    HW220194   0.249  10.195   1.851
39433SOL     OW20195   5.084  11.281   5.987
39433SOL    HW120196   5.116  11.367   5.960
39433SOL    HW220197   5.083  11.229   5.907
39434SOL     OW20198   7.783   6.594  13.453
39434SOL    HW120199   7.812   6.627  13.367
39434SOL    HW220200   7.846   6.525  13.475
39435SOL     OW20201  13.704  11.712   8.277
39435SOL    HW120202  13.792  11.749   8.263
39435SOL    HW220203  13.718  11.618   8.280
39436SOL     OW20204   2.355   6.048   7.580
39436SOL    HW120205   2.279   6.021   7.528
39436SOL    HW220206   2.418   5.977   7.569
39437SOL     OW20207  10.053  10.923   6.367
39437SOL    HW120208  10.098  10.998   6.407
39437SOL    HW220209  10.124  10.865   6.340
39438SOL     OW20210   9.177  10.058   6.594
39438SOL    HW120211   9.263  10.097   6.581
39438SOL    HW220212   9.185   9.969   6.559
39439SOL     OW20213   5.665  13.476   7.102
39439SOL    HW120214   5.756  13.449   7.108
39439SOL    HW220215   5.662  13.560   7.148
39440SOL     OW20216   6.340   0.865   1.940
39440SOL    HW120217   6.309   0.880   1.851
39440SOL    HW220218   6.433   0.886   1.937
39441SOL     OW20219   2.081   4.287   1.668
39441SOL    HW120220   2.069   4.225   1.740
39441SOL    HW220221   2.167   4.266   1.632
39442SOL     OW20222   5.713   8.839   3.917
39442SOL    HW120223   5.696   8.745   3.911
39442SOL    HW220224   5.628   8.880   3.903
39443SOL     OW20225  10.228   1.334   3.241
39443SOL    HW120226  10.276   1.262   3.200
39443SOL    HW220227  10.293   1.381   3.293
39444SOL     OW20228   6.413   3.051   1.509
39444SOL    HW120229   6.411   3.007   1.425
39444SOL    HW220230   6.324   3.085   1.522
39445SOL     OW20231  11.652   7.778  14.571
39445SOL    HW120232  11.569   7.819  14.591
39445SOL    HW220233  11.665   7.714  14.641
39446SOL     OW20234   0.289   2.844   6.274
39446SOL    HW120235   0.302   2.857   6.180
39446SOL    HW220236   0.267   2.751   6.283
39447SOL     OW20237   3.643   2.212   6.415
39447SOL    HW120238   3.622   2.306   6.418
39447SOL    HW220239   3.737   2.208   6.430
39448SOL     OW20240   0.997   4.819  13.163
39448SOL    HW120241   0.916   4.808  13.214
39448SOL    HW220242   1.024   4.729  13.143
39449SOL     OW20243   3.778  14.175   8.858
39449SOL    HW120244   3.838  14.106   8.829
39449SOL    HW220245   3.819  14.256   8.828
39450SOL     OW20246   1.430  10.720   8.851
39450SOL    HW120247   1.377  10.799   8.849
39450SOL    HW220248   1.406  10.672   8.772
39451SOL     OW20249  14.221   6.514   6.255
39451SOL    HW120250  14.282   6.455   6.299
39451SOL    HW220251  14.141   6.509   6.307
39452SOL     OW20252   0.911   7.153   8.753
39452SOL    HW120253   0.945   7.065   8.768
39452SOL    HW220254   0.849   7.168   8.824
39453SOL     OW20255   3.943  10.081   2.235
39453SOL    HW120256   3.921   9.997   2.193
39453SOL    HW220257   4.013  10.117   2.179
39454SOL     OW20258   9.801  11.529  12.948
39454SOL    HW120259   9.809  11.585  12.871
39454SOL    HW220260   9.866  11.460  12.933
39455SOL     OW20261   0.222   4.256   9.039
39455SOL    HW120262   0.136   4.291   9.065
39455SOL    HW220263   0.234   4.179   9.094
39456SOL     OW20264   9.092   3.969  14.399
39456SOL    HW120265   9.081   3.987  14.492
39456SOL    HW220266   9.186   3.953  14.388
39457SOL     OW20267  12.034   0.666   2.825
39457SOL    HW120268  11.940   0.680   2.837
39457SOL    HW220269  12.044   0.647   2.732
39458SOL     OW20270   0.800   8.187   4.674
39458SOL    HW120271   0.864   8.201   4.604
39458SOL    HW220272   0.786   8.274   4.711
39459SOL     OW20273   2.166   9.627   6.594
39459SOL    HW120274   2.176   9.532   6.589
39459SOL    HW220275   2.206   9.651   6.678
39460SOL     OW20276  10.543   1.799  13.581
39460SOL    HW120277  10.459   1.845  13.588
39460SOL    HW220278  10.608   1.864  13.607
39461SOL     OW20279  12.096  11.561   9.454
39461SOL    HW120280  12.147  11.531   9.378
39461SOL    HW220281  12.121  11.501   9.524
39462SOL     OW20282   1.505   5.465   3.022
39462SOL    HW120283   1.587   5.424   3.052
39462SOL    HW220284   1.517   5.477   2.928
39463SOL     OW20285  10.527   3.577   0.871
39463SOL    HW120286  10.567   3.491   0.885
39463SOL    HW220287  10.491   3.572   0.783
39464SOL     OW20288  13.611  12.086   9.860
39464SOL    HW120289  13.521  12.117   9.873
39464SOL    HW220290  13.600  12.004   9.811
39465SOL     OW20291   2.399   1.904  12.870
39465SOL    HW120292   2.375   1.960  12.797
39465SOL    HW220293   2.495   1.906  12.871
39466SOL     OW20294  13.567   8.152   2.444
39466SOL    HW120295  13.526   8.181   2.362
39466SOL    HW220296  13.610   8.231   2.478
39467SOL     OW20297   8.188   0.239  14.696
39467SOL    HW120298   8.105   0.282  14.678
39467SOL    HW220299   8.254   0.300  14.660
39468SOL     OW20300   1.950   0.323   3.047
39468SOL    HW120301   1.890   0.276   2.988
39468SOL    HW220302   1.893   0.359   3.115
39469SOL     OW20303  11.092  12.051   5.932
39469SOL    HW120304  11.038  11.974   5.916
39469SOL    HW220305  11.033  12.125   5.922
39470SOL     OW20306   8.173   0.790   4.031
39470SOL    HW120307   8.202   0.824   4.116
39470SOL    HW220308   8.106   0.726   4.053
39471SOL     OW20309   2.825   6.837   5.295
39471SOL    HW120310   2.788   6.749   5.305
39471SOL    HW220311   2.836   6.847   5.200
39472SOL     OW20312  11.895   5.978   4.067
39472SOL    HW120313  11.872   6.065   4.098
39472SOL    HW220314  11.991   5.980   4.057
39473SOL     OW20315   6.240  13.267  12.359
39473SOL    HW120316   6.159  13.217  12.357
39473SOL    HW220317   6.244  13.303  12.448
39474SOL     OW20318   4.846  10.177  12.074
39474SOL    HW120319   4.833  10.182  11.979
39474SOL    HW220320   4.806  10.257  12.108
39475SOL     OW20321   3.122   7.919  10.277
39475SOL    HW120322   3.124   7.900  10.371
39475SOL    HW220323   3.124   7.834  10.235
39476SOL     OW20324  11.776   5.524   2.010
39476SOL    HW120325  11.849   5.507   1.951
39476SOL    HW220326  11.742   5.609   1.982
39477SOL     OW20327  12.880   5.123   8.366
39477SOL    HW120328  12.955   5.103   8.423
39477SOL    HW220329  12.918   5.175   8.295
39478SOL     OW20330   2.403  12.757   8.230
39478SOL    HW120331   2.351  12.677   8.223
39478SOL    HW220332   2.348  12.818   8.278
39479SOL     OW20333  11.965  13.570  12.158
39479SOL    HW120334  11.939  13.522  12.079
39479SOL    HW220335  12.039  13.624  12.129
39480SOL     OW20336  12.332   8.602   5.035
39480SOL    HW120337  12.410   8.631   5.081
39480SOL    HW220338  12.343   8.634   4.945
39481SOL     OW20339   2.778   9.029   7.495
39481SOL    HW120340   2.705   8.976   7.527
39481SOL    HW220341   2.747   9.063   7.410
39482SOL     OW20342   2.898   2.167   0.319
39482SOL    HW120343   2.884   2.214   0.237
39482SOL    HW220344   2.829   2.200   0.377
39483SOL     OW20345   9.176   9.611  10.759
39483SOL    HW120346   9.244   9.554  10.724
39483SOL    HW220347   9.218   9.657  10.831
39484SOL     OW20348   5.137   8.807  10.881
39484SOL    HW120349   5.103   8.896  10.887
39484SOL    HW220350   5.059   8.752  10.874
39485SOL     OW20351   3.951  10.106   2.523
39485SOL    HW120352   3.972  10.132   2.433
39485SOL    HW220353   3.874  10.049   2.513
39486SOL     OW20354  11.821   1.397  14.271
39486SOL    HW120355  11.871   1.478  14.280
39486SOL    HW220356  11.886   1.327  14.278
39487SOL     OW20357  14.825  13.835   2.549
39487SOL    HW120358  14.805  13.758   2.601
39487SOL    HW220359   0.045  13.848   2.560
39488SOL     OW20360   6.796  11.842   0.447
39488SOL    HW120361   6.744  11.769   0.481
39488SOL    HW220362   6.858  11.801   0.387
39489SOL     OW20363   6.983   1.366  13.457
39489SOL    HW120364   7.045   1.298  13.430
39489SOL    HW220365   7.001   1.440  13.399
39490SOL     OW20366  14.601   0.397  13.842
39490SOL    HW120367  14.516   0.364  13.872
39490SOL    HW220368  14.662   0.325  13.855
39491SOL     OW20369   7.894  11.052  10.652
39491SOL    HW120370   7.825  11.004  10.607
39491SOL    HW220371   7.894  11.017  10.741
39492SOL     OW20372   6.993  13.218  10.146
39492SOL    HW120373   6.950  13.175  10.220
39492SOL    HW220374   7.032  13.146  10.096
39493SOL     OW20375  11.336   3.856  13.481
39493SOL    HW120376  11.409   3.915  13.500
39493SOL    HW220377  11.283   3.858  13.560
39494SOL     OW20378  10.465   8.516   5.260
39494SOL    HW120379  10.428   8.591   5.307
39494SOL    HW220380  10.536   8.485   5.317
39495SOL     OW20381   1.731  10.438   9.013
39495SOL    HW120382   1.795  10.458   9.082
39495SOL    HW220383   1.728  10.343   9.010
39496SOL     OW20384  14.576   4.528   1.840
39496SOL    HW120385  14.636   4.529   1.766
39496SOL    HW220386  14.568   4.436   1.865
39497SOL     OW20387  11.844   2.065   9.449
39497SOL    HW120388  11.879   1.978   9.431
39497SOL    HW220389  11.876   2.119   9.377
39498SOL     OW20390  13.199  13.655   6.532
39498SOL    HW120391  13.139  13.692   6.467
39498SOL    HW220392  13.270  13.617   6.481
39499SOL     OW20393   1.388   5.746   2.870
39499SOL    HW120394   1.444   5.728   2.794
39499SOL    HW220395   1.406   5.837   2.892
39500SOL     OW20396  10.801   7.411   7.670
39500SOL    HW120397  10.848   7.367   7.742
39500SOL    HW220398  10.842   7.376   7.591
39501SOL     OW20399   2.063  10.554   6.034
39501SOL    HW120400   2.092  10.463   6.040
39501SOL    HW220401   1.976  10.554   6.072
39502SOL     OW20402   1.806  11.983   4.276
39502SOL    HW120403   1.860  12.041   4.331
39502SOL    HW220404   1.716  12.013   4.292
39503SOL     OW20405   3.464   6.337   6.070
39503SOL    HW120406   3.368   6.339   6.063
39503SOL    HW220407   3.487   6.424   6.102
39504SOL     OW20408   6.264   7.851   0.987
39504SOL    HW120409   6.263   7.757   0.971
39504SOL    HW220410   6.225   7.861   1.074
39505SOL     OW20411   8.447   3.798   9.106
39505SOL    HW120412   8.452   3.886   9.141
39505SOL    HW220413   8.514   3.749   9.154
39506SOL     OW20414   2.950   2.092   4.590
39506SOL    HW120415   2.887   2.163   4.601
39506SOL    HW220416   2.904   2.013   4.620
39507SOL     OW20417   0.841  12.563  13.457
39507SOL    HW120418   0.816  12.503  13.527
39507SOL    HW220419   0.793  12.532  13.380
39508SOL     OW20420   2.233  10.343  12.899
39508SOL    HW120421   2.226  10.372  12.808
39508SOL    HW220422   2.294  10.270  12.896
39509SOL     OW20423  11.176   0.183   5.155
39509SOL    HW120424  11.240   0.157   5.221
39509SOL    HW220425  11.106   0.225   5.204
39510SOL     OW20426   2.468   7.322   8.069
39510SOL    HW120427   2.494   7.242   8.116
39510SOL    HW220428   2.503   7.310   7.981
39511SOL     OW20429   8.553   7.538   4.161
39511SOL    HW120430   8.516   7.450   4.152
39511SOL    HW220431   8.569   7.566   4.072
39512SOL     OW20432   9.868  11.081   9.028
39512SOL    HW120433   9.890  11.139   9.102
39512SOL    HW220434   9.850  11.140   8.955
39513SOL     OW20435  12.741   6.976   0.062
39513SOL    HW120436  12.699   6.963   0.147
39513SOL    HW220437  12.786   6.894   0.044
39514SOL     OW20438   1.508   4.827   0.414
39514SOL    HW120439   1.479   4.737   0.398
39514SOL    HW220440   1.470   4.878   0.343
39515SOL     OW20441   4.527   2.962   1.799
39515SOL    HW120442   4.598   2.943   1.860
39515SOL    HW220443   4.468   2.888   1.806
39516SOL     OW20444   5.783   9.065  12.875
39516SOL    HW120445   5.847   9.133  12.896
39516SOL    HW220446   5.833   8.984  12.872
39517SOL     OW20447   7.085   0.776   0.262
39517SOL    HW120448   7.171   0.746   0.233
39517SOL    HW220449   7.055   0.708   0.322
39518SOL     OW20450   2.949   5.674  11.952
39518SOL    HW120451   2.950   5.655  12.046
39518SOL    HW220452   3.041   5.687  11.930
39519SOL     OW20453   3.974   4.488   9.449
39519SOL    HW120454   3.987   4.473   9.356
39519SOL    HW220455   3.981   4.583   9.460
39520SOL     OW20456   5.554   9.678   6.789
39520SOL    HW120457   5.505   9.748   6.748
39520SOL    HW220458   5.504   9.598   6.770
39521SOL     OW20459  11.767  12.599   8.219
39521SOL    HW120460  11.851  12.618   8.178
39521SOL    HW220461  11.773  12.640   8.306
39522SOL     OW20462  14.482   1.734   1.652
39522SOL    HW120463  14.493   1.817   1.605
39522SOL    HW220464  14.467   1.760   1.743
39523SOL     OW20465  10.566   1.571  10.745
39523SOL    HW120466  10.567   1.630  10.670
39523SOL    HW220467  10.657   1.566  10.774
39524SOL     OW20468  10.509   3.666   8.470
39524SOL    HW120469  10.448   3.738   8.454
39524SOL    HW220470  10.453   3.589   8.478
39525SOL     OW20471   6.448  12.948   8.888
39525SOL    HW120472   6.419  12.860   8.861
39525SOL    HW220473   6.463  12.940   8.982
39526SOL     OW20474  12.058   5.097   9.397
39526SOL    HW120475  12.127   5.118   9.335
39526SOL    HW220476  12.076   5.154   9.473
39527SOL     OW20477   0.773   7.363   3.471
39527SOL    HW120478   0.768   7.455   3.495
39527SOL    HW220479   0.685   7.329   3.489
39528SOL     OW20480   9.138  12.207   6.758
39528SOL    HW120481   9.223  12.165   6.741
39528SOL    HW220482   9.154  12.300   6.745
39529SOL     OW20483   9.801   1.437   7.317
39529SOL    HW120484   9.799   1.526   7.283
39529SOL    HW220485   9.861   1.390   7.258
39530SOL     OW20486  12.084   2.614  13.783
39530SOL    HW120487  12.146   2.668  13.733
39530SOL    HW220488  12.002   2.618  13.734
39531SOL     OW20489   0.528   0.392   8.911
39531SOL    HW120490   0.508   0.301   8.891
39531SOL    HW220491   0.612   0.409   8.868
39532SOL     OW20492   8.192   3.893   0.322
39532SOL    HW120493   8.137   3.888   0.244
39532SOL    HW220494   8.129   3.908   0.393
39533SOL     OW20495   2.934  12.908  12.646
39533SOL    HW120496   2.887  12.991  12.642
39533SOL    HW220497   3.020  12.927  12.610
39534SOL     OW20498   6.436   5.821   5.001
39534SOL    HW120499   6.444   5.799   4.908
39534SOL    HW220500   6.463   5.912   5.006
39535SOL     OW20501   8.848  13.781  10.032
39535SOL    HW120502   8.889  13.860  10.067
39535SOL    HW220503   8.794  13.748  10.104
39536SOL     OW20504   5.421  11.776   2.634
39536SOL    HW120505   5.443  11.754   2.725
39536SOL    HW220506   5.495  11.830   2.604
39537SOL     OW20507  12.848   7.763   6.754
39537SOL    HW120508  12.773   7.821   6.766
39537SOL    HW220509  12.893   7.764   6.839
39538SOL     OW20510  11.917  10.495   7.508
39538SOL    HW120511  11.966  10.433   7.562
39538SOL    HW220512  11.852  10.442   7.463
39539SOL     OW20513   1.664  14.513  10.253
39539SOL    HW120514   1.642  14.488  10.163
39539SOL    HW220515   1.620  14.597  10.266
39540SOL     OW20516   5.692   3.493   1.787
39540SOL    HW120517   5.711   3.440   1.865
39540SOL    HW220518   5.738   3.575   1.802
39541SOL     OW20519   1.025   7.558   7.125
39541SOL    HW120520   1.111   7.595   7.107
39541SOL    HW220521   1.043   7.470   7.157
39542SOL     OW20522   3.986  11.889  13.006
39542SOL    HW120523   3.994  11.838  13.087
39542SOL    HW220524   3.893  11.904  12.995
39543SOL     OW20525   8.313   0.465   2.678
39543SOL    HW120526   8.296   0.559   2.692
39543SOL    HW220527   8.307   0.453   2.584
39544SOL     OW20528   1.596   7.385  12.099
39544SOL    HW120529   1.533   7.446  12.061
39544SOL    HW220530   1.659   7.368  12.028
39545SOL     OW20531   7.071   6.744  14.555
39545SOL    HW120532   6.981   6.723  14.581
39545SOL    HW220533   7.102   6.664  14.513
39546SOL     OW20534  13.291  12.180   3.091
39546SOL    HW120535  13.379  12.218   3.089
39546SOL    HW220536  13.234  12.253   3.110
39547SOL     OW20537  10.623   7.283   0.873
39547SOL    HW120538  10.593   7.199   0.838
39547SOL    HW220539  10.601   7.280   0.966
39548SOL     OW20540   4.185   6.728   9.690
39548SOL    HW120541   4.142   6.814   9.694
39548SOL    HW220542   4.137   6.681   9.622
39549SOL     OW20543   0.056   1.265  10.898
39549SOL    HW120544   0.060   1.281  10.992
39549SOL    HW220545   0.110   1.187  10.884
39550SOL     OW20546   5.013  13.256   4.108
39550SOL    HW120547   4.987  13.322   4.044
39550SOL    HW220548   5.035  13.305   4.187
39551SOL     OW20549   9.072  10.557   2.299
39551SOL    HW120550   9.053  10.486   2.361
39551SOL    HW220551   9.075  10.635   2.353
39552SOL     OW20552   9.840  14.662  13.339
39552SOL    HW120553   9.814  14.740  13.387
39552SOL    HW220554   9.923  14.686  13.297
39553SOL     OW20555  12.305   6.956   9.994
39553SOL    HW120556  12.390   6.999   9.995
39553SOL    HW220557  12.311   6.895   9.920
39554SOL     OW20558   4.010   6.825  12.225
39554SOL    HW120559   4.090   6.778  12.200
39554SOL    HW220560   4.041   6.898  12.279
39555SOL     OW20561   5.303   3.768  12.928
39555SOL    HW120562   5.381   3.823  12.914
39555SOL    HW220563   5.245   3.822  12.982
39556SOL     OW20564  12.537   7.685   1.983
39556SOL    HW120565  12.598   7.629   1.936
39556SOL    HW220566  12.568   7.686   2.073
39557SOL     OW20567  11.334   6.206   6.213
39557SOL    HW120568  11.241   6.227   6.203
39557SOL    HW220569  11.371   6.217   6.126
39558SOL     OW20570  12.701   7.585   4.185
39558SOL    HW120571  12.620   7.587   4.236
39558SOL    HW220572  12.674   7.553   4.099
39559SOL     OW20573  14.133   6.514   7.918
39559SOL    HW120574  14.120   6.608   7.910
39559SOL    HW220575  14.071   6.486   7.986
39560SOL     OW20576   3.359  13.784   2.353
39560SOL    HW120577   3.363  13.840   2.431
39560SOL    HW220578   3.300  13.713   2.377
39561SOL     OW20579  14.566  11.431   4.378
39561SOL    HW120580  14.539  11.350   4.421
39561SOL    HW220581  14.652  11.450   4.415
39562SOL     OW20582   3.672   1.194   4.580
39562SOL    HW120583   3.594   1.223   4.532
39562SOL    HW220584   3.739   1.260   4.560
39563SOL     OW20585   5.628   3.337   1.552
39563SOL    HW120586   5.648   3.395   1.625
39563SOL    HW220587   5.544   3.297   1.576
39564SOL     OW20588  11.847   2.920   6.242
39564SOL    HW120589  11.903   2.987   6.204
39564SOL    HW220590  11.908   2.858   6.282
39565SOL     OW20591   2.252  11.132   1.013
39565SOL    HW120592   2.283  11.219   1.039
39565SOL    HW220593   2.330  11.077   1.017
39566SOL     OW20594   3.403  11.324   9.947
39566SOL    HW120595   3.498  11.311   9.942
39566SOL    HW220596   3.367  11.235   9.953
39567SOL     OW20597  12.356   8.479   6.413
39567SOL    HW120598  12.359   8.443   6.501
39567SOL    HW220599  12.308   8.561   6.422
39568SOL     OW20600  14.688  10.783   3.575
39568SOL    HW120601  14.666  10.807   3.485
39568SOL    HW220602  14.621  10.825   3.628
39569SOL     OW20603   6.059   3.564   2.363
39569SOL    HW120604   6.077   3.470   2.365
39569SOL    HW220605   6.124   3.599   2.302
39570SOL     OW20606   3.759  11.718   9.973
39570SOL    HW120607   3.810  11.660  10.029
39570SOL    HW220608   3.770  11.683   9.884
39571SOL     OW20609   7.358  12.860   0.528
39571SOL    HW120610   7.433  12.919   0.524
39571SOL    HW220611   7.371  12.799   0.456
39572SOL     OW20612  11.621   3.633   7.946
39572SOL    HW120613  11.607   3.603   8.036
39572SOL    HW220614  11.545   3.599   7.898
39573SOL     OW20615   1.457   4.770   1.447
39573SOL    HW120616   1.400   4.790   1.521
39573SOL    HW220617   1.406   4.794   1.370
39574SOL     OW20618   1.676   0.062   4.898
39574SOL    HW120619   1.672  14.842   4.911
39574SOL    HW220620   1.618   0.097   4.965
39575SOL     OW20621   7.883  13.316   9.303
39575SOL    HW120622   7.846  13.303   9.390
39575SOL    HW220623   7.953  13.252   9.297
39576SOL     OW20624   1.645   5.100  11.673
39576SOL    HW120625   1.574   5.110  11.609
39576SOL    HW220626   1.723   5.085  11.620
39577SOL     OW20627   3.420   1.214   6.346
39577SOL    HW120628   3.479   1.152   6.302
39577SOL    HW220629   3.470   1.245   6.421
39578SOL     OW20630   4.592  13.427  14.191
39578SOL    HW120631   4.579  13.516  14.224
39578SOL    HW220632   4.643  13.384  14.260
39579SOL     OW20633   9.099  12.557  12.689
39579SOL    HW120634   9.006  12.579  12.702
39579SOL    HW220635   9.140  12.641  12.668
39580SOL     OW20636  14.514  12.572  13.602
39580SOL    HW120637  14.539  12.647  13.549
39580SOL    HW220638  14.446  12.528  13.552
39581SOL     OW20639   3.853  11.828   4.158
39581SOL    HW120640   3.758  11.817   4.150
39581SOL    HW220641   3.889  11.790   4.078
39582SOL     OW20642   8.504   6.593   1.895
39582SOL    HW120643   8.481   6.501   1.882
39582SOL    HW220644   8.583   6.591   1.950
39583SOL     OW20645  10.791  11.205  14.791
39583SOL    HW120646  10.721  11.221  14.854
39583SOL    HW220647  10.820  11.292  14.764
39584SOL     OW20648   8.208   7.532   6.815
39584SOL    HW120649   8.230   7.599   6.750
39584SOL    HW220650   8.181   7.456   6.763
39585SOL     OW20651   9.994  12.177   6.564
39585SOL    HW120652   9.961  12.087   6.567
39585SOL    HW220653  10.085  12.170   6.590
39586SOL     OW20654   7.735   4.720   2.413
39586SOL    HW120655   7.810   4.765   2.451
39586SOL    HW220656   7.662   4.740   2.473
39587SOL     OW20657   5.363   8.414  14.361
39587SOL    HW120658   5.288   8.354  14.356
39587SOL    HW220659   5.343   8.482  14.297
39588SOL     OW20660   7.589  11.768   6.776
39588SOL    HW120661   7.533  11.770   6.699
39588SOL    HW220662   7.559  11.841   6.830
39589SOL     OW20663   6.499   2.085   6.263
39589SOL    HW120664   6.493   2.096   6.168
39589SOL    HW220665   6.480   1.993   6.279
39590SOL     OW20666  10.740   4.594   0.326
39590SOL    HW120667  10.707   4.557   0.244
39590SOL    HW220668  10.695   4.545   0.395
39591SOL     OW20669   8.367   2.855  14.401
39591SOL    HW120670   8.453   2.857  14.442
39591SOL    HW220671   8.319   2.788  14.449
39592SOL     OW20672   0.138   1.671   7.498
39592SOL    HW120673   0.059   1.633   7.459
39592SOL    HW220674   0.149   1.755   7.454
39593SOL     OW20675   8.281  11.876  14.870
39593SOL    HW120676   8.201  11.911  14.830
39593SOL    HW220677   8.350  11.936  14.842
39594SOL     OW20678   6.493   7.436  10.674
39594SOL    HW120679   6.498   7.345  10.644
39594SOL    HW220680   6.584   7.466  10.675
39595SOL     OW20681  11.135   4.146   2.674
39595SOL    HW120682  11.185   4.220   2.639
39595SOL    HW220683  11.045   4.163   2.646
39596SOL     OW20684   1.447   9.173   2.494
39596SOL    HW120685   1.415   9.241   2.553
39596SOL    HW220686   1.457   9.096   2.551
39597SOL     OW20687  13.527   4.776   5.726
39597SOL    HW120688  13.438   4.776   5.762
39597SOL    HW220689  13.525   4.708   5.658
39598SOL     OW20690  11.335   8.080   0.190
39598SOL    HW120691  11.303   8.166   0.162
39598SOL    HW220692  11.365   8.039   0.109
39599SOL     OW20693   7.851   2.607   6.788
39599SOL    HW120694   7.888   2.693   6.770
39599SOL    HW220695   7.763   2.611   6.751
39600SOL     OW20696   6.179   5.770  13.269
39600SOL    HW120697   6.243   5.757  13.199
39600SOL    HW220698   6.231   5.801  13.344
39601SOL     OW20699   2.024   6.741  12.153
39601SOL    HW120700   2.031   6.658  12.200
39601SOL    HW220701   2.100   6.791  12.180
39602SOL     OW20702   4.524   2.598   8.118
39602SOL    HW120703   4.463   2.596   8.044
39602SOL    HW220704   4.563   2.511   8.120
39603SOL     OW20705  13.697   0.766  10.737
39603SOL    HW120706  13.734   0.824  10.804
39603SOL    HW220707  13.625   0.721  10.782
39604SOL     OW20708  10.841   4.171   2.648
39604SOL    HW120709  10.817   4.078   2.656
39604SOL    HW220710  10.788   4.202   2.575
39605SOL     OW20711  13.549  10.532  11.006
39605SOL    HW120712  13.454  10.544  11.004
39605SOL    HW220713  13.571  10.534  11.099
39606SOL     OW20714   1.483   5.171   4.872
39606SOL    HW120715   1.520   5.260   4.873
39606SOL    HW220716   1.393   5.183   4.902
39607SOL     OW20717  13.771  13.602   3.540
39607SOL    HW120718  13.780  13.582   3.447
39607SOL    HW220719  13.825  13.679   3.554
39608SOL     OW20720  11.378   8.647   2.979
39608SOL    HW120721  11.365   8.678   3.069
39608SOL    HW220722  11.328   8.566   2.975
39609SOL     OW20723   8.823  12.600   2.236
39609SOL    HW120724   8.892  12.626   2.176
39609SOL    HW220725   8.840  12.508   2.254
39610SOL     OW20726   6.191  10.372   1.608
39610SOL    HW120727   6.109  10.322   1.608
39610SOL    HW220728   6.167  10.458   1.642
39611SOL     OW20729  10.626   3.346  14.523
39611SOL    HW120730  10.620   3.334  14.617
39611SOL    HW220731  10.719   3.356  14.506
39612SOL     OW20732  11.010   5.747  10.144
39612SOL    HW120733  10.996   5.771  10.053
39612SOL    HW220734  11.053   5.661  10.140
39613SOL     OW20735   1.769   0.867   0.915
39613SOL    HW120736   1.845   0.893   0.968
39613SOL    HW220737   1.804   0.853   0.827
39614SOL     OW20738   3.775   2.845  14.609
39614SOL    HW120739   3.755   2.859  14.516
39614SOL    HW220740   3.707   2.784  14.639
39615SOL     OW20741   0.250   9.187  12.742
39615SOL    HW120742   0.221   9.187  12.833
39615SOL    HW220743   0.346   9.190  12.747
39616SOL     OW20744   5.418  14.159   5.476
39616SOL    HW120745   5.471  14.141   5.398
39616SOL    HW220746   5.417  14.255   5.483
39617SOL     OW20747  13.085  12.407   8.201
39617SOL    HW120748  13.052  12.497   8.196
39617SOL    HW220749  13.177  12.414   8.175
39618SOL     OW20750   6.053   2.549   8.136
39618SOL    HW120751   5.978   2.496   8.107
39618SOL    HW220752   6.091   2.499   8.208
39619SOL     OW20753  13.893   9.997   3.385
39619SOL    HW120754  13.918  10.062   3.320
39619SOL    HW220755  13.797  10.003   3.389
39620SOL     OW20756  14.210   1.808   6.066
39620SOL    HW120757  14.125   1.789   6.106
39620SOL    HW220758  14.245   1.881   6.117
39621SOL     OW20759  11.860   7.696  14.402
39621SOL    HW120760  11.786   7.651  14.361
39621SOL    HW220761  11.824   7.731  14.483
39622SOL     OW20762   0.810  13.649  11.816
39622SOL    HW120763   0.732  13.684  11.859
39622SOL    HW220764   0.847  13.588  11.879
39623SOL     OW20765  14.725   2.933  12.015
39623SOL    HW120766  14.805   2.908  12.060
39623SOL    HW220767  14.749   3.010  11.964
39624SOL     OW20768  12.280  10.816   6.464
39624SOL    HW120769  12.207  10.801   6.525
39624SOL    HW220770  12.356  10.780   6.509
39625SOL     OW20771   9.763   2.937   2.637
39625SOL    HW120772   9.704   2.966   2.567
39625SOL    HW220773   9.833   2.889   2.591
39626SOL     OW20774   7.104   9.113   2.444
39626SOL    HW120775   7.103   9.139   2.536
39626SOL    HW220776   7.192   9.134   2.413
39627SOL     OW20777  10.561   6.142   1.583
39627SOL    HW120778  10.597   6.156   1.670
39627SOL    HW220779  10.630   6.098   1.535
39628SOL     OW20780   2.675   3.257  11.525
39628SOL    HW120781   2.706   3.323  11.464
39628SOL    HW220782   2.615   3.202  11.474
39629SOL     OW20783   9.530   6.652   8.762
39629SOL    HW120784   9.528   6.603   8.843
39629SOL    HW220785   9.440   6.648   8.728
39630SOL     OW20786   6.279   9.111  10.528
39630SOL    HW120787   6.258   9.204  10.527
39630SOL    HW220788   6.196   9.068  10.504
39631SOL     OW20789  12.239   7.404  10.044
39631SOL    HW120790  12.276   7.402  10.132
39631SOL    HW220791  12.294   7.465   9.996
39632SOL     OW20792   3.758   8.400   9.764
39632SOL    HW120793   3.678   8.428   9.720
39632SOL    HW220794   3.735   8.315   9.803
39633SOL     OW20795   4.051   1.635  11.896
39633SOL    HW120796   3.965   1.657  11.861
39633SOL    HW220797   4.050   1.540  11.904
39634SOL     OW20798  11.709   2.986   5.603
39634SOL    HW120799  11.744   2.945   5.524
39634SOL    HW220800  11.616   2.961   5.603
39635SOL     OW20801   7.675   9.963   6.907
39635SOL    HW120802   7.584   9.936   6.894
39635SOL    HW220803   7.690  10.028   6.839
39636SOL     OW20804  13.327  12.658  11.580
39636SOL    HW120805  13.341  12.706  11.498
39636SOL    HW220806  13.239  12.620  11.570
39637SOL     OW20807   7.313   5.837   1.735
39637SOL    HW120808   7.295   5.868   1.824
39637SOL    HW220809   7.237   5.783   1.713
39638SOL     OW20810   8.301  11.734   6.589
39638SOL    HW120811   8.327  11.802   6.651
39638SOL    HW220812   8.307  11.775   6.503
39639SOL     OW20813   6.368   8.890  12.387
39639SOL    HW120814   6.396   8.979  12.366
39639SOL    HW220815   6.317   8.899  12.468
39640SOL     OW20816   9.092   2.832  12.242
39640SOL    HW120817   9.103   2.914  12.193
39640SOL    HW220818   9.168   2.780  12.217
39641SOL     OW20819   0.763   2.753   1.046
39641SOL    HW120820   0.803   2.689   0.988
39641SOL    HW220821   0.837   2.800   1.085
39642SOL     OW20822  11.098   7.061   6.628
39642SOL    HW120823  11.166   7.025   6.571
39642SOL    HW220824  11.039   7.107   6.569
39643SOL     OW20825   6.812  10.984   1.585
39643SOL    HW120826   6.812  11.028   1.500
39643SOL    HW220827   6.871  11.037   1.640
39644SOL     OW20828   2.206   9.013   9.466
39644SOL    HW120829   2.201   8.951   9.393
39644SOL    HW220830   2.280   8.984   9.518
39645SOL     OW20831   1.432  10.569   7.007
39645SOL    HW120832   1.346  10.533   6.983
39645SOL    HW220833   1.494  10.519   6.954
39646SOL     OW20834  14.367   9.619   2.541
39646SOL    HW120835  14.436   9.614   2.475
39646SOL    HW220836  14.333   9.530   2.547
39647SOL     OW20837   9.296  13.299  14.246
39647SOL    HW120838   9.334  13.316  14.332
39647SOL    HW220839   9.300  13.204  14.236
39648SOL     OW20840   9.491   6.015  12.367
39648SOL    HW120841   9.546   6.089  12.394
39648SOL    HW220842   9.407   6.055  12.343
39649SOL     OW20843   6.346   6.567   6.006
39649SOL    HW120844   6.283   6.566   6.077
39649SOL    HW220845   6.428   6.540   6.046
39650SOL     OW20846   5.560   6.008   6.606
39650SOL    HW120847   5.469   5.983   6.625
39650SOL    HW220848   5.567   6.006   6.511
39651SOL     OW20849   3.720   7.494   4.450
39651SOL    HW120850   3.656   7.462   4.514
39651SOL    HW220851   3.703   7.587   4.442
39652SOL     OW20852  13.933   7.191   3.685
39652SOL    HW120853  13.857   7.134   3.696
39652SOL    HW220854  13.993   7.142   3.629
39653SOL     OW20855   3.027  12.422  13.424
39653SOL    HW120856   2.966  12.349  13.433
39653SOL    HW220857   2.972  12.495  13.394
39654SOL     OW20858   2.576   7.059   2.032
39654SOL    HW120859   2.625   7.135   2.002
39654SOL    HW220860   2.575   6.999   1.957
39655SOL     OW20861   5.923   3.936  14.397
39655SOL    HW120862   5.977   3.985  14.335
39655SOL    HW220863   5.833   3.952  14.369
39656SOL     OW20864   3.667  12.145  14.503
39656SOL    HW120865   3.589  12.196  14.479
39656SOL    HW220866   3.736  12.210  14.511
39657SOL     OW20867   1.216  13.559  13.377
39657SOL    HW120868   1.282  13.520  13.434
39657SOL    HW220869   1.208  13.499  13.304
39658SOL     OW20870   6.429   5.100   9.435
39658SOL    HW120871   6.383   5.151   9.367
39658SOL    HW220872   6.512   5.147   9.448
39659SOL     OW20873  13.348   0.427   3.163
39659SOL    HW120874  13.422   0.375   3.131
39659SOL    HW220875  13.389   0.495   3.217
39660SOL     OW20876  11.512   6.308   4.703
39660SOL    HW120877  11.599   6.270   4.712
39660SOL    HW220878  11.468   6.254   4.638
39661SOL     OW20879   1.970   7.889   1.563
39661SOL    HW120880   2.029   7.963   1.546
39661SOL    HW220881   1.997   7.822   1.500
39662SOL     OW20882   3.720   6.341   7.971
39662SOL    HW120883   3.677   6.422   7.944
39662SOL    HW220884   3.705   6.337   8.065
39663SOL     OW20885   6.395   8.755  11.552
39663SOL    HW120886   6.335   8.828  11.565
39663SOL    HW220887   6.338   8.677  11.550
39664SOL     OW20888  14.861  10.168   3.475
39664SOL    HW120889  14.841  10.262   3.475
39664SOL    HW220890  14.828  10.137   3.559
39665SOL     OW20891   6.117  12.839   4.526
39665SOL    HW120892   6.085  12.813   4.612
39665SOL    HW220893   6.116  12.758   4.474
39666SOL     OW20894   3.160   7.628   9.885
39666SOL    HW120895   3.193   7.590   9.803
39666SOL    HW220896   3.208   7.711   9.893
39667SOL     OW20897  10.680   2.805   8.922
39667SOL    HW120898  10.772   2.812   8.898
39667SOL    HW220899  10.639   2.881   8.880
39668SOL     OW20900   4.358   9.620   4.530
39668SOL    HW120901   4.426   9.681   4.560
39668SOL    HW220902   4.405   9.539   4.510
39669SOL     OW20903   6.176   0.189  14.679
39669SOL    HW120904   6.266   0.221  14.689
39669SOL    HW220905   6.136   0.250  14.616
39670SOL     OW20906  14.240   8.826   4.789
39670SOL    HW120907  14.149   8.807   4.763
39670SOL    HW220908  14.291   8.810   4.710
39671SOL     OW20909  11.471  14.393   0.870
39671SOL    HW120910  11.501  14.306   0.844
39671SOL    HW220911  11.497  14.401   0.962
39672SOL     OW20912   8.087   7.272   5.796
39672SOL    HW120913   8.041   7.222   5.729
39672SOL    HW220914   8.040   7.254   5.877
39673SOL     OW20915  13.626   7.813   9.389
39673SOL    HW120916  13.701   7.754   9.379
39673SOL    HW220917  13.550   7.755   9.392
39674SOL     OW20918  11.252   9.972   9.660
39674SOL    HW120919  11.227   9.888   9.620
39674SOL    HW220920  11.170  10.020   9.667
39675SOL     OW20921   6.353  10.244  14.077
39675SOL    HW120922   6.398  10.178  14.025
39675SOL    HW220923   6.379  10.226  14.167
39676SOL     OW20924   0.279   0.093   7.277
39676SOL    HW120925   0.309   0.168   7.329
39676SOL    HW220926   0.350   0.076   7.216
39677SOL     OW20927   1.234  10.871  14.018
39677SOL    HW120928   1.277  10.895  13.936
39677SOL    HW220929   1.205  10.954  14.056
39678SOL     OW20930   3.554   9.507   9.659
39678SOL    HW120931   3.549   9.501   9.755
39678SOL    HW220932   3.610   9.434   9.634
39679SOL     OW20933   6.836   9.049   3.649
39679SOL    HW120934   6.910   9.101   3.682
39679SOL    HW220935   6.830   8.976   3.711
39680SOL     OW20936   6.512   1.753   3.730
39680SOL    HW120937   6.597   1.731   3.769
39680SOL    HW220938   6.496   1.682   3.668
39681SOL     OW20939   3.683   7.173   0.301
39681SOL    HW120940   3.724   7.223   0.372
39681SOL    HW220941   3.754   7.120   0.265
39682SOL     OW20942   2.023   1.730   5.753
39682SOL    HW120943   1.937   1.700   5.781
39682SOL    HW220944   2.062   1.656   5.707
39683SOL     OW20945  14.556  10.150  10.188
39683SOL    HW120946  14.651  10.139  10.193
39683SOL    HW220947  14.527  10.151  10.279
39684SOL     OW20948   0.175  12.486  10.014
39684SOL    HW120949   0.212  12.569  10.045
39684SOL    HW220950   0.214  12.420  10.071
39685SOL     OW20951  14.269   4.812  12.427
39685SOL    HW120952  14.233   4.862  12.500
39685SOL    HW220953  14.202   4.745  12.409
39686SOL     OW20954   4.006   5.409   6.461
39686SOL    HW120955   3.926   5.386   6.413
39686SOL    HW220956   3.990   5.497   6.495
39687SOL     OW20957  11.482   2.786   0.804
39687SOL    HW120958  11.460   2.695   0.825
39687SOL    HW220959  11.560   2.803   0.856
39688SOL     OW20960   0.990  14.539   5.975
39688SOL    HW120961   1.082  14.544   5.951
39688SOL    HW220962   0.981  14.453   6.017
39689SOL     OW20963  11.407  10.464   6.948
39689SOL    HW120964  11.496  10.481   6.978
39689SOL    HW220965  11.376  10.549   6.915
39690SOL     OW20966   5.112   9.967   1.628
39690SOL    HW120967   5.110  10.062   1.614
39690SOL    HW220968   5.020   9.942   1.636
39691SOL     OW20969   9.580  10.575  12.646
39691SOL    HW120970   9.582  10.632  12.570
39691SOL    HW220971   9.624  10.495  12.618
39692SOL     OW20972  13.850  10.637   9.867
39692SOL    HW120973  13.787  10.565   9.867
39692SOL    HW220974  13.858  10.662   9.959
39693SOL     OW20975   5.155   2.121  10.995
39693SOL    HW120976   5.083   2.097  10.936
39693SOL    HW220977   5.203   2.188  10.947
39694SOL     OW20978  12.535   0.436   8.875
39694SOL    HW120979  12.568   0.393   8.954
39694SOL    HW220980  12.441   0.419   8.877
39695SOL     OW20981   3.468  11.463   7.753
39695SOL    HW120982   3.448  11.427   7.839
39695SOL    HW220983   3.502  11.389   7.703
39696SOL     OW20984   3.096   3.244   4.636
39696SOL    HW120985   3.088   3.163   4.686
39696SOL    HW220986   3.161   3.296   4.684
39697SOL     OW20987  13.349   6.274   2.660
39697SOL    HW120988  13.329   6.181   2.649
39697SOL    HW220989  13.312   6.316   2.583
39698SOL     OW20990  10.914   0.794   7.750
39698SOL    HW120991  10.909   0.701   7.775
39698SOL    HW220992  10.864   0.800   7.669
39699SOL     OW20993   3.482   7.382  13.246
39699SOL    HW120994   3.459   7.360  13.155
39699SOL    HW220995   3.573   7.352  13.255
39700SOL     OW20996   0.124   2.144  11.266
39700SOL    HW120997   0.066   2.149  11.342
39700SOL    HW220998   0.093   2.069  11.216
39701SOL     OW20999   4.495   3.533   8.305
39701SOL    HW121000   4.427   3.470   8.281
39701SOL    HW221001   4.448   3.615   8.320
39702SOL     OW21002  10.599  13.667   6.959
39702SOL    HW121003  10.590  13.674   6.864
39702SOL    HW221004  10.687  13.633   6.973
39703SOL     OW21005   9.305   8.381   6.000
39703SOL    HW121006   9.391   8.376   6.042
39703SOL    HW221007   9.254   8.438   6.058
39704SOL     OW21008   0.715  12.749   4.783
39704SOL    HW121009   0.677  12.662   4.798
39704SOL    HW221010   0.717  12.790   4.869
39705SOL     OW21011  12.021   1.988   9.666
39705SOL    HW121012  12.016   1.929   9.741
39705SOL    HW221013  11.935   1.980   9.624
39706SOL     OW21014   4.791  10.263  10.698
39706SOL    HW121015   4.803  10.169  10.704
39706SOL    HW221016   4.843  10.290  10.622
39707SOL     OW21017   0.759   3.428   0.017
39707SOL    HW121018   0.839   3.474  14.870
39707SOL    HW221019   0.784   3.335   0.017
39708SOL     OW21020   3.391   3.221  10.942
39708SOL    HW121021   3.360   3.159  11.009
39708SOL    HW221022   3.333   3.296  10.952
39709SOL     OW21023   0.598  13.832   6.267
39709SOL    HW121024   0.509  13.799   6.261
39709SOL    HW221025   0.592  13.925   6.246
39710SOL     OW21026  14.518  10.169   0.575
39710SOL    HW121027  14.598  10.221   0.567
39710SOL    HW221028  14.504  10.159   0.669
39711SOL     OW21029   7.764   4.327   5.690
39711SOL    HW121030   7.849   4.355   5.723
39711SOL    HW221031   7.761   4.234   5.709
39712SOL     OW21032   6.460   1.430   2.318
39712SOL    HW121033   6.372   1.407   2.349
39712SOL    HW221034   6.509   1.451   2.397
39713SOL     OW21035   2.928   4.551   6.802
39713SOL    HW121036   2.884   4.614   6.859
39713SOL    HW221037   2.888   4.467   6.824
39714SOL     OW21038   2.489   1.337   3.052
39714SOL    HW121039   2.513   1.360   3.142
39714SOL    HW221040   2.400   1.303   3.060
39715SOL     OW21041   2.984   0.307   8.097
39715SOL    HW121042   3.073   0.284   8.125
39715SOL    HW221043   2.966   0.249   8.024
39716SOL     OW21044   3.461  10.274  10.641
39716SOL    HW121045   3.414  10.193  10.663
39716SOL    HW221046   3.415  10.307  10.564
39717SOL     OW21047  10.677  12.005  11.676
39717SOL    HW121048  10.659  11.944  11.605
39717SOL    HW221049  10.616  11.981  11.745
39718SOL     OW21050   2.562  13.041  11.637
39718SOL    HW121051   2.510  13.063  11.715
39718SOL    HW221052   2.650  13.026  11.671
39719SOL     OW21053   2.592   0.486   7.633
39719SOL    HW121054   2.527   0.530   7.687
39719SOL    HW221055   2.671   0.539   7.643
39720SOL     OW21056   0.032  13.380   3.513
39720SOL    HW121057   0.050  13.451   3.575
39720SOL    HW221058   0.116  13.364   3.470
39721SOL     OW21059  11.212   7.887   9.418
39721SOL    HW121060  11.301   7.923   9.409
39721SOL    HW221061  11.157   7.948   9.369
39722SOL     OW21062  13.750   5.447   6.916
39722SOL    HW121063  13.715   5.404   6.993
39722SOL    HW221064  13.680   5.442   6.851
39723SOL     OW21065   2.976  11.484   9.484
39723SOL    HW121066   3.011  11.418   9.424
39723SOL    HW221067   2.982  11.443   9.571
39724SOL     OW21068  14.130   6.683  14.582
39724SOL    HW121069  14.064   6.664  14.648
39724SOL    HW221070  14.130   6.779  14.575
39725SOL     OW21071   2.761  11.101   3.794
39725SOL    HW121072   2.775  11.193   3.813
39725SOL    HW221073   2.715  11.101   3.710
39726SOL     OW21074  10.230  13.715  13.186
39726SOL    HW121075  10.145  13.732  13.147
39726SOL    HW221076  10.250  13.794  13.237
39727SOL     OW21077  10.725  13.301  14.157
39727SOL    HW121078  10.728  13.313  14.062
39727SOL    HW221079  10.650  13.353  14.185
39728SOL     OW21080  13.388  11.010  14.394
39728SOL    HW121081  13.476  10.988  14.425
39728SOL    HW221082  13.379  11.104  14.410
39729SOL     OW21083  12.274   1.934  14.365
39729SOL    HW121084  12.329   1.866  14.326
39729SOL    HW221085  12.312   2.017  14.335
39730SOL     OW21086  11.861  10.585   1.739
39730SOL    HW121087  11.947  10.564   1.776
39730SOL    HW221088  11.878  10.594   1.645
39731SOL     OW21089   4.985  14.188   9.013
39731SOL    HW121090   4.918  14.128   8.981
39731SOL    HW221091   4.989  14.257   8.946
39732SOL     OW21092   2.052   0.284   6.398
39732SOL    HW121093   2.073   0.320   6.484
39732SOL    HW221094   2.119   0.218   6.382
39733SOL     OW21095   2.892  12.045   6.262
39733SOL    HW121096   2.869  11.960   6.300
39733SOL    HW221097   2.971  12.071   6.309
39734SOL     OW21098   8.451   1.863  11.256
39734SOL    HW121099   8.411   1.858  11.343
39734SOL    HW221100   8.531   1.915  11.268
39735SOL     OW21101   8.241  12.916   8.506
39735SOL    HW121102   8.188  12.921   8.586
39735SOL    HW221103   8.318  12.970   8.525
39736SOL     OW21104   3.697   3.833  11.108
39736SOL    HW121105   3.754   3.758  11.118
39736SOL    HW221106   3.638   3.830  11.184
39737SOL     OW21107   1.214   1.283  12.795
39737SOL    HW121108   1.229   1.217  12.862
39737SOL    HW221109   1.278   1.352  12.814
39738SOL     OW21110   5.740   9.091   0.921
39738SOL    HW121111   5.669   9.104   0.858
39738SOL    HW221112   5.750   9.176   0.965
39739SOL     OW21113  13.606   8.729  12.635
39739SOL    HW121114  13.589   8.731  12.540
39739SOL    HW221115  13.667   8.657  12.647
39740SOL     OW21116   2.289   4.165   8.428
39740SOL    HW121117   2.358   4.221   8.465
39740SOL    HW221118   2.333   4.115   8.360
39741SOL     OW21119   9.942  10.986  12.935
39741SOL    HW121120   9.876  11.005  13.002
39741SOL    HW221121   9.893  10.980  12.853
39742SOL     OW21122  13.070   6.013   4.979
39742SOL    HW121123  13.032   5.990   4.894
39742SOL    HW221124  13.042   5.943   5.038
39743SOL     OW21125  11.380   9.750   8.482
39743SOL    HW121126  11.310   9.775   8.422
39743SOL    HW221127  11.377   9.815   8.551
39744SOL     OW21128   1.952   9.619  12.574
39744SOL    HW121129   2.021   9.677  12.543
39744SOL    HW221130   1.942   9.641  12.667
39745SOL     OW21131   5.735   4.158   2.319
39745SOL    HW121132   5.665   4.221   2.336
39745SOL    HW221133   5.693   4.072   2.328
39746SOL     OW21134   8.859   5.870   4.141
39746SOL    HW121135   8.935   5.812   4.131
39746SOL    HW221136   8.806   5.829   4.209
39747SOL     OW21137   4.817   7.780   3.809
39747SOL    HW121138   4.739   7.787   3.864
39747SOL    HW221139   4.798   7.833   3.732
39748SOL     OW21140   2.658   9.537   7.287
39748SOL    HW121141   2.728   9.500   7.340
39748SOL    HW221142   2.582   9.537   7.345
39749SOL     OW21143   0.384  10.070   8.642
39749SOL    HW121144   0.313  10.047   8.703
39749SOL    HW221145   0.342  10.127   8.578
39750SOL     OW21146   8.800  14.360   6.937
39750SOL    HW121147   8.746  14.438   6.952
39750SOL    HW221148   8.881  14.377   6.985
39751SOL     OW21149   1.842   0.231   8.790
39751SOL    HW121150   1.937   0.233   8.779
39751SOL    HW221151   1.822   0.312   8.837
39752SOL     OW21152   6.584   6.075   2.823
39752SOL    HW121153   6.677   6.086   2.843
39752SOL    HW221154   6.564   5.985   2.847
39753SOL     OW21155  10.643  12.427  13.125
39753SOL    HW121156  10.657  12.421  13.031
39753SOL    HW221157  10.607  12.514  13.139
39754SOL     OW21158  11.854   4.717   3.361
39754SOL    HW121159  11.860   4.811   3.341
39754SOL    HW221160  11.908   4.706   3.439
39755SOL     OW21161   5.022  10.856   3.128
39755SOL    HW121162   5.006  10.857   3.223
39755SOL    HW221163   5.002  10.945   3.100
39756SOL     OW21164   1.553   2.953  13.579
39756SOL    HW121165   1.631   2.953  13.523
39756SOL    HW221166   1.479   2.956  13.517
39757SOL     OW21167  10.601  10.553   4.488
39757SOL    HW121168  10.604  10.645   4.516
39757SOL    HW221169  10.652  10.552   4.407
39758SOL     OW21170  14.524   7.248   6.155
39758SOL    HW121171  14.602   7.289   6.117
39758SOL    HW221172  14.477   7.211   6.081
39759SOL     OW21173  13.828  10.617   4.313
39759SOL    HW121174  13.854  10.531   4.278
39759SOL    HW221175  13.896  10.677   4.283
39760SOL     OW21176   5.167   9.551   8.869
39760SOL    HW121177   5.213   9.510   8.796
39760SOL    HW221178   5.220   9.629   8.890
39761SOL     OW21179   5.874   6.434   8.837
39761SOL    HW121180   5.823   6.423   8.917
39761SOL    HW221181   5.812   6.471   8.773
39762SOL     OW21182   2.575  13.759   7.258
39762SOL    HW121183   2.551  13.677   7.302
39762SOL    HW221184   2.575  13.737   7.165
39763SOL     OW21185   7.026   1.533   5.021
39763SOL    HW121186   7.020   1.596   5.093
39763SOL    HW221187   7.084   1.575   4.958
39764SOL     OW21188   0.850  13.603   9.328
39764SOL    HW121189   0.766  13.603   9.374
39764SOL    HW221190   0.913  13.630   9.395
39765SOL     OW21191  14.422   4.649   0.316
39765SOL    HW121192  14.443   4.558   0.338
39765SOL    HW221193  14.502   4.698   0.334
39766SOL     OW21194   1.414   0.787  11.832
39766SOL    HW121195   1.372   0.822  11.910
39766SOL    HW221196   1.478   0.724  11.865
39767SOL     OW21197   6.103  13.951   9.513
39767SOL    HW121198   6.023  13.916   9.552
39767SOL    HW221199   6.076  14.032   9.471
39768SOL     OW21200  13.856  12.474   1.848
39768SOL    HW121201  13.896  12.557   1.873
39768SOL    HW221202  13.855  12.422   1.928
39769SOL     OW21203   2.255   7.590   7.777
39769SOL    HW121204   2.208   7.641   7.711
39769SOL    HW221205   2.289   7.656   7.837
39770SOL     OW21206  12.735   2.422   8.690
39770SOL    HW121207  12.700   2.427   8.601
39770SOL    HW221208  12.700   2.500   8.733
39771SOL     OW21209   6.193   0.725   9.854
39771SOL    HW121210   6.158   0.813   9.853
39771SOL    HW221211   6.121   0.669   9.824
39772SOL     OW21212   4.816   8.956   2.967
39772SOL    HW121213   4.835   8.961   2.874
39772SOL    HW221214   4.866   8.880   2.998
39773SOL     OW21215  12.916   4.402   8.281
39773SOL    HW121216  12.956   4.370   8.361
39773SOL    HW221217  12.918   4.327   8.221
39774SOL     OW21218  13.170  13.640   8.242
39774SOL    HW121219  13.261  13.627   8.270
39774SOL    HW221220  13.125  13.669   8.321
39775SOL     OW21221   9.042   9.679   6.617
39775SOL    HW121222   9.043   9.715   6.705
39775SOL    HW221223   8.950   9.682   6.591
39776SOL     OW21224   6.328  11.308  11.204
39776SOL    HW121225   6.406  11.258  11.179
39776SOL    HW221226   6.281  11.250  11.263
39777SOL     OW21227  12.006   8.005   3.860
39777SOL    HW121228  12.068   8.051   3.803
39777SOL    HW221229  12.059   7.943   3.909
39778SOL     OW21230  14.800   9.751  11.529
39778SOL    HW121231  14.808   9.660  11.500
39778SOL    HW221232  14.721   9.752  11.583
39779SOL     OW21233   5.751  11.648   3.960
39779SOL    HW121234   5.710  11.691   4.035
39779SOL    HW221235   5.783  11.720   3.905
39780SOL     OW21236  10.748   5.424   3.281
39780SOL    HW121237  10.800   5.457   3.354
39780SOL    HW221238  10.716   5.339   3.310
39781SOL     OW21239   5.317  11.843   8.559
39781SOL    HW121240   5.361  11.761   8.534
39781SOL    HW221241   5.260  11.863   8.484
39782SOL     OW21242   1.228   6.990   7.786
39782SOL    HW121243   1.191   7.008   7.873
39782SOL    HW221244   1.228   6.894   7.780
39783SOL     OW21245  14.001   1.103   5.852
39783SOL    HW121246  14.048   1.032   5.895
39783SOL    HW221247  13.952   1.146   5.922
39784SOL     OW21248   2.124   7.249   4.354
39784SOL    HW121249   2.065   7.282   4.286
39784SOL    HW221250   2.192   7.201   4.307
39785SOL     OW21251  12.670   0.448   1.193
39785SOL    HW121252  12.588   0.464   1.147
39785SOL    HW221253  12.734   0.434   1.124
39786SOL     OW21254   5.776   9.204   1.211
39786SOL    HW121255   5.811   9.122   1.244
39786SOL    HW221256   5.683   9.202   1.234
39787SOL     OW21257   6.775   9.744   7.388
39787SOL    HW121258   6.862   9.762   7.353
39787SOL    HW221259   6.789   9.674   7.452
39788SOL     OW21260   2.594   7.100   6.763
39788SOL    HW121261   2.572   7.063   6.678
39788SOL    HW221262   2.689   7.090   6.771
39789SOL     OW21263  14.767   6.514   8.152
39789SOL    HW121264  14.841   6.473   8.106
39789SOL    HW221265  14.751   6.595   8.103
39790SOL     OW21266   0.510   2.775   2.670
39790SOL    HW121267   0.457   2.723   2.730
39790SOL    HW221268   0.448   2.806   2.603
39791SOL     OW21269  10.010   0.473  11.989
39791SOL    HW121270  10.057   0.524  12.056
39791SOL    HW221271  10.001   0.534  11.915
39792SOL     OW21272  14.486  13.474  13.710
39792SOL    HW121273  14.524  13.556  13.741
39792SOL    HW221274  14.420  13.501  13.646
39793SOL     OW21275   3.058  11.403   3.094
39793SOL    HW121276   2.973  11.364   3.074
39793SOL    HW221277   3.037  11.484   3.140
39794SOL     OW21278  11.049  13.762   6.526
39794SOL    HW121279  11.051  13.675   6.565
39794SOL    HW221280  11.064  13.822   6.599
39795SOL     OW21281   6.761   2.033   4.632
39795SOL    HW121282   6.843   2.033   4.682
39795SOL    HW221283   6.767   2.111   4.577
39796SOL     OW21284  10.393  12.526   7.710
39796SOL    HW121285  10.367  12.614   7.680
39796SOL    HW221286  10.480  12.539   7.747
39797SOL     OW21287   6.846  11.088   3.411
39797SOL    HW121288   6.906  11.026   3.369
39797SOL    HW221289   6.759  11.057   3.388
39798SOL     OW21290  10.793   9.410  13.820
39798SOL    HW121291  10.729   9.410  13.749
39798SOL    HW221292  10.847   9.488  13.804
39799SOL     OW21293   7.859   1.154   6.515
39799SOL    HW121294   7.950   1.182   6.507
39799SOL    HW221295   7.837   1.121   6.428
39800SOL     OW21296   0.921   5.249   7.896
39800SOL    HW121297   0.903   5.342   7.887
39800SOL    HW221298   0.969   5.242   7.978
39801SOL     OW21299   9.700   4.788   2.694
39801SOL    HW121300   9.699   4.715   2.755
39801SOL    HW221301   9.766   4.765   2.629
39802SOL     OW21302   2.144   7.261  13.664
39802SOL    HW121303   2.185   7.317  13.599
39802SOL    HW221304   2.175   7.295  13.748
39803SOL     OW21305   8.434  14.731   7.588
39803SOL    HW121306   8.495  14.729   7.514
39803SOL    HW221307   8.440  14.820   7.622
39804SOL     OW21308  11.418   9.237   2.980
39804SOL    HW121309  11.411   9.319   2.932
39804SOL    HW221310  11.495   9.193   2.942
39805SOL     OW21311   2.239   3.853   7.605
39805SOL    HW121312   2.147   3.859   7.579
39805SOL    HW221313   2.285   3.830   7.525
39806SOL     OW21314   6.269   8.337   2.642
39806SOL    HW121315   6.314   8.269   2.591
39806SOL    HW221316   6.196   8.291   2.683
39807SOL     OW21317  11.038  13.955  12.073
39807SOL    HW121318  10.952  13.940  12.113
39807SOL    HW221319  11.075  13.867  12.063
39808SOL     OW21320   9.453  12.596  14.630
39808SOL    HW121321   9.427  12.673  14.681
39808SOL    HW221322   9.549  12.601  14.626
39809SOL     OW21323   3.851   0.555  11.630
39809SOL    HW121324   3.908   0.613  11.580
39809SOL    HW221325   3.877   0.467  11.604
39810SOL     OW21326   8.541  11.352   8.426
39810SOL    HW121327   8.585  11.435   8.444
39810SOL    HW221328   8.448  11.375   8.417
39811SOL     OW21329  12.627   1.707   9.542
39811SOL    HW121330  12.556   1.760   9.579
39811SOL    HW221331  12.659   1.759   9.468
39812SOL     OW21332   7.748   9.507   5.884
39812SOL    HW121333   7.711   9.562   5.954
39812SOL    HW221334   7.781   9.430   5.929
39813SOL     OW21335  11.021   6.807  13.531
39813SOL    HW121336  11.004   6.760  13.449
39813SOL    HW221337  11.020   6.899  13.507
39814SOL     OW21338   8.553   4.915   3.821
39814SOL    HW121339   8.543   4.825   3.854
39814SOL    HW221340   8.621   4.909   3.754
39815SOL     OW21341   6.139   4.324  14.005
39815SOL    HW121342   6.063   4.354  14.055
39815SOL    HW221343   6.215   4.358  14.052
39816SOL     OW21344  11.514   2.711   4.643
39816SOL    HW121345  11.561   2.749   4.717
39816SOL    HW221346  11.421   2.717   4.667
39817SOL     OW21347   1.073   0.277  10.312
39817SOL    HW121348   1.060   0.257  10.404
39817SOL    HW221349   1.022   0.357  10.298
39818SOL     OW21350   5.417   4.252   7.844
39818SOL    HW121351   5.379   4.309   7.776
39818SOL    HW221352   5.362   4.266   7.921
39819SOL     OW21353   6.238  14.012   3.932
39819SOL    HW121354   6.234  14.055   3.846
39819SOL    HW221355   6.214  13.921   3.915
39820SOL     OW21356   0.485  10.302   2.491
39820SOL    HW121357   0.518  10.342   2.410
39820SOL    HW221358   0.530  10.218   2.496
39821SOL     OW21359   7.555   8.141   6.717
39821SOL    HW121360   7.500   8.076   6.673
39821SOL    HW221361   7.644   8.109   6.705
39822SOL     OW21362  12.688   6.458   1.979
39822SOL    HW121363  12.739   6.381   1.952
39822SOL    HW221364  12.647   6.433   2.061
39823SOL     OW21365   3.027  10.346   7.801
39823SOL    HW121366   2.934  10.339   7.781
39823SOL    HW221367   3.033  10.421   7.860
39824SOL     OW21368  13.776   0.055   6.351
39824SOL    HW121369  13.803   0.139   6.313
39824SOL    HW221370  13.828  14.865   6.305
39825SOL     OW21371   6.514   8.306   0.339
39825SOL    HW121372   6.565   8.322   0.260
39825SOL    HW221373   6.423   8.311   0.310
39826SOL     OW21374   0.567   5.120   5.997
39826SOL    HW121375   0.545   5.210   6.022
39826SOL    HW221376   0.522   5.066   6.062
39827SOL     OW21377  10.639   6.659  10.400
39827SOL    HW121378  10.696   6.635  10.474
39827SOL    HW221379  10.613   6.575  10.362
39828SOL     OW21380   8.007   4.455   0.751
39828SOL    HW121381   7.975   4.536   0.791
39828SOL    HW221382   8.103   4.464   0.753
39829SOL     OW21383  11.903   6.629   1.743
39829SOL    HW121384  11.840   6.589   1.803
39829SOL    HW221385  11.983   6.637   1.794
39830SOL     OW21386   1.387   8.135  14.366
39830SOL    HW121387   1.429   8.089  14.439
39830SOL    HW221388   1.443   8.212  14.352
39831SOL     OW21389   1.415   9.434   6.713
39831SOL    HW121390   1.447   9.344   6.705
39831SOL    HW221391   1.354   9.445   6.641
39832SOL     OW21392   0.010   0.760  14.081
39832SOL    HW121393   0.083   0.735  14.137
39832SOL    HW221394   0.046   0.760  13.993
39833SOL     OW21395  12.396  12.158   8.426
39833SOL    HW121396  12.310  12.170   8.467
39833SOL    HW221397  12.376  12.150   8.332
39834SOL     OW21398   4.355   9.617  10.271
39834SOL    HW121399   4.261   9.630  10.260
39834SOL    HW221400   4.377   9.663  10.352
39835SOL     OW21401   5.763   9.500   9.671
39835SOL    HW121402   5.688   9.550   9.701
39835SOL    HW221403   5.781   9.533   9.583
39836SOL     OW21404   3.848   4.803  14.004
39836SOL    HW121405   3.808   4.740  14.063
39836SOL    HW221406   3.847   4.760  13.918
39837SOL     OW21407   0.725  11.088  11.118
39837SOL    HW121408   0.720  11.001  11.159
39837SOL    HW221409   0.806  11.087  11.068
39838SOL     OW21410   2.955   1.972   1.158
39838SOL    HW121411   2.920   2.026   1.088
39838SOL    HW221412   2.879   1.949   1.212
39839SOL     OW21413   3.120   4.514  11.132
39839SOL    HW121414   3.100   4.460  11.209
39839SOL    HW221415   3.103   4.455  11.057
39840SOL     OW21416   6.962  10.843   9.019
39840SOL    HW121417   6.895  10.786   8.980
39840SOL    HW221418   6.925  10.870   9.103
39841SOL     OW21419   4.222   7.003   3.197
39841SOL    HW121420   4.168   6.942   3.147
39841SOL    HW221421   4.168   7.026   3.273
39842SOL     OW21422   2.646  10.891   1.625
39842SOL    HW121423   2.651  10.983   1.649
39842SOL    HW221424   2.601  10.850   1.699
39843SOL     OW21425  12.763   5.254   2.739
39843SOL    HW121426  12.768   5.217   2.650
39843SOL    HW221427  12.752   5.178   2.796
39844SOL     OW21428   7.530   4.533  14.564
39844SOL    HW121429   7.579   4.457  14.595
39844SOL    HW221430   7.578   4.609  14.596
39845SOL     OW21431  11.838   1.923  11.234
39845SOL    HW121432  11.765   1.877  11.276
39845SOL    HW221433  11.862   1.992  11.296
39846SOL     OW21434  13.778   0.269   6.789
39846SOL    HW121435  13.872   0.266   6.771
39846SOL    HW221436  13.770   0.236   6.879
39847SOL     OW21437  10.658   6.119  14.040
39847SOL    HW121438  10.643   6.196  13.986
39847SOL    HW221439  10.570   6.092  14.067
39848SOL     OW21440  13.987   5.519   3.596
39848SOL    HW121441  14.029   5.435   3.579
39848SOL    HW221442  13.893   5.502   3.586
39849SOL     OW21443   4.651   9.957  13.707
39849SOL    HW121444   4.678   9.891  13.643
39849SOL    HW221445   4.556   9.954  13.705
39850SOL     OW21446   5.951  13.682   7.243
39850SOL    HW121447   5.860  13.710   7.235
39850SOL    HW221448   6.000  13.742   7.186
39851SOL     OW21449   2.817   4.645  10.369
39851SOL    HW121450   2.911   4.646  10.383
39851SOL    HW221451   2.780   4.617  10.453
39852SOL     OW21452   3.060   6.934   3.037
39852SOL    HW121453   2.981   6.888   3.010
39852SOL    HW221454   3.097   6.968   2.956
39853SOL     OW21455  11.829   1.322   8.913
39853SOL    HW121456  11.870   1.279   8.989
39853SOL    HW221457  11.780   1.395   8.951
39854SOL     OW21458   5.725  13.769   0.402
39854SOL    HW121459   5.662  13.701   0.375
39854SOL    HW221460   5.730  13.828   0.326
39855SOL     OW21461   6.429  12.692  13.901
39855SOL    HW121462   6.377  12.692  13.981
39855SOL    HW221463   6.518  12.672  13.929
39856SOL     OW21464  14.055   9.598  14.698
39856SOL    HW121465  14.036   9.647  14.617
39856SOL    HW221466  14.040   9.661  14.768
39857SOL     OW21467   0.586   0.209   3.362
39857SOL    HW121468   0.610   0.245   3.447
39857SOL    HW221469   0.665   0.163   3.333
39858SOL     OW21470   3.700  14.494   7.738
39858SOL    HW121471   3.641  14.570   7.732
39858SOL    HW221472   3.674  14.438   7.665
39859SOL     OW21473   3.736   5.946  13.537
39859SOL    HW121474   3.648   5.938  13.499
39859SOL    HW221475   3.722   5.990  13.621
39860SOL     OW21476   6.863   7.837  14.045
39860SOL    HW121477   6.843   7.930  14.055
39860SOL    HW221478   6.924   7.818  14.117
39861SOL     OW21479  12.338   4.441  13.880
39861SOL    HW121480  12.382   4.373  13.930
39861SOL    HW221481  12.303   4.396  13.803
39862SOL     OW21482   2.155  14.490   6.350
39862SOL    HW121483   2.098  14.546   6.299
39862SOL    HW221484   2.213  14.550   6.397
39863SOL     OW21485   3.645  10.963  12.026
39863SOL    HW121486   3.630  11.036  11.967
39863SOL    HW221487   3.739  10.966  12.045
39864SOL     OW21488  11.695   8.958   7.139
39864SOL    HW121489  11.669   8.875   7.179
39864SOL    HW221490  11.613   9.007   7.128
39865SOL     OW21491  13.029   5.120  14.638
39865SOL    HW121492  13.102   5.150  14.692
39865SOL    HW221493  13.070   5.089  14.558
39866SOL     OW21494  10.630   1.111   1.546
39866SOL    HW121495  10.568   1.038   1.558
39866SOL    HW221496  10.715   1.074   1.570
39867SOL     OW21497   0.635   2.089   7.259
39867SOL    HW121498   0.679   2.099   7.343
39867SOL    HW221499   0.651   1.998   7.234
39868SOL     OW21500   2.766   2.228   9.819
39868SOL    HW121501   2.779   2.194   9.908
39868SOL    HW221502   2.848   2.272   9.798
39869SOL     OW21503   8.184  11.812   0.881
39869SOL    HW121504   8.172  11.730   0.834
39869SOL    HW221505   8.278  11.832   0.872
39870SOL     OW21506   1.623   6.449  13.598
39870SOL    HW121507   1.598   6.364  13.634
39870SOL    HW221508   1.624   6.508  13.673
39871SOL     OW21509   0.973   6.098  10.928
39871SOL    HW121510   0.938   6.024  10.878
39871SOL    HW221511   0.974   6.171  10.866
39872SOL     OW21512   4.608   9.116   6.394
39872SOL    HW121513   4.636   9.207   6.388
39872SOL    HW221514   4.580   9.094   6.305
39873SOL     OW21515   7.333   5.033  11.411
39873SOL    HW121516   7.400   4.971  11.441
39873SOL    HW221517   7.342   5.108  11.469
39874SOL     OW21518   0.576  11.943   8.969
39874SOL    HW121519   0.592  11.989   9.051
39874SOL    HW221520   0.486  11.966   8.946
39875SOL     OW21521   5.785   3.695   2.798
39875SOL    HW121522   5.741   3.730   2.720
39875SOL    HW221523   5.747   3.743   2.871
39876SOL     OW21524   5.012   9.551   3.539
39876SOL    HW121525   5.000   9.576   3.630
39876SOL    HW221526   4.930   9.509   3.514
39877SOL     OW21527  12.689   1.065   4.224
39877SOL    HW121528  12.731   1.149   4.203
39877SOL    HW221529  12.597   1.087   4.236
39878SOL     OW21530  10.490  13.042   4.065
39878SOL    HW121531  10.477  13.089   3.982
39878SOL    HW221532  10.583  13.055   4.085
39879SOL     OW21533   0.929   2.782   7.275
39879SOL    HW121534   0.864   2.851   7.261
39879SOL    HW221535   0.980   2.812   7.350
39880SOL     OW21536   0.469  11.020   3.955
39880SOL    HW121537   0.560  11.046   3.972
39880SOL    HW221538   0.474  10.970   3.874
39881SOL     OW21539  11.657   6.904   9.871
39881SOL    HW121540  11.727   6.960   9.905
39881SOL    HW221541  11.703   6.830   9.830
39882SOL     OW21542  13.008  11.761   2.798
39882SOL    HW121543  13.055  11.775   2.715
39882SOL    HW221544  13.077  11.750   2.863
39883SOL     OW21545   5.455  12.966  11.689
39883SOL    HW121546   5.440  13.042  11.746
39883SOL    HW221547   5.494  13.003  11.610
39884SOL     OW21548   0.991   3.355   4.340
39884SOL    HW121549   0.946   3.398   4.267
39884SOL    HW221550   1.077   3.333   4.305
39885SOL     OW21551  12.927   7.212   6.955
39885SOL    HW121552  12.894   7.125   6.977
39885SOL    HW221553  13.018   7.212   6.983
39886SOL     OW21554  13.472  11.360   1.942
39886SOL    HW121555  13.407  11.427   1.965
39886SOL    HW221556  13.423  11.278   1.943
39887SOL     OW21557   6.970  14.213   4.710
39887SOL    HW121558   7.054  14.194   4.754
39887SOL    HW221559   6.988  14.290   4.656
39888SOL     OW21560  12.888  10.039  10.318
39888SOL    HW121561  12.877   9.947  10.294
39888SOL    HW221562  12.975  10.062  10.285
39889SOL     OW21563   5.331   9.065  10.164
39889SOL    HW121564   5.297   9.116  10.238
39889SOL    HW221565   5.292   8.978  10.175
39890SOL     OW21566  10.629   1.957   6.959
39890SOL    HW121567  10.621   1.889   6.892
39890SOL    HW221568  10.722   1.962   6.978
39891SOL     OW21569  10.493   0.899   6.550
39891SOL    HW121570  10.570   0.943   6.584
39891SOL    HW221571  10.434   0.969   6.522
39892SOL     OW21572   2.150   1.706   9.846
39892SOL    HW121573   2.067   1.746   9.873
39892SOL    HW221574   2.203   1.704   9.925
39893SOL     OW21575   7.572   7.449  11.790
39893SOL    HW121576   7.667   7.454  11.783
39893SOL    HW221577   7.548   7.372  11.738
39894SOL     OW21578   1.941   5.230  10.726
39894SOL    HW121579   1.866   5.275  10.766
39894SOL    HW221580   1.902   5.153  10.684
39895SOL     OW21581   6.061   3.037  10.116
39895SOL    HW121582   5.995   3.105  10.105
39895SOL    HW221583   6.138   3.083  10.148
39896SOL     OW21584   4.009   6.944  14.816
39896SOL    HW121585   4.104   6.940  14.805
39896SOL    HW221586   3.975   6.960  14.728
39897SOL     OW21587   4.023   2.394   8.028
39897SOL    HW121588   4.085   2.424   7.962
39897SOL    HW221589   3.998   2.473   8.076
39898SOL     OW21590   5.913   3.347   1.203
39898SOL    HW121591   5.918   3.428   1.152
39898SOL    HW221592   5.820   3.329   1.210
39899SOL     OW21593  13.332  10.367   5.447
39899SOL    HW121594  13.405  10.408   5.494
39899SOL    HW221595  13.372  10.333   5.367
39900SOL     OW21596   9.797   0.824  14.330
39900SOL    HW121597   9.876   0.806  14.380
39900SOL    HW221598   9.738   0.752  14.352
39901SOL     OW21599   7.750   3.147   8.674
39901SOL    HW121600   7.725   3.117   8.761
39901SOL    HW221601   7.783   3.235   8.687
39902SOL     OW21602   1.091   4.479   1.357
39902SOL    HW121603   1.106   4.495   1.450
39902SOL    HW221604   1.016   4.534   1.335
39903SOL     OW21605  12.591  14.341   6.327
39903SOL    HW121606  12.503  14.307   6.311
39903SOL    HW221607  12.578  14.418   6.382
39904SOL     OW21608  13.330   1.316   2.516
39904SOL    HW121609  13.424   1.305   2.501
39904SOL    HW221610  13.298   1.365   2.441
39905SOL     OW21611   6.373  10.283   6.333
39905SOL    HW121612   6.347  10.236   6.254
39905SOL    HW221613   6.381  10.374   6.306
39906SOL     OW21614   7.360  12.587   5.319
39906SOL    HW121615   7.304  12.663   5.336
39906SOL    HW221616   7.398  12.566   5.405
39907SOL     OW21617   9.103  13.471  10.955
39907SOL    HW121618   9.066  13.384  10.945
39907SOL    HW221619   9.073  13.501  11.041
39908SOL     OW21620   1.106   6.857   4.362
39908SOL    HW121621   1.012   6.872   4.368
39908SOL    HW221622   1.139   6.876   4.450
39909SOL     OW21623   6.748   3.606  13.984
39909SOL    HW121624   6.687   3.590  14.055
39909SOL    HW221625   6.740   3.699  13.965
39910SOL     OW21626   4.224  11.816  10.597
39910SOL    HW121627   4.292  11.847  10.538
39910SOL    HW221628   4.258  11.732  10.630
39911SOL     OW21629  11.705   8.774  13.391
39911SOL    HW121630  11.730   8.844  13.330
39911SOL    HW221631  11.766   8.783  13.464
39912SOL     OW21632  10.440   0.532   4.924
39912SOL    HW121633  10.510   0.548   4.860
39912SOL    HW221634  10.360   0.528   4.872
39913SOL     OW21635  12.085   3.911  11.657
39913SOL    HW121636  12.115   3.985  11.604
39913SOL    HW221637  11.996   3.934  11.683
39914SOL     OW21638  11.249  10.356  13.673
39914SOL    HW121639  11.282  10.355  13.583
39914SOL    HW221640  11.322  10.387  13.725
39915SOL     OW21641   5.905  12.277   7.016
39915SOL    HW121642   5.969  12.344   7.040
39915SOL    HW221643   5.957  12.197   7.006
39916SOL     OW21644   3.477  14.166   1.350
39916SOL    HW121645   3.529  14.194   1.425
39916SOL    HW221646   3.459  14.073   1.367
39917SOL     OW21647   2.833   9.531  13.399
39917SOL    HW121648   2.757   9.474  13.384
39917SOL    HW221649   2.822   9.602  13.336
39918SOL     OW21650   3.620  11.724   7.942
39918SOL    HW121651   3.579  11.673   8.012
39918SOL    HW221652   3.698  11.761   7.982
39919SOL     OW21653   0.208   7.877  10.116
39919SOL    HW121654   0.130   7.837  10.155
39919SOL    HW221655   0.196   7.971  10.132
39920SOL     OW21656   7.175   6.597   7.696
39920SOL    HW121657   7.270   6.584   7.693
39920SOL    HW221658   7.164   6.690   7.716
39921SOL     OW21659   2.740   8.951   5.688
39921SOL    HW121660   2.757   8.876   5.631
39921SOL    HW221661   2.655   8.930   5.729
39922SOL     OW21662   5.504   6.668   8.230
39922SOL    HW121663   5.428   6.650   8.285
39922SOL    HW221664   5.495   6.608   8.156
39923SOL     OW21665  13.479   9.188   1.997
39923SOL    HW121666  13.541   9.155   1.932
39923SOL    HW221667  13.410   9.121   2.000
39924SOL     OW21668   5.221   8.721  11.655
39924SOL    HW121669   5.152   8.671  11.611
39924SOL    HW221670   5.302   8.693  11.613
39925SOL     OW21671   9.890   2.424   1.232
39925SOL    HW121672   9.975   2.465   1.212
39925SOL    HW221673   9.907   2.330   1.227
39926SOL     OW21674   9.047   9.306   5.049
39926SOL    HW121675   8.996   9.260   5.116
39926SOL    HW221676   8.983   9.330   4.983
39927SOL     OW21677  11.513   4.963  11.242
39927SOL    HW121678  11.514   5.057  11.222
39927SOL    HW221679  11.582   4.952  11.308
39928SOL     OW21680   3.862   3.758   0.290
39928SOL    HW121681   3.837   3.827   0.352
39928SOL    HW221682   3.801   3.769   0.217
39929SOL     OW21683   7.825  14.032   8.722
39929SOL    HW121684   7.868  14.107   8.682
39929SOL    HW221685   7.738  14.064   8.745
39930SOL     OW21686   9.639  13.490  13.555
39930SOL    HW121687   9.707  13.519  13.615
39930SOL    HW221688   9.579  13.439  13.609
39931SOL     OW21689   6.849  11.949   0.022
39931SOL    HW121690   6.773  12.004   0.002
39931SOL    HW221691   6.828  11.865  14.857
39932SOL     OW21692  10.440   5.088   2.860
39932SOL    HW121693  10.513   5.146   2.881
39932SOL    HW221694  10.384   5.140   2.803
39933SOL     OW21695   6.029   2.081  10.166
39933SOL    HW121696   6.080   2.075  10.247
39933SOL    HW221697   5.943   2.045  10.189
39934SOL     OW21698   1.101   4.712   1.886
39934SOL    HW121699   1.153   4.790   1.905
39934SOL    HW221700   1.147   4.641   1.931
39935SOL     OW21701  12.033   4.044   1.355
39935SOL    HW121702  12.022   4.088   1.439
39935SOL    HW221703  11.946   4.046   1.315
39936SOL     OW21704   9.709   7.623  14.332
39936SOL    HW121705   9.763   7.678  14.388
39936SOL    HW221706   9.753   7.538  14.331
39937SOL     OW21707   9.612  10.805  12.434
39937SOL    HW121708   9.556  10.767  12.366
39937SOL    HW221709   9.557  10.870  12.477
39938SOL     OW21710   1.443  13.906   8.169
39938SOL    HW121711   1.535  13.907   8.196
39938SOL    HW221712   1.445  13.933   8.077
39939SOL     OW21713  13.582   0.550   9.151
39939SOL    HW121714  13.663   0.579   9.109
39939SOL    HW221715  13.597   0.457   9.168
39940SOL     OW21716   1.485  13.855   0.133
39940SOL    HW121717   1.451  13.873   0.045
39940SOL    HW221718   1.408  13.862   0.190
39941SOL     OW21719   0.824   0.831   7.330
39941SOL    HW121720   0.832   0.925   7.313
39941SOL    HW221721   0.776   0.826   7.413
39942SOL     OW21722   6.610   9.823   0.543
39942SOL    HW121723   6.588   9.899   0.489
39942SOL    HW221724   6.531   9.768   0.539
39943SOL     OW21725   4.650   6.363  10.278
39943SOL    HW121726   4.692   6.419  10.344
39943SOL    HW221727   4.583   6.315  10.326
39944SOL     OW21728   2.789  14.683  14.038
39944SOL    HW121729   2.711  14.732  14.064
39944SOL    HW221730   2.844  14.747  13.993
39945SOL     OW21731   8.438   2.554   7.266
39945SOL    HW121732   8.362   2.611   7.280
39945SOL    HW221733   8.430   2.486   7.333
39946SOL     OW21734   0.480  11.665  13.143
39946SOL    HW121735   0.427  11.639  13.068
39946SOL    HW221736   0.418  11.669  13.216
39947SOL     OW21737   8.980  10.436  14.867
39947SOL    HW121738   8.902  10.485   0.016
39947SOL    HW221739   8.946  10.358  14.821
39948SOL     OW21740  10.578   0.409   2.791
39948SOL    HW121741  10.622   0.458   2.861
39948SOL    HW221742  10.616   0.445   2.710
39949SOL     OW21743  11.965   4.478  12.014
39949SOL    HW121744  11.890   4.476  11.954
39949SOL    HW221745  11.978   4.387  12.040
39950SOL     OW21746  12.110   1.995  12.392
39950SOL    HW121747  12.196   1.952  12.383
39950SOL    HW221748  12.052   1.943  12.337
39951SOL     OW21749   1.633  12.554   1.003
39951SOL    HW121750   1.540  12.541   1.025
39951SOL    HW221751   1.661  12.627   1.058
39952SOL     OW21752   1.140   1.605  13.643
39952SOL    HW121753   1.084   1.572  13.714
39952SOL    HW221754   1.084   1.666  13.596
39953SOL     OW21755   3.164   7.449   1.288
39953SOL    HW121756   3.138   7.376   1.231
39953SOL    HW221757   3.086   7.504   1.292
39954SOL     OW21758   1.064   0.607   1.866
39954SOL    HW121759   1.084   0.518   1.838
39954SOL    HW221760   1.113   0.662   1.805
39955SOL     OW21761  12.372   3.888  11.970
39955SOL    HW121762  12.301   3.953  11.974
39955SOL    HW221763  12.338   3.819  11.913
39956SOL     OW21764   9.777   3.599   1.569
39956SOL    HW121765   9.823   3.649   1.636
39956SOL    HW221766   9.684   3.612   1.588
39957SOL     OW21767   6.601  11.319   6.578
39957SOL    HW121768   6.641  11.316   6.665
39957SOL    HW221769   6.509  11.295   6.593
39958SOL     OW21770   3.684   0.136   5.649
39958SOL    HW121771   3.608   0.189   5.626
39958SOL    HW221772   3.661   0.096   5.733
39959SOL     OW21773  12.553   5.118   7.603
39959SOL    HW121774  12.521   5.032   7.577
39959SOL    HW221775  12.511   5.135   7.687
39960SOL     OW21776   1.857  12.617  10.477
39960SOL    HW121777   1.833  12.698  10.521
39960SOL    HW221778   1.951  12.606  10.497
39961SOL     OW21779   2.341   6.303  10.296
39961SOL    HW121780   2.396   6.357  10.239
39961SOL    HW221781   2.358   6.213  10.266
39962SOL     OW21782  10.401   8.416   4.388
39962SOL    HW121783  10.466   8.409   4.458
39962SOL    HW221784  10.451   8.445   4.312
39963SOL     OW21785   0.417   3.966   3.147
39963SOL    HW121786   0.380   4.036   3.200
39963SOL    HW221787   0.509   3.991   3.135
39964SOL     OW21788   6.725   7.903  11.904
39964SOL    HW121789   6.812   7.924  11.937
39964SOL    HW221790   6.674   7.880  11.981
39965SOL     OW21791  13.672   4.931   1.259
39965SOL    HW121792  13.577   4.941   1.262
39965SOL    HW221793  13.706   5.009   1.303
39966SOL     OW21794   8.231  14.363   9.866
39966SOL    HW121795   8.223  14.282   9.815
39966SOL    HW221796   8.186  14.344   9.949
39967SOL     OW21797   6.132   4.026  10.355
39967SOL    HW121798   6.211   3.974  10.338
39967SOL    HW221799   6.077   3.969  10.409
39968SOL     OW21800   3.353  10.366  10.402
39968SOL    HW121801   3.262  10.377  10.375
39968SOL    HW221802   3.397  10.329  10.326
39969SOL     OW21803   7.619  10.703   2.248
39969SOL    HW121804   7.523  10.700   2.252
39969SOL    HW221805   7.638  10.752   2.168
39970SOL     OW21806   6.194   1.518   1.560
39970SOL    HW121807   6.134   1.448   1.537
39970SOL    HW221808   6.174   1.589   1.498
39971SOL     OW21809  11.688   1.042   3.778
39971SOL    HW121810  11.700   0.989   3.856
39971SOL    HW221811  11.776   1.049   3.740
39972SOL     OW21812   1.140  14.373   3.353
39972SOL    HW121813   1.116  14.383   3.445
39972SOL    HW221814   1.059  14.391   3.305
39973SOL     OW21815  13.833  10.826   3.001
39973SOL    HW121816  13.820  10.830   2.906
39973SOL    HW221817  13.809  10.913   3.033
39974SOL     OW21818  11.277   5.964   1.596
39974SOL    HW121819  11.275   5.919   1.511
39974SOL    HW221820  11.368   5.993   1.606
39975SOL     OW21821  10.511   9.498   6.387
39975SOL    HW121822  10.478   9.411   6.410
39975SOL    HW221823  10.578   9.481   6.321
39976SOL     OW21824   8.907   2.188  12.323
39976SOL    HW121825   8.831   2.135  12.347
39976SOL    HW221826   8.873   2.277  12.316
39977SOL     OW21827   0.401   2.961   2.480
39977SOL    HW121828   0.390   3.001   2.394
39977SOL    HW221829   0.426   3.033   2.538
39978SOL     OW21830   5.019   7.764  10.597
39978SOL    HW121831   4.957   7.697  10.567
39978SOL    HW221832   5.102   7.717  10.606
39979SOL     OW21833   6.338  13.255   0.600
39979SOL    HW121834   6.252  13.291   0.578
39979SOL    HW221835   6.386  13.253   0.517
39980SOL     OW21836  11.603   1.425   3.414
39980SOL    HW121837  11.683   1.472   3.437
39980SOL    HW221838  11.633   1.348   3.365
39981SOL     OW21839   8.697   2.701   9.492
39981SOL    HW121840   8.636   2.755   9.442
39981SOL    HW221841   8.782   2.716   9.450
39982SOL     OW21842   5.864   2.502   4.848
39982SOL    HW121843   5.943   2.521   4.797
39982SOL    HW221844   5.890   2.432   4.907
39983SOL     OW21845  12.341   1.770   9.357
39983SOL    HW121846  12.289   1.773   9.438
39983SOL    HW221847  12.420   1.820   9.378
39984SOL     OW21848   7.957   3.735   4.551
39984SOL    HW121849   8.035   3.730   4.607
39984SOL    HW221850   7.890   3.771   4.608
39985SOL     OW21851   4.288  11.578  14.712
39985SOL    HW121852   4.225  11.549  14.778
39985SOL    HW221853   4.372  11.579  14.757
39986SOL     OW21854   7.727   1.548   2.584
39986SOL    HW121855   7.632   1.551   2.589
39986SOL    HW221856   7.746   1.472   2.528
39987SOL     OW21857   9.639   0.050   3.743
39987SOL    HW121858   9.687   0.053   3.660
39987SOL    HW221859   9.550   0.022   3.719
39988SOL     OW21860  11.121   5.981   5.700
39988SOL    HW121861  11.101   6.023   5.784
39988SOL    HW221862  11.123   5.888   5.720
39989SOL     OW21863   3.094   7.004   1.788
39989SOL    HW121864   3.160   7.066   1.755
39989SOL    HW221865   3.143   6.948   1.849
39990SOL     OW21866   7.381   7.493   6.966
39990SOL    HW121867   7.404   7.517   7.056
39990SOL    HW221868   7.376   7.576   6.919
39991SOL     OW21869   4.335  11.530   4.374
39991SOL    HW121870   4.422  11.509   4.406
39991SOL    HW221871   4.347  11.605   4.316
39992SOL     OW21872   7.734   2.731  14.866
39992SOL    HW121873   7.655   2.739  14.813
39992SOL    HW221874   7.709   2.672   0.062
39993SOL     OW21875   1.510  11.568   2.297
39993SOL    HW121876   1.440  11.632   2.310
39993SOL    HW221877   1.535  11.542   2.386
39994SOL     OW21878   4.187   0.623  13.420
39994SOL    HW121879   4.250   0.649  13.352
39994SOL    HW221880   4.114   0.684  13.409
39995SOL     OW21881   3.089   9.452   2.438
39995SOL    HW121882   3.105   9.514   2.366
39995SOL    HW221883   3.095   9.506   2.517
39996SOL     OW21884   0.687   2.737   1.980
39996SOL    HW121885   0.767   2.736   1.929
39996SOL    HW221886   0.690   2.656   2.031
39997SOL     OW21887   2.032  14.280   4.066
39997SOL    HW121888   2.030  14.317   4.154
39997SOL    HW221889   1.939  14.275   4.041
39998SOL     OW21890   5.872   1.492   7.650
39998SOL    HW121891   5.934   1.420   7.648
39998SOL    HW221892   5.884   1.532   7.737
39999SOL     OW21893  14.482  10.753  12.781
39999SOL    HW121894  14.471  10.697  12.704
39999SOL    HW221895  14.521  10.834  12.746
40000SOL     OW21896   6.585   5.439  14.496
40000SOL    HW121897   6.587   5.380  14.420
40000SOL    HW221898   6.541   5.388  14.564
40001SOL     OW21899  14.747  11.358   7.198
40001SOL    HW121900  14.767  11.286   7.138
40001SOL    HW221901  14.832  11.399   7.216
40002SOL     OW21902   6.741   7.354   3.704
40002SOL    HW121903   6.746   7.449   3.697
40002SOL    HW221904   6.709   7.337   3.793
40003SOL     OW21905   9.961   8.550  10.901
40003SOL    HW121906   9.902   8.625  10.896
40003SOL    HW221907   9.904   8.474  10.900
40004SOL     OW21908  13.450   5.619   6.273
40004SOL    HW121909  13.521   5.582   6.222
40004SOL    HW221910  13.408   5.681   6.213
40005SOL     OW21911   7.624   9.064   4.970
40005SOL    HW121912   7.604   9.126   5.040
40005SOL    HW221913   7.712   9.088   4.941
40006SOL     OW21914  10.179   7.241  11.544
40006SOL    HW121915  10.108   7.292  11.503
40006SOL    HW221916  10.233   7.213  11.470
40007SOL     OW21917   4.518   5.999  13.752
40007SOL    HW121918   4.480   5.976  13.667
40007SOL    HW221919   4.561   6.083  13.737
40008SOL     OW21920   1.638  13.126  11.304
40008SOL    HW121921   1.559  13.080  11.331
40008SOL    HW221922   1.615  13.219  11.309
40009SOL     OW21923   6.971  14.153   6.819
40009SOL    HW121924   6.894  14.187   6.866
40009SOL    HW221925   6.934  14.103   6.747
40010SOL     OW21926  11.050   8.390   0.879
40010SOL    HW121927  11.007   8.465   0.838
40010SOL    HW221928  11.085   8.424   0.961
40011SOL     OW21929  14.710  13.481  13.171
40011SOL    HW121930  14.759  13.435  13.239
40011SOL    HW221931  14.750  13.453  13.088
40012SOL     OW21932   2.095   5.759   6.615
40012SOL    HW121933   2.068   5.731   6.703
40012SOL    HW221934   2.160   5.694   6.588
40013SOL     OW21935  11.608   9.824  14.806
40013SOL    HW121936  11.567   9.864   0.008
40013SOL    HW221937  11.541   9.766  14.770
40014SOL     OW21938  13.907   3.847   2.827
40014SOL    HW121939  13.947   3.910   2.887
40014SOL    HW221940  13.840   3.896   2.780
40015SOL     OW21941  10.987   6.165   3.402
40015SOL    HW121942  10.929   6.157   3.478
40015SOL    HW221943  10.939   6.122   3.331
40016SOL     OW21944  12.764   8.001   4.284
40016SOL    HW121945  12.688   8.055   4.263
40016SOL    HW221946  12.809   7.988   4.201
40017SOL     OW21947   4.619   2.005   2.306
40017SOL    HW121948   4.619   2.023   2.400
40017SOL    HW221949   4.580   2.082   2.266
40018SOL     OW21950  12.206  12.905   2.460
40018SOL    HW121951  12.129  12.865   2.420
40018SOL    HW221952  12.270  12.835   2.464
40019SOL     OW21953  13.706  11.735   1.173
40019SOL    HW121954  13.672  11.781   1.251
40019SOL    HW221955  13.777  11.790   1.142
40020SOL     OW21956  14.685  10.574   2.404
40020SOL    HW121957  14.620  10.514   2.441
40020SOL    HW221958  14.653  10.592   2.316
40021SOL     OW21959   2.243   6.813   3.137
40021SOL    HW121960   2.316   6.816   3.075
40021SOL    HW221961   2.277   6.856   3.216
40022SOL     OW21962   8.013   0.804  12.558
40022SOL    HW121963   8.003   0.709  12.558
40022SOL    HW221964   7.928   0.837  12.529
40023SOL     OW21965   4.724   1.679   6.152
40023SOL    HW121966   4.681   1.594   6.147
40023SOL    HW221967   4.813   1.660   6.182
40024SOL     OW21968  10.775   6.721   6.515
40024SOL    HW121969  10.799   6.780   6.586
40024SOL    HW221970  10.710   6.770   6.465
40025SOL     OW21971   2.589   5.542   4.380
40025SOL    HW121972   2.530   5.514   4.450
40025SOL    HW221973   2.539   5.606   4.330
40026SOL     OW21974   3.711  11.300   6.713
40026SOL    HW121975   3.630  11.344   6.739
40026SOL    HW221976   3.779  11.342   6.764
40027SOL     OW21977   9.532  10.409  11.276
40027SOL    HW121978   9.622  10.410  11.309
40027SOL    HW221979   9.478  10.428  11.353
40028SOL     OW21980   1.417  14.316   6.751
40028SOL    HW121981   1.486  14.382   6.754
40028SOL    HW221982   1.437  14.262   6.675
40029SOL     OW21983  11.889  14.102   4.337
40029SOL    HW121984  11.981  14.081   4.323
40029SOL    HW221985  11.842  14.048   4.273
40030SOL     OW21986  12.400  12.080   7.528
40030SOL    HW121987  12.349  12.000   7.525
40030SOL    HW221988  12.361  12.136   7.461
40031SOL     OW21989   9.440  14.247   7.434
40031SOL    HW121990   9.453  14.329   7.481
40031SOL    HW221991   9.526  14.204   7.435
40032SOL     OW21992   7.461   6.280  10.995
40032SOL    HW121993   7.415   6.291  10.912
40032SOL    HW221994   7.504   6.364  11.010
40033SOL     OW21995   7.457   6.145   9.218
40033SOL    HW121996   7.483   6.083   9.286
40033SOL    HW221997   7.493   6.229   9.248
40034SOL     OW21998   1.083   4.418  10.654
40034SOL    HW121999   1.038   4.340  10.685
40034SOL    HW222000   1.166   4.386  10.619
40035SOL     OW22001   8.299   9.461  10.453
40035SOL    HW122002   8.381   9.415  10.471
40035SOL    HW222003   8.323   9.530  10.393
40036SOL     OW22004   1.791   5.717   0.437
40036SOL    HW122005   1.840   5.726   0.519
40036SOL    HW222006   1.744   5.800   0.428
40037SOL     OW22007   9.245   2.893   5.869
40037SOL    HW122008   9.317   2.952   5.847
40037SOL    HW222009   9.257   2.875   5.962
40038SOL     OW22010  10.403  10.301   7.926
40038SOL    HW122011  10.375  10.379   7.877
40038SOL    HW222012  10.450  10.336   8.001
40039SOL     OW22013   2.057   4.700   6.698
40039SOL    HW122014   2.031   4.608   6.691
40039SOL    HW222015   1.978   4.746   6.726
40040SOL     OW22016   0.049   2.589  12.558
40040SOL    HW122017  14.829   2.601  12.555
40040SOL    HW222018   0.078   2.643  12.632
40041SOL     OW22019  12.051   5.522   9.924
40041SOL    HW122020  12.032   5.565   9.840
40041SOL    HW222021  11.971   5.473   9.944
40042SOL     OW22022   5.320  11.481   7.148
40042SOL    HW122023   5.292  11.397   7.184
40042SOL    HW222024   5.392  11.459   7.089
40043SOL     OW22025   2.233  10.936   2.718
40043SOL    HW122026   2.149  10.973   2.687
40043SOL    HW222027   2.275  11.009   2.764
40044SOL     OW22028  11.962  10.231   9.646
40044SOL    HW122029  11.968  10.226   9.551
40044SOL    HW222030  11.998  10.148   9.677
40045SOL     OW22031  14.428   6.533   5.678
40045SOL    HW122032  14.402   6.625   5.672
40045SOL    HW222033  14.486   6.530   5.754
40046SOL     OW22034   4.267   5.328   7.919
40046SOL    HW122035   4.181   5.330   7.961
40046SOL    HW222036   4.302   5.416   7.932
40047SOL     OW22037   2.916   4.524   8.503
40047SOL    HW122038   2.854   4.451   8.493
40047SOL    HW222039   2.941   4.547   8.414
40048SOL     OW22040  11.148  10.753   3.713
40048SOL    HW122041  11.153  10.722   3.804
40048SOL    HW222042  11.233  10.792   3.697
40049SOL     OW22043   7.737   6.943   8.553
40049SOL    HW122044   7.748   6.849   8.538
40049SOL    HW222045   7.690   6.949   8.636
40050SOL     OW22046   3.243   5.831  13.026
40050SOL    HW122047   3.159   5.862  13.059
40050SOL    HW222048   3.302   5.906  13.036
40051SOL     OW22049   8.277  10.030  12.036
40051SOL    HW122050   8.315  10.008  11.951
40051SOL    HW222051   8.333  10.100  12.070
40052SOL     OW22052  12.269   2.084   8.608
40052SOL    HW122053  12.343   2.024   8.618
40052SOL    HW222054  12.194   2.034   8.638
40053SOL     OW22055  12.058   3.102   3.619
40053SOL    HW122056  11.965   3.105   3.596
40053SOL    HW222057  12.081   3.009   3.610
40054SOL     OW22058   4.888   8.441  13.049
40054SOL    HW122059   4.970   8.443  13.001
40054SOL    HW222060   4.864   8.534  13.059
40055SOL     OW22061   4.015   5.417  14.555
40055SOL    HW122062   4.036   5.375  14.472
40055SOL    HW222063   4.045   5.507  14.545
40056SOL     OW22064   1.053   7.709  12.494
40056SOL    HW122065   1.129   7.668  12.452
40056SOL    HW222066   0.986   7.641  12.495
40057SOL     OW22067   7.775  13.870   5.618
40057SOL    HW122068   7.767  13.961   5.591
40057SOL    HW222069   7.729  13.821   5.550
40058SOL     OW22070   5.967  12.280   4.794
40058SOL    HW122071   6.063  12.282   4.805
40058SOL    HW222072   5.936  12.228   4.867
40059SOL     OW22073   2.049  13.299  13.708
40059SOL    HW122074   1.994  13.375  13.725
40059SOL    HW222075   2.139  13.333  13.712
40060SOL     OW22076  12.479   0.287   4.661
40060SOL    HW122077  12.442   0.250   4.741
40060SOL    HW222078  12.410   0.277   4.595
40061SOL     OW22079  13.390  13.459   2.158
40061SOL    HW122080  13.400  13.552   2.137
40061SOL    HW222081  13.432  13.448   2.243
40062SOL     OW22082  12.415   6.578   6.882
40062SOL    HW122083  12.490   6.637   6.877
40062SOL    HW222084  12.342   6.630   6.847
40063SOL     OW22085  11.013  13.079   9.027
40063SOL    HW122086  11.092  13.051   8.981
40063SOL    HW222087  10.998  13.169   8.997
40064SOL     OW22088   7.898   6.608   7.441
40064SOL    HW122089   7.844   6.584   7.366
40064SOL    HW222090   7.842   6.591   7.517
40065SOL     OW22091   1.037  13.411   7.963
40065SOL    HW122092   1.108  13.349   7.947
40065SOL    HW222093   0.997  13.381   8.044
40066SOL     OW22094   3.660   8.844   2.973
40066SOL    HW122095   3.572   8.809   2.980
40066SOL    HW222096   3.674   8.855   2.878
40067SOL     OW22097   6.952   6.799   6.468
40067SOL    HW122098   7.047   6.809   6.471
40067SOL    HW222099   6.930   6.745   6.544
40068SOL     OW22100   9.534   9.726  13.347
40068SOL    HW122101   9.507   9.737  13.256
40068SOL    HW222102   9.605   9.789  13.359
40069SOL     OW22103   2.655   0.514  11.764
40069SOL    HW122104   2.682   0.499  11.673
40069SOL    HW222105   2.575   0.565  11.757
40070SOL     OW22106   4.624  12.610   2.370
40070SOL    HW122107   4.594  12.631   2.281
40070SOL    HW222108   4.571  12.667   2.426
40071SOL     OW22109  10.084   6.869   3.773
40071SOL    HW122110  10.089   6.778   3.804
40071SOL    HW222111   9.991   6.890   3.775
40072SOL     OW22112   8.245   4.492  11.681
40072SOL    HW122113   8.217   4.410  11.723
40072SOL    HW222114   8.256   4.469  11.589
40073SOL     OW22115   2.305  10.262  10.611
40073SOL    HW122116   2.310  10.334  10.548
40073SOL    HW222117   2.388  10.216  10.601
40074SOL     OW22118   3.847   5.613   6.178
40074SOL    HW122119   3.902   5.536   6.162
40074SOL    HW222120   3.769   5.599   6.125
40075SOL     OW22121   7.211   5.275   0.554
40075SOL    HW122122   7.292   5.243   0.594
40075SOL    HW222123   7.172   5.198   0.513
40076SOL     OW22124  10.282   3.926   6.525
40076SOL    HW122125  10.194   3.925   6.487
40076SOL    HW222126  10.289   4.012   6.566
40077SOL     OW22127  10.421  13.495   1.139
40077SOL    HW122128  10.409  13.423   1.077
40077SOL    HW222129  10.489  13.550   1.099
40078SOL     OW22130   3.675   7.915   1.033
40078SOL    HW122131   3.724   7.833   1.034
40078SOL    HW222132   3.684   7.949   1.122
40079SOL     OW22133   4.156   5.685  11.864
40079SOL    HW122134   4.194   5.729  11.940
40079SOL    HW222135   4.229   5.675  11.804
40080SOL     OW22136  13.880  12.709   6.211
40080SOL    HW122137  13.887  12.628   6.262
40080SOL    HW222138  13.971  12.738   6.200
40081SOL     OW22139   1.420   1.876  13.122
40081SOL    HW122140   1.493   1.933  13.147
40081SOL    HW222141   1.358   1.934  13.079
40082SOL     OW22142   1.176   3.644  10.435
40082SOL    HW122143   1.084   3.669  10.445
40082SOL    HW222144   1.177   3.549  10.450
40083SOL     OW22145  11.160   9.025   5.380
40083SOL    HW122146  11.135   9.114   5.353
40083SOL    HW222147  11.231   9.002   5.320
40084SOL     OW22148   2.149  10.981   1.911
40084SOL    HW122149   2.096  11.028   1.975
40084SOL    HW222150   2.224  11.038   1.894
40085SOL     OW22151  13.953  11.430   0.269
40085SOL    HW122152  14.015  11.404   0.337
40085SOL    HW222153  13.909  11.507   0.306
40086SOL     OW22154   3.197   1.855  11.951
40086SOL    HW122155   3.138   1.910  11.900
40086SOL    HW222156   3.166   1.766  11.937
40087SOL     OW22157   3.199   9.785   0.572
40087SOL    HW122158   3.140   9.783   0.647
40087SOL    HW222159   3.199   9.877   0.544
40088SOL     OW22160  14.787  12.001   0.199
40088SOL    HW122161  14.834  12.034   0.122
40088SOL    HW222162  14.695  12.004   0.173
40089SOL     OW22163   2.906  10.721  11.468
40089SOL    HW122164   2.814  10.720  11.492
40089SOL    HW222165   2.953  10.704  11.550
40090SOL     OW22166   2.520  11.637   0.009
40090SOL    HW122167   2.512  11.683   0.093
40090SOL    HW222168   2.545  11.548   0.032
40091SOL     OW22169   5.217   0.014   8.674
40091SOL    HW122170   5.141   0.070   8.656
40091SOL    HW222171   5.251   0.046   8.757
40092SOL     OW22172  12.021   6.581  14.299
40092SOL    HW122173  12.054   6.645  14.362
40092SOL    HW222174  11.928   6.571  14.321
40093SOL     OW22175  13.068   4.869  11.265
40093SOL    HW122176  13.127   4.804  11.227
40093SOL    HW222177  12.991   4.818  11.292
40094SOL     OW22178   2.535   2.421   2.735
40094SOL    HW122179   2.561   2.506   2.701
40094SOL    HW222180   2.447   2.407   2.698
40095SOL     OW22181   0.818   3.610  10.175
40095SOL    HW122182   0.815   3.522  10.137
40095SOL    HW222183   0.857   3.665  10.107
40096SOL     OW22184   2.888   0.757   5.833
40096SOL    HW122185   2.855   0.847   5.836
40096SOL    HW222186   2.812   0.706   5.804
40097SOL     OW22187   9.685  14.254   9.294
40097SOL    HW122188   9.670  14.223   9.383
40097SOL    HW222189   9.607  14.305   9.273
40098SOL     OW22190   5.958   4.722   5.805
40098SOL    HW122191   5.900   4.712   5.730
40098SOL    HW222192   5.899   4.725   5.880
40099SOL     OW22193   3.021  10.573  11.229
40099SOL    HW122194   2.972  10.648  11.262
40099SOL    HW222195   3.083  10.552  11.298
40100SOL     OW22196  13.682   4.876   8.060
40100SOL    HW122197  13.630   4.900   8.136
40100SOL    HW222198  13.617   4.853   7.993
40101SOL     OW22199   7.853  14.315   8.598
40101SOL    HW122200   7.866  14.370   8.521
40101SOL    HW222201   7.761  14.327   8.621
40102SOL     OW22202  11.723   0.140   0.151
40102SOL    HW122203  11.795   0.195   0.183
40102SOL    HW222204  11.724   0.151   0.056
40103SOL     OW22205   6.953   8.489  14.602
40103SOL    HW122206   7.031   8.484  14.658
40103SOL    HW222207   6.890   8.429  14.642
40104SOL     OW22208   0.640  14.526   4.260
40104SOL    HW122209   0.652  14.621   4.264
40104SOL    HW222210   0.551  14.511   4.290
40105SOL     OW22211   3.619  13.243   7.215
40105SOL    HW122212   3.651  13.212   7.130
40105SOL    HW222213   3.699  13.258   7.266
40106SOL     OW22214   7.795   3.701   0.597
40106SOL    HW122215   7.753   3.775   0.642
40106SOL    HW222216   7.839   3.653   0.667
40107SOL     OW22217   1.480  12.083   7.245
40107SOL    HW122218   1.444  12.100   7.332
40107SOL    HW222219   1.536  12.158   7.226
40108SOL     OW22220   6.691   4.031  14.824
40108SOL    HW122221   6.682   3.941  14.855
40108SOL    HW222222   6.775   4.034  14.779
40109SOL     OW22223   0.640   1.704   6.793
40109SOL    HW122224   0.682   1.774   6.743
40109SOL    HW222225   0.712   1.663   6.841
40110SOL     OW22226  12.299  12.146  14.394
40110SOL    HW122227  12.215  12.191  14.403
40110SOL    HW222228  12.363  12.205  14.434
40111SOL     OW22229   1.364   4.582  10.388
40111SOL    HW122230   1.451   4.618  10.405
40111SOL    HW222231   1.311   4.657  10.361
40112SOL     OW22232   9.218   3.358  12.801
40112SOL    HW122233   9.277   3.430  12.823
40112SOL    HW222234   9.273   3.280  12.804
40113SOL     OW22235   3.268  14.566   3.466
40113SOL    HW122236   3.342  14.508   3.451
40113SOL    HW222237   3.308  14.650   3.490
40114SOL     OW22238   4.104   1.328   2.411
40114SOL    HW122239   4.063   1.265   2.470
40114SOL    HW222240   4.069   1.307   2.325
40115SOL     OW22241   1.018   6.253   3.623
40115SOL    HW122242   1.014   6.269   3.717
40115SOL    HW222243   0.951   6.188   3.607
40116SOL     OW22244   6.634  12.205  11.323
40116SOL    HW122245   6.548  12.229  11.290
40116SOL    HW222246   6.633  12.109  11.323
40117SOL     OW22247   2.235   8.620   3.606
40117SOL    HW122248   2.267   8.704   3.573
40117SOL    HW222249   2.302   8.592   3.668
40118SOL     OW22250  10.070   5.123   3.198
40118SOL    HW122251   9.982   5.096   3.226
40118SOL    HW222252  10.116   5.041   3.180
40119SOL     OW22253   8.204   1.744   6.915
40119SOL    HW122254   8.151   1.737   6.836
40119SOL    HW222255   8.293   1.724   6.886
40120SOL     OW22256   4.093   6.876   2.491
40120SOL    HW122257   4.134   6.892   2.577
40120SOL    HW222258   4.082   6.964   2.454
40121SOL     OW22259   5.734   9.755   0.759
40121SOL    HW122260   5.686   9.710   0.689
40121SOL    HW222261   5.672   9.818   0.794
40122SOL     OW22262   1.480   4.719  11.862
40122SOL    HW122263   1.394   4.677  11.864
40122SOL    HW222264   1.509   4.711  11.771
40123SOL     OW22265   3.512   3.588  12.971
40123SOL    HW122266   3.483   3.574  13.062
40123SOL    HW222267   3.595   3.635  12.980
40124SOL     OW22268   3.781  10.304  10.593
40124SOL    HW122269   3.846  10.281  10.526
40124SOL    HW222270   3.710  10.240  10.580
40125SOL     OW22271   4.943   9.627  10.433
40125SOL    HW122272   4.862   9.659  10.394
40125SOL    HW222273   5.011   9.652  10.370
40126SOL     OW22274   7.764  10.154  12.396
40126SOL    HW122275   7.725  10.121  12.477
40126SOL    HW222276   7.696  10.210  12.359
40127SOL     OW22277   4.137   4.252   3.640
40127SOL    HW122278   4.143   4.304   3.720
40127SOL    HW222279   4.179   4.306   3.573
40128SOL     OW22280   5.051   3.263   6.760
40128SOL    HW122281   5.145   3.281   6.763
40128SOL    HW222282   5.040   3.186   6.815
40129SOL     OW22283   7.417   3.084   4.017
40129SOL    HW122284   7.494   3.031   3.996
40129SOL    HW222285   7.431   3.112   4.107
40130SOL     OW22286   0.088   0.210   3.587
40130SOL    HW122287   0.003   0.241   3.555
40130SOL    HW222288   0.069   0.124   3.625
40131SOL     OW22289   6.854  14.531  10.592
40131SOL    HW122290   6.844  14.444  10.632
40131SOL    HW222291   6.886  14.586  10.663
40132SOL     OW22292   7.591   2.501   2.362
40132SOL    HW122293   7.673   2.538   2.331
40132SOL    HW222294   7.594   2.510   2.457
40133SOL     OW22295   9.591   9.586  14.721
40133SOL    HW122296   9.592   9.530  14.643
40133SOL    HW222297   9.604   9.674  14.688
40134SOL     OW22298   7.506   9.661  14.248
40134SOL    HW122299   7.437   9.724  14.226
40134SOL    HW222300   7.463   9.599  14.307
40135SOL     OW22301  12.400   5.785  10.679
40135SOL    HW122302  12.391   5.806  10.772
40135SOL    HW222303  12.478   5.833  10.651
40136SOL     OW22304  11.766   9.444  11.848
40136SOL    HW122305  11.814   9.379  11.798
40136SOL    HW222306  11.698   9.475  11.788
40137SOL     OW22307   8.415   2.937  12.619
40137SOL    HW122308   8.323   2.917  12.636
40137SOL    HW222309   8.444   2.869  12.559
40138SOL     OW22310   7.617   5.917   9.386
40138SOL    HW122311   7.632   5.930   9.292
40138SOL    HW222312   7.527   5.885   9.391
40139SOL     OW22313   5.890   6.319  14.737
40139SOL    HW122314   5.926   6.355  14.656
40139SOL    HW222315   5.864   6.230  14.715
40140SOL     OW22316   4.215   6.590   2.539
40140SOL    HW122317   4.203   6.684   2.524
40140SOL    HW222318   4.163   6.571   2.617
40141SOL     OW22319   8.982  10.030  13.479
40141SOL    HW122320   8.963  10.110  13.528
40141SOL    HW222321   9.030   9.975  13.540
40142SOL     OW22322   3.152   4.594   5.384
40142SOL    HW122323   3.062   4.601   5.352
40142SOL    HW222324   3.168   4.676   5.430
40143SOL     OW22325   4.182  13.133   8.653
40143SOL    HW122326   4.210  13.059   8.600
40143SOL    HW222327   4.220  13.117   8.739
40144SOL     OW22328  10.519   0.103   0.861
40144SOL    HW122329  10.549   0.108   0.952
40144SOL    HW222330  10.541   0.188   0.824
40145SOL     OW22331   7.524   4.449   5.733
40145SOL    HW122332   7.455   4.400   5.688
40145SOL    HW222333   7.604   4.400   5.714
40146SOL     OW22334   6.417  10.298   3.442
40146SOL    HW122335   6.356  10.290   3.516
40146SOL    HW222336   6.367  10.269   3.366
40147SOL     OW22337  10.941   5.694  10.598
40147SOL    HW122338  10.919   5.603  10.580
40147SOL    HW222339  11.030   5.692  10.633
40148SOL     OW22340  10.721  12.539   6.898
40148SOL    HW122341  10.700  12.552   6.990
40148SOL    HW222342  10.760  12.622   6.870
40149SOL     OW22343   1.107   6.572   9.547
40149SOL    HW122344   1.139   6.648   9.596
40149SOL    HW222345   1.120   6.595   9.455
40150SOL     OW22346  12.128  13.996   4.206
40150SOL    HW122347  12.210  14.043   4.191
40150SOL    HW222348  12.093  13.979   4.119
40151SOL     OW22349   7.022   7.758  14.868
40151SOL    HW122350   7.028   7.848  14.837
40151SOL    HW222351   7.013   7.706  14.788
40152SOL     OW22352  14.395   1.869  14.808
40152SOL    HW122353  14.423   1.886  14.718
40152SOL    HW222354  14.300   1.883  14.807
40153SOL     OW22355   8.484  11.777  13.220
40153SOL    HW122356   8.480  11.872  13.234
40153SOL    HW222357   8.421  11.761  13.150
40154SOL     OW22358  12.599   4.388   6.846
40154SOL    HW122359  12.632   4.363   6.759
40154SOL    HW222360  12.630   4.477   6.858
40155SOL     OW22361   9.100   9.971   9.399
40155SOL    HW122362   9.100  10.058   9.359
40155SOL    HW222363   9.048   9.981   9.479
40156SOL     OW22364  10.108  12.554   0.026
40156SOL    HW122365  10.092  12.604  14.821
40156SOL    HW222366  10.066  12.606   0.095
40157SOL     OW22367   7.135  11.208  12.115
40157SOL    HW122368   7.226  11.235  12.107
40157SOL    HW222369   7.134  11.117  12.085
40158SOL     OW22370   7.268  12.266   7.837
40158SOL    HW122371   7.322  12.313   7.773
40158SOL    HW222372   7.178  12.283   7.809
40159SOL     OW22373   8.902  13.987   3.917
40159SOL    HW122374   8.972  14.007   3.978
40159SOL    HW222375   8.945  13.939   3.846
40160SOL     OW22376   4.807   3.697   3.360
40160SOL    HW122377   4.874   3.696   3.292
40160SOL    HW222378   4.735   3.748   3.323
40161SOL     OW22379   6.542   5.045   5.475
40161SOL    HW122380   6.452   5.027   5.448
40161SOL    HW222381   6.566   5.126   5.429
40162SOL     OW22382   5.162   0.041   2.430
40162SOL    HW122383   5.207   0.123   2.412
40162SOL    HW222384   5.168   0.031   2.525
40163SOL     OW22385   3.696  11.300   8.680
40163SOL    HW122386   3.651  11.216   8.677
40163SOL    HW222387   3.786  11.281   8.652
40164SOL     OW22388  14.093   7.307   7.389
40164SOL    HW122389  14.008   7.343   7.417
40164SOL    HW222390  14.157   7.350   7.445
40165SOL     OW22391   5.528   1.699   8.866
40165SOL    HW122392   5.535   1.610   8.900
40165SOL    HW222393   5.599   1.706   8.803
40166SOL     OW22394   9.873   8.025  11.393
40166SOL    HW122395   9.827   8.002  11.474
40166SOL    HW222396   9.937   7.955  11.381
40167SOL     OW22397   5.317  12.706   2.634
40167SOL    HW122398   5.313  12.774   2.566
40167SOL    HW222399   5.242  12.726   2.691
40168SOL     OW22400   8.932  10.246  10.267
40168SOL    HW122401   8.965  10.182  10.204
40168SOL    HW222402   8.839  10.224  10.277
40169SOL     OW22403  10.715   0.842   2.193
40169SOL    HW122404  10.806   0.872   2.198
40169SOL    HW222405  10.666   0.917   2.159
40170SOL     OW22406   1.259  14.582   8.999
40170SOL    HW122407   1.229  14.496   9.026
40170SOL    HW222408   1.336  14.599   9.053
40171SOL     OW22409   3.210  14.237   1.977
40171SOL    HW122410   3.166  14.288   1.909
40171SOL    HW222411   3.293  14.211   1.938
40172SOL     OW22412   7.774  12.204  13.251
40172SOL    HW122413   7.811  12.212  13.163
40172SOL    HW222414   7.749  12.293  13.275
40173SOL     OW22415  13.249  10.500   9.392
40173SOL    HW122416  13.281  10.563   9.456
40173SOL    HW222417  13.318  10.434   9.386
40174SOL     OW22418  10.517   0.162   7.154
40174SOL    HW122419  10.580   0.153   7.083
40174SOL    HW222420  10.561   0.215   7.220
40175SOL     OW22421   3.845   0.227   6.290
40175SOL    HW122422   3.877   0.281   6.217
40175SOL    HW222423   3.752   0.249   6.297
40176SOL     OW22424   0.169   2.868   6.537
40176SOL    HW122425   0.175   2.856   6.443
40176SOL    HW222426   0.206   2.788   6.574
40177SOL     OW22427   0.684   6.730   6.195
40177SOL    HW122428   0.690   6.650   6.144
40177SOL    HW222429   0.703   6.800   6.133
40178SOL     OW22430   3.617   2.654   2.133
40178SOL    HW122431   3.646   2.709   2.060
40178SOL    HW222432   3.668   2.573   2.124
40179SOL     OW22433   0.183   6.582   3.722
40179SOL    HW122434   0.165   6.531   3.802
40179SOL    HW222435   0.130   6.661   3.733
40180SOL     OW22436   3.510   2.496   1.854
40180SOL    HW122437   3.476   2.446   1.780
40180SOL    HW222438   3.505   2.436   1.928
40181SOL     OW22439   1.117  14.417  12.943
40181SOL    HW122440   1.161  14.346  12.896
40181SOL    HW222441   1.028  14.385  12.957
40182SOL     OW22442  13.637   0.517   7.222
40182SOL    HW122443  13.604   0.553   7.139
40182SOL    HW222444  13.581   0.556   7.289
40183SOL     OW22445   4.754  13.970  12.357
40183SOL    HW122446   4.825  13.917  12.393
40183SOL    HW222447   4.753  13.950  12.264
40184SOL     OW22448   6.829   2.590  13.757
40184SOL    HW122449   6.825   2.683  13.732
40184SOL    HW222450   6.894   2.587  13.827
40185SOL     OW22451   7.733   5.936  14.278
40185SOL    HW122452   7.659   5.889  14.238
40185SOL    HW222453   7.808   5.878  14.264
40186SOL     OW22454  14.023   6.316   3.432
40186SOL    HW122455  14.014   6.278   3.344
40186SOL    HW222456  14.093   6.264   3.473
40187SOL     OW22457  13.326   9.508  14.364
40187SOL    HW122458  13.294   9.419  14.380
40187SOL    HW222459  13.400   9.517  14.424
40188SOL     OW22460   2.049   1.362  10.729
40188SOL    HW122461   2.074   1.445  10.688
40188SOL    HW222462   2.004   1.314  10.660
40189SOL     OW22463   6.454  12.177  12.491
40189SOL    HW122464   6.367  12.152  12.461
40189SOL    HW222465   6.455  12.154  12.584
40190SOL     OW22466   3.501   1.872   1.956
40190SOL    HW122467   3.425   1.835   2.000
40190SOL    HW222468   3.551   1.796   1.926
40191SOL     OW22469   4.601   6.785  11.835
40191SOL    HW122470   4.613   6.880  11.844
40191SOL    HW222471   4.564   6.758  11.919
40192SOL     OW22472   6.260   9.241  12.721
40192SOL    HW122473   6.343   9.238  12.672
40192SOL    HW222474   6.280   9.294  12.797
40193SOL     OW22475   1.585   4.548  10.127
40193SOL    HW122476   1.530   4.616  10.089
40193SOL    HW222477   1.594   4.574  10.219
40194SOL     OW22478   3.519  12.894   2.424
40194SOL    HW122479   3.614  12.892   2.409
40194SOL    HW222480   3.509  12.939   2.508
40195SOL     OW22481   5.906   8.446  13.597
40195SOL    HW122482   5.881   8.363  13.556
40195SOL    HW222483   5.822   8.490  13.612
40196SOL     OW22484  14.294  10.165   9.619
40196SOL    HW122485  14.273  10.074   9.596
40196SOL    HW222486  14.368  10.187   9.563
40197SOL     OW22487   4.746   4.992  12.336
40197SOL    HW122488   4.782   5.061  12.392
40197SOL    HW222489   4.745   5.030  12.248
40198SOL     OW22490   1.182  10.643   3.201
40198SOL    HW122491   1.271  10.666   3.227
40198SOL    HW222492   1.189  10.612   3.111
40199SOL     OW22493   3.175   7.683   0.430
40199SOL    HW122494   3.188   7.770   0.394
40199SOL    HW222495   3.158   7.697   0.523
40200SOL     OW22496  13.915   7.005   7.655
40200SOL    HW122497  13.915   6.914   7.622
40200SOL    HW222498  14.003   7.016   7.693
40201SOL     OW22499   7.923  13.765   4.973
40201SOL    HW122500   7.965  13.835   5.023
40201SOL    HW222501   7.953  13.779   4.883
40202SOL     OW22502  13.467   0.386   0.929
40202SOL    HW122503  13.440   0.418   0.843
40202SOL    HW222504  13.401   0.320   0.952
40203SOL     OW22505  14.837  13.101   7.545
40203SOL    HW122506  14.868  13.017   7.578
40203SOL    HW222507  14.867  13.165   7.610
40204SOL     OW22508   6.450   7.302   0.491
40204SOL    HW122509   6.388   7.356   0.443
40204SOL    HW222510   6.465   7.226   0.435
40205SOL     OW22511   2.861   3.450  13.579
40205SOL    HW122512   2.771   3.479  13.566
40205SOL    HW222513   2.884   3.483  13.666
40206SOL     OW22514   7.609  13.833   7.180
40206SOL    HW122515   7.651  13.828   7.266
40206SOL    HW222516   7.519  13.804   7.197
40207SOL     OW22517   1.489   8.352   3.451
40207SOL    HW122518   1.552   8.407   3.498
40207SOL    HW222519   1.463   8.285   3.515
40208SOL     OW22520   8.987   5.778  12.816
40208SOL    HW122521   9.065   5.745  12.860
40208SOL    HW222522   9.002   5.761  12.723
40209SOL     OW22523   8.665   5.955   7.558
40209SOL    HW122524   8.748   5.908   7.566
40209SOL    HW222525   8.607   5.913   7.622
40210SOL     OW22526   8.752  13.566   6.361
40210SOL    HW122527   8.746  13.564   6.266
40210SOL    HW222528   8.661  13.564   6.391
40211SOL     OW22529   2.846   3.505   2.416
40211SOL    HW122530   2.875   3.437   2.477
40211SOL    HW222531   2.917   3.511   2.352
40212SOL     OW22532  10.854  14.080   1.529
40212SOL    HW122533  10.867  14.016   1.459
40212SOL    HW222534  10.759  14.092   1.534
40213SOL     OW22535  12.136  14.711  12.842
40213SOL    HW122536  12.138  14.676  12.753
40213SOL    HW222537  12.228  14.716  12.868
40214SOL     OW22538  13.039  14.269   5.087
40214SOL    HW122539  13.089  14.238   5.162
40214SOL    HW222540  13.100  14.264   5.014
40215SOL     OW22541   9.167  12.485  14.541
40215SOL    HW122542   9.106  12.555  14.562
40215SOL    HW222543   9.252  12.518  14.570
40216SOL     OW22544   1.677  14.632   8.982
40216SOL    HW122545   1.618  14.617   8.907
40216SOL    HW222546   1.620  14.665   9.051
40217SOL     OW22547   5.896  10.999  13.575
40217SOL    HW122548   5.894  11.093  13.595
40217SOL    HW222549   5.947  10.960  13.645
40218SOL     OW22550   4.242   6.113   4.109
40218SOL    HW122551   4.159   6.128   4.064
40218SOL    HW222552   4.309   6.141   4.046
40219SOL     OW22553   7.223   7.300   2.302
40219SOL    HW122554   7.213   7.304   2.397
40219SOL    HW222555   7.250   7.388   2.276
40220SOL     OW22556  10.519  11.943  11.894
40220SOL    HW122557  10.528  11.979  11.982
40220SOL    HW222558  10.501  11.850  11.908
40221SOL     OW22559   5.708  13.430  12.069
40221SOL    HW122560   5.667  13.516  12.082
40221SOL    HW222561   5.791  13.449  12.027
40222SOL     OW22562   0.817   7.754   2.665
40222SOL    HW122563   0.832   7.794   2.580
40222SOL    HW222564   0.878   7.680   2.669
40223SOL     OW22565  10.221   0.218   5.472
40223SOL    HW122566  10.275   0.296   5.460
40223SOL    HW222567  10.282   0.151   5.502
40224SOL     OW22568  13.119  14.377   1.561
40224SOL    HW122569  13.121  14.467   1.526
40224SOL    HW222570  13.028  14.363   1.584
40225SOL     OW22571  12.299   6.554   7.626
40225SOL    HW122572  12.262   6.484   7.574
40225SOL    HW222573  12.225   6.589   7.675
40226SOL     OW22574  14.291  10.184   2.831
40226SOL    HW122575  14.201  10.216   2.834
40226SOL    HW222576  14.334  10.225   2.906
40227SOL     OW22577   8.198   4.840   3.948
40227SOL    HW122578   8.111   4.865   3.917
40227SOL    HW222579   8.256   4.909   3.914
40228SOL     OW22580   9.693  14.266   3.971
40228SOL    HW122581   9.719  14.174   3.976
40228SOL    HW222582   9.603  14.268   4.002
40229SOL     OW22583  11.133   3.931   5.563
40229SOL    HW122584  11.118   3.980   5.482
40229SOL    HW222585  11.045   3.918   5.599
40230SOL     OW22586   7.338  13.097  14.660
40230SOL    HW122587   7.243  13.090  14.652
40230SOL    HW222588   7.354  13.189  14.680
40231SOL     OW22589   3.981   2.003   0.090
40231SOL    HW122590   4.059   2.029   0.140
40231SOL    HW222591   4.007   2.011  14.874
40232SOL     OW22592   5.026  10.606  13.302
40232SOL    HW122593   4.960  10.669  13.274
40232SOL    HW222594   5.077  10.588  13.223
40233SOL     OW22595   9.342   9.285  10.115
40233SOL    HW122596   9.402   9.345  10.072
40233SOL    HW222597   9.303   9.235  10.044
40234SOL     OW22598   8.872  12.765   9.531
40234SOL    HW122599   8.851  12.858   9.527
40234SOL    HW222600   8.788  12.721   9.517
40235SOL     OW22601  10.934   3.928   5.918
40235SOL    HW122602  11.028   3.942   5.931
40235SOL    HW222603  10.928   3.850   5.864
40236SOL     OW22604   4.553  11.440   5.445
40236SOL    HW122605   4.615  11.466   5.514
40236SOL    HW222606   4.607  11.424   5.368
40237SOL     OW22607   1.493  14.138  14.390
40237SOL    HW122608   1.453  14.137  14.477
40237SOL    HW222609   1.436  14.083  14.336
40238SOL     OW22610   3.819  12.315   7.527
40238SOL    HW122611   3.755  12.386   7.519
40238SOL    HW222612   3.813  12.289   7.619
40239SOL     OW22613   6.222   3.967  14.572
40239SOL    HW122614   6.261   3.940  14.655
40239SOL    HW222615   6.209   3.885  14.523
40240SOL     OW22616   9.383   0.452   3.858
40240SOL    HW122617   9.466   0.500   3.860
40240SOL    HW222618   9.320   0.510   3.901
40241SOL     OW22619   6.399   9.028   7.501
40241SOL    HW122620   6.491   9.003   7.510
40241SOL    HW222621   6.399   9.094   7.432
40242SOL     OW22622  12.169   0.206   1.824
40242SOL    HW122623  12.145   0.296   1.847
40242SOL    HW222624  12.093   0.154   1.850
40243SOL     OW22625   4.408  10.562  11.387
40243SOL    HW122626   4.453  10.638  11.349
40243SOL    HW222627   4.457  10.487  11.353
40244SOL     OW22628   5.247   7.654   6.418
40244SOL    HW122629   5.254   7.566   6.381
40244SOL    HW222630   5.315   7.657   6.485
40245SOL     OW22631   4.849  11.217   8.246
40245SOL    HW122632   4.862  11.149   8.311
40245SOL    HW222633   4.853  11.172   8.162
40246SOL     OW22634   2.868   8.710  14.431
40246SOL    HW122635   2.772   8.709  14.435
40246SOL    HW222636   2.893   8.617  14.434
40247SOL     OW22637   7.809   5.318   7.686
40247SOL    HW122638   7.819   5.404   7.645
40247SOL    HW222639   7.881   5.266   7.650
40248SOL     OW22640   1.802  10.284  12.262
40248SOL    HW122641   1.879  10.278  12.206
40248SOL    HW222642   1.773  10.194  12.274
40249SOL     OW22643  10.500   4.551   4.129
40249SOL    HW122644  10.423   4.515   4.086
40249SOL    HW222645  10.466   4.596   4.206
40250SOL     OW22646  13.515  11.891  14.660
40250SOL    HW122647  13.556  11.816  14.616
40250SOL    HW222648  13.550  11.888  14.749
40251SOL     OW22649  11.998   5.358   1.948
40251SOL    HW122650  12.001   5.352   1.852
40251SOL    HW222651  12.035   5.445   1.967
40252SOL     OW22652   6.779  13.393   9.175
40252SOL    HW122653   6.709  13.450   9.206
40252SOL    HW222654   6.766  13.388   9.081
40253SOL     OW22655  13.719  10.871   9.711
40253SOL    HW122656  13.714  10.778   9.730
40253SOL    HW222657  13.676  10.914   9.785
40254SOL     OW22658   3.831   2.535  12.226
40254SOL    HW122659   3.848   2.556  12.134
40254SOL    HW222660   3.882   2.455  12.241
40255SOL     OW22661   7.727   0.128  11.376
40255SOL    HW122662   7.741   0.161  11.287
40255SOL    HW222663   7.800   0.068  11.391
40256SOL     OW22664   5.901   5.182   7.243
40256SOL    HW122665   5.908   5.087   7.240
40256SOL    HW222666   5.968   5.209   7.307
40257SOL     OW22667  12.374   7.086   1.476
40257SOL    HW122668  12.426   7.055   1.403
40257SOL    HW222669  12.363   7.009   1.532
40258SOL     OW22670  12.200   3.061   2.446
40258SOL    HW122671  12.182   2.970   2.422
40258SOL    HW222672  12.284   3.057   2.492
40259SOL     OW22673   8.259   1.405   3.001
40259SOL    HW122674   8.209   1.486   3.003
40259SOL    HW222675   8.298   1.398   3.088
40260SOL     OW22676  11.191   4.628   6.486
40260SOL    HW122677  11.208   4.708   6.436
40260SOL    HW222678  11.274   4.581   6.485
40261SOL     OW22679  13.590   5.877   0.179
40261SOL    HW122680  13.521   5.815   0.201
40261SOL    HW222681  13.560   5.961   0.214
40262SOL     OW22682   2.608   8.420   5.585
40262SOL    HW122683   2.555   8.485   5.537
40262SOL    HW222684   2.624   8.351   5.521
40263SOL     OW22685   6.361  13.752   2.082
40263SOL    HW122686   6.421  13.678   2.093
40263SOL    HW222687   6.377  13.808   2.158
40264SOL     OW22688   4.136  10.362   8.015
40264SOL    HW122689   4.045  10.392   8.011
40264SOL    HW222690   4.139  10.285   7.959
40265SOL     OW22691   9.646   1.051   3.154
40265SOL    HW122692   9.556   1.051   3.187
40265SOL    HW222693   9.663   1.143   3.131
40266SOL     OW22694  11.679  14.203   4.945
40266SOL    HW122695  11.671  14.151   5.025
40266SOL    HW222696  11.590  14.208   4.911
40267SOL     OW22697  12.906   5.388  12.989
40267SOL    HW122698  12.911   5.476  13.026
40267SOL    HW222699  12.994   5.352  13.002
40268SOL     OW22700  12.006  14.098  13.310
40268SOL    HW122701  11.995  14.178  13.362
40268SOL    HW222702  12.036  14.033  13.374
40269SOL     OW22703   2.457  10.386   2.179
40269SOL    HW122704   2.504  10.346   2.251
40269SOL    HW222705   2.396  10.447   2.221
40270SOL     OW22706   9.756   0.486   7.576
40270SOL    HW122707   9.806   0.459   7.499
40270SOL    HW222708   9.812   0.465   7.650
40271SOL     OW22709   0.125  14.435  14.233
40271SOL    HW122710   0.192  14.497  14.262
40271SOL    HW222711   0.170  14.350  14.233
40272SOL     OW22712   3.275   1.558   2.905
40272SOL    HW122713   3.303   1.534   2.993
40272SOL    HW222714   3.328   1.635   2.884
40273SOL     OW22715   5.014  10.128   6.260
40273SOL    HW122716   5.039  10.160   6.346
40273SOL    HW222717   4.918  10.127   6.262
40274SOL     OW22718   7.814   7.410   9.523
40274SOL    HW122719   7.757   7.473   9.566
40274SOL    HW222720   7.891   7.460   9.497
40275SOL     OW22721  11.328   8.862   4.195
40275SOL    HW122722  11.355   8.947   4.162
40275SOL    HW222723  11.400   8.803   4.174
40276SOL     OW22724   7.278  14.599   4.257
40276SOL    HW122725   7.197  14.551   4.241
40276SOL    HW222726   7.348  14.536   4.242
40277SOL     OW22727   7.185  11.961   5.343
40277SOL    HW122728   7.207  12.053   5.361
40277SOL    HW222729   7.176  11.957   5.248
40278SOL     OW22730  13.540   6.359  14.793
40278SOL    HW122731  13.630   6.387  14.804
40278SOL    HW222732  13.545   6.265  14.776
40279SOL     OW22733  11.749  14.830   5.837
40279SOL    HW122734  11.770  14.737   5.851
40279SOL    HW222735  11.833  14.871   5.818
40280SOL     OW22736   8.284  11.800  12.999
40280SOL    HW122737   8.280  11.735  12.928
40280SOL    HW222738   8.254  11.881  12.957
40281SOL     OW22739   9.711  10.014  12.145
40281SOL    HW122740   9.801  10.012  12.178
40281SOL    HW222741   9.662   9.959  12.207
40282SOL     OW22742  13.375   9.287   9.166
40282SOL    HW122743  13.342   9.376   9.165
40282SOL    HW222744  13.297   9.232   9.156
40283SOL     OW22745   4.248  10.964   5.694
40283SOL    HW122746   4.229  11.050   5.731
40283SOL    HW222747   4.173  10.910   5.719
40284SOL     OW22748  13.158   7.397   0.897
40284SOL    HW122749  13.203   7.312   0.901
40284SOL    HW222750  13.132   7.406   0.806
40285SOL     OW22751   4.898   4.011  13.371
40285SOL    HW122752   4.949   3.975  13.443
40285SOL    HW222753   4.924   4.104  13.368
40286SOL     OW22754  13.055  11.299   6.003
40286SOL    HW122755  13.049  11.391   5.977
40286SOL    HW222756  13.048  11.301   6.099
40287SOL     OW22757   2.862  10.702   4.364
40287SOL    HW122758   2.835  10.692   4.273
40287SOL    HW222759   2.831  10.622   4.407
40288SOL     OW22760   0.859  13.012   5.532
40288SOL    HW122761   0.884  12.951   5.601
40288SOL    HW222762   0.766  12.994   5.517
40289SOL     OW22763   4.830   3.738   2.124
40289SOL    HW122764   4.793   3.682   2.056
40289SOL    HW222765   4.776   3.818   2.121
40290SOL     OW22766   5.629   9.170  10.686
40290SOL    HW122767   5.559   9.145  10.627
40290SOL    HW222768   5.692   9.217  10.632
40291SOL     OW22769   2.668   8.062   3.022
40291SOL    HW122770   2.754   8.027   3.045
40291SOL    HW222771   2.646   8.122   3.094
40292SOL     OW22772  10.899  13.597  14.267
40292SOL    HW122773  10.840  13.566  14.335
40292SOL    HW222774  10.963  13.527  14.256
40293SOL     OW22775  12.312   7.961   8.224
40293SOL    HW122776  12.267   8.044   8.212
40293SOL    HW222777  12.369   7.953   8.147
40294SOL     OW22778   1.111  13.515  10.121
40294SOL    HW122779   1.128  13.593  10.175
40294SOL    HW222780   1.056  13.459  10.176
40295SOL     OW22781   1.470  14.216   8.898
40295SOL    HW122782   1.426  14.169   8.826
40295SOL    HW222783   1.553  14.244   8.861
40296SOL     OW22784   9.166   4.955  13.876
40296SOL    HW122785   9.168   4.933  13.969
40296SOL    HW222786   9.234   4.901  13.837
40297SOL     OW22787   2.182   9.872  10.887
40297SOL    HW122788   2.247   9.934  10.918
40297SOL    HW222789   2.119   9.926  10.839
40298SOL     OW22790   4.399   3.219   7.443
40298SOL    HW122791   4.479   3.171   7.427
40298SOL    HW222792   4.358   3.228   7.357
40299SOL     OW22793   6.021   2.819   1.204
40299SOL    HW122794   5.964   2.895   1.215
40299SOL    HW222795   6.012   2.770   1.286
40300SOL     OW22796   8.818   4.417   8.830
40300SOL    HW122797   8.813   4.410   8.734
40300SOL    HW222798   8.846   4.507   8.845
40301SOL     OW22799  12.298   0.919  12.231
40301SOL    HW122800  12.203   0.933  12.235
40301SOL    HW222801  12.326   0.965  12.151
40302SOL     OW22802   4.280   6.596   5.386
40302SOL    HW122803   4.375   6.601   5.376
40302SOL    HW222804   4.262   6.642   5.468
40303SOL     OW22805   2.140  11.662   9.442
40303SOL    HW122806   2.224  11.617   9.451
40303SOL    HW222807   2.082  11.617   9.503
40304SOL     OW22808   4.409   4.987   6.473
40304SOL    HW122809   4.322   5.020   6.449
40304SOL    HW222810   4.404   4.972   6.567
40305SOL     OW22811  13.572  14.008  12.722
40305SOL    HW122812  13.657  14.051  12.727
40305SOL    HW222813  13.523  14.059  12.658
40306SOL     OW22814   2.259   2.879  11.352
40306SOL    HW122815   2.246   2.918  11.265
40306SOL    HW222816   2.262   2.954  11.411
40307SOL     OW22817   9.489   7.807   7.470
40307SOL    HW122818   9.459   7.786   7.559
40307SOL    HW222819   9.414   7.787   7.415
40308SOL     OW22820  10.038   4.644   2.683
40308SOL    HW122821  10.112   4.590   2.712
40308SOL    HW222822  10.057   4.731   2.718
40309SOL     OW22823  13.262   6.681   1.611
40309SOL    HW122824  13.322   6.754   1.598
40309SOL    HW222825  13.318   6.609   1.640
40310SOL     OW22826   7.019  12.364   5.978
40310SOL    HW122827   6.982  12.390   6.062
40310SOL    HW222828   7.073  12.287   5.998
40311SOL     OW22829  12.838   3.540  11.802
40311SOL    HW122830  12.770   3.565  11.864
40311SOL    HW222831  12.914   3.593  11.826
40312SOL     OW22832  14.705  11.917  11.769
40312SOL    HW122833  14.666  11.844  11.819
40312SOL    HW222834  14.761  11.962  11.833
40313SOL     OW22835  13.410   8.323   8.802
40313SOL    HW122836  13.465   8.331   8.724
40313SOL    HW222837  13.344   8.257   8.779
40314SOL     OW22838   2.962   8.754   7.777
40314SOL    HW122839   3.024   8.691   7.741
40314SOL    HW222840   2.887   8.751   7.717
40315SOL     OW22841   6.482   8.008   9.620
40315SOL    HW122842   6.504   8.097   9.648
40315SOL    HW222843   6.519   7.952   9.687
40316SOL     OW22844   9.096   8.376  14.188
40316SOL    HW122845   9.126   8.377  14.279
40316SOL    HW222846   9.090   8.468  14.163
40317SOL     OW22847   5.282   3.091  10.844
40317SOL    HW122848   5.229   3.163  10.810
40317SOL    HW222849   5.363   3.096  10.794
40318SOL     OW22850   4.246  11.009   3.914
40318SOL    HW122851   4.158  11.022   3.878
40318SOL    HW222852   4.272  10.922   3.883
40319SOL     OW22853  14.423   5.723  14.550
40319SOL    HW122854  14.385   5.710  14.637
40319SOL    HW222855  14.518   5.720  14.565
40320SOL     OW22856   0.207   4.793   2.818
40320SOL    HW122857   0.281   4.750   2.861
40320SOL    HW222858   0.206   4.756   2.730
40321SOL     OW22859  11.988   8.286   0.253
40321SOL    HW122860  11.902   8.252   0.278
40321SOL    HW222861  11.974   8.380   0.243
40322SOL     OW22862   2.849   1.624  10.684
40322SOL    HW122863   2.899   1.705  10.689
40322SOL    HW222864   2.803   1.619  10.768
40323SOL     OW22865   5.978   9.745   0.914
40323SOL    HW122866   5.905   9.757   0.852
40323SOL    HW222867   5.943   9.775   0.998
40324SOL     OW22868  13.169   7.325   1.684
40324SOL    HW122869  13.198   7.252   1.629
40324SOL    HW222870  13.246   7.383   1.689
40325SOL     OW22871   4.336  12.133   0.269
40325SOL    HW122872   4.253  12.093   0.296
40325SOL    HW222873   4.312  12.190   0.196
40326SOL     OW22874   0.907  13.574   2.640
40326SOL    HW122875   0.964  13.507   2.602
40326SOL    HW222876   0.952  13.657   2.624
40327SOL     OW22877   1.677   2.095   2.313
40327SOL    HW122878   1.692   2.178   2.358
40327SOL    HW222879   1.705   2.111   2.223
40328SOL     OW22880  13.400   0.029   8.071
40328SOL    HW122881  13.457   0.042   7.995
40328SOL    HW222882  13.354  14.822   8.053
40329SOL     OW22883   5.564   8.006  14.751
40329SOL    HW122884   5.573   7.930  14.694
40329SOL    HW222885   5.507   8.066  14.703
40330SOL     OW22886  10.661   6.063  11.479
40330SOL    HW122887  10.570   6.085  11.458
40330SOL    HW222888  10.684   6.124  11.549
40331SOL     OW22889  11.529  13.667   2.151
40331SOL    HW122890  11.502  13.753   2.120
40331SOL    HW222891  11.457  13.609   2.126
40332SOL     OW22892  11.661  11.734   6.174
40332SOL    HW122893  11.672  11.778   6.258
40332SOL    HW222894  11.633  11.645   6.197
40333SOL     OW22895   2.386  13.422   7.087
40333SOL    HW122896   2.341  13.440   7.170
40333SOL    HW222897   2.333  13.354   7.045
40334SOL     OW22898   4.764  13.066  13.820
40334SOL    HW122899   4.669  13.076  13.816
40334SOL    HW222900   4.783  13.050  13.912
40335SOL     OW22901  11.539   6.757  14.170
40335SOL    HW122902  11.621   6.738  14.123
40335SOL    HW222903  11.479   6.688  14.143
40336SOL     OW22904   0.746   5.628  10.822
40336SOL    HW122905   0.730   5.544  10.864
40336SOL    HW222906   0.833   5.655  10.853
40337SOL     OW22907   2.510  13.182   6.383
40337SOL    HW122908   2.561  13.113   6.339
40337SOL    HW222909   2.428  13.186   6.334
40338SOL     OW22910   6.572  12.512   3.756
40338SOL    HW122911   6.478  12.505   3.770
40338SOL    HW222912   6.585  12.484   3.665
40339SOL     OW22913   7.725  12.827   6.357
40339SOL    HW122914   7.668  12.760   6.394
40339SOL    HW222915   7.668  12.879   6.301
40340SOL     OW22916   0.223   6.274   9.726
40340SOL    HW122917   0.275   6.332   9.671
40340SOL    HW222918   0.181   6.332   9.790
40341SOL     OW22919   9.609   4.848   5.751
40341SOL    HW122920   9.568   4.886   5.673
40341SOL    HW222921   9.555   4.772   5.771
40342SOL     OW22922   3.204  13.189  12.747
40342SOL    HW122923   3.263  13.260  12.772
40342SOL    HW222924   3.233  13.163  12.659
40343SOL     OW22925   2.864   3.318  13.079
40343SOL    HW122926   2.816   3.241  13.051
40343SOL    HW222927   2.920   3.340  13.005
40344SOL     OW22928   4.936   7.267   4.678
40344SOL    HW122929   5.013   7.213   4.661
40344SOL    HW222930   4.876   7.209   4.724
40345SOL     OW22931   5.873   2.288   3.119
40345SOL    HW122932   5.941   2.355   3.114
40345SOL    HW222933   5.801   2.330   3.165
40346SOL     OW22934   4.123  14.675  11.991
40346SOL    HW122935   4.076  14.628  11.922
40346SOL    HW222936   4.189  14.726  11.945
40347SOL     OW22937   8.330   3.567   8.065
40347SOL    HW122938   8.326   3.663   8.074
40347SOL    HW222939   8.327   3.535   8.154
40348SOL     OW22940   8.240   6.546   8.361
40348SOL    HW122941   8.308   6.481   8.346
40348SOL    HW222942   8.257   6.580   8.448
40349SOL     OW22943   6.805   9.701   1.896
40349SOL    HW122944   6.879   9.713   1.837
40349SOL    HW222945   6.742   9.650   1.844
40350SOL     OW22946  14.314  11.739   7.150
40350SOL    HW122947  14.359  11.661   7.119
40350SOL    HW222948  14.254  11.708   7.217
40351SOL     OW22949   6.491   8.621  12.389
40351SOL    HW122950   6.499   8.713  12.365
40351SOL    HW222951   6.412   8.617  12.443
40352SOL     OW22952   3.896  10.999  11.571
40352SOL    HW122953   3.972  11.005  11.514
40352SOL    HW222954   3.824  11.036  11.518
40353SOL     OW22955   4.208   4.174  13.507
40353SOL    HW122956   4.149   4.114  13.462
40353SOL    HW222957   4.195   4.155  13.600
40354SOL     OW22958   7.394   2.100   0.132
40354SOL    HW122959   7.363   2.068   0.217
40354SOL    HW222960   7.347   2.183   0.120
40355SOL     OW22961   7.618   9.245   9.402
40355SOL    HW122962   7.580   9.248   9.489
40355SOL    HW222963   7.711   9.263   9.416
40356SOL     OW22964   7.701   7.826   6.865
40356SOL    HW122965   7.609   7.802   6.858
40356SOL    HW222966   7.714   7.890   6.796
40357SOL     OW22967   8.931  13.321   2.938
40357SOL    HW122968   8.865  13.383   2.969
40357SOL    HW222969   8.941  13.259   3.009
40358SOL     OW22970  11.563   5.864   6.971
40358SOL    HW122971  11.543   5.954   6.994
40358SOL    HW222972  11.619   5.833   7.041
40359SOL     OW22973   6.501   6.489   1.166
40359SOL    HW122974   6.455   6.419   1.119
40359SOL    HW222975   6.432   6.543   1.203
40360SOL     OW22976   0.256   6.011  10.877
40360SOL    HW122977   0.332   5.991  10.932
40360SOL    HW222978   0.194   5.941  10.895
40361SOL     OW22979   3.949   2.529   4.460
40361SOL    HW122980   3.880   2.585   4.425
40361SOL    HW222981   3.912   2.490   4.539
40362SOL     OW22982  12.824  13.817   4.993
40362SOL    HW122983  12.790  13.729   5.012
40362SOL    HW222984  12.805  13.831   4.900
40363SOL     OW22985   1.899   8.164   6.774
40363SOL    HW122986   1.898   8.237   6.712
40363SOL    HW222987   1.862   8.091   6.725
40364SOL     OW22988   6.797   3.629   7.317
40364SOL    HW122989   6.884   3.599   7.343
40364SOL    HW222990   6.740   3.554   7.336
40365SOL     OW22991   1.333   9.731  12.873
40365SOL    HW122992   1.406   9.732  12.811
40365SOL    HW222993   1.355   9.799  12.937
40366SOL     OW22994   6.361   3.535   0.174
40366SOL    HW122995   6.405   3.613   0.206
40366SOL    HW222996   6.396   3.464   0.228
40367SOL     OW22997   3.553   6.032  12.205
40367SOL    HW122998   3.493   6.002  12.273
40367SOL    HW222999   3.579   5.952  12.158
40368SOL     OW23000   2.169   6.484  13.389
40368SOL    HW123001   2.133   6.468  13.476
40368SOL    HW223002   2.093   6.490  13.332
40369SOL     OW23003   5.113   1.686   4.445
40369SOL    HW123004   5.142   1.739   4.371
40369SOL    HW223005   5.087   1.749   4.511
40370SOL     OW23006   6.574   0.582   8.194
40370SOL    HW123007   6.512   0.514   8.220
40370SOL    HW223008   6.551   0.603   8.103
40371SOL     OW23009  11.285   9.782  13.199
40371SOL    HW123010  11.372   9.813  13.174
40371SOL    HW223011  11.227   9.856  13.183
40372SOL     OW23012   0.292   7.016   6.401
40372SOL    HW123013   0.267   6.943   6.458
40372SOL    HW223014   0.268   6.988   6.313
40373SOL     OW23015   5.576   7.703   1.740
40373SOL    HW123016   5.638   7.744   1.680
40373SOL    HW223017   5.629   7.682   1.817
40374SOL     OW23018   0.871   2.591   9.256
40374SOL    HW123019   0.922   2.623   9.182
40374SOL    HW223020   0.785   2.571   9.219
40375SOL     OW23021   3.300   3.804   4.559
40375SOL    HW123022   3.271   3.775   4.646
40375SOL    HW223023   3.226   3.853   4.524
40376SOL     OW23024  10.129   2.481   0.587
40376SOL    HW123025  10.129   2.501   0.493
40376SOL    HW223026  10.119   2.566   0.629
40377SOL     OW23027   7.634  10.572   7.331
40377SOL    HW123028   7.540  10.562   7.346
40377SOL    HW223029   7.647  10.541   7.242
40378SOL     OW23030   4.498   1.772   2.193
40378SOL    HW123031   4.576   1.746   2.143
40378SOL    HW223032   4.519   1.858   2.228
40379SOL     OW23033  14.024   2.363   6.795
40379SOL    HW123034  14.065   2.322   6.871
40379SOL    HW223035  14.071   2.446   6.784
40380SOL     OW23036   4.523  14.211   7.039
40380SOL    HW123037   4.451  14.268   7.066
40380SOL    HW223038   4.493  14.173   6.957
40381SOL     OW23039   8.127   7.262  11.883
40381SOL    HW123040   8.181   7.283  11.807
40381SOL    HW223041   8.089   7.177  11.861
40382SOL     OW23042  13.576   8.127   1.358
40382SOL    HW123043  13.649   8.068   1.375
40382SOL    HW223044  13.521   8.122   1.436
40383SOL     OW23045   6.078   7.806   3.043
40383SOL    HW123046   6.046   7.890   3.075
40383SOL    HW223047   6.098   7.756   3.122
40384SOL     OW23048  12.432  13.247   5.529
40384SOL    HW123049  12.500  13.250   5.462
40384SOL    HW223050  12.363  13.191   5.492
40385SOL     OW23051  12.091   6.609  10.735
40385SOL    HW123052  12.065   6.698  10.711
40385SOL    HW223053  12.078   6.605  10.830
40386SOL     OW23054   8.446   0.292   5.717
40386SOL    HW123055   8.541   0.286   5.730
40386SOL    HW223056   8.420   0.204   5.691
40387SOL     OW23057  10.408   9.357   4.811
40387SOL    HW123058  10.336   9.368   4.748
40387SOL    HW223059  10.470   9.427   4.789
40388SOL     OW23060  14.760   8.379   1.683
40388SOL    HW123061  14.743   8.422   1.767
40388SOL    HW223062  14.696   8.308   1.679
40389SOL     OW23063   2.819   1.452   3.974
40389SOL    HW123064   2.854   1.454   3.885
40389SOL    HW223065   2.819   1.360   3.999
40390SOL     OW23066  11.541   0.802  14.414
40390SOL    HW123067  11.486   0.807  14.492
40390SOL    HW223068  11.506   0.870  14.356
40391SOL     OW23069   3.299   5.480   7.991
40391SOL    HW123070   3.364   5.503   7.925
40391SOL    HW223071   3.275   5.563   8.032
40392SOL     OW23072   4.948  11.916   1.373
40392SOL    HW123073   4.988  11.996   1.338
40392SOL    HW223074   5.006  11.846   1.346
40393SOL     OW23075   6.099  14.441  12.485
40393SOL    HW123076   6.114  14.362  12.536
40393SOL    HW223077   6.054  14.411  12.406
40394SOL     OW23078  11.584   5.317   1.991
40394SOL    HW123079  11.652   5.385   1.986
40394SOL    HW223080  11.527   5.335   1.917
40395SOL     OW23081  12.356   2.267   9.175
40395SOL    HW123082  12.268   2.289   9.144
40395SOL    HW223083  12.354   2.286   9.269
40396SOL     OW23084  11.360   6.247   1.558
40396SOL    HW123085  11.299   6.176   1.578
40396SOL    HW223086  11.305   6.318   1.526
40397SOL     OW23087  11.512  10.709   3.071
40397SOL    HW123088  11.524  10.615   3.083
40397SOL    HW223089  11.548  10.748   3.151
40398SOL     OW23090   9.390  14.316   1.860
40398SOL    HW123091   9.463  14.352   1.911
40398SOL    HW223092   9.312  14.349   1.904
40399SOL     OW23093   8.163  10.282   2.128
40399SOL    HW123094   8.160  10.368   2.087
40399SOL    HW223095   8.087  10.236   2.092
40400SOL     OW23096   3.454   1.347  14.091
40400SOL    HW123097   3.550   1.341  14.096
40400SOL    HW223098   3.433   1.319  14.002
40401SOL     OW23099   2.350   8.175   6.143
40401SOL    HW123100   2.329   8.083   6.132
40401SOL    HW223101   2.296   8.220   6.078
40402SOL     OW23102   8.174  10.139   4.226
40402SOL    HW123103   8.253  10.085   4.221
40402SOL    HW223104   8.196  10.208   4.288
40403SOL     OW23105   7.632   0.705  13.224
40403SOL    HW123106   7.621   0.658  13.307
40403SOL    HW223107   7.663   0.791  13.250
40404SOL     OW23108  14.660   4.986  10.263
40404SOL    HW123109  14.728   4.975  10.330
40404SOL    HW223110  14.708   5.016  10.185
40405SOL     OW23111   7.307  13.969   3.784
40405SOL    HW123112   7.230  14.008   3.745
40405SOL    HW223113   7.286  13.961   3.877
40406SOL     OW23114   3.337  12.976   6.259
40406SOL    HW123115   3.312  13.029   6.335
40406SOL    HW223116   3.256  12.933   6.232
40407SOL     OW23117   8.827   4.661   5.155
40407SOL    HW123118   8.844   4.582   5.206
40407SOL    HW223119   8.871   4.731   5.203
40408SOL     OW23120   2.031  10.014   1.740
40408SOL    HW123121   2.062   9.996   1.651
40408SOL    HW223122   2.025   9.927   1.781
40409SOL     OW23123  11.909   4.454  13.640
40409SOL    HW123124  11.873   4.525  13.693
40409SOL    HW223125  11.868   4.375  13.674
40410SOL     OW23126   4.371   0.086  12.315
40410SOL    HW123127   4.313   0.032  12.368
40410SOL    HW223128   4.458   0.048  12.328
40411SOL     OW23129   8.880   5.074   1.015
40411SOL    HW123130   8.948   5.030   1.067
40411SOL    HW223131   8.810   5.091   1.078
40412SOL     OW23132  12.283  12.015  14.089
40412SOL    HW123133  12.318  12.039  14.175
40412SOL    HW223134  12.216  12.081  14.071
40413SOL     OW23135   7.789  14.461   5.152
40413SOL    HW123136   7.840  14.404   5.209
40413SOL    HW223137   7.730  14.508   5.212
40414SOL     OW23138   7.783   7.025   6.909
40414SOL    HW123139   7.773   7.039   7.004
40414SOL    HW223140   7.699   7.052   6.872
40415SOL     OW23141  10.291   8.255   9.849
40415SOL    HW123142  10.332   8.216   9.927
40415SOL    HW223143  10.296   8.186   9.783
40416SOL     OW23144  10.624  13.410   4.790
40416SOL    HW123145  10.639  13.390   4.883
40416SOL    HW223146  10.565  13.341   4.760
40417SOL     OW23147   2.117   0.444  13.913
40417SOL    HW123148   2.184   0.512  13.916
40417SOL    HW223149   2.164   0.363  13.936
40418SOL     OW23150   1.127  11.332   6.041
40418SOL    HW123151   1.052  11.296   5.993
40418SOL    HW223152   1.140  11.419   6.003
40419SOL     OW23153   7.102   7.799   7.457
40419SOL    HW123154   7.096   7.717   7.409
40419SOL    HW223155   7.156   7.778   7.534
40420SOL     OW23156   7.747   1.616  12.822
40420SOL    HW123157   7.802   1.538  12.820
40420SOL    HW223158   7.697   1.607  12.904
40421SOL     OW23159  12.428  14.223   8.060
40421SOL    HW123160  12.414  14.163   8.133
40421SOL    HW223161  12.341  14.259   8.042
40422SOL     OW23162   6.247   0.589  13.315
40422SOL    HW123163   6.277   0.572  13.405
40422SOL    HW223164   6.325   0.577  13.261
40423SOL     OW23165   8.768   2.292   7.411
40423SOL    HW123166   8.736   2.309   7.500
40423SOL    HW223167   8.820   2.212   7.419
40424SOL     OW23168   7.344   4.643   8.566
40424SOL    HW123169   7.262   4.616   8.607
40424SOL    HW223170   7.362   4.729   8.604
40425SOL     OW23171   8.459  11.803  13.618
40425SOL    HW123172   8.398  11.856  13.567
40425SOL    HW223173   8.512  11.757  13.553
40426SOL     OW23174  14.039   5.126  11.622
40426SOL    HW123175  14.020   5.069  11.697
40426SOL    HW223176  14.013   5.073  11.546
40427SOL     OW23177  12.406   2.981   9.631
40427SOL    HW123178  12.418   3.072   9.658
40427SOL    HW223179  12.447   2.976   9.545
40428SOL     OW23180   9.230   5.648  11.631
40428SOL    HW123181   9.258   5.698  11.555
40428SOL    HW223182   9.136   5.636  11.619
40429SOL     OW23183  12.174  10.666   8.016
40429SOL    HW123184  12.165  10.759   7.997
40429SOL    HW223185  12.153  10.622   7.933
40430SOL     OW23186   6.382   8.893   5.639
40430SOL    HW123187   6.404   8.822   5.579
40430SOL    HW223188   6.286   8.888   5.648
40431SOL     OW23189   7.227   7.288  12.916
40431SOL    HW123190   7.222   7.295  13.011
40431SOL    HW223191   7.147   7.242  12.891
40432SOL     OW23192  14.578   9.158   7.708
40432SOL    HW123193  14.535   9.163   7.794
40432SOL    HW223194  14.544   9.234   7.660
40433SOL     OW23195   0.747   7.215  14.106
40433SOL    HW123196   0.815   7.191  14.169
40433SOL    HW223197   0.760   7.156  14.033
40434SOL     OW23198   5.364   8.889  10.791
40434SOL    HW123199   5.347   8.921  10.703
40434SOL    HW223200   5.284   8.843  10.816
40435SOL     OW23201   3.054   8.672   1.552
40435SOL    HW123202   3.064   8.762   1.582
40435SOL    HW223203   3.127   8.658   1.492
40436SOL     OW23204  10.550  14.494   5.225
40436SOL    HW123205  10.583  14.544   5.151
40436SOL    HW223206  10.496  14.426   5.187
40437SOL     OW23207  11.276   9.937   3.667
40437SOL    HW123208  11.208   9.911   3.729
40437SOL    HW223209  11.260   9.882   3.590
40438SOL     OW23210   3.539   9.544   7.176
40438SOL    HW123211   3.546   9.451   7.155
40438SOL    HW223212   3.456   9.552   7.223
40439SOL     OW23213  14.762  14.624   5.756
40439SOL    HW123214  14.785  14.544   5.803
40439SOL    HW223215  14.675  14.647   5.788
40440SOL     OW23216   0.165  12.747   2.822
40440SOL    HW123217   0.170  12.799   2.741
40440SOL    HW223218   0.185  12.809   2.892
40441SOL     OW23219   5.074  13.635   8.194
40441SOL    HW123220   5.052  13.706   8.134
40441SOL    HW223221   5.147  13.668   8.245
40442SOL     OW23222   3.447   8.043   2.299
40442SOL    HW123223   3.412   7.956   2.321
40442SOL    HW223224   3.371   8.100   2.296
40443SOL     OW23225  13.058   3.875  13.902
40443SOL    HW123226  12.963   3.878  13.901
40443SOL    HW223227  13.083   3.883  13.810
40444SOL     OW23228   9.864   4.547   3.732
40444SOL    HW123229   9.933   4.512   3.676
40444SOL    HW223230   9.910   4.607   3.792
40445SOL     OW23231   0.481  14.730   5.005
40445SOL    HW123232   0.511  14.738   5.096
40445SOL    HW223233   0.559  14.748   4.952
40446SOL     OW23234  14.610   1.940   6.007
40446SOL    HW123235  14.621   1.899   5.921
40446SOL    HW223236  14.699   1.961   6.035
40447SOL     OW23237  11.955   9.704   2.845
40447SOL    HW123238  12.048   9.721   2.833
40447SOL    HW223239  11.915   9.791   2.846
40448SOL     OW23240  13.898   5.165   3.807
40448SOL    HW123241  13.820   5.165   3.863
40448SOL    HW223242  13.932   5.076   3.814
40449SOL     OW23243   9.138  14.217   1.350
40449SOL    HW123244   9.061  14.253   1.306
40449SOL    HW223245   9.129  14.122   1.340
40450SOL     OW23246   5.195  10.187   7.538
40450SOL    HW123247   5.227  10.277   7.537
40450SOL    HW223248   5.123  10.188   7.600
40451SOL     OW23249  10.031   4.333  12.266
40451SOL    HW123250  10.080   4.357  12.187
40451SOL    HW223251   9.981   4.256  12.240
40452SOL     OW23252   8.374   2.927   8.494
40452SOL    HW123253   8.418   2.870   8.431
40452SOL    HW223254   8.295   2.880   8.518
40453SOL     OW23255   4.418  12.233   8.652
40453SOL    HW123256   4.414  12.137   8.643
40453SOL    HW223257   4.354  12.265   8.589
40454SOL     OW23258   8.810   9.618  10.429
40454SOL    HW123259   8.724   9.652  10.453
40454SOL    HW223260   8.820   9.639  10.336
40455SOL     OW23261   8.383   7.585  13.932
40455SOL    HW123262   8.373   7.524  14.006
40455SOL    HW223263   8.474   7.575  13.906
40456SOL     OW23264   1.238   7.733   8.583
40456SOL    HW123265   1.203   7.689   8.505
40456SOL    HW223266   1.204   7.681   8.656
40457SOL     OW23267  14.524  12.349   8.466
40457SOL    HW123268  14.530  12.396   8.549
40457SOL    HW223269  14.489  12.413   8.404
40458SOL     OW23270   9.428   1.293   9.284
40458SOL    HW123271   9.412   1.386   9.298
40458SOL    HW223272   9.432   1.256   9.373
40459SOL     OW23273   1.047  11.816   7.877
40459SOL    HW123274   1.104  11.743   7.852
40459SOL    HW223275   0.960  11.789   7.848
40460SOL     OW23276   9.330   8.224  13.421
40460SOL    HW123277   9.362   8.314  13.410
40460SOL    HW223278   9.339   8.185  13.334
40461SOL     OW23279   2.674   2.341   3.250
40461SOL    HW123280   2.746   2.289   3.215
40461SOL    HW223281   2.675   2.423   3.200
40462SOL     OW23282  13.251  12.815  10.958
40462SOL    HW123283  13.324  12.784  10.904
40462SOL    HW223284  13.257  12.764  11.038
40463SOL     OW23285   6.134   3.309   0.360
40463SOL    HW123286   6.188   3.374   0.404
40463SOL    HW223287   6.119   3.345   0.272
40464SOL     OW23288   8.137   3.823   1.138
40464SOL    HW123289   8.194   3.774   1.197
40464SOL    HW223290   8.058   3.770   1.131
40465SOL     OW23291   3.664   5.957   9.598
40465SOL    HW123292   3.725   5.920   9.534
40465SOL    HW223293   3.593   5.893   9.603
40466SOL     OW23294  11.080   1.628   8.847
40466SOL    HW123295  10.999   1.622   8.796
40466SOL    HW223296  11.061   1.581   8.928
40467SOL     OW23297   9.851  12.456  11.935
40467SOL    HW123298   9.852  12.386  11.869
40467SOL    HW223299   9.942  12.465  11.961
40468SOL     OW23300   3.913   4.122  13.032
40468SOL    HW123301   3.959   4.129  12.949
40468SOL    HW223302   3.869   4.206  13.043
40469SOL     OW23303  14.409  14.756   4.812
40469SOL    HW123304  14.480  14.728   4.755
40469SOL    HW223305  14.355  14.678   4.823
40470SOL     OW23306  12.547   8.390  11.717
40470SOL    HW123307  12.584   8.338  11.645
40470SOL    HW223308  12.483   8.332  11.758
40471SOL     OW23309   4.796   8.620  10.150
40471SOL    HW123310   4.773   8.643  10.240
40471SOL    HW223311   4.824   8.703  10.111
40472SOL     OW23312   9.031   2.598  12.352
40472SOL    HW123313   9.021   2.683  12.309
40472SOL    HW223314   9.073   2.543  12.287
40473SOL     OW23315   3.951   7.049  14.526
40473SOL    HW123316   3.963   7.142  14.546
40473SOL    HW223317   4.004   7.034  14.448
40474SOL     OW23318  12.287   4.663   9.715
40474SOL    HW123319  12.348   4.697   9.650
40474SOL    HW223320  12.277   4.570   9.693
40475SOL     OW23321   7.626   2.554   2.641
40475SOL    HW123322   7.599   2.472   2.683
40475SOL    HW223323   7.562   2.619   2.673
40476SOL     OW23324  12.157   8.466   4.581
40476SOL    HW123325  12.142   8.560   4.569
40476SOL    HW223326  12.181   8.435   4.494
40477SOL     OW23327   8.885   6.273  11.891
40477SOL    HW123328   8.834   6.192  11.896
40477SOL    HW223329   8.831   6.331  11.837
40478SOL     OW23330   8.932   2.592   7.138
40478SOL    HW123331   8.866   2.535   7.178
40478SOL    HW223332   9.015   2.546   7.152
40479SOL     OW23333   1.698   2.832  12.888
40479SOL    HW123334   1.693   2.928  12.880
40479SOL    HW223335   1.624   2.809  12.943
40480SOL     OW23336  11.074  11.291   3.780
40480SOL    HW123337  11.116  11.274   3.696
40480SOL    HW223338  11.011  11.361   3.762
40481SOL     OW23339   2.975   8.166  13.084
40481SOL    HW123340   2.911   8.215  13.032
40481SOL    HW223341   3.056   8.171  13.034
40482SOL     OW23342   3.064  10.179   8.479
40482SOL    HW123343   2.993  10.235   8.447
40482SOL    HW223344   3.114  10.235   8.539
40483SOL     OW23345   1.092   9.274   5.028
40483SOL    HW123346   1.081   9.265   5.122
40483SOL    HW223347   1.097   9.369   5.013
40484SOL     OW23348  13.487   1.815  13.932
40484SOL    HW123349  13.557   1.762  13.971
40484SOL    HW223350  13.426   1.750  13.897
40485SOL     OW23351  13.542   9.095   4.450
40485SOL    HW123352  13.521   9.002   4.452
40485SOL    HW223353  13.622   9.101   4.399
40486SOL     OW23354   4.649   0.114   2.361
40486SOL    HW123355   4.592   0.172   2.311
40486SOL    HW223356   4.699   0.172   2.418
40487SOL     OW23357  11.819   1.707   9.116
40487SOL    HW123358  11.878   1.772   9.077
40487SOL    HW223359  11.873   1.663   9.181
40488SOL     OW23360   8.131   5.660   4.686
40488SOL    HW123361   8.117   5.633   4.777
40488SOL    HW223362   8.079   5.598   4.635
40489SOL     OW23363   6.046   7.696   4.117
40489SOL    HW123364   6.101   7.629   4.075
40489SOL    HW223365   6.006   7.743   4.044
40490SOL     OW23366   0.925  10.099   6.056
40490SOL    HW123367   0.916  10.041   5.980
40490SOL    HW223368   0.918  10.187   6.020
40491SOL     OW23369   9.545   1.208   1.023
40491SOL    HW123370   9.583   1.125   0.994
40491SOL    HW223371   9.464   1.183   1.069
40492SOL     OW23372   8.905   7.305   2.514
40492SOL    HW123373   8.818   7.272   2.493
40492SOL    HW223374   8.894   7.399   2.523
40493SOL     OW23375   2.907   9.037   5.990
40493SOL    HW123376   2.899   8.948   5.955
40493SOL    HW223377   2.901   9.094   5.913
40494SOL     OW23378   0.760   6.101  13.957
40494SOL    HW123379   0.806   6.173  13.999
40494SOL    HW223380   0.691   6.077  14.019
40495SOL     OW23381  14.276  11.346  13.079
40495SOL    HW123382  14.346  11.387  13.029
40495SOL    HW223383  14.303  11.355  13.171
40496SOL     OW23384  10.302  13.806  10.592
40496SOL    HW123385  10.224  13.832  10.641
40496SOL    HW223386  10.272  13.736  10.534
40497SOL     OW23387   6.622   8.529  10.176
40497SOL    HW123388   6.606   8.561  10.087
40497SOL    HW223389   6.552   8.569  10.228
40498SOL     OW23390   4.204   9.275   7.631
40498SOL    HW123391   4.223   9.356   7.678
40498SOL    HW223392   4.275   9.216   7.654
40499SOL     OW23393   2.515   5.501   9.919
40499SOL    HW123394   2.473   5.440   9.859
40499SOL    HW223395   2.500   5.464  10.006
40500SOL     OW23396   2.015  10.604   7.605
40500SOL    HW123397   2.010  10.699   7.598
40500SOL    HW223398   2.056  10.588   7.690
40501SOL     OW23399   4.860   5.140  11.896
40501SOL    HW123400   4.912   5.221  11.899
40501SOL    HW223401   4.839   5.129  11.803
40502SOL     OW23402  12.641   9.232  11.299
40502SOL    HW123403  12.669   9.259  11.212
40502SOL    HW223404  12.552   9.201  11.288
40503SOL     OW23405  14.195  13.585   3.807
40503SOL    HW123406  14.141  13.515   3.769
40503SOL    HW223407  14.134  13.655   3.826
40504SOL     OW23408  13.222   2.591   9.345
40504SOL    HW123409  13.313   2.590   9.374
40504SOL    HW223410  13.193   2.681   9.362
40505SOL     OW23411  12.616   0.845   8.955
40505SOL    HW123412  12.637   0.876   9.043
40505SOL    HW223413  12.692   0.871   8.902
40506SOL     OW23414   9.166   4.091   6.485
40506SOL    HW123415   9.111   4.084   6.563
40506SOL    HW223416   9.104   4.104   6.413
40507SOL     OW23417   3.398   7.324   5.527
40507SOL    HW123418   3.442   7.276   5.457
40507SOL    HW223419   3.311   7.286   5.532
40508SOL     OW23420   4.433  10.853   9.540
40508SOL    HW123421   4.412  10.841   9.448
40508SOL    HW223422   4.412  10.768   9.581
40509SOL     OW23423  12.280   6.841   9.714
40509SOL    HW123424  12.216   6.896   9.668
40509SOL    HW223425  12.355   6.837   9.654
40510SOL     OW23426  12.577   2.026  11.401
40510SOL    HW123427  12.658   2.007  11.449
40510SOL    HW223428  12.603   2.025  11.308
40511SOL     OW23429   3.934   5.102  10.946
40511SOL    HW123430   4.026   5.102  10.971
40511SOL    HW223431   3.897   5.028  10.993
40512SOL     OW23432  14.801   9.207   5.955
40512SOL    HW123433  14.783   9.275   6.020
40512SOL    HW223434  14.821   9.256   5.874
40513SOL     OW23435   3.589   6.068   5.511
40513SOL    HW123436   3.612   6.161   5.517
40513SOL    HW223437   3.514   6.058   5.569
40514SOL     OW23438   9.124   6.392   9.179
40514SOL    HW123439   9.040   6.427   9.208
40514SOL    HW223440   9.189   6.446   9.225
40515SOL     OW23441   5.315   1.137   9.905
40515SOL    HW123442   5.265   1.177   9.834
40515SOL    HW223443   5.309   1.200   9.977
40516SOL     OW23444  13.318   9.736  10.311
40516SOL    HW123445  13.338   9.810  10.368
40516SOL    HW223446  13.380   9.744  10.238
40517SOL     OW23447  12.365   7.422  12.289
40517SOL    HW123448  12.419   7.390  12.362
40517SOL    HW223449  12.334   7.507  12.318
40518SOL     OW23450   0.177   7.699   4.818
40518SOL    HW123451   0.095   7.658   4.843
40518SOL    HW223452   0.212   7.734   4.899
40519SOL     OW23453   4.783   9.455   4.410
40519SOL    HW123454   4.760   9.548   4.411
40519SOL    HW223455   4.720   9.415   4.350
40520SOL     OW23456  12.823   8.380   0.120
40520SOL    HW123457  12.739   8.340   0.142
40520SOL    HW223458  12.801   8.452   0.061
40521SOL     OW23459   4.324   8.645   6.793
40521SOL    HW123460   4.408   8.675   6.827
40521SOL    HW223461   4.259   8.680   6.855
40522SOL     OW23462  11.602   7.708  12.514
40522SOL    HW123463  11.655   7.725  12.591
40522SOL    HW223464  11.657   7.736  12.440
40523SOL     OW23465   2.847   8.287  14.800
40523SOL    HW123466   2.903   8.274   0.001
40523SOL    HW223467   2.890   8.239  14.729
40524SOL     OW23468   7.477  11.420   4.729
40524SOL    HW123469   7.488  11.408   4.823
40524SOL    HW223470   7.418  11.495   4.720
40525SOL     OW23471  14.273  10.248   5.245
40525SOL    HW123472  14.337  10.183   5.214
40525SOL    HW223473  14.196  10.234   5.191
40526SOL     OW23474   4.999  12.151   9.372
40526SOL    HW123475   5.081  12.169   9.418
40526SOL    HW223476   4.931  12.156   9.439
40527SOL     OW23477  14.201  10.229  14.392
40527SOL    HW123478  14.109  10.236  14.418
40527SOL    HW223479  14.199  10.175  14.313
40528SOL     OW23480   9.832   5.910   2.681
40528SOL    HW123481   9.797   5.966   2.751
40528SOL    HW223482   9.827   5.822   2.717
40529SOL     OW23483   4.671   1.549   7.404
40529SOL    HW123484   4.627   1.625   7.365
40529SOL    HW223485   4.623   1.474   7.371
40530SOL     OW23486   1.016  11.014   0.440
40530SOL    HW123487   0.922  10.999   0.429
40530SOL    HW223488   1.028  11.020   0.535
40531SOL     OW23489  13.677   2.774   9.229
40531SOL    HW123490  13.715   2.861   9.213
40531SOL    HW223491  13.733   2.736   9.296
40532SOL     OW23492  10.697   0.217   9.009
40532SOL    HW123493  10.662   0.289   8.958
40532SOL    HW223494  10.624   0.156   9.018
40533SOL     OW23495   9.869   6.633   0.480
40533SOL    HW123496   9.806   6.605   0.546
40533SOL    HW223497   9.892   6.722   0.504
40534SOL     OW23498  13.731   0.794   6.936
40534SOL    HW123499  13.671   0.720   6.944
40534SOL    HW223500  13.690   0.851   6.871
40535SOL     OW23501   3.853   9.273   7.768
40535SOL    HW123502   3.863   9.179   7.786
40535SOL    HW223503   3.836   9.278   7.674
40536SOL     OW23504  13.710   6.293   8.811
40536SOL    HW123505  13.763   6.345   8.751
40536SOL    HW223506  13.736   6.322   8.898
40537SOL     OW23507  14.277   9.240   8.419
40537SOL    HW123508  14.297   9.331   8.397
40537SOL    HW223509  14.279   9.237   8.515
40538SOL     OW23510  11.285   0.711   7.449
40538SOL    HW123511  11.326   0.712   7.536
40538SOL    HW223512  11.288   0.802   7.421
40539SOL     OW23513  12.191  12.324   2.910
40539SOL    HW123514  12.164  12.367   2.828
40539SOL    HW223515  12.263  12.266   2.884
40540SOL     OW23516  13.489  13.241  11.441
40540SOL    HW123517  13.566  13.274  11.486
40540SOL    HW223518  13.425  13.313  11.447
40541SOL     OW23519  11.890   3.978  12.056
40541SOL    HW123520  11.931   4.012  12.136
40541SOL    HW223521  11.891   4.052  11.995
40542SOL     OW23522   4.251   9.692   6.125
40542SOL    HW123523   4.296   9.769   6.159
40542SOL    HW223524   4.278   9.620   6.182
40543SOL     OW23525  12.862  13.793  11.014
40543SOL    HW123526  12.783  13.761  10.971
40543SOL    HW223527  12.933  13.739  10.978
40544SOL     OW23528   0.559   8.324   0.593
40544SOL    HW123529   0.485   8.332   0.654
40544SOL    HW223530   0.628   8.378   0.632
40545SOL     OW23531   4.743   6.181  13.559
40545SOL    HW123532   4.660   6.215  13.526
40545SOL    HW223533   4.795   6.165  13.480
40546SOL     OW23534   0.783   2.181  14.494
40546SOL    HW123535   0.775   2.276  14.489
40546SOL    HW223536   0.859   2.160  14.440
40547SOL     OW23537   9.224  13.474   3.222
40547SOL    HW123538   9.254  13.407   3.160
40547SOL    HW223539   9.146  13.435   3.262
40548SOL     OW23540  11.506   0.643   4.592
40548SOL    HW123541  11.502   0.609   4.503
40548SOL    HW223542  11.573   0.711   4.589
40549SOL     OW23543   5.858   6.513   7.706
40549SOL    HW123544   5.854   6.531   7.800
40549SOL    HW223545   5.850   6.418   7.700
40550SOL     OW23546   0.302   5.136   0.839
40550SOL    HW123547   0.315   5.120   0.746
40550SOL    HW223548   0.251   5.061   0.870
40551SOL     OW23549   3.328   5.069   9.552
40551SOL    HW123550   3.418   5.077   9.521
40551SOL    HW223551   3.289   5.000   9.498
40552SOL     OW23552   3.573   3.343  11.872
40552SOL    HW123553   3.494   3.305  11.833
40552SOL    HW223554   3.540   3.398  11.944
40553SOL     OW23555   0.562   8.871   4.102
40553SOL    HW123556   0.561   8.905   4.013
40553SOL    HW223557   0.481   8.903   4.141
40554SOL     OW23558  12.608   5.484   8.077
40554SOL    HW123559  12.592   5.398   8.041
40554SOL    HW223560  12.533   5.537   8.049
40555SOL     OW23561   8.815   2.090  11.449
40555SOL    HW123562   8.755   2.084  11.374
40555SOL    HW223563   8.826   2.184  11.462
40556SOL     OW23564   7.272   7.695   6.254
40556SOL    HW123565   7.185   7.722   6.284
40556SOL    HW223566   7.327   7.772   6.266
40557SOL     OW23567  10.050   4.566   5.143
40557SOL    HW123568   9.996   4.645   5.142
40557SOL    HW223569  10.111   4.579   5.216
40558SOL     OW23570  11.677  13.287   2.240
40558SOL    HW123571  11.617  13.213   2.244
40558SOL    HW223572  11.634  13.355   2.293
40559SOL     OW23573   7.704   7.277   5.484
40559SOL    HW123574   7.708   7.371   5.466
40559SOL    HW223575   7.755   7.266   5.564
40560SOL     OW23576  10.751   4.291   2.435
40560SOL    HW123577  10.807   4.288   2.358
40560SOL    HW223578  10.714   4.379   2.433
40561SOL     OW23579   1.384   0.776   7.384
40561SOL    HW123580   1.347   0.863   7.394
40561SOL    HW223581   1.459   0.788   7.325
40562SOL     OW23582  11.871   3.725  13.298
40562SOL    HW123583  11.829   3.781  13.233
40562SOL    HW223584  11.964   3.730  13.277
40563SOL     OW23585   7.999   6.501  12.487
40563SOL    HW123586   7.919   6.538  12.525
40563SOL    HW223587   8.017   6.558  12.412
40564SOL     OW23588  12.900  14.425   3.770
40564SOL    HW123589  12.919  14.362   3.840
40564SOL    HW223590  12.987  14.453   3.740
40565SOL     OW23591   5.514   7.982  11.834
40565SOL    HW123592   5.543   7.892  11.851
40565SOL    HW223593   5.451   8.001  11.904
40566SOL     OW23594   5.481  10.763   7.029
40566SOL    HW123595   5.467  10.749   7.122
40566SOL    HW223596   5.396  10.746   6.989
40567SOL     OW23597   8.290   9.617  13.949
40567SOL    HW123598   8.327   9.624  14.037
40567SOL    HW223599   8.343   9.549  13.907
40568SOL     OW23600   3.160   4.201   2.771
40568SOL    HW123601   3.157   4.283   2.820
40568SOL    HW223602   3.116   4.221   2.688
40569SOL     OW23603  10.755  12.514  14.777
40569SOL    HW123604  10.817  12.501  14.849
40569SOL    HW223605  10.684  12.565  14.815
40570SOL     OW23606   1.148   5.998  11.464
40570SOL    HW123607   1.137   6.076  11.519
40570SOL    HW223608   1.196   6.030  11.387
40571SOL     OW23609   2.358   7.354   7.744
40571SOL    HW123610   2.326   7.441   7.767
40571SOL    HW223611   2.371   7.357   7.650
40572SOL     OW23612   5.209   2.865   4.277
40572SOL    HW123613   5.205   2.957   4.250
40572SOL    HW223614   5.284   2.862   4.338
40573SOL     OW23615   3.780   7.678   1.043
40573SOL    HW123616   3.748   7.668   1.133
40573SOL    HW223617   3.757   7.595   1.000
40574SOL     OW23618  12.016   5.823  11.466
40574SOL    HW123619  11.922   5.809  11.475
40574SOL    HW223620  12.035   5.803  11.375
40575SOL     OW23621  14.571   9.217   5.527
40575SOL    HW123622  14.647   9.208   5.470
40575SOL    HW223623  14.529   9.131   5.525
40576SOL     OW23624   3.541   5.657   6.352
40576SOL    HW123625   3.562   5.612   6.271
40576SOL    HW223626   3.446   5.661   6.355
40577SOL     OW23627   8.761   2.984   7.073
40577SOL    HW123628   8.694   3.052   7.067
40577SOL    HW223629   8.711   2.904   7.090
40578SOL     OW23630   2.076   7.284  14.156
40578SOL    HW123631   2.008   7.266  14.221
40578SOL    HW223632   2.155   7.302  14.208
40579SOL     OW23633  13.373  10.417   1.138
40579SOL    HW123634  13.421  10.453   1.063
40579SOL    HW223635  13.392  10.323   1.136
40580SOL     OW23636   1.684   4.684   9.086
40580SOL    HW123637   1.755   4.693   9.022
40580SOL    HW223638   1.604   4.681   9.033
40581SOL     OW23639   4.002   0.894  13.871
40581SOL    HW123640   3.949   0.819  13.843
40581SOL    HW223641   3.990   0.959  13.802
40582SOL     OW23642   3.082  10.255  11.808
40582SOL    HW123643   3.084  10.315  11.734
40582SOL    HW223644   3.166  10.267  11.852
40583SOL     OW23645   9.795   4.500   8.034
40583SOL    HW123646   9.775   4.573   8.093
40583SOL    HW223647   9.890   4.507   8.020
40584SOL     OW23648   0.528  11.031   9.686
40584SOL    HW123649   0.537  11.081   9.606
40584SOL    HW223650   0.439  10.995   9.683
40585SOL     OW23651  10.970  12.906   7.956
40585SOL    HW123652  11.026  12.831   7.937
40585SOL    HW223653  11.020  12.959   8.017
40586SOL     OW23654   8.901   4.557  10.479
40586SOL    HW123655   8.887   4.492  10.548
40586SOL    HW223656   8.815   4.597  10.466
40587SOL     OW23657  10.417  14.770  10.133
40587SOL    HW123658  10.352  14.712  10.174
40587SOL    HW223659  10.462  14.812  10.206
40588SOL     OW23660   4.863   7.529   7.482
40588SOL    HW123661   4.824   7.608   7.519
40588SOL    HW223662   4.887   7.553   7.393
40589SOL     OW23663  14.284  13.325  12.226
40589SOL    HW123664  14.350  13.291  12.287
40589SOL    HW223665  14.328  13.323  12.140
40590SOL     OW23666  12.996   3.528  13.763
40590SOL    HW123667  12.935   3.575  13.706
40590SOL    HW223668  13.076   3.519  13.710
40591SOL     OW23669   2.228   7.776  14.360
40591SOL    HW123670   2.313   7.735  14.374
40591SOL    HW223671   2.213   7.829  14.438
40592SOL     OW23672   6.056   5.842  12.819
40592SOL    HW123673   6.032   5.771  12.878
40592SOL    HW223674   6.042   5.805  12.731
40593SOL     OW23675  14.192  12.319   5.541
40593SOL    HW123676  14.136  12.397   5.531
40593SOL    HW223677  14.192  12.279   5.454
40594SOL     OW23678   6.993  10.060  13.649
40594SOL    HW123679   6.985  10.030  13.740
40594SOL    HW223680   7.079  10.102  13.646
40595SOL     OW23681  11.262   4.963   5.864
40595SOL    HW123682  11.269   4.997   5.775
40595SOL    HW223683  11.201   4.890   5.857
40596SOL     OW23684  11.285   0.506  11.069
40596SOL    HW123685  11.252   0.551  10.991
40596SOL    HW223686  11.329   0.428  11.035
40597SOL     OW23687   6.222   9.934   1.003
40597SOL    HW123688   6.143   9.966   1.047
40597SOL    HW223689   6.287  10.002   1.018
40598SOL     OW23690  14.241   0.111   3.324
40598SOL    HW123691  14.217   0.203   3.323
40598SOL    HW223692  14.287   0.097   3.241
40599SOL     OW23693   7.802   5.232   9.336
40599SOL    HW123694   7.863   5.283   9.389
40599SOL    HW223695   7.850   5.153   9.313
40600SOL     OW23696  11.690   4.353   4.014
40600SOL    HW123697  11.757   4.335   3.948
40600SOL    HW223698  11.694   4.448   4.026
40601SOL     OW23699  14.224   0.174   7.859
40601SOL    HW123700  14.152   0.225   7.896
40601SOL    HW223701  14.268   0.135   7.935
40602SOL     OW23702   5.660   8.525   5.940
40602SOL    HW123703   5.615   8.543   6.022
40602SOL    HW223704   5.628   8.593   5.880
40603SOL     OW23705   3.492   0.866  11.739
40603SOL    HW123706   3.582   0.877  11.769
40603SOL    HW223707   3.447   0.946  11.765
40604SOL     OW23708   8.222  10.295   3.648
40604SOL    HW123709   8.151  10.289   3.584
40604SOL    HW223710   8.231  10.207   3.684
40605SOL     OW23711  12.235   2.404  13.941
40605SOL    HW123712  12.160   2.360  13.980
40605SOL    HW223713  12.205   2.431  13.854
40606SOL     OW23714  14.729   6.562   3.282
40606SOL    HW123715  14.809   6.590   3.237
40606SOL    HW223716  14.660   6.571   3.216
40607SOL     OW23717   2.661  10.283   3.314
40607SOL    HW123718   2.739  10.269   3.368
40607SOL    HW223719   2.599  10.216   3.344
40608SOL     OW23720   3.718   8.700   8.013
40608SOL    HW123721   3.805   8.674   8.042
40608SOL    HW223722   3.659   8.669   8.082
40609SOL     OW23723  11.967   3.912   5.160
40609SOL    HW123724  11.901   3.909   5.090
40609SOL    HW223725  11.921   3.948   5.235
40610SOL     OW23726   2.153   6.146  10.460
40610SOL    HW123727   2.215   6.215  10.438
40610SOL    HW223728   2.082   6.191  10.506
40611SOL     OW23729  12.465   4.605   7.683
40611SOL    HW123730  12.418   4.536   7.637
40611SOL    HW223731  12.480   4.569   7.771
40612SOL     OW23732   9.360   1.829  10.820
40612SOL    HW123733   9.445   1.872  10.827
40612SOL    HW223734   9.346   1.817  10.726
40613SOL     OW23735   6.592  14.663  11.934
40613SOL    HW123736   6.626  14.674  11.845
40613SOL    HW223737   6.667  14.685  11.990
40614SOL     OW23738  12.661   3.342   3.304
40614SOL    HW123739  12.654   3.252   3.272
40614SOL    HW223740  12.641   3.337   3.397
40615SOL     OW23741  10.356   1.437  11.541
40615SOL    HW123742  10.411   1.506  11.577
40615SOL    HW223743  10.273   1.480  11.520
40616SOL     OW23744  10.534   9.550   1.788
40616SOL    HW123745  10.442   9.535   1.811
40616SOL    HW223746  10.576   9.573   1.871
40617SOL     OW23747   3.557  12.483   9.141
40617SOL    HW123748   3.552  12.577   9.120
40617SOL    HW223749   3.638  12.474   9.192
40618SOL     OW23750  11.462  12.160   2.885
40618SOL    HW123751  11.528  12.096   2.858
40618SOL    HW223752  11.415  12.182   2.804
40619SOL     OW23753  11.034   5.475  12.366
40619SOL    HW123754  11.086   5.532  12.310
40619SOL    HW223755  11.057   5.386  12.337
40620SOL     OW23756   7.063   4.878   9.369
40620SOL    HW123757   7.061   4.804   9.430
40620SOL    HW223758   7.147   4.920   9.385
40621SOL     OW23759   9.184   3.326   7.497
40621SOL    HW123760   9.151   3.271   7.427
40621SOL    HW223761   9.182   3.415   7.461
40622SOL     OW23762  10.621   0.401   9.234
40622SOL    HW123763  10.656   0.490   9.232
40622SOL    HW223764  10.654   0.359   9.154
40623SOL     OW23765  11.238   5.986   2.004
40623SOL    HW123766  11.149   6.001   2.038
40623SOL    HW223767  11.238   6.030   1.919
40624SOL     OW23768   1.698  14.568  13.232
40624SOL    HW123769   1.774  14.618  13.262
40624SOL    HW223770   1.719  14.477  13.254
40625SOL     OW23771   3.455  11.521   1.192
40625SOL    HW123772   3.495  11.574   1.123
40625SOL    HW223773   3.489  11.433   1.177
40626SOL     OW23774   1.492  12.390   3.923
40626SOL    HW123775   1.458  12.315   3.874
40626SOL    HW223776   1.577  12.362   3.956
40627SOL     OW23777   8.672   8.283   8.854
40627SOL    HW123778   8.719   8.261   8.773
40627SOL    HW223779   8.696   8.214   8.916
40628SOL     OW23780   6.337   4.890   5.809
40628SOL    HW123781   6.346   4.870   5.716
40628SOL    HW223782   6.351   4.806   5.853
40629SOL     OW23783  11.131   9.846  14.081
40629SOL    HW123784  11.178   9.929  14.082
40629SOL    HW223785  11.199   9.780  14.070
40630SOL     OW23786   6.649   8.165   4.568
40630SOL    HW123787   6.638   8.249   4.522
40630SOL    HW223788   6.744   8.158   4.582
40631SOL     OW23789   5.453  13.023   5.145
40631SOL    HW123790   5.372  13.010   5.097
40631SOL    HW223791   5.429  13.083   5.216
40632SOL     OW23792   0.677  12.300   8.201
40632SOL    HW123793   0.636  12.384   8.220
40632SOL    HW223794   0.743  12.289   8.269
40633SOL     OW23795   4.861   0.241  13.300
40633SOL    HW123796   4.854   0.146  13.311
40633SOL    HW223797   4.810   0.278  13.373
40634SOL     OW23798   4.147   8.492   7.608
40634SOL    HW123799   4.226   8.537   7.639
40634SOL    HW223800   4.082   8.508   7.676
40635SOL     OW23801  13.426   8.464   4.448
40635SOL    HW123802  13.339   8.422   4.447
40635SOL    HW223803  13.477   8.411   4.508
40636SOL     OW23804   3.999  14.683  12.725
40636SOL    HW123805   4.008  14.634  12.644
40636SOL    HW223806   3.941  14.629  12.779
40637SOL     OW23807   1.930   0.991  14.745
40637SOL    HW123808   1.915   0.978  14.839
40637SOL    HW223809   2.013   1.037  14.739
40638SOL     OW23810   7.226   2.422   6.892
40638SOL    HW123811   7.143   2.462   6.918
40638SOL    HW223812   7.257   2.475   6.818
40639SOL     OW23813  14.268   0.578  10.257
40639SOL    HW123814  14.210   0.627  10.199
40639SOL    HW223815  14.208   0.535  10.319
40640SOL     OW23816   2.014   5.903  11.331
40640SOL    HW123817   2.098   5.870  11.364
40640SOL    HW223818   2.036   5.951  11.251
40641SOL     OW23819  10.113  12.805   8.121
40641SOL    HW123820  10.067  12.747   8.060
40641SOL    HW223821  10.060  12.885   8.121
40642SOL     OW23822  12.010  14.323  13.458
40642SOL    HW123823  12.060  14.397  13.425
40642SOL    HW223824  12.043  14.309  13.547
40643SOL     OW23825   0.058   3.453  10.081
40643SOL    HW123826  14.847   3.447  10.040
40643SOL    HW223827   0.120   3.429  10.012
40644SOL     OW23828   3.290   4.310   3.592
40644SOL    HW123829   3.371   4.337   3.635
40644SOL    HW223830   3.235   4.276   3.662
40645SOL     OW23831   1.696   9.197  12.994
40645SOL    HW123832   1.613   9.244  12.993
40645SOL    HW223833   1.704   9.164  13.084
40646SOL     OW23834  11.267  12.168   6.704
40646SOL    HW123835  11.183  12.205   6.676
40646SOL    HW223836  11.318  12.243   6.733
40647SOL     OW23837  12.251  13.068   5.402
40647SOL    HW123838  12.193  13.058   5.478
40647SOL    HW223839  12.197  13.111   5.336
40648SOL     OW23840  11.932   3.064   2.537
40648SOL    HW123841  11.992   3.055   2.611
40648SOL    HW223842  11.987   3.053   2.460
40649SOL     OW23843   0.886   7.693   1.319
40649SOL    HW123844   0.938   7.624   1.360
40649SOL    HW223845   0.797   7.675   1.347
40650SOL     OW23846  13.711   0.245   8.469
40650SOL    HW123847  13.728   0.318   8.408
40650SOL    HW223848  13.616   0.235   8.467
40651SOL     OW23849  14.292   2.816  14.836
40651SOL    HW123850  14.221   2.755  14.820
40651SOL    HW223851  14.371   2.770  14.808
40652SOL     OW23852   8.069   4.467   2.502
40652SOL    HW123853   8.089   4.386   2.549
40652SOL    HW223854   7.983   4.452   2.464
40653SOL     OW23855   2.126   3.112   3.888
40653SOL    HW123856   2.178   3.036   3.860
40653SOL    HW223857   2.041   3.098   3.845
40654SOL     OW23858  10.412   8.522   0.631
40654SOL    HW123859  10.493   8.481   0.603
40654SOL    HW223860  10.365   8.540   0.550
40655SOL     OW23861  11.973   5.131   4.905
40655SOL    HW123862  11.893   5.102   4.948
40655SOL    HW223863  12.017   5.050   4.878
40656SOL     OW23864   6.380   4.617   5.835
40656SOL    HW123865   6.336   4.596   5.918
40656SOL    HW223866   6.471   4.592   5.849
40657SOL     OW23867   3.719   5.705   1.076
40657SOL    HW123868   3.745   5.700   1.168
40657SOL    HW223869   3.642   5.762   1.076
40658SOL     OW23870   3.411   1.750   4.301
40658SOL    HW123871   3.478   1.810   4.267
40658SOL    HW223872   3.355   1.730   4.226
40659SOL     OW23873   8.794   8.008   3.060
40659SOL    HW123874   8.870   8.066   3.052
40659SOL    HW223875   8.748   8.018   2.977
40660SOL     OW23876   0.543  11.551   9.373
40660SOL    HW123877   0.597  11.613   9.421
40660SOL    HW223878   0.459  11.551   9.419
40661SOL     OW23879   2.943   5.924   9.973
40661SOL    HW123880   2.857   5.945   9.936
40661SOL    HW223881   2.924   5.888  10.060
40662SOL     OW23882  11.217   5.523   7.067
40662SOL    HW123883  11.257   5.584   7.006
40662SOL    HW223884  11.144   5.572   7.105
40663SOL     OW23885   9.714  12.688   5.048
40663SOL    HW123886   9.686  12.674   4.958
40663SOL    HW223887   9.669  12.768   5.075
40664SOL     OW23888   8.236   8.632   3.343
40664SOL    HW123889   8.293   8.647   3.417
40664SOL    HW223890   8.204   8.543   3.354
40665SOL     OW23891   7.226   5.178  11.191
40665SOL    HW123892   7.318   5.189  11.167
40665SOL    HW223893   7.228   5.126  11.271
40666SOL     OW23894   3.301  13.946  11.730
40666SOL    HW123895   3.263  13.882  11.791
40666SOL    HW223896   3.374  13.899  11.689
40667SOL     OW23897   2.424  10.219   4.534
40667SOL    HW123898   2.517  10.198   4.527
40667SOL    HW223899   2.416  10.267   4.616
40668SOL     OW23900   9.499   0.910   2.259
40668SOL    HW123901   9.429   0.955   2.212
40668SOL    HW223902   9.531   0.973   2.323
40669SOL     OW23903   6.156   5.574  11.015
40669SOL    HW123904   6.150   5.481  10.991
40669SOL    HW223905   6.119   5.621  10.940
40670SOL     OW23906  13.005   1.285   9.688
40670SOL    HW123907  13.076   1.310   9.629
40670SOL    HW223908  12.992   1.361   9.744
40671SOL     OW23909   9.194  10.285   7.274
40671SOL    HW123910   9.278  10.260   7.234
40671SOL    HW223911   9.218  10.329   7.355
40672SOL     OW23912   2.082  11.803  13.723
40672SOL    HW123913   2.144  11.765  13.661
40672SOL    HW223914   2.031  11.865  13.671
40673SOL     OW23915   1.223   0.267  13.191
40673SOL    HW123916   1.274   0.188  13.209
40673SOL    HW223917   1.262   0.334  13.248
40674SOL     OW23918  12.604   5.586   7.623
40674SOL    HW123919  12.516   5.599   7.657
40674SOL    HW223920  12.652   5.665   7.651
40675SOL     OW23921  11.927   5.146   5.223
40675SOL    HW123922  11.858   5.209   5.199
40675SOL    HW223923  11.972   5.188   5.296
40676SOL     OW23924   0.264  13.265  13.030
40676SOL    HW123925   0.213  13.241  12.952
40676SOL    HW223926   0.216  13.228  13.103
40677SOL     OW23927   6.378   2.301  10.979
40677SOL    HW123928   6.294   2.256  10.965
40677SOL    HW223929   6.440   2.255  10.922
40678SOL     OW23930   8.202   9.479   2.024
40678SOL    HW123931   8.240   9.392   2.037
40678SOL    HW223932   8.111   9.461   2.000
40679SOL     OW23933  12.543   0.240  11.189
40679SOL    HW123934  12.540   0.192  11.272
40679SOL    HW223935  12.630   0.223  11.154
40680SOL     OW23936  11.329  12.938  11.604
40680SOL    HW123937  11.313  12.976  11.518
40680SOL    HW223938  11.419  12.962  11.625
40681SOL     OW23939  12.209   0.592  11.658
40681SOL    HW123940  12.118   0.612  11.636
40681SOL    HW223941  12.259   0.665  11.622
40682SOL     OW23942   1.029   5.769   4.108
40682SOL    HW123943   1.112   5.769   4.155
40682SOL    HW223944   1.053   5.786   4.017
40683SOL     OW23945   3.403   6.342   8.927
40683SOL    HW123946   3.334   6.404   8.904
40683SOL    HW223947   3.469   6.394   8.973
40684SOL     OW23948   4.869   7.946   8.252
40684SOL    HW123949   4.804   7.927   8.184
40684SOL    HW223950   4.831   8.018   8.302
40685SOL     OW23951   3.229  10.336  12.985
40685SOL    HW123952   3.194  10.285  12.912
40685SOL    HW223953   3.323  10.317  12.984
40686SOL     OW23954   9.461   2.612   8.673
40686SOL    HW123955   9.491   2.633   8.584
40686SOL    HW223956   9.536   2.568   8.713
40687SOL     OW23957  11.280  13.197   3.677
40687SOL    HW123958  11.309  13.189   3.586
40687SOL    HW223959  11.207  13.258   3.674
40688SOL     OW23960   2.457   7.875  14.728
40688SOL    HW123961   2.381   7.898  14.675
40688SOL    HW223962   2.504   7.957  14.740
40689SOL     OW23963   1.171   6.702  10.030
40689SOL    HW123964   1.206   6.612  10.029
40689SOL    HW223965   1.078   6.691  10.012
40690SOL     OW23966   0.542   1.588  12.303
40690SOL    HW123967   0.494   1.636  12.371
40690SOL    HW223968   0.581   1.656  12.249
40691SOL     OW23969  12.869   4.176   0.663
40691SOL    HW123970  12.859   4.089   0.702
40691SOL    HW223971  12.899   4.231   0.735
40692SOL     OW23972   7.925   7.499   3.497
40692SOL    HW123973   7.899   7.566   3.434
40692SOL    HW223974   8.010   7.468   3.466
40693SOL     OW23975  13.192   6.548  11.545
40693SOL    HW123976  13.283   6.530  11.521
40693SOL    HW223977  13.153   6.585  11.466
40694SOL     OW23978   5.200   6.870   2.036
40694SOL    HW123979   5.174   6.939   1.974
40694SOL    HW223980   5.287   6.896   2.066
40695SOL     OW23981  14.232  11.821  13.279
40695SOL    HW123982  14.287  11.762  13.228
40695SOL    HW223983  14.151  11.771  13.294
40696SOL     OW23984   4.320  12.379  11.751
40696SOL    HW123985   4.254  12.439  11.785
40696SOL    HW223986   4.324  12.398  11.658
40697SOL     OW23987  10.861  11.959  12.567
40697SOL    HW123988  10.952  11.929  12.568
40697SOL    HW223989  10.831  11.948  12.658
40698SOL     OW23990  11.631  11.521  13.632
40698SOL    HW123991  11.665  11.522  13.543
40698SOL    HW223992  11.536  11.527  13.623
40699SOL     OW23993   1.054   8.494   2.190
40699SOL    HW123994   1.057   8.589   2.180
40699SOL    HW223995   0.996   8.464   2.120
40700SOL     OW23996  13.344   3.752  14.779
40700SOL    HW123997  13.417   3.814  14.773
40700SOL    HW223998  13.325   3.748  14.873
40701SOL     OW23999  13.013  14.735   6.874
40701SOL    HW124000  13.021  14.676   6.949
40701SOL    HW224001  12.950  14.802   6.902
40702SOL     OW24002   8.974  13.234   1.799
40702SOL    HW124003   8.928  13.195   1.724
40702SOL    HW224004   9.003  13.159   1.851
40703SOL     OW24005  13.417   2.734   3.462
40703SOL    HW124006  13.328   2.722   3.494
40703SOL    HW224007  13.408   2.796   3.389
40704SOL     OW24008   5.971   5.028   6.281
40704SOL    HW124009   6.064   5.044   6.297
40704SOL    HW224010   5.955   5.061   6.193
40705SOL     OW24011   3.111   7.039  13.502
40705SOL    HW124012   3.118   7.095  13.579
40705SOL    HW224013   3.077   7.096  13.433
40706SOL     OW24014   9.261  12.287   9.617
40706SOL    HW124015   9.306  12.291   9.534
40706SOL    HW224016   9.199  12.214   9.608
40707SOL     OW24017   8.583  13.155   6.568
40707SOL    HW124018   8.678  13.167   6.566
40707SOL    HW224019   8.548  13.241   6.593
40708SOL     OW24020   4.397   8.126   3.017
40708SOL    HW124021   4.413   8.039   2.981
40708SOL    HW224022   4.388   8.183   2.940
40709SOL     OW24023   4.483   2.714   5.231
40709SOL    HW124024   4.551   2.679   5.288
40709SOL    HW224025   4.470   2.647   5.164
40710SOL     OW24026   9.784   3.254   8.044
40710SOL    HW124027   9.809   3.302   7.966
40710SOL    HW224028   9.705   3.206   8.019
40711SOL     OW24029   4.979   1.546   6.166
40711SOL    HW124030   4.966   1.466   6.116
40711SOL    HW224031   5.065   1.578   6.139
40712SOL     OW24032   1.954   8.312  12.781
40712SOL    HW124033   1.939   8.406  12.787
40712SOL    HW224034   2.049   8.304  12.767
40713SOL     OW24035   9.676  11.235   2.152
40713SOL    HW124036   9.664  11.311   2.209
40713SOL    HW224037   9.689  11.162   2.212
40714SOL     OW24038   4.516  11.091   0.571
40714SOL    HW124039   4.442  11.138   0.609
40714SOL    HW224040   4.593  11.129   0.614
40715SOL     OW24041   3.943   5.672   4.628
40715SOL    HW124042   4.013   5.639   4.572
40715SOL    HW224043   3.977   5.663   4.717
40716SOL     OW24044   5.565   4.296   5.936
40716SOL    HW124045   5.511   4.350   5.993
40716SOL    HW224046   5.654   4.311   5.967
40717SOL     OW24047  10.180  13.642   0.483
40717SOL    HW124048  10.191  13.731   0.450
40717SOL    HW224049  10.195  13.649   0.578
40718SOL     OW24050   5.982   5.981   2.804
40718SOL    HW124051   6.029   5.971   2.722
40718SOL    HW224052   5.965   5.891   2.833
40719SOL     OW24053   3.507   9.380   1.672
40719SOL    HW124054   3.582   9.439   1.666
40719SOL    HW224055   3.495   9.365   1.766
40720SOL     OW24056  10.066   2.580   3.266
40720SOL    HW124057  10.001   2.640   3.229
40720SOL    HW224058  10.017   2.528   3.329
40721SOL     OW24059  10.615   3.266  14.785
40721SOL    HW124060  10.637   3.219  14.866
40721SOL    HW224061  10.541   3.321  14.810
40722SOL     OW24062   2.417  13.175  13.723
40722SOL    HW124063   2.457  13.262  13.715
40722SOL    HW224064   2.330  13.185  13.685
40723SOL     OW24065   6.364   5.657   1.259
40723SOL    HW124066   6.295   5.659   1.193
40723SOL    HW224067   6.438   5.702   1.218
40724SOL     OW24068   6.066   0.232   9.832
40724SOL    HW124069   6.136   0.181   9.872
40724SOL    HW224070   6.107   0.315   9.809
40725SOL     OW24071   4.265   0.755  13.862
40725SOL    HW124072   4.280   0.747  13.956
40725SOL    HW224073   4.196   0.821  13.855
40726SOL     OW24074  10.279   4.435   7.215
40726SOL    HW124075  10.230   4.501   7.264
40726SOL    HW224076  10.345   4.486   7.167
40727SOL     OW24077  11.744   7.777   7.831
40727SOL    HW124078  11.682   7.759   7.902
40727SOL    HW224079  11.768   7.691   7.798
40728SOL     OW24080   0.179   6.718   9.253
40728SOL    HW124081   0.220   6.707   9.167
40728SOL    HW224082   0.160   6.812   9.259
40729SOL     OW24083   1.501   9.855   1.462
40729SOL    HW124084   1.584   9.872   1.418
40729SOL    HW224085   1.482   9.936   1.510
40730SOL     OW24086  11.111   2.388  12.574
40730SOL    HW124087  11.071   2.458  12.523
40730SOL    HW224088  11.037   2.347  12.620
40731SOL     OW24089   3.078   5.471   6.678
40731SOL    HW124090   3.051   5.391   6.633
40731SOL    HW224091   3.173   5.473   6.668
40732SOL     OW24092   0.841   4.157   3.318
40732SOL    HW124093   0.886   4.078   3.349
40732SOL    HW224094   0.868   4.225   3.378
40733SOL     OW24095  12.480   8.102  12.352
40733SOL    HW124096  12.502   8.163  12.422
40733SOL    HW224097  12.525   8.021  12.376
40734SOL     OW24098   3.847   9.630  12.957
40734SOL    HW124099   3.881   9.673  12.878
40734SOL    HW224100   3.843   9.537  12.933
40735SOL     OW24101   6.651   8.461  11.376
40735SOL    HW124102   6.732   8.417  11.401
40735SOL    HW224103   6.598   8.393  11.335
40736SOL     OW24104  11.489   3.920  12.243
40736SOL    HW124105  11.400   3.952  12.250
40736SOL    HW224106  11.520   3.951  12.158
40737SOL     OW24107   8.219   1.234  10.467
40737SOL    HW124108   8.152   1.177  10.430
40737SOL    HW224109   8.191   1.322  10.445
40738SOL     OW24110   0.240  12.588   4.035
40738SOL    HW124111   0.318  12.549   4.075
40738SOL    HW224112   0.211  12.654   4.099
40739SOL     OW24113  11.151   9.710   9.553
40739SOL    HW124114  11.138   9.690   9.646
40739SOL    HW224115  11.239   9.678   9.534
40740SOL     OW24116   1.694   6.148   8.409
40740SOL    HW124117   1.692   6.053   8.397
40740SOL    HW224118   1.604   6.171   8.432
40741SOL     OW24119   1.014   1.259   1.689
40741SOL    HW124120   0.925   1.254   1.654
40741SOL    HW224121   1.045   1.169   1.689
40742SOL     OW24122   1.528   8.850   4.157
40742SOL    HW124123   1.539   8.812   4.244
40742SOL    HW224124   1.453   8.908   4.165
40743SOL     OW24125   2.093  13.279   0.164
40743SOL    HW124126   2.075  13.252   0.074
40743SOL    HW224127   2.016  13.251   0.213
40744SOL     OW24128  12.390  13.318   0.600
40744SOL    HW124129  12.433  13.386   0.651
40744SOL    HW224130  12.296  13.339   0.607
40745SOL     OW24131   4.648   9.888   6.314
40745SOL    HW124132   4.675   9.852   6.230
40745SOL    HW224133   4.690   9.974   6.318
40746SOL     OW24134   3.612   8.401  10.793
40746SOL    HW124135   3.633   8.466  10.726
40746SOL    HW224136   3.679   8.333  10.781
40747SOL     OW24137   7.727   0.792   9.441
40747SOL    HW124138   7.668   0.865   9.464
40747SOL    HW224139   7.698   0.720   9.497
40748SOL     OW24140   4.962   2.601   5.668
40748SOL    HW124141   5.004   2.674   5.623
40748SOL    HW224142   4.922   2.549   5.598
40749SOL     OW24143  12.562   9.667  11.046
40749SOL    HW124144  12.584   9.677  10.954
40749SOL    HW224145  12.517   9.748  11.069
40750SOL     OW24146   5.382  12.839   3.494
40750SOL    HW124147   5.392  12.784   3.416
40750SOL    HW224148   5.389  12.778   3.567
40751SOL     OW24149   7.233  13.372   7.700
40751SOL    HW124150   7.202  13.284   7.722
40751SOL    HW224151   7.230  13.420   7.783
40752SOL     OW24152   1.969   4.864  13.150
40752SOL    HW124153   1.890   4.828  13.110
40752SOL    HW224154   2.006   4.921  13.083
40753SOL     OW24155   2.137  12.045   7.710
40753SOL    HW124156   2.219  12.084   7.681
40753SOL    HW224157   2.070  12.109   7.684
40754SOL     OW24158   6.920   3.594   5.787
40754SOL    HW124159   6.957   3.679   5.809
40754SOL    HW224160   6.839   3.589   5.837
40755SOL     OW24161   6.086  12.317  14.268
40755SOL    HW124162   6.013  12.374  14.241
40755SOL    HW224163   6.122  12.361  14.345
40756SOL     OW24164  13.735   4.506   9.009
40756SOL    HW124165  13.685   4.428   9.031
40756SOL    HW224166  13.760   4.543   9.094
40757SOL     OW24167   5.800   7.933   5.403
40757SOL    HW124168   5.881   7.903   5.444
40757SOL    HW224169   5.734   7.868   5.428
40758SOL     OW24170   0.410  13.018   7.566
40758SOL    HW124171   0.351  12.943   7.576
40758SOL    HW224172   0.485  12.997   7.622
40759SOL     OW24173  12.747   6.922   1.119
40759SOL    HW124174  12.786   6.922   1.207
40759SOL    HW224175  12.823   6.922   1.060
40760SOL     OW24176  12.181   5.410   5.727
40760SOL    HW124177  12.192   5.408   5.632
40760SOL    HW224178  12.225   5.331   5.758
40761SOL     OW24179   5.445   4.904  11.985
40761SOL    HW124180   5.408   4.937  11.903
40761SOL    HW224181   5.384   4.835  12.012
40762SOL     OW24182   3.324   4.076  12.026
40762SOL    HW124183   3.376   4.117  12.095
40762SOL    HW224184   3.385   4.066  11.953
40763SOL     OW24185   5.552   2.018   8.599
40763SOL    HW124186   5.543   2.077   8.674
40763SOL    HW224187   5.462   1.995   8.575
40764SOL     OW24188   2.431  12.477   4.123
40764SOL    HW124189   2.380  12.557   4.110
40764SOL    HW224190   2.372  12.417   4.168
40765SOL     OW24191   6.644   8.538   8.780
40765SOL    HW124192   6.671   8.624   8.748
40765SOL    HW224193   6.720   8.482   8.766
40766SOL     OW24194   2.266   5.337   5.394
40766SOL    HW124195   2.170   5.342   5.398
40766SOL    HW224196   2.296   5.401   5.458
40767SOL     OW24197   6.153   2.677  11.024
40767SOL    HW124198   6.178   2.672  10.932
40767SOL    HW224199   6.145   2.771  11.042
40768SOL     OW24200  12.694   3.880   1.267
40768SOL    HW124201  12.738   3.828   1.334
40768SOL    HW224202  12.601   3.869   1.285
40769SOL     OW24203  13.794   1.248  12.162
40769SOL    HW124204  13.826   1.160  12.144
40769SOL    HW224205  13.718   1.257  12.105
40770SOL     OW24206   5.504  10.027   3.621
40770SOL    HW124207   5.467  10.101   3.573
40770SOL    HW224208   5.589  10.011   3.579
40771SOL     OW24209  14.059  14.711  10.513
40771SOL    HW124210  14.141  14.758  10.528
40771SOL    HW224211  14.024  14.696  10.601
40772SOL     OW24212  10.547  10.764  12.319
40772SOL    HW124213  10.524  10.810  12.238
40772SOL    HW224214  10.577  10.834  12.378
40773SOL     OW24215   0.482  10.475   2.779
40773SOL    HW124216   0.405  10.449   2.729
40773SOL    HW224217   0.472  10.570   2.792
40774SOL     OW24218   3.215   2.378  12.101
40774SOL    HW124219   3.126   2.394  12.131
40774SOL    HW224220   3.206   2.317  12.028
40775SOL     OW24221   1.480   3.637  13.758
40775SOL    HW124222   1.474   3.730  13.779
40775SOL    HW224223   1.401   3.619  13.706
40776SOL     OW24224   3.651   1.350  13.684
40776SOL    HW124225   3.639   1.257  13.699
40776SOL    HW224226   3.627   1.391  13.768
40777SOL     OW24227   4.515   9.397   3.565
40777SOL    HW124228   4.471   9.421   3.647
40777SOL    HW224229   4.457   9.430   3.496
40778SOL     OW24230   9.291   8.072   9.038
40778SOL    HW124231   9.203   8.074   9.077
40778SOL    HW224232   9.349   8.100   9.109
40779SOL     OW24233   8.200   3.654  12.201
40779SOL    HW124234   8.251   3.703  12.136
40779SOL    HW224235   8.157   3.722  12.253
40780SOL     OW24236  13.538  12.557  13.796
40780SOL    HW124237  13.596  12.547  13.720
40780SOL    HW224238  13.503  12.469  13.811
40781SOL     OW24239  10.163  12.712   7.464
40781SOL    HW124240  10.109  12.651   7.513
40781SOL    HW224241  10.195  12.661   7.390
40782SOL     OW24242   6.657   3.033   1.120
40782SOL    HW124243   6.663   3.118   1.076
40782SOL    HW224244   6.740   2.990   1.101
40783SOL     OW24245  10.459   2.281   7.821
40783SOL    HW124246  10.364   2.292   7.817
40783SOL    HW224247  10.486   2.274   7.729
40784SOL     OW24248   0.586   8.698   6.273
40784SOL    HW124249   0.611   8.697   6.365
40784SOL    HW224250   0.647   8.637   6.231
40785SOL     OW24251   0.165   5.407  11.314
40785SOL    HW124252   0.210   5.461  11.250
40785SOL    HW224253   0.088   5.374  11.268
40786SOL     OW24254   7.459  12.492   2.059
40786SOL    HW124255   7.473  12.542   1.978
40786SOL    HW224256   7.365  12.473   2.060
40787SOL     OW24257  11.591   3.992  11.362
40787SOL    HW124258  11.599   4.070  11.307
40787SOL    HW224259  11.681   3.958  11.369
40788SOL     OW24260  10.794   5.103  11.490
40788SOL    HW124261  10.761   5.060  11.568
40788SOL    HW224262  10.863   5.162  11.521
40789SOL     OW24263   8.217   9.341   1.064
40789SOL    HW124264   8.203   9.267   1.006
40789SOL    HW224265   8.307   9.368   1.048
40790SOL     OW24266  12.980   7.954   2.962
40790SOL    HW124267  12.968   7.876   2.907
40790SOL    HW224268  13.074   7.958   2.979
40791SOL     OW24269   2.187  14.279   1.045
40791SOL    HW124270   2.205  14.242   0.959
40791SOL    HW224271   2.117  14.225   1.081
40792SOL     OW24272   4.162   3.737  14.512
40792SOL    HW124273   4.122   3.818  14.481
40792SOL    HW224274   4.162   3.747  14.608
40793SOL     OW24275   8.712   8.081  13.853
40793SOL    HW124276   8.677   8.109  13.938
40793SOL    HW224277   8.744   8.162  13.813
40794SOL     OW24278   8.906   2.137   6.229
40794SOL    HW124279   8.978   2.134   6.166
40794SOL    HW224280   8.857   2.216   6.206
40795SOL     OW24281   3.353   3.679   7.833
40795SOL    HW124282   3.347   3.634   7.918
40795SOL    HW224283   3.265   3.673   7.797
40796SOL     OW24284   2.685   2.680   9.353
40796SOL    HW124285   2.734   2.640   9.281
40796SOL    HW224286   2.724   2.644   9.432
40797SOL     OW24287   5.763  10.015   9.559
40797SOL    HW124288   5.838  10.067   9.589
40797SOL    HW224289   5.798   9.927   9.549
40798SOL     OW24290   9.084   7.522  14.234
40798SOL    HW124291   9.015   7.457  14.247
40798SOL    HW224292   9.097   7.526  14.139
40799SOL     OW24293   0.515   7.956  14.347
40799SOL    HW124294   0.503   7.932  14.255
40799SOL    HW224295   0.556   7.879  14.387
40800SOL     OW24296   8.998   2.097   2.848
40800SOL    HW124297   8.987   2.126   2.757
40800SOL    HW224298   8.908   2.091   2.882
40801SOL     OW24299   0.715   1.508   8.699
40801SOL    HW124300   0.712   1.496   8.794
40801SOL    HW224301   0.729   1.419   8.665
40802SOL     OW24302   1.401   5.659  10.254
40802SOL    HW124303   1.464   5.686  10.321
40802SOL    HW224304   1.434   5.699  10.173
40803SOL     OW24305  13.497  12.298  14.318
40803SOL    HW124306  13.508  12.304  14.413
40803SOL    HW224307  13.436  12.370  14.297
40804SOL     OW24308  12.054  10.554   2.871
40804SOL    HW124309  12.083  10.589   2.787
40804SOL    HW224310  12.128  10.570   2.930
40805SOL     OW24311   5.085   6.995   1.828
40805SOL    HW124312   5.009   7.050   1.810
40805SOL    HW224313   5.150   7.023   1.763
40806SOL     OW24314   9.124  14.859   5.715
40806SOL    HW124315   9.048  14.830   5.664
40806SOL    HW224316   9.089   0.001   5.803
40807SOL     OW24317   1.519  10.609   5.114
40807SOL    HW124318   1.602  10.656   5.127
40807SOL    HW224319   1.476  10.612   5.199
40808SOL     OW24320   7.966   3.124   7.495
40808SOL    HW124321   7.985   3.135   7.588
40808SOL    HW224322   7.956   3.213   7.462
40809SOL     OW24323  14.682  11.172  14.261
40809SOL    HW124324  14.754  11.224  14.226
40809SOL    HW224325  14.697  11.084  14.227
40810SOL     OW24326   6.340   1.093   8.885
40810SOL    HW124327   6.394   1.027   8.842
40810SOL    HW224328   6.303   1.144   8.813
40811SOL     OW24329   5.155   3.929   0.795
40811SOL    HW124330   5.199   3.926   0.880
40811SOL    HW224331   5.072   3.883   0.809
40812SOL     OW24332   8.953   5.786  13.459
40812SOL    HW124333   9.008   5.708  13.458
40812SOL    HW224334   9.011   5.855  13.491
40813SOL     OW24335   6.441   7.767   5.676
40813SOL    HW124336   6.418   7.838   5.736
40813SOL    HW224337   6.358   7.741   5.637
40814SOL     OW24338   1.963   5.771   2.210
40814SOL    HW124339   2.025   5.833   2.248
40814SOL    HW224340   1.967   5.695   2.268
40815SOL     OW24341   6.463   8.906   1.589
40815SOL    HW124342   6.387   8.887   1.643
40815SOL    HW224343   6.488   8.995   1.612
40816SOL     OW24344  13.945   7.192   1.138
40816SOL    HW124345  13.883   7.156   1.203
40816SOL    HW224346  14.031   7.179   1.178
40817SOL     OW24347   8.277   6.790   6.751
40817SOL    HW124348   8.320   6.874   6.732
40817SOL    HW224349   8.278   6.784   6.846
40818SOL     OW24350   8.111   1.020   1.745
40818SOL    HW124351   8.061   0.968   1.682
40818SOL    HW224352   8.196   1.033   1.703
40819SOL     OW24353  12.393  12.602  12.622
40819SOL    HW124354  12.327  12.656  12.579
40819SOL    HW224355  12.437  12.660  12.683
40820SOL     OW24356   4.416   2.104   9.404
40820SOL    HW124357   4.495   2.142   9.367
40820SOL    HW224358   4.424   2.010   9.385
40821SOL     OW24359   0.927   9.797   0.779
40821SOL    HW124360   0.928   9.702   0.789
40821SOL    HW224361   0.864   9.827   0.845
40822SOL     OW24362   8.748   1.379  11.392
40822SOL    HW124363   8.664   1.424  11.389
40822SOL    HW224364   8.751   1.329  11.311
40823SOL     OW24365   4.965  10.959   0.920
40823SOL    HW124366   4.963  11.043   0.874
40823SOL    HW224367   5.051  10.923   0.900
40824SOL     OW24368   8.858   4.309  10.641
40824SOL    HW124369   8.766   4.333  10.632
40824SOL    HW224370   8.863   4.220  10.608
40825SOL     OW24371   8.823   9.901  11.457
40825SOL    HW124372   8.822   9.863  11.369
40825SOL    HW224373   8.916   9.912  11.477
40826SOL     OW24374   1.425   1.005   9.695
40826SOL    HW124375   1.414   0.936   9.630
40826SOL    HW224376   1.451   1.082   9.644
40827SOL     OW24377  14.682   3.626   2.043
40827SOL    HW124378  14.751   3.637   1.978
40827SOL    HW224379  14.713   3.675   2.120
40828SOL     OW24380  12.823  11.557  14.419
40828SOL    HW124381  12.773  11.588  14.495
40828SOL    HW224382  12.903  11.610  14.420
40829SOL     OW24383  10.733   5.237   7.124
40829SOL    HW124384  10.694   5.309   7.174
40829SOL    HW224385  10.683   5.235   7.043
40830SOL     OW24386   9.879   2.454   3.022
40830SOL    HW124387   9.928   2.487   2.947
40830SOL    HW224388   9.801   2.510   3.026
40831SOL     OW24389   3.621   7.801   9.104
40831SOL    HW124390   3.715   7.808   9.090
40831SOL    HW224391   3.587   7.888   9.083
40832SOL     OW24392   8.168   3.601   9.158
40832SOL    HW124393   8.171   3.654   9.078
40832SOL    HW224394   8.254   3.613   9.198
40833SOL     OW24395   3.175  12.162  13.346
40833SOL    HW124396   3.257  12.118  13.369
40833SOL    HW224397   3.176  12.242  13.399
40834SOL     OW24398  11.200  13.929   5.055
40834SOL    HW124399  11.223  13.992   4.986
40834SOL    HW224400  11.122  13.884   5.023
40835SOL     OW24401   2.108   6.406   4.068
40835SOL    HW124402   2.046   6.453   4.123
40835SOL    HW224403   2.194   6.431   4.102
40836SOL     OW24404   6.953  10.805  12.782
40836SOL    HW124405   7.018  10.769  12.843
40836SOL    HW224406   6.902  10.729  12.753
40837SOL     OW24407   2.182   1.497  12.993
40837SOL    HW124408   2.101   1.536  12.960
40837SOL    HW224409   2.208   1.435  12.925
40838SOL     OW24410   5.804   6.855  14.256
40838SOL    HW124411   5.750   6.780  14.278
40838SOL    HW224412   5.795   6.864  14.161
40839SOL     OW24413  10.535   3.558   3.729
40839SOL    HW124414  10.629   3.573   3.740
40839SOL    HW224415  10.506   3.629   3.672
40840SOL     OW24416   4.533   3.169   3.790
40840SOL    HW124417   4.525   3.129   3.877
40840SOL    HW224418   4.611   3.128   3.752
40841SOL     OW24419  13.751   8.712  14.845
40841SOL    HW124420  13.699   8.784   0.005
40841SOL    HW224421  13.744   8.721  14.750
40842SOL     OW24422   1.609  14.032   2.714
40842SOL    HW124423   1.543  14.059   2.650
40842SOL    HW224424   1.692  14.045   2.670
40843SOL     OW24425   5.232  10.285  11.132
40843SOL    HW124426   5.167  10.222  11.100
40843SOL    HW224427   5.243  10.262  11.225
40844SOL     OW24428   5.438   7.434  13.590
40844SOL    HW124429   5.462   7.348  13.556
40844SOL    HW224430   5.453   7.494  13.517
40845SOL     OW24431  12.668  13.010  13.621
40845SOL    HW124432  12.648  13.046  13.707
40845SOL    HW224433  12.642  13.079  13.559
40846SOL     OW24434   0.489   8.181   5.785
40846SOL    HW124435   0.462   8.270   5.810
40846SOL    HW224436   0.444   8.165   5.702
40847SOL     OW24437  10.320   9.324   1.966
40847SOL    HW124438  10.368   9.315   2.048
40847SOL    HW224439  10.272   9.406   1.975
40848SOL     OW24440   2.943   3.531   7.644
40848SOL    HW124441   2.896   3.573   7.716
40848SOL    HW224442   2.893   3.452   7.625
40849SOL     OW24443  10.413   5.877   6.239
40849SOL    HW124444  10.327   5.859   6.276
40849SOL    HW224445  10.409   5.968   6.212
40850SOL     OW24446   4.899   7.595   9.540
40850SOL    HW124447   4.985   7.561   9.563
40850SOL    HW224448   4.841   7.563   9.609
40851SOL     OW24449  10.562   1.252   5.540
40851SOL    HW124450  10.471   1.272   5.518
40851SOL    HW224451  10.563   1.158   5.555
40852SOL     OW24452   0.841   3.393   1.369
40852SOL    HW124453   0.917   3.441   1.335
40852SOL    HW224454   0.784   3.382   1.292
40853SOL     OW24455   3.856   4.450  12.333
40853SOL    HW124456   3.812   4.409  12.407
40853SOL    HW224457   3.839   4.544  12.344
40854SOL     OW24458  13.646  10.237   3.271
40854SOL    HW124459  13.719  10.252   3.331
40854SOL    HW224460  13.687  10.200   3.193
40855SOL     OW24461   9.531  13.409   6.633
40855SOL    HW124462   9.564  13.435   6.547
40855SOL    HW224463   9.436  13.411   6.623
40856SOL     OW24464   0.200   7.746   6.733
40856SOL    HW124465   0.123   7.699   6.701
40856SOL    HW224466   0.227   7.801   6.660
40857SOL     OW24467   8.626   3.615   9.422
40857SOL    HW124468   8.656   3.689   9.475
40857SOL    HW224469   8.666   3.539   9.462
40858SOL     OW24470   6.440   4.217  11.508
40858SOL    HW124471   6.459   4.223  11.602
40858SOL    HW224472   6.397   4.300  11.487
40859SOL     OW24473   2.416   6.370  12.802
40859SOL    HW124474   2.442   6.456  12.834
40859SOL    HW224475   2.370   6.387  12.720
40860SOL     OW24476  12.039   1.785   1.986
40860SOL    HW124477  11.945   1.797   1.971
40860SOL    HW224478  12.053   1.691   1.980
40861SOL     OW24479  11.771  12.371   5.254
40861SOL    HW124480  11.818  12.350   5.335
40861SOL    HW224481  11.684  12.333   5.267
40862SOL     OW24482   0.383   3.651   7.245
40862SOL    HW124483   0.370   3.661   7.150
40862SOL    HW224484   0.299   3.619   7.277
40863SOL     OW24485   4.607  13.013  12.786
40863SOL    HW124486   4.599  12.944  12.719
40863SOL    HW224487   4.537  12.995  12.848
40864SOL     OW24488   2.401   8.108  11.147
40864SOL    HW124489   2.455   8.074  11.077
40864SOL    HW224490   2.329   8.153  11.102
40865SOL     OW24491  11.709   7.586   4.466
40865SOL    HW124492  11.740   7.506   4.424
40865SOL    HW224493  11.632   7.559   4.515
40866SOL     OW24494   6.441   2.875   0.374
40866SOL    HW124495   6.357   2.918   0.361
40866SOL    HW224496   6.425   2.811   0.443
40867SOL     OW24497   0.322   0.208   9.267
40867SOL    HW124498   0.291   0.189   9.356
40867SOL    HW224499   0.262   0.160   9.210
40868SOL     OW24500   7.045  11.480  13.271
40868SOL    HW124501   7.091  11.545  13.218
40868SOL    HW224502   7.042  11.517  13.359
40869SOL     OW24503   9.021  13.886   2.701
40869SOL    HW124504   9.004  13.816   2.637
40869SOL    HW224505   8.985  13.965   2.661
40870SOL     OW24506   5.689   2.292   2.362
40870SOL    HW124507   5.600   2.272   2.392
40870SOL    HW224508   5.696   2.387   2.372
40871SOL     OW24509   2.569   3.572  14.116
40871SOL    HW124510   2.487   3.621  14.110
40871SOL    HW224511   2.548   3.485  14.084
40872SOL     OW24512   6.382   2.295   0.574
40872SOL    HW124513   6.359   2.349   0.499
40872SOL    HW224514   6.403   2.209   0.536
40873SOL     OW24515   0.897   4.446   5.511
40873SOL    HW124516   0.985   4.408   5.509
40873SOL    HW224517   0.871   4.441   5.603
40874SOL     OW24518   0.464   7.210   7.212
40874SOL    HW124519   0.394   7.269   7.240
40874SOL    HW224520   0.482   7.155   7.288
40875SOL     OW24521  12.366   6.455  13.086
40875SOL    HW124522  12.292   6.490  13.136
40875SOL    HW224523  12.334   6.449  12.996
40876SOL     OW24524   3.017   2.269   3.510
40876SOL    HW124525   3.065   2.223   3.579
40876SOL    HW224526   2.976   2.343   3.554
40877SOL     OW24527   0.363   1.551   5.458
40877SOL    HW124528   0.378   1.646   5.456
40877SOL    HW224529   0.306   1.538   5.534
40878SOL     OW24530  11.437  13.375   4.194
40878SOL    HW124531  11.420  13.347   4.104
40878SOL    HW224532  11.531  13.358   4.206
40879SOL     OW24533  13.643   7.084   9.784
40879SOL    HW124534  13.714   7.138   9.748
40879SOL    HW224535  13.582   7.148   9.821
40880SOL     OW24536   5.485   5.268   9.668
40880SOL    HW124537   5.509   5.361   9.674
40880SOL    HW224538   5.564   5.221   9.697
40881SOL     OW24539   3.105   6.385   5.677
40881SOL    HW124540   3.014   6.379   5.646
40881SOL    HW224541   3.102   6.455   5.743
40882SOL     OW24542  11.267   3.621  13.676
40882SOL    HW124543  11.362   3.612  13.685
40882SOL    HW224544  11.248   3.708  13.710
40883SOL     OW24545   6.612   3.314   8.402
40883SOL    HW124546   6.691   3.324   8.349
40883SOL    HW224547   6.605   3.219   8.418
40884SOL     OW24548  11.005  10.364   9.724
40884SOL    HW124549  10.960  10.371   9.809
40884SOL    HW224550  11.095  10.391   9.742
40885SOL     OW24551   6.459   8.477  12.079
40885SOL    HW124552   6.398   8.494  12.150
40885SOL    HW224553   6.510   8.402  12.109
40886SOL     OW24554   7.276   7.788   9.802
40886SOL    HW124555   7.341   7.838   9.849
40886SOL    HW224556   7.296   7.803   9.709
40887SOL     OW24557   7.041   1.230   7.206
40887SOL    HW124558   6.983   1.157   7.187
40887SOL    HW224559   7.069   1.216   7.297
40888SOL     OW24560  10.763   7.082  13.211
40888SOL    HW124561  10.685   7.057  13.162
40888SOL    HW224562  10.729   7.129  13.287
40889SOL     OW24563   7.458   0.547   1.416
40889SOL    HW124564   7.536   0.575   1.368
40889SOL    HW224565   7.388   0.604   1.384
40890SOL     OW24566   2.209   0.683   6.239
40890SOL    HW124567   2.136   0.742   6.218
40890SOL    HW224568   2.174   0.595   6.222
40891SOL     OW24569   8.244  12.872   4.451
40891SOL    HW124570   8.332  12.874   4.489
40891SOL    HW224571   8.230  12.781   4.425
40892SOL     OW24572   7.153   1.167  13.400
40892SOL    HW124573   7.216   1.199  13.336
40892SOL    HW224574   7.109   1.094  13.356
40893SOL     OW24575   8.623   2.145   1.311
40893SOL    HW124576   8.649   2.229   1.272
40893SOL    HW224577   8.638   2.081   1.242
40894SOL     OW24578   8.086  12.717   3.190
40894SOL    HW124579   8.040  12.795   3.219
40894SOL    HW224580   8.084  12.722   3.094
40895SOL     OW24581  10.263  14.321  13.156
40895SOL    HW124582  10.202  14.357  13.220
40895SOL    HW224583  10.328  14.390  13.143
40896SOL     OW24584   5.923  11.082   4.805
40896SOL    HW124585   5.844  11.059   4.854
40896SOL    HW224586   5.991  11.089   4.871
40897SOL     OW24587   9.778   5.660   8.516
40897SOL    HW124588   9.840   5.718   8.560
40897SOL    HW224589   9.833   5.598   8.468
40898SOL     OW24590  13.367   2.956   5.209
40898SOL    HW124591  13.410   2.871   5.198
40898SOL    HW224592  13.344   2.983   5.120
40899SOL     OW24593   6.765  10.005  12.511
40899SOL    HW124594   6.718   9.922  12.501
40899SOL    HW224595   6.700  10.065  12.547
40900SOL     OW24596   1.080   7.412   3.875
40900SOL    HW124597   1.150   7.351   3.848
40900SOL    HW224598   1.100   7.494   3.830
40901SOL     OW24599  10.680   6.690   0.928
40901SOL    HW124600  10.656   6.605   0.890
40901SOL    HW224601  10.596   6.730   0.952
40902SOL     OW24602   0.766   9.105   3.206
40902SOL    HW124603   0.846   9.158   3.202
40902SOL    HW224604   0.769   9.064   3.293
40903SOL     OW24605   8.192  14.015  11.227
40903SOL    HW124606   8.262  13.949  11.235
40903SOL    HW224607   8.165  14.009  11.135
40904SOL     OW24608   6.973  10.461   7.435
40904SOL    HW124609   6.935  10.548   7.436
40904SOL    HW224610   7.065  10.475   7.416
40905SOL     OW24611   1.196   6.012   5.142
40905SOL    HW124612   1.144   6.003   5.062
40905SOL    HW224613   1.135   5.992   5.212
40906SOL     OW24614   0.304   3.119   6.277
40906SOL    HW124615   0.334   3.029   6.273
40906SOL    HW224616   0.286   3.135   6.369
40907SOL     OW24617  11.930  13.560  12.827
40907SOL    HW124618  11.999  13.496  12.847
40907SOL    HW224619  11.965  13.643  12.860
40908SOL     OW24620   6.363   1.149   3.466
40908SOL    HW124621   6.432   1.190   3.518
40908SOL    HW224622   6.311   1.101   3.530
40909SOL     OW24623  13.148   0.222  11.210
40909SOL    HW124624  13.116   0.175  11.134
40909SOL    HW224625  13.236   0.252  11.185
40910SOL     OW24626   7.916   1.640   5.948
40910SOL    HW124627   7.989   1.633   5.887
40910SOL    HW224628   7.888   1.731   5.940
40911SOL     OW24629  12.526   9.821   4.537
40911SOL    HW124630  12.574   9.805   4.618
40911SOL    HW224631  12.445   9.771   4.547
40912SOL     OW24632   4.122   1.504  14.523
40912SOL    HW124633   4.192   1.560  14.556
40912SOL    HW224634   4.043   1.534  14.568
40913SOL     OW24635  10.819   5.195   1.615
40913SOL    HW124636  10.730   5.178   1.583
40913SOL    HW224637  10.808   5.266   1.679
40914SOL     OW24638  13.633  14.869   5.253
40914SOL    HW124639  13.562  14.810   5.279
40914SOL    HW224640  13.590   0.062   5.202
40915SOL     OW24641   0.898  12.343   1.492
40915SOL    HW124642   0.823  12.319   1.438
40915SOL    HW224643   0.933  12.259   1.523
40916SOL     OW24644   5.096  11.764   6.916
40916SOL    HW124645   5.134  11.692   6.866
40916SOL    HW224646   5.105  11.736   7.008
40917SOL     OW24647   8.118  11.460   3.646
40917SOL    HW124648   8.085  11.371   3.660
40917SOL    HW224649   8.212  11.449   3.633
40918SOL     OW24650   1.129  14.406   8.277
40918SOL    HW124651   1.164  14.460   8.206
40918SOL    HW224652   1.092  14.330   8.232
40919SOL     OW24653   9.320   7.629   6.324
40919SOL    HW124654   9.289   7.628   6.234
40919SOL    HW224655   9.285   7.549   6.363
40920SOL     OW24656   5.078   5.996   9.887
40920SOL    HW124657   5.007   6.060   9.889
40920SOL    HW224658   5.037   5.914   9.860
40921SOL     OW24659   6.752  13.801  12.709
40921SOL    HW124660   6.684  13.865  12.731
40921SOL    HW224661   6.827  13.853  12.681
40922SOL     OW24662  10.161   8.994  11.880
40922SOL    HW124663  10.090   8.945  11.837
40922SOL    HW224664  10.128   9.084  11.885
40923SOL     OW24665  10.038   3.102   3.591
40923SOL    HW124666  10.130   3.127   3.601
40923SOL    HW224667  10.041   3.012   3.557
40924SOL     OW24668   1.368   7.537  14.094
40924SOL    HW124669   1.454   7.541  14.137
40924SOL    HW224670   1.376   7.596  14.019
40925SOL     OW24671   8.422   0.387   5.238
40925SOL    HW124672   8.462   0.307   5.202
40925SOL    HW224673   8.344   0.355   5.284
40926SOL     OW24674   9.116   1.275   5.173
40926SOL    HW124675   9.136   1.320   5.090
40926SOL    HW224676   9.054   1.207   5.149
40927SOL     OW24677   4.704   7.247   6.020
40927SOL    HW124678   4.691   7.342   6.011
40927SOL    HW224679   4.617   7.210   6.005
40928SOL     OW24680  14.283   0.565   9.918
40928SOL    HW124681  14.333   0.645   9.901
40928SOL    HW224682  14.348   0.501   9.946
40929SOL     OW24683   6.045   7.026   3.995
40929SOL    HW124684   6.029   6.963   4.066
40929SOL    HW224685   6.132   7.062   4.014
40930SOL     OW24686   0.566   1.557   8.362
40930SOL    HW124687   0.571   1.631   8.300
40930SOL    HW224688   0.488   1.509   8.335
40931SOL     OW24689  13.014  13.932   2.435
40931SOL    HW124690  13.061  13.884   2.502
40931SOL    HW224691  12.977  14.007   2.481
40932SOL     OW24692  10.138   7.581   7.668
40932SOL    HW124693  10.108   7.589   7.577
40932SOL    HW224694  10.214   7.524   7.664
40933SOL     OW24695  12.340   1.471   0.655
40933SOL    HW124696  12.351   1.420   0.736
40933SOL    HW224697  12.393   1.549   0.669
40934SOL     OW24698   9.818   5.037   3.221
40934SOL    HW124699   9.813   4.978   3.146
40934SOL    HW224700   9.810   4.981   3.298
40935SOL     OW24701   4.872   5.911   0.611
40935SOL    HW124702   4.962   5.901   0.642
40935SOL    HW224703   4.835   5.823   0.616
40936SOL     OW24704   7.622  10.219   8.724
40936SOL    HW124705   7.681  10.294   8.722
40936SOL    HW224706   7.674  10.147   8.690
40937SOL     OW24707   1.136   5.722   5.342
40937SOL    HW124708   1.091   5.771   5.273
40937SOL    HW224709   1.193   5.786   5.384
40938SOL     OW24710   1.707   2.312   2.476
40938SOL    HW124711   1.771   2.301   2.546
40938SOL    HW224712   1.682   2.405   2.480
40939SOL     OW24713  13.176   3.106   7.086
40939SOL    HW124714  13.216   3.165   7.021
40939SOL    HW224715  13.250   3.055   7.120
40940SOL     OW24716   9.999   7.239   8.689
40940SOL    HW124717  10.086   7.240   8.650
40940SOL    HW224718   9.940   7.261   8.617
40941SOL     OW24719  14.010   1.603  14.449
40941SOL    HW124720  13.957   1.609  14.370
40941SOL    HW224721  14.098   1.583  14.418
40942SOL     OW24722   4.452  12.838  11.137
40942SOL    HW124723   4.392  12.787  11.192
40942SOL    HW224724   4.538  12.822  11.175
40943SOL     OW24725   7.797   3.877   1.628
40943SOL    HW124726   7.761   3.964   1.614
40943SOL    HW224727   7.880   3.893   1.674
40944SOL     OW24728   7.156  13.619   1.190
40944SOL    HW124729   7.094  13.672   1.240
40944SOL    HW224730   7.219  13.588   1.255
40945SOL     OW24731   9.099   2.455  11.600
40945SOL    HW124732   9.170   2.517  11.618
40945SOL    HW224733   9.136   2.369  11.621
40946SOL     OW24734   2.734   9.059  12.617
40946SOL    HW124735   2.649   9.104  12.626
40946SOL    HW224736   2.713   8.974  12.579
40947SOL     OW24737  10.960  12.450  12.547
40947SOL    HW124738  11.008  12.402  12.614
40947SOL    HW224739  10.999  12.538  12.547
40948SOL     OW24740   5.908   7.974   6.708
40948SOL    HW124741   5.982   7.916   6.725
40948SOL    HW224742   5.920   8.046   6.770
40949SOL     OW24743  10.268  12.771  11.752
40949SOL    HW124744  10.192  12.748  11.805
40949SOL    HW224745  10.342  12.766  11.813
40950SOL     OW24746  14.172  14.075   1.521
40950SOL    HW124747  14.224  14.003   1.486
40950SOL    HW224748  14.194  14.079   1.614
40951SOL     OW24749   2.929  11.994   0.024
40951SOL    HW124750   3.000  12.050  14.865
40951SOL    HW224751   2.852  12.051   0.026
40952SOL     OW24752   2.227   0.618  12.920
40952SOL    HW124753   2.168   0.653  12.853
40952SOL    HW224754   2.239   0.690  12.982
40953SOL     OW24755  13.616   9.257   8.512
40953SOL    HW124756  13.544   9.212   8.469
40953SOL    HW224757  13.631   9.336   8.459
40954SOL     OW24758  10.994  10.294   5.399
40954SOL    HW124759  10.911  10.256   5.370
40954SOL    HW224760  11.058  10.224   5.384
40955SOL     OW24761   2.813   5.788  12.675
40955SOL    HW124762   2.891   5.783  12.730
40955SOL    HW224763   2.747   5.737  12.722
40956SOL     OW24764   3.520   5.307  13.791
40956SOL    HW124765   3.448   5.282  13.732
40956SOL    HW224766   3.538   5.228  13.841
40957SOL     OW24767  11.267  12.359  10.736
40957SOL    HW124768  11.307  12.275  10.713
40957SOL    HW224769  11.211  12.339  10.811
40958SOL     OW24770   6.490   7.883  10.624
40958SOL    HW124771   6.430   7.952  10.652
40958SOL    HW224772   6.516   7.907  10.536
40959SOL     OW24773   8.863  10.088   6.255
40959SOL    HW124774   8.788  10.144   6.240
40959SOL    HW224775   8.827  10.008   6.292
40960SOL     OW24776   9.574   3.815   1.226
40960SOL    HW124777   9.580   3.886   1.162
40960SOL    HW224778   9.522   3.748   1.182
40961SOL     OW24779   3.380  14.846  13.182
40961SOL    HW124780   3.423  14.834  13.266
40961SOL    HW224781   3.452  14.862  13.121
40962SOL     OW24782   2.247   6.148   2.404
40962SOL    HW124783   2.200   6.216   2.451
40962SOL    HW224784   2.272   6.085   2.471
40963SOL     OW24785   4.533  13.494  14.864
40963SOL    HW124786   4.548  13.587   0.004
40963SOL    HW224787   4.579  13.475  14.782
40964SOL     OW24788   7.155   8.412  14.789
40964SOL    HW124789   7.204   8.443  14.712
40964SOL    HW224790   7.191   8.326  14.807
40965SOL     OW24791   4.812  11.890   9.094
40965SOL    HW124792   4.877  11.880   9.163
40965SOL    HW224793   4.849  11.844   9.019
40966SOL     OW24794   4.403   0.446   1.507
40966SOL    HW124795   4.366   0.373   1.458
40966SOL    HW224796   4.449   0.499   1.442
40967SOL     OW24797  13.948   8.986   9.511
40967SOL    HW124798  13.972   9.014   9.423
40967SOL    HW224799  13.875   8.926   9.498
40968SOL     OW24800  14.525  12.249  13.510
40968SOL    HW124801  14.462  12.276  13.443
40968SOL    HW224802  14.603  12.223  13.461
40969SOL     OW24803   1.835   5.651   8.450
40969SOL    HW124804   1.760   5.703   8.423
40969SOL    HW224805   1.907   5.682   8.395
40970SOL     OW24806  13.962   6.931  14.082
40970SOL    HW124807  13.904   6.993  14.126
40970SOL    HW224808  13.927   6.925  13.993
40971SOL     OW24809   6.149   9.523  13.254
40971SOL    HW124810   6.069   9.474  13.275
40971SOL    HW224811   6.216   9.486  13.312
40972SOL     OW24812   7.399   0.286   0.113
40972SOL    HW124813   7.445   0.227   0.174
40972SOL    HW224814   7.324   0.235   0.083
40973SOL     OW24815   2.394   6.377   0.848
40973SOL    HW124816   2.377   6.470   0.833
40973SOL    HW224817   2.488   6.367   0.835
40974SOL     OW24818   2.781   6.694   7.568
40974SOL    HW124819   2.776   6.641   7.489
40974SOL    HW224820   2.751   6.781   7.541
40975SOL     OW24821  12.706   8.459  14.521
40975SOL    HW124822  12.678   8.372  14.551
40975SOL    HW224823  12.679   8.462  14.429
40976SOL     OW24824   3.951  10.227   5.352
40976SOL    HW124825   4.003  10.304   5.372
40976SOL    HW224826   3.886  10.256   5.288
40977SOL     OW24827   6.847   0.317   3.017
40977SOL    HW124828   6.786   0.283   2.952
40977SOL    HW224829   6.822   0.409   3.027
40978SOL     OW24830   8.596   9.087   6.000
40978SOL    HW124831   8.617   9.066   5.909
40978SOL    HW224832   8.503   9.069   6.008
40979SOL     OW24833   7.839   7.039   1.806
40979SOL    HW124834   7.928   7.028   1.773
40979SOL    HW224835   7.846   7.022   1.900
40980SOL     OW24836   2.002  12.333   1.177
40980SOL    HW124837   1.925  12.357   1.228
40980SOL    HW224838   2.058  12.411   1.179
40981SOL     OW24839   4.439   5.592   6.483
40981SOL    HW124840   4.532   5.610   6.473
40981SOL    HW224841   4.400   5.622   6.401
40982SOL     OW24842  12.146   6.413   5.934
40982SOL    HW124843  12.063   6.377   5.900
40982SOL    HW224844  12.123   6.446   6.021
40983SOL     OW24845   2.460  13.797   9.391
40983SOL    HW124846   2.528  13.857   9.363
40983SOL    HW224847   2.412  13.775   9.311
40984SOL     OW24848   7.234   3.388   0.132
40984SOL    HW124849   7.328   3.390   0.150
40984SOL    HW224850   7.223   3.450   0.060
40985SOL     OW24851   8.194   9.706   7.540
40985SOL    HW124852   8.214   9.747   7.455
40985SOL    HW224853   8.099   9.714   7.548
40986SOL     OW24854   7.644   7.855   1.802
40986SOL    HW124855   7.555   7.888   1.812
40986SOL    HW224856   7.698   7.934   1.799
40987SOL     OW24857   7.770   8.849   3.152
40987SOL    HW124858   7.684   8.838   3.192
40987SOL    HW224859   7.818   8.904   3.214
40988SOL     OW24860   4.557  11.922  12.299
40988SOL    HW124861   4.497  11.910  12.225
40988SOL    HW224862   4.591  12.011  12.287
40989SOL     OW24863   0.463   7.359   1.407
40989SOL    HW124864   0.426   7.416   1.474
40989SOL    HW224865   0.435   7.399   1.324
40990SOL     OW24866   2.662  10.565  10.426
40990SOL    HW124867   2.693  10.530  10.343
40990SOL    HW224868   2.682  10.496  10.490
40991SOL     OW24869  14.184   5.376   7.445
40991SOL    HW124870  14.180   5.347   7.536
40991SOL    HW224871  14.198   5.296   7.395
40992SOL     OW24872   4.822  12.494  13.867
40992SOL    HW124873   4.816  12.412  13.818
40992SOL    HW224874   4.823  12.562  13.799
40993SOL     OW24875  10.328   7.967   5.404
40993SOL    HW124876  10.285   7.887   5.375
40993SOL    HW224877  10.380   7.995   5.329
40994SOL     OW24878   0.016   4.967  13.460
40994SOL    HW124879  14.872   4.874  13.469
40994SOL    HW224880  14.826   5.010  13.516
40995SOL     OW24881  14.679   8.216   6.841
40995SOL    HW124882  14.692   8.304   6.879
40995SOL    HW224883  14.590   8.219   6.807
40996SOL     OW24884   2.350   0.437  10.380
40996SOL    HW124885   2.407   0.415  10.306
40996SOL    HW224886   2.282   0.370  10.378
40997SOL     OW24887   5.390  11.703   5.550
40997SOL    HW124888   5.470  11.744   5.581
40997SOL    HW224889   5.329  11.710   5.623
40998SOL     OW24890   5.132   4.751   1.653
40998SOL    HW124891   5.096   4.663   1.653
40998SOL    HW224892   5.148   4.771   1.746
40999SOL     OW24893   4.545  14.624   6.044
40999SOL    HW124894   4.576  14.676   5.970
40999SOL    HW224895   4.450  14.623   6.034
41000SOL     OW24896   9.045  10.183   2.164
41000SOL    HW124897   8.996  10.189   2.082
41000SOL    HW224898   9.137  10.188   2.138
41001SOL     OW24899   8.589   3.466  14.495
41001SOL    HW124900   8.543   3.533  14.445
41001SOL    HW224901   8.521   3.405  14.522
41002SOL     OW24902   1.980  14.186  10.272
41002SOL    HW124903   1.984  14.279  10.292
41002SOL    HW224904   1.900  14.156  10.314
41003SOL     OW24905   5.521   4.324  12.824
41003SOL    HW124906   5.467   4.403  12.819
41003SOL    HW224907   5.610   4.356  12.813
41004SOL     OW24908  14.111   2.596   7.306
41004SOL    HW124909  14.078   2.506   7.311
41004SOL    HW224910  14.135   2.607   7.214
41005SOL     OW24911   1.911  12.597   8.646
41005SOL    HW124912   1.993  12.600   8.595
41005SOL    HW224913   1.925  12.526   8.709
41006SOL     OW24914  12.265   9.011  14.712
41006SOL    HW124915  12.279   9.001  14.618
41006SOL    HW224916  12.268   8.922  14.747
41007SOL     OW24917   7.755   3.536   0.930
41007SOL    HW124918   7.765   3.524   1.025
41007SOL    HW224919   7.844   3.556   0.900
41008SOL     OW24920  13.468   3.226   4.541
41008SOL    HW124921  13.514   3.204   4.622
41008SOL    HW224922  13.469   3.321   4.538
41009SOL     OW24923   0.736   7.927   1.012
41009SOL    HW124924   0.827   7.928   0.984
41009SOL    HW224925   0.702   8.013   0.984
41010SOL     OW24926   5.747   3.594   0.024
41010SOL    HW124927   5.783   3.590   0.113
41010SOL    HW224928   5.659   3.628   0.035
41011SOL     OW24929   0.923   8.075  14.775
41011SOL    HW124930   0.917   7.991  14.730
41011SOL    HW224931   0.832   8.095  14.800
41012SOL     OW24932   7.978   9.735   5.511
41012SOL    HW124933   7.945   9.673   5.576
41012SOL    HW224934   8.042   9.788   5.559
41013SOL     OW24935  11.818   3.614   2.271
41013SOL    HW124936  11.800   3.523   2.248
41013SOL    HW224937  11.905   3.612   2.311
41014SOL     OW24938   1.065   7.143  11.626
41014SOL    HW124939   1.002   7.071  11.625
41014SOL    HW224940   1.119   7.128  11.548
41015SOL     OW24941  12.894  13.472   7.172
41015SOL    HW124942  12.815  13.517   7.140
41015SOL    HW224943  12.873  13.448   7.262
41016SOL     OW24944   5.882   7.677   2.197
41016SOL    HW124945   5.968   7.713   2.216
41016SOL    HW224946   5.852   7.641   2.281
41017SOL     OW24947   6.491   4.079   1.941
41017SOL    HW124948   6.469   4.045   1.854
41017SOL    HW224949   6.494   4.174   1.930
41018SOL     OW24950   8.135   4.155   2.525
41018SOL    HW124951   8.040   4.139   2.523
41018SOL    HW224952   8.174   4.069   2.510
41019SOL     OW24953   6.089  11.583   2.989
41019SOL    HW124954   6.176  11.623   2.983
41019SOL    HW224955   6.049  11.624   3.065
41020SOL     OW24956   0.692   4.374  14.594
41020SOL    HW124957   0.616   4.328  14.559
41020SOL    HW224958   0.656   4.449  14.641
41021SOL     OW24959  12.823   9.671   8.851
41021SOL    HW124960  12.843   9.754   8.895
41021SOL    HW224961  12.736   9.684   8.813
41022SOL     OW24962  14.580   0.775   3.853
41022SOL    HW124963  14.511   0.841   3.842
41022SOL    HW224964  14.644   0.797   3.786
41023SOL     OW24965   2.137   7.647  14.836
41023SOL    HW124966   2.224   7.609  14.824
41023SOL    HW224967   2.097   7.644  14.750
41024SOL     OW24968  13.627   0.410   3.942
41024SOL    HW124969  13.627   0.493   3.893
41024SOL    HW224970  13.652   0.435   4.031
41025SOL     OW24971   8.759   5.759   6.072
41025SOL    HW124972   8.705   5.838   6.065
41025SOL    HW224973   8.711   5.703   6.133
41026SOL     OW24974   4.017   1.153   2.811
41026SOL    HW124975   4.081   1.131   2.878
41026SOL    HW224976   4.055   1.227   2.764
41027SOL     OW24977   3.763   1.346  12.021
41027SOL    HW124978   3.807   1.344  11.937
41027SOL    HW224979   3.671   1.327  12.001
41028SOL     OW24980   8.119  13.169   9.280
41028SOL    HW124981   8.178  13.158   9.205
41028SOL    HW224982   8.178  13.171   9.356
41029SOL     OW24983  12.501   4.795  11.994
41029SOL    HW124984  12.431   4.840  12.040
41029SOL    HW224985  12.567   4.779  12.061
41030SOL     OW24986  11.138  13.377   6.461
41030SOL    HW124987  11.072  13.346   6.399
41030SOL    HW224988  11.142  13.309   6.528
41031SOL     OW24989  11.349   2.933   2.870
41031SOL    HW124990  11.426   2.885   2.900
41031SOL    HW224991  11.382   2.992   2.802
41032SOL     OW24992  11.909  11.255   7.723
41032SOL    HW124993  11.868  11.179   7.683
41032SOL    HW224994  11.868  11.262   7.809
41033SOL     OW24995   9.546   4.114   5.637
41033SOL    HW124996   9.606   4.125   5.563
41033SOL    HW224997   9.562   4.191   5.692
41034SOL     OW24998   5.375   2.749   9.290
41034SOL    HW124999   5.326   2.677   9.330
41034SOL    HW225000   5.309   2.818   9.278
41035SOL     OW25001   0.518   0.885   8.975
41035SOL    HW125002   0.484   0.936   9.049
41035SOL    HW225003   0.563   0.811   9.017
41036SOL     OW25004   0.901  11.924   3.877
41036SOL    HW125005   0.814  11.897   3.905
41036SOL    HW225006   0.889  11.958   3.789
41037SOL     OW25007  14.314   9.600   0.862
41037SOL    HW125008  14.300   9.695   0.864
41037SOL    HW225009  14.373   9.586   0.788
41038SOL     OW25010   1.674   8.314   2.860
41038SOL    HW125011   1.721   8.293   2.779
41038SOL    HW225012   1.737   8.366   2.911
41039SOL     OW25013  10.998   9.825  12.497
41039SOL    HW125014  10.909   9.821  12.464
41039SOL    HW225015  10.993   9.880  12.575
41040SOL     OW25016   7.635   8.433  14.390
41040SOL    HW125017   7.668   8.343  14.399
41040SOL    HW225018   7.712   8.488  14.399
41041SOL     OW25019   8.619   8.800  13.043
41041SOL    HW125020   8.536   8.767  13.007
41041SOL    HW225021   8.678   8.725  13.038
41042SOL     OW25022   3.504   8.627   4.162
41042SOL    HW125023   3.521   8.709   4.116
41042SOL    HW225024   3.588   8.581   4.162
41043SOL     OW25025  13.297   2.071  13.239
41043SOL    HW125026  13.293   2.048  13.146
41043SOL    HW225027  13.311   2.166  13.239
41044SOL     OW25028   5.830   7.256  11.652
41044SOL    HW125029   5.765   7.297  11.595
41044SOL    HW225030   5.784   7.182  11.692
41045SOL     OW25031  14.552   3.118   1.395
41045SOL    HW125032  14.469   3.074   1.379
41045SOL    HW225033  14.601   3.057   1.450
41046SOL     OW25034   5.263  11.826  13.562
41046SOL    HW125035   5.356  11.812  13.576
41046SOL    HW225036   5.256  11.855  13.471
41047SOL     OW25037   3.884   7.014   9.810
41047SOL    HW125038   3.817   7.077   9.838
41047SOL    HW225039   3.850   6.929   9.835
41048SOL     OW25040  13.649   6.833   5.603
41048SOL    HW125041  13.623   6.798   5.688
41048SOL    HW225042  13.568   6.838   5.553
41049SOL     OW25043   4.309  10.925   7.022
41049SOL    HW125044   4.282  10.882   6.941
41049SOL    HW225045   4.245  10.896   7.087
41050SOL     OW25046  14.485  11.576   1.731
41050SOL    HW125047  14.510  11.496   1.778
41050SOL    HW225048  14.460  11.546   1.644
41051SOL     OW25049   5.549  10.777  14.442
41051SOL    HW125050   5.506  10.755  14.360
41051SOL    HW225051   5.641  10.755  14.427
41052SOL     OW25052  14.424   1.878   6.656
41052SOL    HW125053  14.348   1.913   6.702
41052SOL    HW225054  14.498   1.898   6.714
41053SOL     OW25055   0.598   9.323   3.305
41053SOL    HW125056   0.672   9.335   3.364
41053SOL    HW225057   0.603   9.231   3.280
41054SOL     OW25058   2.054   7.859   4.452
41054SOL    HW125059   1.966   7.896   4.451
41054SOL    HW225060   2.102   7.908   4.385
41055SOL     OW25061   4.915  12.769  12.014
41055SOL    HW125062   4.917  12.865  12.018
41055SOL    HW225063   4.938  12.748  11.924
41056SOL     OW25064   0.188   1.258   7.866
41056SOL    HW125065   0.173   1.198   7.792
41056SOL    HW225066   0.122   1.327   7.854
41057SOL     OW25067  11.970   4.196   9.979
41057SOL    HW125068  11.992   4.257  10.050
41057SOL    HW225069  12.012   4.234   9.901
41058SOL     OW25070   3.848  12.405   3.812
41058SOL    HW125071   3.829  12.392   3.905
41058SOL    HW225072   3.908  12.480   3.810
41059SOL     OW25073   4.208  10.426   0.236
41059SOL    HW125074   4.180  10.386   0.154
41059SOL    HW225075   4.303  10.417   0.237
41060SOL     OW25076  11.453   8.443  13.451
41060SOL    HW125077  11.490   8.482  13.530
41060SOL    HW225078  11.404   8.515  13.410
41061SOL     OW25079  12.152   3.193   9.662
41061SOL    HW125080  12.208   3.136   9.715
41061SOL    HW225081  12.116   3.256   9.724
41062SOL     OW25082   0.658   7.894   7.700
41062SOL    HW125083   0.639   7.872   7.791
41062SOL    HW225084   0.659   7.810   7.654
41063SOL     OW25085  14.152   3.149   3.901
41063SOL    HW125086  14.214   3.102   3.957
41063SOL    HW225087  14.095   3.195   3.963
41064SOL     OW25088   9.388  14.635  14.870
41064SOL    HW125089   9.446  14.602   0.063
41064SOL    HW225090   9.395  14.571  14.799
41065SOL     OW25091   4.914   4.851  13.273
41065SOL    HW125092   4.929   4.921  13.209
41065SOL    HW225093   4.945   4.887  13.356
41066SOL     OW25094   2.551  13.422  13.713
41066SOL    HW125095   2.634  13.417  13.760
41066SOL    HW225096   2.559  13.500  13.658
41067SOL     OW25097   2.611   3.132   2.113
41067SOL    HW125098   2.695   3.171   2.089
41067SOL    HW225099   2.556   3.206   2.137
41068SOL     OW25100  13.685  14.772  14.847
41068SOL    HW125101  13.732  14.721   0.038
41068SOL    HW225102  13.622  14.824   0.022
41069SOL     OW25103   3.707  10.208   9.469
41069SOL    HW125104   3.759  10.127   9.466
41069SOL    HW225105   3.706  10.233   9.561
41070SOL     OW25106   3.733   1.050   9.002
41070SOL    HW125107   3.696   1.121   9.056
41070SOL    HW225108   3.827   1.065   9.004
41071SOL     OW25109   6.903   6.052   9.972
41071SOL    HW125110   6.938   6.015  10.053
41071SOL    HW225111   6.861   6.133   9.999
41072SOL     OW25112   2.322   5.527   8.204
41072SOL    HW125113   2.282   5.591   8.263
41072SOL    HW225114   2.312   5.443   8.249
41073SOL     OW25115   8.780   8.577  13.089
41073SOL    HW125116   8.791   8.517  13.016
41073SOL    HW225117   8.787   8.522  13.167
41074SOL     OW25118   2.207   8.677   6.737
41074SOL    HW125119   2.222   8.728   6.817
41074SOL    HW225120   2.221   8.586   6.764
41075SOL     OW25121   9.781  10.544   2.607
41075SOL    HW125122   9.815  10.459   2.635
41075SOL    HW225123   9.711  10.522   2.546
41076SOL     OW25124   1.022   1.532   5.837
41076SOL    HW125125   1.098   1.477   5.855
41076SOL    HW225126   1.035   1.609   5.892
41077SOL     OW25127   3.113   7.223   8.614
41077SOL    HW125128   3.033   7.171   8.614
41077SOL    HW225129   3.089   7.304   8.569
41078SOL     OW25130   7.851   3.165  14.408
41078SOL    HW125131   7.811   3.238  14.456
41078SOL    HW225132   7.843   3.190  14.316
41079SOL     OW25133   8.685   7.487   2.838
41079SOL    HW125134   8.621   7.443   2.783
41079SOL    HW225135   8.711   7.422   2.902
41080SOL     OW25136   7.960  12.765   7.659
41080SOL    HW125137   7.939  12.849   7.700
41080SOL    HW225138   8.054  12.756   7.669
41081SOL     OW25139  12.757   6.924   4.675
41081SOL    HW125140  12.716   6.838   4.665
41081SOL    HW225141  12.776   6.952   4.585
41082SOL     OW25142   8.426   8.327   4.733
41082SOL    HW125143   8.360   8.324   4.663
41082SOL    HW225144   8.426   8.417   4.763
41083SOL     OW25145   8.468   7.858  10.008
41083SOL    HW125146   8.504   7.925  10.066
41083SOL    HW225147   8.491   7.775  10.050
41084SOL     OW25148   4.066   2.635  10.422
41084SOL    HW125149   4.063   2.685  10.341
41084SOL    HW225150   3.974   2.611  10.439
41085SOL     OW25151   3.666  11.221   9.958
41085SOL    HW125152   3.719  11.222   9.878
41085SOL    HW225153   3.718  11.271  10.022
41086SOL     OW25154  11.134   2.516  14.166
41086SOL    HW125155  11.209   2.514  14.225
41086SOL    HW225156  11.153   2.589  14.106
41087SOL     OW25157   2.469   5.571  13.737
41087SOL    HW125158   2.452   5.615  13.821
41087SOL    HW225159   2.383   5.569  13.694
41088SOL     OW25160   2.246  14.519   7.859
41088SOL    HW125161   2.192  14.530   7.780
41088SOL    HW225162   2.237  14.602   7.906
41089SOL     OW25163  11.710  11.802  13.792
41089SOL    HW125164  11.709  11.807  13.888
41089SOL    HW225165  11.780  11.740  13.772
41090SOL     OW25166  11.012   4.256  13.006
41090SOL    HW125167  11.100   4.246  13.043
41090SOL    HW225168  10.964   4.306  13.072
41091SOL     OW25169   2.143  12.248  14.743
41091SOL    HW125170   2.077  12.280  14.682
41091SOL    HW225171   2.159  12.157  14.717
41092SOL     OW25172   4.087   2.348  13.756
41092SOL    HW125173   4.060   2.393  13.676
41092SOL    HW225174   4.044   2.396  13.827
41093SOL     OW25175   9.841   0.077   6.992
41093SOL    HW125176   9.828   0.106   6.901
41093SOL    HW225177   9.861  14.858   6.984
41094SOL     OW25178  11.602   5.679   1.862
41094SOL    HW125179  11.625   5.662   1.771
41094SOL    HW225180  11.513   5.644   1.871
41095SOL     OW25181   3.354  12.386  13.447
41095SOL    HW125182   3.266  12.412  13.475
41095SOL    HW225183   3.412  12.433  13.507
41096SOL     OW25184   9.570   9.836   3.747
41096SOL    HW125185   9.650   9.784   3.758
41096SOL    HW225186   9.534   9.807   3.663
41097SOL     OW25187   0.364   4.570  10.437
41097SOL    HW125188   0.429   4.624  10.391
41097SOL    HW225189   0.313   4.530  10.367
41098SOL     OW25190   6.430   6.777   4.813
41098SOL    HW125191   6.508   6.776   4.868
41098SOL    HW225192   6.457   6.732   4.733
41099SOL     OW25193   6.756  14.519  14.448
41099SOL    HW125194   6.791  14.457  14.385
41099SOL    HW225195   6.809  14.598  14.435
41100SOL     OW25196  13.228   1.448   2.333
41100SOL    HW125197  13.209   1.506   2.406
41100SOL    HW225198  13.207   1.500   2.255
41101SOL     OW25199   5.838  12.340   8.445
41101SOL    HW125200   5.806  12.375   8.529
41101SOL    HW225201   5.840  12.245   8.458
41102SOL     OW25202   6.399   8.413   1.940
41102SOL    HW125203   6.440   8.462   2.012
41102SOL    HW225204   6.421   8.463   1.862
41103SOL     OW25205   2.714   9.048  12.226
41103SOL    HW125206   2.809   9.043  12.221
41103SOL    HW225207   2.684   8.957  12.220
41104SOL     OW25208   8.889   4.796   4.116
41104SOL    HW125209   8.800   4.819   4.143
41104SOL    HW225210   8.938   4.791   4.198
41105SOL     OW25211  11.807   4.048  11.634
41105SOL    HW125212  11.733   4.021  11.689
41105SOL    HW225213  11.814   4.143  11.650
41106SOL     OW25214   9.764  10.703   9.659
41106SOL    HW125215   9.804  10.621   9.688
41106SOL    HW225216   9.701  10.678   9.592
41107SOL     OW25217   0.004  14.756   2.131
41107SOL    HW125218   0.019  14.742   2.224
41107SOL    HW225219  14.874  14.669   2.094
41108SOL     OW25220   7.523   2.603   5.937
41108SOL    HW125221   7.474   2.572   5.861
41108SOL    HW225222   7.565   2.524   5.972
41109SOL     OW25223   7.585   8.120  14.401
41109SOL    HW125224   7.623   8.033  14.411
41109SOL    HW225225   7.551   8.122  14.311
41110SOL     OW25226   4.539  11.404   1.164
41110SOL    HW125227   4.495  11.479   1.205
41110SOL    HW225228   4.630  11.432   1.154
41111SOL     OW25229   7.553  11.376  11.477
41111SOL    HW125230   7.547  11.456  11.426
41111SOL    HW225231   7.552  11.406  11.568
41112SOL     OW25232   4.498   1.805   8.629
41112SOL    HW125233   4.488   1.849   8.544
41112SOL    HW225234   4.540   1.722   8.607
41113SOL     OW25235   8.340   5.789  12.709
41113SOL    HW125236   8.285   5.828  12.641
41113SOL    HW225237   8.428   5.788  12.672
41114SOL     OW25238   5.438   6.490  14.440
41114SOL    HW125239   5.433   6.584  14.427
41114SOL    HW225240   5.502   6.460  14.375
41115SOL     OW25241   8.454  10.550  12.350
41115SOL    HW125242   8.481  10.567  12.260
41115SOL    HW225243   8.362  10.524  12.343
41116SOL     OW25244   4.718   3.946   3.161
41116SOL    HW125245   4.680   3.886   3.097
41116SOL    HW225246   4.647   3.962   3.224
41117SOL     OW25247   8.423  13.825   7.305
41117SOL    HW125248   8.334  13.851   7.283
41117SOL    HW225249   8.430  13.734   7.277
41118SOL     OW25250   3.349   2.676  12.214
41118SOL    HW125251   3.343   2.589  12.175
41118SOL    HW225252   3.378   2.733  12.142
41119SOL     OW25253   6.829   3.116   8.730
41119SOL    HW125254   6.922   3.130   8.710
41119SOL    HW225255   6.799   3.055   8.663
41120SOL     OW25256  13.117   3.529   3.238
41120SOL    HW125257  13.195   3.550   3.187
41120SOL    HW225258  13.131   3.439   3.268
41121SOL     OW25259   9.077  13.120  12.503
41121SOL    HW125260   9.128  13.193  12.466
41121SOL    HW225261   8.992  13.158  12.524
41122SOL     OW25262  10.351   0.359   6.533
41122SOL    HW125263  10.326   0.355   6.441
41122SOL    HW225264  10.330   0.448   6.560
41123SOL     OW25265   8.576   2.166   5.526
41123SOL    HW125266   8.505   2.136   5.583
41123SOL    HW225267   8.653   2.169   5.582
41124SOL     OW25268  11.499   7.173   6.530
41124SOL    HW125269  11.568   7.200   6.470
41124SOL    HW225270  11.497   7.241   6.597
41125SOL     OW25271   0.262   2.121   4.347
41125SOL    HW125272   0.346   2.149   4.383
41125SOL    HW225273   0.212   2.202   4.339
41126SOL     OW25274  13.339  10.689   2.780
41126SOL    HW125275  13.385  10.605   2.774
41126SOL    HW225276  13.337  10.709   2.874
41127SOL     OW25277   3.410  11.783   8.379
41127SOL    HW125278   3.334  11.793   8.322
41127SOL    HW225279   3.380  11.814   8.464
41128SOL     OW25280   5.456  13.992   7.453
41128SOL    HW125281   5.375  13.955   7.419
41128SOL    HW225282   5.507  13.917   7.483
41129SOL     OW25283  10.443   9.009   4.160
41129SOL    HW125284  10.450   8.914   4.161
41129SOL    HW225285  10.416   9.031   4.071
41130SOL     OW25286   8.710   0.068  13.107
41130SOL    HW125287   8.703  14.867  13.164
41130SOL    HW225288   8.620   0.087  13.080
41131SOL     OW25289   8.974   0.847  11.319
41131SOL    HW125290   8.928   0.898  11.253
41131SOL    HW225291   8.977   0.758  11.284
41132SOL     OW25292   7.911   6.121   8.105
41132SOL    HW125293   7.960   6.174   8.169
41132SOL    HW225294   7.915   6.032   8.140
41133SOL     OW25295   4.908   6.320   5.115
41133SOL    HW125296   4.943   6.232   5.099
41133SOL    HW225297   4.867   6.344   5.032
41134SOL     OW25298  11.826   7.861   8.800
41134SOL    HW125299  11.845   7.770   8.776
41134SOL    HW225300  11.741   7.879   8.759
41135SOL     OW25301   1.839   4.214   4.088
41135SOL    HW125302   1.853   4.289   4.145
41135SOL    HW225303   1.776   4.159   4.135
41136SOL     OW25304   9.519  14.039   7.251
41136SOL    HW125305   9.460  13.965   7.234
41136SOL    HW225306   9.568  14.013   7.329
41137SOL     OW25307  11.958   3.361   2.537
41137SOL    HW125308  11.882   3.402   2.578
41137SOL    HW225309  11.934   3.268   2.532
41138SOL     OW25310   8.439   1.056   7.635
41138SOL    HW125311   8.504   1.009   7.583
41138SOL    HW225312   8.482   1.138   7.659
41139SOL     OW25313   4.716  14.523   1.187
41139SOL    HW125314   4.785  14.559   1.132
41139SOL    HW225315   4.747  14.536   1.277
41140SOL     OW25316   6.073   7.709   5.059
41140SOL    HW125317   6.135   7.778   5.036
41140SOL    HW225318   6.128   7.632   5.074
41141SOL     OW25319   2.321   0.177   4.198
41141SOL    HW125320   2.288   0.091   4.173
41141SOL    HW225321   2.413   0.163   4.216
41142SOL     OW25322  11.459   7.045   5.287
41142SOL    HW125323  11.448   7.127   5.239
41142SOL    HW225324  11.516   7.067   5.360
41143SOL     OW25325   2.534   2.740   3.658
41143SOL    HW125326   2.601   2.771   3.719
41143SOL    HW225327   2.580   2.677   3.602
41144SOL     OW25328  12.131   5.398  14.798
41144SOL    HW125329  12.212   5.445  14.816
41144SOL    HW225330  12.151   5.341  14.723
41145SOL     OW25331  11.095  12.963   4.573
41145SOL    HW125332  11.005  12.993   4.556
41145SOL    HW225333  11.143  13.044   4.594
41146SOL     OW25334  12.491   3.835   8.743
41146SOL    HW125335  12.566   3.785   8.709
41146SOL    HW225336  12.524   3.925   8.749
41147SOL     OW25337   7.759   9.010   7.190
41147SOL    HW125338   7.815   8.990   7.265
41147SOL    HW225339   7.715   8.928   7.170
41148SOL     OW25340   2.545   1.231  11.156
41148SOL    HW125341   2.571   1.322  11.141
41148SOL    HW225342   2.468   1.237  11.213
41149SOL     OW25343   6.088   1.064  14.041
41149SOL    HW125344   5.999   1.039  14.017
41149SOL    HW225345   6.107   1.013  14.120
41150SOL     OW25346   8.361   6.824   4.693
41150SOL    HW125347   8.355   6.790   4.782
41150SOL    HW225348   8.438   6.782   4.656
41151SOL     OW25349  13.647   9.934   7.776
41151SOL    HW125350  13.675   9.959   7.688
41151SOL    HW225351  13.606   9.848   7.765
41152SOL     OW25352  12.991   2.351   3.152
41152SOL    HW125353  12.934   2.376   3.080
41152SOL    HW225354  13.026   2.265   3.126
41153SOL     OW25355   0.904   1.453   7.390
41153SOL    HW125356   0.977   1.456   7.328
41153SOL    HW225357   0.834   1.409   7.342
41154SOL     OW25358  11.925  10.431  13.235
41154SOL    HW125359  11.940  10.491  13.308
41154SOL    HW225360  11.833  10.405  13.244
41155SOL     OW25361  14.268  14.041   9.796
41155SOL    HW125362  14.348  14.080   9.831
41155SOL    HW225363  14.251  14.091   9.715
41156SOL     OW25364   4.980   9.072   9.464
41156SOL    HW125365   4.979   8.976   9.471
41156SOL    HW225366   4.992   9.089   9.370
41157SOL     OW25367   9.618   5.605  13.221
41157SOL    HW125368   9.588   5.694  13.202
41157SOL    HW225369   9.666   5.579  13.142
41158SOL     OW25370   6.820   2.561   5.302
41158SOL    HW125371   6.818   2.655   5.283
41158SOL    HW225372   6.768   2.522   5.232
41159SOL     OW25373  10.662   4.161  12.236
41159SOL    HW125374  10.593   4.167  12.170
41159SOL    HW225375  10.635   4.223  12.304
41160SOL     OW25376  14.848   6.590   1.506
41160SOL    HW125377  14.773   6.595   1.447
41160SOL    HW225378  14.812   6.612   1.592
41161SOL     OW25379   8.804  12.203   4.406
41161SOL    HW125380   8.803  12.299   4.405
41161SOL    HW225381   8.757  12.179   4.326
41162SOL     OW25382   6.463   0.224   5.170
41162SOL    HW125383   6.398   0.252   5.235
41162SOL    HW225384   6.439   0.272   5.091
41163SOL     OW25385   3.825   3.244   0.405
41163SOL    HW125386   3.732   3.265   0.411
41163SOL    HW225387   3.852   3.279   0.320
41164SOL     OW25388   9.573   9.228  11.131
41164SOL    HW125389   9.479   9.223  11.110
41164SOL    HW225390   9.617   9.221  11.047
41165SOL     OW25391  10.779   2.189   7.696
41165SOL    HW125392  10.851   2.230   7.744
41165SOL    HW225393  10.737   2.131   7.760
41166SOL     OW25394   7.463   9.238   9.726
41166SOL    HW125395   7.499   9.284   9.801
41166SOL    HW225396   7.391   9.293   9.696
41167SOL     OW25397   2.698   8.511  13.667
41167SOL    HW125398   2.760   8.518  13.594
41167SOL    HW225399   2.678   8.417  13.672
41168SOL     OW25400   1.510   4.948   3.115
41168SOL    HW125401   1.484   5.015   3.051
41168SOL    HW225402   1.555   4.881   3.063
41169SOL     OW25403   0.522   0.408   0.722
41169SOL    HW125404   0.500   0.323   0.760
41169SOL    HW225405   0.452   0.466   0.750
41170SOL     OW25406  10.772   2.912   1.855
41170SOL    HW125407  10.793   2.880   1.943
41170SOL    HW225408  10.850   2.960   1.828
41171SOL     OW25409  11.608  14.224  14.365
41171SOL    HW125410  11.665  14.301  14.372
41171SOL    HW225411  11.603  14.206  14.271
41172SOL     OW25412   0.489   6.503   3.941
41172SOL    HW125413   0.563   6.458   3.983
41172SOL    HW225414   0.487   6.589   3.983
41173SOL     OW25415  11.037   8.395   4.082
41173SOL    HW125416  10.969   8.375   4.146
41173SOL    HW225417  11.100   8.449   4.130
41174SOL     OW25418   6.834  11.653   8.173
41174SOL    HW125419   6.770  11.629   8.240
41174SOL    HW225420   6.832  11.749   8.172
41175SOL     OW25421   6.241   3.193  14.522
41175SOL    HW125422   6.214   3.112  14.479
41175SOL    HW225423   6.226   3.177  14.616
41176SOL     OW25424   0.953  10.665   2.814
41176SOL    HW125425   0.898  10.725   2.865
41176SOL    HW225426   0.997  10.721   2.750
41177SOL     OW25427   4.506   2.717   7.629
41177SOL    HW125428   4.454   2.679   7.700
41177SOL    HW225429   4.529   2.805   7.660
41178SOL     OW25430   8.505  14.061  13.558
41178SOL    HW125431   8.501  13.984  13.502
41178SOL    HW225432   8.519  14.134  13.497
41179SOL     OW25433  14.673   2.948   7.647
41179SOL    HW125434  14.667   3.013   7.577
41179SOL    HW225435  14.595   2.962   7.700
41180SOL     OW25436   5.811   2.437   8.346
41180SOL    HW125437   5.837   2.351   8.380
41180SOL    HW225438   5.829   2.432   8.252
41181SOL     OW25439   5.795   2.123   1.192
41181SOL    HW125440   5.768   2.169   1.272
41181SOL    HW225441   5.715   2.082   1.160
41182SOL     OW25442   8.691  13.947  11.937
41182SOL    HW125443   8.669  13.854  11.946
41182SOL    HW225444   8.693  13.980  12.027
41183SOL     OW25445  10.428  14.284   1.814
41183SOL    HW125446  10.371  14.236   1.874
41183SOL    HW225447  10.475  14.346   1.870
41184SOL     OW25448  14.666   8.822   7.915
41184SOL    HW125449  14.664   8.770   7.995
41184SOL    HW225450  14.756   8.852   7.908
41185SOL     OW25451   2.468   1.586  12.076
41185SOL    HW125452   2.464   1.509  12.133
41185SOL    HW225453   2.561   1.596  12.055
41186SOL     OW25454  14.518   6.710   5.414
41186SOL    HW125455  14.596   6.654   5.417
41186SOL    HW225456  14.470   6.681   5.337
41187SOL     OW25457  10.445   2.636   2.670
41187SOL    HW125458  10.485   2.571   2.613
41187SOL    HW225459  10.358   2.650   2.635
41188SOL     OW25460  10.309  12.865   5.826
41188SOL    HW125461  10.336  12.955   5.846
41188SOL    HW225462  10.338  12.814   5.902
41189SOL     OW25463   3.234   7.446  10.591
41189SOL    HW125464   3.257   7.469  10.501
41189SOL    HW225465   3.313   7.407  10.628
41190SOL     OW25466   4.341  11.096   0.940
41190SOL    HW125467   4.344  11.191   0.935
41190SOL    HW225468   4.373  11.075   1.028
41191SOL     OW25469   4.870  13.228   9.580
41191SOL    HW125470   4.854  13.136   9.558
41191SOL    HW225471   4.828  13.277   9.509
41192SOL     OW25472   9.308   5.558   3.979
41192SOL    HW125473   9.343   5.541   3.892
41192SOL    HW225474   9.356   5.497   4.036
41193SOL     OW25475  14.087   7.336   8.996
41193SOL    HW125476  14.116   7.308   8.909
41193SOL    HW225477  14.046   7.258   9.033
41194SOL     OW25478  11.213  10.265   4.284
41194SOL    HW125479  11.164  10.274   4.202
41194SOL    HW225480  11.303  10.248   4.257
41195SOL     OW25481  13.861   9.692   8.515
41195SOL    HW125482  13.882   9.785   8.513
41195SOL    HW225483  13.776   9.685   8.471
41196SOL     OW25484   5.359   7.434  12.013
41196SOL    HW125485   5.378   7.415  11.921
41196SOL    HW225486   5.360   7.529  12.019
41197SOL     OW25487   3.071  11.259   9.339
41197SOL    HW125488   3.101  11.200   9.271
41197SOL    HW225489   3.063  11.204   9.418
41198SOL     OW25490   7.265   9.628   7.595
41198SOL    HW125491   7.243   9.618   7.503
41198SOL    HW225492   7.360   9.615   7.598
41199SOL     OW25493   5.935   7.358   9.217
41199SOL    HW125494   5.895   7.274   9.195
41199SOL    HW225495   5.997   7.337   9.287
41200SOL     OW25496   5.642  11.327   0.604
41200SOL    HW125497   5.660  11.391   0.535
41200SOL    HW225498   5.657  11.242   0.562
41201SOL     OW25499  10.240   9.572  13.450
41201SOL    HW125500  10.253   9.632  13.524
41201SOL    HW225501  10.172   9.614  13.397
41202SOL     OW25502   2.490   0.263   2.663
41202SOL    HW125503   2.455   0.261   2.574
41202SOL    HW225504   2.584   0.255   2.653
41203SOL     OW25505  12.593   4.757   4.174
41203SOL    HW125506  12.663   4.776   4.237
41203SOL    HW225507  12.546   4.839   4.165
41204SOL     OW25508   2.583   5.010  13.756
41204SOL    HW125509   2.617   5.081  13.811
41204SOL    HW225510   2.491   5.031  13.744
41205SOL     OW25511  14.439   8.679  10.364
41205SOL    HW125512  14.455   8.748  10.429
41205SOL    HW225513  14.526   8.656  10.332
41206SOL     OW25514  10.069   7.537   3.051
41206SOL    HW125515  10.028   7.550   3.136
41206SOL    HW225516  10.039   7.610   2.998
41207SOL     OW25517   4.484  12.725  13.879
41207SOL    HW125518   4.496  12.650  13.938
41207SOL    HW225519   4.457  12.797  13.936
41208SOL     OW25520   3.634   6.869   8.517
41208SOL    HW125521   3.572   6.879   8.445
41208SOL    HW225522   3.694   6.800   8.487
41209SOL     OW25523   2.905   1.509   1.588
41209SOL    HW125524   2.895   1.582   1.649
41209SOL    HW225525   2.948   1.440   1.639
41210SOL     OW25526   0.588   8.309   8.822
41210SOL    HW125527   0.598   8.360   8.903
41210SOL    HW225528   0.511   8.254   8.837
41211SOL     OW25529   1.154  11.932   8.612
41211SOL    HW125530   1.235  11.915   8.565
41211SOL    HW225531   1.179  11.993   8.682
41212SOL     OW25532   8.376   7.873   3.313
41212SOL    HW125533   8.408   7.837   3.396
41212SOL    HW225534   8.401   7.808   3.248
41213SOL     OW25535  14.698  13.006   4.475
41213SOL    HW125536  14.752  12.928   4.487
41213SOL    HW225537  14.735  13.047   4.396
41214SOL     OW25538   8.492   6.253   2.604
41214SOL    HW125539   8.406   6.287   2.581
41214SOL    HW225540   8.490   6.162   2.574
41215SOL     OW25541  12.707   9.786  13.802
41215SOL    HW125542  12.801   9.793  13.815
41215SOL    HW225543  12.684   9.701  13.839
41216SOL     OW25544   8.401   3.318   1.855
41216SOL    HW125545   8.454   3.323   1.934
41216SOL    HW225546   8.317   3.281   1.885
41217SOL     OW25547   1.726   1.061   6.355
41217SOL    HW125548   1.666   0.990   6.380
41217SOL    HW225549   1.754   1.099   6.439
41218SOL     OW25550   4.512   3.259  12.919
41218SOL    HW125551   4.416   3.267  12.913
41218SOL    HW225552   4.545   3.333  12.868
41219SOL     OW25553  11.668   7.263   3.298
41219SOL    HW125554  11.647   7.187   3.244
41219SOL    HW225555  11.699   7.329   3.236
41220SOL     OW25556   1.729  14.349   2.270
41220SOL    HW125557   1.809  14.343   2.217
41220SOL    HW225558   1.665  14.389   2.212
41221SOL     OW25559   6.017   5.458   9.686
41221SOL    HW125560   5.972   5.521   9.743
41221SOL    HW225561   6.072   5.512   9.630
41222SOL     OW25562   6.453   7.505   6.675
41222SOL    HW125563   6.492   7.592   6.683
41222SOL    HW225564   6.525   7.445   6.695
41223SOL     OW25565   2.543   2.419   0.207
41223SOL    HW125566   2.607   2.367   0.158
41223SOL    HW225567   2.537   2.502   0.159
41224SOL     OW25568  12.358   6.257   4.531
41224SOL    HW125569  12.375   6.169   4.564
41224SOL    HW225570  12.426   6.311   4.572
41225SOL     OW25571  10.472   1.363   2.788
41225SOL    HW125572  10.535   1.426   2.821
41225SOL    HW225573  10.524   1.285   2.769
41226SOL     OW25574   7.610   3.405   8.021
41226SOL    HW125575   7.681   3.464   8.043
41226SOL    HW225576   7.626   3.379   7.931
41227SOL     OW25577   6.813  12.830   7.506
41227SOL    HW125578   6.725  12.848   7.473
41227SOL    HW225579   6.816  12.873   7.592
41228SOL     OW25580  12.712   2.989   6.475
41228SOL    HW125581  12.618   2.994   6.458
41228SOL    HW225582  12.719   2.953   6.563
41229SOL     OW25583   6.851   1.746   4.890
41229SOL    HW125584   6.898   1.714   4.967
41229SOL    HW225585   6.805   1.824   4.919
41230SOL     OW25586   8.670  13.007   9.002
41230SOL    HW125587   8.751  13.037   9.044
41230SOL    HW225588   8.620  12.966   9.073
41231SOL     OW25589   7.026   5.903   1.744
41231SOL    HW125590   7.064   5.926   1.829
41231SOL    HW225591   7.072   5.959   1.681
41232SOL     OW25592   4.768   4.488   7.805
41232SOL    HW125593   4.682   4.494   7.846
41232SOL    HW225594   4.783   4.394   7.793
41233SOL     OW25595   4.794   1.783   2.314
41233SOL    HW125596   4.867   1.833   2.351
41233SOL    HW225597   4.719   1.841   2.322
41234SOL     OW25598   8.697   9.167   1.900
41234SOL    HW125599   8.732   9.080   1.921
41234SOL    HW225600   8.706   9.174   1.805
41235SOL     OW25601   2.109   9.744   4.709
41235SOL    HW125602   2.192   9.790   4.693
41235SOL    HW225603   2.132   9.673   4.768
41236SOL     OW25604   2.455   9.993   2.756
41236SOL    HW125605   2.451   9.901   2.729
41236SOL    HW225606   2.535  10.000   2.808
41237SOL     OW25607   7.552   3.056  14.803
41237SOL    HW125608   7.528   3.147  14.821
41237SOL    HW225609   7.594   3.058  14.717
41238SOL     OW25610   7.903   8.026   7.408
41238SOL    HW125611   7.861   7.998   7.489
41238SOL    HW225612   7.992   8.049   7.433
41239SOL     OW25613  11.487  11.708   3.033
41239SOL    HW125614  11.459  11.740   3.119
41239SOL    HW225615  11.507  11.615   3.047
41240SOL     OW25616  12.550   7.876   0.325
41240SOL    HW125617  12.618   7.852   0.388
41240SOL    HW225618  12.544   7.800   0.267
41241SOL     OW25619   9.122  13.034  10.318
41241SOL    HW125620   9.174  13.020  10.397
41241SOL    HW225621   9.040  12.987  10.333
41242SOL     OW25622   4.696   4.978  14.062
41242SOL    HW125623   4.755   4.980  14.138
41242SOL    HW225624   4.623   4.923  14.090
41243SOL     OW25625   7.361   7.713   1.603
41243SOL    HW125626   7.357   7.801   1.565
41243SOL    HW225627   7.453   7.703   1.629
41244SOL     OW25628   9.937   4.560   0.475
41244SOL    HW125629   9.937   4.633   0.413
41244SOL    HW225630   9.951   4.601   0.560
41245SOL     OW25631  12.889   2.679   7.382
41245SOL    HW125632  12.957   2.746   7.368
41245SOL    HW225633  12.938   2.599   7.400
41246SOL     OW25634   1.540   3.983   8.695
41246SOL    HW125635   1.629   4.006   8.666
41246SOL    HW225636   1.495   3.957   8.614
41247SOL     OW25637   0.008  13.971  12.561
41247SOL    HW125638  14.849  14.046  12.514
41247SOL    HW225639   0.091  13.951  12.518
41248SOL     OW25640   8.890   7.825   2.355
41248SOL    HW125641   8.966   7.879   2.333
41248SOL    HW225642   8.838   7.822   2.275
41249SOL     OW25643   7.287   1.776   2.314
41249SOL    HW125644   7.368   1.826   2.319
41249SOL    HW225645   7.220   1.836   2.349
41250SOL     OW25646  11.384   7.207   3.986
41250SOL    HW125647  11.428   7.178   4.066
41250SOL    HW225648  11.336   7.285   4.012
41251SOL     OW25649  14.089   4.042  14.497
41251SOL    HW125650  13.996   4.030  14.516
41251SOL    HW225651  14.126   4.072  14.579
41252SOL     OW25652  10.451   9.065  10.525
41252SOL    HW125653  10.392   9.132  10.491
41252SOL    HW225654  10.490   9.026  10.447
41253SOL     OW25655   9.101   8.756   9.105
41253SOL    HW125656   9.174   8.703   9.073
41253SOL    HW225657   9.041   8.761   9.031
41254SOL     OW25658  12.628  11.895   8.876
41254SOL    HW125659  12.683  11.891   8.954
41254SOL    HW225660  12.657  11.821   8.822
41255SOL     OW25661  10.741   4.424   4.682
41255SOL    HW125662  10.799   4.348   4.678
41255SOL    HW225663  10.765   4.476   4.605
41256SOL     OW25664   1.572  12.598   3.666
41256SOL    HW125665   1.619  12.564   3.590
41256SOL    HW225666   1.609  12.549   3.740
41257SOL     OW25667   6.575   5.008  12.542
41257SOL    HW125668   6.608   4.923  12.515
41257SOL    HW225669   6.556   5.054  12.460
41258SOL     OW25670   8.880  14.360   4.044
41258SOL    HW125671   8.792  14.369   4.007
41258SOL    HW225672   8.887  14.267   4.065
41259SOL     OW25673  13.220   8.550   7.108
41259SOL    HW125674  13.276   8.624   7.083
41259SOL    HW225675  13.150   8.591   7.159
41260SOL     OW25676   6.023   4.059  11.084
41260SOL    HW125677   5.962   4.121  11.124
41260SOL    HW225678   6.107   4.077  11.127
41261SOL     OW25679   5.101   8.091   4.774
41261SOL    HW125680   5.108   8.071   4.681
41261SOL    HW225681   5.165   8.033   4.817
41262SOL     OW25682  10.866   8.316   9.826
41262SOL    HW125683  10.870   8.393   9.881
41262SOL    HW225684  10.799   8.337   9.760
41263SOL     OW25685  13.029  11.771  12.267
41263SOL    HW125686  13.052  11.692  12.316
41263SOL    HW225687  13.109  11.824  12.267
41264SOL     OW25688   2.355   8.719   6.485
41264SOL    HW125689   2.420   8.652   6.464
41264SOL    HW225690   2.317   8.690   6.568
41265SOL     OW25691   8.126   7.808  11.829
41265SOL    HW125692   8.064   7.735  11.829
41265SOL    HW225693   8.167   7.804  11.742
41266SOL     OW25694   7.413   6.311  11.774
41266SOL    HW125695   7.414   6.255  11.696
41266SOL    HW225696   7.489   6.368  11.764
41267SOL     OW25697   8.197   0.930   4.274
41267SOL    HW125698   8.138   0.997   4.241
41267SOL    HW225699   8.283   0.972   4.276
41268SOL     OW25700   2.125  10.004  12.276
41268SOL    HW125701   2.213  10.023  12.243
41268SOL    HW225702   2.085  10.090  12.289
41269SOL     OW25703   7.738   6.467   5.136
41269SOL    HW125704   7.739   6.416   5.216
41269SOL    HW225705   7.830   6.475   5.111
41270SOL     OW25706   7.479   2.186   6.404
41270SOL    HW125707   7.445   2.237   6.331
41270SOL    HW225708   7.449   2.096   6.387
41271SOL     OW25709   6.896  10.563  12.321
41271SOL    HW125710   6.942  10.522  12.248
41271SOL    HW225711   6.848  10.491  12.362
41272SOL     OW25712  10.039  13.060   1.540
41272SOL    HW125713  10.042  13.149   1.576
41272SOL    HW225714   9.958  13.057   1.490
41273SOL     OW25715   7.746  14.387  13.798
41273SOL    HW125716   7.772  14.456  13.858
41273SOL    HW225717   7.781  14.415  13.713
41274SOL     OW25718   0.899   7.044   5.470
41274SOL    HW125719   0.964   7.000   5.525
41274SOL    HW225720   0.850   7.099   5.531
41275SOL     OW25721  11.209   2.004  13.615
41275SOL    HW125722  11.261   2.083  13.598
41275SOL    HW225723  11.158   1.992  13.535
41276SOL     OW25724   4.744  13.205   3.342
41276SOL    HW125725   4.798  13.272   3.301
41276SOL    HW225726   4.743  13.228   3.435
41277SOL     OW25727  13.631  14.690  11.772
41277SOL    HW125728  13.703  14.723  11.827
41277SOL    HW225729  13.656  14.600  11.752
41278SOL     OW25730   5.485   8.345  11.419
41278SOL    HW125731   5.509   8.303  11.337
41278SOL    HW225732   5.467   8.272  11.479
41279SOL     OW25733   9.489  13.340  13.723
41279SOL    HW125734   9.496  13.261  13.778
41279SOL    HW225735   9.408  13.382  13.752
41280SOL     OW25736   1.597   6.728   2.532
41280SOL    HW125737   1.630   6.638   2.535
41280SOL    HW225738   1.657   6.774   2.474
41281SOL     OW25739  14.471   1.650   5.427
41281SOL    HW125740  14.546   1.615   5.378
41281SOL    HW225741  14.491   1.631   5.519
41282SOL     OW25742   4.282  13.256   7.409
41282SOL    HW125743   4.229  13.334   7.426
41282SOL    HW225744   4.226  13.183   7.433
41283SOL     OW25745   2.700   8.346  11.498
41283SOL    HW125746   2.766   8.310  11.439
41283SOL    HW225747   2.734   8.433  11.522
41284SOL     OW25748  14.235  14.095   0.426
41284SOL    HW125749  14.294  14.098   0.501
41284SOL    HW225750  14.292  14.081   0.351
41285SOL     OW25751   2.969   5.166   7.364
41285SOL    HW125752   2.926   5.101   7.420
41285SOL    HW225753   3.027   5.213   7.424
41286SOL     OW25754  10.065   8.784   2.047
41286SOL    HW125755  10.051   8.840   2.123
41286SOL    HW225756   9.976   8.759   2.019
41287SOL     OW25757   9.563   3.205   1.069
41287SOL    HW125758   9.532   3.278   1.015
41287SOL    HW225759   9.633   3.242   1.122
41288SOL     OW25760  10.985  13.527   5.382
41288SOL    HW125761  10.972  13.460   5.449
41288SOL    HW225762  11.056  13.582   5.415
41289SOL     OW25763   5.475   2.588   1.539
41289SOL    HW125764   5.460   2.662   1.599
41289SOL    HW225765   5.569   2.573   1.541
41290SOL     OW25766   9.252  11.919  10.693
41290SOL    HW125767   9.226  11.845  10.748
41290SOL    HW225768   9.348  11.920  10.699
41291SOL     OW25769  12.907   0.505  10.239
41291SOL    HW125770  12.920   0.594  10.273
41291SOL    HW225771  12.913   0.449  10.316
41292SOL     OW25772   9.318   3.833   9.269
41292SOL    HW125773   9.260   3.895   9.313
41292SOL    HW225774   9.402   3.842   9.315
41293SOL     OW25775  10.460   7.081   4.735
41293SOL    HW125776  10.408   7.041   4.665
41293SOL    HW225777  10.423   7.168   4.746
41294SOL     OW25778  11.400   2.136   1.241
41294SOL    HW125779  11.366   2.225   1.252
41294SOL    HW225780  11.494   2.144   1.257
41295SOL     OW25781  12.330   9.437   9.771
41295SOL    HW125782  12.365   9.462   9.685
41295SOL    HW225783  12.399   9.461   9.833
41296SOL     OW25784   2.283   2.428   2.654
41296SOL    HW125785   2.209   2.474   2.693
41296SOL    HW225786   2.250   2.341   2.634
41297SOL     OW25787   8.521   5.996   6.426
41297SOL    HW125788   8.581   5.922   6.418
41297SOL    HW225789   8.576   6.068   6.457
41298SOL     OW25790  11.242  11.466   3.049
41298SOL    HW125791  11.180  11.538   3.065
41298SOL    HW225792  11.254  11.466   2.954
41299SOL     OW25793  10.723  11.677   5.406
41299SOL    HW125794  10.702  11.612   5.339
41299SOL    HW225795  10.696  11.761   5.368
41300SOL     OW25796  11.740   1.738  14.176
41300SOL    HW125797  11.753   1.742  14.270
41300SOL    HW225798  11.650   1.766  14.163
41301SOL     OW25799   6.060  10.305   8.202
41301SOL    HW125800   6.032  10.270   8.117
41301SOL    HW225801   6.040  10.236   8.264
41302SOL     OW25802   7.098   5.281   5.668
41302SOL    HW125803   7.038   5.322   5.730
41302SOL    HW225804   7.041   5.245   5.600
41303SOL     OW25805   2.827   0.720  11.120
41303SOL    HW125806   2.894   0.785  11.099
41303SOL    HW225807   2.827   0.715  11.215
41304SOL     OW25808   0.207   6.430  12.147
41304SOL    HW125809   0.175   6.345  12.115
41304SOL    HW225810   0.184   6.491  12.077
41305SOL     OW25811  11.120   7.249   4.775
41305SOL    HW125812  11.055   7.189   4.737
41305SOL    HW225813  11.068   7.319   4.814
41306SOL     OW25814  11.370   2.964   3.546
41306SOL    HW125815  11.383   2.871   3.532
41306SOL    HW225816  11.340   2.997   3.461
41307SOL     OW25817  14.018   4.372  11.006
41307SOL    HW125818  13.978   4.358  11.092
41307SOL    HW225819  14.112   4.363  11.022
41308SOL     OW25820  11.363   0.252  13.411
41308SOL    HW125821  11.345   0.247  13.505
41308SOL    HW225822  11.297   0.313  13.377
41309SOL     OW25823   9.598  14.043   0.239
41309SOL    HW125824   9.590  14.041   0.335
41309SOL    HW225825   9.572  14.131   0.214
41310SOL     OW25826   3.956   9.570   6.040
41310SOL    HW125827   3.865   9.596   6.023
41310SOL    HW225828   3.978   9.615   6.122
41311SOL     OW25829  14.450   2.564   0.425
41311SOL    HW125830  14.408   2.535   0.506
41311SOL    HW225831  14.527   2.613   0.455
41312SOL     OW25832   8.258   6.787   0.728
41312SOL    HW125833   8.226   6.764   0.640
41312SOL    HW225834   8.185   6.767   0.786
41313SOL     OW25835   4.796   2.740  11.945
41313SOL    HW125836   4.770   2.655  11.981
41313SOL    HW225837   4.882   2.756  11.983
41314SOL     OW25838  12.690  12.771   0.532
41314SOL    HW125839  12.680  12.819   0.614
41314SOL    HW225840  12.710  12.840   0.467
41315SOL     OW25841  13.176  14.439  10.755
41315SOL    HW125842  13.124  14.472  10.682
41315SOL    HW225843  13.196  14.348  10.732
41316SOL     OW25844  14.099   3.746  12.190
41316SOL    HW125845  14.068   3.815  12.249
41316SOL    HW225846  14.074   3.777  12.103
41317SOL     OW25847   8.915  10.031  12.247
41317SOL    HW125848   8.982   9.964  12.256
41317SOL    HW225849   8.841   9.985  12.207
41318SOL     OW25850   5.235  10.821   0.464
41318SOL    HW125851   5.182  10.779   0.532
41318SOL    HW225852   5.208  10.913   0.466
41319SOL     OW25853  14.033   6.836   2.422
41319SOL    HW125854  14.008   6.745   2.408
41319SOL    HW225855  14.052   6.842   2.516
41320SOL     OW25856   3.278   0.521   3.153
41320SOL    HW125857   3.314   0.471   3.080
41320SOL    HW225858   3.287   0.612   3.127
41321SOL     OW25859   6.179  13.262   2.003
41321SOL    HW125860   6.242  13.222   1.943
41321SOL    HW225861   6.096  13.259   1.956
41322SOL     OW25862   8.247  14.669  10.840
41322SOL    HW125863   8.165  14.670  10.890
41322SOL    HW225864   8.258  14.759  10.810
41323SOL     OW25865   5.604   0.030  10.252
41323SOL    HW125866   5.559  14.821  10.260
41323SOL    HW225867   5.550   0.080  10.191
41324SOL     OW25868  10.625   3.890  13.394
41324SOL    HW125869  10.702   3.946  13.389
41324SOL    HW225870  10.580   3.919  13.473
41325SOL     OW25871   1.129  11.497   1.247
41325SOL    HW125872   1.192  11.567   1.229
41325SOL    HW225873   1.182  11.425   1.281
41326SOL     OW25874  12.673  13.405  11.182
41326SOL    HW125875  12.643  13.318  11.209
41326SOL    HW225876  12.652  13.461  11.257
41327SOL     OW25877   2.297   6.085  11.417
41327SOL    HW125878   2.319   5.997  11.386
41327SOL    HW225879   2.373   6.113  11.467
41328SOL     OW25880   2.573   1.862   4.280
41328SOL    HW125881   2.637   1.839   4.348
41328SOL    HW225882   2.535   1.778   4.253
41329SOL     OW25883   4.879   7.231   7.284
41329SOL    HW125884   4.834   7.168   7.341
41329SOL    HW225885   4.821   7.242   7.209
41330SOL     OW25886   9.138   3.752   4.393
41330SOL    HW125887   9.113   3.660   4.393
41330SOL    HW225888   9.223   3.754   4.438
41331SOL     OW25889   7.086   7.898   2.722
41331SOL    HW125890   7.158   7.919   2.782
41331SOL    HW225891   7.103   7.807   2.696
41332SOL     OW25892  10.290  14.786   0.163
41332SOL    HW125893  10.322  14.760   0.249
41332SOL    HW225894  10.197  14.762   0.164
41333SOL     OW25895   5.189   2.759   2.307
41333SOL    HW125896   5.283   2.775   2.295
41333SOL    HW225897   5.147   2.835   2.268
41334SOL     OW25898   5.026  11.014   7.580
41334SOL    HW125899   5.009  11.047   7.492
41334SOL    HW225900   5.104  10.960   7.571
41335SOL     OW25901  11.627   6.329   6.814
41335SOL    HW125902  11.679   6.353   6.891
41335SOL    HW225903  11.645   6.398   6.750
41336SOL     OW25904  13.767  14.273   3.283
41336SOL    HW125905  13.816  14.311   3.210
41336SOL    HW225906  13.805  14.186   3.295
41337SOL     OW25907   9.950   5.724  12.857
41337SOL    HW125908  10.041   5.740  12.882
41337SOL    HW225909   9.956   5.672  12.776
41338SOL     OW25910   1.692   0.698   8.559
41338SOL    HW125911   1.612   0.648   8.545
41338SOL    HW225912   1.733   0.703   8.472
41339SOL     OW25913   1.111   1.437   7.211
41339SOL    HW125914   1.203   1.445   7.235
41339SOL    HW225915   1.094   1.342   7.209
41340SOL     OW25916  10.841   1.140  14.138
41340SOL    HW125917  10.929   1.103  14.132
41340SOL    HW225918  10.803   1.126  14.052
41341SOL     OW25919   9.232   0.620   0.881
41341SOL    HW125920   9.239   0.643   0.973
41341SOL    HW225921   9.208   0.527   0.881
41342SOL     OW25922  12.322   0.329   5.001
41342SOL    HW125923  12.402   0.379   4.986
41342SOL    HW225924  12.336   0.247   4.955
41343SOL     OW25925  12.457  13.216   6.230
41343SOL    HW125926  12.531  13.206   6.290
41343SOL    HW225927  12.495  13.259   6.153
41344SOL     OW25928  13.720   2.156  14.581
41344SOL    HW125929  13.775   2.232  14.565
41344SOL    HW225930  13.630   2.189  14.572
41345SOL     OW25931   4.803  13.045   8.552
41345SOL    HW125932   4.810  13.075   8.462
41345SOL    HW225933   4.830  12.953   8.549
41346SOL     OW25934   3.068   5.740  13.891
41346SOL    HW125935   3.103   5.815  13.939
41346SOL    HW225936   2.990   5.714  13.941
41347SOL     OW25937   1.121   7.346  11.780
41347SOL    HW125938   1.093   7.262  11.742
41347SOL    HW225939   1.165   7.392  11.709
41348SOL     OW25940  11.570   4.150   8.360
41348SOL    HW125941  11.608   4.093   8.294
41348SOL    HW225942  11.481   4.166   8.330
41349SOL     OW25943  14.157   2.784   2.380
41349SOL    HW125944  14.116   2.849   2.322
41349SOL    HW225945  14.130   2.810   2.468
41350SOL     OW25946   8.112  14.689   8.576
41350SOL    HW125947   8.029  14.654   8.543
41350SOL    HW225948   8.177  14.661   8.511
41351SOL     OW25949   2.689   6.967   9.273
41351SOL    HW125950   2.715   7.057   9.293
41351SOL    HW225951   2.695   6.921   9.357
41352SOL     OW25952  11.073  12.364   9.985
41352SOL    HW125953  11.035  12.328  10.064
41352SOL    HW225954  11.075  12.459  10.000
41353SOL     OW25955   2.953   9.189   9.676
41353SOL    HW125956   2.873   9.185   9.728
41353SOL    HW225957   3.023   9.198   9.741
41354SOL     OW25958   0.958   2.146  10.716
41354SOL    HW125959   0.983   2.100  10.635
41354SOL    HW225960   0.872   2.182  10.698
41355SOL     OW25961   4.836   3.785  14.059
41355SOL    HW125962   4.828   3.702  14.107
41355SOL    HW225963   4.803   3.765  13.971
41356SOL     OW25964   6.764  11.268   3.032
41356SOL    HW125965   6.833  11.305   3.088
41356SOL    HW225966   6.784  11.174   3.029
41357SOL     OW25967  11.785  10.553   3.443
41357SOL    HW125968  11.818  10.575   3.356
41357SOL    HW225969  11.820  10.622   3.500
41358SOL     OW25970  10.797  13.389   4.016
41358SOL    HW125971  10.789  13.440   4.097
41358SOL    HW225972  10.764  13.303   4.040
41359SOL     OW25973   5.053   3.607   1.756
41359SOL    HW125974   5.025   3.533   1.702
41359SOL    HW225975   5.133   3.576   1.798
41360SOL     OW25976  12.144   0.706   9.886
41360SOL    HW125977  12.200   0.755   9.947
41360SOL    HW225978  12.204   0.678   9.816
41361SOL     OW25979   5.432   3.898  14.783
41361SOL    HW125980   5.355   3.955  14.784
41361SOL    HW225981   5.481   3.926  14.706
41362SOL     OW25982  10.588   7.720   2.128
41362SOL    HW125983  10.611   7.654   2.193
41362SOL    HW225984  10.550   7.670   2.056
41363SOL     OW25985   8.022   3.154  14.051
41363SOL    HW125986   8.031   3.244  14.020
41363SOL    HW225987   8.089   3.146  14.119
41364SOL     OW25988  12.155   6.408   3.270
41364SOL    HW125989  12.224   6.350   3.302
41364SOL    HW225990  12.177   6.493   3.307
41365SOL     OW25991   5.655   9.636   5.416
41365SOL    HW125992   5.743   9.663   5.442
41365SOL    HW225993   5.615   9.603   5.497
41366SOL     OW25994  13.408   8.754   7.068
41366SOL    HW125995  13.489   8.748   7.018
41366SOL    HW225996  13.437   8.778   7.156
41367SOL     OW25997  13.851  11.848   4.436
41367SOL    HW125998  13.935  11.809   4.460
41367SOL    HW225999  13.796  11.838   4.513
41368SOL     OW26000  13.411   5.384   3.844
41368SOL    HW126001  13.446   5.298   3.820
41368SOL    HW226002  13.324   5.387   3.803
41369SOL     OW26003   6.816   7.428   4.059
41369SOL    HW126004   6.851   7.405   4.145
41369SOL    HW226005   6.854   7.513   4.039
41370SOL     OW26006   0.879  12.282   9.837
41370SOL    HW126007   0.882  12.216   9.906
41370SOL    HW226008   0.880  12.366   9.884
41371SOL     OW26009   2.224   5.668   2.047
41371SOL    HW126010   2.278   5.731   2.095
41371SOL    HW226011   2.174   5.622   2.114
41372SOL     OW26012   2.954  14.459   8.954
41372SOL    HW126013   2.957  14.481   9.047
41372SOL    HW226014   2.970  14.364   8.951
41373SOL     OW26015   7.321   9.676   4.018
41373SOL    HW126016   7.350   9.668   4.109
41373SOL    HW226017   7.309   9.771   4.005
41374SOL     OW26018   2.098  12.187   8.131
41374SOL    HW126019   2.104  12.129   8.207
41374SOL    HW226020   2.074  12.128   8.058
41375SOL     OW26021  10.937   0.220  12.075
41375SOL    HW126022  10.889   0.300  12.091
41375SOL    HW226023  11.024   0.236  12.113
41376SOL     OW26024   9.419   0.957  13.283
41376SOL    HW126025   9.372   1.031  13.320
41376SOL    HW226026   9.481   0.931  13.352
41377SOL     OW26027   2.858  12.233   5.371
41377SOL    HW126028   2.765  12.240   5.348
41377SOL    HW226029   2.858  12.202   5.461
41378SOL     OW26030   6.386   5.967  12.034
41378SOL    HW126031   6.455   5.914  12.073
41378SOL    HW226032   6.372   5.928  11.948
41379SOL     OW26033   8.839   3.562   2.099
41379SOL    HW126034   8.884   3.479   2.085
41379SOL    HW226035   8.904   3.629   2.076
41380SOL     OW26036  10.056   5.942  13.678
41380SOL    HW126037  10.031   5.907  13.592
41380SOL    HW226038   9.987   5.910  13.737
41381SOL     OW26039   0.987   4.797   3.450
41381SOL    HW126040   0.922   4.864   3.431
41381SOL    HW226041   1.019   4.769   3.364
41382SOL     OW26042  12.935   6.953  13.802
41382SOL    HW126043  12.972   7.033  13.764
41382SOL    HW226044  12.892   6.982  13.882
41383SOL     OW26045   9.459   3.328  11.261
41383SOL    HW126046   9.368   3.358  11.268
41383SOL    HW226047   9.503   3.368  11.336
41384SOL     OW26048   2.058   0.877  14.414
41384SOL    HW126049   1.980   0.898  14.364
41384SOL    HW226050   2.037   0.901  14.504
41385SOL     OW26051   1.777   1.035   8.546
41385SOL    HW126052   1.761   1.013   8.454
41385SOL    HW226053   1.870   1.057   8.550
41386SOL     OW26054  12.325  14.815   7.103
41386SOL    HW126055  12.242  14.771   7.123
41386SOL    HW226056  12.374  14.810   7.185
41387SOL     OW26057   0.218   6.702   0.633
41387SOL    HW126058   0.186   6.690   0.543
41387SOL    HW226059   0.281   6.774   0.626
41388SOL     OW26060  12.593   9.517  12.709
41388SOL    HW126061  12.577   9.581  12.640
41388SOL    HW226062  12.668   9.551  12.757
41389SOL     OW26063   3.844  10.433   8.009
41389SOL    HW126064   3.767  10.490   8.006
41389SOL    HW226065   3.879  10.436   7.919
41390SOL     OW26066  11.598   8.446  11.038
41390SOL    HW126067  11.683   8.420  11.003
41390SOL    HW226068  11.547   8.366  11.041
41391SOL     OW26069   9.586  11.741   3.046
41391SOL    HW126070   9.513  11.792   3.081
41391SOL    HW226071   9.605  11.677   3.114
41392SOL     OW26072   2.094   7.502  13.149
41392SOL    HW126073   2.143   7.422  13.168
41392SOL    HW226074   2.030   7.507  13.220
41393SOL     OW26075   3.112   6.586   7.973
41393SOL    HW126076   3.023   6.563   7.999
41393SOL    HW226077   3.118   6.680   7.990
41394SOL     OW26078   1.658   9.019   6.790
41394SOL    HW126079   1.727   9.027   6.724
41394SOL    HW226080   1.667   8.929   6.823
41395SOL     OW26081  11.419   8.689  10.241
41395SOL    HW126082  11.342   8.745  10.256
41395SOL    HW226083  11.393   8.603  10.272
41396SOL     OW26084   5.569   5.974   1.882
41396SOL    HW126085   5.553   6.067   1.897
41396SOL    HW226086   5.568   5.935   1.969
41397SOL     OW26087   2.456   9.771   7.583
41397SOL    HW126088   2.547   9.791   7.561
41397SOL    HW226089   2.434   9.696   7.528
41398SOL     OW26090   2.554   1.614  10.561
41398SOL    HW126091   2.545   1.538  10.619
41398SOL    HW226092   2.632   1.659  10.592
41399SOL     OW26093   4.936  13.662   0.941
41399SOL    HW126094   4.997  13.596   0.908
41399SOL    HW226095   4.858  13.613   0.966
41400SOL     OW26096   1.946   1.303   0.225
41400SOL    HW126097   1.946   1.212   0.253
41400SOL    HW226098   1.864   1.313   0.176
41401SOL     OW26099  12.978  10.415  13.599
41401SOL    HW126100  13.035  10.491  13.609
41401SOL    HW226101  12.987  10.390  13.507
41402SOL     OW26102   9.322   6.113   1.719
41402SOL    HW126103   9.301   6.180   1.655
41402SOL    HW226104   9.311   6.156   1.804
41403SOL     OW26105   3.949   2.001  14.697
41403SOL    HW126106   3.979   2.040  14.615
41403SOL    HW226107   3.875   1.946  14.671
41404SOL     OW26108  10.244   7.332   8.584
41404SOL    HW126109  10.239   7.425   8.561
41404SOL    HW226110  10.222   7.287   8.502
41405SOL     OW26111  12.304  14.785  14.514
41405SOL    HW126112  12.273  14.842  14.444
41405SOL    HW226113  12.392  14.817  14.534
41406SOL     OW26114   0.446   8.266  10.646
41406SOL    HW126115   0.482   8.254  10.734
41406SOL    HW226116   0.362   8.221  10.647
41407SOL     OW26117   2.357  14.341   9.126
41407SOL    HW126118   2.274  14.315   9.086
41407SOL    HW226119   2.349  14.435   9.142
41408SOL     OW26120   6.872  11.468   4.033
41408SOL    HW126121   6.811  11.439   3.966
41408SOL    HW226122   6.955  11.426   4.010
41409SOL     OW26123  10.072   8.224  12.062
41409SOL    HW126124  10.115   8.138  12.069
41409SOL    HW226125  10.026   8.220  11.978
41410SOL     OW26126   3.618  13.289  11.393
41410SOL    HW126127   3.576  13.292  11.479
41410SOL    HW226128   3.559  13.236  11.340
41411SOL     OW26129   1.610   3.481   0.325
41411SOL    HW126130   1.572   3.412   0.270
41411SOL    HW226131   1.705   3.467   0.318
41412SOL     OW26132   1.706   6.768   4.405
41412SOL    HW126133   1.626   6.760   4.352
41412SOL    HW226134   1.769   6.710   4.362
41413SOL     OW26135   3.143   0.601   7.684
41413SOL    HW126136   3.126   0.677   7.740
41413SOL    HW226137   3.234   0.611   7.657
41414SOL     OW26138  12.332  10.733  10.229
41414SOL    HW126139  12.284  10.652  10.214
41414SOL    HW226140  12.266  10.802  10.222
41415SOL     OW26141   4.336  12.252   5.201
41415SOL    HW126142   4.336  12.289   5.289
41415SOL    HW226143   4.412  12.195   5.198
41416SOL     OW26144   9.413   0.588   3.003
41416SOL    HW126145   9.403   0.674   2.961
41416SOL    HW226146   9.382   0.601   3.092
41417SOL     OW26147   0.209  11.566  11.274
41417SOL    HW126148   0.229  11.658  11.288
41417SOL    HW226149   0.290  11.520  11.293
41418SOL     OW26150   4.316   6.588   9.878
41418SOL    HW126151   4.290   6.497   9.862
41418SOL    HW226152   4.268   6.639   9.812
41419SOL     OW26153  11.752   4.319   7.030
41419SOL    HW126154  11.784   4.301   6.942
41419SOL    HW226155  11.781   4.408   7.048
41420SOL     OW26156   9.349   0.536   6.748
41420SOL    HW126157   9.270   0.535   6.695
41420SOL    HW226158   9.333   0.603   6.814
41421SOL     OW26159   3.686  13.220  14.033
41421SOL    HW126160   3.732  13.250  14.112
41421SOL    HW226161   3.722  13.133  14.015
41422SOL     OW26162   4.215   0.569   3.956
41422SOL    HW126163   4.224   0.502   3.888
41422SOL    HW226164   4.145   0.626   3.924
41423SOL     OW26165  14.616   3.213   6.427
41423SOL    HW126166  14.555   3.242   6.360
41423SOL    HW226167  14.562   3.199   6.505
41424SOL     OW26168   7.806   4.532  14.207
41424SOL    HW126169   7.745   4.572  14.145
41424SOL    HW226170   7.823   4.600  14.271
41425SOL     OW26171  10.258  12.091   2.584
41425SOL    HW126172  10.250  12.116   2.676
41425SOL    HW226173  10.168  12.079   2.554
41426SOL     OW26174  12.493   2.991   1.746
41426SOL    HW126175  12.407   2.990   1.790
41426SOL    HW226176  12.472   2.976   1.654
41427SOL     OW26177   8.345  10.101   9.645
41427SOL    HW126178   8.380  10.182   9.609
41427SOL    HW226179   8.255  10.122   9.669
41428SOL     OW26180  14.799  14.845  13.510
41428SOL    HW126181  14.725  14.821  13.455
41428SOL    HW226182  14.787   0.064  13.527
41429SOL     OW26183  12.757   4.702  11.131
41429SOL    HW126184  12.825   4.725  11.068
41429SOL    HW226185  12.804   4.684  11.212
41430SOL     OW26186   9.098  13.627   8.791
41430SOL    HW126187   9.061  13.710   8.819
41430SOL    HW226188   9.081  13.567   8.863
41431SOL     OW26189  11.151   5.668   0.688
41431SOL    HW126190  11.137   5.761   0.707
41431SOL    HW226191  11.213   5.668   0.615
41432SOL     OW26192   9.247   6.432   2.203
41432SOL    HW126193   9.339   6.458   2.198
41432SOL    HW226194   9.211   6.486   2.273
41433SOL     OW26195  14.648   8.253  13.033
41433SOL    HW126196  14.689   8.226  12.950
41433SOL    HW226197  14.720   8.288  13.085
41434SOL     OW26198   7.563   6.351   7.992
41434SOL    HW126199   7.611   6.321   7.915
41434SOL    HW226200   7.477   6.309   7.984
41435SOL     OW26201   5.015  13.383   8.188
41435SOL    HW126202   5.039  13.350   8.101
41435SOL    HW226203   5.030  13.478   8.183
41436SOL     OW26204   6.776   1.314   0.851
41436SOL    HW126205   6.834   1.384   0.820
41436SOL    HW226206   6.812   1.234   0.813
41437SOL     OW26207  12.585   4.343   6.571
41437SOL    HW126208  12.528   4.365   6.498
41437SOL    HW226209  12.673   4.364   6.540
41438SOL     OW26210  12.292   4.864  10.544
41438SOL    HW126211  12.367   4.889  10.489
41438SOL    HW226212  12.331   4.835  10.626
41439SOL     OW26213  12.319   5.167   0.683
41439SOL    HW126214  12.239   5.124   0.653
41439SOL    HW226215  12.380   5.095   0.701
41440SOL     OW26216   3.484   7.995   2.808
41440SOL    HW126217   3.406   7.944   2.831
41440SOL    HW226218   3.557   7.942   2.839
41441SOL     OW26219  12.899   3.579  11.395
41441SOL    HW126220  12.868   3.522  11.325
41441SOL    HW226221  12.965   3.526  11.441
41442SOL     OW26222  14.617  11.165   5.118
41442SOL    HW126223  14.581  11.076   5.121
41442SOL    HW226224  14.691  11.159   5.057
41443SOL     OW26225  12.294   8.958   4.097
41443SOL    HW126226  12.340   8.941   4.014
41443SOL    HW226227  12.363   8.985   4.157
41444SOL     OW26228  14.685  10.888   6.695
41444SOL    HW126229  14.735  10.812   6.666
41444SOL    HW226230  14.713  10.959   6.637
41445SOL     OW26231  11.044   7.612   1.037
41445SOL    HW126232  11.068   7.682   0.977
41445SOL    HW226233  10.957   7.584   1.008
41446SOL     OW26234   4.829   3.827  10.786
41446SOL    HW126235   4.905   3.839  10.729
41446SOL    HW226236   4.857   3.863  10.870
41447SOL     OW26237   1.445   9.265   5.378
41447SOL    HW126238   1.396   9.185   5.393
41447SOL    HW226239   1.378   9.333   5.368
41448SOL     OW26240  12.330  11.241   9.815
41448SOL    HW126241  12.407  11.296   9.833
41448SOL    HW226242  12.264  11.272   9.877
41449SOL     OW26243   5.928   5.331   9.212
41449SOL    HW126244   5.998   5.281   9.254
41449SOL    HW226245   5.855   5.270   9.206
41450SOL     OW26246  10.129  11.332   0.513
41450SOL    HW126247  10.039  11.301   0.515
41450SOL    HW226248  10.128  11.415   0.559
41451SOL     OW26249   3.076   4.895   4.486
41451SOL    HW126250   3.142   4.961   4.507
41451SOL    HW226251   3.007   4.943   4.440
41452SOL     OW26252   9.147   9.007  10.238
41452SOL    HW126253   9.189   8.930  10.199
41452SOL    HW226254   9.208   9.034  10.307
41453SOL     OW26255   0.569   3.901   9.969
41453SOL    HW126256   0.549   3.842   9.897
41453SOL    HW226257   0.629   3.966   9.932
41454SOL     OW26258  10.348  10.002   7.644
41454SOL    HW126259  10.431   9.970   7.679
41454SOL    HW226260  10.302   9.924   7.615
41455SOL     OW26261   7.471   1.516   2.803
41455SOL    HW126262   7.491   1.474   2.886
41455SOL    HW226263   7.464   1.444   2.741
41456SOL     OW26264  12.819   3.718  10.945
41456SOL    HW126265  12.842   3.789  11.005
41456SOL    HW226266  12.885   3.651  10.961
41457SOL     OW26267  11.693   6.128   2.583
41457SOL    HW126268  11.752   6.054   2.571
41457SOL    HW226269  11.615   6.091   2.624
41458SOL     OW26270   6.567   6.355  11.642
41458SOL    HW126271   6.553   6.291  11.712
41458SOL    HW226272   6.566   6.440  11.686
41459SOL     OW26273  13.057  12.993   6.775
41459SOL    HW126274  12.992  12.952   6.833
41459SOL    HW226275  13.073  13.078   6.814
41460SOL     OW26276  13.481  11.297  14.056
41460SOL    HW126277  13.538  11.373  14.048
41460SOL    HW226278  13.448  11.282  13.967
41461SOL     OW26279   2.257   0.234   9.113
41461SOL    HW126280   2.345   0.216   9.079
41461SOL    HW226281   2.251   0.329   9.116
41462SOL     OW26282   0.915  12.843   4.085
41462SOL    HW126283   0.892  12.860   4.177
41462SOL    HW226284   1.001  12.885   4.074
41463SOL     OW26285  11.969   3.487   6.111
41463SOL    HW126286  11.930   3.572   6.130
41463SOL    HW226287  11.945   3.431   6.185
41464SOL     OW26288   7.714  13.359   8.487
41464SOL    HW126289   7.719  13.264   8.471
41464SOL    HW226290   7.806  13.385   8.497
41465SOL     OW26291   0.409  10.602   8.926
41465SOL    HW126292   0.355  10.627   9.000
41465SOL    HW226293   0.422  10.684   8.878
41466SOL     OW26294   5.840   9.266   2.332
41466SOL    HW126295   5.831   9.358   2.306
41466SOL    HW226296   5.924   9.261   2.377
41467SOL     OW26297   6.287  12.300   0.758
41467SOL    HW126298   6.350  12.313   0.687
41467SOL    HW226299   6.337  12.315   0.838
41468SOL     OW26300   5.665  10.429   6.352
41468SOL    HW126301   5.744  10.462   6.396
41468SOL    HW226302   5.661  10.476   6.269
41469SOL     OW26303  14.182   6.915  14.811
41469SOL    HW126304  14.152   6.941  14.724
41469SOL    HW226305  14.112   6.858  14.844
41470SOL     OW26306  14.756  12.528   0.342
41470SOL    HW126307  14.708  12.471   0.401
41470SOL    HW226308  14.794  12.595   0.398
41471SOL     OW26309   0.839  14.394  14.329
41471SOL    HW126310   0.860  14.430  14.243
41471SOL    HW226311   0.913  14.421  14.385
41472SOL     OW26312  11.579   9.825   9.132
41472SOL    HW126313  11.534   9.872   9.062
41472SOL    HW226314  11.619   9.749   9.089
41473SOL     OW26315  14.582   6.166  11.501
41473SOL    HW126316  14.635   6.119  11.567
41473SOL    HW226317  14.633   6.160  11.421
41474SOL     OW26318  12.195   8.773   0.984
41474SOL    HW126319  12.172   8.748   1.074
41474SOL    HW226320  12.187   8.693   0.934
41475SOL     OW26321   0.375   2.729  11.184
41475SOL    HW126322   0.447   2.742  11.245
41475SOL    HW226323   0.408   2.762  11.100
41476SOL     OW26324  11.720   6.222  12.885
41476SOL    HW126325  11.633   6.201  12.919
41476SOL    HW226326  11.754   6.286  12.947
41477SOL     OW26327   0.102   7.799  13.747
41477SOL    HW126328   0.047   7.877  13.750
41477SOL    HW226329   0.052   7.737  13.695
41478SOL     OW26330   0.538  14.238   1.517
41478SOL    HW126331   0.614  14.223   1.462
41478SOL    HW226332   0.478  14.288   1.462
41479SOL     OW26333  13.830  14.784   8.356
41479SOL    HW126334  13.912  14.833   8.356
41479SOL    HW226335  13.823  14.749   8.267
41480SOL     OW26336   1.968  12.690   1.351
41480SOL    HW126337   2.053  12.676   1.310
41480SOL    HW226338   1.976  12.651   1.438
41481SOL     OW26339  14.031   2.348   6.173
41481SOL    HW126340  14.016   2.263   6.213
41481SOL    HW226341  13.984   2.410   6.229
41482SOL     OW26342   7.240   2.568  11.195
41482SOL    HW126343   7.303   2.524  11.138
41482SOL    HW226344   7.256   2.531  11.282
41483SOL     OW26345  12.287  14.143  12.870
41483SOL    HW126346  12.382  14.147  12.883
41483SOL    HW226347  12.267  14.220  12.817
41484SOL     OW26348  12.162  14.790   8.367
41484SOL    HW126349  12.095  14.723   8.379
41484SOL    HW226350  12.193  14.777   8.277
41485SOL     OW26351   2.973   3.082   3.189
41485SOL    HW126352   2.908   3.152   3.199
41485SOL    HW226353   2.960   3.026   3.266
41486SOL     OW26354  14.726  12.428   2.690
41486SOL    HW126355  14.635  12.454   2.679
41486SOL    HW226356  14.768  12.504   2.730
41487SOL     OW26357  13.153  14.724   5.706
41487SOL    HW126358  13.240  14.762   5.720
41487SOL    HW226359  13.093  14.798   5.716
41488SOL     OW26360  11.809  13.750  11.494
41488SOL    HW126361  11.900  13.780  11.504
41488SOL    HW226362  11.758  13.830  11.487
41489SOL     OW26363  10.361  12.646   5.418
41489SOL    HW126364  10.323  12.578   5.362
41489SOL    HW226365  10.452  12.654   5.388
41490SOL     OW26366   9.430   4.914   5.503
41490SOL    HW126367   9.365   4.877   5.562
41490SOL    HW226368   9.388   4.911   5.417
41491SOL     OW26369  12.695   7.964  10.892
41491SOL    HW126370  12.621   7.910  10.920
41491SOL    HW226371  12.739   7.912  10.826
41492SOL     OW26372   5.306   3.796   5.533
41492SOL    HW126373   5.252   3.721   5.509
41492SOL    HW226374   5.378   3.794   5.469
41493SOL     OW26375   2.496   4.320   5.274
41493SOL    HW126376   2.507   4.396   5.332
41493SOL    HW226377   2.458   4.357   5.194
41494SOL     OW26378  10.924   1.347   0.904
41494SOL    HW126379  10.897   1.262   0.940
41494SOL    HW226380  11.013   1.332   0.872
41495SOL     OW26381  11.060   4.314   5.232
41495SOL    HW126382  11.080   4.323   5.139
41495SOL    HW226383  11.066   4.403   5.267
41496SOL     OW26384  14.869  14.732  14.034
41496SOL    HW126385  14.794  14.749  13.977
41496SOL    HW226386  14.832  14.731  14.122
41497SOL     OW26387   7.996  12.280   0.140
41497SOL    HW126388   8.058  12.318   0.078
41497SOL    HW226389   7.919  12.260   0.087
41498SOL     OW26390   5.092  10.558   1.348
41498SOL    HW126391   5.070  10.609   1.270
41498SOL    HW226392   5.092  10.467   1.318
41499SOL     OW26393  10.537   2.005   8.999
41499SOL    HW126394  10.570   1.969   9.081
41499SOL    HW226395  10.474   2.072   9.025
41500SOL     OW26396  12.337  14.376  12.660
41500SOL    HW126397  12.413  14.406  12.709
41500SOL    HW226398  12.338  14.427  12.579
41501SOL     OW26399   6.365   3.013  13.198
41501SOL    HW126400   6.285   2.985  13.155
41501SOL    HW226401   6.337   3.037  13.287
41502SOL     OW26402   1.096   0.225   8.091
41502SOL    HW126403   1.085   0.209   7.997
41502SOL    HW226404   1.055   0.150   8.134
41503SOL     OW26405  13.622  13.673   9.693
41503SOL    HW126406  13.699  13.616   9.693
41503SOL    HW226407  13.633  13.728   9.770
41504SOL     OW26408   3.102   9.726   0.820
41504SOL    HW126409   3.019   9.682   0.801
41504SOL    HW226410   3.112   9.719   0.915
41505SOL     OW26411  14.529   0.603   0.039
41505SOL    HW126412  14.575   0.654  14.848
41505SOL    HW226413  14.519   0.516   0.001
41506SOL     OW26414   2.735  11.581   9.818
41506SOL    HW126415   2.686  11.662   9.830
41506SOL    HW226416   2.675  11.524   9.769
41507SOL     OW26417  13.905   7.537   8.685
41507SOL    HW126418  13.906   7.584   8.769
41507SOL    HW226419  13.837   7.580   8.634
41508SOL     OW26420   1.373   5.824   5.219
41508SOL    HW126421   1.389   5.885   5.291
41508SOL    HW226422   1.328   5.877   5.153
41509SOL     OW26423   6.130   8.583  13.048
41509SOL    HW126424   6.065   8.513  13.061
41509SOL    HW226425   6.183   8.552  12.975
41510SOL     OW26426   5.153   4.194   2.397
41510SOL    HW126427   5.134   4.137   2.322
41510SOL    HW226428   5.192   4.136   2.462
41511SOL     OW26429   3.282   7.668   7.621
41511SOL    HW126430   3.329   7.620   7.552
41511SOL    HW226431   3.265   7.602   7.688
41512SOL     OW26432   5.361   4.236  12.357
41512SOL    HW126433   5.315   4.169  12.306
41512SOL    HW226434   5.449   4.239  12.319
41513SOL     OW26435   3.751  12.076   0.732
41513SOL    HW126436   3.741  12.155   0.785
41513SOL    HW226437   3.707  12.097   0.649
41514SOL     OW26438   2.563  13.693   5.208
41514SOL    HW126439   2.640  13.646   5.240
41514SOL    HW226440   2.512  13.627   5.162
41515SOL     OW26441   9.986  14.272   0.758
41515SOL    HW126442   9.892  14.257   0.745
41515SOL    HW226443   9.993  14.365   0.780
41516SOL     OW26444   3.247   0.291   9.673
41516SOL    HW126445   3.164   0.333   9.651
41516SOL    HW226446   3.303   0.363   9.701
41517SOL     OW26447   8.379  11.252   6.191
41517SOL    HW126448   8.334  11.333   6.213
41517SOL    HW226449   8.312  11.184   6.204
41518SOL     OW26450   1.609   3.729   0.212
41518SOL    HW126451   1.608   3.663   0.281
41518SOL    HW226452   1.540   3.791   0.237
41519SOL     OW26453   2.092  14.518  14.785
41519SOL    HW126454   2.180  14.483  14.776
41519SOL    HW226455   2.059  14.479  14.866
41520SOL     OW26456  12.565   3.198   0.757
41520SOL    HW126457  12.579   3.286   0.792
41520SOL    HW226458  12.516   3.153   0.827
41521SOL     OW26459   3.733   0.319   6.644
41521SOL    HW126460   3.691   0.344   6.561
41521SOL    HW226461   3.795   0.389   6.662
41522SOL     OW26462  10.622   6.920  12.519
41522SOL    HW126463  10.627   6.920  12.424
41522SOL    HW226464  10.639   6.829  12.544
41523SOL     OW26465   8.550  10.092   7.332
41523SOL    HW126466   8.497  10.169   7.310
41523SOL    HW226467   8.504  10.053   7.407
41524SOL     OW26468   4.647   0.146   7.162
41524SOL    HW126469   4.721   0.096   7.127
41524SOL    HW226470   4.573   0.118   7.109
41525SOL     OW26471  12.559  14.350  11.015
41525SOL    HW126472  12.621  14.417  10.988
41525SOL    HW226473  12.510  14.330  10.935
41526SOL     OW26474   5.322  13.050   9.219
41526SOL    HW126475   5.228  13.042   9.232
41526SOL    HW226476   5.335  13.140   9.190
41527SOL     OW26477  10.570  11.605   0.464
41527SOL    HW126478  10.576  11.616   0.559
41527SOL    HW226479  10.574  11.510   0.451
41528SOL     OW26480   2.982  12.185   9.398
41528SOL    HW126481   2.910  12.168   9.337
41528SOL    HW226482   3.021  12.266   9.367
41529SOL     OW26483  14.313  11.961  10.200
41529SOL    HW126484  14.351  11.907  10.270
41529SOL    HW226485  14.283  12.039  10.245
41530SOL     OW26486   3.805  10.358   3.119
41530SOL    HW126487   3.720  10.314   3.111
41530SOL    HW226488   3.804  10.398   3.206
41531SOL     OW26489  10.058   6.358   2.098
41531SOL    HW126490  10.150   6.366   2.123
41531SOL    HW226491  10.038   6.441   2.054
41532SOL     OW26492   0.599  10.797  12.639
41532SOL    HW126493   0.631  10.772  12.726
41532SOL    HW226494   0.507  10.770  12.639
41533SOL     OW26495  11.350   4.608   9.048
41533SOL    HW126496  11.416   4.668   9.013
41533SOL    HW226497  11.317   4.651   9.126
41534SOL     OW26498   0.554   3.838   0.013
41534SOL    HW126499   0.550   3.748  14.855
41534SOL    HW226500   0.640   3.870  14.861
41535SOL     OW26501  14.429   0.109  11.915
41535SOL    HW126502  14.503   0.068  11.958
41535SOL    HW226503  14.447   0.099  11.821
41536SOL     OW26504   4.671  12.693   9.753
41536SOL    HW126505   4.757  12.651   9.749
41536SOL    HW226506   4.609  12.621   9.751
41537SOL     OW26507   3.178   4.964  14.254
41537SOL    HW126508   3.195   4.870  14.252
41537SOL    HW226509   3.086   4.970  14.281
41538SOL     OW26510  11.972   3.126   9.411
41538SOL    HW126511  12.023   3.093   9.484
41538SOL    HW226512  11.882   3.103   9.431
41539SOL     OW26513   1.376  13.676   2.511
41539SOL    HW126514   1.470  13.682   2.532
41539SOL    HW226515   1.371  13.699   2.418
41540SOL     OW26516   0.001   3.928   8.877
41540SOL    HW126517   0.089   3.930   8.915
41540SOL    HW226518  14.818   3.957   8.947
41541SOL     OW26519   7.888  12.724   0.187
41541SOL    HW126520   7.954  12.658   0.167
41541SOL    HW226521   7.819  12.711   0.121
41542SOL     OW26522  10.698   4.383   9.749
41542SOL    HW126523  10.631   4.450   9.747
41542SOL    HW226524  10.749   4.396   9.669
41543SOL     OW26525  12.778   9.318  12.285
41543SOL    HW126526  12.700   9.330  12.231
41543SOL    HW226527  12.744   9.307  12.374
41544SOL     OW26528  12.100   4.268   6.374
41544SOL    HW126529  12.084   4.211   6.298
41544SOL    HW226530  12.133   4.208   6.441
41545SOL     OW26531  12.987   9.917   4.293
41545SOL    HW126532  12.994   9.822   4.297
41545SOL    HW226533  13.074   9.946   4.265
41546SOL     OW26534   3.471   4.093   0.894
41546SOL    HW126535   3.448   4.003   0.917
41546SOL    HW226536   3.567   4.093   0.889
41547SOL     OW26537   4.774   5.118  11.587
41547SOL    HW126538   4.767   5.080  11.500
41547SOL    HW226539   4.714   5.193  11.586
41548SOL     OW26540  10.099  13.985  10.759
41548SOL    HW126541  10.081  14.014  10.670
41548SOL    HW226542  10.013  13.982  10.801
41549SOL     OW26543  10.078   9.267   2.254
41549SOL    HW126544  10.152   9.293   2.309
41549SOL    HW226545  10.089   9.173   2.242
41550SOL     OW26546   3.866   5.849   0.908
41550SOL    HW126547   3.945   5.798   0.922
41550SOL    HW226548   3.798   5.801   0.956
41551SOL     OW26549  11.462   5.308   5.875
41551SOL    HW126550  11.374   5.335   5.903
41551SOL    HW226551  11.504   5.277   5.955
41552SOL     OW26552  10.324   1.566   8.911
41552SOL    HW126553  10.254   1.528   8.964
41552SOL    HW226554  10.343   1.499   8.845
41553SOL     OW26555  10.906  13.966   9.073
41553SOL    HW126556  10.927  14.040   9.130
41553SOL    HW226557  10.854  14.004   9.002
41554SOL     OW26558   5.495  13.217   3.253
41554SOL    HW126559   5.498  13.220   3.157
41554SOL    HW226560   5.416  13.267   3.276
41555SOL     OW26561  12.678   2.270   4.310
41555SOL    HW126562  12.714   2.185   4.285
41555SOL    HW226563  12.710   2.331   4.244
41556SOL     OW26564   2.242   0.368  11.751
41556SOL    HW126565   2.267   0.400  11.837
41556SOL    HW226566   2.146   0.376  11.750
41557SOL     OW26567  11.260   2.429   3.589
41557SOL    HW126568  11.213   2.489   3.531
41557SOL    HW226569  11.256   2.470   3.675
41558SOL     OW26570   2.101   0.314   8.800
41558SOL    HW126571   2.052   0.396   8.788
41558SOL    HW226572   2.191   0.336   8.774
41559SOL     OW26573  10.332  13.608   1.543
41559SOL    HW126574  10.306  13.683   1.489
41559SOL    HW226575  10.428  13.606   1.535
41560SOL     OW26576   9.308   7.502  11.353
41560SOL    HW126577   9.236   7.458  11.398
41560SOL    HW226578   9.270   7.529  11.269
41561SOL     OW26579   1.810   9.930  13.658
41561SOL    HW126580   1.836   9.972  13.740
41561SOL    HW226581   1.715   9.934  13.657
41562SOL     OW26582   7.373  10.044  12.440
41562SOL    HW126583   7.308  10.083  12.499
41562SOL    HW226584   7.359   9.950  12.448
41563SOL     OW26585   0.674  13.748  13.140
41563SOL    HW126586   0.612  13.795  13.084
41563SOL    HW226587   0.621  13.716  13.213
41564SOL     OW26588  12.282   7.840  13.458
41564SOL    HW126589  12.210   7.802  13.508
41564SOL    HW226590  12.240   7.882  13.383
41565SOL     OW26591  10.379   8.168   5.607
41565SOL    HW126592  10.380   8.098   5.542
41565SOL    HW226593  10.290   8.204   5.602
41566SOL     OW26594   6.204   2.835   1.870
41566SOL    HW126595   6.259   2.768   1.831
41566SOL    HW226596   6.265   2.891   1.918
41567SOL     OW26597   2.180   7.350   9.586
41567SOL    HW126598   2.261   7.300   9.582
41567SOL    HW226599   2.111   7.283   9.588
41568SOL     OW26600  10.635  12.310   1.013
41568SOL    HW126601  10.593  12.378   0.960
41568SOL    HW226602  10.685  12.358   1.079
41569SOL     OW26603   9.503   4.952   7.410
41569SOL    HW126604   9.574   5.003   7.448
41569SOL    HW226605   9.452   5.016   7.360
41570SOL     OW26606   5.826   7.743   2.985
41570SOL    HW126607   5.810   7.661   3.031
41570SOL    HW226608   5.921   7.755   2.991
41571SOL     OW26609   1.739   6.301  13.078
41571SOL    HW126610   1.667   6.352  13.117
41571SOL    HW226611   1.695   6.240  13.019
41572SOL     OW26612   3.587  11.236   5.766
41572SOL    HW126613   3.550  11.253   5.679
41572SOL    HW226614   3.643  11.312   5.783
41573SOL     OW26615   9.080  13.302   4.817
41573SOL    HW126616   9.156  13.359   4.802
41573SOL    HW226617   9.081  13.241   4.743
41574SOL     OW26618  11.167   7.237  10.199
41574SOL    HW126619  11.158   7.225  10.294
41574SOL    HW226620  11.257   7.211  10.181
41575SOL     OW26621   6.137  10.400   8.526
41575SOL    HW126622   6.075  10.446   8.582
41575SOL    HW226623   6.099  10.313   8.515
41576SOL     OW26624  10.598   7.081  14.802
41576SOL    HW126625  10.684   7.049  14.829
41576SOL    HW226626  10.536   7.038  14.861
41577SOL     OW26627  12.846   6.809  10.735
41577SOL    HW126628  12.839   6.864  10.657
41577SOL    HW226629  12.846   6.719  10.700
41578SOL     OW26630   5.029   0.915   3.619
41578SOL    HW126631   5.119   0.920   3.651
41578SOL    HW226632   5.038   0.891   3.527
41579SOL     OW26633   2.496   3.140   9.159
41579SOL    HW126634   2.502   3.176   9.071
41579SOL    HW226635   2.435   3.067   9.151
41580SOL     OW26636  10.994  11.235   6.337
41580SOL    HW126637  11.020  11.254   6.427
41580SOL    HW226638  11.067  11.185   6.301
41581SOL     OW26639  13.750  13.951  11.659
41581SOL    HW126640  13.673  13.967  11.713
41581SOL    HW226641  13.715  13.922  11.575
41582SOL     OW26642  14.575   2.835   3.402
41582SOL    HW126643  14.488   2.804   3.378
41582SOL    HW226644  14.564   2.875   3.488
41583SOL     OW26645   3.745  14.814   7.515
41583SOL    HW126646   3.760  14.722   7.493
41583SOL    HW226647   3.813  14.861   7.466
41584SOL     OW26648  11.614  13.973   1.214
41584SOL    HW126649  11.566  13.903   1.170
41584SOL    HW226650  11.656  13.930   1.289
41585SOL     OW26651  11.556   3.263  13.133
41585SOL    HW126652  11.614   3.296  13.201
41585SOL    HW226653  11.598   3.288  13.051
41586SOL     OW26654  13.147   7.600   2.111
41586SOL    HW126655  13.225   7.651   2.134
41586SOL    HW226656  13.182   7.523   2.066
41587SOL     OW26657   7.827   2.836   5.327
41587SOL    HW126658   7.890   2.843   5.400
41587SOL    HW226659   7.881   2.835   5.249
41588SOL     OW26660   5.249   5.742  11.571
41588SOL    HW126661   5.300   5.700  11.501
41588SOL    HW226662   5.159   5.741  11.538
41589SOL     OW26663   6.315   8.957   6.230
41589SOL    HW126664   6.228   8.936   6.263
41589SOL    HW226665   6.319   8.914   6.144
41590SOL     OW26666  11.290   0.405  12.438
41590SOL    HW126667  11.359   0.464  12.468
41590SOL    HW226668  11.328   0.318  12.445
41591SOL     OW26669  10.622   4.891  13.457
41591SOL    HW126670  10.650   4.969  13.408
41591SOL    HW226671  10.637   4.819  13.396
41592SOL     OW26672   3.139   0.747  11.620
41592SOL    HW126673   3.097   0.811  11.563
41592SOL    HW226674   3.095   0.757  11.704
41593SOL     OW26675  12.379   0.498   1.900
41593SOL    HW126676  12.385   0.477   1.807
41593SOL    HW226677  12.363   0.593   1.902
41594SOL     OW26678   6.079  14.404   7.248
41594SOL    HW126679   6.007  14.451   7.204
41594SOL    HW226680   6.067  14.423   7.341
41595SOL     OW26681   6.781  12.491   5.863
41595SOL    HW126682   6.873  12.489   5.888
41595SOL    HW226683   6.734  12.497   5.946
41596SOL     OW26684  13.934   3.587   4.203
41596SOL    HW126685  13.889   3.552   4.126
41596SOL    HW226686  13.933   3.515   4.266
41597SOL     OW26687   2.231  11.377  12.667
41597SOL    HW126688   2.220  11.472  12.666
41597SOL    HW226689   2.178  11.345  12.594
41598SOL     OW26690  10.469   2.240  12.640
41598SOL    HW126691  10.490   2.227  12.547
41598SOL    HW226692  10.552   2.268  12.680
41599SOL     OW26693   5.725   9.152   1.522
41599SOL    HW126694   5.671   9.179   1.596
41599SOL    HW226695   5.760   9.233   1.486
41600SOL     OW26696   6.755   2.851   4.051
41600SOL    HW126697   6.727   2.840   3.960
41600SOL    HW226698   6.695   2.916   4.087
41601SOL     OW26699   2.900  10.795  13.556
41601SOL    HW126700   2.881  10.710  13.595
41601SOL    HW226701   2.995  10.803  13.559
41602SOL     OW26702  13.504  13.139  11.206
41602SOL    HW126703  13.498  13.168  11.297
41602SOL    HW226704  13.470  13.213  11.155
41603SOL     OW26705  10.762   1.493   7.970
41603SOL    HW126706  10.713   1.559   7.920
41603SOL    HW226707  10.787   1.428   7.905
41604SOL     OW26708   0.598  13.205   6.376
41604SOL    HW126709   0.604  13.266   6.303
41604SOL    HW226710   0.504  13.185   6.383
41605SOL     OW26711  12.637   1.668  13.345
41605SOL    HW126712  12.612   1.576  13.335
41605SOL    HW226713  12.671   1.693  13.259
41606SOL     OW26714  13.829   2.996  10.221
41606SOL    HW126715  13.783   3.079  10.206
41606SOL    HW226716  13.856   3.000  10.313
41607SOL     OW26717   6.249   3.657   1.367
41607SOL    HW126718   6.209   3.662   1.454
41607SOL    HW226719   6.270   3.564   1.356
41608SOL     OW26720   4.289  10.107   8.416
41608SOL    HW126721   4.369  10.145   8.379
41608SOL    HW226722   4.261  10.042   8.352
41609SOL     OW26723   5.214   8.628   5.615
41609SOL    HW126724   5.309   8.625   5.602
41609SOL    HW226725   5.202   8.601   5.706
41610SOL     OW26726  11.033  12.122  14.535
41610SOL    HW126727  11.016  12.196  14.594
41610SOL    HW226728  11.010  12.045  14.586
41611SOL     OW26729   0.368   0.582  11.944
41611SOL    HW126730   0.420   0.662  11.941
41611SOL    HW226731   0.295   0.603  12.003
41612SOL     OW26732   6.132   8.466   9.937
41612SOL    HW126733   6.040   8.484   9.915
41612SOL    HW226734   6.133   8.463  10.033
41613SOL     OW26735   9.643  10.321   3.494
41613SOL    HW126736   9.702  10.338   3.420
41613SOL    HW226737   9.589  10.400   3.501
41614SOL     OW26738  11.281  12.269   1.837
41614SOL    HW126739  11.229  12.215   1.778
41614SOL    HW226740  11.257  12.240   1.925
41615SOL     OW26741  11.385   8.383   2.666
41615SOL    HW126742  11.321   8.312   2.673
41615SOL    HW226743  11.332   8.463   2.663
41616SOL     OW26744   9.574   5.816   3.759
41616SOL    HW126745   9.544   5.864   3.836
41616SOL    HW226746   9.534   5.861   3.685
41617SOL     OW26747   4.822  14.446   6.453
41617SOL    HW126748   4.738  14.463   6.408
41617SOL    HW226749   4.878  14.409   6.385
41618SOL     OW26750  13.256   1.838  14.314
41618SOL    HW126751  13.167   1.874  14.321
41618SOL    HW226752  13.313   1.914  14.318
41619SOL     OW26753   6.469   1.257   5.264
41619SOL    HW126754   6.407   1.239   5.334
41619SOL    HW226755   6.514   1.173   5.250
41620SOL     OW26756   2.503  11.013   8.693
41620SOL    HW126757   2.413  10.984   8.676
41620SOL    HW226758   2.496  11.064   8.774
41621SOL     OW26759   8.163   7.441   7.057
41621SOL    HW126760   8.179   7.481   6.972
41621SOL    HW226761   8.093   7.377   7.041
41622SOL     OW26762   3.252  11.074   5.681
41622SOL    HW126763   3.292  11.151   5.721
41622SOL    HW226764   3.164  11.101   5.658
41623SOL     OW26765   6.209   9.536  11.664
41623SOL    HW126766   6.161   9.469  11.615
41623SOL    HW226767   6.301   9.517  11.647
41624SOL     OW26768  10.547   4.690   5.502
41624SOL    HW126769  10.587   4.689   5.415
41624SOL    HW226770  10.488   4.615   5.502
41625SOL     OW26771  12.690   7.133   3.867
41625SOL    HW126772  12.637   7.148   3.946
41625SOL    HW226773  12.649   7.187   3.800
41626SOL     OW26774   8.233  10.668   8.104
41626SOL    HW126775   8.178  10.742   8.130
41626SOL    HW226776   8.322  10.698   8.118
41627SOL     OW26777   2.621   4.472   2.528
41627SOL    HW126778   2.700   4.507   2.568
41627SOL    HW226779   2.632   4.377   2.531
41628SOL     OW26780   6.766   9.819  13.449
41628SOL    HW126781   6.741   9.909  13.429
41628SOL    HW226782   6.861   9.820  13.450
41629SOL     OW26783   5.639  10.036   6.188
41629SOL    HW126784   5.719  10.043   6.240
41629SOL    HW226785   5.611  10.127   6.175
41630SOL     OW26786   6.823   4.787  10.203
41630SOL    HW126787   6.845   4.719  10.139
41630SOL    HW226788   6.900   4.843  10.207
41631SOL     OW26789   5.708   2.813   2.503
41631SOL    HW126790   5.658   2.808   2.584
41631SOL    HW226791   5.760   2.893   2.511
41632SOL     OW26792   8.717  14.293   7.872
41632SOL    HW126793   8.794  14.321   7.823
41632SOL    HW226794   8.746  14.216   7.921
41633SOL     OW26795   9.257  14.098   5.867
41633SOL    HW126796   9.325  14.120   5.931
41633SOL    HW226797   9.175  14.101   5.917
41634SOL     OW26798  10.071  10.330   2.153
41634SOL    HW126799  10.140  10.341   2.218
41634SOL    HW226800  10.050  10.419   2.124
41635SOL     OW26801   1.577   9.062   2.803
41635SOL    HW126802   1.648   9.125   2.809
41635SOL    HW226803   1.532   9.068   2.887
41636SOL     OW26804   6.344   7.849  13.177
41636SOL    HW126805   6.262   7.827  13.220
41636SOL    HW226806   6.397   7.770  13.183
41637SOL     OW26807   0.717  14.506  11.501
41637SOL    HW126808   0.796  14.482  11.453
41637SOL    HW226809   0.646  14.490  11.438
41638SOL     OW26810  14.280  10.875   1.183
41638SOL    HW126811  14.317  10.819   1.115
41638SOL    HW226812  14.288  10.964   1.148
41639SOL     OW26813   8.025   0.217   3.786
41639SOL    HW126814   8.028   0.165   3.706
41639SOL    HW226815   8.110   0.259   3.790
41640SOL     OW26816   2.513   0.549   2.711
41640SOL    HW126817   2.445   0.592   2.659
41640SOL    HW226818   2.503   0.456   2.691
41641SOL     OW26819  14.251  13.800   7.018
41641SOL    HW126820  14.267  13.869   7.082
41641SOL    HW226821  14.241  13.721   7.071
41642SOL     OW26822  14.325   6.502   8.852
41642SOL    HW126823  14.343   6.514   8.945
41642SOL    HW226824  14.351   6.411   8.834
41643SOL     OW26825   6.620  10.056  11.945
41643SOL    HW126826   6.652  10.133  11.991
41643SOL    HW226827   6.665   9.982  11.986
41644SOL     OW26828   8.501   5.348   7.105
41644SOL    HW126829   8.507   5.279   7.172
41644SOL    HW226830   8.544   5.311   7.028
41645SOL     OW26831   5.252   7.838   5.297
41645SOL    HW126832   5.310   7.913   5.314
41645SOL    HW226833   5.280   7.804   5.212
41646SOL     OW26834   8.737   2.517  11.311
41646SOL    HW126835   8.683   2.596  11.306
41646SOL    HW226836   8.705   2.461  11.240
41647SOL     OW26837  13.535  10.257   8.162
41647SOL    HW126838  13.597  10.232   8.094
41647SOL    HW226839  13.539  10.353   8.164
41648SOL     OW26840  14.816   8.338  11.437
41648SOL    HW126841  14.733   8.347  11.484
41648SOL    HW226842  14.796   8.363  11.347
41649SOL     OW26843   4.858  12.636  11.039
41649SOL    HW126844   4.926  12.639  11.106
41649SOL    HW226845   4.893  12.579  10.971
41650SOL     OW26846   3.629  12.929   4.878
41650SOL    HW126847   3.696  12.987   4.842
41650SOL    HW226848   3.560  12.988   4.907
41651SOL     OW26849  13.826   4.321   0.956
41651SOL    HW126850  13.802   4.320   0.863
41651SOL    HW226851  13.766   4.384   0.996
41652SOL     OW26852   9.420  11.303   9.215
41652SOL    HW126853   9.393  11.240   9.282
41652SOL    HW226854   9.458  11.249   9.145
41653SOL     OW26855  13.769   5.556  10.421
41653SOL    HW126856  13.835   5.579  10.486
41653SOL    HW226857  13.726   5.639  10.400
41654SOL     OW26858  14.258  12.987   2.717
41654SOL    HW126859  14.281  12.992   2.810
41654SOL    HW226860  14.190  13.053   2.706
41655SOL     OW26861  11.601   7.534  14.297
41655SOL    HW126862  11.537   7.606  14.303
41655SOL    HW226863  11.553   7.463  14.255
41656SOL     OW26864  12.714   5.923   8.305
41656SOL    HW126865  12.787   5.974   8.341
41656SOL    HW226866  12.722   5.837   8.347
41657SOL     OW26867   9.989  14.064  12.236
41657SOL    HW126868  10.040  14.146  12.235
41657SOL    HW226869   9.906  14.088  12.276
41658SOL     OW26870   1.415  10.939   0.418
41658SOL    HW126871   1.353  10.882   0.373
41658SOL    HW226872   1.364  10.979   0.489
41659SOL     OW26873   3.368   2.721   4.072
41659SOL    HW126874   3.365   2.753   3.982
41659SOL    HW226875   3.311   2.781   4.121
41660SOL     OW26876  11.669   5.741  14.482
41660SOL    HW126877  11.696   5.656  14.516
41660SOL    HW226878  11.672   5.730  14.386
41661SOL     OW26879   4.047  10.940   2.856
41661SOL    HW126880   3.956  10.936   2.882
41661SOL    HW226881   4.050  10.894   2.772
41662SOL     OW26882  10.113   2.115  11.421
41662SOL    HW126883  10.064   2.033  11.417
41662SOL    HW226884  10.195   2.092  11.465
41663SOL     OW26885   4.256   1.083   7.578
41663SOL    HW126886   4.271   0.990   7.593
41663SOL    HW226887   4.273   1.125   7.663
41664SOL     OW26888   5.120   7.259   6.277
41664SOL    HW126889   5.067   7.200   6.224
41664SOL    HW226890   5.085   7.249   6.366
41665SOL     OW26891   1.052   8.743   7.823
41665SOL    HW126892   1.110   8.710   7.754
41665SOL    HW226893   0.992   8.670   7.840
41666SOL     OW26894   4.893   5.066   7.627
41666SOL    HW126895   4.968   5.010   7.611
41666SOL    HW226896   4.832   5.011   7.676
41667SOL     OW26897  11.028   4.555  12.655
41667SOL    HW126898  10.948   4.514  12.624
41667SOL    HW226899  11.098   4.497  12.626
41668SOL     OW26900   6.559   1.296  11.708
41668SOL    HW126901   6.505   1.357  11.659
41668SOL    HW226902   6.539   1.314  11.800
41669SOL     OW26903   7.123  10.578   0.097
41669SOL    HW126904   7.128  10.645   0.165
41669SOL    HW226905   7.029  10.563   0.085
41670SOL     OW26906   0.198   9.532   6.369
41670SOL    HW126907   0.190   9.443   6.335
41670SOL    HW226908   0.276   9.531   6.424
41671SOL     OW26909  12.716   7.246  10.294
41671SOL    HW126910  12.622   7.262  10.290
41671SOL    HW226911  12.744   7.285  10.377
41672SOL     OW26912   4.959   1.730   3.543
41672SOL    HW126913   4.889   1.699   3.600
41672SOL    HW226914   4.962   1.825   3.556
41673SOL     OW26915   5.303  13.933  11.162
41673SOL    HW126916   5.314  13.974  11.076
41673SOL    HW226917   5.373  13.971  11.215
41674SOL     OW26918   1.331  10.976  13.748
41674SOL    HW126919   1.298  11.045  13.691
41674SOL    HW226920   1.405  10.938  13.700
41675SOL     OW26921   6.062   8.936   7.620
41675SOL    HW126922   6.005   8.935   7.543
41675SOL    HW226923   6.017   8.881   7.683
41676SOL     OW26924  11.292  12.305  10.255
41676SOL    HW126925  11.331  12.247  10.189
41676SOL    HW226926  11.364  12.364  10.280
41677SOL     OW26927   4.791  12.437   5.806
41677SOL    HW126928   4.785  12.376   5.732
41677SOL    HW226929   4.780  12.382   5.883
41678SOL     OW26930   7.735   6.868   9.123
41678SOL    HW126931   7.760   6.958   9.143
41678SOL    HW226932   7.817   6.820   9.118
41679SOL     OW26933   7.579  14.793  14.132
41679SOL    HW126934   7.668  14.767  14.157
41679SOL    HW226935   7.579  14.792  14.036
41680SOL     OW26936   8.639   9.739   6.018
41680SOL    HW126937   8.561   9.788   6.044
41680SOL    HW226938   8.656   9.767   5.928
41681SOL     OW26939   7.776   3.287  14.672
41681SOL    HW126940   7.823   3.368  14.687
41681SOL    HW226941   7.684   3.314  14.662
41682SOL     OW26942   2.126  10.487  13.344
41682SOL    HW126943   2.158  10.499  13.255
41682SOL    HW226944   2.158  10.563  13.392
41683SOL     OW26945   0.892  12.897   8.456
41683SOL    HW126946   0.864  12.848   8.379
41683SOL    HW226947   0.818  12.954   8.478
41684SOL     OW26948   4.718   4.061  10.432
41684SOL    HW126949   4.653   4.083  10.365
41684SOL    HW226950   4.697   3.972  10.458
41685SOL     OW26951  14.289   7.535  11.110
41685SOL    HW126952  14.254   7.538  11.021
41685SOL    HW226953  14.297   7.441  11.129
41686SOL     OW26954   2.959  10.292  12.206
41686SOL    HW126955   3.038  10.325  12.163
41686SOL    HW226956   2.974  10.197  12.214
41687SOL     OW26957   5.692   6.674  10.187
41687SOL    HW126958   5.700   6.633  10.101
41687SOL    HW226959   5.683   6.767  10.168
41688SOL     OW26960  11.599   8.836  13.073
41688SOL    HW126961  11.684   8.878  13.081
41688SOL    HW226962  11.611   8.768  13.008
41689SOL     OW26963  11.300  13.155   5.577
41689SOL    HW126964  11.292  13.250   5.570
41689SOL    HW226965  11.367  13.132   5.513
41690SOL     OW26966   7.169   1.376  13.192
41690SOL    HW126967   7.122   1.307  13.145
41690SOL    HW226968   7.242   1.399  13.134
41691SOL     OW26969   6.548   5.823   7.859
41691SOL    HW126970   6.481   5.858   7.918
41691SOL    HW226971   6.561   5.733   7.888
41692SOL     OW26972   3.306   0.813   0.156
41692SOL    HW126973   3.274   0.730   0.189
41692SOL    HW226974   3.279   0.815   0.064
41693SOL     OW26975   2.208   7.460  10.961
41693SOL    HW126976   2.191   7.504  11.044
41693SOL    HW226977   2.170   7.373  10.972
41694SOL     OW26978  11.348  11.549   9.408
41694SOL    HW126979  11.442  11.562   9.398
41694SOL    HW226980  11.319  11.624   9.461
41695SOL     OW26981  14.252   6.384   9.540
41695SOL    HW126982  14.156   6.388   9.549
41695SOL    HW226983  14.268   6.394   9.446
41696SOL     OW26984   4.964  11.575  10.378
41696SOL    HW126985   4.869  11.562  10.378
41696SOL    HW226986   4.992  11.543  10.292
41697SOL     OW26987  14.194   7.618   4.450
41697SOL    HW126988  14.216   7.565   4.526
41697SOL    HW226989  14.101   7.639   4.462
41698SOL     OW26990  13.392  13.037  13.555
41698SOL    HW126991  13.335  13.051  13.479
41698SOL    HW226992  13.345  12.971  13.607
41699SOL     OW26993   5.656   3.817   0.427
41699SOL    HW126994   5.710   3.773   0.492
41699SOL    HW226995   5.566   3.791   0.449
41700SOL     OW26996   5.494   6.506   2.723
41700SOL    HW126997   5.550   6.428   2.718
41700SOL    HW226998   5.508   6.541   2.810
41701SOL     OW26999   4.103   6.472   9.177
41701SOL    HW127000   4.079   6.526   9.101
41701SOL    HW227001   4.019   6.447   9.216
41702SOL     OW27002  12.360   5.714   6.634
41702SOL    HW127003  12.277   5.675   6.660
41702SOL    HW227004  12.423   5.642   6.639
41703SOL     OW27005   5.157   8.189   2.344
41703SOL    HW127006   5.151   8.185   2.248
41703SOL    HW227007   5.227   8.251   2.361
41704SOL     OW27008   3.100   4.597  10.482
41704SOL    HW127009   3.118   4.549  10.401
41704SOL    HW227010   3.111   4.533  10.551
41705SOL     OW27011  11.300  10.124   0.036
41705SOL    HW127012  11.328  10.208   0.001
41705SOL    HW227013  11.271  10.143   0.125
41706SOL     OW27014   6.027   0.184  10.810
41706SOL    HW127015   5.998   0.275  10.800
41706SOL    HW227016   5.991   0.156  10.894
41707SOL     OW27017   1.151   4.285   6.966
41707SOL    HW127018   1.226   4.228   6.949
41707SOL    HW227019   1.099   4.238   7.031
41708SOL     OW27020  12.967  13.393  11.156
41708SOL    HW127021  12.873  13.404  11.164
41708SOL    HW227022  12.978  13.322  11.094
41709SOL     OW27023   1.900   8.335   2.672
41709SOL    HW127024   1.910   8.411   2.614
41709SOL    HW227025   1.982   8.332   2.722
41710SOL     OW27026   8.941   7.802  12.489
41710SOL    HW127027   8.909   7.787  12.578
41710SOL    HW227028   8.991   7.883  12.496
41711SOL     OW27029   4.939   4.538   4.967
41711SOL    HW127030   4.877   4.497   4.906
41711SOL    HW227031   5.021   4.490   4.954
41712SOL     OW27032  11.252   5.237   0.556
41712SOL    HW127033  11.190   5.302   0.587
41712SOL    HW227034  11.216   5.153   0.585
41713SOL     OW27035  11.375  11.872   2.648
41713SOL    HW127036  11.292  11.905   2.683
41713SOL    HW227037  11.349  11.809   2.581
41714SOL     OW27038   9.424  11.763  12.008
41714SOL    HW127039   9.387  11.851  12.000
41714SOL    HW227040   9.414  11.725  11.921
41715SOL     OW27041   3.737  13.424   4.386
41715SOL    HW127042   3.660  13.480   4.389
41715SOL    HW227043   3.720  13.357   4.453
41716SOL     OW27044   7.246  13.770   0.605
41716SOL    HW127045   7.262  13.693   0.660
41716SOL    HW227046   7.324  13.778   0.550
41717SOL     OW27047   3.437   2.526  13.010
41717SOL    HW127048   3.481   2.452  13.052
41717SOL    HW227049   3.343   2.508  13.021
41718SOL     OW27050  14.781   2.572  11.245
41718SOL    HW127051  14.846   2.539  11.307
41718SOL    HW227052  14.724   2.497  11.229
41719SOL     OW27053  13.954  11.663   5.682
41719SOL    HW127054  13.889  11.663   5.612
41719SOL    HW227055  13.903  11.673   5.762
41720SOL     OW27056   7.975  11.639   7.545
41720SOL    HW127057   8.033  11.625   7.470
41720SOL    HW227058   8.031  11.623   7.622
41721SOL     OW27059   2.570   3.577  10.998
41721SOL    HW127060   2.631   3.514  10.960
41721SOL    HW227061   2.601   3.663  10.968
41722SOL     OW27062   9.501  13.706   4.454
41722SOL    HW127063   9.589  13.687   4.487
41722SOL    HW227064   9.443  13.652   4.507
41723SOL     OW27065  12.947   2.124   2.880
41723SOL    HW127066  12.997   2.205   2.889
41723SOL    HW227067  13.001   2.058   2.923
41724SOL     OW27068   1.447   8.146  11.110
41724SOL    HW127069   1.500   8.103  11.043
41724SOL    HW227070   1.442   8.237  11.081
41725SOL     OW27071  14.372   3.448   4.542
41725SOL    HW127072  14.343   3.457   4.451
41725SOL    HW227073  14.293   3.420   4.589
41726SOL     OW27074   9.930   3.417  13.823
41726SOL    HW127075   9.923   3.336  13.773
41726SOL    HW227076  10.023   3.425  13.845
41727SOL     OW27077  13.587   1.526  12.935
41727SOL    HW127078  13.583   1.618  12.910
41727SOL    HW227079  13.497   1.494  12.927
41728SOL     OW27080   7.348  10.378   1.786
41728SOL    HW127081   7.301  10.370   1.703
41728SOL    HW227082   7.351  10.289   1.820
41729SOL     OW27083   1.186   4.060   0.819
41729SOL    HW127084   1.093   4.055   0.798
41729SOL    HW227085   1.197   4.146   0.861
41730SOL     OW27086  12.140   6.000  11.628
41730SOL    HW127087  12.151   6.081  11.579
41730SOL    HW227088  12.094   5.941  11.568
41731SOL     OW27089  10.143   0.513   7.652
41731SOL    HW127090  10.198   0.523   7.730
41731SOL    HW227091  10.164   0.427   7.618
41732SOL     OW27092   8.867  13.341   4.620
41732SOL    HW127093   8.908  13.262   4.586
41732SOL    HW227094   8.895  13.346   4.712
41733SOL     OW27095   6.287   1.407   0.550
41733SOL    HW127096   6.251   1.493   0.529
41733SOL    HW227097   6.379   1.424   0.572
41734SOL     OW27098   6.227   2.438   8.365
41734SOL    HW127099   6.229   2.399   8.452
41734SOL    HW227100   6.305   2.404   8.321
41735SOL     OW27101  12.276   0.142  10.391
41735SOL    HW127102  12.315   0.229  10.378
41735SOL    HW227103  12.249   0.114  10.304
41736SOL     OW27104  10.906   6.101   9.717
41736SOL    HW127105  10.854   6.142   9.787
41736SOL    HW227106  10.857   6.119   9.637
41737SOL     OW27107  10.397  14.301  14.466
41737SOL    HW127108  10.486  14.287  14.435
41737SOL    HW227109  10.376  14.224  14.518
41738SOL     OW27110  12.831  13.556   9.420
41738SOL    HW127111  12.890  13.566   9.495
41738SOL    HW227112  12.836  13.463   9.398
41739SOL     OW27113   5.175  13.535   3.508
41739SOL    HW127114   5.084  13.534   3.479
41739SOL    HW227115   5.185  13.619   3.552
41740SOL     OW27116  12.067  13.266   7.004
41740SOL    HW127117  12.041  13.178   6.976
41740SOL    HW227118  12.023  13.325   6.943
41741SOL     OW27119   9.081   7.455   0.637
41741SOL    HW127120   8.986   7.451   0.624
41741SOL    HW227121   9.092   7.449   0.732
41742SOL     OW27122   2.395   7.771   5.419
41742SOL    HW127123   2.346   7.806   5.345
41742SOL    HW227124   2.402   7.844   5.480
41743SOL     OW27125   1.635   4.106  12.754
41743SOL    HW127126   1.701   4.086  12.820
41743SOL    HW227127   1.577   4.030  12.754
41744SOL     OW27128   5.467   9.952   6.400
41744SOL    HW127129   5.495   9.861   6.413
41744SOL    HW227130   5.514   9.981   6.322
41745SOL     OW27131  14.117   7.427   1.551
41745SOL    HW127132  14.052   7.438   1.482
41745SOL    HW227133  14.181   7.496   1.535
41746SOL     OW27134  13.374  12.526   9.276
41746SOL    HW127135  13.326  12.537   9.194
41746SOL    HW227136  13.338  12.446   9.314
41747SOL     OW27137   9.449   6.604   8.262
41747SOL    HW127138   9.483   6.589   8.174
41747SOL    HW227139   9.526   6.599   8.319
41748SOL     OW27140  10.442  10.937   8.344
41748SOL    HW127141  10.364  10.984   8.373
41748SOL    HW227142  10.471  10.888   8.420
41749SOL     OW27143   8.077  11.335   2.622
41749SOL    HW127144   8.007  11.316   2.685
41749SOL    HW227145   8.032  11.379   2.549
41750SOL     OW27146   8.334   5.934   5.099
41750SOL    HW127147   8.309   5.869   5.032
41750SOL    HW227148   8.319   5.889   5.182
41751SOL     OW27149   9.307  10.142  13.745
41751SOL    HW127150   9.277  10.186  13.665
41751SOL    HW227151   9.321  10.051  13.718
41752SOL     OW27152   1.468  14.065   5.622
41752SOL    HW127153   1.513  13.982   5.639
41752SOL    HW227154   1.446  14.062   5.529
41753SOL     OW27155  10.990   5.754   9.595
41753SOL    HW127156  10.900   5.776   9.571
41753SOL    HW227157  11.000   5.662   9.570
41754SOL     OW27158   5.973   3.875   2.701
41754SOL    HW127159   5.964   3.854   2.608
41754SOL    HW227160   5.949   3.795   2.746
41755SOL     OW27161   8.144  14.718  11.208
41755SOL    HW127162   8.124  14.802  11.167
41755SOL    HW227163   8.234  14.699  11.181
41756SOL     OW27164   0.597   0.756   6.450
41756SOL    HW127165   0.685   0.791   6.441
41756SOL    HW227166   0.583   0.748   6.544
41757SOL     OW27167   2.844   1.754  13.768
41757SOL    HW127168   2.760   1.742  13.812
41757SOL    HW227169   2.822   1.763  13.675
41758SOL     OW27170   3.541   7.775   6.891
41758SOL    HW127171   3.549   7.865   6.924
41758SOL    HW227172   3.611   7.727   6.936
41759SOL     OW27173   8.639   9.889   0.175
41759SOL    HW127174   8.597   9.904   0.260
41759SOL    HW227175   8.729   9.867   0.197
41760SOL     OW27176   8.131  11.575   6.121
41760SOL    HW127177   8.215  11.579   6.166
41760SOL    HW227178   8.080  11.511   6.170
41761SOL     OW27179   2.599  14.669  13.782
41761SOL    HW127180   2.648  14.589  13.762
41761SOL    HW227181   2.650  14.739  13.741
41762SOL     OW27182   1.807  10.230  10.213
41762SOL    HW127183   1.889  10.192  10.243
41762SOL    HW227184   1.754  10.238  10.292
41763SOL     OW27185  11.986   6.849  11.521
41763SOL    HW127186  12.051   6.893  11.575
41763SOL    HW227187  12.021   6.761  11.508
41764SOL     OW27188   3.653   9.504   8.613
41764SOL    HW127189   3.594   9.444   8.659
41764SOL    HW227190   3.733   9.504   8.666
41765SOL     OW27191   5.896   0.891   1.283
41765SOL    HW127192   5.947   0.905   1.204
41765SOL    HW227193   5.930   0.809   1.319
41766SOL     OW27194   3.077   4.234   6.709
41766SOL    HW127195   3.036   4.288   6.642
41766SOL    HW227196   3.089   4.149   6.668
41767SOL     OW27197   3.375   3.415   2.510
41767SOL    HW127198   3.307   3.374   2.563
41767SOL    HW227199   3.440   3.346   2.496
41768SOL     OW27200  10.120   4.017   6.879
41768SOL    HW127201  10.088   4.083   6.940
41768SOL    HW227202  10.097   3.933   6.919
41769SOL     OW27203   7.340   1.846   0.314
41769SOL    HW127204   7.430   1.854   0.283
41769SOL    HW227205   7.347   1.851   0.409
41770SOL     OW27206   8.006  12.701   4.024
41770SOL    HW127207   7.938  12.683   4.088
41770SOL    HW227208   8.087  12.706   4.075
41771SOL     OW27209   7.748   7.818  11.041
41771SOL    HW127210   7.710   7.765  10.971
41771SOL    HW227211   7.841   7.822  11.019
41772SOL     OW27212   4.548   5.617   2.882
41772SOL    HW127213   4.584   5.676   2.816
41772SOL    HW227214   4.455   5.609   2.860
41773SOL     OW27215   2.311  10.688  14.128
41773SOL    HW127216   2.297  10.714  14.219
41773SOL    HW227217   2.405  10.700  14.114
41774SOL     OW27218  10.056  13.797  10.387
41774SOL    HW127219  10.071  13.800  10.292
41774SOL    HW227220  10.096  13.714  10.414
41775SOL     OW27221  12.857   8.789  12.495
41775SOL    HW127222  12.877   8.759  12.583
41775SOL    HW227223  12.934   8.839  12.468
41776SOL     OW27224   7.158   3.025   5.899
41776SOL    HW127225   7.088   3.026   5.834
41776SOL    HW227226   7.119   2.983   5.976
41777SOL     OW27227   2.383   4.131  11.333
41777SOL    HW127228   2.345   4.218  11.338
41777SOL    HW227229   2.431   4.121  11.416
41778SOL     OW27230   1.644   2.472   2.754
41778SOL    HW127231   1.572   2.535   2.760
41778SOL    HW227232   1.600   2.388   2.737
41779SOL     OW27233   2.191   6.677   2.805
41779SOL    HW127234   2.250   6.633   2.866
41779SOL    HW227235   2.104   6.657   2.838
41780SOL     OW27236   9.010   6.305   3.070
41780SOL    HW127237   8.946   6.248   3.113
41780SOL    HW227238   9.051   6.354   3.140
41781SOL     OW27239   8.502   2.636   1.632
41781SOL    HW127240   8.451   2.569   1.587
41781SOL    HW227241   8.558   2.588   1.693
41782SOL     OW27242   6.290   6.484   0.220
41782SOL    HW127243   6.338   6.404   0.240
41782SOL    HW227244   6.223   6.457   0.157
41783SOL     OW27245   1.509  11.808   2.464
41783SOL    HW127246   1.556  11.744   2.410
41783SOL    HW227247   1.423  11.815   2.423
41784SOL     OW27248  13.918   7.120  11.290
41784SOL    HW127249  13.868   7.096  11.368
41784SOL    HW227250  13.988   7.176  11.323
41785SOL     OW27251   4.809  10.021  13.950
41785SOL    HW127252   4.764   9.995  13.870
41785SOL    HW227253   4.869   9.950  13.969
41786SOL     OW27254   7.629   8.708   4.409
41786SOL    HW127255   7.687   8.679   4.479
41786SOL    HW227256   7.589   8.628   4.376
41787SOL     OW27257  12.388   1.401   3.628
41787SOL    HW127258  12.373   1.400   3.722
41787SOL    HW227259  12.346   1.482   3.598
41788SOL     OW27260  14.843  12.873   0.708
41788SOL    HW127261  14.809  12.851   0.795
41788SOL    HW227262  14.826  12.967   0.699
41789SOL     OW27263  10.711   6.297  10.243
41789SOL    HW127264  10.623   6.274  10.272
41789SOL    HW227265  10.737   6.224  10.186
41790SOL     OW27266  13.960  14.346  12.442
41790SOL    HW127267  13.997  14.432  12.465
41790SOL    HW227268  13.867  14.363  12.425
41791SOL     OW27269  13.988   5.280   6.871
41791SOL    HW127270  13.926   5.344   6.906
41791SOL    HW227271  14.022   5.235   6.949
41792SOL     OW27272  11.806   6.150   3.756
41792SOL    HW127273  11.790   6.228   3.703
41792SOL    HW227274  11.729   6.141   3.811
41793SOL     OW27275  10.386   1.440   1.849
41793SOL    HW127276  10.407   1.394   1.768
41793SOL    HW227277  10.366   1.371   1.912
41794SOL     OW27278   3.845   2.192   7.139
41794SOL    HW127279   3.928   2.240   7.136
41794SOL    HW227280   3.848   2.134   7.062
41795SOL     OW27281   1.508   8.682   1.888
41795SOL    HW127282   1.464   8.766   1.879
41795SOL    HW227283   1.443   8.618   1.858
41796SOL     OW27284   6.990   5.374  13.646
41796SOL    HW127285   7.046   5.329  13.709
41796SOL    HW227286   6.991   5.318  13.569
41797SOL     OW27287   0.988  10.332   5.932
41797SOL    HW127288   1.023  10.366   5.850
41797SOL    HW227289   1.004  10.401   5.996
41798SOL     OW27290   3.391   1.731   3.814
41798SOL    HW127291   3.473   1.683   3.830
41798SOL    HW227292   3.412   1.791   3.743
41799SOL     OW27293   2.935   7.782   2.184
41799SOL    HW127294   3.007   7.825   2.137
41799SOL    HW227295   2.863   7.845   2.180
41800SOL     OW27296   5.765  10.173   4.800
41800SOL    HW127297   5.841  10.206   4.753
41800SOL    HW227298   5.690  10.202   4.747
41801SOL     OW27299   8.997   0.421  10.905
41801SOL    HW127300   8.949   0.504  10.898
41801SOL    HW227301   9.077   0.443  10.952
41802SOL     OW27302   7.420   1.368   8.225
41802SOL    HW127303   7.503   1.407   8.250
41802SOL    HW227304   7.436   1.273   8.225
41803SOL     OW27305   9.918  11.475   3.728
41803SOL    HW127306   9.910  11.486   3.633
41803SOL    HW227307   9.857  11.405   3.749
41804SOL     OW27308   0.873   3.175   9.661
41804SOL    HW127309   0.865   3.147   9.752
41804SOL    HW227310   0.922   3.105   9.618
41805SOL     OW27311  12.764   4.709   6.270
41805SOL    HW127312  12.746   4.616   6.286
41805SOL    HW227313  12.692   4.739   6.215
41806SOL     OW27314   8.992  12.786  13.019
41806SOL    HW127315   9.001  12.879  12.997
41806SOL    HW227316   8.901  12.776  13.045
41807SOL     OW27317  12.404  11.367   7.485
41807SOL    HW127318  12.318  11.402   7.462
41807SOL    HW227319  12.393  11.272   7.480
41808SOL     OW27320  12.103   1.739  14.445
41808SOL    HW127321  12.077   1.684  14.371
41808SOL    HW227322  12.166   1.800  14.408
41809SOL     OW27323  11.199   7.298  11.581
41809SOL    HW127324  11.156   7.349  11.513
41809SOL    HW227325  11.201   7.209  11.547
41810SOL     OW27326   5.773   5.003   2.733
41810SOL    HW127327   5.853   5.052   2.754
41810SOL    HW227328   5.703   5.067   2.737
41811SOL     OW27329   0.858   6.290   8.459
41811SOL    HW127330   0.873   6.275   8.366
41811SOL    HW227331   0.946   6.300   8.496
41812SOL     OW27332  12.730   0.017   6.634
41812SOL    HW127333  12.638   0.020   6.658
41812SOL    HW227334  12.756  14.800   6.649
41813SOL     OW27335   6.310   4.158  11.884
41813SOL    HW127336   6.309   4.135  11.977
41813SOL    HW227337   6.246   4.099  11.844
41814SOL     OW27338   8.263  12.288   4.545
41814SOL    HW127339   8.338  12.345   4.532
41814SOL    HW227340   8.229  12.313   4.632
41815SOL     OW27341  11.390   8.931   6.805
41815SOL    HW127342  11.385   8.883   6.888
41815SOL    HW227343  11.482   8.924   6.779
41816SOL     OW27344  11.709   6.363   7.540
41816SOL    HW127345  11.697   6.434   7.603
41816SOL    HW227346  11.628   6.362   7.488
41817SOL     OW27347  10.351  11.470   7.794
41817SOL    HW127348  10.329  11.487   7.885
41817SOL    HW227349  10.380  11.378   7.793
41818SOL     OW27350  12.774   1.967   1.019
41818SOL    HW127351  12.820   1.892   0.981
41818SOL    HW227352  12.778   2.034   0.951
41819SOL     OW27353   0.222  13.316   7.048
41819SOL    HW127354   0.165  13.284   6.978
41819SOL    HW227355   0.288  13.369   7.003
41820SOL     OW27356   6.443   3.719   4.955
41820SOL    HW127357   6.414   3.697   4.866
41820SOL    HW227358   6.365   3.708   5.009
41821SOL     OW27359  10.937   2.732   6.377
41821SOL    HW127360  10.938   2.827   6.366
41821SOL    HW227361  10.845   2.708   6.361
41822SOL     OW27362   5.776  11.470  10.470
41822SOL    HW127363   5.802  11.487  10.379
41822SOL    HW227364   5.789  11.376  10.481
41823SOL     OW27365   8.911  13.033  11.259
41823SOL    HW127366   8.927  13.045  11.166
41823SOL    HW227367   8.996  13.009  11.296
41824SOL     OW27368   9.318   9.738  14.044
41824SOL    HW127369   9.397   9.771  14.085
41824SOL    HW227370   9.349   9.675  13.979
41825SOL     OW27371   8.234   7.153   6.921
41825SOL    HW127372   8.165   7.134   6.857
41825SOL    HW227373   8.190   7.148   7.006
41826SOL     OW27374  12.406   6.784   3.602
41826SOL    HW127375  12.311   6.785   3.592
41826SOL    HW227376  12.432   6.876   3.597
41827SOL     OW27377  14.151   7.496  14.378
41827SOL    HW127378  14.167   7.492  14.472
41827SOL    HW227379  14.223   7.549  14.343
41828SOL     OW27380   0.265   7.957  13.498
41828SOL    HW127381   0.215   7.932  13.421
41828SOL    HW227382   0.214   8.027  13.539
41829SOL     OW27383  13.918   5.076  14.381
41829SOL    HW127384  13.949   4.985  14.381
41829SOL    HW227385  13.932   5.107  14.470
41830SOL     OW27386   8.028  12.880  10.468
41830SOL    HW127387   8.018  12.865  10.374
41830SOL    HW227388   7.968  12.817  10.508
41831SOL     OW27389   3.551  11.021   0.809
41831SOL    HW127390   3.598  10.938   0.812
41831SOL    HW227391   3.482  11.008   0.744
41832SOL     OW27392   3.639  10.329   9.068
41832SOL    HW127393   3.678  10.277   8.999
41832SOL    HW227394   3.585  10.393   9.022
41833SOL     OW27395   4.163   2.243   9.334
41833SOL    HW127396   4.135   2.217   9.247
41833SOL    HW227397   4.242   2.191   9.350
41834SOL     OW27398  10.106   8.905   1.617
41834SOL    HW127399  10.104   8.999   1.599
41834SOL    HW227400  10.190   8.876   1.581
41835SOL     OW27401   8.005   6.854   4.353
41835SOL    HW127402   8.036   6.860   4.443
41835SOL    HW227403   8.053   6.924   4.307
41836SOL     OW27404  13.853   2.974   4.472
41836SOL    HW127405  13.839   3.030   4.548
41836SOL    HW227406  13.770   2.978   4.424
41837SOL     OW27407  12.353   8.335   2.035
41837SOL    HW127408  12.351   8.242   2.058
41837SOL    HW227409  12.435   8.346   1.986
41838SOL     OW27410   8.164   5.333   3.991
41838SOL    HW127411   8.233   5.326   3.925
41838SOL    HW227412   8.098   5.270   3.964
41839SOL     OW27413  11.761  10.726  13.254
41839SOL    HW127414  11.673  10.706  13.222
41839SOL    HW227415  11.760  10.696  13.345
41840SOL     OW27416  13.260  12.000  14.628
41840SOL    HW127417  13.336  11.947  14.606
41840SOL    HW227418  13.236  12.043  14.546
41841SOL     OW27419  12.906   6.518   6.897
41841SOL    HW127420  12.863   6.440   6.862
41841SOL    HW227421  12.924   6.572   6.820
41842SOL     OW27422   7.646  11.739  10.719
41842SOL    HW127423   7.737  11.713  10.708
41842SOL    HW227424   7.606  11.667  10.767
41843SOL     OW27425  10.960   4.748   7.621
41843SOL    HW127426  10.992   4.813   7.558
41843SOL    HW227427  11.021   4.754   7.694
41844SOL     OW27428  10.538   6.701  10.697
41844SOL    HW127429  10.501   6.674  10.613
41844SOL    HW227430  10.632   6.686  10.687
41845SOL     OW27431  12.720   8.814   0.835
41845SOL    HW127432  12.637   8.835   0.793
41845SOL    HW227433  12.769   8.764   0.770
41846SOL     OW27434   0.324   1.212  14.639
41846SOL    HW127435   0.392   1.270  14.604
41846SOL    HW227436   0.355   1.124  14.616
41847SOL     OW27437   5.941   5.890  13.285
41847SOL    HW127438   5.888   5.844  13.350
41847SOL    HW227439   6.027   5.849  13.292
41848SOL     OW27440   2.260  11.482   7.108
41848SOL    HW127441   2.178  11.432   7.108
41848SOL    HW227442   2.255  11.538   7.031
41849SOL     OW27443   0.764   8.844  11.571
41849SOL    HW127444   0.810   8.769  11.606
41849SOL    HW227445   0.681   8.847  11.620
41850SOL     OW27446  10.186  14.407   1.694
41850SOL    HW127447  10.146  14.445   1.772
41850SOL    HW227448  10.252  14.347   1.728
41851SOL     OW27449  13.059   3.210  14.855
41851SOL    HW127450  13.061   3.306  14.851
41851SOL    HW227451  13.059   3.182  14.764
41852SOL     OW27452  14.716  13.893  10.448
41852SOL    HW127453  14.728  13.801  10.471
41852SOL    HW227454  14.623  13.910  10.465
41853SOL     OW27455   5.297  14.215   1.352
41853SOL    HW127456   5.336  14.128   1.358
41853SOL    HW227457   5.209  14.200   1.318
41854SOL     OW27458  12.878   4.272   3.785
41854SOL    HW127459  12.955   4.322   3.812
41854SOL    HW227460  12.810   4.338   3.772
41855SOL     OW27461   1.787   3.873   0.035
41855SOL    HW127462   1.716   3.821   0.073
41855SOL    HW227463   1.829   3.914   0.110
41856SOL     OW27464   4.892   3.134   4.705
41856SOL    HW127465   4.945   3.096   4.775
41856SOL    HW227466   4.956   3.174   4.646
41857SOL     OW27467  13.347   4.490  11.999
41857SOL    HW127468  13.356   4.394  11.998
41857SOL    HW227469  13.261   4.505  12.037
41858SOL     OW27470  11.917   3.316   4.955
41858SOL    HW127471  11.851   3.380   4.929
41858SOL    HW227472  11.873   3.262   5.021
41859SOL     OW27473   1.290   8.439   8.374
41859SOL    HW127474   1.323   8.529   8.382
41859SOL    HW227475   1.363   8.384   8.403
41860SOL     OW27476  12.500  13.207   3.786
41860SOL    HW127477  12.481  13.291   3.743
41860SOL    HW227478  12.418  13.158   3.782
41861SOL     OW27479   2.645   2.732   2.444
41861SOL    HW127480   2.577   2.695   2.387
41861SOL    HW227481   2.612   2.716   2.533
41862SOL     OW27482  13.618   0.517   5.457
41862SOL    HW127483  13.700   0.560   5.477
41862SOL    HW227484  13.550   0.579   5.485
41863SOL     OW27485  10.586  14.126   7.037
41863SOL    HW127486  10.636  14.104   6.958
41863SOL    HW227487  10.531  14.200   7.010
41864SOL     OW27488   1.068  10.174   5.257
41864SOL    HW127489   1.050  10.092   5.210
41864SOL    HW227490   1.163  10.174   5.271
41865SOL     OW27491  13.813   5.478  14.011
41865SOL    HW127492  13.813   5.545  14.079
41865SOL    HW227493  13.789   5.397  14.056
41866SOL     OW27494   7.727   2.313  12.016
41866SOL    HW127495   7.787   2.351  12.080
41866SOL    HW227496   7.660   2.380  12.004
41867SOL     OW27497   7.548   3.514   9.424
41867SOL    HW127498   7.628   3.551   9.389
41867SOL    HW227499   7.563   3.419   9.422
41868SOL     OW27500   7.475   6.208   2.987
41868SOL    HW127501   7.451   6.269   2.917
41868SOL    HW227502   7.556   6.167   2.956
41869SOL     OW27503   8.382  10.999  14.481
41869SOL    HW127504   8.334  11.061  14.536
41869SOL    HW227505   8.472  11.002  14.515
41870SOL     OW27506  11.251   8.093  13.991
41870SOL    HW127507  11.228   8.163  13.931
41870SOL    HW227508  11.170   8.043  14.003
41871SOL     OW27509   1.225  11.032  11.428
41871SOL    HW127510   1.285  11.022  11.355
41871SOL    HW227511   1.150  10.977  11.406
41872SOL     OW27512   1.248  11.085   7.073
41872SOL    HW127513   1.154  11.077   7.057
41872SOL    HW227514   1.275  10.996   7.099
41873SOL     OW27515   6.209   1.192  12.715
41873SOL    HW127516   6.136   1.141  12.749
41873SOL    HW227517   6.237   1.247  12.789
41874SOL     OW27518  10.462   9.819  11.755
41874SOL    HW127519  10.460   9.787  11.664
41874SOL    HW227520  10.550   9.796  11.786
41875SOL     OW27521   6.559   1.764   7.556
41875SOL    HW127522   6.478   1.811   7.577
41875SOL    HW227523   6.617   1.832   7.521
41876SOL     OW27524   2.051   1.726  14.238
41876SOL    HW127525   2.057   1.821  14.229
41876SOL    HW227526   2.117   1.705  14.305
41877SOL     OW27527  12.426   9.345   3.796
41877SOL    HW127528  12.336   9.357   3.826
41877SOL    HW227529  12.422   9.269   3.738
41878SOL     OW27530   8.528  11.229   6.840
41878SOL    HW127531   8.545  11.290   6.911
41878SOL    HW227532   8.459  11.172   6.873
41879SOL     OW27533  11.821   1.364  10.115
41879SOL    HW127534  11.775   1.392  10.036
41879SOL    HW227535  11.753   1.328  10.171
41880SOL     OW27536   9.447  14.538  10.383
41880SOL    HW127537   9.500  14.483  10.440
41880SOL    HW227538   9.399  14.595  10.443
41881SOL     OW27539  12.944  11.710   3.614
41881SOL    HW127540  12.908  11.799   3.613
41881SOL    HW227541  13.038  11.723   3.630
41882SOL     OW27542   0.519  10.858   3.049
41882SOL    HW127543   0.473  10.834   2.968
41882SOL    HW227544   0.505  10.783   3.107
41883SOL     OW27545   8.056   6.616   5.547
41883SOL    HW127546   8.028   6.551   5.483
41883SOL    HW227547   8.140   6.582   5.580
41884SOL     OW27548   8.861   2.602   6.682
41884SOL    HW127549   8.798   2.626   6.750
41884SOL    HW227550   8.813   2.543   6.624
41885SOL     OW27551   9.372   5.780   2.434
41885SOL    HW127552   9.468   5.783   2.434
41885SOL    HW227553   9.351   5.688   2.419
41886SOL     OW27554   9.220   5.888   7.060
41886SOL    HW127555   9.236   5.836   6.981
41886SOL    HW227556   9.233   5.826   7.132
41887SOL     OW27557   2.981   3.238   5.255
41887SOL    HW127558   2.979   3.332   5.273
41887SOL    HW227559   3.006   3.198   5.338
41888SOL     OW27560  12.416   5.175   7.828
41888SOL    HW127561  12.451   5.190   7.916
41888SOL    HW227562  12.359   5.099   7.838
41889SOL     OW27563   8.101   6.405   1.796
41889SOL    HW127564   8.060   6.322   1.772
41889SOL    HW227565   8.084   6.463   1.722
41890SOL     OW27566   2.106  13.297   9.816
41890SOL    HW127567   2.078  13.379   9.856
41890SOL    HW227568   2.113  13.236   9.889
41891SOL     OW27569   2.444   2.225   1.972
41891SOL    HW127570   2.505   2.219   1.898
41891SOL    HW227571   2.457   2.143   2.020
41892SOL     OW27572  13.786   2.072   4.805
41892SOL    HW127573  13.781   2.000   4.743
41892SOL    HW227574  13.803   2.030   4.890
41893SOL     OW27575   0.084   2.259   2.672
41893SOL    HW127576   0.089   2.239   2.579
41893SOL    HW227577  14.870   2.295   2.684
41894SOL     OW27578   8.493  10.299   5.544
41894SOL    HW127579   8.445  10.217   5.534
41894SOL    HW227580   8.581  10.271   5.571
41895SOL     OW27581   0.603   2.601   2.354
41895SOL    HW127582   0.515   2.611   2.389
41895SOL    HW227583   0.590   2.560   2.268
41896SOL     OW27584  12.167  10.191  12.813
41896SOL    HW127585  12.163  10.207  12.719
41896SOL    HW227586  12.081  10.215  12.846
41897SOL     OW27587   9.133  12.672  10.796
41897SOL    HW127588   9.101  12.723  10.871
41897SOL    HW227589   9.086  12.710  10.721
41898SOL     OW27590  12.730   5.317   0.919
41898SOL    HW127591  12.784   5.238   0.926
41898SOL    HW227592  12.641   5.284   0.912
41899SOL     OW27593  14.067   0.612   2.172
41899SOL    HW127594  14.032   0.523   2.162
41899SOL    HW227595  14.162   0.601   2.172
41900SOL     OW27596   8.737   6.478   9.849
41900SOL    HW127597   8.819   6.428   9.847
41900SOL    HW227598   8.676   6.423   9.898
41901SOL     OW27599   0.222  10.407   2.704
41901SOL    HW127600   0.167  10.333   2.732
41901SOL    HW227601   0.167  10.455   2.641
41902SOL     OW27602  10.197   8.381  11.032
41902SOL    HW127603  10.271   8.355  11.087
41902SOL    HW227604  10.173   8.468  11.064
41903SOL     OW27605   7.002  14.398   9.309
41903SOL    HW127606   7.083  14.411   9.358
41903SOL    HW227607   7.004  14.464   9.240
41904SOL     OW27608   9.686   9.540   6.302
41904SOL    HW127609   9.619   9.489   6.348
41904SOL    HW227610   9.644   9.566   6.220
41905SOL     OW27611   8.154  11.095   9.901
41905SOL    HW127612   8.130  11.176   9.945
41905SOL    HW227613   8.190  11.040   9.971
41906SOL     OW27614   8.880   7.949   1.168
41906SOL    HW127615   8.858   7.948   1.261
41906SOL    HW227616   8.900   7.857   1.147
41907SOL     OW27617   8.974  11.948  14.424
41907SOL    HW127618   9.006  11.862  14.399
41907SOL    HW227619   9.053  11.999  14.441
41908SOL     OW27620  13.238   5.844   2.237
41908SOL    HW127621  13.268   5.934   2.254
41908SOL    HW227622  13.194   5.850   2.152
41909SOL     OW27623  11.297  13.225   1.269
41909SOL    HW127624  11.284  13.223   1.364
41909SOL    HW227625  11.377  13.175   1.254
41910SOL     OW27626  12.650   0.664  13.776
41910SOL    HW127627  12.599   0.682  13.697
41910SOL    HW227628  12.603   0.710  13.846
41911SOL     OW27629  12.893   1.528   0.251
41911SOL    HW127630  12.801   1.501   0.243
41911SOL    HW227631  12.889   1.609   0.302
41912SOL     OW27632  11.080   5.928   0.694
41912SOL    HW127633  11.121   5.985   0.759
41912SOL    HW227634  10.995   5.968   0.676
41913SOL     OW27635   9.296   8.554  13.020
41913SOL    HW127636   9.270   8.546  12.928
41913SOL    HW227637   9.281   8.467  13.056
41914SOL     OW27638   0.509  10.934   4.221
41914SOL    HW127639   0.518  10.996   4.148
41914SOL    HW227640   0.542  10.851   4.187
41915SOL     OW27641   7.445   4.621   8.959
41915SOL    HW127642   7.454   4.691   8.894
41915SOL    HW227643   7.533   4.586   8.969
41916SOL     OW27644  13.956  13.472   6.495
41916SOL    HW127645  14.021  13.507   6.556
41916SOL    HW227646  14.008  13.427   6.428
41917SOL     OW27647   4.497   8.342   0.162
41917SOL    HW127648   4.556   8.326   0.088
41917SOL    HW227649   4.536   8.416   0.208
41918SOL     OW27650  13.711   9.495  12.512
41918SOL    HW127651  13.669   9.581  12.503
41918SOL    HW227652  13.643   9.433  12.484
41919SOL     OW27653   1.805   3.317  13.252
41919SOL    HW127654   1.844   3.288  13.335
41919SOL    HW227655   1.776   3.236  13.210
41920SOL     OW27656  13.928   2.684  11.733
41920SOL    HW127657  13.946   2.765  11.685
41920SOL    HW227658  13.854   2.706  11.790
41921SOL     OW27659  12.180  11.466   0.141
41921SOL    HW127660  12.159  11.535   0.204
41921SOL    HW227661  12.255  11.501   0.093
41922SOL     OW27662  13.969   6.123  12.201
41922SOL    HW127663  13.982   6.218  12.201
41922SOL    HW227664  14.026   6.091  12.271
41923SOL     OW27665  11.100   6.082  14.080
41923SOL    HW127666  11.033   6.053  14.017
41923SOL    HW227667  11.074   6.041  14.162
41924SOL     OW27668   7.751   6.692   3.869
41924SOL    HW127669   7.756   6.787   3.878
41924SOL    HW227670   7.842   6.664   3.862
41925SOL     OW27671   2.385   6.746  11.733
41925SOL    HW127672   2.459   6.803  11.713
41925SOL    HW227673   2.399   6.719  11.824
41926SOL     OW27674  10.327  13.868   9.817
41926SOL    HW127675  10.297  13.777   9.816
41926SOL    HW227676  10.355  13.885   9.728
41927SOL     OW27677   7.951  11.503   4.419
41927SOL    HW127678   7.944  11.584   4.471
41927SOL    HW227679   8.015  11.451   4.466
41928SOL     OW27680   7.763   1.141   9.543
41928SOL    HW127681   7.734   1.099   9.625
41928SOL    HW227682   7.823   1.078   9.504
41929SOL     OW27683   8.106   6.965   8.780
41929SOL    HW127684   8.172   6.902   8.752
41929SOL    HW227685   8.152   7.025   8.838
41930SOL     OW27686  13.092   4.357   4.189
41930SOL    HW127687  13.017   4.317   4.145
41930SOL    HW227688  13.163   4.294   4.178
41931SOL     OW27689   5.719  14.661   5.958
41931SOL    HW127690   5.745  14.695   6.044
41931SOL    HW227691   5.792  14.685   5.900
41932SOL     OW27692   6.493   3.627   2.398
41932SOL    HW127693   6.499   3.585   2.312
41932SOL    HW227694   6.424   3.579   2.444
41933SOL     OW27695   8.102  12.401   2.977
41933SOL    HW127696   8.094  12.495   2.994
41933SOL    HW227697   8.056  12.359   3.050
41934SOL     OW27698   2.162   7.981   5.744
41934SOL    HW127699   2.113   8.041   5.801
41934SOL    HW227700   2.125   7.895   5.762
41935SOL     OW27701  11.065  11.017   8.742
41935SOL    HW127702  10.969  11.017   8.748
41935SOL    HW227703  11.093  11.078   8.811
41936SOL     OW27704   2.086  10.609  12.165
41936SOL    HW127705   2.152  10.653  12.111
41936SOL    HW227706   2.098  10.516  12.146
41937SOL     OW27707   5.605   0.761   5.186
41937SOL    HW127708   5.595   0.800   5.099
41937SOL    HW227709   5.620   0.668   5.169
41938SOL     OW27710  13.413  10.563  12.043
41938SOL    HW127711  13.415  10.658  12.040
41938SOL    HW227712  13.320  10.541  12.049
41939SOL     OW27713  14.513  13.364   4.326
41939SOL    HW127714  14.426  13.398   4.307
41939SOL    HW227715  14.498  13.291   4.386
41940SOL     OW27716  11.948  12.063   5.662
41940SOL    HW127717  11.970  12.055   5.755
41940SOL    HW227718  11.861  12.103   5.660
41941SOL     OW27719   7.606   1.428   6.443
41941SOL    HW127720   7.592   1.499   6.381
41941SOL    HW227721   7.573   1.462   6.526
41942SOL     OW27722   3.882   8.604  11.917
41942SOL    HW127723   3.909   8.671  11.854
41942SOL    HW227724   3.915   8.522  11.880
41943SOL     OW27725   4.564   3.617   4.743
41943SOL    HW127726   4.520   3.532   4.751
41943SOL    HW227727   4.622   3.622   4.820
41944SOL     OW27728  12.653  10.795   2.295
41944SOL    HW127729  12.586  10.855   2.262
41944SOL    HW227730  12.608  10.711   2.303
41945SOL     OW27731  11.579   0.582   1.036
41945SOL    HW127732  11.510   0.587   0.970
41945SOL    HW227733  11.558   0.653   1.097
41946SOL     OW27734  14.391   0.691   1.481
41946SOL    HW127735  14.378   0.781   1.510
41946SOL    HW227736  14.339   0.639   1.542
41947SOL     OW27737   5.291   4.210   2.083
41947SOL    HW127738   5.370   4.246   2.044
41947SOL    HW227739   5.235   4.189   2.009
41948SOL     OW27740   3.925   8.458   4.628
41948SOL    HW127741   3.948   8.373   4.592
41948SOL    HW227742   3.864   8.496   4.564
41949SOL     OW27743   2.762  12.942   4.967
41949SOL    HW127744   2.697  12.873   4.950
41949SOL    HW227745   2.766  12.992   4.886
41950SOL     OW27746   9.578   0.634  12.753
41950SOL    HW127747   9.602   0.552  12.798
41950SOL    HW227748   9.558   0.607  12.664
41951SOL     OW27749   4.594   9.501   3.239
41951SOL    HW127750   4.688   9.484   3.230
41951SOL    HW227751   4.557   9.479   3.154
41952SOL     OW27752   1.111   0.409   0.848
41952SOL    HW127753   1.063   0.327   0.834
41952SOL    HW227754   1.121   0.414   0.943
41953SOL     OW27755   8.497  12.795   2.104
41953SOL    HW127756   8.467  12.884   2.124
41953SOL    HW227757   8.511  12.754   2.189
41954SOL     OW27758  10.314   1.620   6.954
41954SOL    HW127759  10.330   1.703   6.998
41954SOL    HW227760  10.401   1.584   6.938
41955SOL     OW27761   9.703   6.203   6.558
41955SOL    HW127762   9.630   6.199   6.496
41955SOL    HW227763   9.720   6.297   6.569
41956SOL     OW27764   9.998   3.395   5.786
41956SOL    HW127765   9.969   3.407   5.695
41956SOL    HW227766  10.051   3.472   5.805
41957SOL     OW27767   8.353  12.839   3.839
41957SOL    HW127768   8.348  12.904   3.909
41957SOL    HW227769   8.446  12.839   3.813
41958SOL     OW27770   8.774  11.539   9.569
41958SOL    HW127771   8.705  11.473   9.576
41958SOL    HW227772   8.741  11.614   9.618
41959SOL     OW27773   4.864   1.580  12.295
41959SOL    HW127774   4.938   1.621  12.339
41959SOL    HW227775   4.788   1.609  12.346
41960SOL     OW27776   1.214   6.055  14.205
41960SOL    HW127777   1.279   5.986  14.192
41960SOL    HW227778   1.141   6.030  14.149
41961SOL     OW27779   4.550   1.257  13.949
41961SOL    HW127780   4.630   1.249  14.001
41961SOL    HW227781   4.559   1.190  13.881
41962SOL     OW27782   6.366   1.837   6.305
41962SOL    HW127783   6.280   1.875   6.321
41962SOL    HW227784   6.357   1.745   6.332
41963SOL     OW27785   5.197  14.348   6.580
41963SOL    HW127786   5.260  14.276   6.569
41963SOL    HW227787   5.189  14.386   6.492
41964SOL     OW27788   3.054   4.154   2.154
41964SOL    HW127789   3.109   4.076   2.155
41964SOL    HW227790   3.097   4.213   2.093
41965SOL     OW27791   2.809   1.839   5.415
41965SOL    HW127792   2.843   1.926   5.392
41965SOL    HW227793   2.716   1.844   5.394
41966SOL     OW27794   7.035  11.797  10.538
41966SOL    HW127795   6.967  11.865  10.544
41966SOL    HW227796   7.077  11.813  10.454
41967SOL     OW27797   3.242  10.751   5.600
41967SOL    HW127798   3.287  10.721   5.521
41967SOL    HW227799   3.184  10.821   5.570
41968SOL     OW27800   2.365   2.408   3.938
41968SOL    HW127801   2.434   2.450   3.988
41968SOL    HW227802   2.301   2.379   4.003
41969SOL     OW27803  10.561   4.673  10.814
41969SOL    HW127804  10.622   4.717  10.756
41969SOL    HW227805  10.493   4.739  10.832
41970SOL     OW27806  12.577  11.924  12.100
41970SOL    HW127807  12.632  11.847  12.117
41970SOL    HW227808  12.569  11.927  12.004
41971SOL     OW27809   7.215   8.788   5.878
41971SOL    HW127810   7.213   8.869   5.827
41971SOL    HW227811   7.128   8.783   5.918
41972SOL     OW27812  14.105   1.054   2.432
41972SOL    HW127813  14.076   0.963   2.431
41972SOL    HW227814  14.107   1.079   2.339
41973SOL     OW27815   9.537  13.863   6.968
41973SOL    HW127816   9.512  13.947   6.931
41973SOL    HW227817   9.632  13.859   6.958
41974SOL     OW27818   9.625   5.078  14.388
41974SOL    HW127819   9.593   5.151  14.334
41974SOL    HW227820   9.713   5.060  14.353
41975SOL     OW27821   5.643   5.435  13.645
41975SOL    HW127822   5.622   5.525  13.618
41975SOL    HW227823   5.590   5.420  13.723
41976SOL     OW27824   5.659   4.312   8.916
41976SOL    HW127825   5.690   4.227   8.947
41976SOL    HW227826   5.615   4.292   8.833
41977SOL     OW27827   6.914   3.420   5.395
41977SOL    HW127828   6.833   3.471   5.396
41977SOL    HW227829   6.896   3.348   5.335
41978SOL     OW27830  10.149   5.632  13.270
41978SOL    HW127831  10.120   5.713  13.229
41978SOL    HW227832  10.071   5.596  13.311
41979SOL     OW27833  13.887  13.919   0.668
41979SOL    HW127834  13.942  13.967   0.731
41979SOL    HW227835  13.910  13.956   0.583
41980SOL     OW27836  13.824  12.047   1.535
41980SOL    HW127837  13.913  12.080   1.538
41980SOL    HW227838  13.781  12.087   1.610
41981SOL     OW27839  13.735  11.597   7.333
41981SOL    HW127840  13.810  11.654   7.316
41981SOL    HW227841  13.690  11.591   7.249
41982SOL     OW27842   3.107   9.409  12.424
41982SOL    HW127843   3.020   9.370  12.429
41982SOL    HW227844   3.100   9.490  12.476
41983SOL     OW27845   7.734  12.619   7.614
41983SOL    HW127846   7.751  12.525   7.618
41983SOL    HW227847   7.809  12.659   7.658
41984SOL     OW27848   4.963   1.535   3.349
41984SOL    HW127849   4.965   1.608   3.411
41984SOL    HW227850   4.879   1.544   3.304
41985SOL     OW27851   9.463   3.868   7.396
41985SOL    HW127852   9.445   3.857   7.302
41985SOL    HW227853   9.376   3.868   7.437
41986SOL     OW27854   4.363   9.534   1.945
41986SOL    HW127855   4.403   9.601   1.890
41986SOL    HW227856   4.377   9.452   1.896
41987SOL     OW27857  10.587   0.864  13.309
41987SOL    HW127858  10.608   0.773  13.286
41987SOL    HW227859  10.499   0.861  13.345
41988SOL     OW27860   4.722  12.206   8.151
41988SOL    HW127861   4.683  12.152   8.082
41988SOL    HW227862   4.708  12.155   8.231
41989SOL     OW27863   6.728   4.824   8.468
41989SOL    HW127864   6.680   4.907   8.471
41989SOL    HW227865   6.779   4.823   8.550
41990SOL     OW27866  10.849  10.112   4.448
41990SOL    HW127867  10.942  10.113   4.470
41990SOL    HW227868  10.814  10.035   4.493
41991SOL     OW27869   4.868  10.761  14.483
41991SOL    HW127870   4.813  10.682  14.484
41991SOL    HW227871   4.816  10.826  14.437
41992SOL     OW27872   7.364   5.865   9.399
41992SOL    HW127873   7.328   5.885   9.485
41992SOL    HW227874   7.303   5.905   9.337
41993SOL     OW27875   3.460  10.414   4.438
41993SOL    HW127876   3.432  10.448   4.523
41993SOL    HW227877   3.542  10.460   4.420
41994SOL     OW27878   8.756   8.960   6.702
41994SOL    HW127879   8.833   9.016   6.692
41994SOL    HW227880   8.790   8.880   6.743
41995SOL     OW27881  12.099   9.547   7.396
41995SOL    HW127882  12.036   9.557   7.468
41995SOL    HW227883  12.046   9.555   7.317
41996SOL     OW27884  13.605   0.677   7.558
41996SOL    HW127885  13.612   0.581   7.553
41996SOL    HW227886  13.549   0.701   7.485
41997SOL     OW27887   0.167   7.684   5.200
41997SOL    HW127888   0.227   7.738   5.252
41997SOL    HW227889   0.224   7.631   5.145
41998SOL     OW27890   7.686  11.709  13.042
41998SOL    HW127891   7.761  11.762  13.072
41998SOL    HW227892   7.618  11.773  13.022
41999SOL     OW27893   9.724   6.779   5.190
41999SOL    HW127894   9.632   6.805   5.200
41999SOL    HW227895   9.735   6.767   5.096
42000SOL     OW27896   5.234  12.246   7.104
42000SOL    HW127897   5.314  12.261   7.053
42000SOL    HW227898   5.191  12.331   7.106
42001SOL     OW27899  12.147   6.055   7.156
42001SOL    HW127900  12.204   6.131   7.144
42001SOL    HW227901  12.202   5.992   7.203
42002SOL     OW27902   2.056   1.378   9.595
42002SOL    HW127903   2.000   1.452   9.570
42002SOL    HW227904   2.073   1.331   9.514
42003SOL     OW27905   6.696   5.957  11.003
42003SOL    HW127906   6.787   5.946  10.975
42003SOL    HW227907   6.688   6.051  11.022
42004SOL     OW27908  11.984   5.868  14.142
42004SOL    HW127909  11.922   5.796  14.133
42004SOL    HW227910  11.939   5.931  14.198
42005SOL     OW27911   3.008   4.856   3.573
42005SOL    HW127912   3.054   4.878   3.654
42005SOL    HW227913   3.077   4.838   3.510
42006SOL     OW27914  11.919   6.507   2.384
42006SOL    HW127915  11.892   6.415   2.378
42006SOL    HW227916  11.887   6.547   2.303
42007SOL     OW27917   9.507  12.683   6.498
42007SOL    HW127918   9.438  12.735   6.541
42007SOL    HW227919   9.459  12.620   6.445
42008SOL     OW27920   1.237  12.762   1.615
42008SOL    HW127921   1.302  12.696   1.639
42008SOL    HW227922   1.163  12.745   1.672
42009SOL     OW27923   1.651  11.919  10.131
42009SOL    HW127924   1.651  11.886  10.041
42009SOL    HW227925   1.737  11.894  10.165
42010SOL     OW27926   8.368   2.245   0.380
42010SOL    HW127927   8.280   2.281   0.369
42010SOL    HW227928   8.361   2.185   0.454
42011SOL     OW27929   4.847   7.554   8.606
42011SOL    HW127930   4.791   7.602   8.545
42011SOL    HW227931   4.860   7.615   8.679
42012SOL     OW27932   2.532  12.862  10.240
42012SOL    HW127933   2.561  12.834  10.154
42012SOL    HW227934   2.450  12.814  10.255
42013SOL     OW27935   9.493   3.110   8.191
42013SOL    HW127936   9.478   3.200   8.220
42013SOL    HW227937   9.501   3.060   8.272
42014SOL     OW27938   9.296   5.356  14.470
42014SOL    HW127939   9.315   5.447  14.448
42014SOL    HW227940   9.365   5.306  14.426
42015SOL     OW27941  13.178  12.781   1.329
42015SOL    HW127942  13.250  12.832   1.290
42015SOL    HW227943  13.223  12.715   1.383
42016SOL     OW27944   9.886  12.388   0.057
42016SOL    HW127945   9.938  12.466   0.036
42016SOL    HW227946   9.838  12.369  14.852
42017SOL     OW27947   7.060  12.119   6.304
42017SOL    HW127948   7.101  12.034   6.320
42017SOL    HW227949   7.128  12.171   6.261
42018SOL     OW27950   6.576   9.736   8.341
42018SOL    HW127951   6.664   9.760   8.311
42018SOL    HW227952   6.575   9.641   8.336
42019SOL     OW27953   8.595   8.767   5.875
42019SOL    HW127954   8.607   8.679   5.910
42019SOL    HW227955   8.677   8.812   5.893
42020SOL     OW27956   0.868   3.279  14.300
42020SOL    HW127957   0.834   3.298  14.387
42020SOL    HW227958   0.926   3.204  14.312
42021SOL     OW27959   1.000   4.497  11.472
42021SOL    HW127960   1.042   4.568  11.520
42021SOL    HW227961   0.984   4.429  11.538
42022SOL     OW27962  11.765   6.081   5.145
42022SOL    HW127963  11.677   6.103   5.173
42022SOL    HW227964  11.753   6.024   5.069
42023SOL     OW27965  10.627  10.690   7.256
42023SOL    HW127966  10.677  10.683   7.175
42023SOL    HW227967  10.632  10.603   7.296
42024SOL     OW27968   7.517  11.098   3.960
42024SOL    HW127969   7.464  11.118   3.883
42024SOL    HW227970   7.553  11.183   3.987
42025SOL     OW27971  10.931   8.889  13.677
42025SOL    HW127972  10.843   8.921  13.658
42025SOL    HW227973  10.986   8.925  13.608
42026SOL     OW27974   7.421   0.765   6.026
42026SOL    HW127975   7.462   0.683   5.996
42026SOL    HW227976   7.492   0.829   6.025
42027SOL     OW27977   8.051  10.151   6.582
42027SOL    HW127978   8.143  10.171   6.560
42027SOL    HW227979   8.054  10.126   6.674
42028SOL     OW27980   1.870   2.770   7.503
42028SOL    HW127981   1.923   2.844   7.533
42028SOL    HW227982   1.879   2.771   7.407
42029SOL     OW27983   7.009  12.930   6.506
42029SOL    HW127984   6.925  12.890   6.483
42029SOL    HW227985   7.053  12.944   6.422
42030SOL     OW27986  11.843  10.004  13.311
42030SOL    HW127987  11.877  10.001  13.222
42030SOL    HW227988  11.781   9.931  13.315
42031SOL     OW27989   7.481  13.749  14.409
42031SOL    HW127990   7.389  13.735  14.390
42031SOL    HW227991   7.495  13.843  14.395
42032SOL     OW27992  13.642  12.943  13.496
42032SOL    HW127993  13.563  12.995  13.507
42032SOL    HW227994  13.658  12.942  13.402
42033SOL     OW27995  11.847   1.532   3.388
42033SOL    HW127996  11.864   1.599   3.454
42033SOL    HW227997  11.932   1.514   3.349
42034SOL     OW27998  11.895  10.621   4.589
42034SOL    HW127999  11.923  10.586   4.673
42034SOL    HW228000  11.948  10.575   4.524
42035SOL     OW28001   8.858  11.798   4.615
42035SOL    HW128002   8.902  11.714   4.630
42035SOL    HW228003   8.793  11.779   4.547
42036SOL     OW28004  10.828   6.371   8.551
42036SOL    HW128005  10.892   6.405   8.488
42036SOL    HW228006  10.874   6.301   8.597
42037SOL     OW28007   3.389   8.023  14.114
42037SOL    HW128008   3.334   8.051  14.187
42037SOL    HW228009   3.332   8.026  14.038
42038SOL     OW28010   8.531   2.944  12.000
42038SOL    HW128011   8.483   2.892  12.064
42038SOL    HW228012   8.475   3.019  11.981
42039SOL     OW28013  13.555  10.504   5.558
42039SOL    HW128014  13.596  10.587   5.532
42039SOL    HW228015  13.594  10.484   5.643
42040SOL     OW28016  10.086   0.834   5.344
42040SOL    HW128017  10.076   0.795   5.431
42040SOL    HW228018  10.001   0.821   5.302
42041SOL     OW28019   2.489   1.809  14.320
42041SOL    HW128020   2.474   1.753  14.396
42041SOL    HW228021   2.475   1.898  14.352
42042SOL     OW28022   7.076  11.950  11.370
42042SOL    HW128023   7.162  11.991  11.362
42042SOL    HW228024   7.027  12.007  11.429
42043SOL     OW28025   9.639   9.110  12.240
42043SOL    HW128026   9.565   9.137  12.187
42043SOL    HW228027   9.679   9.192  12.270
42044SOL     OW28028   9.527   1.173  10.298
42044SOL    HW128029   9.446   1.197  10.343
42044SOL    HW228030   9.584   1.249  10.310
42045SOL     OW28031  12.620   1.745  11.148
42045SOL    HW128032  12.618   1.659  11.106
42045SOL    HW228033  12.664   1.730  11.232
42046SOL     OW28034   9.388   9.754   0.734
42046SOL    HW128035   9.366   9.712   0.651
42046SOL    HW228036   9.357   9.844   0.725
42047SOL     OW28037   9.171   8.692  11.881
42047SOL    HW128038   9.150   8.599  11.876
42047SOL    HW228039   9.229   8.699  11.957
42048SOL     OW28040   8.322   1.083  12.718
42048SOL    HW128041   8.319   1.120  12.806
42048SOL    HW228042   8.238   1.039  12.708
42049SOL     OW28043   3.899  14.188   0.428
42049SOL    HW128044   3.963  14.259   0.433
42049SOL    HW228045   3.826  14.226   0.378
42050SOL     OW28046  12.603   8.931   7.417
42050SOL    HW128047  12.515   8.959   7.443
42050SOL    HW228048  12.658   8.952   7.493
42051SOL     OW28049  13.305   2.002   8.868
42051SOL    HW128050  13.213   2.025   8.855
42051SOL    HW228051  13.331   2.050   8.947
42052SOL     OW28052   4.522   0.970   9.946
42052SOL    HW128053   4.453   0.938   9.887
42052SOL    HW228054   4.537   0.897  10.006
42053SOL     OW28055   1.740   8.461   3.508
42053SOL    HW128056   1.760   8.368   3.501
42053SOL    HW228057   1.811   8.504   3.461
42054SOL     OW28058   2.897   1.022   2.173
42054SOL    HW128059   2.930   0.955   2.112
42054SOL    HW228060   2.903   0.980   2.259
42055SOL     OW28061  13.226   6.834   2.836
42055SOL    HW128062  13.148   6.846   2.782
42055SOL    HW228063  13.300   6.844   2.776
42056SOL     OW28064  13.256  14.729   0.669
42056SOL    HW128065  13.224  14.752   0.756
42056SOL    HW228066  13.266  14.813   0.624
42057SOL     OW28067   4.750   4.975  12.051
42057SOL    HW128068   4.813   4.904  12.054
42057SOL    HW228069   4.793   5.045  12.003
42058SOL     OW28070   3.194   3.725   0.282
42058SOL    HW128071   3.151   3.744   0.365
42058SOL    HW228072   3.218   3.811   0.247
42059SOL     OW28073   1.721  12.136  12.039
42059SOL    HW128074   1.664  12.204  12.074
42059SOL    HW228075   1.799  12.139  12.094
42060SOL     OW28076   0.636   1.159  11.454
42060SOL    HW128077   0.625   1.237  11.509
42060SOL    HW228078   0.718   1.174  11.407
42061SOL     OW28079   6.320   2.123   0.817
42061SOL    HW128080   6.297   2.209   0.783
42061SOL    HW228081   6.331   2.068   0.739
42062SOL     OW28082   1.400   9.569   6.955
42062SOL    HW128083   1.393   9.518   6.874
42062SOL    HW228084   1.432   9.654   6.927
42063SOL     OW28085  10.366   3.208  14.183
42063SOL    HW128086  10.426   3.227  14.110
42063SOL    HW228087  10.322   3.291  14.200
42064SOL     OW28088   1.271  13.953   0.267
42064SOL    HW128089   1.222  13.995   0.197
42064SOL    HW228090   1.205  13.912   0.322
42065SOL     OW28091   5.614   8.361   7.356
42065SOL    HW128092   5.587   8.396   7.271
42065SOL    HW228093   5.635   8.269   7.338
42066SOL     OW28094   0.704   8.713   8.950
42066SOL    HW128095   0.731   8.763   9.027
42066SOL    HW228096   0.772   8.646   8.941
42067SOL     OW28097   5.091   6.034   5.363
42067SOL    HW128098   5.135   6.115   5.336
42067SOL    HW228099   5.090   6.038   5.459
42068SOL     OW28100   6.397   1.661   9.381
42068SOL    HW128101   6.463   1.681   9.316
42068SOL    HW228102   6.432   1.588   9.430
42069SOL     OW28103   8.962   6.381   5.254
42069SOL    HW128104   8.912   6.299   5.251
42069SOL    HW228105   8.992   6.387   5.345
42070SOL     OW28106   7.034   9.159   3.766
42070SOL    HW128107   7.079   9.109   3.834
42070SOL    HW228108   7.095   9.161   3.693
42071SOL     OW28109  11.915  10.886   4.725
42071SOL    HW128110  11.930  10.832   4.647
42071SOL    HW228111  11.889  10.823   4.793
42072SOL     OW28112  14.138   1.498   8.230
42072SOL    HW128113  14.116   1.441   8.156
42072SOL    HW228114  14.176   1.438   8.295
42073SOL     OW28115   0.103   5.088   3.758
42073SOL    HW128116   0.107   5.047   3.671
42073SOL    HW228117   0.177   5.149   3.759
42074SOL     OW28118   9.086  14.386   5.029
42074SOL    HW128119   9.125  14.455   5.083
42074SOL    HW228120   9.159  14.352   4.978
42075SOL     OW28121   0.346   8.157   7.261
42075SOL    HW128122   0.295   8.079   7.284
42075SOL    HW228123   0.294   8.201   7.194
42076SOL     OW28124   4.489   6.461   4.084
42076SOL    HW128125   4.418   6.422   4.033
42076SOL    HW228126   4.569   6.425   4.046
42077SOL     OW28127  10.907  14.653   5.251
42077SOL    HW128128  10.996  14.690   5.252
42077SOL    HW228129  10.861  14.698   5.321
42078SOL     OW28130   1.123   2.953   3.288
42078SOL    HW128131   1.068   2.883   3.253
42078SOL    HW228132   1.066   3.000   3.349
42079SOL     OW28133   0.505  12.630   9.934
42079SOL    HW128134   0.556  12.711   9.932
42079SOL    HW228135   0.437  12.643   9.868
42080SOL     OW28136  14.440   4.109   0.050
42080SOL    HW128137  14.378   4.061   0.106
42080SOL    HW228138  14.494   4.040   0.010
42081SOL     OW28139   0.619  13.689   6.753
42081SOL    HW128140   0.669  13.756   6.706
42081SOL    HW228141   0.542  13.734   6.786
42082SOL     OW28142  12.689   7.439  12.012
42082SOL    HW128143  12.712   7.366  12.069
42082SOL    HW228144  12.673   7.512  12.072
42083SOL     OW28145  11.564   7.934   8.800
42083SOL    HW128146  11.609   8.003   8.851
42083SOL    HW228147  11.477   7.928   8.839
42084SOL     OW28148   5.036   8.252   5.563
42084SOL    HW128149   4.950   8.267   5.600
42084SOL    HW228150   5.089   8.220   5.636
42085SOL     OW28151   2.787  11.431   6.249
42085SOL    HW128152   2.851  11.360   6.255
42085SOL    HW228153   2.831  11.500   6.201
42086SOL     OW28154   4.646   2.761  14.406
42086SOL    HW128155   4.572   2.708  14.435
42086SOL    HW228156   4.714   2.697  14.386
42087SOL     OW28157   3.564  10.062  12.172
42087SOL    HW128158   3.612  10.002  12.230
42087SOL    HW228159   3.630  10.126  12.145
42088SOL     OW28160   3.785   9.763   9.067
42088SOL    HW128161   3.872   9.801   9.053
42088SOL    HW228162   3.747   9.815   9.138
42089SOL     OW28163   4.755   2.002   9.676
42089SOL    HW128164   4.810   1.940   9.724
42089SOL    HW228165   4.802   2.085   9.681
42090SOL     OW28166   1.549   4.465  12.888
42090SOL    HW128167   1.585   4.464  12.977
42090SOL    HW228168   1.623   4.440  12.832
42091SOL     OW28169  10.530   3.165  13.057
42091SOL    HW128170  10.570   3.162  13.145
42091SOL    HW228171  10.485   3.081  13.049
42092SOL     OW28172   3.453   1.217  10.661
42092SOL    HW128173   3.516   1.193  10.593
42092SOL    HW228174   3.372   1.234  10.614
42093SOL     OW28175   6.880   3.252   1.297
42093SOL    HW128176   6.801   3.253   1.351
42093SOL    HW228177   6.847   3.261   1.207
42094SOL     OW28178   6.001  14.218  13.606
42094SOL    HW128179   5.921  14.208  13.555
42094SOL    HW228180   6.063  14.260  13.546
42095SOL     OW28181  11.948   5.423  10.545
42095SOL    HW128182  11.915   5.511  10.563
42095SOL    HW228183  11.913   5.369  10.616
42096SOL     OW28184   1.338   9.475   9.373
42096SOL    HW128185   1.294   9.560   9.379
42096SOL    HW228186   1.396   9.472   9.450
42097SOL     OW28187   4.059  11.132  12.706
42097SOL    HW128188   4.039  11.044  12.738
42097SOL    HW228189   3.998  11.147  12.634
42098SOL     OW28190   9.272   6.913   8.819
42098SOL    HW128191   9.289   6.861   8.741
42098SOL    HW228192   9.180   6.899   8.838
42099SOL     OW28193   2.624   3.974   6.997
42099SOL    HW128194   2.587   4.060   6.975
42099SOL    HW228195   2.547   3.919   7.013
42100SOL     OW28196   0.128   6.207  11.797
42100SOL    HW128197   0.054   6.262  11.771
42100SOL    HW228198   0.203   6.243  11.748
42101SOL     OW28199   2.899  11.990   9.813
42101SOL    HW128200   2.960  11.927   9.774
42101SOL    HW228201   2.875  12.049   9.741
42102SOL     OW28202   3.356   6.551  13.508
42102SOL    HW128203   3.321   6.527  13.594
42102SOL    HW228204   3.362   6.646  13.510
42103SOL     OW28205   9.701   5.129   9.942
42103SOL    HW128206   9.668   5.131   9.852
42103SOL    HW228207   9.750   5.048   9.947
42104SOL     OW28208   8.864   3.822   4.292
42104SOL    HW128209   8.899   3.747   4.339
42104SOL    HW228210   8.840   3.788   4.205
42105SOL     OW28211   7.700   1.400   9.108
42105SOL    HW128212   7.769   1.429   9.167
42105SOL    HW228213   7.625   1.456   9.128
42106SOL     OW28214   9.399  12.464  13.237
42106SOL    HW128215   9.317  12.511  13.224
42106SOL    HW228216   9.385  12.379  13.194
42107SOL     OW28217  10.289   2.769   6.281
42107SOL    HW128218  10.240   2.851   6.286
42107SOL    HW228219  10.258   2.717   6.355
42108SOL     OW28220  13.753  10.291  14.562
42108SOL    HW128221  13.712  10.349  14.626
42108SOL    HW228222  13.711  10.206  14.576
42109SOL     OW28223   3.569   1.499  11.542
42109SOL    HW128224   3.526   1.559  11.603
42109SOL    HW228225   3.500   1.440  11.514
42110SOL     OW28226   9.586   5.732   0.573
42110SOL    HW128227   9.492   5.717   0.565
42110SOL    HW228228   9.625   5.681   0.503
42111SOL     OW28229   8.602   5.191   2.172
42111SOL    HW128230   8.682   5.153   2.208
42111SOL    HW228231   8.596   5.278   2.211
42112SOL     OW28232   2.251   8.588   6.258
42112SOL    HW128233   2.285   8.652   6.320
42112SOL    HW228234   2.301   8.508   6.275
42113SOL     OW28235   0.371   8.278   9.374
42113SOL    HW128236   0.382   8.192   9.415
42113SOL    HW228237   0.445   8.285   9.314
42114SOL     OW28238   9.421   3.546   1.498
42114SOL    HW128239   9.406   3.515   1.409
42114SOL    HW228240   9.395   3.638   1.496
42115SOL     OW28241  10.654   1.646  14.083
42115SOL    HW128242  10.658   1.636  13.988
42115SOL    HW228243  10.634   1.559  14.116
42116SOL     OW28244  14.258  14.682   1.311
42116SOL    HW128245  14.267  14.703   1.218
42116SOL    HW228246  14.299  14.756   1.355
42117SOL     OW28247   0.520   2.347   8.579
42117SOL    HW128248   0.589   2.282   8.568
42117SOL    HW228249   0.476   2.350   8.494
42118SOL     OW28250   5.197   1.184  11.277
42118SOL    HW128251   5.212   1.279  11.281
42118SOL    HW228252   5.268   1.151  11.222
42119SOL     OW28253   2.150   7.496   7.450
42119SOL    HW128254   2.130   7.555   7.376
42119SOL    HW228255   2.218   7.438   7.415
42120SOL     OW28256   0.393   5.416  13.481
42120SOL    HW128257   0.404   5.507  13.454
42120SOL    HW228258   0.310   5.389  13.441
42121SOL     OW28259   5.019   2.189   9.149
42121SOL    HW128260   5.008   2.276   9.111
42121SOL    HW228261   5.105   2.192   9.192
42122SOL     OW28262   7.464   9.427   2.070
42122SOL    HW128263   7.488   9.495   2.007
42122SOL    HW228264   7.545   9.379   2.087
42123SOL     OW28265   5.235   6.197   2.812
42123SOL    HW128266   5.234   6.280   2.764
42123SOL    HW228267   5.260   6.221   2.901
42124SOL     OW28268   2.029   7.804  14.165
42124SOL    HW128269   1.982   7.721  14.170
42124SOL    HW228270   2.082   7.806  14.245
42125SOL     OW28271   7.508  13.630  13.648
42125SOL    HW128272   7.472  13.716  13.670
42125SOL    HW228273   7.601  13.637  13.669
42126SOL     OW28274  11.016   4.501  11.614
42126SOL    HW128275  10.938   4.553  11.634
42126SOL    HW228276  11.085   4.540  11.667
42127SOL     OW28277   8.351   8.070   6.742
42127SOL    HW128278   8.359   7.983   6.703
42127SOL    HW228279   8.366   8.131   6.669
42128SOL     OW28280  14.483   7.933   9.021
42128SOL    HW128281  14.454   7.851   8.980
42128SOL    HW228282  14.569   7.913   9.058
42129SOL     OW28283  12.275   8.910   2.038
42129SOL    HW128284  12.263   8.824   2.079
42129SOL    HW228285  12.370   8.923   2.039
42130SOL     OW28286   6.171   7.360   1.271
42130SOL    HW128287   6.168   7.272   1.234
42130SOL    HW228288   6.084   7.372   1.310
42131SOL     OW28289   1.421   4.482   0.923
42131SOL    HW128290   1.361   4.465   0.995
42131SOL    HW228291   1.487   4.541   0.960
42132SOL     OW28292  11.647   6.645   4.600
42132SOL    HW128293  11.661   6.581   4.669
42132SOL    HW228294  11.681   6.727   4.635
42133SOL     OW28295   2.024   8.830  11.069
42133SOL    HW128296   2.087   8.888  11.026
42133SOL    HW228297   2.073   8.789  11.140
42134SOL     OW28298   7.709  14.419  10.221
42134SOL    HW128299   7.720  14.481  10.149
42134SOL    HW228300   7.772  14.349  10.202
42135SOL     OW28301   6.208   0.351  13.899
42135SOL    HW128302   6.177   0.263  13.878
42135SOL    HW228303   6.131   0.394  13.937
42136SOL     OW28304   9.066  12.739  12.017
42136SOL    HW128305   9.147  12.769  12.057
42136SOL    HW228306   9.088  12.726  11.925
42137SOL     OW28307  11.846  10.417   1.119
42137SOL    HW128308  11.789  10.342   1.100
42137SOL    HW228309  11.810  10.488   1.065
42138SOL     OW28310   0.575  11.009   6.589
42138SOL    HW128311   0.619  10.947   6.530
42138SOL    HW228312   0.616  10.995   6.674
42139SOL     OW28313   3.736   8.129   6.761
42139SOL    HW128314   3.699   8.056   6.710
42139SOL    HW228315   3.714   8.207   6.710
42140SOL     OW28316   3.128   4.172   1.869
42140SOL    HW128317   3.092   4.260   1.869
42140SOL    HW228318   3.213   4.181   1.826
42141SOL     OW28319   3.822  10.288   3.829
42141SOL    HW128320   3.831  10.380   3.805
42141SOL    HW228321   3.757  10.254   3.768
42142SOL     OW28322   7.276   8.993  11.939
42142SOL    HW128323   7.337   9.060  11.909
42142SOL    HW228324   7.272   8.929  11.869
42143SOL     OW28325   3.644  12.557   9.993
42143SOL    HW128326   3.610  12.503   9.922
42143SOL    HW228327   3.694  12.496  10.047
42144SOL     OW28328   3.354   7.639  11.901
42144SOL    HW128329   3.374   7.571  11.965
42144SOL    HW228330   3.352   7.720  11.953
42145SOL     OW28331  10.482   0.822  12.020
42145SOL    HW128332  10.431   0.781  12.090
42145SOL    HW228333  10.508   0.749  11.963
42146SOL     OW28334  12.129  11.555   6.830
42146SOL    HW128335  12.046  11.559   6.782
42146SOL    HW228336  12.155  11.646   6.840
42147SOL     OW28337  14.441   2.256   7.448
42147SOL    HW128338  14.444   2.164   7.472
42147SOL    HW228339  14.402   2.300   7.524
42148SOL     OW28340   4.847   0.717   9.930
42148SOL    HW128341   4.912   0.684   9.992
42148SOL    HW228342   4.775   0.654   9.935
42149SOL     OW28343   5.779   7.510  11.482
42149SOL    HW128344   5.822   7.545  11.560
42149SOL    HW228345   5.840   7.530  11.411
42150SOL     OW28346   0.562  13.278   9.803
42150SOL    HW128347   0.611  13.355   9.831
42150SOL    HW228348   0.548  13.228   9.883
42151SOL     OW28349  14.779   4.259   7.237
42151SOL    HW128350  14.865   4.266   7.195
42151SOL    HW228351  14.780   4.326   7.305
42152SOL     OW28352   3.565  12.651   1.153
42152SOL    HW128353   3.572  12.610   1.068
42152SOL    HW228354   3.589  12.582   1.215
42153SOL     OW28355   7.841  14.703   4.505
42153SOL    HW128356   7.853  14.632   4.568
42153SOL    HW228357   7.806  14.775   4.558
42154SOL     OW28358   4.051   3.675   8.029
42154SOL    HW128359   4.135   3.717   8.009
42154SOL    HW228360   4.035   3.617   7.955
42155SOL     OW28361   8.435   4.872   5.845
42155SOL    HW128362   8.380   4.797   5.868
42155SOL    HW228363   8.418   4.936   5.915
42156SOL     OW28364   1.221   9.875   7.763
42156SOL    HW128365   1.265   9.896   7.845
42156SOL    HW228366   1.161   9.804   7.784
42157SOL     OW28367   8.512   9.558   2.605
42157SOL    HW128368   8.530   9.652   2.606
42157SOL    HW228369   8.427   9.550   2.648
42158SOL     OW28370  10.569  11.308   8.949
42158SOL    HW128371  10.550  11.228   8.900
42158SOL    HW228372  10.663  11.306   8.962
42159SOL     OW28373   2.517   7.365   4.218
42159SOL    HW128374   2.489   7.426   4.285
42159SOL    HW228375   2.472   7.283   4.239
42160SOL     OW28376   0.794   1.184   1.993
42160SOL    HW128377   0.826   1.244   2.061
42160SOL    HW228378   0.705   1.162   2.021
42161SOL     OW28379   2.533  13.901  10.039
42161SOL    HW128380   2.570  13.817  10.013
42161SOL    HW228381   2.606  13.946  10.082
42162SOL     OW28382  12.762   7.249   1.678
42162SOL    HW128383  12.734   7.240   1.587
42162SOL    HW228384  12.733   7.169   1.720
42163SOL     OW28385  13.227   6.006   6.387
42163SOL    HW128386  13.314   5.974   6.412
42163SOL    HW228387  13.241   6.098   6.364
42164SOL     OW28388   8.729  12.334   5.453
42164SOL    HW128389   8.782  12.407   5.485
42164SOL    HW228390   8.647  12.341   5.502
42165SOL     OW28391   9.958   4.657   0.735
42165SOL    HW128392   9.999   4.596   0.797
42165SOL    HW228393   9.879   4.686   0.779
42166SOL     OW28394   5.087  13.842   7.077
42166SOL    HW128395   5.037  13.923   7.078
42166SOL    HW228396   5.133  13.843   6.993
42167SOL     OW28397   1.299  13.973   4.511
42167SOL    HW128398   1.382  13.950   4.469
42167SOL    HW228399   1.310  14.064   4.539
42168SOL     OW28400   8.131   9.356   5.817
42168SOL    HW128401   8.217   9.395   5.830
42168SOL    HW228402   8.145   9.263   5.836
42169SOL     OW28403   3.014   3.341   6.552
42169SOL    HW128404   3.059   3.420   6.583
42169SOL    HW228405   3.072   3.269   6.576
42170SOL     OW28406   2.365   5.536   2.455
42170SOL    HW128407   2.412   5.480   2.393
42170SOL    HW228408   2.431   5.599   2.485
42171SOL     OW28409   9.970  12.450   9.090
42171SOL    HW128410   9.924  12.366   9.091
42171SOL    HW228411  10.062  12.427   9.098
42172SOL     OW28412  13.730   6.024  12.307
42172SOL    HW128413  13.825   6.026  12.295
42172SOL    HW228414  13.714   6.081  12.383
42173SOL     OW28415   1.832   2.277   3.898
42173SOL    HW128416   1.876   2.344   3.845
42173SOL    HW228417   1.904   2.223   3.932
42174SOL     OW28418  14.407   5.458   9.022
42174SOL    HW128419  14.456   5.460   9.104
42174SOL    HW228420  14.423   5.370   8.986
42175SOL     OW28421   1.659  12.976   7.616
42175SOL    HW128422   1.678  13.062   7.655
42175SOL    HW228423   1.727  12.918   7.651
42176SOL     OW28424  13.495   6.933   9.599
42176SOL    HW128425  13.551   6.943   9.675
42176SOL    HW228426  13.433   7.006   9.604
42177SOL     OW28427  11.846   7.253   9.756
42177SOL    HW128428  11.791   7.283   9.828
42177SOL    HW228429  11.933   7.286   9.776
42178SOL     OW28430  12.892   7.090   6.005
42178SOL    HW128431  12.984   7.077   6.027
42178SOL    HW228432  12.856   7.135   6.081
42179SOL     OW28433   8.073   8.875   5.241
42179SOL    HW128434   8.024   8.898   5.320
42179SOL    HW228435   8.163   8.901   5.260
42180SOL     OW28436   4.578  11.937   9.512
42180SOL    HW128437   4.559  11.844   9.497
42180SOL    HW228438   4.503  11.970   9.560
42181SOL     OW28439   9.488   9.982   6.785
42181SOL    HW128440   9.401   9.965   6.819
42181SOL    HW228441   9.473  10.026   6.701
42182SOL     OW28442   3.859   4.503  11.571
42182SOL    HW128443   3.844   4.576  11.632
42182SOL    HW228444   3.952   4.507  11.551
42183SOL     OW28445   0.530   4.693   7.469
42183SOL    HW128446   0.539   4.598   7.465
42183SOL    HW228447   0.462   4.708   7.535
42184SOL     OW28448  12.289  10.283  10.877
42184SOL    HW128449  12.283  10.188  10.863
42184SOL    HW228450  12.257  10.295  10.967
42185SOL     OW28451   1.617   9.882  11.253
42185SOL    HW128452   1.650   9.793  11.266
42185SOL    HW228453   1.523   9.872  11.244
42186SOL     OW28454   0.196   9.378  14.620
42186SOL    HW128455   0.118   9.400  14.671
42186SOL    HW228456   0.189   9.284  14.605
42187SOL     OW28457   5.714   5.895   1.662
42187SOL    HW128458   5.666   5.931   1.737
42187SOL    HW228459   5.751   5.971   1.618
42188SOL     OW28460  10.944  10.083   7.306
42188SOL    HW128461  10.945  10.178   7.291
42188SOL    HW228462  10.851  10.062   7.317
42189SOL     OW28463  11.167   8.909  11.136
42189SOL    HW128464  11.122   8.829  11.165
42189SOL    HW228465  11.194   8.890  11.046
42190SOL     OW28466   3.355   1.385   0.464
42190SOL    HW128467   3.391   1.297   0.456
42190SOL    HW228468   3.432   1.441   0.475
42191SOL     OW28469   2.997   3.260   9.493
42191SOL    HW128470   2.906   3.290   9.489
42191SOL    HW228471   3.027   3.287   9.580
42192SOL     OW28472   1.391   4.217  12.947
42192SOL    HW128473   1.425   4.300  12.915
42192SOL    HW228474   1.469   4.166  12.969
42193SOL     OW28475   3.355   0.799   8.469
42193SOL    HW128476   3.327   0.757   8.551
42193SOL    HW228477   3.404   0.876   8.497
42194SOL     OW28478   9.547   6.464  11.081
42194SOL    HW128479   9.518   6.404  11.012
42194SOL    HW228480   9.611   6.413  11.131
42195SOL     OW28481   8.806  11.764  12.867
42195SOL    HW128482   8.744  11.691  12.876
42195SOL    HW228483   8.890  11.727  12.895
42196SOL     OW28484   9.048   1.151   8.589
42196SOL    HW128485   9.119   1.164   8.527
42196SOL    HW228486   8.983   1.218   8.566
42197SOL     OW28487   5.606  13.215   9.139
42197SOL    HW128488   5.649  13.184   9.059
42197SOL    HW228489   5.614  13.141   9.200
42198SOL     OW28490  14.765   2.586  14.786
42198SOL    HW128491  14.778   2.664  14.733
42198SOL    HW228492  14.677   2.596  14.823
42199SOL     OW28493  13.747  12.651   6.877
42199SOL    HW128494  13.755  12.620   6.787
42199SOL    HW228495  13.753  12.573   6.931
42200SOL     OW28496   2.582   9.741  14.637
42200SOL    HW128497   2.624   9.665  14.678
42200SOL    HW228498   2.594   9.726  14.543
42201SOL     OW28499   0.342  12.507  11.254
42201SOL    HW128500   0.293  12.549  11.324
42201SOL    HW228501   0.430  12.546  11.259
42202SOL     OW28502   4.074  13.499   1.346
42202SOL    HW128503   4.041  13.421   1.391
42202SOL    HW228504   3.997  13.536   1.303
42203SOL     OW28505   9.610  10.496   6.897
42203SOL    HW128506   9.630  10.461   6.811
42203SOL    HW228507   9.515  10.485   6.906
42204SOL     OW28508   0.624   5.873   5.570
42204SOL    HW128509   0.566   5.798   5.580
42204SOL    HW228510   0.698   5.840   5.519
42205SOL     OW28511   5.298   0.578   2.542
42205SOL    HW128512   5.223   0.635   2.524
42205SOL    HW228513   5.276   0.536   2.625
42206SOL     OW28514  10.458   0.992   9.983
42206SOL    HW128515  10.537   0.995  10.036
42206SOL    HW228516  10.483   0.941   9.905
42207SOL     OW28517   5.110   7.416   3.657
42207SOL    HW128518   5.183   7.459   3.613
42207SOL    HW228519   5.136   7.323   3.659
42208SOL     OW28520   6.100   7.744  11.264
42208SOL    HW128521   6.029   7.680  11.275
42208SOL    HW228522   6.103   7.761  11.170
42209SOL     OW28523   1.836   7.408  11.124
42209SOL    HW128524   1.858   7.442  11.037
42209SOL    HW228525   1.822   7.314  11.110
42210SOL     OW28526   8.975  12.732   5.340
42210SOL    HW128527   8.909  12.737   5.272
42210SOL    HW228528   9.058  12.726   5.293
42211SOL     OW28529  14.047   4.570   8.773
42211SOL    HW128530  14.077   4.602   8.858
42211SOL    HW228531  14.098   4.490   8.759
42212SOL     OW28532   7.844   1.655   9.474
42212SOL    HW128533   7.930   1.639   9.435
42212SOL    HW228534   7.807   1.567   9.489
42213SOL     OW28535   4.548   6.600   0.605
42213SOL    HW128536   4.553   6.561   0.517
42213SOL    HW228537   4.563   6.526   0.664
42214SOL     OW28538   9.020   9.280   9.540
42214SOL    HW128539   8.992   9.225   9.613
42214SOL    HW228540   8.939   9.302   9.494
42215SOL     OW28541   0.276   9.142   0.667
42215SOL    HW128542   0.188   9.179   0.677
42215SOL    HW228543   0.272   9.057   0.709
42216SOL     OW28544  12.497   4.173   7.559
42216SOL    HW128545  12.454   4.151   7.476
42216SOL    HW228546  12.438   4.235   7.601
42217SOL     OW28547  12.229   6.433  14.847
42217SOL    HW128548  12.182   6.353  14.869
42217SOL    HW228549  12.302   6.403  14.792
42218SOL     OW28550  11.472   6.542   6.390
42218SOL    HW128551  11.531   6.558   6.317
42218SOL    HW228552  11.529   6.510   6.460
42219SOL     OW28553  11.150   2.673   9.941
42219SOL    HW128554  11.068   2.710   9.909
42219SOL    HW228555  11.132   2.651  10.033
42220SOL     OW28556   3.872   1.798   7.395
42220SOL    HW128557   3.888   1.798   7.301
42220SOL    HW228558   3.959   1.806   7.434
42221SOL     OW28559   0.212  10.849   2.198
42221SOL    HW128560   0.192  10.824   2.289
42221SOL    HW228561   0.303  10.823   2.186
42222SOL     OW28562   9.375   7.198   4.807
42222SOL    HW128563   9.368   7.244   4.891
42222SOL    HW228564   9.299   7.227   4.757
42223SOL     OW28565  11.968   9.515  13.429
42223SOL    HW128566  11.980   9.597  13.476
42223SOL    HW228567  11.900   9.468  13.477
42224SOL     OW28568   4.160   5.890   3.707
42224SOL    HW128569   4.201   5.804   3.692
42224SOL    HW228570   4.234   5.948   3.727
42225SOL     OW28571   1.204   9.676   8.930
42225SOL    HW128572   1.227   9.613   8.861
42225SOL    HW228573   1.277   9.737   8.933
42226SOL     OW28574   3.255  14.324   7.478
42226SOL    HW128575   3.304  14.406   7.485
42226SOL    HW228576   3.297  14.277   7.406
42227SOL     OW28577   8.863  14.419   5.321
42227SOL    HW128578   8.888  14.468   5.243
42227SOL    HW228579   8.938  14.425   5.379
42228SOL     OW28580   9.992  11.643   5.164
42228SOL    HW128581   9.978  11.664   5.072
42228SOL    HW228582   9.979  11.548   5.169
42229SOL     OW28583  12.553   2.778   0.629
42229SOL    HW128584  12.565   2.687   0.656
42229SOL    HW228585  12.480   2.810   0.681
42230SOL     OW28586   9.808   5.436   8.696
42230SOL    HW128587   9.727   5.426   8.745
42230SOL    HW228588   9.785   5.493   8.623
42231SOL     OW28589   3.184   4.156  13.073
42231SOL    HW128590   3.186   4.237  13.022
42231SOL    HW228591   3.094   4.150  13.104
42232SOL     OW28592   1.480   1.041   2.498
42232SOL    HW128593   1.508   1.103   2.430
42232SOL    HW228594   1.411   1.086   2.546
42233SOL     OW28595   4.421  10.146   1.865
42233SOL    HW128596   4.356  10.076   1.869
42233SOL    HW228597   4.379  10.214   1.812
42234SOL     OW28598   1.303   7.976   8.889
42234SOL    HW128599   1.247   8.037   8.842
42234SOL    HW228600   1.251   7.895   8.892
42235SOL     OW28601   7.964  13.500   5.027
42235SOL    HW128602   7.931  13.590   5.024
42235SOL    HW228603   8.057  13.509   5.007
42236SOL     OW28604  13.908   2.890   7.171
42236SOL    HW128605  13.856   2.820   7.211
42236SOL    HW228606  13.980   2.904   7.232
42237SOL     OW28607   3.995   7.048   1.319
42237SOL    HW128608   3.917   6.996   1.343
42237SOL    HW228609   4.021   7.091   1.401
42238SOL     OW28610   0.783   6.571   4.552
42238SOL    HW128611   0.687   6.568   4.554
42238SOL    HW228612   0.809   6.554   4.643
42239SOL     OW28613  12.782   2.763   3.714
42239SOL    HW128614  12.784   2.725   3.626
42239SOL    HW228615  12.691   2.792   3.725
42240SOL     OW28616   8.431   5.436   6.068
42240SOL    HW128617   8.505   5.375   6.075
42240SOL    HW228618   8.435   5.468   5.978
42241SOL     OW28619   6.665   7.375  13.128
42241SOL    HW128620   6.624   7.298  13.167
42241SOL    HW228621   6.595   7.419  13.081
42242SOL     OW28622   2.847   5.951   9.635
42242SOL    HW128623   2.787   6.018   9.603
42242SOL    HW228624   2.796   5.901   9.699
42243SOL     OW28625   9.956   6.082   6.478
42243SOL    HW128626   9.867   6.117   6.475
42243SOL    HW228627  10.010   6.149   6.434
42244SOL     OW28628  12.438   4.245   5.531
42244SOL    HW128629  12.410   4.336   5.523
42244SOL    HW228630  12.531   4.247   5.511
42245SOL     OW28631  10.656   8.408  11.875
42245SOL    HW128632  10.616   8.336  11.826
42245SOL    HW228633  10.718   8.365  11.933
42246SOL     OW28634  13.685   2.902  13.343
42246SOL    HW128635  13.609   2.947  13.380
42246SOL    HW228636  13.758   2.932  13.397
42247SOL     OW28637   8.546   5.513   2.953
42247SOL    HW128638   8.528   5.602   2.923
42247SOL    HW228639   8.636   5.516   2.986
42248SOL     OW28640   7.494   1.194  14.185
42248SOL    HW128641   7.577   1.189  14.234
42248SOL    HW228642   7.453   1.275  14.216
42249SOL     OW28643  14.763   1.399   8.541
42249SOL    HW128644  14.832   1.465   8.533
42249SOL    HW228645  14.799   1.322   8.497
42250SOL     OW28646   0.263   6.797   8.579
42250SOL    HW128647   0.237   6.720   8.629
42250SOL    HW228648   0.345   6.772   8.537
42251SOL     OW28649   9.749  11.037   3.203
42251SOL    HW128650   9.836  11.001   3.183
42251SOL    HW228651   9.756  11.130   3.181
42252SOL     OW28652  12.097   7.204  10.948
42252SOL    HW128653  12.045   7.219  11.027
42252SOL    HW228654  12.186   7.189  10.980
42253SOL     OW28655  12.223   4.829   3.371
42253SOL    HW128656  12.239   4.764   3.302
42253SOL    HW228657  12.179   4.780   3.441
42254SOL     OW28658   1.683  12.504  14.607
42254SOL    HW128659   1.714  12.414  14.600
42254SOL    HW228660   1.749  12.548  14.660
42255SOL     OW28661  13.129  13.702   5.361
42255SOL    HW128662  13.134  13.781   5.414
42255SOL    HW228663  13.123  13.734   5.271
42256SOL     OW28664   9.056  11.428  11.182
42256SOL    HW128665   8.971  11.404  11.218
42256SOL    HW228666   9.053  11.523  11.174
42257SOL     OW28667   1.571   4.830  14.526
42257SOL    HW128668   1.485   4.828  14.485
42257SOL    HW228669   1.601   4.739  14.524
42258SOL     OW28670   7.064   3.087   5.350
42258SOL    HW128671   7.147   3.075   5.304
42258SOL    HW228672   7.041   2.999   5.380
42259SOL     OW28673   6.865  13.673   6.555
42259SOL    HW128674   6.830  13.613   6.489
42259SOL    HW228675   6.864  13.759   6.513
42260SOL     OW28676  12.803   2.905   5.576
42260SOL    HW128677  12.758   2.838   5.524
42260SOL    HW228678  12.878   2.931   5.523
42261SOL     OW28679  10.700   0.521  10.623
42261SOL    HW128680  10.711   0.610  10.589
42261SOL    HW228681  10.607   0.513  10.641
42262SOL     OW28682   5.862  14.158   7.360
42262SOL    HW128683   5.801  14.231   7.372
42262SOL    HW228684   5.852  14.134   7.267
42263SOL     OW28685  13.121   3.655   8.728
42263SOL    HW128686  13.196   3.600   8.709
42263SOL    HW228687  13.049   3.593   8.744
42264SOL     OW28688   8.133  13.557   1.298
42264SOL    HW128689   8.107  13.588   1.385
42264SOL    HW228690   8.134  13.462   1.306
42265SOL     OW28691   3.879   7.003  11.010
42265SOL    HW128692   3.929   7.035  10.934
42265SOL    HW228693   3.875   7.077  11.070
42266SOL     OW28694  11.413  12.577   7.372
42266SOL    HW128695  11.434  12.484   7.367
42266SOL    HW228696  11.413  12.606   7.281
42267SOL     OW28697   8.003  11.565  10.989
42267SOL    HW128698   8.056  11.637  11.020
42267SOL    HW228699   8.029  11.553  10.897
42268SOL     OW28700   9.410   4.568   9.567
42268SOL    HW128701   9.389   4.581   9.474
42268SOL    HW228702   9.371   4.643   9.611
42269SOL     OW28703   1.368   5.604   5.041
42269SOL    HW128704   1.361   5.524   5.092
42269SOL    HW228705   1.367   5.674   5.107
42270SOL     OW28706   1.851  11.444   1.729
42270SOL    HW128707   1.924  11.488   1.774
42270SOL    HW228708   1.889  11.363   1.695
42271SOL     OW28709   3.991   5.436   9.414
42271SOL    HW128710   3.946   5.487   9.347
42271SOL    HW228711   4.062   5.493   9.444
42272SOL     OW28712   8.345   6.593  14.367
42272SOL    HW128713   8.297   6.674  14.348
42272SOL    HW228714   8.299   6.525  14.318
42273SOL     OW28715  13.753   9.566  14.784
42273SOL    HW128716  13.841   9.592  14.758
42273SOL    HW228717  13.760   9.473  14.803
42274SOL     OW28718   0.702  12.802   0.818
42274SOL    HW128719   0.633  12.813   0.882
42274SOL    HW228720   0.657  12.787   0.735
42275SOL     OW28721   7.241  10.059   7.418
42275SOL    HW128722   7.295  10.099   7.350
42275SOL    HW228723   7.152  10.088   7.398
42276SOL     OW28724   5.527   1.217   9.155
42276SOL    HW128725   5.493   1.230   9.244
42276SOL    HW228726   5.582   1.294   9.140
42277SOL     OW28727   0.252   0.216   1.595
42277SOL    HW128728   0.209   0.193   1.512
42277SOL    HW228729   0.254   0.312   1.595
42278SOL     OW28730   5.373   4.221   6.467
42278SOL    HW128731   5.364   4.221   6.372
42278SOL    HW228732   5.332   4.303   6.495
42279SOL     OW28733  12.233   1.556   8.646
42279SOL    HW128734  12.185   1.592   8.721
42279SOL    HW228735  12.166   1.514   8.592
42280SOL     OW28736   4.441  10.008   6.506
42280SOL    HW128737   4.533  10.011   6.480
42280SOL    HW228738   4.426  10.092   6.549
42281SOL     OW28739   6.864   5.749   0.226
42281SOL    HW128740   6.795   5.815   0.236
42281SOL    HW228741   6.834   5.675   0.279
42282SOL     OW28742   1.618   0.104   9.452
42282SOL    HW128743   1.538   0.148   9.479
42282SOL    HW228744   1.659   0.163   9.389
42283SOL     OW28745  12.506   0.681   4.378
42283SOL    HW128746  12.495   0.611   4.314
42283SOL    HW228747  12.451   0.753   4.346
42284SOL     OW28748   2.301   0.285   4.696
42284SOL    HW128749   2.291   0.350   4.626
42284SOL    HW228750   2.227   0.301   4.754
42285SOL     OW28751   7.846   0.569   1.903
42285SOL    HW128752   7.820   0.546   1.992
42285SOL    HW228753   7.880   0.487   1.866
42286SOL     OW28754  14.557   4.000   6.353
42286SOL    HW128755  14.613   4.057   6.300
42286SOL    HW228756  14.469   4.012   6.318
42287SOL     OW28757   1.387   5.703   2.567
42287SOL    HW128758   1.320   5.732   2.628
42287SOL    HW228759   1.376   5.759   2.490
42288SOL     OW28760   5.513   7.115  12.015
42288SOL    HW128761   5.451   7.100  11.944
42288SOL    HW228762   5.573   7.041  12.011
42289SOL     OW28763   0.338   1.486   8.171
42289SOL    HW128764   0.260   1.434   8.158
42289SOL    HW228765   0.326   1.563   8.115
42290SOL     OW28766  14.451   4.374   7.519
42290SOL    HW128767  14.364   4.413   7.525
42290SOL    HW228768  14.451   4.304   7.585
42291SOL     OW28769   1.363   0.616  13.040
42291SOL    HW128770   1.391   0.708  13.039
42291SOL    HW228771   1.267   0.621  13.038
42292SOL     OW28772   3.309   8.293   5.432
42292SOL    HW128773   3.310   8.275   5.526
42292SOL    HW228774   3.382   8.354   5.420
42293SOL     OW28775   8.624   1.789   7.437
42293SOL    HW128776   8.609   1.855   7.369
42293SOL    HW228777   8.699   1.822   7.487
42294SOL     OW28778  10.801   2.495   2.145
42294SOL    HW128779  10.846   2.481   2.229
42294SOL    HW228780  10.778   2.587   2.146
42295SOL     OW28781  13.859   9.347  13.148
42295SOL    HW128782  13.891   9.349  13.238
42295SOL    HW228783  13.765   9.365  13.156
42296SOL     OW28784   7.689   9.104   9.655
42296SOL    HW128785   7.750   9.146   9.717
42296SOL    HW228786   7.604   9.143   9.676
42297SOL     OW28787   8.820   4.697   1.048
42297SOL    HW128788   8.886   4.655   1.103
42297SOL    HW228789   8.856   4.695   0.960
42298SOL     OW28790  11.045   6.375  13.273
42298SOL    HW128791  11.105   6.351  13.202
42298SOL    HW228792  11.094   6.353  13.353
42299SOL     OW28793  13.288   3.513   6.151
42299SOL    HW128794  13.343   3.551   6.083
42299SOL    HW228795  13.295   3.418   6.137
42300SOL     OW28796   2.179   6.296   1.886
42300SOL    HW128797   2.192   6.355   1.960
42300SOL    HW228798   2.107   6.334   1.836
42301SOL     OW28799  13.290  12.353   1.013
42301SOL    HW128800  13.313  12.437   0.973
42301SOL    HW228801  13.213  12.373   1.068
42302SOL     OW28802   9.087   1.092   9.153
42302SOL    HW128803   9.011   1.135   9.114
42302SOL    HW228804   9.076   1.104   9.247
42303SOL     OW28805   7.905   1.096  10.222
42303SOL    HW128806   7.827   1.151  10.222
42303SOL    HW228807   7.880   1.021  10.168
42304SOL     OW28808  11.047   3.836   3.370
42304SOL    HW128809  10.998   3.761   3.337
42304SOL    HW228810  11.083   3.878   3.292
42305SOL     OW28811   6.019   6.640   6.379
42305SOL    HW128812   5.948   6.601   6.430
42305SOL    HW228813   5.977   6.712   6.331
42306SOL     OW28814  11.195  12.198   3.237
42306SOL    HW128815  11.283  12.225   3.261
42306SOL    HW228816  11.201  12.173   3.145
42307SOL     OW28817  11.901  13.600   1.074
42307SOL    HW128818  11.944  13.678   1.112
42307SOL    HW228819  11.923  13.530   1.135
42308SOL     OW28820   7.032   3.493   1.667
42308SOL    HW128821   7.007   3.520   1.755
42308SOL    HW228822   7.063   3.574   1.625
42309SOL     OW28823   4.015   1.594   1.538
42309SOL    HW128824   4.002   1.525   1.473
42309SOL    HW228825   4.052   1.668   1.488
42310SOL     OW28826  13.642   5.813   3.083
42310SOL    HW128827  13.620   5.902   3.056
42310SOL    HW228828  13.572   5.788   3.143
42311SOL     OW28829   9.386  13.810   0.347
42311SOL    HW128830   9.329  13.746   0.390
42311SOL    HW228831   9.365  13.893   0.390
42312SOL     OW28832   7.474   3.202   6.458
42312SOL    HW128833   7.564   3.169   6.456
42312SOL    HW228834   7.452   3.218   6.366
42313SOL     OW28835   3.417   2.067  13.132
42313SOL    HW128836   3.449   2.074  13.222
42313SOL    HW228837   3.365   1.987  13.131
42314SOL     OW28838   9.136   7.783  13.286
42314SOL    HW128839   9.127   7.736  13.204
42314SOL    HW228840   9.115   7.874  13.265
42315SOL     OW28841  11.753   5.257  12.929
42315SOL    HW128842  11.725   5.339  12.968
42315SOL    HW228843  11.841   5.274  12.895
42316SOL     OW28844  12.570  13.837   3.118
42316SOL    HW128845  12.515  13.759   3.127
42316SOL    HW228846  12.651  13.815   3.163
42317SOL     OW28847   0.437   3.877   6.404
42317SOL    HW128848   0.507   3.812   6.416
42317SOL    HW228849   0.382   3.839   6.334
42318SOL     OW28850  12.571   7.862   2.817
42318SOL    HW128851  12.636   7.809   2.771
42318SOL    HW228852  12.615   7.887   2.899
42319SOL     OW28853  14.864   9.104   7.756
42319SOL    HW128854  14.854   9.068   7.668
42319SOL    HW228855  14.776   9.104   7.793
42320SOL     OW28856  11.782   2.006  14.359
42320SOL    HW128857  11.875   2.025  14.349
42320SOL    HW228858  11.738   2.083  14.323
42321SOL     OW28859   8.424   0.958   0.913
42321SOL    HW128860   8.474   0.887   0.872
42321SOL    HW228861   8.335   0.947   0.881
42322SOL     OW28862   5.346   1.163   7.718
42322SOL    HW128863   5.412   1.198   7.658
42322SOL    HW228864   5.361   1.211   7.800
42323SOL     OW28865   1.687   4.868   6.178
42323SOL    HW128866   1.672   4.792   6.235
42323SOL    HW228867   1.738   4.833   6.105
42324SOL     OW28868   0.545   9.370  12.139
42324SOL    HW128869   0.638   9.385  12.156
42324SOL    HW228870   0.500   9.411  12.214
42325SOL     OW28871   5.847   0.586   7.723
42325SOL    HW128872   5.758   0.613   7.697
42325SOL    HW228873   5.837   0.553   7.812
42326SOL     OW28874  11.813   8.982  13.186
42326SOL    HW128875  11.871   9.046  13.229
42326SOL    HW228876  11.761   9.035  13.125
42327SOL     OW28877  13.578   1.470   2.675
42327SOL    HW128878  13.635   1.417   2.730
42327SOL    HW228879  13.589   1.559   2.707
42328SOL     OW28880   0.746   4.120   9.912
42328SOL    HW128881   0.768   4.208   9.881
42328SOL    HW228882   0.809   4.062   9.869
42329SOL     OW28883   3.416   0.015   5.780
42329SOL    HW128884   3.378  14.802   5.779
42329SOL    HW228885   3.341   0.073   5.789
42330SOL     OW28886   0.680   7.896   9.940
42330SOL    HW128887   0.673   7.938   9.855
42330SOL    HW228888   0.732   7.957   9.993
42331SOL     OW28889  10.076   3.256  11.557
42331SOL    HW128890  10.016   3.325  11.528
42331SOL    HW228891  10.151   3.263  11.498
42332SOL     OW28892   4.298  13.288   6.842
42332SOL    HW128893   4.336  13.375   6.844
42332SOL    HW228894   4.364  13.233   6.799
42333SOL     OW28895   5.291   0.112  10.865
42333SOL    HW128896   5.338   0.070  10.793
42333SOL    HW228897   5.289   0.045  10.934
42334SOL     OW28898   4.634  13.708  13.594
42334SOL    HW128899   4.697  13.778  13.579
42334SOL    HW228900   4.688  13.633  13.621
42335SOL     OW28901  13.160  11.170   7.853
42335SOL    HW128902  13.245  11.192   7.816
42335SOL    HW228903  13.121  11.109   7.789
42336SOL     OW28904   1.100   7.137   5.886
42336SOL    HW128905   1.186   7.128   5.928
42336SOL    HW228906   1.095   7.229   5.861
42337SOL     OW28907   2.915   5.197  13.367
42337SOL    HW128908   2.833   5.162  13.402
42337SOL    HW228909   2.981   5.174  13.433
42338SOL     OW28910   8.177   8.130  13.728
42338SOL    HW128911   8.233   8.150  13.653
42338SOL    HW228912   8.188   8.205  13.786
42339SOL     OW28913   4.296   3.090  14.199
42339SOL    HW128914   4.319   3.154  14.131
42339SOL    HW228915   4.372   3.086  14.256
42340SOL     OW28916  14.474   0.364  11.355
42340SOL    HW128917  14.391   0.317  11.344
42340SOL    HW228918  14.524   0.342  11.276
42341SOL     OW28919   9.339   8.845  14.202
42341SOL    HW128920   9.410   8.788  14.172
42341SOL    HW228921   9.365   8.933  14.173
42342SOL     OW28922  11.810  14.075  11.370
42342SOL    HW128923  11.744  14.017  11.331
42342SOL    HW228924  11.849  14.120  11.296
42343SOL     OW28925  13.018   4.279   7.044
42343SOL    HW128926  13.002   4.325   6.962
42343SOL    HW228927  13.092   4.326   7.084
42344SOL     OW28928   7.507   8.147   3.050
42344SOL    HW128929   7.457   8.163   2.970
42344SOL    HW228930   7.481   8.217   3.109
42345SOL     OW28931   9.752   4.831  14.638
42345SOL    HW128932   9.821   4.806  14.576
42345SOL    HW228933   9.791   4.816  14.724
42346SOL     OW28934  12.271  10.230   6.235
42346SOL    HW128935  12.299  10.310   6.191
42346SOL    HW228936  12.181  10.217   6.204
42347SOL     OW28937   1.444   6.438  11.837
42347SOL    HW128938   1.442   6.355  11.884
42347SOL    HW228939   1.537   6.453  11.818
42348SOL     OW28940   8.660   3.598  12.573
42348SOL    HW128941   8.685   3.548  12.651
42348SOL    HW228942   8.731   3.582  12.510
42349SOL     OW28943   6.602   7.153  12.169
42349SOL    HW128944   6.686   7.117  12.196
42349SOL    HW228945   6.620   7.200  12.087
42350SOL     OW28946  10.042  13.227  12.384
42350SOL    HW128947   9.990  13.153  12.418
42350SOL    HW228948   9.990  13.304  12.406
42351SOL     OW28949   9.819   4.493  14.656
42351SOL    HW128950   9.831   4.587  14.644
42351SOL    HW228951   9.800   4.483  14.749
42352SOL     OW28952   9.571   2.676   1.479
42352SOL    HW128953   9.605   2.700   1.566
42352SOL    HW228954   9.583   2.581   1.475
42353SOL     OW28955  13.028  10.341   8.274
42353SOL    HW128956  13.057  10.396   8.201
42353SOL    HW228957  13.105  10.336   8.332
42354SOL     OW28958   8.752  10.775   7.296
42354SOL    HW128959   8.708  10.859   7.306
42354SOL    HW228960   8.787  10.776   7.207
42355SOL     OW28961  10.942  10.147   9.185
42355SOL    HW128962  10.935  10.058   9.151
42355SOL    HW228963  11.007  10.141   9.255
42356SOL     OW28964   7.264   5.327   0.172
42356SOL    HW128965   7.236   5.279   0.095
42356SOL    HW228966   7.349   5.289   0.195
42357SOL     OW28967   8.756  11.555   0.989
42357SOL    HW128968   8.817  11.482   1.001
42357SOL    HW228969   8.797  11.628   1.036
42358SOL     OW28970   4.371   0.554  12.416
42358SOL    HW128971   4.324   0.600  12.347
42358SOL    HW228972   4.369   0.614  12.490
42359SOL     OW28973   8.828   6.522  14.701
42359SOL    HW128974   8.872   6.485  14.777
42359SOL    HW228975   8.734   6.508  14.717
42360SOL     OW28976   6.879   0.449   2.205
42360SOL    HW128977   6.844   0.475   2.120
42360SOL    HW228978   6.947   0.514   2.223
42361SOL     OW28979   2.542   3.288  14.399
42361SOL    HW128980   2.453   3.317  14.385
42361SOL    HW228981   2.592   3.368  14.417
42362SOL     OW28982   5.936  10.006  11.599
42362SOL    HW128983   6.007  10.016  11.662
42362SOL    HW228984   5.914   9.913  11.604
42363SOL     OW28985  12.718   2.552   2.272
42363SOL    HW128986  12.695   2.575   2.182
42363SOL    HW228987  12.644   2.582   2.324
42364SOL     OW28988   5.050   2.496   1.909
42364SOL    HW128989   4.990   2.448   1.966
42364SOL    HW228990   5.093   2.429   1.856
42365SOL     OW28991  14.358  12.642   3.702
42365SOL    HW128992  14.316  12.639   3.616
42365SOL    HW228993  14.351  12.733   3.730
42366SOL     OW28994   3.193  12.199  12.121
42366SOL    HW128995   3.208  12.191  12.027
42366SOL    HW228996   3.138  12.125  12.144
42367SOL     OW28997   3.942   9.394   8.177
42367SOL    HW128998   3.854   9.413   8.210
42367SOL    HW228999   3.970   9.475   8.135
42368SOL     OW29000   9.024   3.615   7.532
42368SOL    HW129001   8.944   3.667   7.542
42368SOL    HW229002   9.036   3.609   7.437
42369SOL     OW29003   4.572   2.031   6.096
42369SOL    HW129004   4.666   2.018   6.088
42369SOL    HW229005   4.534   1.944   6.087
42370SOL     OW29006   8.013  14.090   2.579
42370SOL    HW129007   8.051  14.128   2.500
42370SOL    HW229008   8.076  14.109   2.648
42371SOL     OW29009   8.535   3.141  12.215
42371SOL    HW129010   8.624   3.177  12.218
42371SOL    HW229011   8.546   3.047  12.207
42372SOL     OW29012   9.154   9.367   4.701
42372SOL    HW129013   9.237   9.336   4.736
42372SOL    HW229014   9.164   9.463   4.697
42373SOL     OW29015  10.719   0.587   0.723
42373SOL    HW129016  10.778   0.631   0.661
42373SOL    HW229017  10.638   0.639   0.720
42374SOL     OW29018   2.466   0.174   3.784
42374SOL    HW129019   2.425   0.095   3.748
42374SOL    HW229020   2.399   0.212   3.840
42375SOL     OW29021   8.626   1.298  12.335
42375SOL    HW129022   8.581   1.279  12.417
42375SOL    HW229023   8.584   1.242  12.270
42376SOL     OW29024   4.869  13.842   4.251
42376SOL    HW129025   4.885  13.896   4.173
42376SOL    HW229026   4.887  13.753   4.221
42377SOL     OW29027   8.207  13.999  13.287
42377SOL    HW129028   8.283  13.956  13.248
42377SOL    HW229029   8.191  13.952  13.369
42378SOL     OW29030   8.713   2.857   4.245
42378SOL    HW129031   8.710   2.950   4.266
42378SOL    HW229032   8.730   2.854   4.151
42379SOL     OW29033   5.523   3.751  10.074
42379SOL    HW129034   5.518   3.810   9.999
42379SOL    HW229035   5.580   3.797  10.136
42380SOL     OW29036   1.609  12.572  10.045
42380SOL    HW129037   1.603  12.667  10.033
42380SOL    HW229038   1.680  12.560  10.108
42381SOL     OW29039  10.580  10.614   5.037
42381SOL    HW129040  10.558  10.704   5.012
42381SOL    HW229041  10.504  10.583   5.085
42382SOL     OW29042  12.069   7.043   9.643
42382SOL    HW129043  12.065   7.064   9.736
42382SOL    HW229044  11.977   7.046   9.614
42383SOL     OW29045   9.757   2.994   3.232
42383SOL    HW129046   9.769   3.017   3.324
42383SOL    HW229047   9.790   2.905   3.226
42384SOL     OW29048   0.056   8.635   3.242
42384SOL    HW129049  14.846   8.678   3.245
42384SOL    HW229050   0.052   8.568   3.310
42385SOL     OW29051  13.297   8.490   0.672
42385SOL    HW129052  13.245   8.431   0.617
42385SOL    HW229053  13.253   8.489   0.757
42386SOL     OW29054  13.946  10.633   9.070
42386SOL    HW129055  14.031  10.637   9.113
42386SOL    HW229056  13.904  10.555   9.108
42387SOL     OW29057   3.547   7.456   7.700
42387SOL    HW129058   3.593   7.539   7.718
42387SOL    HW229059   3.503   7.434   7.782
42388SOL     OW29060  13.749   0.094   2.750
42388SOL    HW129061  13.835   0.134   2.762
42388SOL    HW229062  13.764   0.025   2.685
42389SOL     OW29063   3.093  14.564   7.312
42389SOL    HW129064   3.169  14.524   7.354
42389SOL    HW229065   3.109  14.552   7.218
42390SOL     OW29066  12.467   2.168   2.901
42390SOL    HW129067  12.472   2.111   2.824
42390SOL    HW229068  12.374   2.187   2.911
42391SOL     OW29069   7.434   5.334   1.593
42391SOL    HW129070   7.416   5.385   1.672
42391SOL    HW229071   7.524   5.357   1.570
42392SOL     OW29072  11.604   3.300   1.330
42392SOL    HW129073  11.656   3.279   1.253
42392SOL    HW229074  11.544   3.226   1.340
42393SOL     OW29075   4.517   2.893   1.412
42393SOL    HW129076   4.503   2.816   1.466
42393SOL    HW229077   4.572   2.863   1.340
42394SOL     OW29078   2.549   0.973   7.011
42394SOL    HW129079   2.578   0.887   7.043
42394SOL    HW229080   2.620   1.003   6.955
42395SOL     OW29081   6.643  10.161   6.017
42395SOL    HW129082   6.709  10.198   5.958
42395SOL    HW229083   6.680  10.174   6.105
42396SOL     OW29084   2.687  10.992   5.333
42396SOL    HW129085   2.688  11.005   5.427
42396SOL    HW229086   2.778  10.976   5.309
42397SOL     OW29087  13.189   0.617   9.259
42397SOL    HW129088  13.239   0.665   9.193
42397SOL    HW229089  13.115   0.580   9.210
42398SOL     OW29090   8.088  14.664   3.271
42398SOL    HW129091   8.179  14.637   3.268
42398SOL    HW229092   8.067  14.669   3.364
42399SOL     OW29093   7.769   1.346   6.699
42399SOL    HW129094   7.746   1.280   6.764
42399SOL    HW229095   7.772   1.298   6.616
42400SOL     OW29096   7.516  14.729   2.379
42400SOL    HW129097   7.515  14.764   2.468
42400SOL    HW229098   7.608  14.724   2.355
42401SOL     OW29099   6.169   2.939   2.232
42401SOL    HW129100   6.131   2.874   2.172
42401SOL    HW229101   6.210   2.887   2.301
42402SOL     OW29102   6.536   0.545   5.988
42402SOL    HW129103   6.541   0.589   5.904
42402SOL    HW229104   6.534   0.452   5.966
42403SOL     OW29105   0.407   7.113   8.088
42403SOL    HW129106   0.379   7.104   7.997
42403SOL    HW229107   0.329   7.093   8.140
42404SOL     OW29108   6.835   0.683  10.533
42404SOL    HW129109   6.779   0.606  10.548
42404SOL    HW229110   6.788   0.735  10.468
42405SOL     OW29111   3.037   2.541   2.679
42405SOL    HW129112   3.099   2.478   2.716
42405SOL    HW229113   3.090   2.593   2.618
42406SOL     OW29114   3.448  13.368   3.441
42406SOL    HW129115   3.463  13.401   3.352
42406SOL    HW229116   3.366  13.408   3.468
42407SOL     OW29117   9.016   1.423   9.167
42407SOL    HW129118   9.012   1.427   9.262
42407SOL    HW229119   9.090   1.479   9.144
42408SOL     OW29120   6.217   4.095   9.332
42408SOL    HW129121   6.305   4.098   9.370
42408SOL    HW229122   6.214   4.170   9.273
42409SOL     OW29123   3.182   9.142  11.940
42409SOL    HW129124   3.249   9.205  11.967
42409SOL    HW229125   3.229   9.060  11.927
42410SOL     OW29126   3.752   7.730  14.427
42410SOL    HW129127   3.734   7.770  14.512
42410SOL    HW229128   3.680   7.759  14.372
42411SOL     OW29129   3.035  13.362  11.041
42411SOL    HW129130   3.062  13.308  10.967
42411SOL    HW229131   3.045  13.306  11.118
42412SOL     OW29132   0.227  14.650   0.687
42412SOL    HW129133   0.322  14.651   0.672
42412SOL    HW229134   0.192  14.599   0.613
42413SOL     OW29135   0.281  12.310   1.089
42413SOL    HW129136   0.232  12.230   1.108
42413SOL    HW229137   0.371  12.280   1.073
42414SOL     OW29138   8.474   0.241   6.004
42414SOL    HW129139   8.479   0.285   5.919
42414SOL    HW229140   8.526   0.296   6.063
42415SOL     OW29141   4.568  14.336  14.419
42415SOL    HW129142   4.592  14.343  14.326
42415SOL    HW229143   4.648  14.357  14.466
42416SOL     OW29144  10.948  12.610  10.607
42416SOL    HW129145  10.994  12.537  10.564
42416SOL    HW229146  11.013  12.680  10.611
42417SOL     OW29147  13.394   5.882   3.754
42417SOL    HW129148  13.307   5.896   3.717
42417SOL    HW229149  13.419   5.968   3.789
42418SOL     OW29150  11.707   4.777   1.720
42418SOL    HW129151  11.676   4.844   1.659
42418SOL    HW229152  11.636   4.714   1.724
42419SOL     OW29153   0.044   0.190   5.000
42419SOL    HW129154  14.828   0.158   4.995
42419SOL    HW229155   0.072   0.169   5.089
42420SOL     OW29156   6.487   8.156   7.673
42420SOL    HW129157   6.522   8.103   7.602
42420SOL    HW229158   6.422   8.213   7.632
42421SOL     OW29159   4.231  10.602   4.095
42421SOL    HW129160   4.149  10.636   4.058
42421SOL    HW229161   4.278  10.567   4.019
42422SOL     OW29162   7.679  11.610   3.675
42422SOL    HW129163   7.718  11.601   3.762
42422SOL    HW229164   7.586  11.625   3.692
42423SOL     OW29165   0.443  10.242   4.440
42423SOL    HW129166   0.425  10.217   4.531
42423SOL    HW229167   0.374  10.200   4.390
42424SOL     OW29168  13.804   5.419   2.158
42424SOL    HW129169  13.750   5.425   2.236
42424SOL    HW229170  13.769   5.343   2.110
42425SOL     OW29171   1.032   4.280  11.025
42425SOL    HW129172   1.072   4.365  11.006
42425SOL    HW229173   1.037   4.272  11.120
42426SOL     OW29174   9.062  13.406   9.237
42426SOL    HW129175   8.989  13.374   9.291
42426SOL    HW229176   9.026  13.410   9.148
42427SOL     OW29177  13.852  10.402   7.752
42427SOL    HW129178  13.930  10.427   7.802
42427SOL    HW229179  13.886  10.369   7.669
42428SOL     OW29180  12.641  11.368   2.996
42428SOL    HW129181  12.656  11.419   2.916
42428SOL    HW229182  12.686  11.417   3.064
42429SOL     OW29183   5.370   5.962   8.268
42429SOL    HW129184   5.335   6.025   8.332
42429SOL    HW229185   5.356   6.004   8.183
42430SOL     OW29186   6.379  14.632   8.412
42430SOL    HW129187   6.392  14.545   8.450
42430SOL    HW229188   6.445  14.686   8.456
42431SOL     OW29189   0.626   4.409   0.642
42431SOL    HW129190   0.686   4.429   0.569
42431SOL    HW229191   0.566   4.344   0.606
42432SOL     OW29192  11.349  12.627   9.560
42432SOL    HW129193  11.303  12.543   9.557
42432SOL    HW229194  11.372  12.645   9.469
42433SOL     OW29195  10.067  14.277   3.935
42433SOL    HW129196  10.041  14.370   3.936
42433SOL    HW229197  10.018  14.238   4.008
42434SOL     OW29198  12.055   7.477  14.774
42434SOL    HW129199  12.099   7.544  14.722
42434SOL    HW229200  11.989   7.441  14.715
42435SOL     OW29201   0.718   9.840   4.771
42435SOL    HW129202   0.723   9.934   4.753
42435SOL    HW229203   0.730   9.799   4.686
42436SOL     OW29204   7.473  12.979  13.824
42436SOL    HW129205   7.381  13.000  13.841
42436SOL    HW229206   7.522  13.035  13.885
42437SOL     OW29207   5.389   2.030   5.603
42437SOL    HW129208   5.344   2.092   5.546
42437SOL    HW229209   5.322   2.002   5.665
42438SOL     OW29210   6.213  11.984   3.870
42438SOL    HW129211   6.250  11.993   3.958
42438SOL    HW229212   6.289  11.973   3.813
42439SOL     OW29213   3.843  10.657   6.436
42439SOL    HW129214   3.804  10.630   6.353
42439SOL    HW229215   3.909  10.722   6.412
42440SOL     OW29216  11.393  10.990   0.425
42440SOL    HW129217  11.399  11.070   0.373
42440SOL    HW229218  11.404  10.919   0.361
42441SOL     OW29219  12.097   3.474  12.850
42441SOL    HW129220  12.092   3.552  12.793
42441SOL    HW229221  12.022   3.420  12.822
42442SOL     OW29222   9.184   6.743   5.533
42442SOL    HW129223   9.233   6.806   5.480
42442SOL    HW229224   9.161   6.792   5.612
42443SOL     OW29225   3.356  11.611   8.628
42443SOL    HW129226   3.442  11.611   8.586
42443SOL    HW229227   3.321  11.524   8.609
42444SOL     OW29228   4.746   6.093   7.782
42444SOL    HW129229   4.784   6.005   7.782
42444SOL    HW229230   4.811   6.147   7.736
42445SOL     OW29231   9.138  14.254  14.288
42445SOL    HW129232   9.095  14.199  14.222
42445SOL    HW229233   9.224  14.273  14.251
42446SOL     OW29234   2.300   3.448   2.596
42446SOL    HW129235   2.267   3.528   2.555
42446SOL    HW229236   2.338   3.477   2.679
42447SOL     OW29237   1.818  10.191   7.701
42447SOL    HW129238   1.856  10.189   7.614
42447SOL    HW229239   1.748  10.255   7.696
42448SOL     OW29240   5.925  13.714  12.589
42448SOL    HW129241   5.856  13.649  12.582
42448SOL    HW229242   5.981  13.683  12.661
42449SOL     OW29243  13.698  11.312   9.447
42449SOL    HW129244  13.675  11.405   9.457
42449SOL    HW229245  13.626  11.274   9.397
42450SOL     OW29246   1.127  10.329  12.128
42450SOL    HW129247   1.170  10.415  12.124
42450SOL    HW229248   1.188  10.270  12.085
42451SOL     OW29249  10.688  11.707   7.374
42451SOL    HW129250  10.672  11.644   7.304
42451SOL    HW229251  10.601  11.739   7.398
42452SOL     OW29252  12.818   9.963   9.845
42452SOL    HW129253  12.831   9.928   9.757
42452SOL    HW229254  12.906   9.975   9.879
42453SOL     OW29255   5.796   0.816   3.654
42453SOL    HW129256   5.765   0.726   3.648
42453SOL    HW229257   5.813   0.842   3.563
42454SOL     OW29258   1.426   4.268   5.506
42454SOL    HW129259   1.499   4.237   5.560
42454SOL    HW229260   1.466   4.289   5.422
42455SOL     OW29261   4.339  12.962   6.359
42455SOL    HW129262   4.304  12.972   6.447
42455SOL    HW229263   4.394  13.039   6.347
42456SOL     OW29264   1.874  10.611  10.491
42456SOL    HW129265   1.898  10.519  10.483
42456SOL    HW229266   1.851  10.622  10.584
42457SOL     OW29267   0.147  11.230  11.866
42457SOL    HW129268   0.108  11.254  11.782
42457SOL    HW229269   0.189  11.311  11.897
42458SOL     OW29270  13.186   6.372   7.596
42458SOL    HW129271  13.197   6.373   7.501
42458SOL    HW229272  13.132   6.449   7.615
42459SOL     OW29273   9.196  13.136   4.025
42459SOL    HW129274   9.142  13.092   3.959
42459SOL    HW229275   9.158  13.109   4.109
42460SOL     OW29276   7.453  14.158  11.100
42460SOL    HW129277   7.469  14.123  11.187
42460SOL    HW229278   7.470  14.252  11.108
42461SOL     OW29279   3.653  10.250  11.738
42461SOL    HW129280   3.644  10.342  11.712
42461SOL    HW229281   3.745  10.229  11.722
42462SOL     OW29282  14.447   4.305  13.548
42462SOL    HW129283  14.501   4.226  13.543
42462SOL    HW229284  14.490   4.359  13.614
42463SOL     OW29285   9.692   2.461  10.599
42463SOL    HW129286   9.720   2.478  10.689
42463SOL    HW229287   9.627   2.528  10.580
42464SOL     OW29288   7.427  10.486   5.967
42464SOL    HW129289   7.347  10.489   5.915
42464SOL    HW229290   7.398  10.459   6.055
42465SOL     OW29291  10.648  13.926   9.753
42465SOL    HW129292  10.569  13.878   9.778
42465SOL    HW229293  10.627  13.966   9.669
42466SOL     OW29294   5.110   6.763  11.346
42466SOL    HW129295   5.145   6.755  11.257
42466SOL    HW229296   5.181   6.802  11.396
42467SOL     OW29297   9.092  11.329   9.048
42467SOL    HW129298   9.106  11.240   9.078
42467SOL    HW229299   9.079  11.321   8.954
42468SOL     OW29300   7.150  11.344  14.281
42468SOL    HW129301   7.187  11.432  14.285
42468SOL    HW229302   7.224  11.286  14.295
42469SOL     OW29303  13.527   9.725   1.446
42469SOL    HW129304  13.613   9.686   1.428
42469SOL    HW229305  13.537   9.766   1.532
42470SOL     OW29306  13.317   8.477  14.543
42470SOL    HW129307  13.273   8.405  14.497
42470SOL    HW229308  13.304   8.553  14.487
42471SOL     OW29309  11.139   1.021   1.526
42471SOL    HW129310  11.150   1.116   1.531
42471SOL    HW229311  11.074   1.000   1.593
42472SOL     OW29312   5.353   2.495  11.050
42472SOL    HW129313   5.334   2.566  11.111
42472SOL    HW229314   5.434   2.523  11.006
42473SOL     OW29315   2.066   1.461  14.262
42473SOL    HW129316   2.030   1.453  14.350
42473SOL    HW229317   2.051   1.553  14.238
42474SOL     OW29318  14.302  12.688  12.135
42474SOL    HW129319  14.331  12.597  12.145
42474SOL    HW229320  14.360  12.738  12.193
42475SOL     OW29321   6.527  10.023  13.909
42475SOL    HW129322   6.597  10.038  13.972
42475SOL    HW229323   6.515   9.928  13.909
42476SOL     OW29324  14.684   4.596   9.285
42476SOL    HW129325  14.696   4.677   9.235
42476SOL    HW229326  14.623   4.619   9.355
42477SOL     OW29327   1.292  13.316  13.932
42477SOL    HW129328   1.323  13.291  14.019
42477SOL    HW229329   1.297  13.235  13.880
42478SOL     OW29330   8.551   8.062   8.340
42478SOL    HW129331   8.582   8.020   8.420
42478SOL    HW229332   8.492   7.998   8.300
42479SOL     OW29333   3.051   6.542  13.402
42479SOL    HW129334   3.131   6.519  13.448
42479SOL    HW229335   3.056   6.636  13.389
42480SOL     OW29336  12.400   5.542   0.932
42480SOL    HW129337  12.359   5.616   0.977
42480SOL    HW229338  12.334   5.472   0.934
42481SOL     OW29339   7.304   5.726  10.163
42481SOL    HW129340   7.237   5.713  10.096
42481SOL    HW229341   7.267   5.792  10.222
42482SOL     OW29342   6.756  11.321   5.839
42482SOL    HW129343   6.769  11.351   5.749
42482SOL    HW229344   6.728  11.230   5.830
42483SOL     OW29345   0.473  13.502   2.849
42483SOL    HW129346   0.561  13.503   2.813
42483SOL    HW229347   0.446  13.594   2.849
42484SOL     OW29348   7.495   5.667   1.069
42484SOL    HW129349   7.417   5.652   1.123
42484SOL    HW229350   7.475   5.623   0.986
42485SOL     OW29351   0.566  11.983  12.305
42485SOL    HW129352   0.500  12.052  12.299
42485SOL    HW229353   0.616  12.003  12.383
42486SOL     OW29354   8.210   4.556   9.603
42486SOL    HW129355   8.207   4.489   9.671
42486SOL    HW229356   8.224   4.508   9.521
42487SOL     OW29357  14.562  14.738   5.158
42487SOL    HW129358  14.572  14.699   5.244
42487SOL    HW229359  14.473  14.715   5.131
42488SOL     OW29360   9.019   5.783   5.592
42488SOL    HW129361   9.017   5.690   5.614
42488SOL    HW229362   9.072   5.788   5.513
42489SOL     OW29363   1.531  12.230   6.528
42489SOL    HW129364   1.448  12.243   6.575
42489SOL    HW229365   1.505  12.200   6.441
42490SOL     OW29366  14.512   7.092   3.998
42490SOL    HW129367  14.463   7.086   3.916
42490SOL    HW229368  14.473   7.166   4.044
42491SOL     OW29369  13.197   5.654   0.693
42491SOL    HW129370  13.223   5.733   0.645
42491SOL    HW229371  13.104   5.668   0.714
42492SOL     OW29372   2.186   6.435   9.337
42492SOL    HW129373   2.220   6.450   9.249
42492SOL    HW229374   2.260   6.453   9.395
42493SOL     OW29375   9.715  13.792   7.376
42493SOL    HW129376   9.800  13.764   7.409
42493SOL    HW229377   9.734  13.837   7.294
42494SOL     OW29378   6.052   0.125   1.359
42494SOL    HW129379   6.108   0.066   1.410
42494SOL    HW229380   6.096   0.133   1.275
42495SOL     OW29381   7.551  11.524   9.222
42495SOL    HW129382   7.483  11.466   9.256
42495SOL    HW229383   7.554  11.505   9.129
42496SOL     OW29384   0.491   2.406  10.588
42496SOL    HW129385   0.494   2.491  10.632
42496SOL    HW229386   0.425   2.357  10.636
42497SOL     OW29387   6.686  13.437   2.290
42497SOL    HW129388   6.725  13.354   2.261
42497SOL    HW229389   6.656  13.420   2.379
42498SOL     OW29390   8.254   8.305   1.487
42498SOL    HW129391   8.223   8.330   1.399
42498SOL    HW229392   8.325   8.366   1.505
42499SOL     OW29393  13.551  11.609   0.004
42499SOL    HW129394  13.544  11.516   0.023
42499SOL    HW229395  13.604  11.645   0.075
42500SOL     OW29396   9.003   5.510   4.581
42500SOL    HW129397   8.977   5.602   4.581
42500SOL    HW229398   8.943   5.468   4.519
42501SOL     OW29399   8.647  14.268  14.603
42501SOL    HW129400   8.648  14.250  14.509
42501SOL    HW229401   8.711  14.338  14.616
42502SOL     OW29402   7.603   9.495   3.244
42502SOL    HW129403   7.594   9.434   3.171
42502SOL    HW229404   7.680   9.464   3.291
42503SOL     OW29405   9.621   6.276  13.822
42503SOL    HW129406   9.589   6.327  13.747
42503SOL    HW229407   9.665   6.201  13.783
42504SOL     OW29408   2.759   1.614   3.642
42504SOL    HW129409   2.681   1.573   3.605
42504SOL    HW229410   2.818   1.541   3.660
42505SOL     OW29411  13.307   0.033   1.311
42505SOL    HW129412  13.289   0.126   1.325
42505SOL    HW229413  13.373   0.011   1.377
42506SOL     OW29414   0.583  11.242   3.143
42506SOL    HW129415   0.630  11.325   3.150
42506SOL    HW229416   0.649  11.176   3.165
42507SOL     OW29417  12.893   6.151  10.771
42507SOL    HW129418  12.903   6.222  10.834
42507SOL    HW229419  12.904   6.071  10.822
42508SOL     OW29420   6.041  14.593  14.174
42508SOL    HW129421   5.996  14.640  14.103
42508SOL    HW229422   5.971  14.544  14.218
42509SOL     OW29423  13.837   7.456   7.463
42509SOL    HW129424  13.771   7.513   7.422
42509SOL    HW229425  13.789   7.377   7.486
42510SOL     OW29426   9.608   4.339  10.578
42510SOL    HW129427   9.536   4.374  10.525
42510SOL    HW229428   9.631   4.412  10.636
42511SOL     OW29429  13.588  12.970   9.361
42511SOL    HW129430  13.531  12.992   9.435
42511SOL    HW229431  13.579  12.876   9.351
42512SOL     OW29432   7.001  11.200  13.621
42512SOL    HW129433   7.015  11.139  13.693
42512SOL    HW229434   6.952  11.150  13.556
42513SOL     OW29435   2.986   4.777   0.502
42513SOL    HW129436   2.984   4.727   0.584
42513SOL    HW229437   3.038   4.724   0.442
42514SOL     OW29438   4.159   0.717   4.206
42514SOL    HW129439   4.160   0.723   4.302
42514SOL    HW229440   4.155   0.624   4.188
42515SOL     OW29441   1.167   8.245  13.153
42515SOL    HW129442   1.185   8.282  13.067
42515SOL    HW229443   1.112   8.311  13.196
42516SOL     OW29444   9.981   7.351   2.897
42516SOL    HW129445  10.042   7.406   2.947
42516SOL    HW229446   9.912   7.328   2.960
42517SOL     OW29447   1.238  13.298   6.052
42517SOL    HW129448   1.295  13.374   6.065
42517SOL    HW229449   1.199  13.312   5.966
42518SOL     OW29450   9.414   8.390   9.694
42518SOL    HW129451   9.365   8.462   9.653
42518SOL    HW229452   9.482   8.435   9.745
42519SOL     OW29453   7.976   5.402   1.870
42519SOL    HW129454   8.013   5.434   1.787
42519SOL    HW229455   8.027   5.324   1.890
42520SOL     OW29456   6.355   7.144  13.484
42520SOL    HW129457   6.353   7.206  13.557
42520SOL    HW229458   6.264   7.138  13.455
42521SOL     OW29459   0.488   7.555   8.307
42521SOL    HW129460   0.564   7.549   8.365
42521SOL    HW229461   0.503   7.635   8.256
42522SOL     OW29462  14.092   2.761   3.863
42522SOL    HW129463  14.056   2.719   3.942
42522SOL    HW229464  14.046   2.719   3.790
42523SOL     OW29465   8.798   3.585   1.519
42523SOL    HW129466   8.786   3.490   1.516
42523SOL    HW229467   8.889   3.597   1.548
42524SOL     OW29468   1.650  14.776   5.279
42524SOL    HW129469   1.663  14.768   5.374
42524SOL    HW229470   1.715  14.841   5.251
42525SOL     OW29471   1.862   3.484  13.044
42525SOL    HW129472   1.927   3.436  12.993
42525SOL    HW229473   1.839   3.425  13.115
42526SOL     OW29474  12.925   9.320   5.746
42526SOL    HW129475  12.992   9.274   5.696
42526SOL    HW229476  12.941   9.295   5.837
42527SOL     OW29477  12.204   0.254   6.469
42527SOL    HW129478  12.299   0.244   6.467
42527SOL    HW229479  12.189   0.345   6.496
42528SOL     OW29480   7.809   0.123   9.046
42528SOL    HW129481   7.831   0.207   9.087
42528SOL    HW229482   7.718   0.108   9.072
42529SOL     OW29483   0.100  12.407   9.461
42529SOL    HW129484   0.108  12.313   9.446
42529SOL    HW229485   0.024  12.416   9.518
42530SOL     OW29486   1.278   9.484   8.742
42530SOL    HW129487   1.281   9.395   8.708
42530SOL    HW229488   1.352   9.490   8.801
42531SOL     OW29489  12.810   9.127   2.490
42531SOL    HW129490  12.810   9.196   2.423
42531SOL    HW229491  12.731   9.145   2.542
42532SOL     OW29492   8.337  13.727  14.687
42532SOL    HW129493   8.276  13.719  14.760
42532SOL    HW229494   8.366  13.637  14.670
42533SOL     OW29495   0.476   6.878  13.784
42533SOL    HW129496   0.441   6.966  13.788
42533SOL    HW229497   0.461   6.850  13.693
42534SOL     OW29498   0.930   6.276  14.787
42534SOL    HW129499   0.868   6.273  14.860
42534SOL    HW229500   0.957   6.368  14.782
42535SOL     OW29501   8.100   4.515  12.764
42535SOL    HW129502   8.154   4.594  12.753
42535SOL    HW229503   8.071   4.493  12.676
42536SOL     OW29504   7.092  13.542   6.678
42536SOL    HW129505   7.114  13.605   6.747
42536SOL    HW229506   7.000  13.560   6.658
42537SOL     OW29507   2.666   6.296   8.640
42537SOL    HW129508   2.584   6.310   8.687
42537SOL    HW229509   2.667   6.362   8.571
42538SOL     OW29510   5.497   3.620  12.620
42538SOL    HW129511   5.489   3.695  12.561
42538SOL    HW229512   5.424   3.628  12.680
42539SOL     OW29513   6.060   3.135  13.638
42539SOL    HW129514   5.998   3.063  13.644
42539SOL    HW229515   6.037   3.194  13.709
42540SOL     OW29516   4.071   6.861   3.805
42540SOL    HW129517   4.039   6.895   3.888
42540SOL    HW229518   4.166   6.867   3.811
42541SOL     OW29519   2.012   4.948   0.255
42541SOL    HW129520   1.985   4.923   0.343
42541SOL    HW229521   2.096   4.903   0.242
42542SOL     OW29522   6.589   2.122  13.916
42542SOL    HW129523   6.603   2.139  14.009
42542SOL    HW229524   6.612   2.204  13.873
42543SOL     OW29525   0.184  13.574   5.161
42543SOL    HW129526   0.262  13.529   5.192
42543SOL    HW229527   0.208  13.666   5.159
42544SOL     OW29528   7.795   4.784   0.218
42544SOL    HW129529   7.723   4.844   0.240
42544SOL    HW229530   7.752   4.714   0.168
42545SOL     OW29531   9.872  14.457  12.200
42545SOL    HW129532   9.864  14.548  12.227
42545SOL    HW229533   9.907  14.412  12.277
42546SOL     OW29534   5.975   8.534   0.707
42546SOL    HW129535   6.001   8.445   0.731
42546SOL    HW229536   5.901   8.522   0.648
42547SOL     OW29537   3.930   7.481   4.045
42547SOL    HW129538   3.859   7.449   4.099
42547SOL    HW229539   3.939   7.573   4.069
42548SOL     OW29540   4.173   2.528   7.238
42548SOL    HW129541   4.253   2.558   7.280
42548SOL    HW229542   4.148   2.450   7.289
42549SOL     OW29543   7.536  10.766   5.676
42549SOL    HW129544   7.540  10.862   5.679
42549SOL    HW229545   7.564  10.738   5.763
42550SOL     OW29546   7.406   7.378   1.982
42550SOL    HW129547   7.387   7.469   1.962
42550SOL    HW229548   7.498   7.367   1.957
42551SOL     OW29549  10.071   5.986   8.142
42551SOL    HW129550  10.042   6.008   8.231
42551SOL    HW229551   9.990   5.984   8.091
42552SOL     OW29552  13.779  14.728   1.664
42552SOL    HW129553  13.854  14.670   1.677
42552SOL    HW229554  13.766  14.769   1.750
42553SOL     OW29555   2.061   0.251   5.138
42553SOL    HW129556   2.027   0.290   5.218
42553SOL    HW229557   2.139   0.203   5.166
42554SOL     OW29558   6.827   9.483  10.010
42554SOL    HW129559   6.827   9.548   9.940
42554SOL    HW229560   6.755   9.423   9.987
42555SOL     OW29561   0.624  14.346   7.751
42555SOL    HW129562   0.557  14.328   7.686
42555SOL    HW229563   0.600  14.292   7.826
42556SOL     OW29564  14.007   1.333   1.523
42556SOL    HW129565  14.098   1.310   1.540
42556SOL    HW229566  14.011   1.391   1.447
42557SOL     OW29567   7.082   9.197   2.708
42557SOL    HW129568   7.160   9.173   2.758
42557SOL    HW229569   7.080   9.293   2.712
42558SOL     OW29570   5.755   2.244   7.912
42558SOL    HW129571   5.798   2.194   7.981
42558SOL    HW229572   5.801   2.218   7.832
42559SOL     OW29573  11.404   5.265   4.609
42559SOL    HW129574  11.399   5.335   4.544
42559SOL    HW229575  11.417   5.310   4.692
42560SOL     OW29576   3.394   5.459   5.510
42560SOL    HW129577   3.362   5.549   5.512
42560SOL    HW229578   3.430   5.449   5.422
42561SOL     OW29579   1.919   9.734   1.500
42561SOL    HW129580   1.993   9.795   1.501
42561SOL    HW229581   1.874   9.751   1.583
42562SOL     OW29582   9.720   1.600  10.547
42562SOL    HW129583   9.764   1.668  10.597
42562SOL    HW229584   9.651   1.567  10.605
42563SOL     OW29585   2.316   5.037  13.700
42563SOL    HW129586   2.253   5.043  13.628
42563SOL    HW229587   2.278   5.091  13.770
42564SOL     OW29588   8.881   7.225  12.495
42564SOL    HW129589   8.794   7.260  12.512
42564SOL    HW229590   8.864   7.137  12.458
42565SOL     OW29591   2.081   2.245   5.929
42565SOL    HW129592   2.090   2.179   5.860
42565SOL    HW229593   2.094   2.197   6.011
42566SOL     OW29594   3.340   2.044   2.954
42566SOL    HW129595   3.295   1.966   2.921
42566SOL    HW229596   3.383   2.081   2.877
42567SOL     OW29597  10.774   8.936   7.854
42567SOL    HW129598  10.816   9.009   7.901
42567SOL    HW229599  10.731   8.978   7.780
42568SOL     OW29600  11.977   4.911  13.779
42568SOL    HW129601  11.926   4.881  13.854
42568SOL    HW229602  12.042   4.842  13.765
42569SOL     OW29603   3.762  13.404   3.386
42569SOL    HW129604   3.678  13.365   3.412
42569SOL    HW229605   3.808  13.421   3.468
42570SOL     OW29606  14.115  14.353   3.187
42570SOL    HW129607  14.033  14.359   3.138
42570SOL    HW229608  14.171  14.421   3.150
42571SOL     OW29609  11.850   3.799   8.944
42571SOL    HW129610  11.776   3.740   8.927
42571SOL    HW229611  11.816   3.886   8.926
42572SOL     OW29612  11.373  13.237   6.189
42572SOL    HW129613  11.365  13.171   6.258
42572SOL    HW229614  11.282  13.252   6.161
42573SOL     OW29615  10.764   1.416  14.208
42573SOL    HW129616  10.800   1.328  14.196
42573SOL    HW229617  10.841   1.471  14.223
42574SOL     OW29618   6.031   5.239  10.391
42574SOL    HW129619   6.090   5.245  10.467
42574SOL    HW229620   6.066   5.302  10.329
42575SOL     OW29621   3.073   3.692   7.997
42575SOL    HW129622   3.082   3.731   8.084
42575SOL    HW229623   3.041   3.763   7.942
42576SOL     OW29624   9.544   5.421   2.419
42576SOL    HW129625   9.606   5.470   2.365
42576SOL    HW229626   9.598   5.367   2.476
42577SOL     OW29627  13.947  11.330  11.460
42577SOL    HW129628  13.965  11.283  11.379
42577SOL    HW229629  13.932  11.420  11.433
42578SOL     OW29630  13.772  12.951   3.784
42578SOL    HW129631  13.778  13.008   3.860
42578SOL    HW229632  13.719  13.000   3.721
42579SOL     OW29633   7.732   7.617   7.687
42579SOL    HW129634   7.658   7.575   7.731
42579SOL    HW229635   7.804   7.608   7.748
42580SOL     OW29636   9.636  11.632  11.684
42580SOL    HW129637   9.555  11.580  11.689
42580SOL    HW229638   9.659  11.631  11.591
42581SOL     OW29639   4.549   4.617   9.412
42581SOL    HW129640   4.462   4.593   9.380
42581SOL    HW229641   4.602   4.538   9.398
42582SOL     OW29642  14.419   1.474   8.037
42582SOL    HW129643  14.325   1.457   8.027
42582SOL    HW229644  14.455   1.391   8.069
42583SOL     OW29645   6.802  13.394   3.675
42583SOL    HW129646   6.742  13.336   3.629
42583SOL    HW229647   6.761  13.481   3.668
42584SOL     OW29648   3.630   0.981   8.698
42584SOL    HW129649   3.548   1.029   8.709
42584SOL    HW229650   3.606   0.889   8.712
42585SOL     OW29651   6.745   8.603  13.075
42585SOL    HW129652   6.692   8.534  13.115
42585SOL    HW229653   6.819   8.557  13.036
42586SOL     OW29654   3.881   8.162   1.038
42586SOL    HW129655   3.892   8.256   1.043
42586SOL    HW229656   3.791   8.146   1.068
42587SOL     OW29657   5.111  10.246   3.435
42587SOL    HW129658   5.094  10.336   3.463
42587SOL    HW229659   5.200  10.228   3.465
42588SOL     OW29660   2.881   0.318   6.398
42588SOL    HW129661   2.921   0.375   6.332
42588SOL    HW229662   2.953   0.294   6.456
42589SOL     OW29663   3.005  13.981   9.368
42589SOL    HW129664   2.947  14.052   9.339
42589SOL    HW229665   2.945  13.910   9.392
42590SOL     OW29666  12.788   1.891  11.515
42590SOL    HW129667  12.860   1.853  11.565
42590SOL    HW229668  12.803   1.863  11.425
42591SOL     OW29669   8.364   8.701   4.087
42591SOL    HW129670   8.328   8.749   4.162
42591SOL    HW229671   8.309   8.623   4.081
42592SOL     OW29672  13.545  11.115   5.372
42592SOL    HW129673  13.484  11.092   5.302
42592SOL    HW229674  13.541  11.041   5.432
42593SOL     OW29675  14.409   4.538  11.804
42593SOL    HW129676  14.356   4.575  11.875
42593SOL    HW229677  14.493   4.583  11.811
42594SOL     OW29678  14.317   8.755  12.280
42594SOL    HW129679  14.329   8.669  12.240
42594SOL    HW229680  14.324   8.817  12.206
42595SOL     OW29681   0.836   1.777   0.179
42595SOL    HW129682   0.752   1.792   0.134
42595SOL    HW229683   0.813   1.772   0.271
42596SOL     OW29684   8.648   6.421   6.259
42596SOL    HW129685   8.606   6.505   6.274
42596SOL    HW229686   8.606   6.387   6.180
42597SOL     OW29687   6.704   3.951  12.866
42597SOL    HW129688   6.689   3.857  12.857
42597SOL    HW229689   6.750   3.975  12.786
42598SOL     OW29690  10.030   4.185  10.027
42598SOL    HW129691  10.060   4.110   9.974
42598SOL    HW229692   9.944   4.157  10.060
42599SOL     OW29693  11.775  10.848  10.177
42599SOL    HW129694  11.737  10.858  10.090
42599SOL    HW229695  11.717  10.896  10.235
42600SOL     OW29696   3.764   7.865   7.928
42600SOL    HW129697   3.838   7.923   7.945
42600SOL    HW229698   3.687   7.920   7.939
42601SOL     OW29699   4.659  11.753  13.650
42601SOL    HW129700   4.661  11.840  13.689
42601SOL    HW229701   4.587  11.757  13.587
42602SOL     OW29702  10.778   9.352  11.329
42602SOL    HW129703  10.826   9.350  11.246
42602SOL    HW229704  10.734   9.437  11.331
42603SOL     OW29705   0.437   7.685   7.746
42603SOL    HW129706   0.393   7.718   7.667
42603SOL    HW229707   0.481   7.605   7.716
42604SOL     OW29708   6.427   8.598   0.785
42604SOL    HW129709   6.484   8.573   0.712
42604SOL    HW229710   6.355   8.535   0.782
42605SOL     OW29711   0.248   3.922   9.012
42605SOL    HW129712   0.274   3.975   9.087
42605SOL    HW229713   0.280   3.834   9.032
42606SOL     OW29714  13.795   0.300   4.322
42606SOL    HW129715  13.785   0.254   4.239
42606SOL    HW229716  13.705   0.317   4.351
42607SOL     OW29717  12.838   8.108   7.516
42607SOL    HW129718  12.755   8.061   7.522
42607SOL    HW229719  12.889   8.075   7.590
42608SOL     OW29720  13.797  14.630   0.189
42608SOL    HW129721  13.799  14.670   0.276
42608SOL    HW229722  13.871  14.569   0.188
42609SOL     OW29723  14.264  13.243   0.855
42609SOL    HW129724  14.244  13.329   0.819
42609SOL    HW229725  14.280  13.188   0.778
42610SOL     OW29726   1.126   7.865   3.649
42610SOL    HW129727   1.113   7.958   3.667
42610SOL    HW229728   1.209   7.862   3.600
42611SOL     OW29729   6.778   5.131  10.953
42611SOL    HW129730   6.872   5.135  10.966
42611SOL    HW229731   6.762   5.192  10.880
42612SOL     OW29732   9.304   9.493   3.310
42612SOL    HW129733   9.216   9.523   3.332
42612SOL    HW229734   9.291   9.428   3.241
42613SOL     OW29735   4.274  10.419  14.591
42613SOL    HW129736   4.181  10.435  14.607
42613SOL    HW229737   4.275  10.358  14.518
42614SOL     OW29738  13.934   3.107   0.920
42614SOL    HW129739  13.928   3.118   1.014
42614SOL    HW229740  13.844   3.094   0.891
42615SOL     OW29741   0.783  10.425   1.893
42615SOL    HW129742   0.865  10.407   1.847
42615SOL    HW229743   0.740  10.340   1.899
42616SOL     OW29744   2.754   9.764   9.158
42616SOL    HW129745   2.659   9.777   9.167
42616SOL    HW229746   2.792   9.851   9.171
42617SOL     OW29747  10.201  13.629   9.800
42617SOL    HW129748  10.189  13.554   9.742
42617SOL    HW229749  10.182  13.596   9.887
42618SOL     OW29750   6.077  12.941  11.010
42618SOL    HW129751   6.036  12.957  11.096
42618SOL    HW229752   6.153  12.887  11.030
42619SOL     OW29753   9.682  13.434   5.627
42619SOL    HW129754   9.691  13.504   5.692
42619SOL    HW229755   9.745  13.368   5.654
42620SOL     OW29756  10.746  13.267   2.533
42620SOL    HW129757  10.792  13.314   2.603
42620SOL    HW229758  10.734  13.179   2.567
42621SOL     OW29759  14.306   3.023   3.021
42621SOL    HW129760  14.232   3.070   3.059
42621SOL    HW229761  14.383   3.063   3.062
42622SOL     OW29762  13.365  10.716   3.057
42622SOL    HW129763  13.334  10.625   3.059
42622SOL    HW229764  13.456  10.710   3.088
42623SOL     OW29765   0.762   9.724   1.977
42623SOL    HW129766   0.835   9.786   1.977
42623SOL    HW229767   0.794   9.649   2.027
42624SOL     OW29768  14.262   7.601   2.465
42624SOL    HW129769  14.290   7.620   2.554
42624SOL    HW229770  14.183   7.654   2.453
42625SOL     OW29771   4.950   4.029  14.179
42625SOL    HW129772   4.894   4.103  14.158
42625SOL    HW229773   4.919   3.959  14.122
42626SOL     OW29774   1.090   2.145  14.607
42626SOL    HW129775   1.138   2.161  14.688
42626SOL    HW229776   0.997   2.151  14.632
42627SOL     OW29777   9.477  14.203  14.442
42627SOL    HW129778   9.535  14.196  14.366
42627SOL    HW229779   9.536  14.229  14.513
42628SOL     OW29780  11.924   7.170   6.405
42628SOL    HW129781  11.893   7.189   6.317
42628SOL    HW229782  11.952   7.256   6.440
42629SOL     OW29783   3.945   7.609   0.366
42629SOL    HW129784   3.947   7.704   0.362
42629SOL    HW229785   3.904   7.590   0.451
42630SOL     OW29786   8.038   1.983  12.991
42630SOL    HW129787   8.072   2.028  12.914
42630SOL    HW229788   7.988   1.909  12.956
42631SOL     OW29789   2.977   4.301   9.607
42631SOL    HW129790   2.987   4.206   9.609
42631SOL    HW229791   3.019   4.332   9.687
42632SOL     OW29792   4.465   7.919   8.742
42632SOL    HW129793   4.485   7.883   8.655
42632SOL    HW229794   4.526   7.876   8.801
42633SOL     OW29795  14.827   5.250   8.306
42633SOL    HW129796  14.745   5.230   8.261
42633SOL    HW229797  14.801   5.278   8.393
42634SOL     OW29798   6.009   7.502  12.676
42634SOL    HW129799   6.035   7.443  12.605
42634SOL    HW229800   6.062   7.474  12.751
42635SOL     OW29801   9.575   5.140   4.802
42635SOL    HW129802   9.551   5.047   4.805
42635SOL    HW229803   9.511   5.179   4.743
42636SOL     OW29804   2.634   5.266  12.443
42636SOL    HW129805   2.542   5.273  12.417
42636SOL    HW229806   2.635   5.299  12.533
42637SOL     OW29807   4.227   2.934  13.969
42637SOL    HW129808   4.211   2.995  14.041
42637SOL    HW229809   4.322   2.925  13.966
42638SOL     OW29810  13.359   5.527   5.439
42638SOL    HW129811  13.449   5.496   5.450
42638SOL    HW229812  13.361   5.618   5.468
42639SOL     OW29813   5.984   0.329   2.239
42639SOL    HW129814   6.071   0.311   2.273
42639SOL    HW229815   5.939   0.373   2.311
42640SOL     OW29816   7.212   8.734   8.318
42640SOL    HW129817   7.182   8.644   8.301
42640SOL    HW229818   7.155   8.789   8.264
42641SOL     OW29819   6.618  14.534   0.218
42641SOL    HW129820   6.592  14.466   0.280
42641SOL    HW229821   6.537  14.583   0.201
42642SOL     OW29822   9.613   9.183  10.214
42642SOL    HW129823   9.622   9.102  10.165
42642SOL    HW229824   9.534   9.224  10.178
42643SOL     OW29825  14.697   7.664   6.111
42643SOL    HW129826  14.662   7.659   6.022
42643SOL    HW229827  14.791   7.647   6.101
42644SOL     OW29828   7.290   7.741   5.030
42644SOL    HW129829   7.264   7.773   5.117
42644SOL    HW229830   7.236   7.791   4.969
42645SOL     OW29831   5.089   4.059   9.556
42645SOL    HW129832   5.085   3.978   9.505
42645SOL    HW229833   5.069   4.032   9.645
42646SOL     OW29834  14.322  14.013   2.886
42646SOL    HW129835  14.308  14.028   2.979
42646SOL    HW229836  14.321  14.101   2.848
42647SOL     OW29837   4.322   4.469   5.978
42647SOL    HW129838   4.338   4.400   5.913
42647SOL    HW229839   4.250   4.435   6.031
42648SOL     OW29840  12.247   8.210  10.493
42648SOL    HW129841  12.199   8.140  10.537
42648SOL    HW229842  12.180   8.262  10.451
42649SOL     OW29843   1.881   1.037  10.302
42649SOL    HW129844   1.891   1.105  10.369
42649SOL    HW229845   1.857   0.958  10.351
42650SOL     OW29846  11.131   3.678   8.915
42650SOL    HW129847  11.174   3.664   8.831
42650SOL    HW229848  11.054   3.621   8.912
42651SOL     OW29849  11.475   8.219   7.517
42651SOL    HW129850  11.552   8.176   7.553
42651SOL    HW229851  11.471   8.191   7.426
42652SOL     OW29852   8.195  11.581   9.285
42652SOL    HW129853   8.267  11.644   9.288
42652SOL    HW229854   8.237  11.495   9.281
42653SOL     OW29855   7.840   3.855   8.939
42653SOL    HW129856   7.858   3.949   8.938
42653SOL    HW229857   7.777   3.844   9.011
42654SOL     OW29858  12.102   6.850   4.892
42654SOL    HW129859  12.054   6.873   4.971
42654SOL    HW229860  12.185   6.814   4.923
42655SOL     OW29861  12.639   3.564   1.791
42655SOL    HW129862  12.735   3.566   1.787
42655SOL    HW229863  12.618   3.471   1.800
42656SOL     OW29864   9.980   4.171   3.038
42656SOL    HW129865   9.927   4.092   3.041
42656SOL    HW229866  10.061   4.144   2.994
42657SOL     OW29867  14.352   2.800  10.713
42657SOL    HW129868  14.427   2.744  10.736
42657SOL    HW229869  14.379   2.887  10.739
42658SOL     OW29870   9.634   9.703  12.488
42658SOL    HW129871   9.643   9.795  12.461
42658SOL    HW229872   9.652   9.653  12.409
42659SOL     OW29873  10.169   0.815   4.291
42659SOL    HW129874  10.078   0.824   4.262
42659SOL    HW229875  10.221   0.846   4.217
42660SOL     OW29876  13.671   3.049   6.186
42660SOL    HW129877  13.668   2.985   6.115
42660SOL    HW229878  13.741   3.018   6.244
42661SOL     OW29879   8.974  13.646  13.941
42661SOL    HW129880   8.922  13.617  13.867
42661SOL    HW229881   9.031  13.572  13.962
42662SOL     OW29882  14.199  13.853   6.264
42662SOL    HW129883  14.108  13.852   6.293
42662SOL    HW229884  14.249  13.876   6.342
42663SOL     OW29885  14.075  11.543   2.933
42663SOL    HW129886  13.986  11.546   2.968
42663SOL    HW229887  14.068  11.580   2.846
42664SOL     OW29888  10.410  12.321  10.391
42664SOL    HW129889  10.436  12.397  10.339
42664SOL    HW229890  10.473  12.252  10.367
42665SOL     OW29891   7.826   4.522   9.654
42665SOL    HW129892   7.759   4.557   9.596
42665SOL    HW229893   7.833   4.430   9.629
42666SOL     OW29894  10.875  13.804   8.114
42666SOL    HW129895  10.809  13.845   8.059
42666SOL    HW229896  10.949  13.864   8.111
42667SOL     OW29897   3.375  12.222  12.883
42667SOL    HW129898   3.457  12.176  12.900
42667SOL    HW229899   3.336  12.234  12.969
42668SOL     OW29900   8.238   3.973   3.391
42668SOL    HW129901   8.298   4.032   3.346
42668SOL    HW229902   8.278   3.959   3.477
42669SOL     OW29903  11.548   2.641  13.749
42669SOL    HW129904  11.527   2.698  13.822
42669SOL    HW229905  11.477   2.576  13.747
42670SOL     OW29906   4.783  10.180  11.801
42670SOL    HW129907   4.711  10.223  11.846
42670SOL    HW229908   4.791  10.226  11.718
42671SOL     OW29909  10.937   1.128   6.441
42671SOL    HW129910  10.846   1.156   6.430
42671SOL    HW229911  10.933   1.059   6.507
42672SOL     OW29912  12.305   6.282   6.333
42672SOL    HW129913  12.343   6.301   6.418
42672SOL    HW229914  12.361   6.328   6.270
42673SOL     OW29915  13.256  10.089  14.823
42673SOL    HW129916  13.262  10.152  14.751
42673SOL    HW229917  13.343  10.049  14.826
42674SOL     OW29918  13.028   2.051  13.426
42674SOL    HW129919  13.103   2.106  13.452
42674SOL    HW229920  13.065   1.963  13.417
42675SOL     OW29921   7.058  12.239  11.337
42675SOL    HW129922   6.980  12.189  11.310
42675SOL    HW229923   7.042  12.327  11.303
42676SOL     OW29924   1.274   9.752   5.067
42676SOL    HW129925   1.291   9.714   5.153
42676SOL    HW229926   1.345   9.815   5.055
42677SOL     OW29927  11.392   2.871   9.362
42677SOL    HW129928  11.419   2.943   9.419
42677SOL    HW229929  11.460   2.867   9.295
42678SOL     OW29930   7.054   8.095   2.533
42678SOL    HW129931   7.035   8.071   2.442
42678SOL    HW229932   7.092   8.016   2.571
42679SOL     OW29933  12.032  13.000  13.909
42679SOL    HW129934  12.035  12.917  13.862
42679SOL    HW229935  11.968  12.986  13.979
42680SOL     OW29936   1.544   3.385   5.592
42680SOL    HW129937   1.611   3.448   5.619
42680SOL    HW229938   1.465   3.415   5.635
42681SOL     OW29939  13.840   4.778   0.290
42681SOL    HW129940  13.771   4.822   0.241
42681SOL    HW229941  13.915   4.778   0.230
42682SOL     OW29942  13.798  10.683  14.823
42682SOL    HW129943  13.877  10.657  14.871
42682SOL    HW229944  13.827  10.756  14.768
42683SOL     OW29945   4.910   9.939   4.739
42683SOL    HW129946   4.895  10.024   4.696
42683SOL    HW229947   4.825   9.897   4.740
42684SOL     OW29948  12.812   9.774  14.803
42684SOL    HW129949  12.784   9.697  14.753
42684SOL    HW229950  12.907   9.776  14.793
42685SOL     OW29951  10.288  11.336   0.911
42685SOL    HW129952  10.207  11.337   0.859
42685SOL    HW229953  10.265  11.289   0.991
42686SOL     OW29954   5.282   8.418   2.312
42686SOL    HW129955   5.228   8.470   2.252
42686SOL    HW229956   5.365   8.407   2.266
42687SOL     OW29957   6.196   3.265  12.795
42687SOL    HW129958   6.277   3.307  12.767
42687SOL    HW229959   6.140   3.338  12.824
42688SOL     OW29960   8.042   6.931  13.185
42688SOL    HW129961   8.133   6.919  13.157
42688SOL    HW229962   8.008   6.842  13.195
42689SOL     OW29963   4.187  11.985   3.335
42689SOL    HW129964   4.158  11.909   3.385
42689SOL    HW229965   4.180  12.058   3.396
42690SOL     OW29966   4.400   0.764   0.306
42690SOL    HW129967   4.408   0.794   0.397
42690SOL    HW229968   4.361   0.837   0.260
42691SOL     OW29969   7.128  13.399   1.381
42691SOL    HW129970   7.120  13.307   1.409
42691SOL    HW229971   7.045  13.418   1.338
42692SOL     OW29972  11.042   1.955   7.860
42692SOL    HW129973  11.017   1.917   7.944
42692SOL    HW229974  11.126   1.998   7.877
42693SOL     OW29975  11.906   0.808   4.488
42693SOL    HW129976  11.923   0.715   4.471
42693SOL    HW229977  11.951   0.826   4.570
42694SOL     OW29978   7.220   1.113   5.832
42694SOL    HW129979   7.178   1.134   5.915
42694SOL    HW229980   7.177   1.171   5.768
42695SOL     OW29981   2.604   3.689  10.202
42695SOL    HW129982   2.593   3.688  10.107
42695SOL    HW229983   2.558   3.610  10.232
42696SOL     OW29984   5.137   2.085  13.000
42696SOL    HW129985   5.120   2.099  13.094
42696SOL    HW229986   5.085   2.153  12.957
42697SOL     OW29987   7.205   6.987   8.542
42697SOL    HW129988   7.277   6.973   8.481
42697SOL    HW229989   7.247   7.013   8.624
42698SOL     OW29990  12.950   5.827  13.798
42698SOL    HW129991  12.863   5.803  13.768
42698SOL    HW229992  12.946   5.922  13.810
42699SOL     OW29993   5.313   4.615  13.284
42699SOL    HW129994   5.292   4.679  13.352
42699SOL    HW229995   5.304   4.530  13.327
42700SOL     OW29996  10.618  14.674   6.942
42700SOL    HW129997  10.619  14.714   7.028
42700SOL    HW229998  10.677  14.727   6.889
42701SOL     OW29999   1.541   2.110   7.783
42701SOL    HW130000   1.466   2.140   7.731
42701SOL    HW230001   1.617   2.127   7.727
42702SOL     OW30002  14.184  11.305   6.044
42702SOL    HW130003  14.199  11.240   6.113
42702SOL    HW230004  14.257  11.367   6.053
42703SOL     OW30005  14.846   1.091  12.359
42703SOL    HW130006  14.823   1.184  12.346
42703SOL    HW230007  14.844   1.080  12.454
42704SOL     OW30008  11.033   5.588   9.028
42704SOL    HW130009  11.068   5.502   9.004
42704SOL    HW230010  10.960   5.569   9.087
42705SOL     OW30011   2.414   3.843   6.070
42705SOL    HW130012   2.324   3.873   6.082
42705SOL    HW230013   2.461   3.920   6.037
42706SOL     OW30014   0.650  12.699   4.097
42706SOL    HW130015   0.674  12.621   4.147
42706SOL    HW230016   0.718  12.764   4.119
42707SOL     OW30017   8.763   9.880   4.474
42707SOL    HW130018   8.826   9.815   4.506
42707SOL    HW230019   8.677   9.846   4.502
42708SOL     OW30020  10.706   8.023   1.856
42708SOL    HW130021  10.739   8.047   1.769
42708SOL    HW230022  10.764   8.068   1.917
42709SOL     OW30023   4.281  11.904   3.685
42709SOL    HW130024   4.298  11.823   3.732
42709SOL    HW230025   4.367  11.932   3.652
42710SOL     OW30026  13.723   3.487   8.401
42710SOL    HW130027  13.762   3.574   8.392
42710SOL    HW230028  13.681   3.489   8.488
42711SOL     OW30029   6.034   8.130   5.853
42711SOL    HW130030   6.127   8.119   5.870
42711SOL    HW230031   5.992   8.120   5.938
42712SOL     OW30032   6.848  12.945   8.659
42712SOL    HW130033   6.941  12.941   8.640
42712SOL    HW230034   6.810  12.876   8.604
42713SOL     OW30035   5.755  12.688   6.088
42713SOL    HW130036   5.697  12.752   6.129
42713SOL    HW230037   5.754  12.710   5.995
42714SOL     OW30038   0.272   8.561   7.379
42714SOL    HW130039   0.224   8.479   7.370
42714SOL    HW230040   0.310   8.556   7.467
42715SOL     OW30041   2.186   1.772   7.153
42715SOL    HW130042   2.221   1.829   7.085
42715SOL    HW230043   2.263   1.735   7.195
42716SOL     OW30044   3.301  12.733  13.382
42716SOL    HW130045   3.219  12.766  13.346
42716SOL    HW230046   3.356  12.717  13.305
42717SOL     OW30047   4.264   7.872   7.496
42717SOL    HW130048   4.225   7.785   7.487
42717SOL    HW230049   4.219   7.911   7.571
42718SOL     OW30050   7.056   1.121   7.796
42718SOL    HW130051   7.125   1.187   7.793
42718SOL    HW230052   6.983   1.161   7.748
42719SOL     OW30053  11.183   4.467  13.562
42719SOL    HW130054  11.098   4.502  13.587
42719SOL    HW230055  11.212   4.521  13.489
42720SOL     OW30056  14.437   5.428  10.166
42720SOL    HW130057  14.441   5.487  10.091
42720SOL    HW230058  14.422   5.341  10.128
42721SOL     OW30059   0.470   6.862  12.089
42721SOL    HW130060   0.501   6.780  12.050
42721SOL    HW230061   0.390   6.837  12.135
42722SOL     OW30062   3.445   9.001  10.514
42722SOL    HW130063   3.396   8.956  10.583
42722SOL    HW230064   3.381   9.020  10.446
42723SOL     OW30065   8.452  13.787   0.425
42723SOL    HW130066   8.536  13.815   0.389
42723SOL    HW230067   8.432  13.705   0.379
42724SOL     OW30068   1.418   8.323   3.206
42724SOL    HW130069   1.424   8.340   3.299
42724SOL    HW230070   1.491   8.264   3.187
42725SOL     OW30071  10.811   7.719   7.906
42725SOL    HW130072  10.895   7.764   7.905
42725SOL    HW230073  10.807   7.678   7.993
42726SOL     OW30074   8.114   2.021   5.443
42726SOL    HW130075   8.095   1.927   5.450
42726SOL    HW230076   8.054   2.052   5.375
42727SOL     OW30077   7.702  11.687  13.454
42727SOL    HW130078   7.792  11.698  13.422
42727SOL    HW230079   7.653  11.757  13.411
42728SOL     OW30080  12.220   2.778  13.616
42728SOL    HW130081  12.280   2.853  13.626
42728SOL    HW230082  12.140   2.817  13.581
42729SOL     OW30083   2.570  10.871  13.086
42729SOL    HW130084   2.573  10.955  13.040
42729SOL    HW230085   2.646  10.873  13.145
42730SOL     OW30086   8.750  10.662   9.205
42730SOL    HW130087   8.719  10.710   9.128
42730SOL    HW230088   8.708  10.577   9.199
42731SOL     OW30089   1.465   1.529   4.992
42731SOL    HW130090   1.415   1.609   5.005
42731SOL    HW230091   1.522   1.548   4.918
42732SOL     OW30092  11.130  11.041   8.456
42732SOL    HW130093  11.105  11.029   8.548
42732SOL    HW230094  11.120  11.135   8.440
42733SOL     OW30095   9.886  11.865   6.575
42733SOL    HW130096   9.952  11.846   6.641
42733SOL    HW230097   9.870  11.781   6.533
42734SOL     OW30098   7.427  13.398   8.526
42734SOL    HW130099   7.509  13.350   8.518
42734SOL    HW230100   7.439  13.453   8.604
42735SOL     OW30101  14.604   2.830   6.158
42735SOL    HW130102  14.665   2.874   6.217
42735SOL    HW230103  14.618   2.872   6.073
42736SOL     OW30104   7.341   0.364   4.469
42736SOL    HW130105   7.376   0.419   4.400
42736SOL    HW230106   7.354   0.415   4.549
42737SOL     OW30107   3.357  11.825   4.358
42737SOL    HW130108   3.417  11.790   4.423
42737SOL    HW230109   3.342  11.752   4.297
42738SOL     OW30110   5.431  13.234   3.810
42738SOL    HW130111   5.344  13.272   3.801
42738SOL    HW230112   5.450  13.198   3.723
42739SOL     OW30113  14.781   4.714   2.515
42739SOL    HW130114  14.729   4.700   2.435
42739SOL    HW230115  14.871   4.722   2.483
42740SOL     OW30116   0.074   8.242   1.571
42740SOL    HW130117   0.026   8.165   1.540
42740SOL    HW230118   0.010   8.292   1.622
42741SOL     OW30119  12.305  14.054  11.531
42741SOL    HW130120  12.274  14.119  11.594
42741SOL    HW230121  12.230  14.038  11.474
42742SOL     OW30122  11.863   5.804   0.219
42742SOL    HW130123  11.806   5.751   0.163
42742SOL    HW230124  11.831   5.788   0.308
42743SOL     OW30125   4.688  11.762   7.968
42743SOL    HW130126   4.728  11.690   7.919
42743SOL    HW230127   4.595  11.738   7.974
42744SOL     OW30128  13.435   6.700  14.177
42744SOL    HW130129  13.464   6.609  14.170
42744SOL    HW230130  13.377   6.701  14.253
42745SOL     OW30131   1.717  13.418   6.837
42745SOL    HW130132   1.798  13.385   6.799
42745SOL    HW230133   1.652  13.349   6.820
42746SOL     OW30134   1.020  10.308   5.468
42746SOL    HW130135   1.031  10.261   5.385
42746SOL    HW230136   0.969  10.249   5.523
42747SOL     OW30137  13.238   6.233   1.806
42747SOL    HW130138  13.221   6.185   1.725
42747SOL    HW230139  13.331   6.220   1.823
42748SOL     OW30140  12.294   2.917   2.150
42748SOL    HW130141  12.290   2.908   2.054
42748SOL    HW230142  12.204   2.933   2.177
42749SOL     OW30143   9.977   7.497   5.039
42749SOL    HW130144   9.961   7.412   5.080
42749SOL    HW230145  10.067   7.491   5.007
42750SOL     OW30146  10.173   8.035   9.017
42750SOL    HW130147  10.224   8.105   8.977
42750SOL    HW230148  10.186   7.960   8.959
42751SOL     OW30149   9.493  11.788   9.265
42751SOL    HW130150   9.446  11.708   9.240
42751SOL    HW230151   9.585  11.763   9.264
42752SOL     OW30152   0.278   4.428   3.327
42752SOL    HW130153   0.195   4.468   3.351
42752SOL    HW230154   0.309   4.480   3.253
42753SOL     OW30155   0.962   9.482   8.390
42753SOL    HW130156   0.971   9.473   8.485
42753SOL    HW230157   1.037   9.435   8.354
42754SOL     OW30158   3.342   3.427   0.923
42754SOL    HW130159   3.423   3.429   0.872
42754SOL    HW230160   3.361   3.482   1.000
42755SOL     OW30161  11.276   8.766  12.875
42755SOL    HW130162  11.189   8.726  12.876
42755SOL    HW230163  11.278   8.823  12.951
42756SOL     OW30164   2.989   9.418   5.748
42756SOL    HW130165   3.036   9.438   5.829
42756SOL    HW230166   2.951   9.332   5.763
42757SOL     OW30167   9.531   0.606  11.928
42757SOL    HW130168   9.484   0.522  11.930
42757SOL    HW230169   9.470   0.669  11.965
42758SOL     OW30170   5.510   2.958   0.242
42758SOL    HW130171   5.428   2.954   0.194
42758SOL    HW230172   5.577   2.964   0.174
42759SOL     OW30173   8.803   1.334  13.149
42759SOL    HW130174   8.782   1.390  13.224
42759SOL    HW230175   8.893   1.307  13.164
42760SOL     OW30176  11.651   4.458  12.517
42760SOL    HW130177  11.675   4.409  12.439
42760SOL    HW230178  11.684   4.405  12.590
42761SOL     OW30179  12.365   6.208   4.870
42761SOL    HW130180  12.359   6.209   4.966
42761SOL    HW230181  12.328   6.292   4.843
42762SOL     OW30182  13.939   2.351   9.771
42762SOL    HW130183  13.997   2.426   9.757
42762SOL    HW230184  13.876   2.356   9.699
42763SOL     OW30185   6.291   1.639   1.196
42763SOL    HW130186   6.320   1.553   1.165
42763SOL    HW230187   6.303   1.697   1.120
42764SOL     OW30188   3.617   1.304   6.538
42764SOL    HW130189   3.681   1.325   6.606
42764SOL    HW230190   3.634   1.367   6.469
42765SOL     OW30191   3.505   5.007   4.363
42765SOL    HW130192   3.589   4.969   4.336
42765SOL    HW230193   3.477   5.059   4.287
42766SOL     OW30194  12.380   3.155   4.512
42766SOL    HW130195  12.454   3.208   4.481
42766SOL    HW230196  12.343   3.115   4.434
42767SOL     OW30197   7.850  11.353  11.398
42767SOL    HW130198   7.896  11.400  11.328
42767SOL    HW230199   7.767  11.401  11.408
42768SOL     OW30200   5.698   1.472   6.161
42768SOL    HW130201   5.708   1.516   6.076
42768SOL    HW230202   5.619   1.419   6.151
42769SOL     OW30203   5.628   3.531   1.120
42769SOL    HW130204   5.649   3.467   1.188
42769SOL    HW230205   5.664   3.613   1.151
42770SOL     OW30206   9.404   9.305   6.712
42770SOL    HW130207   9.332   9.354   6.672
42770SOL    HW230208   9.481   9.329   6.660
42771SOL     OW30209   1.175   8.269   2.319
42771SOL    HW130210   1.243   8.336   2.329
42771SOL    HW230211   1.108   8.310   2.264
42772SOL     OW30212  11.982   8.851   4.713
42772SOL    HW130213  11.887   8.856   4.701
42772SOL    HW230214  11.999   8.903   4.791
42773SOL     OW30215   4.391   6.948   6.641
42773SOL    HW130216   4.457   6.994   6.589
42773SOL    HW230217   4.332   6.910   6.576
42774SOL     OW30218   3.080   7.012   5.505
42774SOL    HW130219   3.161   6.974   5.540
42774SOL    HW230220   3.097   7.021   5.412
42775SOL     OW30221   9.108   6.348   4.336
42775SOL    HW130222   9.179   6.377   4.392
42775SOL    HW230223   9.119   6.253   4.330
42776SOL     OW30224  14.849  10.127  10.272
42776SOL    HW130225  14.864  10.218  10.247
42776SOL    HW230226   0.059  10.085  10.259
42777SOL     OW30227  14.758   7.314   6.002
42777SOL    HW130228  14.783   7.232   5.959
42777SOL    HW230229  14.766   7.380   5.933
42778SOL     OW30230   7.627   8.760   7.221
42778SOL    HW130231   7.586   8.708   7.153
42778SOL    HW230232   7.642   8.699   7.293
42779SOL     OW30233  12.005  10.539  10.551
42779SOL    HW130234  11.966  10.543  10.464
42779SOL    HW230235  11.987  10.450  10.582
42780SOL     OW30236  14.436   7.946   8.668
42780SOL    HW130237  14.441   7.851   8.677
42780SOL    HW230238  14.451   7.979   8.757
42781SOL     OW30239   7.464  10.059  12.125
42781SOL    HW130240   7.399   9.998  12.160
42781SOL    HW230241   7.443  10.066  12.032
42782SOL     OW30242   5.211   3.556  10.913
42782SOL    HW130243   5.260   3.575  10.993
42782SOL    HW230244   5.119   3.559  10.939
42783SOL     OW30245   7.929   4.381   8.568
42783SOL    HW130246   7.876   4.421   8.637
42783SOL    HW230247   7.978   4.312   8.613
42784SOL     OW30248   2.577   7.749   0.419
42784SOL    HW130249   2.535   7.825   0.379
42784SOL    HW230250   2.536   7.741   0.505
42785SOL     OW30251  10.570   5.876  11.912
42785SOL    HW130252  10.583   5.971  11.916
42785SOL    HW230253  10.514   5.863  11.836
42786SOL     OW30254   9.926   8.884   8.065
42786SOL    HW130255   9.995   8.887   7.998
42786SOL    HW230256   9.929   8.795   8.099
42787SOL     OW30257   7.035   2.065   3.744
42787SOL    HW130258   7.078   2.079   3.828
42787SOL    HW230259   7.088   1.999   3.701
42788SOL     OW30260   1.035  13.924   6.513
42788SOL    HW130261   1.009  13.843   6.468
42788SOL    HW230262   1.112  13.899   6.563
42789SOL     OW30263   1.321   5.299  12.068
42789SOL    HW130264   1.250   5.269  12.011
42789SOL    HW230265   1.305   5.255  12.151
42790SOL     OW30266   4.762   1.627   0.919
42790SOL    HW130267   4.732   1.675   0.842
42790SOL    HW230268   4.849   1.594   0.896
42791SOL     OW30269  12.292   8.166  11.061
42791SOL    HW130270  12.254   8.091  11.107
42791SOL    HW230271  12.355   8.203  11.123
42792SOL     OW30272   7.266   9.403   4.790
42792SOL    HW130273   7.294   9.494   4.795
42792SOL    HW230274   7.193   9.404   4.728
42793SOL     OW30275  13.688   9.748   1.160
42793SOL    HW130276  13.676   9.821   1.098
42793SOL    HW230277  13.599   9.714   1.173
42794SOL     OW30278  10.342   1.849   7.116
42794SOL    HW130279  10.372   1.824   7.203
42794SOL    HW230280  10.416   1.897   7.078
42795SOL     OW30281   4.691   4.915   7.780
42795SOL    HW130282   4.615   4.971   7.765
42795SOL    HW230283   4.654   4.831   7.807
42796SOL     OW30284  11.583  12.164   6.825
42796SOL    HW130285  11.588  12.259   6.830
42796SOL    HW230286  11.579  12.135   6.916
42797SOL     OW30287  13.745   2.932   8.648
42797SOL    HW130288  13.749   2.985   8.729
42797SOL    HW230289  13.736   2.997   8.578
42798SOL     OW30290   9.637   4.296   5.103
42798SOL    HW130291   9.571   4.249   5.051
42798SOL    HW230292   9.705   4.318   5.040
42799SOL     OW30293   4.452   1.066   2.899
42799SOL    HW130294   4.483   0.985   2.858
42799SOL    HW230295   4.470   1.134   2.835
42800SOL     OW30296  11.744   2.057   1.019
42800SOL    HW130297  11.736   2.119   1.091
42800SOL    HW230298  11.654   2.030   1.001
42801SOL     OW30299  12.297  13.610   5.157
42801SOL    HW130300  12.229  13.613   5.225
42801SOL    HW230301  12.281  13.529   5.110
42802SOL     OW30302   7.745  13.368   0.241
42802SOL    HW130303   7.837  13.388   0.257
42802SOL    HW230304   7.700  13.451   0.254
42803SOL     OW30305   1.967   6.971   4.090
42803SOL    HW130306   1.994   6.969   4.182
42803SOL    HW230307   1.873   6.987   4.092
42804SOL     OW30308   2.281  11.629  13.576
42804SOL    HW130309   2.272  11.629  13.481
42804SOL    HW230310   2.375  11.618  13.591
42805SOL     OW30311   9.951   0.558  10.198
42805SOL    HW130312   9.870   0.586  10.240
42805SOL    HW230313   9.938   0.577  10.105
42806SOL     OW30314   5.097   9.013  12.160
42806SOL    HW130315   5.100   9.033  12.067
42806SOL    HW230316   5.103   8.917  12.164
42807SOL     OW30317  10.427   3.208  11.862
42807SOL    HW130318  10.496   3.267  11.893
42807SOL    HW230319  10.346   3.257  11.875
42808SOL     OW30320  13.153   6.511   8.025
42808SOL    HW130321  13.209   6.513   8.102
42808SOL    HW230322  13.097   6.434   8.038
42809SOL     OW30323   0.283   6.335   6.903
42809SOL    HW130324   0.212   6.289   6.859
42809SOL    HW230325   0.357   6.329   6.842
42810SOL     OW30326   5.910   9.490   7.085
42810SOL    HW130327   5.861   9.541   7.021
42810SOL    HW230328   5.964   9.554   7.130
42811SOL     OW30329  14.134  10.173   2.011
42811SOL    HW130330  14.146  10.155   2.104
42811SOL    HW230331  14.174  10.098   1.967
42812SOL     OW30332   0.000   5.425   6.095
42812SOL    HW130333   0.039   5.349   6.052
42812SOL    HW230334   0.013   5.497   6.033
42813SOL     OW30335   6.355   3.919   4.495
42813SOL    HW130336   6.413   3.990   4.519
42813SOL    HW230337   6.386   3.890   4.409
42814SOL     OW30338   4.619  12.537  14.052
42814SOL    HW130339   4.659  12.618  14.085
42814SOL    HW230340   4.663  12.521  13.969
42815SOL     OW30341  10.572   2.101   1.780
42815SOL    HW130342  10.558   2.038   1.851
42815SOL    HW230343  10.570   2.186   1.823
42816SOL     OW30344  10.228  13.930  11.400
42816SOL    HW130345  10.257  13.842  11.421
42816SOL    HW230346  10.133  13.928  11.417
42817SOL     OW30347  12.414  11.780  11.139
42817SOL    HW130348  12.342  11.755  11.196
42817SOL    HW230349  12.383  11.760  11.051
42818SOL     OW30350   0.884  14.627   3.418
42818SOL    HW130351   0.932  14.680   3.481
42818SOL    HW230352   0.844  14.690   3.358
42819SOL     OW30353   9.990   1.481   8.442
42819SOL    HW130354   9.973   1.398   8.398
42819SOL    HW230355   9.905   1.508   8.477
42820SOL     OW30356  13.242  13.114  12.545
42820SOL    HW130357  13.227  13.103  12.639
42820SOL    HW230358  13.185  13.186  12.520
42821SOL     OW30359   2.854  13.210  12.086
42821SOL    HW130360   2.889  13.285  12.133
42821SOL    HW230361   2.840  13.242  11.997
42822SOL     OW30362  14.013   9.676   2.317
42822SOL    HW130363  14.061   9.703   2.395
42822SOL    HW230364  14.038   9.585   2.303
42823SOL     OW30365   2.817   5.207  11.645
42823SOL    HW130366   2.728   5.199  11.679
42823SOL    HW230367   2.812   5.276  11.579
42824SOL     OW30368   0.168   5.905   6.154
42824SOL    HW130369   0.196   5.996   6.148
42824SOL    HW230370   0.119   5.889   6.074
42825SOL     OW30371   3.126   6.734  12.435
42825SOL    HW130372   3.174   6.723  12.518
42825SOL    HW230373   3.175   6.681  12.372
42826SOL     OW30374   9.032   5.508   3.300
42826SOL    HW130375   9.110   5.561   3.281
42826SOL    HW230376   8.993   5.551   3.376
42827SOL     OW30377   4.451  10.292   8.909
42827SOL    HW130378   4.518  10.301   8.841
42827SOL    HW230379   4.418  10.203   8.899
42828SOL     OW30380  14.536   9.721   9.156
42828SOL    HW130381  14.456   9.765   9.186
42828SOL    HW230382  14.509   9.672   9.079
42829SOL     OW30383   2.176   1.216  10.271
42829SOL    HW130384   2.169   1.155  10.345
42829SOL    HW230385   2.117   1.287  10.293
42830SOL     OW30386   8.995  13.031   3.639
42830SOL    HW130387   8.971  13.032   3.732
42830SOL    HW230388   9.082  12.992   3.637
42831SOL     OW30389  12.816   4.505  14.541
42831SOL    HW130390  12.862   4.567  14.597
42831SOL    HW230391  12.846   4.526  14.452
42832SOL     OW30392   9.721  14.424   5.520
42832SOL    HW130393   9.673  14.342   5.521
42832SOL    HW230394   9.778  14.417   5.443
42833SOL     OW30395  12.255   8.327   8.380
42833SOL    HW130396  12.177   8.343   8.432
42833SOL    HW230397  12.223   8.281   8.302
42834SOL     OW30398  13.993   7.146   0.680
42834SOL    HW130399  13.919   7.177   0.732
42834SOL    HW230400  14.061   7.126   0.744
42835SOL     OW30401   4.603   7.909  11.711
42835SOL    HW130402   4.639   7.869  11.631
42835SOL    HW230403   4.510   7.920  11.692
42836SOL     OW30404  14.349  13.962  12.009
42836SOL    HW130405  14.306  14.003  12.083
42836SOL    HW230406  14.285  13.900  11.974
42837SOL     OW30407   4.618   2.244   4.216
42837SOL    HW130408   4.535   2.245   4.263
42837SOL    HW230409   4.622   2.330   4.173
42838SOL     OW30410  12.524   9.408   2.610
42838SOL    HW130411  12.488   9.464   2.678
42838SOL    HW230412  12.468   9.331   2.610
42839SOL     OW30413  13.692   4.903   3.393
42839SOL    HW130414  13.664   4.922   3.304
42839SOL    HW230415  13.692   4.808   3.399
42840SOL     OW30416   3.940   3.125   0.874
42840SOL    HW130417   3.900   3.106   0.789
42840SOL    HW230418   4.031   3.099   0.865
42841SOL     OW30419   0.018   1.388   1.908
42841SOL    HW130420  14.812   1.424   1.873
42841SOL    HW230421   0.056   1.460   1.959
42842SOL     OW30422   0.127   5.647   5.184
42842SOL    HW130423   0.182   5.645   5.106
42842SOL    HW230424   0.045   5.687   5.155
42843SOL     OW30425   5.785   0.116   2.531
42843SOL    HW130426   5.788   0.094   2.438
42843SOL    HW230427   5.850   0.059   2.572
42844SOL     OW30428   2.166   8.575   3.979
42844SOL    HW130429   2.224   8.537   3.912
42844SOL    HW230430   2.225   8.622   4.037
42845SOL     OW30431   3.064  10.417   5.052
42845SOL    HW130432   3.009  10.492   5.030
42845SOL    HW230433   3.019  10.374   5.124
42846SOL     OW30434  12.804  11.658   0.477
42846SOL    HW130435  12.735  11.628   0.536
42846SOL    HW230436  12.826  11.580   0.424
42847SOL     OW30437   6.629   6.861   2.600
42847SOL    HW130438   6.580   6.805   2.539
42847SOL    HW230439   6.561   6.910   2.646
42848SOL     OW30440   5.564  11.237   9.651
42848SOL    HW130441   5.558  11.288   9.731
42848SOL    HW230442   5.546  11.299   9.581
42849SOL     OW30443  11.576  11.649  10.348
42849SOL    HW130444  11.490  11.684  10.328
42849SOL    HW230445  11.566  11.608  10.434
42850SOL     OW30446   8.089   5.720   2.213
42850SOL    HW130447   8.150   5.648   2.201
42850SOL    HW230448   8.051   5.705   2.299
42851SOL     OW30449  14.453   3.153  14.381
42851SOL    HW130450  14.450   3.060  14.358
42851SOL    HW230451  14.369   3.188  14.353
42852SOL     OW30452  10.234   8.886   1.857
42852SOL    HW130453  10.193   8.863   1.773
42852SOL    HW230454  10.162   8.884   1.920
42853SOL     OW30455   2.914   5.150  12.548
42853SOL    HW130456   2.925   5.136  12.454
42853SOL    HW230457   2.942   5.240  12.562
42854SOL     OW30458   2.811   1.187   3.906
42854SOL    HW130459   2.783   1.145   3.824
42854SOL    HW230460   2.803   1.119   3.972
42855SOL     OW30461   9.353   6.437   1.065
42855SOL    HW130462   9.311   6.503   1.010
42855SOL    HW230463   9.350   6.474   1.153
42856SOL     OW30464  13.706   2.749   8.427
42856SOL    HW130465  13.748   2.781   8.507
42856SOL    HW230466  13.774   2.756   8.360
42857SOL     OW30467  12.812  13.656  10.578
42857SOL    HW130468  12.852  13.597  10.642
42857SOL    HW230469  12.718  13.648  10.593
42858SOL     OW30470   7.240   3.337   8.921
42858SOL    HW130471   7.306   3.304   8.860
42858SOL    HW230472   7.259   3.293   9.004
42859SOL     OW30473  13.392  14.274   5.478
42859SOL    HW130474  13.410  14.348   5.535
42859SOL    HW230475  13.396  14.198   5.536
42860SOL     OW30476   8.793   4.164  12.001
42860SOL    HW130477   8.815   4.234  11.939
42860SOL    HW230478   8.868   4.162  12.061
42861SOL     OW30479   0.367   6.322   3.764
42861SOL    HW130480   0.386   6.398   3.819
42861SOL    HW230481   0.388   6.247   3.819
42862SOL     OW30482  12.196  12.497  13.842
42862SOL    HW130483  12.265  12.445  13.801
42862SOL    HW230484  12.169  12.446  13.918
42863SOL     OW30485   8.490   7.970  12.010
42863SOL    HW130486   8.575   8.013  12.006
42863SOL    HW230487   8.450   8.003  12.091
42864SOL     OW30488  13.408  10.367  13.329
42864SOL    HW130489  13.421  10.442  13.387
42864SOL    HW230490  13.497  10.342  13.302
42865SOL     OW30491   4.955   5.319   4.375
42865SOL    HW130492   4.867   5.345   4.404
42865SOL    HW230493   5.012   5.350   4.445
42866SOL     OW30494   3.976  14.758   0.800
42866SOL    HW130495   4.047  14.695   0.789
42866SOL    HW230496   3.896  14.706   0.784
42867SOL     OW30497  13.163   6.956   5.095
42867SOL    HW130498  13.083   7.007   5.110
42867SOL    HW230499  13.139   6.867   5.120
42868SOL     OW30500  13.931   7.448   4.149
42868SOL    HW130501  13.873   7.393   4.097
42868SOL    HW230502  13.873   7.512   4.190
42869SOL     OW30503  14.234   3.085  11.420
42869SOL    HW130504  14.213   3.032  11.343
42869SOL    HW230505  14.326   3.065  11.439
42870SOL     OW30506  11.347   4.383   7.103
42870SOL    HW130507  11.397   4.457   7.067
42870SOL    HW230508  11.303   4.420   7.179
42871SOL     OW30509   7.543   7.772  10.660
42871SOL    HW130510   7.493   7.834  10.713
42871SOL    HW230511   7.634   7.800  10.670
42872SOL     OW30512   4.894  12.501   9.764
42872SOL    HW130513   4.950  12.557   9.818
42872SOL    HW230514   4.953  12.462   9.699
42873SOL     OW30515   7.986   1.556   3.535
42873SOL    HW130516   7.950   1.520   3.454
42873SOL    HW230517   7.910   1.569   3.592
42874SOL     OW30518  13.945  12.129   9.416
42874SOL    HW130519  13.894  12.078   9.480
42874SOL    HW230520  14.025  12.153   9.463
42875SOL     OW30521   3.385   1.752  10.338
42875SOL    HW130522   3.480   1.762  10.339
42875SOL    HW230523   3.357   1.786  10.423
42876SOL     OW30524  13.889   7.168   7.865
42876SOL    HW130525  13.944   7.118   7.924
42876SOL    HW230526  13.886   7.116   7.784
42877SOL     OW30527   7.402   3.533   7.792
42877SOL    HW130528   7.415   3.622   7.825
42877SOL    HW230529   7.356   3.488   7.863
42878SOL     OW30530   6.085  13.020  10.688
42878SOL    HW130531   6.117  12.969  10.762
42878SOL    HW230532   6.014  13.073  10.723
42879SOL     OW30533  13.121  13.042   0.124
42879SOL    HW130534  13.046  13.067   0.070
42879SOL    HW230535  13.190  13.102   0.099
42880SOL     OW30536  11.740   6.646  11.056
42880SOL    HW130537  11.753   6.741  11.057
42880SOL    HW230538  11.665   6.634  10.998
42881SOL     OW30539   5.148   6.139   5.083
42881SOL    HW130540   5.225   6.145   5.140
42881SOL    HW230541   5.138   6.046   5.064
42882SOL     OW30542  12.374   2.770  12.287
42882SOL    HW130543  12.426   2.850  12.282
42882SOL    HW230544  12.300   2.792  12.343
42883SOL     OW30545   2.167   5.584   5.985
42883SOL    HW130546   2.203   5.639   5.916
42883SOL    HW230547   2.230   5.513   5.995
42884SOL     OW30548  13.112   2.185   6.524
42884SOL    HW130549  13.119   2.222   6.612
42884SOL    HW230550  13.203   2.173   6.497
42885SOL     OW30551   0.574   0.183   4.586
42885SOL    HW130552   0.599   0.263   4.538
42885SOL    HW230553   0.537   0.125   4.519
42886SOL     OW30554   2.879   7.012  10.425
42886SOL    HW130555   2.928   7.067  10.364
42886SOL    HW230556   2.791   7.051  10.427
42887SOL     OW30557   3.512   8.194   3.533
42887SOL    HW130558   3.607   8.200   3.531
42887SOL    HW230559   3.482   8.278   3.497
42888SOL     OW30560  12.120   2.809   3.612
42888SOL    HW130561  12.205   2.776   3.584
42888SOL    HW230562  12.069   2.731   3.633
42889SOL     OW30563  12.334  10.111  14.302
42889SOL    HW130564  12.377  10.071  14.226
42889SOL    HW230565  12.245  10.131  14.271
42890SOL     OW30566   2.433   9.785   4.629
42890SOL    HW130567   2.407   9.760   4.540
42890SOL    HW230568   2.528   9.779   4.628
42891SOL     OW30569   2.782  14.554  12.067
42891SOL    HW130570   2.803  14.566  11.975
42891SOL    HW230571   2.688  14.536  12.068
42892SOL     OW30572   0.695   5.433   3.792
42892SOL    HW130573   0.682   5.520   3.757
42892SOL    HW230574   0.771   5.398   3.745
42893SOL     OW30575  11.412  10.865   0.826
42893SOL    HW130576  11.442  10.828   0.743
42893SOL    HW230577  11.480  10.841   0.889
42894SOL     OW30578   7.117   8.204   4.181
42894SOL    HW130579   7.139   8.150   4.257
42894SOL    HW230580   7.046   8.260   4.212
42895SOL     OW30581  10.296   5.387  12.192
42895SOL    HW130582  10.338   5.336  12.124
42895SOL    HW230583  10.354   5.379  12.268
42896SOL     OW30584   0.732   8.753   9.774
42896SOL    HW130585   0.666   8.820   9.793
42896SOL    HW230586   0.718   8.731   9.682
42897SOL     OW30587   6.001   6.226   7.343
42897SOL    HW130588   6.021   6.210   7.251
42897SOL    HW230589   6.022   6.143   7.387
42898SOL     OW30590  11.804  11.263   8.628
42898SOL    HW130591  11.802  11.196   8.696
42898SOL    HW230592  11.733  11.323   8.652
42899SOL     OW30593  14.761   5.508  11.779
42899SOL    HW130594  14.685   5.566  11.778
42899SOL    HW230595  14.785   5.498  11.686
42900SOL     OW30596   4.529   6.571   5.237
42900SOL    HW130597   4.556   6.508   5.170
42900SOL    HW230598   4.596   6.562   5.306
42901SOL     OW30599   2.256   4.145   1.464
42901SOL    HW130600   2.252   4.050   1.454
42901SOL    HW230601   2.347   4.164   1.483
42902SOL     OW30602   4.563  10.388   7.718
42902SOL    HW130603   4.513  10.401   7.798
42902SOL    HW230604   4.646  10.432   7.735
42903SOL     OW30605   1.996  12.454   7.778
42903SOL    HW130606   2.091  12.438   7.783
42903SOL    HW230607   1.958  12.385   7.832
42904SOL     OW30608   1.930   8.028  11.994
42904SOL    HW130609   1.950   8.047  12.086
42904SOL    HW230610   1.884   7.944  11.996
42905SOL     OW30611   8.523  10.800   3.178
42905SOL    HW130612   8.546  10.739   3.247
42905SOL    HW230613   8.582  10.777   3.106
42906SOL     OW30614   3.051   4.724   7.616
42906SOL    HW130615   3.028   4.816   7.629
42906SOL    HW230616   3.134   4.727   7.568
42907SOL     OW30617   0.454   1.865  12.204
42907SOL    HW130618   0.538   1.854  12.249
42907SOL    HW230619   0.444   1.960  12.195
42908SOL     OW30620  11.972  10.542  13.809
42908SOL    HW130621  11.947  10.556  13.901
42908SOL    HW230622  11.895  10.569  13.759
42909SOL     OW30623   3.968  13.262  10.750
42909SOL    HW130624   3.962  13.286  10.842
42909SOL    HW230625   3.912  13.326  10.705
42910SOL     OW30626   9.214   6.617   4.511
42910SOL    HW130627   9.163   6.680   4.563
42910SOL    HW230628   9.182   6.531   4.540
42911SOL     OW30629   3.401  10.540   0.475
42911SOL    HW130630   3.474  10.554   0.415
42911SOL    HW230631   3.353  10.623   0.476
42912SOL     OW30632   0.195   0.426  13.438
42912SOL    HW130633   0.243   0.343  13.440
42912SOL    HW230634   0.154   0.428  13.352
42913SOL     OW30635  10.046   1.072   5.189
42913SOL    HW130636   9.975   1.108   5.242
42913SOL    HW230637  10.073   0.994   5.237
42914SOL     OW30638  13.195  13.922   1.245
42914SOL    HW130639  13.283  13.906   1.279
42914SOL    HW230640  13.208  13.988   1.177
42915SOL     OW30641   1.250   7.881  12.928
42915SOL    HW130642   1.230   7.936  12.853
42915SOL    HW230643   1.185   7.904  12.994
42916SOL     OW30644   4.219   5.634   0.577
42916SOL    HW130645   4.154   5.600   0.638
42916SOL    HW230646   4.168   5.678   0.509
42917SOL     OW30647  12.536   1.948   3.043
42917SOL    HW130648  12.518   1.967   3.135
42917SOL    HW230649  12.502   2.024   2.996
42918SOL     OW30650   9.615   0.505   5.036
42918SOL    HW130651   9.540   0.559   5.062
42918SOL    HW230652   9.586   0.415   5.050
42919SOL     OW30653   9.850   1.682  11.227
42919SOL    HW130654   9.904   1.740  11.173
42919SOL    HW230655   9.865   1.595  11.190
42920SOL     OW30656   1.672  12.648   0.182
42920SOL    HW130657   1.605  12.677   0.120
42920SOL    HW230658   1.623  12.618   0.258
42921SOL     OW30659   6.947   9.112   1.789
42921SOL    HW130660   6.932   9.205   1.799
42921SOL    HW230661   7.040   9.105   1.766
42922SOL     OW30662   8.593  12.939   0.653
42922SOL    HW130663   8.573  12.848   0.632
42922SOL    HW230664   8.688  12.945   0.646
42923SOL     OW30665   1.484   7.926  10.471
42923SOL    HW130666   1.493   7.873  10.392
42923SOL    HW230667   1.391   7.918  10.496
42924SOL     OW30668   9.924   1.557   2.951
42924SOL    HW130669   9.838   1.589   2.978
42924SOL    HW230670   9.974   1.549   3.032
42925SOL     OW30671   0.267  12.493  12.412
42925SOL    HW130672   0.288  12.541  12.332
42925SOL    HW230673   0.335  12.426  12.418
42926SOL     OW30674  14.530  11.261   9.819
42926SOL    HW130675  14.442  11.252   9.783
42926SOL    HW230676  14.517  11.306   9.903
42927SOL     OW30677   0.070  11.726   5.310
42927SOL    HW130678   0.020  11.714   5.391
42927SOL    HW230679   0.004  11.741   5.243
42928SOL     OW30680  13.780  12.580   2.379
42928SOL    HW130681  13.703  12.594   2.323
42928SOL    HW230682  13.849  12.633   2.339
42929SOL     OW30683   3.181   1.314   9.443
42929SOL    HW130684   3.156   1.299   9.534
42929SOL    HW230685   3.204   1.228   9.409
42930SOL     OW30686  10.179   5.329   2.469
42930SOL    HW130687  10.086   5.351   2.477
42930SOL    HW230688  10.217   5.401   2.417
42931SOL     OW30689  11.388  10.730   4.745
42931SOL    HW130690  11.444  10.738   4.668
42931SOL    HW230691  11.444  10.691   4.812
42932SOL     OW30692   3.098   3.579   5.455
42932SOL    HW130693   3.171   3.530   5.492
42932SOL    HW230694   3.020   3.530   5.482
42933SOL     OW30695  11.005   6.725  10.886
42933SOL    HW130696  11.092   6.721  10.847
42933SOL    HW230697  10.994   6.639  10.928
42934SOL     OW30698   4.994   7.514  14.719
42934SOL    HW130699   4.974   7.448  14.653
42934SOL    HW230700   5.019   7.592  14.669
42935SOL     OW30701   8.650   1.903   2.866
42935SOL    HW130702   8.586   1.875   2.931
42935SOL    HW230703   8.708   1.963   2.913
42936SOL     OW30704  12.704  13.850  13.826
42936SOL    HW130705  12.685  13.764  13.862
42936SOL    HW230706  12.665  13.911  13.888
42937SOL     OW30707  13.842  13.678  10.019
42937SOL    HW130708  13.868  13.667  10.110
42937SOL    HW230709  13.813  13.592   9.991
42938SOL     OW30710  13.384   1.511   7.595
42938SOL    HW130711  13.347   1.452   7.660
42938SOL    HW230712  13.323   1.584   7.592
42939SOL     OW30713  12.998  13.990  12.496
42939SOL    HW130714  12.929  13.925  12.506
42939SOL    HW230715  13.078  13.945  12.521
42940SOL     OW30716  11.584   2.152  11.245
42940SOL    HW130717  11.532   2.080  11.210
42940SOL    HW230718  11.656   2.163  11.183
42941SOL     OW30719   8.391   4.621   4.368
42941SOL    HW130720   8.365   4.708   4.339
42941SOL    HW230721   8.308   4.574   4.378
42942SOL     OW30722  10.479  12.056   2.938
42942SOL    HW130723  10.460  12.060   3.032
42942SOL    HW230724  10.527  11.974   2.927
42943SOL     OW30725  10.460  10.962   3.313
42943SOL    HW130726  10.538  11.005   3.278
42943SOL    HW230727  10.490  10.874   3.336
42944SOL     OW30728  10.787   2.246   6.389
42944SOL    HW130729  10.845   2.276   6.459
42944SOL    HW230730  10.840   2.182   6.340
42945SOL     OW30731   8.087   5.054   3.170
42945SOL    HW130732   8.095   5.083   3.261
42945SOL    HW230733   8.090   5.135   3.119
42946SOL     OW30734   0.126  11.670  10.303
42946SOL    HW130735   0.108  11.710  10.218
42946SOL    HW230736   0.050  11.692  10.356
42947SOL     OW30737   0.624  12.005   8.601
42947SOL    HW130738   0.575  12.088   8.609
42947SOL    HW230739   0.711  12.025   8.635
42948SOL     OW30740   1.091   2.414   6.298
42948SOL    HW130741   1.115   2.330   6.260
42948SOL    HW230742   1.014   2.396   6.351
42949SOL     OW30743   3.302   8.766   4.891
42949SOL    HW130744   3.299   8.702   4.962
42949SOL    HW230745   3.376   8.822   4.913
42950SOL     OW30746   2.871   6.872  10.655
42950SOL    HW130747   2.953   6.909  10.689
42950SOL    HW230748   2.857   6.918  10.573
42951SOL     OW30749   3.464  10.691   2.116
42951SOL    HW130750   3.480  10.632   2.190
42951SOL    HW230751   3.377  10.668   2.085
42952SOL     OW30752  10.495  12.981   2.136
42952SOL    HW130753  10.490  12.896   2.094
42952SOL    HW230754  10.429  12.978   2.205
42953SOL     OW30755  10.140  11.555   1.760
42953SOL    HW130756  10.169  11.632   1.711
42953SOL    HW230757  10.048  11.573   1.780
42954SOL     OW30758  13.817   7.267   9.643
42954SOL    HW130759  13.875   7.322   9.697
42954SOL    HW230760  13.830   7.300   9.554
42955SOL     OW30761   0.982   1.758  13.509
42955SOL    HW130762   0.900   1.781  13.465
42955SOL    HW230763   1.007   1.837  13.557
42956SOL     OW30764   4.900  11.286  13.762
42956SOL    HW130765   4.850  11.206  13.778
42956SOL    HW230766   4.835  11.356  13.764
42957SOL     OW30767   5.680   4.039   2.761
42957SOL    HW130768   5.755   4.022   2.705
42957SOL    HW230769   5.627   4.103   2.713
42958SOL     OW30770   1.231   3.597   2.053
42958SOL    HW130771   1.260   3.506   2.046
42958SOL    HW230772   1.166   3.607   1.984
42959SOL     OW30773   9.708  10.683   4.066
42959SOL    HW130774   9.799  10.660   4.051
42959SOL    HW230775   9.662  10.655   3.987
42960SOL     OW30776   9.135   3.686   6.487
42960SOL    HW130777   9.071   3.674   6.416
42960SOL    HW230778   9.096   3.640   6.561
42961SOL     OW30779  10.978   8.496  14.531
42961SOL    HW130780  10.995   8.406  14.504
42961SOL    HW230781  11.048   8.516  14.593
42962SOL     OW30782  13.706  10.554   3.511
42962SOL    HW130783  13.768  10.606   3.459
42962SOL    HW230784  13.734  10.464   3.499
42963SOL     OW30785   4.605   4.838   3.432
42963SOL    HW130786   4.656   4.785   3.494
42963SOL    HW230787   4.515   4.807   3.441
42964SOL     OW30788   0.053   4.120  11.225
42964SOL    HW130789   0.088   4.132  11.313
42964SOL    HW230790   0.103   4.180  11.170
42965SOL     OW30791   2.930  14.172  10.956
42965SOL    HW130792   2.931  14.259  10.917
42965SOL    HW230793   2.949  14.187  11.049
42966SOL     OW30794  14.855  14.062   6.140
42966SOL    HW130795   0.065  14.061   6.184
42966SOL    HW230796  14.810  13.985   6.175
42967SOL     OW30797   0.831  13.222   6.551
42967SOL    HW130798   0.755  13.197   6.500
42967SOL    HW230799   0.841  13.316   6.535
42968SOL     OW30800   2.724   5.616  10.181
42968SOL    HW130801   2.778   5.583  10.109
42968SOL    HW230802   2.778   5.684  10.222
42969SOL     OW30803   2.917  14.228   9.297
42969SOL    HW130804   2.981  14.292   9.328
42969SOL    HW230805   2.832  14.265   9.324
42970SOL     OW30806  12.244   5.813   3.074
42970SOL    HW130807  12.336   5.831   3.054
42970SOL    HW230808  12.229   5.853   3.159
42971SOL     OW30809  13.615   7.852   9.814
42971SOL    HW130810  13.710   7.844   9.823
42971SOL    HW230811  13.588   7.900   9.892
42972SOL     OW30812   2.753   0.819   3.774
42972SOL    HW130813   2.803   0.738   3.774
42972SOL    HW230814   2.684   0.806   3.839
42973SOL     OW30815  10.187  14.056   7.553
42973SOL    HW130816  10.210  14.143   7.585
42973SOL    HW230817  10.267  14.023   7.514
42974SOL     OW30818   6.157   9.119   5.940
42974SOL    HW130819   6.206   9.200   5.954
42974SOL    HW230820   6.174   9.096   5.849
42975SOL     OW30821  14.275   8.018   3.943
42975SOL    HW130822  14.250   7.933   3.980
42975SOL    HW230823  14.369   8.012   3.930
42976SOL     OW30824   5.948   8.389   9.016
42976SOL    HW130825   5.921   8.398   9.108
42976SOL    HW230826   5.905   8.462   8.971
42977SOL     OW30827  12.585   4.037   5.742
42977SOL    HW130828  12.668   4.015   5.701
42977SOL    HW230829  12.522   3.978   5.702
42978SOL     OW30830  10.814   7.899  11.622
42978SOL    HW130831  10.822   7.805  11.636
42978SOL    HW230832  10.894   7.923  11.575
42979SOL     OW30833   1.982  11.589   4.277
42979SOL    HW130834   2.072  11.573   4.306
42979SOL    HW230835   1.961  11.514   4.222
42980SOL     OW30836   5.456   3.374   3.142
42980SOL    HW130837   5.452   3.290   3.095
42980SOL    HW230838   5.364   3.398   3.156
42981SOL     OW30839  14.580  10.625   6.195
42981SOL    HW130840  14.623  10.707   6.219
42981SOL    HW230841  14.620  10.601   6.112
42982SOL     OW30842   9.492   4.244  13.086
42982SOL    HW130843   9.431   4.272  13.019
42982SOL    HW230844   9.519   4.325  13.130
42983SOL     OW30845   7.879  14.632   3.740
42983SOL    HW130846   7.946  14.665   3.801
42983SOL    HW230847   7.803  14.614   3.796
42984SOL     OW30848   3.354   2.817   3.518
42984SOL    HW130849   3.414   2.862   3.458
42984SOL    HW230850   3.378   2.725   3.511
42985SOL     OW30851   4.651  12.246  13.771
42985SOL    HW130852   4.599  12.196  13.833
42985SOL    HW230853   4.596  12.321  13.749
42986SOL     OW30854   2.779   1.815  11.625
42986SOL    HW130855   2.763   1.905  11.654
42986SOL    HW230856   2.780   1.821  11.529
42987SOL     OW30857   4.334   8.799   7.214
42987SOL    HW130858   4.348   8.885   7.174
42987SOL    HW230859   4.242   8.799   7.240
42988SOL     OW30860   9.491   7.639   0.513
42988SOL    HW130861   9.546   7.692   0.571
42988SOL    HW230862   9.401   7.662   0.537
42989SOL     OW30863   0.537   6.280   4.693
42989SOL    HW130864   0.453   6.307   4.654
42989SOL    HW230865   0.569   6.210   4.635
42990SOL     OW30866   9.837   0.056   9.562
42990SOL    HW130867   9.834   0.132   9.620
42990SOL    HW230868   9.928   0.052   9.533
42991SOL     OW30869  13.223  11.561  14.273
42991SOL    HW130870  13.147  11.518  14.234
42991SOL    HW230871  13.244  11.633  14.214
42992SOL     OW30872   8.888   5.135   4.194
42992SOL    HW130873   8.921   5.069   4.132
42992SOL    HW230874   8.820   5.181   4.145
42993SOL     OW30875   5.937  14.234  14.429
42993SOL    HW130876   5.882  14.241  14.351
42993SOL    HW230877   5.924  14.145  14.460
42994SOL     OW30878  14.620  11.965  13.128
42994SOL    HW130879  14.551  11.919  13.081
42994SOL    HW230880  14.691  11.901  13.136
42995SOL     OW30881  12.365   7.608   9.040
42995SOL    HW130882  12.282   7.581   9.078
42995SOL    HW230883  12.362   7.704   9.041
42996SOL     OW30884   0.296  11.545   1.439
42996SOL    HW130885   0.313  11.542   1.345
42996SOL    HW230886   0.350  11.475   1.476
42997SOL     OW30887   2.671   4.523   5.061
42997SOL    HW130888   2.732   4.511   5.134
42997SOL    HW230889   2.689   4.450   5.002
42998SOL     OW30890  13.681   5.396  11.032
42998SOL    HW130891  13.604   5.340  11.045
42998SOL    HW230892  13.708   5.420  11.121
42999SOL     OW30893  14.846  10.245   9.903
42999SOL    HW130894  14.765  10.193   9.904
42999SOL    HW230895   0.041  10.182   9.919
43000SOL     OW30896   5.737  11.813   2.120
43000SOL    HW130897   5.761  11.905   2.111
43000SOL    HW230898   5.671  11.799   2.052
43001SOL     OW30899  11.228  12.007  10.915
43001SOL    HW130900  11.282  11.940  10.958
43001SOL    HW230901  11.178  12.047  10.986
43002SOL     OW30902   5.524   1.939  10.023
43002SOL    HW130903   5.619   1.924  10.021
43002SOL    HW230904   5.510   1.989  10.104
43003SOL     OW30905   2.899   9.831  14.556
43003SOL    HW130906   2.815   9.813  14.514
43003SOL    HW230907   2.880   9.827  14.650
43004SOL     OW30908   5.284   7.810  13.179
43004SOL    HW130909   5.228   7.887  13.169
43004SOL    HW230910   5.259   7.772  13.263
43005SOL     OW30911   9.870   0.973  12.639
43005SOL    HW130912   9.855   1.004  12.550
43005SOL    HW230913   9.868   0.877  12.632
43006SOL     OW30914  13.954  14.074   3.312
43006SOL    HW130915  13.959  14.027   3.229
43006SOL    HW230916  14.041  14.114   3.323
43007SOL     OW30917  10.396  14.532  12.607
43007SOL    HW130918  10.415  14.438  12.610
43007SOL    HW230919  10.429  14.560  12.521
43008SOL     OW30920  10.777   3.991  13.981
43008SOL    HW130921  10.808   4.065  13.929
43008SOL    HW230922  10.707   3.952  13.928
43009SOL     OW30923   6.700  13.831   8.164
43009SOL    HW130924   6.648  13.859   8.088
43009SOL    HW230925   6.656  13.872   8.239
43010SOL     OW30926  10.829   0.434   4.652
43010SOL    HW130927  10.842   0.526   4.673
43010SOL    HW230928  10.867   0.424   4.564
43011SOL     OW30929  14.659   0.602   1.357
43011SOL    HW130930  14.573   0.611   1.399
43011SOL    HW230931  14.695   0.521   1.393
43012SOL     OW30932   9.616   5.801   0.126
43012SOL    HW130933   9.561   5.866   0.171
43012SOL    HW230934   9.643   5.741   0.196
43013SOL     OW30935  11.031   6.872  11.123
43013SOL    HW130936  11.103   6.856  11.183
43013SOL    HW230937  11.053   6.821  11.045
43014SOL     OW30938  11.577  10.572   0.288
43014SOL    HW130939  11.665  10.602   0.313
43014SOL    HW230940  11.593  10.505   0.221
43015SOL     OW30941   8.469   8.595   8.924
43015SOL    HW130942   8.422   8.598   8.841
43015SOL    HW230943   8.420   8.655   8.981
43016SOL     OW30944   0.357   5.568  14.112
43016SOL    HW130945   0.295   5.592  14.043
43016SOL    HW230946   0.361   5.472  14.108
43017SOL     OW30947  12.992   3.773   1.559
43017SOL    HW130948  13.021   3.862   1.581
43017SOL    HW230949  12.996   3.769   1.464
43018SOL     OW30950   5.683   3.440   8.598
43018SOL    HW130951   5.740   3.461   8.672
43018SOL    HW230952   5.625   3.515   8.591
43019SOL     OW30953  14.377   0.577   0.248
43019SOL    HW130954  14.330   0.653   0.215
43019SOL    HW230955  14.456   0.572   0.194
43020SOL     OW30956   0.097  11.444   5.280
43020SOL    HW130957   0.119  11.424   5.189
43020SOL    HW230958   0.082  11.538   5.281
43021SOL     OW30959   6.631   6.704   7.338
43021SOL    HW130960   6.602   6.651   7.412
43021SOL    HW230961   6.551   6.746   7.306
43022SOL     OW30962   4.128   1.891   7.435
43022SOL    HW130963   4.159   1.852   7.517
43022SOL    HW230964   4.059   1.952   7.463
43023SOL     OW30965  10.029   9.317   5.597
43023SOL    HW130966  10.009   9.341   5.507
43023SOL    HW230967  10.099   9.252   5.590
43024SOL     OW30968   3.857  14.203   3.929
43024SOL    HW130969   3.901  14.126   3.963
43024SOL    HW230970   3.878  14.273   3.992
43025SOL     OW30971   2.030  12.677   5.772
43025SOL    HW130972   2.062  12.654   5.684
43025SOL    HW230973   1.999  12.767   5.763
43026SOL     OW30974   2.139   9.218   9.649
43026SOL    HW130975   2.149   9.140   9.595
43026SOL    HW230976   2.149   9.291   9.588
43027SOL     OW30977   5.389  12.531   7.776
43027SOL    HW130978   5.450  12.461   7.799
43027SOL    HW230979   5.439  12.611   7.792
43028SOL     OW30980   5.867  12.605   3.344
43028SOL    HW130981   5.828  12.517   3.344
43028SOL    HW230982   5.916  12.610   3.427
43029SOL     OW30983   1.620   2.436  11.769
43029SOL    HW130984   1.703   2.465  11.732
43029SOL    HW230985   1.573   2.517  11.789
43030SOL     OW30986   7.103  11.476   8.016
43030SOL    HW130987   7.128  11.566   7.996
43030SOL    HW230988   7.008  11.474   8.001
43031SOL     OW30989  13.747   8.039   9.283
43031SOL    HW130990  13.771   8.073   9.369
43031SOL    HW230991  13.697   7.960   9.303
43032SOL     OW30992   7.786  13.516   2.961
43032SOL    HW130993   7.851  13.562   2.908
43032SOL    HW230994   7.773  13.572   3.037
43033SOL     OW30995  14.003   4.484   5.840
43033SOL    HW130996  13.946   4.522   5.773
43033SOL    HW230997  14.010   4.392   5.815
43034SOL     OW30998   8.579   4.023  13.960
43034SOL    HW130999   8.532   4.026  14.043
43034SOL    HW231000   8.656   4.078  13.973
43035SOL     OW31001   3.001  13.296   0.046
43035SOL    HW131002   2.926  13.354   0.049
43035SOL    HW231003   2.964  13.208   0.042
43036SOL     OW31004  11.767   5.258   9.042
43036SOL    HW131005  11.772   5.349   9.014
43036SOL    HW231006  11.804   5.257   9.130
43037SOL     OW31007   7.115   3.577   5.316
43037SOL    HW131008   7.030   3.537   5.333
43037SOL    HW231009   7.165   3.509   5.272
43038SOL     OW31010   1.517  10.989   3.166
43038SOL    HW131011   1.591  10.937   3.199
43038SOL    HW231012   1.501  11.053   3.236
43039SOL     OW31013   0.443   0.786   0.697
43039SOL    HW131014   0.431   0.858   0.635
43039SOL    HW231015   0.513   0.816   0.755
43040SOL     OW31016  14.722   0.866   4.221
43040SOL    HW131017  14.769   0.934   4.271
43040SOL    HW231018  14.632   0.896   4.219
43041SOL     OW31019   3.342   0.019  11.718
43041SOL    HW131020   3.374   0.050  11.803
43041SOL    HW231021   3.366   0.089  11.656
43042SOL     OW31022  12.544   2.980   7.444
43042SOL    HW131023  12.578   3.012   7.528
43042SOL    HW231024  12.576   3.044   7.380
43043SOL     OW31025  14.541   8.340  10.478
43043SOL    HW131026  14.535   8.324  10.384
43043SOL    HW231027  14.618   8.395  10.488
43044SOL     OW31028  10.915   7.400   2.574
43044SOL    HW131029  10.864   7.473   2.539
43044SOL    HW231030  10.892   7.396   2.666
43045SOL     OW31031   9.427   6.307   2.977
43045SOL    HW131032   9.343   6.262   2.979
43045SOL    HW231033   9.485   6.253   3.030
43046SOL     OW31034   9.699   9.646   2.477
43046SOL    HW131035   9.655   9.728   2.455
43046SOL    HW231036   9.690   9.591   2.399
43047SOL     OW31037   5.817  13.657   1.105
43047SOL    HW131038   5.911  13.677   1.098
43047SOL    HW231039   5.814  13.562   1.113
43048SOL     OW31040   5.200   6.207  11.122
43048SOL    HW131041   5.198   6.260  11.202
43048SOL    HW231042   5.192   6.271  11.051
43049SOL     OW31043   7.523  10.022   1.498
43049SOL    HW131044   7.561   9.943   1.536
43049SOL    HW231045   7.597  10.081   1.483
43050SOL     OW31046   7.535   7.216  12.017
43050SOL    HW131047   7.547   7.251  11.929
43050SOL    HW231048   7.517   7.292  12.072
43051SOL     OW31049  10.290  13.413   0.317
43051SOL    HW131050  10.278  13.497   0.271
43051SOL    HW231051  10.270  13.433   0.408
43052SOL     OW31052   1.485   2.074   1.502
43052SOL    HW131053   1.486   2.104   1.593
43052SOL    HW231054   1.563   2.020   1.493
43053SOL     OW31055   6.638  11.527  12.255
43053SOL    HW131056   6.728  11.554  12.237
43053SOL    HW231057   6.596  11.524  12.169
43054SOL     OW31058   2.313  14.564   1.940
43054SOL    HW131059   2.297  14.643   1.991
43054SOL    HW231060   2.245  14.565   1.872
43055SOL     OW31061  13.583   0.983   3.798
43055SOL    HW131062  13.668   1.003   3.839
43055SOL    HW231063  13.519   1.009   3.864
43056SOL     OW31064   8.825   4.591   7.627
43056SOL    HW131065   8.771   4.512   7.633
43056SOL    HW231066   8.771   4.660   7.665
43057SOL     OW31067   6.134   7.352   7.060
43057SOL    HW131068   6.206   7.389   7.111
43057SOL    HW231069   6.072   7.321   7.126
43058SOL     OW31070   1.176   5.242  11.588
43058SOL    HW131071   1.194   5.286  11.671
43058SOL    HW231072   1.131   5.308  11.536
43059SOL     OW31073   7.613   5.398   4.064
43059SOL    HW131074   7.708   5.412   4.067
43059SOL    HW231075   7.576   5.479   4.098
43060SOL     OW31076   0.978   4.792   1.665
43060SOL    HW131077   0.967   4.883   1.693
43060SOL    HW231078   0.994   4.744   1.746
43061SOL     OW31079  13.181   0.314   4.622
43061SOL    HW131080  13.161   0.224   4.648
43061SOL    HW231081  13.104   0.342   4.573
43062SOL     OW31082   8.126   6.948   1.744
43062SOL    HW131083   8.193   6.900   1.695
43062SOL    HW231084   8.130   6.910   1.832
43063SOL     OW31085  14.485   2.354   9.063
43063SOL    HW131086  14.569   2.321   9.094
43063SOL    HW231087  14.492   2.354   8.968
43064SOL     OW31088   3.910   3.787   8.922
43064SOL    HW131089   3.989   3.829   8.957
43064SOL    HW231090   3.876   3.736   8.995
43065SOL     OW31091   0.676   4.794   4.727
43065SOL    HW131092   0.719   4.877   4.745
43065SOL    HW231093   0.681   4.784   4.632
43066SOL     OW31094   6.733   4.929   7.225
43066SOL    HW131095   6.712   4.872   7.300
43066SOL    HW231096   6.683   4.891   7.152
43067SOL     OW31097   3.392  13.377  11.614
43067SOL    HW131098   3.396  13.396  11.707
43067SOL    HW231099   3.298  13.379  11.593
43068SOL     OW31100  11.103   7.180   6.875
43068SOL    HW131101  11.093   7.142   6.788
43068SOL    HW231102  11.196   7.198   6.884
43069SOL     OW31103   3.043   8.932  11.695
43069SOL    HW131104   2.977   8.868  11.667
43069SOL    HW231105   3.126   8.887  11.680
43070SOL     OW31106  14.524   0.501   8.497
43070SOL    HW131107  14.597   0.440   8.490
43070SOL    HW231108  14.555   0.569   8.557
43071SOL     OW31109   5.776   7.567   7.762
43071SOL    HW131110   5.820   7.614   7.691
43071SOL    HW231111   5.722   7.502   7.718
43072SOL     OW31112   6.501   1.116  10.908
43072SOL    HW131113   6.411   1.090  10.927
43072SOL    HW231114   6.511   1.202  10.950
43073SOL     OW31115   8.896   7.321   4.423
43073SOL    HW131116   8.824   7.323   4.486
43073SOL    HW231117   8.931   7.410   4.424
43074SOL     OW31118   9.713   3.560   8.064
43074SOL    HW131119   9.713   3.481   8.010
43074SOL    HW231120   9.731   3.631   8.003
43075SOL     OW31121  10.415   0.620  13.026
43075SOL    HW131122  10.401   0.550  12.962
43075SOL    HW231123  10.471   0.580  13.092
43076SOL     OW31124   3.988  12.815   4.480
43076SOL    HW131125   3.927  12.889   4.488
43076SOL    HW231126   4.058  12.847   4.424
43077SOL     OW31127   9.756   8.309  10.884
43077SOL    HW131128   9.836   8.257  10.897
43077SOL    HW231129   9.694   8.274  10.949
43078SOL     OW31130   9.506  11.972   1.690
43078SOL    HW131131   9.562  12.048   1.707
43078SOL    HW231132   9.429  11.988   1.745
43079SOL     OW31133   4.107   9.648   3.026
43079SOL    HW131134   4.167   9.595   3.079
43079SOL    HW231135   4.163   9.685   2.957
43080SOL     OW31136  11.181   1.201   4.166
43080SOL    HW131137  11.171   1.227   4.074
43080SOL    HW231138  11.125   1.262   4.214
43081SOL     OW31139   6.389   2.176   4.378
43081SOL    HW131140   6.371   2.099   4.324
43081SOL    HW231141   6.477   2.203   4.352
43082SOL     OW31142   1.242  10.409  13.941
43082SOL    HW131143   1.276  10.362  13.864
43082SOL    HW231144   1.245  10.345  14.011
43083SOL     OW31145   7.070  12.570  14.796
43083SOL    HW131146   7.076  12.523  14.713
43083SOL    HW231147   7.057  12.662  14.771
43084SOL     OW31148   6.259   2.516   0.039
43084SOL    HW131149   6.258   2.529  14.820
43084SOL    HW231150   6.270   2.604   0.076
43085SOL     OW31151   2.832   8.094   7.512
43085SOL    HW131152   2.795   8.110   7.425
43085SOL    HW231153   2.915   8.142   7.512
43086SOL     OW31154   2.668  14.501  10.243
43086SOL    HW131155   2.639  14.578  10.195
43086SOL    HW231156   2.755  14.481  10.207
43087SOL     OW31157   8.431  12.546   2.383
43087SOL    HW131158   8.481  12.475   2.423
43087SOL    HW231159   8.461  12.625   2.428
43088SOL     OW31160  13.178   0.236  13.624
43088SOL    HW131161  13.182   0.299  13.552
43088SOL    HW231162  13.256   0.182  13.613
43089SOL     OW31163   2.468  10.461  13.142
43089SOL    HW131164   2.505  10.380  13.106
43089SOL    HW231165   2.423  10.433  13.222
43090SOL     OW31166   4.196   5.921   8.788
43090SOL    HW131167   4.178   5.849   8.728
43090SOL    HW231168   4.291   5.920   8.799
43091SOL     OW31169  14.026  14.834   4.154
43091SOL    HW131170  13.994  14.744   4.161
43091SOL    HW231171  14.113  14.832   4.195
43092SOL     OW31172   4.459  10.488   2.443
43092SOL    HW131173   4.493  10.510   2.530
43092SOL    HW231174   4.532  10.442   2.401
43093SOL     OW31175   5.218   8.898   5.305
43093SOL    HW131176   5.292   8.840   5.286
43093SOL    HW231177   5.140   8.844   5.286
43094SOL     OW31178   9.134   0.947   3.338
43094SOL    HW131179   9.123   1.033   3.378
43094SOL    HW231180   9.130   0.886   3.412
43095SOL     OW31181  14.386   1.918   7.724
43095SOL    HW131182  14.387   1.870   7.807
43095SOL    HW231183  14.427   2.002   7.744
43096SOL     OW31184  12.104   3.533   0.750
43096SOL    HW131185  12.081   3.457   0.696
43096SOL    HW231186  12.027   3.589   0.747
43097SOL     OW31187  14.391  10.994  12.072
43097SOL    HW131188  14.377  11.080  12.112
43097SOL    HW231189  14.338  10.996  11.992
43098SOL     OW31190   0.237   8.124   7.981
43098SOL    HW131191   0.150   8.127   7.941
43098SOL    HW231192   0.266   8.034   7.971
43099SOL     OW31193   7.996  14.374   5.362
43099SOL    HW131194   7.997  14.323   5.443
43099SOL    HW231195   8.084  14.365   5.327
43100SOL     OW31196   7.582  10.753   3.508
43100SOL    HW131197   7.648  10.684   3.499
43100SOL    HW231198   7.503  10.714   3.472
43101SOL     OW31199   3.560   1.411  10.035
43101SOL    HW131200   3.567   1.504  10.059
43101SOL    HW231201   3.490   1.409   9.970
43102SOL     OW31202   8.386  10.445  11.071
43102SOL    HW131203   8.297  10.435  11.040
43102SOL    HW231204   8.382  10.423  11.164
43103SOL     OW31205  11.501  13.846   0.980
43103SOL    HW131206  11.428  13.801   0.936
43103SOL    HW231207  11.466  13.932   1.002
43104SOL     OW31208   4.166   7.736   2.352
43104SOL    HW131209   4.114   7.805   2.311
43104SOL    HW231210   4.111   7.703   2.423
43105SOL     OW31211   8.845  11.649  13.556
43105SOL    HW131212   8.766  11.688  13.518
43105SOL    HW231213   8.832  11.554  13.545
43106SOL     OW31214   1.709   1.855   3.972
43106SOL    HW131215   1.623   1.894   3.990
43106SOL    HW231216   1.730   1.807   4.052
43107SOL     OW31217  11.099   0.525   3.640
43107SOL    HW131218  11.098   0.621   3.646
43107SOL    HW231219  11.062   0.506   3.554
43108SOL     OW31220   3.178   1.587   8.344
43108SOL    HW131221   3.237   1.643   8.293
43108SOL    HW231222   3.145   1.644   8.413
43109SOL     OW31223   4.195   1.659   4.498
43109SOL    HW131224   4.197   1.568   4.470
43109SOL    HW231225   4.241   1.707   4.429
43110SOL     OW31226   2.852   2.335   3.808
43110SOL    HW131227   2.797   2.257   3.802
43110SOL    HW231228   2.842   2.378   3.723
43111SOL     OW31229   4.628   9.252   6.111
43111SOL    HW131230   4.560   9.304   6.068
43111SOL    HW231231   4.666   9.311   6.176
43112SOL     OW31232   0.500   8.424   1.329
43112SOL    HW131233   0.540   8.341   1.303
43112SOL    HW231234   0.531   8.488   1.264
43113SOL     OW31235  11.554   3.878   1.337
43113SOL    HW131236  11.539   3.784   1.341
43113SOL    HW231237  11.481   3.913   1.286
43114SOL     OW31238  11.709   7.420   7.378
43114SOL    HW131239  11.675   7.470   7.304
43114SOL    HW231240  11.651   7.344   7.384
43115SOL     OW31241   4.443   1.070   8.752
43115SOL    HW131242   4.508   1.012   8.713
43115SOL    HW231243   4.394   1.106   8.678
43116SOL     OW31244  12.773   4.369  10.452
43116SOL    HW131245  12.741   4.437  10.393
43116SOL    HW231246  12.758   4.287  10.405
43117SOL     OW31247   4.529   2.739   5.597
43117SOL    HW131248   4.571   2.724   5.512
43117SOL    HW231249   4.596   2.784   5.649
43118SOL     OW31250   4.654   8.115   0.772
43118SOL    HW131251   4.626   8.147   0.858
43118SOL    HW231252   4.690   8.192   0.728
43119SOL     OW31253   3.021   6.188  14.846
43119SOL    HW131254   2.934   6.221  14.822
43119SOL    HW231255   3.008   6.093  14.858
43120SOL     OW31256  13.361  14.759   4.787
43120SOL    HW131257  13.354  14.666   4.810
43120SOL    HW231258  13.455  14.778   4.795
43121SOL     OW31259  12.735   7.296   7.977
43121SOL    HW131260  12.731   7.266   8.068
43121SOL    HW231261  12.825   7.277   7.950
43122SOL     OW31262   4.834  13.509  10.696
43122SOL    HW131263   4.887  13.430  10.682
43122SOL    HW231264   4.765  13.503  10.630
43123SOL     OW31265   4.515   3.123   4.062
43123SOL    HW131266   4.494   3.048   4.118
43123SOL    HW231267   4.571   3.179   4.115
43124SOL     OW31268   7.712  11.604  13.908
43124SOL    HW131269   7.755  11.527  13.947
43124SOL    HW231270   7.674  11.650  13.983
43125SOL     OW31271   8.619  14.300   3.967
43125SOL    HW131272   8.590  14.214   3.936
43125SOL    HW231273   8.572  14.314   4.049
43126SOL     OW31274  11.024  14.839   7.472
43126SOL    HW131275  11.047  14.860   7.562
43126SOL    HW231276  11.019  14.744   7.470
43127SOL     OW31277   9.588   2.290  12.999
43127SOL    HW131278   9.547   2.335  12.926
43127SOL    HW231279   9.515   2.270  13.059
43128SOL     OW31280   0.227   6.195   5.106
43128SOL    HW131281   0.268   6.156   5.183
43128SOL    HW231282   0.230   6.126   5.040
43129SOL     OW31283  11.736   5.099   6.974
43129SOL    HW131284  11.706   5.162   7.039
43129SOL    HW231285  11.757   5.152   6.896
43130SOL     OW31286   7.456   2.173  11.955
43130SOL    HW131287   7.540   2.192  11.996
43130SOL    HW231288   7.454   2.228  11.877
43131SOL     OW31289   7.553  11.201   6.760
43131SOL    HW131290   7.469  11.182   6.718
43131SOL    HW231291   7.615  11.141   6.717
43132SOL     OW31292  11.050  13.177  11.246
43132SOL    HW131293  11.023  13.120  11.317
43132SOL    HW231294  11.140  13.202  11.268
43133SOL     OW31295   9.790   2.353   7.649
43133SOL    HW131296   9.756   2.344   7.738
43133SOL    HW231297   9.748   2.432   7.615
43134SOL     OW31298  10.473   6.018   2.739
43134SOL    HW131299  10.488   5.932   2.698
43134SOL    HW231300  10.416   5.999   2.813
43135SOL     OW31301  14.791  14.197  13.031
43135SOL    HW131302  14.739  14.182  12.953
43135SOL    HW231303   0.004  14.167  13.007
43136SOL     OW31304  11.577  11.710   9.142
43136SOL    HW131305  11.627  11.792   9.142
43136SOL    HW231306  11.512  11.720   9.073
43137SOL     OW31307   5.376   8.684  14.228
43137SOL    HW131308   5.310   8.746  14.198
43137SOL    HW231309   5.380   8.618  14.159
43138SOL     OW31310   5.046  14.487   5.108
43138SOL    HW131311   5.120  14.505   5.166
43138SOL    HW231312   5.015  14.573   5.081
43139SOL     OW31313   7.442   6.098  14.578
43139SOL    HW131314   7.419   6.158  14.649
43139SOL    HW231315   7.516   6.139  14.534
43140SOL     OW31316   8.233   8.900  14.337
43140SOL    HW131317   8.301   8.870  14.277
43140SOL    HW231318   8.278   8.906  14.422
43141SOL     OW31319   9.689  11.732   8.773
43141SOL    HW131320   9.599  11.715   8.801
43141SOL    HW231321   9.743  11.694   8.842
43142SOL     OW31322   0.747   6.446   2.579
43142SOL    HW131323   0.723   6.421   2.490
43142SOL    HW231324   0.673   6.418   2.632
43143SOL     OW31325   8.685  10.215  11.132
43143SOL    HW131326   8.772  10.193  11.099
43143SOL    HW231327   8.628  10.214  11.055
43144SOL     OW31328   4.777   8.489  14.322
43144SOL    HW131329   4.700   8.487  14.379
43144SOL    HW231330   4.755   8.552  14.254
43145SOL     OW31331   0.564   9.304   0.116
43145SOL    HW131332   0.499   9.344   0.174
43145SOL    HW231333   0.535   9.213   0.109
43146SOL     OW31334  13.961   6.998   3.459
43146SOL    HW131335  13.939   7.081   3.418
43146SOL    HW231336  13.902   6.934   3.418
43147SOL     OW31337   7.426   9.009   9.873
43147SOL    HW131338   7.454   9.069   9.941
43147SOL    HW231339   7.445   9.055   9.791
43148SOL     OW31340   3.466   0.355  13.507
43148SOL    HW131341   3.405   0.282  13.505
43148SOL    HW231342   3.436   0.414  13.437
43149SOL     OW31343  11.108   4.811   3.706
43149SOL    HW131344  11.161   4.877   3.751
43149SOL    HW231345  11.154   4.729   3.723
43150SOL     OW31346   7.224   1.801   2.650
43150SOL    HW131347   7.243   1.858   2.575
43150SOL    HW231348   7.306   1.797   2.698
43151SOL     OW31349   9.174   5.469  14.011
43151SOL    HW131350   9.210   5.547  14.052
43151SOL    HW231351   9.184   5.400  14.077
43152SOL     OW31352   8.372  10.137   2.025
43152SOL    HW131353   8.288  10.174   2.052
43152SOL    HW231354   8.436  10.207   2.038
43153SOL     OW31355   2.163   2.737   6.318
43153SOL    HW131356   2.078   2.771   6.289
43153SOL    HW231357   2.178   2.661   6.262
43154SOL     OW31358  12.579   7.432   3.272
43154SOL    HW131359  12.506   7.372   3.282
43154SOL    HW231360  12.543   7.508   3.226
43155SOL     OW31361  13.386  10.113   6.623
43155SOL    HW131362  13.367  10.022   6.599
43155SOL    HW231363  13.367  10.116   6.717
43156SOL     OW31364   9.198   7.359   6.323
43156SOL    HW131365   9.166   7.374   6.412
43156SOL    HW231366   9.161   7.274   6.299
43157SOL     OW31367   1.441   7.967   5.800
43157SOL    HW131368   1.467   7.969   5.708
43157SOL    HW231369   1.475   8.049   5.837
43158SOL     OW31370   8.184  13.270   0.957
43158SOL    HW131371   8.157  13.251   0.867
43158SOL    HW231372   8.277  13.248   0.960
43159SOL     OW31373   4.984   0.230   6.670
43159SOL    HW131374   4.890   0.226   6.654
43159SOL    HW231375   4.993   0.287   6.747
43160SOL     OW31376  10.338   0.518   5.178
43160SOL    HW131377  10.356   0.545   5.088
43160SOL    HW231378  10.249   0.485   5.176
43161SOL     OW31379   9.635  12.483  12.960
43161SOL    HW131380   9.665  12.477  13.051
43161SOL    HW231381   9.590  12.567  12.956
43162SOL     OW31382  10.910   1.609   0.572
43162SOL    HW131383  10.916   1.656   0.489
43162SOL    HW231384  10.889   1.677   0.636
43163SOL     OW31385   6.508   9.362   2.120
43163SOL    HW131386   6.473   9.337   2.035
43163SOL    HW231387   6.462   9.443   2.142
43164SOL     OW31388  12.604   9.030  12.186
43164SOL    HW131389  12.593   8.994  12.274
43164SOL    HW231390  12.569   9.119  12.192
43165SOL     OW31391  14.000   9.970  12.591
43165SOL    HW131392  14.002   9.897  12.529
43165SOL    HW231393  13.966  10.043  12.540
43166SOL     OW31394   3.928  14.056   0.869
43166SOL    HW131395   3.995  14.105   0.917
43166SOL    HW231396   3.880  14.007   0.936
43167SOL     OW31397   9.876   0.534  12.404
43167SOL    HW131398   9.835   0.478  12.337
43167SOL    HW231399   9.969   0.534  12.381
43168SOL     OW31400   8.422  10.685  14.527
43168SOL    HW131401   8.377  10.658  14.607
43168SOL    HW231402   8.401  10.778  14.518
43169SOL     OW31403  13.841   9.793  11.508
43169SOL    HW131404  13.838   9.824  11.418
43169SOL    HW231405  13.913   9.729  11.509
43170SOL     OW31406  12.537   8.607   9.713
43170SOL    HW131407  12.581   8.595   9.630
43170SOL    HW231408  12.550   8.524   9.760
43171SOL     OW31409  14.343   6.310  14.812
43171SOL    HW131410  14.346   6.369  14.737
43171SOL    HW231411  14.306   6.229  14.777
43172SOL     OW31412   8.120   3.115   9.425
43172SOL    HW131413   8.187   3.183   9.427
43172SOL    HW231414   8.038   3.162   9.409
43173SOL     OW31415  13.479  14.855   1.504
43173SOL    HW131416  13.504   0.006   1.593
43173SOL    HW231417  13.518  14.768   1.493
43174SOL     OW31418   9.993   3.794   3.864
43174SOL    HW131419  10.048   3.726   3.904
43174SOL    HW231420  10.037   3.815   3.782
43175SOL     OW31421  11.985   9.392   3.844
43175SOL    HW131422  11.931   9.470   3.834
43175SOL    HW231423  11.929   9.328   3.889
43176SOL     OW31424   0.665   7.107   2.442
43176SOL    HW131425   0.619   7.189   2.458
43176SOL    HW231426   0.705   7.119   2.356
43177SOL     OW31427   7.805  13.015   7.731
43177SOL    HW131428   7.794  13.038   7.823
43177SOL    HW231429   7.717  12.998   7.699
43178SOL     OW31430   1.561   8.674  11.569
43178SOL    HW131431   1.532   8.612  11.637
43178SOL    HW231432   1.495   8.665  11.500
43179SOL     OW31433  14.095   8.307   0.465
43179SOL    HW131434  14.004   8.314   0.437
43179SOL    HW231435  14.090   8.268   0.553
43180SOL     OW31436  13.795   2.534   3.091
43180SOL    HW131437  13.869   2.480   3.065
43180SOL    HW231438  13.718   2.479   3.074
43181SOL     OW31439  13.961   0.771  11.846
43181SOL    HW131440  13.911   0.842  11.885
43181SOL    HW231441  14.052   0.802  11.848
43182SOL     OW31442  10.620   8.927   9.161
43182SOL    HW131443  10.678   8.876   9.104
43182SOL    HW231444  10.631   9.017   9.133
43183SOL     OW31445   7.761   6.049   2.556
43183SOL    HW131446   7.680   6.056   2.606
43183SOL    HW231447   7.733   6.016   2.470
43184SOL     OW31448   6.943   5.953  10.663
43184SOL    HW131449   7.034   5.965  10.636
43184SOL    HW231450   6.946   5.955  10.759
43185SOL     OW31451   7.412   9.923   8.751
43185SOL    HW131452   7.485   9.970   8.710
43185SOL    HW231453   7.417   9.835   8.712
43186SOL     OW31454   1.330   7.430   9.397
43186SOL    HW131455   1.401   7.492   9.416
43186SOL    HW231456   1.352   7.395   9.310
43187SOL     OW31457   0.948   2.641   2.149
43187SOL    HW131458   1.011   2.599   2.091
43187SOL    HW231459   0.969   2.734   2.146
43188SOL     OW31460  13.744   0.334  13.777
43188SOL    HW131461  13.686   0.288  13.838
43188SOL    HW231462  13.686   0.395  13.731
43189SOL     OW31463  12.075   5.611   0.958
43189SOL    HW131464  12.112   5.631   0.873
43189SOL    HW231465  12.058   5.696   0.998
43190SOL     OW31466   2.809   0.229   2.296
43190SOL    HW131467   2.851   0.150   2.330
43190SOL    HW231468   2.726   0.199   2.259
43191SOL     OW31469  11.949   1.124  13.704
43191SOL    HW131470  11.942   1.148  13.796
43191SOL    HW231471  11.869   1.074  13.686
43192SOL     OW31472   9.688   7.272   0.169
43192SOL    HW131473   9.643   7.315   0.241
43192SOL    HW231474   9.668   7.179   0.181
43193SOL     OW31475   0.529  13.699  12.692
43193SOL    HW131476   0.576  13.771  12.736
43193SOL    HW231477   0.442  13.735  12.676
43194SOL     OW31478  10.912   2.337   1.273
43194SOL    HW131479  10.829   2.290   1.280
43194SOL    HW231480  10.919   2.384   1.357
43195SOL     OW31481   0.776   2.058   8.883
43195SOL    HW131482   0.717   1.989   8.915
43195SOL    HW231483   0.789   2.038   8.791
43196SOL     OW31484   1.324   8.912   4.409
43196SOL    HW131485   1.375   8.990   4.391
43196SOL    HW231486   1.382   8.856   4.461
43197SOL     OW31487   8.720   6.804  14.386
43197SOL    HW131488   8.653   6.764  14.331
43197SOL    HW231489   8.677   6.881  14.423
43198SOL     OW31490   6.388   4.704   2.579
43198SOL    HW131491   6.388   4.798   2.563
43198SOL    HW231492   6.356   4.694   2.669
43199SOL     OW31493   6.596  14.750   5.915
43199SOL    HW131494   6.682  14.707   5.912
43199SOL    HW231495   6.615  14.843   5.908
43200SOL     OW31496   6.154   8.715   5.548
43200SOL    HW131497   6.207   8.640   5.576
43200SOL    HW231498   6.142   8.702   5.454
43201SOL     OW31499   7.783  14.749   2.564
43201SOL    HW131500   7.862  14.801   2.550
43201SOL    HW231501   7.744  14.787   2.642
43202SOL     OW31502  11.034  11.500   5.181
43202SOL    HW131503  10.951  11.468   5.217
43202SOL    HW231504  11.008  11.554   5.106
43203SOL     OW31505   4.370   9.075   7.428
43203SOL    HW131506   4.350   9.068   7.335
43203SOL    HW231507   4.394   9.166   7.441
43204SOL     OW31508   0.590   8.739  14.189
43204SOL    HW131509   0.631   8.653  14.191
43204SOL    HW231510   0.508   8.725  14.142
43205SOL     OW31511   7.137  10.500   8.914
43205SOL    HW131512   7.213  10.468   8.864
43205SOL    HW231513   7.149  10.595   8.918
43206SOL     OW31514   5.584   1.838   3.731
43206SOL    HW131515   5.519   1.892   3.776
43206SOL    HW231516   5.571   1.858   3.638
43207SOL     OW31517   3.846   3.002   5.903
43207SOL    HW131518   3.864   2.986   5.995
43207SOL    HW231519   3.875   2.923   5.858
43208SOL     OW31520  13.085  13.162   2.300
43208SOL    HW131521  13.087  13.192   2.390
43208SOL    HW231522  13.130  13.077   2.302
43209SOL     OW31523  13.829  13.391   0.302
43209SOL    HW131524  13.733  13.395   0.298
43209SOL    HW231525  13.850  13.406   0.394
43210SOL     OW31526   3.139   0.111   9.309
43210SOL    HW131527   3.135   0.112   9.213
43210SOL    HW231528   3.068   0.052   9.335
43211SOL     OW31529  11.776   1.637   4.537
43211SOL    HW131530  11.723   1.599   4.467
43211SOL    HW231531  11.720   1.635   4.614
43212SOL     OW31532   9.977  11.387  13.482
43212SOL    HW131533  10.013  11.475  13.495
43212SOL    HW231534  10.008  11.337  13.557
43213SOL     OW31535   7.643   2.631   7.427
43213SOL    HW131536   7.599   2.553   7.392
43213SOL    HW231537   7.694   2.599   7.501
43214SOL     OW31538   1.877  10.828   6.701
43214SOL    HW131539   1.839  10.873   6.626
43214SOL    HW231540   1.948  10.885   6.731
43215SOL     OW31541   4.899   0.616   7.649
43215SOL    HW131542   4.952   0.694   7.666
43215SOL    HW231543   4.819   0.650   7.610
43216SOL     OW31544   9.763   9.718   6.032
43216SOL    HW131545   9.776   9.629   6.065
43216SOL    HW231546   9.688   9.751   6.081
43217SOL     OW31547  11.134   7.367  12.062
43217SOL    HW131548  11.100   7.331  11.980
43217SOL    HW231549  11.159   7.457  12.041
43218SOL     OW31550   1.824   7.533  11.557
43218SOL    HW131551   1.767   7.456  11.555
43218SOL    HW231552   1.906   7.503  11.518
43219SOL     OW31553   8.490  14.365   2.379
43219SOL    HW131554   8.568  14.341   2.329
43219SOL    HW231555   8.516  14.442   2.429
43220SOL     OW31556   3.301   1.416   2.687
43220SOL    HW131557   3.337   1.486   2.633
43220SOL    HW231558   3.267   1.459   2.765
43221SOL     OW31559   7.320   3.687  14.629
43221SOL    HW131560   7.336   3.627  14.556
43221SOL    HW231561   7.386   3.663  14.695
43222SOL     OW31562   1.408  10.752   3.319
43222SOL    HW131563   1.373  10.840   3.331
43222SOL    HW231564   1.501  10.761   3.338
43223SOL     OW31565  11.260   4.834   7.411
43223SOL    HW131566  11.274   4.785   7.330
43223SOL    HW231567  11.165   4.840   7.420
43224SOL     OW31568  12.785  11.047   0.587
43224SOL    HW131569  12.834  10.985   0.532
43224SOL    HW231570  12.697  11.010   0.592
43225SOL     OW31571   8.192   7.382   4.551
43225SOL    HW131572   8.237   7.457   4.589
43225SOL    HW231573   8.244   7.307   4.578
43226SOL     OW31574  12.551   7.831  14.459
43226SOL    HW131575  12.591   7.756  14.503
43226SOL    HW231576  12.533   7.801  14.370
43227SOL     OW31577   9.314   6.634   4.924
43227SOL    HW131578   9.273   6.624   5.010
43227SOL    HW231579   9.386   6.695   4.938
43228SOL     OW31580   9.108  10.879  13.598
43228SOL    HW131581   9.136  10.793  13.566
43228SOL    HW231582   9.126  10.877  13.692
43229SOL     OW31583   6.751   0.504   0.879
43229SOL    HW131584   6.689   0.522   0.949
43229SOL    HW231585   6.700   0.459   0.812
43230SOL     OW31586   5.048   5.350  11.025
43230SOL    HW131587   5.005   5.272  11.061
43230SOL    HW231588   4.998   5.423  11.063
43231SOL     OW31589   7.469   8.614   4.792
43231SOL    HW131590   7.551   8.644   4.830
43231SOL    HW231591   7.412   8.690   4.793
43232SOL     OW31592  13.297   5.091   2.795
43232SOL    HW131593  13.330   5.008   2.760
43232SOL    HW231594  13.303   5.081   2.890
43233SOL     OW31595  10.419   9.011  14.172
43233SOL    HW131596  10.472   8.979  14.245
43233SOL    HW231597  10.329   8.997  14.199
43234SOL     OW31598   4.627   2.808  13.789
43234SOL    HW131599   4.688   2.772  13.725
43234SOL    HW231600   4.541   2.781  13.759
43235SOL     OW31601   6.120  12.532  14.795
43235SOL    HW131602   6.043  12.588  14.810
43235SOL    HW231603   6.180  12.554  14.866
43236SOL     OW31604   3.274  14.065  12.761
43236SOL    HW131605   3.263  13.970  12.757
43236SOL    HW231606   3.188  14.098  12.786
43237SOL     OW31607  10.044   1.816  12.853
43237SOL    HW131608   9.999   1.768  12.784
43237SOL    HW231609  10.021   1.908  12.837
43238SOL     OW31610   8.807   7.400   7.266
43238SOL    HW131611   8.715   7.376   7.256
43238SOL    HW231612   8.850   7.319   7.294
43239SOL     OW31613  12.205   6.465   3.743
43239SOL    HW131614  12.172   6.383   3.780
43239SOL    HW231615  12.274   6.438   3.683
43240SOL     OW31616   2.376   4.883   0.896
43240SOL    HW131617   2.402   4.937   0.822
43240SOL    HW231618   2.435   4.808   0.894
43241SOL     OW31619  12.195   9.286   9.599
43241SOL    HW131620  12.231   9.347   9.664
43241SOL    HW231621  12.264   9.221   9.585
43242SOL     OW31622   4.642   2.309   1.880
43242SOL    HW131623   4.706   2.375   1.905
43242SOL    HW231624   4.658   2.236   1.940
43243SOL     OW31625  14.360   4.242   9.864
43243SOL    HW131626  14.274   4.278   9.842
43243SOL    HW231627  14.409   4.318   9.895
43244SOL     OW31628   5.854   6.063  14.658
43244SOL    HW131629   5.772   6.016  14.670
43244SOL    HW231630   5.868   6.063  14.563
43245SOL     OW31631  12.316  10.780  13.188
43245SOL    HW131632  12.246  10.722  13.158
43245SOL    HW231633  12.390  10.761  13.131
43246SOL     OW31634   2.290   7.462   0.138
43246SOL    HW131635   2.335   7.530   0.187
43246SOL    HW231636   2.239   7.414   0.204
43247SOL     OW31637  12.660   6.710   5.318
43247SOL    HW131638  12.679   6.703   5.225
43247SOL    HW231639  12.570   6.677   5.327
43248SOL     OW31640  10.749   5.250   8.495
43248SOL    HW131641  10.689   5.324   8.486
43248SOL    HW231642  10.722   5.190   8.425
43249SOL     OW31643   6.103   2.528  12.063
43249SOL    HW131644   6.081   2.509  12.154
43249SOL    HW231645   6.197   2.548  12.065
43250SOL     OW31646  10.365   6.582  12.199
43250SOL    HW131647  10.300   6.652  12.204
43250SOL    HW231648  10.322   6.506  12.237
43251SOL     OW31649   2.129   9.918  14.676
43251SOL    HW131650   2.204   9.887  14.625
43251SOL    HW231651   2.142  10.012  14.683
43252SOL     OW31652  12.559   7.277   8.537
43252SOL    HW131653  12.623   7.207   8.536
43252SOL    HW231654  12.552   7.303   8.629
43253SOL     OW31655   4.075   7.357   6.599
43253SOL    HW131656   4.083   7.452   6.600
43253SOL    HW231657   3.988   7.340   6.563
43254SOL     OW31658   5.638  12.918   3.000
43254SOL    HW131659   5.623  12.904   3.093
43254SOL    HW231660   5.604  12.840   2.958
43255SOL     OW31661   2.583  10.997   8.381
43255SOL    HW131662   2.569  11.060   8.452
43255SOL    HW231663   2.675  10.974   8.387
43256SOL     OW31664  13.577   6.262   3.203
43256SOL    HW131665  13.648   6.212   3.243
43256SOL    HW231666  13.498   6.232   3.250
43257SOL     OW31667  14.594   7.244   5.634
43257SOL    HW131668  14.533   7.187   5.586
43257SOL    HW231669  14.666   7.186   5.659
43258SOL     OW31670   9.771   2.972   2.252
43258SOL    HW131671   9.718   2.897   2.278
43258SOL    HW231672   9.854   2.933   2.224
43259SOL     OW31673  11.617   8.645  12.866
43259SOL    HW131674  11.646   8.554  12.859
43259SOL    HW231675  11.559   8.658  12.791
43260SOL     OW31676   3.010   7.937   1.724
43260SOL    HW131677   3.025   7.939   1.629
43260SOL    HW231678   3.056   7.859   1.754
43261SOL     OW31679  10.964   0.036   5.432
43261SOL    HW131680  11.008   0.120   5.419
43261SOL    HW231681  10.884   0.058   5.479
43262SOL     OW31682  13.965   3.724   0.377
43262SOL    HW131683  14.029   3.794   0.394
43262SOL    HW231684  14.005   3.646   0.416
43263SOL     OW31685   8.660   6.686  12.233
43263SOL    HW131686   8.686   6.778  12.234
43263SOL    HW231687   8.742   6.638  12.224
43264SOL     OW31688   4.252   5.405  10.576
43264SOL    HW131689   4.264   5.310  10.584
43264SOL    HW231690   4.310   5.432  10.505
43265SOL     OW31691   3.541   5.767   2.027
43265SOL    HW131692   3.544   5.785   1.933
43265SOL    HW231693   3.608   5.824   2.065
43266SOL     OW31694   8.684  11.568   8.774
43266SOL    HW131695   8.684  11.473   8.780
43266SOL    HW231696   8.714  11.598   8.860
43267SOL     OW31697  13.592  12.546   3.965
43267SOL    HW131698  13.592  12.501   3.881
43267SOL    HW231699  13.685  12.566   3.981
43268SOL     OW31700  11.644   2.087  12.213
43268SOL    HW131701  11.708   2.061  12.278
43268SOL    HW231702  11.602   2.006  12.185
43269SOL     OW31703  10.205  13.738   5.227
43269SOL    HW131704  10.130  13.708   5.175
43269SOL    HW231705  10.281  13.699   5.184
43270SOL     OW31706  14.723  13.186   4.712
43270SOL    HW131707  14.701  13.133   4.635
43270SOL    HW231708  14.639  13.208   4.751
43271SOL     OW31709  13.985   1.863   2.130
43271SOL    HW131710  13.905   1.816   2.155
43271SOL    HW231711  14.009   1.912   2.208
43272SOL     OW31712   5.589  10.602   0.918
43272SOL    HW131713   5.541  10.562   0.990
43272SOL    HW231714   5.601  10.694   0.944
43273SOL     OW31715   4.891  12.608   1.591
43273SOL    HW131716   4.816  12.666   1.606
43273SOL    HW231717   4.859  12.543   1.529
43274SOL     OW31718   1.854   0.352   4.762
43274SOL    HW131719   1.820   0.401   4.837
43274SOL    HW231720   1.944   0.331   4.785
43275SOL     OW31721  12.341  10.089   8.729
43275SOL    HW131722  12.421  10.045   8.756
43275SOL    HW231723  12.352  10.179   8.760
43276SOL     OW31724  11.370   5.335   8.048
43276SOL    HW131725  11.348   5.317   7.956
43276SOL    HW231726  11.413   5.255   8.078
43277SOL     OW31727   5.118  12.511  14.368
43277SOL    HW131728   5.151  12.596  14.396
43277SOL    HW231729   5.107  12.520  14.273
43278SOL     OW31730   9.622   7.559  13.560
43278SOL    HW131731   9.590   7.600  13.641
43278SOL    HW231732   9.544   7.553  13.505
43279SOL     OW31733  10.575  13.129   6.679
43279SOL    HW131734  10.568  13.116   6.774
43279SOL    HW231735  10.485  13.145   6.651
43280SOL     OW31736   3.487   4.814   8.004
43280SOL    HW131737   3.506   4.771   7.920
43280SOL    HW231738   3.471   4.905   7.981
43281SOL     OW31739   3.825   6.484  10.377
43281SOL    HW131740   3.754   6.433  10.337
43281SOL    HW231741   3.878   6.419  10.423
43282SOL     OW31742   9.195   7.524   8.943
43282SOL    HW131743   9.130   7.466   8.982
43282SOL    HW231744   9.180   7.609   8.985
43283SOL     OW31745   1.018  11.307   6.867
43283SOL    HW131746   0.985  11.396   6.851
43283SOL    HW231747   1.072  11.288   6.791
43284SOL     OW31748   3.351  13.393  14.565
43284SOL    HW131749   3.397  13.456  14.620
43284SOL    HW231750   3.420  13.338  14.528
43285SOL     OW31751  12.829  13.973   0.675
43285SOL    HW131752  12.888  14.002   0.605
43285SOL    HW231753  12.745  13.960   0.631
43286SOL     OW31754   0.982  11.836   2.466
43286SOL    HW131755   0.895  11.865   2.496
43286SOL    HW231756   0.969  11.811   2.375
43287SOL     OW31757   4.882   2.857   6.626
43287SOL    HW131758   4.803   2.835   6.676
43287SOL    HW231759   4.851   2.920   6.560
43288SOL     OW31760   2.140  13.259   3.283
43288SOL    HW131761   2.168  13.345   3.251
43288SOL    HW231762   2.220  13.206   3.281
43289SOL     OW31763   6.990  14.482   8.151
43289SOL    HW131764   6.948  14.554   8.197
43289SOL    HW231765   6.918  14.426   8.123
43290SOL     OW31766   1.545   5.177   5.232
43290SOL    HW131767   1.618   5.189   5.172
43290SOL    HW231768   1.535   5.082   5.238
43291SOL     OW31769   4.578   7.118  10.441
43291SOL    HW131770   4.558   7.047  10.502
43291SOL    HW231771   4.517   7.107  10.369
43292SOL     OW31772   3.388   9.145   4.067
43292SOL    HW131773   3.304   9.170   4.106
43292SOL    HW231774   3.398   9.202   3.991
43293SOL     OW31775  11.706   0.797  14.200
43293SOL    HW131776  11.679   0.791  14.291
43293SOL    HW231777  11.627   0.778  14.149
43294SOL     OW31778   2.861   0.009   8.933
43294SOL    HW131779   2.816  14.799   8.929
43294SOL    HW231780   2.792   0.074   8.922
43295SOL     OW31781   6.147   4.617  10.802
43295SOL    HW131782   6.186   4.697  10.837
43295SOL    HW231783   6.055   4.621  10.830
43296SOL     OW31784   6.890   4.806   2.274
43296SOL    HW131785   6.804   4.823   2.312
43296SOL    HW231786   6.919   4.726   2.317
43297SOL     OW31787   0.584  13.021  14.312
43297SOL    HW131788   0.664  13.045  14.265
43297SOL    HW231789   0.550  12.945  14.264
43298SOL     OW31790  10.233   0.589   1.139
43298SOL    HW131791  10.140   0.584   1.161
43298SOL    HW231792  10.262   0.498   1.135
43299SOL     OW31793   6.436  13.707   1.366
43299SOL    HW131794   6.392  13.775   1.417
43299SOL    HW231795   6.413  13.727   1.275
43300SOL     OW31796   6.871  11.612   2.925
43300SOL    HW131797   6.781  11.646   2.922
43300SOL    HW231798   6.921  11.669   2.866
43301SOL     OW31799   3.767   9.793   0.877
43301SOL    HW131800   3.691   9.840   0.911
43301SOL    HW231801   3.786   9.834   0.793
43302SOL     OW31802   5.797  14.090   1.428
43302SOL    HW131803   5.742  14.095   1.506
43302SOL    HW231804   5.761  14.156   1.369
43303SOL     OW31805   4.359   9.568   0.539
43303SOL    HW131806   4.369   9.663   0.538
43303SOL    HW231807   4.365   9.544   0.631
43304SOL     OW31808   6.928   2.666   2.283
43304SOL    HW131809   7.010   2.619   2.267
43304SOL    HW231810   6.948   2.727   2.353
43305SOL     OW31811   8.594  11.610   1.268
43305SOL    HW131812   8.557  11.556   1.198
43305SOL    HW231813   8.654  11.669   1.222
43306SOL     OW31814   8.738   0.317   9.240
43306SOL    HW131815   8.715   0.340   9.150
43306SOL    HW231816   8.808   0.252   9.231
43307SOL     OW31817  10.360  12.690  10.775
43307SOL    HW131818  10.338  12.773  10.731
43307SOL    HW231819  10.387  12.632  10.704
43308SOL     OW31820  12.252  11.296   8.377
43308SOL    HW131821  12.267  11.209   8.340
43308SOL    HW231822  12.204  11.279   8.458
43309SOL     OW31823   3.149   5.525   0.966
43309SOL    HW131824   3.137   5.620   0.961
43309SOL    HW231825   3.206   5.512   1.041
43310SOL     OW31826   4.006  11.848  10.754
43310SOL    HW131827   4.038  11.812  10.836
43310SOL    HW231828   4.086  11.873  10.706
43311SOL     OW31829   6.563  11.714   3.280
43311SOL    HW131830   6.647  11.706   3.325
43311SOL    HW231831   6.560  11.638   3.222
43312SOL     OW31832  12.527  10.712   4.594
43312SOL    HW131833  12.503  10.761   4.516
43312SOL    HW231834  12.447  10.666   4.619
43313SOL     OW31835   8.067  13.347   5.496
43313SOL    HW131836   8.045  13.257   5.521
43313SOL    HW231837   8.104  13.339   5.408
43314SOL     OW31838   4.824  10.263  14.437
43314SOL    HW131839   4.826  10.216  14.520
43314SOL    HW231840   4.747  10.228  14.391
43315SOL     OW31841   0.255   6.778  12.219
43315SOL    HW131842   0.178   6.743  12.174
43315SOL    HW231843   0.219   6.832  12.290
43316SOL     OW31844   3.482  14.253   9.512
43316SOL    HW131845   3.543  14.191   9.471
43316SOL    HW231846   3.538  14.309   9.567
43317SOL     OW31847   9.093   0.255   6.904
43317SOL    HW131848   9.139   0.278   6.823
43317SOL    HW231849   9.045   0.175   6.883
43318SOL     OW31850  14.409   0.659   4.046
43318SOL    HW131851  14.473   0.648   3.976
43318SOL    HW231852  14.425   0.586   4.106
43319SOL     OW31853  12.034   3.212  12.316
43319SOL    HW131854  12.108   3.170  12.273
43319SOL    HW231855  11.984   3.140  12.354
43320SOL     OW31856   6.066   9.985   4.703
43320SOL    HW131857   6.140   9.992   4.764
43320SOL    HW231858   6.051  10.075   4.674
43321SOL     OW31859   4.138   2.900  11.295
43321SOL    HW131860   4.165   2.876  11.384
43321SOL    HW231861   4.067   2.963  11.308
43322SOL     OW31862  12.473   1.655   0.869
43322SOL    HW131863  12.459   1.578   0.925
43322SOL    HW231864  12.404   1.716   0.893
43323SOL     OW31865  10.863  14.721   0.196
43323SOL    HW131866  10.885  14.747   0.286
43323SOL    HW231867  10.851  14.626   0.201
43324SOL     OW31868   3.321   4.260  10.387
43324SOL    HW131869   3.384   4.330  10.370
43324SOL    HW231870   3.375   4.185  10.411
43325SOL     OW31871   8.487   9.424   1.078
43325SOL    HW131872   8.579   9.398   1.066
43325SOL    HW231873   8.470   9.484   1.006
43326SOL     OW31874   7.120   7.980  13.586
43326SOL    HW131875   7.145   7.982  13.678
43326SOL    HW231876   7.200   8.004  13.539
43327SOL     OW31877   8.118  10.264  12.996
43327SOL    HW131878   8.184  10.316  12.952
43327SOL    HW231879   8.159  10.238  13.079
43328SOL     OW31880  11.429   0.932   9.122
43328SOL    HW131881  11.347   0.899   9.158
43328SOL    HW231882  11.496   0.901   9.182
43329SOL     OW31883   9.623  12.267   8.907
43329SOL    HW131884   9.554  12.225   8.957
43329SOL    HW231885   9.580  12.297   8.827
43330SOL     OW31886  10.563  13.350   9.951
43330SOL    HW131887  10.567  13.389   9.864
43330SOL    HW231888  10.498  13.280   9.944
43331SOL     OW31889  13.545  13.782   2.122
43331SOL    HW131890  13.616  13.846   2.128
43331SOL    HW231891  13.535  13.767   2.028
43332SOL     OW31892   1.152   4.920  14.838
43332SOL    HW131893   1.070   4.955  14.873
43332SOL    HW231894   1.156   4.954  14.749
43333SOL     OW31895   1.134   7.490   9.079
43333SOL    HW131896   1.203   7.542   9.121
43333SOL    HW231897   1.133   7.408   9.127
43334SOL     OW31898  13.579   8.113   7.014
43334SOL    HW131899  13.508   8.147   7.070
43334SOL    HW231900  13.651   8.175   7.027
43335SOL     OW31901   6.040  13.287   7.697
43335SOL    HW131902   6.099  13.351   7.738
43335SOL    HW231903   5.968  13.278   7.759
43336SOL     OW31904   6.393   2.287  10.114
43336SOL    HW131905   6.403   2.212  10.173
43336SOL    HW231906   6.483   2.309  10.088
43337SOL     OW31907  13.107  10.430  14.066
43337SOL    HW131908  13.148  10.405  13.983
43337SOL    HW231909  13.026  10.475  14.040
43338SOL     OW31910  14.642   7.470  13.368
43338SOL    HW131911  14.693   7.530  13.313
43338SOL    HW231912  14.552   7.483  13.339
43339SOL     OW31913  12.025   5.274  14.470
43339SOL    HW131914  12.046   5.356  14.426
43339SOL    HW231915  12.110   5.236  14.493
43340SOL     OW31916   1.424  14.515   4.831
43340SOL    HW131917   1.394  14.579   4.896
43340SOL    HW231918   1.491  14.464   4.878
43341SOL     OW31919   0.198  14.313   5.996
43341SOL    HW131920   0.110  14.314   5.959
43341SOL    HW231921   0.184  14.317   6.091
43342SOL     OW31922   8.783  11.775   1.163
43342SOL    HW131923   8.857  11.821   1.202
43342SOL    HW231924   8.725  11.845   1.133
43343SOL     OW31925   5.141   6.848   2.592
43343SOL    HW131926   5.217   6.796   2.618
43343SOL    HW231927   5.137   6.836   2.497
43344SOL     OW31928   2.943   7.319   3.218
43344SOL    HW131929   3.005   7.287   3.284
43344SOL    HW231930   2.871   7.256   3.221
43345SOL     OW31931   8.258   6.247  13.730
43345SOL    HW131932   8.335   6.269  13.783
43345SOL    HW231933   8.278   6.161  13.693
43346SOL     OW31934  11.991   4.708   1.751
43346SOL    HW131935  12.025   4.625   1.785
43346SOL    HW231936  11.914   4.726   1.805
43347SOL     OW31937   0.239   1.576   2.711
43347SOL    HW131938   0.148   1.549   2.695
43347SOL    HW231939   0.232   1.643   2.779
43348SOL     OW31940   6.164  12.565   2.038
43348SOL    HW131941   6.080  12.575   2.083
43348SOL    HW231942   6.190  12.655   2.016
43349SOL     OW31943   5.154   2.484  14.575
43349SOL    HW131944   5.140   2.518  14.487
43349SOL    HW231945   5.070   2.447  14.601
43350SOL     OW31946   7.399   9.123   6.669
43350SOL    HW131947   7.332   9.088   6.728
43350SOL    HW231948   7.413   9.052   6.606
43351SOL     OW31949   8.890  14.687  12.559
43351SOL    HW131950   8.870  14.677  12.652
43351SOL    HW231951   8.985  14.701  12.556
43352SOL     OW31952   3.654  12.119   8.637
43352SOL    HW131953   3.643  12.037   8.590
43352SOL    HW231954   3.635  12.098   8.728
43353SOL     OW31955   8.478   5.321   4.789
43353SOL    HW131956   8.514   5.408   4.805
43353SOL    HW231957   8.554   5.266   4.771
43354SOL     OW31958   7.505   1.335   5.730
43354SOL    HW131959   7.512   1.283   5.650
43354SOL    HW231960   7.428   1.391   5.715
43355SOL     OW31961  13.579   7.855  10.236
43355SOL    HW131962  13.653   7.805  10.268
43355SOL    HW231963  13.604   7.946  10.248
43356SOL     OW31964  14.424   0.843   4.448
43356SOL    HW131965  14.500   0.839   4.507
43356SOL    HW231966  14.356   0.794   4.493
43357SOL     OW31967   8.993   9.488   1.885
43357SOL    HW131968   8.987   9.514   1.793
43357SOL    HW231969   8.906   9.453   1.905
43358SOL     OW31970   2.884  11.643   7.654
43358SOL    HW131971   2.826  11.573   7.623
43358SOL    HW231972   2.968  11.627   7.610
43359SOL     OW31973   1.803  13.039   7.373
43359SOL    HW131974   1.825  12.948   7.351
43359SOL    HW231975   1.773  13.036   7.463
43360SOL     OW31976   7.205   2.450   1.943
43360SOL    HW131977   7.203   2.354   1.947
43360SOL    HW231978   7.158   2.477   2.022
43361SOL     OW31979  10.259   0.564   0.247
43361SOL    HW131980  10.173   0.605   0.232
43361SOL    HW231981  10.258   0.486   0.192
43362SOL     OW31982  14.224   7.867  12.004
43362SOL    HW131983  14.130   7.872  12.022
43362SOL    HW231984  14.232   7.797  11.939
43363SOL     OW31985   0.198   1.620  12.484
43363SOL    HW131986   0.110   1.614  12.522
43363SOL    HW231987   0.221   1.529  12.464
43364SOL     OW31988   8.007  12.110   6.577
43364SOL    HW131989   7.987  12.057   6.500
43364SOL    HW231990   7.923  12.119   6.623
43365SOL     OW31991   7.730  11.637   2.563
43365SOL    HW131992   7.668  11.667   2.497
43365SOL    HW231993   7.785  11.713   2.581
43366SOL     OW31994   9.382  13.908   9.261
43366SOL    HW131995   9.343  13.936   9.344
43366SOL    HW231996   9.396  13.988   9.212
43367SOL     OW31997  13.338   7.550   5.935
43367SOL    HW131998  13.408   7.485   5.922
43367SOL    HW231999  13.384   7.634   5.936
43368SOL     OW32000  12.251   0.607   4.697
43368SOL    HW132001  12.347   0.605   4.701
43368SOL    HW232002  12.228   0.693   4.732
43369SOL     OW32003  12.235  10.935   1.976
43369SOL    HW132004  12.157  10.895   2.015
43369SOL    HW232005  12.225  10.921   1.882
43370SOL     OW32006  13.094  12.460  13.566
43370SOL    HW132007  13.133  12.536  13.522
43370SOL    HW232008  13.026  12.429  13.506
43371SOL     OW32009  13.069   6.387   4.174
43371SOL    HW132010  13.002   6.327   4.144
43371SOL    HW232011  13.022   6.466   4.199
43372SOL     OW32012   1.328  11.484   4.834
43372SOL    HW132013   1.344  11.402   4.880
43372SOL    HW232014   1.235  11.483   4.812
43373SOL     OW32015  10.332   9.695   3.976
43373SOL    HW132016  10.359   9.620   4.028
43373SOL    HW232017  10.260   9.734   4.026
43374SOL     OW32018   4.934  10.189   1.120
43374SOL    HW132019   4.976  10.145   1.194
43374SOL    HW232020   4.841  10.195   1.145
43375SOL     OW32021   9.147   1.033  11.357
43375SOL    HW132022   9.106   1.089  11.423
43375SOL    HW232023   9.101   0.950  11.363
43376SOL     OW32024  13.054   1.210   5.573
43376SOL    HW132025  13.006   1.245   5.497
43376SOL    HW232026  13.071   1.286   5.628
43377SOL     OW32027  12.939   6.094   7.141
43377SOL    HW132028  13.017   6.086   7.196
43377SOL    HW232029  12.871   6.124   7.201
43378SOL     OW32030   1.563   0.685   5.643
43378SOL    HW132031   1.636   0.626   5.660
43378SOL    HW232032   1.491   0.626   5.618
43379SOL     OW32033  11.664   5.171   4.770
43379SOL    HW132034  11.616   5.253   4.769
43379SOL    HW232035  11.730   5.181   4.700
43380SOL     OW32036  12.466   6.901  13.729
43380SOL    HW132037  12.426   6.874  13.646
43380SOL    HW232038  12.400   6.955  13.771
43381SOL     OW32039  12.054  13.900   5.446
43381SOL    HW132040  12.064  13.846   5.524
43381SOL    HW232041  12.076  13.988   5.475
43382SOL     OW32042   9.356   0.164   2.739
43382SOL    HW132043   9.326   0.247   2.703
43382SOL    HW232044   9.449   0.177   2.757
43383SOL     OW32045  10.513  11.986   7.318
43383SOL    HW132046  10.607  11.978   7.300
43383SOL    HW232047  10.472  11.920   7.262
43384SOL     OW32048   8.049   1.438  10.363
43384SOL    HW132049   8.052   1.438  10.267
43384SOL    HW232050   8.083   1.525  10.388
43385SOL     OW32051  13.792   6.017   5.770
43385SOL    HW132052  13.815   5.952   5.704
43385SOL    HW232053  13.768   5.966   5.847
43386SOL     OW32054  11.846   9.344   2.836
43386SOL    HW132055  11.939   9.322   2.847
43386SOL    HW232056  11.810   9.339   2.924
43387SOL     OW32057   9.869   9.541  10.942
43387SOL    HW132058   9.789   9.536  10.890
43387SOL    HW232059   9.840   9.531  11.033
43388SOL     OW32060   1.570   2.258  14.862
43388SOL    HW132061   1.574   2.181  14.804
43388SOL    HW232062   1.614   2.327  14.813
43389SOL     OW32063   7.500   2.306  10.246
43389SOL    HW132064   7.557   2.230  10.259
43389SOL    HW232065   7.462   2.292  10.159
43390SOL     OW32066   5.870   8.475  14.749
43390SOL    HW132067   5.803   8.525  14.796
43390SOL    HW232068   5.938   8.539  14.729
43391SOL     OW32069   2.313  14.393   8.210
43391SOL    HW132070   2.323  14.325   8.143
43391SOL    HW232071   2.341  14.351   8.291
43392SOL     OW32072   8.850  10.613   8.752
43392SOL    HW132073   8.767  10.614   8.706
43392SOL    HW232074   8.914  10.586   8.686
43393SOL     OW32075   2.438   9.733   2.034
43393SOL    HW132076   2.498   9.754   2.105
43393SOL    HW232077   2.454   9.800   1.968
43394SOL     OW32078   2.424  14.544  13.279
43394SOL    HW132079   2.426  14.448  13.273
43394SOL    HW232080   2.416  14.562  13.372
43395SOL     OW32081   6.868   8.126   2.071
43395SOL    HW132082   6.868   8.062   2.001
43395SOL    HW232083   6.851   8.210   2.027
43396SOL     OW32084  12.639   8.248  10.888
43396SOL    HW132085  12.549   8.272  10.907
43396SOL    HW232086  12.639   8.153  10.883
43397SOL     OW32087  14.398  12.596   0.263
43397SOL    HW132088  14.431  12.669   0.316
43397SOL    HW232089  14.394  12.632   0.174
43398SOL     OW32090  12.897  11.901  13.424
43398SOL    HW132091  12.860  11.832  13.479
43398SOL    HW232092  12.991  11.901  13.446
43399SOL     OW32093   4.711   6.666   3.549
43399SOL    HW132094   4.639   6.720   3.583
43399SOL    HW232095   4.750   6.719   3.480
43400SOL     OW32096   9.519   3.783   6.726
43400SOL    HW132097   9.459   3.808   6.655
43400SOL    HW232098   9.475   3.811   6.806
43401SOL     OW32099  13.021  14.064  11.633
43401SOL    HW132100  13.015  14.148  11.680
43401SOL    HW232101  13.114  14.047  11.628
43402SOL     OW32102  14.838  10.084   6.593
43402SOL    HW132103  14.814  10.097   6.684
43402SOL    HW232104   0.048  10.041   6.596
43403SOL     OW32105   8.345   9.573   5.268
43403SOL    HW132106   8.254   9.579   5.238
43403SOL    HW232107   8.387   9.515   5.204
43404SOL     OW32108   7.388  10.013  11.347
43404SOL    HW132109   7.410  10.105  11.360
43404SOL    HW232110   7.460   9.979  11.294
43405SOL     OW32111   0.499  10.162   9.980
43405SOL    HW132112   0.520  10.234  10.040
43405SOL    HW232113   0.414  10.131  10.008
43406SOL     OW32114  13.393  14.543  10.872
43406SOL    HW132115  13.473  14.491  10.860
43406SOL    HW232116  13.326  14.496  10.822
43407SOL     OW32117  14.748   9.477   2.297
43407SOL    HW132118  14.671   9.422   2.308
43407SOL    HW232119  14.787   9.448   2.215
43408SOL     OW32120  10.261   1.675  10.986
43408SOL    HW132121  10.288   1.601  10.932
43408SOL    HW232122  10.305   1.750  10.947
43409SOL     OW32123  14.140   1.007   2.871
43409SOL    HW132124  14.058   0.963   2.890
43409SOL    HW232125  14.207   0.939   2.880
43410SOL     OW32126  14.789  14.752   6.232
43410SOL    HW132127  14.801  14.757   6.326
43410SOL    HW232128  14.807  14.660   6.210
43411SOL     OW32129   9.082   3.561   0.665
43411SOL    HW132130   9.044   3.543   0.751
43411SOL    HW232131   9.008   3.550   0.604
43412SOL     OW32132   6.309   3.691  14.461
43412SOL    HW132133   6.326   3.623  14.526
43412SOL    HW232134   6.384   3.688  14.402
43413SOL     OW32135  13.974   1.556   4.525
43413SOL    HW132136  13.956   1.469   4.490
43413SOL    HW232137  14.020   1.601   4.455
43414SOL     OW32138  12.808   0.608   8.882
43414SOL    HW132139  12.833   0.696   8.855
43414SOL    HW232140  12.713   0.611   8.892
43415SOL     OW32141  11.330   2.026  11.316
43415SOL    HW132142  11.238   1.999  11.312
43415SOL    HW232143  11.328   2.121  11.314
43416SOL     OW32144   7.105   3.356   6.674
43416SOL    HW132145   7.186   3.383   6.718
43416SOL    HW232146   7.126   3.270   6.638
43417SOL     OW32147   5.956   7.086  12.158
43417SOL    HW132148   6.019   7.041  12.213
43417SOL    HW232149   5.886   7.113  12.218
43418SOL     OW32150  11.206   4.076  11.204
43418SOL    HW132151  11.210   4.153  11.147
43418SOL    HW232152  11.260   4.010  11.160
43419SOL     OW32153   0.959  13.827   8.492
43419SOL    HW132154   0.889  13.869   8.442
43419SOL    HW232155   1.011  13.780   8.427
43420SOL     OW32156   7.349   3.467   7.092
43420SOL    HW132157   7.321   3.554   7.118
43420SOL    HW232158   7.274   3.410   7.112
43421SOL     OW32159   9.915   7.376  14.587
43421SOL    HW132160   9.856   7.301  14.582
43421SOL    HW232161   9.930   7.400  14.495
43422SOL     OW32162   4.872   1.803   7.521
43422SOL    HW132163   4.822   1.757   7.453
43422SOL    HW232164   4.863   1.895   7.498
43423SOL     OW32165   4.056   1.195   4.990
43423SOL    HW132166   4.125   1.153   4.938
43423SOL    HW232167   4.087   1.285   5.003
43424SOL     OW32168   8.845   8.212  11.899
43424SOL    HW132169   8.863   8.143  11.835
43424SOL    HW232170   8.825   8.289  11.845
43425SOL     OW32171   8.150  11.650   2.256
43425SOL    HW132172   8.071  11.599   2.236
43425SOL    HW232173   8.117  11.726   2.303
43426SOL     OW32174   6.331   1.316  12.252
43426SOL    HW132175   6.257   1.289  12.306
43426SOL    HW232176   6.381   1.375  12.309
43427SOL     OW32177  12.943  11.106  14.210
43427SOL    HW132178  12.988  11.101  14.294
43427SOL    HW232179  12.865  11.051  14.221
43428SOL     OW32180  12.736  12.987  10.444
43428SOL    HW132181  12.700  13.007  10.357
43428SOL    HW232182  12.669  13.017  10.505
43429SOL     OW32183   6.702   5.948   0.258
43429SOL    HW132184   6.657   6.019   0.305
43429SOL    HW232185   6.703   5.977   0.167
43430SOL     OW32186   6.619   6.472   2.622
43430SOL    HW132187   6.537   6.508   2.588
43430SOL    HW232188   6.683   6.543   2.610
43431SOL     OW32189   1.135   8.308  10.780
43431SOL    HW132190   1.225   8.276  10.791
43431SOL    HW232191   1.125   8.375  10.848
43432SOL     OW32192  14.170   9.152   2.267
43432SOL    HW132193  14.254   9.129   2.307
43432SOL    HW232194  14.115   9.074   2.280
43433SOL     OW32195   1.645   7.989  12.648
43433SOL    HW132196   1.691   8.062  12.690
43433SOL    HW232197   1.684   7.911  12.686
43434SOL     OW32198   5.217   9.985   1.907
43434SOL    HW132199   5.302   9.944   1.919
43434SOL    HW232200   5.187   9.955   1.822
43435SOL     OW32201   3.295   8.902  12.825
43435SOL    HW132202   3.266   8.954  12.750
43435SOL    HW232203   3.224   8.911  12.889
43436SOL     OW32204   9.638   4.399  12.247
43436SOL    HW132205   9.682   4.481  12.224
43436SOL    HW232206   9.568   4.425  12.305
43437SOL     OW32207   3.212   9.937  12.846
43437SOL    HW132208   3.259   9.854  12.854
43437SOL    HW232209   3.270  10.001  12.886
43438SOL     OW32210  14.589   5.672  13.430
43438SOL    HW132211  14.570   5.623  13.510
43438SOL    HW232212  14.564   5.762  13.451
43439SOL     OW32213  13.923  10.981   4.660
43439SOL    HW132214  13.831  10.965   4.680
43439SOL    HW232215  13.928  10.977   4.564
43440SOL     OW32216  12.606  11.875  12.918
43440SOL    HW132217  12.650  11.947  12.873
43440SOL    HW232218  12.650  11.797  12.885
43441SOL     OW32219   2.128   1.460   1.956
43441SOL    HW132220   2.103   1.529   2.017
43441SOL    HW232221   2.218   1.439   1.979
43442SOL     OW32222  10.659  10.310   4.553
43442SOL    HW132223  10.735  10.288   4.499
43442SOL    HW232224  10.651  10.405   4.544
43443SOL     OW32225   5.422   2.929   4.446
43443SOL    HW132226   5.464   3.014   4.435
43443SOL    HW232227   5.492   2.866   4.428
43444SOL     OW32228  11.048   5.573   8.615
43444SOL    HW132229  11.003   5.502   8.662
43444SOL    HW232230  11.102   5.615   8.682
43445SOL     OW32231   7.079   9.563   4.287
43445SOL    HW132232   7.175   9.563   4.280
43445SOL    HW232233   7.053   9.473   4.264
43446SOL     OW32234  11.460   7.276  12.651
43446SOL    HW132235  11.438   7.208  12.587
43446SOL    HW232236  11.434   7.358  12.610
43447SOL     OW32237   2.356   9.561  11.728
43447SOL    HW132238   2.298   9.517  11.665
43447SOL    HW232239   2.348   9.509  11.808
43448SOL     OW32240  10.478  14.322   0.538
43448SOL    HW132241  10.410  14.263   0.570
43448SOL    HW232242  10.542  14.265   0.495
43449SOL     OW32243   9.499  11.568   4.809
43449SOL    HW132244   9.417  11.569   4.859
43449SOL    HW232245   9.475  11.529   4.725
43450SOL     OW32246   2.683   9.245   3.965
43450SOL    HW132247   2.764   9.277   4.004
43450SOL    HW232248   2.694   9.150   3.960
43451SOL     OW32249   7.371   6.140   1.994
43451SOL    HW132250   7.380   6.230   2.024
43451SOL    HW232251   7.448   6.125   1.939
43452SOL     OW32252   0.426  10.875  13.595
43452SOL    HW132253   0.366  10.896  13.524
43452SOL    HW232254   0.474  10.957  13.610
43453SOL     OW32255   7.726  11.353  13.263
43453SOL    HW132256   7.744  11.359  13.169
43453SOL    HW232257   7.812  11.343  13.304
43454SOL     OW32258  13.970   7.976  12.704
43454SOL    HW132259  14.026   8.039  12.660
43454SOL    HW232260  14.005   7.891  12.678
43455SOL     OW32261   3.605   3.817   6.461
43455SOL    HW132262   3.686   3.838   6.509
43455SOL    HW232263   3.627   3.832   6.370
43456SOL     OW32264   6.518  10.880  11.162
43456SOL    HW132265   6.509  10.827  11.242
43456SOL    HW232266   6.601  10.850  11.123
43457SOL     OW32267   5.094   3.194   3.845
43457SOL    HW132268   5.056   3.235   3.767
43457SOL    HW232269   5.119   3.107   3.816
43458SOL     OW32270   4.273   2.589   3.773
43458SOL    HW132271   4.210   2.586   3.845
43458SOL    HW232272   4.358   2.599   3.816
43459SOL     OW32273  13.509   6.147   7.726
43459SOL    HW132274  13.583   6.166   7.667
43459SOL    HW232275  13.538   6.179   7.811
43460SOL     OW32276   0.859   2.656   8.019
43460SOL    HW132277   0.771   2.689   8.035
43460SOL    HW232278   0.916   2.714   8.070
43461SOL     OW32279   1.684   4.907  10.174
43461SOL    HW132280   1.594   4.877  10.183
43461SOL    HW232281   1.676   4.990  10.126
43462SOL     OW32282   3.738   4.918  11.026
43462SOL    HW132283   3.725   4.919  10.932
43462SOL    HW232284   3.701   4.835  11.055
43463SOL     OW32285  10.217   0.042   8.858
43463SOL    HW132286  10.261   0.117   8.898
43463SOL    HW232287  10.189  14.863   8.933
43464SOL     OW32288   0.779  11.134   8.924
43464SOL    HW132289   0.811  11.051   8.961
43464SOL    HW232290   0.843  11.157   8.857
43465SOL     OW32291  11.634   9.441  11.026
43465SOL    HW132292  11.639   9.447  10.931
43465SOL    HW232293  11.720   9.407  11.052
43466SOL     OW32294   4.825  13.293   3.608
43466SOL    HW132295   4.891  13.271   3.673
43466SOL    HW232296   4.859  13.371   3.564
43467SOL     OW32297   2.229  13.686   2.340
43467SOL    HW132298   2.216  13.774   2.375
43467SOL    HW232299   2.296  13.648   2.397
43468SOL     OW32300  12.426  10.131   7.512
43468SOL    HW132301  12.439  10.117   7.418
43468SOL    HW232302  12.386  10.050   7.544
43469SOL     OW32303  12.454  11.806   2.735
43469SOL    HW132304  12.446  11.822   2.829
43469SOL    HW232305  12.540  11.763   2.725
43470SOL     OW32306   7.785  13.379  13.864
43470SOL    HW132307   7.879  13.370  13.883
43470SOL    HW232308   7.782  13.423  13.779
43471SOL     OW32309   0.209   3.242  10.182
43471SOL    HW132310   0.178   3.330  10.160
43471SOL    HW232311   0.203   3.194  10.099
43472SOL     OW32312   5.261   6.498   2.558
43472SOL    HW132313   5.198   6.530   2.622
43472SOL    HW232314   5.340   6.481   2.608
43473SOL     OW32315   8.579  11.397   9.819
43473SOL    HW132316   8.511  11.458   9.849
43473SOL    HW232317   8.576  11.402   9.724
43474SOL     OW32318  11.130   2.637   5.054
43474SOL    HW132319  11.049   2.663   5.010
43474SOL    HW232320  11.102   2.610   5.141
43475SOL     OW32321  12.791   9.125  13.188
43475SOL    HW132322  12.876   9.159  13.217
43475SOL    HW232323  12.748   9.201  13.148
43476SOL     OW32324   9.946   9.329   3.805
43476SOL    HW132325   9.982   9.240   3.812
43476SOL    HW232326  10.021   9.383   3.780
43477SOL     OW32327   4.057  14.698   1.716
43477SOL    HW132328   4.148  14.674   1.734
43477SOL    HW232329   4.013  14.692   1.801
43478SOL     OW32330   3.951   9.537  13.592
43478SOL    HW132331   4.002   9.513  13.670
43478SOL    HW232332   3.861   9.542  13.623
43479SOL     OW32333   7.127   8.779   6.762
43479SOL    HW132334   7.186   8.703   6.764
43479SOL    HW232335   7.062   8.757   6.696
43480SOL     OW32336  12.110   2.663  11.819
43480SOL    HW132337  12.090   2.570  11.831
43480SOL    HW232338  12.185   2.664  11.761
43481SOL     OW32339   4.001   4.172   7.741
43481SOL    HW132340   4.069   4.166   7.808
43481SOL    HW232341   3.976   4.081   7.724
43482SOL     OW32342   0.084  13.666   2.956
43482SOL    HW132343   0.013  13.613   2.918
43482SOL    HW232344   0.152  13.602   2.977
43483SOL     OW32345  14.865   2.630  10.198
43483SOL    HW132346  14.813   2.572  10.142
43483SOL    HW232347  14.873   2.711  10.147
43484SOL     OW32348  12.059  11.643   3.182
43484SOL    HW132349  12.066  11.643   3.086
43484SOL    HW232350  12.024  11.557   3.203
43485SOL     OW32351   9.046  12.671   5.886
43485SOL    HW132352   9.084  12.747   5.842
43485SOL    HW232353   8.970  12.706   5.933
43486SOL     OW32354   9.226   9.822   6.484
43486SOL    HW132355   9.166   9.797   6.554
43486SOL    HW232356   9.212   9.757   6.415
43487SOL     OW32357   5.187   5.089   9.313
43487SOL    HW132358   5.111   5.143   9.296
43487SOL    HW232359   5.242   5.141   9.372
43488SOL     OW32360   1.766  10.542   1.562
43488SOL    HW132361   1.788  10.633   1.541
43488SOL    HW232362   1.720  10.510   1.484
43489SOL     OW32363   9.737  11.672  12.664
43489SOL    HW132364   9.644  11.689  12.678
43489SOL    HW232365   9.776  11.758  12.650
43490SOL     OW32366   9.627   0.317   8.034
43490SOL    HW132367   9.662   0.392   8.083
43490SOL    HW232368   9.566   0.356   7.971
43491SOL     OW32369   3.516   2.917   6.387
43491SOL    HW132370   3.448   2.849   6.394
43491SOL    HW232371   3.529   2.927   6.293
43492SOL     OW32372   2.423   4.068  13.893
43492SOL    HW132373   2.501   4.123  13.901
43492SOL    HW232374   2.357   4.124  13.852
43493SOL     OW32375  10.065   5.869  11.369
43493SOL    HW132376  10.002   5.934  11.337
43493SOL    HW232377  10.143   5.882  11.315
43494SOL     OW32378   8.614   2.339   3.258
43494SOL    HW132379   8.699   2.344   3.303
43494SOL    HW232380   8.555   2.390   3.313
43495SOL     OW32381  12.378   3.103  12.588
43495SOL    HW132382  12.289   3.102  12.622
43495SOL    HW232383  12.428   3.046  12.646
43496SOL     OW32384   9.337   0.336   0.946
43496SOL    HW132385   9.243   0.315   0.947
43496SOL    HW232386   9.354   0.378   1.030
43497SOL     OW32387   8.659   5.104   3.985
43497SOL    HW132388   8.753   5.101   3.969
43497SOL    HW232389   8.622   5.045   3.920
43498SOL     OW32390   8.583  13.386  10.959
43498SOL    HW132391   8.559  13.309  11.010
43498SOL    HW232392   8.657  13.424  11.005
43499SOL     OW32393  12.397   7.930  10.636
43499SOL    HW132394  12.363   7.855  10.587
43499SOL    HW232395  12.396   8.002  10.572
43500SOL     OW32396  12.132   1.018  12.782
43500SOL    HW132397  12.164   0.929  12.764
43500SOL    HW232398  12.131   1.060  12.696
43501SOL     OW32399   2.713  10.683   0.715
43501SOL    HW132400   2.618  10.684   0.709
43501SOL    HW232401   2.742  10.755   0.659
43502SOL     OW32402   8.746  10.457  13.682
43502SOL    HW132403   8.765  10.543  13.644
43502SOL    HW232404   8.663  10.431  13.643
43503SOL     OW32405  12.212   2.546  10.377
43503SOL    HW132406  12.238   2.472  10.322
43503SOL    HW232407  12.160   2.508  10.447
43504SOL     OW32408  11.300   9.604   0.904
43504SOL    HW132409  11.388   9.565   0.907
43504SOL    HW232410  11.296   9.660   0.981
43505SOL     OW32411   0.628  13.405  10.275
43505SOL    HW132412   0.718  13.374  10.274
43505SOL    HW232413   0.628  13.478  10.338
43506SOL     OW32414   2.654   0.770  12.090
43506SOL    HW132415   2.641   0.863  12.110
43506SOL    HW232416   2.581   0.726  12.132
43507SOL     OW32417   5.103   5.526   0.185
43507SOL    HW132418   5.048   5.453   0.213
43507SOL    HW232419   5.116   5.512   0.091
43508SOL     OW32420   6.351   3.398   9.208
43508SOL    HW132421   6.326   3.483   9.243
43508SOL    HW232422   6.431   3.415   9.158
43509SOL     OW32423  12.531  11.718   0.928
43509SOL    HW132424  12.461  11.655   0.947
43509SOL    HW232425  12.486  11.799   0.908
43510SOL     OW32426   6.182   4.426   5.171
43510SOL    HW132427   6.105   4.480   5.189
43510SOL    HW232428   6.193   4.431   5.076
43511SOL     OW32429   8.564   3.758   2.756
43511SOL    HW132430   8.513   3.779   2.834
43511SOL    HW232431   8.626   3.691   2.784
43512SOL     OW32432   8.051   7.817  11.008
43512SOL    HW132433   8.090   7.766  10.938
43512SOL    HW232434   8.068   7.767  11.087
43513SOL     OW32435  14.571  13.102   6.197
43513SOL    HW132436  14.602  13.034   6.257
43513SOL    HW232437  14.478  13.083   6.184
43514SOL     OW32438   4.130   7.834   9.113
43514SOL    HW132439   4.040   7.802   9.112
43514SOL    HW232440   4.142   7.873   9.026
43515SOL     OW32441  14.861   8.933   6.644
43515SOL    HW132442   0.045   8.997   6.602
43515SOL    HW232443   0.044   8.879   6.697
43516SOL     OW32444   6.782   5.234   5.619
43516SOL    HW132445   6.800   5.151   5.573
43516SOL    HW232446   6.689   5.229   5.641
43517SOL     OW32447   1.846   0.330  12.565
43517SOL    HW132448   1.877   0.250  12.607
43517SOL    HW232449   1.761   0.347  12.606
43518SOL     OW32450   5.624  12.851   7.232
43518SOL    HW132451   5.563  12.786   7.267
43518SOL    HW232452   5.681  12.873   7.306
43519SOL     OW32453   9.626  13.036  12.651
43519SOL    HW132454   9.535  13.031  12.620
43519SOL    HW232455   9.645  12.948  12.683
43520SOL     OW32456   6.779   4.300  13.398
43520SOL    HW132457   6.797   4.321  13.307
43520SOL    HW232458   6.817   4.372  13.448
43521SOL     OW32459   5.260  10.415   9.216
43521SOL    HW132460   5.167  10.398   9.202
43521SOL    HW232461   5.298  10.330   9.237
43522SOL     OW32462   4.788   9.056   5.335
43522SOL    HW132463   4.777   8.992   5.264
43522SOL    HW232464   4.772   9.141   5.293
43523SOL     OW32465  13.866   9.007  13.361
43523SOL    HW132466  13.785   9.042  13.323
43523SOL    HW232467  13.875   8.920  13.320
43524SOL     OW32468  10.887   5.426  10.423
43524SOL    HW132469  10.981   5.432  10.411
43524SOL    HW232470  10.850   5.457  10.341
43525SOL     OW32471   4.759   0.295  14.692
43525SOL    HW132472   4.681   0.240  14.687
43525SOL    HW232473   4.786   0.306  14.601
43526SOL     OW32474   8.741   6.074   5.361
43526SOL    HW132475   8.698   6.157   5.337
43526SOL    HW232476   8.826   6.101   5.397
43527SOL     OW32477   0.823   9.793   6.903
43527SOL    HW132478   0.766   9.869   6.898
43527SOL    HW232479   0.857   9.793   6.992
43528SOL     OW32480   0.539   0.229  11.938
43528SOL    HW132481   0.526   0.323  11.946
43528SOL    HW232482   0.628   0.214  11.971
43529SOL     OW32483   3.799   3.866   2.693
43529SOL    HW132484   3.721   3.810   2.695
43529SOL    HW232485   3.848   3.836   2.616
43530SOL     OW32486  10.768   3.683   8.342
43530SOL    HW132487  10.683   3.697   8.383
43530SOL    HW232488  10.762   3.595   8.304
43531SOL     OW32489   1.001   0.490   4.395
43531SOL    HW132490   1.072   0.541   4.434
43531SOL    HW232491   1.039   0.448   4.319
43532SOL     OW32492  13.154  12.985   2.840
43532SOL    HW132493  13.065  13.000   2.870
43532SOL    HW232494  13.193  13.072   2.834
43533SOL     OW32495   9.555  13.513  10.761
43533SOL    HW132496   9.569  13.557  10.845
43533SOL    HW232497   9.461  13.522  10.746
43534SOL     OW32498  12.521   3.513   0.062
43534SOL    HW132499  12.513   3.607   0.049
43534SOL    HW232500  12.464   3.494   0.136
43535SOL     OW32501   8.923  14.707   7.683
43535SOL    HW132502   8.932  14.754   7.600
43535SOL    HW232503   8.848  14.748   7.725
43536SOL     OW32504   6.559   6.980   5.145
43536SOL    HW132505   6.637   7.035   5.135
43536SOL    HW232506   6.593   6.895   5.174
43537SOL     OW32507   5.842  12.066   4.042
43537SOL    HW132508   5.798  12.150   4.050
43537SOL    HW232509   5.814  12.017   4.120
43538SOL     OW32510   0.269   7.564  12.495
43538SOL    HW132511   0.232   7.530  12.576
43538SOL    HW232512   0.361   7.580  12.515
43539SOL     OW32513   5.891   3.175   1.618
43539SOL    HW132514   5.940   3.200   1.696
43539SOL    HW232515   5.799   3.173   1.646
43540SOL     OW32516   1.101   4.812   9.131
43540SOL    HW132517   1.148   4.891   9.159
43540SOL    HW232518   1.108   4.812   9.036
43541SOL     OW32519  14.520   2.413  12.247
43541SOL    HW132520  14.589   2.360  12.287
43541SOL    HW232521  14.438   2.375  12.279
43542SOL     OW32522   6.328  14.695   4.670
43542SOL    HW132523   6.395  14.627   4.673
43542SOL    HW232524   6.303  14.699   4.578
43543SOL     OW32525   4.964   3.105  13.704
43543SOL    HW132526   4.992   3.181  13.652
43543SOL    HW232527   4.947   3.037  13.640
43544SOL     OW32528   2.849  10.508   6.658
43544SOL    HW132529   2.775  10.556   6.695
43544SOL    HW232530   2.923  10.569   6.667
43545SOL     OW32531   6.599   0.644  13.614
43545SOL    HW132532   6.649   0.721  13.586
43545SOL    HW232533   6.599   0.649  13.710
43546SOL     OW32534   9.304  11.080  14.837
43546SOL    HW132535   9.393  11.064  14.868
43546SOL    HW232536   9.281  11.166  14.874
43547SOL     OW32537   6.843   7.170   3.089
43547SOL    HW132538   6.820   7.138   3.002
43547SOL    HW232539   6.821   7.097   3.148
43548SOL     OW32540   5.007   1.461   2.860
43548SOL    HW132541   4.931   1.479   2.916
43548SOL    HW232542   5.060   1.540   2.865
43549SOL     OW32543   2.203   4.554  13.055
43549SOL    HW132544   2.177   4.604  13.133
43549SOL    HW232545   2.139   4.578  12.989
43550SOL     OW32546   7.037   9.768  12.864
43550SOL    HW132547   6.963   9.739  12.810
43550SOL    HW232548   6.996   9.809  12.940
43551SOL     OW32549   3.317   0.862  11.137
43551SOL    HW132550   3.363   0.913  11.205
43551SOL    HW232551   3.363   0.884  11.056
43552SOL     OW32552   1.790  13.363  10.217
43552SOL    HW132553   1.765  13.271  10.205
43552SOL    HW232554   1.713  13.413  10.191
43553SOL     OW32555  10.330   4.076  10.912
43553SOL    HW132556  10.337   4.114  11.000
43553SOL    HW232557  10.303   4.150  10.857
43554SOL     OW32558   9.478   0.805   8.276
43554SOL    HW132559   9.485   0.875   8.341
43554SOL    HW232560   9.387   0.776   8.281
43555SOL     OW32561  14.804   0.931   8.070
43555SOL    HW132562  14.815   0.958   7.978
43555SOL    HW232563  14.762   0.845   8.064
43556SOL     OW32564   4.701   7.827   9.891
43556SOL    HW132565   4.700   7.871   9.976
43556SOL    HW232566   4.794   7.820   9.868
43557SOL     OW32567  12.085   2.615  12.352
43557SOL    HW132568  12.123   2.616  12.264
43557SOL    HW232569  12.126   2.690  12.396
43558SOL     OW32570   6.419   8.139   8.626
43558SOL    HW132571   6.403   8.152   8.533
43558SOL    HW232572   6.491   8.076   8.630
43559SOL     OW32573  13.273   9.831  10.950
43559SOL    HW132574  13.199   9.883  10.919
43559SOL    HW232575  13.302   9.876  11.030
43560SOL     OW32576  12.279  10.542   6.691
43560SOL    HW132577  12.352  10.592   6.654
43560SOL    HW232578  12.319  10.486   6.757
43561SOL     OW32579  10.550  14.289  13.582
43561SOL    HW132580  10.582  14.293  13.672
43561SOL    HW232581  10.536  14.380  13.557
43562SOL     OW32582  13.434   3.305  13.925
43562SOL    HW132583  13.504   3.281  13.985
43562SOL    HW232584  13.456   3.393  13.895
43563SOL     OW32585   6.133   8.266   2.220
43563SOL    HW132586   6.064   8.250   2.284
43563SOL    HW232587   6.088   8.312   2.148
43564SOL     OW32588   6.774   9.485   0.531
43564SOL    HW132589   6.700   9.525   0.484
43564SOL    HW232590   6.749   9.490   0.623
43565SOL     OW32591   4.286   4.714   5.329
43565SOL    HW132592   4.307   4.641   5.386
43565SOL    HW232593   4.322   4.690   5.244
43566SOL     OW32594   3.840   5.239  13.383
43566SOL    HW132595   3.752   5.275  13.375
43566SOL    HW232596   3.896   5.301  13.337
43567SOL     OW32597   2.156   6.960   6.993
43567SOL    HW132598   2.061   6.967   6.996
43567SOL    HW232599   2.173   6.866   6.998
43568SOL     OW32600   0.844  12.244   0.285
43568SOL    HW132601   0.750  12.228   0.287
43568SOL    HW232602   0.871  12.235   0.377
43569SOL     OW32603   4.470   1.958   7.913
43569SOL    HW132604   4.514   1.978   7.996
43569SOL    HW232605   4.432   2.042   7.886
43570SOL     OW32606   8.118  13.937  10.677
43570SOL    HW132607   8.041  13.884  10.697
43570SOL    HW232608   8.182  13.876  10.640
43571SOL     OW32609   6.294   3.615  10.998
43571SOL    HW132610   6.355   3.662  10.942
43571SOL    HW232611   6.223   3.676  11.013
43572SOL     OW32612  13.311  10.216  10.060
43572SOL    HW132613  13.396  10.198  10.101
43572SOL    HW232614  13.301  10.311  10.066
43573SOL     OW32615   9.391   4.328  11.327
43573SOL    HW132616   9.350   4.400  11.280
43573SOL    HW232617   9.482   4.356  11.337
43574SOL     OW32618  14.685  13.838   4.265
43574SOL    HW132619  14.650  13.827   4.177
43574SOL    HW232620  14.608  13.862   4.318
43575SOL     OW32621   7.453   6.979   9.015
43575SOL    HW132622   7.443   6.904   9.075
43575SOL    HW232623   7.496   7.046   9.067
43576SOL     OW32624   9.306  10.905  11.436
43576SOL    HW132625   9.379  10.845  11.454
43576SOL    HW232626   9.262  10.867  11.360
43577SOL     OW32627   9.130  10.467   3.013
43577SOL    HW132628   9.204  10.443   3.068
43577SOL    HW232629   9.166  10.527   2.948
43578SOL     OW32630   5.661   3.974   7.276
43578SOL    HW132631   5.714   3.954   7.199
43578SOL    HW232632   5.677   3.901   7.336
43579SOL     OW32633  10.430   9.672   7.557
43579SOL    HW132634  10.487   9.745   7.582
43579SOL    HW232635  10.344   9.695   7.591
43580SOL     OW32636  12.267  12.470   6.039
43580SOL    HW132637  12.336  12.436   6.097
43580SOL    HW232638  12.186  12.456   6.088
43581SOL     OW32639  13.663  13.962   1.455
43581SOL    HW132640  13.688  14.041   1.504
43581SOL    HW232641  13.619  13.995   1.377
43582SOL     OW32642  11.109  13.400   1.949
43582SOL    HW132643  11.090  13.306   1.953
43582SOL    HW232644  11.023  13.441   1.940
43583SOL     OW32645  10.774  12.956   7.293
43583SOL    HW132646  10.778  13.042   7.250
43583SOL    HW232647  10.865  12.927   7.297
43584SOL     OW32648   7.049  11.186   2.664
43584SOL    HW132649   7.037  11.218   2.575
43584SOL    HW232650   6.989  11.239   2.717
43585SOL     OW32651  11.108   3.502   3.195
43585SOL    HW132652  11.113   3.593   3.167
43585SOL    HW232653  11.020   3.473   3.169
43586SOL     OW32654  12.936   8.674   0.903
43586SOL    HW132655  12.895   8.760   0.918
43586SOL    HW232656  12.863   8.618   0.878
43587SOL     OW32657  10.800   2.651  10.996
43587SOL    HW132658  10.839   2.711  11.060
43587SOL    HW232659  10.872   2.593  10.970
43588SOL     OW32660  14.697  10.453   7.387
43588SOL    HW132661  14.617  10.490   7.424
43588SOL    HW232662  14.673  10.363   7.362
43589SOL     OW32663  12.091   9.693   9.882
43589SOL    HW132664  12.082   9.619   9.942
43589SOL    HW232665  12.179   9.728   9.899
43590SOL     OW32666   3.611  10.781   5.546
43590SOL    HW132667   3.564  10.864   5.546
43590SOL    HW232668   3.552  10.720   5.500
43591SOL     OW32669  11.865   5.163  10.708
43591SOL    HW132670  11.947   5.115  10.696
43591SOL    HW232671  11.798   5.105  10.671
43592SOL     OW32672   4.285   5.865   5.182
43592SOL    HW132673   4.223   5.936   5.169
43592SOL    HW232674   4.316   5.877   5.272
43593SOL     OW32675  12.799   9.103  12.817
43593SOL    HW132676  12.745   9.043  12.765
43593SOL    HW232677  12.738   9.145  12.877
43594SOL     OW32678  12.100   2.474  11.226
43594SOL    HW132679  12.078   2.506  11.138
43594SOL    HW232680  12.025   2.419  11.250
43595SOL     OW32681   1.664   5.883  14.178
43595SOL    HW132682   1.687   5.805  14.230
43595SOL    HW232683   1.747   5.909  14.137
43596SOL     OW32684   5.811   2.177  12.918
43596SOL    HW132685   5.891   2.200  12.965
43596SOL    HW232686   5.742   2.187  12.982
43597SOL     OW32687   2.950  14.850   3.846
43597SOL    HW132688   2.866   0.018   3.834
43597SOL    HW232689   2.999  14.870   3.766
43598SOL     OW32690  14.606  12.079  11.552
43598SOL    HW132691  14.644  12.042  11.631
43598SOL    HW232692  14.512  12.062  11.560
43599SOL     OW32693   8.917   9.463   6.886
43599SOL    HW132694   8.933   9.520   6.961
43599SOL    HW232695   8.882   9.382   6.924
43600SOL     OW32696   4.818   3.836   1.524
43600SOL    HW132697   4.804   3.823   1.430
43600SOL    HW232698   4.909   3.810   1.538
43601SOL     OW32699   2.367   8.954   7.054
43601SOL    HW132700   2.449   8.906   7.048
43601SOL    HW232701   2.332   8.955   6.965
43602SOL     OW32702  13.153   7.979  10.731
43602SOL    HW132703  13.087   8.044  10.752
43602SOL    HW232704  13.107   7.915  10.677
43603SOL     OW32705   0.875   9.430   1.048
43603SOL    HW132706   0.793   9.403   1.089
43603SOL    HW232707   0.897   9.513   1.091
43604SOL     OW32708  13.254   8.650  11.054
43604SOL    HW132709  13.166   8.618  11.076
43604SOL    HW232710  13.310   8.573  11.064
43605SOL     OW32711   1.589  14.107   2.988
43605SOL    HW132712   1.615  14.068   2.905
43605SOL    HW232713   1.495  14.123   2.978
43606SOL     OW32714  14.521   2.634   5.756
43606SOL    HW132715  14.476   2.626   5.840
43606SOL    HW232716  14.504   2.551   5.712
43607SOL     OW32717  14.823  10.935  13.405
43607SOL    HW132718  14.779  10.915  13.322
43607SOL    HW232719  14.751  10.951  13.467
43608SOL     OW32720   7.083  13.833   5.353
43608SOL    HW132721   7.162  13.827   5.408
43608SOL    HW232722   7.011  13.820   5.413
43609SOL     OW32723   1.450   6.025   8.136
43609SOL    HW132724   1.406   6.022   8.221
43609SOL    HW232725   1.540   6.051   8.156
43610SOL     OW32726   1.828   7.027   7.433
43610SOL    HW132727   1.911   6.981   7.424
43610SOL    HW232728   1.780   7.005   7.353
43611SOL     OW32729   4.493   5.177   5.785
43611SOL    HW132730   4.532   5.184   5.872
43611SOL    HW232731   4.434   5.101   5.791
43612SOL     OW32732   3.841  13.188   6.575
43612SOL    HW132733   3.776  13.167   6.508
43612SOL    HW232734   3.925  13.190   6.528
43613SOL     OW32735   0.542   2.813  13.891
43613SOL    HW132736   0.496   2.805  13.975
43613SOL    HW232737   0.572   2.724  13.871
43614SOL     OW32738   3.660  12.462   9.560
43614SOL    HW132739   3.589  12.405   9.533
43614SOL    HW232740   3.700  12.418   9.635
43615SOL     OW32741   1.993   1.957   9.147
43615SOL    HW132742   1.916   1.953   9.204
43615SOL    HW232743   2.008   2.051   9.133
43616SOL     OW32744   7.513   0.794  12.325
43616SOL    HW132745   7.540   0.768  12.237
43616SOL    HW232746   7.593   0.828  12.365
43617SOL     OW32747  11.103  10.458   7.637
43617SOL    HW132748  11.106  10.547   7.602
43617SOL    HW232749  11.163  10.459   7.712
43618SOL     OW32750  11.776  12.556   9.780
43618SOL    HW132751  11.789  12.646   9.808
43618SOL    HW232752  11.842  12.506   9.827
43619SOL     OW32753   6.867   9.376   6.504
43619SOL    HW132754   6.957   9.359   6.476
43619SOL    HW232755   6.855   9.470   6.494
43620SOL     OW32756   0.772  11.769   5.814
43620SOL    HW132757   0.680  11.770   5.840
43620SOL    HW232758   0.788  11.679   5.786
43621SOL     OW32759  10.576   1.633   0.505
43621SOL    HW132760  10.671   1.628   0.496
43621SOL    HW232761  10.544   1.654   0.418
43622SOL     OW32762   2.642  13.048  12.591
43622SOL    HW132763   2.647  12.956  12.566
43622SOL    HW232764   2.592  13.090  12.521
43623SOL     OW32765   3.553   0.298   7.646
43623SOL    HW132766   3.458   0.307   7.647
43623SOL    HW232767   3.571   0.247   7.568
43624SOL     OW32768   7.945   3.570   3.248
43624SOL    HW132769   8.015   3.550   3.186
43624SOL    HW232770   7.969   3.522   3.327
43625SOL     OW32771  11.741  14.437   4.588
43625SOL    HW132772  11.791  14.518   4.594
43625SOL    HW232773  11.780  14.379   4.653
43626SOL     OW32774   6.780   0.033   6.609
43626SOL    HW132775   6.738  14.825   6.631
43626SOL    HW232776   6.738   0.060   6.527
43627SOL     OW32777   7.525  12.534   7.399
43627SOL    HW132778   7.603  12.566   7.446
43627SOL    HW232779   7.451  12.565   7.451
43628SOL     OW32780  11.713   8.031  12.641
43628SOL    HW132781  11.760   7.951  12.619
43628SOL    HW232782  11.698   8.026  12.735
43629SOL     OW32783  14.439  13.076   4.080
43629SOL    HW132784  14.519  13.128   4.092
43629SOL    HW232785  14.418  13.044   4.168
43630SOL     OW32786  14.282   0.141   2.744
43630SOL    HW132787  14.294   0.088   2.823
43630SOL    HW232788  14.216   0.094   2.693
43631SOL     OW32789  12.236   3.194   5.759
43631SOL    HW132790  12.175   3.233   5.821
43631SOL    HW232791  12.190   3.197   5.675
43632SOL     OW32792   5.233  14.035   3.053
43632SOL    HW132793   5.232  14.113   3.108
43632SOL    HW232794   5.149  13.993   3.069
43633SOL     OW32795   6.320   5.281   2.744
43633SOL    HW132796   6.371   5.339   2.801
43633SOL    HW232797   6.386   5.234   2.693
43634SOL     OW32798  14.612   3.433   8.242
43634SOL    HW132799  14.593   3.517   8.201
43634SOL    HW232800  14.527   3.400   8.270
43635SOL     OW32801  14.290   6.730   5.019
43635SOL    HW132802  14.351   6.800   4.995
43635SOL    HW232803  14.327   6.652   4.977
43636SOL     OW32804   5.484   1.444   3.119
43636SOL    HW132805   5.545   1.507   3.157
43636SOL    HW232806   5.399   1.467   3.159
43637SOL     OW32807  13.952   3.394   3.444
43637SOL    HW132808  13.987   3.463   3.388
43637SOL    HW232809  14.011   3.390   3.518
43638SOL     OW32810   8.874  13.245  11.417
43638SOL    HW132811   8.873  13.163  11.368
43638SOL    HW232812   8.783  13.259  11.442
43639SOL     OW32813   5.451   7.986   1.591
43639SOL    HW132814   5.493   7.947   1.514
43639SOL    HW232815   5.522   7.995   1.655
43640SOL     OW32816   2.784  14.608  14.647
43640SOL    HW132817   2.824  14.619  14.733
43640SOL    HW232818   2.812  14.685  14.598
43641SOL     OW32819   0.679   9.506   3.076
43641SOL    HW132820   0.673   9.420   3.119
43641SOL    HW232821   0.725   9.561   3.139
43642SOL     OW32822   7.343   0.015   6.742
43642SOL    HW132823   7.249   0.032   6.747
43642SOL    HW232824   7.364   0.016   6.649
43643SOL     OW32825  13.885   2.072   5.112
43643SOL    HW132826  13.926   2.059   5.198
43643SOL    HW232827  13.920   2.002   5.058
43644SOL     OW32828  10.817   5.414   4.635
43644SOL    HW132829  10.818   5.507   4.612
43644SOL    HW232830  10.727   5.396   4.662
43645SOL     OW32831   4.652  10.301  12.877
43645SOL    HW132832   4.680  10.384  12.914
43645SOL    HW232833   4.612  10.254  12.951
43646SOL     OW32834  11.795  10.667   3.714
43646SOL    HW132835  11.710  10.654   3.757
43646SOL    HW232836  11.852  10.602   3.755
43647SOL     OW32837  12.985  11.837   2.073
43647SOL    HW132838  12.994  11.931   2.062
43647SOL    HW232839  13.035  11.799   2.001
43648SOL     OW32840  12.924   7.749   2.183
43648SOL    HW132841  12.971   7.832   2.172
43648SOL    HW232842  12.992   7.682   2.172
43649SOL     OW32843   5.709   3.143   3.003
43649SOL    HW132844   5.616   3.153   2.988
43649SOL    HW232845   5.744   3.108   2.921
43650SOL     OW32846  14.525   0.651  12.077
43650SOL    HW132847  14.559   0.608  12.155
43650SOL    HW232848  14.582   0.620  12.006
43651SOL     OW32849  10.887   0.756   5.599
43651SOL    HW132850  10.809   0.729   5.648
43651SOL    HW232851  10.960   0.736   5.657
43652SOL     OW32852   8.730   6.837  13.776
43652SOL    HW132853   8.818   6.802  13.759
43652SOL    HW232854   8.731   6.859  13.870
43653SOL     OW32855   6.898   5.003   7.634
43653SOL    HW132856   6.843   4.925   7.635
43653SOL    HW232857   6.987   4.969   7.627
43654SOL     OW32858   2.954   3.950   4.782
43654SOL    HW132859   3.020   3.908   4.836
43654SOL    HW232860   2.872   3.909   4.808
43655SOL     OW32861  11.981  11.965   3.795
43655SOL    HW132862  12.057  12.019   3.818
43655SOL    HW232863  11.912  12.028   3.776
43656SOL     OW32864  12.976   2.337  13.703
43656SOL    HW132865  12.947   2.331  13.612
43656SOL    HW232866  13.019   2.253  13.720
43657SOL     OW32867  10.776  10.787   7.776
43657SOL    HW132868  10.819  10.773   7.692
43657SOL    HW232869  10.707  10.720   7.780
43658SOL     OW32870   4.527   8.365   3.396
43658SOL    HW132871   4.497   8.451   3.425
43658SOL    HW232872   4.464   8.338   3.330
43659SOL     OW32873  11.410   0.604   0.231
43659SOL    HW132874  11.391   0.511   0.244
43659SOL    HW232875  11.354   0.649   0.295
43660SOL     OW32876   2.295   7.284   1.998
43660SOL    HW132877   2.367   7.312   2.055
43660SOL    HW232878   2.317   7.322   1.913
43661SOL     OW32879   5.386   9.911   8.338
43661SOL    HW132880   5.411   9.819   8.354
43661SOL    HW232881   5.461   9.948   8.292
43662SOL     OW32882   1.052   7.602   7.427
43662SOL    HW132883   0.997   7.588   7.350
43662SOL    HW232884   1.138   7.568   7.402
43663SOL     OW32885  10.959   9.567  13.669
43663SOL    HW132886  11.040   9.534  13.709
43663SOL    HW232887  10.974   9.661  13.660
43664SOL     OW32888   5.793   7.559   9.425
43664SOL    HW132889   5.826   7.484   9.375
43664SOL    HW232890   5.848   7.632   9.398
43665SOL     OW32891   4.761   8.550   6.797
43665SOL    HW132892   4.801   8.505   6.872
43665SOL    HW232893   4.681   8.590   6.834
43666SOL     OW32894   1.651   6.868   6.229
43666SOL    HW132895   1.655   6.782   6.187
43666SOL    HW232896   1.635   6.848   6.322
43667SOL     OW32897  14.640   7.291   0.233
43667SOL    HW132898  14.688   7.238   0.170
43667SOL    HW232899  14.556   7.245   0.243
43668SOL     OW32900  14.315   2.164   4.269
43668SOL    HW132901  14.265   2.168   4.351
43668SOL    HW232902  14.275   2.093   4.219
43669SOL     OW32903  12.972  12.008   9.701
43669SOL    HW132904  12.980  11.936   9.638
43669SOL    HW232905  13.012  11.973   9.781
43670SOL     OW32906   2.906  13.417  14.394
43670SOL    HW132907   2.871  13.416  14.305
43670SOL    HW232908   2.997  13.391  14.384
43671SOL     OW32909   1.050   8.140   0.365
43671SOL    HW132910   1.016   8.070   0.421
43671SOL    HW232911   1.091   8.201   0.425
43672SOL     OW32912   7.580   0.011   5.315
43672SOL    HW132913   7.639   0.084   5.293
43672SOL    HW232914   7.493   0.046   5.298
43673SOL     OW32915  14.302   2.793   3.348
43673SOL    HW132916  14.215   2.786   3.309
43673SOL    HW232917  14.314   2.887   3.363
43674SOL     OW32918   7.790   7.911  11.733
43674SOL    HW132919   7.809   7.868  11.816
43674SOL    HW232920   7.769   8.001  11.757
43675SOL     OW32921  13.777  13.330  13.544
43675SOL    HW132922  13.861  13.346  13.502
43675SOL    HW232923  13.782  13.375  13.628
43676SOL     OW32924  11.248   7.098  12.029
43676SOL    HW132925  11.316   7.095  11.961
43676SOL    HW232926  11.237   7.191  12.047
43677SOL     OW32927   3.838   0.487   3.035
43677SOL    HW132928   3.809   0.445   3.116
43677SOL    HW232929   3.757   0.501   2.986
43678SOL     OW32930  13.734   0.148  12.240
43678SOL    HW132931  13.734   0.068  12.294
43678SOL    HW232932  13.776   0.122  12.158
43679SOL     OW32933   5.548   3.024   8.711
43679SOL    HW132934   5.641   3.017   8.734
43679SOL    HW232935   5.543   3.102   8.656
43680SOL     OW32936   1.336  14.779  11.912
43680SOL    HW132937   1.301  14.843  11.974
43680SOL    HW232938   1.431  14.795  11.912
43681SOL     OW32939  13.046  14.644   9.369
43681SOL    HW132940  13.111  14.710   9.392
43681SOL    HW232941  13.088  14.590   9.302
43682SOL     OW32942   6.092  14.077  10.033
43682SOL    HW132943   6.031  14.149  10.016
43682SOL    HW232944   6.178  14.111  10.008
43683SOL     OW32945  10.804   3.067   2.267
43683SOL    HW132946  10.813   3.119   2.347
43683SOL    HW232947  10.836   3.123   2.197
43684SOL     OW32948  11.353   7.052  10.065
43684SOL    HW132949  11.323   7.040   9.975
43684SOL    HW232950  11.377   6.965  10.095
43685SOL     OW32951   8.151   8.304   0.298
43685SOL    HW132952   8.158   8.239   0.228
43685SOL    HW232953   8.161   8.254   0.379
43686SOL     OW32954   9.504   5.294   5.035
43686SOL    HW132955   9.467   5.235   5.101
43686SOL    HW232956   9.522   5.237   4.960
43687SOL     OW32957  12.387  12.562   0.271
43687SOL    HW132958  12.435  12.497   0.323
43687SOL    HW232959  12.415  12.546   0.181
43688SOL     OW32960   0.918   2.018  11.680
43688SOL    HW132961   0.998   2.013  11.732
43688SOL    HW232962   0.940   1.976  11.597
43689SOL     OW32963   9.437   1.092  14.434
43689SOL    HW132964   9.469   1.011  14.473
43689SOL    HW232965   9.408   1.067  14.346
43690SOL     OW32966   5.817   4.452   6.750
43690SOL    HW132967   5.731   4.416   6.772
43690SOL    HW232968   5.801   4.507   6.673
43691SOL     OW32969   6.352   2.699   8.384
43691SOL    HW132970   6.320   2.614   8.353
43691SOL    HW232971   6.444   2.684   8.403
43692SOL     OW32972   4.771  10.582   8.660
43692SOL    HW132973   4.724  10.500   8.673
43692SOL    HW232974   4.842  10.560   8.601
43693SOL     OW32975   1.002   2.901   2.054
43693SOL    HW132976   0.964   2.944   2.131
43693SOL    HW232977   1.079   2.953   2.033
43694SOL     OW32978   3.948  12.070   1.045
43694SOL    HW132979   4.036  12.036   1.032
43694SOL    HW232980   3.892  12.014   0.991
43695SOL     OW32981   9.754  12.530   5.737
43695SOL    HW132982   9.762  12.452   5.683
43695SOL    HW232983   9.728  12.599   5.676
43696SOL     OW32984  12.450   0.807   6.370
43696SOL    HW132985  12.532   0.759   6.361
43696SOL    HW232986  12.426   0.798   6.462
43697SOL     OW32987   2.266   0.787   5.272
43697SOL    HW132988   2.203   0.798   5.201
43697SOL    HW232989   2.304   0.701   5.258
43698SOL     OW32990  11.300   0.892  10.694
43698SOL    HW132991  11.354   0.969  10.713
43698SOL    HW232992  11.318   0.872  10.602
43699SOL     OW32993   4.877   7.006   0.998
43699SOL    HW132994   4.821   7.080   0.977
43699SOL    HW232995   4.899   7.019   1.091
43700SOL     OW32996   6.844   3.504   0.968
43700SOL    HW132997   6.792   3.584   0.956
43700SOL    HW232998   6.918   3.515   0.908
43701SOL     OW32999  13.745   7.232   5.320
43701SOL    HW133000  13.752   7.194   5.407
43701SOL    HW233001  13.651   7.245   5.308
43702SOL     OW33002   1.131   0.346   4.165
43702SOL    HW133003   1.215   0.360   4.209
43702SOL    HW233004   1.150   0.279   4.099
43703SOL     OW33005   2.701  14.336   0.657
43703SOL    HW133006   2.689  14.414   0.602
43703SOL    HW233007   2.625  14.282   0.638
43704SOL     OW33008  11.318   1.935   6.936
43704SOL    HW133009  11.281   2.013   6.895
43704SOL    HW233010  11.359   1.887   6.864
43705SOL     OW33011  13.495   9.691  11.448
43705SOL    HW133012  13.475   9.684  11.542
43705SOL    HW233013  13.413   9.668  11.405
43706SOL     OW33014   8.036   9.426  10.446
43706SOL    HW133015   8.130   9.424  10.464
43706SOL    HW233016   8.026   9.370  10.369
43707SOL     OW33017  11.790   2.283   5.061
43707SOL    HW133018  11.810   2.261   5.152
43707SOL    HW233019  11.694   2.285   5.058
43708SOL     OW33020   2.890   4.548   5.292
43708SOL    HW133021   2.869   4.568   5.383
43708SOL    HW233022   2.919   4.457   5.293
43709SOL     OW33023  14.836   1.565   6.500
43709SOL    HW133024  14.781   1.570   6.422
43709SOL    HW233025  14.774   1.566   6.574
43710SOL     OW33026   5.490  10.036   5.720
43710SOL    HW133027   5.447  10.117   5.694
43710SOL    HW233028   5.419   9.976   5.741
43711SOL     OW33029  10.757   5.273   0.121
43711SOL    HW133030  10.819   5.335   0.084
43711SOL    HW233031  10.694   5.327   0.168
43712SOL     OW33032  13.119  11.866   9.324
43712SOL    HW133033  13.062  11.797   9.292
43712SOL    HW233034  13.077  11.947   9.296
43713SOL     OW33035  12.012  12.488   1.354
43713SOL    HW133036  11.924  12.469   1.322
43713SOL    HW233037  11.998  12.541   1.432
43714SOL     OW33038  13.997   3.007   4.225
43714SOL    HW133039  13.950   2.958   4.158
43714SOL    HW233040  13.951   2.987   4.306
43715SOL     OW33041  14.267   9.216   8.667
43715SOL    HW133042  14.236   9.271   8.739
43715SOL    HW233043  14.254   9.127   8.698
43716SOL     OW33044   5.391  11.340  11.381
43716SOL    HW133045   5.312  11.390  11.402
43716SOL    HW233046   5.450  11.403  11.342
43717SOL     OW33047   5.895   8.723   9.446
43717SOL    HW133048   5.876   8.697   9.355
43717SOL    HW233049   5.951   8.652   9.479
43718SOL     OW33050  12.398   7.430  13.167
43718SOL    HW133051  12.474   7.376  13.189
43718SOL    HW233052  12.400   7.501  13.231
43719SOL     OW33053   1.250  14.236   5.660
43719SOL    HW133054   1.293  14.314   5.695
43719SOL    HW233055   1.322  14.173   5.650
43720SOL     OW33056   8.784   0.989   1.968
43720SOL    HW133057   8.793   1.052   2.040
43720SOL    HW233058   8.783   1.044   1.889
43721SOL     OW33059  11.063   4.571  13.248
43721SOL    HW133060  11.143   4.584  13.298
43721SOL    HW233061  11.010   4.648  13.266
43722SOL     OW33062   8.305  14.103   7.070
43722SOL    HW133063   8.272  14.039   7.133
43722SOL    HW233064   8.297  14.061   6.985
43723SOL     OW33065  12.251   0.245   4.518
43723SOL    HW133066  12.240   0.328   4.473
43723SOL    HW233067  12.169   0.230   4.564
43724SOL     OW33068   8.200  13.162  12.252
43724SOL    HW133069   8.198  13.257  12.248
43724SOL    HW233070   8.185  13.141  12.344
43725SOL     OW33071  11.084   2.362   9.667
43725SOL    HW133072  11.015   2.303   9.697
43725SOL    HW233073  11.041   2.415   9.599
43726SOL     OW33074   5.840   5.009  12.249
43726SOL    HW133075   5.768   5.014  12.186
43726SOL    HW233076   5.852   5.099  12.280
43727SOL     OW33077   7.940   4.238  14.624
43727SOL    HW133078   7.976   4.235  14.535
43727SOL    HW233079   7.910   4.328  14.635
43728SOL     OW33080   9.609   2.980  11.391
43728SOL    HW133081   9.638   3.007  11.304
43728SOL    HW233082   9.619   3.059  11.445
43729SOL     OW33083   7.729   6.268  12.111
43729SOL    HW133084   7.731   6.246  12.018
43729SOL    HW233085   7.815   6.240  12.144
43730SOL     OW33086   1.714  12.367  10.471
43730SOL    HW133087   1.796  12.416  10.461
43730SOL    HW233088   1.728  12.287  10.420
43731SOL     OW33089   4.343  14.299  11.697
43731SOL    HW133090   4.372  14.227  11.640
43731SOL    HW233091   4.254  14.318  11.668
43732SOL     OW33092   0.002  10.616   5.385
43732SOL    HW133093   0.049  10.595   5.465
43732SOL    HW233094   0.015  10.710   5.373
43733SOL     OW33095   6.339  11.946   8.880
43733SOL    HW133096   6.310  11.973   8.793
43733SOL    HW233097   6.267  11.892   8.913
43734SOL     OW33098   7.545   5.922   3.560
43734SOL    HW133099   7.455   5.944   3.583
43734SOL    HW233100   7.599   5.978   3.616
43735SOL     OW33101   3.510   5.625  11.388
43735SOL    HW133102   3.460   5.567  11.445
43735SOL    HW233103   3.546   5.692  11.446
43736SOL     OW33104   1.172   4.117  14.861
43736SOL    HW133105   1.242   4.183  14.856
43736SOL    HW233106   1.121   4.142   0.063
43737SOL     OW33107  11.905  11.409   2.316
43737SOL    HW133108  11.984  11.460   2.335
43737SOL    HW233109  11.912  11.333   2.373
43738SOL     OW33110   4.013  11.634   8.036
43738SOL    HW133111   4.040  11.698   7.970
43738SOL    HW233112   3.996  11.554   7.987
43739SOL     OW33113  12.632   9.602   9.617
43739SOL    HW133114  12.624   9.530   9.680
43739SOL    HW233115  12.692   9.664   9.659
43740SOL     OW33116   7.920  12.851   9.630
43740SOL    HW133117   7.945  12.821   9.542
43740SOL    HW233118   7.838  12.806   9.648
43741SOL     OW33119   9.882   0.915   8.088
43741SOL    HW133120   9.926   0.999   8.075
43741SOL    HW233121   9.789   0.937   8.090
43742SOL     OW33122   6.462  10.432   3.754
43742SOL    HW133123   6.473  10.378   3.832
43742SOL    HW233124   6.368  10.451   3.751
43743SOL     OW33125  14.826   3.119   5.534
43743SOL    HW133126  14.776   3.073   5.467
43743SOL    HW233127  14.791   3.087   5.617
43744SOL     OW33128   0.223   9.685  11.404
43744SOL    HW133129   0.250   9.685  11.495
43744SOL    HW233130   0.196   9.595  11.386
43745SOL     OW33131  13.808  14.729   3.344
43745SOL    HW133132  13.821  14.725   3.249
43745SOL    HW233133  13.716  14.705   3.356
43746SOL     OW33134  12.527   7.492   7.243
43746SOL    HW133135  12.471   7.440   7.300
43746SOL    HW233136  12.615   7.479   7.278
43747SOL     OW33137  14.015   4.782  13.286
43747SOL    HW133138  14.043   4.705  13.335
43747SOL    HW233139  14.006   4.850  13.352
43748SOL     OW33140  13.807  14.488  12.838
43748SOL    HW133141  13.870  14.436  12.888
43748SOL    HW233142  13.764  14.425  12.780
43749SOL     OW33143  13.575   7.472   9.240
43749SOL    HW133144  13.499   7.477   9.182
43749SOL    HW233145  13.637   7.535   9.203
43750SOL     OW33146  13.951   5.692   1.730
43750SOL    HW133147  13.886   5.761   1.717
43750SOL    HW233148  13.980   5.703   1.821
43751SOL     OW33149   1.103  12.946   3.766
43751SOL    HW133150   1.082  13.034   3.796
43751SOL    HW233151   1.199  12.942   3.767
43752SOL     OW33152   1.403   4.109   8.421
43752SOL    HW133153   1.348   4.075   8.350
43752SOL    HW233154   1.411   4.203   8.402
43753SOL     OW33155   4.924  12.649   3.229
43753SOL    HW133156   4.934  12.739   3.261
43753SOL    HW233157   4.845  12.652   3.175
43754SOL     OW33158  12.890  13.152   8.350
43754SOL    HW133159  12.961  13.216   8.346
43754SOL    HW233160  12.810  13.205   8.350
43755SOL     OW33161  10.126  10.975   1.518
43755SOL    HW133162  10.130  11.017   1.604
43755SOL    HW233163  10.181  10.897   1.527
43756SOL     OW33164   2.370  11.662   7.701
43756SOL    HW133165   2.342  11.577   7.734
43756SOL    HW233166   2.314  11.726   7.746
43757SOL     OW33167  10.544  14.233   3.987
43757SOL    HW133168  10.453  14.205   3.999
43757SOL    HW233169  10.548  14.319   4.029
43758SOL     OW33170  10.318  10.042   2.665
43758SOL    HW133171  10.264  10.038   2.586
43758SOL    HW233172  10.268   9.994   2.731
43759SOL     OW33173  14.167   1.245  14.573
43759SOL    HW133174  14.217   1.273  14.650
43759SOL    HW233175  14.090   1.202  14.609
43760SOL     OW33176   1.768   5.068   0.533
43760SOL    HW133177   1.691   5.026   0.572
43760SOL    HW233178   1.733   5.148   0.493
43761SOL     OW33179   6.982   9.269   5.229
43761SOL    HW133180   7.020   9.343   5.182
43761SOL    HW233181   6.908   9.241   5.175
43762SOL     OW33182  10.927   0.741  10.699
43762SOL    HW133183  10.858   0.751  10.633
43762SOL    HW233184  10.896   0.670  10.755
43763SOL     OW33185  14.821  13.618   3.313
43763SOL    HW133186  14.858  13.689   3.261
43763SOL    HW233187  14.874  13.542   3.291
43764SOL     OW33188   9.706  14.572   9.014
43764SOL    HW133189   9.634  14.516   9.045
43764SOL    HW233190   9.690  14.657   9.056
43765SOL     OW33191   7.536   5.645   3.610
43765SOL    HW133192   7.623   5.604   3.607
43765SOL    HW233193   7.553   5.733   3.642
43766SOL     OW33194  10.964  14.492   3.688
43766SOL    HW133195  10.988  14.562   3.627
43766SOL    HW233196  10.870  14.504   3.702
43767SOL     OW33197   3.815   2.396  13.381
43767SOL    HW133198   3.795   2.336  13.452
43767SOL    HW233199   3.731   2.438  13.361
43768SOL     OW33200  13.643   8.708   5.981
43768SOL    HW133201  13.663   8.801   5.969
43768SOL    HW233202  13.718   8.663   5.942
43769SOL     OW33203   6.143   6.435  12.054
43769SOL    HW133204   6.133   6.487  11.974
43769SOL    HW233205   6.097   6.354  12.036
43770SOL     OW33206   5.592   9.473   0.242
43770SOL    HW133207   5.591   9.567   0.257
43770SOL    HW233208   5.685   9.451   0.239
43771SOL     OW33209   5.834   9.387   5.255
43771SOL    HW133210   5.878   9.303   5.268
43771SOL    HW233211   5.841   9.432   5.339
43772SOL     OW33212  14.614  12.751   7.725
43772SOL    HW133213  14.655  12.698   7.794
43772SOL    HW233214  14.559  12.813   7.772
43773SOL     OW33215   7.220   4.042   2.568
43773SOL    HW133216   7.197   3.953   2.541
43773SOL    HW233217   7.155   4.064   2.635
43774SOL     OW33218  12.288  13.611  14.830
43774SOL    HW133219  12.306  13.663   0.034
43774SOL    HW233220  12.253  13.675  14.768
43775SOL     OW33221   6.772   2.901   8.567
43775SOL    HW133222   6.796   2.898   8.475
43775SOL    HW233223   6.800   2.817   8.602
43776SOL     OW33224   4.599  14.324   5.435
43776SOL    HW133225   4.551  14.312   5.518
43776SOL    HW233226   4.540  14.288   5.369
43777SOL     OW33227   0.209   8.237   3.819
43777SOL    HW133228   0.239   8.212   3.732
43777SOL    HW233229   0.284   8.282   3.858
43778SOL     OW33230   3.598  11.416  10.902
43778SOL    HW133231   3.572  11.438  10.812
43778SOL    HW233232   3.586  11.321  10.908
43779SOL     OW33233   2.748   7.206   1.635
43779SOL    HW133234   2.731   7.257   1.714
43779SOL    HW233235   2.768   7.118   1.667
43780SOL     OW33236  10.568   6.219   1.304
43780SOL    HW133237  10.491   6.186   1.257
43780SOL    HW233238  10.558   6.185   1.393
43781SOL     OW33239   6.314   0.906   0.364
43781SOL    HW133240   6.408   0.916   0.349
43781SOL    HW233241   6.295   0.967   0.435
43782SOL     OW33242   9.955   1.662  13.615
43782SOL    HW133243   9.967   1.644  13.521
43782SOL    HW233244   9.860   1.660  13.627
43783SOL     OW33245  10.685   8.487   7.599
43783SOL    HW133246  10.672   8.580   7.615
43783SOL    HW233247  10.633   8.468   7.521
43784SOL     OW33248  10.937   7.297  14.699
43784SOL    HW133249  11.027   7.273  14.679
43784SOL    HW233250  10.944   7.374  14.756
43785SOL     OW33251  10.919   4.325   2.225
43785SOL    HW133252  11.014   4.327   2.216
43785SOL    HW233253  10.893   4.417   2.227
43786SOL     OW33254   9.110  12.520   9.557
43786SOL    HW133255   9.033  12.476   9.521
43786SOL    HW233256   9.163  12.448   9.593
43787SOL     OW33257  11.753  10.630  12.947
43787SOL    HW133258  11.756  10.597  13.037
43787SOL    HW233259  11.830  10.686  12.939
43788SOL     OW33260   0.294  10.125   4.239
43788SOL    HW133261   0.298  10.157   4.149
43788SOL    HW233262   0.309  10.031   4.231
43789SOL     OW33263   1.222  13.198   1.588
43789SOL    HW133264   1.179  13.284   1.583
43789SOL    HW233265   1.152  13.138   1.616
43790SOL     OW33266   1.327  14.128   2.904
43790SOL    HW133267   1.285  14.116   2.988
43790SOL    HW233268   1.280  14.069   2.845
43791SOL     OW33269   3.765   9.805  14.498
43791SOL    HW133270   3.804   9.750  14.430
43791SOL    HW233271   3.677   9.826  14.465
43792SOL     OW33272   3.336   8.560  11.643
43792SOL    HW133273   3.343   8.607  11.559
43792SOL    HW233274   3.386   8.480  11.629
43793SOL     OW33275  11.647  10.442  10.599
43793SOL    HW133276  11.617  10.479  10.516
43793SOL    HW233277  11.569  10.403  10.638
43794SOL     OW33278   8.302   6.038   8.635
43794SOL    HW133279   8.281   6.003   8.721
43794SOL    HW233280   8.398   6.038   8.631
43795SOL     OW33281  12.429   1.332   8.413
43795SOL    HW133282  12.456   1.249   8.375
43795SOL    HW233283  12.334   1.333   8.407
43796SOL     OW33284   3.214  12.470   2.678
43796SOL    HW133285   3.146  12.537   2.671
43796SOL    HW233286   3.167  12.392   2.707
43797SOL     OW33287   3.611  12.198  12.115
43797SOL    HW133288   3.560  12.179  12.194
43797SOL    HW233289   3.666  12.121  12.103
43798SOL     OW33290   2.577  10.805   1.902
43798SOL    HW133291   2.633  10.876   1.934
43798SOL    HW233292   2.596  10.731   1.961
43799SOL     OW33293   8.246  14.392   9.070
43799SOL    HW133294   8.294  14.346   9.139
43799SOL    HW233295   8.192  14.323   9.030
43800SOL     OW33296   5.613  11.138   7.445
43800SOL    HW133297   5.675  11.206   7.420
43800SOL    HW233298   5.580  11.165   7.530
43801SOL     OW33299   2.499   5.747  11.115
43801SOL    HW133300   2.489   5.655  11.138
43801SOL    HW233301   2.475   5.751  11.022
43802SOL     OW33302   0.535   3.575   1.842
43802SOL    HW133303   0.464   3.629   1.807
43802SOL    HW233304   0.494   3.523   1.911
43803SOL     OW33305   4.108  13.500   6.486
43803SOL    HW133306   4.103  13.527   6.394
43803SOL    HW233307   4.106  13.582   6.535
43804SOL     OW33308   7.029   1.179   8.762
43804SOL    HW133309   7.036   1.204   8.670
43804SOL    HW233310   7.054   1.086   8.763
43805SOL     OW33311  11.644   3.788   6.463
43805SOL    HW133312  11.654   3.713   6.521
43805SOL    HW233313  11.733   3.806   6.430
43806SOL     OW33314  14.667   4.648  11.896
43806SOL    HW133315  14.632   4.728  11.935
43806SOL    HW233316  14.754   4.639  11.933
43807SOL     OW33317   0.349   4.744  13.501
43807SOL    HW133318   0.395   4.826  13.486
43807SOL    HW233319   0.295   4.732  13.423
43808SOL     OW33320   3.934   3.949   7.916
43808SOL    HW133321   3.978   3.880   7.967
43808SOL    HW233322   3.911   4.014   7.982
43809SOL     OW33323   4.072   4.419   2.927
43809SOL    HW133324   4.079   4.361   2.850
43809SOL    HW233325   4.161   4.452   2.940
43810SOL     OW33326  14.492  10.856  10.089
43810SOL    HW133327  14.543  10.776  10.078
43810SOL    HW233328  14.470  10.882  10.000
43811SOL     OW33329   9.956  14.239  11.601
43811SOL    HW133330   9.869  14.274  11.619
43811SOL    HW233331   9.963  14.163  11.658
43812SOL     OW33332  14.072   0.226  12.368
43812SOL    HW133333  13.994   0.240  12.422
43812SOL    HW233334  14.088   0.312  12.328
43813SOL     OW33335   8.935   2.355  14.720
43813SOL    HW133336   8.965   2.335  14.808
43813SOL    HW233337   8.911   2.448  14.722
43814SOL     OW33338   6.261  14.817   0.306
43814SOL    HW133339   6.277  14.813   0.400
43814SOL    HW233340   6.244  14.726   0.281
43815SOL     OW33341   5.038  13.733  10.263
43815SOL    HW133342   4.988  13.704  10.187
43815SOL    HW233343   5.124  13.692  10.253
43816SOL     OW33344   0.207  13.111  12.553
43816SOL    HW133345   0.200  13.061  12.472
43816SOL    HW233346   0.282  13.169  12.539
43817SOL     OW33347   6.651   2.574  10.931
43817SOL    HW133348   6.569   2.546  10.972
43817SOL    HW233349   6.670   2.659  10.971
43818SOL     OW33350   8.162   9.383   6.715
43818SOL    HW133351   8.109   9.459   6.736
43818SOL    HW233352   8.188   9.347   6.799
43819SOL     OW33353   4.303   2.351   6.622
43819SOL    HW133354   4.333   2.442   6.622
43819SOL    HW233355   4.240   2.347   6.694
43820SOL     OW33356  13.877   0.616   6.452
43820SOL    HW133357  13.788   0.645   6.474
43820SOL    HW233358  13.883   0.528   6.489
43821SOL     OW33359   7.272   7.605  11.484
43821SOL    HW133360   7.203   7.544  11.460
43821SOL    HW233361   7.314   7.628  11.401
43822SOL     OW33362  11.395   5.757  11.793
43822SOL    HW133363  11.448   5.690  11.751
43822SOL    HW233364  11.393   5.829  11.731
43823SOL     OW33365   6.417   6.083  13.779
43823SOL    HW133366   6.463   6.128  13.708
43823SOL    HW233367   6.358   6.023  13.733
43824SOL     OW33368   7.108   2.903   0.669
43824SOL    HW133369   7.102   2.836   0.737
43824SOL    HW233370   7.018   2.913   0.638
43825SOL     OW33371   2.371   8.445   9.567
43825SOL    HW133372   2.300   8.475   9.624
43825SOL    HW233373   2.446   8.436   9.625
43826SOL     OW33374   9.573   0.839   3.285
43826SOL    HW133375   9.638   0.771   3.303
43826SOL    HW233376   9.614   0.896   3.220
43827SOL     OW33377   2.612  13.674   0.001
43827SOL    HW133378   2.523  13.709  14.871
43827SOL    HW233379   2.620  13.644   0.091
43828SOL     OW33380  13.151   0.336   7.947
43828SOL    HW133381  13.172   0.314   8.038
43828SOL    HW233382  13.056   0.347   7.945
43829SOL     OW33383  10.203  13.241   0.114
43829SOL    HW133384  10.241  13.268   0.197
43829SOL    HW233385  10.120  13.289   0.108
43830SOL     OW33386  14.716  11.962  13.733
43830SOL    HW133387  14.647  11.912  13.689
43830SOL    HW233388  14.697  11.951  13.826
43831SOL     OW33389   7.486   6.346  10.649
43831SOL    HW133390   7.575   6.313  10.635
43831SOL    HW233391   7.497   6.424  10.704
43832SOL     OW33392   2.100   8.650  12.351
43832SOL    HW133393   2.083   8.558  12.329
43832SOL    HW233394   2.083   8.655  12.445
43833SOL     OW33395   7.757   4.856   5.012
43833SOL    HW133396   7.738   4.836   5.103
43833SOL    HW233397   7.824   4.924   5.015
43834SOL     OW33398  11.479   9.751  11.620
43834SOL    HW133399  11.389   9.731  11.593
43834SOL    HW233400  11.531   9.735  11.541
43835SOL     OW33401  11.724   8.151  11.289
43835SOL    HW133402  11.684   8.229  11.328
43835SOL    HW233403  11.722   8.167  11.195
43836SOL     OW33404   5.925   6.117   4.008
43836SOL    HW133405   5.908   6.036   4.056
43836SOL    HW233406   5.889   6.186   4.063
43837SOL     OW33407   0.371  11.065  10.398
43837SOL    HW133408   0.389  10.980  10.357
43837SOL    HW233409   0.395  11.129  10.331
43838SOL     OW33410   5.846   8.647  12.174
43838SOL    HW133411   5.781   8.635  12.104
43838SOL    HW233412   5.811   8.595  12.247
43839SOL     OW33413  10.528  10.573  11.813
43839SOL    HW133414  10.530  10.660  11.773
43839SOL    HW233415  10.529  10.513  11.738
43840SOL     OW33416   2.020  10.136   7.496
43840SOL    HW133417   2.014  10.226   7.466
43840SOL    HW233418   1.970  10.086   7.432
43841SOL     OW33419  12.746  11.577   7.770
43841SOL    HW133420  12.688  11.652   7.780
43841SOL    HW233421  12.744  11.534   7.856
43842SOL     OW33422   8.210   9.611   0.744
43842SOL    HW133423   8.120   9.620   0.774
43842SOL    HW233424   8.263   9.648   0.814
43843SOL     OW33425   5.396  12.383  14.782
43843SOL    HW133426   5.436  12.318  14.724
43843SOL    HW233427   5.314  12.406  14.740
43844SOL     OW33428  13.156   2.091  13.756
43844SOL    HW133429  13.097   2.046  13.816
43844SOL    HW233430  13.200   2.021  13.709
43845SOL     OW33431   5.040   1.161  10.729
43845SOL    HW133432   5.030   1.120  10.815
43845SOL    HW233433   5.114   1.221  10.740
43846SOL     OW33434   1.566   2.405   4.004
43846SOL    HW133435   1.623   2.380   4.076
43846SOL    HW233436   1.542   2.496   4.023
43847SOL     OW33437   7.050   6.503  12.663
43847SOL    HW133438   7.094   6.584  12.637
43847SOL    HW233439   7.116   6.434  12.649
43848SOL     OW33440   2.514  11.810  11.154
43848SOL    HW133441   2.568  11.886  11.175
43848SOL    HW233442   2.483  11.779  11.239
43849SOL     OW33443   8.938   1.158   9.804
43849SOL    HW133444   8.894   1.202   9.877
43849SOL    HW233445   8.867   1.119   9.753
43850SOL     OW33446  11.316   3.991   1.071
43850SOL    HW133447  11.305   4.044   1.150
43850SOL    HW233448  11.305   4.053   0.999
43851SOL     OW33449   7.798   9.334   4.780
43851SOL    HW133450   7.798   9.419   4.736
43851SOL    HW233451   7.886   9.298   4.764
43852SOL     OW33452   3.152   8.169   6.384
43852SOL    HW133453   3.132   8.081   6.417
43852SOL    HW233454   3.071   8.218   6.396
43853SOL     OW33455   7.352  12.307   8.274
43853SOL    HW133456   7.432  12.256   8.287
43853SOL    HW233457   7.352  12.370   8.346
43854SOL     OW33458  12.465   4.797   9.540
43854SOL    HW133459  12.475   4.889   9.515
43854SOL    HW233460  12.543   4.754   9.506
43855SOL     OW33461  14.193   7.051   2.286
43855SOL    HW133462  14.154   6.964   2.299
43855SOL    HW233463  14.228   7.048   2.198
43856SOL     OW33464   2.300   3.858   5.273
43856SOL    HW133465   2.245   3.905   5.210
43856SOL    HW233466   2.239   3.799   5.318
43857SOL     OW33467   0.295   4.242  11.866
43857SOL    HW133468   0.324   4.278  11.951
43857SOL    HW233469   0.209   4.204  11.884
43858SOL     OW33470   7.098  10.731   1.648
43858SOL    HW133471   7.112  10.819   1.682
43858SOL    HW233472   7.080  10.744   1.555
43859SOL     OW33473   7.139   6.213  10.887
43859SOL    HW133474   7.187   6.130  10.885
43859SOL    HW233475   7.117   6.230  10.795
43860SOL     OW33476   2.325  12.105  13.549
43860SOL    HW133477   2.270  12.173  13.587
43860SOL    HW233478   2.373  12.068  13.623
43861SOL     OW33479   6.686   0.106  11.818
43861SOL    HW133480   6.702   0.112  11.724
43861SOL    HW233481   6.770   0.079  11.855
43862SOL     OW33482  14.407  12.657  12.988
43862SOL    HW133483  14.475  12.713  12.951
43862SOL    HW233484  14.440  12.568  12.977
43863SOL     OW33485   8.508  10.777  11.868
43863SOL    HW133486   8.575  10.832  11.909
43863SOL    HW233487   8.454  10.839  11.819
43864SOL     OW33488   9.714  12.127   3.761
43864SOL    HW133489   9.807  12.149   3.759
43864SOL    HW233490   9.672  12.203   3.800
43865SOL     OW33491   5.387   9.852   2.775
43865SOL    HW133492   5.435   9.836   2.856
43865SOL    HW233493   5.306   9.802   2.784
43866SOL     OW33494  13.406   5.072   0.818
43866SOL    HW133495  13.333   5.015   0.843
43866SOL    HW233496  13.378   5.113   0.736
43867SOL     OW33497   9.849  14.030  12.666
43867SOL    HW133498   9.918  14.087  12.634
43867SOL    HW233499   9.858  13.950  12.614
43868SOL     OW33500   3.758  10.561  12.745
43868SOL    HW133501   3.718  10.513  12.818
43868SOL    HW233502   3.731  10.652  12.760
43869SOL     OW33503   8.190   7.103   6.428
43869SOL    HW133504   8.231   7.155   6.497
43869SOL    HW233505   8.152   7.028   6.474
43870SOL     OW33506  10.296   9.586   3.531
43870SOL    HW133507  10.389   9.571   3.518
43870SOL    HW233508  10.259   9.583   3.442
43871SOL     OW33509  14.535  12.218   7.263
43871SOL    HW133510  14.491  12.202   7.347
43871SOL    HW233511  14.489  12.294   7.227
43872SOL     OW33512   1.844   2.877   9.138
43872SOL    HW133513   1.821   2.872   9.230
43872SOL    HW233514   1.835   2.787   9.106
43873SOL     OW33515  11.237  13.940   7.456
43873SOL    HW133516  11.299  14.013   7.463
43873SOL    HW233517  11.274  13.873   7.514
43874SOL     OW33518   7.101   9.393   5.730
43874SOL    HW133519   7.078   9.367   5.819
43874SOL    HW233520   7.021   9.376   5.679
43875SOL     OW33521   7.137   1.281   1.702
43875SOL    HW133522   7.218   1.259   1.656
43875SOL    HW233523   7.071   1.286   1.633
43876SOL     OW33524   4.129   1.216   6.546
43876SOL    HW133525   4.218   1.227   6.515
43876SOL    HW233526   4.121   1.122   6.562
43877SOL     OW33527   5.105  13.510  11.124
43877SOL    HW133528   5.017  13.511  11.086
43877SOL    HW233529   5.106  13.585  11.184
43878SOL     OW33530  10.021  11.707   9.076
43878SOL    HW133531  10.035  11.797   9.107
43878SOL    HW233532  10.108  11.678   9.050
43879SOL     OW33533  13.010  10.912  13.080
43879SOL    HW133534  13.072  10.931  13.151
43879SOL    HW233535  12.968  10.830  13.107
43880SOL     OW33536   3.381   7.995   4.107
43880SOL    HW133537   3.411   8.026   4.193
43880SOL    HW233538   3.358   8.075   4.060
43881SOL     OW33539  10.301  13.282  12.510
43881SOL    HW133540  10.351  13.350  12.466
43881SOL    HW233541  10.220  13.275  12.459
43882SOL     OW33542   0.580  11.006   1.185
43882SOL    HW133543   0.528  11.030   1.262
43882SOL    HW233544   0.560  11.075   1.121
43883SOL     OW33545  11.433   9.662  12.573
43883SOL    HW133546  11.403   9.594  12.511
43883SOL    HW233547  11.424   9.744  12.524
43884SOL     OW33548   7.402   6.781   0.344
43884SOL    HW133549   7.336   6.716   0.369
43884SOL    HW233550   7.483   6.730   0.335
43885SOL     OW33551   4.942   8.924   8.451
43885SOL    HW133552   4.983   8.947   8.368
43885SOL    HW233553   4.958   8.830   8.461
43886SOL     OW33554   3.976   8.048   7.462
43886SOL    HW133555   3.901   8.074   7.408
43886SOL    HW233556   4.013   7.972   7.416
43887SOL     OW33557  14.116  11.560   3.671
43887SOL    HW133558  14.069  11.569   3.754
43887SOL    HW233559  14.075  11.624   3.613
43888SOL     OW33560  14.081  13.787   4.388
43888SOL    HW133561  14.069  13.769   4.295
43888SOL    HW233562  14.145  13.721   4.417
43889SOL     OW33563   0.264   4.824  11.960
43889SOL    HW133564   0.335   4.841  12.022
43889SOL    HW233565   0.286   4.876  11.883
43890SOL     OW33566   9.435   9.176   0.915
43890SOL    HW133567   9.398   9.231   0.984
43890SOL    HW233568   9.407   9.217   0.834
43891SOL     OW33569   9.777   6.848   6.522
43891SOL    HW133570   9.729   6.805   6.451
43891SOL    HW233571   9.709   6.878   6.582
43892SOL     OW33572  13.447   4.724   1.487
43892SOL    HW133573  13.437   4.635   1.453
43892SOL    HW233574  13.542   4.737   1.491
43893SOL     OW33575   0.705   1.518   1.484
43893SOL    HW133576   0.681   1.470   1.404
43893SOL    HW233577   0.744   1.451   1.541
43894SOL     OW33578   5.095   6.755   9.905
43894SOL    HW133579   5.061   6.837   9.869
43894SOL    HW233580   5.040   6.739   9.982
43895SOL     OW33581   0.513   3.565   8.715
43895SOL    HW133582   0.424   3.590   8.690
43895SOL    HW233583   0.503   3.486   8.767
43896SOL     OW33584  12.708  12.998   0.354
43896SOL    HW133585  12.670  12.980   0.269
43896SOL    HW233586  12.780  13.059   0.336
43897SOL     OW33587   7.786   1.923   4.255
43897SOL    HW133588   7.800   2.017   4.266
43897SOL    HW233589   7.781   1.911   4.160
43898SOL     OW33590   5.097   7.817  11.254
43898SOL    HW133591   5.180   7.776  11.231
43898SOL    HW233592   5.109   7.846  11.345
43899SOL     OW33593   6.877  13.230   2.905
43899SOL    HW133594   6.805  13.233   2.967
43899SOL    HW233595   6.948  13.278   2.948
43900SOL     OW33596  11.689   9.509   0.143
43900SOL    HW133597  11.668   9.592   0.185
43900SOL    HW233598  11.746   9.533   0.070
43901SOL     OW33599  11.719  13.866  14.659
43901SOL    HW133600  11.719  13.886  14.753
43901SOL    HW233601  11.772  13.787  14.651
43902SOL     OW33602   9.356  14.396   7.921
43902SOL    HW133603   9.309  14.335   7.863
43902SOL    HW233604   9.424  14.434   7.866
43903SOL     OW33605   9.383   3.404   7.711
43903SOL    HW133606   9.352   3.493   7.696
43903SOL    HW233607   9.324   3.348   7.661
43904SOL     OW33608  13.224   4.616   6.093
43904SOL    HW133609  13.268   4.697   6.065
43904SOL    HW233610  13.244   4.553   6.025
43905SOL     OW33611  10.487   4.475  13.628
43905SOL    HW133612  10.525   4.562  13.614
43905SOL    HW233613  10.425   4.464  13.556
43906SOL     OW33614   6.188  11.135   4.562
43906SOL    HW133615   6.273  11.178   4.571
43906SOL    HW233616   6.205  11.060   4.505
43907SOL     OW33617   2.932  14.672   2.894
43907SOL    HW133618   2.951  14.593   2.946
43907SOL    HW233619   2.873  14.641   2.825
43908SOL     OW33620   4.379   1.500   6.714
43908SOL    HW133621   4.321   1.554   6.768
43908SOL    HW233622   4.442   1.562   6.677
43909SOL     OW33623   4.915   7.502  12.113
43909SOL    HW133624   4.965   7.584  12.113
43909SOL    HW233625   4.948   7.454  12.038
43910SOL     OW33626   1.987   4.121   8.877
43910SOL    HW133627   1.929   4.193   8.853
43910SOL    HW233628   2.045   4.111   8.801
43911SOL     OW33629   6.172  13.890   5.516
43911SOL    HW133630   6.145  13.923   5.602
43911SOL    HW233631   6.197  13.799   5.532
43912SOL     OW33632  11.234   6.458   1.480
43912SOL    HW133633  11.289   6.457   1.401
43912SOL    HW233634  11.155   6.505   1.454
43913SOL     OW33635  10.290   5.233   7.389
43913SOL    HW133636  10.200   5.239   7.359
43913SOL    HW233637  10.326   5.158   7.342
43914SOL     OW33638  13.122   1.659  12.921
43914SOL    HW133639  13.105   1.638  13.013
43914SOL    HW233640  13.038   1.690  12.887
43915SOL     OW33641  13.694   0.092   1.266
43915SOL    HW133642  13.713   0.110   1.358
43915SOL    HW233643  13.720   0.001   1.254
43916SOL     OW33644   8.001  11.913  14.523
43916SOL    HW133645   8.095  11.932  14.526
43916SOL    HW233646   7.996  11.824  14.489
43917SOL     OW33647   9.895   1.438   1.058
43917SOL    HW133648   9.878   1.508   1.120
43917SOL    HW233649   9.829   1.449   0.990
43918SOL     OW33650   5.438   1.845  11.384
43918SOL    HW133651   5.436   1.790  11.306
43918SOL    HW233652   5.477   1.789  11.452
43919SOL     OW33653   9.432  12.891   2.147
43919SOL    HW133654   9.470  12.848   2.223
43919SOL    HW233655   9.455  12.835   2.073
43920SOL     OW33656   5.609  12.778   1.409
43920SOL    HW133657   5.669  12.839   1.367
43920SOL    HW233658   5.598  12.812   1.497
43921SOL     OW33659   3.789   1.247  14.405
43921SOL    HW133660   3.795   1.337  14.436
43921SOL    HW233661   3.877   1.211  14.418
43922SOL     OW33662  13.100   4.077   2.784
43922SOL    HW133663  13.097   4.113   2.696
43922SOL    HW233664  13.077   3.984   2.773
43923SOL     OW33665   9.687   1.833  13.470
43923SOL    HW133666   9.624   1.787  13.526
43923SOL    HW233667   9.690   1.922  13.506
43924SOL     OW33668  11.253   3.259  10.925
43924SOL    HW133669  11.198   3.327  10.886
43924SOL    HW233670  11.261   3.284  11.017
43925SOL     OW33671  13.403  13.883  13.197
43925SOL    HW133672  13.433  13.900  13.108
43925SOL    HW233673  13.439  13.956  13.248
43926SOL     OW33674   2.963   5.706   6.555
43926SOL    HW133675   2.997   5.639   6.614
43926SOL    HW233676   3.029   5.775   6.557
43927SOL     OW33677   0.438   7.969  14.086
43927SOL    HW133678   0.515   8.010  14.047
43927SOL    HW233679   0.411   7.903  14.022
43928SOL     OW33680   9.736  14.084  13.211
43928SOL    HW133681   9.742  13.991  13.230
43928SOL    HW233682   9.692  14.122  13.287
43929SOL     OW33683   0.644   4.176   0.125
43929SOL    HW133684   0.710   4.246   0.118
43929SOL    HW233685   0.572   4.205   0.069
43930SOL     OW33686  11.528   9.194  14.840
43930SOL    HW133687  11.452   9.230  14.794
43930SOL    HW233688  11.512   9.100  14.844
43931SOL     OW33689  14.597   3.106   9.606
43931SOL    HW133690  14.614   3.069   9.692
43931SOL    HW233691  14.506   3.081   9.586
43932SOL     OW33692   2.353   0.113   7.972
43932SOL    HW133693   2.406   0.182   8.014
43932SOL    HW233694   2.417   0.060   7.924
43933SOL     OW33695   7.545   6.150   7.507
43933SOL    HW133696   7.537   6.076   7.448
43933SOL    HW233697   7.490   6.218   7.468
43934SOL     OW33698  12.602   3.247   6.160
43934SOL    HW133699  12.684   3.219   6.120
43934SOL    HW233700  12.565   3.168   6.198
43935SOL     OW33701   1.769   0.950   2.310
43935SOL    HW133702   1.673   0.950   2.313
43935SOL    HW233703   1.794   1.020   2.371
43936SOL     OW33704   3.163   3.385   2.675
43936SOL    HW133705   3.164   3.481   2.681
43936SOL    HW233706   3.122   3.357   2.756
43937SOL     OW33707   3.180  13.552  13.526
43937SOL    HW133708   3.093  13.591  13.525
43937SOL    HW233709   3.226  13.597  13.597
43938SOL     OW33710  14.096  10.297   3.410
43938SOL    HW133711  14.142  10.246   3.477
43938SOL    HW233712  14.157  10.367   3.388
43939SOL     OW33713  12.053  10.109   1.760
43939SOL    HW133714  12.031  10.080   1.672
43939SOL    HW233715  11.987  10.176   1.780
43940SOL     OW33716   3.316  14.843   3.002
43940SOL    HW133717   3.352   0.004   3.083
43940SOL    HW233718   3.221  14.849   3.012
43941SOL     OW33719   7.063   6.212   3.755
43941SOL    HW133720   7.034   6.120   3.758
43941SOL    HW233721   7.159   6.206   3.760
43942SOL     OW33722  11.350  11.072   7.185
43942SOL    HW133723  11.375  10.988   7.146
43942SOL    HW233724  11.302  11.049   7.264
43943SOL     OW33725   5.025   2.052   1.621
43943SOL    HW133726   5.046   1.969   1.663
43943SOL    HW233727   4.944   2.035   1.573
43944SOL     OW33728  10.151   1.548   6.328
43944SOL    HW133729  10.114   1.635   6.314
43944SOL    HW233730  10.240   1.554   6.292
43945SOL     OW33731   5.112   8.468   5.831
43945SOL    HW133732   5.180   8.449   5.896
43945SOL    HW233733   5.116   8.395   5.770
43946SOL     OW33734   9.557  10.615   0.880
43946SOL    HW133735   9.637  10.659   0.851
43946SOL    HW233736   9.569  10.524   0.853
43947SOL     OW33737  11.070   6.406   7.948
43947SOL    HW133738  11.038   6.316   7.957
43947SOL    HW233739  11.104   6.427   8.036
43948SOL     OW33740   9.780   4.493   0.040
43948SOL    HW133741   9.857   4.448   0.075
43948SOL    HW233742   9.755   4.555   0.109
43949SOL     OW33743   2.696   2.648   4.287
43949SOL    HW133744   2.782   2.610   4.304
43949SOL    HW233745   2.686   2.716   4.354
43950SOL     OW33746   4.294  10.230   0.627
43950SOL    HW133747   4.214  10.269   0.591
43950SOL    HW233748   4.316  10.285   0.702
43951SOL     OW33749   3.718  13.595  13.160
43951SOL    HW133750   3.723  13.598  13.256
43951SOL    HW233751   3.624  13.590  13.141
43952SOL     OW33752   8.733   4.570  14.573
43952SOL    HW133753   8.812   4.622  14.558
43952SOL    HW233754   8.760   4.479  14.562
43953SOL     OW33755  11.661   2.213  10.969
43953SOL    HW133756  11.744   2.166  10.969
43953SOL    HW233757  11.673   2.283  10.905
43954SOL     OW33758   4.087   6.672  11.717
43954SOL    HW133759   4.155   6.739  11.705
43954SOL    HW233760   4.041   6.699  11.797
43955SOL     OW33761   5.421   8.492  14.039
43955SOL    HW133762   5.386   8.406  14.012
43955SOL    HW233763   5.513   8.489  14.012
43956SOL     OW33764   5.527  13.867   2.568
43956SOL    HW133765   5.534  13.781   2.528
43956SOL    HW233766   5.460  13.857   2.636
43957SOL     OW33767   8.815   6.402  13.785
43957SOL    HW133768   8.746   6.467  13.792
43957SOL    HW233769   8.831   6.374  13.875
43958SOL     OW33770   4.497  12.398  10.774
43958SOL    HW133771   4.577  12.352  10.748
43958SOL    HW233772   4.429  12.331  10.771
43959SOL     OW33773   6.237   8.051  12.346
43959SOL    HW133774   6.195   7.984  12.400
43959SOL    HW233775   6.165   8.106  12.316
43960SOL     OW33776  13.540   8.927   3.187
43960SOL    HW133777  13.592   8.863   3.235
43960SOL    HW233778  13.593   9.007   3.188
43961SOL     OW33779   7.570   5.888   2.339
43961SOL    HW133780   7.495   5.948   2.342
43961SOL    HW233781   7.627   5.924   2.271
43962SOL     OW33782   6.194   9.138   6.757
43962SOL    HW133783   6.164   9.173   6.673
43962SOL    HW233784   6.116   9.137   6.812
43963SOL     OW33785   1.935   4.104   2.885
43963SOL    HW133786   1.947   4.174   2.949
43963SOL    HW233787   1.842   4.083   2.889
43964SOL     OW33788   9.287   4.879   1.476
43964SOL    HW133789   9.199   4.906   1.450
43964SOL    HW233790   9.295   4.907   1.567
43965SOL     OW33791  14.305  14.807   1.071
43965SOL    HW133792  14.332  14.820   0.980
43965SOL    HW233793  14.218  14.845   1.075
43966SOL     OW33794  10.385  12.194   9.213
43966SOL    HW133795  10.437  12.145   9.149
43966SOL    HW233796  10.380  12.137   9.289
43967SOL     OW33797   0.255  10.425  12.049
43967SOL    HW133798   0.337  10.397  12.009
43967SOL    HW233799   0.267  10.518  12.067
43968SOL     OW33800   8.450   0.239   7.130
43968SOL    HW133801   8.438   0.171   7.196
43968SOL    HW233802   8.424   0.199   7.048
43969SOL     OW33803   0.389  14.427  10.773
43969SOL    HW133804   0.312  14.400  10.722
43969SOL    HW233805   0.354  14.488  10.838
43970SOL     OW33806   2.183   7.964  12.915
43970SOL    HW133807   2.218   7.916  12.840
43970SOL    HW233808   2.170   7.898  12.982
43971SOL     OW33809   1.695   6.231  11.572
43971SOL    HW133810   1.690   6.217  11.666
43971SOL    HW233811   1.774   6.283  11.559
43972SOL     OW33812   1.624   4.531   7.296
43972SOL    HW133813   1.634   4.626   7.303
43972SOL    HW233814   1.533   4.519   7.266
43973SOL     OW33815   2.062  13.386  11.760
43973SOL    HW133816   2.125  13.340  11.814
43973SOL    HW233817   2.039  13.464  11.811
43974SOL     OW33818   4.440  11.845   1.107
43974SOL    HW133819   4.389  11.913   1.152
43974SOL    HW233820   4.526  11.848   1.148
43975SOL     OW33821   2.749   9.772   3.972
43975SOL    HW133822   2.683   9.761   3.903
43975SOL    HW233823   2.750   9.866   3.990
43976SOL     OW33824  13.015  14.403  14.253
43976SOL    HW133825  13.080  14.445  14.310
43976SOL    HW233826  12.934  14.406  14.303
43977SOL     OW33827  10.569   4.656   9.192
43977SOL    HW133828  10.578   4.750   9.177
43977SOL    HW233829  10.620   4.616   9.121
43978SOL     OW33830   0.626   9.052  13.846
43978SOL    HW133831   0.646   8.990  13.776
43978SOL    HW233832   0.670   9.132  13.821
43979SOL     OW33833   4.820   0.153  12.920
43979SOL    HW133834   4.754   0.201  12.969
43979SOL    HW233835   4.886   0.130  12.985
43980SOL     OW33836   6.120   7.368  12.411
43980SOL    HW133837   6.216   7.359  12.413
43980SOL    HW233838   6.088   7.289  12.454
43981SOL     OW33839   2.233  12.213  11.363
43981SOL    HW133840   2.285  12.176  11.435
43981SOL    HW233841   2.292  12.275  11.320
43982SOL     OW33842   6.696  13.785   5.364
43982SOL    HW133843   6.691  13.825   5.277
43982SOL    HW233844   6.659  13.697   5.352
43983SOL     OW33845   1.478  13.636   4.292
43983SOL    HW133846   1.563  13.671   4.266
43983SOL    HW233847   1.499  13.563   4.350
43984SOL     OW33848   2.399  14.001  12.108
43984SOL    HW133849   2.325  13.941  12.117
43984SOL    HW233850   2.430  14.013  12.198
43985SOL     OW33851   0.638   7.224   9.771
43985SOL    HW133852   0.604   7.153   9.716
43985SOL    HW233853   0.560   7.273   9.798
43986SOL     OW33854   8.571  13.917   8.609
43986SOL    HW133855   8.541  13.864   8.683
43986SOL    HW233856   8.500  13.979   8.595
43987SOL     OW33857   9.497   6.170  14.050
43987SOL    HW133858   9.447   6.234  14.101
43987SOL    HW233859   9.507   6.211  13.964
43988SOL     OW33860   1.230   7.086  12.397
43988SOL    HW133861   1.292   7.113  12.329
43988SOL    HW233862   1.235   6.991  12.398
43989SOL     OW33863  11.184   4.641   1.154
43989SOL    HW133864  11.183   4.620   1.247
43989SOL    HW233865  11.274   4.624   1.126
43990SOL     OW33866   6.093  14.797   1.944
43990SOL    HW133867   5.999  14.779   1.944
43990SOL    HW233868   6.108  14.849   2.023
43991SOL     OW33869   0.268   4.544   3.002
43991SOL    HW133870   0.336   4.481   3.027
43991SOL    HW233871   0.293   4.572   2.914
43992SOL     OW33872   3.874   4.885   0.514
43992SOL    HW133873   3.915   4.960   0.557
43992SOL    HW233874   3.930   4.811   0.538
43993SOL     OW33875  14.184  10.667   9.344
43993SOL    HW133876  14.122  10.598   9.366
43993SOL    HW233877  14.270  10.627   9.358
43994SOL     OW33878   1.521  10.866  12.677
43994SOL    HW133879   1.542  10.902  12.591
43994SOL    HW233880   1.522  10.943  12.735
43995SOL     OW33881  14.709   9.698   4.231
43995SOL    HW133882  14.703   9.728   4.322
43995SOL    HW233883  14.629   9.730   4.190
43996SOL     OW33884   3.852   5.796   3.527
43996SOL    HW133885   3.851   5.730   3.597
43996SOL    HW233886   3.936   5.839   3.536
43997SOL     OW33887   1.530   6.337  14.375
43997SOL    HW133888   1.520   6.242  14.364
43997SOL    HW233889   1.621   6.349  14.403
43998SOL     OW33890   6.106   2.937  11.072
43998SOL    HW133891   6.013   2.947  11.053
43998SOL    HW233892   6.112   2.949  11.167
43999SOL     OW33893   1.442   5.981  11.610
43999SOL    HW133894   1.392   5.913  11.656
43999SOL    HW233895   1.529   5.978  11.651
44000SOL     OW33896   2.309   0.476   0.708
44000SOL    HW133897   2.363   0.421   0.652
44000SOL    HW233898   2.312   0.563   0.666
44001SOL     OW33899   4.527   6.186   8.153
44001SOL    HW133900   4.611   6.168   8.111
44001SOL    HW233901   4.500   6.102   8.190
44002SOL     OW33902   5.301  11.042   9.318
44002SOL    HW133903   5.376  11.058   9.261
44002SOL    HW233904   5.325  11.082   9.402
44003SOL     OW33905   0.979   2.627   8.732
44003SOL    HW133906   1.006   2.629   8.640
44003SOL    HW233907   0.986   2.535   8.756
44004SOL     OW33908   7.392  12.385  12.290
44004SOL    HW133909   7.340  12.410  12.366
44004SOL    HW233910   7.384  12.460  12.231
44005SOL     OW33911   1.969   3.821  10.517
44005SOL    HW133912   1.969   3.898  10.459
44005SOL    HW233913   1.991   3.748  10.460
44006SOL     OW33914   2.761   2.134  10.860
44006SOL    HW133915   2.724   2.115  10.946
44006SOL    HW233916   2.753   2.052  10.812
44007SOL     OW33917  14.489   5.609   2.044
44007SOL    HW133918  14.556   5.676   2.060
44007SOL    HW233919  14.414   5.637   2.096
44008SOL     OW33920   7.178  12.060  14.647
44008SOL    HW133921   7.196  12.016  14.730
44008SOL    HW233922   7.243  12.130  14.643
44009SOL     OW33923  14.310   6.651  13.403
44009SOL    HW133924  14.292   6.697  13.321
44009SOL    HW233925  14.225   6.618  13.432
44010SOL     OW33926   0.821   2.685   4.939
44010SOL    HW133927   0.887   2.754   4.928
44010SOL    HW233928   0.864   2.618   4.992
44011SOL     OW33929  11.590   1.830  10.551
44011SOL    HW133930  11.638   1.912  10.548
44011SOL    HW233931  11.517   1.842  10.491
44012SOL     OW33932   9.383   6.545   6.395
44012SOL    HW133933   9.372   6.485   6.469
44012SOL    HW233934   9.355   6.495   6.319
44013SOL     OW33935   3.813   5.380  10.200
44013SOL    HW133936   3.791   5.309  10.261
44013SOL    HW233937   3.905   5.363  10.177
44014SOL     OW33938   4.102  14.108  13.094
44014SOL    HW133939   4.108  14.202  13.108
44014SOL    HW233940   4.134  14.069  13.175
44015SOL     OW33941   8.907   6.693   9.295
44015SOL    HW133942   8.909   6.597   9.305
44015SOL    HW233943   8.904   6.726   9.384
44016SOL     OW33944  11.783  12.126   3.242
44016SOL    HW133945  11.804  12.157   3.331
44016SOL    HW233946  11.826  12.040   3.236
44017SOL     OW33947   2.798   6.112   5.077
44017SOL    HW133948   2.839   6.038   5.032
44017SOL    HW233949   2.795   6.181   5.011
44018SOL     OW33950  10.996   4.764   1.447
44018SOL    HW133951  10.969   4.814   1.524
44018SOL    HW233952  10.913   4.742   1.403
44019SOL     OW33953   8.508   4.966   9.806
44019SOL    HW133954   8.445   4.914   9.755
44019SOL    HW233955   8.585   4.910   9.814
44020SOL     OW33956  10.128  10.328   3.968
44020SOL    HW133957  10.139  10.369   3.882
44020SOL    HW233958  10.157  10.237   3.955
44021SOL     OW33959  12.601   5.917   9.812
44021SOL    HW133960  12.685   5.871   9.812
44021SOL    HW233961  12.569   5.910   9.902
44022SOL     OW33962  10.138   3.196   0.594
44022SOL    HW133963  10.043   3.179   0.595
44022SOL    HW233964  10.176   3.115   0.560
44023SOL     OW33965   7.533  10.797   9.911
44023SOL    HW133966   7.463  10.744   9.872
44023SOL    HW233967   7.601  10.800   9.844
44024SOL     OW33968  10.342   3.304   6.210
44024SOL    HW133969  10.375   3.375   6.266
44024SOL    HW233970  10.306   3.240   6.271
44025SOL     OW33971   2.715  13.887  14.688
44025SOL    HW133972   2.653  13.853  14.623
44025SOL    HW233973   2.716  13.821  14.758
44026SOL     OW33974  12.510  13.796   0.269
44026SOL    HW133975  12.556  13.716   0.244
44026SOL    HW233976  12.580  13.858   0.292
44027SOL     OW33977   0.058   3.563  12.614
44027SOL    HW133978   0.096   3.598  12.533
44027SOL    HW233979   0.132   3.553  12.673
44028SOL     OW33980   3.550   9.095   8.989
44028SOL    HW133981   3.457   9.107   8.970
44028SOL    HW233982   3.581   9.037   8.919
44029SOL     OW33983   5.184   7.634   0.292
44029SOL    HW133984   5.107   7.598   0.337
44029SOL    HW233985   5.258   7.595   0.338
44030SOL     OW33986   1.766   6.832   1.391
44030SOL    HW133987   1.858   6.851   1.410
44030SOL    HW233988   1.719   6.905   1.430
44031SOL     OW33989  12.555   8.203   4.275
44031SOL    HW133990  12.581   8.266   4.208
44031SOL    HW233991  12.585   8.241   4.358
44032SOL     OW33992   1.771   0.671   2.362
44032SOL    HW133993   1.750   0.638   2.449
44032SOL    HW233994   1.770   0.766   2.372
44033SOL     OW33995  14.034  11.611  13.713
44033SOL    HW133996  14.093  11.605  13.788
44033SOL    HW233997  14.049  11.529  13.664
44034SOL     OW33998  10.226   8.439  13.493
44034SOL    HW133999  10.238   8.527  13.458
44034SOL    HW234000  10.298   8.388  13.455
44035SOL     OW34001  12.160  11.256   3.961
44035SOL    HW134002  12.235  11.313   3.981
44035SOL    HW234003  12.086  11.316   3.951
44036SOL     OW34004  13.749  12.139  13.385
44036SOL    HW134005  13.680  12.190  13.343
44036SOL    HW234006  13.829  12.167  13.340
44037SOL     OW34007  11.418   5.046   7.529
44037SOL    HW134008  11.490   5.058   7.467
44037SOL    HW234009  11.363   4.980   7.488
44038SOL     OW34010  10.187  11.295   8.953
44038SOL    HW134011  10.093  11.293   8.937
44038SOL    HW234012  10.227  11.279   8.868
44039SOL     OW34013   5.470   1.616   9.233
44039SOL    HW134014   5.475   1.552   9.162
44039SOL    HW234015   5.398   1.675   9.208
44040SOL     OW34016  14.098   6.834  11.849
44040SOL    HW134017  14.032   6.844  11.918
44040SOL    HW234018  14.096   6.740  11.829
44041SOL     OW34019   7.623  14.842  14.783
44041SOL    HW134020   7.544  14.817  14.735
44041SOL    HW234021   7.667  14.758  14.801
44042SOL     OW34022   8.936   9.089   9.701
44042SOL    HW134023   8.948   9.114   9.793
44042SOL    HW234024   8.842   9.075   9.692
44043SOL     OW34025  14.125   9.270   1.808
44043SOL    HW134026  14.099   9.216   1.734
44043SOL    HW234027  14.052   9.263   1.870
44044SOL     OW34028   7.994  10.296   7.607
44044SOL    HW134029   7.986  10.316   7.701
44044SOL    HW234030   7.906  10.311   7.572
44045SOL     OW34031   1.373  12.937   4.669
44045SOL    HW134032   1.286  12.897   4.668
44045SOL    HW234033   1.357  13.030   4.655
44046SOL     OW34034  10.542   3.307   8.280
44046SOL    HW134035  10.504   3.336   8.363
44046SOL    HW234036  10.633   3.290   8.300
44047SOL     OW34037   9.946  14.111   1.899
44047SOL    HW134038   9.899  14.187   1.934
44047SOL    HW234039   9.911  14.037   1.948
44048SOL     OW34040  13.459   3.051   8.668
44048SOL    HW134041  13.441   2.958   8.659
44048SOL    HW234042  13.397   3.081   8.734
44049SOL     OW34043  10.138   2.403   1.910
44049SOL    HW134044  10.063   2.462   1.917
44049SOL    HW234045  10.182   2.430   1.829
44050SOL     OW34046   9.641   7.655  10.233
44050SOL    HW134047   9.619   7.571  10.274
44050SOL    HW234048   9.586   7.659  10.155
44051SOL     OW34049   4.845   4.765   6.591
44051SOL    HW134050   4.904   4.720   6.531
44051SOL    HW234051   4.850   4.715   6.672
44052SOL     OW34052   3.764   0.592   1.345
44052SOL    HW134053   3.768   0.681   1.308
44052SOL    HW234054   3.851   0.555   1.329
44053SOL     OW34055   5.279   6.827   3.912
44053SOL    HW134056   5.219   6.754   3.908
44053SOL    HW234057   5.317   6.833   3.824
44054SOL     OW34058  14.309  10.009   2.180
44054SOL    HW134059  14.229  10.049   2.214
44054SOL    HW234060  14.367  10.001   2.256
44055SOL     OW34061   7.492   6.181  11.260
44055SOL    HW134062   7.463   6.234  11.185
44055SOL    HW234063   7.513   6.096  11.221
44056SOL     OW34064  13.803   4.074   1.639
44056SOL    HW134065  13.796   3.980   1.653
44056SOL    HW234066  13.842   4.108   1.720
44057SOL     OW34067   7.132   1.160   3.848
44057SOL    HW134068   7.149   1.068   3.867
44057SOL    HW234069   7.047   1.178   3.887
44058SOL     OW34070   7.147  13.554  11.895
44058SOL    HW134071   7.150  13.486  11.828
44058SOL    HW234072   7.199  13.626  11.860
44059SOL     OW34073   1.194  13.737  11.639
44059SOL    HW134074   1.167  13.798  11.708
44059SOL    HW234075   1.288  13.752  11.628
44060SOL     OW34076   7.045  10.540   9.823
44060SOL    HW134077   7.002  10.545   9.738
44060SOL    HW234078   7.034  10.449   9.850
44061SOL     OW34079  13.154   8.149   3.907
44061SOL    HW134080  13.210   8.140   3.984
44061SOL    HW234081  13.115   8.236   3.916
44062SOL     OW34082  11.066  12.554  11.008
44062SOL    HW134083  11.064  12.591  11.096
44062SOL    HW234084  10.983  12.581  10.969
44063SOL     OW34085   6.206   9.906  11.395
44063SOL    HW134086   6.228   9.969  11.464
44063SOL    HW234087   6.272   9.837  11.403
44064SOL     OW34088   7.037   3.287  14.852
44064SOL    HW134089   7.108   3.269   0.039
44064SOL    HW234090   7.068   3.364  14.803
44065SOL     OW34091   5.605   2.539   5.238
44065SOL    HW134092   5.691   2.503   5.219
44065SOL    HW234093   5.589   2.517   5.330
44066SOL     OW34094   9.670  13.651  11.836
44066SOL    HW134095   9.575  13.645  11.831
44066SOL    HW234096   9.698  13.663  11.745
44067SOL     OW34097   3.485   8.847   7.131
44067SOL    HW134098   3.547   8.892   7.188
44067SOL    HW234099   3.432   8.918   7.094
44068SOL     OW34100   5.482   6.790   0.224
44068SOL    HW134101   5.400   6.784   0.274
44068SOL    HW234102   5.548   6.812   0.289
44069SOL     OW34103   2.349   0.759   9.671
44069SOL    HW134104   2.433   0.753   9.716
44069SOL    HW234105   2.285   0.726   9.734
44070SOL     OW34106   5.976  12.795   8.431
44070SOL    HW134107   6.069  12.789   8.410
44070SOL    HW234108   5.932  12.756   8.355
44071SOL     OW34109  11.263   6.835  11.853
44071SOL    HW134110  11.281   6.928  11.864
44071SOL    HW234111  11.229   6.807  11.938
44072SOL     OW34112   8.806  13.690   1.142
44072SOL    HW134113   8.875  13.676   1.207
44072SOL    HW234114   8.823  13.625   1.073
44073SOL     OW34115   7.510  13.401   7.213
44073SOL    HW134116   7.458  13.327   7.182
44073SOL    HW234117   7.574  13.416   7.143
44074SOL     OW34118   0.206   0.121   5.240
44074SOL    HW134119   0.128   0.141   5.292
44074SOL    HW234120   0.276   0.111   5.305
44075SOL     OW34121   9.773   2.303  11.248
44075SOL    HW134122   9.795   2.384  11.294
44075SOL    HW234123   9.856   2.273  11.211
44076SOL     OW34124  11.784   3.898  14.653
44076SOL    HW134125  11.702   3.851  14.640
44076SOL    HW234126  11.818   3.912  14.564
44077SOL     OW34127   2.145   9.406  13.543
44077SOL    HW134128   2.215   9.343  13.527
44077SOL    HW234129   2.188   9.492  13.536
44078SOL     OW34130   7.200   9.227  12.228
44078SOL    HW134131   7.213   9.312  12.186
44078SOL    HW234132   7.285   9.183  12.219
44079SOL     OW34133   2.852   4.478   4.169
44079SOL    HW134134   2.797   4.416   4.217
44079SOL    HW234135   2.852   4.445   4.079
44080SOL     OW34136   6.610   3.076   6.701
44080SOL    HW134137   6.611   3.131   6.623
44080SOL    HW234138   6.690   3.025   6.697
44081SOL     OW34139   7.497  10.191   4.046
44081SOL    HW134140   7.523  10.223   3.960
44081SOL    HW234141   7.576  10.203   4.100
44082SOL     OW34142   0.633   0.728  11.563
44082SOL    HW134143   0.600   0.808  11.523
44082SOL    HW234144   0.625   0.742  11.657
44083SOL     OW34145   9.760   3.391   5.240
44083SOL    HW134146   9.806   3.472   5.222
44083SOL    HW234147   9.730   3.361   5.155
44084SOL     OW34148   8.544   7.346   9.766
44084SOL    HW134149   8.488   7.386   9.700
44084SOL    HW234150   8.602   7.288   9.716
44085SOL     OW34151   3.292   9.071   4.855
44085SOL    HW134152   3.360   9.025   4.805
44085SOL    HW234153   3.303   9.163   4.831
44086SOL     OW34154  11.139  10.134  14.353
44086SOL    HW134155  11.161  10.143  14.445
44086SOL    HW234156  11.069  10.198  14.338
44087SOL     OW34157   5.597   3.990  11.125
44087SOL    HW134158   5.637   3.912  11.085
44087SOL    HW234159   5.592   4.053  11.054
44088SOL     OW34160  10.572   5.673  12.375
44088SOL    HW134161  10.531   5.759  12.381
44088SOL    HW234162  10.575   5.653  12.282
44089SOL     OW34163   7.439  14.484   7.075
44089SOL    HW134164   7.477  14.434   7.147
44089SOL    HW234165   7.363  14.527   7.113
44090SOL     OW34166  13.340   2.406  11.986
44090SOL    HW134167  13.376   2.472  11.927
44090SOL    HW234168  13.309   2.456  12.061
44091SOL     OW34169   2.217  13.443  11.371
44091SOL    HW134170   2.285  13.379  11.392
44091SOL    HW234171   2.245  13.480  11.287
44092SOL     OW34172   4.837  14.426  12.962
44092SOL    HW134173   4.851  14.332  12.964
44092SOL    HW234174   4.813  14.446  12.872
44093SOL     OW34175  12.899  10.598   1.654
44093SOL    HW134176  12.828  10.544   1.689
44093SOL    HW234177  12.964  10.601   1.724
44094SOL     OW34178   9.134   0.365  10.639
44094SOL    HW134179   9.144   0.390  10.731
44094SOL    HW234180   9.134   0.269  10.640
44095SOL     OW34181   3.258   5.380   3.995
44095SOL    HW134182   3.241   5.376   3.901
44095SOL    HW234183   3.323   5.450   4.005
44096SOL     OW34184   5.431   7.090   4.528
44096SOL    HW134185   5.437   7.030   4.603
44096SOL    HW234186   5.443   7.033   4.452
44097SOL     OW34187   1.313   0.966   9.428
44097SOL    HW134188   1.314   1.046   9.375
44097SOL    HW234189   1.222   0.958   9.456
44098SOL     OW34190   2.882   8.350  13.324
44098SOL    HW134191   2.916   8.361  13.235
44098SOL    HW234192   2.838   8.433  13.343
44099SOL     OW34193  11.940   1.235   9.186
44099SOL    HW134194  11.974   1.301   9.246
44099SOL    HW234195  12.016   1.209   9.133
44100SOL     OW34196   2.537  14.834   7.471
44100SOL    HW134197   2.603   0.025   7.452
44100SOL    HW234198   2.519  14.793   7.386
44101SOL     OW34199  10.472   5.910   2.000
44101SOL    HW134200  10.454   5.904   2.094
44101SOL    HW234201  10.444   5.826   1.964
44102SOL     OW34202  14.616   6.256   3.025
44102SOL    HW134203  14.643   6.195   2.956
44102SOL    HW234204  14.561   6.204   3.083
44103SOL     OW34205   6.215  11.283   2.560
44103SOL    HW134206   6.218  11.376   2.586
44103SOL    HW234207   6.297  11.269   2.513
44104SOL     OW34208  11.600  10.740   8.469
44104SOL    HW134209  11.549  10.756   8.548
44104SOL    HW234210  11.617  10.827   8.433
44105SOL     OW34211  11.282   7.204   8.920
44105SOL    HW134212  11.346   7.268   8.891
44105SOL    HW234213  11.197   7.247   8.904
44106SOL     OW34214  11.872   1.306   1.603
44106SOL    HW134215  11.811   1.346   1.664
44106SOL    HW234216  11.817   1.250   1.547
44107SOL     OW34217   6.313   4.833  14.461
44107SOL    HW134218   6.287   4.812  14.551
44107SOL    HW234219   6.243   4.796  14.407
44108SOL     OW34220   4.924   9.902   2.851
44108SOL    HW134221   4.861   9.955   2.802
44108SOL    HW234222   4.873   9.861   2.920
44109SOL     OW34223   0.075  13.278   1.967
44109SOL    HW134224   0.012  13.206   1.962
44109SOL    HW234225   0.113  13.270   2.055
44110SOL     OW34226   0.535   8.202   3.248
44110SOL    HW134227   0.524   8.163   3.334
44110SOL    HW234228   0.551   8.127   3.190
44111SOL     OW34229   4.789  13.499  10.197
44111SOL    HW134230   4.770  13.558  10.270
44111SOL    HW234231   4.784  13.553  10.119
44112SOL     OW34232   7.740   3.482   4.144
44112SOL    HW134233   7.788   3.399   4.149
44112SOL    HW234234   7.785   3.540   4.205
44113SOL     OW34235   9.693  13.883   8.681
44113SOL    HW134236   9.745  13.882   8.761
44113SOL    HW234237   9.650  13.969   8.681
44114SOL     OW34238  11.685  11.570  13.340
44114SOL    HW134239  11.746  11.499  13.355
44114SOL    HW234240  11.725  11.621  13.269
44115SOL     OW34241   3.641   8.965   6.121
44115SOL    HW134242   3.621   9.044   6.172
44115SOL    HW234243   3.736   8.958   6.126
44116SOL     OW34244   5.275  12.910   1.043
44116SOL    HW134245   5.320  12.864   1.114
44116SOL    HW234246   5.192  12.864   1.033
44117SOL     OW34247   2.411  13.925   5.832
44117SOL    HW134248   2.351  13.864   5.876
44117SOL    HW234249   2.447  13.875   5.758
44118SOL     OW34250   1.680   2.874   3.689
44118SOL    HW134251   1.632   2.906   3.613
44118SOL    HW234252   1.614   2.827   3.741
44119SOL     OW34253   1.200  11.712   4.513
44119SOL    HW134254   1.202  11.625   4.472
44119SOL    HW234255   1.190  11.773   4.440
44120SOL     OW34256   2.960   4.982   1.483
44120SOL    HW134257   2.955   5.001   1.390
44120SOL    HW234258   2.869   4.980   1.512
44121SOL     OW34259   3.526   2.245  13.672
44121SOL    HW134260   3.533   2.336  13.702
44121SOL    HW234261   3.616   2.222  13.648
44122SOL     OW34262  14.787   4.390   2.439
44122SOL    HW134263  14.772   4.401   2.345
44122SOL    HW234264  14.700   4.369   2.474
44123SOL     OW34265   2.823  10.461   6.386
44123SOL    HW134266   2.836  10.492   6.476
44123SOL    HW234267   2.798  10.370   6.395
44124SOL     OW34268   0.982   4.638  14.846
44124SOL    HW134269   1.067   4.676  14.869
44124SOL    HW234270   0.980   4.641  14.750
44125SOL     OW34271   9.384  12.097   6.689
44125SOL    HW134272   9.436  12.121   6.765
44125SOL    HW234273   9.365  12.180   6.645
44126SOL     OW34274  12.402   0.125   9.206
44126SOL    HW134275  12.459   0.085   9.141
44126SOL    HW234276  12.457   0.137   9.283
44127SOL     OW34277   6.057   7.456  13.195
44127SOL    HW134278   6.044   7.548  13.216
44127SOL    HW234279   6.135   7.431  13.245
44128SOL     OW34280   8.647   3.113   3.158
44128SOL    HW134281   8.696   3.088   3.079
44128SOL    HW234282   8.640   3.208   3.153
44129SOL     OW34283  12.466  12.408   6.225
44129SOL    HW134284  12.536  12.348   6.250
44129SOL    HW234285  12.496  12.493   6.257
44130SOL     OW34286   5.818   3.128  12.132
44130SOL    HW134287   5.768   3.209  12.137
44130SOL    HW234288   5.876   3.139  12.057
44131SOL     OW34289  10.578   0.339  11.557
44131SOL    HW134290  10.609   0.368  11.643
44131SOL    HW234291  10.599   0.412  11.498
44132SOL     OW34292   3.706   0.514   6.215
44132SOL    HW134293   3.688   0.608   6.215
44132SOL    HW234294   3.672   0.483   6.299
44133SOL     OW34295  13.893  13.100   5.699
44133SOL    HW134296  13.865  13.036   5.633
44133SOL    HW234297  13.982  13.073   5.722
44134SOL     OW34298   5.838   1.372  14.418
44134SOL    HW134299   5.846   1.396  14.511
44134SOL    HW234300   5.842   1.456  14.372
44135SOL     OW34301   5.659  10.827   4.366
44135SOL    HW134302   5.650  10.824   4.271
44135SOL    HW234303   5.710  10.906   4.383
44136SOL     OW34304  10.793   5.567  11.510
44136SOL    HW134305  10.779   5.658  11.535
44136SOL    HW234306  10.705   5.530  11.503
44137SOL     OW34307  10.398   2.209   1.564
44137SOL    HW134308  10.448   2.204   1.646
44137SOL    HW234309  10.310   2.236   1.591
44138SOL     OW34310   9.965  12.161   1.304
44138SOL    HW134311  10.021  12.120   1.369
44138SOL    HW234312  10.008  12.143   1.220
44139SOL     OW34313   4.415   9.509   6.749
44139SOL    HW134314   4.509   9.497   6.732
44139SOL    HW234315   4.410   9.590   6.799
44140SOL     OW34316   0.717   8.217   8.318
44140SOL    HW134317   0.748   8.306   8.301
44140SOL    HW234318   0.790   8.160   8.296
44141SOL     OW34319   3.739   4.034  14.682
44141SOL    HW134320   3.822   3.992  14.660
44141SOL    HW234321   3.673   3.965  14.674
44142SOL     OW34322   3.489  10.662   6.724
44142SOL    HW134323   3.434  10.612   6.663
44142SOL    HW234324   3.576  10.623   6.716
44143SOL     OW34325   1.649   3.814   0.720
44143SOL    HW134326   1.618   3.735   0.677
44143SOL    HW234327   1.572   3.871   0.723
44144SOL     OW34328  11.212   6.134   4.824
44144SOL    HW134329  11.196   6.182   4.742
44144SOL    HW234330  11.172   6.048   4.810
44145SOL     OW34331   7.964   4.869   0.695
44145SOL    HW134332   8.057   4.878   0.713
44145SOL    HW234333   7.934   4.799   0.754
44146SOL     OW34334   2.266   4.009  11.131
44146SOL    HW134335   2.316   4.044  11.205
44146SOL    HW234336   2.181   3.986  11.168
44147SOL     OW34337  11.330   7.239  10.998
44147SOL    HW134338  11.320   7.236  11.093
44147SOL    HW234339  11.338   7.332  10.977
44148SOL     OW34340   1.435   1.901  10.369
44148SOL    HW134341   1.390   1.825  10.406
44148SOL    HW234342   1.430   1.968  10.438
44149SOL     OW34343   4.365   5.785   0.330
44149SOL    HW134344   4.434   5.805   0.267
44149SOL    HW234345   4.401   5.715   0.384
44150SOL     OW34346   7.717   4.123   1.205
44150SOL    HW134347   7.690   4.037   1.237
44150SOL    HW234348   7.755   4.166   1.281
44151SOL     OW34349   6.169  13.099  13.907
44151SOL    HW134350   6.158  13.155  13.830
44151SOL    HW234351   6.178  13.011  13.872
44152SOL     OW34352   0.001   2.685   9.296
44152SOL    HW134353   0.040   2.771   9.311
44152SOL    HW234354  14.858   2.683   9.202
44153SOL     OW34355  14.508   6.305   2.048
44153SOL    HW134356  14.511   6.308   2.143
44153SOL    HW234357  14.414   6.306   2.027
44154SOL     OW34358   2.892   0.317   8.423
44154SOL    HW134359   2.876   0.327   8.330
44154SOL    HW234360   2.980   0.354   8.437
44155SOL     OW34361   6.064   1.872  10.466
44155SOL    HW134362   6.158   1.869  10.486
44155SOL    HW234363   6.051   1.955  10.420
44156SOL     OW34364  12.301  14.200  13.775
44156SOL    HW134365  12.385  14.187  13.732
44156SOL    HW234366  12.241  14.139  13.732
44157SOL     OW34367  10.543   9.856  13.147
44157SOL    HW134368  10.527   9.915  13.220
44157SOL    HW234369  10.516   9.770  13.179
44158SOL     OW34370   8.297  12.080   3.983
44158SOL    HW134371   8.352  12.090   4.060
44158SOL    HW234372   8.208  12.098   4.014
44159SOL     OW34373  13.273   5.949  13.919
44159SOL    HW134374  13.284   5.858  13.891
44159SOL    HW234375  13.251   5.996  13.839
44160SOL     OW34376   8.736   2.252  14.548
44160SOL    HW134377   8.807   2.268  14.610
44160SOL    HW234378   8.720   2.337  14.508
44161SOL     OW34379   2.408   5.205   6.876
44161SOL    HW134380   2.488   5.227   6.828
44161SOL    HW234381   2.367   5.136   6.823
44162SOL     OW34382  14.449   0.010  11.053
44162SOL    HW134383  14.440   0.085  10.994
44162SOL    HW234384  14.366   0.009  11.102
44163SOL     OW34385   1.531   4.262   8.032
44163SOL    HW134386   1.457   4.277   7.974
44163SOL    HW234387   1.588   4.338   8.019
44164SOL     OW34388   5.767  12.082  12.286
44164SOL    HW134389   5.693  12.031  12.318
44164SOL    HW234390   5.732  12.171  12.275
44165SOL     OW34391  10.375   0.351   1.092
44165SOL    HW134392  10.446   0.292   1.117
44165SOL    HW234393  10.419   0.426   1.051
44166SOL     OW34394   8.506   7.290   1.671
44166SOL    HW134395   8.493   7.213   1.616
44166SOL    HW234396   8.589   7.328   1.641
44167SOL     OW34397   3.740  11.814  12.917
44167SOL    HW134398   3.742  11.772  12.832
44167SOL    HW234399   3.680  11.761  12.969
44168SOL     OW34400  13.487  10.275   7.186
44168SOL    HW134401  13.426  10.211   7.148
44168SOL    HW234402  13.431  10.334   7.236
44169SOL     OW34403  10.765   8.577  14.691
44169SOL    HW134404  10.797   8.667  14.701
44169SOL    HW234405  10.830   8.535  14.635
44170SOL     OW34406   0.867   8.433   4.808
44170SOL    HW134407   0.798   8.407   4.868
44170SOL    HW234408   0.870   8.529   4.816
44171SOL     OW34409  12.721  11.989   4.489
44171SOL    HW134410  12.728  12.030   4.575
44171SOL    HW234411  12.776  11.911   4.496
44172SOL     OW34412   9.680   6.688  10.115
44172SOL    HW134413   9.620   6.718  10.047
44172SOL    HW234414   9.624   6.672  10.191
44173SOL     OW34415   2.748  11.324  14.165
44173SOL    HW134416   2.682  11.276  14.116
44173SOL    HW234417   2.803  11.365  14.099
44174SOL     OW34418   6.303   7.933   4.411
44174SOL    HW134419   6.276   7.906   4.323
44174SOL    HW234420   6.399   7.938   4.406
44175SOL     OW34421  12.761   3.697   8.723
44175SOL    HW134422  12.706   3.634   8.770
44175SOL    HW234423  12.801   3.750   8.792
44176SOL     OW34424  13.333   2.901   3.259
44176SOL    HW134425  13.243   2.921   3.283
44176SOL    HW234426  13.369   2.985   3.229
44177SOL     OW34427  14.502  10.073  12.738
44177SOL    HW134428  14.572  10.119  12.785
44177SOL    HW234429  14.526  10.080  12.646
44178SOL     OW34430   0.356  11.853  11.881
44178SOL    HW134431   0.351  11.777  11.824
44178SOL    HW234432   0.450  11.866  11.896
44179SOL     OW34433   1.689   7.916   3.100
44179SOL    HW134434   1.667   8.004   3.131
44179SOL    HW234435   1.672   7.919   3.006
44180SOL     OW34436   0.726   1.182   0.140
44180SOL    HW134437   0.702   1.171   0.048
44180SOL    HW234438   0.810   1.229   0.138
44181SOL     OW34439   2.648   6.442   3.740
44181SOL    HW134440   2.588   6.435   3.666
44181SOL    HW234441   2.623   6.371   3.799
44182SOL     OW34442  10.891   0.007   9.292
44182SOL    HW134443  10.902   0.003   9.197
44182SOL    HW234444  10.798   0.028   9.304
44183SOL     OW34445  12.167  14.471  11.407
44183SOL    HW134446  12.124  14.530  11.346
44183SOL    HW234447  12.256  14.462  11.372
44184SOL     OW34448   8.273   7.885   2.400
44184SOL    HW134449   8.192   7.934   2.387
44184SOL    HW234450   8.315   7.927   2.475
44185SOL     OW34451   9.905   6.315  10.800
44185SOL    HW134452   9.850   6.255  10.851
44185SOL    HW234453   9.895   6.285  10.710
44186SOL     OW34454   6.935   7.381  14.648
44186SOL    HW134455   6.861   7.378  14.588
44186SOL    HW234456   6.955   7.474  14.656
44187SOL     OW34457   2.829   7.902   3.951
44187SOL    HW134458   2.806   7.956   4.027
44187SOL    HW234459   2.925   7.898   3.952
44188SOL     OW34460  10.084   9.978  10.918
44188SOL    HW134461  10.051  10.048  10.862
44188SOL    HW234462  10.161  10.015  10.961
44189SOL     OW34463   5.699   5.544   4.157
44189SOL    HW134464   5.775   5.539   4.101
44189SOL    HW234465   5.697   5.461   4.204
44190SOL     OW34466  11.724  12.137   2.995
44190SOL    HW134467  11.629  12.133   3.009
44190SOL    HW234468  11.761  12.126   3.082
44191SOL     OW34469   1.958  10.875   7.445
44191SOL    HW134470   1.970  10.892   7.538
44191SOL    HW234471   2.022  10.932   7.401
44192SOL     OW34472   6.830  13.622   2.130
44192SOL    HW134473   6.784  13.702   2.106
44192SOL    HW234474   6.774  13.581   2.196
44193SOL     OW34475   9.914  14.450   1.226
44193SOL    HW134476   9.831  14.451   1.178
44193SOL    HW234477   9.893  14.410   1.310
44194SOL     OW34478   9.391   1.016  14.164
44194SOL    HW134479   9.441   0.934  14.165
44194SOL    HW234480   9.351   1.019  14.078
44195SOL     OW34481  11.514  11.641   5.403
44195SOL    HW134482  11.539  11.582   5.332
44195SOL    HW234483  11.590  11.698   5.414
44196SOL     OW34484   6.781  11.916   4.821
44196SOL    HW134485   6.733  11.996   4.800
44196SOL    HW234486   6.872  11.937   4.799
44197SOL     OW34487   5.886   5.265   2.765
44197SOL    HW134488   5.860   5.298   2.851
44197SOL    HW234489   5.973   5.229   2.778
44198SOL     OW34490  12.670   5.530   9.415
44198SOL    HW134491  12.579   5.536   9.444
44198SOL    HW234492  12.711   5.609   9.448
44199SOL     OW34493   8.760   6.726   0.838
44199SOL    HW134494   8.771   6.782   0.915
44199SOL    HW234495   8.669   6.698   0.843
44200SOL     OW34496  14.693  14.244   5.295
44200SOL    HW134497  14.653  14.165   5.261
44200SOL    HW234498  14.756  14.214   5.360
44201SOL     OW34499   2.806   1.818   7.289
44201SOL    HW134500   2.784   1.737   7.335
44201SOL    HW234501   2.821   1.881   7.359
44202SOL     OW34502  14.559   6.678  13.634
44202SOL    HW134503  14.542   6.631  13.553
44202SOL    HW234504  14.649   6.708  13.626
44203SOL     OW34505   8.540   7.127   7.825
44203SOL    HW134506   8.583   7.050   7.863
44203SOL    HW234507   8.570   7.201   7.878
44204SOL     OW34508  13.966   1.736   6.155
44204SOL    HW134509  13.875   1.761   6.175
44204SOL    HW234510  13.958   1.648   6.118
44205SOL     OW34511   0.792   2.262   4.150
44205SOL    HW134512   0.754   2.174   4.148
44205SOL    HW234513   0.837   2.267   4.234
44206SOL     OW34514  12.094   8.207  14.449
44206SOL    HW134515  12.062   8.141  14.510
44206SOL    HW234516  12.130   8.157  14.376
44207SOL     OW34517   9.763  10.774   4.561
44207SOL    HW134518   9.758  10.852   4.616
44207SOL    HW234519   9.703  10.791   4.489
44208SOL     OW34520   4.217   4.919   9.622
44208SOL    HW134521   4.148   4.984   9.612
44208SOL    HW234522   4.298   4.967   9.603
44209SOL     OW34523   8.085   4.583  14.537
44209SOL    HW134524   8.135   4.612  14.614
44209SOL    HW234525   8.140   4.516  14.497
44210SOL     OW34526  14.103  12.432  10.227
44210SOL    HW134527  14.141  12.519  10.222
44210SOL    HW234528  14.010  12.447  10.243
44211SOL     OW34529   6.813   7.135   2.572
44211SOL    HW134530   6.774   7.081   2.641
44211SOL    HW234531   6.785   7.093   2.491
44212SOL     OW34532  12.876   4.694  11.376
44212SOL    HW134533  12.887   4.618  11.433
44212SOL    HW234534  12.813   4.749  11.422
44213SOL     OW34535   7.538  11.338   5.675
44213SOL    HW134536   7.506  11.403   5.737
44213SOL    HW234537   7.632  11.334   5.691
44214SOL     OW34538   3.209  12.786   7.347
44214SOL    HW134539   3.202  12.881   7.362
44214SOL    HW234540   3.233  12.778   7.255
44215SOL     OW34541   6.589  14.724   9.703
44215SOL    HW134542   6.671  14.713   9.655
44215SOL    HW234543   6.521  14.710   9.637
44216SOL     OW34544  12.997   6.099   4.651
44216SOL    HW134545  13.001   6.007   4.676
44216SOL    HW234546  13.080   6.115   4.605
44217SOL     OW34547   1.418   3.194  12.275
44217SOL    HW134548   1.496   3.142  12.297
44217SOL    HW234549   1.373   3.206  12.359
44218SOL     OW34550   5.873   6.411  11.411
44218SOL    HW134551   5.947   6.398  11.353
44218SOL    HW234552   5.896   6.364  11.491
44219SOL     OW34553  11.927  12.772  10.553
44219SOL    HW134554  11.869  12.833  10.598
44219SOL    HW234555  11.869  12.712  10.507
44220SOL     OW34556  14.145   4.982   1.720
44220SOL    HW134557  14.067   4.989   1.666
44220SOL    HW234558  14.112   4.961   1.808
44221SOL     OW34559   1.151   7.222   0.110
44221SOL    HW134560   1.104   7.185   0.185
44221SOL    HW234561   1.186   7.305   0.142
44222SOL     OW34562   1.032   6.389   8.108
44222SOL    HW134563   0.972   6.434   8.168
44222SOL    HW234564   0.986   6.309   8.084
44223SOL     OW34565  11.206   6.598  11.056
44223SOL    HW134566  11.229   6.594  10.963
44223SOL    HW234567  11.252   6.676  11.088
44224SOL     OW34568   6.888   1.846  12.032
44224SOL    HW134569   6.865   1.839  12.125
44224SOL    HW234570   6.826   1.788  11.988
44225SOL     OW34571   5.472  10.655   9.146
44225SOL    HW134572   5.450  10.682   9.057
44225SOL    HW234573   5.403  10.593   9.170
44226SOL     OW34574   7.688  14.870   9.792
44226SOL    HW134575   7.694   0.039   9.876
44226SOL    HW234576   7.779  14.850   9.768
44227SOL     OW34577   8.197   2.225   0.139
44227SOL    HW134578   8.246   2.144   0.125
44227SOL    HW234579   8.121   2.198   0.190
44228SOL     OW34580   7.847   8.809   2.382
44228SOL    HW134581   7.840   8.902   2.403
44228SOL    HW234582   7.758   8.781   2.362
44229SOL     OW34583   3.664   6.672   5.507
44229SOL    HW134584   3.637   6.764   5.508
44229SOL    HW234585   3.759   6.675   5.509
44230SOL     OW34586   3.169   7.353  11.344
44230SOL    HW134587   3.206   7.267  11.326
44230SOL    HW234588   3.240   7.403  11.385
44231SOL     OW34589   7.409   1.234   3.453
44231SOL    HW134590   7.500   1.205   3.457
44231SOL    HW234591   7.395   1.278   3.537
44232SOL     OW34592  11.347   1.976  11.789
44232SOL    HW134593  11.296   2.056  11.797
44232SOL    HW234594  11.432   2.005  11.756
44233SOL     OW34595  11.089   2.032   6.025
44233SOL    HW134596  11.130   1.992   5.948
44233SOL    HW234597  11.129   2.119   6.031
44234SOL     OW34598   2.499   4.449  12.322
44234SOL    HW134599   2.453   4.526  12.356
44234SOL    HW234600   2.589   4.478  12.312
44235SOL     OW34601   1.751   0.648   8.272
44235SOL    HW134602   1.773   0.574   8.215
44235SOL    HW234603   1.660   0.668   8.252
44236SOL     OW34604  12.925   8.060  10.309
44236SOL    HW134605  12.886   8.055  10.396
44236SOL    HW234606  12.851   8.071  10.250
44237SOL     OW34607  13.274   6.408  13.664
44237SOL    HW134608  13.362   6.427  13.698
44237SOL    HW234609  13.216   6.460  13.719
44238SOL     OW34610  12.379   7.179   7.000
44238SOL    HW134611  12.333   7.131   7.069
44238SOL    HW234612  12.464   7.136   6.994
44239SOL     OW34613   1.408  12.925   3.973
44239SOL    HW134614   1.379  12.838   3.948
44239SOL    HW234615   1.485  12.942   3.918
44240SOL     OW34616  14.703   5.841  12.535
44240SOL    HW134617  14.643   5.769  12.554
44240SOL    HW234618  14.648   5.919  12.539
44241SOL     OW34619   1.246  13.213  10.245
44241SOL    HW134620   1.289  13.284  10.292
44241SOL    HW234621   1.172  13.255  10.200
44242SOL     OW34622   6.091  12.605   0.299
44242SOL    HW134623   6.082  12.664   0.374
44242SOL    HW234624   6.002  12.595   0.266
44243SOL     OW34625   4.782   0.759   8.292
44243SOL    HW134626   4.775   0.793   8.203
44243SOL    HW234627   4.876   0.743   8.304
44244SOL     OW34628  14.510  10.403  12.142
44244SOL    HW134629  14.430  10.354  12.124
44244SOL    HW234630  14.543  10.367  12.224
44245SOL     OW34631   7.782   2.793   9.010
44245SOL    HW134632   7.744   2.729   8.950
44245SOL    HW234633   7.865   2.755   9.038
44246SOL     OW34634   3.824  12.775   3.610
44246SOL    HW134635   3.917  12.766   3.591
44246SOL    HW234636   3.780  12.746   3.531
44247SOL     OW34637   5.925  12.194   5.046
44247SOL    HW134638   5.999  12.227   5.098
44247SOL    HW234639   5.893  12.118   5.095
44248SOL     OW34640   4.633  10.840  11.647
44248SOL    HW134641   4.670  10.863  11.733
44248SOL    HW234642   4.690  10.770  11.615
44249SOL     OW34643   8.540  14.862   8.148
44249SOL    HW134644   8.450  14.861   8.180
44249SOL    HW234645   8.586  14.799   8.204
44250SOL     OW34646  14.832   6.894   4.029
44250SOL    HW134647  14.754   6.852   4.065
44250SOL    HW234648  14.847   6.970   4.086
44251SOL     OW34649   9.882   6.207   8.031
44251SOL    HW134650   9.810   6.208   8.094
44251SOL    HW234651   9.946   6.269   8.067
44252SOL     OW34652  12.066   5.840   1.110
44252SOL    HW134653  12.037   5.911   1.052
44252SOL    HW234654  12.048   5.872   1.198
44253SOL     OW34655   9.156   0.701   1.153
44253SOL    HW134656   9.178   0.794   1.163
44253SOL    HW234657   9.061   0.698   1.158
44254SOL     OW34658  11.066   6.944   4.458
44254SOL    HW134659  11.159   6.957   4.478
44254SOL    HW234660  11.058   6.970   4.366
44255SOL     OW34661   2.508   4.601  11.145
44255SOL    HW134662   2.577   4.548  11.186
44255SOL    HW234663   2.516   4.687  11.187
44256SOL     OW34664   2.690   4.795   4.035
44256SOL    HW134665   2.691   4.725   3.970
44256SOL    HW234666   2.614   4.848   4.013
44257SOL     OW34667   1.073   3.393   2.645
44257SOL    HW134668   1.154   3.350   2.673
44257SOL    HW234669   1.099   3.443   2.567
44258SOL     OW34670  10.140   2.257   2.149
44258SOL    HW134671  10.134   2.303   2.066
44258SOL    HW234672  10.053   2.264   2.187
44259SOL     OW34673   8.809  10.709  13.629
44259SOL    HW134674   8.764  10.766  13.692
44259SOL    HW234675   8.838  10.768  13.560
44260SOL     OW34676  10.128   1.176  12.155
44260SOL    HW134677  10.181   1.231  12.213
44260SOL    HW234678  10.041   1.214  12.160
44261SOL     OW34679   3.899   8.329   8.937
44261SOL    HW134680   3.875   8.269   8.867
44261SOL    HW234681   3.993   8.316   8.949
44262SOL     OW34682   0.982   6.227   4.692
44262SOL    HW134683   0.902   6.280   4.697
44262SOL    HW234684   0.978   6.171   4.770
44263SOL     OW34685   3.181   6.322   9.226
44263SOL    HW134686   3.226   6.250   9.183
44263SOL    HW234687   3.242   6.353   9.293
44264SOL     OW34688  13.582   8.963  10.458
44264SOL    HW134689  13.669   8.925  10.470
44264SOL    HW234690  13.598   9.042  10.406
44265SOL     OW34691   3.855   7.947   1.991
44265SOL    HW134692   3.884   7.878   2.051
44265SOL    HW234693   3.762   7.928   1.978
44266SOL     OW34694   9.571   2.966   3.872
44266SOL    HW134695   9.528   2.929   3.794
44266SOL    HW234696   9.504   2.964   3.940
44267SOL     OW34697   4.401   2.361  11.664
44267SOL    HW134698   4.461   2.348  11.738
44267SOL    HW234699   4.406   2.279  11.615
44268SOL     OW34700  13.361   2.285   6.938
44268SOL    HW134701  13.341   2.318   7.026
44268SOL    HW234702  13.392   2.196   6.951
44269SOL     OW34703   9.933   8.826  11.852
44269SOL    HW134704   9.944   8.745  11.902
44269SOL    HW234705   9.865   8.874  11.899
44270SOL     OW34706   8.117  14.202   0.018
44270SOL    HW134707   8.164  14.123  14.868
44270SOL    HW234708   8.184  14.259   0.055
44271SOL     OW34709  14.491   5.664   1.296
44271SOL    HW134710  14.447   5.664   1.210
44271SOL    HW234711  14.566   5.607   1.284
44272SOL     OW34712   5.878   2.783  13.994
44272SOL    HW134713   5.950   2.770  14.055
44272SOL    HW234714   5.886   2.874  13.965
44273SOL     OW34715  12.889   0.289   9.725
44273SOL    HW134716  12.977   0.315   9.755
44273SOL    HW234717  12.838   0.283   9.805
44274SOL     OW34718   2.643   6.532  14.659
44274SOL    HW134719   2.646   6.533  14.564
44274SOL    HW234720   2.706   6.598  14.687
44275SOL     OW34721   1.443   0.110   0.085
44275SOL    HW134722   1.348   0.100   0.085
44275SOL    HW234723   1.475   0.031   0.128
44276SOL     OW34724  13.724   1.745   9.415
44276SOL    HW134725  13.666   1.691   9.468
44276SOL    HW234726  13.765   1.683   9.355
44277SOL     OW34727   2.204   8.669  11.800
44277SOL    HW134728   2.180   8.705  11.885
44277SOL    HW234729   2.131   8.691  11.743
44278SOL     OW34730   4.606   4.565   9.659
44278SOL    HW134731   4.601   4.608   9.574
44278SOL    HW234732   4.583   4.633   9.722
44279SOL     OW34733  14.535   9.531  10.579
44279SOL    HW134734  14.482   9.533  10.659
44279SOL    HW234735  14.533   9.620  10.546
44280SOL     OW34736   4.937   2.539   8.031
44280SOL    HW134737   4.889   2.611   7.991
44280SOL    HW234738   4.946   2.475   7.961
44281SOL     OW34739   6.969   3.259   0.824
44281SOL    HW134740   7.021   3.195   0.775
44281SOL    HW234741   6.914   3.300   0.757
44282SOL     OW34742   1.628   8.589   6.000
44282SOL    HW134743   1.636   8.505   6.047
44282SOL    HW234744   1.718   8.620   5.992
44283SOL     OW34745   3.216   2.438   5.384
44283SOL    HW134746   3.190   2.473   5.470
44283SOL    HW234747   3.258   2.354   5.404
44284SOL     OW34748  12.343   2.063  12.817
44284SOL    HW134749  12.337   2.019  12.901
44284SOL    HW234750  12.324   2.155  12.837
44285SOL     OW34751  10.180  14.814   7.881
44285SOL    HW134752  10.186  14.832   7.787
44285SOL    HW234753  10.270  14.798   7.909
44286SOL     OW34754   9.914  14.442  11.168
44286SOL    HW134755   9.965  14.482  11.098
44286SOL    HW234756   9.968  14.371  11.201
44287SOL     OW34757   3.861  14.804   6.332
44287SOL    HW134758   3.844   0.022   6.314
44287SOL    HW234759   3.823  14.758   6.257
44288SOL     OW34760   4.344   0.103   5.748
44288SOL    HW134761   4.381   0.023   5.710
44288SOL    HW234762   4.251   0.084   5.757
44289SOL     OW34763   4.126   5.066   5.580
44289SOL    HW134764   4.110   5.151   5.620
44289SOL    HW234765   4.141   5.007   5.654
44290SOL     OW34766   0.694  14.042   5.015
44290SOL    HW134767   0.734  14.077   5.095
44290SOL    HW234768   0.760  14.057   4.947
44291SOL     OW34769   6.204   8.567   6.443
44291SOL    HW134770   6.165   8.494   6.396
44291SOL    HW234771   6.229   8.630   6.375
44292SOL     OW34772   3.108   7.341  13.377
44292SOL    HW134773   3.023   7.383  13.391
44292SOL    HW234774   3.119   7.338  13.282
44293SOL     OW34775   2.086  13.169   2.968
44293SOL    HW134776   2.004  13.125   2.993
44293SOL    HW234777   2.058  13.247   2.920
44294SOL     OW34778   6.556   4.905   3.613
44294SOL    HW134779   6.555   4.952   3.696
44294SOL    HW234780   6.603   4.824   3.631
44295SOL     OW34781  10.499   8.593  11.030
44295SOL    HW134782  10.493   8.639  10.947
44295SOL    HW234783  10.591   8.601  11.056
44296SOL     OW34784   2.808  13.446   6.427
44296SOL    HW134785   2.841  13.383   6.362
44296SOL    HW234786   2.856  13.526   6.410
44297SOL     OW34787   2.648   8.790  12.529
44297SOL    HW134788   2.700   8.777  12.450
44297SOL    HW234789   2.671   8.717  12.586
44298SOL     OW34790   3.581  13.783   0.598
44298SOL    HW134791   3.590  13.781   0.693
44298SOL    HW234792   3.576  13.877   0.577
44299SOL     OW34793   6.676  10.264   0.327
44299SOL    HW134794   6.677  10.212   0.408
44299SOL    HW234795   6.589  10.248   0.290
44300SOL     OW34796  10.833  14.441  14.835
44300SOL    HW134797  10.868  14.451   0.048
44300SOL    HW234798  10.870  14.359  14.803
44301SOL     OW34799  10.591   2.819  10.186
44301SOL    HW134800  10.582   2.905  10.227
44301SOL    HW234801  10.596   2.837  10.093
44302SOL     OW34802  10.662   0.545   0.081
44302SOL    HW134803  10.720   0.489   0.030
44302SOL    HW234804  10.704   0.552   0.167
44303SOL     OW34805   4.182   6.822   0.889
44303SOL    HW134806   4.214   6.818   0.980
44303SOL    HW234807   4.262   6.828   0.836
44304SOL     OW34808   2.016   2.671   5.262
44304SOL    HW134809   2.001   2.649   5.354
44304SOL    HW234810   2.110   2.663   5.251
44305SOL     OW34811  11.867  10.247  10.196
44305SOL    HW134812  11.815  10.308  10.144
44305SOL    HW234813  11.957  10.275  10.182
44306SOL     OW34814  14.179  11.067  11.484
44306SOL    HW134815  14.215  11.145  11.526
44306SOL    HW234816  14.133  11.100  11.407
44307SOL     OW34817   9.714  11.141   7.968
44307SOL    HW134818   9.762  11.173   8.045
44307SOL    HW234819   9.777  11.147   7.896
44308SOL     OW34820   5.799   8.274   7.937
44308SOL    HW134821   5.816   8.276   7.843
44308SOL    HW234822   5.880   8.306   7.977
44309SOL     OW34823   3.088  10.124   5.269
44309SOL    HW134824   3.039  10.052   5.309
44309SOL    HW234825   3.026  10.197   5.269
44310SOL     OW34826  11.157   3.315   5.795
44310SOL    HW134827  11.188   3.234   5.756
44310SOL    HW234828  11.126   3.368   5.722
44311SOL     OW34829   2.515   2.178   7.980
44311SOL    HW134830   2.548   2.223   7.902
44311SOL    HW234831   2.452   2.239   8.018
44312SOL     OW34832   8.855  12.748   8.118
44312SOL    HW134833   8.910  12.684   8.073
44312SOL    HW234834   8.768  12.708   8.119
44313SOL     OW34835   6.662  11.057   8.835
44313SOL    HW134836   6.697  11.145   8.845
44313SOL    HW234837   6.669  11.019   8.923
44314SOL     OW34838  12.116   1.547   3.385
44314SOL    HW134839  12.156   1.493   3.453
44314SOL    HW234840  12.113   1.635   3.423
44315SOL     OW34841  11.185   7.714   4.497
44315SOL    HW134842  11.156   7.642   4.442
44315SOL    HW234843  11.274   7.733   4.467
44316SOL     OW34844   1.881   4.731  10.567
44316SOL    HW134845   1.923   4.645  10.558
44316SOL    HW234846   1.934   4.776  10.633
44317SOL     OW34847   2.040  13.371   0.463
44317SOL    HW134848   2.017  13.287   0.423
44317SOL    HW234849   1.984  13.377   0.541
44318SOL     OW34850  14.129   6.341  11.625
44318SOL    HW134851  14.089   6.272  11.678
44318SOL    HW234852  14.056   6.382  11.579
44319SOL     OW34853  12.124   3.498   2.137
44319SOL    HW134854  12.161   3.413   2.113
44319SOL    HW234855  12.073   3.480   2.217
44320SOL     OW34856  14.423  12.014   6.210
44320SOL    HW134857  14.478  11.990   6.136
44320SOL    HW234858  14.466  12.091   6.248
44321SOL     OW34859   0.755  10.107   4.746
44321SOL    HW134860   0.702  10.171   4.795
44321SOL    HW234861   0.813  10.160   4.693
44322SOL     OW34862   9.245  11.164   1.619
44322SOL    HW134863   9.243  11.070   1.637
44322SOL    HW234864   9.245  11.205   1.706
44323SOL     OW34865   3.808   9.701   0.323
44323SOL    HW134866   3.764   9.637   0.267
44323SOL    HW234867   3.738   9.756   0.356
44324SOL     OW34868   6.371  12.483   2.850
44324SOL    HW134869   6.310  12.440   2.790
44324SOL    HW234870   6.330  12.477   2.936
44325SOL     OW34871   8.822   7.062  10.538
44325SOL    HW134872   8.778   7.120  10.601
44325SOL    HW234873   8.890   7.117  10.499
44326SOL     OW34874  14.831  13.672   7.963
44326SOL    HW134875  14.817  13.585   8.002
44326SOL    HW234876  14.811  13.733   8.033
44327SOL     OW34877   0.890   5.357   4.461
44327SOL    HW134878   0.890   5.446   4.428
44327SOL    HW234879   0.811   5.317   4.424
44328SOL     OW34880   0.712   2.937   7.336
44328SOL    HW134881   0.695   3.031   7.347
44328SOL    HW234882   0.625   2.897   7.343
44329SOL     OW34883   3.832   4.226   3.677
44329SOL    HW134884   3.914   4.206   3.632
44329SOL    HW234885   3.857   4.280   3.752
44330SOL     OW34886   2.213   7.068   2.318
44330SOL    HW134887   2.279   7.137   2.328
44330SOL    HW234888   2.165   7.069   2.400
44331SOL     OW34889   2.645   6.516   0.555
44331SOL    HW134890   2.731   6.552   0.535
44331SOL    HW234891   2.586   6.555   0.490
44332SOL     OW34892  14.443   7.816   6.846
44332SOL    HW134893  14.415   7.749   6.908
44332SOL    HW234894  14.525   7.850   6.882
44333SOL     OW34895   4.669  12.403  11.348
44333SOL    HW134896   4.594  12.461  11.335
44333SOL    HW234897   4.640  12.341  11.415
44334SOL     OW34898  10.632   7.829   4.100
44334SOL    HW134899  10.697   7.876   4.048
44334SOL    HW234900  10.567   7.895   4.123
44335SOL     OW34901  11.859  13.412   0.279
44335SOL    HW134902  11.818  13.345   0.223
44335SOL    HW234903  11.823  13.495   0.246
44336SOL     OW34904   5.195   8.903   2.914
44336SOL    HW134905   5.191   8.999   2.915
44336SOL    HW234906   5.243   8.880   2.993
44337SOL     OW34907   3.922   8.665   5.400
44337SOL    HW134908   3.925   8.576   5.367
44337SOL    HW234909   4.012   8.697   5.392
44338SOL     OW34910   4.014   4.741   5.387
44338SOL    HW134911   4.101   4.766   5.356
44338SOL    HW234912   4.028   4.707   5.475
44339SOL     OW34913  14.746  13.102   3.997
44339SOL    HW134914  14.744  13.166   4.069
44339SOL    HW234915  14.783  13.151   3.924
44340SOL     OW34916  11.410   8.925   3.746
44340SOL    HW134917  11.420   8.880   3.661
44340SOL    HW234918  11.369   8.859   3.803
44341SOL     OW34919   3.639   5.435  13.440
44341SOL    HW134920   3.601   5.348  13.425
44341SOL    HW234921   3.589   5.470  13.513
44342SOL     OW34922  11.498  10.976  13.178
44342SOL    HW134923  11.497  10.886  13.210
44342SOL    HW234924  11.540  11.026  13.248
44343SOL     OW34925   7.745  12.295   8.734
44343SOL    HW134926   7.651  12.273   8.727
44343SOL    HW234927   7.788  12.230   8.678
44344SOL     OW34928  11.332  14.585   4.280
44344SOL    HW134929  11.419  14.617   4.304
44344SOL    HW234930  11.330  14.591   4.184
44345SOL     OW34931  11.094   8.001   9.209
44345SOL    HW134932  11.014   7.961   9.242
44345SOL    HW234933  11.098   7.972   9.117
44346SOL     OW34934   3.979   9.098   8.874
44346SOL    HW134935   3.912   9.145   8.824
44346SOL    HW234936   3.944   9.010   8.884
44347SOL     OW34937   3.837  12.385  12.169
44347SOL    HW134938   3.849  12.371  12.263
44347SOL    HW234939   3.751  12.346  12.150
44348SOL     OW34940  12.356   9.452   8.120
44348SOL    HW134941  12.314   9.395   8.056
44348SOL    HW234942  12.396   9.391   8.183
44349SOL     OW34943   0.874   6.984   0.482
44349SOL    HW134944   0.852   6.981   0.576
44349SOL    HW234945   0.946   6.922   0.472
44350SOL     OW34946  10.265  10.334   5.077
44350SOL    HW134947  10.278  10.346   5.171
44350SOL    HW234948  10.307  10.410   5.037
44351SOL     OW34949   9.279  10.433   7.544
44351SOL    HW134950   9.353  10.423   7.603
44351SOL    HW234951   9.260  10.527   7.543
44352SOL     OW34952  11.184  13.797  11.427
44352SOL    HW134953  11.167  13.757  11.341
44352SOL    HW234954  11.274  13.829  11.421
44353SOL     OW34955   5.612  13.485  10.717
44353SOL    HW134956   5.704  13.498  10.695
44353SOL    HW234957   5.578  13.574  10.730
44354SOL     OW34958  10.898  10.595   2.843
44354SOL    HW134959  10.850  10.528   2.793
44354SOL    HW234960  10.990  10.579   2.823
44355SOL     OW34961   5.746  13.030   5.503
44355SOL    HW134962   5.794  12.968   5.448
44355SOL    HW234963   5.726  12.980   5.582
44356SOL     OW34964   9.164  13.958   5.149
44356SOL    HW134965   9.082  14.007   5.142
44356SOL    HW234966   9.229  14.024   5.175
44357SOL     OW34967  13.669   1.716   6.261
44357SOL    HW134968  13.607   1.683   6.196
44357SOL    HW234969  13.632   1.800   6.289
44358SOL     OW34970  13.263  12.183   6.076
44358SOL    HW134971  13.264  12.220   6.164
44358SOL    HW234972  13.172  12.186   6.049
44359SOL     OW34973   0.908   9.695   1.119
44359SOL    HW134974   0.863   9.759   1.064
44359SOL    HW234975   0.946   9.746   1.190
44360SOL     OW34976   4.656   9.166   4.592
44360SOL    HW134977   4.658   9.077   4.556
44360SOL    HW234978   4.732   9.170   4.649
44361SOL     OW34979   6.458   9.397  11.709
44361SOL    HW134980   6.531   9.455  11.687
44361SOL    HW234981   6.453   9.400  11.804
44362SOL     OW34982  12.723  14.769   3.086
44362SOL    HW134983  12.769  14.730   3.012
44362SOL    HW234984  12.656  14.825   3.046
44363SOL     OW34985   3.079   8.757  11.286
44363SOL    HW134986   3.018   8.750  11.213
44363SOL    HW234987   3.049   8.691  11.350
44364SOL     OW34988  11.163   6.350  13.971
44364SOL    HW134989  11.131   6.292  14.041
44364SOL    HW234990  11.121   6.317  13.892
44365SOL     OW34991   4.297  13.540  13.807
44365SOL    HW134992   4.332  13.454  13.782
44365SOL    HW234993   4.259  13.526  13.894
44366SOL     OW34994   1.069   6.681   1.916
44366SOL    HW134995   1.072   6.777   1.913
44366SOL    HW234996   0.990   6.661   1.965
44367SOL     OW34997   6.330   4.532   7.924
44367SOL    HW134998   6.331   4.438   7.909
44367SOL    HW234999   6.414   4.551   7.965
44368SOL     OW35000   6.339   6.656  11.309
44368SOL    HW135001   6.338   6.581  11.250
44368SOL    HW235002   6.426   6.694  11.298
44369SOL     OW35003   0.240  13.823   3.971
44369SOL    HW135004   0.168  13.763   3.951
44369SOL    HW235005   0.199  13.890   4.026
44370SOL     OW35006   5.562  13.598   8.691
44370SOL    HW135007   5.481  13.559   8.658
44370SOL    HW235008   5.625  13.585   8.620
44371SOL     OW35009   0.837   0.119   8.795
44371SOL    HW135010   0.868   0.072   8.718
44371SOL    HW235011   0.842   0.055   8.866
44372SOL     OW35012  13.049  13.022   8.623
44372SOL    HW135013  13.123  13.026   8.563
44372SOL    HW235014  12.976  12.992   8.569
44373SOL     OW35015   1.265  12.387   1.930
44373SOL    HW135016   1.320  12.459   1.900
44373SOL    HW235017   1.180  12.402   1.888
44374SOL     OW35018   9.059   7.639   5.583
44374SOL    HW135019   8.983   7.642   5.526
44374SOL    HW235020   9.119   7.705   5.548
44375SOL     OW35021   8.883   8.949   1.473
44375SOL    HW135022   8.912   8.976   1.386
44375SOL    HW235023   8.843   8.863   1.460
44376SOL     OW35024   0.215   3.172   3.686
44376SOL    HW135025   0.151   3.207   3.748
44376SOL    HW235026   0.292   3.153   3.739
44377SOL     OW35027   6.086  14.151  13.204
44377SOL    HW135028   6.094  14.245  13.191
44377SOL    HW235029   6.158  14.113  13.154
44378SOL     OW35030   2.763   3.615  14.292
44378SOL    HW135031   2.708   3.579  14.361
44378SOL    HW235032   2.710   3.607  14.212
44379SOL     OW35033   5.631   8.969   8.066
44379SOL    HW135034   5.609   8.878   8.047
44379SOL    HW235035   5.547   9.008   8.092
44380SOL     OW35036   5.914   8.916   8.385
44380SOL    HW135037   5.978   8.874   8.327
44380SOL    HW235038   5.950   8.905   8.473
44381SOL     OW35039   5.976   1.917   9.340
44381SOL    HW135040   6.007   1.997   9.299
44381SOL    HW235041   6.053   1.881   9.384
44382SOL     OW35042   0.878   6.522  14.323
44382SOL    HW135043   0.958   6.511  14.272
44382SOL    HW235044   0.877   6.447  14.382
44383SOL     OW35045  11.698   0.507   0.045
44383SOL    HW135046  11.637   0.573   0.012
44383SOL    HW235047  11.707   0.525   0.138
44384SOL     OW35048   7.096   4.588   5.190
44384SOL    HW135049   7.135   4.501   5.191
44384SOL    HW235050   7.094   4.613   5.097
44385SOL     OW35051   1.416  14.817   0.744
44385SOL    HW135052   1.417  14.866   0.826
44385SOL    HW235053   1.364  14.871   0.685
44386SOL     OW35054  11.223   6.822   8.713
44386SOL    HW135055  11.249   6.864   8.631
44386SOL    HW235056  11.155   6.760   8.687
44387SOL     OW35057   4.674   7.225   7.072
44387SOL    HW135058   4.579   7.212   7.063
44387SOL    HW235059   4.713   7.157   7.017
44388SOL     OW35060   2.070   4.110   6.456
44388SOL    HW135061   2.016   4.187   6.442
44388SOL    HW235062   2.090   4.078   6.368
44389SOL     OW35063  10.423   7.779  14.078
44389SOL    HW135064  10.466   7.828  14.148
44389SOL    HW235065  10.344   7.829  14.059
44390SOL     OW35066   8.129   7.035   7.212
44390SOL    HW135067   8.058   6.984   7.252
44390SOL    HW235068   8.129   7.118   7.260
44391SOL     OW35069   3.331  11.815   7.054
44391SOL    HW135070   3.305  11.897   7.095
44391SOL    HW235071   3.387  11.772   7.119
44392SOL     OW35072   9.145   2.182   0.814
44392SOL    HW135073   9.176   2.253   0.757
44392SOL    HW235074   9.149   2.219   0.902
44393SOL     OW35075  13.628  11.017   9.162
44393SOL    HW135076  13.605  11.043   9.073
44393SOL    HW235077  13.698  10.953   9.152
44394SOL     OW35078   2.612   5.981   3.584
44394SOL    HW135079   2.693   5.941   3.554
44394SOL    HW235080   2.634   6.023   3.667
44395SOL     OW35081   8.786   7.125  13.467
44395SOL    HW135082   8.715   7.079  13.513
44395SOL    HW235083   8.866   7.093  13.509
44396SOL     OW35084  11.820   0.460   4.724
44396SOL    HW135085  11.908   0.459   4.763
44396SOL    HW235086  11.772   0.525   4.775
44397SOL     OW35087   4.114   4.893   9.043
44397SOL    HW135088   4.060   4.823   9.079
44397SOL    HW235089   4.106   4.964   9.106
44398SOL     OW35090  12.865   9.009  13.660
44398SOL    HW135091  12.949   8.979  13.694
44398SOL    HW235092  12.812   8.930  13.654
44399SOL     OW35093   7.477  11.074  14.806
44399SOL    HW135094   7.531  11.081   0.009
44399SOL    HW235095   7.402  11.020  14.833
44400SOL     OW35096   9.135   2.706   0.225
44400SOL    HW135097   9.062   2.646   0.241
44400SOL    HW235098   9.205   2.676   0.283
44401SOL     OW35099   0.704   4.881  14.419
44401SOL    HW135100   0.772   4.939  14.385
44401SOL    HW235101   0.675   4.831  14.343
44402SOL     OW35102  14.773   5.490   4.807
44402SOL    HW135103  14.693   5.522   4.764
44402SOL    HW235104  14.793   5.557   4.872
44403SOL     OW35105  10.844  10.472   7.562
44403SOL    HW135106  10.782  10.421   7.613
44403SOL    HW235107  10.930  10.443   7.593
44404SOL     OW35108   1.241   7.992   3.946
44404SOL    HW135109   1.228   8.061   3.882
44404SOL    HW235110   1.292   8.033   4.016
44405SOL     OW35111   9.801   6.479   5.011
44405SOL    HW135112   9.751   6.409   4.970
44405SOL    HW235113   9.792   6.554   4.952
44406SOL     OW35114   2.042   8.435  10.524
44406SOL    HW135115   2.013   8.507  10.580
44406SOL    HW235116   2.055   8.475  10.438
44407SOL     OW35117  12.732  10.317  11.828
44407SOL    HW135118  12.766  10.276  11.908
44407SOL    HW235119  12.809  10.354  11.786
44408SOL     OW35120   1.546  10.608   3.568
44408SOL    HW135121   1.509  10.604   3.657
44408SOL    HW235122   1.477  10.574   3.512
44409SOL     OW35123   0.416   1.846  13.528
44409SOL    HW135124   0.356   1.808  13.463
44409SOL    HW235125   0.402   1.941  13.520
44410SOL     OW35126   6.966  12.468   5.538
44410SOL    HW135127   6.926  12.392   5.496
44410SOL    HW235128   7.048  12.435   5.575
44411SOL     OW35129   0.555   3.524   9.615
44411SOL    HW135130   0.586   3.559   9.532
44411SOL    HW235131   0.581   3.432   9.613
44412SOL     OW35132   2.065   1.763   2.148
44412SOL    HW135133   1.997   1.796   2.206
44412SOL    HW235134   2.025   1.763   2.061
44413SOL     OW35135  11.842   1.923  14.657
44413SOL    HW135136  11.839   2.002  14.711
44413SOL    HW235137  11.876   1.954  14.573
44414SOL     OW35138   2.298  13.381   2.692
44414SOL    HW135139   2.299  13.287   2.676
44414SOL    HW235140   2.330  13.419   2.610
44415SOL     OW35141   2.366   2.227   9.311
44415SOL    HW135142   2.386   2.291   9.379
44415SOL    HW235143   2.427   2.155   9.327
44416SOL     OW35144  11.452  11.626  11.592
44416SOL    HW135145  11.507  11.700  11.617
44416SOL    HW235146  11.365  11.664  11.581
44417SOL     OW35147   1.289   0.108   7.619
44417SOL    HW135148   1.225   0.150   7.562
44417SOL    HW235149   1.237   0.068   7.689
44418SOL     OW35150   2.792   5.268  14.514
44418SOL    HW135151   2.884   5.294  14.521
44418SOL    HW235152   2.759   5.273  14.604
44419SOL     OW35153   5.722   2.734   3.288
44419SOL    HW135154   5.764   2.814   3.256
44419SOL    HW235155   5.793   2.684   3.329
44420SOL     OW35156   1.554   8.556   7.632
44420SOL    HW135157   1.496   8.551   7.555
44420SOL    HW235158   1.567   8.465   7.658
44421SOL     OW35159   0.963   9.964  14.341
44421SOL    HW135160   0.960  10.058  14.354
44421SOL    HW235161   0.964   9.928  14.430
44422SOL     OW35162   0.871   3.645   9.695
44422SOL    HW135163   0.922   3.601   9.763
44422SOL    HW235164   0.902   3.607   9.613
44423SOL     OW35165  11.586   1.271   3.897
44423SOL    HW135166  11.570   1.208   3.968
44423SOL    HW235167  11.631   1.221   3.830
44424SOL     OW35168   7.300  12.690   0.972
44424SOL    HW135169   7.233  12.758   0.965
44424SOL    HW235170   7.300  12.647   0.886
44425SOL     OW35171  10.173   4.260  13.156
44425SOL    HW135172  10.164   4.247  13.062
44425SOL    HW235173  10.132   4.345  13.173
44426SOL     OW35174   1.466  14.257  11.935
44426SOL    HW135175   1.561  14.249  11.933
44426SOL    HW235176   1.448  14.347  11.908
44427SOL     OW35177  11.654   6.215   0.876
44427SOL    HW135178  11.646   6.152   0.805
44427SOL    HW235179  11.652   6.301   0.833
44428SOL     OW35180   9.138  13.497   1.328
44428SOL    HW135181   9.221  13.466   1.363
44428SOL    HW235182   9.072  13.460   1.387
44429SOL     OW35183  13.863   7.795   5.907
44429SOL    HW135184  13.771   7.770   5.912
44429SOL    HW235185  13.890   7.803   5.998
44430SOL     OW35186   7.960   2.678   5.879
44430SOL    HW135187   7.976   2.593   5.920
44430SOL    HW235188   8.044   2.702   5.841
44431SOL     OW35189  13.824  11.047   5.122
44431SOL    HW135190  13.848  11.045   5.214
44431SOL    HW235191  13.890  10.993   5.078
44432SOL     OW35192   1.874   2.436   6.164
44432SOL    HW135193   1.810   2.376   6.125
44432SOL    HW235194   1.958   2.394   6.150
44433SOL     OW35195   6.651  14.340   0.909
44433SOL    HW135196   6.671  14.378   0.824
44433SOL    HW235197   6.671  14.247   0.900
44434SOL     OW35198   3.044   1.012  10.119
44434SOL    HW135199   2.977   1.076  10.146
44434SOL    HW235200   3.127   1.056  10.136
44435SOL     OW35201   5.865  11.513  13.698
44435SOL    HW135202   5.948  11.536  13.657
44435SOL    HW235203   5.865  11.558  13.782
44436SOL     OW35204   5.093   6.619   3.882
44436SOL    HW135205   5.154   6.567   3.831
44436SOL    HW235206   5.008   6.606   3.839
44437SOL     OW35207   7.371   9.499  13.116
44437SOL    HW135208   7.418   9.536  13.042
44437SOL    HW235209   7.304   9.443  13.077
44438SOL     OW35210   1.292   4.790  12.151
44438SOL    HW135211   1.266   4.733  12.078
44438SOL    HW235212   1.246   4.872  12.134
44439SOL     OW35213  14.540   4.956   4.222
44439SOL    HW135214  14.626   4.984   4.251
44439SOL    HW235215  14.505   4.906   4.296
44440SOL     OW35216   3.683  10.385   4.622
44440SOL    HW135217   3.649  10.472   4.643
44440SOL    HW235218   3.732  10.397   4.541
44441SOL     OW35219  14.691   9.702  14.820
44441SOL    HW135220  14.658   9.658   0.023
44441SOL    HW235221  14.696   9.795  14.845
44442SOL     OW35222   2.611  14.054   4.183
44442SOL    HW135223   2.609  14.142   4.219
44442SOL    HW235224   2.526  14.042   4.142
44443SOL     OW35225  11.379   7.593  10.528
44443SOL    HW135226  11.288   7.584  10.498
44443SOL    HW235227  11.431   7.587  10.449
44444SOL     OW35228  11.107   9.962  14.815
44444SOL    HW135229  11.179  10.021  14.838
44444SOL    HW235230  11.058   9.952   0.021
44445SOL     OW35231   2.070   5.587   6.838
44445SOL    HW135232   2.122   5.517   6.879
44445SOL    HW235233   2.045   5.643   6.911
44446SOL     OW35234  12.194   7.367  14.468
44446SOL    HW135235  12.100   7.381  14.478
44446SOL    HW235236  12.235   7.424  14.533
44447SOL     OW35237   6.502  11.737   5.514
44447SOL    HW135238   6.551  11.692   5.446
44447SOL    HW235239   6.511  11.830   5.493
44448SOL     OW35240   4.667   3.247   7.948
44448SOL    HW135241   4.681   3.331   7.903
44448SOL    HW235242   4.719   3.255   8.028
44449SOL     OW35243   2.196  10.565  13.078
44449SOL    HW135244   2.225  10.483  13.039
44449SOL    HW235245   2.162  10.616  13.004
44450SOL     OW35246   2.448   6.296   8.799
44450SOL    HW135247   2.354   6.294   8.817
44450SOL    HW235248   2.487   6.328   8.880
44451SOL     OW35249  14.547   2.100   1.618
44451SOL    HW135250  14.484   2.094   1.690
44451SOL    HW235251  14.630   2.123   1.660
44452SOL     OW35252   1.462   8.057   7.644
44452SOL    HW135253   1.370   8.041   7.621
44452SOL    HW235254   1.485   7.985   7.702
44453SOL     OW35255   1.248   3.393  12.170
44453SOL    HW135256   1.224   3.426  12.257
44453SOL    HW235257   1.313   3.324  12.188
44454SOL     OW35258   7.444   9.709   3.769
44454SOL    HW135259   7.373   9.704   3.706
44454SOL    HW235260   7.404   9.685   3.852
44455SOL     OW35261  11.931  13.702   7.579
44455SOL    HW135262  11.873  13.628   7.595
44455SOL    HW235263  11.872  13.773   7.554
44456SOL     OW35264   1.717   7.050   0.415
44456SOL    HW135265   1.797   7.077   0.370
44456SOL    HW235266   1.674   7.132   0.441
44457SOL     OW35267  11.303   9.914  13.567
44457SOL    HW135268  11.300   9.893  13.660
44457SOL    HW235269  11.374   9.977  13.558
44458SOL     OW35270   0.948  14.669  12.945
44458SOL    HW135271   0.901  14.620  13.011
44458SOL    HW235272   1.040  14.662  12.971
44459SOL     OW35273  13.584   7.613  14.525
44459SOL    HW135274  13.528   7.557  14.578
44459SOL    HW235275  13.636   7.552  14.472
44460SOL     OW35276   5.692  12.002   7.892
44460SOL    HW135277   5.760  12.037   7.949
44460SOL    HW235278   5.633  11.954   7.951
44461SOL     OW35279   0.826  13.081   6.253
44461SOL    HW135280   0.910  13.114   6.284
44461SOL    HW235281   0.761  13.120   6.311
44462SOL     OW35282   3.483   7.942   5.566
44462SOL    HW135283   3.503   7.974   5.654
44462SOL    HW235284   3.561   7.894   5.539
44463SOL     OW35285   4.929  12.839   3.590
44463SOL    HW135286   5.001  12.775   3.593
44463SOL    HW235287   4.934  12.877   3.503
44464SOL     OW35288  13.064   9.828   8.303
44464SOL    HW135289  13.089   9.918   8.325
44464SOL    HW235290  12.994   9.838   8.238
44465SOL     OW35291  13.448  12.576   8.761
44465SOL    HW135292  13.411  12.531   8.685
44465SOL    HW235293  13.512  12.636   8.725
44466SOL     OW35294   0.393   7.803   9.789
44466SOL    HW135295   0.474   7.854   9.789
44466SOL    HW235296   0.371   7.793   9.696
44467SOL     OW35297   9.649  12.630  13.679
44467SOL    HW135298   9.723  12.690  13.675
44467SOL    HW235299   9.574  12.683  13.651
44468SOL     OW35300   7.099   6.055   2.224
44468SOL    HW135301   7.189   6.062   2.256
44468SOL    HW235302   7.044   6.063   2.302
44469SOL     OW35303   3.283  14.007   4.467
44469SOL    HW135304   3.340  13.934   4.491
44469SOL    HW235305   3.312  14.079   4.522
44470SOL     OW35306  12.139   8.471  14.480
44470SOL    HW135307  12.153   8.377  14.473
44470SOL    HW235308  12.053   8.485  14.439
44471SOL     OW35309   7.779   5.746   4.113
44471SOL    HW135310   7.792   5.652   4.110
44471SOL    HW235311   7.812   5.773   4.199
44472SOL     OW35312   9.461   5.388  14.747
44472SOL    HW135313   9.504   5.462  14.789
44472SOL    HW235314   9.368   5.401  14.764
44473SOL     OW35315   1.652   6.495  12.205
44473SOL    HW135316   1.735   6.540  12.221
44473SOL    HW235317   1.614   6.541  12.131
44474SOL     OW35318   5.937  10.113   3.939
44474SOL    HW135319   5.861  10.055   3.946
44474SOL    HW235320   5.900  10.199   3.918
44475SOL     OW35321  13.562   0.206   7.307
44475SOL    HW135322  13.653   0.194   7.332
44475SOL    HW235323  13.517   0.128   7.342
44476SOL     OW35324  12.837   7.019   7.169
44476SOL    HW135325  12.842   7.046   7.260
44476SOL    HW235326  12.921   6.975   7.152
44477SOL     OW35327   0.846   2.806   3.599
44477SOL    HW135328   0.937   2.827   3.580
44477SOL    HW235329   0.818   2.751   3.526
44478SOL     OW35330   3.722  14.015   5.617
44478SOL    HW135331   3.759  14.077   5.555
44478SOL    HW235332   3.646  13.978   5.571
44479SOL     OW35333   6.756   9.441   9.372
44479SOL    HW135334   6.797   9.427   9.286
44479SOL    HW235335   6.662   9.443   9.353
44480SOL     OW35336   3.297   2.724   6.375
44480SOL    HW135337   3.241   2.650   6.399
44480SOL    HW235338   3.358   2.688   6.311
44481SOL     OW35339   2.160   0.221   1.503
44481SOL    HW135340   2.075   0.208   1.546
44481SOL    HW235341   2.160   0.313   1.477
44482SOL     OW35342   9.902   0.448   7.819
44482SOL    HW135343   9.885   0.523   7.876
44482SOL    HW235344   9.979   0.407   7.856
44483SOL     OW35345   6.796  10.188  12.298
44483SOL    HW135346   6.760  10.137  12.370
44483SOL    HW235347   6.891  10.183  12.310
44484SOL     OW35348   1.436   3.552   3.688
44484SOL    HW135349   1.366   3.532   3.750
44484SOL    HW235350   1.404   3.628   3.639
44485SOL     OW35351   1.814  12.502   6.700
44485SOL    HW135352   1.763  12.568   6.652
44485SOL    HW235353   1.873  12.552   6.755
44486SOL     OW35354   9.079   1.085   6.695
44486SOL    HW135355   9.004   1.083   6.635
44486SOL    HW235356   9.145   1.136   6.648
44487SOL     OW35357  12.103  13.221  14.140
44487SOL    HW135358  12.074  13.160  14.073
44487SOL    HW235359  12.093  13.173  14.222
44488SOL     OW35360   4.901   0.084   1.637
44488SOL    HW135361   4.908   0.063   1.731
44488SOL    HW235362   4.812   0.117   1.627
44489SOL     OW35363  14.665   9.502  11.363
44489SOL    HW135364  14.635   9.412  11.351
44489SOL    HW235365  14.585   9.553  11.375
44490SOL     OW35366   0.351   4.244   8.501
44490SOL    HW135367   0.427   4.189   8.486
44490SOL    HW235368   0.336   4.241   8.595
44491SOL     OW35369   0.675  12.278  12.705
44491SOL    HW135370   0.741  12.321  12.760
44491SOL    HW235371   0.591  12.308  12.741
44492SOL     OW35372   7.656  12.006   4.940
44492SOL    HW135373   7.750  12.020   4.952
44492SOL    HW235374   7.624  11.984   5.028
44493SOL     OW35375   9.421   3.259   6.530
44493SOL    HW135376   9.467   3.275   6.612
44493SOL    HW235377   9.469   3.310   6.465
44494SOL     OW35378   7.909  14.760  12.815
44494SOL    HW135379   7.938  14.672  12.838
44494SOL    HW235380   7.906  14.760  12.719
44495SOL     OW35381   0.881  13.369  13.399
44495SOL    HW135382   0.896  13.398  13.309
44495SOL    HW235383   0.833  13.442  13.440
44496SOL     OW35384   4.749   5.188  12.519
44496SOL    HW135385   4.683   5.179  12.588
44496SOL    HW235386   4.756   5.282  12.504
44497SOL     OW35387   1.161   7.773   4.319
44497SOL    HW135388   1.164   7.734   4.232
44497SOL    HW235389   1.229   7.727   4.369
44498SOL     OW35390   2.997  11.229   8.588
44498SOL    HW135391   2.904  11.250   8.603
44498SOL    HW235392   3.012  11.150   8.641
44499SOL     OW35393   7.243  11.549   0.924
44499SOL    HW135394   7.182  11.606   0.877
44499SOL    HW235395   7.328  11.570   0.887
44500SOL     OW35396   3.568   9.623  11.716
44500SOL    HW135397   3.498   9.581  11.666
44500SOL    HW235398   3.625   9.662  11.649
44501SOL     OW35399   9.312  10.425  12.748
44501SOL    HW135400   9.378  10.459  12.687
44501SOL    HW235401   9.246  10.494  12.752
44502SOL     OW35402   7.309   9.734   2.758
44502SOL    HW135403   7.249   9.661   2.746
44502SOL    HW235404   7.359   9.711   2.837
44503SOL     OW35405   0.100  11.934  12.678
44503SOL    HW135406   0.016  11.901  12.708
44503SOL    HW235407   0.095  11.929  12.583
44504SOL     OW35408  14.512   2.681   3.993
44504SOL    HW135409  14.526   2.775   3.983
44504SOL    HW235410  14.525   2.646   3.905
44505SOL     OW35411   3.633   6.259   1.905
44505SOL    HW135412   3.599   6.249   1.816
44505SOL    HW235413   3.644   6.353   1.917
44506SOL     OW35414   7.099   0.600   3.056
44506SOL    HW135415   7.117   0.584   2.963
44506SOL    HW235416   7.182   0.632   3.091
44507SOL     OW35417   2.236  12.354  11.746
44507SOL    HW135418   2.199  12.417  11.684
44507SOL    HW235419   2.168  12.344  11.812
44508SOL     OW35420  14.173  13.749   3.141
44508SOL    HW135421  14.265  13.774   3.129
44508SOL    HW235422  14.123  13.823   3.107
44509SOL     OW35423   3.560  13.051  12.526
44509SOL    HW135424   3.573  13.072  12.433
44509SOL    HW235425   3.510  12.969  12.525
44510SOL     OW35426  12.895   3.429   3.855
44510SOL    HW135427  12.848   3.419   3.772
44510SOL    HW235428  12.829   3.413   3.922
44511SOL     OW35429   1.985   6.526  14.596
44511SOL    HW135430   2.033   6.602  14.630
44511SOL    HW235431   2.046   6.453  14.607
44512SOL     OW35432   9.611   5.918  10.911
44512SOL    HW135433   9.597   5.865  10.990
44512SOL    HW235434   9.570   5.868  10.841
44513SOL     OW35435   2.718   9.524   6.772
44513SOL    HW135436   2.652   9.541   6.840
44513SOL    HW235437   2.672   9.473   6.706
44514SOL     OW35438   7.169   5.986   9.242
44514SOL    HW135439   7.074   5.980   9.245
44514SOL    HW235440   7.187   6.077   9.219
44515SOL     OW35441   8.955  14.475   0.612
44515SOL    HW135442   8.866  14.442   0.626
44515SOL    HW235443   8.972  14.529   0.689
44516SOL     OW35444   0.688  13.147  13.683
44516SOL    HW135445   0.714  13.082  13.748
44516SOL    HW235446   0.767  13.197  13.666
44517SOL     OW35447   4.007   1.525   8.586
44517SOL    HW135448   4.079   1.466   8.610
44517SOL    HW235449   3.949   1.524   8.662
44518SOL     OW35450   9.539   0.658   1.570
44518SOL    HW135451   9.633   0.642   1.561
44518SOL    HW235452   9.525   0.744   1.531
44519SOL     OW35453  12.821   2.019  10.272
44519SOL    HW135454  12.740   1.969  10.260
44519SOL    HW235455  12.888   1.966  10.229
44520SOL     OW35456  12.737  13.392  12.120
44520SOL    HW135457  12.696  13.379  12.035
44520SOL    HW235458  12.695  13.470  12.156
44521SOL     OW35459  11.157  12.838  10.576
44521SOL    HW135460  11.130  12.894  10.503
44521SOL    HW235461  11.119  12.878  10.654
44522SOL     OW35462  12.696  12.849   1.169
44522SOL    HW135463  12.783  12.876   1.200
44522SOL    HW235464  12.673  12.915   1.104
44523SOL     OW35465   3.242   7.646   8.986
44523SOL    HW135466   3.294   7.701   9.044
44523SOL    HW235467   3.215   7.704   8.915
44524SOL     OW35468   7.105   5.459  12.788
44524SOL    HW135469   7.029   5.480  12.842
44524SOL    HW235470   7.113   5.364  12.793
44525SOL     OW35471   0.058  10.184   4.995
44525SOL    HW135472   0.012  10.159   5.074
44525SOL    HW235473   0.147  10.205   5.025
44526SOL     OW35474   3.116  13.751   5.316
44526SOL    HW135475   3.145  13.840   5.293
44526SOL    HW235476   3.105  13.753   5.411
44527SOL     OW35477  10.445   0.584   5.824
44527SOL    HW135478  10.376   0.592   5.889
44527SOL    HW235479  10.445   0.491   5.800
44528SOL     OW35480   6.701   3.341   8.814
44528SOL    HW135481   6.705   3.250   8.786
44528SOL    HW235482   6.792   3.367   8.828
44529SOL     OW35483  11.196   7.817   5.106
44529SOL    HW135484  11.191   7.826   5.011
44529SOL    HW235485  11.281   7.777   5.122
44530SOL     OW35486   7.916   1.182   6.106
44530SOL    HW135487   7.859   1.258   6.097
44530SOL    HW235488   7.878   1.132   6.178
44531SOL     OW35489   5.058  14.459   0.400
44531SOL    HW135490   5.058  14.514   0.478
44531SOL    HW235491   5.062  14.370   0.433
44532SOL     OW35492   4.596   6.701   6.768
44532SOL    HW135493   4.568   6.697   6.677
44532SOL    HW235494   4.515   6.718   6.817
44533SOL     OW35495   3.757   4.378   4.644
44533SOL    HW135496   3.825   4.338   4.590
44533SOL    HW235497   3.721   4.305   4.695
44534SOL     OW35498  13.577   4.841  13.072
44534SOL    HW135499  13.669   4.819  13.091
44534SOL    HW235500  13.527   4.778  13.123
44535SOL     OW35501  14.570   8.338   9.478
44535SOL    HW135502  14.536   8.250   9.465
44535SOL    HW235503  14.665   8.328   9.473
44536SOL     OW35504   4.074   1.887   8.630
44536SOL    HW135505   4.024   1.839   8.564
44536SOL    HW235506   4.111   1.819   8.686
44537SOL     OW35507   2.376   5.634   7.423
44537SOL    HW135508   2.448   5.574   7.405
44537SOL    HW235509   2.404   5.717   7.383
44538SOL     OW35510   1.118  13.870   1.836
44538SOL    HW135511   1.093  13.930   1.906
44538SOL    HW235512   1.209  13.847   1.855
44539SOL     OW35513   3.664  10.034   3.253
44539SOL    HW135514   3.648  10.044   3.159
44539SOL    HW235515   3.584  10.067   3.295
44540SOL     OW35516   8.211  13.279   2.383
44540SOL    HW135517   8.281  13.258   2.445
44540SOL    HW235518   8.249  13.345   2.326
44541SOL     OW35519   7.404   3.638   6.064
44541SOL    HW135520   7.419   3.545   6.076
44541SOL    HW235521   7.477   3.680   6.109
44542SOL     OW35522  14.340   5.944   4.591
44542SOL    HW135523  14.250   5.978   4.585
44542SOL    HW235524  14.330   5.861   4.638
44543SOL     OW35525   3.654   3.556   9.379
44543SOL    HW135526   3.647   3.596   9.466
44543SOL    HW235527   3.569   3.514   9.366
44544SOL     OW35528   5.599   1.126  13.204
44544SOL    HW135529   5.562   1.146  13.290
44544SOL    HW235530   5.648   1.204  13.180
44545SOL     OW35531   8.211  10.146  12.409
44545SOL    HW135532   8.189  10.133  12.501
44545SOL    HW235533   8.305  10.167  12.409
44546SOL     OW35534  14.678  11.923  12.661
44546SOL    HW135535  14.658  12.016  12.657
44546SOL    HW235536  14.604  11.880  12.620
44547SOL     OW35537   9.722   8.070   4.095
44547SOL    HW135538   9.777   8.148   4.099
44547SOL    HW235539   9.698   8.062   4.002
44548SOL     OW35540  14.677   7.345  14.136
44548SOL    HW135541  14.710   7.260  14.108
44548SOL    HW235542  14.748   7.384  14.186
44549SOL     OW35543   4.967   7.574   9.878
44549SOL    HW135544   5.029   7.568   9.806
44549SOL    HW235545   4.932   7.663   9.873
44550SOL     OW35546   1.155  13.898   1.295
44550SOL    HW135547   1.160  13.869   1.386
44550SOL    HW235548   1.195  13.986   1.296
44551SOL     OW35549   8.234   8.670   2.168
44551SOL    HW135550   8.185   8.752   2.174
44551SOL    HW235551   8.313   8.693   2.120
44552SOL     OW35552  11.247   5.685   8.764
44552SOL    HW135553  11.251   5.691   8.860
44552SOL    HW235554  11.245   5.776   8.734
44553SOL     OW35555   1.104   1.961   2.058
44553SOL    HW135556   1.191   1.990   2.033
44553SOL    HW235557   1.094   1.875   2.017
44554SOL     OW35558   9.507  10.677  11.118
44554SOL    HW135559   9.596  10.713  11.116
44554SOL    HW235560   9.519  10.589  11.154
44555SOL     OW35561  10.653  10.505   5.699
44555SOL    HW135562  10.640  10.569   5.769
44555SOL    HW235563  10.714  10.547   5.639
44556SOL     OW35564   4.718   0.325   3.288
44556SOL    HW135565   4.711   0.412   3.248
44556SOL    HW235566   4.811   0.305   3.284
44557SOL     OW35567   8.510  11.475   5.809
44557SOL    HW135568   8.440  11.523   5.853
44557SOL    HW235569   8.499  11.384   5.838
44558SOL     OW35570   9.900   0.043  10.397
44558SOL    HW135571   9.836   0.025  10.328
44558SOL    HW235572   9.889   0.136  10.417
44559SOL     OW35573   1.477   1.089  14.529
44559SOL    HW135574   1.456   1.070  14.620
44559SOL    HW235575   1.573   1.084  14.525
44560SOL     OW35576  10.576   4.907   6.278
44560SOL    HW135577  10.505   4.950   6.325
44560SOL    HW235578  10.537   4.826   6.244
44561SOL     OW35579  13.008   2.486   3.773
44561SOL    HW135580  12.978   2.488   3.682
44561SOL    HW235581  12.927   2.491   3.825
44562SOL     OW35582   6.972   3.952  13.370
44562SOL    HW135583   7.003   3.963  13.280
44562SOL    HW235584   7.027   3.882  13.406
44563SOL     OW35585  11.996   5.199  11.508
44563SOL    HW135586  12.030   5.286  11.488
44563SOL    HW235587  11.930   5.213  11.575
44564SOL     OW35588   6.388   8.273   1.352
44564SOL    HW135589   6.395   8.341   1.420
44564SOL    HW235590   6.302   8.288   1.312
44565SOL     OW35591   9.186  11.947   3.339
44565SOL    HW135592   9.206  12.030   3.381
44565SOL    HW235593   9.090  11.942   3.339
44566SOL     OW35594  12.866   5.998  11.666
44566SOL    HW135595  12.946   5.946  11.657
44566SOL    HW235596  12.871   6.034  11.754
44567SOL     OW35597   9.298   6.324   5.535
44567SOL    HW135598   9.374   6.377   5.514
44567SOL    HW235599   9.330   6.233   5.531
44568SOL     OW35600  14.182  14.860  10.883
44568SOL    HW135601  14.123  14.796  10.924
44568SOL    HW235602  14.214   0.038  10.956
44569SOL     OW35603   9.352  10.895  12.524
44569SOL    HW135604   9.324  10.873  12.613
44569SOL    HW235605   9.271  10.896  12.473
44570SOL     OW35606  10.380   7.161  11.352
44570SOL    HW135607  10.416   7.232  11.299
44570SOL    HW235608  10.454   7.103  11.368
44571SOL     OW35609   1.397   5.199  13.944
44571SOL    HW135610   1.399   5.253  14.023
44571SOL    HW235611   1.484   5.207  13.907
44572SOL     OW35612   2.111   4.624   2.956
44572SOL    HW135613   2.142   4.702   2.910
44572SOL    HW235614   2.179   4.559   2.942
44573SOL     OW35615   7.145   3.406  11.151
44573SOL    HW135616   7.234   3.391  11.184
44573SOL    HW235617   7.144   3.498  11.125
44574SOL     OW35618   4.748   6.407  10.883
44574SOL    HW135619   4.756   6.351  10.806
44574SOL    HW235620   4.661   6.386  10.919
44575SOL     OW35621  14.761   1.655   7.665
44575SOL    HW135622  14.847   1.693   7.648
44575SOL    HW235623  14.702   1.702   7.606
44576SOL     OW35624   7.788  13.971   0.805
44576SOL    HW135625   7.860  13.967   0.867
44576SOL    HW235626   7.744  14.054   0.824
44577SOL     OW35627   5.388   8.891   0.824
44577SOL    HW135628   5.481   8.889   0.802
44577SOL    HW235629   5.348   8.943   0.755
44578SOL     OW35630   6.914   7.425   9.028
44578SOL    HW135631   6.944   7.364   8.960
44578SOL    HW235632   6.886   7.369   9.100
44579SOL     OW35633  13.695  10.641  10.133
44579SOL    HW135634  13.647  10.600  10.061
44579SOL    HW235635  13.689  10.578  10.205
44580SOL     OW35636   3.469  10.903   1.108
44580SOL    HW135637   3.435  10.990   1.089
44580SOL    HW235638   3.555  10.918   1.147
44581SOL     OW35639   6.589  10.749   2.033
44581SOL    HW135640   6.665  10.747   2.091
44581SOL    HW235641   6.553  10.837   2.043
44582SOL     OW35642   9.162   5.956   3.867
44582SOL    HW135643   9.156   5.898   3.944
44582SOL    HW235644   9.241   6.008   3.883
44583SOL     OW35645  11.096  13.621   1.661
44583SOL    HW135646  11.143  13.659   1.587
44583SOL    HW235647  11.163  13.575   1.712
44584SOL     OW35648   2.481   3.748   0.855
44584SOL    HW135649   2.538   3.711   0.922
44584SOL    HW235650   2.536   3.757   0.778
44585SOL     OW35651  12.098   2.766   6.709
44585SOL    HW135652  12.136   2.718   6.635
44585SOL    HW235653  12.138   2.727   6.786
44586SOL     OW35654   2.622  14.073  12.300
44586SOL    HW135655   2.631  13.987  12.342
44586SOL    HW235656   2.709  14.093  12.267
44587SOL     OW35657   8.514   0.833  10.161
44587SOL    HW135658   8.531   0.758  10.104
44587SOL    HW235659   8.523   0.909  10.104
44588SOL     OW35660   5.579   1.121   8.343
44588SOL    HW135661   5.539   1.035   8.326
44588SOL    HW235662   5.673   1.106   8.333
44589SOL     OW35663   5.571   1.036   9.548
44589SOL    HW135664   5.605   1.125   9.534
44589SOL    HW235665   5.530   1.039   9.634
44590SOL     OW35666  11.936  11.124   9.991
44590SOL    HW135667  11.923  11.205   9.941
44590SOL    HW235668  11.867  11.125  10.057
44591SOL     OW35669  13.656   4.175  12.924
44591SOL    HW135670  13.581   4.233  12.934
44591SOL    HW235671  13.718   4.204  12.991
44592SOL     OW35672  11.470   5.483   3.631
44592SOL    HW135673  11.557   5.478   3.671
44592SOL    HW235674  11.460   5.575   3.606
44593SOL     OW35675   3.604  12.210   2.541
44593SOL    HW135676   3.572  12.243   2.457
44593SOL    HW235677   3.687  12.256   2.554
44594SOL     OW35678   7.392   9.133   9.339
44594SOL    HW135679   7.471   9.188   9.339
44594SOL    HW235680   7.331   9.180   9.282
44595SOL     OW35681  13.824   9.666  10.309
44595SOL    HW135682  13.859   9.594  10.362
44595SOL    HW235683  13.900   9.715  10.281
44596SOL     OW35684  12.926   4.664   3.735
44596SOL    HW135685  12.982   4.722   3.788
44596SOL    HW235686  12.969   4.579   3.740
44597SOL     OW35687  13.940   0.884   4.878
44597SOL    HW135688  14.013   0.932   4.839
44597SOL    HW235689  13.948   0.902   4.972
44598SOL     OW35690   4.141  14.717   9.655
44598SOL    HW135691   4.065  14.677   9.697
44598SOL    HW235692   4.198  14.744   9.727
44599SOL     OW35693  11.420  10.824   9.088
44599SOL    HW135694  11.480  10.839   9.015
44599SOL    HW235695  11.478  10.808   9.163
44600SOL     OW35696   8.318   1.736  11.470
44600SOL    HW135697   8.299   1.795  11.543
44600SOL    HW235698   8.245   1.748  11.409
44601SOL     OW35699  14.248   8.998   5.951
44601SOL    HW135700  14.153   9.002   5.968
44601SOL    HW235701  14.255   8.970   5.860
44602SOL     OW35702   7.293  11.906  12.431
44602SOL    HW135703   7.329  11.995  12.437
44602SOL    HW235704   7.367  11.849  12.449
44603SOL     OW35705   9.861   8.831   5.028
44603SOL    HW135706   9.867   8.911   4.975
44603SOL    HW235707   9.897   8.856   5.113
44604SOL     OW35708   7.621  13.589  11.139
44604SOL    HW135709   7.578  13.527  11.080
44604SOL    HW235710   7.676  13.641  11.081
44605SOL     OW35711   4.110   9.487   5.050
44605SOL    HW135712   4.107   9.542   5.128
44605SOL    HW235713   4.097   9.398   5.083
44606SOL     OW35714   4.457   8.833   1.893
44606SOL    HW135715   4.536   8.884   1.910
44606SOL    HW235716   4.398   8.893   1.847
44607SOL     OW35717   1.045   4.346   1.108
44607SOL    HW135718   1.084   4.410   1.167
44607SOL    HW235719   0.979   4.301   1.161
44608SOL     OW35720   5.109   8.418  12.365
44608SOL    HW135721   5.045   8.348  12.371
44608SOL    HW235722   5.135   8.436  12.455
44609SOL     OW35723   9.754   5.479  14.601
44609SOL    HW135724   9.748   5.448  14.511
44609SOL    HW235725   9.674   5.448  14.643
44610SOL     OW35726   5.201   7.592   7.529
44610SOL    HW135727   5.179   7.538   7.453
44610SOL    HW235728   5.130   7.578   7.590
44611SOL     OW35729   3.010   8.434  13.771
44611SOL    HW135730   3.011   8.465  13.862
44611SOL    HW235731   3.016   8.514  13.718
44612SOL     OW35732  11.629  11.433   8.765
44612SOL    HW135733  11.534  11.433   8.768
44612SOL    HW235734  11.656  11.425   8.856
44613SOL     OW35735   3.601   1.988   6.127
44613SOL    HW135736   3.653   1.909   6.114
44613SOL    HW235737   3.622   2.017   6.216
44614SOL     OW35738  11.747   3.607  12.724
44614SOL    HW135739  11.741   3.694  12.685
44614SOL    HW235740  11.795   3.555  12.660
44615SOL     OW35741  10.280   1.197  10.122
44615SOL    HW135742  10.285   1.110  10.082
44615SOL    HW235743  10.208   1.241  10.076
44616SOL     OW35744  11.219   2.965   8.038
44616SOL    HW135745  11.315   2.961   8.043
44616SOL    HW235746  11.191   2.874   8.048
44617SOL     OW35747   8.120  14.366   6.702
44617SOL    HW135748   8.124  14.419   6.623
44617SOL    HW235749   8.032  14.379   6.736
44618SOL     OW35750   6.144  14.592  12.759
44618SOL    HW135751   6.162  14.591  12.665
44618SOL    HW235752   6.112  14.680  12.776
44619SOL     OW35753   3.114  14.623   3.700
44619SOL    HW135754   3.021  14.607   3.684
44619SOL    HW235755   3.159  14.559   3.646
44620SOL     OW35756  11.119  14.846   7.043
44620SOL    HW135757  11.166   0.030   7.103
44620SOL    HW235758  11.084   0.028   6.975
44621SOL     OW35759   5.059   2.285   8.828
44621SOL    HW135760   5.024   2.322   8.747
44621SOL    HW235761   5.146   2.324   8.837
44622SOL     OW35762  10.543  14.138  10.866
44622SOL    HW135763  10.613  14.194  10.832
44622SOL    HW235764  10.531  14.165  10.957
44623SOL     OW35765   3.315  11.423   3.987
44623SOL    HW135766   3.223  11.398   3.997
44623SOL    HW235767   3.350  11.361   3.923
44624SOL     OW35768   4.376   4.235  11.174
44624SOL    HW135769   4.358   4.163  11.234
44624SOL    HW235770   4.299   4.238  11.117
44625SOL     OW35771   6.506  11.964   0.958
44625SOL    HW135772   6.451  11.886   0.957
44625SOL    HW235773   6.564  11.954   0.882
44626SOL     OW35774   7.275   8.293   9.401
44626SOL    HW135775   7.287   8.278   9.494
44626SOL    HW235776   7.182   8.278   9.386
44627SOL     OW35777   1.848  13.403  11.552
44627SOL    HW135778   1.897  13.456  11.490
44627SOL    HW235779   1.911  13.380  11.620
44628SOL     OW35780   9.234  10.916   2.204
44628SOL    HW135781   9.181  10.855   2.255
44628SOL    HW235782   9.246  10.873   2.120
44629SOL     OW35783   1.790  12.334  14.175
44629SOL    HW135784   1.862  12.397  14.179
44629SOL    HW235785   1.711  12.386  14.186
44630SOL     OW35786   4.303  10.859  14.491
44630SOL    HW135787   4.321  10.898  14.577
44630SOL    HW235788   4.294  10.933  14.432
44631SOL     OW35789  10.789   4.475  12.508
44631SOL    HW135790  10.695   4.494  12.513
44631SOL    HW235791  10.817   4.514  12.425
44632SOL     OW35792   5.506  12.196   0.612
44632SOL    HW135793   5.414  12.221   0.608
44632SOL    HW235794   5.551  12.272   0.648
44633SOL     OW35795   4.445   7.767   7.846
44633SOL    HW135796   4.424   7.710   7.772
44633SOL    HW235797   4.497   7.712   7.905
44634SOL     OW35798  12.725  13.954   1.854
44634SOL    HW135799  12.718  14.046   1.826
44634SOL    HW235800  12.715  13.957   1.949
44635SOL     OW35801   5.391  10.034   4.539
44635SOL    HW135802   5.333  10.033   4.615
44635SOL    HW235803   5.338   9.998   4.468
44636SOL     OW35804   3.721   6.031   8.837
44636SOL    HW135805   3.681   6.054   8.921
44636SOL    HW235806   3.785   5.964   8.858
44637SOL     OW35807   4.861   7.520   0.287
44637SOL    HW135808   4.890   7.429   0.295
44637SOL    HW235809   4.774   7.521   0.328
44638SOL     OW35810   5.281   5.342   8.997
44638SOL    HW135811   5.239   5.420   9.033
44638SOL    HW235812   5.280   5.355   8.903
44639SOL     OW35813   8.666  13.955   8.918
44639SOL    HW135814   8.661  14.024   8.851
44639SOL    HW235815   8.638  13.997   8.999
44640SOL     OW35816   0.827   5.342   2.913
44640SOL    HW135817   0.772   5.373   2.985
44640SOL    HW235818   0.915   5.372   2.936
44641SOL     OW35819   1.618   6.600   0.854
44641SOL    HW135820   1.630   6.670   0.918
44641SOL    HW235821   1.555   6.636   0.791
44642SOL     OW35822   5.686  10.275  11.040
44642SOL    HW135823   5.728  10.321  10.967
44642SOL    HW235824   5.659  10.191  11.003
44643SOL     OW35825   3.346   1.170  12.109
44643SOL    HW135826   3.376   1.159  12.199
44643SOL    HW235827   3.403   1.114  12.057
44644SOL     OW35828   0.147  11.035  13.870
44644SOL    HW135829   0.163  11.069  13.958
44644SOL    HW235830   0.221  11.068  13.819
44645SOL     OW35831  13.332  14.871   1.037
44645SOL    HW135832  13.330   0.005   1.132
44645SOL    HW235833  13.292   0.076   1.005
44646SOL     OW35834   1.679   9.299   6.791
44646SOL    HW135835   1.687   9.205   6.778
44646SOL    HW235836   1.688   9.311   6.886
44647SOL     OW35837  12.530   5.993  12.658
44647SOL    HW135838  12.490   5.926  12.714
44647SOL    HW235839  12.477   5.993  12.579
44648SOL     OW35840   2.039  13.941   5.976
44648SOL    HW135841   1.977  13.933   5.903
44648SOL    HW235842   2.060  14.035   5.979
44649SOL     OW35843   4.033   1.473   1.985
44649SOL    HW135844   3.972   1.402   2.004
44649SOL    HW235845   4.079   1.444   1.906
44650SOL     OW35846   9.279  10.165   1.447
44650SOL    HW135847   9.324  10.082   1.467
44650SOL    HW235848   9.195  10.157   1.491
44651SOL     OW35849   4.791   1.975   9.393
44651SOL    HW135850   4.747   2.055   9.366
44651SOL    HW235851   4.781   1.974   9.489
44652SOL     OW35852   8.266   0.756  14.600
44652SOL    HW135853   8.355   0.735  14.630
44652SOL    HW235854   8.274   0.761  14.504
44653SOL     OW35855   1.426   3.823   8.234
44653SOL    HW135856   1.366   3.814   8.160
44653SOL    HW235857   1.504   3.775   8.208
44654SOL     OW35858  13.421   7.928   7.621
44654SOL    HW135859  13.346   7.868   7.617
44654SOL    HW235860  13.435   7.957   7.531
44655SOL     OW35861   6.684   7.520   2.778
44655SOL    HW135862   6.758   7.580   2.776
44655SOL    HW235863   6.653   7.516   2.688
44656SOL     OW35864  12.345  10.934   4.869
44656SOL    HW135865  12.388  10.994   4.807
44656SOL    HW235866  12.405  10.860   4.875
44657SOL     OW35867  10.035   4.139   1.732
44657SOL    HW135868  10.084   4.140   1.649
44657SOL    HW235869  10.081   4.075   1.786
44658SOL     OW35870   6.453   3.385   1.897
44658SOL    HW135871   6.484   3.453   1.837
44658SOL    HW235872   6.510   3.310   1.880
44659SOL     OW35873   7.038  11.143   8.641
44659SOL    HW135874   7.106  11.140   8.574
44659SOL    HW235875   6.993  11.059   8.633
44660SOL     OW35876   4.691   3.351   8.377
44660SOL    HW135877   4.750   3.336   8.304
44660SOL    HW235878   4.633   3.421   8.347
44661SOL     OW35879   6.959   9.136  12.168
44661SOL    HW135880   7.043   9.165  12.203
44661SOL    HW235881   6.949   9.046  12.199
44662SOL     OW35882  10.033  10.689   2.518
44662SOL    HW135883  10.065  10.738   2.594
44662SOL    HW235884   9.945  10.722   2.503
44663SOL     OW35885   5.469   6.694   4.563
44663SOL    HW135886   5.546   6.645   4.534
44663SOL    HW235887   5.472   6.689   4.658
44664SOL     OW35888   9.440   8.825   9.465
44664SOL    HW135889   9.463   8.793   9.378
44664SOL    HW235890   9.405   8.913   9.450
44665SOL     OW35891   6.755  12.765   8.965
44665SOL    HW135892   6.755  12.714   8.884
44665SOL    HW235893   6.724  12.705   9.032
44666SOL     OW35894  13.041  12.514   8.783
44666SOL    HW135895  13.077  12.602   8.791
44666SOL    HW235896  12.989  12.516   8.703
44667SOL     OW35897   1.479   6.652  12.043
44667SOL    HW135898   1.409   6.718  12.041
44667SOL    HW235899   1.447   6.582  11.986
44668SOL     OW35900   5.045  10.762   6.137
44668SOL    HW135901   4.983  10.690   6.142
44668SOL    HW235902   5.131  10.721   6.133
44669SOL     OW35903   8.291   7.579   0.237
44669SOL    HW135904   8.300   7.530   0.319
44669SOL    HW235905   8.279   7.512   0.170
44670SOL     OW35906   5.265   5.613   1.106
44670SOL    HW135907   5.246   5.615   1.013
44670SOL    HW235908   5.181   5.598   1.148
44671SOL     OW35909  12.321  13.279  14.772
44671SOL    HW135910  12.277  13.229  14.703
44671SOL    HW235911  12.251  13.319  14.822
44672SOL     OW35912   4.310   1.582   4.210
44672SOL    HW135913   4.316   1.523   4.135
44672SOL    HW235914   4.336   1.529   4.285
44673SOL     OW35915  14.133   7.595   9.747
44673SOL    HW135916  14.217   7.559   9.720
44673SOL    HW235917  14.087   7.522   9.787
44674SOL     OW35918   8.478  13.220   7.776
44674SOL    HW135919   8.421  13.188   7.846
44674SOL    HW235920   8.565  13.221   7.814
44675SOL     OW35921   7.310  13.191  12.184
44675SOL    HW135922   7.382  13.206  12.247
44675SOL    HW235923   7.273  13.107  12.209
44676SOL     OW35924   6.834   0.278  10.756
44676SOL    HW135925   6.894   0.250  10.687
44676SOL    HW235926   6.854   0.221  10.830
44677SOL     OW35927  11.919   9.169   4.031
44677SOL    HW135928  11.998   9.201   4.074
44677SOL    HW235929  11.878   9.110   4.094
44678SOL     OW35930   7.297   2.106   2.707
44678SOL    HW135931   7.326   2.099   2.798
44678SOL    HW235932   7.348   2.178   2.670
44679SOL     OW35933   9.246   3.679   7.697
44679SOL    HW135934   9.172   3.657   7.641
44679SOL    HW235935   9.260   3.773   7.682
44680SOL     OW35936   7.918  11.302   2.858
44680SOL    HW135937   7.993  11.285   2.915
44680SOL    HW235938   7.842  11.299   2.916
44681SOL     OW35939   8.061   1.513   6.195
44681SOL    HW135940   8.024   1.529   6.108
44681SOL    HW235941   7.987   1.485   6.248
44682SOL     OW35942   5.229  10.937  12.982
44682SOL    HW135943   5.138  10.963  12.973
44682SOL    HW235944   5.238  10.859  12.928
44683SOL     OW35945   2.065   8.669   1.595
44683SOL    HW135946   2.073   8.734   1.525
44683SOL    HW235947   2.123   8.598   1.569
44684SOL     OW35948   6.006   0.168   0.448
44684SOL    HW135949   5.949   0.147   0.522
44684SOL    HW235950   6.056   0.244   0.477
44685SOL     OW35951   4.457   7.622  14.022
44685SOL    HW135952   4.438   7.561  14.094
44685SOL    HW235953   4.383   7.614  13.963
44686SOL     OW35954   9.248   0.725   1.436
44686SOL    HW135955   9.338   0.715   1.407
44686SOL    HW235956   9.205   0.644   1.410
44687SOL     OW35957   4.562   4.859  13.285
44687SOL    HW135958   4.657   4.848  13.273
44687SOL    HW235959   4.538   4.791  13.347
44688SOL     OW35960  14.305  10.428  11.893
44688SOL    HW135961  14.218  10.444  11.932
44688SOL    HW235962  14.333  10.514  11.862
44689SOL     OW35963   1.737   0.336  11.183
44689SOL    HW135964   1.664   0.274  11.190
44689SOL    HW235965   1.797   0.296  11.119
44690SOL     OW35966   6.288   8.063  13.020
44690SOL    HW135967   6.301   7.972  13.047
44690SOL    HW235968   6.193   8.075  13.021
44691SOL     OW35969  12.375  10.348   2.848
44691SOL    HW135970  12.357  10.404   2.772
44691SOL    HW235971  12.468  10.329   2.842
44692SOL     OW35972   4.035  11.191  14.654
44692SOL    HW135973   3.948  11.230  14.657
44692SOL    HW235974   4.064  11.201  14.563
44693SOL     OW35975   4.311   6.447   1.184
44693SOL    HW135976   4.347   6.428   1.271
44693SOL    HW235977   4.242   6.381   1.171
44694SOL     OW35978   6.820  10.046  11.044
44694SOL    HW135979   6.829   9.995  11.125
44694SOL    HW235980   6.749  10.107  11.062
44695SOL     OW35981  11.383   5.271   3.481
44695SOL    HW135982  11.413   5.346   3.533
44695SOL    HW235983  11.386   5.303   3.390
44696SOL     OW35984   8.662   1.410   9.346
44696SOL    HW135985   8.628   1.367   9.268
44696SOL    HW235986   8.629   1.500   9.340
44697SOL     OW35987  14.616   6.868   4.675
44697SOL    HW135988  14.599   6.840   4.586
44697SOL    HW235989  14.711   6.881   4.679
44698SOL     OW35990  10.950   2.782   3.671
44698SOL    HW135991  10.943   2.841   3.596
44698SOL    HW235992  10.860   2.769   3.700
44699SOL     OW35993  10.583   1.260   2.020
44699SOL    HW135994  10.526   1.321   2.066
44699SOL    HW235995  10.605   1.305   1.938
44700SOL     OW35996   2.236  10.195   1.845
44700SOL    HW135997   2.275  10.233   1.767
44700SOL    HW235998   2.157  10.152   1.815
44701SOL     OW35999   7.912  13.151  14.387
44701SOL    HW136000   7.931  13.153  14.293
44701SOL    HW236001   7.894  13.059  14.406
44702SOL     OW36002   0.758  13.510   6.593
44702SOL    HW136003   0.708  13.536   6.670
44702SOL    HW236004   0.710  13.547   6.519
44703SOL     OW36005   2.305   3.971   2.741
44703SOL    HW136006   2.397   3.965   2.716
44703SOL    HW236007   2.257   3.943   2.664
44704SOL     OW36008  12.271   0.185  12.459
44704SOL    HW136009  12.327   0.126  12.408
44704SOL    HW236010  12.182   0.159  12.434
44705SOL     OW36011  12.153   2.434   8.375
44705SOL    HW136012  12.138   2.343   8.401
44705SOL    HW236013  12.114   2.485   8.446
44706SOL     OW36014   8.991  14.641   0.853
44706SOL    HW136015   9.035  14.707   0.907
44706SOL    HW236016   8.952  14.581   0.917
44707SOL     OW36017   7.721   0.661   8.906
44707SOL    HW136018   7.693   0.597   8.971
44707SOL    HW236019   7.770   0.726   8.955
44708SOL     OW36020   8.855   3.148   1.784
44708SOL    HW136021   8.831   3.058   1.765
44708SOL    HW236022   8.829   3.161   1.876
44709SOL     OW36023   8.382   5.833  13.780
44709SOL    HW136024   8.324   5.847  13.855
44709SOL    HW236025   8.360   5.745  13.748
44710SOL     OW36026   0.941   1.878   8.318
44710SOL    HW136027   0.885   1.826   8.376
44710SOL    HW236028   0.885   1.903   8.246
44711SOL     OW36029   0.633   3.619   2.421
44711SOL    HW136030   0.576   3.667   2.480
44711SOL    HW236031   0.578   3.547   2.389
44712SOL     OW36032  10.701   9.192  13.143
44712SOL    HW136033  10.736   9.234  13.222
44712SOL    HW236034  10.734   9.246  13.071
44713SOL     OW36035  13.345   8.409   8.232
44713SOL    HW136036  13.348   8.446   8.320
44713SOL    HW236037  13.272   8.454   8.190
44714SOL     OW36038   7.381   4.146  13.162
44714SOL    HW136039   7.363   4.121  13.252
44714SOL    HW236040   7.457   4.093  13.137
44715SOL     OW36041   1.573  13.770  14.696
44715SOL    HW136042   1.638  13.737  14.757
44715SOL    HW236043   1.489  13.757  14.740
44716SOL     OW36044   4.043  12.974   2.794
44716SOL    HW136045   4.064  13.057   2.835
44716SOL    HW236046   3.949  12.962   2.811
44717SOL     OW36047  11.804   8.869  13.804
44717SOL    HW136048  11.760   8.951  13.826
44717SOL    HW236049  11.840   8.838  13.887
44718SOL     OW36050  10.674   4.305  14.057
44718SOL    HW136051  10.642   4.216  14.045
44718SOL    HW236052  10.766   4.294  14.080
44719SOL     OW36053  12.286   9.821  11.935
44719SOL    HW136054  12.235   9.753  11.891
44719SOL    HW236055  12.277   9.899  11.880
44720SOL     OW36056  13.925   9.915   1.482
44720SOL    HW136057  13.970   9.831   1.474
44720SOL    HW236058  13.927   9.935   1.575
44721SOL     OW36059  14.675   6.669  11.221
44721SOL    HW136060  14.615   6.599  11.249
44721SOL    HW236061  14.741   6.624  11.169
44722SOL     OW36062   3.033  12.847  10.950
44722SOL    HW136063   2.947  12.810  10.933
44722SOL    HW236064   3.069  12.865  10.863
44723SOL     OW36065   8.021   8.940  10.560
44723SOL    HW136066   8.072   9.003  10.610
44723SOL    HW236067   7.935   8.939  10.601
44724SOL     OW36068  14.749  10.124  10.955
44724SOL    HW136069  14.665  10.169  10.948
44724SOL    HW236070  14.809  10.191  10.987
44725SOL     OW36071   2.192  11.660  14.004
44725SOL    HW136072   2.233  11.681  13.920
44725SOL    HW236073   2.114  11.715  14.007
44726SOL     OW36074  14.279   6.842  13.204
44726SOL    HW136075  14.191   6.878  13.205
44726SOL    HW236076  14.337   6.919  13.200
44727SOL     OW36077  14.116   4.778   3.604
44727SOL    HW136078  14.115   4.802   3.697
44727SOL    HW236079  14.207   4.755   3.586
44728SOL     OW36080   5.388   5.229   7.603
44728SOL    HW136081   5.416   5.320   7.612
44728SOL    HW236082   5.450   5.180   7.658
44729SOL     OW36083  13.876   2.347   7.495
44729SOL    HW136084  13.806   2.282   7.497
44729SOL    HW236085  13.915   2.338   7.408
44730SOL     OW36086   6.739   0.556  11.095
44730SOL    HW136087   6.647   0.544  11.073
44730SOL    HW236088   6.781   0.580  11.013
44731SOL     OW36089   9.161   8.939   1.803
44731SOL    HW136090   9.121   8.852   1.812
44731SOL    HW236091   9.228   8.942   1.871
44732SOL     OW36092   4.621   4.132   6.671
44732SOL    HW136093   4.580   4.119   6.585
44732SOL    HW236094   4.566   4.081   6.731
44733SOL     OW36095   6.629   8.220   1.014
44733SOL    HW136096   6.675   8.136   1.016
44733SOL    HW236097   6.536   8.195   1.022
44734SOL     OW36098   3.885   1.276  12.486
44734SOL    HW136099   3.864   1.182  12.485
44734SOL    HW236100   3.883   1.301  12.394
44735SOL     OW36101   1.356   5.197   9.511
44735SOL    HW136102   1.451   5.184   9.502
44735SOL    HW236103   1.319   5.110   9.496
44736SOL     OW36104  10.771  11.327   2.056
44736SOL    HW136105  10.770  11.241   2.015
44736SOL    HW236106  10.771  11.309   2.150
44737SOL     OW36107   2.287  13.294   0.578
44737SOL    HW136108   2.214  13.334   0.529
44737SOL    HW236109   2.248  13.218   0.620
44738SOL     OW36110   8.590   3.186   8.401
44738SOL    HW136111   8.507   3.214   8.363
44738SOL    HW236112   8.641   3.267   8.408
44739SOL     OW36113   3.647   9.138   2.785
44739SOL    HW136114   3.671   9.230   2.798
44739SOL    HW236115   3.637   9.104   2.874
44740SOL     OW36116  11.838   0.003  10.541
44740SOL    HW136117  11.775   0.071  10.564
44740SOL    HW236118  11.830  14.813  10.612
44741SOL     OW36119  13.930  12.565   8.859
44741SOL    HW136120  13.994  12.596   8.923
44741SOL    HW236121  13.896  12.483   8.896
44742SOL     OW36122   6.188  13.966   6.293
44742SOL    HW136123   6.196  14.034   6.360
44742SOL    HW236124   6.095  13.945   6.291
44743SOL     OW36125   5.474  10.219   7.775
44743SOL    HW136126   5.505  10.139   7.819
44743SOL    HW236127   5.440  10.188   7.691
44744SOL     OW36128   4.086   9.883   0.451
44744SOL    HW136129   4.038   9.801   0.440
44744SOL    HW236130   4.031   9.949   0.408
44745SOL     OW36131  11.617  11.319   3.842
44745SOL    HW136132  11.704  11.318   3.801
44745SOL    HW236133  11.624  11.255   3.912
44746SOL     OW36134  10.333  10.494   3.399
44746SOL    HW136135  10.428  10.486   3.392
44746SOL    HW236136  10.318  10.587   3.419
44747SOL     OW36137  13.602   5.266   9.928
44747SOL    HW136138  13.685   5.223   9.945
44747SOL    HW236139  13.626   5.354   9.898
44748SOL     OW36140   8.867   1.703  11.343
44748SOL    HW136141   8.815   1.721  11.421
44748SOL    HW236142   8.928   1.777  11.337
44749SOL     OW36143   9.846   7.768   6.086
44749SOL    HW136144   9.815   7.715   6.013
44749SOL    HW236145   9.863   7.705   6.156
44750SOL     OW36146   3.715   7.013   6.531
44750SOL    HW136147   3.731   6.920   6.542
44750SOL    HW236148   3.663   7.019   6.450
44751SOL     OW36149   0.229   5.306   0.581
44751SOL    HW136150   0.161   5.280   0.643
44751SOL    HW236151   0.268   5.223   0.554
44752SOL     OW36152   0.090   4.068  10.331
44752SOL    HW136153   0.102   4.062  10.236
44752SOL    HW236154   0.171   4.030  10.367
44753SOL     OW36155   3.466   0.043   2.029
44753SOL    HW136156   3.439   0.125   1.987
44753SOL    HW236157   3.561   0.050   2.036
44754SOL     OW36158  11.087   7.711   2.143
44754SOL    HW136159  11.070   7.702   2.049
44754SOL    HW236160  11.133   7.630   2.167
44755SOL     OW36161   4.392   2.438   1.569
44755SOL    HW136162   4.349   2.511   1.614
44755SOL    HW236163   4.320   2.392   1.524
44756SOL     OW36164  13.608   8.460  13.605
44756SOL    HW136165  13.642   8.450  13.694
44756SOL    HW236166  13.517   8.430  13.611
44757SOL     OW36167  10.984   7.705   4.206
44757SOL    HW136168  10.965   7.715   4.113
44757SOL    HW236169  11.040   7.779   4.227
44758SOL     OW36170   0.782   3.027   5.615
44758SOL    HW136171   0.798   2.961   5.549
44758SOL    HW236172   0.686   3.034   5.619
44759SOL     OW36173  11.672   7.374   9.072
44759SOL    HW136174  11.584   7.410   9.077
44759SOL    HW236175  11.664   7.297   9.016
44760SOL     OW36176  11.630  11.706   1.104
44760SOL    HW136177  11.680  11.743   1.178
44760SOL    HW236178  11.621  11.779   1.043
44761SOL     OW36179  12.732   2.673   5.422
44761SOL    HW136180  12.799   2.625   5.373
44761SOL    HW236181  12.705   2.743   5.364
44762SOL     OW36182   2.714   5.995   0.242
44762SOL    HW136183   2.686   6.030   0.158
44762SOL    HW236184   2.647   6.024   0.304
44763SOL     OW36185  11.857  10.448   0.691
44763SOL    HW136186  11.937  10.411   0.730
44763SOL    HW236187  11.831  10.518   0.751
44764SOL     OW36188   7.483   0.710   0.148
44764SOL    HW136189   7.568   0.754   0.154
44764SOL    HW236190   7.486   0.664   0.064
44765SOL     OW36191   2.768   5.281   1.368
44765SOL    HW136192   2.681   5.242   1.372
44765SOL    HW236193   2.788   5.304   1.459
44766SOL     OW36194   0.197  14.052  13.763
44766SOL    HW136195   0.233  14.126  13.714
44766SOL    HW236196   0.271  14.019  13.813
44767SOL     OW36197  11.266   1.471   8.394
44767SOL    HW136198  11.347   1.422   8.406
44767SOL    HW236199  11.255   1.520   8.476
44768SOL     OW36200   2.155  12.663  10.382
44768SOL    HW136201   2.179  12.738  10.436
44768SOL    HW236202   2.125  12.701  10.300
44769SOL     OW36203  13.867   6.590   7.237
44769SOL    HW136204  13.882   6.533   7.312
44769SOL    HW236205  13.835   6.671   7.274
44770SOL     OW36206   9.138   2.466   6.185
44770SOL    HW136207   9.063   2.473   6.127
44770SOL    HW236208   9.117   2.524   6.258
44771SOL     OW36209   6.783   6.948   5.679
44771SOL    HW136210   6.693   6.980   5.690
44771SOL    HW236211   6.786   6.915   5.590
44772SOL     OW36212  14.169   3.600   0.963
44772SOL    HW136213  14.201   3.675   1.013
44772SOL    HW236214  14.198   3.524   1.012
44773SOL     OW36215  10.179   6.144  12.693
44773SOL    HW136216  10.202   6.201  12.766
44773SOL    HW236217  10.231   6.175  12.620
44774SOL     OW36218   5.667   7.739  10.527
44774SOL    HW136219   5.702   7.703  10.445
44774SOL    HW236220   5.598   7.800  10.498
44775SOL     OW36221  14.456  10.750   2.762
44775SOL    HW136222  14.516  10.774   2.692
44775SOL    HW236223  14.442  10.656   2.752
44776SOL     OW36224   9.226  10.818  12.766
44776SOL    HW136225   9.199  10.892  12.821
44776SOL    HW236226   9.267  10.757  12.827
44777SOL     OW36227  11.207  10.214   2.159
44777SOL    HW136228  11.173  10.214   2.248
44777SOL    HW236229  11.299  10.237   2.168
44778SOL     OW36230   2.192   4.977   5.494
44778SOL    HW136231   2.147   5.041   5.549
44778SOL    HW236232   2.151   4.893   5.516
44779SOL     OW36233  10.212   3.507   8.755
44779SOL    HW136234  10.300   3.510   8.793
44779SOL    HW236235  10.185   3.416   8.766
44780SOL     OW36236   4.774   1.161  14.067
44780SOL    HW136237   4.814   1.113  14.140
44780SOL    HW236238   4.811   1.119  13.989
44781SOL     OW36239   9.104   8.412  10.076
44781SOL    HW136240   9.117   8.322  10.104
44781SOL    HW236241   9.114   8.463  10.157
44782SOL     OW36242  11.090  11.398  10.633
44782SOL    HW136243  11.043  11.412  10.551
44782SOL    HW236244  11.168  11.348  10.607
44783SOL     OW36245   5.816   1.428  11.254
44783SOL    HW136246   5.850   1.401  11.169
44783SOL    HW236247   5.794   1.520  11.243
44784SOL     OW36248  14.626  11.860   3.775
44784SOL    HW136249  14.702  11.866   3.833
44784SOL    HW236250  14.567  11.798   3.819
44785SOL     OW36251   2.659  14.856   5.072
44785SOL    HW136252   2.739  14.828   5.117
44785SOL    HW236253   2.589  14.845   5.136
44786SOL     OW36254   3.439   7.259   4.161
44786SOL    HW136255   3.366   7.244   4.102
44786SOL    HW236256   3.485   7.334   4.125
44787SOL     OW36257  13.692   1.338   3.551
44787SOL    HW136258  13.638   1.352   3.473
44787SOL    HW236259  13.651   1.264   3.595
44788SOL     OW36260  10.272   7.596   2.797
44788SOL    HW136261  10.227   7.677   2.821
44788SOL    HW236262  10.289   7.605   2.703
44789SOL     OW36263   0.646   0.903   1.998
44789SOL    HW136264   0.627   0.948   2.080
44789SOL    HW236265   0.580   0.833   1.994
44790SOL     OW36266   3.232  14.181   9.632
44790SOL    HW136267   3.307  14.191   9.572
44790SOL    HW236268   3.272  14.155   9.715
44791SOL     OW36269  10.435   8.182  13.469
44791SOL    HW136270  10.383   8.156  13.545
44791SOL    HW236271  10.494   8.109  13.455
44792SOL     OW36272   1.072  10.257   4.882
44792SOL    HW136273   0.988  10.297   4.861
44792SOL    HW236274   1.076  10.179   4.828
44793SOL     OW36275  14.231  13.187  10.725
44793SOL    HW136276  14.220  13.277  10.693
44793SOL    HW236277  14.274  13.141  10.653
44794SOL     OW36278   9.746  13.732   6.084
44794SOL    HW136279   9.733  13.811   6.032
44794SOL    HW236280   9.779  13.764   6.168
44795SOL     OW36281   5.747   2.577   2.835
44795SOL    HW136282   5.817   2.575   2.770
44795SOL    HW236283   5.707   2.490   2.831
44796SOL     OW36284  14.203   2.921   5.825
44796SOL    HW136285  14.161   2.838   5.800
44796SOL    HW236286  14.134   2.969   5.872
44797SOL     OW36287   9.105   3.701   5.716
44797SOL    HW136288   9.084   3.777   5.661
44797SOL    HW236289   9.021   3.674   5.752
44798SOL     OW36290   0.578   9.844   1.830
44798SOL    HW136291   0.658   9.802   1.860
44798SOL    HW236292   0.565   9.917   1.891
44799SOL     OW36293  12.695  11.581   4.870
44799SOL    HW136294  12.758  11.605   4.937
44799SOL    HW236295  12.748  11.563   4.792
44800SOL     OW36296   1.001   5.188  10.481
44800SOL    HW136297   0.943   5.123  10.439
44800SOL    HW236298   0.990   5.172  10.575
44801SOL     OW36299   8.250  12.373  11.985
44801SOL    HW136300   8.210  12.289  12.008
44801SOL    HW236301   8.285  12.406  12.067
44802SOL     OW36302  11.309   6.862  12.371
44802SOL    HW136303  11.266   6.805  12.435
44802SOL    HW236304  11.384   6.811  12.340
44803SOL     OW36305   1.189  10.699   3.507
44803SOL    HW136306   1.261  10.683   3.445
44803SOL    HW236307   1.146  10.777   3.473
44804SOL     OW36308   2.136  14.008   6.813
44804SOL    HW136309   2.050  14.037   6.782
44804SOL    HW236310   2.198  14.057   6.760
44805SOL     OW36311   3.571   5.899  12.916
44805SOL    HW136312   3.534   5.930  12.833
44805SOL    HW236313   3.589   5.806  12.900
44806SOL     OW36314   3.317   7.581   5.857
44806SOL    HW136315   3.300   7.525   5.781
44806SOL    HW236316   3.243   7.567   5.915
44807SOL     OW36317   3.101   1.312  14.102
44807SOL    HW136318   3.035   1.255  14.142
44807SOL    HW236319   3.171   1.252  14.077
44808SOL     OW36320   4.910   6.190   8.471
44808SOL    HW136321   4.946   6.106   8.442
44808SOL    HW236322   4.949   6.205   8.557
44809SOL     OW36323  14.259  12.135   5.303
44809SOL    HW136324  14.310  12.089   5.237
44809SOL    HW236325  14.168  12.116   5.281
44810SOL     OW36326  12.024   0.565   2.285
44810SOL    HW136327  12.050   0.513   2.209
44810SOL    HW236328  11.933   0.541   2.301
44811SOL     OW36329   6.030  10.200   4.181
44811SOL    HW136330   6.014  10.175   4.090
44811SOL    HW236331   5.965  10.268   4.199
44812SOL     OW36332  14.298  14.277  13.151
44812SOL    HW136333  14.253  14.275  13.235
44812SOL    HW236334  14.256  14.348  13.103
44813SOL     OW36335   2.257   8.058  11.426
44813SOL    HW136336   2.216   8.124  11.483
44813SOL    HW236337   2.334   8.102  11.391
44814SOL     OW36338   7.044  12.077   5.779
44814SOL    HW136339   7.033  12.000   5.835
44814SOL    HW236340   6.993  12.146   5.823
44815SOL     OW36341   0.943   7.378   4.131
44815SOL    HW136342   0.921   7.302   4.076
44815SOL    HW236343   1.024   7.413   4.092
44816SOL     OW36344  14.341   8.107   1.068
44816SOL    HW136345  14.375   8.112   1.157
44816SOL    HW236346  14.266   8.166   1.067
44817SOL     OW36347  14.523   6.618   1.915
44817SOL    HW136348  14.565   6.612   2.001
44817SOL    HW236349  14.437   6.657   1.934
44818SOL     OW36350  13.182   2.391   7.437
44818SOL    HW136351  13.092   2.402   7.469
44818SOL    HW236352  13.217   2.319   7.489
44819SOL     OW36353   5.670  14.337   7.439
44819SOL    HW136354   5.635  14.424   7.419
44819SOL    HW236355   5.599  14.291   7.483
44820SOL     OW36356   8.683  11.620   8.502
44820SOL    HW136357   8.708  11.596   8.591
44820SOL    HW236358   8.704  11.714   8.496
44821SOL     OW36359  10.785   7.687  12.913
44821SOL    HW136360  10.830   7.705  12.830
44821SOL    HW236361  10.807   7.596  12.932
44822SOL     OW36362   6.125   6.691   8.566
44822SOL    HW136363   6.076   6.653   8.493
44822SOL    HW236364   6.077   6.663   8.644
44823SOL     OW36365  13.487   2.624   1.970
44823SOL    HW136366  13.474   2.699   1.913
44823SOL    HW236367  13.510   2.552   1.911
44824SOL     OW36368   0.573  12.180   3.616
44824SOL    HW136369   0.607  12.141   3.696
44824SOL    HW236370   0.627  12.258   3.603
44825SOL     OW36371  12.706   2.257   3.018
44825SOL    HW136372  12.618   2.252   2.980
44825SOL    HW236373  12.765   2.247   2.943
44826SOL     OW36374   4.189  11.256   7.348
44826SOL    HW136375   4.173  11.306   7.267
44826SOL    HW236376   4.114  11.197   7.354
44827SOL     OW36377   6.883   3.337   8.301
44827SOL    HW136378   6.929   3.345   8.385
44827SOL    HW236379   6.932   3.271   8.253
44828SOL     OW36380  12.841  13.398   5.875
44828SOL    HW136381  12.895  13.318   5.870
44828SOL    HW236382  12.865  13.448   5.797
44829SOL     OW36383  10.586   9.339  12.408
44829SOL    HW136384  10.657   9.383  12.455
44829SOL    HW236385  10.624   9.256  12.379
44830SOL     OW36386   9.713  11.683  13.196
44830SOL    HW136387   9.752  11.660  13.280
44830SOL    HW236388   9.721  11.603  13.144
44831SOL     OW36389   3.290  14.222   3.418
44831SOL    HW136390   3.238  14.261   3.347
44831SOL    HW236391   3.356  14.170   3.374
44832SOL     OW36392   5.051   6.712  14.229
44832SOL    HW136393   5.057   6.730  14.323
44832SOL    HW236394   5.139   6.728  14.195
44833SOL     OW36395   5.671  12.423   6.900
44833SOL    HW136396   5.669  12.515   6.877
44833SOL    HW236397   5.763  12.402   6.913
44834SOL     OW36398  12.062   9.964   2.660
44834SOL    HW136399  12.143  10.014   2.671
44834SOL    HW236400  12.090   9.881   2.622
44835SOL     OW36401   3.011  11.031   6.662
44835SOL    HW136402   3.020  11.112   6.612
44835SOL    HW236403   3.071  10.970   6.620
44836SOL     OW36404   4.643  12.520  13.050
44836SOL    HW136405   4.636  12.425  13.039
44836SOL    HW236406   4.718  12.545  12.996
44837SOL     OW36407   4.028  13.750  13.307
44837SOL    HW136408   3.938  13.769  13.283
44837SOL    HW236409   4.028  13.744  13.403
44838SOL     OW36410  13.909   5.981   7.642
44838SOL    HW136411  13.849   6.017   7.707
44838SOL    HW236412  13.881   5.890   7.630
44839SOL     OW36413   1.326   1.768   8.150
44839SOL    HW136414   1.301   1.841   8.206
44839SOL    HW236415   1.407   1.798   8.107
44840SOL     OW36416   3.698   5.366   8.934
44840SOL    HW136417   3.736   5.389   9.019
44840SOL    HW236418   3.652   5.446   8.907
44841SOL     OW36419   0.993   0.633  11.618
44841SOL    HW136420   0.939   0.678  11.683
44841SOL    HW236421   1.035   0.563  11.666
44842SOL     OW36422  10.851  13.657  13.006
44842SOL    HW136423  10.794  13.672  12.931
44842SOL    HW236424  10.803  13.593  13.060
44843SOL     OW36425  12.655   7.357   2.468
44843SOL    HW136426  12.606   7.288   2.423
44843SOL    HW236427  12.601   7.379   2.544
44844SOL     OW36428   1.297   0.709   9.328
44844SOL    HW136429   1.302   0.780   9.392
44844SOL    HW236430   1.213   0.722   9.284
44845SOL     OW36431  13.467  12.720  14.716
44845SOL    HW136432  13.503  12.720  14.804
44845SOL    HW236433  13.383  12.765  14.724
44846SOL     OW36434   2.654   9.610   5.469
44846SOL    HW136435   2.648   9.556   5.548
44846SOL    HW236436   2.563   9.632   5.449
44847SOL     OW36437   3.717  14.402  10.095
44847SOL    HW136438   3.702  14.397  10.000
44847SOL    HW236439   3.630  14.406  10.133
44848SOL     OW36440   5.995  13.560   8.101
44848SOL    HW136441   5.908  13.525   8.079
44848SOL    HW236442   5.997  13.561   8.197
44849SOL     OW36443   3.018   9.859  12.636
44849SOL    HW136444   3.086   9.911  12.681
44849SOL    HW236445   3.003   9.905  12.554
44850SOL     OW36446   0.099   5.689  13.280
44850SOL    HW136447   0.077   5.731  13.197
44850SOL    HW236448   0.189   5.714  13.297
44851SOL     OW36449   8.477   9.818   6.378
44851SOL    HW136450   8.424   9.850   6.451
44851SOL    HW236451   8.537   9.890   6.358
44852SOL     OW36452   6.796   7.654  13.442
44852SOL    HW136453   6.824   7.576  13.488
44852SOL    HW236454   6.725   7.689  13.495
44853SOL     OW36455   8.822   6.480   8.071
44853SOL    HW136456   8.815   6.524   7.986
44853SOL    HW236457   8.732   6.477   8.104
44854SOL     OW36458   9.841   9.344   4.222
44854SOL    HW136459   9.906   9.402   4.183
44854SOL    HW236460   9.757   9.373   4.185
44855SOL     OW36461   4.145   6.397  12.300
44855SOL    HW136462   4.102   6.315  12.275
44855SOL    HW236463   4.238   6.376  12.303
44856SOL     OW36464   2.685   5.848   0.902
44856SOL    HW136465   2.706   5.938   0.925
44856SOL    HW236466   2.680   5.848   0.806
44857SOL     OW36467   0.837   9.472  13.292
44857SOL    HW136468   0.774   9.400  13.297
44857SOL    HW236469   0.788   9.549  13.321
44858SOL     OW36470   8.325   5.173   0.769
44858SOL    HW136471   8.240   5.148   0.731
44858SOL    HW236472   8.381   5.188   0.694
44859SOL     OW36473   9.873   5.392  10.665
44859SOL    HW136474   9.814   5.449  10.713
44859SOL    HW236475   9.815   5.327  10.624
44860SOL     OW36476   1.556   9.827   1.888
44860SOL    HW136477   1.479   9.883   1.886
44860SOL    HW236478   1.609   9.861   1.960
44861SOL     OW36479  14.773   2.269   8.657
44861SOL    HW136480  14.745   2.177   8.656
44861SOL    HW236481  14.769   2.297   8.566
44862SOL     OW36482   3.908   6.179   1.924
44862SOL    HW136483   3.852   6.224   1.862
44862SOL    HW236484   3.914   6.238   1.999
44863SOL     OW36485   3.345  14.784   7.360
44863SOL    HW136486   3.301  14.807   7.442
44863SOL    HW236487   3.284  14.813   7.292
44864SOL     OW36488   1.305  13.916  11.149
44864SOL    HW136489   1.289  13.856  11.076
44864SOL    HW236490   1.288  13.863  11.227
44865SOL     OW36491  10.279   7.540  11.678
44865SOL    HW136492  10.293   7.449  11.651
44865SOL    HW236493  10.187   7.557  11.659
44866SOL     OW36494   7.997  13.012   8.252
44866SOL    HW136495   8.072  12.955   8.231
44866SOL    HW236496   8.005  13.027   8.346
44867SOL     OW36497   6.822   8.827   3.807
44867SOL    HW136498   6.796   8.745   3.766
44867SOL    HW236499   6.913   8.814   3.834
44868SOL     OW36500   8.583   8.495  13.429
44868SOL    HW136501   8.502   8.452  13.459
44868SOL    HW236502   8.554   8.553  13.358
44869SOL     OW36503   7.673  14.435  12.841
44869SOL    HW136504   7.588  14.478  12.831
44869SOL    HW236505   7.701  14.458  12.930
44870SOL     OW36506   5.754   4.932  14.285
44870SOL    HW136507   5.789   4.890  14.363
44870SOL    HW236508   5.804   5.013  14.277
44871SOL     OW36509   4.334  13.892  12.562
44871SOL    HW136510   4.244  13.902  12.593
44871SOL    HW236511   4.332  13.814  12.507
44872SOL     OW36512   4.527   5.069   3.675
44872SOL    HW136513   4.569   5.031   3.598
44872SOL    HW236514   4.433   5.063   3.656
44873SOL     OW36515   1.018  13.547   1.097
44873SOL    HW136516   1.061  13.542   1.012
44873SOL    HW236517   0.941  13.602   1.082
44874SOL     OW36518  13.871  10.393  11.875
44874SOL    HW136519  13.920  10.445  11.939
44874SOL    HW236520  13.780  10.420  11.887
44875SOL     OW36521  11.056   2.328  10.225
44875SOL    HW136522  11.141   2.314  10.267
44875SOL    HW236523  11.023   2.409  10.263
44876SOL     OW36524   5.675   3.871   2.315
44876SOL    HW136525   5.732   3.795   2.326
44876SOL    HW236526   5.628   3.854   2.234
44877SOL     OW36527   0.950  11.763   1.716
44877SOL    HW136528   1.034  11.779   1.757
44877SOL    HW236529   0.951  11.818   1.638
44878SOL     OW36530  12.048   2.608  10.893
44878SOL    HW136531  11.983   2.548  10.930
44878SOL    HW236532  12.003   2.692  10.887
44879SOL     OW36533  10.502   5.238  13.180
44879SOL    HW136534  10.411   5.247  13.151
44879SOL    HW236535  10.534   5.328  13.187
44880SOL     OW36536   3.495  10.716  10.082
44880SOL    HW136537   3.556  10.731  10.009
44880SOL    HW236538   3.474  10.803  10.114
44881SOL     OW36539   1.222  12.536  14.055
44881SOL    HW136540   1.236  12.475  14.128
44881SOL    HW236541   1.183  12.483  13.986
44882SOL     OW36542  14.733   5.859   0.077
44882SOL    HW136543  14.790   5.916   0.027
44882SOL    HW236544  14.669   5.917   0.117
44883SOL     OW36545   1.875  10.548   5.574
44883SOL    HW136546   1.859  10.535   5.667
44883SOL    HW236547   1.791  10.529   5.532
44884SOL     OW36548   5.789  14.286   2.866
44884SOL    HW136549   5.711  14.255   2.912
44884SOL    HW236550   5.817  14.212   2.812
44885SOL     OW36551  12.660   6.557  13.976
44885SOL    HW136552  12.741   6.556  14.027
44885SOL    HW236553  12.650   6.648  13.949
44886SOL     OW36554   2.794   2.943   4.915
44886SOL    HW136555   2.852   2.940   4.990
44886SOL    HW236556   2.795   3.034   4.887
44887SOL     OW36557   0.339   8.846  13.107
44887SOL    HW136558   0.272   8.783  13.082
44887SOL    HW236559   0.406   8.794  13.151
44888SOL     OW36560   6.242   0.332  10.937
44888SOL    HW136561   6.192   0.289  10.868
44888SOL    HW236562   6.280   0.260  10.988
44889SOL     OW36563  13.354   1.144  13.887
44889SOL    HW136564  13.263   1.126  13.911
44889SOL    HW236565  13.377   1.221  13.939
44890SOL     OW36566  10.078   4.867   8.005
44890SOL    HW136567  10.103   4.954   7.974
44890SOL    HW236568   9.982   4.871   8.014
44891SOL     OW36569  10.210  13.987   5.697
44891SOL    HW136570  10.304  14.001   5.685
44891SOL    HW236571  10.176  13.973   5.608
44892SOL     OW36572   6.601   4.166   2.343
44892SOL    HW136573   6.555   4.241   2.305
44892SOL    HW236574   6.546   4.091   2.321
44893SOL     OW36575   3.882   6.429   2.916
44893SOL    HW136576   3.854   6.340   2.936
44893SOL    HW236577   3.821   6.484   2.966
44894SOL     OW36578   8.825  10.096   0.693
44894SOL    HW136579   8.814  10.161   0.623
44894SOL    HW236580   8.847  10.015   0.646
44895SOL     OW36581   5.561   4.724   2.019
44895SOL    HW136582   5.528   4.795   2.074
44895SOL    HW236583   5.483   4.686   1.978
44896SOL     OW36584   6.635   6.454   9.201
44896SOL    HW136585   6.727   6.433   9.210
44896SOL    HW236586   6.589   6.373   9.223
44897SOL     OW36587   4.499   0.874   7.337
44897SOL    HW136588   4.514   0.969   7.344
44897SOL    HW236589   4.422   0.857   7.391
44898SOL     OW36590   9.620  10.961   0.193
44898SOL    HW136591   9.579  11.005   0.120
44898SOL    HW236592   9.709  10.996   0.196
44899SOL     OW36593  13.786   3.236  13.331
44899SOL    HW136594  13.778   3.315  13.278
44899SOL    HW236595  13.709   3.238  13.388
44900SOL     OW36596  11.265   8.451   9.611
44900SOL    HW136597  11.237   8.494   9.692
44900SOL    HW236598  11.270   8.358   9.633
44901SOL     OW36599   2.210   9.833  10.388
44901SOL    HW136600   2.172   9.908  10.342
44901SOL    HW236601   2.292   9.816  10.342
44902SOL     OW36602  13.777  12.832   3.117
44902SOL    HW136603  13.871  12.835   3.099
44902SOL    HW236604  13.747  12.753   3.073
44903SOL     OW36605   9.150   4.010   7.288
44903SOL    HW136606   9.203   3.953   7.232
44903SOL    HW236607   9.205   4.086   7.304
44904SOL     OW36608   5.384  14.153   5.100
44904SOL    HW136609   5.309  14.097   5.119
44904SOL    HW236610   5.348  14.224   5.047
44905SOL     OW36611   0.623   1.847   8.971
44905SOL    HW136612   0.640   1.819   8.881
44905SOL    HW236613   0.550   1.793   8.999
44906SOL     OW36614  14.618   7.454   4.187
44906SOL    HW136615  14.604   7.548   4.199
44906SOL    HW236616  14.712   7.446   4.171
44907SOL     OW36617   4.848   0.136   7.605
44907SOL    HW136618   4.829   0.146   7.512
44907SOL    HW236619   4.769   0.096   7.642
44908SOL     OW36620   3.379  13.129   7.588
44908SOL    HW136621   3.414  13.126   7.499
44908SOL    HW236622   3.443  13.079   7.640
44909SOL     OW36623   5.060   4.152   3.343
44909SOL    HW136624   4.999   4.131   3.272
44909SOL    HW236625   5.035   4.094   3.415
44910SOL     OW36626   8.127  12.912   8.744
44910SOL    HW136627   8.210  12.903   8.791
44910SOL    HW236628   8.064  12.865   8.798
44911SOL     OW36629   8.043   3.571  12.680
44911SOL    HW136630   8.085   3.504  12.734
44911SOL    HW236631   8.088   3.566  12.595
44912SOL     OW36632   8.837   3.442   8.453
44912SOL    HW136633   8.893   3.518   8.466
44912SOL    HW236634   8.754   3.478   8.421
44913SOL     OW36635   2.640   2.689   8.871
44913SOL    HW136636   2.552   2.657   8.851
44913SOL    HW236637   2.697   2.614   8.851
44914SOL     OW36638  12.781  12.765   3.143
44914SOL    HW136639  12.755  12.782   3.052
44914SOL    HW236640  12.701  12.779   3.194
44915SOL     OW36641  12.878   7.388   1.226
44915SOL    HW136642  12.852   7.363   1.138
44915SOL    HW236643  12.812   7.452   1.254
44916SOL     OW36644   3.015  11.583  13.151
44916SOL    HW136645   3.044  11.656  13.205
44916SOL    HW236646   2.975  11.522  13.213
44917SOL     OW36647  11.010   9.765   4.448
44917SOL    HW136648  10.919   9.770   4.419
44917SOL    HW236649  11.003   9.752   4.543
44918SOL     OW36650  14.818   1.767  14.186
44918SOL    HW136651   0.035   1.795  14.180
44918SOL    HW236652  14.822   1.672  14.198
44919SOL     OW36653   2.461  13.793   2.593
44919SOL    HW136654   2.494  13.822   2.508
44919SOL    HW236655   2.445  13.699   2.583
44920SOL     OW36656  11.604  10.530   1.837
44920SOL    HW136657  11.693  10.564   1.825
44920SOL    HW236658  11.570  10.521   1.748
44921SOL     OW36659   1.667  13.777   7.662
44921SOL    HW136660   1.733  13.723   7.619
44921SOL    HW236661   1.626  13.719   7.726
44922SOL     OW36662  14.446   3.048   8.698
44922SOL    HW136663  14.489   3.115   8.644
44922SOL    HW236664  14.514   3.020   8.759
44923SOL     OW36665  13.798   5.499  12.439
44923SOL    HW136666  13.713   5.455  12.441
44923SOL    HW236667  13.857   5.436  12.399
44924SOL     OW36668  12.224   3.470  10.549
44924SOL    HW136669  12.164   3.511  10.487
44924SOL    HW236670  12.241   3.383  10.513
44925SOL     OW36671  11.377   5.771   4.134
44925SOL    HW136672  11.448   5.707   4.138
44925SOL    HW236673  11.305   5.725   4.091
44926SOL     OW36674  10.387  10.396  12.249
44926SOL    HW136675  10.389  10.461  12.178
44926SOL    HW236676  10.474  10.402  12.289
44927SOL     OW36677   4.339   6.140  14.435
44927SOL    HW136678   4.333   6.235  14.440
44927SOL    HW236679   4.359   6.122  14.343
44928SOL     OW36680  14.047   3.343  14.045
44928SOL    HW136681  13.975   3.347  13.981
44928SOL    HW236682  14.126   3.346  13.991
44929SOL     OW36683  10.180   7.811   7.819
44929SOL    HW136684  10.204   7.737   7.763
44929SOL    HW236685  10.143   7.876   7.759
44930SOL     OW36686   7.152  11.341   2.339
44930SOL    HW136687   7.113  11.428   2.347
44930SOL    HW236688   7.079  11.281   2.353
44931SOL     OW36689  14.327   4.126   7.954
44931SOL    HW136690  14.234   4.150   7.961
44931SOL    HW236691  14.329   4.057   7.888
44932SOL     OW36692  10.819  11.077   8.885
44932SOL    HW136693  10.839  11.158   8.932
44932SOL    HW236694  10.760  11.030   8.943
44933SOL     OW36695   3.397  13.575  13.834
44933SOL    HW136696   3.478  13.626  13.836
44933SOL    HW236697   3.414  13.499  13.891
44934SOL     OW36698  14.612   4.370   6.667
44934SOL    HW136699  14.615   4.457   6.627
44934SOL    HW236700  14.534   4.329   6.631
44935SOL     OW36701  12.149  12.975  14.829
44935SOL    HW136702  12.215  12.956  14.763
44935SOL    HW236703  12.192  13.035   0.015
44936SOL     OW36704   6.191   5.140   6.717
44936SOL    HW136705   6.096   5.151   6.712
44936SOL    HW236706   6.206   5.049   6.693
44937SOL     OW36707   2.920   7.837   2.841
44937SOL    HW136708   2.965   7.776   2.782
44937SOL    HW236709   2.869   7.781   2.899
44938SOL     OW36710   0.852   5.469  10.453
44938SOL    HW136711   0.822   5.402  10.392
44938SOL    HW236712   0.947   5.470  10.442
44939SOL     OW36713  10.297  11.003   2.543
44939SOL    HW136714  10.292  11.098   2.548
44939SOL    HW236715  10.390  10.983   2.551
44940SOL     OW36716  10.025   9.597   1.017
44940SOL    HW136717  10.026   9.502   1.030
44940SOL    HW236718  10.065   9.632   1.097
44941SOL     OW36719  11.531   5.238   1.271
44941SOL    HW136720  11.561   5.176   1.204
44941SOL    HW236721  11.608   5.294   1.287
44942SOL     OW36722   1.274  13.851   5.781
44942SOL    HW136723   1.287  13.856   5.687
44942SOL    HW236724   1.190  13.895   5.796
44943SOL     OW36725   8.884  10.335  11.394
44943SOL    HW136726   8.890  10.370  11.483
44943SOL    HW236727   8.823  10.262  11.401
44944SOL     OW36728   1.162   1.053  11.394
44944SOL    HW136729   1.243   1.101  11.406
44944SOL    HW236730   1.150   1.004  11.476
44945SOL     OW36731  13.917   1.526   4.798
44945SOL    HW136732  13.998   1.540   4.846
44945SOL    HW236733  13.938   1.549   4.707
44946SOL     OW36734   8.951   9.591   3.594
44946SOL    HW136735   8.969   9.526   3.661
44946SOL    HW236736   8.945   9.674   3.642
44947SOL     OW36737   2.514   6.616  12.859
44947SOL    HW136738   2.551   6.639  12.774
44947SOL    HW236739   2.482   6.699  12.894
44948SOL     OW36740   7.180   4.912  10.970
44948SOL    HW136741   7.250   4.922  11.034
44948SOL    HW236742   7.101   4.900  11.022
44949SOL     OW36743   4.045   7.875   6.286
44949SOL    HW136744   4.127   7.860   6.331
44949SOL    HW236745   3.987   7.912   6.353
44950SOL     OW36746  12.209  13.067   3.526
44950SOL    HW136747  12.270  12.998   3.553
44950SOL    HW236748  12.146  13.022   3.469
44951SOL     OW36749   9.948  14.709   5.100
44951SOL    HW136750   9.932  14.628   5.149
44951SOL    HW236751  10.043  14.720   5.102
44952SOL     OW36752   9.743   4.306   9.502
44952SOL    HW136753   9.677   4.288   9.435
44952SOL    HW236754   9.694   4.344   9.575
44953SOL     OW36755   5.456  13.405   8.317
44953SOL    HW136756   5.511  13.368   8.386
44953SOL    HW236757   5.448  13.335   8.252
44954SOL     OW36758   3.970  13.273   7.089
44954SOL    HW136759   3.970  13.315   7.003
44954SOL    HW236760   4.060  13.240   7.098
44955SOL     OW36761   4.131   7.020   5.605
44955SOL    HW136762   4.050   6.968   5.612
44955SOL    HW236763   4.121   7.069   5.524
44956SOL     OW36764  10.574  10.912  13.348
44956SOL    HW136765  10.486  10.875  13.337
44956SOL    HW236766  10.632  10.836  13.342
44957SOL     OW36767   2.369  14.323   6.103
44957SOL    HW136768   2.434  14.284   6.045
44957SOL    HW236769   2.371  14.267   6.181
44958SOL     OW36770   0.359   2.481   0.530
44958SOL    HW136771   0.377   2.564   0.485
44958SOL    HW236772   0.436   2.428   0.512
44959SOL     OW36773   4.105   5.263   4.767
44959SOL    HW136774   4.119   5.356   4.746
44959SOL    HW236775   4.184   5.238   4.814
44960SOL     OW36776   1.581   9.794   6.876
44960SOL    HW136777   1.644   9.722   6.868
44960SOL    HW236778   1.629   9.861   6.925
44961SOL     OW36779   8.171  13.942   7.275
44961SOL    HW136780   8.103  13.973   7.334
44961SOL    HW236781   8.126  13.883   7.215
44962SOL     OW36782   3.905  10.441  14.447
44962SOL    HW136783   3.928  10.421  14.357
44962SOL    HW236784   3.819  10.400  14.459
44963SOL     OW36785   3.320   3.147   3.033
44963SOL    HW136786   3.251   3.186   3.086
44963SOL    HW236787   3.303   3.178   2.944
44964SOL     OW36788  14.809   4.296  14.141
44964SOL    HW136789  14.781   4.206  14.123
44964SOL    HW236790  14.793   4.342  14.058
44965SOL     OW36791   1.874   7.502  10.315
44965SOL    HW136792   1.969   7.504  10.330
44965SOL    HW236793   1.850   7.410  10.327
44966SOL     OW36794  13.348   3.040   1.843
44966SOL    HW136795  13.421   3.060   1.785
44966SOL    HW236796  13.373   3.078   1.928
44967SOL     OW36797   1.558   3.847  10.946
44967SOL    HW136798   1.605   3.853  11.029
44967SOL    HW236799   1.625   3.827  10.881
44968SOL     OW36800   3.721  10.042   3.968
44968SOL    HW136801   3.658  10.081   4.029
44968SOL    HW236802   3.757  10.117   3.921
44969SOL     OW36803   0.998   0.514   5.401
44969SOL    HW136804   1.025   0.551   5.485
44969SOL    HW236805   0.982   0.421   5.419
44970SOL     OW36806  14.615   7.624   3.348
44970SOL    HW136807  14.527   7.627   3.312
44970SOL    HW236808  14.612   7.555   3.414
44971SOL     OW36809   3.629   3.965   9.154
44971SOL    HW136810   3.714   3.927   9.172
44971SOL    HW236811   3.628   4.046   9.206
44972SOL     OW36812   5.971   1.993   8.748
44972SOL    HW136813   5.938   1.961   8.831
44972SOL    HW236814   6.066   1.986   8.756
44973SOL     OW36815   2.212   4.587  11.190
44973SOL    HW136816   2.305   4.608  11.176
44973SOL    HW236817   2.184   4.545  11.109
44974SOL     OW36818  10.743   5.845   9.543
44974SOL    HW136819  10.683   5.891   9.602
44974SOL    HW236820  10.715   5.754   9.546
44975SOL     OW36821   9.570  11.540   3.232
44975SOL    HW136822   9.635  11.470   3.232
44975SOL    HW236823   9.567  11.570   3.323
44976SOL     OW36824  12.642   4.119   9.024
44976SOL    HW136825  12.583   4.193   9.041
44976SOL    HW236826  12.625   4.058   9.095
44977SOL     OW36827   6.422  11.750  12.664
44977SOL    HW136828   6.440  11.742  12.571
44977SOL    HW236829   6.401  11.843  12.677
44978SOL     OW36830   1.937  11.350  13.083
44978SOL    HW136831   2.029  11.362  13.107
44978SOL    HW236832   1.940  11.327  12.990
44979SOL     OW36833   9.344   8.903   8.877
44979SOL    HW136834   9.433   8.937   8.867
44979SOL    HW236835   9.315   8.936   8.962
44980SOL     OW36836   2.187   4.818   3.389
44980SOL    HW136837   2.129   4.742   3.378
44980SOL    HW236838   2.275   4.781   3.384
44981SOL     OW36839   7.008   8.457   7.283
44981SOL    HW136840   7.061   8.530   7.317
44981SOL    HW236841   7.067   8.382   7.285
44982SOL     OW36842  14.338  10.216   6.777
44982SOL    HW136843  14.378  10.161   6.710
44982SOL    HW236844  14.250  10.234   6.744
44983SOL     OW36845   5.205   1.467   4.916
44983SOL    HW136846   5.233   1.442   4.828
44983SOL    HW236847   5.109   1.459   4.913
44984SOL     OW36848   7.876   3.792   9.338
44984SOL    HW136849   7.881   3.697   9.331
44984SOL    HW236850   7.958   3.817   9.381
44985SOL     OW36851   5.229   4.835  13.432
44985SOL    HW136852   5.147   4.869  13.469
44985SOL    HW236853   5.236   4.877  13.346
44986SOL     OW36854   0.888  10.869   5.258
44986SOL    HW136855   0.943  10.918   5.318
44986SOL    HW236856   0.937  10.868   5.176
44987SOL     OW36857  12.881   5.110  10.157
44987SOL    HW136858  12.917   5.022  10.174
44987SOL    HW236859  12.954   5.169  10.174
44988SOL     OW36860  13.151   5.345   4.298
44988SOL    HW136861  13.194   5.404   4.360
44988SOL    HW236862  13.083   5.302   4.349
44989SOL     OW36863   1.999  12.031   1.684
44989SOL    HW136864   2.076  12.026   1.740
44989SOL    HW236865   2.030  12.075   1.605
44990SOL     OW36866   9.345   2.182  14.473
44990SOL    HW136867   9.319   2.249  14.410
44990SOL    HW236868   9.287   2.197  14.548
44991SOL     OW36869   4.160   3.142   6.664
44991SOL    HW136870   4.080   3.175   6.624
44991SOL    HW236871   4.213   3.111   6.590
44992SOL     OW36872   6.952  11.442   1.139
44992SOL    HW136873   6.867  11.418   1.175
44992SOL    HW236874   6.934  11.467   1.049
44993SOL     OW36875   8.820   5.228  14.655
44993SOL    HW136876   8.851   5.146  14.615
44993SOL    HW236877   8.740   5.249  14.607
44994SOL     OW36878   7.904  13.287   1.574
44994SOL    HW136879   7.861  13.202   1.566
44994SOL    HW236880   7.834  13.351   1.560
44995SOL     OW36881   8.734   7.163   4.987
44995SOL    HW136882   8.780   7.242   5.013
44995SOL    HW236883   8.779   7.133   4.908
44996SOL     OW36884  10.465   9.820   9.475
44996SOL    HW136885  10.544   9.779   9.439
44996SOL    HW236886  10.492   9.910   9.492
44997SOL     OW36887   5.034  13.466  14.305
44997SOL    HW136888   4.953  13.439  14.348
44997SOL    HW236889   5.017  13.554  14.273
44998SOL     OW36890   1.834   9.277  14.520
44998SOL    HW136891   1.744   9.309  14.524
44998SOL    HW236892   1.826   9.185  14.497
44999SOL     OW36893   3.141   8.046   5.027
44999SOL    HW136894   3.188   7.963   5.038
44999SOL    HW236895   3.105   8.042   4.938
45000SOL     OW36896   1.053   5.788   3.833
45000SOL    HW136897   1.084   5.699   3.820
45000SOL    HW236898   1.005   5.809   3.753
45001SOL     OW36899  11.674  14.766   7.505
45001SOL    HW136900  11.754  14.735   7.547
45001SOL    HW236901  11.702  14.838   7.448
45002SOL     OW36902   3.503  14.199   5.448
45002SOL    HW136903   3.440  14.176   5.516
45002SOL    HW236904   3.554  14.272   5.486
45003SOL     OW36905   0.788  11.685   7.800
45003SOL    HW136906   0.710  11.715   7.753
45003SOL    HW236907   0.754  11.652   7.883
45004SOL     OW36908   8.147   2.119  13.205
45004SOL    HW136909   8.117   2.209  13.191
45004SOL    HW236910   8.086   2.065  13.154
45005SOL     OW36911  10.766   8.316  12.102
45005SOL    HW136912  10.838   8.278  12.153
45005SOL    HW236913  10.757   8.405  12.136
45006SOL     OW36914  13.666   9.991   6.812
45006SOL    HW136915  13.736  10.038   6.858
45006SOL    HW236916  13.671  10.024   6.722
45007SOL     OW36917   6.364   6.068  11.075
45007SOL    HW136918   6.457   6.080  11.095
45007SOL    HW236919   6.353   5.973  11.066
45008SOL     OW36920   9.439   8.387  11.355
45008SOL    HW136921   9.350   8.362  11.329
45008SOL    HW236922   9.467   8.317  11.413
45009SOL     OW36923  10.012   3.402   0.286
45009SOL    HW136924  10.080   3.361   0.233
45009SOL    HW236925  10.056   3.426   0.368
45010SOL     OW36926  10.606   4.447  12.998
45010SOL    HW136927  10.665   4.522  12.992
45010SOL    HW236928  10.533   4.468  12.940
45011SOL     OW36929  12.944   8.136   1.602
45011SOL    HW136930  12.913   8.208   1.547
45011SOL    HW236931  12.890   8.140   1.680
45012SOL     OW36932  10.120  11.194   2.028
45012SOL    HW136933  10.072  11.276   2.040
45012SOL    HW236934  10.062  11.127   2.063
45013SOL     OW36935   5.104  13.556  12.084
45013SOL    HW136936   5.114  13.580  12.176
45013SOL    HW236937   5.024  13.503  12.082
45014SOL     OW36938   0.281  10.214   6.045
45014SOL    HW136939   0.291  10.126   6.079
45014SOL    HW236940   0.261  10.202   5.952
45015SOL     OW36941  10.240   0.243   3.449
45015SOL    HW136942  10.326   0.278   3.428
45015SOL    HW236943  10.180   0.316   3.434
45016SOL     OW36944  13.371   3.262  11.812
45016SOL    HW136945  13.383   3.244  11.905
45016SOL    HW236946  13.410   3.348  11.798
45017SOL     OW36947   7.411  14.298   1.518
45017SOL    HW136948   7.460  14.247   1.583
45017SOL    HW236949   7.380  14.232   1.455
45018SOL     OW36950   8.439  12.143   0.386
45018SOL    HW136951   8.474  12.211   0.444
45018SOL    HW236952   8.395  12.192   0.317
45019SOL     OW36953   1.611   3.834   7.751
45019SOL    HW136954   1.622   3.880   7.835
45019SOL    HW236955   1.521   3.855   7.724
45020SOL     OW36956  10.627   7.877   5.544
45020SOL    HW136957  10.546   7.881   5.493
45020SOL    HW236958  10.671   7.798   5.512
45021SOL     OW36959   0.349  12.684   5.058
45021SOL    HW136960   0.357  12.745   4.984
45021SOL    HW236961   0.306  12.736   5.126
45022SOL     OW36962   6.806   5.406   6.624
45022SOL    HW136963   6.860   5.327   6.615
45022SOL    HW236964   6.792   5.414   6.719
45023SOL     OW36965   6.709  14.103   2.469
45023SOL    HW136966   6.739  14.049   2.542
45023SOL    HW236967   6.672  14.181   2.510
45024SOL     OW36968  12.943  12.774   7.356
45024SOL    HW136969  12.998  12.766   7.278
45024SOL    HW236970  12.937  12.869   7.371
45025SOL     OW36971   4.252  13.676   9.289
45025SOL    HW136972   4.249  13.770   9.271
45025SOL    HW236973   4.338  13.662   9.328
45026SOL     OW36974   2.840   2.315   7.058
45026SOL    HW136975   2.918   2.350   7.099
45026SOL    HW236976   2.798   2.390   7.017
45027SOL     OW36977   6.568  14.448  14.644
45027SOL    HW136978   6.642  14.472  14.588
45027SOL    HW236979   6.545  14.359  14.617
45028SOL     OW36980   5.035  10.906   9.393
45028SOL    HW136981   5.117  10.951   9.372
45028SOL    HW236982   5.018  10.928   9.485
45029SOL     OW36983  12.919   8.514   8.812
45029SOL    HW136984  12.851   8.455   8.779
45029SOL    HW236985  12.889   8.539   8.899
45030SOL     OW36986   4.812   7.272   9.207
45030SOL    HW136987   4.864   7.208   9.158
45030SOL    HW236988   4.867   7.351   9.209
45031SOL     OW36989   6.170   1.458  12.027
45031SOL    HW136990   6.144   1.407  11.950
45031SOL    HW236991   6.237   1.405  12.069
45032SOL     OW36992   0.552  14.580   2.227
45032SOL    HW136993   0.586  14.567   2.139
45032SOL    HW236994   0.480  14.642   2.216
45033SOL     OW36995  11.050   3.792   5.242
45033SOL    HW136996  11.055   3.887   5.245
45033SOL    HW236997  11.026   3.772   5.152
45034SOL     OW36998   7.237   9.549   0.559
45034SOL    HW136999   7.192   9.487   0.502
45034SOL    HW237000   7.189   9.630   0.549
45035SOL     OW37001   0.074   8.286  11.064
45035SOL    HW137002   0.014   8.213  11.076
45035SOL    HW237003   0.025   8.350  11.013
45036SOL     OW37004   2.991   0.142   7.569
45036SOL    HW137005   2.931   0.073   7.597
45036SOL    HW237006   2.958   0.221   7.611
45037SOL     OW37007  11.243  14.476   7.939
45037SOL    HW137008  11.177  14.411   7.913
45037SOL    HW237009  11.196  14.534   7.999
45038SOL     OW37010  14.429   3.606   3.319
45038SOL    HW137011  14.448   3.699   3.329
45038SOL    HW237012  14.506   3.562   3.355
45039SOL     OW37013   7.856   2.898   1.477
45039SOL    HW137014   7.781   2.956   1.462
45039SOL    HW237015   7.849   2.873   1.569
45040SOL     OW37016   5.451   6.124   7.368
45040SOL    HW137017   5.412   6.066   7.304
45040SOL    HW237018   5.477   6.202   7.319
45041SOL     OW37019   1.326   3.807  14.183
45041SOL    HW137020   1.295   3.872  14.120
45041SOL    HW237021   1.302   3.844  14.268
45042SOL     OW37022  10.464   3.950   6.299
45042SOL    HW137023  10.546   3.982   6.337
45042SOL    HW237024  10.417   3.910   6.372
45043SOL     OW37025   5.699   0.204   9.802
45043SOL    HW137026   5.651   0.193   9.720
45043SOL    HW237027   5.742   0.120   9.817
45044SOL     OW37028   1.189   2.970   7.605
45044SOL    HW137029   1.152   3.057   7.591
45044SOL    HW237030   1.213   2.939   7.518
45045SOL     OW37031   1.602   1.496  14.439
45045SOL    HW137032   1.657   1.570  14.411
45045SOL    HW237033   1.661   1.439  14.488
45046SOL     OW37034   4.771   0.536  10.773
45046SOL    HW137035   4.767   0.497  10.686
45046SOL    HW237036   4.791   0.462  10.831
45047SOL     OW37037   4.275  13.433   7.750
45047SOL    HW137038   4.180  13.421   7.754
45047SOL    HW237039   4.305  13.367   7.688
45048SOL     OW37040   7.050   3.668   4.601
45048SOL    HW137041   7.010   3.688   4.686
45048SOL    HW237042   7.144   3.671   4.617
45049SOL     OW37043  12.364   6.217   8.481
45049SOL    HW137044  12.397   6.240   8.568
45049SOL    HW237045  12.382   6.124   8.472
45050SOL     OW37046  10.029   1.540   1.875
45050SOL    HW137047   9.938   1.567   1.859
45050SOL    HW237048  10.033   1.525   1.969
45051SOL     OW37049  11.430  12.512   8.311
45051SOL    HW137050  11.491  12.515   8.237
45051SOL    HW237051  11.460  12.439   8.364
45052SOL     OW37052   4.629   9.404   3.960
45052SOL    HW137053   4.554   9.355   3.926
45052SOL    HW237054   4.625   9.488   3.915
45053SOL     OW37055   5.974   8.882   7.885
45053SOL    HW137056   5.968   8.796   7.926
45053SOL    HW237057   6.008   8.939   7.954
45054SOL     OW37058  12.626   0.979  11.152
45054SOL    HW137059  12.670   0.955  11.071
45054SOL    HW237060  12.675   1.054  11.185
45055SOL     OW37061  10.628   9.433  14.317
45055SOL    HW137062  10.672   9.394  14.242
45055SOL    HW237063  10.681   9.511  14.338
45056SOL     OW37064   4.603   7.067  14.677
45056SOL    HW137065   4.642   7.124  14.744
45056SOL    HW237066   4.671   7.058  14.610
45057SOL     OW37067   9.833   5.345  14.356
45057SOL    HW137068   9.831   5.264  14.305
45057SOL    HW237069   9.911   5.336  14.411
45058SOL     OW37070   2.312  13.728   6.988
45058SOL    HW137071   2.352  13.785   6.922
45058SOL    HW237072   2.369  13.651   6.992
45059SOL     OW37073  12.501  10.485   6.853
45059SOL    HW137074  12.556  10.525   6.786
45059SOL    HW237075  12.473  10.402   6.815
45060SOL     OW37076  13.122   6.411   2.529
45060SOL    HW137077  13.037   6.434   2.493
45060SOL    HW237078  13.176   6.489   2.513
45061SOL     OW37079   1.385  10.551   8.646
45061SOL    HW137080   1.296  10.517   8.635
45061SOL    HW237081   1.434  10.514   8.573
45062SOL     OW37082   0.488   1.162  10.285
45062SOL    HW137083   0.405   1.121  10.308
45062SOL    HW237084   0.482   1.178  10.191
45063SOL     OW37085   8.579  12.692   9.578
45063SOL    HW137086   8.535  12.625   9.527
45063SOL    HW237087   8.584  12.657   9.667
45064SOL     OW37088  11.224   2.979   3.793
45064SOL    HW137089  11.227   2.895   3.838
45064SOL    HW237090  11.246   2.958   3.702
45065SOL     OW37091   6.440   6.047   0.608
45065SOL    HW137092   6.390   5.967   0.624
45065SOL    HW237093   6.491   6.060   0.688
45066SOL     OW37094  13.526   3.180   0.665
45066SOL    HW137095  13.589   3.148   0.731
45066SOL    HW237096  13.581   3.217   0.596
45067SOL     OW37097   2.495  13.999   8.801
45067SOL    HW137098   2.422  14.011   8.862
45067SOL    HW237099   2.454  13.998   8.715
45068SOL     OW37100  14.394   7.443   3.113
45068SOL    HW137101  14.394   7.347   3.108
45068SOL    HW237102  14.461   7.471   3.051
45069SOL     OW37103  11.037  10.897   3.489
45069SOL    HW137104  11.092  10.976   3.489
45069SOL    HW237105  11.085  10.835   3.544
45070SOL     OW37106   6.120  12.853   7.435
45070SOL    HW137107   6.161  12.936   7.460
45070SOL    HW237108   6.128  12.849   7.340
45071SOL     OW37109   4.782   7.734   4.195
45071SOL    HW137110   4.699   7.764   4.156
45071SOL    HW237111   4.806   7.658   4.142
45072SOL     OW37112   6.474  11.988   2.067
45072SOL    HW137113   6.484  12.063   2.125
45072SOL    HW237114   6.379  11.983   2.052
45073SOL     OW37115  14.068  12.424  13.182
45073SOL    HW137116  14.153  12.422  13.225
45073SOL    HW237117  14.038  12.333  13.182
45074SOL     OW37118   5.034  10.487  13.559
45074SOL    HW137119   5.033  10.551  13.488
45074SOL    HW237120   5.089  10.416  13.526
45075SOL     OW37121   9.628   2.763   4.866
45075SOL    HW137122   9.609   2.713   4.945
45075SOL    HW237123   9.678   2.702   4.811
45076SOL     OW37124  13.348   3.903   6.751
45076SOL    HW137125  13.357   3.957   6.829
45076SOL    HW237126  13.266   3.856   6.762
45077SOL     OW37127   6.846   1.086   6.482
45077SOL    HW137128   6.877   1.120   6.566
45077SOL    HW237129   6.760   1.048   6.502
45078SOL     OW37130   7.846  12.061   7.047
45078SOL    HW137131   7.768  12.055   7.102
45078SOL    HW237132   7.813  12.061   6.957
45079SOL     OW37133  10.962  10.735  12.439
45079SOL    HW137134  10.926  10.772  12.358
45079SOL    HW237135  10.938  10.798  12.507
45080SOL     OW37136   8.695  11.427   8.018
45080SOL    HW137137   8.697  11.338   7.984
45080SOL    HW237138   8.783  11.441   8.055
45081SOL     OW37139  12.218  13.193   7.723
45081SOL    HW137140  12.227  13.281   7.758
45081SOL    HW237141  12.181  13.142   7.796
45082SOL     OW37142   9.631   1.917  13.202
45082SOL    HW137143   9.697   1.881  13.143
45082SOL    HW237144   9.654   1.882  13.288
45083SOL     OW37145   6.684  11.965   6.310
45083SOL    HW137146   6.718  11.959   6.399
45083SOL    HW237147   6.748  12.019   6.264
45084SOL     OW37148  13.435  12.716  11.321
45084SOL    HW137149  13.470  12.743  11.236
45084SOL    HW237150  13.510  12.719  11.380
45085SOL     OW37151   9.879   0.772   8.330
45085SOL    HW137152   9.896   0.817   8.247
45085SOL    HW237153   9.964   0.769   8.374
45086SOL     OW37154   5.809   3.014   3.968
45086SOL    HW137155   5.746   3.027   4.039
45086SOL    HW237156   5.797   2.923   3.941
45087SOL     OW37157   7.675   5.619  14.689
45087SOL    HW137158   7.696   5.694  14.632
45087SOL    HW237159   7.659   5.658  14.775
45088SOL     OW37160   1.359   4.072   2.691
45088SOL    HW137161   1.267   4.096   2.679
45088SOL    HW237162   1.372   4.073   2.786
45089SOL     OW37163  14.347  13.058  10.527
45089SOL    HW137164  14.350  13.132  10.466
45089SOL    HW237165  14.277  13.002  10.493
45090SOL     OW37166   4.385   4.223   6.287
45090SOL    HW137167   4.427   4.304   6.259
45090SOL    HW237168   4.296   4.248   6.309
45091SOL     OW37169   6.977  10.972   7.383
45091SOL    HW137170   6.961  10.966   7.289
45091SOL    HW237171   7.071  10.986   7.391
45092SOL     OW37172   7.858   9.719   0.140
45092SOL    HW137173   7.798   9.762   0.079
45092SOL    HW237174   7.878   9.786   0.205
45093SOL     OW37175   2.979   5.595  11.629
45093SOL    HW137176   2.993   5.647  11.550
45093SOL    HW237177   2.982   5.659  11.701
45094SOL     OW37178   3.218   1.252  10.541
45094SOL    HW137179   3.141   1.275  10.489
45094SOL    HW237180   3.269   1.333  10.544
45095SOL     OW37181   6.103   3.557  10.598
45095SOL    HW137182   6.143   3.477  10.633
45095SOL    HW237183   6.058   3.596  10.673
45096SOL     OW37184   2.391   6.300   4.652
45096SOL    HW137185   2.337   6.288   4.729
45096SOL    HW237186   2.353   6.242   4.586
45097SOL     OW37187   4.021   6.843   3.485
45097SOL    HW137188   4.096   6.879   3.533
45097SOL    HW237189   3.966   6.919   3.466
45098SOL     OW37190   2.481   3.547   9.398
45098SOL    HW137191   2.507   3.536   9.307
45098SOL    HW237192   2.408   3.486   9.409
45099SOL     OW37193  14.076   2.202  14.699
45099SOL    HW137194  14.015   2.148  14.749
45099SOL    HW237195  14.029   2.284  14.684
45100SOL     OW37196   5.764   6.837   3.975
45100SOL    HW137197   5.724   6.884   3.902
45100SOL    HW237198   5.854   6.869   3.978
45101SOL     OW37199  11.425   1.980   2.249
45101SOL    HW137200  11.416   2.074   2.264
45101SOL    HW237201  11.337   1.945   2.261
45102SOL     OW37202  10.390  13.152   7.433
45102SOL    HW137203  10.466  13.137   7.489
45102SOL    HW237204  10.420  13.216   7.368
45103SOL     OW37205   8.813  11.501   2.073
45103SOL    HW137206   8.822  11.412   2.108
45103SOL    HW237207   8.718  11.516   2.069
45104SOL     OW37208   2.887  12.259  14.137
45104SOL    HW137209   2.958  12.324  14.141
45104SOL    HW237210   2.840  12.270  14.219
45105SOL     OW37211  13.778   4.168   6.828
45105SOL    HW137212  13.764   4.227   6.903
45105SOL    HW237213  13.811   4.087   6.868
45106SOL     OW37214   8.493   8.139   1.745
45106SOL    HW137215   8.411   8.151   1.793
45106SOL    HW237216   8.469   8.149   1.653
45107SOL     OW37217   5.940   6.077  13.766
45107SOL    HW137218   5.885   6.081  13.688
45107SOL    HW237219   5.892   6.021  13.827
45108SOL     OW37220  12.818   6.537   1.742
45108SOL    HW137221  12.788   6.533   1.832
45108SOL    HW237222  12.839   6.629   1.727
45109SOL     OW37223   6.595  10.525   5.057
45109SOL    HW137224   6.535  10.599   5.069
45109SOL    HW237225   6.645  10.548   4.979
45110SOL     OW37226  12.431   6.215  14.282
45110SOL    HW137227  12.419   6.310  14.292
45110SOL    HW237228  12.347   6.184  14.247
45111SOL     OW37229   0.744  13.044   1.342
45111SOL    HW137230   0.767  13.133   1.369
45111SOL    HW237231   0.684  13.013   1.410
45112SOL     OW37232   6.586   1.393  12.990
45112SOL    HW137233   6.678   1.383  12.967
45112SOL    HW237234   6.547   1.308  12.970
45113SOL     OW37235  14.823   6.939  10.267
45113SOL    HW137236   0.033   6.975  10.241
45113SOL    HW237237  14.786   6.905  10.186
45114SOL     OW37238  14.275   0.954  10.258
45114SOL    HW137239  14.268   1.007  10.179
45114SOL    HW237240  14.345   0.891  10.240
45115SOL     OW37241   9.459  14.850  10.451
45115SOL    HW137242   9.400  14.782  10.482
45115SOL    HW237243   9.445   0.049  10.509
45116SOL     OW37244   2.692  11.401   9.397
45116SOL    HW137245   2.700  11.494   9.376
45116SOL    HW237246   2.740  11.390   9.478
45117SOL     OW37247  10.072  11.524  12.245
45117SOL    HW137248  10.086  11.601  12.299
45117SOL    HW237249   9.986  11.492  12.270
45118SOL     OW37250   5.589   1.183  11.014
45118SOL    HW137251   5.635   1.166  11.096
45118SOL    HW237252   5.508   1.133  11.021
45119SOL     OW37253  10.313   5.155   3.564
45119SOL    HW137254  10.221   5.128   3.564
45119SOL    HW237255  10.352   5.106   3.636
45120SOL     OW37256  13.994   5.170  14.664
45120SOL    HW137257  13.900   5.190  14.669
45120SOL    HW237258  14.034   5.225  14.732
45121SOL     OW37259  11.686  11.135   2.819
45121SOL    HW137260  11.721  11.224   2.815
45121SOL    HW237261  11.638  11.132   2.902
45122SOL     OW37262  10.127   2.524  11.143
45122SOL    HW137263  10.156   2.524  11.052
45122SOL    HW237264  10.039   2.560  11.140
45123SOL     OW37265  11.368   3.706   4.725
45123SOL    HW137266  11.408   3.674   4.806
45123SOL    HW237267  11.345   3.626   4.677
45124SOL     OW37268  14.628   6.280   3.915
45124SOL    HW137269  14.632   6.369   3.950
45124SOL    HW237270  14.659   6.288   3.825
45125SOL     OW37271   6.213   1.444  14.576
45125SOL    HW137272   6.191   1.503  14.504
45125SOL    HW237273   6.309   1.439  14.574
45126SOL     OW37274  14.067   3.481   0.462
45126SOL    HW137275  14.032   3.400   0.427
45126SOL    HW237276  14.134   3.453   0.525
45127SOL     OW37277   4.577   7.199   6.747
45127SOL    HW137278   4.502   7.143   6.765
45127SOL    HW237279   4.567   7.273   6.807
45128SOL     OW37280   3.144   8.944  10.380
45128SOL    HW137281   3.110   9.022  10.336
45128SOL    HW237282   3.200   8.903  10.314
45129SOL     OW37283   4.071  12.628  12.755
45129SOL    HW137284   4.070  12.719  12.724
45129SOL    HW237285   3.980  12.612  12.781
45130SOL     OW37286   3.345   2.482   7.203
45130SOL    HW137287   3.311   2.402   7.243
45130SOL    HW237288   3.278   2.548   7.220
45131SOL     OW37289   4.587   9.814  10.625
45131SOL    HW137290   4.605   9.751  10.694
45131SOL    HW237291   4.494   9.803  10.605
45132SOL     OW37292   7.757  11.459   4.253
45132SOL    HW137293   7.697  11.426   4.321
45132SOL    HW237294   7.836  11.484   4.301
45133SOL     OW37295   9.490   5.434   5.668
45133SOL    HW137296   9.581   5.457   5.649
45133SOL    HW237297   9.472   5.476   5.752
45134SOL     OW37298  14.336  11.035   7.767
45134SOL    HW137299  14.270  11.064   7.830
45134SOL    HW237300  14.405  10.997   7.821
45135SOL     OW37301   7.499   6.915   1.282
45135SOL    HW137302   7.474   6.931   1.373
45135SOL    HW237303   7.529   6.824   1.281
45136SOL     OW37304   7.613   5.137  13.654
45136SOL    HW137305   7.561   5.211  13.684
45136SOL    HW237306   7.649   5.099  13.735
45137SOL     OW37307  14.265  10.049   0.605
45137SOL    HW137308  14.333  10.107   0.572
45137SOL    HW237309  14.307  10.000   0.676
45138SOL     OW37310  13.849  10.670   0.941
45138SOL    HW137311  13.797  10.702   0.867
45138SOL    HW237312  13.815  10.582   0.959
45139SOL     OW37313  11.662   8.690   1.539
45139SOL    HW137314  11.758   8.689   1.535
45139SOL    HW237315  11.638   8.781   1.523
45140SOL     OW37316   5.602   4.111  10.281
45140SOL    HW137317   5.595   4.106  10.185
45140SOL    HW237318   5.645   4.029  10.305
45141SOL     OW37319   1.354  11.455   2.878
45141SOL    HW137320   1.372  11.548   2.892
45141SOL    HW237321   1.259  11.447   2.891
45142SOL     OW37322   0.758  11.733   9.239
45142SOL    HW137323   0.735  11.642   9.221
45142SOL    HW237324   0.853  11.732   9.248
45143SOL     OW37325   8.903   3.475   5.294
45143SOL    HW137326   8.891   3.525   5.374
45143SOL    HW237327   8.846   3.517   5.230
45144SOL     OW37328  14.571   7.402   3.498
45144SOL    HW137329  14.582   7.377   3.589
45144SOL    HW237330  14.490   7.359   3.471
45145SOL     OW37331  12.512   0.209   1.660
45145SOL    HW137332  12.594   0.160   1.656
45145SOL    HW237333  12.477   0.191   1.747
45146SOL     OW37334  10.128   9.735   7.294
45146SOL    HW137335  10.056   9.675   7.273
45146SOL    HW237336  10.101   9.818   7.254
45147SOL     OW37337   2.749   1.712  12.206
45147SOL    HW137338   2.781   1.706  12.116
45147SOL    HW237339   2.771   1.627  12.244
45148SOL     OW37340  14.736  13.580   2.644
45148SOL    HW137341  14.812  13.523   2.630
45148SOL    HW237342  14.692  13.542   2.720
45149SOL     OW37343   0.442   8.111  12.185
45149SOL    HW137344   0.402   8.187  12.227
45149SOL    HW237345   0.523   8.097  12.234
45150SOL     OW37346  10.290   9.867  14.401
45150SOL    HW137347  10.232   9.809  14.449
45150SOL    HW237348  10.235   9.904  14.331
45151SOL     OW37349  11.229   8.755   3.241
45151SOL    HW137350  11.154   8.747   3.183
45151SOL    HW237351  11.212   8.834   3.292
45152SOL     OW37352   0.388   3.260   4.426
45152SOL    HW137353   0.416   3.172   4.453
45152SOL    HW237354   0.390   3.311   4.507
45153SOL     OW37355   6.102   3.832   4.875
45153SOL    HW137356   6.045   3.795   4.807
45153SOL    HW237357   6.173   3.768   4.884
45154SOL     OW37358  11.478  11.115   6.613
45154SOL    HW137359  11.497  11.198   6.656
45154SOL    HW237360  11.383  11.110   6.611
45155SOL     OW37361   1.435  14.574   6.901
45155SOL    HW137362   1.489  14.506   6.942
45155SOL    HW237363   1.430  14.643   6.967
45156SOL     OW37364   0.154  12.074   1.133
45156SOL    HW137365   0.081  12.091   1.191
45156SOL    HW237366   0.191  11.992   1.164
45157SOL     OW37367  11.891   5.589   8.709
45157SOL    HW137368  11.809   5.589   8.660
45157SOL    HW237369  11.958   5.605   8.643
45158SOL     OW37370  13.080  14.016   6.012
45158SOL    HW137371  13.089  13.994   5.919
45158SOL    HW237372  13.019  13.950   6.046
45159SOL     OW37373   6.078   5.871   1.800
45159SOL    HW137374   6.156   5.828   1.767
45159SOL    HW237375   6.075   5.955   1.753
45160SOL     OW37376   7.903   1.950  11.130
45160SOL    HW137377   7.890   1.870  11.080
45160SOL    HW237378   7.859   1.934  11.214
45161SOL     OW37379   1.248  10.929   5.610
45161SOL    HW137380   1.212  10.919   5.698
45161SOL    HW237381   1.292  11.014   5.611
45162SOL     OW37382   3.529   4.053  12.841
45162SOL    HW137383   3.437   4.044  12.817
45162SOL    HW237384   3.528   4.095  12.927
45163SOL     OW37385   9.424  11.069  10.204
45163SOL    HW137386   9.520  11.067  10.206
45163SOL    HW237387   9.402  11.152  10.163
45164SOL     OW37388   7.296   1.763  13.177
45164SOL    HW137389   7.382   1.787  13.140
45164SOL    HW237390   7.258   1.847  13.204
45165SOL     OW37391  11.289   3.600   1.856
45165SOL    HW137392  11.346   3.617   1.782
45165SOL    HW237393  11.346   3.560   1.922
45166SOL     OW37394   3.038   5.386   9.423
45166SOL    HW137395   2.986   5.326   9.370
45166SOL    HW237396   3.126   5.381   9.386
45167SOL     OW37397   6.544   6.337   2.887
45167SOL    HW137398   6.547   6.247   2.855
45167SOL    HW237399   6.561   6.391   2.810
45168SOL     OW37400  12.797   9.743   6.675
45168SOL    HW137401  12.781   9.742   6.581
45168SOL    HW237402  12.737   9.809   6.709
45169SOL     OW37403   9.152   4.064   8.878
45169SOL    HW137404   9.101   4.141   8.903
45169SOL    HW237405   9.171   4.077   8.785
45170SOL     OW37406   6.419   4.651   4.950
45170SOL    HW137407   6.465   4.645   5.034
45170SOL    HW237408   6.485   4.625   4.885
45171SOL     OW37409   8.171   6.100   3.971
45171SOL    HW137410   8.129   6.077   4.054
45171SOL    HW237411   8.147   6.192   3.957
45172SOL     OW37412   6.645  14.113   8.002
45172SOL    HW137413   6.636  14.029   7.956
45172SOL    HW237414   6.554  14.138   8.023
45173SOL     OW37415   8.127   6.423   4.410
45173SOL    HW137416   8.068   6.473   4.467
45173SOL    HW237417   8.170   6.361   4.468
45174SOL     OW37418   2.129   6.639  13.020
45174SOL    HW137419   2.193   6.708  13.037
45174SOL    HW237420   2.141   6.617  12.927
45175SOL     OW37421  11.363  11.687   1.939
45175SOL    HW137422  11.311  11.705   2.017
45175SOL    HW237423  11.454  11.690   1.969
45176SOL     OW37424  11.725   2.122   4.696
45176SOL    HW137425  11.663   2.194   4.712
45176SOL    HW237426  11.673   2.055   4.652
45177SOL     OW37427   7.251   5.277  10.666
45177SOL    HW137428   7.319   5.220  10.703
45177SOL    HW237429   7.181   5.216  10.641
45178SOL     OW37430   6.965   4.660   6.606
45178SOL    HW137431   7.042   4.671   6.661
45178SOL    HW237432   6.992   4.689   6.520
45179SOL     OW37433  13.463  14.315  12.040
45179SOL    HW137434  13.547  14.315  11.993
45179SOL    HW237435  13.401  14.353  11.978
45180SOL     OW37436  10.510   0.213   7.953
45180SOL    HW137437  10.534   0.122   7.936
45180SOL    HW237438  10.591   0.255   7.981
45181SOL     OW37439  11.382  13.199  12.941
45181SOL    HW137440  11.334  13.276  12.971
45181SOL    HW237441  11.424  13.226  12.860
45182SOL     OW37442   8.686   3.467  14.754
45182SOL    HW137443   8.688   3.371  14.754
45182SOL    HW237444   8.679   3.491  14.662
45183SOL     OW37445  10.965   1.326  13.564
45183SOL    HW137446  10.947   1.273  13.487
45183SOL    HW237447  10.996   1.410  13.529
45184SOL     OW37448   9.095   0.061   0.272
45184SOL    HW137449   9.135   0.016   0.347
45184SOL    HW237450   9.158   0.129   0.249
45185SOL     OW37451   9.974  12.880  10.935
45185SOL    HW137452  10.024  12.936  10.875
45185SOL    HW237453   9.981  12.923  11.020
45186SOL     OW37454   0.131  11.940  11.032
45186SOL    HW137455   0.139  11.886  11.111
45186SOL    HW237456   0.049  11.987  11.044
45187SOL     OW37457  10.806   6.257  11.936
45187SOL    HW137458  10.802   6.201  12.014
45187SOL    HW237459  10.883   6.312  11.951
45188SOL     OW37460   2.083  13.703   2.087
45188SOL    HW137461   2.100  13.783   2.037
45188SOL    HW237462   2.160  13.693   2.143
45189SOL     OW37463   0.911  12.026   6.146
45189SOL    HW137464   0.989  12.079   6.162
45189SOL    HW237465   0.902  12.025   6.051
45190SOL     OW37466   2.169  12.085   4.339
45190SOL    HW137467   2.172  12.022   4.267
45190SOL    HW237468   2.088  12.065   4.385
45191SOL     OW37469  11.111   1.197   2.594
45191SOL    HW137470  11.076   1.285   2.603
45191SOL    HW237471  11.056   1.156   2.527
45192SOL     OW37472   7.495   2.300   4.053
45192SOL    HW137473   7.527   2.267   4.137
45192SOL    HW237474   7.497   2.224   3.995
45193SOL     OW37475   3.169   2.717   2.927
45193SOL    HW137476   3.199   2.678   3.009
45193SOL    HW237477   3.229   2.684   2.861
45194SOL     OW37478  10.176  12.504   9.672
45194SOL    HW137479  10.263  12.539   9.694
45194SOL    HW237480  10.187  12.468   9.583
45195SOL     OW37481   6.332  12.425   1.386
45195SOL    HW137482   6.306  12.338   1.418
45195SOL    HW237483   6.427  12.423   1.385
45196SOL     OW37484   8.423  10.039   7.570
45196SOL    HW137485   8.445   9.964   7.625
45196SOL    HW237486   8.392  10.106   7.631
45197SOL     OW37487   3.466   7.667   9.703
45197SOL    HW137488   3.502   7.737   9.757
45197SOL    HW237489   3.382   7.701   9.673
45198SOL     OW37490  11.745  14.266   6.317
45198SOL    HW137491  11.692  14.346   6.318
45198SOL    HW237492  11.796  14.272   6.236
45199SOL     OW37493   4.739   3.291   7.321
45199SOL    HW137494   4.812   3.251   7.368
45199SOL    HW237495   4.716   3.368   7.373
45200SOL     OW37496  12.442  10.203  13.828
45200SOL    HW137497  12.461  10.143  13.756
45200SOL    HW237498  12.479  10.286  13.800
45201SOL     OW37499   6.215   0.685   0.476
45201SOL    HW137500   6.269   0.619   0.432
45201SOL    HW237501   6.247   0.768   0.442
45202SOL     OW37502   6.961   6.369  13.178
45202SOL    HW137503   6.941   6.346  13.087
45202SOL    HW237504   6.979   6.464  13.176
45203SOL     OW37505  10.621  12.360   6.345
45203SOL    HW137506  10.626  12.332   6.437
45203SOL    HW237507  10.530  12.386   6.333
45204SOL     OW37508   5.377   7.743  10.391
45204SOL    HW137509   5.406   7.775  10.306
45204SOL    HW237510   5.345   7.654  10.374
45205SOL     OW37511  12.760  10.327   7.534
45205SOL    HW137512  12.786  10.235   7.531
45205SOL    HW237513  12.815  10.366   7.601
45206SOL     OW37514   6.157  12.948   9.426
45206SOL    HW137515   6.081  12.895   9.447
45206SOL    HW237516   6.122  13.023   9.378
45207SOL     OW37517  13.744   2.317   4.205
45207SOL    HW137518  13.717   2.228   4.226
45207SOL    HW237519  13.831   2.307   4.166
45208SOL     OW37520   1.336   0.519   5.624
45208SOL    HW137521   1.352   0.425   5.635
45208SOL    HW237522   1.244   0.531   5.644
45209SOL     OW37523  12.952   5.499  11.715
45209SOL    HW137524  12.984   5.565  11.654
45209SOL    HW237525  12.870   5.535  11.749
45210SOL     OW37526  12.403   1.632   3.508
45210SOL    HW137527  12.455   1.661   3.432
45210SOL    HW237528  12.431   1.690   3.579
45211SOL     OW37529  14.120   0.122  13.928
45211SOL    HW137530  14.087   0.189  13.868
45211SOL    HW237531  14.207   0.153  13.953
45212SOL     OW37532   3.131   8.565   2.429
45212SOL    HW137533   3.122   8.652   2.468
45212SOL    HW237534   3.062   8.513   2.471
45213SOL     OW37535   2.371   0.996   5.931
45213SOL    HW137536   2.298   1.031   5.982
45213SOL    HW237537   2.443   1.056   5.947
45214SOL     OW37538   2.143  10.276   5.753
45214SOL    HW137539   2.123  10.267   5.660
45214SOL    HW237540   2.180  10.364   5.761
45215SOL     OW37541   2.384   9.266  13.530
45215SOL    HW137542   2.428   9.183  13.544
45215SOL    HW237543   2.421   9.325  13.596
45216SOL     OW37544  11.954   5.120   7.809
45216SOL    HW137545  11.882   5.134   7.748
45216SOL    HW237546  12.033   5.125   7.755
45217SOL     OW37547   2.134   5.166   1.818
45217SOL    HW137548   2.140   5.196   1.727
45217SOL    HW237549   2.081   5.233   1.862
45218SOL     OW37550   6.685   4.757  10.502
45218SOL    HW137551   6.743   4.751  10.578
45218SOL    HW237552   6.745   4.768  10.428
45219SOL     OW37553   2.869   1.716  12.887
45219SOL    HW137554   2.916   1.732  12.805
45219SOL    HW237555   2.816   1.638  12.870
45220SOL     OW37556   9.720  11.003  10.253
45220SOL    HW137557   9.768  10.921  10.242
45220SOL    HW237558   9.744  11.033  10.341
45221SOL     OW37559   5.390   1.703  10.796
45221SOL    HW137560   5.320   1.644  10.766
45221SOL    HW237561   5.403   1.679  10.888
45222SOL     OW37562   6.208  13.868  12.600
45222SOL    HW137563   6.157  13.893  12.523
45222SOL    HW237564   6.297  13.896  12.580
45223SOL     OW37565  12.198   3.958   4.106
45223SOL    HW137566  12.199   4.030   4.168
45223SOL    HW237567  12.142   3.892   4.147
45224SOL     OW37568   3.332  12.309  12.624
45224SOL    HW137569   3.416  12.332  12.582
45224SOL    HW237570   3.356  12.288  12.714
45225SOL     OW37571  13.025   4.639  13.978
45225SOL    HW137572  13.061   4.598  13.899
45225SOL    HW237573  12.933   4.610  13.980
45226SOL     OW37574   3.830   0.672   3.419
45226SOL    HW137575   3.823   0.754   3.369
45226SOL    HW237576   3.869   0.610   3.357
45227SOL     OW37577   0.617   1.355   4.500
45227SOL    HW137578   0.574   1.427   4.546
45227SOL    HW237579   0.660   1.396   4.425
45228SOL     OW37580  12.245   5.496   3.965
45228SOL    HW137581  12.157   5.508   3.929
45228SOL    HW237582  12.236   5.424   4.027
45229SOL     OW37583  14.674  11.614  14.575
45229SOL    HW137584  14.639  11.566  14.650
45229SOL    HW237585  14.748  11.561  14.545
45230SOL     OW37586  10.077   7.895   5.562
45230SOL    HW137587  10.057   7.968   5.504
45230SOL    HW237588  10.102   7.824   5.503
45231SOL     OW37589  12.365   4.378  14.293
45231SOL    HW137590  12.330   4.455  14.247
45231SOL    HW237591  12.319   4.376  14.376
45232SOL     OW37592  13.269  13.388  11.487
45232SOL    HW137593  13.247  13.481  11.493
45232SOL    HW237594  13.236  13.351  11.569
45233SOL     OW37595   5.256   3.765  11.522
45233SOL    HW137596   5.304   3.818  11.459
45233SOL    HW237597   5.170   3.808  11.530
45234SOL     OW37598  13.595   5.520  11.664
45234SOL    HW137599  13.529   5.550  11.727
45234SOL    HW237600  13.645   5.454  11.712
45235SOL     OW37601   8.577   2.473  10.110
45235SOL    HW137602   8.600   2.486  10.202
45235SOL    HW237603   8.611   2.550  10.065
45236SOL     OW37604   7.469   4.111  12.712
45236SOL    HW137605   7.511   4.124  12.627
45236SOL    HW237606   7.494   4.022  12.738
45237SOL     OW37607  14.747  13.696   9.127
45237SOL    HW137608  14.787  13.612   9.105
45237SOL    HW237609  14.809  13.762   9.093
45238SOL     OW37610   0.629   9.324  13.203
45238SOL    HW137611   0.676   9.242  13.192
45238SOL    HW237612   0.560   9.304  13.267
45239SOL     OW37613  10.189   0.576  12.403
45239SOL    HW137614  10.181   0.580  12.498
45239SOL    HW237615  10.237   0.495  12.386
45240SOL     OW37616   5.707   2.557  13.022
45240SOL    HW137617   5.631   2.567  13.079
45240SOL    HW237618   5.774   2.519  13.078
45241SOL     OW37619   0.897  13.566   1.397
45241SOL    HW137620   0.981  13.545   1.356
45241SOL    HW237621   0.918  13.626   1.468
45242SOL     OW37622   6.400   7.153  10.943
45242SOL    HW137623   6.462   7.104  10.997
45242SOL    HW237624   6.404   7.243  10.977
45243SOL     OW37625   0.071  13.370  10.852
45243SOL    HW137626  14.864  13.321  10.859
45243SOL    HW237627   0.061  13.441  10.915
45244SOL     OW37628  13.414  11.016  13.677
45244SOL    HW137629  13.414  11.046  13.768
45244SOL    HW237630  13.502  10.982  13.663
45245SOL     OW37631   5.635   2.672   9.207
45245SOL    HW137632   5.545   2.677   9.239
45245SOL    HW237633   5.636   2.726   9.128
45246SOL     OW37634  10.922  13.222   8.224
45246SOL    HW137635  10.961  13.282   8.161
45246SOL    HW237636  10.857  13.275   8.271
45247SOL     OW37637   9.789  10.285   1.689
45247SOL    HW137638   9.786  10.325   1.776
45247SOL    HW237639   9.842  10.206   1.701
45248SOL     OW37640  14.353  10.756   6.288
45248SOL    HW137641  14.367  10.842   6.327
45248SOL    HW237642  14.441  10.725   6.265
45249SOL     OW37643  13.615   7.026   0.911
45249SOL    HW137644  13.650   6.954   0.963
45249SOL    HW237645  13.584   7.090   0.975
45250SOL     OW37646  11.973   4.942   7.054
45250SOL    HW137647  11.890   4.989   7.052
45250SOL    HW237648  12.002   4.949   7.145
45251SOL     OW37649  12.716  13.146   6.305
45251SOL    HW137650  12.730  13.200   6.383
45251SOL    HW237651  12.792  13.164   6.249
45252SOL     OW37652  12.109   5.366   6.066
45252SOL    HW137653  12.193   5.390   6.027
45252SOL    HW237654  12.044   5.388   5.999
45253SOL     OW37655   7.243   1.842  10.758
45253SOL    HW137656   7.164   1.846  10.812
45253SOL    HW237657   7.227   1.903  10.686
45254SOL     OW37658  12.604  10.138   6.086
45254SOL    HW137659  12.527  10.115   6.034
45254SOL    HW237660  12.647  10.208   6.037
45255SOL     OW37661   1.923   2.031  11.613
45255SOL    HW137662   1.874   2.094  11.665
45255SOL    HW237663   1.926   2.068  11.525
45256SOL     OW37664  10.699   1.859   2.648
45256SOL    HW137665  10.789   1.830   2.631
45256SOL    HW237666  10.645   1.782   2.628
45257SOL     OW37667   3.264   7.279   6.447
45257SOL    HW137668   3.284   7.204   6.502
45257SOL    HW237669   3.291   7.253   6.359
45258SOL     OW37670  14.735   3.940   0.235
45258SOL    HW137671  14.810   3.881   0.236
45258SOL    HW237672  14.731   3.972   0.145
45259SOL     OW37673   1.241   7.355   1.523
45259SOL    HW137674   1.285   7.272   1.506
45259SOL    HW237675   1.295   7.397   1.591
45260SOL     OW37676  12.054   9.585   5.569
45260SOL    HW137677  12.100   9.662   5.536
45260SOL    HW237678  12.124   9.525   5.595
45261SOL     OW37679   3.152  10.254  10.916
45261SOL    HW137680   3.195  10.180  10.872
45261SOL    HW237681   3.214  10.280  10.984
45262SOL     OW37682   3.660   8.601   4.921
45262SOL    HW137683   3.613   8.658   4.982
45262SOL    HW237684   3.629   8.513   4.941
45263SOL     OW37685   1.655  11.791  11.380
45263SOL    HW137686   1.645  11.804  11.286
45263SOL    HW237687   1.605  11.712  11.398
45264SOL     OW37688   8.172   3.900   9.449
45264SOL    HW137689   8.245   3.923   9.392
45264SOL    HW237690   8.137   3.985   9.477
45265SOL     OW37691   6.909   2.913   1.127
45265SOL    HW137692   6.958   2.856   1.186
45265SOL    HW237693   6.972   2.981   1.102
45266SOL     OW37694   1.826   1.224  13.662
45266SOL    HW137695   1.776   1.304  13.678
45266SOL    HW237696   1.864   1.237  13.575
45267SOL     OW37697   6.684   2.605   3.513
45267SOL    HW137698   6.766   2.583   3.468
45267SOL    HW237699   6.686   2.700   3.523
45268SOL     OW37700  11.066   6.318   7.170
45268SOL    HW137701  11.051   6.265   7.091
45268SOL    HW237702  11.068   6.253   7.241
45269SOL     OW37703   6.099   1.603   9.615
45269SOL    HW137704   6.008   1.587   9.639
45269SOL    HW237705   6.149   1.547   9.673
45270SOL     OW37706   8.652   6.809   2.662
45270SOL    HW137707   8.746   6.820   2.676
45270SOL    HW237708   8.624   6.750   2.731
45271SOL     OW37709  10.333   3.762  13.969
45271SOL    HW137710  10.349   3.780  14.061
45271SOL    HW237711  10.249   3.804  13.950
45272SOL     OW37712   1.221   0.298  14.201
45272SOL    HW137713   1.311   0.292  14.233
45272SOL    HW237714   1.220   0.241  14.124
45273SOL     OW37715  12.021   5.666  10.344
45273SOL    HW137716  12.057   5.722  10.412
45273SOL    HW237717  11.966   5.724  10.291
45274SOL     OW37718   0.811  11.655  11.720
45274SOL    HW137719   0.798  11.691  11.632
45274SOL    HW237720   0.837  11.564  11.705
45275SOL     OW37721  12.095   7.073  11.666
45275SOL    HW137722  12.065   7.156  11.629
45275SOL    HW237723  12.190   7.075  11.655
45276SOL     OW37724  14.612   0.216   3.863
45276SOL    HW137725  14.672   0.217   3.789
45276SOL    HW237726  14.560   0.296   3.853
45277SOL     OW37727   2.513  12.824  13.366
45277SOL    HW137728   2.598  12.780  13.367
45277SOL    HW237729   2.451  12.757  13.339
45278SOL     OW37730   3.179   3.982   8.058
45278SOL    HW137731   3.256   4.028   8.093
45278SOL    HW237732   3.138   3.942   8.134
45279SOL     OW37733  10.898   2.587  13.206
45279SOL    HW137734  10.933   2.676  13.198
45279SOL    HW237735  10.856   2.570  13.121
45280SOL     OW37736   6.142   6.511   6.190
45280SOL    HW137737   6.069   6.507   6.128
45280SOL    HW237738   6.104   6.551   6.269
45281SOL     OW37739   6.606  12.734  10.382
45281SOL    HW137740   6.587  12.690  10.299
45281SOL    HW237741   6.544  12.696  10.444
45282SOL     OW37742   8.615   8.186   6.166
45282SOL    HW137743   8.672   8.259   6.188
45282SOL    HW237744   8.605   8.191   6.071
45283SOL     OW37745   6.612  14.244   9.547
45283SOL    HW137746   6.590  14.191   9.624
45283SOL    HW237747   6.696  14.284   9.569
45284SOL     OW37748  12.242   0.100  14.315
45284SOL    HW137749  12.326   0.144  14.328
45284SOL    HW237750  12.225   0.106  14.221
45285SOL     OW37751   0.503  11.679  10.407
45285SOL    HW137752   0.450  11.623  10.464
45285SOL    HW237753   0.470  11.767  10.423
45286SOL     OW37754  14.749   2.436   4.523
45286SOL    HW137755  14.743   2.459   4.430
45286SOL    HW237756  14.814   2.366   4.525
45287SOL     OW37757   3.951   5.877   7.686
45287SOL    HW137758   3.970   5.785   7.666
45287SOL    HW237759   3.904   5.874   7.770
45288SOL     OW37760   6.104   0.722  14.545
45288SOL    HW137761   6.120   0.807  14.585
45288SOL    HW237762   6.182   0.670  14.566
45289SOL     OW37763   8.267   2.471   2.012
45289SOL    HW137764   8.299   2.527   1.942
45289SOL    HW237765   8.178   2.502   2.030
45290SOL     OW37766   2.929  12.310  13.053
45290SOL    HW137767   2.980  12.390  13.064
45290SOL    HW237768   2.854  12.335  13.000
45291SOL     OW37769   7.502   6.808   0.626
45291SOL    HW137770   7.497   6.861   0.546
45291SOL    HW237771   7.552   6.731   0.600
45292SOL     OW37772  13.735   7.365   4.002
45292SOL    HW137773  13.663   7.401   4.054
45292SOL    HW237774  13.699   7.285   3.964
45293SOL     OW37775  10.120   6.829   5.940
45293SOL    HW137776  10.150   6.913   5.905
45293SOL    HW237777  10.194   6.770   5.928
45294SOL     OW37778  10.655   2.413   9.722
45294SOL    HW137779  10.664   2.481   9.788
45294SOL    HW237780  10.696   2.450   9.644
45295SOL     OW37781  11.302  11.812   8.011
45295SOL    HW137782  11.381  11.763   7.988
45295SOL    HW237783  11.308  11.825   8.105
45296SOL     OW37784   1.879   0.576  14.232
45296SOL    HW137785   1.941   0.503  14.236
45296SOL    HW237786   1.793   0.533  14.229
45297SOL     OW37787   1.101  10.467   2.949
45297SOL    HW137788   1.127  10.551   2.912
45297SOL    HW237789   1.054  10.424   2.877
45298SOL     OW37790  13.004   4.010   2.482
45298SOL    HW137791  13.035   3.919   2.479
45298SOL    HW237792  13.070   4.058   2.432
45299SOL     OW37793   1.754   0.868   6.074
45299SOL    HW137794   1.782   0.782   6.044
45299SOL    HW237795   1.661   0.873   6.050
45300SOL     OW37796  13.789   0.151   4.104
45300SOL    HW137797  13.845   0.073   4.101
45300SOL    HW237798  13.750   0.155   4.016
45301SOL     OW37799   8.989   6.783  12.627
45301SOL    HW137800   9.019   6.692  12.629
45301SOL    HW237801   9.046   6.828  12.690
45302SOL     OW37802  13.691   8.593   5.550
45302SOL    HW137803  13.613   8.553   5.512
45302SOL    HW237804  13.763   8.535   5.524
45303SOL     OW37805  11.832  13.608   5.738
45303SOL    HW137806  11.820  13.536   5.800
45303SOL    HW237807  11.746  13.618   5.697
45304SOL     OW37808  14.835  10.684   0.511
45304SOL    HW137809  14.834  10.779   0.503
45304SOL    HW237810   0.023  10.655   0.446
45305SOL     OW37811   3.751   2.861   7.525
45305SOL    HW137812   3.707   2.804   7.463
45305SOL    HW237813   3.844   2.840   7.516
45306SOL     OW37814   9.470   1.234  11.767
45306SOL    HW137815   9.546   1.292  11.768
45306SOL    HW237816   9.490   1.167  11.833
45307SOL     OW37817   9.558  11.226  13.456
45307SOL    HW137818   9.556  11.253  13.548
45307SOL    HW237819   9.621  11.154  13.454
45308SOL     OW37820   4.609   9.360  14.829
45308SOL    HW137821   4.578   9.449  14.839
45308SOL    HW237822   4.600   9.341  14.735
45309SOL     OW37823   9.926  13.324   4.851
45309SOL    HW137824   9.913  13.353   4.761
45309SOL    HW237825   9.859  13.370   4.902
45310SOL     OW37826  10.173  13.896   0.630
45310SOL    HW137827  10.123  13.848   0.696
45310SOL    HW237828  10.108  13.946   0.582
45311SOL     OW37829   0.592   9.218   2.079
45311SOL    HW137830   0.582   9.202   2.173
45311SOL    HW237831   0.551   9.303   2.065
45312SOL     OW37832   5.996  10.285   0.322
45312SOL    HW137833   6.046  10.362   0.348
45312SOL    HW237834   5.931  10.317   0.260
45313SOL     OW37835   8.484   0.300   7.542
45313SOL    HW137836   8.461   0.385   7.506
45313SOL    HW237837   8.408   0.245   7.524
45314SOL     OW37838  13.227  13.524   9.386
45314SOL    HW137839  13.258  13.597   9.441
45314SOL    HW237840  13.189  13.462   9.448
45315SOL     OW37841   2.912  13.492  10.372
45315SOL    HW137842   2.882  13.491  10.282
45315SOL    HW237843   2.934  13.583  10.390
45316SOL     OW37844   9.043   7.622  13.089
45316SOL    HW137845   8.955   7.628  13.126
45316SOL    HW237846   9.031   7.641  12.996
45317SOL     OW37847   5.860   1.347  12.721
45317SOL    HW137848   5.837   1.415  12.784
45317SOL    HW237849   5.901   1.394  12.648
45318SOL     OW37850   8.751   6.189   8.155
45318SOL    HW137851   8.729   6.279   8.178
45318SOL    HW237852   8.742   6.186   8.060
45319SOL     OW37853   5.802  10.295   1.392
45319SOL    HW137854   5.884  10.287   1.343
45319SOL    HW237855   5.762  10.208   1.384
45320SOL     OW37856  12.589   3.732   2.193
45320SOL    HW137857  12.649   3.680   2.247
45320SOL    HW237858  12.511   3.677   2.183
45321SOL     OW37859   9.618   2.973  14.663
45321SOL    HW137860   9.653   3.056  14.630
45321SOL    HW237861   9.650   2.907  14.601
45322SOL     OW37862  14.440   4.569   2.371
45322SOL    HW137863  14.524   4.616   2.369
45322SOL    HW237864  14.383   4.622   2.315
45323SOL     OW37865   7.742  13.200   5.619
45323SOL    HW137866   7.795  13.202   5.698
45323SOL    HW237867   7.664  13.150   5.644
45324SOL     OW37868   5.350  13.404   0.033
45324SOL    HW137869   5.291  13.338   0.069
45324SOL    HW237870   5.345  13.477   0.095
45325SOL     OW37871   7.540   2.609   8.309
45325SOL    HW137872   7.473   2.544   8.329
45325SOL    HW237873   7.509   2.652   8.229
45326SOL     OW37874   2.996   7.557   3.069
45326SOL    HW137875   2.956   7.492   3.127
45326SOL    HW237876   2.937   7.632   3.073
45327SOL     OW37877   5.317   6.901   6.696
45327SOL    HW137878   5.407   6.907   6.728
45327SOL    HW237879   5.281   6.825   6.743
45328SOL     OW37880  12.490  13.366  12.506
45328SOL    HW137881  12.534  13.451  12.507
45328SOL    HW237882  12.464  13.352  12.597
45329SOL     OW37883   3.214   0.225  12.810
45329SOL    HW137884   3.192   0.249  12.900
45329SOL    HW237885   3.243   0.307  12.770
45330SOL     OW37886   1.261   1.052  13.901
45330SOL    HW137887   1.327   0.984  13.886
45330SOL    HW237888   1.290   1.125  13.846
45331SOL     OW37889   0.426  11.451   5.595
45331SOL    HW137890   0.511  11.489   5.573
45331SOL    HW237891   0.392  11.507   5.665
45332SOL     OW37892  11.856   6.217   2.305
45332SOL    HW137893  11.812   6.134   2.288
45332SOL    HW237894  11.948   6.200   2.285
45333SOL     OW37895  13.971   1.951   0.877
45333SOL    HW137896  14.051   1.899   0.886
45333SOL    HW237897  14.001   2.042   0.875
45334SOL     OW37898   7.536   1.686  12.398
45334SOL    HW137899   7.522   1.772  12.437
45334SOL    HW237900   7.562   1.705  12.308
45335SOL     OW37901   2.654   7.155  11.247
45335SOL    HW137902   2.648   7.229  11.307
45335SOL    HW237903   2.680   7.081  11.302
45336SOL     OW37904   3.060  14.833   3.072
45336SOL    HW137905   2.994  14.808   3.137
45336SOL    HW237906   3.030  14.792   2.991
45337SOL     OW37907   4.417  11.552  12.091
45337SOL    HW137908   4.400  11.588  12.178
45337SOL    HW237909   4.512  11.544  12.086
45338SOL     OW37910   7.953  12.071   7.830
45338SOL    HW137911   8.005  12.111   7.760
45338SOL    HW237912   7.920  11.989   7.792
45339SOL     OW37913   4.428  13.056  11.941
45339SOL    HW137914   4.411  12.966  11.915
45339SOL    HW237915   4.422  13.056  12.037
45340SOL     OW37916   9.604   7.128  10.183
45340SOL    HW137917   9.592   7.157  10.092
45340SOL    HW237918   9.545   7.054  10.193
45341SOL     OW37919   7.829   8.732  10.879
45341SOL    HW137920   7.809   8.807  10.822
45341SOL    HW237921   7.743   8.695  10.900
45342SOL     OW37922   3.873  11.091  12.487
45342SOL    HW137923   3.876  10.999  12.462
45342SOL    HW237924   3.801  11.128  12.436
45343SOL     OW37925   1.279   9.643  10.671
45343SOL    HW137926   1.317   9.560  10.644
45343SOL    HW237927   1.282   9.641  10.767
45344SOL     OW37928   0.689   3.717   3.995
45344SOL    HW137929   0.711   3.807   3.971
45344SOL    HW237930   0.622   3.690   3.932
45345SOL     OW37931  13.215   2.110   4.318
45345SOL    HW137932  13.248   2.028   4.355
45345SOL    HW237933  13.225   2.174   4.388
45346SOL     OW37934  14.475   0.107   4.935
45346SOL    HW137935  14.497   0.169   4.865
45346SOL    HW237936  14.431   0.035   4.890
45347SOL     OW37937   4.736   4.354   1.154
45347SOL    HW137938   4.766   4.275   1.109
45347SOL    HW237939   4.664   4.324   1.210
45348SOL     OW37940   3.089   5.491   3.372
45348SOL    HW137941   3.037   5.507   3.451
45348SOL    HW237942   3.178   5.481   3.404
45349SOL     OW37943   7.741   0.894  11.036
45349SOL    HW137944   7.762   0.987  11.046
45349SOL    HW237945   7.712   0.867  11.123
45350SOL     OW37946  11.056   2.317  13.560
45350SOL    HW137947  11.033   2.302  13.468
45350SOL    HW237948  11.144   2.281  13.569
45351SOL     OW37949  14.047  10.372  10.311
45351SOL    HW137950  14.087  10.323  10.240
45351SOL    HW237951  13.962  10.399  10.277
45352SOL     OW37952   8.966  12.996   8.178
45352SOL    HW137953   8.945  12.906   8.156
45352SOL    HW237954   8.968  12.997   8.274
45353SOL     OW37955  12.912   9.834   4.006
45353SOL    HW137956  12.916   9.925   4.035
45353SOL    HW237957  12.986   9.824   3.947
45354SOL     OW37958   0.373   3.847   2.912
45354SOL    HW137959   0.383   3.752   2.917
45354SOL    HW237960   0.398   3.878   3.000
45355SOL     OW37961   1.691   9.122  14.090
45355SOL    HW137962   1.735   9.147  14.009
45355SOL    HW237963   1.634   9.049  14.066
45356SOL     OW37964   7.965   4.886  14.734
45356SOL    HW137965   8.038   4.939  14.702
45356SOL    HW237966   7.910   4.872  14.656
45357SOL     OW37967   5.921   6.837  11.758
45357SOL    HW137968   5.955   6.924  11.783
45357SOL    HW237969   5.827   6.850  11.748
45358SOL     OW37970   2.812   4.455   0.304
45358SOL    HW137971   2.759   4.381   0.276
45358SOL    HW237972   2.756   4.504   0.365
45359SOL     OW37973   0.747   9.629   5.220
45359SOL    HW137974   0.775   9.597   5.305
45359SOL    HW237975   0.779   9.719   5.216
45360SOL     OW37976  13.254   2.289   4.109
45360SOL    HW137977  13.231   2.241   4.188
45360SOL    HW237978  13.347   2.308   4.119
45361SOL     OW37979   3.787   3.177  11.844
45361SOL    HW137980   3.768   3.103  11.786
45361SOL    HW237981   3.706   3.228  11.844
45362SOL     OW37982   2.776  10.273   2.599
45362SOL    HW137983   2.800  10.302   2.687
45362SOL    HW237984   2.853  10.291   2.546
45363SOL     OW37985   1.801   1.375   6.052
45363SOL    HW137986   1.871   1.333   6.103
45363SOL    HW237987   1.783   1.456   6.098
45364SOL     OW37988   8.569   6.124   8.574
45364SOL    HW137989   8.598   6.091   8.488
45364SOL    HW237990   8.638   6.097   8.634
45365SOL     OW37991   9.623   8.794  11.161
45365SOL    HW137992   9.658   8.706  11.149
45365SOL    HW237993   9.701   8.850  11.162
45366SOL     OW37994   6.711   4.596   8.302
45366SOL    HW137995   6.743   4.622   8.216
45366SOL    HW237996   6.717   4.675   8.355
45367SOL     OW37997  10.272  14.737   1.044
45367SOL    HW137998  10.305  14.768   1.128
45367SOL    HW237999  10.206  14.671   1.067
45368SOL     OW38000  10.742  10.430   6.013
45368SOL    HW138001  10.674  10.363   6.026
45368SOL    HW238002  10.694  10.512   6.002
45369SOL     OW38003  11.135   7.830   6.020
45369SOL    HW138004  11.106   7.869   6.103
45369SOL    HW238005  11.075   7.866   5.954
45370SOL     OW38006  13.342   9.904   2.001
45370SOL    HW138007  13.428   9.867   2.017
45370SOL    HW238008  13.282   9.830   2.008
45371SOL     OW38009   6.898  12.755   4.551
45371SOL    HW138010   6.936  12.668   4.568
45371SOL    HW238011   6.915  12.804   4.631
45372SOL     OW38012   9.899  10.269   7.730
45372SOL    HW138013   9.935  10.330   7.795
45372SOL    HW238014   9.976  10.227   7.692
45373SOL     OW38015  11.542   4.849   1.088
45373SOL    HW138016  11.540   4.926   1.031
45373SOL    HW238017  11.635   4.829   1.099
45374SOL     OW38018   4.536   4.168   7.942
45374SOL    HW138019   4.600   4.210   7.884
45374SOL    HW238020   4.583   4.092   7.977
45375SOL     OW38021   2.900   5.827   8.677
45375SOL    HW138022   2.904   5.922   8.688
45375SOL    HW238023   2.807   5.809   8.665
45376SOL     OW38024  12.190  13.358   1.888
45376SOL    HW138025  12.230  13.304   1.956
45376SOL    HW238026  12.246  13.435   1.882
45377SOL     OW38027   6.957  11.000   9.277
45377SOL    HW138028   7.029  10.938   9.292
45377SOL    HW238029   7.000  11.083   9.258
45378SOL     OW38030  13.892   0.903  14.254
45378SOL    HW138031  13.861   0.899  14.164
45378SOL    HW238032  13.968   0.962  14.250
45379SOL     OW38033  11.890   8.081   1.928
45379SOL    HW138034  11.795   8.096   1.924
45379SOL    HW238035  11.919   8.136   2.001
45380SOL     OW38036   5.423   9.687   8.867
45380SOL    HW138037   5.454   9.674   8.957
45380SOL    HW238038   5.494   9.654   8.812
45381SOL     OW38039  12.695  13.481   0.730
45381SOL    HW138040  12.717  13.520   0.646
45381SOL    HW238041  12.751  13.404   0.736
45382SOL     OW38042  14.400   0.250   7.056
45382SOL    HW138043  14.356   0.310   7.116
45382SOL    HW238044  14.339   0.239   6.984
45383SOL     OW38045   2.937   6.504   0.732
45383SOL    HW138046   3.028   6.476   0.738
45383SOL    HW238047   2.920   6.511   0.638
45384SOL     OW38048   2.665   0.513  11.044
45384SOL    HW138049   2.705   0.595  11.072
45384SOL    HW238050   2.600   0.538  10.978
45385SOL     OW38051   5.311   9.957  10.294
45385SOL    HW138052   5.368   9.989  10.224
45385SOL    HW238053   5.351   9.991  10.374
45386SOL     OW38054  10.896   6.047   1.155
45386SOL    HW138055  10.831   6.083   1.096
45386SOL    HW238056  10.899   5.953   1.135
45387SOL     OW38057   2.742   5.742   4.498
45387SOL    HW138058   2.698   5.666   4.462
45387SOL    HW238059   2.748   5.804   4.425
45388SOL     OW38060  12.939   2.959  10.905
45388SOL    HW138061  12.952   2.881  10.851
45388SOL    HW238062  13.018   3.012  10.890
45389SOL     OW38063  10.874   8.322   1.489
45389SOL    HW138064  10.803   8.371   1.447
45389SOL    HW238065  10.950   8.336   1.432
45390SOL     OW38066   1.210   8.108  12.095
45390SOL    HW138067   1.173   8.038  12.149
45390SOL    HW238068   1.291   8.133  12.139
45391SOL     OW38069   5.685   3.455   0.712
45391SOL    HW138070   5.627   3.416   0.778
45391SOL    HW238071   5.767   3.472   0.759
45392SOL     OW38072   2.971   3.939  13.189
45392SOL    HW138073   2.980   3.868  13.253
45392SOL    HW238074   2.939   3.896  13.110
45393SOL     OW38075  12.428   2.518   3.613
45393SOL    HW138076  12.359   2.487   3.672
45393SOL    HW238077  12.384   2.581   3.556
45394SOL     OW38078  11.524  11.353  13.132
45394SOL    HW138079  11.526  11.316  13.221
45394SOL    HW238080  11.478  11.288  13.080
45395SOL     OW38081   3.801   8.683  11.352
45395SOL    HW138082   3.798   8.730  11.435
45395SOL    HW238083   3.710   8.682  11.321
45396SOL     OW38084   6.761  14.429   7.373
45396SOL    HW138085   6.763  14.448   7.467
45396SOL    HW238086   6.823  14.491   7.335
45397SOL     OW38087  12.635   9.619  14.019
45397SOL    HW138088  12.681   9.537  14.001
45397SOL    HW238089  12.618   9.618  14.113
45398SOL     OW38090  14.535   8.622   3.047
45398SOL    HW138091  14.466   8.568   3.009
45398SOL    HW238092  14.503   8.645   3.134
45399SOL     OW38093  13.718   2.704  10.593
45399SOL    HW138094  13.751   2.794  10.586
45399SOL    HW238095  13.781   2.661  10.652
45400SOL     OW38096   4.006   2.771  13.910
45400SOL    HW138097   3.938   2.804  13.969
45400SOL    HW238098   4.085   2.819  13.936
45401SOL     OW38099   6.883  14.390  11.946
45401SOL    HW138100   6.973  14.370  11.973
45401SOL    HW238101   6.893  14.462  11.884
45402SOL     OW38102   3.211   1.693   0.272
45402SOL    HW138103   3.141   1.738   0.320
45402SOL    HW238104   3.233   1.752   0.200
45403SOL     OW38105  11.152   4.513  12.006
45403SOL    HW138106  11.190   4.445  11.950
45403SOL    HW238107  11.059   4.511  11.986
45404SOL     OW38108   6.124  12.176  10.396
45404SOL    HW138109   6.091  12.258  10.360
45404SOL    HW238110   6.170  12.201  10.476
45405SOL     OW38111   5.795  12.955   1.318
45405SOL    HW138112   5.876  12.933   1.271
45405SOL    HW238113   5.824  12.979   1.406
45406SOL     OW38114  10.428  12.707  12.328
45406SOL    HW138115  10.346  12.695  12.278
45406SOL    HW238116  10.480  12.630  12.305
45407SOL     OW38117   0.886  11.690   3.421
45407SOL    HW138118   0.876  11.761   3.358
45407SOL    HW238119   0.839  11.721   3.499
45408SOL     OW38120  13.228  14.208   5.276
45408SOL    HW138121  13.282  14.271   5.324
45408SOL    HW238122  13.280  14.127   5.276
45409SOL     OW38123   7.945   0.821   6.019
45409SOL    HW138124   7.902   0.735   6.020
45409SOL    HW238125   8.039   0.801   6.026
45410SOL     OW38126   6.623   1.358   2.725
45410SOL    HW138127   6.579   1.333   2.643
45410SOL    HW238128   6.594   1.292   2.788
45411SOL     OW38129   8.271  12.082  12.961
45411SOL    HW138130   8.212  12.154  12.939
45411SOL    HW238131   8.321  12.066  12.881
45412SOL     OW38132   6.350  11.161   9.367
45412SOL    HW138133   6.258  11.185   9.379
45412SOL    HW238134   6.395  11.203   9.440
45413SOL     OW38135   0.850   9.513   8.098
45413SOL    HW138136   0.835   9.419   8.085
45413SOL    HW238137   0.909   9.517   8.173
45414SOL     OW38138  10.110   6.271   9.631
45414SOL    HW138139  10.044   6.251   9.563
45414SOL    HW238140  10.193   6.275   9.583
45415SOL     OW38141   4.239   7.243  10.601
45415SOL    HW138142   4.218   7.307  10.669
45415SOL    HW238143   4.302   7.184  10.642
45416SOL     OW38144   7.335  13.584   1.430
45416SOL    HW138145   7.271  13.513   1.434
45416SOL    HW238146   7.419  13.540   1.442
45417SOL     OW38147   2.489  10.985   6.531
45417SOL    HW138148   2.526  10.967   6.444
45417SOL    HW238149   2.565  10.991   6.588
45418SOL     OW38150  14.713   2.808   6.487
45418SOL    HW138151  14.748   2.868   6.421
45418SOL    HW238152  14.707   2.861   6.567
45419SOL     OW38153  10.410  12.718   9.655
45419SOL    HW138154  10.326  12.751   9.687
45419SOL    HW238155  10.411  12.742   9.562
45420SOL     OW38156   3.269   4.037   8.864
45420SOL    HW138157   3.296   3.980   8.937
45420SOL    HW238158   3.288   4.125   8.896
45421SOL     OW38159   4.432   2.712  12.637
45421SOL    HW138160   4.392   2.760  12.564
45421SOL    HW238161   4.372   2.639  12.653
45422SOL     OW38162  12.834  13.345   7.981
45422SOL    HW138163  12.796  13.273   7.930
45422SOL    HW238164  12.922  13.314   8.003
45423SOL     OW38165   6.945  12.207   4.142
45423SOL    HW138166   6.898  12.147   4.084
45423SOL    HW238167   7.034  12.174   4.144
45424SOL     OW38168   1.021   0.963  10.255
45424SOL    HW138169   1.104   0.920  10.235
45424SOL    HW238170   0.956   0.892  10.251
45425SOL     OW38171  13.059   4.805   1.292
45425SOL    HW138172  12.981   4.858   1.276
45425SOL    HW238173  13.038   4.753   1.370
45426SOL     OW38174   7.537   2.177   0.637
45426SOL    HW138175   7.487   2.230   0.699
45426SOL    HW238176   7.487   2.182   0.556
45427SOL     OW38177   3.081  11.305   5.939
45427SOL    HW138178   3.122  11.382   5.979
45427SOL    HW238179   2.988  11.327   5.936
45428SOL     OW38180   1.013   6.067   4.895
45428SOL    HW138181   1.091   6.039   4.846
45428SOL    HW238182   0.947   6.002   4.874
45429SOL     OW38183   6.128  10.965  10.745
45429SOL    HW138184   6.174  10.978  10.828
45429SOL    HW238185   6.193  10.985  10.677
45430SOL     OW38186   5.397   7.481   0.022
45430SOL    HW138187   5.394   7.463  14.803
45430SOL    HW238188   5.372   7.573   0.031
45431SOL     OW38189   2.033   5.733   8.990
45431SOL    HW138190   1.985   5.763   8.913
45431SOL    HW238191   2.072   5.812   9.027
45432SOL     OW38192   8.091  11.404   4.123
45432SOL    HW138193   8.034  11.418   4.199
45432SOL    HW238194   8.057  11.463   4.057
45433SOL     OW38195  12.891   6.093   9.142
45433SOL    HW138196  12.825   6.057   9.201
45433SOL    HW238197  12.881   6.188   9.148
45434SOL     OW38198   0.564  10.421   8.656
45434SOL    HW138199   0.487  10.398   8.709
45434SOL    HW238200   0.531  10.424   8.566
45435SOL     OW38201   0.903   4.162   8.798
45435SOL    HW138202   0.904   4.074   8.835
45435SOL    HW238203   0.810   4.182   8.786
45436SOL     OW38204   7.284  11.480   9.388
45436SOL    HW138205   7.209  11.521   9.346
45436SOL    HW238206   7.263  11.387   9.391
45437SOL     OW38207  12.995   9.656   2.737
45437SOL    HW138208  12.971   9.575   2.782
45437SOL    HW238209  12.993   9.634   2.644
45438SOL     OW38210   0.633   5.121  10.661
45438SOL    HW138211   0.715   5.127  10.710
45438SOL    HW238212   0.577   5.063  10.713
45439SOL     OW38213   9.531  13.475   8.516
45439SOL    HW138214   9.501  13.544   8.575
45439SOL    HW238215   9.452  13.450   8.466
45440SOL     OW38216   5.298   1.766  14.717
45440SOL    HW138217   5.282   1.858  14.697
45440SOL    HW238218   5.232   1.744  14.783
45441SOL     OW38219   6.931  12.232  14.680
45441SOL    HW138220   6.999  12.164  14.681
45441SOL    HW238221   6.947  12.281  14.600
45442SOL     OW38222   8.106   9.441  11.643
45442SOL    HW138223   8.027   9.444  11.590
45442SOL    HW238224   8.156   9.367  11.608
45443SOL     OW38225   6.565  12.366  12.775
45443SOL    HW138226   6.567  12.443  12.831
45443SOL    HW238227   6.657  12.345  12.758
45444SOL     OW38228  13.694  10.214   7.941
45444SOL    HW138229  13.757  10.278   7.908
45444SOL    HW238230  13.698  10.143   7.877
45445SOL     OW38231   2.529   2.513   0.509
45445SOL    HW138232   2.452   2.461   0.530
45445SOL    HW238233   2.521   2.531   0.416
45446SOL     OW38234   1.801  14.653   5.526
45446SOL    HW138235   1.882  14.704   5.526
45446SOL    HW238236   1.818  14.581   5.466
45447SOL     OW38237   7.640   8.283   4.909
45447SOL    HW138238   7.734   8.267   4.913
45447SOL    HW238239   7.616   8.308   4.999
45448SOL     OW38240   8.409   2.507  13.950
45448SOL    HW138241   8.479   2.497  14.014
45448SOL    HW238242   8.392   2.601  13.947
45449SOL     OW38243   4.705   9.661   7.162
45449SOL    HW138244   4.769   9.609   7.114
45449SOL    HW238245   4.638   9.599   7.188
45450SOL     OW38246  12.403  10.918   4.413
45450SOL    HW138247  12.311  10.941   4.397
45450SOL    HW238248  12.434  10.985   4.475
45451SOL     OW38249   0.692   7.017   1.738
45451SOL    HW138250   0.695   7.082   1.668
45451SOL    HW238251   0.601   7.018   1.768
45452SOL     OW38252   3.990  11.581   7.303
45452SOL    HW138253   3.917  11.569   7.364
45452SOL    HW238254   3.953  11.634   7.232
45453SOL     OW38255   8.758   1.061   2.508
45453SOL    HW138256   8.709   1.019   2.578
45453SOL    HW238257   8.694   1.071   2.437
45454SOL     OW38258   3.596   7.664   0.572
45454SOL    HW138259   3.596   7.749   0.617
45454SOL    HW238260   3.688   7.638   0.570
45455SOL     OW38261  10.904  12.454   0.125
45455SOL    HW138262  10.899  12.515   0.199
45455SOL    HW238263  10.978  12.397   0.147
45456SOL     OW38264   4.535   7.574   5.079
45456SOL    HW138265   4.590   7.629   5.135
45456SOL    HW238266   4.524   7.626   4.999
45457SOL     OW38267   3.055  13.253  10.391
45457SOL    HW138268   3.146  13.267  10.416
45457SOL    HW238269   3.015  13.340  10.399
45458SOL     OW38270   6.804  10.315   9.754
45458SOL    HW138271   6.892  10.279   9.765
45458SOL    HW238272   6.815  10.388   9.692
45459SOL     OW38273   2.472  10.701  13.327
45459SOL    HW138274   2.536  10.763  13.362
45459SOL    HW238275   2.497  10.616  13.363
45460SOL     OW38276   3.439   9.688   9.253
45460SOL    HW138277   3.439   9.782   9.237
45460SOL    HW238278   3.435   9.680   9.348
45461SOL     OW38279   0.852  14.123   9.920
45461SOL    HW138280   0.894  14.069   9.987
45461SOL    HW238281   0.889  14.210   9.932
45462SOL     OW38282  10.292   7.616   0.759
45462SOL    HW138283  10.359   7.654   0.701
45462SOL    HW238284  10.292   7.672   0.836
45463SOL     OW38285   3.383  12.305   5.863
45463SOL    HW138286   3.311  12.315   5.924
45463SOL    HW238287   3.462  12.307   5.917
45464SOL     OW38288   6.655   4.892  11.562
45464SOL    HW138289   6.658   4.967  11.502
45464SOL    HW238290   6.561   4.880  11.580
45465SOL     OW38291   1.203   2.899   7.330
45465SOL    HW138292   1.129   2.905   7.269
45465SOL    HW238293   1.270   2.954   7.290
45466SOL     OW38294   4.627   2.350   3.176
45466SOL    HW138295   4.648   2.356   3.269
45466SOL    HW238296   4.704   2.307   3.137
45467SOL     OW38297  10.091   3.876  14.592
45467SOL    HW138298  10.155   3.898  14.660
45467SOL    HW238299  10.006   3.882  14.635
45468SOL     OW38300   4.691  12.142   9.052
45468SOL    HW138301   4.718  12.051   9.056
45468SOL    HW238302   4.732  12.176   8.972
45469SOL     OW38303   7.602  12.592   1.390
45469SOL    HW138304   7.652  12.516   1.422
45469SOL    HW238305   7.518  12.555   1.363
45470SOL     OW38306   9.530   2.766   3.270
45470SOL    HW138307   9.467   2.726   3.330
45470SOL    HW238308   9.602   2.794   3.327
45471SOL     OW38309   2.250   4.194   3.960
45471SOL    HW138310   2.321   4.234   3.910
45471SOL    HW238311   2.290   4.117   4.001
45472SOL     OW38312   3.138  11.508   9.169
45472SOL    HW138313   3.095  11.593   9.174
45472SOL    HW238314   3.203  11.517   9.100
45473SOL     OW38315   2.203  11.329   4.794
45473SOL    HW138316   2.242  11.361   4.875
45473SOL    HW238317   2.214  11.400   4.732
45474SOL     OW38318   5.229   5.211   1.767
45474SOL    HW138319   5.291   5.143   1.794
45474SOL    HW238320   5.200   5.184   1.680
45475SOL     OW38321  11.527   5.911   1.251
45475SOL    HW138322  11.495   5.999   1.266
45475SOL    HW238323  11.568   5.915   1.164
45476SOL     OW38324   2.370   1.390   2.031
45476SOL    HW138325   2.402   1.463   2.084
45476SOL    HW238326   2.353   1.320   2.094
45477SOL     OW38327   2.152   5.875  14.191
45477SOL    HW138328   2.179   5.910  14.276
45477SOL    HW238329   2.231   5.878  14.138
45478SOL     OW38330   9.718  12.382   2.014
45478SOL    HW138331   9.771  12.457   1.988
45478SOL    HW238332   9.629  12.404   1.987
45479SOL     OW38333  12.834   2.590  10.084
45479SOL    HW138334  12.749   2.608  10.044
45479SOL    HW238335  12.821   2.605  10.177
45480SOL     OW38336   1.704   7.969  14.354
45480SOL    HW138337   1.727   8.047  14.404
45480SOL    HW238338   1.629   7.932  14.401
45481SOL     OW38339   3.083   4.264   5.465
45481SOL    HW138340   3.038   4.342   5.495
45481SOL    HW238341   3.127   4.229   5.543
45482SOL     OW38342   3.550  12.573  12.332
45482SOL    HW138343   3.590  12.499  12.377
45482SOL    HW238344   3.487  12.534  12.272
45483SOL     OW38345  11.199   9.093  14.210
45483SOL    HW138346  11.247   9.033  14.267
45483SOL    HW238347  11.114   9.104  14.253
45484SOL     OW38348   4.695   3.632   5.009
45484SOL    HW138349   4.772   3.656   4.957
45484SOL    HW238350   4.689   3.700   5.077
45485SOL     OW38351   7.494  13.750   2.104
45485SOL    HW138352   7.583  13.715   2.110
45485SOL    HW238353   7.443  13.697   2.165
45486SOL     OW38354   5.564   8.405   1.304
45486SOL    HW138355   5.641   8.425   1.358
45486SOL    HW238356   5.566   8.471   1.235
45487SOL     OW38357   8.004   4.055   1.372
45487SOL    HW138358   8.019   4.067   1.278
45487SOL    HW238359   8.019   3.961   1.386
45488SOL     OW38360   9.842   4.686   9.568
45488SOL    HW138361   9.811   4.621   9.631
45488SOL    HW238362   9.762   4.719   9.527
45489SOL     OW38363   4.254   2.983   1.437
45489SOL    HW138364   4.197   2.910   1.414
45489SOL    HW238365   4.342   2.953   1.413
45490SOL     OW38366   9.005   1.853   6.107
45490SOL    HW138367   9.001   1.774   6.053
45490SOL    HW238368   8.930   1.905   6.077
45491SOL     OW38369   0.076   2.401   7.172
45491SOL    HW138370   0.164   2.377   7.145
45491SOL    HW238371   0.018   2.346   7.119
45492SOL     OW38372  12.784   4.557  10.832
45492SOL    HW138373  12.730   4.617  10.780
45492SOL    HW238374  12.829   4.615  10.895
45493SOL     OW38375   4.060   5.381   8.965
45493SOL    HW138376   4.023   5.319   8.901
45493SOL    HW238377   4.079   5.328   9.042
45494SOL     OW38378  14.715   6.538   5.455
45494SOL    HW138379  14.754   6.467   5.404
45494SOL    HW238380  14.700   6.499   5.542
45495SOL     OW38381   6.390   5.029  12.152
45495SOL    HW138382   6.481   5.019  12.123
45495SOL    HW238383   6.390   5.109  12.204
45496SOL     OW38384  13.247   4.708  11.141
45496SOL    HW138385  13.238   4.633  11.083
45496SOL    HW238386  13.320   4.759  11.105
45497SOL     OW38387   0.827   1.594   2.348
45497SOL    HW138388   0.887   1.643   2.292
45497SOL    HW238389   0.751   1.651   2.359
45498SOL     OW38390  14.534   0.525   8.973
45498SOL    HW138391  14.461   0.482   8.928
45498SOL    HW238392  14.521   0.618   8.955
45499SOL     OW38393   1.095   8.491  10.992
45499SOL    HW138394   1.109   8.581  11.021
45499SOL    HW238395   1.028   8.457  11.052
45500SOL     OW38396   0.834   9.438   2.357
45500SOL    HW138397   0.740   9.427   2.343
45500SOL    HW238398   0.863   9.356   2.397
45501SOL     OW38399   8.638  13.943  14.131
45501SOL    HW138400   8.634  13.882  14.057
45501SOL    HW238401   8.664  13.889  14.206
45502SOL     OW38402   3.692  10.949   8.976
45502SOL    HW138403   3.602  10.982   8.986
45502SOL    HW238404   3.735  10.970   9.058
45503SOL     OW38405   5.900  12.644  12.871
45503SOL    HW138406   5.879  12.576  12.807
45503SOL    HW238407   5.964  12.700  12.827
45504SOL     OW38408  12.801  11.596   9.073
45504SOL    HW138409  12.796  11.621   8.981
45504SOL    HW238410  12.778  11.504   9.074
45505SOL     OW38411   4.495   6.852   4.245
45505SOL    HW138412   4.522   6.769   4.285
45505SOL    HW238413   4.562   6.870   4.179
45506SOL     OW38414   7.050   9.553   9.188
45506SOL    HW138415   7.087   9.502   9.116
45506SOL    HW238416   7.078   9.506   9.267
45507SOL     OW38417   0.238  11.846  11.308
45507SOL    HW138418   0.331  11.853  11.329
45507SOL    HW238419   0.198  11.917  11.358
45508SOL     OW38420   9.224   3.226   1.973
45508SOL    HW138421   9.225   3.309   2.021
45508SOL    HW238422   9.256   3.248   1.886
45509SOL     OW38423   0.056   2.845  10.817
45509SOL    HW138424   0.004   2.883  10.746
45509SOL    HW238425   0.144   2.838  10.782
45510SOL     OW38426   5.166   6.034   5.627
45510SOL    HW138427   5.161   5.968   5.696
45510SOL    HW238428   5.131   6.113   5.667
45511SOL     OW38429  13.171   5.276   0.493
45511SOL    HW138430  13.127   5.204   0.448
45511SOL    HW238431  13.129   5.280   0.579
45512SOL     OW38432   6.724   6.296  13.829
45512SOL    HW138433   6.797   6.235  13.836
45512SOL    HW238434   6.751   6.371  13.882
45513SOL     OW38435  10.384   2.604   0.749
45513SOL    HW138436  10.459   2.638   0.700
45513SOL    HW238437  10.307   2.643   0.706
45514SOL     OW38438   7.164   4.429   7.329
45514SOL    HW138439   7.216   4.426   7.410
45514SOL    HW238440   7.152   4.523   7.312
45515SOL     OW38441   4.151   7.261   6.085
45515SOL    HW138442   4.190   7.232   6.167
45515SOL    HW238443   4.160   7.186   6.026
45516SOL     OW38444   9.099  10.004  11.954
45516SOL    HW138445   9.159   9.954  11.898
45516SOL    HW238446   9.057   9.938  12.009
45517SOL     OW38447   7.421   2.659   1.942
45517SOL    HW138448   7.347   2.616   1.983
45517SOL    HW238449   7.481   2.679   2.014
45518SOL     OW38450   1.972  14.171  13.500
45518SOL    HW138451   1.963  14.077  13.513
45518SOL    HW238452   2.036  14.198  13.566
45519SOL     OW38453   5.486   5.708   8.133
45519SOL    HW138454   5.489   5.772   8.205
45519SOL    HW238455   5.417   5.741   8.075
45520SOL     OW38456   0.650  10.687  12.881
45520SOL    HW138457   0.623  10.665  12.970
45520SOL    HW238458   0.709  10.616  12.856
45521SOL     OW38459   3.456  13.366   8.995
45521SOL    HW138460   3.548  13.343   8.979
45521SOL    HW238461   3.457  13.459   9.014
45522SOL     OW38462   1.484  11.167  14.564
45522SOL    HW138463   1.445  11.236  14.618
45522SOL    HW238464   1.532  11.112  14.626
45523SOL     OW38465   2.492   6.664   0.950
45523SOL    HW138466   2.416   6.717   0.926
45523SOL    HW238467   2.567   6.713   0.915
45524SOL     OW38468   8.437  12.085   7.893
45524SOL    HW138469   8.491  12.012   7.925
45524SOL    HW238470   8.352  12.071   7.933
45525SOL     OW38471   9.938  11.578   7.801
45525SOL    HW138472   9.884  11.550   7.727
45525SOL    HW238473   9.950  11.498   7.853
45526SOL     OW38474  11.434  12.311   7.627
45526SOL    HW138475  11.383  12.341   7.702
45526SOL    HW238476  11.512  12.367   7.626
45527SOL     OW38477   8.561   8.073   2.041
45527SOL    HW138478   8.527   8.070   1.952
45527SOL    HW238479   8.485   8.060   2.097
45528SOL     OW38480   8.607  14.532   5.377
45528SOL    HW138481   8.611  14.593   5.304
45528SOL    HW238482   8.696  14.530   5.412
45529SOL     OW38483   7.838   9.207   0.978
45529SOL    HW138484   7.890   9.152   0.919
45529SOL    HW238485   7.846   9.295   0.941
45530SOL     OW38486   8.973   9.889   2.205
45530SOL    HW138487   9.049   9.878   2.148
45530SOL    HW238488   8.981   9.979   2.238
45531SOL     OW38489  11.221  11.853   3.012
45531SOL    HW138490  11.308  11.816   3.002
45531SOL    HW238491  11.231  11.946   2.990
45532SOL     OW38492   4.247   6.968  13.834
45532SOL    HW138493   4.289   7.044  13.874
45532SOL    HW238494   4.288   6.893  13.875
45533SOL     OW38495  14.431   6.300   6.095
45533SOL    HW138496  14.434   6.327   6.186
45533SOL    HW238497  14.449   6.206   6.097
45534SOL     OW38498   7.220   8.096  10.972
45534SOL    HW138499   7.226   8.053  10.886
45534SOL    HW238500   7.292   8.057  11.023
45535SOL     OW38501  14.536   3.296   5.571
45535SOL    HW138502  14.489   3.299   5.488
45535SOL    HW238503  14.603   3.364   5.563
45536SOL     OW38504  12.771  13.069   6.856
45536SOL    HW138505  12.681  13.102   6.853
45536SOL    HW238506  12.817  13.118   6.787
45537SOL     OW38507   9.591  13.549   3.520
45537SOL    HW138508   9.564  13.570   3.430
45537SOL    HW238509   9.509  13.547   3.569
45538SOL     OW38510   1.291   0.178  10.809
45538SOL    HW138511   1.305   0.149  10.719
45538SOL    HW238512   1.379   0.200  10.840
45539SOL     OW38513   0.421  14.386  13.594
45539SOL    HW138514   0.447  14.314  13.537
45539SOL    HW238515   0.343  14.356  13.639
45540SOL     OW38516   2.924  10.142   3.006
45540SOL    HW138517   3.018  10.160   2.995
45540SOL    HW238518   2.921  10.063   3.061
45541SOL     OW38519   2.633  14.562   5.200
45541SOL    HW138520   2.639  14.569   5.295
45541SOL    HW238521   2.562  14.622   5.176
45542SOL     OW38522   1.542   4.498   9.738
45542SOL    HW138523   1.487   4.564   9.695
45542SOL    HW238524   1.483   4.424   9.753
45543SOL     OW38525   5.711  10.007   1.383
45543SOL    HW138526   5.763   9.964   1.451
45543SOL    HW238527   5.638   9.947   1.367
45544SOL     OW38528   1.532  10.940   8.455
45544SOL    HW138529   1.448  10.897   8.443
45544SOL    HW238530   1.528  10.979   8.543
45545SOL     OW38531   7.376   8.517   2.656
45545SOL    HW138532   7.287   8.487   2.639
45545SOL    HW238533   7.430   8.470   2.593
45546SOL     OW38534   9.876   2.844   5.105
45546SOL    HW138535   9.837   2.857   5.191
45546SOL    HW238536   9.834   2.764   5.071
45547SOL     OW38537  14.040  14.504   5.781
45547SOL    HW138538  14.063  14.428   5.727
45547SOL    HW238539  13.968  14.546   5.733
45548SOL     OW38540  11.361   3.169   3.972
45548SOL    HW138541  11.340   3.125   3.890
45548SOL    HW238542  11.355   3.101   4.038
45549SOL     OW38543  13.572   6.948  14.750
45549SOL    HW138544  13.482   6.931  14.720
45549SOL    HW238545  13.595   7.031  14.709
45550SOL     OW38546   1.659   5.830   4.813
45550SOL    HW138547   1.728   5.892   4.788
45550SOL    HW238548   1.646   5.845   4.906
45551SOL     OW38549   5.209   4.482   2.133
45551SOL    HW138550   5.125   4.499   2.176
45551SOL    HW238551   5.231   4.392   2.158
45552SOL     OW38552   2.047   5.869   4.507
45552SOL    HW138553   1.961   5.891   4.472
45552SOL    HW238554   2.108   5.890   4.437
45553SOL     OW38555   0.134   2.464   9.713
45553SOL    HW138556   0.228   2.477   9.727
45553SOL    HW238557   0.123   2.369   9.710
45554SOL     OW38558   3.411  11.048  13.497
45554SOL    HW138559   3.501  11.033  13.523
45554SOL    HW238560   3.412  11.043  13.402
45555SOL     OW38561  14.498   5.231  11.691
45555SOL    HW138562  14.540   5.147  11.708
45555SOL    HW238563  14.479   5.266  11.778
45556SOL     OW38564   6.400  11.564   0.394
45556SOL    HW138565   6.304  11.564   0.393
45556SOL    HW238566   6.424  11.471   0.393
45557SOL     OW38567   9.555   7.702   1.453
45557SOL    HW138568   9.470   7.687   1.496
45557SOL    HW238569   9.610   7.630   1.484
45558SOL     OW38570  11.056  14.379  11.242
45558SOL    HW138571  11.129  14.345  11.192
45558SOL    HW238572  11.012  14.302  11.278
45559SOL     OW38573   8.520  10.675   1.194
45559SOL    HW138574   8.600  10.622   1.185
45559SOL    HW238575   8.454  10.612   1.225
45560SOL     OW38576  12.422  14.830   1.351
45560SOL    HW138577  12.342  14.862   1.308
45560SOL    HW238578  12.404  14.841   1.445
45561SOL     OW38579  12.427  11.056   9.055
45561SOL    HW138580  12.369  11.130   9.067
45561SOL    HW238581  12.475  11.050   9.138
45562SOL     OW38582   0.372   5.217   6.216
45562SOL    HW138583   0.368   5.155   6.288
45562SOL    HW238584   0.289   5.206   6.169
45563SOL     OW38585   4.993   2.228   4.112
45563SOL    HW138586   4.982   2.172   4.189
45563SOL    HW238587   4.945   2.308   4.134
45564SOL     OW38588  14.115   7.692   0.969
45564SOL    HW138589  14.087   7.681   0.878
45564SOL    HW238590  14.171   7.770   0.968
45565SOL     OW38591  12.156   4.745   7.516
45565SOL    HW138592  12.179   4.659   7.481
45565SOL    HW238593  12.143   4.730   7.609
45566SOL     OW38594   4.882   6.428   2.653
45566SOL    HW138595   4.918   6.372   2.583
45566SOL    HW238596   4.858   6.509   2.608
45567SOL     OW38597   8.735   9.448   1.968
45567SOL    HW138598   8.709   9.477   1.880
45567SOL    HW238599   8.717   9.354   1.969
45568SOL     OW38600  11.934   4.865   3.767
45568SOL    HW138601  11.896   4.777   3.764
45568SOL    HW238602  11.901   4.902   3.848
45569SOL     OW38603   2.949   7.193   1.239
45569SOL    HW138604   3.007   7.204   1.314
45569SOL    HW238605   2.922   7.101   1.243
45570SOL     OW38606  14.441   2.589   8.474
45570SOL    HW138607  14.496   2.592   8.396
45570SOL    HW238608  14.486   2.646   8.537
45571SOL     OW38609   2.736  12.970   9.301
45571SOL    HW138610   2.785  12.919   9.365
45571SOL    HW238611   2.802  12.997   9.237
45572SOL     OW38612  10.232  13.426   4.843
45572SOL    HW138613  10.216  13.445   4.751
45572SOL    HW238614  10.161  13.367   4.868
45573SOL     OW38615   4.899   7.579   6.756
45573SOL    HW138616   4.877   7.490   6.784
45573SOL    HW238617   4.932   7.622   6.836
45574SOL     OW38618   0.929  11.651   6.032
45574SOL    HW138619   0.865  11.721   6.016
45574SOL    HW238620   0.883  11.589   6.088
45575SOL     OW38621  14.547   8.081  10.047
45575SOL    HW138622  14.498   8.016  10.098
45575SOL    HW238623  14.636   8.076  10.082
45576SOL     OW38624   0.475  12.180  10.468
45576SOL    HW138625   0.393  12.224  10.447
45576SOL    HW238626   0.458  12.088  10.449
45577SOL     OW38627  11.885  12.045   0.458
45577SOL    HW138628  11.818  12.111   0.441
45577SOL    HW238629  11.904  12.007   0.371
45578SOL     OW38630   7.929   5.228  13.187
45578SOL    HW138631   7.874   5.161  13.147
45578SOL    HW238632   7.970   5.272  13.112
45579SOL     OW38633  10.531   7.062  10.320
45579SOL    HW138634  10.456   7.020  10.361
45579SOL    HW238635  10.560   7.000  10.253
45580SOL     OW38636   1.780  13.550   9.444
45580SOL    HW138637   1.852  13.493   9.474
45580SOL    HW238638   1.812  13.639   9.458
45581SOL     OW38639   7.084   1.743   6.345
45581SOL    HW138640   7.138   1.774   6.417
45581SOL    HW238641   7.063   1.822   6.295
45582SOL     OW38642   6.295  14.191   4.676
45582SOL    HW138643   6.292  14.122   4.610
45582SOL    HW238644   6.271  14.147   4.758
45583SOL     OW38645  12.284  13.397  14.052
45583SOL    HW138646  12.195  13.374  14.076
45583SOL    HW238647  12.338  13.330  14.095
45584SOL     OW38648   8.547   5.318   2.474
45584SOL    HW138649   8.619   5.298   2.415
45584SOL    HW238650   8.588   5.344   2.556
45585SOL     OW38651  12.543   8.688  13.883
45585SOL    HW138652  12.638   8.678  13.880
45585SOL    HW238653  12.516   8.693  13.791
45586SOL     OW38654  11.735   6.074   4.733
45586SOL    HW138655  11.797   6.012   4.771
45586SOL    HW238656  11.656   6.065   4.786
45587SOL     OW38657  12.424  13.547   1.625
45587SOL    HW138658  12.472  13.490   1.564
45587SOL    HW238659  12.332  13.529   1.607
45588SOL     OW38660   3.290   3.888  10.260
45588SOL    HW138661   3.228   3.961  10.255
45588SOL    HW238662   3.238   3.810  10.239
45589SOL     OW38663  14.129   7.996  13.034
45589SOL    HW138664  14.072   8.037  13.098
45589SOL    HW238665  14.179   8.068  12.995
45590SOL     OW38666   3.752   7.542   2.843
45590SOL    HW138667   3.762   7.560   2.937
45590SOL    HW238668   3.834   7.501   2.817
45591SOL     OW38669   7.927   8.160   4.667
45591SOL    HW138670   7.962   8.121   4.747
45591SOL    HW238671   7.951   8.252   4.672
45592SOL     OW38672   3.105  10.840  10.239
45592SOL    HW138673   3.153  10.871  10.162
45592SOL    HW238674   3.016  10.872  10.227
45593SOL     OW38675  13.033  12.617   5.340
45593SOL    HW138676  13.017  12.560   5.415
45593SOL    HW238677  13.129  12.619   5.332
45594SOL     OW38678   3.796   6.599  11.836
45594SOL    HW138679   3.726   6.534  11.842
45594SOL    HW238680   3.846   6.588  11.917
45595SOL     OW38681   0.658   3.254  12.686
45595SOL    HW138682   0.671   3.300  12.769
45595SOL    HW238683   0.645   3.324  12.622
45596SOL     OW38684  13.313  14.033   8.165
45596SOL    HW138685  13.361  14.008   8.086
45596SOL    HW238686  13.261  13.956   8.187
45597SOL     OW38687  14.004   6.897   3.945
45597SOL    HW138688  14.054   6.977   3.960
45597SOL    HW238689  13.986   6.897   3.851
45598SOL     OW38690   0.430   0.284   7.443
45598SOL    HW138691   0.507   0.340   7.446
45598SOL    HW238692   0.426   0.243   7.529
45599SOL     OW38693   8.428   8.538   9.841
45599SOL    HW138694   8.418   8.557   9.748
45599SOL    HW238695   8.516   8.501   9.849
45600SOL     OW38696   3.136   6.827   8.728
45600SOL    HW138697   3.051   6.788   8.709
45600SOL    HW238698   3.142   6.826   8.824
45601SOL     OW38699  11.972   5.963  12.602
45601SOL    HW138700  11.903   5.962  12.669
45601SOL    HW238701  11.962   6.048  12.559
45602SOL     OW38702   5.487   0.799   0.458
45602SOL    HW138703   5.482   0.730   0.524
45602SOL    HW238704   5.565   0.779   0.407
45603SOL     OW38705  14.398   2.357   4.499
45603SOL    HW138706  14.316   2.406   4.499
45603SOL    HW238707  14.420   2.348   4.406
45604SOL     OW38708   1.646   9.281   0.094
45604SOL    HW138709   1.583   9.350   0.071
45604SOL    HW238710   1.662   9.234   0.013
45605SOL     OW38711   4.850  12.577   6.186
45605SOL    HW138712   4.773  12.521   6.196
45605SOL    HW238713   4.892  12.575   6.272
45606SOL     OW38714  14.059   2.559   2.532
45606SOL    HW138715  14.088   2.635   2.481
45606SOL    HW238716  14.128   2.547   2.598
45607SOL     OW38717   1.405   7.975   0.713
45607SOL    HW138718   1.479   7.997   0.769
45607SOL    HW238719   1.376   7.889   0.745
45608SOL     OW38720   6.928   9.049  10.288
45608SOL    HW138721   6.876   9.059  10.209
45608SOL    HW238722   6.967   9.135  10.303
45609SOL     OW38723   0.129  12.155   3.888
45609SOL    HW138724   0.073  12.198   3.953
45609SOL    HW238725   0.207  12.211   3.884
45610SOL     OW38726  14.697  12.219  12.666
45610SOL    HW138727  14.789  12.243  12.659
45610SOL    HW238728  14.660  12.280  12.729
45611SOL     OW38729  12.086   2.033  12.746
45611SOL    HW138730  12.061   2.040  12.654
45611SOL    HW238731  12.182   2.037  12.746
45612SOL     OW38732   7.508   0.869  14.417
45612SOL    HW138733   7.428   0.861  14.365
45612SOL    HW238734   7.480   0.856  14.507
45613SOL     OW38735   3.169  14.275  10.217
45613SOL    HW138736   3.264  14.270  10.207
45613SOL    HW238737   3.137  14.192  10.180
45614SOL     OW38738  11.176   6.028  14.763
45614SOL    HW138739  11.116   5.959  14.790
45614SOL    HW238740  11.210   5.999  14.678
45615SOL     OW38741   9.237   8.127   5.911
45615SOL    HW138742   9.241   8.222   5.920
45615SOL    HW238743   9.217   8.095   5.999
45616SOL     OW38744   5.916   4.486   2.908
45616SOL    HW138745   5.999   4.491   2.862
45616SOL    HW238746   5.938   4.450   2.994
45617SOL     OW38747   9.364   4.830   0.975
45617SOL    HW138748   9.369   4.779   0.894
45617SOL    HW238749   9.291   4.790   1.023
45618SOL     OW38750   3.762   0.144  11.422
45618SOL    HW138751   3.837   0.191  11.459
45618SOL    HW238752   3.692   0.157  11.485
45619SOL     OW38753  14.415   1.858  10.911
45619SOL    HW138754  14.346   1.797  10.939
45619SOL    HW238755  14.420   1.923  10.981
45620SOL     OW38756  11.154  11.431   3.324
45620SOL    HW138757  11.111  11.509   3.357
45620SOL    HW238758  11.209  11.461   3.252
45621SOL     OW38759   1.801   1.046   6.727
45621SOL    HW138760   1.886   1.087   6.746
45621SOL    HW238761   1.823   0.968   6.676
45622SOL     OW38762   8.572   4.630   5.892
45622SOL    HW138763   8.543   4.631   5.983
45622SOL    HW238764   8.552   4.717   5.859
45623SOL     OW38765  12.332   9.641   4.548
45623SOL    HW138766  12.241   9.673   4.549
45623SOL    HW238767  12.339   9.587   4.626
45624SOL     OW38768   5.189   3.153  12.572
45624SOL    HW138769   5.230   3.122  12.491
45624SOL    HW238770   5.243   3.228  12.598
45625SOL     OW38771  12.892   7.484   2.887
45625SOL    HW138772  12.982   7.453   2.897
45625SOL    HW238773  12.854   7.426   2.821
45626SOL     OW38774   6.711  14.480   5.757
45626SOL    HW138775   6.778  14.448   5.697
45626SOL    HW238776   6.746  14.563   5.791
45627SOL     OW38777  11.794   8.427   4.595
45627SOL    HW138778  11.821   8.338   4.573
45627SOL    HW238779  11.826   8.480   4.522
45628SOL     OW38780  13.893   9.701   8.052
45628SOL    HW138781  13.988   9.693   8.058
45628SOL    HW238782  13.876   9.794   8.069
45629SOL     OW38783   3.171   6.111   4.818
45629SOL    HW138784   3.137   6.058   4.746
45629SOL    HW238785   3.263   6.083   4.826
45630SOL     OW38786  14.418   1.875   1.038
45630SOL    HW138787  14.422   1.922   1.122
45630SOL    HW238788  14.497   1.902   0.991
45631SOL     OW38789   3.123   5.140   0.141
45631SOL    HW138790   3.088   5.209   0.085
45631SOL    HW238791   3.136   5.181   0.226
45632SOL     OW38792   4.128   2.983   3.318
45632SOL    HW138793   4.150   3.061   3.267
45632SOL    HW238794   4.093   3.016   3.400
45633SOL     OW38795   5.443   0.710   5.794
45633SOL    HW138796   5.520   0.765   5.802
45633SOL    HW238797   5.477   0.621   5.782
45634SOL     OW38798  14.432  10.114   0.852
45634SOL    HW138799  14.359  10.165   0.887
45634SOL    HW238800  14.454  10.052   0.922
45635SOL     OW38801   1.364  13.598   6.964
45635SOL    HW138802   1.325  13.583   6.878
45635SOL    HW238803   1.323  13.533   7.021
45636SOL     OW38804   5.249   5.005  13.228
45636SOL    HW138805   5.274   4.967  13.143
45636SOL    HW238806   5.220   5.094  13.207
45637SOL     OW38807   2.245  11.049   5.095
45637SOL    HW138808   2.327  11.068   5.049
45637SOL    HW238809   2.249  11.102   5.174
45638SOL     OW38810   1.141   3.888   8.389
45638SOL    HW138811   1.119   3.939   8.467
45638SOL    HW238812   1.211   3.829   8.418
45639SOL     OW38813   3.753   8.551   1.331
45639SOL    HW138814   3.714   8.492   1.266
45639SOL    HW238815   3.697   8.542   1.408
45640SOL     OW38816  14.857   7.127  14.059
45640SOL    HW138817   0.053   7.069  14.086
45640SOL    HW238818  14.857   7.122  13.963
45641SOL     OW38819   6.364   1.334   0.119
45641SOL    HW138820   6.357   1.428   0.135
45641SOL    HW238821   6.316   1.294   0.191
45642SOL     OW38822   5.870   3.356  11.258
45642SOL    HW138823   5.826   3.298  11.195
45642SOL    HW238824   5.961   3.325  11.259
45643SOL     OW38825  10.089   6.550   2.400
45643SOL    HW138826  10.029   6.553   2.474
45643SOL    HW238827  10.172   6.521   2.437
45644SOL     OW38828   4.070   5.637   1.727
45644SOL    HW138829   4.023   5.720   1.714
45644SOL    HW238830   4.005   5.569   1.712
45645SOL     OW38831  12.376  12.498   5.768
45645SOL    HW138832  12.343  12.487   5.858
45645SOL    HW238833  12.471  12.500   5.778
45646SOL     OW38834   5.100   5.711  12.575
45646SOL    HW138835   5.089   5.663  12.492
45646SOL    HW238836   5.010   5.729  12.603
45647SOL     OW38837   2.195   0.963  13.404
45647SOL    HW138838   2.246   0.885  13.387
45647SOL    HW238839   2.107   0.931  13.426
45648SOL     OW38840  12.360   1.416   2.145
45648SOL    HW138841  12.320   1.498   2.175
45648SOL    HW238842  12.335   1.352   2.211
45649SOL     OW38843   6.782  11.190   1.019
45649SOL    HW138844   6.763  11.247   0.944
45649SOL    HW238845   6.764  11.245   1.095
45650SOL     OW38846  14.358  10.239   9.874
45650SOL    HW138847  14.345  10.192   9.792
45650SOL    HW238848  14.341  10.331   9.851
45651SOL     OW38849   2.466   1.594   2.216
45651SOL    HW138850   2.441   1.672   2.168
45651SOL    HW238851   2.392   1.577   2.275
45652SOL     OW38852   2.073   8.445  11.682
45652SOL    HW138853   2.128   8.507  11.730
45652SOL    HW238854   2.065   8.370  11.741
45653SOL     OW38855   9.145  13.501   6.236
45653SOL    HW138856   9.237  13.523   6.226
45653SOL    HW238857   9.117  13.475   6.148
45654SOL     OW38858  12.815   7.165   5.738
45654SOL    HW138859  12.825   7.173   5.833
45654SOL    HW238860  12.740   7.106   5.726
45655SOL     OW38861   4.334   4.137  10.058
45655SOL    HW138862   4.392   4.110  10.131
45655SOL    HW238863   4.289   4.056  10.033
45656SOL     OW38864  11.680  10.378  10.010
45656SOL    HW138865  11.671  10.464   9.969
45656SOL    HW238866  11.716  10.323   9.941
45657SOL     OW38867   0.726   9.077  13.591
45657SOL    HW138868   0.712   9.166  13.625
45657SOL    HW238869   0.797   9.087  13.528
45658SOL     OW38870   6.394  11.945   2.413
45658SOL    HW138871   6.435  11.915   2.494
45658SOL    HW238872   6.347  12.024   2.437
45659SOL     OW38873   9.977   7.082   2.247
45659SOL    HW138874  10.052   7.032   2.279
45659SOL    HW238875   9.913   7.077   2.318
45660SOL     OW38876  12.293  12.082  10.544
45660SOL    HW138877  12.384  12.101  10.566
45660SOL    HW238878  12.271  12.147  10.477
45661SOL     OW38879   0.105  14.413   0.146
45661SOL    HW138880   0.142  14.500   0.156
45661SOL    HW238881   0.068  14.412   0.057
45662SOL     OW38882   0.393   6.322   9.485
45662SOL    HW138883   0.448   6.245   9.470
45662SOL    HW238884   0.455   6.392   9.508
45663SOL     OW38885   4.978   2.380  10.888
45663SOL    HW138886   5.072   2.365  10.878
45663SOL    HW238887   4.971   2.450  10.952
45664SOL     OW38888   3.264   5.704  10.562
45664SOL    HW138889   3.357   5.727  10.562
45664SOL    HW238890   3.237   5.713  10.654
45665SOL     OW38891  14.118  14.143   5.974
45665SOL    HW138892  14.172  14.065   5.969
45665SOL    HW238893  14.055  14.124   6.044
45666SOL     OW38894   3.662   4.549   9.579
45666SOL    HW138895   3.735   4.494   9.551
45666SOL    HW238896   3.643   4.521   9.669
45667SOL     OW38897   9.376   6.674  13.260
45667SOL    HW138898   9.336   6.598  13.219
45667SOL    HW238899   9.312   6.745  13.247
45668SOL     OW38900   1.740   0.844   9.435
45668SOL    HW138901   1.658   0.879   9.401
45668SOL    HW238902   1.800   0.918   9.434
45669SOL     OW38903   6.038  11.863   2.701
45669SOL    HW138904   5.983  11.834   2.773
45669SOL    HW238905   5.979  11.869   2.626
45670SOL     OW38906  14.246   8.965   8.807
45670SOL    HW138907  14.328   8.945   8.852
45670SOL    HW238908  14.178   8.947   8.871
45671SOL     OW38909  14.002   2.083  13.272
45671SOL    HW138910  13.961   2.158  13.315
45671SOL    HW238911  14.096   2.103  13.273
45672SOL     OW38912   4.923  12.980   4.077
45672SOL    HW138913   4.851  12.987   4.014
45672SOL    HW238914   4.942  13.070   4.102
45673SOL     OW38915   1.705   3.328  12.424
45673SOL    HW138916   1.651   3.391  12.472
45673SOL    HW238917   1.779   3.311  12.482
45674SOL     OW38918   9.914  14.431  10.175
45674SOL    HW138919   9.954  14.491  10.112
45674SOL    HW238920   9.969  14.353  10.172
45675SOL     OW38921  11.984  11.133   0.886
45675SOL    HW138922  12.002  11.206   0.827
45675SOL    HW238923  11.991  11.170   0.974
45676SOL     OW38924   6.094   1.933  14.335
45676SOL    HW138925   6.069   2.010  14.284
45676SOL    HW238926   6.181   1.910  14.302
45677SOL     OW38927   4.066   8.019  13.853
45677SOL    HW138928   4.028   7.976  13.776
45677SOL    HW238929   4.004   8.001  13.924
45678SOL     OW38930  12.561   0.298  13.212
45678SOL    HW138931  12.650   0.265  13.200
45678SOL    HW238932  12.569   0.366  13.280
45679SOL     OW38933   0.341   3.576   4.161
45679SOL    HW138934   0.423   3.557   4.206
45679SOL    HW238935   0.367   3.635   4.089
45680SOL     OW38936   7.345   7.002  11.006
45680SOL    HW138937   7.362   7.033  11.095
45680SOL    HW238938   7.411   6.934  10.992
45681SOL     OW38939   3.030   8.495  13.117
45681SOL    HW138940   3.013   8.459  13.031
45681SOL    HW238941   3.086   8.571  13.100
45682SOL     OW38942   2.257   3.394   3.447
45682SOL    HW138943   2.253   3.386   3.352
45682SOL    HW238944   2.350   3.402   3.467
45683SOL     OW38945   3.706  10.565  14.087
45683SOL    HW138946   3.776  10.561  14.022
45683SOL    HW238947   3.729  10.640  14.142
45684SOL     OW38948  13.898   9.061   3.317
45684SOL    HW138949  13.930   8.981   3.275
45684SOL    HW238950  13.828   9.092   3.260
45685SOL     OW38951   6.339   1.163   3.910
45685SOL    HW138952   6.402   1.207   3.854
45685SOL    HW238953   6.330   1.220   3.987
45686SOL     OW38954  11.847  13.926  10.146
45686SOL    HW138955  11.883  13.840  10.125
45686SOL    HW238956  11.755  13.920  10.119
45687SOL     OW38957  12.724   8.101   1.269
45687SOL    HW138958  12.664   8.161   1.225
45687SOL    HW238959  12.787   8.158   1.313
45688SOL     OW38960   1.834   7.629  10.083
45688SOL    HW138961   1.865   7.603  10.170
45688SOL    HW238962   1.881   7.573  10.022
45689SOL     OW38963   1.186   3.369  10.563
45689SOL    HW138964   1.177   3.289  10.511
45689SOL    HW238965   1.277   3.369  10.592
45690SOL     OW38966   9.518   8.454   7.435
45690SOL    HW138967   9.597   8.417   7.395
45690SOL    HW238968   9.535   8.453   7.529
45691SOL     OW38969   7.485   8.875  14.844
45691SOL    HW138970   7.566   8.825  14.836
45691SOL    HW238971   7.454   8.855   0.057
45692SOL     OW38972  13.442   2.787   6.008
45692SOL    HW138973  13.534   2.788   6.034
45692SOL    HW238974  13.438   2.725   5.936
45693SOL     OW38975  13.701  11.676   1.779
45693SOL    HW138976  13.632  11.721   1.730
45693SOL    HW238977  13.686  11.703   1.870
45694SOL     OW38978   6.776   1.800  10.660
45694SOL    HW138979   6.701   1.825  10.714
45694SOL    HW238980   6.763   1.706  10.643
45695SOL     OW38981  11.945  11.713   5.701
45695SOL    HW138982  11.879  11.700   5.769
45695SOL    HW238983  11.900  11.767   5.635
45696SOL     OW38984   2.019   4.251   4.980
45696SOL    HW138985   1.974   4.177   4.940
45696SOL    HW238986   2.034   4.311   4.907
45697SOL     OW38987   3.668  10.078   2.504
45697SOL    HW138988   3.577  10.056   2.489
45697SOL    HW238989   3.665  10.139   2.578
45698SOL     OW38990  11.039  12.209  13.568
45698SOL    HW138991  11.101  12.162  13.513
45698SOL    HW238992  10.988  12.139  13.611
45699SOL     OW38993  12.114  14.503   3.502
45699SOL    HW138994  12.089  14.436   3.566
45699SOL    HW238995  12.209  14.492   3.493
45700SOL     OW38996   6.307   3.279   5.279
45700SOL    HW138997   6.325   3.338   5.352
45700SOL    HW238998   6.364   3.204   5.293
45701SOL     OW38999   7.401   8.165  13.551
45701SOL    HW139000   7.434   8.192  13.465
45701SOL    HW239001   7.465   8.101  13.583
45702SOL     OW39002  10.635  13.964   9.242
45702SOL    HW139003  10.702  13.922   9.187
45702SOL    HW239004  10.558  13.971   9.185
45703SOL     OW39005   3.105   9.675  13.361
45703SOL    HW139006   3.042   9.606  13.382
45703SOL    HW239007   3.053   9.743  13.318
45704SOL     OW39008  11.238   2.692  13.963
45704SOL    HW139009  11.222   2.653  13.877
45704SOL    HW239010  11.173   2.762  13.969
45705SOL     OW39011   1.058   7.659  14.631
45705SOL    HW139012   1.087   7.737  14.584
45705SOL    HW239013   0.980   7.687  14.678
45706SOL     OW39014  14.838   0.918   2.966
45706SOL    HW139015   0.015   0.839   2.962
45706SOL    HW239016  14.811   0.935   2.876
45707SOL     OW39017   2.605   3.837   0.621
45707SOL    HW139018   2.516   3.856   0.593
45707SOL    HW239019   2.647   3.797   0.545
45708SOL     OW39020  13.765   7.169   6.115
45708SOL    HW139021  13.686   7.121   6.090
45708SOL    HW239022  13.740   7.216   6.194
45709SOL     OW39023   2.485  10.369   8.925
45709SOL    HW139024   2.520  10.364   8.837
45709SOL    HW239025   2.425  10.444   8.923
45710SOL     OW39026  13.067  10.154   6.497
45710SOL    HW139027  13.005  10.214   6.454
45710SOL    HW239028  13.129  10.212   6.541
45711SOL     OW39029   7.076   9.535  13.536
45711SOL    HW139030   7.129   9.480  13.478
45711SOL    HW239031   7.015   9.579  13.477
45712SOL     OW39032   9.322   7.897  10.151
45712SOL    HW139033   9.311   7.818  10.097
45712SOL    HW239034   9.289   7.871  10.237
45713SOL     OW39035   1.616   6.294   6.312
45713SOL    HW139036   1.690   6.238   6.286
45713SOL    HW239037   1.591   6.339   6.232
45714SOL     OW39038  12.913  12.762   0.119
45714SOL    HW139039  12.855  12.732   0.189
45714SOL    HW239040  13.001  12.745   0.153
45715SOL     OW39041   2.004   3.349  14.494
45715SOL    HW139042   2.067   3.304  14.549
45715SOL    HW239043   1.939   3.384  14.555
45716SOL     OW39044   7.361  11.335   3.865
45716SOL    HW139045   7.294  11.394   3.901
45716SOL    HW239046   7.436  11.347   3.923
45717SOL     OW39047   2.814  14.784  12.212
45717SOL    HW139048   2.900  14.773  12.253
45717SOL    HW239049   2.803  14.706  12.158
45718SOL     OW39050   8.983  12.320  13.656
45718SOL    HW139051   9.046  12.356  13.594
45718SOL    HW239052   8.902  12.367  13.637
45719SOL     OW39053   5.110   0.750   2.489
45719SOL    HW139054   5.026   0.745   2.443
45719SOL    HW239055   5.139   0.840   2.476
45720SOL     OW39056   0.007  11.667   1.771
45720SOL    HW139057  14.864  11.761   1.773
45720SOL    HW239058  14.814  11.628   1.826
45721SOL     OW39059   1.272  11.164   1.176
45721SOL    HW139060   1.339  11.232   1.181
45721SOL    HW239061   1.210  11.186   1.246
45722SOL     OW39062   4.771  13.251  12.518
45722SOL    HW139063   4.797  13.203  12.597
45722SOL    HW239064   4.678  13.270  12.531
45723SOL     OW39065   8.141  12.736  11.945
45723SOL    HW139066   8.183  12.657  11.980
45723SOL    HW239067   8.134  12.795  12.021
45724SOL     OW39068   7.023   1.284  12.550
45724SOL    HW139069   6.981   1.239  12.624
45724SOL    HW239070   6.959   1.351  12.524
45725SOL     OW39071  11.335   9.347  11.634
45725SOL    HW139072  11.273   9.388  11.695
45725SOL    HW239073  11.302   9.369  11.547
45726SOL     OW39074  13.220  10.031   3.906
45726SOL    HW139075  13.143  10.054   3.959
45726SOL    HW239076  13.268   9.968   3.960
45727SOL     OW39077   0.714   4.460   5.338
45727SOL    HW139078   0.761   4.445   5.255
45727SOL    HW239079   0.782   4.458   5.405
45728SOL     OW39080   9.766   4.070   2.004
45728SOL    HW139081   9.817   4.141   1.965
45728SOL    HW239082   9.725   4.108   2.081
45729SOL     OW39083   7.013   9.954   4.495
45729SOL    HW139084   7.074  10.027   4.480
45729SOL    HW239085   6.944   9.990   4.550
45730SOL     OW39086  12.090   2.256   1.585
45730SOL    HW139087  12.169   2.203   1.575
45730SOL    HW239088  12.089   2.313   1.508
45731SOL     OW39089  11.090   5.721  11.397
45731SOL    HW139090  11.055   5.666  11.467
45731SOL    HW239091  11.016   5.736  11.338
45732SOL     OW39092   8.671   2.316  13.623
45732SOL    HW139093   8.709   2.229  13.617
45732SOL    HW239094   8.746   2.375  13.618
45733SOL     OW39095   7.348   3.460   6.786
45733SOL    HW139096   7.368   3.367   6.795
45733SOL    HW239097   7.431   3.504   6.808
45734SOL     OW39098   0.076  10.581   5.645
45734SOL    HW139099   0.049  10.669   5.673
45734SOL    HW239100   0.015  10.522   5.690
45735SOL     OW39101   7.679   0.511  11.241
45735SOL    HW139102   7.767   0.499  11.277
45735SOL    HW239103   7.672   0.605  11.227
45736SOL     OW39104  14.412  13.948  12.359
45736SOL    HW139105  14.439  13.933  12.449
45736SOL    HW239106  14.494  13.944  12.309
45737SOL     OW39107   0.847  14.802   0.441
45737SOL    HW139108   0.919  14.841   0.490
45737SOL    HW239109   0.781  14.783   0.508
45738SOL     OW39110   2.163   5.236  10.559
45738SOL    HW139111   2.090   5.235  10.620
45738SOL    HW239112   2.141   5.304  10.495
45739SOL     OW39113   0.772  11.492   4.579
45739SOL    HW139114   0.698  11.520   4.633
45739SOL    HW239115   0.838  11.560   4.592
45740SOL     OW39116   2.562   3.470   9.141
45740SOL    HW139117   2.645   3.517   9.137
45740SOL    HW239118   2.557   3.422   9.058
45741SOL     OW39119   3.759   4.584   7.981
45741SOL    HW139120   3.727   4.649   8.044
45741SOL    HW239121   3.852   4.603   7.971
45742SOL     OW39122   2.560  11.939   7.765
45742SOL    HW139123   2.520  11.856   7.789
45742SOL    HW239124   2.649  11.916   7.739
45743SOL     OW39125   7.095  12.704   3.100
45743SOL    HW139126   7.180  12.660   3.092
45743SOL    HW239127   7.051  12.685   3.018
45744SOL     OW39128   6.754   4.858   1.751
45744SOL    HW139129   6.833   4.808   1.734
45744SOL    HW239130   6.734   4.841   1.843
45745SOL     OW39131   5.519  14.864  14.018
45745SOL    HW139132   5.514  14.793  14.082
45745SOL    HW239133   5.476   0.063  14.061
45746SOL     OW39134   2.404   4.574   5.666
45746SOL    HW139135   2.425   4.482   5.686
45746SOL    HW239136   2.375   4.610   5.750
45747SOL     OW39137   2.806  12.048   6.930
45747SOL    HW139138   2.858  11.969   6.941
45747SOL    HW239139   2.841  12.089   6.851
45748SOL     OW39140   8.388   4.884   4.544
45748SOL    HW139141   8.357   4.800   4.578
45748SOL    HW239142   8.342   4.894   4.461
45749SOL     OW39143   5.781   3.026   2.777
45749SOL    HW139144   5.873   3.046   2.761
45749SOL    HW239145   5.783   2.956   2.843
45750SOL     OW39146   0.300   7.697   4.561
45750SOL    HW139147   0.394   7.695   4.577
45750SOL    HW239148   0.261   7.690   4.647
45751SOL     OW39149   0.101  10.293  13.681
45751SOL    HW139150   0.166  10.326  13.619
45751SOL    HW239151   0.068  10.213  13.641
45752SOL     OW39152  14.417   5.916   0.576
45752SOL    HW139153  14.464   5.933   0.494
45752SOL    HW239154  14.376   6.000   0.599
45753SOL     OW39155  11.359  10.686   5.124
45753SOL    HW139156  11.424  10.731   5.177
45753SOL    HW239157  11.285  10.746   5.120
45754SOL     OW39158  14.320   9.879   5.726
45754SOL    HW139159  14.248   9.820   5.704
45754SOL    HW239160  14.398   9.836   5.691
45755SOL     OW39161   9.009   3.767  13.386
45755SOL    HW139162   9.065   3.817  13.327
45755SOL    HW239163   9.043   3.786  13.473
45756SOL     OW39164   5.583  11.475   4.599
45756SOL    HW139165   5.662  11.482   4.545
45756SOL    HW239166   5.555  11.566   4.612
45757SOL     OW39167   6.791   4.620   2.692
45757SOL    HW139168   6.768   4.614   2.785
45757SOL    HW239169   6.757   4.705   2.664
45758SOL     OW39170   8.577   3.693   2.044
45758SOL    HW139171   8.664   3.712   2.079
45758SOL    HW239172   8.572   3.744   1.963
45759SOL     OW39173   2.613  14.525  11.315
45759SOL    HW139174   2.614  14.457  11.382
45759SOL    HW239175   2.568  14.486  11.240
45760SOL     OW39176   0.172  11.354   4.848
45760SOL    HW139177   0.249  11.319   4.892
45760SOL    HW239178   0.100  11.297   4.875
45761SOL     OW39179   9.900   4.186   2.772
45761SOL    HW139180   9.867   4.260   2.721
45761SOL    HW239181   9.918   4.223   2.859
45762SOL     OW39182   8.434   6.130   3.409
45762SOL    HW139183   8.471   6.217   3.425
45762SOL    HW239184   8.350   6.131   3.454
45763SOL     OW39185  10.311   2.321   3.469
45763SOL    HW139186  10.217   2.342   3.475
45763SOL    HW239187  10.314   2.228   3.449
45764SOL     OW39188   8.596   4.384   7.494
45764SOL    HW139189   8.541   4.459   7.513
45764SOL    HW239190   8.612   4.388   7.400
45765SOL     OW39191   6.364  12.845   3.257
45765SOL    HW139192   6.289  12.883   3.212
45765SOL    HW239193   6.398  12.917   3.311
45766SOL     OW39194   1.147   8.159  13.517
45766SOL    HW139195   1.062   8.116  13.509
45766SOL    HW239196   1.148   8.197  13.604
45767SOL     OW39197  13.057   8.940  12.265
45767SOL    HW139198  12.984   8.930  12.204
45767SOL    HW239199  13.020   8.990  12.339
45768SOL     OW39200   5.202   2.384  11.552
45768SOL    HW139201   5.156   2.364  11.470
45768SOL    HW239202   5.244   2.301  11.576
45769SOL     OW39203  10.841  13.548   4.263
45769SOL    HW139204  10.924  13.557   4.310
45769SOL    HW239205  10.812  13.638   4.249
45770SOL     OW39206   9.238  10.337  10.901
45770SOL    HW139207   9.318  10.335  10.952
45770SOL    HW239208   9.195  10.419  10.927
45771SOL     OW39209   7.694   5.177   5.972
45771SOL    HW139210   7.638   5.103   5.996
45771SOL    HW239211   7.773   5.166   6.025
45772SOL     OW39212   7.431   1.967   3.623
45772SOL    HW139213   7.513   1.923   3.598
45772SOL    HW239214   7.460   2.049   3.663
45773SOL     OW39215  14.854  13.698  14.373
45773SOL    HW139216   0.033  13.766  14.332
45773SOL    HW239217  14.813  13.741  14.447
45774SOL     OW39218  12.077   0.883  11.186
45774SOL    HW139219  12.051   0.895  11.095
45774SOL    HW239220  12.080   0.971  11.222
45775SOL     OW39221  11.671  10.902   2.689
45775SOL    HW139222  11.579  10.885   2.709
45775SOL    HW239223  11.697  10.970   2.751
45776SOL     OW39224   7.386  13.120  14.405
45776SOL    HW139225   7.365  13.098  14.496
45776SOL    HW239226   7.482  13.121  14.403
45777SOL     OW39227  10.872   5.034   7.244
45777SOL    HW139228  10.826   5.115   7.223
45777SOL    HW239229  10.871   4.984   7.163
45778SOL     OW39230   8.892  10.769   7.040
45778SOL    HW139231   8.983  10.776   7.068
45778SOL    HW239232   8.893  10.789   6.947
45779SOL     OW39233   4.879   2.856   0.824
45779SOL    HW139234   4.815   2.919   0.858
45779SOL    HW239235   4.963   2.902   0.829
45780SOL     OW39236   7.415   5.729   1.408
45780SOL    HW139237   7.342   5.685   1.451
45780SOL    HW239238   7.380   5.757   1.324
45781SOL     OW39239   2.162  12.981   2.787
45781SOL    HW139240   2.208  13.033   2.721
45781SOL    HW239241   2.125  13.045   2.848
45782SOL     OW39242   5.714   5.578  11.166
45782SOL    HW139243   5.667   5.538  11.239
45782SOL    HW239244   5.670   5.544  11.088
45783SOL     OW39245  10.089   5.177   5.109
45783SOL    HW139246  10.074   5.244   5.043
45783SOL    HW239247  10.034   5.103   5.081
45784SOL     OW39248  11.616  11.335  10.210
45784SOL    HW139249  11.624  11.430  10.222
45784SOL    HW239250  11.695  11.299  10.251
45785SOL     OW39251   2.778  12.029   1.820
45785SOL    HW139252   2.763  11.963   1.753
45785SOL    HW239253   2.873  12.038   1.824
45786SOL     OW39254   2.077   3.201   6.123
45786SOL    HW139255   2.119   3.287   6.123
45786SOL    HW239256   2.092   3.167   6.034
45787SOL     OW39257   9.262   5.590   5.993
45787SOL    HW139258   9.185   5.549   5.953
45787SOL    HW239259   9.234   5.614   6.081
45788SOL     OW39260  14.397  12.438  12.685
45788SOL    HW139261  14.428  12.427  12.775
45788SOL    HW239262  14.325  12.501  12.693
45789SOL     OW39263  14.627   6.552   3.971
45789SOL    HW139264  14.567   6.609   4.020
45789SOL    HW239265  14.680   6.612   3.918
45790SOL     OW39266   0.800   3.915  12.361
45790SOL    HW139267   0.791   4.010  12.365
45790SOL    HW239268   0.861   3.899  12.289
45791SOL     OW39269   0.761  11.806   3.631
45791SOL    HW139270   0.678  11.844   3.660
45791SOL    HW239271   0.818  11.881   3.618
45792SOL     OW39272   5.165   1.638  10.585
45792SOL    HW139273   5.125   1.722  10.606
45792SOL    HW239274   5.096   1.574  10.602
45793SOL     OW39275  10.993  13.751   2.326
45793SOL    HW139276  11.059  13.759   2.257
45793SOL    HW239277  10.916  13.715   2.282
45794SOL     OW39278   9.216   0.308   8.578
45794SOL    HW139279   9.125   0.335   8.566
45794SOL    HW239280   9.266   0.390   8.575
45795SOL     OW39281   1.345   3.261   2.455
45795SOL    HW139282   1.421   3.314   2.430
45795SOL    HW239283   1.372   3.216   2.535
45796SOL     OW39284  10.653  14.734   5.496
45796SOL    HW139285  10.592  14.762   5.428
45796SOL    HW239286  10.678  14.814   5.540
45797SOL     OW39287   8.245   0.367   0.909
45797SOL    HW139288   8.212   0.323   0.987
45797SOL    HW239289   8.225   0.307   0.837
45798SOL     OW39290   5.577   7.694  11.861
45798SOL    HW139291   5.555   7.635  11.933
45798SOL    HW239292   5.646   7.650  11.813
45799SOL     OW39293   9.029   9.504   3.331
45799SOL    HW139294   8.992   9.515   3.418
45799SOL    HW239295   9.022   9.590   3.290
45800SOL     OW39296  10.587   4.370  11.496
45800SOL    HW139297  10.567   4.460  11.519
45800SOL    HW239298  10.502   4.326  11.491
45801SOL     OW39299   0.586   0.803   0.922
45801SOL    HW139300   0.547   0.721   0.952
45801SOL    HW239301   0.532   0.871   0.962
45802SOL     OW39302   2.956   2.584  10.552
45802SOL    HW139303   3.013   2.545  10.486
45802SOL    HW239304   2.986   2.674  10.560
45803SOL     OW39305  11.668   7.385  13.663
45803SOL    HW139306  11.618   7.341  13.594
45803SOL    HW239307  11.760   7.369  13.639
45804SOL     OW39308   8.753  14.568   7.462
45804SOL    HW139309   8.769  14.594   7.553
45804SOL    HW239310   8.773  14.647   7.411
45805SOL     OW39311   3.363   9.480   2.461
45805SOL    HW139312   3.306   9.548   2.495
45805SOL    HW239313   3.382   9.424   2.536
45806SOL     OW39314   5.317   2.492  12.921
45806SOL    HW139315   5.261   2.468  12.847
45806SOL    HW239316   5.256   2.510  12.993
45807SOL     OW39317   4.972   9.642   6.952
45807SOL    HW139318   4.950   9.704   6.882
45807SOL    HW239319   5.032   9.690   7.008
45808SOL     OW39320   7.625   4.008   0.128
45808SOL    HW139321   7.644   3.916   0.109
45808SOL    HW239322   7.532   4.017   0.110
45809SOL     OW39323   0.265   8.391   1.858
45809SOL    HW139324   0.197   8.326   1.874
45809SOL    HW239325   0.311   8.399   1.942
45810SOL     OW39326   7.564   7.756   3.015
45810SOL    HW139327   7.484   7.732   2.968
45810SOL    HW239328   7.605   7.823   2.960
45811SOL     OW39329   6.693  11.575  13.813
45811SOL    HW139330   6.757  11.506  13.831
45811SOL    HW239331   6.673  11.612  13.900
45812SOL     OW39332   5.244   9.417   2.942
45812SOL    HW139333   5.293   9.452   2.868
45812SOL    HW239334   5.174   9.481   2.957
45813SOL     OW39335   8.422   8.110  12.265
45813SOL    HW139336   8.412   8.101  12.360
45813SOL    HW239337   8.516   8.115  12.252
45814SOL     OW39338   3.942   8.586   9.450
45814SOL    HW139339   3.964   8.535   9.372
45814SOL    HW239340   3.938   8.677   9.420
45815SOL     OW39341   2.186   8.169   8.177
45815SOL    HW139342   2.134   8.090   8.187
45815SOL    HW239343   2.245   8.149   8.103
45816SOL     OW39344   6.058   7.235  14.573
45816SOL    HW139345   6.045   7.329  14.559
45816SOL    HW239346   6.126   7.211  14.510
45817SOL     OW39347  12.120   2.290   5.132
45817SOL    HW139348  12.195   2.231   5.133
45817SOL    HW239349  12.047   2.236   5.103
45818SOL     OW39350  11.932   5.366   7.996
45818SOL    HW139351  11.964   5.310   7.926
45818SOL    HW239352  11.872   5.311   8.046
45819SOL     OW39353  14.226   9.450   4.975
45819SOL    HW139354  14.240   9.507   4.899
45819SOL    HW239355  14.193   9.508   5.043
45820SOL     OW39356   1.544   5.727  12.580
45820SOL    HW139357   1.582   5.650  12.622
45820SOL    HW239358   1.569   5.801  12.636
45821SOL     OW39359   7.540   8.210  13.310
45821SOL    HW139360   7.560   8.302  13.327
45821SOL    HW239361   7.626   8.169  13.298
45822SOL     OW39362  11.290   4.575  14.286
45822SOL    HW139363  11.308   4.595  14.194
45822SOL    HW239364  11.251   4.487  14.284
45823SOL     OW39365   0.216   1.640   7.961
45823SOL    HW139366   0.164   1.561   7.945
45823SOL    HW239367   0.258   1.658   7.876
45824SOL     OW39368   6.088   8.605   4.636
45824SOL    HW139369   6.037   8.524   4.639
45824SOL    HW239370   6.038   8.662   4.577
45825SOL     OW39371   1.896   8.677   5.947
45825SOL    HW139372   1.896   8.686   5.851
45825SOL    HW239373   1.981   8.713   5.974
45826SOL     OW39374   6.065  12.431   0.903
45826SOL    HW139375   6.117  12.496   0.856
45826SOL    HW239376   6.114  12.349   0.891
45827SOL     OW39377   4.412   2.979  13.021
45827SOL    HW139378   4.453   3.023  12.947
45827SOL    HW239379   4.339   2.930  12.983
45828SOL     OW39380  11.294  12.124   5.765
45828SOL    HW139381  11.205  12.129   5.802
45828SOL    HW239382  11.304  12.032   5.741
45829SOL     OW39383  12.863   4.940  12.993
45829SOL    HW139384  12.836   5.029  13.014
45829SOL    HW239385  12.876   4.897  13.077
45830SOL     OW39386   5.548   1.765   2.801
45830SOL    HW139387   5.639   1.790   2.819
45830SOL    HW239388   5.548   1.670   2.804
45831SOL     OW39389   6.390   5.280   6.573
45831SOL    HW139390   6.339   5.221   6.629
45831SOL    HW239391   6.479   5.245   6.577
45832SOL     OW39392   9.115  10.859   4.605
45832SOL    HW139393   9.131  10.927   4.671
45832SOL    HW239394   9.164  10.783   4.636
45833SOL     OW39395   7.043  13.164  10.578
45833SOL    HW139396   7.103  13.101  10.538
45833SOL    HW239397   6.969  13.168  10.518
45834SOL     OW39398  13.842   1.466  14.100
45834SOL    HW139399  13.911   1.532  14.102
45834SOL    HW239400  13.761   1.517  14.107
45835SOL     OW39401   9.437  12.142   6.188
45835SOL    HW139402   9.466  12.234   6.190
45835SOL    HW239403   9.493  12.101   6.122
45836SOL     OW39404   9.470   7.356   5.683
45836SOL    HW139405   9.488   7.382   5.773
45836SOL    HW239406   9.445   7.437   5.638
45837SOL     OW39407  13.115  10.539   0.154
45837SOL    HW139408  13.161  10.566   0.075
45837SOL    HW239409  13.141  10.447   0.166
45838SOL     OW39410   2.883   1.394   6.784
45838SOL    HW139411   2.955   1.356   6.835
45838SOL    HW239412   2.891   1.488   6.797
45839SOL     OW39413   8.176  10.812  14.618
45839SOL    HW139414   8.164  10.813  14.713
45839SOL    HW239415   8.192  10.904  14.595
45840SOL     OW39416  14.464   1.925   6.220
45840SOL    HW139417  14.466   2.016   6.249
45840SOL    HW239418  14.510   1.925   6.136
45841SOL     OW39419   0.587  13.087   1.128
45841SOL    HW139420   0.664  13.116   1.178
45841SOL    HW239421   0.572  12.997   1.159
45842SOL     OW39422   8.013   3.313  11.375
45842SOL    HW139423   7.996   3.387  11.433
45842SOL    HW239424   8.078   3.345  11.313
45843SOL     OW39425  14.825   1.575  12.606
45843SOL    HW139426  14.822   1.614  12.693
45843SOL    HW239427  14.741   1.529  12.597
45844SOL     OW39428  10.742  14.094   8.890
45844SOL    HW139429  10.655  14.115   8.924
45844SOL    HW239430  10.728  14.017   8.835
45845SOL     OW39431   2.038   1.704   3.512
45845SOL    HW139432   1.945   1.728   3.518
45845SOL    HW239433   2.047   1.629   3.571
45846SOL     OW39434   0.365   4.011   1.014
45846SOL    HW139435   0.396   4.075   0.951
45846SOL    HW239436   0.308   3.953   0.963
45847SOL     OW39437   2.827   3.289  14.041
45847SOL    HW139438   2.847   3.200  14.011
45847SOL    HW239439   2.771   3.326  13.973
45848SOL     OW39440  11.162  12.059  10.468
45848SOL    HW139441  11.085  12.055  10.524
45848SOL    HW239442  11.236  12.066  10.530
45849SOL     OW39443   0.813   8.769  10.822
45849SOL    HW139444   0.882   8.783  10.886
45849SOL    HW239445   0.858   8.769  10.737
45850SOL     OW39446   0.225   0.544  11.631
45850SOL    HW139447   0.306   0.533  11.581
45850SOL    HW239448   0.207   0.638  11.628
45851SOL     OW39449   5.342  11.542   4.110
45851SOL    HW139450   5.285  11.552   4.186
45851SOL    HW239451   5.427  11.572   4.140
45852SOL     OW39452   9.913   2.245   7.011
45852SOL    HW139453   9.985   2.287   7.060
45852SOL    HW239454   9.957   2.187   6.949
45853SOL     OW39455   2.603  12.249   3.571
45853SOL    HW139456   2.607  12.161   3.608
45853SOL    HW239457   2.555  12.300   3.636
45854SOL     OW39458   5.875  10.106  10.781
45854SOL    HW139459   5.874  10.045  10.706
45854SOL    HW239460   5.843  10.054  10.854
45855SOL     OW39461   8.163   4.907   5.511
45855SOL    HW139462   8.070   4.914   5.533
45855SOL    HW239463   8.208   4.941   5.589
45856SOL     OW39464   2.257   1.542   9.641
45856SOL    HW139465   2.219   1.604   9.703
45856SOL    HW239466   2.193   1.471   9.635
45857SOL     OW39467   4.624  11.498  13.380
45857SOL    HW139468   4.641  11.581  13.336
45857SOL    HW239469   4.647  11.514  13.471
45858SOL     OW39470   8.387   5.599   4.595
45858SOL    HW139471   8.416   5.689   4.611
45858SOL    HW239472   8.292   5.602   4.609
45859SOL     OW39473  10.747   6.949   3.417
45859SOL    HW139474  10.695   6.914   3.489
45859SOL    HW239475  10.835   6.958   3.452
45860SOL     OW39476   6.929   1.210   4.560
45860SOL    HW139477   6.972   1.295   4.566
45860SOL    HW239478   6.986   1.157   4.504
45861SOL     OW39479  14.624  12.010   6.970
45861SOL    HW139480  14.687  12.075   6.940
45861SOL    HW239481  14.656  11.927   6.933
45862SOL     OW39482   1.059   2.007   0.464
45862SOL    HW139483   1.084   1.933   0.519
45862SOL    HW239484   1.006   2.062   0.522
45863SOL     OW39485   4.280   0.295  14.431
45863SOL    HW139486   4.356   0.324  14.381
45863SOL    HW239487   4.243   0.224  14.378
45864SOL     OW39488   4.846   7.823   6.644
45864SOL    HW139489   4.757   7.844   6.671
45864SOL    HW239490   4.863   7.737   6.684
45865SOL     OW39491  10.042   7.818  11.388
45865SOL    HW139492  10.111   7.759  11.358
45865SOL    HW239493   9.964   7.762  11.394
45866SOL     OW39494   1.976   4.519   1.923
45866SOL    HW139495   1.957   4.545   2.014
45866SOL    HW239496   1.945   4.429   1.917
45867SOL     OW39497   1.039   2.601   1.251
45867SOL    HW139498   1.072   2.686   1.223
45867SOL    HW239499   1.115   2.543   1.250
45868SOL     OW39500  14.761   1.671   5.096
45868SOL    HW139501  14.669   1.691   5.079
45868SOL    HW239502  14.804   1.756   5.100
45869SOL     OW39503   5.151   9.483   9.820
45869SOL    HW139504   5.145   9.470   9.915
45869SOL    HW239505   5.081   9.545   9.799
45870SOL     OW39506   5.745  11.618  11.792
45870SOL    HW139507   5.731  11.647  11.702
45870SOL    HW239508   5.698  11.534  11.798
45871SOL     OW39509   7.858   5.717   9.788
45871SOL    HW139510   7.844   5.693   9.697
45871SOL    HW239511   7.927   5.783   9.786
45872SOL     OW39512   6.964   1.641   7.796
45872SOL    HW139513   6.898   1.616   7.732
45872SOL    HW239514   7.048   1.625   7.751
45873SOL     OW39515   2.806   5.044  10.698
45873SOL    HW139516   2.794   5.127  10.743
45873SOL    HW239517   2.901   5.038  10.684
45874SOL     OW39518   4.813   0.561  12.537
45874SOL    HW139519   4.883   0.540  12.475
45874SOL    HW239520   4.733   0.556  12.485
45875SOL     OW39521  13.688   4.123   6.023
45875SOL    HW139522  13.745   4.168   5.960
45875SOL    HW239523  13.678   4.035   5.988
45876SOL     OW39524  13.132  11.019   3.933
45876SOL    HW139525  13.140  10.989   4.023
45876SOL    HW239526  13.210  11.072   3.918
45877SOL     OW39527  14.302   3.834   4.495
45877SOL    HW139528  14.391   3.863   4.476
45877SOL    HW239529  14.260   3.827   4.409
45878SOL     OW39530  13.698   7.337   8.939
45878SOL    HW139531  13.760   7.375   9.001
45878SOL    HW239532  13.722   7.245   8.933
45879SOL     OW39533   9.036   7.146   5.496
45879SOL    HW139534   9.077   7.223   5.455
45879SOL    HW239535   8.948   7.177   5.520
45880SOL     OW39536   2.043  11.166   0.354
45880SOL    HW139537   1.994  11.087   0.378
45880SOL    HW239538   2.003  11.195   0.272
45881SOL     OW39539  11.491   0.595   4.311
45881SOL    HW139540  11.472   0.657   4.240
45881SOL    HW239541  11.584   0.575   4.301
45882SOL     OW39542   6.939   4.149   9.552
45882SOL    HW139543   6.906   4.207   9.621
45882SOL    HW239544   6.997   4.205   9.500
45883SOL     OW39545   7.209   3.480   3.421
45883SOL    HW139546   7.246   3.439   3.344
45883SOL    HW239547   7.280   3.532   3.458
45884SOL     OW39548   1.095   9.416   1.580
45884SOL    HW139549   1.062   9.418   1.490
45884SOL    HW239550   1.017   9.408   1.634
45885SOL     OW39551  14.754   2.686   7.765
45885SOL    HW139552  14.751   2.780   7.747
45885SOL    HW239553  14.701   2.647   7.695
45886SOL     OW39554   5.905   8.405   9.379
45886SOL    HW139555   5.985   8.352   9.384
45886SOL    HW239556   5.856   8.383   9.458
45887SOL     OW39557   4.976  14.738  11.220
45887SOL    HW139558   5.042  14.748  11.289
45887SOL    HW239559   4.933  14.823  11.215
45888SOL     OW39560  14.562   8.697  13.821
45888SOL    HW139561  14.490   8.759  13.826
45888SOL    HW239562  14.558   8.661  13.733
45889SOL     OW39563   6.315   6.060  13.411
45889SOL    HW139564   6.364   6.077  13.330
45889SOL    HW239565   6.357   5.983  13.449
45890SOL     OW39566   3.569   2.637   0.655
45890SOL    HW139567   3.487   2.588   0.652
45890SOL    HW239568   3.548   2.717   0.705
45891SOL     OW39569  11.144  14.145   6.159
45891SOL    HW139570  11.106  14.057   6.168
45891SOL    HW239571  11.229  14.129   6.117
45892SOL     OW39572   0.454  11.046   6.231
45892SOL    HW139573   0.379  11.046   6.171
45892SOL    HW239574   0.440  10.967   6.285
45893SOL     OW39575   0.668   4.506   6.266
45893SOL    HW139576   0.720   4.559   6.326
45893SOL    HW239577   0.629   4.438   6.321
45894SOL     OW39578  10.744   1.991  13.886
45894SOL    HW139579  10.779   2.079  13.898
45894SOL    HW239580  10.655   2.005  13.855
45895SOL     OW39581   9.297  11.610  10.121
45895SOL    HW139582   9.334  11.628  10.034
45895SOL    HW239583   9.203  11.609  10.107
45896SOL     OW39584  13.745   0.739   2.569
45896SOL    HW139585  13.702   0.673   2.515
45896SOL    HW239586  13.703   0.821   2.545
45897SOL     OW39587   4.482  11.422  14.110
45897SOL    HW139588   4.540  11.356  14.072
45897SOL    HW239589   4.467  11.391  14.199
45898SOL     OW39590   9.050   0.040   3.439
45898SOL    HW139591   9.041   0.069   3.348
45898SOL    HW239592   8.974   0.078   3.483
45899SOL     OW39593  10.246   8.982  12.246
45899SOL    HW139594  10.329   9.026  12.227
45899SOL    HW239595  10.252   8.899  12.199
45900SOL     OW39596   7.944   8.652  11.452
45900SOL    HW139597   7.918   8.620  11.366
45900SOL    HW239598   7.940   8.747  11.445
45901SOL     OW39599  13.573   9.083   1.725
45901SOL    HW139600  13.610   9.087   1.637
45901SOL    HW239601  13.519   9.004   1.726
45902SOL     OW39602  14.580  10.462   4.878
45902SOL    HW139603  14.504  10.457   4.936
45902SOL    HW239604  14.599  10.371   4.855
45903SOL     OW39605  10.560  10.790   0.124
45903SOL    HW139606  10.637  10.758   0.170
45903SOL    HW239607  10.505  10.712   0.113
45904SOL     OW39608   1.722   1.834  11.618
45904SOL    HW139609   1.777   1.912  11.628
45904SOL    HW239610   1.777   1.772  11.570
45905SOL     OW39611   4.070  12.382   9.355
45905SOL    HW139612   4.074  12.383   9.260
45905SOL    HW239613   4.132  12.313   9.381
45906SOL     OW39614  14.193   4.930  10.049
45906SOL    HW139615  14.244   4.851  10.029
45906SOL    HW239616  14.176   4.925  10.143
45907SOL     OW39617   6.704   0.131   7.934
45907SOL    HW139618   6.633   0.110   7.994
45907SOL    HW239619   6.669   0.111   7.847
45908SOL     OW39620  10.705   6.560   5.700
45908SOL    HW139621  10.698   6.641   5.650
45908SOL    HW239622  10.699   6.490   5.635
45909SOL     OW39623   1.591   0.926   5.815
45909SOL    HW139624   1.584   0.847   5.762
45909SOL    HW239625   1.542   0.907   5.894
45910SOL     OW39626   3.939   0.515  12.393
45910SOL    HW139627   3.964   0.535  12.303
45910SOL    HW239628   3.956   0.421  12.402
45911SOL     OW39629   1.319   0.246   3.483
45911SOL    HW139630   1.277   0.321   3.442
45911SOL    HW239631   1.311   0.176   3.419
45912SOL     OW39632   6.897   9.836   2.331
45912SOL    HW139633   6.948   9.904   2.288
45912SOL    HW239634   6.847   9.882   2.399
45913SOL     OW39635   3.123   6.905   3.488
45913SOL    HW139636   3.040   6.944   3.515
45913SOL    HW239637   3.190   6.961   3.527
45914SOL     OW39638   4.199   1.121   3.629
45914SOL    HW139639   4.269   1.120   3.694
45914SOL    HW239640   4.240   1.155   3.550
45915SOL     OW39641  11.453   4.323   8.734
45915SOL    HW139642  11.409   4.299   8.815
45915SOL    HW239643  11.415   4.265   8.668
45916SOL     OW39644   7.932   5.498   0.452
45916SOL    HW139645   7.924   5.483   0.358
45916SOL    HW239646   8.021   5.471   0.473
45917SOL     OW39647   8.562   9.746   5.287
45917SOL    HW139648   8.479   9.714   5.251
45917SOL    HW239649   8.612   9.772   5.210
45918SOL     OW39650  13.985  14.116   8.240
45918SOL    HW139651  14.020  14.045   8.185
45918SOL    HW239652  13.915  14.155   8.187
45919SOL     OW39653  13.111   1.646   6.487
45919SOL    HW139654  13.171   1.617   6.418
45919SOL    HW239655  13.045   1.698   6.440
45920SOL     OW39656   1.020   2.444   8.136
45920SOL    HW139657   0.949   2.503   8.109
45920SOL    HW239658   1.100   2.491   8.113
45921SOL     OW39659   5.149   3.360   4.423
45921SOL    HW139660   5.068   3.355   4.372
45921SOL    HW239661   5.168   3.454   4.429
45922SOL     OW39662   2.082   6.982   8.846
45922SOL    HW139663   2.013   7.003   8.783
45922SOL    HW239664   2.110   6.894   8.823
45923SOL     OW39665   8.752  10.247  14.122
45923SOL    HW139666   8.724  10.334  14.153
45923SOL    HW239667   8.848  10.252  14.123
45924SOL     OW39668   5.232   4.532  14.489
45924SOL    HW139669   5.261   4.475  14.561
45924SOL    HW239670   5.139   4.513  14.479
45925SOL     OW39671   2.686  14.109  11.710
45925SOL    HW139672   2.717  14.138  11.795
45925SOL    HW239673   2.604  14.063  11.728
45926SOL     OW39674   8.301  13.527  10.166
45926SOL    HW139675   8.207  13.547  10.169
45926SOL    HW239676   8.330  13.558  10.080
45927SOL     OW39677   2.097   8.899   5.734
45927SOL    HW139678   2.165   8.892   5.667
45927SOL    HW239679   2.058   8.985   5.720
45928SOL     OW39680   6.635   8.873  11.836
45928SOL    HW139681   6.624   8.928  11.914
45928SOL    HW239682   6.570   8.804  11.845
45929SOL     OW39683  10.284   0.040   8.471
45929SOL    HW139684  10.313   0.101   8.404
45929SOL    HW239685  10.356   0.038   8.534
45930SOL     OW39686  12.519   9.958   3.375
45930SOL    HW139687  12.460  10.033   3.369
45930SOL    HW239688  12.536   9.949   3.469
45931SOL     OW39689  12.613  10.766   4.021
45931SOL    HW139690  12.702  10.756   4.054
45931SOL    HW239691  12.598  10.688   3.967
45932SOL     OW39692   7.853   4.110   9.612
45932SOL    HW139693   7.829   4.031   9.661
45932SOL    HW239694   7.821   4.092   9.523
45933SOL     OW39695  11.277   1.879   9.554
45933SOL    HW139696  11.312   1.963   9.583
45933SOL    HW239697  11.262   1.890   9.460
45934SOL     OW39698  11.149   3.021  11.313
45934SOL    HW139699  11.055   3.015  11.297
45934SOL    HW239700  11.157   3.037  11.407
45935SOL     OW39701  14.378  12.002   7.088
45935SOL    HW139702  14.470  11.998   7.062
45935SOL    HW239703  14.353  11.910   7.100
45936SOL     OW39704  12.162   1.931   9.958
45936SOL    HW139705  12.221   1.859   9.981
45936SOL    HW239706  12.208   2.010   9.987
45937SOL     OW39707   0.301   1.524  11.333
45937SOL    HW139708   0.237   1.551  11.398
45937SOL    HW239709   0.267   1.559  11.250
45938SOL     OW39710   4.422   0.123   0.423
45938SOL    HW139711   4.392   0.199   0.473
45938SOL    HW239712   4.516   0.120   0.438
45939SOL     OW39713   9.654  11.985   8.754
45939SOL    HW139714   9.613  12.006   8.838
45939SOL    HW239715   9.660  11.890   8.753
45940SOL     OW39716  12.025   4.169   9.576
45940SOL    HW139717  12.016   4.263   9.559
45940SOL    HW239718  12.023   4.128   9.489
45941SOL     OW39719  10.860   3.665  13.105
45941SOL    HW139720  10.888   3.577  13.130
45941SOL    HW239721  10.769   3.672  13.136
45942SOL     OW39722   1.317   0.588   9.676
45942SOL    HW139723   1.371   0.534   9.619
45942SOL    HW239724   1.274   0.650   9.617
45943SOL     OW39725  12.680   2.173  12.426
45943SOL    HW139726  12.626   2.184  12.504
45943SOL    HW239727  12.660   2.249  12.371
45944SOL     OW39728   8.775   0.302  12.395
45944SOL    HW139729   8.831   0.334  12.324
45944SOL    HW239730   8.784   0.206  12.391
45945SOL     OW39731  13.399  11.925   1.225
45945SOL    HW139732  13.340  11.999   1.209
45945SOL    HW239733  13.473  11.964   1.272
45946SOL     OW39734   4.714   9.744   6.066
45946SOL    HW139735   4.731   9.800   5.990
45946SOL    HW239736   4.777   9.673   6.058
45947SOL     OW39737   5.494   1.321  10.344
45947SOL    HW139738   5.510   1.346  10.435
45947SOL    HW239739   5.448   1.396  10.306
45948SOL     OW39740   5.063  13.643   7.824
45948SOL    HW139741   5.026  13.698   7.755
45948SOL    HW239742   5.154  13.671   7.831
45949SOL     OW39743   3.977   6.969   1.864
45949SOL    HW139744   4.005   7.052   1.904
45949SOL    HW239745   4.053   6.938   1.817
45950SOL     OW39746   8.231   5.679   8.684
45950SOL    HW139747   8.213   5.619   8.612
45950SOL    HW239748   8.326   5.691   8.681
45951SOL     OW39749   3.072   7.193  13.733
45951SOL    HW139750   3.085   7.286  13.749
45951SOL    HW239751   2.997   7.169  13.788
45952SOL     OW39752   4.423   0.153   8.646
45952SOL    HW139753   4.500   0.210   8.655
45952SOL    HW239754   4.423   0.099   8.724
45953SOL     OW39755   1.250  12.985   0.370
45953SOL    HW139756   1.290  12.997   0.284
45953SOL    HW239757   1.254  13.071   0.412
45954SOL     OW39758  10.442   7.282  12.977
45954SOL    HW139759  10.420   7.373  12.996
45954SOL    HW239760  10.488   7.286  12.892
45955SOL     OW39761   5.795  12.869  10.558
45955SOL    HW139762   5.816  12.875  10.464
45955SOL    HW239763   5.745  12.788  10.566
45956SOL     OW39764   4.755   2.496   7.322
45956SOL    HW139765   4.699   2.555   7.272
45956SOL    HW239766   4.813   2.457   7.257
45957SOL     OW39767   3.641  14.610  13.687
45957SOL    HW139768   3.701  14.623  13.761
45957SOL    HW239769   3.585  14.688  13.688
45958SOL     OW39770  11.007   8.518   5.896
45958SOL    HW139771  10.983   8.503   5.805
45958SOL    HW239772  10.968   8.602   5.919
45959SOL     OW39773   8.309   6.142   2.995
45959SOL    HW139774   8.389   6.148   2.942
45959SOL    HW239775   8.317   6.214   3.057
45960SOL     OW39776  10.621  13.277  14.456
45960SOL    HW139777  10.673  13.353  14.430
45960SOL    HW239778  10.685  13.210  14.481
45961SOL     OW39779  11.819  14.691   3.119
45961SOL    HW139780  11.867  14.669   3.199
45961SOL    HW239781  11.884  14.731   3.062
45962SOL     OW39782   0.957   5.335   8.476
45962SOL    HW139783   0.871   5.293   8.480
45962SOL    HW239784   0.996   5.302   8.395
45963SOL     OW39785   9.271   3.603  12.459
45963SOL    HW139786   9.197   3.652  12.495
45963SOL    HW239787   9.320   3.574  12.536
45964SOL     OW39788   9.982   8.649   0.223
45964SOL    HW139789  10.029   8.729   0.197
45964SOL    HW239790   9.902   8.681   0.265
45965SOL     OW39791  10.265   4.784  13.307
45965SOL    HW139792  10.276   4.769  13.400
45965SOL    HW239793  10.204   4.715  13.279
45966SOL     OW39794   8.118  11.105   8.576
45966SOL    HW139795   8.070  11.119   8.657
45966SOL    HW239796   8.143  11.013   8.578
45967SOL     OW39797   2.681   4.720   9.133
45967SOL    HW139798   2.610   4.661   9.159
45967SOL    HW239799   2.726   4.673   9.063
45968SOL     OW39800   1.045  14.442  14.752
45968SOL    HW139801   1.138  14.424  14.763
45968SOL    HW239802   1.010  14.446  14.841
45969SOL     OW39803   8.389  14.649   6.487
45969SOL    HW139804   8.331  14.724   6.474
45969SOL    HW239805   8.338  14.573   6.460
45970SOL     OW39806  11.358   7.641   8.411
45970SOL    HW139807  11.439   7.594   8.393
45970SOL    HW239808  11.290   7.574   8.402
45971SOL     OW39809   5.933  13.974   6.898
45971SOL    HW139810   5.843  13.941   6.903
45971SOL    HW239811   5.951  13.983   6.805
45972SOL     OW39812   6.720   1.153   1.465
45972SOL    HW139813   6.664   1.220   1.424
45972SOL    HW239814   6.772   1.201   1.529
45973SOL     OW39815  13.114   3.688  10.792
45973SOL    HW139816  13.086   3.646  10.873
45973SOL    HW239817  13.105   3.782  10.809
45974SOL     OW39818   4.581   3.024   6.100
45974SOL    HW139819   4.587   3.113   6.135
45974SOL    HW239820   4.570   2.969   6.178
45975SOL     OW39821  10.711   2.811   8.113
45975SOL    HW139822  10.649   2.868   8.068
45975SOL    HW239823  10.656   2.755   8.168
45976SOL     OW39824   4.002  10.181   4.089
45976SOL    HW139825   4.009  10.185   3.994
45976SOL    HW239826   4.019  10.090   4.111
45977SOL     OW39827   5.573   2.256   0.382
45977SOL    HW139828   5.652   2.239   0.330
45977SOL    HW239829   5.561   2.175   0.433
45978SOL     OW39830   8.373   9.759  10.408
45978SOL    HW139831   8.463   9.733  10.392
45978SOL    HW239832   8.376   9.855  10.415
45979SOL     OW39833  10.776  13.412   2.920
45979SOL    HW139834  10.791  13.505   2.937
45979SOL    HW239835  10.826  13.395   2.840
45980SOL     OW39836   5.529  10.454   4.209
45980SOL    HW139837   5.581  10.453   4.289
45980SOL    HW239838   5.522  10.362   4.184
45981SOL     OW39839  12.660   9.501   6.459
45981SOL    HW139840  12.619   9.467   6.379
45981SOL    HW239841  12.651   9.596   6.453
45982SOL     OW39842   4.046  14.825   3.224
45982SOL    HW139843   4.141  14.816   3.230
45982SOL    HW239844   4.024  14.789   3.138
45983SOL     OW39845  11.045  12.346  14.367
45983SOL    HW139846  11.060  12.259  14.404
45983SOL    HW239847  10.999  12.330  14.285
45984SOL     OW39848   6.321   6.293  12.210
45984SOL    HW139849   6.404   6.316  12.170
45984SOL    HW239850   6.259   6.359  12.178
45985SOL     OW39851   1.405   8.322  13.256
45985SOL    HW139852   1.332   8.292  13.203
45985SOL    HW239853   1.427   8.247  13.312
45986SOL     OW39854   0.971   5.076   1.469
45986SOL    HW139855   0.946   4.986   1.449
45986SOL    HW239856   0.928   5.095   1.552
45987SOL     OW39857   1.075   0.401   3.861
45987SOL    HW139858   1.098   0.438   3.775
45987SOL    HW239859   1.159   0.389   3.905
45988SOL     OW39860  12.240  14.507   7.770
45988SOL    HW139861  12.204  14.454   7.700
45988SOL    HW239862  12.294  14.573   7.726
45989SOL     OW39863   9.762  14.563  11.580
45989SOL    HW139864   9.782  14.487  11.527
45989SOL    HW239865   9.668  14.577  11.569
45990SOL     OW39866   8.635  10.970  11.990
45990SOL    HW139867   8.709  10.961  12.049
45990SOL    HW239868   8.585  11.044  12.026
45991SOL     OW39869  13.661   4.208   3.839
45991SOL    HW139870  13.732   4.156   3.801
45991SOL    HW239871  13.599   4.143   3.873
45992SOL     OW39872  14.874   0.857   2.344
45992SOL    HW139873  14.832   0.898   2.268
45992SOL    HW239874  14.818   0.782   2.365
45993SOL     OW39875  13.619   9.302  13.795
45993SOL    HW139876  13.613   9.288  13.889
45993SOL    HW239877  13.658   9.222  13.761
45994SOL     OW39878  13.376  13.361   8.779
45994SOL    HW139879  13.402  13.324   8.695
45994SOL    HW239880  13.375  13.456   8.764
45995SOL     OW39881  11.903   4.425   9.150
45995SOL    HW139882  11.816   4.441   9.114
45995SOL    HW239883  11.909   4.329   9.157
45996SOL     OW39884   6.304   4.536   0.798
45996SOL    HW139885   6.245   4.524   0.723
45996SOL    HW239886   6.246   4.545   0.873
45997SOL     OW39887   9.831  13.048   8.811
45997SOL    HW139888   9.859  13.139   8.822
45997SOL    HW239889   9.742  13.055   8.776
45998SOL     OW39890  11.806   0.689   3.451
45998SOL    HW139891  11.887   0.652   3.486
45998SOL    HW239892  11.763   0.615   3.406
45999SOL     OW39893   9.853   5.140   2.270
45999SOL    HW139894   9.808   5.154   2.352
45999SOL    HW239895   9.798   5.078   2.222
46000SOL     OW39896   9.603  12.734   8.889
46000SOL    HW139897   9.559  12.805   8.935
46000SOL    HW239898   9.683  12.774   8.854
46001SOL     OW39899   5.401   6.252  10.377
46001SOL    HW139900   5.464   6.191  10.414
46001SOL    HW239901   5.449   6.298  10.308
46002SOL     OW39902   5.810   4.728   3.783
46002SOL    HW139903   5.823   4.734   3.688
46002SOL    HW239904   5.768   4.810   3.807
46003SOL     OW39905  11.691   6.431   3.726
46003SOL    HW139906  11.596   6.442   3.735
46003SOL    HW239907  11.712   6.471   3.641
46004SOL     OW39908   8.317   0.291  10.708
46004SOL    HW139909   8.411   0.306  10.699
46004SOL    HW239910   8.278   0.342  10.637
46005SOL     OW39911   5.985   5.597   4.071
46005SOL    HW139912   6.076   5.607   4.041
46005SOL    HW239913   5.993   5.569   4.162
46006SOL     OW39914   3.431   6.555  13.223
46006SOL    HW139915   3.389   6.569  13.309
46006SOL    HW239916   3.511   6.507  13.243
46007SOL     OW39917   7.858  12.378   8.260
46007SOL    HW139918   7.921  12.394   8.190
46007SOL    HW239919   7.889  12.431   8.333
46008SOL     OW39920   9.107   6.741  14.332
46008SOL    HW139921   9.058   6.823  14.322
46008SOL    HW239922   9.046   6.681  14.375
46009SOL     OW39923   0.208   5.109   1.319
46009SOL    HW139924   0.195   5.050   1.393
46009SOL    HW239925   0.171   5.062   1.244
46010SOL     OW39926  13.389   5.865   7.508
46010SOL    HW139927  13.461   5.862   7.570
46010SOL    HW239928  13.339   5.785   7.523
46011SOL     OW39929   2.460   1.455  11.717
46011SOL    HW139930   2.513   1.379  11.696
46011SOL    HW239931   2.522   1.518  11.754
46012SOL     OW39932   8.568   1.045  11.751
46012SOL    HW139933   8.639   1.033  11.687
46012SOL    HW239934   8.597   1.119  11.805
46013SOL     OW39935  13.630   2.894  10.848
46013SOL    HW139936  13.633   2.964  10.783
46013SOL    HW239937  13.615   2.815  10.797
46014SOL     OW39938  10.802  10.884   1.154
46014SOL    HW139939  10.887  10.913   1.121
46014SOL    HW239940  10.815  10.793   1.179
46015SOL     OW39941  12.736   3.096   1.823
46015SOL    HW139942  12.652   3.059   1.796
46015SOL    HW239943  12.800   3.032   1.793
46016SOL     OW39944  10.401   1.253   1.633
46016SOL    HW139945  10.330   1.193   1.654
46016SOL    HW239946  10.477   1.196   1.616
46017SOL     OW39947   0.532   9.189   6.972
46017SOL    HW139948   0.502   9.145   7.051
46017SOL    HW239949   0.489   9.274   6.973
46018SOL     OW39950   7.275   3.312  13.331
46018SOL    HW139951   7.248   3.272  13.248
46018SOL    HW239952   7.243   3.402  13.326
46019SOL     OW39953   5.228  14.426   8.009
46019SOL    HW139954   5.214  14.393   7.920
46019SOL    HW239955   5.150  14.398   8.058
46020SOL     OW39956   4.642   6.878   5.348
46020SOL    HW139957   4.649   6.787   5.376
46020SOL    HW239958   4.672   6.877   5.256
46021SOL     OW39959   7.208  11.198  10.197
46021SOL    HW139960   7.129  11.144  10.208
46021SOL    HW239961   7.174  11.285  10.174
46022SOL     OW39962   5.475  10.251   6.122
46022SOL    HW139963   5.469  10.345   6.137
46022SOL    HW239964   5.529  10.241   6.044
46023SOL     OW39965   1.940   2.391   8.868
46023SOL    HW139966   1.935   2.295   8.862
46023SOL    HW239967   1.938   2.420   8.776
46024SOL     OW39968   6.824  13.210   4.938
46024SOL    HW139969   6.790  13.288   4.983
46024SOL    HW239970   6.867  13.160   5.007
46025SOL     OW39971  11.823   7.586   5.230
46025SOL    HW139972  11.828   7.505   5.179
46025SOL    HW239973  11.912   7.620   5.229
46026SOL     OW39974   5.168   2.067  11.269
46026SOL    HW139975   5.173   2.087  11.175
46026SOL    HW239976   5.235   2.123  11.308
46027SOL     OW39977  12.152   6.428   7.198
46027SOL    HW139978  12.134   6.354   7.256
46027SOL    HW239979  12.244   6.448   7.212
46028SOL     OW39980  13.909   9.661   6.207
46028SOL    HW139981  13.877   9.571   6.193
46028SOL    HW239982  13.897   9.704   6.123
46029SOL     OW39983  12.808   0.835  11.420
46029SOL    HW139984  12.865   0.767  11.456
46029SOL    HW239985  12.817   0.908  11.482
46030SOL     OW39986   1.667   1.445   2.653
46030SOL    HW139987   1.651   1.523   2.706
46030SOL    HW239988   1.680   1.478   2.565
46031SOL     OW39989  14.440  11.810   5.615
46031SOL    HW139990  14.469  11.880   5.556
46031SOL    HW239991  14.390  11.751   5.560
46032SOL     OW39992   4.678   1.498   6.510
46032SOL    HW139993   4.766   1.525   6.486
46032SOL    HW239994   4.680   1.402   6.503
46033SOL     OW39995   6.299  12.035   0.742
46033SOL    HW139996   6.289  12.129   0.725
46033SOL    HW239997   6.260  12.023   0.828
46034SOL     OW39998   1.566   7.060  11.500
46034SOL    HW139999   1.520   7.001  11.559
46034SOL    HW240000   1.588   7.007  11.424
46035SOL     OW40001  13.850   8.279   4.468
46035SOL    HW140002  13.933   8.319   4.444
46035SOL    HW240003  13.825   8.322   4.550
46036SOL     OW40004   8.702   8.094   0.964
46036SOL    HW140005   8.735   8.028   1.025
46036SOL    HW240006   8.745   8.175   0.991
46037SOL     OW40007   3.198   9.876  14.639
46037SOL    HW140008   3.227   9.818  14.568
46037SOL    HW240009   3.104   9.887  14.624
46038SOL     OW40010  14.291   3.577   9.530
46038SOL    HW140011  14.339   3.495   9.542
46038SOL    HW240012  14.255   3.571   9.441
46039SOL     OW40013   5.848   2.516  12.390
46039SOL    HW140014   5.791   2.461  12.443
46039SOL    HW240015   5.805   2.522  12.305
46040SOL     OW40016   5.681   7.815   7.927
46040SOL    HW140017   5.717   7.727   7.919
46040SOL    HW240018   5.589   7.806   7.904
46041SOL     OW40019   4.574  12.031   6.162
46041SOL    HW140020   4.496  12.072   6.199
46041SOL    HW240021   4.647  12.073   6.209
46042SOL     OW40022   2.779  13.755   6.542
46042SOL    HW140023   2.779  13.690   6.612
46042SOL    HW240024   2.731  13.830   6.578
46043SOL     OW40025  10.404  12.029   8.897
46043SOL    HW140026  10.476  12.004   8.955
46043SOL    HW240027  10.445  12.084   8.830
46044SOL     OW40028  13.884   7.151   6.501
46044SOL    HW140029  13.895   7.176   6.592
46044SOL    HW240030  13.973   7.153   6.465
46045SOL     OW40031   2.936   7.807   6.840
46045SOL    HW140032   2.981   7.886   6.870
46045SOL    HW240033   2.863   7.796   6.902
46046SOL     OW40034   6.992  12.137   3.798
46046SOL    HW140035   6.931  12.146   3.725
46046SOL    HW240036   6.956  12.067   3.852
46047SOL     OW40037   0.855   6.450   7.531
46047SOL    HW140038   0.802   6.498   7.467
46047SOL    HW240039   0.874   6.514   7.600
46048SOL     OW40040  13.671   7.299   6.411
46048SOL    HW140041  13.591   7.295   6.462
46048SOL    HW240042  13.717   7.218   6.431
46049SOL     OW40043  14.587   9.892   6.757
46049SOL    HW140044  14.546   9.863   6.838
46049SOL    HW240045  14.640   9.968   6.781
46050SOL     OW40046   1.272   3.458   1.367
46050SOL    HW140047   1.188   3.502   1.352
46050SOL    HW240048   1.262   3.416   1.452
46051SOL     OW40049  12.752  14.031  11.593
46051SOL    HW140050  12.703  14.103  11.553
46051SOL    HW240051  12.844  14.056  11.584
46052SOL     OW40052   1.552  11.619   9.073
46052SOL    HW140053   1.479  11.668   9.035
46052SOL    HW240054   1.517  11.583   9.155
46053SOL     OW40055   4.176   4.334   0.841
46053SOL    HW140056   4.160   4.261   0.901
46053SOL    HW240057   4.128   4.310   0.762
46054SOL     OW40058  11.185   4.097  13.166
46054SOL    HW140059  11.232   4.053  13.095
46054SOL    HW240060  11.218   4.187  13.164
46055SOL     OW40061  12.321   7.225   0.456
46055SOL    HW140062  12.297   7.250   0.545
46055SOL    HW240063  12.416   7.236   0.453
46056SOL     OW40064   1.670   3.669   8.519
46056SOL    HW140065   1.649   3.584   8.482
46056SOL    HW240066   1.686   3.651   8.612
46057SOL     OW40067   5.102   2.189   2.156
46057SOL    HW140068   5.096   2.161   2.065
46057SOL    HW240069   5.184   2.151   2.187
46058SOL     OW40070   9.498   6.882   2.718
46058SOL    HW140071   9.479   6.843   2.632
46058SOL    HW240072   9.532   6.969   2.698
46059SOL     OW40073   5.758   7.115   5.694
46059SOL    HW140074   5.673   7.084   5.727
46059SOL    HW240075   5.740   7.203   5.661
46060SOL     OW40076  12.406  14.583   1.157
46060SOL    HW140077  12.397  14.640   1.233
46060SOL    HW240078  12.337  14.610   1.097
46061SOL     OW40079   2.122  10.275  12.289
46061SOL    HW140080   2.214  10.289  12.313
46061SOL    HW240081   2.115  10.310  12.200
46062SOL     OW40082  13.138   1.097   7.111
46062SOL    HW140083  13.229   1.066   7.114
46062SOL    HW240084  13.100   1.052   7.036
46063SOL     OW40085   6.455  14.420  11.922
46063SOL    HW140086   6.488  14.508  11.942
46063SOL    HW240087   6.514  14.361  11.969
46064SOL     OW40088   4.117   2.491  12.452
46064SOL    HW140089   4.177   2.494  12.527
46064SOL    HW240090   4.137   2.408  12.409
46065SOL     OW40091   4.834  14.049   3.390
46065SOL    HW140092   4.889  14.111   3.343
46065SOL    HW240093   4.749  14.092   3.397
46066SOL     OW40094  11.733  13.733  12.408
46066SOL    HW140095  11.811  13.681  12.389
46066SOL    HW240096  11.735  13.747  12.502
46067SOL     OW40097   1.796   5.142   1.545
46067SOL    HW140098   1.721   5.095   1.580
46067SOL    HW240099   1.761   5.189   1.469
46068SOL     OW40100   2.775   9.300   8.983
46068SOL    HW140101   2.813   9.212   8.977
46068SOL    HW240102   2.850   9.358   8.993
46069SOL     OW40103   1.079   3.990   3.903
46069SOL    HW140104   1.008   4.055   3.905
46069SOL    HW240105   1.159   4.041   3.897
46070SOL     OW40106   5.013   1.841   5.365
46070SOL    HW140107   4.918   1.836   5.356
46070SOL    HW240108   5.046   1.818   5.277
46071SOL     OW40109  10.079  11.395   9.291
46071SOL    HW140110  10.150  11.358   9.343
46071SOL    HW240111  10.122  11.435   9.215
46072SOL     OW40112   9.663  10.336   7.608
46072SOL    HW140113   9.739  10.282   7.626
46072SOL    HW240114   9.692  10.426   7.625
46073SOL     OW40115  11.317   5.941   2.428
46073SOL    HW140116  11.377   5.954   2.354
46073SOL    HW240117  11.233   5.976   2.397
46074SOL     OW40118  14.665   2.036   8.575
46074SOL    HW140119  14.609   2.106   8.542
46074SOL    HW240120  14.606   1.962   8.590
46075SOL     OW40121   1.026   5.009  10.016
46075SOL    HW140122   0.944   5.037  10.055
46075SOL    HW240123   1.088   5.008  10.089
46076SOL     OW40124   0.303   6.153   6.515
46076SOL    HW140125   0.280   6.110   6.432
46076SOL    HW240126   0.332   6.241   6.489
46077SOL     OW40127  10.968   5.280   0.623
46077SOL    HW140128  10.998   5.192   0.600
46077SOL    HW240129  10.877   5.283   0.596
46078SOL     OW40130   2.375  12.070   5.763
46078SOL    HW140131   2.340  11.982   5.779
46078SOL    HW240132   2.393  12.105   5.850
46079SOL     OW40133  14.152   5.552   1.547
46079SOL    HW140134  14.107   5.618   1.600
46079SOL    HW240135  14.129   5.469   1.588
46080SOL     OW40136  10.198   3.665   9.998
46080SOL    HW140137  10.193   3.580   9.954
46080SOL    HW240138  10.170   3.647  10.088
46081SOL     OW40139  14.333  14.673   7.315
46081SOL    HW140140  14.249  14.631   7.337
46081SOL    HW240141  14.308  14.754   7.270
46082SOL     OW40142   0.778  10.189   3.109
46082SOL    HW140143   0.737  10.273   3.132
46082SOL    HW240144   0.867  10.196   3.144
46083SOL     OW40145   7.113   7.656  13.072
46083SOL    HW140146   7.020   7.635  13.060
46083SOL    HW240147   7.116   7.709  13.151
46084SOL     OW40148   5.543   5.995   5.842
46084SOL    HW140149   5.569   5.930   5.777
46084SOL    HW240150   5.594   5.972   5.920
46085SOL     OW40151   3.513  10.929   4.739
46085SOL    HW140152   3.534  10.999   4.677
46085SOL    HW240153   3.441  10.881   4.698
46086SOL     OW40154  10.068   4.491  13.870
46086SOL    HW140155  10.140   4.476  13.931
46086SOL    HW240156  10.053   4.406  13.829
46087SOL     OW40157  12.985  13.728   3.979
46087SOL    HW140158  13.049  13.788   3.941
46087SOL    HW240159  12.938  13.692   3.904
46088SOL     OW40160   5.643  13.755   5.829
46088SOL    HW140161   5.728  13.720   5.804
46088SOL    HW240162   5.586  13.679   5.835
46089SOL     OW40163   9.284   6.148  12.238
46089SOL    HW140164   9.350   6.217  12.237
46089SOL    HW240165   9.237   6.158  12.155
46090SOL     OW40166   5.764   0.742   9.817
46090SOL    HW140167   5.709   0.727   9.894
46090SOL    HW240168   5.763   0.837   9.804
46091SOL     OW40169   3.543  13.617   4.401
46091SOL    HW140170   3.549  13.686   4.334
46091SOL    HW240171   3.463  13.570   4.379
46092SOL     OW40172   9.048  11.771   3.872
46092SOL    HW140173   9.031  11.778   3.778
46092SOL    HW240174   9.143  11.776   3.880
46093SOL     OW40175  14.568   3.385   1.990
46093SOL    HW140176  14.612   3.460   2.030
46093SOL    HW240177  14.630   3.353   1.924
46094SOL     OW40178   9.005   5.244   3.291
46094SOL    HW140179   9.011   5.336   3.318
46094SOL    HW240180   8.940   5.207   3.351
46095SOL     OW40181   3.158  14.575  14.019
46095SOL    HW140182   3.186  14.545  13.932
46095SOL    HW240183   3.077  14.527  14.036
46096SOL     OW40184  13.989  10.875   4.968
46096SOL    HW140185  14.035  10.933   4.908
46096SOL    HW240186  14.030  10.789   4.954
46097SOL     OW40187   3.071   4.733   4.019
46097SOL    HW140188   3.012   4.670   4.059
46097SOL    HW240189   3.158   4.711   4.053
46098SOL     OW40190   3.577   1.027   5.969
46098SOL    HW140191   3.617   0.940   5.975
46098SOL    HW240192   3.642   1.085   6.010
46099SOL     OW40193   0.126   7.927   2.921
46099SOL    HW140194   0.164   7.934   3.008
46099SOL    HW240195   0.138   8.015   2.883
46100SOL     OW40196   5.069  12.061   2.946
46100SOL    HW140197   5.152  12.018   2.922
46100SOL    HW240198   5.045  12.110   2.868
46101SOL     OW40199  13.488  13.397   5.973
46101SOL    HW140200  13.404  13.414   6.015
46101SOL    HW240201  13.552  13.443   6.027
46102SOL     OW40202  12.467   9.315   2.034
46102SOL    HW140203  12.530   9.278   1.972
46102SOL    HW240204  12.487   9.408   2.036
46103SOL     OW40205  14.713   2.609   8.866
46103SOL    HW140206  14.719   2.650   8.952
46103SOL    HW240207  14.799   2.622   8.827
46104SOL     OW40208   7.502   2.930  12.712
46104SOL    HW140209   7.569   2.921  12.781
46104SOL    HW240210   7.552   2.938  12.631
46105SOL     OW40211  11.568  10.717   6.487
46105SOL    HW140212  11.662  10.702   6.486
46105SOL    HW240213  11.549  10.749   6.576
46106SOL     OW40214   0.409  12.340  13.313
46106SOL    HW140215   0.376  12.409  13.371
46106SOL    HW240216   0.330  12.307  13.268
46107SOL     OW40217  12.912  13.114   2.969
46107SOL    HW140218  12.909  13.148   3.059
46107SOL    HW240219  12.854  13.172   2.920
46108SOL     OW40220   6.840  10.964   0.856
46108SOL    HW140221   6.798  10.990   0.774
46108SOL    HW240222   6.818  11.035   0.917
46109SOL     OW40223   8.549   9.906   3.059
46109SOL    HW140224   8.545   9.879   2.968
46109SOL    HW240225   8.467   9.872   3.097
46110SOL     OW40226   6.453   3.558  12.865
46110SOL    HW140227   6.528   3.613  12.843
46110SOL    HW240228   6.444   3.500  12.790
46111SOL     OW40229   8.571   6.553  10.786
46111SOL    HW140230   8.573   6.531  10.879
46111SOL    HW240231   8.606   6.642  10.782
46112SOL     OW40232   8.231   1.727   1.178
46112SOL    HW140233   8.170   1.783   1.225
46112SOL    HW240234   8.249   1.655   1.237
46113SOL     OW40235   1.096  13.233  14.870
46113SOL    HW140236   1.068  13.211  14.781
46113SOL    HW240237   1.187  13.260  14.861
46114SOL     OW40238   9.024  11.361   6.370
46114SOL    HW140239   8.936  11.323   6.368
46114SOL    HW240240   9.045  11.379   6.278
46115SOL     OW40241   0.083   3.369   6.262
46115SOL    HW140242  14.867   3.397   6.271
46115SOL    HW240243   0.077   3.278   6.233
46116SOL     OW40244   9.065  10.634  13.991
46116SOL    HW140245   9.008  10.638  14.068
46116SOL    HW240246   9.013  10.587  13.925
46117SOL     OW40247   7.952   7.007  11.883
46117SOL    HW140248   7.916   7.033  11.968
46117SOL    HW240249   7.951   6.912  11.884
46118SOL     OW40250  13.789   5.872   2.663
46118SOL    HW140251  13.728   5.857   2.591
46118SOL    HW240252  13.734   5.867   2.742
46119SOL     OW40253   1.120   3.617  11.125
46119SOL    HW140254   1.090   3.613  11.216
46119SOL    HW240255   1.046   3.583  11.074
46120SOL     OW40256  11.770   0.901   0.426
46120SOL    HW140257  11.769   0.977   0.368
46120SOL    HW240258  11.766   0.937   0.514
46121SOL     OW40259   4.235   2.425  14.015
46121SOL    HW140260   4.158   2.369  14.000
46121SOL    HW240261   4.206   2.487  14.082
46122SOL     OW40262   3.193  11.025  12.675
46122SOL    HW140263   3.280  11.063  12.679
46122SOL    HW240264   3.140  11.077  12.736
46123SOL     OW40265   3.107   3.517   0.160
46123SOL    HW140266   3.108   3.527   0.064
46123SOL    HW240267   3.123   3.605   0.193
46124SOL     OW40268  10.419   6.333   1.856
46124SOL    HW140269  10.398   6.283   1.935
46124SOL    HW240270  10.403   6.424   1.880
46125SOL     OW40271  10.380   0.151  11.902
46125SOL    HW140272  10.288   0.178  11.909
46125SOL    HW240273  10.394   0.095  11.978
46126SOL     OW40274   3.301  13.671  14.324
46126SOL    HW140275   3.314  13.761  14.352
46126SOL    HW240276   3.269  13.678  14.234
46127SOL     OW40277   1.540  12.734  12.104
46127SOL    HW140278   1.467  12.781  12.063
46127SOL    HW240279   1.555  12.658  12.047
46128SOL     OW40280   7.436  14.763   8.131
46128SOL    HW140281   7.470  14.764   8.220
46128SOL    HW240282   7.360  14.704   8.136
46129SOL     OW40283   2.238   6.635   7.794
46129SOL    HW140284   2.322   6.588   7.800
46129SOL    HW240285   2.172   6.566   7.794
46130SOL     OW40286   6.341   6.866   3.916
46130SOL    HW140287   6.326   6.957   3.889
46130SOL    HW240288   6.390   6.828   3.843
46131SOL     OW40289  13.016  11.372   8.614
46131SOL    HW140290  13.091  11.400   8.667
46131SOL    HW240291  13.052  11.362   8.526
46132SOL     OW40292   7.765   6.562  12.637
46132SOL    HW140293   7.749   6.572  12.731
46132SOL    HW240294   7.695   6.506  12.606
46133SOL     OW40295  12.439  13.930   8.687
46133SOL    HW140296  12.527  13.918   8.653
46133SOL    HW240297  12.382  13.925   8.611
46134SOL     OW40298  10.040  10.076  12.763
46134SOL    HW140299   9.954  10.034  12.768
46134SOL    HW240300  10.101  10.003  12.751
46135SOL     OW40301   3.327   2.472   8.336
46135SOL    HW140302   3.278   2.393   8.312
46135SOL    HW240303   3.289   2.498   8.420
46136SOL     OW40304   0.946  13.289   3.502
46136SOL    HW140305   0.884  13.218   3.523
46136SOL    HW240306   0.954  13.286   3.407
46137SOL     OW40307   2.587   1.512  11.340
46137SOL    HW140308   2.663   1.569  11.358
46137SOL    HW240309   2.604   1.433  11.391
46138SOL     OW40310  11.278   5.943  10.980
46138SOL    HW140311  11.242   6.016  10.931
46138SOL    HW240312  11.201   5.898  11.016
46139SOL     OW40313   4.792   4.238   2.366
46139SOL    HW140314   4.849   4.167   2.393
46139SOL    HW240315   4.835   4.317   2.399
46140SOL     OW40316  13.013   3.501   9.973
46140SOL    HW140317  12.919   3.485   9.966
46140SOL    HW240318  13.024   3.554  10.052
46141SOL     OW40319   2.532  14.865   9.494
46141SOL    HW140320   2.510  14.773   9.507
46141SOL    HW240321   2.614  14.863   9.445
46142SOL     OW40322  13.549   5.710   0.882
46142SOL    HW140323  13.635   5.682   0.850
46142SOL    HW240324  13.497   5.630   0.885
46143SOL     OW40325   3.192   2.225   6.187
46143SOL    HW140326   3.161   2.137   6.165
46143SOL    HW240327   3.288   2.217   6.185
46144SOL     OW40328   7.183   2.058  12.982
46144SOL    HW140329   7.214   2.148  12.978
46144SOL    HW240330   7.165   2.044  13.075
46145SOL     OW40331   2.921   0.611  10.853
46145SOL    HW140332   2.930   0.706  10.846
46145SOL    HW240333   2.841   0.598  10.904
46146SOL     OW40334   9.473   7.923   3.859
46146SOL    HW140335   9.490   8.016   3.873
46146SOL    HW240336   9.385   7.909   3.895
46147SOL     OW40337  11.144   2.612   3.414
46147SOL    HW140338  11.190   2.669   3.352
46147SOL    HW240339  11.060   2.655   3.429
46148SOL     OW40340   4.609   4.851  11.659
46148SOL    HW140341   4.565   4.935  11.646
46148SOL    HW240342   4.549   4.800  11.715
46149SOL     OW40343   4.684   5.520   9.913
46149SOL    HW140344   4.681   5.426   9.929
46149SOL    HW240345   4.747   5.554   9.977
46150SOL     OW40346  10.262   8.376  14.152
46150SOL    HW140347  10.252   8.469  14.170
46150SOL    HW240348  10.266   8.370  14.057
46151SOL     OW40349  11.280  10.010   0.802
46151SOL    HW140350  11.238  10.047   0.880
46151SOL    HW240351  11.209  10.006   0.737
46152SOL     OW40352   8.155  11.612   0.692
46152SOL    HW140353   8.133  11.538   0.636
46152SOL    HW240354   8.097  11.683   0.662
46153SOL     OW40355  11.380  14.722  13.670
46153SOL    HW140356  11.396  14.811  13.703
46153SOL    HW240357  11.456  14.702  13.616
46154SOL     OW40358   5.211   4.044  12.176
46154SOL    HW140359   5.150   3.980  12.214
46154SOL    HW240360   5.160   4.125  12.171
46155SOL     OW40361   7.184   0.065   7.447
46155SOL    HW140362   7.194   0.159   7.433
46155SOL    HW240363   7.274   0.031   7.441
46156SOL     OW40364  10.472   3.831   4.943
46156SOL    HW140365  10.458   3.846   4.850
46156SOL    HW240366  10.384   3.826   4.981
46157SOL     OW40367  12.327   8.784   6.057
46157SOL    HW140368  12.280   8.835   6.122
46157SOL    HW240369  12.294   8.816   5.973
46158SOL     OW40370  13.057   6.683   5.830
46158SOL    HW140371  12.991   6.748   5.856
46158SOL    HW240372  13.138   6.713   5.873
46159SOL     OW40373   2.269   2.023   2.432
46159SOL    HW140374   2.192   2.074   2.457
46159SOL    HW240375   2.342   2.068   2.474
46160SOL     OW40376   0.112  13.291  10.358
46160SOL    HW140377   0.119  13.369  10.304
46160SOL    HW240378   0.096  13.323  10.446
46161SOL     OW40379  12.251  10.724   3.873
46161SOL    HW140380  12.306  10.770   3.810
46161SOL    HW240381  12.162  10.742   3.844
46162SOL     OW40382  14.433  10.753  13.373
46162SOL    HW140383  14.473  10.798  13.448
46162SOL    HW240384  14.487  10.780  13.298
46163SOL     OW40385   1.571   8.154   9.341
46163SOL    HW140386   1.656   8.165   9.385
46163SOL    HW240387   1.577   8.210   9.264
46164SOL     OW40388   4.999   5.181   9.903
46164SOL    HW140389   5.035   5.098   9.932
46164SOL    HW240390   5.044   5.247   9.955
46165SOL     OW40391   4.810   0.413   6.322
46165SOL    HW140392   4.805   0.371   6.236
46165SOL    HW240393   4.725   0.394   6.362
46166SOL     OW40394  14.481   4.014   8.144
46166SOL    HW140395  14.407   3.982   8.195
46166SOL    HW240396  14.443   4.052   8.065
46167SOL     OW40397   6.076   7.613   7.677
46167SOL    HW140398   6.028   7.591   7.597
46167SOL    HW240399   6.101   7.528   7.714
46168SOL     OW40400   3.281   7.110  12.244
46168SOL    HW140401   3.262   7.202  12.222
46168SOL    HW240402   3.197   7.074  12.272
46169SOL     OW40403  11.301  13.347   5.893
46169SOL    HW140404  11.237  13.281   5.922
46169SOL    HW240405  11.278  13.425   5.944
46170SOL     OW40406   8.818   2.321   6.857
46170SOL    HW140407   8.781   2.408   6.874
46170SOL    HW240408   8.904   2.338   6.818
46171SOL     OW40409   3.254  13.218   9.121
46171SOL    HW140410   3.222  13.257   9.202
46171SOL    HW240411   3.314  13.283   9.085
46172SOL     OW40412  14.198   3.887  11.822
46172SOL    HW140413  14.275   3.863  11.873
46172SOL    HW240414  14.124   3.856  11.874
46173SOL     OW40415   8.109   9.100   3.987
46173SOL    HW140416   8.103   9.192   4.011
46173SOL    HW240417   8.177   9.097   3.919
46174SOL     OW40418   7.253   8.516   9.086
46174SOL    HW140419   7.244   8.446   9.022
46174SOL    HW240420   7.202   8.588   9.050
46175SOL     OW40421  14.621  10.870  13.201
46175SOL    HW140422  14.586  10.959  13.208
46175SOL    HW240423  14.642  10.860  13.109
46176SOL     OW40424   4.134   4.325  11.811
46176SOL    HW140425   4.136   4.359  11.722
46176SOL    HW240426   4.219   4.350  11.848
46177SOL     OW40427  12.475   2.717   3.162
46177SOL    HW140428  12.431   2.722   3.246
46177SOL    HW240429  12.512   2.628   3.159
46178SOL     OW40430  14.092   1.957   2.373
46178SOL    HW140431  14.113   1.949   2.467
46178SOL    HW240432  14.057   2.046   2.364
46179SOL     OW40433   4.638   8.762   3.646
46179SOL    HW140434   4.605   8.703   3.579
46179SOL    HW240435   4.731   8.740   3.653
46180SOL     OW40436  12.620   9.787  13.558
46180SOL    HW140437  12.662   9.791  13.643
46180SOL    HW240438  12.526   9.794  13.576
46181SOL     OW40439   0.178  12.189   1.789
46181SOL    HW140440   0.106  12.210   1.731
46181SOL    HW240441   0.240  12.139   1.735
46182SOL     OW40442  14.054  13.759   9.609
46182SOL    HW140443  14.027  13.794   9.695
46182SOL    HW240444  14.132  13.809   9.586
46183SOL     OW40445   4.624   5.729   5.604
46183SOL    HW140446   4.643   5.723   5.510
46183SOL    HW240447   4.541   5.683   5.615
46184SOL     OW40448   6.336   6.456   2.474
46184SOL    HW140449   6.279   6.532   2.475
46184SOL    HW240450   6.326   6.417   2.561
46185SOL     OW40451   8.740   8.684   6.600
46185SOL    HW140452   8.820   8.644   6.566
46185SOL    HW240453   8.698   8.725   6.524
46186SOL     OW40454   7.373   5.811  14.587
46186SOL    HW140455   7.408   5.897  14.563
46186SOL    HW240456   7.388   5.756  14.510
46187SOL     OW40457   3.487   9.921  13.146
46187SOL    HW140458   3.429   9.863  13.196
46187SOL    HW240459   3.566   9.870  13.132
46188SOL     OW40460   8.469  14.664   0.318
46188SOL    HW140461   8.471  14.597   0.387
46188SOL    HW240462   8.491  14.745   0.363
46189SOL     OW40463   2.287   3.508   8.290
46189SOL    HW140464   2.378   3.486   8.270
46189SOL    HW240465   2.241   3.424   8.292
46190SOL     OW40466   5.446   5.177  11.081
46190SOL    HW140467   5.457   5.118  11.155
46190SOL    HW240468   5.408   5.123  11.012
46191SOL     OW40469  14.829   2.731  13.203
46191SOL    HW140470   0.003   2.659  13.164
46191SOL    HW240471  14.742   2.725  13.164
46192SOL     OW40472  13.316  12.185   3.434
46192SOL    HW140473  13.289  12.093   3.440
46192SOL    HW240474  13.236  12.233   3.415
46193SOL     OW40475   1.338   2.263   2.919
46193SOL    HW140476   1.318   2.353   2.891
46193SOL    HW240477   1.376   2.273   3.006
46194SOL     OW40478  11.445   7.586   1.619
46194SOL    HW140479  11.481   7.608   1.533
46194SOL    HW240480  11.508   7.621   1.681
46195SOL     OW40481   3.707  12.924   5.772
46195SOL    HW140482   3.644  12.854   5.791
46195SOL    HW240483   3.653  13.000   5.753
46196SOL     OW40484   7.261   2.390  13.241
46196SOL    HW140485   7.180   2.340  13.252
46196SOL    HW240486   7.314   2.367  13.317
46197SOL     OW40487   1.716  11.135  10.847
46197SOL    HW140488   1.763  11.216  10.829
46197SOL    HW240489   1.681  11.108  10.762
46198SOL     OW40490  12.648   9.451  12.046
46198SOL    HW140491  12.725   9.472  11.993
46198SOL    HW240492  12.578   9.506  12.011
46199SOL     OW40493   1.332  11.686   3.189
46199SOL    HW140494   1.351  11.779   3.205
46199SOL    HW240495   1.294  11.685   3.101
46200SOL     OW40496  10.286   5.326   1.296
46200SOL    HW140497  10.243   5.409   1.275
46200SOL    HW240498  10.224   5.281   1.354
46201SOL     OW40499   7.337   2.773   4.339
46201SOL    HW140500   7.329   2.704   4.273
46201SOL    HW240501   7.426   2.763   4.373
46202SOL     OW40502   7.878   0.029  11.954
46202SOL    HW140503   7.910  14.858  12.031
46202SOL    HW240504   7.933  14.873  11.883
46203SOL     OW40505   3.636   9.925   0.380
46203SOL    HW140506   3.556   9.975   0.394
46203SOL    HW240507   3.679   9.968   0.306
46204SOL     OW40508   4.400   1.945   5.203
46204SOL    HW140509   4.398   1.872   5.140
46204SOL    HW240510   4.414   2.022   5.149
46205SOL     OW40511   6.884   2.307   3.711
46205SOL    HW140512   6.789   2.315   3.704
46205SOL    HW240513   6.898   2.220   3.749
46206SOL     OW40514   6.472   9.425   3.575
46206SOL    HW140515   6.392   9.389   3.538
46206SOL    HW240516   6.523   9.348   3.602
46207SOL     OW40517   5.387   9.197   3.604
46207SOL    HW140518   5.393   9.220   3.511
46207SOL    HW240519   5.371   9.103   3.605
46208SOL     OW40520   6.971   3.168   6.332
46208SOL    HW140521   7.041   3.211   6.381
46208SOL    HW240522   6.922   3.239   6.292
46209SOL     OW40523  11.661   0.233  13.608
46209SOL    HW140524  11.616   0.165  13.658
46209SOL    HW240525  11.685   0.190  13.526
46210SOL     OW40526  14.020  14.783  13.778
46210SOL    HW140527  13.928  14.797  13.797
46210SOL    HW240528  14.066  14.846  13.834
46211SOL     OW40529  10.422   0.655  11.032
46211SOL    HW140530  10.479   0.584  11.005
46211SOL    HW240531  10.387   0.692  10.951
46212SOL     OW40532   1.842   9.122  12.275
46212SOL    HW140533   1.840   9.125  12.371
46212SOL    HW240534   1.782   9.192  12.248
46213SOL     OW40535   7.887  13.993   1.498
46213SOL    HW140536   7.819  13.927   1.513
46213SOL    HW240537   7.854  14.072   1.540
46214SOL     OW40538   4.524   9.841   1.872
46214SOL    HW140539   4.434   9.868   1.853
46214SOL    HW240540   4.540   9.768   1.813
46215SOL     OW40541  10.043   7.622   4.297
46215SOL    HW140542   9.995   7.547   4.261
46215SOL    HW240543  10.096   7.584   4.368
46216SOL     OW40544   5.654  14.021  13.961
46216SOL    HW140545   5.636  13.928  13.949
46216SOL    HW240546   5.733  14.037  13.909
46217SOL     OW40547  10.084   1.688   2.280
46217SOL    HW140548  10.172   1.711   2.254
46217SOL    HW240549  10.042   1.771   2.303
46218SOL     OW40550   4.454  10.200   3.493
46218SOL    HW140551   4.531  10.223   3.442
46218SOL    HW240552   4.473  10.113   3.528
46219SOL     OW40553  13.809   8.201  13.554
46219SOL    HW140554  13.874   8.259  13.594
46219SOL    HW240555  13.777   8.251  13.478
46220SOL     OW40556   6.706  11.363   1.214
46220SOL    HW140557   6.671  11.452   1.215
46220SOL    HW240558   6.669  11.320   1.291
46221SOL     OW40559   6.833  14.695   1.350
46221SOL    HW140560   6.815  14.608   1.387
46221SOL    HW240561   6.928  14.701   1.347
46222SOL     OW40562   8.751  13.088   0.953
46222SOL    HW140563   8.706  13.109   1.035
46222SOL    HW240564   8.714  13.004   0.926
46223SOL     OW40565   3.744  12.825   9.316
46223SOL    HW140566   3.697  12.903   9.348
46223SOL    HW240567   3.809  12.807   9.384
46224SOL     OW40568   7.906   4.062   5.727
46224SOL    HW140569   8.002   4.067   5.723
46224SOL    HW240570   7.888   4.034   5.817
46225SOL     OW40571   1.688   8.663   3.724
46225SOL    HW140572   1.688   8.603   3.650
46225SOL    HW240573   1.781   8.677   3.744
46226SOL     OW40574   9.441  12.842  13.139
46226SOL    HW140575   9.381  12.772  13.166
46226SOL    HW240576   9.440  12.839  13.044
46227SOL     OW40577   5.731  13.988   3.769
46227SOL    HW140578   5.697  14.071   3.803
46227SOL    HW240579   5.811  14.013   3.722
46228SOL     OW40580   7.799   8.872  11.117
46228SOL    HW140581   7.807   8.800  11.055
46228SOL    HW240582   7.743   8.936  11.073
46229SOL     OW40583   7.949   8.422   8.712
46229SOL    HW140584   7.920   8.498   8.663
46229SOL    HW240585   7.978   8.457   8.796
46230SOL     OW40586   9.321   6.034   6.265
46230SOL    HW140587   9.403   5.995   6.297
46230SOL    HW240588   9.274   5.961   6.225
46231SOL     OW40589   2.020   3.489   4.743
46231SOL    HW140590   1.960   3.511   4.813
46231SOL    HW240591   2.056   3.404   4.767
46232SOL     OW40592  13.957  13.724   9.002
46232SOL    HW140593  14.003  13.663   9.059
46232SOL    HW240594  13.912  13.668   8.939
46233SOL     OW40595   6.899  10.468   3.487
46233SOL    HW140596   6.807  10.455   3.465
46233SOL    HW240597   6.898  10.494   3.580
46234SOL     OW40598  10.144   7.545  14.833
46234SOL    HW140599  10.178   7.604   0.025
46234SOL    HW240600  10.098   7.603  14.772
46235SOL     OW40601   9.899   1.687   8.176
46235SOL    HW140602   9.903   1.774   8.217
46235SOL    HW240603   9.926   1.626   8.245
46236SOL     OW40604   0.566   4.302   4.379
46236SOL    HW140605   0.654   4.313   4.416
46236SOL    HW240606   0.521   4.383   4.400
46237SOL     OW40607   5.620   0.995   7.724
46237SOL    HW140608   5.660   1.039   7.649
46237SOL    HW240609   5.544   1.049   7.746
46238SOL     OW40610  13.393  11.949   3.254
46238SOL    HW140611  13.324  11.919   3.312
46238SOL    HW240612  13.346  11.992   3.182
46239SOL     OW40613  14.795  12.699   1.509
46239SOL    HW140614  14.870  12.680   1.565
46239SOL    HW240615  14.779  12.793   1.521
46240SOL     OW40616  10.445  10.162  14.439
46240SOL    HW140617  10.430  10.103  14.365
46240SOL    HW240618  10.455  10.103  14.514
46241SOL     OW40619   5.982   8.977   4.107
46241SOL    HW140620   6.027   8.893   4.095
46241SOL    HW240621   6.007   9.005   4.195
46242SOL     OW40622   2.699   5.868   9.412
46242SOL    HW140623   2.614   5.828   9.431
46242SOL    HW240624   2.745   5.867   9.496
46243SOL     OW40625  13.349   2.367  13.296
46243SOL    HW140626  13.414   2.378  13.366
46243SOL    HW240627  13.400   2.340  13.220
46244SOL     OW40628   1.153   5.737  10.398
46244SOL    HW140629   1.158   5.641  10.396
46244SOL    HW240630   1.213   5.765  10.329
46245SOL     OW40631   9.611   6.502   0.980
46245SOL    HW140632   9.649   6.417   1.004
46245SOL    HW240633   9.519   6.494   1.006
46246SOL     OW40634   3.152   1.989   5.366
46246SOL    HW140635   3.120   1.966   5.278
46246SOL    HW240636   3.104   1.930   5.425
46247SOL     OW40637   4.712   0.572   7.006
46247SOL    HW140638   4.621   0.544   7.003
46247SOL    HW240639   4.750   0.526   7.080
46248SOL     OW40640   3.211   0.507  13.820
46248SOL    HW140641   3.136   0.522  13.877
46248SOL    HW240642   3.268   0.582  13.834
46249SOL     OW40643   7.827   9.874   1.674
46249SOL    HW140644   7.919   9.853   1.659
46249SOL    HW240645   7.779   9.817   1.614
46250SOL     OW40646   6.050  12.110   7.253
46250SOL    HW140647   6.055  12.085   7.161
46250SOL    HW240648   6.074  12.202   7.254
46251SOL     OW40649   9.909   9.850   3.074
46251SOL    HW140650   9.898   9.899   2.992
46251SOL    HW240651   9.990   9.800   3.061
46252SOL     OW40652   1.616   0.046   2.044
46252SOL    HW140653   1.625  14.827   2.054
46252SOL    HW240654   1.694   0.083   2.086
46253SOL     OW40655  12.083   7.214   0.367
46253SOL    HW140656  12.069   7.155   0.294
46253SOL    HW240657  12.175   7.204   0.390
46254SOL     OW40658  10.376  12.057   8.475
46254SOL    HW140659  10.439  12.095   8.535
46254SOL    HW240660  10.322  12.131   8.447
46255SOL     OW40661   3.285   1.383   4.632
46255SOL    HW140662   3.288   1.402   4.726
46255SOL    HW240663   3.340   1.450   4.593
46256SOL     OW40664   0.063   4.475   5.336
46256SOL    HW140665   0.090   4.407   5.398
46256SOL    HW240666   0.145   4.510   5.302
46257SOL     OW40667   3.242   1.719   3.457
46257SOL    HW140668   3.318   1.770   3.486
46257SOL    HW240669   3.181   1.722   3.531
46258SOL     OW40670   3.275   8.581   6.085
46258SOL    HW140671   3.357   8.535   6.063
46258SOL    HW240672   3.254   8.550   6.174
46259SOL     OW40673   9.517   0.197   3.369
46259SOL    HW140674   9.609   0.222   3.368
46259SOL    HW240675   9.472   0.274   3.403
46260SOL     OW40676   8.822  13.663   1.726
46260SOL    HW140677   8.780  13.706   1.801
46260SOL    HW240678   8.821  13.729   1.657
46261SOL     OW40679  11.502   7.237   2.127
46261SOL    HW140680  11.529   7.145   2.128
46261SOL    HW240681  11.409   7.234   2.101
46262SOL     OW40682   0.764   7.092  10.473
46262SOL    HW140683   0.710   7.131  10.542
46262SOL    HW240684   0.735   7.137  10.393
46263SOL     OW40685   5.519   3.356   0.907
46263SOL    HW140686   5.531   3.261   0.914
46263SOL    HW240687   5.561   3.392   0.985
46264SOL     OW40688  12.706  13.561   8.120
46264SOL    HW140689  12.749  13.488   8.076
46264SOL    HW240690  12.775  13.600   8.174
46265SOL     OW40691  10.939   1.208  11.551
46265SOL    HW140692  10.967   1.122  11.583
46265SOL    HW240693  10.964   1.209  11.459
46266SOL     OW40694   8.810   0.406   5.156
46266SOL    HW140695   8.815   0.332   5.096
46266SOL    HW240696   8.822   0.483   5.101
46267SOL     OW40697   5.812  11.552   0.975
46267SOL    HW140698   5.827  11.458   0.973
46267SOL    HW240699   5.728  11.565   0.931
46268SOL     OW40700  11.626   5.783   3.444
46268SOL    HW140701  11.656   5.864   3.486
46268SOL    HW240702  11.541   5.766   3.484
46269SOL     OW40703   5.850   0.243   3.647
46269SOL    HW140704   5.923   0.283   3.598
46269SOL    HW240705   5.850   0.289   3.731
46270SOL     OW40706   6.673  10.707   1.242
46270SOL    HW140707   6.757  10.673   1.212
46270SOL    HW240708   6.673  10.799   1.213
46271SOL     OW40709   6.194   5.480  11.484
46271SOL    HW140710   6.133   5.469  11.411
46271SOL    HW240711   6.195   5.394  11.526
46272SOL     OW40712  14.021  11.339   5.800
46272SOL    HW140713  14.045  11.432   5.805
46272SOL    HW240714  14.071  11.297   5.869
46273SOL     OW40715   8.422  12.671  14.128
46273SOL    HW140716   8.330  12.697  14.117
46273SOL    HW240717   8.469  12.754  14.137
46274SOL     OW40718   6.511  13.270   0.395
46274SOL    HW140719   6.553  13.349   0.360
46274SOL    HW240720   6.507  13.210   0.321
46275SOL     OW40721   8.349  14.175   4.377
46275SOL    HW140722   8.334  14.098   4.321
46275SOL    HW240723   8.296  14.159   4.455
46276SOL     OW40724   6.970   7.388   7.808
46276SOL    HW140725   6.923   7.381   7.891
46276SOL    HW240726   6.948   7.308   7.761
46277SOL     OW40727   7.721  10.292  13.362
46277SOL    HW140728   7.805  10.288  13.407
46277SOL    HW240729   7.744  10.285  13.269
46278SOL     OW40730  14.348   4.872   4.454
46278SOL    HW140731  14.333   4.910   4.541
46278SOL    HW240732  14.401   4.795   4.470
46279SOL     OW40733  10.008   9.996   0.679
46279SOL    HW140734   9.990   9.918   0.731
46279SOL    HW240735  10.002   9.967   0.588
46280SOL     OW40736   4.747   0.880   3.077
46280SOL    HW140737   4.773   0.948   3.140
46280SOL    HW240738   4.797   0.901   2.998
46281SOL     OW40739   3.882  12.317   2.474
46281SOL    HW140740   3.859  12.409   2.487
46281SOL    HW240741   3.945  12.317   2.402
46282SOL     OW40742   9.812   9.544   0.526
46282SOL    HW140743   9.846   9.523   0.439
46282SOL    HW240744   9.883   9.519   0.586
46283SOL     OW40745   0.688  11.427  12.438
46283SOL    HW140746   0.637  11.507  12.444
46283SOL    HW240747   0.637  11.370  12.381
46284SOL     OW40748   8.511  10.073   6.989
46284SOL    HW140749   8.586  10.064   7.048
46284SOL    HW240750   8.487   9.983   6.967
46285SOL     OW40751   2.299   6.721   1.983
46285SOL    HW140752   2.391   6.705   2.005
46285SOL    HW240753   2.273   6.793   2.040
46286SOL     OW40754  12.805   3.174  10.981
46286SOL    HW140755  12.712   3.156  10.994
46286SOL    HW240756  12.845   3.088  10.968
46287SOL     OW40757   3.556   4.734  11.372
46287SOL    HW140758   3.499   4.658  11.367
46287SOL    HW240759   3.523   4.785  11.446
46288SOL     OW40760   3.235   8.606   3.256
46288SOL    HW140761   3.185   8.685   3.273
46288SOL    HW240762   3.200   8.541   3.317
46289SOL     OW40763  13.100   3.179  12.813
46289SOL    HW140764  13.159   3.218  12.748
46289SOL    HW240765  13.143   3.196  12.897
46290SOL     OW40766  10.521  10.919   9.511
46290SOL    HW140767  10.529  10.995   9.569
46290SOL    HW240768  10.486  10.956   9.430
46291SOL     OW40769   6.264  10.669   6.858
46291SOL    HW140770   6.255  10.701   6.947
46291SOL    HW240771   6.288  10.577   6.868
46292SOL     OW40772   6.026  13.173   7.450
46292SOL    HW140773   6.035  13.213   7.536
46292SOL    HW240774   5.936  13.195   7.423
46293SOL     OW40775   1.060   1.089   9.566
46293SOL    HW140776   1.046   1.144   9.643
46293SOL    HW240777   1.067   1.151   9.493
46294SOL     OW40778   9.948   5.661  11.733
46294SOL    HW140779  10.013   5.669  11.803
46294SOL    HW240780   9.963   5.737  11.677
46295SOL     OW40781   4.881   7.077   0.575
46295SOL    HW140782   4.840   6.992   0.567
46295SOL    HW240783   4.947   7.065   0.644
46296SOL     OW40784   1.794   2.631   0.673
46296SOL    HW140785   1.713   2.607   0.627
46296SOL    HW240786   1.784   2.592   0.760
46297SOL     OW40787   7.331   8.469   5.138
46297SOL    HW140788   7.376   8.550   5.112
46297SOL    HW240789   7.353   8.458   5.230
46298SOL     OW40790  12.843   6.519   6.418
46298SOL    HW140791  12.787   6.541   6.344
46298SOL    HW240792  12.912   6.464   6.380
46299SOL     OW40793  11.556   7.023   1.080
46299SOL    HW140794  11.476   6.971   1.087
46299SOL    HW240795  11.615   6.987   1.146
46300SOL     OW40796   1.372   4.592   7.988
46300SOL    HW140797   1.437   4.547   8.042
46300SOL    HW240798   1.422   4.622   7.912
46301SOL     OW40799   4.340   6.457   8.507
46301SOL    HW140800   4.293   6.421   8.431
46301SOL    HW240801   4.272   6.479   8.570
46302SOL     OW40802  10.465   1.030   8.387
46302SOL    HW140803  10.534   1.029   8.453
46302SOL    HW240804  10.494   1.095   8.323
46303SOL     OW40805   8.387   9.808   7.709
46303SOL    HW140806   8.327   9.820   7.783
46303SOL    HW240807   8.332   9.772   7.640
46304SOL     OW40808   3.009   7.831   0.172
46304SOL    HW140809   3.010   7.735   0.175
46304SOL    HW240810   3.100   7.856   0.184
46305SOL     OW40811  14.219  14.250   0.010
46305SOL    HW140812  14.243  14.158   0.006
46305SOL    HW240813  14.124  14.250  14.875
46306SOL     OW40814   4.841  11.818   9.665
46306SOL    HW140815   4.921  11.844   9.710
46306SOL    HW240816   4.819  11.893   9.609
46307SOL     OW40817  14.576  12.840   5.582
46307SOL    HW140818  14.516  12.773   5.613
46307SOL    HW240819  14.621  12.800   5.508
46308SOL     OW40820  13.925  11.160   1.033
46308SOL    HW140821  13.949  11.231   1.093
46308SOL    HW240822  13.979  11.086   1.060
46309SOL     OW40823   1.408   5.590   5.460
46309SOL    HW140824   1.498   5.623   5.458
46309SOL    HW240825   1.361   5.644   5.397
46310SOL     OW40826   8.812  13.170  14.288
46310SOL    HW140827   8.759  13.204  14.216
46310SOL    HW240828   8.758  13.100  14.326
46311SOL     OW40829  13.193  13.269   0.349
46311SOL    HW140830  13.248  13.298   0.276
46311SOL    HW240831  13.249  13.212   0.401
46312SOL     OW40832  11.276  11.555   9.930
46312SOL    HW140833  11.206  11.574   9.868
46312SOL    HW240834  11.282  11.460   9.931
46313SOL     OW40835  12.200  14.257  14.867
46313SOL    HW140836  12.283  14.302   0.009
46313SOL    HW240837  12.168  14.296  14.785
46314SOL     OW40838   3.164   2.318   3.011
46314SOL    HW140839   3.107   2.251   2.974
46314SOL    HW240840   3.243   2.270   3.038
46315SOL     OW40841  10.301  13.361  11.580
46315SOL    HW140842  10.248  13.288  11.612
46315SOL    HW240843  10.390  13.327  11.576
46316SOL     OW40844  14.153  10.869  14.390
46316SOL    HW140845  14.129  10.861  14.482
46316SOL    HW240846  14.078  10.835  14.342
46317SOL     OW40847  10.991   4.495  12.294
46317SOL    HW140848  10.945   4.416  12.322
46317SOL    HW240849  10.958   4.511  12.205
46318SOL     OW40850   2.572  11.804  14.059
46318SOL    HW140851   2.561  11.713  14.032
46318SOL    HW240852   2.503  11.818  14.124
46319SOL     OW40853   1.146   3.234   6.940
46319SOL    HW140854   1.166   3.155   6.890
46319SOL    HW240855   1.232   3.269   6.966
46320SOL     OW40856  12.273  10.123   2.722
46320SOL    HW140857  12.286  10.216   2.741
46320SOL    HW240858  12.357  10.082   2.743
46321SOL     OW40859   1.093   1.260   0.485
46321SOL    HW140860   1.059   1.175   0.512
46321SOL    HW240861   1.113   1.249   0.392
46322SOL     OW40862  13.824  12.151   7.048
46322SOL    HW140863  13.792  12.061   7.054
46322SOL    HW240864  13.836  12.166   6.954
46323SOL     OW40865   1.944   5.719   4.200
46323SOL    HW140866   1.873   5.672   4.243
46323SOL    HW240867   1.985   5.654   4.143
46324SOL     OW40868  10.886   9.271   2.810
46324SOL    HW140869  10.975   9.270   2.843
46324SOL    HW240870  10.869   9.180   2.784
46325SOL     OW40871  11.844   1.658   7.137
46325SOL    HW140872  11.780   1.720   7.102
46325SOL    HW240873  11.925   1.708   7.141
46326SOL     OW40874  10.732   0.296  11.179
46326SOL    HW140875  10.676   0.219  11.191
46326SOL    HW240876  10.785   0.300  11.258
46327SOL     OW40877   3.815   1.193   5.677
46327SOL    HW140878   3.840   1.284   5.666
46327SOL    HW240879   3.725   1.189   5.644
46328SOL     OW40880   8.062  14.077   0.237
46328SOL    HW140881   8.141  14.024   0.223
46328SOL    HW240882   8.054  14.129   0.157
46329SOL     OW40883  13.001  12.506  14.404
46329SOL    HW140884  13.018  12.517  14.497
46329SOL    HW240885  12.906  12.493  14.398
46330SOL     OW40886   0.039  14.361   2.654
46330SOL    HW140887  14.857  14.284   2.649
46330SOL    HW240888   0.028  14.404   2.569
46331SOL     OW40889   4.415  13.474   2.915
46331SOL    HW140890   4.369  13.438   2.839
46331SOL    HW240891   4.351  13.532   2.956
46332SOL     OW40892   0.130   9.355   3.261
46332SOL    HW140893   0.209   9.319   3.221
46332SOL    HW240894   0.078   9.386   3.187
46333SOL     OW40895   9.500   7.382   7.434
46333SOL    HW140896   9.502   7.382   7.530
46333SOL    HW240897   9.571   7.323   7.408
46334SOL     OW40898   6.095  12.732  14.521
46334SOL    HW140899   6.060  12.801  14.577
46334SOL    HW240900   6.159  12.775  14.466
46335SOL     OW40901   9.990  14.142   0.158
46335SOL    HW140902   9.953  14.057   0.182
46335SOL    HW240903  10.049  14.123   0.085
46336SOL     OW40904  11.285   8.876   5.668
46336SOL    HW140905  11.256   8.948   5.725
46336SOL    HW240906  11.206   8.826   5.650
46337SOL     OW40907   7.892  10.717   9.281
46337SOL    HW140908   7.948  10.646   9.251
46337SOL    HW240909   7.947  10.795   9.277
46338SOL     OW40910  11.146   3.833   2.196
46338SOL    HW140911  11.123   3.740   2.191
46338SOL    HW240912  11.091   3.875   2.130
46339SOL     OW40913   7.056  11.880  13.350
46339SOL    HW140914   7.144  11.867  13.384
46339SOL    HW240915   6.999  11.837  13.414
46340SOL     OW40916   9.551   9.852   6.281
46340SOL    HW140917   9.518   9.921   6.224
46340SOL    HW240918   9.627   9.891   6.324
46341SOL     OW40919  12.989   9.867   0.644
46341SOL    HW140920  12.942   9.867   0.561
46341SOL    HW240921  12.931   9.820   0.704
46342SOL     OW40922   5.753  10.844  10.133
46342SOL    HW140923   5.672  10.796  10.117
46342SOL    HW240924   5.806  10.784  10.186
46343SOL     OW40925   2.754  13.945   9.505
46343SOL    HW140926   2.715  13.888   9.572
46343SOL    HW240927   2.722  14.033   9.528
46344SOL     OW40928   4.482  14.769   5.607
46344SOL    HW140929   4.575  14.746   5.596
46344SOL    HW240930   4.434  14.700   5.562
46345SOL     OW40931   8.919   2.503  11.864
46345SOL    HW140932   8.854   2.441  11.898
46345SOL    HW240933   8.968   2.453  11.798
46346SOL     OW40934   7.565   0.468  14.829
46346SOL    HW140935   7.639   0.415  14.798
46346SOL    HW240936   7.503   0.404  14.865
46347SOL     OW40937   1.010  13.483   6.698
46347SOL    HW140938   0.996  13.528   6.782
46347SOL    HW240939   0.927  13.494   6.651
46348SOL     OW40940   2.704  13.977   8.975
46348SOL    HW140941   2.622  13.967   8.928
46348SOL    HW240942   2.679  13.975   9.067
46349SOL     OW40943   6.519   1.029   4.093
46349SOL    HW140944   6.429   1.026   4.125
46349SOL    HW240945   6.563   0.956   4.137
46350SOL     OW40946   9.648   5.107   6.099
46350SOL    HW140947   9.601   5.026   6.082
46350SOL    HW240948   9.680   5.134   6.013
46351SOL     OW40949   4.715   1.689   2.013
46351SOL    HW140950   4.791   1.650   2.057
46351SOL    HW240951   4.752   1.753   1.953
46352SOL     OW40952  10.602   1.717   1.502
46352SOL    HW140953  10.556   1.782   1.449
46352SOL    HW240954  10.532   1.671   1.549
46353SOL     OW40955  10.791  13.404  11.761
46353SOL    HW140956  10.705  13.371  11.736
46353SOL    HW240957  10.853  13.340  11.725
46354SOL     OW40958   3.868   9.598  14.089
46354SOL    HW140959   3.937   9.661  14.067
46354SOL    HW240960   3.789   9.634  14.048
46355SOL     OW40961  13.034  12.352  11.408
46355SOL    HW140962  12.944  12.350  11.378
46355SOL    HW240963  13.071  12.431  11.369
46356SOL     OW40964   2.262  12.851   6.439
46356SOL    HW140965   2.288  12.824   6.527
46356SOL    HW240966   2.206  12.928   6.454
46357SOL     OW40967   7.485   8.111   8.252
46357SOL    HW140968   7.481   8.179   8.319
46357SOL    HW240969   7.575   8.079   8.257
46358SOL     OW40970   6.205  10.012   3.498
46358SOL    HW140971   6.200  10.036   3.591
46358SOL    HW240972   6.236  10.091   3.455
46359SOL     OW40973  11.599   5.566  10.170
46359SOL    HW140974  11.683   5.523  10.186
46359SOL    HW240975  11.564   5.522  10.092
46360SOL     OW40976   0.342   5.432   2.062
46360SOL    HW140977   0.431   5.459   2.041
46360SOL    HW240978   0.320   5.479   2.142
46361SOL     OW40979   2.816   8.347   5.773
46361SOL    HW140980   2.811   8.339   5.678
46361SOL    HW240981   2.764   8.425   5.794
46362SOL     OW40982  10.403   4.869  10.898
46362SOL    HW140983  10.324   4.904  10.856
46362SOL    HW240984  10.463   4.943  10.902
46363SOL     OW40985  12.784   6.411  12.890
46363SOL    HW140986  12.761   6.487  12.944
46363SOL    HW240987  12.735   6.339  12.929
46364SOL     OW40988   7.755  10.653   0.803
46364SOL    HW140989   7.827  10.592   0.820
46364SOL    HW240990   7.757  10.714   0.877
46365SOL     OW40991   7.445   4.344   6.129
46365SOL    HW140992   7.360   4.359   6.170
46365SOL    HW240993   7.484   4.274   6.180
46366SOL     OW40994   8.315   0.508   6.864
46366SOL    HW140995   8.377   0.435   6.857
46366SOL    HW240996   8.312   0.546   6.776
46367SOL     OW40997   7.049  14.346  12.291
46367SOL    HW140998   7.084  14.318  12.206
46367SOL    HW240999   7.123  14.340  12.350
46368SOL     OW41000   2.914   4.252   4.772
46368SOL    HW141001   2.866   4.274   4.852
46368SOL    HW241002   2.923   4.157   4.776
46369SOL     OW41003   5.293   6.198   2.094
46369SOL    HW141004   5.233   6.215   2.021
46369SOL    HW241005   5.278   6.106   2.116
46370SOL     OW41006  10.403   2.206  11.064
46370SOL    HW141007  10.434   2.200  10.974
46370SOL    HW241008  10.409   2.117  11.098
46371SOL     OW41009   7.942  11.872  11.373
46371SOL    HW141010   7.922  11.830  11.289
46371SOL    HW241011   7.857  11.889  11.412
46372SOL     OW41012   0.650  14.665  13.374
46372SOL    HW141013   0.679  14.746  13.417
46372SOL    HW241014   0.586  14.627  13.435
46373SOL     OW41015   4.141   5.515   4.812
46373SOL    HW141016   4.177   5.538   4.898
46373SOL    HW241017   4.208   5.546   4.749
46374SOL     OW41018   0.264   7.782   8.370
46374SOL    HW141019   0.182   7.765   8.325
46374SOL    HW241020   0.288   7.698   8.410
46375SOL     OW41021   1.179   7.465   2.467
46375SOL    HW141022   1.214   7.446   2.554
46375SOL    HW241023   1.248   7.517   2.425
46376SOL     OW41024  13.207   3.972  13.374
46376SOL    HW141025  13.128   4.025  13.386
46376SOL    HW241026  13.192   3.926  13.291
46377SOL     OW41027   4.323  11.083  10.592
46377SOL    HW141028   4.272  11.005  10.572
46377SOL    HW241029   4.258  11.151  10.610
46378SOL     OW41030   5.226   5.082   1.214
46378SOL    HW141031   5.153   5.020   1.204
46378SOL    HW241032   5.304   5.027   1.206
46379SOL     OW41033  13.903  13.438   4.221
46379SOL    HW141034  13.947  13.357   4.196
46379SOL    HW241035  13.972  13.505   4.217
46380SOL     OW41036   7.212   6.917   4.627
46380SOL    HW141037   7.287   6.944   4.574
46380SOL    HW241038   7.237   6.832   4.662
46381SOL     OW41039   4.529   0.553   8.250
46381SOL    HW141040   4.606   0.497   8.252
46381SOL    HW241041   4.564   0.642   8.249
46382SOL     OW41042   4.404   7.738   0.019
46382SOL    HW141043   4.471   7.671   0.035
46382SOL    HW241044   4.326   7.689  14.869
46383SOL     OW41045  13.864  14.213   6.522
46383SOL    HW141046  13.792  14.157   6.493
46383SOL    HW241047  13.844  14.299   6.485
46384SOL     OW41048   3.418  12.068  11.021
46384SOL    HW141049   3.422  12.041  11.113
46384SOL    HW241050   3.500  12.036  10.983
46385SOL     OW41051   9.473   0.203   0.011
46385SOL    HW141052   9.494   0.137   0.077
46385SOL    HW241053   9.525   0.280   0.036
46386SOL     OW41054   0.843   0.852   4.109
46386SOL    HW141055   0.788   0.864   4.186
46386SOL    HW241056   0.831   0.760   4.084
46387SOL     OW41057   0.105  11.142  13.550
46387SOL    HW141058   0.167  11.154  13.622
46387SOL    HW241059   0.105  11.047  13.534
46388SOL     OW41060   3.428   8.320  10.955
46388SOL    HW141061   3.502   8.367  10.914
46388SOL    HW241062   3.390   8.268  10.884
46389SOL     OW41063   2.351   9.555   3.692
46389SOL    HW141064   2.360   9.544   3.597
46389SOL    HW241065   2.268   9.514   3.714
46390SOL     OW41066   0.162   3.698  12.391
46390SOL    HW141067   0.090   3.748  12.351
46390SOL    HW241068   0.196   3.644  12.319
46391SOL     OW41069   4.075   3.599   3.224
46391SOL    HW141070   4.123   3.671   3.264
46391SOL    HW241071   3.990   3.598   3.267
46392SOL     OW41072  12.351   5.224  10.928
46392SOL    HW141073  12.359   5.302  10.873
46392SOL    HW241074  12.391   5.249  11.011
46393SOL     OW41075   2.800  14.812   7.621
46393SOL    HW141076   2.708  14.788   7.620
46393SOL    HW241077   2.844  14.741   7.574
46394SOL     OW41078   0.872   9.891   6.642
46394SOL    HW141079   0.916   9.843   6.713
46394SOL    HW241080   0.943   9.917   6.583
46395SOL     OW41081  14.256   7.362   8.347
46395SOL    HW141082  14.285   7.406   8.267
46395SOL    HW241083  14.208   7.428   8.396
46396SOL     OW41084   9.482  14.373   3.114
46396SOL    HW141085   9.524  14.351   3.197
46396SOL    HW241086   9.504  14.465   3.100
46397SOL     OW41087  11.012   5.326   7.678
46397SOL    HW141088  10.974   5.245   7.712
46397SOL    HW241089  11.013   5.314   7.583
46398SOL     OW41090  12.611   5.017   4.508
46398SOL    HW141091  12.667   5.053   4.438
46398SOL    HW241092  12.673   4.992   4.577
46399SOL     OW41093   3.170   3.710   7.586
46399SOL    HW141094   3.127   3.790   7.556
46399SOL    HW241095   3.098   3.649   7.605
46400SOL     OW41096   4.398   5.829   9.044
46400SOL    HW141097   4.393   5.806   8.951
46400SOL    HW241098   4.397   5.925   9.045
46401SOL     OW41099   6.934   1.440  10.793
46401SOL    HW141100   6.876   1.495  10.740
46401SOL    HW241101   6.875   1.381  10.838
46402SOL     OW41102   8.408   8.198   5.694
46402SOL    HW141103   8.414   8.114   5.648
46402SOL    HW241104   8.410   8.175   5.787
46403SOL     OW41105  13.380   3.515   9.479
46403SOL    HW141106  13.389   3.604   9.445
46403SOL    HW241107  13.348   3.463   9.405
46404SOL     OW41108  11.589   1.880  13.109
46404SOL    HW141109  11.578   1.892  13.203
46404SOL    HW241110  11.500   1.879  13.074
46405SOL     OW41111   4.587   2.446   7.025
46405SOL    HW141112   4.552   2.533   7.045
46405SOL    HW241113   4.541   2.387   7.086
46406SOL     OW41114   3.399   1.122  12.364
46406SOL    HW141115   3.380   1.177  12.440
46406SOL    HW241116   3.479   1.076  12.387
46407SOL     OW41117   9.487   7.092  10.724
46407SOL    HW141118   9.532   7.049  10.797
46407SOL    HW241119   9.521   7.048  10.646
46408SOL     OW41120   4.499   0.803   7.059
46408SOL    HW141121   4.585   0.839   7.038
46408SOL    HW241122   4.496   0.799   7.154
46409SOL     OW41123   5.580   0.881   8.739
46409SOL    HW141124   5.580   0.788   8.717
46409SOL    HW241125   5.526   0.887   8.818
46410SOL     OW41126   7.020   6.345  11.260
46410SOL    HW141127   6.958   6.416  11.275
46410SOL    HW241128   7.068   6.372  11.182
46411SOL     OW41129   4.627  11.820  10.199
46411SOL    HW141130   4.709  11.869  10.191
46411SOL    HW241131   4.649  11.731  10.172
46412SOL     OW41132  11.404   5.979   0.656
46412SOL    HW141133  11.378   5.900   0.608
46412SOL    HW241134  11.356   5.974   0.739
46413SOL     OW41135   7.596  11.429  14.449
46413SOL    HW141136   7.556  11.372  14.515
46413SOL    HW241137   7.664  11.478  14.496
46414SOL     OW41138   3.941   6.390   0.333
46414SOL    HW141139   3.911   6.300   0.321
46414SOL    HW241140   3.894   6.440   0.267
46415SOL     OW41141   8.693   7.162   7.596
46415SOL    HW141142   8.642   7.208   7.529
46415SOL    HW241143   8.635   7.159   7.672
46416SOL     OW41144   7.517   1.239   4.748
46416SOL    HW141145   7.554   1.288   4.675
46416SOL    HW241146   7.524   1.298   4.823
46417SOL     OW41147   0.950   3.618   8.769
46417SOL    HW141148   0.953   3.525   8.748
46417SOL    HW241149   0.883   3.625   8.837
46418SOL     OW41150   3.567   0.302  14.319
46418SOL    HW141151   3.506   0.347  14.260
46418SOL    HW241152   3.628   0.370  14.346
46419SOL     OW41153   7.512   8.696  10.506
46419SOL    HW141154   7.479   8.688  10.417
46419SOL    HW241155   7.551   8.784  10.509
46420SOL     OW41156  14.503  12.678  11.353
46420SOL    HW141157  14.518  12.657  11.261
46420SOL    HW241158  14.484  12.594  11.394
46421SOL     OW41159  10.575   5.117  11.781
46421SOL    HW141160  10.513   5.132  11.710
46421SOL    HW241161  10.562   5.025  11.805
46422SOL     OW41162   4.038  12.562   2.664
46422SOL    HW141163   4.106  12.622   2.695
46422SOL    HW241164   4.067  12.536   2.577
46423SOL     OW41165   2.577   7.256   4.808
46423SOL    HW141166   2.641   7.201   4.764
46423SOL    HW241167   2.510   7.274   4.741
46424SOL     OW41168   0.733  13.796   1.299
46424SOL    HW141169   0.782  13.714   1.296
46424SOL    HW241170   0.800  13.864   1.297
46425SOL     OW41171  10.199   7.015   8.483
46425SOL    HW141172  10.230   6.938   8.530
46425SOL    HW241173  10.261   7.025   8.411
46426SOL     OW41174   9.509   4.520  13.765
46426SOL    HW141175   9.438   4.460  13.746
46426SOL    HW241176   9.469   4.590  13.817
46427SOL     OW41177   1.412   0.829  13.872
46427SOL    HW141178   1.487   0.843  13.929
46427SOL    HW241179   1.410   0.735  13.856
46428SOL     OW41180   1.595   1.160   5.687
46428SOL    HW141181   1.504   1.166   5.658
46428SOL    HW241182   1.597   1.083   5.745
46429SOL     OW41183  11.141  11.547  14.798
46429SOL    HW141184  11.054  11.511  14.783
46429SOL    HW241185  11.194  11.512  14.727
46430SOL     OW41186   2.661  14.490   2.075
46430SOL    HW141187   2.731  14.547   2.104
46430SOL    HW241188   2.642  14.519   1.986
46431SOL     OW41189   3.629   6.464   8.421
46431SOL    HW141190   3.552   6.459   8.478
46431SOL    HW241191   3.613   6.400   8.353
46432SOL     OW41192  10.584  10.639   7.973
46432SOL    HW141193  10.599  10.707   8.039
46432SOL    HW241194  10.512  10.586   8.008
46433SOL     OW41195   0.279   1.325   2.611
46433SOL    HW141196   0.348   1.300   2.674
46433SOL    HW241197   0.283   1.421   2.609
46434SOL     OW41198   7.356  12.180   6.541
46434SOL    HW141199   7.341  12.157   6.632
46434SOL    HW241200   7.303  12.259   6.527
46435SOL     OW41201   2.110   7.810   7.699
46435SOL    HW141202   2.140   7.862   7.773
46435SOL    HW241203   2.019   7.838   7.686
46436SOL     OW41204   8.529   9.191   7.783
46436SOL    HW141205   8.459   9.134   7.754
46436SOL    HW241206   8.609   9.149   7.752
46437SOL     OW41207   5.015  11.745   3.221
46437SOL    HW141208   4.964  11.826   3.230
46437SOL    HW241209   5.095  11.771   3.175
46438SOL     OW41210  12.547   3.642   9.186
46438SOL    HW141211  12.595   3.573   9.231
46438SOL    HW241212  12.460   3.605   9.172
46439SOL     OW41213   2.458   6.343   1.527
46439SOL    HW141214   2.429   6.424   1.567
46439SOL    HW241215   2.542   6.325   1.569
46440SOL     OW41216  10.149  14.583  11.493
46440SOL    HW141217  10.131  14.676  11.478
46440SOL    HW241218  10.130  14.569  11.586
46441SOL     OW41219   8.643   8.212  10.883
46441SOL    HW141220   8.621   8.187  10.972
46441SOL    HW241221   8.645   8.130  10.834
46442SOL     OW41222  10.108  11.750  13.760
46442SOL    HW141223  10.123  11.825  13.702
46442SOL    HW241224  10.014  11.738  13.759
46443SOL     OW41225   6.086   7.285   2.934
46443SOL    HW141226   6.102   7.212   2.993
46443SOL    HW241227   6.058   7.244   2.852
46444SOL     OW41228  14.083   9.285  10.259
46444SOL    HW141229  14.111   9.377  10.257
46444SOL    HW241230  14.165   9.236  10.263
46445SOL     OW41231   7.327   0.962  12.826
46445SOL    HW141232   7.312   0.900  12.898
46445SOL    HW241233   7.288   1.044  12.856
46446SOL     OW41234   6.484   5.876  12.714
46446SOL    HW141235   6.428   5.929  12.771
46446SOL    HW241236   6.571   5.913  12.724
46447SOL     OW41237  10.497  12.244   0.663
46447SOL    HW141238  10.472  12.177   0.599
46447SOL    HW241239  10.466  12.210   0.747
46448SOL     OW41240  14.148   8.387   9.515
46448SOL    HW141241  14.153   8.292   9.502
46448SOL    HW241242  14.172   8.400   9.607
46449SOL     OW41243   4.147   0.162  13.707
46449SOL    HW141244   4.093   0.129  13.779
46449SOL    HW241245   4.198   0.233  13.745
46450SOL     OW41246   5.168   7.348   4.169
46450SOL    HW141247   5.234   7.374   4.233
46450SOL    HW241248   5.194   7.260   4.143
46451SOL     OW41249  12.569  13.495   3.138
46451SOL    HW141250  12.483  13.525   3.111
46451SOL    HW241251  12.553  13.415   3.188
46452SOL     OW41252  10.858   9.473   1.259
46452SOL    HW141253  10.810   9.550   1.289
46452SOL    HW241254  10.850   9.410   1.330
46453SOL     OW41255   1.193   6.634  13.946
46453SOL    HW141256   1.233   6.686  14.016
46453SOL    HW241257   1.258   6.636  13.875
46454SOL     OW41258   4.730   1.684   0.403
46454SOL    HW141259   4.675   1.737   0.345
46454SOL    HW241260   4.694   1.699   0.490
46455SOL     OW41261  11.558  13.484   2.367
46455SOL    HW141262  11.556  13.554   2.302
46455SOL    HW241263  11.467  13.456   2.375
46456SOL     OW41264   2.673  10.891   2.809
46456SOL    HW141265   2.598  10.921   2.759
46456SOL    HW241266   2.640  10.817   2.860
46457SOL     OW41267  12.203   4.560   5.439
46457SOL    HW141268  12.295   4.532   5.431
46457SOL    HW241269  12.167   4.505   5.508
46458SOL     OW41270   4.329  13.374   4.966
46458SOL    HW141271   4.310  13.297   4.913
46458SOL    HW241272   4.310  13.347   5.056
46459SOL     OW41273  11.933   2.044  14.047
46459SOL    HW141274  11.972   2.035  14.134
46459SOL    HW241275  11.970   1.971  13.997
46460SOL     OW41276   6.345  13.094  13.608
46460SOL    HW141277   6.393  13.126  13.685
46460SOL    HW241278   6.370  13.002  13.601
46461SOL     OW41279   0.678   7.364   7.853
46461SOL    HW141280   0.765   7.327   7.864
46461SOL    HW241281   0.636   7.353   7.938
46462SOL     OW41282   0.387  12.140   5.714
46462SOL    HW141283   0.307  12.092   5.737
46462SOL    HW241284   0.401  12.199   5.788
46463SOL     OW41285   6.483   4.716   6.686
46463SOL    HW141286   6.571   4.680   6.682
46463SOL    HW241287   6.465   4.727   6.779
46464SOL     OW41288   2.801   0.859  13.096
46464SOL    HW141289   2.769   0.943  13.065
46464SOL    HW241290   2.841   0.818  13.019
46465SOL     OW41291   2.349   1.545   3.792
46465SOL    HW141292   2.338   1.452   3.811
46465SOL    HW241293   2.425   1.549   3.735
46466SOL     OW41294  12.313   2.729  11.064
46466SOL    HW141295  12.288   2.642  11.034
46466SOL    HW241296  12.303   2.785  10.987
46467SOL     OW41297   8.367  11.354  12.895
46467SOL    HW141298   8.285  11.402  12.907
46467SOL    HW241299   8.436  11.419  12.912
46468SOL     OW41300   4.711   4.479   6.680
46468SOL    HW141301   4.636   4.479   6.740
46468SOL    HW241302   4.673   4.458   6.594
46469SOL     OW41303   5.865   2.415  13.172
46469SOL    HW141304   5.915   2.470  13.233
46469SOL    HW241305   5.925   2.344  13.150
46470SOL     OW41306   8.921   1.606   2.138
46470SOL    HW141307   8.931   1.567   2.051
46470SOL    HW241308   8.944   1.698   2.125
46471SOL     OW41309   9.468   3.359   5.533
46471SOL    HW141310   9.419   3.425   5.583
46471SOL    HW241311   9.401   3.311   5.485
46472SOL     OW41312   6.932   5.636  13.522
46472SOL    HW141313   6.960   5.550  13.553
46472SOL    HW241314   7.005   5.694  13.541
46473SOL     OW41315   0.861   9.874   2.609
46473SOL    HW141316   0.840   9.824   2.687
46473SOL    HW241317   0.842   9.965   2.633
46474SOL     OW41318   8.704  10.365   6.125
46474SOL    HW141319   8.618  10.380   6.085
46474SOL    HW241320   8.722  10.445   6.175
46475SOL     OW41321   6.677   1.789   3.399
46475SOL    HW141322   6.608   1.855   3.395
46475SOL    HW241323   6.737   1.821   3.466
46476SOL     OW41324   5.372  10.333   3.233
46476SOL    HW141325   5.365  10.254   3.181
46476SOL    HW241326   5.445  10.382   3.194
46477SOL     OW41327   0.963   9.118   3.813
46477SOL    HW141328   0.894   9.173   3.849
46477SOL    HW241329   1.044   9.152   3.851
46478SOL     OW41330   1.496   8.308   7.758
46478SOL    HW141331   1.411   8.326   7.719
46478SOL    HW241332   1.504   8.212   7.755
46479SOL     OW41333   9.836   0.240  14.000
46479SOL    HW141334   9.742   0.224  14.003
46479SOL    HW241335   9.852   0.264  13.908
46480SOL     OW41336   9.838  12.084   0.346
46480SOL    HW141337   9.863  12.027   0.419
46480SOL    HW241338   9.825  12.170   0.385
46481SOL     OW41339  12.495   6.051   3.191
46481SOL    HW141340  12.484   6.002   3.110
46481SOL    HW241341  12.579   6.095   3.181
46482SOL     OW41342   1.956   6.898   6.002
46482SOL    HW141343   1.924   6.943   5.924
46482SOL    HW241344   1.997   6.967   6.054
46483SOL     OW41345   9.551   4.758  13.080
46483SOL    HW141346   9.646   4.747  13.081
46483SOL    HW241347   9.535   4.836  13.134
46484SOL     OW41348   6.767   3.353   4.311
46484SOL    HW141349   6.673   3.358   4.328
46484SOL    HW241350   6.802   3.436   4.344
46485SOL     OW41351   4.471   2.592  14.502
46485SOL    HW141352   4.484   2.509  14.457
46485SOL    HW241353   4.418   2.644  14.442
46486SOL     OW41354   8.742   4.829  12.195
46486SOL    HW141355   8.708   4.919  12.200
46486SOL    HW241356   8.790   4.827  12.112
46487SOL     OW41357   9.586  11.716   2.757
46487SOL    HW141358   9.496  11.744   2.745
46487SOL    HW241359   9.595  11.704   2.852
46488SOL     OW41360   8.921   9.934   8.135
46488SOL    HW141361   9.001   9.889   8.163
46488SOL    HW241362   8.942   9.969   8.048
46489SOL     OW41363  12.524   3.733   6.199
46489SOL    HW141364  12.557   3.765   6.284
46489SOL    HW241365  12.554   3.799   6.136
46490SOL     OW41366   8.767   1.357   5.133
46490SOL    HW141367   8.767   1.335   5.040
46490SOL    HW241368   8.833   1.300   5.172
46491SOL     OW41369   0.716   9.986   9.926
46491SOL    HW141370   0.772   9.978  10.003
46491SOL    HW241371   0.680  10.074   9.931
46492SOL     OW41372   3.968   6.024   2.272
46492SOL    HW141373   4.058   5.992   2.277
46492SOL    HW241374   3.926   5.988   2.350
46493SOL     OW41375   1.222   4.252   7.661
46493SOL    HW141376   1.234   4.337   7.617
46493SOL    HW241377   1.136   4.222   7.632
46494SOL     OW41378  11.037   8.251   5.067
46494SOL    HW141379  11.010   8.162   5.046
46494SOL    HW241380  11.053   8.250   5.162
46495SOL     OW41381   3.240   2.071   3.966
46495SOL    HW141382   3.202   2.125   4.035
46495SOL    HW241383   3.334   2.085   3.974
46496SOL     OW41384   5.115  12.578   9.887
46496SOL    HW141385   5.137  12.601   9.977
46496SOL    HW241386   5.173  12.505   9.866
46497SOL     OW41387   9.676   6.234   9.014
46497SOL    HW141388   9.619   6.179   8.960
46497SOL    HW241389   9.699   6.177   9.088
46498SOL     OW41390   3.896   0.916   9.916
46498SOL    HW141391   3.964   0.982   9.928
46498SOL    HW241392   3.894   0.868   9.999
46499SOL     OW41393   4.539   1.183   0.348
46499SOL    HW141394   4.536   1.169   0.442
46499SOL    HW241395   4.449   1.203   0.324
46500SOL     OW41396   8.123  11.129  14.605
46500SOL    HW141397   8.114  11.216  14.567
46500SOL    HW241398   8.078  11.071  14.543
46501SOL     OW41399   5.454   2.283   1.089
46501SOL    HW141400   5.446   2.345   1.162
46501SOL    HW241401   5.491   2.335   1.017
46502SOL     OW41402   9.620   7.156   2.642
46502SOL    HW141403   9.572   7.238   2.652
46502SOL    HW241404   9.658   7.139   2.728
46503SOL     OW41405   0.512   9.494  11.083
46503SOL    HW141406   0.443   9.478  11.147
46503SOL    HW241407   0.467   9.495  10.998
46504SOL     OW41408  13.077   7.669   0.484
46504SOL    HW141409  13.167   7.692   0.465
46504SOL    HW241410  13.027   7.699   0.408
46505SOL     OW41411   6.333   2.080  14.104
46505SOL    HW141412   6.347   2.030  14.023
46505SOL    HW241413   6.410   2.136  14.111
46506SOL     OW41414   6.560   6.863  10.274
46506SOL    HW141415   6.486   6.893  10.328
46506SOL    HW241416   6.636   6.908  10.311
46507SOL     OW41417  13.979   5.767  12.324
46507SOL    HW141418  13.905   5.790  12.379
46507SOL    HW241419  13.948   5.782  12.234
46508SOL     OW41420   7.305   9.948   3.992
46508SOL    HW141421   7.255   9.961   3.911
46508SOL    HW241422   7.338  10.035   4.015
46509SOL     OW41423   8.316   5.410   3.226
46509SOL    HW141424   8.354   5.491   3.192
46509SOL    HW241425   8.291   5.360   3.148
46510SOL     OW41426  14.774   2.959   4.083
46510SOL    HW141427  14.709   2.931   4.147
46510SOL    HW241428  14.729   3.025   4.031
46511SOL     OW41429  10.081   6.854   2.574
46511SOL    HW141430  10.115   6.886   2.491
46511SOL    HW241431  10.069   6.933   2.627
46512SOL     OW41432   3.152  13.881   4.193
46512SOL    HW141433   3.131  13.877   4.287
46512SOL    HW241434   3.102  13.809   4.155
46513SOL     OW41435  11.740  14.571   7.129
46513SOL    HW141436  11.721  14.650   7.080
46513SOL    HW241437  11.799  14.599   7.200
46514SOL     OW41438   4.135  12.246  14.213
46514SOL    HW141439   4.097  12.313  14.156
46514SOL    HW241440   4.229  12.248  14.192
46515SOL     OW41441   0.277   6.889  11.770
46515SOL    HW141442   0.212   6.856  11.709
46515SOL    HW241443   0.287   6.818  11.834
46516SOL     OW41444   1.183   2.488  12.796
46516SOL    HW141445   1.160   2.397  12.779
46516SOL    HW241446   1.261   2.484  12.850
46517SOL     OW41447  10.633   3.415   0.470
46517SOL    HW141448  10.722   3.452   0.474
46517SOL    HW241449  10.633   3.362   0.390
46518SOL     OW41450   9.557   9.278   3.388
46518SOL    HW141451   9.628   9.218   3.367
46518SOL    HW241452   9.481   9.222   3.404
46519SOL     OW41453  11.787   7.494  12.934
46519SOL    HW141454  11.807   7.427  12.870
46519SOL    HW241455  11.776   7.447  13.016
46520SOL     OW41456   2.855   4.824   6.912
46520SOL    HW141457   2.796   4.855   6.980
46520SOL    HW241458   2.942   4.847   6.943
46521SOL     OW41459  13.285  12.608   6.340
46521SOL    HW141460  13.276  12.590   6.434
46521SOL    HW241461  13.355  12.674   6.335
46522SOL     OW41462   6.711   9.379  11.503
46522SOL    HW141463   6.710   9.340  11.415
46522SOL    HW241464   6.688   9.308  11.562
46523SOL     OW41465  12.658   7.385  11.524
46523SOL    HW141466  12.609   7.429  11.594
46523SOL    HW241467  12.647   7.291  11.543
46524SOL     OW41468   7.074   4.000   8.675
46524SOL    HW141469   7.079   3.942   8.599
46524SOL    HW241470   7.093   3.944   8.750
46525SOL     OW41471   8.083  12.980   1.492
46525SOL    HW141472   8.138  12.935   1.556
46525SOL    HW241473   8.072  12.916   1.421
46526SOL     OW41474  13.748   1.048  12.971
46526SOL    HW141475  13.694   1.101  13.031
46526SOL    HW241476  13.754   1.102  12.892
46527SOL     OW41477   8.581  11.947   5.712
46527SOL    HW141478   8.669  11.910   5.718
46527SOL    HW241479   8.541  11.926   5.796
46528SOL     OW41480   6.204  10.513   3.719
46528SOL    HW141481   6.178  10.542   3.806
46528SOL    HW241482   6.137  10.549   3.661
46529SOL     OW41483   7.144   5.296   7.854
46529SOL    HW141484   7.119   5.329   7.941
46529SOL    HW241485   7.228   5.254   7.868
46530SOL     OW41486  10.366   0.077   4.336
46530SOL    HW141487  10.356   0.156   4.282
46530SOL    HW241488  10.282   0.033   4.329
46531SOL     OW41489   7.901   0.642   4.515
46531SOL    HW141490   7.911   0.737   4.508
46531SOL    HW241491   7.976   0.614   4.567
46532SOL     OW41492   5.569   5.674   1.689
46532SOL    HW141493   5.482   5.715   1.691
46532SOL    HW241494   5.624   5.736   1.641
46533SOL     OW41495  12.534   5.515   2.139
46533SOL    HW141496  12.445   5.544   2.120
46533SOL    HW241497  12.585   5.596   2.143
46534SOL     OW41498   5.295  10.942   9.008
46534SOL    HW141499   5.352  10.869   8.983
46534SOL    HW241500   5.248  10.911   9.086
46535SOL     OW41501   4.707   0.954   7.871
46535SOL    HW141502   4.778   0.984   7.815
46535SOL    HW241503   4.740   0.965   7.960
46536SOL     OW41504   2.720   7.397   8.161
46536SOL    HW141505   2.654   7.367   8.099
46536SOL    HW241506   2.776   7.320   8.175
46537SOL     OW41507  10.243  12.482  12.996
46537SOL    HW141508  10.211  12.571  13.011
46537SOL    HW241509  10.322  12.494  12.943
46538SOL     OW41510  12.496  13.412   7.939
46538SOL    HW141511  12.555  13.435   8.010
46538SOL    HW241512  12.506  13.318   7.928
46539SOL     OW41513   2.599   9.375   5.278
46539SOL    HW141514   2.611   9.458   5.323
46539SOL    HW241515   2.520   9.386   5.226
46540SOL     OW41516  12.662   8.862   5.300
46540SOL    HW141517  12.635   8.868   5.209
46540SOL    HW241518  12.753   8.831   5.296
46541SOL     OW41519   4.145  13.269  12.752
46541SOL    HW141520   4.210  13.237  12.689
46541SOL    HW241521   4.104  13.190  12.787
46542SOL     OW41522   8.266   6.410   6.477
46542SOL    HW141523   8.306   6.479   6.529
46542SOL    HW241524   8.288   6.329   6.523
46543SOL     OW41525   7.832  11.291  14.382
46543SOL    HW141526   7.840  11.251  14.469
46543SOL    HW241527   7.739  11.311  14.373
46544SOL     OW41528   5.558   7.291   9.908
46544SOL    HW141529   5.592   7.288   9.998
46544SOL    HW241530   5.463   7.288   9.919
46545SOL     OW41531  14.101   7.441  12.084
46545SOL    HW141532  14.133   7.352  12.101
46545SOL    HW241533  14.117   7.454  11.990
46546SOL     OW41534   0.621   6.213  10.880
46546SOL    HW141535   0.623   6.119  10.862
46546SOL    HW241536   0.687   6.226  10.949
46547SOL     OW41537   9.807   3.050   7.788
46547SOL    HW141538   9.789   3.133   7.832
46547SOL    HW241539   9.724   3.003   7.789
46548SOL     OW41540   3.757   1.713  12.458
46548SOL    HW141541   3.797   1.648  12.401
46548SOL    HW241542   3.760   1.674  12.545
46549SOL     OW41543  11.180   9.187   1.818
46549SOL    HW141544  11.114   9.138   1.867
46549SOL    HW241545  11.168   9.278   1.844
46550SOL     OW41546   8.897   6.243   8.704
46550SOL    HW141547   8.967   6.232   8.769
46550SOL    HW241548   8.861   6.155   8.693
46551SOL     OW41549  12.518  13.263   1.412
46551SOL    HW141550  12.567  13.181   1.416
46551SOL    HW241551  12.453  13.254   1.482
46552SOL     OW41552  14.385  13.260   9.265
46552SOL    HW141553  14.443  13.331   9.238
46552SOL    HW241554  14.301  13.280   9.224
46553SOL     OW41555   4.597   6.370   7.845
46553SOL    HW141556   4.665   6.346   7.908
46553SOL    HW241557   4.519   6.323   7.876
46554SOL     OW41558   7.601   9.868   7.601
46554SOL    HW141559   7.622   9.889   7.510
46554SOL    HW241560   7.529   9.928   7.624
46555SOL     OW41561  10.794   1.479  10.880
46555SOL    HW141562  10.881   1.517  10.889
46555SOL    HW241563  10.786   1.421  10.956
46556SOL     OW41564   2.318  14.409   1.383
46556SOL    HW141565   2.248  14.473   1.388
46556SOL    HW241566   2.370  14.424   1.462
46557SOL     OW41567  10.677   2.248  12.114
46557SOL    HW141568  10.689   2.168  12.063
46557SOL    HW241569  10.757   2.255  12.166
46558SOL     OW41570   5.787   2.480   8.051
46558SOL    HW141571   5.762   2.414   7.987
46558SOL    HW241572   5.739   2.559   8.025
46559SOL     OW41573   4.126  11.570   4.957
46559SOL    HW141574   4.092  11.481   4.947
46559SOL    HW241575   4.090  11.599   5.041
46560SOL     OW41576   2.475   4.587  10.450
46560SOL    HW141577   2.508   4.537  10.376
46560SOL    HW241578   2.550   4.596  10.509
46561SOL     OW41579  14.262  12.114   4.033
46561SOL    HW141580  14.335  12.057   4.009
46561SOL    HW241581  14.285  12.147   4.120
46562SOL     OW41582   2.944  10.915  12.148
46562SOL    HW141583   2.947  10.823  12.122
46562SOL    HW241584   2.989  10.917  12.233
46563SOL     OW41585  11.185   3.097   3.020
46563SOL    HW141586  11.239   3.037   2.968
46563SOL    HW241587  11.118   3.128   2.959
46564SOL     OW41588   3.449   7.355  10.706
46564SOL    HW141589   3.417   7.313  10.786
46564SOL    HW241590   3.542   7.335  10.704
46565SOL     OW41591   7.508  11.267  12.676
46565SOL    HW141592   7.415  11.266  12.700
46565SOL    HW241593   7.543  11.345  12.718
46566SOL     OW41594   3.089  10.688  10.460
46566SOL    HW141595   3.117  10.719  10.373
46566SOL    HW241596   3.122  10.755  10.520
46567SOL     OW41597   1.146   1.675  13.310
46567SOL    HW141598   1.079   1.686  13.378
46567SOL    HW241599   1.110   1.607  13.252
46568SOL     OW41600   4.982   6.197  10.780
46568SOL    HW141601   4.958   6.257  10.709
46568SOL    HW241602   5.032   6.250  10.841
46569SOL     OW41603   4.258   0.929   4.889
46569SOL    HW141604   4.167   0.924   4.917
46569SOL    HW241605   4.257   0.995   4.819
46570SOL     OW41606   6.488  11.034  14.095
46570SOL    HW141607   6.497  11.117  14.047
46570SOL    HW241608   6.411  10.993  14.056
46571SOL     OW41609   2.905  12.885  12.001
46571SOL    HW141610   2.966  12.951  11.967
46571SOL    HW241611   2.868  12.925  12.080
46572SOL     OW41612   6.907   0.555  12.080
46572SOL    HW141613   6.925   0.606  12.001
46572SOL    HW241614   6.992   0.552  12.126
46573SOL     OW41615   3.569  11.096   9.352
46573SOL    HW141616   3.575  11.183   9.391
46573SOL    HW241617   3.659  11.076   9.325
46574SOL     OW41618   6.069   7.952  10.334
46574SOL    HW141619   6.045   7.953  10.241
46574SOL    HW241620   6.106   7.864  10.348
46575SOL     OW41621   3.817  14.628  13.247
46575SOL    HW141622   3.876  14.682  13.195
46575SOL    HW241623   3.829  14.659  13.337
46576SOL     OW41624   5.091   2.429   6.830
46576SOL    HW141625   5.054   2.344   6.807
46576SOL    HW241626   5.144   2.412   6.907
46577SOL     OW41627   9.892   1.334   6.985
46577SOL    HW141628   9.805   1.353   6.949
46577SOL    HW241629   9.951   1.343   6.910
46578SOL     OW41630  10.905  11.553   6.807
46578SOL    HW141631  10.833  11.611   6.830
46578SOL    HW241632  10.952  11.599   6.738
46579SOL     OW41633   6.969  12.970   1.300
46579SOL    HW141634   7.000  12.886   1.265
46579SOL    HW241635   6.914  12.945   1.375
46580SOL     OW41636  13.420   5.333   1.650
46580SOL    HW141637  13.360   5.332   1.724
46580SOL    HW241638  13.504   5.305   1.687
46581SOL     OW41639   0.590   1.664   9.502
46581SOL    HW141640   0.673   1.666   9.550
46581SOL    HW241641   0.523   1.686   9.566
46582SOL     OW41642   7.163   9.197   7.010
46582SOL    HW141643   7.166   9.249   6.929
46582SOL    HW241644   7.076   9.214   7.046
46583SOL     OW41645  13.421  13.881   8.865
46583SOL    HW141646  13.514  13.902   8.860
46583SOL    HW241647  13.412  13.802   8.811
46584SOL     OW41648  13.386  14.482   2.051
46584SOL    HW141649  13.394  14.425   2.127
46584SOL    HW241650  13.313  14.445   2.001
46585SOL     OW41651   0.021   6.796   5.431
46585SOL    HW141652   0.075   6.827   5.358
46585SOL    HW241653  14.850   6.720   5.395
46586SOL     OW41654   6.829   5.710  12.676
46586SOL    HW141655   6.790   5.748  12.755
46586SOL    HW241656   6.924   5.716  12.691
46587SOL     OW41657  14.432   2.532   1.640
46587SOL    HW141658  14.519   2.563   1.613
46587SOL    HW241659  14.392   2.498   1.560
46588SOL     OW41660   5.406  14.363  13.525
46588SOL    HW141661   5.479  14.359  13.587
46588SOL    HW241662   5.360  14.280  13.536
46589SOL     OW41663   5.459   7.748  11.604
46589SOL    HW141664   5.502   7.749  11.690
46589SOL    HW241665   5.452   7.841  11.580
46590SOL     OW41666   4.965  11.470  11.498
46590SOL    HW141667   4.917  11.472  11.581
46590SOL    HW241668   4.905  11.508  11.434
46591SOL     OW41669  12.458  11.013   3.941
46591SOL    HW141670  12.519  10.941   3.957
46591SOL    HW241671  12.440  11.008   3.847
46592SOL     OW41672   3.805   6.494   1.890
46592SOL    HW141673   3.819   6.428   1.957
46592SOL    HW241674   3.860   6.568   1.917
46593SOL     OW41675  10.169  11.661  10.685
46593SOL    HW141676  10.123  11.742  10.708
46593SOL    HW241677  10.151  11.648  10.592
46594SOL     OW41678  13.949   4.967   3.499
46594SOL    HW141679  13.985   4.890   3.543
46594SOL    HW241680  13.869   4.935   3.456
46595SOL     OW41681  12.613   2.511   9.353
46595SOL    HW141682  12.707   2.528   9.353
46595SOL    HW241683  12.591   2.496   9.261
46596SOL     OW41684   0.413   9.715   7.556
46596SOL    HW141685   0.348   9.745   7.620
46596SOL    HW241686   0.365   9.657   7.498
46597SOL     OW41687   8.803   0.643   8.004
46597SOL    HW141688   8.865   0.626   8.075
46597SOL    HW241689   8.807   0.565   7.950
46598SOL     OW41690  12.551   7.269   0.782
46598SOL    HW141691  12.574   7.338   0.721
46598SOL    HW241692  12.456   7.261   0.776
46599SOL     OW41693  13.501   9.033   0.403
46599SOL    HW141694  13.592   9.004   0.401
46599SOL    HW241695  13.470   9.010   0.491
46600SOL     OW41696   9.583   8.167   3.872
46600SOL    HW141697   9.501   8.218   3.875
46600SOL    HW241698   9.652   8.233   3.874
46601SOL     OW41699   9.618   9.084   7.322
46601SOL    HW141700   9.561   9.077   7.246
46601SOL    HW241701   9.575   9.149   7.378
46602SOL     OW41702  11.747   6.458   4.856
46602SOL    HW141703  11.765   6.541   4.901
46602SOL    HW241704  11.658   6.435   4.884
46603SOL     OW41705   4.220   4.327  13.249
46603SOL    HW141706   4.227   4.236  13.221
46603SOL    HW241707   4.246   4.326  13.342
46604SOL     OW41708   8.984   6.849   2.312
46604SOL    HW141709   9.007   6.902   2.236
46604SOL    HW241710   8.993   6.908   2.386
46605SOL     OW41711  13.440  13.507  14.662
46605SOL    HW141712  13.367  13.456  14.699
46605SOL    HW241713  13.512  13.444  14.656
46606SOL     OW41714   7.720  10.647   1.663
46606SOL    HW141715   7.679  10.700   1.732
46606SOL    HW241716   7.792  10.602   1.707
46607SOL     OW41717  10.164  14.517   1.150
46607SOL    HW141718  10.070  14.506   1.158
46607SOL    HW241719  10.200  14.487   1.233
46608SOL     OW41720  11.774   4.319  11.658
46608SOL    HW141721  11.853   4.370  11.641
46608SOL    HW241722  11.723   4.372  11.718
46609SOL     OW41723   3.699   2.714   7.845
46609SOL    HW141724   3.694   2.761   7.928
46609SOL    HW241725   3.760   2.766   7.792
46610SOL     OW41726   4.213   7.388   4.073
46610SOL    HW141727   4.220   7.374   4.167
46610SOL    HW241728   4.124   7.422   4.061
46611SOL     OW41729  13.035  10.053   0.881
46611SOL    HW141730  13.066   9.979   0.829
46611SOL    HW241731  12.943  10.033   0.900
46612SOL     OW41732   2.953  11.700   6.340
46612SOL    HW141733   3.012  11.773   6.359
46612SOL    HW241734   2.954  11.693   6.245
46613SOL     OW41735   6.361   8.244   3.139
46613SOL    HW141736   6.409   8.239   3.222
46613SOL    HW241737   6.309   8.324   3.146
46614SOL     OW41738  13.091   1.578  14.619
46614SOL    HW141739  13.023   1.551  14.682
46614SOL    HW241740  13.165   1.520  14.638
46615SOL     OW41741   1.492  13.526   7.503
46615SOL    HW141742   1.403  13.492   7.505
46615SOL    HW241743   1.502  13.573   7.586
46616SOL     OW41744   2.671   2.440   6.048
46616SOL    HW141745   2.705   2.521   6.086
46616SOL    HW241746   2.673   2.377   6.120
46617SOL     OW41747   0.089   7.083  14.541
46617SOL    HW141748   0.062   7.015  14.480
46617SOL    HW241749   0.177   7.108  14.513
46618SOL     OW41750   3.998   9.545   6.711
46618SOL    HW141751   4.012   9.481   6.780
46618SOL    HW241752   3.960   9.620   6.756
46619SOL     OW41753  14.236   6.828  12.598
46619SOL    HW141754  14.160   6.777  12.628
46619SOL    HW241755  14.206   6.919  12.598
46620SOL     OW41756   1.338  10.640  10.167
46620SOL    HW141757   1.422  10.620  10.208
46620SOL    HW241758   1.273  10.593  10.219
46621SOL     OW41759   8.417   0.226   1.261
46621SOL    HW141760   8.386   0.143   1.297
46621SOL    HW241761   8.479   0.259   1.326
46622SOL     OW41762   7.098  10.566   0.851
46622SOL    HW141763   7.166  10.634   0.850
46622SOL    HW241764   7.146  10.484   0.841
46623SOL     OW41765  13.827   2.859   4.835
46623SOL    HW141766  13.909   2.811   4.848
46623SOL    HW241767  13.800   2.883   4.924
46624SOL     OW41768   9.267   3.159  12.069
46624SOL    HW141769   9.185   3.202  12.093
46624SOL    HW241770   9.239   3.078  12.026
46625SOL     OW41771   3.591   5.040  10.798
46625SOL    HW141772   3.525   5.003  10.857
46625SOL    HW241773   3.571   5.003  10.713
46626SOL     OW41774  11.090  14.653   8.087
46626SOL    HW141775  11.052  14.676   8.171
46626SOL    HW241776  11.022  14.674   8.023
46627SOL     OW41777   9.801   4.242   3.672
46627SOL    HW141778   9.824   4.301   3.745
46627SOL    HW241779   9.818   4.155   3.707
46628SOL     OW41780  12.586  11.944  11.830
46628SOL    HW141781  12.506  11.929  11.781
46628SOL    HW241782  12.601  12.039  11.823
46629SOL     OW41783  14.561   9.571   6.094
46629SOL    HW141784  14.527   9.492   6.052
46629SOL    HW241785  14.617   9.539   6.165
46630SOL     OW41786  12.152   1.391   1.431
46630SOL    HW141787  12.135   1.375   1.524
46630SOL    HW241788  12.230   1.446   1.430
46631SOL     OW41789   2.837   5.516  11.072
46631SOL    HW141790   2.829   5.450  11.004
46631SOL    HW241791   2.906   5.483  11.130
46632SOL     OW41792   7.822   5.643  10.977
46632SOL    HW141793   7.891   5.705  11.000
46632SOL    HW241794   7.834   5.569  11.038
46633SOL     OW41795  10.656   8.949  13.277
46633SOL    HW141796  10.709   8.892  13.221
46633SOL    HW241797  10.642   9.028  13.224
46634SOL     OW41798   4.602   3.646   2.789
46634SOL    HW141799   4.679   3.646   2.733
46634SOL    HW241800   4.636   3.638   2.878
46635SOL     OW41801   3.695   7.849   9.858
46635SOL    HW141802   3.660   7.800   9.932
46635SOL    HW241803   3.790   7.844   9.869
46636SOL     OW41804   2.386   8.487   3.833
46636SOL    HW141805   2.398   8.430   3.909
46636SOL    HW241806   2.466   8.540   3.830
46637SOL     OW41807   2.800   0.738   1.175
46637SOL    HW141808   2.843   0.716   1.258
46637SOL    HW241809   2.865   0.791   1.129
46638SOL     OW41810  13.363   7.943  10.495
46638SOL    HW141811  13.328   7.978  10.577
46638SOL    HW241812  13.285   7.913  10.447
46639SOL     OW41813  13.851   2.847   0.175
46639SOL    HW141814  13.794   2.805   0.110
46639SOL    HW241815  13.884   2.925   0.131
46640SOL     OW41816   3.183   6.528   8.793
46640SOL    HW141817   3.102   6.479   8.777
46640SOL    HW241818   3.232   6.521   8.711
46641SOL     OW41819   3.287   5.625   6.330
46641SOL    HW141820   3.230   5.635   6.254
46641SOL    HW241821   3.237   5.660   6.403
46642SOL     OW41822  10.672   6.650  12.502
46642SOL    HW141823  10.584   6.616  12.518
46642SOL    HW241824  10.680   6.655  12.407
46643SOL     OW41825   9.889   2.985  11.497
46643SOL    HW141826   9.952   2.992  11.568
46643SOL    HW241827   9.849   3.072  11.491
46644SOL     OW41828   5.147   3.861   9.938
46644SOL    HW141829   5.214   3.877   9.871
46644SOL    HW241830   5.065   3.889   9.898
46645SOL     OW41831   0.204   7.110   8.637
46645SOL    HW141832   0.140   7.113   8.565
46645SOL    HW241833   0.234   7.019   8.637
46646SOL     OW41834   6.247  11.791   5.468
46646SOL    HW141835   6.222  11.861   5.407
46646SOL    HW241836   6.341  11.802   5.480
46647SOL     OW41837   8.004   5.891   7.866
46647SOL    HW141838   7.927   5.905   7.920
46647SOL    HW241839   7.971   5.889   7.776
46648SOL     OW41840  12.030   9.661   3.527
46648SOL    HW141841  12.096   9.729   3.518
46648SOL    HW241842  11.978   9.688   3.602
46649SOL     OW41843  13.933   4.251   7.156
46649SOL    HW141844  13.902   4.249   7.247
46649SOL    HW241845  13.993   4.177   7.149
46650SOL     OW41846  11.695   5.500   3.087
46650SOL    HW141847  11.783   5.480   3.117
46650SOL    HW241848  11.680   5.590   3.115
46651SOL     OW41849   6.704   1.284  10.821
46651SOL    HW141850   6.727   1.202  10.866
46651SOL    HW241851   6.680   1.256  10.732
46652SOL     OW41852   0.596   5.802   7.368
46652SOL    HW141853   0.564   5.718   7.335
46652SOL    HW241854   0.534   5.826   7.437
46653SOL     OW41855   4.140  13.531  12.654
46653SOL    HW141856   4.146  13.443  12.691
46653SOL    HW241857   4.221  13.574  12.682
46654SOL     OW41858   0.550   7.747  12.859
46654SOL    HW141859   0.629   7.769  12.908
46654SOL    HW241860   0.507   7.679  12.911
46655SOL     OW41861  13.973  10.935   1.936
46655SOL    HW141862  13.941  10.998   2.000
46655SOL    HW241863  13.898  10.879   1.917
46656SOL     OW41864  14.347   1.007   5.813
46656SOL    HW141865  14.264   0.967   5.789
46656SOL    HW241866  14.346   1.011   5.909
46657SOL     OW41867   1.094  12.195   9.042
46657SOL    HW141868   1.003  12.225   9.035
46657SOL    HW241869   1.134  12.255   9.105
46658SOL     OW41870  13.232   5.011  11.092
46658SOL    HW141871  13.176   4.956  11.146
46658SOL    HW241872  13.204   5.101  11.110
46659SOL     OW41873  11.654   0.232   4.168
46659SOL    HW141874  11.658   0.145   4.206
46659SOL    HW241875  11.585   0.226   4.101
46660SOL     OW41876   0.441  11.156  11.096
46660SOL    HW141877   0.537  11.160  11.098
46660SOL    HW241878   0.419  11.163  11.003
46661SOL     OW41879   8.007  11.936   1.082
46661SOL    HW141880   7.934  11.939   1.021
46661SOL    HW241881   8.076  11.888   1.035
46662SOL     OW41882   8.942   1.692   5.360
46662SOL    HW141883   8.903   1.607   5.378
46662SOL    HW241884   8.941   1.738   5.444
46663SOL     OW41885   5.220  10.343   7.832
46663SOL    HW141886   5.296  10.297   7.797
46663SOL    HW241887   5.256  10.397   7.903
46664SOL     OW41888  13.717   3.840   5.992
46664SOL    HW141889  13.810   3.826   6.011
46664SOL    HW241890  13.672   3.794   6.063
46665SOL     OW41891  10.743  10.840  11.443
46665SOL    HW141892  10.709  10.906  11.503
46665SOL    HW241893  10.783  10.891  11.372
46666SOL     OW41894   7.831   1.119   1.058
46666SOL    HW141895   7.819   1.081   0.971
46666SOL    HW241896   7.834   1.044   1.117
46667SOL     OW41897   9.457   8.788   0.871
46667SOL    HW141898   9.478   8.699   0.843
46667SOL    HW241899   9.516   8.805   0.944
46668SOL     OW41900   3.205   6.811   1.934
46668SOL    HW141901   3.233   6.764   1.856
46668SOL    HW241902   3.242   6.761   2.007
46669SOL     OW41903   7.813   3.530   9.328
46669SOL    HW141904   7.848   3.485   9.251
46669SOL    HW241905   7.871   3.503   9.399
46670SOL     OW41906   2.636   0.938  13.546
46670SOL    HW141907   2.724   0.951  13.583
46670SOL    HW241908   2.603   1.026  13.530
46671SOL     OW41909   0.302   5.584   5.929
46671SOL    HW141910   0.333   5.549   6.012
46671SOL    HW241911   0.382   5.600   5.878
46672SOL     OW41912   9.728   1.741   6.440
46672SOL    HW141913   9.642   1.769   6.473
46672SOL    HW241914   9.744   1.658   6.486
46673SOL     OW41915   2.873   9.418   7.035
46673SOL    HW141916   2.846   9.492   6.980
46673SOL    HW241917   2.799   9.359   7.033
46674SOL     OW41918  13.135   9.145   3.514
46674SOL    HW141919  13.172   9.104   3.592
46674SOL    HW241920  13.197   9.125   3.444
46675SOL     OW41921   5.210  10.849   0.906
46675SOL    HW141922   5.258  10.817   0.982
46675SOL    HW241923   5.230  10.786   0.836
46676SOL     OW41924   1.380   1.600  13.062
46676SOL    HW141925   1.352   1.557  13.143
46676SOL    HW241926   1.388   1.692  13.086
46677SOL     OW41927   4.283  11.980   6.731
46677SOL    HW141928   4.325  11.931   6.660
46677SOL    HW241929   4.198  12.006   6.695
46678SOL     OW41930  12.689   4.994   7.019
46678SOL    HW141931  12.708   5.017   7.110
46678SOL    HW241932  12.703   4.900   7.015
46679SOL     OW41933   3.396  13.396  12.814
46679SOL    HW141934   3.403  13.456  12.889
46679SOL    HW241935   3.487  13.380  12.788
46680SOL     OW41936   3.864   6.380  13.925
46680SOL    HW141937   3.823   6.457  13.888
46680SOL    HW241938   3.951   6.409  13.953
46681SOL     OW41939   2.894   3.265  12.618
46681SOL    HW141940   2.862   3.327  12.553
46681SOL    HW241941   2.893   3.180  12.573
46682SOL     OW41942   5.506   1.535   7.099
46682SOL    HW141943   5.520   1.516   7.192
46682SOL    HW241944   5.432   1.480   7.074
46683SOL     OW41945   5.522   8.612   2.476
46683SOL    HW141946   5.497   8.621   2.568
46683SOL    HW241947   5.508   8.699   2.439
46684SOL     OW41948   3.182   3.273   5.810
46684SOL    HW141949   3.199   3.182   5.784
46684SOL    HW241950   3.215   3.278   5.900
46685SOL     OW41951   3.009  12.814  14.512
46685SOL    HW141952   2.957  12.774  14.582
46685SOL    HW241953   3.027  12.903  14.544
46686SOL     OW41954   5.914  11.913   3.405
46686SOL    HW141955   5.827  11.941   3.435
46686SOL    HW241956   5.920  11.822   3.433
46687SOL     OW41957  10.868  10.570   7.937
46687SOL    HW141958  10.951  10.617   7.935
46687SOL    HW241959  10.806  10.628   7.892
46688SOL     OW41960   0.068   3.777   0.275
46688SOL    HW141961   0.109   3.694   0.248
46688SOL    HW241962   0.142   3.836   0.291
46689SOL     OW41963   1.950   1.173  11.680
46689SOL    HW141964   2.001   1.221  11.614
46689SOL    HW241965   1.931   1.237  11.748
46690SOL     OW41966   4.787   7.248  14.825
46690SOL    HW141967   4.748   7.218   0.032
46690SOL    HW241968   4.878   7.268  14.848
46691SOL     OW41969   8.112   9.394   8.380
46691SOL    HW141970   8.067   9.472   8.347
46691SOL    HW241971   8.160   9.360   8.305
46692SOL     OW41972   5.608   2.298   9.622
46692SOL    HW141973   5.647   2.336   9.542
46692SOL    HW241974   5.665   2.328   9.693
46693SOL     OW41975   3.294   8.747  13.749
46693SOL    HW141976   3.203   8.761  13.721
46693SOL    HW241977   3.346   8.800  13.688
46694SOL     OW41978   8.388   7.875  10.923
46694SOL    HW141979   8.374   7.954  10.871
46694SOL    HW241980   8.312   7.871  10.981
46695SOL     OW41981  13.104   3.509   4.250
46695SOL    HW141982  13.146   3.488   4.333
46695SOL    HW241983  13.017   3.539   4.273
46696SOL     OW41984   7.819  13.697  14.077
46696SOL    HW141985   7.725  13.695  14.062
46696SOL    HW241986   7.851  13.768  14.022
46697SOL     OW41987   1.870   6.117   2.008
46697SOL    HW141988   1.910   6.046   1.958
46697SOL    HW241989   1.890   6.196   1.958
46698SOL     OW41990  10.605  12.337  11.423
46698SOL    HW141991  10.620  12.394  11.499
46698SOL    HW241992  10.585  12.398  11.352
46699SOL     OW41993  14.525  11.442   0.492
46699SOL    HW141994  14.490  11.467   0.406
46699SOL    HW241995  14.454  11.391   0.532
46700SOL     OW41996   6.561   8.319   7.189
46700SOL    HW141997   6.524   8.254   7.249
46700SOL    HW241998   6.615   8.375   7.245
46701SOL     OW41999  11.953  10.593  10.935
46701SOL    HW142000  11.934  10.555  11.021
46701SOL    HW242001  11.953  10.687  10.950
46702SOL     OW42002   3.160   1.289   8.781
46702SOL    HW142003   3.168   1.211   8.835
46702SOL    HW242004   3.066   1.301   8.768
46703SOL     OW42005   1.324  11.248   8.114
46703SOL    HW142006   1.257  11.299   8.160
46703SOL    HW242007   1.312  11.159   8.146
46704SOL     OW42008  11.046   0.264  12.511
46704SOL    HW142009  11.082   0.345  12.472
46704SOL    HW242010  11.108   0.241  12.580
46705SOL     OW42011   8.600   7.981   0.506
46705SOL    HW142012   8.673   8.013   0.452
46705SOL    HW242013   8.636   7.977   0.595
46706SOL     OW42014   2.177   5.018   7.540
46706SOL    HW142015   2.255   4.982   7.582
46706SOL    HW242016   2.171   5.107   7.575
46707SOL     OW42017  10.349   2.635   8.887
46707SOL    HW142018  10.383   2.708   8.938
46707SOL    HW242019  10.285   2.593   8.945
46708SOL     OW42020   1.467   8.130  13.916
46708SOL    HW142021   1.537   8.065  13.912
46708SOL    HW242022   1.506   8.204  13.962
46709SOL     OW42023   5.725   3.241  14.485
46709SOL    HW142024   5.671   3.250  14.407
46709SOL    HW242025   5.811   3.273  14.458
46710SOL     OW42026   0.124   7.363   6.618
46710SOL    HW142027   0.040   7.382   6.659
46710SOL    HW242028   0.105   7.296   6.552
46711SOL     OW42029   8.698   5.848   0.654
46711SOL    HW142030   8.610   5.843   0.693
46711SOL    HW242031   8.704   5.938   0.620
46712SOL     OW42032   6.917   5.349   7.386
46712SOL    HW142033   6.944   5.329   7.296
46712SOL    HW242034   6.985   5.310   7.441
46713SOL     OW42035   6.393  14.150   3.251
46713SOL    HW142036   6.461  14.083   3.249
46713SOL    HW242037   6.389  14.177   3.343
46714SOL     OW42038   1.319   9.559  11.939
46714SOL    HW142039   1.254   9.494  11.963
46714SOL    HW242040   1.273   9.643  11.946
46715SOL     OW42041   9.588  13.832  14.227
46715SOL    HW142042   9.546  13.912  14.196
46715SOL    HW242043   9.682  13.849  14.221
46716SOL     OW42044  11.693   1.538  10.985
46716SOL    HW142045  11.701   1.461  10.929
46716SOL    HW242046  11.630   1.594  10.939
46717SOL     OW42047   6.943   6.618  11.737
46717SOL    HW142048   6.912   6.590  11.823
46717SOL    HW242049   6.998   6.694  11.755
46718SOL     OW42050   2.031   2.035   5.776
46718SOL    HW142051   2.043   1.941   5.794
46718SOL    HW242052   1.950   2.038   5.724
46719SOL     OW42053   7.479   8.336   8.431
46719SOL    HW142054   7.496   8.427   8.405
46719SOL    HW242055   7.526   8.326   8.513
46720SOL     OW42056  12.759  12.377   1.639
46720SOL    HW142057  12.821  12.414   1.702
46720SOL    HW242058  12.786  12.286   1.630
46721SOL     OW42059   5.540   6.536   9.519
46721SOL    HW142060   5.480   6.517   9.447
46721SOL    HW242061   5.541   6.631   9.525
46722SOL     OW42062   4.663   3.211   6.335
46722SOL    HW142063   4.584   3.262   6.353
46722SOL    HW242064   4.732   3.277   6.325
46723SOL     OW42065  14.809   3.418   4.599
46723SOL    HW142066  14.826   3.323   4.604
46723SOL    HW242067  14.733   3.430   4.656
46724SOL     OW42068  12.628   5.516   8.367
46724SOL    HW142069  12.551   5.467   8.396
46724SOL    HW242070  12.637   5.493   8.275
46725SOL     OW42071   1.645   1.381   9.379
46725SOL    HW142072   1.649   1.343   9.291
46725SOL    HW242073   1.716   1.445   9.380
46726SOL     OW42074   8.877   2.177  10.434
46726SOL    HW142075   8.791   2.163  10.474
46726SOL    HW242076   8.938   2.178  10.508
46727SOL     OW42077   9.769   6.393  14.004
46727SOL    HW142078   9.716   6.376  14.082
46727SOL    HW242079   9.722   6.349  13.933
46728SOL     OW42080  10.667  10.805   6.712
46728SOL    HW142081  10.717  10.851   6.645
46728SOL    HW242082  10.599  10.758   6.664
46729SOL     OW42083  12.885  13.910  13.599
46729SOL    HW142084  12.979  13.899  13.583
46729SOL    HW242085  12.867  13.855  13.675
46730SOL     OW42086  12.034   4.423  11.657
46730SOL    HW142087  12.051   4.515  11.633
46730SOL    HW242088  12.119   4.389  11.684
46731SOL     OW42089  10.110   9.525  11.283
46731SOL    HW142090  10.073   9.591  11.224
46731SOL    HW242091  10.147   9.576  11.356
46732SOL     OW42092   3.804   2.955  14.869
46732SOL    HW142093   3.802   2.939  14.774
46732SOL    HW242094   3.762   3.040   0.006
46733SOL     OW42095  14.395   1.454   6.355
46733SOL    HW142096  14.339   1.476   6.281
46733SOL    HW242097  14.481   1.489   6.331
46734SOL     OW42098  11.858   6.748   4.724
46734SOL    HW142099  11.889   6.786   4.806
46734SOL    HW242100  11.903   6.664   4.718
46735SOL     OW42101   8.767   3.227  14.385
46735SOL    HW142102   8.762   3.174  14.464
46735SOL    HW242103   8.701   3.190  14.327
46736SOL     OW42104   0.963   8.774   9.883
46736SOL    HW142105   1.023   8.705   9.855
46736SOL    HW242106   0.878   8.748   9.849
46737SOL     OW42107   0.039   3.153   3.249
46737SOL    HW142108   0.023   3.069   3.291
46737SOL    HW242109   0.062   3.131   3.158
46738SOL     OW42110   0.975   7.695  10.952
46738SOL    HW142111   1.012   7.707  10.864
46738SOL    HW242112   1.008   7.769  11.003
46739SOL     OW42113   6.552   8.508  11.627
46739SOL    HW142114   6.582   8.460  11.550
46739SOL    HW242115   6.551   8.599  11.599
46740SOL     OW42116  13.657   1.772   5.436
46740SOL    HW142117  13.682   1.690   5.479
46740SOL    HW242118  13.580   1.749   5.384
46741SOL     OW42119   3.760  12.389   1.622
46741SOL    HW142120   3.775  12.341   1.703
46741SOL    HW242121   3.673  12.429   1.633
46742SOL     OW42122  13.092   0.756  13.390
46742SOL    HW142123  13.012   0.727  13.432
46742SOL    HW242124  13.081   0.731  13.298
46743SOL     OW42125   8.042  11.938  14.784
46743SOL    HW142126   8.076  12.024  14.758
46743SOL    HW242127   7.993  11.907  14.708
46744SOL     OW42128   8.325   7.955  14.723
46744SOL    HW142129   8.257   7.926  14.783
46744SOL    HW242130   8.309   8.049  14.713
46745SOL     OW42131   4.332  13.873  12.958
46745SOL    HW142132   4.358  13.915  13.040
46745SOL    HW242133   4.274  13.937  12.916
46746SOL     OW42134  11.362   6.325   8.929
46746SOL    HW142135  11.319   6.269   8.993
46746SOL    HW242136  11.352   6.414   8.963
46747SOL     OW42137   4.039   9.849  11.115
46747SOL    HW142138   4.056   9.943  11.108
46747SOL    HW242139   3.949   9.844  11.149
46748SOL     OW42140   3.647   4.761   3.963
46748SOL    HW142141   3.686   4.691   4.015
46748SOL    HW242142   3.557   4.731   3.947
46749SOL     OW42143   3.962   7.053  10.283
46749SOL    HW142144   4.027   7.099  10.230
46749SOL    HW242145   3.964   6.963  10.251
46750SOL     OW42146   4.112  11.980   6.063
46750SOL    HW142147   4.182  11.921   6.093
46750SOL    HW242148   4.144  12.068   6.084
46751SOL     OW42149   1.856   7.671  12.352
46751SOL    HW142150   1.868   7.629  12.267
46751SOL    HW242151   1.811   7.753  12.332
46752SOL     OW42152   3.500  14.485   3.915
46752SOL    HW142153   3.465  14.574   3.902
46752SOL    HW242154   3.561  14.473   3.842
46753SOL     OW42155   0.884  13.534   3.966
46753SOL    HW142156   0.930  13.484   3.898
46753SOL    HW242157   0.953  13.586   4.007
46754SOL     OW42158   7.180   0.691   5.641
46754SOL    HW142159   7.152   0.763   5.698
46754SOL    HW242160   7.132   0.615   5.674
46755SOL     OW42161   3.061   0.949  13.024
46755SOL    HW142162   3.017   0.905  12.951
46755SOL    HW242163   3.057   0.886  13.096
46756SOL     OW42164  10.760   0.447  12.137
46756SOL    HW142165  10.783   0.524  12.189
46756SOL    HW242166  10.701   0.480  12.069
46757SOL     OW42167   2.610   5.795   8.273
46757SOL    HW142168   2.564   5.721   8.312
46757SOL    HW242169   2.593   5.787   8.179
46758SOL     OW42170   7.360   6.192  10.487
46758SOL    HW142171   7.427   6.149  10.435
46758SOL    HW242172   7.408   6.228  10.562
46759SOL     OW42173   6.947  10.698   3.167
46759SOL    HW142174   6.917  10.646   3.092
46759SOL    HW242175   6.949  10.635   3.240
46760SOL     OW42176   6.754  11.333   8.559
46760SOL    HW142177   6.678  11.383   8.531
46760SOL    HW242178   6.821  11.352   8.494
46761SOL     OW42179   9.031   8.102   5.741
46761SOL    HW142180   9.103   8.096   5.805
46761SOL    HW242181   9.057   8.173   5.683
46762SOL     OW42182  13.104  12.425   1.181
46762SOL    HW142183  13.026  12.398   1.133
46762SOL    HW242184  13.069  12.468   1.260
46763SOL     OW42185  13.515  14.027   5.922
46763SOL    HW142186  13.473  14.112   5.930
46763SOL    HW242187  13.452  13.974   5.872
46764SOL     OW42188   4.215   5.076  14.260
46764SOL    HW142189   4.180   5.030  14.336
46764SOL    HW242190   4.287   5.021  14.229
46765SOL     OW42191  10.319  11.155   3.147
46765SOL    HW142192  10.395  11.142   3.204
46765SOL    HW242193  10.255  11.199   3.203
46766SOL     OW42194   4.883   5.033   6.645
46766SOL    HW142195   4.877   4.939   6.631
46766SOL    HW242196   4.948   5.062   6.581
46767SOL     OW42197  13.781  13.940   2.109
46767SOL    HW142198  13.844  14.010   2.122
46767SOL    HW242199  13.834  13.864   2.086
46768SOL     OW42200  11.098  13.204   9.952
46768SOL    HW142201  11.049  13.194  10.033
46768SOL    HW242202  11.142  13.120   9.939
46769SOL     OW42203   4.462   8.698   9.430
46769SOL    HW142204   4.517   8.758   9.481
46769SOL    HW242205   4.374   8.734   9.436
46770SOL     OW42206   4.294  10.841   7.813
46770SOL    HW142207   4.311  10.750   7.837
46770SOL    HW242208   4.199  10.851   7.821
46771SOL     OW42209  14.649  10.979  14.653
46771SOL    HW142210  14.559  10.969  14.625
46771SOL    HW242211  14.698  10.916  14.601
46772SOL     OW42212   3.932  13.906  11.979
46772SOL    HW142213   3.997  13.914  11.908
46772SOL    HW242214   3.883  13.988  11.975
46773SOL     OW42215   4.103   1.976  11.871
46773SOL    HW142216   4.090   1.979  11.776
46773SOL    HW242217   4.016   1.957  11.906
46774SOL     OW42218  14.797  11.219   5.300
46774SOL    HW142219  14.742  11.201   5.224
46774SOL    HW242220  14.836  11.305   5.281
46775SOL     OW42221  12.617  11.673   8.112
46775SOL    HW142222  12.561  11.750   8.107
46775SOL    HW242223  12.667  11.685   8.192
46776SOL     OW42224   3.027   0.281   3.610
46776SOL    HW142225   3.039   0.376   3.621
46776SOL    HW242226   3.061   0.263   3.522
46777SOL     OW42227   2.557  10.082   8.723
46777SOL    HW142228   2.635  10.138   8.728
46777SOL    HW242229   2.532  10.069   8.814
46778SOL     OW42230   5.344   7.742   2.635
46778SOL    HW142231   5.339   7.828   2.593
46778SOL    HW242232   5.260   7.733   2.680
46779SOL     OW42233   0.796   2.506  11.580
46779SOL    HW142234   0.706   2.503  11.547
46779SOL    HW242235   0.834   2.422  11.552
46780SOL     OW42236   4.514  13.315  12.626
46780SOL    HW142237   4.544  13.342  12.713
46780SOL    HW242238   4.493  13.222  12.635
46781SOL     OW42239   3.021   2.458   8.765
46781SOL    HW142240   3.087   2.390   8.747
46781SOL    HW242241   2.973   2.425   8.840
46782SOL     OW42242  10.205   7.251   6.815
46782SOL    HW142243  10.256   7.173   6.794
46782SOL    HW242244  10.258   7.324   6.783
46783SOL     OW42245  10.863  13.353   4.677
46783SOL    HW142246  10.905  13.345   4.763
46783SOL    HW242247  10.775  13.385   4.696
46784SOL     OW42248   7.730  10.568  14.716
46784SOL    HW142249   7.651  10.556  14.664
46784SOL    HW242250   7.791  10.614  14.659
46785SOL     OW42251   6.929   5.635   7.479
46785SOL    HW142252   6.924   5.709   7.418
46785SOL    HW242253   6.900   5.560   7.428
46786SOL     OW42254   4.186   5.310  14.776
46786SOL    HW142255   4.166   5.393  14.818
46786SOL    HW242256   4.142   5.315  14.691
46787SOL     OW42257   1.206   7.463  12.689
46787SOL    HW142258   1.179   7.554  12.680
46787SOL    HW242259   1.245   7.441  12.605
46788SOL     OW42260  12.055   0.740  12.836
46788SOL    HW142261  12.012   0.655  12.823
46788SOL    HW242262  12.055   0.752  12.931
46789SOL     OW42263   7.427  10.090   2.971
46789SOL    HW142264   7.433  10.029   2.897
46789SOL    HW242265   7.512  10.133   2.974
46790SOL     OW42266   0.784   1.020   8.293
46790SOL    HW142267   0.775   0.961   8.367
46790SOL    HW242268   0.848   0.978   8.236
46791SOL     OW42269   2.482   2.375   0.968
46791SOL    HW142270   2.391   2.401   0.982
46791SOL    HW242271   2.524   2.387   1.054
46792SOL     OW42272  11.613  14.055   3.613
46792SOL    HW142273  11.585  13.998   3.541
46792SOL    HW242274  11.695  14.093   3.582
46793SOL     OW42275   1.840   4.229   8.165
46793SOL    HW142276   1.921   4.233   8.113
46793SOL    HW242277   1.794   4.310   8.143
46794SOL     OW42278   5.272  13.110  13.649
46794SOL    HW142279   5.189  13.132  13.691
46794SOL    HW242280   5.259  13.130  13.557
46795SOL     OW42281   9.220   8.361   8.050
46795SOL    HW142282   9.152   8.297   8.071
46795SOL    HW242283   9.302   8.319   8.074
46796SOL     OW42284   1.190  13.124  13.162
46796SOL    HW142285   1.223  13.102  13.075
46796SOL    HW242286   1.190  13.220  13.165
46797SOL     OW42287  12.276   6.877  12.649
46797SOL    HW142288  12.346   6.863  12.585
46797SOL    HW242289  12.205   6.916  12.598
46798SOL     OW42290  13.446   5.548  11.897
46798SOL    HW142291  13.412   5.469  11.938
46798SOL    HW242292  13.532   5.561  11.937
46799SOL     OW42293  11.949   6.458   7.795
46799SOL    HW142294  11.872   6.415   7.831
46799SOL    HW242295  11.921   6.547   7.777
46800SOL     OW42296   2.119  11.851   4.221
46800SOL    HW142297   2.205  11.821   4.192
46800SOL    HW242298   2.088  11.781   4.279
46801SOL     OW42299   8.231   7.830  13.872
46801SOL    HW142300   8.237   7.735  13.881
46801SOL    HW242301   8.315   7.855  13.833
46802SOL     OW42302   3.511   8.444   5.380
46802SOL    HW142303   3.596   8.452   5.335
46802SOL    HW242304   3.496   8.531   5.418
46803SOL     OW42305   0.343   8.150  14.290
46803SOL    HW142306   0.326   8.165  14.197
46803SOL    HW242307   0.391   8.067  14.293
46804SOL     OW42308   9.265   1.336  14.713
46804SOL    HW142309   9.180   1.303  14.684
46804SOL    HW242310   9.321   1.332  14.635
46805SOL     OW42311  14.304   5.307   0.526
46805SOL    HW142312  14.364   5.235   0.545
46805SOL    HW242313  14.346   5.354   0.454
46806SOL     OW42314   9.035   0.015   1.353
46806SOL    HW142315   9.073   0.046   1.435
46806SOL    HW242316   8.963  14.833   1.380
46807SOL     OW42317   1.312   8.318   0.429
46807SOL    HW142318   1.393   8.267   0.418
46807SOL    HW242319   1.286   8.342   0.340
46808SOL     OW42320  12.468   3.935  14.532
46808SOL    HW142321  12.464   3.980  14.616
46808SOL    HW242322  12.471   3.842  14.555
46809SOL     OW42323   7.697  14.237   4.081
46809SOL    HW142324   7.759  14.293   4.035
46809SOL    HW242325   7.626  14.223   4.018
46810SOL     OW42326  10.573   0.703   3.369
46810SOL    HW142327  10.538   0.711   3.457
46810SOL    HW242328  10.576   0.793   3.337
46811SOL     OW42329  13.165   2.774   0.595
46811SOL    HW142330  13.134   2.684   0.582
46811SOL    HW242331  13.233   2.767   0.661
46812SOL     OW42332  10.285  14.232   0.710
46812SOL    HW142333  10.191  14.225   0.724
46812SOL    HW242334  10.310  14.312   0.757
46813SOL     OW42335  11.854   5.458  10.232
46813SOL    HW142336  11.868   5.513  10.155
46813SOL    HW242337  11.922   5.485  10.294
46814SOL     OW42338  14.058   3.038  14.582
46814SOL    HW142339  14.073   3.044  14.676
46814SOL    HW242340  14.073   3.126  14.549
46815SOL     OW42341   7.622  13.294   7.425
46815SOL    HW142342   7.651  13.217   7.377
46815SOL    HW242343   7.569  13.343   7.362
46816SOL     OW42344   5.948   3.200  12.929
46816SOL    HW142345   6.026   3.221  12.878
46816SOL    HW242346   5.901   3.284  12.937
46817SOL     OW42347   5.453   5.569   4.935
46817SOL    HW142348   5.486   5.516   4.863
46817SOL    HW242349   5.524   5.630   4.955
46818SOL     OW42350   4.788  12.036   2.998
46818SOL    HW142351   4.790  11.953   2.951
46818SOL    HW242352   4.880  12.057   3.014
46819SOL     OW42353  12.025  14.280   3.018
46819SOL    HW142354  11.979  14.292   3.101
46819SOL    HW242355  11.996  14.355   2.964
46820SOL     OW42356   5.846   7.169   0.946
46820SOL    HW142357   5.859   7.263   0.945
46820SOL    HW242358   5.887   7.137   0.866
46821SOL     OW42359   4.749   8.358   0.685
46821SOL    HW142360   4.791   8.391   0.606
46821SOL    HW242361   4.722   8.437   0.732
46822SOL     OW42362   8.423   9.378  12.373
46822SOL    HW142363   8.434   9.284  12.384
46822SOL    HW242364   8.496   9.417  12.421
46823SOL     OW42365   0.442   3.318  12.948
46823SOL    HW142366   0.537   3.335  12.948
46823SOL    HW242367   0.406   3.389  13.000
46824SOL     OW42368  12.234   3.085   9.930
46824SOL    HW142369  12.203   3.005   9.972
46824SOL    HW242370  12.160   3.146   9.937
46825SOL     OW42371   0.017   7.516  10.224
46825SOL    HW142372  14.812   7.492  10.272
46825SOL    HW242373   0.088   7.489  10.281
46826SOL     OW42374  10.582  14.322  12.871
46826SOL    HW142375  10.590  14.416  12.855
46826SOL    HW242376  10.612  14.311  12.961
46827SOL     OW42377  10.672   3.538   5.236
46827SOL    HW142378  10.621   3.495   5.168
46827SOL    HW242379  10.702   3.466   5.293
46828SOL     OW42380   9.336   3.890  11.192
46828SOL    HW142381   9.248   3.854  11.181
46828SOL    HW242382   9.340   3.964  11.132
46829SOL     OW42383  13.316   5.372  10.103
46829SOL    HW142384  13.376   5.312  10.060
46829SOL    HW242385  13.370   5.446  10.130
46830SOL     OW42386  13.227  12.066   5.602
46830SOL    HW142387  13.281  11.993   5.634
46830SOL    HW242388  13.185  12.032   5.523
46831SOL     OW42389   5.750   9.494  12.004
46831SOL    HW142390   5.678   9.555  11.991
46831SOL    HW242391   5.717   9.431  12.069
46832SOL     OW42392   1.314   4.677   9.248
46832SOL    HW142393   1.358   4.734   9.311
46832SOL    HW242394   1.221   4.699   9.257
46833SOL     OW42395   6.801  14.685   2.278
46833SOL    HW142396   6.829  14.766   2.235
46833SOL    HW242397   6.883  14.643   2.304
46834SOL     OW42398  13.428   4.937  12.869
46834SOL    HW142399  13.494   4.927  12.938
46834SOL    HW242400  13.350   4.895  12.904
46835SOL     OW42401   3.705   4.426   9.820
46835SOL    HW142402   3.733   4.514   9.844
46835SOL    HW242403   3.674   4.387   9.902
46836SOL     OW42404   1.162  12.997  14.037
46836SOL    HW142405   1.196  13.023  13.952
46836SOL    HW242406   1.202  12.912  14.054
46837SOL     OW42407   0.722   2.358   8.285
46837SOL    HW142408   0.626   2.356   8.286
46837SOL    HW242409   0.747   2.286   8.228
46838SOL     OW42410   7.274   5.878   1.209
46838SOL    HW142411   7.343   5.893   1.145
46838SOL    HW242412   7.218   5.811   1.170
46839SOL     OW42413   1.895   3.749   8.380
46839SOL    HW142414   1.881   3.792   8.295
46839SOL    HW242415   1.807   3.738   8.416
46840SOL     OW42416   9.676  11.085   3.440
46840SOL    HW142417   9.622  11.164   3.446
46840SOL    HW242418   9.704  11.081   3.348
46841SOL     OW42419  13.209  13.061  13.339
46841SOL    HW142420  13.207  13.150  13.375
46841SOL    HW242421  13.161  13.067  13.256
46842SOL     OW42422  11.946   6.822  10.342
46842SOL    HW142423  12.000   6.855  10.269
46842SOL    HW242424  11.863   6.868  10.332
46843SOL     OW42425   8.488   3.971  12.596
46843SOL    HW142426   8.503   4.049  12.648
46843SOL    HW242427   8.429   3.999  12.526
46844SOL     OW42428   2.643   5.803   5.267
46844SOL    HW142429   2.640   5.874   5.203
46844SOL    HW242430   2.655   5.723   5.214
46845SOL     OW42431  13.067   5.396   5.738
46845SOL    HW142432  13.030   5.340   5.806
46845SOL    HW242433  12.996   5.456   5.715
46846SOL     OW42434   9.261  11.815   2.539
46846SOL    HW142435   9.171  11.785   2.554
46846SOL    HW242436   9.315  11.751   2.586
46847SOL     OW42437   4.754   3.024   3.728
46847SOL    HW142438   4.774   2.931   3.738
46847SOL    HW242439   4.834   3.063   3.694
46848SOL     OW42440   6.892   7.076   0.459
46848SOL    HW142441   6.924   7.079   0.369
46848SOL    HW242442   6.895   7.166   0.489
46849SOL     OW42443   4.767   7.914   7.082
46849SOL    HW142444   4.840   7.853   7.071
46849SOL    HW242445   4.691   7.857   7.093
46850SOL     OW42446   4.382  13.343  10.836
46850SOL    HW142447   4.409  13.418  10.784
46850SOL    HW242448   4.354  13.380  10.920
46851SOL     OW42449   8.738  14.393   2.231
46851SOL    HW142450   8.781  14.313   2.261
46851SOL    HW242451   8.809  14.457   2.223
46852SOL     OW42452   4.145   4.792   8.436
46852SOL    HW142453   4.062   4.839   8.426
46852SOL    HW242454   4.163   4.795   8.530
46853SOL     OW42455   4.432   3.084   7.982
46853SOL    HW142456   4.515   3.130   7.968
46853SOL    HW242457   4.402   3.060   7.895
46854SOL     OW42458   3.974   2.144   5.790
46854SOL    HW142459   4.058   2.181   5.763
46854SOL    HW242460   3.941   2.100   5.711
46855SOL     OW42461   8.382  14.285   6.817
46855SOL    HW142462   8.308  14.316   6.765
46855SOL    HW242463   8.385  14.346   6.891
46856SOL     OW42464   9.071   9.192  10.922
46856SOL    HW142465   9.031   9.259  10.978
46856SOL    HW242466   9.038   9.109  10.958
46857SOL     OW42467   1.888   6.993   8.627
46857SOL    HW142468   1.823   7.062   8.641
46857SOL    HW242469   1.850   6.939   8.558
46858SOL     OW42470   4.944  14.581  13.843
46858SOL    HW142471   4.893  14.648  13.798
46858SOL    HW242472   5.027  14.577  13.794
46859SOL     OW42473  13.458   1.044   9.791
46859SOL    HW142474  13.486   1.132   9.818
46859SOL    HW242475  13.363   1.045   9.802
46860SOL     OW42476  11.004  14.583   5.569
46860SOL    HW142477  10.998  14.677   5.552
46860SOL    HW242478  11.093  14.560   5.542
46861SOL     OW42479   2.953   0.939   3.186
46861SOL    HW142480   3.015   0.981   3.246
46861SOL    HW242481   2.889   1.007   3.164
46862SOL     OW42482  10.635   3.688   4.582
46862SOL    HW142483  10.690   3.741   4.640
46862SOL    HW242484  10.652   3.723   4.495
46863SOL     OW42485   4.658   8.617   4.708
46863SOL    HW142486   4.698   8.579   4.786
46863SOL    HW242487   4.732   8.649   4.657
46864SOL     OW42488   5.138   4.734  10.297
46864SOL    HW142489   5.226   4.696  10.297
46864SOL    HW242490   5.111   4.731  10.389
46865SOL     OW42491  12.931   0.063   7.292
46865SOL    HW142492  13.021   0.054   7.324
46865SOL    HW242493  12.913  14.854   7.249
46866SOL     OW42494   7.805   6.028   2.258
46866SOL    HW142495   7.848   5.946   2.234
46866SOL    HW242496   7.877   6.091   2.268
46867SOL     OW42497   0.876   9.962   1.247
46867SOL    HW142498   0.966   9.984   1.223
46867SOL    HW242499   0.882   9.932   1.338
46868SOL     OW42500  12.554   2.688  13.789
46868SOL    HW142501  12.566   2.680  13.884
46868SOL    HW242502  12.521   2.603  13.762
46869SOL     OW42503   4.316   6.098   7.546
46869SOL    HW142504   4.387   6.051   7.590
46869SOL    HW242505   4.286   6.038   7.477
46870SOL     OW42506   6.133   9.163   3.915
46870SOL    HW142507   6.171   9.121   3.838
46870SOL    HW242508   6.056   9.111   3.936
46871SOL     OW42509   1.010   4.824   2.925
46871SOL    HW142510   1.056   4.743   2.904
46871SOL    HW242511   1.037   4.886   2.858
46872SOL     OW42512  12.306   8.302   3.098
46872SOL    HW142513  12.260   8.231   3.143
46872SOL    HW242514  12.393   8.266   3.080
46873SOL     OW42515   2.193   0.419   9.624
46873SOL    HW142516   2.263   0.436   9.687
46873SOL    HW242517   2.236   0.374   9.551
46874SOL     OW42518  14.312   0.262  14.513
46874SOL    HW142519  14.291   0.354  14.530
46874SOL    HW242520  14.230   0.215  14.531
46875SOL     OW42521   9.605  12.954   5.922
46875SOL    HW142522   9.538  12.948   5.989
46875SOL    HW242523   9.656  12.873   5.931
46876SOL     OW42524  14.080  13.163  13.061
46876SOL    HW142525  14.032  13.085  13.034
46876SOL    HW242526  14.012  13.226  13.084
46877SOL     OW42527   5.630  12.732  12.932
46877SOL    HW142528   5.715  12.695  12.909
46877SOL    HW242529   5.591  12.667  12.991
46878SOL     OW42530  12.462   5.168   6.054
46878SOL    HW142531  12.454   5.243   6.114
46878SOL    HW242532  12.543   5.125   6.081
46879SOL     OW42533  12.128   7.137   3.149
46879SOL    HW142534  12.222   7.119   3.146
46879SOL    HW242535  12.118   7.195   3.224
46880SOL     OW42536  11.371  11.100   0.670
46880SOL    HW142537  11.402  11.053   0.593
46880SOL    HW242538  11.400  11.046   0.744
46881SOL     OW42539   7.006   8.574   3.581
46881SOL    HW142540   7.090   8.563   3.536
46881SOL    HW242541   6.945   8.598   3.511
46882SOL     OW42542   4.546  14.802  13.655
46882SOL    HW142543   4.498  14.789  13.573
46882SOL    HW242544   4.634  14.769  13.636
46883SOL     OW42545   5.244   2.949  10.528
46883SOL    HW142546   5.246   2.889  10.454
46883SOL    HW242547   5.156   2.941  10.564
46884SOL     OW42548   6.802  14.356   8.975
46884SOL    HW142549   6.875  14.414   8.997
46884SOL    HW242550   6.788  14.304   9.054
46885SOL     OW42551  10.221  12.912   1.087
46885SOL    HW142552  10.212  12.822   1.119
46885SOL    HW242553  10.219  12.903   0.992
46886SOL     OW42554   0.044   0.068   8.672
46886SOL    HW142555   0.108   0.132   8.702
46886SOL    HW242556  14.854   0.064   8.742
46887SOL     OW42557  12.778   9.412  13.871
46887SOL    HW142558  12.868   9.380  13.883
46887SOL    HW242559  12.759   9.396  13.779
46888SOL     OW42560  14.372  11.658  12.071
46888SOL    HW142561  14.326  11.724  12.123
46888SOL    HW242562  14.407  11.596  12.135
46889SOL     OW42563   4.082  10.978   8.461
46889SOL    HW142564   4.163  11.020   8.430
46889SOL    HW242565   4.100  10.953   8.551
46890SOL     OW42566   6.974   6.826   3.980
46890SOL    HW142567   6.985   6.736   3.951
46890SOL    HW242568   6.995   6.823   4.074
46891SOL     OW42569  12.620   8.526   7.124
46891SOL    HW142570  12.593   8.605   7.076
46891SOL    HW242571  12.675   8.559   7.195
46892SOL     OW42572   3.356   2.532   2.264
46892SOL    HW142573   3.304   2.473   2.319
46892SOL    HW242574   3.300   2.608   2.251
46893SOL     OW42575  11.181   8.537   2.143
46893SOL    HW142576  11.154   8.476   2.075
46893SOL    HW242577  11.276   8.538   2.138
46894SOL     OW42578   4.173   0.480   9.049
46894SOL    HW142579   4.173   0.531   9.130
46894SOL    HW242580   4.081   0.472   9.026
46895SOL     OW42581  11.637   4.921   2.428
46895SOL    HW142582  11.656   5.015   2.424
46895SOL    HW242583  11.703   4.881   2.371
46896SOL     OW42584   1.264  12.597   6.266
46896SOL    HW142585   1.203  12.528   6.238
46896SOL    HW242586   1.319  12.613   6.189
46897SOL     OW42587   0.542   6.098  11.460
46897SOL    HW142588   0.593   6.107  11.541
46897SOL    HW242589   0.471   6.162  11.470
46898SOL     OW42590  13.934  14.788   9.562
46898SOL    HW142591  13.960  14.810   9.472
46898SOL    HW242592  13.994  14.718   9.587
46899SOL     OW42593   3.076   1.824  12.303
46899SOL    HW142594   3.141   1.894  12.293
46899SOL    HW242595   2.992   1.869  12.294
46900SOL     OW42596   1.477   7.472   1.274
46900SOL    HW142597   1.493   7.390   1.320
46900SOL    HW242598   1.428   7.525   1.336
46901SOL     OW42599   3.621   6.350  14.709
46901SOL    HW142600   3.549   6.388  14.760
46901SOL    HW242601   3.623   6.403  14.629
46902SOL     OW42602   6.763   2.206  11.220
46902SOL    HW142603   6.786   2.205  11.127
46902SOL    HW242604   6.840   2.171  11.265
46903SOL     OW42605   0.294  13.845   6.187
46903SOL    HW142606   0.288  13.903   6.111
46903SOL    HW242607   0.269  13.759   6.153
46904SOL     OW42608   6.098   5.961   2.059
46904SOL    HW142609   6.098   6.055   2.042
46904SOL    HW242610   6.099   5.921   1.972
46905SOL     OW42611  12.762   3.768  13.119
46905SOL    HW142612  12.854   3.772  13.094
46905SOL    HW242613  12.714   3.782  13.038
46906SOL     OW42614  10.340   6.039  10.988
46906SOL    HW142615  10.358   6.046  10.894
46906SOL    HW242616  10.247   6.061  10.997
46907SOL     OW42617   4.077  12.303   9.064
46907SOL    HW142618   3.999  12.323   9.012
46907SOL    HW242619   4.146  12.290   8.999
46908SOL     OW42620   2.015   2.400   1.870
46908SOL    HW142621   2.028   2.324   1.927
46908SOL    HW242622   2.094   2.402   1.815
46909SOL     OW42623   4.663   1.185   5.032
46909SOL    HW142624   4.640   1.235   4.954
46909SOL    HW242625   4.687   1.098   4.999
46910SOL     OW42626   4.184   2.238   0.604
46910SOL    HW142627   4.144   2.250   0.518
46910SOL    HW242628   4.117   2.194   0.656
46911SOL     OW42629   2.864  11.027   1.404
46911SOL    HW142630   2.946  11.064   1.437
46911SOL    HW242631   2.870  10.934   1.424
46912SOL     OW42632   2.354   5.161  12.067
46912SOL    HW142633   2.348   5.242  12.017
46912SOL    HW242634   2.290   5.170  12.137
46913SOL     OW42635   7.464  11.893  12.693
46913SOL    HW142636   7.369  11.897  12.684
46913SOL    HW242637   7.492  11.827  12.630
46914SOL     OW42638   6.554   5.255   4.794
46914SOL    HW142639   6.549   5.323   4.861
46914SOL    HW242640   6.528   5.174   4.839
46915SOL     OW42641  13.279  12.534   5.831
46915SOL    HW142642  13.198  12.565   5.870
46915SOL    HW242643  13.261  12.444   5.804
46916SOL     OW42644  11.337   0.489  12.743
46916SOL    HW142645  11.326   0.581  12.718
46916SOL    HW242646  11.432   0.475  12.740
46917SOL     OW42647   6.418  10.522   0.300
46917SOL    HW142648   6.469  10.539   0.221
46917SOL    HW242649   6.345  10.468   0.270
46918SOL     OW42650   2.051   2.251  10.517
46918SOL    HW142651   2.102   2.327  10.489
46918SOL    HW242652   2.108   2.176  10.500
46919SOL     OW42653  13.896   5.753   7.441
46919SOL    HW142654  13.830   5.690   7.415
46919SOL    HW242655  13.979   5.712   7.417
46920SOL     OW42656   5.069   9.119  10.538
46920SOL    HW142657   5.080   9.201  10.587
46920SOL    HW242658   5.016   9.064  10.595
46921SOL     OW42659  11.407   1.839   1.815
46921SOL    HW142660  11.328   1.815   1.766
46921SOL    HW242661  11.375   1.890   1.889
46922SOL     OW42662   3.310   9.007   3.824
46922SOL    HW142663   3.330   9.101   3.824
46922SOL    HW242664   3.232   8.999   3.879
46923SOL     OW42665  14.460  10.915   5.371
46923SOL    HW142666  14.374  10.915   5.413
46923SOL    HW242667  14.454  10.845   5.306
46924SOL     OW42668   1.986   8.434   6.084
46924SOL    HW142669   1.947   8.518   6.059
46924SOL    HW242670   2.025   8.451   6.169
46925SOL     OW42671  14.266   8.049  14.176
46925SOL    HW142672  14.200   8.115  14.197
46925SOL    HW242673  14.276   7.999  14.257
46926SOL     OW42674  11.767   6.843   2.764
46926SOL    HW142675  11.850   6.878   2.797
46926SOL    HW242676  11.781   6.748   2.762
46927SOL     OW42677   6.650   0.164   5.898
46927SOL    HW142678   6.648   0.190   5.806
46927SOL    HW242679   6.739   0.182   5.926
46928SOL     OW42680  14.337  11.197  13.561
46928SOL    HW142681  14.325  11.129  13.495
46928SOL    HW242682  14.249  11.214  13.594
46929SOL     OW42683   4.848   2.712   1.329
46929SOL    HW142684   4.911   2.648   1.295
46929SOL    HW242685   4.786   2.660   1.379
46930SOL     OW42686   9.675   5.261   2.615
46930SOL    HW142687   9.673   5.323   2.688
46930SOL    HW242688   9.628   5.185   2.647
46931SOL     OW42689  11.183   2.852  14.228
46931SOL    HW142690  11.135   2.865  14.146
46931SOL    HW242691  11.117   2.823  14.291
46932SOL     OW42692   5.998   0.186   7.274
46932SOL    HW142693   6.052   0.241   7.331
46932SOL    HW242694   6.056   0.113   7.250
46933SOL     OW42695   8.461  13.264  13.295
46933SOL    HW142696   8.520  13.229  13.362
46933SOL    HW242697   8.464  13.199  13.224
46934SOL     OW42698   4.914  12.595  14.851
46934SOL    HW142699   4.875  12.653   0.042
46934SOL    HW242700   4.920  12.648  14.772
46935SOL     OW42701   6.234   6.868   8.806
46935SOL    HW142702   6.306   6.835   8.860
46935SOL    HW242703   6.162   6.807   8.822
46936SOL     OW42704   1.988   2.339   9.819
46936SOL    HW142705   2.001   2.338   9.914
46936SOL    HW242706   2.050   2.404   9.787
46937SOL     OW42707   5.975   3.897  14.861
46937SOL    HW142708   5.917   3.925  14.790
46937SOL    HW242709   5.917   3.892   0.062
46938SOL     OW42710  14.086   1.189  12.066
46938SOL    HW142711  14.073   1.151  12.153
46938SOL    HW242712  14.010   1.244  12.051
46939SOL     OW42713   3.580   2.294   5.715
46939SOL    HW142714   3.596   2.336   5.800
46939SOL    HW242715   3.590   2.201   5.733
46940SOL     OW42716  13.721   2.691   1.175
46940SOL    HW142717  13.651   2.686   1.240
46940SOL    HW242718  13.780   2.619   1.198
46941SOL     OW42719  12.966   3.266   2.163
46941SOL    HW142720  12.933   3.258   2.073
46941SOL    HW242721  12.898   3.226   2.217
46942SOL     OW42722   4.734  14.725   5.529
46942SOL    HW142723   4.770  14.786   5.465
46942SOL    HW242724   4.747  14.639   5.489
46943SOL     OW42725   9.786   2.406   1.581
46943SOL    HW142726   9.872   2.372   1.603
46943SOL    HW242727   9.735   2.395   1.661
46944SOL     OW42728   8.921   6.587  12.257
46944SOL    HW142729   8.912   6.529  12.333
46944SOL    HW242730   8.976   6.659  12.288
46945SOL     OW42731  12.747   4.596   8.690
46945SOL    HW142732  12.739   4.503   8.710
46945SOL    HW242733  12.840   4.608   8.670
46946SOL     OW42734  12.072  13.108  10.672
46946SOL    HW142735  12.137  13.039  10.687
46946SOL    HW242736  12.082  13.130  10.579
46947SOL     OW42737  13.807   3.972   4.769
46947SOL    HW142738  13.891   3.927   4.757
46947SOL    HW242739  13.742   3.902   4.769
46948SOL     OW42740  10.219   3.493   5.451
46948SOL    HW142741  10.136   3.474   5.494
46948SOL    HW242742  10.257   3.407   5.433
46949SOL     OW42743   1.644  13.408   4.172
46949SOL    HW142744   1.619  13.343   4.106
46949SOL    HW242745   1.580  13.396   4.243
46950SOL     OW42746   6.069   0.812  11.121
46950SOL    HW142747   6.041   0.897  11.156
46950SOL    HW242748   6.009   0.749  11.162
46951SOL     OW42749  12.449   0.342   0.163
46951SOL    HW142750  12.406   0.378   0.240
46951SOL    HW242751  12.397   0.375   0.089
46952SOL     OW42752   5.080  14.164  12.704
46952SOL    HW142753   5.059  14.227  12.635
46952SOL    HW242754   5.014  14.096  12.696
46953SOL     OW42755   7.000   3.530  13.986
46953SOL    HW142756   7.059   3.601  14.012
46953SOL    HW242757   6.914   3.571  13.978
46954SOL     OW42758  11.752   3.091  12.128
46954SOL    HW142759  11.666   3.075  12.167
46954SOL    HW242760  11.734   3.096  12.034
46955SOL     OW42761  10.413   4.309   6.181
46955SOL    HW142762  10.406   4.214   6.174
46955SOL    HW242763  10.333   4.336   6.225
46956SOL     OW42764   0.165  14.343  12.025
46956SOL    HW142765   0.218  14.305  12.095
46956SOL    HW242766   0.148  14.269  11.966
46957SOL     OW42767  13.597   8.442   0.625
46957SOL    HW142768  13.506   8.426   0.651
46957SOL    HW242769  13.646   8.434   0.707
46958SOL     OW42770  10.964   2.491   6.033
46958SOL    HW142771  10.888   2.506   6.090
46958SOL    HW242772  10.951   2.402   5.999
46959SOL     OW42773   4.176  13.485  14.815
46959SOL    HW142774   4.205  13.547   0.007
46959SOL    HW242775   4.202  13.399  14.849
46960SOL     OW42776   9.541   9.921   1.267
46960SOL    HW142777   9.464   9.869   1.241
46960SOL    HW242778   9.588   9.936   1.185
46961SOL     OW42779   1.753   0.744   0.337
46961SOL    HW142780   1.663   0.755   0.365
46961SOL    HW242781   1.748   0.685   0.262
46962SOL     OW42782  14.850   4.503   0.963
46962SOL    HW142783   0.019   4.568   1.019
46962SOL    HW242784   0.007   4.419   0.995
46963SOL     OW42785   7.557  10.347  13.856
46963SOL    HW142786   7.607  10.270  13.884
46963SOL    HW242787   7.473  10.340  13.902
46964SOL     OW42788  12.317  10.566   4.695
46964SOL    HW142789  12.339  10.482   4.654
46964SOL    HW242790  12.222  10.563   4.705
46965SOL     OW42791   9.768   7.866   9.898
46965SOL    HW142792   9.761   7.940   9.837
46965SOL    HW242793   9.858   7.870   9.930
46966SOL     OW42794   0.029  10.612   3.564
46966SOL    HW142795  14.874  10.551   3.496
46966SOL    HW242796  14.827  10.664   3.584
46967SOL     OW42797  14.143  10.719   2.520
46967SOL    HW142798  14.118  10.742   2.609
46967SOL    HW242799  14.214  10.781   2.499
46968SOL     OW42800   7.257  14.618   9.121
46968SOL    HW142801   7.196  14.674   9.170
46968SOL    HW242802   7.306  14.572   9.189
46969SOL     OW42803  14.067   6.273   1.812
46969SOL    HW142804  14.008   6.284   1.887
46969SOL    HW242805  14.025   6.322   1.741
46970SOL     OW42806   0.818   2.361   6.903
46970SOL    HW142807   0.878   2.419   6.855
46970SOL    HW242808   0.865   2.339   6.983
46971SOL     OW42809   1.463   2.399   3.556
46971SOL    HW142810   1.478   2.316   3.510
46971SOL    HW242811   1.498   2.384   3.644
46972SOL     OW42812  10.860   3.313  12.712
46972SOL    HW142813  10.853   3.319  12.807
46972SOL    HW242814  10.828   3.398  12.681
46973SOL     OW42815   0.348   8.320  12.619
46973SOL    HW142816   0.308   8.289  12.700
46973SOL    HW242817   0.278   8.313  12.554
46974SOL     OW42818   9.472   2.336   9.123
46974SOL    HW142819   9.468   2.250   9.082
46974SOL    HW242820   9.435   2.323   9.210
46975SOL     OW42821  11.341   3.431   3.711
46975SOL    HW142822  11.270   3.427   3.647
46975SOL    HW242823  11.389   3.349   3.699
46976SOL     OW42824  12.953   5.296   1.776
46976SOL    HW142825  13.015   5.366   1.756
46976SOL    HW242826  12.899   5.330   1.847
46977SOL     OW42827  10.436  11.986  14.044
46977SOL    HW142828  10.418  11.985  13.950
46977SOL    HW242829  10.502  12.054  14.056
46978SOL     OW42830   0.193   2.793   0.203
46978SOL    HW142831   0.203   2.741   0.123
46978SOL    HW242832   0.168   2.730   0.270
46979SOL     OW42833  10.263   3.518   7.520
46979SOL    HW142834  10.284   3.491   7.430
46979SOL    HW242835  10.261   3.614   7.515
46980SOL     OW42836   0.765   2.939   1.344
46980SOL    HW142837   0.853   2.947   1.307
46980SOL    HW242838   0.778   2.941   1.439
46981SOL     OW42839  12.711   4.317   8.745
46981SOL    HW142840  12.717   4.290   8.654
46981SOL    HW242841  12.655   4.252   8.786
46982SOL     OW42842   0.956  13.383  13.015
46982SOL    HW142843   0.862  13.402  13.023
46982SOL    HW242844   0.975  13.399  12.922
46983SOL     OW42845  13.240   6.163   4.561
46983SOL    HW142846  13.291   6.151   4.482
46983SOL    HW242847  13.218   6.256   4.562
46984SOL     OW42848   8.865   1.952   0.391
46984SOL    HW142849   8.937   1.927   0.449
46984SOL    HW242850   8.888   1.913   0.306
46985SOL     OW42851   5.082   6.202   6.250
46985SOL    HW142852   5.113   6.111   6.249
46985SOL    HW242853   5.133   6.243   6.320
46986SOL     OW42854  13.259   7.955   6.330
46986SOL    HW142855  13.249   8.047   6.356
46986SOL    HW242856  13.327   7.921   6.387
46987SOL     OW42857   5.217   1.822  12.972
46987SOL    HW142858   5.146   1.769  12.936
46987SOL    HW242859   5.187   1.912  12.962
46988SOL     OW42860   4.007  11.017   2.524
46988SOL    HW142861   4.002  10.926   2.552
46988SOL    HW242862   3.962  11.019   2.439
46989SOL     OW42863  13.382   3.517   7.800
46989SOL    HW142864  13.454   3.478   7.751
46989SOL    HW242865  13.381   3.609   7.772
46990SOL     OW42866   3.485   8.055   4.600
46990SOL    HW142867   3.539   8.063   4.679
46990SOL    HW242868   3.507   7.968   4.565
46991SOL     OW42869   0.317   3.248   6.919
46991SOL    HW142870   0.287   3.175   6.865
46991SOL    HW242871   0.399   3.217   6.958
46992SOL     OW42872   7.852  14.682   1.942
46992SOL    HW142873   7.801  14.649   2.015
46992SOL    HW242874   7.864  14.775   1.961
46993SOL     OW42875   5.925  11.721   7.938
46993SOL    HW142876   5.832  11.728   7.958
46993SOL    HW242877   5.967  11.712   8.024
46994SOL     OW42878   7.478   2.187   9.431
46994SOL    HW142879   7.477   2.140   9.514
46994SOL    HW242880   7.558   2.240   9.434
46995SOL     OW42881   2.679   7.934   2.023
46995SOL    HW142882   2.698   7.929   1.929
46995SOL    HW242883   2.734   8.005   2.055
46996SOL     OW42884  12.354  14.617   4.405
46996SOL    HW142885  12.315  14.549   4.459
46996SOL    HW242886  12.436  14.640   4.449
46997SOL     OW42887  14.119   7.497  13.613
46997SOL    HW142888  14.058   7.537  13.551
46997SOL    HW242889  14.076   7.507  13.698
46998SOL     OW42890   6.585  13.071   0.889
46998SOL    HW142891   6.540  13.155   0.878
46998SOL    HW242892   6.521  13.016   0.934
46999SOL     OW42893   9.988  11.332  12.956
46999SOL    HW142894   9.962  11.324  13.047
46999SOL    HW242895  10.027  11.248  12.934
47000SOL     OW42896   4.678   0.689   9.647
47000SOL    HW142897   4.764   0.665   9.611
47000SOL    HW242898   4.692   0.694   9.741
47001SOL     OW42899  12.742   4.290  13.114
47001SOL    HW142900  12.654   4.321  13.134
47001SOL    HW242901  12.799   4.365  13.132
47002SOL     OW42902  13.423  13.782   9.150
47002SOL    HW142903  13.385  13.696   9.137
47002SOL    HW242904  13.442  13.814   9.062
47003SOL     OW42905  13.526  14.111   0.815
47003SOL    HW142906  13.572  14.032   0.843
47003SOL    HW242907  13.577  14.143   0.740
47004SOL     OW42908   8.374  12.469  12.895
47004SOL    HW142909   8.300  12.412  12.874
47004SOL    HW242910   8.364  12.489  12.988
47005SOL     OW42911  10.896   1.597  11.838
47005SOL    HW142912  10.921   1.517  11.791
47005SOL    HW242913  10.957   1.663  11.807
47006SOL     OW42914   9.643   4.268   1.125
47006SOL    HW142915   9.612   4.270   1.216
47006SOL    HW242916   9.672   4.357   1.108
47007SOL     OW42917  12.532   0.051  10.707
47007SOL    HW142918  12.544   0.064  10.801
47007SOL    HW242919  12.506   0.137  10.674
47008SOL     OW42920   5.059  10.500  10.560
47008SOL    HW142921   5.150  10.527  10.572
47008SOL    HW242922   5.018  10.520  10.644
47009SOL     OW42923   6.669  13.478   0.315
47009SOL    HW142924   6.639  13.546   0.255
47009SOL    HW242925   6.733  13.428   0.264
47010SOL     OW42926   1.629  10.913   1.458
47010SOL    HW142927   1.699  10.876   1.405
47010SOL    HW242928   1.618  11.002   1.424
47011SOL     OW42929  12.957   8.238   4.213
47011SOL    HW142930  12.893   8.234   4.284
47011SOL    HW242931  12.960   8.148   4.179
47012SOL     OW42932   8.837  14.281   8.626
47012SOL    HW142933   8.884  14.359   8.657
47012SOL    HW242934   8.905  14.223   8.592
47013SOL     OW42935   0.245   3.696   7.585
47013SOL    HW142936   0.186   3.771   7.575
47013SOL    HW242937   0.197   3.623   7.546
47014SOL     OW42938   2.644   5.670   4.811
47014SOL    HW142939   2.699   5.645   4.736
47014SOL    HW242940   2.679   5.620   4.884
47015SOL     OW42941   3.458   4.217   0.194
47015SOL    HW142942   3.433   4.246   0.107
47015SOL    HW242943   3.525   4.150   0.178
47016SOL     OW42944   4.021   2.461   5.808
47016SOL    HW142945   4.071   2.536   5.842
47016SOL    HW242946   4.071   2.431   5.733
47017SOL     OW42947   1.391   1.619   1.534
47017SOL    HW142948   1.452   1.617   1.608
47017SOL    HW242949   1.333   1.545   1.548
47018SOL     OW42950   7.149   0.571   3.618
47018SOL    HW142951   7.152   0.499   3.556
47018SOL    HW242952   7.233   0.567   3.664
47019SOL     OW42953   6.900   4.380   2.917
47019SOL    HW142954   6.853   4.350   2.838
47019SOL    HW242955   6.992   4.362   2.898
47020SOL     OW42956   2.551  12.894   3.110
47020SOL    HW142957   2.600  12.852   3.039
47020SOL    HW242958   2.463  12.907   3.075
47021SOL     OW42959  10.650   3.810   0.962
47021SOL    HW142960  10.717   3.783   1.025
47021SOL    HW242961  10.609   3.729   0.933
47022SOL     OW42962   9.778   0.132   4.863
47022SOL    HW142963   9.793   0.038   4.856
47022SOL    HW242964   9.691   0.145   4.824
47023SOL     OW42965   9.934  14.608   3.688
47023SOL    HW142966   9.954  14.537   3.628
47023SOL    HW242967   9.840  14.620   3.682
47024SOL     OW42968  12.324   3.092   8.679
47024SOL    HW142969  12.353   3.127   8.763
47024SOL    HW242970  12.347   2.999   8.683
47025SOL     OW42971   7.688  12.341   9.546
47025SOL    HW142972   7.688  12.245   9.539
47025SOL    HW242973   7.608  12.361   9.595
47026SOL     OW42974   5.777   9.131   8.201
47026SOL    HW142975   5.842   9.071   8.240
47026SOL    HW242976   5.732   9.077   8.136
47027SOL     OW42977   1.288  11.594   5.483
47027SOL    HW142978   1.229  11.660   5.447
47027SOL    HW242979   1.297  11.530   5.412
47028SOL     OW42980   6.706   3.763   0.350
47028SOL    HW142981   6.612   3.768   0.333
47028SOL    HW242982   6.723   3.669   0.361
47029SOL     OW42983  11.077   7.227   7.270
47029SOL    HW142984  11.013   7.198   7.205
47029SOL    HW242985  11.113   7.146   7.306
47030SOL     OW42986   0.136   2.298   8.382
47030SOL    HW142987   0.078   2.374   8.387
47030SOL    HW242988   0.117   2.259   8.297
47031SOL     OW42989  14.160   4.883   8.813
47031SOL    HW142990  14.159   4.822   8.887
47031SOL    HW242991  14.238   4.858   8.763
47032SOL     OW42992   5.104   8.248   6.167
47032SOL    HW142993   5.022   8.249   6.117
47032SOL    HW242994   5.078   8.266   6.257
47033SOL     OW42995   8.397  10.488  10.612
47033SOL    HW142996   8.377  10.540  10.689
47033SOL    HW242997   8.331  10.514  10.547
47034SOL     OW42998   6.259   4.111   7.017
47034SOL    HW142999   6.311   4.047   6.969
47034SOL    HW243000   6.307   4.194   7.006
47035SOL     OW43001   9.441   8.669   8.013
47035SOL    HW143002   9.506   8.736   7.995
47035SOL    HW243003   9.372   8.683   7.948
47036SOL     OW43004  11.971   6.904  13.183
47036SOL    HW143005  11.977   6.990  13.142
47036SOL    HW243006  11.878   6.891  13.201
47037SOL     OW43007  11.537   9.309   7.667
47037SOL    HW143008  11.522   9.403   7.665
47037SOL    HW243009  11.605   9.293   7.601
47038SOL     OW43010  12.755   1.656  14.021
47038SOL    HW143011  12.699   1.733  14.017
47038SOL    HW243012  12.832   1.679  13.969
47039SOL     OW43013  10.134   6.515   5.618
47039SOL    HW143014  10.156   6.476   5.702
47039SOL    HW243015  10.219   6.531   5.576
47040SOL     OW43016   9.432   1.218   6.347
47040SOL    HW143017   9.450   1.125   6.335
47040SOL    HW243018   9.482   1.262   6.279
47041SOL     OW43019  12.275  14.108  10.344
47041SOL    HW143020  12.330  14.170  10.297
47041SOL    HW243021  12.274  14.030  10.289
47042SOL     OW43022   3.588   9.034   6.584
47042SOL    HW143023   3.555   9.123   6.594
47042SOL    HW243024   3.677   9.037   6.619
47043SOL     OW43025  11.127   0.711   0.968
47043SOL    HW143026  11.111   0.618   0.953
47043SOL    HW243027  11.110   0.723   1.062
47044SOL     OW43028   1.240   9.833  14.839
47044SOL    HW143029   1.305   9.789  14.784
47044SOL    HW243030   1.282   9.916  14.864
47045SOL     OW43031   1.862  12.273   7.918
47045SOL    HW143032   1.848  12.292   8.010
47045SOL    HW243033   1.808  12.196   7.900
47046SOL     OW43034   4.114   8.757   1.115
47046SOL    HW143035   4.207   8.782   1.119
47046SOL    HW243036   4.096   8.750   1.021
47047SOL     OW43037   8.741  14.409   3.581
47047SOL    HW143038   8.732  14.382   3.490
47047SOL    HW243039   8.792  14.490   3.578
47048SOL     OW43040  14.596   5.250  11.375
47048SOL    HW143041  14.509   5.277  11.403
47048SOL    HW243042  14.640   5.224  11.456
47049SOL     OW43043  12.636   7.239   9.356
47049SOL    HW143044  12.644   7.171   9.289
47049SOL    HW243045  12.724   7.276   9.363
47050SOL     OW43046  11.920   9.575   7.199
47050SOL    HW143047  11.843   9.608   7.154
47050SOL    HW243048  11.906   9.481   7.204
47051SOL     OW43049  10.518   6.848   6.424
47051SOL    HW143050  10.439   6.900   6.435
47051SOL    HW243051  10.507   6.774   6.484
47052SOL     OW43052   3.330   5.740   5.493
47052SOL    HW143053   3.278   5.776   5.421
47052SOL    HW243054   3.278   5.757   5.572
47053SOL     OW43055   1.448   8.927   9.931
47053SOL    HW143056   1.399   9.007   9.914
47053SOL    HW243057   1.533   8.942   9.890
47054SOL     OW43058   3.076   2.706   7.585
47054SOL    HW143059   3.061   2.620   7.624
47054SOL    HW243060   3.112   2.759   7.656
47055SOL     OW43061   6.879   2.329   9.223
47055SOL    HW143062   6.849   2.419   9.208
47055SOL    HW243063   6.822   2.275   9.168
47056SOL     OW43064   6.239   1.765   3.768
47056SOL    HW143065   6.206   1.793   3.854
47056SOL    HW243066   6.334   1.770   3.776
47057SOL     OW43067   3.918   9.307   9.974
47057SOL    HW143068   3.884   9.264  10.052
47057SOL    HW243069   3.950   9.236   9.919
47058SOL     OW43070   0.029   9.465   9.999
47058SOL    HW143071  14.861   9.400  10.054
47058SOL    HW243072  14.839   9.487   9.932
47059SOL     OW43073   6.827   3.570   9.505
47059SOL    HW143074   6.851   3.601   9.593
47059SOL    HW243075   6.733   3.587   9.500
47060SOL     OW43076   3.664   9.946  14.009
47060SOL    HW143077   3.758   9.959  13.996
47060SOL    HW243078   3.623  10.020  13.964
47061SOL     OW43079   5.402   0.749  13.461
47061SOL    HW143080   5.342   0.817  13.490
47061SOL    HW243081   5.352   0.699  13.395
47062SOL     OW43082   7.539   9.469   9.858
47062SOL    HW143083   7.627   9.503   9.871
47062SOL    HW243084   7.488   9.503   9.931
47063SOL     OW43085  12.217   3.708   4.471
47063SOL    HW143086  12.164   3.655   4.529
47063SOL    HW243087  12.165   3.715   4.390
47064SOL     OW43088   3.940   0.476   8.882
47064SOL    HW143089   3.951   0.555   8.828
47064SOL    HW243090   3.916   0.408   8.819
47065SOL     OW43091  14.477   8.455   0.686
47065SOL    HW143092  14.428   8.537   0.691
47065SOL    HW243093  14.552   8.476   0.630
47066SOL     OW43094   5.101   2.465   4.423
47066SOL    HW143095   5.020   2.455   4.374
47066SOL    HW243096   5.168   2.481   4.356
47067SOL     OW43097  13.171   1.903   2.951
47067SOL    HW143098  13.153   1.826   3.005
47067SOL    HW243099  13.204   1.867   2.868
47068SOL     OW43100   7.108  11.614   2.004
47068SOL    HW143101   7.114  11.602   1.910
47068SOL    HW243102   7.180  11.673   2.026
47069SOL     OW43103   7.574  12.331   4.426
47069SOL    HW143104   7.584  12.324   4.521
47069SOL    HW243105   7.616  12.414   4.405
47070SOL     OW43106   3.563  11.558   8.158
47070SOL    HW143107   3.612  11.476   8.144
47070SOL    HW243108   3.525  11.549   8.245
47071SOL     OW43109  10.690  12.619  13.868
47071SOL    HW143110  10.667  12.709  13.893
47071SOL    HW243111  10.765  12.629  13.810
47072SOL     OW43112  13.619   1.624  14.175
47072SOL    HW143113  13.647   1.715  14.162
47072SOL    HW243114  13.610   1.615  14.270
47073SOL     OW43115  12.978   8.501  10.138
47073SOL    HW143116  13.030   8.435  10.092
47073SOL    HW243117  13.039   8.541  10.200
47074SOL     OW43118   2.713  10.075   0.256
47074SOL    HW143119   2.735  10.166   0.238
47074SOL    HW243120   2.624  10.064   0.222
47075SOL     OW43121   7.848   1.154   2.786
47075SOL    HW143122   7.801   1.236   2.797
47075SOL    HW243123   7.786   1.086   2.812
47076SOL     OW43124   4.943   3.391   8.918
47076SOL    HW143125   4.921   3.298   8.914
47076SOL    HW243126   5.039   3.393   8.919
47077SOL     OW43127   2.887   8.241   2.363
47077SOL    HW143128   2.949   8.217   2.433
47077SOL    HW243129   2.925   8.321   2.325
47078SOL     OW43130   1.211   3.765  12.654
47078SOL    HW143131   1.130   3.815  12.666
47078SOL    HW243132   1.217   3.710  12.732
47079SOL     OW43133   8.244   3.357   9.382
47079SOL    HW143134   8.332   3.395   9.371
47079SOL    HW243135   8.193   3.394   9.310
47080SOL     OW43136   7.275   7.216  11.489
47080SOL    HW143137   7.248   7.250  11.574
47080SOL    HW243138   7.370   7.215  11.493
47081SOL     OW43139   7.284   4.526  12.885
47081SOL    HW143140   7.323   4.503  12.801
47081SOL    HW243141   7.206   4.577  12.863
47082SOL     OW43142  13.577  10.480  12.521
47082SOL    HW143143  13.577  10.449  12.431
47082SOL    HW243144  13.657  10.533  12.529
47083SOL     OW43145  14.608   2.522  13.817
47083SOL    HW143146  14.553   2.561  13.886
47083SOL    HW243147  14.633   2.596  13.762
47084SOL     OW43148  10.901  11.324   8.254
47084SOL    HW143149  10.904  11.414   8.221
47084SOL    HW243150  10.856  11.275   8.185
47085SOL     OW43151  14.303   8.815   7.971
47085SOL    HW143152  14.397   8.814   7.956
47085SOL    HW243153  14.267   8.861   7.895
47086SOL     OW43154  10.953   9.887  11.152
47086SOL    HW143155  10.952   9.797  11.183
47086SOL    HW243156  11.004   9.935  11.218
47087SOL     OW43157  11.770   6.149  11.523
47087SOL    HW143158  11.676   6.132  11.529
47087SOL    HW243159  11.793   6.130  11.432
47088SOL     OW43160  11.511   2.801  13.973
47088SOL    HW143161  11.424   2.766  13.991
47088SOL    HW243162  11.547   2.822  14.059
47089SOL     OW43163   0.009   8.509  12.282
47089SOL    HW143164  14.874   8.584  12.340
47089SOL    HW243165   0.071   8.538  12.215
47090SOL     OW43166   1.075   3.615   8.289
47090SOL    HW143167   1.158   3.582   8.322
47090SOL    HW243168   1.064   3.700   8.332
47091SOL     OW43169   4.616  10.565   6.286
47091SOL    HW143170   4.700  10.559   6.240
47091SOL    HW243171   4.565  10.628   6.236
47092SOL     OW43172   3.848  14.185   5.402
47092SOL    HW143173   3.935  14.218   5.381
47092SOL    HW243174   3.816  14.147   5.320
47093SOL     OW43175   3.249   0.198   5.027
47093SOL    HW143176   3.279   0.186   4.937
47093SOL    HW243177   3.295   0.130   5.077
47094SOL     OW43178   7.406  13.430   3.992
47094SOL    HW143179   7.332  13.373   3.968
47094SOL    HW243180   7.452  13.381   4.060
47095SOL     OW43181   3.810   9.245   0.075
47095SOL    HW143182   3.799   9.320   0.134
47095SOL    HW243183   3.903   9.245   0.053
47096SOL     OW43184   0.218   7.871   9.227
47096SOL    HW143185   0.151   7.932   9.198
47096SOL    HW243186   0.286   7.877   9.160
47097SOL     OW43187   6.138   6.509  10.869
47097SOL    HW143188   6.145   6.604  10.869
47097SOL    HW243189   6.197   6.481  10.939
47098SOL     OW43190   1.941   5.842  13.448
47098SOL    HW143191   1.864   5.891  13.476
47098SOL    HW243192   1.924   5.752  13.476
47099SOL     OW43193   5.324  14.808  11.073
47099SOL    HW143194   5.373  14.733  11.105
47099SOL    HW243195   5.233  14.782  11.077
47100SOL     OW43196   5.583   0.206   2.021
47100SOL    HW143197   5.494   0.177   2.040
47100SOL    HW243198   5.572   0.296   1.991
47101SOL     OW43199  14.363   6.177  13.836
47101SOL    HW143200  14.332   6.267  13.838
47101SOL    HW243201  14.443   6.177  13.889
47102SOL     OW43202  12.963   1.686  11.669
47102SOL    HW143203  13.057   1.706  11.667
47102SOL    HW243204  12.952   1.627  11.743
47103SOL     OW43205   7.663   7.862  12.833
47103SOL    HW143206   7.588   7.814  12.797
47103SOL    HW243207   7.633   7.953  12.835
47104SOL     OW43208   9.038   0.874   2.100
47104SOL    HW143209   8.992   0.824   2.168
47104SOL    HW243210   8.968   0.918   2.052
47105SOL     OW43211   7.936   4.718   0.906
47105SOL    HW143212   8.016   4.767   0.928
47105SOL    HW243213   7.898   4.697   0.991
47106SOL     OW43214   9.515  12.943   1.827
47106SOL    HW143215   9.581  12.895   1.877
47106SOL    HW243216   9.558  12.959   1.742
47107SOL     OW43217   4.118   3.938   8.688
47107SOL    HW143218   4.023   3.933   8.679
47107SOL    HW243219   4.149   3.853   8.657
47108SOL     OW43220   6.823   8.789  10.304
47108SOL    HW143221   6.870   8.870  10.285
47108SOL    HW243222   6.814   8.746  10.219
47109SOL     OW43223  10.299   7.930   7.408
47109SOL    HW143224  10.236   7.858   7.414
47109SOL    HW243225  10.379   7.895   7.447
47110SOL     OW43226   1.953   0.373   1.118
47110SOL    HW143227   1.929   0.416   1.036
47110SOL    HW243228   2.046   0.393   1.129
47111SOL     OW43229  13.561   4.450   0.581
47111SOL    HW143230  13.612   4.530   0.563
47111SOL    HW243231  13.470   4.475   0.564
47112SOL     OW43232  10.040  10.428  14.760
47112SOL    HW143233   9.998  10.510  14.731
47112SOL    HW243234  10.123  10.456  14.799
47113SOL     OW43235  14.747   9.083  12.618
47113SOL    HW143236  14.659   9.073  12.582
47113SOL    HW243237  14.735   9.073  12.713
47114SOL     OW43238   2.635  10.882  13.503
47114SOL    HW143239   2.725  10.857  13.525
47114SOL    HW243240   2.585  10.862  13.582
47115SOL     OW43241   4.202  11.808   8.166
47115SOL    HW143242   4.146  11.733   8.187
47115SOL    HW243243   4.187  11.870   8.237
47116SOL     OW43244  11.936   9.211   0.494
47116SOL    HW143245  11.872   9.266   0.449
47116SOL    HW243246  11.933   9.127   0.447
47117SOL     OW43247   9.839   6.115  11.789
47117SOL    HW143248   9.767   6.051  11.786
47117SOL    HW243249   9.796   6.199  11.801
47118SOL     OW43250   3.890   7.725   1.410
47118SOL    HW143251   3.935   7.701   1.329
47118SOL    HW243252   3.858   7.642   1.445
47119SOL     OW43253   4.714   1.438  14.173
47119SOL    HW143254   4.728   1.343  14.176
47119SOL    HW243255   4.769   1.468  14.101
47120SOL     OW43256  10.859  13.846   6.853
47120SOL    HW143257  10.847  13.915   6.788
47120SOL    HW243258  10.952  13.852   6.877
47121SOL     OW43259   9.216  12.230   1.582
47121SOL    HW143260   9.193  12.206   1.493
47121SOL    HW243261   9.312  12.236   1.581
47122SOL     OW43262   2.785   2.411   2.846
47122SOL    HW143263   2.850   2.464   2.802
47122SOL    HW243264   2.704   2.424   2.796
47123SOL     OW43265   4.319  13.982   9.957
47123SOL    HW143266   4.394  13.997   9.900
47123SOL    HW243267   4.265  13.918   9.910
47124SOL     OW43268   8.158  14.560  12.595
47124SOL    HW143269   8.064  14.569  12.613
47124SOL    HW243270   8.164  14.549  12.500
47125SOL     OW43271   2.343   0.421   3.487
47125SOL    HW143272   2.254   0.409   3.519
47125SOL    HW243273   2.341   0.385   3.398
47126SOL     OW43274  14.009   9.265   3.004
47126SOL    HW143275  14.026   9.197   2.940
47126SOL    HW243276  13.916   9.284   2.995
47127SOL     OW43277   7.848  13.789  13.487
47127SOL    HW143278   7.849  13.731  13.411
47127SOL    HW243279   7.803  13.868  13.456
47128SOL     OW43280   6.414  12.169   5.104
47128SOL    HW143281   6.502  12.206   5.102
47128SOL    HW243282   6.428  12.074   5.102
47129SOL     OW43283   3.796   4.140   3.143
47129SOL    HW143284   3.747   4.217   3.112
47129SOL    HW243285   3.812   4.089   3.064
47130SOL     OW43286   9.869   0.342  10.448
47130SOL    HW143287   9.845   0.433  10.468
47130SOL    HW243288   9.854   0.294  10.529
47131SOL     OW43289   8.802  14.458  12.008
47131SOL    HW143290   8.745  14.382  12.015
47131SOL    HW243291   8.833  14.456  11.917
47132SOL     OW43292   6.929   3.784   5.419
47132SOL    HW143293   6.968   3.855   5.470
47132SOL    HW243294   6.992   3.713   5.425
47133SOL     OW43295  14.861   6.154   9.711
47133SOL    HW143296   0.076   6.189   9.715
47133SOL    HW243297  14.870   6.063   9.741
47134SOL     OW43298  13.101   4.475  11.734
47134SOL    HW143299  13.095   4.511  11.822
47134SOL    HW243300  13.167   4.528  11.691
47135SOL     OW43301   5.988   6.084  10.793
47135SOL    HW143302   5.946   6.169  10.793
47135SOL    HW243303   5.936   6.031  10.732
47136SOL     OW43304   0.229  12.327  10.429
47136SOL    HW143305   0.143  12.299  10.398
47136SOL    HW243306   0.235  12.419  10.403
47137SOL     OW43307   5.449  10.941  14.831
47137SOL    HW143308   5.395  10.962  14.755
47137SOL    HW243309   5.466  10.847  14.823
47138SOL     OW43310   8.596   0.677   9.035
47138SOL    HW143311   8.579   0.710   8.947
47138SOL    HW243312   8.618   0.754   9.086
47139SOL     OW43313   0.779  10.221  10.465
47139SOL    HW143314   0.755  10.131  10.486
47139SOL    HW243315   0.752  10.232  10.374
47140SOL     OW43316   3.490   2.190  11.131
47140SOL    HW143317   3.539   2.151  11.203
47140SOL    HW243318   3.512   2.136  11.055
47141SOL     OW43319   4.320   8.130   9.763
47141SOL    HW143320   4.341   8.135   9.669
47141SOL    HW243321   4.355   8.045   9.790
47142SOL     OW43322   4.865   7.154   1.742
47142SOL    HW143323   4.833   7.216   1.676
47142SOL    HW243324   4.848   7.067   1.704
47143SOL     OW43325  10.715   2.223   6.696
47143SOL    HW143326  10.738   2.139   6.657
47143SOL    HW243327  10.655   2.201   6.768
47144SOL     OW43328   4.200   9.386  11.829
47144SOL    HW143329   4.266   9.418  11.890
47144SOL    HW243330   4.162   9.309  11.873
47145SOL     OW43331  11.208  11.566   0.658
47145SOL    HW143332  11.184  11.502   0.726
47145SOL    HW243333  11.298  11.544   0.635
47146SOL     OW43334   6.885  12.561   8.249
47146SOL    HW143335   6.955  12.500   8.225
47146SOL    HW243336   6.879  12.620   8.174
47147SOL     OW43337   7.055   8.129   0.296
47147SOL    HW143338   7.003   8.062   0.340
47147SOL    HW243339   7.130   8.143   0.354
47148SOL     OW43340   7.252   3.066   0.158
47148SOL    HW143341   7.262   3.050   0.252
47148SOL    HW243342   7.270   3.160   0.147
47149SOL     OW43343   1.596   2.499  12.573
47149SOL    HW143344   1.578   2.410  12.543
47149SOL    HW243345   1.512   2.544  12.565
47150SOL     OW43346   7.336   0.961  10.923
47150SOL    HW143347   7.352   0.867  10.919
47150SOL    HW243348   7.393   0.998  10.856
47151SOL     OW43349   0.170   8.732  10.334
47151SOL    HW143350   0.247   8.703  10.383
47151SOL    HW243351   0.101   8.738  10.400
47152SOL     OW43352  12.231  13.349   3.423
47152SOL    HW143353  12.202  13.275   3.476
47152SOL    HW243354  12.154  13.374   3.372
47153SOL     OW43355   6.860  11.524   9.673
47153SOL    HW143356   6.831  11.468   9.745
47153SOL    HW243357   6.788  11.586   9.660
47154SOL     OW43358   8.121  10.112   1.350
47154SOL    HW143359   8.128  10.135   1.257
47154SOL    HW243360   8.210  10.085   1.375
47155SOL     OW43361   5.560   9.058  14.388
47155SOL    HW143362   5.468   9.034  14.379
47155SOL    HW243363   5.603   8.979  14.420
47156SOL     OW43364   8.010   0.244  10.366
47156SOL    HW143365   7.938   0.182  10.352
47156SOL    HW243366   8.088   0.189  10.366
47157SOL     OW43367   1.779   6.503   9.034
47157SOL    HW143368   1.710   6.494   9.100
47157SOL    HW243369   1.774   6.422   8.983
47158SOL     OW43370   7.388   2.174  12.604
47158SOL    HW143371   7.439   2.145  12.528
47158SOL    HW243372   7.452   2.207  12.666
47159SOL     OW43373   9.040  10.442   6.004
47159SOL    HW143374   9.091  10.427   5.925
47159SOL    HW243375   8.991  10.522   5.986
47160SOL     OW43376  12.071   6.223   3.832
47160SOL    HW143377  11.984   6.206   3.797
47160SOL    HW243378  12.067   6.192   3.923
47161SOL     OW43379  14.435   8.619  11.533
47161SOL    HW143380  14.528   8.638  11.544
47161SOL    HW243381  14.414   8.654  11.446
47162SOL     OW43382   7.399   1.309   9.802
47162SOL    HW143383   7.446   1.375   9.751
47162SOL    HW243384   7.467   1.251   9.836
47163SOL     OW43385  13.795   4.824   6.936
47163SOL    HW143386  13.748   4.831   6.852
47163SOL    HW243387  13.844   4.742   6.929
47164SOL     OW43388   5.834   3.256   3.826
47164SOL    HW143389   5.760   3.269   3.767
47164SOL    HW243390   5.812   3.177   3.875
47165SOL     OW43391  12.337   1.859   0.595
47165SOL    HW143392  12.276   1.824   0.661
47165SOL    HW243393  12.374   1.937   0.635
47166SOL     OW43394  12.222  14.567  14.690
47166SOL    HW143395  12.252  14.619  14.615
47166SOL    HW243396  12.284  14.587  14.760
47167SOL     OW43397  11.489   3.138   9.723
47167SOL    HW143398  11.491   3.104   9.813
47167SOL    HW243399  11.471   3.231   9.733
47168SOL     OW43400   8.364   7.473  10.709
47168SOL    HW143401   8.272   7.496  10.695
47168SOL    HW243402   8.388   7.423  10.631
47169SOL     OW43403  13.190   6.559   1.026
47169SOL    HW143404  13.211   6.588   1.115
47169SOL    HW243405  13.109   6.606   1.005
47170SOL     OW43406   9.426   1.209   9.558
47170SOL    HW143407   9.449   1.128   9.603
47170SOL    HW243408   9.333   1.199   9.539
47171SOL     OW43409  11.614   7.665   1.860
47171SOL    HW143410  11.687   7.683   1.918
47171SOL    HW243411  11.603   7.570   1.863
47172SOL     OW43412   9.773   1.370   8.849
47172SOL    HW143413   9.828   1.321   8.787
47172SOL    HW243414   9.812   1.457   8.852
47173SOL     OW43415   9.716   1.795  13.839
47173SOL    HW143416   9.746   1.715  13.882
47173SOL    HW243417   9.639   1.822  13.889
47174SOL     OW43418   7.791  13.601  13.298
47174SOL    HW143419   7.712  13.573  13.252
47174SOL    HW243420   7.847  13.524  13.299
47175SOL     OW43421  12.824   3.092   3.151
47175SOL    HW143422  12.887   3.041   3.100
47175SOL    HW243423  12.770   3.026   3.195
47176SOL     OW43424   1.092   3.176  11.585
47176SOL    HW143425   1.060   3.092  11.553
47176SOL    HW243426   1.174   3.155  11.630
47177SOL     OW43427  10.167   9.541  13.857
47177SOL    HW143428  10.227   9.468  13.840
47177SOL    HW243429  10.160   9.545  13.953
47178SOL     OW43430   5.541   1.199  12.698
47178SOL    HW143431   5.532   1.291  12.720
47178SOL    HW243432   5.485   1.188  12.620
47179SOL     OW43433  10.183   2.849   8.454
47179SOL    HW143434  10.099   2.854   8.499
47179SOL    HW243435  10.246   2.831   8.524
47180SOL     OW43436   3.842   4.937   1.163
47180SOL    HW143437   3.869   5.021   1.126
47180SOL    HW243438   3.856   4.874   1.093
47181SOL     OW43439   1.541  14.546  11.950
47181SOL    HW143440   1.556  14.641  11.952
47181SOL    HW243441   1.489  14.529  12.029
47182SOL     OW43442   4.828  11.546  14.044
47182SOL    HW143443   4.830  11.452  14.026
47182SOL    HW243444   4.742  11.562  14.082
47183SOL     OW43445  14.769   5.034   1.171
47183SOL    HW143446  14.740   5.023   1.261
47183SOL    HW243447  14.688   5.054   1.122
47184SOL     OW43448   0.956   0.291   1.157
47184SOL    HW143449   0.891   0.266   1.223
47184SOL    HW243450   0.908   0.350   1.099
47185SOL     OW43451   9.570   6.957  12.353
47185SOL    HW143452   9.593   6.985  12.264
47185SOL    HW243453   9.644   6.986  12.407
47186SOL     OW43454  13.719   6.023   6.617
47186SOL    HW143455  13.665   5.951   6.648
47186SOL    HW243456  13.749   5.995   6.530
47187SOL     OW43457   2.795  11.821   3.897
47187SOL    HW143458   2.844  11.742   3.921
47187SOL    HW243459   2.813  11.882   3.968
47188SOL     OW43460  14.526   1.492   1.178
47188SOL    HW143461  14.498   1.437   1.106
47188SOL    HW243462  14.457   1.557   1.188
47189SOL     OW43463   9.301  13.511   0.149
47189SOL    HW143464   9.219  13.560   0.147
47189SOL    HW243465   9.313  13.487   0.240
47190SOL     OW43466  13.641  14.119   2.303
47190SOL    HW143467  13.609  14.059   2.370
47190SOL    HW243468  13.696  14.065   2.246
47191SOL     OW43469   5.477  12.234   2.114
47191SOL    HW143470   5.432  12.163   2.161
47191SOL    HW243471   5.503  12.295   2.183
47192SOL     OW43472   8.894  14.056   3.126
47192SOL    HW143473   8.916  13.978   3.074
47192SOL    HW243474   8.968  14.065   3.187
47193SOL     OW43475   2.295   7.615  10.746
47193SOL    HW143476   2.347   7.668  10.808
47193SOL    HW243477   2.217   7.591  10.795
47194SOL     OW43478  11.038  10.876   7.260
47194SOL    HW143479  11.117  10.830   7.234
47194SOL    HW243480  10.986  10.811   7.306
47195SOL     OW43481  11.643   8.573   6.439
47195SOL    HW143482  11.552   8.562   6.466
47195SOL    HW243483  11.684   8.620   6.511
47196SOL     OW43484   1.869   4.590   4.618
47196SOL    HW143485   1.946   4.539   4.643
47196SOL    HW243486   1.803   4.525   4.595
47197SOL     OW43487   8.005   4.139  12.974
47197SOL    HW143488   7.998   4.225  13.016
47197SOL    HW243489   8.049   4.157  12.890
47198SOL     OW43490  13.141  14.818  13.403
47198SOL    HW143491  13.204  14.853  13.466
47198SOL    HW243492  13.157  14.868  13.323
47199SOL     OW43493  10.181  13.871  12.286
47199SOL    HW143494  10.116  13.928  12.245
47199SOL    HW243495  10.235  13.840  12.214
47200SOL     OW43496   3.401   4.604   9.141
47200SOL    HW143497   3.327   4.633   9.087
47200SOL    HW243498   3.471   4.665   9.119
47201SOL     OW43499  10.684   1.194  10.396
47201SOL    HW143500  10.622   1.138  10.442
47201SOL    HW243501  10.721   1.250  10.465
47202SOL     OW43502   5.506  11.803   4.775
47202SOL    HW143503   5.480  11.803   4.867
47202SOL    HW243504   5.596  11.771   4.775
47203SOL     OW43505  12.726   5.150  11.450
47203SOL    HW143506  12.740   5.055  11.448
47203SOL    HW243507  12.636   5.159  11.481
47204SOL     OW43508   2.728   8.919   9.649
47204SOL    HW143509   2.663   8.961   9.706
47204SOL    HW243510   2.761   8.845   9.700
47205SOL     OW43511  10.138   2.031   5.486
47205SOL    HW143512  10.135   2.060   5.577
47205SOL    HW243513  10.191   2.097   5.442
47206SOL     OW43514   8.874  13.245  12.830
47206SOL    HW143515   8.841  13.246  12.740
47206SOL    HW243516   8.960  13.285  12.824
47207SOL     OW43517  13.300   8.555  11.438
47207SOL    HW143518  13.259   8.626  11.487
47207SOL    HW243519  13.303   8.482  11.500
47208SOL     OW43520   8.327   6.325   3.210
47208SOL    HW143521   8.362   6.287   3.291
47208SOL    HW243522   8.295   6.412   3.237
47209SOL     OW43523   7.700   2.443   9.955
47209SOL    HW143524   7.760   2.412   9.886
47209SOL    HW243525   7.619   2.395   9.939
47210SOL     OW43526   9.791   6.338   9.510
47210SOL    HW143527   9.701   6.314   9.490
47210SOL    HW243528   9.844   6.282   9.453
47211SOL     OW43529   8.874   1.841   0.674
47211SOL    HW143530   8.954   1.881   0.639
47211SOL    HW243531   8.906   1.778   0.738
47212SOL     OW43532   6.440   0.894   5.231
47212SOL    HW143533   6.372   0.890   5.298
47212SOL    HW243534   6.522   0.888   5.279
47213SOL     OW43535   7.069   4.394   5.985
47213SOL    HW143536   7.096   4.313   5.940
47213SOL    HW243537   7.036   4.364   6.069
47214SOL     OW43538   2.084   3.190  11.190
47214SOL    HW143539   2.046   3.173  11.104
47214SOL    HW243540   2.009   3.191  11.250
47215SOL     OW43541   3.428  13.532  12.189
47215SOL    HW143542   3.480  13.495  12.117
47215SOL    HW243543   3.436  13.468  12.260
47216SOL     OW43544   2.712   7.894   4.355
47216SOL    HW143545   2.687   7.943   4.433
47216SOL    HW243546   2.725   7.804   4.386
47217SOL     OW43547  13.987   0.006  11.346
47217SOL    HW143548  13.912   0.003  11.406
47217SOL    HW243549  13.947   0.008  11.258
47218SOL     OW43550  13.075   2.976   0.773
47218SOL    HW143551  13.111   2.923   0.702
47218SOL    HW243552  13.152   3.015   0.814
47219SOL     OW43553   1.130   8.270   9.007
47219SOL    HW143554   1.148   8.363   8.990
47219SOL    HW243555   1.061   8.247   8.945
47220SOL     OW43556   8.986  11.824   0.282
47220SOL    HW143557   8.928  11.770   0.337
47220SOL    HW243558   9.003  11.902   0.335
47221SOL     OW43559   6.256  10.716   7.132
47221SOL    HW143560   6.307  10.646   7.172
47221SOL    HW243561   6.189  10.737   7.197
47222SOL     OW43562   3.860  12.391   6.691
47222SOL    HW143563   3.896  12.311   6.728
47222SOL    HW243564   3.780  12.406   6.740
47223SOL     OW43565   5.160   1.479   6.501
47223SOL    HW143566   5.179   1.464   6.593
47223SOL    HW243567   5.235   1.528   6.468
47224SOL     OW43568  12.818  10.032   5.579
47224SOL    HW143569  12.897  10.050   5.629
47224SOL    HW243570  12.849   9.993   5.498
47225SOL     OW43571   7.426   3.922  14.735
47225SOL    HW143572   7.516   3.918  14.701
47225SOL    HW243573   7.380   3.853  14.688
47226SOL     OW43574  14.571  10.911  13.872
47226SOL    HW143575  14.582  10.842  13.937
47226SOL    HW243576  14.490  10.954  13.897
47227SOL     OW43577   7.341   4.494   3.490
47227SOL    HW143578   7.259   4.518   3.534
47227SOL    HW243579   7.390   4.576   3.484
47228SOL     OW43580   2.234  11.378  13.449
47228SOL    HW143581   2.278  11.394  13.366
47228SOL    HW243582   2.185  11.458  13.468
47229SOL     OW43583  13.486   4.024   2.804
47229SOL    HW143584  13.471   3.929   2.800
47229SOL    HW243585  13.478   4.045   2.897
47230SOL     OW43586  12.481   8.428   5.806
47230SOL    HW143587  12.556   8.421   5.865
47230SOL    HW243588  12.415   8.371   5.845
47231SOL     OW43589  13.931  12.894  13.735
47231SOL    HW143590  13.843  12.893  13.698
47231SOL    HW243591  13.918  12.911  13.828
47232SOL     OW43592   9.121   0.127  11.575
47232SOL    HW143593   9.099   0.121  11.482
47232SOL    HW243594   9.044   0.094  11.621
47233SOL     OW43595   2.518   7.402  13.701
47233SOL    HW143596   2.523   7.493  13.731
47233SOL    HW243597   2.449   7.402  13.635
47234SOL     OW43598   4.027   1.607  12.891
47234SOL    HW143599   3.934   1.616  12.870
47234SOL    HW243600   4.068   1.583  12.808
47235SOL     OW43601   8.050   9.299   5.519
47235SOL    HW143602   8.061   9.356   5.596
47235SOL    HW243603   8.134   9.255   5.510
47236SOL     OW43604   1.980   2.676  14.196
47236SOL    HW143605   1.885   2.690  14.191
47236SOL    HW243606   1.999   2.674  14.290
47237SOL     OW43607  11.678   8.069   5.369
47237SOL    HW143608  11.584   8.082   5.359
47237SOL    HW243609  11.685   7.990   5.423
47238SOL     OW43610   4.874  13.494   6.425
47238SOL    HW143611   4.969  13.491   6.434
47238SOL    HW243612   4.841  13.458   6.507
47239SOL     OW43613   2.152   6.286   3.816
47239SOL    HW143614   2.087   6.217   3.801
47239SOL    HW243615   2.123   6.330   3.895
47240SOL     OW43616  14.584  13.586  10.160
47240SOL    HW143617  14.526  13.579  10.084
47240SOL    HW243618  14.672  13.576  10.123
47241SOL     OW43619   0.650   9.939   4.218
47241SOL    HW143620   0.695  10.014   4.255
47241SOL    HW243621   0.611   9.971   4.136
47242SOL     OW43622   6.294  14.574  14.035
47242SOL    HW143623   6.219  14.576  14.095
47242SOL    HW243624   6.344  14.497  14.062
47243SOL     OW43625   9.726  11.974  13.719
47243SOL    HW143626   9.648  12.009  13.676
47243SOL    HW243627   9.720  12.005  13.809
47244SOL     OW43628  10.508   1.483   7.664
47244SOL    HW143629  10.452   1.554   7.695
47244SOL    HW243630  10.575   1.474   7.731
47245SOL     OW43631   1.754   5.939   4.390
47245SOL    HW143632   1.720   5.981   4.468
47245SOL    HW243633   1.778   6.011   4.332
47246SOL     OW43634  12.724   5.430   7.371
47246SOL    HW143635  12.733   5.459   7.461
47246SOL    HW243636  12.806   5.385   7.352
47247SOL     OW43637  13.270   4.962  13.895
47247SOL    HW143638  13.216   4.955  13.816
47247SOL    HW243639  13.292   4.872  13.918
47248SOL     OW43640   8.874   2.166   8.845
47248SOL    HW143641   8.869   2.162   8.750
47248SOL    HW243642   8.905   2.079   8.872
47249SOL     OW43643   9.525  13.537   2.085
47249SOL    HW143644   9.475  13.467   2.126
47249SOL    HW243645   9.512  13.524   1.991
47250SOL     OW43646   9.535  11.264   8.340
47250SOL    HW143647   9.500  11.353   8.342
47250SOL    HW243648   9.498  11.222   8.418
47251SOL     OW43649   1.694   7.053   8.938
47251SOL    HW143650   1.700   6.958   8.932
47251SOL    HW243651   1.655   7.080   8.855
47252SOL     OW43652  14.808   8.006  13.691
47252SOL    HW143653  14.742   7.987  13.624
47252SOL    HW243654  14.788   8.095  13.720
47253SOL     OW43655   4.068   6.661   5.192
47253SOL    HW143656   4.153   6.646   5.233
47253SOL    HW243657   4.044   6.577   5.153
47254SOL     OW43658   5.726   0.312   8.825
47254SOL    HW143659   5.639   0.295   8.791
47254SOL    HW243660   5.715   0.313   8.920
47255SOL     OW43661   3.844   9.567  14.367
47255SOL    HW143662   3.792   9.487  14.365
47255SOL    HW243663   3.854   9.591  14.275
47256SOL     OW43664  10.813   2.519   4.495
47256SOL    HW143665  10.719   2.529   4.481
47256SOL    HW243666  10.820   2.469   4.576
47257SOL     OW43667  10.236   4.373  14.243
47257SOL    HW143668  10.265   4.408  14.328
47257SOL    HW243669  10.209   4.451  14.194
47258SOL     OW43670  11.124   3.438  12.608
47258SOL    HW143671  11.216   3.413  12.595
47258SOL    HW243672  11.095   3.386  12.683
47259SOL     OW43673   0.889  11.218   9.329
47259SOL    HW143674   0.908  11.249   9.417
47259SOL    HW243675   0.970  11.174   9.301
47260SOL     OW43676  10.997   3.849  10.616
47260SOL    HW143677  10.980   3.924  10.673
47260SOL    HW243678  11.047   3.788  10.671
47261SOL     OW43679   7.008   3.418   0.544
47261SOL    HW143680   6.944   3.386   0.480
47261SOL    HW243681   7.091   3.380   0.517
47262SOL     OW43682  10.658   7.733   6.534
47262SOL    HW143683  10.578   7.770   6.495
47262SOL    HW243684  10.692   7.803   6.589
47263SOL     OW43685   0.526  13.932   3.672
47263SOL    HW143686   0.601  13.988   3.693
47263SOL    HW243687   0.498  13.896   3.756
47264SOL     OW43688   4.859  10.939   6.205
47264SOL    HW143689   4.838  10.995   6.130
47264SOL    HW243690   4.929  10.883   6.174
47265SOL     OW43691   9.176   2.545   1.300
47265SOL    HW143692   9.192   2.620   1.357
47265SOL    HW243693   9.092   2.510   1.329
47266SOL     OW43694   1.840   1.890  14.110
47266SOL    HW143695   1.877   1.959  14.056
47266SOL    HW243696   1.786   1.935  14.174
47267SOL     OW43697  11.482  14.581   8.001
47267SOL    HW143698  11.532  14.564   7.921
47267SOL    HW243699  11.399  14.536   7.987
47268SOL     OW43700  10.504   6.752   9.062
47268SOL    HW143701  10.519   6.680   9.000
47268SOL    HW243702  10.469   6.823   9.008
47269SOL     OW43703   1.855   6.126   2.959
47269SOL    HW143704   1.788   6.183   2.996
47269SOL    HW243705   1.809   6.043   2.943
47270SOL     OW43706   6.350   9.056  11.455
47270SOL    HW143707   6.441   9.086  11.453
47270SOL    HW243708   6.341   9.003  11.375
47271SOL     OW43709   8.799   2.948  12.345
47271SOL    HW143710   8.770   3.037  12.323
47271SOL    HW243711   8.854   2.922  12.271
47272SOL     OW43712   2.566   7.134   8.683
47272SOL    HW143713   2.535   7.045   8.666
47272SOL    HW243714   2.500   7.191   8.643
47273SOL     OW43715   9.509   6.893  13.599
47273SOL    HW143716   9.544   6.817  13.553
47273SOL    HW243717   9.548   6.888  13.687
47274SOL     OW43718   9.395   0.055   5.725
47274SOL    HW143719   9.308   0.016   5.720
47274SOL    HW243720   9.394   0.127   5.662
47275SOL     OW43721   4.504   7.404  10.351
47275SOL    HW143722   4.528   7.345  10.422
47275SOL    HW243723   4.586   7.444  10.324
47276SOL     OW43724   5.925   6.655   5.438
47276SOL    HW143725   5.999   6.714   5.450
47276SOL    HW243726   5.958   6.588   5.378
47277SOL     OW43727  10.451   9.485  12.920
47277SOL    HW143728  10.394   9.475  12.997
47277SOL    HW243729  10.391   9.499  12.847
47278SOL     OW43730   1.712   0.531   1.706
47278SOL    HW143731   1.765   0.454   1.727
47278SOL    HW243732   1.626   0.511   1.741
47279SOL     OW43733  10.570  13.856   8.326
47279SOL    HW143734  10.542  13.905   8.248
47279SOL    HW243735  10.606  13.775   8.290
47280SOL     OW43736  14.684  14.083  13.281
47280SOL    HW143737  14.738  14.134  13.221
47280SOL    HW243738  14.645  14.015  13.225
47281SOL     OW43739  14.027   4.375   1.731
47281SOL    HW143740  14.055   4.285   1.719
47281SOL    HW243741  13.981   4.397   1.649
47282SOL     OW43742   3.549   6.643  13.723
47282SOL    HW143743   3.606   6.632  13.648
47282SOL    HW243744   3.569   6.731  13.756
47283SOL     OW43745  11.384  10.484  11.465
47283SOL    HW143746  11.358  10.515  11.552
47283SOL    HW243747  11.425  10.560  11.424
47284SOL     OW43748   0.637  13.635  10.424
47284SOL    HW143749   0.548  13.670  10.425
47284SOL    HW243750   0.682  13.686  10.357
47285SOL     OW43751  10.770   9.708   0.974
47285SOL    HW143752  10.711   9.655   0.921
47285SOL    HW243753  10.723   9.790   0.988
47286SOL     OW43754   6.310  13.574  13.008
47286SOL    HW143755   6.328  13.643  13.072
47286SOL    HW243756   6.394  13.529  12.996
47287SOL     OW43757  10.155  13.235   4.308
47287SOL    HW143758  10.133  13.209   4.218
47287SOL    HW243759  10.088  13.194   4.362
47288SOL     OW43760   6.125   1.737   9.901
47288SOL    HW143761   6.164   1.650   9.898
47288SOL    HW243762   6.031   1.721   9.908
47289SOL     OW43763   2.558   0.781   5.390
47289SOL    HW143764   2.483   0.837   5.370
47289SOL    HW243765   2.571   0.728   5.312
47290SOL     OW43766   7.396   8.318   3.457
47290SOL    HW143767   7.468   8.255   3.462
47290SOL    HW243768   7.367   8.328   3.548
47291SOL     OW43769   0.863   8.805   7.430
47291SOL    HW143770   0.808   8.740   7.474
47291SOL    HW243771   0.898   8.858   7.501
47292SOL     OW43772   1.772   5.445  10.870
47292SOL    HW143773   1.722   5.437  10.952
47292SOL    HW243774   1.797   5.538  10.867
47293SOL     OW43775   0.557  10.634  10.382
47293SOL    HW143776   0.601  10.610  10.300
47293SOL    HW243777   0.592  10.572  10.447
47294SOL     OW43778  10.658   2.645   4.833
47294SOL    HW143779  10.622   2.560   4.859
47294SOL    HW243780  10.588   2.707   4.852
47295SOL     OW43781   9.576  14.094  11.941
47295SOL    HW143782   9.631  14.162  11.980
47295SOL    HW243783   9.616  14.012  11.971
47296SOL     OW43784   5.036   3.741   9.605
47296SOL    HW143785   5.060   3.699   9.688
47296SOL    HW243786   5.104   3.715   9.544
47297SOL     OW43787   1.637   3.913  11.255
47297SOL    HW143788   1.712   3.855  11.246
47297SOL    HW243789   1.675   4.001  11.260
47298SOL     OW43790   4.528  11.130   1.151
47298SOL    HW143791   4.554  11.222   1.143
47298SOL    HW243792   4.602  11.082   1.112
47299SOL     OW43793  12.225  13.215   9.100
47299SOL    HW143794  12.182  13.178   9.023
47299SOL    HW243795  12.300  13.263   9.065
47300SOL     OW43796   3.799   3.839  10.321
47300SOL    HW143797   3.856   3.888  10.262
47300SOL    HW243798   3.751   3.779  10.264
47301SOL     OW43799  10.581   6.850  12.790
47301SOL    HW143800  10.583   6.914  12.720
47301SOL    HW243801  10.492   6.815  12.788
47302SOL     OW43802  10.359   6.330  12.798
47302SOL    HW143803  10.447   6.325  12.833
47302SOL    HW243804  10.363   6.402  12.734
47303SOL     OW43805   3.876   7.465  10.111
47303SOL    HW143806   3.956   7.438  10.067
47303SOL    HW243807   3.808   7.457  10.044
47304SOL     OW43808   5.504   5.341   3.890
47304SOL    HW143809   5.422   5.300   3.863
47304SOL    HW243810   5.483   5.434   3.900
47305SOL     OW43811   8.248   4.936   0.044
47305SOL    HW143812   8.277   5.021   0.009
47305SOL    HW243813   8.165   4.955   0.087
47306SOL     OW43814   1.797   2.928  13.429
47306SOL    HW143815   1.856   2.996  13.395
47306SOL    HW243816   1.846   2.887  13.501
47307SOL     OW43817   7.749  14.861   4.725
47307SOL    HW143818   7.773   0.017   4.812
47307SOL    HW243819   7.713   0.064   4.681
47308SOL     OW43820  13.125  14.709  10.394
47308SOL    HW143821  13.163  14.622  10.407
47308SOL    HW243822  13.200  14.766  10.379
47309SOL     OW43823   3.138  12.213  11.807
47309SOL    HW143824   3.186  12.253  11.735
47309SOL    HW243825   3.080  12.283  11.839
47310SOL     OW43826  12.229   3.865   3.557
47310SOL    HW143827  12.291   3.914   3.612
47310SOL    HW243828  12.249   3.893   3.468
47311SOL     OW43829   6.249   4.130  13.374
47311SOL    HW143830   6.215   4.101  13.290
47311SOL    HW243831   6.180   4.186  13.410
47312SOL     OW43832   3.046   2.363   3.986
47312SOL    HW143833   3.048   2.281   4.036
47312SOL    HW243834   2.978   2.348   3.920
47313SOL     OW43835  11.521  13.238   9.689
47313SOL    HW143836  11.431  13.250   9.660
47313SOL    HW243837  11.565  13.194   9.616
47314SOL     OW43838   0.433   4.865  10.783
47314SOL    HW143839   0.510   4.809  10.772
47314SOL    HW243840   0.409   4.856  10.875
47315SOL     OW43841  11.154   7.424   3.496
47315SOL    HW143842  11.221   7.367   3.533
47315SOL    HW243843  11.175   7.429   3.403
47316SOL     OW43844   3.710   7.417   2.177
47316SOL    HW143845   3.803   7.438   2.188
47316SOL    HW243846   3.696   7.340   2.233
47317SOL     OW43847  12.138   7.795   5.931
47317SOL    HW143848  12.049   7.831   5.932
47317SOL    HW243849  12.163   7.796   5.839
47318SOL     OW43850   4.181  12.553   8.454
47318SOL    HW143851   4.216  12.544   8.366
47318SOL    HW243852   4.128  12.633   8.451
47319SOL     OW43853   5.572  12.158   6.311
47319SOL    HW143854   5.530  12.212   6.379
47319SOL    HW243855   5.550  12.203   6.229
47320SOL     OW43856   6.319   5.322   7.421
47320SOL    HW143857   6.339   5.263   7.349
47320SOL    HW243858   6.400   5.329   7.471
47321SOL     OW43859   3.887   5.120   2.571
47321SOL    HW143860   3.910   5.208   2.600
47321SOL    HW243861   3.901   5.065   2.648
47322SOL     OW43862   4.203   3.100  12.670
47322SOL    HW143863   4.236   3.082  12.582
47322SOL    HW243864   4.117   3.140  12.656
47323SOL     OW43865  14.591   0.329   6.087
47323SOL    HW143866  14.576   0.238   6.111
47323SOL    HW243867  14.583   0.331   5.992
47324SOL     OW43868   5.302   7.499  10.306
47324SOL    HW143869   5.300   7.422  10.364
47324SOL    HW243870   5.229   7.485  10.245
47325SOL     OW43871   1.151   2.798   0.902
47325SOL    HW143872   1.211   2.738   0.946
47325SOL    HW243873   1.208   2.864   0.862
47326SOL     OW43874  13.889  14.150   4.749
47326SOL    HW143875  13.830  14.077   4.732
47326SOL    HW243876  13.833  14.228   4.742
47327SOL     OW43877  12.385  14.867   8.753
47327SOL    HW143878  12.316   0.056   8.765
47327SOL    HW243879  12.442   0.029   8.685
47328SOL     OW43880   8.409  13.154   0.530
47328SOL    HW143881   8.497  13.132   0.559
47328SOL    HW243882   8.387  13.085   0.467
47329SOL     OW43883   0.900  13.145  12.622
47329SOL    HW143884   0.847  13.074  12.656
47329SOL    HW243885   0.984  13.138  12.669
47330SOL     OW43886   6.019   1.667  12.047
47330SOL    HW143887   5.931   1.638  12.072
47330SOL    HW243888   6.072   1.587  12.050
47331SOL     OW43889  14.654   1.521   6.295
47331SOL    HW143890  14.687   1.480   6.215
47331SOL    HW243891  14.655   1.614   6.276
47332SOL     OW43892   5.484  11.563  12.870
47332SOL    HW143893   5.479  11.556  12.775
47332SOL    HW243894   5.534  11.486  12.897
47333SOL     OW43895   1.854   4.900  11.809
47333SOL    HW143896   1.912   4.977  11.811
47333SOL    HW243897   1.777   4.928  11.761
47334SOL     OW43898   2.569   0.057  11.433
47334SOL    HW143899   2.479   0.024  11.434
47334SOL    HW243900   2.566   0.132  11.373
47335SOL     OW43901  12.438   6.642   8.567
47335SOL    HW143902  12.471   6.554   8.583
47335SOL    HW243903  12.363   6.630   8.508
47336SOL     OW43904   3.576   3.037  11.226
47336SOL    HW143905   3.486   3.032  11.192
47336SOL    HW243906   3.630   2.999  11.158
47337SOL     OW43907   5.662   7.065  11.714
47337SOL    HW143908   5.640   6.987  11.662
47337SOL    HW243909   5.656   7.035  11.805
47338SOL     OW43910  12.601   4.410   5.282
47338SOL    HW143911  12.530   4.429   5.221
47338SOL    HW243912  12.571   4.447   5.365
47339SOL     OW43913   3.396  13.813  12.109
47339SOL    HW143914   3.314  13.822  12.059
47339SOL    HW243915   3.395  13.722  12.140
47340SOL     OW43916   7.833   8.394   0.260
47340SOL    HW143917   7.795   8.480   0.277
47340SOL    HW243918   7.928   8.410   0.255
47341SOL     OW43919   7.841  13.116   0.040
47341SOL    HW143920   7.866  13.207   0.026
47341SOL    HW243921   7.785  13.119   0.118
47342SOL     OW43922  14.009   3.959  13.073
47342SOL    HW143923  14.045   4.048  13.063
47342SOL    HW243924  14.054   3.908  13.006
47343SOL     OW43925   0.061   7.859  11.093
47343SOL    HW143926   0.115   7.888  11.020
47343SOL    HW243927   0.012   7.936  11.120
47344SOL     OW43928   2.991   3.544  10.829
47344SOL    HW143929   2.973   3.612  10.764
47344SOL    HW243930   2.921   3.553  10.894
47345SOL     OW43931   8.766   3.678  10.282
47345SOL    HW143932   8.755   3.772  10.267
47345SOL    HW243933   8.689   3.652  10.332
47346SOL     OW43934   9.247  11.358  14.087
47346SOL    HW143935   9.192  11.354  14.165
47346SOL    HW243936   9.334  11.335  14.119
47347SOL     OW43937   2.130   1.794  12.765
47347SOL    HW143938   2.218   1.811  12.798
47347SOL    HW243939   2.073   1.802  12.842
47348SOL     OW43940   1.539  11.316  13.034
47348SOL    HW143941   1.457  11.277  13.004
47348SOL    HW243942   1.602  11.293  12.966
47349SOL     OW43943   4.314  11.201  11.939
47349SOL    HW143944   4.258  11.277  11.952
47349SOL    HW243945   4.396  11.237  11.907
47350SOL     OW43946  11.905  10.628  14.056
47350SOL    HW143947  11.845  10.703  14.049
47350SOL    HW243948  11.955  10.644  14.136
47351SOL     OW43949   5.107   8.336   3.197
47351SOL    HW143950   5.017   8.369   3.199
47351SOL    HW243951   5.097   8.242   3.185
47352SOL     OW43952   7.978  11.764   5.639
47352SOL    HW143953   8.072  11.780   5.627
47352SOL    HW243954   7.974  11.679   5.683
47353SOL     OW43955   5.760  11.458   8.740
47353SOL    HW143956   5.788  11.423   8.655
47353SOL    HW243957   5.702  11.531   8.718
47354SOL     OW43958  14.191   0.478   3.882
47354SOL    HW143959  14.208   0.541   3.952
47354SOL    HW243960  14.109   0.508   3.842
47355SOL     OW43961   9.036   7.760  12.095
47355SOL    HW143962   8.971   7.711  12.144
47355SOL    HW243963   9.099   7.790  12.161
47356SOL     OW43964   7.066  14.316   5.082
47356SOL    HW143965   7.107  14.229   5.088
47356SOL    HW243966   7.130  14.370   5.037
47357SOL     OW43967   3.218  11.150  11.452
47357SOL    HW143968   3.186  11.067  11.485
47357SOL    HW243969   3.140  11.206  11.448
47358SOL     OW43970   7.371  13.957  11.614
47358SOL    HW143971   7.338  13.882  11.663
47358SOL    HW243972   7.294  13.994  11.571
47359SOL     OW43973  10.119  11.611   3.221
47359SOL    HW143974  10.053  11.639   3.157
47359SOL    HW243975  10.185  11.679   3.219
47360SOL     OW43976   4.080  13.103   9.559
47360SOL    HW143977   4.036  13.132   9.480
47360SOL    HW243978   4.054  13.011   9.570
47361SOL     OW43979   5.555  14.111   9.966
47361SOL    HW143980   5.614  14.108  10.041
47361SOL    HW243981   5.593  14.049   9.903
47362SOL     OW43982   9.971   6.596   1.988
47362SOL    HW143983  10.045   6.642   2.029
47362SOL    HW243984   9.905   6.664   1.975
47363SOL     OW43985  14.322   0.729  10.755
47363SOL    HW143986  14.270   0.808  10.741
47363SOL    HW243987  14.351   0.703  10.667
47364SOL     OW43988  12.350  12.217   7.253
47364SOL    HW143989  12.284  12.285   7.236
47364SOL    HW243990  12.429  12.251   7.212
47365SOL     OW43991   0.387   8.299   8.539
47365SOL    HW143992   0.421   8.388   8.535
47365SOL    HW243993   0.347   8.284   8.454
47366SOL     OW43994   4.658  12.067   2.379
47366SOL    HW143995   4.676  12.159   2.402
47366SOL    HW243996   4.607  12.073   2.298
47367SOL     OW43997  14.195   2.212   9.012
47367SOL    HW143998  14.268   2.183   8.957
47367SOL    HW243999  14.223   2.297   9.045
47368SOL     OW44000  12.230   1.784  11.135
47368SOL    HW144001  12.205   1.770  11.227
47368SOL    HW244002  12.275   1.704  11.110
47369SOL     OW44003   4.559  12.990   0.746
47369SOL    HW144004   4.591  13.029   0.664
47369SOL    HW244005   4.634  12.944   0.782
47370SOL     OW44006   9.527   1.627  12.364
47370SOL    HW144007   9.582   1.551  12.384
47370SOL    HW244008   9.443   1.607  12.406
47371SOL     OW44009   9.054   3.261   6.565
47371SOL    HW144010   8.997   3.306   6.503
47371SOL    HW244011   9.012   3.273   6.650
47372SOL     OW44012   0.476  10.184  13.319
47372SOL    HW144013   0.465  10.102  13.367
47372SOL    HW244014   0.492  10.158  13.229
47373SOL     OW44015   2.387   7.659   6.305
47373SOL    HW144016   2.376   7.593   6.237
47373SOL    HW244017   2.445   7.618   6.369
47374SOL     OW44018   2.493   1.912   0.455
47374SOL    HW144019   2.443   1.971   0.512
47374SOL    HW244020   2.513   1.964   0.378
47375SOL     OW44021  10.524  11.645   0.722
47375SOL    HW144022  10.562  11.723   0.763
47375SOL    HW244023  10.533  11.577   0.788
47376SOL     OW44024   7.874   4.687  13.124
47376SOL    HW144025   7.959   4.726  13.102
47376SOL    HW244026   7.840   4.656  13.040
47377SOL     OW44027  11.926   8.777   3.884
47377SOL    HW144028  11.964   8.824   3.809
47377SOL    HW244029  11.832   8.784   3.871
47378SOL     OW44030  12.883   4.088   1.200
47378SOL    HW144031  12.959   4.067   1.145
47378SOL    HW244032  12.822   4.015   1.186
47379SOL     OW44033  11.398   5.667   8.315
47379SOL    HW144034  11.433   5.699   8.232
47379SOL    HW244035  11.395   5.572   8.306
47380SOL     OW44036  11.350   0.054   2.691
47380SOL    HW144037  11.374   0.094   2.775
47380SOL    HW244038  11.284  14.864   2.715
47381SOL     OW44039   2.490  14.234   3.689
47381SOL    HW144040   2.495  14.279   3.774
47381SOL    HW244041   2.562  14.271   3.638
47382SOL     OW44042  14.169   3.393   1.147
47382SOL    HW144043  14.179   3.298   1.138
47382SOL    HW244044  14.117   3.404   1.226
47383SOL     OW44045   4.187   7.971  10.299
47383SOL    HW144046   4.173   8.061  10.329
47383SOL    HW244047   4.102   7.944  10.263
47384SOL     OW44048  14.667   9.987   2.677
47384SOL    HW144049  14.660  10.050   2.749
47384SOL    HW244050  14.597  10.012   2.617
47385SOL     OW44051   1.993   5.167   5.603
47385SOL    HW144052   2.005   5.262   5.611
47385SOL    HW244053   1.931   5.145   5.672
47386SOL     OW44054  12.680  14.871  10.468
47386SOL    HW144055  12.619   0.022  10.536
47386SOL    HW244056  12.765   0.029  10.498
47387SOL     OW44057  12.050  11.568   6.019
47387SOL    HW144058  11.994  11.616   5.958
47387SOL    HW244059  12.048  11.478   5.987
47388SOL     OW44060   2.476   0.621  10.003
47388SOL    HW144061   2.415   0.668  10.061
47388SOL    HW244062   2.511   0.689   9.946
47389SOL     OW44063   8.739   8.606  10.952
47389SOL    HW144064   8.823   8.614  10.997
47389SOL    HW244065   8.690   8.684  10.978
47390SOL     OW44066   3.850  10.720   8.909
47390SOL    HW144067   3.799  10.801   8.904
47390SOL    HW244068   3.788  10.652   8.885
47391SOL     OW44069  12.550   4.290   2.543
47391SOL    HW144070  12.534   4.341   2.623
47391SOL    HW244071  12.579   4.205   2.574
47392SOL     OW44072   6.511  13.260   3.985
47392SOL    HW144073   6.508  13.210   3.903
47392SOL    HW244074   6.508  13.193   4.053
47393SOL     OW44075   8.165   8.766   6.355
47393SOL    HW144076   8.187   8.716   6.276
47393SOL    HW244077   8.161   8.700   6.424
47394SOL     OW44078   2.522   5.496   9.354
47394SOL    HW144079   2.464   5.537   9.418
47394SOL    HW244080   2.550   5.568   9.297
47395SOL     OW44081  10.754   1.753  14.701
47395SOL    HW144082  10.829   1.789  14.654
47395SOL    HW244083  10.711   1.696  14.636
47396SOL     OW44084   3.673   0.472   8.241
47396SOL    HW144085   3.740   0.540   8.237
47396SOL    HW244086   3.714   0.400   8.288
47397SOL     OW44087  10.899   4.194  12.522
47397SOL    HW144088  10.930   4.168  12.609
47397SOL    HW244089  10.808   4.220  12.536
47398SOL     OW44090  14.688  11.572   0.999
47398SOL    HW144091  14.754  11.515   0.960
47398SOL    HW244092  14.651  11.620   0.926
47399SOL     OW44093   0.920   3.829   0.461
47399SOL    HW144094   0.986   3.763   0.438
47399SOL    HW244095   0.872   3.844   0.380
47400SOL     OW44096   5.726  10.428  14.721
47400SOL    HW144097   5.781  10.445  14.645
47400SOL    HW244098   5.686  10.512  14.742
47401SOL     OW44099  12.473   5.005   9.257
47401SOL    HW144100  12.452   5.089   9.299
47401SOL    HW244101  12.516   5.029   9.176
47402SOL     OW44102   7.029   8.558   2.250
47402SOL    HW144103   7.019   8.653   2.242
47402SOL    HW244104   7.060   8.545   2.339
47403SOL     OW44105  13.120   5.580   6.904
47403SOL    HW144106  13.063   5.560   6.978
47403SOL    HW244107  13.127   5.498   6.856
47404SOL     OW44108   5.819  13.469  12.605
47404SOL    HW144109   5.858  13.410  12.670
47404SOL    HW244110   5.827  13.421  12.522
47405SOL     OW44111  11.046  12.615  10.283
47405SOL    HW144112  11.070  12.543  10.342
47405SOL    HW244113  10.994  12.674  10.337
47406SOL     OW44114  13.651   9.844   0.579
47406SOL    HW144115  13.612   9.829   0.493
47406SOL    HW244116  13.578   9.874   0.633
47407SOL     OW44117  13.121   5.528   1.694
47407SOL    HW144118  13.169   5.609   1.680
47407SOL    HW244119  13.094   5.500   1.607
47408SOL     OW44120   6.072   1.875   0.434
47408SOL    HW144121   5.988   1.919   0.420
47408SOL    HW244122   6.078   1.862   0.528
47409SOL     OW44123  10.486   0.821  11.248
47409SOL    HW144124  10.452   0.908  11.231
47409SOL    HW244125  10.465   0.771  11.169
47410SOL     OW44126   7.827   6.034   0.507
47410SOL    HW144127   7.732   6.027   0.507
47410SOL    HW244128   7.858   5.947   0.532
47411SOL     OW44129   5.761   9.264   7.477
47411SOL    HW144130   5.731   9.173   7.476
47411SOL    HW244131   5.748   9.292   7.568
47412SOL     OW44132   5.440  13.750   6.589
47412SOL    HW144133   5.368  13.716   6.642
47412SOL    HW244134   5.489  13.672   6.562
47413SOL     OW44135   7.840   7.847   2.341
47413SOL    HW144136   7.928   7.882   2.356
47413SOL    HW244137   7.825   7.788   2.414
47414SOL     OW44138   4.776   2.372   2.294
47414SOL    HW144139   4.810   2.389   2.381
47414SOL    HW244140   4.699   2.318   2.308
47415SOL     OW44141   1.243  12.467   0.289
47415SOL    HW144142   1.298  12.516   0.227
47415SOL    HW244143   1.304  12.437   0.356
47416SOL     OW44144   0.577   9.705   9.610
47416SOL    HW144145   0.587   9.662   9.526
47416SOL    HW244146   0.576   9.799   9.590
47417SOL     OW44147  10.895   3.041  12.659
47417SOL    HW144148  10.902   3.134  12.680
47417SOL    HW244149  10.828   3.037  12.591
47418SOL     OW44150   7.891  14.144   5.098
47418SOL    HW144151   7.804  14.178   5.079
47418SOL    HW244152   7.879  14.084   5.171
47419SOL     OW44153  11.197   7.587   7.489
47419SOL    HW144154  11.289   7.580   7.465
47419SOL    HW244155  11.190   7.538   7.571
47420SOL     OW44156   6.571   0.525  14.378
47420SOL    HW144157   6.580   0.616  14.405
47420SOL    HW244158   6.590   0.525  14.285
47421SOL     OW44159   3.771   3.148  13.150
47421SOL    HW144160   3.744   3.237  13.169
47421SOL    HW244161   3.704   3.114  13.091
47422SOL     OW44162  13.033   0.496   3.716
47422SOL    HW144163  13.074   0.454   3.640
47422SOL    HW244164  12.943   0.463   3.717
47423SOL     OW44165  12.292  10.355   3.496
47423SOL    HW144166  12.198  10.367   3.509
47423SOL    HW244167  12.332  10.398   3.572
47424SOL     OW44168   0.819   1.672   9.665
47424SOL    HW144169   0.863   1.752   9.692
47424SOL    HW244170   0.866   1.643   9.587
47425SOL     OW44171   1.298   7.246  14.096
47425SOL    HW144172   1.347   7.325  14.121
47425SOL    HW244173   1.209   7.277  14.082
47426SOL     OW44174   1.214   5.511   2.858
47426SOL    HW144175   1.173   5.457   2.925
47426SOL    HW244176   1.272   5.570   2.907
47427SOL     OW44177  10.486  14.082   5.709
47427SOL    HW144178  10.567  14.108   5.752
47427SOL    HW244179  10.436  14.164   5.703
47428SOL     OW44180   8.748  11.735   2.889
47428SOL    HW144181   8.792  11.658   2.852
47428SOL    HW244182   8.690  11.765   2.819
47429SOL     OW44183   4.835   1.021  14.333
47429SOL    HW144184   4.882   0.995  14.253
47429SOL    HW244185   4.903   1.055  14.391
47430SOL     OW44186   1.758   3.240   3.247
47430SOL    HW144187   1.781   3.231   3.155
47430SOL    HW244188   1.841   3.262   3.290
47431SOL     OW44189  13.268   2.105  12.380
47431SOL    HW144190  13.325   2.138  12.310
47431SOL    HW244191  13.211   2.042  12.337
47432SOL     OW44192   0.396   9.892   9.342
47432SOL    HW144193   0.464   9.840   9.299
47432SOL    HW244194   0.337   9.917   9.271
47433SOL     OW44195   9.992   9.388   5.342
47433SOL    HW144196   9.931   9.328   5.300
47433SOL    HW244197   9.995   9.464   5.284
47434SOL     OW44198   2.279   4.778  11.851
47434SOL    HW144199   2.223   4.705  11.876
47434SOL    HW244200   2.333   4.795  11.928
47435SOL     OW44201   6.851   0.022  11.616
47435SOL    HW144202   6.779  14.836  11.601
47435SOL    HW244203   6.919  14.871  11.554
47436SOL     OW44204   1.106  13.906  13.784
47436SOL    HW144205   1.123  14.000  13.772
47436SOL    HW244206   1.015  13.895  13.755
47437SOL     OW44207  13.368   8.073  12.887
47437SOL    HW144208  13.421   8.047  12.962
47437SOL    HW244209  13.320   8.150  12.917
47438SOL     OW44210  11.356   0.226   1.697
47438SOL    HW144211  11.449   0.206   1.704
47438SOL    HW244212  11.314   0.141   1.677
47439SOL     OW44213   6.374   0.064   6.774
47439SOL    HW144214   6.395  14.870   6.711
47439SOL    HW244215   6.348   0.017   6.854
47440SOL     OW44216   1.561   7.795   4.271
47440SOL    HW144217   1.593   7.709   4.300
47440SOL    HW244218   1.584   7.798   4.178
47441SOL     OW44219  12.121   7.873  10.021
47441SOL    HW144220  12.114   7.952  10.075
47441SOL    HW244221  12.211   7.844  10.034
47442SOL     OW44222  10.629   3.856  11.198
47442SOL    HW144223  10.714   3.896  11.179
47442SOL    HW244224  10.591   3.838  11.113
47443SOL     OW44225   1.632  11.348  13.529
47443SOL    HW144226   1.683  11.414  13.577
47443SOL    HW244227   1.657  11.360  13.438
47444SOL     OW44228   8.256   0.134   7.451
47444SOL    HW144229   8.187   0.196   7.426
47444SOL    HW244230   8.214   0.074   7.512
47445SOL     OW44231   4.554  13.725  11.643
47445SOL    HW144232   4.549  13.724  11.547
47445SOL    HW244233   4.541  13.634  11.668
47446SOL     OW44234   0.953  12.195   2.982
47446SOL    HW144235   0.964  12.148   3.065
47446SOL    HW244236   1.023  12.162   2.926
47447SOL     OW44237  13.761   4.628   3.334
47447SOL    HW144238  13.677   4.583   3.342
47447SOL    HW244239  13.784   4.619   3.241
47448SOL     OW44240   5.295   6.515  10.169
47448SOL    HW144241   5.377   6.466  10.183
47448SOL    HW244242   5.264   6.485  10.084
47449SOL     OW44243   8.155  11.401   5.224
47449SOL    HW144244   8.095  11.475   5.213
47449SOL    HW244245   8.133  11.341   5.153
47450SOL     OW44246   4.928   4.294  13.317
47450SOL    HW144247   4.930   4.302  13.412
47450SOL    HW244248   4.927   4.384  13.285
47451SOL     OW44249   6.841   0.911  14.592
47451SOL    HW144250   6.791   0.948  14.664
47451SOL    HW244251   6.917   0.870  14.633
47452SOL     OW44252  10.855   7.431   9.109
47452SOL    HW144253  10.905   7.352   9.088
47452SOL    HW244254  10.790   7.437   9.039
47453SOL     OW44255   7.518   4.088   7.156
47453SOL    HW144256   7.510   4.104   7.250
47453SOL    HW244257   7.430   4.103   7.122
47454SOL     OW44258  10.386   8.194  11.146
47454SOL    HW144259  10.391   8.101  11.167
47454SOL    HW244260  10.461   8.233  11.193
47455SOL     OW44261  13.800   5.697   6.798
47455SOL    HW144262  13.813   5.609   6.834
47455SOL    HW244263  13.737   5.685   6.727
47456SOL     OW44264  11.738   7.777  11.716
47456SOL    HW144265  11.684   7.803  11.791
47456SOL    HW244266  11.736   7.681  11.717
47457SOL     OW44267   4.664   6.065   0.525
47457SOL    HW144268   4.574   6.041   0.547
47457SOL    HW244269   4.717   5.995   0.563
47458SOL     OW44270   2.074   0.573   4.053
47458SOL    HW144271   2.144   0.639   4.050
47458SOL    HW244272   1.999   0.619   4.090
47459SOL     OW44273   1.840   5.240  12.956
47459SOL    HW144274   1.892   5.242  13.036
47459SOL    HW244275   1.832   5.147  12.934
47460SOL     OW44276  11.376   8.281   9.948
47460SOL    HW144277  11.334   8.211   9.898
47460SOL    HW244278  11.303   8.329   9.988
47461SOL     OW44279   1.541   4.268   4.132
47461SOL    HW144280   1.458   4.278   4.179
47461SOL    HW244281   1.607   4.297   4.194
47462SOL     OW44282  10.336   3.746   1.214
47462SOL    HW144283  10.377   3.821   1.257
47462SOL    HW244284  10.247   3.745   1.249
47463SOL     OW44285   2.307   0.006   2.702
47463SOL    HW144286   2.214   0.003   2.677
47463SOL    HW244287   2.343   0.079   2.653
47464SOL     OW44288   9.380  11.692   4.394
47464SOL    HW144289   9.434  11.633   4.447
47464SOL    HW244290   9.323  11.735   4.457
47465SOL     OW44291   7.229   4.406  10.424
47465SOL    HW144292   7.318   4.441  10.429
47465SOL    HW244293   7.232   4.327  10.478
47466SOL     OW44294   9.389   3.500   2.479
47466SOL    HW144295   9.417   3.587   2.450
47466SOL    HW244296   9.307   3.516   2.525
47467SOL     OW44297  13.649   0.538  12.195
47467SOL    HW144298  13.660   0.609  12.258
47467SOL    HW244299  13.726   0.544  12.139
47468SOL     OW44300   3.977  14.450  11.830
47468SOL    HW144301   4.021  14.391  11.769
47468SOL    HW244302   3.889  14.413  11.841
47469SOL     OW44303  10.589   2.348   2.020
47469SOL    HW144304  10.651   2.397   2.074
47469SOL    HW244305  10.558   2.277   2.076
47470SOL     OW44306   1.368  12.864   5.203
47470SOL    HW144307   1.325  12.949   5.209
47470SOL    HW244308   1.329  12.823   5.126
47471SOL     OW44309  13.622   3.392   9.554
47471SOL    HW144310  13.651   3.392   9.645
47471SOL    HW244311  13.527   3.404   9.559
47472SOL     OW44312  12.788   2.780   1.448
47472SOL    HW144313  12.811   2.873   1.443
47472SOL    HW244314  12.696   2.777   1.419
47473SOL     OW44315   3.425   0.697   2.647
47473SOL    HW144316   3.429   0.683   2.552
47473SOL    HW244317   3.357   0.763   2.659
47474SOL     OW44318   3.077   1.396   9.157
47474SOL    HW144319   3.077   1.353   9.242
47474SOL    HW244320   3.025   1.339   9.100
47475SOL     OW44321   3.393  14.813   3.491
47475SOL    HW144322   3.428  14.807   3.402
47475SOL    HW244323   3.461  14.859   3.541
47476SOL     OW44324   6.675   4.945  13.225
47476SOL    HW144325   6.739   4.951  13.154
47476SOL    HW244326   6.600   4.996  13.195
47477SOL     OW44327  13.049   9.985  12.287
47477SOL    HW144328  13.130   9.961  12.242
47477SOL    HW244329  13.064   9.961  12.379
47478SOL     OW44330   2.759  11.399   3.764
47478SOL    HW144331   2.823  11.400   3.693
47478SOL    HW244332   2.674  11.410   3.721
47479SOL     OW44333   1.375  13.954   7.899
47479SOL    HW144334   1.440  13.955   7.829
47479SOL    HW244335   1.291  13.947   7.854
47480SOL     OW44336   3.011  10.195   0.624
47480SOL    HW144337   2.948  10.125   0.641
47480SOL    HW244338   2.997  10.257   0.695
47481SOL     OW44339   0.105   0.044   0.731
47481SOL    HW144340   0.119   0.095   0.651
47481SOL    HW244341   0.150  14.836   0.715
47482SOL     OW44342  12.673   9.677   5.684
47482SOL    HW144343  12.738   9.738   5.649
47482SOL    HW244344  12.713   9.641   5.763
47483SOL     OW44345   2.930  13.070   5.726
47483SOL    HW144346   2.923  13.099   5.635
47483SOL    HW244347   2.847  13.094   5.766
47484SOL     OW44348   5.709   7.607   5.341
47484SOL    HW144349   5.730   7.661   5.265
47484SOL    HW244350   5.624   7.640   5.371
47485SOL     OW44351  12.222   1.202   6.664
47485SOL    HW144352  12.205   1.281   6.716
47485SOL    HW244353  12.235   1.133   6.729
47486SOL     OW44354   3.538   9.619   1.113
47486SOL    HW144355   3.549   9.710   1.087
47486SOL    HW244356   3.456   9.592   1.071
47487SOL     OW44357   3.868   7.434   6.017
47487SOL    HW144358   3.831   7.402   6.099
47487SOL    HW244359   3.961   7.413   6.023
47488SOL     OW44360  11.798   3.799   8.548
47488SOL    HW144361  11.789   3.717   8.499
47488SOL    HW244362  11.710   3.816   8.583
47489SOL     OW44363   6.749   8.060   7.277
47489SOL    HW144364   6.814   8.083   7.343
47489SOL    HW244365   6.698   7.989   7.316
47490SOL     OW44366   2.728  10.558  10.161
47490SOL    HW144367   2.686  10.526  10.082
47490SOL    HW244368   2.821  10.541  10.148
47491SOL     OW44369   5.430   8.579   1.677
47491SOL    HW144370   5.393   8.603   1.762
47491SOL    HW244371   5.356   8.546   1.626
47492SOL     OW44372   1.165   2.232  12.681
47492SOL    HW144373   1.165   2.139  12.704
47492SOL    HW244374   1.077   2.250  12.650
47493SOL     OW44375  13.419  14.161   3.713
47493SOL    HW144376  13.460  14.244   3.688
47493SOL    HW244377  13.488  14.096   3.702
47494SOL     OW44378   1.151  12.308   0.111
47494SOL    HW144379   1.229  12.267   0.148
47494SOL    HW244380   1.148  12.395   0.150
47495SOL     OW44381  10.624  14.409   9.427
47495SOL    HW144382  10.712  14.411   9.465
47495SOL    HW244383  10.566  14.391   9.502
47496SOL     OW44384   6.709   2.116   6.478
47496SOL    HW144385   6.666   2.120   6.392
47496SOL    HW244386   6.684   2.198   6.521
47497SOL     OW44387   0.796  10.593   4.094
47497SOL    HW144388   0.797  10.658   4.024
47497SOL    HW244389   0.836  10.636   4.169
47498SOL     OW44390   1.547   0.985   4.629
47498SOL    HW144391   1.458   1.001   4.598
47498SOL    HW244392   1.538   0.916   4.694
47499SOL     OW44393   5.799   9.866  12.889
47499SOL    HW144394   5.825   9.955  12.911
47499SOL    HW244395   5.788   9.822  12.974
47500SOL     OW44396   4.699  13.947   9.596
47500SOL    HW144397   4.794  13.945   9.605
47500SOL    HW244398   4.677  13.870   9.544
47501SOL     OW44399   3.464   3.980  13.519
47501SOL    HW144400   3.490   3.947  13.606
47501SOL    HW244401   3.440   4.072  13.535
47502SOL     OW44402   7.672   8.022   7.041
47502SOL    HW144403   7.678   7.948   6.981
47502SOL    HW244404   7.741   8.006   7.106
47503SOL     OW44405  14.629   0.540   7.363
47503SOL    HW144406  14.632   0.609   7.429
47503SOL    HW244407  14.591   0.581   7.286
47504SOL     OW44408  13.042   7.522  14.176
47504SOL    HW144409  12.962   7.471  14.187
47504SOL    HW244410  13.064   7.512  14.083
47505SOL     OW44411   8.557   0.218  11.132
47505SOL    HW144412   8.599   0.151  11.187
47505SOL    HW244413   8.589   0.199  11.043
47506SOL     OW44414   4.972   6.000   2.065
47506SOL    HW144415   4.924   6.079   2.090
47506SOL    HW244416   4.956   5.991   1.971
47507SOL     OW44417   6.284   6.483  10.123
47507SOL    HW144418   6.287   6.390  10.146
47507SOL    HW244419   6.359   6.494  10.064
47508SOL     OW44420   9.633  11.803   4.737
47508SOL    HW144421   9.592  11.717   4.740
47508SOL    HW244422   9.690  11.801   4.660
47509SOL     OW44423   0.568   0.301   6.719
47509SOL    HW144424   0.542   0.320   6.809
47509SOL    HW244425   0.486   0.301   6.670
47510SOL     OW44426  11.970  10.987  12.555
47510SOL    HW144427  12.045  10.930  12.537
47510SOL    HW244428  11.985  11.018  12.645
47511SOL     OW44429   8.547  10.815   8.722
47511SOL    HW144430   8.542  10.908   8.701
47511SOL    HW244431   8.456  10.786   8.727
47512SOL     OW44432   1.283   7.735  11.047
47512SOL    HW144433   1.220   7.709  11.114
47512SOL    HW244434   1.293   7.658  10.991
47513SOL     OW44435   9.481  10.789   2.358
47513SOL    HW144436   9.441  10.724   2.416
47513SOL    HW244437   9.407  10.837   2.321
47514SOL     OW44438   0.667   4.842  14.683
47514SOL    HW144439   0.698   4.868  14.596
47514SOL    HW244440   0.600   4.908  14.704
47515SOL     OW44441   2.653   8.203  12.228
47515SOL    HW144442   2.620   8.229  12.142
47515SOL    HW244443   2.604   8.257  12.290
47516SOL     OW44444   4.023  13.309   1.726
47516SOL    HW144445   4.005  13.297   1.632
47516SOL    HW244446   4.111  13.347   1.729
47517SOL     OW44447   5.307  13.040   9.692
47517SOL    HW144448   5.365  13.091   9.749
47517SOL    HW244449   5.330  13.067   9.603
47518SOL     OW44450   1.536   8.952  13.936
47518SOL    HW144451   1.449   8.969  13.972
47518SOL    HW244452   1.531   8.979  13.845
47519SOL     OW44453   1.090   0.345   0.049
47519SOL    HW144454   1.063   0.370  14.836
47519SOL    HW244455   1.178   0.310   0.038
47520SOL     OW44456  11.334   4.420  10.831
47520SOL    HW144457  11.286   4.503  10.832
47520SOL    HW244458  11.415   4.439  10.785
47521SOL     OW44459   0.417   9.960  11.450
47521SOL    HW144460   0.360  10.023  11.495
47521SOL    HW244461   0.431   9.890  11.514
47522SOL     OW44462  12.689  10.402   0.925
47522SOL    HW144463  12.648  10.372   0.844
47522SOL    HW244464  12.703  10.495   0.913
47523SOL     OW44465  11.887   5.851  13.102
47523SOL    HW144466  11.817   5.791  13.075
47523SOL    HW244467  11.882   5.852  13.198
47524SOL     OW44468   9.133   2.536   9.948
47524SOL    HW144469   9.200   2.599   9.974
47524SOL    HW244470   9.173   2.485   9.877
47525SOL     OW44471  10.166   8.384   7.150
47525SOL    HW144472  10.202   8.327   7.218
47525SOL    HW244473  10.094   8.431   7.193
47526SOL     OW44474  10.856  10.531   3.532
47526SOL    HW144475  10.771  10.527   3.487
47526SOL    HW244476  10.848  10.605   3.592
47527SOL     OW44477   6.002   9.755   6.688
47527SOL    HW144478   6.058   9.681   6.663
47527SOL    HW244479   5.950   9.773   6.610
47528SOL     OW44480   7.568  14.014   3.715
47528SOL    HW144481   7.593  13.927   3.745
47528SOL    HW244482   7.473  14.008   3.703
47529SOL     OW44483  14.049  11.985   5.700
47529SOL    HW144484  13.961  11.969   5.735
47529SOL    HW244485  14.036  11.995   5.606
47530SOL     OW44486   1.312   4.333   4.259
47530SOL    HW144487   1.242   4.280   4.298
47530SOL    HW244488   1.281   4.352   4.170
47531SOL     OW44489  10.726   4.243  10.672
47531SOL    HW144490  10.730   4.198  10.757
47531SOL    HW244491  10.637   4.230  10.642
47532SOL     OW44492  10.431   3.030   5.799
47532SOL    HW144493  10.383   3.052   5.719
47532SOL    HW244494  10.471   2.945   5.780
47533SOL     OW44495   0.952   9.335   9.433
47533SOL    HW144496   0.898   9.331   9.512
47533SOL    HW244497   0.888   9.345   9.361
47534SOL     OW44498   9.293   4.440  11.057
47534SOL    HW144499   9.344   4.520  11.045
47534SOL    HW244500   9.274   4.409  10.969
47535SOL     OW44501   7.087  14.823   0.585
47535SOL    HW144502   7.007  14.874   0.591
47535SOL    HW244503   7.127  14.850   0.502
47536SOL     OW44504  14.195  10.238  10.835
47536SOL    HW144505  14.216  10.291  10.912
47536SOL    HW244506  14.109  10.267  10.808
47537SOL     OW44507  14.809   1.949   3.257
47537SOL    HW144508  14.872   1.950   3.330
47537SOL    HW244509  14.785   1.857   3.247
47538SOL     OW44510   3.233  12.241  14.858
47538SOL    HW144511   3.325  12.214  14.869
47538SOL    HW244512   3.193  12.223   0.068
47539SOL     OW44513   3.245  14.118   9.285
47539SOL    HW144514   3.154  14.104   9.312
47539SOL    HW244515   3.291  14.038   9.312
47540SOL     OW44516   8.777   1.325   4.861
47540SOL    HW144517   8.705   1.358   4.807
47540SOL    HW244518   8.785   1.232   4.836
47541SOL     OW44519  12.896   5.557   6.043
47541SOL    HW144520  12.983   5.518   6.054
47541SOL    HW244521  12.894   5.583   5.951
47542SOL     OW44522  10.963   9.318   1.646
47542SOL    HW144523  10.943   9.305   1.554
47542SOL    HW244524  10.934   9.237   1.689
47543SOL     OW44525   9.645   9.234   1.261
47543SOL    HW144526   9.704   9.236   1.186
47543SOL    HW244527   9.583   9.164   1.241
47544SOL     OW44528   3.130   5.252  13.854
47544SOL    HW144529   3.038   5.277  13.846
47544SOL    HW244530   3.133   5.195  13.931
47545SOL     OW44531  14.043   5.495  14.450
47545SOL    HW144532  14.009   5.486  14.539
47545SOL    HW244533  14.138   5.499  14.461
47546SOL     OW44534   6.638   8.469   0.136
47546SOL    HW144535   6.659   8.526   0.210
47546SOL    HW244536   6.723   8.439   0.103
47547SOL     OW44537  13.656  13.373  11.662
47547SOL    HW144538  13.644  13.464  11.688
47547SOL    HW244539  13.588  13.325  11.710
47548SOL     OW44540  14.107   3.981   8.420
47548SOL    HW144541  14.014   3.975   8.398
47548SOL    HW244542  14.116   3.929   8.500
47549SOL     OW44543   8.156  14.103  12.397
47549SOL    HW144544   8.063  14.114  12.375
47549SOL    HW244545   8.199  14.181  12.361
47550SOL     OW44546   1.466  12.399   7.092
47550SOL    HW144547   1.539  12.402   7.031
47550SOL    HW244548   1.496  12.448   7.169
47551SOL     OW44549   1.365   5.926   9.815
47551SOL    HW144550   1.328   5.906   9.729
47551SOL    HW244551   1.289   5.941   9.871
47552SOL     OW44552   5.976   2.974   5.883
47552SOL    HW144553   6.005   2.884   5.869
47552SOL    HW244554   5.928   2.996   5.803
47553SOL     OW44555  10.136   1.095  13.016
47553SOL    HW144556  10.227   1.066  13.012
47553SOL    HW244557  10.142   1.190  13.025
47554SOL     OW44558  12.371  11.429  14.446
47554SOL    HW144559  12.457  11.400  14.477
47554SOL    HW244560  12.390  11.491  14.376
47555SOL     OW44561   5.247   9.684  10.407
47555SOL    HW144562   5.229   9.714  10.496
47555SOL    HW244563   5.269   9.763  10.359
47556SOL     OW44564   4.240   3.345   2.952
47556SOL    HW144565   4.321   3.363   2.904
47556SOL    HW244566   4.171   3.358   2.886
47557SOL     OW44567  12.603   8.348   4.041
47557SOL    HW144568  12.655   8.353   3.961
47557SOL    HW244569  12.521   8.307   4.015
47558SOL     OW44570   2.651   3.810  10.880
47558SOL    HW144571   2.701   3.892  10.883
47558SOL    HW244572   2.561   3.838  10.863
47559SOL     OW44573  10.888  13.576  12.275
47559SOL    HW144574  10.923  13.604  12.360
47559SOL    HW244575  10.846  13.654  12.240
47560SOL     OW44576   0.389   1.359   5.006
47560SOL    HW144577   0.464   1.362   4.947
47560SOL    HW244578   0.418   1.406   5.084
47561SOL     OW44579   3.056   4.245   2.521
47561SOL    HW144580   3.140   4.232   2.477
47561SOL    HW244581   2.993   4.197   2.467
47562SOL     OW44582   9.622  12.803   4.268
47562SOL    HW144583   9.659  12.742   4.204
47562SOL    HW244584   9.546  12.842   4.225
47563SOL     OW44585  10.521   2.397  11.209
47563SOL    HW144586  10.460   2.335  11.169
47563SOL    HW244587  10.467   2.445  11.272
47564SOL     OW44588   2.923   0.678   3.543
47564SOL    HW144589   2.843   0.710   3.501
47564SOL    HW244590   2.970   0.631   3.474
47565SOL     OW44591   7.209   5.187  12.744
47565SOL    HW144592   7.296   5.207  12.777
47565SOL    HW244593   7.225   5.142  12.661
47566SOL     OW44594   8.642   4.486  13.194
47566SOL    HW144595   8.690   4.532  13.125
47566SOL    HW244596   8.552   4.519  13.187
47567SOL     OW44597   2.145   3.818   1.763
47567SOL    HW144598   2.216   3.765   1.729
47567SOL    HW244599   2.066   3.766   1.748
47568SOL     OW44600  13.943  14.748   6.246
47568SOL    HW144601  14.016  14.693   6.276
47568SOL    HW244602  13.968  14.774   6.158
47569SOL     OW44603   1.655  10.833   3.423
47569SOL    HW144604   1.676  10.760   3.481
47569SOL    HW244605   1.629  10.903   3.482
47570SOL     OW44606  11.087  13.366  11.971
47570SOL    HW144607  11.156  13.408  11.921
47570SOL    HW244608  11.100  13.396  12.061
47571SOL     OW44609   1.068   9.860   6.118
47571SOL    HW144610   1.044   9.820   6.034
47571SOL    HW244611   1.009   9.935   6.127
47572SOL     OW44612   6.639   0.613   6.936
47572SOL    HW144613   6.683   0.574   7.011
47572SOL    HW244614   6.705   0.609   6.866
47573SOL     OW44615   6.610   1.041   6.608
47573SOL    HW144616   6.629   1.100   6.680
47573SOL    HW244617   6.518   1.017   6.619
47574SOL     OW44618   1.527   8.375  11.983
47574SOL    HW144619   1.562   8.462  12.002
47574SOL    HW244620   1.585   8.315  12.030
47575SOL     OW44621   4.445  12.361  14.153
47575SOL    HW144622   4.490  12.362  14.237
47575SOL    HW244623   4.491  12.427  14.100
47576SOL     OW44624   5.277  10.211  10.006
47576SOL    HW144625   5.353  10.173  10.049
47576SOL    HW244626   5.263  10.157   9.928
47577SOL     OW44627  14.788   7.339   7.551
47577SOL    HW144628  14.845   7.279   7.600
47577SOL    HW244629  14.768   7.292   7.470
47578SOL     OW44630   1.984   4.511  11.727
47578SOL    HW144631   1.944   4.549  11.805
47578SOL    HW244632   1.966   4.574  11.658
47579SOL     OW44633   9.588  13.330   3.859
47579SOL    HW144634   9.536  13.251   3.850
47579SOL    HW244635   9.525  13.398   3.884
47580SOL     OW44636   3.604  10.800   7.301
47580SOL    HW144637   3.616  10.851   7.381
47580SOL    HW244638   3.531  10.741   7.320
47581SOL     OW44639   6.342   1.150   0.514
47581SOL    HW144640   6.325   1.228   0.566
47581SOL    HW244641   6.302   1.169   0.429
47582SOL     OW44642  13.882  11.333  14.104
47582SOL    HW144643  13.937  11.409  14.084
47582SOL    HW244644  13.804  11.370  14.145
47583SOL     OW44645   8.524   0.243   9.396
47583SOL    HW144646   8.612   0.248   9.358
47583SOL    HW244647   8.469   0.289   9.333
47584SOL     OW44648   4.619   8.305   1.603
47584SOL    HW144649   4.606   8.256   1.684
47584SOL    HW244650   4.611   8.397   1.629
47585SOL     OW44651   7.912   6.125   3.477
47585SOL    HW144652   7.969   6.147   3.403
47585SOL    HW244653   7.951   6.047   3.516
47586SOL     OW44654   3.560  10.548   2.335
47586SOL    HW144655   3.619  10.621   2.353
47586SOL    HW244656   3.511  10.535   2.417
47587SOL     OW44657  14.221   0.240   9.264
47587SOL    HW144658  14.305   0.286   9.274
47587SOL    HW244659  14.170   0.296   9.205
47588SOL     OW44660   7.327  10.024   8.986
47588SOL    HW144661   7.347   9.947   8.932
47588SOL    HW244662   7.323  10.096   8.924
47589SOL     OW44663   5.615   1.185   1.045
47589SOL    HW144664   5.551   1.251   1.018
47589SOL    HW244665   5.699   1.223   1.021
47590SOL     OW44666   1.423   4.872   6.714
47590SOL    HW144667   1.338   4.913   6.698
47590SOL    HW244668   1.470   4.934   6.770
47591SOL     OW44669  12.630   1.034   1.069
47591SOL    HW144670  12.544   0.992   1.070
47591SOL    HW244671  12.644   1.058   0.978
47592SOL     OW44672   3.337   1.429   6.163
47592SOL    HW144673   3.356   1.337   6.147
47592SOL    HW244674   3.275   1.428   6.236
47593SOL     OW44675   7.875  11.859   2.342
47593SOL    HW144676   7.937  11.898   2.280
47593SOL    HW244677   7.806  11.822   2.286
47594SOL     OW44678   4.329   9.294   5.678
47594SOL    HW144679   4.414   9.281   5.719
47594SOL    HW244680   4.302   9.207   5.649
47595SOL     OW44681  11.463   9.030   2.753
47595SOL    HW144682  11.452   8.936   2.736
47595SOL    HW244683  11.506   9.034   2.838
47596SOL     OW44684   2.047  12.956  10.944
47596SOL    HW144685   1.985  13.017  10.984
47596SOL    HW244686   2.104  12.929  11.016
47597SOL     OW44687  10.707  11.209   9.604
47597SOL    HW144688  10.629  11.192   9.656
47597SOL    HW244689  10.708  11.304   9.592
47598SOL     OW44690   3.730  13.462  11.175
47598SOL    HW144691   3.694  13.532  11.230
47598SOL    HW244692   3.704  13.381  11.219
47599SOL     OW44693   1.014   2.139   6.254
47599SOL    HW144694   1.081   2.109   6.192
47599SOL    HW244695   0.984   2.059   6.298
47600SOL     OW44696  13.096   6.438  10.631
47600SOL    HW144697  13.136   6.372  10.575
47600SOL    HW244698  13.168   6.496  10.655
47601SOL     OW44699  13.324  14.304   8.182
47601SOL    HW144700  13.256  14.331   8.119
47601SOL    HW244701  13.320  14.208   8.182
47602SOL     OW44702  11.563   4.448  10.679
47602SOL    HW144703  11.585   4.506  10.606
47602SOL    HW244704  11.570   4.360  10.642
47603SOL     OW44705   8.606   5.096   5.111
47603SOL    HW144706   8.643   5.063   5.029
47603SOL    HW244707   8.666   5.065   5.179
47604SOL     OW44708   2.079   3.763  10.169
47604SOL    HW144709   2.014   3.698  10.194
47604SOL    HW244710   2.074   3.769  10.074
47605SOL     OW44711  14.151   9.129  10.903
47605SOL    HW144712  14.087   9.087  10.960
47605SOL    HW244713  14.191   9.057  10.855
47606SOL     OW44714   8.827  13.429  11.646
47606SOL    HW144715   8.773  13.454  11.721
47606SOL    HW244716   8.783  13.353  11.609
47607SOL     OW44717   7.435  12.752   6.695
47607SOL    HW144718   7.432  12.710   6.781
47607SOL    HW244719   7.351  12.798   6.687
47608SOL     OW44720  14.248   3.909   4.754
47608SOL    HW144721  14.244   3.867   4.668
47608SOL    HW244722  14.248   4.002   4.734
47609SOL     OW44723   5.861   0.633  11.234
47609SOL    HW144724   5.836   0.563  11.174
47609SOL    HW244725   5.790   0.636  11.298
47610SOL     OW44726   3.187  14.512  13.032
47610SOL    HW144727   3.212  14.432  13.078
47610SOL    HW244728   3.267  14.539  12.986
47611SOL     OW44729   8.512  10.140  14.200
47611SOL    HW144730   8.599  10.164  14.169
47611SOL    HW244731   8.453  10.200  14.154
47612SOL     OW44732   0.225   3.108   5.015
47612SOL    HW144733   0.130   3.093   5.012
47612SOL    HW244734   0.254   3.061   5.093
47613SOL     OW44735   6.747   1.552   9.871
47613SOL    HW144736   6.755   1.622   9.937
47613SOL    HW244737   6.749   1.599   9.788
47614SOL     OW44738   8.003  12.848  12.720
47614SOL    HW144739   7.917  12.883  12.695
47614SOL    HW244740   8.012  12.768  12.668
47615SOL     OW44741   8.283   6.669  10.858
47615SOL    HW144742   8.328   6.743  10.899
47615SOL    HW244743   8.222   6.638  10.925
47616SOL     OW44744  13.942   2.154   9.032
47616SOL    HW144745  13.916   2.180   8.943
47616SOL    HW244746  14.037   2.150   9.029
47617SOL     OW44747  10.139   1.621   2.759
47617SOL    HW144748  10.060   1.585   2.800
47617SOL    HW244749  10.167   1.690   2.818
47618SOL     OW44750   7.439   7.170   3.966
47618SOL    HW144751   7.521   7.208   3.935
47618SOL    HW244752   7.372   7.205   3.907
47619SOL     OW44753   8.144  13.546  11.303
47619SOL    HW144754   8.217  13.484  11.304
47619SOL    HW244755   8.067  13.492  11.316
47620SOL     OW44756   8.230   7.089   3.693
47620SOL    HW144757   8.191   7.081   3.606
47620SOL    HW244758   8.238   7.184   3.706
47621SOL     OW44759   5.035  10.660   9.563
47621SOL    HW144760   5.044  10.667   9.658
47621SOL    HW244761   5.114  10.701   9.528
47622SOL     OW44762  11.254   6.685  13.892
47622SOL    HW144763  11.230   6.777  13.906
47622SOL    HW244764  11.233   6.668  13.800
47623SOL     OW44765   0.682   8.304   0.121
47623SOL    HW144766   0.670   8.222   0.074
47623SOL    HW244767   0.593   8.334   0.142
47624SOL     OW44768  14.592  14.751  12.850
47624SOL    HW144769  14.549  14.835  12.863
47624SOL    HW244770  14.686  14.769  12.863
47625SOL     OW44771   5.131   9.829   5.046
47625SOL    HW144772   5.179   9.912   5.040
47625SOL    HW244773   5.088   9.832   5.131
47626SOL     OW44774   1.143   5.447   5.363
47626SOL    HW144775   1.234   5.442   5.334
47626SOL    HW244776   1.129   5.541   5.380
47627SOL     OW44777   1.015   9.505   3.251
47627SOL    HW144778   1.063   9.586   3.237
47627SOL    HW244779   0.924   9.531   3.257
47628SOL     OW44780  14.822   0.684   5.696
47628SOL    HW144781  14.772   0.607   5.670
47628SOL    HW244782   0.036   0.651   5.709
47629SOL     OW44783   4.592   3.818  12.486
47629SOL    HW144784   4.578   3.912  12.486
47629SOL    HW244785   4.667   3.804  12.544
47630SOL     OW44786   1.269  12.049  13.350
47630SOL    HW144787   1.251  11.970  13.299
47630SOL    HW244788   1.363  12.043  13.371
47631SOL     OW44789  10.233  12.805   0.666
47631SOL    HW144790  10.326  12.813   0.644
47631SOL    HW244791  10.187  12.847   0.593
47632SOL     OW44792   4.942   6.057   8.783
47632SOL    HW144793   4.886   5.988   8.818
47632SOL    HW244794   5.021   6.012   8.754
47633SOL     OW44795  13.352   6.174  10.810
47633SOL    HW144796  13.318   6.130  10.732
47633SOL    HW244797  13.287   6.155  10.878
47634SOL     OW44798   3.396   3.394   7.281
47634SOL    HW144799   3.460   3.417   7.215
47634SOL    HW244800   3.339   3.330   7.238
47635SOL     OW44801   4.225  12.021  14.067
47635SOL    HW144802   4.148  11.988  14.021
47635SOL    HW244803   4.192  12.090  14.124
47636SOL     OW44804   4.278  10.805   1.970
47636SOL    HW144805   4.284  10.717   2.008
47636SOL    HW244806   4.188  10.810   1.937
47637SOL     OW44807   2.854  13.585  13.579
47637SOL    HW144808   2.864  13.490  13.572
47637SOL    HW244809   2.765  13.602  13.550
47638SOL     OW44810   4.019   8.968   4.101
47638SOL    HW144811   4.092   9.027   4.122
47638SOL    HW244812   4.022   8.901   4.169
47639SOL     OW44813   5.490   0.652   4.288
47639SOL    HW144814   5.522   0.652   4.378
47639SOL    HW244815   5.543   0.585   4.244
47640SOL     OW44816  11.367   2.161  13.934
47640SOL    HW144817  11.396   2.121  14.015
47640SOL    HW244818  11.308   2.097  13.895
47641SOL     OW44819   8.085   5.077  14.574
47641SOL    HW144820   8.062   5.047  14.486
47641SOL    HW244821   8.118   5.166  14.561
47642SOL     OW44822   0.074  14.544  11.018
47642SOL    HW144823   0.036  14.628  11.044
47642SOL    HW244824   0.049  14.533  10.926
47643SOL     OW44825   1.892   8.741  10.308
47643SOL    HW144826   1.944   8.801  10.361
47643SOL    HW244827   1.951   8.668  10.290
47644SOL     OW44828   3.942   4.152   9.580
47644SOL    HW144829   3.987   4.138   9.496
47644SOL    HW244830   4.010   4.143   9.646
47645SOL     OW44831   5.184  12.042   8.794
47645SOL    HW144832   5.117  11.980   8.766
47645SOL    HW244833   5.198  12.098   8.717
47646SOL     OW44834   4.033  13.437   7.487
47646SOL    HW144835   4.011  13.405   7.574
47646SOL    HW244836   3.964  13.403   7.430
47647SOL     OW44837   9.952   5.135   1.275
47647SOL    HW144838  10.012   5.154   1.346
47647SOL    HW244839   9.885   5.203   1.280
47648SOL     OW44840  12.458   9.909   6.318
47648SOL    HW144841  12.398   9.920   6.244
47648SOL    HW244842  12.424   9.967   6.386
47649SOL     OW44843   6.729  11.450   9.905
47649SOL    HW144844   6.640  11.437   9.938
47649SOL    HW244845   6.782  11.391   9.958
47650SOL     OW44846   7.793   0.573   1.013
47650SOL    HW144847   7.758   0.504   0.956
47650SOL    HW244848   7.777   0.540   1.102
47651SOL     OW44849   3.201   9.155   0.067
47651SOL    HW144850   3.288   9.195   0.072
47651SOL    HW244851   3.147   9.221   0.023
47652SOL     OW44852   3.784   1.496  12.642
47652SOL    HW144853   3.821   1.414  12.607
47652SOL    HW244854   3.810   1.495  12.734
47653SOL     OW44855   0.926   8.767   0.063
47653SOL    HW144856   0.910   8.673   0.060
47653SOL    HW244857   0.909   8.798  14.849
47654SOL     OW44858   5.117   7.193   5.835
47654SOL    HW144859   5.197   7.146   5.813
47654SOL    HW244860   5.078   7.216   5.751
47655SOL     OW44861   3.248   0.260   4.442
47655SOL    HW144862   3.274   0.345   4.406
47655SOL    HW244863   3.325   0.227   4.487
47656SOL     OW44864   8.325  14.628   0.091
47656SOL    HW144865   8.372  14.655   0.171
47656SOL    HW244866   8.382  14.656   0.019
47657SOL     OW44867  10.514  11.636   7.028
47657SOL    HW144868  10.561  11.578   7.089
47657SOL    HW244869  10.460  11.691   7.084
47658SOL     OW44870   9.565   0.042   7.125
47658SOL    HW144871   9.639   0.024   7.067
47658SOL    HW244872   9.593   0.008   7.210
47659SOL     OW44873   6.064   3.060   3.929
47659SOL    HW144874   5.971   3.043   3.943
47659SOL    HW244875   6.085   3.016   3.847
47660SOL     OW44876   6.601  12.393   7.023
47660SOL    HW144877   6.593  12.312   7.074
47660SOL    HW244878   6.660  12.370   6.951
47661SOL     OW44879   6.815  13.071   0.181
47661SOL    HW144880   6.767  13.058   0.263
47661SOL    HW244881   6.805  12.989   0.134
47662SOL     OW44882   4.608   6.744  10.811
47662SOL    HW144883   4.644   6.683  10.876
47662SOL    HW244884   4.521   6.767  10.845
47663SOL     OW44885  10.878   5.516   3.080
47663SOL    HW144886  10.939   5.575   3.123
47663SOL    HW244887  10.826   5.479   3.151
47664SOL     OW44888   0.095  13.622   8.822
47664SOL    HW144889   0.121  13.650   8.911
47664SOL    HW244890   0.003  13.645   8.816
47665SOL     OW44891   6.834  10.329   0.009
47665SOL    HW144892   6.919  10.288  14.866
47665SOL    HW244893   6.852  10.423   0.011
47666SOL     OW44894  11.900  11.120  13.154
47666SOL    HW144895  11.882  11.155  13.242
47666SOL    HW244896  11.942  11.036  13.171
47667SOL     OW44897   6.181   5.279   8.614
47667SOL    HW144898   6.160   5.251   8.525
47667SOL    HW244899   6.115   5.237   8.669
47668SOL     OW44900   4.430  11.133   3.213
47668SOL    HW144901   4.382  11.215   3.206
47668SOL    HW244902   4.362  11.065   3.209
47669SOL     OW44903   0.014   0.898   4.918
47669SOL    HW144904  14.868   0.991   4.926
47669SOL    HW244905   0.068   0.879   4.995
47670SOL     OW44906   1.450  10.677   0.181
47670SOL    HW144907   1.453  10.628   0.263
47670SOL    HW244908   1.376  10.738   0.192
47671SOL     OW44909   0.773  10.126   8.895
47671SOL    HW144910   0.771  10.219   8.914
47671SOL    HW244911   0.742  10.119   8.805
47672SOL     OW44912  13.987   5.390   8.571
47672SOL    HW144913  13.992   5.456   8.640
47672SOL    HW244914  14.063   5.408   8.516
47673SOL     OW44915   6.495   5.137   2.227
47673SOL    HW144916   6.500   5.186   2.309
47673SOL    HW244917   6.422   5.176   2.180
47674SOL     OW44918   8.304   4.665  10.821
47674SOL    HW144919   8.222   4.623  10.847
47674SOL    HW244920   8.350   4.683  10.903
47675SOL     OW44921  12.489  14.722   9.685
47675SOL    HW144922  12.420  14.657   9.695
47675SOL    HW244923  12.507  14.725   9.591
47676SOL     OW44924  13.920   2.597   1.972
47676SOL    HW144925  13.876   2.513   1.959
47676SOL    HW244926  13.984   2.580   2.041
47677SOL     OW44927  12.795   8.153   0.547
47677SOL    HW144928  12.751   8.142   0.631
47677SOL    HW244929  12.728   8.187   0.488
47678SOL     OW44930   6.681   2.344   6.619
47678SOL    HW144931   6.600   2.339   6.670
47678SOL    HW244932   6.749   2.318   6.681
47679SOL     OW44933   5.727   4.959  13.249
47679SOL    HW144934   5.767   4.874  13.228
47679SOL    HW244935   5.667   4.940  13.321
47680SOL     OW44936  14.249   2.400   6.010
47680SOL    HW144937  14.194   2.397   6.089
47680SOL    HW244938  14.230   2.317   5.965
47681SOL     OW44939   7.011   4.579   6.176
47681SOL    HW144940   6.925   4.559   6.139
47681SOL    HW244941   7.073   4.557   6.106
47682SOL     OW44942   1.291  10.344  12.536
47682SOL    HW144943   1.250  10.308  12.615
47682SOL    HW244944   1.378  10.372  12.564
47683SOL     OW44945   8.385   7.018   7.318
47683SOL    HW144946   8.324   7.033   7.390
47683SOL    HW244947   8.330   7.011   7.241
47684SOL     OW44948  12.321   2.494   8.175
47684SOL    HW144949  12.374   2.416   8.187
47684SOL    HW244950  12.253   2.488   8.242
47685SOL     OW44951   0.044   5.042   5.644
47685SOL    HW144952   0.008   5.004   5.564
47685SOL    HW244953   0.109   5.105   5.613
47686SOL     OW44954  11.410   4.384   1.283
47686SOL    HW144955  11.429   4.395   1.376
47686SOL    HW244956  11.455   4.457   1.241
47687SOL     OW44957   8.526   4.662  12.785
47687SOL    HW144958   8.574   4.745  12.788
47687SOL    HW244959   8.460   4.675  12.717
47688SOL     OW44960  10.467   7.055  13.904
47688SOL    HW144961  10.379   7.086  13.882
47688SOL    HW244962  10.454   6.998  13.980
47689SOL     OW44963  11.215  10.568   2.810
47689SOL    HW144964  11.305  10.570   2.777
47689SOL    HW244965  11.212  10.638   2.875
47690SOL     OW44966   9.110   5.552  13.424
47690SOL    HW144967   9.125   5.458  13.434
47690SOL    HW244968   9.192   5.586  13.390
47691SOL     OW44969   4.178  11.998   4.881
47691SOL    HW144970   4.149  11.930   4.820
47691SOL    HW244971   4.098  12.046   4.904
47692SOL     OW44972   2.504   7.763   1.695
47692SOL    HW144973   2.450   7.796   1.624
47692SOL    HW244974   2.583   7.818   1.693
47693SOL     OW44975  12.117  10.800   4.916
47693SOL    HW144976  12.054  10.852   4.865
47693SOL    HW244977  12.202  10.842   4.898
47694SOL     OW44978  11.399   3.700   1.107
47694SOL    HW144979  11.317   3.652   1.108
47694SOL    HW244980  11.374   3.792   1.109
47695SOL     OW44981   1.971  11.331   4.125
47695SOL    HW144982   1.939  11.266   4.063
47695SOL    HW244983   2.050  11.292   4.163
47696SOL     OW44984   7.405   4.794  11.213
47696SOL    HW144985   7.351   4.725  11.251
47696SOL    HW244986   7.450   4.833  11.288
47697SOL     OW44987   2.192   2.809  12.422
47697SOL    HW144988   2.236   2.839  12.502
47697SOL    HW244989   2.261   2.770  12.370
47698SOL     OW44990  13.684  13.257  14.091
47698SOL    HW144991  13.732  13.340  14.088
47698SOL    HW244992  13.686  13.225  14.001
47699SOL     OW44993   3.164   7.401  10.068
47699SOL    HW144994   3.191   7.435  10.153
47699SOL    HW244995   3.159   7.479  10.012
47700SOL     OW44996   4.070  10.321  13.473
47700SOL    HW144997   4.143  10.302  13.413
47700SOL    HW244998   4.048  10.412  13.456
47701SOL     OW44999   6.753   6.271  10.019
47701SOL    HW145000   6.684   6.305  10.076
47701SOL    HW245001   6.726   6.297   9.931
47702SOL     OW45002   7.656   1.625   7.774
47702SOL    HW145003   7.570   1.585   7.788
47702SOL    HW245004   7.719   1.555   7.791
47703SOL     OW45005   6.533   7.161   5.754
47703SOL    HW145006   6.581   7.144   5.835
47703SOL    HW245007   6.478   7.084   5.742
47704SOL     OW45008   0.755   0.668  13.543
47704SOL    HW145009   0.777   0.703  13.457
47704SOL    HW245010   0.741   0.574  13.528
47705SOL     OW45011   6.846   1.368  10.147
47705SOL    HW145012   6.881   1.374  10.058
47705SOL    HW245013   6.839   1.459  10.176
47706SOL     OW45014   9.468   4.457   4.331
47706SOL    HW145015   9.373   4.470   4.327
47706SOL    HW245016   9.504   4.544   4.313
47707SOL     OW45017  10.621   6.247   8.064
47707SOL    HW145018  10.695   6.214   8.114
47707SOL    HW245019  10.626   6.342   8.073
47708SOL     OW45020   3.741   3.873  13.864
47708SOL    HW145021   3.745   3.792  13.814
47708SOL    HW245022   3.667   3.921  13.826
47709SOL     OW45023   4.195   3.348   3.236
47709SOL    HW145024   4.152   3.432   3.253
47709SOL    HW245025   4.204   3.344   3.141
47710SOL     OW45026   0.267  14.650  11.198
47710SOL    HW145027   0.223  14.621  11.118
47710SOL    HW245028   0.204  14.708  11.241
47711SOL     OW45029  14.455   6.435   1.702
47711SOL    HW145030  14.415   6.351   1.723
47711SOL    HW245031  14.486   6.470   1.786
47712SOL     OW45032   4.617   4.226   8.190
47712SOL    HW145033   4.605   4.149   8.247
47712SOL    HW245034   4.559   4.210   8.116
47713SOL     OW45035   7.089  13.768  10.880
47713SOL    HW145036   7.122  13.679  10.867
47713SOL    HW245037   7.091  13.807  10.792
47714SOL     OW45038   5.043  14.275   8.570
47714SOL    HW145039   5.006  14.322   8.645
47714SOL    HW245040   5.010  14.185   8.580
47715SOL     OW45041  12.331   6.406   1.285
47715SOL    HW145042  12.372   6.321   1.304
47715SOL    HW245043  12.263   6.385   1.220
47716SOL     OW45044  14.531   0.960   5.637
47716SOL    HW145045  14.602   0.937   5.697
47716SOL    HW245046  14.454   0.969   5.694
47717SOL     OW45047   5.244   2.078   9.984
47717SOL    HW145048   5.189   2.017  10.034
47717SOL    HW245049   5.332   2.042   9.991
47718SOL     OW45050   4.072   8.717   2.642
47718SOL    HW145051   4.071   8.790   2.705
47718SOL    HW245052   4.091   8.759   2.558
47719SOL     OW45053  10.649   9.538  12.241
47719SOL    HW145054  10.613   9.474  12.303
47719SOL    HW245055  10.704   9.486  12.183
47720SOL     OW45056   0.172  10.024  10.592
47720SOL    HW145057   0.110  10.002  10.661
47720SOL    HW245058   0.144  10.110  10.561
47721SOL     OW45059  13.270   5.490   6.450
47721SOL    HW145060  13.185   5.534   6.445
47721SOL    HW245061  13.314   5.512   6.368
47722SOL     OW45062  13.016   5.518   9.531
47722SOL    HW145063  12.982   5.445   9.583
47722SOL    HW245064  13.029   5.482   9.444
47723SOL     OW45065  11.140   3.072   9.364
47723SOL    HW145066  11.228   3.037   9.349
47723SOL    HW245067  11.097   3.070   9.279
47724SOL     OW45068  14.671  11.466   6.876
47724SOL    HW145069  14.736  11.406   6.839
47724SOL    HW245070  14.636  11.512   6.800
47725SOL     OW45071  13.298  11.038   5.244
47725SOL    HW145072  13.308  10.943   5.249
47725SOL    HW245073  13.306  11.058   5.150
47726SOL     OW45074   0.118   6.578   7.680
47726SOL    HW145075   0.086   6.578   7.590
47726SOL    HW245076   0.145   6.488   7.696
47727SOL     OW45077   7.264   7.431   7.750
47727SOL    HW145078   7.182   7.407   7.794
47727SOL    HW245079   7.255   7.397   7.661
47728SOL     OW45080   5.370   1.683  10.447
47728SOL    HW145081   5.410   1.753  10.500
47728SOL    HW245082   5.285   1.667  10.489
47729SOL     OW45083   3.760   6.127  10.085
47729SOL    HW145084   3.672   6.094  10.102
47729SOL    HW245085   3.812   6.049  10.068
47730SOL     OW45086  13.581   9.831   1.701
47730SOL    HW145087  13.636   9.797   1.772
47730SOL    HW245088  13.586   9.926   1.710
47731SOL     OW45089  10.620   7.981  13.486
47731SOL    HW145090  10.647   8.007  13.574
47731SOL    HW245091  10.576   7.896  13.498
47732SOL     OW45092  13.947   2.425   6.430
47732SOL    HW145093  13.877   2.394   6.488
47732SOL    HW245094  13.954   2.518   6.450
47733SOL     OW45095   4.104   4.449   7.057
47733SOL    HW145096   4.077   4.452   6.965
47733SOL    HW245097   4.185   4.397   7.056
47734SOL     OW45098  10.752   9.282   8.251
47734SOL    HW145099  10.841   9.317   8.244
47734SOL    HW245100  10.725   9.303   8.340
47735SOL     OW45101   7.686   7.940   3.855
47735SOL    HW145102   7.776   7.965   3.874
47735SOL    HW245103   7.637   8.022   3.857
47736SOL     OW45104  13.360   7.181  10.009
47736SOL    HW145105  13.303   7.165  10.083
47736SOL    HW245106  13.331   7.265   9.973
47737SOL     OW45107   6.292  12.191   0.433
47737SOL    HW145108   6.288  12.100   0.462
47737SOL    HW245109   6.207  12.207   0.392
47738SOL     OW45110   8.278   5.216  10.455
47738SOL    HW145111   8.278   5.309  10.477
47738SOL    HW245112   8.265   5.214  10.360
47739SOL     OW45113   0.074  14.070  11.300
47739SOL    HW145114   0.031  14.101  11.380
47739SOL    HW245115   0.064  14.143  11.238
47740SOL     OW45116   9.540   7.748  10.013
47740SOL    HW145117   9.494   7.748   9.929
47740SOL    HW245118   9.618   7.802   9.997
47741SOL     OW45119  12.528  12.927   4.993
47741SOL    HW145120  12.504  12.979   5.069
47741SOL    HW245121  12.560  12.991   4.929
47742SOL     OW45122  13.320   1.491   1.052
47742SOL    HW145123  13.323   1.443   1.135
47742SOL    HW245124  13.241   1.459   1.008
47743SOL     OW45125   6.218   8.648   6.908
47743SOL    HW145126   6.159   8.593   6.959
47743SOL    HW245127   6.215   8.733   6.952
47744SOL     OW45128  10.933   1.316  12.535
47744SOL    HW145129  10.986   1.261  12.478
47744SOL    HW245130  10.843   1.301  12.506
47745SOL     OW45131  11.368   1.934  12.331
47745SOL    HW145132  11.391   2.024  12.355
47745SOL    HW245133  11.291   1.914  12.386
47746SOL     OW45134   8.120  10.540   8.640
47746SOL    HW145135   8.049  10.591   8.678
47746SOL    HW245136   8.156  10.595   8.571
47747SOL     OW45137   2.640   9.398   4.329
47747SOL    HW145138   2.565   9.394   4.269
47747SOL    HW245139   2.686   9.315   4.314
47748SOL     OW45140  12.831  10.114  14.410
47748SOL    HW145141  12.744  10.147  14.433
47748SOL    HW245142  12.840  10.034  14.461
47749SOL     OW45143  10.200   0.324   2.034
47749SOL    HW145144  10.281   0.292   1.994
47749SOL    HW245145  10.158   0.246   2.071
47750SOL     OW45146   4.863  13.577  11.001
47750SOL    HW145147   4.860  13.550  10.909
47750SOL    HW245148   4.775  13.558  11.034
47751SOL     OW45149   0.559  14.362  14.741
47751SOL    HW145150   0.645  14.338  14.704
47751SOL    HW245151   0.573  14.447  14.781
47752SOL     OW45152  10.301  14.776  10.701
47752SOL    HW145153  10.258  14.779  10.616
47752SOL    HW245154  10.326  14.685  10.713
47753SOL     OW45155   3.284  13.595   4.354
47753SOL    HW145156   3.233  13.676   4.350
47753SOL    HW245157   3.219  13.527   4.371
47754SOL     OW45158   6.355  11.098   4.298
47754SOL    HW145159   6.367  11.175   4.353
47754SOL    HW245160   6.348  11.025   4.359
47755SOL     OW45161  11.269   3.677  12.706
47755SOL    HW145162  11.200   3.610  12.711
47755SOL    HW245163  11.241   3.734  12.635
47756SOL     OW45164   4.664   8.926   8.448
47756SOL    HW145165   4.758   8.927   8.430
47756SOL    HW245166   4.650   8.847   8.500
47757SOL     OW45167  10.026   9.827   6.582
47757SOL    HW145168   9.962   9.768   6.541
47757SOL    HW245169   9.978   9.908   6.597
47758SOL     OW45170   8.700   7.835   9.365
47758SOL    HW145171   8.723   7.844   9.458
47758SOL    HW245172   8.782   7.810   9.322
47759SOL     OW45173   9.718  12.511  13.247
47759SOL    HW145174   9.657  12.583  13.263
47759SOL    HW245175   9.785  12.520  13.315
47760SOL     OW45176   5.821  10.731   7.663
47760SOL    HW145177   5.915  10.715   7.651
47760SOL    HW245178   5.791  10.655   7.713
47761SOL     OW45179  11.362  14.375   2.045
47761SOL    HW145180  11.415  14.393   2.123
47761SOL    HW245181  11.396  14.293   2.010
47762SOL     OW45182  11.511   0.873   5.851
47762SOL    HW145183  11.570   0.945   5.830
47762SOL    HW245184  11.431   0.893   5.801
47763SOL     OW45185  12.026   0.025  12.329
47763SOL    HW145186  12.000   0.105  12.283
47763SOL    HW245187  11.946  14.869  12.371
47764SOL     OW45188   3.776   8.614  14.814
47764SOL    HW145189   3.723   8.540  14.844
47764SOL    HW245190   3.861   8.576  14.792
47765SOL     OW45191   1.492   1.655   8.632
47765SOL    HW145192   1.515   1.747   8.644
47765SOL    HW245193   1.572   1.607   8.653
47766SOL     OW45194  13.122  13.461   8.915
47766SOL    HW145195  13.192  13.492   8.972
47766SOL    HW245196  13.155  13.378   8.879
47767SOL     OW45197  12.269  11.853   8.663
47767SOL    HW145198  12.211  11.841   8.739
47767SOL    HW245199  12.315  11.769   8.656
47768SOL     OW45200   2.065  13.252  12.158
47768SOL    HW145201   2.006  13.328  12.153
47768SOL    HW245202   2.142  13.278  12.107
47769SOL     OW45203   0.136  14.685   8.590
47769SOL    HW145204   0.081  14.763   8.586
47769SOL    HW245205   0.097  14.632   8.660
47770SOL     OW45206  11.227   4.266  11.017
47770SOL    HW145207  11.239   4.344  11.071
47770SOL    HW245208  11.264   4.290  10.932
47771SOL     OW45209   8.656  12.908  12.704
47771SOL    HW145210   8.609  12.830  12.732
47771SOL    HW245211   8.678  12.954  12.785
47772SOL     OW45212  14.805  14.550   6.885
47772SOL    HW145213  14.715  14.540   6.854
47772SOL    HW245214  14.825  14.467   6.928
47773SOL     OW45215   9.053   1.358   0.956
47773SOL    HW145216   9.112   1.310   0.898
47773SOL    HW245217   9.106   1.378   1.033
47774SOL     OW45218   4.339   1.274   1.748
47774SOL    HW145219   4.281   1.342   1.780
47774SOL    HW245220   4.416   1.321   1.714
47775SOL     OW45221  10.825   1.586  10.513
47775SOL    HW145222  10.810   1.647  10.585
47775SOL    HW245223  10.812   1.499  10.551
47776SOL     OW45224   5.501   8.606   6.131
47776SOL    HW145225   5.483   8.694   6.163
47776SOL    HW245226   5.428   8.553   6.164
47777SOL     OW45227   4.407   7.685  13.245
47777SOL    HW145228   4.448   7.694  13.331
47777SOL    HW245229   4.330   7.742  13.249
47778SOL     OW45230   0.593  14.368   4.556
47778SOL    HW145231   0.624  14.336   4.471
47778SOL    HW245232   0.527  14.434   4.533
47779SOL     OW45233   6.094  11.532  11.387
47779SOL    HW145234   6.029  11.544  11.317
47779SOL    HW245235   6.175  11.513  11.341
47780SOL     OW45236   4.819   1.966   8.486
47780SOL    HW145237   4.872   1.946   8.563
47780SOL    HW245238   4.860   2.044   8.448
47781SOL     OW45239   4.326   0.941  10.223
47781SOL    HW145240   4.382   0.865  10.205
47781SOL    HW245241   4.306   0.977  10.136
47782SOL     OW45242  14.235  13.552  12.385
47782SOL    HW145243  14.230  13.486  12.316
47782SOL    HW245244  14.250  13.635  12.338
47783SOL     OW45245   8.074   3.904   0.090
47783SOL    HW145246   8.033   3.893   0.004
47783SOL    HW245247   8.033   3.983   0.126
47784SOL     OW45248   4.270  13.972   8.203
47784SOL    HW145249   4.252  13.880   8.187
47784SOL    HW245250   4.192  14.004   8.249
47785SOL     OW45251   3.810   0.743  11.134
47785SOL    HW145252   3.844   0.656  11.155
47785SOL    HW245253   3.819   0.750  11.039
47786SOL     OW45254  11.820  14.559   4.312
47786SOL    HW145255  11.841  14.572   4.220
47786SOL    HW245256  11.868  14.627   4.358
47787SOL     OW45257   1.116  13.305   8.720
47787SOL    HW145258   1.182  13.316   8.788
47787SOL    HW245259   1.162  13.258   8.650
47788SOL     OW45260   2.076   0.220   4.839
47788SOL    HW145261   2.061   0.137   4.795
47788SOL    HW245262   2.065   0.200   4.932
47789SOL     OW45263  13.131  13.761   3.004
47789SOL    HW145264  13.156  13.818   3.077
47789SOL    HW245265  13.071  13.697   3.043
47790SOL     OW45266   8.102   9.710  13.797
47790SOL    HW145267   8.021   9.675  13.834
47790SOL    HW245268   8.171   9.682  13.857
47791SOL     OW45269   1.814   7.059   6.835
47791SOL    HW145270   1.747   7.050   6.768
47791SOL    HW245271   1.791   6.994   6.901
47792SOL     OW45272  11.923   8.758   1.534
47792SOL    HW145273  11.927   8.839   1.585
47792SOL    HW245274  12.015   8.730   1.526
47793SOL     OW45275  13.412  12.488   9.883
47793SOL    HW145276  13.502  12.456   9.884
47793SOL    HW245277  13.415  12.572   9.929
47794SOL     OW45278  10.515   7.633   5.769
47794SOL    HW145279  10.436   7.656   5.720
47794SOL    HW245280  10.498   7.664   5.858
47795SOL     OW45281  14.844   5.938   8.557
47795SOL    HW145282   0.000   5.925   8.646
47795SOL    HW245283  14.770   5.999   8.566
47796SOL     OW45284   2.980   2.984   8.181
47796SOL    HW145285   2.945   2.983   8.092
47796SOL    HW245286   3.020   3.071   8.190
47797SOL     OW45287   2.166   5.900   3.514
47797SOL    HW145288   2.154   5.841   3.589
47797SOL    HW245289   2.231   5.963   3.544
47798SOL     OW45290   0.097   2.816   8.078
47798SOL    HW145291   0.132   2.880   8.017
47798SOL    HW245292   0.161   2.813   8.149
47799SOL     OW45293  12.431   6.170   7.667
47799SOL    HW145294  12.450   6.092   7.615
47799SOL    HW245295  12.337   6.183   7.657
47800SOL     OW45296   2.473   6.079  11.054
47800SOL    HW145297   2.394   6.075  11.109
47800SOL    HW245298   2.505   5.989  11.053
47801SOL     OW45299   0.016   1.638   8.439
47801SOL    HW145300  14.862   1.613   8.352
47801SOL    HW245301   0.014   1.734   8.439
47802SOL     OW45302   4.706   8.227   9.809
47802SOL    HW145303   4.749   8.184   9.883
47802SOL    HW245304   4.660   8.302   9.848
47803SOL     OW45305   8.580   3.479   7.557
47803SOL    HW145306   8.650   3.422   7.525
47803SOL    HW245307   8.626   3.551   7.601
47804SOL     OW45308  11.375  12.052   2.326
47804SOL    HW145309  11.392  11.966   2.364
47804SOL    HW245310  11.377  12.112   2.400
47805SOL     OW45311   6.608   8.794  10.694
47805SOL    HW145312   6.638   8.878  10.659
47805SOL    HW245313   6.513   8.804  10.703
47806SOL     OW45314   9.335   6.737  12.068
47806SOL    HW145315   9.372   6.720  12.155
47806SOL    HW245316   9.251   6.690  12.068
47807SOL     OW45317  13.273   1.498  11.858
47807SOL    HW145318  13.352   1.547  11.835
47807SOL    HW245319  13.298   1.445  11.934
47808SOL     OW45320   6.786   5.393   3.778
47808SOL    HW145321   6.741   5.477   3.781
47808SOL    HW245322   6.823   5.388   3.689
47809SOL     OW45323  11.480   3.161  12.702
47809SOL    HW145324  11.410   3.111  12.743
47809SOL    HW245325  11.435   3.220  12.641
47810SOL     OW45326   8.154   0.222   9.113
47810SOL    HW145327   8.112   0.175   9.185
47810SOL    HW245328   8.113   0.309   9.115
47811SOL     OW45329  14.168  10.217  11.242
47811SOL    HW145330  14.088  10.239  11.193
47811SOL    HW245331  14.164  10.271  11.321
47812SOL     OW45332  14.165  10.766   6.085
47812SOL    HW145333  14.241  10.763   6.142
47812SOL    HW245334  14.090  10.759   6.145
47813SOL     OW45335   6.688   2.025  10.040
47813SOL    HW145336   6.618   1.969  10.006
47813SOL    HW245337   6.694   2.003  10.133
47814SOL     OW45338  14.826   1.184   2.704
47814SOL    HW145339   0.023   1.161   2.644
47814SOL    HW245340  14.776   1.103   2.713
47815SOL     OW45341  10.196   8.628   1.398
47815SOL    HW145342  10.121   8.685   1.416
47815SOL    HW245343  10.269   8.689   1.387
47816SOL     OW45344   2.211   7.362  13.904
47816SOL    HW145345   2.287   7.409  13.938
47816SOL    HW245346   2.147   7.365  13.976
47817SOL     OW45347   1.987   7.297   4.119
47817SOL    HW145348   2.042   7.248   4.059
47817SOL    HW245349   1.938   7.357   4.063
47818SOL     OW45350  12.009   7.150   0.656
47818SOL    HW145351  11.987   7.184   0.569
47818SOL    HW245352  11.930   7.168   0.709
47819SOL     OW45353   7.491   5.926   7.335
47819SOL    HW145354   7.552   5.916   7.262
47819SOL    HW245355   7.509   5.852   7.392
47820SOL     OW45356   7.645   8.944   0.251
47820SOL    HW145357   7.669   8.997   0.326
47820SOL    HW245358   7.555   8.970   0.230
47821SOL     OW45359  13.728   6.544  14.249
47821SOL    HW145360  13.804   6.601  14.232
47821SOL    HW245361  13.713   6.552  14.343
47822SOL     OW45362   3.231   7.285   6.834
47822SOL    HW145363   3.299   7.347   6.806
47822SOL    HW245364   3.152   7.338   6.840
47823SOL     OW45365  14.348  13.885   2.130
47823SOL    HW145366  14.365  13.804   2.177
47823SOL    HW245367  14.254  13.883   2.111
47824SOL     OW45368   8.737  11.374   6.446
47824SOL    HW145369   8.658  11.363   6.498
47824SOL    HW245370   8.772  11.459   6.473
47825SOL     OW45371   4.581   6.744   9.851
47825SOL    HW145372   4.498   6.765   9.894
47825SOL    HW245373   4.615   6.669   9.899
47826SOL     OW45374   5.001   2.585   9.878
47826SOL    HW145375   5.040   2.551   9.798
47826SOL    HW245376   5.071   2.636   9.919
47827SOL     OW45377   9.139  12.707   4.734
47827SOL    HW145378   9.211  12.648   4.757
47827SOL    HW245379   9.158  12.788   4.781
47828SOL     OW45380  14.452  14.550   8.090
47828SOL    HW145381  14.489  14.636   8.069
47828SOL    HW245382  14.371  14.569   8.136
47829SOL     OW45383  14.450  11.606   9.055
47829SOL    HW145384  14.491  11.520   9.067
47829SOL    HW245385  14.477  11.657   9.131
47830SOL     OW45386   5.573   2.222  14.149
47830SOL    HW145387   5.517   2.298  14.133
47830SOL    HW245388   5.617   2.206  14.066
47831SOL     OW45389   1.638   2.183  13.151
47831SOL    HW145390   1.633   2.149  13.061
47831SOL    HW245391   1.633   2.278  13.140
47832SOL     OW45392   2.035  12.363   3.125
47832SOL    HW145393   2.019  12.433   3.063
47832SOL    HW245394   2.108  12.313   3.088
47833SOL     OW45395   4.416  10.682   7.562
47833SOL    HW145396   4.399  10.768   7.524
47833SOL    HW245397   4.507  10.687   7.591
47834SOL     OW45398  10.172   8.395   0.720
47834SOL    HW145399  10.257   8.437   0.725
47834SOL    HW245400  10.189   8.303   0.741
47835SOL     OW45401   3.193  11.724   1.504
47835SOL    HW145402   3.195  11.633   1.475
47835SOL    HW245403   3.113  11.759   1.466
47836SOL     OW45404  11.303  14.524   0.404
47836SOL    HW145405  11.339  14.467   0.336
47836SOL    HW245406  11.226  14.477   0.437
47837SOL     OW45407   3.239  12.553  10.406
47837SOL    HW145408   3.256  12.554  10.312
47837SOL    HW245409   3.145  12.537  10.414
47838SOL     OW45410   4.187   0.967   6.323
47838SOL    HW145411   4.094   0.963   6.301
47838SOL    HW245412   4.218   1.049   6.283
47839SOL     OW45413  13.469   9.434  12.031
47839SOL    HW145414  13.471   9.365  12.097
47839SOL    HW245415  13.461   9.515  12.081
47840SOL     OW45416   4.706   9.448   1.275
47840SOL    HW145417   4.737   9.368   1.233
47840SOL    HW245418   4.611   9.440   1.275
47841SOL     OW45419   9.015  14.188  10.871
47841SOL    HW145420   9.035  14.145  10.788
47841SOL    HW245421   8.951  14.256  10.847
47842SOL     OW45422   0.156   1.794   0.438
47842SOL    HW145423   0.222   1.750   0.491
47842SOL    HW245424   0.201   1.870   0.402
47843SOL     OW45425  12.978   2.618   1.413
47843SOL    HW145426  12.915   2.690   1.422
47843SOL    HW245427  13.062   2.661   1.397
47844SOL     OW45428  10.332  11.357  11.922
47844SOL    HW145429  10.277  11.320  11.853
47844SOL    HW245430  10.277  11.425  11.962
47845SOL     OW45431   3.097  12.901   4.345
47845SOL    HW145432   3.114  12.994   4.361
47845SOL    HW245433   3.024  12.880   4.403
47846SOL     OW45434   0.468   7.174  12.883
47846SOL    HW145435   0.427   7.226  12.814
47846SOL    HW245436   0.466   7.084  12.851
47847SOL     OW45437  13.098   5.680   5.565
47847SOL    HW145438  13.169   5.743   5.561
47847SOL    HW245439  13.035   5.710   5.499
47848SOL     OW45440   7.690  13.277   9.056
47848SOL    HW145441   7.674  13.222   9.133
47848SOL    HW245442   7.609  13.327   9.046
47849SOL     OW45443   3.484   6.558  14.521
47849SOL    HW145444   3.516   6.645  14.497
47849SOL    HW245445   3.469   6.515  14.437
47850SOL     OW45446  13.600  11.651   6.422
47850SOL    HW145447  13.624  11.559   6.418
47850SOL    HW245448  13.544  11.658   6.498
47851SOL     OW45449  10.491   8.791  10.390
47851SOL    HW145450  10.508   8.721  10.453
47851SOL    HW245451  10.578   8.814  10.356
47852SOL     OW45452   8.832   8.481   3.887
47852SOL    HW145453   8.851   8.542   3.958
47852SOL    HW245454   8.802   8.402   3.932
47853SOL     OW45455   8.352   6.100   1.839
47853SOL    HW145456   8.358   6.075   1.747
47853SOL    HW245457   8.287   6.041   1.876
47854SOL     OW45458   0.910   3.055   8.912
47854SOL    HW145459   0.990   3.028   8.957
47854SOL    HW245460   0.915   3.012   8.827
47855SOL     OW45461  10.604   9.080  11.751
47855SOL    HW145462  10.634   9.160  11.708
47855SOL    HW245463  10.512   9.072  11.726
47856SOL     OW45464   7.983  14.216   0.443
47856SOL    HW145465   7.988  14.190   0.351
47856SOL    HW245466   8.062  14.180   0.483
47857SOL     OW45467   8.311   8.137  11.451
47857SOL    HW145468   8.376   8.173  11.511
47857SOL    HW245469   8.359   8.121  11.370
47858SOL     OW45470   9.040   9.131  14.197
47858SOL    HW145471   8.948   9.150  14.180
47858SOL    HW245472   9.076   9.111  14.111
47859SOL     OW45473  10.967  13.657   7.369
47859SOL    HW145474  10.897  13.709   7.329
47859SOL    HW245475  11.048  13.693   7.333
47860SOL     OW45476   2.959  12.057  11.924
47860SOL    HW145477   3.018  12.118  11.881
47860SOL    HW245478   2.994  12.047  12.013
47861SOL     OW45479  13.101   3.498  12.389
47861SOL    HW145480  13.123   3.591  12.394
47861SOL    HW245481  13.159   3.464  12.321
47862SOL     OW45482   7.037   5.959   4.793
47862SOL    HW145483   7.038   5.890   4.727
47862SOL    HW245484   7.000   5.918   4.871
47863SOL     OW45485  12.968   2.704   9.125
47863SOL    HW145486  13.008   2.652   9.056
47863SOL    HW245487  13.026   2.780   9.135
47864SOL     OW45488   0.841   9.528  12.015
47864SOL    HW145489   0.823   9.441  12.051
47864SOL    HW245490   0.823   9.588  12.088
47865SOL     OW45491  12.345   8.575   5.606
47865SOL    HW145492  12.358   8.504   5.670
47865SOL    HW245493  12.419   8.568   5.547
47866SOL     OW45494   0.387  14.492   4.404
47866SOL    HW145495   0.338  14.564   4.445
47866SOL    HW245496   0.319  14.431   4.374
47867SOL     OW45497   1.383   3.060  12.747
47867SOL    HW145498   1.422   2.975  12.765
47867SOL    HW245499   1.361   3.095  12.834
47868SOL     OW45500   7.592   6.927  13.450
47868SOL    HW145501   7.630   6.997  13.398
47868SOL    HW245502   7.511   6.904  13.405
47869SOL     OW45503   2.382   3.792  11.423
47869SOL    HW145504   2.298   3.836  11.411
47869SOL    HW245505   2.417   3.783  11.334
47870SOL     OW45506  13.812   1.589   3.056
47870SOL    HW145507  13.759   1.614   3.132
47870SOL    HW245508  13.776   1.641   2.984
47871SOL     OW45509  12.711  10.174  10.014
47871SOL    HW145510  12.720  10.106   9.947
47871SOL    HW245511  12.686  10.126  10.093
47872SOL     OW45512   0.211  11.595   2.654
47872SOL    HW145513   0.269  11.608   2.579
47872SOL    HW245514   0.229  11.506   2.684
47873SOL     OW45515  13.742   3.253  10.181
47873SOL    HW145516  13.744   3.266  10.086
47873SOL    HW245517  13.651   3.270  10.205
47874SOL     OW45518   6.591   8.354   5.013
47874SOL    HW145519   6.609   8.267   4.977
47874SOL    HW245520   6.677   8.396   5.020
47875SOL     OW45521   9.727  10.286   5.948
47875SOL    HW145522   9.680  10.224   6.004
47875SOL    HW245523   9.776  10.341   6.008
47876SOL     OW45524   0.909   7.659  13.471
47876SOL    HW145525   0.916   7.671  13.376
47876SOL    HW245526   0.874   7.571  13.482
47877SOL     OW45527   1.287   3.713   2.309
47877SOL    HW145528   1.279   3.676   2.221
47877SOL    HW245529   1.254   3.643   2.367
47878SOL     OW45530  14.135   7.414   1.076
47878SOL    HW145531  14.132   7.506   1.049
47878SOL    HW245532  14.043   7.386   1.075
47879SOL     OW45533   0.517   9.498   8.100
47879SOL    HW145534   0.555   9.431   8.157
47879SOL    HW245535   0.551   9.478   8.013
47880SOL     OW45536   3.736   7.688   7.695
47880SOL    HW145537   3.687   7.767   7.671
47880SOL    HW245538   3.823   7.720   7.719
47881SOL     OW45539   0.321   8.368   7.055
47881SOL    HW145540   0.395   8.428   7.064
47881SOL    HW245541   0.327   8.335   6.965
47882SOL     OW45542   2.455   5.342   1.916
47882SOL    HW145543   2.411   5.263   1.946
47882SOL    HW245544   2.500   5.377   1.993
47883SOL     OW45545   2.425   5.997   4.317
47883SOL    HW145546   2.473   5.961   4.244
47883SOL    HW245547   2.334   5.969   4.303
47884SOL     OW45548   2.096   3.846   0.511
47884SOL    HW145549   2.179   3.816   0.547
47884SOL    HW245550   2.113   3.862   0.418
47885SOL     OW45551  11.616   1.205  14.642
47885SOL    HW145552  11.667   1.216  14.722
47885SOL    HW245553  11.622   1.112  14.621
47886SOL     OW45554   6.021   5.112   2.270
47886SOL    HW145555   5.956   5.164   2.317
47886SOL    HW245556   6.001   5.125   2.178
47887SOL     OW45557   3.337   1.845   0.495
47887SOL    HW145558   3.292   1.761   0.498
47887SOL    HW245559   3.370   1.852   0.406
47888SOL     OW45560  13.986  12.133   5.129
47888SOL    HW145561  13.915  12.122   5.192
47888SOL    HW245562  14.039  12.053   5.137
47889SOL     OW45563   6.120   9.759   5.407
47889SOL    HW145564   6.148   9.714   5.487
47889SOL    HW245565   6.055   9.700   5.368
47890SOL     OW45566   9.685   8.821   4.009
47890SOL    HW145567   9.732   8.765   4.071
47890SOL    HW245568   9.719   8.909   4.026
47891SOL     OW45569   1.907  12.334   7.066
47891SOL    HW145570   1.976  12.299   7.121
47891SOL    HW245571   1.827  12.322   7.116
47892SOL     OW45572   5.060   4.495   1.829
47892SOL    HW145573   4.985   4.455   1.786
47892SOL    HW245574   5.027   4.525   1.913
47893SOL     OW45575   6.747   1.559  14.841
47893SOL    HW145576   6.800   1.509  14.779
47893SOL    HW245577   6.752   1.509   0.047
47894SOL     OW45578   9.566  13.295  13.225
47894SOL    HW145579   9.587  13.238  13.299
47894SOL    HW245580   9.473  13.311  13.233
47895SOL     OW45581   1.731   9.859   2.972
47895SOL    HW145582   1.719   9.808   2.892
47895SOL    HW245583   1.758   9.795   3.038
47896SOL     OW45584  11.900  10.921  10.425
47896SOL    HW145585  11.927  10.905  10.335
47896SOL    HW245586  11.806  10.934  10.420
47897SOL     OW45587   2.002   4.180   3.865
47897SOL    HW145588   1.962   4.191   3.951
47897SOL    HW245589   2.095   4.168   3.882
47898SOL     OW45590   0.781   9.453  11.033
47898SOL    HW145591   0.821   9.424  11.115
47898SOL    HW245592   0.694   9.484  11.059
47899SOL     OW45593   8.232  12.334  12.514
47899SOL    HW145594   8.233  12.427  12.535
47899SOL    HW245595   8.304  12.323  12.451
47900SOL     OW45596   0.794  12.748   5.644
47900SOL    HW145597   0.722  12.724   5.703
47900SOL    HW245598   0.764  12.719   5.558
47901SOL     OW45599   9.839   0.614  13.113
47901SOL    HW145600   9.874   0.565  13.187
47901SOL    HW245601   9.745   0.597  13.115
47902SOL     OW45602  14.295  13.020  14.110
47902SOL    HW145603  14.245  12.939  14.122
47902SOL    HW245604  14.295  13.035  14.015
47903SOL     OW45605  12.559   5.948   3.954
47903SOL    HW145606  12.623   5.908   3.895
47903SOL    HW245607  12.564   6.042   3.936
47904SOL     OW45608   7.235   3.283   5.535
47904SOL    HW145609   7.222   3.377   5.551
47904SOL    HW245610   7.147   3.250   5.516
47905SOL     OW45611  14.341   8.381   8.647
47905SOL    HW145612  14.434   8.357   8.651
47905SOL    HW245613  14.319   8.374   8.554
47906SOL     OW45614   2.547   3.045  14.251
47906SOL    HW145615   2.541   3.136  14.279
47906SOL    HW245616   2.639   3.022  14.260
47907SOL     OW45617   1.372   5.043  13.050
47907SOL    HW145618   1.348   4.998  12.970
47907SOL    HW245619   1.296   5.034  13.107
47908SOL     OW45620   5.662   3.862   1.003
47908SOL    HW145621   5.645   3.954   1.025
47908SOL    HW245622   5.595   3.841   0.938
47909SOL     OW45623   3.960  11.368  12.914
47909SOL    HW145624   3.959  11.323  12.998
47909SOL    HW245625   4.011  11.310  12.857
47910SOL     OW45626   0.745  13.527   8.330
47910SOL    HW145627   0.656  13.505   8.301
47910SOL    HW245628   0.751  13.622   8.319
47911SOL     OW45629  11.903  10.339  13.629
47911SOL    HW145630  11.939  10.253  13.606
47911SOL    HW245631  11.940  10.359  13.715
47912SOL     OW45632   5.048   2.802   5.497
47912SOL    HW145633   4.978   2.838   5.443
47912SOL    HW245634   5.089   2.879   5.537
47913SOL     OW45635   2.848   2.808  14.826
47913SOL    HW145636   2.793   2.868  14.776
47913SOL    HW245637   2.911   2.865  14.871
47914SOL     OW45638  11.494  12.926   7.015
47914SOL    HW145639  11.564  12.940   7.080
47914SOL    HW245640  11.536  12.941   6.931
47915SOL     OW45641   7.088  13.714   7.638
47915SOL    HW145642   7.045  13.639   7.678
47915SOL    HW245643   7.101  13.776   7.710
47916SOL     OW45644   9.994  11.346  10.885
47916SOL    HW145645  10.084  11.376  10.894
47916SOL    HW245646   9.960  11.346  10.975
47917SOL     OW45647  12.788   7.055   1.442
47917SOL    HW145648  12.713   7.110   1.422
47917SOL    HW245649  12.751   6.971   1.468
47918SOL     OW45650   6.609   1.989   4.872
47918SOL    HW145651   6.580   2.079   4.890
47918SOL    HW245652   6.661   1.997   4.792
47919SOL     OW45653  11.893   3.797  10.895
47919SOL    HW145654  11.861   3.883  10.867
47919SOL    HW245655  11.947   3.816  10.972
47920SOL     OW45656   1.393  12.289  13.722
47920SOL    HW145657   1.434  12.266  13.638
47920SOL    HW245658   1.341  12.367  13.703
47921SOL     OW45659   5.522   5.176   0.325
47921SOL    HW145660   5.603   5.133   0.354
47921SOL    HW245661   5.542   5.207   0.237
47922SOL     OW45662  14.469  12.830   0.851
47922SOL    HW145663  14.455  12.846   0.757
47922SOL    HW245664  14.411  12.757   0.871
47923SOL     OW45665   3.054  12.045   1.729
47923SOL    HW145666   3.039  12.115   1.793
47923SOL    HW245667   3.056  12.090   1.645
47924SOL     OW45668   6.339  10.150   1.093
47924SOL    HW145669   6.358  10.173   1.184
47924SOL    HW245670   6.347  10.232   1.045
47925SOL     OW45671   0.805   5.996   2.403
47925SOL    HW145672   0.895   6.002   2.370
47925SOL    HW245673   0.796   6.073   2.460
47926SOL     OW45674   6.725   4.913   0.010
47926SOL    HW145675   6.773   4.994  14.869
47926SOL    HW245676   6.775   4.869   0.078
47927SOL     OW45677  11.034   7.332   1.608
47927SOL    HW145678  11.002   7.242   1.619
47927SOL    HW245679  10.954   7.384   1.597
47928SOL     OW45680  14.052   4.137   8.052
47928SOL    HW145681  14.023   4.208   8.108
47928SOL    HW245682  14.000   4.061   8.079
47929SOL     OW45683   8.155   9.067  12.821
47929SOL    HW145684   8.208   9.146  12.806
47929SOL    HW245685   8.091   9.068  12.750
47930SOL     OW45686  14.322   1.289  13.586
47930SOL    HW145687  14.399   1.310  13.639
47930SOL    HW245688  14.349   1.305  13.496
47931SOL     OW45689  14.741  11.738   6.894
47931SOL    HW145690  14.741  11.643   6.907
47931SOL    HW245691  14.824  11.756   6.850
47932SOL     OW45692   4.583   1.043   8.330
47932SOL    HW145693   4.531   0.973   8.370
47932SOL    HW245694   4.537   1.064   8.249
47933SOL     OW45695   1.809   8.424   5.761
47933SOL    HW145696   1.784   8.505   5.716
47933SOL    HW245697   1.844   8.453   5.845
47934SOL     OW45698   0.691  11.625   3.817
47934SOL    HW145699   0.692  11.687   3.890
47934SOL    HW245700   0.726  11.674   3.743
47935SOL     OW45701   8.265   1.787   7.187
47935SOL    HW145702   8.251   1.765   7.095
47935SOL    HW245703   8.202   1.857   7.205
47936SOL     OW45704   4.262   3.469   0.166
47936SOL    HW145705   4.170   3.494   0.150
47936SOL    HW245706   4.259   3.375   0.181
47937SOL     OW45707  13.107   5.006   6.015
47937SOL    HW145708  13.091   4.966   6.101
47937SOL    HW245709  13.074   4.941   5.953
47938SOL     OW45710   7.955   4.666  11.849
47938SOL    HW145711   7.866   4.676  11.882
47938SOL    HW245712   8.009   4.656  11.928
47939SOL     OW45713   4.986   1.125  10.053
47939SOL    HW145714   4.989   1.090   9.964
47939SOL    HW245715   5.055   1.191  10.055
47940SOL     OW45716   8.853  13.691   7.681
47940SOL    HW145717   8.801  13.728   7.610
47940SOL    HW245718   8.942  13.688   7.646
47941SOL     OW45719  14.533   6.569   7.963
47941SOL    HW145720  14.482   6.595   8.040
47941SOL    HW245721  14.587   6.646   7.944
47942SOL     OW45722   5.725   5.770   0.832
47942SOL    HW145723   5.737   5.676   0.842
47942SOL    HW245724   5.639   5.779   0.792
47943SOL     OW45725   7.217  13.236   4.274
47943SOL    HW145726   7.259  13.293   4.210
47943SOL    HW245727   7.268  13.155   4.272
47944SOL     OW45728   5.316  11.713   0.939
47944SOL    HW145729   5.374  11.640   0.963
47944SOL    HW245730   5.309  11.765   1.019
47945SOL     OW45731   7.850   7.008   2.078
47945SOL    HW145732   7.890   6.933   2.121
47945SOL    HW245733   7.797   7.049   2.147
47946SOL     OW45734   1.471   9.064   9.161
47946SOL    HW145735   1.532   9.032   9.095
47946SOL    HW245736   1.496   9.156   9.173
47947SOL     OW45737  13.652   3.568   1.490
47947SOL    HW145738  13.646   3.658   1.522
47947SOL    HW245739  13.735   3.535   1.525
47948SOL     OW45740  14.656  12.871  11.894
47948SOL    HW145741  14.732  12.900  11.843
47948SOL    HW245742  14.628  12.790  11.852
47949SOL     OW45743   5.697   9.091  11.447
47949SOL    HW145744   5.612   9.081  11.403
47949SOL    HW245745   5.755   9.125  11.379
47950SOL     OW45746   4.873  13.631   5.399
47950SOL    HW145747   4.810  13.702   5.413
47950SOL    HW245748   4.856  13.570   5.472
47951SOL     OW45749   9.964  11.682   4.884
47951SOL    HW145750  10.002  11.768   4.866
47951SOL    HW245751  10.004  11.624   4.820
47952SOL     OW45752   5.243   1.486   4.593
47952SOL    HW145753   5.194   1.544   4.535
47952SOL    HW245754   5.288   1.545   4.653
47953SOL     OW45755   5.434   7.870  10.148
47953SOL    HW145756   5.478   7.843  10.067
47953SOL    HW245757   5.342   7.879  10.124
47954SOL     OW45758   4.961  10.879  11.968
47954SOL    HW145759   4.956  10.810  12.035
47954SOL    HW245760   4.995  10.955  12.016
47955SOL     OW45761   3.581  11.287   2.182
47955SOL    HW145762   3.528  11.259   2.256
47955SOL    HW245763   3.649  11.220   2.175
47956SOL     OW45764  13.472   8.150   4.890
47956SOL    HW145765  13.504   8.136   4.979
47956SOL    HW245766  13.476   8.064   4.849
47957SOL     OW45767  12.941   3.002   2.776
47957SOL    HW145768  12.967   2.928   2.721
47957SOL    HW245769  12.902   3.065   2.715
47958SOL     OW45770   6.415   3.122  12.132
47958SOL    HW145771   6.497   3.169  12.149
47958SOL    HW245772   6.436   3.063  12.060
47959SOL     OW45773   1.565   0.032   1.206
47959SOL    HW145774   1.608  14.824   1.183
47959SOL    HW245775   1.557   0.029   1.301
47960SOL     OW45776   9.214   2.793   1.425
47960SOL    HW145777   9.273   2.840   1.365
47960SOL    HW245778   9.227   2.836   1.509
47961SOL     OW45779   5.161  14.577   1.356
47961SOL    HW145780   5.167  14.568   1.451
47961SOL    HW245781   5.243  14.540   1.323
47962SOL     OW45782   5.178   0.725   1.884
47962SOL    HW145783   5.173   0.740   1.979
47962SOL    HW245784   5.212   0.807   1.849
47963SOL     OW45785   9.286  14.052  12.307
47963SOL    HW145786   9.284  13.981  12.372
47963SOL    HW245787   9.296  14.132  12.359
47964SOL     OW45788   5.023   4.413   6.048
47964SOL    HW145789   4.957   4.465   6.094
47964SOL    HW245790   5.027   4.330   6.097
47965SOL     OW45791   7.218   3.268  12.444
47965SOL    HW145792   7.179   3.324  12.376
47965SOL    HW245793   7.258   3.329  12.506
47966SOL     OW45794   0.677  12.323   7.303
47966SOL    HW145795   0.666  12.332   7.398
47966SOL    HW245796   0.738  12.392   7.279
47967SOL     OW45797   8.552   2.512   7.818
47967SOL    HW145798   8.589   2.458   7.887
47967SOL    HW245799   8.463   2.530   7.846
47968SOL     OW45800  10.702  12.339  14.226
47968SOL    HW145801  10.661  12.420  14.255
47968SOL    HW245802  10.698  12.281  14.303
47969SOL     OW45803   0.985   1.210   3.038
47969SOL    HW145804   0.919   1.270   3.073
47969SOL    HW245805   1.037   1.264   2.978
47970SOL     OW45806   1.722  10.973   1.707
47970SOL    HW145807   1.708  10.972   1.612
47970SOL    HW245808   1.642  10.936   1.743
47971SOL     OW45809   3.829   9.460   4.310
47971SOL    HW145810   3.752   9.428   4.265
47971SOL    HW245811   3.856   9.386   4.366
47972SOL     OW45812   4.892   5.087  13.126
47972SOL    HW145813   4.823   5.114  13.066
47972SOL    HW245814   4.959   5.156  13.117
47973SOL     OW45815   2.583  13.540  14.652
47973SOL    HW145816   2.669  13.554  14.612
47973SOL    HW245817   2.587  13.587  14.735
47974SOL     OW45818   5.177  11.451  10.732
47974SOL    HW145819   5.191  11.357  10.725
47974SOL    HW245820   5.087  11.460  10.765
47975SOL     OW45821  13.863  12.525  13.330
47975SOL    HW145822  13.902  12.590  13.388
47975SOL    HW245823  13.935  12.494  13.276
47976SOL     OW45824   3.092  11.688   4.025
47976SOL    HW145825   3.142  11.726   3.953
47976SOL    HW245826   3.019  11.643   3.983
47977SOL     OW45827   5.402   8.284   4.181
47977SOL    HW145828   5.438   8.204   4.220
47977SOL    HW245829   5.453   8.355   4.221
47978SOL     OW45830  13.182   0.338   8.725
47978SOL    HW145831  13.201   0.394   8.801
47978SOL    HW245832  13.099   0.296   8.747
47979SOL     OW45833   0.066   2.728   2.692
47979SOL    HW145834   0.096   2.815   2.719
47979SOL    HW245835   0.051   2.681   2.774
47980SOL     OW45836  13.838   8.092   1.758
47980SOL    HW145837  13.867   8.044   1.681
47980SOL    HW245838  13.744   8.075   1.764
47981SOL     OW45839   7.234  12.940   3.261
47981SOL    HW145840   7.218  12.894   3.344
47981SOL    HW245841   7.194  12.885   3.195
47982SOL     OW45842  14.088   8.450  14.782
47982SOL    HW145843  14.169   8.501  14.788
47982SOL    HW245844  14.034   8.498  14.719
47983SOL     OW45845   9.263  11.558   6.263
47983SOL    HW145846   9.228  11.561   6.352
47983SOL    HW245847   9.352  11.525   6.273
47984SOL     OW45848  12.385   2.127   7.519
47984SOL    HW145849  12.445   2.190   7.559
47984SOL    HW245850  12.310   2.124   7.578
47985SOL     OW45851   1.300   7.145  10.598
47985SOL    HW145852   1.216   7.106  10.575
47985SOL    HW245853   1.279   7.235  10.624
47986SOL     OW45854   0.029   5.450   6.653
47986SOL    HW145855   0.075   5.418   6.575
47986SOL    HW245856   0.064   5.397   6.725
47987SOL     OW45857   0.396   9.302  13.393
47987SOL    HW145858   0.359   9.263  13.473
47987SOL    HW245859   0.403   9.229  13.332
47988SOL     OW45860   6.178   9.257   5.566
47988SOL    HW145861   6.091   9.273   5.603
47988SOL    HW245862   6.238   9.274   5.638
47989SOL     OW45863  14.678  10.362   0.091
47989SOL    HW145864  14.611  10.345   0.157
47989SOL    HW245865  14.631  10.402   0.018
47990SOL     OW45866   5.806  13.516   0.753
47990SOL    HW145867   5.750  13.587   0.787
47990SOL    HW245868   5.876  13.509   0.817
47991SOL     OW45869  12.676   3.101   5.000
47991SOL    HW145870  12.603   3.140   5.046
47991SOL    HW245871  12.698   3.164   4.931
47992SOL     OW45872   4.945  13.470   1.689
47992SOL    HW145873   4.975  13.412   1.759
47992SOL    HW245874   5.025  13.494   1.642
47993SOL     OW45875   3.920   2.852  12.036
47993SOL    HW145876   3.994   2.912  12.024
47993SOL    HW245877   3.958   2.775  12.077
47994SOL     OW45878  14.729   7.066  12.109
47994SOL    HW145879  14.639   7.069  12.141
47994SOL    HW245880  14.783   7.075  12.187
47995SOL     OW45881   9.982   7.375  13.819
47995SOL    HW145882   9.887   7.384  13.819
47995SOL    HW245883   9.997   7.281  13.809
47996SOL     OW45884  13.477  12.992   0.188
47996SOL    HW145885  13.498  13.077   0.227
47996SOL    HW245886  13.446  13.014   0.100
47997SOL     OW45887  11.009   5.448   1.598
47997SOL    HW145888  11.053   5.523   1.557
47997SOL    HW245889  11.080   5.396   1.635
47998SOL     OW45890   3.369  12.723   3.177
47998SOL    HW145891   3.336  12.688   3.094
47998SOL    HW245892   3.433  12.789   3.152
47999SOL     OW45893   6.867  11.044   5.620
47999SOL    HW145894   6.930  10.974   5.635
47999SOL    HW245895   6.910  11.103   5.559
48000SOL     OW45896  10.207   0.931  10.062
48000SOL    HW145897  10.296   0.938  10.027
48000SOL    HW245898  10.214   0.865  10.131
48001SOL     OW45899   9.033   2.448   9.530
48001SOL    HW145900   9.011   2.516   9.465
48001SOL    HW245901   8.963   2.455   9.595
48002SOL     OW45902   0.786  11.389   9.560
48002SOL    HW145903   0.853  11.322   9.574
48002SOL    HW245904   0.706  11.339   9.539
48003SOL     OW45905  13.960   7.399   9.854
48003SOL    HW145906  13.927   7.454   9.924
48003SOL    HW245907  13.999   7.323   9.898
48004SOL     OW45908  13.849   6.999  13.826
48004SOL    HW145909  13.868   7.082  13.782
48004SOL    HW245910  13.758   6.981  13.803
48005SOL     OW45911   5.445   9.940   0.343
48005SOL    HW145912   5.368   9.917   0.292
48005SOL    HW245913   5.493  10.001   0.288
48006SOL     OW45914  12.399   0.155  11.832
48006SOL    HW145915  12.401   0.221  11.762
48006SOL    HW245916  12.310   0.158  11.865
48007SOL     OW45917   5.307   0.209  10.414
48007SOL    HW145918   5.248   0.266  10.463
48007SOL    HW245919   5.270   0.122  10.424
48008SOL     OW45920   8.604   8.892  10.821
48008SOL    HW145921   8.651   8.836  10.759
48008SOL    HW245922   8.631   8.981  10.798
48009SOL     OW45923  12.893   6.105  13.629
48009SOL    HW145924  12.902   6.121  13.723
48009SOL    HW245925  12.923   6.187  13.589
48010SOL     OW45926   6.014  14.488   2.037
48010SOL    HW145927   5.977  14.565   1.994
48010SOL    HW245928   6.060  14.523   2.114
48011SOL     OW45929   8.165  12.729  14.091
48011SOL    HW145930   8.120  12.712  14.008
48011SOL    HW245931   8.137  12.658  14.148
48012SOL     OW45932   9.210  10.878   7.312
48012SOL    HW145933   9.116  10.895   7.320
48012SOL    HW245934   9.232  10.829   7.392
48013SOL     OW45935  12.456   9.807  13.867
48013SOL    HW145936  12.530   9.818  13.806
48013SOL    HW245937  12.486   9.740  13.928
48014SOL     OW45938   3.550   2.063   5.469
48014SOL    HW145939   3.464   2.101   5.491
48014SOL    HW245940   3.584   2.031   5.552
48015SOL     OW45941  11.513  13.387  12.372
48015SOL    HW145942  11.562  13.402  12.291
48015SOL    HW245943  11.570  13.421  12.441
48016SOL     OW45944   7.279   1.831   8.102
48016SOL    HW145945   7.243   1.874   8.025
48016SOL    HW245946   7.298   1.741   8.073
48017SOL     OW45947  12.302   1.761  10.110
48017SOL    HW145948  12.321   1.668  10.094
48017SOL    HW245949  12.313   1.771  10.204
48018SOL     OW45950  11.537   0.438   2.533
48018SOL    HW145951  11.497   0.495   2.467
48018SOL    HW245952  11.519   0.350   2.502
48019SOL     OW45953   5.828   2.121  13.589
48019SOL    HW145954   5.767   2.086  13.654
48019SOL    HW245955   5.772   2.147  13.516
48020SOL     OW45956  14.239   1.135  10.468
48020SOL    HW145957  14.308   1.120  10.532
48020SOL    HW245958  14.265   1.082  10.392
48021SOL     OW45959   6.350   0.469  10.691
48021SOL    HW145960   6.371   0.562  10.699
48021SOL    HW245961   6.302   0.448  10.771
48022SOL     OW45962  10.065  14.336  11.373
48022SOL    HW145963  10.029  14.291  11.449
48022SOL    HW245964  10.080  14.426  11.404
48023SOL     OW45965   7.025   8.102  12.642
48023SOL    HW145966   7.092   8.130  12.579
48023SOL    HW245967   6.999   8.015  12.611
48024SOL     OW45968  14.128   3.054  12.651
48024SOL    HW145969  14.171   2.985  12.601
48024SOL    HW245970  14.134   3.024  12.742
48025SOL     OW45971  11.911  10.059   4.411
48025SOL    HW145972  11.927  10.150   4.436
48025SOL    HW245973  11.843  10.028   4.471
48026SOL     OW45974   4.620  12.460   1.347
48026SOL    HW145975   4.702  12.413   1.362
48026SOL    HW245976   4.578  12.463   1.433
48027SOL     OW45977   7.445  14.463  10.579
48027SOL    HW145978   7.443  14.381  10.529
48027SOL    HW245979   7.354  14.491  10.581
48028SOL     OW45980   5.380   4.450   3.120
48028SOL    HW145981   5.306   4.396   3.145
48028SOL    HW245982   5.421   4.405   3.047
48029SOL     OW45983  12.049   3.034   2.823
48029SOL    HW145984  11.983   3.099   2.848
48029SOL    HW245985  12.132   3.073   2.850
48030SOL     OW45986   9.347   1.636   0.483
48030SOL    HW145987   9.426   1.624   0.536
48030SOL    HW245988   9.381   1.651   0.394
48031SOL     OW45989   0.342   9.427   3.443
48031SOL    HW145990   0.401   9.351   3.444
48031SOL    HW245991   0.270   9.400   3.387
48032SOL     OW45992  11.729  14.729  11.187
48032SOL    HW145993  11.701  14.712  11.277
48032SOL    HW245994  11.778  14.812  11.193
48033SOL     OW45995  14.104   0.787   6.537
48033SOL    HW145996  14.034   0.824   6.590
48033SOL    HW245997  14.060   0.723   6.480
48034SOL     OW45998   4.083  10.811   9.520
48034SOL    HW145999   4.131  10.834   9.441
48034SOL    HW246000   4.037  10.730   9.498
48035SOL     OW46001  14.122   7.107  12.387
48035SOL    HW146002  14.037   7.063  12.379
48035SOL    HW246003  14.118   7.151  12.472
48036SOL     OW46004   6.794   6.256   6.653
48036SOL    HW146005   6.855   6.329   6.646
48036SOL    HW246006   6.845   6.186   6.695
48037SOL     OW46007  12.297   6.816   6.690
48037SOL    HW146008  12.295   6.832   6.784
48037SOL    HW246009  12.347   6.889   6.654
48038SOL     OW46010   0.176  14.450   9.125
48038SOL    HW146011   0.250  14.510   9.137
48038SOL    HW246012   0.210  14.380   9.069
48039SOL     OW46013  10.153   8.758   2.755
48039SOL    HW146014  10.135   8.668   2.729
48039SOL    HW246015  10.131   8.810   2.677
48040SOL     OW46016   3.026   4.821   8.445
48040SOL    HW146017   3.040   4.728   8.433
48040SOL    HW246018   2.934   4.829   8.468
48041SOL     OW46019  10.183   5.570   0.115
48041SOL    HW146020  10.181   5.521   0.196
48041SOL    HW246021  10.110   5.632   0.122
48042SOL     OW46022   7.399   9.858   6.822
48042SOL    HW146023   7.372   9.787   6.881
48042SOL    HW246024   7.369   9.830   6.736
48043SOL     OW46025   9.026   5.582   8.352
48043SOL    HW146026   8.989   5.508   8.305
48043SOL    HW246027   8.973   5.657   8.324
48044SOL     OW46028  14.597   8.014  12.077
48044SOL    HW146029  14.683   7.979  12.056
48044SOL    HW246030  14.579   8.078  12.008
48045SOL     OW46031   7.299   7.564   1.388
48045SOL    HW146032   7.308   7.580   1.482
48045SOL    HW246033   7.205   7.557   1.373
48046SOL     OW46034  11.316  13.766   9.552
48046SOL    HW146035  11.338  13.850   9.592
48046SOL    HW246036  11.225  13.776   9.522
48047SOL     OW46037   9.543  12.255   3.313
48047SOL    HW146038   9.459  12.244   3.357
48047SOL    HW246039   9.586  12.171   3.321
48048SOL     OW46040  12.956  11.006   9.856
48048SOL    HW146041  13.012  11.038   9.786
48048SOL    HW246042  12.971  11.066   9.929
48049SOL     OW46043   4.446   8.343   7.543
48049SOL    HW146044   4.493   8.318   7.464
48049SOL    HW246045   4.353   8.338   7.520
48050SOL     OW46046   7.774   1.009   4.440
48050SOL    HW146047   7.860   0.966   4.439
48050SOL    HW246048   7.780   1.072   4.511
48051SOL     OW46049   1.561  12.604  12.664
48051SOL    HW146050   1.619  12.581  12.591
48051SOL    HW246051   1.587  12.545  12.735
48052SOL     OW46052   5.657   0.429   2.342
48052SOL    HW146053   5.686   0.415   2.252
48052SOL    HW246054   5.735   0.416   2.396
48053SOL     OW46055   4.895   0.865  10.338
48053SOL    HW146056   4.938   0.933  10.389
48053SOL    HW246057   4.953   0.852  10.262
48054SOL     OW46058  11.964   4.671   9.002
48054SOL    HW146059  12.027   4.701   9.069
48054SOL    HW246060  11.920   4.597   9.043
48055SOL     OW46061  13.797   3.069   2.342
48055SOL    HW146062  13.844   3.036   2.265
48055SOL    HW246063  13.783   2.991   2.396
48056SOL     OW46064   9.718  14.801   5.778
48056SOL    HW146065   9.651  14.869   5.782
48056SOL    HW246066   9.801  14.848   5.766
48057SOL     OW46067   5.836   1.972   0.386
48057SOL    HW146068   5.791   1.974   0.302
48057SOL    HW246069   5.775   2.014   0.447
48058SOL     OW46070  14.201   1.776   0.872
48058SOL    HW146071  14.198   1.708   0.805
48058SOL    HW246072  14.292   1.774   0.904
48059SOL     OW46073  12.879   3.948   0.294
48059SOL    HW146074  12.955   3.934   0.351
48059SOL    HW246075  12.864   4.043   0.297
48060SOL     OW46076   0.245   6.414   8.331
48060SOL    HW146077   0.239   6.423   8.236
48060SOL    HW246078   0.195   6.488   8.366
48061SOL     OW46079  14.041   1.062   7.947
48061SOL    HW146080  14.046   0.998   8.017
48061SOL    HW246081  13.953   1.051   7.911
48062SOL     OW46082   4.130   8.966  12.360
48062SOL    HW146083   4.208   8.916  12.337
48062SOL    HW246084   4.164   9.051  12.390
48063SOL     OW46085   9.703  12.549  10.628
48063SOL    HW146086   9.719  12.460  10.597
48063SOL    HW246087   9.724  12.605  10.553
48064SOL     OW46088  14.512  11.562   5.397
48064SOL    HW146089  14.480  11.486   5.446
48064SOL    HW246090  14.538  11.527   5.312
48065SOL     OW46091  11.353   5.825   7.958
48065SOL    HW146092  11.293   5.836   7.884
48065SOL    HW246093  11.310   5.762   8.015
48066SOL     OW46094   3.201  10.666   5.122
48066SOL    HW146095   3.174  10.628   5.206
48066SOL    HW246096   3.123  10.659   5.067
48067SOL     OW46097   5.198   8.234   5.183
48067SOL    HW146098   5.261   8.175   5.225
48067SOL    HW246099   5.247   8.315   5.170
48068SOL     OW46100   0.555  12.664   5.721
48068SOL    HW146101   0.464  12.638   5.702
48068SOL    HW246102   0.591  12.590   5.770
48069SOL     OW46103   1.931  10.044   2.913
48069SOL    HW146104   1.850  10.005   2.945
48069SOL    HW246105   1.978   9.972   2.872
48070SOL     OW46106   2.231   5.564   2.937
48070SOL    HW146107   2.261   5.655   2.935
48070SOL    HW246108   2.283   5.520   2.870
48071SOL     OW46109  10.678  14.111   6.762
48071SOL    HW146110  10.685  14.037   6.702
48071SOL    HW246111  10.587  14.140   6.755
48072SOL     OW46112   6.815  11.971  10.549
48072SOL    HW146113   6.831  12.065  10.555
48072SOL    HW246114   6.740  11.963  10.491
48073SOL     OW46115   9.045   3.581   7.192
48073SOL    HW146116   9.018   3.509   7.135
48073SOL    HW246117   8.968   3.638   7.195
48074SOL     OW46118  11.033  14.526  13.041
48074SOL    HW146119  11.012  14.590  13.109
48074SOL    HW246120  10.996  14.563  12.961
48075SOL     OW46121  13.883   5.325   0.832
48075SOL    HW146122  13.893   5.231   0.851
48075SOL    HW246123  13.803   5.330   0.780
48076SOL     OW46124   7.334   2.480   9.495
48076SOL    HW146125   7.415   2.501   9.449
48076SOL    HW246126   7.265   2.504   9.433
48077SOL     OW46127  11.075  10.252   4.054
48077SOL    HW146128  11.011  10.183   4.067
48077SOL    HW246129  11.026  10.333   4.068
48078SOL     OW46130   3.249  14.291  13.171
48078SOL    HW146131   3.232  14.206  13.131
48078SOL    HW246132   3.344  14.300  13.168
48079SOL     OW46133   1.942  14.781   5.201
48079SOL    HW146134   1.917  14.690   5.216
48079SOL    HW246135   1.983  14.809   5.283
48080SOL     OW46136  12.494  11.612   9.524
48080SOL    HW146137  12.495  11.705   9.504
48080SOL    HW246138  12.477  11.607   9.618
48081SOL     OW46139   9.410   3.746   2.315
48081SOL    HW146140   9.353   3.813   2.279
48081SOL    HW246141   9.453   3.788   2.390
48082SOL     OW46142   5.942  14.583   1.720
48082SOL    HW146143   5.929  14.646   1.649
48082SOL    HW246144   5.898  14.624   1.795
48083SOL     OW46145   5.709   8.384   8.357
48083SOL    HW146146   5.703   8.424   8.270
48083SOL    HW246147   5.766   8.442   8.407
48084SOL     OW46148   3.404  14.368   0.715
48084SOL    HW146149   3.370  14.404   0.632
48084SOL    HW246150   3.498  14.363   0.701
48085SOL     OW46151  14.839   7.014   3.469
48085SOL    HW146152  14.829   7.109   3.465
48085SOL    HW246153  14.818   6.983   3.382
48086SOL     OW46154   9.016  13.353   3.356
48086SOL    HW146155   8.986  13.439   3.386
48086SOL    HW246156   8.935  13.308   3.329
48087SOL     OW46157  13.584   4.950  11.666
48087SOL    HW146158  13.552   4.930  11.754
48087SOL    HW246159  13.508   4.982  11.619
48088SOL     OW46160   2.811   4.515   9.988
48088SOL    HW146161   2.860   4.566   9.922
48088SOL    HW246162   2.722   4.549   9.983
48089SOL     OW46163   2.026  11.585   6.872
48089SOL    HW146164   2.026  11.581   6.967
48089SOL    HW246165   2.117  11.571   6.847
48090SOL     OW46166   6.466   3.154   4.954
48090SOL    HW146167   6.559   3.143   4.974
48090SOL    HW246168   6.449   3.247   4.969
48091SOL     OW46169   9.005   1.318   4.663
48091SOL    HW146170   9.094   1.353   4.662
48091SOL    HW246171   8.978   1.323   4.755
48092SOL     OW46172  11.611   5.484   4.662
48092SOL    HW146173  11.688   5.542   4.662
48092SOL    HW246174  11.540   5.540   4.631
48093SOL     OW46175  14.544  12.753  13.392
48093SOL    HW146176  14.601  12.732  13.318
48093SOL    HW246177  14.586  12.829  13.433
48094SOL     OW46178   0.659   0.193   9.705
48094SOL    HW146179   0.754   0.194   9.694
48094SOL    HW246180   0.645   0.225   9.794
48095SOL     OW46181   0.980   1.446   2.671
48095SOL    HW146182   1.037   1.513   2.632
48095SOL    HW246183   0.942   1.401   2.596
48096SOL     OW46184  12.097   5.007   2.277
48096SOL    HW146185  12.061   5.024   2.190
48096SOL    HW246186  12.024   4.969   2.326
48097SOL     OW46187   6.033  13.827   9.248
48097SOL    HW146188   6.028  13.835   9.344
48097SOL    HW246189   6.119  13.789   9.232
48098SOL     OW46190  13.070   5.044   0.379
48098SOL    HW146191  12.982   5.027   0.412
48098SOL    HW246192  13.076   4.993   0.298
48099SOL     OW46193  11.143  12.970   0.778
48099SOL    HW146194  11.195  13.021   0.716
48099SOL    HW246195  11.098  13.036   0.831
48100SOL     OW46196   9.036   0.845  14.768
48100SOL    HW146197   9.045   0.760  14.810
48100SOL    HW246198   8.944   0.868  14.778
48101SOL     OW46199  14.098  11.509  14.394
48101SOL    HW146200  14.062  11.428  14.357
48101SOL    HW246201  14.138  11.481  14.476
48102SOL     OW46202   2.467   6.673   5.996
48102SOL    HW146203   2.549   6.652   6.041
48102SOL    HW246204   2.458   6.768   6.007
48103SOL     OW46205   6.205   6.281   2.296
48103SOL    HW146206   6.263   6.301   2.223
48103SOL    HW246207   6.247   6.322   2.372
48104SOL     OW46208   9.995   9.599  11.846
48104SOL    HW146209  10.026   9.549  11.771
48104SOL    HW246210   9.904   9.571  11.858
48105SOL     OW46211   6.994  11.899   1.639
48105SOL    HW146212   6.984  11.919   1.546
48105SOL    HW246213   6.931  11.828   1.655
48106SOL     OW46214  11.436   1.018  12.636
48106SOL    HW146215  11.422   1.014  12.730
48106SOL    HW246216  11.444   1.112  12.617
48107SOL     OW46217  10.839   7.937   9.325
48107SOL    HW146218  10.791   7.861   9.357
48107SOL    HW246219  10.823   8.005   9.391
48108SOL     OW46220  11.288   6.289   1.101
48108SOL    HW146221  11.258   6.351   1.034
48108SOL    HW246222  11.377   6.317   1.121
48109SOL     OW46223   0.036   5.453   8.653
48109SOL    HW146224   0.086   5.394   8.709
48109SOL    HW246225   0.091   5.531   8.646
48110SOL     OW46226   7.367   4.094   0.048
48110SOL    HW146227   7.370   4.031  14.850
48110SOL    HW246228   7.275   4.097   0.073
48111SOL     OW46229   4.541  14.704  12.252
48111SOL    HW146230   4.544  14.758  12.331
48111SOL    HW246231   4.494  14.625  12.280
48112SOL     OW46232   7.505  11.114  11.868
48112SOL    HW146233   7.469  11.036  11.825
48112SOL    HW246234   7.570  11.080  11.929
48113SOL     OW46235   2.153   7.770   2.489
48113SOL    HW146236   2.215   7.795   2.558
48113SOL    HW246237   2.184   7.685   2.459
48114SOL     OW46238  14.646  13.890   5.926
48114SOL    HW146239  14.570  13.882   5.983
48114SOL    HW246240  14.672  13.800   5.907
48115SOL     OW46241   1.598  10.016   9.066
48115SOL    HW146242   1.635   9.948   9.123
48115SOL    HW246243   1.659  10.090   9.075
48116SOL     OW46244   7.597  13.280  11.461
48116SOL    HW146245   7.609  13.335  11.538
48116SOL    HW246246   7.556  13.200  11.494
48117SOL     OW46247   2.409  11.523   9.469
48117SOL    HW146248   2.467  11.486   9.535
48117SOL    HW246249   2.390  11.451   9.409
48118SOL     OW46250   1.056   6.568   3.761
48118SOL    HW146251   1.139   6.615   3.771
48118SOL    HW246252   1.071   6.483   3.804
48119SOL     OW46253   6.166   8.424   7.108
48119SOL    HW146254   6.185   8.502   7.161
48119SOL    HW246255   6.094   8.381   7.154
48120SOL     OW46256  12.134   4.820   8.187
48120SOL    HW146257  12.154   4.851   8.276
48120SOL    HW246258  12.101   4.898   8.142
48121SOL     OW46259  10.301  10.978  11.460
48121SOL    HW146260  10.377  11.031  11.482
48121SOL    HW246261  10.318  10.947  11.371
48122SOL     OW46262   1.405   7.624   2.353
48122SOL    HW146263   1.393   7.683   2.279
48122SOL    HW246264   1.489   7.581   2.336
48123SOL     OW46265   5.841   8.754   6.363
48123SOL    HW146266   5.897   8.787   6.434
48123SOL    HW246267   5.795   8.831   6.331
48124SOL     OW46268   7.085   9.225  11.925
48124SOL    HW146269   7.161   9.166  11.932
48124SOL    HW246270   7.023   9.192  11.990
48125SOL     OW46271  11.755   7.100   7.126
48125SOL    HW146272  11.786   7.085   7.036
48125SOL    HW246273  11.742   7.012   7.161
48126SOL     OW46274  11.373  11.603   5.644
48126SOL    HW146275  11.419  11.629   5.564
48126SOL    HW246276  11.309  11.538   5.614
48127SOL     OW46277   1.437   3.504   3.115
48127SOL    HW146278   1.456   3.410   3.121
48127SOL    HW246279   1.438   3.522   3.021
48128SOL     OW46280  10.021   4.098   5.029
48128SOL    HW146281  10.114   4.118   5.041
48128SOL    HW246282   9.977   4.153   5.093
48129SOL     OW46283   3.393  11.623   3.335
48129SOL    HW146284   3.394  11.597   3.427
48129SOL    HW246285   3.464  11.571   3.295
48130SOL     OW46286   9.800   4.771   4.240
48130SOL    HW146287   9.761   4.694   4.283
48130SOL    HW246288   9.866   4.802   4.302
48131SOL     OW46289   9.362  11.349  14.576
48131SOL    HW146290   9.333  11.361  14.666
48131SOL    HW246291   9.456  11.366  14.578
48132SOL     OW46292   3.810  13.406   9.457
48132SOL    HW146293   3.804  13.480   9.517
48132SOL    HW246294   3.773  13.332   9.506
48133SOL     OW46295   1.621  13.232   0.828
48133SOL    HW146296   1.552  13.234   0.762
48133SOL    HW246297   1.582  13.186   0.902
48134SOL     OW46298   2.555   3.458   8.205
48134SOL    HW146299   2.601   3.538   8.232
48134SOL    HW246300   2.604   3.427   8.128
48135SOL     OW46301   7.563   7.954   3.222
48135SOL    HW146302   7.543   8.014   3.151
48135SOL    HW246303   7.605   7.879   3.180
48136SOL     OW46304   2.098  11.291  10.317
48136SOL    HW146305   2.133  11.345  10.388
48136SOL    HW246306   2.024  11.341  10.283
48137SOL     OW46307   8.648  10.721  13.125
48137SOL    HW146308   8.668  10.695  13.035
48137SOL    HW246309   8.661  10.815  13.126
48138SOL     OW46310  13.910  13.843   6.358
48138SOL    HW146311  13.925  13.933   6.329
48138SOL    HW246312  13.875  13.852   6.447
48139SOL     OW46313   5.668  12.719  14.118
48139SOL    HW146314   5.714  12.757  14.044
48139SOL    HW246315   5.732  12.662  14.160
48140SOL     OW46316  12.037   6.114   6.147
48140SOL    HW146317  12.063   6.034   6.192
48140SOL    HW246318  12.062   6.100   6.056
48141SOL     OW46319  13.594   1.231  14.250
48141SOL    HW146320  13.689   1.240  14.246
48141SOL    HW246321  13.564   1.253  14.162
48142SOL     OW46322  14.182  14.798  11.161
48142SOL    HW146323  14.133  14.780  11.241
48142SOL    HW246324  14.238  14.721  11.150
48143SOL     OW46325   0.375   0.793  12.162
48143SOL    HW146326   0.467   0.818  12.173
48143SOL    HW246327   0.332   0.829  12.239
48144SOL     OW46328   0.986  12.995   2.736
48144SOL    HW146329   0.960  12.993   2.829
48144SOL    HW246330   1.071  12.951   2.735
48145SOL     OW46331   5.057   9.215   4.356
48145SOL    HW146332   5.136   9.269   4.357
48145SOL    HW246333   5.065   9.162   4.276
48146SOL     OW46334  12.181  12.558   3.562
48146SOL    HW146335  12.208  12.506   3.487
48146SOL    HW246336  12.161  12.494   3.630
48147SOL     OW46337  14.777   5.616   6.471
48147SOL    HW146338  14.827   5.559   6.530
48147SOL    HW246339  14.840   5.643   6.405
48148SOL     OW46340   9.705   2.981  12.130
48148SOL    HW146341   9.695   2.914  12.197
48148SOL    HW246342   9.795   2.971  12.098
48149SOL     OW46343  10.525   1.542   1.034
48149SOL    HW146344  10.522   1.632   1.065
48149SOL    HW246345  10.580   1.545   0.956
48150SOL     OW46346   9.539   7.418   8.647
48150SOL    HW146347   9.571   7.435   8.559
48150SOL    HW246348   9.462   7.474   8.656
48151SOL     OW46349   7.200   6.945   1.628
48151SOL    HW146350   7.250   7.026   1.640
48151SOL    HW246351   7.184   6.940   1.534
48152SOL     OW46352   5.591   1.150   4.328
48152SOL    HW146353   5.658   1.218   4.318
48152SOL    HW246354   5.640   1.069   4.340
48153SOL     OW46355   5.243   5.655   5.089
48153SOL    HW146356   5.292   5.703   5.155
48153SOL    HW246357   5.309   5.614   5.034
48154SOL     OW46358   9.432   9.261  12.094
48154SOL    HW146359   9.404   9.255  12.002
48154SOL    HW246360   9.350   9.276  12.142
48155SOL     OW46361  12.525  11.884   6.896
48155SOL    HW146362  12.474  11.847   6.823
48155SOL    HW246363  12.521  11.817   6.964
48156SOL     OW46364   5.020   0.282   1.831
48156SOL    HW146365   5.082   0.352   1.854
48156SOL    HW246366   5.074   0.203   1.823
48157SOL     OW46367  11.613   5.594   2.352
48157SOL    HW146368  11.602   5.654   2.278
48157SOL    HW246369  11.541   5.615   2.411
48158SOL     OW46370  10.648   7.157  10.572
48158SOL    HW146371  10.727   7.103  10.569
48158SOL    HW246372  10.607   7.144  10.486
48159SOL     OW46373  14.871   9.591   1.359
48159SOL    HW146374   0.073   9.579   1.414
48159SOL    HW246375   0.031   9.588   1.269
48160SOL     OW46376  11.744   3.333   1.578
48160SOL    HW146377  11.706   3.334   1.491
48160SOL    HW246378  11.837   3.352   1.564
48161SOL     OW46379  13.716  11.044  12.883
48161SOL    HW146380  13.791  11.040  12.823
48161SOL    HW246381  13.737  10.980  12.952
48162SOL     OW46382   8.099  11.205  10.726
48162SOL    HW146383   8.029  11.144  10.704
48162SOL    HW246384   8.164  11.151  10.772
48163SOL     OW46385   0.668   5.104   5.741
48163SOL    HW146386   0.717   5.026   5.718
48163SOL    HW246387   0.639   5.089   5.831
48164SOL     OW46388   0.344   3.139   9.412
48164SOL    HW146389   0.436   3.124   9.434
48164SOL    HW246390   0.318   3.215   9.465
48165SOL     OW46391  14.042   2.788   9.182
48165SOL    HW146392  14.060   2.696   9.201
48165SOL    HW246393  14.032   2.791   9.087
48166SOL     OW46394   0.054   5.523   0.218
48166SOL    HW146395   0.067   5.552   0.127
48166SOL    HW246396   0.048   5.604   0.268
48167SOL     OW46397   2.187   9.277  12.736
48167SOL    HW146398   2.253   9.208  12.734
48167SOL    HW246399   2.119   9.243  12.794
48168SOL     OW46400   3.051   9.758  11.856
48168SOL    HW146401   3.101   9.834  11.886
48168SOL    HW246402   2.961   9.778  11.880
48169SOL     OW46403   0.580  12.660  12.263
48169SOL    HW146404   0.581  12.566  12.245
48169SOL    HW246405   0.493  12.689  12.237
48170SOL     OW46406   3.455   9.165  14.649
48170SOL    HW146407   3.491   9.086  14.688
48170SOL    HW246408   3.512   9.236  14.680
48171SOL     OW46409   8.390   7.652   5.890
48171SOL    HW146410   8.445   7.578   5.915
48171SOL    HW246411   8.450   7.713   5.848
48172SOL     OW46412   0.459   3.402   6.137
48172SOL    HW146413   0.413   3.466   6.190
48172SOL    HW246414   0.546   3.439   6.124
48173SOL     OW46415   2.566   4.526   0.446
48173SOL    HW146416   2.583   4.446   0.496
48173SOL    HW246417   2.484   4.560   0.481
48174SOL     OW46418  14.386   0.156   9.978
48174SOL    HW146419  14.345   0.140  10.064
48174SOL    HW246420  14.313   0.181   9.922
48175SOL     OW46421  10.207   8.599  14.343
48175SOL    HW146422  10.165   8.677  14.306
48175SOL    HW246423  10.300   8.620  14.343
48176SOL     OW46424   7.850  13.982   9.696
48176SOL    HW146425   7.888  14.067   9.675
48176SOL    HW246426   7.760  14.003   9.722
48177SOL     OW46427  12.478   0.890   4.086
48177SOL    HW146428  12.393   0.845   4.088
48177SOL    HW246429  12.473   0.954   4.157
48178SOL     OW46430  11.130   4.366  14.289
48178SOL    HW146431  11.147   4.273  14.277
48178SOL    HW246432  11.053   4.369  14.347
48179SOL     OW46433  12.846   5.092   3.642
48179SOL    HW146434  12.831   5.187   3.633
48179SOL    HW246435  12.811   5.055   3.561
48180SOL     OW46436   8.152   7.066  11.546
48180SOL    HW146437   8.214   7.049  11.475
48180SOL    HW246438   8.157   6.988  11.601
48181SOL     OW46439   9.872   0.543  14.029
48181SOL    HW146440   9.913   0.460  14.007
48181SOL    HW246441   9.829   0.571  13.947
48182SOL     OW46442   2.905   8.026   9.121
48182SOL    HW146443   2.887   8.057   9.209
48182SOL    HW246444   2.950   8.098   9.078
48183SOL     OW46445   3.211   4.096   4.785
48183SOL    HW146446   3.221   4.096   4.690
48183SOL    HW246447   3.209   4.189   4.809
48184SOL     OW46448  10.324   2.193   0.537
48184SOL    HW146449  10.362   2.258   0.477
48184SOL    HW246450  10.359   2.109   0.507
48185SOL     OW46451  12.130   0.043  10.913
48185SOL    HW146452  12.137   0.080  10.825
48185SOL    HW246453  12.213   0.065  10.956
48186SOL     OW46454   7.919  12.708  10.646
48186SOL    HW146455   7.975  12.635  10.619
48186SOL    HW246456   7.847  12.667  10.693
48187SOL     OW46457  10.892   8.335  12.965
48187SOL    HW146458  10.829   8.373  12.904
48187SOL    HW246459  10.970   8.319  12.913
48188SOL     OW46460   4.662  10.528  13.989
48188SOL    HW146461   4.606  10.454  13.965
48188SOL    HW246462   4.741  10.489  14.026
48189SOL     OW46463   9.565   4.389   4.597
48189SOL    HW146464   9.469   4.394   4.594
48189SOL    HW246465   9.592   4.393   4.505
48190SOL     OW46466   5.710  10.234   6.618
48190SOL    HW146467   5.744  10.168   6.557
48190SOL    HW246468   5.629  10.264   6.578
48191SOL     OW46469   9.032   6.313   2.040
48191SOL    HW146470   8.984   6.376   2.094
48191SOL    HW246471   8.987   6.230   2.054
48192SOL     OW46472  14.782   9.197   8.422
48192SOL    HW146473  14.749   9.251   8.350
48192SOL    HW246474  14.775   9.107   8.388
48193SOL     OW46475   7.754   3.038   3.366
48193SOL    HW146476   7.798   2.953   3.375
48193SOL    HW246477   7.663   3.020   3.391
48194SOL     OW46478  10.141   3.994  11.987
48194SOL    HW146479  10.112   3.976  12.077
48194SOL    HW246480  10.209   3.929  11.971
48195SOL     OW46481   9.862   5.085   8.709
48195SOL    HW146482   9.853   4.994   8.682
48195SOL    HW246483   9.952   5.108   8.686
48196SOL     OW46484   2.665   3.424  10.546
48196SOL    HW146485   2.657   3.519  10.553
48196SOL    HW246486   2.759   3.408  10.553
48197SOL     OW46487   8.905  14.270   4.383
48197SOL    HW146488   8.823  14.236   4.349
48197SOL    HW246489   8.946  14.196   4.427
48198SOL     OW46490   0.198   4.005   5.783
48198SOL    HW146491   0.107   4.032   5.780
48198SOL    HW246492   0.229   4.015   5.693
48199SOL     OW46493   3.422   7.852   1.562
48199SOL    HW146494   3.434   7.848   1.467
48199SOL    HW246495   3.379   7.936   1.578
48200SOL     OW46496   5.371   1.529  10.252
48200SOL    HW146497   5.356   1.591  10.323
48200SOL    HW246498   5.373   1.583  10.173
48201SOL     OW46499   1.689  10.041   5.249
48201SOL    HW146500   1.626   9.980   5.210
48201SOL    HW246501   1.761   9.985   5.279
48202SOL     OW46502  13.849  11.326   0.770
48202SOL    HW146503  13.882  11.317   0.681
48202SOL    HW246504  13.919  11.291   0.825
48203SOL     OW46505   5.983   7.659   8.173
48203SOL    HW146506   5.929   7.584   8.149
48203SOL    HW246507   5.992   7.709   8.092
48204SOL     OW46508   1.344  12.501  14.602
48204SOL    HW146509   1.439  12.504  14.616
48204SOL    HW246510   1.318  12.592  14.589
48205SOL     OW46511  14.147  14.375   4.039
48205SOL    HW146512  14.146  14.443   3.972
48205SOL    HW246513  14.212  14.405   4.103
48206SOL     OW46514  12.016   4.715   9.699
48206SOL    HW146515  12.109   4.702   9.686
48206SOL    HW246516  11.979   4.712   9.611
48207SOL     OW46517   6.654   8.294  12.092
48207SOL    HW146518   6.747   8.283  12.110
48207SOL    HW246519   6.613   8.214  12.126
48208SOL     OW46520   8.204   8.105   4.122
48208SOL    HW146521   8.127   8.059   4.154
48208SOL    HW246522   8.274   8.040   4.124
48209SOL     OW46523  10.270   2.985   8.992
48209SOL    HW146524  10.298   3.071   9.025
48209SOL    HW246525  10.262   2.931   9.070
48210SOL     OW46526   8.476   7.029   8.843
48210SOL    HW146527   8.556   7.065   8.804
48210SOL    HW246528   8.502   6.943   8.875
48211SOL     OW46529   7.878   4.112   0.449
48211SOL    HW146530   7.947   4.104   0.514
48211SOL    HW246531   7.912   4.175   0.385
48212SOL     OW46532   2.518  14.195  12.787
48212SOL    HW146533   2.608  14.186  12.756
48212SOL    HW246534   2.519  14.156  12.875
48213SOL     OW46535   9.093   3.926  12.324
48213SOL    HW146536   9.076   3.883  12.408
48213SOL    HW246537   9.170   3.880  12.289
48214SOL     OW46538   6.564  12.290  14.435
48214SOL    HW146539   6.519  12.371  14.458
48214SOL    HW246540   6.498  12.238  14.390
48215SOL     OW46541   1.928   0.802  10.020
48215SOL    HW146542   1.962   0.886  10.050
48215SOL    HW246543   1.900   0.817   9.930
48216SOL     OW46544   1.163   6.820   5.402
48216SOL    HW146545   1.184   6.876   5.477
48216SOL    HW246546   1.100   6.757   5.436
48217SOL     OW46547   3.956  10.388  12.023
48217SOL    HW146548   4.003  10.389  11.939
48217SOL    HW246549   4.021  10.356  12.086
48218SOL     OW46550   5.504  14.834   5.765
48218SOL    HW146551   5.556  14.868   5.837
48218SOL    HW246552   5.547  14.866   5.686
48219SOL     OW46553   1.937   2.842  13.653
48219SOL    HW146554   1.855   2.837  13.701
48219SOL    HW246555   1.968   2.931  13.667
48220SOL     OW46556   5.592   2.338   5.030
48220SOL    HW146557   5.685   2.360   5.023
48220SOL    HW246558   5.560   2.391   5.102
48221SOL     OW46559   4.812   5.697  11.299
48221SOL    HW146560   4.865   5.750  11.358
48221SOL    HW246561   4.875   5.659  11.237
48222SOL     OW46562  12.367   0.470   7.256
48222SOL    HW146563  12.463   0.463   7.258
48222SOL    HW246564  12.345   0.525   7.331
48223SOL     OW46565   8.013   2.498   2.387
48223SOL    HW146566   7.999   2.404   2.393
48223SOL    HW246567   8.016   2.528   2.479
48224SOL     OW46568   4.744   0.220  11.571
48224SOL    HW146569   4.754   0.255  11.660
48224SOL    HW246570   4.657   0.179  11.571
48225SOL     OW46571   3.776   1.272   1.265
48225SOL    HW146572   3.826   1.264   1.184
48225SOL    HW246573   3.751   1.365   1.269
48226SOL     OW46574   1.690  14.300  13.716
48226SOL    HW146575   1.674  14.375  13.773
48226SOL    HW246576   1.735  14.237  13.771
48227SOL     OW46577  13.130   6.690   6.104
48227SOL    HW146578  13.035   6.676   6.102
48227SOL    HW246579  13.146   6.738   6.185
48228SOL     OW46580   3.302   6.226  13.209
48228SOL    HW146581   3.354   6.161  13.162
48228SOL    HW246582   3.353   6.245  13.288
48229SOL     OW46583   2.341  12.139   7.952
48229SOL    HW146584   2.343  12.061   8.006
48229SOL    HW246585   2.297  12.112   7.871
48230SOL     OW46586  11.505   2.707  12.563
48230SOL    HW146587  11.414   2.698  12.589
48230SOL    HW246588  11.524   2.628  12.512
48231SOL     OW46589   3.964   1.103   0.241
48231SOL    HW146590   4.003   1.017   0.222
48231SOL    HW246591   3.976   1.153   0.160
48232SOL     OW46592  13.895   3.372  14.751
48232SOL    HW146593  13.957   3.398  14.820
48232SOL    HW246594  13.911   3.435  14.681
48233SOL     OW46595   7.570   2.275  12.949
48233SOL    HW146596   7.475   2.278  12.943
48233SOL    HW246597   7.601   2.291  12.860
48234SOL     OW46598   8.373   1.198   7.172
48234SOL    HW146599   8.279   1.183   7.174
48234SOL    HW246600   8.409   1.135   7.235
48235SOL     OW46601  14.038   1.588   9.508
48235SOL    HW146602  13.956   1.540   9.499
48235SOL    HW246603  14.048   1.602   9.602
48236SOL     OW46604  11.773   5.507  12.988
48236SOL    HW146605  11.725   5.576  13.035
48236SOL    HW246606  11.843   5.481  13.047
48237SOL     OW46607   7.766   1.352  13.435
48237SOL    HW146608   7.824   1.421  13.465
48237SOL    HW246609   7.688   1.399  13.404
48238SOL     OW46610  13.293  10.943   2.099
48238SOL    HW146611  13.263  10.938   2.190
48238SOL    HW246612  13.316  10.853   2.077
48239SOL     OW46613   6.759   2.026   4.312
48239SOL    HW146614   6.753   1.969   4.389
48239SOL    HW246615   6.842   2.003   4.272
48240SOL     OW46616   8.434   8.214   3.829
48240SOL    HW146617   8.404   8.232   3.918
48240SOL    HW246618   8.481   8.293   3.802
48241SOL     OW46619   3.148   4.599   2.319
48241SOL    HW146620   3.079   4.579   2.382
48241SOL    HW246621   3.130   4.689   2.292
48242SOL     OW46622  13.306   4.474   1.110
48242SOL    HW146623  13.305   4.568   1.125
48242SOL    HW246624  13.254   4.437   1.181
48243SOL     OW46625   6.775   5.222   0.831
48243SOL    HW146626   6.827   5.252   0.905
48243SOL    HW246627   6.692   5.269   0.839
48244SOL     OW46628   0.861   8.950  11.113
48244SOL    HW146629   0.814   9.034  11.108
48244SOL    HW246630   0.805   8.895  11.168
48245SOL     OW46631   1.814   3.989   5.100
48245SOL    HW146632   1.759   3.922   5.061
48245SOL    HW246633   1.884   3.940   5.143
48246SOL     OW46634   0.093   8.653   4.202
48246SOL    HW146635   0.149   8.710   4.149
48246SOL    HW246636   0.052   8.594   4.138
48247SOL     OW46637   2.580   9.897   1.589
48247SOL    HW146638   2.619   9.813   1.564
48247SOL    HW246639   2.655   9.951   1.617
48248SOL     OW46640  12.052  10.743   8.838
48248SOL    HW146641  12.096  10.727   8.921
48248SOL    HW246642  12.102  10.814   8.798
48249SOL     OW46643  12.980   6.042   6.137
48249SOL    HW146644  12.932   6.114   6.095
48249SOL    HW246645  13.072   6.067   6.129
48250SOL     OW46646  10.732   5.331   0.477
48250SOL    HW146647  10.668   5.357   0.410
48250SOL    HW246648  10.706   5.242   0.501
48251SOL     OW46649  10.833  14.384   3.033
48251SOL    HW146650  10.786  14.323   2.977
48251SOL    HW246651  10.913  14.404   2.986
48252SOL     OW46652   7.708  10.608   0.115
48252SOL    HW146653   7.683  10.522   0.147
48252SOL    HW246654   7.739  10.592   0.025
48253SOL     OW46655  11.321   2.253  13.527
48253SOL    HW146656  11.378   2.225  13.455
48253SOL    HW246657  11.379   2.302  13.585
48254SOL     OW46658   6.654   1.869   6.643
48254SOL    HW146659   6.707   1.883   6.722
48254SOL    HW246660   6.663   1.951   6.593
48255SOL     OW46661   8.714   7.900  13.329
48255SOL    HW146662   8.647   7.960  13.361
48255SOL    HW246663   8.780   7.898  13.397
48256SOL     OW46664   3.767   4.943   2.338
48256SOL    HW146665   3.713   4.866   2.357
48256SOL    HW246666   3.817   4.957   2.419
48257SOL     OW46667  13.981  11.573   5.248
48257SOL    HW146668  13.978  11.481   5.277
48257SOL    HW246669  14.075  11.592   5.241
48258SOL     OW46670  13.939   1.114   0.792
48258SOL    HW146671  13.952   1.206   0.770
48258SOL    HW246672  13.846   1.098   0.776
48259SOL     OW46673   5.673   5.865   2.462
48259SOL    HW146674   5.688   5.779   2.499
48259SOL    HW246675   5.745   5.878   2.400
48260SOL     OW46676  13.724   4.896   7.624
48260SOL    HW146677  13.696   4.987   7.616
48260SOL    HW246678  13.646   4.844   7.606
48261SOL     OW46679   0.168  11.606   5.006
48261SOL    HW146680   0.224  11.658   4.948
48261SOL    HW246681   0.177  11.516   4.973
48262SOL     OW46682  11.997  12.682   8.107
48262SOL    HW146683  12.069  12.695   8.169
48262SOL    HW246684  12.030  12.616   8.046
48263SOL     OW46685   0.431   0.437   4.060
48263SOL    HW146686   0.478   0.435   3.976
48263SOL    HW246687   0.450   0.523   4.097
48264SOL     OW46688   1.923  12.858   8.334
48264SOL    HW146689   1.898  12.907   8.413
48264SOL    HW246690   1.872  12.778   8.337
48265SOL     OW46691   5.946  11.713   5.129
48265SOL    HW146692   5.997  11.706   5.048
48265SOL    HW246693   5.974  11.639   5.182
48266SOL     OW46694  14.043   9.949   4.906
48266SOL    HW146695  13.985   9.900   4.964
48266SOL    HW246696  14.032   9.907   4.820
48267SOL     OW46697   8.064   9.231   4.795
48267SOL    HW146698   8.106   9.265   4.716
48267SOL    HW246699   8.126   9.249   4.865
48268SOL     OW46700   9.992   0.793   0.867
48268SOL    HW146701   9.968   0.840   0.786
48268SOL    HW246702  10.023   0.862   0.926
48269SOL     OW46703   1.897   6.593   5.227
48269SOL    HW146704   1.867   6.608   5.317
48269SOL    HW246705   1.906   6.498   5.220
48270SOL     OW46706   1.284   8.120   4.765
48270SOL    HW146707   1.276   8.027   4.745
48270SOL    HW246708   1.195   8.154   4.756
48271SOL     OW46709   1.215   3.507  12.948
48271SOL    HW146710   1.145   3.459  12.992
48271SOL    HW246711   1.256   3.443  12.890
48272SOL     OW46712   0.942   9.578  10.859
48272SOL    HW146713   0.924   9.670  10.840
48272SOL    HW246714   0.882   9.557  10.931
48273SOL     OW46715   5.444  11.843  10.268
48273SOL    HW146716   5.380  11.887  10.325
48273SOL    HW246717   5.395  11.771  10.229
48274SOL     OW46718   0.771   9.092   1.276
48274SOL    HW146719   0.841   9.142   1.234
48274SOL    HW246720   0.813   9.011   1.303
48275SOL     OW46721  11.499   7.547  14.757
48275SOL    HW146722  11.422   7.585  14.715
48275SOL    HW246723  11.554   7.519  14.684
48276SOL     OW46724   5.998  10.330  13.947
48276SOL    HW146725   5.905  10.345  13.965
48276SOL    HW246726   6.002  10.241  13.913
48277SOL     OW46727  14.615   4.086  13.248
48277SOL    HW146728  14.705   4.078  13.215
48277SOL    HW246729  14.625   4.084  13.343
48278SOL     OW46730   2.739   2.673   4.830
48278SOL    HW146731   2.750   2.625   4.912
48278SOL    HW246732   2.754   2.764   4.853
48279SOL     OW46733   6.652   1.418   3.063
48279SOL    HW146734   6.730   1.432   3.009
48279SOL    HW246735   6.671   1.464   3.145
48280SOL     OW46736   4.821   4.048   8.829
48280SOL    HW146737   4.783   4.128   8.864
48280SOL    HW246738   4.770   4.030   8.750
48281SOL     OW46739   8.879  10.621   3.454
48281SOL    HW146740   8.817  10.586   3.390
48281SOL    HW246741   8.956  10.643   3.403
48282SOL     OW46742  13.002   7.115   3.448
48282SOL    HW146743  12.942   7.162   3.507
48282SOL    HW246744  13.088   7.153   3.467
48283SOL     OW46745   6.361   7.836  11.899
48283SOL    HW146746   6.304   7.912  11.907
48283SOL    HW246747   6.450   7.872  11.906
48284SOL     OW46748   6.735   2.087   9.765
48284SOL    HW146749   6.813   2.142   9.768
48284SOL    HW246750   6.730   2.048   9.852
48285SOL     OW46751   0.708  10.845   8.881
48285SOL    HW146752   0.790  10.862   8.928
48285SOL    HW246753   0.653  10.799   8.945
48286SOL     OW46754   0.939   8.072  12.726
48286SOL    HW146755   0.867   8.130  12.747
48286SOL    HW246756   1.016   8.114  12.763
48287SOL     OW46757   5.820  11.443   4.448
48287SOL    HW146758   5.881  11.380   4.486
48287SOL    HW246759   5.872  11.522   4.433
48288SOL     OW46760   4.716   1.839   5.259
48288SOL    HW146761   4.623   1.825   5.276
48288SOL    HW246762   4.719   1.904   5.189
48289SOL     OW46763  11.225  12.659  14.840
48289SOL    HW146764  11.232  12.704  14.756
48289SOL    HW246765  11.130  12.652  14.855
48290SOL     OW46766   1.946   5.582   6.415
48290SOL    HW146767   1.973   5.667   6.451
48290SOL    HW246768   1.921   5.601   6.325
48291SOL     OW46769   7.171   2.739  14.120
48291SOL    HW146770   7.233   2.670  14.143
48291SOL    HW246771   7.225   2.816  14.106
48292SOL     OW46772   6.079  10.197  13.459
48292SOL    HW146773   6.052  10.162  13.544
48292SOL    HW246774   6.064  10.291  13.466
48293SOL     OW46775   4.100   9.099   8.596
48293SOL    HW146776   4.061   9.097   8.684
48293SOL    HW246777   4.132   9.189   8.586
48294SOL     OW46778  10.141  11.053   7.028
48294SOL    HW146779  10.112  10.990   7.095
48294SOL    HW246780  10.216  11.011   6.986
48295SOL     OW46781   8.483   3.960   5.396
48295SOL    HW146782   8.566   3.955   5.442
48295SOL    HW246783   8.420   3.917   5.454
48296SOL     OW46784   8.259   1.831   0.312
48296SOL    HW146785   8.304   1.902   0.266
48296SOL    HW246786   8.231   1.772   0.243
48297SOL     OW46787   5.571   7.565   8.132
48297SOL    HW146788   5.601   7.595   8.218
48297SOL    HW246789   5.484   7.603   8.122
48298SOL     OW46790   5.870  10.321  12.193
48298SOL    HW146791   5.913  10.405  12.181
48298SOL    HW246792   5.914  10.262  12.132
48299SOL     OW46793  12.380   7.046  13.011
48299SOL    HW146794  12.374   7.039  13.106
48299SOL    HW246795  12.327   6.974  12.978
48300SOL     OW46796   3.120   7.001   4.263
48300SOL    HW146797   3.104   7.016   4.356
48300SOL    HW246798   3.124   6.906   4.254
48301SOL     OW46799  12.604  12.822  13.844
48301SOL    HW146800  12.595  12.727  13.836
48301SOL    HW246801  12.670  12.845  13.778
48302SOL     OW46802  14.084   7.692   7.990
48302SOL    HW146803  14.052   7.605   8.011
48302SOL    HW246804  14.115   7.726   8.074
48303SOL     OW46805   9.633  11.459  14.627
48303SOL    HW146806   9.658  11.540  14.583
48303SOL    HW246807   9.617  11.483  14.718
48304SOL     OW46808   0.144   4.873  14.539
48304SOL    HW146809   0.129   4.954  14.489
48304SOL    HW246810   0.060   4.856  14.581
48305SOL     OW46811   7.509   2.646   9.282
48305SOL    HW146812   7.576   2.713   9.271
48305SOL    HW246813   7.428   2.689   9.259
48306SOL     OW46814   4.869  14.730  10.786
48306SOL    HW146815   4.934  14.680  10.737
48306SOL    HW246816   4.828  14.786  10.721
48307SOL     OW46817  12.217  12.337   1.267
48307SOL    HW146818  12.128  12.372   1.265
48307SOL    HW246819  12.272  12.413   1.284
48308SOL     OW46820   0.078  10.765  13.776
48308SOL    HW146821   0.132  10.706  13.829
48308SOL    HW246822   0.097  10.852  13.810
48309SOL     OW46823  12.432  14.300  11.275
48309SOL    HW146824  12.446  14.389  11.307
48309SOL    HW246825  12.446  14.306  11.180
48310SOL     OW46826  14.177   0.669   5.308
48310SOL    HW146827  14.256   0.683   5.361
48310SOL    HW246828  14.120   0.743   5.330
48311SOL     OW46829   0.049   0.305  13.704
48311SOL    HW146830  14.856   0.254  13.747
48311SOL    HW246831   0.026   0.301  13.611
48312SOL     OW46832  10.388  12.406   8.353
48312SOL    HW146833  10.379  12.456   8.272
48312SOL    HW246834  10.319  12.339   8.347
48313SOL     OW46835   1.512   0.085  12.910
48313SOL    HW146836   1.442   0.044  12.860
48313SOL    HW246837   1.495   0.179  12.903
48314SOL     OW46838   0.501   0.761  11.821
48314SOL    HW146839   0.500   0.843  11.871
48314SOL    HW246840   0.463   0.783  11.736
48315SOL     OW46841  14.837  13.722   6.132
48315SOL    HW146842  14.814  13.711   6.040
48315SOL    HW246843  14.755  13.709   6.179
48316SOL     OW46844  13.275  12.322   6.694
48316SOL    HW146845  13.226  12.244   6.669
48316SOL    HW246846  13.304  12.304   6.784
48317SOL     OW46847   3.389  13.106  12.112
48317SOL    HW146848   3.470  13.139  12.150
48317SOL    HW246849   3.320  13.140  12.168
48318SOL     OW46850   3.751   3.611  12.026
48318SOL    HW146851   3.665   3.652  12.035
48318SOL    HW246852   3.767   3.570  12.111
48319SOL     OW46853   7.750   2.551   8.680
48319SOL    HW146854   7.713   2.560   8.768
48319SOL    HW246855   7.676   2.561   8.621
48320SOL     OW46856  13.606   6.613   0.846
48320SOL    HW146857  13.584   6.575   0.931
48320SOL    HW246858  13.701   6.618   0.846
48321SOL     OW46859  11.326  11.746  10.365
48321SOL    HW146860  11.280  11.748  10.281
48321SOL    HW246861  11.259  11.721  10.429
48322SOL     OW46862   4.226   4.126   7.488
48322SOL    HW146863   4.299   4.087   7.439
48322SOL    HW246864   4.164   4.054   7.499
48323SOL     OW46865  14.159   0.905  12.178
48323SOL    HW146866  14.125   0.985  12.218
48323SOL    HW246867  14.194   0.855  12.252
48324SOL     OW46868   0.984   4.668   6.765
48324SOL    HW146869   0.975   4.574   6.782
48324SOL    HW246870   1.067   4.676   6.718
48325SOL     OW46871   4.104   9.551  12.593
48325SOL    HW146872   4.073   9.470  12.633
48325SOL    HW246873   4.117   9.529  12.501
48326SOL     OW46874  11.647   4.416  12.895
48326SOL    HW146875  11.651   4.340  12.837
48326SOL    HW246876  11.554   4.430  12.909
48327SOL     OW46877   9.317   7.745   4.947
48327SOL    HW146878   9.263   7.781   4.877
48327SOL    HW246879   9.344   7.821   4.999
48328SOL     OW46880   5.240  11.770   7.816
48328SOL    HW146881   5.213  11.862   7.813
48328SOL    HW246882   5.216  11.735   7.730
48329SOL     OW46883   4.675  10.753   0.013
48329SOL    HW146884   4.747  10.755  14.826
48329SOL    HW246885   4.714  10.723   0.095
48330SOL     OW46886   5.121  13.809   1.419
48330SOL    HW146887   5.046  13.768   1.377
48330SOL    HW246888   5.148  13.878   1.357
48331SOL     OW46889  11.770   0.696   6.985
48331SOL    HW146890  11.693   0.727   6.938
48331SOL    HW246891  11.842   0.709   6.924
48332SOL     OW46892   2.951   4.278   1.497
48332SOL    HW146893   3.015   4.260   1.428
48332SOL    HW246894   2.998   4.335   1.558
48333SOL     OW46895   0.447   7.473   6.349
48333SOL    HW146896   0.477   7.382   6.358
48333SOL    HW246897   0.427   7.501   6.438
48334SOL     OW46898   8.677  12.641   6.296
48334SOL    HW146899   8.646  12.628   6.385
48334SOL    HW246900   8.772  12.655   6.305
48335SOL     OW46901  14.475  13.949  10.554
48335SOL    HW146902  14.531  13.961  10.631
48335SOL    HW246903  14.388  13.934  10.590
48336SOL     OW46904   8.817   3.749   7.208
48336SOL    HW146905   8.724   3.734   7.227
48336SOL    HW246906   8.835   3.836   7.245
48337SOL     OW46907  10.187   9.316   0.031
48337SOL    HW146908  10.221   9.340  14.820
48337SOL    HW246909  10.167   9.400   0.073
48338SOL     OW46910   9.441   6.450   2.504
48338SOL    HW146911   9.383   6.483   2.436
48338SOL    HW246912   9.402   6.481   2.586
48339SOL     OW46913  10.765   0.812   7.532
48339SOL    HW146914  10.828   0.852   7.473
48339SOL    HW246915  10.686   0.801   7.479
48340SOL     OW46916   2.964  13.022   1.514
48340SOL    HW146917   3.019  12.951   1.482
48340SOL    HW246918   2.971  13.090   1.446
48341SOL     OW46919   3.701   3.540  10.777
48341SOL    HW146920   3.664   3.523  10.690
48341SOL    HW246921   3.796   3.531  10.764
48342SOL     OW46922   3.113  10.146   9.764
48342SOL    HW146923   3.050  10.195   9.817
48342SOL    HW246924   3.095  10.174   9.674
48343SOL     OW46925   9.639   6.432   5.232
48343SOL    HW146926   9.682   6.356   5.271
48343SOL    HW246927   9.701   6.463   5.166
48344SOL     OW46928   4.169   5.695   2.030
48344SOL    HW146929   4.183   5.752   1.955
48344SOL    HW246930   4.254   5.655   2.047
48345SOL     OW46931   0.368   2.103   0.964
48345SOL    HW146932   0.384   2.156   0.885
48345SOL    HW246933   0.301   2.152   1.012
48346SOL     OW46934   2.709   3.031   9.307
48346SOL    HW146935   2.632   3.073   9.267
48346SOL    HW246936   2.681   2.940   9.321
48347SOL     OW46937   6.630   0.788  10.052
48347SOL    HW146938   6.539   0.816  10.063
48347SOL    HW246939   6.627   0.693  10.062
48348SOL     OW46940  13.845  12.748   0.221
48348SOL    HW146941  13.826  12.658   0.247
48348SOL    HW246942  13.939  12.748   0.203
48349SOL     OW46943   2.731  10.368  10.630
48349SOL    HW146944   2.687  10.379  10.714
48349SOL    HW246945   2.823  10.353  10.653
48350SOL     OW46946  12.562   1.960   6.761
48350SOL    HW146947  12.527   2.041   6.724
48350SOL    HW246948  12.494   1.895   6.742
48351SOL     OW46949   3.883   1.894   9.349
48351SOL    HW146950   3.956   1.868   9.293
48351SOL    HW246951   3.867   1.986   9.326
48352SOL     OW46952   0.002   1.557   4.506
48352SOL    HW146953   0.082   1.598   4.540
48352SOL    HW246954  14.816   1.561   4.579
48353SOL     OW46955  10.869   2.247   7.107
48353SOL    HW146956  10.777   2.273   7.103
48353SOL    HW246957  10.915   2.326   7.136
48354SOL     OW46958   0.574   2.370   6.113
48354SOL    HW146959   0.526   2.445   6.077
48354SOL    HW246960   0.511   2.298   6.111
48355SOL     OW46961   7.882   8.996   3.798
48355SOL    HW146962   7.891   9.080   3.753
48355SOL    HW246963   7.949   8.999   3.866
48356SOL     OW46964   3.149   1.317   8.253
48356SOL    HW146965   3.155   1.401   8.299
48356SOL    HW246966   3.076   1.328   8.192
48357SOL     OW46967   5.881   0.859   5.904
48357SOL    HW146968   5.808   0.843   5.844
48357SOL    HW246969   5.846   0.842   5.991
48358SOL     OW46970   3.638   5.883   7.382
48358SOL    HW146971   3.650   5.890   7.288
48358SOL    HW246972   3.679   5.961   7.418
48359SOL     OW46973  14.067   3.075  10.819
48359SOL    HW146974  14.044   3.081  10.726
48359SOL    HW246975  14.155   3.113  10.825
48360SOL     OW46976   2.163  13.232   2.357
48360SOL    HW146977   2.213  13.312   2.341
48360SOL    HW246978   2.180  13.178   2.280
48361SOL     OW46979  11.990   0.045   5.300
48361SOL    HW146980  12.081   0.020   5.316
48361SOL    HW246981  11.976   0.029   5.207
48362SOL     OW46982   7.581   4.017  14.224
48362SOL    HW146983   7.495   3.978  14.241
48362SOL    HW246984   7.598   3.999  14.131
48363SOL     OW46985   2.140   8.353   2.826
48363SOL    HW146986   2.155   8.440   2.863
48363SOL    HW246987   2.176   8.292   2.891
48364SOL     OW46988   6.893   0.444  12.846
48364SOL    HW146989   6.807   0.414  12.875
48364SOL    HW246990   6.955   0.390  12.894
48365SOL     OW46991   1.950  13.138   3.999
48365SOL    HW146992   1.957  13.170   4.089
48365SOL    HW246993   2.040  13.142   3.966
48366SOL     OW46994   4.487   2.962  10.356
48366SOL    HW146995   4.576   2.934  10.336
48366SOL    HW246996   4.431   2.913  10.296
48367SOL     OW46997  14.581  13.829   4.013
48367SOL    HW146998  14.517  13.761   3.989
48367SOL    HW246999  14.620  13.855   3.930
48368SOL     OW47000   7.832  10.631  12.168
48368SOL    HW147001   7.844  10.568  12.097
48368SOL    HW247002   7.760  10.595  12.220
48369SOL     OW47003  10.123   7.146  12.603
48369SOL    HW147004  10.174   7.067  12.586
48369SOL    HW247005  10.175   7.217  12.567
48370SOL     OW47006   1.992   4.184  12.687
48370SOL    HW147007   1.947   4.196  12.603
48370SOL    HW247008   2.018   4.092  12.688
48371SOL     OW47009   5.913   4.686  10.541
48371SOL    HW147010   5.947   4.656  10.457
48371SOL    HW247011   5.970   4.645  10.606
48372SOL     OW47012  14.406   6.955   3.766
48372SOL    HW147013  14.481   6.973   3.709
48372SOL    HW247014  14.393   6.860   3.757
48373SOL     OW47015   2.412   7.462  14.096
48373SOL    HW147016   2.409   7.557  14.086
48373SOL    HW247017   2.489   7.446  14.150
48374SOL     OW47018  14.545   8.141   2.927
48374SOL    HW147019  14.571   8.165   2.838
48374SOL    HW247020  14.622   8.157   2.981
48375SOL     OW47021   7.211  12.429  14.543
48375SOL    HW147022   7.266  12.396  14.471
48375SOL    HW247023   7.121  12.411  14.515
48376SOL     OW47024   8.888  13.388   4.327
48376SOL    HW147025   8.821  13.409   4.391
48376SOL    HW247026   8.840  13.370   4.247
48377SOL     OW47027   2.867   9.208  13.304
48377SOL    HW147028   2.907   9.162  13.378
48377SOL    HW247029   2.940   9.251  13.260
48378SOL     OW47030   7.952  11.584   5.172
48378SOL    HW147031   7.890  11.623   5.110
48378SOL    HW247032   7.938  11.633   5.253
48379SOL     OW47033  10.920   7.924  12.592
48379SOL    HW147034  10.892   8.005  12.549
48379SOL    HW247035  10.851   7.861  12.573
48380SOL     OW47036   6.917   4.666  12.369
48380SOL    HW147037   6.888   4.731  12.433
48380SOL    HW247038   6.974   4.607  12.418
48381SOL     OW47039   3.890  13.742   7.659
48381SOL    HW147040   3.849  13.662   7.693
48381SOL    HW247041   3.984  13.729   7.674
48382SOL     OW47042   0.800   6.285   7.895
48382SOL    HW147043   0.778   6.197   7.865
48382SOL    HW247044   0.888   6.276   7.933
48383SOL     OW47045   9.797   5.340   0.610
48383SOL    HW147046   9.842   5.424   0.607
48383SOL    HW247047   9.717   5.353   0.559
48384SOL     OW47048  10.360   3.613   4.215
48384SOL    HW147049  10.349   3.703   4.187
48384SOL    HW247050  10.413   3.573   4.146
48385SOL     OW47051  13.679   6.846   1.115
48385SOL    HW147052  13.587   6.822   1.105
48385SOL    HW247053  13.724   6.764   1.134
48386SOL     OW47054  14.653   5.710   3.477
48386SOL    HW147055  14.600   5.776   3.433
48386SOL    HW247056  14.674   5.749   3.562
48387SOL     OW47057   2.137   2.120   6.956
48387SOL    HW147058   2.106   2.120   7.047
48387SOL    HW247059   2.104   2.202   6.919
48388SOL     OW47060   5.430  11.279  12.024
48388SOL    HW147061   5.428  11.183  12.028
48388SOL    HW247062   5.502  11.299  11.965
48389SOL     OW47063   9.169   7.141   4.411
48389SOL    HW147064   9.179   7.217   4.353
48389SOL    HW247065   9.257   7.126   4.446
48390SOL     OW47066   9.867  14.269   2.175
48390SOL    HW147067   9.864  14.304   2.085
48390SOL    HW247068   9.855  14.346   2.230
48391SOL     OW47069   0.228   1.919   9.533
48391SOL    HW147070   0.201   1.914   9.441
48391SOL    HW247071   0.311   1.967   9.530
48392SOL     OW47072  13.073   3.470  13.041
48392SOL    HW147073  13.071   3.394  13.100
48392SOL    HW247074  13.146   3.452  12.982
48393SOL     OW47075   4.461  11.275   2.626
48393SOL    HW147076   4.393  11.208   2.620
48393SOL    HW247077   4.511  11.251   2.704
48394SOL     OW47078   0.459  12.960   0.239
48394SOL    HW147079   0.393  13.019   0.202
48394SOL    HW247080   0.542  12.989   0.200
48395SOL     OW47081   2.357   5.622  12.862
48395SOL    HW147082   2.407   5.696  12.826
48395SOL    HW247083   2.274   5.660  12.890
48396SOL     OW47084   5.881  13.364  10.668
48396SOL    HW147085   5.899  13.285  10.719
48396SOL    HW247086   5.962  13.415  10.674
48397SOL     OW47087   3.286  12.454   4.065
48397SOL    HW147088   3.306  12.415   3.980
48397SOL    HW247089   3.245  12.538   4.045
48398SOL     OW47090   0.332   6.310   1.207
48398SOL    HW147091   0.422   6.281   1.223
48398SOL    HW247092   0.280   6.265   1.275
48399SOL     OW47093  13.457  10.706   9.154
48399SOL    HW147094  13.419  10.630   9.111
48399SOL    HW247095  13.382  10.753   9.190
48400SOL     OW47096  12.786   4.409   6.260
48400SOL    HW147097  12.799   4.415   6.355
48400SOL    HW247098  12.873   4.396   6.224
48401SOL     OW47099   5.431   6.748   7.270
48401SOL    HW147100   5.408   6.665   7.310
48401SOL    HW247101   5.467   6.801   7.342
48402SOL     OW47102   7.507   7.040   5.583
48402SOL    HW147103   7.547   7.008   5.502
48402SOL    HW247104   7.415   7.050   5.562
48403SOL     OW47105  12.623   2.337   3.571
48403SOL    HW147106  12.561   2.408   3.581
48403SOL    HW247107  12.590   2.285   3.497
48404SOL     OW47108  11.203   9.488   8.675
48404SOL    HW147109  11.193   9.394   8.689
48404SOL    HW247110  11.226   9.497   8.583
48405SOL     OW47111  12.982  10.514   4.859
48405SOL    HW147112  12.993  10.584   4.924
48405SOL    HW247113  12.910  10.544   4.804
48406SOL     OW47114   1.799  13.336   1.369
48406SOL    HW147115   1.848  13.334   1.286
48406SOL    HW247116   1.724  13.393   1.352
48407SOL     OW47117   3.686  10.084   2.958
48407SOL    HW147118   3.730  10.024   2.898
48407SOL    HW247119   3.656  10.156   2.903
48408SOL     OW47120   3.368   1.242  13.850
48408SOL    HW147121   3.323   1.158  13.837
48408SOL    HW247122   3.315   1.306  13.803
48409SOL     OW47123   3.824  10.797  13.676
48409SOL    HW147124   3.742  10.757  13.704
48409SOL    HW247125   3.890  10.762  13.736
48410SOL     OW47126   5.821   2.081   3.574
48410SOL    HW147127   5.909   2.053   3.596
48410SOL    HW247128   5.793   2.134   3.649
48411SOL     OW47129  12.896   9.103  10.092
48411SOL    HW147130  12.904   9.007  10.092
48411SOL    HW247131  12.976   9.134  10.051
48412SOL     OW47132   6.161  12.236  12.142
48412SOL    HW147133   6.245  12.236  12.095
48412SOL    HW247134   6.096  12.212  12.075
48413SOL     OW47135  11.633   9.520  14.225
48413SOL    HW147136  11.618   9.448  14.164
48413SOL    HW247137  11.621   9.599  14.172
48414SOL     OW47138   0.250   1.576   1.699
48414SOL    HW147139   0.286   1.590   1.787
48414SOL    HW247140   0.279   1.652   1.649
48415SOL     OW47141   7.903  11.497   2.192
48415SOL    HW147142   7.922  11.421   2.247
48415SOL    HW247143   7.827  11.538   2.233
48416SOL     OW47144   9.446   3.343   8.797
48416SOL    HW147145   9.387   3.398   8.849
48416SOL    HW247146   9.391   3.310   8.726
48417SOL     OW47147   4.085  10.245   3.819
48417SOL    HW147148   4.126  10.214   3.738
48417SOL    HW247149   4.004  10.287   3.790
48418SOL     OW47150   2.732  12.311  10.432
48418SOL    HW147151   2.725  12.273  10.344
48418SOL    HW247152   2.664  12.378  10.434
48419SOL     OW47153   4.588  11.928   4.730
48419SOL    HW147154   4.542  11.879   4.662
48419SOL    HW247155   4.671  11.881   4.742
48420SOL     OW47156   4.299   1.452   3.365
48420SOL    HW147157   4.265   1.541   3.354
48420SOL    HW247158   4.300   1.438   3.460
48421SOL     OW47159   4.426   3.037  10.796
48421SOL    HW147160   4.359   2.991  10.846
48421SOL    HW247161   4.485   2.969  10.766
48422SOL     OW47162   6.963  11.812   4.535
48422SOL    HW147163   6.966  11.897   4.491
48422SOL    HW247164   6.972  11.748   4.464
48423SOL     OW47165   5.270   6.001   4.416
48423SOL    HW147166   5.179   6.030   4.421
48423SOL    HW247167   5.314   6.048   4.488
48424SOL     OW47168   5.966   4.142   1.167
48424SOL    HW147169   6.043   4.189   1.199
48424SOL    HW247170   5.978   4.136   1.073
48425SOL     OW47171   0.133  10.882   6.520
48425SOL    HW147172   0.087  10.804   6.553
48425SOL    HW247173   0.192  10.907   6.591
48426SOL     OW47174   2.813  11.627   2.742
48426SOL    HW147175   2.750  11.586   2.801
48426SOL    HW247176   2.888  11.647   2.797
48427SOL     OW47177   6.100  14.204  14.689
48427SOL    HW147178   6.168  14.141  14.667
48427SOL    HW247179   6.044  14.207  14.612
48428SOL     OW47180   1.787   7.393   9.391
48428SOL    HW147181   1.698   7.416   9.364
48428SOL    HW247182   1.844   7.447   9.337
48429SOL     OW47183   7.032  11.808   9.789
48429SOL    HW147184   7.063  11.814   9.699
48429SOL    HW247185   7.042  11.715   9.812
48430SOL     OW47186   4.853   8.719  10.825
48430SOL    HW147187   4.845   8.627  10.799
48430SOL    HW247188   4.763   8.749  10.839
48431SOL     OW47189   0.451   2.303   4.967
48431SOL    HW147190   0.487   2.384   5.001
48431SOL    HW247191   0.362   2.325   4.940
48432SOL     OW47192  13.061   5.221   7.929
48432SOL    HW147193  13.036   5.314   7.930
48432SOL    HW247194  13.123   5.214   7.857
48433SOL     OW47195   0.995   4.007   7.733
48433SOL    HW147196   0.950   3.929   7.765
48433SOL    HW247197   1.074   4.013   7.788
48434SOL     OW47198   3.872   1.583  14.586
48434SOL    HW147199   3.803   1.517  14.595
48434SOL    HW247200   3.825   1.666  14.589
48435SOL     OW47201  12.909   9.536  12.409
48435SOL    HW147202  12.856   9.476  12.357
48435SOL    HW247203  12.930   9.608  12.349
48436SOL     OW47204  10.975   3.827   0.290
48436SOL    HW147205  10.923   3.804   0.367
48436SOL    HW247206  10.911   3.834   0.219
48437SOL     OW47207  11.310  14.194   7.979
48437SOL    HW147208  11.387  14.251   7.990
48437SOL    HW247209  11.277  14.216   7.892
48438SOL     OW47210   9.440  13.545   3.790
48438SOL    HW147211   9.351  13.580   3.783
48438SOL    HW247212   9.489  13.614   3.835
48439SOL     OW47213   3.408   3.027   7.149
48439SOL    HW147214   3.469   3.059   7.082
48439SOL    HW247215   3.358   3.104   7.176
48440SOL     OW47216  13.304   4.103   9.827
48440SOL    HW147217  13.274   4.130   9.740
48440SOL    HW247218  13.274   4.012   9.835
48441SOL     OW47219   5.779   6.095   2.181
48441SOL    HW147220   5.767   6.024   2.118
48441SOL    HW247221   5.690   6.115   2.211
48442SOL     OW47222  14.818   9.116   8.706
48442SOL    HW147223  14.790   9.134   8.616
48442SOL    HW247224   0.014   9.178   8.722
48443SOL     OW47225  10.735  11.574   9.132
48443SOL    HW147226  10.699  11.513   9.196
48443SOL    HW247227  10.830  11.565   9.140
48444SOL     OW47228   1.350   4.545   5.141
48444SOL    HW147229   1.319   4.507   5.059
48444SOL    HW247230   1.402   4.620   5.115
48445SOL     OW47231   5.638   4.750   8.415
48445SOL    HW147232   5.730   4.761   8.390
48445SOL    HW247233   5.638   4.762   8.510
48446SOL     OW47234   3.730  14.143   2.782
48446SOL    HW147235   3.812  14.193   2.786
48446SOL    HW247236   3.701  14.150   2.691
48447SOL     OW47237  10.093   1.640   1.557
48447SOL    HW147238  10.052   1.591   1.628
48447SOL    HW247239  10.158   1.579   1.521
48448SOL     OW47240   1.493  13.988   1.421
48448SOL    HW147241   1.405  14.027   1.423
48448SOL    HW247242   1.538  14.036   1.352
48449SOL     OW47243   6.443   5.933   2.251
48449SOL    HW147244   6.474   5.865   2.311
48449SOL    HW247245   6.361   5.964   2.289
48450SOL     OW47246  11.376  10.854   4.419
48450SOL    HW147247  11.302  10.796   4.405
48450SOL    HW247248  11.446  10.797   4.452
48451SOL     OW47249   1.948  14.840   3.700
48451SOL    HW147250   1.994  14.767   3.657
48451SOL    HW247251   1.952   0.036   3.636
48452SOL     OW47252   3.917   0.041  12.570
48452SOL    HW147253   3.851   0.068  12.634
48452SOL    HW247254   3.940  14.826  12.596
48453SOL     OW47255  14.140   5.238   6.513
48453SOL    HW147256  14.190   5.306   6.558
48453SOL    HW247257  14.181   5.156   6.538
48454SOL     OW47258   7.610  13.588   0.332
48454SOL    HW147259   7.612  13.637   0.250
48454SOL    HW247260   7.520  13.596   0.363
48455SOL     OW47261   6.800   5.943   6.981
48455SOL    HW147262   6.723   5.908   6.936
48455SOL    HW247263   6.848   5.989   6.912
48456SOL     OW47264  12.190   1.979   1.826
48456SOL    HW147265  12.121   2.038   1.795
48456SOL    HW247266  12.162   1.954   1.914
48457SOL     OW47267  13.651  11.413   9.748
48457SOL    HW147268  13.604  11.335   9.777
48457SOL    HW247269  13.715  11.381   9.685
48458SOL     OW47270   1.856   3.584   3.635
48458SOL    HW147271   1.842   3.660   3.579
48458SOL    HW247272   1.948   3.561   3.622
48459SOL     OW47273  13.053   8.851   4.514
48459SOL    HW147274  13.091   8.939   4.518
48459SOL    HW247275  13.033   8.838   4.421
48460SOL     OW47276  14.136   8.609   5.929
48460SOL    HW147277  14.141   8.572   5.840
48460SOL    HW247278  14.226   8.635   5.949
48461SOL     OW47279   3.333   3.532  10.686
48461SOL    HW147280   3.255   3.547  10.633
48461SOL    HW247281   3.406   3.541  10.624
48462SOL     OW47282   1.895  11.201  13.919
48462SOL    HW147283   1.960  11.229  13.983
48462SOL    HW247284   1.844  11.134  13.964
48463SOL     OW47285   4.631   0.561  12.337
48463SOL    HW147286   4.539   0.564  12.363
48463SOL    HW247287   4.635   0.487  12.275
48464SOL     OW47288   6.360   6.113   7.803
48464SOL    HW147289   6.323   6.179   7.744
48464SOL    HW247290   6.444   6.091   7.764
48465SOL     OW47291   1.333   2.881   3.586
48465SOL    HW147292   1.376   2.830   3.655
48465SOL    HW247293   1.406   2.918   3.535
48466SOL     OW47294   0.728   5.582   1.041
48466SOL    HW147295   0.701   5.660   0.993
48466SOL    HW247296   0.813   5.606   1.079
48467SOL     OW47297  12.518   7.273   7.855
48467SOL    HW147298  12.534   7.213   7.782
48467SOL    HW247299  12.596   7.266   7.910
48468SOL     OW47300   4.739   5.238   9.912
48468SOL    HW147301   4.832   5.219   9.896
48468SOL    HW247302   4.736   5.272  10.001
48469SOL     OW47303   8.413   7.850   6.969
48469SOL    HW147304   8.485   7.861   6.907
48469SOL    HW247305   8.444   7.783   7.030
48470SOL     OW47306  14.050  14.817   5.737
48470SOL    HW147307  14.006  14.737   5.709
48470SOL    HW247308  14.036   0.003   5.664
48471SOL     OW47309   4.809  12.740   7.519
48471SOL    HW147310   4.771  12.779   7.598
48471SOL    HW247311   4.733  12.708   7.470
48472SOL     OW47312  10.909  11.306   5.336
48472SOL    HW147313  10.816  11.309   5.360
48472SOL    HW247314  10.955  11.317   5.419
48473SOL     OW47315   4.219   2.127   6.074
48473SOL    HW147316   4.238   2.138   6.167
48473SOL    HW247317   4.177   2.209   6.048
48474SOL     OW47318   5.032   4.464  14.153
48474SOL    HW147319   4.993   4.512  14.080
48474SOL    HW247320   5.126   4.465  14.135
48475SOL     OW47321  10.518  11.324  13.579
48475SOL    HW147322  10.569  11.403  13.598
48475SOL    HW247323  10.576  11.251  13.602
48476SOL     OW47324   9.390   4.620   0.228
48476SOL    HW147325   9.454   4.667   0.175
48476SOL    HW247326   9.353   4.554   0.169
48477SOL     OW47327   6.356   0.737   4.265
48477SOL    HW147328   6.304   0.796   4.211
48477SOL    HW247329   6.294   0.700   4.328
48478SOL     OW47330   2.971   4.897  12.503
48478SOL    HW147331   2.934   4.980  12.533
48478SOL    HW247332   2.894   4.842  12.485
48479SOL     OW47333   6.483   3.456  11.092
48479SOL    HW147334   6.418   3.513  11.050
48479SOL    HW247335   6.567   3.484  11.056
48480SOL     OW47336   2.072  10.244   4.708
48480SOL    HW147337   2.050  10.298   4.784
48480SOL    HW247338   2.153  10.201   4.732
48481SOL     OW47339   9.482  11.554   5.148
48481SOL    HW147340   9.536  11.537   5.225
48481SOL    HW247341   9.544  11.589   5.083
48482SOL     OW47342   1.252   0.131   3.241
48482SOL    HW147343   1.195   0.160   3.170
48482SOL    HW247344   1.263   0.037   3.227
48483SOL     OW47345  10.276   8.068   0.452
48483SOL    HW147346  10.315   8.031   0.531
48483SOL    HW247347  10.317   8.154   0.442
48484SOL     OW47348   2.471  11.347  12.282
48484SOL    HW147349   2.480  11.290  12.206
48484SOL    HW247350   2.560  11.379  12.299
48485SOL     OW47351   7.411   4.527  11.855
48485SOL    HW147352   7.374   4.546  11.941
48485SOL    HW247353   7.499   4.494  11.873
48486SOL     OW47354   3.933   6.144  11.531
48486SOL    HW147355   3.861   6.207  11.539
48486SOL    HW247356   3.967   6.159  11.443
48487SOL     OW47357  14.754   1.693   3.189
48487SOL    HW147358  14.754   1.621   3.126
48487SOL    HW247359  14.705   1.659   3.264
48488SOL     OW47360  14.676   7.482  11.088
48488SOL    HW147361  14.676   7.387  11.078
48488SOL    HW247362  14.606   7.500  11.151
48489SOL     OW47363  14.348   1.385   7.285
48489SOL    HW147364  14.351   1.316   7.352
48489SOL    HW247365  14.409   1.355   7.218
48490SOL     OW47366   4.931  13.968   0.324
48490SOL    HW147367   4.937  14.041   0.263
48490SOL    HW247368   4.846  13.928   0.305
48491SOL     OW47369   5.477   6.024  10.074
48491SOL    HW147370   5.475   6.079   9.995
48491SOL    HW247371   5.389   6.029  10.110
48492SOL     OW47372   3.887   1.743   1.955
48492SOL    HW147373   3.877   1.806   2.025
48492SOL    HW247374   3.965   1.693   1.978
48493SOL     OW47375   2.456   3.769   8.887
48493SOL    HW147376   2.444   3.846   8.831
48493SOL    HW247377   2.534   3.726   8.851
48494SOL     OW47378   3.362   1.310   4.195
48494SOL    HW147379   3.440   1.355   4.226
48494SOL    HW247380   3.293   1.376   4.198
48495SOL     OW47381   5.493  10.534   1.788
48495SOL    HW147382   5.407  10.492   1.797
48495SOL    HW247383   5.521  10.551   1.878
48496SOL     OW47384   1.890   7.449   8.914
48496SOL    HW147385   1.974   7.424   8.877
48496SOL    HW247386   1.888   7.545   8.909
48497SOL     OW47387   6.602  13.463   8.464
48497SOL    HW147388   6.656  13.508   8.398
48497SOL    HW247389   6.582  13.378   8.424
48498SOL     OW47390   4.061   8.583  12.130
48498SOL    HW147391   3.987   8.615  12.079
48498SOL    HW247392   4.080   8.497  12.093
48499SOL     OW47393  11.698  12.840  10.226
48499SOL    HW147394  11.648  12.921  10.225
48499SOL    HW247395  11.789  12.868  10.213
48500SOL     OW47396   1.269  14.340  12.610
48500SOL    HW147397   1.275  14.251  12.644
48500SOL    HW247398   1.349  14.352  12.559
48501SOL     OW47399   5.257  13.747  11.665
48501SOL    HW147400   5.255  13.802  11.743
48501SOL    HW247401   5.331  13.688  11.678
48502SOL     OW47402   9.281  13.179   0.027
48502SOL    HW147403   9.327  13.149  14.824
48502SOL    HW247404   9.266  13.272   0.012
48503SOL     OW47405   3.481   2.354   4.729
48503SOL    HW147406   3.439   2.339   4.814
48503SOL    HW247407   3.427   2.307   4.666
48504SOL     OW47408   0.278   4.666  12.301
48504SOL    HW147409   0.294   4.679  12.395
48504SOL    HW247410   0.320   4.741  12.259
48505SOL     OW47411  12.355   8.540   3.956
48505SOL    HW147412  12.396   8.524   4.041
48505SOL    HW247413  12.263   8.516   3.968
48506SOL     OW47414   3.956   7.093   9.011
48506SOL    HW147415   3.891   7.023   9.006
48506SOL    HW247416   3.919   7.164   8.958
48507SOL     OW47417  13.209  14.429   6.935
48507SOL    HW147418  13.162  14.386   6.863
48507SOL    HW247419  13.282  14.473   6.893
48508SOL     OW47420   3.091  14.778   5.458
48508SOL    HW147421   3.059  14.693   5.490
48508SOL    HW247422   3.186  14.769   5.458
48509SOL     OW47423   8.370   6.802   5.775
48509SOL    HW147424   8.433   6.790   5.846
48509SOL    HW247425   8.381   6.723   5.721
48510SOL     OW47426   0.347  10.601   8.134
48510SOL    HW147427   0.253  10.583   8.141
48510SOL    HW247428   0.364  10.604   8.039
48511SOL     OW47429   9.312   2.194  12.958
48511SOL    HW147430   9.274   2.106  12.958
48511SOL    HW247431   9.304   2.223  13.049
48512SOL     OW47432   9.258   6.822   8.290
48512SOL    HW147433   9.268   6.805   8.196
48512SOL    HW247434   9.331   6.775   8.330
48513SOL     OW47435  14.311   1.728   2.316
48513SOL    HW147436  14.243   1.794   2.327
48513SOL    HW247437  14.388   1.777   2.288
48514SOL     OW47438  14.457   6.803   7.633
48514SOL    HW147439  14.401   6.730   7.608
48514SOL    HW247440  14.405   6.854   7.695
48515SOL     OW47441  10.535   5.489   8.439
48515SOL    HW147442  10.454   5.440   8.430
48515SOL    HW247443  10.523   5.566   8.384
48516SOL     OW47444   9.218   6.590   0.876
48516SOL    HW147445   9.126   6.570   0.895
48516SOL    HW247446   9.218   6.618   0.785
48517SOL     OW47447  10.419   3.286  11.039
48517SOL    HW147448  10.326   3.280  11.016
48517SOL    HW247449  10.454   3.351  10.978
48518SOL     OW47450   0.907   7.242   1.270
48518SOL    HW147451   0.903   7.303   1.344
48518SOL    HW247452   1.000   7.220   1.263
48519SOL     OW47453   0.168   8.665   8.242
48519SOL    HW147454   0.131   8.661   8.154
48519SOL    HW247455   0.100   8.705   8.295
48520SOL     OW47456   6.044  10.152  12.096
48520SOL    HW147457   6.079  10.102  12.170
48520SOL    HW247458   6.121  10.178  12.046
48521SOL     OW47459  10.863   5.321  12.525
48521SOL    HW147460  10.939   5.374  12.500
48521SOL    HW247461  10.899   5.252  12.580
48522SOL     OW47462   9.179   7.483  12.681
48522SOL    HW147463   9.136   7.469  12.596
48522SOL    HW247464   9.248   7.546  12.662
48523SOL     OW47465   9.317   2.529  14.675
48523SOL    HW147466   9.313   2.623  14.691
48523SOL    HW247467   9.381   2.496  14.738
48524SOL     OW47468  11.059  12.283  10.951
48524SOL    HW147469  11.072  12.227  11.028
48524SOL    HW247470  11.081  12.371  10.982
48525SOL     OW47471   7.241  14.167   6.880
48525SOL    HW147472   7.248  14.145   6.973
48525SOL    HW247473   7.150  14.195   6.870
48526SOL     OW47474   1.062   9.459   2.215
48526SOL    HW147475   1.110   9.377   2.224
48526SOL    HW247476   0.982   9.445   2.265
48527SOL     OW47477   1.424  12.755   1.150
48527SOL    HW147478   1.386  12.817   1.087
48527SOL    HW247479   1.427  12.803   1.233
48528SOL     OW47480   7.374   7.563   9.417
48528SOL    HW147481   7.419   7.627   9.472
48528SOL    HW247482   7.287   7.600   9.403
48529SOL     OW47483  14.379  11.836   0.946
48529SOL    HW147484  14.460  11.885   0.958
48529SOL    HW247485  14.405  11.761   0.892
48530SOL     OW47486   7.576   4.450  12.489
48530SOL    HW147487   7.595   4.536  12.453
48530SOL    HW247488   7.607   4.389  12.422
48531SOL     OW47489  13.935   2.875  13.095
48531SOL    HW147490  13.845   2.899  13.075
48531SOL    HW247491  13.938   2.872  13.191
48532SOL     OW47492   6.078   2.687   8.410
48532SOL    HW147493   6.089   2.594   8.428
48532SOL    HW247494   6.167   2.719   8.393
48533SOL     OW47495   9.840   5.249   6.407
48533SOL    HW147496   9.757   5.207   6.430
48533SOL    HW247497   9.829   5.340   6.437
48534SOL     OW47498   4.968   0.911   3.333
48534SOL    HW147499   5.007   0.846   3.275
48534SOL    HW247500   5.017   0.991   3.316
48535SOL     OW47501   9.160  12.991   9.988
48535SOL    HW147502   9.083  12.951  10.029
48535SOL    HW247503   9.234  12.964  10.043
48536SOL     OW47504   5.906   3.412   4.661
48536SOL    HW147505   5.900   3.325   4.622
48536SOL    HW247506   5.901   3.472   4.586
48537SOL     OW47507  10.759   0.609   9.383
48537SOL    HW147508  10.798   0.665   9.450
48537SOL    HW247509  10.674   0.585   9.418
48538SOL     OW47510   1.234   6.772  12.044
48538SOL    HW147511   1.213   6.757  12.136
48538SOL    HW247512   1.246   6.867  12.037
48539SOL     OW47513  13.157  13.424   4.394
48539SOL    HW147514  13.087  13.469   4.346
48539SOL    HW247515  13.187  13.356   4.334
48540SOL     OW47516   0.842  12.817  10.610
48540SOL    HW147517   0.770  12.853  10.661
48540SOL    HW247518   0.920  12.862  10.643
48541SOL     OW47519  12.080   1.754   6.352
48541SOL    HW147520  12.045   1.718   6.271
48541SOL    HW247521  12.009   1.809   6.386
48542SOL     OW47522   7.769  12.326   7.630
48542SOL    HW147523   7.804  12.304   7.544
48542SOL    HW247524   7.840  12.307   7.690
48543SOL     OW47525   3.947   5.341   0.628
48543SOL    HW147526   3.853   5.359   0.631
48543SOL    HW247527   3.958   5.266   0.686
48544SOL     OW47528   4.880   9.053  14.618
48544SOL    HW147529   4.862   9.026  14.708
48544SOL    HW247530   4.949   9.120  14.627
48545SOL     OW47531   5.552   9.216   8.787
48545SOL    HW147532   5.646   9.230   8.772
48545SOL    HW247533   5.535   9.255   8.873
48546SOL     OW47534   0.747  10.567  11.816
48546SOL    HW147535   0.839  10.543  11.834
48546SOL    HW247536   0.703  10.555  11.900
48547SOL     OW47537   9.371   9.661   6.173
48547SOL    HW147538   9.429   9.727   6.211
48547SOL    HW247539   9.291   9.666   6.226
48548SOL     OW47540  12.386   5.483   3.186
48548SOL    HW147541  12.349   5.429   3.116
48548SOL    HW247542  12.480   5.483   3.168
48549SOL     OW47543  13.542   9.360   6.529
48549SOL    HW147544  13.487   9.428   6.489
48549SOL    HW247545  13.505   9.348   6.617
48550SOL     OW47546   3.051  12.616   4.919
48550SOL    HW147547   3.021  12.626   4.828
48550SOL    HW247548   3.047  12.704   4.955
48551SOL     OW47549   3.240   0.463  12.689
48551SOL    HW147550   3.150   0.456  12.656
48551SOL    HW247551   3.285   0.519  12.626
48552SOL     OW47552   2.931   4.953  14.029
48552SOL    HW147553   2.848   4.913  14.055
48552SOL    HW247554   2.938   5.030  14.085
48553SOL     OW47555   9.180   2.448   5.240
48553SOL    HW147556   9.166   2.359   5.271
48553SOL    HW247557   9.093   2.480   5.217
48554SOL     OW47558   8.020   7.534  12.322
48554SOL    HW147559   8.038   7.501  12.234
48554SOL    HW247560   8.038   7.628  12.316
48555SOL     OW47561   7.244  14.448   4.823
48555SOL    HW147562   7.161  14.491   4.841
48555SOL    HW247563   7.289  14.506   4.761
48556SOL     OW47564   1.994  13.753  12.306
48556SOL    HW147565   1.965  13.663  12.318
48556SOL    HW247566   1.932  13.806  12.356
48557SOL     OW47567  14.016   4.588   2.871
48557SOL    HW147568  14.081   4.612   2.938
48557SOL    HW247569  14.069   4.563   2.795
48558SOL     OW47570   1.241  14.496   9.900
48558SOL    HW147571   1.181  14.570   9.906
48558SOL    HW247572   1.284  14.506   9.815
48559SOL     OW47573   4.962   6.595   7.465
48559SOL    HW147574   4.914   6.575   7.545
48559SOL    HW247575   5.043   6.636   7.494
48560SOL     OW47576  13.275   1.859  12.804
48560SOL    HW147577  13.238   1.940  12.838
48560SOL    HW247578  13.212   1.791  12.829
48561SOL     OW47579  12.123  13.388   0.643
48561SOL    HW147580  12.032  13.395   0.613
48561SOL    HW247581  12.116  13.373   0.737
48562SOL     OW47582  14.126  14.658   5.098
48562SOL    HW147583  14.151  14.638   5.188
48562SOL    HW247584  14.168  14.742   5.080
48563SOL     OW47585   6.565  13.547  13.235
48563SOL    HW147586   6.599  13.465  13.270
48563SOL    HW247587   6.523  13.589  13.310
48564SOL     OW47588   4.050   9.925   3.170
48564SOL    HW147589   4.078  10.007   3.129
48564SOL    HW247590   4.029   9.868   3.096
48565SOL     OW47591  14.562   9.141  10.275
48565SOL    HW147592  14.537   9.073  10.338
48565SOL    HW247593  14.509   9.217  10.298
48566SOL     OW47594   3.490   6.229   6.882
48566SOL    HW147595   3.429   6.260   6.948
48566SOL    HW247596   3.493   6.300   6.817
48567SOL     OW47597   2.909   2.673  10.815
48567SOL    HW147598   2.834   2.641  10.763
48567SOL    HW247599   2.962   2.595  10.830
48568SOL     OW47600   0.820  11.168   4.592
48568SOL    HW147601   0.754  11.134   4.652
48568SOL    HW247602   0.811  11.263   4.599
48569SOL     OW47603   1.824   2.779   9.795
48569SOL    HW147604   1.745   2.726   9.798
48569SOL    HW247605   1.793   2.869   9.798
48570SOL     OW47606  11.865   1.588   1.446
48570SOL    HW147607  11.866   1.579   1.351
48570SOL    HW247608  11.881   1.500   1.480
48571SOL     OW47609   0.071   4.642   6.631
48571SOL    HW147610   0.111   4.563   6.666
48571SOL    HW247611   0.144   4.691   6.593
48572SOL     OW47612   4.627   0.201   1.648
48572SOL    HW147613   4.590   0.185   1.735
48572SOL    HW247614   4.671   0.285   1.655
48573SOL     OW47615   0.562   8.084   4.572
48573SOL    HW147616   0.497   8.153   4.582
48573SOL    HW247617   0.625   8.099   4.642
48574SOL     OW47618  12.149  12.729   1.280
48574SOL    HW147619  12.214  12.771   1.223
48574SOL    HW247620  12.156  12.636   1.261
48575SOL     OW47621  14.678   5.905   9.889
48575SOL    HW147622  14.753   5.957   9.861
48575SOL    HW247623  14.717   5.838   9.946
48576SOL     OW47624   5.640   8.737   5.745
48576SOL    HW147625   5.735   8.733   5.744
48576SOL    HW247626   5.619   8.823   5.707
48577SOL     OW47627   0.937   9.294  11.207
48577SOL    HW147628   1.020   9.275  11.252
48577SOL    HW247629   0.943   9.247  11.124
48578SOL     OW47630  10.947   9.976   3.519
48578SOL    HW147631  10.974  10.061   3.483
48578SOL    HW247632  10.950   9.989   3.614
48579SOL     OW47633   7.282  11.117  12.545
48579SOL    HW147634   7.317  11.091  12.460
48579SOL    HW247635   7.213  11.180  12.525
48580SOL     OW47636   2.918  14.458  13.915
48580SOL    HW147637   2.858  14.529  13.939
48580SOL    HW247638   2.900  14.442  13.822
48581SOL     OW47639   7.736  10.115   6.668
48581SOL    HW147640   7.774  10.180   6.728
48581SOL    HW247641   7.739  10.158   6.583
48582SOL     OW47642   2.714   5.292   4.852
48582SOL    HW147643   2.804   5.301   4.819
48582SOL    HW247644   2.713   5.206   4.894
48583SOL     OW47645  12.929  10.959   0.229
48583SOL    HW147646  12.869  11.022   0.190
48583SOL    HW247647  13.016  10.988   0.202
48584SOL     OW47648   4.557  13.654  14.308
48584SOL    HW147649   4.525  13.731  14.355
48584SOL    HW247650   4.643  13.681  14.275
48585SOL     OW47651   4.721   2.660   5.808
48585SOL    HW147652   4.708   2.605   5.885
48585SOL    HW247653   4.809   2.639   5.777
48586SOL     OW47654   7.433   8.037   9.030
48586SOL    HW147655   7.435   8.097   9.105
48586SOL    HW247656   7.501   7.973   9.049
48587SOL     OW47657   6.653   9.204  11.733
48587SOL    HW147658   6.655   9.118  11.775
48587SOL    HW247659   6.573   9.245  11.765
48588SOL     OW47660   4.724   7.192  14.370
48588SOL    HW147661   4.757   7.273  14.334
48588SOL    HW247662   4.792   7.127  14.351
48589SOL     OW47663   3.434   0.298   1.892
48589SOL    HW147664   3.450   0.355   1.967
48589SOL    HW247665   3.508   0.315   1.833
48590SOL     OW47666   5.443  13.981   4.150
48590SOL    HW147667   5.422  13.898   4.107
48590SOL    HW247668   5.431  13.964   4.243
48591SOL     OW47669  10.220   5.585   2.804
48591SOL    HW147670  10.128   5.597   2.829
48591SOL    HW247671  10.230   5.638   2.725
48592SOL     OW47672   6.049   4.162   0.908
48592SOL    HW147673   6.127   4.178   0.855
48592SOL    HW247674   5.976   4.179   0.849
48593SOL     OW47675   9.803   4.925   8.091
48593SOL    HW147676   9.785   5.019   8.092
48593SOL    HW247677   9.716   4.884   8.083
48594SOL     OW47678   7.627  11.455   5.164
48594SOL    HW147679   7.651  11.545   5.139
48594SOL    HW247680   7.552  11.434   5.108
48595SOL     OW47681   1.933  14.385  14.252
48595SOL    HW147682   1.967  14.377  14.341
48595SOL    HW247683   1.864  14.319  14.246
48596SOL     OW47684   2.003   6.112  13.465
48596SOL    HW147685   1.982   6.019  13.475
48596SOL    HW247686   1.937   6.157  13.519
48597SOL     OW47687   9.628   6.276  11.336
48597SOL    HW147688   9.608   6.245  11.248
48597SOL    HW247689   9.565   6.230  11.392
48598SOL     OW47690   4.982   0.667   5.731
48598SOL    HW147691   4.995   0.573   5.742
48598SOL    HW247692   5.065   0.706   5.760
48599SOL     OW47693  13.963  10.826  11.381
48599SOL    HW147694  13.901  10.876  11.327
48599SOL    HW247695  14.042  10.879  11.381
48600SOL     OW47696   5.528   9.068  10.385
48600SOL    HW147697   5.485   9.030  10.308
48600SOL    HW247698   5.611   9.102  10.351
48601SOL     OW47699   8.596   4.296   7.766
48601SOL    HW147700   8.523   4.354   7.790
48601SOL    HW247701   8.597   4.296   7.671
48602SOL     OW47702  14.084   7.110  14.351
48602SOL    HW147703  14.055   7.190  14.307
48602SOL    HW247704  14.120   7.056  14.281
48603SOL     OW47705   9.215  10.999   4.301
48603SOL    HW147706   9.160  10.940   4.352
48603SOL    HW247707   9.300  10.955   4.297
48604SOL     OW47708   3.379   3.885   9.830
48604SOL    HW147709   3.387   3.978   9.810
48604SOL    HW247710   3.439   3.842   9.768
48605SOL     OW47711  11.124   5.331  13.374
48605SOL    HW147712  11.176   5.392  13.322
48605SOL    HW247713  11.187   5.291  13.434
48606SOL     OW47714   6.765  10.195   5.537
48606SOL    HW147715   6.757  10.203   5.442
48606SOL    HW247716   6.733  10.106   5.556
48607SOL     OW47717   9.126  12.341  11.184
48607SOL    HW147718   9.051  12.392  11.156
48607SOL    HW247719   9.138  12.275  11.115
48608SOL     OW47720   5.470   4.835   5.825
48608SOL    HW147721   5.439   4.866   5.741
48608SOL    HW247722   5.465   4.911   5.883
48609SOL     OW47723   3.497   3.584   6.146
48609SOL    HW147724   3.533   3.620   6.066
48609SOL    HW247725   3.554   3.510   6.168
48610SOL     OW47726   9.522  10.910   6.839
48610SOL    HW147727   9.481  10.906   6.926
48610SOL    HW247728   9.548  11.001   6.829
48611SOL     OW47729  10.244   6.478   1.094
48611SOL    HW147730  10.181   6.479   1.166
48611SOL    HW247731  10.206   6.418   1.029
48612SOL     OW47732   1.511   7.980  14.561
48612SOL    HW147733   1.573   8.035  14.609
48612SOL    HW247734   1.453   7.945  14.629
48613SOL     OW47735   2.480   5.773  10.219
48613SOL    HW147736   2.448   5.746  10.305
48613SOL    HW247737   2.548   5.708  10.198
48614SOL     OW47738   9.927   5.013   7.670
48614SOL    HW147739  10.015   5.042   7.696
48614SOL    HW247740   9.943   4.950   7.600
48615SOL     OW47741  14.130  13.535   0.733
48615SOL    HW147742  14.098  13.557   0.821
48615SOL    HW247743  14.175  13.615   0.705
48616SOL     OW47744   5.452  11.025   3.116
48616SOL    HW147745   5.450  11.118   3.140
48616SOL    HW247746   5.432  10.978   3.196
48617SOL     OW47747  11.440  10.281  10.039
48617SOL    HW147748  11.528  10.310  10.061
48617SOL    HW247749  11.453  10.213   9.973
48618SOL     OW47750   6.265   2.780   0.067
48618SOL    HW147751   6.180   2.788   0.024
48618SOL    HW247752   6.277   2.862   0.114
48619SOL     OW47753   9.857   5.212  10.149
48619SOL    HW147754   9.809   5.196  10.067
48619SOL    HW247755   9.805   5.166  10.215
48620SOL     OW47756   4.625  10.613   5.908
48620SOL    HW147757   4.627  10.692   5.854
48620SOL    HW247758   4.561  10.633   5.977
48621SOL     OW47759   9.386   9.647   0.501
48621SOL    HW147760   9.355   9.610   0.419
48621SOL    HW247761   9.479   9.664   0.487
48622SOL     OW47762  14.685   5.576   7.564
48622SOL    HW147763  14.704   5.616   7.479
48622SOL    HW247764  14.607   5.522   7.547
48623SOL     OW47765   0.701   0.501  12.208
48623SOL    HW147766   0.650   0.420  12.213
48623SOL    HW247767   0.635   0.571  12.216
48624SOL     OW47768  12.197   7.876  14.855
48624SOL    HW147769  12.203   7.966   0.012
48624SOL    HW247770  12.106   7.867  14.827
48625SOL     OW47771  14.437   6.148   4.051
48625SOL    HW147772  14.513   6.160   3.994
48625SOL    HW247773  14.474   6.145   4.139
48626SOL     OW47774   6.022   7.307   9.481
48626SOL    HW147775   6.001   7.273   9.568
48626SOL    HW247776   6.086   7.377   9.498
48627SOL     OW47777   0.228   8.795   4.661
48627SOL    HW147778   0.205   8.819   4.571
48627SOL    HW247779   0.294   8.859   4.686
48628SOL     OW47780   0.326   2.114   0.027
48628SOL    HW147781   0.373   2.148  14.826
48628SOL    HW247782   0.300   2.026   0.001
48629SOL     OW47783   0.789  10.633  10.592
48629SOL    HW147784   0.720  10.566  10.596
48629SOL    HW247785   0.861  10.590  10.546
48630SOL     OW47786   3.449   4.506   7.596
48630SOL    HW147787   3.389   4.544   7.532
48630SOL    HW247788   3.405   4.426   7.626
48631SOL     OW47789  12.499   7.038   1.252
48631SOL    HW147790  12.582   7.014   1.210
48631SOL    HW247791  12.432   7.003   1.193
48632SOL     OW47792   5.568   4.346   2.956
48632SOL    HW147793   5.634   4.296   3.005
48632SOL    HW247794   5.612   4.368   2.873
48633SOL     OW47795   8.334  14.616  12.214
48633SOL    HW147796   8.314  14.617  12.120
48633SOL    HW247797   8.386  14.537  12.227
48634SOL     OW47798   9.409   2.924   9.344
48634SOL    HW147799   9.335   2.917   9.284
48634SOL    HW247800   9.377   2.980   9.415
48635SOL     OW47801   8.028   6.458   5.094
48635SOL    HW147802   8.108   6.487   5.050
48635SOL    HW247803   8.057   6.437   5.183
48636SOL     OW47804  13.970  13.318   8.922
48636SOL    HW147805  13.894  13.261   8.921
48636SOL    HW247806  14.008  13.306   9.009
48637SOL     OW47807   0.778   6.845   2.674
48637SOL    HW147808   0.701   6.863   2.728
48637SOL    HW247809   0.830   6.925   2.679
48638SOL     OW47810   5.598  11.833  11.200
48638SOL    HW147811   5.673  11.875  11.243
48638SOL    HW247812   5.523  11.859  11.253
48639SOL     OW47813   2.732   6.097   2.356
48639SOL    HW147814   2.711   6.103   2.263
48639SOL    HW247815   2.730   6.187   2.387
48640SOL     OW47816   1.951  13.850   7.873
48640SOL    HW147817   1.966  13.792   7.947
48640SOL    HW247818   1.860  13.879   7.883
48641SOL     OW47819   2.080  11.645   5.734
48641SOL    HW147820   2.088  11.585   5.660
48641SOL    HW247821   1.989  11.674   5.733
48642SOL     OW47822   8.422  10.298   3.990
48642SOL    HW147823   8.474  10.366   3.946
48642SOL    HW247824   8.452  10.300   4.081
48643SOL     OW47825  10.490  12.653   1.236
48643SOL    HW147826  10.472  12.602   1.315
48643SOL    HW247827  10.414  12.636   1.180
48644SOL     OW47828   3.831   8.398   3.052
48644SOL    HW147829   3.901   8.453   3.089
48644SOL    HW247830   3.867   8.310   3.053
48645SOL     OW47831  12.663   9.160   7.889
48645SOL    HW147832  12.605   9.088   7.865
48645SOL    HW247833  12.718   9.123   7.958
48646SOL     OW47834  13.973  13.273  14.749
48646SOL    HW147835  14.015  13.269  14.663
48646SOL    HW247836  14.044  13.257  14.811
48647SOL     OW47837  10.712   0.213   8.679
48647SOL    HW147838  10.681   0.279   8.741
48647SOL    HW247839  10.807   0.208   8.696
48648SOL     OW47840  14.404   6.069   3.107
48648SOL    HW147841  14.336   6.119   3.062
48648SOL    HW247842  14.397   6.095   3.198
48649SOL     OW47843   2.225   3.329   7.108
48649SOL    HW147844   2.213   3.424   7.107
48649SOL    HW247845   2.204   3.301   7.019
48650SOL     OW47846   3.650   0.987  14.806
48650SOL    HW147847   3.635   0.971   0.024
48650SOL    HW247848   3.727   1.044  14.803
48651SOL     OW47849   2.343   7.672   3.494
48651SOL    HW147850   2.375   7.664   3.584
48651SOL    HW247851   2.311   7.584   3.472
48652SOL     OW47852   1.241   3.778   5.160
48652SOL    HW147853   1.229   3.718   5.087
48652SOL    HW247854   1.333   3.769   5.184
48653SOL     OW47855   8.590   9.017   3.932
48653SOL    HW147856   8.528   8.958   3.890
48653SOL    HW247857   8.536   9.077   3.983
48654SOL     OW47858   8.709   0.615   4.623
48654SOL    HW147859   8.677   0.628   4.712
48654SOL    HW247860   8.793   0.662   4.620
48655SOL     OW47861   4.724  10.364   3.483
48655SOL    HW147862   4.811  10.402   3.468
48655SOL    HW247863   4.672  10.396   3.410
48656SOL     OW47864   0.015  12.853   4.071
48656SOL    HW147865  14.847  12.936   4.050
48656SOL    HW247866  14.831  12.811   4.133
48657SOL     OW47867   6.880   7.946   6.323
48657SOL    HW147868   6.860   8.028   6.279
48657SOL    HW247869   6.847   7.878   6.264
48658SOL     OW47870   2.234   7.560  10.088
48658SOL    HW147871   2.173   7.538  10.159
48658SOL    HW247872   2.184   7.542  10.008
48659SOL     OW47873   1.764  14.845   6.923
48659SOL    HW147874   1.758  14.750   6.913
48659SOL    HW247875   1.701  14.867   6.991
48660SOL     OW47876   7.507   8.429   9.798
48660SOL    HW147877   7.511   8.515   9.756
48660SOL    HW247878   7.538   8.368   9.731
48661SOL     OW47879   4.315  11.709  11.887
48661SOL    HW147880   4.345  11.651  11.958
48661SOL    HW247881   4.389  11.711  11.826
48662SOL     OW47882   5.937  12.008   4.397
48662SOL    HW147883   6.023  11.970   4.414
48662SOL    HW247884   5.949  12.102   4.407
48663SOL     OW47885  11.933   2.740   9.183
48663SOL    HW147886  11.899   2.795   9.253
48663SOL    HW247887  12.021   2.717   9.211
48664SOL     OW47888  11.690   8.476  12.521
48664SOL    HW147889  11.598   8.448  12.516
48664SOL    HW247890  11.728   8.423  12.591
48665SOL     OW47891  12.210   0.346   5.228
48665SOL    HW147892  12.244   0.332   5.140
48665SOL    HW247893  12.226   0.264   5.273
48666SOL     OW47894   6.819   6.856   0.709
48666SOL    HW147895   6.764   6.779   0.696
48666SOL    HW247896   6.851   6.848   0.799
48667SOL     OW47897   2.801   4.543  11.368
48667SOL    HW147898   2.784   4.480  11.297
48667SOL    HW247899   2.721   4.541  11.421
48668SOL     OW47900   8.678  14.709  14.051
48668SOL    HW147901   8.767  14.712  14.016
48668SOL    HW247902   8.621  14.707  13.974
48669SOL     OW47903   7.670   3.561   3.896
48669SOL    HW147904   7.679   3.545   3.990
48669SOL    HW247905   7.670   3.474   3.857
48670SOL     OW47906  10.999  14.288   7.005
48670SOL    HW147907  11.088  14.297   7.041
48670SOL    HW247908  10.990  14.363   6.946
48671SOL     OW47909   3.037  14.781  11.837
48671SOL    HW147910   3.079  14.865  11.857
48671SOL    HW247911   3.104  14.732  11.789
48672SOL     OW47912  12.367   4.548   9.974
48672SOL    HW147913  12.324   4.594   9.902
48672SOL    HW247914  12.313   4.567  10.051
48673SOL     OW47915   9.035   9.108   8.214
48673SOL    HW147916   8.969   9.136   8.276
48673SOL    HW247917   8.998   9.128   8.128
48674SOL     OW47918   3.421  11.207  10.359
48674SOL    HW147919   3.348  11.163  10.403
48674SOL    HW247920   3.381  11.282  10.314
48675SOL     OW47921   5.377   0.568   2.273
48675SOL    HW147922   5.461   0.522   2.275
48675SOL    HW247923   5.350   0.573   2.364
48676SOL     OW47924  10.335   4.161   8.363
48676SOL    HW147925  10.342   4.215   8.441
48676SOL    HW247926  10.244   4.133   8.361
48677SOL     OW47927  12.099   6.696   3.335
48677SOL    HW147928  12.032   6.714   3.269
48677SOL    HW247929  12.182   6.708   3.290
48678SOL     OW47930   3.121  13.267   9.594
48678SOL    HW147931   3.106  13.362   9.587
48678SOL    HW247932   3.118  13.236   9.504
48679SOL     OW47933   0.489   6.973   6.138
48679SOL    HW147934   0.411   7.021   6.165
48679SOL    HW247935   0.491   6.896   6.195
48680SOL     OW47936   5.449   3.102  12.701
48680SOL    HW147937   5.510   3.169  12.669
48680SOL    HW247938   5.480   3.021  12.661
48681SOL     OW47939   3.771   6.193  11.232
48681SOL    HW147940   3.864   6.213  11.234
48681SOL    HW247941   3.766   6.097  11.227
48682SOL     OW47942  11.450   7.488  10.988
48682SOL    HW147943  11.433   7.580  11.011
48682SOL    HW247944  11.546   7.483  10.980
48683SOL     OW47945  10.976   2.102   1.847
48683SOL    HW147946  10.916   2.029   1.860
48683SOL    HW247947  11.040   2.094   1.917
48684SOL     OW47948   9.541   9.621   7.899
48684SOL    HW147949   9.474   9.639   7.965
48684SOL    HW247950   9.560   9.707   7.860
48685SOL     OW47951  13.603  14.272   0.579
48685SOL    HW147952  13.653  14.350   0.604
48685SOL    HW247953  13.530  14.306   0.528
48686SOL     OW47954   5.836   3.049   8.194
48686SOL    HW147955   5.858   3.102   8.117
48686SOL    HW247956   5.909   3.062   8.254
48687SOL     OW47957   8.179   9.742  14.601
48687SOL    HW147958   8.236   9.686  14.652
48687SOL    HW247959   8.130   9.792  14.666
48688SOL     OW47960  12.210  14.639   0.501
48688SOL    HW147961  12.133  14.584   0.490
48688SOL    HW247962  12.221  14.682   0.417
48689SOL     OW47963   6.273  12.826   1.979
48689SOL    HW147964   6.311  12.889   2.040
48689SOL    HW247965   6.323  12.837   1.899
48690SOL     OW47966  11.272  11.539   4.175
48690SOL    HW147967  11.239  11.449   4.182
48690SOL    HW247968  11.353  11.530   4.123
48691SOL     OW47969  11.251   9.154   7.455
48691SOL    HW147970  11.190   9.125   7.388
48691SOL    HW247971  11.320   9.088   7.456
48692SOL     OW47972   1.625  10.221  12.697
48692SOL    HW147973   1.646  10.268  12.616
48692SOL    HW247974   1.631  10.287  12.766
48693SOL     OW47975   7.956  13.187   7.578
48693SOL    HW147976   8.019  13.199   7.649
48693SOL    HW247977   7.887  13.132   7.615
48694SOL     OW47978   0.214   5.370   2.754
48694SOL    HW147979   0.152   5.302   2.728
48694SOL    HW247980   0.234   5.351   2.846
48695SOL     OW47981  14.798   6.924   3.179
48695SOL    HW147982   0.011   6.894   3.155
48695SOL    HW247983  14.739   6.872   3.124
48696SOL     OW47984   8.777   1.614  13.605
48696SOL    HW147985   8.840   1.682  13.627
48696SOL    HW247986   8.697   1.662  13.584
48697SOL     OW47987   6.592   5.881   9.276
48697SOL    HW147988   6.606   5.801   9.328
48697SOL    HW247989   6.506   5.912   9.302
48698SOL     OW47990   3.048  12.378   2.186
48698SOL    HW147991   2.973  12.395   2.243
48698SOL    HW247992   3.113  12.443   2.212
48699SOL     OW47993   8.883   3.670  13.699
48699SOL    HW147994   8.898   3.640  13.789
48699SOL    HW247995   8.950   3.736  13.684
48700SOL     OW47996   0.029  11.785  10.742
48700SOL    HW147997  14.843  11.847  10.781
48700SOL    HW247998   0.110  11.835  10.733
48701SOL     OW47999  14.349  12.497   9.253
48701SOL    HW148000  14.314  12.518   9.166
48701SOL    HW248001  14.310  12.563   9.310
48702SOL     OW48002   3.264   0.036  14.056
48702SOL    HW148003   3.344   0.016  14.105
48702SOL    HW248004   3.279  14.872  13.970
48703SOL     OW48005   3.361   5.765   7.635
48703SOL    HW148006   3.389   5.856   7.650
48703SOL    HW248007   3.410   5.737   7.558
48704SOL     OW48008  11.984  10.169  13.920
48704SOL    HW148009  11.923  10.179  13.847
48704SOL    HW248010  12.031  10.087  13.901
48705SOL     OW48011   0.511  10.854   8.220
48705SOL    HW148012   0.460  10.776   8.198
48705SOL    HW248013   0.557  10.830   8.301
48706SOL     OW48014   3.246   9.522   1.949
48706SOL    HW148015   3.308   9.457   1.916
48706SOL    HW248016   3.300   9.583   2.000
48707SOL     OW48017  13.912   4.353   5.594
48707SOL    HW148018  13.868   4.271   5.571
48707SOL    HW248019  13.889   4.413   5.523
48708SOL     OW48020  10.796  11.229  13.224
48708SOL    HW148021  10.782  11.290  13.297
48708SOL    HW248022  10.766  11.277  13.147
48709SOL     OW48023  12.180  11.325  11.917
48709SOL    HW148024  12.117  11.260  11.886
48709SOL    HW248025  12.179  11.316  12.013
48710SOL     OW48026   0.507   6.493  10.651
48710SOL    HW148027   0.431   6.491  10.593
48710SOL    HW248028   0.472   6.466  10.736
48711SOL     OW48029   3.856   8.229   9.376
48711SOL    HW148030   3.792   8.223   9.448
48711SOL    HW248031   3.940   8.243   9.421
48712SOL     OW48032  13.730   1.604   3.914
48712SOL    HW148033  13.766   1.535   3.857
48712SOL    HW248034  13.775   1.684   3.886
48713SOL     OW48035   8.778  10.916   3.946
48713SOL    HW148036   8.700  10.924   3.890
48713SOL    HW248037   8.828  10.995   3.929
48714SOL     OW48038   0.674   9.085  11.858
48714SOL    HW148039   0.663   9.131  11.775
48714SOL    HW248040   0.746   9.024  11.842
48715SOL     OW48041   3.773   2.168  13.599
48715SOL    HW148042   3.781   2.133  13.511
48715SOL    HW248043   3.839   2.122  13.650
48716SOL     OW48044   4.815   5.779  10.869
48716SOL    HW148045   4.770   5.802  10.788
48716SOL    HW248046   4.747   5.740  10.924
48717SOL     OW48047   3.224   1.356  11.081
48717SOL    HW148048   3.255   1.426  11.139
48717SOL    HW248049   3.278   1.364  11.002
48718SOL     OW48050   3.020  12.377   9.612
48718SOL    HW148051   3.015  12.406   9.521
48718SOL    HW248052   2.935  12.402   9.650
48719SOL     OW48053   6.086   1.968  13.901
48719SOL    HW148054   6.030   1.891  13.895
48719SOL    HW248055   6.032   2.033  13.947
48720SOL     OW48056   8.523   4.804  13.950
48720SOL    HW148057   8.508   4.892  13.917
48720SOL    HW248058   8.614   4.804  13.980
48721SOL     OW48059   1.952   2.309  11.955
48721SOL    HW148060   1.905   2.343  12.031
48721SOL    HW248061   1.929   2.370  11.884
48722SOL     OW48062   6.917   6.397   6.068
48722SOL    HW148063   6.934   6.318   6.016
48722SOL    HW248064   6.875   6.457   6.007
48723SOL     OW48065   5.937   6.742  12.525
48723SOL    HW148066   5.915   6.652  12.551
48723SOL    HW248067   6.008   6.732  12.462
48724SOL     OW48068   8.455  12.332   0.184
48724SOL    HW148069   8.533  12.387   0.174
48724SOL    HW248070   8.477  12.250   0.140
48725SOL     OW48071  10.402  14.594  14.458
48725SOL    HW148072  10.417  14.499  14.459
48725SOL    HW248073  10.309  14.604  14.477
48726SOL     OW48074   8.603   3.948  12.877
48726SOL    HW148075   8.600   3.939  12.782
48726SOL    HW248076   8.515   3.926  12.907
48727SOL     OW48077  13.726   3.848  12.245
48727SOL    HW148078  13.791   3.853  12.315
48727SOL    HW248079  13.777   3.836  12.165
48728SOL     OW48080   7.094  13.131   0.430
48728SOL    HW148081   7.106  13.223   0.454
48728SOL    HW248082   7.058  13.134   0.342
48729SOL     OW48083  13.252  13.804   6.122
48729SOL    HW148084  13.213  13.891   6.133
48729SOL    HW248085  13.247  13.788   6.028
48730SOL     OW48086  14.415  13.110   1.945
48730SOL    HW148087  14.382  13.096   1.856
48730SOL    HW248088  14.343  13.153   1.991
48731SOL     OW48089   3.323   4.667   9.435
48731SOL    HW148090   3.400   4.627   9.394
48731SOL    HW248091   3.314   4.751   9.392
48732SOL     OW48092   2.813  11.172   0.227
48732SOL    HW148093   2.832  11.252   0.275
48732SOL    HW248094   2.777  11.113   0.292
48733SOL     OW48095  12.075   0.896   6.550
48733SOL    HW148096  12.163   0.906   6.588
48733SOL    HW248097  12.091   0.859   6.463
48734SOL     OW48098   3.397   3.363   9.296
48734SOL    HW148099   3.391   3.272   9.268
48734SOL    HW248100   3.318   3.404   9.261
48735SOL     OW48101  14.528  12.210   2.576
48735SOL    HW148102  14.580  12.140   2.535
48735SOL    HW248103  14.587  12.249   2.640
48736SOL     OW48104   0.618  11.069   4.731
48736SOL    HW148105   0.611  10.995   4.792
48736SOL    HW248106   0.576  11.038   4.651
48737SOL     OW48107   2.629   6.109  13.233
48737SOL    HW148108   2.674   6.109  13.148
48737SOL    HW248109   2.546   6.153  13.217
48738SOL     OW48110  12.360   0.020  13.498
48738SOL    HW148111  12.439   0.075  13.499
48738SOL    HW248112  12.348  14.874  13.406
48739SOL     OW48113   4.577  14.108   0.854
48739SOL    HW148114   4.603  14.182   0.909
48739SOL    HW248115   4.651  14.048   0.857
48740SOL     OW48116  14.709  14.134  14.165
48740SOL    HW148117  14.763  14.099  14.094
48740SOL    HW248118  14.625  14.090  14.155
48741SOL     OW48119  14.550  11.543   7.137
48741SOL    HW148120  14.615  11.475   7.154
48741SOL    HW248121  14.554  11.557   7.042
48742SOL     OW48122  13.450   7.492  11.844
48742SOL    HW148123  13.507   7.509  11.919
48742SOL    HW248124  13.379   7.556  11.854
48743SOL     OW48125  11.147  11.756   0.121
48743SOL    HW148126  11.142  11.829   0.060
48743SOL    HW248127  11.153  11.678   0.066
48744SOL     OW48128  12.953  12.418   1.822
48744SOL    HW148129  12.933  12.420   1.916
48744SOL    HW248130  13.033  12.366   1.815
48745SOL     OW48131  13.768   2.750   0.734
48745SOL    HW148132  13.773   2.717   0.644
48745SOL    HW248133  13.769   2.845   0.724
48746SOL     OW48134   3.196   3.968  14.740
48746SOL    HW148135   3.178   3.878  14.714
48746SOL    HW248136   3.248   4.004  14.669
48747SOL     OW48137   9.826   2.999  12.772
48747SOL    HW148138   9.803   2.994  12.679
48747SOL    HW248139   9.745   2.976  12.818
48748SOL     OW48140  12.089   1.701   6.870
48748SOL    HW148141  12.015   1.683   6.812
48748SOL    HW248142  12.121   1.787   6.842
48749SOL     OW48143   3.088   9.300  11.510
48749SOL    HW148144   3.072   9.307  11.416
48749SOL    HW248145   3.004   9.272  11.546
48750SOL     OW48146  11.813   4.841   1.066
48750SOL    HW148147  11.834   4.748   1.074
48750SOL    HW248148  11.866   4.870   0.991
48751SOL     OW48149   6.685  10.430   1.944
48751SOL    HW148150   6.751  10.469   1.887
48751SOL    HW248151   6.635  10.504   1.978
48752SOL     OW48152  10.064   7.058   8.893
48752SOL    HW148153  10.015   7.117   8.836
48752SOL    HW248154  10.072   6.977   8.843
48753SOL     OW48155  11.020   4.111   7.308
48753SOL    HW148156  10.999   4.180   7.245
48753SOL    HW248157  10.962   4.129   7.383
48754SOL     OW48158   2.904  10.104   6.538
48754SOL    HW148159   2.964  10.149   6.599
48754SOL    HW248160   2.950  10.104   6.455
48755SOL     OW48161   4.223   8.011   2.088
48755SOL    HW148162   4.164   8.058   2.147
48755SOL    HW248163   4.197   8.040   2.001
48756SOL     OW48164   2.520   6.021   2.973
48756SOL    HW148165   2.586   6.081   2.938
48756SOL    HW248166   2.527   6.032   3.068
48757SOL     OW48167   9.652  12.393   3.968
48757SOL    HW148168   9.738  12.405   3.928
48757SOL    HW248169   9.670  12.380   4.061
48758SOL     OW48170  10.576   1.033   1.103
48758SOL    HW148171  10.610   1.011   1.190
48758SOL    HW248172  10.485   1.004   1.105
48759SOL     OW48173  12.892   5.179   1.513
48759SOL    HW148174  12.852   5.092   1.519
48759SOL    HW248175  12.904   5.206   1.604
48760SOL     OW48176  12.796  12.297  13.143
48760SOL    HW148177  12.810  12.392  13.149
48760SOL    HW248178  12.870  12.259  13.189
48761SOL     OW48179   2.424   8.095  14.363
48761SOL    HW148180   2.454   8.005  14.375
48761SOL    HW248181   2.335   8.086  14.330
48762SOL     OW48182   3.529  14.723  11.310
48762SOL    HW148183   3.579  14.712  11.391
48762SOL    HW248184   3.565  14.802  11.271
48763SOL     OW48185   3.918  12.476   4.192
48763SOL    HW148186   3.974  12.411   4.150
48763SOL    HW248187   3.856  12.425   4.243
48764SOL     OW48188   5.742  12.124   4.551
48764SOL    HW148189   5.798  12.064   4.502
48764SOL    HW248190   5.723  12.195   4.489
48765SOL     OW48191   0.827   1.736   6.080
48765SOL    HW148192   0.773   1.664   6.046
48765SOL    HW248193   0.813   1.735   6.174
48766SOL     OW48194  10.409   5.993   4.559
48766SOL    HW148195  10.456   5.918   4.595
48766SOL    HW248196  10.393   6.050   4.634
48767SOL     OW48197   7.502  12.437   8.977
48767SOL    HW148198   7.508  12.438   8.882
48767SOL    HW248199   7.493  12.529   9.002
48768SOL     OW48200   7.042   2.073   9.230
48768SOL    HW148201   7.038   2.146   9.291
48768SOL    HW248202   7.014   1.997   9.282
48769SOL     OW48203   7.678   1.927   2.798
48769SOL    HW148204   7.677   1.968   2.712
48769SOL    HW248205   7.755   1.870   2.796
48770SOL     OW48206   1.527   6.149   6.535
48770SOL    HW148207   1.552   6.196   6.455
48770SOL    HW248208   1.448   6.100   6.510
48771SOL     OW48209   6.440   5.745   4.709
48771SOL    HW148210   6.503   5.760   4.638
48771SOL    HW248211   6.429   5.650   4.712
48772SOL     OW48212   2.344  13.139   1.700
48772SOL    HW148213   2.319  13.062   1.752
48772SOL    HW248214   2.414  13.109   1.643
48773SOL     OW48215   8.516   4.682  10.660
48773SOL    HW148216   8.481   4.643  10.579
48773SOL    HW248217   8.438   4.702  10.712
48774SOL     OW48218   3.248   2.669  14.087
48774SOL    HW148219   3.277   2.668  14.179
48774SOL    HW248220   3.232   2.577  14.066
48775SOL     OW48221   1.336   7.363   2.951
48775SOL    HW148222   1.254   7.343   2.998
48775SOL    HW248223   1.354   7.284   2.900
48776SOL     OW48224  11.715   8.936  10.056
48776SOL    HW148225  11.698   8.843  10.070
48776SOL    HW248226  11.808   8.940  10.036
48777SOL     OW48227   4.808   7.029  13.631
48777SOL    HW148228   4.802   6.969  13.705
48777SOL    HW248229   4.878   7.090  13.655
48778SOL     OW48230   4.351   9.248   6.825
48778SOL    HW148231   4.346   9.338   6.792
48778SOL    HW248232   4.400   9.254   6.906
48779SOL     OW48233  13.566  13.668   7.516
48779SOL    HW148234  13.649  13.659   7.468
48779SOL    HW248235  13.572  13.754   7.558
48780SOL     OW48236   7.841  11.987  13.637
48780SOL    HW148237   7.877  11.971  13.550
48780SOL    HW248238   7.869  11.912  13.689
48781SOL     OW48239   7.944  14.363  13.095
48781SOL    HW148240   7.961  14.280  13.140
48781SOL    HW248241   7.848  14.369  13.092
48782SOL     OW48242  10.162   5.589  10.387
48782SOL    HW148243  10.082   5.595  10.335
48782SOL    HW248244  10.226   5.641  10.338
48783SOL     OW48245  13.572   8.510  14.415
48783SOL    HW148246  13.592   8.420  14.442
48783SOL    HW248247  13.489   8.530  14.457
48784SOL     OW48248   5.749   6.772   0.770
48784SOL    HW148249   5.841   6.769   0.795
48784SOL    HW248250   5.702   6.770   0.853
48785SOL     OW48251  12.046   1.531   4.341
48785SOL    HW148252  11.956   1.565   4.346
48785SOL    HW248253  12.100   1.610   4.337
48786SOL     OW48254  12.334   5.396   9.743
48786SOL    HW148255  12.339   5.453   9.819
48786SOL    HW248256  12.425   5.382   9.716
48787SOL     OW48257  11.134  11.447   6.002
48787SOL    HW148258  11.195  11.389   6.047
48787SOL    HW248259  11.187  11.523   5.978
48788SOL     OW48260  11.152   1.945  12.051
48788SOL    HW148261  11.079   1.954  12.112
48788SOL    HW248262  11.211   2.018  12.073
48789SOL     OW48263  12.169   1.891   1.368
48789SOL    HW148264  12.182   1.967   1.425
48789SOL    HW248265  12.221   1.822   1.408
48790SOL     OW48266  10.667   0.549   3.785
48790SOL    HW148267  10.667   0.453   3.785
48790SOL    HW248268  10.739   0.573   3.843
48791SOL     OW48269   5.522  12.823  14.312
48791SOL    HW148270   5.504  12.736  14.346
48791SOL    HW248271   5.587  12.809  14.243
48792SOL     OW48272   4.915  13.503   3.419
48792SOL    HW148273   4.900  13.468   3.331
48792SOL    HW248274   4.869  13.587   3.419
48793SOL     OW48275   3.625   3.955  12.611
48793SOL    HW148276   3.596   3.987  12.696
48793SOL    HW248277   3.659   3.868  12.628
48794SOL     OW48278   7.854   8.452   7.408
48794SOL    HW148279   7.885   8.389   7.473
48794SOL    HW248280   7.874   8.411   7.324
48795SOL     OW48281   4.360  14.496   5.559
48795SOL    HW148282   4.280  14.521   5.604
48795SOL    HW248283   4.400  14.429   5.616
48796SOL     OW48284  13.518  12.449   2.256
48796SOL    HW148285  13.435  12.490   2.282
48796SOL    HW248286  13.495  12.358   2.237
48797SOL     OW48287   1.550  10.353   4.530
48797SOL    HW148288   1.494  10.308   4.594
48797SOL    HW248289   1.527  10.312   4.446
48798SOL     OW48290   8.986   1.663   5.905
48798SOL    HW148291   9.014   1.572   5.900
48798SOL    HW248292   8.904   1.666   5.857
48799SOL     OW48293   9.861   5.597   0.601
48799SOL    HW148294   9.941   5.603   0.653
48799SOL    HW248295   9.888   5.618   0.512
48800SOL     OW48296   0.668   5.238  11.926
48800SOL    HW148297   0.737   5.247  11.859
48800SOL    HW248298   0.601   5.184  11.884
48801SOL     OW48299  12.892  12.127  12.804
48801SOL    HW148300  12.819  12.183  12.829
48801SOL    HW248301  12.894  12.132  12.708
48802SOL     OW48302   9.778  14.135   5.666
48802SOL    HW148303   9.794  14.074   5.594
48802SOL    HW248304   9.688  14.165   5.654
48803SOL     OW48305   9.006   7.406   5.735
48803SOL    HW148306   9.024   7.487   5.687
48803SOL    HW248307   9.080   7.397   5.795
48804SOL     OW48308   0.919   8.752   7.160
48804SOL    HW148309   0.852   8.807   7.119
48804SOL    HW248310   0.903   8.760   7.254
48805SOL     OW48311   0.861   9.107  11.565
48805SOL    HW148312   0.817   9.025  11.540
48805SOL    HW248313   0.790   9.170  11.574
48806SOL     OW48314   0.121  10.864   1.906
48806SOL    HW148315   0.158  10.908   1.983
48806SOL    HW248316   0.074  10.933   1.860
48807SOL     OW48317  10.086  13.330   7.737
48807SOL    HW148318  10.010  13.363   7.784
48807SOL    HW248319  10.073  13.359   7.647
48808SOL     OW48320   8.201  14.686   2.559
48808SOL    HW148321   8.192  14.597   2.592
48808SOL    HW248322   8.251  14.732   2.627
48809SOL     OW48323   2.190  14.735  12.010
48809SOL    HW148324   2.101  14.723  11.977
48809SOL    HW248325   2.182  14.722  12.105
48810SOL     OW48326   8.668   5.509   8.615
48810SOL    HW148327   8.601   5.474   8.673
48810SOL    HW248328   8.744   5.525   8.671
48811SOL     OW48329   2.393   9.488   5.077
48811SOL    HW148330   2.319   9.462   5.022
48811SOL    HW248331   2.470   9.451   5.032
48812SOL     OW48332   3.066   3.645  12.089
48812SOL    HW148333   3.118   3.725  12.084
48812SOL    HW248334   2.975   3.675  12.085
48813SOL     OW48335   9.718   4.650   1.593
48813SOL    HW148336   9.704   4.718   1.659
48813SOL    HW248337   9.812   4.654   1.574
48814SOL     OW48338   2.819   6.457   4.983
48814SOL    HW148339   2.855   6.473   5.070
48814SOL    HW248340   2.885   6.491   4.923
48815SOL     OW48341   4.838  12.671   6.835
48815SOL    HW148342   4.925  12.637   6.815
48815SOL    HW248343   4.783  12.642   6.762
48816SOL     OW48344   3.314   3.243  10.535
48816SOL    HW148345   3.232   3.289  10.556
48816SOL    HW248346   3.350   3.292  10.461
48817SOL     OW48347   2.974   9.000  13.918
48817SOL    HW148348   2.901   9.028  13.974
48817SOL    HW248349   3.040   8.969  13.979
48818SOL     OW48350   2.151   4.810   9.311
48818SOL    HW148351   2.193   4.877   9.364
48818SOL    HW248352   2.159   4.841   9.221
48819SOL     OW48353   6.244   5.820   3.016
48819SOL    HW148354   6.175   5.884   3.034
48819SOL    HW248355   6.200   5.735   3.023
48820SOL     OW48356   8.917   5.785   4.481
48820SOL    HW148357   8.837   5.770   4.430
48820SOL    HW248358   8.899   5.863   4.533
48821SOL     OW48359   2.914   0.813  12.816
48821SOL    HW148360   2.941   0.721  12.806
48821SOL    HW248361   2.895   0.842  12.727
48822SOL     OW48362   2.713  11.190  10.587
48822SOL    HW148363   2.764  11.109  10.579
48822SOL    HW248364   2.764  11.245  10.647
48823SOL     OW48365  14.049  14.867   1.158
48823SOL    HW148366  14.002   0.068   1.123
48823SOL    HW248367  14.021  14.863   1.250
48824SOL     OW48368   2.218   7.718   1.140
48824SOL    HW148369   2.150   7.742   1.203
48824SOL    HW248370   2.185   7.639   1.098
48825SOL     OW48371  12.539  14.332   3.558
48825SOL    HW148372  12.625  14.372   3.550
48825SOL    HW248373  12.556  14.243   3.587
48826SOL     OW48374   1.953   9.199   8.796
48826SOL    HW148375   1.962   9.107   8.818
48826SOL    HW248376   2.006   9.245   8.861
48827SOL     OW48377   3.609  10.251   7.592
48827SOL    HW148378   3.571  10.280   7.674
48827SOL    HW248379   3.578  10.314   7.527
48828SOL     OW48380   1.968  14.186   7.454
48828SOL    HW148381   2.034  14.156   7.392
48828SOL    HW248382   1.987  14.139   7.535
48829SOL     OW48383   1.661   4.248  11.547
48829SOL    HW148384   1.626   4.328  11.587
48829SOL    HW248385   1.742   4.231  11.596
48830SOL     OW48386  11.504   4.237   5.510
48830SOL    HW148387  11.537   4.148   5.517
48830SOL    HW248388  11.570   4.291   5.553
48831SOL     OW48389   0.991  13.672  11.195
48831SOL    HW148390   1.077  13.633  11.214
48831SOL    HW248391   0.929  13.600  11.207
48832SOL     OW48392   3.449  13.279   6.937
48832SOL    HW148393   3.490  13.282   7.024
48832SOL    HW248394   3.378  13.342   6.942
48833SOL     OW48395   4.715   9.705   4.405
48833SOL    HW148396   4.792   9.757   4.431
48833SOL    HW248397   4.641   9.754   4.440
48834SOL     OW48398   2.775  13.812   3.841
48834SOL    HW148399   2.848  13.854   3.885
48834SOL    HW248400   2.711  13.797   3.910
48835SOL     OW48401   3.202   3.469  11.168
48835SOL    HW148402   3.199   3.481  11.073
48835SOL    HW248403   3.283   3.513  11.195
48836SOL     OW48404   9.266   9.239   8.224
48836SOL    HW148405   9.185   9.195   8.197
48836SOL    HW248406   9.250   9.265   8.315
48837SOL     OW48407   0.407   3.263   4.871
48837SOL    HW148408   0.361   3.265   4.787
48837SOL    HW248409   0.358   3.201   4.924
48838SOL     OW48410   9.308   3.634   7.247
48838SOL    HW148411   9.221   3.617   7.210
48838SOL    HW248412   9.324   3.727   7.227
48839SOL     OW48413  10.941   4.258   6.287
48839SOL    HW148414  10.973   4.303   6.208
48839SOL    HW248415  10.891   4.325   6.334
48840SOL     OW48416  10.171   6.776   1.578
48840SOL    HW148417  10.231   6.782   1.504
48840SOL    HW248418  10.088   6.812   1.545
48841SOL     OW48419   5.892   7.955   7.995
48841SOL    HW148420   5.883   7.997   7.909
48841SOL    HW248421   5.833   7.879   7.991
48842SOL     OW48422   4.103  12.848   3.996
48842SOL    HW148423   4.132  12.812   4.080
48842SOL    HW248424   4.028  12.903   4.019
48843SOL     OW48425   0.336   0.576   2.909
48843SOL    HW148426   0.364   0.535   2.991
48843SOL    HW248427   0.305   0.503   2.855
48844SOL     OW48428   6.889  11.860   7.640
48844SOL    HW148429   6.850  11.777   7.612
48844SOL    HW248430   6.817  11.923   7.635
48845SOL     OW48431   8.585  13.457  11.865
48845SOL    HW148432   8.514  13.398  11.837
48845SOL    HW248433   8.580  13.531  11.805
48846SOL     OW48434   8.972   6.515   0.852
48846SOL    HW148435   8.927   6.433   0.872
48846SOL    HW248436   8.904   6.581   0.854
48847SOL     OW48437  14.680   1.382  11.455
48847SOL    HW148438  14.632   1.396  11.373
48847SOL    HW248439  14.758   1.333  11.429
48848SOL     OW48440  12.848   4.778   9.122
48848SOL    HW148441  12.904   4.785   9.045
48848SOL    HW248442  12.776   4.722   9.095
48849SOL     OW48443  10.322   5.874   9.537
48849SOL    HW148444  10.288   5.942   9.478
48849SOL    HW248445  10.353   5.805   9.478
48850SOL     OW48446  11.846   8.937   9.772
48850SOL    HW148447  11.922   8.990   9.748
48850SOL    HW248448  11.776   8.968   9.715
48851SOL     OW48449   5.302  14.550  10.055
48851SOL    HW148450   5.305  14.455  10.062
48851SOL    HW248451   5.212  14.573  10.079
48852SOL     OW48452   6.870   0.806  11.315
48852SOL    HW148453   6.869   0.775  11.225
48852SOL    HW248454   6.784   0.847  11.327
48853SOL     OW48455   4.598   8.128  11.185
48853SOL    HW148456   4.644   8.102  11.265
48853SOL    HW248457   4.512   8.157  11.214
48854SOL     OW48458   4.498   3.767  12.861
48854SOL    HW148459   4.552   3.846  12.869
48854SOL    HW248460   4.534   3.707  12.926
48855SOL     OW48461  13.500   2.774   1.352
48855SOL    HW148462  13.485   2.807   1.264
48855SOL    HW248463  13.529   2.850   1.402
48856SOL     OW48464   1.912  13.243  14.471
48856SOL    HW148465   1.848  13.314  14.481
48856SOL    HW248466   1.931  13.240  14.378
48857SOL     OW48467   5.230  13.865  10.435
48857SOL    HW148468   5.159  13.852  10.372
48857SOL    HW248469   5.236  13.782  10.481
48858SOL     OW48470   7.226  12.745   8.879
48858SOL    HW148471   7.177  12.663   8.881
48858SOL    HW248472   7.299  12.731   8.938
48859SOL     OW48473  13.041  10.711   4.489
48859SOL    HW148474  12.986  10.634   4.478
48859SOL    HW248475  13.108  10.703   4.422
48860SOL     OW48476   6.549   8.619  14.292
48860SOL    HW148477   6.610   8.652  14.358
48860SOL    HW248478   6.595   8.548  14.249
48861SOL     OW48479  13.481   9.914   9.828
48861SOL    HW148480  13.536   9.841   9.799
48861SOL    HW248481  13.462   9.962   9.747
48862SOL     OW48482   9.888   4.818   7.118
48862SOL    HW148483   9.952   4.764   7.164
48862SOL    HW248484   9.804   4.799   7.161
48863SOL     OW48485   5.903  12.561   5.737
48863SOL    HW148486   5.814  12.529   5.755
48863SOL    HW248487   5.889  12.647   5.698
48864SOL     OW48488   2.067   1.140   9.771
48864SOL    HW148489   1.988   1.153   9.823
48864SOL    HW248490   2.079   1.222   9.723
48865SOL     OW48491   1.767  10.601  14.708
48865SOL    HW148492   1.793  10.534  14.645
48865SOL    HW248493   1.679  10.575  14.736
48866SOL     OW48494   7.465  14.679  11.293
48866SOL    HW148495   7.396  14.687  11.227
48866SOL    HW248496   7.503  14.766  11.297
48867SOL     OW48497   3.200   4.833   3.381
48867SOL    HW148498   3.280   4.859   3.426
48867SOL    HW248499   3.176   4.909   3.328
48868SOL     OW48500   7.167  13.242  10.804
48868SOL    HW148501   7.136  13.211  10.718
48868SOL    HW248502   7.216  13.169  10.839
48869SOL     OW48503   8.901  12.779   0.990
48869SOL    HW148504   8.942  12.695   0.968
48869SOL    HW248505   8.807  12.763   0.981
48870SOL     OW48506   5.895   5.866   4.090
48870SOL    HW148507   5.957   5.794   4.078
48870SOL    HW248508   5.828   5.831   4.148
48871SOL     OW48509   6.809   6.051   8.767
48871SOL    HW148510   6.881   5.991   8.788
48871SOL    HW248511   6.800   6.105   8.845
48872SOL     OW48512   0.653   6.481   1.454
48872SOL    HW148513   0.726   6.453   1.509
48872SOL    HW248514   0.582   6.422   1.477
48873SOL     OW48515   5.400  14.506   1.183
48873SOL    HW148516   5.334  14.457   1.135
48873SOL    HW248517   5.481  14.456   1.172
48874SOL     OW48518   7.368  10.626   3.386
48874SOL    HW148519   7.417  10.554   3.346
48874SOL    HW248520   7.281  10.621   3.347
48875SOL     OW48521  10.452  10.109  13.754
48875SOL    HW148522  10.447  10.126  13.848
48875SOL    HW248523  10.538  10.141  13.728
48876SOL     OW48524   1.007   2.435   3.528
48876SOL    HW148525   1.078   2.494   3.503
48876SOL    HW248526   1.051   2.359   3.566
48877SOL     OW48527   6.637   3.404   3.957
48877SOL    HW148528   6.721   3.371   3.987
48877SOL    HW248529   6.574   3.375   4.022
48878SOL     OW48530   7.373   1.759   1.636
48878SOL    HW148531   7.279   1.741   1.634
48878SOL    HW248532   7.403   1.745   1.546
48879SOL     OW48533   4.458   2.741  11.174
48879SOL    HW148534   4.470   2.827  11.216
48879SOL    HW248535   4.380   2.751  11.120
48880SOL     OW48536  10.653   4.809   0.453
48880SOL    HW148537  10.673   4.722   0.417
48880SOL    HW248538  10.689   4.870   0.389
48881SOL     OW48539   6.384   1.977  11.576
48881SOL    HW148540   6.390   2.072  11.578
48881SOL    HW248541   6.431   1.948  11.654
48882SOL     OW48542  11.036  14.369  10.764
48882SOL    HW148543  11.075  14.379  10.677
48882SOL    HW248544  11.105  14.394  10.825
48883SOL     OW48545   2.951   1.920   3.869
48883SOL    HW148546   2.879   1.956   3.920
48883SOL    HW248547   3.029   1.937   3.923
48884SOL     OW48548   9.755   8.153   0.925
48884SOL    HW148549   9.714   8.066   0.918
48884SOL    HW248550   9.819   8.155   0.855
48885SOL     OW48551  11.575  11.217   0.795
48885SOL    HW148552  11.552  11.235   0.886
48885SOL    HW248553  11.491  11.215   0.749
48886SOL     OW48554  14.533   4.859   6.211
48886SOL    HW148555  14.542   4.905   6.294
48886SOL    HW248556  14.612   4.881   6.162
48887SOL     OW48557   7.796  13.596   4.707
48887SOL    HW148558   7.843  13.608   4.624
48887SOL    HW248559   7.704  13.595   4.682
48888SOL     OW48560   6.940   4.200   0.312
48888SOL    HW148561   6.935   4.240   0.399
48888SOL    HW248562   6.851   4.169   0.294
48889SOL     OW48563   3.203   6.539  10.264
48889SOL    HW148564   3.111   6.565  10.253
48889SOL    HW248565   3.244   6.612  10.308
48890SOL     OW48566   1.716  14.002   7.822
48890SOL    HW148567   1.711  13.944   7.746
48890SOL    HW248568   1.711  14.090   7.785
48891SOL     OW48569  14.149   8.333  14.106
48891SOL    HW148570  14.090   8.407  14.089
48891SOL    HW248571  14.175   8.344  14.197
48892SOL     OW48572   4.130   0.209   3.307
48892SOL    HW148573   4.225   0.218   3.293
48892SOL    HW248574   4.109   0.125   3.268
48893SOL     OW48575  13.079  12.598  10.656
48893SOL    HW148576  13.015  12.538  10.695
48893SOL    HW248577  13.163  12.556  10.671
48894SOL     OW48578   5.822   8.774  14.354
48894SOL    HW148579   5.761   8.756  14.283
48894SOL    HW248580   5.909   8.769  14.314
48895SOL     OW48581   3.633   0.413   5.861
48895SOL    HW148582   3.565   0.410   5.928
48895SOL    HW248583   3.588   0.394   5.779
48896SOL     OW48584   9.273   8.618   7.757
48896SOL    HW148585   9.257   8.698   7.706
48896SOL    HW248586   9.266   8.548   7.692
48897SOL     OW48587  12.124   3.800  13.192
48897SOL    HW148588  12.162   3.732  13.248
48897SOL    HW248589  12.151   3.777  13.104
48898SOL     OW48590   7.769  10.773   9.764
48898SOL    HW148591   7.822  10.852   9.763
48898SOL    HW248592   7.759  10.750   9.671
48899SOL     OW48593  13.524  11.389   1.440
48899SOL    HW148594  13.553  11.423   1.356
48899SOL    HW248595  13.593  11.415   1.502
48900SOL     OW48596   9.095   9.638   6.291
48900SOL    HW148597   9.048   9.556   6.306
48900SOL    HW248598   9.034   9.691   6.240
48901SOL     OW48599   6.141  14.033   7.996
48901SOL    HW148600   6.118  14.106   7.938
48901SOL    HW248601   6.074  13.967   7.980
48902SOL     OW48602   3.853   5.910   4.566
48902SOL    HW148603   3.882   5.833   4.615
48902SOL    HW248604   3.901   5.904   4.483
48903SOL     OW48605   8.215   4.259  10.007
48903SOL    HW148606   8.121   4.272  10.006
48903SOL    HW248607   8.227   4.165  10.020
48904SOL     OW48608   7.524   6.677  14.582
48904SOL    HW148609   7.500   6.685  14.674
48904SOL    HW248610   7.461   6.616  14.545
48905SOL     OW48611   3.118  11.636   9.965
48905SOL    HW148612   3.196  11.685   9.940
48905SOL    HW248613   3.074  11.691  10.030
48906SOL     OW48614   6.629   2.521   5.083
48906SOL    HW148615   6.570   2.593   5.105
48906SOL    HW248616   6.606   2.496   4.994
48907SOL     OW48617   7.219   8.292   2.599
48907SOL    HW148618   7.193   8.304   2.691
48907SOL    HW248619   7.161   8.223   2.567
48908SOL     OW48620   3.649   1.784  10.747
48908SOL    HW148621   3.734   1.812  10.782
48908SOL    HW248622   3.626   1.851  10.683
48909SOL     OW48623   9.076   4.944   5.698
48909SOL    HW148624   9.015   4.907   5.763
48909SOL    HW248625   9.143   4.987   5.750
48910SOL     OW48626  12.619   9.248  12.964
48910SOL    HW148627  12.651   9.328  13.006
48910SOL    HW248628  12.532   9.272  12.931
48911SOL     OW48629   6.532   7.583   5.859
48911SOL    HW148630   6.570   7.512   5.808
48911SOL    HW248631   6.490   7.639   5.794
48912SOL     OW48632  13.083  12.265   3.708
48912SOL    HW148633  13.078  12.266   3.613
48912SOL    HW248634  13.094  12.357   3.732
48913SOL     OW48635  10.261   5.206   9.493
48913SOL    HW148636  10.180   5.227   9.446
48913SOL    HW248637  10.232   5.152   9.567
48914SOL     OW48638   6.267   2.216  13.215
48914SOL    HW148639   6.268   2.182  13.304
48914SOL    HW248640   6.190   2.176  13.175
48915SOL     OW48641   8.300   0.696  10.320
48915SOL    HW148642   8.217   0.722  10.280
48915SOL    HW248643   8.360   0.768  10.300
48916SOL     OW48644  11.413   0.610  10.266
48916SOL    HW148645  11.460   0.614  10.183
48916SOL    HW248646  11.481   0.600  10.333
48917SOL     OW48647  12.269   7.359   5.066
48917SOL    HW148648  12.302   7.449   5.055
48917SOL    HW248649  12.231   7.337   4.981
48918SOL     OW48650   6.955  13.243   1.579
48918SOL    HW148651   6.903  13.179   1.529
48918SOL    HW248652   6.929  13.328   1.543
48919SOL     OW48653   4.598  14.278  10.863
48919SOL    HW148654   4.578  14.301  10.954
48919SOL    HW248655   4.682  14.320  10.845
48920SOL     OW48656   3.327  14.537   0.525
48920SOL    HW148657   3.318  14.625   0.561
48920SOL    HW248658   3.280  14.540   0.441
48921SOL     OW48659   8.378  10.481   9.820
48921SOL    HW148660   8.431  10.489   9.741
48921SOL    HW248661   8.441  10.476   9.892
48922SOL     OW48662   9.332  11.014   6.542
48922SOL    HW148663   9.242  11.000   6.514
48922SOL    HW248664   9.330  11.001   6.637
48923SOL     OW48665   4.150  12.727   7.643
48923SOL    HW148666   4.232  12.774   7.657
48923SOL    HW248667   4.092  12.758   7.712
48924SOL     OW48668   0.137   1.978   3.430
48924SOL    HW148669   0.197   2.048   3.455
48924SOL    HW248670   0.193   1.908   3.397
48925SOL     OW48671   2.371  14.550   3.593
48925SOL    HW148672   2.356  14.456   3.605
48925SOL    HW248673   2.359  14.564   3.499
48926SOL     OW48674   0.409   3.128   7.294
48926SOL    HW148675   0.322   3.161   7.271
48926SOL    HW248676   0.470   3.182   7.244
48927SOL     OW48677   2.880   4.744   5.544
48927SOL    HW148678   2.907   4.826   5.587
48927SOL    HW248679   2.836   4.694   5.613
48928SOL     OW48680   0.510  11.374  13.207
48928SOL    HW148681   0.582  11.347  13.263
48928SOL    HW248682   0.517  11.469  13.203
48929SOL     OW48683   4.277  10.752  10.315
48929SOL    HW148684   4.285  10.845  10.333
48929SOL    HW248685   4.317  10.709  10.391
48930SOL     OW48686   6.723   0.898   9.640
48930SOL    HW148687   6.748   0.826   9.583
48930SOL    HW248688   6.691   0.966   9.581
48931SOL     OW48689   1.392  11.205  10.876
48931SOL    HW148690   1.448  11.240  10.806
48931SOL    HW248691   1.434  11.234  10.957
48932SOL     OW48692   0.068   8.428   7.090
48932SOL    HW148693   0.157   8.408   7.062
48932SOL    HW248694   0.057   8.378   7.172
48933SOL     OW48695   3.568  12.681  14.307
48933SOL    HW148696   3.560  12.677  14.212
48933SOL    HW248697   3.547  12.772  14.329
48934SOL     OW48698  10.891   4.764  13.336
48934SOL    HW148699  10.938   4.836  13.294
48934SOL    HW248700  10.883   4.790  13.427
48935SOL     OW48701   6.094   3.047   5.465
48935SOL    HW148702   6.171   3.018   5.514
48935SOL    HW248703   6.019   3.013   5.515
48936SOL     OW48704   6.762  14.781   4.250
48936SOL    HW148705   6.708  14.797   4.173
48936SOL    HW248706   6.849  14.764   4.215
48937SOL     OW48707   0.900   2.921  10.647
48937SOL    HW148708   0.923   2.874  10.727
48937SOL    HW248709   0.914   3.013  10.669
48938SOL     OW48710   2.387   0.766   7.577
48938SOL    HW148711   2.343   0.803   7.501
48938SOL    HW248712   2.410   0.677   7.551
48939SOL     OW48713   4.836   2.370   7.834
48939SOL    HW148714   4.797   2.433   7.773
48939SOL    HW248715   4.846   2.290   7.782
48940SOL     OW48716  11.275  11.038  13.959
48940SOL    HW148717  11.307  11.125  13.982
48940SOL    HW248718  11.181  11.042  13.979
48941SOL     OW48719   7.558   2.820  11.883
48941SOL    HW148720   7.622   2.779  11.941
48941SOL    HW248721   7.473   2.802  11.924
48942SOL     OW48722  10.833  13.426   1.368
48942SOL    HW148723  10.748  13.450   1.403
48942SOL    HW248724  10.814  13.365   1.297
48943SOL     OW48725   1.301   1.530   4.439
48943SOL    HW148726   1.281   1.454   4.384
48943SOL    HW248727   1.254   1.512   4.521
48944SOL     OW48728  12.629   6.438  10.322
48944SOL    HW148729  12.600   6.354  10.357
48944SOL    HW248730  12.649   6.420  10.230
48945SOL     OW48731  11.107   4.816   6.120
48945SOL    HW148732  11.132   4.811   6.028
48945SOL    HW248733  11.039   4.750   6.130
48946SOL     OW48734  11.179   8.723   0.876
48946SOL    HW148735  11.115   8.791   0.858
48946SOL    HW248736  11.127   8.643   0.887
48947SOL     OW48737   2.981   8.028   6.055
48947SOL    HW148738   2.898   7.980   6.049
48947SOL    HW248739   3.048   7.960   6.056
48948SOL     OW48740   7.990  10.526   9.617
48948SOL    HW148741   7.957  10.526   9.707
48948SOL    HW248742   7.944  10.598   9.574
48949SOL     OW48743   9.539   3.133   6.061
48949SOL    HW148744   9.463   3.078   6.080
48949SOL    HW248745   9.503   3.208   6.014
48950SOL     OW48746  11.023   8.763   2.775
48950SOL    HW148747  11.074   8.838   2.746
48950SOL    HW248748  10.976   8.734   2.696
48951SOL     OW48749   9.977  14.554   8.356
48951SOL    HW148750   9.891  14.551   8.315
48951SOL    HW248751  10.017  14.635   8.323
48952SOL     OW48752  12.431   7.031   9.088
48952SOL    HW148753  12.517   7.064   9.062
48952SOL    HW248754  12.444   6.937   9.102
48953SOL     OW48755  10.795   0.330   2.179
48953SOL    HW148756  10.730   0.260   2.172
48953SOL    HW248757  10.778   0.386   2.103
48954SOL     OW48758   2.103   5.134   0.589
48954SOL    HW148759   2.067   5.163   0.506
48954SOL    HW248760   2.137   5.214   0.629
48955SOL     OW48761  11.662  10.368   0.123
48955SOL    HW148762  11.624  10.294   0.171
48955SOL    HW248763  11.749  10.337   0.097
48956SOL     OW48764   2.128  13.195   1.564
48956SOL    HW148765   2.206  13.186   1.619
48956SOL    HW248766   2.161  13.194   1.474
48957SOL     OW48767   3.399   2.488   6.206
48957SOL    HW148768   3.428   2.487   6.297
48957SOL    HW248769   3.417   2.399   6.174
48958SOL     OW48770   4.369   6.717  13.837
48958SOL    HW148771   4.358   6.623  13.849
48958SOL    HW248772   4.380   6.729  13.742
48959SOL     OW48773  14.498  13.796  14.295
48959SOL    HW148774  14.553  13.821  14.369
48959SOL    HW248775  14.410  13.784  14.332
48960SOL     OW48776   6.802   5.462  12.557
48960SOL    HW148777   6.890   5.425  12.547
48960SOL    HW248778   6.815   5.542  12.609
48961SOL     OW48779  11.481   0.579   2.286
48961SOL    HW148780  11.475   0.507   2.224
48961SOL    HW248781  11.492   0.657   2.231
48962SOL     OW48782   3.174  14.066   6.770
48962SOL    HW148783   3.225  13.984   6.770
48962SOL    HW248784   3.229  14.128   6.818
48963SOL     OW48785   3.320  14.784  12.115
48963SOL    HW148786   3.270  14.719  12.066
48963SOL    HW248787   3.269  14.798  12.195
48964SOL     OW48788   4.631  14.632  10.109
48964SOL    HW148789   4.571  14.691  10.063
48964SOL    HW248790   4.694  14.605  10.042
48965SOL     OW48791   7.228   8.628  12.401
48965SOL    HW148792   7.214   8.712  12.357
48965SOL    HW248793   7.224   8.649  12.495
48966SOL     OW48794  10.511  12.443   9.296
48966SOL    HW148795  10.524  12.484   9.210
48966SOL    HW248796  10.505  12.350   9.278
48967SOL     OW48797   9.355   5.550   2.195
48967SOL    HW148798   9.384   5.477   2.141
48967SOL    HW248799   9.421   5.618   2.184
48968SOL     OW48800  12.711   7.852   7.032
48968SOL    HW148801  12.752   7.856   7.118
48968SOL    HW248802  12.681   7.941   7.015
48969SOL     OW48803  10.528  13.279   8.125
48969SOL    HW148804  10.437  13.271   8.097
48969SOL    HW248805  10.546  13.197   8.170
48970SOL     OW48806  10.865   3.287   3.540
48970SOL    HW148807  10.845   3.197   3.562
48970SOL    HW248808  10.804   3.309   3.471
48971SOL     OW48809   5.989   2.951   2.530
48971SOL    HW148810   6.072   2.941   2.485
48971SOL    HW248811   6.011   2.946   2.623
48972SOL     OW48812   5.515  10.964   2.361
48972SOL    HW148813   5.493  10.872   2.351
48972SOL    HW248814   5.610  10.966   2.367
48973SOL     OW48815   3.020  13.273  10.120
48973SOL    HW148816   3.095  13.296  10.065
48973SOL    HW248817   3.051  13.286  10.210
48974SOL     OW48818   6.300  14.623  12.489
48974SOL    HW148819   6.224  14.565  12.477
48974SOL    HW248820   6.311  14.666  12.404
48975SOL     OW48821  11.200  14.196  14.030
48975SOL    HW148822  11.285  14.236  14.013
48975SOL    HW248823  11.174  14.229  14.116
48976SOL     OW48824   9.580  12.694   9.623
48976SOL    HW148825   9.531  12.654   9.694
48976SOL    HW248826   9.514  12.738   9.570
48977SOL     OW48827   9.258  12.470   4.881
48977SOL    HW148828   9.336  12.438   4.927
48977SOL    HW248829   9.190  12.407   4.903
48978SOL     OW48830   6.157   4.217   5.796
48978SOL    HW148831   6.076   4.185   5.757
48978SOL    HW248832   6.215   4.235   5.722
48979SOL     OW48833   6.436   6.557   9.536
48979SOL    HW148834   6.370   6.606   9.586
48979SOL    HW248835   6.439   6.471   9.578
48980SOL     OW48836  12.391   6.901   8.807
48980SOL    HW148837  12.295   6.894   8.810
48980SOL    HW248838  12.416   6.919   8.898
48981SOL     OW48839   4.227  11.971   0.968
48981SOL    HW148840   4.277  12.051   0.984
48981SOL    HW248841   4.284  11.900   0.997
48982SOL     OW48842   7.746  13.280   2.334
48982SOL    HW148843   7.772  13.289   2.426
48982SOL    HW248844   7.747  13.186   2.318
48983SOL     OW48845   9.026   3.249   9.743
48983SOL    HW148846   9.094   3.190   9.774
48983SOL    HW248847   8.974   3.197   9.682
48984SOL     OW48848   7.722  13.616   8.363
48984SOL    HW148849   7.686  13.549   8.420
48984SOL    HW248850   7.717  13.697   8.414
48985SOL     OW48851   2.213  11.982  10.232
48985SOL    HW148852   2.144  12.014  10.290
48985SOL    HW248853   2.170  11.974  10.147
48986SOL     OW48854  12.394  12.579  12.029
48986SOL    HW148855  12.411  12.514  11.960
48986SOL    HW248856  12.377  12.660  11.981
48987SOL     OW48857   6.753   4.394  11.248
48987SOL    HW148858   6.803   4.446  11.185
48987SOL    HW248859   6.817   4.371  11.316
48988SOL     OW48860   1.588   0.171   3.931
48988SOL    HW148861   1.661   0.162   3.991
48988SOL    HW248862   1.628   0.206   3.850
48989SOL     OW48863   1.825   5.107   5.166
48989SOL    HW148864   1.878   5.074   5.094
48989SOL    HW248865   1.805   5.030   5.218
48990SOL     OW48866   2.071   7.379   1.346
48990SOL    HW148867   2.107   7.449   1.401
48990SOL    HW248868   2.104   7.298   1.386
48991SOL     OW48869   2.277   0.494   9.123
48991SOL    HW148870   2.198   0.540   9.151
48991SOL    HW248871   2.339   0.563   9.100
48992SOL     OW48872   9.862   9.932  14.073
48992SOL    HW148873   9.944   9.964  14.035
48992SOL    HW248874   9.808  10.011  14.080
48993SOL     OW48875  14.156  10.866  12.244
48993SOL    HW148876  14.158  10.862  12.340
48993SOL    HW248877  14.238  10.909  12.221
48994SOL     OW48878  10.119   9.559   1.999
48994SOL    HW148879  10.033   9.527   2.029
48994SOL    HW248880  10.137   9.634   2.055
48995SOL     OW48881   0.802   8.268  12.864
48995SOL    HW148882   0.715   8.294  12.833
48995SOL    HW248883   0.831   8.342  12.918
48996SOL     OW48884   4.154   1.122  13.963
48996SOL    HW148885   4.240   1.089  13.938
48996SOL    HW248886   4.092   1.056  13.931
48997SOL     OW48887   8.715   3.787  11.979
48997SOL    HW148888   8.744   3.839  11.904
48997SOL    HW248889   8.786   3.794  12.042
48998SOL     OW48890   5.378   6.974   8.335
48998SOL    HW148891   5.296   6.928   8.353
48998SOL    HW248892   5.440   6.937   8.398
48999SOL     OW48893  11.276   3.305   3.177
48999SOL    HW148894  11.214   3.378   3.172
48999SOL    HW248895  11.234   3.235   3.127
49000SOL     OW48896  13.516  13.764   0.045
49000SOL    HW148897  13.480  13.698   0.104
49000SOL    HW248898  13.476  13.846   0.073
49001SOL     OW48899   5.200   9.063   0.115
49001SOL    HW148900   5.202   9.140   0.058
49001SOL    HW248901   5.263   9.003   0.077
49002SOL     OW48902   8.219   1.477   7.485
49002SOL    HW148903   8.224   1.477   7.389
49002SOL    HW248904   8.266   1.557   7.511
49003SOL     OW48905   2.545   1.694   1.824
49003SOL    HW148906   2.608   1.655   1.884
49003SOL    HW248907   2.536   1.631   1.753
49004SOL     OW48908  12.195   7.017   4.716
49004SOL    HW148909  12.210   6.963   4.638
49004SOL    HW248910  12.176   6.954   4.785
49005SOL     OW48911  11.343   0.568  13.531
49005SOL    HW148912  11.273   0.514  13.494
49005SOL    HW248913  11.372   0.623  13.458
49006SOL     OW48914  12.711   1.672  12.155
49006SOL    HW148915  12.682   1.715  12.074
49006SOL    HW248916  12.690   1.734  12.224
49007SOL     OW48917  12.370  13.051   9.713
49007SOL    HW148918  12.292  13.082   9.758
49007SOL    HW248919  12.353  13.071   9.620
49008SOL     OW48920   8.414   9.161   0.772
49008SOL    HW148921   8.358   9.231   0.739
49008SOL    HW248922   8.373   9.134   0.853
49009SOL     OW48923  11.926   7.943   5.886
49009SOL    HW148924  11.878   7.990   5.954
49009SOL    HW248925  12.002   7.999   5.867
49010SOL     OW48926  11.446   9.893  12.416
49010SOL    HW148927  11.405   9.961  12.362
49010SOL    HW248928  11.471   9.939  12.496
49011SOL     OW48929  12.998   4.083   5.341
49011SOL    HW148930  12.928   4.088   5.276
49011SOL    HW248931  13.075   4.057   5.292
49012SOL     OW48932  11.451  13.021   0.883
49012SOL    HW148933  11.362  13.037   0.853
49012SOL    HW248934  11.495  12.983   0.807
49013SOL     OW48935   7.885   4.354   4.553
49013SOL    HW148936   7.813   4.310   4.597
49013SOL    HW248937   7.893   4.438   4.597
49014SOL     OW48938   8.239   5.483  13.309
49014SOL    HW148939   8.159   5.453  13.354
49014SOL    HW248940   8.265   5.409  13.254
49015SOL     OW48941   3.607   8.190   9.601
49015SOL    HW148942   3.625   8.147   9.685
49015SOL    HW248943   3.533   8.140   9.564
49016SOL     OW48944   9.892   5.579   9.051
49016SOL    HW148945   9.982   5.565   9.024
49016SOL    HW248946   9.852   5.492   9.047
49017SOL     OW48947   8.277  14.363  12.384
49017SOL    HW148948   8.347  14.385  12.323
49017SOL    HW248949   8.323  14.338  12.465
49018SOL     OW48950   3.821  10.646   4.940
49018SOL    HW148951   3.757  10.632   5.009
49018SOL    HW248952   3.859  10.559   4.925
49019SOL     OW48953   2.609  12.279  11.652
49019SOL    HW148954   2.545  12.246  11.589
49019SOL    HW248955   2.605  12.219  11.726
49020SOL     OW48956  14.752   4.367  12.823
49020SOL    HW148957  14.758   4.418  12.743
49020SOL    HW248958  14.676   4.404  12.869
49021SOL     OW48959   3.922   7.866   5.800
49021SOL    HW148960   3.888   7.840   5.885
49021SOL    HW248961   4.013   7.889   5.816
49022SOL     OW48962   0.314   1.315   6.959
49022SOL    HW148963   0.345   1.336   6.871
49022SOL    HW248964   0.239   1.372   6.972
49023SOL     OW48965   3.143   1.486  12.879
49023SOL    HW148966   3.057   1.474  12.839
49023SOL    HW248967   3.168   1.575  12.855
49024SOL     OW48968   9.368  10.793   0.200
49024SOL    HW148969   9.450  10.813   0.247
49024SOL    HW248970   9.397  10.771   0.111
49025SOL     OW48971   7.946   1.160   9.202
49025SOL    HW148972   7.853   1.140   9.203
49025SOL    HW248973   7.984   1.104   9.270
49026SOL     OW48974   4.879   2.998  14.632
49026SOL    HW148975   4.932   2.938  14.579
49026SOL    HW248976   4.848   3.063  14.569
49027SOL     OW48977  14.077  13.233   7.255
49027SOL    HW148978  14.077  13.322   7.220
49027SOL    HW248979  13.999  13.228   7.310
49028SOL     OW48980   3.663   6.886  12.175
49028SOL    HW148981   3.637   6.978  12.175
49028SOL    HW248982   3.708   6.874  12.091
49029SOL     OW48983   3.887   1.781  13.135
49029SOL    HW148984   3.823   1.766  13.205
49029SOL    HW248985   3.842   1.838  13.073
49030SOL     OW48986   6.123  10.176   5.206
49030SOL    HW148987   6.199  10.119   5.220
49030SOL    HW248988   6.125  10.237   5.280
49031SOL     OW48989  11.604   2.253   1.623
49031SOL    HW148990  11.529   2.305   1.595
49031SOL    HW248991  11.570   2.163   1.628
49032SOL     OW48992   3.940   8.215   5.064
49032SOL    HW148993   3.969   8.283   5.004
49032SOL    HW248994   3.948   8.134   5.013
49033SOL     OW48995   2.788   1.454   5.280
49033SOL    HW148996   2.769   1.364   5.252
49033SOL    HW248997   2.711   1.504   5.255
49034SOL     OW48998  11.204   6.954   9.819
49034SOL    HW148999  11.153   6.892   9.871
49034SOL    HW249000  11.285   6.906   9.797
49035SOL     OW49001   2.991   0.988  11.832
49035SOL    HW149002   3.056   0.932  11.875
49035SOL    HW249003   3.043   1.059  11.794
49036SOL     OW49004   9.623   6.831   2.116
49036SOL    HW149005   9.664   6.810   2.032
49036SOL    HW249006   9.665   6.772   2.178
49037SOL     OW49007   2.217   2.469   3.581
49037SOL    HW149008   2.137   2.482   3.633
49037SOL    HW249009   2.275   2.419   3.639
49038SOL     OW49010  13.186   9.213  12.022
49038SOL    HW149011  13.094   9.207  12.050
49038SOL    HW249012  13.234   9.229  12.103
49039SOL     OW49013  13.496  12.040   3.932
49039SOL    HW149014  13.428  12.099   3.963
49039SOL    HW249015  13.578  12.083   3.956
49040SOL     OW49016   9.062   8.743   8.595
49040SOL    HW149017   9.113   8.820   8.570
49040SOL    HW249018   9.023   8.713   8.513
49041SOL     OW49019   6.414   2.079  10.601
49041SOL    HW149020   6.450   2.166  10.619
49041SOL    HW249021   6.381   2.085  10.512
49042SOL     OW49022   3.737  12.310   1.051
49042SOL    HW149023   3.811  12.370   1.055
49042SOL    HW249024   3.777  12.223   1.057
49043SOL     OW49025   9.483   8.012   7.780
49043SOL    HW149026   9.395   7.977   7.766
49043SOL    HW249027   9.523   7.952   7.843
49044SOL     OW49028   1.109   7.395  14.703
49044SOL    HW149029   1.085   7.488  14.701
49044SOL    HW249030   1.104   7.371  14.795
49045SOL     OW49031  13.600  11.172   5.012
49045SOL    HW149032  13.646  11.102   5.058
49045SOL    HW249033  13.669  11.217   4.962
49046SOL     OW49034   1.716   1.752   0.742
49046SOL    HW149035   1.635   1.776   0.697
49046SOL    HW249036   1.694   1.673   0.791
49047SOL     OW49037  10.090   4.532   6.773
49047SOL    HW149038  10.039   4.552   6.852
49047SOL    HW249039  10.043   4.460   6.731
49048SOL     OW49040   6.734  12.733  14.550
49048SOL    HW149041   6.733  12.667  14.482
49048SOL    HW249042   6.741  12.816  14.503
49049SOL     OW49043   5.522   1.409   6.594
49049SOL    HW149044   5.514   1.445   6.682
49049SOL    HW249045   5.529   1.314   6.608
49050SOL     OW49046  10.697   9.924   3.747
49050SOL    HW149047  10.780   9.954   3.709
49050SOL    HW249048  10.716   9.835   3.777
49051SOL     OW49049  12.504  11.064  13.539
49051SOL    HW149050  12.576  11.048  13.477
49051SOL    HW249051  12.455  10.982  13.540
49052SOL     OW49052  14.202   0.639  12.083
49052SOL    HW149053  14.297   0.634  12.091
49052SOL    HW249054  14.182   0.733  12.092
49053SOL     OW49055   1.931  14.135   5.103
49053SOL    HW149056   1.879  14.204   5.060
49053SOL    HW249057   2.021  14.151   5.073
49054SOL     OW49058   3.730   9.956   0.624
49054SOL    HW149059   3.666  10.021   0.653
49054SOL    HW249060   3.696   9.926   0.540
49055SOL     OW49061   7.666  11.403  13.659
49055SOL    HW149062   7.745  11.448  13.628
49055SOL    HW249063   7.638  11.453  13.736
49056SOL     OW49064   6.890  13.043  13.205
49056SOL    HW149065   6.866  12.966  13.153
49056SOL    HW249066   6.926  13.104  13.140
49057SOL     OW49067   7.418  10.145   6.941
49057SOL    HW149068   7.404  10.082   6.871
49057SOL    HW249069   7.469  10.216   6.901
49058SOL     OW49070   6.539   4.938  10.924
49058SOL    HW149071   6.541   4.926  10.829
49058SOL    HW249072   6.583   4.860  10.959
49059SOL     OW49073   7.389   2.191  13.799
49059SOL    HW149074   7.441   2.270  13.811
49059SOL    HW249075   7.435   2.124  13.849
49060SOL     OW49076   5.692   0.831   5.725
49060SOL    HW149077   5.680   0.901   5.661
49060SOL    HW249078   5.753   0.769   5.683
49061SOL     OW49079  10.448  14.354   9.188
49061SOL    HW149080  10.491  14.337   9.272
49061SOL    HW249081  10.383  14.421   9.208
49062SOL     OW49082  13.737   8.562  10.982
49062SOL    HW149083  13.703   8.481  11.020
49062SOL    HW249084  13.735   8.546  10.887
49063SOL     OW49085   7.064   3.685   0.374
49063SOL    HW149086   7.134   3.707   0.436
49063SOL    HW249087   7.024   3.606   0.411
49064SOL     OW49088  11.550   8.380   4.766
49064SOL    HW149089  11.615   8.332   4.715
49064SOL    HW249090  11.601   8.427   4.832
49065SOL     OW49091  11.715  13.472   7.626
49065SOL    HW149092  11.778  13.474   7.699
49065SOL    HW249093  11.635  13.437   7.666
49066SOL     OW49094   2.670   9.657   4.353
49066SOL    HW149095   2.677   9.561   4.360
49066SOL    HW249096   2.575   9.673   4.358
49067SOL     OW49097   0.407   4.552   2.170
49067SOL    HW149098   0.432   4.642   2.151
49067SOL    HW249099   0.487   4.502   2.155
49068SOL     OW49100  14.562   0.434   2.684
49068SOL    HW149101  14.547   0.348   2.646
49068SOL    HW249102  14.511   0.434   2.766
49069SOL     OW49103   1.100   0.925   4.769
49069SOL    HW149104   1.102   0.908   4.674
49069SOL    HW249105   1.095   1.021   4.775
49070SOL     OW49106   9.306   0.895   5.514
49070SOL    HW149107   9.255   0.816   5.498
49070SOL    HW249108   9.246   0.954   5.561
49071SOL     OW49109   8.798   8.899  11.983
49071SOL    HW149110   8.791   8.972  11.921
49071SOL    HW249111   8.721   8.908  12.039
49072SOL     OW49112  11.885  12.302   9.968
49072SOL    HW149113  11.872  12.382  10.019
49072SOL    HW249114  11.919  12.239  10.031
49073SOL     OW49115   6.396   5.173  10.291
49073SOL    HW149116   6.345   5.108  10.243
49073SOL    HW249117   6.391   5.252  10.238
49074SOL     OW49118  12.694   4.335   1.054
49074SOL    HW149119  12.687   4.241   1.038
49074SOL    HW249120  12.723   4.372   0.970
49075SOL     OW49121   6.377  11.930   9.418
49075SOL    HW149122   6.433  11.895   9.349
49075SOL    HW249123   6.419  12.012   9.443
49076SOL     OW49124  13.577   3.106   1.659
49076SOL    HW149125  13.630   3.073   1.586
49076SOL    HW249126  13.640   3.149   1.717
49077SOL     OW49127  13.860   7.998   0.574
49077SOL    HW149128  13.851   8.093   0.577
49077SOL    HW249129  13.771   7.965   0.585
49078SOL     OW49130   6.688  12.389  11.131
49078SOL    HW149131   6.677  12.333  11.208
49078SOL    HW249132   6.737  12.335  11.069
49079SOL     OW49133   6.240   8.898   4.545
49079SOL    HW149134   6.248   8.959   4.619
49079SOL    HW249135   6.290   8.940   4.475
49080SOL     OW49136   2.237   7.186   1.468
49080SOL    HW149137   2.315   7.208   1.519
49080SOL    HW249138   2.266   7.195   1.377
49081SOL     OW49139   0.222   4.088   9.249
49081SOL    HW149140   0.295   4.052   9.299
49081SOL    HW249141   0.144   4.060   9.296
49082SOL     OW49142   6.972  14.798   1.915
49082SOL    HW149143   7.026  14.727   1.879
49082SOL    HW249144   6.918  14.826   1.841
49083SOL     OW49145   9.554   5.374  12.315
49083SOL    HW149146   9.626   5.420  12.356
49083SOL    HW249147   9.489   5.363  12.384
49084SOL     OW49148   6.786  10.812   8.038
49084SOL    HW149149   6.875  10.817   8.074
49084SOL    HW249150   6.788  10.734   7.982
49085SOL     OW49151   0.587  14.326   8.397
49085SOL    HW149152   0.662  14.366   8.355
49085SOL    HW249153   0.516  14.336   8.334
49086SOL     OW49154  10.918   0.934   1.709
49086SOL    HW149155  10.957   0.864   1.762
49086SOL    HW249156  10.866   0.986   1.771
49087SOL     OW49157   5.952   4.233   1.672
49087SOL    HW149158   5.865   4.269   1.691
49087SOL    HW249159   5.934   4.152   1.623
49088SOL     OW49160   1.983   5.910  10.831
49088SOL    HW149161   1.909   5.866  10.872
49088SOL    HW249162   1.953   6.000  10.819
49089SOL     OW49163   5.558   7.837   0.299
49089SOL    HW149164   5.642   7.817   0.259
49089SOL    HW249165   5.532   7.755   0.342
49090SOL     OW49166   2.707   7.599   3.616
49090SOL    HW149167   2.721   7.647   3.697
49090SOL    HW249168   2.709   7.507   3.641
49091SOL     OW49169   3.664  14.364  11.523
49091SOL    HW149170   3.723  14.378  11.449
49091SOL    HW249171   3.578  14.392  11.491
49092SOL     OW49172   2.309   2.283   6.309
49092SOL    HW149173   2.307   2.225   6.385
49092SOL    HW249174   2.402   2.306   6.299
49093SOL     OW49175   4.446   4.577   1.503
49093SOL    HW149176   4.386   4.560   1.576
49093SOL    HW249177   4.487   4.661   1.524
49094SOL     OW49178  12.170   0.228   3.778
49094SOL    HW149179  12.094   0.203   3.831
49094SOL    HW249180  12.141   0.217   3.688
49095SOL     OW49181   3.320   1.821  13.247
49095SOL    HW149182   3.241   1.776  13.275
49095SOL    HW249183   3.367   1.842  13.328
49096SOL     OW49184   6.623   7.788  13.913
49096SOL    HW149185   6.700   7.799  13.968
49096SOL    HW249186   6.585   7.704  13.941
49097SOL     OW49187   4.383   6.961  10.281
49097SOL    HW149188   4.305   6.959  10.224
49097SOL    HW249189   4.354   6.918  10.361
49098SOL     OW49190   7.242   2.470  13.836
49098SOL    HW149191   7.329   2.452  13.871
49098SOL    HW249192   7.253   2.468  13.741
49099SOL     OW49193  12.141   5.765   0.740
49099SOL    HW149194  12.161   5.859   0.733
49099SOL    HW249195  12.079   5.748   0.669
49100SOL     OW49196  14.131   8.440   1.805
49100SOL    HW149197  14.181   8.480   1.734
49100SOL    HW249198  14.043   8.428   1.769
49101SOL     OW49199   8.751   8.286   5.934
49101SOL    HW149200   8.807   8.318   5.864
49101SOL    HW249201   8.711   8.206   5.899
49102SOL     OW49202  14.509  13.106   0.940
49102SOL    HW149203  14.433  13.153   0.906
49102SOL    HW249204  14.498  13.016   0.909
49103SOL     OW49205   9.737   4.009   6.028
49103SOL    HW149206   9.822   4.051   6.019
49103SOL    HW249207   9.674   4.074   5.996
49104SOL     OW49208   9.781   2.268   2.564
49104SOL    HW149209   9.773   2.238   2.655
49104SOL    HW249210   9.691   2.284   2.536
49105SOL     OW49211  14.047  10.330  12.713
49105SOL    HW149212  14.138  10.305  12.702
49105SOL    HW249213  14.015  10.276  12.785
49106SOL     OW49214   2.244   7.505   2.366
49106SOL    HW149215   2.332   7.540   2.361
49106SOL    HW249216   2.256   7.410   2.376
49107SOL     OW49217   0.268  14.803  12.522
49107SOL    HW149218   0.223   0.011  12.541
49107SOL    HW249219   0.204  14.752  12.472
49108SOL     OW49220   3.613   7.015  14.728
49108SOL    HW149221   3.662   7.038  14.649
49108SOL    HW249222   3.590   6.923  14.716
49109SOL     OW49223   9.880   5.072   6.220
49109SOL    HW149224   9.811   5.097   6.158
49109SOL    HW249225   9.861   5.122   6.299
49110SOL     OW49226   0.212   4.640   4.910
49110SOL    HW149227   0.201   4.689   4.991
49110SOL    HW249228   0.301   4.659   4.881
49111SOL     OW49229  11.468   5.335  12.452
49111SOL    HW149230  11.510   5.421  12.458
49111SOL    HW249231  11.484   5.295  12.537
49112SOL     OW49232  13.907  11.120   0.266
49112SOL    HW149233  13.986  11.082   0.228
49112SOL    HW249234  13.847  11.047   0.276
49113SOL     OW49235   6.572   5.399  10.539
49113SOL    HW149236   6.588   5.305  10.533
49113SOL    HW249237   6.659   5.438  10.547
49114SOL     OW49238   9.420  12.837   9.487
49114SOL    HW149239   9.460  12.921   9.465
49114SOL    HW249240   9.349  12.827   9.424
49115SOL     OW49241   0.587  14.265   6.933
49115SOL    HW149242   0.592  14.213   6.853
49115SOL    HW249243   0.673  14.253   6.974
49116SOL     OW49244   0.391   2.843   7.326
49116SOL    HW149245   0.371   2.936   7.337
49116SOL    HW249246   0.368   2.804   7.410
49117SOL     OW49247  13.843   2.206   8.766
49117SOL    HW149248  13.856   2.293   8.728
49117SOL    HW249249  13.772   2.168   8.714
49118SOL     OW49250   4.085   9.489  13.845
49118SOL    HW149251   4.029   9.438  13.904
49118SOL    HW249252   4.108   9.567  13.896
49119SOL     OW49253   7.752   9.587  14.463
49119SOL    HW149254   7.825   9.574  14.404
49119SOL    HW249255   7.675   9.588  14.407
49120SOL     OW49256   8.569  14.137   7.177
49120SOL    HW149257   8.484  14.134   7.134
49120SOL    HW249258   8.612  14.216   7.142
49121SOL     OW49259   5.335  11.480   7.757
49121SOL    HW149260   5.353  11.557   7.811
49121SOL    HW249261   5.244  11.491   7.730
49122SOL     OW49262  11.339   0.450   1.347
49122SOL    HW149263  11.271   0.427   1.410
49122SOL    HW249264  11.330   0.545   1.335
49123SOL     OW49265   1.260  14.712   2.721
49123SOL    HW149266   1.242  14.683   2.811
49123SOL    HW249267   1.347  14.751   2.726
49124SOL     OW49268  11.034   7.611  11.634
49124SOL    HW149269  11.015   7.536  11.578
49124SOL    HW249270  11.082   7.575  11.708
49125SOL     OW49271   4.585   3.795  14.676
49125SOL    HW149272   4.594   3.851  14.753
49125SOL    HW249273   4.514   3.735  14.699
49126SOL     OW49274   5.484   4.383   4.537
49126SOL    HW149275   5.468   4.452   4.472
49126SOL    HW249276   5.410   4.324   4.528
49127SOL     OW49277   9.104  11.443  12.013
49127SOL    HW149278   9.173  11.400  11.963
49127SOL    HW249279   9.040  11.373  12.030
49128SOL     OW49280   6.387   4.804   4.476
49128SOL    HW149281   6.354   4.886   4.513
49128SOL    HW249282   6.481   4.819   4.466
49129SOL     OW49283   4.875   8.789   0.608
49129SOL    HW149284   4.835   8.813   0.692
49129SOL    HW249285   4.831   8.845   0.544
49130SOL     OW49286   4.598  11.079   3.716
49130SOL    HW149287   4.548  11.002   3.687
49130SOL    HW249288   4.611  11.130   3.637
49131SOL     OW49289  13.900  10.682   6.519
49131SOL    HW149290  13.979  10.736   6.516
49131SOL    HW249291  13.916  10.621   6.591
49132SOL     OW49292  12.082   3.643   9.606
49132SOL    HW149293  11.994   3.609   9.621
49132SOL    HW249294  12.083   3.729   9.650
49133SOL     OW49295   3.096  14.226   8.713
49133SOL    HW149296   3.042  14.161   8.759
49133SOL    HW249297   3.033  14.275   8.659
49134SOL     OW49298   8.382   4.822   1.957
49134SOL    HW149299   8.470   4.797   1.983
49134SOL    HW249300   8.350   4.748   1.906
49135SOL     OW49301   3.266   2.689  10.201
49135SOL    HW149302   3.348   2.681  10.154
49135SOL    HW249303   3.243   2.782  10.193
49136SOL     OW49304  13.870   1.546  11.761
49136SOL    HW149305  13.828   1.591  11.687
49136SOL    HW249306  13.924   1.478  11.720
49137SOL     OW49307   6.938  11.727  11.015
49137SOL    HW149308   6.967  11.637  11.001
49137SOL    HW249309   6.998  11.780  10.962
49138SOL     OW49310  10.701   2.495  13.712
49138SOL    HW149311  10.776   2.544  13.677
49138SOL    HW249312  10.733   2.459  13.795
49139SOL     OW49313   8.547   5.036   1.430
49139SOL    HW149314   8.540   4.992   1.515
49139SOL    HW249315   8.468   5.010   1.383
49140SOL     OW49316  13.507   7.108   2.416
49140SOL    HW149317  13.427   7.064   2.443
49140SOL    HW249318  13.504   7.193   2.460
49141SOL     OW49319   9.400  10.688   4.738
49141SOL    HW149320   9.321  10.634   4.739
49141SOL    HW249321   9.469  10.630   4.707
49142SOL     OW49322  13.772   9.019   3.865
49142SOL    HW149323  13.765   8.927   3.841
49142SOL    HW249324  13.759   9.067   3.783
49143SOL     OW49325   5.358  14.328   8.715
49143SOL    HW149326   5.343  14.385   8.639
49143SOL    HW249327   5.430  14.369   8.762
49144SOL     OW49328   0.858   8.565   1.592
49144SOL    HW149329   0.850   8.511   1.514
49144SOL    HW249330   0.896   8.507   1.658
49145SOL     OW49331   3.601   8.991   9.542
49145SOL    HW149332   3.519   9.026   9.507
49145SOL    HW249333   3.584   8.979   9.636
49146SOL     OW49334   0.373   9.092   8.495
49146SOL    HW149335   0.362   9.184   8.520
49146SOL    HW249336   0.337   9.043   8.569
49147SOL     OW49337   3.935   2.401   3.088
49147SOL    HW149338   4.019   2.408   3.132
49147SOL    HW249339   3.907   2.491   3.074
49148SOL     OW49340   4.536   3.339  13.872
49148SOL    HW149341   4.523   3.356  13.779
49148SOL    HW249342   4.617   3.287  13.876
49149SOL     OW49343  11.968   6.903  13.458
49149SOL    HW149344  11.880   6.920  13.491
49149SOL    HW249345  11.958   6.900  13.362
49150SOL     OW49346   4.650   7.252   0.179
49150SOL    HW149347   4.584   7.188   0.207
49150SOL    HW249348   4.609   7.337   0.193
49151SOL     OW49349   6.335  10.038   7.096
49151SOL    HW149350   6.360   9.971   7.032
49151SOL    HW249351   6.272  10.093   7.049
49152SOL     OW49352  13.668  13.793   9.318
49152SOL    HW149353  13.595  13.784   9.380
49152SOL    HW249354  13.632  13.765   9.234
49153SOL     OW49355   3.451   5.863   2.495
49153SOL    HW149356   3.483   5.893   2.410
49153SOL    HW249357   3.384   5.798   2.475
49154SOL     OW49358  11.504  13.860   7.822
49154SOL    HW149359  11.568  13.798   7.855
49154SOL    HW249360  11.556  13.929   7.780
49155SOL     OW49361   0.270  14.689   7.991
49155SOL    HW149362   0.333  14.663   7.924
49155SOL    HW249363   0.229  14.607   8.019
49156SOL     OW49364  12.145   3.998  10.927
49156SOL    HW149365  12.206   4.057  10.971
49156SOL    HW249366  12.076   4.055  10.893
49157SOL     OW49367  13.573   8.662   3.542
49157SOL    HW149368  13.592   8.577   3.502
49157SOL    HW249369  13.614   8.726   3.484
49158SOL     OW49370  10.766   7.657   7.329
49158SOL    HW149371  10.761   7.562   7.345
49158SOL    HW249372  10.778   7.695   7.415
49159SOL     OW49373   8.443   8.612  14.451
49159SOL    HW149374   8.392   8.657  14.384
49159SOL    HW249375   8.411   8.521  14.448
49160SOL     OW49376  11.822   7.075  10.013
49160SOL    HW149377  11.831   7.170  10.009
49160SOL    HW249378  11.791   7.057  10.101
49161SOL     OW49379   1.930   6.796   2.097
49161SOL    HW149380   2.013   6.826   2.132
49161SOL    HW249381   1.890   6.874   2.060
49162SOL     OW49382   4.005   5.846  10.891
49162SOL    HW149383   4.065   5.791  10.940
49162SOL    HW249384   4.043   5.934  10.895
49163SOL     OW49385   9.570   7.875   5.802
49163SOL    HW149386   9.555   7.836   5.888
49163SOL    HW249387   9.653   7.836   5.773
49164SOL     OW49388   9.521   4.315   8.400
49164SOL    HW149389   9.439   4.327   8.352
49164SOL    HW249390   9.551   4.404   8.417
49165SOL     OW49391   1.353   1.352  14.514
49165SOL    HW149392   1.377   1.263  14.539
49165SOL    HW249393   1.416   1.375  14.446
49166SOL     OW49394  14.060   3.261   6.248
49166SOL    HW149395  14.148   3.225   6.239
49166SOL    HW249396  14.053   3.325   6.177
49167SOL     OW49397   7.157   3.679  14.300
49167SOL    HW149398   7.109   3.716  14.226
49167SOL    HW249399   7.129   3.732  14.375
49168SOL     OW49400   0.387   1.477   4.331
49168SOL    HW149401   0.347   1.512   4.252
49168SOL    HW249402   0.426   1.394   4.303
49169SOL     OW49403  11.461   9.342  13.202
49169SOL    HW149404  11.383   9.396  13.213
49169SOL    HW249405  11.448   9.268  13.261
49170SOL     OW49406   5.852  12.111  10.496
49170SOL    HW149407   5.830  12.027  10.455
49170SOL    HW249408   5.941  12.129  10.467
49171SOL     OW49409   0.592   6.251   8.064
49171SOL    HW149410   0.573   6.341   8.090
49171SOL    HW249411   0.664   6.259   8.002
49172SOL     OW49412   7.561  13.544   5.770
49172SOL    HW149413   7.644  13.527   5.726
49172SOL    HW249414   7.567  13.634   5.800
49173SOL     OW49415  12.357   7.776   1.085
49173SOL    HW149416  12.343   7.705   1.148
49173SOL    HW249417  12.271   7.817   1.075
49174SOL     OW49418   8.187   3.925   6.124
49174SOL    HW149419   8.159   3.914   6.215
49174SOL    HW249420   8.242   4.003   6.125
49175SOL     OW49421   0.008   3.408   7.903
49175SOL    HW149422   0.074   3.358   7.950
49175SOL    HW249423  14.841   3.345   7.846
49176SOL     OW49424   6.811   2.836   7.902
49176SOL    HW149425   6.842   2.926   7.911
49176SOL    HW249426   6.867   2.785   7.960
49177SOL     OW49427  10.684   6.701  13.355
49177SOL    HW149428  10.588   6.698  13.347
49177SOL    HW249429  10.700   6.772  13.417
49178SOL     OW49430  12.545   6.279   8.266
49178SOL    HW149431  12.478   6.259   8.331
49178SOL    HW249432  12.503   6.342   8.206
49179SOL     OW49433  13.146  14.821  14.744
49179SOL    HW149434  13.239  14.836  14.761
49179SOL    HW249435  13.141  14.804  14.650
49180SOL     OW49436   8.437  12.448  11.305
49180SOL    HW149437   8.515  12.394  11.290
49180SOL    HW249438   8.450  12.525  11.249
49181SOL     OW49439   4.486  12.170   7.804
49181SOL    HW149440   4.534  12.187   7.724
49181SOL    HW249441   4.552  12.133   7.864
49182SOL     OW49442   2.398   7.044  13.655
49182SOL    HW149443   2.426   7.022  13.744
49182SOL    HW249444   2.343   7.122  13.667
49183SOL     OW49445   4.219   5.754   8.583
49183SOL    HW149446   4.177   5.793   8.506
49183SOL    HW249447   4.176   5.669   8.593
49184SOL     OW49448   6.786  12.317   8.044
49184SOL    HW149449   6.809  12.236   7.998
49184SOL    HW249450   6.788  12.385   7.976
49185SOL     OW49451   5.140   3.534   4.750
49185SOL    HW149452   5.126   3.452   4.703
49185SOL    HW249453   5.195   3.510   4.824
49186SOL     OW49454  10.594   0.283   7.376
49186SOL    HW149455  10.561   0.225   7.445
49186SOL    HW249456  10.603   0.368   7.420
49187SOL     OW49457   1.871  14.795   4.182
49187SOL    HW149458   1.796  14.854   4.172
49187SOL    HW249459   1.937  14.848   4.227
49188SOL     OW49460  13.634   9.344   6.229
49188SOL    HW149461  13.613   9.435   6.206
49188SOL    HW249462  13.605   9.335   6.320
49189SOL     OW49463   8.997   4.782   4.377
49189SOL    HW149464   8.986   4.853   4.441
49189SOL    HW249465   8.951   4.707   4.415
49190SOL     OW49466   3.657  13.688   2.998
49190SOL    HW149467   3.702  13.679   3.082
49190SOL    HW249468   3.602  13.609   2.991
49191SOL     OW49469   1.739  13.635  12.734
49191SOL    HW149470   1.750  13.615  12.641
49191SOL    HW249471   1.806  13.701  12.753
49192SOL     OW49472   1.546   8.275   2.343
49192SOL    HW149473   1.620   8.333   2.325
49192SOL    HW249474   1.469   8.330   2.329
49193SOL     OW49475  11.324   6.523  11.499
49193SOL    HW149476  11.294   6.437  11.526
49193SOL    HW249477  11.397   6.506  11.440
49194SOL     OW49478   9.738   9.633   8.102
49194SOL    HW149479   9.681   9.618   8.028
49194SOL    HW249480   9.718   9.561   8.163
49195SOL     OW49481   4.350  12.763   7.299
49195SOL    HW149482   4.261  12.733   7.283
49195SOL    HW249483   4.375  12.806   7.217
49196SOL     OW49484  10.370  10.110   0.833
49196SOL    HW149485  10.420  10.076   0.907
49196SOL    HW249486  10.347  10.034   0.781
49197SOL     OW49487   8.227   9.041   6.279
49197SOL    HW149488   8.214   9.119   6.334
49197SOL    HW249489   8.186   8.970   6.329
49198SOL     OW49490   7.939   6.957   0.627
49198SOL    HW149491   7.923   6.884   0.687
49198SOL    HW249492   7.859   6.963   0.574
49199SOL     OW49493  10.448   1.237  14.417
49199SOL    HW149494  10.431   1.197  14.332
49199SOL    HW249495  10.524   1.293  14.402
49200SOL     OW49496   8.554   3.392  12.403
49200SOL    HW149497   8.557   3.301  12.430
49200SOL    HW249498   8.579   3.441  12.481
49201SOL     OW49499   4.598   8.070  14.674
49201SOL    HW149500   4.663   8.077  14.605
49201SOL    HW249501   4.533   8.009  14.640
49202SOL     OW49502   4.343   1.247  10.585
49202SOL    HW149503   4.268   1.235  10.643
49202SOL    HW249504   4.406   1.298  10.637
49203SOL     OW49505   6.598   2.950   4.650
49203SOL    HW149506   6.649   3.028   4.631
49203SOL    HW249507   6.620   2.889   4.579
49204SOL     OW49508   7.630  13.114   6.871
49204SOL    HW149509   7.657  13.023   6.881
49204SOL    HW249510   7.536  13.110   6.852
49205SOL     OW49511   6.295   9.490   5.073
49205SOL    HW149512   6.274   9.398   5.092
49205SOL    HW249513   6.387   9.488   5.049
49206SOL     OW49514  10.708   5.893   5.550
49206SOL    HW149515  10.691   5.813   5.600
49206SOL    HW249516  10.791   5.876   5.505
49207SOL     OW49517   6.910  10.000   9.595
49207SOL    HW149518   6.833   9.979   9.648
49207SOL    HW249519   6.984   9.982   9.653
49208SOL     OW49520   9.024   9.421   0.896
49208SOL    HW149521   8.946   9.371   0.921
49208SOL    HW249522   9.086   9.355   0.864
49209SOL     OW49523   8.446   4.022   7.804
49209SOL    HW149524   8.487   4.013   7.718
49209SOL    HW249525   8.520   4.022   7.865
49210SOL     OW49526  10.476  12.300   9.968
49210SOL    HW149527  10.391  12.329  10.001
49210SOL    HW249528  10.502  12.368   9.906
49211SOL     OW49529  11.827   7.948  13.390
49211SOL    HW149530  11.806   7.911  13.304
49211SOL    HW249531  11.773   7.897  13.451
49212SOL     OW49532  12.494   9.358   7.741
49212SOL    HW149533  12.432   9.285   7.734
49212SOL    HW249534  12.554   9.332   7.810
49213SOL     OW49535   1.005  13.227  10.041
49213SOL    HW149536   0.955  13.150  10.015
49213SOL    HW249537   1.035  13.265   9.958
49214SOL     OW49538   9.460   9.772  11.204
49214SOL    HW149539   9.467   9.715  11.128
49214SOL    HW249540   9.444   9.859  11.167
49215SOL     OW49541  14.060   4.305   0.493
49215SOL    HW149542  14.094   4.221   0.523
49215SOL    HW249543  14.063   4.362   0.570
49216SOL     OW49544   6.346   3.960   0.739
49216SOL    HW149545   6.300   4.036   0.703
49216SOL    HW249546   6.390   3.994   0.817
49217SOL     OW49547  14.232   6.224   2.933
49217SOL    HW149548  14.141   6.251   2.949
49217SOL    HW249549  14.230   6.188   2.845
49218SOL     OW49550   7.822  10.228   0.690
49218SOL    HW149551   7.771  10.149   0.673
49218SOL    HW249552   7.859  10.214   0.777
49219SOL     OW49553   5.917  13.712   5.703
49219SOL    HW149554   5.949  13.797   5.735
49219SOL    HW249555   5.841  13.733   5.649
49220SOL     OW49556   3.477   6.765   7.821
49220SOL    HW149557   3.528   6.685   7.809
49220SOL    HW249558   3.468   6.775   7.915
49221SOL     OW49559  11.836  13.204  10.728
49221SOL    HW149560  11.797  13.123  10.761
49221SOL    HW249561  11.923  13.178  10.697
49222SOL     OW49562   6.349   7.861   3.514
49222SOL    HW149563   6.309   7.840   3.430
49222SOL    HW249564   6.281   7.840   3.578
49223SOL     OW49565  10.195   8.912   3.634
49223SOL    HW149566  10.174   8.970   3.707
49223SOL    HW249567  10.246   8.967   3.575
49224SOL     OW49568   5.272  11.689  10.104
49224SOL    HW149569   5.186  11.682  10.064
49224SOL    HW249570   5.331  11.710  10.031
49225SOL     OW49571   8.904  10.051   4.724
49225SOL    HW149572   8.950   9.992   4.665
49225SOL    HW249573   8.943  10.036   4.810
49226SOL     OW49574   6.091  14.663   1.210
49226SOL    HW149575   6.085  14.672   1.114
49226SOL    HW249576   6.001  14.655   1.239
49227SOL     OW49577   4.537  12.600  11.680
49227SOL    HW149578   4.629  12.605  11.656
49227SOL    HW249579   4.527  12.513  11.718
49228SOL     OW49580   4.960   9.963   5.285
49228SOL    HW149581   4.904   9.929   5.355
49228SOL    HW249582   4.902   9.975   5.211
49229SOL     OW49583  12.110  11.207   0.074
49229SOL    HW149584  12.020  11.181   0.095
49229SOL    HW249585  12.119  11.294   0.112
49230SOL     OW49586  11.354  13.737   5.697
49230SOL    HW149587  11.347  13.773   5.785
49230SOL    HW249588  11.444  13.755   5.670
49231SOL     OW49589   9.677   9.488   9.028
49231SOL    HW149590   9.645   9.438   8.953
49231SOL    HW249591   9.765   9.517   9.001
49232SOL     OW49592   1.953  12.006  12.445
49232SOL    HW149593   1.883  12.014  12.509
49232SOL    HW249594   2.032  11.993  12.497
49233SOL     OW49595  10.696  12.204   2.542
49233SOL    HW149596  10.667  12.126   2.591
49233SOL    HW249597  10.703  12.272   2.609
49234SOL     OW49598  12.563  14.077   0.595
49234SOL    HW149599  12.483  14.118   0.564
49234SOL    HW249600  12.629  14.147   0.592
49235SOL     OW49601   2.812   0.411   0.509
49235SOL    HW149602   2.837   0.389   0.420
49235SOL    HW249603   2.797   0.506   0.507
49236SOL     OW49604   0.147   1.308  12.751
49236SOL    HW149605   0.164   1.329  12.660
49236SOL    HW249606   0.059   1.344  12.768
49237SOL     OW49607   0.379   1.839   4.432
49237SOL    HW149608   0.461   1.796   4.407
49237SOL    HW249609   0.370   1.911   4.370
49238SOL     OW49610   4.859   9.337   3.724
49238SOL    HW149611   4.894   9.417   3.763
49238SOL    HW249612   4.848   9.358   3.631
49239SOL     OW49613  12.193   7.706  11.332
49239SOL    HW149614  12.230   7.790  11.303
49239SOL    HW249615  12.270   7.652  11.350
49240SOL     OW49616  10.459   2.177   2.195
49240SOL    HW149617  10.366   2.164   2.213
49240SOL    HW249618  10.502   2.158   2.279
49241SOL     OW49619   6.371   0.579   4.019
49241SOL    HW149620   6.456   0.599   3.979
49241SOL    HW249621   6.345   0.661   4.061
49242SOL     OW49622  13.134  10.791   9.682
49242SOL    HW149623  13.088  10.874   9.672
49242SOL    HW249624  13.150  10.783   9.776
49243SOL     OW49625  10.796  14.345   6.613
49243SOL    HW149626  10.759  14.355   6.701
49243SOL    HW249627  10.791  14.251   6.596
49244SOL     OW49628  13.498   3.001   3.998
49244SOL    HW149629  13.481   2.979   3.906
49244SOL    HW249630  13.455   3.085   4.011
49245SOL     OW49631   0.512   7.368   0.575
49245SOL    HW149632   0.600   7.336   0.554
49245SOL    HW249633   0.474   7.299   0.630
49246SOL     OW49634  11.886   3.509  12.524
49246SOL    HW149635  11.836   3.440  12.480
49246SOL    HW249636  11.960   3.526  12.466
49247SOL     OW49637  11.409   9.291   9.662
49247SOL    HW149638  11.441   9.235   9.733
49247SOL    HW249639  11.365   9.363   9.707
49248SOL     OW49640  13.829   0.109   9.049
49248SOL    HW149641  13.807   0.112   8.956
49248SOL    HW249642  13.780   0.034   9.083
49249SOL     OW49643   5.514  12.264   3.925
49249SOL    HW149644   5.446  12.321   3.960
49249SOL    HW249645   5.582  12.324   3.893
49250SOL     OW49646   7.101   1.808  11.638
49250SOL    HW149647   7.056   1.827  11.720
49250SOL    HW249648   7.188   1.779  11.664
49251SOL     OW49649  13.161   5.254  11.181
49251SOL    HW149650  13.067   5.238  11.171
49251SOL    HW249651  13.167   5.335  11.233
49252SOL     OW49652   1.674   7.088   1.779
49252SOL    HW149653   1.617   7.011   1.774
49252SOL    HW249654   1.630   7.146   1.841
49253SOL     OW49655   8.731   2.987   9.182
49253SOL    HW149656   8.805   3.046   9.197
49253SOL    HW249657   8.712   2.995   9.089
49254SOL     OW49658   7.559  11.095  10.945
49254SOL    HW149659   7.465  11.091  10.961
49254SOL    HW249660   7.576  11.185  10.917
49255SOL     OW49661  12.666  12.080   7.011
49255SOL    HW149662  12.627  11.993   7.011
49255SOL    HW249663  12.655  12.111   7.100
49256SOL     OW49664   7.856   1.377   6.327
49256SOL    HW149665   7.785   1.356   6.387
49256SOL    HW249666   7.813   1.405   6.246
49257SOL     OW49667   5.822  10.706   0.655
49257SOL    HW149668   5.817  10.795   0.689
49257SOL    HW249669   5.783  10.712   0.568
49258SOL     OW49670   7.807  13.001   1.596
49258SOL    HW149671   7.768  12.918   1.623
49258SOL    HW249672   7.884  12.976   1.546
49259SOL     OW49673   5.877   7.813   1.117
49259SOL    HW149674   5.813   7.759   1.163
49259SOL    HW249675   5.962   7.784   1.150
49260SOL     OW49676  10.112   8.120   8.531
49260SOL    HW149677  10.177   8.065   8.573
49260SOL    HW249678  10.042   8.129   8.597
49261SOL     OW49679   9.985  13.609   6.621
49261SOL    HW149680   9.943  13.576   6.541
49261SOL    HW249681   9.918  13.600   6.689
49262SOL     OW49682  13.807  10.016  13.466
49262SOL    HW149683  13.886   9.963  13.456
49262SOL    HW249684  13.738   9.965  13.423
49263SOL     OW49685   2.736   4.938   1.067
49263SOL    HW149686   2.698   4.850   1.062
49263SOL    HW249687   2.757   4.959   0.976
49264SOL     OW49688   8.280   1.616   1.555
49264SOL    HW149689   8.285   1.616   1.651
49264SOL    HW249690   8.188   1.600   1.535
49265SOL     OW49691   7.639   9.269   6.729
49265SOL    HW149692   7.674   9.280   6.641
49265SOL    HW249693   7.566   9.208   6.719
49266SOL     OW49694  13.150   7.671   3.662
49266SOL    HW149695  13.100   7.596   3.629
49266SOL    HW249696  13.225   7.677   3.602
49267SOL     OW49697  10.569   2.897   9.943
49267SOL    HW149698  10.503   2.892   9.874
49267SOL    HW249699  10.601   2.987   9.939
49268SOL     OW49700   9.703   5.283   5.866
49268SOL    HW149701   9.772   5.346   5.885
49268SOL    HW249702   9.623   5.322   5.902
49269SOL     OW49703  13.690  11.430   2.068
49269SOL    HW149704  13.620  11.394   2.014
49269SOL    HW249705  13.769  11.388   2.035
49270SOL     OW49706   2.888   2.026   1.544
49270SOL    HW149707   2.934   1.959   1.494
49270SOL    HW249708   2.923   2.109   1.512
49271SOL     OW49709  10.335   6.244   5.035
49271SOL    HW149710  10.246   6.266   5.008
49271SOL    HW249711  10.332   6.247   5.131
49272SOL     OW49712   5.643  12.898   2.538
49272SOL    HW149713   5.711  12.960   2.510
49272SOL    HW249714   5.563  12.930   2.496
49273SOL     OW49715   3.080   9.461   0.330
49273SOL    HW149716   3.175   9.475   0.330
49273SOL    HW249717   3.069   9.367   0.337
49274SOL     OW49718  12.678  12.954   8.095
49274SOL    HW149719  12.628  13.032   8.072
49274SOL    HW249720  12.687  12.906   8.013
49275SOL     OW49721   9.131  10.684   3.404
49275SOL    HW149722   9.190  10.694   3.478
49275SOL    HW249723   9.182  10.714   3.329
49276SOL     OW49724   9.626  12.771  13.329
49276SOL    HW149725   9.703  12.817  13.296
49276SOL    HW249726   9.556  12.795  13.268
49277SOL     OW49727   8.788  10.557   6.301
49277SOL    HW149728   8.731  10.627   6.270
49277SOL    HW249729   8.873  10.599   6.314
49278SOL     OW49730   7.872  14.441   0.565
49278SOL    HW149731   7.913  14.388   0.497
49278SOL    HW249732   7.855  14.379   0.637
49279SOL     OW49733   5.760   0.597   1.399
49279SOL    HW149734   5.847   0.598   1.440
49279SOL    HW249735   5.701   0.565   1.468
49280SOL     OW49736  11.259   9.908   2.806
49280SOL    HW149737  11.248   9.904   2.711
49280SOL    HW249738  11.354   9.904   2.819
49281SOL     OW49739  13.055   3.419  10.260
49281SOL    HW149740  12.967   3.396  10.230
49281SOL    HW249741  13.113   3.360  10.211
49282SOL     OW49742   2.901   9.883   9.941
49282SOL    HW149743   2.861   9.814   9.992
49282SOL    HW249744   2.982   9.845   9.907
49283SOL     OW49745  10.964   9.117  10.517
49283SOL    HW149746  10.984   9.024  10.532
49283SOL    HW249747  11.015   9.163  10.583
49284SOL     OW49748   7.673   3.068  11.198
49284SOL    HW149749   7.657   3.127  11.124
49284SOL    HW249750   7.605   3.001  11.190
49285SOL     OW49751   2.533  12.031  14.386
49285SOL    HW149752   2.595  11.959  14.396
49285SOL    HW249753   2.459  11.992  14.340
49286SOL     OW49754   5.401   7.084   2.716
49286SOL    HW149755   5.314   7.101   2.681
49286SOL    HW249756   5.441   7.023   2.654
49287SOL     OW49757   3.963   4.243   4.530
49287SOL    HW149758   3.907   4.166   4.528
49287SOL    HW249759   4.046   4.211   4.567
49288SOL     OW49760   1.386  12.419   9.940
49288SOL    HW149761   1.353  12.370  10.015
49288SOL    HW249762   1.454  12.476   9.976
49289SOL     OW49763   7.056  14.298  13.697
49289SOL    HW149764   7.058  14.224  13.636
49289SOL    HW249765   7.140  14.342  13.682
49290SOL     OW49766  10.326   0.306  13.707
49290SOL    HW149767  10.266   0.269  13.771
49290SOL    HW249768  10.414   0.286  13.740
49291SOL     OW49769   8.761   0.879  14.281
49291SOL    HW149770   8.702   0.841  14.346
49291SOL    HW249771   8.727   0.849  14.197
49292SOL     OW49772  11.556   5.738   8.097
49292SOL    HW149773  11.490   5.784   8.044
49292SOL    HW249774  11.587   5.667   8.042
49293SOL     OW49775   8.135   1.140  14.563
49293SOL    HW149776   8.146   1.111  14.653
49293SOL    HW249777   8.224   1.165  14.535
49294SOL     OW49778   1.880   9.644  13.080
49294SOL    HW149779   1.850   9.589  13.152
49294SOL    HW249780   1.965   9.677  13.108
49295SOL     OW49781   9.776   1.961  12.581
49295SOL    HW149782   9.741   1.900  12.646
49295SOL    HW249783   9.724   1.945  12.503
49296SOL     OW49784   1.931   6.973  11.543
49296SOL    HW149785   1.974   7.052  11.575
49296SOL    HW249786   1.841   6.980  11.575
49297SOL     OW49787   6.517   8.742   0.250
49297SOL    HW149788   6.569   8.746   0.330
49297SOL    HW249789   6.426   8.741   0.279
49298SOL     OW49790   9.113  13.017   7.952
49298SOL    HW149791   9.051  13.022   7.879
49298SOL    HW249792   9.058  13.006   8.030
49299SOL     OW49793   8.783   0.985   8.554
49299SOL    HW149794   8.794   0.971   8.648
49299SOL    HW249795   8.872   1.002   8.522
49300SOL     OW49796   8.724  13.438  13.283
49300SOL    HW149797   8.643  13.434  13.232
49300SOL    HW249798   8.781  13.496  13.234
49301SOL     OW49799   4.059   2.587  10.088
49301SOL    HW149800   4.040   2.584   9.994
49301SOL    HW249801   4.048   2.496  10.117
49302SOL     OW49802   0.383   8.156   5.105
49302SOL    HW149803   0.308   8.112   5.144
49302SOL    HW249804   0.459   8.111   5.142
49303SOL     OW49805   5.766  14.283  10.664
49303SOL    HW149806   5.816  14.204  10.685
49303SOL    HW249807   5.727  14.310  10.747
49304SOL     OW49808  10.115   4.502   1.231
49304SOL    HW149809  10.107   4.410   1.207
49304SOL    HW249810  10.084   4.550   1.154
49305SOL     OW49811  14.861   2.631   6.786
49305SOL    HW149812  14.775   2.667   6.762
49305SOL    HW249813   0.000   2.661   6.876
49306SOL     OW49814   8.362  10.642   8.982
49306SOL    HW149815   8.314  10.628   9.063
49306SOL    HW249816   8.442  10.687   9.009
49307SOL     OW49817  12.337  10.556   9.545
49307SOL    HW149818  12.258  10.546   9.492
49307SOL    HW249819  12.342  10.650   9.562
49308SOL     OW49820  13.658   6.192  13.042
49308SOL    HW149821  13.567   6.210  13.018
49308SOL    HW249822  13.659   6.098  13.062
49309SOL     OW49823   5.983  10.974   9.945
49309SOL    HW149824   5.950  10.976   9.855
49309SOL    HW249825   5.946  10.894   9.982
49310SOL     OW49826   4.867   8.963  12.308
49310SOL    HW149827   4.914   8.940  12.389
49310SOL    HW249828   4.931   9.011  12.256
49311SOL     OW49829  12.489  13.568   5.835
49311SOL    HW149830  12.435  13.635   5.877
49311SOL    HW249831  12.429  13.524   5.774
49312SOL     OW49832   0.198  13.102   3.835
49312SOL    HW149833   0.118  13.149   3.812
49312SOL    HW249834   0.179  13.010   3.814
49313SOL     OW49835  12.219  12.747  12.493
49313SOL    HW149836  12.216  12.831  12.447
49313SOL    HW249837  12.147  12.696  12.455
49314SOL     OW49838  11.497   9.706   2.337
49314SOL    HW149839  11.497   9.770   2.408
49314SOL    HW249840  11.578   9.657   2.349
49315SOL     OW49841   7.553  10.306   2.492
49315SOL    HW149842   7.480  10.354   2.453
49315SOL    HW249843   7.557  10.224   2.443
49316SOL     OW49844   8.233   5.220  10.187
49316SOL    HW149845   8.174   5.294  10.170
49316SOL    HW249846   8.274   5.203  10.102
49317SOL     OW49847   7.631  12.488   8.473
49317SOL    HW149848   7.725  12.473   8.481
49317SOL    HW249849   7.604  12.432   8.401
49318SOL     OW49850   3.091   7.585   8.149
49318SOL    HW149851   3.000   7.609   8.168
49318SOL    HW249852   3.132   7.574   8.235
49319SOL     OW49853  13.754   7.606   8.299
49319SOL    HW149854  13.661   7.584   8.305
49319SOL    HW249855  13.767   7.672   8.368
49320SOL     OW49856   3.313  11.728  12.840
49320SOL    HW149857   3.344  11.710  12.929
49320SOL    HW249858   3.358  11.808  12.815
49321SOL     OW49859   6.293  14.536   0.530
49321SOL    HW149860   6.216  14.508   0.579
49321SOL    HW249861   6.260  14.555   0.442
49322SOL     OW49862  13.753   0.982  14.532
49322SOL    HW149863  13.784   0.961  14.444
49322SOL    HW249864  13.783   0.909  14.586
49323SOL     OW49865   0.805   6.970   7.566
49323SOL    HW149866   0.789   6.950   7.474
49323SOL    HW249867   0.729   7.022   7.593
49324SOL     OW49868  10.843   5.254   3.548
49324SOL    HW149869  10.885   5.212   3.623
49324SOL    HW249870  10.913   5.261   3.482
49325SOL     OW49871   1.497   7.581   6.099
49325SOL    HW149872   1.498   7.608   6.007
49325SOL    HW249873   1.481   7.661   6.148
49326SOL     OW49874  11.327   0.695   5.563
49326SOL    HW149875  11.354   0.653   5.481
49326SOL    HW249876  11.393   0.762   5.578
49327SOL     OW49877   0.616   4.920   2.736
49327SOL    HW149878   0.699   4.968   2.744
49327SOL    HW249879   0.549   4.986   2.754
49328SOL     OW49880   7.234   2.849   3.617
49328SOL    HW149881   7.256   2.892   3.700
49328SOL    HW249882   7.236   2.756   3.637
49329SOL     OW49883  10.423  13.689   5.603
49329SOL    HW149884  10.450  13.761   5.545
49329SOL    HW249885  10.342  13.656   5.565
49330SOL     OW49886  12.932  10.403  14.353
49330SOL    HW149887  12.894  10.335  14.409
49330SOL    HW249888  12.874  10.478  14.362
49331SOL     OW49889   2.339  13.941   6.525
49331SOL    HW149890   2.325  14.034   6.507
49331SOL    HW249891   2.417  13.918   6.475
49332SOL     OW49892   2.957  10.476   2.128
49332SOL    HW149893   2.945  10.389   2.088
49332SOL    HW249894   3.039  10.508   2.092
49333SOL     OW49895   9.504  12.505  12.300
49333SOL    HW149896   9.512  12.455  12.219
49333SOL    HW249897   9.589  12.497  12.343
49334SOL     OW49898  12.742   9.050   0.963
49334SOL    HW149899  12.829   9.061   0.925
49334SOL    HW249900  12.712   8.966   0.928
49335SOL     OW49901   3.951  14.781  10.998
49335SOL    HW149902   3.894  14.854  11.022
49335SOL    HW249903   4.023  14.784  11.061
49336SOL     OW49904  11.021  12.256  10.254
49336SOL    HW149905  11.010  12.161  10.259
49336SOL    HW249906  11.114  12.270  10.271
49337SOL     OW49907   3.524   6.005   1.507
49337SOL    HW149908   3.478   6.056   1.573
49337SOL    HW249909   3.474   5.923   1.500
49338SOL     OW49910  10.744   6.806   7.976
49338SOL    HW149911  10.776   6.716   7.976
49338SOL    HW249912  10.721   6.823   8.067
49339SOL     OW49913  12.601   8.947   3.218
49339SOL    HW149914  12.535   9.015   3.203
49339SOL    HW249915  12.655   8.948   3.139
49340SOL     OW49916   0.057  11.725   2.143
49340SOL    HW149917   0.045  11.810   2.100
49340SOL    HW249918   0.048  11.744   2.236
49341SOL     OW49919  13.817   2.112   1.091
49341SOL    HW149920  13.877   2.048   1.053
49341SOL    HW249921  13.865   2.150   1.164
49342SOL     OW49922   3.826   1.738   7.125
49342SOL    HW149923   3.739   1.778   7.136
49342SOL    HW249924   3.828   1.711   7.033
49343SOL     OW49925   1.142   9.355  12.026
49343SOL    HW149926   1.182   9.273  12.054
49343SOL    HW249927   1.064   9.364  12.081
49344SOL     OW49928  11.732   8.987   8.280
49344SOL    HW149929  11.812   9.040   8.287
49344SOL    HW249930  11.699   8.981   8.369
49345SOL     OW49931  10.289   3.003   0.908
49345SOL    HW149932  10.270   3.093   0.935
49345SOL    HW249933  10.203   2.963   0.894
49346SOL     OW49934  11.546   2.383   7.217
49346SOL    HW149935  11.463   2.336   7.206
49346SOL    HW249936  11.525   2.474   7.194
49347SOL     OW49937   6.432   2.824   4.227
49347SOL    HW149938   6.402   2.738   4.200
49347SOL    HW249939   6.476   2.809   4.311
49348SOL     OW49940   5.978   7.132   0.706
49348SOL    HW149941   5.978   7.218   0.664
49348SOL    HW249942   6.007   7.072   0.637
49349SOL     OW49943   0.693  11.826   6.119
49349SOL    HW149944   0.610  11.870   6.103
49349SOL    HW249945   0.758  11.896   6.115
49350SOL     OW49946   9.769   0.692   1.329
49350SOL    HW149947   9.814   0.659   1.407
49350SOL    HW249948   9.833   0.682   1.259
49351SOL     OW49949   0.948   8.439   1.935
49351SOL    HW149950   1.011   8.468   1.869
49351SOL    HW249951   0.877   8.398   1.884
49352SOL     OW49952  14.610   2.037  12.043
49352SOL    HW149953  14.602   2.055  11.950
49352SOL    HW249954  14.607   1.941  12.049
49353SOL     OW49955  10.523  11.274  11.689
49353SOL    HW149956  10.439  11.290  11.732
49353SOL    HW249957  10.529  11.341  11.621
49354SOL     OW49958   8.275   6.631   7.267
49354SOL    HW149959   8.256   6.698   7.201
49354SOL    HW249960   8.354   6.588   7.235
49355SOL     OW49961  13.477   3.990   7.818
49355SOL    HW149962  13.570   4.009   7.808
49355SOL    HW249963  13.465   3.977   7.912
49356SOL     OW49964  10.965  14.738   9.707
49356SOL    HW149965  11.031  14.801   9.733
49356SOL    HW249966  11.005  14.687   9.637
49357SOL     OW49967   1.623  10.804  13.282
49357SOL    HW149968   1.699  10.764  13.240
49357SOL    HW249969   1.647  10.896  13.294
49358SOL     OW49970  13.934   8.647   7.574
49358SOL    HW149971  13.920   8.717   7.511
49358SOL    HW249972  13.916   8.687   7.659
49359SOL     OW49973   5.164   7.510  11.341
49359SOL    HW149974   5.176   7.549  11.428
49359SOL    HW249975   5.165   7.415  11.357
49360SOL     OW49976  10.664   7.814   2.685
49360SOL    HW149977  10.746   7.838   2.729
49360SOL    HW249978  10.689   7.747   2.621
49361SOL     OW49979  10.648  11.906   9.569
49361SOL    HW149980  10.678  11.992   9.540
49361SOL    HW249981  10.583  11.925   9.636
49362SOL     OW49982   8.336   7.378   1.057
49362SOL    HW149983   8.275   7.423   0.999
49362SOL    HW249984   8.284   7.354   1.133
49363SOL     OW49985   1.048  13.160   8.444
49363SOL    HW149986   0.961  13.187   8.472
49363SOL    HW249987   1.042  13.064   8.436
49364SOL     OW49988   3.747   9.816   5.191
49364SOL    HW149989   3.663   9.821   5.145
49364SOL    HW249990   3.763   9.722   5.200
49365SOL     OW49991   3.186   8.343   9.725
49365SOL    HW149992   3.140   8.335   9.809
49365SOL    HW249993   3.234   8.425   9.731
49366SOL     OW49994  14.535  14.451  10.985
49366SOL    HW149995  14.475  14.432  10.913
49366SOL    HW249996  14.570  14.538  10.965
49367SOL     OW49997   3.088   1.064   5.464
49367SOL    HW149998   3.011   1.120   5.449
49367SOL    HW249999   3.140   1.072   5.384
49368SOL     OW50000   6.324  14.217   5.810
49368SOL    HW150001   6.255  14.193   5.872
49368SOL    HW250002   6.393  14.254   5.864
49369SOL     OW50003   2.775   1.883  12.427
49369SOL    HW150004   2.769   1.820  12.355
49369SOL    HW250005   2.719   1.847  12.496
49370SOL     OW50006   0.645  12.950  12.678
49370SOL    HW150007   0.562  12.905  12.670
49370SOL    HW250008   0.622  13.038  12.709
49371SOL     OW50009  13.337  13.918   9.348
49371SOL    HW150010  13.352  13.889   9.258
49371SOL    HW250011  13.379  13.851   9.402
49372SOL     OW50012  13.409   2.668   3.756
49372SOL    HW150013  13.452   2.583   3.753
49372SOL    HW250014  13.475   2.728   3.788
49373SOL     OW50015  11.585   8.048   9.622
49373SOL    HW150016  11.648   8.092   9.564
49373SOL    HW250017  11.635   7.978   9.663
49374SOL     OW50018   9.092   6.876   6.822
49374SOL    HW150019   9.109   6.816   6.895
49374SOL    HW250020   9.110   6.825   6.744
49375SOL     OW50021   6.877   7.901  11.346
49375SOL    HW150022   6.867   7.958  11.422
49375SOL    HW250023   6.918   7.956  11.279
49376SOL     OW50024  13.814   4.681   8.227
49376SOL    HW150025  13.748   4.701   8.160
49376SOL    HW250026  13.898   4.694   8.183
49377SOL     OW50027   5.996  12.649   8.739
49377SOL    HW150028   6.019  12.651   8.646
49377SOL    HW250029   5.907  12.683   8.743
49378SOL     OW50030   7.546  14.845  13.273
49378SOL    HW150031   7.603  14.870  13.201
49378SOL    HW250032   7.510   0.052  13.305
49379SOL     OW50033   9.307   9.834   4.454
49379SOL    HW150034   9.374   9.767   4.467
49379SOL    HW250035   9.245   9.794   4.393
49380SOL     OW50036  11.621   6.946   2.153
49380SOL    HW150037  11.578   6.887   2.092
49380SOL    HW250038  11.712   6.951   2.123
49381SOL     OW50039   0.146   4.325  10.807
49381SOL    HW150040   0.070   4.378  10.832
49381SOL    HW250041   0.138   4.313  10.713
49382SOL     OW50042   6.778   4.469  10.377
49382SOL    HW150043   6.738   4.405  10.318
49382SOL    HW250044   6.726   4.548  10.366
49383SOL     OW50045   3.199   5.392   9.200
49383SOL    HW150046   3.143   5.362   9.128
49383SOL    HW250047   3.211   5.485   9.184
49384SOL     OW50048   6.318   1.859  13.857
49384SOL    HW150049   6.231   1.886  13.887
49384SOL    HW250050   6.338   1.919  13.784
49385SOL     OW50051   1.183   0.667  14.676
49385SOL    HW150052   1.142   0.742  14.633
49385SOL    HW250053   1.265   0.702  14.712
49386SOL     OW50054   0.806  14.506   6.944
49386SOL    HW150055   0.843  14.590   6.919
49386SOL    HW250056   0.737  14.527   7.006
49387SOL     OW50057   5.050   8.717   5.104
49387SOL    HW150058   5.059   8.789   5.042
49387SOL    HW250059   4.980   8.746   5.163
49388SOL     OW50060   5.125  13.653   1.920
49388SOL    HW150061   5.141  13.571   1.969
49388SOL    HW250062   5.178  13.718   1.966
49389SOL     OW50063   7.775   8.327   4.329
49389SOL    HW150064   7.853   8.276   4.348
49389SOL    HW250065   7.749   8.364   4.414
49390SOL     OW50066   9.113  11.876   4.193
49390SOL    HW150067   9.065  11.806   4.239
49390SOL    HW250068   9.047  11.918   4.138
49391SOL     OW50069   2.979  14.376   5.807
49391SOL    HW150070   2.917  14.382   5.880
49391SOL    HW250071   3.048  14.319   5.840
49392SOL     OW50072   4.236   5.236   7.652
49392SOL    HW150073   4.246   5.279   7.737
49392SOL    HW250074   4.174   5.291   7.605
49393SOL     OW50075  11.060   2.779  11.056
49393SOL    HW150076  11.090   2.817  10.974
49393SOL    HW250077  11.138   2.735  11.092
49394SOL     OW50078   0.579  11.330   5.892
49394SOL    HW150079   0.621  11.255   5.935
49394SOL    HW250080   0.491  11.299   5.870
49395SOL     OW50081   1.945   7.179  11.265
49395SOL    HW150082   1.920   7.135  11.346
49395SOL    HW250083   1.936   7.111  11.198
49396SOL     OW50084   9.731   9.335  13.266
49396SOL    HW150085   9.686   9.364  13.186
49396SOL    HW250086   9.781   9.258  13.239
49397SOL     OW50087  13.063   9.584   4.028
49397SOL    HW150088  12.996   9.525   3.993
49397SOL    HW250089  13.088   9.639   3.954
49398SOL     OW50090  13.574   2.772   0.942
49398SOL    HW150091  13.631   2.730   1.006
49398SOL    HW250092  13.605   2.740   0.857
49399SOL     OW50093  11.619  11.107  11.173
49399SOL    HW150094  11.643  11.190  11.131
49399SOL    HW250095  11.668  11.040  11.125
49400SOL     OW50096   6.766  12.598   8.731
49400SOL    HW150097   6.736  12.514   8.697
49400SOL    HW250098   6.798  12.645   8.654
49401SOL     OW50099   3.203   2.864  11.242
49401SOL    HW150100   3.180   2.841  11.332
49401SOL    HW250101   3.280   2.810  11.223
49402SOL     OW50102  11.818  10.754   4.941
49402SOL    HW150103  11.838  10.726   5.031
49402SOL    HW250104  11.724  10.737   4.931
49403SOL     OW50105   6.286   4.738  13.578
49403SOL    HW150106   6.342   4.809  13.546
49403SOL    HW250107   6.231   4.716  13.503
49404SOL     OW50108  11.099   9.125   3.984
49404SOL    HW150109  11.009   9.112   3.952
49404SOL    HW250110  11.152   9.067   3.929
49405SOL     OW50111  13.917  14.358   7.716
49405SOL    HW150112  13.827  14.367   7.747
49405SOL    HW250113  13.969  14.411   7.776
49406SOL     OW50114   3.269   0.874   7.014
49406SOL    HW150115   3.309   0.915   6.937
49406SOL    HW250116   3.338   0.819   7.051
49407SOL     OW50117   5.711  13.250   1.762
49407SOL    HW150118   5.650  13.323   1.762
49407SOL    HW250119   5.657  13.173   1.747
49408SOL     OW50120   0.582   4.150   0.486
49408SOL    HW150121   0.576   4.096   0.407
49408SOL    HW250122   0.654   4.211   0.468
49409SOL     OW50123   9.728   6.523   8.647
49409SOL    HW150124   9.796   6.590   8.647
49409SOL    HW250125   9.650   6.568   8.682
49410SOL     OW50126  14.804   0.273   0.572
49410SOL    HW150127   0.005   0.330   0.583
49410SOL    HW250128  14.737   0.330   0.535
49411SOL     OW50129   6.627   8.821   9.785
49411SOL    HW150130   6.670   8.904   9.766
49411SOL    HW250131   6.556   8.844   9.846
49412SOL     OW50132   2.610   0.727   0.846
49412SOL    HW150133   2.627   0.816   0.814
49412SOL    HW250134   2.693   0.700   0.886
49413SOL     OW50135   0.048   4.904  11.764
49413SOL    HW150136   0.035   4.899  11.859
49413SOL    HW250137  14.867   4.976  11.736
49414SOL     OW50138   5.794  14.414  11.537
49414SOL    HW150139   5.758  14.495  11.573
49414SOL    HW250140   5.760  14.345  11.593
49415SOL     OW50141   5.706   9.377  12.944
49415SOL    HW150142   5.780   9.422  12.986
49415SOL    HW250143   5.639   9.373  13.011
49416SOL     OW50144   1.982  10.952   5.031
49416SOL    HW150145   2.062  11.002   5.044
49416SOL    HW250146   2.006  10.862   5.054
49417SOL     OW50147   2.576  12.729   7.276
49417SOL    HW150148   2.509  12.766   7.218
49417SOL    HW250149   2.644  12.698   7.216
49418SOL     OW50150   8.196   1.822   0.583
49418SOL    HW150151   8.136   1.749   0.598
49418SOL    HW250152   8.230   1.807   0.495
49419SOL     OW50153  13.957   9.749  12.435
49419SOL    HW150154  13.886   9.696  12.471
49419SOL    HW250155  13.956   9.730  12.341
49420SOL     OW50156   5.067   3.318   8.614
49420SOL    HW150157   5.126   3.243   8.610
49420SOL    HW250158   5.055   3.334   8.707
49421SOL     OW50159   5.750  11.539   5.309
49421SOL    HW150160   5.695  11.532   5.230
49421SOL    HW250161   5.745  11.632   5.333
49422SOL     OW50162   6.789   4.435   6.118
49422SOL    HW150163   6.802   4.357   6.172
49422SOL    HW250164   6.701   4.464   6.140
49423SOL     OW50165  12.215   2.757   5.330
49423SOL    HW150166  12.217   2.687   5.264
49423SOL    HW250167  12.305   2.761   5.362
49424SOL     OW50168   6.362   8.336   6.950
49424SOL    HW150169   6.285   8.376   6.991
49424SOL    HW250170   6.424   8.325   7.022
49425SOL     OW50171  10.335  12.789  14.832
49425SOL    HW150172  10.304  12.876  14.859
49425SOL    HW250173  10.279  12.728   0.004
49426SOL     OW50174   5.154   6.465  14.549
49426SOL    HW150175   5.164   6.420  14.633
49426SOL    HW250176   5.240   6.458  14.507
49427SOL     OW50177   1.955   1.210   6.226
49427SOL    HW150178   2.019   1.247   6.287
49427SOL    HW250179   1.901   1.152   6.280
49428SOL     OW50180  14.376   7.167   8.502
49428SOL    HW150181  14.470   7.174   8.489
49428SOL    HW250182  14.339   7.240   8.451
49429SOL     OW50183   8.099   9.967   9.218
49429SOL    HW150184   8.085   9.963   9.123
49429SOL    HW250185   8.051  10.045   9.246
49430SOL     OW50186  13.385   5.076   3.498
49430SOL    HW150187  13.449   5.045   3.562
49430SOL    HW250188  13.304   5.087   3.549
49431SOL     OW50189  13.191   4.215   7.969
49431SOL    HW150190  13.110   4.203   7.919
49431SOL    HW250191  13.170   4.182   8.057
49432SOL     OW50192  14.597   8.552  13.606
49432SOL    HW150193  14.692   8.555  13.595
49432SOL    HW250194  14.562   8.599  13.530
49433SOL     OW50195   1.775   1.749   2.580
49433SOL    HW150196   1.761   1.799   2.661
49433SOL    HW250197   1.845   1.688   2.602
49434SOL     OW50198   4.156  12.614  14.831
49434SOL    HW150199   4.120  12.576  14.750
49434SOL    HW250200   4.210  12.544  14.868
49435SOL     OW50201   9.266   5.259   5.660
49435SOL    HW150202   9.350   5.304   5.655
49435SOL    HW250203   9.272   5.205   5.738
49436SOL     OW50204   4.683   0.697   2.010
49436SOL    HW150205   4.625   0.648   2.068
49436SOL    HW250206   4.708   0.774   2.062
49437SOL     OW50207   6.454   5.553   1.540
49437SOL    HW150208   6.439   5.541   1.447
49437SOL    HW250209   6.529   5.497   1.560
49438SOL     OW50210   7.393  14.872   0.294
49438SOL    HW150211   7.302  14.873   0.265
49438SOL    HW250212   7.392  14.816   0.372
49439SOL     OW50213   5.951  14.429   4.082
49439SOL    HW150214   6.029  14.391   4.123
49439SOL    HW250215   5.909  14.355   4.038
49440SOL     OW50216   7.858  11.137   6.422
49440SOL    HW150217   7.857  11.217   6.369
49440SOL    HW250218   7.950  11.122   6.441
49441SOL     OW50219  13.977   1.199   9.973
49441SOL    HW150220  14.014   1.111   9.974
49441SOL    HW250221  13.981   1.227  10.064
49442SOL     OW50222  11.098  10.179   4.516
49442SOL    HW150223  11.091  10.257   4.570
49442SOL    HW250224  11.134  10.210   4.433
49443SOL     OW50225   7.385  12.713  13.926
49443SOL    HW150226   7.407  12.803  13.903
49443SOL    HW250227   7.347  12.719  14.013
49444SOL     OW50228   3.245   2.048  10.375
49444SOL    HW150229   3.339   2.042  10.360
49444SOL    HW250230   3.213   2.105  10.304
49445SOL     OW50231  11.407  13.308   7.967
49445SOL    HW150232  11.326  13.359   7.971
49445SOL    HW250233  11.390  13.241   7.901
49446SOL     OW50234   3.125   9.080   1.352
49446SOL    HW150235   3.208   9.127   1.340
49446SOL    HW250236   3.099   9.053   1.264
49447SOL     OW50237  12.562  14.186   7.625
49447SOL    HW150238  12.573  14.277   7.650
49447SOL    HW250239  12.559  14.138   7.708
49448SOL     OW50240   3.992  10.761   2.352
49448SOL    HW150241   3.957  10.730   2.435
49448SOL    HW250242   4.080  10.722   2.346
49449SOL     OW50243   6.177  11.996   7.498
49449SOL    HW150244   6.127  11.922   7.532
49449SOL    HW250245   6.133  12.018   7.415
49450SOL     OW50246   4.899   2.704   5.077
49450SOL    HW150247   4.907   2.630   5.138
49450SOL    HW250248   4.965   2.687   5.010
49451SOL     OW50249   5.864   4.055   8.288
49451SOL    HW150250   5.939   4.111   8.308
49451SOL    HW250251   5.824   4.095   8.211
49452SOL     OW50252   8.595   0.527   2.955
49452SOL    HW150253   8.625   0.523   3.046
49452SOL    HW250254   8.673   0.512   2.903
49453SOL     OW50255  12.252   7.029  11.309
49453SOL    HW150256  12.261   7.058  11.400
49453SOL    HW250257  12.341   7.028  11.275
49454SOL     OW50258  11.541  12.865   9.142
49454SOL    HW150259  11.491  12.908   9.211
49454SOL    HW250260  11.623  12.839   9.184
49455SOL     OW50261   0.872   3.343   0.743
49455SOL    HW150262   0.810   3.324   0.673
49455SOL    HW250263   0.949   3.290   0.722
49456SOL     OW50264   1.181   3.470   2.400
49456SOL    HW150265   1.224   3.385   2.408
49456SOL    HW250266   1.107   3.454   2.340
49457SOL     OW50267   1.293   7.668   7.117
49457SOL    HW150268   1.310   7.756   7.149
49457SOL    HW250269   1.371   7.644   7.068
49458SOL     OW50270   7.501   7.587   7.193
49458SOL    HW150271   7.587   7.581   7.152
49458SOL    HW250272   7.519   7.612   7.284
49459SOL     OW50273  13.916   8.846   3.164
49459SOL    HW150274  13.987   8.793   3.199
49459SOL    HW250275  13.920   8.831   3.069
49460SOL     OW50276  10.064   1.545   3.173
49460SOL    HW150277  10.124   1.470   3.174
49460SOL    HW250278  10.101   1.606   3.237
49461SOL     OW50279   7.309  13.851   1.486
49461SOL    HW150280   7.378  13.893   1.537
49461SOL    HW250281   7.333  13.759   1.483
49462SOL     OW50282   9.994   6.357  12.330
49462SOL    HW150283   9.934   6.288  12.358
49462SOL    HW250284   9.937   6.426  12.295
49463SOL     OW50285  11.788  14.764   9.901
49463SOL    HW150286  11.736  14.728   9.973
49463SOL    HW250287  11.772  14.858   9.904
49464SOL     OW50288   5.213  13.811  14.665
49464SOL    HW150289   5.212  13.855  14.750
49464SOL    HW250290   5.215  13.717  14.687
49465SOL     OW50291   1.772   9.980  12.983
49465SOL    HW150292   1.728  10.065  12.978
49465SOL    HW250293   1.738   9.931  12.908
49466SOL     OW50294   8.191   5.193   1.589
49466SOL    HW150295   8.205   5.098   1.588
49466SOL    HW250296   8.165   5.214   1.500
49467SOL     OW50297  11.743   8.876  14.395
49467SOL    HW150298  11.673   8.899  14.334
49467SOL    HW250299  11.732   8.782  14.409
49468SOL     OW50300  14.629   3.213  11.015
49468SOL    HW150301  14.572   3.287  11.035
49468SOL    HW250302  14.642   3.219  10.920
49469SOL     OW50303  11.701   7.840   4.622
49469SOL    HW150304  11.703   7.781   4.546
49469SOL    HW250305  11.720   7.783   4.696
49470SOL     OW50306   0.403   9.640   6.862
49470SOL    HW150307   0.390   9.733   6.879
49470SOL    HW250308   0.488   9.634   6.819
49471SOL     OW50309   4.541   5.749   3.155
49471SOL    HW150310   4.629   5.713   3.149
49471SOL    HW250311   4.489   5.697   3.093
49472SOL     OW50312  12.468   8.920   0.710
49472SOL    HW150313  12.447   8.873   0.629
49472SOL    HW250314  12.496   9.007   0.682
49473SOL     OW50315   3.421   7.412  12.038
49473SOL    HW150316   3.396   7.415  12.131
49473SOL    HW250317   3.413   7.320  12.014
49474SOL     OW50318  13.854   9.148   3.566
49474SOL    HW150319  13.878   9.087   3.496
49474SOL    HW250320  13.902   9.228   3.546
49475SOL     OW50321   6.831   6.150  11.300
49475SOL    HW150322   6.905   6.211  11.306
49475SOL    HW250323   6.824   6.112  11.387
49476SOL     OW50324  14.633   4.838   0.907
49476SOL    HW150325  14.609   4.922   0.867
49476SOL    HW250326  14.581   4.834   0.987
49477SOL     OW50327  14.851   3.270  12.792
49477SOL    HW150328  14.848   3.355  12.836
49477SOL    HW250329  14.824   3.288  12.702
49478SOL     OW50330   5.838  13.389   4.432
49478SOL    HW150331   5.846  13.400   4.337
49478SOL    HW250332   5.909  13.330   4.455
49479SOL     OW50333  12.023   1.847  10.467
49479SOL    HW150334  11.957   1.885  10.409
49479SOL    HW250335  11.973   1.806  10.537
49480SOL     OW50336   5.865   3.717   4.327
49480SOL    HW150337   5.829   3.668   4.401
49480SOL    HW250338   5.807   3.793   4.319
49481SOL     OW50339   3.062   5.156  13.609
49481SOL    HW150340   3.042   5.063  13.597
49481SOL    HW250341   3.078   5.165  13.703
49482SOL     OW50342  11.643  10.184  10.973
49482SOL    HW150343  11.683  10.229  10.899
49482SOL    HW250344  11.702  10.112  10.993
49483SOL     OW50345   7.528  11.413   7.170
49483SOL    HW150346   7.575  11.430   7.252
49483SOL    HW250347   7.441  11.450   7.183
49484SOL     OW50348   2.929   3.410   3.507
49484SOL    HW150349   2.948   3.493   3.463
49484SOL    HW250350   2.932   3.430   3.600
49485SOL     OW50351   2.481   1.436  14.700
49485SOL    HW150352   2.566   1.469  14.669
49485SOL    HW250353   2.466   1.483  14.782
49486SOL     OW50354   8.723  12.424  14.525
49486SOL    HW150355   8.774  12.444  14.603
49486SOL    HW250356   8.767  12.350  14.484
49487SOL     OW50357   4.473   8.360   1.308
49487SOL    HW150358   4.469   8.384   1.401
49487SOL    HW250359   4.519   8.276   1.307
49488SOL     OW50360   7.676   5.623   1.395
49488SOL    HW150361   7.737   5.649   1.326
49488SOL    HW250362   7.595   5.669   1.374
49489SOL     OW50363  10.191   8.639   8.477
49489SOL    HW150364  10.163   8.654   8.387
49489SOL    HW250365  10.117   8.594   8.518
49490SOL     OW50366   0.336  10.200   9.521
49490SOL    HW150367   0.322  10.119   9.473
49490SOL    HW250368   0.431  10.203   9.537
49491SOL     OW50369   2.276   1.157   3.108
49491SOL    HW150370   2.338   1.094   3.073
49491SOL    HW250371   2.193   1.109   3.113
49492SOL     OW50372   8.526   8.848  12.552
49492SOL    HW150373   8.471   8.857  12.629
49492SOL    HW250374   8.615   8.838  12.587
49493SOL     OW50375  14.690  11.675   7.747
49493SOL    HW150376  14.753  11.745   7.766
49493SOL    HW250377  14.705  11.654   7.655
49494SOL     OW50378   0.409   5.494   6.142
49494SOL    HW150379   0.469   5.497   6.217
49494SOL    HW250380   0.389   5.401   6.131
49495SOL     OW50381   6.964   0.690   1.301
49495SOL    HW150382   6.949   0.784   1.311
49495SOL    HW250383   6.884   0.658   1.257
49496SOL     OW50384   3.782   0.822   2.789
49496SOL    HW150385   3.700   0.787   2.823
49496SOL    HW250386   3.804   0.894   2.848
49497SOL     OW50387   6.256   8.172   6.015
49497SOL    HW150388   6.271   8.257   6.056
49497SOL    HW250389   6.226   8.116   6.087
49498SOL     OW50390  11.947   1.662   0.519
49498SOL    HW150391  12.012   1.652   0.449
49498SOL    HW250392  11.991   1.627   0.597
49499SOL     OW50393   2.738   1.232   0.190
49499SOL    HW150394   2.667   1.228   0.254
49499SOL    HW250395   2.754   1.326   0.178
49500SOL     OW50396   1.498   8.488   6.750
49500SOL    HW150397   1.411   8.463   6.719
49500SOL    HW250398   1.498   8.463   6.842
49501SOL     OW50399   8.966  11.861   1.318
49501SOL    HW150400   8.935  11.937   1.367
49501SOL    HW250401   9.037  11.895   1.264
49502SOL     OW50402   4.156  10.748  11.334
49502SOL    HW150403   4.140  10.838  11.361
49502SOL    HW250404   4.231  10.720  11.385
49503SOL     OW50405   8.278   4.040  14.529
49503SOL    HW150406   8.215   4.066  14.595
49503SOL    HW250407   8.235   3.968  14.482
49504SOL     OW50408   2.556   7.861  12.489
49504SOL    HW150409   2.479   7.817  12.452
49504SOL    HW250410   2.531   7.884  12.578
49505SOL     OW50411  11.201   4.231   3.806
49505SOL    HW150412  11.157   4.200   3.885
49505SOL    HW250413  11.242   4.153   3.768
49506SOL     OW50414   8.230   4.674   0.270
49506SOL    HW150415   8.159   4.718   0.225
49506SOL    HW250416   8.309   4.723   0.246
49507SOL     OW50417  10.150   7.755   6.220
49507SOL    HW150418  10.085   7.715   6.278
49507SOL    HW250419  10.111   7.746   6.132
49508SOL     OW50420   9.344   9.308  12.995
49508SOL    HW150421   9.350   9.213  13.005
49508SOL    HW250422   9.434   9.339  12.996
49509SOL     OW50423  12.075   5.399  12.259
49509SOL    HW150424  12.033   5.425  12.177
49509SOL    HW250425  12.069   5.303  12.259
49510SOL     OW50426   3.384   4.920   6.656
49510SOL    HW150427   3.428   4.974   6.722
49510SOL    HW250428   3.335   4.855   6.706
49511SOL     OW50429   0.003   1.570  14.422
49511SOL    HW150430  14.785   1.587  14.434
49511SOL    HW250431   0.026   1.512  14.495
49512SOL     OW50432   5.148  10.369   4.109
49512SOL    HW150433   5.105  10.398   4.189
49512SOL    HW250434   5.225  10.426   4.100
49513SOL     OW50435   5.351   2.294   5.427
49513SOL    HW150436   5.439   2.316   5.458
49513SOL    HW250437   5.299   2.373   5.444
49514SOL     OW50438  10.266   9.570   0.780
49514SOL    HW150439  10.270   9.534   0.869
49514SOL    HW250440  10.256   9.664   0.793
49515SOL     OW50441   7.112  14.182   8.912
49515SOL    HW150442   7.052  14.107   8.906
49515SOL    HW250443   7.190  14.147   8.955
49516SOL     OW50444   5.133  10.054   6.729
49516SOL    HW150445   5.101  10.119   6.667
49516SOL    HW250446   5.150   9.977   6.676
49517SOL     OW50447   0.705   9.631   8.465
49517SOL    HW150448   0.702   9.649   8.559
49517SOL    HW250449   0.783   9.577   8.454
49518SOL     OW50450   7.426   1.362   8.958
49518SOL    HW150451   7.334   1.363   8.930
49518SOL    HW250452   7.423   1.329   9.048
49519SOL     OW50453   5.852   8.019  10.513
49519SOL    HW150454   5.921   7.984  10.455
49519SOL    HW250455   5.891   8.098  10.550
49520SOL     OW50456  10.161   3.176  11.990
49520SOL    HW150457  10.148   3.270  11.976
49520SOL    HW250458  10.094   3.134  11.936
49521SOL     OW50459   6.500   8.182   2.082
49521SOL    HW150460   6.472   8.095   2.053
49521SOL    HW250461   6.452   8.243   2.026
49522SOL     OW50462   0.248   6.992   9.330
49522SOL    HW150463   0.214   6.945   9.407
49522SOL    HW250464   0.245   7.084   9.356
49523SOL     OW50465   2.684   2.873   1.193
49523SOL    HW150466   2.691   2.882   1.098
49523SOL    HW250467   2.770   2.843   1.221
49524SOL     OW50468   9.180   4.766  12.767
49524SOL    HW150469   9.275   4.753  12.775
49524SOL    HW250470   9.163   4.756  12.673
49525SOL     OW50471  11.645   6.107   0.626
49525SOL    HW150472  11.557   6.075   0.647
49525SOL    HW250473  11.631   6.172   0.558
49526SOL     OW50474   3.617  12.993  13.708
49526SOL    HW150475   3.700  13.009  13.663
49526SOL    HW250476   3.603  13.072  13.761
49527SOL     OW50477   9.747  10.460   4.863
49527SOL    HW150478   9.740  10.495   4.774
49527SOL    HW250479   9.831  10.415   4.865
49528SOL     OW50480   7.244   2.778  12.551
49528SOL    HW150481   7.193   2.717  12.604
49528SOL    HW250482   7.335   2.749  12.562
49529SOL     OW50483   2.491   1.124   9.464
49529SOL    HW150484   2.576   1.080   9.464
49529SOL    HW250485   2.443   1.084   9.536
49530SOL     OW50486   8.204   2.535   7.534
49530SOL    HW150487   8.178   2.572   7.450
49530SOL    HW250488   8.264   2.464   7.511
49531SOL     OW50489  13.676   3.756  11.765
49531SOL    HW150490  13.628   3.688  11.719
49531SOL    HW250491  13.612   3.794  11.826
49532SOL     OW50492   3.062   5.615  14.562
49532SOL    HW150493   3.008   5.580  14.633
49532SOL    HW250494   3.114   5.540  14.533
49533SOL     OW50495   8.711   8.168  12.170
49533SOL    HW150496   8.710   8.174  12.074
49533SOL    HW250497   8.788   8.114  12.189
49534SOL     OW50498   5.811   3.735   5.500
49534SOL    HW150499   5.731   3.694   5.532
49534SOL    HW250500   5.853   3.668   5.446
49535SOL     OW50501   1.805   4.944   4.089
49535SOL    HW150502   1.723   4.897   4.071
49535SOL    HW250503   1.784   5.036   4.075
49536SOL     OW50504   5.248   4.644   5.821
49536SOL    HW150505   5.168   4.688   5.850
49536SOL    HW250506   5.310   4.715   5.803
49537SOL     OW50507   0.678  13.445   2.678
49537SOL    HW150508   0.760  13.492   2.669
49537SOL    HW250509   0.703  13.359   2.712
49538SOL     OW50510  11.974   9.255   8.569
49538SOL    HW150511  11.995   9.215   8.485
49538SOL    HW250512  11.880   9.241   8.580
49539SOL     OW50513  13.991   3.662   7.529
49539SOL    HW150514  14.033   3.702   7.605
49539SOL    HW250515  14.033   3.576   7.522
49540SOL     OW50516   2.286   1.023  13.742
49540SOL    HW150517   2.258   1.078  13.816
49540SOL    HW250518   2.244   0.938  13.758
49541SOL     OW50519   4.837   1.355  11.790
49541SOL    HW150520   4.764   1.389  11.841
49541SOL    HW250521   4.860   1.428  11.731
49542SOL     OW50522   1.179   3.245   7.937
49542SOL    HW150523   1.127   3.192   7.997
49542SOL    HW250524   1.249   3.282   7.991
49543SOL     OW50525  11.130  11.996   4.754
49543SOL    HW150526  11.141  11.916   4.806
49543SOL    HW250527  11.165  11.972   4.668
49544SOL     OW50528   5.248   5.317  10.835
49544SOL    HW150529   5.181   5.345  10.898
49544SOL    HW250530   5.197   5.282  10.761
49545SOL     OW50531   8.202  14.777  13.301
49545SOL    HW150532   8.123  14.747  13.257
49545SOL    HW250533   8.172  14.812  13.385
49546SOL     OW50534   5.286   9.524  13.384
49546SOL    HW150535   5.361   9.465  13.387
49546SOL    HW250536   5.301   9.578  13.306
49547SOL     OW50537   0.162  13.941   1.400
49547SOL    HW150538   0.125  14.024   1.431
49547SOL    HW250539   0.236  13.968   1.345
49548SOL     OW50540  10.832   9.073   5.380
49548SOL    HW150541  10.800   9.004   5.322
49548SOL    HW250542  10.868   9.139   5.321
49549SOL     OW50543  14.763   9.059  10.482
49549SOL    HW150544  14.757   9.053  10.387
49549SOL    HW250545  14.699   8.995  10.514
49550SOL     OW50546   9.509   4.146   8.610
49550SOL    HW150547   9.512   4.198   8.530
49550SOL    HW250548   9.422   4.107   8.610
49551SOL     OW50549   0.664   9.153  12.337
49551SOL    HW150550   0.650   9.099  12.259
49551SOL    HW250551   0.670   9.243  12.303
49552SOL     OW50552   0.883   6.711   7.615
49552SOL    HW150553   0.879   6.807   7.617
49552SOL    HW250554   0.838   6.683   7.694
49553SOL     OW50555   2.159   9.893   2.840
49553SOL    HW150556   2.157   9.832   2.766
49553SOL    HW250557   2.207   9.969   2.807
49554SOL     OW50558   7.910  14.604   8.146
49554SOL    HW150559   7.919  14.624   8.239
49554SOL    HW250560   7.815  14.601   8.131
49555SOL     OW50561   4.688   9.487  11.179
49555SOL    HW150562   4.711   9.540  11.255
49555SOL    HW250563   4.594   9.498  11.169
49556SOL     OW50564   8.757   1.035  13.978
49556SOL    HW150565   8.801   1.056  13.896
49556SOL    HW250566   8.815   1.071  14.046
49557SOL     OW50567   8.009  11.030   9.489
49557SOL    HW150568   8.008  10.986   9.404
49557SOL    HW250569   8.088  11.084   9.487
49558SOL     OW50570   6.897   4.607   0.522
49558SOL    HW150571   6.927   4.643   0.438
49558SOL    HW250572   6.930   4.517   0.522
49559SOL     OW50573   9.730   2.958   7.161
49559SOL    HW150574   9.787   2.894   7.120
49559SOL    HW250575   9.734   3.035   7.104
49560SOL     OW50576   9.174   2.465   7.048
49560SOL    HW150577   9.103   2.467   6.984
49560SOL    HW250578   9.254   2.460   6.996
49561SOL     OW50579  12.220   5.820   7.280
49561SOL    HW150580  12.215   5.748   7.343
49561SOL    HW250581  12.160   5.794   7.210
49562SOL     OW50582   1.990   0.163  13.161
49562SOL    HW150583   1.991   0.108  13.240
49562SOL    HW250584   1.904   0.147  13.122
49563SOL     OW50585  11.806   9.673   2.027
49563SOL    HW150586  11.727   9.622   2.011
49563SOL    HW250587  11.843   9.689   1.941
49564SOL     OW50588   3.444   2.002  13.691
49564SOL    HW150589   3.448   2.095  13.670
49564SOL    HW250590   3.351   1.982  13.700
49565SOL     OW50591  10.694   3.781   5.090
49565SOL    HW150592  10.692   3.696   5.134
49565SOL    HW250593  10.621   3.778   5.029
49566SOL     OW50594   1.222   1.959   8.305
49566SOL    HW150595   1.152   1.903   8.339
49566SOL    HW250596   1.187   2.048   8.310
49567SOL     OW50597  12.465   4.139   6.686
49567SOL    HW150598  12.411   4.129   6.607
49567SOL    HW250599  12.504   4.226   6.678
49568SOL     OW50600   6.417  12.865   5.462
49568SOL    HW150601   6.343  12.821   5.503
49568SOL    HW250602   6.412  12.955   5.493
49569SOL     OW50603   3.146   3.022  10.865
49569SOL    HW150604   3.158   2.942  10.916
49569SOL    HW250605   3.226   3.028  10.812
49570SOL     OW50606   9.780   8.258   2.456
49570SOL    HW150607   9.830   8.177   2.445
49570SOL    HW250608   9.800   8.286   2.546
49571SOL     OW50609   5.654  14.655   7.570
49571SOL    HW150610   5.701  14.727   7.528
49571SOL    HW250611   5.566  14.658   7.534
49572SOL     OW50612  11.543  11.634   7.992
49572SOL    HW150613  11.567  11.615   8.083
49572SOL    HW250614  11.503  11.553   7.961
49573SOL     OW50615   0.280   8.616  12.870
49573SOL    HW150616   0.284   8.707  12.839
49573SOL    HW250617   0.271   8.564  12.791
49574SOL     OW50618   2.990   2.493  11.576
49574SOL    HW150619   2.939   2.572  11.593
49574SOL    HW250620   3.005   2.454  11.662
49575SOL     OW50621   0.882   4.951   5.450
49575SOL    HW150622   0.939   4.881   5.418
49575SOL    HW250623   0.919   4.974   5.536
49576SOL     OW50624   6.896   6.562  11.347
49576SOL    HW150625   6.808   6.600  11.348
49576SOL    HW250626   6.953   6.634  11.373
49577SOL     OW50627   7.040  12.534   4.401
49577SOL    HW150628   6.968  12.596   4.390
49577SOL    HW250629   7.065  12.510   4.311
49578SOL     OW50630   5.034   2.304  10.535
49578SOL    HW150631   5.099   2.367  10.564
49578SOL    HW250632   4.955   2.356  10.521
49579SOL     OW50633   8.290   1.862   8.263
49579SOL    HW150634   8.348   1.789   8.244
49579SOL    HW250635   8.221   1.856   8.198
49580SOL     OW50636   8.756   1.734   5.792
49580SOL    HW150637   8.716   1.741   5.879
49580SOL    HW250638   8.692   1.775   5.733
49581SOL     OW50639   4.486   6.396   2.163
49581SOL    HW150640   4.410   6.453   2.178
49581SOL    HW250641   4.561   6.454   2.169
49582SOL     OW50642   5.695  14.404   3.730
49582SOL    HW150643   5.770  14.463   3.723
49582SOL    HW250644   5.716  14.347   3.804
49583SOL     OW50645   1.608   1.898   6.753
49583SOL    HW150646   1.662   1.954   6.809
49583SOL    HW250647   1.628   1.925   6.664
49584SOL     OW50648  14.123  14.544   9.383
49584SOL    HW150649  14.176  14.622   9.374
49584SOL    HW250650  14.053  14.554   9.318
49585SOL     OW50651   4.765   3.149   9.965
49585SOL    HW150652   4.725   3.062   9.959
49585SOL    HW250653   4.693   3.210   9.947
49586SOL     OW50654   1.020  11.402   1.752
49586SOL    HW150655   1.103  11.361   1.728
49586SOL    HW250656   0.962  11.329   1.774
49587SOL     OW50657  11.218   0.642  10.822
49587SOL    HW150658  11.206   0.718  10.766
49587SOL    HW250659  11.187   0.568  10.770
49588SOL     OW50660   7.262  13.001  10.505
49588SOL    HW150661   7.283  13.015  10.412
49588SOL    HW250662   7.316  13.065  10.551
49589SOL     OW50663   8.520   8.534   5.165
49589SOL    HW150664   8.513   8.629   5.172
49589SOL    HW250665   8.507   8.502   5.254
49590SOL     OW50666  11.527   8.682   5.027
49590SOL    HW150667  11.585   8.756   5.047
49590SOL    HW250668  11.533   8.626   5.104
49591SOL     OW50669   3.298  14.417   6.020
49591SOL    HW150670   3.350  14.377   6.090
49591SOL    HW250671   3.246  14.483   6.065
49592SOL     OW50672   3.310  12.560   2.221
49592SOL    HW150673   3.250  12.633   2.208
49592SOL    HW250674   3.344  12.572   2.309
49593SOL     OW50675  13.277   3.436  12.859
49593SOL    HW150676  13.331   3.358  12.865
49593SOL    HW250677  13.267   3.452  12.766
49594SOL     OW50678   6.340  11.491   5.432
49594SOL    HW150679   6.355  11.582   5.457
49594SOL    HW250680   6.309  11.449   5.513
49595SOL     OW50681   7.377   9.540   1.665
49595SOL    HW150682   7.372   9.572   1.575
49595SOL    HW250683   7.285   9.536   1.694
49596SOL     OW50684   5.716  13.196   2.160
49596SOL    HW150685   5.640  13.186   2.102
49596SOL    HW250686   5.782  13.138   2.122
49597SOL     OW50687   8.702  10.110   8.897
49597SOL    HW150688   8.619  10.107   8.850
49597SOL    HW250689   8.677  10.112   8.989
49598SOL     OW50690   5.230   5.573   3.063
49598SOL    HW150691   5.271   5.617   3.138
49598SOL    HW250692   5.144   5.613   3.056
49599SOL     OW50693  12.433   5.113  14.135
49599SOL    HW150694  12.443   5.181  14.201
49599SOL    HW250695  12.357   5.140  14.084
49600SOL     OW50696   7.087  13.289   5.776
49600SOL    HW150697   7.132  13.281   5.860
49600SOL    HW250698   6.994  13.291   5.799
49601SOL     OW50699   5.381  12.966  14.504
49601SOL    HW150700   5.433  12.933  14.430
49601SOL    HW250701   5.438  12.954  14.580
49602SOL     OW50702   4.008   1.101   9.029
49602SOL    HW150703   4.080   1.163   9.036
49602SOL    HW250704   4.050   1.019   9.003
49603SOL     OW50705   7.804   9.931   3.261
49603SOL    HW150706   7.846   9.860   3.213
49603SOL    HW250707   7.770   9.888   3.340
49604SOL     OW50708  11.188   7.460   0.599
49604SOL    HW150709  11.248   7.484   0.670
49604SOL    HW250710  11.245   7.444   0.524
49605SOL     OW50711  12.492   9.369  10.983
49605SOL    HW150712  12.469   9.462  10.992
49605SOL    HW250713  12.588   9.368  10.983
49606SOL     OW50714  13.645   9.324   1.002
49606SOL    HW150715  13.565   9.371   1.028
49606SOL    HW250716  13.711   9.352   1.066
49607SOL     OW50717   0.499   3.017   5.589
49607SOL    HW150718   0.461   3.105   5.592
49607SOL    HW250719   0.426   2.958   5.606
49608SOL     OW50720  11.229  11.290   5.017
49608SOL    HW150721  11.306  11.346   5.012
49608SOL    HW250722  11.255  11.208   4.976
49609SOL     OW50723  10.439  11.249   2.297
49609SOL    HW150724  10.460  11.156   2.297
49609SOL    HW250725  10.388  11.262   2.377
49610SOL     OW50726   4.148   6.832  13.575
49610SOL    HW150727   4.142   6.914  13.624
49610SOL    HW250728   4.141   6.764  13.643
49611SOL     OW50729   5.430   5.926   1.407
49611SOL    HW150730   5.453   5.854   1.348
49611SOL    HW250731   5.414   5.883   1.491
49612SOL     OW50732  10.961  10.958   9.507
49612SOL    HW150733  10.989  11.048   9.494
49612SOL    HW250734  10.950  10.924   9.418
49613SOL     OW50735   4.103   0.200   7.301
49613SOL    HW150736   4.082   0.107   7.313
49613SOL    HW250737   4.068   0.242   7.379
49614SOL     OW50738  12.028   3.713   5.356
49614SOL    HW150739  11.977   3.755   5.286
49614SOL    HW250740  12.076   3.643   5.313
49615SOL     OW50741  10.456   3.004   6.112
49615SOL    HW150742  10.389   3.006   6.043
49615SOL    HW250743  10.491   3.093   6.114
49616SOL     OW50744   0.572   9.409   7.136
49616SOL    HW150745   0.639   9.435   7.199
49616SOL    HW250746   0.607   9.436   7.051
49617SOL     OW50747  11.202   6.335   9.328
49617SOL    HW150748  11.115   6.327   9.367
49617SOL    HW250749  11.203   6.423   9.290
49618SOL     OW50750  11.908   8.621   5.077
49618SOL    HW150751  11.888   8.592   4.988
49618SOL    HW250752  11.841   8.580   5.131
49619SOL     OW50753   3.364   6.632   3.412
49619SOL    HW150754   3.289   6.599   3.463
49619SOL    HW250755   3.326   6.659   3.329
49620SOL     OW50756  11.921  13.397   1.272
49620SOL    HW150757  11.938  13.334   1.342
49620SOL    HW250758  11.981  13.372   1.202
49621SOL     OW50759  13.490  14.184   9.199
49621SOL    HW150760  13.519  14.151   9.285
49621SOL    HW250761  13.439  14.112   9.162
49622SOL     OW50762  11.632   4.968  11.490
49622SOL    HW150763  11.692   4.899  11.461
49622SOL    HW250764  11.627   4.957  11.585
49623SOL     OW50765   9.113  14.303  10.543
49623SOL    HW150766   9.112  14.209  10.527
49623SOL    HW250767   9.197  14.319  10.585
49624SOL     OW50768   1.123   6.541  13.560
49624SOL    HW150769   1.216   6.560  13.549
49624SOL    HW250770   1.113   6.450  13.532
49625SOL     OW50771  12.798   6.063   3.591
49625SOL    HW150772  12.809   6.036   3.682
49625SOL    HW250773  12.738   5.999   3.553
49626SOL     OW50774   3.786   6.808   6.929
49626SOL    HW150775   3.734   6.856   6.865
49626SOL    HW250776   3.779   6.860   7.009
49627SOL     OW50777   8.749   8.636   7.754
49627SOL    HW150778   8.813   8.567   7.736
49627SOL    HW250779   8.746   8.641   7.849
49628SOL     OW50780  12.616   2.196  10.425
49628SOL    HW150781  12.679   2.261  10.395
49628SOL    HW250782  12.590   2.149  10.345
49629SOL     OW50783   6.845   4.331   2.386
49629SOL    HW150784   6.897   4.290   2.455
49629SOL    HW250785   6.784   4.263   2.358
49630SOL     OW50786   5.988  10.271  10.532
49630SOL    HW150787   6.039  10.191  10.528
49630SOL    HW250788   5.909  10.248  10.582
49631SOL     OW50789   9.833   1.791   2.722
49631SOL    HW150790   9.788   1.782   2.638
49631SOL    HW250791   9.872   1.705   2.737
49632SOL     OW50792  14.204   3.146   2.085
49632SOL    HW150793  14.183   3.058   2.116
49632SOL    HW250794  14.208   3.199   2.165
49633SOL     OW50795  10.245   4.449  10.452
49633SOL    HW150796  10.206   4.450  10.365
49633SOL    HW250797  10.251   4.541  10.477
49634SOL     OW50798   3.831   8.775   9.900
49634SOL    HW150799   3.791   8.758   9.815
49634SOL    HW250800   3.799   8.704   9.956
49635SOL     OW50801   0.477  14.416   2.443
49635SOL    HW150802   0.501  14.462   2.363
49635SOL    HW250803   0.424  14.342   2.412
49636SOL     OW50804  10.669   1.355   3.730
49636SOL    HW150805  10.719   1.436   3.717
49636SOL    HW250806  10.724   1.288   3.689
49637SOL     OW50807   7.911  12.343   7.370
49637SOL    HW150808   7.835  12.355   7.314
49637SOL    HW250809   7.944  12.431   7.386
49638SOL     OW50810   8.890   0.695   6.563
49638SOL    HW150811   8.867   0.740   6.482
49638SOL    HW250812   8.814   0.639   6.582
49639SOL     OW50813   4.368   3.731   4.457
49639SOL    HW150814   4.461   3.732   4.480
49639SOL    HW250815   4.363   3.775   4.373
49640SOL     OW50816  12.774   5.616   4.366
49640SOL    HW150817  12.771   5.567   4.448
49640SOL    HW250818  12.785   5.550   4.299
49641SOL     OW50819   5.842  14.692   3.227
49641SOL    HW150820   5.919  14.736   3.189
49641SOL    HW250821   5.815  14.750   3.298
49642SOL     OW50822   6.937  10.044   6.207
49642SOL    HW150823   6.987  10.034   6.288
49642SOL    HW250824   6.865  10.103   6.230
49643SOL     OW50825   1.483   2.487   6.709
49643SOL    HW150826   1.408   2.498   6.768
49643SOL    HW250827   1.445   2.449   6.630
49644SOL     OW50828  14.760   6.789  12.115
49644SOL    HW150829  14.723   6.776  12.202
49644SOL    HW250830  14.738   6.879  12.092
49645SOL     OW50831   4.448   0.291  10.013
49645SOL    HW150832   4.459   0.382  10.037
49645SOL    HW250833   4.353   0.276  10.018
49646SOL     OW50834  14.851   6.144  13.912
49646SOL    HW150835   0.065   6.110  13.898
49646SOL    HW250836  14.864   6.237  13.931
49647SOL     OW50837   5.275   0.278  14.783
49647SOL    HW150838   5.227   0.220  14.724
49647SOL    HW250839   5.228   0.272  14.866
49648SOL     OW50840  13.039   1.085  10.766
49648SOL    HW150841  12.994   1.034  10.834
49648SOL    HW250842  13.100   1.141  10.814
49649SOL     OW50843  13.105   0.400  13.403
49649SOL    HW150844  13.059   0.460  13.462
49649SOL    HW250845  13.047   0.390  13.328
49650SOL     OW50846  11.827   9.931   3.109
49650SOL    HW150847  11.755   9.970   3.060
49650SOL    HW250848  11.906   9.958   3.062
49651SOL     OW50849   8.071   7.811   8.804
49651SOL    HW150850   8.095   7.748   8.872
49651SOL    HW250851   8.034   7.758   8.734
49652SOL     OW50852  11.593  10.721  10.828
49652SOL    HW150853  11.651  10.722  10.751
49652SOL    HW250854  11.593  10.629  10.856
49653SOL     OW50855   3.532   5.784   1.764
49653SOL    HW150856   3.599   5.851   1.749
49653SOL    HW250857   3.485   5.779   1.681
49654SOL     OW50858   6.286   8.140   1.058
49654SOL    HW150859   6.288   8.056   1.012
49654SOL    HW250860   6.226   8.127   1.131
49655SOL     OW50861   0.438   3.463   2.103
49655SOL    HW150862   0.435   3.509   2.187
49655SOL    HW250863   0.466   3.374   2.125
49656SOL     OW50864   8.169   3.726  14.069
49656SOL    HW150865   8.159   3.820  14.079
49656SOL    HW250866   8.202   3.714  13.980
49657SOL     OW50867   6.429  12.575   9.808
49657SOL    HW150868   6.336  12.600   9.808
49657SOL    HW250869   6.442  12.532   9.892
49658SOL     OW50870   8.677   1.340   0.667
49658SOL    HW150871   8.694   1.260   0.716
49658SOL    HW250872   8.593   1.324   0.624
49659SOL     OW50873   1.212   9.427  14.693
49659SOL    HW150874   1.217   9.485  14.616
49659SOL    HW250875   1.119   9.430  14.719
49660SOL     OW50876  11.209   7.370   1.342
49660SOL    HW150877  11.152   7.342   1.413
49660SOL    HW250878  11.294   7.384   1.383
49661SOL     OW50879   0.733   7.982   6.083
49661SOL    HW150880   0.642   7.969   6.058
49661SOL    HW250881   0.756   7.902   6.131
49662SOL     OW50882   0.974  10.226  14.429
49662SOL    HW150883   0.879  10.238  14.441
49662SOL    HW250884   1.012  10.306  14.465
49663SOL     OW50885   7.604   2.623  11.129
49663SOL    HW150886   7.695   2.643  11.152
49663SOL    HW250887   7.576   2.697  11.075
49664SOL     OW50888   1.384   6.931   9.060
49664SOL    HW150889   1.299   6.974   9.053
49664SOL    HW250890   1.392   6.880   8.980
49665SOL     OW50891  12.496   4.114   0.781
49665SOL    HW150892  12.556   4.103   0.854
49665SOL    HW250893  12.476   4.024   0.752
49666SOL     OW50894   6.233   7.163   7.297
49666SOL    HW150895   6.287   7.227   7.250
49666SOL    HW250896   6.217   7.094   7.233
49667SOL     OW50897   7.829  14.149   7.251
49667SOL    HW150898   7.883  14.177   7.325
49667SOL    HW250899   7.797  14.062   7.276
49668SOL     OW50900   3.798  14.699   2.109
49668SOL    HW150901   3.854  14.641   2.160
49668SOL    HW250902   3.740  14.639   2.061
49669SOL     OW50903   2.553   9.033  12.953
49669SOL    HW150904   2.519   9.092  13.020
49669SOL    HW250905   2.485   9.034  12.885
49670SOL     OW50906   0.975  12.466   4.322
49670SOL    HW150907   1.000  12.557   4.305
49670SOL    HW250908   1.019  12.444   4.404
49671SOL     OW50909   4.044  10.926  14.712
49671SOL    HW150910   4.063  11.019  14.700
49671SOL    HW250911   4.130  10.883  14.709
49672SOL     OW50912  13.659   2.724   3.231
49672SOL    HW150913  13.714   2.660   3.186
49672SOL    HW250914  13.675   2.709   3.324
49673SOL     OW50915   9.003   0.341   7.445
49673SOL    HW150916   8.911   0.330   7.468
49673SOL    HW250917   9.004   0.352   7.350
49674SOL     OW50918  13.043  11.592   0.233
49674SOL    HW150919  13.071  11.646   0.307
49674SOL    HW250920  12.969  11.542   0.267
49675SOL     OW50921   1.611   8.592   5.172
49675SOL    HW150922   1.569   8.674   5.146
49675SOL    HW250923   1.538   8.535   5.197
49676SOL     OW50924  12.218   5.701  14.155
49676SOL    HW150925  12.284   5.733  14.217
49676SOL    HW250926  12.158   5.774  14.144
49677SOL     OW50927   5.429  13.126  14.111
49677SOL    HW150928   5.396  13.204  14.066
49677SOL    HW250929   5.478  13.160  14.185
49678SOL     OW50930   5.225  14.863   2.683
49678SOL    HW150931   5.289  14.793   2.694
49678SOL    HW250932   5.141  14.822   2.706
49679SOL     OW50933  11.936  10.771   0.108
49679SOL    HW150934  11.852  10.816   0.108
49679SOL    HW250935  11.956  10.756   0.016
49680SOL     OW50936   7.626  10.088  12.622
49680SOL    HW150937   7.567  10.162  12.631
49680SOL    HW250938   7.571  10.017  12.591
49681SOL     OW50939   3.151   5.060   1.112
49681SOL    HW150940   3.123   5.043   1.022
49681SOL    HW250941   3.071   5.052   1.164
49682SOL     OW50942  13.325   2.918  12.849
49682SOL    HW150943  13.320   2.957  12.762
49682SOL    HW250944  13.246   2.865  12.857
49683SOL     OW50945   3.329   5.577   9.461
49683SOL    HW150946   3.290   5.613   9.381
49683SOL    HW250947   3.259   5.524   9.499
49684SOL     OW50948  11.536  10.135   0.766
49684SOL    HW150949  11.539  10.210   0.706
49684SOL    HW250950  11.446  10.104   0.760
49685SOL     OW50951  14.062  14.871   0.001
49685SOL    HW150952  14.120   0.071  14.865
49685SOL    HW250953  13.997   0.006  14.807
49686SOL     OW50954   1.536  13.557   9.594
49686SOL    HW150955   1.567  13.575   9.683
49686SOL    HW250956   1.615  13.551   9.541
49687SOL     OW50957   8.082   3.503   4.001
49687SOL    HW150958   8.049   3.590   4.020
49687SOL    HW250959   8.032   3.445   4.059
49688SOL     OW50960  12.784   4.309  11.333
49688SOL    HW150961  12.863   4.345  11.293
49688SOL    HW250962  12.788   4.340  11.424
49689SOL     OW50963  12.023   9.253   0.131
49689SOL    HW150964  11.933   9.273   0.103
49689SOL    HW250965  12.077   9.315   0.082
49690SOL     OW50966   6.107  13.579  12.426
49690SOL    HW150967   6.153  13.512  12.476
49690SOL    HW250968   6.024  13.591  12.472
49691SOL     OW50969  12.966   2.338  13.988
49691SOL    HW150970  13.003   2.362  13.903
49691SOL    HW250971  12.940   2.246  13.979
49692SOL     OW50972  12.109  14.528   9.166
49692SOL    HW150973  12.078  14.455   9.219
49692SOL    HW250974  12.197  14.546   9.198
49693SOL     OW50975  14.702   9.546  13.713
49693SOL    HW150976  14.759   9.576  13.784
49693SOL    HW250977  14.634   9.614  13.707
49694SOL     OW50978   2.602  14.010   9.233
49694SOL    HW150979   2.626  14.089   9.281
49694SOL    HW250980   2.508  14.019   9.219
49695SOL     OW50981   2.213   4.073   2.063
49695SOL    HW150982   2.152   4.146   2.080
49695SOL    HW250983   2.171   3.997   2.104
49696SOL     OW50984  14.548  11.787   5.149
49696SOL    HW150985  14.628  11.763   5.102
49696SOL    HW250986  14.482  11.726   5.115
49697SOL     OW50987   4.990   9.398   0.343
49697SOL    HW150988   5.048   9.372   0.271
49697SOL    HW250989   4.903   9.402   0.304
49698SOL     OW50990  13.047   5.085   5.665
49698SOL    HW150991  13.136   5.069   5.634
49698SOL    HW250992  13.037   5.180   5.663
49699SOL     OW50993   4.419   7.149   6.404
49699SOL    HW150994   4.472   7.075   6.374
49699SOL    HW250995   4.472   7.190   6.473
49700SOL     OW50996   3.431   2.433   7.578
49700SOL    HW150997   3.371   2.450   7.505
49700SOL    HW250998   3.503   2.384   7.538
49701SOL     OW50999   1.201  13.391  13.145
49701SOL    HW151000   1.116  13.382  13.101
49701SOL    HW251001   1.241  13.468  13.103
49702SOL     OW51002  10.815  13.956  13.121
49702SOL    HW151003  10.734  13.906  13.118
49702SOL    HW251004  10.884  13.890  13.130
49703SOL     OW51005   4.003   6.941   0.490
49703SOL    HW151006   3.913   6.920   0.518
49703SOL    HW251007   4.036   6.860   0.453
49704SOL     OW51008  14.342  14.502   9.077
49704SOL    HW151009  14.295  14.418   9.081
49704SOL    HW251010  14.399  14.502   9.154
49705SOL     OW51011  13.814   8.400   0.164
49705SOL    HW151012  13.806   8.412   0.070
49705SOL    HW251013  13.794   8.487   0.201
49706SOL     OW51014  11.467  11.347  11.902
49706SOL    HW151015  11.433  11.436  11.913
49706SOL    HW251016  11.457  11.328  11.809
49707SOL     OW51017   9.295   1.621  11.759
49707SOL    HW151018   9.345   1.599  11.837
49707SOL    HW251019   9.210   1.580  11.772
49708SOL     OW51020  11.269   9.944   2.433
49708SOL    HW151021  11.363   9.931   2.448
49708SOL    HW251022  11.227   9.875   2.485
49709SOL     OW51023   0.603  11.148   9.157
49709SOL    HW151024   0.687  11.165   9.198
49709SOL    HW251025   0.617  11.167   9.064
49710SOL     OW51026   2.304   3.576   0.184
49710SOL    HW151027   2.328   3.486   0.203
49710SOL    HW251028   2.369   3.604   0.119
49711SOL     OW51029   8.551  12.226   2.282
49711SOL    HW151030   8.618  12.195   2.221
49711SOL    HW251031   8.599  12.271   2.350
49712SOL     OW51032   8.649  13.892  11.153
49712SOL    HW151033   8.699  13.822  11.111
49712SOL    HW251034   8.679  13.972  11.110
49713SOL     OW51035   3.572   8.809  13.854
49713SOL    HW151036   3.572   8.839  13.763
49713SOL    HW251037   3.545   8.717  13.848
49714SOL     OW51038   2.075   2.473   8.126
49714SOL    HW151039   2.111   2.561   8.112
49714SOL    HW251040   2.006   2.465   8.060
49715SOL     OW51041  11.091   0.373   7.487
49715SOL    HW151042  11.059   0.286   7.510
49715SOL    HW251043  11.112   0.366   7.394
49716SOL     OW51044   0.562   7.918  10.295
49716SOL    HW151045   0.586   7.826  10.305
49716SOL    HW251046   0.640   7.967  10.320
49717SOL     OW51047   4.893   0.866   7.318
49717SOL    HW151048   4.914   0.959   7.313
49717SOL    HW251049   4.846   0.856   7.401
49718SOL     OW51050   0.382  10.068   1.302
49718SOL    HW151051   0.364  10.044   1.211
49718SOL    HW251052   0.371  10.162   1.305
49719SOL     OW51053   3.353   9.757  14.413
49719SOL    HW151054   3.411   9.798  14.349
49719SOL    HW251055   3.303   9.693  14.363
49720SOL     OW51056  12.139  10.916   5.947
49720SOL    HW151057  12.131  10.823   5.926
49720SOL    HW251058  12.164  10.917   6.040
49721SOL     OW51059   8.059   0.318   7.390
49721SOL    HW151060   8.029   0.341   7.479
49721SOL    HW251061   7.999   0.365   7.332
49722SOL     OW51062   4.937   0.724  12.907
49722SOL    HW151063   4.969   0.652  12.853
49722SOL    HW251064   4.976   0.803  12.869
49723SOL     OW51065  11.394   2.482  14.550
49723SOL    HW151066  11.350   2.538  14.486
49723SOL    HW251067  11.400   2.397  14.508
49724SOL     OW51068   4.943   3.774   0.938
49724SOL    HW151069   4.965   3.730   1.020
49724SOL    HW251070   4.888   3.711   0.891
49725SOL     OW51071  12.375  11.879  14.775
49725SOL    HW151072  12.357  11.869  14.681
49725SOL    HW251073  12.471  11.880  14.781
49726SOL     OW51074   6.058  10.431   6.050
49726SOL    HW151075   6.119  10.361   6.072
49726SOL    HW251076   6.112  10.499   6.010
49727SOL     OW51077   9.893   8.639   7.726
49727SOL    HW151078   9.837   8.714   7.708
49727SOL    HW251079   9.838   8.579   7.777
49728SOL     OW51080  14.255   4.888   0.732
49728SOL    HW151081  14.270   4.817   0.669
49728SOL    HW251082  14.254   4.845   0.817
49729SOL     OW51083  10.483  11.759   6.068
49729SOL    HW151084  10.526  11.761   5.983
49729SOL    HW251085  10.389  11.763   6.047
49730SOL     OW51086   1.801   9.735   0.242
49730SOL    HW151087   1.718   9.697   0.214
49730SOL    HW251088   1.868   9.671   0.217
49731SOL     OW51089   0.020   2.194   1.062
49731SOL    HW151090   0.049   2.228   0.977
49731SOL    HW251091  14.829   2.128   1.040
49732SOL     OW51092   5.145   9.638  11.940
49732SOL    HW151093   5.090   9.560  11.947
49732SOL    HW251094   5.086   9.708  11.916
49733SOL     OW51095   5.855   4.389   1.982
49733SOL    HW151096   5.837   4.472   1.937
49733SOL    HW251097   5.800   4.325   1.936
49734SOL     OW51098   6.799   9.493  10.700
49734SOL    HW151099   6.734   9.430  10.731
49734SOL    HW251100   6.749   9.558  10.652
49735SOL     OW51101   3.621   7.179   5.655
49735SOL    HW151102   3.552   7.217   5.599
49735SOL    HW251103   3.701   7.190   5.604
49736SOL     OW51104  12.106   5.741   7.060
49736SOL    HW151105  12.093   5.787   6.977
49736SOL    HW251106  12.050   5.663   7.052
49737SOL     OW51107  13.023   0.834  10.903
49737SOL    HW151108  12.951   0.771  10.899
49737SOL    HW251109  13.016   0.874  10.990
49738SOL     OW51110   5.590  14.776   4.642
49738SOL    HW151111   5.514  14.720   4.627
49738SOL    HW251112   5.653  14.751   4.575
49739SOL     OW51113   4.295  10.941   5.998
49739SOL    HW151114   4.294  11.036   6.001
49739SOL    HW251115   4.217  10.917   5.948
49740SOL     OW51116  10.985  10.090   9.580
49740SOL    HW151117  10.907  10.036   9.581
49740SOL    HW251118  10.952  10.180   9.584
49741SOL     OW51119   6.724   9.950  12.804
49741SOL    HW151120   6.752   9.884  12.740
49741SOL    HW251121   6.654   9.907  12.853
49742SOL     OW51122   2.379   3.749   3.782
49742SOL    HW151123   2.308   3.755   3.718
49742SOL    HW251124   2.336   3.753   3.867
49743SOL     OW51125   6.291   9.163   8.353
49743SOL    HW151126   6.382   9.162   8.383
49743SOL    HW251127   6.239   9.170   8.433
49744SOL     OW51128   3.294   5.313  11.203
49744SOL    HW151129   3.343   5.270  11.274
49744SOL    HW251130   3.311   5.260  11.126
49745SOL     OW51131  11.620   3.610   9.774
49745SOL    HW151132  11.570   3.662   9.711
49745SOL    HW251133  11.685   3.672   9.809
49746SOL     OW51134  12.447   1.543   4.796
49746SOL    HW151135  12.475   1.614   4.739
49746SOL    HW251136  12.360   1.518   4.763
49747SOL     OW51137   9.677   8.517   3.305
49747SOL    HW151138   9.589   8.554   3.309
49747SOL    HW251139   9.725   8.560   3.376
49748SOL     OW51140   3.369  13.359  13.670
49748SOL    HW151141   3.437  13.308  13.714
49748SOL    HW251142   3.384  13.449  13.699
49749SOL     OW51143  13.136  14.677  10.082
49749SOL    HW151144  13.134  14.724  10.166
49749SOL    HW251145  13.166  14.589  10.105
49750SOL     OW51146  14.680  13.163  10.836
49750SOL    HW151147  14.712  13.134  10.751
49750SOL    HW251148  14.645  13.083  10.877
49751SOL     OW51149  11.058   9.030   0.035
49751SOL    HW151150  10.978   9.032   0.087
49751SOL    HW251151  11.128   9.019   0.099
49752SOL     OW51152  13.528  14.713   3.384
49752SOL    HW151153  13.467  14.785   3.368
49752SOL    HW251154  13.504  14.680   3.470
49753SOL     OW51155   7.570  11.012  10.347
49753SOL    HW151156   7.543  11.097  10.314
49753SOL    HW251157   7.607  10.967  10.271
49754SOL     OW51158   9.457   8.202   1.732
49754SOL    HW151159   9.376   8.153   1.716
49754SOL    HW251160   9.440   8.252   1.812
49755SOL     OW51161   1.477   4.351  13.346
49755SOL    HW151162   1.451   4.260  13.329
49755SOL    HW251163   1.483   4.356  13.442
49756SOL     OW51164   3.489   9.567   2.238
49756SOL    HW151165   3.547   9.494   2.220
49756SOL    HW251166   3.453   9.548   2.325
49757SOL     OW51167   3.624   9.964   5.891
49757SOL    HW151168   3.671  10.042   5.860
49757SOL    HW251169   3.679   9.929   5.961
49758SOL     OW51170   7.799   6.924   4.772
49758SOL    HW151171   7.810   6.949   4.680
49758SOL    HW251172   7.795   7.008   4.819
49759SOL     OW51173  11.766   4.172   5.036
49759SOL    HW151174  11.845   4.197   4.988
49759SOL    HW251175  11.756   4.239   5.104
49760SOL     OW51176  12.926   2.874   6.619
49760SOL    HW151177  12.966   2.916   6.543
49760SOL    HW251178  12.951   2.930   6.693
49761SOL     OW51179   8.879   2.353  14.265
49761SOL    HW151180   8.925   2.277  14.299
49761SOL    HW251181   8.912   2.427  14.316
49762SOL     OW51182  12.147   8.921   5.889
49762SOL    HW151183  12.161   8.997   5.945
49762SOL    HW251184  12.082   8.951   5.825
49763SOL     OW51185   7.397   7.891   7.125
49763SOL    HW151186   7.441   7.816   7.085
49763SOL    HW251187   7.441   7.967   7.087
49764SOL     OW51188  11.949   4.127  10.587
49764SOL    HW151189  12.042   4.112  10.571
49764SOL    HW251190  11.941   4.221  10.601
49765SOL     OW51191  13.968  10.307  10.030
49765SOL    HW151192  14.033  10.241  10.053
49765SOL    HW251193  13.986  10.328   9.939
49766SOL     OW51194   4.670   2.718   7.201
49766SOL    HW151195   4.586   2.725   7.156
49766SOL    HW251196   4.715   2.800   7.180
49767SOL     OW51197   3.092  14.647  12.524
49767SOL    HW151198   3.005  14.644  12.565
49767SOL    HW251199   3.093  14.573  12.464
49768SOL     OW51200  10.662   7.333  12.335
49768SOL    HW151201  10.757   7.321  12.332
49768SOL    HW251202  10.650   7.428  12.336
49769SOL     OW51203   8.871   4.756   1.954
49769SOL    HW151204   8.939   4.731   2.016
49769SOL    HW251205   8.915   4.755   1.868
49770SOL     OW51206   9.515   3.733  13.122
49770SOL    HW151207   9.596   3.689  13.094
49770SOL    HW251208   9.518   3.818  13.079
49771SOL     OW51209   2.877   1.142   9.840
49771SOL    HW151210   2.824   1.071   9.876
49771SOL    HW251211   2.817   1.189   9.782
49772SOL     OW51212  12.996   2.755   8.368
49772SOL    HW151213  12.909   2.779   8.399
49772SOL    HW251214  12.995   2.775   8.274
49773SOL     OW51215   5.956   0.011   6.755
49773SOL    HW151216   6.020  14.829   6.712
49773SOL    HW251217   5.998   0.097   6.758
49774SOL     OW51218   3.171  10.012   3.044
49774SOL    HW151219   3.230   9.941   3.017
49774SOL    HW251220   3.157   9.998   3.137
49775SOL     OW51221   4.324   5.338  13.340
49775SOL    HW151222   4.414   5.361  13.363
49775SOL    HW251223   4.308   5.257  13.389
49776SOL     OW51224   3.865   2.474   2.067
49776SOL    HW151225   3.871   2.452   1.974
49776SOL    HW251226   3.853   2.390   2.111
49777SOL     OW51227  13.326   6.669  12.879
49777SOL    HW151228  13.417   6.681  12.853
49777SOL    HW251229  13.319   6.575  12.900
49778SOL     OW51230  13.656   2.024   2.458
49778SOL    HW151231  13.660   2.057   2.368
49778SOL    HW251232  13.666   2.102   2.512
49779SOL     OW51233   6.589  12.787   3.119
49779SOL    HW151234   6.500  12.804   3.151
49779SOL    HW251235   6.601  12.849   3.047
49780SOL     OW51236  13.286   1.973  11.504
49780SOL    HW151237  13.240   1.999  11.425
49780SOL    HW251238  13.318   2.055  11.542
49781SOL     OW51239   7.828  13.527   9.144
49781SOL    HW151240   7.774  13.496   9.070
49781SOL    HW251241   7.846  13.448   9.195
49782SOL     OW51242   3.840   6.182   3.042
49782SOL    HW151243   3.840   6.088   3.025
49782SOL    HW251244   3.875   6.190   3.130
49783SOL     OW51245  13.151  14.387   2.609
49783SOL    HW151246  13.071  14.434   2.586
49783SOL    HW251247  13.147  14.379   2.704
49784SOL     OW51248  11.037   1.151  11.009
49784SOL    HW151249  11.126   1.178  10.987
49784SOL    HW251250  11.016   1.081  10.947
49785SOL     OW51251  13.444   2.452  13.543
49785SOL    HW151252  13.400   2.399  13.609
49785SOL    HW251253  13.480   2.526  13.592
49786SOL     OW51254  13.504   8.795   8.276
49786SOL    HW151255  13.543   8.868   8.229
49786SOL    HW251256  13.492   8.826   8.366
49787SOL     OW51257   0.424  13.889  13.366
49787SOL    HW151258   0.504  13.838  13.359
49787SOL    HW251259   0.362  13.843  13.309
49788SOL     OW51260  12.512   2.310  13.941
49788SOL    HW151261  12.515   2.305  13.846
49788SOL    HW251262  12.429   2.353  13.960
49789SOL     OW51263   4.556  11.571   9.946
49789SOL    HW151264   4.543  11.521   9.865
49789SOL    HW251265   4.486  11.542  10.004
49790SOL     OW51266  13.353  12.184  10.202
49790SOL    HW151267  13.277  12.203  10.147
49790SOL    HW251268  13.427  12.189  10.143
49791SOL     OW51269   7.047   0.228   3.562
49791SOL    HW151270   7.140   0.250   3.554
49791SOL    HW251271   7.026   0.245   3.654
49792SOL     OW51272   6.894   0.214   1.041
49792SOL    HW151273   6.899   0.289   1.101
49792SOL    HW251274   6.847   0.147   1.089
49793SOL     OW51275  11.856  12.935  12.843
49793SOL    HW151276  11.943  12.919  12.807
49793SOL    HW251277  11.871  12.978  12.927
49794SOL     OW51278   4.533   5.171  11.065
49794SOL    HW151279   4.484   5.245  11.100
49794SOL    HW251280   4.599   5.211  11.008
49795SOL     OW51281  12.643   6.277   6.469
49795SOL    HW151282  12.701   6.207   6.437
49795SOL    HW251283  12.666   6.353   6.416
49796SOL     OW51284   1.637  11.639   2.730
49796SOL    HW151285   1.655  11.654   2.823
49796SOL    HW251286   1.650  11.725   2.689
49797SOL     OW51287  14.467   1.930   3.670
49797SOL    HW151288  14.446   2.023   3.661
49797SOL    HW251289  14.408   1.899   3.738
49798SOL     OW51290  12.091   6.011   2.752
49798SOL    HW151291  12.040   5.959   2.814
49798SOL    HW251292  12.103   6.096   2.795
49799SOL     OW51293   9.934  12.358   2.660
49799SOL    HW151294   9.959  12.448   2.681
49799SOL    HW251295  10.015  12.316   2.633
49800SOL     OW51296  13.005   5.739   0.459
49800SOL    HW151297  13.025   5.833   0.464
49800SOL    HW251298  12.962   5.719   0.543
49801SOL     OW51299   1.142  13.922   7.755
49801SOL    HW151300   1.149  13.933   7.660
49801SOL    HW251301   1.069  13.861   7.767
49802SOL     OW51302   0.488   6.713   3.198
49802SOL    HW151303   0.448   6.800   3.188
49802SOL    HW251304   0.582   6.729   3.188
49803SOL     OW51305  10.162  14.459   5.224
49803SOL    HW151306  10.240  14.406   5.205
49803SOL    HW251307  10.191  14.549   5.217
49804SOL     OW51308   5.624   6.940   6.053
49804SOL    HW151309   5.620   6.857   6.101
49804SOL    HW251310   5.564   6.998   6.100
49805SOL     OW51311  14.361  12.025  13.627
49805SOL    HW151312  14.286  12.047  13.682
49805SOL    HW251313  14.422  12.098  13.639
49806SOL     OW51314   9.250  10.851  10.115
49806SOL    HW151315   9.312  10.911  10.158
49806SOL    HW251316   9.199  10.814  10.187
49807SOL     OW51317   2.251   8.962  13.668
49807SOL    HW151318   2.291   9.048  13.679
49807SOL    HW251319   2.281   8.932  13.582
49808SOL     OW51320   6.630   3.159   2.165
49808SOL    HW151321   6.706   3.175   2.221
49808SOL    HW251322   6.665   3.162   2.076
49809SOL     OW51323  11.862   1.872   0.104
49809SOL    HW151324  11.810   1.938   0.149
49809SOL    HW251325  11.949   1.911   0.095
49810SOL     OW51326   4.553  13.142   5.858
49810SOL    HW151327   4.558  13.179   5.770
49810SOL    HW251328   4.610  13.065   5.854
49811SOL     OW51329  14.542  11.940   5.383
49811SOL    HW151330  14.531  11.880   5.309
49811SOL    HW251331  14.619  11.907   5.430
49812SOL     OW51332  12.137   1.913   2.215
49812SOL    HW151333  12.058   1.927   2.266
49812SOL    HW251334  12.109   1.865   2.137
49813SOL     OW51335  12.425  11.843   1.257
49813SOL    HW151336  12.425  11.851   1.162
49813SOL    HW251337  12.491  11.906   1.287
49814SOL     OW51338   5.106   6.389   6.002
49814SOL    HW151339   5.197   6.411   5.980
49814SOL    HW251340   5.100   6.405   6.096
49815SOL     OW51341   1.513   7.290   9.589
49815SOL    HW151342   1.460   7.296   9.509
49815SOL    HW251343   1.591   7.342   9.569
49816SOL     OW51344   4.132  14.018   2.847
49816SOL    HW151345   4.212  14.063   2.819
49816SOL    HW251346   4.085  14.084   2.898
49817SOL     OW51347  12.459   0.984   3.486
49817SOL    HW151348  12.463   0.895   3.520
49817SOL    HW251349  12.459   0.973   3.391
49818SOL     OW51350   5.588  10.895   9.390
49818SOL    HW151351   5.599  10.979   9.347
49818SOL    HW251352   5.499  10.897   9.426
49819SOL     OW51353   7.396   9.435   6.025
49819SOL    HW151354   7.436   9.349   6.042
49819SOL    HW251355   7.447   9.496   6.078
49820SOL     OW51356  11.306  13.918  12.993
49820SOL    HW151357  11.317  13.991  13.053
49820SOL    HW251358  11.213  13.921  12.969
49821SOL     OW51359  10.146   5.540   9.685
49821SOL    HW151360  10.167   5.633   9.697
49821SOL    HW251361  10.112   5.535   9.595
49822SOL     OW51362   5.345   1.852   7.944
49822SOL    HW151363   5.290   1.774   7.953
49822SOL    HW251364   5.320   1.908   8.017
49823SOL     OW51365   9.383   0.676   0.666
49823SOL    HW151366   9.389   0.649   0.758
49823SOL    HW251367   9.299   0.723   0.661
49824SOL     OW51368   3.156   6.330   0.791
49824SOL    HW151369   3.091   6.262   0.771
49824SOL    HW251370   3.128   6.365   0.876
49825SOL     OW51371   6.920   4.189   8.009
49825SOL    HW151372   6.994   4.162   8.064
49825SOL    HW251373   6.867   4.111   7.998
49826SOL     OW51374   2.519   0.352  10.623
49826SOL    HW151375   2.460   0.310  10.685
49826SOL    HW251376   2.467   0.361  10.543
49827SOL     OW51377  11.710   0.403   2.017
49827SOL    HW151378  11.625   0.442   1.998
49827SOL    HW251379  11.771   0.477   2.019
49828SOL     OW51380   6.224   3.710   0.779
49828SOL    HW151381   6.153   3.726   0.717
49828SOL    HW251382   6.258   3.797   0.799
49829SOL     OW51383   4.808  12.070   9.544
49829SOL    HW151384   4.723  12.027   9.543
49829SOL    HW251385   4.795  12.147   9.599
49830SOL     OW51386  13.068  10.604   4.025
49830SOL    HW151387  13.047  10.513   4.004
49830SOL    HW251388  13.114  10.636   3.948
49831SOL     OW51389   8.643  11.148   8.306
49831SOL    HW151390   8.608  11.218   8.362
49831SOL    HW251391   8.586  11.148   8.229
49832SOL     OW51392   3.657   9.569   4.026
49832SOL    HW151393   3.679   9.654   4.062
49832SOL    HW251394   3.609   9.525   4.096
49833SOL     OW51395  10.938  11.049   9.785
49833SOL    HW151396  10.930  11.144   9.780
49833SOL    HW251397  10.922  11.019   9.696
49834SOL     OW51398   3.209   8.505   9.437
49834SOL    HW151399   3.113   8.511   9.433
49834SOL    HW251400   3.231   8.532   9.526
49835SOL     OW51401   4.808  10.758   2.187
49835SOL    HW151402   4.823  10.809   2.266
49835SOL    HW251403   4.857  10.677   2.200
49836SOL     OW51404  11.240  13.422   5.366
49836SOL    HW151405  11.266  13.425   5.458
49836SOL    HW251406  11.177  13.350   5.362
49837SOL     OW51407  14.312  10.090   8.243
49837SOL    HW151408  14.295  10.062   8.153
49837SOL    HW251409  14.236  10.059   8.292
49838SOL     OW51410   9.948  11.333  13.216
49838SOL    HW151411   9.928  11.372  13.301
49838SOL    HW251412   9.991  11.250  13.237
49839SOL     OW51413   4.455   3.126   6.716
49839SOL    HW151414   4.397   3.199   6.741
49839SOL    HW251415   4.541   3.166   6.709
49840SOL     OW51416  13.580   4.348   4.720
49840SOL    HW151417  13.654   4.358   4.780
49840SOL    HW251418  13.600   4.269   4.671
49841SOL     OW51419   4.870  11.450   0.734
49841SOL    HW151420   4.958  11.482   0.751
49841SOL    HW251421   4.819  11.476   0.810
49842SOL     OW51422  10.774  12.634   6.518
49842SOL    HW151423  10.685  12.670   6.526
49842SOL    HW251424  10.803  12.621   6.608
49843SOL     OW51425   7.858   2.774  13.507
49843SOL    HW151426   7.831   2.851  13.457
49843SOL    HW251427   7.946   2.753  13.474
49844SOL     OW51428   6.922  13.756   7.125
49844SOL    HW151429   6.928  13.748   7.220
49844SOL    HW251430   6.887  13.671   7.097
49845SOL     OW51431   5.622   7.219  10.933
49845SOL    HW151432   5.631   7.232  10.838
49845SOL    HW251433   5.537   7.177  10.943
49846SOL     OW51434   9.001   3.034   2.089
49846SOL    HW151435   8.990   2.992   2.174
49846SOL    HW251436   9.067   3.102   2.105
49847SOL     OW51437   9.816   6.882  14.570
49847SOL    HW151438   9.737   6.907  14.521
49847SOL    HW251439   9.847   6.964  14.608
49848SOL     OW51440   5.476   1.212   0.656
49848SOL    HW151441   5.481   1.149   0.585
49848SOL    HW251442   5.404   1.181   0.711
49849SOL     OW51443   4.218  14.094   5.354
49849SOL    HW151444   4.229  14.189   5.365
49849SOL    HW251445   4.306  14.060   5.344
49850SOL     OW51446  12.134   6.621  11.502
49850SOL    HW151447  12.178   6.591  11.422
49850SOL    HW251448  12.110   6.540  11.547
49851SOL     OW51449   2.906   7.879  11.784
49851SOL    HW151450   2.868   7.803  11.741
49851SOL    HW251451   2.884   7.867  11.877
49852SOL     OW51452  10.232   8.768  12.029
49852SOL    HW151453  10.237   8.690  11.974
49852SOL    HW251454  10.201   8.837  11.971
49853SOL     OW51455   5.617   5.139   3.739
49853SOL    HW151456   5.709   5.160   3.752
49853SOL    HW251457   5.571   5.187   3.809
49854SOL     OW51458   8.558   3.130  10.778
49854SOL    HW151459   8.507   3.100  10.703
49854SOL    HW251460   8.605   3.207  10.745
49855SOL     OW51461   2.301  14.053   6.140
49855SOL    HW151462   2.387  14.038   6.178
49855SOL    HW251463   2.268  13.966   6.118
49856SOL     OW51464   3.412   9.136   3.028
49856SOL    HW151465   3.336   9.078   3.031
49856SOL    HW251466   3.464   9.112   3.104
49857SOL     OW51467   0.767   9.342   3.531
49857SOL    HW151468   0.732   9.253   3.538
49857SOL    HW251469   0.844   9.342   3.587
49858SOL     OW51470   2.111   6.255   8.234
49858SOL    HW151471   2.050   6.328   8.239
49858SOL    HW251472   2.197   6.296   8.220
49859SOL     OW51473   5.419   1.050  13.029
49859SOL    HW151474   5.475   1.082  13.100
49859SOL    HW251475   5.350   1.116  13.021
49860SOL     OW51476  12.725   6.414   0.970
49860SOL    HW151477  12.754   6.358   0.898
49860SOL    HW251478  12.671   6.481   0.928
49861SOL     OW51479  13.977  10.106   0.324
49861SOL    HW151480  13.946  10.084   0.236
49861SOL    HW251481  13.956  10.198   0.335
49862SOL     OW51482   6.554   8.286   9.040
49862SOL    HW151483   6.619   8.338   9.088
49862SOL    HW251484   6.549   8.327   8.954
49863SOL     OW51485   0.342   6.060   8.640
49863SOL    HW151486   0.343   6.001   8.565
49863SOL    HW251487   0.371   6.005   8.714
49864SOL     OW51488   5.011   1.262   7.885
49864SOL    HW151489   5.063   1.194   7.928
49864SOL    HW251490   5.042   1.262   7.795
49865SOL     OW51491  13.590   8.303   9.925
49865SOL    HW151492  13.661   8.317   9.863
49865SOL    HW251493  13.562   8.212   9.911
49866SOL     OW51494   7.666   0.164   0.603
49866SOL    HW151495   7.570   0.167   0.604
49866SOL    HW251496   7.687   0.098   0.537
49867SOL     OW51497   5.326   9.500  14.196
49867SOL    HW151498   5.419   9.514  14.212
49867SOL    HW251499   5.321   9.412  14.159
49868SOL     OW51500   0.700  13.603   7.564
49868SOL    HW151501   0.767  13.638   7.504
49868SOL    HW251502   0.617  13.620   7.519
49869SOL     OW51503   0.503  14.694   0.308
49869SOL    HW151504   0.540  14.779   0.282
49869SOL    HW251505   0.500  14.697   0.403
49870SOL     OW51506   1.563   7.034   8.190
49870SOL    HW151507   1.654   7.015   8.168
49870SOL    HW251508   1.567   7.118   8.235
49871SOL     OW51509   5.693  11.092   4.430
49871SOL    HW151510   5.680  11.187   4.427
49871SOL    HW251511   5.760  11.079   4.498
49872SOL     OW51512   1.013   4.798   8.615
49872SOL    HW151513   0.931   4.772   8.658
49872SOL    HW251514   1.081   4.772   8.677
49873SOL     OW51515   4.778   0.871   4.444
49873SOL    HW151516   4.806   0.910   4.526
49873SOL    HW251517   4.847   0.894   4.381
49874SOL     OW51518   3.435   5.899   3.501
49874SOL    HW151519   3.409   5.844   3.575
49874SOL    HW251520   3.364   5.962   3.491
49875SOL     OW51521   1.004   1.879   6.411
49875SOL    HW151522   1.070   1.852   6.348
49875SOL    HW251523   1.018   1.821   6.486
49876SOL     OW51524   7.028   5.846  13.877
49876SOL    HW151525   6.971   5.882  13.945
49876SOL    HW251526   6.970   5.793  13.823
49877SOL     OW51527   8.994  11.584   4.071
49877SOL    HW151528   8.903  11.609   4.088
49877SOL    HW251529   9.022  11.644   4.002
49878SOL     OW51530  10.066   9.296  14.386
49878SOL    HW151531  10.056   9.326  14.295
49878SOL    HW251532   9.977   9.292  14.420
49879SOL     OW51533   4.145   9.550   9.001
49879SOL    HW151534   4.140   9.543   8.906
49879SOL    HW251535   4.094   9.627   9.023
49880SOL     OW51536  10.421   6.296   4.618
49880SOL    HW151537  10.448   6.290   4.710
49880SOL    HW251538  10.503   6.297   4.569
49881SOL     OW51539   1.205  11.575   1.985
49881SOL    HW151540   1.150  11.563   2.063
49881SOL    HW251541   1.286  11.529   2.007
49882SOL     OW51542  13.139   3.921  10.933
49882SOL    HW151543  13.060   3.950  10.978
49882SOL    HW251544  13.185   4.002  10.910
49883SOL     OW51545   2.333  10.705   4.269
49883SOL    HW151546   2.301  10.795   4.261
49883SOL    HW251547   2.402  10.710   4.334
49884SOL     OW51548  11.568   9.658   6.733
49884SOL    HW151549  11.624   9.713   6.677
49884SOL    HW251550  11.485   9.654   6.686
49885SOL     OW51551  11.438   5.392   4.868
49885SOL    HW151552  11.524   5.414   4.832
49885SOL    HW251553  11.423   5.457   4.936
49886SOL     OW51554   9.609   2.963   0.954
49886SOL    HW151555   9.525   2.953   0.910
49886SOL    HW251556   9.594   3.029   1.021
49887SOL     OW51557   2.216   1.503   9.137
49887SOL    HW151558   2.154   1.576   9.134
49887SOL    HW251559   2.275   1.524   9.210
49888SOL     OW51560  11.099   0.825   6.201
49888SOL    HW151561  11.123   0.756   6.140
49888SOL    HW251562  11.021   0.792   6.245
49889SOL     OW51563  12.886  12.210   5.575
49889SOL    HW151564  12.899  12.216   5.669
49889SOL    HW251565  12.907  12.119   5.554
49890SOL     OW51566   6.643   1.092   5.420
49890SOL    HW151567   6.594   1.025   5.468
49890SOL    HW251568   6.618   1.174   5.462
49891SOL     OW51569   5.347   8.344   5.730
49891SOL    HW151570   5.329   8.257   5.693
49891SOL    HW251571   5.343   8.330   5.825
49892SOL     OW51572  12.360   2.083  11.100
49892SOL    HW151573  12.335   2.152  11.039
49892SOL    HW251574  12.343   2.001  11.052
49893SOL     OW51575  12.286   9.668   7.237
49893SOL    HW151576  12.360   9.609   7.252
49893SOL    HW251577  12.223   9.646   7.304
49894SOL     OW51578   2.465   9.669   1.257
49894SOL    HW151579   2.528   9.635   1.320
49894SOL    HW251580   2.397   9.601   1.252
49895SOL     OW51581   4.108  11.504   4.506
49895SOL    HW151582   4.060  11.557   4.442
49895SOL    HW251583   4.197  11.499   4.470
49896SOL     OW51584   8.389   2.849  12.217
49896SOL    HW151585   8.357   2.929  12.258
49896SOL    HW251586   8.383   2.782  12.285
49897SOL     OW51587   0.808   7.942   3.152
49897SOL    HW151588   0.727   7.894   3.163
49897SOL    HW251589   0.797   7.989   3.069
49898SOL     OW51590   5.549   2.536  12.485
49898SOL    HW151591   5.566   2.578  12.569
49898SOL    HW251592   5.601   2.455  12.488
49899SOL     OW51593   9.550   8.649  12.443
49899SOL    HW151594   9.510   8.652  12.356
49899SOL    HW251595   9.475   8.647  12.504
49900SOL     OW51596  12.881  11.906   8.691
49900SOL    HW151597  12.899  11.982   8.746
49900SOL    HW251598  12.968  11.874   8.665
49901SOL     OW51599   8.249   0.831   6.934
49901SOL    HW151600   8.340   0.858   6.949
49901SOL    HW251601   8.252   0.735   6.940
49902SOL     OW51602   1.945   8.075  13.729
49902SOL    HW151603   1.878   8.021  13.686
49902SOL    HW251604   1.898   8.120  13.799
49903SOL     OW51605  10.304   8.321   5.203
49903SOL    HW151606  10.370   8.390   5.210
49903SOL    HW251607  10.355   8.239   5.201
49904SOL     OW51608   3.592  11.516   4.411
49904SOL    HW151609   3.621  11.461   4.484
49904SOL    HW251610   3.576  11.602   4.450
49905SOL     OW51611   2.204   3.912  10.343
49905SOL    HW151612   2.204   4.004  10.317
49905SOL    HW251613   2.155   3.867  10.274
49906SOL     OW51614   1.960  11.511   6.615
49906SOL    HW151615   1.963  11.545   6.705
49906SOL    HW251616   2.048  11.478   6.600
49907SOL     OW51617  13.902  13.623   0.905
49907SOL    HW151618  13.813  13.631   0.870
49907SOL    HW251619  13.906  13.534   0.938
49908SOL     OW51620  11.281  13.278   1.565
49908SOL    HW151621  11.321  13.332   1.633
49908SOL    HW251622  11.191  13.309   1.559
49909SOL     OW51623   9.959   4.194   7.406
49909SOL    HW151624   9.983   4.260   7.472
49909SOL    HW251625   9.878   4.155   7.440
49910SOL     OW51626   9.082   4.352   2.599
49910SOL    HW151627   9.015   4.371   2.534
49910SOL    HW251628   9.041   4.289   2.659
49911SOL     OW51629  10.397   4.688   2.966
49911SOL    HW151630  10.465   4.681   3.033
49911SOL    HW251631  10.381   4.597   2.940
49912SOL     OW51632   7.476   3.135   4.717
49912SOL    HW151633   7.438   3.163   4.634
49912SOL    HW251634   7.479   3.039   4.711
49913SOL     OW51635   1.879   8.595   1.875
49913SOL    HW151636   1.844   8.551   1.952
49913SOL    HW251637   1.801   8.620   1.825
49914SOL     OW51638   3.674   8.503   0.463
49914SOL    HW151639   3.758   8.546   0.450
49914SOL    HW251640   3.693   8.410   0.457
49915SOL     OW51641  11.436   4.343   5.086
49915SOL    HW151642  11.489   4.371   5.011
49915SOL    HW251643  11.399   4.259   5.059
49916SOL     OW51644  13.837   9.270   9.327
49916SOL    HW151645  13.869   9.188   9.289
49916SOL    HW251646  13.748   9.249   9.357
49917SOL     OW51647   9.766  12.042  11.858
49917SOL    HW151648   9.767  11.947  11.855
49917SOL    HW251649   9.858  12.068  11.853
49918SOL     OW51650  12.249  14.771   4.708
49918SOL    HW151651  12.231  14.685   4.745
49918SOL    HW251652  12.200  14.773   4.626
49919SOL     OW51653  10.198  12.078  12.061
49919SOL    HW151654  10.272  12.135  12.083
49919SOL    HW251655  10.165  12.048  12.146
49920SOL     OW51656   7.973   7.955   4.848
49920SOL    HW151657   8.063   7.923   4.854
49920SOL    HW251658   7.919   7.880   4.873
49921SOL     OW51659   4.244   1.610  11.296
49921SOL    HW151660   4.337   1.622  11.272
49921SOL    HW251661   4.246   1.586  11.388
49922SOL     OW51662   6.444  10.665   1.384
49922SOL    HW151663   6.530  10.694   1.353
49922SOL    HW251664   6.457  10.647   1.477
49923SOL     OW51665   9.480  12.562  13.951
49923SOL    HW151666   9.402  12.529  13.908
49923SOL    HW251667   9.483  12.655  13.929
49924SOL     OW51668  12.773   3.913  14.779
49924SOL    HW151669  12.740   3.998  14.749
49924SOL    HW251670  12.858   3.904  14.737
49925SOL     OW51671   1.655  12.445   3.351
49925SOL    HW151672   1.697  12.529   3.332
49925SOL    HW251673   1.728  12.383   3.360
49926SOL     OW51674   4.460   5.259   9.189
49926SOL    HW151675   4.452   5.252   9.093
49926SOL    HW251676   4.404   5.333   9.212
49927SOL     OW51677   0.921   8.705  10.556
49927SOL    HW151678   0.879   8.629  10.516
49927SOL    HW251679   0.880   8.781  10.515
49928SOL     OW51680  13.150  13.517   3.743
49928SOL    HW151681  13.184  13.515   3.833
49928SOL    HW251682  13.121  13.427   3.726
49929SOL     OW51683  11.415   0.731   4.062
49929SOL    HW151684  11.504   0.758   4.040
49929SOL    HW251685  11.363   0.811   4.056
49930SOL     OW51686  11.070  10.107  13.488
49930SOL    HW151687  11.120  10.026  13.485
49930SOL    HW251688  11.078  10.137  13.579
49931SOL     OW51689   6.763   8.755   5.415
49931SOL    HW151690   6.809   8.743   5.498
49931SOL    HW251691   6.683   8.802   5.438
49932SOL     OW51692  14.502   6.094   4.315
49932SOL    HW151693  14.416   6.054   4.326
49932SOL    HW251694  14.545   6.084   4.400
49933SOL     OW51695   2.006   7.439  11.408
49933SOL    HW151696   1.983   7.432  11.315
49933SOL    HW251697   2.043   7.354  11.430
49934SOL     OW51698   9.193   6.957   9.718
49934SOL    HW151699   9.206   6.881   9.661
49934SOL    HW251700   9.229   7.030   9.669
49935SOL     OW51701   9.124   8.655   1.858
49935SOL    HW151702   9.113   8.588   1.926
49935SOL    HW251703   9.191   8.618   1.800
49936SOL     OW51704  13.132   0.980   2.869
49936SOL    HW151705  13.172   0.976   2.782
49936SOL    HW251706  13.070   1.052   2.864
49937SOL     OW51707  12.172   9.239  14.153
49937SOL    HW151708  12.117   9.252  14.230
49937SOL    HW251709  12.245   9.186  14.184
49938SOL     OW51710  12.402  10.227  12.177
49938SOL    HW151711  12.487  10.183  12.178
49938SOL    HW251712  12.339  10.160  12.203
49939SOL     OW51713  11.502   8.456   5.593
49939SOL    HW151714  11.454   8.429   5.672
49939SOL    HW251715  11.579   8.399   5.591
49940SOL     OW51716  12.055  14.142  10.667
49940SOL    HW151717  12.148  14.133  10.646
49940SOL    HW251718  12.032  14.231  10.642
49941SOL     OW51719  14.630  12.685   4.800
49941SOL    HW151720  14.628  12.635   4.882
49941SOL    HW251721  14.655  12.774   4.827
49942SOL     OW51722   1.744   3.096   5.506
49942SOL    HW151723   1.781   3.142   5.431
49942SOL    HW251724   1.759   3.156   5.580
49943SOL     OW51725  12.665   1.585  11.734
49943SOL    HW151726  12.602   1.622  11.672
49943SOL    HW251727  12.725   1.658  11.753
49944SOL     OW51728   2.032   2.656  13.803
49944SOL    HW151729   2.001   2.727  13.746
49944SOL    HW251730   2.104   2.695  13.853
49945SOL     OW51731   2.771  10.063   6.175
49945SOL    HW151732   2.722  10.026   6.101
49945SOL    HW251733   2.850  10.100   6.136
49946SOL     OW51734   4.230   1.625   4.812
49946SOL    HW151735   4.290   1.662   4.747
49946SOL    HW251736   4.153   1.599   4.761
49947SOL     OW51737   5.064   7.744   1.075
49947SOL    HW151738   5.079   7.731   0.981
49947SOL    HW251739   4.981   7.699   1.092
49948SOL     OW51740   1.501   0.472  12.526
49948SOL    HW151741   1.570   0.492  12.464
49948SOL    HW251742   1.546   0.428  12.599
49949SOL     OW51743   1.748   8.723   8.049
49949SOL    HW151744   1.742   8.741   7.955
49949SOL    HW251745   1.717   8.803   8.091
49950SOL     OW51746  11.499  10.553  12.095
49950SOL    HW151747  11.509  10.584  12.185
49950SOL    HW251748  11.571  10.593  12.047
49951SOL     OW51749   7.320   9.143   2.800
49951SOL    HW151750   7.404   9.103   2.824
49951SOL    HW251751   7.334   9.175   2.710
49952SOL     OW51752   0.709   5.138   6.621
49952SOL    HW151753   0.777   5.192   6.579
49952SOL    HW251754   0.749   5.051   6.630
49953SOL     OW51755   6.985   2.893   3.455
49953SOL    HW151756   7.073   2.874   3.486
49953SOL    HW251757   6.989   2.878   3.360
49954SOL     OW51758  10.405  14.300   4.509
49954SOL    HW151759  10.440  14.325   4.595
49954SOL    HW251760  10.402  14.205   4.512
49955SOL     OW51761   7.217  13.912   0.062
49955SOL    HW151762   7.203  14.004   0.086
49955SOL    HW251763   7.163  13.899  14.859
49956SOL     OW51764   7.946   0.653   0.110
49956SOL    HW151765   7.977   0.593   0.178
49956SOL    HW251766   7.990   0.625   0.031
49957SOL     OW51767  13.650  12.725   9.708
49957SOL    HW151768  13.633  12.708   9.801
49957SOL    HW251769  13.587  12.669   9.662
49958SOL     OW51770   4.884   4.062   5.581
49958SOL    HW151771   4.938   4.007   5.525
49958SOL    HW251772   4.941   4.084   5.655
49959SOL     OW51773  12.134   4.397   2.267
49959SOL    HW151774  12.112   4.309   2.297
49959SOL    HW251775  12.228   4.393   2.246
49960SOL     OW51776  12.739  14.356  10.086
49960SOL    HW151777  12.797  14.293  10.043
49960SOL    HW251778  12.778  14.441  10.068
49961SOL     OW51779   7.662   2.713   3.307
49961SOL    HW151780   7.608   2.791   3.322
49961SOL    HW251781   7.633   2.651   3.373
49962SOL     OW51782   1.803  13.375   0.658
49962SOL    HW151783   1.730  13.340   0.708
49962SOL    HW251784   1.869  13.397   0.724
49963SOL     OW51785   2.181  12.419  10.241
49963SOL    HW151786   2.188  12.360  10.316
49963SOL    HW251787   2.195  12.506  10.279
49964SOL     OW51788   4.062   2.831   4.200
49964SOL    HW151789   4.031   2.884   4.127
49964SOL    HW251790   4.077   2.895   4.270
49965SOL     OW51791   9.706   1.754   0.260
49965SOL    HW151792   9.753   1.781   0.338
49965SOL    HW251793   9.671   1.668   0.281
49966SOL     OW51794  12.612   0.701   2.164
49966SOL    HW151795  12.534   0.697   2.220
49966SOL    HW251796  12.623   0.612   2.131
49967SOL     OW51797   5.127  11.405   5.394
49967SOL    HW151798   5.080  11.463   5.454
49967SOL    HW251799   5.217  11.404   5.427
49968SOL     OW51800  12.956   7.747   4.144
49968SOL    HW151801  13.008   7.690   4.087
49968SOL    HW251802  12.883   7.692   4.172
49969SOL     OW51803   9.680  13.891   2.821
49969SOL    HW151804   9.591  13.928   2.822
49969SOL    HW251805   9.736  13.964   2.849
49970SOL     OW51806   5.394   3.635   6.773
49970SOL    HW151807   5.400   3.675   6.687
49970SOL    HW251808   5.318   3.578   6.769
49971SOL     OW51809   2.466  12.184   2.314
49971SOL    HW151810   2.560  12.194   2.297
49971SOL    HW251811   2.442  12.105   2.266
49972SOL     OW51812   3.390   9.205  13.923
49972SOL    HW151813   3.403   9.113  13.900
49972SOL    HW251814   3.295   9.219  13.913
49973SOL     OW51815  12.786   2.973   9.703
49973SOL    HW151816  12.859   2.911   9.714
49973SOL    HW251817  12.765   2.969   9.610
49974SOL     OW51818   1.029  12.427   1.799
49974SOL    HW151819   0.967  12.355   1.813
49974SOL    HW251820   1.037  12.434   1.704
49975SOL     OW51821  14.439   2.159  11.015
49975SOL    HW151822  14.526   2.144  11.053
49975SOL    HW251823  14.398   2.224  11.071
49976SOL     OW51824  10.254   7.654  11.358
49976SOL    HW151825  10.228   7.582  11.301
49976SOL    HW251826  10.343   7.632  11.385
49977SOL     OW51827   1.412   6.363   8.023
49977SOL    HW151828   1.480   6.429   8.016
49977SOL    HW251829   1.339   6.398   7.972
49978SOL     OW51830   2.249   8.716   8.656
49978SOL    HW151831   2.272   8.801   8.694
49978SOL    HW251832   2.159   8.727   8.625
49979SOL     OW51833   4.881  14.540  11.082
49979SOL    HW151834   4.926  14.615  11.122
49979SOL    HW251835   4.850  14.572  10.997
49980SOL     OW51836   3.411  14.471   7.860
49980SOL    HW151837   3.347  14.541   7.850
49980SOL    HW251838   3.473  14.504   7.925
49981SOL     OW51839   9.047   0.789   4.614
49981SOL    HW151840   9.015   0.875   4.585
49981SOL    HW251841   9.042   0.734   4.536
49982SOL     OW51842   8.035   7.386  12.576
49982SOL    HW151843   7.943   7.373  12.601
49982SOL    HW251844   8.030   7.447  12.502
49983SOL     OW51845   1.156  10.122  13.294
49983SOL    HW151846   1.247  10.096  13.302
49983SOL    HW251847   1.153  10.179  13.218
49984SOL     OW51848  12.237   8.907  13.686
49984SOL    HW151849  12.211   8.947  13.769
49984SOL    HW251850  12.159   8.915  13.631
49985SOL     OW51851   5.601   1.384  10.843
49985SOL    HW151852   5.649   1.356  10.765
49985SOL    HW251853   5.599   1.306  10.899
49986SOL     OW51854  14.474  10.514   9.565
49986SOL    HW151855  14.541  10.578   9.541
49986SOL    HW251856  14.524  10.435   9.588
49987SOL     OW51857   8.911  11.873  10.136
49987SOL    HW151858   8.966  11.849  10.211
49987SOL    HW251859   8.942  11.818  10.064
49988SOL     OW51860  10.651   5.248  10.076
49988SOL    HW151861  10.580   5.192  10.108
49988SOL    HW251862  10.721   5.187  10.054
49989SOL     OW51863  12.937   0.531   8.398
49989SOL    HW151864  12.875   0.482   8.345
49989SOL    HW251865  12.916   0.507   8.489
49990SOL     OW51866  12.638   4.842   3.433
49990SOL    HW151867  12.608   4.841   3.342
49990SOL    HW251868  12.587   4.911   3.475
49991SOL     OW51869   5.560   6.913   9.967
49991SOL    HW151870   5.543   6.963   9.887
49991SOL    HW251871   5.639   6.953  10.005
49992SOL     OW51872   6.920   2.972   9.879
49992SOL    HW151873   6.904   2.995   9.788
49992SOL    HW251874   6.893   3.050   9.928
49993SOL     OW51875   4.410   6.877  14.824
49993SOL    HW151876   4.463   6.946  14.783
49993SOL    HW251877   4.439   6.796  14.782
49994SOL     OW51878   2.335   1.186   8.544
49994SOL    HW151879   2.333   1.116   8.479
49994SOL    HW251880   2.411   1.168   8.598
49995SOL     OW51881   8.493   3.795  14.335
49995SOL    HW151882   8.582   3.776  14.305
49995SOL    HW251883   8.448   3.711  14.327
49996SOL     OW51884  13.835  11.214   1.853
49996SOL    HW151885  13.762  11.155   1.833
49996SOL    HW251886  13.886  11.218   1.772
49997SOL     OW51887   9.787  11.461  10.739
49997SOL    HW151888   9.782  11.556  10.751
49997SOL    HW251889   9.863  11.435  10.791
49998SOL     OW51890  12.952   0.965   4.571
49998SOL    HW151891  12.954   0.887   4.626
49998SOL    HW251892  12.859   0.987   4.564
49999SOL     OW51893   3.027   8.196   5.825
49999SOL    HW151894   2.948   8.249   5.814
49999SOL    HW251895   3.007   8.137   5.898
50000SOL     OW51896  11.171   5.622   0.367
50000SOL    HW151897  11.186   5.531   0.341
50000SOL    HW251898  11.076   5.631   0.370
50001SOL     OW51899  14.637   7.820  10.465
50001SOL    HW151900  14.637   7.842  10.558
50001SOL    HW251901  14.728   7.835  10.437
50002SOL     OW51902   4.703  14.233  14.684
50002SOL    HW151903   4.638  14.275  14.741
50002SOL    HW251904   4.760  14.305  14.658
50003SOL     OW51905   0.180   5.886   0.178
50003SOL    HW151906   0.086   5.872   0.183
50003SOL    HW251907   0.215   5.805   0.141
50004SOL     OW51908   8.735   8.601   8.835
50004SOL    HW151909   8.763   8.509   8.829
50004SOL    HW251910   8.647   8.597   8.871
50005SOL     OW51911  12.676   4.645   9.472
50005SOL    HW151912  12.759   4.599   9.483
50005SOL    HW251913  12.665   4.653   9.377
50006SOL     OW51914   8.761  13.387   4.891
50006SOL    HW151915   8.715  13.375   4.974
50006SOL    HW251916   8.709  13.336   4.828
50007SOL     OW51917  14.489   4.838   6.754
50007SOL    HW151918  14.413   4.826   6.697
50007SOL    HW251919  14.548   4.766   6.729
50008SOL     OW51920   1.020   9.015  14.416
50008SOL    HW151921   1.101   9.044  14.374
50008SOL    HW251922   0.980   8.955  14.352
50009SOL     OW51923   7.943   7.734   1.263
50009SOL    HW151924   8.007   7.743   1.334
50009SOL    HW251925   7.893   7.656   1.287
50010SOL     OW51926   1.512  13.209   6.823
50010SOL    HW151927   1.512  13.184   6.730
50010SOL    HW251928   1.424  13.243   6.838
50011SOL     OW51929  13.237  11.920  10.264
50011SOL    HW151930  13.306  11.891  10.204
50011SOL    HW251931  13.239  12.015  10.258
50012SOL     OW51932  12.809   4.616   2.652
50012SOL    HW151933  12.796   4.709   2.631
50012SOL    HW251934  12.847   4.579   2.572
50013SOL     OW51935   2.476   2.144   2.999
50013SOL    HW151936   2.534   2.139   2.924
50013SOL    HW251937   2.531   2.120   3.074
50014SOL     OW51938   9.636   5.522   8.111
50014SOL    HW151939   9.606   5.554   8.196
50014SOL    HW251940   9.557   5.489   8.068
50015SOL     OW51941  12.191  13.539   8.814
50015SOL    HW151942  12.226  13.481   8.882
50015SOL    HW251943  12.156  13.614   8.863
50016SOL     OW51944   1.293  10.554  12.146
50016SOL    HW151945   1.379  10.513  12.154
50016SOL    HW251946   1.307  10.626  12.083
50017SOL     OW51947   6.492   3.304  10.576
50017SOL    HW151948   6.570   3.317  10.630
50017SOL    HW251949   6.442   3.236  10.622
50018SOL     OW51950   7.971  10.481   5.420
50018SOL    HW151951   8.038  10.505   5.356
50018SOL    HW251952   7.890  10.518   5.384
50019SOL     OW51953   8.537   6.223   0.609
50019SOL    HW151954   8.518   6.314   0.634
50019SOL    HW251955   8.631   6.214   0.620
50020SOL     OW51956   9.301   3.569  13.728
50020SOL    HW151957   9.275   3.502  13.791
50020SOL    HW251958   9.261   3.650  13.761
50021SOL     OW51959   8.929  13.089   3.926
50021SOL    HW151960   8.862  13.156   3.920
50021SOL    HW251961   8.942  13.077   4.020
50022SOL     OW51962   9.660  14.172  14.656
50022SOL    HW151963   9.590  14.123  14.699
50022SOL    HW251964   9.718  14.104  14.621
50023SOL     OW51965   2.930  13.651  11.632
50023SOL    HW151966   2.959  13.639  11.723
50023SOL    HW251967   2.835  13.642  11.637
50024SOL     OW51968  10.128  14.765   8.220
50024SOL    HW151969  10.185  14.820   8.274
50024SOL    HW251970  10.071  14.828   8.175
50025SOL     OW51971   4.249  10.076   5.600
50025SOL    HW151972   4.212  10.069   5.511
50025SOL    HW251973   4.311  10.149   5.594
50026SOL     OW51974   0.205   5.949  11.255
50026SOL    HW151975   0.265   6.023  11.244
50026SOL    HW251976   0.149   5.952  11.178
50027SOL     OW51977   8.088   1.358   9.075
50027SOL    HW151978   8.049   1.439   9.107
50027SOL    HW251979   8.051   1.290   9.131
50028SOL     OW51980   9.505   0.332   0.721
50028SOL    HW151981   9.445   0.335   0.796
50028SOL    HW251982   9.448   0.318   0.645
50029SOL     OW51983   2.734   0.353  11.251
50029SOL    HW151984   2.768   0.271  11.214
50029SOL    HW251985   2.709   0.405  11.175
50030SOL     OW51986   4.030   5.256   3.309
50030SOL    HW151987   4.068   5.170   3.325
50030SOL    HW251988   4.105   5.314   3.300
50031SOL     OW51989   0.774   0.151   4.240
50031SOL    HW151990   0.748   0.063   4.269
50031SOL    HW251991   0.695   0.204   4.253
50032SOL     OW51992  11.900  14.857   1.006
50032SOL    HW151993  11.957  14.839   0.931
50032SOL    HW251994  11.832  14.789   1.002
50033SOL     OW51995   2.825   8.506  10.870
50033SOL    HW151996   2.840   8.473  10.781
50033SOL    HW251997   2.733   8.532  10.871
50034SOL     OW51998  10.743   5.891  13.462
50034SOL    HW151999  10.788   5.826  13.408
50034SOL    HW252000  10.811   5.926  13.518
50035SOL     OW52001   4.178   4.380   9.635
50035SOL    HW152002   4.107   4.399   9.573
50035SOL    HW252003   4.210   4.466   9.662
50036SOL     OW52004   3.757   1.389   3.901
50036SOL    HW152005   3.794   1.352   3.981
50036SOL    HW252006   3.799   1.341   3.830
50037SOL     OW52007   0.567   1.865   3.746
50037SOL    HW152008   0.590   1.953   3.716
50037SOL    HW252009   0.499   1.879   3.812
50038SOL     OW52010   8.422   8.668  14.714
50038SOL    HW152011   8.406   8.762  14.725
50038SOL    HW252012   8.419   8.654  14.620
50039SOL     OW52013   2.331  13.649   9.572
50039SOL    HW152014   2.399  13.706   9.536
50039SOL    HW252015   2.359  13.560   9.550
50040SOL     OW52016   0.255  10.261   2.339
50040SOL    HW152017   0.199  10.337   2.327
50040SOL    HW252018   0.319  10.288   2.406
50041SOL     OW52019  13.981   7.079   9.107
50041SOL    HW152020  14.006   6.998   9.063
50041SOL    HW252021  13.886   7.074   9.114
50042SOL     OW52022  10.009   5.431  13.875
50042SOL    HW152023  10.061   5.437  13.955
50042SOL    HW252024   9.935   5.490  13.890
50043SOL     OW52025  10.712   8.976   1.579
50043SOL    HW152026  10.749   8.917   1.513
50043SOL    HW252027  10.623   8.944   1.592
50044SOL     OW52028  14.256   5.692   0.600
50044SOL    HW152029  14.169   5.730   0.614
50044SOL    HW252030  14.317   5.762   0.621
50045SOL     OW52031  13.000   9.025   7.815
50045SOL    HW152032  13.000   9.112   7.856
50045SOL    HW252033  13.041   8.968   7.880
50046SOL     OW52034   7.611   8.602   7.438
50046SOL    HW152035   7.560   8.586   7.517
50046SOL    HW252036   7.679   8.535   7.440
50047SOL     OW52037  12.563   6.218  13.089
50047SOL    HW152038  12.512   6.296  13.110
50047SOL    HW252039  12.508   6.145  13.117
50048SOL     OW52040  11.531   5.173   5.081
50048SOL    HW152041  11.445   5.208   5.055
50048SOL    HW252042  11.513   5.083   5.108
50049SOL     OW52043   6.655   7.561  12.201
50049SOL    HW152044   6.576   7.507  12.204
50049SOL    HW252045   6.725   7.502  12.228
50050SOL     OW52046   6.241  13.396   9.161
50050SOL    HW152047   6.239  13.318   9.216
50050SOL    HW252048   6.324  13.390   9.114
50051SOL     OW52049   3.269   4.012  14.253
50051SOL    HW152050   3.243   4.074  14.184
50051SOL    HW252051   3.339   3.960  14.214
50052SOL     OW52052   1.241  11.034  10.730
50052SOL    HW152053   1.278  11.061  10.647
50052SOL    HW252054   1.288  11.085  10.796
50053SOL     OW52055  12.506  13.176   5.801
50053SOL    HW152056  12.436  13.148   5.860
50053SOL    HW252057  12.461  13.224   5.731
50054SOL     OW52058  11.348   8.349   0.848
50054SOL    HW152059  11.319   8.258   0.856
50054SOL    HW252060  11.268   8.400   0.834
50055SOL     OW52061  13.158   7.733   3.318
50055SOL    HW152062  13.206   7.718   3.400
50055SOL    HW252063  13.189   7.664   3.259
50056SOL     OW52064   2.769   0.289   0.977
50056SOL    HW152065   2.783   0.244   1.061
50056SOL    HW252066   2.674   0.298   0.970
50057SOL     OW52067   3.856   9.009  11.130
50057SOL    HW152068   3.807   8.959  11.065
50057SOL    HW252069   3.858   9.098  11.097
50058SOL     OW52070   3.027   8.846   8.966
50058SOL    HW152071   2.960   8.777   8.973
50058SOL    HW252072   2.976   8.927   8.965
50059SOL     OW52073   3.036   4.694   5.864
50059SOL    HW152074   3.001   4.618   5.912
50059SOL    HW252075   3.126   4.670   5.844
50060SOL     OW52076   6.225   2.381  14.360
50060SOL    HW152077   6.221   2.287  14.343
50060SOL    HW252078   6.187   2.392  14.447
50061SOL     OW52079   4.298   8.369  13.582
50061SOL    HW152080   4.305   8.277  13.610
50061SOL    HW252081   4.379   8.410  13.614
50062SOL     OW52082   1.522   1.258   0.798
50062SOL    HW152083   1.431   1.250   0.768
50062SOL    HW252084   1.527   1.346   0.835
50063SOL     OW52085   7.769   1.326  12.570
50063SOL    HW152086   7.681   1.292  12.553
50063SOL    HW252087   7.765   1.418  12.544
50064SOL     OW52088   9.397   5.746   5.797
50064SOL    HW152089   9.352   5.711   5.874
50064SOL    HW252090   9.328   5.791   5.748
50065SOL     OW52091   7.187   1.891  12.235
50065SOL    HW152092   7.201   1.932  12.150
50065SOL    HW252093   7.105   1.842  12.224
50066SOL     OW52094  12.116   8.169  12.450
50066SOL    HW152095  12.124   8.252  12.403
50066SOL    HW252096  12.199   8.160  12.497
50067SOL     OW52097  13.197  14.154   3.873
50067SOL    HW152098  13.269  14.127   3.816
50067SOL    HW252099  13.225  14.239   3.909
50068SOL     OW52100  12.485   9.148   1.054
50068SOL    HW152101  12.482   9.240   1.028
50068SOL    HW252102  12.565   9.114   1.016
50069SOL     OW52103   4.241   5.686  12.788
50069SOL    HW152104   4.155   5.720  12.763
50069SOL    HW252105   4.244   5.698  12.883
50070SOL     OW52106  10.942   8.239   7.203
50070SOL    HW152107  11.037   8.229   7.206
50070SOL    HW252108  10.916   8.248   7.295
50071SOL     OW52109   0.652   5.576   3.009
50071SOL    HW152110   0.596   5.618   3.075
50071SOL    HW252111   0.682   5.648   2.955
50072SOL     OW52112  14.228   7.227  13.518
50072SOL    HW152113  14.219   7.132  13.526
50072SOL    HW252114  14.141   7.261  13.537
50073SOL     OW52115   9.042   9.362  10.704
50073SOL    HW152116   9.051   9.305  10.781
50073SOL    HW252117   9.066   9.449  10.737
50074SOL     OW52118   4.828   5.901  14.666
50074SOL    HW152119   4.754   5.939  14.618
50074SOL    HW252120   4.803   5.810  14.681
50075SOL     OW52121  14.379  10.742   2.256
50075SOL    HW152122  14.292  10.725   2.218
50075SOL    HW252123  14.360  10.787   2.338
50076SOL     OW52124  12.151   9.938  13.846
50076SOL    HW152125  12.171   9.944  13.753
50076SOL    HW252126  12.225   9.888  13.883
50077SOL     OW52127   6.200   9.261  11.981
50077SOL    HW152128   6.144   9.335  12.007
50077SOL    HW252129   6.169   9.238  11.893
50078SOL     OW52130   4.352   0.357   0.500
50078SOL    HW152131   4.269   0.388   0.538
50078SOL    HW252132   4.419   0.410   0.543
50079SOL     OW52133   5.667  11.943   6.898
50079SOL    HW152134   5.600  12.011   6.910
50079SOL    HW252135   5.679  11.906   6.985
50080SOL     OW52136  14.765   2.318  10.386
50080SOL    HW152137  14.791   2.404  10.352
50080SOL    HW252138  14.705   2.337  10.458
50081SOL     OW52139  10.660   7.147  11.227
50081SOL    HW152140  10.681   7.064  11.270
50081SOL    HW252141  10.639   7.123  11.137
50082SOL     OW52142   6.421   6.045   1.962
50082SOL    HW152143   6.428   5.962   1.915
50082SOL    HW252144   6.434   6.022   2.054
50083SOL     OW52145   8.280   8.105  12.751
50083SOL    HW152146   8.288   8.198  12.771
50083SOL    HW252147   8.266   8.101  12.657
50084SOL     OW52148   5.235   1.305  13.796
50084SOL    HW152149   5.227   1.396  13.767
50084SOL    HW252150   5.311   1.272  13.748
50085SOL     OW52151  10.745   3.478   6.166
50085SOL    HW152152  10.757   3.488   6.071
50085SOL    HW252153  10.758   3.567   6.201
50086SOL     OW52154  12.959   6.701   0.203
50086SOL    HW152155  12.871   6.696   0.239
50086SOL    HW252156  12.980   6.794   0.203
50087SOL     OW52157   2.834   6.946   9.911
50087SOL    HW152158   2.750   6.906   9.888
50087SOL    HW252159   2.863   6.988   9.830
50088SOL     OW52160   5.953  10.196   5.797
50088SOL    HW152161   5.995  10.116   5.764
50088SOL    HW252162   6.023  10.244   5.841
50089SOL     OW52163  10.245   4.492  13.469
50089SOL    HW152164  10.151   4.480  13.480
50089SOL    HW252165  10.263   4.460  13.381
50090SOL     OW52166   5.990   6.107   3.190
50090SOL    HW152167   5.970   6.163   3.265
50090SOL    HW252168   5.948   6.024   3.211
50091SOL     OW52169  10.242   1.867   0.842
50091SOL    HW152170  10.280   1.789   0.800
50091SOL    HW252171  10.199   1.833   0.920
50092SOL     OW52172   4.372   4.954   5.990
50092SOL    HW152173   4.448   4.963   6.049
50092SOL    HW252174   4.297   4.951   6.049
50093SOL     OW52175  10.093  13.735  10.129
50093SOL    HW152176  10.085  13.643  10.104
50093SOL    HW252177  10.179  13.761  10.096
50094SOL     OW52178   9.959   1.033   6.273
50094SOL    HW152179   9.906   1.111   6.259
50094SOL    HW252180   9.969   1.027   6.368
50095SOL     OW52181   3.827   7.771   5.082
50095SOL    HW152182   3.848   7.844   5.141
50095SOL    HW252183   3.775   7.711   5.135
50096SOL     OW52184   8.714  14.234  11.272
50096SOL    HW152185   8.722  14.316  11.321
50096SOL    HW252186   8.626  14.237  11.235
50097SOL     OW52187   7.256   4.078   4.449
50097SOL    HW152188   7.174   4.033   4.473
50097SOL    HW252189   7.311   4.009   4.412
50098SOL     OW52190   6.788   2.835   5.170
50098SOL    HW152191   6.848   2.909   5.172
50098SOL    HW252192   6.801   2.796   5.083
50099SOL     OW52193   9.074   6.511   5.456
50099SOL    HW152194   9.132   6.458   5.509
50099SOL    HW252195   9.105   6.601   5.468
50100SOL     OW52196  13.522   2.761   6.560
50100SOL    HW152197  13.539   2.843   6.605
50100SOL    HW252198  13.546   2.693   6.623
50101SOL     OW52199   8.010   1.471   2.461
50101SOL    HW152200   8.105   1.481   2.451
50101SOL    HW252201   7.999   1.387   2.505
50102SOL     OW52202   2.341   0.793   1.410
50102SOL    HW152203   2.386   0.730   1.352
50102SOL    HW252204   2.273   0.831   1.354
50103SOL     OW52205   9.358   8.592   0.576
50103SOL    HW152206   9.330   8.520   0.633
50103SOL    HW252207   9.453   8.595   0.588
50104SOL     OW52208   4.286   4.228   3.081
50104SOL    HW152209   4.223   4.156   3.076
50104SOL    HW252210   4.249   4.288   3.146
50105SOL     OW52211   1.765   9.052   3.880
50105SOL    HW152212   1.797   8.964   3.861
50105SOL    HW252213   1.836   9.094   3.927
50106SOL     OW52214  12.508   8.962  14.013
50106SOL    HW152215  12.553   8.962  14.097
50106SOL    HW252216  12.538   8.883  13.969
50107SOL     OW52217  11.971   0.974   7.030
50107SOL    HW152218  11.927   0.946   6.950
50107SOL    HW252219  11.975   1.070   7.023
50108SOL     OW52220   7.773  10.574  10.226
50108SOL    HW152221   7.683  10.606  10.224
50108SOL    HW252222   7.808  10.598  10.140
50109SOL     OW52223  14.534  11.908   3.508
50109SOL    HW152224  14.570  11.903   3.596
50109SOL    HW252225  14.440  11.894   3.519
50110SOL     OW52226  14.079   6.014  13.501
50110SOL    HW152227  14.169   6.042  13.513
50110SOL    HW252228  14.041   6.018  13.589
50111SOL     OW52229   9.718   6.366  12.767
50111SOL    HW152230   9.778   6.296  12.739
50111SOL    HW252231   9.744   6.385  12.857
50112SOL     OW52232   5.986   4.223  13.494
50112SOL    HW152233   5.983   4.246  13.587
50112SOL    HW252234   5.959   4.131  13.492
50113SOL     OW52235   7.659   3.280  10.014
50113SOL    HW152236   7.680   3.233  10.094
50113SOL    HW252237   7.613   3.216   9.959
50114SOL     OW52238   1.068  13.667   8.289
50114SOL    HW152239   1.108  13.669   8.202
50114SOL    HW252240   1.137  13.634   8.346
50115SOL     OW52241   3.796   1.078  10.720
50115SOL    HW152242   3.757   1.159  10.752
50115SOL    HW252243   3.764   1.068  10.631
50116SOL     OW52244   2.210   0.890  13.007
50116SOL    HW152245   2.176   0.979  13.014
50116SOL    HW252246   2.303   0.897  13.028
50117SOL     OW52247  13.036  14.568   7.110
50117SOL    HW152248  13.027  14.495   7.170
50117SOL    HW252249  13.111  14.544   7.055
50118SOL     OW52250  11.903   7.590  10.869
50118SOL    HW152251  11.923   7.672  10.916
50118SOL    HW252252  11.915   7.612  10.777
50119SOL     OW52253   1.116  10.298   2.181
50119SOL    HW152254   1.054  10.237   2.141
50119SOL    HW252255   1.182  10.313   2.114
50120SOL     OW52256   1.604   0.239   3.266
50120SOL    HW152257   1.528   0.297   3.254
50120SOL    HW252258   1.583   0.189   3.345
50121SOL     OW52259   3.786  10.212   5.074
50121SOL    HW152260   3.778  10.240   4.983
50121SOL    HW252261   3.747  10.124   5.075
50122SOL     OW52262   4.833   0.045   6.954
50122SOL    HW152263   4.921   0.068   6.923
50122SOL    HW252264   4.826  14.826   6.937
50123SOL     OW52265   8.503   9.716   9.559
50123SOL    HW152266   8.519   9.694   9.467
50123SOL    HW252267   8.549   9.798   9.573
50124SOL     OW52268  11.454  13.663   2.875
50124SOL    HW152269  11.364  13.658   2.907
50124SOL    HW252270  11.508  13.647   2.953
50125SOL     OW52271  13.353  10.155  13.501
50125SOL    HW152272  13.370  10.178  13.592
50125SOL    HW252273  13.340  10.239  13.457
50126SOL     OW52274   2.890   9.640   8.592
50126SOL    HW152275   2.977   9.600   8.601
50126SOL    HW252276   2.907   9.730   8.564
50127SOL     OW52277   7.349  12.705  14.872
50127SOL    HW152278   7.263  12.675   0.028
50127SOL    HW252279   7.330  12.787  14.826
50128SOL     OW52280  14.670   1.735  14.779
50128SOL    HW152281  14.584   1.694  14.794
50128SOL    HW252282  14.711   1.737  14.865
50129SOL     OW52283   8.935   8.042  12.215
50129SOL    HW152284   8.978   8.128  12.210
50129SOL    HW252285   9.008   7.980  12.219
50130SOL     OW52286  12.303   4.254  12.435
50130SOL    HW152287  12.249   4.302  12.497
50130SOL    HW252288  12.386   4.301  12.433
50131SOL     OW52289  13.645   1.854   4.442
50131SOL    HW152290  13.589   1.777   4.443
50131SOL    HW252291  13.719   1.830   4.498
50132SOL     OW52292   8.265  13.785   4.532
50132SOL    HW152293   8.315  13.842   4.589
50132SOL    HW252294   8.283  13.696   4.563
50133SOL     OW52295   4.652  12.053   0.752
50133SOL    HW152296   4.652  12.100   0.835
50133SOL    HW252297   4.713  11.981   0.765
50134SOL     OW52298  13.389   5.650   8.587
50134SOL    HW152299  13.383   5.633   8.494
50134SOL    HW252300  13.299   5.662   8.616
50135SOL     OW52301   2.795   1.889   3.658
50135SOL    HW152302   2.859   1.904   3.728
50135SOL    HW252303   2.769   1.797   3.669
50136SOL     OW52304   5.266   8.349   8.839
50136SOL    HW152305   5.347   8.318   8.878
50136SOL    HW252306   5.254   8.437   8.874
50137SOL     OW52307  11.093   9.500   6.659
50137SOL    HW152308  11.048   9.476   6.740
50137SOL    HW252309  11.129   9.586   6.676
50138SOL     OW52310  12.520   0.443   0.776
50138SOL    HW152311  12.461   0.497   0.724
50138SOL    HW252312  12.495   0.353   0.755
50139SOL     OW52313   1.134   5.260   8.671
50139SOL    HW152314   1.060   5.266   8.610
50139SOL    HW252315   1.122   5.333   8.731
50140SOL     OW52316   8.602   0.349  12.135
50140SOL    HW152317   8.597   0.425  12.192
50140SOL    HW252318   8.673   0.370  12.074
50141SOL     OW52319   7.787   5.086   1.898
50141SOL    HW152320   7.786   5.033   1.978
50141SOL    HW252321   7.816   5.172   1.926
50142SOL     OW52322  12.722   5.528  10.791
50142SOL    HW152323  12.772   5.478  10.855
50142SOL    HW252324  12.787   5.573  10.738
50143SOL     OW52325   2.455  11.465   8.984
50143SOL    HW152326   2.422  11.430   9.067
50143SOL    HW252327   2.522  11.402   8.957
50144SOL     OW52328   5.913  10.401  14.432
50144SOL    HW152329   5.893  10.314  14.466
50144SOL    HW252330   6.005  10.397  14.409
50145SOL     OW52331  14.522  11.780   2.269
50145SOL    HW152332  14.461  11.846   2.301
50145SOL    HW252333  14.555  11.815   2.186
50146SOL     OW52334  14.573  12.971  14.457
50146SOL    HW152335  14.571  12.930  14.370
50146SOL    HW252336  14.610  12.903  14.514
50147SOL     OW52337  12.266  13.596  13.863
50147SOL    HW152338  12.285  13.661  13.930
50147SOL    HW252339  12.235  13.519  13.912
50148SOL     OW52340   4.495   3.551   9.193
50148SOL    HW152341   4.541   3.634   9.176
50148SOL    HW252342   4.555   3.483   9.163
50149SOL     OW52343   3.779  13.107  11.940
50149SOL    HW152344   3.800  13.036  12.000
50149SOL    HW252345   3.697  13.080  11.898
50150SOL     OW52346   5.980   2.235  13.383
50150SOL    HW152347   5.992   2.328  13.402
50150SOL    HW252348   5.949   2.197  13.466
50151SOL     OW52349   8.932   7.601   8.484
50151SOL    HW152350   8.898   7.549   8.411
50151SOL    HW252351   8.861   7.661   8.505
50152SOL     OW52352  13.318  14.045  11.622
50152SOL    HW152353  13.322  14.137  11.597
50152SOL    HW252354  13.309  13.998  11.539
50153SOL     OW52355   9.735   0.053   0.388
50153SOL    HW152356   9.830   0.050   0.397
50153SOL    HW252357   9.704   0.085   0.473
50154SOL     OW52358  11.134   6.760   0.941
50154SOL    HW152359  11.091   6.719   0.867
50154SOL    HW252360  11.103   6.851   0.940
50155SOL     OW52361   6.422  10.215  12.155
50155SOL    HW152362   6.508  10.254  12.145
50155SOL    HW252363   6.367  10.285  12.188
50156SOL     OW52364   0.385   0.419   8.561
50156SOL    HW152365   0.412   0.510   8.573
50156SOL    HW252366   0.434   0.389   8.485
50157SOL     OW52367   2.543   3.548   4.432
50157SOL    HW152368   2.454   3.582   4.444
50157SOL    HW252369   2.589   3.618   4.386
50158SOL     OW52370   8.791   1.911   9.318
50158SOL    HW152371   8.745   1.896   9.400
50158SOL    HW252372   8.750   1.850   9.256
50159SOL     OW52373   3.483   3.745  11.657
50159SOL    HW152374   3.571   3.708  11.650
50159SOL    HW252375   3.462   3.773  11.568
50160SOL     OW52376  14.365  11.455   3.357
50160SOL    HW152377  14.351  11.391   3.288
50160SOL    HW252378  14.341  11.410   3.438
50161SOL     OW52379  10.494   4.632  10.226
50161SOL    HW152380  10.552   4.563  10.258
50161SOL    HW252381  10.414   4.586  10.200
50162SOL     OW52382  13.615  10.381   6.903
50162SOL    HW152383  13.520  10.381   6.910
50162SOL    HW252384  13.633  10.351   6.814
50163SOL     OW52385  10.580  10.164  11.928
50163SOL    HW152386  10.633  10.085  11.935
50163SOL    HW252387  10.643  10.236  11.930
50164SOL     OW52388   1.511  13.641   5.458
50164SOL    HW152389   1.516  13.687   5.542
50164SOL    HW252390   1.575  13.687   5.403
50165SOL     OW52391  12.211   1.363   8.251
50165SOL    HW152392  12.221   1.412   8.169
50165SOL    HW252393  12.131   1.399   8.291
50166SOL     OW52394   0.690   2.819  13.433
50166SOL    HW152395   0.757   2.882  13.407
50166SOL    HW252396   0.707   2.742  13.378
50167SOL     OW52397  12.557   9.807  11.876
50167SOL    HW152398  12.465   9.781  11.875
50167SOL    HW252399  12.554   9.903  11.870
50168SOL     OW52400   8.035  12.505   3.363
50168SOL    HW152401   8.062  12.581   3.313
50168SOL    HW252402   8.103  12.494   3.430
50169SOL     OW52403   8.399   5.175   5.272
50169SOL    HW152404   8.442   5.215   5.348
50169SOL    HW252405   8.470   5.159   5.210
50170SOL     OW52406  14.258  10.661   4.998
50170SOL    HW152407  14.301  10.587   5.040
50170SOL    HW252408  14.165  10.640   5.004
50171SOL     OW52409   5.468   1.894   6.470
50171SOL    HW152410   5.411   1.911   6.546
50171SOL    HW252411   5.553   1.928   6.497
50172SOL     OW52412   0.907   8.025  13.468
50172SOL    HW152413   0.869   8.016  13.381
50172SOL    HW252414   0.849   7.975  13.525
50173SOL     OW52415   8.011  12.639   8.191
50173SOL    HW152416   8.036  12.709   8.250
50173SOL    HW252417   8.078  12.572   8.204
50174SOL     OW52418   7.739  13.106   1.933
50174SOL    HW152419   7.692  13.040   1.984
50174SOL    HW252420   7.781  13.162   1.999
50175SOL     OW52421   5.476  14.582   8.064
50175SOL    HW152422   5.515  14.551   7.983
50175SOL    HW252423   5.397  14.529   8.074
50176SOL     OW52424   7.066  14.733  13.265
50176SOL    HW152425   7.153  14.717  13.228
50176SOL    HW252426   7.074  14.710  13.358
50177SOL     OW52427   4.245   2.897   8.772
50177SOL    HW152428   4.264   2.923   8.682
50177SOL    HW252429   4.170   2.950   8.797
50178SOL     OW52430   7.533  13.577  14.679
50178SOL    HW152431   7.512  13.643  14.613
50178SOL    HW252432   7.605  13.527  14.641
50179SOL     OW52433   7.906  13.429  11.390
50179SOL    HW152434   7.831  13.426  11.331
50179SOL    HW252435   7.926  13.337  11.408
50180SOL     OW52436  11.016   5.855   3.441
50180SOL    HW152437  11.026   5.950   3.454
50180SOL    HW252438  10.922   5.840   3.444
50181SOL     OW52439   6.249   5.648   7.037
50181SOL    HW152440   6.268   5.574   7.095
50181SOL    HW252441   6.220   5.717   7.097
50182SOL     OW52442   5.900   8.434   5.731
50182SOL    HW152443   5.816   8.444   5.775
50182SOL    HW252444   5.950   8.374   5.787
50183SOL     OW52445   4.230   8.574   6.112
50183SOL    HW152446   4.180   8.494   6.093
50183SOL    HW252447   4.196   8.639   6.050
50184SOL     OW52448  14.187  11.559  11.303
50184SOL    HW152449  14.234  11.641  11.320
50184SOL    HW252450  14.242  11.492  11.344
50185SOL     OW52451   1.114   1.162  13.405
50185SOL    HW152452   1.032   1.176  13.453
50185SOL    HW252453   1.170   1.235  13.432
50186SOL     OW52454  10.495   7.961  12.639
50186SOL    HW152455  10.531   7.966  12.728
50186SOL    HW252456  10.561   7.914  12.589
50187SOL     OW52457   9.470  11.473   4.567
50187SOL    HW152458   9.394  11.421   4.541
50187SOL    HW252459   9.537  11.453   4.501
50188SOL     OW52460  14.249   1.358  11.468
50188SOL    HW152461  14.306   1.431  11.495
50188SOL    HW252462  14.180   1.400  11.416
50189SOL     OW52463   2.923   7.340   4.013
50189SOL    HW152464   2.870   7.278   4.063
50189SOL    HW252465   2.947   7.408   4.076
50190SOL     OW52466   6.676   2.813  13.264
50190SOL    HW152467   6.747   2.773  13.314
50190SOL    HW252468   6.614   2.844  13.330
50191SOL     OW52469   6.510   5.287   6.208
50191SOL    HW152470   6.580   5.221   6.207
50191SOL    HW252471   6.440   5.247   6.156
50192SOL     OW52472  10.793   5.624   5.435
50192SOL    HW152473  10.789   5.577   5.519
50192SOL    HW252474  10.831   5.560   5.374
50193SOL     OW52475  10.722   9.440  12.839
50193SOL    HW152476  10.631   9.466  12.855
50193SOL    HW252477  10.764   9.448  12.924
50194SOL     OW52478  14.004   0.180   4.842
50194SOL    HW152479  13.943   0.204   4.772
50194SOL    HW252480  13.987   0.243   4.912
50195SOL     OW52481  12.300   7.678  11.939
50195SOL    HW152482  12.323   7.734  12.013
50195SOL    HW252483  12.274   7.738  11.870
50196SOL     OW52484  14.369   6.746   0.027
50196SOL    HW152485  14.326   6.665   0.055
50196SOL    HW252486  14.299   6.797  14.861
50197SOL     OW52487   4.064  12.140   1.988
50197SOL    HW152488   4.087  12.187   1.909
50197SOL    HW252489   3.986  12.089   1.964
50198SOL     OW52490  11.058   7.843   7.361
50198SOL    HW152491  11.095   7.854   7.273
50198SOL    HW252492  11.101   7.765   7.395
50199SOL     OW52493   0.554   9.956   9.556
50199SOL    HW152494   0.515   9.935   9.471
50199SOL    HW252495   0.587  10.045   9.546
50200SOL     OW52496   7.585   0.334   4.990
50200SOL    HW152497   7.515   0.399   5.000
50200SOL    HW252498   7.642   0.371   4.923
50201SOL     OW52499   1.483   6.082   8.693
50201SOL    HW152500   1.502   5.994   8.726
50201SOL    HW252501   1.513   6.141   8.762
50202SOL     OW52502  14.358   3.841   7.131
50202SOL    HW152503  14.448   3.862   7.106
50202SOL    HW252504  14.356   3.854   7.226
50203SOL     OW52505  10.224  11.136  14.600
50203SOL    HW152506  10.311  11.101  14.582
50203SOL    HW252507  10.211  11.204  14.534
50204SOL     OW52508   7.379  12.181   0.447
50204SOL    HW152509   7.430  12.228   0.513
50204SOL    HW252510   7.307  12.241   0.427
50205SOL     OW52511   9.700   4.059   9.776
50205SOL    HW152512   9.743   3.974   9.791
50205SOL    HW252513   9.767   4.113   9.734
50206SOL     OW52514   4.940   5.705   7.000
50206SOL    HW152515   4.855   5.706   7.044
50206SOL    HW252516   5.003   5.719   7.071
50207SOL     OW52517   4.836   8.605   8.126
50207SOL    HW152518   4.857   8.563   8.043
50207SOL    HW252519   4.835   8.534   8.190
50208SOL     OW52520   1.694   3.528  13.379
50208SOL    HW152521   1.762   3.525  13.447
50208SOL    HW252522   1.721   3.464  13.314
50209SOL     OW52523  11.488  10.964  10.674
50209SOL    HW152524  11.537  11.031  10.722
50209SOL    HW252525  11.531  10.882  10.697
50210SOL     OW52526  12.878   1.830  10.526
50210SOL    HW152527  12.937   1.789  10.462
50210SOL    HW252528  12.931   1.897  10.568
50211SOL     OW52529  12.697  10.289   2.702
50211SOL    HW152530  12.789  10.286   2.678
50211SOL    HW252531  12.650  10.286   2.618
50212SOL     OW52532  10.570  10.431   7.285
50212SOL    HW152533  10.542  10.422   7.194
50212SOL    HW252534  10.595  10.342   7.311
50213SOL     OW52535   8.421   9.254  12.715
50213SOL    HW152536   8.375   9.206  12.646
50213SOL    HW252537   8.505   9.278  12.676
50214SOL     OW52538  12.206   0.689   1.030
50214SOL    HW152539  12.114   0.703   1.053
50214SOL    HW252540  12.204   0.618   0.966
50215SOL     OW52541   6.621   7.440   6.304
50215SOL    HW152542   6.604   7.391   6.385
50215SOL    HW252543   6.550   7.414   6.245
50216SOL     OW52544   6.680   4.424   8.545
50216SOL    HW152545   6.708   4.493   8.484
50216SOL    HW252546   6.751   4.418   8.608
50217SOL     OW52547   5.645   1.620  13.998
50217SOL    HW152548   5.678   1.533  14.024
50217SOL    HW252549   5.550   1.610  13.999
50218SOL     OW52550  10.615   0.210  12.158
50218SOL    HW152551  10.670   0.287  12.171
50218SOL    HW252552  10.644   0.173  12.075
50219SOL     OW52553   8.858   9.877   8.472
50219SOL    HW152554   8.813   9.852   8.391
50219SOL    HW252555   8.905   9.799   8.499
50220SOL     OW52556  12.723   8.363  11.197
50220SOL    HW152557  12.714   8.324  11.110
50220SOL    HW252558  12.769   8.296  11.249
50221SOL     OW52559   1.464  13.829  12.690
50221SOL    HW152560   1.368  13.826  12.698
50221SOL    HW252561   1.481  13.811  12.598
50222SOL     OW52562  12.131  13.620  10.806
50222SOL    HW152563  12.125  13.709  10.771
50222SOL    HW252564  12.113  13.629  10.899
50223SOL     OW52565  10.140   6.811   8.784
50223SOL    HW152566  10.168   6.735   8.834
50223SOL    HW252567  10.066   6.780   8.732
50224SOL     OW52568  13.201   3.793   6.361
50224SOL    HW152569  13.242   3.710   6.386
50224SOL    HW252570  13.134   3.768   6.298
50225SOL     OW52571  13.132   3.331  14.210
50225SOL    HW152572  13.055   3.387  14.216
50225SOL    HW252573  13.205   3.389  14.231
50226SOL     OW52574   7.170   4.666  10.104
50226SOL    HW152575   7.110   4.604  10.145
50226SOL    HW252576   7.245   4.670  10.163
50227SOL     OW52577   6.743   4.007   4.814
50227SOL    HW152578   6.701   4.077   4.864
50227SOL    HW252579   6.783   4.052   4.739
50228SOL     OW52580   4.732   5.459   2.064
50228SOL    HW152581   4.811   5.407   2.048
50228SOL    HW252582   4.763   5.537   2.109
50229SOL     OW52583  11.634   1.926   9.645
50229SOL    HW152584  11.545   1.949   9.619
50229SOL    HW252585  11.690   1.969   9.581
50230SOL     OW52586  13.526   4.257   3.181
50230SOL    HW152587  13.546   4.164   3.184
50230SOL    HW252588  13.550   4.284   3.093
50231SOL     OW52589   9.203   1.826  14.314
50231SOL    HW152590   9.237   1.824  14.404
50231SOL    HW252591   9.259   1.888  14.268
50232SOL     OW52592   0.240   9.510   2.807
50232SOL    HW152593   0.321   9.540   2.848
50232SOL    HW252594   0.234   9.560   2.725
50233SOL     OW52595   4.818   9.697   1.334
50233SOL    HW152596   4.761   9.765   1.297
50233SOL    HW252597   4.780   9.615   1.303
50234SOL     OW52598   7.790   0.459   1.468
50234SOL    HW152599   7.735   0.448   1.391
50234SOL    HW252600   7.812   0.552   1.470
50235SOL     OW52601   6.624  12.152   9.456
50235SOL    HW152602   6.669  12.083   9.504
50235SOL    HW252603   6.694  12.206   9.419
50236SOL     OW52604   3.962   6.199   9.915
50236SOL    HW152605   3.926   6.172   9.830
50236SOL    HW252606   3.891   6.180   9.977
50237SOL     OW52607   6.582  11.642   7.900
50237SOL    HW152608   6.524  11.597   7.838
50237SOL    HW252609   6.595  11.729   7.862
50238SOL     OW52610   9.187   8.224  14.636
50238SOL    HW152611   9.156   8.270  14.559
50238SOL    HW252612   9.267   8.271  14.662
50239SOL     OW52613  14.633   0.657   8.683
50239SOL    HW152614  14.697   0.596   8.719
50239SOL    HW252615  14.601   0.705   8.759
50240SOL     OW52616   1.425   0.865  10.494
50240SOL    HW152617   1.470   0.898  10.416
50240SOL    HW252618   1.496   0.845  10.555
50241SOL     OW52619  14.454   9.291   9.554
50241SOL    HW152620  14.531   9.234   9.543
50241SOL    HW252621  14.441   9.295   9.649
50242SOL     OW52622   0.957   6.897   6.809
50242SOL    HW152623   0.963   6.864   6.719
50242SOL    HW252624   1.004   6.832   6.861
50243SOL     OW52625  12.881   6.747  11.532
50243SOL    HW152626  12.795   6.788  11.540
50243SOL    HW252627  12.872   6.664  11.580
50244SOL     OW52628   3.329   6.763   3.714
50244SOL    HW152629   3.368   6.777   3.627
50244SOL    HW252630   3.274   6.685   3.703
50245SOL     OW52631   1.553   9.544   1.032
50245SOL    HW152632   1.486   9.523   0.967
50245SOL    HW252633   1.574   9.636   1.016
50246SOL     OW52634   4.174   6.929  10.101
50246SOL    HW152635   4.131   6.849  10.071
50246SOL    HW252636   4.159   6.992  10.031
50247SOL     OW52637   3.258  10.458  12.134
50247SOL    HW152638   3.331  10.472  12.194
50247SOL    HW252639   3.268  10.367  12.106
50248SOL     OW52640  13.081   1.692   8.223
50248SOL    HW152641  13.161   1.646   8.250
50248SOL    HW252642  13.094   1.782   8.254
50249SOL     OW52643  13.537  11.560   8.803
50249SOL    HW152644  13.584  11.477   8.811
50249SOL    HW252645  13.536  11.577   8.709
50250SOL     OW52646  12.907   3.970   0.867
50250SOL    HW152647  12.903   3.911   0.792
50250SOL    HW252648  12.993   3.954   0.906
50251SOL     OW52649  11.230   1.690   8.205
50251SOL    HW152650  11.163   1.653   8.148
50251SOL    HW252651  11.270   1.614   8.247
50252SOL     OW52652   6.657   8.101  13.242
50252SOL    HW152653   6.751   8.110  13.258
50252SOL    HW252654   6.650   8.035  13.173
50253SOL     OW52655   1.393   2.292   9.785
50253SOL    HW152656   1.346   2.252   9.858
50253SOL    HW252657   1.485   2.272   9.802
50254SOL     OW52658   5.888   2.966   5.608
50254SOL    HW152659   5.839   2.885   5.620
50254SOL    HW252660   5.822   3.035   5.608
50255SOL     OW52661  11.059   5.596   2.101
50255SOL    HW152662  11.111   5.519   2.127
50255SOL    HW252663  10.972   5.560   2.081
50256SOL     OW52664  14.248  14.772  12.628
50256SOL    HW152665  14.257  14.804  12.538
50256SOL    HW252666  14.185  14.831  12.669
50257SOL     OW52667   2.424   8.611   3.217
50257SOL    HW152668   2.458   8.585   3.303
50257SOL    HW252669   2.435   8.707   3.215
50258SOL     OW52670   2.703   3.796  13.838
50258SOL    HW152671   2.664   3.826  13.756
50258SOL    HW252672   2.720   3.877  13.887
50259SOL     OW52673  10.783   9.959   1.140
50259SOL    HW152674  10.867   9.920   1.119
50259SOL    HW252675  10.801  10.020   1.211
50260SOL     OW52676   8.517   6.616   7.649
50260SOL    HW152677   8.525   6.639   7.556
50260SOL    HW252678   8.431   6.575   7.656
50261SOL     OW52679   2.261   2.176   7.628
50261SOL    HW152680   2.290   2.154   7.539
50261SOL    HW252681   2.295   2.264   7.643
50262SOL     OW52682   3.919   5.891   9.439
50262SOL    HW152683   3.968   5.957   9.488
50262SOL    HW252684   3.913   5.927   9.350
50263SOL     OW52685   2.271   4.272   7.196
50263SOL    HW152686   2.293   4.219   7.273
50263SOL    HW252687   2.233   4.352   7.232
50264SOL     OW52688   3.650   4.283  10.814
50264SOL    HW152689   3.714   4.350  10.839
50264SOL    HW252690   3.578   4.332  10.774
50265SOL     OW52691  11.387   4.190  14.618
50265SOL    HW152692  11.339   4.126  14.566
50265SOL    HW252693  11.412   4.143  14.697
50266SOL     OW52694   2.545   9.119  10.793
50266SOL    HW152695   2.470   9.175  10.812
50266SOL    HW252696   2.617   9.158  10.842
50267SOL     OW52697   2.173   9.879   3.107
50267SOL    HW152698   2.089   9.901   3.148
50267SOL    HW252699   2.156   9.884   3.013
50268SOL     OW52700   9.150   4.521   6.502
50268SOL    HW152701   9.100   4.565   6.570
50268SOL    HW252702   9.085   4.495   6.437
50269SOL     OW52703   3.043   9.807   8.038
50269SOL    HW152704   2.985   9.824   8.112
50269SOL    HW252705   3.115   9.869   8.049
50270SOL     OW52706   7.151   8.076  12.392
50270SOL    HW152707   7.203   8.136  12.339
50270SOL    HW252708   7.155   7.993  12.345
50271SOL     OW52709   1.094   3.546   4.873
50271SOL    HW152710   1.070   3.456   4.850
50271SOL    HW252711   1.010   3.591   4.882
50272SOL     OW52712   9.336   6.826  14.510
50272SOL    HW152713   9.266   6.781  14.462
50272SOL    HW252714   9.303   6.916  14.521
50273SOL     OW52715   7.253   1.806  11.112
50273SOL    HW152716   7.283   1.737  11.171
50273SOL    HW252717   7.299   1.790  11.030
50274SOL     OW52718   0.900   2.317   1.543
50274SOL    HW152719   0.934   2.271   1.466
50274SOL    HW252720   0.907   2.253   1.614
50275SOL     OW52721   8.816   5.570  13.231
50275SOL    HW152722   8.788   5.662  13.239
50275SOL    HW252723   8.892   5.563  13.288
50276SOL     OW52724   1.643  10.121   4.851
50276SOL    HW152725   1.588  10.121   4.773
50276SOL    HW252726   1.649  10.214   4.877
50277SOL     OW52727  12.264  13.292   4.074
50277SOL    HW152728  12.233  13.354   4.007
50277SOL    HW252729  12.192  13.230   4.085
50278SOL     OW52730   3.302   2.778   3.804
50278SOL    HW152731   3.206   2.778   3.801
50278SOL    HW252732   3.329   2.788   3.713
50279SOL     OW52733   2.562   9.373  11.239
50279SOL    HW152734   2.630   9.440  11.249
50279SOL    HW252735   2.481   9.419  11.260
50280SOL     OW52736  12.302   1.034   6.352
50280SOL    HW152737  12.364   0.961   6.348
50280SOL    HW252738  12.297   1.056   6.445
50281SOL     OW52739  10.887   8.197   8.283
50281SOL    HW152740  10.815   8.138   8.306
50281SOL    HW252741  10.852   8.285   8.295
50282SOL     OW52742   0.175  13.259   9.047
50282SOL    HW152743   0.260  13.300   9.032
50282SOL    HW252744   0.151  13.222   8.962
50283SOL     OW52745   4.837  12.585  14.359
50283SOL    HW152746   4.905  12.566  14.423
50283SOL    HW252747   4.832  12.680  14.357
50284SOL     OW52748  14.573   9.104   6.475
50284SOL    HW152749  14.547   9.061   6.393
50284SOL    HW252750  14.668   9.095   6.477
50285SOL     OW52751   3.478  12.470   6.468
50285SOL    HW152752   3.452  12.382   6.492
50285SOL    HW252753   3.573  12.472   6.482
50286SOL     OW52754   0.290   6.279  11.569
50286SOL    HW152755   0.264   6.371  11.558
50286SOL    HW252756   0.372   6.283  11.618
50287SOL     OW52757   8.283   7.781  14.532
50287SOL    HW152758   8.310   7.826  14.612
50287SOL    HW252759   8.234   7.847  14.482
50288SOL     OW52760   2.287   6.827   4.410
50288SOL    HW152761   2.223   6.766   4.446
50288SOL    HW252762   2.304   6.795   4.322
50289SOL     OW52763  10.809   8.397   2.687
50289SOL    HW152764  10.732   8.416   2.633
50289SOL    HW252765  10.819   8.302   2.682
50290SOL     OW52766   9.226  12.165  10.549
50290SOL    HW152767   9.172  12.126  10.481
50290SOL    HW252768   9.220  12.104  10.622
50291SOL     OW52769   9.150   8.293   7.786
50291SOL    HW152770   9.236   8.287   7.744
50291SOL    HW252771   9.169   8.329   7.873
50292SOL     OW52772  12.891   9.442   9.033
50292SOL    HW152773  12.975   9.417   8.996
50292SOL    HW252774  12.878   9.532   9.003
50293SOL     OW52775   4.209   0.719   5.963
50293SOL    HW152776   4.136   0.683   5.913
50293SOL    HW252777   4.171   0.741   6.048
50294SOL     OW52778   0.126  11.013   4.243
50294SOL    HW152779   0.036  10.998   4.272
50294SOL    HW252780   0.153  10.929   4.206
50295SOL     OW52781   6.036  11.720   5.635
50295SOL    HW152782   6.042  11.625   5.648
50295SOL    HW252783   6.107  11.741   5.574
50296SOL     OW52784   4.942   7.384  13.049
50296SOL    HW152785   4.865   7.440  13.056
50296SOL    HW252786   4.914   7.311  12.993
50297SOL     OW52787  14.655   3.556  12.662
50297SOL    HW152788  14.653   3.479  12.719
50297SOL    HW252789  14.740   3.596  12.680
50298SOL     OW52790   3.296   2.679   2.584
50298SOL    HW152791   3.358   2.750   2.597
50298SOL    HW252792   3.350   2.604   2.559
50299SOL     OW52793   8.589  11.028  14.649
50299SOL    HW152794   8.571  10.972  14.724
50299SOL    HW252795   8.685  11.028  14.642
50300SOL     OW52796   7.364   1.686   5.925
50300SOL    HW152797   7.394   1.739   5.852
50300SOL    HW252798   7.406   1.601   5.913
50301SOL     OW52799   6.509  12.596  11.198
50301SOL    HW152800   6.538  12.521  11.146
50301SOL    HW252801   6.453  12.557  11.266
50302SOL     OW52802  14.096  12.187   1.236
50302SOL    HW152803  14.149  12.115   1.202
50302SOL    HW252804  14.157  12.240   1.285
50303SOL     OW52805   9.806   2.090   0.729
50303SOL    HW152806   9.815   2.088   0.824
50303SOL    HW252807   9.896   2.087   0.696
50304SOL     OW52808   1.819  13.025  11.087
50304SOL    HW152809   1.804  13.067  11.171
50304SOL    HW252810   1.738  12.977  11.069
50305SOL     OW52811  10.636   8.272   5.651
50305SOL    HW152812  10.634   8.295   5.744
50305SOL    HW252813  10.555   8.224   5.637
50306SOL     OW52814   8.535  12.031  10.000
50306SOL    HW152815   8.542  11.943   9.964
50306SOL    HW252816   8.463  12.071   9.951
50307SOL     OW52817   7.733   9.822   1.365
50307SOL    HW152818   7.781   9.742   1.345
50307SOL    HW252819   7.641   9.795   1.361
50308SOL     OW52820   4.260   1.641   2.531
50308SOL    HW152821   4.311   1.655   2.611
50308SOL    HW252822   4.285   1.553   2.502
50309SOL     OW52823  11.158  11.131  12.801
50309SOL    HW152824  11.130  11.135  12.893
50309SOL    HW252825  11.138  11.041  12.775
50310SOL     OW52826  13.181   6.619  14.015
50310SOL    HW152827  13.262   6.639  14.062
50310SOL    HW252828  13.113   6.665  14.064
50311SOL     OW52829  12.616  11.368   1.497
50311SOL    HW152830  12.565  11.441   1.531
50311SOL    HW252831  12.558  11.326   1.434
50312SOL     OW52832   5.558  10.282   5.253
50312SOL    HW152833   5.555  10.193   5.287
50312SOL    HW252834   5.485  10.327   5.295
50313SOL     OW52835   2.240  13.139   5.986
50313SOL    HW152836   2.230  13.222   5.939
50313SOL    HW252837   2.279  13.079   5.922
50314SOL     OW52838  12.473   9.680   6.022
50314SOL    HW152839  12.533   9.754   6.030
50314SOL    HW252840  12.514   9.623   5.956
50315SOL     OW52841  12.662   6.154   9.389
50315SOL    HW152842  12.719   6.226   9.359
50315SOL    HW252843  12.616   6.191   9.464
50316SOL     OW52844  14.518   2.569   4.250
50316SOL    HW152845  14.577   2.500   4.278
50316SOL    HW252846  14.539   2.584   4.158
50317SOL     OW52847   2.094   9.432   9.471
50317SOL    HW152848   2.161   9.497   9.494
50317SOL    HW252849   2.012   9.481   9.474
50318SOL     OW52850   0.777   4.175  12.425
50318SOL    HW152851   0.713   4.241  12.398
50318SOL    HW252852   0.861   4.209  12.395
50319SOL     OW52853   2.286   9.453  11.337
50319SOL    HW152854   2.249   9.434  11.423
50319SOL    HW252855   2.212   9.451  11.277
50320SOL     OW52856  13.294   5.187   7.131
50320SOL    HW152857  13.337   5.267   7.161
50320SOL    HW252858  13.337   5.166   7.048
50321SOL     OW52859  14.823  11.357  13.940
50321SOL    HW152860  14.768  11.299  13.889
50321SOL    HW252861   0.023  11.304  13.965
50322SOL     OW52862  10.226   3.706   5.149
50322SOL    HW152863  10.256   3.615   5.148
50322SOL    HW252864  10.148   3.705   5.205
50323SOL     OW52865  10.729  13.447  14.762
50323SOL    HW152866  10.806  13.391  14.754
50323SOL    HW252867  10.715  13.456  14.857
50324SOL     OW52868  14.675   8.656   3.583
50324SOL    HW152869  14.662   8.561   3.584
50324SOL    HW252870  14.727   8.672   3.503
50325SOL     OW52871   4.379  11.291  14.631
50325SOL    HW152872   4.364  11.316  14.722
50325SOL    HW252873   4.406  11.199  14.636
50326SOL     OW52874   4.875   4.693  12.497
50326SOL    HW152875   4.944   4.704  12.432
50326SOL    HW252876   4.857   4.599  12.498
50327SOL     OW52877   5.285   8.616   8.109
50327SOL    HW152878   5.374   8.637   8.079
50327SOL    HW252879   5.259   8.540   8.057
50328SOL     OW52880   2.580  14.401   0.964
50328SOL    HW152881   2.516  14.413   1.033
50328SOL    HW252882   2.620  14.316   0.982
50329SOL     OW52883  10.964  11.195   2.339
50329SOL    HW152884  11.019  11.131   2.293
50329SOL    HW252885  10.979  11.277   2.292
50330SOL     OW52886   8.095   7.899   3.267
50330SOL    HW152887   8.042   7.855   3.334
50330SOL    HW252888   8.185   7.880   3.291
50331SOL     OW52889   8.288   2.600   7.827
50331SOL    HW152890   8.235   2.589   7.748
50331SOL    HW252891   8.321   2.689   7.821
50332SOL     OW52892  14.371   4.394   5.750
50332SOL    HW152893  14.464   4.411   5.734
50332SOL    HW252894  14.335   4.478   5.776
50333SOL     OW52895   8.234  10.208   0.113
50333SOL    HW152896   8.315  10.257   0.101
50333SOL    HW252897   8.204  10.187   0.025
50334SOL     OW52898  10.566   8.642   8.340
50334SOL    HW152899  10.510   8.628   8.264
50334SOL    HW252900  10.549   8.734   8.365
50335SOL     OW52901  10.519   6.398  13.391
50335SOL    HW152902  10.594   6.338  13.385
50335SOL    HW252903  10.538   6.466  13.327
50336SOL     OW52904  10.200   0.877   7.699
50336SOL    HW152905  10.138   0.947   7.680
50336SOL    HW252906  10.153   0.819   7.759
50337SOL     OW52907   8.479  13.562   7.721
50337SOL    HW152908   8.436  13.497   7.666
50337SOL    HW252909   8.445  13.646   7.690
50338SOL     OW52910  13.717   4.697   1.397
50338SOL    HW152911  13.674   4.622   1.355
50338SOL    HW252912  13.709   4.767   1.333
50339SOL     OW52913  10.870   1.831  14.090
50339SOL    HW152914  10.799   1.769  14.106
50339SOL    HW252915  10.835   1.893  14.026
50340SOL     OW52916   0.046   5.399   9.453
50340SOL    HW152917   0.028   5.306   9.463
50340SOL    HW252918   0.134   5.402   9.414
50341SOL     OW52919   1.653   4.598  10.406
50341SOL    HW152920   1.682   4.674  10.456
50341SOL    HW252921   1.731   4.543  10.399
50342SOL     OW52922  13.163   6.163   2.445
50342SOL    HW152923  13.098   6.118   2.500
50342SOL    HW252924  13.161   6.254   2.475
50343SOL     OW52925   7.684   4.630   3.298
50343SOL    HW152926   7.751   4.588   3.243
50343SOL    HW252927   7.627   4.674   3.236
50344SOL     OW52928   5.815   8.932   0.487
50344SOL    HW152929   5.839   9.020   0.517
50344SOL    HW252930   5.778   8.889   0.564
50345SOL     OW52931  14.386   7.520  13.900
50345SOL    HW152932  14.401   7.435  13.858
50345SOL    HW252933  14.423   7.584  13.838
50346SOL     OW52934   8.115   7.231   1.769
50346SOL    HW152935   8.131   7.136   1.764
50346SOL    HW252936   8.141   7.255   1.858
50347SOL     OW52937   7.660   4.686  11.296
50347SOL    HW152938   7.617   4.704  11.380
50347SOL    HW252939   7.588   4.675  11.234
50348SOL     OW52940   6.604   5.574   9.250
50348SOL    HW152941   6.617   5.511   9.320
50348SOL    HW252942   6.692   5.611   9.234
50349SOL     OW52943   1.939  10.869   7.761
50349SOL    HW152944   1.877  10.825   7.819
50349SOL    HW252945   1.912  10.961   7.762
50350SOL     OW52946   8.819   5.808   5.365
50350SOL    HW152947   8.846   5.802   5.456
50350SOL    HW252948   8.808   5.902   5.350
50351SOL     OW52949   9.921   2.478  14.260
50351SOL    HW152950   9.994   2.442  14.311
50351SOL    HW252951   9.955   2.560  14.224
50352SOL     OW52952  11.982   3.962   5.700
50352SOL    HW152953  12.025   4.044   5.723
50352SOL    HW252954  11.965   3.919   5.783
50353SOL     OW52955   2.570   3.619   7.032
50353SOL    HW152956   2.661   3.648   7.040
50353SOL    HW252957   2.571   3.527   7.059
50354SOL     OW52958   9.904   2.998  13.059
50354SOL    HW152959   9.891   2.915  13.015
50354SOL    HW252960   9.834   3.054  13.027
50355SOL     OW52961   3.107  13.908  10.586
50355SOL    HW152962   3.142  13.872  10.505
50355SOL    HW252963   3.184  13.918  10.643
50356SOL     OW52964   7.317  11.392  10.953
50356SOL    HW152965   7.393  11.418  11.006
50356SOL    HW252966   7.302  11.300  10.977
50357SOL     OW52967   9.447   9.581   1.263
50357SOL    HW152968   9.375   9.643   1.248
50357SOL    HW252969   9.503   9.590   1.186
50358SOL     OW52970   8.806   0.692   0.449
50358SOL    HW152971   8.729   0.684   0.504
50358SOL    HW252972   8.863   0.621   0.477
50359SOL     OW52973   2.787   3.857   7.995
50359SOL    HW152974   2.781   3.776   7.943
50359SOL    HW252975   2.714   3.911   7.963
50360SOL     OW52976   1.530  10.952   7.156
50360SOL    HW152977   1.554  11.037   7.194
50360SOL    HW252978   1.600  10.893   7.184
50361SOL     OW52979  12.900   8.491   7.968
50361SOL    HW152980  12.857   8.425   7.913
50361SOL    HW252981  12.927   8.444   8.046
50362SOL     OW52982  13.792   1.983   6.036
50362SOL    HW152983  13.736   2.061   6.030
50362SOL    HW252984  13.835   1.991   6.121
50363SOL     OW52985   8.267  10.050   3.747
50363SOL    HW152986   8.290   9.979   3.687
50363SOL    HW252987   8.328  10.040   3.821
50364SOL     OW52988  14.794   7.970   9.344
50364SOL    HW152989  14.721   7.927   9.298
50364SOL    HW252990  14.845   8.010   9.274
50365SOL     OW52991   0.148  14.052  10.603
50365SOL    HW152992   0.236  14.040  10.639
50365SOL    HW252993   0.125  13.967  10.566
50366SOL     OW52994  14.287   9.563  10.748
50366SOL    HW152995  14.204   9.586  10.789
50366SOL    HW252996  14.310   9.478  10.786
50367SOL     OW52997  10.519   1.864   2.852
50367SOL    HW152998  10.590   1.880   2.790
50367SOL    HW252999  10.555   1.893   2.937
50368SOL     OW53000   8.031   8.832   5.760
50368SOL    HW153001   8.119   8.807   5.788
50368SOL    HW253002   7.988   8.750   5.737
50369SOL     OW53003   3.515   1.058   7.904
50369SOL    HW153004   3.600   1.043   7.944
50369SOL    HW253005   3.461   1.096   7.973
50370SOL     OW53006   0.857  14.845   9.054
50370SOL    HW153007   0.951  14.845   9.074
50370SOL    HW253008   0.829   0.060   9.071
50371SOL     OW53009   1.365   6.027   3.772
50371SOL    HW153010   1.409   6.110   3.758
50371SOL    HW253011   1.386   5.975   3.695
50372SOL     OW53012  11.555  13.074  10.188
50372SOL    HW153013  11.489  13.080  10.119
50372SOL    HW253014  11.525  13.136  10.255
50373SOL     OW53015   3.490   3.844   0.583
50373SOL    HW153016   3.521   3.818   0.670
50373SOL    HW253017   3.519   3.935   0.573
50374SOL     OW53018   5.312   9.255  14.816
50374SOL    HW153019   5.383   9.243   0.003
50374SOL    HW253020   5.356   9.277  14.734
50375SOL     OW53021  14.180   6.587   5.251
50375SOL    HW153022  14.209   6.647   5.183
50375SOL    HW253023  14.085   6.584   5.242
50376SOL     OW53024   3.455   6.295   9.305
50376SOL    HW153025   3.435   6.318   9.395
50376SOL    HW253026   3.509   6.367   9.273
50377SOL     OW53027   9.868   0.528  14.874
50377SOL    HW153028   9.815   0.598  14.836
50377SOL    HW253029   9.955   0.541  14.836
50378SOL     OW53030  13.154  14.432   3.142
50378SOL    HW153031  13.188  14.506   3.192
50378SOL    HW253032  13.071  14.411   3.186
50379SOL     OW53033   5.990   0.336   6.564
50379SOL    HW153034   6.062   0.373   6.513
50379SOL    HW253035   6.029   0.260   6.608
50380SOL     OW53036  13.719   6.953   6.369
50380SOL    HW153037  13.767   7.007   6.432
50380SOL    HW253038  13.780   6.939   6.297
50381SOL     OW53039   8.274  12.915   2.757
50381SOL    HW153040   8.309  12.857   2.689
50381SOL    HW253041   8.333  12.990   2.757
50382SOL     OW53042   5.779   1.594   4.117
50382SOL    HW153043   5.752   1.581   4.026
50382SOL    HW253044   5.698   1.615   4.163
50383SOL     OW53045  14.051  14.610   7.251
50383SOL    HW153046  13.993  14.661   7.194
50383SOL    HW253047  13.995  14.584   7.324
50384SOL     OW53048  13.874  14.378   3.036
50384SOL    HW153049  13.808  14.438   3.003
50384SOL    HW253050  13.907  14.333   2.959
50385SOL     OW53051   7.682   0.539   9.977
50385SOL    HW153052   7.619   0.496   9.919
50385SOL    HW253053   7.752   0.475   9.988
50386SOL     OW53054   7.994   6.138   5.480
50386SOL    HW153055   8.073   6.103   5.520
50386SOL    HW253056   7.931   6.066   5.483
50387SOL     OW53057   1.397   7.495   6.572
50387SOL    HW153058   1.351   7.472   6.491
50387SOL    HW253059   1.411   7.411   6.615
50388SOL     OW53060   8.525   3.011   3.386
50388SOL    HW153061   8.558   3.051   3.306
50388SOL    HW253062   8.604   2.984   3.433
50389SOL     OW53063   8.039   4.786   0.114
50389SOL    HW153064   7.959   4.786   0.167
50389SOL    HW253065   8.012   4.822   0.030
50390SOL     OW53066   0.176  14.334   1.751
50390SOL    HW153067   0.214  14.418   1.777
50390SOL    HW253068   0.206  14.273   1.819
50391SOL     OW53069  12.828   9.824   8.177
50391SOL    HW153070  12.816   9.730   8.167
50391SOL    HW253071  12.742   9.857   8.202
50392SOL     OW53072   2.110   7.425   8.516
50392SOL    HW153073   2.155   7.400   8.597
50392SOL    HW253074   2.048   7.493   8.544
50393SOL     OW53075   7.651  10.252   2.999
50393SOL    HW153076   7.695  10.236   2.915
50393SOL    HW253077   7.721  10.243   3.064
50394SOL     OW53078  12.909   3.541  14.220
50394SOL    HW153079  12.961   3.620  14.236
50394SOL    HW253080  12.832   3.552  14.276
50395SOL     OW53081   7.410   3.133  14.401
50395SOL    HW153082   7.431   3.053  14.449
50395SOL    HW253083   7.315   3.142  14.409
50396SOL     OW53084   8.527  12.865  10.711
50396SOL    HW153085   8.526  12.862  10.807
50396SOL    HW253086   8.447  12.912  10.688
50397SOL     OW53087  14.703   6.996   5.994
50397SOL    HW153088  14.615   6.971   5.966
50397SOL    HW253089  14.745   6.915   6.021
50398SOL     OW53090   1.084   2.513   9.911
50398SOL    HW153091   1.121   2.553   9.832
50398SOL    HW253092   1.153   2.521   9.977
50399SOL     OW53093   6.166   6.325   1.335
50399SOL    HW153094   6.197   6.409   1.303
50399SOL    HW253095   6.112   6.291   1.264
50400SOL     OW53096  11.261   0.902   2.644
50400SOL    HW153097  11.261   0.888   2.550
50400SOL    HW253098  11.189   0.847   2.677
50401SOL     OW53099  12.254  10.565   2.693
50401SOL    HW153100  12.247  10.541   2.601
50401SOL    HW253101  12.336  10.614   2.699
50402SOL     OW53102  13.722   5.124   1.007
50402SOL    HW153103  13.776   5.189   1.053
50402SOL    HW253104  13.636   5.131   1.049
50403SOL     OW53105   1.316  13.443   9.215
50403SOL    HW153106   1.340  13.536   9.213
50403SOL    HW253107   1.346  13.409   9.131
50404SOL     OW53108   1.035   2.889   4.941
50404SOL    HW153109   1.023   2.935   4.858
50404SOL    HW253110   1.105   2.826   4.923
50405SOL     OW53111  10.116   7.110   9.463
50405SOL    HW153112  10.083   7.094   9.375
50405SOL    HW253113  10.140   7.023   9.495
50406SOL     OW53114   5.680  11.390  12.199
50406SOL    HW153115   5.618  11.461  12.210
50406SOL    HW253116   5.638  11.330  12.138
50407SOL     OW53117   4.989   4.889   1.176
50407SOL    HW153118   4.898   4.870   1.198
50407SOL    HW253119   5.002   4.847   1.091
50408SOL     OW53120   9.777   2.221  12.553
50408SOL    HW153121   9.802   2.131  12.537
50408SOL    HW253122   9.860   2.269  12.558
50409SOL     OW53123   0.290   4.377   9.333
50409SOL    HW153124   0.279   4.291   9.293
50409SOL    HW253125   0.353   4.422   9.277
50410SOL     OW53126  10.004  10.347   7.405
50410SOL    HW153127   9.996  10.409   7.477
50410SOL    HW253128   9.984  10.399   7.327
50411SOL     OW53129   8.330  10.632   0.284
50411SOL    HW153130   8.355  10.720   0.253
50411SOL    HW253131   8.258  10.648   0.345
50412SOL     OW53132   5.195   1.505   6.835
50412SOL    HW153133   5.269   1.449   6.812
50412SOL    HW253134   5.147   1.456   6.902
50413SOL     OW53135   7.064  11.433  10.115
50413SOL    HW153136   7.076  11.459  10.024
50413SOL    HW253137   6.990  11.485  10.146
50414SOL     OW53138   2.743   2.411  10.525
50414SOL    HW153139   2.816   2.474  10.526
50414SOL    HW253140   2.735   2.383  10.616
50415SOL     OW53141   3.607   5.596  12.969
50415SOL    HW153142   3.584   5.616  13.060
50415SOL    HW253143   3.674   5.529  12.976
50416SOL     OW53144   7.961   2.225   3.721
50416SOL    HW153145   7.899   2.237   3.794
50416SOL    HW253146   7.977   2.314   3.689
50417SOL     OW53147   6.224   1.169  14.416
50417SOL    HW153148   6.165   1.207  14.481
50417SOL    HW253149   6.285   1.239  14.396
50418SOL     OW53150   1.838   7.005   4.816
50418SOL    HW153151   1.865   7.018   4.725
50418SOL    HW253152   1.744   7.024   4.816
50419SOL     OW53153   0.950   3.428   7.351
50419SOL    HW153154   0.982   3.339   7.339
50419SOL    HW253155   1.013   3.469   7.410
50420SOL     OW53156   7.596  11.880   2.694
50420SOL    HW153157   7.665  11.855   2.755
50420SOL    HW253158   7.590  11.975   2.701
50421SOL     OW53159  13.323  11.980   8.120
50421SOL    HW153160  13.343  11.887   8.121
50421SOL    HW253161  13.373  12.015   8.047
50422SOL     OW53162  11.089   7.119  11.357
50422SOL    HW153163  11.131   7.038  11.330
50422SOL    HW253164  11.053   7.157  11.277
50423SOL     OW53165   7.456  11.859   4.607
50423SOL    HW153166   7.507  11.937   4.632
50423SOL    HW253167   7.433  11.818   4.690
50424SOL     OW53168   7.385   6.428   2.506
50424SOL    HW153169   7.334   6.508   2.524
50424SOL    HW253170   7.318   6.363   2.484
50425SOL     OW53171   7.491   3.210   1.173
50425SOL    HW153172   7.454   3.200   1.085
50425SOL    HW253173   7.551   3.136   1.182
50426SOL     OW53174  11.589   4.106   9.532
50426SOL    HW153175  11.524   4.051   9.489
50426SOL    HW253176  11.636   4.149   9.460
50427SOL     OW53177   9.141  10.543  14.275
50427SOL    HW153178   9.203  10.513  14.341
50427SOL    HW253179   9.082  10.469  14.262
50428SOL     OW53180  13.267   7.471  13.565
50428SOL    HW153181  13.224   7.453  13.481
50428SOL    HW253182  13.314   7.552  13.552
50429SOL     OW53183   3.748   0.061  11.848
50429SOL    HW153184   3.675   0.031  11.902
50429SOL    HW253185   3.826   0.042  11.900
50430SOL     OW53186  10.967   5.080   5.655
50430SOL    HW153187  11.005   4.997   5.626
50430SOL    HW253188  10.969   5.075   5.750
50431SOL     OW53189   3.446  13.703   3.309
50431SOL    HW153190   3.480  13.694   3.398
50431SOL    HW253191   3.489  13.632   3.260
50432SOL     OW53192  14.655  10.401   4.574
50432SOL    HW153193  14.582  10.456   4.600
50432SOL    HW253194  14.733  10.448   4.606
50433SOL     OW53195  11.623   3.953  12.010
50433SOL    HW153196  11.656   3.958  11.920
50433SOL    HW253197  11.702   3.950  12.064
50434SOL     OW53198  13.226   2.573  13.090
50434SOL    HW153199  13.188   2.485  13.085
50434SOL    HW253200  13.214   2.599  13.181
50435SOL     OW53201  11.282   1.910   8.331
50435SOL    HW153202  11.296   1.975   8.262
50435SOL    HW253203  11.252   1.832   8.284
50436SOL     OW53204  13.247   9.507  10.662
50436SOL    HW153205  13.277   9.462  10.741
50436SOL    HW253206  13.220   9.437  10.603
50437SOL     OW53207   2.808   3.299   3.259
50437SOL    HW153208   2.840   3.376   3.214
50437SOL    HW253209   2.825   3.316   3.352
50438SOL     OW53210   3.546  14.519   8.138
50438SOL    HW153211   3.506  14.477   8.214
50438SOL    HW253212   3.630  14.474   8.127
50439SOL     OW53213   2.879  13.021  12.310
50439SOL    HW153214   2.950  13.053  12.254
50439SOL    HW253215   2.866  13.091  12.374
50440SOL     OW53216   6.975   3.639   3.443
50440SOL    HW153217   6.987   3.696   3.367
50440SOL    HW253218   7.044   3.573   3.434
50441SOL     OW53219  12.552   9.857  10.242
50441SOL    HW153220  12.645   9.836  10.235
50441SOL    HW253221  12.531   9.845  10.334
50442SOL     OW53222  13.266   3.727  11.139
50442SOL    HW153223  13.273   3.723  11.235
50442SOL    HW253224  13.261   3.821  11.120
50443SOL     OW53225   8.303   1.351   2.751
50443SOL    HW153226   8.327   1.428   2.699
50443SOL    HW253227   8.336   1.371   2.838
50444SOL     OW53228   2.331  13.925  14.706
50444SOL    HW153229   2.313  14.015  14.733
50444SOL    HW253230   2.305  13.872  14.781
50445SOL     OW53231   5.632  10.635  13.878
50445SOL    HW153232   5.593  10.701  13.936
50445SOL    HW253233   5.574  10.633  13.802
50446SOL     OW53234   8.256   8.397   6.807
50446SOL    HW153235   8.175   8.387   6.758
50446SOL    HW253236   8.322   8.352   6.755
50447SOL     OW53237  13.705   6.320   6.107
50447SOL    HW153238  13.721   6.414   6.120
50447SOL    HW253239  13.781   6.277   6.146
50448SOL     OW53240   7.902   2.813   1.728
50448SOL    HW153241   7.896   2.770   1.813
50448SOL    HW253242   7.967   2.761   1.679
50449SOL     OW53243  14.490   8.901   0.873
50449SOL    HW153244  14.477   8.973   0.934
50449SOL    HW253245  14.487   8.942   0.787
50450SOL     OW53246  12.515  14.711   9.393
50450SOL    HW153247  12.593  14.701   9.339
50450SOL    HW253248  12.448  14.659   9.349
50451SOL     OW53249   0.695   7.292   6.642
50451SOL    HW153250   0.609   7.315   6.607
50451SOL    HW253251   0.686   7.200   6.667
50452SOL     OW53252  10.979  13.359   4.924
50452SOL    HW153253  11.073  13.371   4.912
50452SOL    HW253254  10.966  13.369   5.019
50453SOL     OW53255   7.043  13.252  12.183
50453SOL    HW153256   7.031  13.246  12.277
50453SOL    HW253257   7.136  13.272  12.171
50454SOL     OW53258  11.959   4.479   8.281
50454SOL    HW153259  12.008   4.398   8.266
50454SOL    HW253260  11.879   4.451   8.326
50455SOL     OW53261  10.032  14.219   9.698
50455SOL    HW153262   9.952  14.252   9.738
50455SOL    HW253263  10.085  14.188   9.771
50456SOL     OW53264   6.131   5.314   4.626
50456SOL    HW153265   6.145   5.318   4.531
50456SOL    HW253266   6.044   5.352   4.640
50457SOL     OW53267   7.468  10.596   4.222
50457SOL    HW153268   7.440  10.662   4.286
50457SOL    HW253269   7.452  10.512   4.266
50458SOL     OW53270   4.884   9.590   3.793
50458SOL    HW153271   4.927   9.626   3.871
50458SOL    HW253272   4.801   9.638   3.787
50459SOL     OW53273   4.358  10.935  11.792
50459SOL    HW153274   4.361  11.028  11.814
50459SOL    HW253275   4.446  10.902  11.811
50460SOL     OW53276   1.542  12.736  13.482
50460SOL    HW153277   1.630  12.734  13.443
50460SOL    HW253278   1.496  12.662  13.443
50461SOL     OW53279   8.808  11.458   7.505
50461SOL    HW153280   8.734  11.441   7.563
50461SOL    HW253281   8.783  11.536   7.456
50462SOL     OW53282   4.624   2.678   2.414
50462SOL    HW153283   4.633   2.585   2.435
50462SOL    HW253284   4.540   2.684   2.368
50463SOL     OW53285  12.959   6.324   8.114
50463SOL    HW153286  12.869   6.319   8.080
50463SOL    HW253287  12.947   6.336   8.208
50464SOL     OW53288   4.434   3.569   1.231
50464SOL    HW153289   4.466   3.614   1.154
50464SOL    HW253290   4.503   3.581   1.297
50465SOL     OW53291  14.262  12.975   2.985
50465SOL    HW153292  14.283  12.893   3.030
50465SOL    HW253293  14.326  13.038   3.019
50466SOL     OW53294   2.503   1.470   8.735
50466SOL    HW153295   2.575   1.463   8.673
50466SOL    HW253296   2.521   1.550   8.785
50467SOL     OW53297  13.804   7.886  11.578
50467SOL    HW153298  13.777   7.945  11.649
50467SOL    HW253299  13.756   7.805  11.594
50468SOL     OW53300  11.285   2.135  10.535
50468SOL    HW153301  11.340   2.071  10.490
50468SOL    HW253302  11.196   2.117  10.504
50469SOL     OW53303   7.861  10.727   5.329
50469SOL    HW153304   7.788  10.722   5.267
50469SOL    HW253305   7.929  10.774   5.282
50470SOL     OW53306   9.195   0.005  10.117
50470SOL    HW153307   9.197  14.837  10.202
50470SOL    HW253308   9.240  14.820  10.058
50471SOL     OW53309  12.025  12.480  13.343
50471SOL    HW153310  11.941  12.519  13.368
50471SOL    HW253311  12.079  12.486  13.422
50472SOL     OW53312   9.225   7.893  13.008
50472SOL    HW153313   9.191   7.895  12.919
50472SOL    HW253314   9.156   7.931  13.062
50473SOL     OW53315   0.928   1.375  13.602
50473SOL    HW153316   0.879   1.293  13.601
50473SOL    HW253317   0.989   1.366  13.676
50474SOL     OW53318  11.530  10.445   6.379
50474SOL    HW153319  11.515  10.539   6.385
50474SOL    HW253320  11.606  10.437   6.321
50475SOL     OW53321   2.952   8.999  11.199
50475SOL    HW153322   3.010   9.009  11.123
50475SOL    HW253323   3.002   8.948  11.262
50476SOL     OW53324  12.151  11.235   5.857
50476SOL    HW153325  12.137  11.223   5.764
50476SOL    HW253326  12.065  11.223   5.897
50477SOL     OW53327   2.954  10.173   7.610
50477SOL    HW153328   2.982  10.207   7.695
50477SOL    HW253329   3.035  10.146   7.567
50478SOL     OW53330  13.706  11.326  10.431
50478SOL    HW153331  13.634  11.266  10.413
50478SOL    HW253332  13.776  11.270  10.463
50479SOL     OW53333   6.262   3.756   5.612
50479SOL    HW153334   6.349   3.728   5.642
50479SOL    HW253335   6.208   3.753   5.691
50480SOL     OW53336   4.166   7.080   7.284
50480SOL    HW153337   4.112   7.056   7.209
50480SOL    HW253338   4.175   7.175   7.277
50481SOL     OW53339   1.222  10.696  12.608
50481SOL    HW153340   1.304  10.650  12.627
50481SOL    HW253341   1.196  10.663  12.521
50482SOL     OW53342   0.726  10.925   5.508
50482SOL    HW153343   0.696  11.016   5.509
50482SOL    HW253344   0.779  10.918   5.429
50483SOL     OW53345   1.960  11.684   2.988
50483SOL    HW153346   1.869  11.672   2.960
50483SOL    HW253347   2.012  11.657   2.912
50484SOL     OW53348   1.418   3.546   8.684
50484SOL    HW153349   1.416   3.480   8.754
50484SOL    HW253350   1.458   3.501   8.610
50485SOL     OW53351   0.396   3.837   3.584
50485SOL    HW153352   0.391   3.743   3.598
50485SOL    HW253353   0.310   3.861   3.549
50486SOL     OW53354  11.911   8.298   2.108
50486SOL    HW153355  11.981   8.359   2.130
50486SOL    HW253356  11.838   8.355   2.080
50487SOL     OW53357   7.992   2.421   7.690
50487SOL    HW153358   7.996   2.327   7.674
50487SOL    HW253359   8.069   2.456   7.647
50488SOL     OW53360   5.193  12.123   0.187
50488SOL    HW153361   5.259  12.170   0.136
50488SOL    HW253362   5.243  12.054   0.232
50489SOL     OW53363   4.617   1.688   5.493
50489SOL    HW153364   4.577   1.602   5.506
50489SOL    HW253365   4.677   1.676   5.420
50490SOL     OW53366  13.001   6.630   2.307
50490SOL    HW153367  12.946   6.561   2.344
50490SOL    HW253368  12.954   6.711   2.328
50491SOL     OW53369   4.198   7.625   4.751
50491SOL    HW153370   4.117   7.601   4.706
50491SOL    HW253371   4.256   7.550   4.734
50492SOL     OW53372   0.731  13.523  10.650
50492SOL    HW153373   0.744  13.428  10.651
50492SOL    HW253374   0.730  13.546  10.557
50493SOL     OW53375   9.316   4.212  10.207
50493SOL    HW153376   9.364   4.292  10.187
50493SOL    HW253377   9.246   4.239  10.265
50494SOL     OW53378   2.638  11.177   1.438
50494SOL    HW153379   2.685  11.236   1.497
50494SOL    HW253380   2.707  11.130   1.392
50495SOL     OW53381  11.364  14.307   4.324
50495SOL    HW153382  11.358  14.399   4.350
50495SOL    HW253383  11.278  14.287   4.286
50496SOL     OW53384  12.231  12.836   6.046
50496SOL    HW153385  12.233  12.770   5.977
50496SOL    HW253386  12.239  12.786   6.127
50497SOL     OW53387   3.484   8.503  13.493
50497SOL    HW153388   3.457   8.520  13.583
50497SOL    HW253389   3.457   8.413  13.476
50498SOL     OW53390   6.700   8.796   2.250
50498SOL    HW153391   6.726   8.727   2.310
50498SOL    HW253392   6.617   8.828   2.284
50499SOL     OW53393   4.162  11.049   3.126
50499SOL    HW153394   4.086  11.104   3.105
50499SOL    HW253395   4.208  11.039   3.043
50500SOL     OW53396   9.618  10.970   1.477
50500SOL    HW153397   9.706  10.933   1.469
50500SOL    HW253398   9.602  11.010   1.392
50501SOL     OW53399  11.030  13.983   3.607
50501SOL    HW153400  10.997  14.066   3.640
50501SOL    HW253401  11.076  14.006   3.526
50502SOL     OW53402   9.415   3.533  12.909
50502SOL    HW153403   9.497   3.567  12.945
50502SOL    HW253404   9.350   3.599  12.934
50503SOL     OW53405  14.622   4.487  14.820
50503SOL    HW153406  14.643   4.407  14.771
50503SOL    HW253407  14.543   4.465  14.870
50504SOL     OW53408   0.125  13.218  11.552
50504SOL    HW153409   0.108  13.177  11.468
50504SOL    HW253410   0.108  13.311  11.538
50505SOL     OW53411   5.597  13.085   8.043
50505SOL    HW153412   5.649  13.033   8.104
50505SOL    HW253413   5.553  13.020   7.987
50506SOL     OW53414  10.705  13.791   7.675
50506SOL    HW153415  10.798  13.802   7.693
50506SOL    HW253416  10.672  13.881   7.670
50507SOL     OW53417  13.665   3.738   4.420
50507SOL    HW153418  13.603   3.793   4.467
50507SOL    HW253419  13.638   3.648   4.440
50508SOL     OW53420   5.537  12.533  13.105
50508SOL    HW153421   5.595  12.476  13.156
50508SOL    HW253422   5.471  12.562  13.167
50509SOL     OW53423  13.529  10.768   6.255
50509SOL    HW153424  13.572  10.701   6.309
50509SOL    HW253425  13.600  10.805   6.202
50510SOL     OW53426  13.059   1.540   1.418
50510SOL    HW153427  12.974   1.578   1.397
50510SOL    HW253428  13.043   1.446   1.425
50511SOL     OW53429  10.841  14.795  10.520
50511SOL    HW153430  10.928  14.795  10.558
50511SOL    HW253431  10.855  14.808  10.426
50512SOL     OW53432   1.303  12.694  10.076
50512SOL    HW153433   1.214  12.711  10.107
50512SOL    HW253434   1.349  12.776  10.089
50513SOL     OW53435   6.273   7.561  11.100
50513SOL    HW153436   6.278   7.538  11.193
50513SOL    HW253437   6.340   7.507  11.058
50514SOL     OW53438  10.083   8.774   3.012
50514SOL    HW153439  10.111   8.749   2.924
50514SOL    HW253440   9.988   8.764   3.011
50515SOL     OW53441   7.651   5.795  13.020
50515SOL    HW153442   7.671   5.851  13.094
50515SOL    HW253443   7.730   5.742  13.007
50516SOL     OW53444   0.317  14.299   4.085
50516SOL    HW153445   0.359  14.265   4.005
50516SOL    HW253446   0.372  14.374   4.110
50517SOL     OW53447   2.382  12.939   5.066
50517SOL    HW153448   2.416  12.898   5.145
50517SOL    HW253449   2.412  12.882   4.995
50518SOL     OW53450   3.989  14.057   7.552
50518SOL    HW153451   4.003  13.964   7.534
50518SOL    HW253452   4.031  14.071   7.637
50519SOL     OW53453  14.207   3.424   8.420
50519SOL    HW153454  14.169   3.401   8.505
50519SOL    HW253455  14.181   3.515   8.406
50520SOL     OW53456  13.855   7.770  10.311
50520SOL    HW153457  13.897   7.826  10.376
50520SOL    HW253458  13.926   7.719  10.274
50521SOL     OW53459   9.796   7.080  13.536
50521SOL    HW153460   9.712   7.034  13.542
50521SOL    HW253461   9.773   7.169  13.508
50522SOL     OW53462  12.074   7.264  13.267
50522SOL    HW153463  12.024   7.346  13.268
50522SOL    HW253464  12.063   7.231  13.178
50523SOL     OW53465   3.495  14.863   3.250
50523SOL    HW153466   3.543   0.065   3.220
50523SOL    HW253467   3.557  14.791   3.240
50524SOL     OW53468  10.655   3.561   7.520
50524SOL    HW153469  10.636   3.583   7.611
50524SOL    HW253470  10.621   3.635   7.470
50525SOL     OW53471  11.915  14.691   7.622
50525SOL    HW153472  11.879  14.685   7.711
50525SOL    HW253473  11.991  14.749   7.631
50526SOL     OW53474   7.350   4.867   1.538
50526SOL    HW153475   7.294   4.935   1.576
50526SOL    HW253476   7.289   4.807   1.495
50527SOL     OW53477   9.961   2.800  11.877
50527SOL    HW153478  10.003   2.850  11.807
50527SOL    HW253479   9.973   2.852  11.955
50528SOL     OW53480   1.570   2.831   3.146
50528SOL    HW153481   1.552   2.739   3.167
50528SOL    HW253482   1.597   2.829   3.054
50529SOL     OW53483  13.094  10.418  11.470
50529SOL    HW153484  13.075  10.387  11.382
50529SOL    HW253485  13.017  10.468  11.495
50530SOL     OW53486  13.071  13.965   9.438
50530SOL    HW153487  13.017  13.902   9.390
50530SOL    HW253488  13.161  13.944   9.413
50531SOL     OW53489   7.485  12.506  12.602
50531SOL    HW153490   7.480  12.496  12.697
50531SOL    HW253491   7.397  12.483  12.571
50532SOL     OW53492  10.454   0.985  14.185
50532SOL    HW153493  10.404   1.066  14.195
50532SOL    HW253494  10.458   0.970  14.091
50533SOL     OW53495  13.196   4.860   8.738
50533SOL    HW153496  13.270   4.863   8.799
50533SOL    HW253497  13.230   4.816   8.661
50534SOL     OW53498   7.115  13.344   5.501
50534SOL    HW153499   7.119  13.328   5.595
50534SOL    HW253500   7.103  13.439   5.493
50535SOL     OW53501  13.780   3.338   6.207
50535SOL    HW153502  13.868   3.303   6.222
50535SOL    HW253503  13.723   3.262   6.218
50536SOL     OW53504   7.784   1.872   7.786
50536SOL    HW153505   7.755   1.877   7.877
50536SOL    HW253506   7.732   1.801   7.748
50537SOL     OW53507  14.500  10.459  11.185
50537SOL    HW153508  14.519  10.490  11.274
50537SOL    HW253509  14.586  10.451  11.144
50538SOL     OW53510  11.779  12.067  11.364
50538SOL    HW153511  11.730  12.079  11.445
50538SOL    HW253512  11.866  12.037  11.393
50539SOL     OW53513  14.709   7.647  11.950
50539SOL    HW153514  14.721   7.596  12.030
50539SOL    HW253515  14.738   7.735  11.973
50540SOL     OW53516   5.994   2.127  13.159
50540SOL    HW153517   5.978   2.183  13.235
50540SOL    HW253518   5.971   2.039  13.187
50541SOL     OW53519   6.805   8.940  12.725
50541SOL    HW153520   6.853   8.897  12.796
50541SOL    HW253521   6.847   9.025  12.716
50542SOL     OW53522   8.995   7.207  13.087
50542SOL    HW153523   9.053   7.240  13.157
50542SOL    HW253524   9.046   7.218  13.007
50543SOL     OW53525   6.889   3.533   1.910
50543SOL    HW153526   6.816   3.582   1.872
50543SOL    HW253527   6.849   3.455   1.947
50544SOL     OW53528   4.268   7.371   0.436
50544SOL    HW153529   4.266   7.402   0.526
50544SOL    HW253530   4.295   7.447   0.385
50545SOL     OW53531  12.782  11.230  11.527
50545SOL    HW153532  12.743  11.157  11.576
50545SOL    HW253533  12.783  11.303  11.589
50546SOL     OW53534  10.869  10.346  11.282
50546SOL    HW153535  10.947  10.390  11.314
50546SOL    HW253536  10.868  10.262  11.328
50547SOL     OW53537  14.756   2.196   9.611
50547SOL    HW153538  14.687   2.131   9.594
50547SOL    HW253539  14.803   2.204   9.528
50548SOL     OW53540   5.704   9.834  10.376
50548SOL    HW153541   5.712   9.929  10.365
50548SOL    HW253542   5.628   9.823  10.432
50549SOL     OW53543   8.511   0.977  14.064
50549SOL    HW153544   8.480   1.000  13.976
50549SOL    HW253545   8.606   0.991  14.060
50550SOL     OW53546  10.555   4.810   5.825
50550SOL    HW153547  10.605   4.788   5.747
50550SOL    HW253548  10.510   4.729   5.848
50551SOL     OW53549  11.332   0.804  11.656
50551SOL    HW153550  11.317   0.881  11.601
50551SOL    HW253551  11.373   0.741  11.598
50552SOL     OW53552   1.562   2.023  12.291
50552SOL    HW153553   1.474   1.986  12.279
50552SOL    HW253554   1.549   2.118  12.282
50553SOL     OW53555   1.898   8.120  13.218
50553SOL    HW153556   1.834   8.128  13.148
50553SOL    HW253557   1.847   8.126  13.299
50554SOL     OW53558   5.120   9.403  10.176
50554SOL    HW153559   5.167   9.378  10.256
50554SOL    HW253560   5.064   9.328  10.156
50555SOL     OW53561   6.176  11.298   5.077
50555SOL    HW153562   6.170  11.211   5.038
50555SOL    HW253563   6.090  11.337   5.062
50556SOL     OW53564  13.141  10.850   7.166
50556SOL    HW153565  13.126  10.922   7.104
50556SOL    HW253566  13.227  10.816   7.143
50557SOL     OW53567   7.323  14.665  10.219
50557SOL    HW153568   7.249  14.610  10.245
50557SOL    HW253569   7.292  14.755  10.234
50558SOL     OW53570   3.083   2.202   8.981
50558SOL    HW153571   3.158   2.225   9.036
50558SOL    HW253572   3.118   2.199   8.892
50559SOL     OW53573   3.382   1.627   5.145
50559SOL    HW153574   3.388   1.698   5.208
50559SOL    HW253575   3.374   1.670   5.060
50560SOL     OW53576  10.583   8.082  10.027
50560SOL    HW153577  10.506   8.132  10.052
50560SOL    HW253578  10.547   8.004   9.983
50561SOL     OW53579   7.885   0.510   3.601
50561SOL    HW153580   7.960   0.498   3.542
50561SOL    HW253581   7.903   0.593   3.645
50562SOL     OW53582  12.714   0.574   3.537
50562SOL    HW153583  12.723   0.513   3.610
50562SOL    HW253584  12.804   0.597   3.513
50563SOL     OW53585  12.832   0.373  10.009
50563SOL    HW153586  12.842   0.443  10.073
50563SOL    HW253587  12.882   0.300  10.045
50564SOL     OW53588  13.219  13.720   2.494
50564SOL    HW153589  13.262  13.798   2.528
50564SOL    HW253590  13.249  13.714   2.403
50565SOL     OW53591  12.901   1.886   9.231
50565SOL    HW153592  12.935   1.963   9.186
50565SOL    HW253593  12.971   1.861   9.292
50566SOL     OW53594   9.550   5.160  13.064
50566SOL    HW153595   9.499   5.094  13.111
50566SOL    HW253596   9.618   5.187  13.127
50567SOL     OW53597   5.277   7.800   2.131
50567SOL    HW153598   5.236   7.783   2.216
50567SOL    HW253599   5.353   7.854   2.151
50568SOL     OW53600   3.857   6.014  14.216
50568SOL    HW153601   3.806   6.092  14.194
50568SOL    HW253602   3.947   6.039  14.199
50569SOL     OW53603   1.548   7.112  14.513
50569SOL    HW153604   1.466   7.073  14.545
50569SOL    HW253605   1.547   7.202  14.547
50570SOL     OW53606   9.597   4.087   1.773
50570SOL    HW153607   9.600   4.005   1.724
50570SOL    HW253608   9.669   4.080   1.837
50571SOL     OW53609   7.925   3.267   4.121
50571SOL    HW153610   7.856   3.237   4.061
50571SOL    HW253611   7.995   3.204   4.109
50572SOL     OW53612   5.879   2.218   5.374
50572SOL    HW153613   5.971   2.207   5.399
50572SOL    HW253614   5.841   2.131   5.382
50573SOL     OW53615   6.672  12.330   8.638
50573SOL    HW153616   6.613  12.277   8.584
50573SOL    HW253617   6.754  12.280   8.639
50574SOL     OW53618   3.273   7.235   8.833
50574SOL    HW153619   3.218   7.239   8.911
50574SOL    HW253620   3.212   7.221   8.761
50575SOL     OW53621   5.072   7.200   3.885
50575SOL    HW153622   5.116   7.144   3.949
50575SOL    HW253623   5.083   7.153   3.802
50576SOL     OW53624   8.753   6.162  14.399
50576SOL    HW153625   8.795   6.237  14.442
50576SOL    HW253626   8.703   6.119  14.468
50577SOL     OW53627  10.197   7.553   9.127
50577SOL    HW153628  10.226   7.486   9.065
50577SOL    HW253629  10.107   7.528   9.149
50578SOL     OW53630   7.199   2.975   0.415
50578SOL    HW153631   7.281   2.933   0.441
50578SOL    HW253632   7.134   2.941   0.478
50579SOL     OW53633  10.623  10.966   7.125
50579SOL    HW153634  10.652  10.890   7.075
50579SOL    HW253635  10.701  10.994   7.174
50580SOL     OW53636  13.772   9.381  12.138
50580SOL    HW153637  13.779   9.438  12.062
50580SOL    HW253638  13.858   9.339  12.146
50581SOL     OW53639   0.002   4.036  13.192
50581SOL    HW153640  14.855   4.125  13.166
50581SOL    HW253641   0.088   4.043  13.234
50582SOL     OW53642   0.452   8.619   2.425
50582SOL    HW153643   0.482   8.547   2.369
50582SOL    HW253644   0.479   8.593   2.513
50583SOL     OW53645  13.239   6.985   8.385
50583SOL    HW153646  13.273   6.897   8.403
50583SOL    HW253647  13.249   6.995   8.291
50584SOL     OW53648   2.219   2.839   3.941
50584SOL    HW153649   2.267   2.765   3.978
50584SOL    HW253650   2.193   2.891   4.017
50585SOL     OW53651   3.490   0.092   6.588
50585SOL    HW153652   3.433   0.125   6.658
50585SOL    HW253653   3.570   0.066   6.633
50586SOL     OW53654   4.661  11.890   7.409
50586SOL    HW153655   4.602  11.964   7.393
50586SOL    HW253656   4.741  11.930   7.443
50587SOL     OW53657  14.667   3.248  13.564
50587SOL    HW153658  14.592   3.188  13.560
50587SOL    HW253659  14.639   3.317  13.624
50588SOL     OW53660   1.079  11.099   0.177
50588SOL    HW153661   0.986  11.100   0.155
50588SOL    HW253662   1.083  11.066   0.266
50589SOL     OW53663  13.558   0.710  11.641
50589SOL    HW153664  13.495   0.639  11.639
50589SOL    HW253665  13.618   0.688  11.712
50590SOL     OW53666   7.202  10.777   5.413
50590SOL    HW153667   7.152  10.730   5.346
50590SOL    HW253668   7.257  10.710   5.453
50591SOL     OW53669   9.066  14.432   2.870
50591SOL    HW153670   9.034  14.447   2.959
50591SOL    HW253671   9.116  14.511   2.849
50592SOL     OW53672   0.663   3.241   3.487
50592SOL    HW153673   0.726   3.245   3.415
50592SOL    HW253674   0.599   3.309   3.467
50593SOL     OW53675   6.771   3.286   7.102
50593SOL    HW153676   6.786   3.347   7.030
50593SOL    HW253677   6.777   3.199   7.061
50594SOL     OW53678   9.932  13.914   6.606
50594SOL    HW153679   9.879  13.834   6.602
50594SOL    HW253680  10.006  13.897   6.548
50595SOL     OW53681   2.994  13.586   4.187
50595SOL    HW153682   2.980  13.588   4.092
50595SOL    HW253683   2.917  13.541   4.222
50596SOL     OW53684   6.800   6.595  10.751
50596SOL    HW153685   6.793   6.609  10.657
50596SOL    HW253686   6.761   6.673  10.790
50597SOL     OW53687   1.368   8.467  10.199
50597SOL    HW153688   1.370   8.563  10.200
50597SOL    HW253689   1.392   8.442  10.288
50598SOL     OW53690   3.939  11.436   7.830
50598SOL    HW153691   3.853  11.395   7.838
50598SOL    HW253692   3.934  11.486   7.749
50599SOL     OW53693  10.639   6.669   3.533
50599SOL    HW153694  10.702   6.607   3.498
50599SOL    HW253695  10.582   6.691   3.459
50600SOL     OW53696   0.733  13.836   4.578
50600SOL    HW153697   0.639  13.852   4.577
50600SOL    HW253698   0.771  13.910   4.530
50601SOL     OW53699   4.621   4.923   8.703
50601SOL    HW153700   4.596   4.868   8.778
50601SOL    HW253701   4.611   5.012   8.735
50602SOL     OW53702   6.363  14.068  12.461
50602SOL    HW153703   6.327  14.088  12.374
50602SOL    HW253704   6.457  14.067  12.448
50603SOL     OW53705  11.390  10.330  14.800
50603SOL    HW153706  11.464  10.359  14.853
50603SOL    HW253707  11.403  10.372  14.715
50604SOL     OW53708  14.771   7.171   5.398
50604SOL    HW153709  14.706   7.112   5.359
50604SOL    HW253710  14.810   7.120   5.469
50605SOL     OW53711   7.262   4.680   8.250
50605SOL    HW153712   7.223   4.735   8.182
50605SOL    HW253713   7.339   4.642   8.209
50606SOL     OW53714  11.049   5.392  10.669
50606SOL    HW153715  11.079   5.313  10.624
50606SOL    HW253716  10.966   5.366  10.710
50607SOL     OW53717   5.012   8.444   6.686
50607SOL    HW153718   5.045   8.461   6.774
50607SOL    HW253719   5.049   8.359   6.662
50608SOL     OW53720  14.426   9.768   1.105
50608SOL    HW153721  14.431   9.863   1.117
50608SOL    HW253722  14.338   9.753   1.071
50609SOL     OW53723   7.340  14.382   6.121
50609SOL    HW153724   7.388  14.412   6.044
50609SOL    HW253725   7.396  14.407   6.195
50610SOL     OW53726   2.762   4.858   0.144
50610SOL    HW153727   2.840   4.821   0.102
50610SOL    HW253728   2.787   4.948   0.166
50611SOL     OW53729   3.122   7.058   5.237
50611SOL    HW153730   3.089   6.969   5.235
50611SOL    HW253731   3.151   7.076   5.148
50612SOL     OW53732  10.727  12.072   8.835
50612SOL    HW153733  10.666  12.142   8.811
50612SOL    HW253734  10.725  12.012   8.761
50613SOL     OW53735   5.408  10.135   8.151
50613SOL    HW153736   5.381  10.218   8.112
50613SOL    HW253737   5.461  10.093   8.084
50614SOL     OW53738   4.382  14.021   1.670
50614SOL    HW153739   4.292  14.044   1.646
50614SOL    HW253740   4.381  14.018   1.765
50615SOL     OW53741   7.359   3.180   6.728
50615SOL    HW153742   7.390   3.196   6.638
50615SOL    HW253743   7.413   3.107   6.759
50616SOL     OW53744   2.541  10.697   2.422
50616SOL    HW153745   2.612  10.686   2.486
50616SOL    HW253746   2.549  10.621   2.365
50617SOL     OW53747  11.694  14.673  10.152
50617SOL    HW153748  11.753  14.646  10.222
50617SOL    HW253749  11.616  14.620  10.164
50618SOL     OW53750   0.651   0.785   0.025
50618SOL    HW153751   0.590   0.846   0.067
50618SOL    HW253752   0.600   0.745  14.830
50619SOL     OW53753  14.454  14.353   3.770
50619SOL    HW153754  14.425  14.430   3.819
50619SOL    HW253755  14.549  14.350   3.784
50620SOL     OW53756   0.022   6.059   6.449
50620SOL    HW153757   0.076   6.110   6.509
50620SOL    HW253758  14.823   6.031   6.502
50621SOL     OW53759   9.385   9.690   4.952
50621SOL    HW153760   9.327   9.631   5.000
50621SOL    HW253761   9.401   9.645   4.868
50622SOL     OW53762   0.798   2.593   8.417
50622SOL    HW153763   0.772   2.519   8.361
50622SOL    HW253764   0.893   2.583   8.426
50623SOL     OW53765   8.328  12.046   4.863
50623SOL    HW153766   8.246  12.074   4.824
50623SOL    HW253767   8.361  12.124   4.908
50624SOL     OW53768  13.059   6.956   4.396
50624SOL    HW153769  13.080   6.869   4.429
50624SOL    HW253770  12.963   6.961   4.402
50625SOL     OW53771   4.413   8.312   1.832
50625SOL    HW153772   4.415   8.308   1.928
50625SOL    HW253773   4.419   8.406   1.812
50626SOL     OW53774   3.947   9.056   9.837
50626SOL    HW153775   3.979   8.972   9.870
50626SOL    HW253776   3.958   9.050   9.742
50627SOL     OW53777   1.764  14.866   7.635
50627SOL    HW153778   1.772   0.056   7.704
50627SOL    HW253779   1.836   0.011   7.575
50628SOL     OW53780  10.518  11.903   1.639
50628SOL    HW153781  10.514  11.890   1.734
50628SOL    HW253782  10.562  11.825   1.606
50629SOL     OW53783   4.471   5.637   6.747
50629SOL    HW153784   4.436   5.651   6.659
50629SOL    HW253785   4.399   5.661   6.805
50630SOL     OW53786   0.648   4.525   6.636
50630SOL    HW153787   0.715   4.580   6.597
50630SOL    HW253788   0.588   4.505   6.564
50631SOL     OW53789   5.016   1.725   8.851
50631SOL    HW153790   5.111   1.724   8.839
50631SOL    HW253791   4.990   1.815   8.833
50632SOL     OW53792  11.919   0.935  11.623
50632SOL    HW153793  11.994   0.932  11.682
50632SOL    HW253794  11.949   0.988  11.549
50633SOL     OW53795   9.822   7.376   8.859
50633SOL    HW153796   9.872   7.452   8.829
50633SOL    HW253797   9.872   7.301   8.825
50634SOL     OW53798   0.524   0.303  13.907
50634SOL    HW153799   0.429   0.304  13.913
50634SOL    HW253800   0.551   0.391  13.933
50635SOL     OW53801   5.874  12.883  13.423
50635SOL    HW153802   5.900  12.972  13.445
50635SOL    HW253803   5.786  12.892  13.385
50636SOL     OW53804   6.083  13.526   6.974
50636SOL    HW153805   6.036  13.472   7.037
50636SOL    HW253806   6.166  13.547   7.017
50637SOL     OW53807   8.307  13.190   5.609
50637SOL    HW153808   8.360  13.229   5.539
50637SOL    HW253809   8.233  13.250   5.619
50638SOL     OW53810  10.991  10.105  10.179
50638SOL    HW153811  10.974  10.098  10.085
50638SOL    HW253812  10.935  10.037  10.218
50639SOL     OW53813  12.760   1.058  14.733
50639SOL    HW153814  12.848   1.053  14.768
50639SOL    HW253815  12.729   0.967  14.731
50640SOL     OW53816   4.393   9.242   3.916
50640SOL    HW153817   4.344   9.209   3.841
50640SOL    HW253818   4.352   9.200   3.992
50641SOL     OW53819  11.134   0.549  11.920
50641SOL    HW153820  11.197   0.483  11.894
50641SOL    HW253821  11.086   0.509  11.993
50642SOL     OW53822  14.494   9.510   3.129
50642SOL    HW153823  14.405   9.478   3.144
50642SOL    HW253824  14.482   9.602   3.104
50643SOL     OW53825  12.586  13.996   9.607
50643SOL    HW153826  12.516  13.932   9.621
50643SOL    HW253827  12.661  13.961   9.655
50644SOL     OW53828  14.403   4.845  14.452
50644SOL    HW153829  14.495   4.858  14.429
50644SOL    HW253830  14.405   4.773  14.515
50645SOL     OW53831   5.111   6.634   3.126
50645SOL    HW153832   5.074   6.555   3.165
50645SOL    HW253833   5.038   6.697   3.127
50646SOL     OW53834   9.631   6.349  14.263
50646SOL    HW153835   9.639   6.418  14.330
50646SOL    HW253836   9.539   6.352  14.237
50647SOL     OW53837   0.318   0.253   2.096
50647SOL    HW153838   0.329   0.163   2.125
50647SOL    HW253839   0.402   0.277   2.058
50648SOL     OW53840   0.926   0.543   1.345
50648SOL    HW153841   0.934   0.609   1.414
50648SOL    HW253842   0.853   0.489   1.372
50649SOL     OW53843   1.761   9.757   3.245
50649SOL    HW153844   1.806   9.673   3.232
50649SOL    HW253845   1.668   9.734   3.247
50650SOL     OW53846   9.125   3.359   2.405
50650SOL    HW153847   9.166   3.426   2.460
50650SOL    HW253848   9.031   3.367   2.423
50651SOL     OW53849   7.073   5.238   7.586
50651SOL    HW153850   7.093   5.265   7.676
50651SOL    HW253851   7.133   5.165   7.570
50652SOL     OW53852  12.632   1.979   3.570
50652SOL    HW153853  12.721   1.960   3.598
50652SOL    HW253854  12.608   2.059   3.618
50653SOL     OW53855   7.447  10.809  10.655
50653SOL    HW153856   7.436  10.715  10.668
50653SOL    HW253857   7.435  10.848  10.741
50654SOL     OW53858   2.365   8.902   7.437
50654SOL    HW153859   2.321   8.980   7.404
50654SOL    HW253860   2.326   8.830   7.387
50655SOL     OW53861   8.517   7.310   4.703
50655SOL    HW153862   8.501   7.292   4.795
50655SOL    HW253863   8.467   7.243   4.656
50656SOL     OW53864  10.416  14.767   8.028
50656SOL    HW153865  10.379  14.799   8.111
50656SOL    HW253866  10.423  14.672   8.040
50657SOL     OW53867   7.105   1.805   8.527
50657SOL    HW153868   7.167   1.737   8.501
50657SOL    HW253869   7.140   1.886   8.491
50658SOL     OW53870  13.968  14.483   0.330
50658SOL    HW153871  13.978  14.529   0.413
50658SOL    HW253872  14.057  14.453   0.308
50659SOL     OW53873   7.539   9.919   3.345
50659SOL    HW153874   7.583  10.004   3.352
50659SOL    HW253875   7.593   9.860   3.397
50660SOL     OW53876  12.063   7.132  14.706
50660SOL    HW153877  12.054   7.132  14.801
50660SOL    HW253878  12.156   7.152  14.690
50661SOL     OW53879   5.180   6.166  10.483
50661SOL    HW153880   5.124   6.178  10.406
50661SOL    HW253881   5.264   6.206  10.458
50662SOL     OW53882   6.623   1.179   8.571
50662SOL    HW153883   6.662   1.130   8.499
50662SOL    HW253884   6.648   1.270   8.555
50663SOL     OW53885  11.981   4.413  13.271
50663SOL    HW153886  11.926   4.484  13.236
50663SOL    HW253887  11.970   4.419  13.366
50664SOL     OW53888  12.611   2.554   0.364
50664SOL    HW153889  12.694   2.528   0.323
50664SOL    HW253890  12.600   2.646   0.340
50665SOL     OW53891   5.565  10.682  12.512
50665SOL    HW153892   5.532  10.733  12.438
50665SOL    HW253893   5.561  10.591  12.483
50666SOL     OW53894   2.960   9.951   5.434
50666SOL    HW153895   2.929   9.864   5.407
50666SOL    HW253896   3.044   9.935   5.476
50667SOL     OW53897  10.139  11.657   8.306
50667SOL    HW153898  10.206  11.674   8.240
50667SOL    HW253899  10.187  11.650   8.388
50668SOL     OW53900   8.412   2.150  11.548
50668SOL    HW153901   8.443   2.234  11.513
50668SOL    HW253902   8.487   2.115  11.596
50669SOL     OW53903   8.080  11.310   0.682
50669SOL    HW153904   8.156  11.354   0.722
50669SOL    HW253905   8.095  11.315   0.588
50670SOL     OW53906   5.205  14.652  11.943
50670SOL    HW153907   5.273  14.692  11.998
50670SOL    HW253908   5.224  14.558  11.947
50671SOL     OW53909   3.241  13.598   9.110
50671SOL    HW153910   3.197  13.663   9.165
50671SOL    HW253911   3.330  13.631   9.100
50672SOL     OW53912   4.154  11.039  12.369
50672SOL    HW153913   4.133  11.132  12.379
50672SOL    HW253914   4.184  11.030  12.279
50673SOL     OW53915  14.643   8.713   9.875
50673SOL    HW153916  14.645   8.640   9.936
50673SOL    HW253917  14.576   8.690   9.811
50674SOL     OW53918  13.237  10.845   3.292
50674SOL    HW153919  13.284  10.807   3.217
50674SOL    HW253920  13.146  10.819   3.279
50675SOL     OW53921  14.248   9.269   7.416
50675SOL    HW153922  14.162   9.311   7.415
50675SOL    HW253923  14.262   9.246   7.508
50676SOL     OW53924   5.388   8.404  12.303
50676SOL    HW153925   5.425   8.444  12.382
50676SOL    HW253926   5.299   8.439  12.298
50677SOL     OW53927   9.226   3.655  11.992
50677SOL    HW153928   9.284   3.580  11.998
50677SOL    HW253929   9.271   3.724  12.041
50678SOL     OW53930  13.445   6.971  12.877
50678SOL    HW153931  13.454   7.030  12.952
50678SOL    HW253932  13.352   6.950  12.874
50679SOL     OW53933  11.126  13.971   9.856
50679SOL    HW153934  11.040  13.933   9.836
50679SOL    HW253935  11.134  13.962   9.951
50680SOL     OW53936   9.482   7.233   2.372
50680SOL    HW153937   9.442   7.241   2.459
50680SOL    HW253938   9.554   7.296   2.373
50681SOL     OW53939   6.382  10.218   4.902
50681SOL    HW153940   6.460  10.203   4.954
50681SOL    HW253941   6.414  10.263   4.823
50682SOL     OW53942   4.285   1.225  13.217
50682SOL    HW153943   4.350   1.259  13.280
50682SOL    HW253944   4.234   1.302  13.193
50683SOL     OW53945   5.079  12.665   8.971
50683SOL    HW153946   5.169  12.689   8.950
50683SOL    HW253947   5.084  12.574   8.999
50684SOL     OW53948   7.495   1.557   2.404
50684SOL    HW153949   7.420   1.512   2.365
50684SOL    HW253950   7.477   1.650   2.391
50685SOL     OW53951  13.656   2.756  14.842
50685SOL    HW153952  13.584   2.703  14.806
50685SOL    HW253953  13.650   2.839  14.795
50686SOL     OW53954  12.645   1.820   5.009
50686SOL    HW153955  12.660   1.857   5.096
50686SOL    HW253956  12.556   1.846   4.986
50687SOL     OW53957   4.302   9.039   9.419
50687SOL    HW153958   4.227   9.019   9.476
50687SOL    HW253959   4.270   9.107   9.360
50688SOL     OW53960   7.687   4.927   4.731
50688SOL    HW153961   7.639   4.857   4.686
50688SOL    HW253962   7.681   4.904   4.824
50689SOL     OW53963   0.404   5.865   8.796
50689SOL    HW153964   0.440   5.790   8.748
50689SOL    HW253965   0.439   5.856   8.884
50690SOL     OW53966  14.295   0.162   6.402
50690SOL    HW153967  14.310   0.219   6.477
50690SOL    HW253968  14.306   0.073   6.436
50691SOL     OW53969   6.446  14.742   0.106
50691SOL    HW153970   6.411  14.811   0.162
50691SOL    HW253971   6.462  14.786   0.022
50692SOL     OW53972   3.543   3.425   1.935
50692SOL    HW153973   3.522   3.379   1.853
50692SOL    HW253974   3.584   3.507   1.906
50693SOL     OW53975   3.363   6.348  12.209
50693SOL    HW153976   3.417   6.290  12.156
50693SOL    HW253977   3.314   6.289  12.267
50694SOL     OW53978   6.817   0.245   8.557
50694SOL    HW153979   6.848   0.332   8.531
50694SOL    HW253980   6.723   0.256   8.567
50695SOL     OW53981  13.260   7.587   5.461
50695SOL    HW153982  13.226   7.568   5.373
50695SOL    HW253983  13.221   7.519   5.516
50696SOL     OW53984   6.547   5.214   2.575
50696SOL    HW153985   6.506   5.129   2.559
50696SOL    HW253986   6.638   5.193   2.597
50697SOL     OW53987   9.393   8.924  11.048
50697SOL    HW153988   9.471   8.888  11.090
50697SOL    HW253989   9.414   8.927  10.955
50698SOL     OW53990   1.396   0.577   7.766
50698SOL    HW153991   1.479   0.613   7.735
50698SOL    HW253992   1.331   0.613   7.706
50699SOL     OW53993  11.041   0.974  10.742
50699SOL    HW153994  11.134   0.954  10.730
50699SOL    HW253995  10.999   0.888  10.744
50700SOL     OW53996   8.302   0.202   7.959
50700SOL    HW153997   8.258   0.163   8.034
50700SOL    HW253998   8.297   0.296   7.974
50701SOL     OW53999  11.545   6.981  14.725
50701SOL    HW154000  11.631   7.022  14.722
50701SOL    HW254001  11.563   6.887  14.726
50702SOL     OW54002   7.397   2.070  11.616
50702SOL    HW154003   7.430   2.013  11.686
50702SOL    HW254004   7.451   2.048  11.540
50703SOL     OW54005   3.520  14.206  11.272
50703SOL    HW154006   3.539  14.132  11.329
50703SOL    HW254007   3.500  14.167  11.187
50704SOL     OW54008  10.124   6.096   0.450
50704SOL    HW154009  10.214   6.119   0.469
50704SOL    HW254010  10.088   6.173   0.406
50705SOL     OW54011   4.704  13.648   7.770
50705SOL    HW154012   4.720  13.607   7.854
50705SOL    HW254013   4.614  13.623   7.747
50706SOL     OW54014   5.161   5.440   8.687
50706SOL    HW154015   5.074   5.434   8.726
50706SOL    HW254016   5.165   5.367   8.625
50707SOL     OW54017  14.606   7.340   3.767
50707SOL    HW154018  14.608   7.250   3.735
50707SOL    HW254019  14.517   7.352   3.801
50708SOL     OW54020  13.743   4.960  10.950
50708SOL    HW154021  13.720   4.936  10.860
50708SOL    HW254022  13.750   4.876  10.996
50709SOL     OW54023   2.910   9.866   3.190
50709SOL    HW154024   2.994   9.837   3.154
50709SOL    HW254025   2.896   9.810   3.266
50710SOL     OW54026  11.854   4.887   7.861
50710SOL    HW154027  11.928   4.829   7.840
50710SOL    HW254028  11.886   4.975   7.841
50711SOL     OW54029   5.674  11.121   6.900
50711SOL    HW154030   5.669  11.066   6.978
50711SOL    HW254031   5.736  11.076   6.843
50712SOL     OW54032   2.513   9.315   2.539
50712SOL    HW154033   2.481   9.234   2.499
50712SOL    HW254034   2.457   9.327   2.616
50713SOL     OW54035   5.209  11.701  12.920
50713SOL    HW154036   5.302  11.686  12.936
50713SOL    HW254037   5.197  11.795  12.933
50714SOL     OW54038   2.087  10.219  10.045
50714SOL    HW154039   2.050  10.138  10.011
50714SOL    HW254040   2.040  10.288   9.998
50715SOL     OW54041  10.803   1.875   7.331
50715SOL    HW154042  10.796   1.965   7.363
50715SOL    HW254043  10.834   1.884   7.241
50716SOL     OW54044  13.679  13.020   7.326
50716SOL    HW154045  13.625  13.079   7.379
50716SOL    HW254046  13.656  13.043   7.235
50717SOL     OW54047   8.074  13.619   8.616
50717SOL    HW154048   8.060  13.713   8.612
50717SOL    HW254049   8.169  13.609   8.612
50718SOL     OW54050  11.798   0.479  12.155
50718SOL    HW154051  11.708   0.459  12.131
50718SOL    HW254052  11.799   0.574  12.170
50719SOL     OW54053   8.945  14.120   5.189
50719SOL    HW154054   8.927  14.206   5.228
50719SOL    HW254055   8.951  14.137   5.095
50720SOL     OW54056  13.925   7.493  11.611
50720SOL    HW154057  13.860   7.449  11.556
50720SOL    HW254058  14.007   7.449  11.590
50721SOL     OW54059  12.260  11.010   3.531
50721SOL    HW154060  12.190  11.055   3.577
50721SOL    HW254061  12.290  11.074   3.465
50722SOL     OW54062   1.368   8.606   0.967
50722SOL    HW154063   1.359   8.701   0.978
50722SOL    HW254064   1.425   8.596   0.891
50723SOL     OW54065   0.550   4.748   2.437
50723SOL    HW154066   0.570   4.808   2.508
50723SOL    HW254067   0.473   4.786   2.394
50724SOL     OW54068   6.460   0.746  12.639
50724SOL    HW154069   6.436   0.838  12.636
50724SOL    HW254070   6.514   0.733  12.561
50725SOL     OW54071   4.515   5.968   1.352
50725SOL    HW154072   4.436   5.993   1.303
50725SOL    HW254073   4.543   5.887   1.311
50726SOL     OW54074   1.387   3.770   3.525
50726SOL    HW154075   1.383   3.817   3.608
50726SOL    HW254076   1.431   3.830   3.465
50727SOL     OW54077   9.986   9.093  12.588
50727SOL    HW154078   9.962   9.138  12.669
50727SOL    HW254079   9.915   9.030  12.574
50728SOL     OW54080  12.996  10.073   9.281
50728SOL    HW154081  12.982  10.093   9.373
50728SOL    HW254082  13.039  10.151   9.245
50729SOL     OW54083  13.034  12.552   6.215
50729SOL    HW154084  12.994  12.630   6.254
50729SOL    HW254085  13.121  12.547   6.255
50730SOL     OW54086  13.238   1.054   2.637
50730SOL    HW154087  13.323   1.095   2.624
50730SOL    HW254088  13.175   1.120   2.607
50731SOL     OW54089  11.665   8.393   4.311
50731SOL    HW154090  11.636   8.333   4.379
50731SOL    HW254091  11.612   8.371   4.234
50732SOL     OW54092   9.363  14.340  14.152
50732SOL    HW154093   9.457  14.349  14.164
50732SOL    HW254094   9.351  14.336  14.057
50733SOL     OW54095   7.430  11.626  14.514
50733SOL    HW154096   7.362  11.567  14.544
50733SOL    HW254097   7.499  11.569  14.480
50734SOL     OW54098   0.567   9.399   6.642
50734SOL    HW154099   0.572   9.495   6.643
50734SOL    HW254100   0.657   9.370   6.630
50735SOL     OW54101   9.624  11.861   7.302
50735SOL    HW154102   9.674  11.934   7.266
50735SOL    HW254103   9.539  11.899   7.325
50736SOL     OW54104   4.700   1.059  10.612
50736SOL    HW154105   4.689   1.054  10.517
50736SOL    HW254106   4.764   0.990  10.632
50737SOL     OW54107   1.317   3.867   4.432
50737SOL    HW154108   1.320   3.779   4.396
50737SOL    HW254109   1.233   3.872   4.478
50738SOL     OW54110   7.364   4.732   4.212
50738SOL    HW154111   7.415   4.777   4.145
50738SOL    HW254112   7.274   4.736   4.180
50739SOL     OW54113   9.834   7.449   2.668
50739SOL    HW154114   9.857   7.457   2.760
50739SOL    HW254115   9.861   7.532   2.629
50740SOL     OW54116   4.844   3.385   8.120
50740SOL    HW154117   4.902   3.334   8.176
50740SOL    HW254118   4.899   3.458   8.090
50741SOL     OW54119  11.730   8.439   6.133
50741SOL    HW154120  11.740   8.453   6.039
50741SOL    HW254121  11.638   8.412   6.143
50742SOL     OW54122   2.849  13.296  13.519
50742SOL    HW154123   2.900  13.301  13.438
50742SOL    HW254124   2.834  13.202  13.533
50743SOL     OW54125   9.446   9.014  13.301
50743SOL    HW154126   9.501   8.985  13.374
50743SOL    HW254127   9.403   8.934  13.271
50744SOL     OW54128   3.438  12.381   4.275
50744SOL    HW154129   3.516  12.436   4.287
50744SOL    HW254130   3.397  12.415   4.196
50745SOL     OW54131   0.062  14.707  13.148
50745SOL    HW154132   0.058  14.616  13.119
50745SOL    HW254133   0.042  14.704  13.242
50746SOL     OW54134   2.858   4.090   8.988
50746SOL    HW154135   2.934   4.080   9.046
50746SOL    HW254136   2.791   4.131   9.043
50747SOL     OW54137   3.107   6.960  10.754
50747SOL    HW154138   3.180   6.906  10.785
50747SOL    HW254139   3.096   7.026  10.823
50748SOL     OW54140   4.370  11.533  10.147
50748SOL    HW154141   4.334  11.577  10.225
50748SOL    HW254142   4.295  11.485  10.110
50749SOL     OW54143  10.784   8.089   1.596
50749SOL    HW154144  10.723   8.051   1.532
50749SOL    HW254145  10.829   8.158   1.548
50750SOL     OW54146  12.113   7.538   7.146
50750SOL    HW154147  12.177   7.490   7.092
50750SOL    HW254148  12.043   7.475   7.160
50751SOL     OW54149   3.704   9.676  11.471
50751SOL    HW154150   3.770   9.618  11.509
50751SOL    HW254151   3.683   9.636  11.387
50752SOL     OW54152   5.621   7.733  14.680
50752SOL    HW154153   5.526   7.731  14.675
50752SOL    HW254154   5.651   7.667  14.618
50753SOL     OW54155  10.480  12.431   6.776
50753SOL    HW154156  10.526  12.515   6.767
50753SOL    HW254157  10.503  12.400   6.864
50754SOL     OW54158   4.846   1.991  10.018
50754SOL    HW154159   4.878   1.939   9.944
50754SOL    HW254160   4.755   2.012   9.994
50755SOL     OW54161   9.810   5.623   2.529
50755SOL    HW154162   9.748   5.680   2.485
50755SOL    HW254163   9.896   5.662   2.511
50756SOL     OW54164   0.017  12.591  13.914
50756SOL    HW154165   0.030  12.509  13.866
50756SOL    HW254166   0.032  12.659  13.848
50757SOL     OW54167   5.545  11.204   1.641
50757SOL    HW154168   5.584  11.121   1.614
50757SOL    HW254169   5.521  11.190   1.733
50758SOL     OW54170   1.915   4.825   0.514
50758SOL    HW154171   1.865   4.906   0.515
50758SOL    HW254172   1.895   4.783   0.597
50759SOL     OW54173  14.570  14.441   2.711
50759SOL    HW154174  14.604  14.353   2.725
50759SOL    HW254175  14.639  14.486   2.663
50760SOL     OW54176   4.322   5.746   6.279
50760SOL    HW154177   4.261   5.686   6.235
50760SOL    HW254178   4.397   5.751   6.220
50761SOL     OW54179   5.597   1.528   0.124
50761SOL    HW154180   5.572   1.454   0.069
50761SOL    HW254181   5.533   1.528   0.195
50762SOL     OW54182   3.347   4.883   2.077
50762SOL    HW154183   3.287   4.832   2.023
50762SOL    HW254184   3.373   4.823   2.147
50763SOL     OW54185   7.055   3.072   1.697
50763SOL    HW154186   7.015   3.151   1.659
50763SOL    HW254187   7.146   3.098   1.714
50764SOL     OW54188   1.018   5.685  13.875
50764SOL    HW154189   1.027   5.693  13.780
50764SOL    HW254190   1.023   5.775  13.908
50765SOL     OW54191   5.323   2.094  13.553
50765SOL    HW154192   5.252   2.149  13.521
50765SOL    HW254193   5.289   2.056  13.634
50766SOL     OW54194  13.128   5.363   5.486
50766SOL    HW154195  13.124   5.378   5.581
50766SOL    HW254196  13.211   5.404   5.460
50767SOL     OW54197  13.560  14.259  11.301
50767SOL    HW154198  13.557  14.290  11.211
50767SOL    HW254199  13.469  14.263  11.331
50768SOL     OW54200   6.637   3.597   1.835
50768SOL    HW154201   6.666   3.631   1.750
50768SOL    HW254202   6.584   3.667   1.872
50769SOL     OW54203   4.385   6.111   9.008
50769SOL    HW154204   4.454   6.166   8.972
50769SOL    HW254205   4.387   6.129   9.102
50770SOL     OW54206   9.173   4.117   5.732
50770SOL    HW154207   9.245   4.171   5.765
50770SOL    HW254208   9.111   4.181   5.696
50771SOL     OW54209  12.863  11.282  13.840
50771SOL    HW154210  12.808  11.299  13.917
50771SOL    HW254211  12.945  11.247  13.876
50772SOL     OW54212   5.855   3.798   9.170
50772SOL    HW154213   5.785   3.808   9.106
50772SOL    HW254214   5.818   3.740   9.236
50773SOL     OW54215  13.710   0.795   4.743
50773SOL    HW154216  13.763   0.842   4.807
50773SOL    HW254217  13.772   0.739   4.697
50774SOL     OW54218   8.711  14.367   7.212
50774SOL    HW154219   8.747  14.456   7.204
50774SOL    HW254220   8.781  14.310   7.182
50775SOL     OW54221  11.030   0.128   6.804
50775SOL    HW154222  11.099   0.190   6.829
50775SOL    HW254223  11.003   0.156   6.717
50776SOL     OW54224   3.849   6.828   5.086
50776SOL    HW154225   3.768   6.791   5.121
50776SOL    HW254226   3.918   6.767   5.114
50777SOL     OW54227  13.055  11.553  12.450
50777SOL    HW154228  12.995  11.618  12.486
50777SOL    HW254229  13.036  11.473  12.499
50778SOL     OW54230  11.657   4.774   7.684
50778SOL    HW154231  11.683   4.858   7.722
50778SOL    HW254232  11.729   4.715   7.704
50779SOL     OW54233   0.432  14.390   9.547
50779SOL    HW154234   0.372  14.428   9.611
50779SOL    HW254235   0.384  14.314   9.513
50780SOL     OW54236  13.010   2.167   0.893
50780SOL    HW154237  13.045   2.093   0.944
50780SOL    HW254238  13.057   2.162   0.809
50781SOL     OW54239   3.313   6.936  11.075
50781SOL    HW154240   3.385   6.928  11.012
50781SOL    HW254241   3.267   6.852  11.070
50782SOL     OW54242   2.580  11.487   7.896
50782SOL    HW154243   2.600  11.580   7.894
50782SOL    HW254244   2.564  11.464   7.804
50783SOL     OW54245  10.890  14.806   4.507
50783SOL    HW154246  10.820  14.798   4.443
50783SOL    HW254247  10.970  14.802   4.455
50784SOL     OW54248  11.473   8.593   8.908
50784SOL    HW154249  11.470   8.638   8.823
50784SOL    HW254250  11.392   8.542   8.910
50785SOL     OW54251  14.386   7.186   4.871
50785SOL    HW154252  14.300   7.229   4.869
50785SOL    HW254253  14.432   7.221   4.795
50786SOL     OW54254   7.087   1.020  11.215
50786SOL    HW154255   7.092   0.925  11.213
50786SOL    HW254256   7.022   1.042  11.149
50787SOL     OW54257  13.524   4.002   2.191
50787SOL    HW154258  13.516   3.948   2.270
50787SOL    HW254259  13.617   3.996   2.168
50788SOL     OW54260  12.911  10.680   7.231
50788SOL    HW154261  12.949  10.672   7.318
50788SOL    HW254262  12.981  10.719   7.178
50789SOL     OW54263   9.040   5.556   1.110
50789SOL    HW154264   9.101   5.502   1.161
50789SOL    HW254265   8.959   5.556   1.161
50790SOL     OW54266   9.001  11.568   4.671
50790SOL    HW154267   8.967  11.500   4.612
50790SOL    HW254268   9.086  11.535   4.699
50791SOL     OW54269  13.549   9.900   5.154
50791SOL    HW154270  13.556   9.805   5.160
50791SOL    HW254271  13.553   9.930   5.245
50792SOL     OW54272  11.640   9.715   0.296
50792SOL    HW154273  11.583   9.782   0.257
50792SOL    HW254274  11.695   9.764   0.357
50793SOL     OW54275   2.242   8.090  13.524
50793SOL    HW154276   2.193   8.152  13.471
50793SOL    HW254277   2.322   8.073  13.473
50794SOL     OW54278   3.176   1.062   4.006
50794SOL    HW154279   3.263   1.054   4.046
50794SOL    HW254280   3.150   1.152   4.024
50795SOL     OW54281  12.585   7.236   4.104
50795SOL    HW154282  12.501   7.198   4.129
50795SOL    HW254283  12.618   7.277   4.183
50796SOL     OW54284   3.804   5.449  14.771
50796SOL    HW154285   3.873   5.501  14.814
50796SOL    HW254286   3.844   5.419  14.689
50797SOL     OW54287   2.013  14.568   2.552
50797SOL    HW154288   1.984  14.479   2.533
50797SOL    HW254289   2.086  14.557   2.612
50798SOL     OW54290   6.329   7.800   3.829
50798SOL    HW154291   6.309   7.877   3.882
50798SOL    HW254292   6.246   7.780   3.785
50799SOL     OW54293   9.865   2.615   1.435
50799SOL    HW154294   9.852   2.542   1.496
50799SOL    HW254295   9.867   2.574   1.349
50800SOL     OW54296  13.113   3.291   2.826
50800SOL    HW154297  13.206   3.312   2.821
50800SOL    HW254298  13.106   3.232   2.901
50801SOL     OW54299   3.558   3.139   4.043
50801SOL    HW154300   3.560   3.213   3.983
50801SOL    HW254301   3.469   3.141   4.079
50802SOL     OW54302  10.134   4.544   8.322
50802SOL    HW154303  10.157   4.635   8.341
50802SOL    HW254304  10.195   4.492   8.373
50803SOL     OW54305   2.441   9.139  10.355
50803SOL    HW154306   2.474   9.138  10.445
50803SOL    HW254307   2.514   9.170  10.303
50804SOL     OW54308   1.951  13.201   4.984
50804SOL    HW154309   2.023  13.148   4.949
50804SOL    HW254310   1.964  13.201   5.079
50805SOL     OW54311   8.794   5.273   2.340
50805SOL    HW154312   8.852   5.318   2.278
50805SOL    HW254313   8.833   5.292   2.426
50806SOL     OW54314   5.102  13.485   0.806
50806SOL    HW154315   5.109  13.401   0.760
50806SOL    HW254316   5.150  13.547   0.751
50807SOL     OW54317  10.559   4.244  10.245
50807SOL    HW154318  10.562   4.157  10.287
50807SOL    HW254319  10.639   4.287  10.275
50808SOL     OW54320   8.767  12.820   5.179
50808SOL    HW154321   8.781  12.914   5.165
50808SOL    HW254322   8.706  12.816   5.253
50809SOL     OW54323   6.727   4.025   2.570
50809SOL    HW154324   6.702   4.058   2.484
50809SOL    HW254325   6.678   3.943   2.580
50810SOL     OW54326   1.179  14.751  14.313
50810SOL    HW154327   1.264  14.706  14.311
50810SOL    HW254328   1.187  14.814  14.385
50811SOL     OW54329   1.583   3.433   1.067
50811SOL    HW154330   1.633   3.489   1.008
50811SOL    HW254331   1.588   3.478   1.152
50812SOL     OW54332   5.842   7.464   8.038
50812SOL    HW154333   5.820   7.485   7.947
50812SOL    HW254334   5.758   7.447   8.080
50813SOL     OW54335   6.017  11.424   5.610
50813SOL    HW154336   5.960  11.355   5.643
50813SOL    HW254337   6.095  11.419   5.665
50814SOL     OW54338   8.318   9.084   6.023
50814SOL    HW154339   8.267   9.047   6.095
50814SOL    HW254340   8.315   9.178   6.036
50815SOL     OW54341   3.135  10.892   7.338
50815SOL    HW154342   3.221  10.850   7.326
50815SOL    HW254343   3.104  10.909   7.249
50816SOL     OW54344   5.148  10.748   5.192
50816SOL    HW154345   5.189  10.715   5.272
50816SOL    HW254346   5.211  10.727   5.122
50817SOL     OW54347   2.622  13.712   6.310
50817SOL    HW154348   2.675  13.745   6.382
50817SOL    HW254349   2.599  13.623   6.336
50818SOL     OW54350  14.471   8.134   5.570
50818SOL    HW154351  14.463   8.188   5.492
50818SOL    HW254352  14.471   8.044   5.538
50819SOL     OW54353   8.975   8.058  14.732
50819SOL    HW154354   9.041   8.106  14.682
50819SOL    HW254355   9.017   8.040  14.816
50820SOL     OW54356  10.454   2.763   0.329
50820SOL    HW154357  10.548   2.756   0.311
50820SOL    HW254358  10.449   2.806   0.414
50821SOL     OW54359   6.860   0.623   2.560
50821SOL    HW154360   6.810   0.666   2.630
50821SOL    HW254361   6.951   0.624   2.591
50822SOL     OW54362   5.048   4.122   7.653
50822SOL    HW154363   5.078   4.186   7.588
50822SOL    HW254364   5.120   4.059   7.660
50823SOL     OW54365   6.967   9.060  11.064
50823SOL    HW154366   6.912   9.026  11.134
50823SOL    HW254367   6.923   9.031  10.983
50824SOL     OW54368   4.372   8.837   0.713
50824SOL    HW154369   4.375   8.807   0.804
50824SOL    HW254370   4.412   8.924   0.715
50825SOL     OW54371   8.392   7.341  10.478
50825SOL    HW154372   8.428   7.302  10.398
50825SOL    HW254373   8.314   7.288  10.497
50826SOL     OW54374   3.335   9.017   8.676
50826SOL    HW154375   3.405   8.965   8.635
50826SOL    HW254376   3.254   8.979   8.642
50827SOL     OW54377   4.486  13.920  14.419
50827SOL    HW154378   4.527  13.957  14.342
50827SOL    HW254379   4.404  13.969  14.429
50828SOL     OW54380  14.471  11.797  13.733
50828SOL    HW154381  14.424  11.779  13.815
50828SOL    HW254382  14.425  11.871  13.695
50829SOL     OW54383  13.728  11.953  10.793
50829SOL    HW154384  13.775  11.965  10.876
50829SOL    HW254385  13.789  11.907  10.736
50830SOL     OW54386  14.445  13.600   0.733
50830SOL    HW154387  14.521  13.644   0.771
50830SOL    HW254388  14.390  13.672   0.701
50831SOL     OW54389   8.711  11.826   1.656
50831SOL    HW154390   8.654  11.803   1.582
50831SOL    HW254391   8.697  11.920   1.668
50832SOL     OW54392   0.699   8.347   3.796
50832SOL    HW154393   0.750   8.272   3.763
50832SOL    HW254394   0.761   8.396   3.850
50833SOL     OW54395   9.686  14.696  12.972
50833SOL    HW154396   9.703  14.789  12.983
50833SOL    HW254397   9.727  14.674  12.888
50834SOL     OW54398   2.976  14.839   7.324
50834SOL    HW154399   2.978  14.749   7.358
50834SOL    HW254400   3.006   0.018   7.397
50835SOL     OW54401   4.629   5.414   4.120
50835SOL    HW154402   4.646   5.491   4.174
50835SOL    HW254403   4.595   5.349   4.181
50836SOL     OW54404   4.842   7.780   2.678
50836SOL    HW154405   4.809   7.805   2.592
50836SOL    HW254406   4.763   7.765   2.730
50837SOL     OW54407  12.779   4.542  13.567
50837SOL    HW154408  12.713   4.579  13.626
50837SOL    HW254409  12.839   4.615  13.550
50838SOL     OW54410  12.410  11.403   7.137
50838SOL    HW154411  12.473  11.385   7.067
50838SOL    HW254412  12.452  11.369   7.216
50839SOL     OW54413   1.041   5.763   7.922
50839SOL    HW154414   1.101   5.799   7.987
50839SOL    HW254415   1.095   5.752   7.843
50840SOL     OW54416  12.486  12.401  10.345
50840SOL    HW154417  12.549  12.428  10.278
50840SOL    HW254418  12.494  12.467  10.414
50841SOL     OW54419  11.081   1.823   1.144
50841SOL    HW154420  11.143   1.877   1.094
50841SOL    HW254421  11.066   1.873   1.224
50842SOL     OW54422   9.454  12.774  11.570
50842SOL    HW154423   9.507  12.815  11.638
50842SOL    HW254424   9.408  12.848  11.529
50843SOL     OW54425   0.332   3.960   1.268
50843SOL    HW154426   0.345   3.989   1.178
50843SOL    HW254427   0.245   3.919   1.267
50844SOL     OW54428   5.959   3.592   3.518
50844SOL    HW154429   5.899   3.540   3.464
50844SOL    HW254430   5.985   3.533   3.589
50845SOL     OW54431   4.162   8.566   0.442
50845SOL    HW154432   4.175   8.659   0.422
50845SOL    HW254433   4.232   8.521   0.394
50846SOL     OW54434  11.277   0.034   0.836
50846SOL    HW154435  11.215  14.852   0.880
50846SOL    HW254436  11.339  14.850   0.793
50847SOL     OW54437  11.830  11.098   4.198
50847SOL    HW154438  11.768  11.050   4.253
50847SOL    HW254439  11.855  11.173   4.251
50848SOL     OW54440   8.574  13.147   4.564
50848SOL    HW154441   8.625  13.146   4.645
50848SOL    HW254442   8.575  13.239   4.537
50849SOL     OW54443   5.759   4.585   5.052
50849SOL    HW154444   5.833   4.594   5.112
50849SOL    HW254445   5.757   4.492   5.030
50850SOL     OW54446   3.763  12.968   7.241
50850SOL    HW154447   3.718  12.888   7.266
50850SOL    HW254448   3.812  12.994   7.319
50851SOL     OW54449   9.975   3.555  12.201
50851SOL    HW154450   9.902   3.581  12.258
50851SOL    HW254451   9.940   3.563  12.112
50852SOL     OW54452  11.613   9.595  11.412
50852SOL    HW154453  11.676   9.523  11.413
50852SOL    HW254454  11.660   9.667  11.370
50853SOL     OW54455   8.270   1.724   9.887
50853SOL    HW154456   8.252   1.787   9.957
50853SOL    HW254457   8.286   1.641   9.933
50854SOL     OW54458   4.262   9.268   8.950
50854SOL    HW154459   4.332   9.258   8.886
50854SOL    HW254460   4.253   9.363   8.962
50855SOL     OW54461   9.216  12.667   1.434
50855SOL    HW154462   9.191  12.610   1.507
50855SOL    HW254463   9.285  12.620   1.389
50856SOL     OW54464   3.544  14.154   2.100
50856SOL    HW154465   3.484  14.081   2.113
50856SOL    HW254466   3.495  14.231   2.130
50857SOL     OW54467   6.842   8.711   3.357
50857SOL    HW154468   6.806   8.796   3.331
50857SOL    HW254469   6.770   8.650   3.344
50858SOL     OW54470  10.995   6.582   6.533
50858SOL    HW154471  10.945   6.522   6.589
50858SOL    HW254472  10.930   6.643   6.499
50859SOL     OW54473  10.673  14.273   2.602
50859SOL    HW154474  10.597  14.283   2.545
50859SOL    HW254475  10.640  14.224   2.678
50860SOL     OW54476  14.630   8.785  12.095
50860SOL    HW154477  14.628   8.715  12.161
50860SOL    HW254478  14.538   8.809  12.083
50861SOL     OW54479  12.100   2.904   3.881
50861SOL    HW154480  12.117   2.887   3.788
50861SOL    HW254481  12.004   2.906   3.888
50862SOL     OW54482   7.561  12.520  12.917
50862SOL    HW154483   7.491  12.582  12.899
50862SOL    HW254484   7.577  12.529  13.011
50863SOL     OW54485  11.598   5.917   0.994
50863SOL    HW154486  11.544   5.840   0.976
50863SOL    HW254487  11.548   5.990   0.956
50864SOL     OW54488   3.618   3.106   7.626
50864SOL    HW154489   3.664   3.027   7.597
50864SOL    HW254490   3.623   3.165   7.550
50865SOL     OW54491   2.269   7.200   5.572
50865SOL    HW154492   2.328   7.148   5.627
50865SOL    HW254493   2.322   7.277   5.548
50866SOL     OW54494  13.131   1.639   8.609
50866SOL    HW154495  13.187   1.575   8.652
50866SOL    HW254496  13.189   1.711   8.584
50867SOL     OW54497   7.735  14.672   3.998
50867SOL    HW154498   7.674  14.678   4.071
50867SOL    HW254499   7.817  14.706   4.033
50868SOL     OW54500   0.523   6.136   8.326
50868SOL    HW154501   0.522   6.157   8.232
50868SOL    HW254502   0.437   6.098   8.344
50869SOL     OW54503  11.568  11.907   2.877
50869SOL    HW154504  11.541  11.837   2.935
50869SOL    HW254505  11.522  11.890   2.795
50870SOL     OW54506   3.787   7.804  10.812
50870SOL    HW154507   3.693   7.809  10.794
50870SOL    HW254508   3.798   7.727  10.867
50871SOL     OW54509   2.423   0.556   6.530
50871SOL    HW154510   2.463   0.504   6.599
50871SOL    HW254511   2.328   0.546   6.544
50872SOL     OW54512   4.532  14.134   1.466
50872SOL    HW154513   4.474  14.097   1.532
50872SOL    HW254514   4.530  14.229   1.482
50873SOL     OW54515   1.451   0.257   1.593
50873SOL    HW154516   1.476   0.260   1.685
50873SOL    HW254517   1.398   0.335   1.579
50874SOL     OW54518   0.817   2.087   0.130
50874SOL    HW154519   0.780   2.031   0.198
50874SOL    HW254520   0.770   2.061   0.050
50875SOL     OW54521  14.356   5.367   8.553
50875SOL    HW154522  14.318   5.309   8.619
50875SOL    HW254523  14.355   5.454   8.595
50876SOL     OW54524   1.604   9.614   4.468
50876SOL    HW154525   1.629   9.691   4.417
50876SOL    HW254526   1.605   9.644   4.559
50877SOL     OW54527  12.818   0.140   8.523
50877SOL    HW154528  12.778   0.196   8.590
50877SOL    HW254529  12.885   0.091   8.569
50878SOL     OW54530   6.119   9.271   3.510
50878SOL    HW154531   6.064   9.295   3.585
50878SOL    HW254532   6.114   9.175   3.507
50879SOL     OW54533  11.934   4.171  12.827
50879SOL    HW154534  11.937   4.077  12.808
50879SOL    HW254535  11.968   4.179  12.916
50880SOL     OW54536  10.067   0.768   0.553
50880SOL    HW154537   9.999   0.702   0.552
50880SOL    HW254538  10.024   0.847   0.587
50881SOL     OW54539  10.006   0.805   3.187
50881SOL    HW154540  10.076   0.744   3.208
50881SOL    HW254541  10.048   0.890   3.182
50882SOL     OW54542   8.416   5.870   3.356
50882SOL    HW154543   8.383   5.834   3.438
50882SOL    HW254544   8.447   5.958   3.378
50883SOL     OW54545   1.862  13.059   1.813
50883SOL    HW154546   1.793  12.994   1.828
50883SOL    HW254547   1.847  13.089   1.723
50884SOL     OW54548   8.530  13.180   0.250
50884SOL    HW154549   8.553  13.182   0.342
50884SOL    HW254550   8.479  13.099   0.239
50885SOL     OW54551   8.110  10.544   5.190
50885SOL    HW154552   8.160  10.505   5.118
50885SOL    HW254553   8.120  10.638   5.178
50886SOL     OW54554   9.749  14.717  10.063
50886SOL    HW154555   9.809  14.771  10.012
50886SOL    HW254556   9.721  14.774  10.135
50887SOL     OW54557   3.078   9.588   6.400
50887SOL    HW154558   3.104   9.499   6.374
50887SOL    HW254559   2.995   9.576   6.446
50888SOL     OW54560  10.282  10.733   4.555
50888SOL    HW154561  10.226  10.787   4.499
50888SOL    HW254562  10.332  10.796   4.606
50889SOL     OW54563   8.139  14.499   0.857
50889SOL    HW154564   8.143  14.566   0.789
50889SOL    HW254565   8.046  14.477   0.864
50890SOL     OW54566  10.530   2.605   7.799
50890SOL    HW154567  10.613   2.558   7.797
50890SOL    HW254568  10.555   2.697   7.794
50891SOL     OW54569  10.929   1.166   3.185
50891SOL    HW154570  10.854   1.181   3.242
50891SOL    HW254571  10.891   1.150   3.098
50892SOL     OW54572   3.153   8.969   8.184
50892SOL    HW154573   3.247   8.981   8.170
50892SOL    HW254574   3.146   8.930   8.271
50893SOL     OW54575   0.395  14.367  12.600
50893SOL    HW154576   0.448  14.418  12.661
50893SOL    HW254577   0.429  14.389  12.513
50894SOL     OW54578   7.815  10.732   6.004
50894SOL    HW154579   7.881  10.706   6.068
50894SOL    HW254580   7.742  10.673   6.020
50895SOL     OW54581   3.239   0.225   6.821
50895SOL    HW154582   3.168   0.248   6.881
50895SOL    HW254583   3.291   0.160   6.869
50896SOL     OW54584   3.373   9.519  12.406
50896SOL    HW154585   3.351   9.597  12.354
50896SOL    HW254586   3.294   9.466  12.403
50897SOL     OW54587   7.591  10.516   6.307
50897SOL    HW154588   7.498  10.496   6.294
50897SOL    HW254589   7.591  10.603   6.348
50898SOL     OW54590   9.787  12.289  10.628
50898SOL    HW154591   9.698  12.252  10.628
50898SOL    HW254592   9.842  12.218  10.659
50899SOL     OW54593   1.153   5.297   3.579
50899SOL    HW154594   1.234   5.320   3.534
50899SOL    HW254595   1.172   5.314   3.672
50900SOL     OW54596   3.031   6.527   5.165
50900SOL    HW154597   3.067   6.476   5.092
50900SOL    HW254598   3.076   6.494   5.242
50901SOL     OW54599   7.482  13.441   8.988
50901SOL    HW154600   7.538  13.513   8.960
50901SOL    HW254601   7.394  13.468   8.962
50902SOL     OW54602   9.886   1.334  12.182
50902SOL    HW154603   9.831   1.284  12.122
50902SOL    HW254604   9.872   1.426  12.157
50903SOL     OW54605   1.298   8.523   6.952
50903SOL    HW154606   1.291   8.428   6.952
50903SOL    HW254607   1.289   8.548   7.044
50904SOL     OW54608   8.733  14.414  10.341
50904SOL    HW154609   8.701  14.346  10.400
50904SOL    HW254610   8.811  14.376  10.300
50905SOL     OW54611   5.013  12.951  14.855
50905SOL    HW154612   5.024  12.967   0.074
50905SOL    HW254613   4.977  13.032  14.820
50906SOL     OW54614   7.756   5.923   6.067
50906SOL    HW154615   7.784   5.946   6.156
50906SOL    HW254616   7.772   6.003   6.016
50907SOL     OW54617   9.292   2.649   0.474
50907SOL    HW154618   9.374   2.698   0.476
50907SOL    HW254619   9.226   2.713   0.501
50908SOL     OW54620   9.585   9.260   3.060
50908SOL    HW154621   9.577   9.247   3.154
50908SOL    HW254622   9.634   9.184   3.029
50909SOL     OW54623  13.092   3.977  11.282
50909SOL    HW154624  13.033   3.962  11.209
50909SOL    HW254625  13.050   3.934  11.357
50910SOL     OW54626   4.325  10.794   4.325
50910SOL    HW154627   4.278  10.760   4.249
50910SOL    HW254628   4.395  10.730   4.340
50911SOL     OW54629  11.061   4.125   4.023
50911SOL    HW154630  10.974   4.164   4.014
50911SOL    HW254631  11.045   4.031   4.020
50912SOL     OW54632   0.385   9.985  12.372
50912SOL    HW154633   0.344   9.973  12.458
50912SOL    HW254634   0.354  10.070  12.342
50913SOL     OW54635   7.777  13.710   6.688
50913SOL    HW154636   7.797  13.742   6.601
50913SOL    HW254637   7.861  13.680   6.723
50914SOL     OW54638   1.650   9.924  14.718
50914SOL    HW154639   1.728   9.876  14.690
50914SOL    HW254640   1.679  10.015  14.726
50915SOL     OW54641   9.134  11.184  13.926
50915SOL    HW154642   9.194  11.128  13.877
50915SOL    HW254643   9.186  11.259  13.951
50916SOL     OW54644  12.908   2.022   6.536
50916SOL    HW154645  12.991   2.059   6.505
50916SOL    HW254646  12.863   2.096   6.577
50917SOL     OW54647   2.645  11.652   2.525
50917SOL    HW154648   2.647  11.745   2.544
50917SOL    HW254649   2.705  11.613   2.589
50918SOL     OW54650   2.482   9.040   6.178
50918SOL    HW154651   2.442   9.090   6.106
50918SOL    HW254652   2.572   9.073   6.183
50919SOL     OW54653   3.296   1.551   9.419
50919SOL    HW154654   3.383   1.510   9.414
50919SOL    HW254655   3.238   1.479   9.445
50920SOL     OW54656   9.430  14.451   6.679
50920SOL    HW154657   9.490  14.448   6.604
50920SOL    HW254658   9.437  14.540   6.712
50921SOL     OW54659  13.873  11.083   5.700
50921SOL    HW154660  13.961  11.101   5.733
50921SOL    HW254661  13.832  11.169   5.694
50922SOL     OW54662   6.974  11.068  12.689
50922SOL    HW154663   6.898  11.120  12.715
50922SOL    HW254664   6.969  10.989  12.742
50923SOL     OW54665   4.906   9.220   7.576
50923SOL    HW154666   4.832   9.160   7.572
50923SOL    HW254667   4.981   9.164   7.595
50924SOL     OW54668   3.083   7.460  11.693
50924SOL    HW154669   3.106   7.542  11.649
50924SOL    HW254670   2.992   7.445  11.668
50925SOL     OW54671   5.563   9.265   8.387
50925SOL    HW154672   5.604   9.209   8.321
50925SOL    HW254673   5.470   9.244   8.383
50926SOL     OW54674  14.335   7.592   3.373
50926SOL    HW154675  14.262   7.579   3.435
50926SOL    HW254676  14.370   7.504   3.360
50927SOL     OW54677   6.722   3.527  11.001
50927SOL    HW154678   6.768   3.602  11.038
50927SOL    HW254679   6.783   3.454  11.009
50928SOL     OW54680  11.323   0.019   8.283
50928SOL    HW154681  11.231   0.024   8.310
50928SOL    HW254682  11.340  14.801   8.271
50929SOL     OW54683   7.121  14.645  14.424
50929SOL    HW154684   7.138  14.597  14.504
50929SOL    HW254685   7.063  14.716  14.450
50930SOL     OW54686  11.217   8.565   5.429
50930SOL    HW154687  11.287   8.625   5.453
50930SOL    HW254688  11.234   8.543   5.338
50931SOL     OW54689   7.672   9.742   8.279
50931SOL    HW154690   7.650   9.654   8.308
50931SOL    HW254691   7.748   9.731   8.222
50932SOL     OW54692  10.344   2.709  14.507
50932SOL    HW154693  10.330   2.803  14.520
50932SOL    HW254694  10.418   2.704  14.447
50933SOL     OW54695   0.371   5.470  10.369
50933SOL    HW154696   0.335   5.551  10.403
50933SOL    HW254697   0.408   5.426  10.446
50934SOL     OW54698   2.162   4.172   9.654
50934SOL    HW154699   2.251   4.173   9.617
50934SOL    HW254700   2.125   4.089   9.624
50935SOL     OW54701  10.062   4.038   9.149
50935SOL    HW154702  10.150   4.004   9.167
50935SOL    HW254703  10.072   4.091   9.071
50936SOL     OW54704   0.525   5.936   7.134
50936SOL    HW154705   0.544   6.029   7.138
50936SOL    HW254706   0.544   5.903   7.222
50937SOL     OW54707   1.424   4.691   6.964
50937SOL    HW154708   1.400   4.731   6.881
50937SOL    HW254709   1.449   4.765   7.020
50938SOL     OW54710   7.586  12.912   3.096
50938SOL    HW154711   7.634  12.830   3.089
50938SOL    HW254712   7.518  12.905   3.029
50939SOL     OW54713   4.729   7.710  11.008
50939SOL    HW154714   4.662   7.671  11.064
50939SOL    HW254715   4.757   7.638  10.951
50940SOL     OW54716  12.104   4.594  13.010
50940SOL    HW154717  12.116   4.503  13.038
50940SOL    HW254718  12.052   4.587  12.929
50941SOL     OW54719   1.197  13.780  11.355
50941SOL    HW154720   1.197  13.754  11.447
50941SOL    HW254721   1.112  13.753  11.322
50942SOL     OW54722   4.466   1.576   1.984
50942SOL    HW154723   4.440   1.607   2.071
50942SOL    HW254724   4.558   1.599   1.977
50943SOL     OW54725   4.445  10.105  11.905
50943SOL    HW154726   4.409  10.072  11.987
50943SOL    HW254727   4.487  10.188  11.929
50944SOL     OW54728  13.269  11.921  12.018
50944SOL    HW154729  13.342  11.982  12.032
50944SOL    HW254730  13.281  11.890  11.928
50945SOL     OW54731   3.811  12.174   5.160
50945SOL    HW154732   3.716  12.170   5.158
50945SOL    HW254733   3.831  12.265   5.182
50946SOL     OW54734   9.340  12.322   6.507
50946SOL    HW154735   9.361  12.376   6.430
50946SOL    HW254736   9.289  12.380   6.564
50947SOL     OW54737   2.821   0.952   9.247
50947SOL    HW154738   2.875   0.941   9.169
50947SOL    HW254739   2.829   0.868   9.293
50948SOL     OW54740  13.487  10.599   3.697
50948SOL    HW154741  13.449  10.653   3.628
50948SOL    HW254742  13.556  10.548   3.654
50949SOL     OW54743   0.999  13.091  13.620
50949SOL    HW154744   1.058  13.148  13.571
50949SOL    HW254745   0.970  13.025  13.557
50950SOL     OW54746  14.517  10.514   2.200
50950SOL    HW154747  14.558  10.516   2.113
50950SOL    HW254748  14.458  10.589   2.201
50951SOL     OW54749  11.544  11.512   6.279
50951SOL    HW154750  11.565  11.427   6.242
50951SOL    HW254751  11.450  11.507   6.298
50952SOL     OW54752   0.398  13.525   1.352
50952SOL    HW154753   0.303  13.514   1.342
50952SOL    HW254754   0.436  13.474   1.280
50953SOL     OW54755   5.730   2.355   4.522
50953SOL    HW154756   5.775   2.278   4.556
50953SOL    HW254757   5.780   2.429   4.555
50954SOL     OW54758   7.014  10.572   1.872
50954SOL    HW154759   7.097  10.596   1.832
50954SOL    HW254760   6.951  10.575   1.800
50955SOL     OW54761   1.895   6.414  11.515
50955SOL    HW154762   1.975   6.364  11.497
50955SOL    HW254763   1.924   6.486  11.570
50956SOL     OW54764   0.109  13.309  14.031
50956SOL    HW154765   0.074  13.227  13.994
50956SOL    HW254766   0.168  13.280  14.101
50957SOL     OW54767   3.551   4.528   7.307
50957SOL    HW154768   3.618   4.502   7.369
50957SOL    HW254769   3.476   4.472   7.326
50958SOL     OW54770   3.862  12.211   3.126
50958SOL    HW154771   3.939  12.156   3.111
50958SOL    HW254772   3.878  12.289   3.074
50959SOL     OW54773   6.576  11.527   8.450
50959SOL    HW154774   6.575  11.619   8.477
50959SOL    HW254775   6.576  11.530   8.354
50960SOL     OW54776   9.465   3.549  12.636
50960SOL    HW154777   9.453   3.551  12.731
50960SOL    HW254778   9.527   3.620  12.618
50961SOL     OW54779   4.719   9.013   6.055
50961SOL    HW154780   4.770   9.000   6.135
50961SOL    HW254781   4.675   9.097   6.069
50962SOL     OW54782   1.761  12.082   9.814
50962SOL    HW154783   1.670  12.105   9.797
50962SOL    HW254784   1.782  12.128   9.895
50963SOL     OW54785   6.973  14.396   6.648
50963SOL    HW154786   6.881  14.376   6.665
50963SOL    HW254787   7.021  14.335   6.704
50964SOL     OW54788  13.736  11.292  11.653
50964SOL    HW154789  13.807  11.307  11.591
50964SOL    HW254790  13.657  11.287  11.598
50965SOL     OW54791   4.361  13.028   0.532
50965SOL    HW154792   4.390  13.053   0.444
50965SOL    HW254793   4.441  13.028   0.585
50966SOL     OW54794   8.848   3.169  11.400
50966SOL    HW154795   8.909   3.101  11.428
50966SOL    HW254796   8.891   3.251  11.423
50967SOL     OW54797   3.493   7.056   2.028
50967SOL    HW154798   3.563   6.991   2.024
50967SOL    HW254799   3.472   7.076   1.937
50968SOL     OW54800  12.803   2.682   7.842
50968SOL    HW154801  12.778   2.621   7.773
50968SOL    HW254802  12.735   2.749   7.841
50969SOL     OW54803   1.611  12.602   6.271
50969SOL    HW154804   1.673  12.530   6.260
50969SOL    HW254805   1.605  12.615   6.365
50970SOL     OW54806   5.016   7.696  14.534
50970SOL    HW154807   5.009   7.788  14.557
50970SOL    HW254808   4.947   7.682  14.469
50971SOL     OW54809  13.995  11.131  12.152
50971SOL    HW154810  13.993  11.036  12.165
50971SOL    HW254811  14.034  11.143  12.066
50972SOL     OW54812   0.933   4.352   9.644
50972SOL    HW154813   0.960   4.273   9.599
50972SOL    HW254814   1.014   4.388   9.682
50973SOL     OW54815   9.633   0.638   4.527
50973SOL    HW154816   9.562   0.695   4.557
50973SOL    HW254817   9.712   0.676   4.565
50974SOL     OW54818  12.862   5.053   9.580
50974SOL    HW154819  12.866   5.010   9.495
50974SOL    HW254820  12.787   5.013   9.624
50975SOL     OW54821   8.366   2.445   1.502
50975SOL    HW154822   8.341   2.352   1.504
50975SOL    HW254823   8.364   2.467   1.409
50976SOL     OW54824   0.328   6.163   7.294
50976SOL    HW154825   0.411   6.157   7.246
50976SOL    HW254826   0.301   6.254   7.283
50977SOL     OW54827  12.955   6.222   8.659
50977SOL    HW154828  12.967   6.238   8.753
50977SOL    HW254829  12.917   6.304   8.626
50978SOL     OW54830  13.804   1.797  10.201
50978SOL    HW154831  13.723   1.749  10.188
50978SOL    HW254832  13.807   1.859  10.128
50979SOL     OW54833   5.125   6.690   6.833
50979SOL    HW154834   5.056   6.720   6.891
50979SOL    HW254835   5.159   6.611   6.874
50980SOL     OW54836  13.587   3.851   1.585
50980SOL    HW154837  13.542   3.893   1.658
50980SOL    HW254838  13.608   3.923   1.525
50981SOL     OW54839   7.375  11.715   0.739
50981SOL    HW154840   7.449  11.727   0.798
50981SOL    HW254841   7.360  11.801   0.700
50982SOL     OW54842   4.044   4.224  11.369
50982SOL    HW154843   3.981   4.224  11.442
50982SOL    HW254844   4.020   4.147  11.317
50983SOL     OW54845   5.059  12.517   6.810
50983SOL    HW154846   5.075  12.427   6.780
50983SOL    HW254847   5.140  12.542   6.854
50984SOL     OW54848   2.187   5.936  12.601
50984SOL    HW154849   2.175   5.867  12.536
50984SOL    HW254850   2.280   5.959  12.595
50985SOL     OW54851   3.984   2.087   4.307
50985SOL    HW154852   3.925   2.159   4.283
50985SOL    HW254853   4.013   2.051   4.223
50986SOL     OW54854  14.013  12.690   3.184
50986SOL    HW154855  14.081  12.623   3.185
50986SOL    HW254856  13.958  12.670   3.260
50987SOL     OW54857  14.199   9.182  13.190
50987SOL    HW154858  14.120   9.200  13.241
50987SOL    HW254859  14.185   9.227  13.107
50988SOL     OW54860   0.987   8.008   5.871
50988SOL    HW154861   0.913   8.064   5.846
50988SOL    HW254862   1.063   8.067   5.870
50989SOL     OW54863   4.233   8.104   4.996
50989SOL    HW154864   4.205   8.013   4.984
50989SOL    HW254865   4.200   8.127   5.083
50990SOL     OW54866   0.506  12.385  14.467
50990SOL    HW154867   0.501  12.438  14.547
50990SOL    HW254868   0.584  12.330  14.479
50991SOL     OW54869  11.354   8.805  12.216
50991SOL    HW154870  11.436   8.837  12.253
50991SOL    HW254871  11.339   8.860  12.139
50992SOL     OW54872   7.731   3.078   1.152
50992SOL    HW154873   7.732   3.106   1.060
50992SOL    HW254874   7.803   3.125   1.193
50993SOL     OW54875   5.806   7.606   8.930
50993SOL    HW154876   5.815   7.670   8.859
50993SOL    HW254877   5.891   7.603   8.972
50994SOL     OW54878   3.905   1.662   8.394
50994SOL    HW154879   3.812   1.642   8.409
50994SOL    HW254880   3.951   1.617   8.465
50995SOL     OW54881   8.243   4.396   0.189
50995SOL    HW154882   8.335   4.377   0.172
50995SOL    HW254883   8.242   4.488   0.216
50996SOL     OW54884   2.818   6.422  13.382
50996SOL    HW154885   2.845   6.409  13.291
50996SOL    HW254886   2.887   6.475  13.421
50997SOL     OW54887   7.141  10.116  14.426
50997SOL    HW154888   7.191  10.044  14.465
50997SOL    HW254889   7.177  10.124  14.337
50998SOL     OW54890  12.269  12.113   1.415
50998SOL    HW154891  12.257  12.187   1.356
50998SOL    HW254892  12.350  12.134   1.463
50999SOL     OW54893   6.621   8.139  14.192
50999SOL    HW154894   6.624   8.196  14.116
50999SOL    HW254895   6.563   8.183  14.254
51000SOL     OW54896  10.315   2.875   6.572
51000SOL    HW154897  10.378   2.920   6.515
51000SOL    HW254898  10.357   2.875   6.658
51001SOL     OW54899   8.106   6.113   4.254
51001SOL    HW154900   8.022   6.078   4.285
51001SOL    HW254901   8.117   6.194   4.304
51002SOL     OW54902   7.454  11.347   7.748
51002SOL    HW154903   7.463  11.438   7.775
51002SOL    HW254904   7.394  11.350   7.673
51003SOL     OW54905  12.016  14.812  11.393
51003SOL    HW154906  12.075  14.820  11.469
51003SOL    HW254907  11.978   0.024  11.383
51004SOL     OW54908  13.672   6.904   7.535
51004SOL    HW154909  13.595   6.883   7.482
51004SOL    HW254910  13.737   6.837   7.512
51005SOL     OW54911   7.505  11.041  12.963
51005SOL    HW154912   7.492  10.949  12.987
51005SOL    HW254913   7.591  11.042  12.922
51006SOL     OW54914   1.799  10.010   4.591
51006SOL    HW154915   1.880   9.961   4.576
51006SOL    HW254916   1.827  10.087   4.640
51007SOL     OW54917   5.545  14.095   7.177
51007SOL    HW154918   5.628  14.138   7.156
51007SOL    HW254919   5.517  14.137   7.259
51008SOL     OW54920  14.725   2.283   2.334
51008SOL    HW154921  14.731   2.364   2.385
51008SOL    HW254922  14.813   2.247   2.336
51009SOL     OW54923  13.257   7.883   9.999
51009SOL    HW154924  13.199   7.895   9.923
51009SOL    HW254925  13.205   7.913  10.073
51010SOL     OW54926  11.702   6.014   0.231
51010SOL    HW154927  11.633   5.952   0.255
51010SOL    HW254928  11.784   5.968   0.250
51011SOL     OW54929  14.236   2.900  10.996
51011SOL    HW154930  14.236   2.983  10.948
51011SOL    HW254931  14.303   2.912  11.064
51012SOL     OW54932   3.861   8.867   3.146
51012SOL    HW154933   3.781   8.852   3.096
51012SOL    HW254934   3.904   8.940   3.101
51013SOL     OW54935   1.938   3.080   5.767
51013SOL    HW154936   1.878   3.017   5.807
51013SOL    HW254937   2.009   3.025   5.733
51014SOL     OW54938  10.295   0.981   9.089
51014SOL    HW154939  10.311   0.886   9.083
51014SOL    HW254940  10.207   0.987   9.127
51015SOL     OW54941  12.691   9.309   0.037
51015SOL    HW154942  12.726   9.369  14.846
51015SOL    HW254943  12.697   9.223  14.870
51016SOL     OW54944   8.640   4.527   5.615
51016SOL    HW154945   8.567   4.573   5.574
51016SOL    HW254946   8.639   4.556   5.706
51017SOL     OW54947  10.183   2.999   6.050
51017SOL    HW154948  10.089   2.992   6.066
51017SOL    HW254949  10.210   2.912   6.021
51018SOL     OW54950   2.873  11.110  10.271
51018SOL    HW154951   2.855  11.025  10.312
51018SOL    HW254952   2.801  11.166  10.301
51019SOL     OW54953   2.082   5.008  11.052
51019SOL    HW154954   2.091   5.096  11.016
51019SOL    HW254955   2.170   4.971  11.051
51020SOL     OW54956  12.339   7.456  14.829
51020SOL    HW154957  12.337   7.511  14.751
51020SOL    HW254958  12.247   7.443  14.852
51021SOL     OW54959   8.815   1.644  14.717
51021SOL    HW154960   8.901   1.664  14.752
51021SOL    HW254961   8.827   1.644  14.622
51022SOL     OW54962   8.559  10.458   9.204
51022SOL    HW154963   8.569  10.367   9.232
51022SOL    HW254964   8.543  10.452   9.110
51023SOL     OW54965   3.512   3.253   5.538
51023SOL    HW154966   3.559   3.267   5.620
51023SOL    HW254967   3.545   3.320   5.478
51024SOL     OW54968  11.773   6.108   6.164
51024SOL    HW154969  11.867   6.126   6.175
51024SOL    HW254970  11.730   6.178   6.213
51025SOL     OW54971  11.929   2.838  10.225
51025SOL    HW154972  11.969   2.842  10.312
51025SOL    HW254973  11.857   2.901  10.228
51026SOL     OW54974  14.043  12.810  14.736
51026SOL    HW154975  14.021  12.860  14.658
51026SOL    HW254976  14.089  12.732  14.702
51027SOL     OW54977   5.801   7.591   1.946
51027SOL    HW154978   5.864   7.616   2.014
51027SOL    HW254979   5.725   7.559   1.995
51028SOL     OW54980   4.375  14.627  11.623
51028SOL    HW154981   4.376  14.560  11.556
51028SOL    HW254982   4.293  14.674  11.609
51029SOL     OW54983   7.312  12.363   7.212
51029SOL    HW154984   7.339  12.273   7.229
51029SOL    HW254985   7.362  12.415   7.275
51030SOL     OW54986  12.665   8.038   9.782
51030SOL    HW154987  12.595   8.066   9.842
51030SOL    HW254988  12.619   8.009   9.703
51031SOL     OW54989  12.629   5.851   7.277
51031SOL    HW154990  12.582   5.851   7.361
51031SOL    HW254991  12.700   5.787   7.290
51032SOL     OW54992   3.234   2.686   0.103
51032SOL    HW154993   3.194   2.760   0.148
51032SOL    HW254994   3.222   2.612   0.162
51033SOL     OW54995   4.276   9.853   6.669
51033SOL    HW154996   4.329   9.926   6.636
51033SOL    HW254997   4.332   9.811   6.735
51034SOL     OW54998   9.005   8.081   0.962
51034SOL    HW154999   8.962   8.036   1.035
51034SOL    HW255000   8.935   8.095   0.898
51035SOL     OW55001   5.947   4.597  13.101
51035SOL    HW155002   6.014   4.553  13.049
51035SOL    HW255003   5.996   4.662  13.153
51036SOL     OW55004  14.443   7.337  13.699
51036SOL    HW155005  14.425   7.391  13.622
51036SOL    HW255006  14.418   7.249  13.673
51037SOL     OW55007   5.008  11.962  11.124
51037SOL    HW155008   5.028  12.024  11.054
51037SOL    HW255009   5.050  11.999  11.202
51038SOL     OW55010  14.500   6.041  12.479
51038SOL    HW155011  14.562   6.076  12.415
51038SOL    HW255012  14.434   5.996  12.427
51039SOL     OW55013   4.628   4.775   2.645
51039SOL    HW155014   4.653   4.763   2.737
51039SOL    HW255015   4.703   4.740   2.595
51040SOL     OW55016   6.994   1.741   4.634
51040SOL    HW155017   6.985   1.772   4.724
51040SOL    HW255018   7.075   1.782   4.603
51041SOL     OW55019   1.161  11.829   0.108
51041SOL    HW155020   1.101  11.901   0.125
51041SOL    HW255021   1.234  11.870   0.061
51042SOL     OW55022   3.543  12.809   6.405
51042SOL    HW155023   3.530  12.742   6.338
51042SOL    HW255024   3.485  12.881   6.379
51043SOL     OW55025   0.055  11.014  11.063
51043SOL    HW155026   0.035  11.077  11.132
51043SOL    HW255027  14.845  10.984  11.032
51044SOL     OW55028  11.105   2.611   2.804
51044SOL    HW155029  11.103   2.643   2.894
51044SOL    HW255030  11.131   2.688   2.752
51045SOL     OW55031   9.241   7.645   1.893
51045SOL    HW155032   9.274   7.704   1.961
51045SOL    HW255033   9.311   7.581   1.881
51046SOL     OW55034   1.860   4.228  12.456
51046SOL    HW155035   1.879   4.317  12.425
51046SOL    HW255036   1.859   4.174  12.377
51047SOL     OW55037  13.529   5.825   8.332
51047SOL    HW155038  13.440   5.861   8.334
51047SOL    HW255039  13.541   5.797   8.241
51048SOL     OW55040   0.030   6.295   6.230
51048SOL    HW155041  14.844   6.282   6.303
51048SOL    HW255042  14.859   6.262   6.153
51049SOL     OW55043  13.472   9.299  12.631
51049SOL    HW155044  13.459   9.251  12.549
51049SOL    HW255045  13.397   9.275  12.685
51050SOL     OW55046   9.910   2.089   3.074
51050SOL    HW155047   9.973   2.019   3.087
51050SOL    HW255048   9.834   2.046   3.033
51051SOL     OW55049   6.794   6.247   5.096
51051SOL    HW155050   6.843   6.241   5.178
51051SOL    HW255051   6.859   6.232   5.028
51052SOL     OW55052   5.881   8.611   5.297
51052SOL    HW155053   5.828   8.690   5.287
51052SOL    HW255054   5.931   8.604   5.216
51053SOL     OW55055   3.057   4.427   1.863
51053SOL    HW155056   2.998   4.489   1.907
51053SOL    HW255057   3.058   4.456   1.772
51054SOL     OW55058  12.241   3.025   3.062
51054SOL    HW155059  12.152   3.023   3.099
51054SOL    HW255060  12.298   3.036   3.138
51055SOL     OW55061   2.573   3.528  11.278
51055SOL    HW155062   2.643   3.474  11.313
51055SOL    HW255063   2.609   3.564  11.196
51056SOL     OW55064   2.536   4.459  10.154
51056SOL    HW155065   2.466   4.501  10.103
51056SOL    HW255066   2.565   4.386  10.100
51057SOL     OW55067   4.820   0.676   2.739
51057SOL    HW155068   4.857   0.617   2.805
51057SOL    HW255069   4.821   0.762   2.782
51058SOL     OW55070  13.196   9.846  13.657
51058SOL    HW155071  13.224   9.852  13.565
51058SOL    HW255072  13.275   9.820  13.704
51059SOL     OW55073   5.511   0.321   1.646
51059SOL    HW155074   5.560   0.253   1.691
51059SOL    HW255075   5.556   0.402   1.669
51060SOL     OW55076  13.205   1.339   9.318
51060SOL    HW155077  13.225   1.245   9.320
51060SOL    HW255078  13.121   1.346   9.362
51061SOL     OW55079  11.405  12.290   5.573
51061SOL    HW155080  11.366  12.219   5.624
51061SOL    HW255081  11.334  12.323   5.519
51062SOL     OW55082   3.866   0.092   5.983
51062SOL    HW155083   3.841   0.184   5.988
51062SOL    HW255084   3.787   0.048   5.951
51063SOL     OW55085   1.343   0.873   5.323
51063SOL    HW155086   1.327   0.804   5.259
51063SOL    HW255087   1.355   0.826   5.406
51064SOL     OW55088   2.229   5.886  10.004
51064SOL    HW155089   2.141   5.863  10.034
51064SOL    HW255090   2.217   5.966   9.953
51065SOL     OW55091   3.959   7.243  10.468
51065SOL    HW155092   3.949   7.165  10.413
51065SOL    HW255093   4.042   7.281  10.441
51066SOL     OW55094   8.827   3.905   1.464
51066SOL    HW155095   8.822   3.833   1.527
51066SOL    HW255096   8.765   3.881   1.395
51067SOL     OW55097   7.066   3.508  13.383
51067SOL    HW155098   7.005   3.562  13.333
51067SOL    HW255099   7.010   3.460  13.444
51068SOL     OW55100  12.396   4.853   4.766
51068SOL    HW155101  12.352   4.795   4.828
51068SOL    HW255102  12.488   4.849   4.792
51069SOL     OW55103  12.418   6.291   6.649
51069SOL    HW155104  12.428   6.240   6.730
51069SOL    HW255105  12.480   6.252   6.588
51070SOL     OW55106  11.854   7.005   1.482
51070SOL    HW155107  11.786   7.071   1.493
51070SOL    HW255108  11.903   7.034   1.404
51071SOL     OW55109  12.867  14.417   5.698
51071SOL    HW155110  12.947  14.423   5.646
51071SOL    HW255111  12.808  14.481   5.660
51072SOL     OW55112   9.286  13.273  12.429
51072SOL    HW155113   9.319  13.298  12.515
51072SOL    HW255114   9.300  13.351  12.375
51073SOL     OW55115   9.951   8.498   1.326
51073SOL    HW155116   9.877   8.465   1.377
51073SOL    HW255117   9.964   8.587   1.358
51074SOL     OW55118  10.240  11.070   9.127
51074SOL    HW155119  10.245  11.138   9.059
51074SOL    HW255120  10.188  11.000   9.086
51075SOL     OW55121   9.134   8.881  10.963
51075SOL    HW155122   9.229   8.886  10.976
51075SOL    HW255123   9.100   8.856  11.049
51076SOL     OW55124  13.485   5.483  13.975
51076SOL    HW155125  13.409   5.460  13.921
51076SOL    HW255126  13.560   5.458  13.921
51077SOL     OW55127   9.078   8.795   4.042
51077SOL    HW155128   8.983   8.800   4.047
51077SOL    HW255129   9.109   8.878   4.078
51078SOL     OW55130   3.100   3.633   9.807
51078SOL    HW155131   3.105   3.681   9.890
51078SOL    HW255132   3.032   3.679   9.758
51079SOL     OW55133  10.081   5.551   0.998
51079SOL    HW155134  10.070   5.480   0.935
51079SOL    HW255135  10.049   5.516   1.081
51080SOL     OW55136  11.681   9.525   6.164
51080SOL    HW155137  11.647   9.574   6.089
51080SOL    HW255138  11.604   9.486   6.204
51081SOL     OW55139   2.402   1.824  11.862
51081SOL    HW155140   2.323   1.813  11.808
51081SOL    HW255141   2.368   1.849  11.948
51082SOL     OW55142  12.783  13.595   2.988
51082SOL    HW155143  12.707  13.554   3.030
51082SOL    HW255144  12.853  13.587   3.053
51083SOL     OW55145   2.150   1.029  10.476
51083SOL    HW155146   2.170   0.967  10.547
51083SOL    HW255147   2.059   1.055  10.492
51084SOL     OW55148   0.940   8.179   4.459
51084SOL    HW155149   0.969   8.094   4.491
51084SOL    HW255150   1.021   8.225   4.439
51085SOL     OW55151   1.463   5.673   5.930
51085SOL    HW155152   1.558   5.688   5.927
51085SOL    HW255153   1.430   5.742   5.987
51086SOL     OW55154  13.077  14.317   4.470
51086SOL    HW155155  13.165  14.338   4.436
51086SOL    HW255156  13.042  14.255   4.406
51087SOL     OW55157   6.502   1.035   6.006
51087SOL    HW155158   6.409   1.055   6.018
51087SOL    HW255159   6.529   1.092   5.934
51088SOL     OW55160   7.326  12.906   1.210
51088SOL    HW155161   7.413  12.944   1.196
51088SOL    HW255162   7.306  12.925   1.301
51089SOL     OW55163  12.895   6.644   7.142
51089SOL    HW155164  12.895   6.592   7.062
51089SOL    HW255165  12.935   6.587   7.208
51090SOL     OW55166   1.730   9.098  11.121
51090SOL    HW155167   1.652   9.099  11.177
51090SOL    HW255168   1.753   9.005  11.114
51091SOL     OW55169   6.834  14.458  13.709
51091SOL    HW155170   6.803  14.445  13.620
51091SOL    HW255171   6.914  14.405  13.715
51092SOL     OW55172  13.821   3.351  13.878
51092SOL    HW155173  13.777   3.396  13.806
51092SOL    HW255174  13.791   3.261  13.872
51093SOL     OW55175   8.835   3.816   0.703
51093SOL    HW155176   8.899   3.755   0.741
51093SOL    HW255177   8.762   3.760   0.676
51094SOL     OW55178   5.472   3.908   6.072
51094SOL    HW155179   5.541   3.959   6.113
51094SOL    HW255180   5.469   3.939   5.981
51095SOL     OW55181   9.637   7.142   0.898
51095SOL    HW155182   9.582   7.153   0.820
51095SOL    HW255183   9.671   7.230   0.915
51096SOL     OW55184  13.358   1.738  13.171
51096SOL    HW155185  13.363   1.683  13.093
51096SOL    HW255186  13.444   1.780  13.176
51097SOL     OW55187   9.902  11.855  11.627
51097SOL    HW155188   9.958  11.933  11.622
51097SOL    HW255189   9.882  11.834  11.536
51098SOL     OW55190   3.218   5.526   1.521
51098SOL    HW155191   3.221   5.500   1.613
51098SOL    HW255192   3.294   5.484   1.481
51099SOL     OW55193   1.119  13.062   4.054
51099SOL    HW155194   1.205  13.067   4.095
51099SOL    HW255195   1.133  13.096   3.966
51100SOL     OW55196   1.325   0.745   7.045
51100SOL    HW155197   1.399   0.690   7.071
51100SOL    HW255198   1.352   0.834   7.068
51101SOL     OW55199   7.316  13.812  13.437
51101SOL    HW155200   7.362  13.889  13.404
51101SOL    HW255201   7.375  13.775  13.502
51102SOL     OW55202   8.270   9.483   2.752
51102SOL    HW155203   8.178   9.459   2.739
51102SOL    HW255204   8.308   9.406   2.794
51103SOL     OW55205   9.288  13.494   0.993
51103SOL    HW155206   9.260  13.559   1.057
51103SOL    HW255207   9.377  13.522   0.969
51104SOL     OW55208   4.130   2.256   3.440
51104SOL    HW155209   4.148   2.183   3.499
51104SOL    HW255210   4.079   2.318   3.492
51105SOL     OW55211   3.150  11.082   4.629
51105SOL    HW155212   3.120  11.126   4.709
51105SOL    HW255213   3.208  11.145   4.587
51106SOL     OW55214   4.097   2.967   7.187
51106SOL    HW155215   4.176   2.914   7.174
51106SOL    HW255216   4.088   2.972   7.282
51107SOL     OW55217   3.719   2.660   3.398
51107SOL    HW155218   3.656   2.683   3.329
51107SOL    HW255219   3.686   2.578   3.433
51108SOL     OW55220   7.606  14.655   6.941
51108SOL    HW155221   7.540  14.602   6.986
51108SOL    HW255222   7.678  14.662   7.003
51109SOL     OW55223   0.596   7.294   3.126
51109SOL    HW155224   0.539   7.309   3.201
51109SOL    HW255225   0.535   7.269   3.055
51110SOL     OW55226   1.527   2.221   8.058
51110SOL    HW155227   1.562   2.221   7.969
51110SOL    HW255228   1.476   2.302   8.064
51111SOL     OW55229   8.072   2.038  13.978
51111SOL    HW155230   7.990   2.088  13.967
51111SOL    HW255231   8.063   1.964  13.917
51112SOL     OW55232   0.385   8.077   2.800
51112SOL    HW155233   0.437   8.055   2.878
51112SOL    HW255234   0.314   8.132   2.834
51113SOL     OW55235   3.171  13.236   2.453
51113SOL    HW155236   3.249  13.222   2.399
51113SOL    HW255237   3.140  13.149   2.475
51114SOL     OW55238   7.374  10.342  11.726
51114SOL    HW155239   7.421  10.335  11.809
51114SOL    HW255240   7.363  10.252  11.696
51115SOL     OW55241  10.309   6.012  13.499
51115SOL    HW155242  10.287   6.024  13.591
51115SOL    HW255243  10.280   6.092  13.457
51116SOL     OW55244   6.055   4.378   4.681
51116SOL    HW155245   5.997   4.433   4.629
51116SOL    HW255246   6.131   4.364   4.624
51117SOL     OW55247  12.117   2.604   9.876
51117SOL    HW155248  12.187   2.542   9.898
51117SOL    HW255249  12.086   2.575   9.790
51118SOL     OW55250   3.476   5.063  10.443
51118SOL    HW155251   3.567   5.036  10.438
51118SOL    HW255252   3.428   4.985  10.471
51119SOL     OW55253   2.049  11.051   6.282
51119SOL    HW155254   2.097  10.985   6.231
51119SOL    HW255255   2.110  11.125   6.288
51120SOL     OW55256  14.511   1.441  13.743
51120SOL    HW155257  14.591   1.489  13.723
51120SOL    HW255258  14.506   1.438  13.838
51121SOL     OW55259   5.340   9.894  11.848
51121SOL    HW155260   5.319   9.810  11.888
51121SOL    HW255261   5.435   9.896  11.845
51122SOL     OW55262   2.287   9.347   0.367
51122SOL    HW155263   2.289   9.348   0.271
51122SOL    HW255264   2.376   9.371   0.393
51123SOL     OW55265   1.179  14.095  11.333
51123SOL    HW155266   1.164  14.180  11.291
51123SOL    HW255267   1.214  14.040  11.263
51124SOL     OW55268   5.199  10.738   4.752
51124SOL    HW155269   5.135  10.759   4.820
51124SOL    HW255270   5.183  10.802   4.683
51125SOL     OW55271   9.449  12.818   5.197
51125SOL    HW155272   9.397  12.870   5.257
51125SOL    HW255273   9.420  12.847   5.110
51126SOL     OW55274   3.409   4.627   3.893
51126SOL    HW155275   3.354   4.624   3.816
51126SOL    HW255276   3.349   4.618   3.967
51127SOL     OW55277   2.243  10.940   0.643
51127SOL    HW155278   2.232  10.994   0.565
51127SOL    HW255279   2.336  10.942   0.661
51128SOL     OW55280  13.732   2.611   0.492
51128SOL    HW155281  13.724   2.515   0.496
51128SOL    HW255282  13.653   2.639   0.445
51129SOL     OW55283   5.493   5.870   4.068
51129SOL    HW155284   5.468   5.961   4.080
51129SOL    HW255285   5.558   5.872   3.998
51130SOL     OW55286   7.073   8.991   6.472
51130SOL    HW155287   7.104   8.900   6.472
51130SOL    HW255288   7.017   8.997   6.550
51131SOL     OW55289   7.428   3.593   2.330
51131SOL    HW155290   7.522   3.579   2.317
51131SOL    HW255291   7.386   3.550   2.256
51132SOL     OW55292  14.485  14.212   8.120
51132SOL    HW155293  14.437  14.172   8.046
51132SOL    HW255294  14.494  14.304   8.096
51133SOL     OW55295   3.388  14.521   5.541
51133SOL    HW155296   3.455  14.454   5.556
51133SOL    HW255297   3.333  14.485   5.471
51134SOL     OW55298   6.177   7.471   3.277
51134SOL    HW155299   6.198   7.443   3.366
51134SOL    HW255300   6.220   7.556   3.268
51135SOL     OW55301  14.101   2.668  10.330
51135SOL    HW155302  14.134   2.757  10.315
51135SOL    HW255303  14.117   2.652  10.423
51136SOL     OW55304   3.676  14.531   2.762
51136SOL    HW155305   3.582  14.513   2.768
51136SOL    HW255306   3.708  14.520   2.852
51137SOL     OW55307   3.956   6.404   5.202
51137SOL    HW155308   3.981   6.355   5.280
51137SOL    HW255309   3.865   6.379   5.186
51138SOL     OW55310   2.749   5.863   6.625
51138SOL    HW155311   2.756   5.936   6.564
51138SOL    HW255312   2.781   5.787   6.577
51139SOL     OW55313  10.947  13.612   8.479
51139SOL    HW155314  11.001  13.596   8.557
51139SOL    HW255315  10.859  13.625   8.513
51140SOL     OW55316  13.219   4.160   1.905
51140SOL    HW155317  13.146   4.174   1.844
51140SOL    HW255318  13.297   4.163   1.850
51141SOL     OW55319   4.766  10.093   7.541
51141SOL    HW155320   4.770  10.000   7.519
51141SOL    HW255321   4.802  10.137   7.464
51142SOL     OW55322  10.112   1.599   0.740
51142SOL    HW155323  10.122   1.512   0.777
51142SOL    HW255324  10.116   1.585   0.645
51143SOL     OW55325   0.265   0.658  14.669
51143SOL    HW155326   0.189   0.715  14.677
51143SOL    HW255327   0.308   0.662  14.755
51144SOL     OW55328   3.803   3.473  11.793
51144SOL    HW155329   3.799   3.502  11.884
51144SOL    HW255330   3.719   3.430  11.778
51145SOL     OW55331  12.756   2.833   4.030
51145SOL    HW155332  12.727   2.925   4.032
51145SOL    HW255333  12.835   2.834   3.976
51146SOL     OW55334   2.458   6.048   8.659
51146SOL    HW155335   2.373   6.080   8.628
51146SOL    HW255336   2.487   6.114   8.723
51147SOL     OW55337  13.743   3.074   8.933
51147SOL    HW155338  13.758   3.130   9.009
51147SOL    HW255339  13.655   3.038   8.947
51148SOL     OW55340   2.370  13.508   6.002
51148SOL    HW155341   2.343  13.600   5.990
51148SOL    HW255342   2.444  13.497   5.943
51149SOL     OW55343   7.764   4.037  14.433
51149SOL    HW155344   7.705   4.015  14.360
51149SOL    HW255345   7.811   4.114  14.403
51150SOL     OW55346   8.105   0.116   6.747
51150SOL    HW155347   8.124   0.197   6.700
51150SOL    HW255348   8.011   0.104   6.736
51151SOL     OW55349   0.799   4.816   1.436
51151SOL    HW155350   0.819   4.794   1.527
51151SOL    HW255351   0.744   4.744   1.405
51152SOL     OW55352   0.124  10.273   7.542
51152SOL    HW155353   0.217  10.250   7.534
51152SOL    HW255354   0.077  10.192   7.522
51153SOL     OW55355   9.681   5.562   5.353
51153SOL    HW155356   9.718   5.596   5.271
51153SOL    HW255357   9.678   5.467   5.340
51154SOL     OW55358   4.557  14.238   6.397
51154SOL    HW155359   4.588  14.326   6.373
51154SOL    HW255360   4.481  14.253   6.453
51155SOL     OW55361  11.608  13.102   5.543
51155SOL    HW155362  11.656  13.027   5.577
51155SOL    HW255363  11.630  13.174   5.603
51156SOL     OW55364  11.088   8.067   0.617
51156SOL    HW155365  11.069   7.974   0.607
51156SOL    HW255366  11.040   8.109   0.546
51157SOL     OW55367   7.341  13.240  13.404
51157SOL    HW155368   7.295  13.303  13.349
51157SOL    HW255369   7.434  13.257  13.386
51158SOL     OW55370  13.439  10.817  11.920
51158SOL    HW155371  13.520  10.866  11.934
51158SOL    HW255372  13.428  10.815  11.825
51159SOL     OW55373   6.235   7.405   4.589
51159SOL    HW155374   6.292   7.392   4.665
51159SOL    HW255375   6.236   7.499   4.574
51160SOL     OW55376   2.115  11.186   9.312
51160SOL    HW155377   2.081  11.135   9.239
51160SOL    HW255378   2.098  11.132   9.389
51161SOL     OW55379  11.456   0.784   5.318
51161SOL    HW155380  11.506   0.822   5.246
51161SOL    HW255381  11.492   0.825   5.397
51162SOL     OW55382  14.317   3.713   2.974
51162SOL    HW155383  14.363   3.636   3.006
51162SOL    HW255384  14.224   3.693   2.987
51163SOL     OW55385   0.903  10.224   7.998
51163SOL    HW155386   0.953  10.142   8.005
51163SOL    HW255387   0.813  10.199   8.017
51164SOL     OW55388   3.330   8.684   1.737
51164SOL    HW155389   3.288   8.760   1.777
51164SOL    HW255390   3.419   8.713   1.718
51165SOL     OW55391   6.052   3.759  11.340
51165SOL    HW155392   6.071   3.709  11.419
51165SOL    HW255393   6.090   3.846  11.358
51166SOL     OW55394   7.244   9.744   2.112
51166SOL    HW155395   7.209   9.658   2.090
51166SOL    HW255396   7.311   9.728   2.177
51167SOL     OW55397   0.211   6.095  13.308
51167SOL    HW155398   0.298   6.111  13.345
51167SOL    HW255399   0.226   6.031  13.238
51168SOL     OW55400  10.016   3.514  12.824
51168SOL    HW155401  10.042   3.585  12.766
51168SOL    HW255402   9.958   3.460  12.770
51169SOL     OW55403  12.363  14.573   9.183
51169SOL    HW155404  12.398  14.586   9.095
51169SOL    HW255405  12.383  14.481   9.204
51170SOL     OW55406   4.325   4.272   7.065
51170SOL    HW155407   4.379   4.280   7.144
51170SOL    HW255408   4.363   4.199   7.017
51171SOL     OW55409   3.866   4.674  10.840
51171SOL    HW155410   3.926   4.600  10.849
51171SOL    HW255411   3.797   4.657  10.904
51172SOL     OW55412  12.270  12.907  13.563
51172SOL    HW155413  12.199  12.964  13.594
51172SOL    HW255414  12.322  12.889  13.641
51173SOL     OW55415   4.532   6.249   3.172
51173SOL    HW155416   4.579   6.325   3.206
51173SOL    HW255417   4.452   6.244   3.224
51174SOL     OW55418  11.844   6.297  13.364
51174SOL    HW155419  11.858   6.293  13.459
51174SOL    HW255420  11.865   6.209  13.333
51175SOL     OW55421   8.149   4.588   2.262
51175SOL    HW155422   8.244   4.577   2.275
51175SOL    HW255423   8.109   4.530   2.326
51176SOL     OW55424   6.195   6.185  13.960
51176SOL    HW155425   6.252   6.247  14.004
51176SOL    HW255426   6.242   6.162  13.880
51177SOL     OW55427   3.557   4.690  12.683
51177SOL    HW155428   3.559   4.709  12.589
51177SOL    HW255429   3.492   4.751  12.718
51178SOL     OW55430   9.132  10.020   7.466
51178SOL    HW155431   9.120  10.110   7.495
51178SOL    HW255432   9.121   9.968   7.546
51179SOL     OW55433   6.149   4.061  11.343
51179SOL    HW155434   6.096   4.116  11.401
51179SOL    HW255435   6.217   4.024  11.401
51180SOL     OW55436   1.808   1.548   5.809
51180SOL    HW155437   1.880   1.497   5.846
51180SOL    HW255438   1.732   1.489   5.812
51181SOL     OW55439   3.875   6.111   1.013
51181SOL    HW155440   3.861   6.024   0.975
51181SOL    HW255441   3.803   6.164   0.977
51182SOL     OW55442   3.444   0.592  11.101
51182SOL    HW155443   3.424   0.657  11.169
51182SOL    HW255444   3.516   0.541  11.137
51183SOL     OW55445   6.402  10.452   3.107
51183SOL    HW155446   6.448  10.504   3.041
51183SOL    HW255447   6.312  10.486   3.105
51184SOL     OW55448   4.157   8.218   3.339
51184SOL    HW155449   4.067   8.189   3.355
51184SOL    HW255450   4.197   8.218   3.426
51185SOL     OW55451   4.811   6.446  12.908
51185SOL    HW155452   4.827   6.505  12.833
51185SOL    HW255453   4.893   6.397  12.917
51186SOL     OW55454   3.414  10.937  10.865
51186SOL    HW155455   3.345  11.001  10.853
51186SOL    HW255456   3.374  10.869  10.920
51187SOL     OW55457   9.608  12.781   0.515
51187SOL    HW155458   9.596  12.744   0.428
51187SOL    HW255459   9.592  12.707   0.574
51188SOL     OW55460   8.579   7.741   2.849
51188SOL    HW155461   8.649   7.802   2.824
51188SOL    HW255462   8.623   7.657   2.858
51189SOL     OW55463   9.402  11.604   1.047
51189SOL    HW155464   9.474  11.569   1.099
51189SOL    HW255465   9.323  11.566   1.085
51190SOL     OW55466   2.912   3.279  11.141
51190SOL    HW155467   2.888   3.248  11.054
51190SOL    HW255468   2.977   3.215  11.172
51191SOL     OW55469   4.342   7.522   6.988
51191SOL    HW155470   4.316   7.430   6.988
51191SOL    HW255471   4.408   7.529   6.919
51192SOL     OW55472   5.555  10.245   4.651
51192SOL    HW155473   5.508  10.177   4.603
51192SOL    HW255474   5.597  10.298   4.584
51193SOL     OW55475   7.123   1.140  10.845
51193SOL    HW155476   7.070   1.067  10.812
51193SOL    HW255477   7.197   1.098  10.888
51194SOL     OW55478   0.668   7.052   9.410
51194SOL    HW155479   0.744   7.020   9.458
51194SOL    HW255480   0.600   7.063   9.476
51195SOL     OW55481   8.064  12.574  14.273
51195SOL    HW155482   8.082  12.602  14.363
51195SOL    HW255483   7.969  12.570  14.267
51196SOL     OW55484   4.384  14.255   0.728
51196SOL    HW155485   4.438  14.334   0.726
51196SOL    HW255486   4.441  14.187   0.764
51197SOL     OW55487  12.300   6.422  11.045
51197SOL    HW155488  12.390   6.448  11.065
51197SOL    HW255489  12.286   6.448  10.954
51198SOL     OW55490   4.139  11.721   3.493
51198SOL    HW155491   4.178  11.775   3.561
51198SOL    HW255492   4.199  11.647   3.484
51199SOL     OW55493  10.595  14.007  11.301
51199SOL    HW155494  10.641  14.056  11.232
51199SOL    HW255495  10.557  14.075  11.357
51200SOL     OW55496   5.428  10.919   8.128
51200SOL    HW155497   5.427  10.862   8.205
51200SOL    HW255498   5.337  10.919   8.098
51201SOL     OW55499   1.276  13.053  12.538
51201SOL    HW155500   1.215  13.008  12.479
51201SOL    HW255501   1.340  12.986  12.561
51202SOL     OW55502   3.135  12.619  14.347
51202SOL    HW155503   3.191  12.668  14.287
51202SOL    HW255504   3.098  12.686  14.405
51203SOL     OW55505  12.378   7.497   1.120
51203SOL    HW155506  12.326   7.442   1.179
51203SOL    HW255507  12.466   7.460   1.125
51204SOL     OW55508   7.560  12.787   9.484
51204SOL    HW155509   7.617  12.744   9.547
51204SOL    HW255510   7.479  12.802   9.531
51205SOL     OW55511   8.914  12.232   6.924
51205SOL    HW155512   8.991  12.185   6.892
51205SOL    HW255513   8.845  12.166   6.926
51206SOL     OW55514  11.147   4.545   1.413
51206SOL    HW155515  11.092   4.615   1.447
51206SOL    HW255516  11.089   4.470   1.406
51207SOL     OW55517   9.997   5.029   1.039
51207SOL    HW155518   9.907   5.048   1.013
51207SOL    HW255519  10.013   5.084   1.115
51208SOL     OW55520  10.208   5.550   7.120
51208SOL    HW155521  10.250   5.585   7.041
51208SOL    HW255522  10.278   5.548   7.186
51209SOL     OW55523  12.258  10.282  14.842
51209SOL    HW155524  12.211  10.236  14.773
51209SOL    HW255525  12.242  10.375  14.825
51210SOL     OW55526   1.263   5.462   2.259
51210SOL    HW155527   1.352   5.465   2.295
51210SOL    HW255528   1.209   5.507   2.323
51211SOL     OW55529   6.804   2.702   3.074
51211SOL    HW155530   6.753   2.717   3.154
51211SOL    HW255531   6.873   2.768   3.077
51212SOL     OW55532   9.344   9.951   9.092
51212SOL    HW155533   9.361   9.858   9.106
51212SOL    HW255534   9.375   9.968   9.003
51213SOL     OW55535   9.159  10.543   0.865
51213SOL    HW155536   9.162  10.633   0.897
51213SOL    HW255537   9.173  10.489   0.943
51214SOL     OW55538   8.309  13.593   3.417
51214SOL    HW155539   8.301  13.567   3.325
51214SOL    HW255540   8.297  13.511   3.466
51215SOL     OW55541  11.197   0.835  13.698
51215SOL    HW155542  11.215   0.746  13.665
51215SOL    HW255543  11.146   0.822  13.778
51216SOL     OW55544   2.393   1.647   0.653
51216SOL    HW155545   2.446   1.688   0.722
51216SOL    HW255546   2.437   1.672   0.572
51217SOL     OW55547   6.744  13.772   8.741
51217SOL    HW155548   6.798  13.829   8.795
51217SOL    HW255549   6.664  13.759   8.792
51218SOL     OW55550  10.271   2.306  14.126
51218SOL    HW155551  10.237   2.321  14.038
51218SOL    HW255552  10.252   2.387  14.173
51219SOL     OW55553  11.186   8.513   1.083
51219SOL    HW155554  11.281   8.508   1.087
51219SOL    HW255555  11.162   8.564   1.161
51220SOL     OW55556   7.041   6.600   8.078
51220SOL    HW155557   7.012   6.535   8.014
51220SOL    HW255558   6.965   6.655   8.093
51221SOL     OW55559   7.811   1.257  11.986
51221SOL    HW155560   7.862   1.334  11.961
51221SOL    HW255561   7.728   1.268  11.939
51222SOL     OW55562   1.597   7.347   0.510
51222SOL    HW155563   1.664   7.313   0.569
51222SOL    HW255564   1.640   7.418   0.462
51223SOL     OW55565  14.031   6.278   4.270
51223SOL    HW155566  14.039   6.310   4.180
51223SOL    HW255567  14.039   6.357   4.324
51224SOL     OW55568   7.847  11.440   4.842
51224SOL    HW155569   7.823  11.390   4.764
51224SOL    HW255570   7.792  11.403   4.912
51225SOL     OW55571  12.737  12.697  11.232
51225SOL    HW155572  12.820  12.732  11.201
51225SOL    HW255573  12.670  12.756  11.196
51226SOL     OW55574   4.199  13.317   6.190
51226SOL    HW155575   4.150  13.398   6.207
51226SOL    HW255576   4.145  13.269   6.127
51227SOL     OW55577   0.124   8.192   2.830
51227SOL    HW155578   0.050   8.219   2.776
51227SOL    HW255579   0.108   8.234   2.915
51228SOL     OW55580  13.127   7.581   8.903
51228SOL    HW155581  13.208   7.530   8.906
51228SOL    HW255582  13.067   7.528   8.850
51229SOL     OW55583   8.855   2.953  11.022
51229SOL    HW155584   8.803   2.994  11.091
51229SOL    HW255585   8.923   2.905  11.069
51230SOL     OW55586  14.848   7.120  13.343
51230SOL    HW155587   0.017   7.042  13.379
51230SOL    HW255588   0.044   7.181  13.325
51231SOL     OW55589  14.548   1.536  12.824
51231SOL    HW155590  14.521   1.587  12.748
51231SOL    HW255591  14.513   1.585  12.899
51232SOL     OW55592   7.200   7.411  13.886
51232SOL    HW155593   7.165   7.494  13.918
51232SOL    HW255594   7.245   7.434  13.804
51233SOL     OW55595   6.805  12.876   9.319
51233SOL    HW155596   6.817  12.971   9.328
51233SOL    HW255597   6.864  12.851   9.248
51234SOL     OW55598   0.363   7.755   7.452
51234SOL    HW155599   0.338   7.790   7.366
51234SOL    HW255600   0.436   7.696   7.433
51235SOL     OW55601   7.858  12.916   7.402
51235SOL    HW155602   7.879  12.842   7.459
51235SOL    HW255603   7.943  12.954   7.379
51236SOL     OW55604   4.114   9.240   5.208
51236SOL    HW155605   4.208   9.221   5.211
51236SOL    HW255606   4.083   9.219   5.296
51237SOL     OW55607   8.949  11.910   0.929
51237SOL    HW155608   8.990  11.869   0.853
51237SOL    HW255609   8.855  11.899   0.914
51238SOL     OW55610  10.489  12.119  12.624
51238SOL    HW155611  10.536  12.130  12.542
51238SOL    HW255612  10.514  12.031  12.654
51239SOL     OW55613   7.406   2.496   1.236
51239SOL    HW155614   7.387   2.589   1.251
51239SOL    HW255615   7.322   2.452   1.246
51240SOL     OW55616   0.627   1.413  13.278
51240SOL    HW155617   0.570   1.372  13.342
51240SOL    HW255618   0.571   1.428  13.202
51241SOL     OW55619  14.416   0.293   6.620
51241SOL    HW155620  14.476   0.263   6.552
51241SOL    HW255621  14.460   0.368   6.659
51242SOL     OW55622   4.035   4.607   7.960
51242SOL    HW155623   4.090   4.577   8.032
51242SOL    HW255624   4.062   4.697   7.945
51243SOL     OW55625   5.105  12.818  13.287
51243SOL    HW155626   5.056  12.766  13.351
51243SOL    HW255627   5.088  12.776  13.203
51244SOL     OW55628  12.509   7.449   2.679
51244SOL    HW155629  12.469   7.526   2.639
51244SOL    HW255630  12.557   7.483   2.755
51245SOL     OW55631   9.651   4.306   7.600
51245SOL    HW155632   9.728   4.334   7.650
51245SOL    HW255633   9.627   4.382   7.547
51246SOL     OW55634   0.946  12.824   6.786
51246SOL    HW155635   0.991  12.907   6.770
51246SOL    HW255636   0.916  12.796   6.700
51247SOL     OW55637   0.355   2.082   6.861
51247SOL    HW155638   0.400   2.144   6.919
51247SOL    HW255639   0.386   1.996   6.888
51248SOL     OW55640   6.436  13.767  13.710
51248SOL    HW155641   6.504  13.740  13.648
51248SOL    HW255642   6.394  13.842  13.668
51249SOL     OW55643   0.215   3.092   5.436
51249SOL    HW155644   0.259   3.088   5.521
51249SOL    HW255645   0.122   3.102   5.459
51250SOL     OW55646   3.168  12.854   1.442
51250SOL    HW155647   3.243  12.868   1.384
51250SOL    HW255648   3.097  12.830   1.384
51251SOL     OW55649   1.161   0.015  13.729
51251SOL    HW155650   1.101  14.818  13.750
51251SOL    HW255651   1.112   0.069  13.667
51252SOL     OW55652   3.526  12.997  10.134
51252SOL    HW155653   3.444  12.950  10.121
51252SOL    HW255654   3.578  12.940  10.190
51253SOL     OW55655   6.136   3.182  12.147
51253SOL    HW155656   6.127   3.265  12.101
51253SOL    HW255657   6.229   3.160  12.138
51254SOL     OW55658   0.112   7.457   8.279
51254SOL    HW155659   0.195   7.449   8.325
51254SOL    HW255660   0.098   7.552   8.272
51255SOL     OW55661  14.751   4.036  11.484
51255SOL    HW155662  14.822   3.973  11.498
51255SOL    HW255663  14.762   4.064  11.393
51256SOL     OW55664   1.376  12.635  11.663
51256SOL    HW155665   1.458  12.588  11.646
51256SOL    HW255666   1.403  12.719  11.699
51257SOL     OW55667   7.931   9.016   7.407
51257SOL    HW155668   7.954   9.040   7.496
51257SOL    HW255669   8.015   8.999   7.364
51258SOL     OW55670   3.197   8.186   2.302
51258SOL    HW155671   3.148   8.162   2.380
51258SOL    HW255672   3.134   8.176   2.230
51259SOL     OW55673   9.566   3.729  11.945
51259SOL    HW155674   9.554   3.821  11.966
51259SOL    HW255675   9.635   3.699  12.005
51260SOL     OW55676   9.048   0.970   8.282
51260SOL    HW155677   8.999   0.895   8.245
51260SOL    HW255678   9.084   0.936   8.364
51261SOL     OW55679   1.218   3.014   3.959
51261SOL    HW155680   1.153   3.053   4.017
51261SOL    HW255681   1.178   3.017   3.872
51262SOL     OW55682   8.047  13.917  14.091
51262SOL    HW155683   8.139  13.936  14.073
51262SOL    HW255684   8.042  13.912  14.187
51263SOL     OW55685  14.370  13.037   1.331
51263SOL    HW155686  14.389  12.943   1.336
51263SOL    HW255687  14.276  13.042   1.315
51264SOL     OW55688  10.964   6.063   6.472
51264SOL    HW155689  11.027   6.000   6.437
51264SOL    HW255690  11.014   6.115   6.535
51265SOL     OW55691   5.698  11.735   4.519
51265SOL    HW155692   5.623  11.780   4.480
51265SOL    HW255693   5.765  11.738   4.451
51266SOL     OW55694   3.655   3.734   2.425
51266SOL    HW155695   3.573   3.738   2.377
51266SOL    HW255696   3.692   3.648   2.402
51267SOL     OW55697   5.716  14.284   8.677
51267SOL    HW155698   5.704  14.364   8.728
51267SOL    HW255699   5.764  14.312   8.599
51268SOL     OW55700   8.973   5.949   9.249
51268SOL    HW155701   8.959   6.018   9.315
51268SOL    HW255702   9.042   5.984   9.192
51269SOL     OW55703   8.519   8.922   1.897
51269SOL    HW155704   8.592   8.885   1.848
51269SOL    HW255705   8.506   9.009   1.858
51270SOL     OW55706   7.998  12.468   2.743
51270SOL    HW155707   8.075  12.513   2.708
51270SOL    HW255708   8.032  12.416   2.817
51271SOL     OW55709  13.605   0.739  14.271
51271SOL    HW155710  13.669   0.781  14.329
51271SOL    HW255711  13.657   0.682  14.215
51272SOL     OW55712   3.292   6.368   7.025
51272SOL    HW155713   3.228   6.376   6.954
51272SOL    HW255714   3.261   6.428   7.093
51273SOL     OW55715  11.926  13.409  11.537
51273SOL    HW155716  11.976  13.387  11.615
51273SOL    HW255717  11.848  13.454  11.570
51274SOL     OW55718   3.323   4.797  10.449
51274SOL    HW155719   3.262   4.725  10.464
51274SOL    HW255720   3.359   4.780  10.362
51275SOL     OW55721   7.005   9.011   8.628
51275SOL    HW155722   7.012   9.067   8.550
51275SOL    HW255723   7.094   8.979   8.643
51276SOL     OW55724  12.087   0.173   4.180
51276SOL    HW155725  12.126   0.257   4.205
51276SOL    HW255726  12.158   0.110   4.192
51277SOL     OW55727   9.626   9.146   0.719
51277SOL    HW155728   9.611   9.240   0.714
51277SOL    HW255729   9.590   9.120   0.804
51278SOL     OW55730   7.697  13.316  10.965
51278SOL    HW155731   7.640  13.250  10.925
51278SOL    HW255732   7.703  13.289  11.057
51279SOL     OW55733   4.422  10.573   3.249
51279SOL    HW155734   4.419  10.632   3.325
51279SOL    HW255735   4.484  10.505   3.274
51280SOL     OW55736   4.337   7.893  12.686
51280SOL    HW155737   4.335   7.989  12.678
51280SOL    HW255738   4.342   7.862  12.596
51281SOL     OW55739   3.320   3.425   8.634
51281SOL    HW155740   3.356   3.344   8.668
51281SOL    HW255741   3.237   3.436   8.680
51282SOL     OW55742   6.610   5.245   2.951
51282SOL    HW155743   6.700   5.272   2.930
51282SOL    HW255744   6.562   5.328   2.961
51283SOL     OW55745  12.308   2.605  13.255
51283SOL    HW155746  12.322   2.689  13.300
51283SOL    HW255747  12.364   2.610  13.177
51284SOL     OW55748  13.424  13.945   7.911
51284SOL    HW155749  13.513  13.911   7.919
51284SOL    HW255750  13.402  13.930   7.819
51285SOL     OW55751   4.545   2.098  12.014
51285SOL    HW155752   4.559   2.011  11.978
51285SOL    HW255753   4.490   2.143  11.949
51286SOL     OW55754   2.049   1.094   8.631
51286SOL    HW155755   2.137   1.115   8.599
51286SOL    HW255756   2.007   1.179   8.643
51287SOL     OW55757  12.912   9.148   8.924
51287SOL    HW155758  12.914   9.077   8.860
51287SOL    HW255759  12.869   9.220   8.879
51288SOL     OW55760  10.773   9.673   7.230
51288SOL    HW155761  10.758   9.689   7.323
51288SOL    HW255762  10.835   9.599   7.229
51289SOL     OW55763   8.742  13.903  14.682
51289SOL    HW155764   8.776  13.847  14.752
51289SOL    HW255765   8.795  13.983  14.688
51290SOL     OW55766   1.873   7.052   1.025
51290SOL    HW155767   1.808   7.070   1.093
51290SOL    HW255768   1.861   6.960   1.004
51291SOL     OW55769  10.558   2.330   0.277
51291SOL    HW155770  10.648   2.338   0.246
51291SOL    HW255771  10.553   2.389   0.352
51292SOL     OW55772  14.035   7.708  14.669
51292SOL    HW155773  14.013   7.785  14.723
51292SOL    HW255774  14.097   7.659  14.722
51293SOL     OW55775   7.251   6.512   1.819
51293SOL    HW155776   7.233   6.470   1.903
51293SOL    HW255777   7.206   6.597   1.824
51294SOL     OW55778   3.662   0.283  12.702
51294SOL    HW155779   3.660   0.315  12.612
51294SOL    HW255780   3.600   0.210  12.703
51295SOL     OW55781  10.495   9.349   8.725
51295SOL    HW155782  10.413   9.360   8.773
51295SOL    HW255783  10.482   9.269   8.674
51296SOL     OW55784   4.879   4.209  12.366
51296SOL    HW155785   4.923   4.235  12.285
51296SOL    HW255786   4.950   4.176  12.421
51297SOL     OW55787   0.132   2.762   2.067
51297SOL    HW155788   0.124   2.680   2.117
51297SOL    HW255789   0.061   2.759   2.004
51298SOL     OW55790   2.653  14.871   2.803
51298SOL    HW155791   2.728   0.051   2.828
51298SOL    HW255792   2.649  14.805   2.872
51299SOL     OW55793  13.636   9.150   1.415
51299SOL    HW155794  13.690   9.207   1.360
51299SOL    HW255795  13.652   9.062   1.381
51300SOL     OW55796  10.725  12.960   6.541
51300SOL    HW155797  10.718  12.972   6.447
51300SOL    HW255798  10.663  13.023   6.578
51301SOL     OW55799   3.014   6.734  10.252
51301SOL    HW155800   3.090   6.787  10.278
51301SOL    HW255801   2.948   6.797  10.226
51302SOL     OW55802   3.150  14.297   5.167
51302SOL    HW155803   3.065  14.299   5.122
51302SOL    HW255804   3.132  14.334   5.253
51303SOL     OW55805   9.706   8.186  12.113
51303SOL    HW155806   9.785   8.171  12.165
51303SOL    HW255807   9.663   8.100  12.110
51304SOL     OW55808   9.015   4.753   1.390
51304SOL    HW155809   8.945   4.818   1.396
51304SOL    HW255810   8.999   4.693   1.463
51305SOL     OW55811   5.584   9.319  13.200
51305SOL    HW155812   5.548   9.387  13.257
51305SOL    HW255813   5.640   9.267  13.257
51306SOL     OW55814   3.397  14.538  12.873
51306SOL    HW155815   3.400  14.443  12.870
51306SOL    HW255816   3.470  14.563  12.929
51307SOL     OW55817  10.634   4.052   2.314
51307SOL    HW155818  10.668   4.122   2.370
51307SOL    HW255819  10.687   3.975   2.337
51308SOL     OW55820  12.986  11.701   4.938
51308SOL    HW155821  12.977  11.775   4.998
51308SOL    HW255822  12.923  11.719   4.868
51309SOL     OW55823   9.640   2.826   9.237
51309SOL    HW155824   9.615   2.818   9.145
51309SOL    HW255825   9.558   2.843   9.283
51310SOL     OW55826   5.143   8.924   7.102
51310SOL    HW155827   5.114   9.007   7.141
51310SOL    HW255828   5.070   8.898   7.045
51311SOL     OW55829   1.698  10.362   2.109
51311SOL    HW155830   1.676  10.357   2.202
51311SOL    HW255831   1.793  10.375   2.107
51312SOL     OW55832   8.519   9.795  13.164
51312SOL    HW155833   8.432   9.796  13.205
51312SOL    HW255834   8.553   9.708  13.182
51313SOL     OW55835   7.468   1.007  13.919
51313SOL    HW155836   7.480   1.075  13.985
51313SOL    HW255837   7.377   0.980  13.929
51314SOL     OW55838   1.996   3.272   3.418
51314SOL    HW155839   1.974   3.216   3.493
51314SOL    HW255840   2.090   3.259   3.405
51315SOL     OW55841  12.546  10.955  14.788
51315SOL    HW155842  12.459  10.992  14.800
51315SOL    HW255843  12.551  10.883  14.851
51316SOL     OW55844   2.631   1.699  13.963
51316SOL    HW155845   2.677   1.732  14.041
51316SOL    HW255846   2.629   1.604  13.975
51317SOL     OW55847   5.684   5.708   9.251
51317SOL    HW155848   5.626   5.632   9.244
51317SOL    HW255849   5.772   5.671   9.255
51318SOL     OW55850   7.852   6.663   1.877
51318SOL    HW155851   7.832   6.705   1.961
51318SOL    HW255852   7.946   6.677   1.866
51319SOL     OW55853   2.909  13.569  12.654
51319SOL    HW155854   2.862  13.623  12.716
51319SOL    HW255855   2.993  13.550  12.697
51320SOL     OW55856  10.374  10.145  14.788
51320SOL    HW155857  10.330  10.173  14.708
51320SOL    HW255858  10.438  10.080  14.759
51321SOL     OW55859   4.470  14.431   1.491
51321SOL    HW155860   4.383  14.418   1.530
51321SOL    HW255861   4.452  14.486   1.414
51322SOL     OW55862   4.954   4.681   2.900
51322SOL    HW155863   5.024   4.742   2.923
51322SOL    HW255864   4.873   4.729   2.920
51323SOL     OW55865   5.856  10.258   9.185
51323SOL    HW155866   5.784  10.265   9.248
51323SOL    HW255867   5.874  10.164   9.178
51324SOL     OW55868   7.715  12.760   7.143
51324SOL    HW155869   7.794  12.798   7.105
51324SOL    HW255870   7.727  12.770   7.237
51325SOL     OW55871  11.023   8.831   5.527
51325SOL    HW155872  11.065   8.879   5.456
51325SOL    HW255873  10.933   8.820   5.499
51326SOL     OW55874   1.261  14.625   1.435
51326SOL    HW155875   1.292  14.549   1.385
51326SOL    HW255876   1.186  14.657   1.386
51327SOL     OW55877   3.448   1.118  11.431
51327SOL    HW155878   3.525   1.092  11.482
51327SOL    HW255879   3.393   1.041  11.429
51328SOL     OW55880   5.261   2.297   7.552
51328SOL    HW155881   5.247   2.342   7.636
51328SOL    HW255882   5.173   2.290   7.514
51329SOL     OW55883   4.574   6.789   7.342
51329SOL    HW155884   4.520   6.866   7.358
51329SOL    HW255885   4.516   6.728   7.295
51330SOL     OW55886  11.466   7.280  10.195
51330SOL    HW155887  11.448   7.330  10.115
51330SOL    HW255888  11.470   7.189  10.167
51331SOL     OW55889   7.907  11.632   3.534
51331SOL    HW155890   7.813  11.616   3.547
51331SOL    HW255891   7.950  11.555   3.571
51332SOL     OW55892   9.676   1.282  11.014
51332SOL    HW155893   9.613   1.316  11.076
51332SOL    HW255894   9.631   1.285  10.929
51333SOL     OW55895   3.392   6.265  12.626
51333SOL    HW155896   3.470   6.319  12.633
51333SOL    HW255897   3.324   6.316  12.671
51334SOL     OW55898  14.002   0.260  14.265
51334SOL    HW155899  14.031   0.186  14.212
51334SOL    HW255900  13.968   0.323  14.202
51335SOL     OW55901  12.658   5.570  13.747
51335SOL    HW155902  12.572   5.583  13.705
51335SOL    HW255903  12.645   5.496  13.805
51336SOL     OW55904   1.747  10.330   6.504
51336SOL    HW155905   1.744  10.417   6.544
51336SOL    HW255906   1.831  10.328   6.458
51337SOL     OW55907   1.637   5.025  12.799
51337SOL    HW155908   1.641   4.931  12.785
51337SOL    HW255909   1.552   5.051  12.764
51338SOL     OW55910   2.263  12.643   5.073
51338SOL    HW155911   2.206  12.653   4.997
51338SOL    HW255912   2.334  12.587   5.041
51339SOL     OW55913   4.015  10.741  11.106
51339SOL    HW155914   4.074  10.747  11.182
51339SOL    HW255915   4.067  10.773  11.033
51340SOL     OW55916  12.924   0.925  10.217
51340SOL    HW155917  12.832   0.902  10.232
51340SOL    HW255918  12.940   1.001  10.273
51341SOL     OW55919  14.432   7.364   8.879
51341SOL    HW155920  14.402   7.440   8.929
51341SOL    HW255921  14.351   7.318   8.857
51342SOL     OW55922   2.461  12.601  10.073
51342SOL    HW155923   2.502  12.612  10.160
51342SOL    HW255924   2.465  12.506  10.058
51343SOL     OW55925   0.057   8.963   8.370
51343SOL    HW155926   0.046   8.983   8.277
51343SOL    HW255927   0.008   8.882   8.383
51344SOL     OW55928   7.547   8.951  10.571
51344SOL    HW155929   7.463   8.948  10.618
51344SOL    HW255930   7.567   9.044  10.562
51345SOL     OW55931  12.030   3.597   7.135
51345SOL    HW155932  12.034   3.502   7.137
51345SOL    HW255933  11.937   3.618   7.129
51346SOL     OW55934  13.940   7.120   2.407
51346SOL    HW155935  13.953   7.212   2.428
51346SOL    HW255936  14.028   7.087   2.387
51347SOL     OW55937  10.689   0.645  14.585
51347SOL    HW155938  10.735   0.701  14.522
51347SOL    HW255939  10.729   0.666  14.669
51348SOL     OW55940   7.809   2.822  10.705
51348SOL    HW155941   7.764   2.747  10.666
51348SOL    HW255942   7.823   2.796  10.796
51349SOL     OW55943   4.152   3.166   4.983
51349SOL    HW155944   4.115   3.219   4.912
51349SOL    HW255945   4.076   3.135   5.032
51350SOL     OW55946   9.093   5.353   2.938
51350SOL    HW155947   9.081   5.309   2.854
51350SOL    HW255948   9.127   5.440   2.914
51351SOL     OW55949  13.572  13.573  14.312
51351SOL    HW155950  13.553  13.649  14.366
51351SOL    HW255951  13.567  13.605  14.222
51352SOL     OW55952   0.122   9.085  14.561
51352SOL    HW155953   0.082   9.056  14.643
51352SOL    HW255954   0.155   9.005  14.521
51353SOL     OW55955   5.876   4.239   0.743
51353SOL    HW155956   5.870   4.271   0.653
51353SOL    HW255957   5.811   4.169   0.748
51354SOL     OW55958   7.198  13.013  13.333
51354SOL    HW155959   7.233  13.095  13.367
51354SOL    HW255960   7.103  13.027  13.329
51355SOL     OW55961   2.627   8.085  14.791
51355SOL    HW155962   2.671   8.020  14.846
51355SOL    HW255963   2.697   8.145  14.764
51356SOL     OW55964  14.744  11.473   9.950
51356SOL    HW155965  14.688  11.433  10.016
51356SOL    HW255966  14.832  11.465   9.986
51357SOL     OW55967   4.398   8.153  10.876
51357SOL    HW155968   4.403   8.173  10.782
51357SOL    HW255969   4.427   8.234  10.919
51358SOL     OW55970   6.140   6.091   2.986
51358SOL    HW155971   6.083   6.051   2.920
51358SOL    HW255972   6.089   6.089   3.067
51359SOL     OW55973  11.277   4.549   6.138
51359SOL    HW155974  11.187   4.581   6.133
51359SOL    HW255975  11.327   4.624   6.169
51360SOL     OW55976   4.932   8.804   9.022
51360SOL    HW155977   4.857   8.837   9.070
51360SOL    HW255978   4.899   8.791   8.933
51361SOL     OW55979   0.940  11.603  11.317
51361SOL    HW155980   0.886  11.529  11.288
51361SOL    HW255981   0.884  11.653  11.376
51362SOL     OW55982  13.616   4.480   7.809
51362SOL    HW155983  13.530   4.441   7.827
51362SOL    HW255984  13.597   4.570   7.784
51363SOL     OW55985   9.255   2.764   7.245
51363SOL    HW155986   9.291   2.803   7.325
51363SOL    HW255987   9.188   2.704   7.277
51364SOL     OW55988  11.896  11.979   9.478
51364SOL    HW155989  11.907  12.074   9.466
51364SOL    HW255990  11.854  11.970   9.563
51365SOL     OW55991   7.634  13.094  14.512
51365SOL    HW155992   7.708  13.148  14.540
51365SOL    HW255993   7.669  13.043  14.438
51366SOL     OW55994   7.594   3.222   3.077
51366SOL    HW155995   7.569   3.277   3.003
51366SOL    HW255996   7.533   3.149   3.074
51367SOL     OW55997  12.278  11.165   1.070
51367SOL    HW155998  12.274  11.094   1.006
51367SOL    HW255999  12.363  11.206   1.055
51368SOL     OW56000  14.696   6.198   5.451
51368SOL    HW156001  14.606   6.229   5.455
51368SOL    HW256002  14.692   6.117   5.401
51369SOL     OW56003  10.700   3.182  14.155
51369SOL    HW156004  10.634   3.203  14.089
51369SOL    HW256005  10.689   3.088  14.171
51370SOL     OW56006   9.336   5.607   0.490
51370SOL    HW156007   9.305   5.697   0.498
51370SOL    HW256008   9.259   5.559   0.458
51371SOL     OW56009   6.411   3.794   2.937
51371SOL    HW156010   6.414   3.888   2.921
51371SOL    HW256011   6.348   3.760   2.873
51372SOL     OW56012  10.048   7.395  14.069
51372SOL    HW156013  10.124   7.453  14.071
51372SOL    HW256014  10.022   7.393  13.976
51373SOL     OW56015  11.588   9.131   1.253
51373SOL    HW156016  11.632   9.084   1.182
51373SOL    HW256017  11.505   9.159   1.216
51374SOL     OW56018  13.110  12.825   7.995
51374SOL    HW156019  13.098  12.886   7.922
51374SOL    HW256020  13.057  12.861   8.066
51375SOL     OW56021   6.774   1.497   2.063
51375SOL    HW156022   6.720   1.419   2.074
51375SOL    HW256023   6.832   1.477   1.989
51376SOL     OW56024  13.165   8.673   5.862
51376SOL    HW156025  13.098   8.660   5.795
51376SOL    HW256026  13.248   8.668   5.814
51377SOL     OW56027  13.289   4.347  11.197
51377SOL    HW156028  13.280   4.408  11.123
51377SOL    HW256029  13.352   4.282  11.166
51378SOL     OW56030   9.508  14.631  11.502
51378SOL    HW156031   9.493  14.636  11.407
51378SOL    HW256032   9.430  14.671  11.541
51379SOL     OW56033   5.690  12.598   5.476
51379SOL    HW156034   5.654  12.509   5.484
51379SOL    HW256035   5.751  12.592   5.402
51380SOL     OW56036   5.474   7.684   5.419
51380SOL    HW156037   5.424   7.614   5.462
51380SOL    HW256038   5.407   7.738   5.377
51381SOL     OW56039   8.449  10.880   3.967
51381SOL    HW156040   8.363  10.895   4.007
51381SOL    HW256041   8.497  10.828   4.031
51382SOL     OW56042   9.684   0.925   6.009
51382SOL    HW156043   9.719   1.006   5.971
51382SOL    HW256044   9.759   0.885   6.053
51383SOL     OW56045   4.224   0.940   0.466
51383SOL    HW156046   4.295   0.911   0.523
51383SOL    HW256047   4.266   0.964   0.384
51384SOL     OW56048   4.050   4.909  13.319
51384SOL    HW156049   3.980   4.860  13.276
51384SOL    HW256050   4.056   4.870  13.406
51385SOL     OW56051   2.758  11.797   0.776
51385SOL    HW156052   2.707  11.717   0.779
51385SOL    HW256053   2.712  11.857   0.834
51386SOL     OW56054   4.574  14.745  13.103
51386SOL    HW156055   4.528  14.785  13.030
51386SOL    HW256056   4.597  14.819  13.161
51387SOL     OW56057   2.485  12.449  11.889
51387SOL    HW156058   2.526  12.366  11.865
51387SOL    HW256059   2.392  12.427  11.902
51388SOL     OW56060   1.385   6.604  13.743
51388SOL    HW156061   1.471   6.639  13.767
51388SOL    HW256062   1.395   6.578  13.651
51389SOL     OW56063  11.450   8.877  14.568
51389SOL    HW156064  11.466   8.893  14.475
51389SOL    HW256065  11.355   8.879  14.578
51390SOL     OW56066   0.192   8.917  14.348
51390SOL    HW156067   0.214   8.967  14.270
51390SOL    HW256068   0.154   8.835  14.314
51391SOL     OW56069   3.236   9.777  13.124
51391SOL    HW156070   3.290   9.751  13.049
51391SOL    HW256071   3.208   9.695  13.164
51392SOL     OW56072   2.768   4.303  10.634
51392SOL    HW156073   2.711   4.233  10.601
51392SOL    HW256074   2.849   4.294  10.583
51393SOL     OW56075   8.834  10.399  11.988
51393SOL    HW156076   8.920  10.377  11.954
51393SOL    HW256077   8.820  10.339  12.061
51394SOL     OW56078  12.120   6.381   6.850
51394SOL    HW156079  12.192   6.357   6.908
51394SOL    HW256080  12.161   6.432   6.780
51395SOL     OW56081   5.567  12.433   4.505
51395SOL    HW156082   5.633  12.464   4.443
51395SOL    HW256083   5.496  12.498   4.498
51396SOL     OW56084  10.055   5.383   8.742
51396SOL    HW156085  10.098   5.409   8.660
51396SOL    HW256086   9.962   5.401   8.727
51397SOL     OW56087   1.700   5.496  12.616
51397SOL    HW156088   1.786   5.456  12.605
51397SOL    HW256089   1.661   5.450  12.691
51398SOL     OW56090   8.789   4.523  13.450
51398SOL    HW156091   8.758   4.444  13.406
51398SOL    HW256092   8.827   4.576  13.380
51399SOL     OW56093   0.494   2.011   2.307
51399SOL    HW156094   0.422   2.010   2.370
51399SOL    HW256095   0.453   1.992   2.222
51400SOL     OW56096   1.102   0.238   7.462
51400SOL    HW156097   1.122   0.324   7.424
51400SOL    HW256098   1.014   0.219   7.430
51401SOL     OW56099   4.799   4.046   7.503
51401SOL    HW156100   4.833   4.047   7.592
51401SOL    HW256101   4.739   3.972   7.501
51402SOL     OW56102  13.873   0.526  12.561
51402SOL    HW156103  13.968   0.528  12.549
51402SOL    HW256104  13.860   0.555  12.652
51403SOL     OW56105  12.597   3.902  13.567
51403SOL    HW156106  12.529   3.969  13.571
51403SOL    HW256107  12.549   3.820  13.557
51404SOL     OW56108  13.792   1.448   9.798
51404SOL    HW156109  13.762   1.410   9.716
51404SOL    HW256110  13.829   1.533   9.773
51405SOL     OW56111  11.766   1.268   4.468
51405SOL    HW156112  11.822   1.307   4.534
51405SOL    HW256113  11.678   1.272   4.506
51406SOL     OW56114  13.491   2.856   3.016
51406SOL    HW156115  13.397   2.840   3.024
51406SOL    HW256116  13.531   2.802   3.084
51407SOL     OW56117   6.456   1.680  10.159
51407SOL    HW156118   6.457   1.738  10.083
51407SOL    HW256119   6.548   1.658  10.173
51408SOL     OW56120   2.012  14.118   1.162
51408SOL    HW156121   2.014  14.030   1.124
51408SOL    HW256122   2.030  14.105   1.255
51409SOL     OW56123   6.168   8.270   9.569
51409SOL    HW156124   6.237   8.313   9.520
51409SOL    HW256125   6.120   8.218   9.504
51410SOL     OW56126   2.586   8.609   4.958
51410SOL    HW156127   2.491   8.620   4.954
51410SOL    HW256128   2.613   8.603   4.866
51411SOL     OW56129  12.146  10.945   8.192
51411SOL    HW156130  12.237  10.974   8.201
51411SOL    HW256131  12.109  10.952   8.280
51412SOL     OW56132  13.943  11.339   1.236
51412SOL    HW156133  13.987  11.404   1.180
51412SOL    HW256134  13.967  11.364   1.325
51413SOL     OW56135  14.342   6.081   5.270
51413SOL    HW156136  14.332   6.171   5.240
51413SOL    HW256137  14.308   6.081   5.359
51414SOL     OW56138   7.279   2.167  10.036
51414SOL    HW156139   7.277   2.090   9.980
51414SOL    HW256140   7.335   2.229   9.990
51415SOL     OW56141  12.028   6.195   9.255
51415SOL    HW156142  11.941   6.225   9.284
51415SOL    HW256143  12.089   6.255   9.297
51416SOL     OW56144   0.882   6.025  14.691
51416SOL    HW156145   0.883   5.977  14.773
51416SOL    HW256146   0.905   6.115  14.714
51417SOL     OW56147   8.837  11.540  11.866
51417SOL    HW156148   8.910  11.578  11.914
51417SOL    HW256149   8.798  11.477  11.927
51418SOL     OW56150   5.346  14.475   4.687
51418SOL    HW156151   5.301  14.415   4.627
51418SOL    HW256152   5.376  14.546   4.632
51419SOL     OW56153  14.661  12.677  12.804
51419SOL    HW156154  14.746  12.670  12.846
51419SOL    HW256155  14.664  12.612  12.733
51420SOL     OW56156   9.452  11.113   8.552
51420SOL    HW156157   9.490  11.171   8.619
51420SOL    HW256158   9.445  11.028   8.595
51421SOL     OW56159   1.518   5.201  10.163
51421SOL    HW156160   1.459   5.266  10.125
51421SOL    HW256161   1.606   5.235  10.146
51422SOL     OW56162   5.847   9.424   0.202
51422SOL    HW156163   5.935   9.400   0.231
51422SOL    HW256164   5.854   9.517   0.179
51423SOL     OW56165   9.998   0.295   9.474
51423SOL    HW156166   9.927   0.338   9.522
51423SOL    HW256167  10.009   0.349   9.395
51424SOL     OW56168  11.748   0.939  13.882
51424SOL    HW156169  11.770   0.890  13.802
51424SOL    HW256170  11.670   0.895  13.916
51425SOL     OW56171  10.302   5.046  11.988
51425SOL    HW156172  10.393   5.074  11.979
51425SOL    HW256173  10.266   5.101  12.057
51426SOL     OW56174  10.435   2.178  13.581
51426SOL    HW156175  10.400   2.187  13.492
51426SOL    HW256176  10.530   2.189  13.570
51427SOL     OW56177   5.207   8.973  11.713
51427SOL    HW156178   5.220   8.880  11.692
51427SOL    HW256179   5.268   9.019  11.656
51428SOL     OW56180   6.229   6.781   2.463
51428SOL    HW156181   6.156   6.720   2.450
51428SOL    HW256182   6.209   6.854   2.404
51429SOL     OW56183   8.229   4.673   4.612
51429SOL    HW156184   8.181   4.619   4.675
51429SOL    HW256185   8.216   4.629   4.528
51430SOL     OW56186   5.668   2.961  13.043
51430SOL    HW156187   5.747   2.930  12.999
51430SOL    HW256188   5.598   2.902  13.013
51431SOL     OW56189   8.922   6.716  14.535
51431SOL    HW156190   8.855   6.745  14.473
51431SOL    HW256191   8.889   6.633  14.569
51432SOL     OW56192  13.973   2.963   9.608
51432SOL    HW156193  13.998   2.881   9.652
51432SOL    HW256194  13.992   2.947   9.515
51433SOL     OW56195  13.503   0.749   7.319
51433SOL    HW156196  13.409   0.745   7.300
51433SOL    HW256197  13.530   0.836   7.291
51434SOL     OW56198   1.428   6.308   5.231
51434SOL    HW156199   1.435   6.214   5.213
51434SOL    HW256200   1.487   6.349   5.168
51435SOL     OW56201   8.413   1.392   0.582
51435SOL    HW156202   8.427   1.463   0.518
51435SOL    HW256203   8.350   1.428   0.644
51436SOL     OW56204   8.095   8.117   6.819
51436SOL    HW156205   8.109   8.128   6.913
51436SOL    HW256206   8.183   8.108   6.782
51437SOL     OW56207  13.608  14.704  11.088
51437SOL    HW156208  13.528  14.658  11.114
51437SOL    HW256209  13.612  14.781  11.145
51438SOL     OW56210   4.097   6.843   8.097
51438SOL    HW156211   4.141   6.845   8.182
51438SOL    HW256212   4.166   6.829   8.033
51439SOL     OW56213   8.772   8.938  13.912
51439SOL    HW156214   8.788   8.866  13.851
51439SOL    HW256215   8.839   8.927  13.980
51440SOL     OW56216   5.903   6.763   4.852
51440SOL    HW156217   5.854   6.844   4.870
51440SOL    HW256218   5.978   6.768   4.911
51441SOL     OW56219   5.047   2.531   0.310
51441SOL    HW156220   5.025   2.603   0.250
51441SOL    HW256221   5.102   2.473   0.259
51442SOL     OW56222  14.146   7.490   6.883
51442SOL    HW156223  14.155   7.417   6.944
51442SOL    HW256224  14.183   7.457   6.801
51443SOL     OW56225   1.179  10.280   0.766
51443SOL    HW156226   1.188  10.344   0.695
51443SOL    HW256227   1.115  10.217   0.734
51444SOL     OW56228   9.781  14.145   7.936
51444SOL    HW156229   9.787  14.075   7.871
51444SOL    HW256230   9.719  14.111   8.001
51445SOL     OW56231  12.348   7.103  14.702
51445SOL    HW156232  12.390   7.160  14.638
51445SOL    HW256233  12.336   7.020  14.657
51446SOL     OW56234   4.085   0.896   6.898
51446SOL    HW156235   4.155   0.834   6.877
51446SOL    HW256236   4.128   0.962   6.953
51447SOL     OW56237   6.559  14.853   4.452
51447SOL    HW156238   6.499  14.872   4.380
51447SOL    HW256239   6.622  14.791   4.414
51448SOL     OW56240   9.791   9.776   5.416
51448SOL    HW156241   9.700   9.779   5.446
51448SOL    HW256242   9.810   9.867   5.392
51449SOL     OW56243   1.163   1.204   1.996
51449SOL    HW156244   1.193   1.142   2.062
51449SOL    HW256245   1.096   1.156   1.947
51450SOL     OW56246   0.755   1.445   9.795
51450SOL    HW156247   0.814   1.373   9.774
51450SOL    HW256248   0.787   1.519   9.743
51451SOL     OW56249   2.847   8.280   5.445
51451SOL    HW156250   2.786   8.215   5.478
51451SOL    HW256251   2.904   8.232   5.385
51452SOL     OW56252   4.905   3.571  12.743
51452SOL    HW156253   4.973   3.520  12.699
51452SOL    HW256254   4.886   3.642  12.682
51453SOL     OW56255   6.751   0.414   4.582
51453SOL    HW156256   6.782   0.351   4.516
51453SOL    HW256257   6.669   0.376   4.614
51454SOL     OW56258   8.083   5.073  13.480
51454SOL    HW156259   8.044   4.988  13.461
51454SOL    HW256260   8.008   5.131  13.492
51455SOL     OW56261   1.875  10.785   3.809
51455SOL    HW156262   1.875  10.689   3.803
51455SOL    HW256263   1.785  10.807   3.832
51456SOL     OW56264   7.909   5.435   8.606
51456SOL    HW156265   7.857   5.355   8.616
51456SOL    HW256266   7.935   5.458   8.695
51457SOL     OW56267   2.352   7.618   9.452
51457SOL    HW156268   2.350   7.653   9.362
51457SOL    HW256269   2.283   7.552   9.453
51458SOL     OW56270   1.684   8.685  12.917
51458SOL    HW156271   1.661   8.602  12.957
51458SOL    HW256272   1.607   8.741  12.932
51459SOL     OW56273   2.837   9.993   0.668
51459SOL    HW156274   2.751   9.962   0.640
51459SOL    HW256275   2.857   9.941   0.747
51460SOL     OW56276  11.515  11.249  14.352
51460SOL    HW156277  11.422  11.260  14.372
51460SOL    HW256278  11.531  11.309  14.279
51461SOL     OW56279   6.534   2.616  11.470
51461SOL    HW156280   6.627   2.599  11.479
51461SOL    HW256281   6.527   2.711  11.460
51462SOL     OW56282   4.142   0.082  11.406
51462SOL    HW156283   4.114   0.150  11.346
51462SOL    HW256284   4.206   0.125  11.463
51463SOL     OW56285   7.936   7.432   6.707
51463SOL    HW156286   7.947   7.491   6.782
51463SOL    HW256287   7.847   7.398   6.717
51464SOL     OW56288   9.714  13.519   8.169
51464SOL    HW156289   9.698  13.603   8.213
51464SOL    HW256290   9.798  13.490   8.203
51465SOL     OW56291   1.633   4.807   7.330
51465SOL    HW156292   1.631   4.897   7.297
51465SOL    HW256293   1.590   4.810   7.415
51466SOL     OW56294   5.672   6.614  13.755
51466SOL    HW156295   5.624   6.633  13.675
51466SOL    HW256296   5.739   6.551  13.729
51467SOL     OW56297   5.717   0.798   7.872
51467SOL    HW156298   5.745   0.750   7.794
51467SOL    HW256299   5.659   0.867   7.839
51468SOL     OW56300   1.968   7.282   6.147
51468SOL    HW156301   1.873   7.281   6.156
51468SOL    HW256302   1.996   7.364   6.187
51469SOL     OW56303   6.934   6.967  10.118
51469SOL    HW156304   6.883   7.001  10.191
51469SOL    HW256305   6.894   6.882  10.098
51470SOL     OW56306  11.456  14.257  12.908
51470SOL    HW156307  11.543  14.271  12.944
51470SOL    HW256308  11.464  14.178  12.855
51471SOL     OW56309   6.685  11.429   6.088
51471SOL    HW156310   6.708  11.403   5.998
51471SOL    HW256311   6.745  11.378   6.143
51472SOL     OW56312   4.412  10.249   4.163
51472SOL    HW156313   4.330  10.265   4.210
51472SOL    HW256314   4.388  10.259   4.070
51473SOL     OW56315   6.961  12.485  10.369
51473SOL    HW156316   6.995  12.546  10.304
51473SOL    HW256317   7.008  12.508  10.450
51474SOL     OW56318   5.725  10.496  14.240
51474SOL    HW156319   5.746  10.583  14.274
51474SOL    HW256320   5.754  10.436  14.309
51475SOL     OW56321   4.709  12.996   4.333
51475SOL    HW156322   4.776  12.982   4.266
51475SOL    HW256323   4.626  12.999   4.284
51476SOL     OW56324  11.151   5.727   9.885
51476SOL    HW156325  11.210   5.790   9.843
51476SOL    HW256326  11.095   5.696   9.813
51477SOL     OW56327  13.292   7.474  14.317
51477SOL    HW156328  13.333   7.416  14.253
51477SOL    HW256329  13.214   7.507  14.273
51478SOL     OW56330  13.126  10.135  10.537
51478SOL    HW156331  13.075  10.083  10.599
51478SOL    HW256332  13.064  10.157  10.468
51479SOL     OW56333  13.478  11.289   5.969
51479SOL    HW156334  13.472  11.274   5.874
51479SOL    HW256335  13.536  11.220   6.000
51480SOL     OW56336  14.040   9.929   3.005
51480SOL    HW156337  14.074   9.859   3.060
51480SOL    HW256338  14.036  10.005   3.062
51481SOL     OW56339   2.365   5.518   1.036
51481SOL    HW156340   2.360   5.474   1.121
51481SOL    HW256341   2.416   5.597   1.051
51482SOL     OW56342   1.290  12.171  14.196
51482SOL    HW156343   1.217  12.157  14.136
51482SOL    HW256344   1.258  12.236  14.258
51483SOL     OW56345   1.952   0.804  12.915
51483SOL    HW156346   1.992   0.752  12.845
51483SOL    HW256347   2.026   0.832  12.969
51484SOL     OW56348   8.080   0.747   8.780
51484SOL    HW156349   8.156   0.797   8.750
51484SOL    HW256350   8.043   0.800   8.851
51485SOL     OW56351   8.511   1.838   6.391
51485SOL    HW156352   8.432   1.832   6.337
51485SOL    HW256353   8.532   1.931   6.394
51486SOL     OW56354   0.721  13.509   3.259
51486SOL    HW156355   0.801  13.498   3.208
51486SOL    HW256356   0.752  13.515   3.350
51487SOL     OW56357   1.809  12.830  12.123
51487SOL    HW156358   1.714  12.814  12.119
51487SOL    HW256359   1.847  12.762  12.068
51488SOL     OW56360  14.795   9.519   8.775
51488SOL    HW156361  14.851   9.591   8.746
51488SOL    HW256362  14.856   9.447   8.791
51489SOL     OW56363  10.161   8.159   1.892
51489SOL    HW156364  10.130   8.236   1.941
51489SOL    HW256365  10.213   8.110   1.956
51490SOL     OW56366   8.404  11.436  13.554
51490SOL    HW156367   8.321  11.484  13.563
51490SOL    HW256368   8.400  11.398  13.466
51491SOL     OW56369   7.102   5.184   3.821
51491SOL    HW156370   7.156   5.151   3.749
51491SOL    HW256371   7.014   5.190   3.784
51492SOL     OW56372  11.135  12.787   9.062
51492SOL    HW156373  11.110  12.833   9.143
51492SOL    HW256374  11.075  12.713   9.058
51493SOL     OW56375  11.218   9.224   1.395
51493SOL    HW156376  11.173   9.161   1.452
51493SOL    HW256377  11.240   9.297   1.453
51494SOL     OW56378  11.311  13.575   8.964
51494SOL    HW156379  11.368  13.564   9.040
51494SOL    HW256380  11.264  13.656   8.980
51495SOL     OW56381   8.910  12.112   6.604
51495SOL    HW156382   8.901  12.191   6.552
51495SOL    HW256383   8.981  12.132   6.666
51496SOL     OW56384  14.492  10.702   1.582
51496SOL    HW156385  14.517  10.749   1.503
51496SOL    HW256386  14.549  10.736   1.651
51497SOL     OW56387  12.242  11.628   5.056
51497SOL    HW156388  12.317  11.573   5.078
51497SOL    HW256389  12.270  11.675   4.977
51498SOL     OW56390   6.296  11.283   6.604
51498SOL    HW156391   6.218  11.329   6.635
51498SOL    HW256392   6.323  11.229   6.679
51499SOL     OW56393   8.635   7.917   8.964
51499SOL    HW156394   8.595   7.833   8.989
51499SOL    HW256395   8.560   7.975   8.948
51500SOL     OW56396  11.841  12.828   6.510
51500SOL    HW156397  11.931  12.820   6.480
51500SOL    HW256398  11.839  12.909   6.561
51501SOL     OW56399   5.089  13.143   3.247
51501SOL    HW156400   5.142  13.201   3.302
51501SOL    HW256401   5.130  13.057   3.257
51502SOL     OW56402  13.308   1.954   3.589
51502SOL    HW156403  13.403   1.957   3.594
51502SOL    HW256404  13.287   1.973   3.498
51503SOL     OW56405   8.529   4.709  13.468
51503SOL    HW156406   8.605   4.651  13.459
51503SOL    HW256407   8.475   4.690  13.391
51504SOL     OW56408  13.810  11.862  11.037
51504SOL    HW156409  13.774  11.792  11.091
51504SOL    HW256410  13.859  11.917  11.098
51505SOL     OW56411   6.228   1.011   3.658
51505SOL    HW156412   6.285   0.959   3.715
51505SOL    HW256413   6.161   1.046   3.717
51506SOL     OW56414   9.572   6.119   0.582
51506SOL    HW156415   9.494   6.091   0.631
51506SOL    HW256416   9.641   6.062   0.615
51507SOL     OW56417  12.280   5.720   6.260
51507SOL    HW156418  12.306   5.764   6.341
51507SOL    HW256419  12.201   5.767   6.232
51508SOL     OW56420  12.912   6.187   4.093
51508SOL    HW156421  12.825   6.192   4.053
51508SOL    HW256422  12.895   6.171   4.185
51509SOL     OW56423   4.607   0.960  13.091
51509SOL    HW156424   4.516   0.991  13.093
51509SOL    HW256425   4.624   0.941  12.999
51510SOL     OW56426   4.550  10.401  10.686
51510SOL    HW156427   4.516  10.392  10.596
51510SOL    HW256428   4.636  10.360  10.683
51511SOL     OW56429   2.675   4.470   4.463
51511SOL    HW156430   2.593   4.437   4.498
51511SOL    HW256431   2.711   4.398   4.412
51512SOL     OW56432   8.121  11.411   4.833
51512SOL    HW156433   8.029  11.418   4.857
51512SOL    HW256434   8.157  11.344   4.891
51513SOL     OW56435  13.831   3.189  12.232
51513SOL    HW156436  13.858   3.118  12.174
51513SOL    HW256437  13.888   3.182  12.307
51514SOL     OW56438   6.102  13.384   0.520
51514SOL    HW156439   6.029  13.444   0.507
51514SOL    HW256440   6.151  13.388   0.439
51515SOL     OW56441   9.207   0.902   9.391
51515SOL    HW156442   9.165   0.948   9.319
51515SOL    HW256443   9.162   0.934   9.469
51516SOL     OW56444  13.913   7.789  13.059
51516SOL    HW156445  13.929   7.718  12.997
51516SOL    HW256446  14.001   7.820  13.082
51517SOL     OW56447   8.934   1.847   8.764
51517SOL    HW156448   9.004   1.806   8.816
51517SOL    HW256449   8.979   1.881   8.686
51518SOL     OW56450   2.539  12.105  10.497
51518SOL    HW156451   2.628  12.141  10.508
51518SOL    HW256452   2.543  12.058  10.414
51519SOL     OW56453  13.667   0.502   1.357
51519SOL    HW156454  13.592   0.450   1.384
51519SOL    HW256455  13.642   0.538   1.272
51520SOL     OW56456   9.917   9.034   0.937
51520SOL    HW156457   9.980   9.054   1.006
51520SOL    HW256458   9.969   8.993   0.868
51521SOL     OW56459  11.088   2.161   8.050
51521SOL    HW156460  11.064   2.096   8.117
51521SOL    HW256461  11.181   2.177   8.064
51522SOL     OW56462   0.165  10.604   1.981
51522SOL    HW156463   0.143  10.692   1.948
51522SOL    HW256464   0.257  10.593   1.960
51523SOL     OW56465   8.009   0.085   1.871
51523SOL    HW156466   8.070   0.059   1.940
51523SOL    HW256467   8.020   0.018   1.803
51524SOL     OW56468  13.790   1.264  13.586
51524SOL    HW156469  13.731   1.234  13.655
51524SOL    HW256470  13.878   1.245  13.620
51525SOL     OW56471   6.823   9.435   3.078
51525SOL    HW156472   6.863   9.519   3.054
51525SOL    HW256473   6.803   9.394   2.994
51526SOL     OW56474   5.501   2.224   4.794
51526SOL    HW156475   5.517   2.267   4.878
51526SOL    HW256476   5.541   2.281   4.729
51527SOL     OW56477   2.636   8.413   2.092
51527SOL    HW156478   2.558   8.383   2.139
51527SOL    HW256479   2.603   8.446   2.009
51528SOL     OW56480   1.282   6.976  13.972
51528SOL    HW156481   1.296   7.053  14.027
51528SOL    HW256482   1.280   7.012  13.883
51529SOL     OW56483   6.895   0.611   0.380
51529SOL    HW156484   6.814   0.630   0.334
51529SOL    HW256485   6.870   0.607   0.473
51530SOL     OW56486  13.973   2.620  11.265
51530SOL    HW156487  14.052   2.672  11.283
51530SOL    HW256488  13.994   2.573  11.184
51531SOL     OW56489   2.965  10.634  14.110
51531SOL    HW156490   2.938  10.649  14.200
51531SOL    HW256491   3.061  10.642  14.112
51532SOL     OW56492   5.730   8.437   0.383
51532SOL    HW156493   5.811   8.487   0.375
51532SOL    HW256494   5.693   8.465   0.467
51533SOL     OW56495   7.498   8.656   5.543
51533SOL    HW156496   7.478   8.734   5.491
51533SOL    HW256497   7.455   8.672   5.627
51534SOL     OW56498   3.382   0.836  11.433
51534SOL    HW156499   3.425   0.777  11.495
51534SOL    HW256500   3.288   0.819  11.445
51535SOL     OW56501  14.587   1.585  14.460
51535SOL    HW156502  14.540   1.652  14.509
51535SOL    HW256503  14.518   1.540  14.410
51536SOL     OW56504   7.733   4.075  10.836
51536SOL    HW156505   7.740   4.105  10.745
51536SOL    HW256506   7.812   4.108  10.879
51537SOL     OW56507  13.124   5.086   1.834
51537SOL    HW156508  13.120   5.035   1.753
51537SOL    HW256509  13.059   5.155   1.821
51538SOL     OW56510  14.781   4.199   0.571
51538SOL    HW156511  14.822   4.283   0.554
51538SOL    HW256512  14.829   4.162   0.644
51539SOL     OW56513  10.508   4.421  10.914
51539SOL    HW156514  10.536   4.497  10.863
51539SOL    HW256515  10.568   4.419  10.989
51540SOL     OW56516   3.120  14.144   3.905
51540SOL    HW156517   3.044  14.104   3.948
51540SOL    HW256518   3.100  14.140   3.812
51541SOL     OW56519   4.653   0.388  13.845
51541SOL    HW156520   4.583   0.426  13.899
51541SOL    HW256521   4.713   0.461  13.830
51542SOL     OW56522   4.062   8.454   5.007
51542SOL    HW156523   4.132   8.465   4.942
51542SOL    HW256524   4.004   8.529   4.992
51543SOL     OW56525   7.992   9.363   7.076
51543SOL    HW156526   8.057   9.326   7.136
51543SOL    HW256527   8.015   9.455   7.070
51544SOL     OW56528  13.213   7.190  12.518
51544SOL    HW156529  13.280   7.179  12.451
51544SOL    HW256530  13.147   7.124  12.497
51545SOL     OW56531  10.572   9.903   1.790
51545SOL    HW156532  10.497   9.877   1.844
51545SOL    HW256533  10.575   9.998   1.797
51546SOL     OW56534   3.091   4.584  11.868
51546SOL    HW156535   3.023   4.641  11.830
51546SOL    HW256536   3.102   4.616  11.957
51547SOL     OW56537  14.528  11.918  14.211
51547SOL    HW156538  14.586  11.889  14.281
51547SOL    HW256539  14.507  12.009  14.234
51548SOL     OW56540  10.929   2.421   0.569
51548SOL    HW156541  11.021   2.447   0.574
51548SOL    HW256542  10.921   2.350   0.634
51549SOL     OW56543   7.057  13.691   4.729
51549SOL    HW156544   7.090  13.603   4.749
51549SOL    HW256545   7.012  13.682   4.645
51550SOL     OW56546   3.163  13.355   4.401
51550SOL    HW156547   3.212  13.347   4.319
51550SOL    HW256548   3.073  13.331   4.377
51551SOL     OW56549   0.208  13.855   7.929
51551SOL    HW156550   0.139  13.918   7.950
51551SOL    HW256551   0.167  13.794   7.866
51552SOL     OW56552   4.884   7.812  13.974
51552SOL    HW156553   4.907   7.788  13.884
51552SOL    HW256554   4.958   7.783  14.027
51553SOL     OW56555   7.645   2.462   0.553
51553SOL    HW156556   7.563   2.454   0.506
51553SOL    HW256557   7.680   2.373   0.557
51554SOL     OW56558   1.491  13.617   7.780
51554SOL    HW156559   1.396  13.607   7.788
51554SOL    HW256560   1.527  13.565   7.852
51555SOL     OW56561  11.528  10.338  11.853
51555SOL    HW156562  11.518  10.417  11.906
51555SOL    HW256563  11.463  10.277  11.888
51556SOL     OW56564  10.586  12.418   8.529
51556SOL    HW156565  10.568  12.501   8.572
51556SOL    HW256566  10.511  12.403   8.472
51557SOL     OW56567   4.099   6.736  14.560
51557SOL    HW156568   4.016   6.696  14.585
51557SOL    HW256569   4.074   6.821  14.523
51558SOL     OW56570  11.170   7.836  11.069
51558SOL    HW156571  11.117   7.765  11.033
51558SOL    HW256572  11.112   7.883  11.128
51559SOL     OW56573   7.951  11.002   7.460
51559SOL    HW156574   8.016  10.931   7.458
51559SOL    HW256575   7.917  11.000   7.549
51560SOL     OW56576   0.844   6.940  11.563
51560SOL    HW156577   0.828   6.914  11.472
51560SOL    HW256578   0.773   7.000  11.584
51561SOL     OW56579   7.394   9.791   5.765
51561SOL    HW156580   7.383   9.715   5.707
51561SOL    HW256581   7.325   9.781   5.831
51562SOL     OW56582   5.265   2.771   5.931
51562SOL    HW156583   5.321   2.837   5.891
51562SOL    HW256584   5.182   2.817   5.948
51563SOL     OW56585   2.341   8.816   4.012
51563SOL    HW156586   2.392   8.858   3.943
51563SOL    HW256587   2.398   8.745   4.043
51564SOL     OW56588  10.208  11.187   4.418
51564SOL    HW156589  10.248  11.261   4.372
51564SOL    HW256590  10.192  11.220   4.506
51565SOL     OW56591  13.932   9.011   0.040
51565SOL    HW156592  13.890   9.023  14.830
51565SOL    HW256593  13.872   8.954   0.088
51566SOL     OW56594   1.494   9.350   1.734
51566SOL    HW156595   1.517   9.411   1.804
51566SOL    HW256596   1.568   9.289   1.730
51567SOL     OW56597   8.714  10.221  13.352
51567SOL    HW156598   8.649  10.284  13.384
51567SOL    HW256599   8.676  10.187  13.271
51568SOL     OW56600   9.003  10.230   1.569
51568SOL    HW156601   8.963  10.194   1.490
51568SOL    HW256602   9.019  10.322   1.549
51569SOL     OW56603   1.353  12.517   1.112
51569SOL    HW156604   1.381  12.607   1.124
51569SOL    HW256605   1.290  12.521   1.040
51570SOL     OW56606  12.875   1.588   5.683
51570SOL    HW156607  12.953   1.624   5.725
51570SOL    HW256608  12.843   1.522   5.745
51571SOL     OW56609   1.370   6.654   5.493
51571SOL    HW156610   1.460   6.686   5.482
51571SOL    HW256611   1.315   6.730   5.471
51572SOL     OW56612   8.530   1.786   4.814
51572SOL    HW156613   8.502   1.832   4.735
51572SOL    HW256614   8.460   1.802   4.877
51573SOL     OW56615   1.869   4.844   5.628
51573SOL    HW156616   1.807   4.898   5.678
51573SOL    HW256617   1.815   4.775   5.590
51574SOL     OW56618   7.620   9.213  10.516
51574SOL    HW156619   7.555   9.260  10.568
51574SOL    HW256620   7.692   9.274  10.505
51575SOL     OW56621  11.130   8.873   5.110
51575SOL    HW156622  11.212   8.850   5.154
51575SOL    HW256623  11.153   8.876   5.017
51576SOL     OW56624   2.616   9.386   7.803
51576SOL    HW156625   2.569   9.319   7.851
51576SOL    HW256626   2.577   9.385   7.715
51577SOL     OW56627   1.712  11.268   5.955
51577SOL    HW156628   1.677  11.223   5.879
51577SOL    HW256629   1.673  11.356   5.951
51578SOL     OW56630  11.440   3.428   8.924
51578SOL    HW156631  11.511   3.365   8.909
51578SOL    HW256632  11.362   3.384   8.892
51579SOL     OW56633   4.751   8.162  14.462
51579SOL    HW156634   4.761   8.194  14.372
51579SOL    HW256635   4.691   8.224  14.503
51580SOL     OW56636   4.772   8.946   0.383
51580SOL    HW156637   4.731   8.889   0.318
51580SOL    HW256638   4.852   8.977   0.341
51581SOL     OW56639   7.766   9.421  12.412
51581SOL    HW156640   7.817   9.341  12.401
51581SOL    HW256641   7.683   9.402  12.368
51582SOL     OW56642   1.728   5.046   8.065
51582SOL    HW156643   1.792   5.001   8.011
51582SOL    HW256644   1.644   5.005   8.042
51583SOL     OW56645   2.731  11.380   1.998
51583SOL    HW156646   2.696  11.402   2.085
51583SOL    HW256647   2.655  11.383   1.940
51584SOL     OW56648  13.051   8.647  12.151
51584SOL    HW156649  12.958   8.634  12.171
51584SOL    HW256650  13.077   8.722  12.204
51585SOL     OW56651  10.185  12.124   2.850
51585SOL    HW156652  10.125  12.190   2.885
51585SOL    HW256653  10.263  12.131   2.906
51586SOL     OW56654   1.290   9.561   7.329
51586SOL    HW156655   1.211   9.534   7.281
51586SOL    HW256656   1.320   9.638   7.282
51587SOL     OW56657   8.450   9.515  11.496
51587SOL    HW156658   8.439   9.524  11.590
51587SOL    HW256659   8.418   9.427  11.477
51588SOL     OW56660   7.139   0.617   9.772
51588SOL    HW156661   7.110   0.696   9.726
51588SOL    HW256662   7.082   0.547   9.739
51589SOL     OW56663   3.372   3.028   2.593
51589SOL    HW156664   3.374   2.966   2.521
51589SOL    HW256665   3.289   3.011   2.638
51590SOL     OW56666   7.143   0.084   8.937
51590SOL    HW156667   7.180   0.128   9.014
51590SOL    HW256668   7.068   0.139   8.912
51591SOL     OW56669   6.433  12.727  12.079
51591SOL    HW156670   6.456  12.634  12.082
51591SOL    HW256671   6.410  12.743  11.988
51592SOL     OW56672   6.840   7.437   6.123
51592SOL    HW156673   6.774   7.462   6.187
51592SOL    HW256674   6.917   7.490   6.146
51593SOL     OW56675  10.344   7.937   9.977
51593SOL    HW156676  10.285   7.943  10.052
51593SOL    HW256677  10.292   7.893   9.909
51594SOL     OW56678   4.442   0.555   5.960
51594SOL    HW156679   4.354   0.593   5.958
51594SOL    HW256680   4.447   0.502   5.881
51595SOL     OW56681   1.018   3.055  14.310
51595SOL    HW156682   1.006   2.960  14.311
51595SOL    HW256683   1.087   3.072  14.375
51596SOL     OW56684   5.729   1.157   4.904
51596SOL    HW156685   5.737   1.068   4.869
51596SOL    HW256686   5.818   1.193   4.898
51597SOL     OW56687  10.872  12.667  13.072
51597SOL    HW156688  10.778  12.676  13.058
51597SOL    HW256689  10.889  12.718  13.152
51598SOL     OW56690   2.405   0.163   2.955
51598SOL    HW156691   2.337   0.231   2.956
51598SOL    HW256692   2.429   0.155   2.863
51599SOL     OW56693  11.754   1.335   2.985
51599SOL    HW156694  11.722   1.412   2.939
51599SOL    HW256695  11.728   1.261   2.930
51600SOL     OW56696  11.220   8.499   9.062
51600SOL    HW156697  11.165   8.568   9.097
51600SOL    HW256698  11.191   8.419   9.106
51601SOL     OW56699   7.284   9.685   3.547
51601SOL    HW156700   7.195   9.653   3.558
51601SOL    HW256701   7.296   9.692   3.452
51602SOL     OW56702  13.359   5.428   5.153
51602SOL    HW156703  13.325   5.505   5.107
51602SOL    HW256704  13.333   5.441   5.244
51603SOL     OW56705  12.115   0.891  13.280
51603SOL    HW156706  12.114   0.970  13.334
51603SOL    HW256707  12.070   0.826  13.333
51604SOL     OW56708   2.801  11.822  13.162
51604SOL    HW156709   2.872  11.781  13.113
51604SOL    HW256710   2.838  11.904  13.193
51605SOL     OW56711   6.922   0.458   9.521
51605SOL    HW156712   6.872   0.399   9.579
51605SOL    HW256713   6.926   0.411   9.438
51606SOL     OW56714   7.729   2.386   5.661
51606SOL    HW156715   7.719   2.454   5.727
51606SOL    HW256716   7.702   2.428   5.579
51607SOL     OW56717   1.114  10.932   5.856
51607SOL    HW156718   1.134  10.844   5.886
51607SOL    HW256719   1.170  10.989   5.910
51608SOL     OW56720   4.691  10.191  14.137
51608SOL    HW156721   4.603  10.153  14.130
51608SOL    HW256722   4.745  10.138  14.079
51609SOL     OW56723   8.774  11.436   1.765
51609SOL    HW156724   8.744  11.451   1.855
51609SOL    HW256725   8.723  11.497   1.712
51610SOL     OW56726  12.210   5.880  14.370
51610SOL    HW156727  12.231   5.961  14.415
51610SOL    HW256728  12.118   5.864  14.390
51611SOL     OW56729   8.344   3.884   1.517
51611SOL    HW156730   8.275   3.861   1.579
51611SOL    HW256731   8.400   3.806   1.514
51612SOL     OW56732   9.786  13.464   5.119
51612SOL    HW156733   9.750  13.538   5.070
51612SOL    HW256734   9.841  13.503   5.185
51613SOL     OW56735   1.584   4.177  12.509
51613SOL    HW156736   1.661   4.232  12.491
51613SOL    HW256737   1.609   4.125  12.585
51614SOL     OW56738   9.832  13.813   3.426
51614SOL    HW156739   9.917  13.854   3.410
51614SOL    HW256740   9.773  13.854   3.362
51615SOL     OW56741  14.207  14.155  12.168
51615SOL    HW156742  14.127  14.161  12.221
51615SOL    HW256743  14.275  14.195  12.222
51616SOL     OW56744   4.933   8.452  12.627
51616SOL    HW156745   5.028   8.440  12.629
51616SOL    HW256746   4.898   8.363  12.632
51617SOL     OW56747   2.794   1.972   9.931
51617SOL    HW156748   2.709   1.927   9.927
51617SOL    HW256749   2.787   2.028  10.008
51618SOL     OW56750   9.835  13.321   8.815
51618SOL    HW156751   9.847  13.378   8.739
51618SOL    HW256752   9.784  13.373   8.877
51619SOL     OW56753   2.315   4.181  14.346
51619SOL    HW156754   2.309   4.130  14.266
51619SOL    HW256755   2.281   4.124  14.415
51620SOL     OW56756   2.299   6.885   0.983
51620SOL    HW156757   2.234   6.948   0.953
51620SOL    HW256758   2.383   6.930   0.974
51621SOL     OW56759   0.804  12.055   5.342
51621SOL    HW156760   0.785  11.975   5.391
51621SOL    HW256761   0.783  12.034   5.252
51622SOL     OW56762  10.029   2.260  11.174
51622SOL    HW156763  10.066   2.348  11.170
51622SOL    HW256764  10.062   2.224  11.257
51623SOL     OW56765   5.429  14.616   1.496
51623SOL    HW156766   5.349  14.598   1.545
51623SOL    HW256767   5.432  14.711   1.490
51624SOL     OW56768   0.692  10.042   2.331
51624SOL    HW156769   0.650  10.041   2.417
51624SOL    HW256770   0.747   9.963   2.330
51625SOL     OW56771  12.459  11.530   1.636
51625SOL    HW156772  12.473  11.614   1.679
51625SOL    HW256773  12.419  11.475   1.704
51626SOL     OW56774  12.780   5.508   5.654
51626SOL    HW156775  12.715   5.480   5.717
51626SOL    HW256776  12.730   5.552   5.585
51627SOL     OW56777   8.184   6.170  10.537
51627SOL    HW156778   8.101   6.137  10.572
51627SOL    HW256779   8.159   6.223  10.462
51628SOL     OW56780   3.386  11.436  12.376
51628SOL    HW156781   3.303  11.476  12.352
51628SOL    HW256782   3.376  11.343  12.354
51629SOL     OW56783   5.714   7.129  14.183
51629SOL    HW156784   5.735   7.040  14.210
51629SOL    HW256785   5.785   7.182  14.218
51630SOL     OW56786  11.273   0.198  10.436
51630SOL    HW156787  11.320   0.257  10.376
51630SOL    HW256788  11.181   0.207  10.412
51631SOL     OW56789   2.607   8.546   6.690
51631SOL    HW156790   2.616   8.494   6.611
51631SOL    HW256791   2.613   8.637   6.660
51632SOL     OW56792   0.377  13.187   4.542
51632SOL    HW156793   0.415  13.099   4.542
51632SOL    HW256794   0.374  13.211   4.635
51633SOL     OW56795   5.364  11.743  12.216
51633SOL    HW156796   5.308  11.742  12.294
51633SOL    HW256797   5.314  11.790  12.150
51634SOL     OW56798   2.498  11.470   1.849
51634SOL    HW156799   2.454  11.409   1.908
51634SOL    HW256800   2.431  11.534   1.825
51635SOL     OW56801  14.091  10.131   2.320
51635SOL    HW156802  14.067  10.056   2.374
51635SOL    HW256803  14.043  10.205   2.358
51636SOL     OW56804  12.890  11.676   6.702
51636SOL    HW156805  12.983  11.696   6.689
51636SOL    HW256806  12.888  11.583   6.721
51637SOL     OW56807   3.316   9.703   7.616
51637SOL    HW156808   3.360   9.760   7.553
51637SOL    HW256809   3.227   9.693   7.581
51638SOL     OW56810  10.783  13.977   2.648
51638SOL    HW156811  10.836  13.996   2.570
51638SOL    HW256812  10.695  13.964   2.614
51639SOL     OW56813   6.341  10.353  14.627
51639SOL    HW156814   6.433  10.379  14.628
51639SOL    HW256815   6.343  10.258  14.632
51640SOL     OW56816   5.661  13.624   9.372
51640SOL    HW156817   5.591  13.669   9.324
51640SOL    HW256818   5.721  13.595   9.304
51641SOL     OW56819   8.278  10.713  12.099
51641SOL    HW156820   8.264  10.805  12.121
51641SOL    HW256821   8.266  10.709  12.004
51642SOL     OW56822  13.800   3.507  11.401
51642SOL    HW156823  13.850   3.446  11.455
51642SOL    HW256824  13.748   3.451  11.343
51643SOL     OW56825   7.734   7.498  12.377
51643SOL    HW156826   7.809   7.522  12.322
51643SOL    HW256827   7.771   7.441  12.444
51644SOL     OW56828   8.417  14.099   1.847
51644SOL    HW156829   8.348  14.166   1.840
51644SOL    HW256830   8.414  14.052   1.764
51645SOL     OW56831   0.387   4.486  10.785
51645SOL    HW156832   0.447   4.451  10.719
51645SOL    HW256833   0.309   4.511  10.736
51646SOL     OW56834   5.814  13.175   8.308
51646SOL    HW156835   5.767  13.096   8.283
51646SOL    HW256836   5.767  13.208   8.384
51647SOL     OW56837   6.304  10.870  10.972
51647SOL    HW156838   6.370  10.880  10.903
51647SOL    HW256839   6.353  10.882  11.053
51648SOL     OW56840   0.706   3.534   6.086
51648SOL    HW156841   0.767   3.551   6.014
51648SOL    HW256842   0.753   3.564   6.164
51649SOL     OW56843  12.071  12.909   8.543
51649SOL    HW156844  12.158  12.908   8.503
51649SOL    HW256845  12.084  12.955   8.626
51650SOL     OW56846   0.889   4.592   9.460
51650SOL    HW156847   0.949   4.543   9.404
51650SOL    HW256848   0.843   4.525   9.511
51651SOL     OW56849  12.060  10.992  13.855
51651SOL    HW156850  12.105  11.006  13.938
51651SOL    HW256851  12.091  10.907  13.825
51652SOL     OW56852   1.896   3.306   7.742
51652SOL    HW156853   1.945   3.325   7.662
51652SOL    HW256854   1.844   3.385   7.758
51653SOL     OW56855   4.754  10.408  11.055
51653SOL    HW156856   4.759  10.314  11.071
51653SOL    HW256857   4.668  10.421  11.015
51654SOL     OW56858   1.710   8.225   0.336
51654SOL    HW156859   1.744   8.242   0.424
51654SOL    HW256860   1.628   8.176   0.350
51655SOL     OW56861  14.207   2.709  11.365
51655SOL    HW156862  14.220   2.714  11.459
51655SOL    HW256863  14.294   2.727  11.328
51656SOL     OW56864  12.067  11.800  13.122
51656SOL    HW156865  12.159  11.821  13.102
51656SOL    HW256866  12.067  11.706  13.140
51657SOL     OW56867   3.750   6.886   1.662
51657SOL    HW156868   3.792   6.967   1.691
51657SOL    HW256869   3.818   6.840   1.613
51658SOL     OW56870  13.882   7.033  12.718
51658SOL    HW156871  13.828   7.111  12.729
51658SOL    HW256872  13.949   7.040  12.786
51659SOL     OW56873   4.356   2.036   4.640
51659SOL    HW156874   4.396   2.024   4.726
51659SOL    HW256875   4.421   2.003   4.578
51660SOL     OW56876  13.765  14.848   1.920
51660SOL    HW156877  13.757  14.852   2.015
51660SOL    HW256878  13.730   0.056   1.889
51661SOL     OW56879   5.002  11.731  11.322
51661SOL    HW156880   4.955  11.787  11.261
51661SOL    HW256881   4.961  11.748  11.407
51662SOL     OW56882  10.245   3.254   5.264
51662SOL    HW156883  10.165   3.237   5.313
51662SOL    HW256884  10.305   3.185   5.293
51663SOL     OW56885  10.384   7.212   1.191
51663SOL    HW156886  10.332   7.199   1.113
51663SOL    HW256887  10.324   7.196   1.264
51664SOL     OW56888   5.087   9.854  11.075
51664SOL    HW156889   5.012   9.913  11.071
51664SOL    HW256890   5.137   9.882  11.152
51665SOL     OW56891   0.198   0.587   5.707
51665SOL    HW156892   0.239   0.554   5.786
51665SOL    HW256893   0.269   0.592   5.643
51666SOL     OW56894  13.830   1.568  10.409
51666SOL    HW156895  13.849   1.634  10.343
51666SOL    HW256896  13.909   1.514  10.413
51667SOL     OW56897   8.962   9.135  10.558
51667SOL    HW156898   8.969   9.216  10.610
51667SOL    HW256899   8.948   9.166  10.468
51668SOL     OW56900   3.439  14.533   7.502
51668SOL    HW156901   3.436  14.606   7.440
51668SOL    HW256902   3.474  14.571   7.582
51669SOL     OW56903  10.670   5.244   9.789
51669SOL    HW156904  10.591   5.221   9.740
51669SOL    HW256905  10.645   5.237   9.881
51670SOL     OW56906   9.715   8.664   1.788
51670SOL    HW156907   9.664   8.721   1.847
51670SOL    HW256908   9.758   8.602   1.847
51671SOL     OW56909   7.103  13.751   6.877
51671SOL    HW156910   7.019  13.759   6.922
51671SOL    HW256911   7.166  13.789   6.937
51672SOL     OW56912  11.867   0.136  10.825
51672SOL    HW156913  11.901   0.114  10.912
51672SOL    HW256914  11.945   0.140  10.770
51673SOL     OW56915  11.934   7.395   2.400
51673SOL    HW156916  11.845   7.364   2.383
51673SOL    HW256917  11.943   7.391   2.495
51674SOL     OW56918   0.600  12.885   7.703
51674SOL    HW156919   0.602  12.849   7.791
51674SOL    HW256920   0.558  12.817   7.650
51675SOL     OW56921  14.005   3.929  14.088
51675SOL    HW156922  14.073   3.942  14.022
51675SOL    HW256923  13.962   4.014  14.095
51676SOL     OW56924   1.520   6.160   6.970
51676SOL    HW156925   1.534   6.067   6.986
51676SOL    HW256926   1.459   6.164   6.897
51677SOL     OW56927  11.261   8.944   0.226
51677SOL    HW156928  11.262   8.923   0.319
51677SOL    HW256929  11.282   9.037   0.221
51678SOL     OW56930   2.109   6.384   6.896
51678SOL    HW156931   2.182   6.379   6.834
51678SOL    HW256932   2.032   6.366   6.842
51679SOL     OW56933   5.624   6.299  12.954
51679SOL    HW156934   5.578   6.332  12.877
51679SOL    HW256935   5.717   6.309  12.934
51680SOL     OW56936  14.327   8.898  14.260
51680SOL    HW156937  14.413   8.898  14.303
51680SOL    HW256938  14.344   8.934  14.173
51681SOL     OW56939   6.610  12.599   6.322
51681SOL    HW156940   6.555  12.676   6.332
51681SOL    HW256941   6.560  12.528   6.362
51682SOL     OW56942  13.503   9.819   6.548
51682SOL    HW156943  13.427   9.774   6.513
51682SOL    HW256944  13.533   9.764   6.620
51683SOL     OW56945   5.370  11.132  14.045
51683SOL    HW156946   5.301  11.080  14.005
51683SOL    HW256947   5.391  11.199  13.980
51684SOL     OW56948   1.545   0.927   6.792
51684SOL    HW156949   1.535   0.930   6.887
51684SOL    HW256950   1.625   0.976   6.774
51685SOL     OW56951  10.924   1.799  13.044
51685SOL    HW156952  10.966   1.742  12.978
51685SOL    HW256953  10.918   1.744  13.122
51686SOL     OW56954   0.205   8.419  10.800
51686SOL    HW156955   0.267   8.487  10.825
51686SOL    HW256956   0.222   8.346  10.860
51687SOL     OW56957  14.640  13.021  14.794
51687SOL    HW156958  14.571  13.046  14.732
51687SOL    HW256959  14.698  12.965  14.743
51688SOL     OW56960   6.988   9.653  12.346
51688SOL    HW156961   7.080   9.630  12.342
51688SOL    HW256962   6.941   9.574  12.319
51689SOL     OW56963   6.052  12.305  12.597
51689SOL    HW156964   6.072  12.395  12.621
51689SOL    HW256965   6.115  12.252  12.644
51690SOL     OW56966   9.425   7.587   1.236
51690SOL    HW156967   9.475   7.615   1.312
51690SOL    HW256968   9.351   7.648   1.232
51691SOL     OW56969   0.661  12.593  12.903
51691SOL    HW156970   0.623  12.595  12.990
51691SOL    HW256971   0.738  12.650  12.909
51692SOL     OW56972  12.880   3.274   9.740
51692SOL    HW156973  12.804   3.230   9.703
51692SOL    HW256974  12.846   3.354   9.778
51693SOL     OW56975   3.303  11.218  11.151
51693SOL    HW156976   3.323  11.229  11.244
51693SOL    HW256977   3.256  11.136  11.145
51694SOL     OW56978  11.248  10.997   9.810
51694SOL    HW156979  11.153  10.996   9.793
51694SOL    HW256980  11.262  10.924   9.871
51695SOL     OW56981  11.860   5.299   6.493
51695SOL    HW156982  11.943   5.286   6.540
51695SOL    HW256983  11.869   5.384   6.451
51696SOL     OW56984   5.127  12.865   2.329
51696SOL    HW156985   5.175  12.929   2.276
51696SOL    HW256986   5.036  12.895   2.327
51697SOL     OW56987   5.458   2.758  11.191
51697SOL    HW156988   5.496   2.794  11.111
51697SOL    HW256989   5.411   2.832  11.230
51698SOL     OW56990  10.764   7.961   8.573
51698SOL    HW156991  10.744   7.993   8.485
51698SOL    HW256992  10.859   7.971   8.581
51699SOL     OW56993  11.149   9.626  12.654
51699SOL    HW156994  11.080   9.660  12.596
51699SOL    HW256995  11.208   9.579  12.595
51700SOL     OW56996  10.516   6.533  11.338
51700SOL    HW156997  10.480   6.520  11.250
51700SOL    HW256998  10.602   6.491  11.335
51701SOL     OW56999   0.526   7.046   8.834
51701SOL    HW157000   0.463   7.031   8.904
51701SOL    HW257001   0.541   6.960   8.796
51702SOL     OW57002  14.270   0.829   1.844
51702SOL    HW157003  14.309   0.742   1.844
51702SOL    HW257004  14.277   0.859   1.753
51703SOL     OW57005   5.282   9.038  14.361
51703SOL    HW157006   5.250   9.071  14.445
51703SOL    HW257007   5.220   8.969  14.336
51704SOL     OW57008   4.185   6.467   8.746
51704SOL    HW157009   4.233   6.478   8.829
51704SOL    HW257010   4.147   6.379   8.752
51705SOL     OW57011  10.440   1.491   3.678
51705SOL    HW157012  10.420   1.524   3.766
51705SOL    HW257013  10.527   1.452   3.686
51706SOL     OW57014   4.147   8.826   6.910
51706SOL    HW157015   4.080   8.817   6.842
51706SOL    HW257016   4.099   8.855   6.987
51707SOL     OW57017  10.794   4.431   3.276
51707SOL    HW157018  10.815   4.382   3.355
51707SOL    HW257019  10.872   4.483   3.258
51708SOL     OW57020   8.838   8.309   8.634
51708SOL    HW157021   8.878   8.236   8.586
51708SOL    HW257022   8.905   8.336   8.697
51709SOL     OW57023   8.809   8.771   8.297
51709SOL    HW157024   8.762   8.736   8.373
51709SOL    HW257025   8.894   8.726   8.299
51710SOL     OW57026   1.277   9.356   5.788
51710SOL    HW157027   1.325   9.346   5.870
51710SOL    HW257028   1.188   9.327   5.809
51711SOL     OW57029  14.870   8.437   9.227
51711SOL    HW157030   0.061   8.372   9.203
51711SOL    HW257031   0.021   8.517   9.181
51712SOL     OW57032  12.302  11.039  14.840
51712SOL    HW157033  12.244  11.081   0.028
51712SOL    HW257034  12.252  11.036  14.758
51713SOL     OW57035   1.632  13.258  13.773
51713SOL    HW157036   1.630  13.235  13.680
51713SOL    HW257037   1.569  13.199  13.814
51714SOL     OW57038  13.436   1.084   5.394
51714SOL    HW157039  13.373   1.088   5.466
51714SOL    HW257040  13.402   1.017   5.335
51715SOL     OW57041   9.967   5.863   6.149
51715SOL    HW157042  10.049   5.841   6.193
51715SOL    HW257043   9.990   5.933   6.088
51716SOL     OW57044   7.218   5.634   7.402
51716SOL    HW157045   7.170   5.597   7.475
51716SOL    HW257046   7.276   5.699   7.442
51717SOL     OW57047   4.248   9.209   9.210
51717SOL    HW157048   4.182   9.279   9.211
51717SOL    HW257049   4.278   9.206   9.119
51718SOL     OW57050   7.519  12.668   4.602
51718SOL    HW157051   7.439  12.617   4.618
51718SOL    HW257052   7.551  12.637   4.518
51719SOL     OW57053  10.512   6.607   3.979
51719SOL    HW157054  10.549   6.551   3.911
51719SOL    HW257055  10.462   6.673   3.931
51720SOL     OW57056   3.783   4.840   6.758
51720SOL    HW157057   3.787   4.748   6.785
51720SOL    HW257058   3.758   4.888   6.837
51721SOL     OW57059  14.287   5.563  14.151
51721SOL    HW157060  14.246   5.566  14.238
51721SOL    HW257061  14.380   5.553  14.169
51722SOL     OW57062   4.173   2.500  14.581
51722SOL    HW157063   4.108   2.568  14.564
51722SOL    HW257064   4.186   2.502  14.676
51723SOL     OW57065   6.662  12.121   8.332
51723SOL    HW157066   6.755  12.101   8.322
51723SOL    HW257067   6.654  12.213   8.304
51724SOL     OW57068   1.792   6.773   9.603
51724SOL    HW157069   1.780   6.864   9.629
51724SOL    HW257070   1.856   6.776   9.532
51725SOL     OW57071   9.672   9.023   5.612
51725SOL    HW157072   9.647   9.114   5.602
51725SOL    HW257073   9.627   8.977   5.542
51726SOL     OW57074  14.866  10.197   4.726
51726SOL    HW157075  14.780  10.238   4.725
51726SOL    HW257076  14.871  10.155   4.812
51727SOL     OW57077   4.982   3.893  12.809
51727SOL    HW157078   4.957   3.867  12.898
51727SOL    HW257079   5.006   3.986  12.817
51728SOL     OW57080  13.366   2.400   0.399
51728SOL    HW157081  13.444   2.346   0.387
51728SOL    HW257082  13.308   2.375   0.327
51729SOL     OW57083   0.435   8.705   3.666
51729SOL    HW157084   0.504   8.652   3.626
51729SOL    HW257085   0.378   8.729   3.593
51730SOL     OW57086   4.025  10.919   7.473
51730SOL    HW157087   3.944  10.970   7.469
51730SOL    HW257088   4.040  10.906   7.567
51731SOL     OW57089   8.495   8.582   9.295
51731SOL    HW157090   8.512   8.506   9.240
51731SOL    HW257091   8.486   8.655   9.233
51732SOL     OW57092   0.181   7.080   2.503
51732SOL    HW157093   0.161   6.987   2.500
51732SOL    HW257094   0.156   7.113   2.417
51733SOL     OW57095   1.003   0.817   7.887
51733SOL    HW157096   1.009   0.725   7.910
51733SOL    HW257097   0.928   0.822   7.828
51734SOL     OW57098   2.302   2.421  13.582
51734SOL    HW157099   2.282   2.515  13.584
51734SOL    HW257100   2.387   2.415  13.539
51735SOL     OW57101  13.178   4.318   1.294
51735SOL    HW157102  13.205   4.228   1.273
51735SOL    HW257103  13.082   4.316   1.286
51736SOL     OW57104   0.174   6.890   3.104
51736SOL    HW157105   0.250   6.940   3.135
51736SOL    HW257106   0.178   6.897   3.009
51737SOL     OW57107  10.302   1.914   9.483
51737SOL    HW157108  10.295   1.956   9.398
51737SOL    HW257109  10.315   1.821   9.464
51738SOL     OW57110   8.689   7.477   9.319
51738SOL    HW157111   8.626   7.479   9.391
51738SOL    HW257112   8.774   7.467   9.362
51739SOL     OW57113  10.044   0.897  10.461
51739SOL    HW157114  10.026   0.872  10.551
51739SOL    HW257115   9.958   0.909  10.421
51740SOL     OW57116   7.241  13.543  10.879
51740SOL    HW157117   7.229  13.459  10.834
51740SOL    HW257118   7.230  13.522  10.972
51741SOL     OW57119   8.113  10.258   8.645
51741SOL    HW157120   8.052  10.323   8.608
51741SOL    HW257121   8.198  10.301   8.640
51742SOL     OW57122   8.843  14.109   9.915
51742SOL    HW157123   8.808  14.187   9.956
51742SOL    HW257124   8.929  14.136   9.882
51743SOL     OW57125   2.617  14.510  14.856
51743SOL    HW157126   2.605  14.416  14.864
51743SOL    HW257127   2.650  14.523  14.767
51744SOL     OW57128   3.053   4.839  13.559
51744SOL    HW157129   2.973   4.796  13.590
51744SOL    HW257130   3.107   4.850  13.637
51745SOL     OW57131   6.782   6.191   1.162
51745SOL    HW157132   6.737   6.263   1.207
51745SOL    HW257133   6.834   6.149   1.230
51746SOL     OW57134   8.426   5.836   0.743
51746SOL    HW157135   8.430   5.750   0.701
51746SOL    HW257136   8.343   5.873   0.713
51747SOL     OW57137  12.821  11.748   8.270
51747SOL    HW157138  12.843  11.835   8.305
51747SOL    HW257139  12.890  11.730   8.206
51748SOL     OW57140   3.805   1.342   4.856
51748SOL    HW157141   3.814   1.267   4.914
51748SOL    HW257142   3.711   1.363   4.858
51749SOL     OW57143  14.180   7.652   1.888
51749SOL    HW157144  14.131   7.569   1.885
51749SOL    HW257145  14.140   7.706   1.820
51750SOL     OW57146   4.591   4.248  11.915
51750SOL    HW157147   4.515   4.294  11.951
51750SOL    HW257148   4.575   4.156  11.936
51751SOL     OW57149   5.096  10.255  10.771
51751SOL    HW157150   5.128  10.230  10.685
51751SOL    HW257151   5.173  10.292  10.816
51752SOL     OW57152   8.296  11.476  12.481
51752SOL    HW157153   8.329  11.407  12.423
51752SOL    HW257154   8.372  11.502  12.533
51753SOL     OW57155  10.815  13.601   3.284
51753SOL    HW157156  10.733  13.649   3.272
51753SOL    HW257157  10.851  13.635   3.365
51754SOL     OW57158   5.883   8.166   4.088
51754SOL    HW157159   5.839   8.249   4.105
51754SOL    HW257160   5.821   8.115   4.037
51755SOL     OW57161   7.683   1.791   5.150
51755SOL    HW157162   7.690   1.818   5.241
51755SOL    HW257163   7.762   1.827   5.109
51756SOL     OW57164   2.304   8.669  12.802
51756SOL    HW157165   2.334   8.733  12.737
51756SOL    HW257166   2.220   8.638  12.769
51757SOL     OW57167   2.726   9.884   5.075
51757SOL    HW157168   2.710   9.896   5.168
51757SOL    HW257169   2.641   9.859   5.039
51758SOL     OW57170   0.483  13.242   0.010
51758SOL    HW157171   0.557  13.278   0.059
51758SOL    HW257172   0.409  13.248   0.071
51759SOL     OW57173   8.143   8.713   4.932
51759SOL    HW157174   8.186   8.660   4.999
51759SOL    HW257175   8.214   8.753   4.883
51760SOL     OW57176  12.712   7.257   4.382
51760SOL    HW157177  12.620   7.256   4.408
51760SOL    HW257178  12.756   7.307   4.451
51761SOL     OW57179   7.648   0.343   5.685
51761SOL    HW157180   7.715   0.357   5.618
51761SOL    HW257181   7.591   0.419   5.678
51762SOL     OW57182   2.251   8.269   3.070
51762SOL    HW157183   2.164   8.282   3.107
51762SOL    HW257184   2.277   8.181   3.099
51763SOL     OW57185   7.077   7.815  12.254
51763SOL    HW157186   7.017   7.815  12.180
51763SOL    HW257187   7.102   7.723  12.266
51764SOL     OW57188   9.505   7.459   0.285
51764SOL    HW157189   9.466   7.487   0.368
51764SOL    HW257190   9.443   7.490   0.219
51765SOL     OW57191  14.499   8.626   1.648
51765SOL    HW157192  14.584   8.632   1.604
51765SOL    HW257193  14.519   8.586   1.732
51766SOL     OW57194  11.103   5.655   8.351
51766SOL    HW157195  11.178   5.712   8.366
51766SOL    HW257196  11.070   5.634   8.439
51767SOL     OW57197  11.996   8.604   8.140
51767SOL    HW157198  11.919   8.659   8.130
51767SOL    HW257199  12.059   8.658   8.188
51768SOL     OW57200  12.729   1.748   3.805
51768SOL    HW157201  12.773   1.705   3.879
51768SOL    HW257202  12.788   1.818   3.779
51769SOL     OW57203  13.513  12.512   2.529
51769SOL    HW157204  13.570  12.489   2.455
51769SOL    HW257205  13.495  12.429   2.573
51770SOL     OW57206  14.243   2.039   3.897
51770SOL    HW157207  14.316   2.100   3.907
51770SOL    HW257208  14.199   2.040   3.982
51771SOL     OW57209   7.973   8.406   9.128
51771SOL    HW157210   7.976   8.342   9.199
51771SOL    HW257211   7.946   8.487   9.171
51772SOL     OW57212   2.840   9.640   3.377
51772SOL    HW157213   2.904   9.615   3.444
51772SOL    HW257214   2.853   9.577   3.307
51773SOL     OW57215  12.885   7.171   9.797
51773SOL    HW157216  12.939   7.232   9.848
51773SOL    HW257217  12.896   7.087   9.842
51774SOL     OW57218   6.706  12.785  12.652
51774SOL    HW157219   6.766  12.714  12.676
51774SOL    HW257220   6.752  12.865  12.680
51775SOL     OW57221   6.924  10.694  11.793
51775SOL    HW157222   6.966  10.612  11.767
51775SOL    HW257223   6.973  10.762  11.747
51776SOL     OW57224   6.873   8.833  12.229
51776SOL    HW157225   6.897   8.748  12.192
51776SOL    HW257226   6.826   8.812  12.310
51777SOL     OW57227   7.424  10.581   8.189
51777SOL    HW157228   7.460  10.662   8.154
51777SOL    HW257229   7.334  10.579   8.156
51778SOL     OW57230  13.019   2.415   1.603
51778SOL    HW157231  13.004   2.474   1.529
51778SOL    HW257232  13.051   2.334   1.562
51779SOL     OW57233   5.542   0.367   7.209
51779SOL    HW157234   5.479   0.312   7.164
51779SOL    HW257235   5.624   0.318   7.205
51780SOL     OW57236   9.120  10.153   7.860
51780SOL    HW157237   9.212  10.131   7.871
51780SOL    HW257238   9.080  10.072   7.828
51781SOL     OW57239   9.849   2.210   8.674
51781SOL    HW157240   9.785   2.188   8.606
51781SOL    HW257241   9.918   2.145   8.664
51782SOL     OW57242   5.794   7.581  11.762
51782SOL    HW157243   5.802   7.529  11.841
51782SOL    HW257244   5.833   7.666  11.785
51783SOL     OW57245   9.697   1.656   3.049
51783SOL    HW157246   9.624   1.652   2.987
51783SOL    HW257247   9.654   1.658   3.135
51784SOL     OW57248  10.396   6.922   4.930
51784SOL    HW157249  10.304   6.922   4.903
51784SOL    HW257250  10.440   6.977   4.864
51785SOL     OW57251  10.606   7.112   1.857
51785SOL    HW157252  10.661   7.174   1.810
51785SOL    HW257253  10.668   7.051   1.898
51786SOL     OW57254   4.482   8.350   6.918
51786SOL    HW157255   4.445   8.400   6.991
51786SOL    HW257256   4.413   8.347   6.852
51787SOL     OW57257   0.140   9.269   4.242
51787SOL    HW157258   0.225   9.298   4.209
51787SOL    HW257259   0.084   9.346   4.233
51788SOL     OW57260  10.850   8.092   8.036
51788SOL    HW157261  10.829   8.128   8.122
51788SOL    HW257262  10.918   8.028   8.052
51789SOL     OW57263  11.863  10.602   0.325
51789SOL    HW157264  11.899  10.641   0.245
51789SOL    HW257265  11.905  10.516   0.331
51790SOL     OW57266   6.592   7.986   9.102
51790SOL    HW157267   6.597   7.974   9.197
51790SOL    HW257268   6.555   8.074   9.091
51791SOL     OW57269   2.535   5.852   7.545
51791SOL    HW157270   2.620   5.892   7.563
51791SOL    HW257271   2.547   5.807   7.462
51792SOL     OW57272   4.058   1.402   9.668
51792SOL    HW157273   4.029   1.475   9.723
51792SOL    HW257274   4.009   1.326   9.701
51793SOL     OW57275   6.368   3.514  11.335
51793SOL    HW157276   6.390   3.530  11.243
51793SOL    HW257277   6.316   3.434  11.334
51794SOL     OW57278   1.467   8.935  10.380
51794SOL    HW157279   1.466   8.885  10.298
51794SOL    HW257280   1.376   8.962  10.392
51795SOL     OW57281   6.957  11.230  11.446
51795SOL    HW157282   6.921  11.274  11.524
51795SOL    HW257283   7.047  11.210  11.469
51796SOL     OW57284   8.620  14.221   8.787
51796SOL    HW157285   8.567  14.188   8.714
51796SOL    HW257286   8.703  14.246   8.747
51797SOL     OW57287   5.776  13.215   3.124
51797SOL    HW157288   5.683  13.204   3.101
51797SOL    HW257289   5.777  13.283   3.190
51798SOL     OW57290   7.811   2.011  13.266
51798SOL    HW157291   7.841   2.078  13.205
51798SOL    HW257292   7.803   1.932  13.212
51799SOL     OW57293   7.286   5.222  11.596
51799SOL    HW157294   7.220   5.289  11.615
51799SOL    HW257295   7.322   5.199  11.682
51800SOL     OW57296   2.695   6.967  12.670
51800SOL    HW157297   2.768   6.919  12.709
51800SOL    HW257298   2.707   6.956  12.576
51801SOL     OW57299   2.230   9.340  12.200
51801SOL    HW157300   2.270   9.301  12.278
51801SOL    HW257301   2.187   9.266  12.156
51802SOL     OW57302   5.823   1.701   9.005
51802SOL    HW157303   5.769   1.779   8.990
51802SOL    HW257304   5.844   1.670   8.917
51803SOL     OW57305   4.019   7.220   0.471
51803SOL    HW157306   4.108   7.253   0.457
51803SOL    HW257307   4.030   7.126   0.486
51804SOL     OW57308   0.196  13.566   1.977
51804SOL    HW157309   0.125  13.569   1.913
51804SOL    HW257310   0.152  13.545   2.060
51805SOL     OW57311   6.147   2.499   4.726
51805SOL    HW157312   6.163   2.405   4.711
51805SOL    HW257313   6.127   2.534   4.640
51806SOL     OW57314  13.531   4.466  11.487
51806SOL    HW157315  13.506   4.538  11.546
51806SOL    HW257316  13.506   4.387  11.534
51807SOL     OW57317  14.717   0.730  11.748
51807SOL    HW157318  14.707   0.749  11.841
51807SOL    HW257319  14.695   0.811  11.703
51808SOL     OW57320  14.516   1.047   2.057
51808SOL    HW157321  14.499   1.141   2.072
51808SOL    HW257322  14.429   1.007   2.061
51809SOL     OW57323   6.886   6.125   3.227
51809SOL    HW157324   6.958   6.188   3.220
51809SOL    HW257325   6.811   6.172   3.190
51810SOL     OW57326   4.778   1.667  11.821
51810SOL    HW157327   4.754   1.661  11.728
51810SOL    HW257328   4.696   1.651  11.868
51811SOL     OW57329  10.768  11.570   5.135
51811SOL    HW157330  10.677  11.549   5.113
51811SOL    HW257331  10.818  11.533   5.062
51812SOL     OW57332  10.522  12.885  14.016
51812SOL    HW157333  10.519  12.964  14.071
51812SOL    HW257334  10.494  12.815  14.074
51813SOL     OW57335   1.598   7.801  14.158
51813SOL    HW157336   1.656   7.865  14.200
51813SOL    HW257337   1.620   7.717  14.200
51814SOL     OW57338  12.041   0.944   9.312
51814SOL    HW157339  11.983   1.011   9.349
51814SOL    HW257340  12.013   0.862   9.353
51815SOL     OW57341  11.913   0.551   4.442
51815SOL    HW157342  11.872   0.528   4.525
51815SOL    HW257343  11.854   0.515   4.375
51816SOL     OW57344  12.074   0.509   7.699
51816SOL    HW157345  12.017   0.532   7.772
51816SOL    HW257346  12.019   0.518   7.621
51817SOL     OW57347  11.658   6.946  10.710
51817SOL    HW157348  11.601   7.021  10.730
51817SOL    HW257349  11.746   6.976  10.735
51818SOL     OW57350  13.937  10.336   1.863
51818SOL    HW157351  13.876  10.267   1.835
51818SOL    HW257352  13.995  10.292   1.925
51819SOL     OW57353   4.195   2.331  14.841
51819SOL    HW157354   4.111   2.373  14.821
51819SOL    HW257355   4.188   2.244  14.802
51820SOL     OW57356  13.192  14.061  10.167
51820SOL    HW157357  13.256  14.005  10.124
51820SOL    HW257358  13.223  14.066  10.258
51821SOL     OW57359   2.839   0.507   4.191
51821SOL    HW157360   2.772   0.509   4.123
51821SOL    HW257361   2.789   0.506   4.273
51822SOL     OW57362   5.880   6.014   6.310
51822SOL    HW157363   5.921   6.100   6.317
51822SOL    HW257364   5.874   5.983   6.400
51823SOL     OW57365  13.213   5.944   9.846
51823SOL    HW157366  13.287   5.914   9.899
51823SOL    HW257367  13.194   5.870   9.787
51824SOL     OW57368   2.546   0.302  12.706
51824SOL    HW157369   2.528   0.215  12.740
51824SOL    HW257370   2.633   0.295  12.666
51825SOL     OW57371   3.792   6.421   5.698
51825SOL    HW157372   3.717   6.437   5.640
51825SOL    HW257373   3.854   6.490   5.676
51826SOL     OW57374   4.662  11.904   8.684
51826SOL    HW157375   4.617  11.828   8.648
51826SOL    HW257376   4.599  11.945   8.743
51827SOL     OW57377  11.624   6.657   5.481
51827SOL    HW157378  11.550   6.624   5.431
51827SOL    HW257379  11.589   6.676   5.568
51828SOL     OW57380   8.455   0.525  13.366
51828SOL    HW157381   8.520   0.594  13.373
51828SOL    HW257382   8.375   0.570  13.339
51829SOL     OW57383  11.483   6.142   3.744
51829SOL    HW157384  11.472   6.177   3.832
51829SOL    HW257385  11.414   6.076   3.736
51830SOL     OW57386   4.339   2.327   4.305
51830SOL    HW157387   4.319   2.352   4.395
51830SOL    HW257388   4.350   2.410   4.258
51831SOL     OW57389   3.457  13.874   8.242
51831SOL    HW157390   3.379  13.930   8.244
51831SOL    HW257391   3.506  13.903   8.166
51832SOL     OW57392   6.920   5.710  13.138
51832SOL    HW157393   7.007   5.715  13.101
51832SOL    HW257394   6.929   5.747  13.226
51833SOL     OW57395   2.751   9.564   6.412
51833SOL    HW157396   2.661   9.532   6.420
51833SOL    HW257397   2.754   9.640   6.470
51834SOL     OW57398   1.165   5.165   6.857
51834SOL    HW157399   1.116   5.133   6.781
51834SOL    HW257400   1.185   5.086   6.907
51835SOL     OW57401   6.091  12.517  13.464
51835SOL    HW157402   6.161  12.451  13.463
51835SOL    HW257403   6.094  12.556  13.377
51836SOL     OW57404  14.084   5.494   4.170
51836SOL    HW157405  14.116   5.420   4.223
51836SOL    HW257406  13.993   5.471   4.150
51837SOL     OW57407   5.325   4.551  14.209
51837SOL    HW157408   5.305   4.482  14.273
51837SOL    HW257409   5.374   4.616  14.259
51838SOL     OW57410   7.025  10.316  11.357
51838SOL    HW157411   7.008  10.222  11.368
51838SOL    HW257412   7.043  10.348  11.445
51839SOL     OW57413  14.017   9.383   0.074
51839SOL    HW157414  14.038   9.311   0.133
51839SOL    HW257415  13.939   9.353   0.027
51840SOL     OW57416   4.832   1.020   3.755
51840SOL    HW157417   4.801   1.078   3.686
51840SOL    HW257418   4.913   0.983   3.719
51841SOL     OW57419  10.777  13.071   9.478
51841SOL    HW157420  10.744  12.984   9.456
51841SOL    HW257421  10.809  13.063   9.568
51842SOL     OW57422   8.453  14.645  13.359
51842SOL    HW157423   8.428  14.564  13.403
51842SOL    HW257424   8.371  14.691  13.344
51843SOL     OW57425   1.585  14.423   8.608
51843SOL    HW157426   1.539  14.358   8.554
51843SOL    HW257427   1.678  14.408   8.589
51844SOL     OW57428   7.244   4.922  10.690
51844SOL    HW157429   7.207   4.935  10.777
51844SOL    HW257430   7.337   4.944  10.700
51845SOL     OW57431   8.310   2.969   7.539
51845SOL    HW157432   8.228   2.925   7.515
51845SOL    HW257433   8.374   2.936   7.476
51846SOL     OW57434   0.568   4.947   0.563
51846SOL    HW157435   0.627   4.925   0.490
51846SOL    HW257436   0.625   4.989   0.627
51847SOL     OW57437  10.936   3.997   0.752
51847SOL    HW157438  10.864   4.039   0.705
51847SOL    HW257439  10.976   4.067   0.803
51848SOL     OW57440   2.615   7.328   3.687
51848SOL    HW157441   2.528   7.323   3.726
51848SOL    HW257442   2.637   7.238   3.664
51849SOL     OW57443   0.525   4.363   6.446
51849SOL    HW157444   0.524   4.268   6.432
51849SOL    HW257445   0.433   4.388   6.445
51850SOL     OW57446  11.352   0.296   9.551
51850SOL    HW157447  11.388   0.211   9.524
51850SOL    HW257448  11.359   0.294   9.647
51851SOL     OW57449   4.666   7.570   9.717
51851SOL    HW157450   4.625   7.536   9.797
51851SOL    HW257451   4.650   7.664   9.720
51852SOL     OW57452  12.655   5.094   8.496
51852SOL    HW157453  12.696   5.008   8.508
51852SOL    HW257454  12.718   5.143   8.443
51853SOL     OW57455   4.444  10.934   8.549
51853SOL    HW157456   4.463  10.974   8.633
51853SOL    HW257457   4.431  10.841   8.568
51854SOL     OW57458   2.180   5.896   4.245
51854SOL    HW157459   2.130   5.977   4.235
51854SOL    HW257460   2.121   5.827   4.213
51855SOL     OW57461   8.521  14.855   4.338
51855SOL    HW157462   8.512  14.787   4.404
51855SOL    HW257463   8.596   0.032   4.367
51856SOL     OW57464   6.267  12.096  13.263
51856SOL    HW157465   6.245  12.151  13.188
51856SOL    HW257466   6.264  12.155  13.338
51857SOL     OW57467   2.254  14.182   4.554
51857SOL    HW157468   2.317  14.210   4.488
51857SOL    HW257469   2.253  14.254   4.618
51858SOL     OW57470   3.801  10.463   7.300
51858SOL    HW157471   3.847  10.419   7.229
51858SOL    HW257472   3.867  10.476   7.367
51859SOL     OW57473   2.795  11.106   4.152
51859SOL    HW157474   2.860  11.122   4.220
51859SOL    HW257475   2.834  11.038   4.097
51860SOL     OW57476   0.506   2.104   0.633
51860SOL    HW157477   0.444   2.171   0.605
51860SOL    HW257478   0.453   2.025   0.642
51861SOL     OW57479   8.907   8.511  10.335
51861SOL    HW157480   8.932   8.496  10.427
51861SOL    HW257481   8.965   8.580  10.306
51862SOL     OW57482   6.419  10.028  13.665
51862SOL    HW157483   6.432  10.024  13.760
51862SOL    HW257484   6.502  10.063  13.631
51863SOL     OW57485  11.701   4.537   9.469
51863SOL    HW157486  11.673   4.584   9.390
51863SOL    HW257487  11.623   4.538   9.526
51864SOL     OW57488   2.463  13.983   0.314
51864SOL    HW157489   2.520  13.918   0.355
51864SOL    HW257490   2.520  14.059   0.300
51865SOL     OW57491   6.065  12.061   6.990
51865SOL    HW157492   6.154  12.032   6.972
51865SOL    HW257493   6.009  11.994   6.950
51866SOL     OW57494   3.527   3.976   6.817
51866SOL    HW157495   3.473   4.002   6.892
51866SOL    HW257496   3.611   3.950   6.856
51867SOL     OW57497   5.106   3.545   0.662
51867SOL    HW157498   5.112   3.596   0.581
51867SOL    HW257499   5.016   3.558   0.692
51868SOL     OW57500   1.809   9.137   8.149
51868SOL    HW157501   1.854   9.215   8.184
51868SOL    HW257502   1.867   9.064   8.172
51869SOL     OW57503   3.056   0.502   1.063
51869SOL    HW157504   3.091   0.428   1.112
51869SOL    HW257505   3.132   0.559   1.050
51870SOL     OW57506   7.651  10.931  10.114
51870SOL    HW157507   7.743  10.945  10.091
51870SOL    HW257508   7.615  10.883  10.039
51871SOL     OW57509   0.851  11.925  14.678
51871SOL    HW157510   0.899  12.007  14.668
51871SOL    HW257511   0.824  11.903  14.588
51872SOL     OW57512   2.761   0.717  13.814
51872SOL    HW157513   2.766   0.642  13.755
51872SOL    HW257514   2.677   0.758  13.795
51873SOL     OW57515   5.491   2.068   2.066
51873SOL    HW157516   5.428   2.029   2.126
51873SOL    HW257517   5.467   2.161   2.063
51874SOL     OW57518   2.195   5.550  11.622
51874SOL    HW157519   2.166   5.504  11.701
51874SOL    HW257520   2.140   5.515  11.552
51875SOL     OW57521   4.997   3.258   8.336
51875SOL    HW157522   5.028   3.304   8.414
51875SOL    HW257523   5.065   3.194   8.316
51876SOL     OW57524   5.224   1.068   5.767
51876SOL    HW157525   5.280   1.146   5.763
51876SOL    HW257526   5.251   1.015   5.692
51877SOL     OW57527  13.504   1.254   7.084
51877SOL    HW157528  13.534   1.242   7.174
51877SOL    HW257529  13.481   1.166   7.055
51878SOL     OW57530   5.162   6.465  12.937
51878SOL    HW157531   5.163   6.513  13.020
51878SOL    HW257532   5.101   6.513  12.882
51879SOL     OW57533   9.547   8.404  13.139
51879SOL    HW157534   9.584   8.341  13.077
51879SOL    HW257535   9.481   8.452  13.088
51880SOL     OW57536   0.827  13.591  14.420
51880SOL    HW157537   0.740  13.630  14.425
51880SOL    HW257538   0.877  13.633  14.491
51881SOL     OW57539  11.702  14.117  13.817
51881SOL    HW157540  11.701  14.175  13.741
51881SOL    HW257541  11.641  14.047  13.795
51882SOL     OW57542   0.550  12.724   2.743
51882SOL    HW157543   0.491  12.756   2.676
51882SOL    HW257544   0.565  12.798   2.801
51883SOL     OW57545   4.201  11.546   0.702
51883SOL    HW157546   4.106  11.539   0.703
51883SOL    HW257547   4.219  11.638   0.685
51884SOL     OW57548   3.985  11.554   4.205
51884SOL    HW157549   3.964  11.647   4.213
51884SOL    HW257550   3.908  11.515   4.165
51885SOL     OW57551   4.581   0.788  10.662
51885SOL    HW157552   4.528   0.851  10.711
51885SOL    HW257553   4.662   0.781  10.712
51886SOL     OW57554   5.256  13.907   1.128
51886SOL    HW157555   5.329  13.933   1.184
51886SOL    HW257556   5.204  13.987   1.118
51887SOL     OW57557   4.686   2.664   5.387
51887SOL    HW157558   4.744   2.737   5.364
51887SOL    HW257559   4.746   2.593   5.410
51888SOL     OW57560   6.654   8.273   9.389
51888SOL    HW157561   6.728   8.300   9.444
51888SOL    HW257562   6.657   8.333   9.315
51889SOL     OW57563   0.850   6.247   7.240
51889SOL    HW157564   0.878   6.319   7.296
51889SOL    HW257565   0.868   6.168   7.291
51890SOL     OW57566  12.537   4.325   8.316
51890SOL    HW157567  12.454   4.301   8.358
51890SOL    HW257568  12.557   4.250   8.259
51891SOL     OW57569  13.614   6.204  13.960
51891SOL    HW157570  13.585   6.260  13.887
51891SOL    HW257571  13.602   6.115  13.928
51892SOL     OW57572   3.653   8.802  11.771
51892SOL    HW157573   3.746   8.822  11.759
51892SOL    HW257574   3.617   8.803  11.682
51893SOL     OW57575   9.640   6.241   2.630
51893SOL    HW157576   9.646   6.193   2.713
51893SOL    HW257577   9.563   6.204   2.586
51894SOL     OW57578  11.849  10.301  11.130
51894SOL    HW157579  11.766  10.278  11.087
51894SOL    HW257580  11.850  10.397  11.130
51895SOL     OW57581   2.364   3.570  13.743
51895SOL    HW157582   2.375   3.475  13.753
51895SOL    HW257583   2.278   3.580  13.703
51896SOL     OW57584  10.374   6.254  11.708
51896SOL    HW157585  10.281   6.229  11.707
51896SOL    HW257586  10.413   6.200  11.776
51897SOL     OW57587  11.608   2.659   9.076
51897SOL    HW157588  11.524   2.625   9.047
51897SOL    HW257589  11.666   2.648   9.000
51898SOL     OW57590  12.065  10.091  11.703
51898SOL    HW157591  12.059  10.062  11.794
51898SOL    HW257592  11.986  10.055  11.661
51899SOL     OW57593   6.010  11.667   4.726
51899SOL    HW157594   6.066  11.637   4.654
51899SOL    HW257595   6.070  11.675   4.800
51900SOL     OW57596   0.598   3.762   7.946
51900SOL    HW157597   0.643   3.687   7.908
51900SOL    HW257598   0.507   3.753   7.918
51901SOL     OW57599   9.103   7.171   5.139
51901SOL    HW157600   9.190   7.196   5.108
51901SOL    HW257601   9.055   7.254   5.144
51902SOL     OW57602   6.971   6.496   0.272
51902SOL    HW157603   6.939   6.587   0.274
51902SOL    HW257604   6.894   6.443   0.293
51903SOL     OW57605  12.614  11.595   0.685
51903SOL    HW157606  12.614  11.631   0.774
51903SOL    HW257607  12.556  11.519   0.690
51904SOL     OW57608  14.281  11.366   2.976
51904SOL    HW157609  14.363  11.410   2.998
51904SOL    HW257610  14.217  11.436   2.969
51905SOL     OW57611   6.921   0.738  12.471
51905SOL    HW157612   6.991   0.710  12.411
51905SOL    HW257613   6.967   0.783  12.542
51906SOL     OW57614  12.420  10.253  13.532
51906SOL    HW157615  12.347  10.300  13.491
51906SOL    HW257616  12.498  10.302  13.506
51907SOL     OW57617   5.337  13.037  12.730
51907SOL    HW157618   5.420  13.080  12.710
51907SOL    HW257619   5.331  12.965  12.668
51908SOL     OW57620  10.032  11.079  10.863
51908SOL    HW157621  10.003  11.169  10.847
51908SOL    HW257622   9.995  11.056  10.948
51909SOL     OW57623   2.174  14.683  10.754
51909SOL    HW157624   2.109  14.752  10.766
51909SOL    HW257625   2.258  14.728  10.756
51910SOL     OW57626   0.810   0.392  12.642
51910SOL    HW157627   0.902   0.387  12.670
51910SOL    HW257628   0.783   0.300  12.632
51911SOL     OW57629  12.907   4.176   8.142
51911SOL    HW157630  12.924   4.138   8.055
51911SOL    HW257631  12.826   4.134   8.171
51912SOL     OW57632   2.887   1.659   5.631
51912SOL    HW157633   2.817   1.677   5.693
51912SOL    HW257634   2.862   1.706   5.552
51913SOL     OW57635   3.938   5.681  11.394
51913SOL    HW157636   3.952   5.688  11.488
51913SOL    HW257637   3.863   5.623  11.384
51914SOL     OW57638   0.353   2.790   6.989
51914SOL    HW157639   0.440   2.787   7.029
51914SOL    HW257640   0.317   2.874   7.016
51915SOL     OW57641  13.252   1.860   7.074
51915SOL    HW157642  13.214   1.782   7.114
51915SOL    HW257643  13.340   1.833   7.047
51916SOL     OW57644   4.549   8.860   7.995
51916SOL    HW157645   4.563   8.919   8.070
51916SOL    HW257646   4.595   8.903   7.923
51917SOL     OW57647   8.247  10.542  10.394
51917SOL    HW157648   8.188  10.605  10.352
51917SOL    HW257649   8.331  10.556  10.352
51918SOL     OW57650  12.966   4.560   2.429
51918SOL    HW157651  13.027   4.632   2.415
51918SOL    HW257652  12.975   4.506   2.350
51919SOL     OW57653  13.689   0.838   5.838
51919SOL    HW157654  13.655   0.780   5.907
51919SOL    HW257655  13.771   0.798   5.811
51920SOL     OW57656   5.698   5.509  12.278
51920SOL    HW157657   5.756   5.440  12.311
51920SOL    HW257658   5.629   5.463  12.231
51921SOL     OW57659   9.343   1.001   8.429
51921SOL    HW157660   9.301   1.078   8.390
51921SOL    HW257661   9.409   1.037   8.489
51922SOL     OW57662   3.854  10.507   5.235
51922SOL    HW157663   3.841  10.515   5.329
51922SOL    HW257664   3.778  10.550   5.196
51923SOL     OW57665   5.064   7.578   4.380
51923SOL    HW157666   5.138   7.519   4.367
51923SOL    HW257667   4.996   7.523   4.419
51924SOL     OW57668   1.416   5.410   8.431
51924SOL    HW157669   1.385   5.499   8.443
51924SOL    HW257670   1.511   5.415   8.443
51925SOL     OW57671   5.379   8.160   6.997
51925SOL    HW157672   5.376   8.221   6.923
51925SOL    HW257673   5.444   8.095   6.971
51926SOL     OW57674  10.550   3.278   3.641
51926SOL    HW157675  10.620   3.245   3.697
51926SOL    HW257676  10.525   3.362   3.681
51927SOL     OW57677   3.465   3.462   2.892
51927SOL    HW157678   3.553   3.452   2.855
51927SOL    HW257679   3.407   3.455   2.817
51928SOL     OW57680  12.159   5.320   9.516
51928SOL    HW157681  12.216   5.315   9.592
51928SOL    HW257682  12.134   5.413   9.511
51929SOL     OW57683   9.010  10.517  10.924
51929SOL    HW157684   8.989  10.529  10.832
51929SOL    HW257685   8.926  10.527  10.970
51930SOL     OW57686  13.323   2.924  11.914
51930SOL    HW157687  13.236   2.909  11.952
51930SOL    HW257688  13.306   2.958  11.827
51931SOL     OW57689   2.580   5.341   0.346
51931SOL    HW157690   2.654   5.297   0.306
51931SOL    HW257691   2.537   5.386   0.274
51932SOL     OW57692   8.505   8.977   4.417
51932SOL    HW157693   8.428   9.028   4.442
51932SOL    HW257694   8.555   9.035   4.360
51933SOL     OW57695  14.619   4.018   0.454
51933SOL    HW157696  14.678   4.089   0.478
51933SOL    HW257697  14.659   3.979   0.376
51934SOL     OW57698   9.149  14.380   9.034
51934SOL    HW157699   9.083  14.450   9.035
51934SOL    HW257700   9.148  14.349   8.943
51935SOL     OW57701   6.668   4.432   6.465
51935SOL    HW157702   6.740   4.376   6.437
51935SOL    HW257703   6.590   4.377   6.458
51936SOL     OW57704   3.381  11.640  11.293
51936SOL    HW157705   3.448  11.621  11.226
51936SOL    HW257706   3.404  11.584  11.367
51937SOL     OW57707   5.527   8.103  13.631
51937SOL    HW157708   5.439   8.065  13.625
51937SOL    HW257709   5.566   8.061  13.707
51938SOL     OW57710   6.411   9.976   7.478
51938SOL    HW157711   6.421   9.907   7.412
51938SOL    HW257712   6.343   9.943   7.537
51939SOL     OW57713   7.205   0.188   9.437
51939SOL    HW157714   7.224   0.095   9.450
51939SOL    HW257715   7.172   0.217   9.522
51940SOL     OW57716   9.998   8.432  13.728
51940SOL    HW157717  10.073   8.397  13.680
51940SOL    HW257718  10.026   8.432  13.819
51941SOL     OW57719  10.121  13.561  14.440
51941SOL    HW157720  10.137  13.473  14.406
51941SOL    HW257721  10.056  13.598  14.379
51942SOL     OW57722   9.437   5.493  12.728
51942SOL    HW157723   9.441   5.444  12.647
51942SOL    HW257724   9.426   5.427  12.796
51943SOL     OW57725   2.262   7.847  12.106
51943SOL    HW157726   2.307   7.828  12.024
51943SOL    HW257727   2.187   7.787  12.106
51944SOL     OW57728  13.455   5.633   4.194
51944SOL    HW157729  13.444   5.539   4.181
51944SOL    HW257730  13.549   5.645   4.201
51945SOL     OW57731   4.937  11.335   9.801
51945SOL    HW157732   4.985  11.283   9.736
51945SOL    HW257733   4.915  11.416   9.756
51946SOL     OW57734  11.220   2.336   7.711
51946SOL    HW157735  11.236   2.362   7.620
51946SOL    HW257736  11.244   2.243   7.714
51947SOL     OW57737   9.958  11.054   8.246
51947SOL    HW157738   9.894  10.983   8.242
51947SOL    HW257739   9.906  11.134   8.244
51948SOL     OW57740   8.174   0.041   1.378
51948SOL    HW157741   8.238  14.847   1.362
51948SOL    HW257742   8.129   0.053   1.295
51949SOL     OW57743   5.104  10.288  11.742
51949SOL    HW157744   5.124  10.333  11.660
51949SOL    HW257745   5.079  10.358  11.803
51950SOL     OW57746   3.366   1.603   5.962
51950SOL    HW157747   3.331   1.540   6.026
51950SOL    HW257748   3.461   1.588   5.963
51951SOL     OW57749   1.705  11.521  11.563
51951SOL    HW157750   1.726  11.439  11.609
51951SOL    HW257751   1.639  11.496  11.499
51952SOL     OW57752  10.124  13.077  13.976
51952SOL    HW157753  10.168  13.135  13.914
51952SOL    HW257754  10.163  12.991  13.961
51953SOL     OW57755   5.614   9.476  10.887
51953SOL    HW157756   5.526   9.507  10.909
51953SOL    HW257757   5.664   9.556  10.870
51954SOL     OW57758   0.097  11.360  12.651
51954SOL    HW157759   0.011  11.364  12.692
51954SOL    HW257760   0.159  11.374  12.722
51955SOL     OW57761   5.915  11.702   3.563
51955SOL    HW157762   5.843  11.741   3.613
51955SOL    HW257763   5.911  11.609   3.583
51956SOL     OW57764   1.118   2.703   6.596
51956SOL    HW157765   1.199   2.731   6.639
51956SOL    HW257766   1.134   2.717   6.503
51957SOL     OW57767   9.060   1.227  14.560
51957SOL    HW157768   9.089   1.139  14.584
51957SOL    HW257769   9.003   1.214  14.484
51958SOL     OW57770   2.155   4.634  12.610
51958SOL    HW157771   2.156   4.704  12.545
51958SOL    HW257772   2.247   4.617  12.628
51959SOL     OW57773  13.076   7.733   2.771
51959SOL    HW157774  13.167   7.720   2.797
51959SOL    HW257775  13.066   7.681   2.692
51960SOL     OW57776   9.379   1.591  13.135
51960SOL    HW157777   9.473   1.598  13.118
51960SOL    HW257778   9.353   1.680  13.158
51961SOL     OW57779   2.798   1.032   5.890
51961SOL    HW157780   2.836   1.103   5.839
51961SOL    HW257781   2.707   1.057   5.904
51962SOL     OW57782  10.971  11.637   8.919
51962SOL    HW157783  10.942  11.728   8.917
51962SOL    HW257784  10.984  11.618   9.012
51963SOL     OW57785  14.516   1.734  13.040
51963SOL    HW157786  14.466   1.802  12.993
51963SOL    HW257787  14.596   1.778  13.067
51964SOL     OW57788   6.472   5.304  11.709
51964SOL    HW157789   6.473   5.368  11.780
51964SOL    HW257790   6.498   5.222  11.749
51965SOL     OW57791   6.902   9.887  13.049
51965SOL    HW157792   6.830   9.888  12.986
51965SOL    HW257793   6.867   9.932  13.126
51966SOL     OW57794   2.255   8.694  10.867
51966SOL    HW157795   2.271   8.709  10.960
51966SOL    HW257796   2.241   8.781  10.830
51967SOL     OW57797   8.251   0.178  12.408
51967SOL    HW157798   8.173   0.234  12.408
51967SOL    HW257799   8.323   0.237  12.426
51968SOL     OW57800  10.254   1.242   6.311
51968SOL    HW157801  10.331   1.195   6.277
51968SOL    HW257802  10.214   1.282   6.234
51969SOL     OW57803   6.207   1.935   8.610
51969SOL    HW157804   6.279   1.987   8.575
51969SOL    HW257805   6.155   1.912   8.533
51970SOL     OW57806  11.284   5.744   2.740
51970SOL    HW157807  11.224   5.738   2.814
51970SOL    HW257808  11.259   5.825   2.695
51971SOL     OW57809   1.803   5.050  14.624
51971SOL    HW157810   1.829   4.982  14.686
51971SOL    HW257811   1.800   5.006  14.539
51972SOL     OW57812   8.853   6.798   4.014
51972SOL    HW157813   8.826   6.888   3.996
51972SOL    HW257814   8.903   6.772   3.937
51973SOL     OW57815  12.739   7.168  12.186
51973SOL    HW157816  12.806   7.157  12.119
51973SOL    HW257817  12.785   7.207  12.260
51974SOL     OW57818   6.439  10.214   8.423
51974SOL    HW157819   6.363  10.166   8.457
51974SOL    HW257820   6.426  10.303   8.453
51975SOL     OW57821   8.068  13.680  13.867
51975SOL    HW157822   8.080  13.649  13.957
51975SOL    HW257823   8.064  13.775  13.874
51976SOL     OW57824   0.755   5.510  11.665
51976SOL    HW157825   0.712   5.479  11.585
51976SOL    HW257826   0.698   5.579  11.698
51977SOL     OW57827  11.012   1.438   9.030
51977SOL    HW157828  10.928   1.425   9.075
51977SOL    HW257829  11.005   1.385   8.950
51978SOL     OW57830   6.641  13.607   1.505
51978SOL    HW157831   6.703  13.672   1.538
51978SOL    HW257832   6.569  13.658   1.469
51979SOL     OW57833   6.534   1.677  12.327
51979SOL    HW157834   6.449   1.717  12.344
51979SOL    HW257835   6.581   1.682  12.410
51980SOL     OW57836   4.851  13.207  13.221
51980SOL    HW157837   4.935  13.168  13.196
51980SOL    HW257838   4.808  13.139  13.274
51981SOL     OW57839   6.507   0.491  10.984
51981SOL    HW157840   6.413   0.497  10.995
51981SOL    HW257841   6.522   0.402  10.953
51982SOL     OW57842   1.986  14.313  13.948
51982SOL    HW157843   1.980  14.220  13.970
51982SOL    HW257844   1.905  14.351  13.982
51983SOL     OW57845   8.649  13.678   4.318
51983SOL    HW157846   8.624  13.768   4.336
51983SOL    HW257847   8.723  13.662   4.377
51984SOL     OW57848  10.466  12.112   0.917
51984SOL    HW157849  10.492  12.191   0.964
51984SOL    HW257850  10.495  12.040   0.974
51985SOL     OW57851   2.325   5.596   4.481
51985SOL    HW157852   2.359   5.682   4.505
51985SOL    HW257853   2.251   5.582   4.539
51986SOL     OW57854  11.555   4.572  14.570
51986SOL    HW157855  11.499   4.519  14.627
51986SOL    HW257856  11.636   4.585  14.620
51987SOL     OW57857   9.741   2.406   5.369
51987SOL    HW157858   9.655   2.439   5.345
51987SOL    HW257859   9.737   2.312   5.348
51988SOL     OW57860  11.225   9.725  12.311
51988SOL    HW157861  11.156   9.727  12.378
51988SOL    HW257862  11.290   9.788  12.341
51989SOL     OW57863   5.984  11.031   1.136
51989SOL    HW157864   5.894  11.025   1.103
51989SOL    HW257865   5.976  11.017   1.231
51990SOL     OW57866   4.469  14.004   6.085
51990SOL    HW157867   4.425  13.959   6.012
51990SOL    HW257868   4.551  13.957   6.097
51991SOL     OW57869  12.317   9.806   1.649
51991SOL    HW157870  12.276   9.846   1.726
51991SOL    HW257871  12.394   9.860   1.632
51992SOL     OW57872   8.952   2.899   2.317
51992SOL    HW157873   8.920   2.917   2.405
51992SOL    HW257874   8.895   2.829   2.284
51993SOL     OW57875   3.302   7.694   1.285
51993SOL    HW157876   3.271   7.604   1.286
51993SOL    HW257877   3.249   7.737   1.218
51994SOL     OW57878  11.002   8.251   5.913
51994SOL    HW157879  10.993   8.345   5.925
51994SOL    HW257880  11.032   8.241   5.822
51995SOL     OW57881  10.833   6.501   9.225
51995SOL    HW157882  10.846   6.546   9.309
51995SOL    HW257883  10.842   6.408   9.246
51996SOL     OW57884   7.596   6.617   2.575
51996SOL    HW157885   7.548   6.534   2.583
51996SOL    HW257886   7.684   6.591   2.549
51997SOL     OW57887   6.544   1.188  14.062
51997SOL    HW157888   6.632   1.223  14.073
51997SOL    HW257889   6.557   1.101  14.024
51998SOL     OW57890   8.898   5.783   8.608
51998SOL    HW157891   8.983   5.822   8.624
51998SOL    HW257892   8.918   5.694   8.580
51999SOL     OW57893   1.520   7.661   5.659
51999SOL    HW157894   1.505   7.671   5.565
51999SOL    HW257895   1.437   7.627   5.693
52000SOL     OW57896   1.170   0.860   0.768
52000SOL    HW157897   1.256   0.829   0.797
52000SOL    HW257898   1.137   0.913   0.840
52001SOL     OW57899   1.874   4.960   6.514
52001SOL    HW157900   1.805   4.896   6.497
52001SOL    HW257901   1.874   4.970   6.609
52002SOL     OW57902   3.722   2.059   0.624
52002SOL    HW157903   3.730   2.009   0.543
52002SOL    HW257904   3.812   2.080   0.649
52003SOL     OW57905   1.678  10.002  11.025
52003SOL    HW157906   1.651   9.979  11.114
52003SOL    HW257907   1.649   9.928  10.971
52004SOL     OW57908   3.181   9.098  10.636
52004SOL    HW157909   3.179   9.035  10.564
52004SOL    HW257910   3.105   9.076  10.689
52005SOL     OW57911   8.271  10.129   7.869
52005SOL    HW157912   8.336  10.196   7.889
52005SOL    HW257913   8.188  10.177   7.863
52006SOL     OW57914   7.494   3.775  10.858
52006SOL    HW157915   7.407   3.749  10.825
52006SOL    HW257916   7.538   3.692  10.874
52007SOL     OW57917   4.824   0.543   9.250
52007SOL    HW157918   4.810   0.630   9.289
52007SOL    HW257919   4.739   0.501   9.256
52008SOL     OW57920  10.076   2.141   2.861
52008SOL    HW157921  10.025   2.118   2.939
52008SOL    HW257922  10.132   2.213   2.889
52009SOL     OW57923   6.355  12.900   1.016
52009SOL    HW157924   6.296  12.849   0.960
52009SOL    HW257925   6.326  12.990   1.007
52010SOL     OW57926   0.209   0.622  10.069
52010SOL    HW157927   0.212   0.608   9.974
52010SOL    HW257928   0.116   0.618  10.091
52011SOL     OW57929   8.844   0.207   3.256
52011SOL    HW157930   8.881   0.226   3.170
52011SOL    HW257931   8.750   0.204   3.242
52012SOL     OW57932   5.818  10.409   6.804
52012SOL    HW157933   5.786  10.349   6.737
52012SOL    HW257934   5.764  10.487   6.796
52013SOL     OW57935   0.791  14.557  13.171
52013SOL    HW157936   0.725  14.589  13.232
52013SOL    HW257937   0.873  14.597  13.202
52014SOL     OW57938   7.826   0.415  13.117
52014SOL    HW157939   7.736   0.443  13.129
52014SOL    HW257940   7.847   0.364  13.196
52015SOL     OW57941   0.811  13.692   0.977
52015SOL    HW157942   0.730  13.679   0.928
52015SOL    HW257943   0.880  13.685   0.911
52016SOL     OW57944   2.370   6.222   1.310
52016SOL    HW157945   2.426   6.204   1.235
52016SOL    HW257946   2.420   6.284   1.364
52017SOL     OW57947  11.768  11.586   1.835
52017SOL    HW157948  11.752  11.677   1.810
52017SOL    HW257949  11.777  11.539   1.752
52018SOL     OW57950   5.052   6.270   8.168
52018SOL    HW157951   5.056   6.178   8.193
52018SOL    HW257952   4.993   6.310   8.232
52019SOL     OW57953   6.506   3.115  13.001
52019SOL    HW157954   6.434   3.091  12.942
52019SOL    HW257955   6.471   3.098  13.089
52020SOL     OW57956  13.121   2.342   5.463
52020SOL    HW157957  13.126   2.252   5.497
52020SOL    HW257958  13.030   2.354   5.438
52021SOL     OW57959   1.913   0.969  10.764
52021SOL    HW157960   1.830   1.008  10.792
52021SOL    HW257961   1.891   0.879  10.742
52022SOL     OW57962   6.589  14.165   4.514
52022SOL    HW157963   6.602  14.081   4.471
52022SOL    HW257964   6.579  14.143   4.607
52023SOL     OW57965   5.152   2.549   7.109
52023SOL    HW157966   5.217   2.547   7.179
52023SOL    HW257967   5.168   2.632   7.064
52024SOL     OW57968  11.430   9.541   4.832
52024SOL    HW157969  11.476   9.474   4.781
52024SOL    HW257970  11.381   9.491   4.898
52025SOL     OW57971   3.978   5.685   8.025
52025SOL    HW157972   3.982   5.682   8.121
52025SOL    HW257973   4.063   5.652   7.997
52026SOL     OW57974   0.285  10.249   8.363
52026SOL    HW157975   0.307  10.194   8.287
52026SOL    HW257976   0.195  10.277   8.347
52027SOL     OW57977  13.441   7.866  12.252
52027SOL    HW157978  13.404   7.897  12.334
52027SOL    HW257979  13.462   7.774  12.268
52028SOL     OW57980   5.046   4.582   0.855
52028SOL    HW157981   5.106   4.566   0.927
52028SOL    HW257982   5.007   4.668   0.874
52029SOL     OW57983   7.011  14.389   7.088
52029SOL    HW157984   7.052  14.393   7.174
52029SOL    HW257985   7.063  14.447   7.033
52030SOL     OW57986  12.954  14.416  14.652
52030SOL    HW157987  12.968  14.323  14.665
52030SOL    HW257988  12.874  14.422  14.601
52031SOL     OW57989   0.598   0.500  10.267
52031SOL    HW157990   0.557   0.420  10.299
52031SOL    HW257991   0.556   0.515  10.181
52032SOL     OW57992   0.957  11.507  10.144
52032SOL    HW157993   0.867  11.476  10.138
52032SOL    HW257994   0.990  11.470  10.226
52033SOL     OW57995  11.183   1.824   7.627
52033SOL    HW157996  11.186   1.862   7.540
52033SOL    HW257997  11.161   1.898   7.685
52034SOL     OW57998   1.236   1.238   1.323
52034SOL    HW157999   1.270   1.302   1.260
52034SOL    HW258000   1.149   1.271   1.345
52035SOL     OW58001   1.232   8.750  14.070
52035SOL    HW158002   1.235   8.845  14.072
52035SOL    HW258003   1.252   8.723  14.159
52036SOL     OW58004  14.213  13.072   8.875
52036SOL    HW158005  14.146  13.099   8.937
52036SOL    HW258006  14.269  13.150   8.865
52037SOL     OW58007  12.362  12.105   6.318
52037SOL    HW158008  12.293  12.162   6.353
52037SOL    HW258009  12.374  12.135   6.228
52038SOL     OW58010   7.677  11.486  12.829
52038SOL    HW158011   7.686  11.577  12.856
52038SOL    HW258012   7.631  11.444  12.902
52039SOL     OW58013   3.296   3.010  10.189
52039SOL    HW158014   3.366   3.058  10.145
52039SOL    HW258015   3.215   3.046  10.152
52040SOL     OW58016  14.645  14.014   2.443
52040SOL    HW158017  14.643  13.987   2.351
52040SOL    HW258018  14.715  13.962   2.482
52041SOL     OW58019   1.686   4.137   0.378
52041SOL    HW158020   1.750   4.067   0.368
52041SOL    HW258021   1.650   4.124   0.466
52042SOL     OW58022  14.243   2.375   1.457
52042SOL    HW158023  14.168   2.355   1.513
52042SOL    HW258024  14.224   2.462   1.422
52043SOL     OW58025  10.606   5.292  12.595
52043SOL    HW158026  10.590   5.280  12.688
52043SOL    HW258027  10.699   5.313  12.589
52044SOL     OW58028   5.967   5.719   6.554
52044SOL    HW158029   6.010   5.634   6.566
52044SOL    HW258030   5.976   5.762   6.639
52045SOL     OW58031   1.978   7.971  14.869
52045SOL    HW158032   1.947   7.948  14.781
52045SOL    HW258033   2.063   8.013  14.854
52046SOL     OW58034  14.623   6.140   0.837
52046SOL    HW158035  14.621   6.046   0.816
52046SOL    HW258036  14.704   6.171   0.797
52047SOL     OW58037   1.767   1.128  14.048
52047SOL    HW158038   1.747   1.155  14.138
52047SOL    HW258039   1.860   1.147  14.038
52048SOL     OW58040   3.280  10.330   8.998
52048SOL    HW158041   3.349  10.378   8.952
52048SOL    HW258042   3.307  10.238   8.992
52049SOL     OW58043  14.316   6.780   8.126
52049SOL    HW158044  14.374   6.730   8.184
52049SOL    HW258045  14.293   6.858   8.176
52050SOL     OW58046   5.256  14.599   1.884
52050SOL    HW158047   5.270  14.504   1.886
52050SOL    HW258048   5.211  14.619   1.966
52051SOL     OW58049  11.236   3.656   8.147
52051SOL    HW158050  11.240   3.589   8.079
52051SOL    HW258051  11.259   3.737   8.102
52052SOL     OW58052  14.591   5.944  13.830
52052SOL    HW158053  14.607   6.034  13.855
52052SOL    HW258054  14.510   5.920  13.876
52053SOL     OW58055   0.281   2.428   9.079
52053SOL    HW158056   0.208   2.383   9.036
52053SOL    HW258057   0.353   2.365   9.073
52054SOL     OW58058   5.951   6.207  11.622
52054SOL    HW158059   5.942   6.112  11.626
52054SOL    HW258060   6.039   6.224  11.656
52055SOL     OW58061  12.670  11.004   4.860
52055SOL    HW158062  12.617  11.008   4.940
52055SOL    HW258063  12.745  10.950   4.884
52056SOL     OW58064   6.097   7.315   8.581
52056SOL    HW158065   6.027   7.318   8.646
52056SOL    HW258066   6.058   7.353   8.502
52057SOL     OW58067  14.731  11.093  13.802
52057SOL    HW158068  14.672  11.025  13.834
52057SOL    HW258069  14.818  11.054  13.808
52058SOL     OW58070   0.560  13.839   9.914
52058SOL    HW158071   0.609  13.836   9.833
52058SOL    HW258072   0.477  13.795   9.894
52059SOL     OW58073   4.602  14.626   3.408
52059SOL    HW158074   4.575  14.545   3.451
52059SOL    HW258075   4.623  14.600   3.318
52060SOL     OW58076   5.033   2.550  10.279
52060SOL    HW158077   4.978   2.493  10.334
52060SOL    HW258078   5.082   2.489  10.223
52061SOL     OW58079   2.684   2.794   6.883
52061SOL    HW158080   2.748   2.789   6.812
52061SOL    HW258081   2.624   2.863   6.856
52062SOL     OW58082   3.128   6.018   9.822
52062SOL    HW158083   3.203   5.959   9.814
52062SOL    HW258084   3.069   5.973   9.883
52063SOL     OW58085   7.758   1.030   6.302
52063SOL    HW158086   7.776   0.936   6.294
52063SOL    HW258087   7.664   1.035   6.321
52064SOL     OW58088   2.419   8.691   2.793
52064SOL    HW158089   2.392   8.767   2.845
52064SOL    HW258090   2.441   8.625   2.859
52065SOL     OW58091  14.833   4.649   6.041
52065SOL    HW158092  14.868   4.647   5.952
52065SOL    HW258093   0.019   4.595   6.092
52066SOL     OW58094   6.549   7.415   3.967
52066SOL    HW158095   6.585   7.328   3.985
52066SOL    HW258096   6.612   7.476   4.006
52067SOL     OW58097   2.278   5.501   4.236
52067SOL    HW158098   2.299   5.586   4.198
52067SOL    HW258099   2.281   5.515   4.330
52068SOL     OW58100   3.718   0.182  13.634
52068SOL    HW158101   3.769   0.258  13.664
52068SOL    HW258102   3.706   0.197  13.540
52069SOL     OW58103   2.743   9.985   7.613
52069SOL    HW158104   2.833  10.006   7.588
52069SOL    HW258105   2.697  10.068   7.606
52070SOL     OW58106   5.862   4.584   1.775
52070SOL    HW158107   5.824   4.672   1.780
52070SOL    HW258108   5.913   4.584   1.694
52071SOL     OW58109  10.374  12.466   0.879
52071SOL    HW158110  10.373  12.435   0.788
52071SOL    HW258111  10.458  12.510   0.888
52072SOL     OW58112  14.093  10.006   9.882
52072SOL    HW158113  14.073  10.094   9.850
52072SOL    HW258114  14.009   9.960   9.876
52073SOL     OW58115   7.687   8.398   6.449
52073SOL    HW158116   7.748   8.403   6.523
52073SOL    HW258117   7.726   8.332   6.391
52074SOL     OW58118   7.898   4.645   6.289
52074SOL    HW158119   7.899   4.614   6.198
52074SOL    HW258120   7.888   4.740   6.282
52075SOL     OW58121  11.896   9.805   8.693
52075SOL    HW158122  11.925   9.798   8.784
52075SOL    HW258123  11.919   9.895   8.668
52076SOL     OW58124   7.650  12.476  10.501
52076SOL    HW158125   7.603  12.393  10.495
52076SOL    HW258126   7.681  12.480  10.592
52077SOL     OW58127   4.848   0.009   2.840
52077SOL    HW158128   4.771   0.014   2.782
52077SOL    HW258129   4.910  14.829   2.793
52078SOL     OW58130   4.873   7.662   9.121
52078SOL    HW158131   4.804   7.666   9.187
52078SOL    HW258132   4.930   7.591   9.149
52079SOL     OW58133   6.873  12.568   6.846
52079SOL    HW158134   6.820  12.534   6.774
52079SOL    HW258135   6.849  12.513   6.921
52080SOL     OW58136   3.266  13.275  14.852
52080SOL    HW158137   3.289  13.344  14.789
52080SOL    HW258138   3.180  13.300   0.010
52081SOL     OW58139  12.477   5.698   9.923
52081SOL    HW158140  12.437   5.617   9.956
52081SOL    HW258141  12.500   5.746  10.002
52082SOL     OW58142   6.102   8.907   4.854
52082SOL    HW158143   6.119   8.816   4.828
52082SOL    HW258144   6.186   8.939   4.886
52083SOL     OW58145  13.812   2.910  13.857
52083SOL    HW158146  13.907   2.909  13.867
52083SOL    HW258147  13.794   2.840  13.794
52084SOL     OW58148   1.820  14.231  14.530
52084SOL    HW158149   1.875  14.231  14.609
52084SOL    HW258150   1.768  14.150  14.538
52085SOL     OW58151  10.855   9.589   4.958
52085SOL    HW158152  10.836   9.666   5.011
52085SOL    HW258153  10.784   9.528   4.978
52086SOL     OW58154  11.070   7.018   3.290
52086SOL    HW158155  11.109   6.970   3.217
52086SOL    HW258156  11.060   6.952   3.359
52087SOL     OW58157   9.272   1.931   1.264
52087SOL    HW158158   9.358   1.959   1.297
52087SOL    HW258159   9.278   1.944   1.169
52088SOL     OW58160   8.359   5.989  14.431
52088SOL    HW158161   8.304   5.976  14.509
52088SOL    HW258162   8.445   6.013  14.466
52089SOL     OW58163   8.945   6.637   1.516
52089SOL    HW158164   8.877   6.643   1.584
52089SOL    HW258165   8.925   6.555   1.470
52090SOL     OW58166  14.110   9.836   3.389
52090SOL    HW158167  14.037   9.898   3.386
52090SOL    HW258168  14.187   9.888   3.366
52091SOL     OW58169   9.434  10.069   8.838
52091SOL    HW158170   9.342  10.062   8.864
52091SOL    HW258171   9.440  10.153   8.792
52092SOL     OW58172   9.509   5.874   6.405
52092SOL    HW158173   9.473   5.873   6.494
52092SOL    HW258174   9.497   5.785   6.373
52093SOL     OW58175   1.590  10.379   3.863
52093SOL    HW158176   1.612  10.453   3.920
52093SOL    HW258177   1.515  10.337   3.906
52094SOL     OW58178  13.846  12.433   1.571
52094SOL    HW158179  13.860  12.458   1.662
52094SOL    HW258180  13.796  12.506   1.534
52095SOL     OW58181   7.010  10.136   7.242
52095SOL    HW158182   6.976  10.070   7.181
52095SOL    HW258183   7.053  10.200   7.186
52096SOL     OW58184   3.645   8.171   4.848
52096SOL    HW158185   3.725   8.172   4.795
52096SOL    HW258186   3.605   8.256   4.832
52097SOL     OW58187   8.741   8.008   5.239
52097SOL    HW158188   8.808   8.015   5.307
52097SOL    HW258189   8.713   8.099   5.224
52098SOL     OW58190   9.596   3.505  14.079
52098SOL    HW158191   9.601   3.496  13.984
52098SOL    HW258192   9.502   3.499  14.098
52099SOL     OW58193  11.916  12.452   5.886
52099SOL    HW158194  11.831  12.418   5.916
52099SOL    HW258195  11.943  12.513   5.954
52100SOL     OW58196  11.389  13.661  13.833
52100SOL    HW158197  11.384  13.580  13.784
52100SOL    HW258198  11.468  13.651  13.887
52101SOL     OW58199   9.179  14.110   7.460
52101SOL    HW158200   9.260  14.159   7.446
52101SOL    HW258201   9.173  14.052   7.384
52102SOL     OW58202   5.572  12.684   0.751
52102SOL    HW158203   5.491  12.733   0.764
52102SOL    HW258204   5.638  12.751   0.735
52103SOL     OW58205   3.615   3.654   2.687
52103SOL    HW158206   3.523   3.680   2.699
52103SOL    HW258207   3.630   3.662   2.593
52104SOL     OW58208   1.458  10.606   0.450
52104SOL    HW158209   1.405  10.677   0.485
52104SOL    HW258210   1.493  10.562   0.528
52105SOL     OW58211   1.425  10.717   2.456
52105SOL    HW158212   1.505  10.717   2.508
52105SOL    HW258213   1.361  10.671   2.510
52106SOL     OW58214  12.074   9.993  10.096
52106SOL    HW158215  12.087   9.927  10.164
52106SOL    HW258216  12.114  10.072  10.131
52107SOL     OW58217   3.507  10.237   9.277
52107SOL    HW158218   3.567  10.222   9.350
52107SOL    HW258219   3.563  10.262   9.204
52108SOL     OW58220  13.673   1.301  12.407
52108SOL    HW158221  13.667   1.266  12.318
52108SOL    HW258222  13.764   1.282  12.433
52109SOL     OW58223   6.339  14.556   2.647
52109SOL    HW158224   6.396  14.614   2.596
52109SOL    HW258225   6.370  14.565   2.737
52110SOL     OW58226  11.006  13.977  11.538
52110SOL    HW158227  11.079  13.920  11.513
52110SOL    HW258228  11.025  14.003  11.628
52111SOL     OW58229  12.509   2.644   2.392
52111SOL    HW158230  12.426   2.632   2.440
52111SOL    HW258231  12.547   2.722   2.431
52112SOL     OW58232  12.638   6.826   5.764
52112SOL    HW158233  12.563   6.808   5.821
52112SOL    HW258234  12.608   6.895   5.706
52113SOL     OW58235  14.259  13.775   9.788
52113SOL    HW158236  14.178  13.765   9.837
52113SOL    HW258237  14.272  13.870   9.783
52114SOL     OW58238   8.882   2.349  11.480
52114SOL    HW158239   8.954   2.395  11.523
52114SOL    HW258240   8.831   2.419  11.438
52115SOL     OW58241  12.288   5.268  11.568
52115SOL    HW158242  12.248   5.181  11.571
52115SOL    HW258243  12.245   5.317  11.638
52116SOL     OW58244   9.209   3.516  14.414
52116SOL    HW158245   9.128   3.480  14.451
52116SOL    HW258246   9.183   3.601  14.379
52117SOL     OW58247   5.050   3.565   7.622
52117SOL    HW158248   5.088   3.555   7.535
52117SOL    HW258249   5.019   3.656   7.625
52118SOL     OW58250   9.194  11.950  12.258
52118SOL    HW158251   9.151  11.868  12.282
52118SOL    HW258252   9.209  11.942  12.164
52119SOL     OW58253   0.510  14.552   3.879
52119SOL    HW158254   0.605  14.544   3.869
52119SOL    HW258255   0.474  14.492   3.814
52120SOL     OW58256  10.879   9.386   3.610
52120SOL    HW158257  10.829   9.309   3.637
52120SOL    HW258258  10.938   9.403   3.684
52121SOL     OW58259  11.570  13.874   6.848
52121SOL    HW158260  11.601  13.949   6.796
52121SOL    HW258261  11.601  13.892   6.936
52122SOL     OW58262  12.061   2.530   3.716
52122SOL    HW158263  12.117   2.523   3.793
52122SOL    HW258264  12.050   2.440   3.685
52123SOL     OW58265   8.137   4.736   5.936
52123SOL    HW158266   8.126   4.830   5.949
52123SOL    HW258267   8.048   4.703   5.922
52124SOL     OW58268   3.820   8.349   1.936
52124SOL    HW158269   3.839   8.361   2.029
52124SOL    HW258270   3.784   8.261   1.930
52125SOL     OW58271  11.505   2.704   3.472
52125SOL    HW158272  11.528   2.611   3.478
52125SOL    HW258273  11.537   2.731   3.386
52126SOL     OW58274  14.341  13.707   6.765
52126SOL    HW158275  14.336  13.789   6.716
52126SOL    HW258276  14.308  13.730   6.852
52127SOL     OW58277  10.171  12.069   9.728
52127SOL    HW158278  10.151  12.152   9.684
52127SOL    HW258279  10.141  12.082   9.818
52128SOL     OW58280   8.779   4.069   1.031
52128SOL    HW158281   8.831   4.082   1.110
52128SOL    HW258282   8.841   4.085   0.959
52129SOL     OW58283  12.532   7.683   2.456
52129SOL    HW158284  12.510   7.774   2.437
52129SOL    HW258285  12.627   7.679   2.445
52130SOL     OW58286  14.294  11.321  13.991
52130SOL    HW158287  14.386  11.348  13.990
52130SOL    HW258288  14.247  11.396  14.026
52131SOL     OW58289   8.977  14.492  11.763
52131SOL    HW158290   8.988  14.401  11.734
52131SOL    HW258291   9.059  14.535  11.739
52132SOL     OW58292  10.415   8.780   7.388
52132SOL    HW158293  10.332   8.823   7.407
52132SOL    HW258294  10.452   8.832   7.316
52133SOL     OW58295   0.711   2.807   8.213
52133SOL    HW158296   0.635   2.850   8.253
52133SOL    HW258297   0.737   2.740   8.276
52134SOL     OW58298   4.347  10.620   5.348
52134SOL    HW158299   4.380  10.682   5.412
52134SOL    HW258300   4.255  10.642   5.337
52135SOL     OW58301   3.503  13.157   4.949
52135SOL    HW158302   3.574  13.207   4.990
52135SOL    HW258303   3.466  13.105   5.020
52136SOL     OW58304   0.837   9.206   7.039
52136SOL    HW158305   0.852   9.172   7.128
52136SOL    HW258306   0.741   9.215   7.033
52137SOL     OW58307   1.604  14.862  14.626
52137SOL    HW158308   1.555  14.780  14.639
52137SOL    HW258309   1.654  14.848  14.546
52138SOL     OW58310   3.541   4.326   0.460
52138SOL    HW158311   3.522   4.317   0.367
52138SOL    HW258312   3.485   4.399   0.489
52139SOL     OW58313  14.809   8.196  13.979
52139SOL    HW158314  14.758   8.271  13.948
52139SOL    HW258315   0.024   8.229  13.985
52140SOL     OW58316   7.746   8.685  12.761
52140SOL    HW158317   7.759   8.621  12.692
52140SOL    HW258318   7.831   8.691  12.805
52141SOL     OW58319   6.893  12.210  10.818
52141SOL    HW158320   6.984  12.225  10.842
52141SOL    HW258321   6.854  12.167  10.894
52142SOL     OW58322   6.149  11.431   1.143
52142SOL    HW158323   6.085  11.374   1.100
52142SOL    HW258324   6.111  11.518   1.137
52143SOL     OW58325  10.668   0.496  10.993
52143SOL    HW158326  10.630   0.461  10.912
52143SOL    HW258327  10.675   0.420  11.051
52144SOL     OW58328  12.062  13.662   5.289
52144SOL    HW158329  12.051  13.750   5.327
52144SOL    HW258330  12.023  13.603   5.354
52145SOL     OW58331   0.026   7.481   9.885
52145SOL    HW158332   0.059   7.561   9.844
52145SOL    HW258333   0.101   7.444   9.930
52146SOL     OW58334   8.512   5.488   0.083
52146SOL    HW158335   8.491   5.577   0.056
52146SOL    HW258336   8.479   5.433   0.011
52147SOL     OW58337   8.514  14.732   9.982
52147SOL    HW158338   8.509  14.701  10.073
52147SOL    HW258339   8.433  14.701   9.942
52148SOL     OW58340   5.847   4.895   9.645
52148SOL    HW158341   5.849   4.830   9.715
52148SOL    HW258342   5.937   4.928   9.641
52149SOL     OW58343   0.598  12.050  11.174
52149SOL    HW158344   0.688  12.033  11.148
52149SOL    HW258345   0.604  12.122  11.236
52150SOL     OW58346   9.725   2.753   6.753
52150SOL    HW158347   9.800   2.734   6.697
52150SOL    HW258348   9.699   2.668   6.788
52151SOL     OW58349   0.487   5.534   7.817
52151SOL    HW158350   0.484   5.629   7.821
52151SOL    HW258351   0.436   5.505   7.893
52152SOL     OW58352   5.916  14.129   3.620
52152SOL    HW158353   5.965  14.209   3.636
52152SOL    HW258354   5.960  14.089   3.545
52153SOL     OW58355   7.522   2.249   2.458
52153SOL    HW158356   7.581   2.324   2.449
52153SOL    HW258357   7.491   2.233   2.369
52154SOL     OW58358  14.464   4.790   3.104
52154SOL    HW158359  14.559   4.792   3.108
52154SOL    HW258360  14.442   4.838   3.024
52155SOL     OW58361  13.421  14.037   9.981
52155SOL    HW158362  13.509  14.044  10.018
52155SOL    HW258363  13.396  14.128   9.960
52156SOL     OW58364  12.616   1.454   0.280
52156SOL    HW158365  12.545   1.510   0.312
52156SOL    HW258366  12.576   1.367   0.273
52157SOL     OW58367   5.844   8.051   2.193
52157SOL    HW158368   5.856   8.138   2.233
52157SOL    HW258369   5.881   7.990   2.256
52158SOL     OW58370   7.677   5.797   8.214
52158SOL    HW158371   7.683   5.866   8.147
52158SOL    HW258372   7.703   5.717   8.168
52159SOL     OW58373   8.459   5.643   2.272
52159SOL    HW158374   8.503   5.592   2.340
52159SOL    HW258375   8.529   5.666   2.210
52160SOL     OW58376  12.333   9.994   5.639
52160SOL    HW158377  12.257  10.029   5.592
52160SOL    HW258378  12.298   9.959   5.720
52161SOL     OW58379   3.078   3.098  11.750
52161SOL    HW158380   3.135   3.097  11.673
52161SOL    HW258381   3.004   3.153  11.724
52162SOL     OW58382  14.868   0.521   4.740
52162SOL    HW158383   0.036   0.437   4.722
52162SOL    HW258384   0.059   0.587   4.717
52163SOL     OW58385  13.267  10.329  11.235
52163SOL    HW158386  13.283  10.403  11.294
52163SOL    HW258387  13.354  10.308  11.200
52164SOL     OW58388   5.198  14.635   3.510
52164SOL    HW158389   5.187  14.701   3.578
52164SOL    HW258390   5.111  14.625   3.472
52165SOL     OW58391   4.793  11.547   0.422
52165SOL    HW158392   4.739  11.512   0.493
52165SOL    HW258393   4.784  11.642   0.430
52166SOL     OW58394  12.563   0.333   9.629
52166SOL    HW158395  12.564   0.275   9.553
52166SOL    HW258396  12.582   0.275   9.703
52167SOL     OW58397   0.454  10.513   1.067
52167SOL    HW158398   0.389  10.551   1.125
52167SOL    HW258399   0.528  10.492   1.124
52168SOL     OW58400   0.889  11.351   8.190
52168SOL    HW158401   0.872  11.442   8.167
52168SOL    HW258402   0.942  11.318   8.117
52169SOL     OW58403   9.778   1.726  11.780
52169SOL    HW158404   9.814   1.814  11.791
52169SOL    HW258405   9.791   1.707  11.687
52170SOL     OW58406   7.593  14.450   8.601
52170SOL    HW158407   7.666  14.488   8.650
52170SOL    HW258408   7.524  14.515   8.606
52171SOL     OW58409  12.621   5.431   3.771
52171SOL    HW158410  12.613   5.470   3.684
52171SOL    HW258411  12.587   5.498   3.831
52172SOL     OW58412  11.935   1.594   0.092
52172SOL    HW158413  11.954   1.569   0.001
52172SOL    HW258414  11.931   1.689   0.090
52173SOL     OW58415   6.827   1.221  11.686
52173SOL    HW158416   6.738   1.256  11.686
52173SOL    HW258417   6.849   1.211  11.779
52174SOL     OW58418   5.797  12.215   5.561
52174SOL    HW158419   5.855  12.236   5.488
52174SOL    HW258420   5.759  12.130   5.538
52175SOL     OW58421   9.701   8.724   9.009
52175SOL    HW158422   9.762   8.651   8.998
52175SOL    HW258423   9.652   8.726   8.927
52176SOL     OW58424  12.440  14.736   7.908
52176SOL    HW158425  12.432  14.796   7.982
52176SOL    HW258426  12.387  14.660   7.932
52177SOL     OW58427   0.494  10.868   0.333
52177SOL    HW158428   0.407  10.902   0.312
52177SOL    HW258429   0.513  10.806   0.262
52178SOL     OW58430   6.611  11.696  14.031
52178SOL    HW158431   6.627  11.783  14.068
52178SOL    HW258432   6.546  11.656  14.090
52179SOL     OW58433   9.290   7.922  11.613
52179SOL    HW158434   9.385   7.917  11.603
52179SOL    HW258435   9.256   7.909  11.525
52180SOL     OW58436   6.290   7.194   0.100
52180SOL    HW158437   6.319   7.197   0.009
52180SOL    HW258438   6.283   7.100   0.120
52181SOL     OW58439   2.024   4.577   3.346
52181SOL    HW158440   1.965   4.601   3.274
52181SOL    HW258441   1.983   4.501   3.387
52182SOL     OW58442   8.436   8.870   7.478
52182SOL    HW158443   8.525   8.906   7.474
52182SOL    HW258444   8.413   8.856   7.386
52183SOL     OW58445  14.408  13.325   5.066
52183SOL    HW158446  14.374  13.397   5.013
52183SOL    HW258447  14.389  13.351   5.156
52184SOL     OW58448   5.702  12.033  13.199
52184SOL    HW158449   5.784  12.080  13.189
52184SOL    HW258450   5.697  12.012  13.292
52185SOL     OW58451  10.709  10.227  14.414
52185SOL    HW158452  10.735  10.169  14.343
52185SOL    HW258453  10.615  10.214  14.423
52186SOL     OW58454  14.456   1.601   9.150
52186SOL    HW158455  14.463   1.507   9.166
52186SOL    HW258456  14.510   1.616   9.073
52187SOL     OW58457  11.934   2.304   0.527
52187SOL    HW158458  12.020   2.292   0.487
52187SOL    HW258459  11.878   2.333   0.455
52188SOL     OW58460   4.999   3.927   7.332
52188SOL    HW158461   5.009   3.944   7.426
52188SOL    HW258462   4.977   4.012   7.294
52189SOL     OW58463   7.524  10.104   0.306
52189SOL    HW158464   7.462  10.078   0.238
52189SOL    HW258465   7.551  10.022   0.347
52190SOL     OW58466   6.840   7.381   0.803
52190SOL    HW158467   6.851   7.399   0.709
52190SOL    HW258468   6.845   7.286   0.810
52191SOL     OW58469  10.661   3.300   2.765
52191SOL    HW158470  10.690   3.344   2.685
52191SOL    HW258471  10.570   3.326   2.775
52192SOL     OW58472   7.915   2.240   2.364
52192SOL    HW158473   7.888   2.153   2.394
52192SOL    HW258474   7.959   2.223   2.280
52193SOL     OW58475  14.260  12.964   0.024
52193SOL    HW158476  14.290  13.054   0.011
52193SOL    HW258477  14.170  12.963  14.867
52194SOL     OW58478  10.433  12.637  11.971
52194SOL    HW158479  10.406  12.561  11.919
52194SOL    HW258480  10.527  12.627  11.981
52195SOL     OW58481   5.809   8.277   2.883
52195SOL    HW158482   5.783   8.309   2.797
52195SOL    HW258483   5.743   8.212   2.907
52196SOL     OW58484   5.497  11.197  13.254
52196SOL    HW158485   5.460  11.111  13.235
52196SOL    HW258486   5.430  11.240  13.307
52197SOL     OW58487   2.171  11.699   1.627
52197SOL    HW158488   2.108  11.681   1.558
52197SOL    HW258489   2.118  11.704   1.707
52198SOL     OW58490  12.848   7.506  14.539
52198SOL    HW158491  12.895   7.560  14.476
52198SOL    HW258492  12.764   7.550  14.551
52199SOL     OW58493  14.134  12.548  14.581
52199SOL    HW158494  14.088  12.473  14.544
52199SOL    HW258495  14.117  12.543  14.675
52200SOL     OW58496   4.473   3.399   6.361
52200SOL    HW158497   4.384   3.373   6.386
52200SOL    HW258498   4.460   3.479   6.309
52201SOL     OW58499  10.708  11.024   0.446
52201SOL    HW158500  10.698  10.950   0.506
52201SOL    HW258501  10.772  10.993   0.382
52202SOL     OW58502   4.801   5.725  11.901
52202SOL    HW158503   4.859   5.654  11.927
52202SOL    HW258504   4.822   5.797  11.961
52203SOL     OW58505  12.425   3.781   8.127
52203SOL    HW158506  12.503   3.796   8.073
52203SOL    HW258507  12.439   3.835   8.205
52204SOL     OW58508  12.627   9.457   0.761
52204SOL    HW158509  12.597   9.517   0.693
52204SOL    HW258510  12.723   9.465   0.760
52205SOL     OW58511   7.980   0.160   9.806
52205SOL    HW158512   8.049   0.112   9.852
52205SOL    HW258513   8.004   0.252   9.814
52206SOL     OW58514   0.201   9.818   7.123
52206SOL    HW158515   0.187   9.845   7.032
52206SOL    HW258516   0.295   9.802   7.130
52207SOL     OW58517  11.230   5.005  13.966
52207SOL    HW158518  11.295   5.056  13.918
52207SOL    HW258519  11.265   4.998  14.054
52208SOL     OW58520  14.378   6.905  13.536
52208SOL    HW158521  14.425   6.829  13.502
52208SOL    HW258522  14.286   6.886  13.519
52209SOL     OW58523   2.711  13.041   2.696
52209SOL    HW158524   2.674  13.056   2.783
52209SOL    HW258525   2.638  13.058   2.636
52210SOL     OW58526   0.281  10.182   5.139
52210SOL    HW158527   0.361  10.129   5.134
52210SOL    HW258528   0.287  10.224   5.225
52211SOL     OW58529   2.787   4.051  13.928
52211SOL    HW158530   2.769   4.074  14.019
52211SOL    HW258531   2.751   4.124  13.877
52212SOL     OW58532  14.509  13.940   5.175
52212SOL    HW158533  14.533  13.932   5.267
52212SOL    HW258534  14.414  13.930   5.174
52213SOL     OW58535  10.218   6.021   4.087
52213SOL    HW158536  10.203   6.112   4.063
52213SOL    HW258537  10.244   6.024   4.179
52214SOL     OW58538   7.149  14.462  11.298
52214SOL    HW158539   7.223  14.411  11.332
52214SOL    HW258540   7.072  14.424  11.340
52215SOL     OW58541   6.532   1.135  12.900
52215SOL    HW158542   6.609   1.080  12.887
52215SOL    HW258543   6.461   1.074  12.918
52216SOL     OW58544  14.035   2.725   4.146
52216SOL    HW158545  14.018   2.729   4.240
52216SOL    HW258546  14.117   2.675   4.139
52217SOL     OW58547  12.705   4.584   1.573
52217SOL    HW158548  12.703   4.508   1.515
52217SOL    HW258549  12.755   4.554   1.649
52218SOL     OW58550   7.197  11.361   7.333
52218SOL    HW158551   7.254  11.419   7.283
52218SOL    HW258552   7.211  11.386   7.425
52219SOL     OW58553  13.468   8.980  13.645
52219SOL    HW158554  13.522   8.986  13.724
52219SOL    HW258555  13.510   8.910  13.594
52220SOL     OW58556  10.519  10.392  10.129
52220SOL    HW158557  10.451  10.340  10.172
52220SOL    HW258558  10.476  10.475  10.108
52221SOL     OW58559   7.107   1.851  11.365
52221SOL    HW158560   7.080   1.851  11.457
52221SOL    HW258561   7.057   1.923  11.326
52222SOL     OW58562  13.884  12.579   8.603
52222SOL    HW158563  13.874  12.486   8.585
52222SOL    HW258564  13.914  12.583   8.694
52223SOL     OW58565   0.528   7.594   8.693
52223SOL    HW158566   0.516   7.684   8.661
52223SOL    HW258567   0.580   7.551   8.626
52224SOL     OW58568  12.228   3.682  13.676
52224SOL    HW158569  12.222   3.588  13.692
52224SOL    HW258570  12.288   3.714  13.744
52225SOL     OW58571   9.067  10.365   5.395
52225SOL    HW158572   9.161  10.352   5.383
52225SOL    HW258573   9.027  10.324   5.318
52226SOL     OW58574  12.302   0.892   9.309
52226SOL    HW158575  12.311   0.930   9.397
52226SOL    HW258576  12.209   0.901   9.289
52227SOL     OW58577   3.541  14.780   9.989
52227SOL    HW158578   3.546  14.822   9.903
52227SOL    HW258579   3.517  14.689   9.970
52228SOL     OW58580  10.118  11.731   5.741
52228SOL    HW158581  10.077  11.647   5.763
52228SOL    HW258582  10.166  11.713   5.660
52229SOL     OW58583   1.662   2.139   2.997
52229SOL    HW158584   1.741   2.151   3.050
52229SOL    HW258585   1.615   2.222   3.007
52230SOL     OW58586  12.992   5.328   8.201
52230SOL    HW158587  12.980   5.396   8.268
52230SOL    HW258588  12.949   5.364   8.123
52231SOL     OW58589   2.832  14.252   7.286
52231SOL    HW158590   2.881  14.171   7.269
52231SOL    HW258591   2.856  14.309   7.213
52232SOL     OW58592   7.484  14.407  11.232
52232SOL    HW158593   7.456  14.491  11.267
52232SOL    HW258594   7.556  14.428  11.172
52233SOL     OW58595  11.768   8.367   2.568
52233SOL    HW158596  11.850   8.389   2.523
52233SOL    HW258597  11.717   8.319   2.503
52234SOL     OW58598  13.917   3.064   7.956
52234SOL    HW158599  13.962   3.072   8.040
52234SOL    HW258600  13.853   3.136   7.956
52235SOL     OW58601   5.916  13.908  10.164
52235SOL    HW158602   5.954  13.820  10.155
52235SOL    HW258603   5.977  13.965  10.118
52236SOL     OW58604   3.590  11.513  11.165
52236SOL    HW158605   3.650  11.468  11.225
52236SOL    HW258606   3.590  11.458  11.086
52237SOL     OW58607  10.953   1.945   1.399
52237SOL    HW158608  11.009   2.016   1.431
52237SOL    HW258609  10.866   1.966   1.433
52238SOL     OW58610   9.712   3.639   2.970
52238SOL    HW158611   9.656   3.717   2.968
52238SOL    HW258612   9.657   3.570   2.934
52239SOL     OW58613   7.447   0.756   8.402
52239SOL    HW158614   7.458   0.664   8.428
52239SOL    HW258615   7.525   0.776   8.350
52240SOL     OW58616   9.710   3.586  12.995
52240SOL    HW158617   9.750   3.536  12.924
52240SOL    HW258618   9.779   3.644  13.026
52241SOL     OW58619  13.169   7.818  14.755
52241SOL    HW158620  13.141   7.876  14.826
52241SOL    HW258621  13.093   7.762  14.739
52242SOL     OW58622  14.809   0.491  12.121
52242SOL    HW158623  14.785   0.418  12.064
52242SOL    HW258624  14.773   0.469  12.206
52243SOL     OW58625   7.474   8.927   4.518
52243SOL    HW158626   7.517   9.012   4.509
52243SOL    HW258627   7.543   8.863   4.501
52244SOL     OW58628  10.875   0.298  14.320
52244SOL    HW158629  10.916   0.361  14.379
52244SOL    HW258630  10.793   0.339  14.294
52245SOL     OW58631   7.924   1.560  13.525
52245SOL    HW158632   7.985   1.614  13.475
52245SOL    HW258633   7.980   1.502  13.577
52246SOL     OW58634   3.752   4.574   5.636
52246SOL    HW158635   3.661   4.556   5.661
52246SOL    HW258636   3.745   4.643   5.570
52247SOL     OW58637  10.428   8.618   8.599
52247SOL    HW158638  10.504   8.621   8.540
52247SOL    HW258639  10.356   8.651   8.546
52248SOL     OW58640   4.564   8.094   3.812
52248SOL    HW158641   4.579   8.027   3.745
52248SOL    HW258642   4.485   8.065   3.858
52249SOL     OW58643   5.024  12.436  12.029
52249SOL    HW158644   5.059  12.503  12.088
52249SOL    HW258645   5.091  12.426  11.962
52250SOL     OW58646  14.127  14.273   4.636
52250SOL    HW158647  14.107  14.201   4.576
52250SOL    HW258648  14.073  14.256   4.713
52251SOL     OW58649   4.395   7.503   7.372
52251SOL    HW158650   4.435   7.417   7.381
52251SOL    HW258651   4.316   7.488   7.320
52252SOL     OW58652   6.178   7.531   5.747
52252SOL    HW158653   6.167   7.622   5.774
52252SOL    HW258654   6.091   7.492   5.756
52253SOL     OW58655   6.484   3.370   8.643
52253SOL    HW158656   6.552   3.395   8.705
52253SOL    HW258657   6.532   3.342   8.565
52254SOL     OW58658   4.498   3.481   2.226
52254SOL    HW158659   4.526   3.493   2.135
52254SOL    HW258660   4.519   3.564   2.269
52255SOL     OW58661   1.760   5.598  13.885
52255SOL    HW158662   1.789   5.566  13.970
52255SOL    HW258663   1.761   5.520  13.828
52256SOL     OW58664  14.552  13.050   7.574
52256SOL    HW158665  14.569  13.017   7.662
52256SOL    HW258666  14.639  13.055   7.533
52257SOL     OW58667  12.973   0.584   2.863
52257SOL    HW158668  13.064   0.612   2.865
52257SOL    HW258669  12.925   0.653   2.909
52258SOL     OW58670   0.641   4.417  10.676
52258SOL    HW158671   0.637   4.369  10.594
52258SOL    HW258672   0.689   4.360  10.735
52259SOL     OW58673   6.239  10.193   4.467
52259SOL    HW158674   6.319  10.226   4.507
52259SOL    HW258675   6.269  10.124   4.407
52260SOL     OW58676  12.972   7.006  14.550
52260SOL    HW158677  13.028   7.053  14.612
52260SOL    HW258678  13.003   6.915  14.554
52261SOL     OW58679   5.174   0.985   9.201
52261SOL    HW158680   5.202   1.073   9.178
52261SOL    HW258681   5.242   0.953   9.260
52262SOL     OW58682   2.910   0.812   1.987
52262SOL    HW158683   2.940   0.729   1.950
52262SOL    HW258684   2.836   0.837   1.931
52263SOL     OW58685   4.723   8.139   0.395
52263SOL    HW158686   4.647   8.097   0.434
52263SOL    HW258687   4.717   8.118   0.302
52264SOL     OW58688  14.215  13.977   7.214
52264SOL    HW158689  14.231  14.070   7.201
52264SOL    HW258690  14.119  13.969   7.214
52265SOL     OW58691   6.324   6.744   7.046
52265SOL    HW158692   6.304   6.748   6.952
52265SOL    HW258693   6.292   6.658   7.073
52266SOL     OW58694   2.180   1.922   7.759
52266SOL    HW158695   2.245   1.910   7.828
52266SOL    HW258696   2.175   2.017   7.746
52267SOL     OW58697   9.744   1.447  12.397
52267SOL    HW158698   9.826   1.418  12.357
52267SOL    HW258699   9.701   1.367  12.426
52268SOL     OW58700   9.567   9.523   3.285
52268SOL    HW158701   9.475   9.519   3.258
52268SOL    HW258702   9.589   9.433   3.308
52269SOL     OW58703   8.272  11.460  11.009
52269SOL    HW158704   8.284  11.546  11.049
52269SOL    HW258705   8.350  11.448  10.955
52270SOL     OW58706   6.154   7.810   5.759
52270SOL    HW158707   6.186   7.897   5.785
52270SOL    HW258708   6.097   7.827   5.684
52271SOL     OW58709  10.796   5.855   9.936
52271SOL    HW158710  10.800   5.763   9.962
52271SOL    HW258711  10.780   5.852   9.841
52272SOL     OW58712  11.419   0.439   1.907
52272SOL    HW158713  11.387   0.375   1.843
52272SOL    HW258714  11.475   0.497   1.857
52273SOL     OW58715   8.367   0.671   9.677
52273SOL    HW158716   8.436   0.606   9.664
52273SOL    HW258717   8.286   0.622   9.670
52274SOL     OW58718   7.175  12.999   0.644
52274SOL    HW158719   7.253  12.950   0.619
52274SOL    HW258720   7.142  13.033   0.561
52275SOL     OW58721   3.386  12.783   6.629
52275SOL    HW158722   3.428  12.781   6.543
52275SOL    HW258723   3.437  12.846   6.679
52276SOL     OW58724   0.910   7.255   5.283
52276SOL    HW158725   0.940   7.226   5.197
52276SOL    HW258726   0.922   7.179   5.340
52277SOL     OW58727  10.613  13.874  10.697
52277SOL    HW158728  10.597  13.918  10.781
52277SOL    HW258729  10.568  13.929  10.632
52278SOL     OW58730   2.874   8.923   4.628
52278SOL    HW158731   2.826   8.889   4.703
52278SOL    HW258732   2.964   8.934   4.659
52279SOL     OW58733  12.654   3.947   1.573
52279SOL    HW158734  12.582   3.914   1.520
52279SOL    HW258735  12.614   3.970   1.657
52280SOL     OW58736   1.938   8.657   3.407
52280SOL    HW158737   1.973   8.742   3.432
52280SOL    HW258738   1.973   8.642   3.319
52281SOL     OW58739  11.528   7.819   4.323
52281SOL    HW158740  11.551   7.734   4.285
52281SOL    HW258741  11.513   7.800   4.416
52282SOL     OW58742   0.294   3.729   3.191
52282SOL    HW158743   0.220   3.738   3.131
52282SOL    HW258744   0.334   3.816   3.194
52283SOL     OW58745   3.751   0.063  14.343
52283SOL    HW158746   3.712   0.047  14.257
52283SOL    HW258747   3.697   0.133  14.381
52284SOL     OW58748  13.177   9.179   5.644
52284SOL    HW158749  13.207   9.097   5.606
52284SOL    HW258750  13.195   9.169   5.738
52285SOL     OW58751   0.148  11.532   8.840
52285SOL    HW158752   0.197  11.560   8.763
52285SOL    HW258753   0.090  11.606   8.860
52286SOL     OW58754  11.881   6.897   2.018
52286SOL    HW158755  11.885   6.941   1.933
52286SOL    HW258756  11.940   6.822   2.010
52287SOL     OW58757  14.798   8.082   9.664
52287SOL    HW158758  14.827   8.134   9.590
52287SOL    HW258759  14.752   8.008   9.625
52288SOL     OW58760   4.544  12.592   7.803
52288SOL    HW158761   4.519  12.548   7.722
52288SOL    HW258762   4.595  12.527   7.852
52289SOL     OW58763   1.493   5.821   2.178
52289SOL    HW158764   1.545   5.900   2.166
52289SOL    HW258765   1.558   5.751   2.186
52290SOL     OW58766   0.900  11.612   1.928
52290SOL    HW158767   0.889  11.661   1.847
52290SOL    HW258768   0.978  11.558   1.913
52291SOL     OW58769   0.241   2.068  10.405
52291SOL    HW158770   0.184   2.057  10.481
52291SOL    HW258771   0.208   2.004  10.341
52292SOL     OW58772   8.335  10.273  13.617
52292SOL    HW158773   8.373  10.238  13.698
52292SOL    HW258774   8.280  10.345  13.645
52293SOL     OW58775   3.413   3.722   2.980
52293SOL    HW158776   3.424   3.780   2.905
52293SOL    HW258777   3.427   3.634   2.945
52294SOL     OW58778   5.213   4.282   0.811
52294SOL    HW158779   5.238   4.371   0.836
52294SOL    HW258780   5.232   4.229   0.889
52295SOL     OW58781   1.088   9.907   3.539
52295SOL    HW158782   1.112   9.994   3.570
52295SOL    HW258783   1.156   9.849   3.573
52296SOL     OW58784   8.544   3.772   7.259
52296SOL    HW158785   8.547   3.682   7.226
52296SOL    HW258786   8.525   3.763   7.352
52297SOL     OW58787  13.705   2.164  13.341
52297SOL    HW158788  13.690   2.258  13.353
52297SOL    HW258789  13.730   2.132  13.427
52298SOL     OW58790   2.084   4.892   9.909
52298SOL    HW158791   2.146   4.852   9.970
52298SOL    HW258792   2.080   4.831   9.836
52299SOL     OW58793  12.968   5.556   2.690
52299SOL    HW158794  13.034   5.616   2.725
52299SOL    HW258795  12.998   5.536   2.602
52300SOL     OW58796   7.136   3.085   7.443
52300SOL    HW158797   7.196   3.122   7.379
52300SOL    HW258798   7.060   3.142   7.440
52301SOL     OW58799  12.908   8.164   9.824
52301SOL    HW158800  12.825   8.145   9.781
52301SOL    HW258801  12.962   8.087   9.806
52302SOL     OW58802  11.753  13.157   1.687
52302SOL    HW158803  11.810  13.088   1.655
52302SOL    HW258804  11.667  13.137   1.649
52303SOL     OW58805   9.065  11.692  13.041
52303SOL    HW158806   9.125  11.700  12.967
52303SOL    HW258807   9.113  11.640  13.106
52304SOL     OW58808   1.429  10.598  13.240
52304SOL    HW158809   1.515  10.600  13.281
52304SOL    HW258810   1.429  10.670  13.177
52305SOL     OW58811  13.840   2.570   9.993
52305SOL    HW158812  13.775   2.625  10.037
52305SOL    HW258813  13.790   2.494   9.961
52306SOL     OW58814  13.777   6.483   7.724
52306SOL    HW158815  13.802   6.574   7.740
52306SOL    HW258816  13.681   6.485   7.722
52307SOL     OW58817   3.940   9.650   1.983
52307SOL    HW158818   3.894   9.706   2.046
52307SOL    HW258819   4.033   9.665   2.000
52308SOL     OW58820  14.225   4.342   0.206
52308SOL    HW158821  14.168   4.391   0.265
52308SOL    HW258822  14.207   4.250   0.225
52309SOL     OW58823  10.692  13.016  14.575
52309SOL    HW158824  10.709  12.923  14.560
52309SOL    HW258825  10.646  13.018  14.660
52310SOL     OW58826   9.712   6.805   9.625
52310SOL    HW158827   9.777   6.791   9.694
52310SOL    HW258828   9.632   6.766   9.660
52311SOL     OW58829  14.431   5.653   9.736
52311SOL    HW158830  14.337   5.646   9.748
52311SOL    HW258831  14.442   5.724   9.672
52312SOL     OW58832  13.032   6.968   0.276
52312SOL    HW158833  13.051   7.003   0.363
52312SOL    HW258834  13.085   7.021   0.217
52313SOL     OW58835   1.004   2.504   5.041
52313SOL    HW158836   1.006   2.420   5.087
52313SOL    HW258837   1.073   2.556   5.083
52314SOL     OW58838   1.449   4.523   1.582
52314SOL    HW158839   1.451   4.521   1.677
52314SOL    HW258840   1.423   4.613   1.560
52315SOL     OW58841  12.504   5.884   7.025
52315SOL    HW158842  12.564   5.876   7.099
52315SOL    HW258843  12.473   5.794   7.009
52316SOL     OW58844  11.638  13.467   1.880
52316SOL    HW158845  11.700  13.461   1.953
52316SOL    HW258846  11.603  13.378   1.871
52317SOL     OW58847   2.619  10.443   8.411
52317SOL    HW158848   2.548  10.385   8.385
52317SOL    HW258849   2.598  10.527   8.370
52318SOL     OW58850   8.955   5.039  13.454
52318SOL    HW158851   8.962   5.127  13.491
52318SOL    HW258852   8.893   4.994  13.512
52319SOL     OW58853   7.519  11.582   2.002
52319SOL    HW158854   7.424  11.595   1.999
52319SOL    HW258855   7.530  11.496   2.043
52320SOL     OW58856   3.277  13.174  11.062
52320SOL    HW158857   3.271  13.230  11.140
52320SOL    HW258858   3.361  13.129  11.071
52321SOL     OW58859  10.516  10.752  10.517
52321SOL    HW158860  10.459  10.763  10.594
52321SOL    HW258861  10.475  10.806  10.450
52322SOL     OW58862  10.974  14.653   5.902
52322SOL    HW158863  11.033  14.710   5.852
52322SOL    HW258864  10.942  14.708   5.973
52323SOL     OW58865  10.473   8.085   6.394
52323SOL    HW158866  10.478   8.018   6.326
52323SOL    HW258867  10.563   8.094   6.425
52324SOL     OW58868   7.999   2.769   6.242
52324SOL    HW158869   8.065   2.819   6.193
52324SOL    HW258870   8.028   2.678   6.235
52325SOL     OW58871   1.668   6.636   2.136
52325SOL    HW158872   1.752   6.638   2.091
52325SOL    HW258873   1.615   6.575   2.085
52326SOL     OW58874   4.859   6.507   9.362
52326SOL    HW158875   4.910   6.483   9.284
52326SOL    HW258876   4.768   6.498   9.336
52327SOL     OW58877  12.134   4.130   4.347
52327SOL    HW158878  12.116   4.096   4.435
52327SOL    HW258879  12.229   4.141   4.345
52328SOL     OW58880   0.529   1.308   4.126
52328SOL    HW158881   0.506   1.334   4.037
52328SOL    HW258882   0.458   1.250   4.154
52329SOL     OW58883  12.132   7.000  12.451
52329SOL    HW158884  12.057   6.978  12.396
52329SOL    HW258885  12.184   7.062  12.400
52330SOL     OW58886  12.377   7.533   9.858
52330SOL    HW158887  12.324   7.609   9.832
52330SOL    HW258888  12.371   7.473   9.784
52331SOL     OW58889  10.865  12.493   7.772
52331SOL    HW158890  10.867  12.468   7.864
52331SOL    HW258891  10.782  12.539   7.761
52332SOL     OW58892  12.944   3.017   4.694
52332SOL    HW158893  13.038   3.012   4.676
52332SOL    HW258894  12.913   2.927   4.687
52333SOL     OW58895  13.653   9.798  13.393
52333SOL    HW158896  13.594   9.738  13.438
52333SOL    HW258897  13.702   9.742  13.332
52334SOL     OW58898   8.544  12.304   3.983
52334SOL    HW158899   8.586  12.348   3.909
52334SOL    HW258900   8.455  12.338   3.983
52335SOL     OW58901   1.078  13.713   4.009
52335SOL    HW158902   1.121  13.685   4.090
52335SOL    HW258903   1.141  13.772   3.968
52336SOL     OW58904  14.805  13.471  12.921
52336SOL    HW158905   0.002  13.491  12.862
52336SOL    HW258906  14.737  13.534  12.897
52337SOL     OW58907   6.559   0.921  13.953
52337SOL    HW158908   6.467   0.904  13.934
52337SOL    HW258909   6.602   0.836  13.941
52338SOL     OW58910   3.359  10.671   7.390
52338SOL    HW158911   3.310  10.623   7.456
52338SOL    HW258912   3.316  10.648   7.307
52339SOL     OW58913   3.937   3.276   6.885
52339SOL    HW158914   3.937   3.349   6.823
52339SOL    HW258915   3.886   3.207   6.842
52340SOL     OW58916   6.000   2.928   7.847
52340SOL    HW158917   6.024   2.886   7.930
52340SOL    HW258918   5.913   2.894   7.827
52341SOL     OW58919   2.459   3.131   3.452
52341SOL    HW158920   2.367   3.127   3.478
52341SOL    HW258921   2.476   3.047   3.409
52342SOL     OW58922  12.557   9.586   3.767
52342SOL    HW158923  12.538   9.597   3.861
52342SOL    HW258924  12.524   9.499   3.746
52343SOL     OW58925   1.325   6.789  12.302
52343SOL    HW158926   1.317   6.759  12.393
52343SOL    HW258927   1.419   6.791  12.285
52344SOL     OW58928   3.673   9.361   3.804
52344SOL    HW158929   3.694   9.446   3.766
52344SOL    HW258930   3.705   9.366   3.894
52345SOL     OW58931   9.774  10.559   8.644
52345SOL    HW158932   9.799  10.651   8.632
52345SOL    HW258933   9.850  10.520   8.687
52346SOL     OW58934  12.788  13.165   1.790
52346SOL    HW158935  12.837  13.094   1.832
52346SOL    HW258936  12.698  13.133   1.785
52347SOL     OW58937   1.255   2.171   6.114
52347SOL    HW158938   1.345   2.150   6.141
52347SOL    HW258939   1.260   2.174   6.018
52348SOL     OW58940   4.464   4.010   4.962
52348SOL    HW158941   4.449   3.955   4.885
52348SOL    HW258942   4.479   3.948   5.034
52349SOL     OW58943   8.972   2.575  14.407
52349SOL    HW158944   9.040   2.642  14.401
52349SOL    HW258945   8.910   2.598  14.337
52350SOL     OW58946  10.214  14.344   4.884
52350SOL    HW158947  10.179  14.348   4.795
52350SOL    HW258948  10.199  14.432   4.920
52351SOL     OW58949   0.374   4.238   3.632
52351SOL    HW158950   0.283   4.251   3.603
52351SOL    HW258951   0.407   4.169   3.575
52352SOL     OW58952   4.745  11.396  10.893
52352SOL    HW158953   4.755  11.440  10.809
52352SOL    HW258954   4.811  11.328  10.892
52353SOL     OW58955   0.343   8.573   4.886
52353SOL    HW158956   0.316   8.549   4.975
52353SOL    HW258957   0.268   8.550   4.831
52354SOL     OW58958   0.491  14.702   8.329
52354SOL    HW158959   0.454  14.618   8.302
52354SOL    HW258960   0.538  14.683   8.411
52355SOL     OW58961  10.079  14.227  10.107
52355SOL    HW158962  10.172  14.246  10.103
52355SOL    HW258963  10.066  14.155  10.044
52356SOL     OW58964   3.464  11.703  12.163
52356SOL    HW158965   3.501  11.619  12.188
52356SOL    HW258966   3.450  11.696  12.068
52357SOL     OW58967   2.180  11.981  14.678
52357SOL    HW158968   2.153  11.910  14.737
52357SOL    HW258969   2.267  11.954  14.647
52358SOL     OW58970   8.145   9.699  13.532
52358SOL    HW158971   8.107   9.615  13.505
52358SOL    HW258972   8.138   9.698  13.628
52359SOL     OW58973   6.398  12.902  11.372
52359SOL    HW158974   6.393  12.949  11.455
52359SOL    HW258975   6.367  12.814  11.392
52360SOL     OW58976   2.583   2.037   8.992
52360SOL    HW158977   2.585   2.036   9.088
52360SOL    HW258978   2.672   2.063   8.967
52361SOL     OW58979   9.117   5.047   1.881
52361SOL    HW158980   9.179   5.117   1.860
52361SOL    HW258981   9.074   5.076   1.962
52362SOL     OW58982   3.720  12.128   9.391
52362SOL    HW158983   3.784  12.060   9.411
52362SOL    HW258984   3.685  12.154   9.477
52363SOL     OW58985  13.622   1.967   0.276
52363SOL    HW158986  13.610   1.952   0.183
52363SOL    HW258987  13.680   1.896   0.305
52364SOL     OW58988   4.705  11.223  11.657
52364SOL    HW158989   4.719  11.234  11.563
52364SOL    HW258990   4.767  11.284  11.697
52365SOL     OW58991   6.714   0.387   3.932
52365SOL    HW158992   6.667   0.305   3.914
52365SOL    HW258993   6.787   0.387   3.869
52366SOL     OW58994   4.937   5.866   1.403
52366SOL    HW158995   5.000   5.938   1.391
52366SOL    HW258996   4.860   5.893   1.354
52367SOL     OW58997  10.947   1.024  12.987
52367SOL    HW158998  11.038   1.014  13.017
52367SOL    HW258999  10.937   1.118  12.972
52368SOL     OW59000   1.884   4.304  11.091
52368SOL    HW159001   1.914   4.253  11.166
52368SOL    HW259002   1.800   4.340  11.118
52369SOL     OW59003   4.786   9.439  10.110
52369SOL    HW159004   4.724   9.370  10.088
52369SOL    HW259005   4.736   9.520  10.098
52370SOL     OW59006  11.939   1.220   8.028
52370SOL    HW159007  11.882   1.236   8.103
52370SOL    HW259008  11.959   1.127   8.032
52371SOL     OW59009  11.930   7.040   1.767
52371SOL    HW159010  11.922   7.055   1.673
52371SOL    HW259011  11.954   7.126   1.803
52372SOL     OW59012   6.261   2.337  14.662
52372SOL    HW159013   6.263   2.258  14.715
52372SOL    HW259014   6.178   2.379  14.684
52373SOL     OW59015  13.590   4.435  10.948
52373SOL    HW159016  13.585   4.353  10.899
52373SOL    HW259017  13.659   4.421  11.012
52374SOL     OW59018  13.258   3.007   6.059
52374SOL    HW159019  13.334   2.952   6.038
52374SOL    HW259020  13.182   2.949   6.047
52375SOL     OW59021  12.543  12.281  11.555
52375SOL    HW159022  12.574  12.340  11.486
52375SOL    HW259023  12.454  12.311  11.574
52376SOL     OW59024   2.563   6.737   0.415
52376SOL    HW159025   2.549   6.776   0.501
52376SOL    HW259026   2.488   6.764   0.363
52377SOL     OW59027   3.205   8.146   9.555
52377SOL    HW159028   3.194   8.218   9.616
52377SOL    HW259029   3.276   8.174   9.497
52378SOL     OW59030   9.899   9.417   2.113
52378SOL    HW159031   9.946   9.355   2.169
52378SOL    HW259032   9.856   9.362   2.048
52379SOL     OW59033   8.658  11.737  11.884
52379SOL    HW159034   8.665  11.734  11.980
52379SOL    HW259035   8.712  11.665  11.854
52380SOL     OW59036   6.868  11.379   2.751
52380SOL    HW159037   6.778  11.346   2.749
52380SOL    HW259038   6.871  11.433   2.831
52381SOL     OW59039   2.283   6.924  14.313
52381SOL    HW159040   2.231   6.866  14.257
52381SOL    HW259041   2.330   6.981  14.253
52382SOL     OW59042   0.789   3.423   6.553
52382SOL    HW159043   0.762   3.417   6.645
52382SOL    HW259044   0.755   3.507   6.524
52383SOL     OW59045  14.153   4.499  14.358
52383SOL    HW159046  14.110   4.478  14.440
52383SOL    HW259047  14.236   4.450  14.361
52384SOL     OW59048   9.839  12.287   5.656
52384SOL    HW159049   9.858  12.210   5.603
52384SOL    HW259050   9.761  12.264   5.706
52385SOL     OW59051  13.348  12.367  12.937
52385SOL    HW159052  13.280  12.303  12.915
52385SOL    HW259053  13.425  12.314  12.960
52386SOL     OW59054   7.932   2.139   1.433
52386SOL    HW159055   8.021   2.172   1.424
52386SOL    HW259056   7.919   2.132   1.528
52387SOL     OW59057  10.889   2.283   2.938
52387SOL    HW159058  10.963   2.224   2.925
52387SOL    HW259059  10.883   2.295   3.033
52388SOL     OW59060   1.752   2.513   0.130
52388SOL    HW159061   1.830   2.550   0.089
52388SOL    HW259062   1.725   2.578   0.194
52389SOL     OW59063   8.091   9.778   7.875
52389SOL    HW159064   8.130   9.739   7.796
52389SOL    HW259065   8.000   9.793   7.851
52390SOL     OW59066   5.868   4.548  10.880
52390SOL    HW159067   5.853   4.457  10.906
52390SOL    HW259068   5.817   4.599  10.943
52391SOL     OW59069   9.900   0.611   1.540
52391SOL    HW159070   9.912   0.563   1.622
52391SOL    HW259071   9.929   0.700   1.560
52392SOL     OW59072  12.663  12.942  11.601
52392SOL    HW159073  12.731  12.976  11.660
52392SOL    HW259074  12.582  12.981  11.634
52393SOL     OW59075   5.086   4.666   9.617
52393SOL    HW159076   5.122   4.659   9.706
52393SOL    HW259077   5.031   4.589   9.608
52394SOL     OW59078   5.102  14.838   4.207
52394SOL    HW159079   5.083   0.045   4.254
52394SOL    HW259080   5.050  14.772   4.252
52395SOL     OW59081   4.496   4.803  10.588
52395SOL    HW159082   4.573   4.850  10.620
52395SOL    HW259083   4.528   4.753  10.513
52396SOL     OW59084  10.390   6.138  11.456
52396SOL    HW159085  10.386   6.183  11.540
52396SOL    HW259086  10.303   6.150  11.418
52397SOL     OW59087   9.379   2.190   5.313
52397SOL    HW159088   9.342   2.184   5.225
52397SOL    HW259089   9.456   2.245   5.303
52398SOL     OW59090  14.702   5.179  13.481
52398SOL    HW159091  14.635   5.154  13.545
52398SOL    HW259092  14.752   5.248  13.525
52399SOL     OW59093  12.189   7.791  10.484
52399SOL    HW159094  12.201   7.749  10.399
52399SOL    HW259095  12.133   7.866  10.466
52400SOL     OW59096   5.648   9.114   2.491
52400SOL    HW159097   5.626   9.163   2.570
52400SOL    HW259098   5.692   9.178   2.435
52401SOL     OW59099   9.322   9.389   4.092
52401SOL    HW159100   9.337   9.481   4.069
52401SOL    HW259101   9.297   9.347   4.010
52402SOL     OW59102  13.111   1.154  10.088
52402SOL    HW159103  13.115   1.250  10.092
52402SOL    HW259104  13.073   1.135  10.002
52403SOL     OW59105   6.595   0.259   6.198
52403SOL    HW159106   6.616   0.198   6.127
52403SOL    HW259107   6.618   0.211   6.278
52404SOL     OW59108   5.768   7.952   9.240
52404SOL    HW159109   5.680   7.981   9.218
52404SOL    HW259110   5.818   7.966   9.160
52405SOL     OW59111  14.854   7.731   3.341
52405SOL    HW159112   0.043   7.702   3.406
52405SOL    HW259113  14.774   7.685   3.366
52406SOL     OW59114  10.712  10.773  14.546
52406SOL    HW159115  10.701  10.678  14.543
52406SOL    HW259116  10.752  10.795  14.462
52407SOL     OW59117   6.444   3.223   7.941
52407SOL    HW159118   6.352   3.218   7.965
52407SOL    HW259119   6.491   3.204   8.022
52408SOL     OW59120   1.292   5.521  12.536
52408SOL    HW159121   1.276   5.607  12.497
52408SOL    HW259122   1.248   5.459  12.478
52409SOL     OW59123   1.874   7.477   3.959
52409SOL    HW159124   1.929   7.536   3.907
52409SOL    HW259125   1.789   7.478   3.914
52410SOL     OW59126  12.451   1.245   0.181
52410SOL    HW159127  12.425   1.158   0.210
52410SOL    HW259128  12.377   1.276   0.129
52411SOL     OW59129   3.877   1.374   6.901
52411SOL    HW159130   3.857   1.402   6.990
52411SOL    HW259131   3.970   1.352   6.903
52412SOL     OW59132  11.092   9.417  12.853
52412SOL    HW159133  11.102   9.445  12.762
52412SOL    HW259134  11.175   9.438  12.894
52413SOL     OW59135   7.213  12.563  11.601
52413SOL    HW159136   7.276  12.525  11.663
52413SOL    HW259137   7.260  12.565  11.517
52414SOL     OW59138   4.746   4.884   2.968
52414SOL    HW159139   4.747   4.970   3.010
52414SOL    HW259140   4.660   4.847   2.991
52415SOL     OW59141   0.121   4.513   9.503
52415SOL    HW159142   0.028   4.487   9.504
52415SOL    HW259143   0.160   4.460   9.434
52416SOL     OW59144  13.212   1.064   1.315
52416SOL    HW159145  13.207   1.099   1.405
52416SOL    HW259146  13.250   0.977   1.325
52417SOL     OW59147   7.088  10.386  11.647
52417SOL    HW159148   7.176  10.350  11.656
52417SOL    HW259149   7.041  10.353  11.724
52418SOL     OW59150   0.437   3.122   9.031
52418SOL    HW159151   0.500   3.095   8.963
52418SOL    HW259152   0.487   3.182   9.087
52419SOL     OW59153   4.188   6.938  11.054
52419SOL    HW159154   4.112   6.954  10.998
52419SOL    HW259155   4.186   7.008  11.119
52420SOL     OW59156  13.542  14.656   5.961
52420SOL    HW159157  13.608  14.726   5.963
52420SOL    HW259158  13.475  14.688   5.901
52421SOL     OW59159   4.747  14.054   8.960
52421SOL    HW159160   4.744  13.990   8.890
52421SOL    HW259161   4.676  14.030   9.019
52422SOL     OW59162   7.418   7.671   4.789
52422SOL    HW159163   7.475   7.747   4.789
52422SOL    HW259164   7.366   7.680   4.868
52423SOL     OW59165   8.325   3.375  14.587
52423SOL    HW159166   8.307   3.283  14.568
52423SOL    HW259167   8.302   3.385  14.680
52424SOL     OW59168   9.464  11.295  12.046
52424SOL    HW159169   9.487  11.331  11.960
52424SOL    HW259170   9.412  11.217  12.026
52425SOL     OW59171   0.136   7.366   3.492
52425SOL    HW159172   0.155   7.390   3.401
52425SOL    HW259173   0.138   7.448   3.540
52426SOL     OW59174  10.267  11.062   3.509
52426SOL    HW159175  10.295  11.137   3.562
52426SOL    HW259176  10.346  11.036   3.461
52427SOL     OW59177   4.124   3.845   4.741
52427SOL    HW159178   4.147   3.832   4.833
52427SOL    HW259179   4.031   3.823   4.736
52428SOL     OW59180   2.569  10.334   5.401
52428SOL    HW159181   2.631  10.333   5.473
52428SOL    HW259182   2.512  10.409   5.419
52429SOL     OW59183  10.465   4.426   1.871
52429SOL    HW159184  10.371   4.416   1.880
52429SOL    HW259185  10.497   4.432   1.961
52430SOL     OW59186   5.831   3.335  13.306
52430SOL    HW159187   5.805   3.360  13.217
52430SOL    HW259188   5.925   3.347  13.309
52431SOL     OW59189   6.449  12.591   6.864
52431SOL    HW159190   6.381  12.527   6.842
52431SOL    HW259191   6.531  12.542   6.858
52432SOL     OW59192   8.428  11.305   1.438
52432SOL    HW159193   8.377  11.296   1.357
52432SOL    HW259194   8.405  11.391   1.472
52433SOL     OW59195   5.297  13.037   5.543
52433SOL    HW159196   5.228  13.007   5.484
52433SOL    HW259197   5.309  13.129   5.521
52434SOL     OW59198   1.020   9.756  13.578
52434SOL    HW159199   1.113   9.743  13.560
52434SOL    HW259200   1.012   9.850  13.594
52435SOL     OW59201   4.662   8.957  14.320
52435SOL    HW159202   4.595   9.025  14.327
52435SOL    HW259203   4.626   8.882  14.368
52436SOL     OW59204  13.559  10.791   8.129
52436SOL    HW159205  13.593  10.803   8.040
52436SOL    HW259206  13.579  10.874   8.173
52437SOL     OW59207   6.675   1.462   8.592
52437SOL    HW159208   6.720   1.547   8.590
52437SOL    HW259209   6.605   1.471   8.527
52438SOL     OW59210   1.590   9.473   1.380
52438SOL    HW159211   1.570   9.536   1.311
52438SOL    HW259212   1.516   9.479   1.440
52439SOL     OW59213   3.259  13.217   1.563
52439SOL    HW159214   3.346  13.179   1.571
52439SOL    HW259215   3.203  13.142   1.541
52440SOL     OW59216  10.308   0.481   8.594
52440SOL    HW159217  10.213   0.490   8.591
52440SOL    HW259218  10.326   0.398   8.548
52441SOL     OW59219   4.759   8.179  14.193
52441SOL    HW159220   4.675   8.213  14.164
52441SOL    HW259221   4.823   8.221  14.135
52442SOL     OW59222   5.266  12.169   9.480
52442SOL    HW159223   5.292  12.091   9.529
52442SOL    HW259224   5.332  12.234   9.502
52443SOL     OW59225   5.447   8.327   5.433
52443SOL    HW159226   5.428   8.401   5.491
52443SOL    HW259227   5.524   8.354   5.383
52444SOL     OW59228   8.351   1.626   6.092
52444SOL    HW159229   8.285   1.693   6.072
52444SOL    HW259230   8.316   1.580   6.168
52445SOL     OW59231  12.850   6.485  10.702
52445SOL    HW159232  12.855   6.518  10.791
52445SOL    HW259233  12.929   6.431  10.691
52446SOL     OW59234  13.654   6.204   8.207
52446SOL    HW159235  13.561   6.182   8.196
52446SOL    HW259236  13.699   6.120   8.199
52447SOL     OW59237  14.645   1.011  11.641
52447SOL    HW159238  14.692   1.075  11.693
52447SOL    HW259239  14.581   1.062  11.591
52448SOL     OW59240  12.070   9.035   4.966
52448SOL    HW159241  12.129   9.101   5.002
52448SOL    HW259242  12.073   8.963   5.029
52449SOL     OW59243  12.170   2.252   3.677
52449SOL    HW159244  12.078   2.225   3.683
52449SOL    HW259245  12.210   2.219   3.758
52450SOL     OW59246   6.486  11.987   3.763
52450SOL    HW159247   6.534  12.048   3.819
52450SOL    HW259248   6.531  11.903   3.775
52451SOL     OW59249  13.562  12.997   8.756
52451SOL    HW159250  13.608  12.926   8.801
52451SOL    HW259251  13.575  12.978   8.663
52452SOL     OW59252  13.944   5.033   4.146
52452SOL    HW159253  13.917   4.954   4.193
52452SOL    HW259254  14.029   5.010   4.108
52453SOL     OW59255   1.625   9.092   7.058
52453SOL    HW159256   1.572   9.104   6.980
52453SOL    HW259257   1.564   9.105   7.131
52454SOL     OW59258   9.805   8.879  14.820
52454SOL    HW159259   9.837   8.796  14.854
52454SOL    HW259260   9.821   8.941   0.016
52455SOL     OW59261  14.871   5.974  10.459
52455SOL    HW159262   0.041   5.918  10.522
52455SOL    HW259263  14.835   5.913  10.395
52456SOL     OW59264  10.156   3.778   7.506
52456SOL    HW159265  10.089   3.733   7.455
52456SOL    HW259266  10.215   3.815   7.441
52457SOL     OW59267   3.579   3.646   0.194
52457SOL    HW159268   3.606   3.580   0.130
52457SOL    HW259269   3.519   3.703   0.146
52458SOL     OW59270  13.075  14.578   4.980
52458SOL    HW159271  13.020  14.541   5.049
52458SOL    HW259272  13.075  14.672   4.997
52459SOL     OW59273   0.575   6.790  12.507
52459SOL    HW159274   0.545   6.873  12.470
52459SOL    HW259275   0.498   6.754  12.552
52460SOL     OW59276   6.423  11.032   1.963
52460SOL    HW159277   6.464  11.118   1.959
52460SOL    HW259278   6.384  11.027   2.051
52461SOL     OW59279   2.815   6.440   1.004
52461SOL    HW159280   2.872   6.470   0.933
52461SOL    HW259281   2.859   6.470   1.084
52462SOL     OW59282   3.226   8.181   1.960
52462SOL    HW159283   3.219   8.272   1.930
52462SOL    HW259284   3.317   8.172   1.987
52463SOL     OW59285   6.709   8.442  12.498
52463SOL    HW159286   6.720   8.468  12.590
52463SOL    HW259287   6.648   8.507  12.463
52464SOL     OW59288  11.092   3.573   7.737
52464SOL    HW159289  11.008   3.597   7.777
52464SOL    HW259290  11.126   3.503   7.793
52465SOL     OW59291  12.256   9.736  14.417
52465SOL    HW159292  12.274   9.683  14.340
52465SOL    HW259293  12.263   9.676  14.491
52466SOL     OW59294   9.321   7.150  11.920
52466SOL    HW159295   9.362   7.065  11.901
52466SOL    HW259296   9.391   7.214  11.905
52467SOL     OW59297   0.165   8.483   8.657
52467SOL    HW159298   0.113   8.500   8.578
52467SOL    HW259299   0.243   8.437   8.625
52468SOL     OW59300   4.726   9.295  11.980
52468SOL    HW159301   4.663   9.229  12.007
52468SOL    HW259302   4.739   9.279  11.886
52469SOL     OW59303  13.152   6.749  13.074
52469SOL    HW159304  13.069   6.715  13.039
52469SOL    HW259305  13.219   6.703  13.024
52470SOL     OW59306  10.669   6.266   1.839
52470SOL    HW159307  10.729   6.337   1.815
52470SOL    HW259308  10.583   6.296   1.811
52471SOL     OW59309   6.559   1.869   2.490
52471SOL    HW159310   6.517   1.888   2.407
52471SOL    HW259311   6.492   1.824   2.541
52472SOL     OW59312   1.678   3.857   9.219
52472SOL    HW159313   1.705   3.802   9.146
52472SOL    HW259314   1.756   3.866   9.273
52473SOL     OW59315   0.908   5.911  10.752
52473SOL    HW159316   0.929   5.824  10.786
52473SOL    HW259317   0.932   5.908  10.659
52474SOL     OW59318  11.146   1.396   6.658
52474SOL    HW159319  11.074   1.459   6.653
52474SOL    HW259320  11.221   1.443   6.621
52475SOL     OW59321   3.056   5.329  14.512
52475SOL    HW159322   3.102   5.323  14.595
52475SOL    HW259323   3.119   5.300  14.447
52476SOL     OW59324   9.448   7.311   2.075
52476SOL    HW159325   9.435   7.329   2.168
52476SOL    HW259326   9.509   7.238   2.073
52477SOL     OW59327   5.423   1.022   4.955
52477SOL    HW159328   5.482   0.948   4.940
52477SOL    HW259329   5.401   1.054   4.867
52478SOL     OW59330  10.806  14.502   1.885
52478SOL    HW159331  10.853  14.474   1.963
52478SOL    HW259332  10.826  14.435   1.820
52479SOL     OW59333  13.893   3.181   7.230
52479SOL    HW159334  13.939   3.107   7.191
52479SOL    HW259335  13.807   3.182   7.188
52480SOL     OW59336   1.701   2.346  10.935
52480SOL    HW159337   1.792   2.359  10.909
52480SOL    HW259338   1.662   2.296  10.864
52481SOL     OW59339  12.943  12.021  11.705
52481SOL    HW159340  12.932  11.971  11.624
52481SOL    HW259341  12.960  12.110  11.675
52482SOL     OW59342  10.998  11.334  11.053
52482SOL    HW159343  11.007  11.387  11.133
52482SOL    HW259344  11.087  11.332  11.017
52483SOL     OW59345   8.725  12.631   2.672
52483SOL    HW159346   8.790  12.599   2.734
52483SOL    HW259347   8.769  12.703   2.626
52484SOL     OW59348  13.465  14.226  10.917
52484SOL    HW159349  13.501  14.308  10.947
52484SOL    HW259350  13.540  14.167  10.911
52485SOL     OW59351   3.252  11.888   3.387
52485SOL    HW159352   3.289  11.811   3.344
52485SOL    HW259353   3.163  11.863   3.410
52486SOL     OW59354   5.236   3.210   7.418
52486SOL    HW159355   5.294   3.282   7.394
52486SOL    HW259356   5.241   3.149   7.344
52487SOL     OW59357   6.655  10.233  10.731
52487SOL    HW159358   6.743  10.234  10.768
52487SOL    HW259359   6.609  10.303  10.776
52488SOL     OW59360  11.106   9.321  10.266
52488SOL    HW159361  11.123   9.305  10.358
52488SOL    HW259362  11.185   9.367  10.235
52489SOL     OW59363   0.199   1.512   9.178
52489SOL    HW159364   0.243   1.469   9.251
52489SOL    HW259365   0.107   1.487   9.187
52490SOL     OW59366  10.798   6.326   6.116
52490SOL    HW159367  10.778   6.410   6.074
52490SOL    HW259368  10.714   6.279   6.116
52491SOL     OW59369   4.333   1.079  11.134
52491SOL    HW159370   4.330   1.154  11.075
52491SOL    HW259371   4.247   1.037  11.123
52492SOL     OW59372   7.833   8.517  12.545
52492SOL    HW159373   7.851   8.425  12.529
52492SOL    HW259374   7.913   8.562  12.517
52493SOL     OW59375   9.065   0.910   9.630
52493SOL    HW159376   9.126   0.874   9.694
52493SOL    HW259377   8.983   0.863   9.645
52494SOL     OW59378   0.212  14.384   7.819
52494SOL    HW159379   0.194  14.396   7.726
52494SOL    HW259380   0.128  14.359   7.857
52495SOL     OW59381   4.955  14.069  10.490
52495SOL    HW159382   4.877  14.048  10.438
52495SOL    HW259383   4.932  14.042  10.579
52496SOL     OW59384   5.782  12.600   4.018
52496SOL    HW159385   5.704  12.651   4.041
52496SOL    HW259386   5.849  12.629   4.079
52497SOL     OW59387   2.119   8.131   4.865
52497SOL    HW159388   2.084   8.099   4.948
52497SOL    HW259389   2.042   8.140   4.809
52498SOL     OW59390   4.600   4.223   7.273
52498SOL    HW159391   4.630   4.285   7.340
52498SOL    HW259392   4.678   4.204   7.222
52499SOL     OW59393   3.680   5.282   4.139
52499SOL    HW159394   3.657   5.261   4.229
52499SOL    HW259395   3.695   5.197   4.097
52500SOL     OW59396  11.819   9.633  13.684
52500SOL    HW159397  11.764   9.711  13.692
52500SOL    HW259398  11.874   9.635  13.762
52501SOL     OW59399  13.707   3.913   3.287
52501SOL    HW159400  13.782   3.868   3.248
52501SOL    HW259401  13.647   3.928   3.214
52502SOL     OW59402   0.261   3.828   0.649
52502SOL    HW159403   0.290   3.738   0.663
52502SOL    HW259404   0.285   3.847   0.558
52503SOL     OW59405   6.214   1.850   9.495
52503SOL    HW159406   6.301   1.825   9.462
52503SOL    HW259407   6.183   1.772   9.540
52504SOL     OW59408  13.799   1.827   1.842
52504SOL    HW159409  13.796   1.761   1.911
52504SOL    HW259410  13.890   1.827   1.812
52505SOL     OW59411   5.606   6.649   5.389
52505SOL    HW159412   5.693   6.616   5.410
52505SOL    HW259413   5.597   6.728   5.443
52506SOL     OW59414   9.730  14.697  10.843
52506SOL    HW159415   9.747  14.776  10.791
52506SOL    HW259416   9.816  14.672  10.876
52507SOL     OW59417   5.851  12.819  11.710
52507SOL    HW159418   5.935  12.846  11.746
52507SOL    HW259419   5.850  12.856  11.622
52508SOL     OW59420   8.812   5.865  13.189
52508SOL    HW159421   8.874   5.844  13.259
52508SOL    HW259422   8.864   5.915  13.126
52509SOL     OW59423   7.382  12.999  12.436
52509SOL    HW159424   7.292  13.024  12.459
52509SOL    HW259425   7.406  12.933  12.502
52510SOL     OW59426  13.508   9.215  10.688
52510SOL    HW159427  13.412   9.212  10.685
52510SOL    HW259428  13.529   9.212  10.781
52511SOL     OW59429   3.101   9.761   5.966
52511SOL    HW159430   3.103   9.665   5.966
52511SOL    HW259431   3.073   9.784   6.055
52512SOL     OW59432   5.909   2.315   0.848
52512SOL    HW159433   5.939   2.389   0.797
52512SOL    HW259434   5.886   2.249   0.783
52513SOL     OW59435   8.752  11.229   8.607
52513SOL    HW159436   8.810  11.237   8.532
52513SOL    HW259437   8.664  11.228   8.570
52514SOL     OW59438   7.988   6.391   7.321
52514SOL    HW159439   7.964   6.468   7.372
52514SOL    HW259440   8.074   6.366   7.354
52515SOL     OW59441  14.412   6.850  12.367
52515SOL    HW159442  14.352   6.849  12.441
52515SOL    HW259443  14.356   6.844  12.290
52516SOL     OW59444   4.924  13.327  10.025
52516SOL    HW159445   4.864  13.302   9.954
52516SOL    HW259446   4.868  13.371  10.089
52517SOL     OW59447   8.604  12.376   7.087
52517SOL    HW159448   8.575  12.377   7.178
52517SOL    HW259449   8.559  12.301   7.048
52518SOL     OW59450   4.234   4.747   4.578
52518SOL    HW159451   4.143   4.725   4.598
52518SOL    HW259452   4.284   4.667   4.598
52519SOL     OW59453  12.775   9.221  14.268
52519SOL    HW159454  12.767   9.126  14.274
52519SOL    HW259455  12.687   9.252  14.248
52520SOL     OW59456  14.213  13.495   8.489
52520SOL    HW159457  14.156  13.565   8.521
52520SOL    HW259458  14.298  13.515   8.528
52521SOL     OW59459  12.032   0.712   0.687
52521SOL    HW159460  12.041   0.618   0.706
52521SOL    HW259461  11.944   0.734   0.718
52522SOL     OW59462   0.773   6.598   0.374
52522SOL    HW159463   0.865   6.624   0.372
52522SOL    HW259464   0.757   6.575   0.465
52523SOL     OW59465  12.830   3.583   5.280
52523SOL    HW159466  12.748   3.582   5.329
52523SOL    HW259467  12.807   3.547   5.195
52524SOL     OW59468   6.326   0.019   5.551
52524SOL    HW159469   6.233   0.039   5.563
52524SOL    HW259470   6.347  14.832   5.622
52525SOL     OW59471  11.164  13.818   7.230
52525SOL    HW159472  11.185  13.875   7.305
52525SOL    HW259473  11.243  13.766   7.218
52526SOL     OW59474   0.700   6.669   6.803
52526SOL    HW159475   0.662   6.754   6.782
52526SOL    HW259476   0.760   6.687   6.875
52527SOL     OW59477   2.393  14.477   1.629
52527SOL    HW159478   2.339  14.556   1.622
52527SOL    HW259479   2.468  14.505   1.681
52528SOL     OW59480   6.093   5.330   3.182
52528SOL    HW159481   6.021   5.287   3.228
52528SOL    HW259482   6.136   5.260   3.132
52529SOL     OW59483   5.001   0.193  10.508
52529SOL    HW159484   5.068   0.240  10.557
52529SOL    HW259485   4.968   0.257  10.445
52530SOL     OW59486   7.543  12.723   5.587
52530SOL    HW159487   7.622  12.686   5.548
52530SOL    HW259488   7.492  12.647   5.615
52531SOL     OW59489  13.913   9.106  10.634
52531SOL    HW159490  13.828   9.151  10.638
52531SOL    HW259491  13.908   9.038  10.700
52532SOL     OW59492  10.353  13.123   8.465
52532SOL    HW159493  10.280  13.158   8.413
52532SOL    HW259494  10.426  13.119   8.404
52533SOL     OW59495  11.169   7.237  14.256
52533SOL    HW159496  11.085   7.273  14.285
52533SOL    HW259497  11.153   7.143  14.244
52534SOL     OW59498  12.107  11.358  12.471
52534SOL    HW159499  12.014  11.342  12.486
52534SOL    HW259500  12.142  11.383  12.556
52535SOL     OW59501   6.890   9.524   1.055
52535SOL    HW159502   6.807   9.505   1.099
52535SOL    HW259503   6.874   9.605   1.006
52536SOL     OW59504  14.170   1.992  13.609
52536SOL    HW159505  14.158   2.086  13.619
52536SOL    HW259506  14.082   1.955  13.616
52537SOL     OW59507   9.698  12.724  12.593
52537SOL    HW159508   9.712  12.693  12.682
52537SOL    HW259509   9.623  12.673  12.561
52538SOL     OW59510   7.749  14.286  10.513
52538SOL    HW159511   7.738  14.371  10.471
52538SOL    HW259512   7.844  14.277  10.523
52539SOL     OW59513   8.386   8.120   7.775
52539SOL    HW159514   8.406   8.144   7.685
52539SOL    HW259515   8.460   8.154   7.826
52540SOL     OW59516   2.134   5.325   0.778
52540SOL    HW159517   2.177   5.382   0.842
52540SOL    HW259518   2.125   5.241   0.823
52541SOL     OW59519   3.034  11.496   9.756
52541SOL    HW159520   2.943  11.526   9.763
52541SOL    HW259521   3.083  11.553   9.816
52542SOL     OW59522  12.823  11.377   8.791
52542SOL    HW159523  12.900  11.376   8.733
52542SOL    HW259524  12.807  11.469   8.807
52543SOL     OW59525   2.546   9.005  13.571
52543SOL    HW159526   2.579   8.960  13.493
52543SOL    HW259527   2.618   9.000  13.633
52544SOL     OW59528   7.944   5.703   7.406
52544SOL    HW159529   8.029   5.708   7.362
52544SOL    HW259530   7.879   5.712   7.336
52545SOL     OW59531   6.726  11.026   9.105
52545SOL    HW159532   6.809  11.062   9.137
52545SOL    HW259533   6.670  11.024   9.182
52546SOL     OW59534   6.213  13.066   8.974
52546SOL    HW159535   6.303  13.051   8.944
52546SOL    HW259536   6.171  13.109   8.900
52547SOL     OW59537   9.545  13.307   5.119
52547SOL    HW159538   9.610  13.248   5.157
52547SOL    HW259539   9.596  13.372   5.071
52548SOL     OW59540   9.324  10.667   8.558
52548SOL    HW159541   9.343  10.575   8.537
52548SOL    HW259542   9.324  10.669   8.654
52549SOL     OW59543   7.000   8.490   6.534
52549SOL    HW159544   6.968   8.501   6.624
52549SOL    HW259545   6.923   8.461   6.485
52550SOL     OW59546   5.873   7.633   2.680
52550SOL    HW159547   5.958   7.656   2.717
52550SOL    HW259548   5.880   7.539   2.660
52551SOL     OW59549   4.588  13.378   4.148
52551SOL    HW159550   4.563  13.287   4.134
52551SOL    HW259551   4.649  13.375   4.222
52552SOL     OW59552  14.750   6.985   0.426
52552SOL    HW159553  14.725   6.895   0.448
52552SOL    HW259554  14.801   6.977   0.346
52553SOL     OW59555   8.006   6.339   0.217
52553SOL    HW159556   8.101   6.348   0.222
52553SOL    HW259557   7.991   6.247   0.198
52554SOL     OW59558  12.559   6.710  10.930
52554SOL    HW159559  12.607   6.781  10.889
52554SOL    HW259560  12.485   6.753  10.973
52555SOL     OW59561   8.300   1.938  11.668
52555SOL    HW159562   8.319   2.024  11.629
52555SOL    HW259563   8.369   1.924  11.732
52556SOL     OW59564   9.620   2.129  11.106
52556SOL    HW159565   9.677   2.052  11.104
52556SOL    HW259566   9.666   2.191  11.163
52557SOL     OW59567   0.118   7.047   8.091
52557SOL    HW159568   0.132   6.969   8.037
52557SOL    HW259569   0.023   7.054   8.098
52558SOL     OW59570   0.648   6.206  12.808
52558SOL    HW159571   0.571   6.168  12.766
52558SOL    HW259572   0.653   6.295  12.773
52559SOL     OW59573   2.656  11.857   6.330
52559SOL    HW159574   2.705  11.832   6.409
52559SOL    HW259575   2.635  11.774   6.288
52560SOL     OW59576   3.737  11.153  13.641
52560SOL    HW159577   3.718  11.077  13.585
52560SOL    HW259578   3.735  11.118  13.730
52561SOL     OW59579   5.319  12.812   9.507
52561SOL    HW159580   5.390  12.858   9.553
52561SOL    HW259581   5.241  12.864   9.525
52562SOL     OW59582  14.734   6.713   6.303
52562SOL    HW159583  14.641   6.717   6.285
52562SOL    HW259584  14.772   6.787   6.256
52563SOL     OW59585   9.811  13.841   8.936
52563SOL    HW159586   9.794  13.769   8.996
52563SOL    HW259587   9.803  13.920   8.989
52564SOL     OW59588   4.829   3.223  14.459
52564SOL    HW159589   4.883   3.219  14.380
52564SOL    HW259590   4.787   3.309  14.456
52565SOL     OW59591   8.789  14.128   6.533
52565SOL    HW159592   8.873  14.171   6.545
52565SOL    HW259593   8.745  14.137   6.618
52566SOL     OW59594   3.414  12.323   9.481
52566SOL    HW159595   3.386  12.296   9.394
52566SOL    HW259596   3.360  12.271   9.541
52567SOL     OW59597  11.301  10.386   9.785
52567SOL    HW159598  11.369  10.443   9.819
52567SOL    HW259599  11.335  10.298   9.796
52568SOL     OW59600   2.843  13.581  14.604
52568SOL    HW159601   2.933  13.601  14.631
52568SOL    HW259602   2.853  13.522  14.530
52569SOL     OW59603  14.023   5.272   7.142
52569SOL    HW159604  13.985   5.244   7.225
52569SOL    HW259605  14.105   5.224   7.135
52570SOL     OW59606   7.901   5.577   0.969
52570SOL    HW159607   7.902   5.660   0.923
52570SOL    HW259608   7.949   5.517   0.912
52571SOL     OW59609  10.043   2.126   5.102
52571SOL    HW159610  10.102   2.147   5.030
52571SOL    HW259611   9.955   2.135   5.064
52572SOL     OW59612   1.618  14.797  11.957
52572SOL    HW159613   1.698  14.754  11.929
52572SOL    HW259614   1.647   0.004  11.997
52573SOL     OW59615   0.690   2.939   0.653
52573SOL    HW159616   0.671   2.970   0.565
52573SOL    HW259617   0.779   2.902   0.647
52574SOL     OW59618  14.551   6.037   6.107
52574SOL    HW159619  14.644   6.029   6.130
52574SOL    HW259620  14.522   5.947   6.091
52575SOL     OW59621   4.991   1.226   9.070
52575SOL    HW159622   4.954   1.145   9.105
52575SOL    HW259623   4.922   1.262   9.015
52576SOL     OW59624   2.637   6.639   8.034
52576SOL    HW159625   2.593   6.646   8.118
52576SOL    HW259626   2.571   6.603   7.975
52577SOL     OW59627  10.561   2.755   1.866
52577SOL    HW159628  10.642   2.804   1.858
52577SOL    HW259629  10.528   2.775   1.954
52578SOL     OW59630   4.348   5.020  11.572
52578SOL    HW159631   4.272   4.962  11.578
52578SOL    HW259632   4.374   5.016  11.480
52579SOL     OW59633  13.925   5.226   2.448
52579SOL    HW159634  13.930   5.303   2.505
52579SOL    HW259635  13.882   5.160   2.501
52580SOL     OW59636   8.615   9.987   9.637
52580SOL    HW159637   8.524  10.015   9.633
52580SOL    HW259638   8.644  10.011   9.725
52581SOL     OW59639   0.531   3.205   1.704
52581SOL    HW159640   0.477   3.140   1.748
52581SOL    HW259641   0.499   3.206   1.614
52582SOL     OW59642   0.523   5.357   2.901
52582SOL    HW159643   0.450   5.328   2.956
52582SOL    HW259644   0.559   5.433   2.947
52583SOL     OW59645  10.885   1.884   7.057
52583SOL    HW159646  10.978   1.893   7.077
52583SOL    HW259647  10.875   1.793   7.028
52584SOL     OW59648   0.813   4.130  11.255
52584SOL    HW159649   0.905   4.146  11.278
52584SOL    HW259650   0.767   4.127  11.339
52585SOL     OW59651   7.470  10.249   3.581
52585SOL    HW159652   7.491  10.247   3.674
52585SOL    HW259653   7.397  10.189   3.571
52586SOL     OW59654   4.491   4.954   0.332
52586SOL    HW159655   4.533   4.954   0.247
52586SOL    HW259656   4.546   4.897   0.387
52587SOL     OW59657   0.961   4.100   9.522
52587SOL    HW159658   0.915   4.108   9.438
52587SOL    HW259659   1.050   4.076   9.497
52588SOL     OW59660   8.213   5.242   7.120
52588SOL    HW159661   8.260   5.245   7.204
52588SOL    HW259662   8.186   5.150   7.112
52589SOL     OW59663  13.304   8.641   1.606
52589SOL    HW159664  13.348   8.703   1.664
52589SOL    HW259665  13.227   8.688   1.576
52590SOL     OW59666   5.822   7.843  10.706
52590SOL    HW159667   5.849   7.905  10.638
52590SOL    HW259668   5.761   7.784  10.662
52591SOL     OW59669   3.581   0.938  12.492
52591SOL    HW159670   3.522   0.941  12.567
52591SOL    HW259671   3.577   0.848  12.461
52592SOL     OW59672  12.928   0.861   3.872
52592SOL    HW159673  12.899   0.891   3.786
52592SOL    HW259674  12.848   0.834   3.916
52593SOL     OW59675  13.806   4.875   0.927
52593SOL    HW159676  13.783   4.958   0.970
52593SOL    HW259677  13.722   4.829   0.920
52594SOL     OW59678   5.827   2.909  11.006
52594SOL    HW159679   5.818   2.842  11.073
52594SOL    HW259680   5.741   2.911  10.964
52595SOL     OW59681   5.208  14.806   5.743
52595SOL    HW159682   5.184  14.828   5.833
52595SOL    HW259683   5.302  14.789   5.747
52596SOL     OW59684   1.543   5.050   4.149
52596SOL    HW159685   1.477   4.982   4.133
52596SOL    HW259686   1.554   5.050   4.244
52597SOL     OW59687   2.078   3.411   4.320
52597SOL    HW159688   1.995   3.400   4.365
52597SOL    HW259689   2.055   3.440   4.231
52598SOL     OW59690   6.117   3.520   0.969
52598SOL    HW159691   6.170   3.583   0.919
52598SOL    HW259692   6.170   3.441   0.973
52599SOL     OW59693   0.245  14.324   4.737
52599SOL    HW159694   0.250  14.385   4.811
52599SOL    HW259695   0.184  14.366   4.676
52600SOL     OW59696  14.373   7.116   2.462
52600SOL    HW159697  14.314   7.107   2.387
52600SOL    HW259698  14.386   7.027   2.494
52601SOL     OW59699   3.653  14.633   2.461
52601SOL    HW159700   3.572  14.591   2.431
52601SOL    HW259701   3.684  14.577   2.532
52602SOL     OW59702   3.186  13.923   5.764
52602SOL    HW159703   3.162  13.865   5.835
52602SOL    HW259704   3.135  13.891   5.689
52603SOL     OW59705   3.402   0.954   6.530
52603SOL    HW159706   3.324   0.986   6.485
52603SOL    HW259707   3.370   0.928   6.617
52604SOL     OW59708   5.189  13.452   9.877
52604SOL    HW159709   5.113  13.398   9.897
52604SOL    HW259710   5.226  13.476   9.962
52605SOL     OW59711   9.258  11.856   4.606
52605SOL    HW159712   9.182  11.908   4.579
52605SOL    HW259713   9.284  11.893   4.690
52606SOL     OW59714   7.842  11.412   7.572
52606SOL    HW159715   7.887  11.491   7.543
52606SOL    HW259716   7.858  11.408   7.666
52607SOL     OW59717   0.609   5.372   0.889
52607SOL    HW159718   0.668   5.366   0.814
52607SOL    HW259719   0.648   5.439   0.945
52608SOL     OW59720   0.901  13.390  10.262
52608SOL    HW159721   0.932  13.331  10.331
52608SOL    HW259722   0.941  13.356  10.182
52609SOL     OW59723   7.270   4.865  13.882
52609SOL    HW159724   7.326   4.942  13.894
52609SOL    HW259725   7.230   4.878  13.796
52610SOL     OW59726   6.692  12.317  14.194
52610SOL    HW159727   6.650  12.319  14.281
52610SOL    HW259728   6.642  12.379  14.142
52611SOL     OW59729   7.540   5.499   5.724
52611SOL    HW159730   7.489   5.421   5.703
52611SOL    HW259731   7.482   5.551   5.779
52612SOL     OW59732   1.655   0.899   1.451
52612SOL    HW159733   1.606   0.901   1.369
52612SOL    HW259734   1.686   0.809   1.459
52613SOL     OW59735   4.389   9.941   7.296
52613SOL    HW159736   4.327   9.983   7.355
52613SOL    HW259737   4.339   9.871   7.254
52614SOL     OW59738   4.771   6.467   7.014
52614SOL    HW159739   4.738   6.435   7.098
52614SOL    HW259740   4.842   6.527   7.038
52615SOL     OW59741  14.565   3.695   8.756
52615SOL    HW159742  14.576   3.714   8.849
52615SOL    HW259743  14.653   3.675   8.725
52616SOL     OW59744  10.928   4.727   4.103
52616SOL    HW159745  10.859   4.723   4.168
52616SOL    HW259746  10.980   4.804   4.127
52617SOL     OW59747   1.260   6.687   0.985
52617SOL    HW159748   1.233   6.753   1.049
52617SOL    HW259749   1.356   6.696   0.981
52618SOL     OW59750   7.636   4.088  12.507
52618SOL    HW159751   7.627   4.151  12.436
52618SOL    HW259752   7.660   4.006  12.464
52619SOL     OW59753  10.293  12.228   6.621
52619SOL    HW159754  10.371  12.225   6.676
52619SOL    HW259755  10.324  12.199   6.535
52620SOL     OW59756   5.454   0.887  10.882
52620SOL    HW159757   5.492   0.812  10.927
52620SOL    HW259758   5.522   0.917  10.822
52621SOL     OW59759  12.533   7.292   3.732
52621SOL    HW159760  12.524   7.375   3.686
52621SOL    HW259761  12.468   7.296   3.802
52622SOL     OW59762  10.547  12.566  14.575
52622SOL    HW159763  10.629  12.516  14.582
52622SOL    HW259764  10.554  12.633  14.643
52623SOL     OW59765   0.201  11.736  14.862
52623SOL    HW159766   0.144  11.741  14.785
52623SOL    HW259767   0.278  11.786  14.838
52624SOL     OW59768  13.777   4.722   2.720
52624SOL    HW159769  13.858   4.689   2.760
52624SOL    HW259770  13.805   4.795   2.666
52625SOL     OW59771  13.809  13.906  13.265
52625SOL    HW159772  13.799  13.992  13.307
52625SOL    HW259773  13.860  13.923  13.186
52626SOL     OW59774   1.369   8.823   7.490
52626SOL    HW159775   1.322   8.753   7.534
52626SOL    HW259776   1.307   8.897   7.490
52627SOL     OW59777  11.336   8.864  13.171
52627SOL    HW159778  11.427   8.859  13.140
52627SOL    HW259779  11.343   8.860  13.266
52628SOL     OW59780   0.648   2.430   7.278
52628SOL    HW159781   0.608   2.344   7.294
52628SOL    HW259782   0.574   2.488   7.261
52629SOL     OW59783   4.868   0.561  11.512
52629SOL    HW159784   4.817   0.514  11.579
52629SOL    HW259785   4.803   0.592  11.450
52630SOL     OW59786  13.030  13.322  12.475
52630SOL    HW159787  13.095  13.347  12.409
52630SOL    HW259788  12.946  13.329  12.431
52631SOL     OW59789   6.827   2.445   9.557
52631SOL    HW159790   6.808   2.532   9.591
52631SOL    HW259791   6.744   2.415   9.518
52632SOL     OW59792  12.997  14.235   1.843
52632SOL    HW159793  12.963  14.201   1.926
52632SOL    HW259794  12.980  14.165   1.780
52633SOL     OW59795  13.942   8.795  12.406
52633SOL    HW159796  13.928   8.825  12.496
52633SOL    HW259797  13.888   8.853  12.353
52634SOL     OW59798   7.715   7.353   0.514
52634SOL    HW159799   7.632   7.304   0.517
52634SOL    HW259800   7.699   7.430   0.568
52635SOL     OW59801   9.515   1.255   0.527
52635SOL    HW159802   9.438   1.202   0.545
52635SOL    HW259803   9.561   1.260   0.611
52636SOL     OW59804   8.907   9.605  12.410
52636SOL    HW159805   8.922   9.668  12.481
52636SOL    HW259806   8.948   9.525  12.440
52637SOL     OW59807   7.397   6.349   7.367
52637SOL    HW159808   7.311   6.381   7.338
52637SOL    HW259809   7.460   6.403   7.320
52638SOL     OW59810   6.196  10.828   9.352
52638SOL    HW159811   6.218  10.880   9.275
52638SOL    HW259812   6.210  10.737   9.325
52639SOL     OW59813  10.388   0.483   7.944
52639SOL    HW159814  10.404   0.391   7.923
52639SOL    HW259815  10.474   0.518   7.968
52640SOL     OW59816   9.974   7.523   8.689
52640SOL    HW159817   9.941   7.468   8.617
52640SOL    HW259818  10.069   7.516   8.682
52641SOL     OW59819   5.559  10.423   3.931
52641SOL    HW159820   5.547  10.415   4.025
52641SOL    HW259821   5.525  10.340   3.895
52642SOL     OW59822   3.470   9.218  11.676
52642SOL    HW159823   3.394   9.178  11.634
52642SOL    HW259824   3.509   9.146  11.727
52643SOL     OW59825   1.578   6.446  13.959
52643SOL    HW159826   1.495   6.401  13.941
52643SOL    HW259827   1.642   6.375  13.968
52644SOL     OW59828  12.399   7.082   8.388
52644SOL    HW159829  12.412   7.015   8.455
52644SOL    HW259830  12.397   7.165   8.437
52645SOL     OW59831   3.452   8.229   0.508
52645SOL    HW159832   3.439   8.324   0.510
52645SOL    HW259833   3.498   8.210   0.589
52646SOL     OW59834   1.289  11.046   0.671
52646SOL    HW159835   1.280  11.127   0.620
52646SOL    HW259836   1.321  11.075   0.757
52647SOL     OW59837   1.605   1.918   1.948
52647SOL    HW159838   1.540   1.955   2.008
52647SOL    HW259839   1.553   1.883   1.875
52648SOL     OW59840   5.194   4.601   9.853
52648SOL    HW159841   5.274   4.622   9.901
52648SOL    HW259842   5.175   4.511   9.878
52649SOL     OW59843   5.504   7.499  11.514
52649SOL    HW159844   5.600   7.499  11.516
52649SOL    HW259845   5.480   7.590  11.536
52650SOL     OW59846   7.860  14.460   5.940
52650SOL    HW159847   7.871  14.499   5.853
52650SOL    HW259848   7.791  14.395   5.929
52651SOL     OW59849   5.099  13.988   6.465
52651SOL    HW159850   5.009  13.994   6.496
52651SOL    HW259851   5.117  13.895   6.458
52652SOL     OW59852   6.151   2.211   7.903
52652SOL    HW159853   6.206   2.133   7.912
52652SOL    HW259854   6.210   2.278   7.870
52653SOL     OW59855   4.462   2.575  11.925
52653SOL    HW159856   4.438   2.605  11.837
52653SOL    HW259857   4.557   2.571  11.924
52654SOL     OW59858  11.812  11.947   1.190
52654SOL    HW159859  11.895  11.967   1.234
52654SOL    HW259860  11.744  11.974   1.253
52655SOL     OW59861  13.820   1.196   2.456
52655SOL    HW159862  13.861   1.246   2.526
52655SOL    HW259863  13.888   1.136   2.426
52656SOL     OW59864   7.801   3.666  14.334
52656SOL    HW159865   7.849   3.658  14.252
52656SOL    HW259866   7.720   3.711  14.311
52657SOL     OW59867   7.379   2.674  13.413
52657SOL    HW159868   7.376   2.743  13.347
52657SOL    HW259869   7.356   2.594  13.366
52658SOL     OW59870  12.290   6.015   3.680
52658SOL    HW159871  12.264   5.967   3.759
52658SOL    HW259872  12.351   5.956   3.635
52659SOL     OW59873  11.496   9.528   2.615
52659SOL    HW159874  11.588   9.546   2.635
52659SOL    HW259875  11.456   9.509   2.700
52660SOL     OW59876   2.332   7.518   6.073
52660SOL    HW159877   2.289   7.445   6.029
52660SOL    HW259878   2.416   7.527   6.028
52661SOL     OW59879   6.026  13.482  13.932
52661SOL    HW159880   5.948  13.427  13.931
52661SOL    HW259881   6.012  13.545  13.862
52662SOL     OW59882   4.480  13.052  13.795
52662SOL    HW159883   4.473  13.147  13.798
52662SOL    HW259884   4.479  13.025  13.887
52663SOL     OW59885   7.347  10.217   8.801
52663SOL    HW159886   7.436  10.213   8.766
52663SOL    HW259887   7.291  10.213   8.724
52664SOL     OW59888  10.515  13.673   2.880
52664SOL    HW159889  10.544  13.657   2.790
52664SOL    HW259890  10.428  13.712   2.871
52665SOL     OW59891   0.571   8.627  14.486
52665SOL    HW159892   0.603   8.560  14.547
52665SOL    HW259893   0.499   8.584  14.440
52666SOL     OW59894  13.277   1.760   0.323
52666SOL    HW159895  13.318   1.708   0.253
52666SOL    HW259896  13.319   1.729   0.403
52667SOL     OW59897   4.233  13.177   7.105
52667SOL    HW159898   4.305  13.180   7.168
52667SOL    HW259899   4.270  13.210   7.024
52668SOL     OW59900   9.059   0.469   3.190
52668SOL    HW159901   9.135   0.524   3.213
52668SOL    HW259902   9.008   0.464   3.271
52669SOL     OW59903   2.227  11.416  14.121
52669SOL    HW159904   2.216  11.348  14.055
52669SOL    HW259905   2.210  11.498  14.075
52670SOL     OW59906   2.433   0.058  12.171
52670SOL    HW159907   2.461   0.100  12.089
52670SOL    HW259908   2.338   0.049  12.162
52671SOL     OW59909   3.890  10.998  14.337
52671SOL    HW159910   3.945  11.076  14.347
52671SOL    HW259911   3.855  10.983  14.425
52672SOL     OW59912   5.128   1.329   2.678
52672SOL    HW159913   5.216   1.307   2.710
52672SOL    HW259914   5.093   1.390   2.742
52673SOL     OW59915   4.072   6.099   0.540
52673SOL    HW159916   4.058   6.179   0.592
52673SOL    HW259917   3.988   6.082   0.498
52674SOL     OW59918  12.276  14.531  11.689
52674SOL    HW159919  12.197  14.525  11.742
52674SOL    HW259920  12.247  14.505  11.601
52675SOL     OW59921  10.435   1.936   1.475
52675SOL    HW159922  10.406   1.920   1.385
52675SOL    HW259923  10.399   2.022   1.496
52676SOL     OW59924   2.174   3.934  12.555
52676SOL    HW159925   2.141   3.945  12.465
52676SOL    HW259926   2.268   3.952  12.549
52677SOL     OW59927   9.208   5.712  14.158
52677SOL    HW159928   9.268   5.786  14.165
52677SOL    HW259929   9.219   5.664  14.240
52678SOL     OW59930  13.143   0.433   3.481
52678SOL    HW159931  13.098   0.355   3.451
52678SOL    HW259932  13.235   0.406   3.490
52679SOL     OW59933  13.623   2.355   5.667
52679SOL    HW159934  13.622   2.290   5.598
52679SOL    HW259935  13.712   2.351   5.703
52680SOL     OW59936  14.162   9.062   7.073
52680SOL    HW159937  14.143   9.015   6.992
52680SOL    HW259938  14.124   9.149   7.060
52681SOL     OW59939   2.008   4.721  14.759
52681SOL    HW159940   1.925   4.768  14.762
52681SOL    HW259941   1.995   4.645  14.817
52682SOL     OW59942   5.866   6.071   5.208
52682SOL    HW159943   5.941   6.013   5.196
52682SOL    HW259944   5.900   6.158   5.185
52683SOL     OW59945   2.025   0.532   0.473
52683SOL    HW159946   1.993   0.565   0.389
52683SOL    HW259947   2.045   0.439   0.456
52684SOL     OW59948   5.713  14.481   0.422
52684SOL    HW159949   5.684  14.531   0.499
52684SOL    HW259950   5.721  14.392   0.454
52685SOL     OW59951   7.940   0.962   2.994
52685SOL    HW159952   7.983   0.964   3.079
52685SOL    HW259953   7.961   1.046   2.954
52686SOL     OW59954  14.273   3.261  12.501
52686SOL    HW159955  14.278   3.257  12.597
52686SOL    HW259956  14.179   3.253  12.482
52687SOL     OW59957   8.443   4.845   0.202
52687SOL    HW159958   8.380   4.868   0.133
52687SOL    HW259959   8.449   4.924   0.256
52688SOL     OW59960   2.520  12.515   9.112
52688SOL    HW159961   2.489  12.430   9.143
52688SOL    HW259962   2.460  12.578   9.151
52689SOL     OW59963   6.123   1.359   8.128
52689SOL    HW159964   6.144   1.440   8.174
52689SOL    HW259965   6.158   1.290   8.185
52690SOL     OW59966  12.275   8.069  12.994
52690SOL    HW159967  12.330   8.000  13.032
52690SOL    HW259968  12.190   8.027  12.981
52691SOL     OW59969   4.928   6.806   1.963
52691SOL    HW159970   5.018   6.833   1.946
52691SOL    HW259971   4.936   6.726   2.014
52692SOL     OW59972   5.486  13.594  13.619
52692SOL    HW159973   5.408  13.647  13.633
52692SOL    HW259974   5.555  13.658  13.602
52693SOL     OW59975  11.314   0.902  14.596
52693SOL    HW159976  11.296   0.909  14.690
52693SOL    HW259977  11.300   0.990  14.562
52694SOL     OW59978  13.871   5.614  14.260
52694SOL    HW159979  13.938   5.613  14.328
52694SOL    HW259980  13.913   5.654  14.185
52695SOL     OW59981   0.915   0.674  12.693
52695SOL    HW159982   0.851   0.679  12.622
52695SOL    HW259983   0.863   0.661  12.772
52696SOL     OW59984   1.382   6.371   0.306
52696SOL    HW159985   1.301   6.325   0.283
52696SOL    HW259986   1.444   6.345   0.238
52697SOL     OW59987  12.352  11.945  12.829
52697SOL    HW159988  12.446  11.964  12.830
52697SOL    HW259989  12.333  11.920  12.920
52698SOL     OW59990   0.282   3.903   8.154
52698SOL    HW159991   0.370   3.931   8.128
52698SOL    HW259992   0.230   3.910   8.075
52699SOL     OW59993  11.670  10.071   3.461
52699SOL    HW159994  11.596  10.061   3.521
52699SOL    HW259995  11.746  10.043   3.512
52700SOL     OW59996   5.009  14.103   7.044
52700SOL    HW159997   4.933  14.161   7.036
52700SOL    HW259998   5.085  14.161   7.034
52701SOL     OW59999   1.519   1.007  13.588
52701SOL    HW160000   1.562   0.967  13.663
52701SOL    HW260001   1.537   0.948  13.515
52702SOL     OW60002  12.582   6.976   7.104
52702SOL    HW160003  12.671   7.003   7.130
52702SOL    HW260004  12.544   6.942   7.185
52703SOL     OW60005   8.001  14.337  12.233
52703SOL    HW160006   8.087  14.349  12.272
52703SOL    HW260007   7.952  14.285  12.298
52704SOL     OW60008   4.956   7.646   6.451
52704SOL    HW160009   4.921   7.716   6.506
52704SOL    HW260010   5.051   7.649   6.466
52705SOL     OW60011   4.754   7.972  11.941
52705SOL    HW160012   4.683   7.956  12.003
52705SOL    HW260013   4.711   7.980  11.856
52706SOL     OW60014   8.267   3.315   3.076
52706SOL    HW160015   8.309   3.365   3.146
52706SOL    HW260016   8.279   3.224   3.102
52707SOL     OW60017   2.734  14.191   1.833
52707SOL    HW160018   2.675  14.204   1.907
52707SOL    HW260019   2.809  14.144   1.869
52708SOL     OW60020  10.499  11.977  13.736
52708SOL    HW160021  10.488  11.896  13.687
52708SOL    HW260022  10.487  12.047  13.671
52709SOL     OW60023  13.403   9.100   7.804
52709SOL    HW160024  13.445   9.152   7.734
52709SOL    HW260025  13.333   9.157   7.837
52710SOL     OW60026   3.138   6.057  12.884
52710SOL    HW160027   3.084   6.024  12.956
52710SOL    HW260028   3.160   6.146  12.910
52711SOL     OW60029   6.008   5.228   5.464
52711SOL    HW160030   5.972   5.168   5.530
52711SOL    HW260031   6.015   5.175   5.385
52712SOL     OW60032  11.630   8.408   0.867
52712SOL    HW160033  11.543   8.394   0.829
52712SOL    HW260034  11.649   8.500   0.851
52713SOL     OW60035   2.774  12.448   9.706
52713SOL    HW160036   2.736  12.517   9.761
52713SOL    HW260037   2.717  12.373   9.720
52714SOL     OW60038   3.267  13.607  10.153
52714SOL    HW160039   3.283  13.676  10.089
52714SOL    HW260040   3.193  13.558  10.117
52715SOL     OW60041   6.447   0.554   7.295
52715SOL    HW160042   6.373   0.559   7.355
52715SOL    HW260043   6.465   0.645   7.271
52716SOL     OW60044   2.234   8.128   6.776
52716SOL    HW160045   2.304   8.166   6.722
52716SOL    HW260046   2.158   8.127   6.718
52717SOL     OW60047  13.620   9.351   5.654
52717SOL    HW160048  13.587   9.371   5.741
52717SOL    HW260049  13.618   9.255   5.649
52718SOL     OW60050   1.123  12.812  12.357
52718SOL    HW160051   1.030  12.823  12.378
52718SOL    HW260052   1.134  12.717  12.352
52719SOL     OW60053  13.915   7.924   3.777
52719SOL    HW160054  13.878   8.003   3.817
52719SOL    HW260055  13.997   7.953   3.738
52720SOL     OW60056   7.388  10.832   4.376
52720SOL    HW160057   7.362  10.792   4.458
52720SOL    HW260058   7.314  10.887   4.351
52721SOL     OW60059  14.745  12.490   5.256
52721SOL    HW160060  14.689  12.450   5.189
52721SOL    HW260061  14.825  12.514   5.210
52722SOL     OW60062  11.918  12.294   8.062
52722SOL    HW160063  11.888  12.384   8.050
52722SOL    HW260064  11.889  12.248   7.983
52723SOL     OW60065   8.497  13.551  12.472
52723SOL    HW160066   8.585  13.524  12.500
52723SOL    HW260067   8.477  13.627  12.526
52724SOL     OW60068   5.142   8.210   6.669
52724SOL    HW160069   5.090   8.146   6.619
52724SOL    HW260070   5.232   8.177   6.662
52725SOL     OW60071   0.610   1.165   3.303
52725SOL    HW160072   0.656   1.233   3.350
52725SOL    HW260073   0.598   1.200   3.215
52726SOL     OW60074  13.317   6.223   0.891
52726SOL    HW160075  13.288   6.307   0.855
52726SOL    HW260076  13.261   6.158   0.849
52727SOL     OW60077  13.805  12.413   5.304
52727SOL    HW160078  13.888  12.398   5.257
52727SOL    HW260079  13.798  12.339   5.364
52728SOL     OW60080  12.476  13.863   1.104
52728SOL    HW160081  12.565  13.861   1.068
52728SOL    HW260082  12.460  13.955   1.123
52729SOL     OW60083  12.345  11.666   3.196
52729SOL    HW160084  12.257  11.644   3.225
52729SOL    HW260085  12.402  11.604   3.242
52730SOL     OW60086   8.523  14.418   1.973
52730SOL    HW160087   8.444  14.396   2.024
52730SOL    HW260088   8.593  14.423   2.038
52731SOL     OW60089   8.352   9.461  10.027
52731SOL    HW160090   8.405   9.457   9.947
52731SOL    HW260091   8.413   9.441  10.098
52732SOL     OW60092  11.030   0.184   8.727
52732SOL    HW160093  11.033   0.214   8.817
52732SOL    HW260094  11.097   0.235   8.682
52733SOL     OW60095   6.994   0.428   3.283
52733SOL    HW160096   7.004   0.460   3.194
52733SOL    HW260097   6.912   0.377   3.281
52734SOL     OW60098  10.435  11.913   5.559
52734SOL    HW160099  10.409  11.905   5.467
52734SOL    HW260100  10.424  11.824   5.594
52735SOL     OW60101   2.132   4.767   0.984
52735SOL    HW160102   2.212   4.804   0.946
52735SOL    HW260103   2.128   4.804   1.072
52736SOL     OW60104   5.599  12.207  10.404
52736SOL    HW160105   5.686  12.183  10.438
52736SOL    HW260106   5.565  12.268  10.468
52737SOL     OW60107   2.720   6.999   2.762
52737SOL    HW160108   2.798   6.951   2.735
52737SOL    HW260109   2.689   7.043   2.682
52738SOL     OW60110   8.649   7.186   1.189
52738SOL    HW160111   8.641   7.198   1.095
52738SOL    HW260112   8.742   7.201   1.208
52739SOL     OW60113   5.171   2.925   9.295
52739SOL    HW160114   5.164   3.020   9.287
52739SOL    HW260115   5.080   2.894   9.299
52740SOL     OW60116   6.839  14.684   9.560
52740SOL    HW160117   6.923  14.694   9.606
52740SOL    HW260118   6.827  14.767   9.514
52741SOL     OW60119   4.853  13.133  11.470
52741SOL    HW160120   4.768  13.175  11.479
52741SOL    HW260121   4.912  13.204  11.445
52742SOL     OW60122   9.739   1.638   9.993
52742SOL    HW160123   9.711   1.652  10.083
52742SOL    HW260124   9.829   1.608  10.001
52743SOL     OW60125   7.999   3.744  10.688
52743SOL    HW160126   8.092   3.745  10.709
52743SOL    HW260127   7.994   3.779  10.600
52744SOL     OW60128   7.678  10.015   0.701
52744SOL    HW160129   7.673   9.922   0.724
52744SOL    HW260130   7.589  10.048   0.712
52745SOL     OW60131  13.423  13.925   4.790
52745SOL    HW160132  13.481  13.857   4.824
52745SOL    HW260133  13.472  14.006   4.803
52746SOL     OW60134   7.662   1.511   5.167
52746SOL    HW160135   7.649   1.605   5.155
52746SOL    HW260136   7.704   1.503   5.252
52747SOL     OW60137   2.925  13.963   9.878
52747SOL    HW160138   2.979  13.971   9.800
52747SOL    HW260139   2.835  13.967   9.846
52748SOL     OW60140   9.012   3.114   3.854
52748SOL    HW160141   8.998   3.184   3.918
52748SOL    HW260142   9.100   3.129   3.820
52749SOL     OW60143   9.910   8.588   8.936
52749SOL    HW160144   9.965   8.509   8.931
52749SOL    HW260145   9.954   8.643   9.001
52750SOL     OW60146   6.874   8.857   6.640
52750SOL    HW160147   6.820   8.931   6.669
52750SOL    HW260148   6.861   8.790   6.707
52751SOL     OW60149   1.871   7.747   3.829
52751SOL    HW160150   1.938   7.815   3.831
52751SOL    HW260151   1.807   7.778   3.765
52752SOL     OW60152   2.241   8.222   9.741
52752SOL    HW160153   2.217   8.314   9.731
52752SOL    HW260154   2.294   8.220   9.821
52753SOL     OW60155  14.544   2.816   9.338
52753SOL    HW160156  14.553   2.736   9.285
52753SOL    HW260157  14.607   2.804   9.410
52754SOL     OW60158   4.706   6.409   3.923
52754SOL    HW160159   4.643   6.419   3.851
52754SOL    HW260160   4.785   6.452   3.891
52755SOL     OW60161   3.302   1.754   4.906
52755SOL    HW160162   3.261   1.840   4.896
52755SOL    HW260163   3.244   1.694   4.860
52756SOL     OW60164  13.699   5.640   7.293
52756SOL    HW160165  13.603   5.649   7.291
52756SOL    HW260166  13.729   5.684   7.214
52757SOL     OW60167   8.356  11.808   4.541
52757SOL    HW160168   8.296  11.882   4.533
52757SOL    HW260169   8.309  11.745   4.594
52758SOL     OW60170   7.865  14.629   7.040
52758SOL    HW160171   7.941  14.667   7.083
52758SOL    HW260172   7.867  14.536   7.064
52759SOL     OW60173  12.519  11.253  13.957
52759SOL    HW160174  12.548  11.171  13.917
52759SOL    HW260175  12.457  11.226  14.025
52760SOL     OW60176   7.659   1.224  13.003
52760SOL    HW160177   7.620   1.173  12.932
52760SOL    HW260178   7.701   1.159  13.059
52761SOL     OW60179   2.537  13.144   9.292
52761SOL    HW160180   2.599  13.074   9.310
52761SOL    HW260181   2.592  13.220   9.271
52762SOL     OW60182  14.310   2.824   7.696
52762SOL    HW160183  14.248   2.896   7.709
52762SOL    HW260184  14.389   2.852   7.744
52763SOL     OW60185   0.246   6.660   1.763
52763SOL    HW160186   0.281   6.692   1.846
52763SOL    HW260187   0.242   6.738   1.707
52764SOL     OW60188   2.980   7.336   5.190
52764SOL    HW160189   3.029   7.255   5.176
52764SOL    HW260190   3.041   7.393   5.236
52765SOL     OW60191   3.628   0.688   2.034
52765SOL    HW160192   3.543   0.700   1.992
52765SOL    HW260193   3.623   0.740   2.114
52766SOL     OW60194   1.118   3.972   5.350
52766SOL    HW160195   1.161   3.898   5.306
52766SOL    HW260196   1.176   4.047   5.333
52767SOL     OW60197   9.170   6.954   7.514
52767SOL    HW160198   9.160   6.872   7.466
52767SOL    HW260199   9.096   7.008   7.487
52768SOL     OW60200   3.859  10.462  10.203
52768SOL    HW160201   3.873  10.557  10.197
52768SOL    HW260202   3.830  10.437  10.116
52769SOL     OW60203   7.807  10.621   6.589
52769SOL    HW160204   7.842  10.696   6.638
52769SOL    HW260205   7.810  10.649   6.498
52770SOL     OW60206   9.843  12.214   9.049
52770SOL    HW160207   9.803  12.129   9.070
52770SOL    HW260208   9.795  12.245   8.972
52771SOL     OW60209   4.896   6.886  11.070
52771SOL    HW160210   4.905   6.796  11.040
52771SOL    HW260211   4.816   6.918  11.029
52772SOL     OW60212   9.594   6.773  13.012
52772SOL    HW160213   9.659   6.733  12.954
52772SOL    HW260214   9.594   6.717  13.089
52773SOL     OW60215  13.225   9.148   5.920
52773SOL    HW160216  13.203   9.232   5.960
52773SOL    HW260217  13.314   9.130   5.950
52774SOL     OW60218   6.798   1.248  11.235
52774SOL    HW160219   6.814   1.185  11.166
52774SOL    HW260220   6.812   1.200  11.316
52775SOL     OW60221   6.579   5.826   6.893
52775SOL    HW160222   6.614   5.767   6.826
52775SOL    HW260223   6.489   5.797   6.906
52776SOL     OW60224   7.647   6.993  10.082
52776SOL    HW160225   7.590   6.946  10.022
52776SOL    HW260226   7.667   6.930  10.151
52777SOL     OW60227  10.170  12.205   0.625
52777SOL    HW160228  10.088  12.168   0.595
52777SOL    HW260229  10.235  12.175   0.561
52778SOL     OW60230   2.532   9.395   0.468
52778SOL    HW160231   2.620   9.391   0.430
52778SOL    HW260232   2.542   9.356   0.555
52779SOL     OW60233  10.692  11.421   6.019
52779SOL    HW160234  10.731  11.337   5.995
52779SOL    HW260235  10.766  11.482   6.021
52780SOL     OW60236   8.131   1.762   6.349
52780SOL    HW160237   8.054   1.734   6.399
52780SOL    HW260238   8.163   1.683   6.307
52781SOL     OW60239  10.941   9.455  14.746
52781SOL    HW160240  10.853   9.431  14.775
52781SOL    HW260241  10.941   9.439  14.652
52782SOL     OW60242  12.095   8.089  14.183
52782SOL    HW160243  12.013   8.039  14.175
52782SOL    HW260244  12.107   8.130  14.098
52783SOL     OW60245   2.858   9.267  12.477
52783SOL    HW160246   2.830   9.203  12.543
52783SOL    HW260247   2.788   9.266  12.412
52784SOL     OW60248   2.269   8.849   2.459
52784SOL    HW160249   2.320   8.782   2.506
52784SOL    HW260250   2.282   8.827   2.367
52785SOL     OW60251   3.018  13.764   8.159
52785SOL    HW160252   2.970  13.703   8.215
52785SOL    HW260253   3.103  13.723   8.147
52786SOL     OW60254   9.940  10.516   7.192
52786SOL    HW160255   9.889  10.577   7.245
52786SOL    HW260256   9.982  10.570   7.125
52787SOL     OW60257   7.363  13.757   3.595
52787SOL    HW160258   7.279  13.791   3.563
52787SOL    HW260259   7.378  13.804   3.677
52788SOL     OW60260  12.104  12.230   9.223
52788SOL    HW160261  12.098  12.135   9.213
52788SOL    HW260262  12.067  12.265   9.142
52789SOL     OW60263  11.165   3.626   4.419
52789SOL    HW160264  11.194   3.621   4.328
52789SOL    HW260265  11.117   3.544   4.434
52790SOL     OW60266   3.083   6.426  11.268
52790SOL    HW160267   3.150   6.453  11.330
52790SOL    HW260268   3.072   6.332  11.284
52791SOL     OW60269   5.010  12.219   0.384
52791SOL    HW160270   5.050  12.196   0.300
52791SOL    HW260271   4.925  12.175   0.384
52792SOL     OW60272  10.340   8.092   9.607
52792SOL    HW160273  10.337   8.164   9.545
52792SOL    HW260274  10.293   8.020   9.564
52793SOL     OW60275   9.954   1.557  11.961
52793SOL    HW160276   9.863   1.572  11.935
52793SOL    HW260277   9.980   1.637  12.006
52794SOL     OW60278  13.424   4.187   1.698
52794SOL    HW160279  13.378   4.268   1.677
52794SOL    HW260280  13.512   4.215   1.721
52795SOL     OW60281   5.528  10.313  14.519
52795SOL    HW160282   5.438  10.280  14.520
52795SOL    HW260283   5.521  10.403  14.551
52796SOL     OW60284  13.634   1.813  13.114
52796SOL    HW160285  13.719   1.857  13.116
52796SOL    HW260286  13.618   1.797  13.022
52797SOL     OW60287  12.119   6.323   2.596
52797SOL    HW160288  12.100   6.410   2.560
52797SOL    HW260289  12.040   6.300   2.646
52798SOL     OW60290   7.901  10.732  14.551
52798SOL    HW160291   7.862  10.802  14.498
52798SOL    HW260292   7.993  10.756  14.557
52799SOL     OW60293   4.181   7.314   5.655
52799SOL    HW160294   4.175   7.330   5.561
52799SOL    HW260295   4.191   7.219   5.663
52800SOL     OW60296   3.431  10.711   4.956
52800SOL    HW160297   3.339  10.705   4.983
52800SOL    HW260298   3.444  10.804   4.937
52801SOL     OW60299  14.026   1.264   4.460
52801SOL    HW160300  14.082   1.187   4.446
52801SOL    HW260301  14.015   1.303   4.373
52802SOL     OW60302  11.336   8.645  13.894
52802SOL    HW160303  11.384   8.675  13.817
52802SOL    HW260304  11.244   8.649  13.868
52803SOL     OW60305   9.248  10.994   9.887
52803SOL    HW160306   9.186  11.056   9.925
52803SOL    HW260307   9.264  10.930   9.956
52804SOL     OW60308   1.582   8.518   6.482
52804SOL    HW160309   1.557   8.511   6.574
52804SOL    HW260310   1.537   8.596   6.451
52805SOL     OW60311  12.408  12.152   6.856
52805SOL    HW160312  12.450  12.072   6.888
52805SOL    HW260313  12.477  12.218   6.858
52806SOL     OW60314   8.228   1.175   8.883
52806SOL    HW160315   8.173   1.209   8.954
52806SOL    HW260316   8.263   1.253   8.840
52807SOL     OW60317   5.978   2.956  10.761
52807SOL    HW160318   5.993   3.050  10.767
52807SOL    HW260319   5.930   2.934  10.841
52808SOL     OW60320   9.414   8.684  12.686
52808SOL    HW160321   9.405   8.761  12.630
52808SOL    HW260322   9.441   8.718  12.771
52809SOL     OW60323   8.149  12.619   0.138
52809SOL    HW160324   8.158  12.543   0.080
52809SOL    HW260325   8.182  12.589   0.222
52810SOL     OW60326  14.081   8.399   4.585
52810SOL    HW160327  14.172   8.428   4.577
52810SOL    HW260328  14.079   8.352   4.669
52811SOL     OW60329  10.872   2.103   2.603
52811SOL    HW160330  10.858   2.024   2.655
52811SOL    HW260331  10.791   2.153   2.613
52812SOL     OW60332   3.449   1.423   5.376
52812SOL    HW160333   3.476   1.376   5.297
52812SOL    HW260334   3.512   1.495   5.384
52813SOL     OW60335  11.333  11.479   5.213
52813SOL    HW160336  11.350  11.569   5.183
52813SOL    HW260337  11.238  11.476   5.227
52814SOL     OW60338  14.333  14.383   1.509
52814SOL    HW160339  14.287  14.419   1.585
52814SOL    HW260340  14.409  14.338   1.546
52815SOL     OW60341   8.333  12.389   7.277
52815SOL    HW160342   8.304  12.480   7.286
52815SOL    HW260343   8.426  12.391   7.302
52816SOL     OW60344  11.341   3.681  14.128
52816SOL    HW160345  11.417   3.645  14.174
52816SOL    HW260346  11.270   3.618  14.145
52817SOL     OW60347   9.302   2.511  11.798
52817SOL    HW160348   9.246   2.456  11.853
52817SOL    HW260349   9.382   2.521  11.850
52818SOL     OW60350   7.100   2.910   8.970
52818SOL    HW160351   7.148   2.973   8.917
52818SOL    HW260352   7.031   2.961   9.012
52819SOL     OW60353   1.979  11.315  14.653
52819SOL    HW160354   2.006  11.398  14.614
52819SOL    HW260355   1.924  11.274  14.586
52820SOL     OW60356  14.775   4.086   8.682
52820SOL    HW160357  14.689   4.119   8.708
52820SOL    HW260358  14.809   4.043   8.761
52821SOL     OW60359   5.893  11.032   5.950
52821SOL    HW160360   5.815  10.979   5.938
52821SOL    HW260361   5.870  11.094   6.019
52822SOL     OW60362   4.014   0.097  14.370
52822SOL    HW160363   4.027   0.111  14.276
52822SOL    HW260364   3.919   0.096  14.381
52823SOL     OW60365  11.326   6.365   7.107
52823SOL    HW160366  11.344   6.272   7.095
52823SOL    HW260367  11.242   6.367   7.153
52824SOL     OW60368   6.325   0.957  11.729
52824SOL    HW160369   6.235   0.960  11.697
52824SOL    HW260370   6.336   0.867  11.761
52825SOL     OW60371  10.926   7.550   0.656
52825SOL    HW160372  10.859   7.484   0.642
52825SOL    HW260373  11.004   7.515   0.612
52826SOL     OW60374   2.673   2.455   5.772
52826SOL    HW160375   2.583   2.435   5.746
52826SOL    HW260376   2.675   2.435   5.866
52827SOL     OW60377   4.459   1.673   7.937
52827SOL    HW160378   4.458   1.768   7.925
52827SOL    HW260379   4.533   1.643   7.884
52828SOL     OW60380  12.000   7.918   4.784
52828SOL    HW160381  12.044   7.949   4.864
52828SOL    HW260382  12.072   7.899   4.724
52829SOL     OW60383   8.201  13.724   8.017
52829SOL    HW160384   8.274  13.784   8.007
52829SOL    HW260385   8.164  13.744   8.103
52830SOL     OW60386  11.777   7.723   3.896
52830SOL    HW160387  11.826   7.644   3.870
52830SOL    HW260388  11.728   7.696   3.974
52831SOL     OW60389   2.482   3.003   7.954
52831SOL    HW160390   2.405   2.948   7.940
52831SOL    HW260391   2.547   2.944   7.993
52832SOL     OW60392   5.052   1.166   2.896
52832SOL    HW160393   5.055   1.217   2.815
52832SOL    HW260394   5.107   1.214   2.958
52833SOL     OW60395   2.334   0.806  10.149
52833SOL    HW160396   2.269   0.815  10.219
52833SOL    HW260397   2.360   0.896  10.128
52834SOL     OW60398   3.317   4.553  12.460
52834SOL    HW160399   3.324   4.502  12.379
52834SOL    HW260400   3.302   4.643  12.431
52835SOL     OW60401   4.418   2.014   3.432
52835SOL    HW160402   4.481   2.060   3.377
52835SOL    HW260403   4.434   2.050   3.520
52836SOL     OW60404  14.191  14.596  13.712
52836SOL    HW160405  14.227  14.575  13.798
52836SOL    HW260406  14.107  14.638  13.730
52837SOL     OW60407   9.643   6.643   1.449
52837SOL    HW160408   9.685   6.720   1.411
52837SOL    HW260409   9.670   6.571   1.391
52838SOL     OW60410  13.800  10.089   1.799
52838SOL    HW160411  13.890  10.056   1.801
52838SOL    HW260412  13.754  10.039   1.866
52839SOL     OW60413   6.625  14.327  14.164
52839SOL    HW160414   6.574  14.250  14.137
52839SOL    HW260415   6.562  14.382  14.211
52840SOL     OW60416   3.505   4.024  10.149
52840SOL    HW160417   3.444   4.033  10.223
52840SOL    HW260418   3.465   3.957  10.093
52841SOL     OW60419   0.332  10.964   6.702
52841SOL    HW160420   0.407  10.934   6.754
52841SOL    HW260421   0.369  11.028   6.641
52842SOL     OW60422  12.038   5.206   1.614
52842SOL    HW160423  12.087   5.154   1.550
52842SOL    HW260424  11.999   5.141   1.672
52843SOL     OW60425   9.008  13.666   6.414
52843SOL    HW160426   8.915  13.651   6.393
52843SOL    HW260427   9.055  13.604   6.359
52844SOL     OW60428  12.058   7.637  12.901
52844SOL    HW160429  12.100   7.682  12.974
52844SOL    HW260430  12.042   7.549  12.933
52845SOL     OW60431  10.953   8.788   1.797
52845SOL    HW160432  10.898   8.805   1.720
52845SOL    HW260433  10.894   8.746   1.860
52846SOL     OW60434   1.989  10.124   7.047
52846SOL    HW160435   1.994  10.183   7.123
52846SOL    HW260436   2.063  10.150   6.992
52847SOL     OW60437   7.665   9.015  11.351
52847SOL    HW160438   7.599   8.971  11.404
52847SOL    HW260439   7.703   8.946  11.297
52848SOL     OW60440  13.803  12.298   2.062
52848SOL    HW160441  13.712  12.321   2.043
52848SOL    HW260442  13.798  12.252   2.146
52849SOL     OW60443   8.574  14.122   2.776
52849SOL    HW160444   8.621  14.137   2.858
52849SOL    HW260445   8.497  14.179   2.782
52850SOL     OW60446   7.155   3.791   0.027
52850SOL    HW160447   7.123   3.866   0.078
52850SOL    HW260448   7.234   3.763   0.072
52851SOL     OW60449  11.864   0.706   9.963
52851SOL    HW160450  11.870   0.790  10.007
52851SOL    HW260451  11.952   0.689   9.930
52852SOL     OW60452   6.285   0.308   0.519
52852SOL    HW160453   6.256   0.365   0.589
52852SOL    HW260454   6.302   0.367   0.445
52853SOL     OW60455   8.568  10.430   7.008
52853SOL    HW160456   8.599  10.373   7.078
52853SOL    HW260457   8.559  10.372   6.932
52854SOL     OW60458  12.809   9.774   3.517
52854SOL    HW160459  12.817   9.688   3.558
52854SOL    HW260460  12.727   9.810   3.550
52855SOL     OW60461  12.059   8.538   3.997
52855SOL    HW160462  11.980   8.491   4.025
52855SOL    HW260463  12.026   8.617   3.953
52856SOL     OW60464  13.569   6.140   3.831
52856SOL    HW160465  13.593   6.188   3.751
52856SOL    HW260466  13.651   6.105   3.864
52857SOL     OW60467  14.008  14.608   1.385
52857SOL    HW160468  14.097  14.606   1.351
52857SOL    HW260469  14.017  14.580   1.476
52858SOL     OW60470  12.262   1.398  10.443
52858SOL    HW160471  12.265   1.349  10.361
52858SOL    HW260472  12.208   1.475  10.424
52859SOL     OW60473   7.460   6.008   5.583
52859SOL    HW160474   7.531   5.992   5.646
52859SOL    HW260475   7.429   5.921   5.560
52860SOL     OW60476   3.131   9.227  13.901
52860SOL    HW160477   3.087   9.269  13.975
52860SOL    HW260478   3.081   9.146  13.888
52861SOL     OW60479  12.722  13.338   8.679
52861SOL    HW160480  12.650  13.400   8.692
52861SOL    HW260481  12.731  13.294   8.764
52862SOL     OW60482  10.252  14.446  14.193
52862SOL    HW160483  10.304  14.397  14.256
52862SOL    HW260484  10.316  14.478  14.129
52863SOL     OW60485  10.861   1.728   8.355
52863SOL    HW160486  10.789   1.762   8.408
52863SOL    HW260487  10.822   1.658   8.302
52864SOL     OW60488   1.546  12.394   8.827
52864SOL    HW160489   1.590  12.315   8.859
52864SOL    HW260490   1.483  12.362   8.763
52865SOL     OW60491  12.866  14.780   0.709
52865SOL    HW160492  12.795  14.729   0.670
52865SOL    HW260493  12.902  14.723   0.777
52866SOL     OW60494  13.445   3.918  14.160
52866SOL    HW160495  13.524   3.866  14.172
52866SOL    HW260496  13.455   3.992  14.219
52867SOL     OW60497   1.737   3.248   6.961
52867SOL    HW160498   1.787   3.177   6.921
52867SOL    HW260499   1.732   3.225   7.054
52868SOL     OW60500  14.504  10.164   3.187
52868SOL    HW160501  14.555  10.085   3.169
52868SOL    HW260502  14.547  10.204   3.262
52869SOL     OW60503   0.783   8.671   8.664
52869SOL    HW160504   0.753   8.585   8.635
52869SOL    HW260505   0.815   8.656   8.753
52870SOL     OW60506   0.822  12.642   4.537
52870SOL    HW160507   0.772  12.669   4.614
52870SOL    HW260508   0.788  12.555   4.516
52871SOL     OW60509  14.656  11.922   6.039
52871SOL    HW160510  14.587  11.915   5.973
52871SOL    HW260511  14.675  12.015   6.044
52872SOL     OW60512  10.294   1.590  11.246
52872SOL    HW160513  10.221   1.529  11.254
52872SOL    HW260514  10.279   1.635  11.163
52873SOL     OW60515  14.638   1.361   5.032
52873SOL    HW160516  14.663   1.356   5.124
52873SOL    HW260517  14.657   1.452   5.007
52874SOL     OW60518  10.860   4.880  13.606
52874SOL    HW160519  10.774   4.885  13.566
52874SOL    HW260520  10.900   4.965  13.588
52875SOL     OW60521  14.019   7.933  11.138
52875SOL    HW160522  13.992   7.985  11.214
52875SOL    HW260523  14.098   7.887  11.168
52876SOL     OW60524   4.619   2.828   8.552
52876SOL    HW160525   4.597   2.839   8.460
52876SOL    HW260526   4.544   2.864   8.599
52877SOL     OW60527  12.249   4.747   6.323
52877SOL    HW160528  12.279   4.795   6.400
52877SOL    HW260529  12.224   4.814   6.260
52878SOL     OW60530   3.478   1.397  11.892
52878SOL    HW160531   3.448   1.434  11.975
52878SOL    HW260532   3.487   1.472  11.833
52879SOL     OW60533   6.368   3.415   5.919
52879SOL    HW160534   6.309   3.344   5.944
52879SOL    HW260535   6.357   3.424   5.824
52880SOL     OW60536   2.217   6.615  10.316
52880SOL    HW160537   2.257   6.531  10.335
52880SOL    HW260538   2.291   6.673  10.295
52881SOL     OW60539   4.293   6.828  11.682
52881SOL    HW160540   4.343   6.836  11.600
52881SOL    HW260541   4.359   6.832  11.751
52882SOL     OW60542   1.676  14.464  10.808
52882SOL    HW160543   1.730  14.386  10.796
52882SOL    HW260544   1.586  14.433  10.800
52883SOL     OW60545  11.488   7.761   7.033
52883SOL    HW160546  11.577   7.792   7.049
52883SOL    HW260547  11.484   7.745   6.939
52884SOL     OW60548  12.932   8.091  13.890
52884SOL    HW160549  12.948   8.035  13.814
52884SOL    HW260550  12.854   8.054  13.931
52885SOL     OW60551  10.349   9.148   5.050
52885SOL    HW160552  10.283   9.146   4.981
52885SOL    HW260553  10.431   9.169   5.004
52886SOL     OW60554  13.147   5.793  14.312
52886SOL    HW160555  13.054   5.773  14.325
52886SOL    HW260556  13.193   5.726  14.363
52887SOL     OW60557  13.050  12.839   5.554
52887SOL    HW160558  12.974  12.785   5.534
52887SOL    HW260559  13.123  12.777   5.556
52888SOL     OW60560   2.906  14.039   4.075
52888SOL    HW160561   2.965  14.020   4.149
52888SOL    HW260562   2.821  14.055   4.116
52889SOL     OW60563   2.993  11.974   6.591
52889SOL    HW160564   2.917  12.020   6.626
52889SOL    HW260565   3.060  11.980   6.660
52890SOL     OW60566  10.296   0.190  13.447
52890SOL    HW160567  10.270   0.256  13.383
52890SOL    HW260568  10.308   0.238  13.528
52891SOL     OW60569  13.854   8.500   7.940
52891SOL    HW160570  13.813   8.532   8.021
52891SOL    HW260571  13.943   8.476   7.966
52892SOL     OW60572   0.179   8.272   4.777
52892SOL    HW160573   0.146   8.362   4.776
52892SOL    HW260574   0.132   8.230   4.849
52893SOL     OW60575  13.258  14.068   2.950
52893SOL    HW160576  13.283  14.113   3.030
52893SOL    HW260577  13.239  13.978   2.977
52894SOL     OW60578   4.150   4.925  11.798
52894SOL    HW160579   4.100   4.884  11.727
52894SOL    HW260580   4.201   4.853  11.836
52895SOL     OW60581  11.798  10.008   2.525
52895SOL    HW160582  11.830  10.096   2.502
52895SOL    HW260583  11.851   9.982   2.600
52896SOL     OW60584   3.218   5.205   8.622
52896SOL    HW160585   3.206   5.126   8.569
52896SOL    HW260586   3.310   5.227   8.611
52897SOL     OW60587   3.908   1.332   3.571
52897SOL    HW160588   3.946   1.289   3.494
52897SOL    HW260589   3.928   1.274   3.644
52898SOL     OW60590   4.062  14.098   6.031
52898SOL    HW160591   3.995  14.054   6.084
52898SOL    HW260592   4.062  14.050   5.948
52899SOL     OW60593  14.480  14.301  13.957
52899SOL    HW160594  14.509  14.316  13.867
52899SOL    HW260595  14.556  14.265  14.001
52900SOL     OW60596   5.532   1.775  14.866
52900SOL    HW160597   5.549   1.690   0.029
52900SOL    HW260598   5.452   1.763  14.814
52901SOL     OW60599   7.659  10.443   3.531
52901SOL    HW160600   7.599  10.370   3.519
52901SOL    HW260601   7.660  10.458   3.626
52902SOL     OW60602   6.171   8.034  13.886
52902SOL    HW160603   6.265   8.015  13.891
52902SOL    HW260604   6.164   8.103  13.821
52903SOL     OW60605   2.869   6.857   5.574
52903SOL    HW160606   2.949   6.909   5.579
52903SOL    HW260607   2.854   6.845   5.480
52904SOL     OW60608   3.250  11.951   0.291
52904SOL    HW160609   3.159  11.933   0.267
52904SOL    HW260610   3.301  11.891   0.237
52905SOL     OW60611  10.671   6.937  14.469
52905SOL    HW160612  10.683   6.844  14.489
52905SOL    HW260613  10.692   6.944  14.376
52906SOL     OW60614   3.800  10.811   2.187
52906SOL    HW160615   3.726  10.817   2.248
52906SOL    HW260616   3.875  10.790   2.242
52907SOL     OW60617   6.231  13.593  14.662
52907SOL    HW160618   6.246  13.499  14.658
52907SOL    HW260619   6.136  13.602  14.675
52908SOL     OW60620   0.511   0.283   4.279
52908SOL    HW160621   0.468   0.313   4.199
52908SOL    HW260622   0.520   0.362   4.333
52909SOL     OW60623  11.867   8.829   7.777
52909SOL    HW160624  11.819   8.754   7.742
52909SOL    HW260625  11.897   8.877   7.700
52910SOL     OW60626  13.189   7.461   5.226
52910SOL    HW160627  13.134   7.506   5.161
52910SOL    HW260628  13.137   7.385   5.252
52911SOL     OW60629  12.513   8.399   2.844
52911SOL    HW160630  12.498   8.457   2.919
52911SOL    HW260631  12.608   8.389   2.840
52912SOL     OW60632   1.705   2.427   7.587
52912SOL    HW160633   1.769   2.450   7.520
52912SOL    HW260634   1.624   2.410   7.538
52913SOL     OW60635  12.635   0.037   0.173
52913SOL    HW160636  12.708   0.092   0.145
52913SOL    HW260637  12.596   0.084   0.247
52914SOL     OW60638   8.966  14.592   3.399
52914SOL    HW160639   9.013  14.635   3.470
52914SOL    HW260640   8.986  14.499   3.410
52915SOL     OW60641   6.846  10.766   6.666
52915SOL    HW160642   6.860  10.819   6.588
52915SOL    HW260643   6.930  10.724   6.682
52916SOL     OW60644   3.029  13.764   8.550
52916SOL    HW160645   3.120  13.791   8.540
52916SOL    HW260646   3.025  13.728   8.639
52917SOL     OW60647  14.550   3.879   4.422
52917SOL    HW160648  14.599   3.801   4.450
52917SOL    HW260649  14.558   3.878   4.326
52918SOL     OW60650  11.033   1.695   1.453
52918SOL    HW160651  11.007   1.785   1.433
52918SOL    HW260652  11.033   1.652   1.368
52919SOL     OW60653   7.774   7.303   6.321
52919SOL    HW160654   7.741   7.389   6.295
52919SOL    HW260655   7.868   7.307   6.303
52920SOL     OW60656   8.711   7.401  11.508
52920SOL    HW160657   8.700   7.317  11.552
52920SOL    HW260658   8.743   7.460  11.576
52921SOL     OW60659   9.592   3.198   7.492
52921SOL    HW160660   9.669   3.199   7.435
52921SOL    HW260661   9.621   3.243   7.572
52922SOL     OW60662   6.329  11.373   8.444
52922SOL    HW160663   6.344  11.467   8.447
52922SOL    HW260664   6.350  11.341   8.531
52923SOL     OW60665   1.329   1.909   9.205
52923SOL    HW160666   1.326   1.828   9.257
52923SOL    HW260667   1.285   1.886   9.123
52924SOL     OW60668  11.406   6.504   3.157
52924SOL    HW160669  11.356   6.446   3.100
52924SOL    HW260670  11.488   6.519   3.109
52925SOL     OW60671   4.355   2.770   1.826
52925SOL    HW160672   4.281   2.798   1.881
52925SOL    HW260673   4.316   2.711   1.762
52926SOL     OW60674   1.456   9.918  13.592
52926SOL    HW160675   1.475   9.877  13.676
52926SOL    HW260676   1.395   9.989  13.612
52927SOL     OW60677  11.163   7.067   1.649
52927SOL    HW160678  11.187   7.037   1.737
52927SOL    HW260679  11.210   7.149   1.638
52928SOL     OW60680   2.531  12.726   3.341
52928SOL    HW160681   2.582  12.789   3.291
52928SOL    HW260682   2.478  12.680   3.276
52929SOL     OW60683  12.086   9.591  11.519
52929SOL    HW160684  12.065   9.526  11.453
52929SOL    HW260685  12.182   9.597  11.518
52930SOL     OW60686  12.632   9.299  12.517
52930SOL    HW160687  12.566   9.240  12.482
52930SOL    HW260688  12.589   9.343  12.590
52931SOL     OW60689   9.618   6.034  13.647
52931SOL    HW160690   9.655   5.995  13.568
52931SOL    HW260691   9.530   5.997  13.654
52932SOL     OW60692   7.844   5.712  12.119
52932SOL    HW160693   7.811   5.789  12.073
52932SOL    HW260694   7.767   5.654  12.126
52933SOL     OW60695   9.661  11.002   8.328
52933SOL    HW160696   9.579  11.053   8.328
52933SOL    HW260697   9.649  10.939   8.257
52934SOL     OW60698   2.838   4.144  11.236
52934SOL    HW160699   2.793   4.061  11.224
52934SOL    HW260700   2.925   4.130  11.200
52935SOL     OW60701  13.481  11.028   1.025
52935SOL    HW160702  13.499  10.939   1.055
52935SOL    HW260703  13.407  11.019   0.966
52936SOL     OW60704   5.394  11.524   3.437
52936SOL    HW160705   5.378  11.572   3.518
52936SOL    HW260706   5.325  11.458   3.434
52937SOL     OW60707   4.203   3.301   6.351
52937SOL    HW160708   4.133   3.246   6.318
52937SOL    HW260709   4.159   3.378   6.387
52938SOL     OW60710   4.692   3.779  12.196
52938SOL    HW160711   4.708   3.742  12.283
52938SOL    HW260712   4.683   3.873  12.212
52939SOL     OW60713  13.816  13.245  10.594
52939SOL    HW160714  13.842  13.264  10.685
52939SOL    HW260715  13.721  13.235  10.598
52940SOL     OW60716  11.281  14.177  13.154
52940SOL    HW160717  11.343  14.145  13.220
52940SOL    HW260718  11.336  14.214  13.085
52941SOL     OW60719  12.339  11.048   3.089
52941SOL    HW160720  12.372  11.136   3.108
52941SOL    HW260721  12.418  10.997   3.071
52942SOL     OW60722   6.330  13.811   1.145
52942SOL    HW160723   6.296  13.890   1.186
52942SOL    HW260724   6.332  13.831   1.051
52943SOL     OW60725  10.383   6.347   7.583
52943SOL    HW160726  10.458   6.406   7.590
52943SOL    HW260727  10.322   6.392   7.524
52944SOL     OW60728  12.552   7.831   9.610
52944SOL    HW160729  12.507   7.907   9.573
52944SOL    HW260730  12.544   7.763   9.544
52945SOL     OW60731  12.788   4.885   1.543
52945SOL    HW160732  12.731   4.895   1.619
52945SOL    HW260733  12.734   4.837   1.480
52946SOL     OW60734   5.659   6.799  14.543
52946SOL    HW160735   5.578   6.767  14.504
52946SOL    HW260736   5.726   6.737  14.513
52947SOL     OW60737  11.161  14.513   2.482
52947SOL    HW160738  11.182  14.423   2.505
52947SOL    HW260739  11.066  14.518   2.486
52948SOL     OW60740   0.497   6.562   8.911
52948SOL    HW160741   0.576   6.576   8.963
52948SOL    HW260742   0.508   6.474   8.874
52949SOL     OW60743   5.661   0.729  10.493
52949SOL    HW160744   5.751   0.699  10.509
52949SOL    HW260745   5.606   0.665  10.539
52950SOL     OW60746   2.131   0.488   5.018
52950SOL    HW160747   2.106   0.413   5.072
52950SOL    HW260748   2.214   0.519   5.055
52951SOL     OW60749   5.665  11.006   4.886
52951SOL    HW160750   5.648  10.949   4.961
52951SOL    HW260751   5.590  11.064   4.883
52952SOL     OW60752  13.044  12.686   0.967
52952SOL    HW160753  13.095  12.610   0.996
52952SOL    HW260754  12.965  12.647   0.927
52953SOL     OW60755  14.727   1.016   8.310
52953SOL    HW160756  14.697   0.936   8.352
52953SOL    HW260757  14.745   0.991   8.219
52954SOL     OW60758   5.744   6.022   7.359
52954SOL    HW160759   5.720   6.087   7.425
52954SOL    HW260760   5.674   6.027   7.294
52955SOL     OW60761   4.950   6.440   3.241
52955SOL    HW160762   4.966   6.347   3.254
52955SOL    HW260763   4.855   6.448   3.236
52956SOL     OW60764   5.427  13.892   9.488
52956SOL    HW160765   5.426  13.837   9.566
52956SOL    HW260766   5.439  13.831   9.415
52957SOL     OW60767  10.215   3.796   3.662
52957SOL    HW160768  10.308   3.804   3.638
52957SOL    HW260769  10.191   3.708   3.635
52958SOL     OW60770   4.848   8.721   4.542
52958SOL    HW160771   4.844   8.672   4.459
52958SOL    HW260772   4.887   8.805   4.519
52959SOL     OW60773   5.089   9.152   1.427
52959SOL    HW160774   5.116   9.211   1.497
52959SOL    HW260775   5.147   9.076   1.437
52960SOL     OW60776  13.521   7.499   8.254
52960SOL    HW160777  13.528   7.454   8.170
52960SOL    HW260778  13.463   7.444   8.306
52961SOL     OW60779   8.826   6.241   0.625
52961SOL    HW160780   8.822   6.287   0.709
52961SOL    HW260781   8.913   6.200   0.625
52962SOL     OW60782  14.370   0.847   6.106
52962SOL    HW160783  14.333   0.864   6.193
52962SOL    HW260784  14.444   0.789   6.124
52963SOL     OW60785  10.281   7.576   4.535
52963SOL    HW160786  10.316   7.629   4.464
52963SOL    HW260787  10.280   7.635   4.611
52964SOL     OW60788   3.547   3.909   8.552
52964SOL    HW160789   3.593   3.911   8.468
52964SOL    HW260790   3.562   3.820   8.585
52965SOL     OW60791  13.112  12.946  12.089
52965SOL    HW160792  13.054  13.002  12.140
52965SOL    HW260793  13.200  12.980  12.107
52966SOL     OW60794   8.686   0.517   6.231
52966SOL    HW160795   8.624   0.529   6.158
52966SOL    HW260796   8.734   0.600   6.234
52967SOL     OW60797  13.843  12.601  11.259
52967SOL    HW160798  13.928  12.624  11.296
52967SOL    HW260799  13.863  12.546  11.183
52968SOL     OW60800   5.207   4.904  12.272
52968SOL    HW160801   5.165   4.956  12.340
52968SOL    HW260802   5.147   4.909  12.197
52969SOL     OW60803   7.797   1.483   1.441
52969SOL    HW160804   7.764   1.414   1.499
52969SOL    HW260805   7.822   1.436   1.361
52970SOL     OW60806   2.485   6.712   9.641
52970SOL    HW160807   2.515   6.763   9.565
52970SOL    HW260808   2.551   6.730   9.708
52971SOL     OW60809   6.286   8.787   0.354
52971SOL    HW160810   6.237   8.786   0.436
52971SOL    HW260811   6.225   8.750   0.290
52972SOL     OW60812   6.763   6.976   1.007
52972SOL    HW160813   6.695   7.037   1.035
52972SOL    HW260814   6.802   7.018   0.930
52973SOL     OW60815  14.630   4.376   7.930
52973SOL    HW160816  14.717   4.347   7.905
52973SOL    HW260817  14.620   4.348   8.021
52974SOL     OW60818   9.989  12.108   6.199
52974SOL    HW160819  10.080  12.133   6.218
52974SOL    HW260820   9.983  12.113   6.103
52975SOL     OW60821  13.849   0.486   4.689
52975SOL    HW160822  13.774   0.459   4.742
52975SOL    HW260823  13.882   0.404   4.651
52976SOL     OW60824   1.759   4.135   9.758
52976SOL    HW160825   1.748   4.173   9.671
52976SOL    HW260826   1.834   4.076   9.749
52977SOL     OW60827   6.012   6.385  10.102
52977SOL    HW160828   6.062   6.459  10.136
52977SOL    HW260829   6.070   6.309  10.112
52978SOL     OW60830   4.022   1.930   0.415
52978SOL    HW160831   3.932   1.897   0.416
52978SOL    HW260832   4.011   2.025   0.418
52979SOL     OW60833   2.218  10.658   6.639
52979SOL    HW160834   2.164  10.662   6.560
52979SOL    HW260835   2.165  10.702   6.706
52980SOL     OW60836  13.895   1.717  12.329
52980SOL    HW160837  13.946   1.758  12.259
52980SOL    HW260838  13.897   1.780  12.401
52981SOL     OW60839  11.432   0.724   1.590
52981SOL    HW160840  11.496   0.780   1.544
52981SOL    HW260841  11.351   0.735   1.540
52982SOL     OW60842   3.865   2.849  11.013
52982SOL    HW160843   3.775   2.875  10.994
52982SOL    HW260844   3.910   2.855  10.929
52983SOL     OW60845  14.482   4.572  10.531
52983SOL    HW160846  14.542   4.628  10.580
52983SOL    HW260847  14.399   4.618  10.532
52984SOL     OW60848   8.520   9.045   8.480
52984SOL    HW160849   8.425   9.031   8.472
52984SOL    HW260850   8.531   9.139   8.470
52985SOL     OW60851   1.758  11.502   9.279
52985SOL    HW160852   1.777  11.550   9.198
52985SOL    HW260853   1.754  11.569   9.347
52986SOL     OW60854  10.277   5.393  12.625
52986SOL    HW160855  10.344   5.355  12.681
52986SOL    HW260856  10.321   5.410  12.542
52987SOL     OW60857   5.328  13.392  14.036
52987SOL    HW160858   5.388  13.460  14.066
52987SOL    HW260859   5.290  13.427  13.956
52988SOL     OW60860   5.063  12.066   0.851
52988SOL    HW160861   5.017  12.009   0.790
52988SOL    HW260862   5.042  12.155   0.821
52989SOL     OW60863   1.238   0.217   5.177
52989SOL    HW160864   1.230   0.178   5.264
52989SOL    HW260865   1.196   0.303   5.185
52990SOL     OW60866  11.245   6.171   9.114
52990SOL    HW160867  11.278   6.082   9.103
52990SOL    HW260868  11.246   6.186   9.209
52991SOL     OW60869  13.611   2.514   4.810
52991SOL    HW160870  13.578   2.600   4.783
52991SOL    HW260871  13.697   2.532   4.847
52992SOL     OW60872   4.657   7.522   2.908
52992SOL    HW160873   4.640   7.592   2.971
52992SOL    HW260874   4.740   7.484   2.937
52993SOL     OW60875   0.769  10.981   9.484
52993SOL    HW160876   0.719  11.056   9.451
52993SOL    HW260877   0.818  11.016   9.558
52994SOL     OW60878   6.257   3.798   2.622
52994SOL    HW160879   6.179   3.846   2.594
52994SOL    HW260880   6.224   3.730   2.681
52995SOL     OW60881   9.487   2.508   2.713
52995SOL    HW160882   9.520   2.588   2.753
52995SOL    HW260883   9.566   2.454   2.700
52996SOL     OW60884   7.511   9.647   7.180
52996SOL    HW160885   7.439   9.691   7.226
52996SOL    HW260886   7.468   9.600   7.109
52997SOL     OW60887  11.662   7.805  10.903
52997SOL    HW160888  11.581   7.791  10.952
52997SOL    HW260889  11.639   7.784  10.812
52998SOL     OW60890  11.213  11.781   9.581
52998SOL    HW160891  11.137  11.799   9.635
52998SOL    HW260892  11.280  11.842   9.612
52999SOL     OW60893   5.492   6.927   4.756
52999SOL    HW160894   5.555   6.865   4.791
52999SOL    HW260895   5.445   6.959   4.833
53000SOL     OW60896   6.988   7.090   8.404
53000SOL    HW160897   7.062   7.050   8.450
53000SOL    HW260898   6.921   7.022   8.402
53001SOL     OW60899  10.514   4.949  12.892
53001SOL    HW160900  10.543   4.871  12.845
53001SOL    HW260901  10.514   4.923  12.984
53002SOL     OW60902   0.379  10.458   4.857
53002SOL    HW160903   0.337  10.516   4.921
53002SOL    HW260904   0.314  10.451   4.786
53003SOL     OW60905   3.772   3.967   3.760
53003SOL    HW160906   3.777   4.060   3.741
53003SOL    HW260907   3.746   3.927   3.676
53004SOL     OW60908   8.467  12.665  11.876
53004SOL    HW160909   8.505  12.577  11.873
53004SOL    HW260910   8.542  12.723  11.863
53005SOL     OW60911  14.021  11.218  14.297
53005SOL    HW160912  13.971  11.238  14.218
53005SOL    HW260913  14.097  11.169  14.265
53006SOL     OW60914   7.759   9.496   1.655
53006SOL    HW160915   7.687   9.509   1.594
53006SOL    HW260916   7.746   9.408   1.690
53007SOL     OW60917  11.369   2.236   2.253
53007SOL    HW160918  11.325   2.315   2.284
53007SOL    HW260919  11.441   2.269   2.199
53008SOL     OW60920   7.569   2.081   5.894
53008SOL    HW160921   7.609   1.994   5.892
53008SOL    HW260922   7.608   2.127   5.820
53009SOL     OW60923   7.342   3.866   5.473
53009SOL    HW160924   7.264   3.914   5.503
53009SOL    HW260925   7.381   3.831   5.553
53010SOL     OW60926   6.812   5.289  13.174
53010SOL    HW160927   6.816   5.222  13.242
53010SOL    HW260928   6.883   5.349  13.195
53011SOL     OW60929   6.798   2.301  10.376
53011SOL    HW160930   6.795   2.392  10.404
53011SOL    HW260931   6.854   2.301  10.298
53012SOL     OW60932   3.192  12.604  10.680
53012SOL    HW160933   3.205  12.591  10.586
53012SOL    HW260934   3.213  12.696  10.695
53013SOL     OW60935   4.029  12.344  12.646
53013SOL    HW160936   4.044  12.435  12.672
53013SOL    HW260937   4.093  12.294  12.696
53014SOL     OW60938   0.448  12.824  11.731
53014SOL    HW160939   0.419  12.804  11.642
53014SOL    HW260940   0.524  12.769  11.745
53015SOL     OW60941  11.126   3.660  10.778
53015SOL    HW160942  11.078   3.592  10.825
53015SOL    HW260943  11.164   3.714  10.847
53016SOL     OW60944   1.036   1.585   8.362
53016SOL    HW160945   1.089   1.571   8.441
53016SOL    HW260946   0.966   1.643   8.391
53017SOL     OW60947   5.457   4.137  14.460
53017SOL    HW160948   5.373   4.119  14.504
53017SOL    HW260949   5.442   4.218  14.411
53018SOL     OW60950   3.577   8.011  11.377
53018SOL    HW160951   3.581   8.022  11.472
53018SOL    HW260952   3.573   8.101  11.343
53019SOL     OW60953   3.748  11.060  14.646
53019SOL    HW160954   3.697  11.136  14.674
53019SOL    HW260955   3.778  11.019  14.727
53020SOL     OW60956  10.471   9.932  14.603
53020SOL    HW160957  10.399   9.901  14.548
53020SOL    HW260958  10.549   9.893  14.565
53021SOL     OW60959   4.359  14.415  11.385
53021SOL    HW160960   4.443  14.398  11.341
53021SOL    HW260961   4.317  14.481  11.330
53022SOL     OW60962   9.885   4.407   4.974
53022SOL    HW160963   9.941   4.444   5.041
53022SOL    HW260964   9.946   4.372   4.909
53023SOL     OW60965   6.631   4.211   6.072
53023SOL    HW160966   6.577   4.256   6.007
53023SOL    HW260967   6.645   4.277   6.140
53024SOL     OW60968   2.747   9.231  10.474
53024SOL    HW160969   2.718   9.289  10.403
53024SOL    HW260970   2.821   9.277  10.513
53025SOL     OW60971  13.324  10.377   1.410
53025SOL    HW160972  13.369  10.409   1.332
53025SOL    HW260973  13.333  10.282   1.405
53026SOL     OW60974   2.152   9.617   4.059
53026SOL    HW160975   2.238   9.575   4.059
53026SOL    HW260976   2.172   9.711   4.053
53027SOL     OW60977   7.379   3.565  12.251
53027SOL    HW160978   7.384   3.645  12.303
53027SOL    HW260979   7.445   3.576  12.183
53028SOL     OW60980   2.846   9.909   0.920
53028SOL    HW160981   2.869   9.991   0.964
53028SOL    HW260982   2.773   9.874   0.971
53029SOL     OW60983   0.651   3.989   8.313
53029SOL    HW160984   0.607   4.006   8.230
53029SOL    HW260985   0.590   3.932   8.361
53030SOL     OW60986   7.037  13.890  10.649
53030SOL    HW160987   7.062  13.856  10.562
53030SOL    HW260988   7.059  13.983  10.644
53031SOL     OW60989   2.507  10.109   9.875
53031SOL    HW160990   2.602  10.101   9.862
53031SOL    HW260991   2.469  10.055   9.806
53032SOL     OW60992  14.793   3.245   2.617
53032SOL    HW160993  14.779   3.211   2.529
53032SOL    HW260994  14.722   3.307   2.630
53033SOL     OW60995   6.397   7.131   2.558
53033SOL    HW160996   6.401   7.223   2.532
53033SOL    HW260997   6.410   7.082   2.477
53034SOL     OW60998   3.650  12.401   8.604
53034SOL    HW160999   3.717  12.413   8.537
53034SOL    HW261000   3.665  12.312   8.637
53035SOL     OW61001  10.398   3.083   5.412
53035SOL    HW161002  10.324   3.065   5.470
53035SOL    HW261003  10.475   3.062   5.464
53036SOL     OW61004   6.376  12.703  10.706
53036SOL    HW161005   6.376  12.798  10.697
53036SOL    HW261006   6.438  12.686  10.777
53037SOL     OW61007   7.995   2.640   9.128
53037SOL    HW161008   8.053   2.716   9.127
53037SOL    HW261009   8.047   2.569   9.092
53038SOL     OW61010   3.901   9.493  10.241
53038SOL    HW161011   3.926   9.401  10.229
53038SOL    HW261012   3.826   9.490  10.301
53039SOL     OW61013  13.494   7.839   0.906
53039SOL    HW161014  13.417   7.794   0.940
53039SOL    HW261015  13.516   7.791   0.826
53040SOL     OW61016   8.493   0.923   1.172
53040SOL    HW161017   8.440   0.857   1.218
53040SOL    HW261018   8.460   0.921   1.082
53041SOL     OW61019  10.742   9.816   2.618
53041SOL    HW161020  10.756   9.744   2.679
53041SOL    HW261021  10.827   9.860   2.612
53042SOL     OW61022   8.744   1.580  10.547
53042SOL    HW161023   8.839   1.587  10.556
53042SOL    HW261024   8.731   1.496  10.503
53043SOL     OW61025   8.517   7.724   1.717
53043SOL    HW161026   8.571   7.653   1.751
53043SOL    HW261027   8.563   7.804   1.742
53044SOL     OW61028  11.626   7.828   5.502
53044SOL    HW161029  11.614   7.855   5.593
53044SOL    HW261030  11.721   7.827   5.489
53045SOL     OW61031   3.638   0.558   9.363
53045SOL    HW161032   3.666   0.549   9.272
53045SOL    HW261033   3.545   0.581   9.357
53046SOL     OW61034   8.706  13.675   5.447
53046SOL    HW161035   8.785  13.711   5.489
53046SOL    HW261036   8.712  13.704   5.356
53047SOL     OW61037  14.434  13.966   6.088
53047SOL    HW161038  14.499  14.018   6.134
53047SOL    HW261039  14.365  13.950   6.152
53048SOL     OW61040   9.256  13.426  13.266
53048SOL    HW161041   9.187  13.395  13.324
53048SOL    HW261042   9.315  13.475  13.323
53049SOL     OW61043   1.552   0.526  13.270
53049SOL    HW161044   1.467   0.551  13.232
53049SOL    HW261045   1.615   0.541  13.199
53050SOL     OW61046   8.788   1.124   7.622
53050SOL    HW161047   8.774   1.218   7.614
53050SOL    HW261048   8.883   1.114   7.625
53051SOL     OW61049   5.138  11.979   6.510
53051SOL    HW161050   5.079  11.973   6.435
53051SOL    HW261051   5.194  11.901   6.504
53052SOL     OW61052   0.662  12.735  11.892
53052SOL    HW161053   0.754  12.760  11.899
53052SOL    HW261054   0.663  12.650  11.849
53053SOL     OW61055  13.262   4.500   6.537
53053SOL    HW161056  13.249   4.405   6.538
53053SOL    HW261057  13.280   4.521   6.446
53054SOL     OW61058   0.483   5.819   4.435
53054SOL    HW161059   0.404   5.873   4.437
53054SOL    HW261060   0.452   5.732   4.412
53055SOL     OW61061   0.446   0.157   0.765
53055SOL    HW161062   0.487   0.097   0.703
53055SOL    HW261063   0.480   0.131   0.850
53056SOL     OW61064   2.358   2.930   8.896
53056SOL    HW161065   2.279   2.980   8.915
53056SOL    HW261066   2.329   2.838   8.895
53057SOL     OW61067   8.988   6.957  10.770
53057SOL    HW161068   9.032   6.941  10.853
53057SOL    HW261069   9.032   7.034  10.734
53058SOL     OW61070  13.059  12.296   3.437
53058SOL    HW161071  13.052  12.295   3.342
53058SOL    HW261072  13.001  12.367   3.465
53059SOL     OW61073   3.434   3.531   4.099
53059SOL    HW161074   3.428   3.483   4.017
53059SOL    HW261075   3.420   3.623   4.074
53060SOL     OW61076   0.498  10.111  13.656
53060SOL    HW161077   0.569  10.148  13.605
53060SOL    HW261078   0.486  10.023  13.620
53061SOL     OW61079   3.053   0.082  14.763
53061SOL    HW161080   3.086  14.868  14.773
53061SOL    HW261081   2.976   0.087  14.818
53062SOL     OW61082   8.352   5.577   1.618
53062SOL    HW161083   8.333   5.532   1.536
53062SOL    HW261084   8.277   5.557   1.674
53063SOL     OW61085   3.971   6.798   1.101
53063SOL    HW161086   4.007   6.713   1.073
53063SOL    HW261087   4.048   6.849   1.127
53064SOL     OW61088  13.572  14.523   4.231
53064SOL    HW161089  13.591  14.578   4.155
53064SOL    HW261090  13.657  14.484   4.254
53065SOL     OW61091   9.923   5.681  13.707
53065SOL    HW161092   9.863   5.621  13.753
53065SOL    HW261093   9.866   5.746  13.666
53066SOL     OW61094   7.817  12.592   3.535
53066SOL    HW161095   7.807  12.624   3.624
53066SOL    HW261096   7.903  12.549   3.535
53067SOL     OW61097  13.895   3.384   4.487
53067SOL    HW161098  13.864   3.327   4.417
53067SOL    HW261099  13.837   3.364   4.562
53068SOL     OW61100  10.688   9.142   4.275
53068SOL    HW161101  10.747   9.091   4.331
53068SOL    HW261102  10.612   9.085   4.262
53069SOL     OW61103   9.665   7.096   3.564
53069SOL    HW161104   9.739   7.147   3.595
53069SOL    HW261105   9.681   7.008   3.598
53070SOL     OW61106   6.821  12.745   9.877
53070SOL    HW161107   6.842  12.655   9.901
53070SOL    HW261108   6.764  12.737   9.801
53071SOL     OW61109  11.890  13.123   8.318
53071SOL    HW161110  11.846  13.049   8.278
53071SOL    HW261111  11.913  13.180   8.245
53072SOL     OW61112   3.054  12.444  13.756
53072SOL    HW161113   2.977  12.495  13.731
53072SOL    HW261114   3.127  12.485  13.710
53073SOL     OW61115   6.400  10.610   5.451
53073SOL    HW161116   6.469  10.546   5.470
53073SOL    HW261117   6.383  10.599   5.358
53074SOL     OW61118   2.153   2.881   5.003
53074SOL    HW161119   2.211   2.919   4.938
53074SOL    HW261120   2.209   2.825   5.057
53075SOL     OW61121   2.279   9.664  13.962
53075SOL    HW161122   2.338   9.727  13.920
53075SOL    HW261123   2.220   9.638  13.892
53076SOL     OW61124  13.016  10.558   9.579
53076SOL    HW161125  13.093  10.553   9.522
53076SOL    HW261126  13.004  10.652   9.594
53077SOL     OW61127  10.946  14.614   9.280
53077SOL    HW161128  10.923  14.703   9.306
53077SOL    HW261129  10.872  14.584   9.227
53078SOL     OW61130   6.704   5.963   7.383
53078SOL    HW161131   6.687   5.947   7.476
53078SOL    HW261132   6.652   5.897   7.337
53079SOL     OW61133  11.451  11.947  12.483
53079SOL    HW161134  11.510  11.987  12.548
53079SOL    HW261135  11.504  11.879  12.442
53080SOL     OW61136   7.033   9.792   1.738
53080SOL    HW161137   7.068   9.703   1.740
53080SOL    HW261138   7.064   9.827   1.654
53081SOL     OW61139   9.503   3.984   9.606
53081SOL    HW161140   9.579   4.010   9.658
53081SOL    HW261141   9.452   4.065   9.596
53082SOL     OW61142   9.472   5.160   1.360
53082SOL    HW161143   9.499   5.082   1.311
53082SOL    HW261144   9.379   5.145   1.380
53083SOL     OW61145  10.481   5.276  11.413
53083SOL    HW161146  10.388   5.293  11.396
53083SOL    HW261147  10.514   5.359  11.448
53084SOL     OW61148   9.725   9.786   1.446
53084SOL    HW161149   9.665   9.816   1.377
53084SOL    HW261150   9.667   9.748   1.512
53085SOL     OW61151   8.284   4.862   3.487
53085SOL    HW161152   8.297   4.825   3.399
53085SOL    HW261153   8.253   4.788   3.539
53086SOL     OW61154   7.413   8.813   6.521
53086SOL    HW161155   7.327   8.810   6.563
53086SOL    HW261156   7.473   8.778   6.588
53087SOL     OW61157  12.549  12.886  13.096
53087SOL    HW161158  12.507  12.868  13.181
53087SOL    HW261159  12.609  12.813  13.083
53088SOL     OW61160   7.146   3.681   5.987
53088SOL    HW161161   7.240   3.661   5.985
53088SOL    HW261162   7.120   3.664   6.077
53089SOL     OW61163  14.495   8.068   1.978
53089SOL    HW161164  14.430   8.125   1.937
53089SOL    HW261165  14.469   7.980   1.951
53090SOL     OW61166  12.726   8.457  10.453
53090SOL    HW161167  12.822   8.454  10.451
53090SOL    HW261168  12.705   8.469  10.545
53091SOL     OW61169   0.348  14.824  13.115
53091SOL    HW161170   0.360  14.756  13.181
53091SOL    HW261171   0.416  14.807  13.050
53092SOL     OW61172   1.028  12.591   5.701
53092SOL    HW161173   0.973  12.529   5.653
53092SOL    HW261174   0.980  12.673   5.698
53093SOL     OW61175  13.970   9.845   6.927
53093SOL    HW161176  14.059   9.814   6.942
53093SOL    HW261177  13.981   9.936   6.897
53094SOL     OW61178   1.209   3.535   3.827
53094SOL    HW161179   1.138   3.582   3.782
53094SOL    HW261180   1.190   3.547   3.920
53095SOL     OW61181  14.395   0.100   5.922
53095SOL    HW161182  14.347   0.118   5.840
53095SOL    HW261183  14.330   0.116   5.991
53096SOL     OW61184   8.171   7.789   1.451
53096SOL    HW161185   8.203   7.815   1.538
53096SOL    HW261186   8.204   7.857   1.393
53097SOL     OW61187  12.224   2.951  14.090
53097SOL    HW161188  12.177   2.870  14.069
53097SOL    HW261189  12.157   3.008  14.129
53098SOL     OW61190  10.051  14.502   1.896
53098SOL    HW161191  10.083  14.564   1.962
53098SOL    HW261192   9.959  14.488   1.918
53099SOL     OW61193   0.345   2.297  11.375
53099SOL    HW161194   0.399   2.315  11.298
53099SOL    HW261195   0.266   2.255  11.340
53100SOL     OW61196   4.251   1.818   6.252
53100SOL    HW161197   4.316   1.748   6.260
53100SOL    HW261198   4.191   1.787   6.184
53101SOL     OW61199   7.660   0.124  12.088
53101SOL    HW161200   7.644   0.214  12.058
53101SOL    HW261201   7.740   0.098  12.041
53102SOL     OW61202  12.596   2.826   6.051
53102SOL    HW161203  12.642   2.876   5.984
53102SOL    HW261204  12.622   2.735   6.035
53103SOL     OW61205   0.403   0.215  14.454
53103SOL    HW161206   0.339   0.265  14.505
53103SOL    HW261207   0.364   0.206  14.367
53104SOL     OW61208   5.332   5.999   7.578
53104SOL    HW161209   5.369   6.037   7.499
53104SOL    HW261210   5.382   5.919   7.593
53105SOL     OW61211   3.576   2.916   6.122
53105SOL    HW161212   3.549   2.993   6.071
53105SOL    HW261213   3.669   2.929   6.138
53106SOL     OW61214   3.038   6.801  13.600
53106SOL    HW161215   2.964   6.802  13.540
53106SOL    HW261216   3.077   6.888  13.593
53107SOL     OW61217   6.080   0.615   3.766
53107SOL    HW161218   6.144   0.647   3.829
53107SOL    HW261219   5.999   0.605   3.817
53108SOL     OW61220   3.637   2.089   8.966
53108SOL    HW161221   3.599   2.015   8.919
53108SOL    HW261222   3.565   2.151   8.975
53109SOL     OW61223   6.750  13.502   8.681
53109SOL    HW161224   6.690  13.482   8.608
53109SOL    HW261225   6.745  13.597   8.690
53110SOL     OW61226  14.150   9.912  11.127
53110SOL    HW161227  14.148   9.930  11.033
53110SOL    HW261228  14.225   9.963  11.159
53111SOL     OW61229  14.229  12.582  12.421
53111SOL    HW161230  14.240  12.558  12.513
53111SOL    HW261231  14.317  12.605  12.392
53112SOL     OW61232  14.125   3.815   0.024
53112SOL    HW161233  14.154   3.755  14.830
53112SOL    HW261234  14.034   3.790   0.041
53113SOL     OW61235   7.125   9.826   0.672
53113SOL    HW161236   7.038   9.803   0.705
53113SOL    HW261237   7.108   9.868   0.587
53114SOL     OW61238  12.017   7.467   3.502
53114SOL    HW161239  11.926   7.444   3.519
53114SOL    HW261240  12.049   7.501   3.586
53115SOL     OW61241  11.872   0.411   6.873
53115SOL    HW161242  11.943   0.349   6.889
53115SOL    HW261243  11.882   0.476   6.942
53116SOL     OW61244   2.341  10.840   1.737
53116SOL    HW161245   2.382  10.754   1.737
53116SOL    HW261246   2.279  10.838   1.810
53117SOL     OW61247   5.673  12.355  13.257
53117SOL    HW161248   5.611  12.283  13.268
53117SOL    HW261249   5.695  12.382  13.346
53118SOL     OW61250  14.732   9.976   1.105
53118SOL    HW161251  14.771  10.063   1.107
53118SOL    HW261252  14.755   9.937   1.189
53119SOL     OW61253  10.864   3.823   1.167
53119SOL    HW161254  10.941   3.825   1.223
53119SOL    HW261255  10.806   3.890   1.203
53120SOL     OW61256   5.383   5.717   2.331
53120SOL    HW161257   5.441   5.641   2.339
53120SOL    HW261258   5.332   5.718   2.412
53121SOL     OW61259   1.736   8.935   9.800
53121SOL    HW161260   1.769   8.953   9.712
53121SOL    HW261261   1.764   8.845   9.818
53122SOL     OW61262  14.221   9.966  13.252
53122SOL    HW161263  14.304   9.919  13.248
53122SOL    HW261264  14.246  10.057  13.270
53123SOL     OW61265  13.746  10.905  10.645
53123SOL    HW161266  13.779  10.870  10.562
53123SOL    HW261267  13.715  10.828  10.693
53124SOL     OW61268   6.371   6.145   8.447
53124SOL    HW161269   6.437   6.176   8.384
53124SOL    HW261270   6.406   6.172   8.532
53125SOL     OW61271   2.061   8.923   3.365
53125SOL    HW161272   1.973   8.934   3.330
53125SOL    HW261273   2.087   9.011   3.392
53126SOL     OW61274  10.698   5.568   9.609
53126SOL    HW161275  10.647   5.553   9.688
53126SOL    HW261276  10.757   5.493   9.604
53127SOL     OW61277  13.924  13.164   6.554
53127SOL    HW161278  14.008  13.119   6.541
53127SOL    HW261279  13.942  13.255   6.532
53128SOL     OW61280  12.651  11.974   5.312
53128SOL    HW161281  12.720  12.035   5.286
53128SOL    HW261282  12.693  11.914   5.372
53129SOL     OW61283   6.109  10.537  12.448
53129SOL    HW161284   6.075  10.625  12.429
53129SOL    HW261285   6.151  10.546  12.534
53130SOL     OW61286   3.086   1.210   3.160
53130SOL    HW161287   3.125   1.156   3.228
53130SOL    HW261288   2.991   1.198   3.170
53131SOL     OW61289   2.282   1.151  13.190
53131SOL    HW161290   2.208   1.157  13.129
53131SOL    HW261291   2.265   1.071  13.241
53132SOL     OW61292   9.016   8.456   4.872
53132SOL    HW161293   8.954   8.382   4.872
53132SOL    HW261294   9.033   8.473   4.965
53133SOL     OW61295  10.391  14.564  13.130
53133SOL    HW161296  10.436  14.593  13.050
53133SOL    HW261297  10.320  14.628  13.142
53134SOL     OW61298   7.798   8.151   3.593
53134SOL    HW161299   7.822   8.140   3.685
53134SOL    HW261300   7.879   8.180   3.550
53135SOL     OW61301   6.653  12.582   9.163
53135SOL    HW161302   6.666  12.489   9.183
53135SOL    HW261303   6.560  12.597   9.181
53136SOL     OW61304   7.626  13.865  11.965
53136SOL    HW161305   7.657  13.778  11.989
53136SOL    HW261306   7.678  13.890  11.889
53137SOL     OW61307   3.407   6.881   5.634
53137SOL    HW161308   3.349   6.913   5.702
53137SOL    HW261309   3.358   6.811   5.591
53138SOL     OW61310   9.483   8.462   9.295
53138SOL    HW161311   9.434   8.516   9.357
53138SOL    HW261312   9.563   8.440   9.341
53139SOL     OW61313   0.114   3.694  10.237
53139SOL    HW161314   0.136   3.693  10.330
53139SOL    HW261315   0.067   3.612  10.223
53140SOL     OW61316   4.727   7.078   7.776
53140SOL    HW161317   4.700   7.158   7.731
53140SOL    HW261318   4.791   7.038   7.717
53141SOL     OW61319   5.792   4.723  14.736
53141SOL    HW161320   5.732   4.766  14.797
53141SOL    HW261321   5.850   4.672  14.792
53142SOL     OW61322  11.990   5.008   3.364
53142SOL    HW161323  11.951   5.008   3.276
53142SOL    HW261324  12.081   4.984   3.349
53143SOL     OW61325   4.571   6.301   6.106
53143SOL    HW161326   4.576   6.396   6.117
53143SOL    HW261327   4.661   6.271   6.114
53144SOL     OW61328  11.261   3.670   0.397
53144SOL    HW161329  11.189   3.701   0.342
53144SOL    HW261330  11.219   3.650   0.481
53145SOL     OW61331   3.532  11.752   2.714
53145SOL    HW161332   3.579  11.835   2.709
53145SOL    HW261333   3.440  11.778   2.721
53146SOL     OW61334   6.914  12.600   4.122
53146SOL    HW161335   6.961  12.682   4.110
53146SOL    HW261336   6.834  12.610   4.070
53147SOL     OW61337   4.496  13.213  13.445
53147SOL    HW161338   4.577  13.170  13.472
53147SOL    HW261339   4.438  13.141  13.421
53148SOL     OW61340   2.297   3.507   9.043
53148SOL    HW161341   2.280   3.602   9.044
53148SOL    HW261342   2.384   3.499   9.081
53149SOL     OW61343  11.001  10.129   2.769
53149SOL    HW161344  11.078  10.179   2.793
53149SOL    HW261345  10.928  10.174   2.811
53150SOL     OW61346   6.009   8.853   1.041
53150SOL    HW161347   5.992   8.926   1.101
53150SOL    HW261348   5.926   8.806   1.036
53151SOL     OW61349   6.849  11.728   3.938
53151SOL    HW161350   6.913  11.731   3.867
53151SOL    HW261351   6.872  11.648   3.987
53152SOL     OW61352   0.358  10.093   3.897
53152SOL    HW161353   0.364   9.998   3.906
53152SOL    HW261354   0.402  10.113   3.815
53153SOL     OW61355   1.234   8.730   2.255
53153SOL    HW161356   1.195   8.805   2.210
53153SOL    HW261357   1.238   8.757   2.347
53154SOL     OW61358   9.551   5.537  14.042
53154SOL    HW161359   9.501   5.465  14.004
53154SOL    HW261360   9.527   5.614  13.990
53155SOL     OW61361   6.463   3.863  13.829
53155SOL    HW161362   6.439   3.954  13.844
53155SOL    HW261363   6.400   3.813  13.881
53156SOL     OW61364   9.810   1.009  12.376
53156SOL    HW161365   9.742   1.045  12.319
53156SOL    HW261366   9.866   0.959  12.317
53157SOL     OW61367   8.436   9.914   0.673
53157SOL    HW161368   8.411  10.003   0.648
53157SOL    HW261369   8.493   9.926   0.749
53158SOL     OW61370   8.021  10.546   0.916
53158SOL    HW161371   8.054  10.636   0.920
53158SOL    HW261372   8.093  10.496   0.877
53159SOL     OW61373   9.524   4.550   0.473
53159SOL    HW161374   9.584   4.476   0.463
53159SOL    HW261375   9.475   4.553   0.391
53160SOL     OW61376  13.395   7.077   5.344
53160SOL    HW161377  13.334   7.078   5.271
53160SOL    HW261378  13.425   6.986   5.349
53161SOL     OW61379   9.046  13.903   1.041
53161SOL    HW161380   9.110  13.973   1.034
53161SOL    HW261381   9.091  13.832   1.087
53162SOL     OW61382   3.926   1.137  12.768
53162SOL    HW161383   3.880   1.134  12.684
53162SOL    HW261384   3.897   1.220  12.807
53163SOL     OW61385   0.516   6.611  11.112
53163SOL    HW161386   0.448   6.666  11.152
53163SOL    HW261387   0.594   6.666  11.112
53164SOL     OW61388  11.416  11.759   2.350
53164SOL    HW161389  11.370  11.753   2.266
53164SOL    HW261390  11.384  11.685   2.401
53165SOL     OW61391   5.208  11.744   3.829
53165SOL    HW161392   5.236  11.746   3.737
53165SOL    HW261393   5.203  11.836   3.854
53166SOL     OW61394   0.158   1.554  12.039
53166SOL    HW161395   0.163   1.618  12.110
53166SOL    HW261396   0.133   1.605  11.962
53167SOL     OW61397  14.758  13.836   9.418
53167SOL    HW161398  14.674  13.808   9.455
53167SOL    HW261399  14.767  13.784   9.338
53168SOL     OW61400   9.117   9.679   0.483
53168SOL    HW161401   9.202   9.654   0.518
53168SOL    HW261402   9.104   9.623   0.407
53169SOL     OW61403   2.716  14.361   7.479
53169SOL    HW161404   2.768  14.327   7.407
53169SOL    HW261405   2.725  14.295   7.548
53170SOL     OW61406   2.349   2.998   8.591
53170SOL    HW161407   2.354   3.025   8.683
53170SOL    HW261408   2.331   3.079   8.543
53171SOL     OW61409   4.272   7.029  12.903
53171SOL    HW161410   4.346   6.968  12.902
53171SOL    HW261411   4.312   7.115  12.916
53172SOL     OW61412  12.773  13.897   5.479
53172SOL    HW161413  12.783  13.929   5.389
53172SOL    HW261414  12.745  13.806   5.468
53173SOL     OW61415  10.087   2.258   1.051
53173SOL    HW161416  10.130   2.176   1.076
53173SOL    HW261417  10.118   2.276   0.963
53174SOL     OW61418   4.495  10.763  10.056
53174SOL    HW161419   4.412  10.796  10.024
53174SOL    HW261420   4.538  10.839  10.094
53175SOL     OW61421   9.092   0.013   1.838
53175SOL    HW161422   9.184  14.862   1.833
53175SOL    HW261423   9.047  14.809   1.869
53176SOL     OW61424   5.647   2.838   9.714
53176SOL    HW161425   5.603   2.835   9.629
53176SOL    HW261426   5.612   2.916   9.756
53177SOL     OW61427  11.134   7.194  12.744
53177SOL    HW161428  11.054   7.199  12.692
53177SOL    HW261429  11.185   7.270  12.716
53178SOL     OW61430   5.843   2.939  10.336
53178SOL    HW161431   5.907   3.003  10.366
53178SOL    HW261432   5.831   2.958  10.243
53179SOL     OW61433   3.533  11.744   4.563
53179SOL    HW161434   3.608  11.801   4.581
53179SOL    HW261435   3.486  11.739   4.646
53180SOL     OW61436   2.405  10.665   9.780
53180SOL    HW161437   2.336  10.618   9.825
53180SOL    HW261438   2.368  10.687   9.695
53181SOL     OW61439  11.367   4.695   1.940
53181SOL    HW161440  11.363   4.746   2.021
53181SOL    HW261441  11.341   4.606   1.966
53182SOL     OW61442  14.058   4.487   7.082
53182SOL    HW161443  14.063   4.489   6.986
53182SOL    HW261444  14.028   4.398   7.102
53183SOL     OW61445   7.688  12.128  10.794
53183SOL    HW161446   7.626  12.076  10.743
53183SOL    HW261447   7.745  12.169  10.730
53184SOL     OW61448   8.450  14.093   8.169
53184SOL    HW161449   8.525  14.078   8.226
53184SOL    HW261450   8.453  14.187   8.151
53185SOL     OW61451   3.285   0.325   7.647
53185SOL    HW161452   3.197   0.286   7.649
53185SOL    HW261453   3.269   0.418   7.630
53186SOL     OW61454   7.991   1.810   1.300
53186SOL    HW161455   7.962   1.753   1.371
53186SOL    HW261456   7.994   1.897   1.340
53187SOL     OW61457   6.181   8.775   4.019
53187SOL    HW161458   6.139   8.779   3.933
53187SOL    HW261459   6.146   8.695   4.058
53188SOL     OW61460   2.031  11.138  11.212
53188SOL    HW161461   2.057  11.219  11.168
53188SOL    HW261462   1.987  11.087  11.144
53189SOL     OW61463   2.672   2.258   0.461
53189SOL    HW161464   2.639   2.348   0.456
53189SOL    HW261465   2.634   2.224   0.542
53190SOL     OW61466  13.956  10.759   7.317
53190SOL    HW161467  14.013  10.756   7.394
53190SOL    HW261468  13.979  10.840   7.272
53191SOL     OW61469  14.834   8.976  12.166
53191SOL    HW161470  14.776   8.901  12.155
53191SOL    HW261471  14.775   9.052  12.167
53192SOL     OW61472   8.665   0.629   3.974
53192SOL    HW161473   8.658   0.682   3.895
53192SOL    HW261474   8.576   0.599   3.992
53193SOL     OW61475   4.154   7.867   6.552
53193SOL    HW161476   4.127   7.955   6.579
53193SOL    HW261477   4.249   7.871   6.549
53194SOL     OW61478   5.779   9.737  11.258
53194SOL    HW161479   5.863   9.737  11.303
53194SOL    HW261480   5.736   9.657  11.287
53195SOL     OW61481   6.183   5.673   9.576
53195SOL    HW161482   6.257   5.730   9.556
53195SOL    HW261483   6.107   5.731   9.582
53196SOL     OW61484  11.036   9.930   5.882
53196SOL    HW161485  10.990   9.947   5.800
53196SOL    HW261486  10.983   9.864   5.927
53197SOL     OW61487  12.707   6.297   8.026
53197SOL    HW161488  12.652   6.339   7.959
53197SOL    HW261489  12.645   6.262   8.090
53198SOL     OW61490   4.233  14.723  14.182
53198SOL    HW161491   4.158  14.764  14.139
53198SOL    HW261492   4.290  14.796  14.207
53199SOL     OW61493   2.464   9.373   2.833
53199SOL    HW161494   2.502   9.385   2.920
53199SOL    HW261495   2.505   9.442   2.780
53200SOL     OW61496   4.121  11.330   4.121
53200SOL    HW161497   4.097  11.360   4.033
53200SOL    HW261498   4.111  11.408   4.176
53201SOL     OW61499  13.131   0.409  10.626
53201SOL    HW161500  13.098   0.390  10.713
53201SOL    HW261501  13.099   0.497  10.606
53202SOL     OW61502  12.872  10.059   1.230
53202SOL    HW161503  12.853  10.137   1.177
53202SOL    HW261504  12.966  10.063   1.247
53203SOL     OW61505   9.568   7.504   1.015
53203SOL    HW161506   9.507   7.545   0.953
53203SOL    HW261507   9.553   7.550   1.098
53204SOL     OW61508   1.381   3.104   4.963
53204SOL    HW161509   1.403   3.025   5.013
53204SOL    HW261510   1.404   3.082   4.873
53205SOL     OW61511  11.707   6.757  13.228
53205SOL    HW161512  11.629   6.798  13.265
53205SOL    HW261513  11.723   6.681  13.284
53206SOL     OW61514   7.161   8.251   7.638
53206SOL    HW161515   7.147   8.186   7.569
53206SOL    HW261516   7.130   8.208   7.718
53207SOL     OW61517   1.105   7.506   1.793
53207SOL    HW161518   1.161   7.554   1.733
53207SOL    HW261519   1.037   7.468   1.737
53208SOL     OW61520   9.269   6.307   1.521
53208SOL    HW161521   9.184   6.279   1.485
53208SOL    HW261522   9.251   6.393   1.559
53209SOL     OW61523  12.460   7.243  12.476
53209SOL    HW161524  12.437   7.215  12.565
53209SOL    HW261525  12.469   7.161  12.427
53210SOL     OW61526  11.350   2.652  14.323
53210SOL    HW161527  11.335   2.730  14.269
53210SOL    HW261528  11.402   2.595  14.266
53211SOL     OW61529   8.930   2.445   0.386
53211SOL    HW161530   8.897   2.463   0.474
53211SOL    HW261531   8.986   2.368   0.397
53212SOL     OW61532   4.415  10.305   6.636
53212SOL    HW161533   4.424  10.396   6.610
53212SOL    HW261534   4.391  10.308   6.729
53213SOL     OW61535   8.526   2.115   3.120
53213SOL    HW161536   8.546   2.194   3.171
53213SOL    HW261537   8.552   2.042   3.177
53214SOL     OW61538  12.650  12.070   7.333
53214SOL    HW161539  12.587  12.078   7.404
53214SOL    HW261540  12.690  12.157   7.326
53215SOL     OW61541   6.052   7.286   8.307
53215SOL    HW161542   5.958   7.300   8.308
53215SOL    HW261543   6.070   7.253   8.219
53216SOL     OW61544  12.133  13.635  14.418
53216SOL    HW161545  12.091  13.616  14.334
53216SOL    HW261546  12.178  13.554  14.442
53217SOL     OW61547   5.621   6.105   7.055
53217SOL    HW161548   5.716   6.108   7.042
53217SOL    HW261549   5.597   6.194   7.082
53218SOL     OW61550   0.015   1.955   8.439
53218SOL    HW161551  14.820   2.006   8.479
53218SOL    HW261552   0.005   1.970   8.345
53219SOL     OW61553   6.969   4.080  14.641
53219SOL    HW161554   7.003   4.135  14.570
53219SOL    HW261555   6.978   4.133  14.720
53220SOL     OW61556   6.789  12.406   4.247
53220SOL    HW161557   6.837  12.480   4.210
53220SOL    HW261558   6.822  12.330   4.200
53221SOL     OW61559   4.442   4.181   0.434
53221SOL    HW161560   4.515   4.158   0.491
53221SOL    HW261561   4.470   4.155   0.347
53222SOL     OW61562   0.428  13.941   3.395
53222SOL    HW161563   0.433  13.946   3.491
53222SOL    HW261564   0.519  13.940   3.366
53223SOL     OW61565  14.244  13.391  13.965
53223SOL    HW161566  14.339  13.376  13.970
53223SOL    HW261567  14.215  13.338  13.891
53224SOL     OW61568  12.350   6.335   6.986
53224SOL    HW161569  12.390   6.417   6.957
53224SOL    HW261570  12.420   6.289   7.032
53225SOL     OW61571   4.317   4.543  14.583
53225SOL    HW161572   4.389   4.485  14.605
53225SOL    HW261573   4.241   4.485  14.572
53226SOL     OW61574   1.279   0.111  10.536
53226SOL    HW161575   1.372   0.106  10.515
53226SOL    HW261576   1.246   0.023  10.520
53227SOL     OW61577   5.367   4.791  14.082
53227SOL    HW161578   5.414   4.864  14.122
53227SOL    HW261579   5.366   4.723  14.149
53228SOL     OW61580   0.641  11.638  12.103
53228SOL    HW161581   0.573  11.592  12.152
53228SOL    HW261582   0.701  11.671  12.169
53229SOL     OW61583   1.273   2.576   1.481
53229SOL    HW161584   1.222   2.590   1.561
53229SOL    HW261585   1.271   2.662   1.437
53230SOL     OW61586   8.759   9.101   7.692
53230SOL    HW161587   8.761   9.159   7.616
53230SOL    HW261588   8.760   9.013   7.656
53231SOL     OW61589  14.381   4.032  11.046
53231SOL    HW161590  14.305   4.008  10.992
53231SOL    HW261591  14.403   4.121  11.018
53232SOL     OW61592   5.961   0.820   8.556
53232SOL    HW161593   5.928   0.843   8.643
53232SOL    HW261594   5.953   0.724   8.552
53233SOL     OW61595   9.614   5.633   4.282
53233SOL    HW161596   9.534   5.683   4.265
53233SOL    HW261597   9.671   5.655   4.209
53234SOL     OW61598   6.574   7.935   8.655
53234SOL    HW161599   6.614   7.931   8.568
53234SOL    HW261600   6.649   7.934   8.715
53235SOL     OW61601   0.761  12.247  14.458
53235SOL    HW161602   0.709  12.167  14.465
53235SOL    HW261603   0.851  12.217  14.450
53236SOL     OW61604  11.755   4.467   7.999
53236SOL    HW161605  11.699   4.430   8.068
53236SOL    HW261606  11.767   4.395   7.937
53237SOL     OW61607  13.166   3.859   7.589
53237SOL    HW161608  13.131   3.855   7.500
53237SOL    HW261609  13.099   3.906   7.639
53238SOL     OW61610   9.985  14.330   3.585
53238SOL    HW161611   9.963  14.343   3.493
53238SOL    HW261612   9.915  14.274   3.620
53239SOL     OW61613  13.804   6.710  11.099
53239SOL    HW161614  13.782   6.623  11.066
53239SOL    HW261615  13.851   6.752  11.027
53240SOL     OW61616   3.914   7.182   7.820
53240SOL    HW161617   3.912   7.183   7.916
53240SOL    HW261618   3.995   7.227   7.797
53241SOL     OW61619   8.386   2.057  10.664
53241SOL    HW161620   8.329   2.039  10.589
53241SOL    HW261621   8.360   2.144  10.694
53242SOL     OW61622  12.756   3.155   2.326
53242SOL    HW161623  12.713   3.227   2.371
53242SOL    HW261624  12.685   3.111   2.279
53243SOL     OW61625   2.321  14.236   5.238
53243SOL    HW161626   2.326  14.206   5.329
53243SOL    HW261627   2.390  14.186   5.193
53244SOL     OW61628  13.828   4.154   4.956
53244SOL    HW161629  13.915   4.129   4.987
53244SOL    HW261630  13.809   4.093   4.885
53245SOL     OW61631   4.330   0.365  13.787
53245SOL    HW161632   4.258   0.427  13.776
53245SOL    HW261633   4.400   0.417  13.827
53246SOL     OW61634   5.487   5.267   2.136
53246SOL    HW161635   5.422   5.337   2.143
53246SOL    HW261636   5.510   5.247   2.227
53247SOL     OW61637   2.206   6.593  10.925
53247SOL    HW161638   2.144   6.522  10.910
53247SOL    HW261639   2.182   6.661  10.862
53248SOL     OW61640   8.003  12.614   5.707
53248SOL    HW161641   8.073  12.676   5.725
53248SOL    HW261642   7.926  12.669   5.690
53249SOL     OW61643   6.417   3.373  14.360
53249SOL    HW161644   6.333   3.332  14.384
53249SOL    HW261645   6.474   3.354  14.434
53250SOL     OW61646   1.310   1.338   7.536
53250SOL    HW161647   1.371   1.324   7.608
53250SOL    HW261648   1.224   1.313   7.571
53251SOL     OW61649   1.413  13.665   4.890
53251SOL    HW161650   1.358  13.719   4.834
53251SOL    HW261651   1.437  13.590   4.836
53252SOL     OW61652   9.851   6.431   9.116
53252SOL    HW161653   9.797   6.363   9.076
53252SOL    HW261654   9.920   6.383   9.162
53253SOL     OW61655   6.070  10.356  11.571
53253SOL    HW161656   6.149  10.389  11.527
53253SOL    HW261657   6.033  10.293  11.509
53254SOL     OW61658   7.069   0.551   9.141
53254SOL    HW161659   7.033   0.628   9.186
53254SOL    HW261660   7.134   0.515   9.201
53255SOL     OW61661   1.992  11.033   2.606
53255SOL    HW161662   1.902  10.999   2.607
53255SOL    HW261663   1.985  11.117   2.559
53256SOL     OW61664   6.804  12.292   1.211
53256SOL    HW161665   6.834  12.218   1.157
53256SOL    HW261666   6.861  12.364   1.185
53257SOL     OW61667  13.765  13.500   2.079
53257SOL    HW161668  13.710  13.422   2.090
53257SOL    HW261669  13.731  13.563   2.142
53258SOL     OW61670   6.754   6.151   6.394
53258SOL    HW161671   6.795   6.221   6.343
53258SOL    HW261672   6.775   6.173   6.485
53259SOL     OW61673   4.404  12.514   6.664
53259SOL    HW161674   4.439  12.499   6.577
53259SOL    HW261675   4.314  12.483   6.660
53260SOL     OW61676   6.298  13.545   3.294
53260SOL    HW161677   6.205  13.559   3.314
53260SOL    HW261678   6.326  13.477   3.355
53261SOL     OW61679   3.933   2.270   4.670
53261SOL    HW161680   3.849   2.303   4.703
53261SOL    HW261681   3.925   2.175   4.676
53262SOL     OW61682   1.850   5.124  13.577
53262SOL    HW161683   1.787   5.061  13.612
53262SOL    HW261684   1.811   5.152  13.494
53263SOL     OW61685   0.024   2.892   3.350
53263SOL    HW161686  14.831   2.845   3.301
53263SOL    HW261687   0.099   2.832   3.349
53264SOL     OW61688   1.879   2.712   2.438
53264SOL    HW161689   1.914   2.790   2.481
53264SOL    HW261690   1.816   2.746   2.375
53265SOL     OW61691   4.683   5.427  11.244
53265SOL    HW161692   4.754   5.382  11.290
53265SOL    HW261693   4.688   5.517  11.276
53266SOL     OW61694  12.757   3.186   6.777
53266SOL    HW161695  12.790   3.160   6.862
53266SOL    HW261696  12.756   3.105   6.726
53267SOL     OW61697   5.325   9.624   6.551
53267SOL    HW161698   5.271   9.584   6.619
53267SOL    HW261699   5.336   9.555   6.486
53268SOL     OW61700   1.450   7.217   6.372
53268SOL    HW161701   1.482   7.153   6.435
53268SOL    HW261702   1.354   7.211   6.378
53269SOL     OW61703   5.746   4.918   2.159
53269SOL    HW161704   5.775   4.952   2.244
53269SOL    HW261705   5.781   4.828   2.157
53270SOL     OW61706  11.745   1.446  13.881
53270SOL    HW161707  11.756   1.449  13.786
53270SOL    HW261708  11.652   1.463  13.895
53271SOL     OW61709   5.782   3.811   6.207
53271SOL    HW161710   5.801   3.721   6.182
53271SOL    HW261711   5.753   3.806   6.298
53272SOL     OW61712  12.967   6.861   6.473
53272SOL    HW161713  13.028   6.812   6.417
53272SOL    HW261714  12.936   6.796   6.537
53273SOL     OW61715   3.623  14.675   6.245
53273SOL    HW161716   3.572  14.643   6.320
53273SOL    HW261717   3.602  14.768   6.241
53274SOL     OW61718  13.422   7.798   6.750
53274SOL    HW161719  13.480   7.875   6.746
53274SOL    HW261720  13.374   7.809   6.832
53275SOL     OW61721   4.295  13.569   7.150
53275SOL    HW161722   4.224  13.517   7.112
53275SOL    HW261723   4.285  13.656   7.110
53276SOL     OW61724   3.920  14.857  12.101
53276SOL    HW161725   3.972  14.794  12.051
53276SOL    HW261726   3.981   0.052  12.123
53277SOL     OW61727   7.354   2.206   5.999
53277SOL    HW161728   7.409   2.133   5.972
53277SOL    HW261729   7.391   2.236   6.082
53278SOL     OW61730   9.045   5.178  10.785
53278SOL    HW161731   9.077   5.139  10.704
53278SOL    HW261732   8.951   5.160  10.785
53279SOL     OW61733   5.571   5.544   9.665
53279SOL    HW161734   5.568   5.569   9.757
53279SOL    HW261735   5.663   5.526   9.648
53280SOL     OW61736   0.252   7.333   1.868
53280SOL    HW161737   0.347   7.349   1.861
53280SOL    HW261738   0.239   7.314   1.961
53281SOL     OW61739   5.495   0.216  10.985
53281SOL    HW161740   5.552   0.139  10.985
53281SOL    HW261741   5.410   0.183  10.956
53282SOL     OW61742   4.021  12.004  11.556
53282SOL    HW161743   3.946  11.946  11.560
53282SOL    HW261744   4.077  11.976  11.629
53283SOL     OW61745   6.256   9.273   8.108
53283SOL    HW161746   6.268   9.219   8.186
53283SOL    HW261747   6.298   9.356   8.129
53284SOL     OW61748   0.693   6.187   9.717
53284SOL    HW161749   0.663   6.275   9.697
53284SOL    HW261750   0.782   6.198   9.750
53285SOL     OW61751   0.862  10.698   4.818
53285SOL    HW161752   0.776  10.683   4.857
53285SOL    HW261753   0.845  10.752   4.741
53286SOL     OW61754  10.577  12.003   3.511
53286SOL    HW161755  10.484  11.984   3.517
53286SOL    HW261756  10.589  12.041   3.424
53287SOL     OW61757  13.052  11.807   7.031
53287SOL    HW161758  12.966  11.845   7.048
53287SOL    HW261759  13.080  11.847   6.949
53288SOL     OW61760   7.867  12.833  12.067
53288SOL    HW161761   7.936  12.785  12.021
53288SOL    HW261762   7.914  12.895  12.122
53289SOL     OW61763  12.315   6.424  12.826
53289SOL    HW161764  12.271   6.346  12.793
53289SOL    HW261765  12.404   6.418  12.792
53290SOL     OW61766   0.674   9.574   9.402
53290SOL    HW161767   0.646   9.493   9.358
53290SOL    HW261768   0.658   9.642   9.338
53291SOL     OW61769   4.882  10.505  10.778
53291SOL    HW161770   4.921  10.516  10.865
53291SOL    HW261771   4.841  10.419  10.781
53292SOL     OW61772   8.795   1.378   1.017
53292SOL    HW161773   8.767   1.290   1.040
53292SOL    HW261774   8.885   1.368   0.987
53293SOL     OW61775   5.181   3.133   8.175
53293SOL    HW161776   5.232   3.077   8.118
53293SOL    HW261777   5.144   3.073   8.240
53294SOL     OW61778  12.830  14.714   2.857
53294SOL    HW161779  12.845  14.674   2.772
53294SOL    HW261780  12.902  14.776   2.868
53295SOL     OW61781   1.956   0.324   7.836
53295SOL    HW161782   1.878   0.359   7.792
53295SOL    HW261783   2.030   0.366   7.792
53296SOL     OW61784  14.648  14.112   0.161
53296SOL    HW161785  14.693  14.117   0.077
53296SOL    HW261786  14.571  14.168   0.151
53297SOL     OW61787  14.814   1.436   9.151
53297SOL    HW161788  14.749   1.449   9.220
53297SOL    HW261789  14.797   1.348   9.118
53298SOL     OW61790   9.358   7.110  11.388
53298SOL    HW161791   9.446   7.149  11.390
53298SOL    HW261792   9.334   7.109  11.295
53299SOL     OW61793   6.966  14.423  14.267
53299SOL    HW161794   7.003  14.413  14.179
53299SOL    HW261795   7.025  14.486  14.311
53300SOL     OW61796  11.762  11.855   8.184
53300SOL    HW161797  11.721  11.848   8.098
53300SOL    HW261798  11.856  11.863   8.164
53301SOL     OW61799   0.030  10.141   9.341
53301SOL    HW161800   0.058  10.157   9.251
53301SOL    HW261801  14.858  10.057   9.336
53302SOL     OW61802   5.101   7.858   5.883
53302SOL    HW161803   5.190   7.829   5.866
53302SOL    HW261804   5.047   7.809   5.821
53303SOL     OW61805  10.949   0.478   4.385
53303SOL    HW161806  10.942   0.437   4.299
53303SOL    HW261807  10.972   0.569   4.367
53304SOL     OW61808   9.487   0.837   9.411
53304SOL    HW161809   9.514   0.819   9.321
53304SOL    HW261810   9.401   0.880   9.402
53305SOL     OW61811  11.009   1.837   9.886
53305SOL    HW161812  11.100   1.864   9.871
53305SOL    HW261813  10.957   1.906   9.845
53306SOL     OW61814  14.835   6.933   8.493
53306SOL    HW161815   0.045   6.903   8.526
53306SOL    HW261816  14.775   6.860   8.511
53307SOL     OW61817   8.120  11.063   4.621
53307SOL    HW161818   8.204  11.017   4.615
53307SOL    HW261819   8.142  11.155   4.603
53308SOL     OW61820   5.952   6.618   3.838
53308SOL    HW161821   6.008   6.643   3.912
53308SOL    HW261822   5.868   6.596   3.878
53309SOL     OW61823  12.224   0.780  10.906
53309SOL    HW161824  12.134   0.807  10.920
53309SOL    HW261825  12.254   0.748  10.991
53310SOL     OW61826   9.224   5.964  10.042
53310SOL    HW161827   9.162   5.914   9.988
53310SOL    HW261828   9.303   5.911  10.043
53311SOL     OW61829  13.741   8.606   9.615
53311SOL    HW161830  13.740   8.679   9.553
53311SOL    HW261831  13.728   8.528   9.561
53312SOL     OW61832   3.309   8.831   1.258
53312SOL    HW161833   3.308   8.873   1.344
53312SOL    HW261834   3.264   8.893   1.200
53313SOL     OW61835   9.025   3.211   1.319
53313SOL    HW161836   9.014   3.234   1.227
53313SOL    HW261837   8.952   3.152   1.338
53314SOL     OW61838   4.748   8.690  10.412
53314SOL    HW161839   4.670   8.634  10.417
53314SOL    HW261840   4.818   8.635  10.448
53315SOL     OW61841  13.221   9.075   4.873
53315SOL    HW161842  13.215   9.153   4.818
53315SOL    HW261843  13.300   9.089   4.926
53316SOL     OW61844  11.247  14.301   4.713
53316SOL    HW161845  11.225  14.314   4.805
53316SOL    HW261846  11.289  14.383   4.686
53317SOL     OW61847   0.550   8.670   4.362
53317SOL    HW161848   0.469   8.621   4.376
53317SOL    HW261849   0.612   8.634   4.426
53318SOL     OW61850   3.534  12.657   6.131
53318SOL    HW161851   3.589  12.729   6.099
53318SOL    HW261852   3.458  12.658   6.073
53319SOL     OW61853  10.686  10.487  13.187
53319SOL    HW161854  10.605  10.498  13.136
53319SOL    HW261855  10.694  10.392  13.198
53320SOL     OW61856  13.610   3.996  10.765
53320SOL    HW161857  13.604   4.088  10.741
53320SOL    HW261858  13.633   3.952  10.683
53321SOL     OW61859  12.548   6.403   1.667
53321SOL    HW161860  12.546   6.493   1.701
53321SOL    HW261861  12.627   6.400   1.614
53322SOL     OW61862   4.784   4.704   8.582
53322SOL    HW161863   4.782   4.771   8.650
53322SOL    HW261864   4.874   4.705   8.550
53323SOL     OW61865  12.627   9.504  10.464
53323SOL    HW161866  12.554   9.458  10.505
53323SOL    HW261867  12.597   9.522  10.375
53324SOL     OW61868  10.858   2.002   8.978
53324SOL    HW161869  10.791   2.033   8.918
53324SOL    HW261870  10.936   1.991   8.924
53325SOL     OW61871   0.015   1.904   4.434
53325SOL    HW161872   0.097   1.929   4.392
53325SOL    HW261873   0.041   1.845   4.505
53326SOL     OW61874  10.969   7.493   6.464
53326SOL    HW161875  10.973   7.408   6.508
53326SOL    HW261876  11.057   7.530   6.475
53327SOL     OW61877   4.663  12.446  10.063
53327SOL    HW161878   4.659  12.351  10.074
53327SOL    HW261879   4.634  12.481  10.147
53328SOL     OW61880   6.149   5.932   3.975
53328SOL    HW161881   6.204   6.002   3.941
53328SOL    HW261882   6.059   5.964   3.961
53329SOL     OW61883  12.053   8.000   1.721
53329SOL    HW161884  12.010   8.061   1.781
53329SOL    HW261885  12.053   7.917   1.768
53330SOL     OW61886  10.970   9.286  11.699
53330SOL    HW161887  10.975   9.204  11.651
53330SOL    HW261888  11.045   9.283  11.759
53331SOL     OW61889  14.692  10.689   0.824
53331SOL    HW161890  14.769  10.741   0.801
53331SOL    HW261891  14.728  10.607   0.858
53332SOL     OW61892   4.058   9.909   8.085
53332SOL    HW161893   3.977   9.951   8.057
53332SOL    HW261894   4.127   9.965   8.049
53333SOL     OW61895   7.313   4.983   1.251
53333SOL    HW161896   7.362   4.916   1.298
53333SOL    HW261897   7.280   4.939   1.173
53334SOL     OW61898  11.534  11.372   7.679
53334SOL    HW161899  11.554  11.301   7.618
53334SOL    HW261900  11.571  11.450   7.638
53335SOL     OW61901   3.314   7.250   1.924
53335SOL    HW161902   3.358   7.183   1.976
53335SOL    HW261903   3.343   7.333   1.963
53336SOL     OW61904  13.026   7.308   9.230
53336SOL    HW161905  13.022   7.402   9.213
53336SOL    HW261906  13.088   7.300   9.303
53337SOL     OW61907   4.368  13.915   1.298
53337SOL    HW161908   4.306  13.982   1.328
53337SOL    HW261909   4.453  13.959   1.298
53338SOL     OW61910   0.932   7.710   8.982
53338SOL    HW161911   1.018   7.680   9.011
53338SOL    HW261912   0.870   7.654   9.029
53339SOL     OW61913  10.772  12.882  10.893
53339SOL    HW161914  10.782  12.883  10.988
53339SOL    HW261915  10.687  12.924  10.878
53340SOL     OW61916  14.290   2.075  13.221
53340SOL    HW161917  14.242   2.006  13.174
53340SOL    HW261918  14.339   2.028  13.289
53341SOL     OW61919  11.378   8.017   5.320
53341SOL    HW161920  11.329   8.018   5.403
53341SOL    HW261921  11.376   7.926   5.292
53342SOL     OW61922  12.553   7.507  11.740
53342SOL    HW161923  12.585   7.480  11.826
53342SOL    HW261924  12.549   7.603  11.745
53343SOL     OW61925   4.500   8.595  10.427
53343SOL    HW161926   4.506   8.585  10.522
53343SOL    HW261927   4.440   8.525  10.400
53344SOL     OW61928   7.739   4.463  10.140
53344SOL    HW161929   7.777   4.487  10.224
53344SOL    HW261930   7.749   4.368  10.135
53345SOL     OW61931  14.289  13.580  13.004
53345SOL    HW161932  14.353  13.610  13.068
53345SOL    HW261933  14.314  13.490  12.985
53346SOL     OW61934   8.057   0.605   0.923
53346SOL    HW161935   8.098   0.522   0.946
53346SOL    HW261936   7.967   0.597   0.957
53347SOL     OW61937  14.056  10.423   8.750
53347SOL    HW161938  14.012  10.357   8.804
53347SOL    HW261939  14.053  10.503   8.803
53348SOL     OW61940  11.418   5.293   2.749
53348SOL    HW161941  11.334   5.334   2.768
53348SOL    HW261942  11.482   5.361   2.768
53349SOL     OW61943   2.406  10.538   3.167
53349SOL    HW161944   2.369  10.476   3.103
53349SOL    HW261945   2.338  10.605   3.177
53350SOL     OW61946  14.079   0.936  10.003
53350SOL    HW161947  14.128   0.942   9.920
53350SOL    HW261948  14.067   0.843  10.018
53351SOL     OW61949  10.256   0.644   2.340
53351SOL    HW161950  10.337   0.694   2.331
53351SOL    HW261951  10.259   0.608   2.429
53352SOL     OW61952  13.124   9.085   4.274
53352SOL    HW161953  13.042   9.038   4.258
53352SOL    HW261954  13.143   9.129   4.191
53353SOL     OW61955   0.536   2.419  13.124
53353SOL    HW161956   0.469   2.460  13.069
53353SOL    HW261957   0.596   2.378  13.061
53354SOL     OW61958   8.357  10.451   1.057
53354SOL    HW161959   8.332  10.537   1.023
53354SOL    HW261960   8.424  10.420   0.996
53355SOL     OW61961   1.043   4.546   6.428
53355SOL    HW161962   1.046   4.574   6.336
53355SOL    HW261963   0.980   4.606   6.469
53356SOL     OW61964   5.250  13.598  10.174
53356SOL    HW161965   5.333  13.597  10.127
53356SOL    HW261966   5.218  13.508  10.168
53357SOL     OW61967  13.384  11.780   4.728
53357SOL    HW161968  13.469  11.801   4.691
53357SOL    HW261969  13.321  11.820   4.667
53358SOL     OW61970   9.699  14.022   1.551
53358SOL    HW161971   9.679  13.977   1.633
53358SOL    HW261972   9.627  14.083   1.539
53359SOL     OW61973   8.389  13.987   6.599
53359SOL    HW161974   8.318  13.922   6.604
53359SOL    HW261975   8.398  14.021   6.687
53360SOL     OW61976   4.126  14.492  12.210
53360SOL    HW161977   4.136  14.543  12.130
53360SOL    HW261978   4.123  14.401  12.180
53361SOL     OW61979   1.391   7.056  12.853
53361SOL    HW161980   1.456   7.126  12.847
53361SOL    HW261981   1.323   7.080  12.790
53362SOL     OW61982   0.060  14.491  14.771
53362SOL    HW161983   0.058  14.582  14.742
53362SOL    HW261984   0.118  14.447  14.709
53363SOL     OW61985   3.534   7.365   4.625
53363SOL    HW161986   3.542   7.326   4.712
53363SOL    HW261987   3.484   7.302   4.574
53364SOL     OW61988   0.867   2.962  11.799
53364SOL    HW161989   0.943   2.972  11.857
53364SOL    HW261990   0.857   2.868  11.788
53365SOL     OW61991   9.070  11.151  12.610
53365SOL    HW161992   9.125  11.153  12.688
53365SOL    HW261993   8.998  11.092  12.632
53366SOL     OW61994   6.329   3.315   3.796
53366SOL    HW161995   6.329   3.380   3.866
53366SOL    HW261996   6.396   3.252   3.821
53367SOL     OW61997   5.718  10.114   1.089
53367SOL    HW161998   5.695  10.089   1.179
53367SOL    HW261999   5.727  10.209   1.092
53368SOL     OW62000   8.856   5.921  14.101
53368SOL    HW162001   8.873   5.922  14.195
53368SOL    HW262002   8.864   5.829  14.076
53369SOL     OW62003   2.703   8.558   7.313
53369SOL    HW162004   2.686   8.504   7.235
53369SOL    HW262005   2.617   8.566   7.354
53370SOL     OW62006  13.161  14.430   0.351
53370SOL    HW162007  13.100  14.393   0.287
53370SOL    HW262008  13.114  14.505   0.388
53371SOL     OW62009  10.372  12.805   7.624
53371SOL    HW162010  10.428  12.845   7.558
53371SOL    HW262011  10.286  12.799   7.582
53372SOL     OW62012  12.258   6.489  11.827
53372SOL    HW162013  12.321   6.417  11.835
53372SOL    HW262014  12.192   6.458  11.766
53373SOL     OW62015   4.899   0.352  10.234
53373SOL    HW162016   4.893   0.315  10.146
53373SOL    HW262017   4.944   0.435  10.223
53374SOL     OW62018  10.316   1.879   4.297
53374SOL    HW162019  10.234   1.868   4.346
53374SOL    HW262020  10.313   1.970   4.266
53375SOL     OW62021  13.783   5.123   8.810
53375SOL    HW162022  13.862   5.099   8.859
53375SOL    HW262023  13.711   5.092   8.863
53376SOL     OW62024   1.916  13.613   4.744
53376SOL    HW162025   1.930  13.706   4.762
53376SOL    HW262026   1.827  13.608   4.710
53377SOL     OW62027   6.045   1.950   6.115
53377SOL    HW162028   6.080   1.929   6.202
53377SOL    HW262029   6.119   1.940   6.056
53378SOL     OW62030  12.342   7.930   1.715
53378SOL    HW162031  12.247   7.939   1.712
53378SOL    HW262032  12.375   7.995   1.652
53379SOL     OW62033  11.580   2.782   8.733
53379SOL    HW162034  11.580   2.875   8.757
53379SOL    HW262035  11.669   2.753   8.754
53380SOL     OW62036  14.004   6.831   4.341
53380SOL    HW162037  13.987   6.926   4.337
53380SOL    HW262038  14.013   6.813   4.435
53381SOL     OW62039   4.101   2.909   9.827
53381SOL    HW162040   4.022   2.858   9.846
53381SOL    HW262041   4.076   3.000   9.842
53382SOL     OW62042  10.759  14.597  11.423
53382SOL    HW162043  10.821  14.665  11.448
53382SOL    HW262044  10.767  14.531  11.492
53383SOL     OW62045   1.225  10.894  14.357
53383SOL    HW162046   1.268  10.820  14.400
53383SOL    HW262047   1.155  10.855  14.305
53384SOL     OW62048  11.078   7.178  13.046
53384SOL    HW162049  10.997   7.164  12.995
53384SOL    HW262050  11.065   7.127  13.126
53385SOL     OW62051   0.945  14.456   0.132
53385SOL    HW162052   0.987  14.520   0.188
53385SOL    HW262053   0.851  14.466   0.149
53386SOL     OW62054   8.389  11.982  12.170
53386SOL    HW162055   8.332  11.974  12.246
53386SOL    HW262056   8.429  12.069  12.179
53387SOL     OW62057  10.034  14.597  12.846
53387SOL    HW162058  10.012  14.513  12.885
53387SOL    HW262059  10.063  14.576  12.757
53388SOL     OW62060   7.947  10.839   1.179
53388SOL    HW162061   7.926  10.802   1.265
53388SOL    HW262062   8.037  10.871   1.189
53389SOL     OW62063   3.982   6.388   7.850
53389SOL    HW162064   3.998   6.310   7.797
53389SOL    HW262065   3.893   6.377   7.883
53390SOL     OW62066   7.177  10.143   4.440
53390SOL    HW162067   7.154  10.226   4.398
53390SOL    HW262068   7.272  10.147   4.452
53391SOL     OW62069   0.091   3.210   4.238
53391SOL    HW162070   0.175   3.196   4.193
53391SOL    HW262071   0.030   3.234   4.168
53392SOL     OW62072   8.906  11.536   2.778
53392SOL    HW162073   8.989  11.519   2.822
53392SOL    HW262074   8.867  11.450   2.766
53393SOL     OW62075   9.855  13.903   1.292
53393SOL    HW162076   9.932  13.948   1.256
53393SOL    HW262077   9.834  13.953   1.371
53394SOL     OW62078  13.339  11.713  10.485
53394SOL    HW162079  13.341  11.779  10.415
53394SOL    HW262080  13.278  11.647  10.453
53395SOL     OW62081   0.926   2.480   4.443
53395SOL    HW162082   0.959   2.530   4.518
53395SOL    HW262083   0.861   2.537   4.403
53396SOL     OW62084   2.482  11.275  13.532
53396SOL    HW162085   2.520  11.358  13.561
53396SOL    HW262086   2.388  11.292  13.528
53397SOL     OW62087  14.354   4.455   1.305
53397SOL    HW162088  14.295   4.383   1.328
53397SOL    HW262089  14.328   4.527   1.362
53398SOL     OW62090   9.036   7.273   2.762
53398SOL    HW162091   8.982   7.242   2.836
53398SOL    HW262092   8.999   7.229   2.686
53399SOL     OW62093   1.857   0.283  12.919
53399SOL    HW162094   1.907   0.230  12.857
53399SOL    HW262095   1.922   0.344  12.955
53400SOL     OW62096  13.161  13.931   5.509
53400SOL    HW162097  13.253  13.927   5.534
53400SOL    HW262098  13.144  14.024   5.497
53401SOL     OW62099   7.250   2.929  11.745
53401SOL    HW162100   7.282   2.936  11.655
53401SOL    HW262101   7.324   2.958  11.799
53402SOL     OW62102   0.599   9.914   7.282
53402SOL    HW162103   0.686   9.894   7.317
53402SOL    HW262104   0.541   9.907   7.358
53403SOL     OW62105  10.562  14.809   7.311
53403SOL    HW162106  10.553   0.022   7.275
53403SOL    HW262107  10.495  14.757   7.266
53404SOL     OW62108  13.139  11.714   8.886
53404SOL    HW162109  13.069  11.779   8.884
53404SOL    HW262110  13.208  11.752   8.831
53405SOL     OW62111  11.760  10.703   2.949
53405SOL    HW162112  11.676  10.680   2.990
53405SOL    HW262113  11.756  10.662   2.863
53406SOL     OW62114  12.062   9.992   3.439
53406SOL    HW162115  11.986  10.006   3.495
53406SOL    HW262116  12.132   9.968   3.499
53407SOL     OW62117   3.043   3.166   2.297
53407SOL    HW162118   3.053   3.101   2.367
53407SOL    HW262119   3.132   3.184   2.268
53408SOL     OW62120   2.967  13.886  13.644
53408SOL    HW162121   2.933  13.947  13.579
53408SOL    HW262122   2.938  13.800  13.615
53409SOL     OW62123   0.336   5.467   9.260
53409SOL    HW162124   0.313   5.560   9.263
53409SOL    HW262125   0.309   5.439   9.173
53410SOL     OW62126  14.276   4.994   7.425
53410SOL    HW162127  14.223   4.919   7.400
53410SOL    HW262128  14.270   5.053   7.350
53411SOL     OW62129  11.414   0.609   9.984
53411SOL    HW162130  11.333   0.656  10.000
53411SOL    HW262131  11.452   0.651   9.906
53412SOL     OW62132  14.823   2.807   9.043
53412SOL    HW162133   0.040   2.822   9.022
53412SOL    HW262134  14.782   2.893   9.036
53413SOL     OW62135  12.566  13.382   2.546
53413SOL    HW162136  12.523  13.431   2.615
53413SOL    HW262137  12.497  13.327   2.508
53414SOL     OW62138   5.950   3.405   9.511
53414SOL    HW162139   6.036   3.405   9.553
53414SOL    HW262140   5.890   3.374   9.579
53415SOL     OW62141   6.546  11.770   0.262
53415SOL    HW162142   6.566  11.764   0.356
53415SOL    HW262143   6.540  11.678   0.233
53416SOL     OW62144   0.282   0.447   0.104
53416SOL    HW162145   0.309   0.441   0.195
53416SOL    HW262146   0.337   0.517   0.067
53417SOL     OW62147  12.132  13.867   6.874
53417SOL    HW162148  12.065  13.926   6.837
53417SOL    HW262149  12.215  13.912   6.859
53418SOL     OW62150  11.247   8.910   4.853
53418SOL    HW162151  11.189   8.895   4.778
53418SOL    HW262152  11.320   8.849   4.839
53419SOL     OW62153  11.320   6.113   9.514
53419SOL    HW162154  11.274   6.035   9.483
53419SOL    HW262155  11.263   6.186   9.487
53420SOL     OW62156   7.144  12.253   2.410
53420SOL    HW162157   7.110  12.340   2.390
53420SOL    HW262158   7.231  12.268   2.445
53421SOL     OW62159  12.830  11.503   3.148
53421SOL    HW162160  12.849  11.578   3.092
53421SOL    HW262161  12.839  11.536   3.237
53422SOL     OW62162   8.357  14.379  14.431
53422SOL    HW162163   8.400  14.294  14.440
53422SOL    HW262164   8.405  14.436  14.492
53423SOL     OW62165   8.085  12.419   6.803
53423SOL    HW162166   8.121  12.347   6.751
53423SOL    HW262167   8.153  12.486   6.801
53424SOL     OW62168  10.966  11.215   5.071
53424SOL    HW162169  11.051  11.253   5.049
53424SOL    HW262170  10.947  11.248   5.159
53425SOL     OW62171  14.659   1.668   4.358
53425SOL    HW162172  14.616   1.663   4.444
53425SOL    HW262173  14.739   1.718   4.375
53426SOL     OW62174   9.598   4.571   3.647
53426SOL    HW162175   9.567   4.483   3.628
53426SOL    HW262176   9.691   4.560   3.667
53427SOL     OW62177   6.721   8.829   0.435
53427SOL    HW162178   6.764   8.903   0.393
53427SOL    HW262179   6.725   8.849   0.528
53428SOL     OW62180   5.322   9.926   3.351
53428SOL    HW162181   5.245   9.977   3.377
53428SOL    HW262182   5.313   9.844   3.399
53429SOL     OW62183   8.215   2.742   9.337
53429SOL    HW162184   8.289   2.682   9.325
53429SOL    HW262185   8.252   2.816   9.384
53430SOL     OW62186  10.238  11.798   1.619
53430SOL    HW162187  10.291  11.864   1.663
53430SOL    HW262188  10.287  11.777   1.539
53431SOL     OW62189   4.661  13.738   0.411
53431SOL    HW162190   4.580  13.729   0.462
53431SOL    HW262191   4.644  13.811   0.352
53432SOL     OW62192  13.704   5.654  13.696
53432SOL    HW162193  13.752   5.720  13.747
53432SOL    HW262194  13.643   5.705  13.642
53433SOL     OW62195   1.082   4.254   3.545
53433SOL    HW162196   0.997   4.209   3.540
53433SOL    HW262197   1.146   4.183   3.553
53434SOL     OW62198   1.062   4.267  11.308
53434SOL    HW162199   1.058   4.322  11.387
53434SOL    HW262200   1.113   4.190  11.335
53435SOL     OW62201   3.261   4.756   8.737
53435SOL    HW162202   3.341   4.796   8.771
53435SOL    HW262203   3.262   4.776   8.643
53436SOL     OW62204   1.537   1.868   8.008
53436SOL    HW162205   1.550   1.914   7.925
53436SOL    HW262206   1.626   1.849   8.038
53437SOL     OW62207  14.549   0.003  14.230
53437SOL    HW162208  14.641   0.026  14.217
53437SOL    HW262209  14.550  14.818  14.304
53438SOL     OW62210   8.409   9.893   2.103
53438SOL    HW162211   8.397   9.981   2.066
53438SOL    HW262212   8.443   9.841   2.030
53439SOL     OW62213   4.898   4.488   0.656
53439SOL    HW162214   4.816   4.465   0.699
53439SOL    HW262215   4.955   4.517   0.726
53440SOL     OW62216   4.535   0.759  10.124
53440SOL    HW162217   4.566   0.740  10.212
53440SOL    HW262218   4.541   0.676  10.077
53441SOL     OW62219  12.187   5.653  11.952
53441SOL    HW162220  12.158   5.639  12.042
53441SOL    HW262221  12.134   5.727  11.921
53442SOL     OW62222   1.704   5.134  13.315
53442SOL    HW162223   1.679   5.215  13.270
53442SOL    HW262224   1.718   5.071  13.244
53443SOL     OW62225   6.486  13.415   1.353
53443SOL    HW162226   6.530  13.494   1.384
53443SOL    HW262227   6.529  13.394   1.270
53444SOL     OW62228   6.408   5.405   5.449
53444SOL    HW162229   6.480   5.342   5.443
53444SOL    HW262230   6.353   5.387   5.373
53445SOL     OW62231   0.114   1.625  11.489
53445SOL    HW162232   0.150   1.714  11.492
53445SOL    HW262233   0.032   1.630  11.536
53446SOL     OW62234   2.217   2.648  13.235
53446SOL    HW162235   2.126   2.630  13.209
53446SOL    HW262236   2.210   2.693  13.318
53447SOL     OW62237   3.901   1.562  10.879
53447SOL    HW162238   3.955   1.552  10.957
53447SOL    HW262239   3.893   1.657  10.867
53448SOL     OW62240   6.261   4.718  13.862
53448SOL    HW162241   6.297   4.724  13.773
53448SOL    HW262242   6.336   4.737  13.919
53449SOL     OW62243   7.624   9.538  12.729
53449SOL    HW162244   7.618   9.551  12.823
53449SOL    HW262245   7.604   9.446  12.715
53450SOL     OW62246  11.214  10.734  10.005
53450SOL    HW162247  11.249  10.654  10.042
53450SOL    HW262248  11.165  10.705   9.928
53451SOL     OW62249   2.016   2.913  10.742
53451SOL    HW162250   2.099   2.878  10.775
53451SOL    HW262251   1.964   2.929  10.821
53452SOL     OW62252   5.032   4.981  10.203
53452SOL    HW162253   5.051   4.895  10.241
53452SOL    HW262254   5.078   4.982  10.120
53453SOL     OW62255   7.287  11.017   3.305
53453SOL    HW162256   7.265  11.110   3.298
53453SOL    HW262257   7.382  11.016   3.317
53454SOL     OW62258   4.503   9.623   4.960
53454SOL    HW162259   4.466   9.705   4.926
53454SOL    HW262260   4.531   9.576   4.881
53455SOL     OW62261   5.463  13.647  13.076
53455SOL    HW162262   5.475  13.731  13.032
53455SOL    HW262263   5.368  13.638  13.085
53456SOL     OW62264  14.614   2.000   2.840
53456SOL    HW162265  14.603   1.965   2.752
53456SOL    HW262266  14.640   1.925   2.893
53457SOL     OW62267   7.454   7.278  13.536
53457SOL    HW162268   7.365   7.246  13.520
53457SOL    HW262269   7.507   7.238  13.467
53458SOL     OW62270  10.772   6.438  11.352
53458SOL    HW162271  10.850   6.427  11.297
53458SOL    HW262272  10.797   6.403  11.437
53459SOL     OW62273  13.014   8.509  10.457
53459SOL    HW162274  13.074   8.533  10.529
53459SOL    HW262275  13.046   8.425  10.427
53460SOL     OW62276   2.992   0.901   8.280
53460SOL    HW162277   3.047   0.845   8.226
53460SOL    HW262278   2.902   0.874   8.259
53461SOL     OW62279  11.781   3.999   3.688
53461SOL    HW162280  11.709   4.041   3.642
53461SOL    HW262281  11.774   4.031   3.778
53462SOL     OW62282  10.829   1.793   0.756
53462SOL    HW162283  10.802   1.884   0.749
53462SOL    HW262284  10.852   1.782   0.848
53463SOL     OW62285   7.299   6.536   8.017
53463SOL    HW162286   7.212   6.569   8.039
53463SOL    HW262287   7.283   6.451   7.975
53464SOL     OW62288  12.688   0.634   0.549
53464SOL    HW162289  12.725   0.662   0.465
53464SOL    HW262290  12.718   0.700   0.611
53465SOL     OW62291  13.569   3.425   4.244
53465SOL    HW162292  13.484   3.455   4.278
53465SOL    HW262293  13.594   3.491   4.180
53466SOL     OW62294  11.717  11.040   0.568
53466SOL    HW162295  11.789  11.086   0.524
53466SOL    HW262296  11.677  11.107   0.624
53467SOL     OW62297   0.677  10.370  12.537
53467SOL    HW162298   0.670  10.274  12.529
53467SOL    HW262299   0.767  10.389  12.512
53468SOL     OW62300  11.565  12.434   9.680
53468SOL    HW162301  11.638  12.468   9.733
53468SOL    HW262302  11.491  12.432   9.741
53469SOL     OW62303   1.699   2.817  13.202
53469SOL    HW162304   1.605   2.797  13.201
53469SOL    HW262305   1.716   2.843  13.292
53470SOL     OW62306   1.573   1.766  12.560
53470SOL    HW162307   1.571   1.756  12.655
53470SOL    HW262308   1.494   1.815  12.539
53471SOL     OW62309   7.680   7.901   4.120
53471SOL    HW162310   7.670   7.892   4.025
53471SOL    HW262311   7.605   7.853   4.156
53472SOL     OW62312   0.901   2.739   4.673
53472SOL    HW162313   0.935   2.653   4.699
53472SOL    HW262314   0.868   2.725   4.584
53473SOL     OW62315  13.999  12.178   2.508
53473SOL    HW162316  14.088  12.206   2.529
53473SOL    HW262317  13.945  12.256   2.521
53474SOL     OW62318   0.873   4.557   1.178
53474SOL    HW162319   0.896   4.479   1.128
53474SOL    HW262320   0.784   4.578   1.149
53475SOL     OW62321   1.364   3.272  10.926
53475SOL    HW162322   1.357   3.367  10.914
53475SOL    HW262323   1.443   3.259  10.978
53476SOL     OW62324   5.574   8.667   7.455
53476SOL    HW162325   5.584   8.722   7.378
53476SOL    HW262326   5.590   8.578   7.424
53477SOL     OW62327   3.927   3.317   1.623
53477SOL    HW162328   3.953   3.254   1.557
53477SOL    HW262329   3.865   3.375   1.578
53478SOL     OW62330   1.306   0.694   3.301
53478SOL    HW162331   1.235   0.740   3.255
53478SOL    HW262332   1.278   0.693   3.392
53479SOL     OW62333   0.515   6.249  11.737
53479SOL    HW162334   0.589   6.310  11.739
53479SOL    HW262335   0.472   6.261  11.821
53480SOL     OW62336   8.766  10.751   5.259
53480SOL    HW162337   8.690  10.807   5.247
53480SOL    HW262338   8.734  10.680   5.315
53481SOL     OW62339  13.514  10.850   5.470
53481SOL    HW162340  13.422  10.826   5.476
53481SOL    HW262341  13.549  10.797   5.399
53482SOL     OW62342  10.501   2.904  12.312
53482SOL    HW162343  10.514   2.817  12.276
53482SOL    HW262344  10.510   2.963  12.237
53483SOL     OW62345  13.669  13.358   6.798
53483SOL    HW162346  13.700  13.400   6.718
53483SOL    HW262347  13.686  13.264   6.785
53484SOL     OW62348  10.534   5.905   6.677
53484SOL    HW162349  10.606   5.942   6.626
53484SOL    HW262350  10.490   5.845   6.617
53485SOL     OW62351  11.459   7.013  11.512
53485SOL    HW162352  11.541   6.998  11.464
53485SOL    HW262353  11.399   6.946  11.479
53486SOL     OW62354   2.259  13.259  11.968
53486SOL    HW162355   2.317  13.314  11.914
53486SOL    HW262356   2.295  13.171  11.961
53487SOL     OW62357  10.491   1.563  12.842
53487SOL    HW162358  10.428   1.631  12.822
53487SOL    HW262359  10.492   1.506  12.765
53488SOL     OW62360  14.027  14.307   5.596
53488SOL    HW162361  13.993  14.217   5.596
53488SOL    HW262362  14.020  14.335   5.505
53489SOL     OW62363  12.231  11.215   6.140
53489SOL    HW162364  12.167  11.200   6.070
53489SOL    HW262365  12.247  11.128   6.176
53490SOL     OW62366  12.063  12.551   9.980
53490SOL    HW162367  12.118  12.529  10.055
53490SOL    HW262368  11.977  12.571  10.018
53491SOL     OW62369  12.374   9.394   8.848
53491SOL    HW162370  12.344   9.458   8.913
53491SOL    HW262371  12.349   9.433   8.764
53492SOL     OW62372   0.658   1.370   1.269
53492SOL    HW162373   0.721   1.299   1.279
53492SOL    HW262374   0.680   1.409   1.184
53493SOL     OW62375   7.020   6.959   2.410
53493SOL    HW162376   7.003   6.891   2.476
53493SOL    HW262377   6.933   6.986   2.382
53494SOL     OW62378   6.135   6.424   0.012
53494SOL    HW162379   6.122   6.513  14.856
53494SOL    HW262380   6.046   6.390   0.026
53495SOL     OW62381   8.637   1.307   6.389
53495SOL    HW162382   8.606   1.385   6.434
53495SOL    HW262383   8.558   1.255   6.373
53496SOL     OW62384   1.856   6.417  14.110
53496SOL    HW162385   1.832   6.327  14.132
53496SOL    HW262386   1.879   6.414  14.017
53497SOL     OW62387  14.503   3.976  11.291
53497SOL    HW162388  14.472   4.023  11.368
53497SOL    HW262389  14.445   4.004  11.220
53498SOL     OW62390  10.788   9.989  11.916
53498SOL    HW162391  10.858  10.054  11.909
53498SOL    HW262392  10.811   9.938  11.994
53499SOL     OW62393  11.897  13.321   0.856
53499SOL    HW162394  11.876  13.413   0.874
53499SOL    HW262395  11.815  13.284   0.823
53500SOL     OW62396   3.397   4.318  14.806
53500SOL    HW162397   3.301   4.321  14.797
53500SOL    HW262398   3.421   4.407  14.831
53501SOL     OW62399   1.397   0.535   1.802
53501SOL    HW162400   1.374   0.568   1.716
53501SOL    HW262401   1.340   0.459   1.815
53502SOL     OW62402   8.121  13.445   4.669
53502SOL    HW162403   8.189  13.464   4.734
53502SOL    HW262404   8.039  13.461   4.715
53503SOL     OW62405  11.668  10.162   0.289
53503SOL    HW162406  11.747  10.113   0.264
53503SOL    HW262407  11.684  10.187   0.380
53504SOL     OW62408   9.419   5.320   3.008
53504SOL    HW162409   9.394   5.308   2.916
53504SOL    HW262410   9.365   5.256   3.056
53505SOL     OW62411   3.530   9.755   3.249
53505SOL    HW162412   3.590   9.724   3.316
53505SOL    HW262413   3.467   9.811   3.295
53506SOL     OW62414   4.502  13.866   5.810
53506SOL    HW162415   4.590  13.902   5.798
53506SOL    HW262416   4.459  13.879   5.725
53507SOL     OW62417  10.413   1.416   6.488
53507SOL    HW162418  10.445   1.329   6.466
53507SOL    HW262419  10.332   1.425   6.437
53508SOL     OW62420   8.909  10.235   6.576
53508SOL    HW162421   8.969  10.301   6.541
53508SOL    HW262422   8.948  10.152   6.551
53509SOL     OW62423   1.803   7.909  13.563
53509SOL    HW162424   1.793   7.986  13.507
53509SOL    HW262425   1.761   7.838  13.514
53510SOL     OW62426   8.006  11.044  11.824
53510SOL    HW162427   7.991  11.106  11.753
53510SOL    HW262428   8.021  10.960  11.780
53511SOL     OW62429  14.390   1.771   7.948
53511SOL    HW162430  14.330   1.800   8.017
53511SOL    HW262431  14.381   1.676   7.946
53512SOL     OW62432  12.115   3.606  13.393
53512SOL    HW162433  12.042   3.549  13.371
53512SOL    HW262434  12.107   3.621  13.487
53513SOL     OW62435   5.823   8.500   1.479
53513SOL    HW162436   5.867   8.511   1.394
53513SOL    HW262437   5.869   8.427   1.520
53514SOL     OW62438   0.605   0.258   2.209
53514SOL    HW162439   0.626   0.311   2.286
53514SOL    HW262440   0.618   0.316   2.135
53515SOL     OW62441   9.506  13.894   5.805
53515SOL    HW162442   9.437  13.857   5.859
53515SOL    HW262443   9.520  13.982   5.841
53516SOL     OW62444   1.405  14.660  14.765
53516SOL    HW162445   1.490  14.621  14.746
53516SOL    HW262446   1.359  14.593  14.817
53517SOL     OW62447   1.846  10.480   2.931
53517SOL    HW162448   1.774  10.542   2.939
53517SOL    HW262449   1.863  10.450   3.020
53518SOL     OW62450   3.961   5.881   6.172
53518SOL    HW162451   3.975   5.898   6.079
53518SOL    HW262452   3.938   5.789   6.177
53519SOL     OW62453   1.322  10.784  12.970
53519SOL    HW162454   1.376  10.774  12.892
53519SOL    HW262455   1.239  10.743  12.948
53520SOL     OW62456  10.369   4.464   9.215
53520SOL    HW162457  10.309   4.451   9.142
53520SOL    HW262458  10.442   4.514   9.178
53521SOL     OW62459   1.606   1.283   9.113
53521SOL    HW162460   1.591   1.365   9.066
53521SOL    HW262461   1.688   1.250   9.077
53522SOL     OW62462   7.959   2.151   6.310
53522SOL    HW162463   8.052   2.129   6.320
53522SOL    HW262464   7.930   2.101   6.234
53523SOL     OW62465   7.010   6.872   9.361
53523SOL    HW162466   7.061   6.853   9.439
53523SOL    HW262467   6.937   6.926   9.392
53524SOL     OW62468   6.657  13.133  12.496
53524SOL    HW162469   6.601  13.060  12.523
53524SOL    HW262470   6.611  13.211  12.525
53525SOL     OW62471   3.098   4.942  13.820
53525SOL    HW162472   3.159   4.876  13.854
53525SOL    HW262473   3.021   4.934  13.877
53526SOL     OW62474   6.783   8.885   8.526
53526SOL    HW162475   6.730   8.862   8.601
53526SOL    HW262476   6.839   8.956   8.557
53527SOL     OW62477   7.980  14.752   5.219
53527SOL    HW162478   7.967  14.682   5.155
53527SOL    HW262479   8.074  14.768   5.218
53528SOL     OW62480  10.873   4.174  11.978
53528SOL    HW162481  10.933   4.148  12.048
53528SOL    HW262482  10.831   4.254  12.010
53529SOL     OW62483   6.632   9.302   9.932
53529SOL    HW162484   6.641   9.337   9.844
53529SOL    HW262485   6.541   9.274   9.938
53530SOL     OW62486   4.362   0.414  11.137
53530SOL    HW162487   4.396   0.499  11.109
53530SOL    HW262488   4.440   0.360  11.153
53531SOL     OW62489  12.382   3.406   6.581
53531SOL    HW162490  12.434   3.403   6.500
53531SOL    HW262491  12.444   3.382   6.650
53532SOL     OW62492  11.462  13.881  12.506
53532SOL    HW162493  11.520  13.809  12.529
53532SOL    HW262494  11.385  13.868  12.561
53533SOL     OW62495  11.179   7.293  14.592
53533SOL    HW162496  11.229   7.214  14.567
53533SOL    HW262497  11.246   7.356  14.618
53534SOL     OW62498   5.081   6.928   6.084
53534SOL    HW162499   5.041   7.015   6.072
53534SOL    HW262500   5.055   6.902   6.172
53535SOL     OW62501   0.549  10.899   6.861
53535SOL    HW162502   0.606  10.942   6.925
53535SOL    HW262503   0.601  10.824   6.830
53536SOL     OW62504  13.185  12.677   0.181
53536SOL    HW162505  13.199  12.748   0.119
53536SOL    HW262506  13.272  12.641   0.197
53537SOL     OW62507   2.553   1.016  14.049
53537SOL    HW162508   2.493   0.966  14.105
53537SOL    HW262509   2.640   0.994  14.081
53538SOL     OW62510   6.819   3.409   9.260
53538SOL    HW162511   6.733   3.432   9.225
53538SOL    HW262512   6.834   3.472   9.330
53539SOL     OW62513   1.024   3.996   3.034
53539SOL    HW162514   0.972   3.951   2.967
53539SOL    HW262515   1.060   3.926   3.088
53540SOL     OW62516  11.479   5.578  12.158
53540SOL    HW162517  11.488   5.651  12.097
53540SOL    HW262518  11.438   5.616  12.236
53541SOL     OW62519   7.895   4.500   3.162
53541SOL    HW162520   7.984   4.476   3.187
53541SOL    HW262521   7.896   4.595   3.158
53542SOL     OW62522  10.674   4.394   4.938
53542SOL    HW162523  10.696   4.428   4.851
53542SOL    HW262524  10.741   4.430   4.995
53543SOL     OW62525  14.827  10.776  11.602
53543SOL    HW162526  14.791  10.861  11.579
53543SOL    HW262527   0.013  10.756  11.531
53544SOL     OW62528   4.460   5.710   2.281
53544SOL    HW162529   4.511   5.638   2.319
53544SOL    HW262530   4.431   5.676   2.196
53545SOL     OW62531   1.560   9.779   0.611
53545SOL    HW162532   1.468   9.757   0.619
53545SOL    HW262533   1.602   9.698   0.582
53546SOL     OW62534  12.303   2.980  11.618
53546SOL    HW162535  12.367   3.049  11.638
53546SOL    HW262536  12.282   2.993  11.526
53547SOL     OW62537   6.589   0.083   2.233
53547SOL    HW162538   6.524   0.105   2.166
53547SOL    HW262539   6.667   0.060   2.183
53548SOL     OW62540   1.167   6.896   1.450
53548SOL    HW162541   1.211   6.954   1.512
53548SOL    HW262542   1.086   6.870   1.495
53549SOL     OW62543   1.381   6.218  10.131
53549SOL    HW162544   1.437   6.272  10.187
53549SOL    HW262545   1.442   6.166  10.079
53550SOL     OW62546   3.545  11.898   6.560
53550SOL    HW162547   3.544  11.880   6.466
53550SOL    HW262548   3.460  11.867   6.592
53551SOL     OW62549   1.269  10.764   2.919
53551SOL    HW162550   1.245  10.826   2.988
53551SOL    HW262551   1.343  10.806   2.874
53552SOL     OW62552  14.087   3.200  13.310
53552SOL    HW162553  13.999   3.233  13.327
53552SOL    HW262554  14.077   3.144  13.233
53553SOL     OW62555  13.266   9.334   4.763
53553SOL    HW162556  13.193   9.382   4.724
53553SOL    HW262557  13.328   9.323   4.691
53554SOL     OW62558   4.933   1.130   8.739
53554SOL    HW162559   4.911   1.078   8.661
53554SOL    HW262560   4.852   1.130   8.791
53555SOL     OW62561   9.999   4.492   4.302
53555SOL    HW162562  10.027   4.431   4.233
53555SOL    HW262563  10.079   4.512   4.350
53556SOL     OW62564   4.587   9.358   2.061
53556SOL    HW162565   4.660   9.343   2.121
53556SOL    HW262566   4.537   9.429   2.101
53557SOL     OW62567  13.483   5.641   1.694
53557SOL    HW162568  13.497   5.581   1.620
53557SOL    HW262569  13.466   5.583   1.769
53558SOL     OW62570   2.218  11.981  13.916
53558SOL    HW162571   2.162  11.927  13.861
53558SOL    HW262572   2.193  12.071  13.894
53559SOL     OW62573   5.369   1.643   5.337
53559SOL    HW162574   5.443   1.704   5.338
53559SOL    HW262575   5.395   1.575   5.274
53560SOL     OW62576   7.854   4.102   2.560
53560SOL    HW162577   7.848   4.014   2.598
53560SOL    HW262578   7.771   4.144   2.583
53561SOL     OW62579   2.304   4.204   6.243
53561SOL    HW162580   2.304   4.276   6.306
53561SOL    HW262581   2.253   4.237   6.169
53562SOL     OW62582  14.405  11.370  11.262
53562SOL    HW162583  14.473  11.424  11.222
53562SOL    HW262584  14.409  11.393  11.355
53563SOL     OW62585   8.456  13.204  12.049
53563SOL    HW162586   8.426  13.164  12.130
53563SOL    HW262587   8.478  13.294  12.074
53564SOL     OW62588  10.964   5.598   6.103
53564SOL    HW162589  11.006   5.593   6.189
53564SOL    HW262590  10.871   5.590   6.121
53565SOL     OW62591   8.498   3.571  10.361
53565SOL    HW162592   8.425   3.620  10.400
53565SOL    HW262593   8.473   3.560  10.269
53566SOL     OW62594  13.397  14.780   4.034
53566SOL    HW162595  13.473  14.722   4.029
53566SOL    HW262596  13.429  14.863   3.998
53567SOL     OW62597   0.643   8.139  14.530
53567SOL    HW162598   0.724   8.125  14.481
53567SOL    HW262599   0.575   8.100  14.475
53568SOL     OW62600  10.773   8.350   6.781
53568SOL    HW162601  10.690   8.311   6.754
53568SOL    HW262602  10.767   8.441   6.753
53569SOL     OW62603   3.434   1.458   8.341
53569SOL    HW162604   3.425   1.405   8.420
53569SOL    HW262605   3.344   1.480   8.316
53570SOL     OW62606   7.805   1.467  13.812
53570SOL    HW162607   7.798   1.548  13.761
53570SOL    HW262608   7.884   1.479  13.866
53571SOL     OW62609  13.936   3.483   2.169
53571SOL    HW162610  13.906   3.506   2.081
53571SOL    HW262611  13.889   3.543   2.227
53572SOL     OW62612  14.068   8.054  12.314
53572SOL    HW162613  14.055   8.130  12.258
53572SOL    HW262614  14.155   8.022  12.290
53573SOL     OW62615   9.887   3.310  13.152
53573SOL    HW162616   9.844   3.261  13.082
53573SOL    HW262617   9.839   3.286  13.231
53574SOL     OW62618   2.742   5.637  13.738
53574SOL    HW162619   2.649   5.618  13.728
53574SOL    HW262620   2.759   5.710  13.678
53575SOL     OW62621  11.945   6.886   0.659
53575SOL    HW162622  12.003   6.961   0.667
53575SOL    HW262623  11.913   6.871   0.748
53576SOL     OW62624   3.790  12.326   4.585
53576SOL    HW162625   3.835  12.348   4.667
53576SOL    HW262626   3.734  12.251   4.608
53577SOL     OW62627   8.728   7.281   5.361
53577SOL    HW162628   8.735   7.205   5.303
53577SOL    HW262629   8.759   7.249   5.445
53578SOL     OW62630  10.246   7.028   1.688
53578SOL    HW162631  10.200   6.949   1.659
53578SOL    HW262632  10.327   7.029   1.638
53579SOL     OW62633   4.727  12.695   5.511
53579SOL    HW162634   4.693  12.767   5.458
53579SOL    HW262635   4.766  12.635   5.447
53580SOL     OW62636  12.234   4.989   6.982
53580SOL    HW162637  12.290   4.972   7.059
53580SOL    HW262638  12.145   4.975   7.014
53581SOL     OW62639  12.088   1.417  11.079
53581SOL    HW162640  12.015   1.355  11.080
53581SOL    HW262641  12.045   1.503  11.080
53582SOL     OW62642   4.781   7.213  12.287
53582SOL    HW162643   4.794   7.119  12.277
53582SOL    HW262644   4.718   7.221  12.359
53583SOL     OW62645  14.709  12.931   4.894
53583SOL    HW162646  14.717  13.014   4.847
53583SOL    HW262647  14.791  12.925   4.944
53584SOL     OW62648  13.633  11.313   8.795
53584SOL    HW162649  13.555  11.270   8.762
53584SOL    HW262650  13.706  11.262   8.759
53585SOL     OW62651  12.063   8.615   6.439
53585SOL    HW162652  12.099   8.696   6.474
53585SOL    HW262653  12.046   8.635   6.347
53586SOL     OW62654   5.731   2.251   1.427
53586SOL    HW162655   5.760   2.328   1.475
53586SOL    HW262656   5.637   2.244   1.447
53587SOL     OW62657   4.107   4.343   3.252
53587SOL    HW162658   4.027   4.380   3.215
53587SOL    HW262659   4.085   4.252   3.271
53588SOL     OW62660  14.471  13.355   0.563
53588SOL    HW162661  14.387  13.351   0.517
53588SOL    HW262662  14.466  13.436   0.614
53589SOL     OW62663   0.742   2.497  12.465
53589SOL    HW162664   0.736   2.491  12.369
53589SOL    HW262665   0.757   2.590  12.482
53590SOL     OW62666   9.393  13.768  12.100
53590SOL    HW162667   9.423  13.698  12.159
53590SOL    HW262668   9.376  13.842  12.158
53591SOL     OW62669   1.148  10.069  10.032
53591SOL    HW162670   1.211  10.044  10.100
53591SOL    HW262671   1.135  10.163  10.045
53592SOL     OW62672  11.175  13.799   9.024
53592SOL    HW162673  11.080  13.800   9.036
53592SOL    HW262674  11.201  13.891   9.033
53593SOL     OW62675  11.447  14.295  14.032
53593SOL    HW162676  11.438  14.317  14.125
53593SOL    HW262677  11.533  14.253  14.026
53594SOL     OW62678   1.208   1.698  12.253
53594SOL    HW162679   1.298   1.669  12.245
53594SOL    HW262680   1.168   1.638  12.316
53595SOL     OW62681   5.192   1.942   8.433
53595SOL    HW162682   5.130   1.876   8.465
53595SOL    HW262683   5.214   1.994   8.510
53596SOL     OW62684  10.544  11.571   4.230
53596SOL    HW162685  10.612  11.621   4.275
53596SOL    HW262686  10.472  11.633   4.218
53597SOL     OW62687   9.868   3.930   9.495
53597SOL    HW162688   9.868   3.837   9.516
53597SOL    HW262689   9.891   3.973   9.578
53598SOL     OW62690   1.333   4.431   9.153
53598SOL    HW162691   1.387   4.418   9.231
53598SOL    HW262692   1.284   4.511   9.171
53599SOL     OW62693   8.804  12.069   2.842
53599SOL    HW162694   8.870  12.065   2.773
53599SOL    HW262695   8.778  11.978   2.856
53600SOL     OW62696   7.226  10.054   5.025
53600SOL    HW162697   7.214  10.135   5.075
53600SOL    HW262698   7.207  10.079   4.934
53601SOL     OW62699   3.486   7.043   1.725
53601SOL    HW162700   3.554   6.985   1.693
53601SOL    HW262701   3.482   7.114   1.660
53602SOL     OW62702   4.921   7.022  14.368
53602SOL    HW162703   4.961   7.032  14.454
53602SOL    HW262704   4.942   6.933  14.341
53603SOL     OW62705   7.359   2.823  13.181
53603SOL    HW162706   7.319   2.752  13.129
53603SOL    HW262707   7.293   2.892  13.182
53604SOL     OW62708   3.884   4.125   8.136
53604SOL    HW162709   3.961   4.179   8.155
53604SOL    HW262710   3.877   4.068   8.213
53605SOL     OW62711   5.303   7.593   8.157
53605SOL    HW162712   5.220   7.637   8.174
53605SOL    HW262713   5.283   7.500   8.162
53606SOL     OW62714   5.522   9.922   1.925
53606SOL    HW162715   5.575   9.910   2.004
53606SOL    HW262716   5.537  10.013   1.900
53607SOL     OW62717   9.118   6.133   3.500
53607SOL    HW162718   9.046   6.105   3.557
53607SOL    HW262719   9.134   6.224   3.525
53608SOL     OW62720  12.727  12.177   8.851
53608SOL    HW162721  12.736  12.132   8.936
53608SOL    HW262722  12.694  12.110   8.792
53609SOL     OW62723  14.258  13.280   1.134
53609SOL    HW162724  14.246  13.235   1.050
53609SOL    HW262725  14.197  13.235   1.193
53610SOL     OW62726   9.718  14.212   9.566
53610SOL    HW162727   9.783  14.151   9.531
53610SOL    HW262728   9.759  14.249   9.644
53611SOL     OW62729   9.545   6.498   2.171
53611SOL    HW162730   9.625   6.467   2.129
53611SOL    HW262731   9.575   6.538   2.253
53612SOL     OW62732  14.612   3.799   6.547
53612SOL    HW162733  14.693   3.827   6.505
53612SOL    HW262734  14.548   3.866   6.523
53613SOL     OW62735  13.694   9.739   5.538
53613SOL    HW162736  13.607   9.703   5.553
53613SOL    HW262737  13.748   9.662   5.516
53614SOL     OW62738  12.389  14.571  11.307
53614SOL    HW162739  12.427  14.615  11.230
53614SOL    HW262740  12.405  14.632  11.379
53615SOL     OW62741  12.364   4.913   7.202
53615SOL    HW162742  12.395   4.823   7.192
53615SOL    HW262743  12.442   4.963   7.224
53616SOL     OW62744  13.911   6.626   2.874
53616SOL    HW162745  13.943   6.606   2.962
53616SOL    HW262746  13.816   6.622   2.882
53617SOL     OW62747   7.258  12.381   9.402
53617SOL    HW162748   7.204  12.344   9.332
53617SOL    HW262749   7.299  12.458   9.363
53618SOL     OW62750   3.302   5.242   1.940
53618SOL    HW162751   3.360   5.180   1.896
53618SOL    HW262752   3.216   5.225   1.902
53619SOL     OW62753   0.256  11.765   0.753
53619SOL    HW162754   0.273  11.735   0.842
53619SOL    HW262755   0.161  11.780   0.750
53620SOL     OW62756   9.369   8.037   5.374
53620SOL    HW162757   9.464   8.047   5.375
53620SOL    HW262758   9.335   8.125   5.392
53621SOL     OW62759   8.357   3.450  13.106
53621SOL    HW162760   8.349   3.532  13.155
53621SOL    HW262761   8.317   3.384  13.164
53622SOL     OW62762   2.576   2.794  11.621
53622SOL    HW162763   2.512   2.819  11.553
53622SOL    HW262764   2.523   2.777  11.699
53623SOL     OW62765   3.049   5.004   5.301
53623SOL    HW162766   3.036   4.915   5.269
53623SOL    HW262767   3.144   5.010   5.317
53624SOL     OW62768  13.392   3.191   3.188
53624SOL    HW162769  13.318   3.252   3.193
53624SOL    HW262770  13.454   3.234   3.129
53625SOL     OW62771   0.599   3.750  10.266
53625SOL    HW162772   0.683   3.719  10.234
53625SOL    HW262773   0.550   3.774  10.188
53626SOL     OW62774  13.847   8.471   4.115
53626SOL    HW162775  13.890   8.399   4.160
53626SOL    HW262776  13.794   8.514   4.183
53627SOL     OW62777  10.940  10.680   7.408
53627SOL    HW162778  10.915  10.595   7.444
53627SOL    HW262779  10.872  10.740   7.438
53628SOL     OW62780   6.997  12.285   7.730
53628SOL    HW162781   7.036  12.228   7.664
53628SOL    HW262782   6.917  12.318   7.689
53629SOL     OW62783  13.558   9.241  12.212
53629SOL    HW162784  13.644   9.276  12.189
53629SOL    HW262785  13.534   9.187  12.137
53630SOL     OW62786   4.784   3.318   8.632
53630SOL    HW162787   4.754   3.342   8.544
53630SOL    HW262788   4.869   3.362   8.641
53631SOL     OW62789   7.222  13.908   4.618
53631SOL    HW162790   7.175  13.990   4.609
53631SOL    HW262791   7.154  13.842   4.631
53632SOL     OW62792   2.046   1.734  13.165
53632SOL    HW162793   1.995   1.767  13.091
53632SOL    HW262794   2.136   1.764  13.148
53633SOL     OW62795  13.560  13.024   2.424
53633SOL    HW162796  13.632  12.986   2.374
53633SOL    HW262797  13.501  13.061   2.358
53634SOL     OW62798   7.293   8.669   4.207
53634SOL    HW162799   7.333   8.582   4.205
53634SOL    HW262800   7.303   8.698   4.298
53635SOL     OW62801   2.304   2.783   5.237
53635SOL    HW162802   2.328   2.876   5.233
53635SOL    HW262803   2.295   2.765   5.330
53636SOL     OW62804  10.110   2.510   0.320
53636SOL    HW162805  10.044   2.441   0.331
53636SOL    HW262806  10.160   2.483   0.243
53637SOL     OW62807   3.510   6.406  13.849
53637SOL    HW162808   3.541   6.488  13.813
53637SOL    HW262809   3.505   6.421  13.943
53638SOL     OW62810   4.900   1.392  13.964
53638SOL    HW162811   4.887   1.298  13.964
53638SOL    HW262812   4.851   1.424  13.888
53639SOL     OW62813   2.344   0.301   6.724
53639SOL    HW162814   2.400   0.255   6.661
53639SOL    HW262815   2.338   0.241   6.798
53640SOL     OW62816   0.940   0.900  11.482
53640SOL    HW162817   0.936   0.843  11.559
53640SOL    HW262818   0.931   0.840  11.407
53641SOL     OW62819   1.586  11.645   5.381
53641SOL    HW162820   1.561  11.600   5.301
53641SOL    HW262821   1.574  11.738   5.361
53642SOL     OW62822  10.040  11.479   3.460
53642SOL    HW162823  10.061  11.523   3.378
53642SOL    HW262824  10.044  11.386   3.439
53643SOL     OW62825   3.236   2.700  13.251
53643SOL    HW162826   3.159   2.736  13.294
53643SOL    HW262827   3.225   2.723  13.159
53644SOL     OW62828   3.049   5.218  14.133
53644SOL    HW162829   3.041   5.310  14.158
53644SOL    HW262830   3.140   5.195  14.153
53645SOL     OW62831  10.115   1.710   1.029
53645SOL    HW162832  10.075   1.675   0.949
53645SOL    HW262833  10.170   1.639   1.062
53646SOL     OW62834   6.336   5.859  11.300
53646SOL    HW162835   6.336   5.764  11.288
53646SOL    HW262836   6.422   5.879  11.336
53647SOL     OW62837   8.939   3.464   6.441
53647SOL    HW162838   8.904   3.549   6.467
53647SOL    HW262839   8.946   3.468   6.346
53648SOL     OW62840  10.107   0.205   6.946
53648SOL    HW162841  10.038   0.141   6.928
53648SOL    HW262842  10.174   0.156   6.994
53649SOL     OW62843   3.974   6.201   7.652
53649SOL    HW162844   3.954   6.246   7.570
53649SOL    HW262845   4.053   6.149   7.633
53650SOL     OW62846   9.536   0.844   5.678
53650SOL    HW162847   9.560   0.937   5.682
53650SOL    HW262848   9.462   0.841   5.617
53651SOL     OW62849  12.361   8.326   1.376
53651SOL    HW162850  12.443   8.315   1.327
53651SOL    HW262851  12.371   8.410   1.420
53652SOL     OW62852  12.624  13.016   1.471
53652SOL    HW162853  12.669  12.942   1.513
53652SOL    HW262854  12.555  12.975   1.419
53653SOL     OW62855   4.132   9.672  14.049
53653SOL    HW162856   4.144   9.597  14.107
53653SOL    HW262857   4.116   9.746  14.108
53654SOL     OW62858   3.395  12.117  14.158
53654SOL    HW162859   3.348  12.036  14.176
53654SOL    HW262860   3.486  12.090  14.143
53655SOL     OW62861   7.050   0.270   1.309
53655SOL    HW162862   6.980   0.334   1.299
53655SOL    HW262863   7.019   0.211   1.378
53656SOL     OW62864   8.313   3.119  14.477
53656SOL    HW162865   8.329   3.035  14.434
53656SOL    HW262866   8.305   3.182  14.405
53657SOL     OW62867   2.021   7.120   0.651
53657SOL    HW162868   2.085   7.153   0.588
53657SOL    HW262869   1.963   7.064   0.599
53658SOL     OW62870   0.341  13.465  10.142
53658SOL    HW162871   0.408  13.438  10.206
53658SOL    HW262872   0.297  13.539  10.183
53659SOL     OW62873  12.800  13.412   7.439
53659SOL    HW162874  12.831  13.391   7.527
53659SOL    HW262875  12.733  13.346   7.422
53660SOL     OW62876   9.590  11.267  10.788
53660SOL    HW162877   9.502  11.302  10.801
53660SOL    HW262878   9.646  11.344  10.785
53661SOL     OW62879   6.215   8.326   7.952
53661SOL    HW162880   6.188   8.288   7.869
53661SOL    HW262881   6.292   8.379   7.930
53662SOL     OW62882   8.222   9.487   3.134
53662SOL    HW162883   8.179   9.466   3.217
53662SOL    HW262884   8.168   9.445   3.067
53663SOL     OW62885   7.111  12.386   8.128
53663SOL    HW162886   7.135  12.424   8.044
53663SOL    HW262887   7.195  12.372   8.173
53664SOL     OW62888   0.234   7.936  10.857
53664SOL    HW162889   0.279   7.975  10.782
53664SOL    HW262890   0.145   7.919  10.825
53665SOL     OW62891  14.665  14.280   7.597
53665SOL    HW162892  14.679  14.364   7.552
53665SOL    HW262893  14.570  14.268   7.597
53666SOL     OW62894  12.951   0.939   9.945
53666SOL    HW162895  12.935   0.852   9.910
53666SOL    HW262896  12.952   0.927  10.040
53667SOL     OW62897  13.781  13.799   1.658
53667SOL    HW162898  13.721  13.854   1.609
53667SOL    HW262899  13.833  13.754   1.590
53668SOL     OW62900   1.292   6.359   8.765
53668SOL    HW162901   1.243   6.441   8.772
53668SOL    HW262902   1.353   6.361   8.839
53669SOL     OW62903   7.420   3.116  10.151
53669SOL    HW162904   7.417   3.125  10.056
53669SOL    HW262905   7.448   3.201  10.183
53670SOL     OW62906   8.746  11.783  10.622
53670SOL    HW162907   8.654  11.772  10.648
53670SOL    HW262908   8.761  11.714  10.557
53671SOL     OW62909   3.001   2.329  13.643
53671SOL    HW162910   3.047   2.312  13.725
53671SOL    HW262911   2.910   2.308  13.662
53672SOL     OW62912   3.013  10.783   8.801
53672SOL    HW162913   2.953  10.818   8.866
53672SOL    HW262914   2.957  10.752   8.729
53673SOL     OW62915   2.056   2.921  14.039
53673SOL    HW162916   2.026   2.833  14.061
53673SOL    HW262917   2.118   2.909  13.967
53674SOL     OW62918   8.273   1.428  13.107
53674SOL    HW162919   8.321   1.501  13.145
53674SOL    HW262920   8.208   1.404  13.174
53675SOL     OW62921   5.659  14.119   1.655
53675SOL    HW162922   5.631  14.201   1.614
53675SOL    HW262923   5.665  14.140   1.748
53676SOL     OW62924   6.651   3.503  13.580
53676SOL    HW162925   6.645   3.598  13.591
53676SOL    HW262926   6.621   3.487  13.491
53677SOL     OW62927   0.101   1.292  14.533
53677SOL    HW162928   0.187   1.255  14.552
53677SOL    HW262929   0.095   1.370  14.588
53678SOL     OW62930   6.834  11.992   9.854
53678SOL    HW162931   6.819  11.967   9.945
53678SOL    HW262932   6.898  11.929   9.821
53679SOL     OW62933   5.530  11.658   5.905
53679SOL    HW162934   5.449  11.614   5.930
53679SOL    HW262935   5.595  11.588   5.901
53680SOL     OW62936   0.064   6.857   2.135
53680SOL    HW162937   0.119   6.903   2.072
53680SOL    HW262938   0.054   6.769   2.099
53681SOL     OW62939   3.231  10.785  14.133
53681SOL    HW162940   3.268  10.869  14.107
53681SOL    HW262941   3.232  10.786  14.228
53682SOL     OW62942   2.969  10.489   9.215
53682SOL    HW162943   2.949  10.558   9.279
53682SOL    HW262944   3.026  10.429   9.263
53683SOL     OW62945   8.683  13.357  10.687
53683SOL    HW162946   8.639  13.363  10.772
53683SOL    HW262947   8.723  13.443  10.674
53684SOL     OW62948   4.698  14.505   0.850
53684SOL    HW162949   4.652  14.478   0.771
53684SOL    HW262950   4.672  14.596   0.863
53685SOL     OW62951  14.653   1.006  10.745
53685SOL    HW162952  14.740   1.014  10.782
53685SOL    HW262953  14.622   0.920  10.772
53686SOL     OW62954   4.946   3.569  10.978
53686SOL    HW162955   4.874   3.626  10.951
53686SOL    HW262956   4.912   3.522  11.054
53687SOL     OW62957   8.483   0.518  11.385
53687SOL    HW162958   8.471   0.612  11.369
53687SOL    HW262959   8.475   0.509  11.480
53688SOL     OW62960   9.479  14.710   6.191
53688SOL    HW162961   9.416  14.762   6.141
53688SOL    HW262962   9.511  14.769   6.259
53689SOL     OW62963   3.195   2.310  10.615
53689SOL    HW162964   3.113   2.262  10.603
53689SOL    HW262965   3.209   2.354  10.531
53690SOL     OW62966  12.929  12.257  14.642
53690SOL    HW162967  12.931  12.179  14.587
53690SOL    HW262968  12.995  12.241  14.709
53691SOL     OW62969   3.059  11.183   4.265
53691SOL    HW162970   3.064  11.260   4.321
53691SOL    HW262971   3.044  11.110   4.326
53692SOL     OW62972   5.808   9.288   9.096
53692SOL    HW162973   5.817   9.304   9.003
53692SOL    HW262974   5.742   9.218   9.103
53693SOL     OW62975  11.832   7.467   0.106
53693SOL    HW162976  11.913   7.486   0.057
53693SOL    HW262977  11.850   7.498   0.194
53694SOL     OW62978  13.566  10.783  13.162
53694SOL    HW162979  13.528  10.825  13.084
53694SOL    HW262980  13.612  10.707  13.127
53695SOL     OW62981  10.830   0.326   0.045
53695SOL    HW162982  10.770   0.286  14.857
53695SOL    HW262983  10.849   0.257   0.108
53696SOL     OW62984   2.711  12.364   5.007
53696SOL    HW162985   2.799  12.363   5.045
53696SOL    HW262986   2.721  12.316   4.924
53697SOL     OW62987   3.251   4.636   5.710
53697SOL    HW162988   3.269   4.544   5.732
53697SOL    HW262989   3.239   4.636   5.615
53698SOL     OW62990   9.543  10.879   5.784
53698SOL    HW162991   9.636  10.903   5.785
53698SOL    HW262992   9.526  10.853   5.693
53699SOL     OW62993  14.190   4.133   1.710
53699SOL    HW162994  14.279   4.138   1.677
53699SOL    HW262995  14.188   4.052   1.761
53700SOL     OW62996   1.075   5.477  10.034
53700SOL    HW162997   1.049   5.569  10.031
53700SOL    HW262998   0.998   5.431  10.068
53701SOL     OW62999  12.479   2.634   0.926
53701SOL    HW163000  12.575   2.639   0.928
53701SOL    HW263001  12.460   2.571   0.857
53702SOL     OW63002   5.530  13.780  10.707
53702SOL    HW163003   5.449  13.790  10.657
53702SOL    HW263004   5.528  13.851  10.771
53703SOL     OW63005   7.696   9.307   4.338
53703SOL    HW163006   7.688   9.264   4.253
53703SOL    HW263007   7.682   9.400   4.320
53704SOL     OW63008   5.258  13.287   0.892
53704SOL    HW163009   5.189  13.350   0.913
53704SOL    HW263010   5.265  13.231   0.970
53705SOL     OW63011   2.918   8.241   8.084
53705SOL    HW163012   2.937   8.191   8.005
53705SOL    HW263013   2.879   8.177   8.144
53706SOL     OW63014   4.743   8.183   9.174
53706SOL    HW163015   4.708   8.161   9.088
53706SOL    HW263016   4.666   8.201   9.228
53707SOL     OW63017  11.496   9.142   5.065
53707SOL    HW163018  11.417   9.195   5.060
53707SOL    HW263019  11.557   9.192   5.119
53708SOL     OW63020  10.473   5.906   0.301
53708SOL    HW163021  10.474   5.819   0.260
53708SOL    HW263022  10.427   5.962   0.239
53709SOL     OW63023  11.341  10.766  13.936
53709SOL    HW163024  11.398  10.741  14.008
53709SOL    HW263025  11.321  10.858  13.953
53710SOL     OW63026   2.244  14.804   6.763
53710SOL    HW163027   2.157  14.845   6.770
53710SOL    HW263028   2.263  14.772   6.851
53711SOL     OW63029   3.738  14.875   2.551
53711SOL    HW163030   3.713  14.810   2.486
53711SOL    HW263031   3.712   0.083   2.513
53712SOL     OW63032  13.789   9.866   9.195
53712SOL    HW163033  13.786   9.801   9.266
53712SOL    HW263034  13.707   9.914   9.203
53713SOL     OW63035   8.048   7.256   6.232
53713SOL    HW163036   8.077   7.179   6.281
53713SOL    HW263037   8.090   7.330   6.276
53714SOL     OW63038  12.097   0.213   6.906
53714SOL    HW163039  12.145   0.159   6.843
53714SOL    HW263040  12.164   0.266   6.949
53715SOL     OW63041  12.109   6.657  12.012
53715SOL    HW163042  12.158   6.585  11.972
53715SOL    HW263043  12.116   6.639  12.106
53716SOL     OW63044   8.451   1.387   4.434
53716SOL    HW163045   8.376   1.395   4.494
53716SOL    HW263046   8.429   1.312   4.379
53717SOL     OW63047   6.553   4.938  10.650
53717SOL    HW163048   6.462   4.947  10.621
53717SOL    HW263049   6.584   4.858  10.608
53718SOL     OW63050  13.230   6.081   1.575
53718SOL    HW163051  13.141   6.062   1.545
53718SOL    HW263052  13.282   6.007   1.544
53719SOL     OW63053   1.723   6.244   8.097
53719SOL    HW163054   1.782   6.318   8.112
53719SOL    HW263055   1.681   6.229   8.182
53720SOL     OW63056   3.810  12.481  10.646
53720SOL    HW163057   3.757  12.404  10.623
53720SOL    HW263058   3.834  12.466  10.737
53721SOL     OW63059   4.681   9.190  13.504
53721SOL    HW163060   4.751   9.233  13.554
53721SOL    HW263061   4.605   9.194  13.561
53722SOL     OW63062   1.227   0.921  13.518
53722SOL    HW163063   1.196   1.007  13.491
53722SOL    HW263064   1.299   0.939  13.578
53723SOL     OW63065   4.576   0.769   9.100
53723SOL    HW163066   4.599   0.773   9.193
53723SOL    HW263067   4.490   0.811   9.095
53724SOL     OW63068   4.134   7.002   7.717
53724SOL    HW163069   4.040   6.988   7.724
53724SOL    HW263070   4.164   6.932   7.659
53725SOL     OW63071  12.218   3.798   5.077
53725SOL    HW163072  12.186   3.729   5.020
53725SOL    HW263073  12.141   3.852   5.095
53726SOL     OW63074   0.841   3.521   0.974
53726SOL    HW163075   0.822   3.450   0.913
53726SOL    HW263076   0.781   3.507   1.048
53727SOL     OW63077  13.779  13.816   0.136
53727SOL    HW163078  13.686  13.827   0.152
53727SOL    HW263079  13.817  13.901   0.160
53728SOL     OW63080  11.491   1.792   8.541
53728SOL    HW163081  11.424   1.793   8.609
53728SOL    HW263082  11.500   1.884   8.515
53729SOL     OW63083  11.600  11.133   4.060
53729SOL    HW163084  11.689  11.143   4.095
53729SOL    HW263085  11.555  11.078   4.124
53730SOL     OW63086   8.370  13.036  11.841
53730SOL    HW163087   8.416  12.953  11.851
53730SOL    HW263088   8.399  13.089  11.915
53731SOL     OW63089   8.839   0.678  13.152
53731SOL    HW163090   8.876   0.625  13.081
53731SOL    HW263091   8.751   0.700  13.123
53732SOL     OW63092  14.810  11.014   1.792
53732SOL    HW163093  14.729  11.004   1.742
53732SOL    HW263094  14.823  11.108   1.799
53733SOL     OW63095   6.693  10.283  12.059
53733SOL    HW163096   6.746  10.259  12.135
53733SOL    HW263097   6.755  10.288  11.987
53734SOL     OW63098   0.068  12.910  13.426
53734SOL    HW163099   0.101  12.969  13.358
53734SOL    HW263100   0.100  12.947  13.508
53735SOL     OW63101   4.296  13.707   4.303
53735SOL    HW163102   4.345  13.738   4.228
53735SOL    HW263103   4.361  13.700   4.373
53736SOL     OW63104   1.694  12.351  12.377
53736SOL    HW163105   1.773  12.299  12.365
53736SOL    HW263106   1.643  12.335  12.297
53737SOL     OW63107  11.719   9.875   4.631
53737SOL    HW163108  11.635   9.840   4.658
53737SOL    HW263109  11.733   9.840   4.543
53738SOL     OW63110   7.493   6.874  10.735
53738SOL    HW163111   7.482   6.812  10.808
53738SOL    HW263112   7.584   6.903  10.743
53739SOL     OW63113   0.320  11.163  13.722
53739SOL    HW163114   0.403  11.160  13.673
53739SOL    HW263115   0.323  11.246  13.769
53740SOL     OW63116   9.971   7.765   8.910
53740SOL    HW163117   9.957   7.718   8.992
53740SOL    HW263118  10.064   7.788   8.912
53741SOL     OW63119   4.773   4.004   9.159
53741SOL    HW163120   4.722   3.927   9.136
53741SOL    HW263121   4.807   4.037   9.075
53742SOL     OW63122   2.037   0.110  11.904
53742SOL    HW163123   2.012   0.194  11.866
53742SOL    HW263124   2.053   0.129  11.996
53743SOL     OW63125   1.835   7.718   4.931
53743SOL    HW163126   1.793   7.678   4.855
53743SOL    HW263127   1.789   7.801   4.944
53744SOL     OW63128   5.155   4.386   7.461
53744SOL    HW163129   5.090   4.447   7.426
53744SOL    HW263130   5.154   4.313   7.400
53745SOL     OW63131   8.104   7.988   3.857
53745SOL    HW163132   8.019   8.033   3.859
53745SOL    HW263133   8.091   7.911   3.912
53746SOL     OW63134   6.117  14.175   9.753
53746SOL    HW163135   6.110  14.163   9.659
53746SOL    HW263136   6.149  14.264   9.764
53747SOL     OW63137   2.419   1.005   7.732
53747SOL    HW163138   2.370   1.033   7.809
53747SOL    HW263139   2.377   0.924   7.704
53748SOL     OW63140   5.698   9.742   7.736
53748SOL    HW163141   5.774   9.789   7.703
53748SOL    HW263142   5.734   9.672   7.790
53749SOL     OW63143   1.216  10.468  14.384
53749SOL    HW163144   1.249  10.551  14.417
53749SOL    HW263145   1.179  10.424  14.461
53750SOL     OW63146   8.143   0.212  13.642
53750SOL    HW163147   8.206   0.283  13.632
53750SOL    HW263148   8.078   0.245  13.704
53751SOL     OW63149   2.019   4.307  10.044
53751SOL    HW163150   2.013   4.213  10.062
53751SOL    HW263151   1.938   4.329   9.999
53752SOL     OW63152   9.868   8.532   4.458
53752SOL    HW163153   9.817   8.490   4.528
53752SOL    HW263154   9.959   8.512   4.481
53753SOL     OW63155   7.855   8.963   8.272
53753SOL    HW163156   7.775   8.986   8.225
53753SOL    HW263157   7.892   8.890   8.223
53754SOL     OW63158   3.526   6.294   2.191
53754SOL    HW163159   3.576   6.222   2.152
53754SOL    HW263160   3.588   6.367   2.194
53755SOL     OW63161  11.230   4.800   8.577
53755SOL    HW163162  11.172   4.772   8.507
53755SOL    HW263163  11.263   4.718   8.615
53756SOL     OW63164   8.443  11.139   9.674
53756SOL    HW163165   8.537  11.123   9.683
53756SOL    HW263166   8.408  11.120   9.761
53757SOL     OW63167   6.488   6.543   6.862
53757SOL    HW163168   6.512   6.471   6.804
53757SOL    HW263169   6.454   6.611   6.804
53758SOL     OW63170   0.342   0.537   1.225
53758SOL    HW163171   0.260   0.533   1.275
53758SOL    HW263172   0.406   0.572   1.286
53759SOL     OW63173   9.751   5.796   7.295
53759SOL    HW163174   9.729   5.704   7.289
53759SOL    HW263175   9.676   5.842   7.257
53760SOL     OW63176   8.084  12.881   2.053
53760SOL    HW163177   8.091  12.948   1.985
53760SOL    HW263178   8.140  12.810   2.023
53761SOL     OW63179   2.916   3.152  13.691
53761SOL    HW163180   2.925   3.138  13.785
53761SOL    HW263181   2.997   3.197  13.665
53762SOL     OW63182   7.751   8.967  12.843
53762SOL    HW163183   7.815   9.005  12.783
53762SOL    HW263184   7.703   8.904  12.789
53763SOL     OW63185   8.343  14.327   0.136
53763SOL    HW163186   8.352  14.422   0.140
53763SOL    HW263187   8.427  14.297   0.102
53764SOL     OW63188   8.877  14.236   8.273
53764SOL    HW163189   8.936  14.268   8.204
53764SOL    HW263190   8.811  14.305   8.281
53765SOL     OW63191   2.314   4.645   0.008
53765SOL    HW163192   2.302   4.730  14.842
53765SOL    HW263193   2.376   4.661   0.079
53766SOL     OW63194   6.994   9.811   9.399
53766SOL    HW163195   7.010   9.863   9.478
53766SOL    HW263196   6.943   9.869   9.342
53767SOL     OW63197   2.765   9.133  10.089
53767SOL    HW163198   2.733   9.193  10.021
53767SOL    HW263199   2.728   9.167  10.170
53768SOL     OW63200   0.236   8.782  10.092
53768SOL    HW163201   0.198   8.765  10.178
53768SOL    HW263202   0.309   8.842  10.109
53769SOL     OW63203   0.362  11.912   9.530
53769SOL    HW163204   0.364  12.001   9.495
53769SOL    HW263205   0.270  11.887   9.526
53770SOL     OW63206   1.410   3.375   6.991
53770SOL    HW163207   1.477   3.349   6.928
53770SOL    HW263208   1.398   3.469   6.977
53771SOL     OW63209   6.289   7.409   3.905
53771SOL    HW163210   6.280   7.484   3.847
53771SOL    HW263211   6.380   7.413   3.936
53772SOL     OW63212   1.134   2.426   0.458
53772SOL    HW163213   1.196   2.380   0.515
53772SOL    HW263214   1.093   2.357   0.407
53773SOL     OW63215   6.975   9.000   5.557
53773SOL    HW163216   6.900   8.943   5.572
53773SOL    HW263217   7.038   8.974   5.625
53774SOL     OW63218   2.514   7.289   1.455
53774SOL    HW163219   2.585   7.247   1.502
53774SOL    HW263220   2.557   7.346   1.391
53775SOL     OW63221   4.853   8.411   3.048
53775SOL    HW163222   4.843   8.319   3.024
53775SOL    HW263223   4.903   8.450   2.977
53776SOL     OW63224  10.258  13.111   5.946
53776SOL    HW163225  10.172  13.107   5.987
53776SOL    HW263226  10.288  13.201   5.961
53777SOL     OW63227   9.140   8.003  12.508
53777SOL    HW163228   9.082   8.079  12.512
53777SOL    HW263229   9.192   8.008  12.588
53778SOL     OW63230  13.972   8.895  12.988
53778SOL    HW163231  13.960   8.987  12.965
53778SOL    HW263232  13.951   8.847  12.908
53779SOL     OW63233   7.991   8.585  14.772
53779SOL    HW163234   7.929   8.602  14.701
53779SOL    HW263235   8.071   8.557  14.727
53780SOL     OW63236   5.257   3.952  10.901
53780SOL    HW163237   5.330   3.896  10.874
53780SOL    HW263238   5.209   3.969  10.820
53781SOL     OW63239  14.268   1.176   3.052
53781SOL    HW163240  14.220   1.120   2.990
53781SOL    HW263241  14.340   1.213   3.001
53782SOL     OW63242   6.414   9.797  12.467
53782SOL    HW163243   6.320   9.819  12.467
53782SOL    HW263244   6.456   9.873  12.426
53783SOL     OW63245   3.114  12.309   2.872
53783SOL    HW163246   3.190  12.269   2.913
53783SOL    HW263247   3.058  12.336   2.945
53784SOL     OW63248  12.182   6.126  14.173
53784SOL    HW163249  12.125   6.197  14.203
53784SOL    HW263250  12.128   6.048  14.182
53785SOL     OW63251   5.130   6.356   4.509
53785SOL    HW163252   5.221   6.327   4.502
53785SOL    HW263253   5.079   6.275   4.498
53786SOL     OW63254   2.183   1.529   4.270
53786SOL    HW163255   2.127   1.476   4.213
53786SOL    HW263256   2.235   1.582   4.210
53787SOL     OW63257  12.268  11.773   7.865
53787SOL    HW163258  12.294  11.864   7.847
53787SOL    HW263259  12.175  11.778   7.887
53788SOL     OW63260   5.626  12.543   5.762
53788SOL    HW163261   5.574  12.544   5.681
53788SOL    HW263262   5.565  12.572   5.830
53789SOL     OW63263   1.022  13.575   1.874
53789SOL    HW163264   1.097  13.591   1.817
53789SOL    HW263265   1.051  13.601   1.961
53790SOL     OW63266   3.992   1.340  14.024
53790SOL    HW163267   4.014   1.361  14.114
53790SOL    HW263268   4.048   1.266  14.001
53791SOL     OW63269   2.207   9.864   0.836
53791SOL    HW163270   2.200   9.784   0.888
53791SOL    HW263271   2.301   9.886   0.839
53792SOL     OW63272  12.715   8.785   2.724
53792SOL    HW163273  12.652   8.786   2.796
53792SOL    HW263274  12.770   8.862   2.739
53793SOL     OW63275   5.048  14.324   9.347
53793SOL    HW163276   5.085  14.258   9.405
53793SOL    HW263277   4.982  14.277   9.295
53794SOL     OW63278   5.973   2.529   8.763
53794SOL    HW163279   5.951   2.440   8.734
53794SOL    HW263280   5.934   2.536   8.850
53795SOL     OW63281  13.741   7.573   9.723
53795SOL    HW163282  13.796   7.647   9.750
53795SOL    HW263283  13.751   7.509   9.793
53796SOL     OW63284   3.099   7.856   8.429
53796SOL    HW163285   3.130   7.772   8.398
53796SOL    HW263286   3.176   7.914   8.425
53797SOL     OW63287   0.179   8.261   4.220
53797SOL    HW163288   0.107   8.253   4.158
53797SOL    HW263289   0.252   8.216   4.177
53798SOL     OW63290   0.399   0.377   0.339
53798SOL    HW163291   0.484   0.333   0.328
53798SOL    HW263292   0.363   0.339   0.419
53799SOL     OW63293   5.636   2.339   0.840
53799SOL    HW163294   5.659   2.353   0.749
53799SOL    HW263295   5.719   2.347   0.887
53800SOL     OW63296  10.154  13.448   8.462
53800SOL    HW163297  10.161  13.375   8.400
53800SOL    HW263298  10.192  13.523   8.415
53801SOL     OW63299  11.281  12.775   3.592
53801SOL    HW163300  11.200  12.732   3.619
53801SOL    HW263301  11.341  12.702   3.573
53802SOL     OW63302   8.216   0.822  12.773
53802SOL    HW163303   8.249   0.733  12.764
53802SOL    HW263304   8.136   0.824  12.720
53803SOL     OW63305   2.412   8.673   5.606
53803SOL    HW163306   2.328   8.699   5.570
53803SOL    HW263307   2.455   8.756   5.628
53804SOL     OW63308  10.771   4.059  10.903
53804SOL    HW163309  10.849   4.059  10.848
53804SOL    HW263310  10.798   4.102  10.984
53805SOL     OW63311   9.315  11.110   3.634
53805SOL    HW163312   9.386  11.045   3.628
53805SOL    HW263313   9.349  11.187   3.589
53806SOL     OW63314   1.199  13.339   2.233
53806SOL    HW163315   1.153  13.420   2.210
53806SOL    HW263316   1.175  13.323   2.324
53807SOL     OW63317  13.679  12.406  12.757
53807SOL    HW163318  13.720  12.459  12.689
53807SOL    HW263319  13.740  12.334  12.771
53808SOL     OW63320  12.663  13.851   2.858
53808SOL    HW163321  12.692  13.762   2.842
53808SOL    HW263322  12.607  13.845   2.936
53809SOL     OW63323   1.534   5.497   9.333
53809SOL    HW163324   1.595   5.558   9.373
53809SOL    HW263325   1.589   5.437   9.283
53810SOL     OW63326  12.174   0.450   4.198
53810SOL    HW163327  12.266   0.477   4.190
53810SOL    HW263328  12.146   0.485   4.282
53811SOL     OW63329   1.618   4.825   2.654
53811SOL    HW163330   1.647   4.914   2.635
53811SOL    HW263331   1.687   4.788   2.709
53812SOL     OW63332  14.416  14.031  11.712
53812SOL    HW163333  14.502  13.995  11.731
53812SOL    HW263334  14.361  14.004  11.785
53813SOL     OW63335   1.444  10.193  11.071
53813SOL    HW163336   1.506  10.134  11.029
53813SOL    HW263337   1.360  10.171  11.030
53814SOL     OW63338   5.174   3.398   6.314
53814SOL    HW163339   5.212   3.441   6.390
53814SOL    HW263340   5.188   3.459   6.242
53815SOL     OW63341   8.517  11.179   3.364
53815SOL    HW163342   8.450  11.121   3.328
53815SOL    HW263343   8.555  11.130   3.437
53816SOL     OW63344   5.953   2.767   1.520
53816SOL    HW163345   6.047   2.777   1.537
53816SOL    HW263346   5.911   2.789   1.603
53817SOL     OW63347   2.514   8.587   4.058
53817SOL    HW163348   2.597   8.540   4.053
53817SOL    HW263349   2.470   8.548   4.134
53818SOL     OW63350   1.941  13.669  13.463
53818SOL    HW163351   1.926  13.644  13.554
53818SOL    HW263352   1.981  13.592  13.422
53819SOL     OW63353  12.773   2.382  12.902
53819SOL    HW163354  12.724   2.358  12.980
53819SOL    HW263355  12.708   2.388  12.832
53820SOL     OW63356  11.029   2.601   2.016
53820SOL    HW163357  10.979   2.521   2.033
53820SOL    HW263358  10.969   2.672   2.036
53821SOL     OW63359  12.985   4.702   1.538
53821SOL    HW163360  12.991   4.609   1.561
53821SOL    HW263361  12.892   4.723   1.545
53822SOL     OW63362  14.348   9.139   9.354
53822SOL    HW163363  14.326   9.050   9.379
53822SOL    HW263364  14.376   9.181   9.435
53823SOL     OW63365   5.525  12.400   1.251
53823SOL    HW163366   5.603  12.387   1.305
53823SOL    HW263367   5.559  12.428   1.166
53824SOL     OW63368   1.940   8.962   0.016
53824SOL    HW163369   1.862   8.908   0.022
53824SOL    HW263370   1.966   8.977   0.107
53825SOL     OW63371   4.090  10.665  10.763
53825SOL    HW163372   4.109  10.758  10.755
53825SOL    HW263373   3.997  10.658  10.745
53826SOL     OW63374   7.486   8.616   1.836
53826SOL    HW163375   7.497   8.653   1.748
53826SOL    HW263376   7.404   8.655   1.868
53827SOL     OW63377  12.998   9.418  14.262
53827SOL    HW163378  12.928   9.356  14.243
53827SOL    HW263379  12.980   9.493  14.204
53828SOL     OW63380   0.331   1.243   9.082
53828SOL    HW163381   0.377   1.315   9.125
53828SOL    HW263382   0.300   1.280   9.000
53829SOL     OW63383   3.168   2.247   8.230
53829SOL    HW163384   3.230   2.222   8.161
53829SOL    HW263385   3.166   2.172   8.289
53830SOL     OW63386  12.563  13.598  10.597
53830SOL    HW163387  12.500  13.546  10.648
53830SOL    HW263388  12.508  13.646  10.535
53831SOL     OW63389  13.365   4.393  14.785
53831SOL    HW163390  13.278   4.433  14.788
53831SOL    HW263391  13.348   4.299  14.773
53832SOL     OW63392   9.518  11.593   3.511
53832SOL    HW163393   9.443  11.650   3.496
53832SOL    HW263394   9.555  11.623   3.594
53833SOL     OW63395   9.100  10.046  14.307
53833SOL    HW163396   9.117   9.952  14.302
53833SOL    HW263397   9.146  10.074  14.386
53834SOL     OW63398   4.564   9.195  12.698
53834SOL    HW163399   4.583   9.219  12.788
53834SOL    HW263400   4.546   9.278  12.654
53835SOL     OW63401   6.249   0.667   1.668
53835SOL    HW163402   6.278   0.757   1.651
53835SOL    HW263403   6.250   0.625   1.582
53836SOL     OW63404   9.212   5.886   7.412
53836SOL    HW163405   9.136   5.847   7.368
53836SOL    HW263406   9.226   5.831   7.489
53837SOL     OW63407  11.588   6.829   4.380
53837SOL    HW163408  11.591   6.741   4.418
53837SOL    HW263409  11.671   6.838   4.333
53838SOL     OW63410   8.461   7.817   2.182
53838SOL    HW163411   8.412   7.851   2.256
53838SOL    HW263412   8.408   7.840   2.105
53839SOL     OW63413  12.489   8.467   4.683
53839SOL    HW163414  12.427   8.395   4.671
53839SOL    HW263415  12.435   8.542   4.707
53840SOL     OW63416  12.736  11.529   1.117
53840SOL    HW163417  12.818  11.487   1.143
53840SOL    HW263418  12.740  11.531   1.021
53841SOL     OW63419  11.912   6.801  12.876
53841SOL    HW163420  11.843   6.777  12.938
53841SOL    HW263421  11.989   6.754  12.906
53842SOL     OW63422   4.781  10.188  10.374
53842SOL    HW163423   4.775  10.279  10.403
53842SOL    HW263424   4.697  10.171  10.330
53843SOL     OW63425  11.275   9.958   1.225
53843SOL    HW163426  11.290   9.868   1.196
53843SOL    HW263427  11.307   9.960   1.315
53844SOL     OW63428  13.979   7.997  14.028
53844SOL    HW163429  13.993   8.014  13.935
53844SOL    HW263430  14.066   7.974  14.062
53845SOL     OW63431   3.199  14.111  13.470
53845SOL    HW163432   3.234  14.195  13.441
53845SOL    HW263433   3.273  14.050  13.463
53846SOL     OW63434  11.654   8.323   7.988
53846SOL    HW163435  11.571   8.295   8.026
53846SOL    HW263436  11.688   8.244   7.945
53847SOL     OW63437  13.813   3.130   1.798
53847SOL    HW163438  13.837   3.165   1.883
53847SOL    HW263439  13.814   3.035   1.810
53848SOL     OW63440   9.957   8.689   9.865
53848SOL    HW163441   9.878   8.724   9.824
53848SOL    HW263442   9.955   8.595   9.844
53849SOL     OW63443   1.085   4.968  11.567
53849SOL    HW163444   1.072   4.969  11.472
53849SOL    HW263445   1.112   5.058  11.588
53850SOL     OW63446  12.476   9.821   1.095
53850SOL    HW163447  12.450   9.749   1.036
53850SOL    HW263448  12.432   9.800   1.178
53851SOL     OW63449   4.095   5.252   9.212
53851SOL    HW163450   4.177   5.297   9.234
53851SOL    HW263451   4.027   5.312   9.242
53852SOL     OW63452   5.930   9.007   7.357
53852SOL    HW163453   5.960   9.094   7.330
53852SOL    HW263454   5.838   9.020   7.379
53853SOL     OW63455   5.687  14.654   9.178
53853SOL    HW163456   5.622  14.607   9.126
53853SOL    HW263457   5.676  14.619   9.267
53854SOL     OW63458   3.909   9.849   8.720
53854SOL    HW163459   3.848   9.847   8.793
53854SOL    HW263460   3.983   9.902   8.751
53855SOL     OW63461   5.466   2.230  12.549
53855SOL    HW163462   5.431   2.192  12.630
53855SOL    HW263463   5.397   2.286  12.516
53856SOL     OW63464  13.323   2.265  10.776
53856SOL    HW163465  13.403   2.312  10.752
53856SOL    HW263466  13.332   2.251  10.870
53857SOL     OW63467   1.241  14.587   1.709
53857SOL    HW163468   1.249  14.601   1.614
53857SOL    HW263469   1.149  14.609   1.728
53858SOL     OW63470  12.048  11.454   8.063
53858SOL    HW163471  12.138  11.475   8.038
53858SOL    HW263472  12.019  11.529   8.114
53859SOL     OW63473   6.319   5.097  13.008
53859SOL    HW163474   6.390   5.155  13.035
53859SOL    HW263475   6.348   5.062  12.924
53860SOL     OW63476   0.522   4.862   9.032
53860SOL    HW163477   0.541   4.932   9.094
53860SOL    HW263478   0.609   4.831   9.004
53861SOL     OW63479   6.381   4.693   1.634
53861SOL    HW163480   6.432   4.767   1.601
53861SOL    HW263481   6.446   4.639   1.680
53862SOL     OW63482   5.738   6.912  12.457
53862SOL    HW163483   5.811   6.853  12.474
53862SOL    HW263484   5.779   6.999  12.453
53863SOL     OW63485   2.108  12.636   6.648
53863SOL    HW163486   2.048  12.643   6.575
53863SOL    HW263487   2.173  12.572   6.620
53864SOL     OW63488  12.545   8.689  10.721
53864SOL    HW163489  12.609   8.619  10.712
53864SOL    HW263490  12.520   8.686  10.814
53865SOL     OW63491   9.859   6.097   0.547
53865SOL    HW163492   9.947   6.080   0.513
53865SOL    HW263493   9.833   6.016   0.591
53866SOL     OW63494  13.199   0.055  13.166
53866SOL    HW163495  13.255  14.868  13.119
53866SOL    HW263496  13.204   0.136  13.115
53867SOL     OW63497   7.953  12.353   6.337
53867SOL    HW163498   8.019  12.421   6.349
53867SOL    HW263499   7.975  12.287   6.402
53868SOL     OW63500  11.034  12.906   7.288
53868SOL    HW163501  11.059  12.994   7.316
53868SOL    HW263502  11.116  12.863   7.263
53869SOL     OW63503   9.098   7.855   1.442
53869SOL    HW163504   9.003   7.841   1.446
53869SOL    HW263505   9.136   7.772   1.470
53870SOL     OW63506   5.830   4.626   6.523
53870SOL    HW163507   5.811   4.719   6.540
53870SOL    HW263508   5.919   4.626   6.487
53871SOL     OW63509   1.178   1.736  11.593
53871SOL    HW163510   1.150   1.646  11.579
53871SOL    HW263511   1.272   1.731  11.609
53872SOL     OW63512   1.501  12.321   0.139
53872SOL    HW163513   1.473  12.407   0.109
53872SOL    HW263514   1.571  12.295   0.079
53873SOL     OW63515   1.343  14.820  11.028
53873SOL    HW163516   1.263  14.799  11.076
53873SOL    HW263517   1.372   0.028  11.065
53874SOL     OW63518  14.861   5.072   6.605
53874SOL    HW163519  14.792   5.083   6.669
53874SOL    HW263520  14.862   5.154   6.556
53875SOL     OW63521  13.655   5.547   3.628
53875SOL    HW163522  13.708   5.487   3.681
53875SOL    HW263523  13.612   5.603   3.692
53876SOL     OW63524   8.477  11.864   6.883
53876SOL    HW163525   8.391  11.902   6.867
53876SOL    HW263526   8.465  11.811   6.962
53877SOL     OW63527   7.649   3.767   7.550
53877SOL    HW163528   7.627   3.850   7.508
53877SOL    HW263529   7.615   3.776   7.639
53878SOL     OW63530   5.789  10.977  12.299
53878SOL    HW163531   5.696  10.959  12.311
53878SOL    HW263532   5.817  11.015  12.383
53879SOL     OW63533   4.772  10.323   9.677
53879SOL    HW163534   4.831  10.340   9.750
53879SOL    HW263535   4.685  10.338   9.712
53880SOL     OW63536  14.509   0.367  14.804
53880SOL    HW163537  14.559   0.292  14.837
53880SOL    HW263538  14.418   0.345  14.822
53881SOL     OW63539  10.542   7.774  10.121
53881SOL    HW163540  10.556   7.836  10.193
53881SOL    HW263541  10.458   7.799  10.084
53882SOL     OW63542   0.068   0.311   4.577
53882SOL    HW163543  14.857   0.312   4.536
53882SOL    HW263544   0.127   0.344   4.510
53883SOL     OW63545  13.085  13.694  10.476
53883SOL    HW163546  12.994  13.693  10.506
53883SOL    HW263547  13.094  13.616  10.422
53884SOL     OW63548  12.550   0.381  13.986
53884SOL    HW163549  12.551   0.452  14.051
53884SOL    HW263550  12.630   0.331  14.005
53885SOL     OW63551  11.328  12.054   9.316
53885SOL    HW163552  11.296  11.983   9.261
53885SOL    HW263553  11.250  12.084   9.364
53886SOL     OW63554   9.233   0.361  12.578
53886SOL    HW163555   9.227   0.305  12.655
53886SOL    HW263556   9.206   0.305  12.505
53887SOL     OW63557  11.949  12.917  10.057
53887SOL    HW163558  12.039  12.929  10.027
53887SOL    HW263559  11.906  12.871   9.985
53888SOL     OW63560   9.549   2.175  13.957
53888SOL    HW163561   9.632   2.190  14.003
53888SOL    HW263562   9.489   2.241  13.992
53889SOL     OW63563   6.277  11.950  14.088
53889SOL    HW163564   6.219  12.024  14.069
53889SOL    HW263565   6.318  11.972  14.172
53890SOL     OW63566   5.977  10.529   3.415
53890SOL    HW163567   6.070  10.520   3.394
53890SOL    HW263568   5.940  10.575   3.340
53891SOL     OW63569   2.588   3.012   2.654
53891SOL    HW163570   2.613   2.997   2.563
53891SOL    HW263571   2.671   3.013   2.702
53892SOL     OW63572  13.851   2.441   7.088
53892SOL    HW163573  13.867   2.528   7.052
53892SOL    HW263574  13.922   2.428   7.151
53893SOL     OW63575  12.787   7.007  14.040
53893SOL    HW163576  12.844   6.974  14.109
53893SOL    HW263577  12.714   7.048  14.086
53894SOL     OW63578   1.963   1.543  12.587
53894SOL    HW163579   1.885   1.510  12.542
53894SOL    HW263580   1.954   1.511  12.677
53895SOL     OW63581  13.272   8.596   2.464
53895SOL    HW163582  13.330   8.589   2.388
53895SOL    HW263583  13.184   8.588   2.429
53896SOL     OW63584   3.775   1.481   5.489
53896SOL    HW163585   3.863   1.460   5.519
53896SOL    HW263586   3.749   1.556   5.543
53897SOL     OW63587   0.601  11.778   9.527
53897SOL    HW163588   0.521  11.829   9.517
53897SOL    HW263589   0.670  11.832   9.488
53898SOL     OW63590  13.939   8.197   9.771
53898SOL    HW163591  13.903   8.143   9.842
53898SOL    HW263592  13.981   8.270   9.816
53899SOL     OW63593   2.394   1.827   8.213
53899SOL    HW163594   2.399   1.731   8.216
53899SOL    HW263595   2.470   1.856   8.262
53900SOL     OW63596   4.831   9.532  14.494
53900SOL    HW163597   4.852   9.623  14.514
53900SOL    HW263598   4.913   9.496  14.459
53901SOL     OW63599  14.422   0.078   4.527
53901SOL    HW163600  14.491   0.013   4.507
53901SOL    HW263601  14.346   0.026   4.550
53902SOL     OW63602  13.551   8.054   3.446
53902SOL    HW163603  13.582   7.995   3.514
53902SOL    HW263604  13.630   8.096   3.412
53903SOL     OW63605  11.184  14.599   3.869
53903SOL    HW163606  11.260  14.542   3.879
53903SOL    HW263607  11.130  14.555   3.802
53904SOL     OW63608   5.511   7.540   7.073
53904SOL    HW163609   5.597   7.516   7.108
53904SOL    HW263610   5.485   7.617   7.125
53905SOL     OW63611   8.198   5.605   1.892
53905SOL    HW163612   8.129   5.563   1.841
53905SOL    HW263613   8.196   5.560   1.976
53906SOL     OW63614  13.566  10.024   8.624
53906SOL    HW163615  13.603   9.944   8.587
53906SOL    HW263616  13.545  10.078   8.548
53907SOL     OW63617  12.439   3.099   0.998
53907SOL    HW163618  12.472   3.161   1.063
53907SOL    HW263619  12.367   3.054   1.043
53908SOL     OW63620  13.312   1.016   3.099
53908SOL    HW163621  13.284   0.980   3.015
53908SOL    HW263622  13.231   1.023   3.150
53909SOL     OW63623  10.791   8.632  12.745
53909SOL    HW163624  10.720   8.571  12.764
53909SOL    HW263625  10.829   8.601  12.663
53910SOL     OW63626  10.892   3.757  12.831
53910SOL    HW163627  10.971   3.791  12.873
53910SOL    HW263628  10.868   3.681  12.884
53911SOL     OW63629   8.702   6.810  11.854
53911SOL    HW163630   8.651   6.878  11.812
53911SOL    HW263631   8.650   6.730  11.843
53912SOL     OW63632  12.357   5.028   8.172
53912SOL    HW163633  12.288   5.016   8.238
53912SOL    HW263634  12.413   4.952   8.182
53913SOL     OW63635   1.905  14.322  10.009
53913SOL    HW163636   1.964  14.338  10.083
53913SOL    HW263637   1.956  14.344   9.932
53914SOL     OW63638  11.381  12.404  12.684
53914SOL    HW163639  11.463  12.447  12.658
53914SOL    HW263640  11.356  12.448  12.765
53915SOL     OW63641   6.611   6.016   9.626
53915SOL    HW163642   6.685   5.965   9.593
53915SOL    HW263643   6.622   6.016   9.721
53916SOL     OW63644   1.262   0.711  13.334
53916SOL    HW163645   1.259   0.763  13.414
53916SOL    HW263646   1.232   0.770  13.265
53917SOL     OW63647  12.501  13.802  10.035
53917SOL    HW163648  12.583  13.840  10.005
53917SOL    HW263649  12.433  13.855   9.993
53918SOL     OW63650   8.880   4.514   2.794
53918SOL    HW163651   8.896   4.500   2.887
53918SOL    HW263652   8.827   4.438   2.768
53919SOL     OW63653  12.076   2.728  11.331
53919SOL    HW163654  12.139   2.658  11.312
53919SOL    HW263655  11.999   2.683  11.363
53920SOL     OW63656   3.804  11.496  12.690
53920SOL    HW163657   3.860  11.476  12.765
53920SOL    HW263658   3.716  11.468  12.716
53921SOL     OW63659  10.875   1.243  10.188
53921SOL    HW163660  10.842   1.285  10.108
53921SOL    HW263661  10.809   1.264  10.255
53922SOL     OW63662  13.642   8.715   6.484
53922SOL    HW163663  13.696   8.673   6.417
53922SOL    HW263664  13.553   8.688   6.464
53923SOL     OW63665  11.770   0.122  12.129
53923SOL    HW163666  11.838   0.186  12.144
53923SOL    HW263667  11.701   0.170  12.084
53924SOL     OW63668   0.423  11.484   8.612
53924SOL    HW163669   0.506  11.461   8.653
53924SOL    HW263670   0.448  11.538   8.536
53925SOL     OW63671  14.062   9.894   8.343
53925SOL    HW163672  14.000   9.966   8.346
53925SOL    HW263673  14.061   9.865   8.251
53926SOL     OW63674   3.339   8.111   7.705
53926SOL    HW163675   3.423   8.120   7.659
53926SOL    HW263676   3.330   8.192   7.756
53927SOL     OW63677   9.800  14.716   4.856
53927SOL    HW163678   9.722  14.671   4.890
53927SOL    HW263679   9.859  14.721   4.931
53928SOL     OW63680  13.183   2.762   4.158
53928SOL    HW163681  13.183   2.771   4.062
53928SOL    HW263682  13.133   2.682   4.174
53929SOL     OW63683   6.295   9.326  13.466
53929SOL    HW163684   6.293   9.347  13.560
53929SOL    HW263685   6.386   9.302  13.449
53930SOL     OW63686   3.892   6.734   1.509
53930SOL    HW163687   3.964   6.721   1.447
53930SOL    HW263688   3.851   6.647   1.517
53931SOL     OW63689   0.576   1.810   0.057
53931SOL    HW163690   0.497   1.848   0.096
53931SOL    HW263691   0.587   1.857  14.850
53932SOL     OW63692   0.394  14.463   6.564
53932SOL    HW163693   0.459  14.505   6.621
53932SOL    HW263694   0.311  14.505   6.589
53933SOL     OW63695  14.421   9.856  14.542
53933SOL    HW163696  14.418   9.938  14.493
53933SOL    HW263697  14.505   9.817  14.519
53934SOL     OW63698   6.489  13.885  12.842
53934SOL    HW163699   6.394  13.895  12.848
53934SOL    HW263700   6.523  13.936  12.915
53935SOL     OW63701   5.587   1.006   3.855
53935SOL    HW163702   5.562   0.963   3.938
53935SOL    HW263703   5.626   0.935   3.803
53936SOL     OW63704   4.067   0.274   6.440
53936SOL    HW163705   4.009   0.280   6.363
53936SOL    HW263706   4.133   0.341   6.425
53937SOL     OW63707  11.845   1.800   7.950
53937SOL    HW163708  11.839   1.720   7.897
53937SOL    HW263709  11.799   1.778   8.032
53938SOL     OW63710   6.283  12.191  11.696
53938SOL    HW163711   6.375  12.169  11.681
53938SOL    HW263712   6.271  12.277  11.655
53939SOL     OW63713   0.717   6.331  10.676
53939SOL    HW163714   0.658   6.404  10.657
53939SOL    HW263715   0.675   6.284  10.747
53940SOL     OW63716   7.356  12.714  12.835
53940SOL    HW163717   7.326  12.762  12.758
53940SOL    HW263718   7.358  12.779  12.905
53941SOL     OW63719  12.833   8.031   5.574
53941SOL    HW163720  12.868   7.943   5.583
53941SOL    HW263721  12.858   8.058   5.486
53942SOL     OW63722   9.644   0.562   8.178
53942SOL    HW163723   9.614   0.602   8.260
53942SOL    HW263724   9.575   0.583   8.116
53943SOL     OW63725   0.603   3.500   7.533
53943SOL    HW163726   0.618   3.583   7.487
53943SOL    HW263727   0.683   3.488   7.585
53944SOL     OW63728   5.364  12.848  13.515
53944SOL    HW163729   5.313  12.870  13.437
53944SOL    HW263730   5.300  12.846  13.586
53945SOL     OW63731   8.151  13.963  14.547
53945SOL    HW163732   8.215  14.016  14.500
53945SOL    HW263733   8.201  13.924  14.619
53946SOL     OW63734   3.857  11.768   2.183
53946SOL    HW163735   3.921  11.794   2.249
53946SOL    HW263736   3.772  11.781   2.226
53947SOL     OW63737  10.881   5.067   6.283
53947SOL    HW163738  10.899   4.989   6.231
53947SOL    HW263739  10.812   5.113   6.235
53948SOL     OW63740   4.987   7.333   8.015
53948SOL    HW163741   4.938   7.387   8.077
53948SOL    HW263742   5.019   7.260   8.067
53949SOL     OW63743   5.353  10.926   6.368
53949SOL    HW163744   5.350  10.958   6.278
53949SOL    HW263745   5.334  10.832   6.361
53950SOL     OW63746   4.321   2.787   8.232
53950SOL    HW163747   4.320   2.847   8.306
53950SOL    HW263748   4.405   2.803   8.188
53951SOL     OW63749  11.199  11.119   6.624
53951SOL    HW163750  11.157  11.034   6.636
53951SOL    HW263751  11.127  11.179   6.607
53952SOL     OW63752   0.326   6.044   9.882
53952SOL    HW163753   0.344   6.094   9.802
53952SOL    HW263754   0.332   6.109   9.952
53953SOL     OW63755   8.996  11.755   3.607
53953SOL    HW163756   9.063  11.725   3.545
53953SOL    HW263757   8.986  11.848   3.589
53954SOL     OW63758   3.094   3.851   1.374
53954SOL    HW163759   3.012   3.811   1.344
53954SOL    HW263760   3.126   3.899   1.297
53955SOL     OW63761  14.152   6.803   7.913
53955SOL    HW163762  14.158   6.898   7.906
53955SOL    HW263763  14.227   6.778   7.966
53956SOL     OW63764   7.126   3.141   1.291
53956SOL    HW163765   7.035   3.168   1.305
53956SOL    HW263766   7.177   3.197   1.349
53957SOL     OW63767   5.457  14.734   6.701
53957SOL    HW163768   5.391  14.803   6.704
53957SOL    HW263769   5.532  14.771   6.747
53958SOL     OW63770  10.298  12.842   6.496
53958SOL    HW163771  10.233  12.773   6.483
53958SOL    HW263772  10.296  12.892   6.415
53959SOL     OW63773  14.300   9.095  11.543
53959SOL    HW163774  14.289   9.012  11.496
53959SOL    HW263775  14.211   9.124  11.561
53960SOL     OW63776  10.071  13.444   3.215
53960SOL    HW163777   9.980  13.461   3.192
53960SOL    HW263778  10.088  13.502   3.289
53961SOL     OW63779  13.308  10.689   4.578
53961SOL    HW163780  13.326  10.668   4.670
53961SOL    HW263781  13.213  10.683   4.570
53962SOL     OW63782   2.348  10.184  13.860
53962SOL    HW163783   2.327  10.273  13.890
53962SOL    HW263784   2.368  10.136  13.940
53963SOL     OW63785   6.046   1.510   6.218
53963SOL    HW163786   5.974   1.449   6.203
53963SOL    HW263787   6.052   1.560   6.137
53964SOL     OW63788   8.523  14.488   9.427
53964SOL    HW163789   8.508  14.511   9.519
53964SOL    HW263790   8.595  14.425   9.430
53965SOL     OW63791   2.793  13.859   4.407
53965SOL    HW163792   2.843  13.938   4.389
53965SOL    HW263793   2.701  13.886   4.398
53966SOL     OW63794  10.188  10.550  13.578
53966SOL    HW163795  10.255  10.605  13.619
53966SOL    HW263796  10.158  10.492  13.648
53967SOL     OW63797   3.137   6.136   6.162
53967SOL    HW163798   3.050   6.140   6.122
53967SOL    HW263799   3.192   6.192   6.108
53968SOL     OW63800   6.313  14.785  13.882
53968SOL    HW163801   6.394  14.829  13.905
53968SOL    HW263802   6.312  14.706  13.937
53969SOL     OW63803  14.498  10.898   3.736
53969SOL    HW163804  14.468  10.987   3.753
53969SOL    HW263805  14.471  10.847   3.813
53970SOL     OW63806   2.803  13.078   4.202
53970SOL    HW163807   2.710  13.072   4.179
53970SOL    HW263808   2.842  12.998   4.164
53971SOL     OW63809  13.255   8.220  14.772
53971SOL    HW163810  13.286   8.213  14.682
53971SOL    HW263811  13.165   8.185  14.770
53972SOL     OW63812   9.620  10.995   2.009
53972SOL    HW163813   9.627  11.078   2.057
53972SOL    HW263814   9.554  11.013   1.941
53973SOL     OW63815  11.685  11.203   4.617
53973SOL    HW163816  11.657  11.181   4.528
53973SOL    HW263817  11.623  11.270   4.646
53974SOL     OW63818   2.541  10.859   7.662
53974SOL    HW163819   2.476  10.804   7.706
53974SOL    HW263820   2.557  10.931   7.723
53975SOL     OW63821   0.707  13.121   3.865
53975SOL    HW163822   0.643  13.191   3.873
53975SOL    HW263823   0.729  13.098   3.955
53976SOL     OW63824   4.651   3.152   8.851
53976SOL    HW163825   4.660   3.214   8.778
53976SOL    HW263826   4.738   3.148   8.890
53977SOL     OW63827   1.926   0.807   6.262
53977SOL    HW163828   1.887   0.879   6.312
53977SOL    HW263829   1.890   0.816   6.174
53978SOL     OW63830  11.033   1.903   8.792
53978SOL    HW163831  11.038   1.818   8.835
53978SOL    HW263832  11.026   1.882   8.698
53979SOL     OW63833   7.796   5.186  11.369
53979SOL    HW163834   7.775   5.109  11.316
53979SOL    HW263835   7.813   5.152  11.457
53980SOL     OW63836   1.777   6.260  13.877
53980SOL    HW163837   1.705   6.207  13.843
53980SOL    HW263838   1.833   6.277  13.801
53981SOL     OW63839   2.484  11.099   4.987
53981SOL    HW163840   2.510  11.148   5.065
53981SOL    HW263841   2.480  11.165   4.917
53982SOL     OW63842   2.641   5.228  13.944
53982SOL    HW163843   2.546   5.239  13.954
53982SOL    HW263844   2.674   5.223  14.034
53983SOL     OW63845   5.545   4.180   4.334
53983SOL    HW163846   5.461   4.191   4.379
53983SOL    HW263847   5.610   4.216   4.394
53984SOL     OW63848  12.278  14.761   6.176
53984SOL    HW163849  12.269  14.817   6.099
53984SOL    HW263850  12.244  14.676   6.148
53985SOL     OW63851   2.565  13.723  13.820
53985SOL    HW163852   2.511  13.710  13.897
53985SOL    HW263853   2.629  13.790  13.846
53986SOL     OW63854   1.987  14.755   7.979
53986SOL    HW163855   2.061  14.753   8.040
53986SOL    HW263856   1.977  14.664   7.952
53987SOL     OW63857   7.401   2.533   5.360
53987SOL    HW163858   7.404   2.458   5.300
53987SOL    HW263859   7.492   2.546   5.387
53988SOL     OW63860   5.615   6.260   1.055
53988SOL    HW163861   5.677   6.278   1.126
53988SOL    HW263862   5.656   6.190   1.004
53989SOL     OW63863   8.488  12.221   1.042
53989SOL    HW163864   8.412  12.269   1.011
53989SOL    HW263865   8.562  12.260   0.997
53990SOL     OW63866   8.763   0.532  11.629
53990SOL    HW163867   8.697   0.600  11.638
53990SOL    HW263868   8.843   0.579  11.606
53991SOL     OW63869   7.247   3.617   4.936
53991SOL    HW163870   7.196   3.538   4.951
53991SOL    HW263871   7.334   3.597   4.972
53992SOL     OW63872   8.217   6.033   4.751
53992SOL    HW163873   8.174   5.998   4.672
53992SOL    HW263874   8.240   5.955   4.801
53993SOL     OW63875   0.847   2.593   7.749
53993SOL    HW163876   0.848   2.644   7.830
53993SOL    HW263877   0.755   2.578   7.730
53994SOL     OW63878   9.893   8.032   1.146
53994SOL    HW163879   9.882   8.102   1.082
53994SOL    HW263880   9.824   8.048   1.211
53995SOL     OW63881   4.333   0.737   6.855
53995SOL    HW163882   4.407   0.758   6.912
53995SOL    HW263883   4.357   0.775   6.770
53996SOL     OW63884   8.285   2.184   7.224
53996SOL    HW163885   8.214   2.121   7.238
53996SOL    HW263886   8.298   2.186   7.130
53997SOL     OW63887   6.634   6.967   1.350
53997SOL    HW163888   6.547   6.938   1.375
53997SOL    HW263889   6.679   6.981   1.433
53998SOL     OW63890  14.846   0.375   3.928
53998SOL    HW163891  14.775   0.311   3.923
53998SOL    HW263892  14.803   0.458   3.948
53999SOL     OW63893   3.483   0.283   5.355
53999SOL    HW163894   3.476   0.338   5.433
53999SOL    HW263895   3.534   0.336   5.293
54000SOL     OW63896   0.396  11.319  11.321
54000SOL    HW163897   0.411  11.272  11.240
54000SOL    HW263898   0.460  11.283  11.383
54001SOL     OW63899   2.837   3.923  10.229
54001SOL    HW163900   2.785   3.847  10.255
54001SOL    HW263901   2.777   3.977  10.178
54002SOL     OW63902  11.222   4.668  12.813
54002SOL    HW163903  11.162   4.687  12.885
54002SOL    HW263904  11.166   4.643  12.740
54003SOL     OW63905  13.406  11.283  14.382
54003SOL    HW163906  13.467  11.352  14.407
54003SOL    HW263907  13.436  11.255  14.295
54004SOL     OW63908  12.440  13.856  11.680
54004SOL    HW163909  12.391  13.937  11.665
54004SOL    HW263910  12.402  13.793  11.618
54005SOL     OW63911   1.849   2.651   8.943
54005SOL    HW163912   1.778   2.632   8.882
54005SOL    HW263913   1.896   2.568   8.953
54006SOL     OW63914   3.398  14.266  12.902
54006SOL    HW163915   3.365  14.201  12.840
54006SOL    HW263916   3.446  14.215  12.967
54007SOL     OW63917   3.757  10.649  13.131
54007SOL    HW163918   3.686  10.641  13.195
54007SOL    HW263919   3.714  10.648  13.046
54008SOL     OW63920   7.019   0.344  11.153
54008SOL    HW163921   6.942   0.295  11.124
54008SOL    HW263922   7.093   0.286  11.137
54009SOL     OW63923  12.300   1.247   7.563
54009SOL    HW163924  12.254   1.224   7.643
54009SOL    HW263925  12.352   1.324   7.586
54010SOL     OW63926  14.134   8.703   3.223
54010SOL    HW163927  14.132   8.692   3.318
54010SOL    HW263928  14.223   8.679   3.198
54011SOL     OW63929  10.631   9.620  11.006
54011SOL    HW163930  10.536   9.618  10.991
54011SOL    HW263931  10.656   9.711  10.988
54012SOL     OW63932   2.997   9.251   5.190
54012SOL    HW163933   2.989   9.341   5.159
54012SOL    HW263934   2.920   9.238   5.245
54013SOL     OW63935   6.905  13.763   5.549
54013SOL    HW163936   6.858  13.786   5.628
54013SOL    HW263937   6.837  13.751   5.483
54014SOL     OW63938   8.563  10.627   7.873
54014SOL    HW163939   8.630  10.561   7.892
54014SOL    HW263940   8.553  10.675   7.954
54015SOL     OW63941  12.816   1.791   3.160
54015SOL    HW163942  12.800   1.875   3.202
54015SOL    HW263943  12.790   1.804   3.069
54016SOL     OW63944  13.480  12.394   3.501
54016SOL    HW163945  13.453  12.309   3.468
54016SOL    HW263946  13.525  12.436   3.428
54017SOL     OW63947   3.105  14.649  10.183
54017SOL    HW163948   3.189  14.607  10.203
54017SOL    HW263949   3.104  14.727  10.238
54018SOL     OW63950  12.510  13.348   6.024
54018SOL    HW163951  12.539  13.269   5.979
54018SOL    HW263952  12.467  13.400   5.956
54019SOL     OW63953   6.164  10.094  10.702
54019SOL    HW163954   6.089  10.122  10.754
54019SOL    HW263955   6.238  10.145  10.735
54020SOL     OW63956   0.400   2.134  14.640
54020SOL    HW163957   0.308   2.111  14.626
54020SOL    HW263958   0.447   2.088  14.571
54021SOL     OW63959  12.039   5.028   5.944
54021SOL    HW163960  11.991   4.991   5.870
54021SOL    HW263961  11.979   5.021   6.018
54022SOL     OW63962   1.453   6.768   8.869
54022SOL    HW163963   1.546   6.788   8.874
54022SOL    HW263964   1.441   6.730   8.783
54023SOL     OW63965  12.014   8.501   1.769
54023SOL    HW163966  12.034   8.489   1.862
54023SOL    HW263967  11.918   8.499   1.764
54024SOL     OW63968   4.099  11.646   0.369
54024SOL    HW163969   4.040  11.690   0.430
54024SOL    HW263970   4.082  11.553   0.380
54025SOL     OW63971   3.564  14.046   4.854
54025SOL    HW163972   3.627  14.064   4.784
54025SOL    HW263973   3.612  13.991   4.916
54026SOL     OW63974  12.149  12.312   8.803
54026SOL    HW163975  12.170  12.269   8.720
54026SOL    HW263976  12.234  12.324   8.845
54027SOL     OW63977   4.389   6.137   8.522
54027SOL    HW163978   4.423   6.141   8.612
54027SOL    HW263979   4.358   6.226   8.505
54028SOL     OW63980   9.121   6.272  12.008
54028SOL    HW163981   9.032   6.255  11.977
54028SOL    HW263982   9.177   6.244  11.936
54029SOL     OW63983   1.779  14.098   8.078
54029SOL    HW163984   1.750  14.108   7.987
54029SOL    HW263985   1.757  14.008   8.100
54030SOL     OW63986   9.868   8.203   2.119
54030SOL    HW163987   9.863   8.113   2.151
54030SOL    HW263988   9.962   8.219   2.107
54031SOL     OW63989   5.145   8.817   7.979
54031SOL    HW163990   5.052   8.797   7.982
54031SOL    HW263991   5.188   8.739   8.013
54032SOL     OW63992   2.551   5.106  14.395
54032SOL    HW163993   2.599   5.023  14.397
54032SOL    HW263994   2.603   5.166  14.449
54033SOL     OW63995   3.541   3.230   0.627
54033SOL    HW163996   3.534   3.322   0.651
54033SOL    HW263997   3.555   3.230   0.533
54034SOL     OW63998   0.825   8.594   6.972
54034SOL    HW163999   0.854   8.616   7.061
54034SOL    HW264000   0.730   8.609   6.973
54035SOL     OW64001   9.560  10.828   5.503
54035SOL    HW164002   9.516  10.807   5.421
54035SOL    HW264003   9.577  10.922   5.497
54036SOL     OW64004   2.967   6.346  12.343
54036SOL    HW164005   2.956   6.326  12.250
54036SOL    HW264006   3.059   6.323  12.361
54037SOL     OW64007  11.985   5.527  11.353
54037SOL    HW164008  12.017   5.580  11.279
54037SOL    HW264009  12.057   5.528  11.416
54038SOL     OW64010  11.974   1.805  12.846
54038SOL    HW164011  12.006   1.741  12.781
54038SOL    HW264012  11.996   1.890  12.808
54039SOL     OW64013   9.682  12.138  13.412
54039SOL    HW164014   9.638  12.063  13.372
54039SOL    HW264015   9.775  12.121  13.399
54040SOL     OW64016   5.130  12.099   9.827
54040SOL    HW164017   5.071  12.115   9.753
54040SOL    HW264018   5.072  12.072   9.898
54041SOL     OW64019  13.918   8.387  12.476
54041SOL    HW164020  13.954   8.459  12.424
54041SOL    HW264021  13.869   8.334  12.413
54042SOL     OW64022   8.837  11.371   6.970
54042SOL    HW164023   8.904  11.393   6.905
54042SOL    HW264024   8.879  11.389   7.054
54043SOL     OW64025   9.653  11.403   7.970
54043SOL    HW164026   9.691  11.316   7.957
54043SOL    HW264027   9.567  11.385   8.009
54044SOL     OW64028   7.483   2.864  10.250
54044SOL    HW164029   7.500   2.828  10.337
54044SOL    HW264030   7.473   2.958  10.265
54045SOL     OW64031   7.085   3.529   0.839
54045SOL    HW164032   7.080   3.435   0.819
54045SOL    HW264033   7.178   3.544   0.857
54046SOL     OW64034   6.354   9.320   9.978
54046SOL    HW164035   6.297   9.246   9.998
54046SOL    HW264036   6.306   9.396  10.009
54047SOL     OW64037   2.689   5.937  10.856
54047SOL    HW164038   2.761   5.928  10.919
54047SOL    HW264039   2.640   5.855  10.865
54048SOL     OW64040   7.531   1.500   8.755
54048SOL    HW164041   7.493   1.441   8.821
54048SOL    HW264042   7.624   1.477   8.753
54049SOL     OW64043   8.842   5.408   6.620
54049SOL    HW164044   8.879   5.336   6.672
54049SOL    HW264045   8.765   5.370   6.577
54050SOL     OW64046   2.728   2.314  11.833
54050SOL    HW164047   2.689   2.401  11.822
54050SOL    HW264048   2.767   2.294  11.749
54051SOL     OW64049   1.525   3.545  13.119
54051SOL    HW164050   1.580   3.602  13.172
54051SOL    HW264051   1.587   3.487  13.073
54052SOL     OW64052  12.536   5.338  14.291
54052SOL    HW164053  12.555   5.431  14.303
54052SOL    HW264054  12.621   5.295  14.300
54053SOL     OW64055   6.093   6.809  13.414
54053SOL    HW164056   6.125   6.863  13.486
54053SOL    HW264057   6.030   6.750  13.454
54054SOL     OW64058   1.013   4.527  10.410
54054SOL    HW164059   1.049   4.502  10.495
54054SOL    HW264060   0.930   4.570  10.430
54055SOL     OW64061   3.037  13.732   4.412
54055SOL    HW164062   3.002  13.670   4.347
54055SOL    HW264063   2.960  13.781   4.441
54056SOL     OW64064   8.311  13.560   9.408
54056SOL    HW164065   8.311  13.465   9.418
54056SOL    HW264066   8.266  13.592   9.487
54057SOL     OW64067  13.367   0.547  13.078
54057SOL    HW164068  13.424   0.470  13.074
54057SOL    HW264069  13.426   0.622  13.067
54058SOL     OW64070   5.039  13.939   2.190
54058SOL    HW164071   5.034  13.996   2.113
54058SOL    HW264072   4.948  13.915   2.208
54059SOL     OW64073   0.217   9.628   2.568
54059SOL    HW164074   0.301   9.605   2.528
54059SOL    HW264075   0.174   9.684   2.503
54060SOL     OW64076  10.443   7.969   1.576
54060SOL    HW164077  10.419   8.055   1.609
54060SOL    HW264078  10.436   7.977   1.481
54061SOL     OW64079   0.435   7.559   3.089
54061SOL    HW164080   0.353   7.561   3.038
54061SOL    HW264081   0.485   7.634   3.056
54062SOL     OW64082  14.396   6.908   0.934
54062SOL    HW164083  14.399   6.837   0.998
54062SOL    HW264084  14.442   6.874   0.857
54063SOL     OW64085   2.079   8.755   1.923
54063SOL    HW164086   2.004   8.700   1.898
54063SOL    HW264087   2.139   8.694   1.966
54064SOL     OW64088   0.917   6.065  11.302
54064SOL    HW164089   0.941   6.075  11.394
54064SOL    HW264090   0.998   6.080  11.253
54065SOL     OW64091  11.609   4.336   0.610
54065SOL    HW164092  11.691   4.302   0.646
54065SOL    HW264093  11.596   4.419   0.655
54066SOL     OW64094  11.056   7.872  11.502
54066SOL    HW164095  11.148   7.892  11.518
54066SOL    HW264096  11.047   7.781  11.528
54067SOL     OW64097   2.580  12.611   9.833
54067SOL    HW164098   2.504  12.586   9.780
54067SOL    HW264099   2.542  12.651   9.911
54068SOL     OW64100   1.572  13.267   5.733
54068SOL    HW164101   1.571  13.280   5.638
54068SOL    HW264102   1.499  13.321   5.765
54069SOL     OW64103   5.225   9.834   5.506
54069SOL    HW164104   5.251   9.842   5.598
54069SOL    HW264105   5.223   9.740   5.490
54070SOL     OW64106   3.914   2.245   9.460
54070SOL    HW164107   3.921   2.158   9.497
54070SOL    HW264108   4.000   2.261   9.420
54071SOL     OW64109   1.396  11.941   7.499
54071SOL    HW164110   1.353  12.022   7.472
54071SOL    HW264111   1.336  11.902   7.563
54072SOL     OW64112  11.434   7.102   1.760
54072SOL    HW164113  11.451   7.009   1.744
54072SOL    HW264114  11.506   7.130   1.817
54073SOL     OW64115  10.219  11.807  12.072
54073SOL    HW164116  10.219  11.902  12.085
54073SOL    HW264117  10.142  11.790  12.019
54074SOL     OW64118   1.031   9.621   2.884
54074SOL    HW164119   0.977   9.673   2.943
54074SOL    HW264120   1.086   9.686   2.839
54075SOL     OW64121   8.943   3.088   1.044
54075SOL    HW164122   8.875   3.072   1.109
54075SOL    HW264123   8.939   3.182   1.027
54076SOL     OW64124  10.138   0.673  12.139
54076SOL    HW164125  10.216   0.724  12.119
54076SOL    HW264126  10.153   0.640  12.228
54077SOL     OW64127   4.166   1.683   2.001
54077SOL    HW164128   4.126   1.596   1.999
54077SOL    HW264129   4.174   1.704   2.094
54078SOL     OW64130   6.559   6.281  14.326
54078SOL    HW164131   6.484   6.239  14.284
54078SOL    HW264132   6.559   6.246  14.415
54079SOL     OW64133  14.230   5.159   9.156
54079SOL    HW164134  14.165   5.219   9.192
54079SOL    HW264135  14.304   5.164   9.217
54080SOL     OW64136   3.416   0.649   8.112
54080SOL    HW164137   3.430   0.604   8.195
54080SOL    HW264138   3.415   0.580   8.046
54081SOL     OW64139   0.543  12.428  13.670
54081SOL    HW164140   0.512  12.509  13.629
54081SOL    HW264141   0.603  12.390  13.606
54082SOL     OW64142   9.901   0.951   1.928
54082SOL    HW164143   9.839   1.020   1.905
54082SOL    HW264144   9.850   0.888   1.978
54083SOL     OW64145  14.327   7.373   0.785
54083SOL    HW164146  14.388   7.365   0.859
54083SOL    HW264147  14.254   7.314   0.808
54084SOL     OW64148  14.584  10.346   7.955
54084SOL    HW164149  14.670  10.377   7.926
54084SOL    HW264150  14.561  10.402   8.028
54085SOL     OW64151   4.048   1.229  14.490
54085SOL    HW164152   4.077   1.320  14.499
54085SOL    HW264153   4.121   1.185  14.447
54086SOL     OW64154  14.095   5.434  14.861
54086SOL    HW164155  14.040   5.375   0.038
54086SOL    HW264156  14.158   5.376  14.819
54087SOL     OW64157   0.661  13.379   1.727
54087SOL    HW164158   0.647  13.421   1.812
54087SOL    HW264159   0.583  13.401   1.676
54088SOL     OW64160   0.049   0.113  14.406
54088SOL    HW164161   0.091   0.102  14.491
54088SOL    HW264162  14.837   0.148  14.426
54089SOL     OW64163  12.868   1.986  13.702
54089SOL    HW164164  12.831   1.925  13.638
54089SOL    HW264165  12.906   2.056  13.648
54090SOL     OW64166   7.612  14.022   9.772
54090SOL    HW164167   7.553  13.956   9.808
54090SOL    HW264168   7.560  14.101   9.767
54091SOL     OW64169   2.955   4.895   2.252
54091SOL    HW164170   2.869   4.862   2.226
54091SOL    HW264171   3.008   4.890   2.172
54092SOL     OW64172   0.794   4.682  10.350
54092SOL    HW164173   0.785   4.723  10.264
54092SOL    HW264174   0.753   4.596  10.339
54093SOL     OW64175  11.715   3.200   6.171
54093SOL    HW164176  11.726   3.182   6.078
54093SOL    HW264177  11.798   3.240   6.198
54094SOL     OW64178   3.283   2.455   9.091
54094SOL    HW164179   3.286   2.527   9.028
54094SOL    HW264180   3.269   2.498   9.176
54095SOL     OW64181   1.985  12.939   1.115
54095SOL    HW164182   1.913  12.987   1.155
54095SOL    HW264183   1.997  12.863   1.173
54096SOL     OW64184   8.991   0.679  11.819
54096SOL    HW164185   8.934   0.740  11.865
54096SOL    HW264186   8.969   0.691  11.727
54097SOL     OW64187   0.882   4.658  14.557
54097SOL    HW164188   0.858   4.566  14.563
54097SOL    HW264189   0.799   4.705  14.568
54098SOL     OW64190  14.456   3.516   1.706
54098SOL    HW164191  14.394   3.444   1.695
54098SOL    HW264192  14.509   3.490   1.781
54099SOL     OW64193  11.225  12.782   1.936
54099SOL    HW164194  11.238  12.703   1.884
54099SOL    HW264195  11.130  12.788   1.947
54100SOL     OW64196   6.053  12.803   7.723
54100SOL    HW164197   6.081  12.728   7.775
54100SOL    HW264198   6.066  12.775   7.632
54101SOL     OW64199   0.557  12.056   7.248
54101SOL    HW164200   0.597  12.143   7.249
54101SOL    HW264201   0.616  12.001   7.300
54102SOL     OW64202   8.062  11.254   9.015
54102SOL    HW164203   8.008  11.330   9.033
54102SOL    HW264204   8.098  11.229   9.100
54103SOL     OW64205   9.762   2.126   9.076
54103SOL    HW164206   9.681   2.083   9.103
54103SOL    HW264207   9.747   2.152   8.985
54104SOL     OW64208  12.365   8.495   7.884
54104SOL    HW164209  12.347   8.403   7.906
54104SOL    HW264210  12.442   8.517   7.935
54105SOL     OW64211   3.840   4.834   1.613
54105SOL    HW164212   3.753   4.857   1.645
54105SOL    HW264213   3.853   4.743   1.640
54106SOL     OW64214   2.968  14.070   4.358
54106SOL    HW164215   2.945  14.134   4.424
54106SOL    HW264216   3.063  14.077   4.350
54107SOL     OW64217  14.811   3.723  11.351
54107SOL    HW164218  14.809   3.790  11.283
54107SOL    HW264219  14.804   3.772  11.433
54108SOL     OW64220   6.559   2.960  10.426
54108SOL    HW164221   6.474   2.993  10.395
54108SOL    HW264222   6.537   2.896  10.494
54109SOL     OW64223   8.688   3.557   0.963
54109SOL    HW164224   8.671   3.643   0.925
54109SOL    HW264225   8.759   3.521   0.909
54110SOL     OW64226   4.368   2.313   3.928
54110SOL    HW164227   4.276   2.300   3.903
54110SOL    HW264228   4.384   2.247   3.995
54111SOL     OW64229   2.493   3.188  10.604
54111SOL    HW164230   2.527   3.278  10.602
54111SOL    HW264231   2.556   3.140  10.658
54112SOL     OW64232  11.111  14.274   0.682
54112SOL    HW164233  11.164  14.227   0.617
54112SOL    HW264234  11.046  14.321   0.631
54113SOL     OW64235  14.033   1.144   1.890
54113SOL    HW164236  13.961   1.090   1.923
54113SOL    HW264237  13.991   1.211   1.837
54114SOL     OW64238   1.536   8.880  13.038
54114SOL    HW164239   1.441   8.878  13.033
54114SOL    HW264240   1.556   8.961  13.085
54115SOL     OW64241   1.675  11.626   3.014
54115SOL    HW164242   1.649  11.667   3.097
54115SOL    HW264243   1.696  11.535   3.038
54116SOL     OW64244   4.356  11.331   9.583
54116SOL    HW164245   4.300  11.265   9.542
54116SOL    HW264246   4.364  11.301   9.674
54117SOL     OW64247   6.473   8.075   3.614
54117SOL    HW164248   6.416   8.007   3.578
54117SOL    HW264249   6.500   8.041   3.700
54118SOL     OW64250   6.215   9.878  13.112
54118SOL    HW164251   6.195   9.837  13.197
54118SOL    HW264252   6.266   9.956  13.134
54119SOL     OW64253   9.002   8.056  10.607
54119SOL    HW164254   8.989   7.982  10.547
54119SOL    HW264255   9.000   8.133  10.550
54120SOL     OW64256  14.527   8.186  12.487
54120SOL    HW164257  14.477   8.131  12.548
54120SOL    HW264258  14.551   8.126  12.416
54121SOL     OW64259   9.659  11.372   8.619
54121SOL    HW164260   9.675  11.418   8.536
54121SOL    HW264261   9.672  11.438   8.687
54122SOL     OW64262   7.047   8.689   8.964
54122SOL    HW164263   7.006   8.623   8.909
54122SOL    HW264264   6.977   8.718   9.023
54123SOL     OW64265  14.562   8.588   5.389
54123SOL    HW164266  14.548   8.655   5.322
54123SOL    HW264267  14.478   8.543   5.396
54124SOL     OW64268   9.068   9.620   0.012
54124SOL    HW164269   9.040   9.610  14.796
54124SOL    HW264270   9.009   9.564   0.062
54125SOL     OW64271   2.020  14.737   0.673
54125SOL    HW164272   2.058  14.816   0.712
54125SOL    HW264273   2.034  14.669   0.738
54126SOL     OW64274   7.979   9.277  11.261
54126SOL    HW164275   8.074   9.267  11.258
54126SOL    HW264276   7.953   9.287  11.169
54127SOL     OW64277   9.634  12.001  11.533
54127SOL    HW164278   9.675  12.080  11.498
54127SOL    HW264279   9.688  11.975  11.607
54128SOL     OW64280   0.960   8.027  12.437
54128SOL    HW164281   0.932   8.005  12.526
54128SOL    HW264282   0.987   8.119  12.443
54129SOL     OW64283   8.994   1.987   5.792
54129SOL    HW164284   9.080   1.949   5.809
54129SOL    HW264285   8.977   2.044   5.867
54130SOL     OW64286   7.733  12.746   3.734
54130SOL    HW164287   7.647  12.787   3.730
54130SOL    HW264288   7.789  12.810   3.777
54131SOL     OW64289   8.073  10.556   7.814
54131SOL    HW164290   8.166  10.579   7.805
54131SOL    HW264291   8.041  10.548   7.725
54132SOL     OW64292   9.783   1.293  10.058
54132SOL    HW164293   9.713   1.353  10.030
54132SOL    HW264294   9.774   1.289  10.154
54133SOL     OW64295   7.563   9.116   0.792
54133SOL    HW164296   7.570   9.168   0.711
54133SOL    HW264297   7.634   9.149   0.847
54134SOL     OW64298  10.443   4.357  13.225
54134SOL    HW164299  10.358   4.319  13.201
54134SOL    HW264300  10.488   4.370  13.142
54135SOL     OW64301  10.900   3.725  11.674
54135SOL    HW164302  10.832   3.792  11.661
54135SOL    HW264303  10.965   3.744  11.607
54136SOL     OW64304  11.532  13.590  10.421
54136SOL    HW164305  11.565  13.545  10.499
54136SOL    HW264306  11.591  13.563  10.351
54137SOL     OW64307  11.735   7.826   7.143
54137SOL    HW164308  11.819   7.796   7.110
54137SOL    HW264309  11.746   7.833   7.238
54138SOL     OW64310  14.108   0.798   1.586
54138SOL    HW164311  14.115   0.782   1.492
54138SOL    HW264312  14.043   0.868   1.593
54139SOL     OW64313   4.181  14.838   9.233
54139SOL    HW164314   4.258  14.820   9.287
54139SOL    HW264315   4.188  14.776   9.160
54140SOL     OW64316   5.489  13.242  10.580
54140SOL    HW164317   5.541  13.316  10.609
54140SOL    HW264318   5.404  13.279  10.558
54141SOL     OW64319  11.043   4.830  11.072
54141SOL    HW164320  11.126   4.878  11.066
54141SOL    HW264321  11.008   4.831  10.982
54142SOL     OW64322   5.160   6.827   3.442
54142SOL    HW164323   5.200   6.911   3.417
54142SOL    HW264324   5.235   6.769   3.457
54143SOL     OW64325  11.740   4.931   4.848
54143SOL    HW164326  11.702   4.913   4.933
54143SOL    HW264327  11.710   5.019   4.826
54144SOL     OW64328  14.837   2.470   1.777
54144SOL    HW164329   0.049   2.444   1.808
54144SOL    HW264330  14.855   2.533   1.707
54145SOL     OW64331   8.629   6.085   4.738
54145SOL    HW164332   8.563   6.093   4.807
54145SOL    HW264333   8.591   6.130   4.663
54146SOL     OW64334  13.650  12.319  12.033
54146SOL    HW164335  13.691  12.330  11.947
54146SOL    HW264336  13.705  12.371  12.092
54147SOL     OW64337   0.035   8.134  13.333
54147SOL    HW164338  14.822   8.141  13.370
54147SOL    HW264339   0.040   8.044  13.301
54148SOL     OW64340   1.350   4.965  12.413
54148SOL    HW164341   1.264   5.007  12.409
54148SOL    HW264342   1.330   4.872  12.428
54149SOL     OW64343   2.641  14.825   2.554
54149SOL    HW164344   2.682  14.739   2.562
54149SOL    HW264345   2.632  14.856   2.644
54150SOL     OW64346   9.800   5.603  13.980
54150SOL    HW164347   9.836   5.601  14.068
54150SOL    HW264348   9.706   5.586  13.992
54151SOL     OW64349   0.806   2.311   7.860
54151SOL    HW164350   0.856   2.390   7.876
54151SOL    HW264351   0.845   2.273   7.781
54152SOL     OW64352  14.840  11.705   5.937
54152SOL    HW164353  14.859  11.768   6.006
54152SOL    HW264354  14.828  11.621   5.982
54153SOL     OW64355   1.710   4.913  14.296
54153SOL    HW164356   1.656   4.886  14.370
54153SOL    HW264357   1.743   4.831  14.259
54154SOL     OW64358   4.003   4.377  10.412
54154SOL    HW164359   4.045   4.462  10.400
54154SOL    HW264360   3.983   4.373  10.505
54155SOL     OW64361   5.453   6.346  10.751
54155SOL    HW164362   5.477   6.277  10.690
54155SOL    HW264363   5.488   6.316  10.835
54156SOL     OW64364  12.142   6.672   9.034
54156SOL    HW164365  12.057   6.715   9.048
54156SOL    HW264366  12.182   6.722   8.963
54157SOL     OW64367   4.730  12.382   3.415
54157SOL    HW164368   4.699  12.374   3.324
54157SOL    HW264369   4.693  12.464   3.446
54158SOL     OW64370   6.116   3.959   3.065
54158SOL    HW164371   6.139   4.052   3.070
54158SOL    HW264372   6.156   3.921   3.143
54159SOL     OW64373  12.730   1.051   9.125
54159SOL    HW164374  12.800   0.986   9.123
54159SOL    HW264375  12.751   1.111   9.054
54160SOL     OW64376   4.067  11.898   1.324
54160SOL    HW164377   3.973  11.885   1.339
54160SOL    HW264378   4.091  11.831   1.261
54161SOL     OW64379   5.263  13.799   2.130
54161SOL    HW164380   5.198  13.857   2.170
54161SOL    HW264381   5.347  13.829   2.166
54162SOL     OW64382  14.815   1.811  10.135
54162SOL    HW164383  14.732   1.838  10.175
54162SOL    HW264384  14.850   1.891  10.095
54163SOL     OW64385  13.439  14.303   3.974
54163SOL    HW164386  13.371  14.370   3.970
54163SOL    HW264387  13.486  14.312   3.891
54164SOL     OW64388   8.031  11.901   5.019
54164SOL    HW164389   8.104  11.839   5.020
54164SOL    HW264390   8.045  11.954   4.940
54165SOL     OW64391   5.579   2.679   4.391
54165SOL    HW164392   5.526   2.600   4.379
54165SOL    HW264393   5.628   2.663   4.471
54166SOL     OW64394   7.030   6.348   4.006
54166SOL    HW164395   7.024   6.294   3.926
54166SOL    HW264396   7.117   6.327   4.041
54167SOL     OW64397  12.047   5.172   0.164
54167SOL    HW164398  11.967   5.217   0.138
54167SOL    HW264399  12.044   5.170   0.260
54168SOL     OW64400   3.762   2.803  13.471
54168SOL    HW164401   3.730   2.776  13.385
54168SOL    HW264402   3.833   2.864  13.451
54169SOL     OW64403   2.491  12.679  10.678
54169SOL    HW164404   2.581  12.662  10.648
54169SOL    HW264405   2.501  12.717  10.765
54170SOL     OW64406   7.402  11.392  13.209
54170SOL    HW164407   7.491  11.357  13.201
54170SOL    HW264408   7.408  11.455  13.281
54171SOL     OW64409   6.834   0.155   4.086
54171SOL    HW164410   6.792   0.230   4.129
54171SOL    HW264411   6.762   0.093   4.071
54172SOL     OW64412   2.758   9.868   3.479
54172SOL    HW164413   2.792   9.783   3.451
54172SOL    HW264414   2.691   9.888   3.414
54173SOL     OW64415   4.288   3.261  13.974
54173SOL    HW164416   4.371   3.266  13.926
54173SOL    HW264417   4.250   3.348  13.964
54174SOL     OW64418   0.941  12.603   1.542
54174SOL    HW164419   0.888  12.524   1.532
54174SOL    HW264420   1.019  12.587   1.488
54175SOL     OW64421  11.565   1.919   7.745
54175SOL    HW164422  11.556   1.838   7.795
54175SOL    HW264423  11.643   1.961   7.781
54176SOL     OW64424  11.964   7.695  10.624
54176SOL    HW164425  12.032   7.730  10.567
54176SOL    HW264426  11.895   7.665  10.565
54177SOL     OW64427   3.255   1.771   8.127
54177SOL    HW164428   3.260   1.760   8.032
54177SOL    HW264429   3.340   1.810   8.150
54178SOL     OW64430  14.618  10.040   6.331
54178SOL    HW164431  14.525  10.054   6.347
54178SOL    HW264432  14.631   9.946   6.343
54179SOL     OW64433  14.864  14.734  12.715
54179SOL    HW164434   0.075  14.730  12.756
54179SOL    HW264435  14.834  14.643  12.713
54180SOL     OW64436   3.103  11.417   4.412
54180SOL    HW164437   3.072  11.472   4.484
54180SOL    HW264438   3.171  11.363   4.452
54181SOL     OW64439  13.326  11.596  12.982
54181SOL    HW164440  13.377  11.566  13.057
54181SOL    HW264441  13.324  11.521  12.922
54182SOL     OW64442   6.266   1.612  13.191
54182SOL    HW164443   6.189   1.620  13.248
54182SOL    HW264444   6.317   1.541  13.230
54183SOL     OW64445  12.779  13.539   6.490
54183SOL    HW164446  12.788  13.630   6.520
54183SOL    HW264447  12.701  13.540   6.435
54184SOL     OW64448  14.413  14.353  13.623
54184SOL    HW164449  14.470  14.376  13.550
54184SOL    HW264450  14.328  14.336  13.584
54185SOL     OW64451   7.124   9.292  11.387
54185SOL    HW164452   7.111   9.378  11.428
54185SOL    HW264453   7.079   9.231  11.446
54186SOL     OW64454   4.615   2.722  13.080
54186SOL    HW164455   4.625   2.763  13.166
54186SOL    HW264456   4.540   2.766  13.040
54187SOL     OW64457  12.488   8.414   0.405
54187SOL    HW164458  12.579   8.444   0.405
54187SOL    HW264459  12.492   8.325   0.370
54188SOL     OW64460   2.754   6.325  14.797
54188SOL    HW164461   2.718   6.380  14.727
54188SOL    HW264462   2.734   6.372   0.002
54189SOL     OW64463   5.993   8.920   2.293
54189SOL    HW164464   6.071   8.933   2.348
54189SOL    HW264465   6.026   8.922   2.203
54190SOL     OW64466   6.025  11.000   9.180
54190SOL    HW164467   6.064  11.068   9.125
54190SOL    HW264468   6.017  10.924   9.122
54191SOL     OW64469   7.320  13.391  14.686
54191SOL    HW164470   7.247  13.452  14.696
54191SOL    HW264471   7.397  13.444  14.706
54192SOL     OW64472   7.065   8.794  11.527
54192SOL    HW164473   6.984   8.756  11.561
54192SOL    HW264474   7.068   8.765  11.436
54193SOL     OW64475   4.863  10.039   8.145
54193SOL    HW164476   4.957  10.031   8.126
54193SOL    HW264477   4.820  10.006   8.066
54194SOL     OW64478  11.923  10.992   5.776
54194SOL    HW164479  11.973  11.035   5.707
54194SOL    HW264480  11.988  10.967   5.842
54195SOL     OW64481   2.797  10.771   7.729
54195SOL    HW164482   2.707  10.798   7.712
54195SOL    HW264483   2.838  10.769   7.642
54196SOL     OW64484   7.112   8.120   5.205
54196SOL    HW164485   7.052   8.061   5.250
54196SOL    HW264486   7.069   8.206   5.211
54197SOL     OW64487   0.016   0.992   6.668
54197SOL    HW164488   0.074   0.977   6.593
54197SOL    HW264489  14.859   0.904   6.690
54198SOL     OW64490  10.056   5.923  10.131
54198SOL    HW164491   9.990   5.888  10.191
54198SOL    HW264492  10.065   5.855  10.064
54199SOL     OW64493   2.194   3.843   1.215
54199SOL    HW164494   2.224   3.846   1.306
54199SOL    HW264495   2.140   3.764   1.211
54200SOL     OW64496   6.417   0.877  12.252
54200SOL    HW164497   6.466   0.852  12.173
54200SOL    HW264498   6.464   0.836  12.324
54201SOL     OW64499   5.514   3.794   9.446
54201SOL    HW164500   5.587   3.851   9.470
54201SOL    HW264501   5.498   3.742   9.524
54202SOL     OW64502   3.485   6.336   5.792
54202SOL    HW164503   3.431   6.258   5.795
54202SOL    HW264504   3.521   6.344   5.881
54203SOL     OW64505   0.470   8.795   6.704
54203SOL    HW164506   0.383   8.757   6.695
54203SOL    HW264507   0.522   8.754   6.636
54204SOL     OW64508  14.144   4.837  10.310
54204SOL    HW164509  14.210   4.835  10.379
54204SOL    HW264510  14.079   4.773  10.337
54205SOL     OW64511  12.565  11.714  11.557
54205SOL    HW164512  12.585  11.807  11.547
54205SOL    HW264513  12.636  11.680  11.612
54206SOL     OW64514   5.828   2.448  12.819
54206SOL    HW164515   5.835   2.354  12.836
54206SOL    HW264516   5.787   2.484  12.898
54207SOL     OW64517  11.817   7.507   0.825
54207SOL    HW164518  11.897   7.552   0.854
54207SOL    HW264519  11.830   7.416   0.851
54208SOL     OW64520   8.241   3.677  11.135
54208SOL    HW164521   8.323   3.658  11.090
54208SOL    HW264522   8.264   3.743  11.201
54209SOL     OW64523   1.126   2.524   2.617
54209SOL    HW164524   1.204   2.481   2.584
54209SOL    HW264525   1.068   2.533   2.541
54210SOL     OW64526   5.026   0.617   8.977
54210SOL    HW164527   5.053   0.558   8.908
54210SOL    HW264528   5.020   0.562   9.055
54211SOL     OW64529   2.354   7.074   0.617
54211SOL    HW164530   2.312   7.157   0.640
54211SOL    HW264531   2.448   7.094   0.619
54212SOL     OW64532  14.022   2.647   6.133
54212SOL    HW164533  14.096   2.598   6.169
54212SOL    HW264534  14.032   2.639   6.038
54213SOL     OW64535  12.383  14.418   2.050
54213SOL    HW164536  12.363  14.489   1.989
54213SOL    HW264537  12.414  14.346   1.995
54214SOL     OW64538   7.157   8.821   2.574
54214SOL    HW164539   7.124   8.867   2.651
54214SOL    HW264540   7.095   8.749   2.561
54215SOL     OW64541   6.483   1.429   9.485
54215SOL    HW164542   6.564   1.407   9.439
54215SOL    HW264543   6.510   1.451   9.574
54216SOL     OW64544   4.024   5.855   4.824
54216SOL    HW164545   3.993   5.943   4.800
54216SOL    HW264546   4.111   5.849   4.784
54217SOL     OW64547   5.070   0.688  12.033
54217SOL    HW164548   5.077   0.594  12.051
54217SOL    HW264549   5.020   0.722  12.107
54218SOL     OW64550   8.596   2.293   7.979
54218SOL    HW164551   8.534   2.347   8.027
54218SOL    HW264552   8.548   2.211   7.962
54219SOL     OW64553  10.110   1.386  10.011
54219SOL    HW164554  10.041   1.333   9.972
54219SOL    HW264555  10.069   1.471  10.026
54220SOL     OW64556  10.507   6.978   8.030
54220SOL    HW164557  10.561   6.974   7.951
54220SOL    HW264558  10.439   6.912   8.015
54221SOL     OW64559  10.350  11.443  14.565
54221SOL    HW164560  10.384  11.388  14.495
54221SOL    HW264561  10.405  11.422  14.641
54222SOL     OW64562  14.121   4.002   0.840
54222SOL    HW164563  14.199   4.056   0.835
54222SOL    HW264564  14.148   3.917   0.804
54223SOL     OW64565   6.599  12.325   1.410
54223SOL    HW164566   6.625  12.395   1.470
54223SOL    HW264567   6.680  12.297   1.368
54224SOL     OW64568  13.947   8.394   6.321
54224SOL    HW164569  14.036   8.395   6.286
54224SOL    HW264570  13.954   8.345   6.403
54225SOL     OW64571  10.163   5.856   6.890
54225SOL    HW164572  10.077   5.833   6.856
54225SOL    HW264573  10.150   5.867   6.984
54226SOL     OW64574   8.549   0.938   4.144
54226SOL    HW164575   8.485   0.948   4.074
54226SOL    HW264576   8.601   0.862   4.118
54227SOL     OW64577   1.725  11.451   7.981
54227SOL    HW164578   1.630  11.436   7.979
54227SOL    HW264579   1.747  11.475   7.891
54228SOL     OW64580  10.630   6.490  12.750
54228SOL    HW164581  10.678   6.414  12.718
54228SOL    HW264582  10.606   6.538  12.671
54229SOL     OW64583   5.887   4.279   2.506
54229SOL    HW164584   5.898   4.350   2.443
54229SOL    HW264585   5.858   4.205   2.454
54230SOL     OW64586   8.754  11.253   2.710
54230SOL    HW164587   8.837  11.254   2.663
54230SOL    HW264588   8.760  11.175   2.766
54231SOL     OW64589   5.644   2.833   1.235
54231SOL    HW164590   5.550   2.840   1.219
54231SOL    HW264591   5.674   2.766   1.173
54232SOL     OW64592   7.309   4.491  10.914
54232SOL    HW164593   7.357   4.568  10.945
54232SOL    HW264594   7.336   4.421  10.973
54233SOL     OW64595  11.145  10.444   5.705
54233SOL    HW164596  11.097  10.521   5.735
54233SOL    HW264597  11.078  10.388   5.666
54234SOL     OW64598   7.122  10.940   6.124
54234SOL    HW164599   7.094  10.993   6.050
54234SOL    HW264600   7.132  10.852   6.087
54235SOL     OW64601   3.299   8.820   3.600
54235SOL    HW164602   3.309   8.850   3.690
54235SOL    HW264603   3.349   8.883   3.548
54236SOL     OW64604   0.280  12.095   5.378
54236SOL    HW164605   0.321  12.052   5.452
54236SOL    HW264606   0.314  12.048   5.301
54237SOL     OW64607   6.998   7.667  10.004
54237SOL    HW164608   6.911   7.629  10.017
54237SOL    HW264609   7.011   7.725  10.079
54238SOL     OW64610  12.432   1.199   9.843
54238SOL    HW164611  12.499   1.190   9.775
54238SOL    HW264612  12.389   1.283   9.824
54239SOL     OW64613  13.971   9.535   8.327
54239SOL    HW164614  13.945   9.612   8.377
54239SOL    HW264615  13.902   9.524   8.262
54240SOL     OW64616   6.043   1.489   3.841
54240SOL    HW164617   6.020   1.459   3.929
54240SOL    HW264618   6.018   1.582   3.839
54241SOL     OW64619  12.844   9.631   0.449
54241SOL    HW164620  12.915   9.637   0.386
54241SOL    HW264621  12.783   9.568   0.411
54242SOL     OW64622   2.553  12.058   2.006
54242SOL    HW164623   2.511  11.992   1.951
54242SOL    HW264624   2.646  12.054   1.982
54243SOL     OW64625   8.765   7.914   2.663
54243SOL    HW164626   8.818   7.848   2.707
54243SOL    HW264627   8.741   7.874   2.579
54244SOL     OW64628  14.567   0.838   3.087
54244SOL    HW164629  14.651   0.825   3.041
54244SOL    HW264630  14.591   0.884   3.167
54245SOL     OW64631   9.522   8.359   6.800
54245SOL    HW164632   9.589   8.396   6.742
54245SOL    HW264633   9.564   8.355   6.885
54246SOL     OW64634  10.600  14.693   2.369
54246SOL    HW164635  10.568  14.624   2.311
54246SOL    HW264636  10.521  14.731   2.406
54247SOL     OW64637  12.973  11.479   7.458
54247SOL    HW164638  12.880  11.455   7.463
54247SOL    HW264639  12.974  11.574   7.452
54248SOL     OW64640  12.958   5.205   4.443
54248SOL    HW164641  12.971   5.118   4.480
54248SOL    HW264642  12.906   5.191   4.364
54249SOL     OW64643   5.976   8.260  12.049
54249SOL    HW164644   5.993   8.253  12.143
54249SOL    HW264645   6.003   8.348  12.025
54250SOL     OW64646  10.376   0.885   7.483
54250SOL    HW164647  10.309   0.884   7.552
54250SOL    HW264648  10.458   0.866   7.529
54251SOL     OW64649   0.655   2.957  14.179
54251SOL    HW164650   0.647   3.052  14.180
54251SOL    HW264651   0.566   2.925  14.163
54252SOL     OW64652   3.978   2.538   2.593
54252SOL    HW164653   4.004   2.448   2.577
54252SOL    HW264654   4.037   2.569   2.662
54253SOL     OW64655   9.847   7.460  10.875
54253SOL    HW164656   9.820   7.399  10.805
54253SOL    HW264657   9.812   7.544  10.848
54254SOL     OW64658   3.138   5.448   8.502
54254SOL    HW164659   3.150   5.367   8.553
54254SOL    HW264660   3.204   5.443   8.433
54255SOL     OW64661   1.082   1.316   6.485
54255SOL    HW164662   1.000   1.358   6.459
54255SOL    HW264663   1.148   1.355   6.427
54256SOL     OW64664  11.707   7.731   9.487
54256SOL    HW164665  11.722   7.645   9.528
54256SOL    HW264666  11.696   7.791   9.561
54257SOL     OW64667   2.863   2.249  14.423
54257SOL    HW164668   2.810   2.189  14.370
54257SOL    HW264669   2.951   2.212  14.420
54258SOL     OW64670   8.795   4.291  14.264
54258SOL    HW164671   8.883   4.296  14.299
54258SOL    HW264672   8.752   4.224  14.317
54259SOL     OW64673  14.105   7.479   6.293
54259SOL    HW164674  14.029   7.534   6.312
54259SOL    HW264675  14.181   7.534   6.316
54260SOL     OW64676  14.356   3.541   4.286
54260SOL    HW164677  14.279   3.484   4.284
54260SOL    HW264678  14.329   3.619   4.237
54261SOL     OW64679   8.143  14.143  13.545
54261SOL    HW164680   8.073  14.161  13.482
54261SOL    HW264681   8.136  14.049  13.562
54262SOL     OW64682   4.447   7.181  14.253
54262SOL    HW164683   4.512   7.177  14.323
54262SOL    HW264684   4.472   7.259  14.203
54263SOL     OW64685   0.616   7.603   1.388
54263SOL    HW164686   0.564   7.598   1.468
54263SOL    HW264687   0.600   7.519   1.344
54264SOL     OW64688   9.282   3.971   2.183
54264SOL    HW164689   9.196   4.010   2.168
54264SOL    HW264690   9.332   3.992   2.105
54265SOL     OW64691  11.387   8.751   2.471
54265SOL    HW164692  11.429   8.782   2.551
54265SOL    HW264693  11.297   8.731   2.497
54266SOL     OW64694   8.608  10.682   2.182
54266SOL    HW164695   8.703  10.691   2.177
54266SOL    HW264696   8.575  10.772   2.185
54267SOL     OW64697   5.594  11.938   0.541
54267SOL    HW164698   5.583  12.030   0.564
54267SOL    HW264699   5.674  11.911   0.586
54268SOL     OW64700  10.332  10.215   3.442
54268SOL    HW164701  10.422  10.187   3.426
54268SOL    HW264702  10.335  10.311   3.437
54269SOL     OW64703   4.049   9.803   9.058
54269SOL    HW164704   4.098   9.825   9.137
54269SOL    HW264705   4.058   9.880   9.001
54270SOL     OW64706  13.896   6.047   5.082
54270SOL    HW164707  13.965   6.106   5.113
54270SOL    HW264708  13.819   6.070   5.134
54271SOL     OW64709  13.348  14.233   9.477
54271SOL    HW164710  13.385  14.321   9.467
54271SOL    HW264711  13.422  14.174   9.465
54272SOL     OW64712  13.258   7.327   2.030
54272SOL    HW164713  13.349   7.357   2.026
54272SOL    HW264714  13.244   7.279   1.949
54273SOL     OW64715   7.588   2.624   6.229
54273SOL    HW164716   7.661   2.569   6.256
54273SOL    HW264717   7.629   2.704   6.197
54274SOL     OW64718   9.810   4.439  10.355
54274SOL    HW164719   9.762   4.393  10.424
54274SOL    HW264720   9.836   4.522  10.395
54275SOL     OW64721  11.726  10.043  12.463
54275SOL    HW164722  11.692  10.045  12.552
54275SOL    HW264723  11.751   9.952  12.448
54276SOL     OW64724  12.135   0.819  13.574
54276SOL    HW164725  12.155   0.880  13.503
54276SOL    HW264726  12.205   0.832  13.638
54277SOL     OW64727  11.358   2.123   7.249
54277SOL    HW164728  11.263   2.130   7.252
54277SOL    HW264729  11.381   2.146   7.159
54278SOL     OW64730  11.761   1.878   6.819
54278SOL    HW164731  11.815   1.914   6.890
54278SOL    HW264732  11.703   1.815   6.862
54279SOL     OW64733   5.017  14.088   1.967
54279SOL    HW164734   5.015  14.033   1.888
54279SOL    HW264735   4.934  14.137   1.964
54280SOL     OW64736   1.599   9.568  13.543
54280SOL    HW164737   1.612   9.573  13.638
54280SOL    HW264738   1.681   9.600  13.505
54281SOL     OW64739   5.053   7.198   5.533
54281SOL    HW164740   5.049   7.103   5.545
54281SOL    HW264741   5.133   7.213   5.483
54282SOL     OW64742   5.890  12.853  10.305
54282SOL    HW164743   5.861  12.778  10.253
54282SOL    HW264744   5.980  12.869  10.275
54283SOL     OW64745   4.349   9.561  12.016
54283SOL    HW164746   4.326   9.622  12.086
54283SOL    HW264747   4.380   9.483  12.062
54284SOL     OW64748   3.080   7.641   3.912
54284SOL    HW164749   3.112   7.722   3.951
54284SOL    HW264750   3.064   7.662   3.820
54285SOL     OW64751   4.088  11.739  11.018
54285SOL    HW164752   4.183  11.743  11.028
54285SOL    HW264753   4.054  11.781  11.097
54286SOL     OW64754  12.310   2.523   4.787
54286SOL    HW164755  12.343   2.446   4.833
54286SOL    HW264756  12.348   2.598   4.834
54287SOL     OW64757  14.630   7.204   5.042
54287SOL    HW164758  14.674   7.121   5.023
54287SOL    HW264759  14.563   7.212   4.974
54288SOL     OW64760   2.474   9.200   4.488
54288SOL    HW164761   2.404   9.188   4.552
54288SOL    HW264762   2.433   9.178   4.404
54289SOL     OW64763  11.434   7.612   3.670
54289SOL    HW164764  11.418   7.558   3.592
54289SOL    HW264765  11.519   7.653   3.653
54290SOL     OW64766   1.458   7.429  10.459
54290SOL    HW164767   1.371   7.424  10.500
54290SOL    HW264768   1.450   7.498  10.394
54291SOL     OW64769  14.193   1.297   5.187
54291SOL    HW164770  14.105   1.302   5.150
54291SOL    HW264771  14.182   1.252   5.271
54292SOL     OW64772  14.298   5.697  12.242
54292SOL    HW164773  14.268   5.606  12.245
54292SOL    HW264774  14.393   5.691  12.255
54293SOL     OW64775   1.905   6.397   1.481
54293SOL    HW164776   1.952   6.472   1.517
54293SOL    HW264777   1.972   6.329   1.470
54294SOL     OW64778   6.385   0.368  11.801
54294SOL    HW164779   6.461   0.344  11.748
54294SOL    HW264780   6.409   0.344  11.890
54295SOL     OW64781   3.167  14.320   2.880
54295SOL    HW164782   3.159  14.231   2.917
54295SOL    HW264783   3.102  14.323   2.810
54296SOL     OW64784  14.162   2.972   0.934
54296SOL    HW164785  14.073   3.007   0.923
54296SOL    HW264786  14.197   2.969   0.845
54297SOL     OW64787   3.467   0.255   9.360
54297SOL    HW164788   3.499   0.168   9.383
54297SOL    HW264789   3.425   0.287   9.439
54298SOL     OW64790   7.239   6.271   6.315
54298SOL    HW164791   7.203   6.210   6.251
54298SOL    HW264792   7.333   6.273   6.296
54299SOL     OW64793   2.266   6.937  12.389
54299SOL    HW164794   2.203   7.006  12.411
54299SOL    HW264795   2.319   6.975  12.318
54300SOL     OW64796   7.077   7.939   8.638
54300SOL    HW164797   7.138   7.930   8.564
54300SOL    HW264798   7.042   7.851   8.652
54301SOL     OW64799  12.305   6.705  10.520
54301SOL    HW164800  12.217   6.742  10.522
54301SOL    HW264801  12.322   6.688  10.428
54302SOL     OW64802   5.929  13.447   1.331
54302SOL    HW164803   5.973  13.507   1.392
54302SOL    HW264804   5.838  13.447   1.359
54303SOL     OW64805  13.877  11.937  14.753
54303SOL    HW164806  13.929  11.959  14.830
54303SOL    HW264807  13.878  11.841  14.750
54304SOL     OW64808   9.791   6.705  12.846
54304SOL    HW164809   9.766   6.764  12.775
54304SOL    HW264810   9.886   6.714  12.852
54305SOL     OW64811   0.260  11.414   4.039
54305SOL    HW164812   0.212  11.367   4.107
54305SOL    HW264813   0.275  11.348   3.971
54306SOL     OW64814   8.536  14.557  10.757
54306SOL    HW164815   8.536  14.651  10.742
54306SOL    HW264816   8.451  14.527  10.726
54307SOL     OW64817  12.171  13.850  11.279
54307SOL    HW164818  12.150  13.938  11.248
54307SOL    HW264819  12.149  13.851  11.372
54308SOL     OW64820   8.579   4.154  10.422
54308SOL    HW164821   8.648   4.092  10.445
54308SOL    HW264822   8.594   4.229  10.480
54309SOL     OW64823   8.969   1.001  14.164
54309SOL    HW164824   8.990   1.085  14.204
54309SOL    HW264825   8.898   0.965  14.217
54310SOL     OW64826   4.204   7.263  11.087
54310SOL    HW164827   4.231   7.320  11.016
54310SOL    HW264828   4.180   7.322  11.158
54311SOL     OW64829   5.408  10.579  14.592
54311SOL    HW164830   5.313  10.585  14.580
54311SOL    HW264831   5.443  10.654  14.545
54312SOL     OW64832   6.897   1.495   6.062
54312SOL    HW164833   6.936   1.428   6.007
54312SOL    HW264834   6.957   1.503   6.136
54313SOL     OW64835   6.914   0.074  10.017
54313SOL    HW164836   6.892   0.167  10.026
54313SOL    HW264837   6.830   0.030  10.011
54314SOL     OW64838  12.249  12.196   7.900
54314SOL    HW164839  12.259  12.234   7.987
54314SOL    HW264840  12.237  12.271   7.842
54315SOL     OW64841   6.894   8.357  11.295
54315SOL    HW164842   6.964   8.344  11.231
54315SOL    HW264843   6.935   8.405  11.366
54316SOL     OW64844   4.295   0.679  10.533
54316SOL    HW164845   4.298   0.773  10.514
54316SOL    HW264846   4.355   0.667  10.606
54317SOL     OW64847   4.728  12.111   3.487
54317SOL    HW164848   4.700  12.194   3.447
54317SOL    HW264849   4.672  12.101   3.563
54318SOL     OW64850  12.558   6.426  12.701
54318SOL    HW164851  12.646   6.431  12.739
54318SOL    HW264852  12.572   6.408  12.608
54319SOL     OW64853   0.564   7.519   9.685
54319SOL    HW164854   0.485   7.476   9.716
54319SOL    HW264855   0.599   7.563   9.762
54320SOL     OW64856  10.227   7.316   3.347
54320SOL    HW164857  10.231   7.378   3.274
54320SOL    HW264858  10.258   7.233   3.309
54321SOL     OW64859  13.522   9.634   5.148
54321SOL    HW164860  13.510   9.554   5.097
54321SOL    HW264861  13.580   9.608   5.220
54322SOL     OW64862  13.911   5.110   0.558
54322SOL    HW164863  13.830   5.099   0.608
54322SOL    HW264864  13.882   5.116   0.467
54323SOL     OW64865   1.341   1.105   8.997
54323SOL    HW164866   1.431   1.074   9.009
54323SOL    HW264867   1.341   1.146   8.910
54324SOL     OW64868  10.137  12.363   3.895
54324SOL    HW164869  10.127  12.286   3.950
54324SOL    HW264870  10.165  12.432   3.955
54325SOL     OW64871   7.958   9.468  13.394
54325SOL    HW164872   8.025   9.429  13.337
54325SOL    HW264873   7.984   9.442  13.483
54326SOL     OW64874  14.735  12.038   4.176
54326SOL    HW164875  14.671  12.016   4.243
54326SOL    HW264876  14.748  11.957   4.127
54327SOL     OW64877   2.046   0.072  12.195
54327SOL    HW164878   2.061  14.857  12.222
54327SOL    HW264879   1.980   0.105  12.256
54328SOL     OW64880   7.715  12.778  11.286
54328SOL    HW164881   7.723  12.827  11.204
54328SOL    HW264882   7.625  12.746  11.286
54329SOL     OW64883   4.404  10.440  10.912
54329SOL    HW164884   4.313  10.467  10.897
54329SOL    HW264885   4.445  10.446  10.825
54330SOL     OW64886  10.981   8.296   0.133
54330SOL    HW164887  11.074   8.312   0.116
54330SOL    HW264888  10.978   8.271   0.225
54331SOL     OW64889   5.758   7.484  14.264
54331SOL    HW164890   5.799   7.398  14.263
54331SOL    HW264891   5.824   7.543  14.227
54332SOL     OW64892  11.786  12.534  11.476
54332SOL    HW164893  11.814  12.445  11.496
54332SOL    HW264894  11.866  12.580  11.454
54333SOL     OW64895   9.617   7.726   2.094
54333SOL    HW164896   9.591   7.695   2.181
54333SOL    HW264897   9.655   7.649   2.051
54334SOL     OW64898   1.633   5.492  12.188
54334SOL    HW164899   1.597   5.438  12.258
54334SOL    HW264900   1.592   5.578  12.200
54335SOL     OW64901   2.617   5.268   9.258
54335SOL    HW164902   2.601   5.360   9.275
54335SOL    HW264903   2.560   5.247   9.184
54336SOL     OW64904  12.117   1.774   3.666
54336SOL    HW164905  12.162   1.825   3.733
54336SOL    HW264906  12.132   1.822   3.584
54337SOL     OW64907   2.761  10.213  14.848
54337SOL    HW164908   2.753  10.223   0.067
54337SOL    HW264909   2.851  10.184  14.834
54338SOL     OW64910   4.243   2.037   7.218
54338SOL    HW164911   4.323   2.058   7.265
54338SOL    HW264912   4.179   2.017   7.287
54339SOL     OW64913   6.859  12.331   4.507
54339SOL    HW164914   6.891  12.416   4.537
54339SOL    HW264915   6.860  12.338   4.411
54340SOL     OW64916  11.732   5.616   9.309
54340SOL    HW164917  11.787   5.651   9.379
54340SOL    HW264918  11.740   5.680   9.238
54341SOL     OW64919   7.643  12.426  10.135
54341SOL    HW164920   7.581  12.491  10.170
54341SOL    HW264921   7.589  12.367  10.082
54342SOL     OW64922   4.279   4.101   4.036
54342SOL    HW164923   4.239   4.051   3.965
54342SOL    HW264924   4.371   4.110   4.010
54343SOL     OW64925   3.467   5.189  11.932
54343SOL    HW164926   3.382   5.149  11.948
54343SOL    HW264927   3.509   5.132  11.868
54344SOL     OW64928   8.941  12.662  13.619
54344SOL    HW164929   8.964  12.747  13.658
54344SOL    HW264930   8.864  12.633  13.667
54345SOL     OW64931   6.175   7.251   1.863
54345SOL    HW164932   6.244   7.185   1.861
54345SOL    HW264933   6.219   7.332   1.888
54346SOL     OW64934   3.359   9.895  12.165
54346SOL    HW164935   3.343   9.903  12.071
54346SOL    HW264936   3.433   9.953  12.182
54347SOL     OW64937   4.280   2.290   3.213
54347SOL    HW164938   4.334   2.367   3.230
54347SOL    HW264939   4.225   2.281   3.291
54348SOL     OW64940  11.513   4.910   5.502
54348SOL    HW164941  11.585   4.906   5.439
54348SOL    HW264942  11.554   4.887   5.586
54349SOL     OW64943  13.243   5.407   8.097
54349SOL    HW164944  13.270   5.371   8.182
54349SOL    HW264945  13.175   5.347   8.066
54350SOL     OW64946   9.966   8.076  13.359
54350SOL    HW164947  10.051   8.050  13.325
54350SOL    HW264948   9.903   8.023  13.310
54351SOL     OW64949  14.407   0.760   1.206
54351SOL    HW164950  14.394   0.713   1.288
54351SOL    HW264951  14.483   0.815   1.222
54352SOL     OW64952   6.320  13.659  12.048
54352SOL    HW164953   6.375  13.602  12.102
54352SOL    HW264954   6.326  13.745  12.089
54353SOL     OW64955   0.396  12.733   6.469
54353SOL    HW164956   0.356  12.819   6.483
54353SOL    HW264957   0.387  12.717   6.376
54354SOL     OW64958   9.222   3.324   8.293
54354SOL    HW164959   9.129   3.327   8.269
54354SOL    HW264960   9.254   3.412   8.275
54355SOL     OW64961   0.911   5.837   0.631
54355SOL    HW164962   0.843   5.905   0.635
54355SOL    HW264963   0.874   5.770   0.573
54356SOL     OW64964   5.245   8.662   3.520
54356SOL    HW164965   5.175   8.726   3.505
54356SOL    HW264966   5.286   8.691   3.602
54357SOL     OW64967   2.733  14.670  13.326
54357SOL    HW164968   2.736  14.580  13.294
54357SOL    HW264969   2.656  14.672  13.384
54358SOL     OW64970  12.940   1.299   2.226
54358SOL    HW164971  12.968   1.301   2.317
54358SOL    HW264972  12.975   1.381   2.188
54359SOL     OW64973   4.142   5.942   6.678
54359SOL    HW164974   4.077   6.011   6.668
54359SOL    HW264975   4.139   5.894   6.595
54360SOL     OW64976   7.831   9.965  12.208
54360SOL    HW164977   7.927   9.962  12.205
54360SOL    HW264978   7.811  10.029  12.276
54361SOL     OW64979   5.980   5.481   7.174
54361SOL    HW164980   5.952   5.571   7.189
54361SOL    HW264981   6.060   5.472   7.225
54362SOL     OW64982   2.230   7.772  13.836
54362SOL    HW164983   2.243   7.767  13.742
54362SOL    HW264984   2.223   7.866  13.854
54363SOL     OW64985   0.110  11.180   0.794
54363SOL    HW164986   0.163  11.237   0.738
54363SOL    HW264987   0.030  11.164   0.743
54364SOL     OW64988   9.657   2.856   5.291
54364SOL    HW164989   9.591   2.838   5.224
54364SOL    HW264990   9.630   2.941   5.327
54365SOL     OW64991   8.410   1.972   8.710
54365SOL    HW164992   8.456   2.035   8.654
54365SOL    HW264993   8.470   1.956   8.783
54366SOL     OW64994   1.629  13.520   2.630
54366SOL    HW164995   1.586  13.582   2.689
54366SOL    HW264996   1.684  13.574   2.574
54367SOL     OW64997   8.685  11.009   1.418
54367SOL    HW164998   8.608  10.979   1.369
54367SOL    HW264999   8.739  11.054   1.353
54368SOL     OW65000  11.076  14.200   2.081
54368SOL    HW165001  11.059  14.290   2.051
54368SOL    HW265002  10.999  14.178   2.132
54369SOL     OW65003  13.008   4.410   9.771
54369SOL    HW165004  12.927   4.460   9.760
54369SOL    HW265005  12.980   4.319   9.768
54370SOL     OW65006  13.798  14.719   5.100
54370SOL    HW165007  13.879  14.770   5.109
54370SOL    HW265008  13.729  14.784   5.113
54371SOL     OW65009  12.990  13.890   0.145
54371SOL    HW165010  12.955  13.979   0.140
54371SOL    HW265011  13.050  13.884   0.071
54372SOL     OW65012   1.793   3.492  11.357
54372SOL    HW165013   1.816   3.526  11.443
54372SOL    HW265014   1.703   3.460  11.367
54373SOL     OW65015  13.645   5.228   6.248
54373SOL    HW165016  13.715   5.209   6.184
54373SOL    HW265017  13.609   5.142   6.270
54374SOL     OW65018   6.443   1.947   3.385
54374SOL    HW165019   6.349   1.930   3.380
54374SOL    HW265020   6.449   2.035   3.424
54375SOL     OW65021   6.654   4.673  11.928
54375SOL    HW165022   6.584   4.673  11.993
54375SOL    HW265023   6.734   4.684  11.979
54376SOL     OW65024   7.699  14.467   2.583
54376SOL    HW165025   7.715  14.400   2.516
54376SOL    HW265026   7.728  14.549   2.542
54377SOL     OW65027  12.612  13.333   9.104
54377SOL    HW165028  12.623  13.317   9.198
54377SOL    HW265029  12.701  13.347   9.072
54378SOL     OW65030  11.010  14.306   4.504
54378SOL    HW165031  11.020  14.391   4.463
54378SOL    HW265032  11.080  14.302   4.569
54379SOL     OW65033   7.706   9.505   0.126
54379SOL    HW165034   7.774   9.573   0.124
54379SOL    HW265035   7.633   9.546   0.173
54380SOL     OW65036  10.324   1.776  14.586
54380SOL    HW165037  10.301   1.810  14.499
54380SOL    HW265038  10.326   1.853  14.642
54381SOL     OW65039   2.853  12.861   6.819
54381SOL    HW165040   2.937  12.839   6.777
54381SOL    HW265041   2.801  12.781   6.811
54382SOL     OW65042   0.214   5.174  11.684
54382SOL    HW165043   0.140   5.169  11.745
54382SOL    HW265044   0.235   5.083  11.665
54383SOL     OW65045   8.297   5.735   3.561
54383SOL    HW165046   8.203   5.718   3.571
54383SOL    HW265047   8.330   5.741   3.650
54384SOL     OW65048   5.597   3.915   4.364
54384SOL    HW165049   5.545   3.993   4.384
54384SOL    HW265050   5.684   3.950   4.342
54385SOL     OW65051   2.182   7.925  14.582
54385SOL    HW165052   2.095   7.890  14.600
54385SOL    HW265053   2.169   8.019  14.569
54386SOL     OW65054   3.013   9.773  14.323
54386SOL    HW165055   2.974   9.785  14.410
54386SOL    HW265056   3.053   9.686  14.327
54387SOL     OW65057   0.188  12.049   6.552
54387SOL    HW165058   0.104  12.031   6.593
54387SOL    HW265059   0.248  12.064   6.625
54388SOL     OW65060  11.054   7.231   8.279
54388SOL    HW165061  10.983   7.263   8.223
54388SOL    HW265062  11.010   7.196   8.356
54389SOL     OW65063   7.597   5.766   4.615
54389SOL    HW165064   7.660   5.834   4.635
54389SOL    HW265065   7.582   5.722   4.699
54390SOL     OW65066  14.856  13.954   7.029
54390SOL    HW165067  14.844  13.862   7.053
54390SOL    HW265068  14.795  13.968   6.956
54391SOL     OW65069   6.974   4.743  13.746
54391SOL    HW165070   7.052   4.771  13.698
54391SOL    HW265071   6.921   4.823  13.754
54392SOL     OW65072  10.735   5.687   0.564
54392SOL    HW165073  10.726   5.738   0.483
54392SOL    HW265074  10.805   5.625   0.547
54393SOL     OW65075  14.055   0.293   9.064
54393SOL    HW165076  13.969   0.300   9.023
54393SOL    HW265077  14.078   0.200   9.056
54394SOL     OW65078  10.889  12.082  14.234
54394SOL    HW165079  10.900  11.999  14.281
54394SOL    HW265080  10.839  12.136  14.295
54395SOL     OW65081   6.242   9.531  12.151
54395SOL    HW165082   6.262   9.622  12.172
54395SOL    HW265083   6.166   9.535  12.093
54396SOL     OW65084   1.033   4.328  14.434
54396SOL    HW165085   1.011   4.409  14.389
54396SOL    HW265086   1.090   4.281  14.373
54397SOL     OW65087   3.834  10.408   9.294
54397SOL    HW165088   3.789  10.344   9.348
54397SOL    HW265089   3.787  10.406   9.210
54398SOL     OW65090   7.331   0.699   0.396
54398SOL    HW165091   7.401   0.719   0.458
54398SOL    HW265092   7.360   0.737   0.313
54399SOL     OW65093   7.912   2.186   4.281
54399SOL    HW165094   7.899   2.249   4.351
54399SOL    HW265095   7.944   2.237   4.207
54400SOL     OW65096   5.040   0.130  12.121
54400SOL    HW165097   5.060   0.039  12.099
54400SOL    HW265098   5.041   0.133  12.217
54401SOL     OW65099   6.207  10.493   9.948
54401SOL    HW165100   6.188  10.534  10.032
54401SOL    HW265101   6.183  10.559   9.883
54402SOL     OW65102  10.432  10.204   8.289
54402SOL    HW165103  10.405  10.141   8.356
54402SOL    HW265104  10.450  10.150   8.211
54403SOL     OW65105  13.283  10.084  14.534
54403SOL    HW165106  13.271  10.178  14.519
54403SOL    HW265107  13.231  10.042  14.465
54404SOL     OW65108   1.986  14.683   7.074
54404SOL    HW165109   1.925  14.705   7.144
54404SOL    HW265110   1.976  14.588   7.063
54405SOL     OW65111   1.174   2.160   7.537
54405SOL    HW165112   1.150   2.075   7.573
54405SOL    HW265113   1.200   2.141   7.447
54406SOL     OW65114   8.562   3.904   0.474
54406SOL    HW165115   8.506   3.907   0.551
54406SOL    HW265116   8.520   3.839   0.417
54407SOL     OW65117  12.775   8.599   9.194
54407SOL    HW165118  12.692   8.645   9.179
54407SOL    HW265119  12.838   8.648   9.142
54408SOL     OW65120  10.654  13.549  14.395
54408SOL    HW165121  10.686  13.592  14.474
54408SOL    HW265122  10.590  13.611  14.359
54409SOL     OW65123   8.408   0.553  10.091
54409SOL    HW165124   8.370   0.615  10.153
54409SOL    HW265125   8.380   0.584  10.006
54410SOL     OW65126  14.191  13.517   4.982
54410SOL    HW165127  14.169  13.528   5.074
54410SOL    HW265128  14.227  13.601   4.955
54411SOL     OW65129   9.332  14.528   5.932
54411SOL    HW165130   9.311  14.617   5.960
54411SOL    HW265131   9.317  14.474   6.009
54412SOL     OW65132   0.613   7.432  14.522
54412SOL    HW165133   0.540   7.437  14.584
54412SOL    HW265134   0.592   7.356  14.467
54413SOL     OW65135  13.373   9.212   1.354
54413SOL    HW165136  13.459   9.178   1.377
54413SOL    HW265137  13.337   9.245   1.437
54414SOL     OW65138   6.527   0.286  13.391
54414SOL    HW165139   6.490   0.333  13.466
54414SOL    HW265140   6.544   0.198  13.424
54415SOL     OW65141  11.256   9.813   5.467
54415SOL    HW165142  11.342   9.778   5.446
54415SOL    HW265143  11.271   9.871   5.542
54416SOL     OW65144   5.741  11.395   8.493
54416SOL    HW165145   5.701  11.461   8.436
54416SOL    HW265146   5.826  11.377   8.453
54417SOL     OW65147  13.374   8.929  12.227
54417SOL    HW165148  13.283   8.902  12.218
54417SOL    HW265149  13.390   8.987  12.152
54418SOL     OW65150   4.466   7.503   2.711
54418SOL    HW165151   4.545   7.493   2.764
54418SOL    HW265152   4.476   7.588   2.668
54419SOL     OW65153  14.559   0.009   9.854
54419SOL    HW165154  14.560   0.060   9.774
54419SOL    HW265155  14.496   0.053   9.911
54420SOL     OW65156  13.005  11.318  12.574
54420SOL    HW165157  12.937  11.273  12.624
54420SOL    HW265158  13.048  11.248  12.524
54421SOL     OW65159  13.661  10.720   5.246
54421SOL    HW165160  13.594  10.665   5.206
54421SOL    HW265161  13.671  10.793   5.185
54422SOL     OW65162  11.828   2.797   8.920
54422SOL    HW165163  11.816   2.885   8.955
54422SOL    HW265164  11.847   2.743   8.997
54423SOL     OW65165  13.449   3.951  12.073
54423SOL    HW165166  13.392   3.949  12.149
54423SOL    HW265167  13.420   3.877  12.019
54424SOL     OW65168  13.564   8.874  10.871
54424SOL    HW165169  13.471   8.893  10.880
54424SOL    HW265170  13.598   8.944  10.816
54425SOL     OW65171  12.976  12.731   3.650
54425SOL    HW165172  13.005  12.661   3.709
54425SOL    HW265173  12.937  12.797   3.708
54426SOL     OW65174  10.748   5.800   3.435
54426SOL    HW165175  10.673   5.777   3.380
54426SOL    HW265176  10.712   5.864   3.497
54427SOL     OW65177   8.287   6.845  12.522
54427SOL    HW165178   8.265   6.883  12.437
54427SOL    HW265179   8.349   6.906  12.561
54428SOL     OW65180   5.138   8.855   9.622
54428SOL    HW165181   5.231   8.829   9.621
54428SOL    HW265182   5.132   8.921   9.691
54429SOL     OW65183   3.792   9.813   2.123
54429SOL    HW165184   3.761   9.818   2.213
54429SOL    HW265185   3.714   9.830   2.069
54430SOL     OW65186  11.251   4.983  11.053
54430SOL    HW165187  11.294   5.069  11.047
54430SOL    HW265188  11.323   4.920  11.056
54431SOL     OW65189   5.407  11.250  10.616
54431SOL    HW165190   5.451  11.333  10.631
54431SOL    HW265191   5.316  11.273  10.599
54432SOL     OW65192  13.257   7.336   7.372
54432SOL    HW165193  13.194   7.291   7.428
54432SOL    HW265194  13.231   7.429   7.377
54433SOL     OW65195   8.807   0.128  12.018
54433SOL    HW165196   8.874   0.112  12.085
54433SOL    HW265197   8.731   0.159  12.067
54434SOL     OW65198   5.039  12.667   5.266
54434SOL    HW165199   4.983  12.595   5.292
54434SOL    HW265200   5.128  12.635   5.280
54435SOL     OW65201   0.462  10.528  14.451
54435SOL    HW165202   0.443  10.568  14.536
54435SOL    HW265203   0.552  10.554  14.432
54436SOL     OW65204   7.681   0.203   4.536
54436SOL    HW165205   7.601   0.252   4.518
54436SOL    HW265206   7.751   0.266   4.525
54437SOL     OW65207   2.386  11.028   9.039
54437SOL    HW165208   2.386  10.959   8.973
54437SOL    HW265209   2.406  10.982   9.121
54438SOL     OW65210   8.984  11.357   5.800
54438SOL    HW165211   9.070  11.399   5.808
54438SOL    HW265212   9.004  11.267   5.772
54439SOL     OW65213  11.842   5.322   9.297
54439SOL    HW165214  11.837   5.407   9.339
54439SOL    HW265215  11.921   5.281   9.333
54440SOL     OW65216   5.459  13.382   9.391
54440SOL    HW165217   5.519  13.391   9.317
54440SOL    HW265218   5.475  13.458   9.446
54441SOL     OW65219  13.981   0.886  13.221
54441SOL    HW165220  13.905   0.943  13.221
54441SOL    HW265221  14.056   0.946  13.229
54442SOL     OW65222   6.908   1.176   2.979
54442SOL    HW165223   6.992   1.219   2.989
54442SOL    HW265224   6.924   1.086   3.007
54443SOL     OW65225  13.186  10.822  12.411
54443SOL    HW165226  13.225  10.735  12.416
54443SOL    HW265227  13.091  10.806  12.409
54444SOL     OW65228   5.916   0.746   4.473
54444SOL    HW165229   5.950   0.801   4.543
54444SOL    HW265230   5.990   0.733   4.414
54445SOL     OW65231   1.500   0.732   8.231
54445SOL    HW165232   1.475   0.675   8.303
54445SOL    HW265233   1.426   0.791   8.220
54446SOL     OW65234   8.174  11.175   1.650
54446SOL    HW165235   8.249  11.235   1.641
54446SOL    HW265236   8.200  11.096   1.601
54447SOL     OW65237   6.200  13.511   7.780
54447SOL    HW165238   6.283  13.513   7.734
54447SOL    HW265239   6.214  13.565   7.858
54448SOL     OW65240   5.902  14.377   1.563
54448SOL    HW165241   5.922  14.443   1.629
54448SOL    HW265242   5.821  14.408   1.522
54449SOL     OW65243   1.014  13.202   7.142
54449SOL    HW165244   1.004  13.120   7.095
54449SOL    HW265245   1.109  13.214   7.149
54450SOL     OW65246  12.448   6.152   0.665
54450SOL    HW165247  12.433   6.243   0.643
54450SOL    HW265248  12.538   6.135   0.637
54451SOL     OW65249  13.386   4.376   7.311
54451SOL    HW165250  13.470   4.331   7.317
54451SOL    HW265251  13.377   4.421   7.395
54452SOL     OW65252  11.013   2.524   8.688
54452SOL    HW165253  11.007   2.457   8.756
54452SOL    HW265254  11.067   2.593   8.726
54453SOL     OW65255  12.416  12.770   9.536
54453SOL    HW165256  12.433  12.676   9.534
54453SOL    HW265257  12.338  12.779   9.590
54454SOL     OW65258   1.208   6.156   0.568
54454SOL    HW165259   1.159   6.129   0.645
54454SOL    HW265260   1.212   6.078   0.513
54455SOL     OW65261   6.961  14.079   0.381
54455SOL    HW165262   7.003  14.163   0.362
54455SOL    HW265263   7.029  14.014   0.367
54456SOL     OW65264   9.047   7.467  12.439
54456SOL    HW165265   8.990   7.520  12.383
54456SOL    HW265266   8.994   7.391  12.462
54457SOL     OW65267   2.505   5.267  10.929
54457SOL    HW165268   2.444   5.312  10.871
54457SOL    HW265269   2.574   5.234  10.871
54458SOL     OW65270  13.332  13.064   9.509
54458SOL    HW165271  13.383  13.133   9.552
54458SOL    HW265272  13.268  13.037   9.575
54459SOL     OW65273   9.657  10.776  10.750
54459SOL    HW165274   9.658  10.856  10.801
54459SOL    HW265275   9.586  10.724  10.787
54460SOL     OW65276   0.307  11.786   4.841
54460SOL    HW165277   0.319  11.854   4.908
54460SOL    HW265278   0.363  11.814   4.768
54461SOL     OW65279  14.214   0.427   8.143
54461SOL    HW165280  14.304   0.411   8.170
54461SOL    HW265281  14.169   0.456   8.222
54462SOL     OW65282   7.139   0.854  12.617
54462SOL    HW165283   7.170   0.838  12.528
54462SOL    HW265284   7.213   0.894  12.661
54463SOL     OW65285   7.990   3.179   7.179
54463SOL    HW165286   7.911   3.167   7.232
54463SOL    HW265287   8.019   3.268   7.198
54464SOL     OW65288  10.766   4.910   4.270
54464SOL    HW165289  10.819   4.900   4.350
54464SOL    HW265290  10.802   4.988   4.227
54465SOL     OW65291   2.678   8.685   1.024
54465SOL    HW165292   2.600   8.700   1.077
54465SOL    HW265293   2.689   8.766   0.974
54466SOL     OW65294   7.674  10.497   6.059
54466SOL    HW165295   7.595  10.516   6.010
54466SOL    HW265296   7.647  10.503   6.151
54467SOL     OW65297   1.662   2.672   9.292
54467SOL    HW165298   1.654   2.734   9.364
54467SOL    HW265299   1.579   2.623   9.294
54468SOL     OW65300   3.725   7.210   2.649
54468SOL    HW165301   3.698   7.184   2.737
54468SOL    HW265302   3.810   7.254   2.662
54469SOL     OW65303   0.057   0.855  10.922
54469SOL    HW165304   0.107   0.919  10.871
54469SOL    HW265305   0.048   0.779  10.864
54470SOL     OW65306   5.998   5.082   5.220
54470SOL    HW165307   5.936   5.103   5.150
54470SOL    HW265308   6.034   4.997   5.195
54471SOL     OW65309   2.437   7.386  14.442
54471SOL    HW165310   2.342   7.374  14.454
54471SOL    HW265311   2.468   7.415  14.528
54472SOL     OW65312   6.188   1.419   4.846
54472SOL    HW165313   6.186   1.415   4.750
54472SOL    HW265314   6.280   1.410   4.868
54473SOL     OW65315  12.794  13.184   5.116
54473SOL    HW165316  12.774  13.101   5.071
54473SOL    HW265317  12.788  13.251   5.048
54474SOL     OW65318   9.504   5.130   8.299
54474SOL    HW165319   9.518   5.120   8.204
54474SOL    HW265320   9.580   5.088   8.339
54475SOL     OW65321   2.508   1.043   8.709
54475SOL    HW165322   2.465   0.959   8.697
54475SOL    HW265323   2.515   1.054   8.804
54476SOL     OW65324   8.819   1.659   1.374
54476SOL    HW165325   8.796   1.569   1.352
54476SOL    HW265326   8.860   1.694   1.295
54477SOL     OW65327  10.791   1.812   5.398
54477SOL    HW165328  10.705   1.791   5.434
54477SOL    HW265329  10.808   1.901   5.428
54478SOL     OW65330   3.223  11.373   8.609
54478SOL    HW165331   3.280  11.297   8.594
54478SOL    HW265332   3.135  11.341   8.590
54479SOL     OW65333  13.303  12.670   5.267
54479SOL    HW165334  13.341  12.588   5.300
54479SOL    HW265335  13.362  12.738   5.299
54480SOL     OW65336   9.824   3.984   9.250
54480SOL    HW165337   9.914   4.004   9.225
54480SOL    HW265338   9.828   3.967   9.345
54481SOL     OW65339   7.959   0.469   5.057
54481SOL    HW165340   7.905   0.463   4.979
54481SOL    HW265341   8.019   0.542   5.040
54482SOL     OW65342  13.335   3.206   5.006
54482SOL    HW165343  13.387   3.131   4.976
54482SOL    HW265344  13.385   3.282   4.977
54483SOL     OW65345   2.011   6.067   3.936
54483SOL    HW165346   1.994   6.068   3.842
54483SOL    HW265347   1.944   6.009   3.972
54484SOL     OW65348  13.968  10.339  11.109
54484SOL    HW165349  13.974  10.433  11.090
54484SOL    HW265350  13.911  10.305  11.040
54485SOL     OW65351   5.670   5.555   3.464
54485SOL    HW165352   5.647   5.635   3.511
54485SOL    HW265353   5.711   5.586   3.383
54486SOL     OW65354   4.222   5.056   3.008
54486SOL    HW165355   4.300   5.105   3.034
54486SOL    HW265356   4.238   5.031   2.917
54487SOL     OW65357   4.454   2.580   6.432
54487SOL    HW165358   4.478   2.492   6.404
54487SOL    HW265359   4.531   2.613   6.477
54488SOL     OW65360  13.915  10.165  12.319
54488SOL    HW165361  13.970  10.151  12.242
54488SOL    HW265362  13.827  10.141  12.289
54489SOL     OW65363   3.843   1.923   5.910
54489SOL    HW165364   3.922   1.912   5.857
54489SOL    HW265365   3.848   2.012   5.943
54490SOL     OW65366  12.304  10.212   0.226
54490SOL    HW165367  12.297  10.267   0.148
54490SOL    HW265368  12.351  10.134   0.197
54491SOL     OW65369   6.364   6.094   6.377
54491SOL    HW165370   6.326   6.179   6.353
54491SOL    HW265371   6.326   6.075   6.464
54492SOL     OW65372   6.516   5.337   7.602
54492SOL    HW165373   6.564   5.404   7.651
54492SOL    HW265374   6.582   5.294   7.548
54493SOL     OW65375  10.169   9.834   7.547
54493SOL    HW165376  10.168   9.802   7.456
54493SOL    HW265377  10.081   9.816   7.579
54494SOL     OW65378   5.259   4.950   6.675
54494SOL    HW165379   5.345   4.941   6.634
54494SOL    HW265380   5.257   5.040   6.707
54495SOL     OW65381   3.724  10.861   8.225
54495SOL    HW165382   3.771  10.930   8.271
54495SOL    HW265383   3.791  10.798   8.201
54496SOL     OW65384   6.579   5.534  13.590
54496SOL    HW165385   6.631   5.482  13.653
54496SOL    HW265386   6.518   5.583  13.645
54497SOL     OW65387   8.933  13.968  13.299
54497SOL    HW165388   8.845  14.002  13.287
54497SOL    HW265389   8.931  13.927  13.386
54498SOL     OW65390   2.985   3.840  13.913
54498SOL    HW165391   2.916   3.890  13.956
54498SOL    HW265392   2.969   3.853  13.819
54499SOL     OW65393   0.646   0.778  12.239
54499SOL    HW165394   0.653   0.873  12.234
54499SOL    HW265395   0.698   0.754  12.315
54500SOL     OW65396  14.619   1.435  11.714
54500SOL    HW165397  14.538   1.386  11.729
54500SOL    HW265398  14.639   1.420  11.622
54501SOL     OW65399   3.271  10.204   4.380
54501SOL    HW165400   3.253  10.213   4.473
54501SOL    HW265401   3.327  10.280   4.359
54502SOL     OW65402  10.121   6.844   1.132
54502SOL    HW165403  10.034   6.818   1.100
54502SOL    HW265404  10.170   6.866   1.053
54503SOL     OW65405   6.222   2.887   5.669
54503SOL    HW165406   6.139   2.900   5.715
54503SOL    HW265407   6.223   2.793   5.647
54504SOL     OW65408   4.353   8.641  12.559
54504SOL    HW165409   4.446   8.631  12.539
54504SOL    HW265410   4.312   8.657  12.474
54505SOL     OW65411   8.003   4.711   2.573
54505SOL    HW165412   8.055   4.771   2.519
54505SOL    HW265413   8.035   4.624   2.550
54506SOL     OW65414   1.256   7.948  13.827
54506SOL    HW165415   1.338   7.994  13.841
54506SOL    HW265416   1.188   8.012  13.845
54507SOL     OW65417  13.414  14.765  12.520
54507SOL    HW165418  13.504  14.734  12.512
54507SOL    HW265419  13.362  14.704  12.467
54508SOL     OW65420   7.034   3.927   4.512
54508SOL    HW165421   6.939   3.930   4.525
54508SOL    HW265422   7.060   3.842   4.548
54509SOL     OW65423   4.892  12.556   2.080
54509SOL    HW165424   4.924  12.525   1.995
54509SOL    HW265425   4.971  12.570   2.132
54510SOL     OW65426   1.746   5.178   3.852
54510SOL    HW165427   1.797   5.123   3.791
54510SOL    HW265428   1.809   5.243   3.883
54511SOL     OW65429   1.255   7.227   3.597
54511SOL    HW165430   1.162   7.225   3.577
54511SOL    HW265431   1.298   7.204   3.515
54512SOL     OW65432   0.067   5.868   5.862
54512SOL    HW165433   0.006   5.899   5.796
54512SOL    HW265434   0.148   5.852   5.815
54513SOL     OW65435  13.430   4.657  13.246
54513SOL    HW165436  13.469   4.691  13.326
54513SOL    HW265437  13.391   4.574  13.272
54514SOL     OW65438  11.729   1.829   5.149
54514SOL    HW165439  11.788   1.837   5.074
54514SOL    HW265440  11.661   1.895   5.134
54515SOL     OW65441   3.143   7.906   2.040
54515SOL    HW165442   3.143   7.995   2.005
54515SOL    HW265443   3.155   7.849   1.963
54516SOL     OW65444   4.577   8.134  12.436
54516SOL    HW165445   4.511   8.135  12.366
54516SOL    HW265446   4.657   8.103  12.393
54517SOL     OW65447   5.609   7.484   6.062
54517SOL    HW165448   5.516   7.487   6.040
54517SOL    HW265449   5.617   7.410   6.122
54518SOL     OW65450  12.336   1.464   5.940
54518SOL    HW165451  12.307   1.511   6.019
54518SOL    HW265452  12.270   1.396   5.927
54519SOL     OW65453   5.562   4.245  12.172
54519SOL    HW165454   5.658   4.237  12.176
54519SOL    HW265455   5.539   4.210  12.086
54520SOL     OW65456  13.464  14.670  12.779
54520SOL    HW165457  13.475  14.576  12.764
54520SOL    HW265458  13.470  14.709  12.691
54521SOL     OW65459   4.543   5.932   9.450
54521SOL    HW165460   4.580   5.849   9.482
54521SOL    HW265461   4.511   5.975   9.529
54522SOL     OW65462  10.665   2.021   1.136
54522SOL    HW165463  10.668   2.083   1.209
54522SOL    HW265464  10.733   1.957   1.157
54523SOL     OW65465  14.338   3.975   5.716
54523SOL    HW165466  14.359   4.055   5.669
54523SOL    HW265467  14.243   3.977   5.727
54524SOL     OW65468   9.232   7.695  13.537
54524SOL    HW165469   9.220   7.751  13.460
54524SOL    HW265470   9.288   7.623  13.506
54525SOL     OW65471   5.908   2.496  10.757
54525SOL    HW165472   5.829   2.545  10.736
54525SOL    HW265473   5.921   2.511  10.851
54526SOL     OW65474   4.759   1.849   4.384
54526SOL    HW165475   4.685   1.882   4.333
54526SOL    HW265476   4.804   1.789   4.324
54527SOL     OW65477   7.158   9.865  11.479
54527SOL    HW165478   7.201   9.795  11.527
54527SOL    HW265479   7.218   9.886  11.408
54528SOL     OW65480   3.757   1.018   2.343
54528SOL    HW165481   3.841   0.975   2.328
54528SOL    HW265482   3.780   1.108   2.365
54529SOL     OW65483   8.503  13.901   2.634
54529SOL    HW165484   8.532  13.931   2.548
54529SOL    HW265485   8.532  13.969   2.695
54530SOL     OW65486   2.299   3.105  12.437
54530SOL    HW165487   2.309   3.128  12.344
54530SOL    HW265488   2.297   3.009  12.437
54531SOL     OW65489   1.355   1.486   7.293
54531SOL    HW165490   1.354   1.582   7.302
54531SOL    HW265491   1.328   1.454   7.379
54532SOL     OW65492  14.446   4.214   5.297
54532SOL    HW165493  14.468   4.282   5.234
54532SOL    HW265494  14.452   4.132   5.248
54533SOL     OW65495   6.088   7.065   0.416
54533SOL    HW165496   6.153   6.997   0.434
54533SOL    HW265497   6.139   7.145   0.404
54534SOL     OW65498  13.339   9.778  12.425
54534SOL    HW165499  13.427   9.762  12.458
54534SOL    HW265500  13.285   9.789  12.504
54535SOL     OW65501   9.622   8.829   3.753
54535SOL    HW165502   9.629   8.829   3.848
54535SOL    HW265503   9.691   8.888   3.723
54536SOL     OW65504   1.257   3.758   0.388
54536SOL    HW165505   1.288   3.729   0.474
54536SOL    HW265506   1.232   3.678   0.344
54537SOL     OW65507  12.600  13.750   3.805
54537SOL    HW165508  12.662  13.804   3.854
54537SOL    HW265509  12.595  13.791   3.718
54538SOL     OW65510   0.599   6.492   8.160
54538SOL    HW165511   0.682   6.534   8.186
54538SOL    HW265512   0.542   6.503   8.236
54539SOL     OW65513  10.095  10.877  10.380
54539SOL    HW165514  10.120  10.788  10.403
54539SOL    HW265515  10.051  10.911  10.458
54540SOL     OW65516   9.407  10.546   5.524
54540SOL    HW165517   9.359  10.624   5.498
54540SOL    HW265518   9.491  10.580   5.555
54541SOL     OW65519   3.858  11.167   0.716
54541SOL    HW165520   3.848  11.146   0.809
54541SOL    HW265521   3.871  11.083   0.673
54542SOL     OW65522  12.396   2.612  12.590
54542SOL    HW165523  12.422   2.562  12.513
54542SOL    HW265524  12.355   2.691  12.554
54543SOL     OW65525   5.661   1.650   9.743
54543SOL    HW165526   5.678   1.742   9.763
54543SOL    HW265527   5.629   1.651   9.653
54544SOL     OW65528  14.625   1.219  14.144
54544SOL    HW165529  14.710   1.227  14.187
54544SOL    HW265530  14.635   1.146  14.083
54545SOL     OW65531   6.575   6.132  14.018
54545SOL    HW165532   6.526   6.108  13.940
54545SOL    HW265533   6.604   6.222  14.002
54546SOL     OW65534   6.269  13.493   3.017
54546SOL    HW165535   6.283  13.554   2.945
54546SOL    HW265536   6.313  13.534   3.092
54547SOL     OW65537   0.129   8.516  10.557
54547SOL    HW165538   0.216   8.549  10.533
54547SOL    HW265539   0.144   8.465  10.636
54548SOL     OW65540  11.837  14.532   5.916
54548SOL    HW165541  11.850  14.585   5.995
54548SOL    HW265542  11.915  14.547   5.863
54549SOL     OW65543   3.200  13.040   5.774
54549SOL    HW165544   3.208  13.122   5.824
54549SOL    HW265545   3.107  13.034   5.753
54550SOL     OW65546   9.032  11.788  13.410
54550SOL    HW165547   8.973  11.729  13.458
54550SOL    HW265548   8.980  11.817  13.335
54551SOL     OW65549   8.235   6.326   7.460
54551SOL    HW165550   8.286   6.394   7.415
54551SOL    HW265551   8.294   6.252   7.466
54552SOL     OW65552   2.416   6.624   2.643
54552SOL    HW165553   2.346   6.684   2.669
54552SOL    HW265554   2.414   6.623   2.548
54553SOL     OW65555   2.511   4.790  12.037
54553SOL    HW165556   2.533   4.878  12.066
54553SOL    HW265557   2.476   4.747  12.115
54554SOL     OW65558   2.985   9.879  12.999
54554SOL    HW165559   2.912   9.927  12.961
54554SOL    HW265560   3.058   9.895  12.940
54555SOL     OW65561   8.613  11.767   6.323
54555SOL    HW165562   8.673  11.778   6.250
54555SOL    HW265563   8.669  11.753   6.399
54556SOL     OW65564   2.261  13.871   5.067
54556SOL    HW165565   2.289  13.884   5.158
54556SOL    HW265566   2.167  13.889   5.068
54557SOL     OW65567   6.785   4.325  13.782
54557SOL    HW165568   6.794   4.387  13.710
54557SOL    HW265569   6.709   4.272  13.758
54558SOL     OW65570  10.234  13.304   2.877
54558SOL    HW165571  10.311  13.247   2.871
54558SOL    HW265572  10.184  13.268   2.950
54559SOL     OW65573   5.061   6.762   5.826
54559SOL    HW165574   5.018   6.686   5.864
54559SOL    HW265575   5.039   6.834   5.885
54560SOL     OW65576  13.302   8.584  12.917
54560SOL    HW165577  13.285   8.500  12.875
54560SOL    HW265578  13.307   8.647  12.845
54561SOL     OW65579   1.555   2.548   2.428
54561SOL    HW165580   1.568   2.630   2.380
54561SOL    HW265581   1.549   2.481   2.360
54562SOL     OW65582   8.357  12.309   9.173
54562SOL    HW165583   8.424  12.265   9.224
54562SOL    HW265584   8.281  12.251   9.177
54563SOL     OW65585   0.262  10.376  13.461
54563SOL    HW165586   0.300  10.463  13.478
54563SOL    HW265587   0.338  10.317  13.460
54564SOL     OW65588   2.168   4.536  11.982
54564SOL    HW165589   2.081   4.577  11.981
54564SOL    HW265590   2.185   4.517  12.074
54565SOL     OW65591   5.117   8.796  14.238
54565SOL    HW165592   5.085   8.760  14.155
54565SOL    HW265593   5.091   8.731  14.304
54566SOL     OW65594  13.462  10.934   2.778
54566SOL    HW165595  13.445  10.841   2.796
54566SOL    HW265596  13.411  10.980   2.844
54567SOL     OW65597   0.093  14.280   3.081
54567SOL    HW165598   0.136  14.271   3.166
54567SOL    HW265599   0.036  14.203   3.075
54568SOL     OW65600   9.710   0.514   0.764
54568SOL    HW165601   9.778   0.449   0.779
54568SOL    HW265602   9.628   0.466   0.774
54569SOL     OW65603  13.324  13.787  11.899
54569SOL    HW165604  13.232  13.815  11.892
54569SOL    HW265605  13.326  13.705  11.850
54570SOL     OW65606   1.961   3.096  13.035
54570SOL    HW165607   1.962   3.001  13.024
54570SOL    HW265608   1.874   3.116  13.070
54571SOL     OW65609   6.270   7.071  13.828
54571SOL    HW165610   6.205   7.140  13.818
54571SOL    HW265611   6.353   7.117  13.836
54572SOL     OW65612   6.342   9.302   9.024
54572SOL    HW165613   6.432   9.323   9.050
54572SOL    HW265614   6.298   9.280   9.106
54573SOL     OW65615   2.436   4.839  11.634
54573SOL    HW165616   2.412   4.929  11.610
54573SOL    HW265617   2.367   4.812  11.695
54574SOL     OW65618   9.162  12.769   4.393
54574SOL    HW165619   9.229  12.833   4.417
54574SOL    HW265620   9.211  12.691   4.367
54575SOL     OW65621  11.577  13.089  11.646
54575SOL    HW165622  11.568  13.139  11.565
54575SOL    HW265623  11.669  13.099  11.670
54576SOL     OW65624  11.886   4.622   7.668
54576SOL    HW165625  11.966   4.641   7.716
54576SOL    HW265626  11.900   4.534   7.632
54577SOL     OW65627   0.015   0.389   5.994
54577SOL    HW165628   0.012   0.294   6.004
54577SOL    HW265629  14.834   0.407   5.919
54578SOL     OW65630   3.789   8.301  12.512
54578SOL    HW165631   3.763   8.342  12.430
54578SOL    HW265632   3.880   8.274  12.498
54579SOL     OW65633   3.047   3.107  10.163
54579SOL    HW165634   2.987   3.076  10.096
54579SOL    HW265635   3.010   3.189  10.193
54580SOL     OW65636   5.035   0.466  14.755
54580SOL    HW165637   4.975   0.440  14.685
54580SOL    HW265638   5.116   0.489  14.711
54581SOL     OW65639   6.505  10.640   9.801
54581SOL    HW165640   6.561  10.673   9.731
54581SOL    HW265641   6.416  10.654   9.769
54582SOL     OW65642   9.373   2.991   5.058
54582SOL    HW165643   9.433   3.059   5.088
54582SOL    HW265644   9.399   2.974   4.968
54583SOL     OW65645   5.589  14.333   2.637
54583SOL    HW165646   5.661  14.362   2.694
54583SOL    HW265647   5.589  14.238   2.644
54584SOL     OW65648  11.647   0.872   4.575
54584SOL    HW165649  11.738   0.860   4.548
54584SOL    HW265650  11.631   0.965   4.563
54585SOL     OW65651  13.061   2.828  11.482
54585SOL    HW165652  13.093   2.840  11.393
54585SOL    HW265653  13.095   2.904  11.530
54586SOL     OW65654   8.206   5.569  12.805
54586SOL    HW165655   8.253   5.651  12.794
54586SOL    HW265656   8.258   5.520  12.869
54587SOL     OW65657  13.196  10.753  14.479
54587SOL    HW165658  13.162  10.758  14.389
54587SOL    HW265659  13.277  10.803  14.477
54588SOL     OW65660   7.431   4.287   3.675
54588SOL    HW165661   7.397   4.363   3.628
54588SOL    HW265662   7.450   4.223   3.607
54589SOL     OW65663   8.435   5.322   1.693
54589SOL    HW165664   8.454   5.411   1.662
54589SOL    HW265665   8.404   5.277   1.614
54590SOL     OW65666   2.921   6.777   3.322
54590SOL    HW165667   2.997   6.796   3.378
54590SOL    HW265668   2.952   6.709   3.262
54591SOL     OW65669   0.290   2.500  12.441
54591SOL    HW165670   0.204   2.531  12.470
54591SOL    HW265671   0.272   2.449  12.363
54592SOL     OW65672  10.931  10.609   1.884
54592SOL    HW165673  10.962  10.675   1.946
54592SOL    HW265674  10.962  10.641   1.799
54593SOL     OW65675   2.808  11.777   6.551
54593SOL    HW165676   2.842  11.719   6.483
54593SOL    HW265677   2.882  11.832   6.574
54594SOL     OW65678   3.739   5.250   0.114
54594SOL    HW165679   3.744   5.290   0.027
54594SOL    HW265680   3.830   5.249   0.144
54595SOL     OW65681   4.377   1.912   2.691
54595SOL    HW165682   4.296   1.870   2.717
54595SOL    HW265683   4.433   1.841   2.660
54596SOL     OW65684   9.326  10.887   9.650
54596SOL    HW165685   9.300  10.920   9.736
54596SOL    HW265686   9.244  10.872   9.603
54597SOL     OW65687   1.125   7.648   8.093
54597SOL    HW165688   1.137   7.583   8.025
54597SOL    HW265689   1.068   7.605   8.158
54598SOL     OW65690   3.653  10.710   1.659
54598SOL    HW165691   3.699  10.626   1.657
54598SOL    HW265692   3.651  10.735   1.751
54599SOL     OW65693   1.951   9.212   7.487
54599SOL    HW165694   1.975   9.233   7.577
54599SOL    HW265695   1.969   9.118   7.479
54600SOL     OW65696  13.353  10.484   7.321
54600SOL    HW165697  13.330  10.538   7.246
54600SOL    HW265698  13.410  10.540   7.375
54601SOL     OW65699  14.567   8.721   9.100
54601SOL    HW165700  14.565   8.682   9.013
54601SOL    HW265701  14.555   8.646   9.159
54602SOL     OW65702   4.684  10.037   4.057
54602SOL    HW165703   4.673  10.098   4.129
54602SOL    HW265704   4.770   9.997   4.071
54603SOL     OW65705  12.751   6.719   5.045
54603SOL    HW165706  12.810   6.663   4.994
54603SOL    HW265707  12.705   6.771   4.979
54604SOL     OW65708   3.554  10.840  10.441
54604SOL    HW165709   3.527  10.753  10.472
54604SOL    HW265710   3.472  10.889  10.433
54605SOL     OW65711  10.381   4.146   7.565
54605SOL    HW165712  10.374   4.061   7.609
54605SOL    HW265713  10.384   4.210   7.636
54606SOL     OW65714   7.412   0.336  11.628
54606SOL    HW165715   7.332   0.387  11.638
54606SOL    HW265716   7.479   0.387  11.674
54607SOL     OW65717  11.566  12.910  14.113
54607SOL    HW165718  11.544  12.906  14.020
54607SOL    HW265719  11.529  12.830  14.150
54608SOL     OW65720  14.265  10.528   5.472
54608SOL    HW165721  14.360  10.522   5.475
54608SOL    HW265722  14.246  10.578   5.392
54609SOL     OW65723   8.825  12.254   0.287
54609SOL    HW165724   8.785  12.301   0.214
54609SOL    HW265725   8.751  12.223   0.339
54610SOL     OW65726   4.998   0.959   8.325
54610SOL    HW165727   5.022   0.866   8.334
54610SOL    HW265728   4.928   0.971   8.389
54611SOL     OW65729   0.851   0.414   8.274
54611SOL    HW165730   0.897   0.345   8.323
54611SOL    HW265731   0.907   0.491   8.284
54612SOL     OW65732   5.205   3.549   9.091
54612SOL    HW165733   5.228   3.467   9.046
54612SOL    HW265734   5.271   3.558   9.160
54613SOL     OW65735  12.101   3.307   1.132
54613SOL    HW165736  12.090   3.402   1.129
54613SOL    HW265737  12.132   3.284   1.044
54614SOL     OW65738   3.280   9.918   3.772
54614SOL    HW165739   3.314   9.937   3.859
54614SOL    HW265740   3.193   9.880   3.788
54615SOL     OW65741   8.715  11.071   4.779
54615SOL    HW165742   8.716  11.139   4.711
54615SOL    HW265743   8.804  11.072   4.814
54616SOL     OW65744  11.921   5.561   5.721
54616SOL    HW165745  11.845   5.541   5.666
54616SOL    HW265746  11.968   5.478   5.729
54617SOL     OW65747   6.259  10.425   7.561
54617SOL    HW165748   6.216  10.340   7.548
54617SOL    HW265749   6.319  10.410   7.633
54618SOL     OW65750   8.946  14.647  12.225
54618SOL    HW165751   9.018  14.588  12.247
54618SOL    HW265752   8.989  14.728  12.197
54619SOL     OW65753   6.248   8.905  13.357
54619SOL    HW165754   6.160   8.893  13.394
54619SOL    HW265755   6.238   8.880  13.265
54620SOL     OW65756   8.613  10.063   3.746
54620SOL    HW165757   8.674  10.069   3.820
54620SOL    HW265758   8.527  10.050   3.786
54621SOL     OW65759   2.439   8.700  12.141
54621SOL    HW165760   2.506   8.703  12.072
54621SOL    HW265761   2.358   8.723  12.096
54622SOL     OW65762   0.029   5.866   3.608
54622SOL    HW165763   0.091   5.878   3.680
54622SOL    HW265764   0.029   5.950   3.562
54623SOL     OW65765   9.595   1.872   7.737
54623SOL    HW165766   9.624   1.961   7.759
54623SOL    HW265767   9.597   1.869   7.641
54624SOL     OW65768   4.185  12.513   7.862
54624SOL    HW165769   4.162  12.521   7.769
54624SOL    HW265770   4.102  12.528   7.908
54625SOL     OW65771  10.283   4.208  11.863
54625SOL    HW165772  10.210   4.156  11.895
54625SOL    HW265773  10.322   4.155  11.793
54626SOL     OW65774   3.273  12.439  14.508
54626SOL    HW165775   3.333  12.394  14.448
54626SOL    HW265776   3.214  12.488  14.450
54627SOL     OW65777  13.987   0.986   6.688
54627SOL    HW165778  14.022   1.075   6.695
54627SOL    HW265779  13.900   0.998   6.649
54628SOL     OW65780  12.367  14.380   3.933
54628SOL    HW165781  12.332  14.465   3.910
54628SOL    HW265782  12.462  14.393   3.935
54629SOL     OW65783  11.876   6.910   4.513
54629SOL    HW165784  11.881   6.849   4.586
54629SOL    HW265785  11.830   6.986   4.548
54630SOL     OW65786   7.617   8.411   3.660
54630SOL    HW165787   7.631   8.333   3.605
54630SOL    HW265788   7.700   8.421   3.707
54631SOL     OW65789   0.213   6.043   9.446
54631SOL    HW165790   0.165   6.125   9.457
54631SOL    HW265791   0.190   6.013   9.357
54632SOL     OW65792   4.906   3.820   2.780
54632SOL    HW165793   4.851   3.898   2.788
54632SOL    HW265794   4.968   3.828   2.852
54633SOL     OW65795  11.444   6.502   5.377
54633SOL    HW165796  11.432   6.472   5.467
54633SOL    HW265797  11.393   6.440   5.324
54634SOL     OW65798   6.048   6.866   5.230
54634SOL    HW165799   6.098   6.851   5.149
54634SOL    HW265800   5.963   6.897   5.200
54635SOL     OW65801  12.661   1.707   1.137
54635SOL    HW165802  12.680   1.800   1.121
54635SOL    HW265803  12.604   1.681   1.065
54636SOL     OW65804   2.191   9.692   9.483
54636SOL    HW165805   2.114   9.735   9.445
54636SOL    HW265806   2.247   9.672   9.408
54637SOL     OW65807   1.842   9.466  10.169
54637SOL    HW165808   1.755   9.428  10.153
54637SOL    HW265809   1.860   9.447  10.261
54638SOL     OW65810  11.084  13.210   6.014
54638SOL    HW165811  11.040  13.131   6.045
54638SOL    HW265812  11.027  13.282   6.041
54639SOL     OW65813   0.846   5.137   9.338
54639SOL    HW165814   0.876   5.224   9.312
54639SOL    HW265815   0.815   5.148   9.428
54640SOL     OW65816   9.680  10.606   7.277
54640SOL    HW165817   9.692  10.653   7.194
54640SOL    HW265818   9.609  10.654   7.320
54641SOL     OW65819  13.056  12.768   7.084
54641SOL    HW165820  13.018  12.789   6.999
54641SOL    HW265821  13.063  12.852   7.129
54642SOL     OW65822  11.138   5.552  14.223
54642SOL    HW165823  11.084   5.556  14.302
54642SOL    HW265824  11.101   5.479  14.173
54643SOL     OW65825   4.956   4.520   5.633
54643SOL    HW165826   4.906   4.462   5.575
54643SOL    HW265827   5.021   4.462   5.674
54644SOL     OW65828  10.490   4.845  13.183
54644SOL    HW165829  10.405   4.839  13.226
54644SOL    HW265830  10.541   4.772  13.219
54645SOL     OW65831   8.359   5.780   6.080
54645SOL    HW165832   8.416   5.732   6.141
54645SOL    HW265833   8.313   5.711   6.032
54646SOL     OW65834   0.973  13.627   0.779
54646SOL    HW165835   0.959  13.578   0.698
54646SOL    HW265836   1.018  13.707   0.751
54647SOL     OW65837   0.340   9.416   7.662
54647SOL    HW165838   0.357   9.479   7.592
54647SOL    HW265839   0.247   9.396   7.654
54648SOL     OW65840   2.969  11.636  14.292
54648SOL    HW165841   2.974  11.727  14.263
54648SOL    HW265842   3.035  11.630  14.361
54649SOL     OW65843   8.378   0.680  12.468
54649SOL    HW165844   8.400   0.627  12.544
54649SOL    HW265845   8.300   0.729  12.495
54650SOL     OW65846   3.461  11.547   2.340
54650SOL    HW165847   3.538  11.493   2.359
54650SOL    HW265848   3.388  11.499   2.381
54651SOL     OW65849   6.783   6.999  10.372
54651SOL    HW165850   6.824   6.944  10.439
54651SOL    HW265851   6.798   7.089  10.401
54652SOL     OW65852   4.870  10.849   0.195
54652SOL    HW165853   4.897  10.817   0.281
54652SOL    HW265854   4.867  10.944   0.204
54653SOL     OW65855   1.261  14.577   7.658
54653SOL    HW165856   1.335  14.628   7.691
54653SOL    HW265857   1.195  14.583   7.726
54654SOL     OW65858  11.552  14.733  11.582
54654SOL    HW165859  11.470  14.687  11.567
54654SOL    HW265860  11.619  14.677  11.542
54655SOL     OW65861   9.976   3.731   0.123
54655SOL    HW165862   9.896   3.782   0.118
54655SOL    HW265863  10.002   3.737   0.215
54656SOL     OW65864  11.989  10.809   0.499
54656SOL    HW165865  11.964  10.767   0.417
54656SOL    HW265866  12.084  10.796   0.504
54657SOL     OW65867   6.637  11.242   1.457
54657SOL    HW165868   6.550  11.233   1.496
54657SOL    HW265869   6.685  11.297   1.519
54658SOL     OW65870   8.084   6.592  11.027
54658SOL    HW165871   8.082   6.503  11.062
54658SOL    HW265872   7.995   6.624  11.039
54659SOL     OW65873   9.452  12.262   6.907
54659SOL    HW165874   9.392  12.276   6.980
54659SOL    HW265875   9.510  12.338   6.907
54660SOL     OW65876  13.697  10.118   2.201
54660SOL    HW165877  13.753  10.053   2.158
54660SOL    HW265878  13.627  10.135   2.139
54661SOL     OW65879   3.789   9.218  14.523
54661SOL    HW165880   3.816   9.148  14.583
54661SOL    HW265881   3.779   9.295  14.578
54662SOL     OW65882  11.907  13.593  11.009
54662SOL    HW165883  11.980  13.601  11.071
54662SOL    HW265884  11.889  13.499  11.005
54663SOL     OW65885   2.156   5.926   7.418
54663SOL    HW165886   2.128   5.835   7.425
54663SOL    HW265887   2.146   5.947   7.325
54664SOL     OW65888   8.634   0.378   6.594
54664SOL    HW165889   8.638   0.474   6.588
54664SOL    HW265890   8.693   0.347   6.526
54665SOL     OW65891  14.631   8.896   9.373
54665SOL    HW165892  14.548   8.850   9.378
54665SOL    HW265893  14.619   8.974   9.428
54666SOL     OW65894  14.778  13.124   9.131
54666SOL    HW165895  14.826  13.071   9.068
54666SOL    HW265896  14.840  13.140   9.202
54667SOL     OW65897   8.207   8.499  13.125
54667SOL    HW165898   8.276   8.444  13.162
54667SOL    HW265899   8.127   8.468  13.167
54668SOL     OW65900   9.592   0.470   0.058
54668SOL    HW165901   9.576   0.546   0.115
54668SOL    HW265902   9.686   0.475   0.038
54669SOL     OW65903   6.093  10.787   1.886
54669SOL    HW165904   6.144  10.838   1.823
54669SOL    HW265905   6.015  10.839   1.902
54670SOL     OW65906   1.156   3.636   8.562
54670SOL    HW165907   1.233   3.592   8.599
54670SOL    HW265908   1.089   3.625   8.630
54671SOL     OW65909   1.536   7.730  10.235
54671SOL    HW165910   1.444   7.712  10.215
54671SOL    HW265911   1.580   7.720  10.151
54672SOL     OW65912   3.299   4.543   9.680
54672SOL    HW165913   3.337   4.584   9.603
54672SOL    HW265914   3.357   4.470   9.700
54673SOL     OW65915   1.307  14.299   0.371
54673SOL    HW165916   1.289  14.391   0.392
54673SOL    HW265917   1.272  14.250   0.445
54674SOL     OW65918  12.592   5.365   6.773
54674SOL    HW165919  12.518   5.310   6.797
54674SOL    HW265920  12.583   5.443   6.828
54675SOL     OW65921   3.074  11.956  11.004
54675SOL    HW165922   3.079  11.915  10.917
54675SOL    HW265923   3.089  12.049  10.988
54676SOL     OW65924  11.379   1.668   7.529
54676SOL    HW165925  11.445   1.735   7.546
54676SOL    HW265926  11.300   1.699   7.573
54677SOL     OW65927   2.543   3.589  12.168
54677SOL    HW165928   2.477   3.634  12.115
54677SOL    HW265929   2.508   3.593  12.257
54678SOL     OW65930   3.754  13.518   7.773
54678SOL    HW165931   3.696  13.542   7.701
54678SOL    HW265932   3.713  13.442   7.813
54679SOL     OW65933   6.826   6.510   6.498
54679SOL    HW165934   6.831   6.566   6.576
54679SOL    HW265935   6.910   6.523   6.454
54680SOL     OW65936  11.082  13.363   3.628
54680SOL    HW165937  11.092  13.437   3.569
54680SOL    HW265938  11.051  13.402   3.710
54681SOL     OW65939   2.406  14.607   3.317
54681SOL    HW165940   2.367  14.690   3.288
54681SOL    HW265941   2.401  14.550   3.240
54682SOL     OW65942   5.912   3.265   4.877
54682SOL    HW165943   6.006   3.277   4.861
54682SOL    HW265944   5.869   3.304   4.801
54683SOL     OW65945  12.950   7.276   4.199
54683SOL    HW165946  12.904   7.313   4.124
54683SOL    HW265947  12.881   7.255   4.262
54684SOL     OW65948   4.485   4.062   6.967
54684SOL    HW165949   4.441   3.978   6.977
54684SOL    HW265950   4.577   4.043   6.985
54685SOL     OW65951   0.364   6.154  11.179
54685SOL    HW165952   0.415   6.228  11.211
54685SOL    HW265953   0.395   6.140  11.090
54686SOL     OW65954   8.482   8.476   0.216
54686SOL    HW165955   8.524   8.561   0.201
54686SOL    HW265956   8.518   8.420   0.147
54687SOL     OW65957   0.941  10.418  10.493
54687SOL    HW165958   1.015  10.384  10.542
54687SOL    HW265959   0.877  10.347  10.493
54688SOL     OW65960   7.721   9.983   2.046
54688SOL    HW165961   7.654  10.022   1.990
54688SOL    HW265962   7.681   9.903   2.081
54689SOL     OW65963   1.759  14.408   9.155
54689SOL    HW165964   1.769  14.337   9.092
54689SOL    HW265965   1.745  14.486   9.101
54690SOL     OW65966  13.211   1.692  10.769
54690SOL    HW165967  13.285   1.684  10.829
54690SOL    HW265968  13.195   1.603  10.738
54691SOL     OW65969  13.457  13.674  11.519
54691SOL    HW165970  13.482  13.672  11.611
54691SOL    HW265971  13.363  13.690  11.519
54692SOL     OW65972  12.570  11.160  11.923
54692SOL    HW165973  12.518  11.094  11.877
54692SOL    HW265974  12.523  11.175  12.004
54693SOL     OW65975   5.962  12.425   1.258
54693SOL    HW165976   6.039  12.482   1.259
54693SOL    HW265977   5.893  12.479   1.219
54694SOL     OW65978   7.599   3.522   6.396
54694SOL    HW165979   7.658   3.447   6.403
54694SOL    HW265980   7.516   3.490   6.433
54695SOL     OW65981  11.259  11.005  14.415
54695SOL    HW165982  11.302  11.034  14.495
54695SOL    HW265983  11.329  11.000  14.351
54696SOL     OW65984  12.400   2.380   1.060
54696SOL    HW165985  12.361   2.372   0.973
54696SOL    HW265986  12.453   2.459   1.055
54697SOL     OW65987  11.702   4.008   8.856
54697SOL    HW165988  11.616   4.011   8.899
54697SOL    HW265989  11.683   3.987   8.765
54698SOL     OW65990   1.456   6.014   4.570
54698SOL    HW165991   1.551   6.031   4.573
54698SOL    HW265992   1.422   6.078   4.508
54699SOL     OW65993   3.784   6.369   4.563
54699SOL    HW165994   3.710   6.420   4.530
54699SOL    HW265995   3.845   6.365   4.489
54700SOL     OW65996   7.491   6.407   9.971
54700SOL    HW165997   7.503   6.405  10.066
54700SOL    HW265998   7.572   6.447   9.938
54701SOL     OW65999   9.502  14.555   0.217
54701SOL    HW166000   9.589  14.549   0.258
54701SOL    HW266001   9.463  14.633   0.256
54702SOL     OW66002  11.260   1.055  11.524
54702SOL    HW166003  11.338   1.105  11.499
54702SOL    HW266004  11.198   1.072  11.454
54703SOL     OW66005   0.168   2.755  13.696
54703SOL    HW166006   0.185   2.661  13.691
54703SOL    HW266007   0.166   2.784  13.605
54704SOL     OW66008  11.730  13.076   6.235
54704SOL    HW166009  11.688  13.136   6.173
54704SOL    HW266010  11.820  13.068   6.205
54705SOL     OW66011   1.868   4.372   0.386
54705SOL    HW166012   1.816   4.294   0.363
54705SOL    HW266013   1.807   4.427   0.435
54706SOL     OW66014  13.460   2.367   2.520
54706SOL    HW166015  13.516   2.443   2.502
54706SOL    HW266016  13.371   2.403   2.525
54707SOL     OW66017  13.588   9.598   0.800
54707SOL    HW166018  13.631   9.676   0.835
54707SOL    HW266019  13.516   9.581   0.861
54708SOL     OW66020   5.210   3.201  12.011
54708SOL    HW166021   5.158   3.280  12.025
54708SOL    HW266022   5.145   3.132  11.999
54709SOL     OW66023   1.277   8.759   0.378
54709SOL    HW166024   1.207   8.704   0.344
54709SOL    HW266025   1.267   8.755   0.474
54710SOL     OW66026   1.381   6.603  10.699
54710SOL    HW166027   1.378   6.696  10.720
54710SOL    HW266028   1.425   6.563  10.774
54711SOL     OW66029   3.515  14.117   3.666
54711SOL    HW166030   3.555  14.204   3.670
54711SOL    HW266031   3.433  14.126   3.714
54712SOL     OW66032   4.834   8.412   7.034
54712SOL    HW166033   4.915   8.410   7.086
54712SOL    HW266034   4.798   8.323   7.044
54713SOL     OW66035   5.608   3.018   5.978
54713SOL    HW166036   5.630   3.043   6.067
54713SOL    HW266037   5.677   2.956   5.952
54714SOL     OW66038   9.881  11.037  11.804
54714SOL    HW166039   9.935  11.078  11.872
54714SOL    HW266040   9.934  11.041  11.725
54715SOL     OW66041   9.494  14.537   6.398
54715SOL    HW166042   9.587  14.542   6.420
54715SOL    HW266043   9.488  14.577   6.311
54716SOL     OW66044   5.347   0.317  13.028
54716SOL    HW166045   5.324   0.233  13.068
54716SOL    HW266046   5.264   0.363  13.021
54717SOL     OW66047   5.624   3.755   2.591
54717SOL    HW166048   5.573   3.675   2.578
54717SOL    HW266049   5.685   3.757   2.518
54718SOL     OW66050   8.309  14.873   3.399
54718SOL    HW166051   8.296  14.824   3.479
54718SOL    HW266052   8.354  14.812   3.340
54719SOL     OW66053  11.556   7.661   0.630
54719SOL    HW166054  11.556   7.580   0.578
54719SOL    HW266055  11.639   7.659   0.677
54720SOL     OW66056   0.765  12.943  11.038
54720SOL    HW166057   0.801  12.856  11.057
54720SOL    HW266058   0.720  12.932  10.955
54721SOL     OW66059   0.434   3.855   8.423
54721SOL    HW166060   0.359   3.865   8.364
54721SOL    HW266061   0.452   3.761   8.423
54722SOL     OW66062   0.848  13.588   9.031
54722SOL    HW166063   0.764  13.633   9.040
54722SOL    HW266064   0.874  13.568   9.121
54723SOL     OW66065  13.407   6.357   8.455
54723SOL    HW166066  13.363   6.300   8.518
54723SOL    HW266067  13.496   6.323   8.451
54724SOL     OW66068  12.542   5.189   8.061
54724SOL    HW166069  12.630   5.152   8.062
54724SOL    HW266070  12.487   5.123   8.104
54725SOL     OW66071  11.527  12.503  11.499
54725SOL    HW166072  11.622  12.500  11.500
54725SOL    HW266073  11.505  12.551  11.419
54726SOL     OW66074   7.361   0.336   7.990
54726SOL    HW166075   7.346   0.242   7.985
54726SOL    HW266076   7.274   0.374   7.998
54727SOL     OW66077  12.162   5.886   9.012
54727SOL    HW166078  12.191   5.977   9.023
54727SOL    HW266079  12.223   5.848   8.949
54728SOL     OW66080   8.141   1.653   3.091
54728SOL    HW166081   8.181   1.668   3.176
54728SOL    HW266082   8.187   1.713   3.032
54729SOL     OW66083   9.866  12.890  14.454
54729SOL    HW166084   9.859  12.984  14.438
54729SOL    HW266085   9.960  12.873  14.449
54730SOL     OW66086  11.307   2.697  10.509
54730SOL    HW166087  11.293   2.704  10.603
54730SOL    HW266088  11.402   2.689  10.500
54731SOL     OW66089   0.362   5.880  14.696
54731SOL    HW166090   0.308   5.953  14.726
54731SOL    HW266091   0.434   5.921  14.648
54732SOL     OW66092   5.012   5.257   3.560
54732SOL    HW166093   4.926   5.214   3.563
54732SOL    HW266094   5.075   5.185   3.568
54733SOL     OW66095  11.672   1.580  13.632
54733SOL    HW166096  11.646   1.621  13.550
54733SOL    HW266097  11.702   1.652  13.688
54734SOL     OW66098   4.494   0.546   6.276
54734SOL    HW166099   4.527   0.570   6.189
54734SOL    HW266100   4.522   0.619   6.332
54735SOL     OW66101   3.809   3.698   5.383
54735SOL    HW166102   3.773   3.747   5.308
54735SOL    HW266103   3.885   3.653   5.348
54736SOL     OW66104   0.178   6.540   1.100
54736SOL    HW166105   0.218   6.582   1.024
54736SOL    HW266106   0.238   6.468   1.122
54737SOL     OW66107   1.451   4.017   0.673
54737SOL    HW166108   1.510   4.092   0.672
54737SOL    HW266109   1.371   4.050   0.713
54738SOL     OW66110  12.786   2.421  14.369
54738SOL    HW166111  12.813   2.480  14.440
54738SOL    HW266112  12.844   2.345  14.377
54739SOL     OW66113   0.290  10.926  12.112
54739SOL    HW166114   0.355  10.994  12.135
54739SOL    HW266115   0.208  10.974  12.103
54740SOL     OW66116   7.305   3.969  12.350
54740SOL    HW166117   7.234   3.993  12.290
54740SOL    HW266118   7.260   3.944  12.431
54741SOL     OW66119   2.706  11.906   9.025
54741SOL    HW166120   2.787  11.877   8.982
54741SOL    HW266121   2.671  11.973   8.967
54742SOL     OW66122   5.497   6.469   0.941
54742SOL    HW166123   5.415   6.487   0.986
54742SOL    HW266124   5.526   6.385   0.976
54743SOL     OW66125   5.523   7.982   3.457
54743SOL    HW166126   5.460   7.944   3.395
54743SOL    HW266127   5.531   7.917   3.526
54744SOL     OW66128   1.246   2.923   1.688
54744SOL    HW166129   1.191   2.927   1.610
54744SOL    HW266130   1.276   2.832   1.692
54745SOL     OW66131  10.268   2.161   4.897
54745SOL    HW166132  10.316   2.116   4.966
54745SOL    HW266133  10.332   2.217   4.855
54746SOL     OW66134   8.422   7.087  14.005
54746SOL    HW166135   8.384   7.095  14.092
54746SOL    HW266136   8.504   7.040  14.019
54747SOL     OW66137   1.404   6.912   9.457
54747SOL    HW166138   1.478   6.943   9.405
54747SOL    HW266139   1.327   6.928   9.402
54748SOL     OW66140   3.075   5.561   7.546
54748SOL    HW166141   3.092   5.470   7.572
54748SOL    HW266142   3.081   5.610   7.627
54749SOL     OW66143   9.467  10.352  11.020
54749SOL    HW166144   9.538  10.378  10.961
54749SOL    HW266145   9.504  10.361  11.108
54750SOL     OW66146   1.296  10.973   9.628
54750SOL    HW166147   1.246  11.016   9.697
54750SOL    HW266148   1.372  11.028   9.615
54751SOL     OW66149   4.875   2.476   8.297
54751SOL    HW166150   4.881   2.477   8.201
54751SOL    HW266151   4.931   2.548   8.325
54752SOL     OW66152   4.019   8.677   1.951
54752SOL    HW166153   4.106   8.647   1.925
54752SOL    HW266154   4.034   8.758   2.000
54753SOL     OW66155   2.115   3.468   6.063
54753SOL    HW166156   2.066   3.459   5.982
54753SOL    HW266157   2.196   3.512   6.038
54754SOL     OW66158   8.989  13.551  13.189
54754SOL    HW166159   9.058  13.486  13.190
54754SOL    HW266160   8.982  13.581  13.280
54755SOL     OW66161  13.204   9.768   7.457
54755SOL    HW166162  13.182   9.814   7.538
54755SOL    HW266163  13.299   9.776   7.448
54756SOL     OW66164   7.768   0.264  12.891
54756SOL    HW166165   7.780   0.316  12.971
54756SOL    HW266166   7.716   0.320  12.834
54757SOL     OW66167   5.980   8.897   5.399
54757SOL    HW166168   6.003   8.878   5.308
54757SOL    HW266169   6.038   8.840   5.450
54758SOL     OW66170   6.920   2.651   6.038
54758SOL    HW166171   6.903   2.718   6.104
54758SOL    HW266172   6.858   2.580   6.060
54759SOL     OW66173   8.584   5.833   3.748
54759SOL    HW166174   8.619   5.879   3.824
54759SOL    HW266175   8.660   5.789   3.710
54760SOL     OW66176   7.216   6.677  10.261
54760SOL    HW166177   7.288   6.622  10.292
54760SOL    HW266178   7.187   6.636  10.180
54761SOL     OW66179  14.580   8.132   6.150
54761SOL    HW166180  14.649   8.125   6.084
54761SOL    HW266181  14.549   8.042   6.162
54762SOL     OW66182  14.815   6.121   5.699
54762SOL    HW166183  14.782   6.179   5.630
54762SOL    HW266184  14.875   6.061   5.655
54763SOL     OW66185  13.929  12.220   2.810
54763SOL    HW166186  13.887  12.278   2.746
54763SOL    HW266187  14.019  12.251   2.814
54764SOL     OW66188  11.264  14.689   9.328
54764SOL    HW166189  11.217  14.769   9.305
54764SOL    HW266190  11.246  14.629   9.255
54765SOL     OW66191   1.344  12.642   6.562
54765SOL    HW166192   1.288  12.658   6.487
54765SOL    HW266193   1.299  12.573   6.612
54766SOL     OW66194   3.331   4.647   8.383
54766SOL    HW166195   3.409   4.699   8.403
54766SOL    HW266196   3.365   4.558   8.371
54767SOL     OW66197  14.095   9.609  12.934
54767SOL    HW166198  14.166   9.673  12.941
54767SOL    HW266199  14.033   9.649  12.872
54768SOL     OW66200   1.245   7.384   5.236
54768SOL    HW166201   1.207   7.397   5.323
54768SOL    HW266202   1.190   7.436   5.178
54769SOL     OW66203   2.824   8.598   2.256
54769SOL    HW166204   2.783   8.535   2.197
54769SOL    HW266205   2.823   8.555   2.342
54770SOL     OW66206   1.561   3.860  11.677
54770SOL    HW166207   1.512   3.857  11.759
54770SOL    HW266208   1.637   3.915  11.696
54771SOL     OW66209   2.126   2.969   0.644
54771SOL    HW166210   2.170   2.885   0.652
54771SOL    HW266211   2.052   2.952   0.586
54772SOL     OW66212   1.121   3.630   3.530
54772SOL    HW166213   1.200   3.681   3.515
54772SOL    HW266214   1.097   3.649   3.620
54773SOL     OW66215  13.416   6.865  12.353
54773SOL    HW166216  13.423   6.849  12.258
54773SOL    HW266217  13.328   6.834  12.375
54774SOL     OW66218   8.466   0.825   0.377
54774SOL    HW166219   8.421   0.781   0.305
54774SOL    HW266220   8.539   0.871   0.336
54775SOL     OW66221   0.954   5.635   8.981
54775SOL    HW166222   1.004   5.629   9.063
54775SOL    HW266223   0.873   5.589   9.000
54776SOL     OW66224   1.064   8.847   4.501
54776SOL    HW166225   1.138   8.880   4.451
54776SOL    HW266226   1.089   8.858   4.593
54777SOL     OW66227   7.402   6.498  10.418
54777SOL    HW166228   7.447   6.455  10.491
54777SOL    HW266229   7.431   6.451  10.341
54778SOL     OW66230   1.373  11.091   4.270
54778SOL    HW166231   1.347  11.164   4.214
54778SOL    HW266232   1.462  11.112   4.297
54779SOL     OW66233  11.274   7.784   3.847
54779SOL    HW166234  11.307   7.769   3.936
54779SOL    HW266235  11.325   7.724   3.792
54780SOL     OW66236   6.177   4.490   8.872
54780SOL    HW166237   6.150   4.529   8.955
54780SOL    HW266238   6.257   4.536   8.849
54781SOL     OW66239   2.762   1.665   8.643
54781SOL    HW166240   2.694   1.612   8.601
54781SOL    HW266241   2.715   1.738   8.682
54782SOL     OW66242  14.540   1.223  10.911
54782SOL    HW166243  14.556   1.150  10.850
54782SOL    HW266244  14.579   1.193  10.994
54783SOL     OW66245   3.193   7.079   9.666
54783SOL    HW166246   3.284   7.072   9.638
54783SOL    HW266247   3.198   7.130   9.747
54784SOL     OW66248   4.044   0.519   7.652
54784SOL    HW166249   4.117   0.490   7.707
54784SOL    HW266250   3.968   0.474   7.688
54785SOL     OW66251   3.652  10.934   4.262
54785SOL    HW166252   3.696  10.956   4.344
54785SOL    HW266253   3.718  10.887   4.211
54786SOL     OW66254   7.481   5.068  10.652
54786SOL    HW166255   7.538   5.097  10.581
54786SOL    HW266256   7.535   5.009  10.704
54787SOL     OW66257  14.462  12.282   6.273
54787SOL    HW166258  14.490  12.362   6.317
54787SOL    HW266259  14.377  12.304   6.235
54788SOL     OW66260  13.675   3.029  13.084
54788SOL    HW166261  13.691   3.002  13.174
54788SOL    HW266262  13.656   3.122  13.089
54789SOL     OW66263   3.423   5.823   9.564
54789SOL    HW166264   3.364   5.857   9.498
54789SOL    HW266265   3.410   5.728   9.561
54790SOL     OW66266  11.193   2.159  10.778
54790SOL    HW166267  11.100   2.179  10.774
54790SOL    HW266268  11.218   2.142  10.687
54791SOL     OW66269   3.971   3.494   6.620
54791SOL    HW166270   3.938   3.407   6.597
54791SOL    HW266271   4.014   3.524   6.540
54792SOL     OW66272   2.140   1.932   1.497
54792SOL    HW166273   2.065   1.926   1.438
54792SOL    HW266274   2.153   2.026   1.509
54793SOL     OW66275  13.007   4.683  13.577
54793SOL    HW166276  13.074   4.742  13.542
54793SOL    HW266277  13.052   4.634  13.646
54794SOL     OW66278  12.325   4.208  10.230
54794SOL    HW166279  12.375   4.287  10.252
54794SOL    HW266280  12.296   4.174  10.315
54795SOL     OW66281   1.236   3.046   2.262
54795SOL    HW166282   1.150   3.085   2.248
54795SOL    HW266283   1.265   3.081   2.346
54796SOL     OW66284   1.111  10.380   1.460
54796SOL    HW166285   1.023  10.375   1.498
54796SOL    HW266286   1.111  10.461   1.409
54797SOL     OW66287   3.035   7.565  12.373
54797SOL    HW166288   3.032   7.510  12.451
54797SOL    HW266289   2.959   7.622  12.381
54798SOL     OW66290   6.348  10.408   2.552
54798SOL    HW166291   6.416  10.417   2.486
54798SOL    HW266292   6.304  10.326   2.530
54799SOL     OW66293   1.076  10.809   2.616
54799SOL    HW166294   1.117  10.883   2.662
54799SOL    HW266295   1.010  10.849   2.560
54800SOL     OW66296   2.207   7.422   1.107
54800SOL    HW166297   2.153   7.393   1.180
54800SOL    HW266298   2.147   7.426   1.032
54801SOL     OW66299   0.381  14.238   7.119
54801SOL    HW166300   0.461  14.259   7.071
54801SOL    HW266301   0.354  14.153   7.084
54802SOL     OW66302  13.718  13.041   5.966
54802SOL    HW166303  13.811  13.061   5.955
54802SOL    HW266304  13.698  12.979   5.896
54803SOL     OW66305  12.387  13.816  10.771
54803SOL    HW166306  12.301  13.858  10.781
54803SOL    HW266307  12.441  13.883  10.728
54804SOL     OW66308   4.587   5.563  12.015
54804SOL    HW166309   4.615   5.629  11.951
54804SOL    HW266310   4.669   5.528  12.050
54805SOL     OW66311   6.110   0.705   3.150
54805SOL    HW166312   6.183   0.753   3.189
54805SOL    HW266313   6.148   0.660   3.075
54806SOL     OW66314   0.125   1.073  10.143
54806SOL    HW166315   0.069   1.002  10.113
54806SOL    HW266316   0.155   1.046  10.230
54807SOL     OW66317  11.736   9.102   9.301
54807SOL    HW166318  11.816   9.154   9.293
54807SOL    HW266319  11.724   9.063   9.214
54808SOL     OW66320  10.774   8.836   6.372
54808SOL    HW166321  10.696   8.886   6.396
54808SOL    HW266322  10.824   8.830   6.453
54809SOL     OW66323  12.296   2.423   0.792
54809SOL    HW166324  12.372   2.413   0.735
54809SOL    HW266325  12.249   2.499   0.756
54810SOL     OW66326   7.356  13.884  11.030
54810SOL    HW166327   7.371  13.977  11.014
54810SOL    HW266328   7.262  13.876  11.044
54811SOL     OW66329   3.626   9.190  13.203
54811SOL    HW166330   3.631   9.098  13.175
54811SOL    HW266331   3.622   9.239  13.121
54812SOL     OW66332   4.191   3.676   8.645
54812SOL    HW166333   4.212   3.612   8.577
54812SOL    HW266334   4.186   3.624   8.726
54813SOL     OW66335   7.642   0.061   6.941
54813SOL    HW166336   7.577  14.868   6.961
54813SOL    HW266337   7.682   0.033   6.859
54814SOL     OW66338   9.360   8.250  10.764
54814SOL    HW166339   9.351   8.201  10.683
54814SOL    HW266340   9.353   8.184  10.833
54815SOL     OW66341   5.211   5.960   0.484
54815SOL    HW166342   5.302   5.991   0.487
54815SOL    HW266343   5.165   6.024   0.431
54816SOL     OW66344   9.726  14.748  14.569
54816SOL    HW166345   9.656  14.775  14.628
54816SOL    HW266346   9.686  14.683  14.511
54817SOL     OW66347   4.660  12.211  11.550
54817SOL    HW166348   4.629  12.210  11.641
54817SOL    HW266349   4.650  12.120  11.521
54818SOL     OW66350  11.135   5.776  12.502
54818SOL    HW166351  11.157   5.848  12.443
54818SOL    HW266352  11.077   5.720  12.450
54819SOL     OW66353   3.428  11.262   1.000
54819SOL    HW166354   3.512  11.220   0.980
54819SOL    HW266355   3.433  11.347   0.958
54820SOL     OW66356   1.760   4.800   5.161
54820SOL    HW166357   1.798   4.822   5.246
54820SOL    HW266358   1.836   4.794   5.102
54821SOL     OW66359  14.234   8.428   1.395
54821SOL    HW166360  14.241   8.459   1.485
54821SOL    HW266361  14.141   8.436   1.374
54822SOL     OW66362  12.079   1.253   0.385
54822SOL    HW166363  12.012   1.309   0.346
54822SOL    HW266364  12.108   1.197   0.313
54823SOL     OW66365  13.875   3.256  11.508
54823SOL    HW166366  13.848   3.173  11.548
54823SOL    HW266367  13.889   3.235  11.416
54824SOL     OW66368   1.331   0.139  12.058
54824SOL    HW166369   1.390   0.152  12.133
54824SOL    HW266370   1.356   0.207  11.996
54825SOL     OW66371   2.589   9.842   7.309
54825SOL    HW166372   2.547   9.900   7.372
54825SOL    HW266373   2.551   9.756   7.326
54826SOL     OW66374   6.501   6.300   8.018
54826SOL    HW166375   6.547   6.268   7.940
54826SOL    HW266376   6.426   6.348   7.983
54827SOL     OW66377   1.354   4.934   7.673
54827SOL    HW166378   1.317   4.989   7.742
54827SOL    HW266379   1.288   4.936   7.603
54828SOL     OW66380   8.750  13.314   3.572
54828SOL    HW166381   8.743  13.409   3.567
54828SOL    HW266382   8.744  13.285   3.481
54829SOL     OW66383  13.384   8.664   6.362
54829SOL    HW166384  13.333   8.731   6.316
54829SOL    HW266385  13.418   8.609   6.291
54830SOL     OW66386  11.018  13.963   8.667
54830SOL    HW166387  11.068  13.994   8.742
54830SOL    HW266388  11.000  13.871   8.687
54831SOL     OW66389  11.025   5.567  12.763
54831SOL    HW166390  11.009   5.517  12.843
54831SOL    HW266391  11.078   5.510  12.709
54832SOL     OW66392  11.266  13.772  14.388
54832SOL    HW166393  11.192  13.823  14.354
54832SOL    HW266394  11.293  13.818  14.467
54833SOL     OW66395   6.899   9.537   6.804
54833SOL    HW166396   6.934   9.518   6.891
54833SOL    HW266397   6.807   9.559   6.819
54834SOL     OW66398  14.791   0.340  10.888
54834SOL    HW166399  14.789   0.252  10.851
54834SOL    HW266400   0.010   0.357  10.902
54835SOL     OW66401  10.375   3.090   3.147
54835SOL    HW166402  10.304   3.032   3.175
54835SOL    HW266403  10.377   3.081   3.052
54836SOL     OW66404  13.259   4.446   2.993
54836SOL    HW166405  13.228   4.480   2.909
54836SOL    HW266406  13.186   4.392   3.025
54837SOL     OW66407  12.519   1.073   8.297
54837SOL    HW166408  12.597   1.125   8.280
54837SOL    HW266409  12.481   1.056   8.211
54838SOL     OW66410   0.021   7.173   7.727
54838SOL    HW166411   0.016   7.210   7.815
54838SOL    HW266412  14.842   7.094   7.732
54839SOL     OW66413   9.901   6.818   9.412
54839SOL    HW166414   9.856   6.801   9.495
54839SOL    HW266415   9.916   6.731   9.375
54840SOL     OW66416  11.397   6.153   3.225
54840SOL    HW166417  11.491   6.164   3.240
54840SOL    HW266418  11.356   6.178   3.308
54841SOL     OW66419  12.237  11.145   0.775
54841SOL    HW166420  12.158  11.137   0.828
54841SOL    HW266421  12.216  11.102   0.693
54842SOL     OW66422   2.869  10.736  10.587
54842SOL    HW166423   2.947  10.697  10.548
54842SOL    HW266424   2.865  10.700  10.676
54843SOL     OW66425   5.440   8.693  13.584
54843SOL    HW166426   5.454   8.661  13.673
54843SOL    HW266427   5.370   8.758  13.592
54844SOL     OW66428  11.722   3.518  14.643
54844SOL    HW166429  11.798   3.574  14.649
54844SOL    HW266430  11.648   3.578  14.636
54845SOL     OW66431   8.879   7.474   3.047
54845SOL    HW166432   8.872   7.380   3.060
54845SOL    HW266433   8.964   7.498   3.086
54846SOL     OW66434   5.353   4.488   6.572
54846SOL    HW166435   5.290   4.558   6.590
54846SOL    HW266436   5.415   4.527   6.510
54847SOL     OW66437   6.440   4.615  11.718
54847SOL    HW166438   6.517   4.621  11.774
54847SOL    HW266439   6.428   4.704  11.685
54848SOL     OW66440   0.859   7.463  10.037
54848SOL    HW166441   0.911   7.515  10.098
54848SOL    HW266442   0.803   7.526   9.993
54849SOL     OW66443   7.453  10.059  11.853
54849SOL    HW166444   7.542  10.027  11.839
54849SOL    HW266445   7.405  10.029  11.776
54850SOL     OW66446  11.835   5.891  11.024
54850SOL    HW166447  11.824   5.799  10.999
54850SOL    HW266448  11.750   5.931  11.005
54851SOL     OW66449  10.891   9.354   6.142
54851SOL    HW166450  10.797   9.372   6.144
54851SOL    HW266451  10.902   9.291   6.071
54852SOL     OW66452   2.258   9.844   7.136
54852SOL    HW166453   2.184   9.814   7.083
54852SOL    HW266454   2.219   9.874   7.218
54853SOL     OW66455   9.562   4.719  12.223
54853SOL    HW166456   9.601   4.755  12.143
54853SOL    HW266457   9.468   4.730  12.210
54854SOL     OW66458   6.072   2.443  11.455
54854SOL    HW166459   6.098   2.384  11.525
54854SOL    HW266460   6.155   2.481  11.424
54855SOL     OW66461  11.579  14.759  13.149
54855SOL    HW166462  11.485  14.765  13.130
54855SOL    HW266463  11.603  14.847  13.178
54856SOL     OW66464   4.461   9.320  10.366
54856SOL    HW166465   4.509   9.325  10.449
54856SOL    HW266466   4.390   9.258  10.382
54857SOL     OW66467   1.130   9.876  10.411
54857SOL    HW166468   1.095   9.805  10.358
54857SOL    HW266469   1.078   9.875  10.491
54858SOL     OW66470   4.116  14.750   4.597
54858SOL    HW166471   4.190  14.706   4.639
54858SOL    HW266472   4.150  14.838   4.577
54859SOL     OW66473  12.048   9.018   3.123
54859SOL    HW166474  12.008   8.996   3.039
54859SOL    HW266475  11.990   8.979   3.188
54860SOL     OW66476   2.678   2.786   4.509
54860SOL    HW166477   2.619   2.859   4.495
54860SOL    HW266478   2.655   2.753   4.596
54861SOL     OW66479   2.391  14.070   1.166
54861SOL    HW166480   2.376  13.981   1.133
54861SOL    HW266481   2.338  14.126   1.109
54862SOL     OW66482   7.680   7.120   5.262
54862SOL    HW166483   7.681   7.208   5.223
54862SOL    HW266484   7.692   7.135   5.356
54863SOL     OW66485   1.955   6.217   6.536
54863SOL    HW166486   2.017   6.277   6.495
54863SOL    HW266487   1.891   6.198   6.467
54864SOL     OW66488   3.413   6.056   7.637
54864SOL    HW166489   3.402   6.094   7.550
54864SOL    HW266490   3.506   6.031   7.641
54865SOL     OW66491   8.287   5.428   4.208
54865SOL    HW166492   8.294   5.357   4.272
54865SOL    HW266493   8.246   5.388   4.131
54866SOL     OW66494   1.007   7.445   5.017
54866SOL    HW166495   1.022   7.351   5.018
54866SOL    HW266496   1.094   7.483   5.004
54867SOL     OW66497   9.268   2.424   7.554
54867SOL    HW166498   9.248   2.468   7.471
54867SOL    HW266499   9.231   2.481   7.621
54868SOL     OW66500  14.156   4.254   1.433
54868SOL    HW166501  14.165   4.195   1.509
54868SOL    HW266502  14.075   4.302   1.449
54869SOL     OW66503   1.268  10.287  11.892
54869SOL    HW166504   1.351  10.334  11.878
54869SOL    HW266505   1.248  10.250  11.806
54870SOL     OW66506  13.240   8.630   9.774
54870SOL    HW166507  13.195   8.585   9.703
54870SOL    HW266508  13.226   8.723   9.756
54871SOL     OW66509   9.236   9.344   5.781
54871SOL    HW166510   9.260   9.436   5.789
54871SOL    HW266511   9.146   9.345   5.748
54872SOL     OW66512  11.724  13.426  12.544
54872SOL    HW166513  11.746  13.335  12.563
54872SOL    HW266514  11.805  13.464  12.508
54873SOL     OW66515   1.407  12.702   1.934
54873SOL    HW166516   1.437  12.626   1.985
54873SOL    HW266517   1.467  12.707   1.860
54874SOL     OW66518   5.012   0.646   5.093
54874SOL    HW166519   5.091   0.650   5.039
54874SOL    HW266520   5.013   0.727   5.143
54875SOL     OW66521   2.504  12.901   2.514
54875SOL    HW166522   2.443  12.832   2.541
54875SOL    HW266523   2.539  12.870   2.430
54876SOL     OW66524   6.306   3.062   1.201
54876SOL    HW166525   6.217   3.085   1.229
54876SOL    HW266526   6.295   2.981   1.152
54877SOL     OW66527   7.058  14.071   3.685
54877SOL    HW166528   7.000  14.146   3.668
54877SOL    HW266529   6.999  13.997   3.695
54878SOL     OW66530   8.328   6.434  10.720
54878SOL    HW166531   8.248   6.476  10.751
54878SOL    HW266532   8.398   6.492  10.750
54879SOL     OW66533   9.170   2.707   5.678
54879SOL    HW166534   9.128   2.647   5.740
54879SOL    HW266535   9.192   2.784   5.730
54880SOL     OW66536   1.170  10.327  14.178
54880SOL    HW166537   1.181  10.376  14.259
54880SOL    HW266538   1.084  10.287  14.186
54881SOL     OW66539   2.825   2.965  13.221
54881SOL    HW166540   2.818   3.031  13.290
54881SOL    HW266541   2.792   3.008  13.142
54882SOL     OW66542  14.304   0.474   0.482
54882SOL    HW166543  14.352   0.525   0.546
54882SOL    HW266544  14.317   0.520   0.399
54883SOL     OW66545   5.126   8.486   5.389
54883SOL    HW166546   5.156   8.531   5.469
54883SOL    HW266547   5.110   8.396   5.417
54884SOL     OW66548   5.326   6.160   8.461
54884SOL    HW166549   5.401   6.160   8.521
54884SOL    HW266550   5.349   6.224   8.393
54885SOL     OW66551   3.917   8.004  10.950
54885SOL    HW166552   3.858   7.936  10.919
54885SOL    HW266553   4.003   7.979  10.916
54886SOL     OW66554  11.247  10.736   5.908
54886SOL    HW166555  11.301  10.800   5.863
54886SOL    HW266556  11.175  10.718   5.848
54887SOL     OW66557   8.192  14.592   4.150
54887SOL    HW166558   8.184  14.665   4.211
54887SOL    HW266559   8.278  14.555   4.167
54888SOL     OW66560  12.866   2.062  10.975
54888SOL    HW166561  12.843   1.989  10.917
54888SOL    HW266562  12.791   2.070  11.034
54889SOL     OW66563   5.823   8.788   2.463
54889SOL    HW166564   5.875   8.834   2.397
54889SOL    HW266565   5.732   8.804   2.439
54890SOL     OW66566   2.655  13.153   8.247
54890SOL    HW166567   2.632  13.134   8.338
54890SOL    HW266568   2.647  13.069   8.202
54891SOL     OW66569   0.494   0.361  11.408
54891SOL    HW166570   0.520   0.282  11.360
54891SOL    HW266571   0.537   0.354  11.493
54892SOL     OW66572  12.508   4.810   3.185
54892SOL    HW166573  12.423   4.843   3.157
54892SOL    HW266574  12.563   4.817   3.107
54893SOL     OW66575  11.736   0.101   2.955
54893SOL    HW166576  11.739   0.010   2.925
54893SOL    HW266577  11.785   0.100   3.038
54894SOL     OW66578   3.948   9.077   3.016
54894SOL    HW166579   4.014   9.145   3.001
54894SOL    HW266580   3.893   9.080   2.938
54895SOL     OW66581  13.431   5.299  11.120
54895SOL    HW166582  13.357   5.245  11.090
54895SOL    HW266583  13.393   5.385  11.136
54896SOL     OW66584  10.646   2.103  13.442
54896SOL    HW166585  10.577   2.076  13.381
54896SOL    HW266586  10.717   2.040  13.428
54897SOL     OW66587   8.640   6.746   9.206
54897SOL    HW166588   8.732   6.732   9.186
54897SOL    HW266589   8.640   6.805   9.281
54898SOL     OW66590   7.505   5.059   2.290
54898SOL    HW166591   7.587   5.042   2.245
54898SOL    HW266592   7.439   5.011   2.239
54899SOL     OW66593   9.548   3.705  11.227
54899SOL    HW166594   9.489   3.735  11.158
54899SOL    HW266595   9.593   3.784  11.256
54900SOL     OW66596   9.139  11.472   3.670
54900SOL    HW166597   9.217  11.434   3.710
54900SOL    HW266598   9.171  11.513   3.589
54901SOL     OW66599   6.268   6.554  14.312
54901SOL    HW166600   6.193   6.604  14.281
54901SOL    HW266601   6.342   6.588  14.262
54902SOL     OW66602   8.294   5.217   2.851
54902SOL    HW166603   8.370   5.207   2.908
54902SOL    HW266604   8.321   5.180   2.767
54903SOL     OW66605   7.603  13.059   3.602
54903SOL    HW166606   7.660  13.131   3.629
54903SOL    HW266607   7.612  13.056   3.506
54904SOL     OW66608  12.257   8.247   6.241
54904SOL    HW166609  12.185   8.309   6.248
54904SOL    HW266610  12.319   8.275   6.308
54905SOL     OW66611   8.615   6.336  10.602
54905SOL    HW166612   8.615   6.413  10.659
54905SOL    HW266613   8.695   6.345  10.550
54906SOL     OW66614   5.783   6.413  10.648
54906SOL    HW166615   5.712   6.453  10.597
54906SOL    HW266616   5.848   6.387  10.583
54907SOL     OW66617   9.192  13.046   2.249
54907SOL    HW166618   9.186  13.045   2.153
54907SOL    HW266619   9.276  13.005   2.267
54908SOL     OW66620   3.614   1.792   1.149
54908SOL    HW166621   3.669   1.783   1.228
54908SOL    HW266622   3.655   1.864   1.100
54909SOL     OW66623   8.875   5.172   1.687
54909SOL    HW166624   8.966   5.194   1.667
54909SOL    HW266625   8.863   5.200   1.777
54910SOL     OW66626   4.862  11.534   3.059
54910SOL    HW166627   4.783  11.570   3.019
54910SOL    HW266628   4.895  11.606   3.113
54911SOL     OW66629  10.969   4.079  10.336
54911SOL    HW166630  11.009   4.159  10.369
54911SOL    HW266631  10.893   4.066  10.392
54912SOL     OW66632   4.174   6.140  13.519
54912SOL    HW166633   4.132   6.143  13.605
54912SOL    HW266634   4.238   6.069  13.526
54913SOL     OW66635   2.921  12.468   3.854
54913SOL    HW166636   2.889  12.543   3.903
54913SOL    HW266637   2.948  12.504   3.769
54914SOL     OW66638   1.292  14.734  12.447
54914SOL    HW166639   1.260  14.742  12.358
54914SOL    HW266640   1.223  14.685  12.493
54915SOL     OW66641   7.989   7.896  13.236
54915SOL    HW166642   8.052   7.823  13.235
54915SOL    HW266643   7.941   7.887  13.154
54916SOL     OW66644  13.559   6.476   9.196
54916SOL    HW166645  13.522   6.416   9.260
54916SOL    HW266646  13.538   6.563   9.230
54917SOL     OW66647  10.922   4.325  10.462
54917SOL    HW166648  10.872   4.288  10.535
54917SOL    HW266649  11.011   4.335  10.496
54918SOL     OW66650   3.932   5.652   6.558
54918SOL    HW166651   3.980   5.727   6.525
54918SOL    HW266652   3.849   5.688   6.590
54919SOL     OW66653   1.919   0.889   0.163
54919SOL    HW166654   1.887   0.804   0.130
54919SOL    HW266655   1.839   0.939   0.180
54920SOL     OW66656   1.337  11.441  13.596
54920SOL    HW166657   1.364  11.436  13.687
54920SOL    HW266658   1.378  11.365  13.555
54921SOL     OW66659   9.069   4.605   0.073
54921SOL    HW166660   9.133   4.576   0.009
54921SOL    HW266661   9.037   4.689   0.039
54922SOL     OW66662   0.355  13.037  13.380
54922SOL    HW166663   0.418  12.966  13.386
54922SOL    HW266664   0.374  13.093  13.455
54923SOL     OW66665  13.050  10.628   3.072
54923SOL    HW166666  13.056  10.693   3.002
54923SOL    HW266667  13.105  10.556   3.042
54924SOL     OW66668   2.286   6.536   9.107
54924SOL    HW166669   2.230   6.584   9.045
54924SOL    HW266670   2.319   6.604   9.166
54925SOL     OW66671   9.825  10.492   9.988
54925SOL    HW166672   9.742  10.513  10.031
54925SOL    HW266673   9.890  10.493  10.058
54926SOL     OW66674  10.036  13.512   7.050
54926SOL    HW166675  10.064  13.434   7.002
54926SOL    HW266676   9.941  13.510   7.045
54927SOL     OW66677   9.383  10.424   8.460
54927SOL    HW166678   9.462  10.477   8.454
54927SOL    HW266679   9.355  10.412   8.369
54928SOL     OW66680   1.923   3.334   3.819
54928SOL    HW166681   1.998   3.387   3.793
54928SOL    HW266682   1.868   3.328   3.741
54929SOL     OW66683  10.060  14.647   0.467
54929SOL    HW166684  10.040  14.555   0.485
54929SOL    HW266685  10.043  14.691   0.550
54930SOL     OW66686  12.636   0.765   6.653
54930SOL    HW166687  12.680   0.764   6.737
54930SOL    HW266688  12.706   0.756   6.589
54931SOL     OW66689  11.348   6.485   4.567
54931SOL    HW166690  11.267   6.433   4.574
54931SOL    HW266691  11.403   6.453   4.639
54932SOL     OW66692  14.527   8.330   9.922
54932SOL    HW166693  14.509   8.237   9.914
54932SOL    HW266694  14.618   8.340   9.894
54933SOL     OW66695   4.247   0.078  10.417
54933SOL    HW166696   4.216   0.088  10.327
54933SOL    HW266697   4.167   0.073  10.470
54934SOL     OW66698   3.518   9.560   9.015
54934SOL    HW166699   3.423   9.552   9.022
54934SOL    HW266700   3.544   9.610   9.092
54935SOL     OW66701   4.114   4.789  11.564
54935SOL    HW166702   4.124   4.697  11.540
54935SOL    HW266703   4.109   4.835  11.480
54936SOL     OW66704   8.834  12.191  10.241
54936SOL    HW166705   8.771  12.126  10.272
54936SOL    HW266706   8.783  12.272  10.230
54937SOL     OW66707  11.400  10.992   9.561
54937SOL    HW166708  11.353  10.994   9.645
54937SOL    HW266709  11.407  10.900   9.539
54938SOL     OW66710   3.032  14.680  10.527
54938SOL    HW166711   3.074  14.700  10.611
54938SOL    HW266712   3.063  14.592  10.505
54939SOL     OW66713   9.827  13.663   2.328
54939SOL    HW166714   9.819  13.572   2.357
54939SOL    HW266715   9.809  13.715   2.406
54940SOL     OW66716  12.919  12.634  10.992
54940SOL    HW166717  12.884  12.570  10.929
54940SOL    HW266718  12.983  12.585  11.043
54941SOL     OW66719   9.459  11.576   5.807
54941SOL    HW166720   9.440  11.669   5.808
54941SOL    HW266721   9.552  11.571   5.786
54942SOL     OW66722   2.443   7.416   2.604
54942SOL    HW166723   2.440   7.507   2.572
54942SOL    HW266724   2.501   7.420   2.680
54943SOL     OW66725   3.647  12.988  13.387
54943SOL    HW166726   3.650  13.037  13.305
54943SOL    HW266727   3.703  13.038  13.447
54944SOL     OW66728  13.859   8.251  13.033
54944SOL    HW166729  13.938   8.255  13.087
54944SOL    HW266730  13.789   8.227  13.094
54945SOL     OW66731   0.724  12.176   2.392
54945SOL    HW166732   0.690  12.265   2.380
54945SOL    HW266733   0.698  12.129   2.312
54946SOL     OW66734   1.768   5.313   4.609
54946SOL    HW166735   1.803   5.246   4.667
54946SOL    HW266736   1.708   5.266   4.551
54947SOL     OW66737   1.188  12.120   9.970
54947SOL    HW166738   1.219  12.110  10.060
54947SOL    HW266739   1.106  12.169   9.977
54948SOL     OW66740   1.146  11.862   5.835
54948SOL    HW166741   1.172  11.875   5.926
54948SOL    HW266742   1.052  11.882   5.834
54949SOL     OW66743   6.648   9.435   3.945
54949SOL    HW166744   6.692   9.520   3.946
54949SOL    HW266745   6.590   9.439   3.869
54950SOL     OW66746   9.506   7.879  11.012
54950SOL    HW166747   9.523   7.940  10.940
54950SOL    HW266748   9.566   7.905  11.081
54951SOL     OW66749   7.992   1.801  14.767
54951SOL    HW166750   7.941   1.836  14.695
54951SOL    HW266751   7.940   1.819  14.845
54952SOL     OW66752   3.493   7.669   5.384
54952SOL    HW166753   3.518   7.601   5.446
54952SOL    HW266754   3.466   7.742   5.439
54953SOL     OW66755   2.832   4.322  14.219
54953SOL    HW166756   2.809   4.405  14.261
54953SOL    HW266757   2.758   4.264  14.240
54954SOL     OW66758   8.635   5.805  13.877
54954SOL    HW166759   8.547   5.843  13.878
54954SOL    HW266760   8.658   5.799  13.784
54955SOL     OW66761  14.520   9.788  10.447
54955SOL    HW166762  14.581   9.854  10.479
54955SOL    HW266763  14.437   9.834  10.436
54956SOL     OW66764  13.245  12.923  11.664
54956SOL    HW166765  13.259  12.829  11.658
54956SOL    HW266766  13.266  12.956  11.576
54957SOL     OW66767  12.958  14.029   1.655
54957SOL    HW166768  12.953  14.001   1.564
54957SOL    HW266769  12.916  13.958   1.704
54958SOL     OW66770   9.841   4.867   6.870
54958SOL    HW166771   9.856   4.830   6.957
54958SOL    HW266772   9.794   4.798   6.823
54959SOL     OW66773  10.390   6.559   1.465
54959SOL    HW166774  10.482   6.581   1.476
54959SOL    HW266775  10.352   6.634   1.419
54960SOL     OW66776  11.917  13.010   4.653
54960SOL    HW166777  11.872  13.094   4.642
54960SOL    HW266778  11.853  12.945   4.622
54961SOL     OW66779   6.733   1.798  11.375
54961SOL    HW166780   6.646   1.764  11.394
54961SOL    HW266781   6.791   1.747  11.432
54962SOL     OW66782  13.708   3.264   0.175
54962SOL    HW166783  13.780   3.262   0.237
54962SOL    HW266784  13.648   3.195   0.205
54963SOL     OW66785   3.390   3.173  14.768
54963SOL    HW166786   3.407   3.084  14.798
54963SOL    HW266787   3.462   3.193  14.708
54964SOL     OW66788   7.022   0.057   7.209
54964SOL    HW166789   7.052  14.851   7.168
54964SOL    HW266790   7.052   0.051   7.300
54965SOL     OW66791   7.145   4.321   5.484
54965SOL    HW166792   7.167   4.354   5.397
54965SOL    HW266793   7.068   4.266   5.470
54966SOL     OW66794   1.753  14.343  13.433
54966SOL    HW166795   1.711  14.373  13.513
54966SOL    HW266796   1.824  14.287  13.462
54967SOL     OW66797   6.992   3.698   2.251
54967SOL    HW166798   6.965   3.753   2.324
54967SOL    HW266799   6.921   3.635   2.240
54968SOL     OW66800  14.274   7.917  10.588
54968SOL    HW166801  14.350   7.868  10.619
54968SOL    HW266802  14.306   8.006  10.576
54969SOL     OW66803   8.253   1.423  11.821
54969SOL    HW166804   8.341   1.449  11.792
54969SOL    HW266805   8.199   1.500  11.805
54970SOL     OW66806   3.760   8.166  13.804
54970SOL    HW166807   3.748   8.072  13.795
54970SOL    HW266808   3.681   8.204  13.765
54971SOL     OW66809  13.215   2.907   0.356
54971SOL    HW166810  13.242   2.998   0.361
54971SOL    HW266811  13.187   2.885   0.445
54972SOL     OW66812   0.434   3.556  13.938
54972SOL    HW166813   0.378   3.487  13.974
54972SOL    HW266814   0.424   3.549  13.843
54973SOL     OW66815  13.064  10.304   5.838
54973SOL    HW166816  13.132  10.363   5.804
54973SOL    HW266817  13.028  10.351   5.913
54974SOL     OW66818  13.422   8.669   0.134
54974SOL    HW166819  13.438   8.666   0.040
54974SOL    HW266820  13.510   8.669   0.173
54975SOL     OW66821  13.396  13.854   3.335
54975SOL    HW166822  13.457  13.927   3.323
54975SOL    HW266823  13.424  13.813   3.417
54976SOL     OW66824   6.019   4.490   7.096
54976SOL    HW166825   6.016   4.462   7.004
54976SOL    HW266826   6.113   4.493   7.117
54977SOL     OW66827  10.352   1.647  14.058
54977SOL    HW166828  10.420   1.670  14.121
54977SOL    HW266829  10.303   1.577  14.102
54978SOL     OW66830   8.048   4.147   6.499
54978SOL    HW166831   8.040   4.242   6.499
54978SOL    HW266832   8.097   4.126   6.578
54979SOL     OW66833   8.793   1.676   7.966
54979SOL    HW166834   8.746   1.758   7.949
54979SOL    HW266835   8.879   1.688   7.927
54980SOL     OW66836   4.774   1.281  10.762
54980SOL    HW166837   4.729   1.203  10.729
54980SOL    HW266838   4.866   1.255  10.766
54981SOL     OW66839  13.657  12.201   8.039
54981SOL    HW166840  13.595  12.265   8.075
54981SOL    HW266841  13.602  12.128   8.012
54982SOL     OW66842  10.374   2.586   1.049
54982SOL    HW166843  10.459   2.563   1.086
54982SOL    HW266844  10.387   2.583   0.954
54983SOL     OW66845  14.327  14.010  13.075
54983SOL    HW166846  14.295  14.000  12.985
54983SOL    HW266847  14.326  14.104  13.091
54984SOL     OW66848   6.513   8.256   5.289
54984SOL    HW166849   6.526   8.294   5.202
54984SOL    HW266850   6.579   8.186   5.295
54985SOL     OW66851   3.993  12.516  13.207
54985SOL    HW166852   3.963  12.564  13.283
54985SOL    HW266853   4.018  12.430  13.241
54986SOL     OW66854  13.348  12.499   4.606
54986SOL    HW166855  13.267  12.491   4.656
54986SOL    HW266856  13.386  12.582   4.634
54987SOL     OW66857  12.412   9.940   0.218
54987SOL    HW166858  12.390   9.928   0.126
54987SOL    HW266859  12.473   9.870   0.238
54988SOL     OW66860   9.458  11.601  10.939
54988SOL    HW166861   9.411  11.590  11.022
54988SOL    HW266862   9.487  11.692  10.940
54989SOL     OW66863   1.384  10.921  11.194
54989SOL    HW166864   1.462  10.924  11.138
54989SOL    HW266865   1.312  10.941  11.135
54990SOL     OW66866   8.228   6.722  14.108
54990SOL    HW166867   8.271   6.639  14.128
54990SOL    HW266868   8.180   6.706  14.027
54991SOL     OW66869   7.665   4.004   6.956
54991SOL    HW166870   7.660   4.088   6.910
54991SOL    HW266871   7.603   4.011   7.028
54992SOL     OW66872   2.471   0.387  13.865
54992SOL    HW166873   2.526   0.348  13.933
54992SOL    HW266874   2.460   0.478  13.892
54993SOL     OW66875  14.302   6.943   6.405
54993SOL    HW166876  14.308   6.876   6.472
54993SOL    HW266877  14.382   6.995   6.415
54994SOL     OW66878   1.725  13.641   1.856
54994SOL    HW166879   1.663  13.622   1.785
54994SOL    HW266880   1.796  13.689   1.814
54995SOL     OW66881   6.379  14.186  10.278
54995SOL    HW166882   6.301  14.170  10.330
54995SOL    HW266883   6.354  14.163  10.188
54996SOL     OW66884   5.469  14.033   3.265
54996SOL    HW166885   5.469  14.073   3.178
54996SOL    HW266886   5.551  14.062   3.305
54997SOL     OW66887   9.594   3.641   0.210
54997SOL    HW166888   9.605   3.552   0.175
54997SOL    HW266889   9.499   3.651   0.220
54998SOL     OW66890   8.442   1.926   1.992
54998SOL    HW166891   8.474   1.917   1.902
54998SOL    HW266892   8.368   1.985   1.985
54999SOL     OW66893   8.664  11.440  13.444
54999SOL    HW166894   8.683  11.351  13.474
54999SOL    HW266895   8.573  11.456  13.470
55000SOL     OW66896   9.397   0.697   3.449
55000SOL    HW166897   9.432   0.741   3.526
55000SOL    HW266898   9.425   0.750   3.375
55001SOL     OW66899  10.567   9.408  13.646
55001SOL    HW166900  10.511   9.480  13.676
55001SOL    HW266901  10.506   9.343  13.612
55002SOL     OW66902  11.968  10.602   6.951
55002SOL    HW166903  11.953  10.547   7.029
55002SOL    HW266904  12.060  10.627   6.957
55003SOL     OW66905  14.199   1.601   2.539
55003SOL    HW166906  14.249   1.610   2.458
55003SOL    HW266907  14.265   1.595   2.608
55004SOL     OW66908   7.847   1.809   9.715
55004SOL    HW166909   7.830   1.758   9.636
55004SOL    HW266910   7.899   1.884   9.685
55005SOL     OW66911   6.873  11.836  14.397
55005SOL    HW166912   6.849  11.815  14.307
55005SOL    HW266913   6.835  11.923  14.412
55006SOL     OW66914   5.966   5.807  12.573
55006SOL    HW166915   5.890   5.784  12.521
55006SOL    HW266916   5.977   5.901  12.560
55007SOL     OW66917   2.431  13.364   8.970
55007SOL    HW166918   2.452  13.311   9.047
55007SOL    HW266919   2.444  13.304   8.896
55008SOL     OW66920   2.809   5.860  13.560
55008SOL    HW166921   2.773   5.821  13.480
55008SOL    HW266922   2.778   5.951  13.558
55009SOL     OW66923   7.524   1.598  11.995
55009SOL    HW166924   7.477   1.565  12.072
55009SOL    HW266925   7.530   1.693  12.010
55010SOL     OW66926   9.403  11.140  11.554
55010SOL    HW166927   9.352  11.061  11.536
55010SOL    HW266928   9.374  11.203  11.488
55011SOL     OW66929   4.890   0.255   9.975
55011SOL    HW166930   4.795   0.242   9.975
55011SOL    HW266931   4.908   0.297   9.891
55012SOL     OW66932   4.116   0.541   9.985
55012SOL    HW166933   4.172   0.585  10.048
55012SOL    HW266934   4.036   0.520  10.034
55013SOL     OW66935  11.676   3.929   9.181
55013SOL    HW166936  11.630   3.987   9.121
55013SOL    HW266937  11.767   3.932   9.153
55014SOL     OW66938  11.464   2.629   9.543
55014SOL    HW166939  11.388   2.594   9.590
55014SOL    HW266940  11.473   2.718   9.576
55015SOL     OW66941   2.871   2.538  14.069
55015SOL    HW166942   2.940   2.474  14.053
55015SOL    HW266943   2.873   2.552  14.163
55016SOL     OW66944  10.648   3.898  12.968
55016SOL    HW166945  10.740   3.897  12.940
55016SOL    HW266946  10.640   3.979  13.018
55017SOL     OW66947   9.575   1.352  13.894
55017SOL    HW166948   9.595   1.322  13.983
55017SOL    HW266949   9.501   1.413  13.906
55018SOL     OW66950   6.819   1.001   7.695
55018SOL    HW166951   6.764   0.946   7.640
55018SOL    HW266952   6.896   0.947   7.714
55019SOL     OW66953  13.946  12.940  14.466
55019SOL    HW166954  13.959  12.851  14.434
55019SOL    HW266955  13.952  12.995  14.388
55020SOL     OW66956   2.494   9.565   1.579
55020SOL    HW166957   2.572   9.621   1.571
55020SOL    HW266958   2.527   9.484   1.618
55021SOL     OW66959  13.384  10.131   1.040
55021SOL    HW166960  13.398  10.089   1.125
55021SOL    HW266961  13.290  10.152   1.039
55022SOL     OW66962   7.830   7.495   1.971
55022SOL    HW166963   7.859   7.456   2.054
55022SOL    HW266964   7.833   7.589   1.986
55023SOL     OW66965   4.488  12.169   1.477
55023SOL    HW166966   4.469  12.099   1.415
55023SOL    HW266967   4.575  12.149   1.510
55024SOL     OW66968   7.109  10.129   5.683
55024SOL    HW166969   7.092  10.054   5.626
55024SOL    HW266970   7.186  10.104   5.733
55025SOL     OW66971   4.559   6.734   6.505
55025SOL    HW166972   4.469   6.742   6.474
55025SOL    HW266973   4.598   6.819   6.486
55026SOL     OW66974   5.105   8.383  11.093
55026SOL    HW166975   5.013   8.401  11.114
55026SOL    HW266976   5.111   8.397  10.999
55027SOL     OW66977   2.613   1.347   1.894
55027SOL    HW166978   2.517   1.350   1.899
55027SOL    HW266979   2.640   1.299   1.973
55028SOL     OW66980  12.056   9.180   6.966
55028SOL    HW166981  12.016   9.194   6.881
55028SOL    HW266982  12.022   9.095   6.994
55029SOL     OW66983   9.054   1.703   7.227
55029SOL    HW166984   9.024   1.699   7.318
55029SOL    HW266985   9.127   1.765   7.229
55030SOL     OW66986  11.450   6.186  11.419
55030SOL    HW166987  11.461   6.136  11.338
55030SOL    HW266988  11.500   6.267  11.405
55031SOL     OW66989   7.528   3.985   9.895
55031SOL    HW166990   7.561   4.036   9.821
55031SOL    HW266991   7.532   4.045   9.969
55032SOL     OW66992   8.468  11.705  11.082
55032SOL    HW166993   8.516  11.659  11.012
55032SOL    HW266994   8.521  11.782  11.100
55033SOL     OW66995  11.749   1.335   5.810
55033SOL    HW166996  11.724   1.419   5.848
55033SOL    HW266997  11.666   1.293   5.789
55034SOL     OW66998   3.875  13.488   5.101
55034SOL    HW166999   3.907  13.536   5.177
55034SOL    HW267000   3.953  13.473   5.047
55035SOL     OW67001  14.499   1.177   3.760
55035SOL    HW167002  14.481   1.233   3.835
55035SOL    HW267003  14.428   1.113   3.760
55036SOL     OW67004   1.101   5.902  12.930
55036SOL    HW167005   1.093   5.910  12.835
55036SOL    HW267006   1.030   5.955  12.965
55037SOL     OW67007  10.978   1.300  12.866
55037SOL    HW167008  10.922   1.378  12.866
55037SOL    HW267009  10.977   1.270  12.775
55038SOL     OW67010   4.956  14.197   3.092
55038SOL    HW167011   4.931  14.205   3.000
55038SOL    HW267012   4.901  14.260   3.138
55039SOL     OW67013  11.826   1.609   2.315
55039SOL    HW167014  11.769   1.675   2.275
55039SOL    HW267015  11.793   1.525   2.282
55040SOL     OW67016   5.008   7.942   4.002
55040SOL    HW167017   4.984   7.912   4.090
55040SOL    HW267018   4.987   7.867   3.946
55041SOL     OW67019  13.837   7.355   9.367
55041SOL    HW167020  13.809   7.354   9.275
55041SOL    HW267021  13.932   7.343   9.364
55042SOL     OW67022  13.299   6.239   7.183
55042SOL    HW167023  13.328   6.198   7.265
55042SOL    HW267024  13.286   6.166   7.123
55043SOL     OW67025   5.698   6.413  13.993
55043SOL    HW167026   5.646   6.440  13.917
55043SOL    HW267027   5.749   6.338  13.963
55044SOL     OW67028   7.623   9.004   3.584
55044SOL    HW167029   7.546   8.949   3.596
55044SOL    HW267030   7.662   9.010   3.671
55045SOL     OW67031   1.107   1.619  14.050
55045SOL    HW167032   1.056   1.650  14.125
55045SOL    HW267033   1.072   1.532  14.032
55046SOL     OW67034   9.491  11.122   4.389
55046SOL    HW167035   9.577  11.134   4.431
55046SOL    HW267036   9.429  11.126   4.462
55047SOL     OW67037  12.909   2.456   2.898
55047SOL    HW167038  12.993   2.444   2.855
55047SOL    HW267039  12.860   2.517   2.843
55048SOL     OW67040  13.028  14.103  10.440
55048SOL    HW167041  12.954  14.141  10.487
55048SOL    HW267042  12.992  14.078  10.355
55049SOL     OW67043   3.175  11.314  14.709
55049SOL    HW167044   3.116  11.378  14.669
55049SOL    HW267045   3.186  11.344  14.799
55050SOL     OW67046   4.806  10.396   6.458
55050SOL    HW167047   4.725  10.407   6.507
55050SOL    HW267048   4.796  10.453   6.382
55051SOL     OW67049  14.223   9.037   3.418
55051SOL    HW167050  14.241   9.009   3.329
55051SOL    HW267051  14.151   9.101   3.409
55052SOL     OW67052  13.235  12.889   3.379
55052SOL    HW167053  13.237  12.793   3.387
55052SOL    HW267054  13.142  12.910   3.372
55053SOL     OW67055   5.283   3.733   3.294
55053SOL    HW167056   5.268   3.812   3.241
55053SOL    HW267057   5.376   3.714   3.282
55054SOL     OW67058   7.066  13.614   8.236
55054SOL    HW167059   7.139  13.572   8.283
55054SOL    HW267060   7.106  13.689   8.193
55055SOL     OW67061   7.835   9.293  11.717
55055SOL    HW167062   7.911   9.261  11.764
55055SOL    HW267063   7.844   9.256  11.629
55056SOL     OW67064  12.298   2.529   6.230
55056SOL    HW167065  12.275   2.439   6.203
55056SOL    HW267066  12.235   2.549   6.299
55057SOL     OW67067  14.236  12.414  11.220
55057SOL    HW167068  14.205  12.501  11.244
55057SOL    HW267069  14.315  12.402  11.272
55058SOL     OW67070  12.878   8.891   1.159
55058SOL    HW167071  12.811   8.892   1.228
55058SOL    HW267072  12.855   8.966   1.104
55059SOL     OW67073   5.972  11.568  11.126
55059SOL    HW167074   6.001  11.630  11.060
55059SOL    HW267075   5.975  11.483  11.083
55060SOL     OW67076   4.944   9.763   4.522
55060SOL    HW167077   4.942   9.821   4.598
55060SOL    HW267078   5.026   9.715   4.530
55061SOL     OW67079  11.588   0.856   6.201
55061SOL    HW167080  11.521   0.920   6.175
55061SOL    HW267081  11.660   0.909   6.234
55062SOL     OW67082   5.439   3.832  12.463
55062SOL    HW167083   5.408   3.817  12.374
55062SOL    HW267084   5.370   3.885  12.504
55063SOL     OW67085   1.917   0.031   8.983
55063SOL    HW167086   1.887   0.096   8.920
55063SOL    HW267087   1.895   0.068   9.069
55064SOL     OW67088   3.888   7.219   1.111
55064SOL    HW167089   3.932   7.191   1.192
55064SOL    HW267090   3.864   7.137   1.067
55065SOL     OW67091  14.562   4.030   5.862
55065SOL    HW167092  14.476   4.007   5.825
55065SOL    HW267093  14.551   4.118   5.896
55066SOL     OW67094  10.915   3.778   5.634
55066SOL    HW167095  10.842   3.798   5.575
55066SOL    HW267096  10.928   3.684   5.625
55067SOL     OW67097  13.393   1.548   7.339
55067SOL    HW167098  13.405   1.507   7.424
55067SOL    HW267099  13.442   1.492   7.278
55068SOL     OW67100  10.735  11.295  13.940
55068SOL    HW167101  10.662  11.348  13.973
55068SOL    HW267102  10.802  11.359  13.916
55069SOL     OW67103   0.623   8.996  12.119
55069SOL    HW167104   0.649   9.019  12.030
55069SOL    HW267105   0.528   8.992  12.116
55070SOL     OW67106   3.639   6.362   9.755
55070SOL    HW167107   3.552   6.402   9.755
55070SOL    HW267108   3.683   6.401   9.831
55071SOL     OW67109  14.851   4.599   0.464
55071SOL    HW167110  14.786   4.551   0.514
55071SOL    HW267111   0.055   4.545   0.469
55072SOL     OW67112   5.974   8.333   4.355
55072SOL    HW167113   6.068   8.339   4.373
55072SOL    HW267114   5.932   8.352   4.439
55073SOL     OW67115   6.441  13.099   3.709
55073SOL    HW167116   6.421  13.186   3.674
55073SOL    HW267117   6.368  13.044   3.678
55074SOL     OW67118   4.336   2.710   4.207
55074SOL    HW167119   4.275   2.733   4.137
55074SOL    HW267120   4.281   2.675   4.277
55075SOL     OW67121   6.801  11.462   9.154
55075SOL    HW167122   6.723  11.513   9.134
55075SOL    HW267123   6.783  11.421   9.238
55076SOL     OW67124   9.050   8.407   0.478
55076SOL    HW167125   8.977   8.344   0.475
55076SOL    HW267126   9.078   8.406   0.569
55077SOL     OW67127  12.332  10.080   6.467
55077SOL    HW167128  12.256  10.099   6.523
55077SOL    HW267129  12.323  10.141   6.393
55078SOL     OW67130   8.048   8.519   8.359
55078SOL    HW167131   8.084   8.458   8.424
55078SOL    HW267132   7.953   8.506   8.364
55079SOL     OW67133  10.141   5.125   3.899
55079SOL    HW167134  10.188   5.183   3.960
55079SOL    HW267135  10.194   5.045   3.897
55080SOL     OW67136   5.088  11.940  10.807
55080SOL    HW167137   5.026  11.868  10.823
55080SOL    HW267138   5.120  11.925  10.718
55081SOL     OW67139   0.522   5.673  11.013
55081SOL    HW167140   0.578   5.657  11.089
55081SOL    HW267141   0.571   5.639  10.939
55082SOL     OW67142   5.078   3.434   5.799
55082SOL    HW167143   5.103   3.497   5.867
55082SOL    HW267144   5.003   3.475   5.755
55083SOL     OW67145   1.157   5.902  10.013
55083SOL    HW167146   1.110   5.984  10.027
55083SOL    HW267147   1.088   5.837  10.000
55084SOL     OW67148   6.466   2.701   9.366
55084SOL    HW167149   6.509   2.738   9.289
55084SOL    HW267150   6.522   2.728   9.439
55085SOL     OW67151   6.755   3.358   3.709
55085SOL    HW167152   6.704   3.379   3.787
55085SOL    HW267153   6.789   3.443   3.679
55086SOL     OW67154  11.435   5.708   9.669
55086SOL    HW167155  11.419   5.670   9.583
55086SOL    HW267156  11.398   5.644   9.731
55087SOL     OW67157   8.908  12.453  13.205
55087SOL    HW167158   8.946  12.455  13.117
55087SOL    HW267159   8.934  12.369  13.241
55088SOL     OW67160   4.109   1.471  14.241
55088SOL    HW167161   4.127   1.493  14.332
55088SOL    HW267162   4.188   1.427  14.211
55089SOL     OW67163   1.013   0.606   0.242
55089SOL    HW167164   0.959   0.613   0.320
55089SOL    HW267165   0.954   0.575   0.174
55090SOL     OW67166   5.890   5.073   9.115
55090SOL    HW167167   5.803   5.034   9.128
55090SOL    HW267168   5.902   5.071   9.020
55091SOL     OW67169  12.738   5.049  12.087
55091SOL    HW167170  12.786   5.047  12.170
55091SOL    HW267171  12.652   5.083  12.110
55092SOL     OW67172   3.052   1.507   5.358
55092SOL    HW167173   3.067   1.601   5.353
55092SOL    HW267174   2.963   1.494   5.325
55093SOL     OW67175  11.358   7.904   0.391
55093SOL    HW167176  11.440   7.940   0.426
55093SOL    HW267177  11.342   7.956   0.312
55094SOL     OW67178  11.539  11.005  10.128
55094SOL    HW167179  11.543  11.100  10.142
55094SOL    HW267180  11.582  10.992  10.044
55095SOL     OW67181   1.796   3.524   4.899
55095SOL    HW167182   1.746   3.539   4.979
55095SOL    HW267183   1.761   3.586   4.835
55096SOL     OW67184   7.305  10.636   9.817
55096SOL    HW167185   7.215  10.606   9.805
55096SOL    HW267186   7.355  10.556   9.832
55097SOL     OW67187  14.429   0.458   0.918
55097SOL    HW167188  14.426   0.554   0.920
55097SOL    HW267189  14.491   0.435   0.987
55098SOL     OW67190   2.351   3.007   8.226
55098SOL    HW167191   2.358   2.935   8.290
55098SOL    HW267192   2.414   2.985   8.158
55099SOL     OW67193  13.407   0.411   3.547
55099SOL    HW167194  13.493   0.377   3.523
55099SOL    HW267195  13.425   0.481   3.610
55100SOL     OW67196  14.577   2.165  11.792
55100SOL    HW167197  14.552   2.245  11.838
55100SOL    HW267198  14.603   2.195  11.705
55101SOL     OW67199  10.938   8.611   2.565
55101SOL    HW167200  10.924   8.519   2.586
55101SOL    HW267201  10.961   8.612   2.472
55102SOL     OW67202  12.970   9.296   0.260
55102SOL    HW167203  13.061   9.283   0.235
55102SOL    HW267204  12.961   9.246   0.341
55103SOL     OW67205   7.537  13.545   4.682
55103SOL    HW167206   7.456  13.587   4.654
55103SOL    HW267207   7.520  13.521   4.773
55104SOL     OW67208  10.173  10.303   7.650
55104SOL    HW167209  10.233  10.262   7.713
55104SOL    HW267210  10.228  10.362   7.599
55105SOL     OW67211  10.420   6.170   7.814
55105SOL    HW167212  10.510   6.152   7.785
55105SOL    HW267213  10.385   6.229   7.748
55106SOL     OW67214   4.321   8.687  12.845
55106SOL    HW167215   4.374   8.607  12.852
55106SOL    HW267216   4.320   8.706  12.751
55107SOL     OW67217  12.162   1.847   3.401
55107SOL    HW167218  12.110   1.913   3.355
55107SOL    HW267219  12.252   1.881   3.397
55108SOL     OW67220   9.880   0.963   9.382
55108SOL    HW167221   9.811   0.926   9.328
55108SOL    HW267222   9.855   0.942   9.472
55109SOL     OW67223   2.848   3.551  13.832
55109SOL    HW167224   2.817   3.640  13.848
55109SOL    HW267225   2.777   3.495  13.864
55110SOL     OW67226   1.252  14.399  13.681
55110SOL    HW167227   1.282  14.415  13.770
55110SOL    HW267228   1.331  14.404  13.627
55111SOL     OW67229  13.356   2.778   0.158
55111SOL    HW167230  13.389   2.848   0.103
55111SOL    HW267231  13.299   2.821   0.221
55112SOL     OW67232   7.981   9.154  10.236
55112SOL    HW167233   7.953   9.078  10.185
55112SOL    HW267234   8.021   9.116  10.314
55113SOL     OW67235   2.158   2.537  14.836
55113SOL    HW167236   2.187   2.477   0.030
55113SOL    HW267237   2.236   2.588  14.814
55114SOL     OW67238   3.569   0.735   9.968
55114SOL    HW167239   3.480   0.747   9.935
55114SOL    HW267240   3.557   0.712  10.061
55115SOL     OW67241   3.331  12.064   3.129
55115SOL    HW167242   3.358  12.014   3.206
55115SOL    HW267243   3.412  12.079   3.080
55116SOL     OW67244  12.548   4.650   3.918
55116SOL    HW167245  12.565   4.675   4.009
55116SOL    HW267246  12.604   4.707   3.866
55117SOL     OW67247   2.818  13.407   0.853
55117SOL    HW167248   2.775  13.484   0.890
55117SOL    HW267249   2.773  13.392   0.770
55118SOL     OW67250   1.916  14.691   1.424
55118SOL    HW167251   1.985  14.755   1.441
55118SOL    HW267252   1.874  14.677   1.509
55119SOL     OW67253   1.615  12.631   1.371
55119SOL    HW167254   1.606  12.717   1.414
55119SOL    HW267255   1.596  12.568   1.440
55120SOL     OW67256  13.636  10.786   2.241
55120SOL    HW167257  13.578  10.709   2.239
55120SOL    HW267258  13.612  10.832   2.321
55121SOL     OW67259   8.776   1.032  10.291
55121SOL    HW167260   8.843   0.976  10.332
55121SOL    HW267261   8.695   1.011  10.337
55122SOL     OW67262   6.625   3.262  12.218
55122SOL    HW167263   6.669   3.177  12.211
55122SOL    HW267264   6.697   3.325  12.227
55123SOL     OW67265  12.602   1.709   2.642
55123SOL    HW167266  12.625   1.647   2.711
55123SOL    HW267267  12.651   1.788   2.663
55124SOL     OW67268   0.019   8.805   0.749
55124SOL    HW167269   0.082   8.869   0.783
55124SOL    HW267270  14.816   8.817   0.804
55125SOL     OW67271  12.837   4.095   4.220
55125SOL    HW167272  12.854   4.089   4.314
55125SOL    HW267273  12.865   4.010   4.185
55126SOL     OW67274   4.280   0.813   2.190
55126SOL    HW167275   4.188   0.795   2.207
55126SOL    HW267276   4.294   0.786   2.099
55127SOL     OW67277   6.969  12.888   1.683
55127SOL    HW167278   7.042  12.941   1.649
55127SOL    HW267279   7.011  12.818   1.732
55128SOL     OW67280  14.660   4.690   2.244
55128SOL    HW167281  14.686   4.603   2.213
55128SOL    HW267282  14.633   4.737   2.165
55129SOL     OW67283   7.759  14.816   0.880
55129SOL    HW167284   7.804  14.773   0.808
55129SOL    HW267285   7.667  14.817   0.854
55130SOL     OW67286  12.664   7.814   7.999
55130SOL    HW167287  12.722   7.738   7.989
55130SOL    HW267288  12.576   7.778   7.994
55131SOL     OW67289   8.077   2.696   3.083
55131SOL    HW167290   8.105   2.623   3.028
55131SOL    HW267291   8.112   2.774   3.040
55132SOL     OW67292  13.961   9.818   7.535
55132SOL    HW167293  13.970   9.776   7.450
55132SOL    HW267294  14.023   9.891   7.533
55133SOL     OW67295  13.898   9.527   0.726
55133SOL    HW167296  13.885   9.571   0.642
55133SOL    HW267297  13.839   9.452   0.724
55134SOL     OW67298   4.483  13.321   4.689
55134SOL    HW167299   4.394  13.296   4.712
55134SOL    HW267300   4.508  13.384   4.757
55135SOL     OW67301   9.424   0.415   4.578
55135SOL    HW167302   9.331   0.422   4.601
55135SOL    HW267303   9.455   0.505   4.577
55136SOL     OW67304  13.612  13.902   7.645
55136SOL    HW167305  13.678  13.935   7.706
55136SOL    HW267306  13.554  13.976   7.631
55137SOL     OW67307   7.426  12.957   7.173
55137SOL    HW167308   7.452  12.904   7.098
55137SOL    HW267309   7.505  13.006   7.196
55138SOL     OW67310  10.825  13.534   6.287
55138SOL    HW167311  10.742  13.524   6.334
55138SOL    HW267312  10.850  13.625   6.302
55139SOL     OW67313   7.862  14.624   5.433
55139SOL    HW167314   7.916  14.557   5.390
55139SOL    HW267315   7.885  14.705   5.387
55140SOL     OW67316   4.244  13.117  10.718
55140SOL    HW167317   4.295  13.191  10.752
55140SOL    HW267318   4.156  13.152  10.705
55141SOL     OW67319  10.361   3.682   7.845
55141SOL    HW167320  10.343   3.707   7.936
55141SOL    HW267321  10.292   3.620   7.822
55142SOL     OW67322   9.147   5.763   4.047
55142SOL    HW167323   9.207   5.698   4.011
55142SOL    HW267324   9.111   5.722   4.125
55143SOL     OW67325  13.674  10.138   0.249
55143SOL    HW167326  13.718  10.136   0.335
55143SOL    HW267327  13.688  10.227   0.218
55144SOL     OW67328  10.143   7.549  11.971
55144SOL    HW167329  10.237   7.531  11.964
55144SOL    HW267330  10.130   7.571  12.063
55145SOL     OW67331   1.880  11.141   3.915
55145SOL    HW167332   1.892  11.205   3.844
55145SOL    HW267333   1.938  11.068   3.891
55146SOL     OW67334   5.548  14.174  12.395
55146SOL    HW167335   5.524  14.215  12.478
55146SOL    HW267336   5.471  14.123  12.371
55147SOL     OW67337  13.556  14.599  10.417
55147SOL    HW167338  13.544  14.612  10.323
55147SOL    HW267339  13.613  14.523  10.424
55148SOL     OW67340   7.780   0.767   6.273
55148SOL    HW167341   7.734   0.778   6.190
55148SOL    HW267342   7.830   0.686   6.262
55149SOL     OW67343   8.015  13.852   2.231
55149SOL    HW167344   8.079  13.914   2.265
55149SOL    HW267345   8.057  13.766   2.242
55150SOL     OW67346   7.349  13.724  10.334
55150SOL    HW167347   7.437  13.755  10.312
55150SOL    HW267348   7.316  13.687  10.253
55151SOL     OW67349  10.263  14.058   4.745
55151SOL    HW167350  10.325  14.122   4.780
55151SOL    HW267351  10.302  14.032   4.661
55152SOL     OW67352  10.776  10.588  10.249
55152SOL    HW167353  10.767  10.639  10.168
55152SOL    HW267354  10.756  10.498  10.223
55153SOL     OW67355   7.807   6.765   7.073
55153SOL    HW167356   7.729   6.801   7.031
55153SOL    HW267357   7.798   6.788   7.165
55154SOL     OW67358   9.945  14.775   8.560
55154SOL    HW167359   9.908  14.709   8.618
55154SOL    HW267360  10.033  14.743   8.539
55155SOL     OW67361   2.699   4.938   7.099
55155SOL    HW167362   2.747   4.943   7.181
55155SOL    HW267363   2.671   5.028   7.083
55156SOL     OW67364   4.576   8.213   1.029
55156SOL    HW167365   4.644   8.278   1.046
55156SOL    HW267366   4.494   8.261   1.039
55157SOL     OW67367  10.913   9.059   0.625
55157SOL    HW167368  10.853   9.116   0.578
55157SOL    HW267369  11.000   9.085   0.594
55158SOL     OW67370   3.022   0.021   6.247
55158SOL    HW167371   3.021   0.068   6.163
55158SOL    HW267372   2.930   0.019   6.274
55159SOL     OW67373   4.130  10.511   2.160
55159SOL    HW167374   4.200  10.575   2.171
55159SOL    HW267375   4.174  10.435   2.121
55160SOL     OW67376   5.313   5.504   4.315
55160SOL    HW167377   5.266   5.465   4.242
55160SOL    HW267378   5.334   5.592   4.286
55161SOL     OW67379  13.398  13.754  13.795
55161SOL    HW167380  13.315  13.767  13.840
55161SOL    HW267381  13.377  13.694  13.723
55162SOL     OW67382   9.031   4.554   4.544
55162SOL    HW167383   8.954   4.594   4.585
55162SOL    HW267384   9.005   4.463   4.528
55163SOL     OW67385   8.009   4.363  13.904
55163SOL    HW167386   8.068   4.395  13.835
55163SOL    HW267387   8.040   4.407  13.983
55164SOL     OW67388   0.523   3.568  14.428
55164SOL    HW167389   0.476   3.484  14.425
55164SOL    HW267390   0.548   3.583  14.337
55165SOL     OW67391  10.296   1.206   5.451
55165SOL    HW167392  10.224   1.242   5.398
55165SOL    HW267393  10.255   1.136   5.501
55166SOL     OW67394   0.117   8.872  11.759
55166SOL    HW167395   0.125   8.966  11.773
55166SOL    HW267396   0.077   8.863  11.672
55167SOL     OW67397   1.113  12.385  14.670
55167SOL    HW167398   1.101  12.404  14.763
55167SOL    HW267399   1.199  12.424  14.649
55168SOL     OW67400  10.730  10.857   7.503
55168SOL    HW167401  10.658  10.800   7.531
55168SOL    HW267402  10.688  10.940   7.481
55169SOL     OW67403   7.755   6.584  10.417
55169SOL    HW167404   7.840   6.540  10.415
55169SOL    HW267405   7.726   6.575  10.508
55170SOL     OW67406   1.136  10.062  11.001
55170SOL    HW167407   1.094   9.982  11.031
55170SOL    HW267408   1.140  10.053  10.905
55171SOL     OW67409   7.568   6.088   7.819
55171SOL    HW167410   7.498   6.081   7.753
55171SOL    HW267411   7.630   6.149   7.781
55172SOL     OW67412   4.226   3.520   5.457
55172SOL    HW167413   4.285   3.492   5.527
55172SOL    HW267414   4.141   3.486   5.483
55173SOL     OW67415  14.613   0.420   1.112
55173SOL    HW167416  14.578   0.472   1.184
55173SOL    HW267417  14.704   0.404   1.135
55174SOL     OW67418  12.176   7.841   3.127
55174SOL    HW167419  12.149   7.830   3.036
55174SOL    HW267420  12.271   7.829   3.126
55175SOL     OW67421  14.666  10.867  14.263
55175SOL    HW167422  14.715  10.804  14.210
55175SOL    HW267423  14.686  10.843  14.354
55176SOL     OW67424   3.446   5.330   5.027
55176SOL    HW167425   3.470   5.241   5.052
55176SOL    HW267426   3.352   5.326   5.010
55177SOL     OW67427   2.480   9.418   8.996
55177SOL    HW167428   2.446   9.366   9.069
55177SOL    HW267429   2.572   9.391   8.989
55178SOL     OW67430   4.972  13.701   7.562
55178SOL    HW167431   5.008  13.631   7.507
55178SOL    HW267432   4.904  13.658   7.614
55179SOL     OW67433  12.889  12.229   3.902
55179SOL    HW167434  12.937  12.259   3.979
55179SOL    HW267435  12.955  12.220   3.834
55180SOL     OW67436   2.973   9.200   6.497
55180SOL    HW167437   2.887   9.159   6.507
55180SOL    HW267438   2.973   9.270   6.562
55181SOL     OW67439  10.116   2.359   6.747
55181SOL    HW167440  10.042   2.415   6.770
55181SOL    HW267441  10.185   2.383   6.809
55182SOL     OW67442  11.658  11.941  11.161
55182SOL    HW167443  11.723  11.890  11.113
55182SOL    HW267444  11.707  11.978  11.235
55183SOL     OW67445  12.571  11.990  11.523
55183SOL    HW167446  12.623  12.062  11.558
55183SOL    HW267447  12.486  11.998  11.567
55184SOL     OW67448   6.224   5.290  12.564
55184SOL    HW167449   6.137   5.288  12.605
55184SOL    HW267450   6.266   5.367  12.603
55185SOL     OW67451   4.537   5.840   4.438
55185SOL    HW167452   4.576   5.760   4.471
55185SOL    HW267453   4.453   5.847   4.485
55186SOL     OW67454  10.901   1.400   1.590
55186SOL    HW167455  10.889   1.495   1.590
55186SOL    HW267456  10.870   1.372   1.676
55187SOL     OW67457   0.596   7.585  13.774
55187SOL    HW167458   0.608   7.499  13.814
55187SOL    HW267459   0.672   7.636  13.803
55188SOL     OW67460   5.461   9.392   7.277
55188SOL    HW167461   5.449   9.350   7.363
55188SOL    HW267462   5.425   9.480   7.289
55189SOL     OW67463   9.091  10.897   9.536
55189SOL    HW167464   9.056  10.987   9.536
55189SOL    HW267465   9.018  10.843   9.567
55190SOL     OW67466   6.289   6.918   9.509
55190SOL    HW167467   6.296   6.968   9.428
55190SOL    HW267468   6.218   6.856   9.494
55191SOL     OW67469   1.385  11.506   7.213
55191SOL    HW167470   1.301  11.550   7.220
55191SOL    HW267471   1.432  11.529   7.293
55192SOL     OW67472   8.806  10.232   5.910
55192SOL    HW167473   8.793  10.269   5.997
55192SOL    HW267474   8.883  10.176   5.920
55193SOL     OW67475   1.464   9.412  11.755
55193SOL    HW167476   1.409   9.456  11.820
55193SOL    HW267477   1.405   9.351  11.711
55194SOL     OW67478   3.258   0.098  12.441
55194SOL    HW167479   3.281   0.056  12.524
55194SOL    HW267480   3.341   0.104  12.393
55195SOL     OW67481   4.978  13.975  14.687
55195SOL    HW167482   4.884  13.969  14.673
55195SOL    HW267483   5.012  13.891  14.656
55196SOL     OW67484   7.931   8.441  13.606
55196SOL    HW167485   8.006   8.499  13.622
55196SOL    HW267486   7.954   8.359  13.650
55197SOL     OW67487   0.985   1.337  14.114
55197SOL    HW167488   0.989   1.382  14.198
55197SOL    HW267489   0.893   1.312  14.104
55198SOL     OW67490  11.813   9.726   5.511
55198SOL    HW167491  11.806   9.653   5.450
55198SOL    HW267492  11.880   9.699   5.574
55199SOL     OW67493   9.604  13.592   6.825
55199SOL    HW167494   9.595  13.531   6.752
55199SOL    HW267495   9.517  13.595   6.865
55200SOL     OW67496   0.769   5.909  12.081
55200SOL    HW167497   0.687   5.920  12.129
55200SOL    HW267498   0.783   5.814  12.080
55201SOL     OW67499  13.131  13.299  11.707
55201SOL    HW167500  13.168  13.215  11.735
55201SOL    HW267501  13.037  13.283  11.704
55202SOL     OW67502   7.719   2.308  10.544
55202SOL    HW167503   7.655   2.253  10.499
55202SOL    HW267504   7.795   2.308  10.486
55203SOL     OW67505  12.600   7.101  14.293
55203SOL    HW167506  12.528   7.037  14.285
55203SOL    HW267507  12.576   7.155  14.368
55204SOL     OW67508  13.553   1.469   8.197
55204SOL    HW167509  13.614   1.496   8.129
55204SOL    HW267510  13.479   1.431   8.149
55205SOL     OW67511   3.249   2.906   4.239
55205SOL    HW167512   3.209   2.858   4.312
55205SOL    HW267513   3.308   2.968   4.282
55206SOL     OW67514   2.608  10.702  11.531
55206SOL    HW167515   2.550  10.726  11.459
55206SOL    HW267516   2.640  10.785  11.565
55207SOL     OW67517  12.159   3.638   7.505
55207SOL    HW167518  12.116   3.608   7.586
55207SOL    HW267519  12.182   3.557   7.459
55208SOL     OW67520  14.016  14.592  12.568
55208SOL    HW167521  14.021  14.686  12.583
55208SOL    HW267522  14.070  14.554  12.637
55209SOL     OW67523   5.953   2.667   5.427
55209SOL    HW167524   6.047   2.659   5.440
55209SOL    HW267525   5.942   2.657   5.332
55210SOL     OW67526   8.337   2.104   3.808
55210SOL    HW167527   8.288   2.081   3.729
55210SOL    HW267528   8.355   2.020   3.851
55211SOL     OW67529   7.019   1.929  13.642
55211SOL    HW167530   7.113   1.924  13.627
55211SOL    HW267531   7.010   1.997  13.709
55212SOL     OW67532   1.372   6.965   0.601
55212SOL    HW167533   1.428   7.040   0.620
55212SOL    HW267534   1.311   6.961   0.675
55213SOL     OW67535   2.237  10.675  10.259
55213SOL    HW167536   2.183  10.636  10.191
55213SOL    HW267537   2.314  10.708  10.213
55214SOL     OW67538   0.908   2.091   2.885
55214SOL    HW167539   0.966   2.144   2.830
55214SOL    HW267540   0.960   2.013   2.905
55215SOL     OW67541  10.046   5.681   7.892
55215SOL    HW167542   9.962   5.696   7.935
55215SOL    HW267543  10.080   5.769   7.874
55216SOL     OW67544   8.517  10.260   6.786
55216SOL    HW167545   8.489  10.198   6.853
55216SOL    HW267546   8.556  10.205   6.717
55217SOL     OW67547  13.020  13.953   6.800
55217SOL    HW167548  12.949  13.935   6.862
55217SOL    HW267549  13.096  13.973   6.854
55218SOL     OW67550   9.319   5.366   0.751
55218SOL    HW167551   9.357   5.419   0.681
55218SOL    HW267552   9.259   5.426   0.796
55219SOL     OW67553   4.738   9.455   0.214
55219SOL    HW167554   4.725   9.549   0.218
55219SOL    HW267555   4.650   9.418   0.212
55220SOL     OW67556   2.516   2.852  13.000
55220SOL    HW167557   2.519   2.758  13.017
55220SOL    HW267558   2.426   2.869  12.973
55221SOL     OW67559   5.864   4.060  11.928
55221SOL    HW167560   5.865   4.109  11.845
55221SOL    HW267561   5.837   4.124  11.993
55222SOL     OW67562   2.131   1.401   3.089
55222SOL    HW167563   2.175   1.407   3.173
55222SOL    HW267564   2.119   1.307   3.076
55223SOL     OW67565   0.641   1.039   5.943
55223SOL    HW167566   0.584   0.997   5.879
55223SOL    HW267567   0.583   1.095   5.994
55224SOL     OW67568   0.167   1.800  14.513
55224SOL    HW167569   0.090   1.855  14.524
55224SOL    HW267570   0.133   1.717  14.479
55225SOL     OW67571  11.285  13.325  13.543
55225SOL    HW167572  11.256  13.296  13.457
55225SOL    HW267573  11.260  13.417  13.548
55226SOL     OW67574   4.941   2.701   1.748
55226SOL    HW167575   4.863   2.647   1.760
55226SOL    HW267576   5.012   2.651   1.788
55227SOL     OW67577  10.316   6.373  11.148
55227SOL    HW167578  10.286   6.292  11.189
55227SOL    HW267579  10.238   6.410  11.107
55228SOL     OW67580   2.810  11.563   8.976
55228SOL    HW167581   2.821  11.472   9.002
55228SOL    HW267582   2.849  11.614   9.048
55229SOL     OW67583   5.127   8.738  12.582
55229SOL    HW167584   5.045   8.699  12.614
55229SOL    HW267585   5.151   8.802  12.649
55230SOL     OW67586   6.901   4.607  14.633
55230SOL    HW167587   6.841   4.681  14.632
55230SOL    HW267588   6.886   4.565  14.718
55231SOL     OW67589   1.597   0.391  10.472
55231SOL    HW167590   1.691   0.403  10.462
55231SOL    HW267591   1.585   0.296  10.475
55232SOL     OW67592   6.340   9.983  11.999
55232SOL    HW167593   6.432   9.992  11.973
55232SOL    HW267594   6.326  10.054  12.061
55233SOL     OW67595  14.349   4.492   7.224
55233SOL    HW167596  14.431   4.534   7.198
55233SOL    HW267597  14.317   4.546   7.297
55234SOL     OW67598   1.133  14.063  10.386
55234SOL    HW167599   1.214  14.031  10.427
55234SOL    HW267600   1.141  14.158  10.388
55235SOL     OW67601   1.343   1.756   7.520
55235SOL    HW167602   1.262   1.706   7.506
55235SOL    HW267603   1.319   1.846   7.499
55236SOL     OW67604   9.740   4.389   0.462
55236SOL    HW167605   9.796   4.332   0.514
55236SOL    HW267606   9.779   4.476   0.471
55237SOL     OW67607   7.084  14.011   1.562
55237SOL    HW167608   7.102  14.027   1.655
55237SOL    HW267609   7.160  13.960   1.532
55238SOL     OW67610   8.812  10.714   5.570
55238SOL    HW167611   8.898  10.678   5.549
55238SOL    HW267612   8.753  10.639   5.570
55239SOL     OW67613  11.106   3.056   4.664
55239SOL    HW167614  11.016   3.023   4.663
55239SOL    HW267615  11.126   3.074   4.573
55240SOL     OW67616   3.216   6.494   7.250
55240SOL    HW167617   3.142   6.442   7.281
55240SOL    HW267618   3.252   6.535   7.329
55241SOL     OW67619   4.424   6.763   8.608
55241SOL    HW167620   4.453   6.817   8.534
55241SOL    HW267621   4.505   6.743   8.656
55242SOL     OW67622  11.660   7.452  14.548
55242SOL    HW167623  11.669   7.358  14.531
55242SOL    HW267624  11.634   7.490  14.464
55243SOL     OW67625   9.981   1.750  12.151
55243SOL    HW167626   9.994   1.730  12.243
55243SOL    HW267627   9.958   1.843  12.149
55244SOL     OW67628  11.980   1.050   8.824
55244SOL    HW167629  11.902   1.001   8.852
55244SOL    HW267630  12.033   1.057   8.903
55245SOL     OW67631   6.834   0.424   1.223
55245SOL    HW167632   6.813   0.398   1.313
55245SOL    HW267633   6.770   0.492   1.202
55246SOL     OW67634   7.957   3.664  14.551
55246SOL    HW167635   7.908   3.662  14.469
55246SOL    HW267636   8.045   3.635  14.528
55247SOL     OW67637   9.105   6.670   7.875
55247SOL    HW167638   9.065   6.597   7.829
55247SOL    HW267639   9.033   6.732   7.889
55248SOL     OW67640  10.431  13.859   0.616
55248SOL    HW167641  10.335  13.864   0.609
55248SOL    HW267642  10.455  13.934   0.670
55249SOL     OW67643  11.054  11.040   3.161
55249SOL    HW167644  11.055  10.944   3.169
55249SOL    HW267645  11.049  11.072   3.251
55250SOL     OW67646   6.494   1.861   9.957
55250SOL    HW167647   6.410   1.905   9.971
55250SOL    HW267648   6.503   1.854   9.862
55251SOL     OW67649  10.193   5.672  13.627
55251SOL    HW167650  10.102   5.660  13.654
55251SOL    HW267651  10.198   5.764  13.600
55252SOL     OW67652   0.724  14.611   5.325
55252SOL    HW167653   0.636  14.572   5.322
55252SOL    HW267654   0.771  14.569   5.253
55253SOL     OW67655  12.872  11.066  10.509
55253SOL    HW167656  12.915  10.988  10.471
55253SOL    HW267657  12.885  11.057  10.603
55254SOL     OW67658   3.031   9.576   9.444
55254SOL    HW167659   2.975   9.593   9.520
55254SOL    HW267660   3.120   9.569   9.480
55255SOL     OW67661   3.225   7.869   2.366
55255SOL    HW167662   3.154   7.882   2.429
55255SOL    HW267663   3.187   7.890   2.281
55256SOL     OW67664  11.712  13.314  13.056
55256SOL    HW167665  11.691  13.357  12.972
55256SOL    HW267666  11.763  13.380  13.104
55257SOL     OW67667  13.621   2.484  10.935
55257SOL    HW167668  13.609   2.394  10.967
55257SOL    HW267669  13.715   2.498  10.936
55258SOL     OW67670   0.801   8.513   2.808
55258SOL    HW167671   0.887   8.552   2.793
55258SOL    HW267672   0.811   8.422   2.781
55259SOL     OW67673   1.010  10.262   0.268
55259SOL    HW167674   0.950  10.214   0.211
55259SOL    HW267675   1.089  10.276   0.214
55260SOL     OW67676  14.574  10.894   2.121
55260SOL    HW167677  14.660  10.854   2.133
55260SOL    HW267678  14.513  10.837   2.168
55261SOL     OW67679   4.032   4.714  10.181
55261SOL    HW167680   4.070   4.661  10.110
55261SOL    HW267681   4.092   4.702  10.255
55262SOL     OW67682  12.310   6.723  11.063
55262SOL    HW167683  12.218   6.747  11.075
55262SOL    HW267684  12.330   6.667  11.138
55263SOL     OW67685  13.531   7.433  14.117
55263SOL    HW167686  13.550   7.523  14.090
55263SOL    HW267687  13.597   7.380  14.071
55264SOL     OW67688   1.433   2.063   3.686
55264SOL    HW167689   1.482   2.141   3.713
55264SOL    HW267690   1.498   1.993   3.684
55265SOL     OW67691  10.933   6.542  13.809
55265SOL    HW167692  10.866   6.528  13.743
55265SOL    HW267693  10.992   6.467  13.800
55266SOL     OW67694   0.704   2.929   4.733
55266SOL    HW167695   0.759   2.857   4.764
55266SOL    HW267696   0.720   2.999   4.797
55267SOL     OW67697   4.663  12.894   8.916
55267SOL    HW167698   4.716  12.846   8.980
55267SOL    HW267699   4.698  12.983   8.919
55268SOL     OW67700   0.421   5.303  14.043
55268SOL    HW167701   0.457   5.344  13.964
55268SOL    HW267702   0.399   5.214  14.016
55269SOL     OW67703  10.955   1.991   9.274
55269SOL    HW167704  11.017   2.058   9.245
55269SOL    HW267705  10.885   1.993   9.209
55270SOL     OW67706   2.163   7.369  14.486
55270SOL    HW167707   2.110   7.436  14.530
55270SOL    HW267708   2.104   7.331  14.421
55271SOL     OW67709  13.440   2.106   7.238
55271SOL    HW167710  13.452   2.049   7.314
55271SOL    HW267711  13.467   2.052   7.164
55272SOL     OW67712   4.250   8.526   8.097
55272SOL    HW167713   4.255   8.432   8.116
55272SOL    HW267714   4.332   8.546   8.052
55273SOL     OW67715   1.363   2.242   3.933
55273SOL    HW167716   1.454   2.270   3.946
55273SOL    HW267717   1.368   2.180   3.860
55274SOL     OW67718   3.293   4.776  13.901
55274SOL    HW167719   3.285   4.682  13.917
55274SOL    HW267720   3.357   4.805  13.966
55275SOL     OW67721   7.233   5.777  11.706
55275SOL    HW167722   7.283   5.843  11.752
55275SOL    HW267723   7.141   5.800  11.722
55276SOL     OW67724   2.664   8.501  10.266
55276SOL    HW167725   2.692   8.449  10.341
55276SOL    HW267726   2.586   8.547  10.296
55277SOL     OW67727   0.324   5.136  13.807
55277SOL    HW167728   0.397   5.129  13.745
55277SOL    HW267729   0.246   5.138  13.752
55278SOL     OW67730   4.710   1.128   0.158
55278SOL    HW167731   4.639   1.159   0.214
55278SOL    HW267732   4.667   1.078   0.089
55279SOL     OW67733  12.864   1.302   4.804
55279SOL    HW167734  12.771   1.283   4.809
55279SOL    HW267735  12.884   1.346   4.887
55280SOL     OW67736  13.893   8.299   2.289
55280SOL    HW167737  13.833   8.226   2.274
55280SOL    HW267738  13.916   8.330   2.202
55281SOL     OW67739   7.323   7.468  11.912
55281SOL    HW167740   7.409   7.479  11.872
55281SOL    HW267741   7.271   7.541  11.877
55282SOL     OW67742   4.298  14.039  12.231
55282SOL    HW167743   4.312  14.066  12.321
55282SOL    HW267744   4.379  13.994  12.206
55283SOL     OW67745   8.284  14.270   4.116
55283SOL    HW167746   8.365  14.316   4.139
55283SOL    HW267747   8.293  14.184   4.157
55284SOL     OW67748   9.795   3.128   4.346
55284SOL    HW167749   9.836   3.212   4.365
55284SOL    HW267750   9.710   3.151   4.309
55285SOL     OW67751  13.984   7.261   3.050
55285SOL    HW167752  14.050   7.316   3.091
55285SOL    HW267753  13.903   7.312   3.056
55286SOL     OW67754   6.723   5.813   5.612
55286SOL    HW167755   6.745   5.720   5.601
55286SOL    HW267756   6.644   5.812   5.666
55287SOL     OW67757   7.113  14.078  13.529
55287SOL    HW167758   7.107  14.024  13.450
55287SOL    HW267759   7.114  14.016  13.601
55288SOL     OW67760   3.805  12.167   7.747
55288SOL    HW167761   3.764  12.131   7.826
55288SOL    HW267762   3.883  12.113   7.734
55289SOL     OW67763   5.717   9.520   1.160
55289SOL    HW167764   5.653   9.520   1.089
55289SOL    HW267765   5.717   9.430   1.192
55290SOL     OW67766   4.676  14.489   7.175
55290SOL    HW167767   4.770  14.476   7.189
55290SOL    HW267768   4.660  14.451   7.088
55291SOL     OW67769  10.920   6.615  11.862
55291SOL    HW167770  10.916   6.656  11.775
55291SOL    HW267771  10.828   6.609  11.889
55292SOL     OW67772   8.096  11.610   7.773
55292SOL    HW167773   8.165  11.643   7.831
55292SOL    HW267774   8.016  11.654   7.804
55293SOL     OW67775   2.599   1.367   4.815
55293SOL    HW167776   2.530   1.335   4.873
55293SOL    HW267777   2.598   1.462   4.825
55294SOL     OW67778   9.722   8.700   2.509
55294SOL    HW167779   9.676   8.626   2.547
55294SOL    HW267780   9.787   8.661   2.451
55295SOL     OW67781   3.152   2.532   5.621
55295SOL    HW167782   3.184   2.494   5.702
55295SOL    HW267783   3.070   2.576   5.645
55296SOL     OW67784  10.199  14.698   5.338
55296SOL    HW167785  10.186  14.792   5.342
55296SOL    HW267786  10.173  14.667   5.425
55297SOL     OW67787   6.866   3.601   3.680
55297SOL    HW167788   6.898   3.609   3.590
55297SOL    HW267789   6.944   3.614   3.735
55298SOL     OW67790   9.732   3.346   1.244
55298SOL    HW167791   9.780   3.396   1.179
55298SOL    HW267792   9.788   3.346   1.321
55299SOL     OW67793   7.187   7.394  12.138
55299SOL    HW167794   7.201   7.469  12.196
55299SOL    HW267795   7.243   7.412  12.062
55300SOL     OW67796   7.465  10.989   0.992
55300SOL    HW167797   7.456  11.055   1.060
55300SOL    HW267798   7.552  10.951   1.007
55301SOL     OW67799   3.450   1.828  13.486
55301SOL    HW167800   3.426   1.743  13.523
55301SOL    HW267801   3.434   1.890  13.557
55302SOL     OW67802  12.770   4.609   5.985
55302SOL    HW167803  12.784   4.697   6.021
55302SOL    HW267804  12.847   4.594   5.930
55303SOL     OW67805  12.547   0.335   2.326
55303SOL    HW167806  12.615   0.338   2.393
55303SOL    HW267807  12.590   0.365   2.246
55304SOL     OW67808   6.850  11.924  13.728
55304SOL    HW167809   6.900  11.843  13.723
55304SOL    HW267810   6.859  11.951  13.819
55305SOL     OW67811   7.415  12.053   9.364
55305SOL    HW167812   7.410  12.138   9.322
55305SOL    HW267813   7.377  12.066   9.451
55306SOL     OW67814   1.316   9.936   8.010
55306SOL    HW167815   1.304   9.876   8.083
55306SOL    HW267816   1.399   9.980   8.029
55307SOL     OW67817   0.877   0.558   5.969
55307SOL    HW167818   0.807   0.613   5.932
55307SOL    HW267819   0.911   0.608   6.042
55308SOL     OW67820   6.006   1.093   7.671
55308SOL    HW167821   6.060   1.045   7.734
55308SOL    HW267822   6.068   1.140   7.616
55309SOL     OW67823   2.620   0.683   5.696
55309SOL    HW167824   2.568   0.747   5.646
55309SOL    HW267825   2.648   0.620   5.630
55310SOL     OW67826  12.962  10.023  13.601
55310SOL    HW167827  12.976  10.034  13.507
55310SOL    HW267828  13.050  10.007  13.636
55311SOL     OW67829  11.285   4.244   3.198
55311SOL    HW167830  11.244   4.203   3.274
55311SOL    HW267831  11.327   4.323   3.233
55312SOL     OW67832   9.414  11.360  10.092
55312SOL    HW167833   9.383  11.445  10.121
55312SOL    HW267834   9.506  11.374  10.068
55313SOL     OW67835   0.821   9.085  14.800
55313SOL    HW167836   0.867   9.063   0.006
55313SOL    HW267837   0.873   9.155  14.761
55314SOL     OW67838   4.437   4.312  13.453
55314SOL    HW167839   4.353   4.286  13.491
55314SOL    HW267840   4.499   4.247  13.487
55315SOL     OW67841  11.108   1.957  14.139
55315SOL    HW167842  11.042   1.892  14.116
55315SOL    HW267843  11.154   1.974  14.057
55316SOL     OW67844  10.555   6.242   6.110
55316SOL    HW167845  10.494   6.170   6.095
55316SOL    HW267846  10.498   6.317   6.128
55317SOL     OW67847   7.834   7.227  12.982
55317SOL    HW167848   7.813   7.182  12.900
55317SOL    HW267849   7.902   7.291  12.958
55318SOL     OW67850   7.079   4.315   9.385
55318SOL    HW167851   7.122   4.349   9.464
55318SOL    HW267852   7.143   4.328   9.316
55319SOL     OW67853   1.062  14.541   4.264
55319SOL    HW167854   0.994  14.593   4.223
55319SOL    HW267855   1.059  14.456   4.219
55320SOL     OW67856   3.703   0.801   4.970
55320SOL    HW167857   3.717   0.717   4.925
55320SOL    HW267858   3.671   0.860   4.902
55321SOL     OW67859   7.854   5.695   5.157
55321SOL    HW167860   7.884   5.779   5.124
55321SOL    HW267861   7.809   5.716   5.238
55322SOL     OW67862  13.901  13.375  13.158
55322SOL    HW167863  13.939  13.375  13.246
55322SOL    HW267864  13.809  13.353  13.171
55323SOL     OW67865   5.471   0.664  12.830
55323SOL    HW167866   5.490   0.746  12.875
55323SOL    HW267867   5.554   0.640  12.788
55324SOL     OW67868   4.917   2.453   8.609
55324SOL    HW167869   4.841   2.499   8.646
55324SOL    HW267870   4.903   2.454   8.515
55325SOL     OW67871  11.416   3.134   5.791
55325SOL    HW167872  11.431   3.088   5.709
55325SOL    HW267873  11.357   3.078   5.840
55326SOL     OW67874   3.871   5.509   5.824
55326SOL    HW167875   3.787   5.480   5.787
55326SOL    HW267876   3.887   5.594   5.783
55327SOL     OW67877   9.381  10.934  10.444
55327SOL    HW167878   9.353  11.002  10.384
55327SOL    HW267879   9.446  10.976  10.501
55328SOL     OW67880   9.613   5.856  14.305
55328SOL    HW167881   9.682   5.916  14.278
55328SOL    HW267882   9.539   5.877  14.248
55329SOL     OW67883  12.617   6.100  10.206
55329SOL    HW167884  12.585   6.123  10.293
55329SOL    HW267885  12.548   6.130  10.146
55330SOL     OW67886   5.489  13.142   4.239
55330SOL    HW167887   5.414  13.198   4.257
55330SOL    HW267888   5.467  13.057   4.277
55331SOL     OW67889  13.428   8.413   9.307
55331SOL    HW167890  13.484   8.476   9.261
55331SOL    HW267891  13.446   8.330   9.263
55332SOL     OW67892  13.501   5.857   6.708
55332SOL    HW167893  13.509   5.834   6.801
55332SOL    HW267894  13.409   5.842   6.688
55333SOL     OW67895   3.000   1.028  14.624
55333SOL    HW167896   2.974   1.062  14.710
55333SOL    HW267897   2.945   1.076  14.562
55334SOL     OW67898  14.633   5.000  14.762
55334SOL    HW167899  14.693   5.024  14.834
55334SOL    HW267900  14.602   4.913  14.786
55335SOL     OW67901  11.798  12.006  14.057
55335SOL    HW167902  11.805  11.921  14.099
55335SOL    HW267903  11.767  12.065  14.126
55336SOL     OW67904   5.693   4.604  10.284
55336SOL    HW167905   5.716   4.515  10.311
55336SOL    HW267906   5.774   4.654  10.291
55337SOL     OW67907   9.781  10.140   4.049
55337SOL    HW167908   9.856  10.190   4.080
55337SOL    HW267909   9.817  10.080   3.984
55338SOL     OW67910  11.071   0.765   3.357
55338SOL    HW167911  11.157   0.806   3.360
55338SOL    HW267912  11.021   0.809   3.426
55339SOL     OW67913  14.755   2.898   6.988
55339SOL    HW167914  14.798   2.827   7.035
55339SOL    HW267915  14.752   2.971   7.050
55340SOL     OW67916  11.687   9.938   2.100
55340SOL    HW167917  11.735   9.862   2.068
55340SOL    HW267918  11.598   9.907   2.112
55341SOL     OW67919  12.363   2.961   2.656
55341SOL    HW167920  12.409   3.039   2.687
55341SOL    HW267921  12.357   2.905   2.733
55342SOL     OW67922   0.812   3.082   6.993
55342SOL    HW167923   0.805   2.991   6.962
55342SOL    HW267924   0.884   3.080   7.057
55343SOL     OW67925   0.093  14.077   1.672
55343SOL    HW167926   0.184  14.051   1.661
55343SOL    HW267927   0.097  14.166   1.708
55344SOL     OW67928   6.901  14.867   6.326
55344SOL    HW167929   6.850  14.801   6.371
55344SOL    HW267930   6.878  14.856   6.233
55345SOL     OW67931  12.806  10.061   8.856
55345SOL    HW167932  12.851   9.990   8.901
55345SOL    HW267933  12.771  10.116   8.926
55346SOL     OW67934  11.353   7.080  14.537
55346SOL    HW167935  11.282   7.019  14.520
55346SOL    HW267936  11.397   7.044  14.614
55347SOL     OW67937   7.985   9.864   0.338
55347SOL    HW167938   8.068   9.849   0.382
55347SOL    HW267939   7.993   9.952   0.301
55348SOL     OW67940  11.820  14.554   5.127
55348SOL    HW167941  11.758  14.525   5.193
55348SOL    HW267942  11.830  14.648   5.143
55349SOL     OW67943  12.618  10.528   5.194
55349SOL    HW167944  12.566  10.560   5.268
55349SOL    HW267945  12.704  10.567   5.206
55350SOL     OW67946   2.601  14.756  12.781
55350SOL    HW167947   2.591  14.727  12.872
55350SOL    HW267948   2.527  14.815  12.767
55351SOL     OW67949  13.018   2.519  14.585
55351SOL    HW167950  12.965   2.469  14.647
55351SOL    HW267951  13.090   2.461  14.562
55352SOL     OW67952  14.517   1.108   2.667
55352SOL    HW167953  14.566   1.129   2.587
55352SOL    HW267954  14.426   1.123   2.643
55353SOL     OW67955   6.050   5.400   5.127
55353SOL    HW167956   6.089   5.337   5.067
55353SOL    HW267957   5.959   5.409   5.097
55354SOL     OW67958   5.947   4.931  14.039
55354SOL    HW167959   6.018   4.933  14.103
55354SOL    HW267960   5.959   5.012  13.989
55355SOL     OW67961  10.299   2.067   7.397
55355SOL    HW167962  10.327   2.138   7.340
55355SOL    HW267963  10.362   1.997   7.381
55356SOL     OW67964   6.046   5.200   4.330
55356SOL    HW167965   6.026   5.109   4.355
55356SOL    HW267966   6.137   5.197   4.303
55357SOL     OW67967   6.520   7.825   2.793
55357SOL    HW167968   6.512   7.918   2.770
55357SOL    HW267969   6.496   7.779   2.713
55358SOL     OW67970  14.724   6.144   2.402
55358SOL    HW167971  14.772   6.108   2.327
55358SOL    HW267972  14.651   6.083   2.415
55359SOL     OW67973   7.892   8.902  11.853
55359SOL    HW167974   7.838   8.886  11.776
55359SOL    HW267975   7.906   8.815  11.891
55360SOL     OW67976  12.419   2.253  11.407
55360SOL    HW167977  12.484   2.182  11.404
55360SOL    HW267978  12.337   2.211  11.382
55361SOL     OW67979   4.422  10.686   0.370
55361SOL    HW167980   4.470  10.761   0.333
55361SOL    HW267981   4.431  10.617   0.305
55362SOL     OW67982   4.736  10.757  13.822
55362SOL    HW167983   4.825  10.791  13.821
55362SOL    HW267984   4.738  10.686  13.886
55363SOL     OW67985   5.854   2.227   4.911
55363SOL    HW167986   5.806   2.180   4.842
55363SOL    HW267987   5.943   2.192   4.906
55364SOL     OW67988   3.556  10.859  14.568
55364SOL    HW167989   3.563  10.764  14.554
55364SOL    HW267990   3.647  10.890  14.570
55365SOL     OW67991   3.360   0.794  14.215
55365SOL    HW167992   3.377   0.852  14.141
55365SOL    HW267993   3.343   0.853  14.289
55366SOL     OW67994  14.098  13.049  11.962
55366SOL    HW167995  14.147  12.978  11.920
55366SOL    HW267996  14.139  13.129  11.929
55367SOL     OW67997   6.500   3.618   0.956
55367SOL    HW167998   6.574   3.671   0.927
55367SOL    HW267999   6.441   3.681   0.998
55368SOL     OW68000   8.093   6.932   8.496
55368SOL    HW168001   8.173   6.958   8.542
55368SOL    HW268002   8.030   6.917   8.566
55369SOL     OW68003   3.044  12.743   0.684
55369SOL    HW168004   3.072  12.795   0.609
55369SOL    HW268005   3.010  12.808   0.746
55370SOL     OW68006  10.291  10.750   7.627
55370SOL    HW168007  10.348  10.806   7.680
55370SOL    HW268008  10.206  10.794   7.629
55371SOL     OW68009  10.626   3.404  12.483
55371SOL    HW168010  10.627   3.425  12.390
55371SOL    HW268011  10.685   3.469  12.522
55372SOL     OW68012   4.437  14.482  12.341
55372SOL    HW168013   4.480  14.416  12.395
55372SOL    HW268014   4.362  14.438  12.302
55373SOL     OW68015  12.957  13.281   6.774
55373SOL    HW168016  12.913  13.343   6.715
55373SOL    HW268017  13.050  13.304   6.769
55374SOL     OW68018   3.480   9.670   3.833
55374SOL    HW168019   3.539   9.626   3.893
55374SOL    HW268020   3.399   9.681   3.882
55375SOL     OW68021   2.928  11.114   2.303
55375SOL    HW168022   2.971  11.134   2.219
55375SOL    HW268023   2.836  11.102   2.281
55376SOL     OW68024   3.670  14.349  13.609
55376SOL    HW168025   3.725  14.351  13.688
55376SOL    HW268026   3.673  14.439  13.576
55377SOL     OW68027   5.792   9.946   4.555
55377SOL    HW168028   5.838   9.992   4.625
55377SOL    HW268029   5.716   9.907   4.598
55378SOL     OW68030  13.893   9.653  10.645
55378SOL    HW168031  13.864   9.588  10.581
55378SOL    HW268032  13.816   9.708  10.659
55379SOL     OW68033  13.473  13.671   3.126
55379SOL    HW168034  13.437  13.740   3.182
55379SOL    HW268035  13.490  13.714   3.043
55380SOL     OW68036  14.824  13.556  10.015
55380SOL    HW168037  14.828  13.473   9.967
55380SOL    HW268038  14.838  13.623   9.947
55381SOL     OW68039   7.855   7.831   0.205
55381SOL    HW168040   7.892   7.900   0.260
55381SOL    HW268041   7.928   7.772   0.186
55382SOL     OW68042  14.363   3.015   7.052
55382SOL    HW168043  14.341   3.105   7.028
55382SOL    HW268044  14.310   2.997   7.129
55383SOL     OW68045  10.323   3.371   3.154
55383SOL    HW168046  10.369   3.288   3.144
55383SOL    HW268047  10.327   3.390   3.248
55384SOL     OW68048  13.264   4.511   9.778
55384SOL    HW168049  13.335   4.474   9.831
55384SOL    HW268050  13.185   4.475   9.817
55385SOL     OW68051  13.135  12.101  11.125
55385SOL    HW168052  13.178  12.016  11.134
55385SOL    HW268053  13.061  12.085  11.067
55386SOL     OW68054   9.042  14.786   8.131
55386SOL    HW168055   9.079  14.797   8.219
55386SOL    HW268056   9.100  14.723   8.088
55387SOL     OW68057  12.173   1.650   9.689
55387SOL    HW168058  12.211   1.573   9.732
55387SOL    HW268059  12.086   1.658   9.729
55388SOL     OW68060  10.107  12.381   7.846
55388SOL    HW168061  10.068  12.295   7.835
55388SOL    HW268062  10.076  12.431   7.770
55389SOL     OW68063   4.574   0.177   1.938
55389SOL    HW168064   4.505   0.181   2.004
55389SOL    HW268065   4.649   0.222   1.977
55390SOL     OW68066  10.944  13.597   8.998
55390SOL    HW168067  10.977  13.508   8.999
55390SOL    HW268068  10.961  13.629   8.909
55391SOL     OW68069   6.386  10.409   7.800
55391SOL    HW168070   6.432  10.493   7.794
55391SOL    HW268071   6.450  10.350   7.841
55392SOL     OW68072  10.988   9.505   5.875
55392SOL    HW168073  10.938   9.584   5.897
55392SOL    HW268074  11.043   9.489   5.951
55393SOL     OW68075   3.482   3.734  10.808
55393SOL    HW168076   3.432   3.667  10.855
55393SOL    HW268077   3.567   3.693  10.792
55394SOL     OW68078  10.990   1.664   5.284
55394SOL    HW168079  10.934   1.591   5.258
55394SOL    HW268080  10.929   1.728   5.322
55395SOL     OW68081   2.416   8.821   0.073
55395SOL    HW168082   2.367   8.876   0.134
55395SOL    HW268083   2.483   8.779   0.127
55396SOL     OW68084   9.718   3.499  12.379
55396SOL    HW168085   9.709   3.455  12.294
55396SOL    HW268086   9.714   3.429  12.443
55397SOL     OW68087  10.895  12.765   4.506
55397SOL    HW168088  10.880  12.706   4.580
55397SOL    HW268089  10.981  12.804   4.524
55398SOL     OW68090   7.155  13.573   7.388
55398SOL    HW168091   7.132  13.483   7.410
55398SOL    HW268092   7.138  13.623   7.468
55399SOL     OW68093   0.524   6.965   5.374
55399SOL    HW168094   0.560   6.955   5.462
55399SOL    HW268095   0.434   6.932   5.382
55400SOL     OW68096  11.726   3.529   4.854
55400SOL    HW168097  11.645   3.535   4.905
55400SOL    HW268098  11.706   3.577   4.773
55401SOL     OW68099  13.071  13.256   8.062
55401SOL    HW168100  13.082  13.278   8.154
55401SOL    HW268101  13.131  13.183   8.047
55402SOL     OW68102  12.069  12.845  12.741
55402SOL    HW168103  12.110  12.835  12.827
55402SOL    HW268104  12.117  12.784  12.685
55403SOL     OW68105  11.008   4.838   1.865
55403SOL    HW168106  11.073   4.875   1.805
55403SOL    HW268107  11.021   4.743   1.860
55404SOL     OW68108  13.874   1.072   2.152
55404SOL    HW168109  13.891   0.978   2.152
55404SOL    HW268110  13.780   1.080   2.167
55405SOL     OW68111   6.647   3.806   7.488
55405SOL    HW168112   6.692   3.737   7.439
55405SOL    HW268113   6.579   3.760   7.537
55406SOL     OW68114  12.693   9.524  13.384
55406SOL    HW168115  12.683   9.617  13.367
55406SOL    HW268116  12.701   9.484  13.297
55407SOL     OW68117   2.047   2.486   2.458
55407SOL    HW168118   2.069   2.488   2.365
55407SOL    HW268119   1.966   2.537   2.465
55408SOL     OW68120   4.906  14.039   2.630
55408SOL    HW168121   4.962  13.986   2.685
55408SOL    HW268122   4.962  14.110   2.598
55409SOL     OW68123  13.245   4.477   7.096
55409SOL    HW168124  13.283   4.426   7.168
55409SOL    HW268125  13.321   4.513   7.050
55410SOL     OW68126   2.099   6.256  14.644
55410SOL    HW168127   2.151   6.210  14.710
55410SOL    HW268128   2.053   6.186  14.596
55411SOL     OW68129   3.581  10.392  14.716
55411SOL    HW168130   3.657  10.428  14.763
55411SOL    HW268131   3.507  10.411  14.773
55412SOL     OW68132   3.734   6.467   1.497
55412SOL    HW168133   3.740   6.391   1.556
55412SOL    HW268134   3.796   6.447   1.427
55413SOL     OW68135  10.428   2.358  13.310
55413SOL    HW168136  10.508   2.373  13.360
55413SOL    HW268137  10.457   2.316  13.229
55414SOL     OW68138   3.836   3.378  11.227
55414SOL    HW168139   3.747   3.343  11.235
55414SOL    HW268140   3.866   3.388  11.318
55415SOL     OW68141   5.540   6.858   1.416
55415SOL    HW168142   5.470   6.828   1.473
55415SOL    HW268143   5.546   6.791   1.348
55416SOL     OW68144   3.727   9.546   0.616
55416SOL    HW168145   3.777   9.608   0.564
55416SOL    HW268146   3.790   9.509   0.678
55417SOL     OW68147   1.622   1.485  13.273
55417SOL    HW168148   1.529   1.465  13.280
55417SOL    HW268149   1.663   1.429  13.339
55418SOL     OW68150   5.644   8.893   1.089
55418SOL    HW168151   5.682   8.947   1.020
55418SOL    HW268152   5.570   8.944   1.122
55419SOL     OW68153   9.933  13.384  10.530
55419SOL    HW168154   9.872  13.311  10.524
55419SOL    HW268155   9.901  13.437  10.604
55420SOL     OW68156   6.241  10.060   0.406
55420SOL    HW168157   6.209  10.051   0.496
55420SOL    HW268158   6.191  10.133   0.370
55421SOL     OW68159   6.497   4.309   5.131
55421SOL    HW168160   6.554   4.299   5.208
55421SOL    HW268161   6.409   4.318   5.168
55422SOL     OW68162   1.162   8.234   6.127
55422SOL    HW168163   1.136   8.278   6.208
55422SOL    HW268164   1.258   8.236   6.129
55423SOL     OW68165   8.110   4.302   6.092
55423SOL    HW168166   8.187   4.249   6.070
55423SOL    HW268167   8.145   4.373   6.146
55424SOL     OW68168  13.505   6.250   2.947
55424SOL    HW168169  13.521   6.268   3.040
55424SOL    HW268170  13.413   6.222   2.944
55425SOL     OW68171   4.973   6.274   1.367
55425SOL    HW168172   4.963   6.274   1.463
55425SOL    HW268173   4.924   6.198   1.338
55426SOL     OW68174   8.570   0.015  12.807
55426SOL    HW168175   8.548   0.106  12.792
55426SOL    HW268176   8.499  14.841  12.766
55427SOL     OW68177   4.763   9.781   0.473
55427SOL    HW168178   4.709   9.759   0.549
55427SOL    HW268179   4.844   9.815   0.510
55428SOL     OW68180  10.279  10.456   0.828
55428SOL    HW168181  10.260  10.393   0.898
55428SOL    HW268182  10.353  10.507   0.860
55429SOL     OW68183   5.986  10.481   9.087
55429SOL    HW168184   5.952  10.568   9.109
55429SOL    HW268185   5.923  10.420   9.125
55430SOL     OW68186  13.465   9.961   0.816
55430SOL    HW168187  13.391   9.910   0.783
55430SOL    HW268188  13.436   9.995   0.900
55431SOL     OW68189   1.942   1.717   1.255
55431SOL    HW168190   1.945   1.807   1.289
55431SOL    HW268191   1.974   1.663   1.327
55432SOL     OW68192  10.539   3.131  10.678
55432SOL    HW168193  10.531   3.036  10.672
55432SOL    HW268194  10.528   3.162  10.588
55433SOL     OW68195   7.750   7.763   0.938
55433SOL    HW168196   7.697   7.838   0.966
55433SOL    HW268197   7.751   7.704   1.013
55434SOL     OW68198   3.708  12.918   0.854
55434SOL    HW168199   3.666  12.832   0.848
55434SOL    HW268200   3.733  12.939   0.764
55435SOL     OW68201   0.300  10.152   5.786
55435SOL    HW168202   0.279  10.091   5.715
55435SOL    HW268203   0.289  10.239   5.747
55436SOL     OW68204   1.290   0.375   6.115
55436SOL    HW168205   1.349   0.316   6.160
55436SOL    HW268206   1.263   0.327   6.036
55437SOL     OW68207   5.286   4.100  10.559
55437SOL    HW168208   5.373   4.127  10.589
55437SOL    HW268209   5.303   4.030  10.496
55438SOL     OW68210  14.280   2.589   4.136
55438SOL    HW168211  14.326   2.639   4.068
55438SOL    HW268212  14.347   2.574   4.203
55439SOL     OW68213   0.241   2.487   7.874
55439SOL    HW168214   0.318   2.486   7.817
55439SOL    HW268215   0.167   2.491   7.813
55440SOL     OW68216   9.948   9.751  11.188
55440SOL    HW168217   9.859   9.717  11.181
55440SOL    HW268218   9.938   9.840  11.222
55441SOL     OW68219   4.895  13.243   9.138
55441SOL    HW168220   4.838  13.256   9.213
55441SOL    HW268221   4.933  13.330   9.121
55442SOL     OW68222   4.836  11.239   0.082
55442SOL    HW168223   4.785  11.177   0.030
55442SOL    HW268224   4.883  11.292   0.018
55443SOL     OW68225   5.953  10.229   9.863
55443SOL    HW168226   6.026  10.173   9.835
55443SOL    HW268227   5.949  10.299   9.798
55444SOL     OW68228   1.992  10.762   4.313
55444SOL    HW168229   1.956  10.765   4.401
55444SOL    HW268230   2.016  10.671   4.299
55445SOL     OW68231   2.461  13.061   4.568
55445SOL    HW168232   2.368  13.062   4.591
55445SOL    HW268233   2.465  13.103   4.482
55446SOL     OW68234  10.027  14.538   8.760
55446SOL    HW168235  10.115  14.563   8.734
55446SOL    HW268236  10.021  14.560   8.853
55447SOL     OW68237  12.859   7.159   7.424
55447SOL    HW168238  12.807   7.146   7.504
55447SOL    HW268239  12.934   7.211   7.453
55448SOL     OW68240   8.698   4.727   2.791
55448SOL    HW168241   8.707   4.784   2.867
55448SOL    HW268242   8.766   4.661   2.803
55449SOL     OW68243   8.419   4.470   8.685
55449SOL    HW168244   8.364   4.546   8.701
55449SOL    HW268245   8.466   4.491   8.604
55450SOL     OW68246   8.381   6.499   9.965
55450SOL    HW168247   8.353   6.478   9.876
55450SOL    HW268248   8.444   6.430   9.987
55451SOL     OW68249   5.623   0.209   4.306
55451SOL    HW168250   5.556   0.186   4.241
55451SOL    HW268251   5.690   0.256   4.257
55452SOL     OW68252  10.056   5.500   4.163
55452SOL    HW168253  10.134   5.455   4.130
55452SOL    HW268254  10.038   5.458   4.248
55453SOL     OW68255   3.743   7.862   5.465
55453SOL    HW168256   3.760   7.915   5.387
55453SOL    HW268257   3.829   7.845   5.502
55454SOL     OW68258   5.644   4.043   3.921
55454SOL    HW168259   5.607   4.120   3.965
55454SOL    HW268260   5.640   3.974   3.987
55455SOL     OW68261   2.551   9.663   2.983
55455SOL    HW168262   2.639   9.694   2.957
55455SOL    HW268263   2.492   9.705   2.920
55456SOL     OW68264   2.241   8.302   7.652
55456SOL    HW168265   2.175   8.233   7.644
55456SOL    HW268266   2.191   8.383   7.662
55457SOL     OW68267   4.740   4.206   5.794
55457SOL    HW168268   4.723   4.251   5.877
55457SOL    HW268269   4.816   4.152   5.811
55458SOL     OW68270  14.781   5.366   1.653
55458SOL    HW168271  14.865   5.379   1.609
55458SOL    HW268272  14.740   5.294   1.605
55459SOL     OW68273  12.869   4.413  12.216
55459SOL    HW168274  12.877   4.396  12.310
55459SOL    HW268275  12.776   4.430  12.203
55460SOL     OW68276   6.704   0.116   3.733
55460SOL    HW168277   6.746   0.074   3.658
55460SOL    HW268278   6.653   0.046   3.774
55461SOL     OW68279   9.529   5.014  12.727
55461SOL    HW168280   9.590   5.086  12.715
55461SOL    HW268281   9.442   5.054  12.718
55462SOL     OW68282  10.038   4.736   9.053
55462SOL    HW168283  10.040   4.809   9.115
55462SOL    HW268284   9.953   4.744   9.010
55463SOL     OW68285   0.812  13.435   5.576
55463SOL    HW168286   0.863  13.364   5.616
55463SOL    HW268287   0.843  13.439   5.486
55464SOL     OW68288  10.758   0.676   2.430
55464SOL    HW168289  10.760   0.687   2.335
55464SOL    HW268290  10.720   0.757   2.463
55465SOL     OW68291   1.878   8.120   2.237
55465SOL    HW168292   1.950   8.118   2.175
55465SOL    HW268293   1.852   8.028   2.247
55466SOL     OW68294   8.554   2.822   9.296
55466SOL    HW168295   8.624   2.867   9.248
55466SOL    HW268296   8.478   2.880   9.289
55467SOL     OW68297   4.625   3.943   8.104
55467SOL    HW168298   4.665   3.870   8.152
55467SOL    HW268299   4.531   3.928   8.111
55468SOL     OW68300  14.320   6.543   7.167
55468SOL    HW168301  14.228   6.564   7.147
55468SOL    HW268302  14.341   6.600   7.242
55469SOL     OW68303   3.571   4.374   8.062
55469SOL    HW168304   3.622   4.308   8.015
55469SOL    HW268305   3.622   4.455   8.051
55470SOL     OW68306   2.523   2.990   4.503
55470SOL    HW168307   2.563   3.076   4.491
55470SOL    HW268308   2.457   2.985   4.434
55471SOL     OW68309   9.621   3.778  14.419
55471SOL    HW168310   9.656   3.789  14.507
55471SOL    HW268311   9.617   3.683  14.407
55472SOL     OW68312   0.464   3.214  13.878
55472SOL    HW168313   0.417   3.243  13.957
55472SOL    HW268314   0.404   3.152  13.837
55473SOL     OW68315   2.705   0.567   5.480
55473SOL    HW168316   2.782   0.566   5.423
55473SOL    HW268317   2.644   0.627   5.437
55474SOL     OW68318   8.357   3.999  12.989
55474SOL    HW168319   8.276   3.967  13.030
55474SOL    HW268320   8.375   4.082  13.034
55475SOL     OW68321   1.815   5.010  10.589
55475SOL    HW168322   1.866   4.937  10.622
55475SOL    HW268323   1.738   5.013  10.646
55476SOL     OW68324   1.643   2.587   5.604
55476SOL    HW168325   1.578   2.585   5.533
55476SOL    HW268326   1.692   2.668   5.588
55477SOL     OW68327   4.755   6.089  10.560
55477SOL    HW168328   4.672   6.122  10.525
55477SOL    HW268329   4.729   6.023  10.624
55478SOL     OW68330   8.897  14.399   9.194
55478SOL    HW168331   8.932  14.320   9.154
55478SOL    HW268332   8.851  14.444   9.123
55479SOL     OW68333  12.104  14.548  13.279
55479SOL    HW168334  12.105  14.476  13.216
55479SOL    HW268335  12.165  14.613  13.242
55480SOL     OW68336   3.467  10.869   6.381
55480SOL    HW168337   3.499  10.899   6.296
55480SOL    HW268338   3.513  10.923   6.445
55481SOL     OW68339  10.205   3.859   0.983
55481SOL    HW168340  10.252   3.826   0.906
55481SOL    HW268341  10.253   3.822   1.058
55482SOL     OW68342  13.732  14.401   5.600
55482SOL    HW168343  13.640  14.424   5.594
55482SOL    HW268344  13.778  14.485   5.599
55483SOL     OW68345   0.643  14.770   6.529
55483SOL    HW168346   0.730  14.733   6.514
55483SOL    HW268347   0.596  14.754   6.447
55484SOL     OW68348   5.345   3.232   6.753
55484SOL    HW168349   5.331   3.165   6.686
55484SOL    HW268350   5.398   3.299   6.709
55485SOL     OW68351   8.042  13.859   5.693
55485SOL    HW168352   8.080  13.772   5.705
55485SOL    HW268353   7.954  13.843   5.658
55486SOL     OW68354   2.805   1.770   9.231
55486SOL    HW168355   2.884   1.754   9.180
55486SOL    HW268356   2.770   1.853   9.198
55487SOL     OW68357  10.105  13.176   5.416
55487SOL    HW168358  10.145  13.139   5.337
55487SOL    HW268359  10.130  13.117   5.486
55488SOL     OW68360  10.240  14.355   9.554
55488SOL    HW168361  10.172  14.314   9.608
55488SOL    HW268362  10.318  14.303   9.572
55489SOL     OW68363   5.519  13.754   3.444
55489SOL    HW168364   5.535  13.811   3.369
55489SOL    HW268365   5.482  13.674   3.407
55490SOL     OW68366   9.779  14.491   2.627
55490SOL    HW168367   9.873  14.486   2.646
55490SOL    HW268368   9.773  14.474   2.533
55491SOL     OW68369  11.083   7.679   9.548
55491SOL    HW168370  11.141   7.747   9.514
55491SOL    HW268371  11.139   7.601   9.556
55492SOL     OW68372   1.707  11.971   7.504
55492SOL    HW168373   1.743  12.013   7.425
55492SOL    HW268374   1.612  11.977   7.492
55493SOL     OW68375  10.300   4.541   6.343
55493SOL    HW168376  10.227   4.589   6.382
55493SOL    HW268377  10.367   4.540   6.411
55494SOL     OW68378   2.511  13.648   3.859
55494SOL    HW168379   2.519  13.714   3.926
55494SOL    HW268380   2.425  13.664   3.819
55495SOL     OW68381   5.647   5.509   9.967
55495SOL    HW168382   5.735   5.500  10.003
55495SOL    HW268383   5.619   5.596   9.995
55496SOL     OW68384  14.403   8.109   9.668
55496SOL    HW168385  14.311   8.107   9.641
55496SOL    HW268386  14.451   8.116   9.585
55497SOL     OW68387   0.367   0.569   5.486
55497SOL    HW168388   0.441   0.593   5.540
55497SOL    HW268389   0.402   0.564   5.397
55498SOL     OW68390  12.528  11.806   6.216
55498SOL    HW168391  12.464  11.838   6.152
55498SOL    HW268392  12.478  11.749   6.274
55499SOL     OW68393   9.877   8.137  12.339
55499SOL    HW168394   9.820   8.072  12.380
55499SOL    HW268395   9.962   8.093  12.330
55500SOL     OW68396  13.223   0.241   0.953
55500SOL    HW168397  13.146   0.217   0.902
55500SOL    HW268398  13.200   0.324   0.994
55501SOL     OW68399   8.957  10.953   5.344
55501SOL    HW168400   8.923  10.865   5.365
55501SOL    HW268401   8.894  10.988   5.280
55502SOL     OW68402   2.634   2.400  14.249
55502SOL    HW168403   2.606   2.378  14.338
55502SOL    HW268404   2.684   2.324  14.220
55503SOL     OW68405   4.385   0.189   1.438
55503SOL    HW168406   4.446   0.174   1.510
55503SOL    HW268407   4.427   0.149   1.362
55504SOL     OW68408  10.390   2.852   5.229
55504SOL    HW168409  10.297   2.840   5.246
55504SOL    HW268410  10.413   2.931   5.278
55505SOL     OW68411  13.372   9.281   1.671
55505SOL    HW168412  13.355   9.337   1.747
55505SOL    HW268413  13.449   9.230   1.695
55506SOL     OW68414  13.106   9.750   3.818
55506SOL    HW168415  13.115   9.669   3.767
55506SOL    HW268416  13.120   9.820   3.755
55507SOL     OW68417  12.353   7.681   8.567
55507SOL    HW168418  12.372   7.632   8.647
55507SOL    HW268419  12.438   7.713   8.537
55508SOL     OW68420   5.146   1.533  12.747
55508SOL    HW168421   5.122   1.490  12.829
55508SOL    HW268422   5.229   1.576  12.766
55509SOL     OW68423  12.048   0.543  11.059
55509SOL    HW168424  12.135   0.578  11.045
55509SOL    HW268425  12.062   0.468  11.117
55510SOL     OW68426  13.487   0.411   6.448
55510SOL    HW168427  13.413   0.375   6.400
55510SOL    HW268428  13.475   0.506   6.443
55511SOL     OW68429   6.551   2.199  12.796
55511SOL    HW168430   6.521   2.125  12.848
55511SOL    HW268431   6.538   2.275  12.853
55512SOL     OW68432   0.073   3.104   6.160
55512SOL    HW168433   0.163   3.094   6.192
55512SOL    HW268434   0.080   3.091   6.066
55513SOL     OW68435   1.097  12.115   1.461
55513SOL    HW168436   1.072  12.030   1.423
55513SOL    HW268437   1.115  12.095   1.553
55514SOL     OW68438   1.446   7.381  13.335
55514SOL    HW168439   1.525   7.369  13.388
55514SOL    HW268440   1.473   7.438  13.264
55515SOL     OW68441  11.531   9.842   8.087
55515SOL    HW168442  11.596   9.772   8.084
55515SOL    HW268443  11.572   9.917   8.044
55516SOL     OW68444   5.600   2.015   0.789
55516SOL    HW168445   5.650   2.091   0.820
55516SOL    HW268446   5.527   2.008   0.851
55517SOL     OW68447  13.785   9.570   9.868
55517SOL    HW168448  13.878   9.552   9.865
55517SOL    HW268449  13.745   9.488   9.898
55518SOL     OW68450   6.013   1.665   6.483
55518SOL    HW168451   6.015   1.589   6.425
55518SOL    HW268452   5.920   1.680   6.498
55519SOL     OW68453   6.619   1.639   2.720
55519SOL    HW168454   6.580   1.682   2.796
55519SOL    HW268455   6.621   1.546   2.744
55520SOL     OW68456   3.702   7.484   8.828
55520SOL    HW168457   3.715   7.570   8.788
55520SOL    HW268458   3.618   7.491   8.871
55521SOL     OW68459   8.899   2.529   2.601
55521SOL    HW168460   8.840   2.453   2.601
55521SOL    HW268461   8.935   2.531   2.689
55522SOL     OW68462  12.343  14.752  11.524
55522SOL    HW168463  12.374  14.836  11.558
55522SOL    HW268464  12.325  14.699  11.601
55523SOL     OW68465  14.555  13.844   8.084
55523SOL    HW168466  14.629  13.883   8.129
55523SOL    HW268467  14.572  13.860   7.991
55524SOL     OW68468  14.294   2.139   8.209
55524SOL    HW168469  14.261   2.101   8.291
55524SOL    HW268470  14.382   2.171   8.231
55525SOL     OW68471   4.284   1.213   0.363
55525SOL    HW168472   4.203   1.246   0.402
55525SOL    HW268473   4.254   1.159   0.289
55526SOL     OW68474   1.241  11.870  14.031
55526SOL    HW168475   1.293  11.908  14.102
55526SOL    HW268476   1.250  11.933  13.959
55527SOL     OW68477  14.360   3.686   8.595
55527SOL    HW168478  14.429   3.682   8.661
55527SOL    HW268479  14.406   3.711   8.514
55528SOL     OW68480  13.181  10.553   2.397
55528SOL    HW168481  13.098  10.585   2.362
55528SOL    HW268482  13.182  10.460   2.376
55529SOL     OW68483  12.591   3.178  12.076
55529SOL    HW168484  12.579   3.191  12.170
55529SOL    HW268485  12.685   3.188  12.062
55530SOL     OW68486  10.508   8.625   4.777
55530SOL    HW168487  10.513   8.630   4.873
55530SOL    HW268488  10.542   8.710   4.747
55531SOL     OW68489   0.833   8.294  13.202
55531SOL    HW168490   0.867   8.373  13.161
55531SOL    HW268491   0.748   8.320  13.238
55532SOL     OW68492   7.277   5.969  10.998
55532SOL    HW168493   7.229   6.025  11.059
55532SOL    HW268494   7.364   5.959  11.038
55533SOL     OW68495   7.764   7.172   2.298
55533SOL    HW168496   7.675   7.136   2.304
55533SOL    HW268497   7.791   7.183   2.389
55534SOL     OW68498   9.324   8.274   9.954
55534SOL    HW168499   9.228   8.281   9.962
55534SOL    HW268500   9.348   8.343   9.892
55535SOL     OW68501  12.223   4.530   1.937
55535SOL    HW168502  12.139   4.500   1.970
55535SOL    HW268503  12.220   4.626   1.945
55536SOL     OW68504   9.680  10.881   4.287
55536SOL    HW168505   9.683  10.849   4.197
55536SOL    HW268506   9.586  10.888   4.307
55537SOL     OW68507  14.704  12.804   6.990
55537SOL    HW168508  14.672  12.725   7.034
55537SOL    HW268509  14.797  12.788   6.977
55538SOL     OW68510   1.226  13.249   6.553
55538SOL    HW168511   1.308  13.199   6.556
55538SOL    HW268512   1.200  13.258   6.645
55539SOL     OW68513  14.648  12.131  12.143
55539SOL    HW168514  14.565  12.084  12.144
55539SOL    HW268515  14.711  12.070  12.182
55540SOL     OW68516  10.503   9.082  12.582
55540SOL    HW168517  10.431   9.098  12.521
55540SOL    HW268518  10.480   9.133  12.660
55541SOL     OW68519   4.400   0.029   4.970
55541SOL    HW168520   4.444   0.112   4.989
55541SOL    HW268521   4.327   0.053   4.912
55542SOL     OW68522   8.832   7.718   7.301
55542SOL    HW168523   8.882   7.642   7.331
55542SOL    HW268524   8.887   7.793   7.323
55543SOL     OW68525   5.074   2.838  13.520
55543SOL    HW168526   5.121   2.757  13.502
55543SOL    HW268527   5.076   2.886  13.438
55544SOL     OW68528   7.739   7.365   2.892
55544SOL    HW168529   7.766   7.287   2.843
55544SOL    HW268530   7.650   7.384   2.861
55545SOL     OW68531  11.401   8.298   5.411
55545SOL    HW168532  11.409   8.347   5.493
55545SOL    HW268533  11.460   8.223   5.423
55546SOL     OW68534   4.107   6.156   4.382
55546SOL    HW168535   4.163   6.134   4.307
55546SOL    HW268536   4.055   6.077   4.397
55547SOL     OW68537   7.432   0.578   3.689
55547SOL    HW168538   7.473   0.510   3.743
55547SOL    HW268539   7.461   0.660   3.728
55548SOL     OW68540  12.225   0.433  14.322
55548SOL    HW168541  12.249   0.525  14.315
55548SOL    HW268542  12.239   0.399  14.233
55549SOL     OW68543  13.281   9.739  14.780
55549SOL    HW168544  13.204   9.795  14.784
55549SOL    HW268545  13.341   9.785  14.722
55550SOL     OW68546   3.513   6.415   2.692
55550SOL    HW168547   3.512   6.352   2.620
55550SOL    HW268548   3.422   6.415   2.724
55551SOL     OW68549   6.362   7.371   4.836
55551SOL    HW168550   6.410   7.289   4.845
55551SOL    HW268551   6.297   7.369   4.907
55552SOL     OW68552   9.595   3.990  12.218
55552SOL    HW168553   9.622   4.072  12.258
55552SOL    HW268554   9.657   3.976  12.147
55553SOL     OW68555   3.609   3.575   3.580
55553SOL    HW168556   3.618   3.480   3.586
55553SOL    HW268557   3.653   3.608   3.658
55554SOL     OW68558  13.657   5.616   2.604
55554SOL    HW168559  13.570   5.579   2.590
55554SOL    HW268560  13.667   5.620   2.699
55555SOL     OW68561   0.182   2.999   1.600
55555SOL    HW168562   0.247   2.957   1.543
55555SOL    HW268563   0.098   2.963   1.572
55556SOL     OW68564   5.595   4.188  11.690
55556SOL    HW168565   5.676   4.146  11.661
55556SOL    HW268566   5.547   4.207  11.610
55557SOL     OW68567  11.539   2.273   6.169
55557SOL    HW168568  11.493   2.306   6.246
55557SOL    HW268569  11.614   2.225   6.204
55558SOL     OW68570   5.122   0.420  12.056
55558SOL    HW168571   5.178   0.390  11.984
55558SOL    HW268572   5.065   0.346  12.075
55559SOL     OW68573  10.783   1.214   7.381
55559SOL    HW168574  10.876   1.193   7.389
55559SOL    HW268575  10.754   1.164   7.304
55560SOL     OW68576   0.964   6.899  12.092
55560SOL    HW168577   0.978   6.875  12.001
55560SOL    HW268578   0.889   6.846  12.120
55561SOL     OW68579   0.242   0.432  14.530
55561SOL    HW168580   0.262   0.519  14.566
55561SOL    HW268581   0.166   0.402  14.581
55562SOL     OW68582  13.762   6.026   1.810
55562SOL    HW168583  13.739   5.959   1.746
55562SOL    HW268584  13.858   6.032   1.805
55563SOL     OW68585   4.478   3.842   9.427
55563SOL    HW168586   4.445   3.931   9.429
55563SOL    HW268587   4.522   3.830   9.511
55564SOL     OW68588   6.904   9.579   8.182
55564SOL    HW168589   6.901   9.673   8.163
55564SOL    HW268590   6.825   9.543   8.142
55565SOL     OW68591   6.956  11.854   5.930
55565SOL    HW168592   6.867  11.887   5.946
55565SOL    HW268593   6.943  11.776   5.875
55566SOL     OW68594  11.149  11.182  10.267
55566SOL    HW168595  11.151  11.089  10.244
55566SOL    HW268596  11.059  11.209  10.249
55567SOL     OW68597   0.237   8.292   8.857
55567SOL    HW168598   0.258   8.384   8.868
55567SOL    HW268599   0.195   8.267   8.940
55568SOL     OW68600   8.638  13.291  14.107
55568SOL    HW168601   8.550  13.295  14.146
55568SOL    HW268602   8.626  13.326  14.019
55569SOL     OW68603  14.534   4.156   9.640
55569SOL    HW168604  14.474   4.182   9.710
55569SOL    HW268605  14.493   4.079   9.601
55570SOL     OW68606  14.253   2.684  11.966
55570SOL    HW168607  14.329   2.737  11.946
55570SOL    HW268608  14.202   2.736  12.028
55571SOL     OW68609   2.603  11.362  14.701
55571SOL    HW168610   2.571  11.368  14.611
55571SOL    HW268611   2.524  11.364  14.755
55572SOL     OW68612   9.715  14.137  12.334
55572SOL    HW168613   9.669  14.054  12.349
55572SOL    HW268614   9.665  14.201  12.383
55573SOL     OW68615  11.162  14.076   1.527
55573SOL    HW168616  11.066  14.077   1.530
55573SOL    HW268617  11.188  14.118   1.609
55574SOL     OW68618  13.080  10.076   3.685
55574SOL    HW168619  13.012  10.143   3.697
55574SOL    HW268620  13.136  10.085   3.762
55575SOL     OW68621   3.909   7.581   0.627
55575SOL    HW168622   3.912   7.532   0.710
55575SOL    HW268623   3.932   7.671   0.651
55576SOL     OW68624   6.543   2.320   3.987
55576SOL    HW168625   6.566   2.369   4.066
55576SOL    HW268626   6.466   2.366   3.952
55577SOL     OW68627   5.370   7.035   6.297
55577SOL    HW168628   5.419   7.064   6.374
55577SOL    HW268629   5.284   7.012   6.332
55578SOL     OW68630  11.297   9.641  13.975
55578SOL    HW168631  11.278   9.594  14.057
55578SOL    HW268632  11.392   9.642  13.969
55579SOL     OW68633   8.667   8.952   9.273
55579SOL    HW168634   8.753   8.992   9.261
55579SOL    HW268635   8.605   9.019   9.244
55580SOL     OW68636  13.507   8.815   4.082
55580SOL    HW168637  13.543   8.730   4.054
55580SOL    HW268638  13.491   8.804   4.175
55581SOL     OW68639   6.144   4.467   1.019
55581SOL    HW168640   6.186   4.526   1.082
55581SOL    HW268641   6.158   4.379   1.055
55582SOL     OW68642   6.505  14.735   6.563
55582SOL    HW168643   6.522  14.674   6.491
55582SOL    HW268644   6.500  14.681   6.641
55583SOL     OW68645   6.270   1.887  13.224
55583SOL    HW168646   6.278   1.794  13.203
55583SOL    HW268647   6.182   1.897  13.261
55584SOL     OW68648   7.186   4.677   3.077
55584SOL    HW168649   7.137   4.627   3.142
55584SOL    HW268650   7.272   4.635   3.074
55585SOL     OW68651   2.476   1.256   0.650
55585SOL    HW168652   2.552   1.264   0.708
55585SOL    HW268653   2.404   1.233   0.708
55586SOL     OW68654   1.594   8.761   8.666
55586SOL    HW168655   1.680   8.731   8.638
55586SOL    HW268656   1.570   8.828   8.603
55587SOL     OW68657   7.698   9.480   5.017
55587SOL    HW168658   7.727   9.426   4.944
55587SOL    HW268659   7.603   9.485   5.007
55588SOL     OW68660  10.327   5.156   4.260
55588SOL    HW168661  10.338   5.182   4.351
55588SOL    HW268662  10.355   5.064   4.258
55589SOL     OW68663  10.253   2.560   8.153
55589SOL    HW168664  10.272   2.640   8.104
55589SOL    HW268665  10.283   2.578   8.242
55590SOL     OW68666   0.342   7.474  14.619
55590SOL    HW168667   0.277   7.486  14.550
55590SOL    HW268668   0.325   7.387  14.653
55591SOL     OW68669  12.754   0.394  10.613
55591SOL    HW168670  12.702   0.402  10.533
55591SOL    HW268671  12.787   0.482  10.629
55592SOL     OW68672   9.736  13.685   7.780
55592SOL    HW168673   9.755  13.612   7.839
55592SOL    HW268674   9.758  13.651   7.693
55593SOL     OW68675   8.989   7.551   7.680
55593SOL    HW168676   9.079   7.560   7.709
55593SOL    HW268677   8.982   7.460   7.652
55594SOL     OW68678   3.978   0.409   1.692
55594SOL    HW168679   4.034   0.481   1.663
55594SOL    HW268680   4.029   0.330   1.672
55595SOL     OW68681   4.408   4.517   6.578
55595SOL    HW168682   4.383   4.429   6.607
55595SOL    HW268683   4.358   4.576   6.635
55596SOL     OW68684   6.852  12.743   8.014
55596SOL    HW168685   6.838  12.834   8.043
55596SOL    HW268686   6.901  12.752   7.932
55597SOL     OW68687  12.604   0.765  11.970
55597SOL    HW168688  12.588   0.671  11.975
55597SOL    HW268689  12.522   0.805  11.999
55598SOL     OW68690   5.398   0.140  14.473
55598SOL    HW168691   5.439   0.074  14.529
55598SOL    HW268692   5.307   0.141  14.501
55599SOL     OW68693   2.658   3.660   5.755
55599SOL    HW168694   2.717   3.715   5.703
55599SOL    HW268695   2.705   3.643   5.836
55600SOL     OW68696   4.299  13.563   1.204
55600SOL    HW168697   4.224  13.535   1.258
55600SOL    HW268698   4.372  13.508   1.234
55601SOL     OW68699   6.981  13.759   0.825
55601SOL    HW168700   7.038  13.816   0.878
55601SOL    HW268701   6.935  13.706   0.889
55602SOL     OW68702   5.090   2.141   3.308
55602SOL    HW168703   5.087   2.148   3.404
55602SOL    HW268704   5.160   2.079   3.290
55603SOL     OW68705   1.457   8.204   4.500
55603SOL    HW168706   1.473   8.129   4.443
55603SOL    HW268707   1.366   8.195   4.528
55604SOL     OW68708  13.123   6.790  10.539
55604SOL    HW168709  13.057   6.731  10.503
55604SOL    HW268710  13.100   6.876  10.502
55605SOL     OW68711  14.011   2.027   1.918
55605SOL    HW168712  14.000   1.961   1.986
55605SOL    HW268713  14.041   2.105   1.965
55606SOL     OW68714   2.972  11.798  11.180
55606SOL    HW168715   3.014  11.859  11.119
55606SOL    HW268716   2.911  11.853  11.230
55607SOL     OW68717  14.053  11.506  10.083
55607SOL    HW168718  14.139  11.525  10.119
55607SOL    HW268719  14.015  11.592  10.063
55608SOL     OW68720   3.516  12.930  14.414
55608SOL    HW168721   3.436  12.899  14.457
55608SOL    HW268722   3.503  13.025  14.405
55609SOL     OW68723   5.495  13.836  14.375
55609SOL    HW168724   5.501  13.918  14.327
55609SOL    HW268725   5.570  13.837  14.435
55610SOL     OW68726  10.431   0.077   5.602
55610SOL    HW168727  10.479   0.160   5.608
55610SOL    HW268728  10.470   0.032   5.527
55611SOL     OW68729   3.540  11.767   2.102
55611SOL    HW168730   3.577  11.680   2.090
55611SOL    HW268731   3.447  11.756   2.081
55612SOL     OW68732   7.667   2.305  12.651
55612SOL    HW168733   7.679   2.212  12.632
55612SOL    HW268734   7.663   2.347  12.565
55613SOL     OW68735   9.239   7.742   4.422
55613SOL    HW168736   9.273   7.831   4.415
55613SOL    HW268737   9.289   7.703   4.493
55614SOL     OW68738   1.717  12.888  11.671
55614SOL    HW168739   1.627  12.901  11.699
55614SOL    HW268740   1.734  12.958  11.608
55615SOL     OW68741  14.044  14.769   5.393
55615SOL    HW168742  14.119  14.712   5.375
55615SOL    HW268743  14.006  14.786   5.307
55616SOL     OW68744   9.871   1.121   8.691
55616SOL    HW168745   9.965   1.103   8.688
55616SOL    HW268746   9.852   1.164   8.608
55617SOL     OW68747  12.555   3.080  11.236
55617SOL    HW168748  12.462   3.073  11.255
55617SOL    HW268749  12.592   3.122  11.314
55618SOL     OW68750   4.800   7.046   4.845
55618SOL    HW168751   4.795   7.064   4.751
55618SOL    HW268752   4.750   6.965   4.857
55619SOL     OW68753   8.005  10.740   4.771
55619SOL    HW168754   8.099  10.739   4.751
55619SOL    HW268755   7.981  10.648   4.778
55620SOL     OW68756   9.968  12.911   7.509
55620SOL    HW168757  10.002  13.000   7.521
55620SOL    HW268758  10.046  12.858   7.492
55621SOL     OW68759   9.526   6.033  12.058
55621SOL    HW168760   9.593   6.006  12.121
55621SOL    HW268761   9.463   6.083  12.110
55622SOL     OW68762  11.350  14.792   1.454
55622SOL    HW168763  11.443  14.781   1.471
55622SOL    HW268764  11.346  14.845   1.375
55623SOL     OW68765   3.120  13.976  10.916
55623SOL    HW168766   3.057  14.046  10.935
55623SOL    HW268767   3.140  13.938  11.001
55624SOL     OW68768   5.850  10.042   6.460
55624SOL    HW168769   5.933  10.041   6.412
55624SOL    HW268770   5.824   9.950   6.466
55625SOL     OW68771   0.649  11.788   9.978
55625SOL    HW168772   0.709  11.743   9.918
55625SOL    HW268773   0.569  11.802   9.926
55626SOL     OW68774   8.264   9.860  14.374
55626SOL    HW168775   8.195   9.825  14.318
55626SOL    HW268776   8.235   9.841  14.463
55627SOL     OW68777  10.322  14.249  10.689
55627SOL    HW168778  10.244  14.248  10.745
55627SOL    HW268779  10.383  14.308  10.734
55628SOL     OW68780   7.871   1.090  14.542
55628SOL    HW168781   7.965   1.102  14.527
55628SOL    HW268782   7.866   1.022  14.608
55629SOL     OW68783  11.605   7.330  11.909
55629SOL    HW168784  11.680   7.272  11.917
55629SOL    HW268785  11.569   7.335  11.998
55630SOL     OW68786   0.260  11.378   6.637
55630SOL    HW168787   0.239  11.395   6.729
55630SOL    HW268788   0.320  11.303   6.640
55631SOL     OW68789   9.754  11.553   5.865
55631SOL    HW168790   9.785  11.631   5.911
55631SOL    HW268791   9.801  11.481   5.907
55632SOL     OW68792   1.231  12.785   2.131
55632SOL    HW168793   1.292  12.775   2.059
55632SOL    HW268794   1.148  12.752   2.097
55633SOL     OW68795  14.616  12.881   8.442
55633SOL    HW168796  14.587  12.803   8.490
55633SOL    HW268797  14.707  12.863   8.420
55634SOL     OW68798  11.755  14.375  13.028
55634SOL    HW168799  11.799  14.366  12.943
55634SOL    HW268800  11.780  14.463  13.058
55635SOL     OW68801   0.028   3.456   0.239
55635SOL    HW168802   0.104   3.491   0.192
55635SOL    HW268803   0.049   3.468   0.332
55636SOL     OW68804  12.117   9.606  12.263
55636SOL    HW168805  12.127   9.518  12.227
55636SOL    HW268806  12.023   9.623  12.261
55637SOL     OW68807   5.624   8.584   1.119
55637SOL    HW168808   5.589   8.590   1.030
55637SOL    HW268809   5.648   8.674   1.141
55638SOL     OW68810   1.541  11.301   0.434
55638SOL    HW168811   1.622  11.351   0.438
55638SOL    HW268812   1.529  11.281   0.341
55639SOL     OW68813   9.844   1.130  12.891
55639SOL    HW168814   9.912   1.087  12.942
55639SOL    HW268815   9.850   1.090  12.804
55640SOL     OW68816  13.315   3.807  12.357
55640SOL    HW168817  13.278   3.827  12.272
55640SOL    HW268818  13.243   3.818  12.419
55641SOL     OW68819   4.490   1.015   9.256
55641SOL    HW168820   4.395   1.024   9.253
55641SOL    HW268821   4.505   0.930   9.297
55642SOL     OW68822  13.998   7.346   4.526
55642SOL    HW168823  14.016   7.435   4.556
55642SOL    HW268824  14.071   7.326   4.467
55643SOL     OW68825  13.966   6.799  10.894
55643SOL    HW168826  14.004   6.885  10.876
55643SOL    HW268827  14.032   6.737  10.862
55644SOL     OW68828   9.882   6.767   1.021
55644SOL    HW168829   9.811   6.776   0.957
55644SOL    HW268830   9.929   6.687   0.994
55645SOL     OW68831   4.113   4.097   7.089
55645SOL    HW168832   4.068   4.107   7.005
55645SOL    HW268833   4.182   4.164   7.088
55646SOL     OW68834  13.825   7.087  14.755
55646SOL    HW168835  13.904   7.033  14.763
55646SOL    HW268836  13.824   7.140  14.835
55647SOL     OW68837   9.685  14.388   8.635
55647SOL    HW168838   9.685  14.453   8.565
55647SOL    HW268839   9.726  14.310   8.596
55648SOL     OW68840  11.986   9.663  14.176
55648SOL    HW168841  11.979   9.584  14.228
55648SOL    HW268842  12.080   9.683  14.173
55649SOL     OW68843  12.288  13.711   2.444
55649SOL    HW168844  12.367  13.698   2.392
55649SOL    HW268845  12.216  13.688   2.385
55650SOL     OW68846  12.280  14.441   2.757
55650SOL    HW168847  12.287  14.499   2.833
55650SOL    HW268848  12.340  14.369   2.776
55651SOL     OW68849   7.054   7.192   6.149
55651SOL    HW168850   7.135   7.141   6.153
55651SOL    HW268851   7.054   7.243   6.230
55652SOL     OW68852   9.684   7.891  13.018
55652SOL    HW168853   9.691   7.918  13.109
55652SOL    HW268854   9.760   7.835  13.004
55653SOL     OW68855   3.693  13.330   6.803
55653SOL    HW168856   3.752  13.273   6.753
55653SOL    HW268857   3.656  13.272   6.870
55654SOL     OW68858   0.587   5.779  13.929
55654SOL    HW168859   0.646   5.852  13.911
55654SOL    HW268860   0.513   5.793  13.871
55655SOL     OW68861   7.207   6.084   1.623
55655SOL    HW168862   7.293   6.053   1.652
55655SOL    HW268863   7.205   6.061   1.530
55656SOL     OW68864   9.086   0.932   4.883
55656SOL    HW168865   9.144   0.948   4.808
55656SOL    HW268866   9.051   0.844   4.869
55657SOL     OW68867  11.510  13.117   1.570
55657SOL    HW168868  11.459  13.198   1.561
55657SOL    HW268869  11.469  13.056   1.508
55658SOL     OW68870   9.475   2.196   0.018
55658SOL    HW168871   9.508   2.193  14.803
55658SOL    HW268872   9.512   2.119   0.060
55659SOL     OW68873   7.173   8.859  10.447
55659SOL    HW168874   7.198   8.913  10.372
55659SOL    HW268875   7.097   8.904  10.485
55660SOL     OW68876   6.619   5.662  11.862
55660SOL    HW168877   6.706   5.636  11.891
55660SOL    HW268878   6.559   5.607  11.913
55661SOL     OW68879  12.396   8.099   0.653
55661SOL    HW168880  12.363   8.069   0.738
55661SOL    HW268881  12.340   8.057   0.589
55662SOL     OW68882   1.351   5.935  12.636
55662SOL    HW168883   1.260   5.962  12.652
55662SOL    HW268884   1.342   5.853  12.586
55663SOL     OW68885  10.317   3.704   3.328
55663SOL    HW168886  10.233   3.721   3.371
55663SOL    HW268887  10.343   3.789   3.292
55664SOL     OW68888   2.488   5.876  12.853
55664SOL    HW168889   2.547   5.876  12.929
55664SOL    HW268890   2.415   5.933  12.879
55665SOL     OW68891  13.644  10.161  12.195
55665SOL    HW168892  13.668  10.143  12.104
55665SOL    HW268893  13.549  10.149  12.198
55666SOL     OW68894   6.981   4.909  14.274
55666SOL    HW168895   7.062   4.931  14.229
55666SOL    HW268896   6.967   4.816  14.257
55667SOL     OW68897   4.529  13.201   9.213
55667SOL    HW168898   4.448  13.156   9.236
55667SOL    HW268899   4.500  13.279   9.165
55668SOL     OW68900   0.286   7.260  11.951
55668SOL    HW168901   0.333   7.239  12.031
55668SOL    HW268902   0.213   7.315  11.980
55669SOL     OW68903  11.423   7.519  12.525
55669SOL    HW168904  11.383   7.491  12.442
55669SOL    HW268905  11.486   7.587  12.500
55670SOL     OW68906   5.139   0.282  13.380
55670SOL    HW168907   5.203   0.217  13.410
55670SOL    HW268908   5.066   0.230  13.346
55671SOL     OW68909  12.895   5.884  12.669
55671SOL    HW168910  12.858   5.849  12.750
55671SOL    HW268911  12.854   5.831  12.600
55672SOL     OW68912   3.002   4.193  10.497
55672SOL    HW168913   3.045   4.270  10.533
55672SOL    HW268914   3.015   4.200  10.403
55673SOL     OW68915   1.160  13.290   6.809
55673SOL    HW168916   1.173  13.322   6.898
55673SOL    HW268917   1.102  13.354   6.768
55674SOL     OW68918   1.573   4.081  14.304
55674SOL    HW168919   1.539   4.048  14.221
55674SOL    HW268920   1.526   4.031  14.371
55675SOL     OW68921   9.667   6.088   2.871
55675SOL    HW168922   9.590   6.079   2.928
55675SOL    HW268923   9.741   6.085   2.932
55676SOL     OW68924   2.480   7.875   7.155
55676SOL    HW168925   2.448   7.951   7.106
55676SOL    HW268926   2.403   7.822   7.171
55677SOL     OW68927   8.821   7.173   6.131
55677SOL    HW168928   8.745   7.160   6.188
55677SOL    HW268929   8.866   7.088   6.133
55678SOL     OW68930  11.971  13.973   7.928
55678SOL    HW168931  11.959  14.064   7.956
55678SOL    HW268932  11.926  13.921   7.994
55679SOL     OW68933  13.640  12.768  11.150
55679SOL    HW168934  13.711  12.719  11.191
55679SOL    HW268935  13.683  12.843  11.109
55680SOL     OW68936  12.113  10.628   6.317
55680SOL    HW168937  12.171  10.694   6.354
55680SOL    HW268938  12.044  10.678   6.275
55681SOL     OW68939  10.395  13.732   3.479
55681SOL    HW168940  10.423  13.741   3.570
55681SOL    HW268941  10.438  13.651   3.449
55682SOL     OW68942   8.484   9.820  13.790
55682SOL    HW168943   8.477   9.726  13.811
55682SOL    HW268944   8.406   9.859  13.831
55683SOL     OW68945   9.757   5.349  13.477
55683SOL    HW168946   9.763   5.259  13.445
55683SOL    HW268947   9.819   5.353  13.550
55684SOL     OW68948   9.444   5.706   5.343
55684SOL    HW168949   9.359   5.671   5.369
55684SOL    HW268950   9.504   5.633   5.353
55685SOL     OW68951  13.328   4.714   2.513
55685SOL    HW168952  13.362   4.634   2.473
55685SOL    HW268953  13.379   4.726   2.592
55686SOL     OW68954   5.687   5.012   5.962
55686SOL    HW168955   5.633   4.967   6.027
55686SOL    HW268956   5.644   5.097   5.950
55687SOL     OW68957   9.259   3.530   9.219
55687SOL    HW168958   9.201   3.578   9.279
55687SOL    HW268959   9.222   3.546   9.132
55688SOL     OW68960  13.925   5.133  11.322
55688SOL    HW168961  13.856   5.076  11.355
55688SOL    HW268962  13.887   5.221  11.325
55689SOL     OW68963   8.481  12.093   8.615
55689SOL    HW168964   8.513  12.083   8.525
55689SOL    HW268965   8.432  12.013   8.632
55690SOL     OW68966   6.673   0.820  10.347
55690SOL    HW168967   6.596   0.764  10.333
55690SOL    HW268968   6.653   0.901  10.300
55691SOL     OW68969  12.012  14.110   3.687
55691SOL    HW168970  11.947  14.119   3.617
55691SOL    HW268971  12.049  14.197   3.697
55692SOL     OW68972   4.824   2.994  11.303
55692SOL    HW168973   4.805   3.046  11.381
55692SOL    HW268974   4.759   2.924  11.304
55693SOL     OW68975   5.464   7.768   2.888
55693SOL    HW168976   5.529   7.702   2.913
55693SOL    HW268977   5.422   7.732   2.810
55694SOL     OW68978  13.151   0.131   7.449
55694SOL    HW168979  13.081   0.127   7.513
55694SOL    HW268980  13.158   0.224   7.426
55695SOL     OW68981   7.651   1.476  11.787
55695SOL    HW168982   7.614   1.510  11.868
55695SOL    HW268983   7.642   1.547  11.724
55696SOL     OW68984  12.540   0.870   7.581
55696SOL    HW168985  12.492   0.916   7.650
55696SOL    HW268986  12.552   0.782   7.616
55697SOL     OW68987   6.586  11.922   7.921
55697SOL    HW168988   6.614  12.014   7.923
55697SOL    HW268989   6.540  11.913   7.837
55698SOL     OW68990   5.145   2.135  14.372
55698SOL    HW168991   5.169   2.078  14.445
55698SOL    HW268992   5.110   2.074  14.306
55699SOL     OW68993   3.213   3.781  10.948
55699SOL    HW168994   3.233   3.801  10.857
55699SOL    HW268995   3.117   3.787  10.953
55700SOL     OW68996   1.198   6.704   4.124
55700SOL    HW168997   1.209   6.732   4.215
55700SOL    HW268998   1.131   6.763   4.090
55701SOL     OW68999   0.393   6.359   0.093
55701SOL    HW169000   0.391   6.385   0.185
55701SOL    HW269001   0.302   6.365   0.064
55702SOL     OW69002   0.204   6.367  12.993
55702SOL    HW169003   0.110   6.353  13.002
55702SOL    HW269004   0.226   6.327  12.909
55703SOL     OW69005   5.924   5.122   6.674
55703SOL    HW169006   5.911   5.037   6.632
55703SOL    HW269007   5.855   5.127   6.741
55704SOL     OW69008  10.407  10.406  14.513
55704SOL    HW169009  10.397  10.426  14.420
55704SOL    HW269010  10.434  10.314  14.515
55705SOL     OW69011   7.314   4.862  14.654
55705SOL    HW169012   7.344   4.912  14.579
55705SOL    HW269013   7.236   4.816  14.624
55706SOL     OW69014   2.590  11.188   6.013
55706SOL    HW169015   2.660  11.136   6.052
55706SOL    HW269016   2.536  11.123   5.967
55707SOL     OW69017  11.482   3.782   6.760
55707SOL    HW169018  11.427   3.836   6.703
55707SOL    HW269019  11.534   3.846   6.809
55708SOL     OW69020   9.426   7.639  12.655
55708SOL    HW169021   9.414   7.678  12.741
55708SOL    HW269022   9.520   7.618  12.651
55709SOL     OW69023  11.235  12.215  12.591
55709SOL    HW169024  11.294  12.288  12.609
55709SOL    HW269025  11.229  12.211  12.496
55710SOL     OW69026   1.221   9.125  13.045
55710SOL    HW169027   1.219   9.031  13.064
55710SOL    HW269028   1.147   9.139  12.985
55711SOL     OW69029   0.296  14.587   2.622
55711SOL    HW169030   0.371  14.542   2.584
55711SOL    HW269031   0.253  14.520   2.675
55712SOL     OW69032   7.903   2.273   8.334
55712SOL    HW169033   7.808   2.286   8.335
55712SOL    HW269034   7.938   2.356   8.301
55713SOL     OW69035   2.975   2.037  13.815
55713SOL    HW169036   3.047   2.051  13.753
55713SOL    HW269037   2.933   1.956  13.786
55714SOL     OW69038  10.009  12.781  14.731
55714SOL    HW169039  10.057  12.803  14.651
55714SOL    HW269040   9.934  12.841  14.732
55715SOL     OW69041   0.260   8.378   5.418
55715SOL    HW169042   0.216   8.457   5.452
55715SOL    HW269043   0.350   8.406   5.400
55716SOL     OW69044  14.332   2.880   7.323
55716SOL    HW169045  14.250   2.925   7.347
55716SOL    HW269046  14.318   2.789   7.350
55717SOL     OW69047  12.000   7.077   7.930
55717SOL    HW169048  11.967   7.110   7.846
55717SOL    HW269049  12.093   7.100   7.930
55718SOL     OW69050   7.443   0.374  12.190
55718SOL    HW169051   7.364   0.345  12.145
55718SOL    HW269052   7.501   0.405  12.120
55719SOL     OW69053   4.650   1.148  13.618
55719SOL    HW169054   4.686   1.222  13.570
55719SOL    HW269055   4.652   1.075  13.555
55720SOL     OW69056   3.992   4.602   4.177
55720SOL    HW169057   3.957   4.534   4.119
55720SOL    HW269058   4.007   4.557   4.260
55721SOL     OW69059   8.449   2.356  11.319
55721SOL    HW169060   8.540   2.350  11.290
55721SOL    HW269061   8.408   2.418  11.259
55722SOL     OW69062   3.481   4.903   8.609
55722SOL    HW169063   3.521   4.841   8.548
55722SOL    HW269064   3.397   4.925   8.570
55723SOL     OW69065  10.637   8.784   7.568
55723SOL    HW169066  10.565   8.799   7.507
55723SOL    HW269067  10.607   8.822   7.650
55724SOL     OW69068   7.957   9.647  12.029
55724SOL    HW169069   7.979   9.604  12.111
55724SOL    HW269070   8.034   9.699  12.008
55725SOL     OW69071  13.478   4.957   2.451
55725SOL    HW169072  13.418   4.889   2.480
55725SOL    HW269073  13.506   4.928   2.363
55726SOL     OW69074  10.103   2.970  11.711
55726SOL    HW169075  10.162   3.036  11.677
55726SOL    HW269076  10.125   2.890  11.664
55727SOL     OW69077   7.410  11.849   9.015
55727SOL    HW169078   7.496  11.889   9.006
55727SOL    HW269079   7.387  11.860   9.107
55728SOL     OW69080   3.988   1.732   1.199
55728SOL    HW169081   3.998   1.790   1.124
55728SOL    HW269082   3.913   1.767   1.247
55729SOL     OW69083  10.408   5.338  14.760
55729SOL    HW169084  10.315   5.357  14.744
55729SOL    HW269085  10.454   5.404  14.708
55730SOL     OW69086   0.285  10.585   3.053
55730SOL    HW169087   0.238  10.505   3.029
55730SOL    HW269088   0.269  10.595   3.147
55731SOL     OW69089  14.452   8.669   9.430
55731SOL    HW169090  14.535   8.629   9.455
55731SOL    HW269091  14.391   8.596   9.421
55732SOL     OW69092  10.849   6.487  14.528
55732SOL    HW169093  10.893   6.405  14.549
55732SOL    HW269094  10.802   6.468  14.446
55733SOL     OW69095   8.155   8.727   9.759
55733SOL    HW169096   8.095   8.676   9.813
55733SOL    HW269097   8.137   8.699   9.669
55734SOL     OW69098   3.434   8.818   0.810
55734SOL    HW169099   3.376   8.893   0.823
55734SOL    HW269100   3.484   8.811   0.892
55735SOL     OW69101   6.582   4.705   9.152
55735SOL    HW169102   6.564   4.767   9.082
55735SOL    HW269103   6.558   4.752   9.232
55736SOL     OW69104  14.650   4.453   6.354
55736SOL    HW169105  14.571   4.404   6.377
55736SOL    HW269106  14.700   4.393   6.299
55737SOL     OW69107   4.820   4.497   5.205
55737SOL    HW169108   4.905   4.466   5.235
55737SOL    HW269109   4.839   4.542   5.123
55738SOL     OW69110   0.122  10.370  10.221
55738SOL    HW169111   0.068  10.408  10.151
55738SOL    HW269112   0.118  10.434  10.292
55739SOL     OW69113   5.949   5.205  13.972
55739SOL    HW169114   6.041   5.233  13.972
55739SOL    HW269115   5.901   5.281  14.005
55740SOL     OW69116   5.566   9.852   4.606
55740SOL    HW169117   5.527   9.934   4.575
55740SOL    HW269118   5.520   9.833   4.688
55741SOL     OW69119   8.453  10.212  10.959
55741SOL    HW169120   8.449  10.298  11.002
55741SOL    HW269121   8.365  10.176  10.970
55742SOL     OW69122   3.874  13.580   1.743
55742SOL    HW169123   3.924  13.499   1.755
55742SOL    HW269124   3.801  13.555   1.687
55743SOL     OW69125  11.336  11.666   0.971
55743SOL    HW169126  11.352  11.760   0.966
55743SOL    HW269127  11.403  11.633   1.031
55744SOL     OW69128  13.967   5.543   5.969
55744SOL    HW169129  14.047   5.491   5.968
55744SOL    HW269130  13.992   5.626   5.928
55745SOL     OW69131   6.716   4.203   2.752
55745SOL    HW169132   6.723   4.145   2.828
55745SOL    HW269133   6.721   4.144   2.677
55746SOL     OW69134   0.032  10.076  13.517
55746SOL    HW169135  14.839  10.011  13.499
55746SOL    HW269136   0.114  10.030  13.496
55747SOL     OW69137   4.597   5.910  10.692
55747SOL    HW169138   4.613   5.832  10.640
55747SOL    HW269139   4.504   5.908  10.711
55748SOL     OW69140   6.521  11.360   3.319
55748SOL    HW169141   6.553  11.398   3.237
55748SOL    HW269142   6.599  11.348   3.372
55749SOL     OW69143  10.991   5.120   1.914
55749SOL    HW169144  10.996   5.028   1.888
55749SOL    HW269145  11.083   5.148   1.918
55750SOL     OW69146   8.935   0.174  14.235
55750SOL    HW169147   8.995   0.167  14.309
55750SOL    HW269148   8.913   0.267  14.231
55751SOL     OW69149   4.187  14.861   1.188
55751SOL    HW169150   4.213  14.769   1.184
55751SOL    HW269151   4.265   0.034   1.159
55752SOL     OW69152  14.355   4.299  11.679
55752SOL    HW169153  14.337   4.375  11.735
55752SOL    HW269154  14.420   4.330  11.616
55753SOL     OW69155   5.372   9.373   4.868
55753SOL    HW169156   5.463   9.347   4.852
55753SOL    HW269157   5.320   9.307   4.822
55754SOL     OW69158  10.963   8.092   3.013
55754SOL    HW169159  11.059   8.094   3.016
55754SOL    HW269160  10.939   8.017   3.066
55755SOL     OW69161  14.096  10.161  12.062
55755SOL    HW169162  14.087  10.241  12.011
55755SOL    HW269163  14.187  10.161  12.092
55756SOL     OW69164   4.341   4.109   8.644
55756SOL    HW169165   4.262   4.064   8.675
55756SOL    HW269166   4.383   4.142   8.723
55757SOL     OW69167   8.135   2.266   2.787
55757SOL    HW169168   8.155   2.310   2.705
55757SOL    HW269169   8.208   2.206   2.801
55758SOL     OW69170   2.836   7.866   8.021
55758SOL    HW169171   2.794   7.850   7.936
55758SOL    HW269172   2.929   7.873   8.000
55759SOL     OW69173   3.573   7.983   8.302
55759SOL    HW169174   3.582   8.003   8.208
55759SOL    HW269175   3.611   8.059   8.346
55760SOL     OW69176   2.948  11.560   0.054
55760SOL    HW169177   3.021  11.602   0.010
55760SOL    HW269178   2.894  11.524  14.859
55761SOL     OW69179  12.253   4.553   1.404
55761SOL    HW169180  12.279   4.534   1.314
55761SOL    HW269181  12.292   4.483   1.456
55762SOL     OW69182   2.008  10.414   8.872
55762SOL    HW169183   2.013  10.337   8.816
55762SOL    HW269184   1.945  10.391   8.939
55763SOL     OW69185   2.931  13.696   5.845
55763SOL    HW169186   3.014  13.656   5.819
55763SOL    HW269187   2.908  13.652   5.927
55764SOL     OW69188   7.848   9.651  13.881
55764SOL    HW169189   7.811   9.593  13.947
55764SOL    HW269190   7.806   9.625  13.799
55765SOL     OW69191   6.748   2.951  13.043
55765SOL    HW169192   6.689   3.025  13.055
55765SOL    HW269193   6.731   2.894  13.118
55766SOL     OW69194   0.205   2.780  14.597
55766SOL    HW169195   0.242   2.850  14.651
55766SOL    HW269196   0.281   2.732  14.565
55767SOL     OW69197   6.771  14.509  14.028
55767SOL    HW169198   6.853  14.459  14.017
55767SOL    HW269199   6.715  14.451  14.079
55768SOL     OW69200  11.366   7.735   2.118
55768SOL    HW169201  11.443   7.685   2.144
55768SOL    HW269202  11.331   7.770   2.200
55769SOL     OW69203  12.829   3.634   9.519
55769SOL    HW169204  12.767   3.562   9.530
55769SOL    HW269205  12.906   3.606   9.569
55770SOL     OW69206   4.968   1.812   3.005
55770SOL    HW169207   5.038   1.837   2.944
55770SOL    HW269208   4.894   1.788   2.948
55771SOL     OW69209   3.237   6.948   2.490
55771SOL    HW169210   3.217   6.889   2.417
55771SOL    HW269211   3.303   6.902   2.541
55772SOL     OW69212  13.622   2.432   2.202
55772SOL    HW169213  13.649   2.351   2.245
55772SOL    HW269214  13.657   2.425   2.113
55773SOL     OW69215   1.156   8.480  10.482
55773SOL    HW169216   1.076   8.528  10.458
55773SOL    HW269217   1.131   8.432  10.561
55774SOL     OW69218  13.253   6.571   7.350
55774SOL    HW169219  13.213   6.647   7.393
55774SOL    HW269220  13.291   6.606   7.270
55775SOL     OW69221   9.656   4.527   4.838
55775SOL    HW169222   9.645   4.484   4.753
55775SOL    HW269223   9.745   4.504   4.865
55776SOL     OW69224  14.403  13.539  12.612
55776SOL    HW169225  14.388  13.545  12.518
55776SOL    HW269226  14.370  13.453  12.637
55777SOL     OW69227  12.571  14.745   1.854
55777SOL    HW169228  12.535  14.766   1.940
55777SOL    HW269229  12.497  14.755   1.794
55778SOL     OW69230  14.584  12.142   4.507
55778SOL    HW169231  14.644  12.071   4.532
55778SOL    HW269232  14.619  12.220   4.550
55779SOL     OW69233  13.100  11.093   7.334
55779SOL    HW169234  13.138  11.020   7.286
55779SOL    HW269235  13.053  11.052   7.407
55780SOL     OW69236   0.244  10.377   6.847
55780SOL    HW169237   0.337  10.372   6.871
55780SOL    HW269238   0.198  10.337   6.921
55781SOL     OW69239   3.012   5.077   0.467
55781SOL    HW169240   2.967   4.999   0.499
55781SOL    HW269241   3.105   5.059   0.479
55782SOL     OW69242  14.737   3.466   1.329
55782SOL    HW169243  14.676   3.533   1.358
55782SOL    HW269244  14.810   3.514   1.290
55783SOL     OW69245   4.389   9.797   0.167
55783SOL    HW169246   4.299   9.797   0.132
55783SOL    HW269247   4.382   9.846   0.249
55784SOL     OW69248   3.144  11.488   8.044
55784SOL    HW169249   3.055  11.468   8.013
55784SOL    HW269250   3.134  11.502   8.138
55785SOL     OW69251   9.707   3.503   5.782
55785SOL    HW169252   9.627   3.517   5.833
55785SOL    HW269253   9.684   3.532   5.694
55786SOL     OW69254   0.823   3.474  13.861
55786SOL    HW169255   0.910   3.471  13.901
55786SOL    HW269256   0.789   3.385  13.869
55787SOL     OW69257   0.517  10.412  10.846
55787SOL    HW169258   0.486  10.500  10.865
55787SOL    HW269259   0.452  10.354  10.886
55788SOL     OW69260   0.890   6.083  12.989
55788SOL    HW169261   0.880   6.160  13.045
55788SOL    HW269262   0.848   6.108  12.907
55789SOL     OW69263   1.457   1.921  11.165
55789SOL    HW169264   1.506   1.919  11.247
55789SOL    HW269265   1.403   2.000  11.171
55790SOL     OW69266   6.080  12.554   8.965
55790SOL    HW169267   6.041  12.569   8.879
55790SOL    HW269268   6.069  12.637   9.011
55791SOL     OW69269   3.228   5.736  11.474
55791SOL    HW169270   3.251   5.652  11.513
55791SOL    HW269271   3.147   5.719  11.426
55792SOL     OW69272   6.864   5.652   9.749
55792SOL    HW169273   6.956   5.648   9.720
55792SOL    HW269274   6.821   5.708   9.685
55793SOL     OW69275   8.723  11.189   7.775
55793SOL    HW169276   8.751  11.161   7.688
55793SOL    HW269277   8.687  11.110   7.815
55794SOL     OW69278  14.672  10.996  12.099
55794SOL    HW169279  14.719  10.916  12.073
55794SOL    HW269280  14.580  10.969  12.102
55795SOL     OW69281  10.032   6.711   7.757
55795SOL    HW169282   9.951   6.762   7.755
55795SOL    HW269283  10.047   6.685   7.666
55796SOL     OW69284   8.908   9.660  14.652
55796SOL    HW169285   8.813   9.664  14.665
55796SOL    HW269286   8.918   9.614  14.568
55797SOL     OW69287   2.995   8.725   3.294
55797SOL    HW169288   2.946   8.688   3.220
55797SOL    HW269289   2.934   8.786   3.335
55798SOL     OW69290   9.344  13.135  10.812
55798SOL    HW169291   9.310  13.151  10.900
55798SOL    HW269292   9.439  13.135  10.823
55799SOL     OW69293  11.660   6.539   6.641
55799SOL    HW169294  11.648   6.629   6.672
55799SOL    HW269295  11.755   6.525   6.644
55800SOL     OW69296  14.394  14.086  13.763
55800SOL    HW169297  14.428  14.163  13.718
55800SOL    HW269298  14.376  14.116  13.852
55801SOL     OW69299   2.897  14.628   2.123
55801SOL    HW169300   2.979  14.584   2.099
55801SOL    HW269301   2.922  14.719   2.137
55802SOL     OW69302   7.000  12.797  12.817
55802SOL    HW169303   7.047  12.801  12.734
55802SOL    HW269304   6.933  12.865  12.810
55803SOL     OW69305   5.234  13.892  14.415
55803SOL    HW169306   5.319  13.854  14.392
55803SOL    HW269307   5.217  13.863  14.504
55804SOL     OW69308   2.252  13.421  14.694
55804SOL    HW169309   2.300  13.465  14.764
55804SOL    HW269310   2.201  13.353  14.739
55805SOL     OW69311   6.781   3.788   8.643
55805SOL    HW169312   6.844   3.859   8.659
55805SOL    HW269313   6.705   3.811   8.696
55806SOL     OW69314   4.730   9.814  13.481
55806SOL    HW169315   4.754   9.730  13.440
55806SOL    HW269316   4.765   9.880  13.421
55807SOL     OW69317   9.679  10.187   6.785
55807SOL    HW169318   9.614  10.118   6.798
55807SOL    HW269319   9.713  10.205   6.873
55808SOL     OW69320   6.312   2.562  14.066
55808SOL    HW169321   6.364   2.519  14.134
55808SOL    HW269322   6.242   2.499  14.048
55809SOL     OW69323   7.519   7.467   7.846
55809SOL    HW169324   7.430   7.476   7.813
55809SOL    HW269325   7.514   7.397   7.911
55810SOL     OW69326  13.336   8.387  11.796
55810SOL    HW169327  13.406   8.441  11.831
55810SOL    HW269328  13.317   8.324  11.866
55811SOL     OW69329   3.615  14.707   1.248
55811SOL    HW169330   3.642  14.640   1.311
55811SOL    HW269331   3.681  14.776   1.257
55812SOL     OW69332   2.882  14.442   3.082
55812SOL    HW169333   2.865  14.348   3.093
55812SOL    HW269334   2.880  14.477   3.170
55813SOL     OW69335   0.728  13.209  11.091
55813SOL    HW169336   0.697  13.185  11.178
55813SOL    HW269337   0.764  13.128  11.056
55814SOL     OW69338   2.035   9.996   1.243
55814SOL    HW169339   1.974   9.936   1.200
55814SOL    HW269340   2.079  10.041   1.170
55815SOL     OW69341   1.906   5.860  11.589
55815SOL    HW169342   1.942   5.899  11.510
55815SOL    HW269343   1.897   5.767  11.568
55816SOL     OW69344   1.767  13.709   1.408
55816SOL    HW169345   1.846  13.672   1.447
55816SOL    HW269346   1.710  13.727   1.483
55817SOL     OW69347  13.198   6.653   5.108
55817SOL    HW169348  13.146   6.619   5.180
55817SOL    HW269349  13.184   6.591   5.036
55818SOL     OW69350  12.325  13.971   5.296
55818SOL    HW169351  12.282  14.052   5.323
55818SOL    HW269352  12.266  13.902   5.325
55819SOL     OW69353   1.285   6.381   3.241
55819SOL    HW169354   1.319   6.319   3.176
55819SOL    HW269355   1.259   6.327   3.315
55820SOL     OW69356   4.814   4.877   4.273
55820SOL    HW169357   4.891   4.933   4.259
55820SOL    HW269358   4.749   4.936   4.312
55821SOL     OW69359   5.232   7.631   9.035
55821SOL    HW169360   5.213   7.722   9.010
55821SOL    HW269361   5.159   7.606   9.091
55822SOL     OW69362   3.922   6.839   7.857
55822SOL    HW169363   3.850   6.833   7.920
55822SOL    HW269364   3.996   6.798   7.902
55823SOL     OW69365   0.108   0.453   8.537
55823SOL    HW169366   0.124   0.533   8.487
55823SOL    HW269367   0.194   0.416   8.552
55824SOL     OW69368  11.150   7.977  11.805
55824SOL    HW169369  11.136   7.965  11.711
55824SOL    HW269370  11.161   8.071  11.817
55825SOL     OW69371  13.336   1.108   6.255
55825SOL    HW169372  13.361   1.018   6.277
55825SOL    HW269373  13.418   1.157   6.261
55826SOL     OW69374   4.325   1.919  13.682
55826SOL    HW169375   4.327   1.905  13.587
55826SOL    HW269376   4.324   2.015  13.692
55827SOL     OW69377   0.186  12.268  13.575
55827SOL    HW169378   0.276  12.240  13.587
55827SOL    HW269379   0.137  12.187  13.562
55828SOL     OW69380   8.924   4.999   0.744
55828SOL    HW169381   8.870   4.983   0.667
55828SOL    HW269382   8.862   5.004   0.816
55829SOL     OW69383   6.264   0.654   9.244
55829SOL    HW169384   6.287   0.706   9.168
55829SOL    HW269385   6.243   0.718   9.312
55830SOL     OW69386   6.672  11.920   8.689
55830SOL    HW169387   6.681  12.003   8.736
55830SOL    HW269388   6.578  11.901   8.694
55831SOL     OW69389  12.310   0.461   9.424
55831SOL    HW169390  12.306   0.464   9.329
55831SOL    HW269391  12.385   0.404   9.443
55832SOL     OW69392  12.708   8.856  13.191
55832SOL    HW169393  12.633   8.856  13.250
55832SOL    HW269394  12.732   8.948  13.183
55833SOL     OW69395   0.800   5.506   6.012
55833SOL    HW169396   0.785   5.475   5.922
55833SOL    HW269397   0.791   5.427   6.066
55834SOL     OW69398   3.802  10.521   3.374
55834SOL    HW169399   3.737  10.546   3.439
55834SOL    HW269400   3.844  10.443   3.411
55835SOL     OW69401   4.484   4.498  13.255
55835SOL    HW169402   4.494   4.449  13.173
55835SOL    HW269403   4.459   4.431  13.319
55836SOL     OW69404   2.603  10.513  13.494
55836SOL    HW169405   2.613  10.422  13.524
55836SOL    HW269406   2.692  10.539  13.469
55837SOL     OW69407   7.603   7.009   3.762
55837SOL    HW169408   7.659   7.000   3.686
55837SOL    HW269409   7.659   6.986   3.836
55838SOL     OW69410   3.707   0.874  11.364
55838SOL    HW169411   3.617   0.851  11.389
55838SOL    HW269412   3.732   0.807  11.300
55839SOL     OW69413  11.763  13.312  14.268
55839SOL    HW169414  11.750  13.323  14.174
55839SOL    HW269415  11.675  13.300  14.304
55840SOL     OW69416   2.677   2.103  10.392
55840SOL    HW169417   2.666   2.052  10.472
55840SOL    HW269418   2.687   2.194  10.422
55841SOL     OW69419  13.785  10.221  10.683
55841SOL    HW169420  13.857  10.279  10.657
55841SOL    HW269421  13.755  10.182  10.601
55842SOL     OW69422   0.167   6.292  13.644
55842SOL    HW169423   0.105   6.265  13.712
55842SOL    HW269424   0.183   6.385  13.661
55843SOL     OW69425   0.430  11.725   8.420
55843SOL    HW169426   0.391  11.803   8.459
55843SOL    HW269427   0.524  11.742   8.420
55844SOL     OW69428  10.441  10.582  10.894
55844SOL    HW169429  10.488  10.511  10.851
55844SOL    HW269430  10.501  10.614  10.961
55845SOL     OW69431  14.000   6.919   5.060
55845SOL    HW169432  14.087   6.881   5.064
55845SOL    HW269433  13.974   6.932   5.152
55846SOL     OW69434   3.950   1.682   9.535
55846SOL    HW169435   4.043   1.685   9.513
55846SOL    HW269436   3.912   1.757   9.490
55847SOL     OW69437   5.410   5.713   2.023
55847SOL    HW169438   5.402   5.795   2.072
55847SOL    HW269439   5.322   5.677   2.022
55848SOL     OW69440   1.148   6.860   1.175
55848SOL    HW169441   1.176   6.932   1.231
55848SOL    HW269442   1.104   6.799   1.234
55849SOL     OW69443   4.960  10.505  14.802
55849SOL    HW169444   5.022  10.520  14.731
55849SOL    HW269445   4.912  10.588  14.809
55850SOL     OW69446   8.844   9.572   2.216
55850SOL    HW169447   8.825   9.519   2.138
55850SOL    HW269448   8.790   9.651   2.204
55851SOL     OW69449  12.589   8.165   0.324
55851SOL    HW169450  12.593   8.169   0.228
55851SOL    HW269451  12.562   8.075   0.343
55852SOL     OW69452  11.652  14.487   2.847
55852SOL    HW169453  11.728  14.431   2.831
55852SOL    HW269454  11.684  14.554   2.908
55853SOL     OW69455   1.296  10.713   1.952
55853SOL    HW169456   1.330  10.665   1.876
55853SOL    HW269457   1.373  10.728   2.007
55854SOL     OW69458   1.542  13.506  12.274
55854SOL    HW169459   1.491  13.556  12.209
55854SOL    HW269460   1.524  13.414  12.253
55855SOL     OW69461  11.340   8.078   5.048
55855SOL    HW169462  11.366   7.986   5.059
55855SOL    HW269463  11.292   8.099   5.129
55856SOL     OW69464  13.029  13.904   2.172
55856SOL    HW169465  13.033  13.915   2.267
55856SOL    HW269466  13.120  13.918   2.144
55857SOL     OW69467   9.852   5.150   4.763
55857SOL    HW169468   9.769   5.103   4.774
55857SOL    HW269469   9.826   5.241   4.748
55858SOL     OW69470  13.279  13.027  12.796
55858SOL    HW169471  13.305  13.093  12.860
55858SOL    HW269472  13.206  12.981  12.837
55859SOL     OW69473   5.477   4.284   2.697
55859SOL    HW169474   5.408   4.344   2.725
55859SOL    HW269475   5.542   4.340   2.655
55860SOL     OW69476  10.013   3.728   6.066
55860SOL    HW169477  10.098   3.685   6.060
55860SOL    HW269478  10.015   3.795   5.997
55861SOL     OW69479   2.583   2.046   9.322
55861SOL    HW169480   2.659   2.087   9.282
55861SOL    HW269481   2.609   2.031   9.413
55862SOL     OW69482   7.890   3.914   3.719
55862SOL    HW169483   7.853   3.860   3.789
55862SOL    HW269484   7.984   3.915   3.736
55863SOL     OW69485  12.468   9.244  12.258
55863SOL    HW169486  12.398   9.205  12.310
55863SOL    HW269487  12.439   9.333  12.240
55864SOL     OW69488   3.987   3.397  10.051
55864SOL    HW169489   4.041   3.465  10.092
55864SOL    HW269490   4.016   3.395   9.959
55865SOL     OW69491   9.150   9.320   2.043
55865SOL    HW169492   9.240   9.295   2.025
55865SOL    HW269493   9.115   9.349   1.958
55866SOL     OW69494   3.212  11.427   0.584
55866SOL    HW169495   3.117  11.429   0.577
55866SOL    HW269496   3.232  11.338   0.611
55867SOL     OW69497   8.937   0.780  11.572
55867SOL    HW169498   8.859   0.834  11.584
55867SOL    HW269499   8.961   0.792  11.480
55868SOL     OW69500   8.613   6.616  12.993
55868SOL    HW169501   8.564   6.534  13.003
55868SOL    HW269502   8.601   6.661  13.076
55869SOL     OW69503   0.528  13.748   1.494
55869SOL    HW169504   0.599  13.790   1.445
55869SOL    HW269505   0.496  13.680   1.436
55870SOL     OW69506   6.648   7.770  13.643
55870SOL    HW169507   6.711   7.836  13.611
55870SOL    HW269508   6.642   7.786  13.737
55871SOL     OW69509   9.556   6.566  12.711
55871SOL    HW169510   9.517   6.595  12.793
55871SOL    HW269511   9.608   6.490  12.734
55872SOL     OW69512   2.206   6.171   4.448
55872SOL    HW169513   2.160   6.192   4.366
55872SOL    HW269514   2.280   6.117   4.420
55873SOL     OW69515   8.677  10.490  14.218
55873SOL    HW169516   8.710  10.532  14.138
55873SOL    HW269517   8.614  10.553  14.254
55874SOL     OW69518   8.825  14.864   5.628
55874SOL    HW169519   8.859  14.817   5.552
55874SOL    HW269520   8.735   0.013   5.604
55875SOL     OW69521   1.087   3.360   9.189
55875SOL    HW169522   1.048   3.446   9.173
55875SOL    HW269523   1.172   3.380   9.228
55876SOL     OW69524  14.371   8.084   7.955
55876SOL    HW169525  14.279   8.058   7.954
55876SOL    HW269526  14.395   8.085   8.047
55877SOL     OW69527  10.716   1.297  11.719
55877SOL    HW169528  10.674   1.213  11.734
55877SOL    HW269529  10.787   1.279  11.658
55878SOL     OW69530   1.522   8.762  11.926
55878SOL    HW169531   1.451   8.788  11.867
55878SOL    HW269532   1.533   8.837  11.985
55879SOL     OW69533   7.114   3.179   4.153
55879SOL    HW169534   7.202   3.214   4.142
55879SOL    HW269535   7.082   3.219   4.233
55880SOL     OW69536   4.681  14.595   2.901
55880SOL    HW169537   4.688  14.688   2.882
55880SOL    HW269538   4.702  14.552   2.819
55881SOL     OW69539   5.302   9.501  11.384
55881SOL    HW169540   5.268   9.552  11.310
55881SOL    HW269541   5.368   9.557  11.424
55882SOL     OW69542   1.736   0.745   7.393
55882SOL    HW169543   1.764   0.659   7.424
55882SOL    HW269544   1.735   0.737   7.298
55883SOL     OW69545  12.762   0.583   1.415
55883SOL    HW169546  12.722   0.538   1.340
55883SOL    HW269547  12.732   0.535   1.492
55884SOL     OW69548   8.098   4.973  10.205
55884SOL    HW169549   8.124   4.917  10.278
55884SOL    HW269550   8.146   5.055  10.219
55885SOL     OW69551   9.793   1.512   5.507
55885SOL    HW169552   9.745   1.583   5.550
55885SOL    HW269553   9.836   1.554   5.433
55886SOL     OW69554  12.877  12.050   0.964
55886SOL    HW169555  12.804  12.024   0.909
55886SOL    HW269556  12.950  11.995   0.936
55887SOL     OW69557   1.615   0.131  13.438
55887SOL    HW169558   1.574   0.210  13.473
55887SOL    HW269559   1.663   0.160  13.361
55888SOL     OW69560  11.749   2.520   2.166
55888SOL    HW169561  11.768   2.433   2.201
55888SOL    HW269562  11.800   2.525   2.085
55889SOL     OW69563   1.345   3.831   2.919
55889SOL    HW169564   1.291   3.763   2.879
55889SOL    HW269565   1.380   3.790   2.998
55890SOL     OW69566   9.213   8.754   8.149
55890SOL    HW169567   9.296   8.717   8.120
55890SOL    HW269568   9.191   8.819   8.082
55891SOL     OW69569   4.986  13.589   7.193
55891SOL    HW169570   5.000  13.678   7.160
55891SOL    HW269571   4.997  13.533   7.117
55892SOL     OW69572   5.572   1.627   9.486
55892SOL    HW169573   5.508   1.622   9.414
55892SOL    HW269574   5.645   1.573   9.456
55893SOL     OW69575   4.749  13.943   2.219
55893SOL    HW169576   4.712  13.856   2.237
55893SOL    HW269577   4.679  13.988   2.171
55894SOL     OW69578   4.691  10.480  11.655
55894SOL    HW169579   4.673  10.524  11.572
55894SOL    HW269580   4.631  10.521  11.718
55895SOL     OW69581   8.674   9.640  10.996
55895SOL    HW169582   8.702   9.701  10.928
55895SOL    HW269583   8.581   9.626  10.979
55896SOL     OW69584  13.743   1.311   6.672
55896SOL    HW169585  13.752   1.339   6.763
55896SOL    HW269586  13.649   1.296   6.660
55897SOL     OW69587   6.129   0.520  12.841
55897SOL    HW169588   6.166   0.563  12.764
55897SOL    HW269589   6.198   0.461  12.871
55898SOL     OW69590   0.054   2.053  10.024
55898SOL    HW169591   0.135   2.003  10.028
55898SOL    HW269592   0.069   2.117   9.954
55899SOL     OW69593   3.281   3.266   2.215
55899SOL    HW169594   3.375   3.246   2.215
55899SOL    HW269595   3.278   3.362   2.218
55900SOL     OW69596   8.833   7.878  14.036
55900SOL    HW169597   8.805   7.787  14.048
55900SOL    HW269598   8.762   7.917  13.984
55901SOL     OW69599  12.042   1.071  11.418
55901SOL    HW169600  11.976   1.140  11.416
55901SOL    HW269601  12.123   1.116  11.442
55902SOL     OW69602   3.047   3.241   0.167
55902SOL    HW169603   3.056   3.335   0.152
55902SOL    HW269604   3.129   3.216   0.210
55903SOL     OW69605   1.996   0.627   1.985
55903SOL    HW169606   1.946   0.673   1.917
55903SOL    HW269607   2.084   0.664   1.979
55904SOL     OW69608  13.293  11.829   2.550
55904SOL    HW169609  13.207  11.829   2.508
55904SOL    HW269610  13.307  11.738   2.576
55905SOL     OW69611   8.489   7.266   7.415
55905SOL    HW169612   8.404   7.308   7.427
55905SOL    HW269613   8.469   7.185   7.367
55906SOL     OW69614   9.278  13.390   6.565
55906SOL    HW169615   9.266  13.298   6.589
55906SOL    HW269616   9.191  13.418   6.536
55907SOL     OW69617   3.970   6.155   4.007
55907SOL    HW169618   3.884   6.130   3.975
55907SOL    HW269619   3.997   6.227   3.949
55908SOL     OW69620  10.550   3.015   9.295
55908SOL    HW169621  10.495   2.936   9.297
55908SOL    HW269622  10.562   3.038   9.388
55909SOL     OW69623   0.214   8.303  11.659
55909SOL    HW169624   0.304   8.272  11.668
55909SOL    HW269625   0.183   8.265  11.576
55910SOL     OW69626   9.334   3.837  12.223
55910SOL    HW169627   9.411   3.894  12.227
55910SOL    HW269628   9.355   3.765  12.282
55911SOL     OW69629   4.168   8.916   9.654
55911SOL    HW169630   4.228   8.920   9.728
55911SOL    HW269631   4.163   8.823   9.631
55912SOL     OW69632  11.038   6.097   0.250
55912SOL    HW169633  11.030   6.030   0.182
55912SOL    HW269634  10.964   6.081   0.308
55913SOL     OW69635   6.589   7.314   7.340
55913SOL    HW169636   6.658   7.325   7.275
55913SOL    HW269637   6.617   7.367   7.414
55914SOL     OW69638   0.225   7.767   1.140
55914SOL    HW169639   0.266   7.733   1.060
55914SOL    HW269640   0.293   7.823   1.179
55915SOL     OW69641   3.344   9.819   1.686
55915SOL    HW169642   3.313   9.899   1.644
55915SOL    HW269643   3.264   9.772   1.710
55916SOL     OW69644   0.558   9.133  14.767
55916SOL    HW169645   0.650   9.116  14.790
55916SOL    HW269646   0.563   9.174  14.681
55917SOL     OW69647   9.157   4.604   8.223
55917SOL    HW169648   9.087   4.633   8.282
55917SOL    HW269649   9.111   4.571   8.146
55918SOL     OW69650   6.847   3.100  14.188
55918SOL    HW169651   6.893   3.183  14.190
55918SOL    HW269652   6.904   3.042  14.137
55919SOL     OW69653   9.650   6.170   0.331
55919SOL    HW169654   9.705   6.248   0.319
55919SOL    HW269655   9.609   6.182   0.416
55920SOL     OW69656   5.543  11.278   4.056
55920SOL    HW169657   5.553  11.340   4.128
55920SOL    HW269658   5.625  11.285   4.007
55921SOL     OW69659   1.334   9.305   3.177
55921SOL    HW169660   1.355   9.397   3.158
55921SOL    HW269661   1.286   9.308   3.259
55922SOL     OW69662  10.718  14.078   7.488
55922SOL    HW169663  10.659  14.094   7.415
55922SOL    HW269664  10.792  14.031   7.449
55923SOL     OW69665   5.416  14.110   8.555
55923SOL    HW169666   5.376  14.034   8.597
55923SOL    HW269667   5.362  14.184   8.582
55924SOL     OW69668   3.824   2.547   2.355
55924SOL    HW169669   3.891   2.560   2.288
55924SOL    HW269670   3.872   2.542   2.437
55925SOL     OW69671  11.190   3.474  14.530
55925SOL    HW169672  11.195   3.390  14.485
55925SOL    HW269673  11.252   3.466  14.603
55926SOL     OW69674   9.469  14.066  12.590
55926SOL    HW169675   9.469  14.011  12.512
55926SOL    HW269676   9.500  14.009  12.660
55927SOL     OW69677   6.973   8.413  10.129
55927SOL    HW169678   7.007   8.490  10.084
55927SOL    HW269679   6.903   8.381  10.072
55928SOL     OW69680   4.201   0.055   6.838
55928SOL    HW169681   4.168   0.067   6.749
55928SOL    HW269682   4.144   0.109   6.892
55929SOL     OW69683  10.127  14.824   4.299
55929SOL    HW169684  10.067  14.749   4.300
55929SOL    HW269685  10.069   0.025   4.299
55930SOL     OW69686   6.092   6.898   1.200
55930SOL    HW169687   6.161   6.964   1.197
55930SOL    HW269688   6.054   6.898   1.112
55931SOL     OW69689   9.208   9.888   3.887
55931SOL    HW169690   9.148   9.930   3.825
55931SOL    HW269691   9.240   9.810   3.841
55932SOL     OW69692  12.001   8.526  12.058
55932SOL    HW169693  11.992   8.459  11.990
55932SOL    HW269694  11.918   8.522  12.107
55933SOL     OW69695  12.773   3.082   3.767
55933SOL    HW169696  12.726   3.109   3.846
55933SOL    HW269697  12.864   3.102   3.785
55934SOL     OW69698   1.989   6.353   5.858
55934SOL    HW169699   1.930   6.356   5.783
55934SOL    HW269700   2.007   6.444   5.879
55935SOL     OW69701  12.020  10.275  11.362
55935SOL    HW169702  11.991  10.317  11.281
55935SOL    HW269703  11.981  10.329  11.431
55936SOL     OW69704   8.916   9.956  11.750
55936SOL    HW169705   8.858   9.994  11.816
55936SOL    HW269706   9.001   9.996  11.766
55937SOL     OW69707   8.099   2.495  12.726
55937SOL    HW169708   8.081   2.556  12.655
55937SOL    HW269709   8.148   2.424  12.685
55938SOL     OW69710   2.078   0.860   3.875
55938SOL    HW169711   1.994   0.833   3.912
55938SOL    HW269712   2.111   0.782   3.831
55939SOL     OW69713  10.133   4.486   2.996
55939SOL    HW169714  10.143   4.392   3.013
55939SOL    HW269715  10.179   4.500   2.913
55940SOL     OW69716  11.225  11.367  11.726
55940SOL    HW169717  11.148  11.406  11.769
55940SOL    HW269718  11.213  11.273  11.738
55941SOL     OW69719   5.285   9.138   5.182
55941SOL    HW169720   5.254   9.058   5.224
55941SOL    HW269721   5.284   9.204   5.251
55942SOL     OW69722   7.107  14.817   8.296
55942SOL    HW169723   7.036   0.005   8.303
55942SOL    HW269724   7.132  14.799   8.387
55943SOL     OW69725  13.795  10.401   9.195
55943SOL    HW169726  13.748  10.369   9.118
55943SOL    HW269727  13.838  10.322   9.230
55944SOL     OW69728  14.727   0.351   8.136
55944SOL    HW169729  14.753   0.367   8.226
55944SOL    HW269730  14.801   0.379   8.083
55945SOL     OW69731  14.604  11.184   7.403
55945SOL    HW169732  14.634  11.245   7.336
55945SOL    HW269733  14.599  11.236   7.483
55946SOL     OW69734  12.586   9.186  13.854
55946SOL    HW169735  12.665   9.235  13.875
55946SOL    HW269736  12.579   9.120  13.923
55947SOL     OW69737  11.726   1.239   6.878
55947SOL    HW169738  11.785   1.268   6.808
55947SOL    HW269739  11.681   1.319   6.906
55948SOL     OW69740   7.519   3.709   9.835
55948SOL    HW169741   7.573   3.663   9.899
55948SOL    HW269742   7.513   3.799   9.868
55949SOL     OW69743  11.163   2.160   0.393
55949SOL    HW169744  11.193   2.248   0.370
55949SOL    HW269745  11.132   2.123   0.311
55950SOL     OW69746   3.755   0.093  13.384
55950SOL    HW169747   3.842   0.118  13.417
55950SOL    HW269748   3.765   0.094  13.289
55951SOL     OW69749   9.384   2.264  11.040
55951SOL    HW169750   9.317   2.209  11.081
55951SOL    HW269751   9.464   2.212  11.044
55952SOL     OW69752  10.079   7.127  14.088
55952SOL    HW169753  10.088   7.112  14.182
55952SOL    HW269754  10.073   7.223  14.080
55953SOL     OW69755  10.320   7.362   2.390
55953SOL    HW169756  10.296   7.288   2.333
55953SOL    HW269757  10.271   7.346   2.471
55954SOL     OW69758   9.818  11.468  10.451
55954SOL    HW169759   9.796  11.496  10.540
55954SOL    HW269760   9.907  11.433  10.459
55955SOL     OW69761   3.847  14.012   3.174
55955SOL    HW169762   3.820  13.958   3.099
55955SOL    HW269763   3.765  14.052   3.205
55956SOL     OW69764   2.308   7.467   6.655
55956SOL    HW169765   2.263   7.489   6.736
55956SOL    HW269766   2.293   7.373   6.644
55957SOL     OW69767   1.568   9.762   7.851
55957SOL    HW169768   1.515   9.812   7.789
55957SOL    HW269769   1.653   9.807   7.853
55958SOL     OW69770   9.613   3.679   2.114
55958SOL    HW169771   9.554   3.730   2.169
55958SOL    HW269772   9.566   3.597   2.098
55959SOL     OW69773   2.102   1.137  10.899
55959SOL    HW169774   2.037   1.070  10.881
55959SOL    HW269775   2.072   1.214  10.850
55960SOL     OW69776   4.469  11.446   2.993
55960SOL    HW169777   4.530  11.375   3.015
55960SOL    HW269778   4.510  11.525   3.030
55961SOL     OW69779   5.682   7.345   8.874
55961SOL    HW169780   5.733   7.340   8.792
55961SOL    HW269781   5.733   7.402   8.930
55962SOL     OW69782   4.772   3.997   6.977
55962SOL    HW169783   4.790   3.905   6.960
55962SOL    HW269784   4.800   4.042   6.897
55963SOL     OW69785  12.094   5.514   7.852
55963SOL    HW169786  12.067   5.604   7.867
55963SOL    HW269787  12.031   5.461   7.901
55964SOL     OW69788   7.760  12.774  10.265
55964SOL    HW169789   7.738  12.862  10.295
55964SOL    HW269790   7.757  12.780  10.170
55965SOL     OW69791   6.734   1.210   2.450
55965SOL    HW169792   6.733   1.303   2.427
55965SOL    HW269793   6.646   1.193   2.485
55966SOL     OW69794  14.357   8.478  12.167
55966SOL    HW169795  14.446   8.443  12.165
55966SOL    HW269796  14.331   8.482  12.075
55967SOL     OW69797   6.546   7.345   9.054
55967SOL    HW169798   6.565   7.436   9.077
55967SOL    HW269799   6.451   7.337   9.061
55968SOL     OW69800   8.861  14.304   1.245
55968SOL    HW169801   8.846  14.308   1.340
55968SOL    HW269802   8.783  14.261   1.210
55969SOL     OW69803   9.622   8.665   0.585
55969SOL    HW169804   9.625   8.760   0.575
55969SOL    HW269805   9.676   8.647   0.661
55970SOL     OW69806   0.283   5.151  11.272
55970SOL    HW169807   0.220   5.222  11.286
55970SOL    HW269808   0.257   5.084  11.335
55971SOL     OW69809   7.751  10.776   7.501
55971SOL    HW169810   7.698  10.711   7.455
55971SOL    HW269811   7.826  10.790   7.444
55972SOL     OW69812   4.664   4.849   6.405
55972SOL    HW169813   4.626   4.935   6.424
55972SOL    HW269814   4.719   4.830   6.481
55973SOL     OW69815  11.191   5.544   0.936
55973SOL    HW169816  11.200   5.555   0.841
55973SOL    HW269817  11.106   5.502   0.948
55974SOL     OW69818  13.171  11.033  13.507
55974SOL    HW169819  13.101  11.086  13.547
55974SOL    HW269820  13.240  11.031  13.573
55975SOL     OW69821   6.461   0.592   2.247
55975SOL    HW169822   6.548   0.574   2.283
55975SOL    HW269823   6.476   0.658   2.180
55976SOL     OW69824   0.988   5.364   4.060
55976SOL    HW169825   0.951   5.288   4.016
55976SOL    HW269826   1.055   5.396   4.000
55977SOL     OW69827   4.211   6.185  10.092
55977SOL    HW169828   4.240   6.145  10.010
55977SOL    HW269829   4.119   6.209  10.076
55978SOL     OW69830   2.573   8.680   2.220
55978SOL    HW169831   2.656   8.647   2.253
55978SOL    HW269832   2.510   8.660   2.290
55979SOL     OW69833   4.033  12.866   7.846
55979SOL    HW169834   4.016  12.801   7.913
55979SOL    HW269835   4.055  12.946   7.895
55980SOL     OW69836   1.437   0.598   8.468
55980SOL    HW169837   1.349   0.626   8.491
55980SOL    HW269838   1.427   0.506   8.445
55981SOL     OW69839   3.740   8.649   0.964
55981SOL    HW169840   3.682   8.707   1.013
55981SOL    HW269841   3.786   8.708   0.903
55982SOL     OW69842   0.038  12.050  13.495
55982SOL    HW169843  14.851  12.043  13.568
55982SOL    HW269844   0.074  11.961  13.486
55983SOL     OW69845   9.122   8.139  10.118
55983SOL    HW169846   9.200   8.085  10.130
55983SOL    HW269847   9.058   8.079  10.078
55984SOL     OW69848   0.465   1.485   3.856
55984SOL    HW169849   0.402   1.415   3.869
55984SOL    HW269850   0.531   1.449   3.797
55985SOL     OW69851  11.034   7.875  13.977
55985SOL    HW169852  11.017   7.806  14.041
55985SOL    HW269853  11.023   7.832  13.892
55986SOL     OW69854   7.312   9.549   5.638
55986SOL    HW169855   7.265   9.563   5.556
55986SOL    HW269856   7.258   9.489   5.688
55987SOL     OW69857  11.361   8.574   6.470
55987SOL    HW169858  11.332   8.662   6.446
55987SOL    HW269859  11.285   8.535   6.512
55988SOL     OW69860  12.765   3.884   9.425
55988SOL    HW169861  12.814   3.874   9.343
55988SOL    HW269862  12.779   3.803   9.472
55989SOL     OW69863   1.822   1.737  12.447
55989SOL    HW169864   1.855   1.675  12.512
55989SOL    HW269865   1.746   1.777  12.489
55990SOL     OW69866  12.442  12.794  14.146
55990SOL    HW169867  12.432  12.709  14.103
55990SOL    HW269868  12.366  12.800  14.205
55991SOL     OW69869   1.950  14.258   1.427
55991SOL    HW169870   1.970  14.178   1.475
55991SOL    HW269871   1.913  14.317   1.492
55992SOL     OW69872   0.799  13.540   5.999
55992SOL    HW169873   0.877  13.568   6.047
55992SOL    HW269874   0.798  13.594   5.921
55993SOL     OW69875  13.889   0.625   3.138
55993SOL    HW169876  13.903   0.698   3.198
55993SOL    HW269877  13.794   0.619   3.129
55994SOL     OW69878   5.769   1.208  14.835
55994SOL    HW169879   5.765   1.113  14.831
55994SOL    HW269880   5.680   1.237  14.811
55995SOL     OW69881  14.782  10.095   1.786
55995SOL    HW169882  14.771  10.187   1.760
55995SOL    HW269883  14.697  10.070   1.822
55996SOL     OW69884   8.986  13.619   3.469
55996SOL    HW169885   8.979  13.672   3.548
55996SOL    HW269886   8.927  13.660   3.406
55997SOL     OW69887  14.860  14.345   5.838
55997SOL    HW169888  14.777  14.298   5.840
55997SOL    HW269889   0.027  14.316   5.757
55998SOL     OW69890  11.107  14.838   0.094
55998SOL    HW169891  11.168  14.767   0.070
55998SOL    HW269892  11.028  14.792   0.122
55999SOL     OW69893   3.642   1.529   5.951
55999SOL    HW169894   3.655   1.434   5.951
55999SOL    HW269895   3.679   1.557   5.867
56000SOL     OW69896  13.231  13.426   7.775
56000SOL    HW169897  13.290  13.442   7.849
56000SOL    HW269898  13.260  13.487   7.708
56001SOL     OW69899   5.860   2.723   6.117
56001SOL    HW169900   5.806   2.747   6.042
56001SOL    HW269901   5.923   2.660   6.081
56002SOL     OW69902   1.337   5.470   1.717
56002SOL    HW169903   1.286   5.420   1.653
56002SOL    HW269904   1.301   5.446   1.802
56003SOL     OW69905   8.884  13.371   7.675
56003SOL    HW169906   8.952  13.436   7.692
56003SOL    HW269907   8.808  13.402   7.723
56004SOL     OW69908   2.915  12.741   3.354
56004SOL    HW169909   2.990  12.682   3.345
56004SOL    HW269910   2.926  12.805   3.284
56005SOL     OW69911   2.583   5.540   8.362
56005SOL    HW169912   2.514   5.489   8.404
56005SOL    HW269913   2.659   5.530   8.420
56006SOL     OW69914   6.595   9.354   1.423
56006SOL    HW169915   6.682   9.336   1.458
56006SOL    HW269916   6.612   9.408   1.345
56007SOL     OW69917   1.906   4.378   3.653
56007SOL    HW169918   1.824   4.422   3.674
56007SOL    HW269919   1.931   4.332   3.733
56008SOL     OW69920  14.009   3.286   4.072
56008SOL    HW169921  13.939   3.344   4.043
56008SOL    HW269922  13.964   3.209   4.106
56009SOL     OW69923   3.457  13.963  11.389
56009SOL    HW169924   3.446  13.881  11.438
56009SOL    HW269925   3.369  14.001  11.387
56010SOL     OW69926   9.182  14.500  12.617
56010SOL    HW169927   9.237  14.526  12.691
56010SOL    HW269928   9.154  14.582  12.578
56011SOL     OW69929   0.383   0.097  11.767
56011SOL    HW169930   0.353   0.178  11.724
56011SOL    HW269931   0.438   0.127  11.839
56012SOL     OW69932  14.767   6.455   5.742
56012SOL    HW169933  14.732   6.434   5.829
56012SOL    HW269934  14.862   6.452   5.753
56013SOL     OW69935  11.651   5.180   8.775
56013SOL    HW169936  11.686   5.193   8.863
56013SOL    HW269937  11.672   5.089   8.754
56014SOL     OW69938  13.002  13.056  10.520
56014SOL    HW169939  12.984  13.120  10.589
56014SOL    HW269940  12.916  13.024  10.494
56015SOL     OW69941   4.947   5.311   7.084
56015SOL    HW169942   4.916   5.354   7.163
56015SOL    HW269943   4.988   5.380   7.033
56016SOL     OW69944   0.181   6.620  11.961
56016SOL    HW169945   0.225   6.584  11.884
56016SOL    HW269946   0.097   6.654  11.927
56017SOL     OW69947   1.037  13.972   4.355
56017SOL    HW169948   1.121  13.948   4.393
56017SOL    HW269949   1.047  14.065   4.334
56018SOL     OW69950  11.158  13.575   0.286
56018SOL    HW169951  11.078  13.620   0.258
56018SOL    HW269952  11.150  13.569   0.381
56019SOL     OW69953   8.615  13.386  11.371
56019SOL    HW169954   8.585  13.466  11.415
56019SOL    HW269955   8.588  13.315  11.429
56020SOL     OW69956   9.053   6.563   4.753
56020SOL    HW169957   8.993   6.500   4.712
56020SOL    HW269958   9.103   6.511   4.816
56021SOL     OW69959   6.620   5.039   1.253
56021SOL    HW169960   6.614   5.012   1.345
56021SOL    HW269961   6.648   4.961   1.207
56022SOL     OW69962   3.746   4.853   9.301
56022SOL    HW169963   3.742   4.788   9.371
56022SOL    HW269964   3.724   4.936   9.344
56023SOL     OW69965   7.191  11.772   7.361
56023SOL    HW169966   7.121  11.816   7.313
56023SOL    HW269967   7.256  11.841   7.376
56024SOL     OW69968   3.764   4.983  13.309
56024SOL    HW169969   3.725   4.949  13.389
56024SOL    HW269970   3.813   5.061  13.338
56025SOL     OW69971  12.589   9.817   2.729
56025SOL    HW169972  12.552   9.771   2.805
56025SOL    HW269973  12.521   9.812   2.663
56026SOL     OW69974   8.607   5.854   8.888
56026SOL    HW169975   8.670   5.858   8.960
56026SOL    HW269976   8.569   5.766   8.894
56027SOL     OW69977  11.368   1.496   6.531
56027SOL    HW169978  11.365   1.407   6.497
56027SOL    HW269979  11.462   1.518   6.533
56028SOL     OW69980   1.727   9.836   1.668
56028SOL    HW169981   1.761   9.925   1.672
56028SOL    HW269982   1.675   9.827   1.748
56029SOL     OW69983   9.879   0.392   8.768
56029SOL    HW169984   9.825   0.321   8.733
56029SOL    HW269985   9.885   0.455   8.695
56030SOL     OW69986  11.629  12.373   2.692
56030SOL    HW169987  11.549  12.358   2.641
56030SOL    HW269988  11.685  12.424   2.634
56031SOL     OW69989   2.257   0.277   3.959
56031SOL    HW169990   2.193   0.224   3.913
56031SOL    HW269991   2.281   0.225   4.036
56032SOL     OW69992   4.517  13.112   1.834
56032SOL    HW169993   4.440  13.152   1.794
56032SOL    HW269994   4.555  13.057   1.765
56033SOL     OW69995   1.875   2.446  11.424
56033SOL    HW169996   1.941   2.384  11.392
56033SOL    HW269997   1.823   2.468  11.347
56034SOL     OW69998   4.210   1.273   7.122
56034SOL    HW169999   4.228   1.179   7.119
56034SOL    HW270000   4.184   1.295   7.032
56035SOL     OW70001   5.826  12.749   0.748
56035SOL    HW170002   5.801  12.659   0.771
56035SOL    HW270003   5.897  12.770   0.808
56036SOL     OW70004  13.134   3.470   2.501
56036SOL    HW170005  13.149   3.482   2.407
56036SOL    HW270006  13.186   3.393   2.524
56037SOL     OW70007   3.386   9.521   8.719
56037SOL    HW170008   3.384   9.583   8.792
56037SOL    HW270009   3.298   9.526   8.681
56038SOL     OW70010   0.039   9.116  13.906
56038SOL    HW170011   0.083   9.059  13.843
56038SOL    HW270012  14.824   9.082  13.910
56039SOL     OW70013   4.642   7.955   5.239
56039SOL    HW170014   4.667   8.036   5.195
56039SOL    HW270015   4.709   7.943   5.307
56040SOL     OW70016  13.867  14.064   0.191
56040SOL    HW170017  13.843  14.134   0.251
56040SOL    HW270018  13.885  14.108   0.108
56041SOL     OW70019   6.977   2.338  12.539
56041SOL    HW170020   7.021   2.381  12.613
56041SOL    HW270021   6.917   2.405  12.505
56042SOL     OW70022  14.389   0.704   5.463
56042SOL    HW170023  14.476   0.699   5.423
56042SOL    HW270024  14.406   0.717   5.556
56043SOL     OW70025   5.975   0.558   9.813
56043SOL    HW170026   5.899   0.613   9.795
56043SOL    HW270027   5.964   0.483   9.754
56044SOL     OW70028  14.570  11.190   1.099
56044SOL    HW170029  14.618  11.185   1.181
56044SOL    HW270030  14.626  11.146   1.035
56045SOL     OW70031  13.624   6.746  12.795
56045SOL    HW170032  13.603   6.824  12.846
56045SOL    HW270033  13.659   6.780  12.713
56046SOL     OW70034  12.226   9.758   5.423
56046SOL    HW170035  12.157   9.780   5.360
56046SOL    HW270036  12.304   9.743   5.370
56047SOL     OW70037   7.888   2.762   7.812
56047SOL    HW170038   7.948   2.836   7.815
56047SOL    HW270039   7.929   2.696   7.868
56048SOL     OW70040   0.850  13.069   2.527
56048SOL    HW170041   0.915  13.033   2.587
56048SOL    HW270042   0.859  13.018   2.447
56049SOL     OW70043  13.468  13.378  13.624
56049SOL    HW170044  13.548  13.325  13.624
56049SOL    HW270045  13.491  13.455  13.572
56050SOL     OW70046   5.272   3.743   2.368
56050SOL    HW170047   5.306   3.655   2.389
56050SOL    HW270048   5.300   3.759   2.278
56051SOL     OW70049  14.275  10.654  13.809
56051SOL    HW170050  14.304  10.605  13.886
56051SOL    HW270051  14.303  10.600  13.735
56052SOL     OW70052   1.117  11.571   9.107
56052SOL    HW170053   1.074  11.639   9.158
56052SOL    HW270054   1.046  11.514   9.078
56053SOL     OW70055  10.566   9.674   5.487
56053SOL    HW170056  10.547   9.608   5.553
56053SOL    HW270057  10.519   9.645   5.409
56054SOL     OW70058   8.081   7.731   4.692
56054SOL    HW170059   8.163   7.696   4.655
56054SOL    HW270060   8.014   7.704   4.630
56055SOL     OW70061  11.945   9.161   6.742
56055SOL    HW170062  11.913   9.248   6.761
56055SOL    HW270063  11.918   9.144   6.652
56056SOL     OW70064   0.727   7.835  13.584
56056SOL    HW170065   0.633   7.829  13.568
56056SOL    HW270066   0.767   7.772  13.525
56057SOL     OW70067  11.652   2.921   0.510
56057SOL    HW170068  11.670   2.901   0.602
56057SOL    HW270069  11.701   2.855   0.462
56058SOL     OW70070  11.776   5.470   7.635
56058SOL    HW170071  11.752   5.555   7.598
56058SOL    HW270072  11.871   5.465   7.623
56059SOL     OW70073   2.530   0.039  10.385
56059SOL    HW170074   2.568  14.826  10.394
56059SOL    HW270075   2.436   0.025  10.393
56060SOL     OW70076   0.100   7.827   0.115
56060SOL    HW170077   0.161   7.885   0.160
56060SOL    HW270078   0.121   7.740   0.148
56061SOL     OW70079   6.594  13.551   3.588
56061SOL    HW170080   6.540  13.537   3.666
56061SOL    HW270081   6.554  13.626   3.544
56062SOL     OW70082   2.069  11.746   3.661
56062SOL    HW170083   2.069  11.809   3.734
56062SOL    HW270084   2.083  11.661   3.703
56063SOL     OW70085   4.613   5.227   6.058
56063SOL    HW170086   4.702   5.219   6.025
56063SOL    HW270087   4.596   5.144   6.103
56064SOL     OW70088   2.382   6.383  14.709
56064SOL    HW170089   2.471   6.417  14.697
56064SOL    HW270090   2.393   6.288  14.710
56065SOL     OW70091   4.689   1.488   2.656
56065SOL    HW170092   4.638   1.495   2.575
56065SOL    HW270093   4.776   1.461   2.628
56066SOL     OW70094   6.179   3.984   8.946
56066SOL    HW170095   6.245   4.034   8.993
56066SOL    HW270096   6.110   4.048   8.926
56067SOL     OW70097   5.637   3.290   3.644
56067SOL    HW170098   5.544   3.279   3.621
56067SOL    HW270099   5.670   3.353   3.581
56068SOL     OW70100   1.112  14.810   6.022
56068SOL    HW170101   1.042   0.002   6.017
56068SOL    HW270102   1.066  14.730   6.047
56069SOL     OW70103   0.233   3.009  11.093
56069SOL    HW170104   0.312   3.008  11.148
56069SOL    HW270105   0.172   2.951  11.139
56070SOL     OW70106   9.218   1.049   7.980
56070SOL    HW170107   9.231   0.965   8.023
56070SOL    HW270108   9.125   1.051   7.958
56071SOL     OW70109   1.539  10.839  10.718
56071SOL    HW170110   1.554  10.901  10.646
56071SOL    HW270111   1.461  10.790  10.691
56072SOL     OW70112   2.180   0.683   9.859
56072SOL    HW170113   2.137   0.601   9.884
56072SOL    HW270114   2.141   0.750   9.915
56073SOL     OW70115  10.225   5.763   4.565
56073SOL    HW170116  10.227   5.726   4.477
56073SOL    HW270117  10.256   5.853   4.554
56074SOL     OW70118  11.905   9.295   8.090
56074SOL    HW170119  11.865   9.348   8.158
56074SOL    HW270120  11.901   9.349   8.012
56075SOL     OW70121   2.930  13.745   1.157
56075SOL    HW170122   3.019  13.723   1.127
56075SOL    HW270123   2.911  13.829   1.116
56076SOL     OW70124   1.784  13.675  14.856
56076SOL    HW170125   1.864  13.697  14.807
56076SOL    HW270126   1.775  13.580  14.846
56077SOL     OW70127   8.308   6.447   7.733
56077SOL    HW170128   8.224   6.406   7.711
56077SOL    HW270129   8.370   6.408   7.672
56078SOL     OW70130   8.680   8.390   9.569
56078SOL    HW170131   8.710   8.417   9.655
56078SOL    HW270132   8.597   8.435   9.556
56079SOL     OW70133   1.266  13.275  11.935
56079SOL    HW170134   1.194  13.225  11.974
56079SOL    HW270135   1.231  13.364  11.927
56080SOL     OW70136  11.984   0.891  10.919
56080SOL    HW170137  12.017   0.974  10.884
56080SOL    HW270138  11.907   0.871  10.867
56081SOL     OW70139   5.464   4.312  10.355
56081SOL    HW170140   5.514   4.238  10.321
56081SOL    HW270141   5.529   4.365  10.402
56082SOL     OW70142   7.808  12.599  14.398
56082SOL    HW170143   7.794  12.539  14.324
56082SOL    HW270144   7.760  12.558  14.470
56083SOL     OW70145   9.969   0.186   5.629
56083SOL    HW170146  10.010   0.205   5.714
56083SOL    HW270147  10.040   0.197   5.566
56084SOL     OW70148  13.271  10.445   3.046
56084SOL    HW170149  13.213  10.403   3.109
56084SOL    HW270150  13.288  10.378   2.980
56085SOL     OW70151  11.262   0.422   5.012
56085SOL    HW170152  11.265   0.373   4.929
56085SOL    HW270153  11.237   0.356   5.077
56086SOL     OW70154   4.786   7.407   2.639
56086SOL    HW170155   4.824   7.445   2.718
56086SOL    HW270156   4.813   7.466   2.569
56087SOL     OW70157   7.340   2.331   2.255
56087SOL    HW170158   7.356   2.354   2.346
56087SOL    HW270159   7.350   2.414   2.208
56088SOL     OW70160   6.332  13.827   8.479
56088SOL    HW170161   6.273  13.800   8.408
56088SOL    HW270162   6.283  13.894   8.526
56089SOL     OW70163   9.540  11.822  10.622
56089SOL    HW170164   9.486  11.750  10.589
56089SOL    HW270165   9.628  11.785  10.629
56090SOL     OW70166   9.923  13.554   0.393
56090SOL    HW170167   9.868  13.529   0.467
56090SOL    HW270168   9.990  13.611   0.431
56091SOL     OW70169  10.725  10.510  10.841
56091SOL    HW170170  10.730  10.431  10.896
56091SOL    HW270171  10.677  10.483  10.763
56092SOL     OW70172   5.674  10.303   2.136
56092SOL    HW170173   5.750  10.340   2.092
56092SOL    HW270174   5.709  10.227   2.184
56093SOL     OW70175  11.395  10.261  14.248
56093SOL    HW170176  11.326  10.198  14.267
56093SOL    HW270177  11.444  10.269  14.329
56094SOL     OW70178   2.212  11.543  10.889
56094SOL    HW170179   2.215  11.632  10.855
56094SOL    HW270180   2.170  11.492  10.820
56095SOL     OW70181   1.356   6.330  13.286
56095SOL    HW170182   1.320   6.282  13.211
56095SOL    HW270183   1.443   6.358  13.257
56096SOL     OW70184   4.381   3.307   4.930
56096SOL    HW170185   4.333   3.225   4.945
56096SOL    HW270186   4.318   3.375   4.954
56097SOL     OW70187   1.240  13.975   5.002
56097SOL    HW170188   1.149  13.963   4.977
56097SOL    HW270189   1.271  13.886   5.022
56098SOL     OW70190   5.747  14.562   6.552
56098SOL    HW170191   5.779  14.571   6.642
56098SOL    HW270192   5.753  14.468   6.534
56099SOL     OW70193  14.665  11.538   1.271
56099SOL    HW170194  14.750  11.493   1.277
56099SOL    HW270195  14.661  11.569   1.181
56100SOL     OW70196   5.578  14.500  14.451
56100SOL    HW170197   5.621  14.475  14.533
56100SOL    HW270198   5.502  14.551  14.478
56101SOL     OW70199  13.346   6.708   9.632
56101SOL    HW170200  13.405   6.784   9.637
56101SOL    HW270201  13.352   6.669   9.719
56102SOL     OW70202   4.500   9.877   4.481
56102SOL    HW170203   4.463   9.961   4.509
56102SOL    HW270204   4.453   9.855   4.401
56103SOL     OW70205  12.840   9.330   6.912
56103SOL    HW170206  12.774   9.317   6.844
56103SOL    HW270207  12.864   9.423   6.905
56104SOL     OW70208  11.519   4.991   3.114
56104SOL    HW170209  11.518   5.079   3.077
56104SOL    HW270210  11.477   4.936   3.048
56105SOL     OW70211  14.746  11.489  11.615
56105SOL    HW170212  14.719  11.571  11.575
56105SOL    HW270213  14.667  11.455  11.656
56106SOL     OW70214   2.005  12.276   9.023
56106SOL    HW170215   2.092  12.236   9.018
56106SOL    HW270216   1.957  12.223   9.086
56107SOL     OW70217   2.942   7.696  12.721
56107SOL    HW170218   2.928   7.696  12.627
56107SOL    HW270219   2.868   7.645  12.756
56108SOL     OW70220   2.353   1.405   7.383
56108SOL    HW170221   2.356   1.310   7.371
56108SOL    HW270222   2.262   1.423   7.408
56109SOL     OW70223   9.836  11.752   6.028
56109SOL    HW170224   9.856  11.845   6.037
56109SOL    HW270225   9.751  11.742   6.070
56110SOL     OW70226  10.360  11.052  12.791
56110SOL    HW170227  10.354  11.069  12.697
56110SOL    HW270228  10.432  11.108  12.821
56111SOL     OW70229   8.224   2.995  11.417
56111SOL    HW170230   8.277   3.074  11.427
56111SOL    HW270231   8.147   3.024  11.367
56112SOL     OW70232   6.355  12.759   2.392
56112SOL    HW170233   6.324  12.686   2.446
56112SOL    HW270234   6.282  12.779   2.335
56113SOL     OW70235   2.278   5.863   3.014
56113SOL    HW170236   2.254   5.804   3.085
56113SOL    HW270237   2.335   5.928   3.056
56114SOL     OW70238   5.189  12.658  10.132
56114SOL    HW170239   5.117  12.718  10.152
56114SOL    HW270240   5.199  12.605  10.211
56115SOL     OW70241   6.504  13.594   7.509
56115SOL    HW170242   6.433  13.571   7.449
56115SOL    HW270243   6.489  13.541   7.587
56116SOL     OW70244   2.147   4.101  11.650
56116SOL    HW170245   2.191   4.169  11.600
56116SOL    HW270246   2.206   4.083  11.724
56117SOL     OW70247   8.646   4.360   4.828
56117SOL    HW170248   8.626   4.437   4.774
56117SOL    HW270249   8.662   4.290   4.765
56118SOL     OW70250  14.241  11.932   2.763
56118SOL    HW170251  14.280  12.011   2.801
56118SOL    HW270252  14.304  11.863   2.780
56119SOL     OW70253  13.366  14.243   1.536
56119SOL    HW170254  13.291  14.294   1.566
56119SOL    HW270255  13.367  14.256   1.441
56120SOL     OW70256   1.554   7.617  14.361
56120SOL    HW170257   1.560   7.543  14.300
56120SOL    HW270258   1.486   7.590  14.424
56121SOL     OW70259   2.135   3.996   5.095
56121SOL    HW170260   2.199   4.065   5.074
56121SOL    HW270261   2.054   4.043   5.111
56122SOL     OW70262  14.148   3.717   4.921
56122SOL    HW170263  14.133   3.662   4.844
56122SOL    HW270264  14.193   3.794   4.888
56123SOL     OW70265  12.879   6.889   2.364
56123SOL    HW170266  12.877   6.984   2.355
56123SOL    HW270267  12.817   6.858   2.298
56124SOL     OW70268  10.263   6.154   9.405
56124SOL    HW170269  10.343   6.177   9.452
56124SOL    HW270270  10.292   6.132   9.317
56125SOL     OW70271  14.034  11.863   1.522
56125SOL    HW170272  14.017  11.847   1.429
56125SOL    HW270273  13.958  11.914   1.551
56126SOL     OW70274   9.644   2.253   5.722
56126SOL    HW170275   9.569   2.300   5.685
56126SOL    HW270276   9.619   2.237   5.814
56127SOL     OW70277   3.627   1.643   7.404
56127SOL    HW170278   3.717   1.658   7.377
56127SOL    HW270279   3.594   1.575   7.344
56128SOL     OW70280  10.137  11.747   5.464
56128SOL    HW170281  10.068  11.701   5.417
56128SOL    HW270282  10.140  11.833   5.423
56129SOL     OW70283   3.995  11.147  14.030
56129SOL    HW170284   3.913  11.127  13.984
56129SOL    HW270285   4.056  11.081  13.998
56130SOL     OW70286   2.146  12.913   1.454
56130SOL    HW170287   2.051  12.914   1.441
56130SOL    HW270288   2.159  12.953   1.540
56131SOL     OW70289  12.389  14.564   3.413
56131SOL    HW170290  12.467  14.618   3.401
56131SOL    HW270291  12.373  14.525   3.327
56132SOL     OW70292   1.821  11.399  14.418
56132SOL    HW170293   1.867  11.464  14.365
56132SOL    HW270294   1.840  11.315  14.375
56133SOL     OW70295   0.585  13.006   2.484
56133SOL    HW170296   0.566  12.913   2.472
56133SOL    HW270297   0.681  13.010   2.487
56134SOL     OW70298   8.327   8.265  14.690
56134SOL    HW170299   8.388   8.316  14.638
56134SOL    HW270300   8.246   8.265  14.640
56135SOL     OW70301  12.924   1.986   5.176
56135SOL    HW170302  12.983   2.032   5.237
56135SOL    HW270303  12.972   1.985   5.093
56136SOL     OW70304  13.789   3.762  14.024
56136SOL    HW170305  13.779   3.763  13.929
56136SOL    HW270306  13.871   3.809  14.040
56137SOL     OW70307   9.316  13.155   5.316
56137SOL    HW170308   9.354  13.237   5.349
56137SOL    HW270309   9.320  13.095   5.390
56138SOL     OW70310   0.240   5.348   4.425
56138SOL    HW170311   0.183   5.274   4.444
56138SOL    HW270312   0.295   5.318   4.353
56139SOL     OW70313   4.576  11.978  11.465
56139SOL    HW170314   4.526  11.976  11.384
56139SOL    HW270315   4.517  11.943  11.531
56140SOL     OW70316  11.888   3.853  14.394
56140SOL    HW170317  11.972   3.883  14.426
56140SOL    HW270318  11.909   3.781  14.335
56141SOL     OW70319   7.440   3.480   7.532
56141SOL    HW170320   7.416   3.547   7.468
56141SOL    HW270321   7.425   3.521   7.617
56142SOL     OW70322  11.524   3.311   6.826
56142SOL    HW170323  11.493   3.226   6.796
56142SOL    HW270324  11.619   3.300   6.834
56143SOL     OW70325  14.792   5.869   9.109
56143SOL    HW170326  14.723   5.842   9.168
56143SOL    HW270327  14.803   5.963   9.126
56144SOL     OW70328  13.500   3.965   7.437
56144SOL    HW170329  13.404   3.967   7.436
56144SOL    HW270330  13.526   4.019   7.363
56145SOL     OW70331   8.073   1.680  10.118
56145SOL    HW170332   8.019   1.688  10.039
56145SOL    HW270333   8.091   1.586  10.125
56146SOL     OW70334   1.612   2.422   8.297
56146SOL    HW170335   1.626   2.408   8.390
56146SOL    HW270336   1.655   2.347   8.255
56147SOL     OW70337   2.099   7.372   3.248
56147SOL    HW170338   2.077   7.302   3.186
56147SOL    HW270339   2.188   7.353   3.275
56148SOL     OW70340  12.419   7.326   1.604
56148SOL    HW170341  12.474   7.388   1.557
56148SOL    HW270342  12.424   7.245   1.552
56149SOL     OW70343   7.150   9.723  13.757
56149SOL    HW170344   7.100   9.664  13.700
56149SOL    HW270345   7.234   9.734  13.712
56150SOL     OW70346   9.474   9.624   4.356
56150SOL    HW170347   9.540   9.657   4.295
56150SOL    HW270348   9.524   9.597   4.433
56151SOL     OW70349  12.231  13.552   4.368
56151SOL    HW170350  12.300  13.600   4.413
56151SOL    HW270351  12.234  13.584   4.278
56152SOL     OW70352   7.554   1.175  11.241
56152SOL    HW170353   7.636   1.174  11.193
56152SOL    HW270354   7.514   1.090  11.222
56153SOL     OW70355  12.334   9.481   0.209
56153SOL    HW170356  12.294   9.396   0.227
56153SOL    HW270357  12.263   9.533   0.170
56154SOL     OW70358   2.134   7.216  11.536
56154SOL    HW170359   2.183   7.134  11.530
56154SOL    HW270360   2.170   7.261  11.612
56155SOL     OW70361   0.799   8.697   4.855
56155SOL    HW170362   0.707   8.724   4.845
56155SOL    HW270363   0.840   8.769   4.901
56156SOL     OW70364  13.240   9.673   4.920
56156SOL    HW170365  13.317   9.683   4.865
56156SOL    HW270366  13.272   9.629   4.999
56157SOL     OW70367  12.631   5.399   9.703
56157SOL    HW170368  12.700   5.396   9.636
56157SOL    HW270369  12.678   5.403   9.786
56158SOL     OW70370  12.915   6.252   0.138
56158SOL    HW170371  12.822   6.273   0.128
56158SOL    HW270372  12.943   6.303   0.213
56159SOL     OW70373   5.351   1.085   4.710
56159SOL    HW170374   5.344   0.992   4.689
56159SOL    HW270375   5.361   1.128   4.625
56160SOL     OW70376   6.033  10.347  10.143
56160SOL    HW170377   6.016  10.334  10.050
56160SOL    HW270378   6.108  10.290  10.162
56161SOL     OW70379  14.720   7.926   1.725
56161SOL    HW170380  14.809   7.929   1.689
56161SOL    HW270381  14.693   8.017   1.730
56162SOL     OW70382   5.747  10.968   5.325
56162SOL    HW170383   5.787  10.914   5.257
56162SOL    HW270384   5.725  11.050   5.282
56163SOL     OW70385   9.082   4.421  14.630
56163SOL    HW170386   9.115   4.506  14.659
56163SOL    HW270387   9.146   4.358  14.662
56164SOL     OW70388   0.632   2.716  10.376
56164SOL    HW170389   0.715   2.668  10.374
56164SOL    HW270390   0.657   2.806  10.395
56165SOL     OW70391   5.571   5.435   4.714
56165SOL    HW170392   5.623   5.472   4.643
56165SOL    HW270393   5.495   5.396   4.671
56166SOL     OW70394   5.718   2.032   6.120
56166SOL    HW170395   5.692   1.946   6.153
56166SOL    HW270396   5.637   2.074   6.094
56167SOL     OW70397  10.157   0.856  14.120
56167SOL    HW170398  10.076   0.867  14.070
56167SOL    HW270399  10.210   0.797  14.067
56168SOL     OW70400   2.405   3.834   9.904
56168SOL    HW170401   2.363   3.815   9.820
56168SOL    HW270402   2.333   3.864   9.960
56169SOL     OW70403   8.997  13.427   6.562
56169SOL    HW170404   8.930  13.362   6.543
56169SOL    HW270405   8.963  13.509   6.525
56170SOL     OW70406   4.961   0.415   3.897
56170SOL    HW170407   4.947   0.387   3.807
56170SOL    HW270408   5.009   0.497   3.889
56171SOL     OW70409   0.990   5.999   5.332
56171SOL    HW170410   0.964   6.081   5.289
56171SOL    HW270411   0.989   6.020   5.425
56172SOL     OW70412   8.339   8.806   0.787
56172SOL    HW170413   8.387   8.856   0.852
56172SOL    HW270414   8.256   8.786   0.829
56173SOL     OW70415   2.287   5.811  11.370
56173SOL    HW170416   2.329   5.760  11.302
56173SOL    HW270417   2.329   5.783  11.451
56174SOL     OW70418   7.425   0.164   5.662
56174SOL    HW170419   7.406   0.110   5.739
56174SOL    HW270420   7.504   0.212   5.685
56175SOL     OW70421  13.189  13.194   3.967
56175SOL    HW170422  13.220  13.284   3.961
56175SOL    HW270423  13.252  13.143   3.916
56176SOL     OW70424  14.386   6.215   8.378
56176SOL    HW170425  14.473   6.187   8.352
56176SOL    HW270426  14.380   6.305   8.349
56177SOL     OW70427   6.192   1.212   0.316
56177SOL    HW170428   6.143   1.244   0.240
56177SOL    HW270429   6.126   1.207   0.386
56178SOL     OW70430  14.427   0.562   7.970
56178SOL    HW170431  14.399   0.500   8.037
56178SOL    HW270432  14.437   0.645   8.017
56179SOL     OW70433   5.716  12.719   6.915
56179SOL    HW170434   5.635  12.759   6.882
56179SOL    HW270435   5.696  12.697   7.006
56180SOL     OW70436   8.311  10.153   6.296
56180SOL    HW170437   8.281  10.080   6.349
56180SOL    HW270438   8.283  10.131   6.207
56181SOL     OW70439   2.972   2.708   4.056
56181SOL    HW170440   3.023   2.788   4.047
56181SOL    HW270441   2.997   2.674   4.142
56182SOL     OW70442   7.054   7.860   3.873
56182SOL    HW170443   7.149   7.870   3.877
56182SOL    HW270444   7.027   7.906   3.794
56183SOL     OW70445   8.041   1.473   2.776
56183SOL    HW170446   8.113   1.412   2.756
56183SOL    HW270447   8.012   1.504   2.690
56184SOL     OW70448  12.639   6.399   5.092
56184SOL    HW170449  12.570   6.464   5.107
56184SOL    HW270450  12.672   6.378   5.179
56185SOL     OW70451  13.166   9.073  10.739
56185SOL    HW170452  13.202   9.007  10.798
56185SOL    HW270453  13.155   9.028  10.656
56186SOL     OW70454  10.616   6.356   8.349
56186SOL    HW170455  10.533   6.339   8.394
56186SOL    HW270456  10.681   6.310   8.400
56187SOL     OW70457   5.007   6.008   6.643
56187SOL    HW170458   5.102   6.006   6.632
56187SOL    HW270459   4.975   6.054   6.565
56188SOL     OW70460   1.238  12.245   7.138
56188SOL    HW170461   1.330  12.261   7.114
56188SOL    HW270462   1.197  12.219   7.055
56189SOL     OW70463   4.620  11.004   7.577
56189SOL    HW170464   4.561  11.021   7.504
56189SOL    HW270465   4.642  10.911   7.569
56190SOL     OW70466   4.498   5.813  12.848
56190SOL    HW170467   4.411   5.778  12.828
56190SOL    HW270468   4.490   5.907  12.831
56191SOL     OW70469   9.150   5.579   0.124
56191SOL    HW170470   9.148   5.567   0.219
56191SOL    HW270471   9.142   5.491   0.088
56192SOL     OW70472   7.381   0.440   6.688
56192SOL    HW170473   7.465   0.404   6.659
56192SOL    HW270474   7.363   0.395   6.771
56193SOL     OW70475  14.588   7.405   7.741
56193SOL    HW170476  14.646   7.385   7.667
56193SOL    HW270477  14.637   7.378   7.818
56194SOL     OW70478   6.574  13.564   6.726
56194SOL    HW170479   6.532  13.573   6.640
56194SOL    HW270480   6.647  13.625   6.723
56195SOL     OW70481   3.872   4.473   2.111
56195SOL    HW170482   3.931   4.522   2.169
56195SOL    HW270483   3.796   4.530   2.101
56196SOL     OW70484  14.579   9.265   5.190
56196SOL    HW170485  14.483   9.265   5.194
56196SOL    HW270486  14.600   9.302   5.104
56197SOL     OW70487  11.600   3.928  11.727
56197SOL    HW170488  11.508   3.949  11.711
56197SOL    HW270489  11.609   3.836  11.704
56198SOL     OW70490  10.360   3.549   2.932
56198SOL    HW170491  10.333   3.495   3.006
56198SOL    HW270492  10.359   3.489   2.857
56199SOL     OW70493   5.807   2.123   6.353
56199SOL    HW170494   5.762   2.065   6.414
56199SOL    HW270495   5.775   2.096   6.267
56200SOL     OW70496  11.973  13.910  11.811
56200SOL    HW170497  11.933  13.882  11.894
56200SOL    HW270498  11.902  13.908  11.748
56201SOL     OW70499  12.745   5.543   1.806
56201SOL    HW170500  12.652   5.522   1.801
56201SOL    HW270501  12.761   5.598   1.729
56202SOL     OW70502   3.361   9.786  10.100
56202SOL    HW170503   3.383   9.806  10.009
56202SOL    HW270504   3.445   9.785  10.145
56203SOL     OW70505   2.133   5.680   8.681
56203SOL    HW170506   2.130   5.588   8.706
56203SOL    HW270507   2.081   5.725   8.747
56204SOL     OW70508   4.857   8.996   6.278
56204SOL    HW170509   4.829   8.998   6.370
56204SOL    HW270510   4.950   8.974   6.282
56205SOL     OW70511   9.940  10.123  13.510
56205SOL    HW170512   9.998  10.148  13.438
56205SOL    HW270513   9.980  10.163  13.587
56206SOL     OW70514   8.939   1.522   8.640
56206SOL    HW170515   8.872   1.454   8.633
56206SOL    HW270516   8.989   1.498   8.718
56207SOL     OW70517   5.701   8.325   9.589
56207SOL    HW170518   5.633   8.260   9.571
56207SOL    HW270519   5.736   8.299   9.674
56208SOL     OW70520   0.113   4.370   1.499
56208SOL    HW170521   0.197   4.356   1.543
56208SOL    HW270522   0.114   4.463   1.476
56209SOL     OW70523   3.740   8.996   7.176
56209SOL    HW170524   3.717   8.943   7.252
56209SOL    HW270525   3.702   9.082   7.194
56210SOL     OW70526  13.278  11.139   3.313
56210SOL    HW170527  13.259  11.052   3.277
56210SOL    HW270528  13.200  11.161   3.363
56211SOL     OW70529   4.839  14.629   1.391
56211SOL    HW170530   4.825  14.592   1.478
56211SOL    HW270531   4.927  14.601   1.366
56212SOL     OW70532  12.452   6.364  13.869
56212SOL    HW170533  12.518   6.417  13.914
56212SOL    HW270534  12.410   6.425  13.808
56213SOL     OW70535  10.689   8.235   7.095
56213SOL    HW170536  10.648   8.319   7.119
56213SOL    HW270537  10.783   8.255   7.091
56214SOL     OW70538   1.929   6.582   0.293
56214SOL    HW170539   1.875   6.644   0.341
56214SOL    HW270540   1.867   6.531   0.241
56215SOL     OW70541  14.436   0.032  11.392
56215SOL    HW170542  14.436  14.812  11.404
56215SOL    HW270543  14.353   0.061  11.430
56216SOL     OW70544   6.526  13.374  10.081
56216SOL    HW170545   6.524  13.434  10.156
56216SOL    HW270546   6.578  13.300  10.111
56217SOL     OW70547  12.519  10.654   6.585
56217SOL    HW170548  12.556  10.594   6.520
56217SOL    HW270549  12.582  10.726   6.589
56218SOL     OW70550   1.733   6.778   8.995
56218SOL    HW170551   1.759   6.794   9.086
56218SOL    HW270552   1.732   6.683   8.987
56219SOL     OW70553  12.398   5.628   7.985
56219SOL    HW170554  12.366   5.655   8.072
56219SOL    HW270555  12.321   5.633   7.929
56220SOL     OW70556   9.295   9.604  10.290
56220SOL    HW170557   9.218   9.559  10.323
56220SOL    HW270558   9.335   9.643  10.368
56221SOL     OW70559   2.057   8.213   8.807
56221SOL    HW170560   1.999   8.251   8.740
56221SOL    HW270561   2.058   8.120   8.787
56222SOL     OW70562   6.282  11.862   4.302
56222SOL    HW170563   6.236  11.916   4.366
56222SOL    HW270564   6.213  11.829   4.244
56223SOL     OW70565  12.550  13.583  12.218
56223SOL    HW170566  12.541  13.666  12.172
56223SOL    HW270567  12.505  13.596  12.301
56224SOL     OW70568  13.682   3.302   3.338
56224SOL    HW170569  13.744   3.327   3.406
56224SOL    HW270570  13.597   3.300   3.382
56225SOL     OW70571  13.869   3.702  10.805
56225SOL    HW170572  13.910   3.730  10.723
56225SOL    HW270573  13.865   3.607  10.799
56226SOL     OW70574  13.178   9.713   5.414
56226SOL    HW170575  13.100   9.723   5.360
56226SOL    HW270576  13.187   9.619   5.427
56227SOL     OW70577   6.849  12.497  10.000
56227SOL    HW170578   6.817  12.466  10.085
56227SOL    HW270579   6.868  12.417   9.951
56228SOL     OW70580   5.218   0.855   8.895
56228SOL    HW170581   5.248   0.908   8.969
56228SOL    HW270582   5.190   0.772   8.935
56229SOL     OW70583  12.433  11.352   0.723
56229SOL    HW170584  12.379  11.285   0.764
56229SOL    HW270585  12.500  11.304   0.675
56230SOL     OW70586   1.541   3.783  12.935
56230SOL    HW170587   1.495   3.717  12.986
56230SOL    HW270588   1.566   3.850  12.998
56231SOL     OW70589   4.774   3.226   3.447
56231SOL    HW170590   4.811   3.142   3.475
56231SOL    HW270591   4.811   3.241   3.360
56232SOL     OW70592   6.049   5.288   7.445
56232SOL    HW170593   6.144   5.291   7.446
56232SOL    HW270594   6.022   5.378   7.464
56233SOL     OW70595   4.048   5.458   7.489
56233SOL    HW170596   3.964   5.493   7.461
56233SOL    HW270597   4.093   5.433   7.407
56234SOL     OW70598  11.297  13.300   8.689
56234SOL    HW170599  11.298  13.205   8.680
56234SOL    HW270600  11.312  13.333   8.601
56235SOL     OW70601  11.454  13.589  14.535
56235SOL    HW170602  11.503  13.523  14.485
56235SOL    HW270603  11.414  13.645  14.468
56236SOL     OW70604   7.054  14.727   4.409
56236SOL    HW170605   7.047  14.803   4.353
56236SOL    HW270606   7.134  14.683   4.380
56237SOL     OW70607   3.803  12.998  14.322
56237SOL    HW170608   3.851  13.066  14.369
56237SOL    HW270609   3.740  12.965  14.386
56238SOL     OW70610   3.160   2.946  13.794
56238SOL    HW170611   3.135   2.876  13.735
56238SOL    HW270612   3.117   2.924  13.877
56239SOL     OW70613  13.037   2.836   3.443
56239SOL    HW170614  12.944   2.822   3.458
56239SOL    HW270615  13.068   2.752   3.407
56240SOL     OW70616  11.758  13.334   3.434
56240SOL    HW170617  11.737  13.241   3.428
56240SOL    HW270618  11.677  13.378   3.409
56241SOL     OW70619   5.611   8.236   6.731
56241SOL    HW170620   5.567   8.175   6.672
56241SOL    HW270621   5.683   8.185   6.769
56242SOL     OW70622   8.818  14.779   9.654
56242SOL    HW170623   8.792  14.688   9.673
56242SOL    HW270624   8.897  14.793   9.706
56243SOL     OW70625   5.784  14.828   7.423
56243SOL    HW170626   5.856  14.819   7.361
56243SOL    HW270627   5.796   0.041   7.460
56244SOL     OW70628   2.477   5.273   3.946
56244SOL    HW170629   2.559   5.298   3.988
56244SOL    HW270630   2.419   5.249   4.018
56245SOL     OW70631   3.222  13.350   2.776
56245SOL    HW170632   3.178  13.274   2.738
56245SOL    HW270633   3.159  13.421   2.766
56246SOL     OW70634  10.294  10.785  14.167
56246SOL    HW170635  10.325  10.831  14.089
56246SOL    HW270636  10.256  10.853  14.222
56247SOL     OW70637   0.151   5.626  10.442
56247SOL    HW170638   0.123   5.574  10.367
56247SOL    HW270639   0.070   5.653  10.484
56248SOL     OW70640   3.287  10.255   1.377
56248SOL    HW170641   3.338  10.310   1.436
56248SOL    HW270642   3.327  10.168   1.384
56249SOL     OW70643   5.677  10.662  11.070
56249SOL    HW170644   5.647  10.699  10.987
56249SOL    HW270645   5.764  10.699  11.083
56250SOL     OW70646  12.969   9.217  11.130
56250SOL    HW170647  12.964   9.293  11.189
56250SOL    HW270648  13.009   9.148  11.183
56251SOL     OW70649   2.998   6.422   1.267
56251SOL    HW170650   2.924   6.419   1.328
56251SOL    HW270651   3.075   6.418   1.323
56252SOL     OW70652   1.609   0.017  13.166
56252SOL    HW170653   1.649   0.103  13.176
56252SOL    HW270654   1.562   0.022  13.083
56253SOL     OW70655   6.587   7.566  14.073
56253SOL    HW170656   6.602   7.614  14.155
56253SOL    HW270657   6.572   7.476  14.101
56254SOL     OW70658  12.138   5.852  10.991
56254SOL    HW170659  12.152   5.941  10.960
56254SOL    HW270660  12.226   5.817  11.004
56255SOL     OW70661  12.730   1.708   7.580
56255SOL    HW170662  12.703   1.763   7.653
56255SOL    HW270663  12.782   1.765   7.524
56256SOL     OW70664   7.587  10.492   8.440
56256SOL    HW170665   7.505  10.500   8.489
56256SOL    HW270666   7.568  10.528   8.354
56257SOL     OW70667   2.829   9.869   7.190
56257SOL    HW170668   2.743   9.861   7.233
56257SOL    HW270669   2.892   9.857   7.260
56258SOL     OW70670  13.091   5.285  10.218
56258SOL    HW170671  13.181   5.305  10.193
56258SOL    HW270672  13.052   5.369  10.240
56259SOL     OW70673   8.179   8.151   5.184
56259SOL    HW170674   8.212   8.182   5.100
56259SOL    HW270675   8.257   8.124   5.232
56260SOL     OW70676  14.806  12.443  11.223
56260SOL    HW170677  14.839  12.383  11.156
56260SOL    HW270678  14.799  12.390  11.302
56261SOL     OW70679  10.733   7.060   4.765
56261SOL    HW170680  10.789   7.099   4.697
56261SOL    HW270681  10.644   7.086   4.741
56262SOL     OW70682  10.280   4.969   9.963
56262SOL    HW170683  10.253   5.018   9.885
56262SOL    HW270684  10.303   4.882   9.930
56263SOL     OW70685   9.002   9.161  12.551
56263SOL    HW170686   8.958   9.128  12.630
56263SOL    HW270687   9.093   9.175  12.578
56264SOL     OW70688   2.858   5.747   8.176
56264SOL    HW170689   2.778   5.782   8.214
56264SOL    HW270690   2.900   5.822   8.133
56265SOL     OW70691   1.612   6.439   5.097
56265SOL    HW170692   1.680   6.387   5.138
56265SOL    HW270693   1.634   6.440   5.004
56266SOL     OW70694   4.055   4.041  13.329
56266SOL    HW170695   4.013   3.960  13.301
56266SOL    HW270696   3.988   4.108  13.321
56267SOL     OW70697   1.414   1.466   0.122
56267SOL    HW170698   1.426   1.484   0.029
56267SOL    HW270699   1.458   1.537   0.167
56268SOL     OW70700   4.220   4.102  13.079
56268SOL    HW170701   4.216   4.122  12.985
56268SOL    HW270702   4.131   4.073  13.100
56269SOL     OW70703  12.784   5.099   5.863
56269SOL    HW170704  12.742   5.175   5.821
56269SOL    HW270705  12.865   5.135   5.901
56270SOL     OW70706   5.162  14.503   2.406
56270SOL    HW170707   5.236  14.491   2.465
56270SOL    HW270708   5.178  14.441   2.335
56271SOL     OW70709   5.724  10.964  10.402
56271SOL    HW170710   5.820  10.959  10.408
56271SOL    HW270711   5.703  11.053  10.429
56272SOL     OW70712   8.904   8.396   4.212
56272SOL    HW170713   8.981   8.361   4.257
56272SOL    HW270714   8.870   8.322   4.161
56273SOL     OW70715   5.361   0.410   0.909
56273SOL    HW170716   5.359   0.480   0.975
56273SOL    HW270717   5.305   0.442   0.839
56274SOL     OW70718   9.576   9.041  12.507
56274SOL    HW170719   9.585   9.066  12.416
56274SOL    HW270720   9.484   9.016  12.516
56275SOL     OW70721  11.657  13.704   5.276
56275SOL    HW170722  11.710  13.783   5.272
56275SOL    HW270723  11.596  13.712   5.203
56276SOL     OW70724   1.115   5.393   4.649
56276SOL    HW170725   1.150   5.471   4.608
56276SOL    HW270726   1.040   5.368   4.595
56277SOL     OW70727   6.052  11.005   1.687
56277SOL    HW170728   6.056  10.996   1.592
56277SOL    HW270729   6.141  10.988   1.717
56278SOL     OW70730   5.610   3.107   9.960
56278SOL    HW170731   5.550   3.162   9.910
56278SOL    HW270732   5.554   3.065  10.025
56279SOL     OW70733   1.666  11.137   2.852
56279SOL    HW170734   1.731  11.136   2.923
56279SOL    HW270735   1.673  11.224   2.814
56280SOL     OW70736   9.030   1.491  11.787
56280SOL    HW170737   9.072   1.482  11.873
56280SOL    HW270738   8.968   1.418  11.783
56281SOL     OW70739   4.710   0.218   3.844
56281SOL    HW170740   4.726   0.272   3.922
56281SOL    HW270741   4.668   0.277   3.782
56282SOL     OW70742   1.609   8.325  12.533
56282SOL    HW170743   1.536   8.276  12.495
56282SOL    HW270744   1.607   8.304  12.626
56283SOL     OW70745  11.646   4.462  11.079
56283SOL    HW170746  11.589   4.426  11.012
56283SOL    HW270747  11.735   4.439  11.051
56284SOL     OW70748   0.677   2.984   4.097
56284SOL    HW170749   0.743   2.951   4.037
56284SOL    HW270750   0.595   2.946   4.067
56285SOL     OW70751   2.621   7.887   4.751
56285SOL    HW170752   2.567   7.913   4.826
56285SOL    HW270753   2.623   7.792   4.755
56286SOL     OW70754  10.113   8.361   0.445
56286SOL    HW170755  10.018   8.352   0.456
56286SOL    HW270756  10.147   8.362   0.534
56287SOL     OW70757  11.509   4.300   4.816
56287SOL    HW170758  11.575   4.370   4.824
56287SOL    HW270759  11.511   4.276   4.724
56288SOL     OW70760   3.270   6.519  11.445
56288SOL    HW170761   3.327   6.460  11.495
56288SOL    HW270762   3.330   6.574  11.394
56289SOL     OW70763  13.044  12.019   0.535
56289SOL    HW170764  13.008  11.938   0.570
56289SOL    HW270765  12.977  12.085   0.553
56290SOL     OW70766   1.301   0.381   9.142
56290SOL    HW170767   1.338   0.357   9.058
56290SOL    HW270768   1.355   0.454   9.172
56291SOL     OW70769   4.575   4.798  14.252
56291SOL    HW170770   4.620   4.822  14.333
56291SOL    HW270771   4.487   4.773  14.279
56292SOL     OW70772   2.184   4.342  12.192
56292SOL    HW170773   2.236   4.406  12.239
56292SOL    HW270774   2.235   4.261  12.197
56293SOL     OW70775  12.868  14.625  13.039
56293SOL    HW170776  12.891  14.636  13.131
56293SOL    HW270777  12.953  14.612  12.995
56294SOL     OW70778   2.804  14.184   6.224
56294SOL    HW170779   2.796  14.107   6.167
56294SOL    HW270780   2.897  14.203   6.225
56295SOL     OW70781   5.004  11.798   9.969
56295SOL    HW170782   4.976  11.883   9.933
56295SOL    HW270783   4.923  11.756   9.997
56296SOL     OW70784   4.144   7.604   9.496
56296SOL    HW170785   4.103   7.597   9.410
56296SOL    HW270786   4.229   7.646   9.479
56297SOL     OW70787  14.302  14.373  14.357
56297SOL    HW170788  14.257  14.370  14.441
56297SOL    HW270789  14.232  14.369  14.292
56298SOL     OW70790   5.574   7.073  12.941
56298SOL    HW170791   5.492   7.122  12.943
56298SOL    HW270792   5.594   7.063  12.848
56299SOL     OW70793   0.378   1.360   1.130
56299SOL    HW170794   0.460   1.360   1.179
56299SOL    HW270795   0.324   1.425   1.175
56300SOL     OW70796  10.468  14.224   9.633
56300SOL    HW170797  10.498  14.253   9.719
56300SOL    HW270798  10.547  14.193   9.589
56301SOL     OW70799   3.484   1.711   1.413
56301SOL    HW170800   3.416   1.647   1.436
56301SOL    HW270801   3.533   1.671   1.342
56302SOL     OW70802   9.126  10.386   1.098
56302SOL    HW170803   9.081  10.426   1.173
56302SOL    HW270804   9.207  10.352   1.135
56303SOL     OW70805  10.108   4.842   5.474
56303SOL    HW170806  10.048   4.908   5.510
56303SOL    HW270807  10.194   4.885   5.474
56304SOL     OW70808   1.605   2.897   8.623
56304SOL    HW170809   1.600   2.941   8.537
56304SOL    HW270810   1.699   2.895   8.642
56305SOL     OW70811   9.372  12.551  10.731
56305SOL    HW170812   9.288  12.584  10.761
56305SOL    HW270813   9.437  12.600  10.781
56306SOL     OW70814  11.062   1.243   8.839
56306SOL    HW170815  11.116   1.173   8.803
56306SOL    HW270816  10.997   1.260   8.770
56307SOL     OW70817   8.424  13.719  12.685
56307SOL    HW170818   8.400  13.812  12.691
56307SOL    HW270819   8.491  13.707  12.752
56308SOL     OW70820   9.928   9.351   6.087
56308SOL    HW170821   9.858   9.344   6.023
56308SOL    HW270822   9.973   9.266   6.084
56309SOL     OW70823   9.283   5.233   5.308
56309SOL    HW170824   9.296   5.327   5.315
56309SOL    HW270825   9.192   5.219   5.335
56310SOL     OW70826   8.581   2.266  13.916
56310SOL    HW170827   8.629   2.265  13.833
56310SOL    HW270828   8.489   2.257  13.891
56311SOL     OW70829  11.850  11.952  12.666
56311SOL    HW170830  11.804  12.035  12.680
56311SOL    HW270831  11.784  11.885  12.682
56312SOL     OW70832   8.394  13.575   6.631
56312SOL    HW170833   8.307  13.539   6.647
56312SOL    HW270834   8.450  13.534   6.697
56313SOL     OW70835   9.241   7.342   1.330
56313SOL    HW170836   9.322   7.383   1.303
56313SOL    HW270837   9.237   7.354   1.425
56314SOL     OW70838   7.858   5.867   4.367
56314SOL    HW170839   7.858   5.956   4.403
56314SOL    HW270840   7.780   5.826   4.403
56315SOL     OW70841   8.595  13.613  11.542
56315SOL    HW170842   8.539  13.682  11.506
56315SOL    HW270843   8.620  13.645  11.629
56316SOL     OW70844  12.362   2.607   5.105
56316SOL    HW170845  12.371   2.515   5.079
56316SOL    HW270846  12.452   2.637   5.119
56317SOL     OW70847  12.094   8.650   5.939
56317SOL    HW170848  12.106   8.743   5.918
56317SOL    HW270849  12.164   8.630   6.001
56318SOL     OW70850   0.167   2.895   4.089
56318SOL    HW170851   0.222   2.925   4.162
56318SOL    HW270852   0.081   2.935   4.106
56319SOL     OW70853   8.406   4.909   2.932
56319SOL    HW170854   8.400   4.851   2.856
56319SOL    HW270855   8.487   4.958   2.919
56320SOL     OW70856   8.265   8.478   5.053
56320SOL    HW170857   8.213   8.507   5.127
56320SOL    HW270858   8.355   8.473   5.086
56321SOL     OW70859   2.162   7.317   5.942
56321SOL    HW170860   2.122   7.322   5.856
56321SOL    HW270861   2.088   7.310   6.003
56322SOL     OW70862   9.626   2.946   0.218
56322SOL    HW170863   9.665   3.031   0.198
56322SOL    HW270864   9.548   2.942   0.163
56323SOL     OW70865   8.357   6.799   1.663
56323SOL    HW170866   8.403   6.817   1.745
56323SOL    HW270867   8.411   6.733   1.619
56324SOL     OW70868   3.695  12.031   8.227
56324SOL    HW170869   3.715  11.951   8.178
56324SOL    HW270870   3.663  12.000   8.312
56325SOL     OW70871  14.500   1.304  14.420
56325SOL    HW170872  14.571   1.245  14.442
56325SOL    HW270873  14.466   1.271  14.336
56326SOL     OW70874  12.837  13.512  14.204
56326SOL    HW170875  12.901  13.583  14.216
56326SOL    HW270876  12.828  13.473  14.291
56327SOL     OW70877  12.781   3.381  10.246
56327SOL    HW170878  12.736   3.304  10.213
56327SOL    HW270879  12.723   3.454  10.223
56328SOL     OW70880   2.638  10.511   1.339
56328SOL    HW170881   2.622  10.594   1.294
56328SOL    HW270882   2.734  10.504   1.342
56329SOL     OW70883  13.303   1.359  14.572
56329SOL    HW170884  13.335   1.421  14.507
56329SOL    HW270885  13.378   1.301  14.589
56330SOL     OW70886   5.090   2.105   1.895
56330SOL    HW170887   5.071   2.142   1.809
56330SOL    HW270888   5.119   2.016   1.877
56331SOL     OW70889  14.311   0.408  11.837
56331SOL    HW170890  14.387   0.446  11.880
56331SOL    HW270891  14.280   0.341  11.898
56332SOL     OW70892  14.546   2.579   7.629
56332SOL    HW170893  14.463   2.598   7.586
56332SOL    HW270894  14.526   2.507   7.689
56333SOL     OW70895   6.918   1.546   7.380
56333SOL    HW170896   6.894   1.591   7.461
56333SOL    HW270897   6.861   1.469   7.378
56334SOL     OW70898   4.355   4.602  11.198
56334SOL    HW170899   4.276   4.589  11.251
56334SOL    HW270900   4.363   4.697  11.189
56335SOL     OW70901   5.626  12.474  11.970
56335SOL    HW170902   5.689  12.454  11.901
56335SOL    HW270903   5.542  12.479  11.924
56336SOL     OW70904   6.070  11.718   4.114
56336SOL    HW170905   6.135  11.746   4.049
56336SOL    HW270906   6.078  11.623   4.117
56337SOL     OW70907   7.451   8.081   1.336
56337SOL    HW170908   7.397   8.012   1.374
56337SOL    HW270909   7.535   8.073   1.381
56338SOL     OW70910   8.326   0.231   9.611
56338SOL    HW170911   8.268   0.160   9.583
56338SOL    HW270912   8.398   0.230   9.548
56339SOL     OW70913   3.642   7.917  13.928
56339SOL    HW170914   3.621   7.956  14.013
56339SOL    HW270915   3.561   7.874  13.901
56340SOL     OW70916  12.125   2.992   5.414
56340SOL    HW170917  12.215   3.022   5.425
56340SOL    HW270918  12.133   2.899   5.390
56341SOL     OW70919  12.204  11.605   9.968
56341SOL    HW170920  12.118  11.594  10.008
56341SOL    HW270921  12.265  11.601  10.042
56342SOL     OW70922   6.824  12.043  14.029
56342SOL    HW170923   6.828  12.131  13.991
56342SOL    HW270924   6.742  12.041  14.078
56343SOL     OW70925   4.697  11.368  14.447
56343SOL    HW170926   4.603  11.360  14.431
56343SOL    HW270927   4.720  11.454  14.410
56344SOL     OW70928  13.892   2.563  10.930
56344SOL    HW170929  13.895   2.566  10.834
56344SOL    HW270930  13.912   2.652  10.958
56345SOL     OW70931   8.668  12.343  11.435
56345SOL    HW170932   8.608  12.274  11.466
56345SOL    HW270933   8.736  12.347  11.502
56346SOL     OW70934   8.182  11.997   2.687
56346SOL    HW170935   8.224  12.071   2.731
56346SOL    HW270936   8.169  11.932   2.757
56347SOL     OW70937   2.295  11.388   5.479
56347SOL    HW170938   2.336  11.441   5.411
56347SOL    HW270939   2.202  11.389   5.459
56348SOL     OW70940   1.436   8.159  11.853
56348SOL    HW170941   1.343   8.171  11.835
56348SOL    HW270942   1.456   8.220  11.923
56349SOL     OW70943   2.373  14.187  11.608
56349SOL    HW170944   2.417  14.126  11.667
56349SOL    HW270945   2.421  14.270  11.619
56350SOL     OW70946  10.989   8.491   0.459
56350SOL    HW170947  10.998   8.563   0.397
56350SOL    HW270948  11.072   8.490   0.507
56351SOL     OW70949   5.660  13.284   5.625
56351SOL    HW170950   5.636  13.334   5.547
56351SOL    HW270951   5.700  13.204   5.591
56352SOL     OW70952  11.405   2.599   7.136
56352SOL    HW170953  11.400   2.593   7.040
56352SOL    HW270954  11.353   2.677   7.157
56353SOL     OW70955   9.212   2.252  13.711
56353SOL    HW170956   9.262   2.323  13.671
56353SOL    HW270957   9.276   2.182  13.724
56354SOL     OW70958   7.543   3.431   8.551
56354SOL    HW170959   7.599   3.508   8.548
56354SOL    HW270960   7.573   3.376   8.479
56355SOL     OW70961   0.176   1.177   8.659
56355SOL    HW170962   0.218   1.137   8.583
56355SOL    HW270963   0.104   1.228   8.623
56356SOL     OW70964  14.210  10.581  10.381
56356SOL    HW170965  14.305  10.580  10.365
56356SOL    HW270966  14.181  10.493  10.357
56357SOL     OW70967   5.303  12.600  11.167
56357SOL    HW170968   5.248  12.669  11.203
56357SOL    HW270969   5.361  12.576  11.239
56358SOL     OW70970  10.809  10.203   4.182
56358SOL    HW170971  10.723  10.162   4.171
56358SOL    HW270972  10.833  10.184   4.273
56359SOL     OW70973   8.976  14.216  11.761
56359SOL    HW170974   9.020  14.248  11.839
56359SOL    HW270975   8.948  14.127  11.783
56360SOL     OW70976   0.071  10.207   6.335
56360SOL    HW170977   0.029  10.149   6.398
56360SOL    HW270978   0.147  10.158   6.305
56361SOL     OW70979  11.221   4.994  13.357
56361SOL    HW170980  11.265   5.057  13.414
56361SOL    HW270981  11.184   4.929  13.417
56362SOL     OW70982   5.958   5.844   7.753
56362SOL    HW170983   5.970   5.897   7.833
56362SOL    HW270984   5.921   5.762   7.785
56363SOL     OW70985   0.167  12.769   1.114
56363SOL    HW170986   0.140  12.678   1.123
56363SOL    HW270987   0.213  12.789   1.196
56364SOL     OW70988   7.320   0.941  12.234
56364SOL    HW170989   7.332   1.019  12.288
56364SOL    HW270990   7.383   0.878  12.267
56365SOL     OW70991  13.143   9.003  14.494
56365SOL    HW170992  13.170   9.048  14.574
56365SOL    HW270993  13.062   8.959  14.518
56366SOL     OW70994   1.566   6.450  14.779
56366SOL    HW170995   1.599   6.534  14.745
56366SOL    HW270996   1.488   6.473  14.828
56367SOL     OW70997   3.250  12.899  13.691
56367SOL    HW170998   3.194  12.938  13.758
56367SOL    HW270999   3.339  12.923  13.717
56368SOL     OW71000   7.236  10.816   3.499
56368SOL    HW171001   7.261  10.869   3.423
56368SOL    HW271002   7.275  10.730   3.482
56369SOL     OW71003   8.354   8.813   7.194
56369SOL    HW171004   8.444   8.817   7.162
56369SOL    HW271005   8.341   8.723   7.222
56370SOL     OW71006   8.551   5.848  12.081
56370SOL    HW171007   8.501   5.777  12.042
56370SOL    HW271008   8.490   5.892  12.140
56371SOL     OW71009   8.730   7.542   5.594
56371SOL    HW171010   8.656   7.526   5.653
56371SOL    HW271011   8.775   7.458   5.589
56372SOL     OW71012   3.765   1.202   7.286
56372SOL    HW171013   3.751   1.231   7.376
56372SOL    HW271014   3.854   1.165   7.287
56373SOL     OW71015  10.661   6.475   3.236
56373SOL    HW171016  10.730   6.517   3.185
56373SOL    HW271017  10.601   6.547   3.258
56374SOL     OW71018   8.328   3.281  14.244
56374SOL    HW171019   8.275   3.339  14.189
56374SOL    HW271020   8.395   3.247  14.185
56375SOL     OW71021   2.301   5.978   8.344
56375SOL    HW171022   2.278   5.970   8.251
56375SOL    HW271023   2.377   6.036   8.344
56376SOL     OW71024  10.526   8.179  13.976
56376SOL    HW171025  10.502   8.271  13.965
56376SOL    HW271026  10.607   8.169  13.927
56377SOL     OW71027   5.500   2.980  13.580
56377SOL    HW171028   5.439   3.050  13.555
56377SOL    HW271029   5.544   2.957  13.498
56378SOL     OW71030   9.987   8.209  10.647
56378SOL    HW171031  10.030   8.173  10.724
56378SOL    HW271032  10.042   8.283  10.621
56379SOL     OW71033   3.990   2.370   0.203
56379SOL    HW171034   4.055   2.439   0.220
56379SOL    HW271035   3.978   2.372   0.108
56380SOL     OW71036   4.312  14.870   9.490
56380SOL    HW171037   4.305  14.809   9.563
56380SOL    HW271038   4.297   0.081   9.528
56381SOL     OW71039  14.378   5.298   3.592
56381SOL    HW171040  14.286   5.325   3.598
56381SOL    HW271041  14.375   5.203   3.584
56382SOL     OW71042   5.774  13.132   4.176
56382SOL    HW171043   5.817  13.209   4.139
56382SOL    HW271044   5.681  13.146   4.159
56383SOL     OW71045   3.121   7.095   2.819
56383SOL    HW171046   3.116   7.189   2.839
56383SOL    HW271047   3.062   7.083   2.745
56384SOL     OW71048   5.747   8.999  12.607
56384SOL    HW171049   5.832   9.023  12.572
56384SOL    HW271050   5.749   9.028  12.698
56385SOL     OW71051  14.405   2.299   2.018
56385SOL    HW171052  14.498   2.318   2.028
56385SOL    HW271053  14.376   2.356   1.947
56386SOL     OW71054   0.625   3.932  13.661
56386SOL    HW171055   0.551   3.886  13.623
56386SOL    HW271056   0.641   3.888  13.745
56387SOL     OW71057  13.601   9.073   5.717
56387SOL    HW171058  13.637   9.107   5.798
56387SOL    HW271059  13.652   8.994   5.700
56388SOL     OW71060   7.683   1.292   1.947
56388SOL    HW171061   7.594   1.314   1.920
56388SOL    HW271062   7.672   1.215   2.003
56389SOL     OW71063   4.933   2.199   5.918
56389SOL    HW171064   4.879   2.124   5.944
56389SOL    HW271065   4.925   2.261   5.990
56390SOL     OW71066   3.086   2.010   7.481
56390SOL    HW171067   3.115   2.051   7.400
56390SOL    HW271068   3.147   1.936   7.494
56391SOL     OW71069   3.080   4.037   9.607
56391SOL    HW171070   3.064   3.944   9.621
56391SOL    HW271071   3.170   4.050   9.636
56392SOL     OW71072   5.965   6.749   1.396
56392SOL    HW171073   6.023   6.781   1.327
56392SOL    HW271074   5.893   6.812   1.398
56393SOL     OW71075   8.950   5.873  11.814
56393SOL    HW171076   8.908   5.928  11.748
56393SOL    HW271077   8.915   5.904  11.897
56394SOL     OW71078  12.876   4.244   9.300
56394SOL    HW171079  12.962   4.254   9.258
56394SOL    HW271080  12.894   4.197   9.381
56395SOL     OW71081   8.222   2.434  14.676
56395SOL    HW171082   8.299   2.479  14.641
56395SOL    HW271083   8.242   2.420  14.769
56396SOL     OW71084   0.057   5.648   6.262
56396SOL    HW171085   0.057   5.564   6.217
56396SOL    HW271086   0.102   5.707   6.202
56397SOL     OW71087  10.824  13.800   6.378
56397SOL    HW171088  10.897  13.769   6.432
56397SOL    HW271089  10.748  13.796   6.436
56398SOL     OW71090   8.735   4.150  12.999
56398SOL    HW171091   8.796   4.202  12.947
56398SOL    HW271092   8.697   4.089  12.937
56399SOL     OW71093   1.706  13.713  11.567
56399SOL    HW171094   1.713  13.727  11.473
56399SOL    HW271095   1.747  13.628  11.582
56400SOL     OW71096   4.822  13.448   7.496
56400SOL    HW171097   4.867  13.419   7.417
56400SOL    HW271098   4.730  13.427   7.480
56401SOL     OW71099   4.083   7.319  12.792
56401SOL    HW171100   4.122   7.278  12.869
56401SOL    HW271101   4.096   7.413  12.806
56402SOL     OW71102  12.442   8.148  14.300
56402SOL    HW171103  12.412   8.211  14.233
56402SOL    HW271104  12.529   8.179  14.324
56403SOL     OW71105  12.313   8.969  12.130
56403SOL    HW171106  12.407   8.985  12.117
56403SOL    HW271107  12.295   9.004  12.218
56404SOL     OW71108   5.249   1.218   1.126
56404SOL    HW171109   5.251   1.176   1.040
56404SOL    HW271110   5.309   1.292   1.118
56405SOL     OW71111   5.231   0.192   3.090
56405SOL    HW171112   5.322   0.191   3.059
56405SOL    HW271113   5.226   0.123   3.155
56406SOL     OW71114   6.831   8.693  11.718
56406SOL    HW171115   6.787   8.611  11.738
56406SOL    HW271116   6.774   8.760  11.756
56407SOL     OW71117  10.093  10.876   3.994
56407SOL    HW171118  10.140  10.853   3.913
56407SOL    HW271119  10.070  10.791   4.032
56408SOL     OW71120   1.593   7.064  13.996
56408SOL    HW171121   1.550   7.123  13.935
56408SOL    HW271122   1.607   7.116  14.075
56409SOL     OW71123   7.343  14.313   6.653
56409SOL    HW171124   7.288  14.255   6.707
56409SOL    HW271125   7.418  14.332   6.708
56410SOL     OW71126   4.020  10.408   7.112
56410SOL    HW171127   4.068  10.366   7.041
56410SOL    HW271128   4.067  10.490   7.128
56411SOL     OW71129   0.652   8.021  12.328
56411SOL    HW171130   0.684   7.966  12.256
56411SOL    HW271131   0.730   8.054  12.370
56412SOL     OW71132   9.997  12.731   2.486
56412SOL    HW171133  10.003  12.814   2.534
56412SOL    HW271134  10.035  12.750   2.400
56413SOL     OW71135   4.129   4.883   8.770
56413SOL    HW171136   4.105   4.902   8.860
56413SOL    HW271137   4.205   4.825   8.777
56414SOL     OW71138   4.602  12.617   5.921
56414SOL    HW171139   4.603  12.710   5.900
56414SOL    HW271140   4.680  12.582   5.878
56415SOL     OW71141   3.759   5.573   8.368
56415SOL    HW171142   3.745   5.651   8.421
56415SOL    HW271143   3.672   5.551   8.333
56416SOL     OW71144   2.188  11.674  12.079
56416SOL    HW171145   2.254  11.704  12.141
56416SOL    HW271146   2.136  11.752  12.061
56417SOL     OW71147   8.906  14.734   9.215
56417SOL    HW171148   8.815  14.709   9.233
56417SOL    HW271149   8.956  14.698   9.288
56418SOL     OW71150  13.056  12.404   3.138
56418SOL    HW171151  12.983  12.392   3.076
56418SOL    HW271152  13.051  12.497   3.162
56419SOL     OW71153   1.351   6.822   0.363
56419SOL    HW171154   1.369   6.733   0.394
56419SOL    HW271155   1.382   6.879   0.434
56420SOL     OW71156   2.224   8.430  11.989
56420SOL    HW171157   2.222   8.335  11.976
56420SOL    HW271158   2.132   8.456  11.988
56421SOL     OW71159   1.889   8.861  14.016
56421SOL    HW171160   1.929   8.835  13.933
56421SOL    HW271161   1.801   8.823  14.012
56422SOL     OW71162   3.375   6.247   3.631
56422SOL    HW171163   3.388   6.208   3.717
56422SOL    HW271164   3.336   6.177   3.578
56423SOL     OW71165   1.502   0.835   0.373
56423SOL    HW171166   1.430   0.898   0.382
56423SOL    HW271167   1.479   0.763   0.432
56424SOL     OW71168   0.423   8.840   5.573
56424SOL    HW171169   0.364   8.897   5.524
56424SOL    HW271170   0.508   8.851   5.531
56425SOL     OW71171  12.378  12.624   6.699
56425SOL    HW171172  12.381  12.625   6.795
56425SOL    HW271173  12.392  12.532   6.676
56426SOL     OW71174  10.552  11.792   4.690
56426SOL    HW171175  10.610  11.762   4.620
56426SOL    HW271176  10.609  11.809   4.764
56427SOL     OW71177  11.066   4.157   9.220
56427SOL    HW171178  11.046   4.163   9.313
56427SOL    HW271179  11.153   4.116   9.217
56428SOL     OW71180   6.348  12.515   4.281
56428SOL    HW171181   6.297  12.483   4.207
56428SOL    HW271182   6.412  12.575   4.243
56429SOL     OW71183  12.035   3.878   3.751
56429SOL    HW171184  12.089   3.873   3.673
56429SOL    HW271185  11.946   3.864   3.719
56430SOL     OW71186   8.935   2.746  11.638
56430SOL    HW171187   9.030   2.733  11.638
56430SOL    HW271188   8.899   2.657  11.637
56431SOL     OW71189  12.277   7.755   9.743
56431SOL    HW171190  12.241   7.844   9.748
56431SOL    HW271191  12.268   7.731   9.651
56432SOL     OW71192   3.827   6.429  12.191
56432SOL    HW171193   3.794   6.355  12.140
56432SOL    HW271194   3.752   6.489  12.198
56433SOL     OW71195  12.646  13.503   0.993
56433SOL    HW171196  12.671  13.481   0.904
56433SOL    HW271197  12.723  13.484   1.046
56434SOL     OW71198   5.655   9.729   0.337
56434SOL    HW171199   5.677   9.704   0.426
56434SOL    HW271200   5.591   9.799   0.346
56435SOL     OW71201  12.290   8.311  13.463
56435SOL    HW171202  12.338   8.382  13.421
56435SOL    HW271203  12.199   8.325  13.436
56436SOL     OW71204   5.821   9.701   0.112
56436SOL    HW171205   5.755   9.699   0.182
56436SOL    HW271206   5.805   9.783   0.067
56437SOL     OW71207   3.011   9.201   5.497
56437SOL    HW171208   2.937   9.194   5.437
56437SOL    HW271209   3.083   9.235   5.443
56438SOL     OW71210  13.139   5.496  10.911
56438SOL    HW171211  13.117   5.457  10.827
56438SOL    HW271212  13.136   5.590  10.895
56439SOL     OW71213  13.928   5.207   6.354
56439SOL    HW171214  13.914   5.114   6.369
56439SOL    HW271215  14.008   5.227   6.403
56440SOL     OW71216  11.860   3.619  12.231
56440SOL    HW171217  11.892   3.618  12.141
56440SOL    HW271218  11.832   3.529  12.248
56441SOL     OW71219  12.433   0.027   2.537
56441SOL    HW171220  12.393  14.815   2.547
56441SOL    HW271221  12.520   0.018   2.578
56442SOL     OW71222  13.160   2.593   3.480
56442SOL    HW171223  13.092   2.547   3.432
56442SOL    HW271224  13.236   2.591   3.423
56443SOL     OW71225   1.094   4.190   4.356
56443SOL    HW171226   1.123   4.152   4.439
56443SOL    HW271227   1.017   4.139   4.332
56444SOL     OW71228   6.870   7.855   3.391
56444SOL    HW171229   6.776   7.853   3.410
56444SOL    HW271230   6.907   7.790   3.450
56445SOL     OW71231   4.163   2.053  10.256
56445SOL    HW171232   4.188   1.980  10.199
56445SOL    HW271233   4.150   2.011  10.342
56446SOL     OW71234   5.556  10.359   9.050
56446SOL    HW171235   5.534  10.266   9.042
56446SOL    HW271236   5.640  10.368   9.005
56447SOL     OW71237   9.708   9.475   0.070
56447SOL    HW171238   9.667   9.534   0.006
56447SOL    HW271239   9.785   9.441   0.024
56448SOL     OW71240   7.512   4.701  10.659
56448SOL    HW171241   7.553   4.778  10.698
56448SOL    HW271242   7.543   4.628  10.712
56449SOL     OW71243   9.638   6.886  13.832
56449SOL    HW171244   9.634   6.797  13.867
56449SOL    HW271245   9.714   6.926  13.876
56450SOL     OW71246  12.240   4.913  14.061
56450SOL    HW171247  12.166   4.897  14.119
56450SOL    HW271248  12.317   4.909  14.118
56451SOL     OW71249   9.539   3.157   0.521
56451SOL    HW171250   9.473   3.145   0.453
56451SOL    HW271251   9.526   3.246   0.553
56452SOL     OW71252   2.032   1.506   8.194
56452SOL    HW171253   2.014   1.534   8.105
56452SOL    HW271254   2.075   1.581   8.235
56453SOL     OW71255  13.828  10.331   4.222
56453SOL    HW171256  13.906  10.310   4.274
56453SOL    HW271257  13.860  10.335   4.132
56454SOL     OW71258   6.421   5.321  10.886
56454SOL    HW171259   6.513   5.341  10.899
56454SOL    HW271260   6.419   5.228  10.864
56455SOL     OW71261   8.389  14.133   8.668
56455SOL    HW171262   8.324  14.192   8.708
56455SOL    HW271263   8.347  14.102   8.588
56456SOL     OW71264   6.700  14.152   7.385
56456SOL    HW171265   6.691  14.230   7.331
56456SOL    HW271266   6.629  14.158   7.449
56457SOL     OW71267  14.800   1.627   7.349
56457SOL    HW171268  14.747   1.547   7.350
56457SOL    HW271269  14.842   1.628   7.263
56458SOL     OW71270  11.243   3.554   4.173
56458SOL    HW171271  11.204   3.571   4.087
56458SOL    HW271272  11.326   3.603   4.172
56459SOL     OW71273   5.770  11.410   9.227
56459SOL    HW171274   5.792  11.501   9.207
56459SOL    HW271275   5.767  11.367   9.142
56460SOL     OW71276  13.673   9.925   6.059
56460SOL    HW171277  13.722   9.900   5.981
56460SOL    HW271278  13.705  10.013   6.080
56461SOL     OW71279   5.379   2.148   4.242
56461SOL    HW171280   5.423   2.079   4.291
56461SOL    HW271281   5.288   2.144   4.272
56462SOL     OW71282   5.952   5.423  11.953
56462SOL    HW171283   5.967   5.462  11.866
56462SOL    HW271284   6.017   5.353  11.959
56463SOL     OW71285   6.715  14.416   4.571
56463SOL    HW171286   6.640  14.441   4.626
56463SOL    HW271287   6.696  14.326   4.546
56464SOL     OW71288   2.603   6.617   2.837
56464SOL    HW171289   2.546   6.591   2.764
56464SOL    HW271290   2.680   6.656   2.794
56465SOL     OW71291   2.791  13.385   8.252
56465SOL    HW171292   2.740  13.305   8.261
56465SOL    HW271293   2.766  13.420   8.167
56466SOL     OW71294  13.076   6.576   0.733
56466SOL    HW171295  13.089   6.668   0.756
56466SOL    HW271296  13.144   6.529   0.781
56467SOL     OW71297  13.272   0.279  13.009
56467SOL    HW171298  13.230   0.352  12.962
56467SOL    HW271299  13.325   0.321  13.077
56468SOL     OW71300  11.029   3.736   3.017
56468SOL    HW171301  10.980   3.725   2.935
56468SOL    HW271302  10.977   3.799   3.067
56469SOL     OW71303  14.354   1.168  12.677
56469SOL    HW171304  14.419   1.219  12.726
56469SOL    HW271305  14.271   1.186  12.721
56470SOL     OW71306  10.780   3.385   1.120
56470SOL    HW171307  10.810   3.436   1.045
56470SOL    HW271308  10.738   3.308   1.082
56471SOL     OW71309   6.550   5.497   4.922
56471SOL    HW171310   6.595   5.552   4.858
56471SOL    HW271311   6.571   5.536   5.007
56472SOL     OW71312  10.195  12.525   6.967
56472SOL    HW171313  10.226  12.565   6.886
56472SOL    HW271314  10.100  12.525   6.959
56473SOL     OW71315  13.328   5.723  10.732
56473SOL    HW171316  13.407   5.676  10.758
56473SOL    HW271317  13.277   5.658  10.683
56474SOL     OW71318   1.295  14.209   6.009
56474SOL    HW171319   1.313  14.127   5.964
56474SOL    HW271320   1.327  14.196   6.098
56475SOL     OW71321   9.399   9.158   1.898
56475SOL    HW171322   9.404   9.066   1.924
56475SOL    HW271323   9.482   9.196   1.926
56476SOL     OW71324   4.326   4.521   7.346
56476SOL    HW171325   4.276   4.450   7.385
56476SOL    HW271326   4.409   4.521   7.394
56477SOL     OW71327   4.511  14.637   2.472
56477SOL    HW171328   4.501  14.703   2.403
56477SOL    HW271329   4.526  14.555   2.425
56478SOL     OW71330   5.900   3.078   4.308
56478SOL    HW171331   5.849   3.004   4.273
56478SOL    HW271332   5.968   3.093   4.243
56479SOL     OW71333  10.030   0.689   3.507
56479SOL    HW171334  10.013   0.708   3.599
56479SOL    HW271335  10.108   0.740   3.486
56480SOL     OW71336   0.842   7.462   8.780
56480SOL    HW171337   0.774   7.473   8.846
56480SOL    HW271338   0.834   7.371   8.752
56481SOL     OW71339   0.594  12.343  14.785
56481SOL    HW171340   0.600  12.436  14.765
56481SOL    HW271341   0.685  12.316  14.801
56482SOL     OW71342   1.051   8.624  13.944
56482SOL    HW171343   1.114   8.678  13.992
56482SOL    HW271344   0.990   8.593  14.011
56483SOL     OW71345  12.837   9.806  12.572
56483SOL    HW171346  12.781   9.730  12.587
56483SOL    HW271347  12.808   9.870  12.637
56484SOL     OW71348  14.694  10.220   0.850
56484SOL    HW171349  14.714  10.296   0.905
56484SOL    HW271350  14.614  10.183   0.886
56485SOL     OW71351   1.387   4.853   3.823
56485SOL    HW171352   1.434   4.929   3.791
56485SOL    HW271353   1.298   4.865   3.789
56486SOL     OW71354  11.293   5.035  14.254
56486SOL    HW171355  11.232   4.987  14.310
56486SOL    HW271356  11.376   4.989  14.265
56487SOL     OW71357   7.745  14.775   1.415
56487SOL    HW171358   7.731  14.742   1.326
56487SOL    HW271359   7.685  14.850   1.422
56488SOL     OW71360   6.346   2.884   8.004
56488SOL    HW171361   6.324   2.971   7.972
56488SOL    HW271362   6.267   2.854   8.050
56489SOL     OW71363   5.569  11.370   7.034
56489SOL    HW171364   5.599  11.284   7.007
56489SOL    HW271365   5.608  11.431   6.971
56490SOL     OW71366   5.878  10.691  13.977
56490SOL    HW171367   5.839  10.777  13.993
56490SOL    HW271368   5.811  10.643  13.928
56491SOL     OW71369   2.459   6.571  13.840
56491SOL    HW171370   2.553   6.563  13.825
56491SOL    HW271371   2.438   6.659  13.811
56492SOL     OW71372   5.734   4.754   9.072
56492SOL    HW171373   5.753   4.679   9.016
56492SOL    HW271374   5.766   4.728   9.158
56493SOL     OW71375   0.467   0.700   1.929
56493SOL    HW171376   0.495   0.634   1.993
56493SOL    HW271377   0.372   0.692   1.926
56494SOL     OW71378   2.869   2.341  14.713
56494SOL    HW171379   2.906   2.426  14.692
56494SOL    HW271380   2.872   2.292  14.631
56495SOL     OW71381  14.560  11.536   8.537
56495SOL    HW171382  14.627  11.603   8.542
56495SOL    HW271383  14.477  11.583   8.546
56496SOL     OW71384  12.155   4.071   2.093
56496SOL    HW171385  12.154   3.979   2.120
56496SOL    HW271386  12.141   4.120   2.174
56497SOL     OW71387  14.682   5.795   4.130
56497SOL    HW171388  14.639   5.808   4.215
56497SOL    HW271389  14.612   5.763   4.072
56498SOL     OW71390   5.423   0.141   7.653
56498SOL    HW171391   5.416   0.206   7.723
56498SOL    HW271392   5.371   0.177   7.582
56499SOL     OW71393   2.606   3.268   4.464
56499SOL    HW171394   2.589   3.341   4.404
56499SOL    HW271395   2.693   3.286   4.501
56500SOL     OW71396   2.389   8.444  12.274
56500SOL    HW171397   2.391   8.538  12.260
56500SOL    HW271398   2.378   8.407  12.186
56501SOL     OW71399   5.774   7.304   2.034
56501SOL    HW171400   5.819   7.382   2.068
56501SOL    HW271401   5.820   7.231   2.075
56502SOL     OW71402   7.074   1.321  13.909
56502SOL    HW171403   7.061   1.261  13.983
56502SOL    HW271404   7.121   1.270  13.844
56503SOL     OW71405   8.030   9.307  14.286
56503SOL    HW171406   8.038   9.352  14.370
56503SOL    HW271407   8.116   9.319  14.245
56504SOL     OW71408  13.734   2.522  10.321
56504SOL    HW171409  13.814   2.471  10.330
56504SOL    HW271410  13.753   2.605  10.366
56505SOL     OW71411   7.663  12.272   6.627
56505SOL    HW171412   7.635  12.306   6.541
56505SOL    HW271413   7.715  12.343   6.665
56506SOL     OW71414  13.567  11.030   4.140
56506SOL    HW171415  13.655  10.997   4.127
56506SOL    HW271416  13.513  10.951   4.147
56507SOL     OW71417   2.890  11.808  11.789
56507SOL    HW171418   2.925  11.821  11.701
56507SOL    HW271419   2.932  11.875  11.842
56508SOL     OW71420  10.625   4.601   3.118
56508SOL    HW171421  10.698   4.615   3.057
56508SOL    HW271422  10.666   4.568   3.198
56509SOL     OW71423   1.875  10.538  14.431
56509SOL    HW171424   1.955  10.575  14.468
56509SOL    HW271425   1.892  10.533  14.337
56510SOL     OW71426  14.408   0.217  10.891
56510SOL    HW171427  14.468   0.290  10.878
56510SOL    HW271428  14.358   0.211  10.810
56511SOL     OW71429   8.768  13.668   2.125
56511SOL    HW171430   8.824  13.595   2.102
56511SOL    HW271431   8.722  13.690   2.044
56512SOL     OW71432   6.795  13.205   7.644
56512SOL    HW171433   6.742  13.175   7.570
56512SOL    HW271434   6.885  13.203   7.612
56513SOL     OW71435   8.114   2.666   1.623
56513SOL    HW171436   8.091   2.598   1.687
56513SOL    HW271437   8.162   2.620   1.555
56514SOL     OW71438  10.460   4.258  10.574
56514SOL    HW171439  10.396   4.190  10.553
56514SOL    HW271440  10.425   4.337  10.531
56515SOL     OW71441  10.396  14.825  14.773
56515SOL    HW171442  10.441  14.741  14.764
56515SOL    HW271443  10.370  14.828  14.866
56516SOL     OW71444   3.108   4.109  11.169
56516SOL    HW171445   3.107   4.114  11.073
56516SOL    HW271446   3.169   4.178  11.195
56517SOL     OW71447   3.770   5.132   6.034
56517SOL    HW171448   3.768   5.153   5.941
56517SOL    HW271449   3.689   5.082   6.049
56518SOL     OW71450   3.871   0.681   8.232
56518SOL    HW171451   3.931   0.636   8.291
56518SOL    HW271452   3.911   0.766   8.215
56519SOL     OW71453  13.218   6.212   0.293
56519SOL    HW171454  13.151   6.269   0.330
56519SOL    HW271455  13.226   6.240   0.202
56520SOL     OW71456   7.001   8.747  13.896
56520SOL    HW171457   6.917   8.751  13.851
56520SOL    HW271458   6.978   8.741  13.989
56521SOL     OW71459   6.316  14.222  11.023
56521SOL    HW171460   6.365  14.236  10.943
56521SOL    HW271461   6.232  14.186  10.994
56522SOL     OW71462   4.551   8.887   4.410
56522SOL    HW171463   4.538   8.876   4.505
56522SOL    HW271464   4.569   8.799   4.378
56523SOL     OW71465   9.347  11.860   1.091
56523SOL    HW171466   9.367  11.768   1.075
56523SOL    HW271467   9.371  11.905   1.010
56524SOL     OW71468   5.897   0.252   5.143
56524SOL    HW171469   5.838   0.181   5.118
56524SOL    HW271470   5.951   0.213   5.213
56525SOL     OW71471   1.033   2.733   2.761
56525SOL    HW171472   1.077   2.679   2.696
56525SOL    HW271473   0.966   2.677   2.799
56526SOL     OW71474   7.060   7.904   1.371
56526SOL    HW171475   6.982   7.957   1.353
56526SOL    HW271476   7.028   7.832   1.425
56527SOL     OW71477   0.537   8.801  10.686
56527SOL    HW171478   0.591   8.854  10.628
56527SOL    HW271479   0.550   8.839  10.773
56528SOL     OW71480  14.449   9.724   1.807
56528SOL    HW171481  14.454   9.729   1.903
56528SOL    HW271482  14.528   9.770   1.777
56529SOL     OW71483  11.608   2.051   6.350
56529SOL    HW171484  11.608   2.047   6.446
56529SOL    HW271485  11.662   1.977   6.323
56530SOL     OW71486   8.022   1.908  11.980
56530SOL    HW171487   8.105   1.936  12.018
56530SOL    HW271488   8.028   1.931  11.887
56531SOL     OW71489   4.638   9.208   8.167
56531SOL    HW171490   4.728   9.227   8.193
56531SOL    HW271491   4.608   9.144   8.231
56532SOL     OW71492  10.475   8.924  13.653
56532SOL    HW171493  10.434   8.961  13.731
56532SOL    HW271494  10.479   8.830  13.670
56533SOL     OW71495   4.480   9.104   1.692
56533SOL    HW171496   4.566   9.130   1.722
56533SOL    HW271497   4.494   9.019   1.649
56534SOL     OW71498   7.333  13.281   8.296
56534SOL    HW171499   7.335  13.316   8.385
56534SOL    HW271500   7.411  13.317   8.254
56535SOL     OW71501   6.617  12.945   1.922
56535SOL    HW171502   6.595  12.919   2.012
56535SOL    HW271503   6.711  12.964   1.926
56536SOL     OW71504   2.860   4.481   3.892
56536SOL    HW171505   2.873   4.524   3.808
56536SOL    HW271506   2.768   4.496   3.913
56537SOL     OW71507   0.210   8.450  13.237
56537SOL    HW171508   0.238   8.385  13.301
56537SOL    HW271509   0.285   8.463  13.180
56538SOL     OW71510   8.712   4.132   7.219
56538SOL    HW171511   8.676   4.220   7.224
56538SOL    HW271512   8.762   4.130   7.137
56539SOL     OW71513   9.850   3.151   8.365
56539SOL    HW171514   9.883   3.241   8.368
56539SOL    HW271515   9.859   3.125   8.274
56540SOL     OW71516   6.970   4.214  10.418
56540SOL    HW171517   6.889   4.240  10.463
56540SOL    HW271518   7.009   4.296  10.388
56541SOL     OW71519   9.606   3.650   9.182
56541SOL    HW171520   9.562   3.681   9.261
56541SOL    HW271521   9.607   3.555   9.191
56542SOL     OW71522   3.040  14.153  11.674
56542SOL    HW171523   2.979  14.219  11.641
56542SOL    HW271524   3.014  14.072  11.631
56543SOL     OW71525  14.404  10.064  11.208
56543SOL    HW171526  14.350  10.142  11.220
56543SOL    HW271527  14.366   9.999  11.267
56544SOL     OW71528   9.609   4.013   1.040
56544SOL    HW171529   9.613   4.103   1.073
56544SOL    HW271530   9.605   4.022   0.945
56545SOL     OW71531   1.223   9.219  11.197
56545SOL    HW171532   1.273   9.296  11.224
56545SOL    HW271533   1.209   9.230  11.103
56546SOL     OW71534   1.543   7.661   7.965
56546SOL    HW171535   1.508   7.573   7.949
56546SOL    HW271536   1.625   7.646   8.013
56547SOL     OW71537   0.134   7.580  14.499
56547SOL    HW171538   0.202   7.646  14.512
56547SOL    HW271539   0.052   7.627  14.518
56548SOL     OW71540  12.312   1.620   1.170
56548SOL    HW171541  12.224   1.644   1.141
56548SOL    HW271542  12.323   1.666   1.253
56549SOL     OW71543   6.963   2.893   7.255
56549SOL    HW171544   7.033   2.941   7.210
56549SOL    HW271545   6.894   2.958   7.269
56550SOL     OW71546   7.931   9.564   8.895
56550SOL    HW171547   7.872   9.532   8.963
56550SOL    HW271548   7.891   9.645   8.865
56551SOL     OW71549   7.170   0.893   0.693
56551SOL    HW171550   7.099   0.829   0.695
56551SOL    HW271551   7.162   0.941   0.776
56552SOL     OW71552  13.458   7.407  12.932
56552SOL    HW171553  13.515   7.484  12.927
56552SOL    HW271554  13.415   7.404  12.846
56553SOL     OW71555  10.412   6.704   5.614
56553SOL    HW171556  10.483   6.769   5.624
56553SOL    HW271557  10.420   6.675   5.523
56554SOL     OW71558   5.706   1.729   7.021
56554SOL    HW171559   5.641   1.661   7.036
56554SOL    HW271560   5.672   1.805   7.069
56555SOL     OW71561  14.844   7.720  11.661
56555SOL    HW171562   0.025   7.720  11.738
56555SOL    HW271563  14.755   7.708  11.695
56556SOL     OW71564   7.416   4.613  13.103
56556SOL    HW171565   7.402   4.557  13.179
56556SOL    HW271566   7.385   4.562  13.028
56557SOL     OW71567   7.108   7.655   8.961
56557SOL    HW171568   7.075   7.565   8.956
56557SOL    HW271569   7.142   7.663   9.050
56558SOL     OW71570   0.542   3.971   2.739
56558SOL    HW171571   0.612   3.906   2.734
56558SOL    HW271572   0.478   3.933   2.800
56559SOL     OW71573  11.043  11.391   7.509
56559SOL    HW171574  11.064  11.305   7.473
56559SOL    HW271575  11.016  11.374   7.599
56560SOL     OW71576   2.272  14.336   3.300
56560SOL    HW171577   2.265  14.360   3.392
56560SOL    HW271578   2.182  14.333   3.269
56561SOL     OW71579  13.429   9.908   8.335
56561SOL    HW171580  13.374   9.983   8.313
56561SOL    HW271581  13.482   9.893   8.257
56562SOL     OW71582   8.059  10.884   0.275
56562SOL    HW171583   8.093  10.814   0.331
56562SOL    HW271584   7.970  10.857   0.255
56563SOL     OW71585   7.195  12.219   5.400
56563SOL    HW171586   7.276  12.252   5.438
56563SOL    HW271587   7.179  12.277   5.325
56564SOL     OW71588   8.198   5.943   3.192
56564SOL    HW171589   8.271   5.912   3.247
56564SOL    HW271590   8.239   6.002   3.129
56565SOL     OW71591   7.769   0.812   3.367
56565SOL    HW171592   7.712   0.737   3.377
56565SOL    HW271593   7.837   0.783   3.306
56566SOL     OW71594   5.522   9.325   9.027
56566SOL    HW171595   5.513   9.420   9.023
56566SOL    HW271596   5.523   9.305   9.121
56567SOL     OW71597   0.031  12.675   8.509
56567SOL    HW171598   0.025  12.761   8.550
56567SOL    HW271599   0.114  12.639   8.543
56568SOL     OW71600   1.304  14.305  14.770
56568SOL    HW171601   1.275  14.245  14.702
56568SOL    HW271602   1.395  14.325  14.748
56569SOL     OW71603   8.604   9.713  10.249
56569SOL    HW171604   8.686   9.733  10.203
56569SOL    HW271605   8.540   9.700  10.179
56570SOL     OW71606   5.405  14.137  10.366
56570SOL    HW171607   5.463  14.108  10.437
56570SOL    HW271608   5.321  14.097  10.386
56571SOL     OW71609   9.653   6.294   5.588
56571SOL    HW171610   9.628   6.356   5.519
56571SOL    HW271611   9.706   6.346   5.648
56572SOL     OW71612   7.121  14.151   1.823
56572SOL    HW171613   7.030  14.179   1.832
56572SOL    HW271614   7.166  14.227   1.788
56573SOL     OW71615  12.530   1.296   5.078
56573SOL    HW171616  12.494   1.385   5.077
56573SOL    HW271617  12.601   1.300   5.142
56574SOL     OW71618  11.836   1.397  13.341
56574SOL    HW171619  11.741   1.390  13.336
56574SOL    HW271620  11.867   1.371  13.254
56575SOL     OW71621  12.601   4.099   8.136
56575SOL    HW171622  12.636   4.013   8.157
56575SOL    HW271623  12.529   4.082   8.075
56576SOL     OW71624  14.725   0.480  11.530
56576SOL    HW171625  14.658   0.459  11.465
56576SOL    HW271626  14.724   0.575  11.536
56577SOL     OW71627   7.310  12.187  10.100
56577SOL    HW171628   7.272  12.214  10.016
56577SOL    HW271629   7.249  12.219  10.166
56578SOL     OW71630  12.376   6.124  13.960
56578SOL    HW171631  12.401   6.215  13.945
56578SOL    HW271632  12.325   6.126  14.041
56579SOL     OW71633   4.816   8.165   2.893
56579SOL    HW171634   4.753   8.228   2.858
56579SOL    HW271635   4.765   8.084   2.906
56580SOL     OW71636   4.709   9.732  11.372
56580SOL    HW171637   4.637   9.728  11.435
56580SOL    HW271638   4.785   9.701  11.421
56581SOL     OW71639  14.543   1.154   4.186
56581SOL    HW171640  14.493   1.076   4.163
56581SOL    HW271641  14.583   1.183   4.104
56582SOL     OW71642   0.450  13.906   4.544
56582SOL    HW171643   0.396  13.926   4.467
56582SOL    HW271644   0.460  13.990   4.589
56583SOL     OW71645   1.550  10.387   4.938
56583SOL    HW171646   1.584  10.450   5.001
56583SOL    HW271647   1.527  10.439   4.861
56584SOL     OW71648   0.515   9.351   5.298
56584SOL    HW171649   0.453   9.278   5.297
56584SOL    HW271650   0.572   9.333   5.372
56585SOL     OW71651  12.345   4.993   1.259
56585SOL    HW171652  12.335   4.930   1.188
56585SOL    HW271653  12.398   4.947   1.324
56586SOL     OW71654   4.529  10.677  10.661
56586SOL    HW171655   4.570  10.718  10.737
56586SOL    HW271656   4.515  10.586  10.687
56587SOL     OW71657   1.678  11.551  10.605
56587SOL    HW171658   1.760  11.599  10.618
56587SOL    HW271659   1.612  11.604  10.650
56588SOL     OW71660  10.746  14.287  12.188
56588SOL    HW171661  10.781  14.284  12.099
56588SOL    HW271662  10.821  14.271  12.244
56589SOL     OW71663   9.171   0.018   9.565
56589SOL    HW171664   9.180  14.815   9.620
56589SOL    HW271665   9.161   0.090   9.626
56590SOL     OW71666  10.673  14.821   5.812
56590SOL    HW171667  10.650  14.736   5.851
56590SOL    HW271668  10.758  14.842   5.850
56591SOL     OW71669   2.037   5.759   6.173
56591SOL    HW171670   2.087   5.841   6.177
56591SOL    HW271671   2.087   5.703   6.115
56592SOL     OW71672   6.595  11.844   7.197
56592SOL    HW171673   6.663  11.777   7.193
56592SOL    HW271674   6.513  11.796   7.190
56593SOL     OW71675   5.465   0.836   6.189
56593SOL    HW171676   5.406   0.905   6.220
56593SOL    HW271677   5.456   0.766   6.254
56594SOL     OW71678   2.134   6.941  11.772
56594SOL    HW171679   2.176   6.856  11.786
56594SOL    HW271680   2.201   6.994  11.728
56595SOL     OW71681   0.962  13.697   8.015
56595SOL    HW171682   1.053  13.696   7.986
56595SOL    HW271683   0.940  13.604   8.025
56596SOL     OW71684  14.000  13.385   1.022
56596SOL    HW171685  13.939  13.396   1.095
56596SOL    HW271686  14.086  13.392   1.062
56597SOL     OW71687  10.913   3.977  11.219
56597SOL    HW171688  10.965   3.957  11.297
56597SOL    HW271689  10.926   4.071  11.205
56598SOL     OW71690   6.315   3.626  13.499
56598SOL    HW171691   6.225   3.650  13.479
56598SOL    HW271692   6.366   3.704  13.478
56599SOL     OW71693   9.962   0.046   0.587
56599SOL    HW171694  10.008   0.116   0.542
56599SOL    HW271695   9.877   0.084   0.609
56600SOL     OW71696  13.473   2.388   8.711
56600SOL    HW171697  13.518   2.472   8.715
56600SOL    HW271698  13.481   2.352   8.799
56601SOL     OW71699  13.105  10.087  11.246
56601SOL    HW171700  13.018  10.127  11.255
56601SOL    HW271701  13.165  10.161  11.239
56602SOL     OW71702  10.339  11.048  13.762
56602SOL    HW171703  10.308  11.129  13.721
56602SOL    HW271704  10.259  10.999  13.781
56603SOL     OW71705   0.197   9.334   1.134
56603SOL    HW171706   0.259   9.312   1.064
56603SOL    HW271707   0.170   9.249   1.169
56604SOL     OW71708  13.590  10.484  13.664
56604SOL    HW171709  13.537  10.409  13.688
56604SOL    HW271710  13.660  10.447  13.609
56605SOL     OW71711  11.351   9.570   3.801
56605SOL    HW171712  11.343   9.493   3.744
56605SOL    HW271713  11.261   9.600   3.813
56606SOL     OW71714   2.022   7.114   2.538
56606SOL    HW171715   2.054   7.026   2.558
56606SOL    HW271716   2.082   7.172   2.586
56607SOL     OW71717  13.723  11.574  12.622
56607SOL    HW171718  13.707  11.666  12.600
56607SOL    HW271719  13.665  11.556  12.696
56608SOL     OW71720   5.077   4.306  10.062
56608SOL    HW171721   5.002   4.246  10.056
56608SOL    HW271722   5.117   4.285  10.146
56609SOL     OW71723   8.627   7.572  13.473
56609SOL    HW171724   8.573   7.650  13.486
56609SOL    HW271725   8.696   7.579  13.539
56610SOL     OW71726   7.055   5.679   9.437
56610SOL    HW171727   7.028   5.590   9.459
56610SOL    HW271728   7.146   5.670   9.409
56611SOL     OW71729  13.089  13.596  12.692
56611SOL    HW171730  13.148  13.522  12.704
56611SOL    HW271731  13.130  13.668  12.741
56612SOL     OW71732  11.441   2.668   2.588
56612SOL    HW171733  11.514   2.691   2.531
56612SOL    HW271734  11.481   2.614   2.657
56613SOL     OW71735  12.985   6.291   2.840
56613SOL    HW171736  13.054   6.326   2.783
56613SOL    HW271737  12.961   6.364   2.897
56614SOL     OW71738   2.308   5.918  13.668
56614SOL    HW171739   2.355   6.000  13.673
56614SOL    HW271740   2.311   5.893  13.576
56615SOL     OW71741   6.318  11.240   7.145
56615SOL    HW171742   6.241  11.183   7.144
56615SOL    HW271743   6.377  11.199   7.209
56616SOL     OW71744  11.018   9.968  13.190
56616SOL    HW171745  11.015   9.997  13.281
56616SOL    HW271746  10.964   9.889  13.188
56617SOL     OW71747   6.973   1.757  14.172
56617SOL    HW171748   6.898   1.697  14.172
56617SOL    HW271749   7.036   1.716  14.113
56618SOL     OW71750   3.451   8.240  13.443
56618SOL    HW171751   3.542   8.218  13.424
56618SOL    HW271752   3.402   8.211  13.366
56619SOL     OW71753   7.124   5.997   7.022
56619SOL    HW171754   7.137   6.064   7.090
56619SOL    HW271755   7.205   6.000   6.971
56620SOL     OW71756   4.915  12.029   7.069
56620SOL    HW171757   4.950  11.961   7.011
56620SOL    HW271758   4.823  12.035   7.046
56621SOL     OW71759  12.979  13.628   2.314
56621SOL    HW171760  12.908  13.633   2.377
56621SOL    HW271761  12.991  13.718   2.283
56622SOL     OW71762   2.453   8.332   9.218
56622SOL    HW171763   2.419   8.270   9.282
56622SOL    HW271764   2.501   8.278   9.155
56623SOL     OW71765   1.814  10.436  11.206
56623SOL    HW171766   1.719  10.447  11.208
56623SOL    HW271767   1.847  10.519  11.172
56624SOL     OW71768  12.827   8.529   5.424
56624SOL    HW171769  12.792   8.559   5.508
56624SOL    HW271770  12.859   8.608   5.382
56625SOL     OW71771   7.550  14.277   2.712
56625SOL    HW171772   7.598  14.351   2.676
56625SOL    HW271773   7.491  14.316   2.777
56626SOL     OW71774   1.993   8.012   5.089
56626SOL    HW171775   1.905   8.008   5.052
56626SOL    HW271776   1.983   8.064   5.169
56627SOL     OW71777   2.933   2.903   4.541
56627SOL    HW171778   2.939   2.938   4.452
56627SOL    HW271779   2.851   2.853   4.542
56628SOL     OW71780   1.292   1.669  10.441
56628SOL    HW171781   1.225   1.610  10.404
56628SOL    HW271782   1.256   1.695  10.525
56629SOL     OW71783   8.436  10.823   2.608
56629SOL    HW171784   8.378  10.871   2.667
56629SOL    HW271785   8.383  10.751   2.574
56630SOL     OW71786   1.478   7.746   8.268
56630SOL    HW171787   1.446   7.721   8.181
56630SOL    HW271788   1.406   7.796   8.307
56631SOL     OW71789  10.997   1.766  10.360
56631SOL    HW171790  11.041   1.705  10.302
56631SOL    HW271791  10.943   1.711  10.416
56632SOL     OW71792  13.754   6.223  14.580
56632SOL    HW171793  13.707   6.305  14.565
56632SOL    HW271794  13.846   6.246  14.569
56633SOL     OW71795  12.414   9.158  12.598
56633SOL    HW171796  12.377   9.173  12.685
56633SOL    HW271797  12.344   9.114  12.550
56634SOL     OW71798   0.844   3.515   4.075
56634SOL    HW171799   0.824   3.430   4.035
56634SOL    HW271800   0.784   3.576   4.032
56635SOL     OW71801   5.490   8.521   9.261
56635SOL    HW171802   5.487   8.540   9.167
56635SOL    HW271803   5.412   8.467   9.277
56636SOL     OW71804   2.587   2.371   9.453
56636SOL    HW171805   2.584   2.331   9.540
56636SOL    HW271806   2.550   2.458   9.465
56637SOL     OW71807  13.871   7.333  12.181
56637SOL    HW171808  13.885   7.339  12.276
56637SOL    HW271809  13.942   7.386  12.143
56638SOL     OW71810   7.298   9.331   4.155
56638SOL    HW171811   7.305   9.238   4.173
56638SOL    HW271812   7.331   9.342   4.066
56639SOL     OW71813   1.104  10.964   6.472
56639SOL    HW171814   1.069  10.912   6.399
56639SOL    HW271815   1.194  10.985   6.446
56640SOL     OW71816   9.017  12.037   8.591
56640SOL    HW171817   9.107  12.064   8.571
56640SOL    HW271818   8.970  12.048   8.509
56641SOL     OW71819   9.841  14.741   5.407
56641SOL    HW171820   9.878  14.661   5.371
56641SOL    HW271821   9.912  14.806   5.400
56642SOL     OW71822   1.485   0.130   7.017
56642SOL    HW171823   1.537   0.207   6.994
56642SOL    HW271824   1.402   0.143   6.971
56643SOL     OW71825   8.597  14.192   9.790
56643SOL    HW171826   8.654  14.125   9.828
56643SOL    HW271827   8.519  14.144   9.764
56644SOL     OW71828   7.085   7.833   4.739
56644SOL    HW171829   6.996   7.812   4.709
56644SOL    HW271830   7.072   7.876   4.823
56645SOL     OW71831  14.594   4.647   7.922
56645SOL    HW171832  14.594   4.552   7.906
56645SOL    HW271833  14.533   4.682   7.857
56646SOL     OW71834   4.114   0.517   9.449
56646SOL    HW171835   4.107   0.560   9.534
56646SOL    HW271836   4.072   0.577   9.388
56647SOL     OW71837   2.149   7.425   2.637
56647SOL    HW171838   2.206   7.351   2.657
56647SOL    HW271839   2.197   7.474   2.570
56648SOL     OW71840   2.050   1.429   7.445
56648SOL    HW171841   1.999   1.473   7.513
56648SOL    HW271842   2.028   1.476   7.364
56649SOL     OW71843  10.912  12.150   4.399
56649SOL    HW171844  10.838  12.092   4.386
56649SOL    HW271845  10.980  12.094   4.435
56650SOL     OW71846  11.587   6.675  10.817
56650SOL    HW171847  11.622   6.755  10.777
56650SOL    HW271848  11.617   6.604  10.759
56651SOL     OW71849  10.291   7.465   6.280
56651SOL    HW171850  10.372   7.459   6.229
56651SOL    HW271851  10.224   7.427   6.222
56652SOL     OW71852   6.401   7.538  11.625
56652SOL    HW171853   6.477   7.585  11.661
56652SOL    HW271854   6.349   7.607  11.583
56653SOL     OW71855  14.564  11.320   9.365
56653SOL    HW171856  14.503  11.300   9.294
56653SOL    HW271857  14.564  11.416   9.370
56654SOL     OW71858  14.055  12.309   6.800
56654SOL    HW171859  14.092  12.343   6.881
56654SOL    HW271860  14.097  12.360   6.731
56655SOL     OW71861   9.629   2.896   7.436
56655SOL    HW171862   9.638   2.907   7.341
56655SOL    HW271863   9.659   2.979   7.472
56656SOL     OW71864   2.715   5.839  11.584
56656SOL    HW171865   2.799   5.837  11.630
56656SOL    HW271866   2.721   5.915  11.526
56657SOL     OW71867  10.974   4.346   5.993
56657SOL    HW171868  11.064   4.329   5.968
56657SOL    HW271869  10.923   4.329   5.914
56658SOL     OW71870  13.841   6.096   4.421
56658SOL    HW171871  13.827   6.039   4.345
56658SOL    HW271872  13.859   6.182   4.383
56659SOL     OW71873   2.544   4.816   2.748
56659SOL    HW171874   2.571   4.902   2.718
56659SOL    HW271875   2.623   4.778   2.785
56660SOL     OW71876  13.557   5.006   1.774
56660SOL    HW171877  13.596   5.093   1.777
56660SOL    HW271878  13.629   4.948   1.751
56661SOL     OW71879   9.791   0.015   8.872
56661SOL    HW171880   9.794  14.803   8.833
56661SOL    HW271881   9.730   0.064   8.816
56662SOL     OW71882   7.582  14.165  14.198
56662SOL    HW171883   7.612  14.191  14.285
56662SOL    HW271884   7.520  14.093  14.215
56663SOL     OW71885  13.980   6.286   6.205
56663SOL    HW171886  13.982   6.360   6.266
56663SOL    HW271887  14.057   6.298   6.150
56664SOL     OW71888   4.368   2.566   5.815
56664SOL    HW171889   4.437   2.630   5.796
56664SOL    HW271890   4.366   2.510   5.738
56665SOL     OW71891  12.435   1.889   8.582
56665SOL    HW171892  12.441   1.848   8.496
56665SOL    HW271893  12.476   1.826   8.642
56666SOL     OW71894   1.837   9.491   0.091
56666SOL    HW171895   1.769   9.428   0.114
56666SOL    HW271896   1.891   9.445   0.027
56667SOL     OW71897   6.257   9.864   7.881
56667SOL    HW171898   6.195   9.932   7.907
56667SOL    HW271899   6.341   9.891   7.918
56668SOL     OW71900   1.099   3.951   2.344
56668SOL    HW171901   1.176   3.895   2.332
56668SOL    HW271902   1.128   4.037   2.313
56669SOL     OW71903   7.574  13.631   6.494
56669SOL    HW171904   7.625  13.675   6.561
56669SOL    HW271905   7.483  13.649   6.518
56670SOL     OW71906   3.992   7.977   4.927
56670SOL    HW171907   3.946   7.899   4.895
56670SOL    HW271908   4.076   7.976   4.880
56671SOL     OW71909   0.176   9.091  10.271
56671SOL    HW171910   0.255   9.104  10.219
56671SOL    HW271911   0.194   9.136  10.354
56672SOL     OW71912  11.242   9.870   9.103
56672SOL    HW171913  11.273   9.863   9.193
56672SOL    HW271914  11.149   9.845   9.108
56673SOL     OW71915   5.383   4.661   4.971
56673SOL    HW171916   5.450   4.622   5.027
56673SOL    HW271917   5.392   4.615   4.887
56674SOL     OW71918   8.160  12.500  11.775
56674SOL    HW171919   8.199  12.458  11.852
56674SOL    HW271920   8.231  12.503  11.710
56675SOL     OW71921   8.800   8.395   0.993
56675SOL    HW171922   8.729   8.459   0.999
56675SOL    HW271923   8.800   8.351   1.077
56676SOL     OW71924  14.702  10.032   9.008
56676SOL    HW171925  14.709  10.012   9.101
56676SOL    HW271926  14.724   9.950   8.964
56677SOL     OW71927  14.548   7.987   3.940
56677SOL    HW171928  14.562   7.898   3.909
56677SOL    HW271929  14.556   7.982   4.035
56678SOL     OW71930   2.612   5.828   8.598
56678SOL    HW171931   2.651   5.876   8.525
56678SOL    HW271932   2.537   5.881   8.625
56679SOL     OW71933   8.812   0.476   2.802
56679SOL    HW171934   8.870   0.413   2.845
56679SOL    HW271935   8.870   0.545   2.771
56680SOL     OW71936   7.322  10.015   0.723
56680SOL    HW171937   7.270  10.093   0.741
56680SOL    HW271938   7.281   9.946   0.776
56681SOL     OW71939  11.010   2.996   6.332
56681SOL    HW171940  11.087   2.976   6.278
56681SOL    HW271941  10.969   3.071   6.288
56682SOL     OW71942   0.811   9.378   0.102
56682SOL    HW171943   0.871   9.317   0.146
56682SOL    HW271944   0.725   9.340   0.115
56683SOL     OW71945   3.514  10.888   0.579
56683SOL    HW171946   3.581  10.858   0.640
56683SOL    HW271947   3.547  10.862   0.493
56684SOL     OW71948   7.920  10.258   2.347
56684SOL    HW171949   7.891  10.348   2.332
56684SOL    HW271950   7.941  10.225   2.260
56685SOL     OW71951  11.144   8.877  12.412
56685SOL    HW171952  11.186   8.839  12.335
56685SOL    HW271953  11.129   8.803  12.470
56686SOL     OW71954   0.340   7.661  10.026
56686SOL    HW171955   0.353   7.707   9.943
56686SOL    HW271956   0.286   7.721  10.078
56687SOL     OW71957   5.153   7.075   8.647
56687SOL    HW171958   5.181   7.166   8.634
56687SOL    HW271959   5.058   7.081   8.657
56688SOL     OW71960   4.014   1.550  12.394
56688SOL    HW171961   4.087   1.506  12.350
56688SOL    HW271962   3.939   1.535  12.336
56689SOL     OW71963  11.126   6.571   5.304
56689SOL    HW171964  11.173   6.504   5.255
56689SOL    HW271965  11.156   6.560   5.394
56690SOL     OW71966   8.318   2.620  10.203
56690SOL    HW171967   8.401   2.581  10.177
56690SOL    HW271968   8.254   2.586  10.140
56691SOL     OW71969   9.738  10.989  13.120
56691SOL    HW171970   9.793  11.003  13.196
56691SOL    HW271971   9.689  10.909  13.140
56692SOL     OW71972   0.895  12.258   0.570
56692SOL    HW171973   0.846  12.324   0.618
56692SOL    HW271974   0.967  12.234   0.628
56693SOL     OW71975   9.336  11.834   0.227
56693SOL    HW171976   9.271  11.764   0.219
56693SOL    HW271977   9.294  11.910   0.186
56694SOL     OW71978  12.713  14.784  11.698
56694SOL    HW171979  12.700  14.866  11.746
56694SOL    HW271980  12.639  14.729  11.724
56695SOL     OW71981   0.081   7.660   9.705
56695SOL    HW171982   0.016   7.679   9.638
56695SOL    HW271983   0.080   7.736   9.763
56696SOL     OW71984   4.719   3.896  14.461
56696SOL    HW171985   4.768   3.967  14.503
56696SOL    HW271986   4.687   3.843  14.534
56697SOL     OW71987  10.396   4.635   8.192
56697SOL    HW171988  10.430   4.546   8.185
56697SOL    HW271989  10.326   4.640   8.128
56698SOL     OW71990   8.384   6.018   2.487
56698SOL    HW171991   8.373   5.937   2.535
56698SOL    HW271992   8.300   6.034   2.445
56699SOL     OW71993   3.012   3.969   8.349
56699SOL    HW171994   3.069   4.046   8.342
56699SOL    HW271995   3.072   3.898   8.373
56700SOL     OW71996   7.130  13.924   4.217
56700SOL    HW171997   7.143  13.901   4.125
56700SOL    HW271998   7.194  13.993   4.234
56701SOL     OW71999  14.863   7.189   2.006
56701SOL    HW172000  14.774   7.168   1.977
56701SOL    HW272001   0.009   7.271   1.961
56702SOL     OW72002   7.203   4.311   4.296
56702SOL    HW172003   7.232   4.236   4.346
56702SOL    HW272004   7.282   4.363   4.281
56703SOL     OW72005  10.330   7.036   8.234
56703SOL    HW172006  10.354   7.091   8.159
56703SOL    HW272007  10.413   6.996   8.262
56704SOL     OW72008   0.819   9.679  10.147
56704SOL    HW172009   0.799   9.603  10.202
56704SOL    HW272010   0.736   9.724  10.137
56705SOL     OW72011  11.428   5.673  12.427
56705SOL    HW172012  11.353   5.713  12.471
56705SOL    HW272013  11.496   5.740  12.430
56706SOL     OW72014   2.098  14.368   9.026
56706SOL    HW172015   2.009  14.335   9.020
56706SOL    HW272016   2.089  14.453   9.069
56707SOL     OW72017   0.055   2.422   6.617
56707SOL    HW172018   0.147   2.413   6.640
56707SOL    HW272019   0.021   2.486   6.680
56708SOL     OW72020   0.647  13.122  11.340
56708SOL    HW172021   0.554  13.135  11.324
56708SOL    HW272022   0.651  13.057  11.409
56709SOL     OW72023   3.469   0.147  14.606
56709SOL    HW172024   3.494   0.114  14.520
56709SOL    HW272025   3.545   0.198  14.634
56710SOL     OW72026   7.586   7.032   9.515
56710SOL    HW172027   7.553   7.070   9.434
56710SOL    HW272028   7.606   7.107   9.571
56711SOL     OW72029   1.813   1.668  14.391
56711SOL    HW172030   1.847   1.733  14.453
56711SOL    HW272031   1.873   1.673  14.316
56712SOL     OW72032  11.620  14.584  11.865
56712SOL    HW172033  11.698  14.590  11.810
56712SOL    HW272034  11.615  14.668  11.910
56713SOL     OW72035  14.320   4.238   7.052
56713SOL    HW172036  14.332   4.331   7.069
56713SOL    HW272037  14.389   4.196   7.104
56714SOL     OW72038   0.523  11.120   3.559
56714SOL    HW172039   0.528  11.041   3.504
56714SOL    HW272040   0.566  11.187   3.506
56715SOL     OW72041  14.150   1.670   2.885
56715SOL    HW172042  14.206   1.720   2.826
56715SOL    HW272043  14.074   1.646   2.831
56716SOL     OW72044   1.940   2.287  12.967
56716SOL    HW172045   2.024   2.261  13.005
56716SOL    HW272046   1.921   2.220  12.902
56717SOL     OW72047   0.762   4.574   4.409
56717SOL    HW172048   0.818   4.637   4.454
56717SOL    HW272049   0.822   4.518   4.360
56718SOL     OW72050   9.728  11.737   6.835
56718SOL    HW172051   9.777  11.684   6.897
56718SOL    HW272052   9.783  11.739   6.756
56719SOL     OW72053   2.533  12.505  12.820
56719SOL    HW172054   2.532  12.473  12.730
56719SOL    HW272055   2.565  12.431  12.872
56720SOL     OW72056   0.824  12.529   7.970
56720SOL    HW172057   0.843  12.549   7.878
56720SOL    HW272058   0.775  12.447   7.966
56721SOL     OW72059  10.045  10.140  10.703
56721SOL    HW172060   9.964  10.140  10.652
56721SOL    HW272061  10.112  10.166  10.639
56722SOL     OW72062   7.675  13.270   4.614
56722SOL    HW172063   7.643  13.354   4.645
56722SOL    HW272064   7.758  13.256   4.660
56723SOL     OW72065   6.040  12.536   6.936
56723SOL    HW172066   6.056  12.564   7.026
56723SOL    HW272067   6.021  12.617   6.889
56724SOL     OW72068   7.874   3.879   4.293
56724SOL    HW172069   7.878   3.813   4.363
56724SOL    HW272070   7.807   3.940   4.321
56725SOL     OW72071  11.749   9.210   5.711
56725SOL    HW172072  11.801   9.290   5.720
56725SOL    HW272073  11.687   9.214   5.784
56726SOL     OW72074  13.316  11.703   4.969
56726SOL    HW172075  13.358  11.724   4.886
56726SOL    HW272076  13.236  11.656   4.944
56727SOL     OW72077   3.901   1.121  10.964
56727SOL    HW172078   3.842   1.181  11.011
56727SOL    HW272079   3.847   1.084  10.894
56728SOL     OW72080   8.355   5.917   4.382
56728SOL    HW172081   8.333   5.968   4.304
56728SOL    HW272082   8.271   5.885   4.414
56729SOL     OW72083   1.969  13.555   1.511
56729SOL    HW172084   1.955  13.465   1.480
56729SOL    HW272085   2.029  13.545   1.585
56730SOL     OW72086   6.160  11.918   9.893
56730SOL    HW172087   6.245  11.875   9.899
56730SOL    HW272088   6.179  12.010   9.914
56731SOL     OW72089   0.858   1.252   5.753
56731SOL    HW172090   0.861   1.192   5.679
56731SOL    HW272091   0.788   1.313   5.733
56732SOL     OW72092  10.545   5.746   8.625
56732SOL    HW172093  10.636   5.750   8.652
56732SOL    HW272094  10.534   5.818   8.563
56733SOL     OW72095   0.561   1.100   2.364
56733SOL    HW172096   0.584   1.187   2.395
56733SOL    HW272097   0.484   1.075   2.415
56734SOL     OW72098   3.705   8.235   6.299
56734SOL    HW172099   3.669   8.320   6.273
56734SOL    HW272100   3.692   8.179   6.223
56735SOL     OW72101  10.129   2.189   9.541
56735SOL    HW172102  10.095   2.279   9.534
56735SOL    HW272103  10.143   2.162   9.450
56736SOL     OW72104   9.646  13.054  10.064
56736SOL    HW172105   9.583  13.111  10.107
56736SOL    HW272106   9.656  13.091   9.976
56737SOL     OW72107   3.120  12.858   3.512
56737SOL    HW172108   3.140  12.786   3.452
56737SOL    HW272109   3.090  12.928   3.455
56738SOL     OW72110   4.177   4.939   6.168
56738SOL    HW172111   4.124   5.016   6.190
56738SOL    HW272112   4.182   4.889   6.250
56739SOL     OW72113   1.784   1.141   0.676
56739SOL    HW172114   1.708   1.178   0.721
56739SOL    HW272115   1.798   1.199   0.601
56740SOL     OW72116   5.776   6.267   0.491
56740SOL    HW172117   5.724   6.302   0.563
56740SOL    HW272118   5.716   6.267   0.416
56741SOL     OW72119  11.157   1.361  13.742
56741SOL    HW172120  11.083   1.346  13.683
56741SOL    HW272121  11.140   1.448  13.780
56742SOL     OW72122  10.793   5.651   6.514
56742SOL    HW172123  10.804   5.556   6.524
56742SOL    HW272124  10.702   5.662   6.486
56743SOL     OW72125   4.479   5.970   2.718
56743SOL    HW172126   4.457   5.954   2.810
56743SOL    HW272127   4.526   6.053   2.719
56744SOL     OW72128   5.542  12.469   6.091
56744SOL    HW172129   5.493  12.526   6.033
56744SOL    HW272130   5.586  12.528   6.152
56745SOL     OW72131  10.693  13.994   4.473
56745SOL    HW172132  10.725  14.081   4.447
56745SOL    HW272133  10.677  14.002   4.567
56746SOL     OW72134   2.476  11.343   6.748
56746SOL    HW172135   2.518  11.398   6.682
56746SOL    HW272136   2.427  11.404   6.803
56747SOL     OW72137   2.926   8.309  11.362
56747SOL    HW172138   2.887   8.259  11.290
56747SOL    HW272139   3.020   8.292  11.353
56748SOL     OW72140  10.037  13.653  10.795
56748SOL    HW172141   9.975  13.698  10.738
56748SOL    HW272142  10.004  13.667  10.884
56749SOL     OW72143   7.908   3.023  11.000
56749SOL    HW172144   7.885   2.931  10.989
56749SOL    HW272145   7.925   3.033  11.094
56750SOL     OW72146   8.760  12.121   9.734
56750SOL    HW172147   8.774  12.168   9.817
56750SOL    HW272148   8.840  12.070   9.722
56751SOL     OW72149   9.599  11.704   6.155
56751SOL    HW172150   9.565  11.734   6.240
56751SOL    HW272151   9.547  11.626   6.135
56752SOL     OW72152  11.309   1.839   7.951
56752SOL    HW172153  11.396   1.802   7.934
56752SOL    HW272154  11.274   1.786   8.022
56753SOL     OW72155  14.769   0.646   4.014
56753SOL    HW172156  14.762   0.705   4.089
56753SOL    HW272157  14.700   0.676   3.954
56754SOL     OW72158   3.305  10.932   6.879
56754SOL    HW172159   3.258  10.849   6.877
56754SOL    HW272160   3.394  10.909   6.851
56755SOL     OW72161  13.434   2.399  11.286
56755SOL    HW172162  13.406   2.472  11.230
56755SOL    HW272163  13.514   2.367  11.246
56756SOL     OW72164   0.813  12.819  11.425
56756SOL    HW172165   0.736  12.819  11.369
56756SOL    HW272166   0.789  12.875  11.499
56757SOL     OW72167   4.049   3.197  11.087
56757SOL    HW172168   3.992   3.270  11.112
56757SOL    HW272169   4.007   3.120  11.123
56758SOL     OW72170   8.020   3.707   8.792
56758SOL    HW172171   7.969   3.761   8.853
56758SOL    HW272172   8.111   3.724   8.815
56759SOL     OW72173   9.131   0.305  12.826
56759SOL    HW172174   9.115   0.211  12.831
56759SOL    HW272175   9.055   0.345  12.869
56760SOL     OW72176   4.743   9.288  14.165
56760SOL    HW172177   4.800   9.236  14.223
56760SOL    HW272178   4.801   9.354  14.128
56761SOL     OW72179  13.245  13.643   4.184
56761SOL    HW172180  13.185  13.711   4.216
56761SOL    HW272181  13.275  13.676   4.099
56762SOL     OW72182   9.785   3.582  14.582
56762SOL    HW172183   9.811   3.544  14.499
56762SOL    HW272184   9.868   3.609  14.623
56763SOL     OW72185  10.591  10.393   2.890
56763SOL    HW172186  10.567  10.410   2.799
56763SOL    HW272187  10.552  10.465   2.939
56764SOL     OW72188  14.175  11.375   0.426
56764SOL    HW172189  14.251  11.385   0.369
56764SOL    HW272190  14.212  11.376   0.515
56765SOL     OW72191   7.249   1.242   1.245
56765SOL    HW172192   7.252   1.235   1.150
56765SOL    HW272193   7.248   1.151   1.276
56766SOL     OW72194  12.397   7.836  10.054
56766SOL    HW172195  12.419   7.918  10.098
56766SOL    HW272196  12.461   7.828   9.983
56767SOL     OW72197   5.927  12.218  13.187
56767SOL    HW172198   5.850  12.272  13.204
56767SOL    HW272199   5.973  12.264  13.117
56768SOL     OW72200  11.227   0.010   1.190
56768SOL    HW172201  11.153   0.070   1.197
56768SOL    HW272202  11.192  14.801   1.220
56769SOL     OW72203  10.306  14.321   7.589
56769SOL    HW172204  10.337  14.401   7.631
56769SOL    HW272205  10.308  14.341   7.495
56770SOL     OW72206  11.028   0.902   6.977
56770SOL    HW172207  11.064   0.844   6.910
56770SOL    HW272208  10.957   0.851   7.016
56771SOL     OW72209   7.527   9.654  12.369
56771SOL    HW172210   7.555   9.700  12.448
56771SOL    HW272211   7.607   9.639  12.319
56772SOL     OW72212   4.717   4.510   3.124
56772SOL    HW172213   4.719   4.438   3.188
56772SOL    HW272214   4.789   4.566   3.151
56773SOL     OW72215   1.129   1.761   5.599
56773SOL    HW172216   1.187   1.689   5.574
56773SOL    HW272217   1.043   1.734   5.566
56774SOL     OW72218   7.971   8.727   8.183
56774SOL    HW172219   8.021   8.665   8.236
56774SOL    HW272220   7.918   8.672   8.126
56775SOL     OW72221   7.446  13.728  10.829
56775SOL    HW172222   7.371  13.672  10.847
56775SOL    HW272223   7.447  13.790  10.902
56776SOL     OW72224  13.190  13.060  10.857
56776SOL    HW172225  13.206  12.972  10.890
56776SOL    HW272226  13.254  13.073  10.788
56777SOL     OW72227   5.845   5.400   4.516
56777SOL    HW172228   5.851   5.391   4.612
56777SOL    HW272229   5.764   5.448   4.501
56778SOL     OW72230  12.065  14.863  13.447
56778SOL    HW172231  12.051   0.035  13.530
56778SOL    HW272232  12.139  14.805  13.464
56779SOL     OW72233   4.626   8.271   7.757
56779SOL    HW172234   4.600   8.179   7.761
56779SOL    HW272235   4.575   8.307   7.685
56780SOL     OW72236   7.447  11.499   9.831
56780SOL    HW172237   7.388  11.428   9.858
56780SOL    HW272238   7.534  11.464   9.846
56781SOL     OW72239   1.522   2.672   5.347
56781SOL    HW172240   1.581   2.642   5.278
56781SOL    HW272241   1.437   2.635   5.323
56782SOL     OW72242   9.129  14.774  10.787
56782SOL    HW172243   9.150  14.802  10.876
56782SOL    HW272244   9.039  14.740  10.794
56783SOL     OW72245  14.810   3.981   1.988
56783SOL    HW172246   0.008   4.032   1.952
56783SOL    HW272247  14.744   3.982   1.919
56784SOL     OW72248  11.817  12.807  12.464
56784SOL    HW172249  11.824  12.850  12.378
56784SOL    HW272250  11.831  12.714  12.446
56785SOL     OW72251   5.117   2.645   4.163
56785SOL    HW172252   5.149   2.631   4.074
56785SOL    HW272253   5.156   2.729   4.189
56786SOL     OW72254   9.487   0.250   6.969
56786SOL    HW172255   9.520   0.191   7.037
56786SOL    HW272256   9.454   0.326   7.016
56787SOL     OW72257   5.389   4.945  10.044
56787SOL    HW172258   5.476   4.912  10.069
56787SOL    HW272259   5.377   5.023  10.098
56788SOL     OW72260   7.415   0.315  12.466
56788SOL    HW172261   7.450   0.228  12.486
56788SOL    HW272262   7.430   0.325  12.372
56789SOL     OW72263   7.288  12.274   5.732
56789SOL    HW172264   7.321  12.201   5.786
56789SOL    HW272265   7.197  12.251   5.715
56790SOL     OW72266  11.592  12.591  13.608
56790SOL    HW172267  11.667  12.584  13.548
56790SOL    HW272268  11.524  12.538  13.568
56791SOL     OW72269   2.018   2.782   9.980
56791SOL    HW172270   1.941   2.767   9.924
56791SOL    HW272271   2.018   2.877   9.993
56792SOL     OW72272   8.964  12.251   9.272
56792SOL    HW172273   8.905  12.184   9.238
56792SOL    HW272274   9.019  12.205   9.335
56793SOL     OW72275  12.973   9.993  10.710
56793SOL    HW172276  13.023   9.914  10.686
56793SOL    HW272277  13.004  10.015  10.797
56794SOL     OW72278  13.788   6.464   1.367
56794SOL    HW172279  13.841   6.395   1.328
56794SOL    HW272280  13.699   6.444   1.338
56795SOL     OW72281   5.684   1.614  13.336
56795SOL    HW172282   5.680   1.705  13.365
56795SOL    HW272283   5.712   1.565  13.413
56796SOL     OW72284  11.743   7.594  12.016
56796SOL    HW172285  11.687   7.671  12.014
56796SOL    HW272286  11.762   7.576  11.924
56797SOL     OW72287   4.657  13.316  11.977
56797SOL    HW172288   4.595  13.309  12.049
56797SOL    HW272289   4.611  13.281  11.901
56798SOL     OW72290  13.773   0.151   7.438
56798SOL    HW172291  13.806   0.106   7.516
56798SOL    HW272292  13.835   0.127   7.369
56799SOL     OW72293   2.954   1.376   8.089
56799SOL    HW172294   2.952   1.371   7.994
56799SOL    HW272295   2.887   1.440   8.112
56800SOL     OW72296   3.225  12.476   8.865
56800SOL    HW172297   3.165  12.400   8.865
56800SOL    HW272298   3.235  12.498   8.772
56801SOL     OW72299   7.984  10.825  12.571
56801SOL    HW172300   8.015  10.895  12.629
56801SOL    HW272301   7.899  10.856  12.541
56802SOL     OW72302   4.501  14.625   1.059
56802SOL    HW172303   4.559  14.572   1.113
56802SOL    HW272304   4.413  14.607   1.092
56803SOL     OW72305   7.888   2.200   2.956
56803SOL    HW172306   7.945   2.125   2.971
56803SOL    HW272307   7.920   2.239   2.875
56804SOL     OW72308   2.736  11.411   7.583
56804SOL    HW172309   2.812  11.355   7.598
56804SOL    HW272310   2.661  11.358   7.610
56805SOL     OW72311   4.003  13.335   2.533
56805SOL    HW172312   4.057  13.376   2.466
56805SOL    HW272313   4.008  13.241   2.513
56806SOL     OW72314   8.713  10.346  11.758
56806SOL    HW172315   8.756  10.378  11.837
56806SOL    HW272316   8.641  10.292  11.791
56807SOL     OW72317  11.855   2.494  11.053
56807SOL    HW172318  11.772   2.542  11.054
56807SOL    HW272319  11.859   2.450  11.138
56808SOL     OW72320   0.906   2.309   6.494
56808SOL    HW172321   0.859   2.342   6.570
56808SOL    HW272322   0.932   2.220   6.519
56809SOL     OW72323   0.230   9.330   8.286
56809SOL    HW172324   0.171   9.309   8.358
56809SOL    HW272325   0.287   9.398   8.320
56810SOL     OW72326   1.000   3.164   0.250
56810SOL    HW172327   1.077   3.179   0.305
56810SOL    HW272328   0.948   3.243   0.259
56811SOL     OW72329   9.847   8.232  11.192
56811SOL    HW172330   9.943   8.231  11.181
56811SOL    HW272331   9.831   8.171  11.264
56812SOL     OW72332   8.579   6.668  13.249
56812SOL    HW172333   8.591   6.724  13.326
56812SOL    HW272334   8.571   6.579  13.285
56813SOL     OW72335   1.381   0.845  10.813
56813SOL    HW172336   1.414   0.826  10.901
56813SOL    HW272337   1.367   0.759  10.773
56814SOL     OW72338  13.582   5.234  10.423
56814SOL    HW172339  13.528   5.177  10.478
56814SOL    HW272340  13.669   5.193  10.425
56815SOL     OW72341   8.039  12.239   5.393
56815SOL    HW172342   8.132  12.235   5.372
56815SOL    HW272343   8.002  12.159   5.356
56816SOL     OW72344   5.915  13.983  12.570
56816SOL    HW172345   5.959  14.013  12.491
56816SOL    HW272346   5.940  13.890  12.578
56817SOL     OW72347   0.922  10.674   2.387
56817SOL    HW172348   0.924  10.595   2.441
56817SOL    HW272349   0.867  10.735   2.436
56818SOL     OW72350   8.006  12.753  11.243
56818SOL    HW172351   8.037  12.814  11.177
56818SOL    HW272352   7.910  12.752  11.232
56819SOL     OW72353   7.826  12.772   2.136
56819SOL    HW172354   7.883  12.790   2.062
56819SOL    HW272355   7.856  12.687   2.170
56820SOL     OW72356  11.929   9.702   9.658
56820SOL    HW172357  11.988   9.676   9.587
56820SOL    HW272358  11.979   9.686   9.738
56821SOL     OW72359  10.334   3.326   1.942
56821SOL    HW172360  10.291   3.240   1.941
56821SOL    HW272361  10.321   3.361   1.854
56822SOL     OW72362   7.272  10.529  11.974
56822SOL    HW172363   7.321  10.586  12.033
56822SOL    HW272364   7.339  10.477  11.930
56823SOL     OW72365   2.524  10.742  10.194
56823SOL    HW172366   2.551  10.745  10.103
56823SOL    HW272367   2.590  10.689  10.237
56824SOL     OW72368   7.126  10.957   4.669
56824SOL    HW172369   7.154  10.878   4.715
56824SOL    HW272370   7.112  10.929   4.579
56825SOL     OW72371  11.899  10.638   5.192
56825SOL    HW172372  11.837  10.565   5.184
56825SOL    HW272373  11.984  10.597   5.203
56826SOL     OW72374  12.628   3.212   0.329
56826SOL    HW172375  12.620   3.153   0.404
56826SOL    HW272376  12.545   3.260   0.328
56827SOL     OW72377   3.207   7.711   2.993
56827SOL    HW172378   3.274   7.645   2.978
56827SOL    HW272379   3.135   7.664   3.034
56828SOL     OW72380  14.378  12.547   1.221
56828SOL    HW172381  14.422  12.487   1.282
56828SOL    HW272382  14.286  12.523   1.225
56829SOL     OW72383   7.239   5.030   7.292
56829SOL    HW172384   7.327   5.033   7.256
56829SOL    HW272385   7.227   5.114   7.335
56830SOL     OW72386   2.508   9.673  11.043
56830SOL    HW172387   2.500   9.688  11.137
56830SOL    HW272388   2.420   9.647  11.015
56831SOL     OW72389   3.113  14.180   5.942
56831SOL    HW172390   3.065  14.107   5.901
56831SOL    HW272391   3.200  14.144   5.958
56832SOL     OW72392   1.457   9.183   0.305
56832SOL    HW172393   1.517   9.199   0.232
56832SOL    HW272394   1.382   9.139   0.265
56833SOL     OW72395   8.587  10.229   1.673
56833SOL    HW172396   8.579  10.134   1.682
56833SOL    HW272397   8.590  10.261   1.763
56834SOL     OW72398   4.948   6.782  10.153
56834SOL    HW172399   4.855   6.764  10.164
56834SOL    HW272400   4.954   6.878  10.157
56835SOL     OW72401  13.544   1.091   8.973
56835SOL    HW172402  13.638   1.075   8.972
56835SOL    HW272403  13.536   1.185   8.991
56836SOL     OW72404  14.668   1.848  12.506
56836SOL    HW172405  14.607   1.917  12.482
56836SOL    HW272406  14.677   1.795  12.427
56837SOL     OW72407   0.613   9.527   4.681
56837SOL    HW172408   0.537   9.582   4.663
56837SOL    HW272409   0.600   9.449   4.627
56838SOL     OW72410  13.714   4.556  12.786
56838SOL    HW172411  13.664   4.564  12.867
56838SOL    HW272412  13.667   4.491  12.734
56839SOL     OW72413   0.458  11.451   8.136
56839SOL    HW172414   0.510  11.373   8.156
56839SOL    HW272415   0.412  11.470   8.218
56840SOL     OW72416   7.100  12.430   0.846
56840SOL    HW172417   7.025  12.472   0.803
56840SOL    HW272418   7.082  12.440   0.939
56841SOL     OW72419   3.091   3.017   4.754
56841SOL    HW172420   3.047   2.969   4.684
56841SOL    HW272421   3.081   2.961   4.832
56842SOL     OW72422   1.786   2.129   2.672
56842SOL    HW172423   1.692   2.119   2.661
56842SOL    HW272424   1.822   2.044   2.646
56843SOL     OW72425   4.424  11.948  10.468
56843SOL    HW172426   4.408  12.039  10.444
56843SOL    HW272427   4.507  11.950  10.514
56844SOL     OW72428   0.763   3.274  10.363
56844SOL    HW172429   0.790   3.317  10.282
56844SOL    HW272430   0.756   3.346  10.427
56845SOL     OW72431   3.218   3.093   8.798
56845SOL    HW172432   3.218   3.014   8.744
56845SOL    HW272433   3.302   3.135   8.779
56846SOL     OW72434   9.271   4.010  12.679
56846SOL    HW172435   9.216   4.050  12.612
56846SOL    HW272436   9.248   4.056  12.760
56847SOL     OW72437   2.268  10.115   4.876
56847SOL    HW172438   2.279  10.155   4.962
56847SOL    HW272439   2.357  10.094   4.847
56848SOL     OW72440  13.641   4.808   4.876
56848SOL    HW172441  13.619   4.898   4.850
56848SOL    HW272442  13.734   4.800   4.854
56849SOL     OW72443   3.819   0.014   7.086
56849SOL    HW172444   3.903   0.058   7.077
56849SOL    HW272445   3.755   0.076   7.050
56850SOL     OW72446   5.033   9.485   6.613
56850SOL    HW172447   5.089   9.531   6.676
56850SOL    HW272448   4.980   9.554   6.575
56851SOL     OW72449  12.307  14.293   9.495
56851SOL    HW172450  12.254  14.315   9.572
56851SOL    HW272451  12.387  14.343   9.505
56852SOL     OW72452   2.602   2.860   1.458
56852SOL    HW172453   2.606   2.951   1.486
56852SOL    HW272454   2.596   2.865   1.362
56853SOL     OW72455   2.970   2.597  14.724
56853SOL    HW172456   2.929   2.681  14.741
56853SOL    HW272457   2.998   2.566  14.811
56854SOL     OW72458   0.982   4.824   1.158
56854SOL    HW172459   0.911   4.872   1.116
56854SOL    HW272460   0.959   4.732   1.145
56855SOL     OW72461  14.841   6.073   1.105
56855SOL    HW172462  14.848   6.071   1.009
56855SOL    HW272463  14.788   5.997   1.127
56856SOL     OW72464   8.309  13.800  12.357
56856SOL    HW172465   8.263  13.721  12.386
56856SOL    HW272466   8.348  13.836  12.436
56857SOL     OW72467   4.386   1.629  13.351
56857SOL    HW172468   4.332   1.610  13.274
56857SOL    HW272469   4.476   1.619  13.320
56858SOL     OW72470   4.074   8.327  13.109
56858SOL    HW172471   4.068   8.330  13.204
56858SOL    HW272472   4.065   8.418  13.081
56859SOL     OW72473   5.034  13.048   2.575
56859SOL    HW172474   5.075  12.984   2.633
56859SOL    HW272475   5.089  13.049   2.497
56860SOL     OW72476  13.476   9.457  13.653
56860SOL    HW172477  13.521   9.397  13.713
56860SOL    HW272478  13.402   9.406  13.620
56861SOL     OW72479   9.960  10.082   5.941
56861SOL    HW172480   9.931  10.124   5.860
56861SOL    HW272481   9.977   9.991   5.916
56862SOL     OW72482   6.555   4.641  13.825
56862SOL    HW172483   6.511   4.580  13.766
56862SOL    HW272484   6.563   4.722  13.773
56863SOL     OW72485   2.016   1.204   3.861
56863SOL    HW172486   1.954   1.192   3.788
56863SOL    HW272487   2.003   1.127   3.916
56864SOL     OW72488  11.934   2.232   9.226
56864SOL    HW172489  11.994   2.259   9.156
56864SOL    HW272490  11.901   2.315   9.262
56865SOL     OW72491  14.799   7.787   8.055
56865SOL    HW172492  14.738   7.720   8.025
56865SOL    HW272493  14.848   7.813   7.977
56866SOL     OW72494   6.652   5.595  13.096
56866SOL    HW172495   6.678   5.594  13.188
56866SOL    HW272496   6.605   5.512  13.083
56867SOL     OW72497   6.042  13.276   2.429
56867SOL    HW172498   6.116  13.256   2.372
56867SOL    HW272499   6.029  13.370   2.419
56868SOL     OW72500   6.668   2.780  11.093
56868SOL    HW172501   6.701   2.866  11.066
56868SOL    HW272502   6.729   2.751  11.161
56869SOL     OW72503   0.962   8.090   9.638
56869SOL    HW172504   0.901   8.030   9.596
56869SOL    HW272505   0.913   8.172   9.647
56870SOL     OW72506   6.163   0.638  13.764
56870SOL    HW172507   6.112   0.578  13.819
56870SOL    HW272508   6.230   0.673  13.822
56871SOL     OW72509  11.490  12.813   1.712
56871SOL    HW172510  11.404  12.772   1.701
56871SOL    HW272511  11.471  12.905   1.730
56872SOL     OW72512   4.001   6.531  12.014
56872SOL    HW172513   4.063   6.579  12.069
56872SOL    HW272514   3.947   6.482  12.076
56873SOL     OW72515  14.754  11.763  11.073
56873SOL    HW172516  14.733  11.705  11.147
56873SOL    HW272517  14.831  11.724  11.033
56874SOL     OW72518   3.261   8.438   2.242
56874SOL    HW172519   3.217   8.478   2.317
56874SOL    HW272520   3.240   8.345   2.249
56875SOL     OW72521  10.230   6.856   6.829
56875SOL    HW172522  10.222   6.811   6.914
56875SOL    HW272523  10.304   6.915   6.841
56876SOL     OW72524   7.032  12.433   1.658
56876SOL    HW172525   6.941  12.429   1.629
56876SOL    HW272526   7.069  12.348   1.634
56877SOL     OW72527  11.573   0.173   7.840
56877SOL    HW172528  11.511   0.104   7.865
56877SOL    HW272529  11.595   0.154   7.749
56878SOL     OW72530   5.672  14.123   4.260
56878SOL    HW172531   5.590  14.080   4.237
56878SOL    HW272532   5.704  14.075   4.337
56879SOL     OW72533   1.751  11.823  14.263
56879SOL    HW172534   1.705  11.905  14.279
56879SOL    HW272535   1.683  11.756  14.269
56880SOL     OW72536   7.790  12.572   1.107
56880SOL    HW172537   7.730  12.617   1.048
56880SOL    HW272538   7.809  12.637   1.175
56881SOL     OW72539   7.510  12.736   8.853
56881SOL    HW172540   7.512  12.656   8.801
56881SOL    HW272541   7.592  12.736   8.902
56882SOL     OW72542  10.520   9.556   4.431
56882SOL    HW172543  10.513   9.575   4.525
56882SOL    HW272544  10.452   9.611   4.391
56883SOL     OW72545   2.053   9.281   8.386
56883SOL    HW172546   2.125   9.222   8.362
56883SOL    HW272547   2.070   9.360   8.335
56884SOL     OW72548   7.544   0.613  14.025
56884SOL    HW172549   7.458   0.642  14.056
56884SOL    HW272550   7.596   0.603  14.105
56885SOL     OW72551  10.603   0.122   3.399
56885SOL    HW172552  10.574   0.212   3.417
56885SOL    HW272553  10.696   0.122   3.420
56886SOL     OW72554   6.285  11.616   8.139
56886SOL    HW172555   6.379  11.595   8.135
56886SOL    HW272556   6.268  11.661   8.056
56887SOL     OW72557   3.896   3.801   7.168
56887SOL    HW172558   3.813   3.797   7.214
56887SOL    HW272559   3.962   3.806   7.238
56888SOL     OW72560   7.712   2.118   5.661
56888SOL    HW172561   7.725   2.212   5.665
56888SOL    HW272562   7.666   2.104   5.577
56889SOL     OW72563  12.371   7.740   2.706
56889SOL    HW172564  12.395   7.788   2.627
56889SOL    HW272565  12.422   7.781   2.775
56890SOL     OW72566   5.381  12.510   2.969
56890SOL    HW172567   5.451  12.551   2.917
56890SOL    HW272568   5.380  12.419   2.940
56891SOL     OW72569   2.862   8.968   9.213
56891SOL    HW172570   2.777   8.925   9.228
56891SOL    HW272571   2.876   9.022   9.291
56892SOL     OW72572   3.956  12.780  11.727
56892SOL    HW172573   3.928  12.790  11.818
56892SOL    HW272574   4.030  12.839  11.718
56893SOL     OW72575  13.911   4.325   8.190
56893SOL    HW172576  13.896   4.372   8.272
56893SOL    HW272577  13.832   4.341   8.138
56894SOL     OW72578   6.726  13.510  10.813
56894SOL    HW172579   6.692  13.555  10.890
56894SOL    HW272580   6.768  13.431  10.848
56895SOL     OW72581   3.780  11.883  10.330
56895SOL    HW172582   3.782  11.920  10.241
56895SOL    HW272583   3.688  11.867  10.347
56896SOL     OW72584  12.319   0.670   7.808
56896SOL    HW172585  12.283   0.588   7.841
56896SOL    HW272586  12.246   0.731   7.810
56897SOL     OW72587   3.331   6.152   1.700
56897SOL    HW172588   3.253   6.206   1.690
56897SOL    HW272589   3.404   6.212   1.685
56898SOL     OW72590  10.925   7.417   8.801
56898SOL    HW172591  11.003   7.473   8.805
56898SOL    HW272592  10.934   7.360   8.878
56899SOL     OW72593   5.814   3.598   8.768
56899SOL    HW172594   5.898   3.586   8.812
56899SOL    HW272595   5.751   3.608   8.839
56900SOL     OW72596   7.499  10.092  13.703
56900SOL    HW172597   7.589  10.111  13.728
56900SOL    HW272598   7.501  10.083  13.608
56901SOL     OW72599   8.876   7.348  10.955
56901SOL    HW172600   8.928   7.280  11.000
56901SOL    HW272601   8.800   7.301  10.922
56902SOL     OW72602  11.680   7.950  12.953
56902SOL    HW172603  11.593   7.986  12.936
56902SOL    HW272604  11.669   7.899  13.033
56903SOL     OW72605   4.015   7.579  11.022
56903SOL    HW172606   4.075   7.591  10.948
56903SOL    HW272607   4.046   7.640  11.089
56904SOL     OW72608   9.650  14.729   2.064
56904SOL    HW172609   9.668  14.808   2.114
56904SOL    HW272610   9.628  14.760   1.976
56905SOL     OW72611  12.156   4.323   9.829
56905SOL    HW172612  12.223   4.263   9.862
56905SOL    HW272613  12.187   4.348   9.742
56906SOL     OW72614   0.972  13.330  14.418
56906SOL    HW172615   0.919  13.406  14.391
56906SOL    HW272616   1.007  13.296  14.336
56907SOL     OW72617  12.557   0.430  12.338
56907SOL    HW172618  12.548   0.341  12.372
56907SOL    HW272619  12.467   0.463  12.334
56908SOL     OW72620   2.420   0.863  14.269
56908SOL    HW172621   2.509   0.863  14.306
56908SOL    HW272622   2.388   0.775  14.286
56909SOL     OW72623  10.286  11.393  12.308
56909SOL    HW172624  10.207  11.401  12.254
56909SOL    HW272625  10.257  11.412  12.397
56910SOL     OW72626   9.236   8.201   9.564
56910SOL    HW172627   9.302   8.266   9.587
56910SOL    HW272628   9.154   8.238   9.597
56911SOL     OW72629   6.154  13.088   9.664
56911SOL    HW172630   6.140  13.033   9.587
56911SOL    HW272631   6.238  13.059   9.700
56912SOL     OW72632   8.620   0.521   1.599
56912SOL    HW172633   8.566   0.559   1.669
56912SOL    HW272634   8.682   0.590   1.576
56913SOL     OW72635   1.375   6.512   4.061
56913SOL    HW172636   1.305   6.577   4.062
56913SOL    HW272637   1.384   6.484   4.152
56914SOL     OW72638  13.802   1.456  12.758
56914SOL    HW172639  13.788   1.550  12.767
56914SOL    HW272640  13.853   1.432  12.835
56915SOL     OW72641   9.577  11.852   0.105
56915SOL    HW172642   9.484  11.855   0.128
56915SOL    HW272643   9.595  11.937   0.066
56916SOL     OW72644   4.233   2.909  14.510
56916SOL    HW172645   4.304   2.915  14.574
56916SOL    HW272646   4.270   2.858  14.438
56917SOL     OW72647   8.702  10.898   7.830
56917SOL    HW172648   8.636  10.829   7.818
56917SOL    HW272649   8.774  10.871   7.773
56918SOL     OW72650  11.142   9.811   8.356
56918SOL    HW172651  11.075   9.879   8.342
56918SOL    HW272652  11.124   9.778   8.444
56919SOL     OW72653  11.565  13.575   0.675
56919SOL    HW172654  11.501  13.646   0.677
56919SOL    HW272655  11.630  13.599   0.741
56920SOL     OW72656  10.238   9.661   1.772
56920SOL    HW172657  10.172   9.637   1.837
56920SOL    HW272658  10.289   9.730   1.815
56921SOL     OW72659  13.791   7.177   7.450
56921SOL    HW172660  13.831   7.118   7.514
56921SOL    HW272661  13.745   7.120   7.389
56922SOL     OW72662  10.244  12.456   6.255
56922SOL    HW172663  10.193  12.391   6.304
56922SOL    HW272664  10.222  12.539   6.297
56923SOL     OW72665   8.292  12.505   8.798
56923SOL    HW172666   8.293  12.576   8.733
56923SOL    HW272667   8.285  12.549   8.882
56924SOL     OW72668  12.117   1.329  14.567
56924SOL    HW172669  12.173   1.265  14.610
56924SOL    HW272670  12.144   1.327  14.475
56925SOL     OW72671  11.048   5.773   3.723
56925SOL    HW172672  10.979   5.791   3.787
56925SOL    HW272673  11.023   5.825   3.646
56926SOL     OW72674   9.415   8.108   9.267
56926SOL    HW172675   9.390   8.040   9.330
56926SOL    HW272676   9.505   8.131   9.291
56927SOL     OW72677   1.149   1.808   0.706
56927SOL    HW172678   1.167   1.761   0.787
56927SOL    HW272679   1.069   1.768   0.672
56928SOL     OW72680   6.034   6.318   9.668
56928SOL    HW172681   6.106   6.257   9.685
56928SOL    HW272682   6.026   6.318   9.572
56929SOL     OW72683   0.835   5.328  10.043
56929SOL    HW172684   0.828   5.242  10.084
56929SOL    HW272685   0.762   5.378  10.080
56930SOL     OW72686   2.044   6.366  10.971
56930SOL    HW172687   2.129   6.326  10.953
56930SOL    HW272688   1.992   6.295  11.010
56931SOL     OW72689   1.947   3.742   6.922
56931SOL    HW172690   1.941   3.834   6.895
56931SOL    HW272691   1.907   3.740   7.008
56932SOL     OW72692  10.331   2.117   9.660
56932SOL    HW172693  10.340   2.041   9.602
56932SOL    HW272694  10.255   2.164   9.626
56933SOL     OW72695   4.394   1.511  12.712
56933SOL    HW172696   4.305   1.481  12.692
56933SOL    HW272697   4.390   1.539  12.803
56934SOL     OW72698  11.892   4.882   6.142
56934SOL    HW172699  11.841   4.801   6.148
56934SOL    HW272700  11.954   4.877   6.214
56935SOL     OW72701  12.393  12.380  12.868
56935SOL    HW172702  12.364  12.451  12.926
56935SOL    HW272703  12.413  12.423  12.786
56936SOL     OW72704  14.208   3.601   6.308
56936SOL    HW172705  14.231   3.678   6.255
56936SOL    HW272706  14.198   3.635   6.397
56937SOL     OW72707   3.545   2.638  11.517
56937SOL    HW172708   3.523   2.723  11.480
56937SOL    HW272709   3.622   2.609  11.467
56938SOL     OW72710  13.752  13.568   5.862
56938SOL    HW172711  13.801  13.486   5.872
56938SOL    HW272712  13.817  13.637   5.875
56939SOL     OW72713  10.838  14.380   5.236
56939SOL    HW172714  10.748  14.388   5.266
56939SOL    HW272715  10.875  14.468   5.246
56940SOL     OW72716   5.277   8.298   0.908
56940SOL    HW172717   5.297   8.205   0.900
56940SOL    HW272718   5.193   8.309   0.862
56941SOL     OW72719  12.399  14.533   5.629
56941SOL    HW172720  12.410  14.603   5.693
56941SOL    HW272721  12.436  14.455   5.671
56942SOL     OW72722   2.114   7.014   0.353
56942SOL    HW172723   2.098   6.930   0.311
56942SOL    HW272724   2.201   7.041   0.323
56943SOL     OW72725   9.632  13.403   7.610
56943SOL    HW172726   9.546  13.439   7.633
56943SOL    HW272727   9.615  13.349   7.533
56944SOL     OW72728   5.362   2.280  11.241
56944SOL    HW172729   5.445   2.291  11.287
56944SOL    HW272730   5.362   2.349  11.175
56945SOL     OW72731   3.412  10.197  11.584
56945SOL    HW172732   3.440  10.262  11.520
56945SOL    HW272733   3.490  10.176  11.634
56946SOL     OW72734  10.089   6.591   4.799
56946SOL    HW172735  10.171   6.564   4.756
56946SOL    HW272736  10.100   6.563   4.890
56947SOL     OW72737  13.911   9.817   0.859
56947SOL    HW172738  13.929   9.729   0.827
56947SOL    HW272739  13.941   9.875   0.788
56948SOL     OW72740  14.679  12.241   0.938
56948SOL    HW172741  14.639  12.178   0.877
56948SOL    HW272742  14.697  12.318   0.884
56949SOL     OW72743   0.678   8.463   9.480
56949SOL    HW172744   0.733   8.516   9.423
56949SOL    HW272745   0.622   8.413   9.420
56950SOL     OW72746   3.105   7.453  11.968
56950SOL    HW172747   3.092   7.449  11.873
56950SOL    HW272748   3.188   7.409  11.983
56951SOL     OW72749   9.696   3.902   6.276
56951SOL    HW172750   9.701   3.808   6.258
56951SOL    HW272751   9.693   3.943   6.189
56952SOL     OW72752   4.125  12.422  12.972
56952SOL    HW172753   4.045  12.447  13.018
56952SOL    HW272754   4.118  12.464  12.887
56953SOL     OW72755   0.624   5.899   0.949
56953SOL    HW172756   0.687   5.961   0.987
56953SOL    HW272757   0.593   5.943   0.869
56954SOL     OW72758   1.943  11.755   1.754
56954SOL    HW172759   1.887  11.727   1.682
56954SOL    HW272760   1.952  11.849   1.742
56955SOL     OW72761  13.253   2.566   5.071
56955SOL    HW172762  13.178   2.608   5.030
56955SOL    HW272763  13.300   2.524   4.998
56956SOL     OW72764   5.042  13.366   4.352
56956SOL    HW172765   5.028  13.456   4.321
56956SOL    HW272766   5.068  13.376   4.444
56957SOL     OW72767   2.148   7.864   4.773
56957SOL    HW172768   2.185   7.948   4.800
56957SOL    HW272769   2.072   7.887   4.719
56958SOL     OW72770  12.963  10.392   3.513
56958SOL    HW172771  12.928  10.476   3.484
56958SOL    HW272772  13.053  10.391   3.480
56959SOL     OW72773  12.131   7.738  13.130
56959SOL    HW172774  12.117   7.825  13.166
56959SOL    HW272775  12.226   7.724  13.135
56960SOL     OW72776  12.989  12.753   6.575
56960SOL    HW172777  13.061  12.693   6.588
56960SOL    HW272778  13.025  12.839   6.596
56961SOL     OW72779   7.901   6.445   3.399
56961SOL    HW172780   7.932   6.370   3.348
56961SOL    HW272781   7.966   6.454   3.469
56962SOL     OW72782   7.859  13.937   1.119
56962SOL    HW172783   7.870  13.877   1.193
56962SOL    HW272784   7.940  13.931   1.070
56963SOL     OW72785   1.716   8.848   7.806
56963SOL    HW172786   1.677   8.911   7.745
56963SOL    HW272787   1.739   8.773   7.752
56964SOL     OW72788   3.894   8.316   1.515
56964SOL    HW172789   3.805   8.290   1.541
56964SOL    HW272790   3.883   8.354   1.428
56965SOL     OW72791  11.085  10.129   2.392
56965SOL    HW172792  11.159  10.070   2.406
56965SOL    HW272793  11.098  10.199   2.456
56966SOL     OW72794  14.446   0.720   7.190
56966SOL    HW172795  14.489   0.794   7.148
56966SOL    HW272796  14.354   0.727   7.164
56967SOL     OW72797   1.097   4.319  13.511
56967SOL    HW172798   1.169   4.349  13.455
56967SOL    HW272799   1.107   4.368  13.592
56968SOL     OW72800   8.094   3.390   0.201
56968SOL    HW172801   8.071   3.476   0.166
56968SOL    HW272802   8.183   3.401   0.234
56969SOL     OW72803   5.656   9.304   2.986
56969SOL    HW172804   5.643   9.270   3.074
56969SOL    HW272805   5.700   9.388   2.999
56970SOL     OW72806  11.741   4.748   9.278
56970SOL    HW172807  11.770   4.660   9.254
56970SOL    HW272808  11.714   4.788   9.195
56971SOL     OW72809   3.238   7.867  12.665
56971SOL    HW172810   3.153   7.897  12.632
56971SOL    HW272811   3.245   7.776  12.637
56972SOL     OW72812  12.784   4.953   2.880
56972SOL    HW172813  12.736   4.871   2.888
56972SOL    HW272814  12.876   4.929   2.894
56973SOL     OW72815   4.715   5.619  10.292
56973SOL    HW172816   4.778   5.590  10.358
56973SOL    HW272817   4.653   5.674  10.340
56974SOL     OW72818  13.882   9.248  12.697
56974SOL    HW172819  13.954   9.191  12.668
56974SOL    HW272820  13.865   9.305  12.623
56975SOL     OW72821  14.786   5.968   3.865
56975SOL    HW172822  14.783   5.941   3.956
56975SOL    HW272823  14.730   5.905   3.819
56976SOL     OW72824  10.765   5.339   5.327
56976SOL    HW172825  10.818   5.259   5.330
56976SOL    HW272826  10.755   5.364   5.419
56977SOL     OW72827   5.252  12.925   6.164
56977SOL    HW172828   5.194  12.856   6.133
56977SOL    HW272829   5.203  13.006   6.149
56978SOL     OW72830  14.550  12.212  14.557
56978SOL    HW172831  14.500  12.294  14.561
56978SOL    HW272832  14.484  12.143  14.565
56979SOL     OW72833   1.530  12.597   1.661
56979SOL    HW172834   1.469  12.534   1.622
56979SOL    HW272835   1.582  12.545   1.722
56980SOL     OW72836   7.756  11.888   8.006
56980SOL    HW172837   7.781  11.977   8.032
56980SOL    HW272838   7.662  11.894   7.986
56981SOL     OW72839   3.287   0.291   0.675
56981SOL    HW172840   3.195   0.266   0.667
56981SOL    HW272841   3.284   0.385   0.694
56982SOL     OW72842  13.698   5.112   0.739
56982SOL    HW172843  13.619   5.105   0.685
56982SOL    HW272844  13.666   5.116   0.829
56983SOL     OW72845   6.228   9.863   5.893
56983SOL    HW172846   6.250   9.848   5.801
56983SOL    HW272847   6.165   9.794   5.914
56984SOL     OW72848   3.651  11.020   8.700
56984SOL    HW172849   3.672  10.996   8.791
56984SOL    HW272850   3.592  10.951   8.671
56985SOL     OW72851   0.278   5.138  10.901
56985SOL    HW172852   0.294   5.105  10.812
56985SOL    HW272853   0.187   5.115  10.919
56986SOL     OW72854   7.563   9.664   7.965
56986SOL    HW172855   7.507   9.619   8.029
56986SOL    HW272856   7.519   9.748   7.950
56987SOL     OW72857   9.660   0.663   7.277
56987SOL    HW172858   9.595   0.726   7.245
56987SOL    HW272859   9.667   0.682   7.371
56988SOL     OW72860   3.604   7.723   2.120
56988SOL    HW172861   3.585   7.651   2.180
56988SOL    HW272862   3.697   7.743   2.134
56989SOL     OW72863   4.911   3.154  14.200
56989SOL    HW172864   4.859   3.076  14.217
56989SOL    HW272865   4.976   3.125  14.135
56990SOL     OW72866  14.065  12.152  13.189
56990SOL    HW172867  14.052  12.066  13.149
56990SOL    HW272868  14.108  12.134  13.272
56991SOL     OW72869  12.144   9.545  13.753
56991SOL    HW172870  12.138   9.566  13.846
56991SOL    HW272871  12.220   9.488  13.746
56992SOL     OW72872   0.876   8.914   3.440
56992SOL    HW172873   0.848   8.830   3.404
56992SOL    HW272874   0.940   8.891   3.507
56993SOL     OW72875   0.298   3.079   0.474
56993SOL    HW172876   0.278   2.997   0.519
56993SOL    HW272877   0.219   3.132   0.484
56994SOL     OW72878   1.504  12.165   9.875
56994SOL    HW172879   1.453  12.239   9.844
56994SOL    HW272880   1.494  12.167   9.970
56995SOL     OW72881   9.608   3.509  11.395
56995SOL    HW172882   9.677   3.532  11.458
56995SOL    HW272883   9.580   3.593  11.358
56996SOL     OW72884   0.455   2.408   2.570
56996SOL    HW172885   0.379   2.456   2.537
56996SOL    HW272886   0.431   2.316   2.561
56997SOL     OW72887   8.660   4.377  11.807
56997SOL    HW172888   8.704   4.389  11.722
56997SOL    HW272889   8.688   4.453  11.859
56998SOL     OW72890   8.047   0.795   7.369
56998SOL    HW172891   8.048   0.883   7.408
56998SOL    HW272892   8.024   0.811   7.277
56999SOL     OW72893   7.600   0.144   3.724
56999SOL    HW172894   7.646   0.072   3.680
56999SOL    HW272895   7.619   0.132   3.817
57000SOL     OW72896   1.219   1.525   9.367
57000SOL    HW172897   1.274   1.584   9.419
57000SOL    HW272898   1.253   1.534   9.278
57001SOL     OW72899  14.295   8.786   3.551
57001SOL    HW172900  14.234   8.857   3.531
57001SOL    HW272901  14.238   8.710   3.568
57002SOL     OW72902   3.201   3.620  13.210
57002SOL    HW172903   3.197   3.577  13.295
57002SOL    HW272904   3.116   3.603  13.170
57003SOL     OW72905   5.505  12.526  11.505
57003SOL    HW172906   5.499  12.571  11.589
57003SOL    HW272907   5.422  12.479  11.497
57004SOL     OW72908  12.697   4.658   0.144
57004SOL    HW172909  12.680   4.593   0.212
57004SOL    HW272910  12.777   4.702   0.172
57005SOL     OW72911  12.992  11.301   3.269
57005SOL    HW172912  13.024  11.258   3.191
57005SOL    HW272913  12.958  11.385   3.238
57006SOL     OW72914   6.359   5.923   8.029
57006SOL    HW172915   6.357   6.014   7.999
57006SOL    HW272916   6.359   5.929   8.124
57007SOL     OW72917   9.880  13.992   7.733
57007SOL    HW172918   9.818  13.964   7.667
57007SOL    HW272919   9.912  14.077   7.702
57008SOL     OW72920   5.385   0.992   6.405
57008SOL    HW172921   5.317   1.004   6.338
57008SOL    HW272922   5.446   1.064   6.390
57009SOL     OW72923  12.917   4.225  11.047
57009SOL    HW172924  12.855   4.202  10.979
57009SOL    HW272925  12.928   4.320  11.039
57010SOL     OW72926  10.327  10.095  13.106
57010SOL    HW172927  10.359  10.112  13.195
57010SOL    HW272928  10.384  10.147  13.049
57011SOL     OW72929  13.846   4.131   1.957
57011SOL    HW172930  13.933   4.169   1.971
57011SOL    HW272931  13.842   4.057   2.017
57012SOL     OW72932  13.136   3.676   0.976
57012SOL    HW172933  13.144   3.623   0.897
57012SOL    HW272934  13.071   3.630   1.029
57013SOL     OW72935  11.253  11.523   1.287
57013SOL    HW172936  11.306  11.524   1.207
57013SOL    HW272937  11.304  11.472   1.350
57014SOL     OW72938   4.013   8.893   4.390
57014SOL    HW172939   4.025   8.979   4.431
57014SOL    HW272940   4.075   8.836   4.436
57015SOL     OW72941   4.304   3.159  11.399
57015SOL    HW172942   4.255   3.091  11.447
57015SOL    HW272943   4.357   3.202  11.466
57016SOL     OW72944  14.232  11.435   4.635
57016SOL    HW172945  14.272  11.354   4.603
57016SOL    HW272946  14.256  11.501   4.571
57017SOL     OW72947   9.673  12.729   5.578
57017SOL    HW172948   9.596  12.672   5.589
57017SOL    HW272949   9.636  12.818   5.581
57018SOL     OW72950   3.739   5.931  14.729
57018SOL    HW172951   3.825   5.898  14.755
57018SOL    HW272952   3.750   5.956  14.637
57019SOL     OW72953  10.252  10.052   9.216
57019SOL    HW172954  10.223  10.088   9.300
57019SOL    HW272955  10.171  10.032   9.169
57020SOL     OW72956   6.943  11.389   7.233
57020SOL    HW172957   7.027  11.348   7.253
57020SOL    HW272958   6.913  11.426   7.316
57021SOL     OW72959  12.169   5.814  10.557
57021SOL    HW172960  12.262   5.813  10.577
57021SOL    HW272961  12.157   5.889  10.499
57022SOL     OW72962  13.677   0.331  10.098
57022SOL    HW172963  13.715   0.378  10.172
57022SOL    HW272964  13.710   0.376  10.021
57023SOL     OW72965  11.865  14.516  12.448
57023SOL    HW172966  11.880  14.519  12.354
57023SOL    HW272967  11.778  14.552  12.461
57024SOL     OW72968   5.384   1.682   1.830
57024SOL    HW172969   5.470   1.717   1.855
57024SOL    HW272970   5.398   1.642   1.745
57025SOL     OW72971   5.023   5.716   6.546
57025SOL    HW172972   4.943   5.760   6.519
57025SOL    HW272973   5.037   5.746   6.636
57026SOL     OW72974  11.918   0.789   9.093
57026SOL    HW172975  11.994   0.750   9.137
57026SOL    HW272976  11.926   0.883   9.111
57027SOL     OW72977  10.411  10.583  12.068
57027SOL    HW172978  10.395  10.677  12.079
57027SOL    HW272979  10.454  10.576  11.983
57028SOL     OW72980  14.109   1.057   3.773
57028SOL    HW172981  14.155   1.140   3.763
57028SOL    HW272982  14.177   0.996   3.803
57029SOL     OW72983   2.206   1.532  12.475
57029SOL    HW172984   2.120   1.530  12.517
57029SOL    HW272985   2.265   1.565  12.543
57030SOL     OW72986   1.172   2.552   4.592
57030SOL    HW172987   1.190   2.510   4.508
57030SOL    HW272988   1.246   2.528   4.648
57031SOL     OW72989  13.745  14.364   9.186
57031SOL    HW172990  13.783  14.314   9.113
57031SOL    HW272991  13.698  14.299   9.238
57032SOL     OW72992   9.304   6.856   1.331
57032SOL    HW172993   9.289   6.930   1.273
57032SOL    HW272994   9.346   6.894   1.408
57033SOL     OW72995   9.153   8.630  14.042
57033SOL    HW172996   9.239   8.642  14.083
57033SOL    HW272997   9.171   8.626  13.948
57034SOL     OW72998  10.428   3.904   9.307
57034SOL    HW172999  10.402   3.989   9.271
57034SOL    HW273000  10.354   3.877   9.361
57035SOL     OW73001   7.057   7.124  13.737
57035SOL    HW173002   7.093   7.182  13.805
57035SOL    HW273003   7.128   7.114  13.674
57036SOL     OW73004   0.834  12.195   4.344
57036SOL    HW173005   0.900  12.262   4.328
57036SOL    HW273006   0.796  12.178   4.257
57037SOL     OW73007  13.964   3.517   8.882
57037SOL    HW173008  14.026   3.565   8.827
57037SOL    HW273009  13.959   3.568   8.963
57038SOL     OW73010  12.499   8.550   3.580
57038SOL    HW173011  12.488   8.509   3.495
57038SOL    HW273012  12.593   8.567   3.586
57039SOL     OW73013   9.497  10.339   8.699
57039SOL    HW173014   9.437  10.336   8.625
57039SOL    HW273015   9.571  10.391   8.668
57040SOL     OW73016   8.806  10.936   3.313
57040SOL    HW173017   8.802  10.920   3.407
57040SOL    HW273018   8.855  10.861   3.277
57041SOL     OW73019   1.493   3.334   1.668
57041SOL    HW173020   1.408   3.369   1.641
57041SOL    HW273021   1.471   3.254   1.715
57042SOL     OW73022   8.972   7.836   7.718
57042SOL    HW173023   8.893   7.822   7.770
57042SOL    HW273024   8.988   7.751   7.676
57043SOL     OW73025   8.683   5.268   1.488
57043SOL    HW173026   8.705   5.250   1.580
57043SOL    HW273027   8.629   5.194   1.461
57044SOL     OW73028   1.196   8.444   0.197
57044SOL    HW173029   1.138   8.502   0.245
57044SOL    HW273030   1.140   8.370   0.172
57045SOL     OW73031   1.348  11.341  12.677
57045SOL    HW173032   1.386  11.253  12.676
57045SOL    HW273033   1.390  11.386  12.604
57046SOL     OW73034   1.051  12.635   2.938
57046SOL    HW173035   1.011  12.558   2.898
57046SOL    HW273036   0.979  12.678   2.985
57047SOL     OW73037   7.622   0.790   7.410
57047SOL    HW173038   7.640   0.789   7.317
57047SOL    HW273039   7.528   0.769   7.417
57048SOL     OW73040   0.885  11.573   5.140
57048SOL    HW173041   0.947  11.616   5.081
57048SOL    HW273042   0.890  11.481   5.117
57049SOL     OW73043  10.736   8.634   2.810
57049SOL    HW173044  10.799   8.567   2.783
57049SOL    HW273045  10.784   8.688   2.872
57050SOL     OW73046   5.560   7.105   2.385
57050SOL    HW173047   5.605   7.124   2.467
57050SOL    HW273048   5.498   7.035   2.406
57051SOL     OW73049   3.029   7.689   7.296
57051SOL    HW173050   3.002   7.731   7.377
57051SOL    HW273051   3.075   7.610   7.324
57052SOL     OW73052  12.189   9.546   1.683
57052SOL    HW173053  12.241   9.618   1.646
57052SOL    HW273054  12.203   9.553   1.777
57053SOL     OW73055  12.212   4.112   8.946
57053SOL    HW173056  12.277   4.178   8.969
57053SOL    HW273057  12.232   4.038   9.003
57054SOL     OW73058  10.989   4.304   3.557
57054SOL    HW173059  11.074   4.295   3.514
57054SOL    HW273060  11.008   4.348   3.640
57055SOL     OW73061   0.021   4.524   3.413
57055SOL    HW173062  14.831   4.523   3.343
57055SOL    HW273063   0.012   4.610   3.453
57056SOL     OW73064   8.790   2.628  12.968
57056SOL    HW173065   8.828   2.598  13.050
57056SOL    HW273066   8.696   2.629  12.983
57057SOL     OW73067   1.852   1.185   2.439
57057SOL    HW173068   1.892   1.220   2.360
57057SOL    HW273069   1.924   1.184   2.503
57058SOL     OW73070   7.972   9.245   8.791
57058SOL    HW173071   7.937   9.233   8.879
57058SOL    HW273072   8.027   9.323   8.798
57059SOL     OW73073  12.028  10.229   5.149
57059SOL    HW173074  12.070  10.291   5.089
57059SOL    HW273075  12.084  10.228   5.226
57060SOL     OW73076  12.209   6.553   0.275
57060SOL    HW173077  12.236   6.538   0.184
57060SOL    HW273078  12.123   6.512   0.282
57061SOL     OW73079   4.226   4.797   7.310
57061SOL    HW173080   4.263   4.710   7.325
57061SOL    HW273081   4.138   4.793   7.347
57062SOL     OW73082  13.088  13.669   1.172
57062SOL    HW173083  13.048  13.674   1.085
57062SOL    HW273084  13.119  13.758   1.189
57063SOL     OW73085  13.186  12.069   0.881
57063SOL    HW173086  13.183  12.137   0.948
57063SOL    HW273087  13.210  12.115   0.800
57064SOL     OW73088   6.601  10.448  14.627
57064SOL    HW173089   6.627  10.432  14.536
57064SOL    HW273090   6.680  10.431  14.678
57065SOL     OW73091  11.220   4.349  10.579
57065SOL    HW173092  11.196   4.441  10.566
57065SOL    HW273093  11.263   4.347  10.664
57066SOL     OW73094   3.021   2.152   4.155
57066SOL    HW173095   2.929   2.168   4.173
57066SOL    HW273096   3.036   2.062   4.184
57067SOL     OW73097   9.749   7.767  12.209
57067SOL    HW173098   9.840   7.797  12.217
57067SOL    HW273099   9.748   7.683  12.256
57068SOL     OW73100   9.017   8.764  10.447
57068SOL    HW173101   9.046   8.762  10.539
57068SOL    HW273102   9.083   8.817  10.403
57069SOL     OW73103  11.095   5.349   8.933
57069SOL    HW173104  11.191   5.345   8.925
57069SOL    HW273105  11.068   5.258   8.944
57070SOL     OW73106   8.262   3.911   0.933
57070SOL    HW173107   8.215   3.871   1.007
57070SOL    HW273108   8.287   3.998   0.964
57071SOL     OW73109  10.191   0.222  13.117
57071SOL    HW173110  10.159   0.249  13.031
57071SOL    HW273111  10.111   0.201  13.166
57072SOL     OW73112   6.776   4.473   3.626
57072SOL    HW173113   6.738   4.538   3.685
57072SOL    HW273114   6.850   4.436   3.676
57073SOL     OW73115   5.628   6.253  10.946
57073SOL    HW173116   5.636   6.231  11.039
57073SOL    HW273117   5.704   6.308  10.929
57074SOL     OW73118  10.886   7.354   9.683
57074SOL    HW173119  10.799   7.314   9.687
57074SOL    HW273120  10.941   7.297   9.737
57075SOL     OW73121   3.096  12.205  11.269
57075SOL    HW173122   3.123  12.190  11.178
57075SOL    HW273123   3.097  12.118  11.309
57076SOL     OW73124  10.414   5.314  10.314
57076SOL    HW173125  10.394   5.220  10.313
57076SOL    HW273126  10.409   5.340  10.222
57077SOL     OW73127   7.379   1.298   6.645
57077SOL    HW173128   7.406   1.389   6.660
57077SOL    HW273129   7.352   1.296   6.554
57078SOL     OW73130   8.406   7.114   0.657
57078SOL    HW173131   8.367   7.091   0.741
57078SOL    HW273132   8.349   7.074   0.592
57079SOL     OW73133  10.269   4.754   1.933
57079SOL    HW173134  10.356   4.719   1.917
57079SOL    HW273135  10.209   4.683   1.909
57080SOL     OW73136  11.138   5.447  10.985
57080SOL    HW173137  11.148   5.542  10.990
57080SOL    HW273138  11.213   5.417  10.934
57081SOL     OW73139   9.316  14.348  13.108
57081SOL    HW173140   9.319  14.329  13.202
57081SOL    HW273141   9.372  14.424  13.097
57082SOL     OW73142   3.775   5.925   5.704
57082SOL    HW173143   3.727   5.954   5.626
57082SOL    HW273144   3.707   5.916   5.771
57083SOL     OW73145   0.576  13.115   8.045
57083SOL    HW173146   0.606  13.151   7.962
57083SOL    HW273147   0.625  13.165   8.111
57084SOL     OW73148   3.633  13.541   2.715
57084SOL    HW173149   3.600  13.452   2.707
57084SOL    HW273150   3.562  13.590   2.756
57085SOL     OW73151  10.350  11.768   7.203
57085SOL    HW173152  10.261  11.751   7.173
57085SOL    HW273153  10.349  11.745   7.296
57086SOL     OW73154   6.473  14.109  14.097
57086SOL    HW173155   6.418  14.064  14.034
57086SOL    HW273156   6.455  14.066  14.181
57087SOL     OW73157   0.647   8.918   4.445
57087SOL    HW173158   0.578   8.851   4.441
57087SOL    HW273159   0.705   8.897   4.372
57088SOL     OW73160  11.671  12.972   7.208
57088SOL    HW173161  11.754  13.019   7.199
57088SOL    HW273162  11.637  12.999   7.294
57089SOL     OW73163  13.008   8.662   1.174
57089SOL    HW173164  12.980   8.751   1.194
57089SOL    HW273165  12.968   8.643   1.089
57090SOL     OW73166   2.488   9.892   8.242
57090SOL    HW173167   2.483   9.885   8.338
57090SOL    HW273168   2.498   9.986   8.227
57091SOL     OW73169  11.726   8.305   6.421
57091SOL    HW173170  11.685   8.381   6.462
57091SOL    HW273171  11.757   8.337   6.336
57092SOL     OW73172   7.851   2.877   4.324
57092SOL    HW173173   7.859   2.966   4.357
57092SOL    HW273174   7.929   2.863   4.271
57093SOL     OW73175   6.075   1.115   5.208
57093SOL    HW173176   6.003   1.055   5.226
57093SOL    HW273177   6.033   1.198   5.186
57094SOL     OW73178   1.692  11.583   8.759
57094SOL    HW173179   1.641  11.662   8.740
57094SOL    HW273180   1.768  11.616   8.808
57095SOL     OW73181   1.414  11.404   2.065
57095SOL    HW173182   1.461  11.416   2.147
57095SOL    HW273183   1.469  11.343   2.015
57096SOL     OW73184  12.858   8.606   1.680
57096SOL    HW173185  12.784   8.611   1.620
57096SOL    HW273186  12.916   8.678   1.654
57097SOL     OW73187   4.912   0.600   0.088
57097SOL    HW173188   4.959   0.560   0.015
57097SOL    HW273189   4.977   0.609   0.157
57098SOL     OW73190  14.701   1.210  14.847
57098SOL    HW173191  14.692   1.287  14.790
57098SOL    HW273192  14.793   1.184  14.837
57099SOL     OW73193   1.554  10.668  11.342
57099SOL    HW173194   1.615  10.722  11.293
57099SOL    HW273195   1.492  10.636  11.277
57100SOL     OW73196   4.793   4.809  12.745
57100SOL    HW173197   4.703   4.838  12.732
57100SOL    HW273198   4.812   4.755  12.669
57101SOL     OW73199   9.467   8.304   6.458
57101SOL    HW173200   9.443   8.279   6.548
57101SOL    HW273201   9.387   8.343   6.423
57102SOL     OW73202  11.468   7.298   6.136
57102SOL    HW173203  11.497   7.363   6.201
57102SOL    HW273204  11.466   7.347   6.054
57103SOL     OW73205   9.603   6.480   9.258
57103SOL    HW173206   9.664   6.407   9.268
57103SOL    HW273207   9.656   6.550   9.218
57104SOL     OW73208  14.781   7.466   4.650
57104SOL    HW173209  14.702   7.519   4.649
57104SOL    HW273210  14.791   7.437   4.559
57105SOL     OW73211   2.953   9.978  10.893
57105SOL    HW173212   2.898   9.900  10.899
57105SOL    HW273213   2.920  10.036  10.962
57106SOL     OW73214   4.242   4.044  12.550
57106SOL    HW173215   4.334   4.067  12.539
57106SOL    HW273216   4.194   4.106  12.494
57107SOL     OW73217   5.100   9.836   1.368
57107SOL    HW173218   5.020   9.793   1.339
57107SOL    HW273219   5.079   9.870   1.455
57108SOL     OW73220   1.465   4.721  14.842
57108SOL    HW173221   1.417   4.751   0.044
57108SOL    HW273222   1.480   4.801  14.791
57109SOL     OW73223   1.519  11.147   6.644
57109SOL    HW173224   1.470  11.202   6.706
57109SOL    HW273225   1.577  11.094   6.699
57110SOL     OW73226   4.559   3.718  11.799
57110SOL    HW173227   4.495   3.651  11.779
57110SOL    HW273228   4.509   3.800  11.798
57111SOL     OW73229   1.240   6.699  12.540
57111SOL    HW173230   1.147   6.702  12.517
57111SOL    HW273231   1.241   6.705  12.636
57112SOL     OW73232  13.466  11.570   5.976
57112SOL    HW173233  13.403  11.585   6.046
57112SOL    HW273234  13.488  11.477   5.983
57113SOL     OW73235  11.369  14.868  10.165
57113SOL    HW173236  11.418  14.788  10.183
57113SOL    HW273237  11.289  14.858  10.216
57114SOL     OW73238   6.820   2.414   4.932
57114SOL    HW173239   6.780   2.359   4.864
57114SOL    HW273240   6.814   2.363   5.012
57115SOL     OW73241   2.787   5.809   7.800
57115SOL    HW173242   2.778   5.725   7.756
57115SOL    HW273243   2.740   5.799   7.882
57116SOL     OW73244   4.622  14.310  14.126
57116SOL    HW173245   4.571  14.304  14.045
57116SOL    HW273246   4.660  14.398  14.124
57117SOL     OW73247   9.191   1.429   0.383
57117SOL    HW173248   9.180   1.456   0.292
57117SOL    HW273249   9.245   1.498   0.422
57118SOL     OW73250   1.900   5.588  13.576
57118SOL    HW173251   1.885   5.649  13.649
57118SOL    HW273252   1.910   5.503  13.618
57119SOL     OW73253   5.433   8.873   6.162
57119SOL    HW173254   5.478   8.902   6.083
57119SOL    HW273255   5.487   8.906   6.234
57120SOL     OW73256   9.389  10.334   1.652
57120SOL    HW173257   9.373  10.290   1.568
57120SOL    HW273258   9.355  10.423   1.639
57121SOL     OW73259   3.206   2.059   8.459
57121SOL    HW173260   3.114   2.060   8.485
57121SOL    HW273261   3.248   1.995   8.517
57122SOL     OW73262  12.658  14.810  12.985
57122SOL    HW173263  12.706  14.865  12.923
57122SOL    HW273264  12.722  14.744  13.012
57123SOL     OW73265   0.356  11.953  13.248
57123SOL    HW173266   0.429  11.973  13.190
57123SOL    HW273267   0.283  11.935  13.189
57124SOL     OW73268   5.202  12.002   3.922
57124SOL    HW173269   5.118  12.033   3.955
57124SOL    HW273270   5.262  12.075   3.938
57125SOL     OW73271  10.173   5.470   1.887
57125SOL    HW173272  10.194   5.401   1.823
57125SOL    HW273273  10.169   5.550   1.835
57126SOL     OW73274   9.967  13.787   5.641
57126SOL    HW173275  10.022  13.727   5.691
57126SOL    HW273276   9.941  13.853   5.705
57127SOL     OW73277  14.073  12.535  14.850
57127SOL    HW173278  13.987  12.572  14.866
57127SOL    HW273279  14.134  12.607  14.867
57128SOL     OW73280  10.609   3.396  11.960
57128SOL    HW173281  10.558   3.467  11.999
57128SOL    HW273282  10.685   3.439  11.922
57129SOL     OW73283  10.793   4.980  10.135
57129SOL    HW173284  10.818   4.960  10.225
57129SOL    HW273285  10.710   4.935  10.123
57130SOL     OW73286   7.188   6.840   8.929
57130SOL    HW173287   7.262   6.804   8.977
57130SOL    HW273288   7.201   6.809   8.839
57131SOL     OW73289   6.100   1.381  10.433
57131SOL    HW173290   6.139   1.320  10.370
57131SOL    HW273291   6.127   1.468  10.403
57132SOL     OW73292   4.681   9.074   7.532
57132SOL    HW173293   4.691   9.019   7.454
57132SOL    HW273294   4.611   9.136   7.510
57133SOL     OW73295  12.485  14.377   7.265
57133SOL    HW173296  12.521  14.333   7.189
57133SOL    HW273297  12.560  14.422   7.304
57134SOL     OW73298   8.975   0.162   8.421
57134SOL    HW173299   8.965   0.254   8.443
57134SOL    HW273300   8.888   0.124   8.431
57135SOL     OW73301   7.085  10.758   2.820
57135SOL    HW173302   6.994  10.780   2.802
57135SOL    HW273303   7.128  10.763   2.734
57136SOL     OW73304   7.563   6.818  11.021
57136SOL    HW173305   7.560   6.852  11.110
57136SOL    HW273306   7.529   6.729  11.027
57137SOL     OW73307   0.304   5.570   5.523
57137SOL    HW173308   0.319   5.485   5.482
57137SOL    HW273309   0.209   5.578   5.530
57138SOL     OW73310   5.793  13.942   3.411
57138SOL    HW173311   5.739  14.014   3.443
57138SOL    HW273312   5.883  13.972   3.423
57139SOL     OW73313  14.554   0.181   1.865
57139SOL    HW173314  14.638   0.155   1.902
57139SOL    HW273315  14.536   0.116   1.798
57140SOL     OW73316   1.986   1.664   8.434
57140SOL    HW173317   2.003   1.690   8.524
57140SOL    HW273318   1.921   1.727   8.403
57141SOL     OW73319  10.872   8.355  10.265
57141SOL    HW173320  10.839   8.278  10.219
57141SOL    HW273321  10.795   8.395  10.304
57142SOL     OW73322   4.281   1.439  13.514
57142SOL    HW173323   4.335   1.516  13.498
57142SOL    HW273324   4.312   1.405  13.598
57143SOL     OW73325   8.633   2.879  14.466
57143SOL    HW173326   8.690   2.810  14.434
57143SOL    HW273327   8.690   2.938  14.515
57144SOL     OW73328   1.057   7.643  10.682
57144SOL    HW173329   1.123   7.705  10.650
57144SOL    HW273330   1.028   7.596  10.603
57145SOL     OW73331  11.770   0.665   7.709
57145SOL    HW173332  11.711   0.596   7.679
57145SOL    HW273333  11.756   0.737   7.648
57146SOL     OW73334   0.198  12.827   9.106
57146SOL    HW173335   0.270  12.865   9.157
57146SOL    HW273336   0.125  12.825   9.166
57147SOL     OW73337  12.883   7.249  13.257
57147SOL    HW173338  12.877   7.332  13.211
57147SOL    HW273339  12.967   7.251  13.301
57148SOL     OW73340  10.077   5.537   9.421
57148SOL    HW173341  10.129   5.457   9.411
57148SOL    HW273342  10.097   5.588   9.343
57149SOL     OW73343   7.486   6.226   6.994
57149SOL    HW173344   7.512   6.272   6.914
57149SOL    HW273345   7.458   6.296   7.053
57150SOL     OW73346  12.519   6.958   6.350
57150SOL    HW173347  12.533   6.873   6.391
57150SOL    HW273348  12.605   6.982   6.315
57151SOL     OW73349   0.871   5.023   6.931
57151SOL    HW173350   0.821   5.104   6.938
57151SOL    HW273351   0.877   4.991   7.021
57152SOL     OW73352   9.017   8.766   4.795
57152SOL    HW173353   8.950   8.792   4.731
57152SOL    HW273354   9.008   8.671   4.802
57153SOL     OW73355   1.377   1.028  14.781
57153SOL    HW173356   1.402   0.946  14.738
57153SOL    HW273357   1.302   1.005  14.835
57154SOL     OW73358   9.022  10.806   0.567
57154SOL    HW173359   9.049  10.894   0.539
57154SOL    HW273360   8.953  10.782   0.504
57155SOL     OW73361   9.946  14.447   4.916
57155SOL    HW173362   9.891  14.493   4.852
57155SOL    HW273363   9.886  14.389   4.962
57156SOL     OW73364   0.794   2.767  12.067
57156SOL    HW173365   0.755   2.852  12.047
57156SOL    HW273366   0.814   2.729  11.982
57157SOL     OW73367   4.105  14.755   4.127
57157SOL    HW173368   4.018  14.719   4.146
57157SOL    HW273369   4.106  14.840   4.171
57158SOL     OW73370   0.551  12.525   5.123
57158SOL    HW173371   0.483  12.591   5.103
57158SOL    HW273372   0.550  12.518   5.218
57159SOL     OW73373   9.843   4.904   2.960
57159SOL    HW173374   9.880   4.959   2.891
57159SOL    HW273375   9.907   4.834   2.972
57160SOL     OW73376   0.081  10.547   1.685
57160SOL    HW173377   0.169  10.555   1.720
57160SOL    HW273378   0.073  10.456   1.657
57161SOL     OW73379   6.759   7.062   2.319
57161SOL    HW173380   6.786   7.096   2.234
57161SOL    HW273381   6.666   7.043   2.309
57162SOL     OW73382  11.228   5.478   7.726
57162SOL    HW173383  11.243   5.534   7.650
57162SOL    HW273384  11.148   5.429   7.704
57163SOL     OW73385  13.837   9.430   5.957
57163SOL    HW173386  13.858   9.425   6.050
57163SOL    HW273387  13.797   9.345   5.936
57164SOL     OW73388   4.493   3.520  12.583
57164SOL    HW173389   4.471   3.608  12.611
57164SOL    HW273390   4.568   3.496  12.638
57165SOL     OW73391  11.505   6.268   7.854
57165SOL    HW173392  11.412   6.246   7.863
57165SOL    HW273393  11.528   6.239   7.766
57166SOL     OW73394  14.511  12.970   2.598
57166SOL    HW173395  14.435  12.986   2.655
57166SOL    HW273396  14.531  13.055   2.560
57167SOL     OW73397  10.290   1.904  13.567
57167SOL    HW173398  10.302   1.972  13.499
57167SOL    HW273399  10.251   1.951  13.640
57168SOL     OW73400   3.487   2.810   5.763
57168SOL    HW173401   3.522   2.747   5.699
57168SOL    HW273402   3.477   2.760   5.844
57169SOL     OW73403  13.228   9.130  12.840
57169SOL    HW173404  13.312   9.085  12.847
57169SOL    HW273405  13.218   9.175  12.924
57170SOL     OW73406  12.746   5.349   5.420
57170SOL    HW173407  12.731   5.263   5.458
57170SOL    HW273408  12.789   5.399   5.489
57171SOL     OW73409   5.410  11.141   8.274
57171SOL    HW173410   5.329  11.182   8.244
57171SOL    HW273411   5.424  11.068   8.214
57172SOL     OW73412   4.143  11.209  13.645
57172SOL    HW173413   4.230  11.194  13.608
57172SOL    HW273414   4.114  11.123  13.674
57173SOL     OW73415   8.770   1.993  11.690
57173SOL    HW173416   8.848   1.945  11.717
57173SOL    HW273417   8.791   2.027  11.603
57174SOL     OW73418   1.794   5.024   9.065
57174SOL    HW173419   1.851   4.969   9.117
57174SOL    HW273420   1.707   5.011   9.102
57175SOL     OW73421   4.900   9.919   2.484
57175SOL    HW173422   4.907  10.008   2.450
57175SOL    HW273423   4.837   9.876   2.426
57176SOL     OW73424   5.972  13.423   5.269
57176SOL    HW173425   5.983  13.436   5.363
57176SOL    HW273426   5.915  13.347   5.262
57177SOL     OW73427   7.670  13.856  12.742
57177SOL    HW173428   7.584  13.853  12.784
57177SOL    HW273429   7.696  13.948  12.749
57178SOL     OW73430   2.302   8.829  12.347
57178SOL    HW173431   2.226   8.771  12.344
57178SOL    HW273432   2.348   8.812  12.265
57179SOL     OW73433   3.144   0.920   0.557
57179SOL    HW173434   3.129   0.937   0.464
57179SOL    HW273435   3.072   0.863   0.583
57180SOL     OW73436  11.395  14.065  14.426
57180SOL    HW173437  11.435  13.991  14.379
57180SOL    HW273438  11.450  14.140  14.404
57181SOL     OW73439   8.851   0.222   0.163
57181SOL    HW173440   8.921   0.160   0.184
57181SOL    HW273441   8.839   0.273   0.244
57182SOL     OW73442  11.695   8.246  13.138
57182SOL    HW173443  11.718   8.326  13.186
57182SOL    HW273444  11.602   8.256  13.117
57183SOL     OW73445  11.881   6.240   1.899
57183SOL    HW173446  11.921   6.153   1.905
57183SOL    HW273447  11.938   6.296   1.952
57184SOL     OW73448  10.092  11.799   0.441
57184SOL    HW173449  10.106  11.854   0.364
57184SOL    HW273450  10.173  11.747   0.447
57185SOL     OW73451   3.242  12.678   9.406
57185SOL    HW173452   3.250  12.714   9.317
57185SOL    HW273453   3.166  12.620   9.402
57186SOL     OW73454  14.321   3.002   9.321
57186SOL    HW173455  14.256   3.008   9.391
57186SOL    HW273456  14.368   2.920   9.339
57187SOL     OW73457   9.544   8.518   6.037
57187SOL    HW173458   9.556   8.500   5.943
57187SOL    HW273459   9.633   8.529   6.070
57188SOL     OW73460   2.109   5.299   1.172
57188SOL    HW173461   2.146   5.263   1.091
57188SOL    HW273462   2.090   5.222   1.226
57189SOL     OW73463   0.237  10.396   6.569
57189SOL    HW173464   0.159  10.411   6.514
57189SOL    HW273465   0.201  10.369   6.654
57190SOL     OW73466  10.976   1.617   2.395
57190SOL    HW173467  10.944   1.541   2.444
57190SOL    HW273468  10.924   1.619   2.315
57191SOL     OW73469   1.884   6.258   6.783
57191SOL    HW173470   1.821   6.188   6.799
57191SOL    HW273471   1.906   6.250   6.691
57192SOL     OW73472   0.039  12.362  14.340
57192SOL    HW173473   0.115  12.308  14.363
57192SOL    HW273474   0.006  12.323  14.259
57193SOL     OW73475   7.951  13.347  10.428
57193SOL    HW173476   7.918  13.267  10.468
57193SOL    HW273477   7.877  13.380  10.377
57194SOL     OW73478   7.185   6.678   6.900
57194SOL    HW173479   7.092   6.655   6.897
57194SOL    HW273480   7.186   6.774   6.904
57195SOL     OW73481   3.144  13.290   6.270
57195SOL    HW173482   3.126  13.380   6.243
57195SOL    HW273483   3.067  13.240   6.242
57196SOL     OW73484   4.437   8.640   3.465
57196SOL    HW173485   4.353   8.595   3.454
57196SOL    HW273486   4.430   8.717   3.410
57197SOL     OW73487   0.523   2.154  12.042
57197SOL    HW173488   0.476   2.092  11.985
57197SOL    HW273489   0.582   2.201  11.983
57198SOL     OW73490  12.351   6.546  12.448
57198SOL    HW173491  12.297   6.588  12.382
57198SOL    HW273492  12.307   6.563  12.531
57199SOL     OW73493  12.612   4.866   0.615
57199SOL    HW173494  12.592   4.920   0.692
57199SOL    HW273495  12.532   4.866   0.563
57200SOL     OW73496   5.200  13.791  12.439
57200SOL    HW173497   5.230  13.803  12.529
57200SOL    HW273498   5.267  13.735  12.399
57201SOL     OW73499   9.979   3.008  14.680
57201SOL    HW173500  10.024   3.023  14.597
57201SOL    HW273501   9.969   3.095  14.717
57202SOL     OW73502   8.854   3.913  10.864
57202SOL    HW173503   8.852   3.901  10.769
57202SOL    HW273504   8.883   4.004  10.876
57203SOL     OW73505  13.440  12.859   1.258
57203SOL    HW173506  13.512  12.808   1.220
57203SOL    HW273507  13.439  12.835   1.350
57204SOL     OW73508  12.263   9.829   5.031
57204SOL    HW173509  12.189   9.831   5.091
57204SOL    HW273510  12.257   9.913   4.984
57205SOL     OW73511   9.434   0.390   9.219
57205SOL    HW173512   9.487   0.314   9.196
57205SOL    HW273513   9.453   0.454   9.151
57206SOL     OW73514   1.722   0.457   7.804
57206SOL    HW173515   1.722   0.550   7.824
57206SOL    HW273516   1.630   0.431   7.808
57207SOL     OW73517   6.302  13.494   9.855
57207SOL    HW173518   6.262  13.452   9.779
57207SOL    HW273519   6.303  13.425   9.922
57208SOL     OW73520   1.308   1.988  12.271
57208SOL    HW173521   1.244   2.058  12.283
57208SOL    HW273522   1.255   1.912  12.247
57209SOL     OW73523   4.523   4.776   9.826
57209SOL    HW173524   4.595   4.830   9.793
57209SOL    HW273525   4.463   4.837   9.867
57210SOL     OW73526   8.424   1.807  14.506
57210SOL    HW173527   8.357   1.868  14.475
57210SOL    HW273528   8.506   1.856  14.502
57211SOL     OW73529  11.535   2.844   3.746
57211SOL    HW173530  11.469   2.899   3.704
57211SOL    HW273531  11.551   2.774   3.682
57212SOL     OW73532   8.734   5.111   1.239
57212SOL    HW173533   8.790   5.118   1.316
57212SOL    HW273534   8.654   5.068   1.271
57213SOL     OW73535  11.963  13.056   1.224
57213SOL    HW173536  11.883  13.068   1.172
57213SOL    HW273537  12.022  13.124   1.192
57214SOL     OW73538   9.580   9.430   6.540
57214SOL    HW173539   9.644   9.421   6.611
57214SOL    HW273540   9.542   9.517   6.553
57215SOL     OW73541  11.632   5.725  13.083
57215SOL    HW173542  11.591   5.771  13.010
57215SOL    HW273543  11.611   5.779  13.159
57216SOL     OW73544   2.177   6.012   1.754
57216SOL    HW173545   2.167   6.091   1.807
57216SOL    HW273546   2.157   6.039   1.665
57217SOL     OW73547   1.324  12.706   0.821
57217SOL    HW173548   1.286  12.763   0.888
57217SOL    HW273549   1.378  12.765   0.768
57218SOL     OW73550   7.174   2.758   7.826
57218SOL    HW173551   7.220   2.681   7.794
57218SOL    HW273552   7.225   2.832   7.795
57219SOL     OW73553   2.339   0.834   8.690
57219SOL    HW173554   2.407   0.784   8.644
57219SOL    HW273555   2.319   0.782   8.767
57220SOL     OW73556   1.522  11.509  12.533
57220SOL    HW173557   1.523  11.548  12.620
57220SOL    HW273558   1.525  11.584  12.473
57221SOL     OW73559   9.585   1.617  14.652
57221SOL    HW173560   9.565   1.698  14.604
57221SOL    HW273561   9.578   1.548  14.586
57222SOL     OW73562   6.947   5.078  12.094
57222SOL    HW173563   6.997   5.139  12.039
57222SOL    HW273564   6.997   4.997  12.092
57223SOL     OW73565  10.360  13.357   5.391
57223SOL    HW173566  10.276  13.381   5.431
57223SOL    HW273567  10.346  13.268   5.360
57224SOL     OW73568  11.918   1.206  13.969
57224SOL    HW173569  11.879   1.294  13.970
57224SOL    HW273570  11.892   1.168  14.053
57225SOL     OW73571   4.086  11.790  14.265
57225SOL    HW173572   4.129  11.875  14.254
57225SOL    HW273573   4.114  11.760  14.352
57226SOL     OW73574   3.261  14.147  14.284
57226SOL    HW173575   3.184  14.205  14.278
57226SOL    HW273576   3.288  14.133  14.194
57227SOL     OW73577   5.216   0.528   9.491
57227SOL    HW173578   5.235   0.622   9.488
57227SOL    HW273579   5.133   0.520   9.444
57228SOL     OW73580   4.279  11.186   4.776
57228SOL    HW173581   4.323  11.252   4.831
57228SOL    HW273582   4.229  11.133   4.838
57229SOL     OW73583   9.912   7.042   8.468
57229SOL    HW173584  10.003   7.061   8.489
57229SOL    HW273585   9.914   7.013   8.377
57230SOL     OW73586   1.678   7.642   2.644
57230SOL    HW173587   1.753   7.686   2.684
57230SOL    HW273588   1.698   7.642   2.550
57231SOL     OW73589  13.983  13.667  14.127
57231SOL    HW173590  14.051  13.717  14.082
57231SOL    HW273591  13.956  13.722  14.200
57232SOL     OW73592   5.262  11.196   2.164
57232SOL    HW173593   5.295  11.171   2.077
57232SOL    HW273594   5.191  11.257   2.145
57233SOL     OW73595  10.422   1.635  10.309
57233SOL    HW173596  10.487   1.678  10.253
57233SOL    HW273597  10.435   1.542  10.293
57234SOL     OW73598   6.034   6.035  14.866
57234SOL    HW173599   6.106   5.974  14.855
57234SOL    HW273600   5.984   6.028  14.784
57235SOL     OW73601   1.046   8.872   8.388
57235SOL    HW173602   0.996   8.819   8.326
57235SOL    HW273603   1.133   8.832   8.389
57236SOL     OW73604   9.530   3.246  13.583
57236SOL    HW173605   9.623   3.253  13.559
57236SOL    HW273606   9.511   3.327  13.630
57237SOL     OW73607   2.451   4.593   9.251
57237SOL    HW173608   2.430   4.627   9.338
57237SOL    HW273609   2.498   4.511   9.268
57238SOL     OW73610   3.950   8.854  12.812
57238SOL    HW173611   3.953   8.791  12.885
57238SOL    HW273612   3.895   8.812  12.747
57239SOL     OW73613  13.971   3.115   8.215
57239SOL    HW173614  14.018   3.053   8.271
57239SOL    HW273615  13.990   3.200   8.253
57240SOL     OW73616  12.408  11.985   0.919
57240SOL    HW173617  12.373  12.009   0.833
57240SOL    HW273618  12.405  12.066   0.969
57241SOL     OW73619   5.276   7.424   4.431
57241SOL    HW173620   5.371   7.437   4.436
57241SOL    HW273621   5.252   7.392   4.518
57242SOL     OW73622   0.131   3.343   8.512
57242SOL    HW173623   0.085   3.271   8.468
57242SOL    HW273624   0.075   3.419   8.498
57243SOL     OW73625  13.734  13.536   4.418
57243SOL    HW173626  13.646  13.527   4.379
57243SOL    HW273627  13.793  13.510   4.347
57244SOL     OW73628   1.443   4.673  14.130
57244SOL    HW173629   1.353   4.703  14.116
57244SOL    HW273630   1.496   4.752  14.122
57245SOL     OW73631   3.517   6.538   0.165
57245SOL    HW173632   3.509   6.505   0.255
57245SOL    HW273633   3.477   6.469   0.111
57246SOL     OW73634   9.949  10.629   3.686
57246SOL    HW173635  10.005  10.572   3.635
57246SOL    HW273636   9.988  10.716   3.677
57247SOL     OW73637  10.731   7.039  13.500
57247SOL    HW173638  10.648   7.000  13.472
57247SOL    HW273639  10.727   7.036  13.596
57248SOL     OW73640   8.879   9.489  14.228
57248SOL    HW173641   8.944   9.509  14.161
57248SOL    HW273642   8.805   9.545  14.209
57249SOL     OW73643  13.974   3.501   8.029
57249SOL    HW173644  13.930   3.449   8.096
57249SOL    HW273645  13.933   3.475   7.947
57250SOL     OW73646   1.893  14.686  10.159
57250SOL    HW173647   1.841  14.611  10.189
57250SOL    HW273648   1.848  14.717  10.081
57251SOL     OW73649   9.748   7.754   1.134
57251SOL    HW173650   9.806   7.682   1.162
57251SOL    HW273651   9.746   7.813   1.210
57252SOL     OW73652   1.974  14.567   0.427
57252SOL    HW173653   1.883  14.539   0.440
57252SOL    HW273654   1.994  14.619   0.505
57253SOL     OW73655   6.541   4.192   3.542
57253SOL    HW173656   6.601   4.139   3.594
57253SOL    HW273657   6.530   4.273   3.592
57254SOL     OW73658  10.545  11.326   9.242
57254SOL    HW173659  10.618  11.274   9.275
57254SOL    HW273660  10.539  11.303   9.149
57255SOL     OW73661   6.806  11.426   6.777
57255SOL    HW173662   6.741  11.482   6.819
57255SOL    HW273663   6.890  11.456   6.812
57256SOL     OW73664  11.500   6.506  13.848
57256SOL    HW173665  11.536   6.493  13.936
57256SOL    HW273666  11.443   6.583  13.857
57257SOL     OW73667  11.105   3.337  10.005
57257SOL    HW173668  11.140   3.426   9.998
57257SOL    HW273669  11.058   3.323   9.922
57258SOL     OW73670   8.582   9.799   7.215
57258SOL    HW173671   8.594   9.867   7.282
57258SOL    HW273672   8.636   9.829   7.142
57259SOL     OW73673  13.282   6.655   2.533
57259SOL    HW173674  13.249   6.700   2.454
57259SOL    HW273675  13.313   6.726   2.589
57260SOL     OW73676   0.093   2.256   8.940
57260SOL    HW173677   0.100   2.162   8.959
57260SOL    HW273678   0.091   2.261   8.845
57261SOL     OW73679   5.332  14.496   0.328
57261SOL    HW173680   5.348  14.418   0.380
57261SOL    HW273681   5.236  14.506   0.327
57262SOL     OW73682  12.539   9.930   1.529
57262SOL    HW173683  12.588   9.882   1.462
57262SOL    HW273684  12.490   9.997   1.480
57263SOL     OW73685   5.547   1.407  11.634
57263SOL    HW173686   5.467   1.399  11.686
57263SOL    HW273687   5.614   1.364  11.687
57264SOL     OW73688  14.559   6.919   2.518
57264SOL    HW173689  14.640   6.913   2.468
57264SOL    HW273690  14.588   6.918   2.610
57265SOL     OW73691   9.074   5.180   5.487
57265SOL    HW173692   9.059   5.103   5.542
57265SOL    HW273693   9.127   5.239   5.541
57266SOL     OW73694   7.122   7.428  11.265
57266SOL    HW173695   7.192   7.365  11.248
57266SOL    HW273696   7.083   7.400  11.347
57267SOL     OW73697   2.210  14.104   2.220
57267SOL    HW173698   2.174  14.190   2.240
57267SOL    HW273699   2.177  14.083   2.133
57268SOL     OW73700  13.441   9.837  12.825
57268SOL    HW173701  13.460   9.837  12.919
57268SOL    HW273702  13.415   9.747  12.806
57269SOL     OW73703   7.353  11.512  13.702
57269SOL    HW173704   7.411  11.587  13.716
57269SOL    HW273705   7.300  11.508  13.781
57270SOL     OW73706   2.634  11.607   2.938
57270SOL    HW173707   2.682  11.583   3.017
57270SOL    HW273708   2.550  11.562   2.946
57271SOL     OW73709  10.976   3.791   1.478
57271SOL    HW173710  10.951   3.883   1.490
57271SOL    HW273711  11.042   3.775   1.546
57272SOL     OW73712   3.315  14.147   5.627
57272SOL    HW173713   3.293  14.064   5.669
57272SOL    HW273714   3.239  14.166   5.571
57273SOL     OW73715   8.508   9.199   6.716
57273SOL    HW173716   8.435   9.219   6.658
57273SOL    HW273717   8.501   9.105   6.733
57274SOL     OW73718  11.744  12.972   5.907
57274SOL    HW173719  11.736  12.885   5.868
57274SOL    HW273720  11.655  13.007   5.908
57275SOL     OW73721  14.835  11.999  12.280
57275SOL    HW173722   0.049  11.965  12.272
57275SOL    HW273723  14.784  11.926  12.313
57276SOL     OW73724   9.109   8.687  14.548
57276SOL    HW173725   9.111   8.742  14.626
57276SOL    HW273726   9.086   8.747  14.477
57277SOL     OW73727   0.910   5.310   0.702
57277SOL    HW173728   0.928   5.249   0.631
57277SOL    HW273729   0.896   5.394   0.659
57278SOL     OW73730   5.823   9.310  10.560
57278SOL    HW173731   5.861   9.392  10.590
57278SOL    HW273732   5.863   9.295  10.474
57279SOL     OW73733  12.960   8.401   3.368
57279SOL    HW173734  13.042   8.375   3.410
57279SOL    HW273735  12.932   8.324   3.320
57280SOL     OW73736  11.593   5.811   2.854
57280SOL    HW173737  11.545   5.852   2.926
57280SOL    HW273738  11.534   5.742   2.823
57281SOL     OW73739   1.108   5.083  13.179
57281SOL    HW173740   1.074   5.151  13.121
57281SOL    HW273741   1.070   5.002  13.146
57282SOL     OW73742  14.270   4.688   0.973
57282SOL    HW173743  14.343   4.729   1.019
57282SOL    HW273744  14.195   4.745   0.990
57283SOL     OW73745   3.709  14.370  11.814
57283SOL    HW173746   3.645  14.430  11.852
57283SOL    HW273747   3.709  14.390  11.721
57284SOL     OW73748   1.091   3.048  12.236
57284SOL    HW173749   1.148   3.088  12.301
57284SOL    HW273750   1.004   3.085  12.253
57285SOL     OW73751   8.577   5.838  12.544
57285SOL    HW173752   8.625   5.810  12.622
57285SOL    HW273753   8.623   5.917  12.515
57286SOL     OW73754   5.005   1.995  11.708
57286SOL    HW173755   5.012   2.090  11.697
57286SOL    HW273756   5.026   1.980  11.800
57287SOL     OW73757   9.425   7.628  14.364
57287SOL    HW173758   9.400   7.536  14.370
57287SOL    HW273759   9.519   7.627  14.350
57288SOL     OW73760   7.234  13.653  14.359
57288SOL    HW173761   7.138  13.655  14.361
57288SOL    HW273762   7.257  13.565  14.387
57289SOL     OW73763   9.289  13.226   8.754
57289SOL    HW173764   9.380  13.218   8.726
57289SOL    HW273765   9.282  13.168   8.830
57290SOL     OW73766   9.035   0.092  11.315
57290SOL    HW173767   8.981   0.023  11.354
57290SOL    HW273768   9.093   0.046  11.254
57291SOL     OW73769   5.785   7.840   8.775
57291SOL    HW173770   5.729   7.911   8.807
57291SOL    HW273771   5.842   7.881   8.710
57292SOL     OW73772  12.771  10.281   0.085
57292SOL    HW173773  12.691  10.292   0.034
57292SOL    HW273774  12.824  10.219   0.035
57293SOL     OW73775  12.108   4.675  12.136
57293SOL    HW173776  12.030   4.705  12.184
57293SOL    HW273777  12.075   4.604  12.081
57294SOL     OW73778  10.439   3.479  14.793
57294SOL    HW173779  10.414   3.547  14.855
57294SOL    HW273780  10.365   3.471  14.733
57295SOL     OW73781   9.834   6.919   4.379
57295SOL    HW173782   9.805   6.829   4.365
57295SOL    HW273783   9.911   6.929   4.323
57296SOL     OW73784   0.734   3.379   1.779
57296SOL    HW173785   0.673   3.307   1.764
57296SOL    HW273786   0.677   3.455   1.796
57297SOL     OW73787   0.228  11.864   9.903
57297SOL    HW173788   0.308  11.812   9.893
57297SOL    HW273789   0.241  11.939   9.846
57298SOL     OW73790   5.072   6.556  10.333
57298SOL    HW173791   5.021   6.633  10.311
57298SOL    HW273792   5.161   6.576  10.303
57299SOL     OW73793   1.189  12.501  10.567
57299SOL    HW173794   1.170  12.465  10.481
57299SOL    HW273795   1.150  12.589  10.565
57300SOL     OW73796   9.003   7.028   4.205
57300SOL    HW173797   9.031   6.936   4.207
57300SOL    HW273798   9.047   7.068   4.280
57301SOL     OW73799   7.869   9.626   2.598
57301SOL    HW173800   7.874   9.701   2.657
57301SOL    HW273801   7.945   9.635   2.540
57302SOL     OW73802   2.085   5.135   0.028
57302SOL    HW173803   2.084   5.230   0.020
57302SOL    HW273804   2.159   5.116   0.086
57303SOL     OW73805   1.667   9.051   4.433
57303SOL    HW173806   1.634   8.961   4.427
57303SOL    HW273807   1.726   9.050   4.508
57304SOL     OW73808   5.874   5.329  11.215
57304SOL    HW173809   5.944   5.348  11.153
57304SOL    HW273810   5.843   5.415  11.244
57305SOL     OW73811   6.943   4.053   7.045
57305SOL    HW173812   6.994   4.101   7.110
57305SOL    HW273813   6.992   3.972   7.029
57306SOL     OW73814   0.781   3.741   4.283
57306SOL    HW173815   0.750   3.724   4.195
57306SOL    HW273816   0.739   3.675   4.337
57307SOL     OW73817   8.025  12.862   1.240
57307SOL    HW173818   7.935  12.832   1.251
57307SOL    HW273819   8.017  12.948   1.198
57308SOL     OW73820  14.024   7.433   2.325
57308SOL    HW173821  14.104   7.420   2.274
57308SOL    HW273822  14.049   7.497   2.392
57309SOL     OW73823   1.706   5.334   0.491
57309SOL    HW173824   1.616   5.306   0.509
57309SOL    HW273825   1.726   5.395   0.562
57310SOL     OW73826   8.267   8.229   4.947
57310SOL    HW173827   8.278   8.323   4.962
57310SOL    HW273828   8.273   8.219   4.852
57311SOL     OW73829   9.987   2.623   7.612
57311SOL    HW173830   9.978   2.643   7.519
57311SOL    HW273831  10.008   2.530   7.615
57312SOL     OW73832   9.688   9.442   2.291
57312SOL    HW173833   9.778   9.432   2.260
57312SOL    HW273834   9.638   9.465   2.212
57313SOL     OW73835   8.066   1.807   2.015
57313SOL    HW173836   8.099   1.769   2.096
57313SOL    HW273837   8.124   1.881   1.997
57314SOL     OW73838  10.176  14.863  11.640
57314SOL    HW173839  10.143   0.077  11.659
57314SOL    HW273840  10.199  14.866  11.548
57315SOL     OW73841  11.146   6.007   2.675
57315SOL    HW173842  11.173   6.090   2.636
57315SOL    HW273843  11.098   5.962   2.605
57316SOL     OW73844  12.797   8.745   4.566
57316SOL    HW173845  12.868   8.805   4.589
57316SOL    HW273846  12.832   8.658   4.584
57317SOL     OW73847   1.173  13.088   5.690
57317SOL    HW173848   1.103  13.030   5.719
57317SOL    HW273849   1.243  13.030   5.661
57318SOL     OW73850   5.517   5.680   6.775
57318SOL    HW173851   5.603   5.641   6.757
57318SOL    HW273852   5.536   5.764   6.815
57319SOL     OW73853  11.732  10.149   5.755
57319SOL    HW173854  11.814  10.198   5.749
57319SOL    HW273855  11.665  10.212   5.727
57320SOL     OW73856  13.780  12.879   5.536
57320SOL    HW173857  13.743  12.804   5.490
57320SOL    HW273858  13.811  12.938   5.467
57321SOL     OW73859  14.279   0.813   2.471
57321SOL    HW173860  14.345   0.853   2.414
57321SOL    HW273861  14.208   0.789   2.412
57322SOL     OW73862   3.402  11.951   8.815
57322SOL    HW173863   3.467  12.016   8.843
57322SOL    HW273864   3.446  11.867   8.826
57323SOL     OW73865   4.713  10.942   5.572
57323SOL    HW173866   4.751  10.991   5.499
57323SOL    HW273867   4.644  10.999   5.606
57324SOL     OW73868  14.211   9.312  14.244
57324SOL    HW173869  14.215   9.278  14.333
57324SOL    HW273870  14.299   9.295  14.208
57325SOL     OW73871   3.815   8.990   1.754
57325SOL    HW173872   3.721   9.009   1.756
57325SOL    HW273873   3.826   8.926   1.684
57326SOL     OW73874   3.384   1.663   6.943
57326SOL    HW173875   3.454   1.706   6.894
57326SOL    HW273876   3.359   1.726   7.010
57327SOL     OW73877  14.798   1.572   4.021
57327SOL    HW173878  14.734   1.636   3.991
57327SOL    HW273879  14.756   1.529   4.096
57328SOL     OW73880   8.011   0.935   9.811
57328SOL    HW173881   8.090   0.924   9.864
57328SOL    HW273882   8.021   1.022   9.773
57329SOL     OW73883   5.346   9.397   0.830
57329SOL    HW173884   5.427   9.366   0.788
57329SOL    HW273885   5.278   9.381   0.765
57330SOL     OW73886  12.053   5.157  11.838
57330SOL    HW173887  12.148   5.146  11.839
57330SOL    HW273888  12.039   5.251  11.829
57331SOL     OW73889  14.751   6.879   8.816
57331SOL    HW173890  14.725   6.969   8.800
57331SOL    HW273891  14.750   6.837   8.729
57332SOL     OW73892  10.992   8.749  10.122
57332SOL    HW173893  11.069   8.786  10.166
57332SOL    HW273894  10.981   8.803  10.044
57333SOL     OW73895  14.139  10.448   2.852
57333SOL    HW173896  14.099  10.418   2.933
57333SOL    HW273897  14.179  10.532   2.875
57334SOL     OW73898   2.803   2.528   2.522
57334SOL    HW173899   2.764   2.605   2.481
57334SOL    HW273900   2.895   2.551   2.534
57335SOL     OW73901   2.106   2.622   4.174
57335SOL    HW173902   2.049   2.553   4.210
57335SOL    HW273903   2.053   2.663   4.105
57336SOL     OW73904   3.932   1.010   4.240
57336SOL    HW173905   3.896   0.921   4.243
57336SOL    HW273906   3.970   1.023   4.327
57337SOL     OW73907   8.937   1.091  12.231
57337SOL    HW173908   8.912   1.148  12.303
57337SOL    HW273909   8.973   1.151  12.165
57338SOL     OW73910  12.888  14.660   7.989
57338SOL    HW173911  12.820  14.653   8.056
57338SOL    HW273912  12.913  14.752   7.989
57339SOL     OW73913  11.788   4.583   2.571
57339SOL    HW173914  11.877   4.547   2.579
57339SOL    HW273915  11.761   4.560   2.482
57340SOL     OW73916  13.568  11.968   2.833
57340SOL    HW173917  13.654  11.931   2.816
57340SOL    HW273918  13.537  11.997   2.747
57341SOL     OW73919   2.666  13.825  10.697
57341SOL    HW173920   2.701  13.884  10.631
57341SOL    HW273921   2.646  13.745  10.649
57342SOL     OW73922   5.348   1.796   0.636
57342SOL    HW173923   5.388   1.777   0.552
57342SOL    HW273924   5.310   1.883   0.626
57343SOL     OW73925  12.095   9.460   2.588
57343SOL    HW173926  12.064   9.370   2.584
57343SOL    HW273927  12.121   9.471   2.680
57344SOL     OW73928   0.830  14.505  12.512
57344SOL    HW173929   0.807  14.415  12.538
57344SOL    HW273930   0.750  14.538  12.470
57345SOL     OW73931  10.885  11.492   1.835
57345SOL    HW173932  10.824  11.565   1.843
57345SOL    HW273933  10.849  11.423   1.891
57346SOL     OW73934   4.654   7.449  12.206
57346SOL    HW173935   4.744   7.463  12.177
57346SOL    HW273936   4.651   7.356  12.230
57347SOL     OW73937  13.609  12.813   4.105
57347SOL    HW173938  13.585  12.721   4.092
57347SOL    HW273939  13.704  12.813   4.112
57348SOL     OW73940   3.108   2.997   2.711
57348SOL    HW173941   3.074   2.959   2.630
57348SOL    HW273942   3.031   3.028   2.757
57349SOL     OW73943   6.511  13.464   2.071
57349SOL    HW173944   6.545  13.468   1.981
57349SOL    HW273945   6.589  13.472   2.126
57350SOL     OW73946   6.154  14.425  11.896
57350SOL    HW173947   6.141  14.388  11.808
57350SOL    HW273948   6.246  14.407  11.916
57351SOL     OW73949   7.080   7.448   1.595
57351SOL    HW173950   7.122   7.380   1.648
57351SOL    HW273951   7.084   7.414   1.505
57352SOL     OW73952   6.148  10.296   9.191
57352SOL    HW173953   6.056  10.278   9.172
57352SOL    HW273954   6.150  10.389   9.213
57353SOL     OW73955  13.326   1.004   8.568
57353SOL    HW173956  13.405   1.047   8.601
57353SOL    HW273957  13.355   0.916   8.546
57354SOL     OW73958  13.215   7.440   8.011
57354SOL    HW173959  13.309   7.429   7.992
57354SOL    HW273960  13.211   7.518   8.067
57355SOL     OW73961  11.874   2.162  13.339
57355SOL    HW173962  11.955   2.201  13.373
57355SOL    HW273963  11.854   2.213  13.261
57356SOL     OW73964  12.295  11.723   5.453
57356SOL    HW173965  12.326  11.783   5.386
57356SOL    HW273966  12.265  11.780   5.524
57357SOL     OW73967  11.349  13.658  10.871
57357SOL    HW173968  11.282  13.687  10.809
57357SOL    HW273969  11.303  13.650  10.954
57358SOL     OW73970   7.526   3.371  14.758
57358SOL    HW173971   7.555   3.462  14.767
57358SOL    HW273972   7.439   3.377  14.718
57359SOL     OW73973   8.977  10.833   7.458
57359SOL    HW173974   8.941  10.862   7.541
57359SOL    HW273975   8.917  10.765   7.427
57360SOL     OW73976   8.680   4.894   2.332
57360SOL    HW173977   8.644   4.822   2.384
57360SOL    HW273978   8.725   4.950   2.395
57361SOL     OW73979   8.670   5.791   3.309
57361SOL    HW173980   8.576   5.802   3.325
57361SOL    HW273981   8.700   5.735   3.380
57362SOL     OW73982   9.668   3.823   1.690
57362SOL    HW173983   9.718   3.799   1.612
57362SOL    HW273984   9.695   3.759   1.756
57363SOL     OW73985   4.227   3.960   6.786
57363SOL    HW173986   4.169   4.029   6.818
57363SOL    HW273987   4.196   3.942   6.698
57364SOL     OW73988  10.783   6.276  14.865
57364SOL    HW173989  10.794   6.182  14.870
57364SOL    HW273990  10.869   6.309  14.837
57365SOL     OW73991   4.365  13.548   6.776
57365SOL    HW173992   4.437  13.607   6.797
57365SOL    HW273993   4.296  13.605   6.744
57366SOL     OW73994   1.091   7.951   7.811
57366SOL    HW173995   1.157   7.942   7.879
57366SOL    HW273996   1.007   7.945   7.858
57367SOL     OW73997  14.126   4.790   5.669
57367SOL    HW173998  14.164   4.742   5.742
57367SOL    HW273999  14.095   4.872   5.708
57368SOL     OW74000   0.781  14.779   4.959
57368SOL    HW174001   0.744  14.823   4.883
57368SOL    HW274002   0.857  14.832   4.983
57369SOL     OW74003  14.796  11.817   7.169
57369SOL    HW174004  14.789  11.911   7.152
57369SOL    HW274005  14.748  11.776   7.097
57370SOL     OW74006  11.397   2.776   9.876
57370SOL    HW174007  11.313   2.741   9.905
57370SOL    HW274008  11.395   2.868   9.904
57371SOL     OW74009   7.261   2.150   7.578
57371SOL    HW174010   7.357   2.155   7.572
57371SOL    HW274011   7.237   2.081   7.517
57372SOL     OW74012  10.595   4.821   7.299
57372SOL    HW174013  10.612   4.759   7.370
57372SOL    HW274014  10.681   4.838   7.261
57373SOL     OW74015   9.813   3.198   7.333
57373SOL    HW174016   9.792   3.194   7.239
57373SOL    HW274017   9.865   3.119   7.349
57374SOL     OW74018   5.630   7.530  12.091
57374SOL    HW174019   5.647   7.457  12.031
57374SOL    HW274020   5.623   7.489  12.177
57375SOL     OW74021  10.231  12.578   4.864
57375SOL    HW174022  10.231  12.673   4.855
57375SOL    HW274023  10.292  12.560   4.935
57376SOL     OW74024   0.323   4.299   1.629
57376SOL    HW174025   0.275   4.236   1.683
57376SOL    HW274026   0.375   4.245   1.570
57377SOL     OW74027   5.456  14.462   0.801
57377SOL    HW174028   5.418  14.377   0.827
57377SOL    HW274029   5.524  14.479   0.866
57378SOL     OW74030   9.229  10.035   0.133
57378SOL    HW174031   9.275  10.055   0.214
57378SOL    HW274032   9.257  10.104   0.072
57379SOL     OW74033   5.756   9.891   5.575
57379SOL    HW174034   5.696   9.827   5.612
57379SOL    HW274035   5.843   9.855   5.591
57380SOL     OW74036   6.890   4.934   6.151
57380SOL    HW174037   6.929   4.897   6.231
57380SOL    HW274038   6.818   4.988   6.183
57381SOL     OW74039   8.806   0.269  10.397
57381SOL    HW174040   8.764   0.353  10.413
57381SOL    HW274041   8.738   0.216  10.355
57382SOL     OW74042   1.949   3.080   4.586
57382SOL    HW174043   1.891   3.130   4.528
57382SOL    HW274044   1.981   3.009   4.531
57383SOL     OW74045  11.432   3.871   7.175
57383SOL    HW174046  11.346   3.882   7.135
57383SOL    HW274047  11.480   3.949   7.148
57384SOL     OW74048  12.061   9.545  10.213
57384SOL    HW174049  12.099   9.511  10.132
57384SOL    HW274050  12.026   9.468  10.257
57385SOL     OW74051  14.404   9.455   7.003
57385SOL    HW174052  14.431   9.363   6.999
57385SOL    HW274053  14.484   9.504   6.983
57386SOL     OW74054   4.548   4.764   7.971
57386SOL    HW174055   4.526   4.853   8.001
57386SOL    HW274056   4.606   4.730   8.040
57387SOL     OW74057   2.260   8.513   5.990
57387SOL    HW174058   2.176   8.466   5.994
57387SOL    HW274059   2.293   8.512   6.080
57388SOL     OW74060   2.407  12.650  13.607
57388SOL    HW174061   2.434  12.635  13.697
57388SOL    HW274062   2.489  12.647  13.557
57389SOL     OW74063   9.953   2.063  12.109
57389SOL    HW174064   9.921   2.150  12.130
57389SOL    HW274065   9.955   2.060  12.013
57390SOL     OW74066   1.176   9.102   7.825
57390SOL    HW174067   1.247   9.161   7.800
57390SOL    HW274068   1.219   9.032   7.873
57391SOL     OW74069   8.500   8.620  11.674
57391SOL    HW174070   8.580   8.639  11.722
57391SOL    HW274071   8.501   8.681  11.600
57392SOL     OW74072  12.695   6.208  11.203
57392SOL    HW174073  12.732   6.172  11.284
57392SOL    HW274074  12.666   6.132  11.154
57393SOL     OW74075   5.637   9.293   2.722
57393SOL    HW174076   5.620   9.290   2.816
57393SOL    HW274077   5.722   9.336   2.713
57394SOL     OW74078   2.289   8.446   1.530
57394SOL    HW174079   2.310   8.381   1.597
57394SOL    HW274080   2.342   8.523   1.553
57395SOL     OW74081  11.333   2.092   6.288
57395SOL    HW174082  11.418   2.056   6.313
57395SOL    HW274083  11.277   2.075   6.364
57396SOL     OW74084   3.702   3.690  12.689
57396SOL    HW174085   3.684   3.602  12.721
57396SOL    HW274086   3.792   3.686  12.656
57397SOL     OW74087   5.485  11.961   6.638
57397SOL    HW174088   5.556  11.919   6.590
57397SOL    HW274089   5.528  12.030   6.689
57398SOL     OW74090   5.273  11.004  14.584
57398SOL    HW174091   5.293  11.028  14.494
57398SOL    HW274092   5.181  11.029  14.595
57399SOL     OW74093  13.557   1.406   3.347
57399SOL    HW174094  13.482   1.462   3.365
57399SOL    HW274095  13.537   1.365   3.263
57400SOL     OW74096   8.550   8.441   3.454
57400SOL    HW174097   8.492   8.516   3.466
57400SOL    HW274098   8.534   8.411   3.365
57401SOL     OW74099   5.627   2.920   8.088
57401SOL    HW174100   5.653   2.930   7.997
57401SOL    HW274101   5.703   2.949   8.138
57402SOL     OW74102   7.170   6.738  12.159
57402SOL    HW174103   7.125   6.682  12.223
57402SOL    HW274104   7.187   6.819  12.206
57403SOL     OW74105  12.485  12.309  10.712
57403SOL    HW174106  12.410  12.366  10.696
57403SOL    HW274107  12.487  12.250  10.636
57404SOL     OW74108   1.451  13.546  12.740
57404SOL    HW174109   1.447  13.492  12.662
57404SOL    HW274110   1.479  13.632  12.708
57405SOL     OW74111  13.713  13.973  12.401
57405SOL    HW174112  13.628  13.931  12.409
57405SOL    HW274113  13.700  14.042  12.336
57406SOL     OW74114   4.010   4.699  12.034
57406SOL    HW174115   4.024   4.719  12.126
57406SOL    HW274116   3.960   4.773  12.000
57407SOL     OW74117   8.929   3.404  13.649
57407SOL    HW174118   8.969   3.487  13.621
57407SOL    HW274119   8.844   3.429  13.685
57408SOL     OW74120   4.582   2.444  10.612
57408SOL    HW174121   4.528   2.505  10.562
57408SOL    HW274122   4.613   2.494  10.687
57409SOL     OW74123   9.380   3.719   4.509
57409SOL    HW174124   9.377   3.719   4.605
57409SOL    HW274125   9.447   3.655   4.487
57410SOL     OW74126   4.672  10.436   8.155
57410SOL    HW174127   4.681  10.494   8.230
57410SOL    HW274128   4.761  10.404   8.139
57411SOL     OW74129   1.375   2.642   0.718
57411SOL    HW174130   1.419   2.627   0.801
57411SOL    HW274131   1.446   2.650   0.654
57412SOL     OW74132   3.111   1.676  11.209
57412SOL    HW174133   3.169   1.710  11.140
57412SOL    HW274134   3.167   1.670  11.286
57413SOL     OW74135   7.912  14.071  12.020
57413SOL    HW174136   7.894  14.042  11.931
57413SOL    HW274137   7.966  14.149  12.010
57414SOL     OW74138   7.286   2.839   8.066
57414SOL    HW174139   7.317   2.929   8.071
57414SOL    HW274140   7.214   2.842   8.003
57415SOL     OW74141   5.558  11.534  12.559
57415SOL    HW174142   5.598  11.601  12.504
57415SOL    HW274143   5.582  11.451  12.519
57416SOL     OW74144  13.354   4.978   1.953
57416SOL    HW174145  13.436   4.993   1.905
57416SOL    HW274146  13.290   5.033   1.907
57417SOL     OW74147   7.861   5.707   1.209
57417SOL    HW174148   7.866   5.680   1.117
57417SOL    HW274149   7.950   5.737   1.229
57418SOL     OW74150   3.541   3.136  10.057
57418SOL    HW174151   3.600   3.064  10.079
57418SOL    HW274152   3.585   3.214  10.090
57419SOL     OW74153   9.207  13.376   7.403
57419SOL    HW174154   9.271  13.444   7.426
57419SOL    HW274155   9.139  13.423   7.355
57420SOL     OW74156   4.457   8.263   4.450
57420SOL    HW174157   4.363   8.266   4.463
57420SOL    HW274158   4.494   8.291   4.533
57421SOL     OW74159   0.122   7.407  14.123
57421SOL    HW174160   0.104   7.314  14.110
57421SOL    HW274161   0.087   7.450  14.044
57422SOL     OW74162   3.693   8.127   9.852
57422SOL    HW174163   3.718   8.038   9.825
57422SOL    HW274164   3.637   8.114   9.928
57423SOL     OW74165   8.609   6.500   9.341
57423SOL    HW174166   8.612   6.586   9.298
57423SOL    HW274167   8.549   6.513   9.415
57424SOL     OW74168  10.854   3.576   2.308
57424SOL    HW174169  10.945   3.565   2.280
57424SOL    HW274170  10.807   3.597   2.227
57425SOL     OW74171  14.230   3.313  14.266
57425SOL    HW174172  14.280   3.390  14.296
57425SOL    HW274173  14.180   3.344  14.191
57426SOL     OW74174   8.282   3.686   1.323
57426SOL    HW174175   8.221   3.747   1.366
57426SOL    HW274176   8.229   3.607   1.308
57427SOL     OW74177  11.773   4.766   8.442
57427SOL    HW174178  11.736   4.698   8.498
57427SOL    HW274179  11.788   4.723   8.358
57428SOL     OW74180   0.537   7.704   1.874
57428SOL    HW174181   0.465   7.745   1.921
57428SOL    HW274182   0.614   7.757   1.896
57429SOL     OW74183   6.643   4.360   1.402
57429SOL    HW174184   6.712   4.377   1.466
57429SOL    HW274185   6.562   4.370   1.451
57430SOL     OW74186  13.012   5.341   0.717
57430SOL    HW174187  13.017   5.437   0.708
57430SOL    HW274188  12.918   5.323   0.722
57431SOL     OW74189   5.365  12.458  12.894
57431SOL    HW174190   5.317  12.540  12.881
57431SOL    HW274191   5.440  12.483  12.949
57432SOL     OW74192   6.995   6.307   6.933
57432SOL    HW174193   7.027   6.344   6.850
57432SOL    HW274194   6.944   6.230   6.907
57433SOL     OW74195   3.306   7.313   5.151
57433SOL    HW174196   3.354   7.393   5.134
57433SOL    HW274197   3.248   7.334   5.224
57434SOL     OW74198  12.962  10.859   0.808
57434SOL    HW174199  12.936  10.850   0.716
57434SOL    HW274200  13.036  10.800   0.818
57435SOL     OW74201   8.150   3.368   7.618
57435SOL    HW174202   8.105   3.373   7.702
57435SOL    HW274203   8.080   3.360   7.553
57436SOL     OW74204   4.865   4.710  10.508
57436SOL    HW174205   4.879   4.624  10.469
57436SOL    HW274206   4.830   4.691  10.595
57437SOL     OW74207  10.122   7.800  11.851
57437SOL    HW174208  10.181   7.834  11.784
57437SOL    HW274209  10.163   7.718  11.880
57438SOL     OW74210   7.258   1.103  10.549
57438SOL    HW174211   7.265   1.011  10.571
57438SOL    HW274212   7.230   1.104  10.457
57439SOL     OW74213  13.907   2.407   2.655
57439SOL    HW174214  13.968   2.462   2.605
57439SOL    HW274215  13.916   2.438   2.745
57440SOL     OW74216   4.757   4.401   8.487
57440SOL    HW174217   4.787   4.319   8.447
57440SOL    HW274218   4.804   4.469   8.439
57441SOL     OW74219   4.988  10.661   7.522
57441SOL    HW174220   5.063  10.721   7.528
57441SOL    HW274221   5.011  10.589   7.581
57442SOL     OW74222  10.386   5.072  11.560
57442SOL    HW174223  10.340   5.018  11.496
57442SOL    HW274224  10.444   5.127  11.507
57443SOL     OW74225  14.225   5.121   7.878
57443SOL    HW174226  14.240   5.134   7.971
57443SOL    HW274227  14.252   5.031   7.861
57444SOL     OW74228   8.306   1.874   2.973
57444SOL    HW174229   8.382   1.829   3.009
57444SOL    HW274230   8.333   1.965   2.964
57445SOL     OW74231  14.704   3.196   3.767
57445SOL    HW174232  14.656   3.167   3.845
57445SOL    HW274233  14.780   3.242   3.802
57446SOL     OW74234  10.111  11.560  13.156
57446SOL    HW174235  10.154  11.586  13.238
57446SOL    HW274236  10.074  11.473  13.176
57447SOL     OW74237   6.820  14.220   4.974
57447SOL    HW174238   6.886  14.274   5.017
57447SOL    HW274239   6.836  14.232   4.880
57448SOL     OW74240   5.159  11.757   9.178
57448SOL    HW174241   5.089  11.795   9.230
57448SOL    HW274242   5.235  11.812   9.196
57449SOL     OW74243   1.111   8.914   6.868
57449SOL    HW174244   1.017   8.898   6.862
57449SOL    HW274245   1.120   9.009   6.864
57450SOL     OW74246  10.271   4.064  10.144
57450SOL    HW174247  10.179   4.053  10.119
57450SOL    HW274248  10.298   3.977  10.173
57451SOL     OW74249   6.539  12.064   1.198
57451SOL    HW174250   6.557  12.157   1.191
57451SOL    HW274251   6.526  12.034   1.108
57452SOL     OW74252  14.626   3.687   8.125
57452SOL    HW174253  14.570   3.679   8.048
57452SOL    HW274254  14.677   3.766   8.110
57453SOL     OW74255  13.295   9.678   9.808
57453SOL    HW174256  13.382   9.655   9.775
57453SOL    HW274257  13.283   9.769   9.782
57454SOL     OW74258   7.266  10.097   2.193
57454SOL    HW174259   7.176  10.131   2.202
57454SOL    HW274260   7.265  10.014   2.241
57455SOL     OW74261  13.636   0.554  10.321
57455SOL    HW174262  13.641   0.640  10.364
57455SOL    HW274263  13.621   0.493  10.393
57456SOL     OW74264   7.499   3.744  11.789
57456SOL    HW174265   7.575   3.737  11.732
57456SOL    HW274266   7.470   3.654  11.803
57457SOL     OW74267  10.015   6.886  11.357
57457SOL    HW174268  10.046   6.829  11.286
57457SOL    HW274269  10.036   6.975  11.326
57458SOL     OW74270  11.075  14.288   9.232
57458SOL    HW174271  10.996  14.272   9.181
57458SOL    HW274272  11.079  14.383   9.241
57459SOL     OW74273   0.772   6.297   5.732
57459SOL    HW174274   0.799   6.326   5.820
57459SOL    HW274275   0.783   6.202   5.734
57460SOL     OW74276   3.626  10.599   5.117
57460SOL    HW174277   3.576  10.527   5.156
57460SOL    HW274278   3.566  10.638   5.053
57461SOL     OW74279   8.756  12.560   6.629
57461SOL    HW174280   8.829  12.607   6.669
57461SOL    HW274281   8.679  12.612   6.649
57462SOL     OW74282  10.223   0.827   5.941
57462SOL    HW174283  10.175   0.908   5.957
57462SOL    HW274284  10.309   0.842   5.980
57463SOL     OW74285   7.778   0.553   2.179
57463SOL    HW174286   7.738   0.528   2.263
57463SOL    HW274287   7.870   0.566   2.200
57464SOL     OW74288   5.521  10.625   0.630
57464SOL    HW174289   5.543  10.609   0.722
57464SOL    HW274290   5.592  10.680   0.597
57465SOL     OW74291  10.190   8.660   7.825
57465SOL    HW174292  10.200   8.749   7.858
57465SOL    HW274293  10.095   8.644   7.829
57466SOL     OW74294   0.782  14.104   4.502
57466SOL    HW174295   0.714  14.148   4.449
57466SOL    HW274296   0.859  14.159   4.491
57467SOL     OW74297   2.968   7.710   4.619
57467SOL    HW174298   2.959   7.698   4.713
57467SOL    HW274299   2.881   7.738   4.590
57468SOL     OW74300   0.029   4.302   1.145
57468SOL    HW174301   0.109   4.308   1.198
57468SOL    HW274302  14.833   4.314   1.208
57469SOL     OW74303   7.121   4.164  11.768
57469SOL    HW174304   7.202   4.114  11.758
57469SOL    HW274305   7.116   4.217  11.688
57470SOL     OW74306   4.611  10.740   1.993
57470SOL    HW174307   4.576  10.822   1.958
57470SOL    HW274308   4.679  10.767   2.054
57471SOL     OW74309   2.601  10.118   1.204
57471SOL    HW174310   2.647  10.153   1.280
57471SOL    HW274311   2.546  10.048   1.240
57472SOL     OW74312   9.731   8.209  11.843
57472SOL    HW174313   9.710   8.233  11.933
57472SOL    HW274314   9.721   8.114  11.840
57473SOL     OW74315   1.683   7.004   9.647
57473SOL    HW174316   1.633   7.009   9.565
57473SOL    HW274317   1.623   6.964   9.710
57474SOL     OW74318  10.480   0.012   6.010
57474SOL    HW174319  10.507   0.017   5.919
57474SOL    HW274320  10.459  14.794   6.024
57475SOL     OW74321   4.194   8.045   8.250
57475SOL    HW174322   4.203   7.949   8.255
57475SOL    HW274323   4.111   8.064   8.293
57476SOL     OW74324   9.369  12.372   7.914
57476SOL    HW174325   9.361  12.285   7.952
57476SOL    HW274326   9.403  12.426   7.986
57477SOL     OW74327   7.506   2.131   9.156
57477SOL    HW174328   7.487   2.216   9.118
57477SOL    HW274329   7.486   2.141   9.249
57478SOL     OW74330   5.231   7.866   0.461
57478SOL    HW174331   5.177   7.812   0.403
57478SOL    HW274332   5.168   7.922   0.506
57479SOL     OW74333   7.108  13.180  11.879
57479SOL    HW174334   7.154  13.238  11.819
57479SOL    HW274335   7.030  13.228  11.905
57480SOL     OW74336   6.311  10.289   5.547
57480SOL    HW174337   6.230  10.264   5.591
57480SOL    HW274338   6.281  10.335   5.468
57481SOL     OW74339   1.116  13.903   2.258
57481SOL    HW174340   1.181  13.968   2.286
57481SOL    HW274341   1.080  13.869   2.340
57482SOL     OW74342   4.057  13.055   2.462
57482SOL    HW174343   4.015  13.010   2.536
57482SOL    HW274344   4.098  12.985   2.412
57483SOL     OW74345  11.142   8.107   1.915
57483SOL    HW174346  11.225   8.078   1.954
57483SOL    HW274347  11.149   8.080   1.823
57484SOL     OW74348   9.941  12.157  12.802
57484SOL    HW174349   9.993  12.237  12.804
57484SOL    HW274350   9.945  12.123  12.891
57485SOL     OW74351   2.786  10.114   9.870
57485SOL    HW174352   2.860  10.172   9.886
57485SOL    HW274353   2.819  10.026   9.889
57486SOL     OW74354   8.888  12.654   8.620
57486SOL    HW174355   8.905  12.661   8.714
57486SOL    HW274356   8.793  12.648   8.613
57487SOL     OW74357  11.959  13.055   3.360
57487SOL    HW174358  11.955  12.960   3.345
57487SOL    HW274359  11.873  13.078   3.393
57488SOL     OW74360   0.752   6.188   6.601
57488SOL    HW174361   0.815   6.147   6.661
57488SOL    HW274362   0.790   6.176   6.514
57489SOL     OW74363   1.500   1.238  10.238
57489SOL    HW174364   1.582   1.260  10.193
57489SOL    HW274365   1.473   1.319  10.279
57490SOL     OW74366  10.312  11.481   9.135
57490SOL    HW174367  10.394  11.445   9.168
57490SOL    HW274368  10.282  11.417   9.070
57491SOL     OW74369   6.381   2.934   5.156
57491SOL    HW174370   6.405   2.976   5.239
57491SOL    HW274371   6.412   2.994   5.088
57492SOL     OW74372   0.925   5.088   3.313
57492SOL    HW174373   0.886   5.148   3.376
57492SOL    HW274374   1.019   5.090   3.333
57493SOL     OW74375   1.484   7.903   9.374
57493SOL    HW174376   1.524   7.889   9.459
57493SOL    HW274377   1.509   7.992   9.350
57494SOL     OW74378  14.485  10.537   7.528
57494SOL    HW174379  14.484  10.627   7.561
57494SOL    HW274380  14.418  10.492   7.580
57495SOL     OW74381   6.720  11.351   7.066
57495SOL    HW174382   6.805  11.356   7.109
57495SOL    HW274383   6.660  11.396   7.126
57496SOL     OW74384  14.192   2.408  11.427
57496SOL    HW174385  14.219   2.499  11.410
57496SOL    HW274386  14.102   2.415  11.457
57497SOL     OW74387   1.281   9.928   4.551
57497SOL    HW174388   1.349   9.870   4.515
57497SOL    HW274389   1.218   9.937   4.479
57498SOL     OW74390   1.800   0.833   3.953
57498SOL    HW174391   1.774   0.757   3.901
57498SOL    HW274392   1.783   0.908   3.897
57499SOL     OW74393  12.997   6.575   9.627
57499SOL    HW174394  13.069   6.562   9.689
57499SOL    HW274395  13.004   6.666   9.600
57500SOL     OW74396   9.568   7.283  11.361
57500SOL    HW174397   9.543   7.318  11.276
57500SOL    HW274398   9.658   7.252  11.349
57501SOL     OW74399   4.887   8.179  12.697
57501SOL    HW174400   4.952   8.153  12.762
57501SOL    HW274401   4.884   8.106  12.635
57502SOL     OW74402   2.640   4.262   3.349
57502SOL    HW174403   2.682   4.188   3.304
57502SOL    HW274404   2.606   4.316   3.277
57503SOL     OW74405   2.054   4.151  14.024
57503SOL    HW174406   2.136   4.200  14.017
57503SOL    HW274407   1.991   4.215  14.056
57504SOL     OW74408  10.929  11.464   0.888
57504SOL    HW174409  11.017  11.439   0.856
57504SOL    HW274410  10.870  11.431   0.821
57505SOL     OW74411   1.824  12.093   9.494
57505SOL    HW174412   1.768  12.154   9.446
57505SOL    HW274413   1.802  12.107   9.586
57506SOL     OW74414   0.368   3.277  12.301
57506SOL    HW174415   0.372   3.306  12.210
57506SOL    HW274416   0.278   3.294  12.328
57507SOL     OW74417  14.664   2.518  10.043
57507SOL    HW174418  14.639   2.570   9.966
57507SOL    HW274419  14.695   2.435  10.007
57508SOL     OW74420   2.802  12.599   1.146
57508SOL    HW174421   2.707  12.589   1.146
57508SOL    HW274422   2.824  12.614   1.054
57509SOL     OW74423   0.497   5.854  14.366
57509SOL    HW174424   0.558   5.793  14.324
57509SOL    HW274425   0.536   5.870  14.452
57510SOL     OW74426  12.520  12.751  11.078
57510SOL    HW174427  12.542  12.665  11.041
57510SOL    HW274428  12.426  12.746  11.096
57511SOL     OW74429  11.178  11.877   0.354
57511SOL    HW174430  11.127  11.835   0.423
57511SOL    HW274431  11.167  11.821   0.278
57512SOL     OW74432   6.159  14.119   2.704
57512SOL    HW174433   6.125  14.199   2.664
57512SOL    HW274434   6.139  14.050   2.641
57513SOL     OW74435  10.820   9.911   4.638
57513SOL    HW174436  10.856   9.971   4.702
57513SOL    HW274437  10.868   9.829   4.651
57514SOL     OW74438   0.759   1.228  11.898
57514SOL    HW174439   0.687   1.288  11.877
57514SOL    HW274440   0.717   1.142  11.902
57515SOL     OW74441  11.897   4.374  10.577
57515SOL    HW174442  11.923   4.435  10.646
57515SOL    HW274443  11.842   4.427  10.519
57516SOL     OW74444   8.601   4.364   5.121
57516SOL    HW174445   8.596   4.276   5.159
57516SOL    HW274446   8.592   4.349   5.026
57517SOL     OW74447  13.098   1.382   0.928
57517SOL    HW174448  13.078   1.307   0.872
57517SOL    HW274449  13.013   1.417   0.953
57518SOL     OW74450  11.654   6.523   9.624
57518SOL    HW174451  11.717   6.551   9.690
57518SOL    HW274452  11.570   6.520   9.671
57519SOL     OW74453   7.483   0.097  11.492
57519SOL    HW174454   7.574   0.096  11.463
57519SOL    HW274455   7.483   0.154  11.569
57520SOL     OW74456   9.612   7.079   5.607
57520SOL    HW174457   9.607   6.983   5.609
57520SOL    HW274458   9.705   7.098   5.596
57521SOL     OW74459   0.979  10.847  12.690
57521SOL    HW174460   0.914  10.827  12.622
57521SOL    HW274461   1.060  10.862  12.641
57522SOL     OW74462  14.263  11.220  14.720
57522SOL    HW174463  14.266  11.265  14.804
57522SOL    HW274464  14.354  11.219  14.690
57523SOL     OW74465  14.567  14.393  12.574
57523SOL    HW174466  14.508  14.330  12.616
57523SOL    HW274467  14.522  14.477  12.584
57524SOL     OW74468   6.862  10.192  14.409
57524SOL    HW174469   6.955  10.171  14.416
57524SOL    HW274470   6.817  10.108  14.420
57525SOL     OW74471   2.981   7.056  11.827
57525SOL    HW174472   2.907   7.105  11.791
57525SOL    HW274473   3.052   7.120  11.831
57526SOL     OW74474  11.779  13.648   6.187
57526SOL    HW174475  11.834  13.575   6.160
57526SOL    HW274476  11.824  13.686   6.263
57527SOL     OW74477   1.330   6.771   2.574
57527SOL    HW174478   1.421   6.752   2.549
57527SOL    HW274479   1.323   6.866   2.570
57528SOL     OW74480   9.608   4.422  10.937
57528SOL    HW174481   9.690   4.375  10.923
57528SOL    HW274482   9.600   4.481  10.862
57529SOL     OW74483   5.767   7.661  13.404
57529SOL    HW174484   5.799   7.664  13.314
57529SOL    HW274485   5.816   7.731  13.448
57530SOL     OW74486   7.059   6.811   5.150
57530SOL    HW174487   7.035   6.729   5.108
57530SOL    HW274488   7.072   6.789   5.242
57531SOL     OW74489   9.280   9.782   1.194
57531SOL    HW174490   9.229   9.863   1.185
57531SOL    HW274491   9.237   9.720   1.134
57532SOL     OW74492  10.430  13.785  11.719
57532SOL    HW174493  10.462  13.794  11.629
57532SOL    HW274494  10.505  13.750  11.767
57533SOL     OW74495   9.315   8.133  12.114
57533SOL    HW174496   9.352   8.212  12.074
57533SOL    HW274497   9.233   8.119  12.068
57534SOL     OW74498   4.408   1.873   0.811
57534SOL    HW174499   4.337   1.901   0.753
57534SOL    HW274500   4.459   1.952   0.826
57535SOL     OW74501   5.527   9.308   9.301
57535SOL    HW174502   5.557   9.220   9.323
57535SOL    HW274503   5.503   9.347   9.385
57536SOL     OW74504  12.302   1.233  10.739
57536SOL    HW174505  12.295   1.218  10.645
57536SOL    HW274506  12.351   1.157  10.771
57537SOL     OW74507   3.948   2.275  12.956
57537SOL    HW174508   3.891   2.347  12.926
57537SOL    HW274509   3.990   2.244  12.876
57538SOL     OW74510  12.115   5.331   5.025
57538SOL    HW174511  12.102   5.306   5.116
57538SOL    HW274512  12.089   5.253   4.975
57539SOL     OW74513  13.101   2.792   3.034
57539SOL    HW174514  13.007   2.807   3.043
57539SOL    HW274515  13.112   2.756   2.946
57540SOL     OW74516   4.569   8.754   8.638
57540SOL    HW174517   4.585   8.669   8.597
57540SOL    HW274518   4.477   8.752   8.663
57541SOL     OW74519   0.287   3.949   4.193
57541SOL    HW174520   0.377   3.975   4.213
57541SOL    HW274521   0.246   4.030   4.161
57542SOL     OW74522   9.983   0.079   0.961
57542SOL    HW174523  10.026   0.132   1.027
57542SOL    HW274524  10.055   0.037   0.914
57543SOL     OW74525   5.352   6.554   0.020
57543SOL    HW174526   5.378   6.492  14.828
57543SOL    HW274527   5.435   6.585   0.058
57544SOL     OW74528   8.964   8.969   1.195
57544SOL    HW174529   9.048   9.014   1.194
57544SOL    HW274530   8.969   8.908   1.121
57545SOL     OW74531   3.467  14.604   6.468
57545SOL    HW174532   3.413  14.525   6.458
57545SOL    HW274533   3.404  14.673   6.490
57546SOL     OW74534  11.587   2.673   3.971
57546SOL    HW174535  11.566   2.709   3.885
57546SOL    HW274536  11.584   2.578   3.959
57547SOL     OW74537   3.218   3.830  13.472
57547SOL    HW174538   3.207   3.843  13.378
57547SOL    HW274539   3.308   3.859  13.489
57548SOL     OW74540   5.201   8.921  12.793
57548SOL    HW174541   5.162   8.934  12.879
57548SOL    HW274542   5.271   8.985  12.787
57549SOL     OW74543  12.539   8.225  14.557
57549SOL    HW174544  12.502   8.140  14.580
57549SOL    HW274545  12.463   8.282  14.548
57550SOL     OW74546   2.403  13.912  10.473
57550SOL    HW174547   2.439  13.830  10.506
57550SOL    HW274548   2.358  13.888  10.392
57551SOL     OW74549   5.625   8.570   3.986
57551SOL    HW174550   5.553   8.591   4.046
57551SOL    HW274551   5.665   8.491   4.023
57552SOL     OW74552   2.825   7.123  13.905
57552SOL    HW174553   2.804   7.044  13.856
57552SOL    HW274554   2.740   7.156  13.936
57553SOL     OW74555  11.831   9.429  10.589
57553SOL    HW174556  11.830   9.515  10.630
57553SOL    HW274557  11.782   9.373  10.648
57554SOL     OW74558   6.445  14.672   9.405
57554SOL    HW174559   6.371  14.716   9.365
57554SOL    HW274560   6.522  14.717   9.371
57555SOL     OW74561   5.518   4.512  12.507
57555SOL    HW174562   5.532   4.461  12.427
57555SOL    HW274563   5.606   4.526  12.542
57556SOL     OW74564  10.445   2.815   4.970
57556SOL    HW174565  10.419   2.812   5.062
57556SOL    HW274566  10.419   2.902   4.940
57557SOL     OW74567   4.307  10.335  12.081
57557SOL    HW174568   4.250  10.295  12.016
57557SOL    HW274569   4.330  10.420  12.045
57558SOL     OW74570   2.821   6.863   2.372
57558SOL    HW174571   2.828   6.824   2.285
57558SOL    HW274572   2.755   6.809   2.416
57559SOL     OW74573   3.924   7.439   4.984
57559SOL    HW174574   4.004   7.479   5.017
57559SOL    HW274575   3.870   7.426   5.062
57560SOL     OW74576   4.454   0.729   4.016
57560SOL    HW174577   4.366   0.690   4.015
57560SOL    HW274578   4.513   0.656   4.002
57561SOL     OW74579   6.142  12.336   3.662
57561SOL    HW174580   6.110  12.414   3.616
57561SOL    HW274581   6.081  12.267   3.638
57562SOL     OW74582   7.062   6.988  13.316
57562SOL    HW174583   7.121   6.973  13.242
57562SOL    HW274584   6.974   6.983  13.279
57563SOL     OW74585  14.431  11.536   2.185
57563SOL    HW174586  14.468  11.623   2.204
57563SOL    HW274587  14.507  11.478   2.184
57564SOL     OW74588   3.528  10.379   3.167
57564SOL    HW174589   3.517  10.342   3.255
57564SOL    HW274590   3.453  10.345   3.118
57565SOL     OW74591   7.133   6.535   8.917
57565SOL    HW174592   7.110   6.489   8.998
57565SOL    HW274593   7.208   6.589   8.941
57566SOL     OW74594   1.235  12.093  10.238
57566SOL    HW174595   1.230  12.150  10.314
57566SOL    HW274596   1.165  12.029  10.250
57567SOL     OW74597   0.009   6.909   4.700
57567SOL    HW174598   0.104   6.897   4.699
57567SOL    HW274599  14.868   6.989   4.650
57568SOL     OW74600  13.198  11.831   7.275
57568SOL    HW174601  13.248  11.911   7.258
57568SOL    HW274602  13.153  11.812   7.193
57569SOL     OW74603   4.829   5.912   2.922
57569SOL    HW174604   4.919   5.902   2.953
57569SOL    HW274605   4.807   6.004   2.939
57570SOL     OW74606   9.720   6.537   7.787
57570SOL    HW174607   9.724   6.611   7.847
57570SOL    HW274608   9.722   6.577   7.700
57571SOL     OW74609  14.770   3.726   5.216
57571SOL    HW174610  14.783   3.747   5.123
57571SOL    HW274611  14.811   3.640   5.226
57572SOL     OW74612   4.920  13.342  11.974
57572SOL    HW174613   4.828  13.319  11.990
57572SOL    HW274614   4.918  13.400  11.898
57573SOL     OW74615   3.770   1.109   1.904
57573SOL    HW174616   3.772   1.015   1.884
57573SOL    HW274617   3.809   1.150   1.827
57574SOL     OW74618   9.833   3.373   7.798
57574SOL    HW174619   9.903   3.408   7.743
57574SOL    HW274620   9.754   3.381   7.744
57575SOL     OW74621   1.945   2.203   4.262
57575SOL    HW174622   1.906   2.145   4.196
57575SOL    HW274623   2.028   2.162   4.284
57576SOL     OW74624   3.675  10.594   4.440
57576SOL    HW174625   3.644  10.644   4.364
57576SOL    HW274626   3.686  10.660   4.509
57577SOL     OW74627   9.123   9.387  13.126
57577SOL    HW174628   9.093   9.301  13.153
57577SOL    HW274629   9.209   9.371  13.086
57578SOL     OW74630   3.980   1.954   3.781
57578SOL    HW174631   4.059   1.936   3.732
57578SOL    HW274632   3.953   2.042   3.754
57579SOL     OW74633  14.498  11.669   0.757
57579SOL    HW174634  14.491  11.729   0.683
57579SOL    HW274635  14.457  11.588   0.727
57580SOL     OW74636   3.049   4.516   9.781
57580SOL    HW174637   3.022   4.608   9.780
57580SOL    HW274638   3.137   4.517   9.743
57581SOL     OW74639  14.865  12.811  10.863
57581SOL    HW174640   0.012  12.738  10.921
57581SOL    HW274641   0.073  12.856  10.848
57582SOL     OW74642   6.564  14.181   4.977
57582SOL    HW174643   6.539  14.248   5.041
57582SOL    HW274644   6.660  14.179   4.981
57583SOL     OW74645   3.520   7.150   8.772
57583SOL    HW174646   3.502   7.066   8.730
57583SOL    HW274647   3.433   7.183   8.796
57584SOL     OW74648   3.998   0.627  12.669
57584SOL    HW174649   3.981   0.550  12.723
57584SOL    HW274650   4.028   0.592  12.585
57585SOL     OW74651  11.102   4.718   5.864
57585SOL    HW174652  11.028   4.661   5.885
57585SOL    HW274653  11.149   4.671   5.795
57586SOL     OW74654   9.071  11.227   2.709
57586SOL    HW174655   9.109  11.291   2.648
57586SOL    HW274656   9.097  11.142   2.674
57587SOL     OW74657   5.736   1.684   6.525
57587SOL    HW174658   5.755   1.676   6.619
57587SOL    HW274659   5.740   1.595   6.492
57588SOL     OW74660  13.028   0.488   2.154
57588SOL    HW174661  12.955   0.451   2.105
57588SOL    HW274662  13.048   0.571   2.111
57589SOL     OW74663   6.874   6.343   2.538
57589SOL    HW174664   6.820   6.413   2.574
57589SOL    HW274665   6.925   6.386   2.469
57590SOL     OW74666  10.562   2.016   4.048
57590SOL    HW174667  10.600   2.015   4.136
57590SOL    HW274668  10.527   1.928   4.036
57591SOL     OW74669   1.660   8.120  10.524
57591SOL    HW174670   1.597   8.057  10.490
57591SOL    HW274671   1.648   8.198  10.470
57592SOL     OW74672   2.134   1.965   5.162
57592SOL    HW174673   2.220   2.001   5.140
57592SOL    HW274674   2.149   1.914   5.242
57593SOL     OW74675  10.184   6.484  14.315
57593SOL    HW174676  10.142   6.459  14.233
57593SOL    HW274677  10.112   6.505  14.374
57594SOL     OW74678   1.775  13.239   3.838
57594SOL    HW174679   1.817  13.279   3.761
57594SOL    HW274680   1.848  13.212   3.894
57595SOL     OW74681   3.919   4.113   6.208
57595SOL    HW174682   3.901   4.163   6.288
57595SOL    HW274683   3.857   4.148   6.144
57596SOL     OW74684  13.725   1.068   6.569
57596SOL    HW174685  13.742   1.160   6.590
57596SOL    HW274686  13.714   1.067   6.474
57597SOL     OW74687  12.362  13.038   8.870
57597SOL    HW174688  12.382  13.118   8.822
57597SOL    HW274689  12.446  12.994   8.878
57598SOL     OW74690   5.241  14.388  11.926
57598SOL    HW174691   5.270  14.326  11.993
57598SOL    HW274692   5.160  14.350  11.892
57599SOL     OW74693   7.887   2.238   0.220
57599SOL    HW174694   7.792   2.241   0.235
57599SOL    HW274695   7.920   2.180   0.289
57600SOL     OW74696   4.875   5.163  14.694
57600SOL    HW174697   4.887   5.189  14.603
57600SOL    HW274698   4.834   5.077  14.689
57601SOL     OW74699   7.361  11.737   5.910
57601SOL    HW174700   7.353  11.767   6.001
57601SOL    HW274701   7.305  11.796   5.860
57602SOL     OW74702   9.910   1.151   4.667
57602SOL    HW174703   9.926   1.060   4.692
57602SOL    HW274704   9.968   1.202   4.722
57603SOL     OW74705   0.369  12.520   2.507
57603SOL    HW174706   0.383  12.498   2.414
57603SOL    HW274707   0.326  12.443   2.544
57604SOL     OW74708   4.224  11.576  10.387
57604SOL    HW174709   4.148  11.622  10.422
57604SOL    HW274710   4.191  11.488  10.367
57605SOL     OW74711   3.600   9.159   4.819
57605SOL    HW174712   3.663   9.226   4.846
57605SOL    HW274713   3.648   9.106   4.755
57606SOL     OW74714   6.767   8.241   8.717
57606SOL    HW174715   6.752   8.220   8.809
57606SOL    HW274716   6.863   8.247   8.710
57607SOL     OW74717  11.451   8.948   1.084
57607SOL    HW174718  11.395   8.998   1.025
57607SOL    HW274719  11.407   8.953   1.169
57608SOL     OW74720   8.273   6.385  11.857
57608SOL    HW174721   8.186   6.371  11.820
57608SOL    HW274722   8.257   6.418  11.945
57609SOL     OW74723  11.794   3.932  13.089
57609SOL    HW174724  11.779   4.000  13.155
57609SOL    HW274725  11.734   3.954  13.018
57610SOL     OW74726   9.659   3.185   9.109
57610SOL    HW174727   9.608   3.132   9.047
57610SOL    HW274728   9.593   3.232   9.160
57611SOL     OW74729   8.877   8.094   1.898
57611SOL    HW174730   8.960   8.057   1.929
57611SOL    HW274731   8.840   8.139   1.974
57612SOL     OW74732   9.366  14.688   2.749
57612SOL    HW174733   9.424  14.687   2.824
57612SOL    HW274734   9.295  14.748   2.774
57613SOL     OW74735   7.627   3.306   8.302
57613SOL    HW174736   7.698   3.244   8.316
57613SOL    HW274737   7.662   3.368   8.237
57614SOL     OW74738   7.857   9.702   7.230
57614SOL    HW174739   7.932   9.660   7.188
57614SOL    HW274740   7.806   9.630   7.267
57615SOL     OW74741   0.167   0.164   8.971
57615SOL    HW174742   0.209   0.100   9.029
57615SOL    HW274743   0.222   0.166   8.893
57616SOL     OW74744  14.660   1.444   8.788
57616SOL    HW174745  14.741   1.446   8.839
57616SOL    HW274746  14.687   1.417   8.700
57617SOL     OW74747   9.028   0.562   9.851
57617SOL    HW174748   8.938   0.568   9.819
57617SOL    HW274749   9.020   0.537   9.943
57618SOL     OW74750   2.129   2.072   6.165
57618SOL    HW174751   2.166   1.991   6.200
57618SOL    HW274752   2.174   2.142   6.213
57619SOL     OW74753   9.542   8.305   3.177
57619SOL    HW174754   9.586   8.377   3.222
57619SOL    HW274755   9.607   8.236   3.172
57620SOL     OW74756   9.219  14.660   6.532
57620SOL    HW174757   9.259  14.579   6.502
57620SOL    HW274758   9.218  14.653   6.627
57621SOL     OW74759   8.115   4.482   2.865
57621SOL    HW174760   8.030   4.502   2.827
57621SOL    HW274761   8.176   4.487   2.791
57622SOL     OW74762   0.081  14.619  13.435
57622SOL    HW174763   0.053  14.552  13.497
57622SOL    HW274764   0.055  14.702  13.475
57623SOL     OW74765  12.026   2.673   3.219
57623SOL    HW174766  11.965   2.734   3.261
57623SOL    HW274767  12.030   2.703   3.128
57624SOL     OW74768   6.590   2.647  10.144
57624SOL    HW174769   6.513   2.702  10.132
57624SOL    HW274770   6.660   2.692  10.097
57625SOL     OW74771  13.865  13.717   3.993
57625SOL    HW174772  13.947  13.692   4.037
57625SOL    HW274773  13.824  13.634   3.970
57626SOL     OW74774   1.416  11.425  14.170
57626SOL    HW174775   1.370  11.393  14.247
57626SOL    HW274776   1.482  11.359  14.152
57627SOL     OW74777   5.932   0.206  10.061
57627SOL    HW174778   5.854   0.169  10.019
57627SOL    HW274779   5.995   0.215   9.990
57628SOL     OW74780  10.095   8.927   9.895
57628SOL    HW174781  10.084   8.836   9.922
57628SOL    HW274782  10.065   8.929   9.804
57629SOL     OW74783   4.986  12.539   7.627
57629SOL    HW174784   5.071  12.583   7.632
57629SOL    HW274785   4.928  12.603   7.588
57630SOL     OW74786  11.934   9.247  11.775
57630SOL    HW174787  11.899   9.186  11.709
57630SOL    HW274788  11.912   9.206  11.859
57631SOL     OW74789   3.769   2.475   5.882
57631SOL    HW174790   3.736   2.528   5.809
57631SOL    HW274791   3.857   2.450   5.856
57632SOL     OW74792   8.600  13.047  14.628
57632SOL    HW174793   8.620  13.139  14.613
57632SOL    HW274794   8.624  13.003  14.546
57633SOL     OW74795  12.327   5.727   2.529
57633SOL    HW174796  12.399   5.770   2.483
57633SOL    HW274797  12.268   5.697   2.459
57634SOL     OW74798  11.567   1.282  14.157
57634SOL    HW174799  11.586   1.227  14.081
57634SOL    HW274800  11.652   1.297  14.198
57635SOL     OW74801  10.908  13.335  13.371
57635SOL    HW174802  10.925  13.423  13.405
57635SOL    HW274803  10.987  13.312  13.323
57636SOL     OW74804   0.346   3.695   7.831
57636SOL    HW174805   0.314   3.679   7.742
57636SOL    HW274806   0.288   3.644   7.887
57637SOL     OW74807   1.185   4.160   1.951
57637SOL    HW174808   1.135   4.150   1.871
57637SOL    HW274809   1.223   4.073   1.967
57638SOL     OW74810   4.004   9.751   6.261
57638SOL    HW174811   4.011   9.815   6.332
57638SOL    HW274812   4.084   9.764   6.210
57639SOL     OW74813   4.183  12.377   0.860
57639SOL    HW174814   4.150  12.306   0.806
57639SOL    HW274815   4.172  12.455   0.806
57640SOL     OW74816  13.994  12.865   9.858
57640SOL    HW174817  13.920  12.914   9.822
57640SOL    HW274818  13.954  12.799   9.914
57641SOL     OW74819   5.135   1.973   7.348
57641SOL    HW174820   5.110   1.893   7.396
57641SOL    HW274821   5.208   1.946   7.292
57642SOL     OW74822   6.678  14.655  14.800
57642SOL    HW174823   6.624  14.586  14.760
57642SOL    HW274824   6.626  14.686  14.874
57643SOL     OW74825  11.219   9.209   6.599
57643SOL    HW174826  11.258   9.266   6.665
57643SOL    HW274827  11.191   9.268   6.529
57644SOL     OW74828   5.101   8.704  13.981
57644SOL    HW174829   5.193   8.729  13.974
57644SOL    HW274830   5.077   8.676  13.893
57645SOL     OW74831   8.618   9.179  13.095
57645SOL    HW174832   8.605   9.189  13.189
57645SOL    HW274833   8.565   9.248  13.056
57646SOL     OW74834  10.390   5.213   7.644
57646SOL    HW174835  10.346   5.128   7.650
57646SOL    HW274836  10.361   5.250   7.560
57647SOL     OW74837  11.990   8.570   3.608
57647SOL    HW174838  11.947   8.502   3.556
57647SOL    HW274839  11.937   8.648   3.595
57648SOL     OW74840   9.016   6.471   6.280
57648SOL    HW174841   9.099   6.471   6.232
57648SOL    HW274842   9.018   6.550   6.333
57649SOL     OW74843   1.527  11.655  14.284
57649SOL    HW174844   1.457  11.711  14.317
57649SOL    HW274845   1.482  11.578  14.248
57650SOL     OW74846   5.121  13.697   4.918
57650SOL    HW174847   5.035  13.689   4.876
57650SOL    HW274848   5.103  13.683   5.011
57651SOL     OW74849   0.665   4.243  10.971
57651SOL    HW174850   0.745   4.194  10.953
57651SOL    HW274851   0.696   4.332  10.991
57652SOL     OW74852  14.014   8.269   6.554
57652SOL    HW174853  13.972   8.312   6.628
57652SOL    HW274854  14.107   8.281   6.569
57653SOL     OW74855   4.220   0.841   9.200
57653SOL    HW174856   4.184   0.837   9.111
57653SOL    HW274857   4.234   0.934   9.216
57654SOL     OW74858  12.471   6.533   9.448
57654SOL    HW174859  12.388   6.580   9.439
57654SOL    HW274860  12.445   6.441   9.452
57655SOL     OW74861   4.896   5.462   1.055
57655SOL    HW174862   4.961   5.396   1.082
57655SOL    HW274863   4.814   5.413   1.051
57656SOL     OW74864   7.904   6.139  13.695
57656SOL    HW174865   7.897   6.122  13.789
57656SOL    HW274866   7.864   6.226  13.683
57657SOL     OW74867   6.686   6.615   0.688
57657SOL    HW174868   6.650   6.541   0.738
57657SOL    HW274869   6.754   6.576   0.633
57658SOL     OW74870   9.342   8.950  14.621
57658SOL    HW174871   9.408   8.975  14.685
57658SOL    HW274872   9.270   8.914  14.673
57659SOL     OW74873   0.772   3.453   2.055
57659SOL    HW174874   0.814   3.413   1.979
57659SOL    HW274875   0.708   3.388   2.084
57660SOL     OW74876   7.800   0.079   7.174
57660SOL    HW174877   7.738   0.080   7.101
57660SOL    HW274878   7.885   0.096   7.133
57661SOL     OW74879   0.887  14.765   6.840
57661SOL    HW174880   0.835  14.823   6.786
57661SOL    HW274881   0.978  14.785   6.817
57662SOL     OW74882   0.530   9.421   2.432
57662SOL    HW174883   0.515   9.329   2.452
57662SOL    HW274884   0.492   9.433   2.344
57663SOL     OW74885  13.506   3.782   1.280
57663SOL    HW174886  13.478   3.792   1.371
57663SOL    HW274887  13.570   3.710   1.283
57664SOL     OW74888   0.720   3.249   8.419
57664SOL    HW174889   0.715   3.299   8.500
57664SOL    HW274890   0.629   3.233   8.395
57665SOL     OW74891   6.346  13.493   5.272
57665SOL    HW174892   6.312  13.416   5.226
57665SOL    HW274893   6.269  13.549   5.283
57666SOL     OW74894   5.341   6.900  14.678
57666SOL    HW174895   5.343   6.932  14.768
57666SOL    HW274896   5.433   6.902  14.650
57667SOL     OW74897   8.932   1.965   5.116
57667SOL    HW174898   9.026   1.951   5.130
57667SOL    HW274899   8.928   2.026   5.043
57668SOL     OW74900  13.032   2.625  13.774
57668SOL    HW174901  12.985   2.623  13.858
57668SOL    HW274902  13.002   2.547  13.727
57669SOL     OW74903   0.713   4.296  13.377
57669SOL    HW174904   0.762   4.273  13.298
57669SOL    HW274905   0.675   4.382  13.358
57670SOL     OW74906  14.426   7.705  12.829
57670SOL    HW174907  14.422   7.694  12.734
57670SOL    HW274908  14.448   7.797  12.842
57671SOL     OW74909   4.643   9.707  14.234
57671SOL    HW174910   4.645   9.618  14.269
57671SOL    HW274911   4.734   9.736  14.235
57672SOL     OW74912   8.342   0.544   0.686
57672SOL    HW174913   8.300   0.505   0.609
57672SOL    HW274914   8.298   0.503   0.760
57673SOL     OW74915   5.654   2.163   2.706
57673SOL    HW174916   5.633   2.196   2.618
57673SOL    HW274917   5.724   2.099   2.691
57674SOL     OW74918   9.303  12.641   0.777
57674SOL    HW174919   9.225  12.635   0.833
57674SOL    HW274920   9.346  12.722   0.805
57675SOL     OW74921  13.166  12.266  13.931
57675SOL    HW174922  13.137  12.357  13.942
57675SOL    HW274923  13.096  12.225  13.880
57676SOL     OW74924  13.274   4.270   3.270
57676SOL    HW174925  13.228   4.231   3.197
57676SOL    HW274926  13.358   4.298   3.234
57677SOL     OW74927   8.898   5.338  11.110
57677SOL    HW174928   8.894   5.288  11.191
57677SOL    HW274929   8.816   5.319  11.065
57678SOL     OW74930  12.360   1.004   9.030
57678SOL    HW174931  12.442   1.052   9.018
57678SOL    HW274932  12.364   0.971   9.120
57679SOL     OW74933   2.019   0.987   0.970
57679SOL    HW174934   2.107   0.950   0.961
57679SOL    HW274935   2.034   1.075   1.004
57680SOL     OW74936   7.135  14.066   1.137
57680SOL    HW174937   7.085  14.122   1.078
57680SOL    HW274938   7.154  13.988   1.086
57681SOL     OW74939  11.427   1.593   2.126
57681SOL    HW174940  11.387   1.584   2.039
57681SOL    HW274941  11.361   1.558   2.186
57682SOL     OW74942   4.706   6.997   9.922
57682SOL    HW174943   4.689   6.903   9.925
57682SOL    HW274944   4.635   7.036   9.973
57683SOL     OW74945  13.383   7.751   2.021
57683SOL    HW174946  13.346   7.821   1.968
57683SOL    HW274947  13.411   7.793   2.102
57684SOL     OW74948  12.637  11.868   1.445
57684SOL    HW174949  12.550  11.846   1.478
57684SOL    HW274950  12.684  11.784   1.445
57685SOL     OW74951   7.028  11.670   3.161
57685SOL    HW174952   7.053  11.591   3.210
57685SOL    HW274953   6.992  11.638   3.079
57686SOL     OW74954  14.134  11.826   9.854
57686SOL    HW174955  14.202  11.816   9.788
57686SOL    HW274956  14.124  11.921   9.862
57687SOL     OW74957   2.590  14.768  12.329
57687SOL    HW174958   2.669  14.756  12.277
57687SOL    HW274959   2.529  14.815  12.272
57688SOL     OW74960   7.234   1.385  12.424
57688SOL    HW174961   7.186   1.354  12.501
57688SOL    HW274962   7.167   1.417  12.365
57689SOL     OW74963   7.498   1.814   5.691
57689SOL    HW174964   7.479   1.761   5.614
57689SOL    HW274965   7.436   1.886   5.687
57690SOL     OW74966   2.581  11.850  11.910
57690SOL    HW174967   2.631  11.777  11.873
57690SOL    HW274968   2.498  11.849  11.862
57691SOL     OW74969   1.207  13.786  12.706
57691SOL    HW174970   1.135  13.793  12.644
57691SOL    HW274971   1.176  13.831  12.785
57692SOL     OW74972   7.940   5.271   3.244
57692SOL    HW174973   7.942   5.225   3.160
57692SOL    HW274974   7.865   5.234   3.290
57693SOL     OW74975   8.105   9.171  14.761
57693SOL    HW174976   8.028   9.214  14.724
57693SOL    HW274977   8.098   9.080  14.732
57694SOL     OW74978   7.910   9.299  13.093
57694SOL    HW174979   8.001   9.294  13.124
57694SOL    HW274980   7.917   9.302  12.998
57695SOL     OW74981   5.865  13.400   4.136
57695SOL    HW174982   5.795  13.417   4.074
57695SOL    HW274983   5.944  13.431   4.091
57696SOL     OW74984   4.682   1.620  11.516
57696SOL    HW174985   4.756   1.618  11.457
57696SOL    HW274986   4.660   1.528  11.531
57697SOL     OW74987   8.750  14.450   0.366
57697SOL    HW174988   8.774  14.541   0.387
57697SOL    HW274989   8.717  14.415   0.449
57698SOL     OW74990   1.825   1.913   4.874
57698SOL    HW174991   1.912   1.872   4.884
57698SOL    HW274992   1.784   1.901   4.960
57699SOL     OW74993  12.196   3.698   6.903
57699SOL    HW174994  12.161   3.687   6.991
57699SOL    HW274995  12.190   3.611   6.864
57700SOL     OW74996  14.607  13.908  11.051
57700SOL    HW174997  14.528  13.957  11.072
57700SOL    HW274998  14.626  13.858  11.130
57701SOL     OW74999  11.691   6.166   1.454
57701SOL    HW175000  11.682   6.223   1.530
57701SOL    HW275001  11.698   6.226   1.380
57702SOL     OW75002   8.334   0.505   1.583
57702SOL    HW175003   8.327   0.414   1.555
57702SOL    HW275004   8.418   0.534   1.549
57703SOL     OW75005   7.434   3.191   7.516
57703SOL    HW175006   7.409   3.283   7.507
57703SOL    HW275007   7.523   3.194   7.549
57704SOL     OW75008  13.042  14.823   8.919
57704SOL    HW175009  13.069   0.010   8.987
57704SOL    HW275010  12.963  14.782   8.955
57705SOL     OW75011   4.130   5.488  12.401
57705SOL    HW175012   4.071   5.512  12.473
57705SOL    HW275013   4.209   5.457  12.445
57706SOL     OW75014   9.232   6.558  11.438
57706SOL    HW175015   9.274   6.640  11.411
57706SOL    HW275016   9.210   6.513  11.357
57707SOL     OW75017   7.484  12.447  14.207
57707SOL    HW175018   7.429  12.369  14.208
57707SOL    HW275019   7.493  12.471  14.299
57708SOL     OW75020  11.754  10.989   0.882
57708SOL    HW175021  11.684  11.049   0.855
57708SOL    HW275022  11.833  11.043   0.884
57709SOL     OW75023  10.014  10.190  13.776
57709SOL    HW175024  10.047  10.144  13.853
57709SOL    HW275025  10.041  10.281  13.789
57710SOL     OW75026   0.228   5.961  12.889
57710SOL    HW175027   0.145   5.950  12.843
57710SOL    HW275028   0.252   6.053  12.874
57711SOL     OW75029   9.478  10.536  11.554
57711SOL    HW175030   9.545  10.603  11.543
57711SOL    HW275031   9.461  10.534  11.648
57712SOL     OW75032   0.407   6.842  10.833
57712SOL    HW175033   0.387   6.883  10.918
57712SOL    HW275034   0.325   6.797  10.809
57713SOL     OW75035  10.033   8.468  11.707
57713SOL    HW175036  10.072   8.532  11.648
57713SOL    HW275037  10.026   8.388  11.655
57714SOL     OW75038   8.149  10.718   0.450
57714SOL    HW175039   8.068  10.669   0.469
57714SOL    HW275040   8.171  10.761   0.533
57715SOL     OW75041   5.606  13.383   9.641
57715SOL    HW175042   5.668  13.446   9.606
57715SOL    HW275043   5.533  13.436   9.672
57716SOL     OW75044   6.065  11.939  11.202
57716SOL    HW175045   6.159  11.929  11.219
57716SOL    HW275046   6.042  11.861  11.152
57717SOL     OW75047   3.758   7.625   9.365
57717SOL    HW175048   3.801   7.540   9.373
57717SOL    HW275049   3.665   7.603   9.354
57718SOL     OW75050  10.668   1.026  10.159
57718SOL    HW175051  10.700   0.941  10.187
57718SOL    HW275052  10.702   1.087  10.225
57719SOL     OW75053   5.709   7.826   8.411
57719SOL    HW175054   5.759   7.840   8.491
57719SOL    HW275055   5.710   7.910   8.366
57720SOL     OW75056   2.756   6.778   6.051
57720SOL    HW175057   2.758   6.756   5.958
57720SOL    HW275058   2.740   6.873   6.052
57721SOL     OW75059   1.408   4.749   8.997
57721SOL    HW175060   1.400   4.844   8.990
57721SOL    HW275061   1.356   4.726   9.075
57722SOL     OW75062   7.537   3.644  14.428
57722SOL    HW175063   7.589   3.633  14.508
57722SOL    HW275064   7.529   3.556  14.392
57723SOL     OW75065   5.000   6.674   0.684
57723SOL    HW175066   5.078   6.723   0.712
57723SOL    HW275067   4.947   6.667   0.764
57724SOL     OW75068  11.647  11.547   9.386
57724SOL    HW175069  11.731  11.588   9.408
57724SOL    HW275070  11.622  11.586   9.303
57725SOL     OW75071   7.151   4.701   4.538
57725SOL    HW175072   7.166   4.635   4.605
57725SOL    HW275073   7.120   4.651   4.462
57726SOL     OW75074  13.893   7.680   2.152
57726SOL    HW175075  13.926   7.767   2.134
57726SOL    HW275076  13.906   7.668   2.246
57727SOL     OW75077  10.370  12.687  14.184
57727SOL    HW175078  10.343  12.703  14.274
57727SOL    HW275079  10.307  12.623  14.151
57728SOL     OW75080   0.242   8.313  12.883
57728SOL    HW175081   0.221   8.369  12.958
57728SOL    HW275082   0.303   8.249  12.918
57729SOL     OW75083   5.195   5.986   8.708
57729SOL    HW175084   5.248   6.043   8.652
57729SOL    HW275085   5.196   5.901   8.665
57730SOL     OW75086   3.397  14.847   5.488
57730SOL    HW175087   3.406  14.871   5.580
57730SOL    HW275088   3.442  14.763   5.481
57731SOL     OW75089   3.061   0.409  14.336
57731SOL    HW175090   3.076   0.357  14.257
57731SOL    HW275091   3.148   0.432  14.367
57732SOL     OW75092   2.556  10.520   7.048
57732SOL    HW175093   2.462  10.536   7.038
57732SOL    HW275094   2.596  10.565   6.973
57733SOL     OW75095   6.456  11.263  10.693
57733SOL    HW175096   6.430  11.300  10.608
57733SOL    HW275097   6.476  11.340  10.747
57734SOL     OW75098   8.683   4.161  14.492
57734SOL    HW175099   8.729   4.219  14.553
57734SOL    HW275100   8.687   4.075  14.534
57735SOL     OW75101  12.703   8.956  11.047
57735SOL    HW175102  12.652   8.971  10.967
57735SOL    HW275103  12.746   9.040  11.064
57736SOL     OW75104   0.186   7.622   6.990
57736SOL    HW175105   0.221   7.681   7.057
57736SOL    HW275106   0.191   7.671   6.909
57737SOL     OW75107   6.145   2.647  14.525
57737SOL    HW175108   6.090   2.582  14.569
57737SOL    HW275109   6.182   2.600  14.450
57738SOL     OW75110   6.558   3.519   2.782
57738SOL    HW175111   6.608   3.591   2.742
57738SOL    HW275112   6.597   3.440   2.745
57739SOL     OW75113   4.482   0.812   3.171
57739SOL    HW175114   4.572   0.826   3.140
57739SOL    HW275115   4.437   0.895   3.154
57740SOL     OW75116  12.517   4.049  13.029
57740SOL    HW175117  12.427   4.081  13.040
57740SOL    HW275118  12.548   4.034  13.118
57741SOL     OW75119   9.351  10.814  14.582
57741SOL    HW175120   9.437  10.853  14.598
57741SOL    HW275121   9.292  10.861  14.641
57742SOL     OW75122   0.549   8.296   2.122
57742SOL    HW175123   0.480   8.361   2.110
57742SOL    HW275124   0.521   8.222   2.069
57743SOL     OW75125   1.277   7.649   1.617
57743SOL    HW175126   1.368   7.681   1.618
57743SOL    HW275127   1.245   7.671   1.530
57744SOL     OW75128  13.304   1.071  11.276
57744SOL    HW175129  13.338   1.005  11.337
57744SOL    HW275130  13.225   1.105  11.319
57745SOL     OW75131   8.824   7.800   5.742
57745SOL    HW175132   8.818   7.751   5.823
57745SOL    HW275133   8.886   7.751   5.688
57746SOL     OW75134   5.325   3.502  13.618
57746SOL    HW175135   5.248   3.558  13.619
57746SOL    HW275136   5.396   3.557  13.652
57747SOL     OW75137  12.128   1.325   3.007
57747SOL    HW175138  12.092   1.410   2.980
57747SOL    HW275139  12.215   1.322   2.967
57748SOL     OW75140   3.688   9.695  10.735
57748SOL    HW175141   3.661   9.675  10.825
57748SOL    HW275142   3.723   9.784  10.740
57749SOL     OW75143   0.936   2.300  13.879
57749SOL    HW175144   0.885   2.359  13.936
57749SOL    HW275145   1.014   2.351  13.856
57750SOL     OW75146   9.176   1.204   8.349
57750SOL    HW175147   9.118   1.145   8.299
57750SOL    HW275148   9.156   1.291   8.315
57751SOL     OW75149  11.946  11.010  11.684
57751SOL    HW175150  11.961  11.019  11.778
57751SOL    HW275151  12.025  11.047  11.644
57752SOL     OW75152   6.030   4.226  11.545
57752SOL    HW175153   5.971   4.302  11.541
57752SOL    HW275154   6.113   4.262  11.576
57753SOL     OW75155   2.295  12.946   6.954
57753SOL    HW175156   2.253  12.863   6.930
57753SOL    HW275157   2.320  12.934   7.046
57754SOL     OW75158  13.699   4.195  13.838
57754SOL    HW175159  13.670   4.253  13.908
57754SOL    HW275160  13.629   4.129  13.831
57755SOL     OW75161  11.662   7.109   7.873
57755SOL    HW175162  11.639   7.085   7.962
57755SOL    HW275163  11.639   7.032   7.820
57756SOL     OW75164   7.900   8.662   7.680
57756SOL    HW175165   7.833   8.600   7.650
57756SOL    HW275166   7.982   8.611   7.679
57757SOL     OW75167  14.279   9.248   0.072
57757SOL    HW175168  14.261   9.336   0.042
57757SOL    HW275169  14.209   9.229   0.135
57758SOL     OW75170   4.534   9.647   4.159
57758SOL    HW175171   4.518   9.741   4.161
57758SOL    HW275172   4.597   9.632   4.230
57759SOL     OW75173   6.213   5.807  14.869
57759SOL    HW175174   6.301   5.804   0.032
57759SOL    HW275175   6.227   5.792  14.775
57760SOL     OW75176   5.077   4.951   9.583
57760SOL    HW175177   5.117   4.960   9.497
57760SOL    HW275178   5.082   4.857   9.602
57761SOL     OW75179   9.671  12.604   4.767
57761SOL    HW175180   9.599  12.556   4.727
57761SOL    HW275181   9.705  12.659   4.696
57762SOL     OW75182   5.687   4.475   7.437
57762SOL    HW175183   5.676   4.523   7.355
57762SOL    HW275184   5.763   4.418   7.422
57763SOL     OW75185   7.595   0.538   6.370
57763SOL    HW175186   7.556   0.625   6.372
57763SOL    HW275187   7.586   0.509   6.280
57764SOL     OW75188  11.374  11.285   2.675
57764SOL    HW175189  11.444  11.268   2.611
57764SOL    HW275190  11.395  11.372   2.710
57765SOL     OW75191   7.571   4.359  13.171
57765SOL    HW175192   7.500   4.310  13.129
57765SOL    HW275193   7.603   4.417  13.102
57766SOL     OW75194  14.578   3.501   4.693
57766SOL    HW175195  14.497   3.484   4.645
57766SOL    HW275196  14.559   3.578   4.746
57767SOL     OW75197   6.675   2.200   8.427
57767SOL    HW175198   6.725   2.128   8.389
57767SOL    HW275199   6.731   2.234   8.497
57768SOL     OW75200   8.980  12.024   4.491
57768SOL    HW175201   8.948  11.941   4.526
57768SOL    HW275202   8.903  12.066   4.454
57769SOL     OW75203   5.083  11.873  13.166
57769SOL    HW175204   5.136  11.798  13.190
57769SOL    HW275205   5.045  11.903  13.249
57770SOL     OW75206   0.325   7.248   0.888
57770SOL    HW175207   0.277   7.177   0.932
57770SOL    HW275208   0.285   7.255   0.802
57771SOL     OW75209  13.323   3.250   2.547
57771SOL    HW175210  13.267   3.173   2.555
57771SOL    HW275211  13.393   3.222   2.488
57772SOL     OW75212   4.916   7.505  11.195
57772SOL    HW175213   4.945   7.542  11.111
57772SOL    HW275214   4.997   7.484  11.241
57773SOL     OW75215   9.553   8.886   5.397
57773SOL    HW175216   9.557   8.961   5.338
57773SOL    HW275217   9.553   8.810   5.339
57774SOL     OW75218  14.282   5.051   3.507
57774SOL    HW175219  14.188   5.061   3.494
57774SOL    HW275220  14.316   5.030   3.421
57775SOL     OW75221  11.008   6.431  11.196
57775SOL    HW175222  11.062   6.352  11.200
57775SOL    HW275223  11.071   6.502  11.184
57776SOL     OW75224   5.856  10.682   3.219
57776SOL    HW175225   5.899  10.741   3.157
57776SOL    HW275226   5.763  10.705   3.214
57777SOL     OW75227  11.844   6.252  13.620
57777SOL    HW175228  11.909   6.303  13.667
57777SOL    HW275229  11.852   6.163  13.655
57778SOL     OW75230  14.109  13.535   9.184
57778SOL    HW175231  14.039  13.572   9.239
57778SOL    HW275232  14.099  13.440   9.194
57779SOL     OW75233   4.938  14.425  12.596
57779SOL    HW175234   4.847  14.437  12.625
57779SOL    HW275235   4.955  14.501  12.540
57780SOL     OW75236  13.443  12.739   3.825
57780SOL    HW175237  13.519  12.702   3.869
57780SOL    HW275238  13.467  12.740   3.732
57781SOL     OW75239   7.790   6.660   3.235
57781SOL    HW175240   7.757   6.580   3.277
57781SOL    HW275241   7.772   6.648   3.142
57782SOL     OW75242  11.977   0.844  10.276
57782SOL    HW175243  11.981   0.891  10.359
57782SOL    HW275244  11.932   0.904  10.217
57783SOL     OW75245   5.994   0.418   8.979
57783SOL    HW175246   5.968   0.344   9.034
57783SOL    HW275247   5.912   0.451   8.943
57784SOL     OW75248   4.179  14.273   0.567
57784SOL    HW175249   4.160  14.366   0.557
57784SOL    HW275250   4.260  14.270   0.617
57785SOL     OW75251   6.063   7.237  14.050
57785SOL    HW175252   6.039   7.328  14.066
57785SOL    HW275253   6.005   7.209  13.979
57786SOL     OW75254   5.866  13.525   0.462
57786SOL    HW175255   5.854  13.599   0.403
57786SOL    HW275256   5.853  13.562   0.550
57787SOL     OW75257  12.178  12.000   9.084
57787SOL    HW175258  12.116  11.928   9.092
57787SOL    HW275259  12.254  11.964   9.039
57788SOL     OW75260   1.399   5.569   7.077
57788SOL    HW175261   1.420   5.652   7.036
57788SOL    HW275262   1.390   5.507   7.005
57789SOL     OW75263   6.110   2.905  14.590
57789SOL    HW175264   6.143   2.815  14.592
57789SOL    HW275265   6.056   2.913  14.669
57790SOL     OW75266   4.716  11.490   3.398
57790SOL    HW175267   4.711  11.579   3.362
57790SOL    HW275268   4.783  11.495   3.466
57791SOL     OW75269  14.614  13.248  13.605
57791SOL    HW175270  14.525  13.220  13.582
57791SOL    HW275271  14.602  13.326  13.659
57792SOL     OW75272   6.139   0.532  10.045
57792SOL    HW175273   6.198   0.591   9.999
57792SOL    HW275274   6.055   0.543  10.002
57793SOL     OW75275   5.226  14.392  14.674
57793SOL    HW175276   5.235  14.325  14.606
57793SOL    HW275277   5.280  14.465  14.644
57794SOL     OW75278   1.952  11.572  14.247
57794SOL    HW175279   2.046  11.561  14.238
57794SOL    HW275280   1.929  11.641  14.185
57795SOL     OW75281   8.242   6.748   8.849
57795SOL    HW175282   8.171   6.727   8.908
57795SOL    HW275283   8.321   6.736   8.901
57796SOL     OW75284  14.647   5.522  10.316
57796SOL    HW175285  14.571   5.475  10.350
57796SOL    HW275286  14.637   5.516  10.221
57797SOL     OW75287  10.922   9.404  11.104
57797SOL    HW175288  11.016   9.400  11.122
57797SOL    HW275289  10.915   9.440  11.016
57798SOL     OW75290   0.695   7.803   8.261
57798SOL    HW175291   0.734   7.840   8.340
57798SOL    HW275292   0.753   7.732   8.236
57799SOL     OW75293   1.812   3.011   6.778
57799SOL    HW175294   1.871   3.019   6.703
57799SOL    HW275295   1.763   2.930   6.761
57800SOL     OW75296   4.558   5.389  10.709
57800SOL    HW175297   4.587   5.346  10.790
57800SOL    HW275298   4.535   5.317  10.651
57801SOL     OW75299   1.425   4.145   9.495
57801SOL    HW175300   1.424   4.164   9.589
57801SOL    HW275301   1.422   4.232   9.453
57802SOL     OW75302   8.403   7.360  10.000
57802SOL    HW175303   8.433   7.378   9.911
57802SOL    HW275304   8.313   7.393  10.002
57803SOL     OW75305   0.879   9.283   7.777
57803SOL    HW175306   0.967   9.305   7.809
57803SOL    HW275307   0.884   9.299   7.682
57804SOL     OW75308   5.875  12.143   5.809
57804SOL    HW175309   5.969  12.158   5.803
57804SOL    HW275310   5.841  12.163   5.722
57805SOL     OW75311   2.877   1.321   8.977
57805SOL    HW175312   2.833   1.406   8.986
57805SOL    HW275313   2.812   1.257   9.003
57806SOL     OW75314   9.909   0.963   7.699
57806SOL    HW175315   9.857   0.927   7.770
57806SOL    HW275316   9.909   1.057   7.714
57807SOL     OW75317   5.482  12.656  10.709
57807SOL    HW175318   5.548  12.678  10.775
57807SOL    HW275319   5.401  12.644  10.758
57808SOL     OW75320  11.678   5.009  10.330
57808SOL    HW175321  11.741   5.082  10.329
57808SOL    HW275322  11.733   4.931  10.334
57809SOL     OW75323   6.497  14.447  10.203
57809SOL    HW175324   6.449  14.364  10.192
57809SOL    HW275325   6.525  14.445  10.295
57810SOL     OW75326   6.282  10.541   1.853
57810SOL    HW175327   6.237  10.461   1.824
57810SOL    HW275328   6.214  10.591   1.899
57811SOL     OW75329  14.093   2.810   1.923
57811SOL    HW175330  14.081   2.715   1.931
57811SOL    HW275331  14.183   2.820   1.890
57812SOL     OW75332   0.680   0.517  11.900
57812SOL    HW175333   0.610   0.582  11.903
57812SOL    HW275334   0.695   0.493  11.991
57813SOL     OW75335   6.994  10.631   4.141
57813SOL    HW175336   6.961  10.558   4.088
57813SOL    HW275337   7.077  10.655   4.100
57814SOL     OW75338   8.562  11.779   9.118
57814SOL    HW175339   8.488  11.827   9.154
57814SOL    HW275340   8.613  11.751   9.194
57815SOL     OW75341  14.870  14.812   8.023
57815SOL    HW175342   0.024  14.775   8.107
57815SOL    HW275343   0.065  14.790   7.962
57816SOL     OW75344   7.202   2.434   0.970
57816SOL    HW175345   7.232   2.367   1.031
57816SOL    HW275346   7.151   2.495   1.024
57817SOL     OW75347   9.134   6.382   3.586
57817SOL    HW175348   9.185   6.460   3.606
57817SOL    HW275349   9.048   6.415   3.559
57818SOL     OW75350   7.538   2.144  14.604
57818SOL    HW175351   7.622   2.167  14.564
57818SOL    HW275352   7.479   2.133  14.529
57819SOL     OW75353  11.030   1.167   6.809
57819SOL    HW175354  11.095   1.105   6.842
57819SOL    HW275355  11.082   1.241   6.778
57820SOL     OW75356  13.349  11.472   9.828
57820SOL    HW175357  13.365  11.410   9.899
57820SOL    HW275358  13.389  11.554   9.859
57821SOL     OW75359   7.137  12.618   7.105
57821SOL    HW175360   7.068  12.680   7.126
57821SOL    HW275361   7.092  12.536   7.088
57822SOL     OW75362   8.846  12.200  14.405
57822SOL    HW175363   8.934  12.219  14.439
57822SOL    HW275364   8.844  12.105  14.395
57823SOL     OW75365   6.740   3.217   4.956
57823SOL    HW175366   6.756   3.311   4.945
57823SOL    HW275367   6.820   3.184   4.995
57824SOL     OW75368  11.856   9.329  12.830
57824SOL    HW175369  11.906   9.410  12.822
57824SOL    HW275370  11.764   9.357  12.826
57825SOL     OW75371   1.189  14.683  11.220
57825SOL    HW175372   1.117  14.642  11.173
57825SOL    HW275373   1.149  14.722  11.298
57826SOL     OW75374   1.736   7.878   9.184
57826SOL    HW175375   1.717   7.940   9.114
57826SOL    HW275376   1.651   7.865   9.227
57827SOL     OW75377   6.802  10.407   6.763
57827SOL    HW175378   6.760  10.478   6.716
57827SOL    HW275379   6.772  10.328   6.718
57828SOL     OW75380  11.775   0.020   4.805
57828SOL    HW175381  11.729   0.079   4.746
57828SOL    HW275382  11.733   0.032   4.889
57829SOL     OW75383   9.935  12.723   4.393
57829SOL    HW175384   9.939  12.708   4.487
57829SOL    HW275385  10.026  12.711   4.363
57830SOL     OW75386  13.648  11.272   4.096
57830SOL    HW175387  13.602  11.190   4.112
57830SOL    HW275388  13.740  11.248   4.092
57831SOL     OW75389  14.313   1.989  11.717
57831SOL    HW175390  14.369   2.050  11.765
57831SOL    HW275391  14.261   2.044  11.658
57832SOL     OW75392   2.166  11.938   8.901
57832SOL    HW175393   2.194  11.935   8.809
57832SOL    HW275394   2.240  11.978   8.947
57833SOL     OW75395   5.851   6.757   8.112
57833SOL    HW175396   5.909   6.756   8.035
57833SOL    HW275397   5.787   6.825   8.093
57834SOL     OW75398  11.742  14.330  10.461
57834SOL    HW175399  11.805  14.269  10.424
57834SOL    HW275400  11.794  14.405  10.488
57835SOL     OW75401   5.030  13.570   0.134
57835SOL    HW175402   5.048  13.664   0.141
57835SOL    HW275403   5.023  13.540   0.224
57836SOL     OW75404   0.688  11.982  14.440
57836SOL    HW175405   0.718  11.901  14.399
57836SOL    HW275406   0.597  11.991  14.412
57837SOL     OW75407  12.762  14.125  14.376
57837SOL    HW175408  12.811  14.095  14.300
57837SOL    HW275409  12.800  14.077  14.450
57838SOL     OW75410  14.867   4.217  11.647
57838SOL    HW175411  14.776   4.191  11.634
57838SOL    HW275412   0.025   4.159  11.715
57839SOL     OW75413  10.458  14.510   5.495
57839SOL    HW175414  10.512  14.581   5.529
57839SOL    HW275415  10.469  14.514   5.400
57840SOL     OW75416   4.125   6.065   8.123
57840SOL    HW175417   4.036   6.098   8.111
57840SOL    HW275418   4.164   6.070   8.036
57841SOL     OW75419  13.456   4.790   0.689
57841SOL    HW175420  13.530   4.771   0.631
57841SOL    HW275421  13.480   4.872   0.731
57842SOL     OW75422   8.418   8.044   5.284
57842SOL    HW175423   8.492   8.098   5.255
57842SOL    HW275424   8.424   7.965   5.230
57843SOL     OW75425   4.588   2.884   2.944
57843SOL    HW175426   4.554   2.794   2.940
57843SOL    HW275427   4.523   2.932   2.996
57844SOL     OW75428  14.847  13.847   0.165
57844SOL    HW175429   0.003  13.759   0.141
57844SOL    HW275430   0.003  13.860   0.254
57845SOL     OW75431   9.737   3.252   4.632
57845SOL    HW175432   9.642   3.245   4.622
57845SOL    HW275433   9.770   3.163   4.618
57846SOL     OW75434  12.312   0.818   2.522
57846SOL    HW175435  12.262   0.737   2.530
57846SOL    HW275436  12.311   0.838   2.429
57847SOL     OW75437   2.881   8.751  12.782
57847SOL    HW175438   2.889   8.665  12.824
57847SOL    HW275439   2.786   8.768  12.780
57848SOL     OW75440   0.863   2.654  13.289
57848SOL    HW175441   0.898   2.688  13.206
57848SOL    HW275442   0.931   2.673  13.354
57849SOL     OW75443  12.006  14.156  12.354
57849SOL    HW175444  12.048  14.122  12.432
57849SOL    HW275445  12.078  14.179  12.295
57850SOL     OW75446  10.549   9.263   3.229
57850SOL    HW175447  10.534   9.176   3.192
57850SOL    HW275448  10.606   9.306   3.167
57851SOL     OW75449  11.544   6.034  13.869
57851SOL    HW175450  11.570   6.126  13.877
57851SOL    HW275451  11.449   6.036  13.863
57852SOL     OW75452   5.566   6.652   7.578
57852SOL    HW175453   5.584   6.741   7.610
57852SOL    HW275454   5.646   6.627   7.531
57853SOL     OW75455  12.201  10.937   7.926
57853SOL    HW175456  12.191  11.014   7.869
57853SOL    HW275457  12.165  10.965   8.010
57854SOL     OW75458   6.946   6.885   6.130
57854SOL    HW175459   6.917   6.928   6.050
57854SOL    HW275460   6.956   6.957   6.193
57855SOL     OW75461  10.473   0.799   2.339
57855SOL    HW175462  10.556   0.817   2.295
57855SOL    HW275463  10.417   0.874   2.317
57856SOL     OW75464  13.188  11.676   6.148
57856SOL    HW175465  13.220  11.737   6.215
57856SOL    HW275466  13.217  11.590   6.178
57857SOL     OW75467  13.188  12.868  14.588
57857SOL    HW175468  13.128  12.924  14.539
57857SOL    HW275469  13.274  12.886  14.549
57858SOL     OW75470   6.015   1.130   6.412
57858SOL    HW175471   6.049   1.041   6.424
57858SOL    HW275472   5.985   1.132   6.322
57859SOL     OW75473   1.239   8.122   6.548
57859SOL    HW175474   1.185   8.053   6.509
57859SOL    HW275475   1.252   8.095   6.638
57860SOL     OW75476   6.437  11.536  13.503
57860SOL    HW175477   6.501  11.510  13.437
57860SOL    HW275478   6.354  11.500  13.472
57861SOL     OW75479   8.711   2.024  10.881
57861SOL    HW175480   8.707   2.065  10.795
57861SOL    HW275481   8.624   1.986  10.894
57862SOL     OW75482  11.082   3.617   2.589
57862SOL    HW175483  11.122   3.595   2.505
57862SOL    HW275484  10.996   3.574   2.587
57863SOL     OW75485  14.798  13.407   9.115
57863SOL    HW175486  14.854  13.387   9.041
57863SOL    HW275487  14.785  13.323   9.158
57864SOL     OW75488  10.070   7.127   1.208
57864SOL    HW175489  10.126   7.137   1.286
57864SOL    HW275490  10.100   7.046   1.167
57865SOL     OW75491   1.785   8.150   9.491
57865SOL    HW175492   1.870   8.160   9.533
57865SOL    HW275493   1.727   8.119   9.560
57866SOL     OW75494  13.609   0.708   0.653
57866SOL    HW175495  13.632   0.759   0.731
57866SOL    HW275496  13.683   0.648   0.641
57867SOL     OW75497   0.620  14.182   6.378
57867SOL    HW175498   0.693  14.239   6.400
57867SOL    HW275499   0.617  14.182   6.282
57868SOL     OW75500   1.221   2.356   7.734
57868SOL    HW175501   1.199   2.343   7.827
57868SOL    HW275502   1.163   2.295   7.687
57869SOL     OW75503   4.896   8.291  11.953
57869SOL    HW175504   4.914   8.254  11.867
57869SOL    HW275505   4.888   8.385  11.938
57870SOL     OW75506   5.511  12.483   4.178
57870SOL    HW175507   5.472  12.407   4.221
57870SOL    HW275508   5.458  12.496   4.099
57871SOL     OW75509   7.038  12.641   5.058
57871SOL    HW175510   7.077  12.654   4.972
57871SOL    HW275511   6.997  12.725   5.079
57872SOL     OW75512   6.027   5.068   0.692
57872SOL    HW175513   6.040   4.973   0.688
57872SOL    HW275514   6.033   5.097   0.601
57873SOL     OW75515   2.004   5.494   4.029
57873SOL    HW175516   2.007   5.437   3.952
57873SOL    HW275517   2.077   5.463   4.084
57874SOL     OW75518  11.988  10.579  12.227
57874SOL    HW175519  11.917  10.551  12.285
57874SOL    HW275520  12.038  10.499  12.211
57875SOL     OW75521  10.479   9.230  13.393
57875SOL    HW175522  10.433   9.224  13.309
57875SOL    HW275523  10.410   9.252  13.456
57876SOL     OW75524   3.819  13.065  10.638
57876SOL    HW175525   3.747  13.051  10.699
57876SOL    HW275526   3.869  13.138  10.676
57877SOL     OW75527   3.875   1.018   5.943
57877SOL    HW175528   3.940   1.052   5.881
57877SOL    HW275529   3.865   0.926   5.918
57878SOL     OW75530  10.535   6.686   6.078
57878SOL    HW175531  10.497   6.638   6.152
57878SOL    HW275532  10.465   6.689   6.013
57879SOL     OW75533   8.180  14.262   1.823
57879SOL    HW175534   8.112  14.256   1.756
57879SOL    HW275535   8.190  14.356   1.839
57880SOL     OW75536  10.637  13.451   9.262
57880SOL    HW175537  10.553  13.489   9.237
57880SOL    HW275538  10.647  13.376   9.204
57881SOL     OW75539  12.079  14.165   8.983
57881SOL    HW175540  12.047  14.220   9.054
57881SOL    HW275541  12.122  14.226   8.923
57882SOL     OW75542   1.421  10.098   0.777
57882SOL    HW175543   1.514  10.122   0.786
57882SOL    HW275544   1.375  10.181   0.778
57883SOL     OW75545   6.449   7.053   8.899
57883SOL    HW175546   6.516   6.986   8.906
57883SOL    HW275547   6.416   7.045   8.810
57884SOL     OW75548   8.392   1.287   2.414
57884SOL    HW175549   8.356   1.280   2.325
57884SOL    HW275550   8.332   1.236   2.468
57885SOL     OW75551   6.029   9.285  10.792
57885SOL    HW175552   5.962   9.298  10.725
57885SOL    HW275553   6.072   9.203  10.767
57886SOL     OW75554   6.057  10.104  13.711
57886SOL    HW175555   6.087  10.016  13.735
57886SOL    HW275556   5.962  10.097  13.707
57887SOL     OW75557   4.969   7.545   6.192
57887SOL    HW175558   5.014   7.461   6.206
57887SOL    HW275559   4.970   7.588   6.278
57888SOL     OW75560  12.151   2.823  10.025
57888SOL    HW175561  12.092   2.807  10.099
57888SOL    HW275562  12.129   2.753   9.962
57889SOL     OW75563   6.088   2.865   2.823
57889SOL    HW175564   6.088   2.769   2.826
57889SOL    HW275565   6.175   2.890   2.853
57890SOL     OW75566   1.204  14.360   1.848
57890SOL    HW175567   1.241  14.425   1.788
57890SOL    HW275568   1.142  14.409   1.902
57891SOL     OW75569  11.140  12.603  13.063
57891SOL    HW175570  11.183  12.669  13.118
57891SOL    HW275571  11.047  12.623  13.070
57892SOL     OW75572  10.923  12.812  11.799
57892SOL    HW175573  10.923  12.898  11.842
57892SOL    HW275574  10.976  12.757  11.856
57893SOL     OW75575  11.215   8.577   2.627
57893SOL    HW175576  11.228   8.638   2.700
57893SOL    HW275577  11.124   8.589   2.601
57894SOL     OW75578   6.486   0.688   6.590
57894SOL    HW175579   6.458   0.645   6.509
57894SOL    HW275580   6.567   0.643   6.614
57895SOL     OW75581  13.682   9.868   2.921
57895SOL    HW175582  13.712   9.959   2.915
57895SOL    HW275583  13.616   9.868   2.990
57896SOL     OW75584  10.500   8.513   1.573
57896SOL    HW175585  10.418   8.469   1.596
57896SOL    HW275586  10.542   8.454   1.511
57897SOL     OW75587  10.199   6.782   3.300
57897SOL    HW175588  10.262   6.800   3.370
57897SOL    HW275589  10.253   6.759   3.224
57898SOL     OW75590   6.052   8.334  14.130
57898SOL    HW175591   6.100   8.359  14.051
57898SOL    HW275592   6.016   8.416  14.163
57899SOL     OW75593  11.072   6.718  12.978
57899SOL    HW175594  11.043   6.768  13.054
57899SOL    HW275595  10.999   6.724  12.916
57900SOL     OW75596   0.615   9.710  13.168
57900SOL    HW175597   0.620   9.658  13.248
57900SOL    HW275598   0.681   9.672  13.110
57901SOL     OW75599   1.782   1.189   4.767
57901SOL    HW175600   1.842   1.241   4.713
57901SOL    HW275601   1.716   1.157   4.706
57902SOL     OW75602  10.985   7.410   2.176
57902SOL    HW175603  10.938   7.328   2.189
57902SOL    HW275604  11.076   7.388   2.195
57903SOL     OW75605  13.428  13.775   8.247
57903SOL    HW175606  13.438  13.821   8.331
57903SOL    HW275607  13.508  13.796   8.199
57904SOL     OW75608  12.013   8.795   0.582
57904SOL    HW175609  12.002   8.792   0.487
57904SOL    HW275610  11.979   8.881   0.607
57905SOL     OW75611  11.987   3.826  12.433
57905SOL    HW175612  12.020   3.866  12.352
57905SOL    HW275613  11.913   3.772  12.405
57906SOL     OW75614   4.508  13.834   7.266
57906SOL    HW175615   4.435  13.837   7.205
57906SOL    HW275616   4.486  13.898   7.334
57907SOL     OW75617   3.833   4.123   4.048
57907SOL    HW175618   3.828   4.029   4.031
57907SOL    HW275619   3.916   4.135   4.094
57908SOL     OW75620   4.156  10.417  10.840
57908SOL    HW175621   4.069  10.387  10.864
57908SOL    HW275622   4.145  10.509  10.817
57909SOL     OW75623   6.816   9.214  13.919
57909SOL    HW175624   6.908   9.231  13.896
57909SOL    HW275625   6.815   9.215  14.015
57910SOL     OW75626   6.903   0.164   4.974
57910SOL    HW175627   6.858   0.248   4.974
57910SOL    HW275628   6.841   0.103   4.937
57911SOL     OW75629  12.137  14.094   4.783
57911SOL    HW175630  12.072  14.164   4.786
57911SOL    HW275631  12.152  14.071   4.875
57912SOL     OW75632  10.861   8.836   9.427
57912SOL    HW175633  10.875   8.799   9.514
57912SOL    HW275634  10.870   8.761   9.368
57913SOL     OW75635  10.572   3.152   1.333
57913SOL    HW175636  10.480   3.181   1.338
57913SOL    HW275637  10.579   3.087   1.403
57914SOL     OW75638   9.412   8.047  11.247
57914SOL    HW175639   9.433   8.122  11.191
57914SOL    HW275640   9.497   8.016  11.278
57915SOL     OW75641   6.227   4.079  12.727
57915SOL    HW175642   6.261   4.054  12.813
57915SOL    HW275643   6.136   4.048  12.728
57916SOL     OW75644   1.440   6.402  10.531
57916SOL    HW175645   1.415   6.481  10.580
57916SOL    HW275646   1.521   6.426  10.486
57917SOL     OW75647   1.251   2.270  11.775
57917SOL    HW175648   1.329   2.239  11.820
57917SOL    HW275649   1.224   2.196  11.721
57918SOL     OW75650   5.517  11.350  13.571
57918SOL    HW175651   5.538  11.434  13.611
57918SOL    HW275652   5.581  11.340  13.499
57919SOL     OW75653  11.789   8.846  14.073
57919SOL    HW175654  11.709   8.890  14.101
57919SOL    HW275655  11.859   8.891  14.121
57920SOL     OW75656   4.885   2.258  10.083
57920SOL    HW175657   4.968   2.297  10.055
57920SOL    HW275658   4.898   2.163  10.075
57921SOL     OW75659  12.015   1.674  12.608
57921SOL    HW175660  12.056   1.624  12.537
57921SOL    HW275661  11.941   1.719  12.567
57922SOL     OW75662   4.261   5.129  10.577
57922SOL    HW175663   4.229   5.081  10.653
57922SOL    HW275664   4.232   5.077  10.502
57923SOL     OW75665   1.665  12.008   1.765
57923SOL    HW175666   1.741  12.007   1.708
57923SOL    HW275667   1.668  12.094   1.807
57924SOL     OW75668  11.982   5.707   1.736
57924SOL    HW175669  11.896   5.664   1.728
57924SOL    HW275670  12.014   5.680   1.822
57925SOL     OW75671   5.038   1.738   8.527
57925SOL    HW175672   4.955   1.703   8.495
57925SOL    HW275673   5.040   1.714   8.619
57926SOL     OW75674   8.740   3.378  12.721
57926SOL    HW175675   8.753   3.374  12.816
57926SOL    HW275676   8.790   3.304  12.687
57927SOL     OW75677  10.191   0.537  11.605
57927SOL    HW175678  10.249   0.466  11.633
57927SOL    HW275679  10.229   0.568  11.523
57928SOL     OW75680   3.296   4.289   0.919
57928SOL    HW175681   3.368   4.229   0.936
57928SOL    HW275682   3.255   4.255   0.839
57929SOL     OW75683  14.314  11.139  12.300
57929SOL    HW175684  14.227  11.159  12.335
57929SOL    HW275685  14.352  11.078  12.362
57930SOL     OW75686   2.117   8.122   0.627
57930SOL    HW175687   2.168   8.167   0.695
57930SOL    HW275688   2.165   8.138   0.546
57931SOL     OW75689  14.709   8.109   4.843
57931SOL    HW175690  14.628   8.127   4.796
57931SOL    HW275691  14.746   8.034   4.797
57932SOL     OW75692  10.819   4.728   2.510
57932SOL    HW175693  10.881   4.798   2.494
57932SOL    HW275694  10.817   4.719   2.606
57933SOL     OW75695   9.126  12.571  13.445
57933SOL    HW175696   9.207  12.610  13.476
57933SOL    HW275697   9.058  12.604  13.504
57934SOL     OW75698   5.774   5.310   4.242
57934SOL    HW175699   5.709   5.248   4.274
57934SOL    HW275700   5.855   5.285   4.286
57935SOL     OW75701   2.917   2.691  11.229
57935SOL    HW175702   2.987   2.631  11.204
57935SOL    HW275703   2.962   2.770  11.258
57936SOL     OW75704   5.795   9.774  10.113
57936SOL    HW175705   5.740   9.695  10.107
57936SOL    HW275706   5.782   9.804  10.203
57937SOL     OW75707  10.843   3.591  11.235
57937SOL    HW175708  10.766   3.539  11.259
57937SOL    HW275709  10.874   3.626  11.319
57938SOL     OW75710  11.970   2.989   3.122
57938SOL    HW175711  11.942   2.994   3.213
57938SOL    HW275712  11.912   3.049   3.075
57939SOL     OW75713  13.736  13.415  10.239
57939SOL    HW175714  13.668  13.478  10.263
57939SOL    HW275715  13.699  13.367  10.165
57940SOL     OW75716  12.752  13.999  12.176
57940SOL    HW175717  12.748  14.030  12.085
57940SOL    HW275718  12.831  13.945  12.180
57941SOL     OW75719   6.514   1.407   3.727
57941SOL    HW175720   6.564   1.362   3.659
57941SOL    HW275721   6.422   1.398   3.699
57942SOL     OW75722   0.082   3.864  11.561
57942SOL    HW175723   0.106   3.899  11.646
57942SOL    HW275724   0.164   3.861  11.512
57943SOL     OW75725   6.996  12.339  12.158
57943SOL    HW175726   6.964  12.399  12.225
57943SOL    HW275727   7.050  12.277  12.205
57944SOL     OW75728  12.810   2.562  12.394
57944SOL    HW175729  12.734   2.587  12.340
57944SOL    HW275730  12.848   2.488  12.347
57945SOL     OW75731   4.306   4.404   2.564
57945SOL    HW175732   4.304   4.316   2.602
57945SOL    HW275733   4.352   4.394   2.481
57946SOL     OW75734   5.560   9.315   1.045
57946SOL    HW175735   5.547   9.396   0.996
57946SOL    HW275736   5.501   9.252   1.002
57947SOL     OW75737  14.273  12.691   3.065
57947SOL    HW175738  14.254  12.750   3.137
57947SOL    HW275739  14.300  12.609   3.108
57948SOL     OW75740   8.314   4.273   4.782
57948SOL    HW175741   8.326   4.229   4.865
57948SOL    HW275742   8.345   4.210   4.716
57949SOL     OW75743   3.084   4.198   5.195
57949SOL    HW175744   3.142   4.272   5.180
57949SOL    HW275745   3.076   4.192   5.290
57950SOL     OW75746  11.504   1.988   5.190
57950SOL    HW175747  11.443   2.004   5.262
57950SOL    HW275748  11.517   2.074   5.150
57951SOL     OW75749   0.865   9.044  12.453
57951SOL    HW175750   0.940   9.062  12.396
57951SOL    HW275751   0.789   9.077  12.404
57952SOL     OW75752   0.078   7.578   7.393
57952SOL    HW175753   0.019   7.533   7.454
57952SOL    HW275754   0.033   7.660   7.372
57953SOL     OW75755   2.738  14.846   0.606
57953SOL    HW175756   2.796  14.783   0.563
57953SOL    HW275757   2.792   0.013   0.673
57954SOL     OW75758   5.406   1.384   9.607
57954SOL    HW175759   5.420   1.469   9.649
57954SOL    HW275760   5.375   1.327   9.678
57955SOL     OW75761   3.599   9.473  12.286
57955SOL    HW175762   3.516   9.500  12.326
57955SOL    HW275763   3.636   9.409  12.347
57956SOL     OW75764  13.524  12.080  12.085
57956SOL    HW175765  13.611  12.097  12.049
57956SOL    HW275766  13.467  12.143  12.040
57957SOL     OW75767   0.347   2.250   5.272
57957SOL    HW175768   0.343   2.154   5.276
57957SOL    HW275769   0.422   2.268   5.214
57958SOL     OW75770  11.171   0.340   2.697
57958SOL    HW175771  11.199   0.428   2.670
57958SOL    HW275772  11.234   0.281   2.656
57959SOL     OW75773  11.751  11.871   8.829
57959SOL    HW175774  11.731  11.954   8.788
57959SOL    HW275775  11.666  11.833   8.851
57960SOL     OW75776  12.342  11.663   4.275
57960SOL    HW175777  12.283  11.606   4.324
57960SOL    HW275778  12.393  11.709   4.343
57961SOL     OW75779   6.776   3.196  13.321
57961SOL    HW175780   6.698   3.202  13.377
57961SOL    HW275781   6.848   3.182  13.382
57962SOL     OW75782  12.627   1.263   3.946
57962SOL    HW175783  12.623   1.292   4.037
57962SOL    HW275784  12.715   1.284   3.917
57963SOL     OW75785   2.428  13.602  14.328
57963SOL    HW175786   2.432  13.518  14.374
57963SOL    HW275787   2.349  13.643  14.360
57964SOL     OW75788  11.235   3.054  14.629
57964SOL    HW175789  11.188   2.985  14.583
57964SOL    HW275790  11.216   3.039  14.722
57965SOL     OW75791   4.601  10.414  13.343
57965SOL    HW175792   4.677  10.364  13.313
57965SOL    HW275793   4.637  10.475  13.408
57966SOL     OW75794  11.421   1.988   2.870
57966SOL    HW175795  11.378   1.941   2.941
57966SOL    HW275796  11.485   1.926   2.835
57967SOL     OW75797  13.142  11.538  10.419
57967SOL    HW175798  13.057  11.523  10.459
57967SOL    HW275799  13.193  11.460  10.442
57968SOL     OW75800   2.416  10.390  12.074
57968SOL    HW175801   2.495  10.372  12.123
57968SOL    HW275802   2.442  10.382  11.982
57969SOL     OW75803   0.947   5.709   9.972
57969SOL    HW175804   0.922   5.681   9.884
57969SOL    HW275805   0.873   5.686  10.027
57970SOL     OW75806  10.674  14.001   0.137
57970SOL    HW175807  10.751  14.010   0.081
57970SOL    HW275808  10.647  14.091   0.157
57971SOL     OW75809  14.119   8.144   4.270
57971SOL    HW175810  14.038   8.128   4.223
57971SOL    HW275811  14.173   8.195   4.210
57972SOL     OW75812   0.413   3.090   3.830
57972SOL    HW175813   0.504   3.105   3.855
57972SOL    HW275814   0.395   2.999   3.857
57973SOL     OW75815   9.708   0.747   9.794
57973SOL    HW175816   9.699   0.746   9.699
57973SOL    HW275817   9.618   0.751   9.827
57974SOL     OW75818   0.226  11.361   8.009
57974SOL    HW175819   0.197  11.444   7.971
57974SOL    HW275820   0.276  11.387   8.086
57975SOL     OW75821   1.770   4.389   9.953
57975SOL    HW175822   1.741   4.460  10.010
57975SOL    HW275823   1.708   4.391   9.880
57976SOL     OW75824   5.744  11.060   9.656
57976SOL    HW175825   5.681  11.132   9.655
57976SOL    HW275826   5.781  11.060   9.568
57977SOL     OW75827   1.364   6.533   0.051
57977SOL    HW175828   1.360   6.628   0.037
57977SOL    HW275829   1.350   6.522   0.145
57978SOL     OW75830   2.489   3.446  11.725
57978SOL    HW175831   2.418   3.383  11.732
57978SOL    HW275832   2.548   3.409  11.660
57979SOL     OW75833  11.996   7.126  11.223
57979SOL    HW175834  12.085   7.099  11.245
57979SOL    HW275835  11.995   7.220  11.241
57980SOL     OW75836   9.480   6.806   7.045
57980SOL    HW175837   9.501   6.713   7.057
57980SOL    HW275838   9.505   6.825   6.955
57981SOL     OW75839  13.498   6.464   2.382
57981SOL    HW175840  13.407   6.482   2.360
57981SOL    HW275841  13.543   6.546   2.366
57982SOL     OW75842  14.625   8.954   6.841
57982SOL    HW175843  14.569   9.023   6.806
57982SOL    HW275844  14.682   8.930   6.767
57983SOL     OW75845   1.350   3.667   7.583
57983SOL    HW175846   1.336   3.673   7.489
57983SOL    HW275847   1.363   3.757   7.611
57984SOL     OW75848  12.770   0.173   6.006
57984SOL    HW175849  12.720   0.118   6.067
57984SOL    HW275850  12.862   0.152   6.025
57985SOL     OW75851   9.654   2.904   1.288
57985SOL    HW175852   9.666   2.969   1.357
57985SOL    HW275853   9.633   2.823   1.334
57986SOL     OW75854  10.392  14.563   6.540
57986SOL    HW175855  10.316  14.545   6.485
57986SOL    HW275856  10.465  14.568   6.479
57987SOL     OW75857  12.040   6.621   0.538
57987SOL    HW175858  12.069   6.627   0.447
57987SOL    HW275859  12.016   6.711   0.561
57988SOL     OW75860  10.002   2.907  14.346
57988SOL    HW175861   9.982   2.847  14.274
57988SOL    HW275862   9.980   2.993  14.312
57989SOL     OW75863   3.347   5.406   4.316
57989SOL    HW175864   3.388   5.458   4.247
57989SOL    HW275865   3.270   5.366   4.274
57990SOL     OW75866   0.083   3.614  11.864
57990SOL    HW175867   0.044   3.553  11.802
57990SOL    HW275868   0.008   3.654  11.908
57991SOL     OW75869  10.016   5.495   3.389
57991SOL    HW175870   9.963   5.417   3.404
57991SOL    HW275871  10.102   5.474   3.425
57992SOL     OW75872   1.245   4.855   1.290
57992SOL    HW175873   1.233   4.939   1.245
57992SOL    HW275874   1.156   4.824   1.308
57993SOL     OW75875   0.201   4.247  13.687
57993SOL    HW175876   0.277   4.293  13.652
57993SOL    HW275877   0.214   4.156  13.662
57994SOL     OW75878  12.781   9.007   7.634
57994SOL    HW175879  12.719   9.065   7.678
57994SOL    HW275880  12.845   8.985   7.701
57995SOL     OW75881   0.864   6.279   0.845
57995SOL    HW175882   0.905   6.312   0.926
57995SOL    HW275883   0.785   6.234   0.875
57996SOL     OW75884  13.362   0.130   1.986
57996SOL    HW175885  13.399   0.115   2.073
57996SOL    HW275886  13.439   0.138   1.929
57997SOL     OW75887  13.857  12.051   6.486
57997SOL    HW175888  13.946  12.082   6.471
57997SOL    HW275889  13.806  12.092   6.415
57998SOL     OW75890   3.995  10.472   5.830
57998SOL    HW175891   4.040  10.495   5.749
57998SOL    HW275892   3.903  10.496   5.814
57999SOL     OW75893   9.480   0.467  11.684
57999SOL    HW175894   9.567   0.446  11.719
57999SOL    HW275895   9.422   0.400  11.721
58000SOL     OW75896   8.423  11.464   8.129
58000SOL    HW175897   8.365  11.418   8.069
58000SOL    HW275898   8.511  11.443   8.098
58001SOL     OW75899   7.338   7.225   0.103
58001SOL    HW175900   7.323   7.187   0.016
58001SOL    HW275901   7.313   7.155   0.164
58002SOL     OW75902   5.903   1.353   7.979
58002SOL    HW175903   5.994   1.343   8.007
58002SOL    HW275904   5.892   1.447   7.963
58003SOL     OW75905   7.429   9.692   8.605
58003SOL    HW175906   7.439   9.633   8.530
58003SOL    HW275907   7.468   9.644   8.679
58004SOL     OW75908   4.681  12.473  14.654
58004SOL    HW175909   4.656  12.418  14.580
58004SOL    HW275910   4.697  12.411  14.726
58005SOL     OW75911  14.022  13.939   3.044
58005SOL    HW175912  13.954  13.873   3.030
58005SOL    HW275913  14.016  13.996   2.967
58006SOL     OW75914  12.294   9.788   3.795
58006SOL    HW175915  12.330   9.700   3.807
58006SOL    HW275916  12.296   9.827   3.882
58007SOL     OW75917  10.580   6.788   2.498
58007SOL    HW175918  10.572   6.882   2.506
58007SOL    HW275919  10.524   6.752   2.566
58008SOL     OW75920   1.423   7.807   5.103
58008SOL    HW175921   1.460   7.821   5.016
58008SOL    HW275922   1.473   7.733   5.138
58009SOL     OW75923   6.817   7.833   0.186
58009SOL    HW175924   6.725   7.811   0.169
58009SOL    HW275925   6.866   7.771   0.132
58010SOL     OW75926   6.921   9.619   7.905
58010SOL    HW175927   6.997   9.671   7.933
58010SOL    HW275928   6.912   9.638   7.812
58011SOL     OW75929  13.186   8.616   8.079
58011SOL    HW175930  13.096   8.583   8.078
58011SOL    HW275931  13.187   8.678   8.152
58012SOL     OW75932   6.892   0.130   8.812
58012SOL    HW175933   6.890   0.147   8.718
58012SOL    HW275934   6.838   0.199   8.850
58013SOL     OW75935  14.747   0.030  10.278
58013SOL    HW175936  14.662  14.863  10.274
58013SOL    HW275937  14.756   0.075  10.194
58014SOL     OW75938  11.867   9.960  11.585
58014SOL    HW175939  11.927   9.898  11.543
58014SOL    HW275940  11.808   9.987  11.514
58015SOL     OW75941  11.499   4.765  13.232
58015SOL    HW175942  11.431   4.829  13.254
58015SOL    HW275943  11.542   4.802  13.154
58016SOL     OW75944  10.250  11.250   5.827
58016SOL    HW175945  10.317  11.305   5.866
58016SOL    HW275946  10.227  11.187   5.895
58017SOL     OW75947   0.448   3.839  13.224
58017SOL    HW175948   0.391   3.822  13.150
58017SOL    HW275949   0.403   3.907  13.274
58018SOL     OW75950  13.754  10.090   5.221
58018SOL    HW175951  13.681  10.041   5.183
58018SOL    HW275952  13.718  10.177   5.238
58019SOL     OW75953  13.384   2.786   8.590
58019SOL    HW175954  13.348   2.788   8.501
58019SOL    HW275955  13.445   2.713   8.590
58020SOL     OW75956   3.212  11.118   1.047
58020SOL    HW175957   3.206  11.080   0.959
58020SOL    HW275958   3.290  11.173   1.043
58021SOL     OW75959   3.362   1.826   6.096
58021SOL    HW175960   3.368   1.741   6.053
58021SOL    HW275961   3.452   1.848   6.119
58022SOL     OW75962  13.943  11.377  10.749
58022SOL    HW175963  14.019  11.417  10.706
58022SOL    HW275964  13.899  11.451  10.793
58023SOL     OW75965   4.256   2.493  12.672
58023SOL    HW175966   4.174   2.514  12.716
58023SOL    HW275967   4.295   2.424  12.725
58024SOL     OW75968   8.711  11.961   7.250
58024SOL    HW175969   8.767  12.037   7.233
58024SOL    HW275970   8.721  11.907   7.172
58025SOL     OW75971   1.752   6.803   1.073
58025SOL    HW175972   1.749   6.776   1.165
58025SOL    HW275973   1.806   6.736   1.030
58026SOL     OW75974   8.827   7.379   5.101
58026SOL    HW175975   8.778   7.369   5.183
58026SOL    HW275976   8.908   7.422   5.128
58027SOL     OW75977   0.495  12.308   7.680
58027SOL    HW175978   0.476  12.356   7.760
58027SOL    HW275979   0.501  12.217   7.707
58028SOL     OW75980  13.036   4.813   6.209
58028SOL    HW175981  13.060   4.741   6.152
58028SOL    HW275982  12.952   4.788   6.247
58029SOL     OW75983   8.561   4.563   4.606
58029SOL    HW175984   8.518   4.589   4.524
58029SOL    HW275985   8.495   4.578   4.673
58030SOL     OW75986   5.053  11.960  12.682
58030SOL    HW175987   5.092  11.989  12.765
58030SOL    HW275988   4.998  11.885  12.706
58031SOL     OW75989   0.622   2.430   4.721
58031SOL    HW175990   0.715   2.409   4.731
58031SOL    HW275991   0.580   2.382   4.792
58032SOL     OW75992   3.533  13.500  14.313
58032SOL    HW175993   3.452  13.549  14.320
58032SOL    HW275994   3.566  13.520  14.225
58033SOL     OW75995   1.469  14.202  13.576
58033SOL    HW175996   1.502  14.149  13.503
58033SOL    HW275997   1.547  14.221  13.629
58034SOL     OW75998   8.787   5.479   0.432
58034SOL    HW175999   8.732   5.403   0.451
58034SOL    HW276000   8.789   5.484   0.337
58035SOL     OW76001   4.845   8.257   0.078
58035SOL    HW176002   4.906   8.193   0.041
58035SOL    HW276003   4.772   8.203   0.110
58036SOL     OW76004   6.298  10.670   5.201
58036SOL    HW176005   6.291  10.613   5.124
58036SOL    HW276006   6.283  10.758   5.168
58037SOL     OW76007   0.885  11.705  12.242
58037SOL    HW176008   0.834  11.724  12.320
58037SOL    HW276009   0.972  11.682  12.275
58038SOL     OW76010   0.156  12.950  13.054
58038SOL    HW176011   0.140  12.976  12.963
58038SOL    HW276012   0.161  12.854  13.051
58039SOL     OW76013   5.429  10.054   7.509
58039SOL    HW176014   5.472  10.119   7.453
58039SOL    HW276015   5.336  10.072   7.501
58040SOL     OW76016   0.872   2.863   3.940
58040SOL    HW176017   0.939   2.902   3.997
58040SOL    HW276018   0.917   2.792   3.895
58041SOL     OW76019  11.338   9.627  10.376
58041SOL    HW176020  11.353   9.719  10.401
58041SOL    HW276021  11.426   9.589  10.372
58042SOL     OW76022   3.957   7.956  11.550
58042SOL    HW176023   3.921   7.900  11.481
58042SOL    HW276024   3.895   7.947  11.622
58043SOL     OW76025  14.721   3.014  11.174
58043SOL    HW176026  14.744   2.936  11.124
58043SOL    HW276027  14.682   3.073  11.109
58044SOL     OW76028  10.230   7.184  14.432
58044SOL    HW176029  10.181   7.241  14.492
58044SOL    HW276030  10.295   7.140  14.487
58045SOL     OW76031  14.802   2.201   1.673
58045SOL    HW176032  14.825   2.205   1.580
58045SOL    HW276033  14.813   2.290   1.705
58046SOL     OW76034  14.066   6.992   6.935
58046SOL    HW176035  14.080   7.059   7.001
58046SOL    HW276036  14.122   7.018   6.862
58047SOL     OW76037   0.927   8.283  11.484
58047SOL    HW176038   0.835   8.260  11.470
58047SOL    HW276039   0.969   8.200  11.507
58048SOL     OW76040   3.223   9.187   1.827
58048SOL    HW176041   3.255   9.121   1.766
58048SOL    HW276042   3.203   9.138   1.907
58049SOL     OW76043   6.813   1.590  13.503
58049SOL    HW176044   6.833   1.499  13.480
58049SOL    HW276045   6.718   1.596  13.495
58050SOL     OW76046   3.197  11.919   4.589
58050SOL    HW176047   3.194  11.886   4.499
58050SOL    HW276048   3.111  11.959   4.603
58051SOL     OW76049  10.038   5.206   8.149
58051SOL    HW176050  10.061   5.174   8.062
58051SOL    HW276051   9.954   5.251   8.136
58052SOL     OW76052   1.517  14.658   1.834
58052SOL    HW176053   1.503  14.750   1.857
58052SOL    HW276054   1.433  14.630   1.796
58053SOL     OW76055   3.396   1.071   8.586
58053SOL    HW176056   3.395   1.166   8.574
58053SOL    HW276057   3.308   1.043   8.559
58054SOL     OW76058  12.450   5.791   3.645
58054SOL    HW176059  12.513   5.744   3.700
58054SOL    HW276060  12.436   5.733   3.569
58055SOL     OW76061   7.707   9.789   9.195
58055SOL    HW176062   7.728   9.749   9.280
58055SOL    HW276063   7.612   9.787   9.190
58056SOL     OW76064   0.815   3.400   3.252
58056SOL    HW176065   0.894   3.347   3.261
58056SOL    HW276066   0.818   3.461   3.325
58057SOL     OW76067   2.997   1.435  10.507
58057SOL    HW176068   2.905   1.427  10.483
58057SOL    HW276069   2.998   1.492  10.583
58058SOL     OW76070   2.211   8.635   0.379
58058SOL    HW176071   2.120   8.659   0.364
58058SOL    HW276072   2.209   8.539   0.385
58059SOL     OW76073   6.493  11.698   4.350
58059SOL    HW176074   6.418  11.755   4.335
58059SOL    HW276075   6.550  11.748   4.408
58060SOL     OW76076  10.132   5.646  12.172
58060SOL    HW176077  10.212   5.684  12.135
58060SOL    HW276078  10.157   5.556  12.196
58061SOL     OW76079   0.521   3.218  13.394
58061SOL    HW176080   0.473   3.289  13.437
58061SOL    HW276081   0.456   3.176  13.337
58062SOL     OW76082  10.605  13.602  10.483
58062SOL    HW176083  10.576  13.668  10.547
58062SOL    HW276084  10.693  13.631  10.457
58063SOL     OW76085  14.064   6.117   5.777
58063SOL    HW176086  13.978   6.153   5.755
58063SOL    HW276087  14.046   6.054   5.847
58064SOL     OW76088   9.410   6.225   9.874
58064SOL    HW176089   9.378   6.229   9.964
58064SOL    HW276090   9.337   6.258   9.821
58065SOL     OW76091   3.409  12.159  13.855
58065SOL    HW176092   3.389  12.250  13.838
58065SOL    HW276093   3.448  12.159  13.943
58066SOL     OW76094  13.064   7.581   6.769
58066SOL    HW176095  13.112   7.503   6.796
58066SOL    HW276096  13.127   7.631   6.716
58067SOL     OW76097   0.852   5.457  13.784
58067SOL    HW176098   0.829   5.499  13.701
58067SOL    HW276099   0.874   5.530  13.842
58068SOL     OW76100  13.927  12.721  13.034
58068SOL    HW176101  13.904  12.717  12.941
58068SOL    HW276102  13.879  12.648  13.073
58069SOL     OW76103   8.026   1.035  11.288
58069SOL    HW176104   8.048   1.059  11.378
58069SOL    HW276105   8.097   1.071  11.236
58070SOL     OW76106   8.274   0.893   0.654
58070SOL    HW176107   8.317   0.820   0.610
58070SOL    HW276108   8.188   0.860   0.678
58071SOL     OW76109  14.691   9.438  10.880
58071SOL    HW176110  14.713   9.373  10.813
58071SOL    HW276111  14.639   9.390  10.944
58072SOL     OW76112  11.877  12.942  14.756
58072SOL    HW176113  11.962  12.979  14.782
58072SOL    HW276114  11.880  12.941  14.660
58073SOL     OW76115  12.994   9.072   6.610
58073SOL    HW176116  13.071   9.085   6.553
58073SOL    HW276117  13.011   9.128   6.685
58074SOL     OW76118   9.819   4.904   5.903
58074SOL    HW176119   9.748   4.879   5.844
58074SOL    HW276120   9.891   4.844   5.882
58075SOL     OW76121   1.317  13.785  13.530
58075SOL    HW176122   1.242  13.727  13.543
58075SOL    HW276123   1.333  13.823  13.617
58076SOL     OW76124   1.573   8.066   2.553
58076SOL    HW176125   1.518   8.116   2.614
58076SOL    HW276126   1.576   8.119   2.474
58077SOL     OW76127   8.893   6.823   9.558
58077SOL    HW176128   8.823   6.760   9.572
58077SOL    HW276129   8.973   6.778   9.585
58078SOL     OW76130  10.425   5.751  14.734
58078SOL    HW176131  10.464   5.691  14.671
58078SOL    HW276132  10.479   5.830  14.728
58079SOL     OW76133   1.371   2.288  13.782
58079SOL    HW176134   1.329   2.309  13.865
58079SOL    HW276135   1.317   2.219  13.744
58080SOL     OW76136   7.014  11.114   9.559
58080SOL    HW176137   7.077  11.143   9.493
58080SOL    HW276138   7.045  11.027   9.584
58081SOL     OW76139   4.140  11.460  11.328
58081SOL    HW176140   4.147  11.540  11.380
58081SOL    HW276141   4.114  11.491  11.241
58082SOL     OW76142  12.651   2.128   6.353
58082SOL    HW176143  12.681   2.160   6.438
58082SOL    HW276144  12.732   2.104   6.307
58083SOL     OW76145   5.564   4.308   0.770
58083SOL    HW176146   5.563   4.273   0.859
58083SOL    HW276147   5.631   4.256   0.725
58084SOL     OW76148   5.298  10.490   8.308
58084SOL    HW176149   5.261  10.442   8.382
58084SOL    HW276150   5.256  10.576   8.312
58085SOL     OW76151   1.661   6.729   5.421
58085SOL    HW176152   1.734   6.789   5.406
58085SOL    HW276153   1.697   6.662   5.479
58086SOL     OW76154   6.403   8.878  14.063
58086SOL    HW176155   6.400   8.793  14.107
58086SOL    HW276156   6.455   8.862  13.985
58087SOL     OW76157   3.622   1.134   8.284
58087SOL    HW176158   3.716   1.151   8.282
58087SOL    HW276159   3.606   1.095   8.370
58088SOL     OW76160  12.540  13.047   1.762
58088SOL    HW176161  12.472  13.097   1.718
58088SOL    HW276162  12.565  12.979   1.699
58089SOL     OW76163  13.154   5.819  12.950
58089SOL    HW176164  13.148   5.738  12.899
58089SOL    HW276165  13.191   5.882  12.889
58090SOL     OW76166   5.548   2.557   3.884
58090SOL    HW176167   5.602   2.565   3.963
58090SOL    HW276168   5.593   2.492   3.830
58091SOL     OW76169   1.256  11.090   8.495
58091SOL    HW176170   1.280  10.998   8.509
58091SOL    HW276171   1.216  11.117   8.577
58092SOL     OW76172   9.737  13.811   5.266
58092SOL    HW176173   9.771  13.740   5.321
58092SOL    HW276174   9.721  13.769   5.181
58093SOL     OW76175   1.429   4.737  10.037
58093SOL    HW176176   1.471   4.790   9.969
58093SOL    HW276177   1.391   4.800  10.098
58094SOL     OW76178   1.555   7.255   9.295
58094SOL    HW176179   1.485   7.260   9.230
58094SOL    HW276180   1.576   7.162   9.301
58095SOL     OW76181   7.429  10.668  12.124
58095SOL    HW176182   7.493  10.611  12.168
58095SOL    HW276183   7.410  10.736  12.188
58096SOL     OW76184   0.209  12.340   4.263
58096SOL    HW176185   0.270  12.412   4.274
58096SOL    HW276186   0.261  12.269   4.227
58097SOL     OW76187   1.541   2.478  13.384
58097SOL    HW176188   1.632   2.499  13.362
58097SOL    HW276189   1.547   2.420  13.459
58098SOL     OW76190   8.342   6.728  11.184
58098SOL    HW176191   8.423   6.687  11.155
58098SOL    HW276192   8.309   6.670  11.253
58099SOL     OW76193   4.652   0.097   4.173
58099SOL    HW176194   4.711   0.042   4.121
58099SOL    HW276195   4.706   0.172   4.198
58100SOL     OW76196   5.541   5.549   2.699
58100SOL    HW176197   5.493   5.630   2.680
58100SOL    HW276198   5.509   5.522   2.785
58101SOL     OW76199   5.410  12.773  10.463
58101SOL    HW176200   5.358  12.695  10.443
58101SOL    HW276201   5.437  12.761  10.554
58102SOL     OW76202   7.172   8.996   3.247
58102SOL    HW176203   7.220   8.913   3.247
58102SOL    HW276204   7.116   8.991   3.325
58103SOL     OW76205   0.197   6.886   5.215
58103SOL    HW176206   0.203   6.959   5.153
58103SOL    HW276207   0.237   6.812   5.169
58104SOL     OW76208   6.757   9.456   8.855
58104SOL    HW176209   6.692   9.498   8.800
58104SOL    HW276210   6.841   9.479   8.816
58105SOL     OW76211   1.821   3.819   9.710
58105SOL    HW176212   1.792   3.765   9.637
58105SOL    HW276213   1.751   3.811   9.775
58106SOL     OW76214   2.233   8.170  12.357
58106SOL    HW176215   2.306   8.232  12.354
58106SOL    HW276216   2.231   8.140  12.448
58107SOL     OW76217  11.241   9.663  11.523
58107SOL    HW176218  11.211   9.575  11.500
58107SOL    HW276219  11.174   9.697  11.582
58108SOL     OW76220  14.827   4.795   9.650
58108SOL    HW176221  14.848   4.871   9.595
58108SOL    HW276222   0.036   4.769   9.688
58109SOL     OW76223   2.443  12.009   3.152
58109SOL    HW176224   2.508  12.070   3.187
58109SOL    HW276225   2.486  11.967   3.078
58110SOL     OW76226  12.182   9.552  10.690
58110SOL    HW176227  12.187   9.563  10.595
58110SOL    HW276228  12.151   9.637  10.722
58111SOL     OW76229   4.048  10.356   6.190
58111SOL    HW176230   4.103  10.375   6.114
58111SOL    HW276231   4.110  10.342   6.262
58112SOL     OW76232   2.556   9.737  11.820
58112SOL    HW176233   2.473   9.702  11.788
58112SOL    HW276234   2.606   9.660  11.849
58113SOL     OW76235   9.473   3.381   7.309
58113SOL    HW176236   9.439   3.469   7.325
58113SOL    HW276237   9.519   3.359   7.391
58114SOL     OW76238  13.607  12.559  11.695
58114SOL    HW176239  13.671  12.529  11.760
58114SOL    HW276240  13.539  12.602  11.746
58115SOL     OW76241   7.385   7.981  11.395
58115SOL    HW176242   7.366   8.069  11.427
58115SOL    HW276243   7.448   7.946  11.458
58116SOL     OW76244   7.321   6.570   5.183
58116SOL    HW176245   7.254   6.503   5.166
58116SOL    HW276246   7.278   6.631   5.244
58117SOL     OW76247   4.146  12.975   1.135
58117SOL    HW176248   4.182  13.059   1.106
58117SOL    HW276249   4.177  12.912   1.070
58118SOL     OW76250  12.416  11.338  10.602
58118SOL    HW176251  12.471  11.269  10.565
58118SOL    HW276252  12.451  11.419  10.565
58119SOL     OW76253  11.626  11.901   1.449
58119SOL    HW176254  11.535  11.874   1.455
58119SOL    HW276255  11.629  11.986   1.492
58120SOL     OW76256  10.350   8.209   2.574
58120SOL    HW176257  10.399   8.229   2.653
58120SOL    HW276258  10.284   8.146   2.602
58121SOL     OW76259   8.123   9.945   2.147
58121SOL    HW176260   8.194   9.901   2.100
58121SOL    HW276261   8.092   9.880   2.210
58122SOL     OW76262   4.778  11.521  13.752
58122SOL    HW176263   4.732  11.603  13.735
58122SOL    HW276264   4.855  11.546  13.804
58123SOL     OW76265  10.694   7.294  14.138
58123SOL    HW176266  10.689   7.313  14.231
58123SOL    HW276267  10.622   7.234  14.122
58124SOL     OW76268   5.163   5.758   4.590
58124SOL    HW176269   5.234   5.744   4.653
58124SOL    HW276270   5.198   5.824   4.529
58125SOL     OW76271  12.407   8.278  12.162
58125SOL    HW176272  12.430   8.226  12.239
58125SOL    HW276273  12.319   8.311  12.181
58126SOL     OW76274   0.547   4.065   3.463
58126SOL    HW176275   0.631   4.082   3.421
58126SOL    HW276276   0.544   3.970   3.472
58127SOL     OW76277   3.472   5.126   2.139
58127SOL    HW176278   3.409   5.056   2.119
58127SOL    HW276279   3.439   5.202   2.091
58128SOL     OW76280   6.322  11.966   7.719
58128SOL    HW176281   6.312  12.055   7.751
58128SOL    HW276282   6.268  11.964   7.639
58129SOL     OW76283  10.862  12.558   8.128
58129SOL    HW176284  10.822  12.601   8.204
58129SOL    HW276285  10.797  12.491   8.102
58130SOL     OW76286  13.162   9.339   5.270
58130SOL    HW176287  13.137   9.398   5.342
58130SOL    HW276288  13.113   9.372   5.195
58131SOL     OW76289   2.504   1.797  12.512
58131SOL    HW176290   2.515   1.810  12.418
58131SOL    HW276291   2.446   1.868  12.539
58132SOL     OW76292  10.174   5.481   7.737
58132SOL    HW176293  10.121   5.555   7.767
58132SOL    HW276294  10.236   5.466   7.808
58133SOL     OW76295   0.674   2.666   7.003
58133SOL    HW176296   0.633   2.713   7.076
58133SOL    HW276297   0.760   2.641   7.036
58134SOL     OW76298  10.017   9.199   6.982
58134SOL    HW176299   9.923   9.197   6.997
58134SOL    HW276300  10.033   9.279   6.932
58135SOL     OW76301  12.164   2.118   3.948
58135SOL    HW176302  12.126   2.123   4.036
58135SOL    HW276303  12.188   2.026   3.938
58136SOL     OW76304   9.036   4.064   9.897
58136SOL    HW176305   8.972   4.127   9.930
58136SOL    HW276306   9.005   3.980   9.930
58137SOL     OW76307  14.510  13.729   9.728
58137SOL    HW176308  14.422  13.725   9.764
58137SOL    HW276309  14.556  13.794   9.781
58138SOL     OW76310   5.884   2.755   0.245
58138SOL    HW176311   5.893   2.748   0.340
58138SOL    HW276312   5.789   2.750   0.230
58139SOL     OW76313   4.277   8.506   1.170
58139SOL    HW176314   4.243   8.586   1.211
58139SOL    HW276315   4.340   8.472   1.234
58140SOL     OW76316  12.035  13.761   3.919
58140SOL    HW176317  12.023  13.843   3.967
58140SOL    HW276318  11.947  13.730   3.900
58141SOL     OW76319   7.904   8.878  13.392
58141SOL    HW176320   7.968   8.809  13.410
58141SOL    HW276321   7.872   8.860  13.304
58142SOL     OW76322   0.019   6.172  14.507
58142SOL    HW176323  14.853   6.104  14.454
58142SOL    HW276324  14.821   6.216  14.550
58143SOL     OW76325   2.179  12.897   0.411
58143SOL    HW176326   2.108  12.954   0.437
58143SOL    HW276327   2.136  12.819   0.376
58144SOL     OW76328   1.489   1.816   1.701
58144SOL    HW176329   1.511   1.734   1.744
58144SOL    HW276330   1.393   1.817   1.698
58145SOL     OW76331   7.932   7.571   0.771
58145SOL    HW176332   7.943   7.495   0.828
58145SOL    HW276333   7.848   7.608   0.796
58146SOL     OW76334  11.379   3.926   0.195
58146SOL    HW176335  11.301   3.960   0.239
58146SOL    HW276336  11.434   3.892   0.266
58147SOL     OW76337   6.960   1.834   2.357
58147SOL    HW176338   6.918   1.778   2.422
58147SOL    HW276339   6.967   1.780   2.279
58148SOL     OW76340   5.658   6.985   1.188
58148SOL    HW176341   5.593   6.976   1.258
58148SOL    HW276342   5.740   7.000   1.234
58149SOL     OW76343  12.284   0.899   8.438
58149SOL    HW176344  12.369   0.933   8.412
58149SOL    HW276345  12.304   0.825   8.495
58150SOL     OW76346   8.957   8.183   6.118
58150SOL    HW176347   8.883   8.203   6.061
58150SOL    HW276348   8.939   8.230   6.199
58151SOL     OW76349  10.445   0.788  10.587
58151SOL    HW176350  10.412   0.729  10.519
58151SOL    HW276351  10.399   0.761  10.667
58152SOL     OW76352   6.488   3.605  11.620
58152SOL    HW176353   6.481   3.701  11.615
58152SOL    HW276354   6.425   3.573  11.556
58153SOL     OW76355  12.973   4.183   6.009
58153SOL    HW176356  13.017   4.164   5.925
58153SOL    HW276357  12.882   4.200   5.985
58154SOL     OW76358   3.367   6.625   7.453
58154SOL    HW176359   3.288   6.648   7.501
58154SOL    HW276360   3.407   6.710   7.431
58155SOL     OW76361   5.371   4.663  11.852
58155SOL    HW176362   5.413   4.649  11.767
58155SOL    HW276363   5.414   4.601  11.911
58156SOL     OW76364   5.342   2.855   0.909
58156SOL    HW176365   5.323   2.771   0.867
58156SOL    HW276366   5.372   2.911   0.837
58157SOL     OW76367   4.923   5.860   3.376
58157SOL    HW176368   4.831   5.863   3.404
58157SOL    HW276369   4.971   5.834   3.455
58158SOL     OW76370   3.343   1.158   8.101
58158SOL    HW176371   3.281   1.224   8.134
58158SOL    HW276372   3.347   1.093   8.170
58159SOL     OW76373   5.230  13.115   6.593
58159SOL    HW176374   5.207  13.193   6.643
58159SOL    HW276375   5.325  13.120   6.583
58160SOL     OW76376  12.949   9.993   2.384
58160SOL    HW176377  13.043   9.994   2.368
58160SOL    HW276378  12.941   9.982   2.479
58161SOL     OW76379   2.614   7.907   5.269
58161SOL    HW176380   2.703   7.875   5.257
58161SOL    HW276381   2.584   7.866   5.350
58162SOL     OW76382  13.440   5.274   0.528
58162SOL    HW176383  13.456   5.186   0.495
58162SOL    HW276384  13.346   5.288   0.518
58163SOL     OW76385   9.131  10.439  10.327
58163SOL    HW176386   9.048  10.403  10.295
58163SOL    HW276387   9.198  10.392  10.279
58164SOL     OW76388   2.540   4.962  10.916
58164SOL    HW176389   2.535   4.988  10.824
58164SOL    HW276390   2.523   5.043  10.965
58165SOL     OW76391  11.416   8.164  14.492
58165SOL    HW176392  11.376   8.083  14.523
58165SOL    HW276393  11.373   8.183  14.409
58166SOL     OW76394   0.933  10.780  14.706
58166SOL    HW176395   0.927  10.777  14.610
58166SOL    HW276396   0.947  10.873  14.725
58167SOL     OW76397   9.276  11.460   8.579
58167SOL    HW176398   9.198  11.454   8.524
58167SOL    HW276399   9.338  11.512   8.528
58168SOL     OW76400   8.827   3.797  12.363
58168SOL    HW176401   8.909   3.837  12.334
58168SOL    HW276402   8.847   3.704  12.371
58169SOL     OW76403   2.251   7.336   6.348
58169SOL    HW176404   2.255   7.241   6.364
58169SOL    HW276405   2.340   7.358   6.319
58170SOL     OW76406   5.386   2.741   5.153
58170SOL    HW176407   5.345   2.825   5.132
58170SOL    HW276408   5.463   2.737   5.096
58171SOL     OW76409   7.780   1.669  13.308
58171SOL    HW176410   7.745   1.606  13.246
58171SOL    HW276411   7.837   1.618  13.365
58172SOL     OW76412   4.802   0.389   1.702
58172SOL    HW176413   4.797   0.467   1.757
58172SOL    HW276414   4.893   0.360   1.710
58173SOL     OW76415  10.633  10.306  12.956
58173SOL    HW176416  10.548  10.311  12.998
58173SOL    HW276417  10.647  10.213  12.941
58174SOL     OW76418  13.648   5.670   7.923
58174SOL    HW176419  13.742   5.674   7.904
58174SOL    HW276420  13.629   5.577   7.931
58175SOL     OW76421  10.861   3.070   9.889
58175SOL    HW176422  10.788   3.094   9.945
58175SOL    HW276423  10.864   3.138   9.822
58176SOL     OW76424   3.198   9.369  10.771
58176SOL    HW176425   3.223   9.338  10.858
58176SOL    HW276426   3.210   9.294  10.714
58177SOL     OW76427   2.733   3.725  12.679
58177SOL    HW176428   2.677   3.658  12.642
58177SOL    HW276429   2.677   3.771  12.741
58178SOL     OW76430  10.847   8.753   8.998
58178SOL    HW176431  10.863   8.840   8.963
58178SOL    HW276432  10.887   8.694   8.934
58179SOL     OW76433   8.346  10.501   8.753
58179SOL    HW176434   8.264  10.530   8.712
58179SOL    HW276435   8.337  10.528   8.845
58180SOL     OW76436  13.733   6.821   9.738
58180SOL    HW176437  13.711   6.913   9.752
58180SOL    HW276438  13.693   6.775   9.812
58181SOL     OW76439   7.130   5.843  14.696
58181SOL    HW176440   7.098   5.767  14.744
58181SOL    HW276441   7.219   5.819  14.670
58182SOL     OW76442   3.083   8.179   7.529
58182SOL    HW176443   3.159   8.161   7.584
58182SOL    HW276444   3.121   8.200   7.443
58183SOL     OW76445  12.387  12.554   2.291
58183SOL    HW176446  12.459  12.506   2.249
58183SOL    HW276447  12.416  12.646   2.290
58184SOL     OW76448   6.153   4.801   5.069
58184SOL    HW176449   6.098   4.750   5.129
58184SOL    HW276450   6.217   4.738   5.035
58185SOL     OW76451   1.656   3.579   1.652
58185SOL    HW176452   1.586   3.627   1.697
58185SOL    HW276453   1.629   3.487   1.656
58186SOL     OW76454   2.877   8.695  13.429
58186SOL    HW176455   2.961   8.678  13.387
58186SOL    HW276456   2.812   8.661  13.368
58187SOL     OW76457  14.460  14.624   0.880
58187SOL    HW176458  14.391  14.680   0.845
58187SOL    HW276459  14.538  14.649   0.831
58188SOL     OW76460   7.425   1.247  14.773
58188SOL    HW176461   7.380   1.276  14.852
58188SOL    HW276462   7.501   1.198  14.805
58189SOL     OW76463   6.258   0.801  13.570
58189SOL    HW176464   6.185   0.845  13.526
58189SOL    HW276465   6.220   0.719  13.601
58190SOL     OW76466  11.150   3.837  12.893
58190SOL    HW176467  11.187   3.757  12.857
58190SOL    HW276468  11.227   3.891  12.914
58191SOL     OW76469   3.461   6.639  12.914
58191SOL    HW176470   3.550   6.616  12.886
58191SOL    HW276471   3.454   6.607  13.004
58192SOL     OW76472   8.700   7.913  12.372
58192SOL    HW176473   8.791   7.883  12.370
58192SOL    HW276474   8.706   8.008  12.378
58193SOL     OW76475   7.256   7.271   0.727
58193SOL    HW176476   7.176   7.278   0.676
58193SOL    HW276477   7.226   7.271   0.818
58194SOL     OW76478  13.252   1.756  11.679
58194SOL    HW176479  13.237   1.848  11.699
58194SOL    HW276480  13.343   1.741  11.706
58195SOL     OW76481   1.034   3.652   2.763
58195SOL    HW176482   1.040   3.562   2.730
58195SOL    HW276483   0.961   3.690   2.714
58196SOL     OW76484   2.055   5.348   4.814
58196SOL    HW176485   2.090   5.326   4.727
58196SOL    HW276486   2.038   5.442   4.810
58197SOL     OW76487   0.337  13.031   7.868
58197SOL    HW176488   0.417  13.034   7.920
58197SOL    HW276489   0.339  12.945   7.826
58198SOL     OW76490   2.906   8.631   6.960
58198SOL    HW176491   2.891   8.724   6.974
58198SOL    HW276492   2.949   8.601   7.040
58199SOL     OW76493  10.889   4.531   9.872
58199SOL    HW176494  10.818   4.484   9.829
58199SOL    HW276495  10.920   4.594   9.806
58200SOL     OW76496   2.872  10.638   0.932
58200SOL    HW176497   2.896  10.546   0.931
58200SOL    HW276498   2.833  10.654   0.846
58201SOL     OW76499  11.911   2.948   5.793
58201SOL    HW176500  11.884   2.987   5.710
58201SOL    HW276501  11.833   2.905   5.826
58202SOL     OW76502   4.925   1.499   7.456
58202SOL    HW176503   4.914   1.524   7.547
58202SOL    HW276504   4.837   1.500   7.419
58203SOL     OW76505   6.800   7.780   6.100
58203SOL    HW176506   6.711   7.749   6.114
58203SOL    HW276507   6.848   7.703   6.070
58204SOL     OW76508  10.799   8.503  12.476
58204SOL    HW176509  10.854   8.548  12.412
58204SOL    HW276510  10.839   8.416  12.484
58205SOL     OW76511  10.205   2.430  12.754
58205SOL    HW176512  10.262   2.357  12.777
58205SOL    HW276513  10.251   2.476  12.684
58206SOL     OW76514   7.751  11.813  14.611
58206SOL    HW176515   7.803  11.886  14.577
58206SOL    HW276516   7.756  11.822  14.706
58207SOL     OW76517   3.034   8.906  14.339
58207SOL    HW176518   3.111   8.899  14.396
58207SOL    HW276519   2.975   8.838  14.370
58208SOL     OW76520   2.328   6.144   9.171
58208SOL    HW176521   2.364   6.171   9.255
58208SOL    HW276522   2.404   6.117   9.120
58209SOL     OW76523  13.701   3.176   3.834
58209SOL    HW176524  13.686   3.198   3.926
58209SOL    HW276525  13.708   3.261   3.790
58210SOL     OW76526  10.551  12.515   9.772
58210SOL    HW176527  10.496  12.588   9.741
58210SOL    HW276528  10.613  12.500   9.701
58211SOL     OW76529   5.781   4.401   4.514
58211SOL    HW176530   5.686   4.398   4.527
58211SOL    HW276531   5.793   4.375   4.423
58212SOL     OW76532  12.594   0.131  11.438
58212SOL    HW176533  12.619   0.159  11.525
58212SOL    HW276534  12.657   0.062  11.416
58213SOL     OW76535   6.144   1.186   1.862
58213SOL    HW176536   6.096   1.173   1.780
58213SOL    HW276537   6.100   1.260   1.904
58214SOL     OW76538   3.462  10.369   3.739
58214SOL    HW176539   3.507  10.348   3.820
58214SOL    HW276540   3.378  10.406   3.767
58215SOL     OW76541   8.941  14.725   2.918
58215SOL    HW176542   8.963  14.813   2.888
58215SOL    HW276543   8.929  14.734   3.013
58216SOL     OW76544   1.662   7.376   2.645
58216SOL    HW176545   1.668   7.471   2.633
58216SOL    HW276546   1.582   7.364   2.696
58217SOL     OW76547   6.885   5.514   4.322
58217SOL    HW176548   6.913   5.423   4.319
58217SOL    HW276549   6.883   5.543   4.231
58218SOL     OW76550  10.304   3.831   1.710
58218SOL    HW176551  10.333   3.895   1.644
58218SOL    HW276552  10.250   3.769   1.661
58219SOL     OW76553  13.255  14.864   2.394
58219SOL    HW176554  13.256  14.834   2.485
58219SOL    HW276555  13.201  14.800   2.348
58220SOL     OW76556   6.763   5.905   1.626
58220SOL    HW176557   6.844   5.926   1.673
58220SOL    HW276558   6.786   5.914   1.534
58221SOL     OW76559   0.724   1.041  12.168
58221SOL    HW176560   0.781   1.100  12.215
58221SOL    HW276561   0.642   1.090  12.158
58222SOL     OW76562   6.343   0.028   0.889
58222SOL    HW176563   6.412  14.838   0.887
58222SOL    HW276564   6.262  14.852   0.889
58223SOL     OW76565   6.715   9.930   2.039
58223SOL    HW176566   6.670   9.860   2.087
58223SOL    HW276567   6.788   9.886   1.995
58224SOL     OW76568   3.295   6.858  12.903
58224SOL    HW176569   3.364   6.793  12.891
58224SOL    HW276570   3.270   6.851  12.995
58225SOL     OW76571   7.927  13.680   7.718
58225SOL    HW176572   7.869  13.628   7.661
58225SOL    HW276573   8.007  13.629   7.724
58226SOL     OW76574  14.245   8.019   9.935
58226SOL    HW176575  14.242   7.925   9.922
58226SOL    HW276576  14.281   8.054   9.853
58227SOL     OW76577   9.566   6.935  11.236
58227SOL    HW176578   9.613   6.969  11.311
58227SOL    HW276579   9.630   6.879  11.191
58228SOL     OW76580  13.916   5.511   8.289
58228SOL    HW176581  13.884   5.452   8.358
58228SOL    HW276582  13.889   5.468   8.208
58229SOL     OW76583   2.678  14.304  14.184
58229SOL    HW176584   2.673  14.245  14.259
58229SOL    HW276585   2.758  14.354  14.198
58230SOL     OW76586   0.632   7.007   3.994
58230SOL    HW176587   0.586   6.923   3.997
58230SOL    HW276588   0.684   7.003   3.914
58231SOL     OW76589   6.042   1.187   4.379
58231SOL    HW176590   5.952   1.160   4.361
58231SOL    HW276591   6.040   1.282   4.375
58232SOL     OW76592   8.946  14.778   0.076
58232SOL    HW176593   8.860  14.758   0.113
58232SOL    HW276594   8.995  14.814   0.150
58233SOL     OW76595   5.886   5.291   1.277
58233SOL    HW176596   5.859   5.353   1.209
58233SOL    HW276597   5.981   5.295   1.277
58234SOL     OW76598   1.559   1.404   5.830
58234SOL    HW176599   1.583   1.329   5.775
58234SOL    HW276600   1.505   1.366   5.900
58235SOL     OW76601  11.266   4.683  10.855
58235SOL    HW176602  11.332   4.727  10.909
58235SOL    HW276603  11.283   4.714  10.766
58236SOL     OW76604   7.669   3.530   1.989
58236SOL    HW176605   7.685   3.583   1.911
58236SOL    HW276606   7.743   3.469   1.992
58237SOL     OW76607  13.406   0.392   9.351
58237SOL    HW176608  13.318   0.415   9.383
58237SOL    HW276609  13.456   0.473   9.358
58238SOL     OW76610   0.994   1.558  11.242
58238SOL    HW176611   1.049   1.480  11.248
58238SOL    HW276612   1.054   1.632  11.256
58239SOL     OW76613   4.365  11.364   0.025
58239SOL    HW176614   4.319  11.318   0.095
58239SOL    HW276615   4.428  11.420   0.070
58240SOL     OW76616  12.004   0.249  12.205
58240SOL    HW176617  11.976   0.341  12.205
58240SOL    HW276618  12.096   0.252  12.181
58241SOL     OW76619   6.494   4.358   0.008
58241SOL    HW176620   6.407   4.396   0.022
58241SOL    HW276621   6.552   4.434   0.003
58242SOL     OW76622   1.043   0.225  12.058
58242SOL    HW176623   1.127   0.216  12.104
58242SOL    HW276624   1.024   0.319  12.060
58243SOL     OW76625   5.263   2.614   6.184
58243SOL    HW176626   5.189   2.640   6.238
58243SOL    HW276627   5.253   2.664   6.103
58244SOL     OW76628   6.917   5.236   8.586
58244SOL    HW176629   6.896   5.276   8.502
58244SOL    HW276630   6.976   5.298   8.629
58245SOL     OW76631  11.743  11.574   0.872
58245SOL    HW176632  11.832  11.597   0.898
58245SOL    HW276633  11.690  11.593   0.950
58246SOL     OW76634  11.361   3.241  11.675
58246SOL    HW176635  11.391   3.151  11.688
58246SOL    HW276636  11.429   3.282  11.621
58247SOL     OW76637  11.597   4.180  14.425
58247SOL    HW176638  11.508   4.198  14.455
58247SOL    HW276639  11.594   4.089  14.396
58248SOL     OW76640   7.403  12.840   5.979
58248SOL    HW176641   7.373  12.880   5.898
58248SOL    HW276642   7.325  12.801   6.018
58249SOL     OW76643   3.188  11.695   5.238
58249SOL    HW176644   3.275  11.662   5.217
58249SOL    HW276645   3.187  11.785   5.205
58250SOL     OW76646   1.574   0.787  14.097
58250SOL    HW176647   1.667   0.810  14.092
58250SOL    HW276648   1.537   0.852  14.157
58251SOL     OW76649  13.103  11.719   1.859
58251SOL    HW176650  13.055  11.646   1.821
58251SOL    HW276651  13.178  11.731   1.800
58252SOL     OW76652   8.826  11.904  12.643
58252SOL    HW176653   8.873  11.987  12.645
58252SOL    HW276654   8.843  11.864  12.728
58253SOL     OW76655   1.793   9.238   0.332
58253SOL    HW176656   1.719   9.238   0.273
58253SOL    HW276657   1.765   9.293   0.406
58254SOL     OW76658   6.647   3.670   8.416
58254SOL    HW176659   6.592   3.748   8.404
58254SOL    HW276660   6.673   3.673   8.508
58255SOL     OW76661   5.450   2.222   1.500
58255SOL    HW176662   5.440   2.258   1.588
58255SOL    HW276663   5.361   2.202   1.471
58256SOL     OW76664   6.242   7.348   4.268
58256SOL    HW176665   6.253   7.405   4.344
58256SOL    HW276666   6.148   7.330   4.264
58257SOL     OW76667   4.748   7.366   3.258
58257SOL    HW176668   4.771   7.450   3.297
58257SOL    HW276669   4.654   7.372   3.243
58258SOL     OW76670  11.384   6.947   5.044
58258SOL    HW176671  11.290   6.930   5.046
58258SOL    HW276672  11.403   6.988   5.128
58259SOL     OW76673   2.607   8.906  13.318
58259SOL    HW176674   2.692   8.874  13.347
58259SOL    HW276675   2.595   8.866  13.232
58260SOL     OW76676   0.879  10.106   5.660
58260SOL    HW176677   0.925  10.026   5.635
58260SOL    HW276678   0.825  10.080   5.735
58261SOL     OW76679   0.241  13.080   9.437
58261SOL    HW176680   0.267  13.141   9.506
58261SOL    HW276681   0.183  13.131   9.380
58262SOL     OW76682   9.809  11.130   7.253
58262SOL    HW176683   9.718  11.133   7.223
58262SOL    HW276684   9.838  11.041   7.234
58263SOL     OW76685   0.257  11.338   6.922
58263SOL    HW176686   0.345  11.329   6.958
58263SOL    HW276687   0.205  11.272   6.969
58264SOL     OW76688   9.152   7.415  13.252
58264SOL    HW176689   9.090   7.443  13.319
58264SOL    HW276690   9.134   7.474  13.178
58265SOL     OW76691   9.782   2.281   9.322
58265SOL    HW176692   9.728   2.356   9.344
58265SOL    HW276693   9.779   2.277   9.226
58266SOL     OW76694  14.628   4.626   4.176
58266SOL    HW176695  14.568   4.691   4.213
58266SOL    HW276696  14.683   4.600   4.250
58267SOL     OW76697   0.482  12.908   5.776
58267SOL    HW176698   0.517  12.821   5.754
58267SOL    HW276699   0.544  12.943   5.840
58268SOL     OW76700  14.435   3.070   0.921
58268SOL    HW176701  14.380   3.034   0.852
58268SOL    HW276702  14.524   3.066   0.886
58269SOL     OW76703  10.035  10.098   7.520
58269SOL    HW176704  10.044  10.192   7.506
58269SOL    HW276705  10.125  10.066   7.529
58270SOL     OW76706  14.699   3.299  14.401
58270SOL    HW176707  14.730   3.220  14.356
58270SOL    HW276708  14.603   3.290  14.401
58271SOL     OW76709   6.821  10.627   4.379
58271SOL    HW176710   6.851  10.651   4.291
58271SOL    HW276711   6.730  10.602   4.368
58272SOL     OW76712   3.792   8.488   8.434
58272SOL    HW176713   3.861   8.519   8.493
58272SOL    HW276714   3.811   8.531   8.351
58273SOL     OW76715   8.680   0.183   4.464
58273SOL    HW176716   8.716   0.226   4.541
58273SOL    HW276717   8.621   0.248   4.425
58274SOL     OW76718   0.857   8.126   9.962
58274SOL    HW176719   0.824   8.133   9.872
58274SOL    HW276720   0.874   8.217   9.988
58275SOL     OW76721   5.864   2.524  13.843
58275SOL    HW176722   5.891   2.615  13.858
58275SOL    HW276723   5.816   2.500  13.923
58276SOL     OW76724  10.330  10.604  14.671
58276SOL    HW176725  10.422  10.627  14.680
58276SOL    HW276726  10.331  10.519  14.628
58277SOL     OW76727  10.920   0.427   3.161
58277SOL    HW176728  10.956   0.491   3.100
58277SOL    HW276729  10.882   0.359   3.106
58278SOL     OW76730   9.205  11.238   1.237
58278SOL    HW176731   9.217  11.332   1.222
58278SOL    HW276732   9.118  11.230   1.275
58279SOL     OW76733  14.725  14.650   9.315
58279SOL    HW176734  14.641  14.624   9.352
58279SOL    HW276735  14.783  14.576   9.330
58280SOL     OW76736   4.026   3.227   2.612
58280SOL    HW176737   4.052   3.301   2.666
58280SOL    HW276738   4.072   3.240   2.529
58281SOL     OW76739   8.450  12.992   1.814
58281SOL    HW176740   8.543  12.972   1.810
58281SOL    HW276741   8.427  12.980   1.906
58282SOL     OW76742  13.115   4.593   2.813
58282SOL    HW176743  13.024   4.572   2.831
58282SOL    HW276744  13.111   4.656   2.741
58283SOL     OW76745  12.869   5.083   3.937
58283SOL    HW176746  12.785   5.105   3.978
58283SOL    HW276747  12.849   5.080   3.843
58284SOL     OW76748   3.933   9.727  12.729
58284SOL    HW176749   3.866   9.661  12.714
58284SOL    HW276750   4.009   9.696  12.679
58285SOL     OW76751   2.220   2.861  14.616
58285SOL    HW176752   2.266   2.877  14.534
58285SOL    HW276753   2.138   2.819  14.590
58286SOL     OW76754  13.606  12.038   8.382
58286SOL    HW176755  13.617  12.005   8.293
58286SOL    HW276756  13.615  12.133   8.374
58287SOL     OW76757  12.509   1.546   8.991
58287SOL    HW176758  12.578   1.592   9.039
58287SOL    HW276759  12.537   1.548   8.900
58288SOL     OW76760  12.698   3.810   2.526
58288SOL    HW176761  12.737   3.841   2.444
58288SOL    HW276762  12.772   3.790   2.582
58289SOL     OW76763   5.429   8.375   8.519
58289SOL    HW176764   5.372   8.451   8.533
58289SOL    HW276765   5.497   8.406   8.460
58290SOL     OW76766  14.031  11.814   6.327
58290SOL    HW176767  13.963  11.808   6.393
58290SOL    HW276768  14.112  11.826   6.377
58291SOL     OW76769   2.019   3.640   0.280
58291SOL    HW176770   2.023   3.641   0.376
58291SOL    HW276771   2.105   3.608   0.253
58292SOL     OW76772   2.393   7.722  11.457
58292SOL    HW176773   2.434   7.786  11.399
58292SOL    HW276774   2.424   7.744  11.544
58293SOL     OW76775   8.017   3.544   0.498
58293SOL    HW176776   8.026   3.450   0.508
58293SOL    HW276777   7.962   3.556   0.420
58294SOL     OW76778   2.998   8.991  12.173
58294SOL    HW176779   3.070   9.036  12.217
58294SOL    HW276780   3.039   8.950  12.097
58295SOL     OW76781  11.258   7.880   4.811
58295SOL    HW176782  11.323   7.810   4.804
58295SOL    HW276783  11.309   7.961   4.809
58296SOL     OW76784  14.008  12.527   3.441
58296SOL    HW176785  13.931  12.470   3.445
58296SOL    HW276786  13.972  12.616   3.445
58297SOL     OW76787   7.158   1.850   5.479
58297SOL    HW176788   7.070   1.837   5.444
58297SOL    HW276789   7.148   1.836   5.573
58298SOL     OW76790   2.416   9.226   9.198
58298SOL    HW176791   2.323   9.204   9.195
58298SOL    HW276792   2.454   9.161   9.256
58299SOL     OW76793  12.193   2.979   6.482
58299SOL    HW176794  12.169   3.017   6.566
58299SOL    HW276795  12.259   2.913   6.503
58300SOL     OW76796  11.987  12.090   7.114
58300SOL    HW176797  12.081  12.074   7.101
58300SOL    HW276798  11.944  12.016   7.072
58301SOL     OW76799  12.905   0.302   6.669
58301SOL    HW176800  12.877   0.211   6.657
58301SOL    HW276801  12.861   0.350   6.599
58302SOL     OW76802   6.447   5.477   4.625
58302SOL    HW176803   6.448   5.420   4.702
58302SOL    HW276804   6.538   5.479   4.596
58303SOL     OW76805   0.314   7.088   5.879
58303SOL    HW176806   0.219   7.090   5.876
58303SOL    HW276807   0.338   7.148   5.950
58304SOL     OW76808  13.087   9.365   1.417
58304SOL    HW176809  13.029   9.442   1.413
58304SOL    HW276810  13.174   9.402   1.434
58305SOL     OW76811  11.493   1.722   0.677
58305SOL    HW176812  11.486   1.729   0.582
58305SOL    HW276813  11.585   1.698   0.693
58306SOL     OW76814   2.059   4.064   1.830
58306SOL    HW176815   2.062   3.980   1.783
58306SOL    HW276816   2.135   4.062   1.888
58307SOL     OW76817   2.213   1.169   4.620
58307SOL    HW176818   2.242   1.143   4.532
58307SOL    HW276819   2.294   1.187   4.667
58308SOL     OW76820   9.511  10.128  13.315
58308SOL    HW176821   9.589  10.173  13.284
58308SOL    HW276822   9.509  10.146  13.409
58309SOL     OW76823  14.510   9.213   8.292
58309SOL    HW176824  14.426   9.200   8.337
58309SOL    HW276825  14.541   9.124   8.274
58310SOL     OW76826  12.702   8.601  13.279
58310SOL    HW176827  12.666   8.683  13.246
58310SOL    HW276828  12.783   8.589  13.230
58311SOL     OW76829   2.879  11.409   8.035
58311SOL    HW176830   2.870  11.385   8.128
58311SOL    HW276831   2.789  11.420   8.005
58312SOL     OW76832   4.859   4.293  11.884
58312SOL    HW176833   4.835   4.223  11.823
58312SOL    HW276834   4.778   4.310  11.933
58313SOL     OW76835   0.027   1.917   5.110
58313SOL    HW176836   0.036   2.001   5.065
58313SOL    HW276837   0.063   1.932   5.197
58314SOL     OW76838   6.164  12.386   7.525
58314SOL    HW176839   6.139  12.393   7.433
58314SOL    HW276840   6.250  12.345   7.524
58315SOL     OW76841   6.287   9.395   0.686
58315SOL    HW176842   6.260   9.443   0.763
58315SOL    HW276843   6.294   9.461   0.617
58316SOL     OW76844   7.677   3.397  13.538
58316SOL    HW176845   7.620   3.354  13.603
58316SOL    HW276846   7.616   3.428  13.471
58317SOL     OW76847   6.297   0.450   3.775
58317SOL    HW176848   6.335   0.476   3.859
58317SOL    HW276849   6.208   0.484   3.777
58318SOL     OW76850  11.113   0.941  12.523
58318SOL    HW176851  11.025   0.951  12.558
58318SOL    HW276852  11.125   1.016  12.465
58319SOL     OW76853   6.561  14.416   8.563
58319SOL    HW176854   6.634  14.435   8.504
58319SOL    HW276855   6.592  14.443   8.650
58320SOL     OW76856  14.546   1.126  13.118
58320SOL    HW176857  14.480   1.175  13.068
58320SOL    HW276858  14.543   1.038  13.082
58321SOL     OW76859   0.153   8.575   0.379
58321SOL    HW176860   0.131   8.563   0.472
58321SOL    HW276861   0.246   8.552   0.373
58322SOL     OW76862   2.676   6.503  11.471
58322SOL    HW176863   2.729   6.581  11.489
58322SOL    HW276864   2.591   6.538  11.444
58323SOL     OW76865   7.821   3.913   4.693
58323SOL    HW176866   7.753   3.979   4.706
58323SOL    HW276867   7.801   3.846   4.758
58324SOL     OW76868   7.489   5.345  13.769
58324SOL    HW176869   7.540   5.426  13.768
58324SOL    HW276870   7.400   5.372  13.793
58325SOL     OW76871   7.182   3.385  10.279
58325SOL    HW176872   7.271   3.405  10.251
58325SOL    HW276873   7.127   3.442  10.226
58326SOL     OW76874  11.034   8.656   6.745
58326SOL    HW176875  11.019   8.647   6.839
58326SOL    HW276876  11.104   8.720   6.737
58327SOL     OW76877  10.062  10.657   8.270
58327SOL    HW176878  10.062  10.716   8.345
58327SOL    HW276879  10.020  10.577   8.303
58328SOL     OW76880   4.278  10.177   7.586
58328SOL    HW176881   4.369  10.151   7.574
58328SOL    HW276882   4.282  10.268   7.614
58329SOL     OW76883   8.362   2.954  13.404
58329SOL    HW176884   8.277   2.941  13.361
58329SOL    HW276885   8.399   2.866  13.411
58330SOL     OW76886   2.268   5.884  13.929
58330SOL    HW176887   2.268   5.882  13.834
58330SOL    HW276888   2.285   5.793  13.955
58331SOL     OW76889   3.746   4.576   6.986
58331SOL    HW176890   3.654   4.589   7.006
58331SOL    HW276891   3.749   4.490   6.943
58332SOL     OW76892  14.649   5.126   8.673
58332SOL    HW176893  14.583   5.066   8.638
58332SOL    HW276894  14.644   5.203   8.616
58333SOL     OW76895   4.270  12.830   9.551
58333SOL    HW176896   4.219  12.765   9.601
58333SOL    HW276897   4.337  12.860   9.611
58334SOL     OW76898   7.446  14.355   3.154
58334SOL    HW176899   7.479  14.302   3.226
58334SOL    HW276900   7.510  14.425   3.142
58335SOL     OW76901   5.929  13.913   8.142
58335SOL    HW176902   5.887  13.990   8.103
58335SOL    HW276903   5.862  13.844   8.136
58336SOL     OW76904  14.781   9.522   5.180
58336SOL    HW176905  14.735   9.491   5.102
58336SOL    HW276906  14.770   9.617   5.177
58337SOL     OW76907   4.197  12.233   5.861
58337SOL    HW176908   4.244  12.285   5.796
58337SOL    HW276909   4.237  12.146   5.857
58338SOL     OW76910  12.386   2.103   8.971
58338SOL    HW176911  12.390   2.152   8.889
58338SOL    HW276912  12.392   2.170   9.040
58339SOL     OW76913  10.019   2.775   4.712
58339SOL    HW176914  10.094   2.723   4.739
58339SOL    HW276915   9.954   2.711   4.683
58340SOL     OW76916  11.432  12.551   3.538
58340SOL    HW176917  11.403  12.529   3.449
58340SOL    HW276918  11.522  12.581   3.527
58341SOL     OW76919  10.638   1.748  11.363
58341SOL    HW176920  10.674   1.710  11.283
58341SOL    HW276921  10.691   1.711  11.433
58342SOL     OW76922   8.462  13.467   1.281
58342SOL    HW176923   8.408  13.390   1.296
58342SOL    HW276924   8.479  13.466   1.187
58343SOL     OW76925   1.693   0.575   9.366
58343SOL    HW176926   1.717   0.665   9.388
58343SOL    HW276927   1.711   0.525   9.446
58344SOL     OW76928   0.752   7.514   9.055
58344SOL    HW176929   0.675   7.570   9.054
58344SOL    HW276930   0.718   7.427   9.032
58345SOL     OW76931  14.396  12.193   2.889
58345SOL    HW176932  14.419  12.284   2.905
58345SOL    HW276933  14.448  12.143   2.952
58346SOL     OW76934   1.436  10.429   2.836
58346SOL    HW176935   1.343  10.409   2.826
58346SOL    HW276936   1.468  10.366   2.901
58347SOL     OW76937   8.151   7.216  10.526
58347SOL    HW176938   8.168   7.142  10.583
58347SOL    HW276939   8.080   7.186  10.469
58348SOL     OW76940   8.416   9.768  11.210
58348SOL    HW176941   8.419   9.789  11.303
58348SOL    HW276942   8.494   9.808  11.173
58349SOL     OW76943   2.526   5.413  10.182
58349SOL    HW176944   2.568   5.340  10.228
58349SOL    HW276945   2.595   5.479  10.174
58350SOL     OW76946   1.045   7.862  14.123
58350SOL    HW176947   1.138   7.865  14.147
58350SOL    HW276948   1.020   7.771  14.138
58351SOL     OW76949   8.724  10.936  13.356
58351SOL    HW176950   8.721  10.950  13.262
58351SOL    HW276951   8.725  11.024  13.393
58352SOL     OW76952   3.864  13.709   6.818
58352SOL    HW176953   3.785  13.711   6.872
58352SOL    HW276954   3.844  13.646   6.749
58353SOL     OW76955  13.960   8.793   1.314
58353SOL    HW176956  13.944   8.702   1.337
58353SOL    HW276957  14.043   8.815   1.357
58354SOL     OW76958  14.090   1.106  11.741
58354SOL    HW176959  14.142   1.030  11.715
58354SOL    HW276960  14.104   1.113  11.835
58355SOL     OW76961   2.659   8.007  14.102
58355SOL    HW176962   2.693   8.031  14.016
58355SOL    HW276963   2.564   8.013  14.093
58356SOL     OW76964   5.111   1.219   1.365
58356SOL    HW176965   5.168   1.221   1.289
58356SOL    HW276966   5.140   1.143   1.415
58357SOL     OW76967   2.973   5.372   4.724
58357SOL    HW176968   3.037   5.339   4.662
58357SOL    HW276969   3.006   5.458   4.749
58358SOL     OW76970  12.617   8.574  13.537
58358SOL    HW176971  12.631   8.585  13.443
58358SOL    HW276972  12.522   8.584  13.548
58359SOL     OW76973  11.308  14.660   7.177
58359SOL    HW176974  11.241  14.717   7.139
58359SOL    HW276975  11.338  14.606   7.104
58360SOL     OW76976   2.037  11.482   5.538
58360SOL    HW176977   1.980  11.406   5.544
58360SOL    HW276978   2.005  11.530   5.461
58361SOL     OW76979  11.415   2.089  10.977
58361SOL    HW176980  11.345   2.153  10.964
58361SOL    HW276981  11.495   2.138  10.957
58362SOL     OW76982   6.648  14.652   8.153
58362SOL    HW176983   6.725  14.693   8.114
58362SOL    HW276984   6.577  14.713   8.134
58363SOL     OW76985   5.321   4.644   4.582
58363SOL    HW176986   5.308   4.706   4.510
58363SOL    HW276987   5.234   4.608   4.598
58364SOL     OW76988   2.398  14.448   1.136
58364SOL    HW176989   2.381  14.433   1.229
58364SOL    HW276990   2.334  14.394   1.090
58365SOL     OW76991  14.843  10.569   6.844
58365SOL    HW176992  14.846  10.640   6.908
58365SOL    HW276993   0.031  10.505   6.876
58366SOL     OW76994   7.659   5.072  14.545
58366SOL    HW176995   7.681   5.139  14.610
58366SOL    HW276996   7.732   5.074  14.483
58367SOL     OW76997   4.557   5.168  10.564
58367SOL    HW176998   4.484   5.105  10.574
58367SOL    HW276999   4.631   5.114  10.536
58368SOL     OW77000   5.342   8.755  12.149
58368SOL    HW177001   5.276   8.722  12.089
58368SOL    HW277002   5.293   8.802  12.217
58369SOL     OW77003   0.196  10.237   1.094
58369SOL    HW177004   0.152  10.162   1.054
58369SOL    HW277005   0.283  10.238   1.053
58370SOL     OW77006  10.717   0.528   6.625
58370SOL    HW177007  10.656   0.457   6.647
58370SOL    HW277008  10.681   0.565   6.545
58371SOL     OW77009  13.936  12.293   7.295
58371SOL    HW177010  13.939  12.265   7.204
58371SOL    HW277011  13.861  12.246   7.332
58372SOL     OW77012   6.219   8.830  11.866
58372SOL    HW177013   6.133   8.864  11.892
58372SOL    HW277014   6.282   8.889  11.907
58373SOL     OW77015   1.388   3.053   7.239
58373SOL    HW177016   1.413   3.137   7.200
58373SOL    HW277017   1.469   3.020   7.278
58374SOL     OW77018  14.315   3.323   1.403
58374SOL    HW177019  14.402   3.361   1.405
58374SOL    HW277020  14.305   3.289   1.314
58375SOL     OW77021  11.072   8.247  10.724
58375SOL    HW177022  11.012   8.316  10.750
58375SOL    HW277023  11.017   8.170  10.714
58376SOL     OW77024   6.758   2.923  11.760
58376SOL    HW177025   6.831   2.943  11.701
58376SOL    HW277026   6.701   2.999  11.754
58377SOL     OW77027  11.078   9.298   7.921
58377SOL    HW177028  11.166   9.313   7.954
58377SOL    HW277029  11.090   9.252   7.838
58378SOL     OW77030   4.192   4.888   0.002
58378SOL    HW177031   4.199   4.838   0.082
58378SOL    HW277032   4.161   4.826  14.811
58379SOL     OW77033   1.427   7.090   1.216
58379SOL    HW177034   1.460   7.015   1.166
58379SOL    HW277035   1.498   7.154   1.213
58380SOL     OW77036   4.961   8.410   2.016
58380SOL    HW177037   5.026   8.360   1.967
58380SOL    HW277038   4.879   8.362   2.005
58381SOL     OW77039  10.942  13.072   4.909
58381SOL    HW177040  11.029  13.033   4.903
58381SOL    HW277041  10.959  13.164   4.929
58382SOL     OW77042   2.467   9.340   4.083
58382SOL    HW177043   2.546   9.314   4.036
58382SOL    HW277044   2.429   9.409   4.028
58383SOL     OW77045   5.604   6.356   0.704
58383SOL    HW177046   5.595   6.411   0.782
58383SOL    HW277047   5.515   6.345   0.671
58384SOL     OW77048   4.135  14.861   2.243
58384SOL    HW177049   4.068   0.013   2.180
58384SOL    HW277050   4.086  14.841   2.323
58385SOL     OW77051  12.568   6.035   4.820
58385SOL    HW177052  12.488   6.087   4.811
58385SOL    HW277053  12.620   6.081   4.886
58386SOL     OW77054   6.625   5.816   3.939
58386SOL    HW177055   6.603   5.863   3.859
58386SOL    HW277056   6.573   5.859   4.007
58387SOL     OW77057  13.447   4.104   8.537
58387SOL    HW177058  13.538   4.132   8.524
58387SOL    HW277059  13.454   4.016   8.573
58388SOL     OW77060  12.333  12.885  13.842
58388SOL    HW177061  12.417  12.843  13.859
58388SOL    HW277062  12.316  12.937  13.921
58389SOL     OW77063   1.073   9.739   5.873
58389SOL    HW177064   1.045   9.743   5.781
58389SOL    HW277065   1.166   9.717   5.868
58390SOL     OW77066   9.570   3.458   0.919
58390SOL    HW177067   9.650   3.455   0.971
58390SOL    HW277068   9.600   3.451   0.829
58391SOL     OW77069   8.628   6.582  13.798
58391SOL    HW177070   8.646   6.675  13.782
58391SOL    HW277071   8.545   6.581  13.845
58392SOL     OW77072  10.670   2.201   1.373
58392SOL    HW177073  10.577   2.213   1.392
58392SOL    HW277074  10.702   2.141   1.440
58393SOL     OW77075  14.791   0.180   9.074
58393SOL    HW177076  14.782   0.101   9.128
58393SOL    HW277077  14.874   0.167   9.027
58394SOL     OW77078  10.555   2.196  13.097
58394SOL    HW177079  10.516   2.151  13.022
58394SOL    HW277080  10.625   2.138  13.125
58395SOL     OW77081   8.802   7.256   3.176
58395SOL    HW177082   8.726   7.286   3.225
58395SOL    HW277083   8.780   7.167   3.149
58396SOL     OW77084  11.604  11.932   2.139
58396SOL    HW177085  11.597  11.839   2.121
58396SOL    HW277086  11.611  11.938   2.234
58397SOL     OW77087   8.638  12.650  14.387
58397SOL    HW177088   8.687  12.635  14.305
58397SOL    HW277089   8.675  12.587  14.448
58398SOL     OW77090  12.491   6.203  10.872
58398SOL    HW177091  12.493   6.269  10.941
58398SOL    HW277092  12.499   6.252  10.791
58399SOL     OW77093  11.480  13.606   9.922
58399SOL    HW177094  11.414  13.574   9.861
58399SOL    HW277095  11.540  13.533   9.934
58400SOL     OW77096   7.329   9.034  13.338
58400SOL    HW177097   7.355   9.036  13.430
58400SOL    HW277098   7.407   9.003  13.292
58401SOL     OW77099   8.022   1.162  11.539
58401SOL    HW177100   8.008   1.099  11.609
58401SOL    HW277101   7.940   1.212  11.535
58402SOL     OW77102   6.382  10.588  11.809
58402SOL    HW177103   6.451  10.576  11.875
58402SOL    HW277104   6.403  10.671  11.767
58403SOL     OW77105   6.585   5.220   5.276
58403SOL    HW177106   6.526   5.279   5.229
58403SOL    HW277107   6.672   5.243   5.242
58404SOL     OW77108   1.257   0.015   1.909
58404SOL    HW177109   1.209   0.013   1.991
58404SOL    HW277110   1.190   0.021   1.841
58405SOL     OW77111  11.456  10.759   2.474
58405SOL    HW177112  11.550  10.771   2.457
58405SOL    HW277113  11.440  10.810   2.553
58406SOL     OW77114  14.099   5.737  13.384
58406SOL    HW177115  14.107   5.823  13.426
58406SOL    HW277116  14.072   5.757  13.295
58407SOL     OW77117   1.126   3.859   4.148
58407SOL    HW177118   1.068   3.907   4.207
58407SOL    HW277119   1.118   3.904   4.064
58408SOL     OW77120   5.689   5.358   1.967
58408SOL    HW177121   5.606   5.319   1.996
58408SOL    HW277122   5.665   5.447   1.940
58409SOL     OW77123   3.668   8.934  13.127
58409SOL    HW177124   3.592   8.884  13.095
58409SOL    HW277125   3.719   8.870  13.176
58410SOL     OW77126  11.044   9.018   9.322
58410SOL    HW177127  11.087   9.066   9.392
58410SOL    HW277128  10.991   8.953   9.367
58411SOL     OW77129   4.820  11.862   6.534
58411SOL    HW177130   4.795  11.835   6.446
58411SOL    HW277131   4.882  11.795   6.563
58412SOL     OW77132  12.901   0.757   5.911
58412SOL    HW177133  12.914   0.777   5.819
58412SOL    HW277134  12.958   0.681   5.927
58413SOL     OW77135   6.785  14.465  12.755
58413SOL    HW177136   6.780  14.434  12.664
58413SOL    HW277137   6.878  14.463  12.776
58414SOL     OW77138  10.625   9.505  10.731
58414SOL    HW177139  10.548   9.493  10.675
58414SOL    HW277140  10.674   9.576  10.691
58415SOL     OW77141   2.447   1.738   9.747
58415SOL    HW177142   2.402   1.682   9.684
58415SOL    HW277143   2.530   1.694   9.764
58416SOL     OW77144   0.407   8.925  14.725
58416SOL    HW177145   0.465   8.997  14.749
58416SOL    HW277146   0.418   8.915  14.631
58417SOL     OW77147  11.452   7.162  12.914
58417SOL    HW177148  11.436   7.187  12.823
58417SOL    HW277149  11.403   7.225  12.966
58418SOL     OW77150   9.566  10.814  11.453
58418SOL    HW177151   9.633  10.759  11.414
58418SOL    HW277152   9.612  10.894  11.480
58419SOL     OW77153  11.871   5.911   4.930
58419SOL    HW177154  11.893   5.835   4.983
58419SOL    HW277155  11.954   5.957   4.919
58420SOL     OW77156  14.637  10.627  11.702
58420SOL    HW177157  14.653  10.661  11.790
58420SOL    HW277158  14.712  10.657  11.651
58421SOL     OW77159   1.098   6.022  12.671
58421SOL    HW177160   1.109   6.063  12.585
58421SOL    HW277161   1.003   6.016  12.682
58422SOL     OW77162  14.742   0.101  12.339
58422SOL    HW177163  14.692   0.021  12.325
58422SOL    HW277164  14.709   0.161  12.272
58423SOL     OW77165  12.799   0.442   8.625
58423SOL    HW177166  12.853   0.370   8.656
58423SOL    HW277167  12.802   0.507   8.696
58424SOL     OW77168   3.244   8.689   8.842
58424SOL    HW177169   3.169   8.747   8.855
58424SOL    HW277170   3.308   8.717   8.908
58425SOL     OW77171   7.569   0.826   7.121
58425SOL    HW177172   7.618   0.835   7.039
58425SOL    HW277173   7.534   0.737   7.118
58426SOL     OW77174  13.831   2.446   8.396
58426SOL    HW177175  13.760   2.501   8.361
58426SOL    HW277176  13.811   2.439   8.490
58427SOL     OW77177   2.752  11.575   8.273
58427SOL    HW177178   2.841  11.601   8.247
58427SOL    HW277179   2.727  11.638   8.340
58428SOL     OW77180  13.483   2.621  13.065
58428SOL    HW177181  13.388   2.629  13.077
58428SOL    HW277182  13.503   2.680  12.992
58429SOL     OW77183   3.264  11.831   5.823
58429SOL    HW177184   3.245  11.822   5.729
58429SOL    HW277185   3.314  11.912   5.829
58430SOL     OW77186   2.632   1.898   8.682
58430SOL    HW177187   2.577   1.960   8.633
58430SOL    HW277188   2.706   1.951   8.712
58431SOL     OW77189   0.735   5.489   4.069
58431SOL    HW177190   0.705   5.494   3.978
58431SOL    HW277191   0.831   5.488   4.062
58432SOL     OW77192  14.820   8.517   8.842
58432SOL    HW177193  14.847   8.559   8.924
58432SOL    HW277194   0.026   8.510   8.791
58433SOL     OW77195  11.942   8.735   9.562
58433SOL    HW177196  11.934   8.782   9.645
58433SOL    HW277197  11.855   8.740   9.523
58434SOL     OW77198   9.859   9.981  11.590
58434SOL    HW177199   9.809   9.906  11.557
58434SOL    HW277200   9.910   9.945  11.662
58435SOL     OW77201   7.750   8.169   6.247
58435SOL    HW177202   7.657   8.161   6.222
58435SOL    HW277203   7.772   8.083   6.283
58436SOL     OW77204  14.300   1.402   9.668
58436SOL    HW177205  14.215   1.368   9.694
58436SOL    HW277206  14.308   1.486   9.714
58437SOL     OW77207   7.661  12.373   7.238
58437SOL    HW177208   7.655  12.393   7.145
58437SOL    HW277209   7.615  12.445   7.282
58438SOL     OW77210  13.989  11.883  13.694
58438SOL    HW177211  13.996  11.788  13.681
58438SOL    HW277212  13.901  11.905  13.661
58439SOL     OW77213  14.093   4.227  13.109
58439SOL    HW177214  14.168   4.259  13.158
58439SOL    HW277215  14.060   4.303  13.063
58440SOL     OW77216   0.214   7.191  11.223
58440SOL    HW177217   0.180   7.144  11.299
58440SOL    HW277218   0.224   7.281  11.253
58441SOL     OW77219   8.169   0.313   1.184
58441SOL    HW177220   8.256   0.280   1.206
58441SOL    HW277221   8.128   0.330   1.269
58442SOL     OW77222   5.760   7.451   4.530
58442SOL    HW177223   5.666   7.467   4.541
58442SOL    HW277224   5.781   7.491   4.446
58443SOL     OW77225  11.379  14.045   5.290
58443SOL    HW177226  11.337  14.131   5.297
58443SOL    HW277227  11.307  13.984   5.275
58444SOL     OW77228   6.712  14.769   2.829
58444SOL    HW177229   6.762  14.780   2.748
58444SOL    HW277230   6.679  14.856   2.848
58445SOL     OW77231  14.106   4.497  10.544
58445SOL    HW177232  14.088   4.465  10.633
58445SOL    HW277233  14.123   4.418  10.493
58446SOL     OW77234   2.728   6.712   5.770
58446SOL    HW177235   2.797   6.728   5.706
58446SOL    HW277236   2.654   6.765   5.738
58447SOL     OW77237  13.995   5.099   8.624
58447SOL    HW177238  13.967   5.188   8.602
58447SOL    HW277239  13.926   5.066   8.682
58448SOL     OW77240  10.411   4.249   4.263
58448SOL    HW177241  10.424   4.154   4.264
58448SOL    HW277242  10.499   4.285   4.261
58449SOL     OW77243  10.569   7.234   2.141
58449SOL    HW177244  10.576   7.209   2.049
58449SOL    HW277245  10.634   7.180   2.186
58450SOL     OW77246   6.716   3.960  12.356
58450SOL    HW177247   6.689   3.953  12.265
58450SOL    HW277248   6.636   3.944  12.407
58451SOL     OW77249   6.111   8.121   7.375
58451SOL    HW177250   6.076   8.046   7.424
58451SOL    HW277251   6.172   8.083   7.313
58452SOL     OW77252   1.655  14.538  12.723
58452SOL    HW177253   1.707  14.518  12.802
58452SOL    HW277254   1.566  14.511  12.746
58453SOL     OW77255   5.796   8.705  12.999
58453SOL    HW177256   5.826   8.644  13.067
58453SOL    HW277257   5.718   8.746  13.036
58454SOL     OW77258   6.314  11.905   2.737
58454SOL    HW177259   6.320  11.948   2.822
58454SOL    HW277260   6.220  11.902   2.718
58455SOL     OW77261   6.389  13.377   3.734
58455SOL    HW177262   6.325  13.343   3.796
58455SOL    HW277263   6.457  13.417   3.788
58456SOL     OW77264   7.866   6.708   6.056
58456SOL    HW177265   7.923   6.688   5.982
58456SOL    HW277266   7.780   6.674   6.029
58457SOL     OW77267  13.970   4.923  11.120
58457SOL    HW177268  13.922   5.005  11.133
58457SOL    HW277269  14.059   4.943  11.147
58458SOL     OW77270  13.112   4.223   5.547
58458SOL    HW177271  13.063   4.283   5.603
58458SOL    HW277272  13.046   4.185   5.489
58459SOL     OW77273   8.194  10.040   5.271
58459SOL    HW177274   8.200  10.073   5.361
58459SOL    HW277275   8.107   9.999   5.267
58460SOL     OW77276  10.278   5.119  14.855
58460SOL    HW177277  10.251   5.155   0.064
58460SOL    HW277278  10.340   5.183  14.820
58461SOL     OW77279   6.479  13.700  12.382
58461SOL    HW177280   6.413  13.643  12.421
58461SOL    HW277281   6.430  13.773  12.344
58462SOL     OW77282  13.334   3.475   3.054
58462SOL    HW177283  13.361   3.453   2.965
58462SOL    HW277284  13.403   3.533   3.087
58463SOL     OW77285   6.257   7.912  10.057
58463SOL    HW177286   6.255   7.864   9.974
58463SOL    HW277287   6.174   7.959  10.060
58464SOL     OW77288   4.216  13.218  11.661
58464SOL    HW177289   4.236  13.127  11.682
58464SOL    HW277290   4.150  13.244  11.724
58465SOL     OW77291  10.467  12.598  10.303
58465SOL    HW177292  10.562  12.595  10.295
58465SOL    HW277293  10.452  12.633  10.391
58466SOL     OW77294   3.439   6.129   3.890
58466SOL    HW177295   3.382   6.138   3.966
58466SOL    HW277296   3.452   6.034   3.882
58467SOL     OW77297   7.288  13.309  12.734
58467SOL    HW177298   7.197  13.326  12.758
58467SOL    HW277299   7.327  13.269  12.812
58468SOL     OW77300   0.671   2.223   3.049
58468SOL    HW177301   0.616   2.193   2.976
58468SOL    HW277302   0.635   2.309   3.072
58469SOL     OW77303   5.338   7.496   6.047
58469SOL    HW177304   5.269   7.503   5.981
58469SOL    HW277305   5.329   7.575   6.100
58470SOL     OW77306   4.022   0.843   9.649
58470SOL    HW177307   3.978   0.888   9.720
58470SOL    HW277308   3.962   0.773   9.623
58471SOL     OW77309   7.395  14.750  12.569
58471SOL    HW177310   7.449  14.814  12.522
58471SOL    HW277311   7.372  14.685  12.503
58472SOL     OW77312   0.401   8.659   0.212
58472SOL    HW177313   0.393   8.636   0.120
58472SOL    HW277314   0.425   8.576   0.255
58473SOL     OW77315   0.827   5.471   0.254
58473SOL    HW177316   0.848   5.425   0.173
58473SOL    HW277317   0.761   5.535   0.229
58474SOL     OW77318   1.116   0.122   0.969
58474SOL    HW177319   1.112   0.194   1.031
58474SOL    HW277320   1.026   0.113   0.937
58475SOL     OW77321   1.319  10.566   9.089
58475SOL    HW177322   1.358  10.509   9.155
58475SOL    HW277323   1.358  10.536   9.006
58476SOL     OW77324   3.922   9.258  11.023
58476SOL    HW177325   3.866   9.254  10.945
58476SOL    HW277326   3.928   9.351  11.043
58477SOL     OW77327   4.221  10.185  14.375
58477SOL    HW177328   4.274  10.105  14.370
58477SOL    HW277329   4.131  10.155  14.360
58478SOL     OW77330   3.488  10.141   7.364
58478SOL    HW177331   3.497  10.046   7.355
58478SOL    HW277332   3.502  10.157   7.457
58479SOL     OW77333  14.354   1.530  14.695
58479SOL    HW177334  14.317   1.544  14.608
58479SOL    HW277335  14.334   1.611  14.743
58480SOL     OW77336   8.345  14.126  13.789
58480SOL    HW177337   8.299  14.184  13.728
58480SOL    HW277338   8.425  14.100  13.742
58481SOL     OW77339  12.184   9.598   6.286
58481SOL    HW177340  12.144   9.603   6.199
58481SOL    HW277341  12.195   9.689   6.312
58482SOL     OW77342   7.222   6.357  12.943
58482SOL    HW177343   7.234   6.264  12.959
58482SOL    HW277344   7.170   6.388  13.017
58483SOL     OW77345  13.623   6.903   6.982
58483SOL    HW177346  13.569   6.827   6.965
58483SOL    HW277347  13.680   6.910   6.906
58484SOL     OW77348   8.549   9.632  12.026
58484SOL    HW177349   8.465   9.587  12.030
58484SOL    HW277350   8.589   9.618  12.113
58485SOL     OW77351   0.726   2.307  10.687
58485SOL    HW177352   0.640   2.331  10.651
58485SOL    HW277353   0.715   2.314  10.782
58486SOL     OW77354   8.108   1.055   7.124
58486SOL    HW177355   8.157   1.022   7.048
58486SOL    HW277356   8.025   1.007   7.121
58487SOL     OW77357  11.771   1.237   4.869
58487SOL    HW177358  11.725   1.212   4.789
58487SOL    HW277359  11.860   1.258   4.840
58488SOL     OW77360  11.213   8.326   7.992
58488SOL    HW177361  11.279   8.275   8.040
58488SOL    HW277362  11.225   8.300   7.901
58489SOL     OW77363  14.214  13.275  13.284
58489SOL    HW177364  14.174  13.214  13.222
58489SOL    HW277365  14.294  13.304  13.242
58490SOL     OW77366  11.586   5.028  13.608
58490SOL    HW177367  11.645   5.046  13.682
58490SOL    HW277368  11.612   4.941  13.577
58491SOL     OW77369   9.648   1.155   1.623
58491SOL    HW177370   9.695   1.085   1.578
58491SOL    HW277371   9.703   1.176   1.699
58492SOL     OW77372   1.734   4.909   8.535
58492SOL    HW177373   1.725   4.877   8.445
58492SOL    HW277374   1.765   4.834   8.585
58493SOL     OW77375   0.016  12.063  14.544
58493SOL    HW177376   0.009  12.156  14.565
58493SOL    HW277377   0.070  12.061  14.465
58494SOL     OW77378  10.516   1.393   3.979
58494SOL    HW177379  10.579   1.404   4.050
58494SOL    HW277380  10.569   1.371   3.903
58495SOL     OW77381  11.781   4.695  12.670
58495SOL    HW177382  11.796   4.633  12.599
58495SOL    HW277383  11.855   4.755  12.667
58496SOL     OW77384   9.234   9.314   3.100
58496SOL    HW177385   9.239   9.221   3.118
58496SOL    HW277386   9.264   9.323   3.010
58497SOL     OW77387  11.991   8.416   0.911
58497SOL    HW177388  11.949   8.489   0.867
58497SOL    HW277389  12.070   8.398   0.860
58498SOL     OW77390   2.595   1.195  11.750
58498SOL    HW177391   2.511   1.161  11.781
58498SOL    HW277392   2.652   1.191  11.827
58499SOL     OW77393   6.596   0.030  13.442
58499SOL    HW177394   6.591  14.845  13.367
58499SOL    HW277395   6.682   0.013  13.480
58500SOL     OW77396   3.325   5.150   6.482
58500SOL    HW177397   3.247   5.200   6.506
58500SOL    HW277398   3.312   5.064   6.522
58501SOL     OW77399  11.764   2.568   3.435
58501SOL    HW177400  11.799   2.587   3.522
58501SOL    HW277401  11.691   2.508   3.451
58502SOL     OW77402   9.530  11.153   6.417
58502SOL    HW177403   9.513  11.246   6.404
58502SOL    HW277404   9.448  11.118   6.452
58503SOL     OW77405   3.514   5.586  12.204
58503SOL    HW177406   3.535   5.629  12.287
58503SOL    HW277407   3.572   5.510  12.200
58504SOL     OW77408  11.254  12.437   8.133
58504SOL    HW177409  11.182  12.386   8.172
58504SOL    HW277410  11.313  12.455   8.206
58505SOL     OW77411  14.769  11.889   0.446
58505SOL    HW177412  14.816  11.809   0.422
58505SOL    HW277413  14.780  11.947   0.370
58506SOL     OW77414   0.889   8.694   6.100
58506SOL    HW177415   0.893   8.747   6.020
58506SOL    HW277416   0.906   8.756   6.171
58507SOL     OW77417   5.383   1.986   6.894
58507SOL    HW177418   5.477   1.986   6.880
58507SOL    HW277419   5.362   1.895   6.916
58508SOL     OW77420  13.612   0.068  11.243
58508SOL    HW177421  13.650   0.011  11.310
58508SOL    HW277422  13.672   0.141  11.237
58509SOL     OW77423   2.615   1.542   7.979
58509SOL    HW177424   2.577   1.582   7.901
58509SOL    HW277425   2.698   1.588   7.993
58510SOL     OW77426  13.622  11.424  12.409
58510SOL    HW177427  13.642  11.466  12.493
58510SOL    HW277428  13.704  11.383  12.383
58511SOL     OW77429  12.281   0.808   0.667
58511SOL    HW177430  12.253   0.855   0.588
58511SOL    HW277431  12.203   0.759   0.694
58512SOL     OW77432   6.285   1.810   4.441
58512SOL    HW177433   6.344   1.766   4.502
58512SOL    HW277434   6.210   1.836   4.494
58513SOL     OW77435   6.031  14.280  13.928
58513SOL    HW177436   5.989  14.259  13.844
58513SOL    HW277437   6.119  14.242  13.920
58514SOL     OW77438   8.805   6.572   7.550
58514SOL    HW177439   8.719   6.614   7.547
58514SOL    HW277440   8.796   6.495   7.494
58515SOL     OW77441  12.114   6.966   6.394
58515SOL    HW177442  12.060   7.045   6.400
58515SOL    HW277443  12.077   6.906   6.459
58516SOL     OW77444   0.557   0.523   9.785
58516SOL    HW177445   0.567   0.467   9.707
58516SOL    HW277446   0.642   0.565   9.795
58517SOL     OW77447   9.680   6.235   9.781
58517SOL    HW177448   9.642   6.243   9.694
58517SOL    HW277449   9.604   6.237   9.840
58518SOL     OW77450   4.336  12.514   8.238
58518SOL    HW177451   4.285  12.509   8.157
58518SOL    HW277452   4.423  12.542   8.210
58519SOL     OW77453   2.012  11.318   0.780
58519SOL    HW177454   2.010  11.222   0.771
58519SOL    HW277455   2.081  11.335   0.844
58520SOL     OW77456  11.410  14.626   2.422
58520SOL    HW177457  11.326  14.582   2.424
58520SOL    HW277458  11.433  14.639   2.514
58521SOL     OW77459  11.155   6.750   5.943
58521SOL    HW177460  11.239   6.796   5.950
58521SOL    HW277461  11.091   6.812   5.978
58522SOL     OW77462   7.885  14.547  12.630
58522SOL    HW177463   7.830  14.585  12.562
58522SOL    HW277464   7.826  14.534  12.704
58523SOL     OW77465  11.162  11.536   2.783
58523SOL    HW177466  11.210  11.579   2.712
58523SOL    HW277467  11.110  11.469   2.740
58524SOL     OW77468   5.397  12.657   3.230
58524SOL    HW177469   5.398  12.593   3.159
58524SOL    HW277470   5.482  12.700   3.225
58525SOL     OW77471   7.205   0.449  14.831
58525SOL    HW177472   7.275   0.426   0.017
58525SOL    HW277473   7.139   0.380  14.843
58526SOL     OW77474   4.954   9.167   2.655
58526SOL    HW177475   5.007   9.172   2.735
58526SOL    HW277476   4.997   9.229   2.596
58527SOL     OW77477   5.305   8.963   6.610
58527SOL    HW177478   5.310   8.881   6.658
58527SOL    HW277479   5.391   9.004   6.624
58528SOL     OW77480   0.001  13.188   0.272
58528SOL    HW177481  14.805  13.131   0.243
58528SOL    HW277482  14.839  13.238   0.345
58529SOL     OW77483   8.842   9.187  13.628
58529SOL    HW177484   8.760   9.141  13.613
58529SOL    HW277485   8.838   9.263  13.570
58530SOL     OW77486  13.957  12.643  12.370
58530SOL    HW177487  13.974  12.683  12.285
58530SOL    HW277488  14.042  12.645  12.415
58531SOL     OW77489   6.444   0.018  11.926
58531SOL    HW177490   6.531   0.053  11.908
58531SOL    HW277491   6.460  14.800  11.947
58532SOL     OW77492  10.120  12.895   2.708
58532SOL    HW177493  10.196  12.844   2.735
58532SOL    HW277494  10.157  12.975   2.670
58533SOL     OW77495   2.336   0.421  14.139
58533SOL    HW177496   2.368   0.331  14.132
58533SOL    HW277497   2.416   0.474  14.146
58534SOL     OW77498   5.128   6.509   8.626
58534SOL    HW177499   5.071   6.580   8.658
58534SOL    HW277500   5.087   6.429   8.658
58535SOL     OW77501  11.587   5.117   7.860
58535SOL    HW177502  11.505   5.160   7.836
58535SOL    HW277503  11.562   5.028   7.886
58536SOL     OW77504   3.603  14.714   8.785
58536SOL    HW177505   3.518  14.727   8.828
58536SOL    HW277506   3.637  14.802   8.772
58537SOL     OW77507   9.166  10.582   9.963
58537SOL    HW177508   9.198  10.670   9.982
58537SOL    HW277509   9.221  10.524  10.016
58538SOL     OW77510   5.587   6.172  10.554
58538SOL    HW177511   5.562   6.108  10.620
58538SOL    HW277512   5.667   6.137  10.515
58539SOL     OW77513   6.016  11.128   4.132
58539SOL    HW177514   5.958  11.053   4.120
58539SOL    HW277515   6.103  11.095   4.111
58540SOL     OW77516   6.780  12.103  14.475
58540SOL    HW177517   6.827  12.149  14.545
58540SOL    HW277518   6.713  12.165  14.447
58541SOL     OW77519   3.152  14.749  14.368
58541SOL    HW177520   3.096  14.802  14.312
58541SOL    HW277521   3.228  14.729  14.313
58542SOL     OW77522   6.941   3.121   7.927
58542SOL    HW177523   6.958   3.142   8.018
58542SOL    HW277524   7.025   3.134   7.883
58543SOL     OW77525   5.613   0.884  11.167
58543SOL    HW177526   5.656   0.829  11.232
58543SOL    HW277527   5.531   0.911  11.208
58544SOL     OW77528  10.959  14.212   3.681
58544SOL    HW177529  10.868  14.214   3.712
58544SOL    HW277530  10.984  14.304   3.674
58545SOL     OW77531   0.216   6.729   4.051
58545SOL    HW177532   0.171   6.800   4.006
58545SOL    HW277533   0.166   6.651   4.030
58546SOL     OW77534   6.489  12.858   9.462
58546SOL    HW177535   6.476  12.813   9.546
58546SOL    HW277536   6.448  12.943   9.474
58547SOL     OW77537   2.684  12.616   5.188
58547SOL    HW177538   2.688  12.542   5.126
58547SOL    HW277539   2.765  12.610   5.237
58548SOL     OW77540  10.912  14.142  12.547
58548SOL    HW177541  10.986  14.170  12.602
58548SOL    HW277542  10.912  14.205  12.475
58549SOL     OW77543   7.975   9.528   5.694
58549SOL    HW177544   7.916   9.553   5.764
58549SOL    HW277545   8.035   9.464   5.733
58550SOL     OW77546  14.502  13.212   8.857
58550SOL    HW177547  14.526  13.163   8.779
58550SOL    HW277548  14.527  13.155   8.930
58551SOL     OW77549   3.955   8.608   0.620
58551SOL    HW177550   3.919   8.694   0.599
58551SOL    HW277551   4.014   8.589   0.547
58552SOL     OW77552  14.444  10.030   6.575
58552SOL    HW177553  14.512  10.095   6.556
58552SOL    HW277554  14.486   9.969   6.635
58553SOL     OW77555   3.370   3.469   6.660
58553SOL    HW177556   3.427   3.506   6.593
58553SOL    HW277557   3.418   3.391   6.690
58554SOL     OW77558   6.705   6.221  12.364
58554SOL    HW177559   6.796   6.204  12.342
58554SOL    HW277560   6.656   6.153  12.318
58555SOL     OW77561   3.412  10.024   9.622
58555SOL    HW177562   3.460  10.014   9.705
58555SOL    HW277563   3.384  10.115   9.622
58556SOL     OW77564   1.566  11.835   7.137
58556SOL    HW177565   1.529  11.900   7.196
58556SOL    HW277566   1.490  11.796   7.094
58557SOL     OW77567   8.182   5.562   0.298
58557SOL    HW177568   8.124   5.636   0.313
58557SOL    HW277569   8.142   5.515   0.225
58558SOL     OW77570   4.024  11.039   8.967
58558SOL    HW177571   4.025  11.132   8.989
58558SOL    HW277572   3.934  11.022   8.940
58559SOL     OW77573  14.386  12.175   2.046
58559SOL    HW177574  14.349  12.160   2.133
58559SOL    HW277575  14.324  12.234   2.003
58560SOL     OW77576  10.865   0.685  12.225
58560SOL    HW177577  10.933   0.720  12.167
58560SOL    HW277578  10.825   0.762  12.265
58561SOL     OW77579   7.732   3.415   0.381
58561SOL    HW177580   7.724   3.342   0.442
58561SOL    HW277581   7.761   3.375   0.299
58562SOL     OW77582  12.373   3.370  12.492
58562SOL    HW177583  12.379   3.281  12.525
58562SOL    HW277584  12.463   3.404  12.497
58563SOL     OW77585   7.325  11.643   8.230
58563SOL    HW177586   7.266  11.664   8.158
58563SOL    HW277587   7.376  11.569   8.198
58564SOL     OW77588  11.126   8.241   3.664
58564SOL    HW177589  11.175   8.232   3.747
58564SOL    HW277590  11.059   8.306   3.683
58565SOL     OW77591   2.031   5.397   1.932
58565SOL    HW177592   1.958   5.421   1.875
58565SOL    HW277593   2.107   5.443   1.896
58566SOL     OW77594  10.634  14.775   3.117
58566SOL    HW177595  10.559  14.831   3.138
58566SOL    HW277596  10.617  14.745   3.028
58567SOL     OW77597   7.615   5.424   8.767
58567SOL    HW177598   7.628   5.500   8.710
58567SOL    HW277599   7.654   5.351   8.719
58568SOL     OW77600  13.300   4.168  13.655
58568SOL    HW177601  13.365   4.098  13.645
58568SOL    HW277602  13.255   4.147  13.737
58569SOL     OW77603   9.352  11.596   2.664
58569SOL    HW177604   9.300  11.559   2.593
58569SOL    HW277605   9.421  11.531   2.679
58570SOL     OW77606   3.361   5.444  10.191
58570SOL    HW177607   3.333   5.533  10.169
58570SOL    HW277608   3.298   5.414  10.256
58571SOL     OW77609  14.751  13.227  12.469
58571SOL    HW177610  14.763  13.240  12.563
58571SOL    HW277611  14.668  13.270  12.449
58572SOL     OW77612   6.260   3.446   2.065
58572SOL    HW177613   6.323   3.403   2.007
58572SOL    HW277614   6.241   3.381   2.132
58573SOL     OW77615   5.628   8.088   7.597
58573SOL    HW177616   5.535   8.086   7.575
58573SOL    HW277617   5.643   8.177   7.630
58574SOL     OW77618  10.004   6.061   8.390
58574SOL    HW177619   9.917   6.039   8.426
58574SOL    HW277620  10.000   6.155   8.374
58575SOL     OW77621   2.968  11.830   8.929
58575SOL    HW177622   3.026  11.900   8.959
58575SOL    HW277623   3.023  11.776   8.872
58576SOL     OW77624  14.440  14.657   1.889
58576SOL    HW177625  14.466  14.661   1.981
58576SOL    HW277626  14.395  14.740   1.872
58577SOL     OW77627   9.584  11.549   1.295
58577SOL    HW177628   9.627  11.634   1.301
58577SOL    HW277629   9.562  11.527   1.385
58578SOL     OW77630   3.605   4.052   9.605
58578SOL    HW177631   3.643   4.101   9.678
58578SOL    HW277632   3.558   3.980   9.647
58579SOL     OW77633   3.973  14.387   5.752
58579SOL    HW177634   3.888  14.344   5.768
58579SOL    HW277635   4.008  14.402   5.840
58580SOL     OW77636   2.041   2.177   9.375
58580SOL    HW177637   2.021   2.201   9.284
58580SOL    HW277638   2.129   2.212   9.390
58581SOL     OW77639  14.091   2.713   3.227
58581SOL    HW177640  14.141   2.699   3.146
58581SOL    HW277641  14.015   2.764   3.199
58582SOL     OW77642   6.095   1.704   2.954
58582SOL    HW177643   6.133   1.675   3.037
58582SOL    HW277644   6.132   1.646   2.888
58583SOL     OW77645   2.349  13.077   3.307
58583SOL    HW177646   2.351  13.037   3.394
58583SOL    HW277647   2.428  13.044   3.263
58584SOL     OW77648   7.438  13.144   0.573
58584SOL    HW177649   7.343  13.136   0.573
58584SOL    HW277650   7.458  13.197   0.496
58585SOL     OW77651  12.855   8.359   9.237
58585SOL    HW177652  12.931   8.374   9.294
58585SOL    HW277653  12.820   8.446   9.221
58586SOL     OW77654  12.014   9.212   9.951
58586SOL    HW177655  11.931   9.216   9.904
58586SOL    HW277656  12.019   9.123   9.986
58587SOL     OW77657   1.799   7.262   0.660
58587SOL    HW177658   1.801   7.300   0.748
58587SOL    HW277659   1.878   7.208   0.656
58588SOL     OW77660   4.960   1.304  12.227
58588SOL    HW177661   4.955   1.399  12.220
58588SOL    HW277662   5.006   1.288  12.309
58589SOL     OW77663   8.191   4.105  11.174
58589SOL    HW177664   8.121   4.042  11.154
58589SOL    HW277665   8.173   4.133  11.263
58590SOL     OW77666   8.510  12.147   8.340
58590SOL    HW177667   8.524  12.177   8.250
58590SOL    HW277668   8.427  12.187   8.367
58591SOL     OW77669  13.723   2.711  12.688
58591SOL    HW177670  13.665   2.702  12.613
58591SOL    HW277671  13.665   2.729  12.762
58592SOL     OW77672   8.850   0.837  10.971
58592SOL    HW177673   8.842   0.923  11.012
58592SOL    HW277674   8.778   0.786  11.008
58593SOL     OW77675  13.685   9.674   8.280
58593SOL    HW177676  13.617   9.615   8.311
58593SOL    HW277677  13.692   9.657   8.186
58594SOL     OW77678  14.176  12.240   9.217
58594SOL    HW177679  14.168  12.329   9.253
58594SOL    HW277680  14.184  12.253   9.122
58595SOL     OW77681  13.038   2.771   6.227
58595SOL    HW177682  13.082   2.701   6.178
58595SOL    HW277683  13.109   2.825   6.261
58596SOL     OW77684   6.539  12.388   3.510
58596SOL    HW177685   6.524  12.445   3.435
58596SOL    HW277686   6.454  12.346   3.525
58597SOL     OW77687   8.986   0.489   0.632
58597SOL    HW177688   8.921   0.457   0.694
58597SOL    HW277689   9.029   0.561   0.679
58598SOL     OW77690   5.399  13.660  11.395
58598SOL    HW177691   5.397  13.733  11.458
58598SOL    HW277692   5.307  13.647  11.371
58599SOL     OW77693   2.877   3.054   4.271
58599SOL    HW177694   2.926   3.033   4.191
58599SOL    HW277695   2.786   3.043   4.246
58600SOL     OW77696   4.822   4.404   1.520
58600SOL    HW177697   4.876   4.356   1.583
58600SOL    HW277698   4.732   4.394   1.552
58601SOL     OW77699   5.063   0.393   9.188
58601SOL    HW177700   4.990   0.445   9.223
58601SOL    HW277701   5.071   0.320   9.249
58602SOL     OW77702   0.699  10.815  13.586
58602SOL    HW177703   0.608  10.816  13.557
58602SOL    HW277704   0.750  10.829  13.507
58603SOL     OW77705   4.979  13.836   8.046
58603SOL    HW177706   4.892  13.820   8.009
58603SOL    HW277707   5.029  13.876   7.975
58604SOL     OW77708  14.077   3.935  11.521
58604SOL    HW177709  14.094   3.998  11.452
58604SOL    HW277710  13.985   3.948  11.544
58605SOL     OW77711   8.843  14.434  14.668
58605SOL    HW177712   8.846  14.409  14.760
58605SOL    HW277713   8.924  14.399  14.632
58606SOL     OW77714   0.296   0.276   1.237
58606SOL    HW177715   0.315   0.364   1.205
58606SOL    HW277716   0.312   0.219   1.161
58607SOL     OW77717  10.888   7.186   8.519
58607SOL    HW177718  10.922   7.220   8.602
58607SOL    HW277719  10.794   7.207   8.521
58608SOL     OW77720   1.483   5.509   0.828
58608SOL    HW177721   1.391   5.523   0.851
58608SOL    HW277722   1.491   5.543   0.739
58609SOL     OW77723   1.864  12.640   3.295
58609SOL    HW177724   1.879  12.732   3.316
58609SOL    HW277725   1.879  12.634   3.200
58610SOL     OW77726   0.042   0.640  10.745
58610SOL    HW177727  14.872   0.686  10.674
58610SOL    HW277728   0.135   0.644  10.722
58611SOL     OW77729  13.904  12.790  10.890
58611SOL    HW177730  13.971  12.786  10.821
58611SOL    HW277731  13.945  12.838  10.961
58612SOL     OW77732   0.449   4.204   9.911
58612SOL    HW177733   0.485   4.182   9.826
58612SOL    HW277734   0.514   4.261   9.952
58613SOL     OW77735   2.130   3.085   8.905
58613SOL    HW177736   2.080   3.082   8.824
58613SOL    HW277737   2.114   3.172   8.941
58614SOL     OW77738  11.114   4.538   8.884
58614SOL    HW177739  11.189   4.531   8.943
58614SOL    HW277740  11.056   4.466   8.910
58615SOL     OW77741   6.394  10.971   5.811
58615SOL    HW177742   6.438  10.895   5.849
58615SOL    HW277743   6.310  10.976   5.857
58616SOL     OW77744  10.632   5.187   4.352
58616SOL    HW177745  10.610   5.280   4.343
58616SOL    HW277746  10.713   5.178   4.301
58617SOL     OW77747   3.792   3.926  14.356
58617SOL    HW177748   3.716   3.893  14.307
58617SOL    HW277749   3.861   3.933  14.290
58618SOL     OW77750  14.597  14.611   5.380
58618SOL    HW177751  14.538  14.597   5.454
58618SOL    HW277752  14.675  14.561   5.402
58619SOL     OW77753   0.981   2.234   2.091
58619SOL    HW177754   0.970   2.208   2.182
58619SOL    HW277755   1.014   2.154   2.048
58620SOL     OW77756  14.226   1.755   8.159
58620SOL    HW177757  14.174   1.682   8.193
58620SOL    HW277758  14.167   1.830   8.159
58621SOL     OW77759  12.749   7.335   4.864
58621SOL    HW177760  12.691   7.293   4.800
58621SOL    HW277761  12.711   7.312   4.949
58622SOL     OW77762   1.770   6.294   3.556
58622SOL    HW177763   1.790   6.210   3.597
58622SOL    HW277764   1.830   6.356   3.597
58623SOL     OW77765   4.074  14.088   3.322
58623SOL    HW177766   4.016  14.060   3.252
58623SOL    HW277767   4.029  14.061   3.402
58624SOL     OW77768   4.017   5.418   6.030
58624SOL    HW177769   3.979   5.456   5.951
58624SOL    HW277770   4.094   5.472   6.048
58625SOL     OW77771  14.184  12.864  10.349
58625SOL    HW177772  14.218  12.842  10.262
58625SOL    HW277773  14.106  12.916  10.331
58626SOL     OW77774   7.400   1.358  11.765
58626SOL    HW177775   7.487   1.390  11.789
58626SOL    HW277776   7.406   1.263  11.772
58627SOL     OW77777   1.556   5.830   6.172
58627SOL    HW177778   1.543   5.751   6.225
58627SOL    HW277779   1.468   5.855   6.143
58628SOL     OW77780  13.295  10.257   2.209
58628SOL    HW177781  13.287  10.279   2.116
58628SOL    HW277782  13.382  10.288   2.233
58629SOL     OW77783   2.272   3.874   1.494
58629SOL    HW177784   2.294   3.781   1.484
58629SOL    HW277785   2.239   3.881   1.583
58630SOL     OW77786   9.989   7.533   9.721
58630SOL    HW177787   9.949   7.528   9.808
58630SOL    HW277788   9.992   7.442   9.690
58631SOL     OW77789  14.287   1.906   9.582
58631SOL    HW177790  14.198   1.891   9.550
58631SOL    HW277791  14.343   1.870   9.513
58632SOL     OW77792   0.439  12.545  14.696
58632SOL    HW177793   0.411  12.508  14.779
58632SOL    HW277794   0.359  12.585  14.660
58633SOL     OW77795   4.986   7.336  10.613
58633SOL    HW177796   5.056   7.340  10.679
58633SOL    HW277797   5.032   7.340  10.529
58634SOL     OW77798   8.515  12.389  11.839
58634SOL    HW177799   8.461  12.411  11.763
58634SOL    HW277800   8.572  12.319  11.808
58635SOL     OW77801   2.188   3.003  14.264
58635SOL    HW177802   2.151   2.967  14.184
58635SOL    HW277803   2.249   2.937  14.295
58636SOL     OW77804  11.302   3.188  12.993
58636SOL    HW177805  11.373   3.208  13.054
58636SOL    HW277806  11.233   3.251  13.015
58637SOL     OW77807   4.024   4.193   8.818
58637SOL    HW177808   4.060   4.263   8.763
58637SOL    HW277809   4.048   4.112   8.774
58638SOL     OW77810   4.521   5.189   7.065
58638SOL    HW177811   4.603   5.217   7.023
58638SOL    HW277812   4.531   5.095   7.078
58639SOL     OW77813   2.799  13.583   6.101
58639SOL    HW177814   2.745  13.504   6.091
58639SOL    HW277815   2.740  13.649   6.135
58640SOL     OW77816   9.712   2.485   6.810
58640SOL    HW177817   9.668   2.406   6.840
58640SOL    HW277818   9.677   2.501   6.722
58641SOL     OW77819   3.302   0.586   0.686
58641SOL    HW177820   3.319   0.599   0.593
58641SOL    HW277821   3.221   0.634   0.703
58642SOL     OW77822  10.069   6.161  13.220
58642SOL    HW177823  10.122   6.168  13.300
58642SOL    HW277824   9.992   6.110  13.247
58643SOL     OW77825   0.100  13.546  12.098
58643SOL    HW177826   0.132  13.632  12.072
58643SOL    HW277827   0.131  13.487  12.028
58644SOL     OW77828  11.619   7.201  14.489
58644SOL    HW177829  11.681   7.146  14.536
58644SOL    HW277830  11.537   7.151  14.491
58645SOL     OW77831  11.044   5.786   1.192
58645SOL    HW177832  11.001   5.790   1.277
58645SOL    HW277833  11.032   5.696   1.163
58646SOL     OW77834   5.972   5.382   0.357
58646SOL    HW177835   6.026   5.461   0.354
58646SOL    HW277836   5.882   5.415   0.353
58647SOL     OW77837   3.172   9.821   9.863
58647SOL    HW177838   3.174   9.902   9.812
58647SOL    HW277839   3.259   9.784   9.853
58648SOL     OW77840   3.895   4.852   5.802
58648SOL    HW177841   3.973   4.907   5.811
58648SOL    HW277842   3.881   4.816   5.889
58649SOL     OW77843   5.799  12.347   0.861
58649SOL    HW177844   5.877  12.383   0.902
58649SOL    HW277845   5.823  12.335   0.769
58650SOL     OW77846   5.575  10.809  11.308
58650SOL    HW177847   5.552  10.745  11.242
58650SOL    HW277848   5.588  10.758  11.388
58651SOL     OW77849   7.386  11.089  13.399
58651SOL    HW177850   7.342  11.128  13.324
58651SOL    HW277851   7.354  11.138  13.475
58652SOL     OW77852   5.598  13.329  10.940
58652SOL    HW177853   5.590  13.391  11.012
58652SOL    HW277854   5.612  13.384  10.863
58653SOL     OW77855  13.854   2.274  10.584
58653SOL    HW177856  13.911   2.277  10.508
58653SOL    HW277857  13.787   2.210  10.562
58654SOL     OW77858  13.375   9.323  14.707
58654SOL    HW177859  13.288   9.358  14.723
58654SOL    HW277860  13.423   9.396  14.666
58655SOL     OW77861   8.552   3.234  10.021
58655SOL    HW177862   8.627   3.192   9.978
58655SOL    HW277863   8.477   3.208   9.969
58656SOL     OW77864   3.186  14.205  12.192
58656SOL    HW177865   3.238  14.145  12.245
58656SOL    HW277866   3.172  14.158  12.110
58657SOL     OW77867  13.057   2.886   7.370
58657SOL    HW177868  13.148   2.896   7.399
58657SOL    HW277869  13.011   2.958   7.412
58658SOL     OW77870   4.577   2.443   4.041
58658SOL    HW177871   4.505   2.398   3.997
58658SOL    HW277872   4.634   2.474   3.970
58659SOL     OW77873  11.258   2.562   9.704
58659SOL    HW177874  11.198   2.488   9.694
58659SOL    HW277875  11.247   2.590   9.796
58660SOL     OW77876  13.501   8.872   7.314
58660SOL    HW177877  13.465   8.815   7.381
58660SOL    HW277878  13.595   8.877   7.335
58661SOL     OW77879   7.566   0.307  11.052
58661SOL    HW177880   7.495   0.246  11.070
58661SOL    HW277881   7.569   0.364  11.130
58662SOL     OW77882   5.402  11.095   5.737
58662SOL    HW177883   5.385  11.114   5.645
58662SOL    HW277884   5.332  11.035   5.762
58663SOL     OW77885   7.140   2.149   6.503
58663SOL    HW177886   7.101   2.236   6.494
58663SOL    HW277887   7.181   2.150   6.589
58664SOL     OW77888   3.229   8.908   5.786
58664SOL    HW177889   3.249   8.830   5.838
58664SOL    HW277890   3.207   8.975   5.851
58665SOL     OW77891   5.229   4.052  14.549
58665SOL    HW177892   5.178   4.132  14.540
58665SOL    HW277893   5.196   3.994  14.480
58666SOL     OW77894   3.087  14.700   8.316
58666SOL    HW177895   3.150  14.755   8.362
58666SOL    HW277896   3.035  14.659   8.386
58667SOL     OW77897   9.214  14.094   0.982
58667SOL    HW177898   9.206  14.078   0.888
58667SOL    HW277899   9.308  14.111   0.995
58668SOL     OW77900   7.598   1.191   4.128
58668SOL    HW177901   7.665   1.241   4.083
58668SOL    HW277902   7.641   1.107   4.149
58669SOL     OW77903   5.975  13.418   7.202
58669SOL    HW177904   5.911  13.372   7.256
58669SOL    HW277905   5.975  13.508   7.235
58670SOL     OW77906   4.066   4.588   2.252
58670SOL    HW177907   4.059   4.542   2.335
58670SOL    HW277908   4.081   4.680   2.276
58671SOL     OW77909   0.203   2.345  12.223
58671SOL    HW177910   0.110   2.360  12.241
58671SOL    HW277911   0.204   2.298  12.140
58672SOL     OW77912  10.784  13.727  10.067
58672SOL    HW177913  10.880  13.727  10.063
58672SOL    HW277914  10.762  13.645  10.112
58673SOL     OW77915  12.207   1.457   1.918
58673SOL    HW177916  12.245   1.525   1.863
58673SOL    HW277917  12.264   1.453   1.995
58674SOL     OW77918   5.015  14.349  10.184
58674SOL    HW177919   4.973  14.424  10.224
58674SOL    HW277920   4.956  14.321  10.114
58675SOL     OW77921   5.534   1.789   5.565
58675SOL    HW177922   5.480   1.866   5.551
58675SOL    HW277923   5.575   1.772   5.480
58676SOL     OW77924  11.953  10.816  12.925
58676SOL    HW177925  11.958  10.897  12.875
58676SOL    HW277926  11.946  10.844  13.016
58677SOL     OW77927   3.036  13.673   6.525
58677SOL    HW177928   3.054  13.688   6.618
58677SOL    HW277929   2.944  13.700   6.514
58678SOL     OW77930   1.771   7.471  13.938
58678SOL    HW177931   1.784   7.376  13.935
58678SOL    HW277932   1.707   7.489  13.869
58679SOL     OW77933  13.511   5.569  14.578
58679SOL    HW177934  13.518   5.528  14.665
58679SOL    HW277935  13.577   5.525  14.525
58680SOL     OW77936  10.592   8.370   1.365
58680SOL    HW177937  10.584   8.274   1.370
58680SOL    HW277938  10.508   8.399   1.331
58681SOL     OW77939   2.074  11.171  13.355
58681SOL    HW177940   2.120  11.236  13.408
58681SOL    HW277941   2.130  11.160  13.278
58682SOL     OW77942  10.968   3.459  13.283
58682SOL    HW177943  11.052   3.472  13.327
58682SOL    HW277944  10.910   3.426  13.352
58683SOL     OW77945   7.889  12.101   3.893
58683SOL    HW177946   7.799  12.134   3.896
58683SOL    HW277947   7.930  12.150   3.822
58684SOL     OW77948   0.223   4.121   2.705
58684SOL    HW177949   0.188   4.203   2.670
58684SOL    HW277950   0.253   4.142   2.793
58685SOL     OW77951   3.370  11.309   7.948
58685SOL    HW177952   3.306  11.381   7.954
58685SOL    HW277953   3.317  11.230   7.947
58686SOL     OW77954   3.601   2.292   3.794
58686SOL    HW177955   3.613   2.372   3.845
58686SOL    HW277956   3.523   2.309   3.740
58687SOL     OW77957   5.927   2.554  11.026
58687SOL    HW177958   5.976   2.474  11.045
58687SOL    HW277959   5.994   2.623  11.026
58688SOL     OW77960   7.850   8.941   0.048
58688SOL    HW177961   7.785   8.947   0.118
58688SOL    HW277962   7.883   9.030   0.038
58689SOL     OW77963   3.458  11.966   6.836
58689SOL    HW177964   3.549  11.945   6.816
58689SOL    HW277965   3.427  11.894   6.891
58690SOL     OW77966  10.420   2.008  11.509
58690SOL    HW177967  10.448   2.023  11.599
58690SOL    HW277968  10.397   1.915  11.505
58691SOL     OW77969   7.201  14.539  10.574
58691SOL    HW177970   7.163  14.614  10.527
58691SOL    HW277971   7.133  14.472  10.570
58692SOL     OW77972  10.576  11.969   9.180
58692SOL    HW177973  10.669  11.987   9.195
58692SOL    HW277974  10.536  11.973   9.267
58693SOL     OW77975  12.129  12.240   3.821
58693SOL    HW177976  12.224  12.233   3.828
58693SOL    HW277977  12.109  12.329   3.850
58694SOL     OW77978  12.320   8.248   6.612
58694SOL    HW177979  12.351   8.158   6.618
58694SOL    HW277980  12.236   8.248   6.657
58695SOL     OW77981  13.146   1.424   0.308
58695SOL    HW177982  13.067   1.476   0.326
58695SOL    HW277983  13.133   1.390   0.220
58696SOL     OW77984  13.527   8.638  11.636
58696SOL    HW177985  13.497   8.696  11.566
58696SOL    HW277986  13.553   8.696  11.707
58697SOL     OW77987  13.859   5.561   3.187
58697SOL    HW177988  13.949   5.580   3.214
58697SOL    HW277989  13.806   5.581   3.264
58698SOL     OW77990  12.794   6.189   7.333
58698SOL    HW177991  12.734   6.256   7.366
58698SOL    HW277992  12.809   6.131   7.409
58699SOL     OW77993   2.558   7.842   6.162
58699SOL    HW177994   2.476   7.804   6.196
58699SOL    HW277995   2.624   7.815   6.226
58700SOL     OW77996   8.970  10.005  10.085
58700SOL    HW177997   9.004   9.970  10.003
58700SOL    HW277998   8.992   9.939  10.151
58701SOL     OW77999  14.168   8.163  10.944
58701SOL    HW178000  14.137   8.177  10.854
58701SOL    HW278001  14.091   8.129  10.990
58702SOL     OW78002  13.737   8.512   3.202
58702SOL    HW178003  13.757   8.424   3.172
58702SOL    HW278004  13.714   8.560   3.122
58703SOL     OW78005   8.247   5.615   9.628
58703SOL    HW178006   8.326   5.633   9.679
58703SOL    HW278007   8.199   5.698   9.627
58704SOL     OW78008   9.472   9.898   0.053
58704SOL    HW178009   9.430   9.958   0.115
58704SOL    HW278010   9.400   9.867  14.873
58705SOL     OW78011   1.650  10.786  11.563
58705SOL    HW178012   1.604  10.836  11.630
58705SOL    HW278013   1.585  10.770  11.496
58706SOL     OW78014  14.455  12.793   1.318
58706SOL    HW178015  14.403  12.713   1.310
58706SOL    HW278016  14.532  12.778   1.263
58707SOL     OW78017   2.732  11.917   2.773
58707SOL    HW178018   2.761  11.826   2.779
58707SOL    HW278019   2.812  11.968   2.789
58708SOL     OW78020   0.506   0.738   4.490
58708SOL    HW178021   0.495   0.787   4.571
58708SOL    HW278022   0.447   0.781   4.428
58709SOL     OW78023   6.588   6.411   2.229
58709SOL    HW178024   6.598   6.321   2.259
58709SOL    HW278025   6.524   6.450   2.289
58710SOL     OW78026  10.240   6.352  13.913
58710SOL    HW178027  10.301   6.386  13.978
58710SOL    HW278028  10.166   6.320  13.964
58711SOL     OW78029   7.088   1.877   8.785
58711SOL    HW178030   7.080   1.849   8.693
58711SOL    HW278031   7.149   1.814   8.824
58712SOL     OW78032   9.068   1.277  13.203
58712SOL    HW178033   9.157   1.311  13.200
58712SOL    HW278034   9.057   1.245  13.292
58713SOL     OW78035   0.756   5.546  14.407
58713SOL    HW178036   0.768   5.637  14.435
58713SOL    HW278037   0.698   5.551  14.331
58714SOL     OW78038   0.317  12.711  12.216
58714SOL    HW178039   0.315  12.706  12.120
58714SOL    HW278040   0.228  12.739  12.240
58715SOL     OW78041  11.768   9.353   1.778
58715SOL    HW178042  11.812   9.385   1.699
58715SOL    HW278043  11.729   9.270   1.751
58716SOL     OW78044   4.777   4.866  14.786
58716SOL    HW178045   4.744   4.897  14.871
58716SOL    HW278046   4.810   4.778  14.805
58717SOL     OW78047   5.812   0.383  14.752
58717SOL    HW178048   5.718   0.368  14.765
58717SOL    HW278049   5.851   0.296  14.757
58718SOL     OW78050   0.758  11.236  13.401
58718SOL    HW178051   0.826  11.291  13.363
58718SOL    HW278052   0.805  11.179  13.462
58719SOL     OW78053   7.949   5.757   8.723
58719SOL    HW178054   8.038   5.726   8.736
58719SOL    HW278055   7.896   5.677   8.723
58720SOL     OW78056   1.121   0.943  12.974
58720SOL    HW178057   1.106   0.909  13.062
58720SOL    HW278058   1.035   0.973  12.944
58721SOL     OW78059   2.220   7.699  12.701
58721SOL    HW178060   2.147   7.645  12.731
58721SOL    HW278061   2.211   7.702  12.606
58722SOL     OW78062   3.825   4.769   6.388
58722SOL    HW178063   3.901   4.812   6.347
58722SOL    HW278064   3.807   4.822   6.465
58723SOL     OW78065   8.496   8.423   1.465
58723SOL    HW178066   8.587   8.395   1.473
58723SOL    HW278067   8.500   8.506   1.419
58724SOL     OW78068  11.614   3.586  14.316
58724SOL    HW178069  11.591   3.507  14.267
58724SOL    HW278070  11.709   3.595  14.304
58725SOL     OW78071   6.311   2.042   9.207
58725SOL    HW178072   6.366   2.068   9.133
58725SOL    HW278073   6.274   1.957   9.181
58726SOL     OW78074   5.649   9.387   8.094
58726SOL    HW178075   5.557   9.363   8.099
58726SOL    HW278076   5.695   9.316   8.140
58727SOL     OW78077  10.496   6.943  13.072
58727SOL    HW178078  10.497   6.903  12.985
58727SOL    HW278079  10.516   6.871  13.132
58728SOL     OW78080  10.275   2.566   7.776
58728SOL    HW178081  10.259   2.480   7.814
58728SOL    HW278082  10.369   2.570   7.762
58729SOL     OW78083  11.149  14.597   0.673
58729SOL    HW178084  11.119  14.608   0.764
58729SOL    HW278085  11.238  14.634   0.673
58730SOL     OW78086   5.899   2.259   8.689
58730SOL    HW178087   5.928   2.252   8.598
58730SOL    HW278088   5.897   2.168   8.720
58731SOL     OW78089  10.166   3.183   2.894
58731SOL    HW178090  10.140   3.260   2.945
58731SOL    HW278091  10.094   3.168   2.833
58732SOL     OW78092   4.208   7.098   9.363
58732SOL    HW178093   4.189   7.189   9.342
58732SOL    HW278094   4.144   7.075   9.430
58733SOL     OW78095  10.681   7.380  10.702
58733SOL    HW178096  10.682   7.290  10.668
58733SOL    HW278097  10.591   7.410  10.685
58734SOL     OW78098   6.786   5.541   1.123
58734SOL    HW178099   6.732   5.466   1.098
58734SOL    HW278100   6.770   5.553   1.216
58735SOL     OW78101   5.813   0.837   2.418
58735SOL    HW178102   5.738   0.790   2.452
58735SOL    HW278103   5.819   0.915   2.473
58736SOL     OW78104  12.469  10.772  13.841
58736SOL    HW178105  12.440  10.727  13.920
58736SOL    HW278106  12.424  10.728  13.769
58737SOL     OW78107   5.614  12.435   3.348
58737SOL    HW178108   5.614  12.509   3.287
58737SOL    HW278109   5.601  12.475   3.434
58738SOL     OW78110   2.453   9.618  14.148
58738SOL    HW178111   2.438   9.687  14.213
58738SOL    HW278112   2.386   9.634  14.081
58739SOL     OW78113  11.265  14.408  10.937
58739SOL    HW178114  11.233  14.443  11.020
58739SOL    HW278115  11.358  14.430  10.936
58740SOL     OW78116  11.359  12.168   7.404
58740SOL    HW178117  11.272  12.131   7.418
58740SOL    HW278118  11.383  12.208   7.488
58741SOL     OW78119   8.591  13.395   4.461
58741SOL    HW178120   8.563  13.470   4.409
58741SOL    HW278121   8.653  13.431   4.524
58742SOL     OW78122   4.314   2.135   8.235
58742SOL    HW178123   4.378   2.199   8.263
58742SOL    HW278124   4.362   2.052   8.232
58743SOL     OW78125   6.045   7.504  14.125
58743SOL    HW178126   6.077   7.529  14.211
58743SOL    HW278127   6.099   7.554  14.064
58744SOL     OW78128   9.855   7.531   1.906
58744SOL    HW178129   9.776   7.554   1.857
58744SOL    HW278130   9.830   7.455   1.959
58745SOL     OW78131   3.943  13.134   1.243
58745SOL    HW178132   3.980  13.057   1.199
58745SOL    HW278133   3.849  13.126   1.229
58746SOL     OW78134   8.042   5.075   9.106
58746SOL    HW178135   7.992   5.116   9.035
58746SOL    HW278136   8.131   5.110   9.095
58747SOL     OW78137   6.236  10.529   3.370
58747SOL    HW178138   6.299  10.508   3.439
58747SOL    HW278139   6.289  10.534   3.290
58748SOL     OW78140   0.152   4.517  11.716
58748SOL    HW178141   0.177   4.428  11.738
58748SOL    HW278142   0.219   4.546  11.653
58749SOL     OW78143   1.589   1.251   6.957
58749SOL    HW178144   1.627   1.220   7.039
58749SOL    HW278145   1.501   1.282   6.980
58750SOL     OW78146   2.891   2.123   5.302
58750SOL    HW178147   2.947   2.123   5.224
58750SOL    HW278148   2.905   2.208   5.342
58751SOL     OW78149  12.244   7.225   8.718
58751SOL    HW178150  12.190   7.271   8.783
58751SOL    HW278151  12.252   7.136   8.752
58752SOL     OW78152   9.222  13.509  11.285
58752SOL    HW178153   9.310  13.473  11.277
58752SOL    HW278154   9.185  13.465  11.362
58753SOL     OW78155   6.987   1.362   1.310
58753SOL    HW178156   6.929   1.336   1.238
58753SOL    HW278157   7.075   1.339   1.280
58754SOL     OW78158  13.871  11.979  11.288
58754SOL    HW178159  13.783  12.007  11.316
58754SOL    HW278160  13.914  11.953  11.370
58755SOL     OW78161   5.047  13.074  13.104
58755SOL    HW178162   5.105  13.109  13.036
58755SOL    HW278163   5.016  12.991  13.068
58756SOL     OW78164  14.127   4.980  13.076
58756SOL    HW178165  14.203   5.039  13.078
58756SOL    HW278166  14.151   4.908  13.135
58757SOL     OW78167   1.838   1.497   5.221
58757SOL    HW178168   1.839   1.414   5.269
58757SOL    HW278169   1.816   1.562   5.287
58758SOL     OW78170   7.475   2.899   7.077
58758SOL    HW178171   7.438   2.834   7.017
58758SOL    HW278172   7.455   2.866   7.164
58759SOL     OW78173   9.902   1.157  11.773
58759SOL    HW178174   9.971   1.169  11.708
58759SOL    HW278175   9.827   1.125  11.723
58760SOL     OW78176   2.403   5.941   0.884
58760SOL    HW178177   2.348   5.895   0.947
58760SOL    HW278178   2.459   5.873   0.847
58761SOL     OW78179   9.938   8.416   1.763
58761SOL    HW178180   9.896   8.340   1.804
58761SOL    HW278181   9.943   8.481   1.833
58762SOL     OW78182   8.575  10.511   6.709
58762SOL    HW178183   8.583  10.555   6.794
58762SOL    HW278184   8.559  10.419   6.730
58763SOL     OW78185   0.466  10.920  14.369
58763SOL    HW178186   0.427  10.853  14.313
58763SOL    HW278187   0.430  11.003  14.337
58764SOL     OW78188   1.831   7.609   4.195
58764SOL    HW178189   1.857   7.557   4.119
58764SOL    HW278190   1.880   7.690   4.186
58765SOL     OW78191   4.981  13.111   7.554
58765SOL    HW178192   4.889  13.131   7.534
58765SOL    HW278193   4.976  13.041   7.618
58766SOL     OW78194  10.422   2.243   4.389
58766SOL    HW178195  10.380   2.221   4.472
58766SOL    HW278196  10.398   2.335   4.373
58767SOL     OW78197  11.450  10.244  13.198
58767SOL    HW178198  11.432  10.297  13.120
58767SOL    HW278199  11.438  10.154  13.168
58768SOL     OW78200   9.308   5.132   9.325
58768SOL    HW178201   9.316   5.096   9.237
58768SOL    HW278202   9.214   5.147   9.336
58769SOL     OW78203   2.060   2.826   9.661
58769SOL    HW178204   2.136   2.768   9.669
58769SOL    HW278205   1.995   2.788   9.719
58770SOL     OW78206   6.575   1.791  13.556
58770SOL    HW178207   6.636   1.830  13.494
58770SOL    HW278208   6.539   1.864  13.605
58771SOL     OW78209   6.622  10.452   3.388
58771SOL    HW178210   6.551  10.392   3.366
58771SOL    HW278211   6.587  10.539   3.368
58772SOL     OW78212   2.063   6.725   0.589
58772SOL    HW178213   1.985   6.781   0.595
58772SOL    HW278214   2.105   6.751   0.507
58773SOL     OW78215   1.254  10.176   4.321
58773SOL    HW178216   1.208  10.251   4.360
58773SOL    HW278217   1.200  10.100   4.342
58774SOL     OW78218   3.771   1.987   6.650
58774SOL    HW178219   3.798   1.904   6.612
58774SOL    HW278220   3.829   2.052   6.610
58775SOL     OW78221   3.669   0.630   3.697
58775SOL    HW178222   3.702   0.699   3.639
58775SOL    HW278223   3.649   0.675   3.779
58776SOL     OW78224  12.949  10.668   2.309
58776SOL    HW178225  12.955  10.730   2.237
58776SOL    HW278226  12.857  10.671   2.336
58777SOL     OW78227   1.926  14.116   6.691
58777SOL    HW178228   1.842  14.073   6.677
58777SOL    HW278229   1.944  14.162   6.609
58778SOL     OW78230   2.153   1.237  12.488
58778SOL    HW178231   2.149   1.252  12.582
58778SOL    HW278232   2.171   1.323  12.450
58779SOL     OW78233   7.079   4.664   4.077
58779SOL    HW178234   6.989   4.696   4.073
58779SOL    HW278235   7.111   4.669   3.987
58780SOL     OW78236   4.135   6.349  10.301
58780SOL    HW178237   4.177   6.322  10.219
58780SOL    HW278238   4.161   6.282  10.364
58781SOL     OW78239  10.122  14.714   0.733
58781SOL    HW178240  10.111  14.809   0.726
58781SOL    HW278241  10.206  14.697   0.691
58782SOL     OW78242   3.626   5.925   4.364
58782SOL    HW178243   3.708   5.921   4.412
58782SOL    HW278244   3.652   5.940   4.273
58783SOL     OW78245  11.404   9.862   9.338
58783SOL    HW178246  11.454   9.913   9.401
58783SOL    HW278247  11.469   9.831   9.275
58784SOL     OW78248   8.930   4.293   3.386
58784SOL    HW178249   9.006   4.277   3.442
58784SOL    HW278250   8.879   4.360   3.431
58785SOL     OW78251   3.888  14.588  10.174
58785SOL    HW178252   3.876  14.653  10.104
58785SOL    HW278253   3.817  14.526  10.162
58786SOL     OW78254   4.133   8.100   1.088
58786SOL    HW178255   4.043   8.099   1.055
58786SOL    HW278256   4.124   8.095   1.183
58787SOL     OW78257   0.333  10.155  11.652
58787SOL    HW178258   0.292  10.093  11.712
58787SOL    HW278259   0.273  10.230  11.650
58788SOL     OW78260  14.606  14.620   6.546
58788SOL    HW178261  14.599  14.557   6.618
58788SOL    HW278262  14.531  14.601   6.490
58789SOL     OW78263  11.870   7.345   5.108
58789SOL    HW178264  11.843   7.256   5.127
58789SOL    HW278265  11.964   7.346   5.128
58790SOL     OW78266  11.675   4.232  12.676
58790SOL    HW178267  11.769   4.215  12.689
58790SOL    HW278268  11.649   4.170  12.608
58791SOL     OW78269  10.975   3.495   5.608
58791SOL    HW178270  10.915   3.456   5.544
58791SOL    HW278271  11.061   3.487   5.567
58792SOL     OW78272   5.787  13.151  11.933
58792SOL    HW178273   5.736  13.070  11.940
58792SOL    HW278274   5.737  13.215  11.985
58793SOL     OW78275   9.677   7.969  11.190
58793SOL    HW178276   9.733   7.964  11.268
58793SOL    HW278277   9.671   8.062  11.170
58794SOL     OW78278  10.067  13.122   2.226
58794SOL    HW178279  10.094  13.122   2.133
58794SOL    HW278280  10.002  13.052   2.232
58795SOL     OW78281  10.889   6.162  10.968
58795SOL    HW178282  10.842   6.190  11.046
58795SOL    HW278283  10.820   6.147  10.903
58796SOL     OW78284  10.929   8.761   7.591
58796SOL    HW178285  10.834   8.755   7.601
58796SOL    HW278286  10.959   8.670   7.589
58797SOL     OW78287  10.565   4.652  13.980
58797SOL    HW178288  10.656   4.642  13.951
58797SOL    HW278289  10.532   4.726  13.930
58798SOL     OW78290   9.961   0.195  11.001
58798SOL    HW178291   9.971   0.273  11.056
58798SOL    HW278292  10.020   0.210  10.927
58799SOL     OW78293   7.216   5.333   7.335
58799SOL    HW178294   7.172   5.416   7.318
58799SOL    HW278295   7.206   5.320   7.430
58800SOL     OW78296   0.096  12.133   7.739
58800SOL    HW178297   0.079  12.224   7.763
58800SOL    HW278298   0.141  12.096   7.815
58801SOL     OW78299   4.984   5.837   3.641
58801SOL    HW178300   4.966   5.885   3.722
58801SOL    HW278301   5.065   5.790   3.660
58802SOL     OW78302   4.275   4.442   1.307
58802SOL    HW178303   4.227   4.517   1.270
58802SOL    HW278304   4.330   4.481   1.375
58803SOL     OW78305   2.626  14.182   5.472
58803SOL    HW178306   2.648  14.105   5.524
58803SOL    HW278307   2.533  14.197   5.488
58804SOL     OW78308   8.910   6.389  14.460
58804SOL    HW178309   8.896   6.415  14.551
58804SOL    HW278310   8.992   6.340  14.462
58805SOL     OW78311  14.658   5.950   1.269
58805SOL    HW178312  14.593   5.885   1.241
58805SOL    HW278313  14.606   6.023   1.302
58806SOL     OW78314   1.736  13.133   0.086
58806SOL    HW178315   1.718  13.077   0.162
58806SOL    HW278316   1.732  13.222   0.120
58807SOL     OW78317  11.365   6.195  12.276
58807SOL    HW178318  11.447   6.199  12.227
58807SOL    HW278319  11.298   6.219  12.211
58808SOL     OW78320  10.808  13.351  12.066
58808SOL    HW178321  10.834  13.401  12.144
58808SOL    HW278322  10.874  13.373  12.000
58809SOL     OW78323  14.457   1.090   1.321
58809SOL    HW178324  14.535   1.144   1.333
58809SOL    HW278325  14.449   1.041   1.403
58810SOL     OW78326  11.480   2.979   7.826
58810SOL    HW178327  11.546   2.946   7.886
58810SOL    HW278328  11.457   2.904   7.771
58811SOL     OW78329   8.906   1.454  11.016
58811SOL    HW178330   8.879   1.545  11.012
58811SOL    HW278331   8.993   1.452  10.976
58812SOL     OW78332   6.335   9.636  13.747
58812SOL    HW178333   6.420   9.652  13.705
58812SOL    HW278334   6.313   9.546  13.722
58813SOL     OW78335   5.577   3.675   3.289
58813SOL    HW178336   5.581   3.692   3.195
58813SOL    HW278337   5.658   3.710   3.324
58814SOL     OW78338   0.180   2.816  14.264
58814SOL    HW178339   0.129   2.735  14.262
58814SOL    HW278340   0.212   2.823  14.354
58815SOL     OW78341   7.080  11.737  14.528
58815SOL    HW178342   7.102  11.804  14.594
58815SOL    HW278343   7.031  11.785  14.461
58816SOL     OW78344  10.934  11.918   8.957
58816SOL    HW178345  10.938  11.932   9.051
58816SOL    HW278346  10.867  11.978   8.926
58817SOL     OW78347   0.244   5.664  14.365
58817SOL    HW178348   0.322   5.685  14.416
58817SOL    HW278349   0.266   5.689  14.276
58818SOL     OW78350   4.545   6.196   1.475
58818SOL    HW178351   4.525   6.122   1.418
58818SOL    HW278352   4.472   6.257   1.462
58819SOL     OW78353   6.112   8.554  11.606
58819SOL    HW178354   6.064   8.618  11.659
58819SOL    HW278355   6.164   8.505  11.670
58820SOL     OW78356  13.402   4.815   2.792
58820SOL    HW178357  13.350   4.801   2.871
58820SOL    HW278358  13.492   4.815   2.823
58821SOL     OW78359   0.934   5.824   5.127
58821SOL    HW178360   0.895   5.741   5.156
58821SOL    HW278361   0.916   5.885   5.199
58822SOL     OW78362  14.497   6.611   6.969
58822SOL    HW178363  14.476   6.551   6.897
58822SOL    HW278364  14.455   6.570   7.045
58823SOL     OW78365  14.300   7.200   3.786
58823SOL    HW178366  14.267   7.203   3.696
58823SOL    HW278367  14.338   7.113   3.795
58824SOL     OW78368  13.052   4.389  10.416
58824SOL    HW178369  13.060   4.355  10.327
58824SOL    HW278370  12.959   4.411  10.424
58825SOL     OW78371  12.509   0.703   1.579
58825SOL    HW178372  12.521   0.772   1.514
58825SOL    HW278373  12.415   0.684   1.577
58826SOL     OW78374   0.563  10.143   3.694
58826SOL    HW178375   0.527  10.190   3.619
58826SOL    HW278376   0.642  10.101   3.660
58827SOL     OW78377   7.226   7.149  13.513
58827SOL    HW178378   7.178   7.232  13.505
58827SOL    HW278379   7.185   7.092  13.449
58828SOL     OW78380   5.102   1.438   0.093
58828SOL    HW178381   5.037   1.419   0.160
58828SOL    HW278382   5.050   1.464   0.017
58829SOL     OW78383   6.842  13.592  11.229
58829SOL    HW178384   6.929  13.624  11.251
58829SOL    HW278385   6.857  13.514  11.176
58830SOL     OW78386  10.738   5.956   0.103
58830SOL    HW178387  10.816   5.900   0.108
58830SOL    HW278388  10.741   6.008   0.183
58831SOL     OW78389   1.720   4.499  12.508
58831SOL    HW178390   1.798   4.503  12.452
58831SOL    HW278391   1.752   4.464  12.591
58832SOL     OW78392   2.851  11.007  12.434
58832SOL    HW178393   2.770  11.037  12.475
58832SOL    HW278394   2.842  10.912  12.429
58833SOL     OW78395  12.179   4.422   2.566
58833SOL    HW178396  12.243   4.403   2.498
58833SOL    HW278397  12.194   4.355   2.633
58834SOL     OW78398   5.830   9.380   9.902
58834SOL    HW178399   5.747   9.338   9.925
58834SOL    HW278400   5.812   9.427   9.821
58835SOL     OW78401   7.760   7.033  10.795
58835SOL    HW178402   7.844   7.076  10.778
58835SOL    HW278403   7.721   7.084  10.866
58836SOL     OW78404  12.256  10.566  10.928
58836SOL    HW178405  12.271  10.472  10.920
58836SOL    HW278406  12.161  10.576  10.924
58837SOL     OW78407   4.579   5.539  13.996
58837SOL    HW178408   4.560   5.446  13.986
58837SOL    HW278409   4.635   5.560  13.922
58838SOL     OW78410  14.465   1.052  12.264
58838SOL    HW178411  14.456   0.959  12.280
58838SOL    HW278412  14.542   1.060  12.208
58839SOL     OW78413  13.928   3.610   6.349
58839SOL    HW178414  13.938   3.705   6.356
58839SOL    HW278415  14.010   3.579   6.312
58840SOL     OW78416   9.627   9.088   5.201
58840SOL    HW178417   9.554   9.066   5.143
58840SOL    HW278418   9.692   9.129   5.144
58841SOL     OW78419   5.475  14.748   2.752
58841SOL    HW178420   5.514  14.696   2.682
58841SOL    HW278421   5.474  14.690   2.828
58842SOL     OW78422  14.392   9.638   3.760
58842SOL    HW178423  14.316   9.619   3.815
58842SOL    HW278424  14.467   9.620   3.817
58843SOL     OW78425   7.573   1.843  10.631
58843SOL    HW178426   7.550   1.880  10.546
58843SOL    HW278427   7.493   1.799  10.661
58844SOL     OW78428   0.074  10.831   7.574
58844SOL    HW178429   0.053  10.904   7.516
58844SOL    HW278430   0.169  10.822   7.566
58845SOL     OW78431   4.322   2.138  11.847
58845SOL    HW178432   4.240   2.092  11.863
58845SOL    HW278433   4.302   2.202  11.780
58846SOL     OW78434  11.376  12.210   8.871
58846SOL    HW178435  11.317  12.137   8.890
58846SOL    HW278436  11.432  12.215   8.949
58847SOL     OW78437   6.866  13.029   1.977
58847SOL    HW178438   6.943  13.056   1.928
58847SOL    HW278439   6.901  12.974   2.047
58848SOL     OW78440   5.017   0.547   7.285
58848SOL    HW178441   4.984   0.635   7.302
58848SOL    HW278442   4.938   0.493   7.278
58849SOL     OW78443  11.361  11.153   1.289
58849SOL    HW178444  11.300  11.085   1.314
58849SOL    HW278445  11.427  11.154   1.358
58850SOL     OW78446  10.766  11.597   2.133
58850SOL    HW178447  10.703  11.650   2.085
58850SOL    HW278448  10.753  11.508   2.099
58851SOL     OW78449   1.645   0.178   8.599
58851SOL    HW178450   1.650   0.253   8.539
58851SOL    HW278451   1.711   0.196   8.665
58852SOL     OW78452   7.510   3.511   3.477
58852SOL    HW178453   7.596   3.551   3.464
58852SOL    HW278454   7.529   3.422   3.506
58853SOL     OW78455  12.822  13.908   9.057
58853SOL    HW178456  12.811  14.002   9.075
58853SOL    HW278457  12.854  13.872   9.139
58854SOL     OW78458   1.426   3.563   6.401
58854SOL    HW178459   1.366   3.611   6.343
58854SOL    HW278460   1.430   3.617   6.481
58855SOL     OW78461   7.953  10.813   7.959
58855SOL    HW178462   7.860  10.816   7.937
58855SOL    HW278463   7.966  10.725   7.996
58856SOL     OW78464   9.658  11.196  13.721
58856SOL    HW178465   9.644  11.153  13.806
58856SOL    HW278466   9.736  11.153  13.685
58857SOL     OW78467   3.980   1.195   3.786
58857SOL    HW178468   3.978   1.148   3.870
58857SOL    HW278469   4.059   1.163   3.742
58858SOL     OW78470   3.200   4.779  12.353
58858SOL    HW178471   3.229   4.865  12.323
58858SOL    HW278472   3.115   4.795  12.393
58859SOL     OW78473   5.925  13.877  11.419
58859SOL    HW178474   6.000  13.918  11.377
58859SOL    HW278475   5.925  13.787  11.386
58860SOL     OW78476   1.448   1.107   5.268
58860SOL    HW178477   1.449   1.016   5.298
58860SOL    HW278478   1.425   1.101   5.176
58861SOL     OW78479   5.336   4.211   0.553
58861SOL    HW178480   5.402   4.165   0.605
58861SOL    HW278481   5.291   4.268   0.616
58862SOL     OW78482   9.323  13.019   6.743
58862SOL    HW178483   9.331  12.989   6.834
58862SOL    HW278484   9.407  13.061   6.724
58863SOL     OW78485   0.994  14.715   2.926
58863SOL    HW178486   1.080  14.723   2.966
58863SOL    HW278487   0.982  14.797   2.879
58864SOL     OW78488   0.598  13.478   3.670
58864SOL    HW178489   0.511  13.516   3.654
58864SOL    HW278490   0.592  13.442   3.758
58865SOL     OW78491   3.227   2.706   9.777
58865SOL    HW178492   3.202   2.746   9.860
58865SOL    HW278493   3.200   2.769   9.711
58866SOL     OW78494  14.386   5.729   3.635
58866SOL    HW178495  14.365   5.816   3.667
58866SOL    HW278496  14.322   5.671   3.677
58867SOL     OW78497   5.282   2.867  11.889
58867SOL    HW178498   5.376   2.854  11.899
58867SOL    HW278499   5.243   2.783  11.914
58868SOL     OW78500   9.160  10.169   9.754
58868SOL    HW178501   9.180  10.077   9.775
58868SOL    HW278502   9.192  10.218   9.830
58869SOL     OW78503   2.143  14.285  13.670
58869SOL    HW178504   2.107  14.297  13.758
58869SOL    HW278505   2.127  14.369  13.626
58870SOL     OW78506   5.560  10.295   0.637
58870SOL    HW178507   5.541  10.350   0.561
58870SOL    HW278508   5.631  10.341   0.683
58871SOL     OW78509   2.429   9.659   8.464
58871SOL    HW178510   2.524   9.662   8.450
58871SOL    HW278511   2.396   9.606   8.392
58872SOL     OW78512   8.974   4.369  11.367
58872SOL    HW178513   8.929   4.421  11.433
58872SOL    HW278514   9.006   4.433  11.303
58873SOL     OW78515   3.780   0.127   6.816
58873SOL    HW178516   3.863   0.155   6.854
58873SOL    HW278517   3.746   0.205   6.772
58874SOL     OW78518   7.865  12.130  11.853
58874SOL    HW178519   7.938  12.124  11.914
58874SOL    HW278520   7.840  12.222  11.853
58875SOL     OW78521   8.355   7.868   3.780
58875SOL    HW178522   8.287   7.935   3.770
58875SOL    HW278523   8.353   7.845   3.872
58876SOL     OW78524  10.726   7.889   6.740
58876SOL    HW178525  10.639   7.930   6.736
58876SOL    HW278526  10.783   7.958   6.774
58877SOL     OW78527   3.938  12.910   5.458
58877SOL    HW178528   3.945  12.873   5.546
58877SOL    HW278529   4.029  12.921   5.429
58878SOL     OW78530  14.711   0.678   8.151
58878SOL    HW178531  14.783   0.616   8.158
58878SOL    HW278532  14.671   0.679   8.238
58879SOL     OW78533   9.553   5.404   0.186
58879SOL    HW178534   9.460   5.423   0.171
58879SOL    HW278535   9.585   5.370   0.102
58880SOL     OW78536   7.215   8.760  12.649
58880SOL    HW178537   7.237   8.853  12.637
58880SOL    HW278538   7.280   8.728  12.712
58881SOL     OW78539   7.299  10.751   0.935
58881SOL    HW178540   7.228  10.778   0.993
58881SOL    HW278541   7.364  10.821   0.941
58882SOL     OW78542  11.085   2.480  12.233
58882SOL    HW178543  11.075   2.552  12.296
58882SOL    HW278544  11.175   2.448  12.248
58883SOL     OW78545  11.934  14.024   5.792
58883SOL    HW178546  11.959  13.954   5.852
58883SOL    HW278547  11.920  14.100   5.849
58884SOL     OW78548   4.487   3.330  10.755
58884SOL    HW178549   4.477   3.345  10.661
58884SOL    HW278550   4.438   3.250  10.772
58885SOL     OW78551  14.690   0.970  10.343
58885SOL    HW178552  14.624   0.934  10.285
58885SOL    HW278553  14.744   1.025  10.287
58886SOL     OW78554  10.825  12.628   4.743
58886SOL    HW178555  10.891  12.569   4.778
58886SOL    HW278556  10.748  12.615   4.798
58887SOL     OW78557   7.315   9.452  12.113
58887SOL    HW178558   7.279   9.427  12.027
58887SOL    HW278559   7.376   9.522  12.093
58888SOL     OW78560   3.464   6.224  14.444
58888SOL    HW178561   3.551   6.264  14.450
58888SOL    HW278562   3.421   6.249  14.526
58889SOL     OW78563   6.281   4.150   6.656
58889SOL    HW178564   6.364   4.123   6.617
58889SOL    HW278565   6.240   4.068   6.686
58890SOL     OW78566   0.969   6.948   9.863
58890SOL    HW178567   0.916   6.992   9.929
58890SOL    HW278568   0.953   6.855   9.876
58891SOL     OW78569   5.968  13.497   2.013
58891SOL    HW178570   5.975  13.573   1.955
58891SOL    HW278571   6.032  13.435   1.978
58892SOL     OW78572  10.314  12.787  12.553
58892SOL    HW178573  10.375  12.771  12.481
58892SOL    HW278574  10.277  12.701  12.572
58893SOL     OW78575  13.687   7.754  13.243
58893SOL    HW178576  13.743   7.745  13.165
58893SOL    HW278577  13.637   7.834  13.227
58894SOL     OW78578   7.775   4.911  11.492
58894SOL    HW178579   7.773   4.818  11.513
58894SOL    HW278580   7.734   4.917  11.406
58895SOL     OW78581   3.578   9.343   4.228
58895SOL    HW178582   3.541   9.278   4.168
58895SOL    HW278583   3.552   9.313   4.315
58896SOL     OW78584   9.062   8.058  13.157
58896SOL    HW178585   9.079   8.144  13.195
58896SOL    HW278586   8.970   8.060  13.132
58897SOL     OW78587   3.929   4.425  13.303
58897SOL    HW178588   4.016   4.391  13.280
58897SOL    HW278589   3.871   4.349  13.299
58898SOL     OW78590   8.947   3.823   1.191
58898SOL    HW178591   8.907   3.745   1.228
58898SOL    HW278592   8.874   3.870   1.149
58899SOL     OW78593   1.423   0.444   3.818
58899SOL    HW178594   1.407   0.519   3.761
58899SOL    HW278595   1.501   0.402   3.781
58900SOL     OW78596   0.725  13.088  10.452
58900SOL    HW178597   0.775  13.006  10.462
58900SOL    HW278598   0.780  13.155  10.492
58901SOL     OW78599  11.863  11.185   0.183
58901SOL    HW178600  11.874  11.147   0.270
58901SOL    HW278601  11.774  11.161   0.158
58902SOL     OW78602   9.730  11.257  12.118
58902SOL    HW178603   9.636  11.260  12.100
58902SOL    HW278604   9.745  11.167  12.147
58903SOL     OW78605  12.501   8.831   8.127
58903SOL    HW178606  12.545   8.849   8.045
58903SOL    HW278607  12.499   8.735   8.133
58904SOL     OW78608  12.854   5.471  14.852
58904SOL    HW178609  12.820   5.558  14.834
58904SOL    HW278610  12.941   5.470  14.811
58905SOL     OW78611  14.219  11.097   5.755
58905SOL    HW178612  14.196  11.011   5.789
58905SOL    HW278613  14.274  11.136   5.822
58906SOL     OW78614  14.155   7.438   0.226
58906SOL    HW178615  14.235   7.386   0.217
58906SOL    HW278616  14.139   7.442   0.321
58907SOL     OW78617   4.494  13.948   8.052
58907SOL    HW178618   4.515  14.029   8.006
58907SOL    HW278619   4.421  13.971   8.110
58908SOL     OW78620   2.606   0.067   0.371
58908SOL    HW178621   2.650   0.001   0.318
58908SOL    HW278622   2.652   0.065   0.455
58909SOL     OW78623  11.382   1.122   4.854
58909SOL    HW178624  11.377   1.166   4.939
58909SOL    HW278625  11.314   1.164   4.802
58910SOL     OW78626  14.071   6.356  13.988
58910SOL    HW178627  14.000   6.333  14.047
58910SOL    HW278628  14.065   6.292  13.917
58911SOL     OW78629   4.190   8.338   8.374
58911SOL    HW178630   4.212   8.428   8.397
58911SOL    HW278631   4.235   8.322   8.291
58912SOL     OW78632   9.503  11.686  13.853
58912SOL    HW178633   9.425  11.654  13.899
58912SOL    HW278634   9.566  11.615  13.860
58913SOL     OW78635  14.121   5.127  10.386
58913SOL    HW178636  14.140   5.134  10.479
58913SOL    HW278637  14.146   5.037  10.363
58914SOL     OW78638   8.845   6.858   3.424
58914SOL    HW178639   8.823   6.867   3.517
58914SOL    HW278640   8.761   6.854   3.379
58915SOL     OW78641  12.462   7.894   9.067
58915SOL    HW178642  12.422   7.873   9.151
58915SOL    HW278643  12.389   7.914   9.010
58916SOL     OW78644   5.835   5.218  14.262
58916SOL    HW178645   5.781   5.282  14.217
58916SOL    HW278646   5.852   5.256  14.348
58917SOL     OW78647  12.182   1.274   0.072
58917SOL    HW178648  12.152   1.241  14.863
58917SOL    HW278649  12.136   1.357   0.083
58918SOL     OW78650   9.235  12.092   6.355
58918SOL    HW178651   9.270  12.158   6.414
58918SOL    HW278652   9.287  12.101   6.275
58919SOL     OW78653   6.297   4.513   6.061
58919SOL    HW178654   6.253   4.587   6.104
58919SOL    HW278655   6.229   4.445   6.055
58920SOL     OW78656  12.296  14.679   8.577
58920SOL    HW178657  12.264  14.724   8.499
58920SOL    HW278658  12.317  14.750   8.638
58921SOL     OW78659   2.355   4.140  10.658
58921SOL    HW178660   2.300   4.175  10.588
58921SOL    HW278661   2.330   4.189  10.736
58922SOL     OW78662  12.664  13.983   2.424
58922SOL    HW178663  12.724  13.913   2.450
58922SOL    HW278664  12.718  14.063   2.428
58923SOL     OW78665   7.415   3.436   1.846
58923SOL    HW178666   7.404   3.488   1.767
58923SOL    HW278667   7.481   3.371   1.823
58924SOL     OW78668   7.480  13.034  11.214
58924SOL    HW178669   7.458  12.941  11.211
58924SOL    HW278670   7.490  13.053  11.307
58925SOL     OW78671   4.572  13.328  13.704
58925SOL    HW178672   4.649  13.381  13.684
58925SOL    HW278673   4.533  13.309  13.618
58926SOL     OW78674  12.600  12.620   6.300
58926SOL    HW178675  12.658  12.633   6.376
58926SOL    HW278676  12.617  12.695   6.243
58927SOL     OW78677   0.056   3.813   8.280
58927SOL    HW178678  14.857   3.865   8.246
58927SOL    HW278679   0.123   3.821   8.213
58928SOL     OW78680   9.453   4.843  14.275
58928SOL    HW178681   9.516   4.895  14.225
58928SOL    HW278682   9.377   4.900  14.285
58929SOL     OW78683   2.485   5.182   7.393
58929SOL    HW178684   2.427   5.186   7.317
58929SOL    HW278685   2.517   5.272   7.404
58930SOL     OW78686   1.843   6.690   3.960
58930SOL    HW178687   1.905   6.632   3.917
58930SOL    HW278688   1.859   6.776   3.920
58931SOL     OW78689  12.153   8.199   4.661
58931SOL    HW178690  12.108   8.196   4.746
58931SOL    HW278691  12.160   8.293   4.642
58932SOL     OW78692   4.277   6.475   3.611
58932SOL    HW178693   4.261   6.540   3.543
58932SOL    HW278694   4.207   6.411   3.599
58933SOL     OW78695  11.849   8.722   7.264
58933SOL    HW178696  11.934   8.744   7.301
58933SOL    HW278697  11.787   8.736   7.335
58934SOL     OW78698  13.847   1.838   4.945
58934SOL    HW178699  13.935   1.807   4.966
58934SOL    HW278700  13.815   1.776   4.878
58935SOL     OW78701   1.772  13.156  12.522
58935SOL    HW178702   1.687  13.184  12.490
58935SOL    HW278703   1.813  13.113  12.447
58936SOL     OW78704  11.227   5.247   2.376
58936SOL    HW178705  11.296   5.304   2.345
58936SOL    HW278706  11.186   5.295   2.448
58937SOL     OW78707  14.240  13.641   0.155
58937SOL    HW178708  14.279  13.603   0.076
58937SOL    HW278709  14.146  13.623   0.146
58938SOL     OW78710   0.201  10.551  13.071
58938SOL    HW178711   0.291  10.521  13.061
58938SOL    HW278712   0.200  10.594  13.156
58939SOL     OW78713   1.469  10.566  10.551
58939SOL    HW178714   1.446  10.509  10.625
58939SOL    HW278715   1.551  10.530  10.518
58940SOL     OW78716   3.464   5.598   7.831
58940SOL    HW178717   3.542   5.644   7.864
58940SOL    HW278718   3.404   5.668   7.806
58941SOL     OW78719   3.335   6.622  12.246
58941SOL    HW178720   3.329   6.532  12.214
58941SOL    HW278721   3.421   6.626  12.289
58942SOL     OW78722   5.819   3.010   0.673
58942SOL    HW178723   5.785   2.948   0.738
58942SOL    HW278724   5.750   3.016   0.607
58943SOL     OW78725   9.603   7.722  14.062
58943SOL    HW178726   9.697   7.709  14.066
58943SOL    HW278727   9.566   7.633  14.066
58944SOL     OW78728   0.510   2.090  12.999
58944SOL    HW178729   0.480   2.002  12.977
58944SOL    HW278730   0.475   2.145  12.929
58945SOL     OW78731   2.249   3.491   6.651
58945SOL    HW178732   2.294   3.418   6.609
58945SOL    HW278733   2.188   3.524   6.585
58946SOL     OW78734  12.671  12.862   6.212
58946SOL    HW178735  12.712  12.941   6.245
58946SOL    HW278736  12.631  12.888   6.129
58947SOL     OW78737  13.921   9.360   3.264
58947SOL    HW178738  13.964   9.304   3.329
58947SOL    HW278739  13.948   9.324   3.180
58948SOL     OW78740  10.735  14.256   4.452
58948SOL    HW178741  10.824  14.289   4.465
58948SOL    HW278742  10.679  14.319   4.497
58949SOL     OW78743   2.744   4.537  12.281
58949SOL    HW178744   2.804   4.546  12.207
58949SOL    HW278745   2.798   4.554  12.358
58950SOL     OW78746   6.481  12.993  10.774
58950SOL    HW178747   6.568  13.022  10.802
58950SOL    HW278748   6.435  13.074  10.752
58951SOL     OW78749  12.826  14.225   2.802
58951SOL    HW178750  12.912  14.224   2.845
58951SOL    HW278751  12.765  14.251   2.871
58952SOL     OW78752  11.014   9.429   2.144
58952SOL    HW178753  10.920   9.413   2.158
58952SOL    HW278754  11.022   9.442   2.049
58953SOL     OW78755   0.548   8.889   1.283
58953SOL    HW178756   0.604   8.967   1.278
58953SOL    HW278757   0.493   8.905   1.359
58954SOL     OW78758   9.078  11.035   6.413
58954SOL    HW178759   9.118  11.041   6.326
58954SOL    HW278760   8.997  11.085   6.407
58955SOL     OW78761   6.718   6.391   0.371
58955SOL    HW178762   6.663   6.468   0.357
58955SOL    HW278763   6.656   6.318   0.375
58956SOL     OW78764   9.941   1.256   8.271
58956SOL    HW178765   9.933   1.267   8.177
58956SOL    HW278766   9.874   1.192   8.294
58957SOL     OW78767   1.984   5.399   8.495
58957SOL    HW178768   2.030   5.388   8.578
58957SOL    HW278769   1.964   5.492   8.490
58958SOL     OW78770  12.371   1.489  14.533
58958SOL    HW178771  12.280   1.459  14.528
58958SOL    HW278772  12.394   1.482  14.625
58959SOL     OW78773  14.712   8.232   2.338
58959SOL    HW178774  14.799   8.255   2.305
58959SOL    HW278775  14.729   8.167   2.407
58960SOL     OW78776   6.285   1.709   4.997
58960SOL    HW178777   6.198   1.708   4.956
58960SOL    HW278778   6.297   1.620   5.028
58961SOL     OW78779  11.225   0.732   1.417
58961SOL    HW178780  11.153   0.670   1.428
58961SOL    HW278781  11.184   0.813   1.387
58962SOL     OW78782  10.788   9.340  14.109
58962SOL    HW178783  10.783   9.251  14.144
58962SOL    HW278784  10.793   9.329  14.014
58963SOL     OW78785   2.817   6.238   2.734
58963SOL    HW178786   2.871   6.167   2.701
58963SOL    HW278787   2.728   6.215   2.706
58964SOL     OW78788   4.806   8.938   2.697
58964SOL    HW178789   4.853   9.019   2.677
58964SOL    HW278790   4.779   8.904   2.611
58965SOL     OW78791   3.974  11.840   0.560
58965SOL    HW178792   3.893  11.881   0.589
58965SOL    HW278793   4.021  11.820   0.641
58966SOL     OW78794   6.540   9.816   4.730
58966SOL    HW178795   6.517   9.867   4.653
58966SOL    HW278796   6.560   9.881   4.798
58967SOL     OW78797   3.932  14.458   0.328
58967SOL    HW178798   3.853  14.511   0.321
58967SOL    HW278799   3.970  14.460   0.240
58968SOL     OW78800   6.237   0.149  12.074
58968SOL    HW178801   6.295   0.084  12.034
58968SOL    HW278802   6.149   0.120  12.052
58969SOL     OW78803  13.030   0.314   5.020
58969SOL    HW178804  12.978   0.297   5.099
58969SOL    HW278805  12.970   0.297   4.948
58970SOL     OW78806  11.388  11.925   0.942
58970SOL    HW178807  11.348  12.012   0.947
58970SOL    HW278808  11.403  11.912   0.848
58971SOL     OW78809  11.469   4.703   2.328
58971SOL    HW178810  11.541   4.744   2.376
58971SOL    HW278811  11.391   4.754   2.352
58972SOL     OW78812   1.163  11.349   0.264
58972SOL    HW178813   1.106  11.301   0.204
58972SOL    HW278814   1.148  11.441   0.244
58973SOL     OW78815   2.256  11.339  13.751
58973SOL    HW178816   2.230  11.431  13.753
58973SOL    HW278817   2.186  11.295  13.703
58974SOL     OW78818   5.056   3.638  12.450
58974SOL    HW178819   5.031   3.545  12.454
58974SOL    HW278820   5.145   3.640  12.486
58975SOL     OW78821  12.930   5.082   0.112
58975SOL    HW178822  12.868   5.153   0.096
58975SOL    HW278823  13.007   5.103   0.059
58976SOL     OW78824   0.137  14.528  13.873
58976SOL    HW178825   0.202  14.486  13.929
58976SOL    HW278826   0.112  14.607  13.921
58977SOL     OW78827   3.925   9.930  13.976
58977SOL    HW178828   4.002   9.937  14.033
58977SOL    HW278829   3.957   9.956  13.889
58978SOL     OW78830  11.422   0.667   6.034
58978SOL    HW178831  11.442   0.718   5.955
58978SOL    HW278832  11.470   0.711   6.104
58979SOL     OW78833   8.583   1.655   9.323
58979SOL    HW178834   8.559   1.702   9.244
58979SOL    HW278835   8.502   1.652   9.374
58980SOL     OW78836   2.067  12.269   4.696
58980SOL    HW178837   2.010  12.318   4.636
58980SOL    HW278838   2.095  12.193   4.645
58981SOL     OW78839  10.164   9.261  11.178
58981SOL    HW178840  10.227   9.285  11.110
58981SOL    HW278841  10.137   9.345  11.216
58982SOL     OW78842  14.787   9.177   3.064
58982SOL    HW178843  14.826   9.168   2.977
58982SOL    HW278844  14.850   9.137   3.123
58983SOL     OW78845  14.245  14.741  14.102
58983SOL    HW178846  14.262  14.724  14.195
58983SOL    HW278847  14.321  14.790  14.073
58984SOL     OW78848   2.389  12.160   1.701
58984SOL    HW178849   2.413  12.073   1.669
58984SOL    HW278850   2.431  12.221   1.639
58985SOL     OW78851  13.638   3.692   9.908
58985SOL    HW178852  13.601   3.758   9.966
58985SOL    HW278853  13.578   3.688   9.834
58986SOL     OW78854   5.631   1.828   1.914
58986SOL    HW178855   5.675   1.850   1.996
58986SOL    HW278856   5.629   1.910   1.865
58987SOL     OW78857   4.877   9.284  14.872
58987SOL    HW178858   4.795   9.332  14.868
58987SOL    HW278859   4.852   9.192  14.867
58988SOL     OW78860   5.785   1.901   9.896
58988SOL    HW178861   5.814   1.834   9.958
58988SOL    HW278862   5.829   1.981   9.925
58989SOL     OW78863   8.807  13.504  12.413
58989SOL    HW178864   8.840  13.471  12.329
58989SOL    HW278865   8.809  13.599  12.403
58990SOL     OW78866  11.521   2.299   5.129
58990SOL    HW178867  11.455   2.361   5.100
58990SOL    HW278868  11.531   2.317   5.223
58991SOL     OW78869   2.328   0.574  11.595
58991SOL    HW178870   2.309   0.497  11.648
58991SOL    HW278871   2.248   0.590  11.545
58992SOL     OW78872  11.696   6.509  14.827
58992SOL    HW178873  11.674   6.423  14.864
58992SOL    HW278874  11.767   6.542   0.008
58993SOL     OW78875  12.185   6.015   7.569
58993SOL    HW178876  12.245   6.007   7.495
58993SOL    HW278877  12.165   6.108   7.574
58994SOL     OW78878  10.131   6.598   3.831
58994SOL    HW178879  10.055   6.551   3.796
58994SOL    HW278880  10.118   6.598   3.925
58995SOL     OW78881   4.936  13.744   5.695
58995SOL    HW178882   4.890  13.770   5.615
58995SOL    HW278883   4.868  13.707   5.751
58996SOL     OW78884   8.011  14.840  10.179
58996SOL    HW178885   8.072  14.781  10.224
58996SOL    HW278886   7.924  14.807  10.202
58997SOL     OW78887  12.646   1.738  14.719
58997SOL    HW178888  12.646   1.758  14.813
58997SOL    HW278889  12.629   1.821  14.676
58998SOL     OW78890   1.467   8.852   1.188
58998SOL    HW178891   1.512   8.833   1.271
58998SOL    HW278892   1.391   8.904   1.214
58999SOL     OW78893  14.724  12.316   3.333
58999SOL    HW178894  14.726  12.313   3.428
58999SOL    HW278895  14.791  12.253   3.305
59000SOL     OW78896   0.934   1.418   4.582
59000SOL    HW178897   0.884   1.498   4.572
59000SOL    HW278898   0.963   1.419   4.673
59001SOL     OW78899   1.242   4.967   3.363
59001SOL    HW178900   1.231   5.046   3.309
59001SOL    HW278901   1.336   4.952   3.363
59002SOL     OW78902   1.655   8.201   3.127
59002SOL    HW178903   1.750   8.202   3.136
59002SOL    HW278904   1.637   8.256   3.051
59003SOL     OW78905   0.046  11.463  14.555
59003SOL    HW178906   0.074  11.371  14.555
59003SOL    HW278907   0.119  11.510  14.596
59004SOL     OW78908  10.191   1.576   5.016
59004SOL    HW178909  10.161   1.644   4.956
59004SOL    HW278910  10.133   1.584   5.092
59005SOL     OW78911   3.210   6.381   5.989
59005SOL    HW178912   3.224   6.441   5.915
59005SOL    HW278913   3.134   6.417   6.035
59006SOL     OW78914  14.600   0.661  10.621
59006SOL    HW178915  14.535   0.702  10.563
59006SOL    HW278916  14.635   0.733  10.673
59007SOL     OW78917   7.371   0.261  13.219
59007SOL    HW178918   7.327   0.308  13.289
59007SOL    HW278919   7.443   0.319  13.192
59008SOL     OW78920  13.200   6.042  12.777
59008SOL    HW178921  13.167   6.128  12.802
59008SOL    HW278922  13.138   6.011  12.711
59009SOL     OW78923   4.243   2.311   2.940
59009SOL    HW178924   4.231   2.406   2.941
59009SOL    HW278925   4.256   2.288   3.032
59010SOL     OW78926   8.147  10.827   6.357
59010SOL    HW178927   8.097  10.767   6.301
59010SOL    HW278928   8.239  10.810   6.336
59011SOL     OW78929   1.136   0.633  11.385
59011SOL    HW178930   1.095   0.640  11.471
59011SOL    HW278931   1.074   0.581  11.333
59012SOL     OW78932   1.747   2.275   9.139
59012SOL    HW178933   1.704   2.209   9.192
59012SOL    HW278934   1.798   2.225   9.075
59013SOL     OW78935   6.903   8.107  10.432
59013SOL    HW178936   6.874   8.084  10.344
59013SOL    HW278937   6.888   8.201  10.438
59014SOL     OW78938  12.591   2.287  14.622
59014SOL    HW178939  12.501   2.277  14.655
59014SOL    HW278940  12.636   2.209  14.653
59015SOL     OW78941  10.283  13.335   8.040
59015SOL    HW178942  10.273  13.273   7.968
59015SOL    HW278943  10.336  13.406   8.003
59016SOL     OW78944   6.575  14.499  10.479
59016SOL    HW178945   6.665  14.500  10.510
59016SOL    HW278946   6.557  14.589  10.453
59017SOL     OW78947   0.183   9.273   6.279
59017SOL    HW178948   0.237   9.194   6.274
59017SOL    HW278949   0.114   9.258   6.214
59018SOL     OW78950   5.924   0.675  10.510
59018SOL    HW178951   5.991   0.658  10.444
59018SOL    HW278952   5.969   0.726  10.577
59019SOL     OW78953  14.519   8.102   5.080
59019SOL    HW178954  14.542   8.011   5.097
59019SOL    HW278955  14.580   8.129   5.011
59020SOL     OW78956  12.933   6.185  10.236
59020SOL    HW178957  12.989   6.140  10.173
59020SOL    HW278958  12.844   6.165  10.207
59021SOL     OW78959  10.521   9.240  12.830
59021SOL    HW178960  10.605   9.277  12.803
59021SOL    HW278961  10.479   9.309  12.881
59022SOL     OW78962   9.605   2.271  11.770
59022SOL    HW178963   9.534   2.207  11.771
59022SOL    HW278964   9.646   2.259  11.684
59023SOL     OW78965   7.618  13.683   9.861
59023SOL    HW178966   7.539  13.734   9.846
59023SOL    HW278967   7.675  13.703   9.787
59024SOL     OW78968   2.057  14.087  12.771
59024SOL    HW178969   2.114  14.074  12.846
59024SOL    HW278970   2.009  14.168  12.791
59025SOL     OW78971   6.899  10.194   5.844
59025SOL    HW178972   6.976  10.161   5.797
59025SOL    HW278973   6.860  10.257   5.784
59026SOL     OW78974   5.190  13.258   8.355
59026SOL    HW178975   5.131  13.320   8.311
59026SOL    HW278976   5.142  13.229   8.432
59027SOL     OW78977   0.946  11.912  13.105
59027SOL    HW178978   0.940  11.819  13.083
59027SOL    HW278979   0.968  11.912  13.198
59028SOL     OW78980   1.768   2.423   1.498
59028SOL    HW178981   1.805   2.459   1.578
59028SOL    HW278982   1.677   2.404   1.520
59029SOL     OW78983   2.510  11.168   7.430
59029SOL    HW178984   2.488  11.155   7.337
59029SOL    HW278985   2.593  11.122   7.442
59030SOL     OW78986   2.262   2.383   3.202
59030SOL    HW178987   2.244   2.477   3.205
59030SOL    HW278988   2.310   2.371   3.120
59031SOL     OW78989   7.495   6.899   3.207
59031SOL    HW178990   7.559   6.938   3.148
59031SOL    HW278991   7.414   6.895   3.155
59032SOL     OW78992   1.018   3.121   4.074
59032SOL    HW178993   1.038   3.181   4.147
59032SOL    HW278994   1.016   3.178   3.997
59033SOL     OW78995  12.649   4.420   9.286
59033SOL    HW178996  12.656   4.468   9.204
59033SOL    HW278997  12.687   4.334   9.267
59034SOL     OW78998   7.613   3.067   2.529
59034SOL    HW178999   7.519   3.079   2.538
59034SOL    HW279000   7.638   3.013   2.605
59035SOL     OW79001   8.990   6.844  13.053
59035SOL    HW179002   8.938   6.805  13.123
59035SOL    HW279003   8.928   6.853  12.980
59036SOL     OW79004   9.894  10.237  12.399
59036SOL    HW179005   9.893  10.147  12.434
59036SOL    HW279006   9.925  10.227  12.309
59037SOL     OW79007   8.742  10.761   6.088
59037SOL    HW179008   8.793  10.832   6.126
59037SOL    HW279009   8.802  10.717   6.027
59038SOL     OW79010  12.359   0.628   2.878
59038SOL    HW179011  12.359   0.599   2.969
59038SOL    HW279012  12.266   0.637   2.856
59039SOL     OW79013   3.135  13.479   5.329
59039SOL    HW179014   3.144  13.573   5.346
59039SOL    HW279015   3.163  13.469   5.238
59040SOL     OW79016  11.496  10.563   3.333
59040SOL    HW179017  11.475  10.470   3.336
59040SOL    HW279018  11.574  10.571   3.387
59041SOL     OW79019   8.465   2.781   0.263
59041SOL    HW179020   8.435   2.691   0.274
59041SOL    HW279021   8.434   2.827   0.341
59042SOL     OW79022  10.534   3.515   4.804
59042SOL    HW179023  10.588   3.577   4.756
59042SOL    HW279024  10.504   3.452   4.738
59043SOL     OW79025   5.813   5.667  13.489
59043SOL    HW179026   5.723   5.678  13.521
59043SOL    HW279027   5.808   5.591  13.430
59044SOL     OW79028   6.613   3.577  14.700
59044SOL    HW179029   6.517   3.579  14.707
59044SOL    HW279030   6.643   3.629  14.774
59045SOL     OW79031   5.867   1.317   0.763
59045SOL    HW179032   5.853   1.333   0.856
59045SOL    HW279033   5.803   1.373   0.719
59046SOL     OW79034   8.234  12.069   9.979
59046SOL    HW179035   8.192  12.089  10.063
59046SOL    HW279036   8.221  12.149   9.927
59047SOL     OW79037  10.442   3.044   0.693
59047SOL    HW179038  10.383   3.037   0.768
59047SOL    HW279039  10.484   3.130   0.704
59048SOL     OW79040   5.786   4.798   5.279
59048SOL    HW179041   5.816   4.885   5.308
59048SOL    HW279042   5.756   4.812   5.189
59049SOL     OW79043  10.784  10.328  14.056
59049SOL    HW179044  10.751  10.402  14.107
59049SOL    HW279045  10.795  10.258  14.120
59050SOL     OW79046  14.831  10.525  10.073
59050SOL    HW179047  14.802  10.612  10.102
59050SOL    HW279048  14.750  10.478  10.055
59051SOL     OW79049   8.400   9.252  11.467
59051SOL    HW179050   8.464   9.240  11.397
59051SOL    HW279051   8.387   9.165  11.503
59052SOL     OW79052   7.182   4.892  12.388
59052SOL    HW179053   7.163   4.798  12.385
59052SOL    HW279054   7.101   4.932  12.419
59053SOL     OW79055  11.281  13.539   9.722
59053SOL    HW179056  11.286  13.624   9.678
59053SOL    HW279057  11.268  13.477   9.651
59054SOL     OW79058   3.794  12.601  13.691
59054SOL    HW179059   3.879  12.631  13.660
59054SOL    HW279060   3.805  12.506  13.701
59055SOL     OW79061   0.031   6.997   1.697
59055SOL    HW179062  14.817   7.027   1.680
59055SOL    HW279063   0.071   6.992   1.610
59056SOL     OW79064   6.060   1.364   5.435
59056SOL    HW179065   6.042   1.439   5.491
59056SOL    HW279066   6.130   1.394   5.377
59057SOL     OW79067   6.491  13.869   6.695
59057SOL    HW179068   6.399  13.860   6.669
59057SOL    HW279069   6.495  13.953   6.740
59058SOL     OW79070   7.647   4.479   0.926
59058SOL    HW179071   7.671   4.543   0.992
59058SOL    HW279072   7.719   4.415   0.927
59059SOL     OW79073   0.722   3.722   6.565
59059SOL    HW179074   0.817   3.721   6.558
59059SOL    HW279075   0.701   3.812   6.590
59060SOL     OW79076   2.559   0.709   0.592
59060SOL    HW179077   2.546   0.658   0.671
59060SOL    HW279078   2.474   0.747   0.572
59061SOL     OW79079   4.492  12.059  13.023
59061SOL    HW179080   4.414  12.114  13.027
59061SOL    HW279081   4.479  12.004  12.946
59062SOL     OW79082   9.839   1.494   4.826
59062SOL    HW179083   9.763   1.443   4.800
59062SOL    HW279084   9.896   1.494   4.749
59063SOL     OW79085  13.959   0.828   2.930
59063SOL    HW179086  13.893   0.773   2.889
59063SOL    HW279087  14.011   0.768   2.984
59064SOL     OW79088   8.066   3.841  12.672
59064SOL    HW179089   8.041   3.750  12.684
59064SOL    HW279090   8.140   3.854  12.731
59065SOL     OW79091  11.478  10.057  10.568
59065SOL    HW179092  11.433  10.074  10.651
59065SOL    HW279093  11.469  10.139  10.519
59066SOL     OW79094   0.270   6.110   0.305
59066SOL    HW179095   0.203   6.154   0.253
59066SOL    HW279096   0.271   6.020   0.272
59067SOL     OW79097   9.542   1.034   5.403
59067SOL    HW179098   9.488   1.113   5.398
59067SOL    HW279099   9.480   0.964   5.423
59068SOL     OW79100   7.829   9.833   7.811
59068SOL    HW179101   7.795   9.834   7.722
59068SOL    HW279102   7.822   9.924   7.840
59069SOL     OW79103   6.594  10.722   6.841
59069SOL    HW179104   6.677  10.737   6.795
59069SOL    HW279105   6.565  10.810   6.866
59070SOL     OW79106  12.588   6.600  13.672
59070SOL    HW179107  12.644   6.642  13.737
59070SOL    HW279108  12.502   6.595  13.713
59071SOL     OW79109   3.819  10.556  10.675
59071SOL    HW179110   3.827  10.605  10.593
59071SOL    HW279111   3.804  10.466  10.648
59072SOL     OW79112  10.100   6.558  11.410
59072SOL    HW179113  10.192   6.541  11.389
59072SOL    HW279114  10.064   6.598  11.331
59073SOL     OW79115  12.148   6.154   2.355
59073SOL    HW179116  12.154   6.207   2.434
59073SOL    HW279117  12.117   6.068   2.385
59074SOL     OW79118   2.093  14.265   7.875
59074SOL    HW179119   2.060  14.242   7.962
59074SOL    HW279120   2.188  14.274   7.887
59075SOL     OW79121   2.833   0.168  10.750
59075SOL    HW179122   2.857   0.255  10.718
59075SOL    HW279123   2.916   0.130  10.780
59076SOL     OW79124   9.475   1.417   1.295
59076SOL    HW179125   9.407   1.480   1.274
59076SOL    HW279126   9.475   1.412   1.391
59077SOL     OW79127  12.613   6.925  10.328
59077SOL    HW179128  12.563   7.004  10.307
59077SOL    HW279129  12.674   6.916  10.255
59078SOL     OW79130   5.262   4.277  14.262
59078SOL    HW179131   5.290   4.222  14.189
59078SOL    HW279132   5.180   4.237  14.292
59079SOL     OW79133  10.256   2.789   2.294
59079SOL    HW179134  10.293   2.703   2.315
59079SOL    HW279135  10.273   2.841   2.372
59080SOL     OW79136   7.095   7.347   6.380
59080SOL    HW179137   7.158   7.366   6.450
59080SOL    HW279138   7.037   7.281   6.418
59081SOL     OW79139   6.312   4.044  12.138
59081SOL    HW179140   6.251   3.971  12.141
59081SOL    HW279141   6.263   4.117  12.176
59082SOL     OW79142   9.645  11.980  12.912
59082SOL    HW179143   9.613  11.894  12.887
59082SOL    HW279144   9.729  11.963  12.956
59083SOL     OW79145   6.336   4.852   4.122
59083SOL    HW179146   6.328   4.834   4.028
59083SOL    HW279147   6.281   4.786   4.163
59084SOL     OW79148   2.623   8.799   7.042
59084SOL    HW179149   2.674   8.817   7.121
59084SOL    HW279150   2.684   8.810   6.970
59085SOL     OW79151  12.504  11.949   4.966
59085SOL    HW179152  12.592  11.973   4.997
59085SOL    HW279153  12.511  11.855   4.947
59086SOL     OW79154   6.560   4.811  14.313
59086SOL    HW179155   6.587   4.722  14.289
59086SOL    HW279156   6.473   4.799  14.353
59087SOL     OW79157   6.594   2.634  13.070
59087SOL    HW179158   6.547   2.717  13.061
59087SOL    HW279159   6.607   2.624  13.165
59088SOL     OW79160  10.835  11.067   2.555
59088SOL    HW179161  10.865  11.107   2.473
59088SOL    HW279162  10.913  11.064   2.610
59089SOL     OW79163   2.036   4.254  11.958
59089SOL    HW179164   2.074   4.329  11.912
59089SOL    HW279165   2.069   4.263  12.048
59090SOL     OW79166  13.932  11.629  11.770
59090SOL    HW179167  14.000  11.648  11.835
59090SOL    HW279168  13.862  11.587  11.819
59091SOL     OW79169  12.525  14.002  13.661
59091SOL    HW179170  12.600  13.947  13.685
59091SOL    HW279171  12.450  13.944  13.668
59092SOL     OW79172   4.121   4.347  12.667
59092SOL    HW179173   4.167   4.334  12.584
59092SOL    HW279174   4.136   4.439  12.689
59093SOL     OW79175  10.178   1.418   5.650
59093SOL    HW179176  10.203   1.383   5.565
59093SOL    HW279177  10.235   1.494   5.662
59094SOL     OW79178   0.509  14.493  12.213
59094SOL    HW179179   0.442  14.425  12.218
59094SOL    HW279180   0.585  14.450  12.173
59095SOL     OW79181  12.934   1.893   7.536
59095SOL    HW179182  12.989   1.927   7.606
59095SOL    HW279183  12.921   1.967   7.477
59096SOL     OW79184  12.568   2.899   7.863
59096SOL    HW179185  12.559   2.946   7.946
59096SOL    HW279186  12.478   2.887   7.833
59097SOL     OW79187   4.532  12.699   6.388
59097SOL    HW179188   4.584  12.665   6.460
59097SOL    HW279189   4.475  12.765   6.428
59098SOL     OW79190   5.542   8.335   2.649
59098SOL    HW179191   5.578   8.388   2.577
59098SOL    HW279192   5.523   8.250   2.609
59099SOL     OW79193  11.921   2.819  13.910
59099SOL    HW179194  11.991   2.767  13.949
59099SOL    HW279195  11.893   2.768  13.834
59100SOL     OW79196   0.129  13.340   6.309
59100SOL    HW179197   0.131  13.284   6.231
59100SOL    HW279198   0.039  13.332   6.341
59101SOL     OW79199   6.931   8.493   5.718
59101SOL    HW179200   6.892   8.408   5.699
59101SOL    HW279201   6.985   8.478   5.795
59102SOL     OW79202   4.682   8.912   1.677
59102SOL    HW179203   4.660   8.820   1.665
59102SOL    HW279204   4.744   8.932   1.607
59103SOL     OW79205   7.895  14.205  13.451
59103SOL    HW179206   7.870  14.154  13.529
59103SOL    HW279207   7.895  14.296  13.481
59104SOL     OW79208   8.959  10.322   3.439
59104SOL    HW179209   8.987  10.284   3.522
59104SOL    HW279210   8.957  10.416   3.455
59105SOL     OW79211   2.875   1.928   8.303
59105SOL    HW179212   2.915   1.954   8.220
59105SOL    HW279213   2.893   1.835   8.310
59106SOL     OW79214   5.590   1.319   7.894
59106SOL    HW179215   5.666   1.367   7.862
59106SOL    HW279216   5.613   1.227   7.883
59107SOL     OW79217  11.932   8.912   0.946
59107SOL    HW179218  12.021   8.885   0.970
59107SOL    HW279219  11.943   8.967   0.869
59108SOL     OW79220  13.027  12.010   3.573
59108SOL    HW179221  13.017  12.029   3.667
59108SOL    HW279222  12.950  12.050   3.533
59109SOL     OW79223   8.368   7.880   8.268
59109SOL    HW179224   8.308   7.950   8.293
59109SOL    HW279225   8.319   7.828   8.205
59110SOL     OW79226   6.530  14.757   3.139
59110SOL    HW179227   6.497  14.725   3.055
59110SOL    HW279228   6.561  14.845   3.121
59111SOL     OW79229   2.993   5.091   6.312
59111SOL    HW179230   2.903   5.117   6.331
59111SOL    HW279231   2.995   5.078   6.217
59112SOL     OW79232  13.096   8.237   8.789
59112SOL    HW179233  13.038   8.292   8.736
59112SOL    HW279234  13.053   8.230   8.874
59113SOL     OW79235   0.518   1.737   4.912
59113SOL    HW179236   0.487   1.773   4.995
59113SOL    HW279237   0.440   1.695   4.873
59114SOL     OW79238   9.886   0.341   6.599
59114SOL    HW179239   9.795   0.354   6.627
59114SOL    HW279240   9.913   0.261   6.644
59115SOL     OW79241   2.183  14.245   1.642
59115SOL    HW179242   2.228  14.183   1.585
59115SOL    HW279243   2.239  14.323   1.640
59116SOL     OW79244   5.202  10.695   5.819
59116SOL    HW179245   5.201  10.660   5.908
59116SOL    HW279246   5.278  10.653   5.778
59117SOL     OW79247  10.919   5.185   8.067
59117SOL    HW179248  10.949   5.264   8.112
59117SOL    HW279249  10.825   5.198   8.056
59118SOL     OW79250   4.714   5.561   6.382
59118SOL    HW179251   4.666   5.552   6.300
59118SOL    HW279252   4.803   5.533   6.361
59119SOL     OW79253   6.088   0.676   1.245
59119SOL    HW179254   6.076   0.719   1.160
59119SOL    HW279255   6.027   0.603   1.243
59120SOL     OW79256  12.869  10.643   1.227
59120SOL    HW179257  12.891  10.724   1.273
59120SOL    HW279258  12.902  10.573   1.283
59121SOL     OW79259   3.862   8.069   6.999
59121SOL    HW179260   3.925   8.001   6.977
59121SOL    HW279261   3.828   8.099   6.915
59122SOL     OW79262   6.515   9.558   0.930
59122SOL    HW179263   6.541   9.650   0.921
59122SOL    HW279264   6.503   9.528   0.840
59123SOL     OW79265   9.788   3.748  13.407
59123SOL    HW179266   9.717   3.811  13.422
59123SOL    HW279267   9.751   3.664  13.433
59124SOL     OW79268   7.802  11.280   4.611
59124SOL    HW179269   7.719  11.302   4.570
59124SOL    HW279270   7.847  11.223   4.548
59125SOL     OW79271   7.217   4.938   3.175
59125SOL    HW179272   7.192   4.854   3.136
59125SOL    HW279273   7.178   4.936   3.262
59126SOL     OW79274   3.364   9.229  12.713
59126SOL    HW179275   3.304   9.169  12.668
59126SOL    HW279276   3.396   9.179  12.788
59127SOL     OW79277  11.773  11.128   7.245
59127SOL    HW179278  11.834  11.170   7.306
59127SOL    HW279279  11.752  11.196   7.181
59128SOL     OW79280   4.810  14.051  11.730
59128SOL    HW179281   4.756  14.053  11.808
59128SOL    HW279282   4.809  14.141  11.697
59129SOL     OW79283  10.373   9.176   7.210
59129SOL    HW179284  10.338   9.088   7.194
59129SOL    HW279285  10.379   9.183   7.305
59130SOL     OW79286   0.951   9.621   7.620
59130SOL    HW179287   0.886   9.690   7.626
59130SOL    HW279288   1.033   9.666   7.602
59131SOL     OW79289   7.286   5.372   4.957
59131SOL    HW179290   7.338   5.369   5.036
59131SOL    HW279291   7.344   5.409   4.890
59132SOL     OW79292   1.579  13.035   4.848
59132SOL    HW179293   1.516  12.979   4.893
59132SOL    HW279294   1.525  13.099   4.801
59133SOL     OW79295   4.698   0.978   6.668
59133SOL    HW179296   4.676   0.885   6.663
59133SOL    HW279297   4.794   0.979   6.672
59134SOL     OW79298   1.856   8.724   9.053
59134SOL    HW179299   1.900   8.641   9.071
59134SOL    HW279300   1.922   8.791   9.072
59135SOL     OW79301   4.989   3.665  13.153
59135SOL    HW179302   4.971   3.586  13.102
59135SOL    HW279303   4.953   3.647  13.239
59136SOL     OW79304   2.338  13.327  14.083
59136SOL    HW179305   2.300  13.254  14.034
59136SOL    HW279306   2.412  13.288  14.130
59137SOL     OW79307   9.938   9.537   7.345
59137SOL    HW179308   9.919   9.444   7.342
59137SOL    HW279309   9.932   9.560   7.438
59138SOL     OW79310  11.521   9.954   0.169
59138SOL    HW179311  11.432   9.987   0.155
59138SOL    HW279312  11.565  10.025   0.216
59139SOL     OW79313   8.772   6.219   0.361
59139SOL    HW179314   8.718   6.292   0.330
59139SOL    HW279315   8.800   6.246   0.448
59140SOL     OW79316  10.890  11.326   6.975
59140SOL    HW179317  10.912  11.417   6.957
59140SOL    HW279318  10.974  11.284   6.995
59141SOL     OW79319   5.218   3.125   3.522
59141SOL    HW179320   5.151   3.160   3.464
59141SOL    HW279321   5.293   3.108   3.465
59142SOL     OW79322   9.828  10.012   2.877
59142SOL    HW179323   9.774  10.091   2.878
59142SOL    HW279324   9.765   9.940   2.882
59143SOL     OW79325   0.560   4.594  14.700
59143SOL    HW179326   0.602   4.680  14.704
59143SOL    HW279327   0.474   4.611  14.662
59144SOL     OW79328   4.909  10.771  14.751
59144SOL    HW179329   4.977  10.837  14.763
59144SOL    HW279330   4.884  10.779  14.659
59145SOL     OW79331   4.299  10.023   9.794
59145SOL    HW179332   4.270   9.941   9.833
59145SOL    HW279333   4.264  10.022   9.705
59146SOL     OW79334  11.918   8.285   2.919
59146SOL    HW179335  11.842   8.259   2.867
59146SOL    HW279336  11.884   8.295   3.008
59147SOL     OW79337  12.245   9.372  11.818
59147SOL    HW179338  12.165   9.330  11.786
59147SOL    HW279339  12.239   9.462  11.785
59148SOL     OW79340   2.124   2.492  11.188
59148SOL    HW179341   2.209   2.518  11.223
59148SOL    HW279342   2.139   2.403  11.154
59149SOL     OW79343   7.622   4.914   9.277
59149SOL    HW179344   7.697   4.857   9.292
59149SOL    HW279345   7.633   4.946   9.187
59150SOL     OW79346   7.239   8.894   6.992
59150SOL    HW179347   7.164   8.866   6.939
59150SOL    HW279348   7.209   8.974   7.035
59151SOL     OW79349   0.510   4.315   3.353
59151SOL    HW179350   0.501   4.230   3.396
59151SOL    HW279351   0.425   4.357   3.365
59152SOL     OW79352   1.372  11.811  14.780
59152SOL    HW179353   1.456  11.795  14.737
59152SOL    HW279354   1.308  11.771  14.721
59153SOL     OW79355   9.178   0.730   2.504
59153SOL    HW179356   9.118   0.670   2.549
59153SOL    HW279357   9.127   0.810   2.492
59154SOL     OW79358   1.926   3.315  12.625
59154SOL    HW179359   1.952   3.318  12.717
59154SOL    HW279360   1.977   3.244  12.587
59155SOL     OW79361   3.381  13.872   3.670
59155SOL    HW179362   3.418  13.787   3.648
59155SOL    HW279363   3.451  13.935   3.653
59156SOL     OW79364   8.119   9.407   2.345
59156SOL    HW179365   8.090   9.473   2.408
59156SOL    HW279366   8.214   9.415   2.344
59157SOL     OW79367  11.351   8.557   6.919
59157SOL    HW179368  11.298   8.584   6.994
59157SOL    HW279369  11.342   8.462   6.915
59158SOL     OW79370   4.521  10.802  11.267
59158SOL    HW179371   4.512  10.872  11.332
59158SOL    HW279372   4.521  10.847  11.183
59159SOL     OW79373   1.912   0.409   5.301
59159SOL    HW179374   1.964   0.392   5.379
59159SOL    HW279375   1.881   0.499   5.311
59160SOL     OW79376  13.506   1.649  13.492
59160SOL    HW179377  13.449   1.576  13.465
59160SOL    HW279378  13.472   1.724  13.444
59161SOL     OW79379   9.240  10.532  11.384
59161SOL    HW179380   9.250  10.444  11.348
59161SOL    HW279381   9.298  10.534  11.460
59162SOL     OW79382   9.626   3.703   7.184
59162SOL    HW179383   9.554   3.644   7.164
59162SOL    HW279384   9.609   3.781   7.131
59163SOL     OW79385  10.273   7.282  10.967
59163SOL    HW179386  10.260   7.197  11.009
59163SOL    HW279387  10.349   7.269  10.910
59164SOL     OW79388   9.324   8.365   0.175
59164SOL    HW179389   9.327   8.422   0.251
59164SOL    HW279390   9.290   8.420   0.104
59165SOL     OW79391   5.252  14.481  13.314
59165SOL    HW179392   5.297  14.456  13.395
59165SOL    HW279393   5.323  14.490  13.249
59166SOL     OW79394   2.006   2.431   6.599
59166SOL    HW179395   1.984   2.360   6.660
59166SOL    HW279396   1.942   2.422   6.529
59167SOL     OW79397   8.848   3.600  11.723
59167SOL    HW179398   8.936   3.634  11.738
59167SOL    HW279399   8.828   3.549  11.802
59168SOL     OW79400   0.978   5.273  14.179
59168SOL    HW179401   0.982   5.271  14.084
59168SOL    HW279402   0.915   5.341  14.199
59169SOL     OW79403   8.832  14.458   8.885
59169SOL    HW179404   8.905  14.516   8.903
59169SOL    HW279405   8.756  14.516   8.878
59170SOL     OW79406  12.024   8.534   7.435
59170SOL    HW179407  12.079   8.509   7.510
59170SOL    HW279408  12.054   8.622   7.412
59171SOL     OW79409   6.962  10.470   4.727
59171SOL    HW179410   6.917  10.388   4.708
59171SOL    HW279411   7.052  10.445   4.744
59172SOL     OW79412   9.974  10.260   0.717
59172SOL    HW179413   9.990  10.166   0.711
59172SOL    HW279414   9.882  10.268   0.742
59173SOL     OW79415   7.974   3.675  10.112
59173SOL    HW179416   7.927   3.634  10.185
59173SOL    HW279417   8.066   3.654  10.128
59174SOL     OW79418   0.788   5.826   1.332
59174SOL    HW179419   0.802   5.783   1.416
59174SOL    HW279420   0.693   5.825   1.320
59175SOL     OW79421   1.934   8.721   4.410
59175SOL    HW179422   1.948   8.742   4.318
59175SOL    HW279423   1.951   8.803   4.456
59176SOL     OW79424   5.388  11.429   2.297
59176SOL    HW179425   5.335  11.385   2.231
59176SOL    HW279426   5.476  11.393   2.285
59177SOL     OW79427   3.128   6.974   7.412
59177SOL    HW179428   3.127   6.898   7.353
59177SOL    HW279429   3.204   7.024   7.383
59178SOL     OW79430   1.050  10.291   3.210
59178SOL    HW179431   1.072  10.328   3.125
59178SOL    HW279432   1.082  10.355   3.274
59179SOL     OW79433   8.341   8.432  13.553
59179SOL    HW179434   8.269   8.489  13.580
59179SOL    HW279435   8.373   8.393  13.634
59180SOL     OW79436   6.616   6.957   1.886
59180SOL    HW179437   6.694   6.975   1.939
59180SOL    HW279438   6.646   6.965   1.796
59181SOL     OW79439   9.334   6.548  11.830
59181SOL    HW179440   9.272   6.568  11.900
59181SOL    HW279441   9.286   6.489  11.771
59182SOL     OW79442  12.732   5.395  10.515
59182SOL    HW179443  12.655   5.435  10.556
59182SOL    HW279444  12.728   5.303  10.540
59183SOL     OW79445   9.657   0.591   8.469
59183SOL    HW179446   9.642   0.652   8.541
59183SOL    HW279447   9.735   0.624   8.425
59184SOL     OW79448  13.289   6.812   7.681
59184SOL    HW179449  13.211   6.757   7.675
59184SOL    HW279450  13.336   6.778   7.757
59185SOL     OW79451   9.856   7.658  14.068
59185SOL    HW179452   9.882   7.571  14.040
59185SOL    HW279453   9.812   7.644  14.152
59186SOL     OW79454   0.844   6.058   1.416
59186SOL    HW179455   0.939   6.041   1.418
59186SOL    HW279456   0.809   5.986   1.363
59187SOL     OW79457   9.817   5.778   8.856
59187SOL    HW179458   9.816   5.741   8.768
59187SOL    HW279459   9.857   5.710   8.911
59188SOL     OW79460   5.806   9.998   8.500
59188SOL    HW179461   5.876  10.037   8.447
59188SOL    HW279462   5.843   9.918   8.536
59189SOL     OW79463   9.644   2.096  13.532
59189SOL    HW179464   9.695   2.143  13.598
59189SOL    HW279465   9.643   2.154  13.456
59190SOL     OW79466   5.298   4.648   6.840
59190SOL    HW179467   5.252   4.685   6.765
59190SOL    HW279468   5.390   4.673   6.827
59191SOL     OW79469   8.472   7.480   3.337
59191SOL    HW179470   8.535   7.530   3.286
59191SOL    HW279471   8.389   7.491   3.290
59192SOL     OW79472  12.207   6.042   4.023
59192SOL    HW179473  12.208   5.971   3.958
59192SOL    HW279474  12.274   6.018   4.087
59193SOL     OW79475   1.409   6.756   4.767
59193SOL    HW179476   1.490   6.729   4.723
59193SOL    HW279477   1.435   6.830   4.821
59194SOL     OW79478   2.857   7.693   8.432
59194SOL    HW179479   2.848   7.693   8.337
59194SOL    HW279480   2.937   7.743   8.449
59195SOL     OW79481  14.169   7.621   0.025
59195SOL    HW179482  14.216   7.548   0.066
59195SOL    HW279483  14.238   7.679  14.867
59196SOL     OW79484   5.143   6.597  13.369
59196SOL    HW179485   5.073   6.628  13.426
59196SOL    HW279486   5.114   6.620  13.281
59197SOL     OW79487  12.564   5.918   9.550
59197SOL    HW179488  12.600   5.912   9.639
59197SOL    HW279489  12.595   6.003   9.518
59198SOL     OW79490  14.066   3.816   9.335
59198SOL    HW179491  14.029   3.864   9.409
59198SOL    HW279492  14.160   3.817   9.350
59199SOL     OW79493  11.320   0.826   3.551
59199SOL    HW179494  11.339   0.732   3.552
59199SOL    HW279495  11.406   0.868   3.544
59200SOL     OW79496  14.661   6.041  14.462
59200SOL    HW179497  14.659   5.956  14.418
59200SOL    HW279498  14.609   6.029  14.541
59201SOL     OW79499   5.886   1.860   9.629
59201SOL    HW179500   5.967   1.911   9.635
59201SOL    HW279501   5.837   1.883   9.708
59202SOL     OW79502  13.576   9.128   5.224
59202SOL    HW179503  13.536   9.058   5.277
59202SOL    HW279504  13.505   9.157   5.167
59203SOL     OW79505  11.408  14.852   3.144
59203SOL    HW179506  11.464  14.806   3.207
59203SOL    HW279507  11.319  14.822   3.165
59204SOL     OW79508   6.019   9.303   7.354
59204SOL    HW179509   6.092   9.295   7.416
59204SOL    HW279510   5.942   9.312   7.410
59205SOL     OW79511   4.738  12.459   4.337
59205SOL    HW179512   4.829  12.435   4.320
59205SOL    HW279513   4.693  12.443   4.254
59206SOL     OW79514  14.339  13.444   9.515
59206SOL    HW179515  14.396  13.368   9.524
59206SOL    HW279516  14.391  13.508   9.467
59207SOL     OW79517   5.175   0.009  12.485
59207SOL    HW179518   5.185   0.055  12.568
59207SOL    HW279519   5.097   0.048  12.446
59208SOL     OW79520  12.912   5.926  10.949
59208SOL    HW179521  12.890   5.887  11.034
59208SOL    HW279522  13.005   5.909  10.938
59209SOL     OW79523   8.247   1.039   2.524
59209SOL    HW179524   8.204   0.960   2.492
59209SOL    HW279525   8.340   1.021   2.518
59210SOL     OW79526   2.076   5.582   4.565
59210SOL    HW179527   2.037   5.595   4.652
59210SOL    HW279528   2.053   5.662   4.517
59211SOL     OW79529   2.924   3.293   2.584
59211SOL    HW179530   3.020   3.293   2.593
59211SOL    HW279531   2.893   3.234   2.653
59212SOL     OW79532   6.349   5.265  11.248
59212SOL    HW179533   6.350   5.212  11.327
59212SOL    HW279534   6.425   5.233  11.198
59213SOL     OW79535   2.849  13.131   3.764
59213SOL    HW179536   2.837  13.125   3.669
59213SOL    HW279537   2.869  13.223   3.780
59214SOL     OW79538   9.132   8.791   3.144
59214SOL    HW179539   9.047   8.767   3.109
59214SOL    HW279540   9.194   8.738   3.094
59215SOL     OW79541   6.772   1.312   7.430
59215SOL    HW179542   6.782   1.260   7.351
59215SOL    HW279543   6.698   1.272   7.476
59216SOL     OW79544   2.141   8.331   7.097
59216SOL    HW179545   2.225   8.308   7.135
59216SOL    HW279546   2.077   8.288   7.155
59217SOL     OW79547   4.617   0.466   6.629
59217SOL    HW179548   4.603   0.410   6.706
59217SOL    HW279549   4.568   0.423   6.559
59218SOL     OW79550  13.948  11.829   0.831
59218SOL    HW179551  13.906  11.746   0.853
59218SOL    HW279552  13.900  11.894   0.882
59219SOL     OW79553   0.971  12.601  11.290
59219SOL    HW179554   0.959  12.691  11.262
59219SOL    HW279555   0.952  12.602  11.384
59220SOL     OW79556  14.293  12.459   7.751
59220SOL    HW179557  14.269  12.546   7.718
59220SOL    HW279558  14.340  12.418   7.678
59221SOL     OW79559   8.956  12.053  11.980
59221SOL    HW179560   8.888  12.042  12.046
59221SOL    HW279561   8.920  12.011  11.902
59222SOL     OW79562   8.596   1.569   6.481
59222SOL    HW179563   8.593   1.619   6.399
59222SOL    HW279564   8.638   1.628   6.543
59223SOL     OW79565   2.504   7.620   4.717
59223SOL    HW179566   2.422   7.633   4.669
59223SOL    HW279567   2.476   7.598   4.806
59224SOL     OW79568   1.433   6.240   9.595
59224SOL    HW179569   1.528   6.239   9.595
59224SOL    HW279570   1.408   6.159   9.641
59225SOL     OW79571   1.807  11.996   2.868
59225SOL    HW179572   1.715  11.989   2.843
59225SOL    HW279573   1.816  11.944   2.947
59226SOL     OW79574   6.624   3.424   7.333
59226SOL    HW179575   6.546   3.369   7.345
59226SOL    HW279576   6.667   3.387   7.256
59227SOL     OW79577   5.969   3.286   8.751
59227SOL    HW179578   5.989   3.349   8.820
59227SOL    HW279579   6.047   3.283   8.696
59228SOL     OW79580   2.130   9.159  10.627
59228SOL    HW179581   2.136   9.252  10.648
59228SOL    HW279582   2.210   9.141  10.577
59229SOL     OW79583   3.864   6.425   9.292
59229SOL    HW179584   3.792   6.405   9.233
59229SOL    HW279585   3.822   6.449   9.375
59230SOL     OW79586   3.862   9.947   9.363
59230SOL    HW179587   3.918   9.896   9.421
59230SOL    HW279588   3.919   9.975   9.292
59231SOL     OW79589   4.224   0.664  11.133
59231SOL    HW179590   4.146   0.717  11.117
59231SOL    HW279591   4.237   0.614  11.053
59232SOL     OW79592   4.263  12.092   7.454
59232SOL    HW179593   4.193  12.153   7.476
59232SOL    HW279594   4.279  12.043   7.534
59233SOL     OW79595  10.243   0.444  12.682
59233SOL    HW179596  10.338   0.444  12.669
59233SOL    HW279597  10.219   0.537  12.683
59234SOL     OW79598   9.881   3.355   1.482
59234SOL    HW179599   9.847   3.444   1.491
59234SOL    HW279600   9.886   3.322   1.572
59235SOL     OW79601   0.845   6.190  12.370
59235SOL    HW179602   0.824   6.257  12.435
59235SOL    HW279603   0.841   6.108  12.418
59236SOL     OW79604   6.036   5.831   3.532
59236SOL    HW179605   6.117   5.883   3.529
59236SOL    HW279606   6.038   5.779   3.451
59237SOL     OW79607  11.534   3.569  11.444
59237SOL    HW179608  11.597   3.617  11.498
59237SOL    HW279609  11.583   3.550  11.363
59238SOL     OW79610   9.592  11.050   3.870
59238SOL    HW179611   9.535  10.977   3.846
59238SOL    HW279612   9.573  11.067   3.962
59239SOL     OW79613   5.235   9.629  13.646
59239SOL    HW179614   5.267   9.584  13.568
59239SOL    HW279615   5.154   9.671  13.617
59240SOL     OW79616   5.656  14.711  14.841
59240SOL    HW179617   5.609  14.691   0.047
59240SOL    HW279618   5.730  14.765  14.869
59241SOL     OW79619   8.202   0.643  11.703
59241SOL    HW179620   8.212   0.728  11.660
59241SOL    HW279621   8.181   0.664  11.794
59242SOL     OW79622   0.354   7.441   4.476
59242SOL    HW179623   0.335   7.535   4.486
59242SOL    HW279624   0.273   7.397   4.500
59243SOL     OW79625  14.760  14.111  10.285
59243SOL    HW179626  14.792  14.172  10.351
59243SOL    HW279627  14.770  14.024  10.325
59244SOL     OW79628   9.027  14.155   8.475
59244SOL    HW179629   9.108  14.123   8.435
59244SOL    HW279630   8.977  14.191   8.402
59245SOL     OW79631  10.245   4.110   9.846
59245SOL    HW179632  10.301   4.061   9.907
59245SOL    HW279633  10.205   4.043   9.791
59246SOL     OW79634   7.601   7.736  12.490
59246SOL    HW179635   7.617   7.645  12.467
59246SOL    HW279636   7.687   7.773  12.504
59247SOL     OW79637  14.319   9.278   5.188
59247SOL    HW179638  14.256   9.270   5.259
59247SOL    HW279639  14.275   9.333   5.123
59248SOL     OW79640  11.453   5.445  14.021
59248SOL    HW179641  11.510   5.398  13.960
59248SOL    HW279642  11.384   5.382  14.042
59249SOL     OW79643   7.116   4.512  12.568
59249SOL    HW179644   7.128   4.485  12.477
59249SOL    HW279645   7.193   4.476  12.613
59250SOL     OW79646  11.441   6.606   8.873
59250SOL    HW179647  11.492   6.663   8.816
59250SOL    HW279648  11.350   6.627   8.854
59251SOL     OW79649   7.579   0.129   9.495
59251SOL    HW179650   7.533   0.074   9.559
59251SOL    HW279651   7.534   0.214   9.499
59252SOL     OW79652   5.037   0.469   6.477
59252SOL    HW179653   4.965   0.448   6.417
59252SOL    HW279654   5.115   0.468   6.421
59253SOL     OW79655   2.893   0.065   1.198
59253SOL    HW179656   2.948  14.862   1.208
59253SOL    HW279657   2.807   0.031   1.175
59254SOL     OW79658   2.099   4.652  10.275
59254SOL    HW179659   2.173   4.696  10.317
59254SOL    HW279660   2.025   4.712  10.287
59255SOL     OW79661  12.421  10.350   0.431
59255SOL    HW179662  12.511  10.373   0.409
59255SOL    HW279663  12.386  10.310   0.352
59256SOL     OW79664   2.028   1.680   2.672
59256SOL    HW179665   2.085   1.619   2.624
59256SOL    HW279666   2.065   1.767   2.652
59257SOL     OW79667   0.678   9.912   0.203
59257SOL    HW179668   0.583   9.911   0.194
59257SOL    HW279669   0.709   9.846   0.140
59258SOL     OW79670   9.481   7.181  14.613
59258SOL    HW179671   9.477   7.206  14.705
59258SOL    HW279672   9.440   7.254  14.567
59259SOL     OW79673  13.227   7.735   4.790
59259SOL    HW179674  13.208   7.670   4.857
59259SOL    HW279675  13.197   7.695   4.708
59260SOL     OW79676  10.858   2.120   7.448
59260SOL    HW179677  10.846   2.202   7.400
59260SOL    HW279678  10.860   2.146   7.540
59261SOL     OW79679   3.513   9.057  11.332
59261SOL    HW179680   3.439   9.066  11.393
59261SOL    HW279681   3.476   9.016  11.254
59262SOL     OW79682  10.496  14.646  14.193
59262SOL    HW179683  10.515  14.738  14.174
59262SOL    HW279684  10.433  14.649  14.265
59263SOL     OW79685  14.615  14.855   0.621
59263SOL    HW179686  14.613   0.033   0.700
59263SOL    HW279687  14.687   0.015   0.569
59264SOL     OW79688   7.348  12.490   7.612
59264SOL    HW179689   7.270  12.518   7.565
59264SOL    HW279690   7.353  12.549   7.687
59265SOL     OW79691   3.559   3.330   9.619
59265SOL    HW179692   3.619   3.322   9.693
59265SOL    HW279693   3.579   3.254   9.563
59266SOL     OW79694   5.238   0.351   1.563
59266SOL    HW179695   5.188   0.426   1.595
59266SOL    HW279696   5.323   0.359   1.607
59267SOL     OW79697  11.222   6.005   4.078
59267SOL    HW179698  11.279   6.082   4.088
59267SOL    HW279699  11.281   5.930   4.090
59268SOL     OW79700   1.119  12.545  12.951
59268SOL    HW179701   1.196  12.574  12.902
59268SOL    HW279702   1.144  12.555  13.043
59269SOL     OW79703  11.343  13.885  11.217
59269SOL    HW179704  11.388  13.962  11.252
59269SOL    HW279705  11.283  13.919  11.151
59270SOL     OW79706   3.856  11.956   1.979
59270SOL    HW179707   3.862  11.886   2.044
59270SOL    HW279708   3.776  12.004   2.002
59271SOL     OW79709   9.971  12.664  13.127
59271SOL    HW179710   9.890  12.695  13.085
59271SOL    HW279711  10.039  12.720  13.091
59272SOL     OW79712   1.170   8.605   6.142
59272SOL    HW179713   1.098   8.549   6.171
59272SOL    HW279714   1.199   8.567   6.059
59273SOL     OW79715   7.797   7.124   2.813
59273SOL    HW179716   7.714   7.077   2.808
59273SOL    HW279717   7.840   7.088   2.890
59274SOL     OW79718  10.356  13.919  10.878
59274SOL    HW179719  10.284  13.962  10.833
59274SOL    HW279720  10.424  13.986  10.884
59275SOL     OW79721  12.633   1.863   7.792
59275SOL    HW179722  12.680   1.802   7.850
59275SOL    HW279723  12.541   1.844   7.807
59276SOL     OW79724   3.264   4.233  14.060
59276SOL    HW179725   3.342   4.287  14.072
59276SOL    HW279726   3.191   4.295  14.056
59277SOL     OW79727   8.256   7.001   4.923
59277SOL    HW179728   8.235   6.915   4.960
59277SOL    HW279729   8.176   7.052   4.933
59278SOL     OW79730   9.637   0.469  10.847
59278SOL    HW179731   9.707   0.481  10.911
59278SOL    HW279732   9.677   0.415  10.778
59279SOL     OW79733  10.400   7.595  13.761
59279SOL    HW179734  10.426   7.549  13.841
59279SOL    HW279735  10.367   7.527  13.703
59280SOL     OW79736   9.609   1.100   2.413
59280SOL    HW179737   9.697   1.121   2.380
59280SOL    HW279738   9.616   1.109   2.508
59281SOL     OW79739   4.474   1.841   7.589
59281SOL    HW179740   4.396   1.794   7.616
59281SOL    HW279741   4.504   1.794   7.510
59282SOL     OW79742   7.730   5.967   5.718
59282SOL    HW179743   7.679   5.922   5.785
59282SOL    HW279744   7.754   6.050   5.758
59283SOL     OW79745   8.341  12.563   9.076
59283SOL    HW179746   8.250  12.591   9.081
59283SOL    HW279747   8.341  12.475   9.113
59284SOL     OW79748  11.838  11.784   4.542
59284SOL    HW179749  11.921  11.765   4.586
59284SOL    HW279750  11.861  11.849   4.475
59285SOL     OW79751   6.945   4.885  10.583
59285SOL    HW179752   6.902   4.871  10.668
59285SOL    HW279753   6.937   4.979  10.568
59286SOL     OW79754   3.841  12.406   0.668
59286SOL    HW179755   3.905  12.341   0.697
59286SOL    HW279756   3.893  12.475   0.627
59287SOL     OW79757   7.050   3.955  10.346
59287SOL    HW179758   7.033   4.039  10.389
59287SOL    HW279759   6.967   3.908  10.352
59288SOL     OW79760  11.163   1.626   9.647
59288SOL    HW179761  11.201   1.707   9.614
59288SOL    HW279762  11.186   1.624   9.740
59289SOL     OW79763   9.683   8.931  10.117
59289SOL    HW179764   9.614   8.880  10.158
59289SOL    HW279765   9.759   8.872  10.115
59290SOL     OW79766  10.933   5.367   0.929
59290SOL    HW179767  10.894   5.292   0.883
59290SOL    HW279768  10.870   5.438   0.918
59291SOL     OW79769   1.577  10.237   3.007
59291SOL    HW179770   1.657  10.217   3.055
59291SOL    HW279771   1.597  10.215   2.916
59292SOL     OW79772   6.310  11.040   1.462
59292SOL    HW179773   6.355  10.977   1.518
59292SOL    HW279774   6.340  11.125   1.493
59293SOL     OW79775   2.874   5.235   9.253
59293SOL    HW179776   2.898   5.142   9.244
59293SOL    HW279777   2.779   5.234   9.264
59294SOL     OW79778  12.919   9.832  14.502
59294SOL    HW179779  12.981   9.759  14.503
59294SOL    HW279780  12.838   9.794  14.469
59295SOL     OW79781   6.973   1.447   0.380
59295SOL    HW179782   7.008   1.449   0.291
59295SOL    HW279783   7.015   1.520   0.425
59296SOL     OW79784  12.119  13.375   8.541
59296SOL    HW179785  12.139  13.302   8.482
59296SOL    HW279786  12.118  13.336   8.629
59297SOL     OW79787   3.721  14.268   5.765
59297SOL    HW179788   3.626  14.267   5.778
59297SOL    HW279789   3.739  14.185   5.720
59298SOL     OW79790  10.231   2.015   2.233
59298SOL    HW179791  10.173   1.977   2.299
59298SOL    HW279792  10.188   2.097   2.208
59299SOL     OW79793   3.239   3.350   6.085
59299SOL    HW179794   3.259   3.441   6.104
59299SOL    HW279795   3.144   3.344   6.091
59300SOL     OW79796   7.771   0.453   4.807
59300SOL    HW179797   7.743   0.437   4.717
59300SOL    HW279798   7.817   0.536   4.804
59301SOL     OW79799   7.946  12.016   5.246
59301SOL    HW179800   7.885  11.960   5.293
59301SOL    HW279801   7.975  11.962   5.172
59302SOL     OW79802   1.697   2.326   0.460
59302SOL    HW179803   1.674   2.276   0.538
59302SOL    HW279804   1.614   2.364   0.431
59303SOL     OW79805   7.118   0.029   0.958
59303SOL    HW179806   7.131   0.069   1.044
59303SOL    HW279807   7.024   0.011   0.954
59304SOL     OW79808   0.532   3.125   2.938
59304SOL    HW179809   0.533   3.181   3.015
59304SOL    HW279810   0.473   3.053   2.961
59305SOL     OW79811   3.241   6.174   4.311
59305SOL    HW179812   3.331   6.146   4.329
59305SOL    HW279813   3.190   6.138   4.384
59306SOL     OW79814   1.192   6.497   6.528
59306SOL    HW179815   1.152   6.470   6.610
59306SOL    HW279816   1.130   6.470   6.460
59307SOL     OW79817   0.505  14.192   0.434
59307SOL    HW179818   0.444  14.264   0.417
59307SOL    HW279819   0.467  14.146   0.509
59308SOL     OW79820   2.584  13.195   5.387
59308SOL    HW179821   2.523  13.145   5.440
59308SOL    HW279822   2.671  13.164   5.415
59309SOL     OW79823  14.562   2.264   2.839
59309SOL    HW179824  14.576   2.169   2.847
59309SOL    HW279825  14.564   2.296   2.930
59310SOL     OW79826  10.645   7.892   3.598
59310SOL    HW179827  10.669   7.799   3.592
59310SOL    HW279828  10.591   7.908   3.521
59311SOL     OW79829  13.159   9.069   5.290
59311SOL    HW179830  13.142   9.044   5.199
59311SOL    HW279831  13.152   9.164   5.291
59312SOL     OW79832   6.553  11.632   5.238
59312SOL    HW179833   6.617  11.565   5.216
59312SOL    HW279834   6.473  11.583   5.259
59313SOL     OW79835   0.135  13.521   5.736
59313SOL    HW179836   0.138  13.552   5.646
59313SOL    HW279837   0.102  13.431   5.730
59314SOL     OW79838   5.076   3.451   3.925
59314SOL    HW179839   5.160   3.495   3.910
59314SOL    HW279840   5.092   3.361   3.899
59315SOL     OW79841  10.654   3.079   3.253
59315SOL    HW179842  10.637   3.161   3.299
59315SOL    HW279843  10.711   3.103   3.180
59316SOL     OW79844  12.009   2.566  14.801
59316SOL    HW179845  12.063   2.606  14.870
59316SOL    HW279846  11.957   2.638  14.766
59317SOL     OW79847   5.781  12.226   7.745
59317SOL    HW179848   5.839  12.209   7.670
59317SOL    HW279849   5.741  12.141   7.763
59318SOL     OW79850   4.753  11.012   5.971
59318SOL    HW179851   4.808  11.000   5.893
59318SOL    HW279852   4.668  10.977   5.945
59319SOL     OW79853   3.357   9.065   5.494
59319SOL    HW179854   3.277   9.013   5.495
59319SOL    HW279855   3.340   9.135   5.430
59320SOL     OW79856   3.111   5.801   1.045
59320SOL    HW179857   3.143   5.792   1.135
59320SOL    HW279858   3.026   5.845   1.055
59321SOL     OW79859  11.824  10.267   3.844
59321SOL    HW179860  11.894  10.244   3.782
59321SOL    HW279861  11.745  10.270   3.791
59322SOL     OW79862   1.801   8.996  12.861
59322SOL    HW179863   1.760   9.062  12.917
59322SOL    HW279864   1.782   8.913  12.903
59323SOL     OW79865   2.163   9.121   4.923
59323SOL    HW179866   2.126   9.129   5.011
59323SOL    HW279867   2.257   9.115   4.937
59324SOL     OW79868   4.137   0.938   3.168
59324SOL    HW179869   4.108   0.948   3.259
59324SOL    HW279870   4.138   0.843   3.153
59325SOL     OW79871   4.246   7.762  10.474
59325SOL    HW179872   4.183   7.691  10.473
59325SOL    HW279873   4.215   7.823  10.406
59326SOL     OW79874   4.918   9.977   6.900
59326SOL    HW179875   5.010  10.004   6.902
59326SOL    HW279876   4.904   9.934   6.985
59327SOL     OW79877  14.511   9.432  14.741
59327SOL    HW179878  14.454   9.364  14.704
59327SOL    HW279879  14.469   9.514  14.719
59328SOL     OW79880   1.469   0.257   6.294
59328SOL    HW179881   1.396   0.197   6.302
59328SOL    HW279882   1.460   0.315   6.369
59329SOL     OW79883  12.789   0.780   0.334
59329SOL    HW179884  12.819   0.828   0.411
59329SOL    HW279885  12.833   0.822   0.260
59330SOL     OW79886   5.573   2.791   8.520
59330SOL    HW179887   5.642   2.729   8.499
59330SOL    HW279888   5.617   2.876   8.524
59331SOL     OW79889   4.271  11.213   5.845
59331SOL    HW179890   4.188  11.228   5.801
59331SOL    HW279891   4.306  11.301   5.860
59332SOL     OW79892  11.707  11.368   3.278
59332SOL    HW179893  11.672  11.394   3.364
59332SOL    HW279894  11.675  11.279   3.265
59333SOL     OW79895   9.146   0.344   7.179
59333SOL    HW179896   9.149   0.431   7.140
59333SOL    HW279897   9.122   0.286   7.107
59334SOL     OW79898   7.040   3.161   8.172
59334SOL    HW179899   7.020   3.077   8.214
59334SOL    HW279900   7.123   3.145   8.127
59335SOL     OW79901   0.495  14.569   3.397
59335SOL    HW179902   0.546  14.626   3.339
59335SOL    HW279903   0.509  14.605   3.484
59336SOL     OW79904  14.124  10.283  13.916
59336SOL    HW179905  14.077  10.328  13.986
59336SOL    HW279906  14.096  10.327  13.836
59337SOL     OW79907   3.440  11.613   5.148
59337SOL    HW179908   3.486  11.695   5.133
59337SOL    HW279909   3.508  11.546   5.145
59338SOL     OW79910  10.009  13.838  12.538
59338SOL    HW179911  10.063  13.818  12.461
59338SOL    HW279912  10.071  13.846  12.610
59339SOL     OW79913   1.735  10.563   6.660
59339SOL    HW179914   1.819  10.609   6.671
59339SOL    HW279915   1.669  10.631   6.676
59340SOL     OW79916   1.057   4.232   7.324
59340SOL    HW179917   1.058   4.139   7.299
59340SOL    HW279918   1.005   4.233   7.405
59341SOL     OW79919   1.526   5.786   4.325
59341SOL    HW179920   1.506   5.788   4.419
59341SOL    HW279921   1.614   5.822   4.319
59342SOL     OW79922  12.632   1.690   6.697
59342SOL    HW179923  12.647   1.778   6.730
59342SOL    HW279924  12.713   1.643   6.715
59343SOL     OW79925   0.904  14.152   9.569
59343SOL    HW179926   0.932  14.176   9.658
59343SOL    HW279927   0.840  14.218   9.545
59344SOL     OW79928  11.256   0.688  14.165
59344SOL    HW179929  11.300   0.602  14.159
59344SOL    HW279930  11.231   0.695  14.257
59345SOL     OW79931   9.505  10.471   6.607
59345SOL    HW179932   9.412  10.451   6.617
59345SOL    HW279933   9.509  10.566   6.598
59346SOL     OW79934   9.384   1.064  14.766
59346SOL    HW179935   9.405   1.157  14.760
59346SOL    HW279936   9.369   1.049  14.860
59347SOL     OW79937   4.469  14.790   4.397
59347SOL    HW179938   4.563  14.805   4.413
59347SOL    HW279939   4.426  14.866   4.437
59348SOL     OW79940   2.012   0.752  11.565
59348SOL    HW179941   1.929   0.708  11.584
59348SOL    HW279942   2.037   0.719  11.479
59349SOL     OW79943  13.650   6.728   3.497
59349SOL    HW179944  13.642   6.716   3.592
59349SOL    HW279945  13.599   6.656   3.460
59350SOL     OW79946   0.886   8.589   9.345
59350SOL    HW179947   0.952   8.627   9.403
59350SOL    HW279948   0.936   8.538   9.282
59351SOL     OW79949   7.485   4.598   1.190
59351SOL    HW179950   7.576   4.590   1.160
59351SOL    HW279951   7.475   4.528   1.256
59352SOL     OW79952   0.834   6.715  12.707
59352SOL    HW179953   0.918   6.758  12.728
59352SOL    HW279954   0.771   6.759  12.764
59353SOL     OW79955  11.543  14.425  11.289
59353SOL    HW179956  11.634  14.444  11.312
59353SOL    HW279957  11.539  14.329  11.283
59354SOL     OW79958  11.972   9.556  10.904
59354SOL    HW179959  12.050   9.522  10.861
59354SOL    HW279960  11.938   9.623  10.844
59355SOL     OW79961   0.218  12.742   8.208
59355SOL    HW179962   0.199  12.680   8.278
59355SOL    HW279963   0.273  12.808   8.248
59356SOL     OW79964   7.373  12.638  12.191
59356SOL    HW179965   7.361  12.700  12.120
59356SOL    HW279966   7.464  12.651  12.220
59357SOL     OW79967   4.763   8.618   9.253
59357SOL    HW179968   4.778   8.710   9.232
59357SOL    HW279969   4.676   8.599   9.219
59358SOL     OW79970   8.997   5.146   2.103
59358SOL    HW179971   9.035   5.214   2.158
59358SOL    HW279972   8.934   5.192   2.047
59359SOL     OW79973  12.086   6.088   4.437
59359SOL    HW179974  12.152   6.087   4.506
59359SOL    HW279975  12.135   6.109   4.358
59360SOL     OW79976   2.307  11.174   8.433
59360SOL    HW179977   2.251  11.161   8.510
59360SOL    HW279978   2.248  11.160   8.359
59361SOL     OW79979   9.270   3.989  11.678
59361SOL    HW179980   9.221   4.050  11.622
59361SOL    HW279981   9.326   3.940  11.618
59362SOL     OW79982   3.262  13.186   6.010
59362SOL    HW179983   3.355  13.205   5.997
59362SOL    HW279984   3.253  13.171   6.104
59363SOL     OW79985   3.876   3.676   1.902
59363SOL    HW179986   3.872   3.745   1.969
59363SOL    HW279987   3.937   3.612   1.937
59364SOL     OW79988   1.192   5.729   6.292
59364SOL    HW179989   1.267   5.671   6.284
59364SOL    HW279990   1.185   5.747   6.385
59365SOL     OW79991   1.312  11.752  13.574
59365SOL    HW179992   1.364  11.757  13.654
59365SOL    HW279993   1.324  11.662  13.543
59366SOL     OW79994   1.921   7.866  14.552
59366SOL    HW179995   1.848   7.910  14.508
59366SOL    HW279996   1.926   7.780  14.510
59367SOL     OW79997  10.972  10.246   6.600
59367SOL    HW179998  10.985  10.155   6.629
59367SOL    HW279999  11.048  10.263   6.544
59368SOL     OW80000  13.435  14.832  11.916
59368SOL    HW180001  13.506  14.798  11.861
59368SOL    HW280002  13.463   0.046  11.938
59369SOL     OW80003  14.749   8.185   8.105
59369SOL    HW180004  14.797   8.178   8.023
59369SOL    HW280005  14.814   8.219   8.167
59370SOL     OW80006   4.084  14.789   8.667
59370SOL    HW180007   4.094  14.810   8.760
59370SOL    HW280008   4.039  14.865   8.630
59371SOL     OW80009  14.116  13.948   4.900
59371SOL    HW180010  14.073  14.034   4.905
59371SOL    HW280011  14.050  13.891   4.861
59372SOL     OW80012   7.152  10.355   2.296
59372SOL    HW180013   7.221  10.400   2.247
59372SOL    HW280014   7.199  10.310   2.367
59373SOL     OW80015  10.861   3.503   4.719
59373SOL    HW180016  10.898   3.510   4.631
59373SOL    HW280017  10.881   3.587   4.760
59374SOL     OW80018   5.929   5.554   7.488
59374SOL    HW180019   5.847   5.548   7.440
59374SOL    HW280020   5.914   5.622   7.553
59375SOL     OW80021   6.403   4.293   3.207
59375SOL    HW180022   6.348   4.317   3.132
59375SOL    HW280023   6.428   4.377   3.245
59376SOL     OW80024   4.528   4.892   3.189
59376SOL    HW180025   4.537   4.854   3.276
59376SOL    HW280026   4.555   4.984   3.200
59377SOL     OW80027  13.621  11.812  12.698
59377SOL    HW180028  13.542  11.776  12.658
59377SOL    HW280029  13.595  11.829  12.789
59378SOL     OW80030   6.298   3.034  10.362
59378SOL    HW180031   6.206   3.035  10.386
59378SOL    HW280032   6.320   3.125  10.342
59379SOL     OW80033   9.712   8.133   9.372
59379SOL    HW180034   9.646   8.150   9.440
59379SOL    HW280035   9.719   8.037   9.370
59380SOL     OW80036  11.229  13.031   8.666
59380SOL    HW180037  11.163  12.977   8.624
59380SOL    HW280038  11.247  12.988   8.749
59381SOL     OW80039   8.887   8.213   4.827
59381SOL    HW180040   8.853   8.238   4.913
59381SOL    HW280041   8.822   8.246   4.765
59382SOL     OW80042   6.106  14.733   8.755
59382SOL    HW180043   6.083  14.714   8.664
59382SOL    HW280044   6.050  14.807   8.778
59383SOL     OW80045   6.647  12.907   0.659
59383SOL    HW180046   6.635  12.972   0.728
59383SOL    HW280047   6.728  12.861   0.682
59384SOL     OW80048  11.152  10.897  10.218
59384SOL    HW180049  11.151  10.830  10.150
59384SOL    HW280050  11.065  10.890  10.259
59385SOL     OW80051   8.434   6.297   8.858
59385SOL    HW180052   8.493   6.285   8.933
59385SOL    HW280053   8.397   6.210   8.843
59386SOL     OW80054  12.937   4.466  11.506
59386SOL    HW180055  12.990   4.410  11.449
59386SOL    HW280056  12.993   4.482  11.582
59387SOL     OW80057   7.917   8.512   4.956
59387SOL    HW180058   7.924   8.447   5.027
59387SOL    HW280059   8.007   8.526   4.928
59388SOL     OW80060  11.017   1.290   2.252
59388SOL    HW180061  10.933   1.267   2.289
59388SOL    HW280062  11.080   1.231   2.294
59389SOL     OW80063  12.266   2.426   7.539
59389SOL    HW180064  12.260   2.516   7.507
59389SOL    HW280065  12.183   2.410   7.582
59390SOL     OW80066  13.479  12.233  13.256
59390SOL    HW180067  13.528  12.203  13.180
59390SOL    HW280068  13.393  12.192  13.247
59391SOL     OW80069   5.760   6.186   8.705
59391SOL    HW180070   5.851   6.162   8.685
59391SOL    HW280071   5.760   6.282   8.700
59392SOL     OW80072   1.438   5.321   9.061
59392SOL    HW180073   1.383   5.327   9.139
59392SOL    HW280074   1.527   5.337   9.093
59393SOL     OW80075   5.389   6.159   6.863
59393SOL    HW180076   5.465   6.112   6.896
59393SOL    HW280077   5.352   6.202   6.939
59394SOL     OW80078   8.458   1.853  12.592
59394SOL    HW180079   8.512   1.789  12.639
59394SOL    HW280080   8.495   1.937  12.617
59395SOL     OW80081   6.210   1.597  12.434
59395SOL    HW180082   6.241   1.686  12.414
59395SOL    HW280083   6.267   1.567  12.505
59396SOL     OW80084   9.921   9.544   7.855
59396SOL    HW180085   9.950   9.453   7.857
59396SOL    HW280086   9.842   9.545   7.909
59397SOL     OW80087  12.942   7.185  10.698
59397SOL    HW180088  13.038   7.179  10.707
59397SOL    HW280089  12.919   7.111  10.642
59398SOL     OW80090   3.411  10.415   5.665
59398SOL    HW180091   3.317  10.434   5.660
59398SOL    HW280092   3.417  10.337   5.720
59399SOL     OW80093  12.349   7.928  11.272
59399SOL    HW180094  12.440   7.905  11.292
59399SOL    HW280095  12.322   7.983  11.345
59400SOL     OW80096   3.462   8.193   0.233
59400SOL    HW180097   3.471   8.194   0.328
59400SOL    HW280098   3.522   8.260   0.202
59401SOL     OW80099  11.116   2.749   7.100
59401SOL    HW180100  11.074   2.834   7.111
59401SOL    HW280101  11.163   2.734   7.182
59402SOL     OW80102  14.047   9.173   0.228
59402SOL    HW180103  14.008   9.114   0.163
59402SOL    HW280104  14.048   9.122   0.309
59403SOL     OW80105   0.674   3.742   7.107
59403SOL    HW180106   0.711   3.718   7.192
59403SOL    HW280107   0.600   3.799   7.128
59404SOL     OW80108   7.416  10.587  11.598
59404SOL    HW180109   7.405  10.507  11.649
59404SOL    HW280110   7.431  10.556  11.508
59405SOL     OW80111   7.042   1.343   7.603
59405SOL    HW180112   7.056   1.266   7.547
59405SOL    HW280113   6.954   1.330   7.639
59406SOL     OW80114   2.223   3.326  13.802
59406SOL    HW180115   2.180   3.409  13.825
59406SOL    HW280116   2.203   3.268  13.875
59407SOL     OW80117  11.714   8.531  11.852
59407SOL    HW180118  11.710   8.514  11.758
59407SOL    HW280119  11.803   8.508  11.877
59408SOL     OW80120  12.740  12.019   9.380
59408SOL    HW180121  12.827  12.058   9.388
59408SOL    HW280122  12.679  12.092   9.387
59409SOL     OW80123  13.759   6.452   4.008
59409SOL    HW180124  13.725   6.533   4.046
59409SOL    HW280125  13.854   6.463   4.008
59410SOL     OW80126   0.620   0.627   5.887
59410SOL    HW180127   0.587   0.674   5.811
59410SOL    HW280128   0.543   0.587   5.927
59411SOL     OW80129  14.369   7.849   2.854
59411SOL    HW180130  14.296   7.787   2.860
59411SOL    HW280131  14.437   7.801   2.808
59412SOL     OW80132  13.488  11.195  10.273
59412SOL    HW180133  13.489  11.172  10.180
59412SOL    HW280134  13.433  11.128  10.314
59413SOL     OW80135   6.441   4.377   1.988
59413SOL    HW180136   6.501   4.374   2.062
59413SOL    HW280137   6.355   4.393   2.027
59414SOL     OW80138  10.153  10.647   1.406
59414SOL    HW180139  10.115  10.588   1.471
59414SOL    HW280140  10.079  10.673   1.351
59415SOL     OW80141   4.868  12.320   9.200
59415SOL    HW180142   4.810  12.257   9.156
59415SOL    HW280143   4.929  12.266   9.250
59416SOL     OW80144  11.784   2.949   9.879
59416SOL    HW180145  11.726   3.005   9.931
59416SOL    HW280146  11.869   2.954   9.924
59417SOL     OW80147   9.062   0.475   1.338
59417SOL    HW180148   8.995   0.443   1.398
59417SOL    HW280149   9.074   0.404   1.275
59418SOL     OW80150  13.005   4.826   7.682
59418SOL    HW180151  12.912   4.835   7.701
59418SOL    HW280152  13.020   4.879   7.604
59419SOL     OW80153  11.931   3.774   6.470
59419SOL    HW180154  11.951   3.801   6.559
59419SOL    HW280155  12.009   3.728   6.440
59420SOL     OW80156  12.883   3.835   2.260
59420SOL    HW180157  12.857   3.747   2.287
59420SOL    HW280158  12.953   3.821   2.196
59421SOL     OW80159  12.539   7.248   4.687
59421SOL    HW180160  12.480   7.198   4.743
59421SOL    HW280161  12.492   7.328   4.666
59422SOL     OW80162   6.630  13.086  10.512
59422SOL    HW180163   6.552  13.031  10.519
59422SOL    HW280164   6.669  13.082  10.600
59423SOL     OW80165  14.836  12.301   5.003
59423SOL    HW180166  14.782  12.301   5.082
59423SOL    HW280167  14.802  12.229   4.950
59424SOL     OW80168   3.195  10.093   7.525
59424SOL    HW180169   3.242  10.086   7.608
59424SOL    HW280170   3.234  10.026   7.470
59425SOL     OW80171   2.993   3.870   1.631
59425SOL    HW180172   2.980   3.775   1.635
59425SOL    HW280173   3.034   3.885   1.546
59426SOL     OW80174  14.102   7.736   8.325
59426SOL    HW180175  14.141   7.791   8.257
59426SOL    HW280176  14.022   7.782   8.349
59427SOL     OW80177   4.651   0.832  12.445
59427SOL    HW180178   4.699   0.757  12.410
59427SOL    HW280179   4.630   0.886  12.368
59428SOL     OW80180   8.867  12.363   1.501
59428SOL    HW180181   8.773  12.381   1.500
59428SOL    HW280182   8.904  12.434   1.554
59429SOL     OW80183  12.682  13.696  12.748
59429SOL    HW180184  12.723  13.731  12.669
59429SOL    HW280185  12.600  13.746  12.757
59430SOL     OW80186   8.429   4.244  14.384
59430SOL    HW180187   8.375   4.177  14.426
59430SOL    HW280188   8.518   4.225  14.413
59431SOL     OW80189  13.009  10.825  13.854
59431SOL    HW180190  13.095  10.833  13.812
59431SOL    HW280191  12.981  10.736  13.834
59432SOL     OW80192   1.360   4.271  12.055
59432SOL    HW180193   1.448   4.306  12.069
59432SOL    HW280194   1.350   4.202  12.120
59433SOL     OW80195  10.561  10.243  10.879
59433SOL    HW180196  10.564  10.185  10.956
59433SOL    HW280197  10.605  10.193  10.810
59434SOL     OW80198   2.372   2.562   7.397
59434SOL    HW180199   2.432   2.637   7.389
59434SOL    HW280200   2.308   2.590   7.462
59435SOL     OW80201  14.415   3.978  10.637
59435SOL    HW180202  14.504   3.972  10.603
59435SOL    HW280203  14.361   4.002  10.562
59436SOL     OW80204   2.700   6.787   3.465
59436SOL    HW180205   2.774   6.791   3.404
59436SOL    HW280206   2.647   6.715   3.432
59437SOL     OW80207   8.503  12.877   4.576
59437SOL    HW180208   8.576  12.825   4.541
59437SOL    HW280209   8.530  12.968   4.560
59438SOL     OW80210  14.572   5.955   8.706
59438SOL    HW180211  14.643   5.890   8.714
59438SOL    HW280212  14.568   5.996   8.793
59439SOL     OW80213   7.511  14.283   3.828
59439SOL    HW180214   7.515  14.338   3.749
59439SOL    HW280215   7.530  14.195   3.795
59440SOL     OW80216  14.600  10.413  14.706
59440SOL    HW180217  14.565  10.490  14.662
59440SOL    HW280218  14.660  10.374  14.642
59441SOL     OW80219  11.571   4.912   9.626
59441SOL    HW180220  11.584   4.856   9.703
59441SOL    HW280221  11.650   4.965   9.623
59442SOL     OW80222   8.094   6.649   6.381
59442SOL    HW180223   8.160   6.585   6.354
59442SOL    HW280224   8.035   6.599   6.438
59443SOL     OW80225  12.890  11.077   3.424
59443SOL    HW180226  12.888  11.158   3.373
59443SOL    HW280227  12.807  11.077   3.472
59444SOL     OW80228   0.437   2.992   7.723
59444SOL    HW180229   0.471   3.077   7.697
59444SOL    HW280230   0.511   2.932   7.716
59445SOL     OW80231   0.469   0.243  12.974
59445SOL    HW180232   0.449   0.150  12.983
59445SOL    HW280233   0.406   0.275  12.911
59446SOL     OW80234   1.610   4.105   5.623
59446SOL    HW180235   1.659   4.099   5.705
59446SOL    HW280236   1.662   4.056   5.559
59447SOL     OW80237  14.231   5.817   8.576
59447SOL    HW180238  14.195   5.812   8.665
59447SOL    HW280239  14.212   5.732   8.538
59448SOL     OW80240   6.859   5.826   4.393
59448SOL    HW180241   6.931   5.786   4.344
59448SOL    HW280242   6.826   5.895   4.335
59449SOL     OW80243   6.632   2.669   7.345
59449SOL    HW180244   6.711   2.663   7.398
59449SOL    HW280245   6.614   2.763   7.338
59450SOL     OW80246   6.387   8.364   8.816
59450SOL    HW180247   6.465   8.417   8.801
59450SOL    HW280248   6.395   8.291   8.754
59451SOL     OW80249   8.327   7.627  12.320
59451SOL    HW180250   8.420   7.627  12.298
59451SOL    HW280251   8.312   7.542  12.362
59452SOL     OW80252   9.338  11.670  14.481
59452SOL    HW180253   9.407  11.607  14.461
59452SOL    HW280254   9.349  11.687  14.575
59453SOL     OW80255   3.216   1.874   0.018
59453SOL    HW180256   3.207   1.962  14.856
59453SOL    HW280257   3.309   1.865   0.038
59454SOL     OW80258   8.413   6.561   1.509
59454SOL    HW180259   8.431   6.618   1.434
59454SOL    HW280260   8.386   6.478   1.471
59455SOL     OW80261  14.469   6.553   9.096
59455SOL    HW180262  14.441   6.636   9.134
59455SOL    HW280263  14.559   6.569   9.069
59456SOL     OW80264   2.882   1.570  11.018
59456SOL    HW180265   2.950   1.540  11.078
59456SOL    HW280266   2.883   1.665  11.025
59457SOL     OW80267  13.716  12.010  12.292
59457SOL    HW180268  13.624  11.993  12.314
59457SOL    HW280269  13.735  12.094  12.334
59458SOL     OW80270   9.896   1.454  11.086
59458SOL    HW180271   9.827   1.420  11.029
59458SOL    HW280272   9.975   1.451  11.032
59459SOL     OW80273   3.578   5.103   9.446
59459SOL    HW180274   3.555   5.123   9.355
59459SOL    HW280275   3.672   5.115   9.451
59460SOL     OW80276   1.162  10.602  10.531
59460SOL    HW180277   1.248  10.617  10.569
59460SOL    HW280278   1.103  10.661  10.578
59461SOL     OW80279  10.853   4.923  14.033
59461SOL    HW180280  10.765   4.899  14.062
59461SOL    HW280281  10.895   4.839  14.013
59462SOL     OW80282   7.066   1.617  13.169
59462SOL    HW180283   7.103   1.529  13.177
59462SOL    HW280284   7.142   1.675  13.171
59463SOL     OW80285  13.137   3.523   6.816
59463SOL    HW180286  13.096   3.492   6.897
59463SOL    HW280287  13.137   3.447   6.758
59464SOL     OW80288   7.800   1.607  12.520
59464SOL    HW180289   7.733   1.620  12.452
59464SOL    HW280290   7.751   1.604  12.602
59465SOL     OW80291  14.307  10.582   0.044
59465SOL    HW180292  14.371  10.602   0.112
59465SOL    HW280293  14.329  10.492   0.017
59466SOL     OW80294   1.476   8.577   4.085
59466SOL    HW180295   1.475   8.672   4.074
59466SOL    HW280296   1.472   8.543   3.995
59467SOL     OW80297   5.941  10.747  11.080
59467SOL    HW180298   6.011  10.795  11.035
59467SOL    HW280299   5.986  10.672  11.119
59468SOL     OW80300  13.901   2.883  11.243
59468SOL    HW180301  13.927   2.889  11.152
59468SOL    HW280302  13.889   2.790  11.259
59469SOL     OW80303  10.419   8.657   2.990
59469SOL    HW180304  10.339   8.638   3.038
59469SOL    HW280305  10.476   8.698   3.055
59470SOL     OW80306   4.961   1.052   5.650
59470SOL    HW180307   5.035   1.068   5.709
59470SOL    HW280308   4.944   0.958   5.658
59471SOL     OW80309   2.889   1.806  10.395
59471SOL    HW180310   2.945   1.829  10.321
59471SOL    HW280311   2.949   1.804  10.470
59472SOL     OW80312  10.250   5.100   8.890
59472SOL    HW180313  10.183   5.159   8.923
59472SOL    HW280314  10.206   5.016   8.879
59473SOL     OW80315   7.497   9.352   3.523
59473SOL    HW180316   7.514   9.289   3.452
59473SOL    HW280317   7.514   9.302   3.603
59474SOL     OW80318   7.739  13.551  10.347
59474SOL    HW180319   7.722  13.584  10.435
59474SOL    HW280320   7.778  13.624  10.299
59475SOL     OW80321  13.003   5.546   6.368
59475SOL    HW180322  12.937   5.507   6.425
59475SOL    HW280323  12.996   5.640   6.385
59476SOL     OW80324   6.225   1.425   9.793
59476SOL    HW180325   6.165   1.373   9.847
59476SOL    HW280326   6.309   1.379   9.799
59477SOL     OW80327   9.681   6.604   0.666
59477SOL    HW180328   9.622   6.676   0.689
59477SOL    HW280329   9.623   6.528   0.656
59478SOL     OW80330  10.771  13.749   1.079
59478SOL    HW180331  10.740  13.658   1.088
59478SOL    HW280332  10.857  13.741   1.039
59479SOL     OW80333  13.647  13.266  14.695
59479SOL    HW180334  13.712  13.322  14.652
59479SOL    HW280335  13.695  13.187  14.719
59480SOL     OW80336   6.758  13.267  12.766
59480SOL    HW180337   6.793  13.355  12.785
59480SOL    HW280338   6.681  13.284  12.712
59481SOL     OW80339   1.764   3.614   5.388
59481SOL    HW180340   1.812   3.592   5.468
59481SOL    HW280341   1.697   3.675   5.418
59482SOL     OW80342  12.711   6.435  11.498
59482SOL    HW180343  12.775   6.428  11.569
59482SOL    HW280344  12.665   6.517  11.516
59483SOL     OW80345   9.480   9.187  10.772
59483SOL    HW180346   9.471   9.093  10.758
59483SOL    HW280347   9.497   9.222  10.684
59484SOL     OW80348  14.422  10.235   6.157
59484SOL    HW180349  14.423  10.313   6.101
59484SOL    HW280350  14.376  10.169   6.105
59485SOL     OW80351   1.959   2.817   9.398
59485SOL    HW180352   2.004   2.776   9.324
59485SOL    HW280353   2.024   2.818   9.468
59486SOL     OW80354   5.176   2.133   1.417
59486SOL    HW180355   5.126   2.080   1.478
59486SOL    HW280356   5.224   2.070   1.363
59487SOL     OW80357   9.541   7.626   4.863
59487SOL    HW180358   9.557   7.536   4.895
59487SOL    HW280359   9.461   7.653   4.908
59488SOL     OW80360   8.395  12.501   4.780
59488SOL    HW180361   8.324  12.543   4.828
59488SOL    HW280362   8.406  12.416   4.823
59489SOL     OW80363   1.735  12.464   7.619
59489SOL    HW180364   1.796  12.465   7.693
59489SOL    HW280365   1.648  12.456   7.658
59490SOL     OW80366   0.687   3.823  13.128
59490SOL    HW180367   0.716   3.912  13.144
59490SOL    HW280368   0.593   3.824  13.147
59491SOL     OW80369  14.805   6.389  11.760
59491SOL    HW180370  14.720   6.359  11.793
59491SOL    HW280371  14.815   6.476  11.798
59492SOL     OW80372  10.263  11.106   6.062
59492SOL    HW180373  10.316  11.145   6.132
59492SOL    HW280374  10.327  11.065   6.004
59493SOL     OW80375   6.049  11.586  13.509
59493SOL    HW180376   6.046  11.649  13.437
59493SOL    HW280377   6.122  11.528  13.487
59494SOL     OW80378  12.874   8.773   7.910
59494SOL    HW180379  12.885   8.810   7.998
59494SOL    HW280380  12.899   8.681   7.919
59495SOL     OW80381  12.242   8.893   2.861
59495SOL    HW180382  12.159   8.939   2.863
59495SOL    HW280383  12.221   8.803   2.887
59496SOL     OW80384   6.880   6.367   7.269
59496SOL    HW180385   6.861   6.439   7.209
59496SOL    HW280386   6.839   6.290   7.229
59497SOL     OW80387   3.035  14.246   2.570
59497SOL    HW180388   3.109  14.193   2.540
59497SOL    HW280389   3.035  14.322   2.511
59498SOL     OW80390   5.606   9.646   4.986
59498SOL    HW180391   5.652   9.563   4.975
59498SOL    HW280392   5.675   9.712   4.987
59499SOL     OW80393  12.002  10.899   9.133
59499SOL    HW180394  12.000  10.965   9.063
59499SOL    HW280395  12.086  10.854   9.121
59500SOL     OW80396   6.324   0.585  14.636
59500SOL    HW180397   6.311   0.558  14.726
59500SOL    HW280398   6.396   0.649  14.640
59501SOL     OW80399   9.723   2.336   4.898
59501SOL    HW180400   9.774   2.364   4.974
59501SOL    HW280401   9.722   2.413   4.840
59502SOL     OW80402   5.508   5.675   1.311
59502SOL    HW180403   5.435   5.612   1.307
59502SOL    HW280404   5.580   5.625   1.349
59503SOL     OW80405  10.008   7.430   9.325
59503SOL    HW180406   9.935   7.384   9.283
59503SOL    HW280407  10.025   7.381   9.405
59504SOL     OW80408   9.936  11.615  10.198
59504SOL    HW180409   9.938  11.676  10.124
59504SOL    HW280410   9.984  11.660  10.268
59505SOL     OW80411  10.444   1.393   1.273
59505SOL    HW180412  10.523   1.349   1.304
59505SOL    HW280413  10.470   1.438   1.193
59506SOL     OW80414   1.238   4.962  13.394
59506SOL    HW180415   1.171   4.901  13.426
59506SOL    HW280416   1.200   4.999  13.314
59507SOL     OW80417   6.973  10.123  10.305
59507SOL    HW180418   6.888  10.164  10.288
59507SOL    HW280419   6.953  10.029  10.307
59508SOL     OW80420   9.778   4.357   2.069
59508SOL    HW180421   9.853   4.412   2.094
59508SOL    HW280422   9.705   4.391   2.121
59509SOL     OW80423   5.764   2.889   9.015
59509SOL    HW180424   5.746   2.967   8.962
59509SOL    HW280425   5.860   2.883   9.018
59510SOL     OW80426   4.145   0.626   1.597
59510SOL    HW180427   4.236   0.612   1.569
59510SOL    HW280428   4.134   0.721   1.595
59511SOL     OW80429  10.264   1.766  12.098
59511SOL    HW180430  10.314   1.742  12.020
59511SOL    HW280431  10.240   1.683  12.138
59512SOL     OW80432   3.706   1.249   7.554
59512SOL    HW180433   3.770   1.260   7.625
59512SOL    HW280434   3.631   1.301   7.581
59513SOL     OW80435   8.807   6.641   6.196
59513SOL    HW180436   8.819   6.550   6.224
59513SOL    HW280437   8.750   6.679   6.263
59514SOL     OW80438   4.151  11.041  10.094
59514SOL    HW180439   4.164  10.946  10.101
59514SOL    HW280440   4.185  11.063  10.007
59515SOL     OW80441  14.509   2.612   8.041
59515SOL    HW180442  14.469   2.565   7.968
59515SOL    HW280443  14.435   2.643   8.093
59516SOL     OW80444   4.589   3.994   4.371
59516SOL    HW180445   4.568   3.939   4.446
59516SOL    HW280446   4.597   3.933   4.298
59517SOL     OW80447   2.612  13.976  12.636
59517SOL    HW180448   2.584  13.982  12.545
59517SOL    HW280449   2.543  13.927  12.680
59518SOL     OW80450  14.352   8.905   9.823
59518SOL    HW180451  14.261   8.925   9.846
59518SOL    HW280452  14.402   8.931   9.901
59519SOL     OW80453   4.274  12.194  13.010
59519SOL    HW180454   4.227  12.271  12.977
59519SOL    HW280455   4.244  12.184  13.100
59520SOL     OW80456   6.581  10.458   7.129
59520SOL    HW180457   6.539  10.459   7.215
59520SOL    HW280458   6.514  10.426   7.070
59521SOL     OW80459   5.700   2.804  14.624
59521SOL    HW180460   5.642   2.878  14.644
59521SOL    HW280461   5.745   2.830  14.543
59522SOL     OW80462   3.016   8.713  13.784
59522SOL    HW180463   3.009   8.784  13.719
59522SOL    HW280464   2.969   8.746  13.860
59523SOL     OW80465   3.128   5.871   9.551
59523SOL    HW180466   3.134   5.781   9.584
59523SOL    HW280467   3.047   5.904   9.588
59524SOL     OW80468   8.682  12.906   1.264
59524SOL    HW180469   8.639  12.925   1.181
59524SOL    HW280470   8.611  12.876   1.321
59525SOL     OW80471  14.329  10.052   1.595
59525SOL    HW180472  14.411  10.032   1.639
59525SOL    HW280473  14.319  10.147   1.604
59526SOL     OW80474   8.561  11.186   3.917
59526SOL    HW180475   8.513  11.109   3.886
59526SOL    HW280476   8.498  11.258   3.910
59527SOL     OW80477  11.434  13.186  12.682
59527SOL    HW180478  11.350  13.226  12.706
59527SOL    HW280479  11.423  13.161  12.590
59528SOL     OW80480   1.326   8.795  11.758
59528SOL    HW180481   1.230   8.802  11.749
59528SOL    HW280482   1.360   8.843  11.683
59529SOL     OW80483   7.995  13.386   1.819
59529SOL    HW180484   7.983  13.335   1.739
59529SOL    HW280485   7.957  13.332   1.888
59530SOL     OW80486   7.334   9.669   4.697
59530SOL    HW180487   7.270   9.659   4.627
59530SOL    HW280488   7.386   9.745   4.670
59531SOL     OW80489   0.982   8.958   3.001
59531SOL    HW180490   0.951   8.893   3.065
59531SOL    HW280491   0.967   9.042   3.044
59532SOL     OW80492   9.835   6.019  13.865
59532SOL    HW180493   9.771   5.956  13.900
59532SOL    HW280494   9.800   6.044  13.779
59533SOL     OW80495   9.558   5.125   5.286
59533SOL    HW180496   9.556   5.045   5.338
59533SOL    HW280497   9.472   5.164   5.297
59534SOL     OW80498  10.629   1.174  14.627
59534SOL    HW180499  10.583   1.100  14.667
59534SOL    HW280500  10.569   1.206  14.560
59535SOL     OW80501   6.910   4.884   4.218
59535SOL    HW180502   6.997   4.923   4.223
59535SOL    HW280503   6.850   4.955   4.240
59536SOL     OW80504   7.216   5.967   7.350
59536SOL    HW180505   7.206   5.951   7.444
59536SOL    HW280506   7.310   5.970   7.336
59537SOL     OW80507   7.452   1.979  13.399
59537SOL    HW180508   7.442   1.992  13.305
59537SOL    HW280509   7.507   2.053  13.427
59538SOL     OW80510  10.568   9.067   0.255
59538SOL    HW180511  10.600   8.976   0.253
59538SOL    HW280512  10.490   9.064   0.310
59539SOL     OW80513  12.856  11.374   0.262
59539SOL    HW180514  12.761  11.363   0.258
59539SOL    HW280515  12.883  11.327   0.342
59540SOL     OW80516  11.513  10.726  12.368
59540SOL    HW180517  11.492  10.678  12.448
59540SOL    HW280518  11.601  10.762  12.384
59541SOL     OW80519   2.256   1.623   5.353
59541SOL    HW180520   2.191   1.598   5.418
59541SOL    HW280521   2.327   1.560   5.365
59542SOL     OW80522   7.261   4.419   8.880
59542SOL    HW180523   7.327   4.480   8.912
59542SOL    HW280524   7.311   4.341   8.855
59543SOL     OW80525   3.807   4.369   9.182
59543SOL    HW180526   3.877   4.433   9.185
59543SOL    HW280527   3.832   4.308   9.113
59544SOL     OW80528   1.896  10.186   3.489
59544SOL    HW180529   1.825  10.237   3.528
59544SOL    HW280530   1.853  10.110   3.451
59545SOL     OW80531   6.672  13.879  11.504
59545SOL    HW180532   6.668  13.934  11.426
59545SOL    HW280533   6.632  13.796  11.477
59546SOL     OW80534   8.185   9.974   4.578
59546SOL    HW180535   8.231   9.896   4.546
59546SOL    HW280536   8.253  10.041   4.582
59547SOL     OW80537  12.230  11.332   9.522
59547SOL    HW180538  12.149  11.288   9.495
59547SOL    HW280539  12.232  11.321   9.617
59548SOL     OW80540  12.693  13.903   8.600
59548SOL    HW180541  12.729  13.990   8.579
59548SOL    HW280542  12.761  13.862   8.653
59549SOL     OW80543  11.405   5.545   1.603
59549SOL    HW180544  11.433   5.603   1.532
59549SOL    HW280545  11.428   5.457   1.572
59550SOL     OW80546   1.087  13.225  14.197
59550SOL    HW180547   1.162  13.283  14.192
59550SOL    HW280548   1.112  13.148  14.145
59551SOL     OW80549   7.860   6.410   5.759
59551SOL    HW180550   7.874   6.358   5.680
59551SOL    HW280551   7.936   6.390   5.814
59552SOL     OW80552   2.798   4.133   8.729
59552SOL    HW180553   2.809   4.108   8.821
59552SOL    HW280554   2.775   4.051   8.685
59553SOL     OW80555   7.763   1.183  13.822
59553SOL    HW180556   7.788   1.273  13.806
59553SOL    HW280557   7.795   1.164  13.910
59554SOL     OW80558   5.359   2.344  14.666
59554SOL    HW180559   5.345   2.269  14.608
59554SOL    HW280560   5.279   2.396  14.658
59555SOL     OW80561  13.080  11.885   9.910
59555SOL    HW180562  13.071  11.800   9.953
59555SOL    HW280563  13.142  11.934   9.964
59556SOL     OW80564  14.581  14.302   8.843
59556SOL    HW180565  14.647  14.241   8.811
59556SOL    HW280566  14.624  14.387   8.843
59557SOL     OW80567   7.436  14.869  12.993
59557SOL    HW180568   7.512   0.018  13.047
59557SOL    HW280569   7.416   0.073  12.943
59558SOL     OW80570   4.887  10.772   6.442
59558SOL    HW180571   4.857  10.797   6.355
59558SOL    HW280572   4.825  10.705   6.470
59559SOL     OW80573   3.158  13.108   7.340
59559SOL    HW180574   3.161  13.109   7.436
59559SOL    HW280575   3.088  13.169   7.318
59560SOL     OW80576   4.270   5.416   3.402
59560SOL    HW180577   4.225   5.499   3.385
59560SOL    HW280578   4.350   5.442   3.448
59561SOL     OW80579   6.148   9.360   9.492
59561SOL    HW180580   6.065   9.336   9.450
59561SOL    HW280581   6.121   9.415   9.566
59562SOL     OW80582   2.997   5.918  10.684
59562SOL    HW180583   2.954   5.849  10.635
59562SOL    HW280584   2.938   5.993  10.677
59563SOL     OW80585   2.570  14.224   7.121
59563SOL    HW180586   2.537  14.285   7.187
59563SOL    HW280587   2.661  14.209   7.145
59564SOL     OW80588  11.013   5.425   5.901
59564SOL    HW180589  11.106   5.434   5.922
59564SOL    HW280590  10.971   5.496   5.949
59565SOL     OW80591   0.270  10.096   6.620
59565SOL    HW180592   0.350  10.044   6.619
59565SOL    HW280593   0.301  10.187   6.617
59566SOL     OW80594   9.752   8.802   0.296
59566SOL    HW180595   9.716   8.814   0.384
59566SOL    HW280596   9.751   8.889   0.258
59567SOL     OW80597  10.368  14.122   0.157
59567SOL    HW180598  10.309  14.120   0.081
59567SOL    HW280599  10.374  14.215   0.180
59568SOL     OW80600   7.457   5.074  13.925
59568SOL    HW180601   7.505   5.107  14.001
59568SOL    HW280602   7.455   5.148  13.864
59569SOL     OW80603   0.819   4.994   7.989
59569SOL    HW180604   0.798   5.006   8.081
59569SOL    HW280605   0.866   5.074   7.964
59570SOL     OW80606   7.292   1.753   4.279
59570SOL    HW180607   7.219   1.812   4.263
59570SOL    HW280608   7.304   1.706   4.197
59571SOL     OW80609   0.135   5.960   5.585
59571SOL    HW180610   0.211   5.924   5.631
59571SOL    HW280611   0.144   5.926   5.496
59572SOL     OW80612   1.987   7.286   6.820
59572SOL    HW180613   1.974   7.298   6.914
59572SOL    HW280614   1.915   7.229   6.794
59573SOL     OW80615   0.004  10.783   4.494
59573SOL    HW180616  14.815  10.744   4.435
59573SOL    HW280617   0.086  10.781   4.445
59574SOL     OW80618  12.342  12.953   8.446
59574SOL    HW180619  12.424  12.971   8.400
59574SOL    HW280620  12.367  12.899   8.521
59575SOL     OW80621   6.682  13.879   7.354
59575SOL    HW180622   6.586  13.876   7.359
59575SOL    HW280623   6.703  13.972   7.366
59576SOL     OW80624   2.526  10.481   0.274
59576SOL    HW180625   2.574  10.564   0.273
59576SOL    HW280626   2.436  10.504   0.254
59577SOL     OW80627   1.241   0.935   6.733
59577SOL    HW180628   1.323   0.961   6.690
59577SOL    HW280629   1.237   0.840   6.723
59578SOL     OW80630   1.501   3.727   5.535
59578SOL    HW180631   1.562   3.725   5.609
59578SOL    HW280632   1.416   3.708   5.573
59579SOL     OW80633  10.437  13.119   0.749
59579SOL    HW180634  10.445  13.025   0.760
59579SOL    HW280635  10.441  13.134   0.655
59580SOL     OW80636   2.452   6.095   8.075
59580SOL    HW180637   2.527   6.037   8.064
59580SOL    HW280638   2.463   6.161   8.006
59581SOL     OW80639   2.382   4.604   2.622
59581SOL    HW180640   2.458   4.555   2.590
59581SOL    HW280641   2.413   4.651   2.699
59582SOL     OW80642   7.713  12.708   1.599
59582SOL    HW180643   7.767  12.630   1.616
59582SOL    HW280644   7.656  12.682   1.527
59583SOL     OW80645  10.829   7.500  11.937
59583SOL    HW180646  10.815   7.406  11.932
59583SOL    HW280647  10.874   7.514  12.020
59584SOL     OW80648  11.645   1.782   1.098
59584SOL    HW180649  11.583   1.709   1.097
59584SOL    HW280650  11.722   1.749   1.052
59585SOL     OW80651   9.401   6.273  12.612
59585SOL    HW180652   9.371   6.358  12.582
59585SOL    HW280653   9.479   6.255  12.560
59586SOL     OW80654  12.246   0.394   8.871
59586SOL    HW180655  12.239   0.355   8.784
59586SOL    HW280656  12.173   0.356   8.921
59587SOL     OW80657   9.668  13.685  12.194
59587SOL    HW180658   9.748  13.636  12.178
59587SOL    HW280659   9.598  13.619  12.189
59588SOL     OW80660  13.656  13.656  11.027
59588SOL    HW180661  13.561  13.658  11.028
59588SOL    HW280662  13.680  13.634  10.937
59589SOL     OW80663  13.958   0.669  13.757
59589SOL    HW180664  13.881   0.639  13.804
59589SOL    HW280665  13.928   0.681  13.667
59590SOL     OW80666   9.418  12.120   5.434
59590SOL    HW180667   9.413  12.025   5.425
59590SOL    HW280668   9.351  12.141   5.499
59591SOL     OW80669   9.920   2.755  14.158
59591SOL    HW180670   9.937   2.773  14.065
59591SOL    HW280671   9.837   2.799  14.176
59592SOL     OW80672  12.728   8.313   7.799
59592SOL    HW180673  12.716   8.260   7.878
59592SOL    HW280674  12.649   8.297   7.747
59593SOL     OW80675  12.201   2.015   3.099
59593SOL    HW180676  12.188   2.090   3.040
59593SOL    HW280677  12.160   2.042   3.181
59594SOL     OW80678   5.704   3.105   4.978
59594SOL    HW180679   5.778   3.130   4.923
59594SOL    HW280680   5.649   3.184   4.980
59595SOL     OW80681  12.308   4.838   3.889
59595SOL    HW180682  12.338   4.772   3.827
59595SOL    HW280683  12.321   4.922   3.844
59596SOL     OW80684   2.293   5.684   0.816
59596SOL    HW180685   2.339   5.665   0.734
59596SOL    HW280686   2.312   5.609   0.872
59597SOL     OW80687   5.930  14.501   5.478
59597SOL    HW180688   5.966  14.478   5.392
59597SOL    HW280689   5.838  14.520   5.460
59598SOL     OW80690   7.466   3.840   8.795
59598SOL    HW180691   7.422   3.791   8.725
59598SOL    HW280692   7.533   3.779   8.828
59599SOL     OW80693   5.045   2.984   3.138
59599SOL    HW180694   5.131   2.970   3.098
59599SOL    HW280695   5.056   2.957   3.230
59600SOL     OW80696   6.504   1.465   9.095
59600SOL    HW180697   6.495   1.506   9.008
59600SOL    HW280698   6.550   1.530   9.147
59601SOL     OW80699   3.651  13.374   2.988
59601SOL    HW180700   3.589  13.367   2.916
59601SOL    HW280701   3.735  13.393   2.945
59602SOL     OW80702   4.532  10.256   6.164
59602SOL    HW180703   4.456  10.200   6.143
59602SOL    HW280704   4.606  10.195   6.167
59603SOL     OW80705   6.755   3.947   8.003
59603SOL    HW180706   6.824   3.956   8.069
59603SOL    HW280707   6.747   3.852   7.990
59604SOL     OW80708   6.713   9.019   4.630
59604SOL    HW180709   6.728   8.994   4.538
59604SOL    HW280710   6.754   8.948   4.680
59605SOL     OW80711   1.351   4.849   8.571
59605SOL    HW180712   1.335   4.937   8.536
59605SOL    HW280713   1.445   4.835   8.560
59606SOL     OW80714  10.798   8.166   0.944
59606SOL    HW180715  10.892   8.146   0.944
59606SOL    HW280716  10.763   8.115   1.017
59607SOL     OW80717   3.246  13.900  13.742
59607SOL    HW180718   3.299  13.836  13.694
59607SOL    HW280719   3.159  13.893  13.702
59608SOL     OW80720   6.250   4.929   9.080
59608SOL    HW180721   6.194   4.906   9.005
59608SOL    HW280722   6.339   4.920   9.046
59609SOL     OW80723   7.946   0.794   7.095
59609SOL    HW180724   8.004   0.732   7.050
59609SOL    HW280725   7.859   0.773   7.061
59610SOL     OW80726  13.951   6.038   5.403
59610SOL    HW180727  13.898   6.023   5.481
59610SOL    HW280728  13.939   5.960   5.349
59611SOL     OW80729   9.369   2.343  13.186
59611SOL    HW180730   9.336   2.293  13.261
59611SOL    HW280731   9.378   2.433  13.218
59612SOL     OW80732   2.228   8.847  10.607
59612SOL    HW180733   2.150   8.903  10.605
59612SOL    HW280734   2.228   8.802  10.522
59613SOL     OW80735  11.534   9.884   6.212
59613SOL    HW180736  11.490   9.839   6.284
59613SOL    HW280737  11.486   9.967   6.203
59614SOL     OW80738  14.783   1.463  14.093
59614SOL    HW180739  14.778   1.391  14.030
59614SOL    HW280740  14.783   1.421  14.179
59615SOL     OW80741  11.647   9.248   5.460
59615SOL    HW180742  11.555   9.224   5.460
59615SOL    HW280743  11.678   9.224   5.548
59616SOL     OW80744   2.498  14.420  10.662
59616SOL    HW180745   2.414  14.386  10.630
59616SOL    HW280746   2.550  14.342  10.681
59617SOL     OW80747  10.402   8.120  14.316
59617SOL    HW180748  10.326   8.139  14.372
59617SOL    HW280749  10.393   8.181  14.243
59618SOL     OW80750   3.709  10.125   3.602
59618SOL    HW180751   3.633  10.067   3.601
59618SOL    HW280752   3.784  10.066   3.601
59619SOL     OW80753  11.281   6.634  10.523
59619SOL    HW180754  11.290   6.563  10.459
59619SOL    HW280755  11.250   6.709  10.472
59620SOL     OW80756   1.889   0.750   9.097
59620SOL    HW180757   1.917   0.752   9.188
59620SOL    HW280758   1.951   0.691   9.054
59621SOL     OW80759  10.590   7.742  14.391
59621SOL    HW180760  10.623   7.815  14.339
59621SOL    HW280761  10.525   7.781  14.450
59622SOL     OW80762  12.953   2.018  11.843
59622SOL    HW180763  12.917   2.105  11.825
59622SOL    HW280764  13.048   2.030  11.839
59623SOL     OW80765   0.143   4.936   1.107
59623SOL    HW180766   0.131   4.877   1.032
59623SOL    HW280767   0.054   4.967   1.128
59624SOL     OW80768   9.304   0.672   4.459
59624SOL    HW180769   9.227   0.727   4.449
59624SOL    HW280770   9.309   0.654   4.553
59625SOL     OW80771   8.570   8.022  14.395
59625SOL    HW180772   8.656   8.029  14.353
59625SOL    HW280773   8.587   8.045  14.487
59626SOL     OW80774   7.503  13.433   8.089
59626SOL    HW180775   7.419  13.473   8.064
59626SOL    HW280776   7.549  13.502   8.136
59627SOL     OW80777  12.120   7.295   5.275
59627SOL    HW180778  12.144   7.205   5.294
59627SOL    HW280779  12.194   7.329   5.225
59628SOL     OW80780  11.741  14.013  14.443
59628SOL    HW180781  11.682  14.087  14.455
59628SOL    HW280782  11.726  13.957  14.519
59629SOL     OW80783  12.276   3.652  12.976
59629SOL    HW180784  12.362   3.618  12.949
59629SOL    HW280785  12.213   3.593  12.934
59630SOL     OW80786   4.771   9.047   7.057
59630SOL    HW180787   4.823   9.014   6.984
59630SOL    HW280788   4.834   9.064   7.126
59631SOL     OW80789  12.959  10.717  10.883
59631SOL    HW180790  13.033  10.734  10.942
59631SOL    HW280791  12.883  10.750  10.932
59632SOL     OW80792  11.859   5.032   3.121
59632SOL    HW180793  11.907   4.973   3.063
59632SOL    HW280794  11.770   5.034   3.084
59633SOL     OW80795  10.713  11.762  13.412
59633SOL    HW180796  10.711  11.687  13.471
59633SOL    HW280797  10.805  11.768  13.384
59634SOL     OW80798  11.402   0.829   8.735
59634SOL    HW180799  11.357   0.749   8.763
59634SOL    HW280800  11.463   0.849   8.806
59635SOL     OW80801   6.825   8.717   2.513
59635SOL    HW180802   6.822   8.812   2.525
59635SOL    HW280803   6.740   8.687   2.546
59636SOL     OW80804   8.609  14.285   4.635
59636SOL    HW180805   8.518  14.280   4.607
59636SOL    HW280806   8.610  14.241   4.720
59637SOL     OW80807   6.641   6.459   5.028
59637SOL    HW180808   6.555   6.417   5.034
59637SOL    HW280809   6.699   6.402   5.078
59638SOL     OW80810   6.116  11.438   4.241
59638SOL    HW180811   6.206  11.443   4.209
59638SOL    HW280812   6.090  11.347   4.223
59639SOL     OW80813   6.331  13.092  14.156
59639SOL    HW180814   6.291  13.085  14.069
59639SOL    HW280815   6.355  13.184  14.164
59640SOL     OW80816   6.108  13.447  10.392
59640SOL    HW180817   6.083  13.358  10.416
59640SOL    HW280818   6.194  13.459  10.433
59641SOL     OW80819  12.847   3.050   1.498
59641SOL    HW180820  12.825   3.137   1.530
59641SOL    HW280821  12.929   3.028   1.542
59642SOL     OW80822   7.830   5.587   7.620
59642SOL    HW180823   7.883   5.625   7.550
59642SOL    HW280824   7.808   5.660   7.676
59643SOL     OW80825   6.221   6.027   4.473
59643SOL    HW180826   6.215   5.937   4.443
59643SOL    HW280827   6.144   6.071   4.436
59644SOL     OW80828  14.790   3.077  14.753
59644SOL    HW180829  14.701   3.076  14.718
59644SOL    HW280830  14.816   2.984  14.754
59645SOL     OW80831  10.350   7.474   0.388
59645SOL    HW180832  10.390   7.389   0.407
59645SOL    HW280833  10.362   7.486   0.294
59646SOL     OW80834   3.664   3.808  13.383
59646SOL    HW180835   3.621   3.780  13.302
59646SOL    HW280836   3.606   3.876  13.418
59647SOL     OW80837   7.191  12.791  12.625
59647SOL    HW180838   7.146  12.872  12.604
59647SOL    HW280839   7.188  12.740  12.544
59648SOL     OW80840  10.807   3.212   3.095
59648SOL    HW180841  10.831   3.189   3.005
59648SOL    HW280842  10.818   3.307   3.098
59649SOL     OW80843   0.527   8.105   6.577
59649SOL    HW180844   0.562   8.025   6.538
59649SOL    HW280845   0.596   8.135   6.636
59650SOL     OW80846  10.367   0.209  11.239
59650SOL    HW180847  10.375   0.304  11.226
59650SOL    HW280848  10.343   0.176  11.153
59651SOL     OW80849   3.185  11.815   1.768
59651SOL    HW180850   3.160  11.782   1.681
59651SOL    HW280851   3.153  11.906   1.769
59652SOL     OW80852  13.991   6.468   8.136
59652SOL    HW180853  13.901   6.466   8.168
59652SOL    HW280854  14.022   6.378   8.147
59653SOL     OW80855   5.640  11.740   5.668
59653SOL    HW180856   5.698  11.809   5.702
59653SOL    HW280857   5.616  11.689   5.746
59654SOL     OW80858  14.665   1.493   5.295
59654SOL    HW180859  14.715   1.539   5.228
59654SOL    HW280860  14.730   1.445   5.346
59655SOL     OW80861   6.471   6.947   7.134
59655SOL    HW180862   6.417   6.880   7.092
59655SOL    HW280863   6.436   7.030   7.101
59656SOL     OW80864   5.805   4.115  13.233
59656SOL    HW180865   5.818   4.187  13.295
59656SOL    HW280866   5.794   4.038  13.288
59657SOL     OW80867   9.642   5.885  13.132
59657SOL    HW180868   9.699   5.961  13.126
59657SOL    HW280869   9.565   5.908  13.081
59658SOL     OW80870   3.128   9.486   6.044
59658SOL    HW180871   3.216   9.499   6.010
59658SOL    HW280872   3.141   9.449   6.132
59659SOL     OW80873  10.159   8.303   8.337
59659SOL    HW180874  10.187   8.247   8.409
59659SOL    HW280875  10.131   8.243   8.269
59660SOL     OW80876   1.543   6.065  14.342
59660SOL    HW180877   1.499   6.023  14.416
59660SOL    HW280878   1.561   5.993  14.280
59661SOL     OW80879   8.839  12.493   9.736
59661SOL    HW180880   8.798  12.431   9.796
59661SOL    HW280881   8.848  12.445   9.654
59662SOL     OW80882   6.610   0.625   8.958
59662SOL    HW180883   6.639   0.716   8.965
59662SOL    HW280884   6.639   0.584   9.040
59663SOL     OW80885   5.089   6.949  13.315
59663SOL    HW180886   5.071   6.923  13.405
59663SOL    HW280887   5.059   6.876  13.261
59664SOL     OW80888   7.262   5.890   6.604
59664SOL    HW180889   7.286   5.936   6.684
59664SOL    HW280890   7.261   5.798   6.628
59665SOL     OW80891  10.671   2.536   8.811
59665SOL    HW180892  10.655   2.487   8.891
59665SOL    HW280893  10.655   2.627   8.835
59666SOL     OW80894   4.774   7.494  10.835
59666SOL    HW180895   4.824   7.428  10.788
59666SOL    HW280896   4.686   7.456  10.844
59667SOL     OW80897   5.963  14.689  12.430
59667SOL    HW180898   5.961  14.601  12.468
59667SOL    HW280899   5.942  14.676  12.338
59668SOL     OW80900  12.516  14.733  12.511
59668SOL    HW180901  12.573  14.795  12.464
59668SOL    HW280902  12.555  14.728  12.599
59669SOL     OW80903   9.382   4.654   9.303
59669SOL    HW180904   9.338   4.597   9.240
59669SOL    HW280905   9.334   4.737   9.299
59670SOL     OW80906  13.965   7.606  12.269
59670SOL    HW180907  14.022   7.566  12.204
59670SOL    HW280908  13.915   7.671  12.220
59671SOL     OW80909   0.930   4.736  12.265
59671SOL    HW180910   0.941   4.802  12.197
59671SOL    HW280911   0.841   4.702  12.251
59672SOL     OW80912   7.613   5.393   0.085
59672SOL    HW180913   7.584   5.351   0.166
59672SOL    HW280914   7.547   5.460   0.067
59673SOL     OW80915   0.547   6.337   5.128
59673SOL    HW180916   0.638   6.359   5.149
59673SOL    HW280917   0.503   6.332   5.213
59674SOL     OW80918   9.212  13.669  10.353
59674SOL    HW180919   9.262  13.732  10.405
59674SOL    HW280920   9.262  13.662  10.271
59675SOL     OW80921   6.642   1.668   2.207
59675SOL    HW180922   6.617   1.624   2.288
59675SOL    HW280923   6.693   1.604   2.159
59676SOL     OW80924   4.483   4.137   2.927
59676SOL    HW180925   4.549   4.203   2.908
59676SOL    HW280926   4.426   4.178   2.993
59677SOL     OW80927   4.501   2.701   0.759
59677SOL    HW180928   4.529   2.617   0.723
59677SOL    HW280929   4.406   2.696   0.761
59678SOL     OW80930   1.082   0.842   4.485
59678SOL    HW180931   0.987   0.837   4.479
59678SOL    HW280932   1.113   0.786   4.414
59679SOL     OW80933  13.174   6.418   4.979
59679SOL    HW180934  13.220   6.358   5.038
59679SOL    HW280935  13.122   6.361   4.922
59680SOL     OW80936   1.527  12.478   2.100
59680SOL    HW180937   1.454  12.510   2.154
59680SOL    HW280938   1.540  12.388   2.128
59681SOL     OW80939   5.950   7.724  14.359
59681SOL    HW180940   5.908   7.757  14.279
59681SOL    HW280941   5.971   7.803  14.409
59682SOL     OW80942   5.149   0.401   8.068
59682SOL    HW180943   5.090   0.474   8.089
59682SOL    HW280944   5.167   0.361   8.152
59683SOL     OW80945   8.751   2.180   0.472
59683SOL    HW180946   8.775   2.233   0.396
59683SOL    HW280947   8.791   2.095   0.455
59684SOL     OW80948   9.261   9.942   6.913
59684SOL    HW180949   9.187   9.883   6.899
59684SOL    HW280950   9.228  10.029   6.891
59685SOL     OW80951  14.772   0.125  10.702
59685SOL    HW180952  14.861   0.091  10.689
59685SOL    HW280953  14.718   0.046  10.709
59686SOL     OW80954  13.026   5.373   4.876
59686SOL    HW180955  12.939   5.336   4.857
59686SOL    HW280956  13.058   5.402   4.790
59687SOL     OW80957  13.800   1.125   5.666
59687SOL    HW180958  13.722   1.159   5.709
59687SOL    HW280959  13.864   1.115   5.736
59688SOL     OW80960   3.805   8.884  14.829
59688SOL    HW180961   3.781   8.914   0.041
59688SOL    HW280962   3.794   8.789  14.833
59689SOL     OW80963   9.484   8.745   9.202
59689SOL    HW180964   9.545   8.730   9.130
59689SOL    HW280965   9.401   8.709   9.170
59690SOL     OW80966   9.379   2.187   7.072
59690SOL    HW180967   9.352   2.105   7.030
59690SOL    HW280968   9.316   2.252   7.040
59691SOL     OW80969   8.336  13.738  11.508
59691SOL    HW180970   8.315  13.645  11.502
59691SOL    HW280971   8.350  13.765  11.417
59692SOL     OW80972   8.675   3.089   7.385
59692SOL    HW180973   8.718   3.106   7.301
59692SOL    HW280974   8.622   3.167   7.402
59693SOL     OW80975  10.512  13.234   2.388
59693SOL    HW180976  10.480  13.282   2.464
59693SOL    HW280977  10.585  13.181   2.421
59694SOL     OW80978  12.545   5.625   5.176
59694SOL    HW180979  12.598   5.686   5.124
59694SOL    HW280980  12.576   5.538   5.150
59695SOL     OW80981   9.022   2.059   1.082
59695SOL    HW180982   8.955   2.062   1.014
59695SOL    HW280983   9.101   2.028   1.037
59696SOL     OW80984   3.536   0.308   0.416
59696SOL    HW180985   3.534   0.219   0.379
59696SOL    HW280986   3.614   0.309   0.471
59697SOL     OW80987  12.173   6.676  14.750
59697SOL    HW180988  12.184   6.586  14.779
59697SOL    HW280989  12.218   6.729  14.815
59698SOL     OW80990   5.803   1.454   6.422
59698SOL    HW180991   5.787   1.481   6.331
59698SOL    HW280992   5.857   1.375   6.415
59699SOL     OW80993   3.557   8.881   4.879
59699SOL    HW180994   3.572   8.848   4.790
59699SOL    HW280995   3.574   8.975   4.873
59700SOL     OW80996   2.863   9.293   4.842
59700SOL    HW180997   2.843   9.219   4.899
59700SOL    HW280998   2.821   9.271   4.759
59701SOL     OW80999  11.532  13.532   7.019
59701SOL    HW181000  11.611  13.586   7.017
59701SOL    HW281001  11.543  13.476   7.096
59702SOL     OW81002   3.958   2.957   9.074
59702SOL    HW181003   4.029   3.020   9.086
59702SOL    HW281004   3.993   2.892   9.013
59703SOL     OW81005   3.228  11.326   9.618
59703SOL    HW181006   3.151  11.373   9.649
59703SOL    HW281007   3.293  11.395   9.603
59704SOL     OW81008  14.817   7.175   2.682
59704SOL    HW181009  14.847   7.085   2.667
59704SOL    HW281010  14.740   7.165   2.737
59705SOL     OW81011   1.683   7.166   2.120
59705SOL    HW181012   1.635   7.110   2.180
59705SOL    HW281013   1.775   7.140   2.131
59706SOL     OW81014   1.707  10.168   1.639
59706SOL    HW181015   1.751  10.170   1.724
59706SOL    HW281016   1.778  10.183   1.576
59707SOL     OW81017  13.457  14.083  13.355
59707SOL    HW181018  13.432  14.041  13.437
59707SOL    HW281019  13.379  14.133  13.329
59708SOL     OW81020   3.357  10.217  14.570
59708SOL    HW181021   3.372  10.215  14.665
59708SOL    HW281022   3.355  10.310  14.548
59709SOL     OW81023   0.093   1.904  13.538
59709SOL    HW181024   0.023   1.894  13.474
59709SOL    HW281025   0.174   1.887  13.489
59710SOL     OW81026  11.984   2.325   8.773
59710SOL    HW181027  12.030   2.299   8.693
59710SOL    HW281028  11.946   2.244   8.806
59711SOL     OW81029  10.198   1.028   8.100
59711SOL    HW181030  10.187   0.933   8.095
59711SOL    HW281031  10.223   1.054   8.011
59712SOL     OW81032   0.787  10.876   2.909
59712SOL    HW181033   0.703  10.864   2.952
59712SOL    HW281034   0.851  10.878   2.980
59713SOL     OW81035   0.876  13.344  12.453
59713SOL    HW181036   0.900  13.268  12.506
59713SOL    HW281037   0.958  13.378  12.420
59714SOL     OW81038   5.047  12.201  10.543
59714SOL    HW181039   5.072  12.195  10.635
59714SOL    HW281040   5.036  12.295  10.527
59715SOL     OW81041   4.544   3.649  14.322
59715SOL    HW181042   4.599   3.727  14.328
59715SOL    HW281043   4.574   3.605  14.242
59716SOL     OW81044  13.003   3.133   8.784
59716SOL    HW181045  12.940   3.131   8.856
59716SOL    HW281046  12.949   3.137   8.705
59717SOL     OW81047   8.949   6.321   9.962
59717SOL    HW181048   8.927   6.368  10.042
59717SOL    HW281049   8.908   6.235   9.973
59718SOL     OW81050   1.220  12.080  13.816
59718SOL    HW181051   1.264  12.141  13.756
59718SOL    HW281052   1.170  12.022  13.758
59719SOL     OW81053   9.690   5.146  14.644
59719SOL    HW181054   9.717   5.055  14.635
59719SOL    HW281055   9.653   5.169  14.559
59720SOL     OW81056  11.601  14.508  13.330
59720SOL    HW181057  11.568  14.586  13.285
59720SOL    HW281058  11.524  14.469  13.371
59721SOL     OW81059   4.050   5.959  11.683
59721SOL    HW181060   4.011   6.027  11.628
59721SOL    HW281061   4.143   5.978  11.683
59722SOL     OW81062   1.297   8.218   8.707
59722SOL    HW181063   1.360   8.234   8.778
59722SOL    HW281064   1.215   8.256   8.739
59723SOL     OW81065  13.708  14.338   2.027
59723SOL    HW181066  13.639  14.274   2.044
59723SOL    HW281067  13.765  14.296   1.964
59724SOL     OW81068   7.878   8.920   9.534
59724SOL    HW181069   7.836   8.992   9.580
59724SOL    HW281070   7.953   8.961   9.490
59725SOL     OW81071  11.382   3.039   0.469
59725SOL    HW181072  11.460   3.017   0.520
59725SOL    HW281073  11.416   3.083   0.391
59726SOL     OW81074   8.523  11.769   3.111
59726SOL    HW181075   8.504  11.703   3.044
59726SOL    HW281076   8.476  11.847   3.082
59727SOL     OW81077  11.023   8.967   1.974
59727SOL    HW181078  10.991   8.925   1.894
59727SOL    HW281079  10.946   8.977   2.029
59728SOL     OW81080   7.812   8.458  12.064
59728SOL    HW181081   7.722   8.425  12.059
59728SOL    HW281082   7.856   8.398  12.124
59729SOL     OW81083   5.479   2.935   7.109
59729SOL    HW181084   5.539   2.906   7.178
59729SOL    HW281085   5.392   2.928   7.149
59730SOL     OW81086   7.336   4.842  12.793
59730SOL    HW181087   7.283   4.779  12.841
59730SOL    HW281088   7.277   4.878  12.727
59731SOL     OW81089   9.543  14.014  14.833
59731SOL    HW181090   9.592  14.026   0.039
59731SOL    HW281091   9.468  13.959  14.858
59732SOL     OW81092  10.418   3.792  12.745
59732SOL    HW181093  10.457   3.841  12.672
59732SOL    HW281094  10.423   3.851  12.820
59733SOL     OW81095  12.707   9.481   5.933
59733SOL    HW181096  12.668   9.410   5.984
59733SOL    HW281097  12.778   9.438   5.884
59734SOL     OW81098   1.603  14.034   0.696
59734SOL    HW181099   1.659  14.108   0.671
59734SOL    HW281100   1.580  13.992   0.613
59735SOL     OW81101  11.210  12.073  13.429
59735SOL    HW181102  11.290  12.048  13.477
59735SOL    HW281103  11.196  12.001  13.367
59736SOL     OW81104  12.043  13.781  12.979
59736SOL    HW181105  12.009  13.787  13.068
59736SOL    HW281106  12.017  13.863  12.938
59737SOL     OW81107   1.098   9.996   4.755
59737SOL    HW181108   1.172   9.947   4.719
59737SOL    HW281109   1.047   9.930   4.802
59738SOL     OW81110   2.914   8.371   2.043
59738SOL    HW181111   2.820   8.366   2.061
59738SOL    HW281112   2.925   8.454   1.997
59739SOL     OW81113   7.321   2.653   0.380
59739SOL    HW181114   7.367   2.731   0.349
59739SOL    HW281115   7.235   2.685   0.407
59740SOL     OW81116   7.624   2.868   5.845
59740SOL    HW181117   7.603   2.776   5.859
59740SOL    HW281118   7.718   2.874   5.860
59741SOL     OW81119   3.814  12.044  10.766
59741SOL    HW181120   3.869  11.968  10.751
59741SOL    HW281121   3.801  12.082  10.679
59742SOL     OW81122   6.026   2.538   9.539
59742SOL    HW181123   5.947   2.523   9.487
59742SOL    HW281124   6.015   2.485   9.617
59743SOL     OW81125   8.585  10.255   1.370
59743SOL    HW181126   8.664  10.280   1.321
59743SOL    HW281127   8.615  10.243   1.460
59744SOL     OW81128  14.336   1.723  14.288
59744SOL    HW181129  14.426   1.701  14.264
59744SOL    HW281130  14.288   1.640  14.279
59745SOL     OW81131   2.256   0.844   7.365
59745SOL    HW181132   2.171   0.806   7.388
59745SOL    HW281133   2.257   0.844   7.270
59746SOL     OW81134   6.907  10.740   2.565
59746SOL    HW181135   6.822  10.745   2.522
59746SOL    HW281136   6.952  10.667   2.521
59747SOL     OW81137   5.947   9.999   2.472
59747SOL    HW181138   5.916   9.983   2.561
59747SOL    HW281139   6.029   9.949   2.466
59748SOL     OW81140   0.964   4.592   4.778
59748SOL    HW181141   0.952   4.630   4.691
59748SOL    HW281142   0.875   4.571   4.807
59749SOL     OW81143   7.557   8.668   3.882
59749SOL    HW181144   7.579   8.577   3.899
59749SOL    HW281145   7.617   8.694   3.812
59750SOL     OW81146  12.189  11.181  12.936
59750SOL    HW181147  12.164  11.198  13.027
59750SOL    HW281148  12.235  11.097  12.939
59751SOL     OW81149   3.361   0.471   7.897
59751SOL    HW181150   3.269   0.462   7.870
59751SOL    HW281151   3.411   0.439   7.822
59752SOL     OW81152  10.692  11.727   5.863
59752SOL    HW181153  10.685  11.674   5.784
59752SOL    HW281154  10.734  11.669   5.927
59753SOL     OW81155   8.036   7.314   3.843
59753SOL    HW181156   8.097   7.315   3.917
59753SOL    HW281157   8.011   7.405   3.832
59754SOL     OW81158   2.194   9.580  10.404
59754SOL    HW181159   2.099   9.569  10.407
59754SOL    HW281160   2.207   9.671  10.377
59755SOL     OW81161  13.986   5.663   9.960
59755SOL    HW181162  13.990   5.575   9.996
59755SOL    HW281163  14.071   5.677   9.918
59756SOL     OW81164  11.744   5.735   7.170
59756SOL    HW181165  11.795   5.813   7.146
59756SOL    HW281166  11.795   5.662   7.136
59757SOL     OW81167   2.167   2.646   1.745
59757SOL    HW181168   2.216   2.709   1.692
59757SOL    HW281169   2.234   2.603   1.798
59758SOL     OW81170  14.436   0.438   9.278
59758SOL    HW181171  14.478   0.466   9.197
59758SOL    HW281172  14.470   0.497   9.345
59759SOL     OW81173   4.192   6.378   7.560
59759SOL    HW181174   4.259   6.425   7.610
59759SOL    HW281175   4.228   6.290   7.549
59760SOL     OW81176   0.391   8.616  10.541
59760SOL    HW181177   0.450   8.552  10.581
59760SOL    HW281178   0.416   8.700  10.580
59761SOL     OW81179   4.391   4.143   9.541
59761SOL    HW181180   4.337   4.079   9.587
59761SOL    HW281181   4.413   4.208   9.607
59762SOL     OW81182  11.597  13.230  11.196
59762SOL    HW181183  11.628  13.143  11.170
59762SOL    HW281184  11.651  13.291  11.146
59763SOL     OW81185   2.370  12.796   4.318
59763SOL    HW181186   2.345  12.781   4.408
59763SOL    HW281187   2.350  12.888   4.302
59764SOL     OW81188   3.733   0.783   2.531
59764SOL    HW181189   3.729   0.812   2.622
59764SOL    HW281190   3.723   0.864   2.480
59765SOL     OW81191  14.207   6.283   4.847
59765SOL    HW181192  14.172   6.254   4.932
59765SOL    HW281193  14.260   6.360   4.868
59766SOL     OW81194   2.951   8.232   8.650
59766SOL    HW181195   2.989   8.313   8.615
59766SOL    HW281196   2.889   8.262   8.716
59767SOL     OW81197   5.254  10.692   6.916
59767SOL    HW181198   5.262  10.616   6.858
59767SOL    HW281199   5.165  10.686   6.952
59768SOL     OW81200   2.539   0.317   5.117
59768SOL    HW181201   2.619   0.279   5.153
59768SOL    HW281202   2.546   0.302   5.023
59769SOL     OW81203   4.855  10.686   7.276
59769SOL    HW181204   4.779  10.744   7.277
59769SOL    HW281205   4.893  10.694   7.364
59770SOL     OW81206  12.566   6.573  13.232
59770SOL    HW181207  12.511   6.587  13.309
59770SOL    HW281208  12.516   6.513  13.178
59771SOL     OW81209  14.568   9.585   8.906
59771SOL    HW181210  14.645   9.567   8.853
59771SOL    HW281211  14.525   9.658   8.861
59772SOL     OW81212   9.117   7.510  13.963
59772SOL    HW181213   9.123   7.454  13.887
59772SOL    HW281214   9.100   7.598  13.928
59773SOL     OW81215   5.784   0.273  12.629
59773SOL    HW181216   5.871   0.277  12.670
59773SOL    HW281217   5.798   0.219  12.551
59774SOL     OW81218   9.734   1.674   0.969
59774SOL    HW181219   9.729   1.639   0.880
59774SOL    HW281220   9.685   1.611   1.022
59775SOL     OW81221   6.150  11.716  10.975
59775SOL    HW181222   6.171  11.653  10.906
59775SOL    HW281223   6.185  11.677  11.055
59776SOL     OW81224   7.795   7.242  13.443
59776SOL    HW181225   7.756   7.274  13.362
59776SOL    HW281226   7.864   7.306  13.464
59777SOL     OW81227   4.267   0.529  14.278
59777SOL    HW181228   4.335   0.461  14.277
59777SOL    HW281229   4.215   0.509  14.356
59778SOL     OW81230   2.962   8.285   7.008
59778SOL    HW181231   3.018   8.359   7.027
59778SOL    HW281232   2.886   8.296   7.066
59779SOL     OW81233   5.680  14.532   8.778
59779SOL    HW181234   5.690  14.581   8.697
59779SOL    HW281235   5.602  14.571   8.819
59780SOL     OW81236  12.200  13.621   3.590
59780SOL    HW181237  12.170  13.692   3.646
59780SOL    HW281238  12.120  13.580   3.558
59781SOL     OW81239  10.692   4.054  14.238
59781SOL    HW181240  10.611   4.061  14.188
59781SOL    HW281241  10.756   4.022  14.175
59782SOL     OW81242  11.368   8.336   8.513
59782SOL    HW181243  11.421   8.258   8.501
59782SOL    HW281244  11.284   8.315   8.472
59783SOL     OW81245  11.974  12.625   3.268
59783SOL    HW181246  12.007  12.639   3.179
59783SOL    HW281247  11.999  12.535   3.289
59784SOL     OW81248   1.621  10.735  14.134
59784SOL    HW181249   1.597  10.659  14.186
59784SOL    HW281250   1.546  10.749  14.076
59785SOL     OW81251   1.163   4.371   5.531
59785SOL    HW181252   1.239   4.314   5.521
59785SOL    HW281253   1.194   4.457   5.502
59786SOL     OW81254  12.482  13.011  11.817
59786SOL    HW181255  12.446  13.076  11.878
59786SOL    HW281256  12.406  12.962  11.787
59787SOL     OW81257   2.305  14.737  14.365
59787SOL    HW181258   2.211  14.737  14.381
59787SOL    HW281259   2.344  14.739  14.453
59788SOL     OW81260   3.155   1.413   2.091
59788SOL    HW181261   3.243   1.450   2.091
59788SOL    HW281262   3.100   1.484   2.057
59789SOL     OW81263  11.391   0.329   0.566
59789SOL    HW181264  11.480   0.297   0.571
59789SOL    HW281265  11.376   0.345   0.473
59790SOL     OW81266  10.753   7.942   0.524
59790SOL    HW181267  10.778   8.004   0.592
59790SOL    HW281268  10.694   7.990   0.467
59791SOL     OW81269   3.806  11.779   8.150
59791SOL    HW181270   3.888  11.733   8.128
59791SOL    HW281271   3.766  11.725   8.218
59792SOL     OW81272   0.796   0.834   1.315
59792SOL    HW181273   0.824   0.785   1.238
59792SOL    HW281274   0.868   0.823   1.378
59793SOL     OW81275   9.040   8.586   0.263
59793SOL    HW181276   9.016   8.530   0.189
59793SOL    HW281277   9.034   8.528   0.339
59794SOL     OW81278   5.134  11.212   4.494
59794SOL    HW181279   5.158  11.302   4.512
59794SOL    HW281280   5.093  11.215   4.407
59795SOL     OW81281  11.718  14.203  12.758
59795SOL    HW181282  11.798  14.241  12.721
59795SOL    HW281283  11.666  14.177  12.682
59796SOL     OW81284   7.093  11.887  10.266
59796SOL    HW181285   7.148  11.908  10.191
59796SOL    HW281286   7.036  11.963  10.276
59797SOL     OW81287  13.680   5.101   5.231
59797SOL    HW181288  13.650   5.032   5.290
59797SOL    HW281289  13.772   5.114   5.254
59798SOL     OW81290   2.718   5.929  11.218
59798SOL    HW181291   2.631   5.891  11.207
59798SOL    HW281292   2.702   6.015  11.257
59799SOL     OW81293   2.106   9.744   1.737
59799SOL    HW181294   2.021   9.700   1.734
59799SOL    HW281295   2.146   9.724   1.652
59800SOL     OW81296   2.477  13.842   3.569
59800SOL    HW181297   2.462  13.752   3.600
59800SOL    HW281298   2.395  13.887   3.588
59801SOL     OW81299  12.942  14.229  14.029
59801SOL    HW181300  12.990  14.283  13.967
59801SOL    HW281301  12.959  14.269  14.115
59802SOL     OW81302   4.002   6.601   8.938
59802SOL    HW181303   3.931   6.546   8.905
59802SOL    HW281304   4.062   6.611   8.864
59803SOL     OW81305   6.642   2.790   3.272
59803SOL    HW181306   6.676   2.848   3.340
59803SOL    HW281307   6.629   2.707   3.316
59804SOL     OW81308   8.907   7.902   4.937
59804SOL    HW181309   8.870   7.821   4.973
59804SOL    HW281310   8.842   7.969   4.956
59805SOL     OW81311   5.662  14.089   8.856
59805SOL    HW181312   5.629  14.146   8.926
59805SOL    HW281313   5.690  14.149   8.787
59806SOL     OW81314   7.347  13.862  12.068
59806SOL    HW181315   7.424  13.859  12.010
59806SOL    HW281316   7.366  13.796  12.135
59807SOL     OW81317   7.341   3.211  11.607
59807SOL    HW181318   7.326   3.280  11.672
59807SOL    HW281319   7.424   3.171  11.633
59808SOL     OW81320   1.329   2.870  13.439
59808SOL    HW181321   1.238   2.852  13.462
59808SOL    HW281322   1.347   2.813  13.364
59809SOL     OW81323   8.892  13.008   0.175
59809SOL    HW181324   8.832  13.012   0.101
59809SOL    HW281325   8.858  13.073   0.237
59810SOL     OW81326  12.989  10.655  13.142
59810SOL    HW181327  13.078  10.621  13.153
59810SOL    HW281328  12.935  10.600  13.199
59811SOL     OW81329   0.459  10.791  11.694
59811SOL    HW181330   0.520  10.845  11.743
59811SOL    HW281331   0.381  10.845  11.685
59812SOL     OW81332   5.778   4.337  10.024
59812SOL    HW181333   5.823   4.420  10.007
59812SOL    HW281334   5.773   4.333  10.120
59813SOL     OW81335   9.773  11.032  13.523
59813SOL    HW181336   9.834  11.006  13.455
59813SOL    HW281337   9.763  10.955  13.578
59814SOL     OW81338   1.250  13.333  12.739
59814SOL    HW181339   1.248  13.389  12.816
59814SOL    HW281340   1.290  13.252  12.769
59815SOL     OW81341  12.918  11.512   3.926
59815SOL    HW181342  13.008  11.493   3.899
59815SOL    HW281343  12.869  11.515   3.844
59816SOL     OW81344   9.931  12.787   6.714
59816SOL    HW181345   9.853  12.736   6.694
59816SOL    HW281346   9.949  12.768   6.806
59817SOL     OW81347   6.271  13.154   4.822
59817SOL    HW181348   6.287  13.225   4.759
59817SOL    HW281349   6.347  13.156   4.881
59818SOL     OW81350   4.251   4.093   7.856
59818SOL    HW181351   4.291   4.041   7.786
59818SOL    HW281352   4.319   4.157   7.880
59819SOL     OW81353   3.260   5.122   0.493
59819SOL    HW181354   3.290   5.140   0.582
59819SOL    HW281355   3.330   5.068   0.454
59820SOL     OW81356   3.883  11.819  13.279
59820SOL    HW181357   3.795  11.781  13.282
59820SOL    HW281358   3.942  11.748  13.303
59821SOL     OW81359   2.353  13.232   5.049
59821SOL    HW181360   2.323  13.276   4.970
59821SOL    HW281361   2.396  13.152   5.017
59822SOL     OW81362   4.375   7.379  11.347
59822SOL    HW181363   4.350   7.288  11.331
59822SOL    HW281364   4.406   7.380  11.437
59823SOL     OW81365   3.660   5.301   2.842
59823SOL    HW181366   3.565   5.306   2.839
59823SOL    HW281367   3.684   5.245   2.768
59824SOL     OW81368   1.088   9.950   5.085
59824SOL    HW181369   1.169   9.900   5.097
59824SOL    HW281370   1.037   9.898   5.023
59825SOL     OW81371  13.767  14.008   7.830
59825SOL    HW181372  13.837  14.073   7.829
59825SOL    HW281373  13.785  13.955   7.907
59826SOL     OW81374   3.292   1.038   5.679
59826SOL    HW181375   3.232   1.038   5.605
59826SOL    HW281376   3.253   1.099   5.742
59827SOL     OW81377   9.523  13.299   4.573
59827SOL    HW181378   9.517  13.354   4.651
59827SOL    HW281379   9.483  13.216   4.599
59828SOL     OW81380   8.771   8.278   3.492
59828SOL    HW181381   8.815   8.334   3.556
59828SOL    HW281382   8.687   8.321   3.477
59829SOL     OW81383   1.910   8.271   9.790
59829SOL    HW181384   1.915   8.204   9.722
59829SOL    HW281385   1.917   8.222   9.872
59830SOL     OW81386   2.128  11.090   8.614
59830SOL    HW181387   2.053  11.147   8.635
59830SOL    HW281388   2.154  11.054   8.699
59831SOL     OW81389   1.740   6.964   3.901
59831SOL    HW181390   1.744   7.056   3.926
59831SOL    HW281391   1.730   6.965   3.806
59832SOL     OW81392   6.215  14.182   0.808
59832SOL    HW181393   6.235  14.108   0.865
59832SOL    HW281394   6.133  14.156   0.764
59833SOL     OW81395   0.295   3.665   5.231
59833SOL    HW181396   0.329   3.590   5.183
59833SOL    HW281397   0.264   3.725   5.163
59834SOL     OW81398   3.818   9.751   6.824
59834SOL    HW181399   3.745   9.768   6.884
59834SOL    HW281400   3.893   9.793   6.866
59835SOL     OW81401   3.961  13.483  13.402
59835SOL    HW181402   3.968  13.543  13.327
59835SOL    HW281403   4.046  13.440  13.406
59836SOL     OW81404   2.971   1.124   1.537
59836SOL    HW181405   2.891   1.132   1.485
59836SOL    HW281406   2.959   1.187   1.609
59837SOL     OW81407   3.120  13.128   4.096
59837SOL    HW181408   3.061  13.083   4.157
59837SOL    HW281409   3.108  13.083   4.013
59838SOL     OW81410   5.502   5.911  13.480
59838SOL    HW181411   5.421   5.956  13.503
59838SOL    HW281412   5.560   5.981  13.448
59839SOL     OW81413   3.367   3.524  10.075
59839SOL    HW181414   3.353   3.563   9.989
59839SOL    HW281415   3.287   3.545  10.124
59840SOL     OW81416   4.579   5.676  10.987
59840SOL    HW181417   4.543   5.614  10.924
59840SOL    HW281418   4.502   5.716  11.028
59841SOL     OW81419   7.047   1.420   7.983
59841SOL    HW181420   7.049   1.516   7.989
59841SOL    HW281421   6.981   1.402   7.916
59842SOL     OW81422   6.673   0.651  13.257
59842SOL    HW181423   6.744   0.712  13.240
59842SOL    HW281424   6.615   0.699  13.316
59843SOL     OW81425   5.501   6.838   9.503
59843SOL    HW181426   5.514   6.932   9.517
59843SOL    HW281427   5.413   6.831   9.465
59844SOL     OW81428   9.937   0.704  12.615
59844SOL    HW181429  10.030   0.691  12.630
59844SOL    HW281430   9.913   0.635  12.553
59845SOL     OW81431   4.203   5.653  13.577
59845SOL    HW181432   4.114   5.685  13.562
59845SOL    HW281433   4.193   5.561  13.601
59846SOL     OW81434  11.452  10.765   4.013
59846SOL    HW181435  11.540  10.757   3.977
59846SOL    HW281436  11.413  10.838   3.964
59847SOL     OW81437   1.542   7.801   1.876
59847SOL    HW181438   1.551   7.884   1.923
59847SOL    HW281439   1.454   7.770   1.898
59848SOL     OW81440   9.456   3.347   9.262
59848SOL    HW181441   9.414   3.433   9.256
59848SOL    HW281442   9.415   3.305   9.337
59849SOL     OW81443  14.212   8.844   2.089
59849SOL    HW181444  14.278   8.785   2.126
59849SOL    HW281445  14.258   8.927   2.079
59850SOL     OW81446   2.355   9.124  11.841
59850SOL    HW181447   2.338   9.209  11.882
59850SOL    HW281448   2.282   9.112  11.780
59851SOL     OW81449  13.275  10.869   5.870
59851SOL    HW181450  13.243  10.952   5.834
59851SOL    HW281451  13.196  10.816   5.880
59852SOL     OW81452  12.866   9.337  12.674
59852SOL    HW181453  12.860   9.258  12.729
59852SOL    HW281454  12.775   9.355  12.650
59853SOL     OW81455  13.764  14.460   9.562
59853SOL    HW181456  13.851  14.497   9.571
59853SOL    HW281457  13.739  14.477   9.471
59854SOL     OW81458   8.564   2.487   6.630
59854SOL    HW181459   8.522   2.510   6.547
59854SOL    HW281460   8.515   2.535   6.696
59855SOL     OW81461   0.890   0.553   0.749
59855SOL    HW181462   0.841   0.517   0.823
59855SOL    HW281463   0.979   0.521   0.760
59856SOL     OW81464  12.436   6.423   7.277
59856SOL    HW181465  12.461   6.335   7.247
59856SOL    HW281466  12.500   6.481   7.237
59857SOL     OW81467  13.428   8.963   2.493
59857SOL    HW181468  13.472   9.005   2.419
59857SOL    HW281469  13.476   8.881   2.505
59858SOL     OW81470  14.712  13.277  11.078
59858SOL    HW181471  14.642  13.224  11.117
59858SOL    HW281472  14.711  13.252  10.985
59859SOL     OW81473   2.372   8.009   0.926
59859SOL    HW181474   2.464   8.005   0.951
59859SOL    HW281475   2.347   8.100   0.940
59860SOL     OW81476   1.254   0.107   4.851
59860SOL    HW181477   1.303   0.186   4.871
59860SOL    HW281478   1.268   0.092   4.758
59861SOL     OW81479   0.928   6.155   9.123
59861SOL    HW181480   1.005   6.151   9.065
59861SOL    HW281481   0.964   6.179   9.208
59862SOL     OW81482  11.019   3.645   2.050
59862SOL    HW181483  11.093   3.608   2.002
59862SOL    HW281484  10.960   3.677   1.982
59863SOL     OW81485  13.129   3.324   9.567
59863SOL    HW181486  13.124   3.411   9.606
59863SOL    HW281487  13.046   3.282   9.591
59864SOL     OW81488   6.441  10.884   7.453
59864SOL    HW181489   6.507  10.817   7.469
59864SOL    HW281490   6.486  10.950   7.402
59865SOL     OW81491   5.506   9.209   7.012
59865SOL    HW181492   5.560   9.243   7.083
59865SOL    HW281493   5.469   9.127   7.046
59866SOL     OW81494  12.997   6.848   9.447
59866SOL    HW181495  12.975   6.927   9.497
59866SOL    HW281496  12.913   6.816   9.415
59867SOL     OW81497  13.555   1.690  10.117
59867SOL    HW181498  13.483   1.660  10.061
59867SOL    HW281499  13.513   1.741  10.186
59868SOL     OW81500   1.077   0.968   2.457
59868SOL    HW181501   1.111   0.925   2.535
59868SOL    HW281502   0.990   0.999   2.483
59869SOL     OW81503  11.980  11.380   3.210
59869SOL    HW181504  12.004  11.342   3.125
59869SOL    HW281505  11.894  11.343   3.230
59870SOL     OW81506   1.760   8.806  11.114
59870SOL    HW181507   1.787   8.779  11.201
59870SOL    HW281508   1.836   8.788  11.058
59871SOL     OW81509  13.472  12.460  14.752
59871SOL    HW181510  13.378  12.453  14.737
59871SOL    HW281511  13.496  12.545  14.716
59872SOL     OW81512   3.602   2.100  11.342
59872SOL    HW181513   3.584   2.114  11.435
59872SOL    HW281514   3.685   2.052  11.341
59873SOL     OW81515   4.541   1.151   5.557
59873SOL    HW181516   4.601   1.105   5.499
59873SOL    HW281517   4.483   1.083   5.591
59874SOL     OW81518   7.080  10.278  13.322
59874SOL    HW181519   7.146  10.258  13.389
59874SOL    HW281520   7.090  10.371  13.304
59875SOL     OW81521   7.608   6.233   0.344
59875SOL    HW181522   7.683   6.264   0.395
59875SOL    HW281523   7.581   6.152   0.387
59876SOL     OW81524   0.987   3.845   4.742
59876SOL    HW181525   0.975   3.854   4.648
59876SOL    HW281526   0.919   3.783   4.769
59877SOL     OW81527  14.503   4.922   4.780
59877SOL    HW181528  14.545   4.838   4.762
59877SOL    HW281529  14.411   4.909   4.756
59878SOL     OW81530  10.930   9.372   0.491
59878SOL    HW181531  10.858   9.312   0.471
59878SOL    HW281532  10.891   9.459   0.483
59879SOL     OW81533  13.874  11.661   2.136
59879SOL    HW181534  13.961  11.656   2.096
59879SOL    HW281535  13.838  11.573   2.125
59880SOL     OW81536  10.407  13.736   4.165
59880SOL    HW181537  10.442  13.703   4.082
59880SOL    HW281538  10.470  13.802   4.193
59881SOL     OW81539   3.793   7.446  11.124
59881SOL    HW181540   3.871   7.494  11.153
59881SOL    HW281541   3.823   7.395  11.049
59882SOL     OW81542  11.597  12.768   8.907
59882SOL    HW181543  11.507  12.735   8.907
59882SOL    HW281544  11.597  12.839   8.972
59883SOL     OW81545   5.975  13.240   0.708
59883SOL    HW181546   5.997  13.296   0.633
59883SOL    HW281547   5.965  13.302   0.781
59884SOL     OW81548   4.808   3.955   4.720
59884SOL    HW181549   4.716   3.978   4.704
59884SOL    HW281550   4.832   4.006   4.797
59885SOL     OW81551  14.242   3.890   3.285
59885SOL    HW181552  14.274   3.890   3.375
59885SOL    HW281553  14.226   3.982   3.265
59886SOL     OW81554  10.194  10.058  12.493
59886SOL    HW181555  10.221  10.078  12.403
59886SOL    HW281556  10.273  10.074  12.546
59887SOL     OW81557  14.846   1.763   6.726
59887SOL    HW181558   0.041   1.704   6.699
59887SOL    HW281559  14.853   1.837   6.666
59888SOL     OW81560   4.972   5.455   6.212
59888SOL    HW181561   5.055   5.427   6.174
59888SOL    HW281562   4.922   5.489   6.137
59889SOL     OW81563   4.714   0.058   8.838
59889SOL    HW181564   4.789   0.118   8.845
59889SOL    HW281565   4.753  14.849   8.816
59890SOL     OW81566   7.363   8.052  10.725
59890SOL    HW181567   7.442   8.049  10.778
59890SOL    HW281568   7.381   8.121  10.660
59891SOL     OW81569   1.122   2.464  13.781
59891SOL    HW181570   1.183   2.511  13.724
59891SOL    HW281571   1.137   2.501  13.868
59892SOL     OW81572  12.905   2.414   7.502
59892SOL    HW181573  12.888   2.425   7.409
59892SOL    HW281574  12.849   2.341   7.529
59893SOL     OW81575  12.320  11.695  11.681
59893SOL    HW181576  12.364  11.631  11.737
59893SOL    HW281577  12.389  11.727  11.623
59894SOL     OW81578  10.591   6.166  13.116
59894SOL    HW181579  10.498   6.188  13.124
59894SOL    HW281580  10.602   6.088  13.171
59895SOL     OW81581   6.686   7.398   6.812
59895SOL    HW181582   6.661   7.463   6.877
59895SOL    HW281583   6.778   7.380   6.830
59896SOL     OW81584   0.286   6.555  11.694
59896SOL    HW181585   0.223   6.538  11.624
59896SOL    HW281586   0.369   6.567  11.648
59897SOL     OW81587   3.406  11.390  12.641
59897SOL    HW181588   3.412  11.419  12.550
59897SOL    HW281589   3.327  11.432  12.674
59898SOL     OW81590   9.714  11.548   5.325
59898SOL    HW181591   9.765  11.522   5.401
59898SOL    HW281592   9.729  11.479   5.261
59899SOL     OW81593   1.304   8.736   8.296
59899SOL    HW181594   1.378   8.794   8.276
59899SOL    HW281595   1.277   8.701   8.211
59900SOL     OW81596   4.419   8.008   0.020
59900SOL    HW181597   4.404   7.914   0.009
59900SOL    HW281598   4.486   8.030  14.831
59901SOL     OW81599  13.396   1.993   6.696
59901SOL    HW181600  13.320   2.009   6.751
59901SOL    HW281601  13.421   2.080   6.664
59902SOL     OW81602   5.201  12.124   0.565
59902SOL    HW181603   5.151  12.044   0.581
59902SOL    HW281604   5.149  12.171   0.498
59903SOL     OW81605  14.610   7.096   4.377
59903SOL    HW181606  14.518   7.078   4.398
59903SOL    HW281607  14.647   7.010   4.356
59904SOL     OW81608  11.362   3.280   6.069
59904SOL    HW181609  11.403   3.360   6.104
59904SOL    HW281610  11.365   3.292   5.974
59905SOL     OW81611   3.302  11.450   4.776
59905SOL    HW181612   3.316  11.543   4.795
59905SOL    HW281613   3.208  11.437   4.790
59906SOL     OW81614   6.294   4.417   3.756
59906SOL    HW181615   6.374   4.412   3.809
59906SOL    HW281616   6.235   4.473   3.807
59907SOL     OW81617  10.344   0.752  13.795
59907SOL    HW181618  10.252   0.749  13.821
59907SOL    HW281619  10.355   0.678  13.735
59908SOL     OW81620   8.122   8.767   7.000
59908SOL    HW181621   8.176   8.699   7.040
59908SOL    HW281622   8.039   8.763   7.047
59909SOL     OW81623   8.697   5.363   5.108
59909SOL    HW181624   8.779   5.366   5.157
59909SOL    HW281625   8.678   5.269   5.100
59910SOL     OW81626   5.766  13.797   4.312
59910SOL    HW181627   5.819  13.806   4.391
59910SOL    HW281628   5.681  13.766   4.342
59911SOL     OW81629   5.604   9.701   9.707
59911SOL    HW181630   5.509   9.693   9.697
59911SOL    HW281631   5.618   9.792   9.731
59912SOL     OW81632  12.545   3.928   2.922
59912SOL    HW181633  12.550   3.942   3.016
59912SOL    HW281634  12.628   3.884   2.900
59913SOL     OW81635   0.658   6.317   1.173
59913SOL    HW181636   0.660   6.376   1.250
59913SOL    HW281637   0.677   6.375   1.099
59914SOL     OW81638   4.607   6.326   9.011
59914SOL    HW181639   4.607   6.383   9.088
59914SOL    HW281640   4.519   6.337   8.973
59915SOL     OW81641   0.485   3.856  11.269
59915SOL    HW181642   0.544   3.799  11.220
59915SOL    HW281643   0.399   3.839  11.232
59916SOL     OW81644   5.591   2.063  11.480
59916SOL    HW181645   5.532   2.013  11.424
59916SOL    HW281646   5.567   2.036  11.569
59917SOL     OW81647  13.324   5.344   2.441
59917SOL    HW181648  13.415   5.324   2.465
59917SOL    HW281649  13.273   5.272   2.479
59918SOL     OW81650   8.567   2.113   5.887
59918SOL    HW181651   8.477   2.135   5.862
59918SOL    HW281652   8.621   2.160   5.823
59919SOL     OW81653   8.586  12.240   0.606
59919SOL    HW181654   8.664  12.187   0.620
59919SOL    HW281655   8.567  12.276   0.693
59920SOL     OW81656   9.061   6.146   0.583
59920SOL    HW181657   9.088   6.059   0.612
59920SOL    HW281658   9.127   6.205   0.619
59921SOL     OW81659  13.610   6.653   4.154
59921SOL    HW181660  13.541   6.719   4.154
59921SOL    HW281661  13.633   6.642   4.246
59922SOL     OW81662   0.905   0.354   3.485
59922SOL    HW181663   0.820   0.391   3.512
59922SOL    HW281664   0.927   0.292   3.555
59923SOL     OW81665   0.591   4.087   5.592
59923SOL    HW181666   0.648   4.089   5.516
59923SOL    HW281667   0.576   4.179   5.614
59924SOL     OW81668   3.816   2.928   4.965
59924SOL    HW181669   3.777   2.841   4.957
59924SOL    HW281670   3.778   2.979   4.894
59925SOL     OW81671   9.947   2.801   7.057
59925SOL    HW181672  10.003   2.852   6.999
59925SOL    HW281673   9.962   2.710   7.032
59926SOL     OW81674   9.723   6.378   2.874
59926SOL    HW181675   9.632   6.352   2.887
59926SOL    HW281676   9.723   6.421   2.789
59927SOL     OW81677   4.859   3.640   0.694
59927SOL    HW181678   4.895   3.727   0.676
59927SOL    HW281679   4.805   3.620   0.618
59928SOL     OW81680   4.091   2.970   1.089
59928SOL    HW181681   4.123   2.980   1.000
59928SOL    HW281682   4.133   3.041   1.138
59929SOL     OW81683  12.093   0.605   2.568
59929SOL    HW181684  12.068   0.517   2.595
59929SOL    HW281685  12.068   0.610   2.476
59930SOL     OW81686  10.656  11.278   5.444
59930SOL    HW181687  10.608  11.250   5.367
59930SOL    HW281688  10.595  11.265   5.517
59931SOL     OW81689   9.819   9.202  14.013
59931SOL    HW181690   9.881   9.131  14.029
59931SOL    HW281691   9.778   9.217  14.098
59932SOL     OW81692  12.749  11.504   5.333
59932SOL    HW181693  12.762  11.597   5.315
59932SOL    HW281694  12.674  11.501   5.392
59933SOL     OW81695   5.237   3.474   0.087
59933SOL    HW181696   5.281   3.468   0.002
59933SOL    HW281697   5.143   3.477   0.065
59934SOL     OW81698   4.989   2.038  10.516
59934SOL    HW181699   5.011   2.129  10.540
59934SOL    HW281700   4.894   2.039  10.503
59935SOL     OW81701   2.544   9.771  12.803
59935SOL    HW181702   2.542   9.712  12.728
59935SOL    HW281703   2.556   9.714  12.878
59936SOL     OW81704   6.848  14.741  14.165
59936SOL    HW181705   6.916  14.773  14.105
59936SOL    HW281706   6.820  14.658  14.126
59937SOL     OW81707   7.300   5.179  14.161
59937SOL    HW181708   7.305   5.084  14.146
59937SOL    HW281709   7.354   5.193  14.239
59938SOL     OW81710   9.384   7.032   3.324
59938SOL    HW181711   9.313   7.031   3.259
59938SOL    HW281712   9.413   7.123   3.325
59939SOL     OW81713   4.269  14.387   0.198
59939SOL    HW181714   4.179  14.420   0.204
59939SOL    HW281715   4.284  14.375   0.105
59940SOL     OW81716   6.719   2.873   3.526
59940SOL    HW181717   6.814   2.874   3.521
59940SOL    HW281718   6.694   2.964   3.542
59941SOL     OW81719   7.835  11.058  13.134
59941SOL    HW181720   7.757  11.063  13.190
59941SOL    HW281721   7.840  11.143  13.092
59942SOL     OW81722   8.683  13.131   7.942
59942SOL    HW181723   8.774  13.158   7.954
59942SOL    HW281724   8.660  13.088   8.024
59943SOL     OW81725   7.062   0.614  10.155
59943SOL    HW181726   7.147   0.633  10.116
59943SOL    HW281727   7.010   0.693  10.138
59944SOL     OW81728  11.350   9.328   3.983
59944SOL    HW181729  11.346   9.409   3.931
59944SOL    HW281730  11.393   9.265   3.925
59945SOL     OW81731   8.855   8.704   1.305
59945SOL    HW181732   8.794   8.724   1.234
59945SOL    HW281733   8.941   8.719   1.267
59946SOL     OW81734   2.318   1.164  11.310
59946SOL    HW181735   2.351   1.077  11.333
59946SOL    HW281736   2.261   1.189  11.382
59947SOL     OW81737   9.704  13.436   0.929
59947SOL    HW181738   9.662  13.363   0.882
59947SOL    HW281739   9.784  13.398   0.965
59948SOL     OW81740   6.683   1.396   0.169
59948SOL    HW181741   6.672   1.340   0.246
59948SOL    HW281742   6.595   1.401   0.131
59949SOL     OW81743  12.137  10.987   4.346
59949SOL    HW181744  12.132  10.996   4.251
59949SOL    HW281745  12.068  11.045   4.379
59950SOL     OW81746   3.690   0.410  12.465
59950SOL    HW181747   3.690   0.369  12.379
59950SOL    HW281748   3.771   0.461  12.467
59951SOL     OW81749   7.425  12.992   4.329
59951SOL    HW181750   7.496  13.001   4.393
59951SOL    HW281751   7.469  12.964   4.249
59952SOL     OW81752   1.195   7.257  10.223
59952SOL    HW181753   1.110   7.285  10.255
59952SOL    HW281754   1.227   7.331  10.171
59953SOL     OW81755  12.034  11.451  14.156
59953SOL    HW181756  12.039  11.465  14.250
59953SOL    HW281757  12.114  11.492  14.122
59954SOL     OW81758   1.284   7.063   3.100
59954SOL    HW181759   1.209   7.110   3.063
59954SOL    HW281760   1.355   7.076   3.038
59955SOL     OW81761   0.273  10.604   3.330
59955SOL    HW181762   0.249  10.696   3.341
59955SOL    HW281763   0.207  10.556   3.379
59956SOL     OW81764  12.840  12.639   4.293
59956SOL    HW181765  12.842  12.596   4.208
59956SOL    HW281766  12.779  12.586   4.345
59957SOL     OW81767   8.324  14.862  11.952
59957SOL    HW181768   8.409  14.863  11.996
59957SOL    HW281769   8.272   0.052  11.998
59958SOL     OW81770   9.258   6.467   5.212
59958SOL    HW181771   9.297   6.381   5.195
59958SOL    HW281772   9.205   6.454   5.291
59959SOL     OW81773  14.178   9.551   5.409
59959SOL    HW181774  14.257   9.498   5.400
59959SOL    HW281775  14.115   9.493   5.451
59960SOL     OW81776   5.134  10.254   6.496
59960SOL    HW181777   5.083  10.306   6.558
59960SOL    HW281778   5.222  10.289   6.502
59961SOL     OW81779   7.440  10.462   1.271
59961SOL    HW181780   7.462  10.369   1.269
59961SOL    HW281781   7.345  10.464   1.279
59962SOL     OW81782   7.211   4.285   0.637
59962SOL    HW181783   7.234   4.253   0.549
59962SOL    HW281784   7.261   4.228   0.696
59963SOL     OW81785   4.482   9.202   8.798
59963SOL    HW181786   4.566   9.176   8.838
59963SOL    HW281787   4.507   9.247   8.718
59964SOL     OW81788   4.223   0.039   1.788
59964SOL    HW181789   4.264  14.832   1.760
59964SOL    HW281790   4.192   0.020   1.876
59965SOL     OW81791  12.157   1.252   5.835
59965SOL    HW181792  12.069   1.264   5.872
59965SOL    HW281793  12.141   1.226   5.744
59966SOL     OW81794   1.282  11.475   4.384
59966SOL    HW181795   1.275  11.389   4.343
59966SOL    HW281796   1.346  11.463   4.453
59967SOL     OW81797   6.875   4.120  10.756
59967SOL    HW181798   6.815   4.135  10.683
59967SOL    HW281799   6.856   4.190  10.818
59968SOL     OW81800   8.807   4.302  12.579
59968SOL    HW181801   8.813   4.260  12.493
59968SOL    HW281802   8.754   4.380  12.564
59969SOL     OW81803   1.287   5.398  11.771
59969SOL    HW181804   1.367   5.377  11.817
59969SOL    HW281805   1.295   5.492  11.751
59970SOL     OW81806   2.934  14.660   8.541
59970SOL    HW181807   2.993  14.623   8.606
59970SOL    HW281808   2.918  14.750   8.571
59971SOL     OW81809   2.602   1.399   0.465
59971SOL    HW181810   2.549   1.358   0.396
59971SOL    HW281811   2.565   1.367   0.547
59972SOL     OW81812   8.003   3.491   9.522
59972SOL    HW181813   8.027   3.574   9.563
59972SOL    HW281814   8.086   3.445   9.509
59973SOL     OW81815   7.582  13.188  13.984
59973SOL    HW181816   7.517  13.255  14.005
59973SOL    HW281817   7.648  13.235  13.933
59974SOL     OW81818   9.079  14.284  14.578
59974SOL    HW181819   9.154  14.277  14.637
59974SOL    HW281820   9.114  14.262  14.492
59975SOL     OW81821   6.279   0.458  14.325
59975SOL    HW181822   6.275   0.549  14.295
59975SOL    HW281823   6.316   0.464  14.413
59976SOL     OW81824   2.858   3.339   3.944
59976SOL    HW181825   2.784   3.355   4.003
59976SOL    HW281826   2.933   3.330   4.002
59977SOL     OW81827   1.053   5.179   1.209
59977SOL    HW181828   1.021   5.133   1.287
59977SOL    HW281829   1.006   5.262   1.209
59978SOL     OW81830   8.527   2.028  11.780
59978SOL    HW181831   8.618   2.010  11.759
59978SOL    HW281832   8.530   2.089  11.853
59979SOL     OW81833   3.402   2.995   5.510
59979SOL    HW181834   3.449   2.977   5.429
59979SOL    HW281835   3.450   3.067   5.551
59980SOL     OW81836   2.811  14.007   8.585
59980SOL    HW181837   2.802  14.070   8.657
59980SOL    HW281838   2.877  13.945   8.616
59981SOL     OW81839   4.207   9.853   9.268
59981SOL    HW181840   4.300   9.853   9.247
59981SOL    HW281841   4.202   9.814   9.355
59982SOL     OW81842  11.324   6.049   7.540
59982SOL    HW181843  11.262   5.977   7.552
59982SOL    HW281844  11.339   6.052   7.446
59983SOL     OW81845  14.856  13.772   9.828
59983SOL    HW181846  14.846  13.772   9.733
59983SOL    HW281847   0.039  13.846   9.846
59984SOL     OW81848   0.188  13.272  14.663
59984SOL    HW181849   0.244  13.304  14.592
59984SOL    HW281850   0.193  13.340  14.730
59985SOL     OW81851   5.273  12.122  10.967
59985SOL    HW181852   5.207  12.070  10.921
59985SOL    HW281853   5.345  12.061  10.982
59986SOL     OW81854  13.538  14.597   1.569
59986SOL    HW181855  13.467  14.628   1.626
59986SOL    HW281856  13.618  14.624   1.613
59987SOL     OW81857   7.224  13.275   9.095
59987SOL    HW181858   7.155  13.211   9.078
59987SOL    HW281859   7.184  13.338   9.155
59988SOL     OW81860  12.791   8.298   6.497
59988SOL    HW181861  12.733   8.307   6.573
59988SOL    HW281862  12.740   8.248   6.434
59989SOL     OW81863   2.463   2.325   3.672
59989SOL    HW181864   2.437   2.360   3.757
59989SOL    HW281865   2.523   2.253   3.692
59990SOL     OW81866  14.346  12.670  10.484
59990SOL    HW181867  14.414  12.736  10.496
59990SOL    HW281868  14.287  12.707  10.418
59991SOL     OW81869   0.404   5.043   3.518
59991SOL    HW181870   0.437   5.061   3.430
59991SOL    HW281871   0.475   4.996   3.561
59992SOL     OW81872   4.937   9.752  10.716
59992SOL    HW181873   4.932   9.703  10.634
59992SOL    HW281874   4.944   9.843  10.689
59993SOL     OW81875  10.350   0.782  14.369
59993SOL    HW181876  10.347   0.809  14.278
59993SOL    HW281877  10.436   0.810  14.400
59994SOL     OW81878  13.585   5.156   9.053
59994SOL    HW181879  13.640   5.222   9.095
59994SOL    HW281880  13.536   5.204   8.987
59995SOL     OW81881   7.999   7.882   6.110
59995SOL    HW181882   7.909   7.848   6.116
59995SOL    HW281883   8.054   7.805   6.121
59996SOL     OW81884   5.945   3.363  14.762
59996SOL    HW181885   5.933   3.457  14.745
59996SOL    HW281886   5.858   3.326  14.750
59997SOL     OW81887   2.743  10.150  14.590
59997SOL    HW181888   2.718  10.169  14.680
59997SOL    HW281889   2.821  10.203  14.574
59998SOL     OW81890   5.070   7.139   7.080
59998SOL    HW181891   5.031   7.159   7.165
59998SOL    HW281892   5.145   7.084   7.100
59999SOL     OW81893   2.056   5.720  13.776
59999SOL    HW181894   2.115   5.789  13.743
59999SOL    HW281895   1.995   5.767  13.834
60000SOL     OW81896  14.080   3.785   5.161
60000SOL    HW181897  14.097   3.747   5.075
60000SOL    HW281898  14.152   3.847   5.175
60001SOL     OW81899  14.253   0.541   7.467
60001SOL    HW181900  14.271   0.635   7.468
60001SOL    HW281901  14.272   0.512   7.556
60002SOL     OW81902   0.197   6.002  11.549
60002SOL    HW181903   0.227   6.011  11.458
60002SOL    HW281904   0.218   6.086  11.590
60003SOL     OW81905   5.178   5.934  12.257
60003SOL    HW181906   5.196   5.951  12.165
60003SOL    HW281907   5.264   5.913  12.295
60004SOL     OW81908  14.654  11.703  12.847
60004SOL    HW181909  14.569  11.740  12.872
60004SOL    HW281910  14.678  11.750  12.767
60005SOL     OW81911  14.548   9.596   4.687
60005SOL    HW181912  14.594   9.513   4.697
60005SOL    HW281913  14.504   9.588   4.602
60006SOL     OW81914   8.345   4.044   2.868
60006SOL    HW181915   8.302   4.048   2.954
60006SOL    HW281916   8.310   3.965   2.827
60007SOL     OW81917   6.042   9.957   7.406
60007SOL    HW181918   6.125   9.928   7.444
60007SOL    HW281919   6.018   9.888   7.344
60008SOL     OW81920   1.356   2.836   1.413
60008SOL    HW181921   1.451   2.845   1.410
60008SOL    HW281922   1.323   2.920   1.383
60009SOL     OW81923  12.306   7.658  14.270
60009SOL    HW181924  12.291   7.752  14.280
60009SOL    HW281925  12.219   7.619  14.275
60010SOL     OW81926  14.795   6.579   9.800
60010SOL    HW181927  14.712   6.591   9.846
60010SOL    HW281928  14.775   6.516   9.731
60011SOL     OW81929   8.354   3.150  10.452
60011SOL    HW181930   8.332   3.235  10.414
60011SOL    HW281931   8.281   3.093  10.427
60012SOL     OW81932  12.986  14.865   8.653
60012SOL    HW181933  13.031  14.868   8.737
60012SOL    HW281934  12.936  14.784   8.655
60013SOL     OW81935   5.542   3.944  12.842
60013SOL    HW181936   5.547   4.007  12.915
60013SOL    HW281937   5.548   3.998  12.763
60014SOL     OW81938   9.801  10.485  11.439
60014SOL    HW181939   9.812  10.420  11.508
60014SOL    HW281940   9.880  10.478  11.386
60015SOL     OW81941  11.051   8.348   6.900
60015SOL    HW181942  11.064   8.397   6.981
60015SOL    HW281943  10.969   8.382   6.865
60016SOL     OW81944   4.964   7.310  11.023
60016SOL    HW181945   4.936   7.259  10.947
60016SOL    HW281946   5.011   7.385  10.986
60017SOL     OW81947   0.575   3.437  11.933
60017SOL    HW181948   0.603   3.458  12.023
60017SOL    HW281949   0.657   3.434  11.883
60018SOL     OW81950   3.377  10.373  11.814
60018SOL    HW181951   3.407  10.324  11.891
60018SOL    HW281952   3.377  10.308  11.744
60019SOL     OW81953   1.273   2.422  12.350
60019SOL    HW181954   1.241   2.496  12.298
60019SOL    HW281955   1.275   2.349  12.289
60020SOL     OW81956   0.789  11.683  10.982
60020SOL    HW181957   0.807  11.640  10.899
60020SOL    HW281958   0.870  11.675  11.032
60021SOL     OW81959   7.813   4.621   1.400
60021SOL    HW181960   7.887   4.661   1.446
60021SOL    HW281961   7.764   4.575   1.468
60022SOL     OW81962  10.401   7.407   4.775
60022SOL    HW181963  10.344   7.466   4.724
60022SOL    HW281964  10.485   7.410   4.729
60023SOL     OW81965   7.921   0.771   1.601
60023SOL    HW181966   7.849   0.834   1.615
60023SOL    HW281967   7.935   0.732   1.687
60024SOL     OW81968  12.503   6.890   9.499
60024SOL    HW181969  12.502   6.852   9.411
60024SOL    HW281970  12.453   6.972   9.490
60025SOL     OW81971  10.427   0.708   7.008
60025SOL    HW181972  10.342   0.706   6.965
60025SOL    HW281973  10.407   0.724   7.100
60026SOL     OW81974   6.444   9.917   8.514
60026SOL    HW181975   6.525   9.936   8.561
60026SOL    HW281976   6.472   9.872   8.435
60027SOL     OW81977   5.474  10.520   3.623
60027SOL    HW181978   5.526  10.549   3.548
60027SOL    HW281979   5.392  10.568   3.616
60028SOL     OW81980   9.962   4.701  14.509
60028SOL    HW181981   9.961   4.610  14.478
60028SOL    HW281982  10.055   4.722  14.520
60029SOL     OW81983  10.434   6.682   7.596
60029SOL    HW181984  10.507   6.631   7.630
60029SOL    HW281985  10.417   6.646   7.509
60030SOL     OW81986   4.901  13.137  14.364
60030SOL    HW181987   4.818  13.177  14.390
60030SOL    HW281988   4.964  13.168  14.429
60031SOL     OW81989   0.229  13.707   1.541
60031SOL    HW181990   0.232  13.740   1.630
60031SOL    HW281991   0.216  13.785   1.486
60032SOL     OW81992  10.682  13.645  11.805
60032SOL    HW181993  10.695  13.659  11.711
60032SOL    HW281994  10.698  13.551  11.817
60033SOL     OW81995   5.161   7.239  11.372
60033SOL    HW181996   5.134   7.181  11.300
60033SOL    HW281997   5.166   7.182  11.448
60034SOL     OW81998   9.973   3.477   5.522
60034SOL    HW181999   9.959   3.558   5.571
60034SOL    HW282000   9.903   3.476   5.456
60035SOL     OW82001   7.162  12.257   1.925
60035SOL    HW182002   7.223  12.281   1.855
60035SOL    HW282003   7.146  12.164   1.911
60036SOL     OW82004  13.941   1.242   1.046
60036SOL    HW182005  13.949   1.177   0.976
60036SOL    HW282006  13.850   1.272   1.041
60037SOL     OW82007  13.306   4.153   5.933
60037SOL    HW182008  13.376   4.137   5.870
60037SOL    HW282009  13.247   4.078   5.923
60038SOL     OW82010   1.222   4.015  11.715
60038SOL    HW182011   1.213   3.920  11.727
60038SOL    HW282012   1.290   4.024  11.648
60039SOL     OW82013   4.633   4.312   4.101
60039SOL    HW182014   4.601   4.309   4.011
60039SOL    HW282015   4.720   4.351   4.095
60040SOL     OW82016   9.372   5.234   2.102
60040SOL    HW182017   9.293   5.264   2.057
60040SOL    HW282018   9.355   5.142   2.123
60041SOL     OW82019   9.683  14.503  13.718
60041SOL    HW182020   9.606  14.543  13.679
60041SOL    HW282021   9.712  14.567  13.783
60042SOL     OW82022  14.304   4.178   0.832
60042SOL    HW182023  14.378   4.225   0.793
60042SOL    HW282024  14.262   4.243   0.888
60043SOL     OW82025   7.797   6.654   4.839
60043SOL    HW182026   7.807   6.743   4.805
60043SOL    HW282027   7.708   6.651   4.873
60044SOL     OW82028   0.951   9.486   3.879
60044SOL    HW182029   0.966   9.548   3.950
60044SOL    HW282030   1.002   9.521   3.806
60045SOL     OW82031   8.646   8.486   7.044
60045SOL    HW182032   8.702   8.484   6.967
60045SOL    HW282033   8.659   8.574   7.081
60046SOL     OW82034  13.142  13.866  14.810
60046SOL    HW182035  13.226  13.832  14.779
60046SOL    HW282036  13.125  13.942  14.754
60047SOL     OW82037  10.806   8.419   9.539
60047SOL    HW182038  10.752   8.431   9.461
60047SOL    HW282039  10.893   8.400   9.505
60048SOL     OW82040   9.676  14.829  13.472
60048SOL    HW182041   9.631   0.029  13.434
60048SOL    HW282042   9.678  14.848  13.566
60049SOL     OW82043   7.165  11.113   3.814
60049SOL    HW182044   7.112  11.172   3.760
60049SOL    HW282045   7.250  11.157   3.821
60050SOL     OW82046  11.970   4.124   5.468
60050SOL    HW182047  11.899   4.081   5.420
60050SOL    HW282048  11.981   4.070   5.546
60051SOL     OW82049   5.958   5.047  13.478
60051SOL    HW182050   5.906   5.095  13.542
60051SOL    HW282051   5.933   5.085  13.393
60052SOL     OW82052   1.572  13.822   6.283
60052SOL    HW182053   1.568  13.726   6.291
60052SOL    HW282054   1.612  13.851   6.365
60053SOL     OW82055  14.238   5.288  14.687
60053SOL    HW182056  14.330   5.310  14.697
60053SOL    HW282057  14.229   5.260  14.596
60054SOL     OW82058   2.365  12.136  10.004
60054SOL    HW182059   2.294  12.097   9.954
60054SOL    HW282060   2.360  12.094  10.090
60055SOL     OW82061   1.434  13.246   9.374
60055SOL    HW182062   1.411  13.336   9.350
60055SOL    HW282063   1.357  13.213   9.420
60056SOL     OW82064   2.745  14.551   5.478
60056SOL    HW182065   2.748  14.520   5.569
60056SOL    HW282066   2.762  14.645   5.485
60057SOL     OW82067  12.251  14.002   2.091
60057SOL    HW182068  12.331  14.022   2.139
60057SOL    HW282069  12.183  13.996   2.159
60058SOL     OW82070   9.359   3.734  14.232
60058SOL    HW182071   9.352   3.751  14.138
60058SOL    HW282072   9.411   3.807  14.267
60059SOL     OW82073   9.919  12.570   9.676
60059SOL    HW182074  10.010  12.542   9.678
60059SOL    HW282075   9.869  12.492   9.701
60060SOL     OW82076   9.821   5.395   1.017
60060SOL    HW182077   9.876   5.358   0.947
60060SOL    HW282078   9.732   5.368   0.994
60061SOL     OW82079  11.799   4.608   4.036
60061SOL    HW182080  11.886   4.577   4.013
60061SOL    HW282081  11.803   4.703   4.025
60062SOL     OW82082  12.765   5.226  13.153
60062SOL    HW182083  12.808   5.270  13.079
60062SOL    HW282084  12.673   5.220  13.127
60063SOL     OW82085   5.571   5.491   2.372
60063SOL    HW182086   5.639   5.506   2.306
60063SOL    HW282087   5.615   5.439   2.440
60064SOL     OW82088  10.258   1.716   9.760
60064SOL    HW182089  10.237   1.699   9.668
60064SOL    HW282090  10.194   1.781   9.788
60065SOL     OW82091   9.288  12.556   2.113
60065SOL    HW182092   9.262  12.500   2.186
60065SOL    HW282093   9.284  12.645   2.149
60066SOL     OW82094  10.357  11.569   6.828
60066SOL    HW182095  10.428  11.586   6.891
60066SOL    HW282096  10.397  11.514   6.761
60067SOL     OW82097   6.233   7.932   8.564
60067SOL    HW182098   6.299   7.975   8.618
60067SOL    HW282099   6.269   7.845   8.547
60068SOL     OW82100  10.044   0.333  12.256
60068SOL    HW182101   9.995   0.284  12.322
60068SOL    HW282102   9.990   0.330  12.177
60069SOL     OW82103   1.963   6.135   8.453
60069SOL    HW182104   1.996   6.131   8.363
60069SOL    HW282105   1.868   6.137   8.444
60070SOL     OW82106   2.359  12.356   1.271
60070SOL    HW182107   2.297  12.418   1.233
60070SOL    HW282108   2.419  12.411   1.322
60071SOL     OW82109   9.593   0.982   6.682
60071SOL    HW182110   9.639   1.040   6.621
60071SOL    HW282111   9.524   0.942   6.629
60072SOL     OW82112   7.234   4.707   6.679
60072SOL    HW182113   7.205   4.796   6.703
60072SOL    HW282114   7.296   4.683   6.748
60073SOL     OW82115   9.870  11.220   6.992
60073SOL    HW182116   9.940  11.170   6.950
60073SOL    HW282117   9.885  11.209   7.086
60074SOL     OW82118  13.701   9.953   0.966
60074SOL    HW182119  13.637   9.983   0.900
60074SOL    HW282120  13.756   9.890   0.918
60075SOL     OW82121  14.499   8.071  14.044
60075SOL    HW182122  14.562   8.008  14.080
60075SOL    HW282123  14.414   8.042  14.079
60076SOL     OW82124  10.029  11.359   0.795
60076SOL    HW182125   9.975  11.282   0.776
60076SOL    HW282126   9.978  11.433   0.760
60077SOL     OW82127   1.634  10.688   7.155
60077SOL    HW182128   1.655  10.627   7.225
60077SOL    HW282129   1.579  10.637   7.094
60078SOL     OW82130   4.245   0.371   1.256
60078SOL    HW182131   4.246   0.354   1.162
60078SOL    HW282132   4.275   0.289   1.295
60079SOL     OW82133  13.209  11.685   4.031
60079SOL    HW182134  13.274  11.748   4.062
60079SOL    HW282135  13.158  11.663   4.108
60080SOL     OW82136   3.242   1.970  14.311
60080SOL    HW182137   3.326   1.950  14.352
60080SOL    HW282138   3.225   1.896  14.253
60081SOL     OW82139   2.376   4.062  11.816
60081SOL    HW182140   2.396   4.154  11.832
60081SOL    HW282141   2.410   4.016  11.893
60082SOL     OW82142  12.471  13.129  10.594
60082SOL    HW182143  12.508  13.124  10.682
60082SOL    HW282144  12.421  13.048  10.585
60083SOL     OW82145   2.966   7.388   8.421
60083SOL    HW182146   2.874   7.364   8.432
60083SOL    HW282147   2.970   7.480   8.449
60084SOL     OW82148   7.305  12.970   7.652
60084SOL    HW182149   7.282  12.975   7.559
60084SOL    HW282150   7.342  12.882   7.662
60085SOL     OW82151   3.700   0.712   7.245
60085SOL    HW182152   3.783   0.731   7.202
60085SOL    HW282153   3.700   0.765   7.324
60086SOL     OW82154   3.686   5.903   9.185
60086SOL    HW182155   3.779   5.926   9.191
60086SOL    HW282156   3.645   5.981   9.147
60087SOL     OW82157   9.869   7.303  10.005
60087SOL    HW182158   9.780   7.338  10.005
60087SOL    HW282159   9.921   7.371   9.962
60088SOL     OW82160  13.879  12.821   4.165
60088SOL    HW182161  13.901  12.733   4.194
60088SOL    HW282162  13.947  12.844   4.102
60089SOL     OW82163  12.764   1.550   2.445
60089SOL    HW182164  12.695   1.572   2.507
60089SOL    HW282165  12.719   1.540   2.361
60090SOL     OW82166   0.480  14.759   2.754
60090SOL    HW182167   0.437  14.706   2.686
60090SOL    HW282168   0.555  14.707   2.781
60091SOL     OW82169   5.993   0.689   4.795
60091SOL    HW182170   5.995   0.599   4.827
60091SOL    HW282171   6.085   0.712   4.784
60092SOL     OW82172   5.677   4.936   0.007
60092SOL    HW182173   5.704   5.019   0.048
60092SOL    HW282174   5.582   4.936   0.017
60093SOL     OW82175  11.929  10.573   2.408
60093SOL    HW182176  11.943  10.665   2.429
60093SOL    HW282177  12.007  10.549   2.357
60094SOL     OW82178   7.267  10.784  12.349
60094SOL    HW182179   7.193  10.838  12.378
60094SOL    HW282180   7.235  10.694  12.354
60095SOL     OW82181   5.748  13.677   6.530
60095SOL    HW182182   5.805  13.602   6.547
60095SOL    HW282183   5.728  13.671   6.437
60096SOL     OW82184   7.582   6.096   3.242
60096SOL    HW182185   7.492   6.098   3.210
60096SOL    HW282186   7.574   6.083   3.337
60097SOL     OW82187   7.719  13.381   4.287
60097SOL    HW182188   7.678  13.445   4.345
60097SOL    HW282189   7.771  13.435   4.227
60098SOL     OW82190   3.801   5.407  11.794
60098SOL    HW182191   3.706   5.415  11.796
60098SOL    HW282192   3.833   5.491  11.829
60099SOL     OW82193   5.791   7.984   4.297
60099SOL    HW182194   5.780   7.915   4.232
60099SOL    HW282195   5.871   8.030   4.270
60100SOL     OW82196   7.122   1.300   2.701
60100SOL    HW182197   7.185   1.274   2.768
60100SOL    HW282198   7.061   1.226   2.695
60101SOL     OW82199   7.132  14.277   7.331
60101SOL    HW182200   7.206  14.280   7.393
60101SOL    HW282201   7.056  14.263   7.387
60102SOL     OW82202  12.187  10.400   5.012
60102SOL    HW182203  12.186  10.432   5.102
60102SOL    HW282204  12.280  10.396   4.989
60103SOL     OW82205   0.014  13.555  12.344
60103SOL    HW182206   0.035  13.564  12.251
60103SOL    HW282207   0.071  13.485  12.375
60104SOL     OW82208   5.628   4.581   0.413
60104SOL    HW182209   5.609   4.587   0.506
60104SOL    HW282210   5.581   4.654   0.373
60105SOL     OW82211   1.052  14.040   9.378
60105SOL    HW182212   1.022  14.076   9.461
60105SOL    HW282213   0.978  14.051   9.318
60106SOL     OW82214   2.301   4.660   0.517
60106SOL    HW182215   2.285   4.745   0.557
60106SOL    HW282216   2.238   4.654   0.445
60107SOL     OW82217  12.066   7.075   1.330
60107SOL    HW182218  12.129   7.144   1.308
60107SOL    HW282219  12.105   6.995   1.297
60108SOL     OW82220  11.042   8.377  12.631
60108SOL    HW182221  11.098   8.345  12.560
60108SOL    HW282222  11.006   8.297  12.671
60109SOL     OW82223  11.955   8.861   6.544
60109SOL    HW182224  11.891   8.805   6.590
60109SOL    HW282225  11.901   8.927   6.500
60110SOL     OW82226  10.768   2.204   3.229
60110SOL    HW182227  10.690   2.170   3.273
60110SOL    HW282228  10.813   2.255   3.296
60111SOL     OW82229  14.312   5.053   6.165
60111SOL    HW182230  14.346   5.002   6.239
60111SOL    HW282231  14.389   5.096   6.128
60112SOL     OW82232   6.051  11.363   9.893
60112SOL    HW182233   5.976  11.386   9.948
60112SOL    HW282234   6.012  11.324   9.814
60113SOL     OW82235  11.710  13.938   2.519
60113SOL    HW182236  11.679  13.850   2.498
60113SOL    HW282237  11.726  13.936   2.613
60114SOL     OW82238  12.740   4.836   3.794
60114SOL    HW182239  12.807   4.796   3.738
60114SOL    HW282240  12.788   4.876   3.866
60115SOL     OW82241   4.463   5.393   1.795
60115SOL    HW182242   4.369   5.411   1.802
60115SOL    HW282243   4.502   5.479   1.780
60116SOL     OW82244   0.861  11.376  14.182
60116SOL    HW182245   0.942  11.402  14.137
60116SOL    HW282246   0.858  11.432  14.260
60117SOL     OW82247  14.562   0.566   3.102
60117SOL    HW182248  14.473   0.538   3.124
60117SOL    HW282249  14.553   0.661   3.088
60118SOL     OW82250   2.249   2.396  10.158
60118SOL    HW182251   2.155   2.386  10.149
60118SOL    HW282252   2.268   2.481  10.119
60119SOL     OW82253   9.125  13.781   8.056
60119SOL    HW182254   9.098  13.872   8.068
60119SOL    HW282255   9.134  13.747   8.145
60120SOL     OW82256   7.763   9.009   8.843
60120SOL    HW182257   7.746   8.968   8.928
60120SOL    HW282258   7.854   8.989   8.824
60121SOL     OW82259   8.091   1.715  10.712
60121SOL    HW182260   8.101   1.678  10.800
60121SOL    HW282261   7.996   1.719  10.698
60122SOL     OW82262   7.992  13.931   8.372
60122SOL    HW182263   7.973  13.944   8.279
60122SOL    HW282264   8.047  13.853   8.375
60123SOL     OW82265   3.191   1.443  13.720
60123SOL    HW182266   3.184   1.523  13.772
60123SOL    HW282267   3.118   1.448  13.658
60124SOL     OW82268   4.670   9.115  13.844
60124SOL    HW182269   4.689   9.062  13.921
60124SOL    HW282270   4.724   9.193  13.855
60125SOL     OW82271  11.209   4.461   4.764
60125SOL    HW182272  11.282   4.484   4.707
60125SOL    HW282273  11.160   4.543   4.773
60126SOL     OW82274   9.324   8.658   8.971
60126SOL    HW182275   9.331   8.741   8.925
60126SOL    HW282276   9.312   8.593   8.902
60127SOL     OW82277   5.082  10.498  10.270
60127SOL    HW182278   5.022  10.424  10.258
60127SOL    HW282279   5.075  10.520  10.363
60128SOL     OW82280   3.832   0.432   4.965
60128SOL    HW182281   3.778   0.423   4.887
60128SOL    HW282282   3.903   0.491   4.938
60129SOL     OW82283   4.310  14.288   2.670
60129SOL    HW182284   4.346  14.259   2.754
60129SOL    HW282285   4.324  14.383   2.670
60130SOL     OW82286  10.589   2.665   6.911
60130SOL    HW182287  10.600   2.643   6.818
60130SOL    HW282288  10.678   2.664   6.946
60131SOL     OW82289  13.196   8.542   6.728
60131SOL    HW182290  13.154   8.578   6.649
60131SOL    HW282291  13.131   8.554   6.797
60132SOL     OW82292   9.283   9.882  13.669
60132SOL    HW182293   9.323   9.795  13.665
60132SOL    HW282294   9.247   9.896  13.581
60133SOL     OW82295  10.403   5.679  12.067
60133SOL    HW182296  10.453   5.734  12.007
60133SOL    HW282297  10.468   5.623  12.109
60134SOL     OW82298   9.755   2.667  12.939
60134SOL    HW182299   9.832   2.655  12.996
60134SOL    HW282300   9.755   2.590  12.883
60135SOL     OW82301   0.561   5.827  10.241
60135SOL    HW182302   0.489   5.818  10.303
60135SOL    HW282303   0.518   5.832  10.155
60136SOL     OW82304  13.404   0.716   2.691
60136SOL    HW182305  13.463   0.791   2.688
60136SOL    HW282306  13.347   0.727   2.614
60137SOL     OW82307   7.763   3.245   2.262
60137SOL    HW182308   7.758   3.151   2.277
60137SOL    HW282309   7.674   3.271   2.239
60138SOL     OW82310   8.682   4.304   2.702
60138SOL    HW182311   8.603   4.285   2.752
60138SOL    HW282312   8.649   4.337   2.618
60139SOL     OW82313  13.890  14.771  13.516
60139SOL    HW182314  13.854  14.857  13.534
60139SOL    HW282315  13.928  14.742  13.599
60140SOL     OW82316  13.752   4.276   0.691
60140SOL    HW182317  13.697   4.348   0.660
60140SOL    HW282318  13.783   4.233   0.611
60141SOL     OW82319  14.265   3.560  14.858
60141SOL    HW182320  14.310   3.559   0.067
60141SOL    HW282321  14.177   3.528   0.003
60142SOL     OW82322   5.752   0.573   2.719
60142SOL    HW182323   5.671   0.538   2.683
60142SOL    HW282324   5.782   0.637   2.654
60143SOL     OW82325   9.127   7.844   4.768
60143SOL    HW182326   9.146   7.924   4.720
60143SOL    HW282327   9.048   7.864   4.818
60144SOL     OW82328   8.058   8.888   1.840
60144SOL    HW182329   8.024   8.842   1.763
60144SOL    HW282330   8.023   8.977   1.832
60145SOL     OW82331   0.265   8.913   0.815
60145SOL    HW182332   0.317   8.932   0.894
60145SOL    HW282333   0.326   8.866   0.758
60146SOL     OW82334   9.545  11.152   4.900
60146SOL    HW182335   9.540  11.057   4.889
60146SOL    HW282336   9.493  11.169   4.979
60147SOL     OW82337  13.220  12.091   7.577
60147SOL    HW182338  13.203  12.128   7.490
60147SOL    HW282339  13.290  12.145   7.613
60148SOL     OW82340  13.518   1.014  10.857
60148SOL    HW182341  13.487   1.005  10.767
60148SOL    HW282342  13.592   0.952  10.863
60149SOL     OW82343  12.168   8.986   3.682
60149SOL    HW182344  12.226   8.922   3.724
60149SOL    HW282345  12.225   9.037   3.625
60150SOL     OW82346   1.617   1.446  10.675
60150SOL    HW182347   1.535   1.401  10.695
60150SOL    HW282348   1.652   1.470  10.760
60151SOL     OW82349   8.163   9.739   1.908
60151SOL    HW182350   8.175   9.650   1.942
60151SOL    HW282351   8.068   9.752   1.909
60152SOL     OW82352  10.842   5.269   2.764
60152SOL    HW182353  10.821   5.275   2.670
60152SOL    HW282354  10.927   5.312   2.771
60153SOL     OW82355   8.445  13.541   4.146
60153SOL    HW182356   8.496  13.615   4.178
60153SOL    HW282357   8.376  13.529   4.212
60154SOL     OW82358   4.112   7.654   9.763
60154SOL    HW182359   4.125   7.661   9.668
60154SOL    HW282360   4.092   7.561   9.777
60155SOL     OW82361   5.170  12.838   0.510
60155SOL    HW182362   5.182  12.893   0.432
60155SOL    HW282363   5.220  12.759   0.492
60156SOL     OW82364  11.563   6.318   9.458
60156SOL    HW182365  11.476   6.290   9.485
60156SOL    HW282366  11.588   6.385   9.522
60157SOL     OW82367   6.445  13.510   9.575
60157SOL    HW182368   6.482  13.435   9.622
60157SOL    HW282369   6.350  13.492   9.574
60158SOL     OW82370  10.459   3.641  11.285
60158SOL    HW182371  10.514   3.566  11.309
60158SOL    HW282372  10.521   3.711  11.266
60159SOL     OW82373   8.483   6.520  13.525
60159SOL    HW182374   8.448   6.544  13.611
60159SOL    HW282375   8.442   6.436  13.505
60160SOL     OW82376  13.198   9.705   6.217
60160SOL    HW182377  13.142   9.703   6.295
60160SOL    HW282378  13.142   9.671   6.147
60161SOL     OW82379  10.379  12.043   3.198
60161SOL    HW182380  10.292  12.081   3.204
60161SOL    HW282381  10.438  12.111   3.230
60162SOL     OW82382   1.562  13.013   4.353
60162SOL    HW182383   1.618  12.992   4.278
60162SOL    HW282384   1.620  13.008   4.429
60163SOL     OW82385  10.484   4.322   7.361
60163SOL    HW182386  10.473   4.250   7.423
60163SOL    HW282387  10.395   4.344   7.334
60164SOL     OW82388   2.686   0.183  13.497
60164SOL    HW182389   2.634   0.232  13.434
60164SOL    HW282390   2.677   0.091  13.470
60165SOL     OW82391  13.608   1.139   5.188
60165SOL    HW182392  13.623   1.232   5.207
60165SOL    HW282393  13.558   1.108   5.263
60166SOL     OW82394  12.066  11.656   8.238
60166SOL    HW182395  12.114  11.738   8.226
60166SOL    HW282396  12.054  11.649   8.333
60167SOL     OW82397   0.890   8.899   0.422
60167SOL    HW182398   0.935   8.907   0.506
60167SOL    HW282399   0.808   8.855   0.443
60168SOL     OW82400   2.511   4.707   7.140
60168SOL    HW182401   2.538   4.661   7.220
60168SOL    HW282402   2.562   4.788   7.141
60169SOL     OW82403  14.121  10.925   0.864
60169SOL    HW182404  14.078  10.892   0.943
60169SOL    HW282405  14.100  10.860   0.797
60170SOL     OW82406   6.282   2.752   4.979
60170SOL    HW182407   6.255   2.803   4.902
60170SOL    HW282408   6.319   2.816   5.039
60171SOL     OW82409  11.990   7.608   8.411
60171SOL    HW182410  12.080   7.638   8.404
60171SOL    HW282411  11.960   7.598   8.321
60172SOL     OW82412   4.926   7.973   1.998
60172SOL    HW182413   4.886   7.901   2.047
60172SOL    HW282414   4.859   8.000   1.935
60173SOL     OW82415   1.348   8.076   6.269
60173SOL    HW182416   1.280   8.097   6.333
60173SOL    HW282417   1.408   8.151   6.271
60174SOL     OW82418  12.999  11.250   4.320
60174SOL    HW182419  12.927  11.221   4.265
60174SOL    HW282420  13.035  11.170   4.357
60175SOL     OW82421  12.371   7.830  12.161
60175SOL    HW182422  12.429   7.818  12.236
60175SOL    HW282423  12.292   7.869  12.198
60176SOL     OW82424  10.842  14.415  13.208
60176SOL    HW182425  10.911  14.402  13.143
60176SOL    HW282426  10.852  14.505  13.237
60177SOL     OW82427   6.345   6.132  10.554
60177SOL    HW182428   6.405   6.207  10.558
60177SOL    HW282429   6.299   6.134  10.638
60178SOL     OW82430   7.410   1.977  11.322
60178SOL    HW182431   7.322   1.940  11.311
60178SOL    HW282432   7.415   2.046  11.256
60179SOL     OW82433   0.278   3.501   9.316
60179SOL    HW182434   0.186   3.524   9.305
60179SOL    HW282435   0.313   3.497   9.227
60180SOL     OW82436   8.711   1.083   9.656
60180SOL    HW182437   8.654   1.152   9.690
60180SOL    HW282438   8.685   1.005   9.704
60181SOL     OW82439  13.895   8.841   7.388
60181SOL    HW182440  13.872   8.920   7.436
60181SOL    HW282441  13.875   8.861   7.297
60182SOL     OW82442   1.585   5.546   5.704
60182SOL    HW182443   1.581   5.453   5.681
60182SOL    HW282444   1.517   5.557   5.771
60183SOL     OW82445   8.910   5.162   6.745
60183SOL    HW182446   8.896   5.073   6.713
60183SOL    HW282447   8.899   5.155   6.840
60184SOL     OW82448   4.919  10.813  10.473
60184SOL    HW182449   4.843  10.771  10.432
60184SOL    HW282450   4.893  10.826  10.564
60185SOL     OW82451   7.281  12.651   6.293
60185SOL    HW182452   7.242  12.724   6.245
60185SOL    HW282453   7.341  12.611   6.231
60186SOL     OW82454   7.447   5.702   8.722
60186SOL    HW182455   7.474   5.648   8.796
60186SOL    HW282456   7.371   5.656   8.685
60187SOL     OW82457   6.720   2.097  13.285
60187SOL    HW182458   6.762   2.056  13.361
60187SOL    HW282459   6.657   2.032  13.254
60188SOL     OW82460  14.198   8.310   6.270
60188SOL    HW182461  14.241   8.270   6.346
60188SOL    HW282462  14.171   8.236   6.216
60189SOL     OW82463   9.440   0.576  14.583
60189SOL    HW182464   9.420   0.532  14.665
60189SOL    HW282465   9.364   0.560  14.527
60190SOL     OW82466   3.501   3.174   9.128
60190SOL    HW182467   3.572   3.112   9.141
60190SOL    HW282468   3.538   3.241   9.069
60191SOL     OW82469   6.365  14.839   4.223
60191SOL    HW182470   6.352  14.870   4.133
60191SOL    HW282471   6.294  14.777   4.237
60192SOL     OW82472  10.691   1.314   1.364
60192SOL    HW182473  10.669   1.242   1.423
60192SOL    HW282474  10.743   1.374   1.418
60193SOL     OW82475   6.944  10.602   6.349
60193SOL    HW182476   6.909  10.637   6.267
60193SOL    HW282477   6.931  10.507   6.342
60194SOL     OW82478   7.267  12.468   6.532
60194SOL    HW182479   7.233  12.514   6.608
60194SOL    HW282480   7.255  12.530   6.460
60195SOL     OW82481  14.580   5.023   9.418
60195SOL    HW182482  14.547   5.075   9.344
60195SOL    HW282483  14.675   5.037   9.417
60196SOL     OW82484   1.776  14.003  10.348
60196SOL    HW182485   1.704  13.979  10.406
60196SOL    HW282486   1.733  14.039  10.270
60197SOL     OW82487   5.853  12.508   5.288
60197SOL    HW182488   5.873  12.414   5.284
60197SOL    HW282489   5.882  12.542   5.203
60198SOL     OW82490  11.133  10.974   7.598
60198SOL    HW182491  11.076  10.966   7.675
60198SOL    HW282492  11.126  11.066   7.572
60199SOL     OW82493  12.867   3.637   8.477
60199SOL    HW182494  12.960   3.621   8.465
60199SOL    HW282495  12.856   3.648   8.571
60200SOL     OW82496  13.615   2.704   2.246
60200SOL    HW182497  13.522   2.714   2.263
60200SOL    HW282498  13.631   2.609   2.250
60201SOL     OW82499  12.864   2.269   0.328
60201SOL    HW182500  12.955   2.299   0.332
60201SOL    HW282501  12.834   2.272   0.419
60202SOL     OW82502  10.107   3.528   3.152
60202SOL    HW182503  10.086   3.548   3.243
60202SOL    HW282504  10.179   3.464   3.157
60203SOL     OW82505   3.545   8.458   6.708
60203SOL    HW182506   3.490   8.426   6.636
60203SOL    HW282507   3.533   8.553   6.707
60204SOL     OW82508   3.439   6.544  10.636
60204SOL    HW182509   3.531   6.529  10.657
60204SOL    HW282510   3.398   6.561  10.721
60205SOL     OW82511   4.946   0.641  10.498
60205SOL    HW182512   4.901   0.676  10.421
60205SOL    HW282513   4.988   0.717  10.538
60206SOL     OW82514  11.626   0.811   9.305
60206SOL    HW182515  11.687   0.758   9.356
60206SOL    HW282516  11.678   0.886   9.277
60207SOL     OW82517   9.616  12.259  12.817
60207SOL    HW182518   9.695  12.214  12.848
60207SOL    HW282519   9.610  12.337  12.872
60208SOL     OW82520   3.378  14.221   7.247
60208SOL    HW182521   3.351  14.157   7.180
60208SOL    HW282522   3.474  14.218   7.245
60209SOL     OW82523  11.027  12.071   1.015
60209SOL    HW182524  11.062  12.006   1.075
60209SOL    HW282525  11.076  12.151   1.034
60210SOL     OW82526   0.790   8.740   3.207
60210SOL    HW182527   0.824   8.650   3.204
60210SOL    HW282528   0.697   8.731   3.187
60211SOL     OW82529   8.301   5.024   1.294
60211SOL    HW182530   8.314   5.078   1.216
60211SOL    HW282531   8.214   5.048   1.325
60212SOL     OW82532   3.965   6.577  14.826
60212SOL    HW182533   3.917   6.576   0.034
60212SOL    HW282534   4.056   6.562  14.851
60213SOL     OW82535  13.476   9.451   4.941
60213SOL    HW182536  13.562   9.410   4.933
60213SOL    HW282537  13.430   9.426   4.861
60214SOL     OW82538   3.171  10.751  13.339
60214SOL    HW182539   3.198  10.703  13.417
60214SOL    HW282540   3.170  10.686  13.269
60215SOL     OW82541   2.102   4.040   1.033
60215SOL    HW182542   2.129   3.978   1.100
60215SOL    HW282543   2.107   3.992   0.951
60216SOL     OW82544   2.102   3.205  14.037
60216SOL    HW182545   2.027   3.253  14.074
60216SOL    HW282546   2.086   3.114  14.060
60217SOL     OW82547   2.880   2.595   9.139
60217SOL    HW182548   2.937   2.641   9.201
60217SOL    HW282549   2.909   2.625   9.053
60218SOL     OW82550   1.895   1.699   0.404
60218SOL    HW182551   1.935   1.621   0.442
60218SOL    HW282552   1.910   1.768   0.468
60219SOL     OW82553  14.782   7.592   0.655
60219SOL    HW182554  14.688   7.606   0.668
60219SOL    HW282555  14.804   7.646   0.579
60220SOL     OW82556  14.026  11.203   7.032
60220SOL    HW182557  14.069  11.274   7.080
60220SOL    HW282558  13.945  11.242   6.999
60221SOL     OW82559   7.755   8.971   1.504
60221SOL    HW182560   7.780   8.977   1.412
60221SOL    HW282561   7.660   8.978   1.503
60222SOL     OW82562   7.206   9.106  11.192
60222SOL    HW182563   7.125   9.099  11.141
60222SOL    HW282564   7.182   9.162  11.267
60223SOL     OW82565  10.387   5.704   9.310
60223SOL    HW182566  10.314   5.684   9.252
60223SOL    HW282567  10.450   5.751   9.255
60224SOL     OW82568  13.191   5.681   9.745
60224SOL    HW182569  13.208   5.663   9.653
60224SOL    HW282570  13.181   5.594   9.786
60225SOL     OW82571   2.855  14.543   3.631
60225SOL    HW182572   2.770  14.585   3.625
60225SOL    HW282573   2.856  14.501   3.717
60226SOL     OW82574   3.134   3.679   1.019
60226SOL    HW182575   3.114   3.635   0.936
60226SOL    HW282576   3.210   3.735   0.999
60227SOL     OW82577   7.948   4.812   8.142
60227SOL    HW182578   7.952   4.879   8.074
60227SOL    HW282579   7.859   4.777   8.136
60228SOL     OW82580   4.236   0.850   0.923
60228SOL    HW182581   4.209   0.928   0.875
60228SOL    HW282582   4.159   0.792   0.920
60229SOL     OW82583   4.504   0.371  13.183
60229SOL    HW182584   4.514   0.295  13.126
60229SOL    HW282585   4.425   0.415  13.149
60230SOL     OW82586   3.631  12.123   4.298
60230SOL    HW182587   3.592  12.133   4.211
60230SOL    HW282588   3.556  12.122   4.358
60231SOL     OW82589   4.143   4.984  10.360
60231SOL    HW182590   4.082   5.057  10.355
60231SOL    HW282591   4.193   4.988  10.279
60232SOL     OW82592   0.070   5.663   4.567
60232SOL    HW182593   0.061   5.575   4.602
60232SOL    HW282594   0.015   5.664   4.488
60233SOL     OW82595   7.037   2.328   1.714
60233SOL    HW182596   7.064   2.374   1.793
60233SOL    HW282597   7.011   2.241   1.744
60234SOL     OW82598  12.174   8.062   2.424
60234SOL    HW182599  12.088   8.103   2.420
60234SOL    HW282600  12.236   8.135   2.413
60235SOL     OW82601   7.481   0.201   3.021
60235SOL    HW182602   7.548   0.148   3.064
60235SOL    HW282603   7.518   0.289   3.017
60236SOL     OW82604   8.865  13.966  11.506
60236SOL    HW182605   8.778  13.946  11.472
60236SOL    HW282606   8.854  13.973  11.601
60237SOL     OW82607   0.949   6.004   5.607
60237SOL    HW182608   1.006   5.994   5.683
60237SOL    HW282609   0.860   6.003   5.643
60238SOL     OW82610   8.706  14.098   1.151
60238SOL    HW182611   8.716  14.015   1.104
60238SOL    HW282612   8.623  14.088   1.198
60239SOL     OW82613   9.388  13.673  11.829
60239SOL    HW182614   9.379  13.709  11.918
60239SOL    HW282615   9.364  13.580  11.839
60240SOL     OW82616   4.710  12.933   8.062
60240SOL    HW182617   4.619  12.963   8.066
60240SOL    HW282618   4.760  13.003   8.105
60241SOL     OW82619   8.788  10.073   5.592
60241SOL    HW182620   8.810  10.166   5.585
60241SOL    HW282621   8.873  10.029   5.597
60242SOL     OW82622   1.786   8.692  11.716
60242SOL    HW182623   1.781   8.601  11.743
60242SOL    HW282624   1.718   8.700  11.648
60243SOL     OW82625  13.334   6.728  14.441
60243SOL    HW182626  13.248   6.766  14.457
60243SOL    HW282627  13.358   6.687  14.524
60244SOL     OW82628   0.760   7.653  14.091
60244SOL    HW182629   0.853   7.631  14.103
60244SOL    HW282630   0.760   7.715  14.018
60245SOL     OW82631  11.058  12.446   4.842
60245SOL    HW182632  11.050  12.467   4.934
60245SOL    HW282633  11.144  12.405   4.834
60246SOL     OW82634   3.317  12.588   6.293
60246SOL    HW182635   3.400  12.590   6.245
60246SOL    HW282636   3.342  12.562   6.381
60247SOL     OW82637   4.139   6.792   5.884
60247SOL    HW182638   4.159   6.882   5.857
60247SOL    HW282639   4.105   6.800   5.973
60248SOL     OW82640   1.260   1.388   1.635
60248SOL    HW182641   1.172   1.351   1.629
60248SOL    HW282642   1.315   1.315   1.664
60249SOL     OW82643   1.976   7.789   1.294
60249SOL    HW182644   1.959   7.865   1.239
60249SOL    HW282645   1.894   7.739   1.293
60250SOL     OW82646  11.722   4.603   2.087
60250SOL    HW182647  11.733   4.698   2.082
60250SOL    HW282648  11.718   4.585   2.181
60251SOL     OW82649   7.538  13.124   3.964
60251SOL    HW182650   7.627  13.154   3.944
60251SOL    HW282651   7.512  13.175   4.040
60252SOL     OW82652   6.029  12.191   8.983
60252SOL    HW182653   5.973  12.238   9.044
60252SOL    HW282654   6.118  12.218   9.006
60253SOL     OW82655   6.643   4.385  12.106
60253SOL    HW182656   6.728   4.424  12.126
60253SOL    HW282657   6.581   4.457  12.108
60254SOL     OW82658   0.811   4.244   3.602
60254SOL    HW182659   0.757   4.180   3.557
60254SOL    HW282660   0.758   4.273   3.677
60255SOL     OW82661   5.629   2.682  13.851
60255SOL    HW182662   5.710   2.721  13.884
60255SOL    HW282663   5.563   2.703  13.918
60256SOL     OW82664   5.811   1.541  12.180
60256SOL    HW182665   5.813   1.458  12.228
60256SOL    HW282666   5.828   1.608  12.246
60257SOL     OW82667  13.271   4.804  12.668
60257SOL    HW182668  13.346   4.861  12.683
60257SOL    HW282669  13.196   4.855  12.699
60258SOL     OW82670  10.135   7.869   6.664
60258SOL    HW182671  10.119   7.780   6.632
60258SOL    HW282672  10.143   7.922   6.585
60259SOL     OW82673   2.230  11.020   3.529
60259SOL    HW182674   2.237  11.044   3.622
60259SOL    HW282675   2.224  10.925   3.529
60260SOL     OW82676  13.128  12.118  14.153
60260SOL    HW182677  13.148  12.163  14.071
60260SOL    HW282678  13.173  12.034  14.145
60261SOL     OW82679   8.681   2.740  11.810
60261SOL    HW182680   8.654   2.750  11.902
60261SOL    HW282681   8.760   2.686  11.815
60262SOL     OW82682  12.619   2.530   1.444
60262SOL    HW182683  12.686   2.555   1.381
60262SOL    HW282684  12.545   2.500   1.391
60263SOL     OW82685   5.138   7.122   0.216
60263SOL    HW182686   5.211   7.149   0.271
60263SOL    HW282687   5.060   7.155   0.261
60264SOL     OW82688   4.585   8.577   9.039
60264SOL    HW182689   4.602   8.526   8.960
60264SOL    HW282690   4.534   8.652   9.009
60265SOL     OW82691  11.994   5.825   4.326
60265SOL    HW182692  11.967   5.917   4.323
60265SOL    HW282693  11.990   5.801   4.418
60266SOL     OW82694   2.346   7.126   6.888
60266SOL    HW182695   2.296   7.051   6.920
60266SOL    HW282696   2.434   7.092   6.873
60267SOL     OW82697  10.160   3.826   4.142
60267SOL    HW182698  10.128   3.742   4.109
60267SOL    HW282699  10.195   3.870   4.064
60268SOL     OW82700   1.106  10.957   4.342
60268SOL    HW182701   1.069  11.037   4.305
60268SOL    HW282702   1.200  10.962   4.320
60269SOL     OW82703   8.105  10.159  14.735
60269SOL    HW182704   8.048  10.237  14.737
60269SOL    HW282705   8.186  10.190  14.694
60270SOL     OW82706  10.830  12.731   3.996
60270SOL    HW182707  10.824  12.798   3.928
60270SOL    HW282708  10.830  12.648   3.948
60271SOL     OW82709   3.646   2.203  10.060
60271SOL    HW182710   3.655   2.155   9.978
60271SOL    HW282711   3.638   2.294  10.034
60272SOL     OW82712   8.236   9.714  11.978
60272SOL    HW182713   8.268   9.788  11.926
60272SOL    HW282714   8.303   9.701  12.045
60273SOL     OW82715   5.331   5.246   5.957
60273SOL    HW182716   5.419   5.217   5.977
60273SOL    HW282717   5.321   5.230   5.863
60274SOL     OW82718   4.669   0.116   6.585
60274SOL    HW182719   4.699   0.161   6.663
60274SOL    HW282720   4.622   0.182   6.535
60275SOL     OW82721  12.010   9.396  12.569
60275SOL    HW182722  11.958   9.388  12.490
60275SOL    HW282723  11.970   9.469  12.618
60276SOL     OW82724   0.474   6.242   2.749
60276SOL    HW182725   0.493   6.157   2.708
60276SOL    HW282726   0.558   6.268   2.788
60277SOL     OW82727  12.291  12.321   4.824
60277SOL    HW182728  12.353  12.394   4.834
60277SOL    HW282729  12.304  12.268   4.903
60278SOL     OW82730   3.194   5.097  13.143
60278SOL    HW182731   3.185   5.021  13.199
60278SOL    HW282732   3.113   5.146  13.154
60279SOL     OW82733   1.921  11.820   8.855
60279SOL    HW182734   2.008  11.859   8.863
60279SOL    HW282735   1.927  11.765   8.776
60280SOL     OW82736  11.244   9.999  10.235
60280SOL    HW182737  11.299  10.006  10.157
60280SOL    HW282738  11.168  10.054  10.215
60281SOL     OW82739  11.110  14.471   2.043
60281SOL    HW182740  11.197  14.431   2.039
60281SOL    HW282741  11.127  14.562   2.070
60282SOL     OW82742   6.468   8.470   7.855
60282SOL    HW182743   6.463   8.563   7.876
60282SOL    HW282744   6.474   8.467   7.759
60283SOL     OW82745  11.358   5.438   8.728
60283SOL    HW182746  11.441   5.467   8.693
60283SOL    HW282747  11.302   5.516   8.727
60284SOL     OW82748  14.460   1.486   0.752
60284SOL    HW182749  14.550   1.519   0.747
60284SOL    HW282750  14.453   1.449   0.840
60285SOL     OW82751   6.746   6.845  10.874
60285SOL    HW182752   6.737   6.938  10.890
60285SOL    HW282753   6.714   6.803  10.954
60286SOL     OW82754  13.635   0.083   6.572
60286SOL    HW182755  13.676   0.153   6.623
60286SOL    HW282756  13.679   0.086   6.488
60287SOL     OW82757   5.502   3.036  14.300
60287SOL    HW182758   5.555   2.969  14.256
60287SOL    HW282759   5.551   3.117  14.288
60288SOL     OW82760   0.234  13.752   0.461
60288SOL    HW182761   0.317  13.756   0.509
60288SOL    HW282762   0.250  13.692   0.389
60289SOL     OW82763   2.425   8.597   4.568
60289SOL    HW182764   2.330   8.589   4.580
60289SOL    HW282765   2.463   8.548   4.641
60290SOL     OW82766  10.302  13.150   9.155
60290SOL    HW182767  10.230  13.209   9.179
60290SOL    HW282768  10.322  13.174   9.064
60291SOL     OW82769   1.463   1.677   3.777
60291SOL    HW182770   1.516   1.598   3.785
60291SOL    HW282771   1.415   1.683   3.860
60292SOL     OW82772   5.425  13.976   1.372
60292SOL    HW182773   5.520  13.969   1.365
60292SOL    HW282774   5.398  13.894   1.412
60293SOL     OW82775   9.479  10.487   0.211
60293SOL    HW182776   9.394  10.494   0.166
60293SOL    HW282777   9.462  10.429   0.285
60294SOL     OW82778  11.118   7.793   1.252
60294SOL    HW182779  11.096   7.716   1.199
60294SOL    HW282780  11.053   7.792   1.323
60295SOL     OW82781  13.780   7.677   4.267
60295SOL    HW182782  13.822   7.762   4.255
60295SOL    HW282783  13.686   7.695   4.267
60296SOL     OW82784   4.258   1.156  14.327
60296SOL    HW182785   4.308   1.213  14.269
60296SOL    HW282786   4.323   1.122  14.389
60297SOL     OW82787  11.900  14.813   0.299
60297SOL    HW182788  11.856   0.005   0.247
60297SOL    HW282789  11.992  14.840   0.300
60298SOL     OW82790   7.376   6.601   6.727
60298SOL    HW182791   7.304   6.619   6.787
60298SOL    HW282792   7.376   6.676   6.667
60299SOL     OW82793   6.477  14.525   5.622
60299SOL    HW182794   6.422  14.584   5.674
60299SOL    HW282795   6.551  14.504   5.679
60300SOL     OW82796  12.837   4.948   0.448
60300SOL    HW182797  12.763   4.985   0.399
60300SOL    HW282798  12.798   4.912   0.527
60301SOL     OW82799   9.454  11.280  12.841
60301SOL    HW182800   9.459  11.230  12.759
60301SOL    HW282801   9.540  11.268  12.881
60302SOL     OW82802   1.923   4.864   5.358
60302SOL    HW182803   2.016   4.855   5.335
60302SOL    HW282804   1.923   4.878   5.452
60303SOL     OW82805   7.353  12.492   0.770
60303SOL    HW182806   7.329  12.535   0.688
60303SOL    HW282807   7.272  12.456   0.803
60304SOL     OW82808   9.019   2.364   5.502
60304SOL    HW182809   9.000   2.338   5.411
60304SOL    HW282810   9.001   2.458   5.504
60305SOL     OW82811  14.174   9.138   1.426
60305SOL    HW182812  14.100   9.097   1.471
60305SOL    HW282813  14.250   9.088   1.454
60306SOL     OW82814   8.731   3.681   9.163
60306SOL    HW182815   8.725   3.678   9.259
60306SOL    HW282816   8.761   3.770   9.144
60307SOL     OW82817   4.124   5.127   8.622
60307SOL    HW182818   4.032   5.144   8.645
60307SOL    HW282819   4.139   5.036   8.647
60308SOL     OW82820   8.060  10.643   3.796
60308SOL    HW182821   8.039  10.699   3.721
60308SOL    HW282822   8.154  10.627   3.788
60309SOL     OW82823   0.453   3.257   3.158
60309SOL    HW182824   0.451   3.207   3.239
60309SOL    HW282825   0.387   3.325   3.170
60310SOL     OW82826  10.878   8.115   2.046
60310SOL    HW182827  10.964   8.128   2.005
60310SOL    HW282828  10.893   8.046   2.111
60311SOL     OW82829   6.322  13.144  11.002
60311SOL    HW182830   6.326  13.147  10.906
60311SOL    HW282831   6.279  13.061  11.022
60312SOL     OW82832  11.196   3.574   9.895
60312SOL    HW182833  11.146   3.580   9.813
60312SOL    HW282834  11.251   3.652   9.896
60313SOL     OW82835   6.747   4.782  13.455
60313SOL    HW182836   6.708   4.810  13.538
60313SOL    HW282837   6.684   4.810  13.388
60314SOL     OW82838   0.936   1.732  10.002
60314SOL    HW182839   0.912   1.790  10.075
60314SOL    HW282840   0.857   1.681   9.986
60315SOL     OW82841  13.857  12.416   2.589
60315SOL    HW182842  13.845  12.497   2.539
60315SOL    HW282843  13.768  12.383   2.603
60316SOL     OW82844  10.978   2.255   8.839
60316SOL    HW182845  11.034   2.228   8.912
60316SOL    HW282846  10.898   2.202   8.850
60317SOL     OW82847   4.081  10.794   5.024
60317SOL    HW182848   4.095  10.735   5.099
60317SOL    HW282849   3.986  10.792   5.010
60318SOL     OW82850   2.187   1.657  13.683
60318SOL    HW182851   2.106   1.654  13.633
60318SOL    HW282852   2.211   1.750  13.685
60319SOL     OW82853   1.729  12.438  13.650
60319SOL    HW182854   1.793  12.387  13.700
60319SOL    HW282855   1.690  12.497  13.715
60320SOL     OW82856   1.632   3.326  12.902
60320SOL    HW182857   1.676   3.394  12.851
60320SOL    HW282858   1.539   3.338  12.883
60321SOL     OW82859   6.801   8.058  10.182
60321SOL    HW182860   6.809   8.113  10.104
60321SOL    HW282861   6.718   8.084  10.221
60322SOL     OW82862   3.896   7.685   2.089
60322SOL    HW182863   3.954   7.620   2.129
60322SOL    HW282864   3.872   7.647   2.005
60323SOL     OW82865   5.161   3.797   1.602
60323SOL    HW182866   5.255   3.795   1.622
60323SOL    HW282867   5.121   3.741   1.669
60324SOL     OW82868   5.661   6.031  12.485
60324SOL    HW182869   5.713   5.951  12.478
60324SOL    HW282870   5.605   6.016  12.561
60325SOL     OW82871   7.620   2.098  10.756
60325SOL    HW182872   7.541   2.122  10.707
60325SOL    HW282873   7.626   2.003  10.745
60326SOL     OW82874  13.564  11.323  11.455
60326SOL    HW182875  13.556  11.369  11.372
60326SOL    HW282876  13.540  11.232  11.435
60327SOL     OW82877  12.627   3.139   7.204
60327SOL    HW182878  12.610   3.066   7.145
60327SOL    HW282879  12.549   3.194   7.197
60328SOL     OW82880  11.323   6.270  13.727
60328SOL    HW182881  11.324   6.342  13.789
60328SOL    HW282882  11.416   6.253  13.708
60329SOL     OW82883   8.199   2.038   6.943
60329SOL    HW182884   8.143   2.015   7.018
60329SOL    HW282885   8.288   2.023   6.974
60330SOL     OW82886  14.358   6.984  13.928
60330SOL    HW182887  14.302   7.061  13.922
60330SOL    HW282888  14.429   7.001  13.866
60331SOL     OW82889  13.292   2.418  14.499
60331SOL    HW182890  13.308   2.512  14.489
60331SOL    HW282891  13.333   2.378  14.422
60332SOL     OW82892   2.844   8.248   0.489
60332SOL    HW182893   2.865   8.341   0.477
60332SOL    HW282894   2.828   8.215   0.401
60333SOL     OW82895   3.706  10.755  10.884
60333SOL    HW182896   3.711  10.844  10.849
60333SOL    HW282897   3.751  10.701  10.819
60334SOL     OW82898   4.597   1.684   8.913
60334SOL    HW182899   4.534   1.631   8.864
60334SOL    HW282900   4.671   1.695   8.853
60335SOL     OW82901   5.238   7.750   9.818
60335SOL    HW182902   5.325   7.777   9.790
60335SOL    HW282903   5.216   7.812   9.888
60336SOL     OW82904   6.803  13.175   9.324
60336SOL    HW182905   6.811  13.183   9.419
60336SOL    HW282906   6.778  13.263   9.295
60337SOL     OW82907  10.475   1.976   0.456
60337SOL    HW182908  10.549   2.035   0.473
60337SOL    HW282909  10.499   1.895   0.501
60338SOL     OW82910   5.151   4.641   5.454
60338SOL    HW182911   5.114   4.613   5.370
60338SOL    HW282912   5.079   4.631   5.516
60339SOL     OW82913   2.812  14.673   4.142
60339SOL    HW182914   2.850  14.628   4.218
60339SOL    HW282915   2.882  14.674   4.077
60340SOL     OW82916   7.805  11.567   8.241
60340SOL    HW182917   7.729  11.568   8.183
60340SOL    HW282918   7.863  11.502   8.202
60341SOL     OW82919  10.677  10.576  12.863
60341SOL    HW182920  10.581  10.567  12.860
60341SOL    HW282921  10.708  10.487  12.883
60342SOL     OW82922  11.621   0.966   1.852
60342SOL    HW182923  11.594   1.010   1.771
60342SOL    HW282924  11.667   1.033   1.902
60343SOL     OW82925  13.233   1.356   4.475
60343SOL    HW182926  13.304   1.292   4.482
60343SOL    HW282927  13.161   1.318   4.525
60344SOL     OW82928  11.539  11.736   4.282
60344SOL    HW182929  11.557  11.798   4.353
60344SOL    HW282930  11.513  11.790   4.208
60345SOL     OW82931   8.819  10.285  12.264
60345SOL    HW182932   8.826  10.190  12.278
60345SOL    HW282933   8.802  10.321  12.352
60346SOL     OW82934   4.678  11.728   3.308
60346SOL    HW182935   4.652  11.820   3.320
60346SOL    HW282936   4.659  11.710   3.216
60347SOL     OW82937  14.391   8.382   2.037
60347SOL    HW182938  14.381   8.471   2.070
60347SOL    HW282939  14.353   8.327   2.105
60348SOL     OW82940   6.648   7.503   8.227
60348SOL    HW182941   6.608   7.511   8.314
60348SOL    HW282942   6.575   7.509   8.166
60349SOL     OW82943   7.046   2.808   1.723
60349SOL    HW182944   7.050   2.903   1.710
60349SOL    HW282945   7.130   2.775   1.692
60350SOL     OW82946   6.457   3.935  14.447
60350SOL    HW182947   6.518   3.994  14.401
60350SOL    HW282948   6.380   3.990  14.464
60351SOL     OW82949   2.881   9.945   2.003
60351SOL    HW182950   2.887  10.040   1.998
60351SOL    HW282951   2.971   9.916   2.019
60352SOL     OW82952   1.235   8.438   3.676
60352SOL    HW182953   1.301   8.461   3.741
60352SOL    HW282954   1.162   8.497   3.695
60353SOL     OW82955   0.952   0.408   5.068
60353SOL    HW182956   0.914   0.396   4.981
60353SOL    HW282957   0.917   0.492   5.099
60354SOL     OW82958  11.655   5.842  12.393
60354SOL    HW182959  11.693   5.921  12.432
60354SOL    HW282960  11.709   5.825  12.316
60355SOL     OW82961   4.065  14.842  13.273
60355SOL    HW182962   4.072   0.027  13.199
60355SOL    HW282963   4.043   0.022  13.348
60356SOL     OW82964  13.034   2.945  14.689
60356SOL    HW182965  12.940   2.964  14.682
60356SOL    HW282966  13.037   2.857  14.727
60357SOL     OW82967   2.688   1.760   0.570
60357SOL    HW182968   2.727   1.825   0.629
60357SOL    HW282969   2.623   1.809   0.519
60358SOL     OW82970   4.103   5.868   1.440
60358SOL    HW182971   4.011   5.844   1.443
60358SOL    HW282972   4.111   5.924   1.363
60359SOL     OW82973   5.809  14.620   7.987
60359SOL    HW182974   5.765  14.683   7.930
60359SOL    HW282975   5.745  14.550   7.999
60360SOL     OW82976   6.506   4.112   0.123
60360SOL    HW182977   6.575   4.079   0.065
60360SOL    HW282978   6.486   4.199   0.089
60361SOL     OW82979   3.865   6.085  12.397
60361SOL    HW182980   3.813   6.137  12.458
60361SOL    HW282981   3.955   6.092  12.431
60362SOL     OW82982   1.583  12.618   2.908
60362SOL    HW182983   1.561  12.706   2.938
60362SOL    HW282984   1.500  12.570   2.909
60363SOL     OW82985   4.791   0.998   8.509
60363SOL    HW182986   4.774   0.922   8.565
60363SOL    HW282987   4.704   1.025   8.478
60364SOL     OW82988   9.719  14.143  13.973
60364SOL    HW182989   9.678  14.100  14.048
60364SOL    HW282990   9.757  14.223  14.009
60365SOL     OW82991   8.552   8.434   3.749
60365SOL    HW182992   8.633   8.477   3.778
60365SOL    HW282993   8.554   8.442   3.654
60366SOL     OW82994   9.036  13.781   7.483
60366SOL    HW182995   8.988  13.843   7.428
60366SOL    HW282996   9.117  13.828   7.506
60367SOL     OW82997  14.524   9.922  14.188
60367SOL    HW182998  14.617   9.932  14.204
60367SOL    HW282999  14.514   9.833  14.155
60368SOL     OW83000  12.302   1.708   7.409
60368SOL    HW183001  12.359   1.680   7.337
60368SOL    HW283002  12.284   1.800   7.392
60369SOL     OW83003   5.887  13.718  11.166
60369SOL    HW183004   5.928  13.763  11.093
60369SOL    HW283005   5.793  13.737  11.156
60370SOL     OW83006   4.484  13.266  11.788
60370SOL    HW183007   4.420  13.276  11.717
60370SOL    HW283008   4.468  13.179  11.824
60371SOL     OW83009   7.646   5.914   6.783
60371SOL    HW183010   7.696   5.861   6.721
60371SOL    HW283011   7.580   5.853   6.818
60372SOL     OW83012  10.645  14.611   9.237
60372SOL    HW183013  10.616  14.538   9.292
60372SOL    HW283014  10.573  14.624   9.175
60373SOL     OW83015   3.052  10.826   0.857
60373SOL    HW183016   2.979  10.769   0.885
60373SOL    HW283017   3.112  10.767   0.812
60374SOL     OW83018   8.963   8.566   6.507
60374SOL    HW183019   8.974   8.484   6.459
60374SOL    HW283020   9.052   8.602   6.514
60375SOL     OW83021   9.924   9.278   2.916
60375SOL    HW183022   9.994   9.258   2.855
60375SOL    HW283023   9.867   9.201   2.913
60376SOL     OW83024  10.951   5.889   5.467
60376SOL    HW183025  10.987   5.942   5.537
60376SOL    HW283026  11.008   5.812   5.463
60377SOL     OW83027   1.371  10.291   2.327
60377SOL    HW183028   1.276  10.302   2.335
60377SOL    HW283029   1.404  10.378   2.306
60378SOL     OW83030   1.479   0.213   1.871
60378SOL    HW183031   1.396   0.165   1.876
60378SOL    HW283032   1.533   0.173   1.940
60379SOL     OW83033   4.513   5.224   2.885
60379SOL    HW183034   4.574   5.239   2.813
60379SOL    HW283035   4.568   5.188   2.955
60380SOL     OW83036  12.967   9.703  10.920
60380SOL    HW183037  12.897   9.639  10.910
60380SOL    HW283038  13.010   9.704  10.834
60381SOL     OW83039  13.023   8.091   3.353
60381SOL    HW183040  13.057   8.029   3.418
60381SOL    HW283041  13.101   8.137   3.321
60382SOL     OW83042   1.985  11.109  11.884
60382SOL    HW183043   2.032  11.161  11.818
60382SOL    HW283044   2.003  11.018  11.859
60383SOL     OW83045   4.117   0.513   0.588
60383SOL    HW183046   4.109   0.571   0.513
60383SOL    HW283047   4.030   0.511   0.627
60384SOL     OW83048   8.311   1.952  12.086
60384SOL    HW183049   8.271   2.034  12.115
60384SOL    HW283050   8.396   1.950  12.130
60385SOL     OW83051  10.537   6.702  13.824
60385SOL    HW183052  10.556   6.673  13.734
60385SOL    HW283053  10.449   6.740  13.818
60386SOL     OW83054  11.485   3.251  10.417
60386SOL    HW183055  11.489   3.337  10.460
60386SOL    HW283056  11.392   3.227  10.421
60387SOL     OW83057   2.425  11.563  11.072
60387SOL    HW183058   2.431  11.659  11.080
60387SOL    HW283059   2.350  11.549  11.015
60388SOL     OW83060  14.377   7.286   3.380
60388SOL    HW183061  14.404   7.242   3.300
60388SOL    HW283062  14.327   7.220   3.428
60389SOL     OW83063   8.932   3.405  11.539
60389SOL    HW183064   8.920   3.456  11.619
60389SOL    HW283065   9.021   3.371  11.545
60390SOL     OW83066   1.257  12.866   6.260
60390SOL    HW183067   1.274  12.902   6.347
60390SOL    HW283068   1.251  12.771   6.274
60391SOL     OW83069   1.661   9.697  11.830
60391SOL    HW183070   1.620   9.620  11.790
60391SOL    HW283071   1.590   9.761  11.835
60392SOL     OW83072  10.621   8.837   0.649
60392SOL    HW183073  10.641   8.785   0.727
60392SOL    HW283074  10.703   8.840   0.600
60393SOL     OW83075   5.627  13.400  14.176
60393SOL    HW183076   5.688  13.375  14.106
60393SOL    HW283077   5.598  13.317  14.214
60394SOL     OW83078   9.102   9.986  11.462
60394SOL    HW183079   9.098  10.067  11.512
60394SOL    HW283080   9.126  10.014  11.373
60395SOL     OW83081  13.435  11.438   2.546
60395SOL    HW183082  13.472  11.483   2.470
60395SOL    HW283083  13.466  11.348   2.538
60396SOL     OW83084   1.587   3.412  13.920
60396SOL    HW183085   1.585   3.497  13.876
60396SOL    HW283086   1.538   3.354  13.863
60397SOL     OW83087   9.545   6.109  11.569
60397SOL    HW183088   9.598   6.057  11.629
60397SOL    HW283089   9.455   6.078  11.584
60398SOL     OW83090  10.910   9.717  14.834
60398SOL    HW183091  10.946   9.633  14.807
60398SOL    HW283092  10.947   9.733   0.046
60399SOL     OW83093   8.933  13.425   5.277
60399SOL    HW183094   9.012  13.426   5.222
60399SOL    HW283095   8.922  13.516   5.304
60400SOL     OW83096  11.089   0.127  13.894
60400SOL    HW183097  11.104   0.179  13.973
60400SOL    HW283098  11.024   0.062  13.920
60401SOL     OW83099   8.002   7.645   4.226
60401SOL    HW183100   7.941   7.658   4.299
60401SOL    HW283101   8.039   7.558   4.241
60402SOL     OW83102   4.853  13.674   4.784
60402SOL    HW183103   4.869  13.682   4.690
60402SOL    HW283104   4.763  13.707   4.796
60403SOL     OW83105   9.449  13.109   3.953
60403SOL    HW183106   9.453  13.013   3.952
60403SOL    HW283107   9.357  13.128   3.973
60404SOL     OW83108   5.601   3.596   8.976
60404SOL    HW183109   5.602   3.500   8.969
60404SOL    HW283110   5.541   3.614   9.048
60405SOL     OW83111   7.761  13.508   0.552
60405SOL    HW183112   7.708  13.538   0.626
60405SOL    HW283113   7.731  13.562   0.479
60406SOL     OW83114   3.425   7.748  13.487
60406SOL    HW183115   3.509   7.708  13.463
60406SOL    HW283116   3.364   7.717  13.421
60407SOL     OW83117   1.566  12.105  11.417
60407SOL    HW183118   1.521  12.049  11.354
60407SOL    HW283119   1.651  12.125  11.376
60408SOL     OW83120   5.336  11.013  12.048
60408SOL    HW183121   5.273  10.985  11.981
60408SOL    HW283122   5.414  10.962  12.030
60409SOL     OW83123   7.002   4.054   6.639
60409SOL    HW183124   6.919   4.020   6.672
60409SOL    HW283125   7.009   4.141   6.679
60410SOL     OW83126   6.716   6.146   3.979
60410SOL    HW183127   6.714   6.241   3.978
60410SOL    HW283128   6.723   6.121   3.886
60411SOL     OW83129   9.178   4.965   2.546
60411SOL    HW183130   9.102   4.978   2.489
60411SOL    HW283131   9.233   5.041   2.530
60412SOL     OW83132   9.127   7.942   8.139
60412SOL    HW183133   9.215   7.944   8.101
60412SOL    HW283134   9.080   8.012   8.095
60413SOL     OW83135   1.522  13.385   4.421
60413SOL    HW183136   1.595  13.369   4.482
60413SOL    HW283137   1.455  13.322   4.448
60414SOL     OW83138   4.632  13.867   9.353
60414SOL    HW183139   4.638  13.844   9.260
60414SOL    HW283140   4.596  13.955   9.354
60415SOL     OW83141   7.150  10.946  11.392
60415SOL    HW183142   7.101  10.890  11.453
60415SOL    HW283143   7.233  10.963  11.436
60416SOL     OW83144   1.531   0.816   2.699
60416SOL    HW183145   1.465   0.820   2.768
60416SOL    HW283146   1.521   0.898   2.650
60417SOL     OW83147   4.120   5.778   0.952
60417SOL    HW183148   4.187   5.769   1.020
60417SOL    HW283149   4.142   5.860   0.907
60418SOL     OW83150   3.618   4.266  12.736
60418SOL    HW183151   3.594   4.182  12.775
60418SOL    HW283152   3.603   4.330  12.805
60419SOL     OW83153  14.153   6.716  11.359
60419SOL    HW183154  14.187   6.662  11.288
60419SOL    HW283155  14.212   6.699  11.433
60420SOL     OW83156  12.663   7.930  11.297
60420SOL    HW183157  12.730   7.867  11.271
60420SOL    HW283158  12.711   8.012  11.311
60421SOL     OW83159  11.474  14.500   9.548
60421SOL    HW183160  11.549  14.545   9.587
60421SOL    HW283161  11.430  14.567   9.496
60422SOL     OW83162  10.624  10.038  12.951
60422SOL    HW183163  10.628   9.977  12.878
60422SOL    HW283164  10.602   9.984  13.027
60423SOL     OW83165  13.584   8.738  13.521
60423SOL    HW183166  13.613   8.650  13.543
60423SOL    HW283167  13.553   8.732  13.431
60424SOL     OW83168   2.729  12.329   1.431
60424SOL    HW183169   2.732  12.317   1.526
60424SOL    HW283170   2.643  12.368   1.414
60425SOL     OW83171   8.135   5.563   8.436
60425SOL    HW183172   8.096   5.571   8.349
60425SOL    HW283173   8.066   5.525   8.490
60426SOL     OW83174   0.305   2.363   6.709
60426SOL    HW183175   0.316   2.298   6.778
60426SOL    HW283176   0.382   2.420   6.717
60427SOL     OW83177   1.497   1.717  12.034
60427SOL    HW183178   1.487   1.705  12.128
60427SOL    HW283179   1.504   1.628  12.000
60428SOL     OW83180   2.960   9.538  13.869
60428SOL    HW183181   2.985   9.494  13.950
60428SOL    HW283182   3.001   9.624  13.874
60429SOL     OW83183   2.278   2.998  12.152
60429SOL    HW183184   2.250   2.947  12.076
60429SOL    HW283185   2.196   3.034  12.188
60430SOL     OW83186   5.868   1.042   4.202
60430SOL    HW183187   5.809   1.084   4.139
60430SOL    HW283188   5.943   1.015   4.149
60431SOL     OW83189   4.660   4.893   9.445
60431SOL    HW183190   4.587   4.833   9.464
60431SOL    HW283191   4.722   4.841   9.394
60432SOL     OW83192   4.110   7.232  10.136
60432SOL    HW183193   4.152   7.273  10.061
60432SOL    HW283194   4.134   7.287  10.211
60433SOL     OW83195  12.110   3.465  12.374
60433SOL    HW183196  12.202   3.464  12.400
60433SOL    HW283197  12.095   3.380  12.334
60434SOL     OW83198   1.966   0.839   8.273
60434SOL    HW183199   1.916   0.758   8.264
60434SOL    HW283200   2.016   0.829   8.353
60435SOL     OW83201  13.493   3.327  13.462
60435SOL    HW183202  13.460   3.390  13.398
60435SOL    HW283203  13.414   3.291  13.502
60436SOL     OW83204   9.299  12.327  13.858
60436SOL    HW183205   9.363  12.279  13.806
60436SOL    HW283206   9.286  12.272  13.936
60437SOL     OW83207  14.436   3.465   9.829
60437SOL    HW183208  14.475   3.484   9.744
60437SOL    HW283209  14.381   3.388   9.814
60438SOL     OW83210   7.814   9.732   6.939
60438SOL    HW183211   7.802   9.719   7.033
60438SOL    HW283212   7.760   9.808   6.919
60439SOL     OW83213  13.004  14.058   9.706
60439SOL    HW183214  12.959  14.048   9.623
60439SOL    HW283215  13.096  14.069   9.683
60440SOL     OW83216   3.791  13.675   6.363
60440SOL    HW183217   3.769  13.591   6.403
60440SOL    HW283218   3.706  13.717   6.347
60441SOL     OW83219   9.823  11.630   3.342
60441SOL    HW183220   9.825  11.549   3.392
60441SOL    HW283221   9.867  11.694   3.399
60442SOL     OW83222  12.123   8.866  14.190
60442SOL    HW183223  12.092   8.776  14.198
60442SOL    HW283224  12.048   8.920  14.211
60443SOL     OW83225   2.176   2.586   1.407
60443SOL    HW183226   2.128   2.644   1.466
60443SOL    HW283227   2.256   2.564   1.454
60444SOL     OW83228   5.697   4.499   7.717
60444SOL    HW183229   5.692   4.404   7.725
60444SOL    HW283230   5.689   4.516   7.623
60445SOL     OW83231  14.503   7.080   0.518
60445SOL    HW183232  14.579   7.038   0.479
60445SOL    HW283233  14.533   7.169   0.540
60446SOL     OW83234  10.522   1.375  10.216
60446SOL    HW183235  10.440   1.339  10.182
60446SOL    HW283236  10.543   1.320  10.291
60447SOL     OW83237   1.838  10.293   9.938
60447SOL    HW183238   1.746  10.308   9.919
60447SOL    HW283239   1.840  10.272  10.032
60448SOL     OW83240   1.537   5.355  10.771
60448SOL    HW183241   1.627   5.382  10.789
60448SOL    HW283242   1.497   5.432  10.730
60449SOL     OW83243   4.423   6.359   5.865
60449SOL    HW183244   4.454   6.288   5.921
60449SOL    HW283245   4.327   6.353   5.869
60450SOL     OW83246   2.630   6.918   7.513
60450SOL    HW183247   2.638   6.912   7.418
60450SOL    HW283248   2.633   7.012   7.531
60451SOL     OW83249   4.667   4.067  12.219
60451SOL    HW183250   4.747   4.108  12.253
60451SOL    HW283251   4.596   4.120  12.253
60452SOL     OW83252  11.682   8.464  10.547
60452SOL    HW183253  11.615   8.514  10.594
60452SOL    HW283254  11.656   8.373  10.558
60453SOL     OW83255  11.406   9.078   3.240
60453SOL    HW183256  11.370   9.133   3.170
60453SOL    HW283257  11.341   9.081   3.310
60454SOL     OW83258   3.469   5.179  10.186
60454SOL    HW183259   3.454   5.146  10.275
60454SOL    HW283260   3.442   5.271  10.190
60455SOL     OW83261   1.484   4.510   3.380
60455SOL    HW183262   1.390   4.492   3.373
60455SOL    HW283263   1.491   4.570   3.455
60456SOL     OW83264   8.427   3.983  10.063
60456SOL    HW183265   8.494   3.938  10.011
60456SOL    HW283266   8.415   4.067  10.019
60457SOL     OW83267   6.823   7.967   6.594
60457SOL    HW183268   6.837   7.934   6.506
60457SOL    HW283269   6.888   8.037   6.605
60458SOL     OW83270  11.631   1.583   4.307
60458SOL    HW183271  11.541   1.596   4.334
60458SOL    HW283272  11.653   1.661   4.255
60459SOL     OW83273   3.727  14.798  10.300
60459SOL    HW183274   3.762  14.739  10.234
60459SOL    HW283275   3.674  14.742  10.357
60460SOL     OW83276  10.460  10.373   5.386
60460SOL    HW183277  10.451  10.278   5.391
60460SOL    HW283278  10.486  10.399   5.475
60461SOL     OW83279   3.305   2.922  14.099
60461SOL    HW183280   3.344   2.928  14.012
60461SOL    HW283281   3.292   2.828  14.112
60462SOL     OW83282  11.743   7.901   0.277
60462SOL    HW183283  11.836   7.910   0.297
60462SOL    HW283284  11.722   7.811   0.299
60463SOL     OW83285  14.193   4.005  13.910
60463SOL    HW183286  14.140   4.073  13.870
60463SOL    HW283287  14.282   4.022  13.879
60464SOL     OW83288  13.537   3.933   9.990
60464SOL    HW183289  13.542   4.010  10.046
60464SOL    HW283290  13.449   3.898  10.006
60465SOL     OW83291  12.852   1.454   1.754
60465SOL    HW183292  12.914   1.520   1.786
60465SOL    HW283293  12.864   1.379   1.811
60466SOL     OW83294   1.544   2.358   2.260
60466SOL    HW183295   1.586   2.315   2.334
60466SOL    HW283296   1.613   2.363   2.193
60467SOL     OW83297   7.538   0.874  11.802
60467SOL    HW183298   7.515   0.810  11.735
60467SOL    HW283299   7.598   0.827  11.860
60468SOL     OW83300   5.674  13.968   0.206
60468SOL    HW183301   5.637  14.052   0.233
60468SOL    HW283302   5.608  13.929   0.148
60469SOL     OW83303  13.301   1.593   1.628
60469SOL    HW183304  13.342   1.680   1.629
60469SOL    HW283305  13.261   1.586   1.542
60470SOL     OW83306   7.068   5.980  12.541
60470SOL    HW183307   7.081   5.973  12.447
60470SOL    HW283308   7.056   5.890  12.571
60471SOL     OW83309  14.575   5.938   7.807
60471SOL    HW183310  14.606   5.950   7.718
60471SOL    HW283311  14.561   5.843   7.815
60472SOL     OW83312   6.445   2.299   2.439
60472SOL    HW183313   6.482   2.237   2.375
60472SOL    HW283314   6.476   2.268   2.524
60473SOL     OW83315   2.551  12.125   5.527
60473SOL    HW183316   2.570  12.206   5.575
60473SOL    HW283317   2.490  12.078   5.584
60474SOL     OW83318  14.831   3.773  12.749
60474SOL    HW183319  14.875   3.730  12.676
60474SOL    HW283320  14.794   3.853  12.711
60475SOL     OW83321   8.600   5.629   2.534
60475SOL    HW183322   8.685   5.674   2.545
60475SOL    HW283323   8.605   5.554   2.592
60476SOL     OW83324   2.526  13.541   1.214
60476SOL    HW183325   2.552  13.591   1.291
60476SOL    HW283326   2.601  13.548   1.154
60477SOL     OW83327   5.656   3.322   7.770
60477SOL    HW183328   5.671   3.318   7.865
60477SOL    HW283329   5.564   3.296   7.760
60478SOL     OW83330   6.476   2.049   7.651
60478SOL    HW183331   6.565   2.027   7.626
60478SOL    HW283332   6.477   2.144   7.664
60479SOL     OW83333   5.586   7.087   8.931
60479SOL    HW183334   5.614   7.175   8.908
60479SOL    HW283335   5.493   7.083   8.906
60480SOL     OW83336  13.847   4.296   4.442
60480SOL    HW183337  13.861   4.385   4.474
60480SOL    HW283338  13.852   4.304   4.346
60481SOL     OW83339  13.500  13.239   2.602
60481SOL    HW183340  13.576  13.217   2.655
60481SOL    HW283341  13.463  13.154   2.576
60482SOL     OW83342   4.544   3.553  14.010
60482SOL    HW183343   4.457   3.574  14.044
60482SOL    HW283344   4.530   3.478  13.953
60483SOL     OW83345  13.650   6.506  14.535
60483SOL    HW183346  13.567   6.548  14.557
60483SOL    HW283347  13.696   6.498  14.619
60484SOL     OW83348   1.244   3.639  14.673
60484SOL    HW183349   1.185   3.693  14.725
60484SOL    HW283350   1.330   3.679  14.687
60485SOL     OW83351   0.888   8.515   8.865
60485SOL    HW183352   0.869   8.424   8.886
60485SOL    HW283353   0.976   8.514   8.829
60486SOL     OW83354   0.924  11.007  10.957
60486SOL    HW183355   0.893  11.055  10.879
60486SOL    HW283356   0.894  10.917  10.943
60487SOL     OW83357   2.361   3.832   8.307
60487SOL    HW183358   2.409   3.914   8.297
60487SOL    HW283359   2.428   3.764   8.304
60488SOL     OW83360   1.481   5.534   9.867
60488SOL    HW183361   1.454   5.549   9.776
60488SOL    HW283362   1.515   5.619   9.896
60489SOL     OW83363  10.005  13.223  12.084
60489SOL    HW183364   9.937  13.159  12.065
60489SOL    HW283365  10.002  13.233  12.180
60490SOL     OW83366   2.737  14.311   5.973
60490SOL    HW183367   2.764  14.284   6.061
60490SOL    HW283368   2.663  14.254   5.952
60491SOL     OW83369  10.446   9.823  13.638
60491SOL    HW183370  10.479   9.901  13.683
60491SOL    HW283371  10.356   9.845  13.614
60492SOL     OW83372  11.185  13.364   0.816
60492SOL    HW183373  11.241  13.362   0.738
60492SOL    HW283374  11.246  13.376   0.889
60493SOL     OW83375   0.177  12.677   9.495
60493SOL    HW183376   0.269  12.674   9.519
60493SOL    HW283377   0.153  12.586   9.477
60494SOL     OW83378   9.598   2.428   1.253
60494SOL    HW183379   9.600   2.521   1.232
60494SOL    HW283380   9.689   2.400   1.250
60495SOL     OW83381  11.774  14.243   2.667
60495SOL    HW183382  11.867  14.261   2.648
60495SOL    HW283383  11.729  14.263   2.585
60496SOL     OW83384   4.764   6.027  10.069
60496SOL    HW183385   4.800   6.089  10.006
60496SOL    HW283386   4.841   5.984  10.107
60497SOL     OW83387  12.531  10.645   8.433
60497SOL    HW183388  12.576  10.729   8.444
60497SOL    HW283389  12.451  10.667   8.384
60498SOL     OW83390   7.055   4.942   4.852
60498SOL    HW183391   7.144   4.925   4.823
60498SOL    HW283392   7.030   5.022   4.805
60499SOL     OW83393  11.586   8.243   3.307
60499SOL    HW183394  11.619   8.166   3.353
60499SOL    HW283395  11.568   8.307   3.376
60500SOL     OW83396  12.472  14.579   3.096
60500SOL    HW183397  12.506  14.646   3.036
60500SOL    HW283398  12.377  14.595   3.096
60501SOL     OW83399   6.700   3.754   2.908
60501SOL    HW183400   6.688   3.798   2.824
60501SOL    HW283401   6.611   3.738   2.939
60502SOL     OW83402  13.546   8.134   5.179
60502SOL    HW183403  13.507   8.206   5.228
60502SOL    HW283404  13.526   8.056   5.230
60503SOL     OW83405   1.204  10.337  10.973
60503SOL    HW183406   1.187  10.252  10.933
60503SOL    HW283407   1.166  10.331  11.061
60504SOL     OW83408   3.596   5.951   2.913
60504SOL    HW183409   3.676   5.912   2.948
60504SOL    HW283410   3.586   5.910   2.827
60505SOL     OW83411  14.444  11.400   5.928
60505SOL    HW183412  14.441  11.480   5.981
60505SOL    HW283413  14.449  11.432   5.838
60506SOL     OW83414   5.146   9.828  13.998
60506SOL    HW183415   5.169   9.921  13.992
60506SOL    HW283416   5.211   9.784  13.943
60507SOL     OW83417   9.514   6.678   4.109
60507SOL    HW183418   9.584   6.655   4.047
60507SOL    HW283419   9.523   6.773   4.121
60508SOL     OW83420   7.432   8.781  14.266
60508SOL    HW183421   7.370   8.709  14.275
60508SOL    HW283422   7.445   8.791  14.172
60509SOL     OW83423   2.929   5.069  11.158
60509SOL    HW183424   2.989   5.058  11.231
60509SOL    HW283425   2.919   4.981  11.121
60510SOL     OW83426  14.448   8.439   6.184
60510SOL    HW183427  14.366   8.394   6.160
60510SOL    HW283428  14.503   8.369   6.221
60511SOL     OW83429  12.848  10.053   8.561
60511SOL    HW183430  12.787  10.080   8.492
60511SOL    HW283431  12.802  10.073   8.643
60512SOL     OW83432   3.298   2.177   5.462
60512SOL    HW183433   3.239   2.108   5.433
60512SOL    HW283434   3.285   2.181   5.557
60513SOL     OW83435   1.962   4.973   0.774
60513SOL    HW183436   1.937   4.969   0.682
60513SOL    HW283437   2.057   4.961   0.774
60514SOL     OW83438  10.556   3.450   8.724
60514SOL    HW183439  10.529   3.461   8.815
60514SOL    HW283440  10.587   3.359   8.720
60515SOL     OW83441  11.473  14.195   7.194
60515SOL    HW183442  11.428  14.138   7.131
60515SOL    HW283443  11.552  14.223   7.148
60516SOL     OW83444   1.406  12.306   2.367
60516SOL    HW183445   1.320  12.332   2.334
60516SOL    HW283446   1.398  12.212   2.384
60517SOL     OW83447   5.917   6.488  13.131
60517SOL    HW183448   5.846   6.552  13.141
60517SOL    HW283449   5.923   6.473  13.037
60518SOL     OW83450   1.909   9.051  10.741
60518SOL    HW183451   1.975   9.089  10.684
60518SOL    HW283452   1.911   9.104  10.820
60519SOL     OW83453  14.017   5.961  14.773
60519SOL    HW183454  13.990   5.914  14.851
60519SOL    HW283455  13.940   6.009  14.745
60520SOL     OW83456  13.861   2.535   4.889
60520SOL    HW183457  13.923   2.544   4.817
60520SOL    HW283458  13.880   2.449   4.927
60521SOL     OW83459   2.873   9.558   6.131
60521SOL    HW183460   2.871   9.563   6.227
60521SOL    HW283461   2.967   9.555   6.110
60522SOL     OW83462   2.259  10.753   0.181
60522SOL    HW183463   2.168  10.782   0.190
60522SOL    HW283464   2.255  10.659   0.201
60523SOL     OW83465  11.769   8.236  13.462
60523SOL    HW183466  11.777   8.143  13.444
60523SOL    HW283467  11.675   8.249  13.477
60524SOL     OW83468   4.913  13.703   3.704
60524SOL    HW183469   4.825  13.683   3.672
60524SOL    HW283470   4.928  13.794   3.679
60525SOL     OW83471   8.650   7.074   2.265
60525SOL    HW183472   8.638   6.985   2.299
60525SOL    HW283473   8.598   7.077   2.184
60526SOL     OW83474  12.509  11.620  10.826
60526SOL    HW183475  12.541  11.557  10.891
60526SOL    HW283476  12.563  11.697  10.839
60527SOL     OW83477  11.000   3.040   1.760
60527SOL    HW183478  11.078   3.029   1.814
60527SOL    HW283479  11.033   3.075   1.677
60528SOL     OW83480   5.033   0.141  13.075
60528SOL    HW183481   5.128   0.132  13.079
60528SOL    HW283482   5.017   0.232  13.101
60529SOL     OW83483   8.076   0.052   8.080
60529SOL    HW183484   8.048   0.117   8.015
60529SOL    HW283485   8.065  14.843   8.035
60530SOL     OW83486   4.306   6.398   8.982
60530SOL    HW183487   4.223   6.406   9.029
60530SOL    HW283488   4.362   6.464   9.022
60531SOL     OW83489   7.623  13.917   9.421
60531SOL    HW183490   7.696  13.927   9.360
60531SOL    HW283491   7.654  13.959   9.502
60532SOL     OW83492   4.121   4.660  11.315
60532SOL    HW183493   4.110   4.741  11.266
60532SOL    HW283494   4.059   4.599  11.274
60533SOL     OW83495   1.834  11.250  11.634
60533SOL    HW183496   1.831  11.197  11.713
60533SOL    HW283497   1.915  11.299  11.641
60534SOL     OW83498  10.896   3.380   6.517
60534SOL    HW183499  10.929   3.369   6.428
60534SOL    HW283500  10.824   3.442   6.508
60535SOL     OW83501   5.952   8.604   1.257
60535SOL    HW183502   5.999   8.653   1.324
60535SOL    HW283503   5.879   8.660   1.232
60536SOL     OW83504  14.526   0.692   9.412
60536SOL    HW183505  14.546   0.778   9.449
60536SOL    HW283506  14.439   0.702   9.373
60537SOL     OW83507  14.657   6.744   8.568
60537SOL    HW183508  14.566   6.745   8.539
60537SOL    HW283509  14.666   6.662   8.616
60538SOL     OW83510  11.918   5.953   9.788
60538SOL    HW183511  11.865   5.876   9.769
60538SOL    HW283512  11.930   5.952   9.882
60539SOL     OW83513   6.635  10.081   7.796
60539SOL    HW183514   6.643  10.139   7.872
60539SOL    HW283515   6.551  10.105   7.757
60540SOL     OW83516   2.893   3.064   6.832
60540SOL    HW183517   2.953   3.085   6.761
60540SOL    HW283518   2.910   2.972   6.851
60541SOL     OW83519  10.301   7.602   3.795
60541SOL    HW183520  10.260   7.656   3.728
60541SOL    HW283521  10.228   7.570   3.848
60542SOL     OW83522   2.691  12.990  14.792
60542SOL    HW183523   2.609  12.978  14.744
60542SOL    HW283524   2.741  13.053  14.740
60543SOL     OW83525   0.284   0.463  14.103
60543SOL    HW183526   0.218   0.475  14.035
60543SOL    HW283527   0.305   0.370  14.101
60544SOL     OW83528  10.201   2.671   1.455
60544SOL    HW183529  10.180   2.610   1.384
60544SOL    HW283530  10.118   2.716   1.473
60545SOL     OW83531   8.209   9.009   8.183
60545SOL    HW183532   8.274   8.939   8.186
60545SOL    HW283533   8.198   9.028   8.090
60546SOL     OW83534   1.490  11.895   4.377
60546SOL    HW183535   1.518  11.982   4.348
60546SOL    HW283536   1.441  11.859   4.304
60547SOL     OW83537  11.310   2.163  12.118
60547SOL    HW183538  11.401   2.191  12.113
60547SOL    HW283539  11.284   2.181  12.209
60548SOL     OW83540   8.074   1.259   7.303
60548SOL    HW183541   8.066   1.352   7.281
60548SOL    HW283542   8.048   1.213   7.224
60549SOL     OW83543   6.672   9.999  14.454
60549SOL    HW183544   6.606  10.038  14.510
60549SOL    HW283545   6.680   9.909  14.485
60550SOL     OW83546   4.142  11.875  12.207
60550SOL    HW183547   4.225  11.863  12.253
60550SOL    HW283548   4.157  11.949  12.148
60551SOL     OW83549   7.125  13.553   9.899
60551SOL    HW183550   7.108  13.533   9.807
60551SOL    HW283551   7.042  13.534   9.944
60552SOL     OW83552   7.217   5.548   1.591
60552SOL    HW183553   7.300   5.502   1.581
60552SOL    HW283554   7.184   5.520   1.677
60553SOL     OW83555   2.958   8.061   9.468
60553SOL    HW183556   3.033   8.101   9.511
60553SOL    HW283557   2.946   7.978   9.513
60554SOL     OW83558   1.944   1.991   3.920
60554SOL    HW183559   1.858   1.951   3.937
60554SOL    HW283560   1.971   1.954   3.836
60555SOL     OW83561   1.234   1.354   1.019
60555SOL    HW183562   1.244   1.273   0.969
60555SOL    HW283563   1.310   1.355   1.078
60556SOL     OW83564  11.239   4.343  11.817
60556SOL    HW183565  11.172   4.284  11.783
60556SOL    HW283566  11.312   4.286  11.840
60557SOL     OW83567   7.423   4.543   3.057
60557SOL    HW183568   7.424   4.476   3.125
60557SOL    HW283569   7.515   4.567   3.045
60558SOL     OW83570   0.881  11.983   8.334
60558SOL    HW183571   0.946  11.916   8.310
60558SOL    HW283572   0.920  12.065   8.305
60559SOL     OW83573  11.803   3.118   3.528
60559SOL    HW183574  11.751   3.060   3.473
60559SOL    HW283575  11.805   3.201   3.480
60560SOL     OW83576  13.531  13.158  10.691
60560SOL    HW183577  13.555  13.069  10.718
60560SOL    HW283578  13.443  13.149  10.653
60561SOL     OW83579   0.615   5.752   2.061
60561SOL    HW183580   0.533   5.793   2.036
60561SOL    HW283581   0.629   5.778   2.152
60562SOL     OW83582   6.184   2.703  10.759
60562SOL    HW183583   6.119   2.662  10.702
60562SOL    HW283584   6.183   2.796  10.733
60563SOL     OW83585  13.907  11.312   6.096
60563SOL    HW183586  14.002  11.310   6.099
60563SOL    HW283587  13.885  11.405   6.094
60564SOL     OW83588   5.513  11.291   5.217
60564SOL    HW183589   5.531  11.244   5.136
60564SOL    HW283590   5.522  11.384   5.193
60565SOL     OW83591   3.057   2.054  14.589
60565SOL    HW183592   3.004   2.000  14.648
60565SOL    HW283593   3.117   1.992  14.547
60566SOL     OW83594  13.255   6.364  14.460
60566SOL    HW183595  13.330   6.312  14.430
60566SOL    HW283596  13.216   6.397  14.379
60567SOL     OW83597   3.974  10.688   9.154
60567SOL    HW183598   3.920  10.699   9.075
60567SOL    HW283599   4.007  10.599   9.148
60568SOL     OW83600   0.056   1.214   3.732
60568SOL    HW183601   0.057   1.282   3.800
60568SOL    HW283602   0.054   1.263   3.650
60569SOL     OW83603   5.810   7.343   8.626
60569SOL    HW183604   5.863   7.421   8.641
60569SOL    HW283605   5.759   7.363   8.547
60570SOL     OW83606  14.841  13.399   5.042
60570SOL    HW183607  14.770  13.459   5.018
60570SOL    HW283608   0.045  13.451   5.034
60571SOL     OW83609   2.686   8.299   7.134
60571SOL    HW183610   2.678   8.362   7.062
60571SOL    HW283611   2.681   8.214   7.091
60572SOL     OW83612  14.635   2.621  12.506
60572SOL    HW183613  14.616   2.686  12.438
60572SOL    HW283614  14.554   2.617  12.557
60573SOL     OW83615   2.975   4.153  10.926
60573SOL    HW183616   2.879   4.148  10.918
60573SOL    HW283617   3.007   4.080  10.873
60574SOL     OW83618  13.506  10.253   0.812
60574SOL    HW183619  13.482  10.192   0.882
60574SOL    HW283620  13.423  10.274   0.770
60575SOL     OW83621  13.536   4.357  12.665
60575SOL    HW183622  13.564   4.268  12.687
60575SOL    HW283623  13.441   4.355  12.674
60576SOL     OW83624   0.064   8.616   2.252
60576SOL    HW183625   0.090   8.708   2.262
60576SOL    HW283626   0.089   8.574   2.334
60577SOL     OW83627  13.821   0.994  13.669
60577SOL    HW183628  13.857   1.017  13.755
60577SOL    HW283629  13.844   0.902  13.657
60578SOL     OW83630   8.936   0.779  12.574
60578SOL    HW183631   8.988   0.708  12.613
60578SOL    HW283632   8.987   0.858  12.592
60579SOL     OW83633   0.053   9.047   4.090
60579SOL    HW183634   0.134   8.996   4.099
60579SOL    HW283635   0.075   9.133   4.124
60580SOL     OW83636   7.196   1.857   2.969
60580SOL    HW183637   7.124   1.804   2.934
60580SOL    HW283638   7.269   1.840   2.910
60581SOL     OW83639  13.257   4.403   5.825
60581SOL    HW183640  13.328   4.465   5.841
60581SOL    HW283641  13.290   4.320   5.858
60582SOL     OW83642  14.741  13.119  10.588
60582SOL    HW183643  14.829  13.090  10.564
60582SOL    HW283644  14.699  13.140  10.504
60583SOL     OW83645   3.513  12.183   4.883
60583SOL    HW183646   3.443  12.247   4.872
60583SOL    HW283647   3.545  12.198   4.972
60584SOL     OW83648   6.468  14.327   1.671
60584SOL    HW183649   6.537  14.265   1.651
60584SOL    HW283650   6.396  14.274   1.705
60585SOL     OW83651  13.074  11.641   3.201
60585SOL    HW183652  13.101  11.600   3.283
60585SOL    HW283653  13.147  11.626   3.141
60586SOL     OW83654   7.648   3.893  12.813
60586SOL    HW183655   7.671   3.943  12.891
60586SOL    HW283656   7.726   3.840  12.794
60587SOL     OW83657  12.460   4.269   3.703
60587SOL    HW183658  12.421   4.236   3.622
60587SOL    HW283659  12.412   4.224   3.773
60588SOL     OW83660   5.755  14.216   5.798
60588SOL    HW183661   5.679  14.164   5.824
60588SOL    HW283662   5.737  14.242   5.708
60589SOL     OW83663   1.858   0.987   5.634
60589SOL    HW183664   1.825   0.906   5.674
60589SOL    HW283665   1.892   1.038   5.707
60590SOL     OW83666   7.981   0.291   4.576
60590SOL    HW183667   7.981   0.230   4.502
60590SOL    HW283668   8.024   0.243   4.647
60591SOL     OW83669   1.264   5.113   8.488
60591SOL    HW183670   1.221   5.183   8.538
60591SOL    HW283671   1.301   5.158   8.412
60592SOL     OW83672  11.809   6.158   7.757
60592SOL    HW183673  11.821   6.189   7.667
60592SOL    HW283674  11.759   6.077   7.748
60593SOL     OW83675   6.469   6.802   1.663
60593SOL    HW183676   6.422   6.719   1.661
60593SOL    HW283677   6.557   6.778   1.693
60594SOL     OW83678  11.575   6.082  14.318
60594SOL    HW183679  11.540   6.042  14.238
60594SOL    HW283680  11.669   6.092  14.300
60595SOL     OW83681   6.304  12.395   2.192
60595SOL    HW183682   6.281  12.310   2.153
60595SOL    HW283683   6.263  12.460   2.135
60596SOL     OW83684   6.205  10.691   2.296
60596SOL    HW183685   6.278  10.629   2.293
60596SOL    HW283686   6.245  10.776   2.279
60597SOL     OW83687   8.414  10.248   8.797
60597SOL    HW183688   8.406  10.244   8.892
60597SOL    HW283689   8.383  10.336   8.775
60598SOL     OW83690   1.601   4.491   1.331
60598SOL    HW183691   1.565   4.528   1.412
60598SOL    HW283692   1.571   4.400   1.331
60599SOL     OW83693  10.383   4.986   3.798
60599SOL    HW183694  10.474   5.002   3.823
60599SOL    HW283695  10.380   4.893   3.775
60600SOL     OW83696   4.255  14.535   9.844
60600SOL    HW183697   4.270  14.623   9.879
60600SOL    HW283698   4.276  14.476   9.917
60601SOL     OW83699   3.996  14.443   9.104
60601SOL    HW183700   4.041  14.373   9.056
60601SOL    HW283701   4.004  14.519   9.046
60602SOL     OW83702   9.239   9.999   2.753
60602SOL    HW183703   9.168   9.939   2.774
60602SOL    HW283704   9.227  10.073   2.813
60603SOL     OW83705  12.520   1.463  11.505
60603SOL    HW183706  12.559   1.432  11.587
60603SOL    HW283707  12.428   1.477  11.527
60604SOL     OW83708   7.953  12.511  10.288
60604SOL    HW183709   8.001  12.541  10.211
60604SOL    HW283710   7.883  12.576  10.298
60605SOL     OW83711  13.222   9.661   0.173
60605SOL    HW183712  13.146   9.609   0.149
60605SOL    HW283713  13.247   9.708   0.093
60606SOL     OW83714  13.118   5.312  14.020
60606SOL    HW183715  13.100   5.218  14.022
60606SOL    HW283716  13.134   5.336  14.111
60607SOL     OW83717  10.851   6.096   8.487
60607SOL    HW183718  10.805   6.079   8.569
60607SOL    HW283719  10.937   6.128   8.514
60608SOL     OW83720   4.376   9.974   2.972
60608SOL    HW183721   4.376  10.053   3.026
60608SOL    HW283722   4.397   9.903   3.032
60609SOL     OW83723   8.732   9.582   7.481
60609SOL    HW183724   8.763   9.672   7.489
60609SOL    HW283725   8.653   9.579   7.534
60610SOL     OW83726  14.768  10.573  13.746
60610SOL    HW183727  14.715  10.580  13.825
60610SOL    HW283728  14.818  10.654  13.743
60611SOL     OW83729   4.956  14.718   5.749
60611SOL    HW183730   5.043  14.756   5.742
60611SOL    HW283731   4.960  14.639   5.695
60612SOL     OW83732   4.897   8.790   2.321
60612SOL    HW183733   4.829   8.796   2.388
60612SOL    HW283734   4.962   8.731   2.359
60613SOL     OW83735  12.844  14.090   2.088
60613SOL    HW183736  12.792  14.018   2.124
60613SOL    HW283737  12.934  14.062   2.097
60614SOL     OW83738   3.791   9.717   7.911
60614SOL    HW183739   3.731   9.751   7.977
60614SOL    HW283740   3.735   9.677   7.845
60615SOL     OW83741   6.157  11.079  10.292
60615SOL    HW183742   6.168  10.989  10.264
60615SOL    HW283743   6.158  11.130  10.211
60616SOL     OW83744  12.583  11.326   4.284
60616SOL    HW183745  12.547  11.296   4.201
60616SOL    HW283746  12.635  11.403   4.261
60617SOL     OW83747   2.373  10.550   1.649
60617SOL    HW183748   2.378  10.455   1.655
60617SOL    HW283749   2.280  10.569   1.643
60618SOL     OW83750   2.716   6.357   2.426
60618SOL    HW183751   2.791   6.415   2.442
60618SOL    HW283752   2.655   6.378   2.496
60619SOL     OW83753   2.320   0.305  12.979
60619SOL    HW183754   2.398   0.354  12.951
60619SOL    HW283755   2.259   0.373  13.010
60620SOL     OW83756   9.329   9.126   0.188
60620SOL    HW183757   9.414   9.170   0.182
60620SOL    HW283758   9.330   9.083   0.273
60621SOL     OW83759   4.829   5.910  10.354
60621SOL    HW183760   4.844   5.989  10.407
60621SOL    HW283761   4.748   5.929  10.307
60622SOL     OW83762   8.676   8.120   2.840
60622SOL    HW183763   8.694   8.210   2.814
60622SOL    HW283764   8.722   8.067   2.774
60623SOL     OW83765   5.194   4.687   3.180
60623SOL    HW183766   5.260   4.618   3.168
60623SOL    HW283767   5.120   4.642   3.221
60624SOL     OW83768   2.792   8.785   8.280
60624SOL    HW183769   2.720   8.847   8.264
60624SOL    HW283770   2.836   8.777   8.196
60625SOL     OW83771  12.812   8.828   2.430
60625SOL    HW183772  12.839   8.920   2.430
60625SOL    HW283773  12.771   8.815   2.515
60626SOL     OW83774   6.294   6.124  14.314
60626SOL    HW183775   6.214   6.160  14.276
60626SOL    HW283776   6.299   6.163  14.401
60627SOL     OW83777   9.737  14.639   8.767
60627SOL    HW183778   9.720  14.630   8.861
60627SOL    HW283779   9.712  14.554   8.730
60628SOL     OW83780   8.392  12.167  11.507
60628SOL    HW183781   8.401  12.160  11.602
60628SOL    HW283782   8.367  12.079  11.479
60629SOL     OW83783   6.473   3.448   4.471
60629SOL    HW183784   6.413   3.516   4.503
60629SOL    HW283785   6.509   3.408   4.550
60630SOL     OW83786   2.377   2.371   5.167
60630SOL    HW183787   2.472   2.372   5.171
60630SOL    HW283788   2.355   2.435   5.100
60631SOL     OW83789   4.352   4.380  14.039
60631SOL    HW183790   4.400   4.390  14.121
60631SOL    HW283791   4.260   4.385  14.064
60632SOL     OW83792   2.658  14.284  11.473
60632SOL    HW183793   2.621  14.237  11.548
60632SOL    HW283794   2.750  14.298  11.496
60633SOL     OW83795  13.140   9.863   1.375
60633SOL    HW183796  13.155   9.907   1.291
60633SOL    HW283797  13.078   9.793   1.356
60634SOL     OW83798   8.882   9.440   2.477
60634SOL    HW183799   8.960   9.495   2.480
60634SOL    HW283800   8.832   9.472   2.402
60635SOL     OW83801  13.680   2.209   7.309
60635SOL    HW183802  13.600   2.180   7.265
60635SOL    HW283803  13.721   2.129   7.341
60636SOL     OW83804  12.202  10.807   5.181
60636SOL    HW183805  12.156  10.810   5.097
60636SOL    HW283806  12.137  10.835   5.245
60637SOL     OW83807   6.410   3.304   6.369
60637SOL    HW183808   6.453   3.218   6.370
60637SOL    HW283809   6.452   3.351   6.297
60638SOL     OW83810  14.196   1.277   0.487
60638SOL    HW183811  14.269   1.232   0.530
60638SOL    HW283812  14.235   1.355   0.448
60639SOL     OW83813   0.305   5.870   8.423
60639SOL    HW183814   0.251   5.943   8.394
60639SOL    HW283815   0.283   5.798   8.363
60640SOL     OW83816   4.751  13.322   1.426
60640SOL    HW183817   4.836  13.364   1.438
60640SOL    HW283818   4.690  13.394   1.414
60641SOL     OW83819  13.090   9.762  10.051
60641SOL    HW183820  13.091   9.813   9.970
60641SOL    HW283821  13.181   9.762  10.081
60642SOL     OW83822  10.470  13.104   3.153
60642SOL    HW183823  10.382  13.132   3.127
60642SOL    HW283824  10.525  13.180   3.138
60643SOL     OW83825   3.703   6.054  10.804
60643SOL    HW183826   3.684   5.965  10.774
60643SOL    HW283827   3.668   6.110  10.735
60644SOL     OW83828   5.370  12.794   6.581
60644SOL    HW183829   5.304  12.768   6.645
60644SOL    HW283830   5.321  12.839   6.512
60645SOL     OW83831   1.052   5.298   6.208
60645SOL    HW183832   0.970   5.279   6.163
60645SOL    HW283833   1.042   5.388   6.240
60646SOL     OW83834   1.553  12.548   9.609
60646SOL    HW183835   1.521  12.638   9.611
60646SOL    HW283836   1.494  12.500   9.668
60647SOL     OW83837   3.388   1.599  13.591
60647SOL    HW183838   3.320   1.647  13.639
60647SOL    HW283839   3.350   1.513  13.575
60648SOL     OW83840   4.412   5.129   8.675
60648SOL    HW183841   4.317   5.142   8.666
60648SOL    HW283842   4.444   5.122   8.586
60649SOL     OW83843   9.525   4.814   8.079
60649SOL    HW183844   9.435   4.847   8.071
60649SOL    HW283845   9.528   4.776   8.166
60650SOL     OW83846   0.569  14.228   5.610
60650SOL    HW183847   0.499  14.292   5.602
60650SOL    HW283848   0.601  14.215   5.521
60651SOL     OW83849   1.430  10.528   2.246
60651SOL    HW183850   1.434  10.573   2.330
60651SOL    HW283851   1.458  10.593   2.182
60652SOL     OW83852   0.512   9.074  12.550
60652SOL    HW183853   0.539   9.123  12.472
60652SOL    HW283854   0.506   9.141  12.619
60653SOL     OW83855   5.397   9.610  12.607
60653SOL    HW183856   5.473   9.579  12.656
60653SOL    HW283857   5.393   9.552  12.531
60654SOL     OW83858   7.481   9.861  14.854
60654SOL    HW183859   7.442   9.882   0.064
60654SOL    HW283860   7.462   9.767  14.842
60655SOL     OW83861   2.550   3.030   9.823
60655SOL    HW183862   2.586   3.117   9.804
60655SOL    HW283863   2.608   2.994   9.890
60656SOL     OW83864   7.536  11.924   1.960
60656SOL    HW183865   7.576  12.003   1.924
60656SOL    HW283866   7.525  11.866   1.884
60657SOL     OW83867   3.900   9.364  12.911
60657SOL    HW183868   3.938   9.389  12.995
60657SOL    HW283869   3.842   9.291  12.932
60658SOL     OW83870  13.727   0.891   9.650
60658SOL    HW183871  13.653   0.936   9.691
60658SOL    HW283872  13.792   0.959   9.636
60659SOL     OW83873   3.124   3.186   3.541
60659SOL    HW183874   3.063   3.260   3.534
60659SOL    HW283875   3.198   3.211   3.486
60660SOL     OW83876   9.462   0.769   9.970
60660SOL    HW183877   9.498   0.845  10.015
60660SOL    HW283878   9.413   0.722  10.037
60661SOL     OW83879   1.218  12.288   9.284
60661SOL    HW183880   1.244  12.209   9.332
60661SOL    HW283881   1.285  12.353   9.307
60662SOL     OW83882   3.203  14.686   9.927
60662SOL    HW183883   3.173  14.681  10.017
60662SOL    HW283884   3.200  14.779   9.905
60663SOL     OW83885   0.064   6.417   0.514
60663SOL    HW183886   0.117   6.496   0.502
60663SOL    HW283887   0.117   6.362   0.572
60664SOL     OW83888  11.328   2.538   6.860
60664SOL    HW183889  11.233   2.548   6.854
60664SOL    HW283890  11.363   2.624   6.838
60665SOL     OW83891  10.057   5.296  14.517
60665SOL    HW183892  10.028   5.283  14.607
60665SOL    HW283893  10.133   5.240  14.507
60666SOL     OW83894  13.242   7.321   2.290
60666SOL    HW183895  13.226   7.394   2.350
60666SOL    HW283896  13.245   7.361   2.203
60667SOL     OW83897  14.837   2.253   3.756
60667SOL    HW183898   0.036   2.296   3.712
60667SOL    HW283899  14.819   2.175   3.702
60668SOL     OW83900  13.244   0.784   6.011
60668SOL    HW183901  13.158   0.826   6.009
60668SOL    HW283902  13.286   0.815   5.930
60669SOL     OW83903   3.465   5.424   7.566
60669SOL    HW183904   3.442   5.454   7.654
60669SOL    HW283905   3.428   5.490   7.508
60670SOL     OW83906   4.241   8.502   4.195
60670SOL    HW183907   4.159   8.516   4.147
60670SOL    HW283908   4.213   8.483   4.284
60671SOL     OW83909   0.930   6.688  13.889
60671SOL    HW183910   1.011   6.641  13.908
60671SOL    HW283911   0.898   6.716  13.975
60672SOL     OW83912   5.602   5.434  11.365
60672SOL    HW183913   5.608   5.350  11.411
60672SOL    HW283914   5.511   5.462  11.378
60673SOL     OW83915  11.474  12.661   7.101
60673SOL    HW183916  11.451  12.748   7.067
60673SOL    HW283917  11.567  12.651   7.079
60674SOL     OW83918  13.770  12.789  14.159
60674SOL    HW183919  13.706  12.839  14.210
60674SOL    HW283920  13.798  12.850  14.091
60675SOL     OW83921   5.720   1.608   5.919
60675SOL    HW183922   5.756   1.692   5.947
60675SOL    HW283923   5.723   1.611   5.823
60676SOL     OW83924   7.272   7.968   6.074
60676SOL    HW183925   7.299   7.884   6.111
60676SOL    HW283926   7.343   8.028   6.099
60677SOL     OW83927   8.523  14.778  13.843
60677SOL    HW183928   8.483  14.862  13.865
60677SOL    HW283929   8.456  14.732  13.792
60678SOL     OW83930   4.964  12.743  11.737
60678SOL    HW183931   4.972  12.723  11.643
60678SOL    HW283932   4.933  12.833  11.739
60679SOL     OW83933  12.660   2.716  14.829
60679SOL    HW183934  12.725   2.777  14.794
60679SOL    HW283935  12.700   2.630  14.819
60680SOL     OW83936   4.701   8.178   7.082
60680SOL    HW183937   4.716   8.084   7.090
60680SOL    HW283938   4.636   8.185   7.011
60681SOL     OW83939   4.225  10.522  12.952
60681SOL    HW183940   4.297  10.516  13.014
60681SOL    HW283941   4.148  10.538  13.007
60682SOL     OW83942   5.052  12.596   4.073
60682SOL    HW183943   5.145  12.606   4.053
60682SOL    HW283944   5.007  12.630   3.995
60683SOL     OW83945  12.420   6.313  14.645
60683SOL    HW183946  12.368   6.285  14.570
60683SOL    HW283947  12.387   6.260  14.718
60684SOL     OW83948   0.370   6.466  13.963
60684SOL    HW183949   0.324   6.549  13.977
60684SOL    HW283950   0.452   6.490  13.920
60685SOL     OW83951  12.963  14.820   2.043
60685SOL    HW183952  12.870  14.839   2.028
60685SOL    HW283953  12.995  14.788   1.959
60686SOL     OW83954  12.912   5.605  10.530
60686SOL    HW183955  12.829   5.562  10.508
60686SOL    HW283956  12.964   5.598  10.450
60687SOL     OW83957  10.304  13.102  14.725
60687SOL    HW183958  10.287  13.086  14.818
60687SOL    HW283959  10.249  13.039  14.679
60688SOL     OW83960   2.835   7.094   0.805
60688SOL    HW183961   2.906   7.047   0.761
60688SOL    HW283962   2.878   7.138   0.879
60689SOL     OW83963  10.527   4.653  11.672
60689SOL    HW183964  10.470   4.644  11.596
60689SOL    HW283965  10.489   4.595  11.737
60690SOL     OW83966  14.337  13.863   1.554
60690SOL    HW183967  14.427  13.832   1.541
60690SOL    HW283968  14.319  13.846   1.646
60691SOL     OW83969  10.272   6.026  10.453
60691SOL    HW183970  10.210   6.079  10.504
60691SOL    HW283971  10.289   5.950  10.509
60692SOL     OW83972   0.343  10.639   6.129
60692SOL    HW183973   0.271  10.660   6.069
60692SOL    HW283974   0.356  10.719   6.180
60693SOL     OW83975   8.045  11.010   2.868
60693SOL    HW183976   7.976  10.957   2.907
60693SOL    HW283977   8.008  11.042   2.786
60694SOL     OW83978   6.491   0.674   0.698
60694SOL    HW183979   6.568   0.728   0.681
60694SOL    HW283980   6.449   0.715   0.774
60695SOL     OW83981  13.311   1.651   9.953
60695SOL    HW183982  13.245   1.665  10.021
60695SOL    HW283983  13.261   1.654   9.871
60696SOL     OW83984   1.028   9.038   4.137
60696SOL    HW183985   0.994   9.083   4.215
60696SOL    HW283986   1.039   9.107   4.072
60697SOL     OW83987   8.576  14.825   4.715
60697SOL    HW183988   8.512   0.018   4.738
60697SOL    HW283989   8.527  14.764   4.659
60698SOL     OW83990   2.565   8.332   3.640
60698SOL    HW183991   2.500   8.382   3.688
60698SOL    HW283992   2.589   8.260   3.698
60699SOL     OW83993  11.198   8.870  10.275
60699SOL    HW183994  11.199   8.965  10.277
60699SOL    HW283995  11.120   8.846  10.324
60700SOL     OW83996   7.186  14.183   0.114
60700SOL    HW183997   7.153  14.234   0.188
60700SOL    HW283998   7.282  14.185   0.124
60701SOL     OW83999   5.384  14.147   6.787
60701SOL    HW184000   5.463  14.099   6.813
60701SOL    HW284001   5.417  14.226   6.744
60702SOL     OW84002  13.143   7.829   1.858
60702SOL    HW184003  13.171   7.741   1.883
60702SOL    HW284004  13.052   7.835   1.887
60703SOL     OW84005   3.318   3.197   5.302
60703SOL    HW184006   3.303   3.140   5.377
60703SOL    HW284007   3.405   3.234   5.316
60704SOL     OW84008   7.917   4.228   9.993
60704SOL    HW184009   7.920   4.133   9.976
60704SOL    HW284010   7.939   4.236  10.086
60705SOL     OW84011   1.132  10.073   9.202
60705SOL    HW184012   1.068  10.095   9.134
60705SOL    HW284013   1.181   9.999   9.166
60706SOL     OW84014   7.864   5.145  10.320
60706SOL    HW184015   7.919   5.073  10.288
60706SOL    HW284016   7.912   5.224  10.296
60707SOL     OW84017   3.037   4.689   9.529
60707SOL    HW184018   3.031   4.597   9.505
60707SOL    HW284019   3.128   4.700   9.557
60708SOL     OW84020   7.828  13.249   3.621
60708SOL    HW184021   7.905  13.198   3.648
60708SOL    HW284022   7.826  13.239   3.525
60709SOL     OW84023   8.604   1.089  12.556
60709SOL    HW184024   8.608   1.045  12.472
60709SOL    HW284025   8.512   1.086  12.581
60710SOL     OW84026  13.231   3.362   1.698
60710SOL    HW184027  13.179   3.313   1.762
60710SOL    HW284028  13.274   3.429   1.749
60711SOL     OW84029   4.789  11.357   6.251
60711SOL    HW184030   4.876  11.319   6.263
60711SOL    HW284031   4.732  11.301   6.303
60712SOL     OW84032  14.510  10.677  12.056
60712SOL    HW184033  14.505  10.582  12.070
60712SOL    HW284034  14.418  10.706  12.056
60713SOL     OW84035  11.732   9.292   7.494
60713SOL    HW184036  11.766   9.222   7.439
60713SOL    HW284037  11.811   9.335   7.529
60714SOL     OW84038   1.938   1.065   5.113
60714SOL    HW184039   1.910   1.044   5.202
60714SOL    HW284040   1.856   1.077   5.064
60715SOL     OW84041  14.164  14.607   0.079
60715SOL    HW184042  14.249  14.618   0.121
60715SOL    HW284043  14.139  14.695   0.052
60716SOL     OW84044  12.656  10.147   8.396
60716SOL    HW184045  12.623  10.229   8.357
60716SOL    HW284046  12.587  10.084   8.381
60717SOL     OW84047  14.868   3.269  14.084
60717SOL    HW184048  14.786   3.239  14.124
60717SOL    HW284049  14.851   3.361  14.062
60718SOL     OW84050   1.069  13.520   3.062
60718SOL    HW184051   1.036  13.587   3.002
60718SOL    HW284052   1.093  13.446   3.006
60719SOL     OW84053  10.484   5.578  14.295
60719SOL    HW184054  10.497   5.574  14.201
60719SOL    HW284055  10.418   5.511  14.313
60720SOL     OW84056   5.271   6.013   6.652
60720SOL    HW184057   5.317   6.066   6.716
60720SOL    HW284058   5.257   5.929   6.695
60721SOL     OW84059  14.489  11.878  12.268
60721SOL    HW184060  14.413  11.823  12.284
60721SOL    HW284061  14.559  11.839  12.320
60722SOL     OW84062   5.852   0.662   8.083
60722SOL    HW184063   5.818   0.725   8.019
60722SOL    HW284064   5.943   0.647   8.056
60723SOL     OW84065   2.016  13.220   4.265
60723SOL    HW184066   2.101  13.256   4.242
60723SOL    HW284067   2.035  13.135   4.303
60724SOL     OW84068   8.775   7.653   0.586
60724SOL    HW184069   8.716   7.677   0.514
60724SOL    HW284070   8.743   7.567   0.614
60725SOL     OW84071   3.318  12.730   8.329
60725SOL    HW184072   3.258  12.694   8.394
60725SOL    HW284073   3.347  12.654   8.278
60726SOL     OW84074   9.508   9.681  11.909
60726SOL    HW184075   9.428   9.637  11.937
60726SOL    HW284076   9.559   9.613  11.864
60727SOL     OW84077  13.494   1.296   7.426
60727SOL    HW184078  13.405   1.262   7.420
60727SOL    HW284079  13.538   1.236   7.487
60728SOL     OW84080   6.744   9.407   7.933
60728SOL    HW184081   6.787   9.492   7.922
60728SOL    HW284082   6.801   9.345   7.889
60729SOL     OW84083   4.993   6.012   3.875
60729SOL    HW184084   4.917   6.048   3.919
60729SOL    HW284085   5.027   5.946   3.936
60730SOL     OW84086   6.697   2.634   6.694
60730SOL    HW184087   6.623   2.627   6.756
60730SOL    HW284088   6.729   2.545   6.685
60731SOL     OW84089   2.809  11.007  12.997
60731SOL    HW184090   2.829  10.931  13.051
60731SOL    HW284091   2.805  10.973  12.908
60732SOL     OW84092   2.838   5.994  12.148
60732SOL    HW184093   2.910   5.942  12.113
60732SOL    HW284094   2.872   6.083  12.151
60733SOL     OW84095  11.361   5.592   5.857
60733SOL    HW184096  11.392   5.536   5.786
60733SOL    HW284097  11.341   5.532   5.928
60734SOL     OW84098   5.516   8.061   4.277
60734SOL    HW184099   5.595   8.009   4.285
60734SOL    HW284100   5.445   7.998   4.281
60735SOL     OW84101   8.133   5.961   0.431
60735SOL    HW184102   8.223   5.973   0.401
60735SOL    HW284103   8.137   5.967   0.526
60736SOL     OW84104   2.706   5.105   1.838
60736SOL    HW184105   2.663   5.137   1.916
60736SOL    HW284106   2.779   5.052   1.870
60737SOL     OW84107  12.556   0.211   6.937
60737SOL    HW184108  12.609   0.210   7.017
60737SOL    HW284109  12.598   0.278   6.882
60738SOL     OW84110   3.297   9.237   4.583
60738SOL    HW184111   3.280   9.286   4.664
60738SOL    HW284112   3.347   9.161   4.612
60739SOL     OW84113   1.580   9.350   4.380
60739SOL    HW184114   1.603   9.429   4.429
60739SOL    HW284115   1.627   9.280   4.425
60740SOL     OW84116   0.659   6.589   7.344
60740SOL    HW184117   0.665   6.557   7.254
60740SOL    HW284118   0.567   6.609   7.357
60741SOL     OW84119  13.249   7.749  13.827
60741SOL    HW184120  13.269   7.835  13.863
60741SOL    HW284121  13.308   7.740  13.752
60742SOL     OW84122   2.009   0.995   9.347
60742SOL    HW184123   2.048   0.930   9.405
60742SOL    HW284124   2.081   1.019   9.288
60743SOL     OW84125   6.872  11.154   6.249
60743SOL    HW184126   6.924  11.233   6.246
60743SOL    HW284127   6.896  11.106   6.170
60744SOL     OW84128   0.151   7.277   8.854
60744SOL    HW184129   0.150   7.218   8.929
60744SOL    HW284130   0.177   7.222   8.780
60745SOL     OW84131  12.529   0.849   0.781
60745SOL    HW184132  12.528   0.758   0.811
60745SOL    HW284133  12.449   0.858   0.729
60746SOL     OW84134   3.891   1.180   6.388
60746SOL    HW184135   3.848   1.266   6.381
60746SOL    HW284136   3.972   1.198   6.435
60747SOL     OW84137  13.608   6.265  12.219
60747SOL    HW184138  13.655   6.181  12.221
60747SOL    HW284139  13.669   6.327  12.260
60748SOL     OW84140   2.441  10.288   6.205
60748SOL    HW184141   2.498  10.363   6.218
60748SOL    HW284142   2.487  10.215   6.245
60749SOL     OW84143   4.363   2.328   5.646
60749SOL    HW184144   4.408   2.293   5.723
60749SOL    HW284145   4.374   2.261   5.579
60750SOL     OW84146   2.321   1.448   4.715
60750SOL    HW184147   2.248   1.470   4.658
60750SOL    HW284148   2.391   1.508   4.690
60751SOL     OW84149   9.468  13.129   2.722
60751SOL    HW184150   9.463  13.135   2.627
60751SOL    HW284151   9.413  13.055   2.745
60752SOL     OW84152   3.104   2.103   2.306
60752SOL    HW184153   3.025   2.141   2.346
60752SOL    HW284154   3.124   2.161   2.232
60753SOL     OW84155  11.087   6.531   4.151
60753SOL    HW184156  11.021   6.597   4.127
60753SOL    HW284157  11.060   6.452   4.104
60754SOL     OW84158  10.389   9.623   6.847
60754SOL    HW184159  10.428   9.617   6.935
60754SOL    HW284160  10.458   9.593   6.788
60755SOL     OW84161   9.143  10.720  11.954
60755SOL    HW184162   9.057  10.680  11.967
60755SOL    HW284163   9.196  10.651  11.914
60756SOL     OW84164   5.959   5.829   6.131
60756SOL    HW184165   5.926   5.902   6.183
60756SOL    HW284166   6.044   5.858   6.099
60757SOL     OW84167  12.369  13.731   4.909
60757SOL    HW184168  12.355  13.641   4.877
60757SOL    HW284169  12.340  13.728   5.000
60758SOL     OW84170  12.990   7.928   6.282
60758SOL    HW184171  13.085   7.919   6.284
60758SOL    HW284172  12.961   7.887   6.363
60759SOL     OW84173   0.059  13.063   2.718
60759SOL    HW184174  14.858  13.005   2.726
60759SOL    HW284175   0.132  13.004   2.701
60760SOL     OW84176   9.795  12.982   7.312
60760SOL    HW184177   9.818  13.075   7.301
60760SOL    HW284178   9.836  12.957   7.395
60761SOL     OW84179   1.378  13.355   9.735
60761SOL    HW184180   1.382  13.407   9.815
60761SOL    HW284181   1.462  13.370   9.692
60762SOL     OW84182   4.086   3.936   1.273
60762SOL    HW184183   4.116   3.855   1.232
60762SOL    HW284184   4.153   3.957   1.337
60763SOL     OW84185   4.827   8.761  14.491
60763SOL    HW184186   4.778   8.827  14.541
60763SOL    HW284187   4.760   8.703  14.455
60764SOL     OW84188  12.335  11.808  13.086
60764SOL    HW184189  12.425  11.784  13.065
60764SOL    HW284190  12.339  11.901  13.107
60765SOL     OW84191   4.322   3.248  10.122
60765SOL    HW184192   4.238   3.214  10.154
60765SOL    HW284193   4.364   3.173  10.080
60766SOL     OW84194  12.330  11.943   3.832
60766SOL    HW184195  12.359  12.029   3.800
60766SOL    HW284196  12.374  11.933   3.917
60767SOL     OW84197   0.369   1.733   9.204
60767SOL    HW184198   0.290   1.708   9.251
60767SOL    HW284199   0.440   1.687   9.249
60768SOL     OW84200  14.270   1.974   8.435
60768SOL    HW184201  14.197   1.946   8.379
60768SOL    HW284202  14.228   2.014   8.511
60769SOL     OW84203   1.973  10.968  14.526
60769SOL    HW184204   1.891  10.973  14.575
60769SOL    HW284205   2.007  10.880  14.545
60770SOL     OW84206   2.267  14.224   6.470
60770SOL    HW184207   2.352  14.253   6.437
60770SOL    HW284208   2.204  14.266   6.413
60771SOL     OW84209   1.572   1.783  12.825
60771SOL    HW184210   1.512   1.835  12.879
60771SOL    HW284211   1.621   1.731  12.889
60772SOL     OW84212   4.275   3.869   7.988
60772SOL    HW184213   4.238   3.948   7.949
60772SOL    HW284214   4.299   3.894   8.077
60773SOL     OW84215   5.809   1.987  10.280
60773SOL    HW184216   5.747   2.055  10.306
60773SOL    HW284217   5.762   1.905  10.292
60774SOL     OW84218  13.810  13.787   2.981
60774SOL    HW184219  13.828  13.705   2.934
60774SOL    HW284220  13.736  13.825   2.935
60775SOL     OW84221   0.024   7.116   4.519
60775SOL    HW184222  14.845   7.182   4.477
60775SOL    HW284223   0.089   7.092   4.453
60776SOL     OW84224   1.809   8.798  10.666
60776SOL    HW184225   1.884   8.746  10.698
60776SOL    HW284226   1.818   8.882  10.710
60777SOL     OW84227  11.386   0.984   8.310
60777SOL    HW184228  11.430   0.925   8.371
60777SOL    HW284229  11.336   0.925   8.252
60778SOL     OW84230   7.644   2.341   6.001
60778SOL    HW184231   7.646   2.261   5.949
60778SOL    HW284232   7.673   2.314   6.088
60779SOL     OW84233   0.272   2.692   9.055
60779SOL    HW184234   0.281   2.598   9.070
60779SOL    HW284235   0.312   2.733   9.132
60780SOL     OW84236   0.974   0.976   8.625
60780SOL    HW184237   0.982   0.949   8.717
60780SOL    HW284238   0.902   0.923   8.591
60781SOL     OW84239  11.866   2.762   6.543
60781SOL    HW184240  11.925   2.767   6.618
60781SOL    HW284241  11.918   2.792   6.469
60782SOL     OW84242   3.258   7.669  13.944
60782SOL    HW184243   3.320   7.738  13.920
60782SOL    HW284244   3.313   7.591  13.957
60783SOL     OW84245  11.330   1.304   2.423
60783SOL    HW184246  11.264   1.237   2.408
60783SOL    HW284247  11.413   1.263   2.400
60784SOL     OW84248  12.917   5.658   0.718
60784SOL    HW184249  12.869   5.707   0.785
60784SOL    HW284250  12.851   5.602   0.678
60785SOL     OW84251   0.791   7.900   9.528
60785SOL    HW184252   0.763   7.916   9.438
60785SOL    HW284253   0.801   7.805   9.534
60786SOL     OW84254   6.690   7.901   8.430
60786SOL    HW184255   6.675   7.940   8.344
60786SOL    HW284256   6.718   7.812   8.411
60787SOL     OW84257  11.860   7.573  11.346
60787SOL    HW184258  11.877   7.646  11.288
60787SOL    HW284259  11.852   7.612  11.433
60788SOL     OW84260   0.208  11.310   7.264
60788SOL    HW184261   0.295  11.332   7.229
60788SOL    HW284262   0.207  11.214   7.264
60789SOL     OW84263   5.184   8.747   0.493
60789SOL    HW184264   5.098   8.786   0.510
60789SOL    HW284265   5.190   8.675   0.556
60790SOL     OW84266   4.699   6.919  12.211
60790SOL    HW184267   4.614   6.940  12.250
60790SOL    HW284268   4.723   6.835  12.251
60791SOL     OW84269   1.026   7.674   1.005
60791SOL    HW184270   0.959   7.696   1.069
60791SOL    HW284271   1.088   7.619   1.053
60792SOL     OW84272   0.279  10.995  11.726
60792SOL    HW184273   0.247  11.085  11.737
60792SOL    HW284274   0.219  10.942  11.777
60793SOL     OW84275  13.318  13.739   0.889
60793SOL    HW184276  13.297  13.648   0.866
60793SOL    HW284277  13.233  13.783   0.891
60794SOL     OW84278  13.701  10.841  12.535
60794SOL    HW184279  13.751  10.797  12.466
60794SOL    HW284280  13.755  10.916  12.560
60795SOL     OW84281  13.400   1.711  11.229
60795SOL    HW184282  13.338   1.658  11.279
60795SOL    HW284283  13.459   1.747  11.294
60796SOL     OW84284   8.753   1.780   6.650
60796SOL    HW184285   8.794   1.797   6.565
60796SOL    HW284286   8.728   1.867   6.682
60797SOL     OW84287  14.087   8.367   9.908
60797SOL    HW184288  14.161   8.396   9.855
60797SOL    HW284289  14.123   8.356   9.996
60798SOL     OW84290   2.170   1.296   7.171
60798SOL    HW184291   2.263   1.300   7.148
60798SOL    HW284292   2.152   1.380   7.213
60799SOL     OW84293   9.392   9.839   7.137
60799SOL    HW184294   9.309   9.863   7.095
60799SOL    HW284295   9.385   9.745   7.153
60800SOL     OW84296  11.991   8.882  11.810
60800SOL    HW184297  11.955   8.919  11.729
60800SOL    HW284298  12.041   8.806  11.781
60801SOL     OW84299   9.641   5.992   7.733
60801SOL    HW184300   9.728   5.954   7.740
60801SOL    HW284301   9.625   6.033   7.819
60802SOL     OW84302   7.117   5.582  11.462
60802SOL    HW184303   7.101   5.514  11.397
60802SOL    HW284304   7.030   5.615  11.485
60803SOL     OW84305   0.119   7.205   3.801
60803SOL    HW184306   0.122   7.199   3.706
60803SOL    HW284307   0.057   7.275   3.820
60804SOL     OW84308   5.844  12.316   6.470
60804SOL    HW184309   5.830  12.393   6.416
60804SOL    HW284310   5.813  12.243   6.417
60805SOL     OW84311  14.333   6.590  12.003
60805SOL    HW184312  14.305   6.634  11.923
60805SOL    HW284313  14.295   6.642  12.074
60806SOL     OW84314   0.548   7.954  10.600
60806SOL    HW184315   0.510   7.982  10.517
60806SOL    HW284316   0.527   8.025  10.661
60807SOL     OW84317   8.341  12.129   4.249
60807SOL    HW184318   8.302  12.042   4.249
60807SOL    HW284319   8.287  12.179   4.310
60808SOL     OW84320   7.668   0.421   0.574
60808SOL    HW184321   7.679   0.328   0.555
60808SOL    HW284322   7.591   0.447   0.524
60809SOL     OW84323   3.927  12.387   4.797
60809SOL    HW184324   3.992  12.321   4.822
60809SOL    HW284325   3.978  12.458   4.759
60810SOL     OW84326   2.600   1.267   2.786
60810SOL    HW184327   2.566   1.306   2.867
60810SOL    HW284328   2.657   1.196   2.816
60811SOL     OW84329  11.615   4.538   8.554
60811SOL    HW184330  11.660   4.480   8.615
60811SOL    HW284331  11.535   4.564   8.600
60812SOL     OW84332   0.824  11.985  11.039
60812SOL    HW184333   0.785  11.920  10.981
60812SOL    HW284334   0.849  12.057  10.981
60813SOL     OW84335   5.947   5.210   8.150
60813SOL    HW184336   5.961   5.120   8.119
60813SOL    HW284337   5.852   5.221   8.147
60814SOL     OW84338   3.610   1.736   7.832
60814SOL    HW184339   3.595   1.655   7.783
60814SOL    HW284340   3.616   1.804   7.765
60815SOL     OW84341   4.187  12.616   0.743
60815SOL    HW184342   4.108  12.667   0.760
60815SOL    HW284343   4.259  12.678   0.754
60816SOL     OW84344   4.303  12.043   1.263
60816SOL    HW184345   4.224  12.005   1.304
60816SOL    HW284346   4.269  12.107   1.201
60817SOL     OW84347   4.413  14.072   2.490
60817SOL    HW184348   4.505  14.087   2.466
60817SOL    HW284349   4.369  14.154   2.468
60818SOL     OW84350  11.633   0.928  14.731
60818SOL    HW184351  11.683   0.951  14.809
60818SOL    HW284352  11.559   0.877  14.763
60819SOL     OW84353  10.486  11.195   5.673
60819SOL    HW184354  10.411  11.226   5.723
60819SOL    HW284355  10.452  11.121   5.623
60820SOL     OW84356  10.230   3.461  14.222
60820SOL    HW184357  10.298   3.452  14.289
60820SOL    HW284358  10.158   3.504  14.267
60821SOL     OW84359   3.231  14.713  11.280
60821SOL    HW184360   3.232  14.802  11.314
60821SOL    HW284361   3.321  14.682  11.290
60822SOL     OW84362  13.443  11.163   8.678
60822SOL    HW184363  13.372  11.191   8.619
60822SOL    HW284364  13.398  11.131   8.756
60823SOL     OW84365   7.369   4.746   6.083
60823SOL    HW184366   7.293   4.752   6.025
60823SOL    HW284367   7.421   4.676   6.047
60824SOL     OW84368  13.717   4.546   1.911
60824SOL    HW184369  13.718   4.580   2.001
60824SOL    HW284370  13.793   4.587   1.870
60825SOL     OW84371  10.970   5.105   8.888
60825SOL    HW184372  11.035   5.069   8.828
60825SOL    HW284373  10.896   5.129   8.831
60826SOL     OW84374  11.702   2.771  14.422
60826SOL    HW184375  11.608   2.785  14.416
60826SOL    HW284376  11.712   2.676  14.427
60827SOL     OW84377   2.015   8.587  14.842
60827SOL    HW184378   2.109   8.598  14.830
60827SOL    HW284379   2.006   8.554   0.056
60828SOL     OW84380   3.867  13.665   2.035
60828SOL    HW184381   3.958  13.673   2.066
60828SOL    HW284382   3.876  13.636   1.944
60829SOL     OW84383   4.538   0.180  11.928
60829SOL    HW184384   4.565   0.267  11.898
60829SOL    HW284385   4.537   0.187  12.023
60830SOL     OW84386   8.015  12.352   5.665
60830SOL    HW184387   8.019  12.310   5.579
60830SOL    HW284388   8.016  12.446   5.646
60831SOL     OW84389   9.799   4.540   6.144
60831SOL    HW184390   9.726   4.524   6.085
60831SOL    HW284391   9.786   4.631   6.173
60832SOL     OW84392   3.224  14.208   1.571
60832SOL    HW184393   3.131  14.224   1.556
60832SOL    HW284394   3.268  14.286   1.537
60833SOL     OW84395  13.550   9.247   7.586
60833SOL    HW184396  13.506   9.205   7.512
60833SOL    HW284397  13.589   9.327   7.549
60834SOL     OW84398   8.823  11.544   3.056
60834SOL    HW184399   8.776  11.622   3.027
60834SOL    HW284400   8.754  11.486   3.089
60835SOL     OW84401   0.743  14.210  13.808
60835SOL    HW184402   0.781  14.298  13.809
60835SOL    HW284403   0.652  14.223  13.836
60836SOL     OW84404   4.105   7.299   7.665
60836SOL    HW184405   4.074   7.249   7.589
60836SOL    HW284406   4.189   7.259   7.686
60837SOL     OW84407   2.660   2.976  12.059
60837SOL    HW184408   2.594   3.035  12.097
60837SOL    HW284409   2.740   2.995  12.108
60838SOL     OW84410   3.284   5.822   4.705
60838SOL    HW184411   3.338   5.891   4.744
60838SOL    HW284412   3.208   5.868   4.670
60839SOL     OW84413   8.642   5.522   0.877
60839SOL    HW184414   8.573   5.490   0.819
60839SOL    HW284415   8.717   5.537   0.820
60840SOL     OW84416  11.798  13.847   8.104
60840SOL    HW184417  11.714  13.887   8.127
60840SOL    HW284418  11.831  13.812   8.187
60841SOL     OW84419  13.140   9.893   7.216
60841SOL    HW184420  13.063   9.838   7.202
60841SOL    HW284421  13.175   9.864   7.300
60842SOL     OW84422  12.118   5.015   1.402
60842SOL    HW184423  12.137   4.936   1.454
60842SOL    HW284424  12.197   5.028   1.349
60843SOL     OW84425  13.340   3.571   3.834
60843SOL    HW184426  13.266   3.517   3.805
60843SOL    HW284427  13.376   3.608   3.754
60844SOL     OW84428  11.340   3.352   7.765
60844SOL    HW184429  11.355   3.392   7.680
60844SOL    HW284430  11.281   3.279   7.747
60845SOL     OW84431   4.209   7.465   1.029
60845SOL    HW184432   4.219   7.410   1.106
60845SOL    HW284433   4.194   7.553   1.064
60846SOL     OW84434  10.381   5.241   8.458
60846SOL    HW184435  10.424   5.166   8.417
60846SOL    HW284436  10.310   5.264   8.398
60847SOL     OW84437   1.392  12.071   0.063
60847SOL    HW184438   1.394  12.055  14.844
60847SOL    HW284439   1.428  12.160   0.073
60848SOL     OW84440   8.078   3.382   3.746
60848SOL    HW184441   8.077   3.421   3.833
60848SOL    HW284442   8.159   3.415   3.706
60849SOL     OW84443   9.335  13.710  11.158
60849SOL    HW184444   9.380  13.723  11.241
60849SOL    HW284445   9.274  13.638  11.174
60850SOL     OW84446  11.372   2.913  11.209
60850SOL    HW184447  11.297   2.955  11.252
60850SOL    HW284448  11.427   2.986  11.181
60851SOL     OW84449  13.277   0.643   9.923
60851SOL    HW184450  13.370   0.633   9.943
60851SOL    HW284451  13.233   0.631  10.006
60852SOL     OW84452   9.239   6.648   0.615
60852SOL    HW184453   9.188   6.725   0.588
60852SOL    HW284454   9.283   6.619   0.536
60853SOL     OW84455   9.369  10.124   7.932
60853SOL    HW184456   9.415  10.093   7.854
60853SOL    HW284457   9.439  10.145   7.994
60854SOL     OW84458   1.624   0.467  11.421
60854SOL    HW184459   1.668   0.550  11.406
60854SOL    HW284460   1.631   0.420  11.338
60855SOL     OW84461  14.626   2.561   6.533
60855SOL    HW184462  14.666   2.646   6.510
60855SOL    HW284463  14.621   2.563   6.629
60856SOL     OW84464  11.662  13.082   3.440
60856SOL    HW184465  11.629  13.042   3.521
60856SOL    HW284466  11.596  13.061   3.374
60857SOL     OW84467   8.603  13.116  12.570
60857SOL    HW184468   8.624  13.041  12.625
60857SOL    HW284469   8.609  13.083  12.480
60858SOL     OW84470  10.538   0.076   6.270
60858SOL    HW184471  10.462   0.046   6.320
60858SOL    HW284472  10.515   0.056   6.179
60859SOL     OW84473   9.163  12.661   9.338
60859SOL    HW184474   9.162  12.635   9.430
60859SOL    HW284475   9.242  12.621   9.303
60860SOL     OW84476  12.734  12.045   5.809
60860SOL    HW184477  12.666  11.993   5.766
60860SOL    HW284478  12.685  12.109   5.861
60861SOL     OW84479   3.649   9.480   7.515
60861SOL    HW184480   3.657   9.511   7.605
60861SOL    HW284481   3.714   9.409   7.509
60862SOL     OW84482   6.405  12.961   1.488
60862SOL    HW184483   6.405  12.912   1.406
60862SOL    HW284484   6.326  13.016   1.483
60863SOL     OW84485  10.350  12.927   7.876
60863SOL    HW184486  10.328  13.018   7.854
60863SOL    HW284487  10.382  12.889   7.795
60864SOL     OW84488   1.324   9.592   3.099
60864SOL    HW184489   1.325   9.609   3.005
60864SOL    HW284490   1.257   9.651   3.133
60865SOL     OW84491  10.815   9.468   5.290
60865SOL    HW184492  10.776   9.424   5.366
60865SOL    HW284493  10.804   9.561   5.308
60866SOL     OW84494  12.457  11.703   7.534
60866SOL    HW184495  12.431  11.720   7.443
60866SOL    HW284496  12.387  11.648   7.569
60867SOL     OW84497  14.610  11.465   5.175
60867SOL    HW184498  14.601  11.371   5.157
60867SOL    HW284499  14.646  11.501   5.094
60868SOL     OW84500   3.630  10.820  12.420
60868SOL    HW184501   3.580  10.900  12.402
60868SOL    HW284502   3.627  10.771  12.338
60869SOL     OW84503  11.873  14.309   6.562
60869SOL    HW184504  11.822  14.280   6.486
60869SOL    HW284505  11.829  14.389   6.590
60870SOL     OW84506  10.154   1.348   6.090
60870SOL    HW184507  10.119   1.437   6.096
60870SOL    HW284508  10.224   1.354   6.025
60871SOL     OW84509   6.735   9.800   1.253
60871SOL    HW184510   6.728   9.876   1.311
60871SOL    HW284511   6.829   9.790   1.238
60872SOL     OW84512   9.756  10.448  14.103
60872SOL    HW184513   9.671  10.465  14.143
60872SOL    HW284514   9.764  10.513  14.033
60873SOL     OW84515  13.099   0.211  12.726
60873SOL    HW184516  13.147   0.281  12.683
60873SOL    HW284517  13.150   0.191  12.805
60874SOL     OW84518   9.766  13.890   6.327
60874SOL    HW184519   9.750  13.981   6.349
60874SOL    HW284520   9.784  13.847   6.410
60875SOL     OW84521   2.959   1.587   2.016
60875SOL    HW184522   2.886   1.609   2.074
60875SOL    HW284523   2.919   1.549   1.938
60876SOL     OW84524  14.431   5.598   6.888
60876SOL    HW184525  14.348   5.556   6.867
60876SOL    HW284526  14.498   5.540   6.851
60877SOL     OW84527  12.628   4.914   0.033
60877SOL    HW184528  12.664   4.828   0.055
60877SOL    HW284529  12.618   4.912  14.813
60878SOL     OW84530   3.628   1.040   1.298
60878SOL    HW184531   3.577   1.059   1.377
60878SOL    HW284532   3.677   1.121   1.281
60879SOL     OW84533   8.857  10.343   4.272
60879SOL    HW184534   8.916  10.380   4.337
60879SOL    HW284535   8.827  10.260   4.311
60880SOL     OW84536   5.961   9.780   7.974
60880SOL    HW184537   6.010   9.712   7.928
60880SOL    HW284538   5.884   9.734   8.008
60881SOL     OW84539   4.554  13.894  10.690
60881SOL    HW184540   4.563  13.799  10.689
60881SOL    HW284541   4.531  13.915  10.781
60882SOL     OW84542  13.855   9.703   0.227
60882SOL    HW184543  13.787   9.766   0.252
60882SOL    HW284544  13.810   9.618   0.228
60883SOL     OW84545   0.090   9.607  13.416
60883SOL    HW184546  14.872   9.583  13.418
60883SOL    HW284547   0.127   9.550  13.348
60884SOL     OW84548   7.499  10.709   9.070
60884SOL    HW184549   7.407  10.717   9.097
60884SOL    HW284550   7.540  10.657   9.139
60885SOL     OW84551  14.508   2.404   6.990
60885SOL    HW184552  14.477   2.421   7.080
60885SOL    HW284553  14.490   2.311   6.976
60886SOL     OW84554  12.120   6.170  12.008
60886SOL    HW184555  12.123   6.155  12.102
60886SOL    HW284556  12.212   6.168  11.981
60887SOL     OW84557   2.666   8.890  10.372
60887SOL    HW184558   2.625   8.889  10.458
60887SOL    HW284559   2.611   8.946  10.319
60888SOL     OW84560  11.112   7.657  13.381
60888SOL    HW184561  11.052   7.583  13.394
60888SOL    HW284562  11.066   7.732  13.419
60889SOL     OW84563   6.583   7.806  12.109
60889SOL    HW184564   6.490   7.814  12.132
60889SOL    HW284565   6.608   7.720  12.143
60890SOL     OW84566   4.968  12.312   0.770
60890SOL    HW184567   4.889  12.345   0.727
60890SOL    HW284568   5.011  12.391   0.804
60891SOL     OW84569   6.501   5.114   4.446
60891SOL    HW184570   6.592   5.135   4.467
60891SOL    HW284571   6.462   5.089   4.529
60892SOL     OW84572   3.326   1.670  12.795
60892SOL    HW184573   3.403   1.615  12.785
60892SOL    HW284574   3.352   1.738  12.857
60893SOL     OW84575  11.917   4.054   6.936
60893SOL    HW184576  12.008   4.052   6.905
60893SOL    HW284577  11.919   4.111   7.013
60894SOL     OW84578  12.505   1.523  13.993
60894SOL    HW184579  12.453   1.604  13.986
60894SOL    HW284580  12.589   1.552  14.029
60895SOL     OW84581   2.538   8.000   3.455
60895SOL    HW184582   2.560   7.934   3.390
60895SOL    HW284583   2.590   8.077   3.430
60896SOL     OW84584  13.426  13.391   9.625
60896SOL    HW184585  13.480  13.323   9.666
60896SOL    HW284586  13.344  13.390   9.675
60897SOL     OW84587   1.243   0.674  10.430
60897SOL    HW184588   1.263   0.587  10.465
60897SOL    HW284589   1.323   0.724  10.443
60898SOL     OW84590  13.466   6.558  12.522
60898SOL    HW184591  13.380   6.598  12.536
60898SOL    HW284592  13.472   6.549  12.426
60899SOL     OW84593  13.873   7.244   1.804
60899SOL    HW184594  13.958   7.284   1.823
60899SOL    HW284595  13.829   7.308   1.748
60900SOL     OW84596  13.706  13.436   9.927
60900SOL    HW184597  13.744  13.437   9.840
60900SOL    HW284598  13.714  13.345   9.957
60901SOL     OW84599  12.205  12.444  12.205
60901SOL    HW184600  12.261  12.494  12.147
60901SOL    HW284601  12.163  12.380  12.149
60902SOL     OW84602  13.350   0.434   6.985
60902SOL    HW184603  13.350   0.391   7.071
60902SOL    HW284604  13.297   0.377   6.930
60903SOL     OW84605   3.730   8.847   3.777
60903SOL    HW184606   3.760   8.769   3.730
60903SOL    HW284607   3.773   8.920   3.731
60904SOL     OW84608  13.877  12.992  13.018
60904SOL    HW184609  13.844  12.993  12.928
60904SOL    HW284610  13.920  12.907  13.027
60905SOL     OW84611   6.292   3.705   9.147
60905SOL    HW184612   6.250   3.674   9.227
60905SOL    HW284613   6.224   3.699   9.080
60906SOL     OW84614  10.984  12.265   6.682
60906SOL    HW184615  10.949  12.241   6.767
60906SOL    HW284616  10.910  12.302   6.635
60907SOL     OW84617  14.099   1.634   1.983
60907SOL    HW184618  14.018   1.585   1.997
60907SOL    HW284619  14.081   1.720   2.020
60908SOL     OW84620  12.233   3.295   1.392
60908SOL    HW184621  12.288   3.373   1.391
60908SOL    HW284622  12.196   3.290   1.303
60909SOL     OW84623   8.858  13.188   8.695
60909SOL    HW184624   8.848  13.187   8.600
60909SOL    HW284625   8.857  13.280   8.719
60910SOL     OW84626   1.588   1.740  14.626
60910SOL    HW184627   1.547   1.825  14.608
60910SOL    HW284628   1.630   1.716  14.544
60911SOL     OW84629  13.699   4.681   0.530
60911SOL    HW184630  13.730   4.738   0.460
60911SOL    HW284631  13.777   4.660   0.581
60912SOL     OW84632  10.108  14.798   3.104
60912SOL    HW184633  10.145  14.802   3.193
60912SOL    HW284634  10.138   0.003   3.062
60913SOL     OW84635   3.324   7.887  11.372
60913SOL    HW184636   3.294   7.904  11.283
60913SOL    HW284637   3.417   7.909  11.371
60914SOL     OW84638   4.192  14.581   6.048
60914SOL    HW184639   4.168  14.670   6.072
60914SOL    HW284640   4.211  14.538   6.131
60915SOL     OW84641   6.436  10.679   0.736
60915SOL    HW184642   6.504  10.716   0.793
60915SOL    HW284643   6.356  10.682   0.788
60916SOL     OW84644   6.077   4.969   5.828
60916SOL    HW184645   6.172   4.958   5.830
60916SOL    HW284646   6.044   4.896   5.880
60917SOL     OW84647   5.537  14.629  13.324
60917SOL    HW184648   5.586  14.636  13.406
60917SOL    HW284649   5.604  14.607  13.259
60918SOL     OW84650   1.666   5.756  11.429
60918SOL    HW184651   1.582   5.711  11.422
60918SOL    HW284652   1.647   5.847  11.407
60919SOL     OW84653  11.327   7.918  11.527
60919SOL    HW184654  11.347   7.980  11.456
60919SOL    HW284655  11.394   7.850  11.517
60920SOL     OW84656   3.979   6.770  10.741
60920SOL    HW184657   3.904   6.808  10.786
60920SOL    HW284658   4.004   6.837  10.676
60921SOL     OW84659  10.426   7.392   1.726
60921SOL    HW184660  10.436   7.475   1.772
60921SOL    HW284661  10.359   7.345   1.775
60922SOL     OW84662   3.142  10.406   6.243
60922SOL    HW184663   3.115  10.479   6.300
60922SOL    HW284664   3.224  10.436   6.204
60923SOL     OW84665   2.369   3.317   2.235
60923SOL    HW184666   2.304   3.385   2.219
60923SOL    HW284667   2.431   3.358   2.297
60924SOL     OW84668   3.117   6.452   1.044
60924SOL    HW184669   3.066   6.434   1.123
60924SOL    HW284670   3.195   6.497   1.076
60925SOL     OW84671   9.985   6.554   9.433
60925SOL    HW184672  10.074   6.525   9.451
60925SOL    HW284673   9.929   6.486   9.470
60926SOL     OW84674  10.128   9.688  14.518
60926SOL    HW184675  10.040   9.667  14.488
60926SOL    HW284676  10.186   9.631  14.468
60927SOL     OW84677   9.258   8.876   7.662
60927SOL    HW184678   9.180   8.888   7.609
60927SOL    HW284679   9.233   8.906   7.750
60928SOL     OW84680   2.227  10.992  12.311
60928SOL    HW184681   2.309  10.947  12.287
60928SOL    HW284682   2.200  11.037  12.231
60929SOL     OW84683   9.939  11.945   1.899
60929SOL    HW184684  10.012  11.937   1.961
60929SOL    HW284685   9.979  11.982   1.820
60930SOL     OW84686   7.409   6.779   3.716
60930SOL    HW184687   7.438   6.866   3.744
60930SOL    HW284688   7.398   6.787   3.621
60931SOL     OW84689   5.219   6.785   0.814
60931SOL    HW184690   5.296   6.751   0.767
60931SOL    HW284691   5.247   6.789   0.905
60932SOL     OW84692   9.085   9.017   6.386
60932SOL    HW184693   9.169   8.984   6.354
60932SOL    HW284694   9.028   9.015   6.309
60933SOL     OW84695   5.680   2.441   8.640
60933SOL    HW184696   5.744   2.511   8.624
60933SOL    HW284697   5.731   2.369   8.675
60934SOL     OW84698   0.074   7.399  10.625
60934SOL    HW184699   0.016   7.375  10.698
60934SOL    HW284700   0.148   7.338  10.633
60935SOL     OW84701   2.440  11.510   6.523
60935SOL    HW184702   2.471  11.506   6.433
60935SOL    HW284703   2.345  11.495   6.517
60936SOL     OW84704  13.658  11.312   7.522
60936SOL    HW184705  13.717  11.311   7.447
60936SOL    HW284706  13.572  11.293   7.485
60937SOL     OW84707   3.870  11.102   0.967
60937SOL    HW184708   3.951  11.061   0.936
60937SOL    HW284709   3.825  11.033   1.016
60938SOL     OW84710   9.211  12.100   0.159
60938SOL    HW184711   9.221  12.169   0.093
60938SOL    HW284712   9.201  12.148   0.242
60939SOL     OW84713   3.964  10.309  10.382
60939SOL    HW184714   3.922  10.379  10.332
60939SOL    HW284715   4.009  10.256  10.315
60940SOL     OW84716  12.289  12.555   5.337
60940SOL    HW184717  12.296  12.647   5.311
60940SOL    HW284718  12.271  12.508   5.256
60941SOL     OW84719  10.535   6.981   9.580
60941SOL    HW184720  10.444   6.985   9.610
60941SOL    HW284721  10.533   6.918   9.508
60942SOL     OW84722  10.123   0.884   1.307
60942SOL    HW184723  10.191   0.938   1.268
60942SOL    HW284724  10.063   0.866   1.235
60943SOL     OW84725   1.324   6.073  12.940
60943SOL    HW184726   1.339   6.087  13.033
60943SOL    HW284727   1.252   6.011  12.936
60944SOL     OW84728   9.486  10.121   7.662
60944SOL    HW184729   9.440  10.122   7.578
60944SOL    HW284730   9.546  10.195   7.657
60945SOL     OW84731   5.909  10.012  13.264
60945SOL    HW184732   5.862  10.076  13.212
60945SOL    HW284733   5.975  10.063  13.312
60946SOL     OW84734  14.771  11.085   8.118
60946SOL    HW184735  14.817  11.165   8.092
60946SOL    HW284736  14.687  11.089   8.072
60947SOL     OW84737   8.085   3.084   7.775
60947SOL    HW184738   8.172   3.124   7.762
60947SOL    HW284739   8.100   3.015   7.839
60948SOL     OW84740   3.882  12.652  13.950
60948SOL    HW184741   3.822  12.658  13.875
60948SOL    HW284742   3.913  12.742  13.962
60949SOL     OW84743   2.041  13.706   3.806
60949SOL    HW184744   2.020  13.613   3.812
60949SOL    HW284745   2.092  13.724   3.885
60950SOL     OW84746   7.033   5.949  12.980
60950SOL    HW184747   7.067   5.862  12.999
60950SOL    HW284748   7.110   6.005  12.980
60951SOL     OW84749  14.034   8.239   2.932
60951SOL    HW184750  14.028   8.256   3.026
60951SOL    HW284751  14.119   8.196   2.921
60952SOL     OW84752   4.542   8.660  14.825
60952SOL    HW184753   4.493   8.581  14.802
60952SOL    HW284754   4.632   8.641  14.799
60953SOL     OW84755   6.363   4.437  10.879
60953SOL    HW184756   6.372   4.428  10.974
60953SOL    HW284757   6.316   4.520  10.867
60954SOL     OW84758  14.186   5.679  10.936
60954SOL    HW184759  14.152   5.625  10.865
60954SOL    HW284760  14.109   5.698  10.990
60955SOL     OW84761  14.158   7.930   8.151
60955SOL    HW184762  14.092   7.959   8.088
60955SOL    HW284763  14.206   8.009   8.174
60956SOL     OW84764   2.861  11.784   4.454
60956SOL    HW184765   2.858  11.812   4.363
60956SOL    HW284766   2.891  11.861   4.502
60957SOL     OW84767   0.682   0.251   5.175
60957SOL    HW184768   0.678   0.156   5.186
60957SOL    HW284769   0.692   0.263   5.080
60958SOL     OW84770   1.814  10.978   6.466
60958SOL    HW184771   1.794  11.057   6.517
60958SOL    HW284772   1.873  11.008   6.397
60959SOL     OW84773   9.470   3.916  14.777
60959SOL    HW184774   9.379   3.894  14.758
60959SOL    HW284775   9.500   3.963  14.699
60960SOL     OW84776   8.636   1.164   2.288
60960SOL    HW184777   8.549   1.137   2.258
60960SOL    HW284778   8.628   1.258   2.304
60961SOL     OW84779   5.432  10.920   2.649
60961SOL    HW184780   5.390  10.972   2.580
60961SOL    HW284781   5.442  10.833   2.610
60962SOL     OW84782   1.928  12.908   3.094
60962SOL    HW184783   1.864  12.979   3.090
60962SOL    HW284784   1.973  12.921   3.178
60963SOL     OW84785   5.579  11.831  13.544
60963SOL    HW184786   5.570  11.802  13.634
60963SOL    HW284787   5.614  11.755  13.497
60964SOL     OW84788   6.472   8.471   1.538
60964SOL    HW184789   6.550   8.522   1.558
60964SOL    HW284790   6.399   8.523   1.571
60965SOL     OW84791  10.369  13.922   6.547
60965SOL    HW184792  10.333  13.998   6.591
60965SOL    HW284793  10.341  13.847   6.600
60966SOL     OW84794   2.981   3.601   2.833
60966SOL    HW184795   2.901   3.644   2.866
60966SOL    HW284796   3.006   3.654   2.758
60967SOL     OW84797   4.398   5.032  11.276
60967SOL    HW184798   4.304   5.036  11.292
60967SOL    HW284799   4.413   5.093  11.204
60968SOL     OW84800   2.142   5.413   8.731
60968SOL    HW184801   2.118   5.330   8.772
60968SOL    HW284802   2.237   5.406   8.716
60969SOL     OW84803   1.578   7.846   9.618
60969SOL    HW184804   1.663   7.823   9.656
60969SOL    HW284805   1.548   7.921   9.668
60970SOL     OW84806   0.661   1.973   4.221
60970SOL    HW184807   0.637   1.881   4.220
60970SOL    HW284808   0.746   1.975   4.265
60971SOL     OW84809  14.171  11.124   4.078
60971SOL    HW184810  14.230  11.077   4.137
60971SOL    HW284811  14.151  11.206   4.124
60972SOL     OW84812   4.044  10.214   3.196
60972SOL    HW184813   4.101  10.287   3.221
60972SOL    HW284814   3.996  10.247   3.120
60973SOL     OW84815  11.901   1.557   7.799
60973SOL    HW184816  11.962   1.484   7.790
60973SOL    HW284817  11.867   1.571   7.711
60974SOL     OW84818   2.756   3.739   2.932
60974SOL    HW184819   2.694   3.784   2.875
60974SOL    HW284820   2.701   3.698   2.999
60975SOL     OW84821   1.023  12.490   9.297
60975SOL    HW184822   1.079  12.413   9.308
60975SOL    HW284823   1.054  12.552   9.363
60976SOL     OW84824  10.860  11.477   6.373
60976SOL    HW184825  10.917  11.403   6.351
60976SOL    HW284826  10.788  11.471   6.310
60977SOL     OW84827   3.325   9.501  14.626
60977SOL    HW184828   3.258   9.529  14.564
60977SOL    HW284829   3.402   9.554  14.603
60978SOL     OW84830   1.008  13.023   0.188
60978SOL    HW184831   1.086  13.021   0.243
60978SOL    HW284832   1.032  13.080   0.115
60979SOL     OW84833  14.775   1.430   6.071
60979SOL    HW184834  14.701   1.412   6.013
60979SOL    HW284835  14.812   1.512   6.038
60980SOL     OW84836  13.241   9.275  13.913
60980SOL    HW184837  13.169   9.213  13.902
60980SOL    HW284838  13.200   9.350  13.958
60981SOL     OW84839   5.417   4.928  11.212
60981SOL    HW184840   5.364   4.951  11.288
60981SOL    HW284841   5.365   4.864  11.165
60982SOL     OW84842   9.932   9.657  13.579
60982SOL    HW184843   9.868   9.725  13.596
60982SOL    HW284844   9.903   9.583  13.632
60983SOL     OW84845   2.242   3.321  11.760
60983SOL    HW184846   2.158   3.364  11.744
60983SOL    HW284847   2.258   3.270  11.681
60984SOL     OW84848   8.819   7.747  11.910
60984SOL    HW184849   8.851   7.777  11.826
60984SOL    HW284850   8.895   7.749  11.968
60985SOL     OW84851   0.681  10.255  12.118
60985SOL    HW184852   0.744  10.305  12.171
60985SOL    HW284853   0.729  10.176  12.093
60986SOL     OW84854   8.417  12.594  12.154
60986SOL    HW184855   8.488  12.632  12.206
60986SOL    HW284856   8.428  12.632  12.067
60987SOL     OW84857   7.331  14.641  13.285
60987SOL    HW184858   7.319  14.649  13.380
60987SOL    HW284859   7.395  14.709  13.263
60988SOL     OW84860   8.233   2.502   2.944
60988SOL    HW184861   8.248   2.408   2.939
60988SOL    HW284862   8.300   2.540   2.886
60989SOL     OW84863   9.576   1.280  10.747
60989SOL    HW184864   9.637   1.234  10.690
60989SOL    HW284865   9.489   1.249  10.719
60990SOL     OW84866  12.573  13.448  10.929
60990SOL    HW184867  12.593  13.539  10.908
60990SOL    HW284868  12.605  13.437  11.019
60991SOL     OW84869   2.407   5.452  12.253
60991SOL    HW184870   2.387   5.361  12.277
60991SOL    HW284871   2.474   5.480  12.315
60992SOL     OW84872   3.320   7.785   5.108
60992SOL    HW184873   3.376   7.774   5.032
60992SOL    HW284874   3.368   7.846   5.165
60993SOL     OW84875  12.862  12.767   5.210
60993SOL    HW184876  12.788  12.780   5.270
60993SOL    HW284877  12.923  12.713   5.260
60994SOL     OW84878   5.808  11.102   2.882
60994SOL    HW184879   5.883  11.145   2.840
60994SOL    HW284880   5.732  11.139   2.837
60995SOL     OW84881  11.284   4.087  10.796
60995SOL    HW184882  11.340   4.144  10.849
60995SOL    HW284883  11.326   4.086  10.710
60996SOL     OW84884  14.802   9.045   8.120
60996SOL    HW184885  14.794   9.140   8.113
60996SOL    HW284886   0.014   9.026   8.085
60997SOL     OW84887  12.964   4.782  12.106
60997SOL    HW184888  12.892   4.844  12.092
60997SOL    HW284889  12.989   4.754  12.018
60998SOL     OW84890   0.922   1.953   0.859
60998SOL    HW184891   0.885   1.953   0.771
60998SOL    HW284892   0.937   1.860   0.879
60999SOL     OW84893   5.944  10.883  12.922
60999SOL    HW184894   5.933  10.817  12.853
60999SOL    HW284895   6.032  10.867  12.955
61000SOL     OW84896   0.201  11.670   8.582
61000SOL    HW184897   0.296  11.658   8.591
61000SOL    HW284898   0.190  11.765   8.579
61001SOL     OW84899   1.529  11.496   5.128
61001SOL    HW184900   1.552  11.566   5.067
61001SOL    HW284901   1.566  11.417   5.089
61002SOL     OW84902   4.506   4.013   2.533
61002SOL    HW184903   4.602   4.013   2.529
61002SOL    HW284904   4.478   4.010   2.442
61003SOL     OW84905   5.457   4.971   8.040
61003SOL    HW184906   5.489   4.881   8.040
61003SOL    HW284907   5.507   5.015   7.971
61004SOL     OW84908  11.259  12.520  14.365
61004SOL    HW184909  11.198  12.447  14.378
61004SOL    HW284910  11.203  12.596  14.351
61005SOL     OW84911  11.426   8.156  12.497
61005SOL    HW184912  11.409   8.065  12.523
61005SOL    HW284913  11.480   8.148  12.418
61006SOL     OW84914  11.521  10.439   1.188
61006SOL    HW184915  11.520  10.524   1.145
61006SOL    HW284916  11.541  10.377   1.118
61007SOL     OW84917   6.845  13.311  11.201
61007SOL    HW184918   6.849  13.300  11.296
61007SOL    HW284919   6.756  13.288  11.177
61008SOL     OW84920  13.587   7.294   5.632
61008SOL    HW184921  13.533   7.306   5.554
61008SOL    HW284922  13.643   7.219   5.610
61009SOL     OW84923   2.118   0.305   0.827
61009SOL    HW184924   2.180   0.372   0.796
61009SOL    HW284925   2.032   0.340   0.804
61010SOL     OW84926  13.937   7.986   6.563
61010SOL    HW184927  13.927   8.058   6.500
61010SOL    HW284928  13.962   7.911   6.510
61011SOL     OW84929  10.052   2.457  12.267
61011SOL    HW184930  10.054   2.466  12.172
61011SOL    HW284931  10.116   2.388  12.286
61012SOL     OW84932   5.265   7.529   8.789
61012SOL    HW184933   5.247   7.561   8.877
61012SOL    HW284934   5.183   7.488   8.761
61013SOL     OW84935   9.103  10.215   9.260
61013SOL    HW184936   9.073  10.291   9.309
61013SOL    HW284937   9.195  10.234   9.240
61014SOL     OW84938   3.990   0.134   6.630
61014SOL    HW184939   3.900   0.165   6.631
61014SOL    HW284940   4.028   0.174   6.552
61015SOL     OW84941   8.666  14.149   3.028
61015SOL    HW184942   8.735  14.102   3.073
61015SOL    HW284943   8.592  14.088   3.026
61016SOL     OW84944   9.338   7.280   6.761
61016SOL    HW184945   9.365   7.315   6.676
61016SOL    HW284946   9.272   7.214   6.739
61017SOL     OW84947  13.039   0.005   2.783
61017SOL    HW184948  13.118  14.852   2.737
61017SOL    HW284949  12.989   0.054   2.717
61018SOL     OW84950   0.869  14.092   4.781
61018SOL    HW184951   0.828  14.178   4.787
61018SOL    HW284952   0.838  14.056   4.697
61019SOL     OW84953   6.036   8.605   5.060
61019SOL    HW184954   5.969   8.564   5.006
61019SOL    HW284955   6.115   8.552   5.045
61020SOL     OW84956   0.741   2.348  10.128
61020SOL    HW184957   0.659   2.377  10.169
61020SOL    HW284958   0.752   2.408  10.053
61021SOL     OW84959   5.484   5.236  11.500
61021SOL    HW184960   5.510   5.144  11.506
61021SOL    HW284961   5.511   5.273  11.584
61022SOL     OW84962   9.187  12.570   5.197
61022SOL    HW184963   9.208  12.488   5.153
61022SOL    HW284964   9.256  12.630   5.169
61023SOL     OW84965   4.083   4.409   6.792
61023SOL    HW184966   4.175   4.413   6.766
61023SOL    HW284967   4.035   4.440   6.716
61024SOL     OW84968   8.897   7.231   2.087
61024SOL    HW184969   8.950   7.265   2.015
61024SOL    HW284970   8.812   7.212   2.048
61025SOL     OW84971   0.299  14.727   9.378
61025SOL    HW184972   0.352  14.780   9.439
61025SOL    HW284973   0.272  14.652   9.431
61026SOL     OW84974  13.133   5.311  14.307
61026SOL    HW184975  13.148   5.218  14.319
61026SOL    HW284976  13.153   5.349  14.393
61027SOL     OW84977   3.176   8.870   9.660
61027SOL    HW184978   3.237   8.931   9.617
61027SOL    HW284979   3.156   8.911   9.744
61028SOL     OW84980   6.095   1.896   7.887
61028SOL    HW184981   6.175   1.946   7.905
61028SOL    HW284982   6.057   1.940   7.810
61029SOL     OW84983   0.338   2.157   2.548
61029SOL    HW184984   0.323   2.122   2.636
61029SOL    HW284985   0.267   2.120   2.495
61030SOL     OW84986   6.381   5.231  12.345
61030SOL    HW184987   6.436   5.301  12.380
61030SOL    HW284988   6.311   5.220  12.409
61031SOL     OW84989  12.773   5.217  11.758
61031SOL    HW184990  12.709   5.259  11.701
61031SOL    HW284991  12.738   5.229  11.847
61032SOL     OW84992   2.964   6.630   8.456
61032SOL    HW184993   3.009   6.659   8.377
61032SOL    HW284994   3.020   6.561   8.492
61033SOL     OW84995   5.938   7.768   9.341
61033SOL    HW184996   5.880   7.844   9.329
61033SOL    HW284997   5.966   7.745   9.253
61034SOL     OW84998   0.030   0.941   1.414
61034SOL    HW184999   0.003   1.025   1.376
61034SOL    HW285000   0.125   0.941   1.405
61035SOL     OW85001   1.859   6.967  10.140
61035SOL    HW185002   1.908   7.010  10.070
61035SOL    HW285003   1.769   6.998  10.129
61036SOL     OW85004  14.330   6.170   5.801
61036SOL    HW185005  14.336   6.246   5.860
61036SOL    HW285006  14.241   6.137   5.814
61037SOL     OW85007   9.997   8.086  13.067
61037SOL    HW185008   9.960   8.001  13.043
61037SOL    HW285009  10.059   8.066  13.138
61038SOL     OW85010   0.458   4.949  12.131
61038SOL    HW185011   0.547   4.924  12.104
61038SOL    HW285012   0.451   4.921  12.222
61039SOL     OW85013   3.349   7.080   3.544
61039SOL    HW185014   3.364   7.050   3.634
61039SOL    HW285015   3.400   7.161   3.537
61040SOL     OW85016   6.553  12.934   9.158
61040SOL    HW185017   6.624  12.875   9.185
61040SOL    HW285018   6.502  12.947   9.237
61041SOL     OW85019  11.440  13.509   3.662
61041SOL    HW185020  11.479  13.596   3.668
61041SOL    HW285021  11.346  13.525   3.651
61042SOL     OW85022   7.098   4.051  13.630
61042SOL    HW185023   7.028   3.989  13.647
61042SOL    HW285024   7.062   4.111  13.565
61043SOL     OW85025  11.425   6.380   2.041
61043SOL    HW185026  11.347   6.355   1.993
61043SOL    HW285027  11.401   6.460   2.086
61044SOL     OW85028   3.438  14.364   3.131
61044SOL    HW185029   3.458  14.457   3.134
61044SOL    HW285030   3.344  14.360   3.113
61045SOL     OW85031   9.012   4.831  10.708
61045SOL    HW185032   9.040   4.899  10.769
61045SOL    HW285033   8.918   4.844  10.700
61046SOL     OW85034   4.844  10.261   4.866
61046SOL    HW185035   4.790  10.183   4.857
61046SOL    HW285036   4.877  10.257   4.956
61047SOL     OW85037   6.854   6.641   1.430
61047SOL    HW185038   6.890   6.555   1.407
61047SOL    HW285039   6.773   6.648   1.379
61048SOL     OW85040   5.850   8.915   1.955
61048SOL    HW185041   5.936   8.883   1.980
61048SOL    HW285042   5.843   9.001   1.997
61049SOL     OW85043   9.307   4.161   9.332
61049SOL    HW185044   9.300   4.181   9.426
61049SOL    HW285045   9.400   4.173   9.312
61050SOL     OW85046  13.805  10.266  13.551
61050SOL    HW185047  13.792  10.323  13.475
61050SOL    HW285048  13.805  10.178  13.514
61051SOL     OW85049   0.341  10.588  10.600
61051SOL    HW185050   0.338  10.540  10.517
61051SOL    HW285051   0.369  10.523  10.664
61052SOL     OW85052   5.576   0.147  13.569
61052SOL    HW185053   5.603   0.113  13.655
61052SOL    HW285054   5.640   0.216  13.550
61053SOL     OW85055  11.249   6.761   8.293
61053SOL    HW185056  11.176   6.802   8.339
61053SOL    HW285057  11.311   6.738   8.362
61054SOL     OW85058   9.227   9.502  11.604
61054SOL    HW185059   9.269   9.442  11.543
61054SOL    HW285060   9.134   9.490  11.590
61055SOL     OW85061   4.248   3.924  14.135
61055SOL    HW185062   4.247   3.968  14.049
61055SOL    HW285063   4.341   3.905  14.150
61056SOL     OW85064   4.430   3.594   0.313
61056SOL    HW185065   4.364   3.544   0.265
61056SOL    HW285066   4.514   3.556   0.284
61057SOL     OW85067   0.403   0.681   7.699
61057SOL    HW185068   0.331   0.621   7.681
61057SOL    HW285069   0.369   0.767   7.676
61058SOL     OW85070   9.631   5.244  12.663
61058SOL    HW185071   9.543   5.271  12.638
61058SOL    HW285072   9.685   5.261  12.585
61059SOL     OW85073  10.861   5.068  11.842
61059SOL    HW185074  10.920   5.143  11.838
61059SOL    HW285075  10.774   5.106  11.830
61060SOL     OW85076  11.725   2.284  13.124
61060SOL    HW185077  11.754   2.223  13.056
61060SOL    HW285078  11.772   2.365  13.105
61061SOL     OW85079  13.555   7.207   1.121
61061SOL    HW185080  13.621   7.276   1.118
61061SOL    HW285081  13.527   7.205   1.212
61062SOL     OW85082   8.703   1.458   5.783
61062SOL    HW185083   8.735   1.548   5.797
61062SOL    HW285084   8.608   1.467   5.781
61063SOL     OW85085   4.800   5.962   4.386
61063SOL    HW185086   4.817   5.964   4.481
61063SOL    HW285087   4.714   5.922   4.378
61064SOL     OW85088  14.148  12.144   6.351
61064SOL    HW185089  14.194  12.061   6.365
61064SOL    HW285090  14.172  12.198   6.425
61065SOL     OW85091  13.789   8.445   9.365
61065SOL    HW185092  13.820   8.369   9.414
61065SOL    HW285093  13.795   8.418   9.273
61066SOL     OW85094  13.814   5.978   0.590
61066SOL    HW185095  13.728   5.953   0.625
61066SOL    HW285096  13.852   6.034   0.658
61067SOL     OW85097   2.424   7.475   8.311
61067SOL    HW185098   2.400   7.446   8.222
61067SOL    HW285099   2.426   7.394   8.362
61068SOL     OW85100   7.548  14.643   1.674
61068SOL    HW185101   7.623  14.584   1.684
61068SOL    HW285102   7.584  14.730   1.693
61069SOL     OW85103  10.172   5.336  10.436
61069SOL    HW185104  10.184   5.430  10.450
61069SOL    HW285105  10.239   5.312  10.372
61070SOL     OW85106   6.403   3.165  14.156
61070SOL    HW185107   6.460   3.159  14.079
61070SOL    HW285108   6.442   3.233  14.210
61071SOL     OW85109   6.057  11.512  13.078
61071SOL    HW185110   6.066  11.421  13.048
61071SOL    HW285111   5.970  11.516  13.117
61072SOL     OW85112   0.254   8.880  12.553
61072SOL    HW185113   0.218   8.872  12.641
61072SOL    HW285114   0.264   8.974  12.539
61073SOL     OW85115   9.067   6.625   4.247
61073SOL    HW185116   9.121   6.553   4.278
61073SOL    HW285117   9.055   6.681   4.324
61074SOL     OW85118   1.407  14.165   9.818
61074SOL    HW185119   1.458  14.246   9.807
61074SOL    HW285120   1.447  14.103   9.758
61075SOL     OW85121  12.868   6.695   6.176
61075SOL    HW185122  12.836   6.710   6.087
61075SOL    HW285123  12.835   6.770   6.226
61076SOL     OW85124   9.402   9.806   3.511
61076SOL    HW185125   9.472   9.823   3.448
61076SOL    HW285126   9.359   9.727   3.478
61077SOL     OW85127   8.831  11.021  10.984
61077SOL    HW185128   8.828  11.059  11.072
61077SOL    HW285129   8.902  10.957  10.989
61078SOL     OW85130  10.855   7.571   1.559
61078SOL    HW185131  10.859   7.603   1.469
61078SOL    HW285132  10.801   7.635   1.605
61079SOL     OW85133   7.375  12.062  10.902
61079SOL    HW185134   7.365  11.967  10.893
61079SOL    HW285135   7.469  12.077  10.888
61080SOL     OW85136  13.553   1.280   9.847
61080SOL    HW185137  13.494   1.340   9.892
61080SOL    HW285138  13.640   1.300   9.882
61081SOL     OW85139  10.473  12.071  12.213
61081SOL    HW185140  10.437  11.986  12.238
61081SOL    HW285141  10.556  12.077  12.259
61082SOL     OW85142  13.699   1.141   7.577
61082SOL    HW185143  13.738   1.159   7.492
61082SOL    HW285144  13.731   1.054   7.601
61083SOL     OW85145   1.934   8.823  13.758
61083SOL    HW185146   2.008   8.777  13.718
61083SOL    HW285147   1.947   8.915  13.734
61084SOL     OW85148   9.383   1.933   0.594
61084SOL    HW185149   9.371   1.845   0.558
61084SOL    HW285150   9.295   1.959   0.623
61085SOL     OW85151  14.443  10.310   4.427
61085SOL    HW185152  14.495  10.237   4.392
61085SOL    HW285153  14.498  10.348   4.496
61086SOL     OW85154  12.952   4.016   7.055
61086SOL    HW185155  13.013   3.963   7.003
61086SOL    HW285156  12.995   4.102   7.062
61087SOL     OW85157   4.682   8.323  10.697
61087SOL    HW185158   4.704   8.312  10.789
61087SOL    HW285159   4.601   8.273  10.685
61088SOL     OW85160   5.164  13.683   8.553
61088SOL    HW185161   5.154  13.764   8.603
61088SOL    HW285162   5.176  13.712   8.463
61089SOL     OW85163   7.868   7.383   8.854
61089SOL    HW185164   7.900   7.458   8.803
61089SOL    HW285165   7.781   7.366   8.817
61090SOL     OW85166   5.511   3.284   4.971
61090SOL    HW185167   5.472   3.369   4.990
61090SOL    HW285168   5.534   3.288   4.879
61091SOL     OW85169  10.994   2.593  11.681
61091SOL    HW185170  11.018   2.682  11.705
61091SOL    HW285171  10.898   2.592  11.685
61092SOL     OW85172   7.882  13.497   6.222
61092SOL    HW185173   7.861  13.544   6.141
61092SOL    HW285174   7.826  13.420   6.220
61093SOL     OW85175  13.434   3.434   1.406
61093SOL    HW185176  13.373   3.423   1.479
61093SOL    HW285177  13.490   3.508   1.432
61094SOL     OW85178   1.351   2.667   1.896
61094SOL    HW185179   1.367   2.743   1.951
61094SOL    HW285180   1.322   2.599   1.956
61095SOL     OW85181   7.765   5.962   8.431
61095SOL    HW185182   7.801   5.932   8.348
61095SOL    HW285183   7.841   5.976   8.487
61096SOL     OW85184   6.259   2.615  12.680
61096SOL    HW185185   6.242   2.704  12.652
61096SOL    HW285186   6.327   2.623  12.746
61097SOL     OW85187   7.159  14.126   3.414
61097SOL    HW185188   7.111  14.136   3.496
61097SOL    HW285189   7.232  14.188   3.422
61098SOL     OW85190   0.909   0.925   2.892
61098SOL    HW185191   0.870   1.004   2.930
61098SOL    HW285192   0.844   0.857   2.904
61099SOL     OW85193   3.467   0.745   1.661
61099SOL    HW185194   3.380   0.713   1.684
61099SOL    HW285195   3.518   0.666   1.642
61100SOL     OW85196  11.138   9.789   7.635
61100SOL    HW185197  11.232   9.792   7.621
61100SOL    HW285198  11.101   9.773   7.548
61101SOL     OW85199   8.854  10.752  14.485
61101SOL    HW185200   8.817  10.704  14.411
61101SOL    HW285201   8.936  10.705  14.505
61102SOL     OW85202   6.064  12.941   5.839
61102SOL    HW185203   5.973  12.923   5.862
61102SOL    HW285204   6.072  13.036   5.846
61103SOL     OW85205   7.215   1.829   3.722
61103SOL    HW185206   7.277   1.867   3.660
61103SOL    HW285207   7.251   1.851   3.808
61104SOL     OW85208   3.974   2.629   7.387
61104SOL    HW185209   3.907   2.638   7.319
61104SOL    HW285210   4.053   2.602   7.340
61105SOL     OW85211   4.634  12.518   4.866
61105SOL    HW185212   4.678  12.516   4.781
61105SOL    HW285213   4.545  12.546   4.846
61106SOL     OW85214   0.929  12.647  13.872
61106SOL    HW185215   0.839  12.614  13.867
61106SOL    HW285216   0.983  12.572  13.846
61107SOL     OW85217   5.633   3.633  11.527
61107SOL    HW185218   5.656   3.658  11.438
61107SOL    HW285219   5.652   3.711  11.579
61108SOL     OW85220   5.090  12.931   5.379
61108SOL    HW185221   5.040  12.867   5.328
61108SOL    HW285222   5.119  12.995   5.314
61109SOL     OW85223   7.372  11.496  12.301
61109SOL    HW185224   7.355  11.578  12.256
61109SOL    HW285225   7.461  11.473  12.275
61110SOL     OW85226   4.381   7.407  13.670
61110SOL    HW185227   4.379   7.334  13.608
61110SOL    HW285228   4.451   7.464  13.638
61111SOL     OW85229   0.337   9.579   4.932
61111SOL    HW185230   0.419   9.537   4.906
61111SOL    HW285231   0.281   9.506   4.961
61112SOL     OW85232   2.118  11.308   7.892
61112SOL    HW185233   2.097  11.313   7.985
61112SOL    HW285234   2.100  11.395   7.858
61113SOL     OW85235   6.846   7.920   3.658
61113SOL    HW185236   6.880   7.955   3.575
61113SOL    HW285237   6.778   7.982   3.684
61114SOL     OW85238   5.422  10.458   1.172
61114SOL    HW185239   5.361  10.439   1.244
61114SOL    HW285240   5.452  10.372   1.143
61115SOL     OW85241   3.917  11.003   6.802
61115SOL    HW185242   4.004  11.043   6.804
61115SOL    HW285243   3.868  11.049   6.870
61116SOL     OW85244   8.565   4.768  14.569
61116SOL    HW185245   8.588   4.819  14.646
61116SOL    HW285246   8.610   4.685  14.580
61117SOL     OW85247   7.111   0.625  14.552
61117SOL    HW185248   7.027   0.580  14.566
61117SOL    HW285249   7.169   0.588  14.619
61118SOL     OW85250  14.187   1.224   5.649
61118SOL    HW185251  14.182   1.192   5.559
61118SOL    HW285252  14.138   1.160   5.700
61119SOL     OW85253   0.283   0.721   6.503
61119SOL    HW185254   0.293   0.631   6.471
61119SOL    HW285255   0.360   0.735   6.558
61120SOL     OW85256   1.161   2.269   1.799
61120SOL    HW185257   1.222   2.227   1.860
61120SOL    HW285258   1.118   2.337   1.851
61121SOL     OW85259  12.890   0.931  13.713
61121SOL    HW185260  12.832   0.989  13.664
61121SOL    HW285261  12.860   0.842  13.691
61122SOL     OW85262  12.914   6.969   3.812
61122SOL    HW185263  12.839   7.024   3.833
61122SOL    HW285264  12.947   6.940   3.897
61123SOL     OW85265   1.757   5.909   6.004
61123SOL    HW185266   1.782   5.838   5.944
61123SOL    HW285267   1.667   5.889   6.029
61124SOL     OW85268   5.845  10.601   8.107
61124SOL    HW185269   5.815  10.684   8.144
61124SOL    HW285270   5.941  10.609   8.106
61125SOL     OW85271  12.805   7.050   8.155
61125SOL    HW185272  12.881   7.089   8.200
61125SOL    HW285273  12.770   6.987   8.219
61126SOL     OW85274   8.071   3.451   7.179
61126SOL    HW185275   8.007   3.522   7.184
61126SOL    HW285276   8.135   3.480   7.114
61127SOL     OW85277  10.503   3.515   3.998
61127SOL    HW185278  10.511   3.546   3.908
61127SOL    HW285279  10.574   3.451   4.008
61128SOL     OW85280   5.956   1.762   4.452
61128SOL    HW185281   5.863   1.759   4.475
61128SOL    HW285282   6.000   1.796   4.530
61129SOL     OW85283   9.109   9.777   5.161
61129SOL    HW185284   9.159   9.697   5.144
61129SOL    HW285285   9.079   9.805   5.074
61130SOL     OW85286   1.365  10.227  10.385
61130SOL    HW185287   1.328  10.155  10.334
61130SOL    HW285288   1.308  10.302  10.365
61131SOL     OW85289  13.464   1.953  13.418
61131SOL    HW185290  13.394   1.976  13.358
61131SOL    HW285291  13.536   2.011  13.394
61132SOL     OW85292   6.560   2.246  13.497
61132SOL    HW185293   6.587   2.247  13.405
61132SOL    HW285294   6.573   2.336  13.526
61133SOL     OW85295   2.192   9.591   1.243
61133SOL    HW185296   2.109   9.630   1.271
61133SOL    HW285297   2.193   9.600   1.148
61134SOL     OW85298   9.318   8.084  10.990
61134SOL    HW185299   9.288   8.041  10.910
61134SOL    HW285300   9.368   8.016  11.036
61135SOL     OW85301  11.593   1.720   6.933
61135SOL    HW185302  11.520   1.733   6.873
61135SOL    HW285303  11.567   1.765   7.013
61136SOL     OW85304   6.035   2.984   4.960
61136SOL    HW185305   6.089   3.019   5.031
61136SOL    HW285306   5.984   3.059   4.930
61137SOL     OW85307  13.874   4.793   8.877
61137SOL    HW185308  13.936   4.854   8.838
61137SOL    HW285309  13.880   4.714   8.823
61138SOL     OW85310   7.028   7.967   7.195
61138SOL    HW185311   7.110   7.969   7.243
61138SOL    HW285312   6.969   7.914   7.248
61139SOL     OW85313   4.660  13.058   6.548
61139SOL    HW185314   4.665  13.105   6.464
61139SOL    HW285315   4.745  13.016   6.558
61140SOL     OW85316   4.258   7.625   3.808
61140SOL    HW185317   4.190   7.558   3.800
61140SOL    HW285318   4.264   7.663   3.720
61141SOL     OW85319  10.276   1.244   9.570
61141SOL    HW185320  10.347   1.236   9.634
61141SOL    HW285321  10.289   1.170   9.511
61142SOL     OW85322  11.120  12.647   5.680
61142SOL    HW185323  11.205  12.609   5.657
61142SOL    HW285324  11.141  12.732   5.719
61143SOL     OW85325  10.359   5.103   0.322
61143SOL    HW185326  10.406   5.186   0.307
61143SOL    HW285327  10.350   5.097   0.417
61144SOL     OW85328   8.805   0.439  11.935
61144SOL    HW185329   8.785   0.532  11.931
61144SOL    HW285330   8.835   0.417  11.847
61145SOL     OW85331   5.515  13.408  12.691
61145SOL    HW185332   5.524  13.329  12.638
61145SOL    HW285333   5.604  13.431  12.716
61146SOL     OW85334   6.974   2.997   4.697
61146SOL    HW185335   6.975   2.902   4.710
61146SOL    HW285336   6.990   3.032   4.785
61147SOL     OW85337  10.369   8.996  13.901
61147SOL    HW185338  10.402   8.996  13.991
61147SOL    HW285339  10.330   8.909  13.890
61148SOL     OW85340   1.078   8.619  11.971
61148SOL    HW185341   1.106   8.527  11.971
61148SOL    HW285342   1.118   8.656  11.893
61149SOL     OW85343  11.647  14.756   6.250
61149SOL    HW185344  11.566  14.755   6.301
61149SOL    HW285345  11.629  14.818   6.179
61150SOL     OW85346   7.951  11.696   5.961
61150SOL    HW185347   8.000  11.771   5.928
61150SOL    HW285348   8.005  11.661   6.032
61151SOL     OW85349  10.081  14.584   9.981
61151SOL    HW185350  10.045  14.638   9.911
61151SOL    HW285351  10.153  14.535   9.940
61152SOL     OW85352   4.003  13.916   2.621
61152SOL    HW185353   4.034  13.974   2.691
61152SOL    HW285354   3.958  13.845   2.668
61153SOL     OW85355   9.984   7.348  11.782
61153SOL    HW185356  10.031   7.265  11.775
61153SOL    HW285357  10.027   7.394  11.854
61154SOL     OW85358  10.037   3.490   4.998
61154SOL    HW185359   9.987   3.541   5.061
61154SOL    HW285360   9.971   3.457   4.937
61155SOL     OW85361   4.782   2.256  11.362
61155SOL    HW185362   4.859   2.289  11.317
61155SOL    HW285363   4.800   2.271  11.455
61156SOL     OW85364  14.393   5.560   8.748
61156SOL    HW185365  14.429   5.531   8.832
61156SOL    HW285366  14.312   5.605   8.771
61157SOL     OW85367  11.824   7.450   3.142
61157SOL    HW185368  11.851   7.425   3.054
61157SOL    HW285369  11.895   7.506   3.174
61158SOL     OW85370  10.625   4.305   6.758
61158SOL    HW185371  10.624   4.386   6.808
61158SOL    HW285372  10.542   4.262   6.780
61159SOL     OW85373   0.428   8.691   6.028
61159SOL    HW185374   0.480   8.644   6.093
61159SOL    HW285375   0.381   8.757   6.078
61160SOL     OW85376   1.492   3.063  10.283
61160SOL    HW185377   1.503   3.129  10.215
61160SOL    HW285378   1.566   3.077  10.342
61161SOL     OW85379   6.806   7.847   8.997
61161SOL    HW185380   6.758   7.793   8.934
61161SOL    HW285381   6.738   7.898   9.041
61162SOL     OW85382  10.608  10.889   2.660
61162SOL    HW185383  10.652  10.941   2.593
61162SOL    HW285384  10.625  10.799   2.635
61163SOL     OW85385  13.428   4.727   3.444
61163SOL    HW185386  13.445   4.652   3.388
61163SOL    HW285387  13.333   4.731   3.452
61164SOL     OW85388   9.377   6.411   4.759
61164SOL    HW185389   9.326   6.482   4.797
61164SOL    HW285390   9.464   6.420   4.798
61165SOL     OW85391  14.535  11.225  14.658
61165SOL    HW185392  14.596  11.151  14.657
61165SOL    HW285393  14.521  11.246  14.566
61166SOL     OW85394  12.712   5.266  14.030
61166SOL    HW185395  12.756   5.277  13.945
61166SOL    HW285396  12.619   5.281  14.011
61167SOL     OW85397   1.447  12.868  14.377
61167SOL    HW185398   1.537  12.855  14.406
61167SOL    HW285399   1.396  12.805  14.428
61168SOL     OW85400   8.034   0.353  12.468
61168SOL    HW185401   8.094   0.411  12.515
61168SOL    HW285402   7.995   0.299  12.537
61169SOL     OW85403   7.765   9.473   4.081
61169SOL    HW185404   7.759   9.510   3.993
61169SOL    HW285405   7.766   9.379   4.067
61170SOL     OW85406   4.709  13.552   9.905
61170SOL    HW185407   4.649  13.626   9.891
61170SOL    HW285408   4.651  13.477   9.919
61171SOL     OW85409   7.542   0.534   5.945
61171SOL    HW185410   7.584   0.450   5.963
61171SOL    HW285411   7.539   0.539   5.849
61172SOL     OW85412   6.291  12.497  13.204
61172SOL    HW185413   6.199  12.517  13.185
61172SOL    HW285414   6.339  12.573  13.171
61173SOL     OW85415  13.318  10.775   7.686
61173SOL    HW185416  13.390  10.819   7.641
61173SOL    HW285417  13.292  10.705   7.625
61174SOL     OW85418   8.967   2.068   3.300
61174SOL    HW185419   8.959   2.105   3.387
61174SOL    HW285420   8.983   2.143   3.243
61175SOL     OW85421  13.771   9.127   4.316
61175SOL    HW185422  13.854   9.086   4.293
61175SOL    HW285423  13.714   9.107   4.242
61176SOL     OW85424  11.606   1.282  13.021
61176SOL    HW185425  11.672   1.213  13.011
61176SOL    HW285426  11.620   1.340  12.946
61177SOL     OW85427  12.103   9.484  14.017
61177SOL    HW185428  12.140   9.406  14.058
61177SOL    HW285429  12.011   9.463  14.002
61178SOL     OW85430   9.664   8.890   7.502
61178SOL    HW185431   9.597   8.901   7.569
61178SOL    HW285432   9.642   8.955   7.435
61179SOL     OW85433   0.754   2.598  13.006
61179SOL    HW185434   0.756   2.508  12.973
61179SOL    HW285435   0.686   2.598  13.073
61180SOL     OW85436  12.225  11.348  11.428
61180SOL    HW185437  12.173  11.422  11.460
61180SOL    HW285438  12.312  11.362  11.464
61181SOL     OW85439  11.075   2.646  12.474
61181SOL    HW185440  11.094   2.729  12.431
61181SOL    HW285441  10.980   2.646  12.486
61182SOL     OW85442  14.718   4.913  14.130
61182SOL    HW185443  14.640   4.967  14.138
61182SOL    HW285444  14.765   4.925  14.213
61183SOL     OW85445   2.460   2.237  10.125
61183SOL    HW185446   2.408   2.170  10.082
61183SOL    HW285447   2.396   2.303  10.153
61184SOL     OW85448   2.589   7.782   5.029
61184SOL    HW185449   2.584   7.832   5.111
61184SOL    HW285450   2.550   7.697   5.050
61185SOL     OW85451   3.862   3.803   1.364
61185SOL    HW185452   3.929   3.858   1.322
61185SOL    HW285453   3.885   3.804   1.457
61186SOL     OW85454   7.974  12.213  12.554
61186SOL    HW185455   8.047  12.256  12.509
61186SOL    HW285456   7.937  12.281  12.611
61187SOL     OW85457   9.711  11.483  13.787
61187SOL    HW185458   9.806  11.485  13.774
61187SOL    HW285459   9.689  11.390  13.791
61188SOL     OW85460   5.032   4.078   4.620
61188SOL    HW185461   5.096   4.007   4.614
61188SOL    HW285462   4.962   4.043   4.676
61189SOL     OW85463   7.543  10.993   3.446
61189SOL    HW185464   7.552  10.901   3.471
61189SOL    HW285465   7.606  11.005   3.375
61190SOL     OW85466   7.998   1.089   3.522
61190SOL    HW185467   8.020   1.101   3.430
61190SOL    HW285468   8.082   1.085   3.567
61191SOL     OW85469   9.381   5.324   4.656
61191SOL    HW185470   9.334   5.374   4.722
61191SOL    HW285471   9.438   5.387   4.613
61192SOL     OW85472   4.141   0.313   4.670
61192SOL    HW185473   4.048   0.334   4.674
61192SOL    HW285474   4.171   0.351   4.587
61193SOL     OW85475   1.220  10.960   1.906
61193SOL    HW185476   1.305  11.003   1.896
61193SOL    HW285477   1.242  10.869   1.927
61194SOL     OW85478  12.007   3.228   4.583
61194SOL    HW185479  11.986   3.137   4.563
61194SOL    HW285480  11.928   3.263   4.625
61195SOL     OW85481   5.168   2.603  14.296
61195SOL    HW185482   5.239   2.640  14.349
61195SOL    HW285483   5.120   2.680  14.263
61196SOL     OW85484  14.317   8.727   8.385
61196SOL    HW185485  14.288   8.693   8.470
61196SOL    HW285486  14.295   8.820   8.388
61197SOL     OW85487   0.330  13.846   5.193
61197SOL    HW185488   0.422  13.826   5.212
61197SOL    HW285489   0.333  13.930   5.147
61198SOL     OW85490  13.883  11.176   4.089
61198SOL    HW185491  13.882  11.081   4.079
61198SOL    HW285492  13.919  11.209   4.007
61199SOL     OW85493   5.955   7.158  12.852
61199SOL    HW185494   5.959   7.062  12.854
61199SOL    HW285495   6.046   7.186  12.854
61200SOL     OW85496   0.184  10.258  13.019
61200SOL    HW185497   0.194  10.349  12.989
61200SOL    HW285498   0.151  10.266  13.109
61201SOL     OW85499  10.129  13.648   3.458
61201SOL    HW185500  10.199  13.673   3.518
61201SOL    HW285501  10.048  13.669   3.506
61202SOL     OW85502   2.961  13.050   6.988
61202SOL    HW185503   2.994  13.130   6.947
61202SOL    HW285504   2.917  13.004   6.918
61203SOL     OW85505   8.859   3.287   0.292
61203SOL    HW185506   8.932   3.230   0.267
61203SOL    HW285507   8.843   3.340   0.214
61204SOL     OW85508   5.666   4.231   7.734
61204SOL    HW185509   5.633   4.169   7.669
61204SOL    HW285510   5.596   4.239   7.798
61205SOL     OW85511  12.337   7.581   0.839
61205SOL    HW185512  12.386   7.645   0.787
61205SOL    HW285513  12.342   7.614   0.929
61206SOL     OW85514  11.029   3.795   9.331
61206SOL    HW185515  10.984   3.804   9.247
61206SOL    HW285516  10.976   3.848   9.392
61207SOL     OW85517  11.108  12.224   9.212
61207SOL    HW185518  11.157  12.303   9.188
61207SOL    HW285519  11.044  12.213   9.142
61208SOL     OW85520   7.496  12.725   7.672
61208SOL    HW185521   7.568  12.681   7.626
61208SOL    HW285522   7.531  12.742   7.759
61209SOL     OW85523   8.499   2.924   2.631
61209SOL    HW185524   8.452   2.918   2.548
61209SOL    HW285525   8.591   2.930   2.606
61210SOL     OW85526   8.954   5.239   5.240
61210SOL    HW185527   8.906   5.160   5.214
61210SOL    HW285528   8.967   5.229   5.334
61211SOL     OW85529   7.002  13.165  12.985
61211SOL    HW185530   7.016  13.248  12.939
61211SOL    HW285531   7.087  13.120  12.980
61212SOL     OW85532   0.228  11.706  12.202
61212SOL    HW185533   0.210  11.654  12.280
61212SOL    HW285534   0.291  11.653  12.152
61213SOL     OW85535  13.889   1.396   3.766
61213SOL    HW185536  13.882   1.323   3.828
61213SOL    HW285537  13.831   1.370   3.693
61214SOL     OW85538   4.869   1.340   7.153
61214SOL    HW185539   4.884   1.344   7.059
61214SOL    HW285540   4.904   1.422   7.187
61215SOL     OW85541  10.879   6.913   4.011
61215SOL    HW185542  10.861   6.996   3.967
61215SOL    HW285543  10.958   6.880   3.968
61216SOL     OW85544  11.539   3.310  11.515
61216SOL    HW185545  11.526   3.405  11.518
61216SOL    HW285546  11.613   3.298  11.455
61217SOL     OW85547  13.650  11.935   3.723
61217SOL    HW185548  13.599  12.001   3.770
61217SOL    HW285549  13.602  11.922   3.641
61218SOL     OW85550   2.022  12.830   4.158
61218SOL    HW185551   1.971  12.902   4.197
61218SOL    HW285552   2.107  12.868   4.139
61219SOL     OW85553   8.930   1.029   7.181
61219SOL    HW185554   8.979   1.059   7.105
61219SOL    HW285555   8.972   1.071   7.256
61220SOL     OW85556   4.472  14.177   2.072
61220SOL    HW185557   4.421  14.124   2.132
61220SOL    HW285558   4.413  14.195   1.999
61221SOL     OW85559   0.076   0.599   3.700
61221SOL    HW185560   0.050   0.508   3.685
61221SOL    HW285561   0.132   0.595   3.778
61222SOL     OW85562   3.993  12.724   1.535
61222SOL    HW185563   4.055  12.781   1.488
61222SOL    HW285564   3.932  12.784   1.577
61223SOL     OW85565  13.598  13.146   3.648
61223SOL    HW185566  13.549  13.120   3.570
61223SOL    HW285567  13.566  13.233   3.669
61224SOL     OW85568   9.301   9.103   9.463
61224SOL    HW185569   9.213   9.103   9.426
61224SOL    HW285570   9.356   9.141   9.395
61225SOL     OW85571   7.861   4.520  14.704
61225SOL    HW185572   7.954   4.530  14.686
61225SOL    HW285573   7.820   4.594  14.659
61226SOL     OW85574   4.922   0.836   9.312
61226SOL    HW185575   4.995   0.861   9.256
61226SOL    HW285576   4.854   0.902   9.296
61227SOL     OW85577   1.116   9.312   5.329
61227SOL    HW185578   1.119   9.242   5.394
61227SOL    HW285579   1.028   9.305   5.291
61228SOL     OW85580   0.011  14.026  13.988
61228SOL    HW185581   0.067  14.024  13.910
61228SOL    HW285582   0.020  13.939  14.026
61229SOL     OW85583   0.143   7.060   7.358
61229SOL    HW185584   0.185   7.062   7.444
61229SOL    HW285585   0.075   6.993   7.366
61230SOL     OW85586  14.573   2.187  14.504
61230SOL    HW185587  14.608   2.232  14.427
61230SOL    HW285588  14.609   2.236  14.578
61231SOL     OW85589  10.181   9.806  13.599
61231SOL    HW185590  10.185   9.881  13.539
61231SOL    HW285591  10.093   9.771  13.588
61232SOL     OW85592  11.602   0.302   7.287
61232SOL    HW185593  11.552   0.329   7.210
61232SOL    HW285594  11.589   0.207   7.292
61233SOL     OW85595  12.587   1.214   3.523
61233SOL    HW185596  12.512   1.267   3.550
61233SOL    HW285597  12.552   1.125   3.515
61234SOL     OW85598   4.034  11.839   8.759
61234SOL    HW185599   4.119  11.829   8.802
61234SOL    HW285600   4.000  11.922   8.794
61235SOL     OW85601   7.983  11.722   3.294
61235SOL    HW185602   7.962  11.693   3.383
61235SOL    HW285603   7.964  11.816   3.295
61236SOL     OW85604   8.359  10.845  13.133
61236SOL    HW185605   8.402  10.914  13.081
61236SOL    HW285606   8.342  10.775  13.070
61237SOL     OW85607  11.991   9.364   3.554
61237SOL    HW185608  12.053   9.335   3.621
61237SOL    HW285609  11.982   9.458   3.568
61238SOL     OW85610   2.668   2.946   4.016
61238SOL    HW185611   2.717   2.984   3.943
61238SOL    HW285612   2.619   3.019   4.053
61239SOL     OW85613   2.982   2.224  11.183
61239SOL    HW185614   2.915   2.293  11.186
61239SOL    HW285615   3.027   2.231  11.267
61240SOL     OW85616  10.221   6.039   5.333
61240SOL    HW185617  10.205   6.010   5.423
61240SOL    HW285618  10.185   5.970   5.278
61241SOL     OW85619  12.410   5.900   2.142
61241SOL    HW185620  12.484   5.860   2.188
61241SOL    HW285621  12.333   5.857   2.179
61242SOL     OW85622  10.010  10.783   4.692
61242SOL    HW185623   9.984  10.797   4.601
61242SOL    HW285624   9.933  10.810   4.743
61243SOL     OW85625  10.882   4.224   8.275
61243SOL    HW185626  10.857   4.141   8.236
61243SOL    HW285627  10.955   4.203   8.334
61244SOL     OW85628   1.130   6.502   0.681
61244SOL    HW185629   1.043   6.515   0.643
61244SOL    HW285630   1.114   6.483   0.773
61245SOL     OW85631   0.537  14.643  13.645
61245SOL    HW185632   0.454  14.678  13.613
61245SOL    HW285633   0.522  14.548  13.649
61246SOL     OW85634   8.395   5.658   3.834
61246SOL    HW185635   8.365   5.735   3.881
61246SOL    HW285636   8.474   5.687   3.788
61247SOL     OW85637  14.522  12.730   3.296
61247SOL    HW185638  14.515  12.797   3.364
61247SOL    HW285639  14.510  12.647   3.343
61248SOL     OW85640  13.542  11.477   7.700
61248SOL    HW185641  13.501  11.475   7.614
61248SOL    HW285642  13.635  11.486   7.682
61249SOL     OW85643  13.039   0.906  13.041
61249SOL    HW185644  13.086   0.830  13.077
61249SOL    HW285645  12.984   0.936  13.114
61250SOL     OW85646   5.512   2.166  10.886
61250SOL    HW185647   5.485   2.098  10.947
61250SOL    HW285648   5.581   2.214  10.932
61251SOL     OW85649  12.149   9.862   1.017
61251SOL    HW185650  12.074   9.829   0.968
61251SOL    HW285651  12.207   9.787   1.026
61252SOL     OW85652   2.686   4.218  11.481
61252SOL    HW185653   2.725   4.204  11.395
61252SOL    HW285654   2.626   4.144  11.493
61253SOL     OW85655   9.681  10.259   5.688
61253SOL    HW185656   9.713  10.303   5.766
61253SOL    HW285657   9.692  10.166   5.706
61254SOL     OW85658   6.760  12.389  10.229
61254SOL    HW185659   6.688  12.371  10.289
61254SOL    HW285660   6.826  12.433  10.284
61255SOL     OW85661  11.525   9.733  10.001
61255SOL    HW185662  11.600   9.738   9.941
61255SOL    HW285663  11.456   9.782   9.957
61256SOL     OW85664   7.834  10.327   6.808
61256SOL    HW185665   7.841  10.422   6.793
61256SOL    HW285666   7.911  10.306   6.862
61257SOL     OW85667   0.055  12.865  11.231
61257SOL    HW185668   0.000  12.919  11.174
61257SOL    HW285669   0.086  12.794  11.175
61258SOL     OW85670   8.374   0.005   1.822
61258SOL    HW185671   8.317  14.859   1.748
61258SOL    HW285672   8.336   0.084   1.860
61259SOL     OW85673  13.701   0.104  14.125
61259SOL    HW185674  13.759   0.046  14.175
61259SOL    HW285675  13.685   0.178  14.183
61260SOL     OW85676  12.876   8.359  13.772
61260SOL    HW185677  12.885   8.271  13.809
61260SOL    HW285678  12.839   8.344  13.685
61261SOL     OW85679   1.321  10.089   6.101
61261SOL    HW185680   1.359  10.020   6.046
61261SOL    HW285681   1.289  10.154   6.039
61262SOL     OW85682   5.814   7.908   2.656
61262SOL    HW185683   5.783   7.909   2.746
61262SOL    HW285684   5.859   7.824   2.647
61263SOL     OW85685  12.022   8.427   8.774
61263SOL    HW185686  11.961   8.457   8.841
61263SOL    HW285687  11.967   8.389   8.706
61264SOL     OW85688   9.303   4.645   7.744
61264SOL    HW185689   9.229   4.591   7.718
61264SOL    HW285690   9.345   4.669   7.661
61265SOL     OW85691   0.943   6.627   5.687
61265SOL    HW185692   0.855   6.647   5.718
61265SOL    HW285693   1.001   6.659   5.756
61266SOL     OW85694   7.769   1.438   6.070
61266SOL    HW185695   7.675   1.430   6.050
61266SOL    HW285696   7.796   1.519   6.026
61267SOL     OW85697  10.298   7.941  10.434
61267SOL    HW185698  10.279   7.896  10.516
61267SOL    HW285699  10.383   7.982  10.449
61268SOL     OW85700   5.579   6.667   1.962
61268SOL    HW185701   5.645   6.598   1.954
61268SOL    HW285702   5.496   6.625   1.940
61269SOL     OW85703   6.884  11.648  13.499
61269SOL    HW185704   6.851  11.559  13.494
61269SOL    HW285705   6.809  11.700  13.531
61270SOL     OW85706   8.502  14.361  13.494
61270SOL    HW185707   8.593  14.372  13.467
61270SOL    HW285708   8.461  14.313  13.423
61271SOL     OW85709   1.505  12.319   1.509
61271SOL    HW185710   1.500  12.285   1.599
61271SOL    HW285711   1.467  12.250   1.455
61272SOL     OW85712   1.033   6.385   6.721
61272SOL    HW185713   0.969   6.415   6.657
61272SOL    HW285714   0.983   6.331   6.782
61273SOL     OW85715  11.461   7.862   1.909
61273SOL    HW185716  11.424   7.835   1.993
61273SOL    HW285717  11.515   7.788   1.881
61274SOL     OW85718   5.854   1.229   5.893
61274SOL    HW185719   5.904   1.177   5.830
61274SOL    HW285720   5.763   1.214   5.868
61275SOL     OW85721   4.273   8.593   5.686
61275SOL    HW185722   4.260   8.500   5.704
61275SOL    HW285723   4.223   8.637   5.755
61276SOL     OW85724  10.403  14.049  10.530
61276SOL    HW185725  10.375  14.112  10.596
61276SOL    HW285726  10.388  13.964  10.570
61277SOL     OW85727   9.131   7.621   9.956
61277SOL    HW185728   9.087   7.536   9.959
61277SOL    HW285729   9.139   7.646  10.048
61278SOL     OW85730  13.771   9.595   3.346
61278SOL    HW185731  13.793   9.643   3.266
61278SOL    HW285732  13.799   9.505   3.329
61279SOL     OW85733  12.535  14.321   4.651
61279SOL    HW185734  12.464  14.260   4.634
61279SOL    HW285735  12.586  14.322   4.569
61280SOL     OW85736   8.794  14.052   1.553
61280SOL    HW185737   8.738  14.129   1.562
61280SOL    HW285738   8.882  14.083   1.575
61281SOL     OW85739  13.337  10.900   4.420
61281SOL    HW185740  13.350  10.851   4.339
61281SOL    HW285741  13.339  10.834   4.489
61282SOL     OW85742  10.869   0.562   2.652
61282SOL    HW185743  10.826   0.601   2.576
61282SOL    HW285744  10.923   0.492   2.615
61283SOL     OW85745   5.835   0.288   6.916
61283SOL    HW185746   5.795   0.361   6.869
61283SOL    HW285747   5.927   0.290   6.890
61284SOL     OW85748   6.565   5.109   5.752
61284SOL    HW185749   6.601   5.043   5.812
61284SOL    HW285750   6.548   5.061   5.671
61285SOL     OW85751  11.803   7.098   9.529
61285SOL    HW185752  11.809   7.154   9.606
61285SOL    HW285753  11.809   7.159   9.455
61286SOL     OW85754   8.657   3.287   2.576
61286SOL    HW185755   8.737   3.336   2.558
61286SOL    HW285756   8.611   3.284   2.491
61287SOL     OW85757   2.391   5.342  11.546
61287SOL    HW185758   2.473   5.358  11.593
61287SOL    HW285759   2.325   5.391  11.596
61288SOL     OW85760  11.470   2.627   0.176
61288SOL    HW185761  11.395   2.667   0.132
61288SOL    HW285762  11.492   2.551   0.123
61289SOL     OW85763  10.199  12.697  11.250
61289SOL    HW185764  10.153  12.780  11.262
61289SOL    HW285765  10.148  12.650  11.184
61290SOL     OW85766  10.508   5.370   1.490
61290SOL    HW185767  10.550   5.443   1.445
61290SOL    HW285768  10.477   5.313   1.420
61291SOL     OW85769   8.790  12.404   1.112
61291SOL    HW185770   8.810  12.311   1.119
61291SOL    HW285771   8.843  12.445   1.180
61292SOL     OW85772   9.743   2.845  14.463
61292SOL    HW185773   9.723   2.845  14.370
61292SOL    HW285774   9.834   2.818  14.468
61293SOL     OW85775  14.819  14.066   7.463
61293SOL    HW185776  14.794  14.130   7.530
61293SOL    HW285777  14.846  14.119   7.389
61294SOL     OW85778   8.844   6.793   7.898
61294SOL    HW185779   8.845   6.887   7.917
61294SOL    HW285780   8.767   6.780   7.843
61295SOL     OW85781  14.623   7.940   7.429
61295SOL    HW185782  14.571   7.882   7.485
61295SOL    HW285783  14.676   7.880   7.375
61296SOL     OW85784   3.899  10.488  13.904
61296SOL    HW185785   3.924  10.561  13.848
61296SOL    HW285786   3.939  10.411  13.863
61297SOL     OW85787   1.097   1.194   4.766
61297SOL    HW185788   1.178   1.233   4.801
61297SOL    HW285789   1.027   1.245   4.806
61298SOL     OW85790   4.637   3.910   7.736
61298SOL    HW185791   4.712   3.912   7.795
61298SOL    HW285792   4.616   3.818   7.726
61299SOL     OW85793   2.083   9.448  11.164
61299SOL    HW185794   2.016   9.413  11.104
61299SOL    HW285795   2.077   9.543  11.153
61300SOL     OW85796   0.311   5.271   3.749
61300SOL    HW185797   0.364   5.337   3.704
61300SOL    HW285798   0.374   5.208   3.782
61301SOL     OW85799  13.476   8.324  13.811
61301SOL    HW185800  13.409   8.326  13.879
61301SOL    HW285801  13.547   8.271  13.848
61302SOL     OW85802  13.369   3.777   5.991
61302SOL    HW185803  13.383   3.842   6.060
61302SOL    HW285804  13.302   3.816   5.935
61303SOL     OW85805   1.930   8.951   2.736
61303SOL    HW185806   1.913   8.936   2.643
61303SOL    HW285807   1.852   8.998   2.767
61304SOL     OW85808   7.294  13.179   4.733
61304SOL    HW185809   7.362  13.111   4.738
61304SOL    HW285810   7.294  13.219   4.819
61305SOL     OW85811  10.250   1.843   2.866
61305SOL    HW185812  10.342   1.869   2.872
61305SOL    HW285813  10.210   1.907   2.807
61306SOL     OW85814   7.069   9.618  14.496
61306SOL    HW185815   6.979   9.650  14.491
61306SOL    HW285816   7.061   9.527  14.525
61307SOL     OW85817  12.690   0.186   2.010
61307SOL    HW185818  12.687   0.103   2.056
61307SOL    HW285819  12.624   0.178   1.941
61308SOL     OW85820   2.455  14.587   4.037
61308SOL    HW185821   2.519  14.658   4.043
61308SOL    HW285822   2.441  14.561   4.128
61309SOL     OW85823   8.363   1.282   3.217
61309SOL    HW185824   8.433   1.340   3.246
61309SOL    HW285825   8.409   1.205   3.184
61310SOL     OW85826  13.245  10.359   6.559
61310SOL    HW185827  13.301  10.281   6.569
61310SOL    HW285828  13.266  10.413   6.635
61311SOL     OW85829   4.871   6.743  13.777
61311SOL    HW185830   4.776   6.741  13.785
61311SOL    HW285831   4.903   6.693  13.852
61312SOL     OW85832   5.896   1.696  11.529
61312SOL    HW185833   5.870   1.770  11.584
61312SOL    HW285834   5.860   1.716  11.443
61313SOL     OW85835  10.108   1.718   4.807
61313SOL    HW185836  10.048   1.786   4.776
61313SOL    HW285837  10.087   1.641   4.753
61314SOL     OW85838   9.219  14.177  11.049
61314SOL    HW185839   9.136  14.190  11.003
61314SOL    HW285840   9.194  14.170  11.141
61315SOL     OW85841   3.509  14.535  11.912
61315SOL    HW185842   3.446  14.555  11.981
61315SOL    HW285843   3.454  14.509  11.837
61316SOL     OW85844  11.599  14.762  12.203
61316SOL    HW185845  11.569  14.798  12.119
61316SOL    HW285846  11.662  14.826  12.236
61317SOL     OW85847   3.852   0.815   1.590
61317SOL    HW185848   3.871   0.729   1.554
61317SOL    HW285849   3.811   0.797   1.675
61318SOL     OW85850   5.567  13.689   0.656
61318SOL    HW185851   5.499  13.735   0.606
61318SOL    HW285852   5.528  13.604   0.677
61319SOL     OW85853  10.767   6.476  13.602
61319SOL    HW185854  10.734   6.470  13.512
61319SOL    HW285855  10.752   6.389  13.638
61320SOL     OW85856   9.703   8.928   0.566
61320SOL    HW185857   9.783   8.969   0.533
61320SOL    HW285858   9.661   8.996   0.619
61321SOL     OW85859  14.710  13.864  11.526
61321SOL    HW185860  14.691  13.828  11.439
61321SOL    HW285861  14.764  13.940  11.509
61322SOL     OW85862   1.780   4.833   6.760
61322SOL    HW185863   1.763   4.783   6.840
61322SOL    HW285864   1.804   4.920   6.790
61323SOL     OW85865  10.656   4.389   0.141
61323SOL    HW185866  10.607   4.443   0.080
61323SOL    HW285867  10.601   4.311   0.153
61324SOL     OW85868  11.205   9.471   1.874
61324SOL    HW185869  11.118   9.508   1.856
61324SOL    HW285870  11.252   9.541   1.920
61325SOL     OW85871   8.155   4.354  11.054
61325SOL    HW185872   8.193   4.277  11.097
61325SOL    HW285873   8.204   4.428  11.090
61326SOL     OW85874   7.376   6.505   7.066
61326SOL    HW185875   7.328   6.526   6.986
61326SOL    HW285876   7.327   6.549   7.136
61327SOL     OW85877   0.886  12.683   3.153
61327SOL    HW185878   0.825  12.609   3.157
61327SOL    HW285879   0.831  12.760   3.164
61328SOL     OW85880  12.158   6.223   9.964
61328SOL    HW185881  12.222   6.260  10.025
61328SOL    HW285882  12.202   6.145   9.929
61329SOL     OW85883  14.584   9.548   8.602
61329SOL    HW185884  14.662   9.584   8.645
61329SOL    HW285885  14.582   9.456   8.628
61330SOL     OW85886  13.399   9.313   2.448
61330SOL    HW185887  13.305   9.318   2.464
61330SOL    HW285888  13.434   9.392   2.489
61331SOL     OW85889  10.380  13.875   0.293
61331SOL    HW185890  10.408  13.965   0.278
61331SOL    HW285891  10.461  13.828   0.314
61332SOL     OW85892  12.258  14.324   1.228
61332SOL    HW185893  12.239  14.336   1.321
61332SOL    HW285894  12.292  14.409   1.199
61333SOL     OW85895   8.959   2.987   7.535
61333SOL    HW185896   8.880   3.041   7.546
61333SOL    HW285897   8.951   2.951   7.446
61334SOL     OW85898   5.360   5.786  14.615
61334SOL    HW185899   5.298   5.775  14.686
61334SOL    HW285900   5.349   5.708  14.560
61335SOL     OW85901   7.240   6.905  13.113
61335SOL    HW185902   7.241   6.861  13.028
61335SOL    HW285903   7.303   6.976  13.105
61336SOL     OW85904  10.337   6.926   5.223
61336SOL    HW185905  10.366   6.915   5.132
61336SOL    HW285906  10.411   6.967   5.267
61337SOL     OW85907  10.622  13.953   2.332
61337SOL    HW185908  10.670  13.872   2.314
61337SOL    HW285909  10.599  13.987   2.245
61338SOL     OW85910   5.649   2.759   4.964
61338SOL    HW185911   5.702   2.839   4.966
61338SOL    HW285912   5.701   2.695   5.012
61339SOL     OW85913   1.795   4.172  10.850
61339SOL    HW185914   1.828   4.210  10.931
61339SOL    HW285915   1.851   4.096  10.834
61340SOL     OW85916  10.207   8.412   6.177
61340SOL    HW185917  10.258   8.349   6.228
61340SOL    HW285918  10.197   8.488   6.234
61341SOL     OW85919   5.888   0.445  10.236
61341SOL    HW185920   5.904   0.385  10.163
61341SOL    HW285921   5.897   0.390  10.314
61342SOL     OW85922  11.262   9.514   6.445
61342SOL    HW185923  11.214   9.505   6.527
61342SOL    HW285924  11.219   9.454   6.384
61343SOL     OW85925  11.251   0.277   6.401
61343SOL    HW185926  11.204   0.320   6.473
61343SOL    HW285927  11.344   0.288   6.423
61344SOL     OW85928   1.782   0.572  13.089
61344SOL    HW185929   1.862   0.545  13.044
61344SOL    HW285930   1.806   0.653  13.134
61345SOL     OW85931   7.123   2.096  12.682
61345SOL    HW185932   7.087   2.126  12.598
61345SOL    HW285933   7.215   2.122  12.680
61346SOL     OW85934   1.088   0.405   9.336
61346SOL    HW185935   1.141   0.441   9.265
61346SOL    HW285936   1.052   0.324   9.301
61347SOL     OW85937   9.098   5.692   2.102
61347SOL    HW185938   9.181   5.679   2.148
61347SOL    HW285939   9.101   5.784   2.074
61348SOL     OW85940  13.281   8.766   2.845
61348SOL    HW185941  13.187   8.749   2.842
61348SOL    HW285942  13.305   8.755   2.937
61349SOL     OW85943  11.554  12.517   0.609
61349SOL    HW185944  11.485  12.521   0.676
61349SOL    HW285945  11.510  12.544   0.528
61350SOL     OW85946   7.357   8.393  14.305
61350SOL    HW185947   7.448   8.364  14.298
61350SOL    HW285948   7.342   8.403  14.399
61351SOL     OW85949   4.625   2.848   0.555
61351SOL    HW185950   4.549   2.885   0.510
61351SOL    HW285951   4.589   2.816   0.638
61352SOL     OW85952   5.490  13.894   8.752
61352SOL    HW185953   5.496  13.846   8.835
61352SOL    HW285954   5.550  13.968   8.763
61353SOL     OW85955   0.739   3.467  10.555
61353SOL    HW185956   0.671   3.503  10.612
61353SOL    HW285957   0.815   3.457  10.612
61354SOL     OW85958  10.642  12.553   9.502
61354SOL    HW185959  10.639  12.647   9.484
61354SOL    HW285960  10.595  12.513   9.430
61355SOL     OW85961   5.117   4.928   7.557
61355SOL    HW185962   5.144   4.883   7.637
61355SOL    HW285963   5.090   4.858   7.498
61356SOL     OW85964   6.675   2.973   1.868
61356SOL    HW185965   6.731   2.909   1.825
61356SOL    HW285966   6.735   3.039   1.902
61357SOL     OW85967   6.305   2.092   7.432
61357SOL    HW185968   6.227   2.129   7.473
61357SOL    HW285969   6.353   2.050   7.503
61358SOL     OW85970  13.681   4.228  13.549
61358SOL    HW185971  13.605   4.282  13.566
61358SOL    HW285972  13.711   4.201  13.636
61359SOL     OW85973   3.084  12.581  12.305
61359SOL    HW185974   3.098  12.653  12.243
61359SOL    HW285975   3.090  12.622  12.391
61360SOL     OW85976  13.350   1.642   8.326
61360SOL    HW185977  13.372   1.698   8.401
61360SOL    HW285978  13.430   1.591   8.310
61361SOL     OW85979   8.785   6.994  10.986
61361SOL    HW185980   8.853   7.033  11.040
61361SOL    HW285981   8.796   6.900  10.998
61362SOL     OW85982   7.894   3.700   2.433
61362SOL    HW185983   7.929   3.673   2.518
61362SOL    HW285984   7.962   3.754   2.394
61363SOL     OW85985   7.461   8.965  12.448
61363SOL    HW185986   7.458   8.992  12.356
61363SOL    HW285987   7.492   8.875  12.446
61364SOL     OW85988   4.066  14.454   3.063
61364SOL    HW185989   4.130  14.513   3.024
61364SOL    HW285990   4.090  14.449   3.155
61365SOL     OW85991   0.910  14.120  12.196
61365SOL    HW185992   0.999  14.094  12.222
61365SOL    HW285993   0.876  14.168  12.272
61366SOL     OW85994   3.924   6.825   9.105
61366SOL    HW185995   4.011   6.855   9.133
61366SOL    HW285996   3.943   6.761   9.036
61367SOL     OW85997   2.204  11.981   1.878
61367SOL    HW185998   2.265  12.053   1.863
61367SOL    HW285999   2.255  11.915   1.925
61368SOL     OW86000   4.832   8.712   5.646
61368SOL    HW186001   4.856   8.636   5.699
61368SOL    HW286002   4.781   8.768   5.705
61369SOL     OW86003   2.996  12.813   1.233
61369SOL    HW186004   2.929  12.865   1.189
61369SOL    HW286005   3.022  12.747   1.169
61370SOL     OW86006  12.066   8.515   4.279
61370SOL    HW186007  11.977   8.521   4.244
61370SOL    HW286008  12.115   8.467   4.212
61371SOL     OW86009   2.503  10.184   7.871
61371SOL    HW186010   2.445  10.222   7.804
61371SOL    HW286011   2.514  10.093   7.844
61372SOL     OW86012  13.558  11.983   2.004
61372SOL    HW186013  13.522  11.902   2.040
61372SOL    HW286014  13.652  11.970   2.007
61373SOL     OW86015  13.380   3.719   9.235
61373SOL    HW186016  13.419   3.807   9.235
61373SOL    HW286017  13.396   3.686   9.147
61374SOL     OW86018   9.709   4.655   3.400
61374SOL    HW186019   9.766   4.584   3.369
61374SOL    HW286020   9.661   4.616   3.473
61375SOL     OW86021   4.476   4.336   3.867
61375SOL    HW186022   4.410   4.401   3.892
61375SOL    HW286023   4.483   4.345   3.772
61376SOL     OW86024   7.186   8.005   6.373
61376SOL    HW186025   7.195   8.096   6.402
61376SOL    HW286026   7.093   7.995   6.353
61377SOL     OW86027   2.677  12.782   6.385
61377SOL    HW186028   2.720  12.708   6.428
61377SOL    HW286029   2.634  12.830   6.456
61378SOL     OW86030   2.134   8.236   8.429
61378SOL    HW186031   2.199   8.210   8.363
61378SOL    HW286032   2.186   8.264   8.504
61379SOL     OW86033   5.220   3.720  12.679
61379SOL    HW186034   5.213   3.805  12.635
61379SOL    HW286035   5.239   3.741  12.770
61380SOL     OW86036   5.240  12.239   6.045
61380SOL    HW186037   5.299  12.163   6.044
61380SOL    HW286038   5.178  12.221   5.974
61381SOL     OW86039   4.350   8.193  11.313
61381SOL    HW186040   4.360   8.207  11.407
61381SOL    HW286041   4.273   8.137  11.305
61382SOL     OW86042   0.830   2.972   0.186
61382SOL    HW186043   0.879   3.052   0.204
61382SOL    HW286044   0.886   2.922   0.127
61383SOL     OW86045   9.248   8.073   8.507
61383SOL    HW186046   9.205   8.016   8.570
61383SOL    HW286047   9.284   8.014   8.441
61384SOL     OW86048   8.235  13.264   1.909
61384SOL    HW186049   8.157  13.319   1.901
61384SOL    HW286050   8.206  13.177   1.880
61385SOL     OW86051   9.504   0.071   1.661
61385SOL    HW186052   9.461   0.069   1.576
61385SOL    HW286053   9.594   0.043   1.643
61386SOL     OW86054   6.855   1.413   2.856
61386SOL    HW186055   6.885   1.325   2.877
61386SOL    HW286056   6.798   1.402   2.780
61387SOL     OW86057   7.705  10.807  12.489
61387SOL    HW186058   7.697  10.712  12.483
61387SOL    HW286059   7.625  10.840  12.448
61388SOL     OW86060   9.220   1.350   4.931
61388SOL    HW186061   9.219   1.316   4.842
61388SOL    HW286062   9.249   1.441   4.922
61389SOL     OW86063   2.721   3.628   2.638
61389SOL    HW186064   2.686   3.540   2.649
61389SOL    HW286065   2.804   3.615   2.593
61390SOL     OW86066   8.086   0.063   8.459
61390SOL    HW186067   8.104   0.129   8.526
61390SOL    HW286068   8.093  14.855   8.505
61391SOL     OW86069  11.299   7.157   3.392
61391SOL    HW186070  11.217   7.126   3.354
61391SOL    HW286071  11.366   7.098   3.358
61392SOL     OW86072  12.520   3.404   2.318
61392SOL    HW186073  12.443   3.368   2.362
61392SOL    HW286074  12.583   3.420   2.388
61393SOL     OW86075   3.788   0.179   1.883
61393SOL    HW186076   3.761   0.237   1.812
61393SOL    HW286077   3.771   0.229   1.963
61394SOL     OW86078   2.186   5.220   8.420
61394SOL    HW186079   2.103   5.260   8.443
61394SOL    HW286080   2.172   5.184   8.332
61395SOL     OW86081   5.972   7.956  10.079
61395SOL    HW186082   5.938   7.866  10.074
61395SOL    HW286083   5.897   8.011  10.055
61396SOL     OW86084   2.157  14.172   8.426
61396SOL    HW186085   2.085  14.129   8.472
61396SOL    HW286086   2.163  14.125   8.342
61397SOL     OW86087  14.060   8.650   9.472
61397SOL    HW186088  14.097   8.668   9.385
61397SOL    HW286089  14.069   8.556   9.483
61398SOL     OW86090  12.666   1.562   1.930
61398SOL    HW186091  12.712   1.523   1.855
61398SOL    HW286092  12.687   1.655   1.925
61399SOL     OW86093  12.379   1.528  10.108
61399SOL    HW186094  12.471   1.512  10.128
61399SOL    HW286095  12.332   1.462  10.157
61400SOL     OW86096  14.593  10.092  13.786
61400SOL    HW186097  14.653  10.062  13.717
61400SOL    HW286098  14.510  10.050  13.765
61401SOL     OW86099  11.827  11.954   1.955
61401SOL    HW186100  11.772  11.911   2.020
61401SOL    HW286101  11.811  11.905   1.874
61402SOL     OW86102   8.871   8.350  11.226
61402SOL    HW186103   8.939   8.320  11.165
61402SOL    HW286104   8.848   8.272  11.277
61403SOL     OW86105   7.137   7.695   9.383
61403SOL    HW186106   7.084   7.753   9.327
61403SOL    HW286107   7.074   7.632   9.417
61404SOL     OW86108  12.593  10.071  10.882
61404SOL    HW186109  12.557  10.132  10.817
61404SOL    HW286110  12.526  10.003  10.891
61405SOL     OW86111   8.639   5.767   5.148
61405SOL    HW186112   8.707   5.810   5.096
61405SOL    HW286113   8.669   5.775   5.239
61406SOL     OW86114   8.333  12.686   8.589
61406SOL    HW186115   8.330  12.635   8.508
61406SOL    HW286116   8.293  12.770   8.566
61407SOL     OW86117   8.262  14.318   5.103
61407SOL    HW186118   8.347  14.328   5.147
61407SOL    HW286119   8.217  14.250   5.154
61408SOL     OW86120   2.641   9.480  11.979
61408SOL    HW186121   2.676   9.457  11.893
61408SOL    HW286122   2.633   9.396  12.025
61409SOL     OW86123   0.628   3.812   0.742
61409SOL    HW186124   0.589   3.785   0.825
61409SOL    HW286125   0.582   3.892   0.719
61410SOL     OW86126   2.349   0.399   8.306
61410SOL    HW186127   2.265   0.442   8.327
61410SOL    HW286128   2.339   0.310   8.340
61411SOL     OW86129   9.826   8.390  10.002
61411SOL    HW186130   9.916   8.403   9.971
61411SOL    HW286131   9.828   8.304  10.044
61412SOL     OW86132   8.927   1.676   4.575
61412SOL    HW186133   9.002   1.698   4.521
61412SOL    HW286134   8.855   1.664   4.513
61413SOL     OW86135  11.723   0.464   5.952
61413SOL    HW186136  11.802   0.412   5.936
61413SOL    HW286137  11.750   0.555   5.942
61414SOL     OW86138  11.177   5.627  10.707
61414SOL    HW186139  11.131   5.547  10.680
61414SOL    HW286140  11.252   5.596  10.757
61415SOL     OW86141   7.629   2.200  11.276
61415SOL    HW186142   7.593   2.191  11.187
61415SOL    HW286143   7.600   2.287  11.304
61416SOL     OW86144   4.072  10.199  10.136
61416SOL    HW186145   4.047  10.252  10.060
61416SOL    HW286146   4.151  10.153  10.108
61417SOL     OW86147   9.309   9.506  12.498
61417SOL    HW186148   9.368   9.469  12.563
61417SOL    HW286149   9.295   9.596  12.528
61418SOL     OW86150   6.165  11.500   0.133
61418SOL    HW186151   6.227  11.523   0.064
61418SOL    HW286152   6.116  11.581   0.150
61419SOL     OW86153   3.851   4.192  11.600
61419SOL    HW186154   3.820   4.256  11.664
61419SOL    HW286155   3.786   4.122  11.602
61420SOL     OW86156   0.193  10.154  11.964
61420SOL    HW186157   0.253  10.228  11.963
61420SOL    HW286158   0.118  10.183  12.016
61421SOL     OW86159  12.327   3.319  13.410
61421SOL    HW186160  12.324   3.388  13.344
61421SOL    HW286161  12.419   3.292  13.412
61422SOL     OW86162   3.719   3.242   0.048
61422SOL    HW186163   3.640   3.290   0.073
61422SOL    HW286164   3.730   3.262  14.830
61423SOL     OW86165   2.774  11.198  11.738
61423SOL    HW186166   2.811  11.193  11.827
61423SOL    HW286167   2.849  11.212  11.681
61424SOL     OW86168   9.716   2.199  11.532
61424SOL    HW186169   9.690   2.233  11.446
61424SOL    HW286170   9.699   2.105  11.526
61425SOL     OW86171  14.516   6.505   2.692
61425SOL    HW186172  14.513   6.409   2.690
61425SOL    HW286173  14.444   6.532   2.636
61426SOL     OW86174  11.450   5.045  12.665
61426SOL    HW186175  11.449   5.005  12.578
61426SOL    HW286176  11.463   4.972  12.725
61427SOL     OW86177   4.579   0.646  11.731
61427SOL    HW186178   4.609   0.565  11.772
61427SOL    HW286179   4.578   0.710  11.802
61428SOL     OW86180   0.492  12.990   3.198
61428SOL    HW186181   0.509  13.080   3.228
61428SOL    HW286182   0.400  12.975   3.218
61429SOL     OW86183   5.773   5.316   8.843
61429SOL    HW186184   5.710   5.344   8.910
61429SOL    HW286185   5.856   5.353   8.871
61430SOL     OW86186   8.014   7.160   5.562
61430SOL    HW186187   8.019   7.200   5.476
61430SOL    HW286188   8.046   7.070   5.549
61431SOL     OW86189   3.674   2.308   0.779
61431SOL    HW186190   3.599   2.332   0.725
61431SOL    HW286191   3.750   2.324   0.723
61432SOL     OW86192   4.952  10.298   9.876
61432SOL    HW186193   5.037  10.259   9.860
61432SOL    HW286194   4.946  10.306   9.971
61433SOL     OW86195   9.396  11.906   0.484
61433SOL    HW186196   9.350  11.897   0.401
61433SOL    HW286197   9.327  11.917   0.549
61434SOL     OW86198   0.144  12.309  14.750
61434SOL    HW186199   0.056  12.345  14.764
61434SOL    HW286200   0.191  12.377  14.703
61435SOL     OW86201   1.815   9.825   7.410
61435SOL    HW186202   1.803   9.870   7.327
61435SOL    HW286203   1.729   9.790   7.432
61436SOL     OW86204  12.434   1.726  13.535
61436SOL    HW186205  12.499   1.698  13.470
61436SOL    HW286206  12.438   1.658  13.603
61437SOL     OW86207   8.431  10.286   9.481
61437SOL    HW186208   8.403  10.359   9.426
61437SOL    HW286209   8.521  10.269   9.453
61438SOL     OW86210  10.963   3.452  11.681
61438SOL    HW186211  11.006   3.454  11.766
61438SOL    HW286212  10.948   3.544  11.660
61439SOL     OW86213   3.959  14.194   9.331
61439SOL    HW186214   3.943  14.288   9.340
61439SOL    HW286215   4.041  14.179   9.379
61440SOL     OW86216   5.916   5.667   1.592
61440SOL    HW186217   5.870   5.743   1.627
61440SOL    HW286218   6.005   5.699   1.577
61441SOL     OW86219   5.947  14.739   9.141
61441SOL    HW186220   5.860  14.699   9.131
61441SOL    HW286221   6.008  14.666   9.133
61442SOL     OW86222   2.047   1.223   2.254
61442SOL    HW186223   2.131   1.208   2.211
61442SOL    HW286224   2.046   1.316   2.275
61443SOL     OW86225   6.582  13.371   3.329
61443SOL    HW186226   6.551  13.421   3.405
61443SOL    HW286227   6.541  13.285   3.338
61444SOL     OW86228   5.803  10.862   6.782
61444SOL    HW186229   5.755  10.814   6.849
61444SOL    HW286230   5.752  10.848   6.702
61445SOL     OW86231   5.261   6.593  13.871
61445SOL    HW186232   5.212   6.551  13.800
61445SOL    HW286233   5.236   6.685  13.866
61446SOL     OW86234   8.995   1.905  14.492
61446SOL    HW186235   9.069   1.862  14.535
61446SOL    HW286236   8.942   1.832  14.458
61447SOL     OW86237   4.566   8.773   3.181
61447SOL    HW186238   4.636   8.814   3.233
61447SOL    HW286239   4.597   8.684   3.166
61448SOL     OW86240   8.633   6.528   8.521
61448SOL    HW186241   8.567   6.478   8.472
61448SOL    HW286242   8.716   6.501   8.483
61449SOL     OW86243  10.397   0.255  14.242
61449SOL    HW186244  10.359   0.167  14.240
61449SOL    HW286245  10.413   0.272  14.335
61450SOL     OW86246   4.835   0.437  11.154
61450SOL    HW186247   4.856   0.420  11.062
61450SOL    HW286248   4.918   0.423  11.200
61451SOL     OW86249  11.218  12.974   9.897
61451SOL    HW186250  11.212  12.907   9.965
61451SOL    HW286251  11.219  12.924   9.815
61452SOL     OW86252  12.376  13.502  13.218
61452SOL    HW186253  12.415  13.544  13.295
61452SOL    HW286254  12.449  13.453  13.179
61453SOL     OW86255  13.605   6.867   7.821
61453SOL    HW186256  13.555   6.943   7.852
61453SOL    HW286257  13.630   6.890   7.732
61454SOL     OW86258   1.051   8.781  10.994
61454SOL    HW186259   1.103   8.859  10.973
61454SOL    HW286260   0.988   8.811  11.060
61455SOL     OW86261   0.002   5.782   1.278
61455SOL    HW186262  14.837   5.866   1.256
61455SOL    HW286263  14.850   5.723   1.208
61456SOL     OW86264   3.420  12.633  13.074
61456SOL    HW186265   3.421  12.637  12.978
61456SOL    HW286266   3.495  12.687  13.101
61457SOL     OW86267   6.168   3.956  12.446
61457SOL    HW186268   6.255   3.922  12.465
61457SOL    HW286269   6.159   3.947  12.351
61458SOL     OW86270   1.079  13.227  10.837
61458SOL    HW186271   1.106  13.220  10.928
61458SOL    HW286272   1.112  13.312  10.809
61459SOL     OW86273   4.704  13.193   2.046
61459SOL    HW186274   4.690  13.251   1.971
61459SOL    HW286275   4.623  13.143   2.053
61460SOL     OW86276   4.602   6.144   8.702
61460SOL    HW186277   4.651   6.144   8.619
61460SOL    HW286278   4.670   6.152   8.769
61461SOL     OW86279   2.483  11.872   2.922
61461SOL    HW186280   2.517  11.783   2.908
61461SOL    HW286281   2.542  11.928   2.872
61462SOL     OW86282   5.056  14.460   3.189
61462SOL    HW186283   5.104  14.539   3.213
61462SOL    HW286284   5.080  14.396   3.256
61463SOL     OW86285   9.908   5.359   2.502
61463SOL    HW186286   9.858   5.314   2.570
61463SOL    HW286287   9.883   5.451   2.510
61464SOL     OW86288   2.399  10.583   4.651
61464SOL    HW186289   2.440  10.598   4.736
61464SOL    HW286290   2.337  10.655   4.640
61465SOL     OW86291   8.939   7.276   1.806
61465SOL    HW186292   8.994   7.209   1.847
61465SOL    HW286293   8.956   7.355   1.857
61466SOL     OW86294   5.717   2.839  14.213
61466SOL    HW186295   5.797   2.823  14.262
61466SOL    HW286296   5.744   2.837  14.122
61467SOL     OW86297   7.825  10.703  11.105
61467SOL    HW186298   7.781  10.763  11.165
61467SOL    HW286299   7.791  10.727  11.019
61468SOL     OW86300   5.654   3.858  11.711
61468SOL    HW186301   5.699   3.941  11.722
61468SOL    HW286302   5.563   3.876  11.736
61469SOL     OW86303   7.451   3.620   4.390
61469SOL    HW186304   7.515   3.648   4.455
61469SOL    HW286305   7.421   3.701   4.349
61470SOL     OW86306   9.383  13.107   4.738
61470SOL    HW186307   9.358  13.142   4.824
61470SOL    HW286308   9.477  13.089   4.746
61471SOL     OW86309   5.571  11.653   6.595
61471SOL    HW186310   5.603  11.563   6.601
61471SOL    HW286311   5.650  11.707   6.599
61472SOL     OW86312   8.254   3.833   7.959
61472SOL    HW186313   8.322   3.874   7.904
61472SOL    HW286314   8.179   3.892   7.951
61473SOL     OW86315   5.483  10.082  10.462
61473SOL    HW186316   5.562  10.117  10.420
61473SOL    HW286317   5.487  10.113  10.552
61474SOL     OW86318   5.125   4.726   8.956
61474SOL    HW186319   5.110   4.818   8.933
61474SOL    HW286320   5.213   4.725   8.994
61475SOL     OW86321  13.693   2.744  11.897
61475SOL    HW186322  13.647   2.827  11.907
61475SOL    HW286323  13.637   2.692  11.840
61476SOL     OW86324   6.121  12.930  11.475
61476SOL    HW186325   6.121  12.936  11.570
61476SOL    HW286326   6.148  12.840  11.457
61477SOL     OW86327   1.953   7.114   2.190
61477SOL    HW186328   2.013   7.077   2.254
61477SOL    HW286329   2.000   7.110   2.107
61478SOL     OW86330  10.559   4.333   7.912
61478SOL    HW186331  10.652   4.356   7.920
61478SOL    HW286332  10.528   4.330   8.003
61479SOL     OW86333  14.325   1.614   9.816
61479SOL    HW186334  14.252   1.660   9.859
61479SOL    HW286335  14.401   1.668   9.836
61480SOL     OW86336  12.759  11.468   8.020
61480SOL    HW186337  12.690  11.524   8.055
61480SOL    HW286338  12.733  11.380   8.046
61481SOL     OW86339   7.522   5.338   8.386
61481SOL    HW186340   7.568   5.254   8.390
61481SOL    HW286341   7.465   5.338   8.462
61482SOL     OW86342  10.660   1.023   0.107
61482SOL    HW186343  10.621   1.110   0.094
61482SOL    HW286344  10.625   0.970   0.035
61483SOL     OW86345  13.609  11.212   8.476
61483SOL    HW186346  13.529  11.197   8.525
61483SOL    HW286347  13.659  11.131   8.486
61484SOL     OW86348   8.051  10.937   9.242
61484SOL    HW186349   8.112  11.011   9.239
61484SOL    HW286350   8.038  10.913   9.150
61485SOL     OW86351  12.332   3.524   1.886
61485SOL    HW186352  12.388   3.466   1.938
61485SOL    HW286353  12.326   3.481   1.801
61486SOL     OW86354   6.678  11.050   5.844
61486SOL    HW186355   6.584  11.041   5.827
61486SOL    HW286356   6.718  11.047   5.758
61487SOL     OW86357   3.053   8.284   0.137
61487SOL    HW186358   3.120   8.225   0.103
61487SOL    HW286359   3.102   8.350   0.186
61488SOL     OW86360   0.304   4.854   3.145
61488SOL    HW186361   0.326   4.762   3.162
61488SOL    HW286362   0.386   4.893   3.114
61489SOL     OW86363  11.108   6.819   5.229
61489SOL    HW186364  11.120   6.833   5.135
61489SOL    HW286365  11.114   6.725   5.240
61490SOL     OW86366  14.183   5.977   7.797
61490SOL    HW186367  14.147   5.935   7.876
61490SOL    HW286368  14.106   6.007   7.749
61491SOL     OW86369   4.121  14.452   2.090
61491SOL    HW186370   4.077  14.514   2.149
61491SOL    HW286371   4.214  14.463   2.110
61492SOL     OW86372  10.922   7.416   4.927
61492SOL    HW186373  10.848   7.437   4.870
61492SOL    HW286374  10.934   7.495   4.980
61493SOL     OW86375   6.217   6.963   9.867
61493SOL    HW186376   6.273   6.945   9.942
61493SOL    HW286377   6.275   7.005   9.803
61494SOL     OW86378   2.145  12.517   4.499
61494SOL    HW186379   2.054  12.536   4.476
61494SOL    HW286380   2.170  12.445   4.442
61495SOL     OW86381   9.832  10.736  11.769
61495SOL    HW186382   9.861  10.826  11.781
61495SOL    HW286383   9.772  10.720  11.842
61496SOL     OW86384   9.175  11.869   6.681
61496SOL    HW186385   9.178  11.818   6.600
61496SOL    HW286386   9.247  11.931   6.673
61497SOL     OW86387   8.655  14.793   0.769
61497SOL    HW186388   8.569  14.830   0.787
61497SOL    HW286389   8.653  14.706   0.810
61498SOL     OW86390  13.317  12.317  11.256
61498SOL    HW186391  13.327  12.304  11.350
61498SOL    HW286392  13.287  12.232  11.223
61499SOL     OW86393   5.281   8.031   2.550
61499SOL    HW186394   5.368   8.065   2.531
61499SOL    HW286395   5.225   8.070   2.483
61500SOL     OW86396   1.521   0.796   4.853
61500SOL    HW186397   1.527   0.846   4.934
61500SOL    HW286398   1.471   0.718   4.877
61501SOL     OW86399   1.990  14.250   2.038
61501SOL    HW186400   2.001  14.305   1.961
61501SOL    HW286401   2.028  14.300   2.110
61502SOL     OW86402   8.700  12.446  10.207
61502SOL    HW186403   8.671  12.529  10.169
61502SOL    HW286404   8.737  12.471  10.292
61503SOL     OW86405   7.498  13.932   1.898
61503SOL    HW186406   7.409  13.955   1.926
61503SOL    HW286407   7.530  13.873   1.967
61504SOL     OW86408  14.201   4.173   4.606
61504SOL    HW186409  14.182   4.262   4.576
61504SOL    HW286410  14.279   4.148   4.557
61505SOL     OW86411   9.169  14.809   7.203
61505SOL    HW186412   9.211  14.847   7.125
61505SOL    HW286413   9.082  14.848   7.205
61506SOL     OW86414   6.840  12.199  13.294
61506SOL    HW186415   6.767  12.158  13.248
61506SOL    HW286416   6.833  12.167  13.384
61507SOL     OW86417  11.982   4.756   6.858
61507SOL    HW186418  11.990   4.796   6.944
61507SOL    HW286419  11.897   4.785   6.825
61508SOL     OW86420   7.254   0.466   2.212
61508SOL    HW186421   7.274   0.394   2.272
61508SOL    HW286422   7.289   0.438   2.128
61509SOL     OW86423   3.911  12.233  11.675
61509SOL    HW186424   3.816  12.237  11.671
61509SOL    HW286425   3.936  12.174  11.604
61510SOL     OW86426   3.869  11.058   5.624
61510SOL    HW186427   3.943  11.109   5.657
61510SOL    HW286428   3.831  11.018   5.702
61511SOL     OW86429   9.389  13.077   8.332
61511SOL    HW186430   9.296  13.087   8.352
61511SOL    HW286431   9.405  12.983   8.342
61512SOL     OW86432  11.098  12.533   0.965
61512SOL    HW186433  11.100  12.629   0.964
61512SOL    HW286434  11.109  12.508   0.873
61513SOL     OW86435  13.628   4.667   3.650
61513SOL    HW186436  13.570   4.673   3.574
61513SOL    HW286437  13.569   4.652   3.724
61514SOL     OW86438   3.097  14.405   1.392
61514SOL    HW186439   3.082  14.343   1.321
61514SOL    HW286440   3.009  14.431   1.420
61515SOL     OW86441  11.129   4.136  13.950
61515SOL    HW186442  11.205   4.192  13.930
61515SOL    HW286443  11.163   4.072  14.012
61516SOL     OW86444  14.032   6.974  11.643
61516SOL    HW186445  14.073   6.929  11.717
61516SOL    HW286446  14.029   7.066  11.670
61517SOL     OW86447   4.519   6.008  10.975
61517SOL    HW186448   4.580   5.955  10.924
61517SOL    HW286449   4.567   6.030  11.055
61518SOL     OW86450  14.326  10.143   5.679
61518SOL    HW186451  14.413  10.154   5.641
61518SOL    HW286452  14.324  10.052   5.708
61519SOL     OW86453   8.227   0.972  12.053
61519SOL    HW186454   8.241   1.066  12.044
61519SOL    HW286455   8.198   0.960  12.144
61520SOL     OW86456   5.671  12.700   2.188
61520SOL    HW186457   5.631  12.642   2.253
61520SOL    HW286458   5.597  12.736   2.139
61521SOL     OW86459   8.753   2.706   7.383
61521SOL    HW186460   8.669   2.701   7.338
61521SOL    HW286461   8.815   2.733   7.316
61522SOL     OW86462  14.162  11.641   3.266
61522SOL    HW186463  14.121  11.577   3.208
61522SOL    HW286464  14.247  11.602   3.289
61523SOL     OW86465   8.729   6.740   6.753
61523SOL    HW186466   8.685   6.658   6.778
61523SOL    HW286467   8.775   6.767   6.832
61524SOL     OW86468  14.414  11.829  12.854
61524SOL    HW186469  14.417  11.874  12.770
61524SOL    HW286470  14.322  11.831  12.879
61525SOL     OW86471   6.308   0.899   3.249
61525SOL    HW186472   6.312   0.978   3.195
61525SOL    HW286473   6.398   0.888   3.280
61526SOL     OW86474   6.792  13.323   5.832
61526SOL    HW186475   6.764  13.305   5.922
61526SOL    HW286476   6.738  13.397   5.804
61527SOL     OW86477   5.854   9.729   4.884
61527SOL    HW186478   5.913   9.669   4.930
61527SOL    HW286479   5.888   9.733   4.795
61528SOL     OW86480  13.628  10.883  10.219
61528SOL    HW186481  13.654  10.795  10.194
61528SOL    HW286482  13.664  10.895  10.307
61529SOL     OW86483  12.083   0.609  13.390
61529SOL    HW186484  12.002   0.559  13.381
61529SOL    HW286485  12.078   0.647  13.477
61530SOL     OW86486   7.851  10.764  13.147
61530SOL    HW186487   7.865  10.857  13.161
61530SOL    HW286488   7.818  10.757  13.057
61531SOL     OW86489   8.928   0.393   8.981
61531SOL    HW186490   9.002   0.353   8.936
61531SOL    HW286491   8.947   0.381   9.074
61532SOL     OW86492   6.755   1.596  13.843
61532SOL    HW186493   6.833   1.647  13.822
61532SOL    HW286494   6.766   1.514  13.795
61533SOL     OW86495   4.595  12.632   7.387
61533SOL    HW186496   4.617  12.564   7.323
61533SOL    HW286497   4.511  12.667   7.358
61534SOL     OW86498   3.632   8.679   1.671
61534SOL    HW186499   3.595   8.609   1.618
61534SOL    HW286500   3.612   8.653   1.761
61535SOL     OW86501   0.009   7.867   4.050
61535SOL    HW186502  14.854   7.796   3.993
61535SOL    HW286503   0.094   7.891   4.014
61536SOL     OW86504   2.173   9.211   3.176
61536SOL    HW186505   2.226   9.132   3.184
61536SOL    HW286506   2.225   9.279   3.218
61537SOL     OW86507   3.751   3.283  10.119
61537SOL    HW186508   3.832   3.291  10.070
61537SOL    HW286509   3.769   3.325  10.203
61538SOL     OW86510   1.894   8.072   4.723
61538SOL    HW186511   1.869   7.981   4.705
61538SOL    HW286512   1.815   8.123   4.702
61539SOL     OW86513   5.723   0.413   0.662
61539SOL    HW186514   5.810   0.374   0.656
61539SOL    HW286515   5.669   0.346   0.704
61540SOL     OW86516  12.461  12.707   7.831
61540SOL    HW186517  12.476  12.649   7.907
61540SOL    HW286518  12.527  12.680   7.767
61541SOL     OW86519   3.694   9.748  13.144
61541SOL    HW186520   3.757   9.743  13.072
61541SOL    HW286521   3.669   9.658  13.161
61542SOL     OW86522   9.101   8.438  14.439
61542SOL    HW186523   9.006   8.427  14.436
61542SOL    HW286524   9.115   8.519  14.489
61543SOL     OW86525  10.332   9.514   7.744
61543SOL    HW186526  10.406   9.518   7.683
61543SOL    HW286527  10.289   9.431   7.723
61544SOL     OW86528  11.407   3.432  14.743
61544SOL    HW186529  11.382   3.499  14.806
61544SOL    HW286530  11.430   3.356  14.797
61545SOL     OW86531   3.683  12.141   1.291
61545SOL    HW186532   3.767  12.100   1.271
61545SOL    HW286533   3.620  12.069   1.291
61546SOL     OW86534  11.656   9.873   6.907
61546SOL    HW186535  11.654   9.842   6.816
61546SOL    HW286536  11.569   9.911   6.921
61547SOL     OW86537   0.763   8.925  10.249
61547SOL    HW186538   0.846   8.878  10.239
61547SOL    HW286539   0.776   9.007  10.202
61548SOL     OW86540   6.233   9.372  10.538
61548SOL    HW186541   6.231   9.391  10.632
61548SOL    HW286542   6.314   9.413  10.507
61549SOL     OW86543   2.361   8.029   5.551
61549SOL    HW186544   2.338   8.116   5.517
61549SOL    HW286545   2.287   8.005   5.607
61550SOL     OW86546   8.847  13.865  12.555
61550SOL    HW186547   8.928  13.835  12.597
61550SOL    HW286548   8.866  13.860  12.461
61551SOL     OW86549  14.567  14.776  12.356
61551SOL    HW186550  14.485  14.778  12.307
61551SOL    HW286551  14.556  14.705  12.419
61552SOL     OW86552   5.601   0.043   6.857
61552SOL    HW186553   5.644   0.007   6.934
61552SOL    HW286554   5.671   0.054   6.793
61553SOL     OW86555   5.434   5.010   0.072
61553SOL    HW186556   5.392   5.069   0.134
61553SOL    HW286557   5.373   5.004  14.873
61554SOL     OW86558  12.595   9.523  11.709
61554SOL    HW186559  12.571   9.605  11.752
61554SOL    HW286560  12.682   9.503  11.742
61555SOL     OW86561  14.547   5.699   6.358
61555SOL    HW186562  14.637   5.671   6.376
61555SOL    HW286563  14.510   5.716   6.445
61556SOL     OW86564   6.871   2.593   9.825
61556SOL    HW186565   6.915   2.657   9.768
61556SOL    HW286566   6.779   2.599   9.801
61557SOL     OW86567   0.554   4.119  13.478
61557SOL    HW186568   0.589   4.063  13.547
61557SOL    HW286569   0.622   4.184  13.463
61558SOL     OW86570   5.506   1.260  13.443
61558SOL    HW186571   5.461   1.233  13.524
61558SOL    HW286572   5.435   1.279  13.382
61559SOL     OW86573  12.933  11.830   1.376
61559SOL    HW186574  12.867  11.873   1.322
61559SOL    HW286575  12.886  11.758   1.418
61560SOL     OW86576  10.897   3.008   8.184
61560SOL    HW186577  10.837   2.969   8.121
61560SOL    HW286578  10.927   2.933   8.237
61561SOL     OW86579   5.889   9.373   4.346
61561SOL    HW186580   5.867   9.457   4.385
61561SOL    HW286581   5.938   9.327   4.414
61562SOL     OW86582   2.225  13.451   8.235
61562SOL    HW186583   2.310  13.410   8.229
61562SOL    HW286584   2.175  13.414   8.162
61563SOL     OW86585   8.155   4.037  10.491
61563SOL    HW186586   8.162   4.070  10.581
61563SOL    HW286587   8.243   4.007  10.469
61564SOL     OW86588   2.872   6.722  12.147
61564SOL    HW186589   2.848   6.814  12.145
61564SOL    HW286590   2.963   6.720  12.117
61565SOL     OW86591   4.800  11.067   8.843
61565SOL    HW186592   4.757  10.982   8.845
61565SOL    HW286593   4.731  11.129   8.818
61566SOL     OW86594  12.691  11.854  14.380
61566SOL    HW186595  12.771  11.854  14.328
61566SOL    HW286596  12.658  11.943  14.372
61567SOL     OW86597  14.328   9.170  11.862
61567SOL    HW186598  14.403   9.229  11.874
61567SOL    HW286599  14.328   9.149  11.769
61568SOL     OW86600   0.320   4.060  13.344
61568SOL    HW186601   0.401   4.096  13.382
61568SOL    HW286602   0.250   4.110  13.387
61569SOL     OW86603   6.203  12.471   1.784
61569SOL    HW186604   6.257  12.527   1.728
61569SOL    HW286605   6.200  12.516   1.868
61570SOL     OW86606  12.912   5.099   3.320
61570SOL    HW186607  12.935   5.149   3.242
61570SOL    HW286608  12.856   5.158   3.371
61571SOL     OW86609   7.050  10.588   4.503
61571SOL    HW186610   6.973  10.622   4.458
61571SOL    HW286611   7.015  10.537   4.576
61572SOL     OW86612  13.912  10.688   3.995
61572SOL    HW186613  13.883  10.622   3.932
61572SOL    HW286614  13.987  10.649   4.039
61573SOL     OW86615  14.327   7.093   9.009
61573SOL    HW186616  14.319   6.998   9.022
61573SOL    HW286617  14.266   7.112   8.938
61574SOL     OW86618   9.739  14.519  12.562
61574SOL    HW186619   9.828  14.491  12.538
61574SOL    HW286620   9.748  14.613  12.580
61575SOL     OW86621  12.504   3.471   0.828
61575SOL    HW186622  12.471   3.491   0.741
61575SOL    HW286623  12.569   3.539   0.846
61576SOL     OW86624   6.665   3.128   3.584
61576SOL    HW186625   6.586   3.097   3.627
61576SOL    HW286626   6.690   3.206   3.634
61577SOL     OW86627   0.594  11.388   0.512
61577SOL    HW186628   0.682  11.398   0.474
61577SOL    HW286629   0.602  11.426   0.599
61578SOL     OW86630   7.129   4.301   2.468
61578SOL    HW186631   7.116   4.248   2.389
61578SOL    HW286632   7.189   4.370   2.439
61579SOL     OW86633  11.889   1.118   1.171
61579SOL    HW186634  11.960   1.179   1.192
61579SOL    HW286635  11.914   1.079   1.087
61580SOL     OW86636  14.067   1.517  13.528
61580SOL    HW186637  14.160   1.539  13.540
61580SOL    HW286638  14.047   1.458  13.601
61581SOL     OW86639  11.152   5.928   9.428
61581SOL    HW186640  11.122   5.877   9.503
61581SOL    HW286641  11.114   5.884   9.352
61582SOL     OW86642   5.769  10.562  11.820
61582SOL    HW186643   5.835  10.520  11.765
61582SOL    HW286644   5.714  10.489  11.850
61583SOL     OW86645  12.287   9.957  14.747
61583SOL    HW186646  12.224   9.974  14.677
61583SOL    HW286647  12.368   9.999  14.715
61584SOL     OW86648  14.391   2.537  13.996
61584SOL    HW186649  14.343   2.585  14.065
61584SOL    HW286650  14.435   2.466  14.042
61585SOL     OW86651   2.738   8.821  13.636
61585SOL    HW186652   2.791   8.791  13.562
61585SOL    HW286653   2.735   8.746  13.696
61586SOL     OW86654   2.270   0.113   2.170
61586SOL    HW186655   2.175   0.100   2.165
61586SOL    HW286656   2.300   0.046   2.232
61587SOL     OW86657   3.269   1.461   7.957
61587SOL    HW186658   3.362   1.455   7.979
61587SOL    HW286659   3.230   1.381   7.993
61588SOL     OW86660   2.343   0.289  10.885
61588SOL    HW186661   2.285   0.213  10.885
61588SOL    HW286662   2.422   0.259  10.929
61589SOL     OW86663   2.698  11.054   5.608
61589SOL    HW186664   2.677  10.980   5.665
61589SOL    HW286665   2.689  11.131   5.664
61590SOL     OW86666   9.248   1.006   4.655
61590SOL    HW186667   9.269   1.094   4.688
61590SOL    HW286668   9.173   1.019   4.597
61591SOL     OW86669   5.143   4.972  11.088
61591SOL    HW186670   5.206   5.014  11.030
61591SOL    HW286671   5.176   4.883  11.098
61592SOL     OW86672  13.704   4.440   4.009
61592SOL    HW186673  13.687   4.376   3.940
61592SOL    HW286674  13.723   4.521   3.961
61593SOL     OW86675   7.201  10.517  13.226
61593SOL    HW186676   7.215  10.612  13.235
61593SOL    HW286677   7.289  10.480  13.229
61594SOL     OW86678   1.740  12.937   2.127
61594SOL    HW186679   1.765  12.940   2.035
61594SOL    HW286680   1.748  12.845   2.152
61595SOL     OW86681  12.592   8.891   6.362
61595SOL    HW186682  12.588   8.823   6.429
61595SOL    HW286683  12.591   8.844   6.279
61596SOL     OW86684  13.629   0.779  10.492
61596SOL    HW186685  13.669   0.790  10.578
61596SOL    HW286686  13.656   0.857  10.443
61597SOL     OW86687   4.605   0.362   0.767
61597SOL    HW186688   4.575   0.436   0.714
61597SOL    HW286689   4.699   0.360   0.754
61598SOL     OW86690   9.020   5.817   9.963
61598SOL    HW186691   8.966   5.754   9.915
61598SOL    HW286692   9.041   5.773  10.046
61599SOL     OW86693  13.220   8.761   8.291
61599SOL    HW186694  13.312   8.778   8.272
61599SOL    HW286695  13.217   8.748   8.386
61600SOL     OW86696   8.544   3.663   4.151
61600SOL    HW186697   8.601   3.592   4.181
61600SOL    HW286698   8.459   3.621   4.136
61601SOL     OW86699   8.463  12.966   2.500
61601SOL    HW186700   8.380  12.920   2.494
61601SOL    HW286701   8.529  12.900   2.480
61602SOL     OW86702   8.950  14.427   7.752
61602SOL    HW186703   8.941  14.522   7.744
61602SOL    HW286704   9.026  14.405   7.698
61603SOL     OW86705   1.376   4.328   8.885
61603SOL    HW186706   1.414   4.240   8.897
61603SOL    HW286707   1.379   4.366   8.973
61604SOL     OW86708   2.130   6.501   1.162
61604SOL    HW186709   2.112   6.431   1.225
61604SOL    HW286710   2.197   6.463   1.104
61605SOL     OW86711  14.199  13.812  10.092
61605SOL    HW186712  14.295  13.816  10.093
61605SOL    HW286713  14.174  13.862  10.014
61606SOL     OW86714   5.258   6.124   0.806
61606SOL    HW186715   5.239   6.031   0.792
61606SOL    HW286716   5.281   6.129   0.899
61607SOL     OW86717   4.583   3.790  10.564
61607SOL    HW186718   4.492   3.769  10.540
61607SOL    HW286719   4.581   3.793  10.660
61608SOL     OW86720  14.682   5.801  11.466
61608SOL    HW186721  14.726   5.869  11.517
61608SOL    HW286722  14.687   5.832  11.375
61609SOL     OW86723   4.041  13.375   1.084
61609SOL    HW186724   4.007  13.434   1.151
61609SOL    HW286725   3.969  13.315   1.064
61610SOL     OW86726   3.208   3.870  11.629
61610SOL    HW186727   3.240   3.847  11.542
61610SOL    HW286728   3.172   3.789  11.665
61611SOL     OW86729   5.300  13.150   1.131
61611SOL    HW186730   5.308  13.132   1.225
61611SOL    HW286731   5.298  13.063   1.090
61612SOL     OW86732   4.080   3.010   3.586
61612SOL    HW186733   4.013   3.047   3.644
61612SOL    HW286734   4.163   3.039   3.624
61613SOL     OW86735   0.200   3.465   5.440
61613SOL    HW186736   0.229   3.539   5.387
61613SOL    HW286737   0.276   3.443   5.494
61614SOL     OW86738   9.285   1.259  10.406
61614SOL    HW186739   9.215   1.266  10.341
61614SOL    HW286740   9.243   1.281  10.489
61615SOL     OW86741   1.338   1.324   7.032
61615SOL    HW186742   1.343   1.362   7.120
61615SOL    HW286743   1.248   1.292   7.024
61616SOL     OW86744  10.109   2.171   8.825
61616SOL    HW186745  10.084   2.082   8.801
61616SOL    HW286746  10.166   2.199   8.753
61617SOL     OW86747  12.651   8.092  13.994
61617SOL    HW186748  12.592   8.156  13.954
61617SOL    HW286749  12.597   8.014  14.007
61618SOL     OW86750  13.576  12.482   3.242
61618SOL    HW186751  13.546  12.545   3.176
61618SOL    HW286752  13.617  12.412   3.192
61619SOL     OW86753   8.960   5.577  11.658
61619SOL    HW186754   8.964   5.565  11.753
61619SOL    HW286755   8.887   5.521  11.630
61620SOL     OW86756   2.670   5.310   4.134
61620SOL    HW186757   2.632   5.243   4.191
61620SOL    HW286758   2.669   5.389   4.187
61621SOL     OW86759   1.596   3.578   3.379
61621SOL    HW186760   1.520   3.627   3.411
61621SOL    HW286761   1.561   3.492   3.359
61622SOL     OW86762   4.621  11.061   3.403
61622SOL    HW186763   4.546  11.120   3.397
61622SOL    HW286764   4.669  11.074   3.321
61623SOL     OW86765  11.819   3.229   1.158
61623SOL    HW186766  11.913   3.237   1.172
61623SOL    HW286767  11.801   3.283   1.082
61624SOL     OW86768   1.656  11.371   3.953
61624SOL    HW186769   1.595  11.416   4.013
61624SOL    HW286770   1.741  11.409   3.973
61625SOL     OW86771  13.764  11.878   0.478
61625SOL    HW186772  13.727  11.947   0.423
61625SOL    HW286773  13.841  11.917   0.518
61626SOL     OW86774   2.933  12.561   8.846
61626SOL    HW186775   2.871  12.595   8.911
61626SOL    HW286776   2.997  12.632   8.837
61627SOL     OW86777   5.129  10.617  13.815
61627SOL    HW186778   5.098  10.557  13.748
61627SOL    HW286779   5.214  10.649  13.782
61628SOL     OW86780   9.554  14.466   4.780
61628SOL    HW186781   9.536  14.519   4.703
61628SOL    HW286782   9.601  14.390   4.746
61629SOL     OW86783  13.092   9.370   8.807
61629SOL    HW186784  13.119   9.370   8.715
61629SOL    HW286785  13.173   9.351   8.855
61630SOL     OW86786   9.364  14.590  14.563
61630SOL    HW186787   9.443  14.568  14.514
61630SOL    HW286788   9.299  14.525  14.534
61631SOL     OW86789  10.350   1.181   3.651
61631SOL    HW186790  10.310   1.260   3.688
61631SOL    HW286791  10.384   1.134   3.727
61632SOL     OW86792   3.833   3.663   6.818
61632SOL    HW186793   3.877   3.609   6.753
61632SOL    HW286794   3.867   3.632   6.902
61633SOL     OW86795   8.566   9.161   2.595
61633SOL    HW186796   8.633   9.221   2.629
61633SOL    HW286797   8.612   9.109   2.528
61634SOL     OW86798  10.962   6.513   8.341
61634SOL    HW186799  11.046   6.545   8.309
61634SOL    HW286800  10.951   6.428   8.298
61635SOL     OW86801   5.804   8.037   5.721
61635SOL    HW186802   5.816   8.016   5.629
61635SOL    HW286803   5.890   8.066   5.750
61636SOL     OW86804   5.476  13.519  10.025
61636SOL    HW186805   5.544  13.575  10.061
61636SOL    HW286806   5.520  13.466   9.958
61637SOL     OW86807   7.551  12.834   2.247
61637SOL    HW186808   7.641  12.829   2.215
61637SOL    HW286809   7.528  12.744   2.271
61638SOL     OW86810  11.318   8.136   4.261
61638SOL    HW186811  11.323   8.229   4.241
61638SOL    HW286812  11.388   8.121   4.325
61639SOL     OW86813  13.954   8.621   9.791
61639SOL    HW186814  13.904   8.609   9.710
61639SOL    HW286815  13.986   8.534   9.813
61640SOL     OW86816   1.775  11.705  14.852
61640SOL    HW186817   1.693  11.684   0.022
61640SOL    HW286818   1.769  11.658  14.769
61641SOL     OW86819   6.823   9.684  12.691
61641SOL    HW186820   6.744   9.651  12.735
61641SOL    HW286821   6.856   9.609  12.641
61642SOL     OW86822  12.066   0.670   9.380
61642SOL    HW186823  12.134   0.654   9.446
61642SOL    HW286824  11.985   0.638   9.421
61643SOL     OW86825   0.386   7.708   3.893
61643SOL    HW186826   0.450   7.729   3.960
61643SOL    HW286827   0.353   7.622   3.917
61644SOL     OW86828   4.002   3.563   5.985
61644SOL    HW186829   4.091   3.564   6.019
61644SOL    HW286830   4.000   3.635   5.921
61645SOL     OW86831   7.690   1.136   9.083
61645SOL    HW186832   7.608   1.123   9.036
61645SOL    HW286833   7.708   1.230   9.074
61646SOL     OW86834  10.794   3.537   8.614
61646SOL    HW186835  10.705   3.511   8.640
61646SOL    HW286836  10.781   3.606   8.549
61647SOL     OW86837  11.639   6.283  13.837
61647SOL    HW186838  11.713   6.312  13.784
61647SOL    HW286839  11.578   6.357  13.838
61648SOL     OW86840   9.951   3.960  11.439
61648SOL    HW186841  10.015   3.996  11.378
61648SOL    HW286842   9.982   3.986  11.526
61649SOL     OW86843   0.755   1.040   3.886
61649SOL    HW186844   0.728   0.992   3.808
61649SOL    HW286845   0.743   0.978   3.957
61650SOL     OW86846   8.982   4.121   1.835
61650SOL    HW186847   8.967   4.201   1.784
61650SOL    HW286848   9.058   4.081   1.793
61651SOL     OW86849  11.741   6.751   8.967
61651SOL    HW186850  11.699   6.822   9.016
61651SOL    HW286851  11.819   6.730   9.017
61652SOL     OW86852   6.842   9.240  14.795
61652SOL    HW186853   6.914   9.192  14.837
61652SOL    HW286854   6.885   9.306  14.741
61653SOL     OW86855   7.761   6.822   4.273
61653SOL    HW186856   7.707   6.891   4.313
61653SOL    HW286857   7.847   6.831   4.314
61654SOL     OW86858   0.238   8.443   2.425
61654SOL    HW186859   0.208   8.464   2.514
61654SOL    HW286860   0.312   8.501   2.410
61655SOL     OW86861   6.637  10.316   9.370
61655SOL    HW186862   6.697  10.380   9.332
61655SOL    HW286863   6.692  10.241   9.391
61656SOL     OW86864   8.985  10.509   9.285
61656SOL    HW186865   8.919  10.564   9.243
61656SOL    HW286866   9.051  10.494   9.217
61657SOL     OW86867   4.503  10.496  14.754
61657SOL    HW186868   4.451  10.492  14.674
61657SOL    HW286869   4.532  10.587  14.759
61658SOL     OW86870   8.499  10.966   0.024
61658SOL    HW186871   8.409  10.995   0.036
61658SOL    HW286872   8.521  10.919   0.105
61659SOL     OW86873   8.606   3.609   7.798
61659SOL    HW186874   8.521   3.648   7.814
61659SOL    HW286875   8.622   3.555   7.875
61660SOL     OW86876  11.296  10.896  12.996
61660SOL    HW186877  11.368  10.868  12.940
61660SOL    HW286878  11.338  10.948  13.065
61661SOL     OW86879   9.861   7.063  14.337
61661SOL    HW186880   9.794   7.107  14.390
61661SOL    HW286881   9.894   6.993  14.393
61662SOL     OW86882   0.841   7.093  13.108
61662SOL    HW186883   0.863   7.182  13.134
61662SOL    HW286884   0.917   7.063  13.058
61663SOL     OW86885  11.272  13.177   4.593
61663SOL    HW186886  11.255  13.224   4.675
61663SOL    HW286887  11.365  13.191   4.577
61664SOL     OW86888   8.389   0.983  14.288
61664SOL    HW186889   8.315   1.043  14.283
61664SOL    HW286890   8.425   0.982  14.199
61665SOL     OW86891   3.321  10.483   6.021
61665SOL    HW186892   3.306  10.404   5.969
61665SOL    HW286893   3.364  10.544   5.960
61666SOL     OW86894  13.266   4.741   2.086
61666SOL    HW186895  13.311   4.676   2.032
61666SOL    HW286896  13.272   4.823   2.036
61667SOL     OW86897   7.808   3.654   8.580
61667SOL    HW186898   7.884   3.694   8.623
61667SOL    HW286899   7.738   3.660   8.645
61668SOL     OW86900  13.048  10.985   8.881
61668SOL    HW186901  13.054  11.074   8.917
61668SOL    HW286902  13.111  10.934   8.931
61669SOL     OW86903  11.560  10.937   8.887
61669SOL    HW186904  11.632  10.875   8.873
61669SOL    HW286905  11.597  11.022   8.865
61670SOL     OW86906  14.446   2.184   6.315
61670SOL    HW186907  14.515   2.243   6.284
61670SOL    HW286908  14.421   2.220   6.400
61671SOL     OW86909   6.065   9.641  10.916
61671SOL    HW186910   6.139   9.675  10.965
61671SOL    HW286911   6.059   9.549  10.942
61672SOL     OW86912   8.011   1.248   3.039
61672SOL    HW186913   8.089   1.292   3.005
61672SOL    HW286914   7.940   1.280   2.983
61673SOL     OW86915   9.684  10.304   5.411
61673SOL    HW186916   9.670  10.279   5.502
61673SOL    HW286917   9.720  10.392   5.416
61674SOL     OW86918  11.278   7.684   2.390
61674SOL    HW186919  11.233   7.768   2.398
61674SOL    HW286920  11.238   7.629   2.458
61675SOL     OW86921   9.485   6.939   5.162
61675SOL    HW186922   9.453   6.851   5.183
61675SOL    HW286923   9.473   6.946   5.067
61676SOL     OW86924   8.651   0.386  13.213
61676SOL    HW186925   8.569   0.410  13.255
61676SOL    HW286926   8.638   0.297  13.182
61677SOL     OW86927   4.730   5.287   9.220
61677SOL    HW186928   4.636   5.269   9.227
61677SOL    HW286929   4.737   5.349   9.147
61678SOL     OW86930   7.840   4.334   1.052
61678SOL    HW186931   7.932   4.312   1.070
61678SOL    HW286932   7.791   4.283   1.117
61679SOL     OW86933   6.987   0.436  14.293
61679SOL    HW186934   7.005   0.372  14.361
61679SOL    HW286935   7.055   0.502  14.304
61680SOL     OW86936   9.772   0.752  10.302
61680SOL    HW186937   9.737   0.766  10.213
61680SOL    HW286938   9.742   0.829  10.351
61681SOL     OW86939  14.135  14.344   6.542
61681SOL    HW186940  14.095  14.259   6.554
61681SOL    HW286941  14.072  14.406   6.579
61682SOL     OW86942   8.132  10.527   3.396
61682SOL    HW186943   8.069  10.473   3.444
61682SOL    HW286944   8.127  10.494   3.306
61683SOL     OW86945  12.771  14.453   4.128
61683SOL    HW186946  12.677  14.467   4.140
61683SOL    HW286947  12.777  14.381   4.064
61684SOL     OW86948  12.640   3.871  10.119
61684SOL    HW186949  12.669   3.929  10.048
61684SOL    HW286950  12.632   3.928  10.195
61685SOL     OW86951   0.391   0.548   9.070
61685SOL    HW186952   0.470   0.587   9.108
61685SOL    HW286953   0.423   0.493   8.998
61686SOL     OW86954  13.608   4.981   0.128
61686SOL    HW186955  13.582   4.964   0.037
61686SOL    HW286956  13.527   5.003   0.172
61687SOL     OW86957   2.474   8.197   8.959
61687SOL    HW186958   2.380   8.212   8.974
61687SOL    HW286959   2.478   8.158   8.872
61688SOL     OW86960   6.886  12.713  11.492
61688SOL    HW186961   6.961  12.758  11.453
61688SOL    HW286962   6.854  12.655  11.423
61689SOL     OW86963   9.440   3.299  13.070
61689SOL    HW186964   9.417   3.247  12.994
61689SOL    HW286965   9.405   3.386  13.052
61690SOL     OW86966   1.516   4.003  13.898
61690SOL    HW186967   1.527   4.006  13.803
61690SOL    HW286968   1.578   4.068  13.931
61691SOL     OW86969   2.568   3.186   4.048
61691SOL    HW186970   2.478   3.174   4.077
61691SOL    HW286971   2.580   3.281   4.043
61692SOL     OW86972  13.032   3.874   4.768
61692SOL    HW186973  12.940   3.887   4.791
61692SOL    HW286974  13.051   3.784   4.795
61693SOL     OW86975   5.962   3.282  10.030
61693SOL    HW186976   5.988   3.324   9.948
61693SOL    HW286977   5.901   3.344  10.070
61694SOL     OW86978  14.309   0.569   2.058
61694SOL    HW186979  14.269   0.506   1.998
61694SOL    HW286980  14.355   0.514   2.122
61695SOL     OW86981   5.657   3.396   2.289
61695SOL    HW186982   5.706   3.331   2.340
61695SOL    HW286983   5.585   3.345   2.250
61696SOL     OW86984   7.338   1.832  13.830
61696SOL    HW186985   7.382   1.749  13.847
61696SOL    HW286986   7.319   1.868  13.917
61697SOL     OW86987  12.373   0.978  10.263
61697SOL    HW186988  12.324   0.967  10.345
61697SOL    HW286989  12.333   0.915  10.203
61698SOL     OW86990   1.455   3.351   8.886
61698SOL    HW186991   1.373   3.303   8.872
61698SOL    HW286992   1.432   3.422   8.946
61699SOL     OW86993  14.536  11.446  13.922
61699SOL    HW186994  14.565  11.458  13.831
61699SOL    HW286995  14.617  11.426  13.970
61700SOL     OW86996  13.270   1.238   5.207
61700SOL    HW186997  13.351   1.253   5.256
61700SOL    HW286998  13.202   1.276   5.261
61701SOL     OW86999  12.823   7.508   4.486
61701SOL    HW187000  12.873   7.588   4.506
61701SOL    HW287001  12.836   7.496   4.392
61702SOL     OW87002   6.424   4.247  13.731
61702SOL    HW187003   6.507   4.199  13.723
61702SOL    HW287004   6.439   4.327  13.681
61703SOL     OW87005   2.452   2.102   1.000
61703SOL    HW187006   2.461   2.194   0.975
61703SOL    HW287007   2.417   2.059   0.922
61704SOL     OW87008   1.544   5.622  12.968
61704SOL    HW187009   1.568   5.708  12.932
61704SOL    HW287010   1.475   5.590  12.911
61705SOL     OW87011  12.818   7.432   0.938
61705SOL    HW187012  12.755   7.503   0.923
61705SOL    HW287013  12.868   7.427   0.856
61706SOL     OW87014   9.569   4.204   9.306
61706SOL    HW187015   9.633   4.133   9.319
61706SOL    HW287016   9.570   4.219   9.212
61707SOL     OW87017  13.989  12.486  10.755
61707SOL    HW187018  14.037  12.561  10.720
61707SOL    HW287019  14.032  12.467  10.839
61708SOL     OW87020  11.067   4.543  14.785
61708SOL    HW187021  10.983   4.497  14.772
61708SOL    HW287022  11.046   4.635  14.770
61709SOL     OW87023   4.438   1.446  11.675
61709SOL    HW187024   4.473   1.454  11.763
61709SOL    HW287025   4.506   1.399  11.626
61710SOL     OW87026   6.009   7.217   9.803
61710SOL    HW187027   6.002   7.257   9.890
61710SOL    HW287028   6.096   7.176   9.802
61711SOL     OW87029   9.403   7.934  14.065
61711SOL    HW187030   9.458   7.856  14.063
61711SOL    HW287031   9.331   7.911  14.123
61712SOL     OW87032  12.325  13.728  10.466
61712SOL    HW187033  12.237  13.726  10.429
61712SOL    HW287034  12.312  13.734  10.560
61713SOL     OW87035   9.428  14.203   3.924
61713SOL    HW187036   9.466  14.125   3.965
61713SOL    HW287037   9.339  14.208   3.959
61714SOL     OW87038  10.914   2.790  13.748
61714SOL    HW187039  10.848   2.817  13.684
61714SOL    HW287040  10.953   2.711  13.711
61715SOL     OW87041  11.252   1.081  14.832
61715SOL    HW187042  11.286   1.065   0.045
61715SOL    HW287043  11.292   1.164  14.805
61716SOL     OW87044   3.557   2.312  13.102
61716SOL    HW187045   3.595   2.270  13.024
61716SOL    HW287046   3.507   2.243  13.145
61717SOL     OW87047   3.001   9.560  11.039
61717SOL    HW187048   3.050   9.511  11.105
61717SOL    HW287049   2.967   9.493  10.980
61718SOL     OW87050   9.236  11.301   7.016
61718SOL    HW187051   9.320  11.325   6.977
61718SOL    HW287052   9.238  11.205   7.019
61719SOL     OW87053   1.910   8.063  14.158
61719SOL    HW187054   1.843   8.038  14.222
61719SOL    HW287055   1.977   7.995  14.165
61720SOL     OW87056   2.318   2.460   7.664
61720SOL    HW187057   2.226   2.478   7.685
61720SOL    HW287058   2.364   2.468   7.748
61721SOL     OW87059   6.454   4.457   4.669
61721SOL    HW187060   6.378   4.513   4.654
61721SOL    HW287061   6.499   4.453   4.585
61722SOL     OW87062   5.598   8.680  13.852
61722SOL    HW187063   5.660   8.736  13.806
61722SOL    HW287064   5.645   8.598  13.866
61723SOL     OW87065   9.779   9.439  10.491
61723SOL    HW187066   9.723   9.464  10.418
61723SOL    HW287067   9.821   9.358  10.462
61724SOL     OW87068  11.044  11.457  13.933
61724SOL    HW187069  10.968  11.514  13.924
61724SOL    HW287070  11.024  11.381  13.878
61725SOL     OW87071   9.323   5.111   2.852
61725SOL    HW187072   9.394   5.072   2.904
61725SOL    HW287073   9.246   5.102   2.907
61726SOL     OW87074   9.710   0.630   5.259
61726SOL    HW187075   9.669   0.714   5.241
61726SOL    HW287076   9.674   0.571   5.192
61727SOL     OW87077   1.462   8.934   2.275
61727SOL    HW187078   1.523   8.966   2.341
61727SOL    HW287079   1.501   8.959   2.191
61728SOL     OW87080   1.850   6.015   5.187
61728SOL    HW187081   1.764   5.985   5.157
61728SOL    HW287082   1.848   6.004   5.282
61729SOL     OW87083   5.695   0.529   1.721
61729SOL    HW187084   5.668   0.615   1.751
61729SOL    HW287085   5.790   0.535   1.714
61730SOL     OW87086   3.557  12.491   5.478
61730SOL    HW187087   3.610  12.570   5.479
61730SOL    HW287088   3.556  12.464   5.387
61731SOL     OW87089   9.308  13.316   3.008
61731SOL    HW187090   9.223  13.338   2.969
61731SOL    HW287091   9.318  13.222   2.992
61732SOL     OW87092  14.028   9.061   9.259
61732SOL    HW187093  14.113   9.101   9.242
61732SOL    HW287094  14.019   8.994   9.191
61733SOL     OW87095   4.000   5.844  14.782
61733SOL    HW187096   4.053   5.847  14.862
61733SOL    HW287097   4.059   5.874  14.713
61734SOL     OW87098   1.594  12.303  12.612
61734SOL    HW187099   1.613  12.313  12.519
61734SOL    HW287100   1.618  12.213  12.632
61735SOL     OW87101  10.197   2.466   9.687
61735SOL    HW187102  10.122   2.461   9.628
61735SOL    HW287103  10.167   2.423   9.767
61736SOL     OW87104  10.137   0.807   8.404
61736SOL    HW187105  10.114   0.899   8.393
61736SOL    HW287106  10.210   0.808   8.466
61737SOL     OW87107   3.804   3.775  11.399
61737SOL    HW187108   3.852   3.739  11.325
61737SOL    HW287109   3.784   3.700  11.455
61738SOL     OW87110   1.372   6.590  13.458
61738SOL    HW187111   1.396   6.668  13.408
61738SOL    HW287112   1.423   6.520  13.417
61739SOL     OW87113   4.050   7.810  11.190
61739SOL    HW187114   4.011   7.881  11.139
61739SOL    HW287115   4.144   7.831  11.192
61740SOL     OW87116   7.470   5.114   7.444
61740SOL    HW187117   7.524   5.041   7.416
61740SOL    HW287118   7.501   5.189   7.393
61741SOL     OW87119   2.442   5.769   9.448
61741SOL    HW187120   2.368   5.725   9.404
61741SOL    HW287121   2.401   5.842   9.495
61742SOL     OW87122   9.303   0.332   2.001
61742SOL    HW187123   9.283   0.310   1.910
61742SOL    HW287124   9.336   0.250   2.039
61743SOL     OW87125  14.363   9.219  14.628
61743SOL    HW187126  14.414   9.143  14.658
61743SOL    HW287127  14.317   9.187  14.551
61744SOL     OW87128  13.440   7.025  13.408
61744SOL    HW187129  13.356   6.985  13.385
61744SOL    HW287130  13.497   6.951  13.427
61745SOL     OW87131   6.904  11.223   0.122
61745SOL    HW187132   6.984  11.176   0.099
61745SOL    HW287133   6.898  11.292   0.056
61746SOL     OW87134  10.191   1.216   5.014
61746SOL    HW187135  10.279   1.200   5.049
61746SOL    HW287136  10.134   1.162   5.069
61747SOL     OW87137  13.516   3.335   6.644
61747SOL    HW187138  13.609   3.318   6.630
61747SOL    HW287139  13.513   3.424   6.680
61748SOL     OW87140   2.134   3.457   2.189
61748SOL    HW187141   2.149   3.537   2.239
61748SOL    HW287142   2.042   3.460   2.166
61749SOL     OW87143   3.145   4.533  12.681
61749SOL    HW187144   3.146   4.628  12.691
61749SOL    HW287145   3.213   4.515  12.615
61750SOL     OW87146   3.246   6.192   9.635
61750SOL    HW187147   3.308   6.174   9.705
61750SOL    HW287148   3.173   6.236   9.678
61751SOL     OW87149  10.920   0.657   0.558
61751SOL    HW187150  10.953   0.732   0.607
61751SOL    HW287151  10.992   0.594   0.559
61752SOL     OW87152  14.820  13.557  11.028
61752SOL    HW187153  14.791  13.614  10.957
61752SOL    HW287154  14.747  13.556  11.090
61753SOL     OW87155   9.983   3.703   2.693
61753SOL    HW187156   9.998   3.707   2.787
61753SOL    HW287157  10.064   3.735   2.654
61754SOL     OW87158   4.995   3.445   9.375
61754SOL    HW187159   4.958   3.521   9.330
61754SOL    HW287160   4.926   3.418   9.437
61755SOL     OW87161   8.281   6.398  10.397
61755SOL    HW187162   8.327   6.473  10.434
61755SOL    HW287163   8.239   6.433  10.318
61756SOL     OW87164   4.453   6.307   2.906
61756SOL    HW187165   4.380   6.353   2.864
61756SOL    HW287166   4.420   6.286   2.994
61757SOL     OW87167   1.945   7.745   2.681
61757SOL    HW187168   2.016   7.718   2.624
61757SOL    HW287169   1.917   7.830   2.647
61758SOL     OW87170  11.549  10.947   5.451
61758SOL    HW187171  11.631  10.908   5.423
61758SOL    HW287172  11.541  11.026   5.396
61759SOL     OW87173   0.643   2.478   3.133
61759SOL    HW187174   0.645   2.449   3.224
61759SOL    HW287175   0.669   2.570   3.137
61760SOL     OW87176  14.056   1.971  12.435
61760SOL    HW187177  13.965   1.990  12.457
61760SOL    HW287178  14.087   2.050  12.391
61761SOL     OW87179   4.701   5.351  10.152
61761SOL    HW187180   4.659   5.287  10.209
61761SOL    HW287181   4.700   5.432  10.203
61762SOL     OW87182   8.139  11.833   2.946
61762SOL    HW187183   8.127  11.804   3.036
61762SOL    HW287184   8.223  11.795   2.919
61763SOL     OW87185   0.426  13.394  14.479
61763SOL    HW187186   0.406  13.357  14.393
61763SOL    HW287187   0.361  13.462  14.492
61764SOL     OW87188   1.829   7.028  12.587
61764SOL    HW187189   1.756   6.972  12.613
61764SOL    HW287190   1.793   7.116  12.589
61765SOL     OW87191   1.526  11.141  10.186
61765SOL    HW187192   1.601  11.136  10.127
61765SOL    HW287193   1.547  11.080  10.257
61766SOL     OW87194  14.073   6.583  10.111
61766SOL    HW187195  14.024   6.592  10.029
61766SOL    HW287196  14.022   6.521  10.163
61767SOL     OW87197   0.252   7.099  13.535
61767SOL    HW187198   0.187   7.035  13.506
61767SOL    HW287199   0.333   7.072  13.492
61768SOL     OW87200   4.705   5.963   8.948
61768SOL    HW187201   4.731   5.919   8.867
61768SOL    HW287202   4.615   5.934   8.963
61769SOL     OW87203  11.876   5.421  12.625
61769SOL    HW187204  11.836   5.491  12.573
61769SOL    HW287205  11.814   5.348  12.618
61770SOL     OW87206   0.946   6.021   7.885
61770SOL    HW187207   0.952   5.931   7.917
61770SOL    HW287208   0.873   6.020   7.824
61771SOL     OW87209   6.518  13.049   5.759
61771SOL    HW187210   6.461  13.081   5.688
61771SOL    HW287211   6.606  13.049   5.720
61772SOL     OW87212   4.504  14.442  10.584
61772SOL    HW187213   4.529  14.356  10.619
61772SOL    HW287214   4.409  14.441  10.584
61773SOL     OW87215  10.651   7.753   9.409
61773SOL    HW187216  10.675   7.661   9.400
61773SOL    HW287217  10.556   7.753   9.413
61774SOL     OW87218  12.528   2.401  10.218
61774SOL    HW187219  12.622   2.388  10.228
61774SOL    HW287220  12.519   2.458  10.142
61775SOL     OW87221   0.924  13.311  11.775
61775SOL    HW187222   0.916  13.347  11.863
61775SOL    HW287223   0.835  13.287  11.749
61776SOL     OW87224   9.064  13.305   1.034
61776SOL    HW187225   9.099  13.365   1.100
61776SOL    HW287226   9.078  13.350   0.950
61777SOL     OW87227   2.372   9.402   8.585
61777SOL    HW187228   2.416   9.484   8.564
61777SOL    HW287229   2.334   9.373   8.502
61778SOL     OW87230   6.435   5.583  12.637
61778SOL    HW187231   6.361   5.620  12.589
61778SOL    HW287232   6.485   5.659  12.666
61779SOL     OW87233   3.700  12.070   3.877
61779SOL    HW187234   3.676  12.020   3.955
61779SOL    HW287235   3.761  12.137   3.910
61780SOL     OW87236   2.271   8.032   8.814
61780SOL    HW187237   2.187   8.021   8.860
61780SOL    HW287238   2.316   7.948   8.826
61781SOL     OW87239  14.764   4.511  12.595
61781SOL    HW187240  14.729   4.595  12.566
61781SOL    HW287241  14.852   4.508  12.557
61782SOL     OW87242   9.283   5.195   2.432
61782SOL    HW187243   9.365   5.232   2.399
61782SOL    HW287244   9.216   5.231   2.374
61783SOL     OW87245   5.534   4.702  14.277
61783SOL    HW187246   5.600   4.770  14.260
61783SOL    HW287247   5.538   4.688  14.372
61784SOL     OW87248   2.883  12.211  10.674
61784SOL    HW187249   2.966  12.191  10.631
61784SOL    HW287250   2.841  12.275  10.616
61785SOL     OW87251   7.319   0.233   3.625
61785SOL    HW187252   7.414   0.224   3.610
61785SOL    HW287253   7.305   0.197   3.712
61786SOL     OW87254   1.032  11.712   4.165
61786SOL    HW187255   1.096  11.768   4.209
61786SOL    HW287256   0.987  11.770   4.103
61787SOL     OW87257   3.638  11.534   3.264
61787SOL    HW187258   3.667  11.443   3.261
61787SOL    HW287259   3.673  11.568   3.346
61788SOL     OW87260  10.914  11.881  11.554
61788SOL    HW187261  10.845  11.858  11.492
61788SOL    HW287262  10.868  11.906  11.634
61789SOL     OW87263  12.771   8.059  10.545
61789SOL    HW187264  12.719   7.986  10.581
61789SOL    HW287265  12.708   8.131  10.537
61790SOL     OW87266  14.244   2.557   5.176
61790SOL    HW187267  14.279   2.468   5.178
61790SOL    HW287268  14.250   2.583   5.084
61791SOL     OW87269   1.988   1.552  14.784
61791SOL    HW187270   2.003   1.625  14.845
61791SOL    HW287271   1.909   1.509  14.817
61792SOL     OW87272   2.340   6.516   7.063
61792SOL    HW187273   2.300   6.516   7.150
61792SOL    HW287274   2.294   6.447   7.015
61793SOL     OW87275  12.989   7.768  12.694
61793SOL    HW187276  13.035   7.851  12.706
61793SOL    HW287277  13.012   7.741  12.605
61794SOL     OW87278   9.281  14.831   4.019
61794SOL    HW187279   9.337  14.862   4.090
61794SOL    HW287280   9.194  14.824   4.057
61795SOL     OW87281   6.446  10.736   5.950
61795SOL    HW187282   6.518  10.752   5.889
61795SOL    HW287283   6.489  10.704   6.029
61796SOL     OW87284   9.687   1.930  11.496
61796SOL    HW187285   9.737   1.849  11.489
61796SOL    HW287286   9.606   1.913  11.449
61797SOL     OW87287   8.079  13.154   4.903
61797SOL    HW187288   8.057  13.139   4.995
61797SOL    HW287289   8.022  13.226   4.877
61798SOL     OW87290  12.298   9.719   8.209
61798SOL    HW187291  12.313   9.633   8.170
61798SOL    HW287292  12.343   9.715   8.294
61799SOL     OW87293  10.905   2.218  13.904
61799SOL    HW187294  10.863   2.293  13.945
61799SOL    HW287295  10.999   2.235  13.913
61800SOL     OW87296   7.736   7.869   0.647
61800SOL    HW187297   7.720   7.935   0.715
61800SOL    HW287298   7.695   7.906   0.568
61801SOL     OW87299   5.686   7.856   5.897
61801SOL    HW187300   5.721   7.916   5.830
61801SOL    HW287301   5.668   7.775   5.850
61802SOL     OW87302   7.932   8.565   5.372
61802SOL    HW187303   7.860   8.628   5.379
61802SOL    HW287304   7.900   8.501   5.308
61803SOL     OW87305   8.085   4.788  13.982
61803SOL    HW187306   8.055   4.856  14.043
61803SOL    HW287307   8.032   4.802  13.904
61804SOL     OW87308  12.198  12.756   0.842
61804SOL    HW187309  12.121  12.701   0.831
61804SOL    HW287310  12.253  12.736   0.767
61805SOL     OW87311  10.607   6.798   9.373
61805SOL    HW187312  10.624   6.860   9.303
61805SOL    HW287313  10.592   6.714   9.329
61806SOL     OW87314  10.767   1.549  10.266
61806SOL    HW187315  10.788   1.565  10.358
61806SOL    HW287316  10.685   1.500  10.268
61807SOL     OW87317  12.349   9.469   8.432
61807SOL    HW187318  12.259   9.465   8.465
61807SOL    HW287319  12.367   9.379   8.404
61808SOL     OW87320  13.625   7.038   5.031
61808SOL    HW187321  13.699   7.066   4.978
61808SOL    HW287322  13.650   6.951   5.063
61809SOL     OW87323   5.478  13.784  13.343
61809SOL    HW187324   5.425  13.739  13.409
61809SOL    HW287325   5.425  13.781  13.263
61810SOL     OW87326  14.329   9.948  10.541
61810SOL    HW187327  14.275   9.871  10.551
61810SOL    HW287328  14.381   9.952  10.622
61811SOL     OW87329   3.686   3.693   4.214
61811SOL    HW187330   3.621   3.728   4.274
61811SOL    HW287331   3.674   3.743   4.133
61812SOL     OW87332   3.146  13.814   3.774
61812SOL    HW187333   3.228  13.844   3.735
61812SOL    HW287334   3.172  13.771   3.855
61813SOL     OW87335  12.400   6.493   0.619
61813SOL    HW187336  12.372   6.567   0.565
61813SOL    HW287337  12.393   6.524   0.709
61814SOL     OW87338  12.362   2.931  10.674
61814SOL    HW187339  12.455   2.916  10.684
61814SOL    HW287340  12.325   2.844  10.658
61815SOL     OW87341  10.959   4.115   2.952
61815SOL    HW187342  11.030   4.175   2.977
61815SOL    HW287343  10.974   4.098   2.859
61816SOL     OW87344  10.825   2.093  13.143
61816SOL    HW187345  10.803   2.026  13.208
61816SOL    HW287346  10.885   2.152  13.189
61817SOL     OW87347   3.319   0.569  10.860
61817SOL    HW187348   3.360   0.589  10.944
61817SOL    HW287349   3.302   0.655  10.821
61818SOL     OW87350  13.850  11.991  12.708
61818SOL    HW187351  13.769  11.945  12.691
61818SOL    HW287352  13.904  11.975  12.630
61819SOL     OW87353  13.114  14.766  11.771
61819SOL    HW187354  13.108  14.675  11.742
61819SOL    HW287355  13.209  14.783  11.777
61820SOL     OW87356  10.435   8.831   7.779
61820SOL    HW187357  10.353   8.799   7.743
61820SOL    HW287358  10.411   8.908   7.830
61821SOL     OW87359  13.555   4.639   4.656
61821SOL    HW187360  13.545   4.688   4.737
61821SOL    HW287361  13.532   4.549   4.680
61822SOL     OW87362   2.280   4.793  13.877
61822SOL    HW187363   2.304   4.868  13.823
61822SOL    HW287364   2.354   4.732  13.867
61823SOL     OW87365  11.207   9.356   6.903
61823SOL    HW187366  11.117   9.387   6.914
61823SOL    HW287367  11.262   9.426   6.939
61824SOL     OW87368   8.393   1.353  11.152
61824SOL    HW187369   8.405   1.439  11.113
61824SOL    HW287370   8.307   1.356  11.192
61825SOL     OW87371   3.640  14.020   8.419
61825SOL    HW187372   3.569  14.058   8.470
61825SOL    HW287373   3.596  13.975   8.347
61826SOL     OW87374   0.366  12.218  11.387
61826SOL    HW187375   0.364  12.255  11.298
61826SOL    HW287376   0.306  12.143  11.382
61827SOL     OW87377  10.669  11.830   0.817
61827SOL    HW187378  10.692  11.895   0.884
61827SOL    HW287379  10.736  11.840   0.749
61828SOL     OW87380   5.033  12.538   5.719
61828SOL    HW187381   5.029  12.630   5.690
61828SOL    HW287382   4.946  12.519   5.753
61829SOL     OW87383   4.790   2.798   9.081
61829SOL    HW187384   4.722   2.749   9.035
61829SOL    HW287385   4.743   2.846   9.149
61830SOL     OW87386   0.473   2.465   0.170
61830SOL    HW187387   0.457   2.543   0.117
61830SOL    HW287388   0.407   2.402   0.141
61831SOL     OW87389  11.553   8.403   3.527
61831SOL    HW187390  11.484   8.462   3.496
61831SOL    HW287391  11.548   8.408   3.622
61832SOL     OW87392   6.252   1.201   9.515
61832SOL    HW187393   6.273   1.278   9.568
61832SOL    HW287394   6.235   1.235   9.428
61833SOL     OW87395   2.860  10.585   3.419
61833SOL    HW187396   2.858  10.491   3.438
61833SOL    HW287397   2.818  10.592   3.334
61834SOL     OW87398   8.208  10.422   2.392
61834SOL    HW187399   8.168  10.395   2.310
61834SOL    HW287400   8.291  10.463   2.366
61835SOL     OW87401   2.872   6.111   1.566
61835SOL    HW187402   2.871   6.021   1.534
61835SOL    HW287403   2.825   6.107   1.649
61836SOL     OW87404   9.956   9.352   8.774
61836SOL    HW187405   9.958   9.406   8.854
61836SOL    HW287406   9.999   9.407   8.708
61837SOL     OW87407   3.561   2.582   2.431
61837SOL    HW187408   3.506   2.567   2.355
61837SOL    HW287409   3.651   2.578   2.397
61838SOL     OW87410   3.516   2.048   6.588
61838SOL    HW187411   3.537   2.109   6.517
61838SOL    HW287412   3.598   2.037   6.635
61839SOL     OW87413   7.140   4.113   3.529
61839SOL    HW187414   7.234   4.116   3.510
61839SOL    HW287415   7.126   4.026   3.565
61840SOL     OW87416   0.040   7.595  11.047
61840SOL    HW187417   0.037   7.671  11.105
61840SOL    HW287418  14.834   7.548  11.064
61841SOL     OW87419   1.929   2.929  11.025
61841SOL    HW187420   1.915   2.924  11.120
61841SOL    HW287421   1.853   2.978  10.992
61842SOL     OW87422  13.062   1.765   5.773
61842SOL    HW187423  13.155   1.765   5.754
61842SOL    HW287424  13.056   1.795   5.864
61843SOL     OW87425   7.216   0.297   4.818
61843SOL    HW187426   7.165   0.246   4.754
61843SOL    HW287427   7.267   0.358   4.765
61844SOL     OW87428   1.224  12.380  10.295
61844SOL    HW187429   1.175  12.450  10.251
61844SOL    HW287430   1.315  12.412  10.296
61845SOL     OW87431   8.169  14.654   8.839
61845SOL    HW187432   8.151  14.685   8.750
61845SOL    HW287433   8.094  14.684   8.891
61846SOL     OW87434  12.140   6.314   7.602
61846SOL    HW187435  12.109   6.366   7.677
61846SOL    HW287436  12.081   6.338   7.531
61847SOL     OW87437   8.120   0.855  11.518
61847SOL    HW187438   8.027   0.850  11.544
61847SOL    HW287439   8.143   0.947  11.533
61848SOL     OW87440  14.228  12.683   9.437
61848SOL    HW187441  14.184  12.612   9.483
61848SOL    HW287442  14.268  12.736   9.507
61849SOL     OW87443  14.731  11.998   9.640
61849SOL    HW187444  14.650  12.048   9.637
61849SOL    HW287445  14.720  11.937   9.712
61850SOL     OW87446  10.667   6.266  10.758
61850SOL    HW187447  10.601   6.331  10.780
61850SOL    HW287448  10.705   6.296  10.675
61851SOL     OW87449  10.473  14.337   4.765
61851SOL    HW187450  10.397  14.305   4.815
61851SOL    HW287451  10.544  14.339   4.828
61852SOL     OW87452   4.778   8.497   7.861
61852SOL    HW187453   4.784   8.412   7.816
61852SOL    HW287454   4.773   8.561   7.790
61853SOL     OW87455   5.513  13.150   6.560
61853SOL    HW187456   5.579  13.081   6.552
61853SOL    HW287457   5.557  13.221   6.607
61854SOL     OW87458  10.950   6.831   4.787
61854SOL    HW187459  10.946   6.776   4.709
61854SOL    HW287460  10.869   6.883   4.783
61855SOL     OW87461  13.471   0.301   0.606
61855SOL    HW187462  13.456   0.389   0.640
61855SOL    HW287463  13.512   0.253   0.678
61856SOL     OW87464   9.636  12.189   7.904
61856SOL    HW187465   9.595  12.114   7.861
61856SOL    HW287466   9.634  12.167   7.997
61857SOL     OW87467  13.458   9.290   4.004
61857SOL    HW187468  13.506   9.235   4.065
61857SOL    HW287469  13.414   9.355   4.059
61858SOL     OW87470   6.150   8.306  13.242
61858SOL    HW187471   6.145   8.371  13.312
61858SOL    HW287472   6.228   8.255  13.263
61859SOL     OW87473   3.115   1.062  12.299
61859SOL    HW187474   3.048   1.129  12.288
61859SOL    HW287475   3.190   1.109  12.336
61860SOL     OW87476   7.429  14.125   8.200
61860SOL    HW187477   7.428  14.169   8.286
61860SOL    HW287478   7.352  14.159   8.155
61861SOL     OW87479   4.118   7.156  12.338
61861SOL    HW187480   4.183   7.211  12.294
61861SOL    HW287481   4.034   7.192  12.309
61862SOL     OW87482   2.188  13.628   4.666
61862SOL    HW187483   2.102  13.605   4.700
61862SOL    HW287484   2.234  13.668   4.739
61863SOL     OW87485  10.207  13.675  14.073
61863SOL    HW187486  10.265  13.716  14.009
61863SOL    HW287487  10.231  13.715  14.156
61864SOL     OW87488  13.789   5.423   3.849
61864SOL    HW187489  13.716   5.405   3.907
61864SOL    HW287490  13.864   5.381   3.891
61865SOL     OW87491   4.083   6.193   6.101
61865SOL    HW187492   4.111   6.114   6.053
61865SOL    HW287493   3.996   6.171   6.134
61866SOL     OW87494   3.001   2.832  14.104
61866SOL    HW187495   3.046   2.870  14.179
61866SOL    HW287496   3.065   2.770  14.067
61867SOL     OW87497   8.900  11.417  13.811
61867SOL    HW187498   8.894  11.406  13.906
61867SOL    HW287499   8.910  11.512  13.798
61868SOL     OW87500  11.660   2.207   1.261
61868SOL    HW187501  11.681   2.295   1.291
61868SOL    HW287502  11.711   2.149   1.317
61869SOL     OW87503  10.819   0.032  10.973
61869SOL    HW187504  10.883   0.096  11.005
61869SOL    HW287505  10.735   0.067  11.000
61870SOL     OW87506   6.851  10.846  14.776
61870SOL    HW187507   6.910  10.870  14.847
61870SOL    HW287508   6.766  10.832  14.820
61871SOL     OW87509   9.326   2.737   5.172
61871SOL    HW187510   9.318   2.690   5.090
61871SOL    HW287511   9.331   2.830   5.147
61872SOL     OW87512  14.482   0.067  14.572
61872SOL    HW187513  14.420   0.133  14.542
61872SOL    HW287514  14.433   0.015  14.635
61873SOL     OW87515  12.568   6.389  11.053
61873SOL    HW187516  12.615   6.472  11.061
61873SOL    HW287517  12.612   6.331  11.116
61874SOL     OW87518   7.654  11.418  12.091
61874SOL    HW187519   7.634  11.331  12.057
61874SOL    HW287520   7.745  11.411  12.119
61875SOL     OW87521   4.912   9.406   8.579
61875SOL    HW187522   4.891   9.314   8.592
61875SOL    HW287523   4.834   9.453   8.608
61876SOL     OW87524  10.720   0.984  11.141
61876SOL    HW187525  10.722   0.945  11.054
61876SOL    HW287526  10.667   0.924  11.193
61877SOL     OW87527   7.526   1.863  12.042
61877SOL    HW187528   7.431   1.866  12.032
61877SOL    HW287529   7.548   1.941  12.092
61878SOL     OW87530   7.646   8.424   7.912
61878SOL    HW187531   7.581   8.354   7.913
61878SOL    HW287532   7.611   8.488   7.850
61879SOL     OW87533  12.488   5.047  10.464
61879SOL    HW187534  12.584   5.048  10.470
61879SOL    HW287535  12.459   5.111  10.529
61880SOL     OW87536   1.355   4.526   7.187
61880SOL    HW187537   1.366   4.564   7.100
61880SOL    HW287538   1.262   4.508   7.195
61881SOL     OW87539  13.200   2.238  11.335
61881SOL    HW187540  13.159   2.277  11.412
61881SOL    HW287541  13.282   2.286  11.324
61882SOL     OW87542   4.954   2.139   5.126
61882SOL    HW187543   4.933   2.110   5.215
61882SOL    HW287544   5.038   2.097   5.107
61883SOL     OW87545   1.446   6.940   5.545
61883SOL    HW187546   1.538   6.914   5.552
61883SOL    HW287547   1.450   7.028   5.507
61884SOL     OW87548   9.512  10.775   6.066
61884SOL    HW187549   9.569  10.791   6.141
61884SOL    HW287550   9.527  10.850   6.008
61885SOL     OW87551   4.943   0.026   7.925
61885SOL    HW187552   5.039   0.033   7.920
61885SOL    HW287553   4.924  14.812   7.897
61886SOL     OW87554   2.869  12.302   3.012
61886SOL    HW187555   2.899  12.311   3.103
61886SOL    HW287556   2.793  12.244   3.018
61887SOL     OW87557   5.595   8.516   6.975
61887SOL    HW187558   5.597   8.420   6.973
61887SOL    HW287559   5.670   8.542   6.921
61888SOL     OW87560   7.718  11.585  12.402
61888SOL    HW187561   7.745  11.531  12.476
61888SOL    HW287562   7.776  11.559  12.330
61889SOL     OW87563   6.581  12.092   7.042
61889SOL    HW187564   6.578  12.006   7.084
61889SOL    HW287565   6.593  12.074   6.949
61890SOL     OW87566  14.125   3.732  13.346
61890SOL    HW187567  14.031   3.748  13.349
61890SOL    HW287568  14.163   3.805  13.395
61891SOL     OW87569  12.781  11.645  11.683
61891SOL    HW187570  12.827  11.692  11.752
61891SOL    HW287571  12.748  11.566  11.726
61892SOL     OW87572   8.175  14.815   1.624
61892SOL    HW187573   8.167  14.849   1.535
61892SOL    HW287574   8.140  14.726   1.619
61893SOL     OW87575   4.125   8.475  14.203
61893SOL    HW187576   4.047   8.529  14.215
61893SOL    HW287577   4.121   8.449  14.111
61894SOL     OW87578  10.184   6.553   6.963
61894SOL    HW187579  10.238   6.476   6.951
61894SOL    HW287580  10.095   6.519   6.972
61895SOL     OW87581  11.362   6.703   1.051
61895SOL    HW187582  11.286   6.714   0.994
61895SOL    HW287583  11.336   6.743   1.134
61896SOL     OW87584  10.693   3.910   4.083
61896SOL    HW187585  10.770   3.873   4.126
61896SOL    HW287586  10.721   3.998   4.056
61897SOL     OW87587   9.558   6.098   1.559
61897SOL    HW187588   9.627   6.146   1.604
61897SOL    HW287589   9.492   6.082   1.628
61898SOL     OW87590   5.026   7.355   8.641
61898SOL    HW187591   4.968   7.421   8.603
61898SOL    HW287592   4.978   7.323   8.718
61899SOL     OW87593  13.407   3.600   8.613
61899SOL    HW187594  13.370   3.513   8.602
61899SOL    HW287595  13.492   3.585   8.654
61900SOL     OW87596  12.211   6.609  10.100
61900SOL    HW187597  12.250   6.648  10.178
61900SOL    HW287598  12.281   6.608  10.035
61901SOL     OW87599   2.243  14.538  11.813
61901SOL    HW187600   2.267  14.608  11.874
61901SOL    HW287601   2.327  14.506  11.780
61902SOL     OW87602   2.496   8.156  12.706
61902SOL    HW187603   2.454   8.180  12.789
61902SOL    HW287604   2.560   8.090  12.731
61903SOL     OW87605  13.146   7.760  10.398
61903SOL    HW187606  13.073   7.763  10.459
61903SOL    HW287607  13.120   7.696  10.332
61904SOL     OW87608   3.269   9.134   6.720
61904SOL    HW187609   3.299   9.046   6.741
61904SOL    HW287610   3.184   9.141   6.763
61905SOL     OW87611   3.539   1.392   9.424
61905SOL    HW187612   3.556   1.299   9.438
61905SOL    HW287613   3.624   1.435   9.434
61906SOL     OW87614   6.643   8.720   4.463
61906SOL    HW187615   6.716   8.716   4.525
61906SOL    HW287616   6.655   8.804   4.419
61907SOL     OW87617   0.318  12.982  10.575
61907SOL    HW187618   0.370  12.903  10.560
61907SOL    HW287619   0.366  13.052  10.530
61908SOL     OW87620   7.513  13.694   6.219
61908SOL    HW187621   7.540  13.714   6.309
61908SOL    HW287622   7.463  13.770   6.191
61909SOL     OW87623  13.003  13.260   2.552
61909SOL    HW187624  13.016  13.355   2.545
61909SOL    HW287625  13.062  13.233   2.621
61910SOL     OW87626   9.130   0.003   0.930
61910SOL    HW187627   9.205   0.011   0.871
61910SOL    HW287628   9.100   0.093   0.943
61911SOL     OW87629  14.795   3.085   4.834
61911SOL    HW187630  14.864   3.035   4.877
61911SOL    HW287631  14.726   3.020   4.819
61912SOL     OW87632   8.912   2.448  13.614
61912SOL    HW187633   8.997   2.405  13.606
61912SOL    HW287634   8.921   2.528  13.562
61913SOL     OW87635   4.044   9.670  11.714
61913SOL    HW187636   4.077   9.606  11.651
61913SOL    HW287637   4.017   9.618  11.790
61914SOL     OW87638   4.474  12.242   9.186
61914SOL    HW187639   4.437  12.295   9.115
61914SOL    HW287640   4.548  12.197   9.146
61915SOL     OW87641   2.985   7.493  11.196
61915SOL    HW187642   3.051   7.437  11.236
61915SOL    HW287643   2.991   7.473  11.103
61916SOL     OW87644   8.767  11.022  12.257
61916SOL    HW187645   8.819  10.945  12.281
61916SOL    HW287646   8.829  11.095  12.260
61917SOL     OW87647   8.908  11.257  12.301
61917SOL    HW187648   8.997  11.247  12.334
61917SOL    HW287649   8.903  11.348  12.273
61918SOL     OW87650   3.827   8.515  10.001
61918SOL    HW187651   3.918   8.488  10.013
61918SOL    HW287652   3.808   8.495   9.910
61919SOL     OW87653  14.306   8.158   4.644
61919SOL    HW187654  14.274   8.194   4.727
61919SOL    HW287655  14.230   8.114   4.606
61920SOL     OW87656  14.446   3.449   5.015
61920SOL    HW187657  14.533   3.409   5.008
61920SOL    HW287658  14.452   3.507   5.090
61921SOL     OW87659   1.516  10.268   7.621
61921SOL    HW187660   1.426  10.234   7.620
61921SOL    HW287661   1.531  10.301   7.532
61922SOL     OW87662  13.147   4.848   9.382
61922SOL    HW187663  13.211   4.905   9.339
61922SOL    HW287664  13.186   4.760   9.378
61923SOL     OW87665  11.129  11.219   8.921
61923SOL    HW187666  11.137  11.184   9.010
61923SOL    HW287667  11.049  11.272   8.924
61924SOL     OW87668   6.175  13.858   8.231
61924SOL    HW187669   6.221  13.854   8.147
61924SOL    HW287670   6.084  13.875   8.208
61925SOL     OW87671   6.398  12.268   1.025
61925SOL    HW187672   6.487  12.270   0.990
61925SOL    HW287673   6.381  12.176   1.042
61926SOL     OW87674   9.558   9.695   5.761
61926SOL    HW187675   9.612   9.651   5.826
61926SOL    HW287676   9.468   9.681   5.791
61927SOL     OW87677   4.085   3.689  10.995
61927SOL    HW187678   4.179   3.703  10.997
61927SOL    HW287679   4.060   3.703  10.903
61928SOL     OW87680   8.623   8.086  11.292
61928SOL    HW187681   8.609   7.999  11.329
61928SOL    HW287682   8.538   8.112  11.257
61929SOL     OW87683  14.221   5.878  10.230
61929SOL    HW187684  14.212   5.914  10.318
61929SOL    HW287685  14.188   5.789  10.237
61930SOL     OW87686   1.408   4.313  13.905
61930SOL    HW187687   1.392   4.392  13.852
61930SOL    HW287688   1.337   4.313  13.969
61931SOL     OW87689  14.196   8.680  12.669
61931SOL    HW187690  14.236   8.672  12.755
61931SOL    HW287691  14.183   8.590  12.639
61932SOL     OW87692  14.230   4.193  10.492
61932SOL    HW187693  14.161   4.131  10.513
61932SOL    HW287694  14.240   4.187  10.397
61933SOL     OW87695   8.756   2.985   6.506
61933SOL    HW187696   8.728   3.042   6.434
61933SOL    HW287697   8.688   2.918   6.511
61934SOL     OW87698   7.453   1.920   1.020
61934SOL    HW187699   7.506   1.997   1.002
61934SOL    HW287700   7.501   1.874   1.089
61935SOL     OW87701   5.729   7.160  12.322
61935SOL    HW187702   5.644   7.119  12.310
61935SOL    HW287703   5.709   7.245  12.361
61936SOL     OW87704  14.800   9.022   5.616
61936SOL    HW187705  14.771   8.962   5.547
61936SOL    HW287706  14.721   9.038   5.668
61937SOL     OW87707  12.536   7.506  12.785
61937SOL    HW187708  12.463   7.444  12.782
61937SOL    HW287709  12.601   7.465  12.841
61938SOL     OW87710  13.923   5.906   3.175
61938SOL    HW187711  13.915   5.870   3.263
61938SOL    HW287712  13.843   5.878   3.130
61939SOL     OW87713  11.096   4.566   5.341
61939SOL    HW187714  11.083   4.615   5.423
61939SOL    HW287715  11.063   4.625   5.273
61940SOL     OW87716   9.132   5.908  13.264
61940SOL    HW187717   9.125   6.003  13.258
61940SOL    HW287718   9.149   5.879  13.174
61941SOL     OW87719   9.089  14.179   0.509
61941SOL    HW187720   9.017  14.156   0.568
61941SOL    HW287721   9.158  14.116   0.529
61942SOL     OW87722  11.459   7.444   3.471
61942SOL    HW187723  11.402   7.462   3.396
61942SOL    HW287724  11.470   7.349   3.470
61943SOL     OW87725   3.563  10.973   7.714
61943SOL    HW187726   3.493  10.948   7.774
61943SOL    HW287727   3.532  11.053   7.673
61944SOL     OW87728   4.914   2.963   3.466
61944SOL    HW187729   4.877   2.892   3.519
61944SOL    HW287730   4.985   2.921   3.417
61945SOL     OW87731  14.220   2.150   5.879
61945SOL    HW187732  14.301   2.105   5.857
61945SOL    HW287733  14.157   2.119   5.815
61946SOL     OW87734   2.347   3.632  11.882
61946SOL    HW187735   2.253   3.617  11.888
61946SOL    HW287736   2.380   3.554  11.838
61947SOL     OW87737   9.710   0.397   4.376
61947SOL    HW187738   9.628   0.383   4.330
61947SOL    HW287739   9.686   0.447   4.454
61948SOL     OW87740  12.989  13.487   1.904
61948SOL    HW187741  13.024  13.449   1.984
61948SOL    HW287742  12.975  13.580   1.926
61949SOL     OW87743   2.769   5.551  12.884
61949SOL    HW187744   2.766   5.601  12.966
61949SOL    HW287745   2.852   5.504  12.889
61950SOL     OW87746  13.382   6.843   1.108
61950SOL    HW187747  13.352   6.930   1.134
61950SOL    HW287748  13.323   6.783   1.153
61951SOL     OW87749  11.445   5.863   0.217
61951SOL    HW187750  11.493   5.782   0.233
61951SOL    HW287751  11.406   5.885   0.301
61952SOL     OW87752  14.472   5.434   7.530
61952SOL    HW187753  14.384   5.465   7.507
61952SOL    HW287754  14.483   5.352   7.482
61953SOL     OW87755   7.821   8.915   2.004
61953SOL    HW187756   7.907   8.879   1.983
61953SOL    HW287757   7.831   9.009   1.995
61954SOL     OW87758  12.112  11.799   3.423
61954SOL    HW187759  12.084  11.740   3.353
61954SOL    HW287760  12.047  11.788   3.492
61955SOL     OW87761   3.262   2.272   6.946
61955SOL    HW187762   3.223   2.352   6.910
61955SOL    HW287763   3.189   2.211   6.954
61956SOL     OW87764   8.636   2.083   6.395
61956SOL    HW187765   8.639   2.156   6.334
61956SOL    HW287766   8.618   2.122   6.480
61957SOL     OW87767   1.829   0.168  12.312
61957SOL    HW187768   1.836   0.253  12.356
61957SOL    HW287769   1.764   0.120  12.363
61958SOL     OW87770   6.710   6.752  12.631
61958SOL    HW187771   6.632   6.791  12.593
61958SOL    HW287772   6.678   6.675  12.678
61959SOL     OW87773  12.176   0.506   4.461
61959SOL    HW187774  12.087   0.540   4.451
61959SOL    HW287775  12.203   0.535   4.548
61960SOL     OW87776  14.727   0.437   4.386
61960SOL    HW187777  14.805   0.482   4.352
61960SOL    HW287778  14.655   0.469   4.332
61961SOL     OW87779   5.061   4.797   6.067
61961SOL    HW187780   5.049   4.841   5.983
61961SOL    HW287781   5.028   4.859   6.132
61962SOL     OW87782   6.827   4.062   9.991
61962SOL    HW187783   6.911   4.039  10.030
61962SOL    HW287784   6.848   4.125   9.923
61963SOL     OW87785   9.993  11.947   9.526
61963SOL    HW187786  10.000  11.960   9.431
61963SOL    HW287787  10.060  12.004   9.564
61964SOL     OW87788  14.800   5.164  11.206
61964SOL    HW187789  14.832   5.089  11.256
61964SOL    HW287790  14.716   5.187  11.246
61965SOL     OW87791   5.637   7.280   1.418
61965SOL    HW187792   5.682   7.296   1.335
61965SOL    HW287793   5.692   7.323   1.484
61966SOL     OW87794  13.381  11.441   0.301
61966SOL    HW187795  13.420  11.517   0.343
61966SOL    HW287796  13.425  11.366   0.342
61967SOL     OW87797   0.380   2.956  12.193
61967SOL    HW187798   0.396   3.013  12.268
61967SOL    HW287799   0.388   2.867  12.228
61968SOL     OW87800  13.810   9.248   2.616
61968SOL    HW187801  13.782   9.163   2.650
61968SOL    HW287802  13.848   9.228   2.530
61969SOL     OW87803   4.539   3.050  14.841
61969SOL    HW187804   4.607   2.993   0.002
61969SOL    HW287805   4.554   3.048  14.746
61970SOL     OW87806   1.128   0.763   9.573
61970SOL    HW187807   1.084   0.818   9.638
61970SOL    HW287808   1.058   0.711   9.534
61971SOL     OW87809   7.273   0.460  13.680
61971SOL    HW187810   7.207   0.429  13.742
61971SOL    HW287811   7.279   0.554  13.698
61972SOL     OW87812  12.579   4.070  12.177
61972SOL    HW187813  12.580   3.975  12.189
61972SOL    HW287814  12.507   4.100  12.234
61973SOL     OW87815  10.754   1.597   1.270
61973SOL    HW187816  10.691   1.626   1.337
61973SOL    HW287817  10.724   1.509   1.245
61974SOL     OW87818   4.032  12.567  12.369
61974SOL    HW187819   4.115  12.577  12.415
61974SOL    HW287820   3.995  12.486  12.404
61975SOL     OW87821  11.212  13.434  14.056
61975SOL    HW187822  11.282  13.385  14.013
61975SOL    HW287823  11.249  13.521  14.070
61976SOL     OW87824  13.111  10.502   8.073
61976SOL    HW187825  13.182  10.557   8.109
61976SOL    HW287826  13.076  10.553   8.001
61977SOL     OW87827  11.170   9.060   3.701
61977SOL    HW187828  11.256   9.017   3.710
61977SOL    HW287829  11.111   8.990   3.673
61978SOL     OW87830  11.793  11.321  12.031
61978SOL    HW187831  11.700  11.314  12.008
61978SOL    HW287832  11.795  11.302  12.125
61979SOL     OW87833   4.374   4.613   7.079
61979SOL    HW187834   4.469   4.621   7.091
61979SOL    HW287835   4.344   4.568   7.158
61980SOL     OW87836  13.468   8.542   1.105
61980SOL    HW187837  13.511   8.498   1.178
61980SOL    HW287838  13.377   8.512   1.109
61981SOL     OW87839  10.333  13.815  13.868
61981SOL    HW187840  10.392  13.777  13.803
61981SOL    HW287841  10.361  13.906  13.876
61982SOL     OW87842   1.015   6.294   3.912
61982SOL    HW187843   1.106   6.323   3.922
61982SOL    HW287844   1.015   6.203   3.942
61983SOL     OW87845  10.334   9.766  12.377
61983SOL    HW187846  10.308   9.832  12.314
61983SOL    HW287847  10.322   9.682  12.332
61984SOL     OW87848  10.702  12.506  12.559
61984SOL    HW187849  10.703  12.449  12.482
61984SOL    HW287850  10.794  12.513  12.585
61985SOL     OW87851  14.347   1.051   9.273
61985SOL    HW187852  14.294   0.979   9.239
61985SOL    HW287853  14.435   1.032   9.242
61986SOL     OW87854  11.296  13.188  14.455
61986SOL    HW187855  11.299  13.093  14.442
61986SOL    HW287856  11.364  13.223  14.398
61987SOL     OW87857   9.617   1.477  11.765
61987SOL    HW187858   9.537   1.488  11.817
61987SOL    HW287859   9.670   1.553  11.786
61988SOL     OW87860   8.777   4.044  13.445
61988SOL    HW187861   8.711   4.043  13.515
61988SOL    HW287862   8.849   4.095  13.481
61989SOL     OW87863   6.819  11.266  10.669
61989SOL    HW187864   6.877  11.205  10.623
61989SOL    HW287865   6.778  11.213  10.738
61990SOL     OW87866  10.448   3.920   1.406
61990SOL    HW187867  10.474   4.011   1.393
61990SOL    HW287868  10.530   3.870   1.396
61991SOL     OW87869   8.469   9.712   1.617
61991SOL    HW187870   8.435   9.700   1.528
61991SOL    HW287871   8.444   9.802   1.640
61992SOL     OW87872   5.627  11.300  12.458
61992SOL    HW187873   5.719  11.301  12.433
61992SOL    HW287874   5.579  11.300  12.375
61993SOL     OW87875   5.758   7.279   7.506
61993SOL    HW187876   5.714   7.318   7.582
61993SOL    HW287877   5.795   7.198   7.538
61994SOL     OW87878   0.372  12.134   9.726
61994SOL    HW187879   0.284  12.117   9.693
61994SOL    HW287880   0.430  12.104   9.656
61995SOL     OW87881   2.710  12.116   0.633
61995SOL    HW187882   2.646  12.184   0.657
61995SOL    HW287883   2.693  12.044   0.694
61996SOL     OW87884   4.047  10.718   1.561
61996SOL    HW187885   4.133  10.683   1.584
61996SOL    HW287886   4.040  10.800   1.609
61997SOL     OW87887  10.908   2.394   4.722
61997SOL    HW187888  10.875   2.309   4.752
61997SOL    HW287889  10.999   2.397   4.753
61998SOL     OW87890   5.541   6.945   5.791
61998SOL    HW187891   5.469   6.888   5.764
61998SOL    HW287892   5.561   6.917   5.881
61999SOL     OW87893   0.556   5.923   5.971
61999SOL    HW187894   0.532   6.015   5.979
61999SOL    HW287895   0.598   5.902   6.055
62000SOL     OW87896   6.219   7.692  12.872
62000SOL    HW187897   6.297   7.741  12.845
62000SOL    HW287898   6.229   7.607  12.830
62001SOL     OW87899  11.349   9.106  10.471
62001SOL    HW187900  11.377   9.150  10.391
62001SOL    HW287901  11.412   9.035  10.483
62002SOL     OW87902   9.158  14.788  10.385
62002SOL    HW187903   9.175  14.812  10.476
62002SOL    HW287904   9.109  14.706  10.391
62003SOL     OW87905   4.518   3.227  10.477
62003SOL    HW187906   4.504   3.163  10.408
62003SOL    HW287907   4.587   3.189  10.532
62004SOL     OW87908  14.158   8.721   5.189
62004SOL    HW187909  14.227   8.663   5.156
62004SOL    HW287910  14.088   8.662   5.216
62005SOL     OW87911   7.608   0.938   5.166
62005SOL    HW187912   7.579   1.029   5.174
62005SOL    HW287913   7.614   0.907   5.256
62006SOL     OW87914   4.187  13.605   8.458
62006SOL    HW187915   4.271  13.559   8.449
62006SOL    HW287916   4.123  13.535   8.472
62007SOL     OW87917   3.431   6.026  13.110
62007SOL    HW187918   3.476   5.987  13.035
62007SOL    HW287919   3.475   5.989  13.186
62008SOL     OW87920   0.360   4.475   0.564
62008SOL    HW187921   0.410   4.551   0.593
62008SOL    HW287922   0.365   4.478   0.468
62009SOL     OW87923  12.300  12.054   8.203
62009SOL    HW187924  12.326  11.966   8.174
62009SOL    HW287925  12.205  12.051   8.206
62010SOL     OW87926   1.843   0.363  14.828
62010SOL    HW187927   1.770   0.302  14.836
62010SOL    HW287928   1.853   0.401   0.041
62011SOL     OW87929   7.509  10.952   7.467
62011SOL    HW187930   7.469  10.900   7.398
62011SOL    HW287931   7.603  10.932   7.461
62012SOL     OW87932  14.312  14.404   4.495
62012SOL    HW187933  14.230  14.386   4.540
62012SOL    HW287934  14.365  14.326   4.511
62013SOL     OW87935   2.112   7.875   7.986
62013SOL    HW187936   2.030   7.893   8.033
62013SOL    HW287937   2.130   7.783   8.004
62014SOL     OW87938  12.484   5.155   1.547
62014SOL    HW187939  12.406   5.111   1.582
62014SOL    HW287940  12.557   5.101   1.578
62015SOL     OW87941   1.404   9.086   4.203
62015SOL    HW187942   1.340   9.087   4.132
62015SOL    HW287943   1.390   9.168   4.250
62016SOL     OW87944   3.611   7.755   7.303
62016SOL    HW187945   3.539   7.712   7.255
62016SOL    HW287946   3.689   7.735   7.251
62017SOL     OW87947   2.859  10.591   1.749
62017SOL    HW187948   2.773  10.579   1.708
62017SOL    HW287949   2.839  10.612   1.840
62018SOL     OW87950   0.778  10.845   3.523
62018SOL    HW187951   0.818  10.841   3.610
62018SOL    HW287952   0.830  10.785   3.470
62019SOL     OW87953   3.510   0.469  11.409
62019SOL    HW187954   3.540   0.530  11.477
62019SOL    HW287955   3.420   0.494  11.392
62020SOL     OW87956  12.079   5.896   8.538
62020SOL    HW187957  12.158   5.846   8.560
62020SOL    HW287958  12.012   5.830   8.524
62021SOL     OW87959  11.807   6.323  11.718
62021SOL    HW187960  11.819   6.253  11.654
62021SOL    HW287961  11.712   6.336  11.723
62022SOL     OW87962  12.384   6.420   8.074
62022SOL    HW187963  12.291   6.440   8.084
62022SOL    HW287964  12.421   6.499   8.035
62023SOL     OW87965   2.461   7.861   9.508
62023SOL    HW187966   2.412   7.916   9.447
62023SOL    HW287967   2.409   7.781   9.516
62024SOL     OW87968  10.756   7.843   8.814
62024SOL    HW187969  10.775   7.758   8.774
62024SOL    HW287970  10.750   7.904   8.740
62025SOL     OW87971  10.222   8.733   6.547
62025SOL    HW187972  10.174   8.809   6.580
62025SOL    HW287973  10.297   8.725   6.606
62026SOL     OW87974   9.767   7.006   0.266
62026SOL    HW187975   9.858   6.976   0.260
62026SOL    HW287976   9.761   7.044   0.354
62027SOL     OW87977   2.686  11.124  12.608
62027SOL    HW187978   2.602  11.148  12.569
62027SOL    HW287979   2.707  11.197  12.667
62028SOL     OW87980   3.480   4.751  10.207
62028SOL    HW187981   3.576   4.756  10.201
62028SOL    HW287982   3.449   4.798  10.130
62029SOL     OW87983  14.003   4.936   5.188
62029SOL    HW187984  14.001   4.996   5.263
62029SOL    HW287985  13.918   4.890   5.193
62030SOL     OW87986   0.032   7.333  12.034
62030SOL    HW187987  14.833   7.315  11.976
62030SOL    HW287988   0.019   7.274  12.109
62031SOL     OW87989   1.870   1.070   2.000
62031SOL    HW187990   1.826   1.013   2.064
62031SOL    HW287991   1.919   1.132   2.054
62032SOL     OW87992   0.608   7.189   0.870
62032SOL    HW187993   0.624   7.182   0.964
62032SOL    HW287994   0.514   7.200   0.862
62033SOL     OW87995  10.065   0.524   1.906
62033SOL    HW187996  10.132   0.566   1.851
62033SOL    HW287997  10.111   0.450   1.947
62034SOL     OW87998  10.106  11.570   4.687
62034SOL    HW187999  10.171  11.640   4.681
62034SOL    HW288000  10.157  11.490   4.696
62035SOL     OW88001   6.314  13.582   4.705
62035SOL    HW188002   6.241  13.557   4.761
62035SOL    HW288003   6.358  13.500   4.684
62036SOL     OW88004  12.033   9.560   7.992
62036SOL    HW188005  12.058   9.618   8.064
62036SOL    HW288006  12.117   9.526   7.959
62037SOL     OW88007   3.348  11.968  13.418
62037SOL    HW188008   3.431  11.970  13.370
62037SOL    HW288009   3.366  11.913  13.494
62038SOL     OW88010   2.040   3.587   1.106
62038SOL    HW188011   1.959   3.579   1.155
62038SOL    HW288012   2.049   3.503   1.061
62039SOL     OW88013   8.147   4.898   0.984
62039SOL    HW188014   8.107   4.863   1.063
62039SOL    HW288015   8.146   4.993   0.996
62040SOL     OW88016   0.949  11.622  12.933
62040SOL    HW188017   1.017  11.566  12.896
62040SOL    HW288018   0.925  11.580  13.016
62041SOL     OW88019  11.745   3.256   5.430
62041SOL    HW188020  11.833   3.249   5.392
62041SOL    HW288021  11.758   3.233   5.522
62042SOL     OW88022  12.366   0.269   3.515
62042SOL    HW188023  12.443   0.212   3.517
62042SOL    HW288024  12.321   0.252   3.598
62043SOL     OW88025  10.724   5.063   4.937
62043SOL    HW188026  10.706   5.139   4.992
62043SOL    HW288027  10.648   5.058   4.878
62044SOL     OW88028  13.211   3.507  14.687
62044SOL    HW188029  13.144   3.575  14.682
62044SOL    HW288030  13.283   3.547  14.736
62045SOL     OW88031   4.825   4.044  11.708
62045SOL    HW188032   4.763   4.044  11.634
62045SOL    HW288033   4.786   3.985  11.772
62046SOL     OW88034   8.210   9.767   8.259
62046SOL    HW188035   8.216   9.826   8.184
62046SOL    HW288036   8.235   9.821   8.334
62047SOL     OW88037   2.228   2.744   8.604
62047SOL    HW188038   2.148   2.752   8.656
62047SOL    HW288039   2.250   2.834   8.580
62048SOL     OW88040   0.981   8.960   7.605
62048SOL    HW188041   0.896   8.978   7.645
62048SOL    HW288042   1.042   8.956   7.679
62049SOL     OW88043   5.605  12.876  13.347
62049SOL    HW188044   5.531  12.873  13.408
62049SOL    HW288045   5.625  12.970  13.340
62050SOL     OW88046   7.277   8.522   0.737
62050SOL    HW188047   7.213   8.464   0.696
62050SOL    HW288048   7.224   8.591   0.777
62051SOL     OW88049   7.593  11.482   6.648
62051SOL    HW188050   7.604  11.403   6.701
62051SOL    HW288051   7.639  11.550   6.698
62052SOL     OW88052   2.358   4.935   8.066
62052SOL    HW188053   2.330   5.026   8.060
62052SOL    HW288054   2.396   4.927   8.153
62053SOL     OW88055  13.968   6.601  13.864
62053SOL    HW188056  14.052   6.620  13.823
62053SOL    HW288057  13.984   6.523  13.916
62054SOL     OW88058  13.013   3.735  13.019
62054SOL    HW188059  12.982   3.753  12.930
62054SOL    HW288060  13.030   3.640  13.020
62055SOL     OW88061   5.273  11.955  14.107
62055SOL    HW188062   5.257  11.949  14.012
62055SOL    HW288063   5.337  11.887  14.125
62056SOL     OW88064  13.845   5.456   4.758
62056SOL    HW188065  13.763   5.497   4.784
62056SOL    HW288066  13.824   5.364   4.746
62057SOL     OW88067   5.788  12.219  14.652
62057SOL    HW188068   5.768  12.127  14.670
62057SOL    HW288069   5.871  12.234  14.699
62058SOL     OW88070   3.834   2.557  12.987
62058SOL    HW188071   3.805   2.644  12.960
62058SOL    HW288072   3.855   2.567  13.080
62059SOL     OW88073  10.573  12.330   7.018
62059SOL    HW188074  10.612  12.313   7.104
62059SOL    HW288075  10.547  12.243   6.987
62060SOL     OW88076   7.991  11.483   1.500
62060SOL    HW188077   8.062  11.496   1.436
62060SOL    HW288078   7.922  11.439   1.451
62061SOL     OW88079   5.884   2.609   2.594
62061SOL    HW188080   5.875   2.550   2.520
62061SOL    HW288081   5.837   2.688   2.568
62062SOL     OW88082   2.816   9.404   1.832
62062SOL    HW188083   2.848   9.349   1.903
62062SOL    HW288084   2.895   9.431   1.785
62063SOL     OW88085   6.322  14.288  10.001
62063SOL    HW188086   6.305  14.382  10.005
62063SOL    HW288087   6.393  14.279   9.937
62064SOL     OW88088  13.361  13.871   6.600
62064SOL    HW188089  13.319  13.920   6.671
62064SOL    HW288090  13.298  13.804   6.576
62065SOL     OW88091   7.572   4.948   6.069
62065SOL    HW188092   7.585   4.960   6.163
62065SOL    HW288093   7.518   4.870   6.062
62066SOL     OW88094   8.716   1.048   2.818
62066SOL    HW188095   8.712   0.972   2.760
62066SOL    HW288096   8.769   1.019   2.892
62067SOL     OW88097  10.108  12.397   4.660
62067SOL    HW188098  10.124  12.491   4.660
62067SOL    HW288099  10.189  12.359   4.694
62068SOL     OW88100  13.846   5.114  10.407
62068SOL    HW188101  13.829   5.056  10.480
62068SOL    HW288102  13.938   5.138  10.416
62069SOL     OW88103  12.622   8.928   9.424
62069SOL    HW188104  12.652   8.895   9.509
62069SOL    HW288105  12.527   8.919   9.426
62070SOL     OW88106  11.341   1.021   1.321
62070SOL    HW188107  11.246   1.022   1.309
62070SOL    HW288108  11.354   0.969   1.401
62071SOL     OW88109   5.209   3.963   3.203
62071SOL    HW188110   5.241   3.939   3.116
62071SOL    HW288111   5.166   4.047   3.191
62072SOL     OW88112   6.593  13.930   4.355
62072SOL    HW188113   6.657  13.920   4.285
62072SOL    HW288114   6.599  13.848   4.404
62073SOL     OW88115   6.308  14.821  13.022
62073SOL    HW188116   6.265   0.003  12.958
62073SOL    HW288117   6.271  14.848  13.106
62074SOL     OW88118   7.657   9.074   2.312
62074SOL    HW188119   7.655   8.984   2.277
62074SOL    HW288120   7.687   9.063   2.402
62075SOL     OW88121  12.019   1.510  14.727
62075SOL    HW188122  11.958   1.561  14.674
62075SOL    HW288123  12.055   1.445  14.666
62076SOL     OW88124   6.867  11.345  11.953
62076SOL    HW188125   6.868  11.275  12.018
62076SOL    HW288126   6.807  11.411  11.990
62077SOL     OW88127   6.002   0.944   9.895
62077SOL    HW188128   5.963   1.028   9.871
62077SOL    HW288129   5.969   0.927   9.983
62078SOL     OW88130   8.974  14.248   7.146
62078SOL    HW188131   8.953  14.197   7.224
62078SOL    HW288132   9.038  14.194   7.099
62079SOL     OW88133   8.415   9.555   6.324
62079SOL    HW188134   8.458   9.638   6.304
62079SOL    HW288135   8.429   9.543   6.418
62080SOL     OW88136   5.314   7.386   6.407
62080SOL    HW188137   5.304   7.355   6.497
62080SOL    HW288138   5.262   7.325   6.355
62081SOL     OW88139   4.234   7.492   0.723
62081SOL    HW188140   4.143   7.461   0.724
62081SOL    HW288141   4.254   7.511   0.815
62082SOL     OW88142   2.812   0.695   0.512
62082SOL    HW188143   2.717   0.692   0.524
62082SOL    HW288144   2.844   0.751   0.582
62083SOL     OW88145   0.072  10.288   1.591
62083SOL    HW188146   0.143  10.290   1.527
62083SOL    HW288147   0.003  10.238   1.547
62084SOL     OW88148   6.927   9.823  11.868
62084SOL    HW188149   6.894   9.787  11.786
62084SOL    HW288150   6.868   9.789  11.935
62085SOL     OW88151  12.633  12.744   3.872
62085SOL    HW188152  12.557  12.785   3.912
62085SOL    HW288153  12.688  12.816   3.843
62086SOL     OW88154  12.084   5.075  14.742
62086SOL    HW188155  12.078   4.984  14.770
62086SOL    HW288156  12.113   5.122  14.821
62087SOL     OW88157  10.285   8.820  12.480
62087SOL    HW188158  10.204   8.770  12.496
62087SOL    HW288159  10.263   8.878  12.408
62088SOL     OW88160  11.502  13.442   3.375
62088SOL    HW188161  11.452  13.501   3.430
62088SOL    HW288162  11.457  13.358   3.383
62089SOL     OW88163  14.451   2.250   0.377
62089SOL    HW188164  14.435   2.231   0.470
62089SOL    HW288165  14.543   2.276   0.373
62090SOL     OW88166   9.598   5.924  13.398
62090SOL    HW188167   9.618   5.898  13.308
62090SOL    HW288168   9.503   5.935  13.398
62091SOL     OW88169   3.364  12.639   5.884
62091SOL    HW188170   3.272  12.639   5.912
62091SOL    HW288171   3.382  12.548   5.861
62092SOL     OW88172   1.354   8.908   2.770
62092SOL    HW188173   1.436   8.957   2.760
62092SOL    HW288174   1.368   8.851   2.845
62093SOL     OW88175   1.985   6.494   3.198
62093SOL    HW188176   2.047   6.524   3.264
62093SOL    HW288177   1.993   6.558   3.127
62094SOL     OW88178  13.230   7.098  10.764
62094SOL    HW188179  13.317   7.135  10.780
62094SOL    HW288180  13.244   7.004  10.757
62095SOL     OW88181   3.509   4.223  11.489
62095SOL    HW188182   3.429   4.187  11.526
62095SOL    HW288183   3.570   4.149  11.485
62096SOL     OW88184  10.197   2.909   5.617
62096SOL    HW188185  10.201   2.834   5.557
62096SOL    HW288186  10.166   2.871   5.700
62097SOL     OW88187   8.262   7.596   3.684
62097SOL    HW188188   8.328   7.656   3.721
62097SOL    HW288189   8.310   7.514   3.671
62098SOL     OW88190   2.533   5.447  11.791
62098SOL    HW188191   2.595   5.519  11.808
62098SOL    HW288192   2.481   5.441  11.871
62099SOL     OW88193  10.893  12.327  13.219
62099SOL    HW188194  10.830  12.397  13.202
62099SOL    HW288195  10.871  12.258  13.156
62100SOL     OW88196   3.322   3.176   5.027
62100SOL    HW188197   3.346   3.258   4.984
62100SOL    HW288198   3.332   3.195   5.121
62101SOL     OW88199  10.332   6.203   2.087
62101SOL    HW188200  10.292   6.132   2.038
62101SOL    HW288201  10.366   6.162   2.166
62102SOL     OW88202   8.610   4.529  14.856
62102SOL    HW188203   8.647   4.516  14.768
62102SOL    HW288204   8.516   4.531  14.842
62103SOL     OW88205  11.964   3.750   8.230
62103SOL    HW188206  11.946   3.821   8.292
62103SOL    HW288207  11.899   3.683   8.250
62104SOL     OW88208  14.211  11.055  14.214
62104SOL    HW188209  14.195  10.988  14.280
62104SOL    HW288210  14.140  11.043  14.150
62105SOL     OW88211  10.655   4.334   5.962
62105SOL    HW188212  10.692   4.376   5.885
62105SOL    HW288213  10.717   4.354   6.032
62106SOL     OW88214  10.544   3.039  11.690
62106SOL    HW188215  10.487   3.105  11.729
62106SOL    HW288216  10.630   3.080  11.686
62107SOL     OW88217   8.361  13.482   3.858
62107SOL    HW188218   8.393  13.503   3.946
62107SOL    HW288219   8.268  13.508   3.859
62108SOL     OW88220   4.354  13.540   3.478
62108SOL    HW188221   4.284  13.605   3.465
62108SOL    HW288222   4.414  13.583   3.539
62109SOL     OW88223   2.537   7.292   0.233
62109SOL    HW188224   2.529   7.382   0.264
62109SOL    HW288225   2.578   7.245   0.306
62110SOL     OW88226  12.173   2.112   7.699
62110SOL    HW188227  12.180   2.186   7.758
62110SOL    HW288228  12.080   2.091   7.697
62111SOL     OW88229  13.026  10.226   5.180
62111SOL    HW188230  13.031  10.283   5.256
62111SOL    HW288231  12.940  10.243   5.143
62112SOL     OW88232  14.269   6.560   3.396
62112SOL    HW188233  14.228   6.574   3.310
62112SOL    HW288234  14.195   6.549   3.456
62113SOL     OW88235  13.003  10.674   6.495
62113SOL    HW188236  13.085  10.714   6.525
62113SOL    HW288237  12.960  10.645   6.576
62114SOL     OW88238  10.109   0.234   3.926
62114SOL    HW188239  10.140   0.189   3.847
62114SOL    HW288240  10.018   0.206   3.936
62115SOL     OW88241   5.632  12.464   9.089
62115SOL    HW188242   5.548  12.420   9.076
62115SOL    HW288243   5.629  12.492   9.181
62116SOL     OW88244   4.346   1.275  12.023
62116SOL    HW188245   4.410   1.206  12.039
62116SOL    HW288246   4.261   1.231  12.031
62117SOL     OW88247   6.912   5.172   2.215
62117SOL    HW188248   6.914   5.267   2.224
62117SOL    HW288249   6.834   5.154   2.162
62118SOL     OW88250   4.891  11.952  10.198
62118SOL    HW188251   4.914  11.868  10.158
62118SOL    HW288252   4.892  12.014  10.125
62119SOL     OW88253   2.766  14.579   2.493
62119SOL    HW188254   2.851  14.575   2.450
62119SOL    HW288255   2.779  14.535   2.577
62120SOL     OW88256   9.274   0.304   1.696
62120SOL    HW188257   9.355   0.256   1.713
62120SOL    HW288258   9.292   0.393   1.724
62121SOL     OW88259  10.583  12.978   3.617
62121SOL    HW188260  10.549  13.026   3.542
62121SOL    HW288261  10.537  13.015   3.693
62122SOL     OW88262   4.827  14.247   2.862
62122SOL    HW188263   4.781  14.168   2.833
62122SOL    HW288264   4.797  14.315   2.802
62123SOL     OW88265  14.311   5.792  14.821
62123SOL    HW188266  14.298   5.746   0.029
62123SOL    HW288267  14.265   5.875  14.832
62124SOL     OW88268   1.724   3.781  13.224
62124SOL    HW188269   1.737   3.723  13.299
62124SOL    HW288270   1.638   3.821  13.239
62125SOL     OW88271   1.405   4.546   0.435
62125SOL    HW188272   1.374   4.555   0.345
62125SOL    HW288273   1.377   4.458   0.461
62126SOL     OW88274   7.161   1.400   8.855
62126SOL    HW188275   7.200   1.410   8.768
62126SOL    HW288276   7.117   1.315   8.853
62127SOL     OW88277   9.827   9.173  13.726
62127SOL    HW188278   9.819   9.206  13.816
62127SOL    HW288279   9.737   9.162  13.696
62128SOL     OW88280  13.648  10.586   5.838
62128SOL    HW188281  13.664  10.676   5.811
62128SOL    HW288282  13.596  10.593   5.918
62129SOL     OW88283  13.322  11.940   2.943
62129SOL    HW188284  13.296  12.030   2.961
62129SOL    HW288285  13.414  11.947   2.915
62130SOL     OW88286  11.920   6.570   8.602
62130SOL    HW188287  11.964   6.648   8.569
62130SOL    HW288288  11.982   6.532   8.664
62131SOL     OW88289   1.587   8.330  14.071
62131SOL    HW188290   1.558   8.413  14.033
62131SOL    HW288291   1.603   8.350  14.163
62132SOL     OW88292   6.614   8.081   4.928
62132SOL    HW188293   6.569   8.023   4.866
62132SOL    HW288294   6.704   8.083   4.897
62133SOL     OW88295  10.876  12.986   8.357
62133SOL    HW188296  10.916  13.057   8.305
62133SOL    HW288297  10.862  12.916   8.294
62134SOL     OW88298   4.894   2.063   0.074
62134SOL    HW188299   4.926   2.044   0.162
62134SOL    HW288300   4.799   2.070   0.084
62135SOL     OW88301   9.872   3.244   0.603
62135SOL    HW188302   9.852   3.326   0.648
62135SOL    HW288303   9.787   3.216   0.567
62136SOL     OW88304   3.980   3.945  13.604
62136SOL    HW188305   3.914   4.014  13.593
62136SOL    HW288306   3.934   3.865  13.580
62137SOL     OW88307  12.430   4.036   6.929
62137SOL    HW188308  12.443   4.062   6.838
62137SOL    HW288309  12.519   4.032   6.965
62138SOL     OW88310   3.824   7.632  10.318
62138SOL    HW188311   3.827   7.577  10.240
62138SOL    HW288312   3.759   7.592  10.375
62139SOL     OW88313   1.024  13.022   1.676
62139SOL    HW188314   0.930  13.034   1.666
62139SOL    HW288315   1.039  13.027   1.770
62140SOL     OW88316   9.418   7.836  13.683
62140SOL    HW188317   9.348   7.801  13.628
62140SOL    HW288318   9.410   7.931  13.674
62141SOL     OW88319   7.059   4.463  11.945
62141SOL    HW188320   7.060   4.369  11.927
62141SOL    HW288321   7.143   4.480  11.988
62142SOL     OW88322  12.979  12.024  12.004
62142SOL    HW188323  12.978  12.018  11.909
62142SOL    HW288324  13.071  12.006  12.028
62143SOL     OW88325  12.457  11.697  14.307
62143SOL    HW188326  12.464  11.651  14.223
62143SOL    HW288327  12.545  11.732  14.323
62144SOL     OW88328   3.839   9.096  10.166
62144SOL    HW188329   3.857   9.009  10.200
62144SOL    HW288330   3.746   9.094  10.142
62145SOL     OW88331  12.460   9.475   3.136
62145SOL    HW188332  12.390   9.523   3.180
62145SOL    HW288333  12.477   9.400   3.193
62146SOL     OW88334  13.885  14.868  11.032
62146SOL    HW188335  13.871   0.076  11.078
62146SOL    HW288336  13.836   0.002  10.951
62147SOL     OW88337  14.796   9.204   5.349
62147SOL    HW188338  14.731   9.237   5.287
62147SOL    HW288339  14.802   9.110   5.329
62148SOL     OW88340   5.506   7.591   0.429
62148SOL    HW188341   5.502   7.524   0.361
62148SOL    HW288342   5.456   7.555   0.502
62149SOL     OW88343   0.927  10.746  13.758
62149SOL    HW188344   0.900  10.802  13.831
62149SOL    HW288345   0.847  10.731  13.708
62150SOL     OW88346  12.646   9.498   1.227
62150SOL    HW188347  12.603   9.465   1.148
62150SOL    HW288348  12.630   9.431   1.293
62151SOL     OW88349   5.957  14.314   9.938
62151SOL    HW188350   5.935  14.271   9.856
62151SOL    HW288351   5.963  14.407   9.916
62152SOL     OW88352  14.042   2.214   0.900
62152SOL    HW188353  14.061   2.273   0.973
62152SOL    HW288354  14.047   2.270   0.823
62153SOL     OW88355  12.097  12.537   3.821
62153SOL    HW188356  12.120  12.517   3.911
62153SOL    HW288357  12.099  12.632   3.815
62154SOL     OW88358  10.594   3.287   0.705
62154SOL    HW188359  10.685   3.263   0.723
62154SOL    HW288360  10.592   3.305   0.611
62155SOL     OW88361   8.883  12.077  13.688
62155SOL    HW188362   8.945  12.004  13.691
62155SOL    HW288363   8.938  12.154  13.675
62156SOL     OW88364   1.892   3.584   6.686
62156SOL    HW188365   1.890   3.645   6.760
62156SOL    HW288366   1.872   3.638   6.610
62157SOL     OW88367   0.037  11.134  13.099
62157SOL    HW188368   0.050  11.040  13.085
62157SOL    HW288369   0.112  11.161  13.151
62158SOL     OW88370   5.395  11.088   0.892
62158SOL    HW188371   5.443  11.048   0.819
62158SOL    HW288372   5.311  11.042   0.894
62159SOL     OW88373   8.477   7.005   4.428
62159SOL    HW188374   8.572   7.019   4.434
62159SOL    HW288375   8.467   6.910   4.421
62160SOL     OW88376  10.056  14.180   2.848
62160SOL    HW188377  10.115  14.143   2.782
62160SOL    HW288378  10.090  14.147   2.931
62161SOL     OW88379   8.846   6.749  14.074
62161SOL    HW188380   8.834   6.659  14.105
62161SOL    HW288381   8.939   6.753  14.050
62162SOL     OW88382   0.589   8.319   9.237
62162SOL    HW188383   0.652   8.268   9.186
62162SOL    HW288384   0.562   8.390   9.178
62163SOL     OW88385   7.354   2.598  14.619
62163SOL    HW188386   7.304   2.600  14.701
62163SOL    HW288387   7.323   2.675  14.571
62164SOL     OW88388   3.000   1.680   0.930
62164SOL    HW188389   2.915   1.700   0.969
62164SOL    HW288390   3.063   1.696   1.000
62165SOL     OW88391   5.895   7.112   6.427
62165SOL    HW188392   5.904   7.151   6.340
62165SOL    HW288393   5.807   7.139   6.456
62166SOL     OW88394   9.624  10.519   8.408
62166SOL    HW188395   9.685  10.535   8.481
62166SOL    HW288396   9.678  10.528   8.329
62167SOL     OW88397  13.917   4.324   9.470
62167SOL    HW188398  13.882   4.411   9.488
62167SOL    HW288399  13.951   4.330   9.381
62168SOL     OW88400   8.182  13.247   8.552
62168SOL    HW188401   8.163  13.290   8.635
62168SOL    HW288402   8.101  13.201   8.530
62169SOL     OW88403   9.185   3.892   7.962
62169SOL    HW188404   9.203   3.804   7.929
62169SOL    HW288405   9.096   3.887   7.998
62170SOL     OW88406   8.357   2.890   0.051
62170SOL    HW188407   8.404   2.919  14.848
62170SOL    HW288408   8.413   2.822   0.088
62171SOL     OW88409   2.682  14.389   7.911
62171SOL    HW188410   2.765  14.357   7.875
62171SOL    HW288411   2.620  14.318   7.897
62172SOL     OW88412   3.798  14.359   1.062
62172SOL    HW188413   3.712  14.318   1.070
62172SOL    HW288414   3.780  14.445   1.025
62173SOL     OW88415   7.980   2.435  11.843
62173SOL    HW188416   8.030   2.389  11.776
62173SOL    HW288417   8.014   2.402  11.926
62174SOL     OW88418  11.940   4.913   4.682
62174SOL    HW188419  11.881   4.904   4.607
62174SOL    HW288420  11.882   4.918   4.758
62175SOL     OW88421   7.554   2.622   9.713
62175SOL    HW188422   7.649   2.616   9.705
62175SOL    HW288423   7.528   2.682   9.643
62176SOL     OW88424   7.171  10.131   2.544
62176SOL    HW188425   7.211  10.067   2.485
62176SOL    HW288426   7.183  10.093   2.631
62177SOL     OW88427  10.218  10.676   7.312
62177SOL    HW188428  10.288  10.740   7.329
62177SOL    HW288429  10.259  10.612   7.253
62178SOL     OW88430   0.601   3.936  10.549
62178SOL    HW188431   0.650   3.949  10.630
62178SOL    HW288432   0.657   3.877  10.497
62179SOL     OW88433   0.370   0.126   2.856
62179SOL    HW188434   0.406   0.129   2.945
62179SOL    HW288435   0.384   0.036   2.828
62180SOL     OW88436   8.703  10.782   0.494
62180SOL    HW188437   8.652  10.703   0.516
62180SOL    HW288438   8.679  10.845   0.563
62181SOL     OW88439  13.549   8.742   9.835
62181SOL    HW188440  13.633   8.710   9.801
62181SOL    HW288441  13.486   8.675   9.809
62182SOL     OW88442  10.258   5.317   4.071
62182SOL    HW188443  10.267   5.267   4.152
62182SOL    HW288444  10.346   5.315   4.032
62183SOL     OW88445   2.477   2.837  10.955
62183SOL    HW188446   2.382   2.832  10.943
62183SOL    HW288447   2.500   2.925  10.926
62184SOL     OW88448   8.574   7.714  11.982
62184SOL    HW188449   8.525   7.794  11.964
62184SOL    HW288450   8.656   7.723  11.933
62185SOL     OW88451   4.656  11.061  12.564
62185SOL    HW188452   4.567  11.025  12.565
62185SOL    HW288453   4.648  11.144  12.517
62186SOL     OW88454   3.358   7.974   1.304
62186SOL    HW188455   3.281   8.030   1.302
62186SOL    HW288456   3.324   7.885   1.292
62187SOL     OW88457  11.445   3.747   7.732
62187SOL    HW188458  11.496   3.824   7.758
62187SOL    HW288459  11.508   3.692   7.684
62188SOL     OW88460   1.803   3.054  14.017
62188SOL    HW188461   1.785   2.980  13.959
62188SOL    HW288462   1.891   3.037  14.051
62189SOL     OW88463   0.094  13.123   7.965
62189SOL    HW188464   0.140  13.202   7.993
62189SOL    HW288465   0.163  13.058   7.950
62190SOL     OW88466   0.342  11.706   5.279
62190SOL    HW188467   0.248  11.708   5.296
62190SOL    HW288468   0.372  11.795   5.295
62191SOL     OW88469   9.946  10.330   9.303
62191SOL    HW188470   9.866  10.358   9.347
62191SOL    HW288471   9.933  10.237   9.286
62192SOL     OW88472  12.807   0.948   6.267
62192SOL    HW188473  12.892   0.984   6.292
62192SOL    HW288474  12.744   1.015   6.292
62193SOL     OW88475   4.056   5.141   9.668
62193SOL    HW188476   4.149   5.161   9.682
62193SOL    HW288477   4.009   5.213   9.709
62194SOL     OW88478   7.988   6.292   9.018
62194SOL    HW188479   7.938   6.337   9.086
62194SOL    HW288480   8.070   6.341   9.012
62195SOL     OW88481  11.622  12.885  14.844
62195SOL    HW188482  11.715  12.908  14.842
62195SOL    HW288483  11.600  12.863  14.754
62196SOL     OW88484  11.212   7.278  12.353
62196SOL    HW188485  11.182   7.214  12.288
62196SOL    HW288486  11.180   7.362  12.319
62197SOL     OW88487   5.918  13.995   6.605
62197SOL    HW188488   5.822  13.989   6.612
62197SOL    HW288489   5.936  13.981   6.512
62198SOL     OW88490   8.179  12.278  12.804
62198SOL    HW188491   8.096  12.235  12.826
62198SOL    HW288492   8.191  12.260  12.710
62199SOL     OW88493   9.966  13.203   3.481
62199SOL    HW188494   9.933  13.116   3.461
62199SOL    HW288495   9.901  13.240   3.541
62200SOL     OW88496  14.177   9.405  12.029
62200SOL    HW188497  14.158   9.359  11.947
62200SOL    HW288498  14.271   9.424  12.025
62201SOL     OW88499   4.553  11.159   2.845
62201SOL    HW188500   4.647  11.143   2.846
62201SOL    HW288501   4.515  11.076   2.876
62202SOL     OW88502  10.242  10.507   2.439
62202SOL    HW188503  10.158  10.549   2.455
62202SOL    HW288504  10.298  10.577   2.406
62203SOL     OW88505  11.773   1.505  12.497
62203SOL    HW188506  11.791   1.590  12.536
62203SOL    HW288507  11.680   1.491  12.512
62204SOL     OW88508   5.745  12.479  13.499
62204SOL    HW188509   5.821  12.439  13.541
62204SOL    HW288510   5.782  12.544  13.440
62205SOL     OW88511   6.645  11.778   1.520
62205SOL    HW188512   6.581  11.772   1.591
62205SOL    HW288513   6.715  11.719   1.546
62206SOL     OW88514   6.573   4.855   6.191
62206SOL    HW188515   6.596   4.946   6.210
62206SOL    HW288516   6.571   4.850   6.096
62207SOL     OW88517   2.170   4.991  11.561
62207SOL    HW188518   2.117   5.069  11.549
62207SOL    HW288519   2.215   4.979  11.478
62208SOL     OW88520   9.158  14.780   7.819
62208SOL    HW188521   9.073  14.737   7.805
62208SOL    HW288522   9.139  14.873   7.810
62209SOL     OW88523   4.844   7.900  11.181
62209SOL    HW188524   4.796   7.852  11.114
62209SOL    HW288525   4.931   7.859  11.181
62210SOL     OW88526   3.596  10.197   7.900
62210SOL    HW188527   3.545  10.152   7.833
62210SOL    HW288528   3.567  10.288   7.896
62211SOL     OW88529  10.947   4.684  10.749
62211SOL    HW188530  10.933   4.652  10.660
62211SOL    HW288531  10.909   4.616  10.805
62212SOL     OW88532   9.731   3.807   5.073
62212SOL    HW188533   9.696   3.835   5.157
62212SOL    HW288534   9.677   3.853   5.008
62213SOL     OW88535   0.727   2.178  14.084
62213SOL    HW188536   0.675   2.256  14.066
62213SOL    HW288537   0.722   2.127  14.003
62214SOL     OW88538  11.242  10.758  10.657
62214SOL    HW188539  11.286  10.843  10.659
62214SOL    HW288540  11.259  10.721  10.743
62215SOL     OW88541   3.609   1.092  13.713
62215SOL    HW188542   3.578   1.035  13.783
62215SOL    HW288543   3.545   1.082  13.643
62216SOL     OW88544   1.397  11.482   3.362
62216SOL    HW188545   1.377  11.564   3.317
62216SOL    HW288546   1.445  11.509   3.441
62217SOL     OW88547   8.850   7.379   4.132
62217SOL    HW188548   8.772   7.427   4.102
62217SOL    HW288549   8.846   7.383   4.227
62218SOL     OW88550  10.157   7.563   4.053
62218SOL    HW188551  10.144   7.602   4.139
62218SOL    HW288552  10.081   7.592   4.002
62219SOL     OW88553   2.343  11.006  10.457
62219SOL    HW188554   2.416  11.002  10.395
62219SOL    HW288555   2.271  10.961  10.412
62220SOL     OW88556  12.907   5.325   9.648
62220SOL    HW188557  12.923   5.285   9.734
62220SOL    HW288558  12.885   5.252   9.591
62221SOL     OW88559   1.257   3.534  14.154
62221SOL    HW188560   1.225   3.511  14.241
62221SOL    HW288561   1.264   3.629  14.155
62222SOL     OW88562  11.630   9.765  12.090
62222SOL    HW188563  11.593   9.782  12.003
62222SOL    HW288564  11.659   9.851  12.120
62223SOL     OW88565   3.050  11.373   7.282
62223SOL    HW188566   3.127  11.406   7.236
62223SOL    HW288567   2.988  11.352   7.213
62224SOL     OW88568   5.941   8.476   6.025
62224SOL    HW188569   6.010   8.537   5.999
62224SOL    HW288570   5.859   8.520   6.000
62225SOL     OW88571   7.483   2.938   9.887
62225SOL    HW188572   7.473   2.920   9.794
62225SOL    HW288573   7.439   3.023   9.900
62226SOL     OW88574   1.248   7.090   4.347
62226SOL    HW188575   1.195   7.011   4.339
62226SOL    HW288576   1.314   7.081   4.278
62227SOL     OW88577   9.441   2.493   0.879
62227SOL    HW188578   9.507   2.549   0.837
62227SOL    HW288579   9.409   2.544   0.953
62228SOL     OW88580  11.428   8.637  10.948
62228SOL    HW188581  11.494   8.572  10.970
62228SOL    HW288582  11.349   8.608  10.994
62229SOL     OW88583   2.820  14.647   7.081
62229SOL    HW188584   2.828  14.554   7.063
62229SOL    HW288585   2.892  14.688   7.033
62230SOL     OW88586  12.275   1.900   7.867
62230SOL    HW188587  12.224   1.970   7.826
62230SOL    HW288588  12.294   1.839   7.796
62231SOL     OW88589   8.196  10.346   4.692
62231SOL    HW188590   8.120  10.403   4.681
62231SOL    HW288591   8.160  10.262   4.720
62232SOL     OW88592  13.528  10.212  11.157
62232SOL    HW188593  13.591  10.234  11.226
62232SOL    HW288594  13.575  10.227  11.075
62233SOL     OW88595   4.876  14.292   7.431
62233SOL    HW188596   4.873  14.206   7.390
62233SOL    HW288597   4.896  14.352   7.359
62234SOL     OW88598   9.923  12.020   7.645
62234SOL    HW188599   9.968  12.066   7.716
62234SOL    HW288600   9.834  12.006   7.677
62235SOL     OW88601  13.242   8.754   8.564
62235SOL    HW188602  13.152   8.726   8.581
62235SOL    HW288603  13.275   8.783   8.649
62236SOL     OW88604   7.357   6.821  13.382
62236SOL    HW188605   7.271   6.824  13.424
62236SOL    HW288606   7.359   6.899  13.327
62237SOL     OW88607  10.396   7.170  14.203
62237SOL    HW188608  10.407   7.076  14.214
62237SOL    HW288609  10.321   7.192  14.258
62238SOL     OW88610   6.157  14.523   3.199
62238SOL    HW188611   6.118  14.607   3.174
62238SOL    HW288612   6.126  14.462   3.133
62239SOL     OW88613   7.525   6.113  13.681
62239SOL    HW188614   7.541   6.207  13.677
62239SOL    HW288615   7.435   6.105  13.711
62240SOL     OW88616   4.249   1.297   2.685
62240SOL    HW188617   4.340   1.269   2.685
62240SOL    HW288618   4.222   1.293   2.593
62241SOL     OW88619   9.174  10.666   5.183
62241SOL    HW188620   9.213  10.635   5.102
62241SOL    HW288621   9.094  10.711   5.155
62242SOL     OW88622   5.762   0.221  11.489
62242SOL    HW188623   5.748   0.197  11.398
62242SOL    HW288624   5.832   0.286  11.486
62243SOL     OW88625   9.893   0.997   5.651
62243SOL    HW188626   9.890   0.901   5.654
62243SOL    HW288627   9.986   1.018   5.642
62244SOL     OW88628   7.852   4.112   7.708
62244SOL    HW188629   7.911   4.123   7.783
62244SOL    HW288630   7.909   4.112   7.632
62245SOL     OW88631   4.230   6.194   5.741
62245SOL    HW188632   4.235   6.132   5.814
62245SOL    HW288633   4.167   6.259   5.771
62246SOL     OW88634   1.902   8.942   4.562
62246SOL    HW188635   1.978   8.999   4.569
62246SOL    HW288636   1.859   8.948   4.647
62247SOL     OW88637   7.949   0.209  12.687
62247SOL    HW188638   7.887   0.224  12.758
62247SOL    HW288639   8.010   0.144  12.722
62248SOL     OW88640   5.558   9.224  10.020
62248SOL    HW188641   5.480   9.180  10.052
62248SOL    HW288642   5.571   9.298  10.080
62249SOL     OW88643   0.287  11.465  10.325
62249SOL    HW188644   0.226  11.538  10.313
62249SOL    HW288645   0.316  11.474  10.416
62250SOL     OW88646   4.906  10.106  10.996
62250SOL    HW188647   4.830  10.060  10.959
62250SOL    HW288648   4.936  10.162  10.924
62251SOL     OW88649   0.660   1.034  13.321
62251SOL    HW188650   0.586   1.040  13.260
62251SOL    HW288651   0.695   0.947  13.306
62252SOL     OW88652  11.774  10.793   5.373
62252SOL    HW188653  11.817  10.745   5.303
62252SOL    HW288654  11.711  10.731   5.409
62253SOL     OW88655   1.388   9.809   4.321
62253SOL    HW188656   1.467   9.851   4.353
62253SOL    HW288657   1.370   9.852   4.237
62254SOL     OW88658   4.289  11.801   9.298
62254SOL    HW188659   4.299  11.888   9.337
62254SOL    HW288660   4.371  11.786   9.251
62255SOL     OW88661   6.255   9.107  11.091
62255SOL    HW188662   6.343   9.082  11.064
62255SOL    HW288663   6.212   9.025  11.113
62256SOL     OW88664   1.621   2.717  12.358
62256SOL    HW188665   1.565   2.671  12.296
62256SOL    HW288666   1.627   2.658  12.433
62257SOL     OW88667  13.615  14.252   1.699
62257SOL    HW188668  13.538  14.248   1.643
62257SOL    HW288669  13.589  14.205   1.779
62258SOL     OW88670   0.064  12.448   6.085
62258SOL    HW188671   0.050  12.408   6.170
62258SOL    HW288672   0.045  12.379   6.022
62259SOL     OW88673   2.827   2.980   2.276
62259SOL    HW188674   2.846   3.063   2.233
62259SOL    HW288675   2.761   3.002   2.342
62260SOL     OW88676  14.549   3.848   2.756
62260SOL    HW188677  14.473   3.905   2.758
62260SOL    HW288678  14.598   3.871   2.836
62261SOL     OW88679  12.436  13.523   2.746
62261SOL    HW188680  12.397  13.609   2.730
62261SOL    HW288681  12.396  13.494   2.828
62262SOL     OW88682  13.104   8.457   0.863
62262SOL    HW188683  13.076   8.378   0.816
62262SOL    HW288684  13.026   8.514   0.861
62263SOL     OW88685   4.564  11.350  13.830
62263SOL    HW188686   4.483  11.371  13.783
62263SOL    HW288687   4.622  11.424  13.812
62264SOL     OW88688   6.446   0.454   8.775
62264SOL    HW188689   6.467   0.545   8.796
62264SOL    HW288690   6.352   0.447   8.793
62265SOL     OW88691  13.116   2.466   8.938
62265SOL    HW188692  13.060   2.445   8.863
62265SOL    HW288693  13.164   2.544   8.910
62266SOL     OW88694  13.801   5.987   7.895
62266SOL    HW188695  13.784   5.942   7.978
62266SOL    HW288696  13.795   6.080   7.917
62267SOL     OW88697  14.302   0.841   8.731
62267SOL    HW188698  14.325   0.915   8.674
62267SOL    HW288699  14.311   0.764   8.676
62268SOL     OW88700   2.041   9.190   7.777
62268SOL    HW188701   2.055   9.101   7.810
62268SOL    HW288702   2.122   9.236   7.798
62269SOL     OW88703   4.791  12.970   9.487
62269SOL    HW188704   4.705  12.968   9.529
62269SOL    HW288705   4.773  12.949   9.395
62270SOL     OW88706   4.167   6.509   6.763
62270SOL    HW188707   4.182   6.603   6.747
62270SOL    HW288708   4.146   6.474   6.677
62271SOL     OW88709  11.264   8.893   9.002
62271SOL    HW188710  11.314   8.879   9.082
62271SOL    HW288711  11.176   8.916   9.033
62272SOL     OW88712  14.814   3.255   0.856
62272SOL    HW188713  14.786   3.200   0.929
62272SOL    HW288714  14.797   3.344   0.886
62273SOL     OW88715  14.574  14.773  13.351
62273SOL    HW188716  14.518  14.707  13.309
62273SOL    HW288717  14.534  14.857  13.328
62274SOL     OW88718   6.017  14.545   6.071
62274SOL    HW188719   5.937  14.592   6.095
62274SOL    HW288720   6.000  14.514   5.982
62275SOL     OW88721   8.260   0.009   6.535
62275SOL    HW188722   8.201  14.853   6.466
62275SOL    HW288723   8.203   0.049   6.600
62276SOL     OW88724   5.353   7.713   3.523
62276SOL    HW188725   5.366   7.730   3.616
62276SOL    HW288726   5.258   7.715   3.511
62277SOL     OW88727   5.335  10.350  10.881
62277SOL    HW188728   5.338  10.338  10.976
62277SOL    HW288729   5.338  10.445  10.870
62278SOL     OW88730   4.902   1.550   2.198
62278SOL    HW188731   4.872   1.618   2.257
62278SOL    HW288732   4.827   1.492   2.187
62279SOL     OW88733   9.150   6.924  12.810
62279SOL    HW188734   9.216   6.900  12.875
62279SOL    HW288735   9.105   6.999  12.849
62280SOL     OW88736  10.613  12.639   2.544
62280SOL    HW188737  10.627  12.641   2.639
62280SOL    HW288738  10.537  12.582   2.533
62281SOL     OW88739   9.414  14.319   0.464
62281SOL    HW188740   9.476  14.361   0.524
62281SOL    HW288741   9.338  14.378   0.464
62282SOL     OW88742  11.572   9.133   8.068
62282SOL    HW188743  11.496   9.146   8.125
62282SOL    HW288744  11.647   9.131   8.128
62283SOL     OW88745   4.225   1.604  11.570
62283SOL    HW188746   4.292   1.537  11.586
62283SOL    HW288747   4.268   1.686  11.595
62284SOL     OW88748  11.714   4.867   5.319
62284SOL    HW188749  11.780   4.811   5.360
62284SOL    HW288750  11.689   4.820   5.240
62285SOL     OW88751   6.347   9.586   6.222
62285SOL    HW188752   6.389   9.531   6.288
62285SOL    HW288753   6.260   9.548   6.210
62286SOL     OW88754  13.801   3.720   0.695
62286SOL    HW188755  13.783   3.751   0.784
62286SOL    HW288756  13.896   3.713   0.690
62287SOL     OW88757   4.615   9.233   7.904
62287SOL    HW188758   4.685   9.275   7.854
62287SOL    HW288759   4.642   9.240   7.995
62288SOL     OW88760   0.224   2.612   5.135
62288SOL    HW188761   0.183   2.640   5.053
62288SOL    HW288762   0.318   2.627   5.122
62289SOL     OW88763   0.391  12.954   9.247
62289SOL    HW188764   0.410  12.865   9.275
62289SOL    HW288765   0.348  12.995   9.322
62290SOL     OW88766   2.699   7.623   9.143
62290SOL    HW188767   2.698   7.669   9.226
62290SOL    HW288768   2.669   7.688   9.079
62291SOL     OW88769   0.395   8.980  13.978
62291SOL    HW188770   0.473   8.993  13.924
62291SOL    HW288771   0.365   8.892  13.957
62292SOL     OW88772  14.874  13.474   6.853
62292SOL    HW188773  14.786  13.472   6.818
62292SOL    HW288774   0.056  13.461   6.777
62293SOL     OW88775   1.556   2.634   1.712
62293SOL    HW188776   1.481   2.628   1.772
62293SOL    HW288777   1.551   2.553   1.660
62294SOL     OW88778   8.829   4.766  12.461
62294SOL    HW188779   8.845   4.843  12.517
62294SOL    HW288780   8.825   4.801  12.372
62295SOL     OW88781   6.372   8.142  13.316
62295SOL    HW188782   6.465   8.151  13.294
62295SOL    HW288783   6.343   8.063  13.270
62296SOL     OW88784   8.993   2.110  11.942
62296SOL    HW188785   8.908   2.071  11.961
62296SOL    HW288786   9.046   2.091  12.019
62297SOL     OW88787   9.071   1.829   2.758
62297SOL    HW188788   9.165   1.831   2.745
62297SOL    HW288789   9.050   1.913   2.799
62298SOL     OW88790  12.966  11.550   9.997
62298SOL    HW188791  13.054  11.570  10.029
62298SOL    HW288792  12.912  11.544  10.075
62299SOL     OW88793   2.256   5.347  13.055
62299SOL    HW188794   2.324   5.372  12.992
62299SOL    HW288795   2.283   5.262  13.088
62300SOL     OW88796   7.699   7.963   1.373
62300SOL    HW188797   7.765   7.932   1.435
62300SOL    HW288798   7.680   7.887   1.318
62301SOL     OW88799  11.329  10.705   6.859
62301SOL    HW188800  11.389  10.760   6.808
62301SOL    HW288801  11.263  10.677   6.795
62302SOL     OW88802   9.367   7.132   0.264
62302SOL    HW188803   9.321   7.080   0.198
62302SOL    HW288804   9.363   7.222   0.230
62303SOL     OW88805  14.024   3.205   8.545
62303SOL    HW188806  13.957   3.231   8.482
62303SOL    HW288807  13.986   3.225   8.630
62304SOL     OW88808  11.482  10.239  11.403
62304SOL    HW188809  11.462  10.331  11.420
62304SOL    HW288810  11.397  10.199  11.385
62305SOL     OW88811   4.597   7.884   2.830
62305SOL    HW188812   4.517   7.861   2.782
62305SOL    HW288813   4.644   7.943   2.771
62306SOL     OW88814   1.753   5.793   5.429
62306SOL    HW188815   1.711   5.720   5.383
62306SOL    HW288816   1.700   5.869   5.406
62307SOL     OW88817   7.590  13.011  12.257
62307SOL    HW188818   7.667  13.010  12.313
62307SOL    HW288819   7.519  12.979  12.313
62308SOL     OW88820   4.437   0.084   1.174
62308SOL    HW188821   4.427   0.123   1.087
62308SOL    HW288822   4.526   0.049   1.174
62309SOL     OW88823  11.046   5.975  14.325
62309SOL    HW188824  10.967   6.000  14.374
62309SOL    HW288825  11.102   5.934  14.390
62310SOL     OW88826   1.684   2.197   9.712
62310SOL    HW188827   1.776   2.175   9.699
62310SOL    HW288828   1.638   2.113   9.703
62311SOL     OW88829  14.358   9.216   4.080
62311SOL    HW188830  14.378   9.298   4.035
62311SOL    HW288831  14.384   9.232   4.171
62312SOL     OW88832   9.453   8.112   6.090
62312SOL    HW188833   9.441   8.030   6.137
62312SOL    HW288834   9.428   8.092   6.000
62313SOL     OW88835   0.802   0.670   9.802
62313SOL    HW188836   0.854   0.597   9.835
62313SOL    HW288837   0.794   0.729   9.877
62314SOL     OW88838   2.344   9.997   8.544
62314SOL    HW188839   2.338   9.902   8.541
62314SOL    HW288840   2.371  10.017   8.634
62315SOL     OW88841  14.563   2.472   1.327
62315SOL    HW188842  14.551   2.383   1.360
62315SOL    HW288843  14.627   2.463   1.256
62316SOL     OW88844   0.706   6.504  12.859
62316SOL    HW188845   0.788   6.466  12.892
62316SOL    HW288846   0.734   6.562  12.788
62317SOL     OW88847  12.062   7.653   7.388
62317SOL    HW188848  12.031   7.744   7.387
62317SOL    HW288849  12.079   7.633   7.296
62318SOL     OW88850   2.696  12.036   4.778
62318SOL    HW188851   2.716  11.973   4.848
62318SOL    HW288852   2.636  11.989   4.720
62319SOL     OW88853  14.099  11.935   2.525
62319SOL    HW188854  14.148  11.936   2.608
62319SOL    HW288855  14.066  12.025   2.516
62320SOL     OW88856   7.810   9.671   8.057
62320SOL    HW188857   7.855   9.702   7.979
62320SOL    HW288858   7.718   9.667   8.031
62321SOL     OW88859   3.632   0.995   6.403
62321SOL    HW188860   3.688   1.051   6.458
62321SOL    HW288861   3.543   1.014   6.432
62322SOL     OW88862   1.951   2.517   1.257
62322SOL    HW188863   2.033   2.534   1.305
62322SOL    HW288864   1.892   2.482   1.324
62323SOL     OW88865  12.013  12.647   5.375
62323SOL    HW188866  12.078  12.577   5.380
62323SOL    HW288867  12.034  12.693   5.294
62324SOL     OW88868   5.431   8.180   3.903
62324SOL    HW188869   5.421   8.241   3.976
62324SOL    HW288870   5.391   8.098   3.934
62325SOL     OW88871   5.319   0.983  13.589
62325SOL    HW188872   5.378   1.038  13.639
62325SOL    HW288873   5.245   0.968  13.647
62326SOL     OW88874   0.774   8.388  12.230
62326SOL    HW188875   0.754   8.447  12.158
62326SOL    HW288876   0.689   8.368  12.269
62327SOL     OW88877  11.567  13.318   7.233
62327SOL    HW188878  11.626  13.290   7.163
62327SOL    HW288879  11.622  13.319   7.312
62328SOL     OW88880   1.109  12.933   7.809
62328SOL    HW188881   1.024  12.923   7.766
62328SOL    HW288882   1.170  12.889   7.750
62329SOL     OW88883   2.358  11.380   3.185
62329SOL    HW188884   2.317  11.461   3.213
62329SOL    HW288885   2.287  11.330   3.143
62330SOL     OW88886  11.138   1.666   3.116
62330SOL    HW188887  11.084   1.662   3.195
62330SOL    HW288888  11.127   1.580   3.075
62331SOL     OW88889   1.156   3.490   7.539
62331SOL    HW188890   1.223   3.551   7.570
62331SOL    HW288891   1.170   3.410   7.589
62332SOL     OW88892  13.799   0.801  10.183
62332SOL    HW188893  13.773   0.883  10.142
62332SOL    HW288894  13.772   0.733  10.121
62333SOL     OW88895  11.561   7.059  11.120
62333SOL    HW188896  11.604   7.102  11.047
62333SOL    HW288897  11.539   7.130  11.181
62334SOL     OW88898   1.621   9.705   5.042
62334SOL    HW188899   1.599   9.682   5.132
62334SOL    HW288900   1.629   9.800   5.042
62335SOL     OW88901  11.231   1.908   7.386
62335SOL    HW188902  11.198   1.869   7.305
62335SOL    HW288903  11.245   2.000   7.365
62336SOL     OW88904   3.083   6.170  10.248
62336SOL    HW188905   3.049   6.227  10.318
62336SOL    HW288906   3.162   6.131  10.285
62337SOL     OW88907   7.760   7.055   4.466
62337SOL    HW188908   7.841   7.094   4.498
62337SOL    HW288909   7.758   7.075   4.373
62338SOL     OW88910   6.430  12.817   6.294
62338SOL    HW188911   6.336  12.826   6.307
62338SOL    HW288912   6.440  12.802   6.200
62339SOL     OW88913   7.493   5.482   9.014
62339SOL    HW188914   7.482   5.574   9.039
62339SOL    HW288915   7.542   5.486   8.932
62340SOL     OW88916   8.606   9.581  11.745
62340SOL    HW188917   8.603   9.581  11.841
62340SOL    HW288918   8.640   9.667  11.722
62341SOL     OW88919   9.510  13.771  10.009
62341SOL    HW188920   9.458  13.709  10.061
62341SOL    HW288921   9.537  13.838  10.072
62342SOL     OW88922   8.232  13.232   3.897
62342SOL    HW188923   8.279  13.148   3.895
62342SOL    HW288924   8.296  13.295   3.865
62343SOL     OW88925   1.213  11.154  14.116
62343SOL    HW188926   1.275  11.146  14.188
62343SOL    HW288927   1.236  11.237  14.074
62344SOL     OW88928  14.065  14.397   2.561
62344SOL    HW188929  14.138  14.420   2.503
62344SOL    HW288930  13.993  14.378   2.502
62345SOL     OW88931  11.682   2.805   7.288
62345SOL    HW188932  11.590   2.792   7.265
62345SOL    HW288933  11.692   2.899   7.297
62346SOL     OW88934  11.787  11.839   1.709
62346SOL    HW188935  11.698  11.839   1.675
62346SOL    HW288936  11.842  11.859   1.634
62347SOL     OW88937   3.262  13.936  14.857
62347SOL    HW188938   3.176  13.914   0.016
62347SOL    HW288939   3.282  13.866  14.794
62348SOL     OW88940  11.432   3.790   3.682
62348SOL    HW188941  11.345   3.753   3.665
62348SOL    HW288942  11.467   3.737   3.753
62349SOL     OW88943  13.033   7.009  11.682
62349SOL    HW188944  12.974   6.955  11.733
62349SOL    HW288945  13.035   6.968  11.596
62350SOL     OW88946   1.176  10.729  13.692
62350SOL    HW188947   1.081  10.725  13.696
62350SOL    HW288948   1.199  10.805  13.746
62351SOL     OW88949   5.232  14.083   3.395
62351SOL    HW188950   5.196  13.994   3.394
62351SOL    HW288951   5.320  14.073   3.359
62352SOL     OW88952  13.054  12.809  12.756
62352SOL    HW188953  13.048  12.777  12.666
62352SOL    HW288954  13.008  12.892  12.755
62353SOL     OW88955  13.009   2.433  10.308
62353SOL    HW188956  12.917   2.424  10.282
62353SOL    HW288957  13.037   2.345  10.330
62354SOL     OW88958   1.700   2.362  14.168
62354SOL    HW188959   1.712   2.446  14.124
62354SOL    HW288960   1.638   2.315  14.113
62355SOL     OW88961   7.954  12.640   4.679
62355SOL    HW188962   8.045  12.642   4.648
62355SOL    HW288963   7.950  12.564   4.736
62356SOL     OW88964   9.920  10.204   6.173
62356SOL    HW188965   9.838  10.161   6.198
62356SOL    HW288966   9.953  10.153   6.099
62357SOL     OW88967  14.212   5.845   1.818
62357SOL    HW188968  14.298   5.838   1.775
62357SOL    HW288969  14.227   5.811   1.906
62358SOL     OW88970   7.176   4.375   8.040
62358SOL    HW188971   7.202   4.295   8.085
62358SOL    HW288972   7.159   4.437   8.111
62359SOL     OW88973   9.831  12.107  11.347
62359SOL    HW188974   9.919  12.100  11.311
62359SOL    HW288975   9.778  12.144  11.276
62360SOL     OW88976   2.306   4.933   2.400
62360SOL    HW188977   2.285   4.870   2.332
62360SOL    HW288978   2.248   4.910   2.473
62361SOL     OW88979   0.232   6.628  13.334
62361SOL    HW188980   0.155   6.612  13.280
62361SOL    HW288981   0.306   6.609  13.276
62362SOL     OW88982  10.272   2.189   7.107
62362SOL    HW188983  10.228   2.147   7.032
62362SOL    HW288984  10.333   2.251   7.068
62363SOL     OW88985  13.979   2.018   1.465
62363SOL    HW188986  14.053   1.998   1.523
62363SOL    HW288987  13.953   1.932   1.430
62364SOL     OW88988   4.505   9.647   5.409
62364SOL    HW188989   4.456   9.676   5.485
62364SOL    HW288990   4.497   9.552   5.410
62365SOL     OW88991   2.481   5.247   4.743
62365SOL    HW188992   2.572   5.254   4.774
62365SOL    HW288993   2.429   5.289   4.811
62366SOL     OW88994   1.218  13.249   7.852
62366SOL    HW188995   1.165  13.270   7.775
62366SOL    HW288996   1.227  13.153   7.850
62367SOL     OW88997   6.966   1.972   6.041
62367SOL    HW188998   6.993   1.882   6.021
62367SOL    HW288999   7.026   1.999   6.111
62368SOL     OW89000   4.913   1.767  10.293
62368SOL    HW189001   4.829   1.728  10.267
62368SOL    HW289002   4.889   1.840  10.349
62369SOL     OW89003   1.899   0.223   5.714
62369SOL    HW189004   1.823   0.165   5.705
62369SOL    HW289005   1.972   0.164   5.731
62370SOL     OW89006  11.221   6.737   6.342
62370SOL    HW189007  11.271   6.805   6.296
62370SOL    HW289008  11.136   6.735   6.298
62371SOL     OW89009   9.028   9.566  13.762
62371SOL    HW189010   9.084   9.558  13.685
62371SOL    HW289011   8.999   9.657  13.761
62372SOL     OW89012   6.550   9.354  14.731
62372SOL    HW189013   6.455   9.366  14.721
62372SOL    HW289014   6.573   9.290  14.664
62373SOL     OW89015   9.096   5.270   1.584
62373SOL    HW189016   9.123   5.355   1.550
62373SOL    HW289017   9.150   5.257   1.662
62374SOL     OW89018   6.973   7.074  14.473
62374SOL    HW189019   7.007   6.985  14.486
62374SOL    HW289020   7.050   7.130  14.475
62375SOL     OW89021  14.180  12.249  11.524
62375SOL    HW189022  14.248  12.306  11.487
62375SOL    HW289023  14.227  12.171  11.552
62376SOL     OW89024  11.969   2.145   1.204
62376SOL    HW189025  11.986   2.068   1.149
62376SOL    HW289026  11.944   2.108   1.289
62377SOL     OW89027   4.171   0.888   1.494
62377SOL    HW189028   4.103   0.918   1.433
62377SOL    HW289029   4.219   0.821   1.445
62378SOL     OW89030  14.830   4.262   9.822
62378SOL    HW189031  14.828   4.356   9.799
62378SOL    HW289032  14.793   4.259   9.910
62379SOL     OW89033   4.254   0.820   8.707
62379SOL    HW189034   4.172   0.867   8.690
62379SOL    HW289035   4.310   0.840   8.632
62380SOL     OW89036  13.548  11.727   3.199
62380SOL    HW189037  13.622  11.786   3.206
62380SOL    HW289038  13.471  11.783   3.209
62381SOL     OW89039  14.120  10.945   1.602
62381SOL    HW189040  14.173  10.886   1.548
62381SOL    HW289041  14.056  10.888   1.644
62382SOL     OW89042   5.173  12.401   2.650
62382SOL    HW189043   5.181  12.495   2.661
62382SOL    HW289044   5.189  12.365   2.737
62383SOL     OW89045  12.937   3.262   0.968
62383SOL    HW189046  12.882   3.224   1.036
62383SOL    HW289047  12.916   3.211   0.890
62384SOL     OW89048   4.097   2.230   2.693
62384SOL    HW189049   4.161   2.268   2.753
62384SOL    HW289050   4.018   2.220   2.745
62385SOL     OW89051   6.523   2.313   7.734
62385SOL    HW189052   6.507   2.397   7.777
62385SOL    HW289053   6.585   2.333   7.664
62386SOL     OW89054   5.106   1.693  11.741
62386SOL    HW189055   5.187   1.673  11.787
62386SOL    HW289056   5.064   1.760  11.794
62387SOL     OW89057   0.094   2.401   4.011
62387SOL    HW189058   0.114   2.494   4.017
62387SOL    HW289059   0.054   2.390   3.924
62388SOL     OW89060   5.322   3.526   2.711
62388SOL    HW189061   5.407   3.488   2.732
62388SOL    HW289062   5.261   3.453   2.716
62389SOL     OW89063   3.066   7.128  12.527
62389SOL    HW189064   3.065   7.071  12.449
62389SOL    HW289065   3.157   7.125  12.557
62390SOL     OW89066  13.583   1.683   5.787
62390SOL    HW189067  13.590   1.628   5.709
62390SOL    HW289068  13.670   1.719   5.800
62391SOL     OW89069   1.111   7.462   2.069
62391SOL    HW189070   1.183   7.400   2.076
62391SOL    HW289071   1.118   7.497   1.980
62392SOL     OW89072   2.481   1.684   6.242
62392SOL    HW189073   2.558   1.647   6.286
62392SOL    HW289074   2.472   1.631   6.163
62393SOL     OW89075   3.872  13.413  14.750
62393SOL    HW189076   3.911  13.480  14.807
62393SOL    HW289077   3.812  13.366  14.808
62394SOL     OW89078   4.877  13.669   2.457
62394SOL    HW189079   4.926  13.656   2.376
62394SOL    HW289080   4.785  13.661   2.432
62395SOL     OW89081  13.379   1.163   4.559
62395SOL    HW189082  13.461   1.115   4.568
62395SOL    HW289083  13.336   1.153   4.644
62396SOL     OW89084  13.424  11.221   7.736
62396SOL    HW189085  13.493  11.190   7.679
62396SOL    HW289086  13.456  11.305   7.769
62397SOL     OW89087  13.210  10.604  12.814
62397SOL    HW189088  13.277  10.552  12.859
62397SOL    HW289089  13.148  10.540  12.780
62398SOL     OW89090   8.162   2.042   7.989
62398SOL    HW189091   8.143   2.062   8.081
62398SOL    HW289092   8.094   1.980   7.963
62399SOL     OW89093   1.740   8.251  12.064
62399SOL    HW189094   1.714   8.204  12.143
62399SOL    HW289095   1.817   8.203  12.032
62400SOL     OW89096   0.091   9.586   7.631
62400SOL    HW189097   0.071   9.513   7.688
62400SOL    HW289098   0.031   9.577   7.557
62401SOL     OW89099   0.987   5.595   8.577
62401SOL    HW189100   0.896   5.622   8.572
62401SOL    HW289101   1.000   5.541   8.499
62402SOL     OW89102   1.875  14.419   3.739
62402SOL    HW189103   1.844  14.396   3.827
62402SOL    HW289104   1.857  14.341   3.686
62403SOL     OW89105  10.872  14.775   6.810
62403SOL    HW189106  10.917  14.859   6.808
62403SOL    HW289107  10.892  14.734   6.726
62404SOL     OW89108  12.292   5.342   2.983
62404SOL    HW189109  12.226   5.274   2.970
62404SOL    HW289110  12.322   5.364   2.894
62405SOL     OW89111   6.082   2.557  10.174
62405SOL    HW189112   6.078   2.631  10.114
62405SOL    HW289113   6.095   2.481  10.116
62406SOL     OW89114  10.705  14.654   9.803
62406SOL    HW189115  10.776  14.701   9.759
62406SOL    HW289116  10.700  14.693   9.890
62407SOL     OW89117   9.974   1.197   3.098
62407SOL    HW189118   9.885   1.232   3.110
62407SOL    HW289119  10.031   1.265   3.135
62408SOL     OW89120   3.436   8.516   7.267
62408SOL    HW189121   3.439   8.588   7.329
62408SOL    HW289122   3.514   8.464   7.286
62409SOL     OW89123   0.583   9.828   5.038
62409SOL    HW189124   0.643   9.824   5.112
62409SOL    HW289125   0.637   9.808   4.962
62410SOL     OW89126  13.566  11.700   2.055
62410SOL    HW189127  13.625  11.660   2.120
62410SOL    HW289128  13.489  11.643   2.054
62411SOL     OW89129  13.493   5.911  12.402
62411SOL    HW189130  13.505   5.872  12.488
62411SOL    HW289131  13.581   5.928  12.370
62412SOL     OW89132   0.307  11.526   9.481
62412SOL    HW189133   0.219  11.564   9.471
62412SOL    HW289134   0.301  11.442   9.437
62413SOL     OW89135  12.719   8.502   1.048
62413SOL    HW189136  12.634   8.459   1.038
62413SOL    HW289137  12.765   8.482   0.966
62414SOL     OW89138   4.228   2.114  12.167
62414SOL    HW189139   4.226   2.021  12.145
62414SOL    HW289140   4.303   2.148  12.118
62415SOL     OW89141   9.852   4.719   2.498
62415SOL    HW189142   9.920   4.681   2.553
62415SOL    HW289143   9.897   4.784   2.445
62416SOL     OW89144   4.996  12.095  13.467
62416SOL    HW189145   4.909  12.123  13.437
62416SOL    HW289146   4.978  12.015  13.517
62417SOL     OW89147   6.407   8.541   8.231
62417SOL    HW189148   6.456   8.474   8.184
62417SOL    HW289149   6.473   8.590   8.280
62418SOL     OW89150   0.561   4.438   7.294
62418SOL    HW189151   0.552   4.350   7.330
62418SOL    HW289152   0.654   4.447   7.273
62419SOL     OW89153  11.156  12.277  13.058
62419SOL    HW189154  11.064  12.287  13.084
62419SOL    HW289155  11.175  12.356  13.008
62420SOL     OW89156   5.790   9.386   1.447
62420SOL    HW189157   5.745   9.470   1.435
62420SOL    HW289158   5.848   9.380   1.371
62421SOL     OW89159   1.655   3.986  10.495
62421SOL    HW189160   1.740   3.996  10.452
62421SOL    HW289161   1.594   4.029  10.436
62422SOL     OW89162  13.080   6.132  10.009
62422SOL    HW189163  13.161   6.177  10.034
62422SOL    HW289164  13.109   6.064   9.948
62423SOL     OW89165   7.447   1.059   8.161
62423SOL    HW189166   7.366   1.035   8.206
62423SOL    HW289167   7.506   0.985   8.179
62424SOL     OW89168  13.034   0.370  11.396
62424SOL    HW189169  13.078   0.321  11.326
62424SOL    HW289170  13.103   0.424  11.433
62425SOL     OW89171   4.389   6.255  13.259
62425SOL    HW189172   4.466   6.229  13.208
62425SOL    HW289173   4.342   6.174  13.275
62426SOL     OW89174   1.960   2.337  10.773
62426SOL    HW189175   1.938   2.424  10.742
62426SOL    HW289176   1.996   2.292  10.696
62427SOL     OW89177  12.841   7.144   0.819
62427SOL    HW189178  12.775   7.128   0.752
62427SOL    HW289179  12.802   7.212   0.874
62428SOL     OW89180  14.686   8.237   9.116
62428SOL    HW189181  14.744   8.312   9.107
62428SOL    HW289182  14.607   8.273   9.158
62429SOL     OW89183  11.654  10.577   9.197
62429SOL    HW189184  11.692  10.665   9.195
62429SOL    HW289185  11.678  10.538   9.112
62430SOL     OW89186   4.470   9.129  14.369
62430SOL    HW189187   4.475   9.146  14.463
62430SOL    HW289188   4.392   9.075  14.359
62431SOL     OW89189  13.705   6.660   4.496
62431SOL    HW189190  13.768   6.590   4.515
62431SOL    HW289191  13.630   6.615   4.459
62432SOL     OW89192  13.318  14.377   4.363
62432SOL    HW189193  13.304  14.468   4.389
62432SOL    HW289194  13.395  14.380   4.306
62433SOL     OW89195   4.429  10.613  11.685
62433SOL    HW189196   4.465  10.590  11.599
62433SOL    HW289197   4.376  10.691  11.669
62434SOL     OW89198  10.312   4.216   7.057
62434SOL    HW189199  10.323   4.226   7.152
62434SOL    HW289200  10.220   4.237   7.042
62435SOL     OW89201   0.329  13.182   2.439
62435SOL    HW189202   0.423  13.172   2.424
62435SOL    HW289203   0.322  13.248   2.509
62436SOL     OW89204  12.284   2.702   1.306
62436SOL    HW189205  12.207   2.671   1.353
62436SOL    HW289206  12.254   2.715   1.216
62437SOL     OW89207  10.729   0.112   5.580
62437SOL    HW189208  10.705   0.074   5.664
62437SOL    HW289209  10.699   0.203   5.586
62438SOL     OW89210   0.951   4.891  12.048
62438SOL    HW189211   0.883   4.883  11.980
62438SOL    HW289212   1.028   4.922  12.001
62439SOL     OW89213   2.909   8.292   1.394
62439SOL    HW189214   2.958   8.374   1.391
62439SOL    HW289215   2.966   8.229   1.350
62440SOL     OW89216   5.907   3.681   7.396
62440SOL    HW189217   5.945   3.616   7.455
62440SOL    HW289218   5.962   3.759   7.408
62441SOL     OW89219   7.166   1.574   7.604
62441SOL    HW189220   7.255   1.547   7.583
62441SOL    HW289221   7.116   1.492   7.605
62442SOL     OW89222   0.212  12.304   2.726
62442SOL    HW189223   0.163  12.298   2.808
62442SOL    HW289224   0.304  12.294   2.751
62443SOL     OW89225   3.809   8.574  14.022
62443SOL    HW189226   3.847   8.486  14.023
62443SOL    HW289227   3.717   8.561  14.044
62444SOL     OW89228  12.144   0.833   3.351
62444SOL    HW189229  12.124   0.768   3.283
62444SOL    HW289230  12.136   0.917   3.307
62445SOL     OW89231  12.829   6.739   8.093
62445SOL    HW189232  12.883   6.762   8.169
62445SOL    HW289233  12.757   6.687   8.129
62446SOL     OW89234  11.302   4.553   8.700
62446SOL    HW189235  11.362   4.478   8.707
62446SOL    HW289236  11.232   4.535   8.762
62447SOL     OW89237  13.972  13.771  11.640
62447SOL    HW189238  13.940  13.684  11.615
62447SOL    HW289239  13.893  13.821  11.656
62448SOL     OW89240   9.983   3.342   3.463
62448SOL    HW189241   9.998   3.249   3.475
62448SOL    HW289242   9.906   3.362   3.516
62449SOL     OW89243  11.155   0.848  13.432
62449SOL    HW189244  11.080   0.788  13.437
62449SOL    HW289245  11.175   0.868  13.524
62450SOL     OW89246  12.822   9.786  10.244
62450SOL    HW189247  12.851   9.714  10.301
62450SOL    HW289248  12.880   9.781  10.168
62451SOL     OW89249   7.492  14.784  11.729
62451SOL    HW189250   7.404  14.788  11.691
62451SOL    HW289251   7.550  14.810  11.657
62452SOL     OW89252   9.220   4.568  11.487
62452SOL    HW189253   9.265   4.607  11.562
62452SOL    HW289254   9.127   4.574  11.508
62453SOL     OW89255   7.277   6.792   6.542
62453SOL    HW189256   7.261   6.887   6.547
62453SOL    HW289257   7.318   6.780   6.456
62454SOL     OW89258   9.167  14.431   0.438
62454SOL    HW189259   9.148  14.338   0.437
62454SOL    HW289260   9.094  14.471   0.486
62455SOL     OW89261  13.389   5.997  10.598
62455SOL    HW189262  13.363   5.906  10.608
62455SOL    HW289263  13.464   6.008  10.657
62456SOL     OW89264   1.088   5.698   3.062
62456SOL    HW189265   1.094   5.786   3.100
62456SOL    HW289266   1.064   5.713   2.971
62457SOL     OW89267  10.928  14.519  10.016
62457SOL    HW189268  10.841  14.551  10.040
62457SOL    HW289269  10.920  14.498   9.923
62458SOL     OW89270   2.192  13.210   5.328
62458SOL    HW189271   2.247  13.253   5.394
62458SOL    HW289272   2.247  13.207   5.250
62459SOL     OW89273   1.306   2.491   2.143
62459SOL    HW189274   1.284   2.554   2.211
62459SOL    HW289275   1.387   2.450   2.174
62460SOL     OW89276  10.438  11.822   6.726
62460SOL    HW189277  10.436  11.728   6.740
62460SOL    HW289278  10.524  11.839   6.686
62461SOL     OW89279   1.773  11.403   0.479
62461SOL    HW189280   1.749  11.490   0.448
62461SOL    HW289281   1.868  11.407   0.490
62462SOL     OW89282   9.308  14.002   5.625
62462SOL    HW189283   9.300  14.031   5.716
62462SOL    HW289284   9.298  13.907   5.630
62463SOL     OW89285   7.715   2.146  10.248
62463SOL    HW189286   7.797   2.195  10.238
62463SOL    HW289287   7.744   2.055  10.257
62464SOL     OW89288   9.934  10.694  14.722
62464SOL    HW189289   9.842  10.700  14.748
62464SOL    HW289290   9.932  10.654  14.635
62465SOL     OW89291   3.153   6.325  12.983
62465SOL    HW189292   3.189   6.277  13.058
62465SOL    HW289293   3.126   6.409  13.019
62466SOL     OW89294   0.980   3.809   6.133
62466SOL    HW189295   1.037   3.851   6.068
62466SOL    HW289296   0.906   3.777   6.082
62467SOL     OW89297   2.138   5.339  13.459
62467SOL    HW189298   2.154   5.413  13.517
62467SOL    HW289299   2.110   5.378  13.377
62468SOL     OW89300   8.932  10.702  11.621
62468SOL    HW189301   8.907  10.682  11.711
62468SOL    HW289302   9.023  10.731  11.626
62469SOL     OW89303   7.774  10.389   1.416
62469SOL    HW189304   7.792  10.297   1.431
62469SOL    HW289305   7.718  10.416   1.489
62470SOL     OW89306   9.243  11.510   2.442
62470SOL    HW189307   9.259  11.588   2.388
62470SOL    HW289308   9.191  11.452   2.386
62471SOL     OW89309  12.876   6.045  14.329
62471SOL    HW189310  12.927   5.977  14.285
62471SOL    HW289311  12.940   6.091  14.384
62472SOL     OW89312   1.941  12.263   6.760
62472SOL    HW189313   1.957  12.275   6.854
62472SOL    HW289314   1.900  12.344   6.732
62473SOL     OW89315  10.010   7.494   4.609
62473SOL    HW189316  10.096   7.537   4.611
62473SOL    HW289317   9.957   7.544   4.671
62474SOL     OW89318   1.939   3.685   7.405
62474SOL    HW189319   1.944   3.755   7.470
62474SOL    HW289320   1.931   3.731   7.322
62475SOL     OW89321  10.480   2.237   3.925
62475SOL    HW189322  10.531   2.186   3.988
62475SOL    HW289323  10.448   2.172   3.862
62476SOL     OW89324  11.584   8.565   1.782
62476SOL    HW189325  11.503   8.522   1.757
62476SOL    HW289326  11.614   8.609   1.702
62477SOL     OW89327   8.723   4.038   0.009
62477SOL    HW189328   8.778   4.115  14.872
62477SOL    HW289329   8.733   4.015   0.101
62478SOL     OW89330   4.702  10.938  13.635
62478SOL    HW189331   4.708  11.012  13.695
62478SOL    HW289332   4.709  10.861  13.692
62479SOL     OW89333   8.892   6.360   2.393
62479SOL    HW189334   8.912   6.419   2.320
62479SOL    HW289335   8.805   6.388   2.423
62480SOL     OW89336   3.294  10.014   8.400
62480SOL    HW189337   3.277   9.941   8.460
62480SOL    HW289338   3.228  10.080   8.424
62481SOL     OW89339   0.176   6.115  10.329
62481SOL    HW189340   0.234   6.140  10.401
62481SOL    HW289341   0.105   6.067  10.371
62482SOL     OW89342   4.676  12.393   2.122
62482SOL    HW189343   4.758  12.443   2.111
62482SOL    HW289344   4.607  12.459   2.116
62483SOL     OW89345   6.705   0.258   6.910
62483SOL    HW189346   6.766   0.331   6.919
62483SOL    HW289347   6.760   0.183   6.889
62484SOL     OW89348  12.755  14.576   9.320
62484SOL    HW189349  12.821  14.619   9.374
62484SOL    HW289350  12.725  14.502   9.374
62485SOL     OW89351  14.253   0.941   2.085
62485SOL    HW189352  14.239   0.930   1.991
62485SOL    HW289353  14.223   0.858   2.123
62486SOL     OW89354  12.948  10.177  14.769
62486SOL    HW189355  13.036  10.169  14.734
62486SOL    HW289356  12.913  10.258  14.731
62487SOL     OW89357  13.002   7.892   9.830
62487SOL    HW189358  12.914   7.893   9.868
62487SOL    HW289359  12.993   7.847   9.746
62488SOL     OW89360   7.190  10.468   2.832
62488SOL    HW189361   7.137  10.545   2.853
62488SOL    HW289362   7.262  10.471   2.894
62489SOL     OW89363  14.638   1.416   2.735
62489SOL    HW189364  14.691   1.345   2.698
62489SOL    HW289365  14.597   1.377   2.812
62490SOL     OW89366  11.908  13.637   2.740
62490SOL    HW189367  11.869  13.723   2.754
62490SOL    HW289368  11.922  13.631   2.646
62491SOL     OW89369  14.537  14.470   6.774
62491SOL    HW189370  14.516  14.437   6.861
62491SOL    HW289371  14.558  14.392   6.722
62492SOL     OW89372   6.700   0.610   3.499
62492SOL    HW189373   6.696   0.678   3.566
62492SOL    HW289374   6.639   0.543   3.530
62493SOL     OW89375   2.772   4.929   0.794
62493SOL    HW189376   2.768   5.009   0.741
62493SOL    HW289377   2.757   4.858   0.732
62494SOL     OW89378  14.409   7.228   6.422
62494SOL    HW189379  14.474   7.172   6.466
62494SOL    HW289380  14.441   7.238   6.333
62495SOL     OW89381   5.666  13.361  14.500
62495SOL    HW189382   5.579  13.381  14.536
62495SOL    HW289383   5.708  13.447  14.491
62496SOL     OW89384   5.364   4.011   8.782
62496SOL    HW189385   5.378   3.924   8.821
62496SOL    HW289386   5.275   4.035   8.809
62497SOL     OW89387   3.261  10.927   0.161
62497SOL    HW189388   3.206  10.998   0.195
62497SOL    HW289389   3.320  10.971   0.099
62498SOL     OW89390   8.591   9.358   7.974
62498SOL    HW189391   8.559   9.296   7.909
62498SOL    HW289392   8.531   9.432   7.970
62499SOL     OW89393   2.519   6.146  14.183
62499SOL    HW189394   2.437   6.183  14.215
62499SOL    HW289395   2.501   6.052  14.174
62500SOL     OW89396   9.556  13.111  11.060
62500SOL    HW189397   9.619  13.062  11.113
62500SOL    HW289398   9.591  13.201  11.059
62501SOL     OW89399   2.818  14.152   8.366
62501SOL    HW189400   2.735  14.163   8.320
62501SOL    HW289401   2.800  14.089   8.436
62502SOL     OW89402   4.713   3.678   8.190
62502SOL    HW189403   4.755   3.650   8.109
62502SOL    HW289404   4.636   3.621   8.198
62503SOL     OW89405  12.026   4.392   6.057
62503SOL    HW189406  12.121   4.379   6.062
62503SOL    HW289407  12.000   4.417   6.146
62504SOL     OW89408  11.140   1.039   5.398
62504SOL    HW189409  11.073   1.036   5.466
62504SOL    HW289410  11.104   1.096   5.330
62505SOL     OW89411  12.367  13.042   1.306
62505SOL    HW189412  12.323  12.992   1.238
62505SOL    HW289413  12.384  13.127   1.266
62506SOL     OW89414  12.002  11.211   2.991
62506SOL    HW189415  12.097  11.197   2.987
62506SOL    HW289416  11.964  11.124   2.978
62507SOL     OW89417   3.059   7.386  10.942
62507SOL    HW189418   3.086   7.298  10.966
62507SOL    HW289419   2.995   7.373  10.871
62508SOL     OW89420   3.793   0.023  10.670
62508SOL    HW189421   3.746  14.819  10.642
62508SOL    HW289422   3.830   0.059  10.590
62509SOL     OW89423   8.141  13.076  11.628
62509SOL    HW189424   8.220  13.023  11.630
62509SOL    HW289425   8.103  13.067  11.715
62510SOL     OW89426  14.618   9.674  12.578
62510SOL    HW189427  14.554   9.604  12.591
62510SOL    HW289428  14.589   9.744  12.636
62511SOL     OW89429   3.203   4.152   3.815
62511SOL    HW189430   3.287   4.155   3.862
62511SOL    HW289431   3.143   4.203   3.869
62512SOL     OW89432  10.851  14.070   8.287
62512SOL    HW189433  10.905  14.130   8.235
62512SOL    HW289434  10.825  14.002   8.225
62513SOL     OW89435  13.021   5.221   7.030
62513SOL    HW189436  13.010   5.221   7.125
62513SOL    HW289437  13.103   5.174   7.015
62514SOL     OW89438  14.669   2.992   5.954
62514SOL    HW189439  14.761   3.015   5.940
62514SOL    HW289440  14.630   2.992   5.867
62515SOL     OW89441   5.792   3.640  11.296
62515SOL    HW189442   5.878   3.680  11.286
62515SOL    HW289443   5.806   3.548  11.273
62516SOL     OW89444  13.631  14.544   6.903
62516SOL    HW189445  13.703  14.558   6.842
62516SOL    HW289446  13.592  14.461   6.875
62517SOL     OW89447  10.286   2.523  14.725
62517SOL    HW189448  10.311   2.570  14.645
62517SOL    HW289449  10.227   2.583  14.770
62518SOL     OW89450   9.096   4.363  11.708
62518SOL    HW189451   9.100   4.373  11.612
62518SOL    HW289452   9.166   4.302  11.729
62519SOL     OW89453   2.087   1.299   6.445
62519SOL    HW189454   2.182   1.292   6.435
62519SOL    HW289455   2.069   1.392   6.434
62520SOL     OW89456   6.231  11.007  12.306
62520SOL    HW189457   6.268  11.037  12.389
62520SOL    HW289458   6.284  10.930  12.284
62521SOL     OW89459   5.132   4.526  11.870
62521SOL    HW189460   5.151   4.466  11.941
62521SOL    HW289461   5.210   4.581  11.863
62522SOL     OW89462  10.693  10.270   4.827
62522SOL    HW189463  10.664  10.244   4.740
62522SOL    HW289464  10.776  10.315   4.813
62523SOL     OW89465   8.551   3.373   8.673
62523SOL    HW189466   8.547   3.438   8.603
62523SOL    HW289467   8.636   3.387   8.714
62524SOL     OW89468   1.455  10.424   7.384
62524SOL    HW189469   1.367  10.447   7.413
62524SOL    HW289470   1.441  10.372   7.305
62525SOL     OW89471  11.607   1.649  12.299
62525SOL    HW189472  11.551   1.580  12.336
62525SOL    HW289473  11.662   1.676  12.372
62526SOL     OW89474   8.061  12.282   4.348
62526SOL    HW189475   7.995  12.350   4.340
62526SOL    HW289476   8.102  12.300   4.433
62527SOL     OW89477  13.305   4.197  12.284
62527SOL    HW189478  13.325   4.233  12.198
62527SOL    HW289479  13.215   4.165  12.276
62528SOL     OW89480   4.431   7.334   1.742
62528SOL    HW189481   4.362   7.399   1.732
62528SOL    HW289482   4.444   7.328   1.837
62529SOL     OW89483   2.449  13.528   2.483
62529SOL    HW189484   2.436  13.479   2.402
62529SOL    HW289485   2.543  13.518   2.501
62530SOL     OW89486   3.401   9.294   5.907
62530SOL    HW189487   3.441   9.225   5.855
62530SOL    HW289488   3.328   9.251   5.951
62531SOL     OW89489  11.691  13.109  13.759
62531SOL    HW189490  11.614  13.053  13.750
62531SOL    HW289491  11.742  13.093  13.680
62532SOL     OW89492  11.898   9.097  12.005
62532SOL    HW189493  11.919   9.020  11.951
62532SOL    HW289494  11.862   9.062  12.086
62533SOL     OW89495   0.603   9.037   5.184
62533SOL    HW189496   0.537   8.981   5.143
62533SOL    HW289497   0.616   9.000   5.271
62534SOL     OW89498   1.211   8.007   7.578
62534SOL    HW189499   1.156   8.004   7.500
62534SOL    HW289500   1.149   7.999   7.651
62535SOL     OW89501   4.710   5.277   0.005
62535SOL    HW189502   4.655   5.253  14.805
62535SOL    HW289503   4.799   5.253  14.854
62536SOL     OW89504   8.186   8.606   6.118
62536SOL    HW189505   8.211   8.514   6.126
62536SOL    HW289506   8.103   8.605   6.070
62537SOL     OW89507   8.556  13.445   6.789
62537SOL    HW189508   8.648  13.472   6.795
62537SOL    HW289509   8.530  13.428   6.880
62538SOL     OW89510   6.787   0.466  11.374
62538SOL    HW189511   6.728   0.540  11.389
62538SOL    HW289512   6.808   0.469  11.281
62539SOL     OW89513   6.542   1.821  11.052
62539SOL    HW189514   6.632   1.806  11.083
62539SOL    HW289515   6.552   1.871  10.971
62540SOL     OW89516   2.148   0.497   7.704
62540SOL    HW189517   2.225   0.519   7.757
62540SOL    HW289518   2.183   0.476   7.618
62541SOL     OW89519   3.193  14.634   8.907
62541SOL    HW189520   3.110  14.601   8.942
62541SOL    HW289521   3.249  14.556   8.903
62542SOL     OW89522   7.684   2.281   7.980
62542SOL    HW189523   7.649   2.241   8.059
62542SOL    HW289524   7.777   2.291   7.996
62543SOL     OW89525   8.211   7.654   8.183
62543SOL    HW189526   8.228   7.589   8.251
62543SOL    HW289527   8.122   7.684   8.200
62544SOL     OW89528   7.503  14.594  12.327
62544SOL    HW189529   7.598  14.597  12.336
62544SOL    HW289530   7.482  14.669  12.272
62545SOL     OW89531  14.283  12.897  10.975
62545SOL    HW189532  14.372  12.929  10.989
62545SOL    HW289533  14.228  12.949  11.033
62546SOL     OW89534  10.426   0.175  10.617
62546SOL    HW189535  10.347   0.195  10.566
62546SOL    HW289536  10.410   0.088  10.653
62547SOL     OW89537  14.536   7.539   5.238
62547SOL    HW189538  14.470   7.545   5.307
62547SOL    HW289539  14.611   7.590   5.271
62548SOL     OW89540   9.025  10.485   0.637
62548SOL    HW189541   9.082  10.501   0.712
62548SOL    HW289542   9.071  10.524   0.563
62549SOL     OW89543   8.829  12.820   9.880
62549SOL    HW189544   8.876  12.819   9.963
62549SOL    HW289545   8.740  12.844   9.903
62550SOL     OW89546   3.145   9.470   9.812
62550SOL    HW189547   3.078   9.524   9.770
62550SOL    HW289548   3.228   9.501   9.775
62551SOL     OW89549   7.785   4.062   6.568
62551SOL    HW189550   7.800   4.091   6.478
62551SOL    HW289551   7.750   4.140   6.612
62552SOL     OW89552  12.496   4.671  14.738
62552SOL    HW189553  12.571   4.722  14.709
62552SOL    HW289554  12.533   4.600  14.790
62553SOL     OW89555   1.921   9.104   9.279
62553SOL    HW189556   1.887   9.167   9.343
62553SOL    HW289557   1.896   9.019   9.313
62554SOL     OW89558  12.692  12.479   7.936
62554SOL    HW189559  12.615  12.503   7.987
62554SOL    HW289560  12.694  12.383   7.937
62555SOL     OW89561   8.869   0.600   7.220
62555SOL    HW189562   8.879   0.574   7.129
62555SOL    HW289563   8.951   0.643   7.242
62556SOL     OW89564   7.886   5.840  12.801
62556SOL    HW189565   7.902   5.757  12.844
62556SOL    HW289566   7.945   5.902  12.845
62557SOL     OW89567   0.416   5.624  14.588
62557SOL    HW189568   0.421   5.704  14.640
62557SOL    HW289569   0.500   5.581  14.601
62558SOL     OW89570  13.580   2.990   7.975
62558SOL    HW189571  13.662   3.014   8.019
62558SOL    HW289572  13.575   3.050   7.900
62559SOL     OW89573   6.669   8.953  13.919
62559SOL    HW189574   6.749   9.007  13.923
62559SOL    HW289575   6.645   8.954  13.826
62560SOL     OW89576   1.029   1.510   8.808
62560SOL    HW189577   1.082   1.498   8.729
62560SOL    HW289578   1.009   1.421   8.837
62561SOL     OW89579  11.089  11.094   8.096
62561SOL    HW189580  11.061  11.098   8.187
62561SOL    HW289581  11.040  11.021   8.059
62562SOL     OW89582   2.033  14.075   9.548
62562SOL    HW189583   2.122  14.108   9.564
62562SOL    HW289584   1.977  14.151   9.558
62563SOL     OW89585  12.654   0.941   4.527
62563SOL    HW189586  12.626   1.027   4.560
62563SOL    HW289587  12.668   0.954   4.434
62564SOL     OW89588   6.368  11.121   8.352
62564SOL    HW189589   6.380  11.203   8.399
62564SOL    HW289590   6.289  11.082   8.390
62565SOL     OW89591   9.309   5.504   5.455
62565SOL    HW189592   9.378   5.471   5.513
62565SOL    HW289593   9.241   5.535   5.515
62566SOL     OW89594  11.709   3.195   0.450
62566SOL    HW189595  11.754   3.197   0.366
62566SOL    HW289596  11.678   3.105   0.459
62567SOL     OW89597   7.777  14.012   6.265
62567SOL    HW189598   7.860  14.058   6.271
62567SOL    HW289599   7.798  13.922   6.291
62568SOL     OW89600   6.256   8.981   9.691
62568SOL    HW189601   6.271   8.919   9.762
62568SOL    HW289602   6.213   9.056   9.732
62569SOL     OW89603  14.784   7.377  12.454
62569SOL    HW189604  14.779   7.466  12.490
62569SOL    HW289605  14.773   7.319  12.529
62570SOL     OW89606  14.857   5.570   7.756
62570SOL    HW189607  14.789   5.581   7.690
62570SOL    HW289608   0.009   5.479   7.748
62571SOL     OW89609  14.399   8.758  14.598
62571SOL    HW189610  14.316   8.785  14.558
62571SOL    HW289611  14.439   8.700  14.533
62572SOL     OW89612  10.394   5.607   3.025
62572SOL    HW189613  10.352   5.606   2.939
62572SOL    HW289614  10.450   5.529   3.024
62573SOL     OW89615  14.421  11.323   5.509
62573SOL    HW189616  14.406  11.264   5.435
62573SOL    HW289617  14.443  11.265   5.582
62574SOL     OW89618  13.160   1.351   0.018
62574SOL    HW189619  13.163   1.261  14.860
62574SOL    HW289620  13.229   1.397  14.845
62575SOL     OW89621  11.123  13.095  14.759
62575SOL    HW189622  11.219  13.091  14.764
62575SOL    HW289623  11.102  13.057  14.674
62576SOL     OW89624   2.965   8.245  14.382
62576SOL    HW189625   2.871   8.231  14.385
62576SOL    HW289626   2.980   8.321  14.439
62577SOL     OW89627   7.395   8.686  12.830
62577SOL    HW189628   7.490   8.671  12.835
62577SOL    HW289629   7.356   8.613  12.877
62578SOL     OW89630   7.044  11.644  13.729
62578SOL    HW189631   6.992  11.571  13.763
62578SOL    HW289632   7.010  11.658  13.640
62579SOL     OW89633  14.434   0.713   5.100
62579SOL    HW189634  14.387   0.635   5.071
62579SOL    HW289635  14.469   0.689   5.186
62580SOL     OW89636   8.366   7.677   2.553
62580SOL    HW189637   8.379   7.737   2.480
62580SOL    HW289638   8.441   7.692   2.610
62581SOL     OW89639  13.398  12.971   2.706
62581SOL    HW189640  13.309  12.968   2.740
62581SOL    HW289641  13.453  12.985   2.782
62582SOL     OW89642   0.345  10.651   6.866
62582SOL    HW189643   0.303  10.565   6.874
62582SOL    HW289644   0.415  10.638   6.803
62583SOL     OW89645   6.468   1.375   4.838
62583SOL    HW189646   6.544   1.417   4.797
62583SOL    HW289647   6.478   1.282   4.816
62584SOL     OW89648   3.408  13.551   2.875
62584SOL    HW189649   3.344  13.620   2.891
62584SOL    HW289650   3.356  13.479   2.839
62585SOL     OW89651   1.282   5.768  10.866
62585SOL    HW189652   1.268   5.861  10.846
62585SOL    HW289653   1.329   5.768  10.950
62586SOL     OW89654  11.596   1.087   2.146
62586SOL    HW189655  11.659   1.064   2.215
62586SOL    HW289656  11.625   1.172   2.115
62587SOL     OW89657  12.121  14.329   9.692
62587SOL    HW189658  12.052  14.356   9.752
62587SOL    HW289659  12.078  14.274   9.627
62588SOL     OW89660  14.864   4.976  12.041
62588SOL    HW189661  14.816   4.942  12.117
62588SOL    HW289662   0.079   4.986  12.072
62589SOL     OW89663  10.241   7.079   0.219
62589SOL    HW189664  10.223   7.170   0.197
62589SOL    HW289665  10.244   7.078   0.315
62590SOL     OW89666  14.152   9.616  11.174
62590SOL    HW189667  14.123   9.602  11.084
62590SOL    HW289668  14.154   9.711  11.183
62591SOL     OW89669   9.609  12.578   0.994
62591SOL    HW189670   9.637  12.576   0.903
62591SOL    HW289671   9.599  12.486   1.018
62592SOL     OW89672  13.028   3.761  11.778
62592SOL    HW189673  13.110   3.808  11.792
62592SOL    HW289674  13.011   3.768  11.685
62593SOL     OW89675   6.246   4.232   0.722
62593SOL    HW189676   6.328   4.276   0.747
62593SOL    HW289677   6.184   4.303   0.706
62594SOL     OW89678   2.148  10.163   7.881
62594SOL    HW189679   2.170  10.091   7.941
62594SOL    HW289680   2.128  10.236   7.939
62595SOL     OW89681   9.725   9.766  10.236
62595SOL    HW189682   9.658   9.813  10.188
62595SOL    HW289683   9.690   9.677  10.246
62596SOL     OW89684  11.739   4.037   9.965
62596SOL    HW189685  11.697   4.046  10.050
62596SOL    HW289686  11.832   4.053   9.982
62597SOL     OW89687  12.561   3.580   1.413
62597SOL    HW189688  12.601   3.584   1.326
62597SOL    HW289689  12.467   3.567   1.397
62598SOL     OW89690   6.234  11.238  10.931
62598SOL    HW189691   6.266  11.263  11.018
62598SOL    HW289692   6.308  11.256  10.873
62599SOL     OW89693  14.596   3.312  10.288
62599SOL    HW189694  14.512   3.278  10.259
62599SOL    HW289695  14.620   3.255  10.362
62600SOL     OW89696   3.391   6.726   2.119
62600SOL    HW189697   3.464   6.786   2.103
62600SOL    HW289698   3.429   6.638   2.110
62601SOL     OW89699   5.290   3.997   5.704
62601SOL    HW189700   5.212   4.051   5.698
62601SOL    HW289701   5.277   3.928   5.638
62602SOL     OW89702   1.582   9.233   3.334
62602SOL    HW189703   1.600   9.281   3.253
62602SOL    HW289704   1.569   9.301   3.400
62603SOL     OW89705  12.199   1.602   2.566
62603SOL    HW189706  12.282   1.572   2.603
62603SOL    HW289707  12.132   1.551   2.612
62604SOL     OW89708   6.980  10.112   0.392
62604SOL    HW189709   7.023  10.195   0.369
62604SOL    HW289710   6.922  10.135   0.465
62605SOL     OW89711   2.343   3.969   4.110
62605SOL    HW189712   2.306   3.971   4.198
62605SOL    HW289713   2.284   3.912   4.060
62606SOL     OW89714   1.684   2.476   8.577
62606SOL    HW189715   1.776   2.458   8.556
62606SOL    HW289716   1.669   2.430   8.659
62607SOL     OW89717  10.591   9.419   3.617
62607SOL    HW189718  10.625   9.487   3.675
62607SOL    HW289719  10.632   9.437   3.532
62608SOL     OW89720   1.747   4.365   4.321
62608SOL    HW189721   1.751   4.331   4.410
62608SOL    HW289722   1.725   4.458   4.332
62609SOL     OW89723   8.417   6.868   2.526
62609SOL    HW189724   8.373   6.787   2.503
62609SOL    HW289725   8.482   6.842   2.592
62610SOL     OW89726  12.094   5.245   6.632
62610SOL    HW189727  12.089   5.242   6.728
62610SOL    HW289728  12.095   5.154   6.605
62611SOL     OW89729  11.833   7.239   0.914
62611SOL    HW189730  11.911   7.227   0.968
62611SOL    HW289731  11.762   7.252   0.977
62612SOL     OW89732   9.834   5.836   6.570
62612SOL    HW189733   9.875   5.913   6.532
62612SOL    HW289734   9.740   5.850   6.559
62613SOL     OW89735   4.827  12.633  12.272
62613SOL    HW189736   4.744  12.586  12.278
62613SOL    HW289737   4.832  12.660  12.180
62614SOL     OW89738  13.278  10.488   6.312
62614SOL    HW189739  13.262  10.436   6.391
62614SOL    HW289740  13.369  10.468   6.289
62615SOL     OW89741   8.237   0.851   7.665
62615SOL    HW189742   8.293   0.928   7.667
62615SOL    HW289743   8.248   0.815   7.578
62616SOL     OW89744   2.762  10.639  12.926
62616SOL    HW189745   2.687  10.581  12.911
62616SOL    HW289746   2.732  10.724  12.894
62617SOL     OW89747   9.231  12.513  14.181
62617SOL    HW189748   9.309  12.528  14.233
62617SOL    HW289749   9.169  12.472  14.241
62618SOL     OW89750   4.747  10.726   7.663
62618SOL    HW189751   4.748  10.683   7.749
62618SOL    HW289752   4.833  10.708   7.626
62619SOL     OW89753   6.294   4.450   8.462
62619SOL    HW189754   6.331   4.530   8.498
62619SOL    HW289755   6.301   4.386   8.533
62620SOL     OW89756   8.116   0.804  14.363
62620SOL    HW189757   8.122   0.729  14.303
62620SOL    HW289758   8.157   0.876  14.315
62621SOL     OW89759  10.423   5.069  12.456
62621SOL    HW189760  10.478   5.003  12.414
62621SOL    HW289761  10.484   5.134  12.491
62622SOL     OW89762   3.576  10.153   4.161
62622SOL    HW189763   3.579  10.246   4.183
62622SOL    HW289764   3.545  10.111   4.241
62623SOL     OW89765   4.631  11.859   4.078
62623SOL    HW189766   4.650  11.824   4.165
62623SOL    HW289767   4.543  11.826   4.058
62624SOL     OW89768  13.647   1.214  14.636
62624SOL    HW189769  13.624   1.277  14.568
62624SOL    HW289770  13.676   1.137  14.589
62625SOL     OW89771   1.275   1.246   0.701
62625SOL    HW189772   1.208   1.192   0.743
62625SOL    HW289773   1.236   1.272   0.617
62626SOL     OW89774   6.206   0.479   5.907
62626SOL    HW189775   6.233   0.537   5.979
62626SOL    HW289776   6.279   0.419   5.895
62627SOL     OW89777  11.802  10.991   7.862
62627SOL    HW189778  11.818  11.055   7.931
62627SOL    HW289779  11.847  10.912   7.893
62628SOL     OW89780   4.576   6.169  11.468
62628SOL    HW189781   4.586   6.137  11.378
62628SOL    HW289782   4.579   6.090  11.522
62629SOL     OW89783  14.495  14.147   7.181
62629SOL    HW189784  14.404  14.172   7.193
62629SOL    HW289785  14.494  14.051   7.181
62630SOL     OW89786  10.723  13.911   0.859
62630SOL    HW189787  10.720  13.856   0.937
62630SOL    HW289788  10.640  13.959   0.860
62631SOL     OW89789   4.537  11.458   4.616
62631SOL    HW189790   4.558  11.384   4.673
62631SOL    HW289791   4.609  11.519   4.628
62632SOL     OW89792   4.241  14.176   7.994
62632SOL    HW189793   4.217  14.257   8.040
62632SOL    HW289794   4.264  14.115   8.064
62633SOL     OW89795  14.732   8.904  13.462
62633SOL    HW189796  14.670   8.904  13.390
62633SOL    HW289797  14.776   8.989  13.457
62634SOL     OW89798   6.908   3.377  13.581
62634SOL    HW189799   6.913   3.349  13.672
62634SOL    HW289800   6.827   3.428  13.576
62635SOL     OW89801   4.767   5.122   3.109
62635SOL    HW189802   4.820   5.202   3.114
62635SOL    HW289803   4.704   5.130   3.180
62636SOL     OW89804  10.531   7.344  11.636
62636SOL    HW189805  10.579   7.407  11.690
62636SOL    HW289806  10.520   7.388  11.552
62637SOL     OW89807   6.335  13.064  12.701
62637SOL    HW189808   6.254  13.087  12.656
62637SOL    HW289809   6.381  13.006  12.641
62638SOL     OW89810  13.054  14.107  14.676
62638SOL    HW189811  13.132  14.149  14.639
62638SOL    HW289812  13.002  14.082  14.600
62639SOL     OW89813   5.906   0.090  13.415
62639SOL    HW189814   5.977   0.086  13.480
62639SOL    HW289815   5.862   0.173  13.434
62640SOL     OW89816  10.369   8.784   9.187
62640SOL    HW189817  10.376   8.874   9.154
62640SOL    HW289818  10.381   8.793   9.282
62641SOL     OW89819   8.803   9.789  12.914
62641SOL    HW189820   8.852   9.758  12.990
62641SOL    HW289821   8.852   9.865  12.884
62642SOL     OW89822  13.081   4.621   7.257
62642SOL    HW189823  13.138   4.585   7.189
62642SOL    HW289824  13.065   4.711   7.230
62643SOL     OW89825  11.270   1.946   1.368
62643SOL    HW189826  11.223   1.986   1.440
62643SOL    HW289827  11.313   2.019   1.323
62644SOL     OW89828   3.384   8.275   9.419
62644SOL    HW189829   3.320   8.344   9.440
62644SOL    HW289830   3.465   8.322   9.402
62645SOL     OW89831  13.735   1.302  10.315
62645SOL    HW189832  13.743   1.386  10.360
62645SOL    HW289833  13.709   1.326  10.226
62646SOL     OW89834  11.894   7.334   8.530
62646SOL    HW189835  11.912   7.424   8.503
62646SOL    HW289836  11.940   7.280   8.466
62647SOL     OW89837  11.691   2.683  12.128
62647SOL    HW189838  11.741   2.720  12.054
62647SOL    HW289839  11.750   2.618  12.165
62648SOL     OW89840  10.915  10.349   2.039
62648SOL    HW189841  10.980  10.282   2.018
62648SOL    HW289842  10.927  10.416   1.972
62649SOL     OW89843   9.660  10.063   4.513
62649SOL    HW189844   9.621  10.147   4.539
62649SOL    HW289845   9.720  10.041   4.584
62650SOL     OW89846   5.403   1.691  12.161
62650SOL    HW189847   5.409   1.698  12.257
62650SOL    HW289848   5.309   1.683  12.144
62651SOL     OW89849  11.080  11.691  11.810
62651SOL    HW189850  11.055  11.598  11.815
62651SOL    HW289851  10.996  11.738  11.803
62652SOL     OW89852   4.966  10.240  10.145
62652SOL    HW189853   5.001  10.158  10.110
62652SOL    HW289854   4.910  10.213  10.218
62653SOL     OW89855   3.650  11.396   1.452
62653SOL    HW189856   3.559  11.404   1.481
62653SOL    HW289857   3.688  11.483   1.467
62654SOL     OW89858  14.217   5.861   3.124
62654SOL    HW189859  14.289   5.922   3.107
62654SOL    HW289860  14.138   5.916   3.124
62655SOL     OW89861   3.859   2.907   6.201
62655SOL    HW189862   3.927   2.907   6.268
62655SOL    HW289863   3.885   2.838   6.140
62656SOL     OW89864   3.092  14.020   5.070
62656SOL    HW189865   3.055  14.092   5.020
62656SOL    HW289866   3.175  14.000   5.026
62657SOL     OW89867   4.562   2.965  12.258
62657SOL    HW189868   4.473   2.928  12.254
62657SOL    HW289869   4.619   2.889  12.272
62658SOL     OW89870   5.247  10.656   9.381
62658SOL    HW189871   5.230  10.729   9.321
62658SOL    HW289872   5.253  10.579   9.324
62659SOL     OW89873  12.700   7.670   0.914
62659SOL    HW189874  12.767   7.695   0.851
62659SOL    HW289875  12.624   7.723   0.890
62660SOL     OW89876   5.674   8.238  14.264
62660SOL    HW189877   5.660   8.320  14.313
62660SOL    HW289878   5.687   8.172  14.332
62661SOL     OW89879   4.064  11.936   5.373
62661SOL    HW189880   4.155  11.962   5.383
62661SOL    HW289881   4.054  11.860   5.431
62662SOL     OW89882   8.989   1.408   8.883
62662SOL    HW189883   9.079   1.380   8.863
62662SOL    HW289884   9.000   1.486   8.938
62663SOL     OW89885   8.614   2.658  14.843
62663SOL    HW189886   8.697   2.630  14.805
62663SOL    HW289887   8.627   2.648   0.063
62664SOL     OW89888   3.352  13.114   3.451
62664SOL    HW189889   3.315  13.069   3.526
62664SOL    HW289890   3.357  13.206   3.478
62665SOL     OW89891   4.769   6.619  10.459
62665SOL    HW189892   4.859   6.595  10.439
62665SOL    HW289893   4.771   6.649  10.550
62666SOL     OW89894   1.677  12.729   9.290
62666SOL    HW189895   1.708  12.719   9.200
62666SOL    HW289896   1.757  12.743   9.342
62667SOL     OW89897   7.998   9.664   4.870
62667SOL    HW189898   7.924   9.693   4.923
62667SOL    HW289899   8.048   9.606   4.929
62668SOL     OW89900   1.029   4.368   3.099
62668SOL    HW189901   1.033   4.272   3.103
62668SOL    HW289902   0.985   4.386   3.015
62669SOL     OW89903   5.086  11.374  13.978
62669SOL    HW189904   5.004  11.383  13.930
62669SOL    HW289905   5.104  11.280  13.977
62670SOL     OW89906  14.212   3.550   9.239
62670SOL    HW189907  14.234   3.473   9.186
62670SOL    HW289908  14.118   3.542   9.256
62671SOL     OW89909   9.839  11.783   8.511
62671SOL    HW189910   9.924  11.745   8.533
62671SOL    HW289911   9.781  11.754   8.581
62672SOL     OW89912  14.555   7.685   1.493
62672SOL    HW189913  14.612   7.608   1.497
62672SOL    HW289914  14.609   7.753   1.452
62673SOL     OW89915   6.098   8.078   1.331
62673SOL    HW189916   6.136   8.163   1.311
62673SOL    HW289917   6.018   8.098   1.380
62674SOL     OW89918   7.185  10.916   9.610
62674SOL    HW189919   7.240  10.846   9.644
62674SOL    HW289920   7.187  10.983   9.678
62675SOL     OW89921   2.163  14.560   0.833
62675SOL    HW189922   2.225  14.490   0.814
62675SOL    HW289923   2.215  14.627   0.878
62676SOL     OW89924   8.862  12.181   7.223
62676SOL    HW189925   8.840  12.248   7.159
62676SOL    HW289926   8.954  12.161   7.207
62677SOL     OW89927   1.436   5.788  10.599
62677SOL    HW189928   1.376   5.809  10.670
62677SOL    HW289929   1.419   5.854  10.532
62678SOL     OW89930   5.130   2.606   8.686
62678SOL    HW189931   5.074   2.541   8.644
62678SOL    HW289932   5.213   2.561   8.702
62679SOL     OW89933   5.100  12.354   5.082
62679SOL    HW189934   5.187  12.344   5.043
62679SOL    HW289935   5.116  12.352   5.177
62680SOL     OW89936   6.262   8.614   9.547
62680SOL    HW189937   6.356   8.612   9.565
62680SOL    HW289938   6.248   8.543   9.484
62681SOL     OW89939   2.487   6.626   8.280
62681SOL    HW189940   2.499   6.579   8.363
62681SOL    HW289941   2.419   6.691   8.300
62682SOL     OW89942  13.944   3.724  10.494
62682SOL    HW189943  13.874   3.682  10.442
62682SOL    HW289944  14.025   3.686  10.460
62683SOL     OW89945   6.284   4.920   3.835
62683SOL    HW189946   6.235   4.959   3.763
62683SOL    HW289947   6.371   4.959   3.828
62684SOL     OW89948   8.395   8.934  10.982
62684SOL    HW189949   8.477   8.897  10.950
62684SOL    HW289950   8.339   8.858  10.999
62685SOL     OW89951   7.607   5.148   6.568
62685SOL    HW189952   7.643   5.215   6.626
62685SOL    HW289953   7.674   5.080   6.564
62686SOL     OW89954   6.926  14.586   8.507
62686SOL    HW189955   7.016  14.619   8.509
62686SOL    HW289956   6.874  14.656   8.546
62687SOL     OW89957   5.566  11.889   0.262
62687SOL    HW189958   5.611  11.889   0.347
62687SOL    HW289959   5.557  11.796   0.240
62688SOL     OW89960  13.929   2.603   0.317
62688SOL    HW189961  13.925   2.690   0.277
62688SOL    HW289962  13.866   2.607   0.389
62689SOL     OW89963   7.033   4.006  12.180
62689SOL    HW189964   6.954   4.040  12.137
62689SOL    HW289965   7.034   3.913  12.159
62690SOL     OW89966  13.130  12.907   3.881
62690SOL    HW189967  13.151  12.987   3.928
62690SOL    HW289968  13.214  12.861   3.873
62691SOL     OW89969   6.017   1.399   2.331
62691SOL    HW189970   5.980   1.438   2.252
62691SOL    HW289971   6.055   1.472   2.379
62692SOL     OW89972   6.306  12.322  12.746
62692SOL    HW189973   6.396  12.340  12.770
62692SOL    HW289974   6.288  12.382  12.674
62693SOL     OW89975  11.541   2.742   4.375
62693SOL    HW189976  11.452   2.708   4.379
62693SOL    HW289977  11.570   2.745   4.466
62694SOL     OW89978  13.427  10.325  10.391
62694SOL    HW189979  13.426  10.311  10.486
62694SOL    HW289980  13.498  10.387  10.377
62695SOL     OW89981   9.002   8.388   8.835
62695SOL    HW189982   9.078   8.332   8.822
62695SOL    HW289983   8.991   8.393   8.930
62696SOL     OW89984   9.250   8.777   3.842
62696SOL    HW189985   9.197   8.764   3.920
62696SOL    HW289986   9.221   8.861   3.807
62697SOL     OW89987  11.440   2.513  12.860
62697SOL    HW189988  11.388   2.527  12.781
62697SOL    HW289989  11.447   2.600  12.900
62698SOL     OW89990   6.280   1.034   5.048
62698SOL    HW189991   6.212   1.071   5.105
62698SOL    HW289992   6.323   0.968   5.102
62699SOL     OW89993   7.275   6.119  13.460
62699SOL    HW189994   7.264   6.108  13.554
62699SOL    HW289995   7.342   6.055  13.436
62700SOL     OW89996   5.333   4.204   3.374
62700SOL    HW189997   5.240   4.180   3.374
62700SOL    HW289998   5.375   4.139   3.317
62701SOL     OW89999  13.750   0.098   0.810
62701SOL    HW190000  13.772   0.014   0.850
62701SOL    HW290001  13.655   0.096   0.801
62702SOL     OW90002  11.503   8.071   8.422
62702SOL    HW190003  11.529   8.025   8.342
62702SOL    HW290004  11.586   8.092   8.465
62703SOL     OW90005  12.914  12.261   0.558
62703SOL    HW190006  12.927  12.350   0.592
62703SOL    HW290007  12.862  12.274   0.478
62704SOL     OW90008   8.626   1.520   8.603
62704SOL    HW190009   8.531   1.504   8.606
62704SOL    HW290010   8.658   1.481   8.685
62705SOL     OW90011   0.583   1.651  14.198
62705SOL    HW190012   0.508   1.692  14.242
62705SOL    HW290013   0.636   1.616  14.270
62706SOL     OW90014  11.072   8.846   8.819
62706SOL    HW190015  11.094   8.753   8.810
62706SOL    HW290016  11.120   8.875   8.896
62707SOL     OW90017   8.235   7.880  12.336
62707SOL    HW190018   8.285   7.804  12.305
62707SOL    HW290019   8.170   7.896  12.268
62708SOL     OW90020   8.841   9.337   4.855
62708SOL    HW190021   8.894   9.330   4.775
62708SOL    HW290022   8.811   9.248   4.871
62709SOL     OW90023   2.020   8.900   1.418
62709SOL    HW190024   2.025   8.848   1.338
62709SOL    HW290025   1.930   8.933   1.420
62710SOL     OW90026   7.777  14.429   6.315
62710SOL    HW190027   7.846  14.408   6.251
62710SOL    HW290028   7.713  14.359   6.306
62711SOL     OW90029   6.131   2.273   2.507
62711SOL    HW190030   6.194   2.330   2.552
62711SOL    HW290031   6.070   2.334   2.465
62712SOL     OW90032   3.064  11.345  11.797
62712SOL    HW190033   3.035  11.416  11.854
62712SOL    HW290034   3.005  11.350  11.722
62713SOL     OW90035   2.291  13.389   4.845
62713SOL    HW190036   2.299  13.481   4.868
62713SOL    HW290037   2.311  13.385   4.752
62714SOL     OW90038  13.999  13.250  13.904
62714SOL    HW190039  13.967  13.322  13.849
62714SOL    HW290040  13.993  13.283  13.993
62715SOL     OW90041   3.455  11.638   8.886
62715SOL    HW190042   3.413  11.649   8.801
62715SOL    HW290043   3.530  11.582   8.868
62716SOL     OW90044  12.200   3.458  11.859
62716SOL    HW190045  12.289   3.445  11.891
62716SOL    HW290046  12.147   3.396  11.910
62717SOL     OW90047  13.471  12.717  12.579
62717SOL    HW190048  13.418  12.776  12.526
62717SOL    HW290049  13.408  12.664  12.628
62718SOL     OW90050  13.413   5.982  13.183
62718SOL    HW190051  13.449   5.954  13.099
62718SOL    HW290052  13.326   6.016  13.163
62719SOL     OW90053  11.041  12.636   8.729
62719SOL    HW190054  11.129  12.619   8.696
62719SOL    HW290055  11.017  12.720   8.690
62720SOL     OW90056  11.688  10.682   9.497
62720SOL    HW190057  11.677  10.767   9.454
62720SOL    HW290058  11.673  10.618   9.427
62721SOL     OW90059   9.597   8.512   2.739
62721SOL    HW190060   9.523   8.468   2.698
62721SOL    HW290061   9.569   8.527   2.829
62722SOL     OW90062   0.162   0.688   0.256
62722SOL    HW190063   0.097   0.743   0.212
62722SOL    HW290064   0.119   0.662   0.338
62723SOL     OW90065   0.121   4.831   8.948
62723SOL    HW190066   0.138   4.899   8.883
62723SOL    HW290067   0.141   4.749   8.903
62724SOL     OW90068  14.234   7.043   0.489
62724SOL    HW190069  14.323   7.041   0.525
62724SOL    HW290070  14.184   7.097   0.551
62725SOL     OW90071   7.664  12.680  11.715
62725SOL    HW190072   7.657  12.768  11.751
62725SOL    HW290073   7.758  12.665  11.707
62726SOL     OW90074   4.435  12.579   8.870
62726SOL    HW190075   4.423  12.605   8.961
62726SOL    HW290076   4.399  12.651   8.820
62727SOL     OW90077  11.731   2.842   9.419
62727SOL    HW190078  11.674   2.862   9.493
62727SOL    HW290079  11.795   2.780   9.453
62728SOL     OW90080  10.095  14.358   8.532
62728SOL    HW190081  10.042  14.398   8.464
62728SOL    HW290082  10.071  14.404   8.613
62729SOL     OW90083  12.627   5.065   0.297
62729SOL    HW190084  12.580   4.982   0.281
62729SOL    HW290085  12.647   5.097   0.209
62730SOL     OW90086  10.552  14.455   2.010
62730SOL    HW190087  10.638  14.478   1.975
62730SOL    HW290088  10.529  14.528   2.068
62731SOL     OW90089   5.766   0.885   6.761
62731SOL    HW190090   5.719   0.862   6.841
62731SOL    HW290091   5.701   0.880   6.692
62732SOL     OW90092   4.890   6.587   8.073
62732SOL    HW190093   4.834   6.543   8.137
62732SOL    HW290094   4.979   6.576   8.109
62733SOL     OW90095  13.435   3.876   6.510
62733SOL    HW190096  13.356   3.849   6.463
62733SOL    HW290097  13.404   3.900   6.598
62734SOL     OW90098   1.643   3.622   1.985
62734SOL    HW190099   1.582   3.646   1.916
62734SOL    HW290100   1.706   3.694   1.988
62735SOL     OW90101  13.915   8.711   6.931
62735SOL    HW190102  13.920   8.617   6.951
62735SOL    HW290103  13.859   8.716   6.853
62736SOL     OW90104   2.229  10.969  13.622
62736SOL    HW190105   2.166  11.041  13.618
62736SOL    HW290106   2.299  11.000  13.679
62737SOL     OW90107  11.744   9.536   2.669
62737SOL    HW190108  11.758   9.608   2.731
62737SOL    HW290109  11.798   9.465   2.702
62738SOL     OW90110   7.404  13.246  10.612
62738SOL    HW190111   7.388  13.284  10.699
62738SOL    HW290112   7.397  13.320  10.552
62739SOL     OW90113   2.221   3.307   1.384
62739SOL    HW190114   2.284   3.306   1.456
62739SOL    HW290115   2.136   3.319   1.427
62740SOL     OW90116   7.650  11.422   0.110
62740SOL    HW190117   7.576  11.391   0.163
62740SOL    HW290118   7.618  11.501   0.067
62741SOL     OW90119   8.233  11.539   0.176
62741SOL    HW190120   8.176  11.609   0.209
62741SOL    HW290121   8.268  11.574   0.094
62742SOL     OW90122   7.396  14.750  14.658
62742SOL    HW190123   7.374  14.770  14.568
62742SOL    HW290124   7.332  14.684  14.684
62743SOL     OW90125  14.305  12.275   2.429
62743SOL    HW190126  14.304  12.366   2.399
62743SOL    HW290127  14.371  12.273   2.499
62744SOL     OW90128   7.943   2.508   1.816
62744SOL    HW190129   7.937   2.444   1.887
62744SOL    HW290130   7.868   2.566   1.829
62745SOL     OW90131   3.478  10.118  14.272
62745SOL    HW190132   3.531  10.176  14.217
62745SOL    HW290133   3.499  10.144  14.361
62746SOL     OW90134  14.181  13.405   0.486
62746SOL    HW190135  14.181  13.465   0.560
62746SOL    HW290136  14.091  13.372   0.483
62747SOL     OW90137   6.598  10.235  10.237
62747SOL    HW190138   6.547  10.184  10.298
62747SOL    HW290139   6.676  10.261  10.286
62748SOL     OW90140   3.478   0.079   7.828
62748SOL    HW190141   3.551   0.063   7.888
62748SOL    HW290142   3.494   0.167   7.793
62749SOL     OW90143   3.920   1.684   5.095
62749SOL    HW190144   3.825   1.692   5.094
62749SOL    HW290145   3.951   1.752   5.035
62750SOL     OW90146   1.542   3.536   4.713
62750SOL    HW190147   1.551   3.476   4.787
62750SOL    HW290148   1.454   3.517   4.678
62751SOL     OW90149   4.221  10.110  10.850
62751SOL    HW190150   4.306  10.094  10.809
62751SOL    HW290151   4.189  10.190  10.807
62752SOL     OW90152  13.003   2.881   9.981
62752SOL    HW190153  12.910   2.902   9.969
62752SOL    HW290154  13.009   2.854  10.073
62753SOL     OW90155   0.631   8.406   4.136
62753SOL    HW190156   0.717   8.370   4.155
62753SOL    HW290157   0.569   8.341   4.168
62754SOL     OW90158  13.729   4.651   9.264
62754SOL    HW190159  13.821   4.676   9.281
62754SOL    HW290160  13.697   4.719   9.205
62755SOL     OW90161  13.639   7.649  11.589
62755SOL    HW190162  13.546   7.650  11.613
62755SOL    HW290163  13.654   7.559  11.558
62756SOL     OW90164   7.091   4.490   7.730
62756SOL    HW190165   7.095   4.479   7.825
62756SOL    HW290166   7.017   4.437   7.702
62757SOL     OW90167   1.519   5.115  14.488
62757SOL    HW190168   1.435   5.113  14.533
62757SOL    HW290169   1.562   5.034  14.513
62758SOL     OW90170  10.988  11.091   4.765
62758SOL    HW190171  11.060  11.048   4.811
62758SOL    HW290172  10.998  11.184   4.785
62759SOL     OW90173   4.610   8.755  11.220
62759SOL    HW190174   4.535   8.806  11.248
62759SOL    HW290175   4.596   8.668  11.256
62760SOL     OW90176   6.194  11.755   0.046
62760SOL    HW190177   6.250  11.745  14.844
62760SOL    HW290178   6.247  11.807   0.107
62761SOL     OW90179   3.519   4.464   6.363
62761SOL    HW190180   3.566   4.514   6.430
62761SOL    HW290181   3.428   4.462   6.394
62762SOL     OW90182  13.896   5.624  12.874
62762SOL    HW190183  13.960   5.694  12.887
62762SOL    HW290184  13.939   5.546  12.909
62763SOL     OW90185   5.412  13.691   2.883
62763SOL    HW190186   5.469  13.630   2.838
62763SOL    HW290187   5.386  13.645   2.963
62764SOL     OW90188   0.915  14.003  12.896
62764SOL    HW190189   0.889  14.059  12.970
62764SOL    HW290190   0.932  13.918  12.935
62765SOL     OW90191   2.347   6.957  13.383
62765SOL    HW190192   2.397   7.000  13.313
62765SOL    HW290193   2.380   6.997  13.464
62766SOL     OW90194   3.622   8.426   1.107
62766SOL    HW190195   3.564   8.391   1.040
62766SOL    HW290196   3.680   8.486   1.060
62767SOL     OW90197  10.832   8.467  13.441
62767SOL    HW190198  10.754   8.523  13.435
62767SOL    HW290199  10.846   8.435  13.352
62768SOL     OW90200   0.015   1.498   3.798
62768SOL    HW190201   0.037   1.583   3.760
62768SOL    HW290202  14.869   1.518   3.889
62769SOL     OW90203   6.094   7.924  11.665
62769SOL    HW190204   6.049   7.940  11.582
62769SOL    HW290205   6.178   7.887  11.639
62770SOL     OW90206  13.290   9.850   9.595
62770SOL    HW190207  13.220   9.865   9.531
62770SOL    HW290208  13.371   9.856   9.544
62771SOL     OW90209   2.449   1.472  10.984
62771SOL    HW190210   2.353   1.478  10.977
62771SOL    HW290211   2.479   1.470  10.893
62772SOL     OW90212   4.568   1.991   4.229
62772SOL    HW190213   4.607   2.079   4.230
62772SOL    HW290214   4.477   2.005   4.201
62773SOL     OW90215   7.946   5.126   2.479
62773SOL    HW190216   8.008   5.129   2.551
62773SOL    HW290217   7.998   5.097   2.404
62774SOL     OW90218   8.979  10.714   8.211
62774SOL    HW190219   8.959  10.639   8.266
62774SOL    HW290220   8.900  10.768   8.212
62775SOL     OW90221   1.332  13.907  10.561
62775SOL    HW190222   1.418  13.919  10.522
62775SOL    HW290223   1.306  13.818  10.535
62776SOL     OW90224   8.268   3.618   7.522
62776SOL    HW190225   8.185   3.664   7.534
62776SOL    HW290226   8.333   3.688   7.511
62777SOL     OW90227   3.208   8.377   7.320
62777SOL    HW190228   3.294   8.419   7.312
62777SOL    HW290229   3.228   8.285   7.335
62778SOL     OW90230  10.301   3.263   7.653
62778SOL    HW190231  10.386   3.300   7.627
62778SOL    HW290232  10.239   3.301   7.592
62779SOL     OW90233   9.905   3.321  10.180
62779SOL    HW190234   9.881   3.317  10.273
62779SOL    HW290235   9.853   3.251  10.140
62780SOL     OW90236   7.107   7.156  10.423
62780SOL    HW190237   7.122   7.248  10.404
62780SOL    HW290238   7.189   7.113  10.402
62781SOL     OW90239   9.199   2.325  11.348
62781SOL    HW190240   9.165   2.278  11.424
62781SOL    HW290241   9.232   2.256  11.290
62782SOL     OW90242   8.378  13.601  10.412
62782SOL    HW190243   8.356  13.564  10.326
62782SOL    HW290244   8.442  13.669  10.392
62783SOL     OW90245   8.684  14.708  11.956
62783SOL    HW190246   8.715  14.783  12.007
62783SOL    HW290247   8.734  14.634  11.990
62784SOL     OW90248   9.012   7.580   4.463
62784SOL    HW190249   9.082   7.637   4.431
62784SOL    HW290250   8.942   7.640   4.488
62785SOL     OW90251  12.432   6.139   8.753
62785SOL    HW190252  12.399   6.050   8.741
62785SOL    HW290253  12.500   6.131   8.819
62786SOL     OW90254  11.564   0.097   5.572
62786SOL    HW190255  11.620   0.020   5.567
62786SOL    HW290256  11.553   0.113   5.666
62787SOL     OW90257  14.204   0.257   4.677
62787SOL    HW190258  14.199   0.351   4.696
62787SOL    HW290259  14.158   0.216   4.750
62788SOL     OW90260  12.784   4.265   9.723
62788SOL    HW190261  12.740   4.235   9.803
62788SOL    HW290262  12.729   4.337   9.691
62789SOL     OW90263   7.489   7.510   2.599
62789SOL    HW190264   7.526   7.436   2.551
62789SOL    HW290265   7.480   7.479   2.689
62790SOL     OW90266  13.073  12.746   9.540
62790SOL    HW190267  13.076  12.797   9.458
62790SOL    HW290268  13.152  12.771   9.587
62791SOL     OW90269   4.117   0.330   3.071
62791SOL    HW190270   4.097   0.320   3.164
62791SOL    HW290271   4.098   0.423   3.052
62792SOL     OW90272   1.858   9.904   3.921
62792SOL    HW190273   1.828   9.857   3.999
62792SOL    HW290274   1.844   9.996   3.941
62793SOL     OW90275   7.398  13.372  11.274
62793SOL    HW190276   7.469  13.345  11.332
62793SOL    HW290277   7.422  13.460  11.247
62794SOL     OW90278  13.797  12.469   0.250
62794SOL    HW190279  13.714  12.441   0.290
62794SOL    HW290280  13.856  12.395   0.262
62795SOL     OW90281   8.214   3.977   4.465
62795SOL    HW190282   8.208   3.882   4.460
62795SOL    HW290283   8.292   3.993   4.518
62796SOL     OW90284   6.460   4.389   2.264
62796SOL    HW190285   6.369   4.388   2.291
62796SOL    HW290286   6.503   4.450   2.324
62797SOL     OW90287   4.835   4.048  13.858
62797SOL    HW190288   4.832   4.126  13.804
62797SOL    HW290289   4.749   4.045  13.901
62798SOL     OW90290  13.110  11.242   9.919
62798SOL    HW190291  13.035  11.264   9.974
62798SOL    HW290292  13.137  11.325   9.880
62799SOL     OW90293   1.408   1.230  11.076
62799SOL    HW190294   1.346   1.202  11.009
62799SOL    HW290295   1.479   1.166  11.072
62800SOL     OW90296  12.597   3.800   3.491
62800SOL    HW190297  12.518   3.768   3.447
62800SOL    HW290298  12.563   3.850   3.566
62801SOL     OW90299   1.618  12.258   3.084
62801SOL    HW190300   1.664  12.290   3.161
62801SOL    HW290301   1.654  12.310   3.011
62802SOL     OW90302   7.922   8.593   6.060
62802SOL    HW190303   7.889   8.509   6.092
62802SOL    HW290304   7.865   8.615   5.987
62803SOL     OW90305  13.730  13.688   8.562
62803SOL    HW190306  13.791  13.759   8.541
62803SOL    HW290307  13.750  13.620   8.497
62804SOL     OW90308   4.960  13.835   9.315
62804SOL    HW190309   4.973  13.870   9.402
62804SOL    HW290310   4.979  13.908   9.256
62805SOL     OW90311  11.109   5.469   2.503
62805SOL    HW190312  11.097   5.559   2.472
62805SOL    HW290313  11.020   5.433   2.506
62806SOL     OW90314  13.007  11.458  13.609
62806SOL    HW190315  12.983  11.540  13.566
62806SOL    HW290316  13.016  11.481  13.701
62807SOL     OW90317   3.638   8.105   4.271
62807SOL    HW190318   3.690   8.027   4.290
62807SOL    HW290319   3.644   8.116   4.176
62808SOL     OW90320  13.662   5.533   5.243
62808SOL    HW190321  13.602   5.461   5.222
62808SOL    HW290322  13.658   5.541   5.338
62809SOL     OW90323   7.136   6.128  14.477
62809SOL    HW190324   7.178   6.164  14.555
62809SOL    HW290325   7.056   6.088  14.510
62810SOL     OW90326   9.132  11.147  11.208
62810SOL    HW190327   9.138  11.093  11.130
62810SOL    HW290328   9.122  11.236  11.174
62811SOL     OW90329   8.963  14.066  12.987
62811SOL    HW190330   8.976  14.004  13.059
62811SOL    HW290331   8.881  14.038  12.947
62812SOL     OW90332   7.850   4.266   6.870
62812SOL    HW190333   7.945   4.278   6.876
62812SOL    HW290334   7.828   4.293   6.781
62813SOL     OW90335   2.848   7.035  13.058
62813SOL    HW190336   2.820   6.946  13.079
62813SOL    HW290337   2.769   7.079  13.026
62814SOL     OW90338  14.295   5.421  13.754
62814SOL    HW190339  14.246   5.387  13.679
62814SOL    HW290340  14.228   5.450  13.816
62815SOL     OW90341   2.544   9.028   2.713
62815SOL    HW190342   2.551   9.003   2.805
62815SOL    HW290343   2.467   9.085   2.709
62816SOL     OW90344  12.560   9.728  12.503
62816SOL    HW190345  12.550   9.770  12.418
62816SOL    HW290346  12.514   9.786  12.564
62817SOL     OW90347   6.483  10.974  13.036
62817SOL    HW190348   6.457  10.931  13.117
62817SOL    HW290349   6.498  11.065  13.061
62818SOL     OW90350  11.345  12.635   3.945
62818SOL    HW190351  11.270  12.651   4.002
62818SOL    HW290352  11.314  12.572   3.881
62819SOL     OW90353   7.586   5.958  14.875
62819SOL    HW190354   7.672   5.969  14.834
62819SOL    HW290355   7.543   5.890  14.823
62820SOL     OW90356   7.237   9.168  14.252
62820SOL    HW190357   7.199   9.239  14.200
62820SOL    HW290358   7.280   9.111  14.188
62821SOL     OW90359   6.110   6.098   9.341
62821SOL    HW190360   6.049   6.082   9.269
62821SOL    HW290361   6.109   6.194   9.353
62822SOL     OW90362  12.576   2.441  12.736
62822SOL    HW190363  12.489   2.478  12.722
62822SOL    HW290364  12.584   2.371  12.671
62823SOL     OW90365   6.483   5.787   2.856
62823SOL    HW190366   6.408   5.798   2.915
62823SOL    HW290367   6.445   5.750   2.776
62824SOL     OW90368   0.716   2.042   3.234
62824SOL    HW190369   0.809   2.047   3.257
62824SOL    HW290370   0.705   2.104   3.162
62825SOL     OW90371  14.074   9.705   7.242
62825SOL    HW190372  13.999   9.736   7.191
62825SOL    HW290373  14.140   9.682   7.177
62826SOL     OW90374  13.630   3.110   7.670
62826SOL    HW190375  13.659   3.019   7.671
62826SOL    HW290376  13.666   3.145   7.588
62827SOL     OW90377  10.193   4.814   4.035
62827SOL    HW190378  10.207   4.793   3.943
62827SOL    HW290379  10.184   4.728   4.078
62828SOL     OW90380   0.467   0.961   1.079
62828SOL    HW190381   0.509   0.966   1.165
62828SOL    HW290382   0.379   0.996   1.094
62829SOL     OW90383   5.794   3.739   1.819
62829SOL    HW190384   5.878   3.776   1.845
62829SOL    HW290385   5.748   3.812   1.776
62830SOL     OW90386  10.471   4.434  11.855
62830SOL    HW190387  10.415   4.358  11.837
62830SOL    HW290388  10.422   4.485  11.919
62831SOL     OW90389   2.926   9.237   2.034
62831SOL    HW190390   2.980   9.160   2.053
62831SOL    HW290391   2.839   9.214   2.069
62832SOL     OW90392   1.731  10.234  11.728
62832SOL    HW190393   1.678  10.313  11.716
62832SOL    HW290394   1.701  10.174  11.659
62833SOL     OW90395  10.857   3.268   0.697
62833SOL    HW190396  10.910   3.346   0.707
62833SOL    HW290397  10.897   3.203   0.755
62834SOL     OW90398   0.496   0.807   4.044
62834SOL    HW190399   0.531   0.892   4.070
62834SOL    HW290400   0.532   0.746   4.108
62835SOL     OW90401   3.368  13.521   9.736
62835SOL    HW190402   3.449  13.479   9.707
62835SOL    HW290403   3.390  13.561   9.820
62836SOL     OW90404   6.823   9.195   3.926
62836SOL    HW190405   6.908   9.207   3.885
62836SOL    HW290406   6.794   9.284   3.948
62837SOL     OW90407  14.786   6.382   3.654
62837SOL    HW190408  14.871   6.353   3.621
62837SOL    HW290409  14.734   6.398   3.575
62838SOL     OW90410   9.369  13.487   8.273
62838SOL    HW190411   9.291  13.475   8.219
62838SOL    HW290412   9.341  13.545   8.344
62839SOL     OW90413   0.594  12.759   8.392
62839SOL    HW190414   0.600  12.681   8.447
62839SOL    HW290415   0.585  12.832   8.454
62840SOL     OW90416  14.754  14.070   9.577
62840SOL    HW190417  14.827  14.126   9.550
62840SOL    HW290418  14.770  13.987   9.533
62841SOL     OW90419   2.848  13.381   4.380
62841SOL    HW190420   2.825  13.439   4.453
62841SOL    HW290421   2.769  13.379   4.326
62842SOL     OW90422   1.227   7.978  10.924
62842SOL    HW190423   1.305   8.033  10.915
62842SOL    HW290424   1.262   7.893  10.952
62843SOL     OW90425   6.721  10.562   2.752
62843SOL    HW190426   6.667  10.487   2.778
62843SOL    HW290427   6.745  10.544   2.661
62844SOL     OW90428   9.736  13.588   4.758
62844SOL    HW190429   9.790  13.591   4.678
62844SOL    HW290430   9.718  13.679   4.779
62845SOL     OW90431   3.645  14.375   4.172
62845SOL    HW190432   3.607  14.433   4.105
62845SOL    HW290433   3.738  14.395   4.170
62846SOL     OW90434  12.947   5.646   8.868
62846SOL    HW190435  12.921   5.670   8.957
62846SOL    HW290436  12.928   5.553   8.862
62847SOL     OW90437  12.380   2.366   1.320
62847SOL    HW190438  12.395   2.393   1.230
62847SOL    HW290439  12.448   2.301   1.338
62848SOL     OW90440   3.211   8.208   3.619
62848SOL    HW190441   3.288   8.183   3.568
62848SOL    HW290442   3.181   8.126   3.659
62849SOL     OW90443  14.569   4.444   8.238
62849SOL    HW190444  14.575   4.373   8.303
62849SOL    HW290445  14.477   4.448   8.215
62850SOL     OW90446   0.105  10.809  10.375
62850SOL    HW190447   0.073  10.869  10.442
62850SOL    HW290448   0.189  10.845  10.348
62851SOL     OW90449   7.273   7.572   3.832
62851SOL    HW190450   7.269   7.526   3.749
62851SOL    HW290451   7.221   7.519   3.892
62852SOL     OW90452  14.272   3.836   2.725
62852SOL    HW190453  14.273   3.926   2.758
62852SOL    HW290454  14.290   3.783   2.802
62853SOL     OW90455  10.774  11.556  13.856
62853SOL    HW190456  10.693  11.527  13.898
62853SOL    HW290457  10.794  11.639  13.899
62854SOL     OW90458  11.995  11.920  11.545
62854SOL    HW190459  11.924  11.856  11.553
62854SOL    HW290460  11.990  11.971  11.625
62855SOL     OW90461   8.608  11.731   4.519
62855SOL    HW190462   8.618  11.692   4.606
62855SOL    HW290463   8.518  11.764   4.519
62856SOL     OW90464   8.530   6.807   5.342
62856SOL    HW190465   8.601   6.813   5.406
62856SOL    HW290466   8.522   6.713   5.325
62857SOL     OW90467   2.169   9.169  10.306
62857SOL    HW190468   2.262   9.172  10.331
62857SOL    HW290469   2.133   9.252  10.336
62858SOL     OW90470   3.302  12.506   8.587
62858SOL    HW190471   3.368  12.485   8.522
62858SOL    HW290472   3.220  12.511   8.537
62859SOL     OW90473  10.610   8.402  13.810
62859SOL    HW190474  10.632   8.488  13.775
62859SOL    HW290475  10.649   8.340  13.748
62860SOL     OW90476  11.449  10.272   9.143
62860SOL    HW190477  11.372  10.216   9.146
62860SOL    HW290478  11.444  10.325   9.223
62861SOL     OW90479  14.053  13.167   2.686
62861SOL    HW190480  14.052  13.176   2.781
62861SOL    HW290481  13.967  13.197   2.658
62862SOL     OW90482   3.837  11.842   0.946
62862SOL    HW190483   3.882  11.809   1.024
62862SOL    HW290484   3.764  11.781   0.933
62863SOL     OW90485  12.349   9.251  14.790
62863SOL    HW190486  12.321   9.160  14.778
62863SOL    HW290487  12.392   9.251   0.001
62864SOL     OW90488   9.640  12.970  11.292
62864SOL    HW190489   9.697  12.930  11.358
62864SOL    HW290490   9.627  12.901  11.227
62865SOL     OW90491   9.825   6.974  13.048
62865SOL    HW190492   9.820   6.882  13.025
62865SOL    HW290493   9.897   6.980  13.111
62866SOL     OW90494   4.375   4.454  12.227
62866SOL    HW190495   4.317   4.516  12.271
62866SOL    HW290496   4.463   4.480  12.254
62867SOL     OW90497  10.743   1.278   8.311
62867SOL    HW190498  10.648   1.264   8.305
62867SOL    HW290499  10.781   1.192   8.291
62868SOL     OW90500  14.397   2.880   6.367
62868SOL    HW190501  14.487   2.880   6.334
62868SOL    HW290502  14.344   2.906   6.293
62869SOL     OW90503  13.769   7.357   2.294
62869SOL    HW190504  13.855   7.393   2.313
62869SOL    HW290505  13.781   7.306   2.214
62870SOL     OW90506   2.148   8.502   2.219
62870SOL    HW190507   2.239   8.529   2.229
62870SOL    HW290508   2.146   8.411   2.250
62871SOL     OW90509   9.063  10.976   0.202
62871SOL    HW190510   8.986  10.921   0.189
62871SOL    HW290511   9.136  10.914   0.205
62872SOL     OW90512   6.836   6.853   8.386
62872SOL    HW190513   6.792   6.778   8.427
62872SOL    HW290514   6.793   6.862   8.301
62873SOL     OW90515   5.704   8.682  12.729
62873SOL    HW190516   5.662   8.767  12.716
62873SOL    HW290517   5.702   8.668  12.823
62874SOL     OW90518   7.898  13.031  12.368
62874SOL    HW190519   7.974  13.047  12.424
62874SOL    HW290520   7.906  13.094  12.296
62875SOL     OW90521  12.794   5.345   6.999
62875SOL    HW190522  12.736   5.313   6.929
62875SOL    HW290523  12.859   5.276   7.009
62876SOL     OW90524   5.972   5.131   6.028
62876SOL    HW190525   6.033   5.132   5.954
62876SOL    HW290526   5.886   5.120   5.988
62877SOL     OW90527  11.265   6.573  10.070
62877SOL    HW190528  11.348   6.532  10.047
62877SOL    HW290529  11.243   6.536  10.156
62878SOL     OW90530   0.926  12.773   2.393
62878SOL    HW190531   0.932  12.692   2.343
62878SOL    HW290532   0.915  12.745   2.484
62879SOL     OW90533   7.614  14.703  11.936
62879SOL    HW190534   7.625  14.610  11.918
62879SOL    HW290535   7.568  14.737  11.859
62880SOL     OW90536   4.256   1.370   2.953
62880SOL    HW190537   4.292   1.365   2.864
62880SOL    HW290538   4.222   1.282   2.970
62881SOL     OW90539  13.688  13.216   2.204
62881SOL    HW190540  13.756  13.171   2.253
62881SOL    HW290541  13.620  13.150   2.191
62882SOL     OW90542   6.587  10.216  12.630
62882SOL    HW190543   6.626  10.234  12.715
62882SOL    HW290544   6.517  10.153  12.649
62883SOL     OW90545  12.675   3.225   4.228
62883SOL    HW190546  12.748   3.177   4.267
62883SOL    HW290547  12.633   3.268   4.302
62884SOL     OW90548  11.938  14.517   9.908
62884SOL    HW190549  11.898  14.603   9.905
62884SOL    HW290550  12.026  14.532   9.943
62885SOL     OW90551  10.312  13.562  14.634
62885SOL    HW190552  10.254  13.576  14.559
62885SOL    HW290553  10.340  13.471  14.625
62886SOL     OW90554   3.979   7.209   4.249
62886SOL    HW190555   3.896   7.253   4.234
62886SOL    HW290556   4.045   7.279   4.244
62887SOL     OW90557   8.710   3.690  10.922
62887SOL    HW190558   8.730   3.630  10.851
62887SOL    HW290559   8.782   3.753  10.921
62888SOL     OW90560   0.961   1.532  11.592
62888SOL    HW190561   0.935   1.442  11.612
62888SOL    HW290562   0.921   1.584  11.661
62889SOL     OW90563  12.770  13.314  12.381
62889SOL    HW190564  12.683  13.284  12.409
62889SOL    HW290565  12.762  13.325  12.287
62890SOL     OW90566   6.342   6.010  12.900
62890SOL    HW190567   6.251   6.019  12.925
62890SOL    HW290568   6.364   6.095  12.860
62891SOL     OW90569   7.731   6.944   0.458
62891SOL    HW190570   7.710   7.017   0.401
62891SOL    HW290571   7.704   6.866   0.409
62892SOL     OW90572   3.491   9.851  14.217
62892SOL    HW190573   3.460   9.942  14.222
62892SOL    HW290574   3.574   9.857  14.171
62893SOL     OW90575  12.972   3.381   4.623
62893SOL    HW190576  13.049   3.394   4.679
62893SOL    HW290577  12.982   3.292   4.590
62894SOL     OW90578   5.634   2.266  11.295
62894SOL    HW190579   5.630   2.192  11.356
62894SOL    HW290580   5.679   2.335  11.344
62895SOL     OW90581  13.055  13.866   2.756
62895SOL    HW190582  13.090  13.841   2.841
62895SOL    HW290583  13.031  13.958   2.766
62896SOL     OW90584   9.589   4.376  14.177
62896SOL    HW190585   9.627   4.354  14.262
62896SOL    HW290586   9.595   4.471  14.171
62897SOL     OW90587   6.636  12.680   0.224
62897SOL    HW190588   6.625  12.611   0.158
62897SOL    HW290589   6.562  12.738   0.210
62898SOL     OW90590   9.428  10.055   4.397
62898SOL    HW190591   9.387   9.969   4.404
62898SOL    HW290592   9.517  10.041   4.430
62899SOL     OW90593   2.877   0.546   6.540
62899SOL    HW190594   2.934   0.615   6.506
62899SOL    HW290595   2.866   0.486   6.465
62900SOL     OW90596  12.418   5.838  12.054
62900SOL    HW190597  12.462   5.877  12.129
62900SOL    HW290598  12.328   5.823  12.083
62901SOL     OW90599  11.318   0.989   7.133
62901SOL    HW190600  11.243   1.039   7.166
62901SOL    HW290601  11.317   1.003   7.039
62902SOL     OW90602   6.724  10.094   4.003
62902SOL    HW190603   6.707  10.186   3.983
62902SOL    HW290604   6.710  10.048   3.920
62903SOL     OW90605   1.355   3.379   9.338
62903SOL    HW190606   1.402   3.298   9.357
62903SOL    HW290607   1.409   3.424   9.273
62904SOL     OW90608  10.440  10.636  13.135
62904SOL    HW190609  10.448  10.703  13.067
62904SOL    HW290610  10.386  10.676  13.203
62905SOL     OW90611   6.844   7.905   4.403
62905SOL    HW190612   6.891   7.943   4.328
62905SOL    HW290613   6.862   7.811   4.398
62906SOL     OW90614  13.689   9.799  12.558
62906SOL    HW190615  13.639   9.876  12.532
62906SOL    HW290616  13.723   9.820  12.645
62907SOL     OW90617  12.039   7.247   7.696
62907SOL    HW190618  12.023   7.287   7.611
62907SOL    HW290619  12.047   7.322   7.756
62908SOL     OW90620   0.309   3.753   6.731
62908SOL    HW190621   0.367   3.685   6.764
62908SOL    HW290622   0.306   3.738   6.637
62909SOL     OW90623  14.262  10.552   1.631
62909SOL    HW190624  14.285  10.634   1.588
62909SOL    HW290625  14.245  10.577   1.722
62910SOL     OW90626  14.336  10.943   4.366
62910SOL    HW190627  14.245  10.960   4.390
62910SOL    HW290628  14.370  10.889   4.436
62911SOL     OW90629   9.935   3.651   7.434
62911SOL    HW190630   9.849   3.693   7.427
62911SOL    HW290631   9.936   3.587   7.362
62912SOL     OW90632   2.240   0.481   4.530
62912SOL    HW190633   2.171   0.512   4.590
62912SOL    HW290634   2.277   0.561   4.492
62913SOL     OW90635   3.935   0.782  10.180
62913SOL    HW190636   3.883   0.712  10.141
62913SOL    HW290637   4.009   0.737  10.221
62914SOL     OW90638   8.197   2.162  11.395
62914SOL    HW190639   8.277   2.199  11.433
62914SOL    HW290640   8.142   2.238  11.375
62915SOL     OW90641   6.705   6.880   4.027
62915SOL    HW190642   6.671   6.790   4.023
62915SOL    HW290643   6.794   6.873   3.993
62916SOL     OW90644   5.041  10.407   9.443
62916SOL    HW190645   4.980  10.397   9.370
62916SOL    HW290646   5.033  10.499   9.468
62917SOL     OW90647   7.178  13.097  14.206
62917SOL    HW190648   7.252  13.116  14.265
62917SOL    HW290649   7.122  13.038  14.257
62918SOL     OW90650  10.983   6.044   2.092
62918SOL    HW190651  10.986   6.138   2.074
62918SOL    HW290652  10.891   6.020   2.079
62919SOL     OW90653   0.984   3.668   6.551
62919SOL    HW190654   1.046   3.698   6.484
62919SOL    HW290655   1.031   3.598   6.597
62920SOL     OW90656   0.304   7.336   5.174
62920SOL    HW190657   0.209   7.334   5.167
62920SOL    HW290658   0.334   7.361   5.086
62921SOL     OW90659  10.982  12.857  13.294
62921SOL    HW190660  10.919  12.911  13.341
62921SOL    HW290661  11.004  12.907  13.216
62922SOL     OW90662  14.547  12.964   3.454
62922SOL    HW190663  14.467  13.004   3.420
62922SOL    HW290664  14.601  13.038   3.482
62923SOL     OW90665   1.720   3.885   3.871
62923SOL    HW190666   1.765   3.815   3.918
62923SOL    HW290667   1.749   3.876   3.781
62924SOL     OW90668   6.046   6.517  13.374
62924SOL    HW190669   6.001   6.510  13.289
62924SOL    HW290670   5.978   6.541  13.436
62925SOL     OW90671  13.795   0.280   1.736
62925SOL    HW190672  13.823   0.217   1.671
62925SOL    HW290673  13.875   0.324   1.765
62926SOL     OW90674   0.266   1.939   6.041
62926SOL    HW190675   0.345   1.890   6.062
62926SOL    HW290676   0.273   1.957   5.948
62927SOL     OW90677   8.782  13.580   6.745
62927SOL    HW190678   8.793  13.517   6.674
62927SOL    HW290679   8.745  13.658   6.702
62928SOL     OW90680   6.573   8.866  10.405
62928SOL    HW190681   6.496   8.820  10.372
62928SOL    HW290682   6.644   8.837  10.348
62929SOL     OW90683  10.797   0.250  10.624
62929SOL    HW190684  10.752   0.168  10.646
62929SOL    HW290685  10.732   0.318  10.641
62930SOL     OW90686   4.302  14.004   7.739
62930SOL    HW190687   4.309  14.005   7.834
62930SOL    HW290688   4.282  14.095   7.716
62931SOL     OW90689   7.575   7.282   3.683
62931SOL    HW190690   7.559   7.189   3.700
62931SOL    HW290691   7.490   7.315   3.652
62932SOL     OW90692  13.459   5.473   2.921
62932SOL    HW190693  13.432   5.461   3.012
62932SOL    HW290694  13.381   5.506   2.876
62933SOL     OW90695   1.292   6.454   9.992
62933SOL    HW190696   1.236   6.377   9.983
62933SOL    HW290697   1.355   6.430  10.061
62934SOL     OW90698   8.455   4.249  13.107
62934SOL    HW190699   8.481   4.340  13.126
62934SOL    HW290700   8.537   4.206  13.083
62935SOL     OW90701  10.846   3.988  14.456
62935SOL    HW190702  10.782   4.012  14.523
62935SOL    HW290703  10.796   3.993  14.374
62936SOL     OW90704   0.840   3.179  14.814
62936SOL    HW190705   0.925   3.147  14.784
62936SOL    HW290706   0.810   3.112   0.000
62937SOL     OW90707   4.758   6.598  14.331
62937SOL    HW190708   4.845   6.574  14.365
62937SOL    HW290709   4.730   6.669  14.389
62938SOL     OW90710  12.615   8.816   5.017
62938SOL    HW190711  12.629   8.742   4.957
62938SOL    HW290712  12.638   8.893   4.966
62939SOL     OW90713   4.761   4.812   5.942
62939SOL    HW190714   4.783   4.773   5.857
62939SOL    HW290715   4.800   4.899   5.939
62940SOL     OW90716   1.194   2.815   4.476
62940SOL    HW190717   1.148   2.773   4.549
62940SOL    HW290718   1.123   2.843   4.418
62941SOL     OW90719  13.644  10.150   2.687
62941SOL    HW190720  13.673  10.165   2.597
62941SOL    HW290721  13.725  10.135   2.736
62942SOL     OW90722   8.349   6.602   9.144
62942SOL    HW190723   8.401   6.676   9.112
62942SOL    HW290724   8.300   6.638   9.218
62943SOL     OW90725  13.969   5.560   0.414
62943SOL    HW190726  14.013   5.600   0.339
62943SOL    HW290727  13.997   5.468   0.412
62944SOL     OW90728   7.662   6.921   6.363
62944SOL    HW190729   7.751   6.917   6.327
62944SOL    HW290730   7.654   6.843   6.416
62945SOL     OW90731   9.710  11.859  11.088
62945SOL    HW190732   9.661  11.940  11.074
62945SOL    HW290733   9.652  11.803  11.139
62946SOL     OW90734   7.353  13.959  10.663
62946SOL    HW190735   7.438  13.989  10.629
62946SOL    HW290736   7.375  13.885  10.719
62947SOL     OW90737   2.367  12.438   2.932
62947SOL    HW190738   2.295  12.490   2.897
62947SOL    HW290739   2.327  12.357   2.961
62948SOL     OW90740  13.884  13.544  11.563
62948SOL    HW190741  13.790  13.535  11.545
62948SOL    HW290742  13.908  13.459  11.601
62949SOL     OW90743   4.680  12.402   7.960
62949SOL    HW190744   4.757  12.392   7.903
62949SOL    HW290745   4.692  12.337   8.029
62950SOL     OW90746   9.782   4.900   0.461
62950SOL    HW190747   9.787   4.958   0.537
62950SOL    HW290748   9.846   4.936   0.399
62951SOL     OW90749  11.893   0.432  13.198
62951SOL    HW190750  11.808   0.430  13.242
62951SOL    HW290751  11.940   0.356  13.232
62952SOL     OW90752   0.325   3.187   6.568
62952SOL    HW190753   0.380   3.116   6.603
62952SOL    HW290754   0.386   3.259   6.554
62953SOL     OW90755   4.471   5.886   3.372
62953SOL    HW190756   4.495   5.822   3.305
62953SOL    HW290757   4.554   5.909   3.415
62954SOL     OW90758  12.603   0.732   8.461
62954SOL    HW190759  12.574   0.710   8.549
62954SOL    HW290760  12.650   0.815   8.472
62955SOL     OW90761   6.703   7.690   9.724
62955SOL    HW190762   6.662   7.749   9.787
62955SOL    HW290763   6.779   7.655   9.769
62956SOL     OW90764  14.513   6.569   7.414
62956SOL    HW190765  14.573   6.611   7.352
62956SOL    HW290766  14.571   6.526   7.478
62957SOL     OW90767  11.561   7.089   3.480
62957SOL    HW190768  11.595   7.003   3.453
62957SOL    HW290769  11.601   7.151   3.419
62958SOL     OW90770  13.744  11.886   9.108
62958SOL    HW190771  13.814  11.949   9.091
62958SOL    HW290772  13.777  11.802   9.076
62959SOL     OW90773   5.266   3.032  11.552
62959SOL    HW190774   5.176   3.040  11.582
62959SOL    HW290775   5.319   3.062  11.626
62960SOL     OW90776  12.570   1.227   5.993
62960SOL    HW190777  12.495   1.237   6.052
62960SOL    HW290778  12.627   1.164   6.037
62961SOL     OW90779   4.436   7.604  12.116
62961SOL    HW190780   4.355   7.602  12.166
62961SOL    HW290781   4.494   7.543  12.161
62962SOL     OW90782   4.390   9.539   1.221
62962SOL    HW190783   4.417   9.518   1.132
62962SOL    HW290784   4.388   9.454   1.266
62963SOL     OW90785   8.724   4.009   3.070
62963SOL    HW190786   8.737   3.914   3.067
62963SOL    HW290787   8.706   4.034   2.979
62964SOL     OW90788   1.935   8.391   0.194
62964SOL    HW190789   1.987   8.311   0.195
62964SOL    HW290790   1.965   8.440   0.270
62965SOL     OW90791   2.352   8.289  10.206
62965SOL    HW190792   2.305   8.260  10.285
62965SOL    HW290793   2.444   8.294  10.233
62966SOL     OW90794   3.960   4.323   5.605
62966SOL    HW190795   3.925   4.335   5.693
62966SOL    HW290796   4.024   4.394   5.594
62967SOL     OW90797  14.605   5.607  12.810
62967SOL    HW190798  14.545   5.608  12.885
62967SOL    HW290799  14.552   5.641  12.737
62968SOL     OW90800   7.842   8.733   3.735
62968SOL    HW190801   7.872   8.823   3.749
62968SOL    HW290802   7.831   8.726   3.640
62969SOL     OW90803   8.294   3.148   0.456
62969SOL    HW190804   8.325   3.233   0.485
62969SOL    HW290805   8.373   3.100   0.430
62970SOL     OW90806   8.880   3.231   8.944
62970SOL    HW190807   8.824   3.154   8.930
62970SOL    HW290808   8.821   3.297   8.981
62971SOL     OW90809   9.987   7.669  12.420
62971SOL    HW190810   9.929   7.597  12.396
62971SOL    HW290811   9.930   7.735  12.459
62972SOL     OW90812  10.765   5.650  11.898
62972SOL    HW190813  10.752   5.744  11.905
62972SOL    HW290814  10.858   5.639  11.876
62973SOL     OW90815   4.410   5.210   8.929
62973SOL    HW190816   4.363   5.288   8.898
62973SOL    HW290817   4.424   5.158   8.850
62974SOL     OW90818   5.362  14.685   4.490
62974SOL    HW190819   5.404  14.735   4.420
62974SOL    HW290820   5.273  14.720   4.494
62975SOL     OW90821   4.661   8.713  11.721
62975SOL    HW190822   4.676   8.759  11.638
62975SOL    HW290823   4.626   8.780  11.780
62976SOL     OW90824  10.155  14.261   8.174
62976SOL    HW190825  10.120  14.172   8.165
62976SOL    HW290826  10.105  14.313   8.112
62977SOL     OW90827   5.190  11.372  10.136
62977SOL    HW190828   5.241  11.303  10.179
62977SOL    HW290829   5.236  11.453  10.158
62978SOL     OW90830   4.977  14.772   8.385
62978SOL    HW190831   4.897  14.725   8.364
62978SOL    HW290832   5.038  14.749   8.315
62979SOL     OW90833   3.982   6.945   9.563
62979SOL    HW190834   3.955   7.010   9.628
62979SOL    HW290835   3.901   6.914   9.524
62980SOL     OW90836  12.964   4.957   4.561
62980SOL    HW190837  13.041   4.907   4.584
62980SOL    HW290838  12.930   4.991   4.644
62981SOL     OW90839  13.886   8.516   2.841
62981SOL    HW190840  13.864   8.542   2.931
62981SOL    HW290841  13.802   8.491   2.803
62982SOL     OW90842   3.718  11.100  12.746
62982SOL    HW190843   3.787  11.094  12.811
62982SOL    HW290844   3.763  11.110  12.663
62983SOL     OW90845  12.042  11.212  10.283
62983SOL    HW190846  12.089  11.270  10.343
62983SOL    HW290847  11.953  11.207  10.319
62984SOL     OW90848  14.255   8.095  13.463
62984SOL    HW190849  14.300   8.020  13.500
62984SOL    HW290850  14.194   8.058  13.399
62985SOL     OW90851   4.327   1.139   9.999
62985SOL    HW190852   4.364   1.227   9.986
62985SOL    HW290853   4.394   1.080   9.963
62986SOL     OW90854   1.167  14.271   9.709
62986SOL    HW190855   1.114  14.309   9.779
62986SOL    HW290856   1.245  14.239   9.753
62987SOL     OW90857   8.123   7.337   8.055
62987SOL    HW190858   8.028   7.327   8.051
62987SOL    HW290859   8.151   7.266   8.114
62988SOL     OW90860   2.995   0.888   9.019
62988SOL    HW190861   2.943   0.887   8.939
62988SOL    HW290862   2.965   0.812   9.069
62989SOL     OW90863   6.255   4.656   0.370
62989SOL    HW190864   6.166   4.685   0.349
62989SOL    HW290865   6.251   4.561   0.365
62990SOL     OW90866   9.486  13.168   1.979
62990SOL    HW190867   9.415  13.219   1.940
62990SOL    HW290868   9.488  13.087   1.927
62991SOL     OW90869   2.853   9.370   4.484
62991SOL    HW190870   2.763   9.397   4.461
62991SOL    HW290871   2.842   9.314   4.560
62992SOL     OW90872   5.845  14.123   2.502
62992SOL    HW190873   5.921  14.074   2.472
62992SOL    HW290874   5.774  14.060   2.504
62993SOL     OW90875   8.879  13.094   1.562
62993SOL    HW190876   8.788  13.082   1.533
62993SOL    HW290877   8.910  13.005   1.580
62994SOL     OW90878  11.207   1.682  10.538
62994SOL    HW190879  11.132   1.717  10.490
62994SOL    HW290880  11.171   1.652  10.621
62995SOL     OW90881   7.811   2.029  12.078
62995SOL    HW190882   7.892   1.990  12.045
62995SOL    HW290883   7.824   2.123  12.066
62996SOL     OW90884  12.722   0.018   1.662
62996SOL    HW190885  12.662  14.843   1.718
62996SOL    HW290886  12.806  14.848   1.672
62997SOL     OW90887  11.791   0.972   7.269
62997SOL    HW190888  11.804   1.058   7.309
62997SOL    HW290889  11.835   0.978   7.184
62998SOL     OW90890  11.239   6.186   5.548
62998SOL    HW190891  11.187   6.124   5.599
62998SOL    HW290892  11.303   6.221   5.609
62999SOL     OW90893  14.747   0.318   7.004
62999SOL    HW190894  14.793   0.235   6.994
62999SOL    HW290895  14.655   0.293   7.014
63000SOL     OW90896   8.076   4.389   4.099
63000SOL    HW190897   8.160   4.352   4.127
63000SOL    HW290898   8.027   4.314   4.065
63001SOL     OW90899  14.440   2.229   3.921
63001SOL    HW190900  14.470   2.291   3.854
63001SOL    HW290901  14.517   2.215   3.976
63002SOL     OW90902   3.544  13.332   1.750
63002SOL    HW190903   3.532  13.306   1.659
63002SOL    HW290904   3.495  13.414   1.758
63003SOL     OW90905   6.789  14.394   0.659
63003SOL    HW190906   6.860  14.456   0.675
63003SOL    HW290907   6.713  14.449   0.641
63004SOL     OW90908  13.274   2.394   2.924
63004SOL    HW190909  13.246   2.458   2.990
63004SOL    HW290910  13.201   2.389   2.862
63005SOL     OW90911   6.869   1.081   5.254
63005SOL    HW190912   6.797   1.119   5.304
63005SOL    HW290913   6.875   0.991   5.286
63006SOL     OW90914  10.870  10.225  12.817
63006SOL    HW190915  10.914  10.226  12.902
63006SOL    HW290916  10.790  10.276  12.831
63007SOL     OW90917   7.448   9.719   6.577
63007SOL    HW190918   7.503   9.646   6.548
63007SOL    HW290919   7.492   9.797   6.545
63008SOL     OW90920  13.271   6.554   2.210
63008SOL    HW190921  13.307   6.578   2.125
63008SOL    HW290922  13.213   6.628   2.233
63009SOL     OW90923   7.948  14.594   4.970
63009SOL    HW190924   7.894  14.539   5.027
63009SOL    HW290925   7.909  14.585   4.883
63010SOL     OW90926   7.940   5.900   5.036
63010SOL    HW190927   7.971   5.968   5.096
63010SOL    HW290928   7.894   5.948   4.967
63011SOL     OW90929   3.918   6.010   9.156
63011SOL    HW190930   3.931   5.946   9.086
63011SOL    HW290931   3.923   6.095   9.111
63012SOL     OW90932   6.864   8.040  14.657
63012SOL    HW190933   6.950   8.029  14.698
63012SOL    HW290934   6.883   8.070  14.568
63013SOL     OW90935   2.791   2.407   8.942
63013SOL    HW190936   2.708   2.394   8.987
63013SOL    HW290937   2.851   2.436   9.011
63014SOL     OW90938  12.208  13.063  12.439
63014SOL    HW190939  12.116  13.083  12.457
63014SOL    HW290940  12.246  13.048  12.525
63015SOL     OW90941   2.319  12.836   2.959
63015SOL    HW190942   2.312  12.745   2.932
63015SOL    HW290943   2.258  12.883   2.902
63016SOL     OW90944  14.285   8.907   4.381
63016SOL    HW190945  14.301   8.852   4.457
63016SOL    HW290946  14.361   8.965   4.376
63017SOL     OW90947   8.535   9.567   2.911
63017SOL    HW190948   8.598   9.517   2.859
63017SOL    HW290949   8.479   9.611   2.846
63018SOL     OW90950   2.470  14.457  11.678
63018SOL    HW190951   2.557  14.479  11.712
63018SOL    HW290952   2.454  14.523  11.611
63019SOL     OW90953   7.647  10.247   9.696
63019SOL    HW190954   7.558  10.236   9.729
63019SOL    HW290955   7.695  10.287   9.769
63020SOL     OW90956  12.634   5.877   0.673
63020SOL    HW190957  12.669   5.865   0.762
63020SOL    HW290958  12.557   5.821   0.670
63021SOL     OW90959   5.655   1.200  11.789
63021SOL    HW190960   5.710   1.190  11.867
63021SOL    HW290961   5.585   1.136  11.800
63022SOL     OW90962  12.640   2.675   5.116
63022SOL    HW190963  12.727   2.635   5.117
63022SOL    HW290964  12.634   2.716   5.030
63023SOL     OW90965   1.721   7.609   9.225
63023SOL    HW190966   1.751   7.695   9.196
63023SOL    HW290967   1.719   7.556   9.146
63024SOL     OW90968   5.645  13.646  12.343
63024SOL    HW190969   5.699  13.567  12.349
63024SOL    HW290970   5.692  13.703  12.282
63025SOL     OW90971   4.406   4.975   6.742
63025SOL    HW190972   4.370   5.040   6.802
63025SOL    HW290973   4.480   4.938   6.789
63026SOL     OW90974  11.217  11.935   7.788
63026SOL    HW190975  11.274  12.009   7.811
63026SOL    HW290976  11.237  11.869   7.854
63027SOL     OW90977  12.267   5.689   4.659
63027SOL    HW190978  12.257   5.608   4.609
63027SOL    HW290979  12.346   5.675   4.712
63028SOL     OW90980  14.841   7.866   4.677
63028SOL    HW190981   0.037   7.822   4.723
63028SOL    HW290982   0.002   7.888   4.591
63029SOL     OW90983   6.530   1.906  13.236
63029SOL    HW190984   6.535   1.812  13.251
63029SOL    HW290985   6.436   1.925  13.232
63030SOL     OW90986  10.306  10.134  12.262
63030SOL    HW190987  10.390  10.096  12.237
63030SOL    HW290988  10.318  10.229  12.252
63031SOL     OW90989   8.285   1.086  10.880
63031SOL    HW190990   8.295   1.178  10.855
63031SOL    HW290991   8.214   1.053  10.825
63032SOL     OW90992   8.972   8.086   4.152
63032SOL    HW190993   9.068   8.083   4.143
63032SOL    HW290994   8.951   8.011   4.207
63033SOL     OW90995   6.570   1.588  13.189
63033SOL    HW190996   6.571   1.518  13.124
63033SOL    HW290997   6.508   1.558  13.256
63034SOL     OW90998   8.582   0.890   9.821
63034SOL    HW190999   8.619   0.806   9.794
63034SOL    HW291000   8.620   0.906   9.907
63035SOL     OW91001   5.190   1.414   9.015
63035SOL    HW191002   5.130   1.348   9.049
63035SOL    HW291003   5.161   1.496   9.055
63036SOL     OW91004   8.943   3.368  13.123
63036SOL    HW191005   8.983   3.451  13.101
63036SOL    HW291006   8.854   3.374  13.088
63037SOL     OW91007   3.627  12.264  10.686
63037SOL    HW191008   3.641  12.198  10.754
63037SOL    HW291009   3.588  12.338  10.732
63038SOL     OW91010   6.022   4.199   4.908
63038SOL    HW191011   6.093   4.149   4.867
63038SOL    HW291012   6.027   4.285   4.868
63039SOL     OW91013  13.269   8.391   1.625
63039SOL    HW191014  13.192   8.387   1.681
63039SOL    HW291015  13.279   8.484   1.604
63040SOL     OW91016   9.783   9.298   4.495
63040SOL    HW191017   9.823   9.330   4.414
63040SOL    HW291018   9.690   9.321   4.485
63041SOL     OW91019   6.198  14.549   6.325
63041SOL    HW191020   6.200  14.472   6.268
63041SOL    HW291021   6.258  14.611   6.283
63042SOL     OW91022  13.676  14.794   4.365
63042SOL    HW191023  13.662  14.734   4.292
63042SOL    HW291024  13.601  14.778   4.423
63043SOL     OW91025   6.805   6.918   3.240
63043SOL    HW191026   6.766   6.838   3.205
63043SOL    HW291027   6.882   6.889   3.288
63044SOL     OW91028   2.840  13.257  12.803
63044SOL    HW191029   2.903  13.205  12.852
63044SOL    HW291030   2.870  13.347  12.812
63045SOL     OW91031   1.217  13.913   5.471
63045SOL    HW191032   1.140  13.951   5.514
63045SOL    HW291033   1.274  13.988   5.453
63046SOL     OW91034   0.981  13.706  14.634
63046SOL    HW191035   1.049  13.647  14.603
63046SOL    HW291036   1.027  13.764  14.696
63047SOL     OW91037   5.986   0.062  12.034
63047SOL    HW191038   5.957   0.151  12.052
63047SOL    HW291039   5.935   0.007  12.094
63048SOL     OW91040   5.204   9.193   0.969
63048SOL    HW191041   5.249   9.273   0.943
63048SOL    HW291042   5.272   9.138   1.008
63049SOL     OW91043  13.425   9.910  11.998
63049SOL    HW191044  13.465   9.830  12.034
63049SOL    HW291045  13.392   9.957  12.075
63050SOL     OW91046   1.242  12.154   5.809
63050SOL    HW191047   1.268  12.176   5.719
63050SOL    HW291048   1.170  12.091   5.797
63051SOL     OW91049   4.845  10.227   7.774
63051SOL    HW191050   4.920  10.168   7.779
63051SOL    HW291051   4.802  10.204   7.691
63052SOL     OW91052  10.727   8.077   9.101
63052SOL    HW191053  10.763   8.025   9.173
63052SOL    HW291054  10.678   8.013   9.048
63053SOL     OW91055   4.845   2.732  12.801
63053SOL    HW191056   4.784   2.680  12.852
63053SOL    HW291057   4.917   2.673  12.781
63054SOL     OW91058  12.708   8.721   2.128
63054SOL    HW191059  12.620   8.685   2.116
63054SOL    HW291060  12.697   8.788   2.196
63055SOL     OW91061   0.987  11.747   8.733
63055SOL    HW191062   1.053  11.807   8.697
63055SOL    HW291063   0.940  11.800   8.798
63056SOL     OW91064  10.783  11.733  10.470
63056SOL    HW191065  10.762  11.745  10.377
63056SOL    HW291066  10.755  11.815  10.511
63057SOL     OW91067   0.348  10.225  12.283
63057SOL    HW191068   0.398  10.302  12.310
63057SOL    HW291069   0.303  10.251  12.203
63058SOL     OW91070   4.286   6.504   4.964
63058SOL    HW191071   4.234   6.444   5.018
63058SOL    HW291072   4.372   6.505   5.006
63059SOL     OW91073  13.307   6.528  11.204
63059SOL    HW191074  13.365   6.454  11.185
63059SOL    HW291075  13.308   6.581  11.124
63060SOL     OW91076   4.418   7.146  10.785
63060SOL    HW191077   4.475   7.222  10.775
63060SOL    HW291078   4.431   7.119  10.876
63061SOL     OW91079   2.608   5.185  10.363
63061SOL    HW191080   2.649   5.099  10.351
63061SOL    HW291081   2.517   5.164  10.387
63062SOL     OW91082   6.660  13.624  14.055
63062SOL    HW191083   6.566  13.642  14.064
63062SOL    HW291084   6.703  13.704  14.085
63063SOL     OW91085  13.077   0.160   3.474
63063SOL    HW191086  13.029   0.113   3.543
63063SOL    HW291087  13.016   0.162   3.400
63064SOL     OW91088   9.385   9.145   7.950
63064SOL    HW191089   9.416   9.156   8.040
63064SOL    HW291090   9.423   9.219   7.902
63065SOL     OW91091  11.696  12.918  10.592
63065SOL    HW191092  11.705  12.991  10.531
63065SOL    HW291093  11.613  12.877  10.568
63066SOL     OW91094  10.835   2.832   8.586
63066SOL    HW191095  10.750   2.790   8.601
63066SOL    HW291096  10.884   2.817   8.667
63067SOL     OW91097   4.423   8.560   4.572
63067SOL    HW191098   4.421   8.584   4.480
63067SOL    HW291099   4.504   8.598   4.605
63068SOL     OW91100  11.928  11.516  11.818
63068SOL    HW191101  11.883  11.460  11.881
63068SOL    HW291102  12.019  11.485  11.819
63069SOL     OW91103  14.583   0.070   7.367
63069SOL    HW191104  14.577   0.021   7.449
63069SOL    HW291105  14.626   0.152   7.392
63070SOL     OW91106   5.537  12.527  14.475
63070SOL    HW191107   5.514  12.449  14.425
63070SOL    HW291108   5.625  12.510  14.507
63071SOL     OW91109   8.018   2.985  14.309
63071SOL    HW191110   7.962   2.907  14.317
63071SOL    HW291111   7.967   3.055  14.351
63072SOL     OW91112  10.295   7.147   2.204
63072SOL    HW191113  10.388   7.167   2.204
63072SOL    HW291114  10.277   7.115   2.115
63073SOL     OW91115   3.574  10.302   8.592
63073SOL    HW191116   3.641  10.238   8.566
63073SOL    HW291117   3.539  10.335   8.509
63074SOL     OW91118  12.360   1.243   6.174
63074SOL    HW191119  12.370   1.168   6.233
63074SOL    HW291120  12.310   1.307   6.226
63075SOL     OW91121   2.939  14.046   8.827
63075SOL    HW191122   2.959  14.097   8.905
63075SOL    HW291123   2.861  13.995   8.850
63076SOL     OW91124  13.854   8.349   9.125
63076SOL    HW191125  13.811   8.282   9.071
63076SOL    HW291126  13.929   8.377   9.073
63077SOL     OW91127   3.918   5.195  11.389
63077SOL    HW191128   3.845   5.234  11.340
63077SOL    HW291129   3.954   5.268  11.439
63078SOL     OW91130   4.513  12.110   7.333
63078SOL    HW191131   4.420  12.118   7.351
63078SOL    HW291132   4.522  12.130   7.240
63079SOL     OW91133   9.529   2.525   9.703
63079SOL    HW191134   9.439   2.501   9.724
63079SOL    HW291135   9.521   2.581   9.625
63080SOL     OW91136   2.562   8.890   3.797
63080SOL    HW191137   2.598   8.922   3.879
63080SOL    HW291138   2.606   8.806   3.783
63081SOL     OW91139  10.955  14.162  11.342
63081SOL    HW191140  10.973  14.088  11.400
63081SOL    HW291141  10.925  14.123  11.260
63082SOL     OW91142  11.885  14.113  10.317
63082SOL    HW191143  11.906  14.065  10.397
63082SOL    HW291144  11.875  14.046  10.250
63083SOL     OW91145  10.163   8.802  10.187
63083SOL    HW191146  10.228   8.868  10.162
63083SOL    HW291147  10.153   8.814  10.282
63084SOL     OW91148  10.560   4.860  10.076
63084SOL    HW191149  10.473   4.885  10.105
63084SOL    HW291150  10.577   4.776  10.117
63085SOL     OW91151   7.832  12.446  13.748
63085SOL    HW191152   7.765  12.378  13.740
63085SOL    HW291153   7.893  12.427  13.677
63086SOL     OW91154  11.113   3.371   4.542
63086SOL    HW191155  11.085   3.280   4.543
63086SOL    HW291156  11.170   3.379   4.618
63087SOL     OW91157   9.750   7.698  10.763
63087SOL    HW191158   9.681   7.730  10.704
63087SOL    HW291159   9.784   7.778  10.805
63088SOL     OW91160  12.049  12.799   3.060
63088SOL    HW191161  12.137  12.821   3.088
63088SOL    HW291162  12.052  12.704   3.044
63089SOL     OW91163   4.596   4.778   5.484
63089SOL    HW191164   4.518   4.827   5.459
63089SOL    HW291165   4.573   4.687   5.466
63090SOL     OW91166  13.653  10.260   6.655
63090SOL    HW191167  13.581  10.220   6.606
63090SOL    HW291168  13.732  10.227   6.612
63091SOL     OW91169  11.980   1.173  10.277
63091SOL    HW191170  12.045   1.168  10.207
63091SOL    HW291171  11.915   1.235  10.245
63092SOL     OW91172   9.791   4.941   6.541
63092SOL    HW191173   9.716   4.944   6.599
63092SOL    HW291174   9.809   4.847   6.529
63093SOL     OW91175   7.638  11.055  14.454
63093SOL    HW191176   7.574  11.108  14.502
63093SOL    HW291177   7.604  11.054  14.364
63094SOL     OW91178   0.840  14.783   1.434
63094SOL    HW191179   0.839  14.863   1.487
63094SOL    HW291180   0.748  14.767   1.413
63095SOL     OW91181  11.383   7.128   6.955
63095SOL    HW191182  11.462   7.144   6.904
63095SOL    HW291183  11.367   7.211   7.000
63096SOL     OW91184   6.049   8.952   6.232
63096SOL    HW191185   6.014   8.951   6.321
63096SOL    HW291186   6.056   9.045   6.211
63097SOL     OW91187   4.578  14.309  10.019
63097SOL    HW191188   4.484  14.313  10.003
63097SOL    HW291189   4.587  14.332  10.112
63098SOL     OW91190   4.219   2.856   5.825
63098SOL    HW191191   4.149   2.852   5.890
63098SOL    HW291192   4.231   2.765   5.797
63099SOL     OW91193   9.826   2.296  12.903
63099SOL    HW191194   9.740   2.303  12.947
63099SOL    HW291195   9.819   2.355  12.829
63100SOL     OW91196   8.092   3.607  13.723
63100SOL    HW191197   8.000   3.598  13.698
63100SOL    HW291198   8.128   3.669  13.660
63101SOL     OW91199   5.970  14.869  11.686
63101SOL    HW191200   5.984   0.041  11.604
63101SOL    HW291201   6.058  14.854  11.721
63102SOL     OW91202  14.189  12.703   8.046
63102SOL    HW191203  14.136  12.777   8.016
63102SOL    HW291204  14.211  12.724   8.137
63103SOL     OW91205   8.469   4.697   5.427
63103SOL    HW191206   8.445   4.701   5.334
63103SOL    HW291207   8.517   4.778   5.442
63104SOL     OW91208   0.084   4.971  11.383
63104SOL    HW191209   0.103   4.927  11.465
63104SOL    HW291210   0.115   4.910  11.315
63105SOL     OW91211   8.161  13.442   6.588
63105SOL    HW191212   8.239  13.405   6.546
63105SOL    HW291213   8.122  13.498   6.520
63106SOL     OW91214   8.447  14.368  11.374
63106SOL    HW191215   8.432  14.403  11.462
63106SOL    HW291216   8.475  14.444  11.323
63107SOL     OW91217   4.629  10.064   8.595
63107SOL    HW191218   4.676  10.086   8.515
63107SOL    HW291219   4.608   9.971   8.586
63108SOL     OW91220   7.297   3.557  11.922
63108SOL    HW191221   7.207   3.542  11.950
63108SOL    HW291222   7.347   3.490  11.969
63109SOL     OW91223  13.026   8.581   4.814
63109SOL    HW191224  13.080   8.651   4.777
63109SOL    HW291225  13.032   8.510   4.749
63110SOL     OW91226   8.510   8.214   2.452
63110SOL    HW191227   8.567   8.137   2.451
63110SOL    HW291228   8.566   8.286   2.423
63111SOL     OW91229   5.618  14.720  14.274
63111SOL    HW191230   5.675  14.766  14.334
63111SOL    HW291231   5.602  14.635  14.315
63112SOL     OW91232  13.632   8.248  10.391
63112SOL    HW191233  13.560   8.198  10.354
63112SOL    HW291234  13.662   8.196  10.465
63113SOL     OW91235   7.586   2.736   6.766
63113SOL    HW191236   7.631   2.821   6.766
63113SOL    HW291237   7.563   2.722   6.674
63114SOL     OW91238   0.117   7.042   9.056
63114SOL    HW191239   0.100   6.962   9.005
63114SOL    HW291240   0.074   7.027   9.140
63115SOL     OW91241   3.755  13.816   2.472
63115SOL    HW191242   3.821  13.833   2.539
63115SOL    HW291243   3.779  13.874   2.400
63116SOL     OW91244  11.330   4.560  13.336
63116SOL    HW191245  11.381   4.504  13.395
63116SOL    HW291246  11.386   4.636  13.320
63117SOL     OW91247  12.958   9.615   6.849
63117SOL    HW191248  13.041   9.636   6.808
63117SOL    HW291249  12.892   9.650   6.790
63118SOL     OW91250   8.282   2.344   6.306
63118SOL    HW191251   8.348   2.288   6.264
63118SOL    HW291252   8.232   2.284   6.362
63119SOL     OW91253  11.880   8.979   3.616
63119SOL    HW191254  11.855   8.980   3.523
63119SOL    HW291255  11.976   8.981   3.615
63120SOL     OW91256   4.401  13.312   7.989
63120SOL    HW191257   4.412  13.402   8.021
63120SOL    HW291258   4.357  13.322   7.904
63121SOL     OW91259  14.454   4.806  12.230
63121SOL    HW191260  14.427   4.722  12.192
63121SOL    HW291261  14.385   4.828  12.292
63122SOL     OW91262  13.260   0.803   2.489
63122SOL    HW191263  13.228   0.810   2.399
63122SOL    HW291264  13.255   0.892   2.524
63123SOL     OW91265   7.002   3.639  13.123
63123SOL    HW191266   6.999   3.720  13.072
63123SOL    HW291267   6.910   3.616  13.136
63124SOL     OW91268  14.264  10.774   8.037
63124SOL    HW191269  14.238  10.735   8.120
63124SOL    HW291270  14.360  10.773   8.038
63125SOL     OW91271  13.202  14.778  14.465
63125SOL    HW191272  13.183  14.807  14.376
63125SOL    HW291273  13.293  14.803  14.479
63126SOL     OW91274  10.503   3.312   7.486
63126SOL    HW191275  10.552   3.372   7.430
63126SOL    HW291276  10.567   3.248   7.515
63127SOL     OW91277   9.142   5.615   6.243
63127SOL    HW191278   9.225   5.632   6.289
63127SOL    HW291279   9.100   5.546   6.295
63128SOL     OW91280   3.793   7.004   2.273
63128SOL    HW191281   3.743   7.080   2.301
63128SOL    HW291282   3.878   7.013   2.318
63129SOL     OW91283   7.210   7.002   3.477
63129SOL    HW191284   7.188   6.998   3.570
63129SOL    HW291285   7.235   7.093   3.461
63130SOL     OW91286   0.123   5.357   3.195
63130SOL    HW191287   0.112   5.298   3.270
63130SOL    HW291288   0.093   5.442   3.227
63131SOL     OW91289   0.919  13.803   3.506
63131SOL    HW191290   0.879  13.719   3.529
63131SOL    HW291291   1.000  13.779   3.461
63132SOL     OW91292   2.436   2.198  10.615
63132SOL    HW191293   2.436   2.207  10.710
63132SOL    HW291294   2.435   2.288  10.582
63133SOL     OW91295   5.758   0.698   8.335
63133SOL    HW191296   5.828   0.641   8.367
63133SOL    HW291297   5.782   0.718   8.245
63134SOL     OW91298  12.475   4.719   1.873
63134SOL    HW191299  12.468   4.641   1.818
63134SOL    HW291300  12.530   4.692   1.946
63135SOL     OW91301   2.289   7.636   5.721
63135SOL    HW191302   2.360   7.654   5.782
63135SOL    HW291303   2.219   7.696   5.747
63136SOL     OW91304   0.183   4.623  10.635
63136SOL    HW191305   0.243   4.600  10.565
63136SOL    HW291306   0.199   4.717  10.650
63137SOL     OW91307   0.476   5.308  12.582
63137SOL    HW191308   0.400   5.336  12.531
63137SOL    HW291309   0.538   5.381  12.576
63138SOL     OW91310   2.950  12.183   6.037
63138SOL    HW191311   2.909  12.158   5.954
63138SOL    HW291312   2.907  12.127   6.102
63139SOL     OW91313   1.307  10.362   3.873
63139SOL    HW191314   1.235  10.319   3.920
63139SOL    HW291315   1.314  10.448   3.914
63140SOL     OW91316   6.602   4.036   9.237
63140SOL    HW191317   6.565   4.107   9.184
63140SOL    HW291318   6.693   4.062   9.251
63141SOL     OW91319   6.174   9.063  14.200
63141SOL    HW191320   6.248   9.025  14.154
63141SOL    HW291321   6.103   9.065  14.135
63142SOL     OW91322   9.718   5.066   0.969
63142SOL    HW191323   9.693   5.037   1.057
63142SOL    HW291324   9.637   5.102   0.932
63143SOL     OW91325   3.778   5.826   0.630
63143SOL    HW191326   3.859   5.846   0.677
63143SOL    HW291327   3.771   5.895   0.564
63144SOL     OW91328  12.621   8.785   8.690
63144SOL    HW191329  12.655   8.711   8.740
63144SOL    HW291330  12.568   8.834   8.753
63145SOL     OW91331   7.582  12.636   0.824
63145SOL    HW191332   7.559  12.726   0.846
63145SOL    HW291333   7.498  12.591   0.814
63146SOL     OW91334   2.825   0.650   7.615
63146SOL    HW191335   2.751   0.699   7.652
63146SOL    HW291336   2.893   0.716   7.602
63147SOL     OW91337  12.839   1.349   4.402
63147SOL    HW191338  12.763   1.317   4.450
63147SOL    HW291339  12.878   1.415   4.460
63148SOL     OW91340   6.216   5.831   5.514
63148SOL    HW191341   6.311   5.830   5.499
63148SOL    HW291342   6.199   5.747   5.557
63149SOL     OW91343   6.362   3.631   5.385
63149SOL    HW191344   6.302   3.683   5.439
63149SOL    HW291345   6.403   3.570   5.446
63150SOL     OW91346   2.158   3.921   7.186
63150SOL    HW191347   2.248   3.905   7.214
63150SOL    HW291348   2.167   3.974   7.107
63151SOL     OW91349   6.504  13.287   0.035
63151SOL    HW191350   6.456  13.370   0.041
63151SOL    HW291351   6.484  13.253  14.823
63152SOL     OW91352  10.383  13.786   7.098
63152SOL    HW191353  10.420  13.874   7.101
63152SOL    HW291354  10.450  13.734   7.053
63153SOL     OW91355   4.702   8.575   4.030
63153SOL    HW191356   4.614   8.611   4.014
63153SOL    HW291357   4.686   8.490   4.071
63154SOL     OW91358   0.711  13.046   3.499
63154SOL    HW191359   0.732  12.988   3.572
63154SOL    HW291360   0.627  13.086   3.524
63155SOL     OW91361  13.185  11.011   4.984
63155SOL    HW191362  13.173  11.106   4.981
63155SOL    HW291363  13.225  10.989   4.899
63156SOL     OW91364   1.089  14.704   2.532
63156SOL    HW191365   1.093  14.799   2.523
63156SOL    HW291366   1.161  14.682   2.591
63157SOL     OW91367   7.176   1.971   7.050
63157SOL    HW191368   7.246   1.936   6.994
63157SOL    HW291369   7.198   2.063   7.061
63158SOL     OW91370   6.843   8.085  12.362
63158SOL    HW191371   6.919   8.028  12.355
63158SOL    HW291372   6.858   8.154  12.298
63159SOL     OW91373   4.692  14.269   7.690
63159SOL    HW191374   4.774  14.309   7.659
63159SOL    HW291375   4.630  14.286   7.619
63160SOL     OW91376   9.917   7.151   0.733
63160SOL    HW191377   9.878   7.222   0.784
63160SOL    HW291378  10.009   7.176   0.725
63161SOL     OW91379   9.458   2.485   5.301
63161SOL    HW191380   9.448   2.539   5.380
63161SOL    HW291381   9.368   2.465   5.274
63162SOL     OW91382   9.693  13.710   5.021
63162SOL    HW191383   9.619  13.731   4.964
63162SOL    HW291384   9.770  13.736   4.970
63163SOL     OW91385  10.724  11.540   1.086
63163SOL    HW191386  10.794  11.575   1.031
63163SOL    HW291387  10.747  11.567   1.174
63164SOL     OW91388  11.090  12.633   3.720
63164SOL    HW191389  10.995  12.620   3.716
63164SOL    HW291390  11.103  12.686   3.799
63165SOL     OW91391  14.408   0.888   8.319
63165SOL    HW191392  14.441   0.896   8.229
63165SOL    HW291393  14.404   0.977   8.352
63166SOL     OW91394   8.870   7.071   7.930
63166SOL    HW191395   8.834   7.158   7.911
63166SOL    HW291396   8.964   7.080   7.918
63167SOL     OW91397   1.365   1.497   8.188
63167SOL    HW191398   1.424   1.505   8.263
63167SOL    HW291399   1.360   1.585   8.151
63168SOL     OW91400   2.694   4.363   9.314
63168SOL    HW191401   2.785   4.373   9.345
63168SOL    HW291402   2.641   4.406   9.381
63169SOL     OW91403   1.031  12.809  13.456
63169SOL    HW191404   0.983  12.731  13.429
63169SOL    HW291405   1.055  12.792  13.547
63170SOL     OW91406  11.772  11.385   0.693
63170SOL    HW191407  11.757  11.457   0.754
63170SOL    HW291408  11.701  11.324   0.711
63171SOL     OW91409   6.458  12.844  11.827
63171SOL    HW191410   6.544  12.803  11.815
63171SOL    HW291411   6.472  12.936  11.808
63172SOL     OW91412  14.652   0.375   5.238
63172SOL    HW191413  14.679   0.416   5.155
63172SOL    HW291414  14.734   0.355   5.283
63173SOL     OW91415   9.950   6.980   6.813
63173SOL    HW191416   9.976   6.988   6.721
63173SOL    HW291417   9.996   6.902   6.845
63174SOL     OW91418   3.490  10.246   8.334
63174SOL    HW191419   3.583  10.224   8.329
63174SOL    HW291420   3.445  10.162   8.341
63175SOL     OW91421   3.343   5.792  12.092
63175SOL    HW191422   3.370   5.720  12.150
63175SOL    HW291423   3.379   5.769  12.007
63176SOL     OW91424   6.984   0.231   9.710
63176SOL    HW191425   7.073   0.266   9.705
63176SOL    HW291426   6.933   0.300   9.751
63177SOL     OW91427  11.595  12.665   0.994
63177SOL    HW191428  11.533  12.631   0.929
63177SOL    HW291429  11.657  12.593   1.008
63178SOL     OW91430  10.852  14.212   7.221
63178SOL    HW191431  10.772  14.189   7.173
63178SOL    HW291432  10.907  14.257   7.157
63179SOL     OW91433   7.420   7.535  14.105
63179SOL    HW191434   7.396   7.627  14.115
63179SOL    HW291435   7.471   7.532  14.024
63180SOL     OW91436  10.401   4.457   8.428
63180SOL    HW191437  10.453   4.478   8.505
63180SOL    HW291438  10.372   4.543   8.395
63181SOL     OW91439  14.430   9.615   0.574
63181SOL    HW191440  14.370   9.608   0.499
63181SOL    HW291441  14.504   9.665   0.541
63182SOL     OW91442   6.716   5.225  12.360
63182SOL    HW191443   6.641   5.247  12.414
63182SOL    HW291444   6.730   5.303  12.305
63183SOL     OW91445   8.934   4.022   5.262
63183SOL    HW191446   8.938   4.118   5.257
63183SOL    HW291447   9.022   3.994   5.236
63184SOL     OW91448   7.318  12.920   2.952
63184SOL    HW191449   7.366  12.996   2.917
63184SOL    HW291450   7.243  12.959   2.996
63185SOL     OW91451   8.971   4.849   2.682
63185SOL    HW191452   9.008   4.761   2.668
63185SOL    HW291453   9.005   4.901   2.609
63186SOL     OW91454  13.332   6.923  11.164
63186SOL    HW191455  13.392   6.851  11.185
63186SOL    HW291456  13.384   7.002  11.179
63187SOL     OW91457   9.038   6.852  13.404
63187SOL    HW191458   9.119   6.891  13.368
63187SOL    HW291459   9.004   6.919  13.463
63188SOL     OW91460   9.616   9.358  11.609
63188SOL    HW191461   9.527   9.377  11.579
63188SOL    HW291462   9.649   9.293  11.547
63189SOL     OW91463   6.794   1.985   5.564
63189SOL    HW191464   6.736   1.962   5.636
63189SOL    HW291465   6.740   2.037   5.505
63190SOL     OW91466   0.276  12.647   8.804
63190SOL    HW191467   0.281  12.698   8.724
63190SOL    HW291468   0.343  12.685   8.861
63191SOL     OW91469   7.664  13.631   8.826
63191SOL    HW191470   7.738  13.572   8.812
63191SOL    HW291471   7.624  13.640   8.739
63192SOL     OW91472   9.772   5.802   7.562
63192SOL    HW191473   9.772   5.808   7.467
63192SOL    HW291474   9.694   5.852   7.589
63193SOL     OW91475  10.594   8.089   9.710
63193SOL    HW191476  10.510   8.083   9.665
63193SOL    HW291477  10.576   8.143   9.787
63194SOL     OW91478   2.743  14.017  10.177
63194SOL    HW191479   2.832  14.036  10.147
63194SOL    HW291480   2.732  14.071  10.255
63195SOL     OW91481  13.231   2.639  10.903
63195SOL    HW191482  13.297   2.633  10.833
63195SOL    HW291483  13.159   2.585  10.873
63196SOL     OW91484   6.896  12.274   9.361
63196SOL    HW191485   6.937  12.189   9.373
63196SOL    HW291486   6.961  12.326   9.313
63197SOL     OW91487   5.116   8.584   2.156
63197SOL    HW191488   5.132   8.634   2.076
63197SOL    HW291489   5.042   8.527   2.134
63198SOL     OW91490  14.204   2.008  11.267
63198SOL    HW191491  14.129   1.996  11.325
63198SOL    HW291492  14.172   2.067  11.199
63199SOL     OW91493   4.643  12.173  12.234
63199SOL    HW191494   4.608  12.254  12.270
63199SOL    HW291495   4.738  12.185  12.236
63200SOL     OW91496   5.284   0.002   1.838
63200SOL    HW191497   5.303  14.785   1.853
63200SOL    HW291498   5.291   0.013   1.743
63201SOL     OW91499   3.207   0.208   3.398
63201SOL    HW191500   3.200   0.115   3.418
63201SOL    HW291501   3.297   0.231   3.420
63202SOL     OW91502   1.389  13.024  10.848
63202SOL    HW191503   1.385  13.012  10.753
63202SOL    HW291504   1.448  12.955  10.878
63203SOL     OW91505   6.934   1.960   7.979
63203SOL    HW191506   6.928   2.053   8.000
63203SOL    HW291507   7.008   1.954   7.918
63204SOL     OW91508  13.301   6.643   1.287
63204SOL    HW191509  13.362   6.602   1.349
63204SOL    HW291510  13.245   6.697   1.342
63205SOL     OW91511   2.387   8.838  11.693
63205SOL    HW191512   2.381   8.918  11.746
63205SOL    HW291513   2.316   8.782  11.725
63206SOL     OW91514  13.315  14.557   0.980
63206SOL    HW191515  13.312  14.548   1.075
63206SOL    HW291516  13.238  14.609   0.958
63207SOL     OW91517   1.065  14.402   1.578
63207SOL    HW191518   1.060  14.320   1.628
63207SOL    HW291519   1.137  14.450   1.618
63208SOL     OW91520  11.797  13.669   2.237
63208SOL    HW191521  11.857  13.670   2.162
63208SOL    HW291522  11.723  13.614   2.207
63209SOL     OW91523   4.571  11.261   3.921
63209SOL    HW191524   4.493  11.230   3.966
63209SOL    HW291525   4.585  11.198   3.850
63210SOL     OW91526   7.920  11.980   3.271
63210SOL    HW191527   7.854  12.023   3.217
63210SOL    HW291528   7.988  12.045   3.283
63211SOL     OW91529  11.695   1.097   5.124
63211SOL    HW191530  11.650   1.014   5.105
63211SOL    HW291531  11.709   1.136   5.038
63212SOL     OW91532  11.662  10.382  13.308
63212SOL    HW191533  11.647  10.401  13.401
63212SOL    HW291534  11.597  10.315  13.286
63213SOL     OW91535   1.857   1.449   3.058
63213SOL    HW191536   1.938   1.401   3.043
63213SOL    HW291537   1.868   1.532   3.013
63214SOL     OW91538   7.734   4.309  11.258
63214SOL    HW191539   7.772   4.221  11.258
63214SOL    HW291540   7.748   4.341  11.169
63215SOL     OW91541   4.660   6.016   6.063
63215SOL    HW191542   4.674   5.954   5.992
63215SOL    HW291543   4.741   6.067   6.066
63216SOL     OW91544   7.700   1.901  11.814
63216SOL    HW191545   7.705   1.995  11.793
63216SOL    HW291546   7.644   1.897  11.892
63217SOL     OW91547  12.431   1.563   5.069
63217SOL    HW191548  12.448   1.578   4.976
63217SOL    HW291549  12.337   1.546   5.074
63218SOL     OW91550   3.176   0.253   1.836
63218SOL    HW191551   3.268   0.245   1.862
63218SOL    HW291552   3.169   0.199   1.757
63219SOL     OW91553  14.621   1.285   1.354
63219SOL    HW191554  14.620   1.350   1.284
63219SOL    HW291555  14.631   1.336   1.434
63220SOL     OW91556  10.188   3.986   1.457
63220SOL    HW191557  10.273   3.953   1.427
63220SOL    HW291558  10.124   3.933   1.410
63221SOL     OW91559   2.035  11.882   7.499
63221SOL    HW191560   2.060  11.940   7.571
63221SOL    HW291561   1.986  11.938   7.439
63222SOL     OW91562  13.812  10.487   2.698
63222SOL    HW191563  13.899  10.470   2.734
63222SOL    HW291564  13.828  10.543   2.622
63223SOL     OW91565   0.209  13.958   9.966
63223SOL    HW191566   0.144  13.944  10.035
63223SOL    HW291567   0.292  13.966  10.013
63224SOL     OW91568   0.515   6.014  10.537
63224SOL    HW191569   0.593   6.064  10.515
63224SOL    HW291570   0.546   5.947  10.598
63225SOL     OW91571  13.792  13.578   8.814
63225SOL    HW191572  13.757  13.623   8.738
63225SOL    HW291573  13.826  13.495   8.780
63226SOL     OW91574  12.322  14.504   9.794
63226SOL    HW191575  12.337  14.427   9.849
63226SOL    HW291576  12.269  14.472   9.721
63227SOL     OW91577  14.407  10.061   1.156
63227SOL    HW191578  14.375  10.151   1.151
63227SOL    HW291579  14.358  10.023   1.229
63228SOL     OW91580   9.348   2.811  14.691
63228SOL    HW191581   9.442   2.801  14.680
63228SOL    HW291582   9.330   2.903  14.669
63229SOL     OW91583  13.625  12.249  13.018
63229SOL    HW191584  13.602  12.194  12.943
63229SOL    HW291585  13.712  12.282  12.998
63230SOL     OW91586   8.009   1.415   8.059
63230SOL    HW191587   8.104   1.402   8.062
63230SOL    HW291588   7.974   1.347   8.116
63231SOL     OW91589  10.863   7.072  14.838
63231SOL    HW191590  10.896   7.155  14.804
63231SOL    HW291591  10.927   7.007  14.808
63232SOL     OW91592   4.785  10.401   2.732
63232SOL    HW191593   4.845  10.349   2.679
63232SOL    HW291594   4.810  10.381   2.823
63233SOL     OW91595   6.085   7.175   7.539
63233SOL    HW191596   6.106   7.205   7.451
63233SOL    HW291597   6.116   7.245   7.597
63234SOL     OW91598   4.863  13.727   4.520
63234SOL    HW191599   4.778  13.682   4.522
63234SOL    HW291600   4.871  13.758   4.430
63235SOL     OW91601   0.512   7.966  12.676
63235SOL    HW191602   0.504   7.954  12.582
63235SOL    HW291603   0.524   7.877  12.711
63236SOL     OW91604  11.847   4.093   2.388
63236SOL    HW191605  11.795   4.124   2.463
63236SOL    HW291606  11.785   4.044   2.334
63237SOL     OW91607   5.748   1.091   8.672
63237SOL    HW191608   5.675   1.146   8.698
63237SOL    HW291609   5.715   1.002   8.679
63238SOL     OW91610   5.369   1.674  14.464
63238SOL    HW191611   5.357   1.681  14.558
63238SOL    HW291612   5.287   1.707  14.427
63239SOL     OW91613   2.722  10.653   4.147
63239SOL    HW191614   2.749  10.582   4.088
63239SOL    HW291615   2.630  10.669   4.127
63240SOL     OW91616  11.816   3.803   9.822
63240SOL    HW191617  11.787   3.884   9.863
63240SOL    HW291618  11.890   3.829   9.767
63241SOL     OW91619  13.170   3.860   6.979
63241SOL    HW191620  13.139   3.774   7.007
63241SOL    HW291621  13.253   3.871   7.025
63242SOL     OW91622   4.092  12.584   4.373
63242SOL    HW191623   4.048  12.657   4.415
63242SOL    HW291624   4.030  12.553   4.307
63243SOL     OW91625   1.872  12.932   0.565
63243SOL    HW191626   1.904  12.912   0.652
63243SOL    HW291627   1.870  12.847   0.520
63244SOL     OW91628   7.300   7.877  13.271
63244SOL    HW191629   7.328   7.875  13.362
63244SOL    HW291630   7.217   7.829  13.270
63245SOL     OW91631  10.897   0.220  13.712
63245SOL    HW191632  10.838   0.152  13.744
63245SOL    HW291633  10.969   0.221  13.776
63246SOL     OW91634   2.562  11.816   9.837
63246SOL    HW191635   2.517  11.872   9.774
63246SOL    HW291636   2.493  11.764   9.877
63247SOL     OW91637   6.575   4.872  14.020
63247SOL    HW191638   6.610   4.796  13.974
63247SOL    HW291639   6.609   4.862  14.110
63248SOL     OW91640   1.285   9.575  14.126
63248SOL    HW191641   1.318   9.574  14.216
63248SOL    HW291642   1.205   9.628  14.129
63249SOL     OW91643  10.397   5.633   0.906
63249SOL    HW191644  10.313   5.603   0.872
63249SOL    HW291645  10.386   5.632   1.002
63250SOL     OW91646   5.282   5.722  12.073
63250SOL    HW191647   5.273   5.817  12.062
63250SOL    HW291648   5.336   5.713  12.152
63251SOL     OW91649   8.461   2.806  14.674
63251SOL    HW191650   8.522   2.827  14.604
63251SOL    HW291651   8.511   2.751  14.734
63252SOL     OW91652  11.810  14.582   2.595
63252SOL    HW191653  11.724  14.559   2.629
63252SOL    HW291654  11.801  14.674   2.568
63253SOL     OW91655  10.876  12.199   9.051
63253SOL    HW191656  10.937  12.230   8.983
63253SOL    HW291657  10.801  12.165   9.002
63254SOL     OW91658  11.366  11.280  10.768
63254SOL    HW191659  11.457  11.249  10.766
63254SOL    HW291660  11.328  11.250  10.685
63255SOL     OW91661   8.698   6.642   3.549
63255SOL    HW191662   8.651   6.681   3.475
63255SOL    HW291663   8.712   6.715   3.610
63256SOL     OW91664  10.392   4.188  11.415
63256SOL    HW191665  10.313   4.187  11.469
63256SOL    HW291666  10.431   4.102  11.428
63257SOL     OW91667  14.387  10.577   6.565
63257SOL    HW191668  14.341  10.501   6.529
63257SOL    HW291669  14.400  10.635   6.490
63258SOL     OW91670   3.529   2.825   1.621
63258SOL    HW191671   3.440   2.831   1.586
63258SOL    HW291672   3.574   2.900   1.583
63259SOL     OW91673   8.665  10.969   9.842
63259SOL    HW191674   8.621  10.972   9.928
63259SOL    HW291675   8.715  11.051   9.838
63260SOL     OW91676   8.105  14.176   8.985
63260SOL    HW191677   8.076  14.093   9.023
63260SOL    HW291678   8.092  14.166   8.891
63261SOL     OW91679   2.444   8.411   9.875
63261SOL    HW191680   2.494   8.405   9.956
63261SOL    HW291681   2.498   8.367   9.810
63262SOL     OW91682  14.826  13.335   0.021
63262SOL    HW191683  14.774  13.288  14.831
63262SOL    HW291684  14.841  13.271   0.091
63263SOL     OW91685   1.252   7.468   6.121
63263SOL    HW191686   1.190   7.540   6.133
63263SOL    HW291687   1.335   7.512   6.100
63264SOL     OW91688   5.814   5.914   4.766
63264SOL    HW191689   5.826   5.910   4.861
63264SOL    HW291690   5.874   5.849   4.731
63265SOL     OW91691   0.258   9.096   0.288
63265SOL    HW191692   0.200   9.023   0.266
63265SOL    HW291693   0.202   9.160   0.331
63266SOL     OW91694   4.202   4.992  12.190
63266SOL    HW191695   4.124   4.950  12.226
63266SOL    HW291696   4.263   4.996  12.264
63267SOL     OW91697   7.875  12.522   8.838
63267SOL    HW191698   7.801  12.462   8.835
63267SOL    HW291699   7.915  12.517   8.751
63268SOL     OW91700  12.225   2.058  11.341
63268SOL    HW191701  12.258   2.046  11.252
63268SOL    HW291702  12.229   1.971  11.380
63269SOL     OW91703   1.242   8.682   8.028
63269SOL    HW191704   1.334   8.672   8.005
63269SOL    HW291705   1.205   8.735   7.958
63270SOL     OW91706   0.546   1.330   9.414
63270SOL    HW191707   0.554   1.389   9.338
63270SOL    HW291708   0.631   1.287   9.419
63271SOL     OW91709   1.442   9.036   4.784
63271SOL    HW191710   1.353   9.024   4.817
63271SOL    HW291711   1.450   9.130   4.768
63272SOL     OW91712  11.386   7.111   1.401
63272SOL    HW191713  11.364   7.131   1.492
63272SOL    HW291714  11.426   7.191   1.368
63273SOL     OW91715   7.236   7.606  12.356
63273SOL    HW191716   7.278   7.678  12.404
63273SOL    HW291717   7.183   7.561  12.422
63274SOL     OW91718   9.066   0.817   5.961
63274SOL    HW191719   9.127   0.882   5.996
63274SOL    HW291720   9.058   0.752   6.031
63275SOL     OW91721  10.203   3.469   7.213
63275SOL    HW191722  10.110   3.450   7.210
63275SOL    HW291723  10.217   3.534   7.144
63276SOL     OW91724  12.403  13.610   8.645
63276SOL    HW191725  12.335  13.573   8.701
63276SOL    HW291726  12.477  13.623   8.703
63277SOL     OW91727  12.714   3.563  14.383
63277SOL    HW191728  12.623   3.534  14.384
63277SOL    HW291729  12.723   3.618  14.460
63278SOL     OW91730   7.929  12.328   3.198
63278SOL    HW191731   7.834  12.330   3.213
63278SOL    HW291732   7.964  12.395   3.256
63279SOL     OW91733   3.682   9.381   7.956
63279SOL    HW191734   3.677   9.310   8.021
63279SOL    HW291735   3.732   9.343   7.884
63280SOL     OW91736   6.113  12.844  12.350
63280SOL    HW191737   6.208  12.835  12.345
63280SOL    HW291738   6.085  12.859  12.260
63281SOL     OW91739   8.795  12.511  11.849
63281SOL    HW191740   8.740  12.549  11.780
63281SOL    HW291741   8.782  12.417  11.841
63282SOL     OW91742   1.956   4.249  14.419
63282SOL    HW191743   1.992   4.161  14.431
63282SOL    HW291744   1.996   4.281  14.338
63283SOL     OW91745   7.271   0.428   5.868
63283SOL    HW191746   7.178   0.450   5.860
63283SOL    HW291747   7.313   0.477   5.797
63284SOL     OW91748   3.515   2.403   2.613
63284SOL    HW191749   3.531   2.456   2.535
63284SOL    HW291750   3.601   2.365   2.633
63285SOL     OW91751  13.054  13.538   4.818
63285SOL    HW191752  13.006  13.541   4.735
63285SOL    HW291753  13.133  13.590   4.802
63286SOL     OW91754  11.621   5.409   8.633
63286SOL    HW191755  11.646   5.344   8.699
63286SOL    HW291756  11.587   5.357   8.561
63287SOL     OW91757   8.360   2.174  14.651
63287SOL    HW191758   8.301   2.122  14.596
63287SOL    HW291759   8.315   2.258  14.662
63288SOL     OW91760   4.294  12.853   9.281
63288SOL    HW191761   4.274  12.852   9.374
63288SOL    HW291762   4.301  12.946   9.259
63289SOL     OW91763   8.730   1.607  13.121
63289SOL    HW191764   8.738   1.596  13.216
63289SOL    HW291765   8.640   1.635  13.107
63290SOL     OW91766  12.696   6.879  13.570
63290SOL    HW191767  12.620   6.914  13.615
63290SOL    HW291768  12.691   6.784  13.585
63291SOL     OW91769   0.798  13.501  14.171
63291SOL    HW191770   0.742  13.424  14.180
63291SOL    HW291771   0.809  13.534  14.260
63292SOL     OW91772   5.574   4.720   7.853
63292SOL    HW191773   5.551   4.715   7.946
63292SOL    HW291774   5.613   4.635   7.833
63293SOL     OW91775  11.273   5.482   5.578
63293SOL    HW191776  11.205   5.416   5.562
63293SOL    HW291777  11.353   5.431   5.586
63294SOL     OW91778  13.481  13.103   6.761
63294SOL    HW191779  13.518  13.140   6.680
63294SOL    HW291780  13.421  13.036   6.731
63295SOL     OW91781   5.490   0.079   3.991
63295SOL    HW191782   5.410   0.131   4.001
63295SOL    HW291783   5.487   0.045   3.902
63296SOL     OW91784   8.586   3.070   9.542
63296SOL    HW191785   8.533   3.000   9.504
63296SOL    HW291786   8.525   3.141   9.560
63297SOL     OW91787  10.723  11.747   0.309
63297SOL    HW191788  10.658  11.682   0.335
63297SOL    HW291789  10.806  11.699   0.307
63298SOL     OW91790  12.105   4.142   2.362
63298SOL    HW191791  12.019   4.106   2.383
63298SOL    HW291792  12.142   4.166   2.447
63299SOL     OW91793   7.095   1.435  11.767
63299SOL    HW191794   7.189   1.426  11.781
63299SOL    HW291795   7.084   1.427  11.672
63300SOL     OW91796  12.219   4.036   1.097
63300SOL    HW191797  12.255   4.092   1.167
63300SOL    HW291798  12.128   4.020   1.124
63301SOL     OW91799   3.668   2.170   5.265
63301SOL    HW191800   3.626   2.122   5.335
63301SOL    HW291801   3.671   2.109   5.191
63302SOL     OW91802   8.607   3.381   3.131
63302SOL    HW191803   8.552   3.436   3.187
63302SOL    HW291804   8.693   3.422   3.135
63303SOL     OW91805   7.373   9.683   3.017
63303SOL    HW191806   7.450   9.710   3.066
63303SOL    HW291807   7.312   9.651   3.084
63304SOL     OW91808   5.520   6.369   9.750
63304SOL    HW191809   5.486   6.414   9.673
63304SOL    HW291810   5.528   6.438   9.816
63305SOL     OW91811  14.795  12.103   1.292
63305SOL    HW191812  14.830  12.114   1.380
63305SOL    HW291813  14.718  12.047   1.303
63306SOL     OW91814  11.467  11.137   2.291
63306SOL    HW191815  11.426  11.080   2.225
63306SOL    HW291816  11.532  11.082   2.334
63307SOL     OW91817   7.147   9.913   4.231
63307SOL    HW191818   7.236   9.919   4.197
63307SOL    HW291819   7.157   9.916   4.326
63308SOL     OW91820   8.660   0.668  14.133
63308SOL    HW191821   8.732   0.669  14.070
63308SOL    HW291822   8.614   0.585  14.117
63309SOL     OW91823  11.469   8.645   0.613
63309SOL    HW191824  11.463   8.661   0.708
63309SOL    HW291825  11.561   8.660   0.593
63310SOL     OW91826   8.011   8.716  12.855
63310SOL    HW191827   8.039   8.791  12.803
63310SOL    HW291828   7.990   8.753  12.940
63311SOL     OW91829  10.093   5.985   3.670
63311SOL    HW191830  10.090   5.966   3.576
63311SOL    HW291831  10.137   5.910   3.709
63312SOL     OW91832   2.118   4.417  10.995
63312SOL    HW191833   2.040   4.378  11.035
63312SOL    HW291834   2.172   4.343  10.971
63313SOL     OW91835   3.481   4.596  12.170
63313SOL    HW191836   3.569   4.633  12.159
63313SOL    HW291837   3.434   4.622  12.091
63314SOL     OW91838  11.646  11.440   2.230
63314SOL    HW191839  11.594  11.407   2.304
63314SOL    HW291840  11.736  11.418   2.252
63315SOL     OW91841   5.521  10.599   5.790
63315SOL    HW191842   5.616  10.590   5.787
63315SOL    HW291843   5.497  10.636   5.706
63316SOL     OW91844  10.087   9.091  13.743
63316SOL    HW191845   9.996   9.118  13.729
63316SOL    HW291846  10.086   9.046  13.828
63317SOL     OW91847   3.285   2.700   8.871
63317SOL    HW191848   3.194   2.703   8.901
63317SOL    HW291849   3.284   2.745   8.786
63318SOL     OW91850  12.230  13.113  14.591
63318SOL    HW191851  12.268  13.026  14.578
63318SOL    HW291852  12.157  13.117  14.529
63319SOL     OW91853  11.610  11.438   3.047
63319SOL    HW191854  11.668  11.436   3.123
63319SOL    HW291855  11.578  11.348   3.040
63320SOL     OW91856  11.119   4.957   6.756
63320SOL    HW191857  11.087   4.871   6.729
63320SOL    HW291858  11.212   4.957   6.731
63321SOL     OW91859   4.204   2.796   9.274
63321SOL    HW191860   4.178   2.720   9.327
63321SOL    HW291861   4.213   2.762   9.185
63322SOL     OW91862  12.434  12.031  12.287
63322SOL    HW191863  12.502  12.018  12.353
63322SOL    HW291864  12.466  11.984  12.210
63323SOL     OW91865   4.878  13.721  13.939
63323SOL    HW191866   4.807  13.719  14.003
63323SOL    HW291867   4.894  13.814  13.924
63324SOL     OW91868  11.917   8.971   2.874
63324SOL    HW191869  11.925   8.880   2.847
63324SOL    HW291870  11.823   8.989   2.869
63325SOL     OW91871  11.987  14.641  13.625
63325SOL    HW191872  11.935  14.641  13.545
63325SOL    HW291873  12.018  14.551  13.634
63326SOL     OW91874  12.439  10.782   7.872
63326SOL    HW191875  12.389  10.796   7.791
63326SOL    HW291876  12.373  10.766   7.939
63327SOL     OW91877   9.919   4.538  11.729
63327SOL    HW191878  10.008   4.538  11.693
63327SOL    HW291879   9.903   4.629  11.754
63328SOL     OW91880   1.953  11.376   2.522
63328SOL    HW191881   1.863  11.361   2.552
63328SOL    HW291882   1.957  11.470   2.506
63329SOL     OW91883  11.307   9.185  12.092
63329SOL    HW191884  11.261   9.190  12.175
63329SOL    HW291885  11.369   9.113  12.102
63330SOL     OW91886  10.999   7.929   4.721
63330SOL    HW191887  10.985   7.922   4.627
63330SOL    HW291888  11.094   7.932   4.731
63331SOL     OW91889   9.205   6.905  10.390
63331SOL    HW191890   9.275   6.908  10.456
63331SOL    HW291891   9.251   6.917  10.307
63332SOL     OW91892  10.409   6.739   1.051
63332SOL    HW191893  10.353   6.808   1.015
63332SOL    HW291894  10.354   6.661   1.051
63333SOL     OW91895  13.719  11.043   0.889
63333SOL    HW191896  13.775  11.114   0.921
63333SOL    HW291897  13.634  11.060   0.928
63334SOL     OW91898   7.254  10.508   5.491
63334SOL    HW191899   7.165  10.476   5.478
63334SOL    HW291900   7.310  10.443   5.449
63335SOL     OW91901   7.451   6.081   0.910
63335SOL    HW191902   7.411   6.161   0.946
63335SOL    HW291903   7.381   6.041   0.858
63336SOL     OW91904  14.592   5.885   0.796
63336SOL    HW191905  14.643   5.818   0.751
63336SOL    HW291906  14.508   5.886   0.750
63337SOL     OW91907  14.515   2.867   2.557
63337SOL    HW191908  14.602   2.875   2.595
63337SOL    HW291909  14.496   2.954   2.522
63338SOL     OW91910   7.415   8.822   4.043
63338SOL    HW191911   7.470   8.758   3.998
63338SOL    HW291912   7.367   8.770   4.108
63339SOL     OW91913   4.304  10.475   3.580
63339SOL    HW191914   4.332  10.384   3.575
63339SOL    HW291915   4.231  10.481   3.518
63340SOL     OW91916  10.137  12.808   5.392
63340SOL    HW191917  10.136  12.824   5.298
63340SOL    HW291918  10.208  12.745   5.405
63341SOL     OW91919  10.458   0.437   2.173
63341SOL    HW191920  10.476   0.443   2.267
63341SOL    HW291921  10.363   0.430   2.168
63342SOL     OW91922  13.763  13.953  10.366
63342SOL    HW191923  13.776  14.036  10.412
63342SOL    HW291924  13.750  13.889  10.435
63343SOL     OW91925   2.358   6.603   5.527
63343SOL    HW191926   2.410   6.659   5.470
63343SOL    HW291927   2.365   6.516   5.488
63344SOL     OW91928  12.158   7.638   5.682
63344SOL    HW191929  12.222   7.568   5.695
63344SOL    HW291930  12.183   7.677   5.598
63345SOL     OW91931  12.697   5.521   2.719
63345SOL    HW191932  12.783   5.559   2.701
63345SOL    HW291933  12.714   5.428   2.732
63346SOL     OW91934   9.912   8.036   8.945
63346SOL    HW191935   9.997   8.041   8.988
63346SOL    HW291936   9.892   7.943   8.941
63347SOL     OW91937   1.965   0.665   6.014
63347SOL    HW191938   2.003   0.651   5.927
63347SOL    HW291939   2.014   0.608   6.072
63348SOL     OW91940   9.800  14.255   9.833
63348SOL    HW191941   9.799  14.172   9.882
63348SOL    HW291942   9.772  14.320   9.897
63349SOL     OW91943  10.296   6.296   1.593
63349SOL    HW191944  10.336   6.302   1.680
63349SOL    HW291945  10.286   6.387   1.566
63350SOL     OW91946  12.128   7.423  13.839
63350SOL    HW191947  12.186   7.369  13.894
63350SOL    HW291948  12.145   7.513  13.868
63351SOL     OW91949  13.700   7.387  11.482
63351SOL    HW191950  13.678   7.386  11.389
63351SOL    HW291951  13.643   7.321  11.521
63352SOL     OW91952   3.380   0.240  13.767
63352SOL    HW191953   3.349   0.289  13.843
63352SOL    HW291954   3.308   0.245  13.704
63353SOL     OW91955   7.469   6.622  10.658
63353SOL    HW191956   7.400   6.590  10.601
63353SOL    HW291957   7.472   6.716  10.642
63354SOL     OW91958  13.248   9.315   7.875
63354SOL    HW191959  13.241   9.368   7.796
63354SOL    HW291960  13.302   9.367   7.934
63355SOL     OW91961   0.590  12.257   5.500
63355SOL    HW191962   0.631  12.184   5.454
63355SOL    HW291963   0.528  12.216   5.560
63356SOL     OW91964   7.009  11.721   0.126
63356SOL    HW191965   7.050  11.661   0.065
63356SOL    HW291966   7.008  11.805   0.080
63357SOL     OW91967   0.428   9.199  11.918
63357SOL    HW191968   0.460   9.244  11.996
63357SOL    HW291969   0.500   9.141  11.893
63358SOL     OW91970  14.465   9.331   5.983
63358SOL    HW191971  14.381   9.301   5.947
63358SOL    HW291972  14.489   9.264   6.047
63359SOL     OW91973   5.717   4.725  12.658
63359SOL    HW191974   5.791   4.717  12.598
63359SOL    HW291975   5.727   4.651  12.718
63360SOL     OW91976  10.592  14.607  12.952
63360SOL    HW191977  10.662  14.666  12.980
63360SOL    HW291978  10.546  14.656  12.884
63361SOL     OW91979   4.355  10.494   9.299
63361SOL    HW191980   4.393  10.566   9.350
63361SOL    HW291981   4.425  10.429   9.294
63362SOL     OW91982   7.078   2.475  12.748
63362SOL    HW191983   7.003   2.433  12.790
63362SOL    HW291984   7.055   2.568  12.747
63363SOL     OW91985   0.831   8.489  10.427
63363SOL    HW191986   0.792   8.459  10.345
63363SOL    HW291987   0.810   8.419  10.490
63364SOL     OW91988   5.886  13.153  13.482
63364SOL    HW191989   5.805  13.164  13.432
63364SOL    HW291990   5.943  13.224  13.454
63365SOL     OW91991   3.932  10.130   4.587
63365SOL    HW191992   3.876  10.098   4.658
63365SOL    HW291993   4.004  10.174   4.632
63366SOL     OW91994  10.467  11.936  14.598
63366SOL    HW191995  10.548  11.938  14.547
63366SOL    HW291996  10.464  11.848  14.636
63367SOL     OW91997   3.364   8.861   9.103
63367SOL    HW191998   3.345   8.940   9.052
63367SOL    HW291999   3.314   8.873   9.184
63368SOL     OW92000  12.135   7.779  14.481
63368SOL    HW192001  12.064   7.841  14.500
63368SOL    HW292002  12.203   7.832  14.439
63369SOL     OW92003   0.769   3.739   8.528
63369SOL    HW192004   0.850   3.783   8.556
63369SOL    HW292005   0.700   3.803   8.547
63370SOL     OW92006   8.586  10.478   3.923
63370SOL    HW192007   8.639  10.504   3.848
63370SOL    HW292008   8.643  10.491   3.999
63371SOL     OW92009   4.242   6.624   1.889
63371SOL    HW192010   4.260   6.705   1.841
63371SOL    HW292011   4.250   6.648   1.981
63372SOL     OW92012   1.246   9.051  14.054
63372SOL    HW192013   1.241   9.063  14.149
63372SOL    HW292014   1.274   9.135  14.020
63373SOL     OW92015   7.507  10.678   5.414
63373SOL    HW192016   7.503  10.681   5.509
63373SOL    HW292017   7.509  10.770   5.387
63374SOL     OW92018   1.845   9.284   8.554
63374SOL    HW192019   1.918   9.271   8.493
63374SOL    HW292020   1.886   9.286   8.640
63375SOL     OW92021  10.364  10.661   8.222
63375SOL    HW192022  10.337  10.724   8.288
63375SOL    HW292023  10.282  10.627   8.186
63376SOL     OW92024  10.046  11.472   5.766
63376SOL    HW192025   9.955  11.442   5.763
63376SOL    HW292026  10.092  11.406   5.817
63377SOL     OW92027   4.774   6.832   0.573
63377SOL    HW192028   4.701   6.770   0.576
63377SOL    HW292029   4.852   6.778   0.589
63378SOL     OW92030  10.765  14.280   1.184
63378SOL    HW192031  10.827  14.215   1.151
63378SOL    HW292032  10.782  14.358   1.132
63379SOL     OW92033   0.541  11.134  11.454
63379SOL    HW192034   0.586  11.113  11.372
63379SOL    HW292035   0.518  11.049  11.491
63380SOL     OW92036   4.433   0.038   8.876
63380SOL    HW192037   4.408   0.104   8.941
63380SOL    HW292038   4.528   0.033   8.883
63381SOL     OW92039   5.884   6.066   9.189
63381SOL    HW192040   5.826   6.092   9.117
63381SOL    HW292041   5.824   6.037   9.258
63382SOL     OW92042   2.466   8.821   7.901
63382SOL    HW192043   2.514   8.769   7.966
63382SOL    HW292044   2.456   8.763   7.826
63383SOL     OW92045   7.242   7.088   5.558
63383SOL    HW192046   7.167   7.075   5.616
63383SOL    HW292047   7.203   7.104   5.472
63384SOL     OW92048   4.146   5.459  13.142
63384SOL    HW192049   4.190   5.414  13.214
63384SOL    HW292050   4.053   5.444  13.159
63385SOL     OW92051   8.406   1.971   7.377
63385SOL    HW192052   8.337   1.943   7.316
63385SOL    HW292053   8.482   1.988   7.321
63386SOL     OW92054   4.898   3.034   6.357
63386SOL    HW192055   4.967   3.097   6.378
63386SOL    HW292056   4.817   3.086   6.361
63387SOL     OW92057   5.064   7.425   7.780
63387SOL    HW192058   5.035   7.397   7.867
63387SOL    HW292059   4.985   7.462   7.739
63388SOL     OW92060   8.797  10.867   5.777
63388SOL    HW192061   8.710  10.833   5.800
63388SOL    HW292062   8.817  10.827   5.692
63389SOL     OW92063  10.774  12.303   9.982
63389SOL    HW192064  10.692  12.323  10.028
63389SOL    HW292065  10.835  12.371  10.013
63390SOL     OW92066  10.258   5.281   0.945
63390SOL    HW192067  10.262   5.185   0.935
63390SOL    HW292068  10.216   5.294   1.030
63391SOL     OW92069  11.393   2.716   8.550
63391SOL    HW192070  11.438   2.755   8.625
63391SOL    HW292071  11.438   2.633   8.535
63392SOL     OW92072   1.812   0.891   3.306
63392SOL    HW192073   1.872   0.964   3.316
63392SOL    HW292074   1.785   0.894   3.214
63393SOL     OW92075   6.982   5.229   0.272
63393SOL    HW192076   6.941   5.177   0.340
63393SOL    HW292077   7.028   5.299   0.318
63394SOL     OW92078   1.271   1.706   2.035
63394SOL    HW192079   1.340   1.727   2.098
63394SOL    HW292080   1.294   1.618   2.004
63395SOL     OW92081   0.312   3.532   0.693
63395SOL    HW192082   0.301   3.522   0.788
63395SOL    HW292083   0.381   3.469   0.670
63396SOL     OW92084   9.970   3.674   8.916
63396SOL    HW192085  10.038   3.607   8.906
63396SOL    HW292086   9.945   3.670   9.009
63397SOL     OW92087   2.283  11.348   5.051
63397SOL    HW192088   2.207  11.322   5.103
63397SOL    HW292089   2.354  11.356   5.115
63398SOL     OW92090   6.324   1.724  10.852
63398SOL    HW192091   6.247   1.780  10.850
63398SOL    HW292092   6.375   1.756  10.927
63399SOL     OW92093  13.560  12.535   4.375
63399SOL    HW192094  13.556  12.451   4.330
63399SOL    HW292095  13.469  12.564   4.379
63400SOL     OW92096   0.083   6.830  11.201
63400SOL    HW192097   0.033   6.768  11.148
63400SOL    HW292098   0.047   6.915  11.178
63401SOL     OW92099   4.757  10.724  12.819
63401SOL    HW192100   4.724  10.741  12.908
63401SOL    HW292101   4.847  10.757  12.821
63402SOL     OW92102   2.569   7.199   2.268
63402SOL    HW192103   2.652   7.242   2.250
63402SOL    HW292104   2.553   7.146   2.190
63403SOL     OW92105   9.040   3.215   7.293
63403SOL    HW192106   9.003   3.266   7.221
63403SOL    HW292107   9.016   3.125   7.273
63404SOL     OW92108   4.928   7.601   5.767
63404SOL    HW192109   4.859   7.659   5.735
63404SOL    HW292110   4.938   7.536   5.697
63405SOL     OW92111   1.281   4.028  14.029
63405SOL    HW192112   1.368   4.015  13.991
63405SOL    HW292113   1.225   4.050  13.954
63406SOL     OW92114   3.111  10.146   3.977
63406SOL    HW192115   3.205  10.138   3.989
63406SOL    HW292116   3.073  10.103   4.054
63407SOL     OW92117  13.983   9.215  12.438
63407SOL    HW192118  14.043   9.146  12.411
63407SOL    HW292119  14.032   9.296  12.427
63408SOL     OW92120   0.163   1.593   5.272
63408SOL    HW192121   0.218   1.555   5.341
63408SOL    HW292122   0.141   1.518   5.216
63409SOL     OW92123   2.892   5.892   3.781
63409SOL    HW192124   2.917   5.956   3.848
63409SOL    HW292125   2.856   5.818   3.831
63410SOL     OW92126   5.458  12.913  13.936
63410SOL    HW192127   5.439  12.984  13.996
63410SOL    HW292128   5.551  12.895  13.948
63411SOL     OW92129  12.745   8.028   4.985
63411SOL    HW192130  12.791   7.959   5.033
63411SOL    HW292131  12.774   8.017   4.895
63412SOL     OW92132   9.738  12.784   6.307
63412SOL    HW192133   9.667  12.733   6.345
63412SOL    HW292134   9.811  12.723   6.300
63413SOL     OW92135   6.250   0.673   2.902
63413SOL    HW192136   6.198   0.596   2.877
63413SOL    HW292137   6.322   0.638   2.953
63414SOL     OW92138   3.764  13.524  11.797
63414SOL    HW192139   3.708  13.523  11.719
63414SOL    HW292140   3.831  13.589  11.778
63415SOL     OW92141  11.785  12.436   1.767
63415SOL    HW192142  11.730  12.372   1.721
63415SOL    HW292143  11.732  12.462   1.843
63416SOL     OW92144   7.474  10.481  13.232
63416SOL    HW192145   7.537  10.412  13.253
63416SOL    HW292146   7.492  10.550  13.296
63417SOL     OW92147  11.409   1.048   6.159
63417SOL    HW192148  11.324   1.013   6.131
63417SOL    HW292149  11.446   1.087   6.080
63418SOL     OW92150  11.089  13.627  11.180
63418SOL    HW192151  11.008  13.589  11.213
63418SOL    HW292152  11.061  13.681  11.106
63419SOL     OW92153   9.617   9.405   4.107
63419SOL    HW192154   9.540   9.354   4.129
63419SOL    HW292155   9.591   9.458   4.032
63420SOL     OW92156   3.320  12.474  14.118
63420SOL    HW192157   3.345  12.488  14.026
63420SOL    HW292158   3.395  12.431  14.157
63421SOL     OW92159   8.824  10.939  13.898
63421SOL    HW192160   8.789  11.005  13.959
63421SOL    HW292161   8.901  10.904  13.943
63422SOL     OW92162  12.038   8.680   3.011
63422SOL    HW192163  12.103   8.683   3.082
63422SOL    HW292164  12.058   8.599   2.964
63423SOL     OW92165   0.168   1.142   0.198
63423SOL    HW192166   0.208   1.187   0.273
63423SOL    HW292167   0.101   1.086   0.237
63424SOL     OW92168   2.836  11.539  10.411
63424SOL    HW192169   2.743  11.522  10.428
63424SOL    HW292170   2.851  11.627  10.446
63425SOL     OW92171  12.665  12.225   0.662
63425SOL    HW192172  12.753  12.250   0.632
63425SOL    HW292173  12.649  12.280   0.738
63426SOL     OW92174   2.158   4.339   6.060
63426SOL    HW192175   2.182   4.406   5.995
63426SOL    HW292176   2.072   4.309   6.032
63427SOL     OW92177  12.934  13.072  12.224
63427SOL    HW192178  12.903  13.136  12.289
63427SOL    HW292179  12.853  13.032  12.191
63428SOL     OW92180   9.428   3.885  13.997
63428SOL    HW192181   9.473   3.871  13.914
63428SOL    HW292182   9.420   3.980  14.005
63429SOL     OW92183  10.340   4.362   6.828
63429SOL    HW192184  10.269   4.425   6.824
63429SOL    HW292185  10.333   4.323   6.916
63430SOL     OW92186  12.772   6.656  12.087
63430SOL    HW192187  12.678   6.661  12.105
63430SOL    HW292188  12.812   6.712  12.154
63431SOL     OW92189  14.516   1.606   8.301
63431SOL    HW192190  14.491   1.557   8.223
63431SOL    HW292191  14.467   1.688   8.294
63432SOL     OW92192   3.873   7.657   1.810
63432SOL    HW192193   3.957   7.684   1.773
63432SOL    HW292194   3.813   7.728   1.789
63433SOL     OW92195   2.569  10.651   8.938
63433SOL    HW192196   2.627  10.577   8.954
63433SOL    HW292197   2.580  10.672   8.845
63434SOL     OW92198   0.415   9.293  14.204
63434SOL    HW192199   0.348   9.228  14.223
63434SOL    HW292200   0.412   9.354  14.278
63435SOL     OW92201   2.633   6.423   4.618
63435SOL    HW192202   2.547   6.386   4.637
63435SOL    HW292203   2.624   6.517   4.635
63436SOL     OW92204   0.306   7.895  11.651
63436SOL    HW192205   0.280   7.821  11.595
63436SOL    HW292206   0.395   7.874  11.679
63437SOL     OW92207   7.862  10.835   6.742
63437SOL    HW192208   7.901  10.869   6.823
63437SOL    HW292209   7.783  10.789   6.772
63438SOL     OW92210   1.057  12.954   1.260
63438SOL    HW192211   0.975  12.919   1.295
63438SOL    HW292212   1.052  13.048   1.276
63439SOL     OW92213  14.136  13.038   7.500
63439SOL    HW192214  14.049  12.999   7.511
63439SOL    HW292215  14.133  13.120   7.549
63440SOL     OW92216   4.463   9.450  12.617
63440SOL    HW192217   4.479   9.544  12.626
63440SOL    HW292218   4.379   9.444  12.572
63441SOL     OW92219   4.922  11.742   8.893
63441SOL    HW192220   4.878  11.684   8.831
63441SOL    HW292221   5.015  11.723   8.881
63442SOL     OW92222   4.052   0.076   5.759
63442SOL    HW192223   4.019   0.129   5.687
63442SOL    HW292224   3.986   0.084   5.828
63443SOL     OW92225  14.236  11.388   5.183
63443SOL    HW192226  14.250  11.318   5.246
63443SOL    HW292227  14.195  11.345   5.108
63444SOL     OW92228   3.995   8.573   0.170
63444SOL    HW192229   4.087   8.596   0.153
63444SOL    HW292230   3.993   8.478   0.161
63445SOL     OW92231   9.834  10.844   6.244
63445SOL    HW192232   9.916  10.861   6.290
63445SOL    HW292233   9.783  10.792   6.306
63446SOL     OW92234   6.769  11.608   4.645
63446SOL    HW192235   6.827  11.682   4.627
63446SOL    HW292236   6.681  11.647   4.648
63447SOL     OW92237   4.215   9.782  12.924
63447SOL    HW192238   4.181   9.845  12.987
63447SOL    HW292239   4.240   9.834  12.848
63448SOL     OW92240  11.886   6.720   7.705
63448SOL    HW192241  11.979   6.744   7.707
63448SOL    HW292242  11.855   6.736   7.794
63449SOL     OW92243   9.820  13.088   1.379
63449SOL    HW192244   9.887  13.082   1.311
63449SOL    HW292245   9.809  13.182   1.394
63450SOL     OW92246   4.566   2.869   6.334
63450SOL    HW192247   4.547   2.891   6.426
63450SOL    HW292248   4.508   2.796   6.314
63451SOL     OW92249   0.899  10.329   4.024
63451SOL    HW192250   0.814  10.287   4.037
63451SOL    HW292251   0.900  10.401   4.088
63452SOL     OW92252   8.227  14.409  13.600
63452SOL    HW192253   8.208  14.317  13.583
63452SOL    HW292254   8.308  14.427  13.553
63453SOL     OW92255   4.516  14.493  12.024
63453SOL    HW192256   4.475  14.415  12.062
63453SOL    HW292257   4.486  14.565  12.080
63454SOL     OW92258   0.864   4.628   7.418
63454SOL    HW192259   0.893   4.574   7.345
63454SOL    HW292260   0.812   4.568   7.472
63455SOL     OW92261  10.401   2.801   1.639
63455SOL    HW192262  10.435   2.778   1.725
63455SOL    HW292263  10.456   2.752   1.577
63456SOL     OW92264   3.068   8.569   6.763
63456SOL    HW192265   3.001   8.597   6.826
63456SOL    HW292266   3.117   8.502   6.810
63457SOL     OW92267   8.747   9.583   5.392
63457SOL    HW192268   8.833   9.624   5.403
63457SOL    HW292269   8.692   9.650   5.353
63458SOL     OW92270  14.024  10.665   3.098
63458SOL    HW192271  13.981  10.687   3.181
63458SOL    HW292272  14.008  10.740   3.041
63459SOL     OW92273  14.278   0.601   8.580
63459SOL    HW192274  14.211   0.626   8.517
63459SOL    HW292275  14.347   0.560   8.528
63460SOL     OW92276  11.321   6.147  11.812
63460SOL    HW192277  11.238   6.179  11.846
63460SOL    HW292278  11.297   6.079  11.749
63461SOL     OW92279  12.897   6.704  12.944
63461SOL    HW192280  12.891   6.652  13.024
63461SOL    HW292281  12.810   6.745  12.936
63462SOL     OW92282  14.740   8.780  11.212
63462SOL    HW192283  14.684   8.820  11.278
63462SOL    HW292284  14.680   8.745  11.147
63463SOL     OW92285   4.995   7.509   2.225
63463SOL    HW192286   5.075   7.542   2.267
63463SOL    HW292287   5.024   7.436   2.171
63464SOL     OW92288  10.622   9.852   5.723
63464SOL    HW192289  10.712   9.874   5.744
63464SOL    HW292290  10.626   9.819   5.633
63465SOL     OW92291   3.315   5.097   6.218
63465SOL    HW192292   3.310   5.158   6.291
63465SOL    HW292293   3.237   5.041   6.227
63466SOL     OW92294  13.850  10.467   3.826
63466SOL    HW192295  13.770  10.435   3.785
63466SOL    HW292296  13.904  10.498   3.754
63467SOL     OW92297   1.762   7.031   4.504
63467SOL    HW192298   1.852   7.049   4.477
63467SOL    HW292299   1.746   6.941   4.475
63468SOL     OW92300   9.477   3.194   4.811
63468SOL    HW192301   9.542   3.131   4.842
63468SOL    HW292302   9.472   3.179   4.717
63469SOL     OW92303  13.345  13.985   2.530
63469SOL    HW192304  13.429  13.939   2.528
63469SOL    HW292305  13.355  14.051   2.599
63470SOL     OW92306   9.584   7.313   7.676
63470SOL    HW192307   9.675   7.300   7.702
63470SOL    HW292308   9.552   7.225   7.657
63471SOL     OW92309  12.421   7.683  11.057
63471SOL    HW192310  12.372   7.750  11.010
63471SOL    HW292311  12.388   7.687  11.147
63472SOL     OW92312   2.139   3.190   7.354
63472SOL    HW192313   2.123   3.199   7.260
63472SOL    HW292314   2.231   3.166   7.361
63473SOL     OW92315  12.616   1.394   4.203
63473SOL    HW192316  12.638   1.485   4.183
63473SOL    HW292317  12.656   1.379   4.289
63474SOL     OW92318   0.169  10.856   9.164
63474SOL    HW192319   0.251  10.878   9.208
63474SOL    HW292320   0.103  10.909   9.208
63475SOL     OW92321   2.155   2.114  11.922
63475SOL    HW192322   2.108   2.036  11.895
63475SOL    HW292323   2.087   2.176  11.947
63476SOL     OW92324  14.590   2.581  14.384
63476SOL    HW192325  14.509   2.543  14.417
63476SOL    HW292326  14.659   2.523  14.416
63477SOL     OW92327  13.882   7.504   8.083
63477SOL    HW192328  13.855   7.559   8.009
63477SOL    HW292329  13.859   7.556   8.161
63478SOL     OW92330   2.982   4.449   3.375
63478SOL    HW192331   2.906   4.487   3.331
63478SOL    HW292332   3.057   4.479   3.324
63479SOL     OW92333   6.745   0.957  12.913
63479SOL    HW192334   6.723   0.866  12.891
63479SOL    HW292335   6.785   0.951  13.000
63480SOL     OW92336  11.661  11.519   6.863
63480SOL    HW192337  11.689  11.609   6.879
63480SOL    HW292338  11.716  11.466   6.921
63481SOL     OW92339  12.895   7.544   3.700
63481SOL    HW192340  12.898   7.519   3.607
63481SOL    HW292341  12.822   7.605   3.705
63482SOL     OW92342  13.870   0.897   5.548
63482SOL    HW192343  13.829   0.964   5.603
63482SOL    HW292344  13.839   0.915   5.460
63483SOL     OW92345   8.500   4.350   2.465
63483SOL    HW192346   8.563   4.285   2.434
63483SOL    HW292347   8.500   4.417   2.396
63484SOL     OW92348  11.218   2.392   3.073
63484SOL    HW192349  11.140   2.445   3.058
63484SOL    HW292350  11.184   2.304   3.092
63485SOL     OW92351   8.049   9.611   6.848
63485SOL    HW192352   7.955   9.628   6.847
63485SOL    HW292353   8.087   9.687   6.804
63486SOL     OW92354   5.344  13.450   7.766
63486SOL    HW192355   5.362  13.384   7.834
63486SOL    HW292356   5.280  13.408   7.709
63487SOL     OW92357  10.021   5.243   7.301
63487SOL    HW192358   9.979   5.218   7.218
63487SOL    HW292359  10.016   5.339   7.303
63488SOL     OW92360   3.567   5.561   4.931
63488SOL    HW192361   3.650   5.566   4.979
63488SOL    HW292362   3.562   5.471   4.899
63489SOL     OW92363   2.235   6.951   5.448
63489SOL    HW192364   2.197   7.038   5.435
63489SOL    HW292365   2.278   6.932   5.364
63490SOL     OW92366   0.018   7.590  13.954
63490SOL    HW192367   0.040   7.683  13.941
63490SOL    HW292368  14.830   7.571  13.885
63491SOL     OW92369   3.929   0.353  12.789
63491SOL    HW192370   3.910   0.357  12.883
63491SOL    HW292371   3.843   0.338  12.748
63492SOL     OW92372  13.512  13.184  10.079
63492SOL    HW192373  13.569  13.108  10.072
63492SOL    HW292374  13.491  13.189  10.172
63493SOL     OW92375  11.247   2.722  13.475
63493SOL    HW192376  11.295   2.687  13.400
63493SOL    HW292377  11.180   2.778  13.436
63494SOL     OW92378  14.722   5.094   8.972
63494SOL    HW192379  14.815   5.106   8.953
63494SOL    HW292380  14.684   5.063   8.889
63495SOL     OW92381   4.316  12.844  14.764
63495SOL    HW192382   4.248  12.777  14.761
63495SOL    HW292383   4.362  12.835  14.680
63496SOL     OW92384   5.210   3.433   3.202
63496SOL    HW192385   5.185   3.513   3.248
63496SOL    HW292386   5.127   3.386   3.189
63497SOL     OW92387   7.665  12.323   1.111
63497SOL    HW192388   7.700  12.409   1.085
63497SOL    HW292389   7.729  12.289   1.174
63498SOL     OW92390  10.874   7.384  11.582
63498SOL    HW192391  10.882   7.292  11.608
63498SOL    HW292392  10.829   7.381  11.497
63499SOL     OW92393   7.194   4.138   9.712
63499SOL    HW192394   7.282   4.129   9.750
63499SOL    HW292395   7.205   4.112   9.620
63500SOL     OW92396  12.281  13.922  13.252
63500SOL    HW192397  12.239  13.908  13.168
63500SOL    HW292398  12.244  13.855  13.309
63501SOL     OW92399   3.814   0.533   7.969
63501SOL    HW192400   3.788   0.613   7.924
63501SOL    HW292401   3.820   0.558   8.061
63502SOL     OW92402   9.919   7.366   2.243
63502SOL    HW192403   9.857   7.384   2.315
63502SOL    HW292404   9.903   7.274   2.221
63503SOL     OW92405  10.337   1.401  14.844
63503SOL    HW192406  10.368   1.436  14.760
63503SOL    HW292407  10.269   1.462  14.871
63504SOL     OW92408   3.728  11.821   1.747
63504SOL    HW192409   3.687  11.905   1.770
63504SOL    HW292410   3.799  11.811   1.811
63505SOL     OW92411   7.238   2.570   3.646
63505SOL    HW192412   7.153   2.537   3.677
63505SOL    HW292413   7.303   2.520   3.695
63506SOL     OW92414  13.964  10.794  14.180
63506SOL    HW192415  13.870  10.798  14.195
63506SOL    HW292416  13.972  10.755  14.092
63507SOL     OW92417   2.590  12.781  12.847
63507SOL    HW192418   2.562  12.690  12.860
63507SOL    HW292419   2.610  12.787  12.754
63508SOL     OW92420   7.255   8.102   5.523
63508SOL    HW192421   7.304   8.114   5.441
63508SOL    HW292422   7.280   8.178   5.577
63509SOL     OW92423   5.595  13.069   0.313
63509SOL    HW192424   5.551  13.025   0.386
63509SOL    HW292425   5.555  13.155   0.309
63510SOL     OW92426  12.747   9.452  13.111
63510SOL    HW192427  12.716   9.543  13.109
63510SOL    HW292428  12.843   9.460  13.114
63511SOL     OW92429   4.416   3.309   6.089
63511SOL    HW192430   4.378   3.324   6.176
63511SOL    HW292431   4.502   3.350   6.093
63512SOL     OW92432   6.519  14.399  11.085
63512SOL    HW192433   6.432  14.381  11.120
63512SOL    HW292434   6.524  14.347  11.005
63513SOL     OW92435   2.642   1.305  10.247
63513SOL    HW192436   2.663   1.383  10.298
63513SOL    HW292437   2.589   1.251  10.306
63514SOL     OW92438   2.616   2.314  14.520
63514SOL    HW192439   2.701   2.286  14.485
63514SOL    HW292440   2.637   2.384  14.582
63515SOL     OW92441  12.873   4.897   8.588
63515SOL    HW192442  12.908   4.809   8.586
63515SOL    HW292443  12.949   4.954   8.575
63516SOL     OW92444  11.978  13.490   4.409
63516SOL    HW192445  11.955  13.579   4.438
63516SOL    HW292446  12.067  13.498   4.376
63517SOL     OW92447   4.310  14.497  14.039
63517SOL    HW192448   4.317  14.587  14.073
63517SOL    HW292449   4.387  14.488  13.983
63518SOL     OW92450   2.497   2.327   7.449
63518SOL    HW192451   2.451   2.273   7.385
63518SOL    HW292452   2.450   2.411   7.448
63519SOL     OW92453   6.145   8.737   0.599
63519SOL    HW192454   6.165   8.799   0.668
63519SOL    HW292455   6.080   8.678   0.638
63520SOL     OW92456   7.323   4.423  13.505
63520SOL    HW192457   7.315   4.427  13.600
63520SOL    HW292458   7.403   4.472  13.485
63521SOL     OW92459   7.611   2.375  13.205
63521SOL    HW192460   7.519   2.360  13.228
63521SOL    HW292461   7.627   2.317  13.131
63522SOL     OW92462  10.888  13.282   5.638
63522SOL    HW192463  10.801  13.243   5.626
63522SOL    HW292464  10.879  13.337   5.715
63523SOL     OW92465   0.128   5.582   9.660
63523SOL    HW192466   0.105   5.526   9.585
63523SOL    HW292467   0.052   5.576   9.718
63524SOL     OW92468   8.068  12.984   6.402
63524SOL    HW192469   8.020  12.984   6.320
63524SOL    HW292470   8.005  13.014   6.467
63525SOL     OW92471   2.272   9.607   6.877
63525SOL    HW192472   2.177   9.606   6.889
63525SOL    HW292473   2.305   9.661   6.949
63526SOL     OW92474   2.315   1.522   6.876
63526SOL    HW192475   2.232   1.568   6.862
63526SOL    HW292476   2.349   1.557   6.959
63527SOL     OW92477   2.020  11.502   0.366
63527SOL    HW192478   2.006  11.557   0.289
63527SOL    HW292479   2.022  11.413   0.332
63528SOL     OW92480   2.527   9.364  12.824
63528SOL    HW192481   2.614   9.399  12.807
63528SOL    HW292482   2.470   9.441  12.824
63529SOL     OW92483   0.764  14.041   1.685
63529SOL    HW192484   0.713  13.960   1.679
63529SOL    HW292485   0.698  14.111   1.693
63530SOL     OW92486   9.828   2.679  13.838
63530SOL    HW192487   9.894   2.737  13.875
63530SOL    HW292488   9.764   2.737  13.797
63531SOL     OW92489  14.688  12.191   6.097
63531SOL    HW192490  14.616  12.245   6.130
63531SOL    HW292491  14.749  12.254   6.059
63532SOL     OW92492  13.191   0.735  11.190
63532SOL    HW192493  13.263   0.705  11.246
63532SOL    HW292494  13.231   0.798  11.130
63533SOL     OW92495   6.964   5.744  11.767
63533SOL    HW192496   6.941   5.699  11.686
63533SOL    HW292497   6.921   5.693  11.836
63534SOL     OW92498   3.086   9.437   1.277
63534SOL    HW192499   3.115   9.346   1.283
63534SOL    HW292500   3.119   9.477   1.357
63535SOL     OW92501   4.722  10.427   2.288
63535SOL    HW192502   4.695  10.414   2.198
63535SOL    HW292503   4.800  10.483   2.282
63536SOL     OW92504  11.506   2.825   1.982
63536SOL    HW192505  11.549   2.751   1.938
63536SOL    HW292506  11.542   2.824   2.071
63537SOL     OW92507  11.034   8.516   3.187
63537SOL    HW192508  11.084   8.464   3.249
63537SOL    HW292509  10.993   8.452   3.129
63538SOL     OW92510  12.883   3.714   3.479
63538SOL    HW192511  12.941   3.743   3.409
63538SOL    HW292512  12.797   3.748   3.453
63539SOL     OW92513  10.377   4.737   2.499
63539SOL    HW192514  10.398   4.831   2.496
63539SOL    HW292515  10.327   4.721   2.419
63540SOL     OW92516   8.839   8.914   1.939
63540SOL    HW192517   8.908   8.895   2.002
63540SOL    HW292518   8.866   8.868   1.859
63541SOL     OW92519   1.787   2.587  13.462
63541SOL    HW192520   1.864   2.533  13.480
63541SOL    HW292521   1.770   2.633  13.544
63542SOL     OW92522  10.703   7.058   2.303
63542SOL    HW192523  10.691   7.019   2.390
63542SOL    HW292524  10.780   7.113   2.311
63543SOL     OW92525   1.287   7.453   0.224
63543SOL    HW192526   1.359   7.390   0.229
63543SOL    HW292527   1.324   7.533   0.260
63544SOL     OW92528   6.071  12.501  14.005
63544SOL    HW192529   6.053  12.519  13.912
63544SOL    HW292530   5.988  12.469  14.040
63545SOL     OW92531   2.233   3.736   6.795
63545SOL    HW192532   2.244   3.659   6.740
63545SOL    HW292533   2.158   3.715   6.852
63546SOL     OW92534   4.469   3.812   8.865
63546SOL    HW192535   4.375   3.796   8.865
63546SOL    HW292536   4.477   3.908   8.859
63547SOL     OW92537   5.623   7.468   7.296
63547SOL    HW192538   5.557   7.509   7.351
63547SOL    HW292539   5.652   7.391   7.346
63548SOL     OW92540   1.439   4.742   5.742
63548SOL    HW192541   1.463   4.673   5.680
63548SOL    HW292542   1.403   4.812   5.688
63549SOL     OW92543   8.358  14.426   5.813
63549SOL    HW192544   8.438  14.480   5.813
63549SOL    HW292545   8.327  14.430   5.904
63550SOL     OW92546  13.943  13.049  11.674
63550SOL    HW192547  13.985  13.056  11.760
63550SOL    HW292548  13.849  13.050  11.692
63551SOL     OW92549   1.356   9.259   9.695
63551SOL    HW192550   1.381   9.217   9.613
63551SOL    HW292551   1.278   9.310   9.673
63552SOL     OW92552  10.065   1.211  10.866
63552SOL    HW192553  10.034   1.295  10.833
63552SOL    HW292554  10.011   1.146  10.821
63553SOL     OW92555  14.087   3.655   8.505
63553SOL    HW192556  14.021   3.659   8.575
63553SOL    HW292557  14.169   3.673   8.549
63554SOL     OW92558   8.096   8.874   2.255
63554SOL    HW192559   8.005   8.853   2.277
63554SOL    HW292560   8.101   8.969   2.260
63555SOL     OW92561   9.423   7.627  14.647
63555SOL    HW192562   9.481   7.700  14.669
63555SOL    HW292563   9.397   7.644  14.556
63556SOL     OW92564  10.369   0.712   9.011
63556SOL    HW192565  10.365   0.679   8.921
63556SOL    HW292566  10.350   0.636   9.066
63557SOL     OW92567   1.263   1.560   5.449
63557SOL    HW192568   1.226   1.473   5.464
63557SOL    HW292569   1.317   1.551   5.371
63558SOL     OW92570   8.034   4.514   9.910
63558SOL    HW192571   7.999   4.432   9.875
63558SOL    HW292572   8.045   4.570   9.834
63559SOL     OW92573  14.071  12.823  14.132
63559SOL    HW192574  14.021  12.794  14.208
63559SOL    HW292575  14.053  12.758  14.065
63560SOL     OW92576   2.297   5.217   1.475
63560SOL    HW192577   2.295   5.220   1.379
63560SOL    HW292578   2.204   5.224   1.500
63561SOL     OW92579   0.450   6.414  12.767
63561SOL    HW192580   0.534   6.445  12.801
63561SOL    HW292581   0.419   6.486  12.712
63562SOL     OW92582   1.380   2.775   8.335
63562SOL    HW192583   1.457   2.724   8.310
63562SOL    HW292584   1.348   2.732   8.414
63563SOL     OW92585   5.206   0.703   5.962
63563SOL    HW192586   5.261   0.685   5.886
63563SOL    HW292587   5.209   0.621   6.013
63564SOL     OW92588  10.391   4.304   0.183
63564SOL    HW192589  10.360   4.381   0.135
63564SOL    HW292590  10.353   4.313   0.270
63565SOL     OW92591   2.158  13.013   6.720
63565SOL    HW192592   2.208  12.978   6.793
63565SOL    HW292593   2.217  13.075   6.677
63566SOL     OW92594   7.439   7.514   4.572
63566SOL    HW192595   7.428   7.568   4.650
63566SOL    HW292596   7.353   7.516   4.530
63567SOL     OW92597  10.549   4.917   9.577
63567SOL    HW192598  10.459   4.945   9.596
63567SOL    HW292599  10.594   4.925   9.661
63568SOL     OW92600   3.019   9.528   3.688
63568SOL    HW192601   2.976   9.447   3.661
63568SOL    HW292602   3.004   9.533   3.782
63569SOL     OW92603   7.877   8.831   5.053
63569SOL    HW192604   7.931   8.854   5.129
63569SOL    HW292605   7.941   8.809   4.985
63570SOL     OW92606  10.826   8.101  10.153
63570SOL    HW192607  10.735   8.084  10.128
63570SOL    HW292608  10.875   8.091  10.072
63571SOL     OW92609   6.137   8.882  12.623
63571SOL    HW192610   6.110   8.858  12.535
63571SOL    HW292611   6.081   8.956  12.646
63572SOL     OW92612  13.795   8.126  14.625
63572SOL    HW192613  13.812   8.192  14.692
63572SOL    HW292614  13.791   8.044  14.672
63573SOL     OW92615   9.220   4.530  12.245
63573SOL    HW192616   9.251   4.494  12.162
63573SOL    HW292617   9.231   4.625  12.236
63574SOL     OW92618   1.627  14.724   9.335
63574SOL    HW192619   1.603  14.798   9.391
63574SOL    HW292620   1.565  14.730   9.261
63575SOL     OW92621  12.536   5.830   7.813
63575SOL    HW192622  12.476   5.755   7.814
63575SOL    HW292623  12.577   5.829   7.899
63576SOL     OW92624   3.790   9.318   5.789
63576SOL    HW192625   3.740   9.241   5.815
63576SOL    HW292626   3.852   9.286   5.724
63577SOL     OW92627   5.391   7.444   9.124
63577SOL    HW192628   5.363   7.511   9.062
63577SOL    HW292629   5.446   7.492   9.187
63578SOL     OW92630  13.160   4.116   3.062
63578SOL    HW192631  13.129   4.099   2.973
63578SOL    HW292632  13.201   4.034   3.090
63579SOL     OW92633   5.447   0.157   6.626
63579SOL    HW192634   5.454   0.154   6.530
63579SOL    HW292635   5.537   0.146   6.657
63580SOL     OW92636   0.854  10.320  10.821
63580SOL    HW192637   0.823  10.230  10.818
63580SOL    HW292638   0.782  10.370  10.858
63581SOL     OW92639   2.498   4.088   8.253
63581SOL    HW192640   2.527   4.179   8.261
63581SOL    HW292641   2.579   4.036   8.255
63582SOL     OW92642  10.861   4.445   3.804
63582SOL    HW192643  10.893   4.522   3.757
63582SOL    HW292644  10.918   4.438   3.880
63583SOL     OW92645   0.318   8.504   4.384
63583SOL    HW192646   0.288   8.435   4.324
63583SOL    HW292647   0.252   8.505   4.453
63584SOL     OW92648  10.282   2.448  11.351
63584SOL    HW192649  10.235   2.477  11.429
63584SOL    HW292650  10.226   2.475  11.278
63585SOL     OW92651  11.385   9.955   6.948
63585SOL    HW192652  11.353  10.021   6.887
63585SOL    HW292653  11.337   9.972   7.029
63586SOL     OW92654   2.965  11.452   2.269
63586SOL    HW192655   3.009  11.381   2.315
63586SOL    HW292656   2.872  11.430   2.275
63587SOL     OW92657   5.887  11.635  13.933
63587SOL    HW192658   5.947  11.590  13.993
63587SOL    HW292659   5.928  11.720  13.916
63588SOL     OW92660  11.584   3.900   2.143
63588SOL    HW192661  11.532   3.980   2.132
63588SOL    HW292662  11.575   3.854   2.060
63589SOL     OW92663  13.480   4.862   4.058
63589SOL    HW192664  13.567   4.903   4.059
63589SOL    HW292665  13.425   4.923   4.008
63590SOL     OW92666  11.402   4.651   4.597
63590SOL    HW192667  11.422   4.588   4.527
63590SOL    HW292668  11.461   4.725   4.579
63591SOL     OW92669  11.992   7.134  13.036
63591SOL    HW192670  11.900   7.124  13.012
63591SOL    HW292671  12.024   7.203  12.977
63592SOL     OW92672  13.697   3.455  13.164
63592SOL    HW192673  13.657   3.539  13.138
63592SOL    HW292674  13.663   3.392  13.100
63593SOL     OW92675   8.539  13.276  14.496
63593SOL    HW192676   8.455  13.264  14.453
63593SOL    HW292677   8.587  13.335  14.438
63594SOL     OW92678  12.216   1.365   8.863
63594SOL    HW192679  12.294   1.372   8.809
63594SOL    HW292680  12.144   1.363   8.800
63595SOL     OW92681   1.962   3.379  11.774
63595SOL    HW192682   1.920   3.437  11.711
63595SOL    HW292683   1.932   3.292  11.750
63596SOL     OW92684  11.452   2.292  13.055
63596SOL    HW192685  11.544   2.264  13.056
63596SOL    HW292686  11.449   2.360  12.988
63597SOL     OW92687   1.097   1.364  13.808
63597SOL    HW192688   1.033   1.349  13.878
63597SOL    HW292689   1.166   1.299  13.826
63598SOL     OW92690   3.910  10.004   6.012
63598SOL    HW192691   3.943  10.090   5.986
63598SOL    HW292692   3.942   9.944   5.945
63599SOL     OW92693   5.540  14.549   5.658
63599SOL    HW192694   5.573  14.576   5.744
63599SOL    HW292695   5.581  14.609   5.596
63600SOL     OW92696  14.317   7.163   9.274
63600SOL    HW192697  14.334   7.082   9.322
63600SOL    HW292698  14.304   7.134   9.184
63601SOL     OW92699   5.462   7.624   7.468
63601SOL    HW192700   5.369   7.610   7.488
63601SOL    HW292701   5.489   7.693   7.529
63602SOL     OW92702   7.458   7.488  13.113
63602SOL    HW192703   7.456   7.583  13.102
63602SOL    HW292704   7.376   7.467  13.156
63603SOL     OW92705  13.584  12.437   5.113
63603SOL    HW192706  13.572  12.344   5.131
63603SOL    HW292707  13.672  12.456   5.146
63604SOL     OW92708  14.650   9.912   3.372
63604SOL    HW192709  14.639   9.988   3.429
63604SOL    HW292710  14.656   9.838   3.431
63605SOL     OW92711   0.191   9.011  10.800
63605SOL    HW192712   0.133   8.938  10.824
63605SOL    HW292713   0.200   9.061  10.881
63606SOL     OW92714   4.618   5.378   5.489
63606SOL    HW192715   4.713   5.388   5.490
63606SOL    HW292716   4.604   5.285   5.502
63607SOL     OW92717   7.559  13.918   4.419
63607SOL    HW192718   7.641  13.956   4.450
63607SOL    HW292719   7.507  13.906   4.499
63608SOL     OW92720   9.479   4.319   2.863
63608SOL    HW192721   9.521   4.328   2.778
63608SOL    HW292722   9.491   4.403   2.906
63609SOL     OW92723   8.343   6.617  13.796
63609SOL    HW192724   8.248   6.605  13.798
63609SOL    HW292725   8.356   6.711  13.803
63610SOL     OW92726   6.517   2.627   5.499
63610SOL    HW192727   6.486   2.537   5.515
63610SOL    HW292728   6.526   2.632   5.404
63611SOL     OW92729   5.992   1.622   7.858
63611SOL    HW192730   6.003   1.717   7.856
63611SOL    HW292731   6.076   1.587   7.828
63612SOL     OW92732   3.089   3.026  14.264
63612SOL    HW192733   3.121   3.102  14.313
63612SOL    HW292734   3.161   3.004  14.204
63613SOL     OW92735   8.821  10.472  14.468
63613SOL    HW192736   8.864  10.387  14.481
63613SOL    HW292737   8.757  10.456  14.399
63614SOL     OW92738   0.882  13.616   2.229
63614SOL    HW192739   0.870  13.525   2.256
63614SOL    HW292740   0.813  13.663   2.275
63615SOL     OW92741   2.800  13.682   1.856
63615SOL    HW192742   2.793  13.633   1.938
63615SOL    HW292743   2.852  13.626   1.799
63616SOL     OW92744  13.261  14.591   8.378
63616SOL    HW192745  13.263  14.641   8.296
63616SOL    HW292746  13.349  14.556   8.388
63617SOL     OW92747  11.919  13.378   9.735
63617SOL    HW192748  12.008  13.378   9.698
63617SOL    HW292749  11.904  13.469   9.761
63618SOL     OW92750   1.643   5.678   8.656
63618SOL    HW192751   1.620   5.597   8.702
63618SOL    HW292752   1.718   5.653   8.602
63619SOL     OW92753  10.918  10.350   7.239
63619SOL    HW192754  10.978  10.391   7.176
63619SOL    HW292755  10.840  10.406   7.238
63620SOL     OW92756   1.809  10.506   6.148
63620SOL    HW192757   1.719  10.480   6.129
63620SOL    HW292758   1.839  10.443   6.214
63621SOL     OW92759   5.227   7.034   4.071
63621SOL    HW192760   5.197   7.005   4.156
63621SOL    HW292761   5.250   6.954   4.024
63622SOL     OW92762   6.231   9.334  12.335
63622SOL    HW192763   6.239   9.399  12.265
63622SOL    HW292764   6.143   9.297  12.323
63623SOL     OW92765   3.044  10.511  10.102
63623SOL    HW192766   3.128  10.518  10.146
63623SOL    HW292767   3.052  10.568  10.025
63624SOL     OW92768   1.758   8.824   9.298
63624SOL    HW192769   1.750   8.778   9.215
63624SOL    HW292770   1.801   8.762   9.356
63625SOL     OW92771   5.127   5.326   1.132
63625SOL    HW192772   5.184   5.377   1.190
63625SOL    HW292773   5.158   5.236   1.141
63626SOL     OW92774   3.900  13.324  11.003
63626SOL    HW192775   3.838  13.376  11.054
63626SOL    HW292776   3.869  13.234  11.011
63627SOL     OW92777  14.275   4.634   1.503
63627SOL    HW192778  14.270   4.655   1.597
63627SOL    HW292779  14.189   4.657   1.469
63628SOL     OW92780   5.764   8.545  11.048
63628SOL    HW192781   5.858   8.545  11.032
63628SOL    HW292782   5.725   8.517  10.965
63629SOL     OW92783   9.495  11.140   7.270
63629SOL    HW192784   9.464  11.230   7.283
63629SOL    HW292785   9.494  11.101   7.357
63630SOL     OW92786   7.680   9.493   7.338
63630SOL    HW192787   7.625   9.424   7.374
63630SOL    HW292788   7.620   9.547   7.287
63631SOL     OW92789   6.910   0.546   7.968
63631SOL    HW192790   6.910   0.562   8.062
63631SOL    HW292791   6.825   0.580   7.937
63632SOL     OW92792  11.693  10.443   6.648
63632SOL    HW192793  11.722  10.493   6.572
63632SOL    HW292794  11.655  10.508   6.707
63633SOL     OW92795   2.346   8.615   1.909
63633SOL    HW192796   2.435   8.597   1.879
63633SOL    HW292797   2.307   8.669   1.840
63634SOL     OW92798  13.331   3.126  10.550
63634SOL    HW192799  13.241   3.156  10.535
63634SOL    HW292800  13.358   3.089  10.466
63635SOL     OW92801   9.854   7.654  11.443
63635SOL    HW192802   9.778   7.681  11.392
63635SOL    HW292803   9.818   7.600  11.513
63636SOL     OW92804   1.528   0.403   0.339
63636SOL    HW192805   1.450   0.381   0.288
63636SOL    HW292806   1.493   0.451   0.414
63637SOL     OW92807   5.556   4.556  13.986
63637SOL    HW192808   5.559   4.461  13.998
63637SOL    HW292809   5.532   4.590  14.072
63638SOL     OW92810   7.538   9.454   8.728
63638SOL    HW192811   7.539   9.427   8.820
63638SOL    HW292812   7.617   9.413   8.691
63639SOL     OW92813  10.423   4.184   1.987
63639SOL    HW192814  10.333   4.164   2.015
63639SOL    HW292815  10.458   4.237   2.059
63640SOL     OW92816  13.280   8.514   3.366
63640SOL    HW192817  13.300   8.503   3.273
63640SOL    HW292818  13.333   8.446   3.409
63641SOL     OW92819  10.672  14.608   4.350
63641SOL    HW192820  10.677  14.587   4.443
63641SOL    HW292821  10.582  14.635   4.336
63642SOL     OW92822  12.001  10.103  10.868
63642SOL    HW192823  11.940  10.173  10.844
63642SOL    HW292824  11.950  10.046  10.926
63643SOL     OW92825   2.801  11.789   5.480
63643SOL    HW192826   2.864  11.851   5.516
63643SOL    HW292827   2.725  11.796   5.538
63644SOL     OW92828  12.874   5.632   8.340
63644SOL    HW192829  12.883   5.595   8.252
63644SOL    HW292830  12.788   5.603   8.370
63645SOL     OW92831   1.648   1.926   8.638
63645SOL    HW192832   1.724   1.937   8.579
63645SOL    HW292833   1.611   2.014   8.646
63646SOL     OW92834   5.991   8.742  13.480
63646SOL    HW192835   5.984   8.834  13.505
63646SOL    HW292836   5.997   8.695  13.563
63647SOL     OW92837   3.525   0.804  12.132
63647SOL    HW192838   3.433   0.823  12.149
63647SOL    HW292839   3.534   0.710  12.150
63648SOL     OW92840   2.766  10.111   3.687
63648SOL    HW192841   2.702  10.179   3.666
63648SOL    HW292842   2.736  10.034   3.639
63649SOL     OW92843  10.659   2.506   6.637
63649SOL    HW192844  10.743   2.463   6.621
63649SOL    HW292845  10.597   2.433   6.649
63650SOL     OW92846   6.732   1.888   5.178
63650SOL    HW192847   6.726   1.830   5.254
63650SOL    HW292848   6.663   1.859   5.119
63651SOL     OW92849   5.059   5.255  14.328
63651SOL    HW192850   5.057   5.343  14.290
63651SOL    HW292851   5.073   5.197  14.253
63652SOL     OW92852   3.260  14.259  10.799
63652SOL    HW192853   3.185  14.271  10.858
63652SOL    HW292854   3.226  14.280  10.712
63653SOL     OW92855   0.682   0.943  10.242
63653SOL    HW192856   0.656   1.012  10.304
63653SOL    HW292857   0.601   0.919  10.198
63654SOL     OW92858   2.399  13.245  11.393
63654SOL    HW192859   2.398  13.154  11.423
63654SOL    HW292860   2.419  13.239  11.299
63655SOL     OW92861  14.512   8.148   8.871
63655SOL    HW192862  14.521   8.235   8.908
63655SOL    HW292863  14.494   8.092   8.946
63656SOL     OW92864   4.265   1.942   0.583
63656SOL    HW192865   4.276   1.861   0.534
63656SOL    HW292866   4.174   1.967   0.568
63657SOL     OW92867   1.545  13.118   3.263
63657SOL    HW192868   1.454  13.131   3.290
63657SOL    HW292869   1.550  13.156   3.176
63658SOL     OW92870   1.915   4.481   9.563
63658SOL    HW192871   1.915   4.511   9.472
63658SOL    HW292872   1.858   4.542   9.609
63659SOL     OW92873  12.320  12.828  14.651
63659SOL    HW192874  12.385  12.788  14.594
63659SOL    HW292875  12.271  12.754  14.687
63660SOL     OW92876   8.834  10.774   1.796
63660SOL    HW192877   8.849  10.863   1.828
63660SOL    HW292878   8.916  10.728   1.812
63661SOL     OW92879   9.524   5.422   8.573
63661SOL    HW192880   9.530   5.327   8.582
63661SOL    HW292881   9.484   5.452   8.655
63662SOL     OW92882   2.520   7.112   0.885
63662SOL    HW192883   2.532   7.128   0.791
63662SOL    HW292884   2.503   7.198   0.923
63663SOL     OW92885  13.537   3.987   3.075
63663SOL    HW192886  13.589   3.916   3.038
63663SOL    HW292887  13.454   3.947   3.099
63664SOL     OW92888   0.800  13.171   1.709
63664SOL    HW192889   0.886  13.196   1.742
63664SOL    HW292890   0.747  13.251   1.715
63665SOL     OW92891   8.726   3.373   9.735
63665SOL    HW192892   8.747   3.294   9.785
63665SOL    HW292893   8.765   3.444   9.785
63666SOL     OW92894   8.468   7.262   0.360
63666SOL    HW192895   8.458   7.294   0.450
63666SOL    HW292896   8.526   7.187   0.367
63667SOL     OW92897  12.511   7.025  12.310
63667SOL    HW192898  12.577   7.088  12.279
63667SOL    HW292899  12.459   7.004  12.233
63668SOL     OW92900   7.981   3.665  11.304
63668SOL    HW192901   8.054   3.659  11.242
63668SOL    HW292902   8.023   3.682  11.389
63669SOL     OW92903   0.894  10.796   9.312
63669SOL    HW192904   0.869  10.848   9.388
63669SOL    HW292905   0.901  10.707   9.346
63670SOL     OW92906  10.755   6.203  13.692
63670SOL    HW192907  10.667   6.233  13.713
63670SOL    HW292908  10.748   6.107  13.695
63671SOL     OW92909   6.447   1.666   1.991
63671SOL    HW192910   6.513   1.672   2.060
63671SOL    HW292911   6.387   1.598   2.021
63672SOL     OW92912   2.755  13.602   7.653
63672SOL    HW192913   2.792  13.518   7.626
63672SOL    HW292914   2.806  13.627   7.730
63673SOL     OW92915  14.651   0.329  11.125
63673SOL    HW192916  14.659   0.241  11.161
63673SOL    HW292917  14.688   0.322  11.037
63674SOL     OW92918   6.213   6.615   0.760
63674SOL    HW192919   6.195   6.525   0.734
63674SOL    HW292920   6.283   6.644   0.702
63675SOL     OW92921  10.638  12.817   9.435
63675SOL    HW192922  10.688  12.795   9.357
63675SOL    HW292923  10.561  12.864   9.402
63676SOL     OW92924   6.797   2.186   8.987
63676SOL    HW192925   6.774   2.272   8.952
63676SOL    HW292926   6.857   2.149   8.923
63677SOL     OW92927   5.773  11.229   2.534
63677SOL    HW192928   5.860  11.196   2.560
63677SOL    HW292929   5.753  11.297   2.599
63678SOL     OW92930   8.718   0.372   1.175
63678SOL    HW192931   8.677   0.303   1.123
63678SOL    HW292932   8.650   0.396   1.239
63679SOL     OW92933  14.015   8.987   3.994
63679SOL    HW192934  13.941   9.001   3.935
63679SOL    HW292935  14.034   8.893   3.988
63680SOL     OW92936   2.757  13.579   4.530
63680SOL    HW192937   2.756  13.665   4.489
63680SOL    HW292938   2.697  13.587   4.604
63681SOL     OW92939  13.684   7.988  10.557
63681SOL    HW192940  13.605   7.946  10.524
63681SOL    HW292941  13.736   7.917  10.594
63682SOL     OW92942   8.467   0.550   6.044
63682SOL    HW192943   8.437   0.609   6.113
63682SOL    HW292944   8.401   0.559   5.975
63683SOL     OW92945  10.033  14.049   0.430
63683SOL    HW192946  10.066  14.122   0.377
63683SOL    HW292947   9.998  13.987   0.367
63684SOL     OW92948   1.985   3.392   2.833
63684SOL    HW192949   1.966   3.366   2.743
63684SOL    HW292950   1.981   3.488   2.831
63685SOL     OW92951   1.618   3.547  12.606
63685SOL    HW192952   1.539   3.600  12.595
63685SOL    HW292953   1.655   3.577  12.689
63686SOL     OW92954   9.271   6.954   7.754
63686SOL    HW192955   9.228   7.029   7.796
63686SOL    HW292956   9.232   6.950   7.667
63687SOL     OW92957   4.137  10.141   2.045
63687SOL    HW192958   4.144  10.064   1.989
63687SOL    HW292959   4.136  10.215   1.984
63688SOL     OW92960   3.012   9.077   3.597
63688SOL    HW192961   3.038   9.084   3.689
63688SOL    HW292962   3.013   9.168   3.565
63689SOL     OW92963   9.411   9.964  12.666
63689SOL    HW192964   9.361   9.884  12.651
63689SOL    HW292965   9.398  10.016  12.587
63690SOL     OW92966   4.315  10.223   1.547
63690SOL    HW192967   4.361  10.139   1.541
63690SOL    HW292968   4.374  10.286   1.504
63691SOL     OW92969   5.620   0.746   1.223
63691SOL    HW192970   5.683   0.816   1.206
63691SOL    HW292971   5.668   0.683   1.276
63692SOL     OW92972   3.578   0.387   6.430
63692SOL    HW192973   3.500   0.432   6.463
63692SOL    HW292974   3.543   0.307   6.389
63693SOL     OW92975   2.978  12.194  13.720
63693SOL    HW192976   3.053  12.138  13.739
63693SOL    HW292977   3.011  12.283  13.726
63694SOL     OW92978  12.123   3.526   5.763
63694SOL    HW192979  12.087   3.568   5.685
63694SOL    HW292980  12.213   3.560   5.770
63695SOL     OW92981   7.374  12.889   5.711
63695SOL    HW192982   7.323  12.948   5.655
63695SOL    HW292983   7.427  12.838   5.651
63696SOL     OW92984   8.990   3.428   9.187
63696SOL    HW192985   8.912   3.425   9.130
63696SOL    HW292986   8.971   3.499   9.249
63697SOL     OW92987   5.382   6.006  11.083
63697SOL    HW192988   5.311   6.070  11.069
63697SOL    HW292989   5.449   6.055  11.130
63698SOL     OW92990  10.515   2.704  13.775
63698SOL    HW192991  10.523   2.648  13.698
63698SOL    HW292992  10.570   2.663  13.841
63699SOL     OW92993   8.187  11.504   6.984
63699SOL    HW192994   8.140  11.581   6.953
63699SOL    HW292995   8.119  11.445   7.017
63700SOL     OW92996   3.894   4.633  12.747
63700SOL    HW192997   3.818   4.691  12.751
63700SOL    HW292998   3.868   4.563  12.687
63701SOL     OW92999   0.134   5.078  14.379
63701SOL    HW193000   0.043   5.108  14.381
63701SOL    HW293001   0.185   5.159  14.376
63702SOL     OW93002  12.502  10.274   2.505
63702SOL    HW193003  12.482  10.340   2.439
63702SOL    HW293004  12.476  10.191   2.464
63703SOL     OW93005   7.446   7.692  11.265
63703SOL    HW193006   7.424   7.782  11.241
63703SOL    HW293007   7.440   7.643  11.183
63704SOL     OW93008   6.109   9.801  13.349
63704SOL    HW193009   6.022   9.839  13.345
63704SOL    HW293010   6.102   9.719  13.301
63705SOL     OW93011   5.234   0.790   0.967
63705SOL    HW193012   5.206   0.808   0.877
63705SOL    HW293013   5.305   0.852   0.982
63706SOL     OW93014  10.482   0.949  14.744
63706SOL    HW193015  10.485   0.858  14.773
63706SOL    HW293016  10.389   0.968  14.732
63707SOL     OW93017   5.799   2.108  10.800
63707SOL    HW193018   5.760   2.026  10.828
63707SOL    HW293019   5.809   2.159  10.880
63708SOL     OW93020   8.482  12.022   5.483
63708SOL    HW193021   8.534  11.964   5.427
63708SOL    HW293022   8.505  11.996   5.572
63709SOL     OW93023  10.469   4.052  14.069
63709SOL    HW193024  10.404   3.983  14.080
63709SOL    HW293025  10.421   4.133  14.089
63710SOL     OW93026   8.059   0.022   2.364
63710SOL    HW193027   7.991   0.044   2.428
63710SOL    HW293028   8.140   0.054   2.403
63711SOL     OW93029   4.354   9.016   1.033
63711SOL    HW193030   4.321   9.009   1.122
63711SOL    HW293031   4.424   9.081   1.038
63712SOL     OW93032   3.727  14.747  14.864
63712SOL    HW193033   3.685  14.673   0.033
63712SOL    HW293034   3.783  14.707  14.797
63713SOL     OW93035   3.900   6.613   8.086
63713SOL    HW193036   3.975   6.673   8.091
63713SOL    HW293037   3.934   6.530   8.119
63714SOL     OW93038   7.099   2.997  12.532
63714SOL    HW193039   7.155   2.920  12.524
63714SOL    HW293040   7.156   3.070  12.509
63715SOL     OW93041   6.940  10.188   7.494
63715SOL    HW193042   6.962  10.167   7.403
63715SOL    HW293043   6.941  10.283   7.497
63716SOL     OW93044  10.608   0.485   7.013
63716SOL    HW193045  10.652   0.524   7.089
63716SOL    HW293046  10.529   0.537   7.002
63717SOL     OW93047  10.993   8.748   3.990
63717SOL    HW193048  10.995   8.817   4.056
63717SOL    HW293049  10.941   8.678   4.029
63718SOL     OW93050   7.209   9.636   8.410
63718SOL    HW193051   7.211   9.712   8.352
63718SOL    HW293052   7.176   9.670   8.493
63719SOL     OW93053   7.862   6.453   9.681
63719SOL    HW193054   7.939   6.507   9.659
63719SOL    HW293055   7.894   6.363   9.675
63720SOL     OW93056   2.402  12.660   3.575
63720SOL    HW193057   2.416  12.691   3.485
63720SOL    HW293058   2.348  12.729   3.616
63721SOL     OW93059   4.046   4.641   5.643
63721SOL    HW193060   3.964   4.619   5.685
63721SOL    HW293061   4.103   4.669   5.714
63722SOL     OW93062   3.140   0.772   5.462
63722SOL    HW193063   3.222   0.797   5.420
63722SOL    HW293064   3.087   0.852   5.462
63723SOL     OW93065   0.607  10.810   5.802
63723SOL    HW193066   0.687  10.860   5.818
63723SOL    HW293067   0.625  10.723   5.836
63724SOL     OW93068  11.614  13.664   1.130
63724SOL    HW193069  11.576  13.732   1.074
63724SOL    HW293070  11.688  13.629   1.080
63725SOL     OW93071   6.309   7.346  13.996
63725SOL    HW193072   6.249   7.280  14.031
63725SOL    HW293073   6.374   7.360  14.065
63726SOL     OW93074   5.982   4.617   5.245
63726SOL    HW193075   5.941   4.690   5.291
63726SOL    HW293076   5.946   4.539   5.288
63727SOL     OW93077  12.543   6.817  12.508
63727SOL    HW193078  12.554   6.877  12.434
63727SOL    HW293079  12.505   6.738  12.469
63728SOL     OW93080  10.139   8.474   2.634
63728SOL    HW193081  10.093   8.391   2.647
63728SOL    HW293082  10.232   8.451   2.634
63729SOL     OW93083   4.124   9.939   4.138
63729SOL    HW193084   4.128   9.965   4.230
63729SOL    HW293085   4.161   9.850   4.137
63730SOL     OW93086   5.013  12.133  14.072
63730SOL    HW193087   4.972  12.072  14.012
63730SOL    HW293088   5.105  12.105  14.077
63731SOL     OW93089  14.449  14.010  14.138
63731SOL    HW193090  14.356  14.006  14.117
63731SOL    HW293091  14.463  13.935  14.196
63732SOL     OW93092  14.141  10.693   7.052
63732SOL    HW193093  14.130  10.779   7.092
63732SOL    HW293094  14.185  10.641   7.119
63733SOL     OW93095  14.815   1.959   8.834
63733SOL    HW193096  14.819   1.937   8.741
63733SOL    HW293097   0.032   1.972   8.859
63734SOL     OW93098   7.826   5.974   8.806
63734SOL    HW193099   7.896   5.913   8.786
63734SOL    HW293100   7.754   5.948   8.748
63735SOL     OW93101   5.407   5.343   3.596
63735SOL    HW193102   5.487   5.314   3.640
63735SOL    HW293103   5.406   5.438   3.608
63736SOL     OW93104   8.550  11.047  10.636
63736SOL    HW193105   8.516  11.078  10.552
63736SOL    HW293106   8.629  10.997  10.613
63737SOL     OW93107   1.682   7.840  10.885
63737SOL    HW193108   1.670   7.935  10.894
63737SOL    HW293109   1.629   7.817  10.809
63738SOL     OW93110   9.494  11.311   5.649
63738SOL    HW193111   9.427  11.370   5.613
63738SOL    HW293112   9.460  11.287   5.735
63739SOL     OW93113   3.149   2.110   3.712
63739SOL    HW193114   3.176   2.099   3.803
63739SOL    HW293115   3.124   2.022   3.683
63740SOL     OW93116   8.244   2.271   2.529
63740SOL    HW193117   8.323   2.322   2.510
63740SOL    HW293118   8.253   2.192   2.475
63741SOL     OW93119  13.304  12.019   9.447
63741SOL    HW193120  13.239  11.962   9.407
63741SOL    HW293121  13.281  12.107   9.417
63742SOL     OW93122   3.776   0.924  10.368
63742SOL    HW193123   3.853   0.890  10.321
63742SOL    HW293124   3.737   0.846  10.408
63743SOL     OW93125   3.790  11.525   0.115
63743SOL    HW193126   3.811  11.477   0.035
63743SOL    HW293127   3.755  11.459   0.175
63744SOL     OW93128   6.124   8.830  13.109
63744SOL    HW193129   6.171   8.848  13.028
63744SOL    HW293130   6.102   8.737  13.105
63745SOL     OW93131   5.243   9.370  11.594
63745SOL    HW193132   5.261   9.414  11.511
63745SOL    HW293133   5.326   9.374  11.641
63746SOL     OW93134   8.719   9.442   4.578
63746SOL    HW193135   8.642   9.499   4.576
63746SOL    HW293136   8.685   9.358   4.610
63747SOL     OW93137   7.465   3.818  11.316
63747SOL    HW193138   7.559   3.796  11.318
63747SOL    HW293139   7.450   3.845  11.225
63748SOL     OW93140   3.956  12.733   1.143
63748SOL    HW193141   3.958  12.639   1.126
63748SOL    HW293142   4.046  12.756   1.164
63749SOL     OW93143   9.326   0.231  11.755
63749SOL    HW193144   9.272   0.218  11.678
63749SOL    HW293145   9.305   0.158  11.813
63750SOL     OW93146   8.293   9.381   7.606
63750SOL    HW193147   8.238   9.424   7.540
63750SOL    HW293148   8.329   9.305   7.561
63751SOL     OW93149   7.490  14.872   0.832
63751SOL    HW193150   7.409  14.829   0.862
63751SOL    HW293151   7.468   0.032   0.746
63752SOL     OW93152   8.920   1.532  14.270
63752SOL    HW193153   8.896   1.620  14.241
63752SOL    HW293154   8.948   1.543  14.360
63753SOL     OW93155   5.888  12.043  13.706
63753SOL    HW193156   5.792  12.046  13.710
63753SOL    HW293157   5.909  12.085  13.622
63754SOL     OW93158  11.162   8.486   7.123
63754SOL    HW193159  11.169   8.516   7.214
63754SOL    HW293160  11.247   8.446   7.105
63755SOL     OW93161   9.696  10.540  10.242
63755SOL    HW193162   9.657  10.553  10.328
63755SOL    HW293163   9.770  10.600  10.239
63756SOL     OW93164   0.747   6.947   2.189
63756SOL    HW193165   0.671   6.979   2.140
63756SOL    HW293166   0.710   6.889   2.256
63757SOL     OW93167   5.551   5.168   2.782
63757SOL    HW193168   5.551   5.215   2.866
63757SOL    HW293169   5.461   5.174   2.751
63758SOL     OW93170   7.191   0.990   6.487
63758SOL    HW193171   7.148   1.023   6.566
63758SOL    HW293172   7.168   0.898   6.484
63759SOL     OW93173   2.326  12.558   9.350
63759SOL    HW193174   2.387  12.485   9.342
63759SOL    HW293175   2.376  12.625   9.397
63760SOL     OW93176  10.227  13.772   5.895
63760SOL    HW193177  10.215  13.862   5.866
63760SOL    HW293178  10.185  13.719   5.827
63761SOL     OW93179   3.112   4.340  11.773
63761SOL    HW193180   3.033   4.331  11.719
63761SOL    HW293181   3.100   4.424  11.818
63762SOL     OW93182   6.439   2.663   6.800
63762SOL    HW193183   6.356   2.627   6.767
63762SOL    HW293184   6.415   2.710   6.880
63763SOL     OW93185   8.980   0.929  10.443
63763SOL    HW193186   8.963   0.900  10.533
63763SOL    HW293187   9.075   0.919  10.433
63764SOL     OW93188   8.815   8.188  11.456
63764SOL    HW193189   8.771   8.269  11.480
63764SOL    HW293190   8.748   8.137  11.411
63765SOL     OW93191   6.325  14.289   1.221
63765SOL    HW193192   6.275  14.330   1.292
63765SOL    HW293193   6.326  14.355   1.152
63766SOL     OW93194  14.031   3.585   9.626
63766SOL    HW193195  14.040   3.636   9.706
63766SOL    HW293196  14.119   3.580   9.590
63767SOL     OW93197   2.650   7.753   7.418
63767SOL    HW193198   2.649   7.837   7.373
63767SOL    HW293199   2.559   7.739   7.446
63768SOL     OW93200   8.534   7.600  10.158
63768SOL    HW193201   8.487   7.614  10.240
63768SOL    HW293202   8.486   7.529  10.115
63769SOL     OW93203   3.711  13.285  13.353
63769SOL    HW193204   3.714  13.292  13.258
63769SOL    HW293205   3.794  13.322  13.382
63770SOL     OW93206   6.878  11.080   7.144
63770SOL    HW193207   6.917  11.122   7.067
63770SOL    HW293208   6.843  11.153   7.195
63771SOL     OW93209   4.920   6.059   7.252
63771SOL    HW193210   4.941   6.131   7.193
63771SOL    HW293211   4.824   6.051   7.248
63772SOL     OW93212  12.383   0.640   8.218
63772SOL    HW193213  12.353   0.623   8.307
63772SOL    HW293214  12.468   0.681   8.229
63773SOL     OW93215  14.257   1.874   3.494
63773SOL    HW193216  14.234   1.785   3.465
63773SOL    HW293217  14.353   1.877   3.487
63774SOL     OW93218   4.321  12.706   4.264
63774SOL    HW193219   4.398  12.690   4.318
63774SOL    HW293220   4.251  12.656   4.305
63775SOL     OW93221   8.029   1.957  11.718
63775SOL    HW193222   8.119   1.963  11.685
63775SOL    HW293223   7.979   2.017  11.663
63776SOL     OW93224   2.577   0.127   2.227
63776SOL    HW193225   2.590   0.033   2.216
63776SOL    HW293226   2.484   0.141   2.208
63777SOL     OW93227  10.201   6.880   7.890
63777SOL    HW193228  10.142   6.821   7.842
63777SOL    HW293229  10.255   6.919   7.822
63778SOL     OW93230  12.634   5.827   4.661
63778SOL    HW193231  12.613   5.779   4.741
63778SOL    HW293232  12.602   5.916   4.678
63779SOL     OW93233   3.034   2.635  12.666
63779SOL    HW193234   3.086   2.579  12.609
63779SOL    HW293235   3.083   2.717  12.671
63780SOL     OW93236   9.822   9.733   5.084
63780SOL    HW193237   9.883   9.680   5.032
63780SOL    HW293238   9.866   9.742   5.169
63781SOL     OW93239  10.757   9.119   3.418
63781SOL    HW193240  10.814   9.190   3.388
63781SOL    HW293241  10.758   9.056   3.346
63782SOL     OW93242   8.650  11.521   0.574
63782SOL    HW193243   8.584  11.584   0.604
63782SOL    HW293244   8.610  11.477   0.500
63783SOL     OW93245   0.977   3.116   3.477
63783SOL    HW193246   0.952   3.065   3.554
63783SOL    HW293247   0.909   3.098   3.412
63784SOL     OW93248   8.189   8.013   7.356
63784SOL    HW193249   8.260   7.959   7.391
63784SOL    HW293250   8.137   7.953   7.302
63785SOL     OW93251   6.202   7.747   9.531
63785SOL    HW193252   6.142   7.791   9.471
63785SOL    HW293253   6.218   7.812   9.601
63786SOL     OW93254  13.313  13.897   4.379
63786SOL    HW193255  13.376  13.854   4.322
63786SOL    HW293256  13.312  13.845   4.459
63787SOL     OW93257   5.607   0.916   2.839
63787SOL    HW193258   5.699   0.904   2.861
63787SOL    HW293259   5.572   0.971   2.909
63788SOL     OW93260   9.874   2.351   5.993
63788SOL    HW193261   9.965   2.379   5.983
63788SOL    HW293262   9.863   2.283   5.926
63789SOL     OW93263   6.436   1.223   9.214
63789SOL    HW193264   6.422   1.296   9.154
63789SOL    HW293265   6.450   1.264   9.299
63790SOL     OW93266  12.076   7.240   8.338
63790SOL    HW193267  12.106   7.155   8.307
63790SOL    HW293268  12.143   7.268   8.401
63791SOL     OW93269   9.511  12.850  13.570
63791SOL    HW193270   9.550  12.826  13.486
63791SOL    HW293271   9.420  12.819  13.564
63792SOL     OW93272   7.828  11.162   3.406
63792SOL    HW193273   7.750  11.210   3.435
63792SOL    HW293274   7.886  11.230   3.371
63793SOL     OW93275   0.809   4.090   5.797
63793SOL    HW193276   0.728   4.089   5.746
63793SOL    HW293277   0.779   4.085   5.888
63794SOL     OW93278   9.407   0.496   8.568
63794SOL    HW193279   9.441   0.498   8.658
63794SOL    HW293280   9.485   0.501   8.513
63795SOL     OW93281   4.257   3.474  10.840
63795SOL    HW193282   4.281   3.544  10.901
63795SOL    HW293283   4.340   3.436  10.812
63796SOL     OW93284  10.240  10.314   9.458
63796SOL    HW193285  10.158  10.333   9.412
63796SOL    HW293286  10.236  10.220   9.476
63797SOL     OW93287   1.960   6.046  14.496
63797SOL    HW193288   1.878   6.020  14.538
63797SOL    HW293289   2.016   5.969  14.503
63798SOL     OW93290  10.474   9.014   1.929
63798SOL    HW193291  10.398   8.958   1.914
63798SOL    HW293292  10.508   8.987   2.014
63799SOL     OW93293   8.154   9.808   6.705
63799SOL    HW193294   8.067   9.830   6.674
63799SOL    HW293295   8.182   9.884   6.756
63800SOL     OW93296   6.857   4.340   7.731
63800SOL    HW193297   6.852   4.257   7.684
63800SOL    HW293298   6.767   4.371   7.736
63801SOL     OW93299   6.148  13.051   7.828
63801SOL    HW193300   6.095  13.107   7.771
63801SOL    HW293301   6.148  12.966   7.784
63802SOL     OW93302   6.817   4.813  12.586
63802SOL    HW193303   6.799   4.739  12.645
63802SOL    HW293304   6.844   4.884  12.645
63803SOL     OW93305   2.760   2.062   3.151
63803SOL    HW193306   2.748   1.990   3.088
63803SOL    HW293307   2.802   2.021   3.226
63804SOL     OW93308   1.462   1.300  14.178
63804SOL    HW193309   1.511   1.326  14.100
63804SOL    HW293310   1.371   1.299  14.150
63805SOL     OW93311   1.471   9.112   3.789
63805SOL    HW193312   1.510   9.029   3.815
63805SOL    HW293313   1.540   9.177   3.803
63806SOL     OW93314   3.179   5.451   9.673
63806SOL    HW193315   3.135   5.385   9.620
63806SOL    HW293316   3.109   5.497   9.719
63807SOL     OW93317   4.238   7.611  13.845
63807SOL    HW193318   4.199   7.674  13.784
63807SOL    HW293319   4.277   7.544  13.789
63808SOL     OW93320   2.027  14.820   2.904
63808SOL    HW193321   1.936  14.792   2.917
63808SOL    HW293322   2.043  14.808   2.811
63809SOL     OW93323  11.982   8.304  11.861
63809SOL    HW193324  11.910   8.312  11.798
63809SOL    HW293325  11.974   8.214  11.894
63810SOL     OW93326  10.982   7.768   2.562
63810SOL    HW193327  10.978   7.691   2.505
63810SOL    HW293328  11.051   7.747   2.625
63811SOL     OW93329  11.235   2.168   6.786
63811SOL    HW193330  11.164   2.222   6.818
63811SOL    HW293331  11.274   2.219   6.714
63812SOL     OW93332  12.348  14.093  10.615
63812SOL    HW193333  12.432  14.056  10.644
63812SOL    HW293334  12.345  14.073  10.521
63813SOL     OW93335   5.662   3.906  13.480
63813SOL    HW193336   5.730   3.961  13.518
63813SOL    HW293337   5.709   3.830  13.445
63814SOL     OW93338   1.607   3.819  12.456
63814SOL    HW193339   1.521   3.784  12.431
63814SOL    HW293340   1.597   3.841  12.549
63815SOL     OW93341  11.929   3.407   4.287
63815SOL    HW193342  11.883   3.328   4.315
63815SOL    HW293343  11.860   3.466   4.257
63816SOL     OW93344   5.670  12.094  13.471
63816SOL    HW193345   5.621  12.016  13.497
63816SOL    HW293346   5.662  12.153  13.546
63817SOL     OW93347  11.924  14.371  12.663
63817SOL    HW193348  11.897  14.449  12.712
63817SOL    HW293349  11.911  14.395  12.571
63818SOL     OW93350   3.904   3.722   1.641
63818SOL    HW193351   3.873   3.711   1.730
63818SOL    HW293352   3.997   3.742   1.650
63819SOL     OW93353   7.532   6.670   0.012
63819SOL    HW193354   7.519   6.611   0.086
63819SOL    HW293355   7.450   6.719   0.006
63820SOL     OW93356  13.552   9.404   2.113
63820SOL    HW193357  13.646   9.405   2.095
63820SOL    HW293358  13.517   9.337   2.054
63821SOL     OW93359  12.766   0.879   3.658
63821SOL    HW193360  12.771   0.800   3.605
63821SOL    HW293361  12.674   0.905   3.653
63822SOL     OW93362   4.146   3.777  10.735
63822SOL    HW193363   4.111   3.863  10.714
63822SOL    HW293364   4.209   3.758  10.666
63823SOL     OW93365  11.247  13.409   4.910
63823SOL    HW193366  11.331  13.424   4.955
63823SOL    HW293367  11.224  13.494   4.874
63824SOL     OW93368   7.976   7.429   9.806
63824SOL    HW193369   7.944   7.494   9.868
63824SOL    HW293370   7.913   7.357   9.811
63825SOL     OW93371  10.186   4.096   0.853
63825SOL    HW193372  10.171   4.042   0.931
63825SOL    HW293373  10.099   4.116   0.820
63826SOL     OW93374   9.761   8.281  10.352
63826SOL    HW193375   9.726   8.228  10.423
63826SOL    HW293376   9.849   8.306  10.381
63827SOL     OW93377  10.377  14.466  10.870
63827SOL    HW193378  10.407  14.408  10.940
63827SOL    HW293379  10.283  14.447  10.862
63828SOL     OW93380  10.939   7.817   6.439
63828SOL    HW193381  10.848   7.795   6.420
63828SOL    HW293382  10.985   7.733   6.441
63829SOL     OW93383  12.588   2.642   8.590
63829SOL    HW193384  12.524   2.572   8.601
63829SOL    HW293385  12.593   2.683   8.676
63830SOL     OW93386  12.554   4.400  14.527
63830SOL    HW193387  12.635   4.450  14.524
63830SOL    HW293388  12.517   4.409  14.439
63831SOL     OW93389   7.070  10.899   2.377
63831SOL    HW193390   7.015  10.887   2.454
63831SOL    HW293391   7.158  10.913   2.413
63832SOL     OW93392  11.444   9.521   8.343
63832SOL    HW193393  11.433   9.586   8.412
63832SOL    HW293394  11.507   9.560   8.282
63833SOL     OW93395   1.516  13.223   4.039
63833SOL    HW193396   1.475  13.146   4.078
63833SOL    HW293397   1.444  13.285   4.028
63834SOL     OW93398  12.791  12.401   1.379
63834SOL    HW193399  12.731  12.474   1.364
63834SOL    HW293400  12.789  12.388   1.474
63835SOL     OW93401   6.331   4.434  11.892
63835SOL    HW193402   6.370   4.460  11.809
63835SOL    HW293403   6.312   4.340  11.881
63836SOL     OW93404  11.884   4.115  14.226
63836SOL    HW193405  11.861   4.103  14.318
63836SOL    HW293406  11.963   4.063  14.214
63837SOL     OW93407  14.867   1.505   2.552
63837SOL    HW193408  14.832   1.455   2.625
63837SOL    HW293409  14.854   1.448   2.476
63838SOL     OW93410  10.824   3.297  13.508
63838SOL    HW193411  10.893   3.259  13.562
63838SOL    HW293412  10.772   3.349  13.568
63839SOL     OW93413   7.839   4.344   7.451
63839SOL    HW193414   7.779   4.356   7.524
63839SOL    HW293415   7.851   4.249   7.444
63840SOL     OW93416   1.960   4.366  11.385
63840SOL    HW193417   2.053   4.360  11.405
63840SOL    HW293418   1.919   4.300  11.442
63841SOL     OW93419   9.954   0.298  10.105
63841SOL    HW193420   9.937   0.358  10.178
63841SOL    HW293421   9.972   0.355  10.030
63842SOL     OW93422  12.233   8.420   3.454
63842SOL    HW193423  12.178   8.459   3.387
63842SOL    HW293424  12.322   8.422   3.418
63843SOL     OW93425   0.832  12.338   3.562
63843SOL    HW193426   0.854  12.307   3.474
63843SOL    HW293427   0.838  12.434   3.555
63844SOL     OW93428   0.324   3.451  14.738
63844SOL    HW193429   0.250   3.391  14.749
63844SOL    HW293430   0.284   3.537  14.728
63845SOL     OW93431  10.339   1.235  14.160
63845SOL    HW193432  10.339   1.327  14.188
63845SOL    HW293433  10.337   1.240  14.064
63846SOL     OW93434   5.437   5.773   5.257
63846SOL    HW193435   5.417   5.811   5.342
63846SOL    HW293436   5.481   5.690   5.277
63847SOL     OW93437   2.908   3.125   0.383
63847SOL    HW193438   2.847   3.198   0.391
63847SOL    HW293439   2.962   3.147   0.307
63848SOL     OW93440   1.984  14.154  12.236
63848SOL    HW193441   2.051  14.204  12.190
63848SOL    HW293442   2.031  14.106  12.304
63849SOL     OW93443   0.133   7.886   7.568
63849SOL    HW193444   0.212   7.850   7.529
63849SOL    HW293445   0.096   7.942   7.500
63850SOL     OW93446   0.242   6.333   5.931
63850SOL    HW193447   0.306   6.401   5.913
63850SOL    HW293448   0.273   6.257   5.882
63851SOL     OW93449   8.737   0.323   7.521
63851SOL    HW193450   8.722   0.416   7.537
63851SOL    HW293451   8.651   0.288   7.500
63852SOL     OW93452  10.127   2.888   5.283
63852SOL    HW193453  10.088   2.908   5.198
63852SOL    HW293454  10.060   2.839   5.330
63853SOL     OW93455   3.085   5.228   7.139
63853SOL    HW193456   3.035   5.215   7.219
63853SOL    HW293457   3.146   5.298   7.159
63854SOL     OW93458  12.879   8.923   9.819
63854SOL    HW193459  12.804   8.880   9.779
63854SOL    HW293460  12.870   8.906   9.912
63855SOL     OW93461   5.064   2.469   7.680
63855SOL    HW193462   5.030   2.558   7.675
63855SOL    HW293463   5.156   2.479   7.706
63856SOL     OW93464   0.024   3.667   4.681
63856SOL    HW193465   0.003   3.591   4.627
63856SOL    HW293466   0.120   3.669   4.681
63857SOL     OW93467   7.625   7.847   4.579
63857SOL    HW193468   7.610   7.890   4.663
63857SOL    HW293469   7.566   7.893   4.518
63858SOL     OW93470   0.473   6.799   4.027
63858SOL    HW193471   0.499   6.781   4.118
63858SOL    HW293472   0.377   6.794   4.029
63859SOL     OW93473   2.594   4.110  10.533
63859SOL    HW193474   2.581   4.022  10.498
63859SOL    HW293475   2.523   4.121  10.597
63860SOL     OW93476   1.249   9.497  11.504
63860SOL    HW193477   1.224   9.430  11.568
63860SOL    HW293478   1.169   9.547  11.490
63861SOL     OW93479  13.061   5.142   6.440
63861SOL    HW193480  13.149   5.137   6.403
63861SOL    HW293481  13.013   5.199   6.379
63862SOL     OW93482   1.172   3.158  10.366
63862SOL    HW193483   1.112   3.094  10.326
63862SOL    HW293484   1.224   3.190  10.293
63863SOL     OW93485   7.303   4.563   0.709
63863SOL    HW193486   7.288   4.476   0.674
63863SOL    HW293487   7.398   4.574   0.709
63864SOL     OW93488   5.233  13.766   3.639
63864SOL    HW193489   5.189  13.761   3.724
63864SOL    HW293490   5.303  13.830   3.652
63865SOL     OW93491  12.181  12.010   2.634
63865SOL    HW193492  12.249  12.056   2.684
63865SOL    HW293493  12.155  12.072   2.566
63866SOL     OW93494   6.200  13.406   1.219
63866SOL    HW193495   6.106  13.420   1.220
63866SOL    HW293496   6.227  13.409   1.311
63867SOL     OW93497   2.799   5.850   3.393
63867SOL    HW193498   2.849   5.808   3.322
63867SOL    HW293499   2.708   5.839   3.368
63868SOL     OW93500  14.530   4.486   9.939
63868SOL    HW193501  14.567   4.523   9.859
63868SOL    HW293502  14.604   4.482  10.000
63869SOL     OW93503  13.121   8.269   2.659
63869SOL    HW193504  13.145   8.188   2.615
63869SOL    HW293505  13.054   8.243   2.722
63870SOL     OW93506  11.024  13.513  12.812
63870SOL    HW193507  10.971  13.518  12.892
63870SOL    HW293508  11.104  13.562  12.833
63871SOL     OW93509  14.210   5.048   4.288
63871SOL    HW193510  14.253   4.974   4.332
63871SOL    HW293511  14.263   5.063   4.210
63872SOL     OW93512   8.534  11.180   4.959
63872SOL    HW193513   8.601  11.169   4.892
63872SOL    HW293514   8.560  11.259   5.007
63873SOL     OW93515  13.226   7.095  10.247
63873SOL    HW193516  13.171   7.018  10.232
63873SOL    HW293517  13.167   7.160  10.285
63874SOL     OW93518   8.563   7.647   3.874
63874SOL    HW193519   8.546   7.623   3.783
63874SOL    HW293520   8.477   7.661   3.912
63875SOL     OW93521  13.650  13.988   7.145
63875SOL    HW193522  13.661  14.083   7.155
63875SOL    HW293523  13.672  13.971   7.053
63876SOL     OW93524   4.512   3.606   5.510
63876SOL    HW193525   4.594   3.575   5.472
63876SOL    HW293526   4.458   3.630   5.434
63877SOL     OW93527   7.042   4.988  11.426
63877SOL    HW193528   7.129   4.997  11.464
63877SOL    HW293529   7.012   4.901  11.455
63878SOL     OW93530  14.226  11.476   6.383
63878SOL    HW193531  14.308  11.520   6.361
63878SOL    HW293532  14.240  11.384   6.358
63879SOL     OW93533  13.228  10.296  10.957
63879SOL    HW193534  13.235  10.391  10.949
63879SOL    HW293535  13.234  10.280  11.051
63880SOL     OW93536  12.100  12.996   8.902
63880SOL    HW193537  12.195  13.013   8.900
63880SOL    HW293538  12.090  12.911   8.859
63881SOL     OW93539  14.706   6.638   8.916
63881SOL    HW193540  14.655   6.597   8.846
63881SOL    HW293541  14.724   6.726   8.884
63882SOL     OW93542  11.851   5.936   0.804
63882SOL    HW193543  11.927   5.988   0.831
63882SOL    HW293544  11.787   5.949   0.875
63883SOL     OW93545   7.252  11.260  11.522
63883SOL    HW193546   7.330  11.286  11.473
63883SOL    HW293547   7.282  11.189  11.579
63884SOL     OW93548   9.808   2.758   0.188
63884SOL    HW193549   9.781   2.683   0.242
63884SOL    HW293550   9.751   2.829   0.216
63885SOL     OW93551  14.773  12.350  12.933
63885SOL    HW193552  14.815  12.435  12.946
63885SOL    HW293553  14.845  12.288  12.929
63886SOL     OW93554   9.157  12.180   1.324
63886SOL    HW193555   9.125  12.164   1.235
63886SOL    HW293556   9.210  12.104   1.345
63887SOL     OW93557   4.925  10.291   6.002
63887SOL    HW193558   4.999  10.236   5.976
63887SOL    HW293559   4.904  10.342   5.924
63888SOL     OW93560  11.092   0.426   0.975
63888SOL    HW193561  11.122   0.382   0.895
63888SOL    HW293562  11.146   0.390   1.044
63889SOL     OW93563  11.340   8.460   3.852
63889SOL    HW193564  11.431   8.445   3.830
63889SOL    HW293565  11.319   8.392   3.916
63890SOL     OW93566   9.222   7.473   2.885
63890SOL    HW193567   9.209   7.450   2.977
63890SOL    HW293568   9.161   7.417   2.838
63891SOL     OW93569   3.669   2.008   4.799
63891SOL    HW193570   3.759   1.980   4.780
63891SOL    HW293571   3.622   1.993   4.717
63892SOL     OW93572   2.917   9.441   7.851
63892SOL    HW193573   2.854   9.398   7.793
63892SOL    HW293574   2.868   9.514   7.889
63893SOL     OW93575   5.161   2.805   7.483
63893SOL    HW193576   5.091   2.759   7.529
63893SOL    HW293577   5.241   2.781   7.531
63894SOL     OW93578   9.202   4.982  12.912
63894SOL    HW193579   9.260   5.032  12.855
63894SOL    HW293580   9.172   4.909  12.857
63895SOL     OW93581   4.338   6.419  14.483
63895SOL    HW193582   4.306   6.433  14.572
63895SOL    HW293583   4.348   6.507  14.447
63896SOL     OW93584  11.459   8.428   2.068
63896SOL    HW193585  11.461   8.471   2.154
63896SOL    HW293586  11.524   8.476   2.016
63897SOL     OW93587   3.089   5.038   3.186
63897SOL    HW193588   3.006   5.008   3.150
63897SOL    HW293589   3.146   5.047   3.110
63898SOL     OW93590   3.163   4.843   2.885
63898SOL    HW193591   3.251   4.813   2.909
63898SOL    HW293592   3.105   4.790   2.939
63899SOL     OW93593  12.425  11.076   9.606
63899SOL    HW193594  12.368  11.132   9.658
63899SOL    HW293595  12.497  11.053   9.665
63900SOL     OW93596  14.386   7.694   7.094
63900SOL    HW193597  14.431   7.614   7.120
63900SOL    HW293598  14.320   7.708   7.162
63901SOL     OW93599   6.450   3.127   3.067
63901SOL    HW193600   6.397   3.199   3.101
63901SOL    HW293601   6.540   3.158   3.073
63902SOL     OW93602  13.408  13.861   3.929
63902SOL    HW193603  13.406  13.922   4.003
63902SOL    HW293604  13.487  13.885   3.881
63903SOL     OW93605   7.317   4.585   2.055
63903SOL    HW193606   7.383   4.551   2.115
63903SOL    HW293607   7.276   4.658   2.103
63904SOL     OW93608  11.889   8.552   8.970
63904SOL    HW193609  11.876   8.611   9.045
63904SOL    HW293610  11.933   8.606   8.905
63905SOL     OW93611   2.022   5.323   3.840
63905SOL    HW193612   2.072   5.349   3.763
63905SOL    HW293613   2.065   5.243   3.871
63906SOL     OW93614   3.813   9.211  11.937
63906SOL    HW193615   3.756   9.174  12.004
63906SOL    HW293616   3.756   9.268  11.885
63907SOL     OW93617  13.107  13.952   7.177
63907SOL    HW193618  13.129  13.993   7.093
63907SOL    HW293619  13.108  13.858   7.158
63908SOL     OW93620   3.775   0.337   5.410
63908SOL    HW193621   3.750   0.375   5.326
63908SOL    HW293622   3.722   0.383   5.474
63909SOL     OW93623   0.459   4.361  12.772
63909SOL    HW193624   0.460   4.278  12.724
63909SOL    HW293625   0.369   4.392  12.764
63910SOL     OW93626  12.902   1.130  12.519
63910SOL    HW193627  12.985   1.083  12.518
63910SOL    HW293628  12.915   1.201  12.457
63911SOL     OW93629   6.543   6.188   6.986
63911SOL    HW193630   6.625   6.185   7.036
63911SOL    HW293631   6.487   6.123   7.028
63912SOL     OW93632   1.405   4.754   1.930
63912SOL    HW193633   1.379   4.829   1.877
63912SOL    HW293634   1.501   4.755   1.928
63913SOL     OW93635   8.182  13.797   1.790
63913SOL    HW193636   8.156  13.714   1.831
63913SOL    HW293637   8.140  13.864   1.843
63914SOL     OW93638   1.083  11.690  12.658
63914SOL    HW193639   1.152  11.755  12.648
63914SOL    HW293640   1.056  11.696  12.750
63915SOL     OW93641  13.937   8.581  11.442
63915SOL    HW193642  13.894   8.593  11.357
63915SOL    HW293643  14.020   8.628  11.435
63916SOL     OW93644   9.778   6.123  10.976
63916SOL    HW193645   9.738   6.189  11.033
63916SOL    HW293646   9.704   6.068  10.948
63917SOL     OW93647   0.422   8.833   0.414
63917SOL    HW193648   0.406   8.785   0.333
63917SOL    HW293649   0.406   8.924   0.391
63918SOL     OW93650  13.149  13.819  13.538
63918SOL    HW193651  13.230  13.869  13.544
63918SOL    HW293652  13.168  13.737  13.583
63919SOL     OW93653  10.182   8.035  10.228
63919SOL    HW193654  10.214   7.982  10.301
63919SOL    HW293655  10.120   8.096  10.268
63920SOL     OW93656   4.039   7.054   4.045
63920SOL    HW193657   4.117   7.030   4.094
63920SOL    HW293658   4.006   7.132   4.089
63921SOL     OW93659   7.216  14.451   3.317
63921SOL    HW193660   7.279  14.523   3.319
63921SOL    HW293661   7.249  14.391   3.250
63922SOL     OW93662  10.126   7.156   7.650
63922SOL    HW193663  10.178   7.095   7.598
63922SOL    HW293664  10.181   7.234   7.657
63923SOL     OW93665   7.500   5.768   6.411
63923SOL    HW193666   7.470   5.797   6.497
63923SOL    HW293667   7.570   5.830   6.388
63924SOL     OW93668  10.848  13.749   9.779
63924SOL    HW193669  10.792  13.822   9.755
63924SOL    HW293670  10.829  13.733   9.872
63925SOL     OW93671   1.039   2.737  12.189
63925SOL    HW193672   1.078   2.811  12.235
63925SOL    HW293673   0.960   2.773  12.148
63926SOL     OW93674   3.643   0.657   6.890
63926SOL    HW193675   3.715   0.700   6.937
63926SOL    HW293676   3.634   0.706   6.809
63927SOL     OW93677   7.688   8.776  12.109
63927SOL    HW193678   7.723   8.697  12.150
63927SOL    HW293679   7.603   8.750  12.075
63928SOL     OW93680   8.566  10.328  14.705
63928SOL    HW193681   8.481  10.357  14.673
63928SOL    HW293682   8.612  10.410  14.726
63929SOL     OW93683   0.714  14.118   5.370
63929SOL    HW193684   0.793  14.065   5.365
63929SOL    HW293685   0.730  14.192   5.310
63930SOL     OW93686  10.783  10.018  12.480
63930SOL    HW193687  10.860  10.038  12.427
63930SOL    HW293688  10.765   9.925  12.463
63931SOL     OW93689   7.163  11.618   5.693
63931SOL    HW193690   7.071  11.625   5.719
63931SOL    HW293691   7.186  11.706   5.663
63932SOL     OW93692  11.278   6.554  14.137
63932SOL    HW193693  11.275   6.605  14.056
63932SOL    HW293694  11.237   6.471  14.113
63933SOL     OW93695  13.458  11.421   6.944
63933SOL    HW193696  13.548  11.453   6.950
63933SOL    HW293697  13.408  11.479   7.001
63934SOL     OW93698  13.981   0.795   4.419
63934SOL    HW193699  13.936   0.711   4.413
63934SOL    HW293700  13.919   0.853   4.464
63935SOL     OW93701   7.435   8.465   4.264
63935SOL    HW193702   7.411   8.457   4.356
63935SOL    HW293703   7.480   8.383   4.244
63936SOL     OW93704   8.355   1.347  14.104
63936SOL    HW193705   8.447   1.343  14.076
63936SOL    HW293706   8.347   1.278  14.169
63937SOL     OW93707  11.654  13.122   4.724
63937SOL    HW193708  11.623  13.173   4.650
63937SOL    HW293709  11.671  13.187   4.792
63938SOL     OW93710   7.089   1.792   1.198
63938SOL    HW193711   7.057   1.841   1.274
63938SOL    HW293712   7.078   1.851   1.124
63939SOL     OW93713  11.058  10.537  10.879
63939SOL    HW193714  11.060  10.534  10.784
63939SOL    HW293715  10.988  10.477  10.904
63940SOL     OW93716   4.616   8.277   8.090
63940SOL    HW193717   4.639   8.361   8.128
63940SOL    HW293718   4.638   8.285   7.998
63941SOL     OW93719   3.729   6.030  14.479
63941SOL    HW193720   3.750   6.123  14.476
63941SOL    HW293721   3.732   6.003  14.387
63942SOL     OW93722   4.931   8.430   8.807
63942SOL    HW193723   4.988   8.460   8.878
63942SOL    HW293724   4.845   8.465   8.829
63943SOL     OW93725  12.467   2.941   7.050
63943SOL    HW193726  12.514   2.872   7.003
63943SOL    HW293727  12.413   2.983   6.982
63944SOL     OW93728  12.499   9.517  14.258
63944SOL    HW193729  12.489   9.430  14.219
63944SOL    HW293730  12.551   9.503  14.337
63945SOL     OW93731  14.187   9.930  10.858
63945SOL    HW193732  14.121   9.906  10.793
63945SOL    HW293733  14.192  10.025  10.853
63946SOL     OW93734   9.094   1.191   7.334
63946SOL    HW193735   9.160   1.228   7.275
63946SOL    HW293736   9.060   1.267   7.381
63947SOL     OW93737   1.851  14.169   5.551
63947SOL    HW193738   1.868  14.111   5.477
63947SOL    HW293739   1.936  14.210   5.569
63948SOL     OW93740   9.959  13.429   8.245
63948SOL    HW193741  10.031  13.470   8.197
63948SOL    HW293742   9.994  13.418   8.334
63949SOL     OW93743  14.336   2.414  11.129
63949SOL    HW193744  14.295   2.415  11.216
63949SOL    HW293745  14.307   2.496  11.088
63950SOL     OW93746  10.471   6.181   9.829
63950SOL    HW193747  10.441   6.191   9.920
63950SOL    HW293748  10.430   6.255   9.783
63951SOL     OW93749  11.396   9.020   7.818
63951SOL    HW193750  11.418   9.050   7.730
63951SOL    HW293751  11.474   9.038   7.870
63952SOL     OW93752   0.430   3.203   9.805
63952SOL    HW193753   0.483   3.235   9.732
63952SOL    HW293754   0.408   3.113   9.781
63953SOL     OW93755   6.253   4.643   9.415
63953SOL    HW193756   6.204   4.607   9.489
63953SOL    HW293757   6.280   4.730   9.444
63954SOL     OW93758  12.055  13.117  13.638
63954SOL    HW193759  12.059  13.067  13.719
63954SOL    HW293760  11.967  13.102  13.604
63955SOL     OW93761   1.271   0.980   0.295
63955SOL    HW193762   1.189   0.996   0.343
63955SOL    HW293763   1.243   0.942   0.212
63956SOL     OW93764   7.385   4.364   1.019
63956SOL    HW193765   7.447   4.409   0.962
63956SOL    HW293766   7.401   4.401   1.106
63957SOL     OW93767   7.528   6.609  12.427
63957SOL    HW193768   7.577   6.672  12.373
63957SOL    HW293769   7.527   6.529  12.376
63958SOL     OW93770   3.348   3.729  11.883
63958SOL    HW193771   3.383   3.716  11.795
63958SOL    HW293772   3.296   3.809  11.877
63959SOL     OW93773  10.647   7.384   7.395
63959SOL    HW193774  10.691   7.368   7.311
63959SOL    HW293775  10.717   7.412   7.453
63960SOL     OW93776   4.266   7.461   3.377
63960SOL    HW193777   4.313   7.532   3.421
63960SOL    HW293778   4.188   7.447   3.432
63961SOL     OW93779  10.179   4.304   8.592
63961SOL    HW193780  10.087   4.298   8.618
63961SOL    HW293781  10.177   4.306   8.496
63962SOL     OW93782  14.266   8.387   3.788
63962SOL    HW193783  14.171   8.394   3.791
63962SOL    HW293784  14.296   8.427   3.869
63963SOL     OW93785  12.739  10.681  13.701
63963SOL    HW193786  12.763  10.773  13.690
63963SOL    HW293787  12.643  10.681  13.700
63964SOL     OW93788   5.214   9.034   5.596
63964SOL    HW193789   5.256   8.987   5.524
63964SOL    HW293790   5.120   9.032   5.575
63965SOL     OW93791  10.401   2.868   6.850
63965SOL    HW193792  10.410   2.910   6.936
63965SOL    HW293793  10.440   2.781   6.862
63966SOL     OW93794   2.566   6.371   7.311
63966SOL    HW193795   2.617   6.315   7.369
63966SOL    HW293796   2.536   6.313   7.242
63967SOL     OW93797  10.659   8.695  11.440
63967SOL    HW193798  10.620   8.630  11.498
63967SOL    HW293799  10.708   8.753  11.499
63968SOL     OW93800  10.567   1.271   6.815
63968SOL    HW193801  10.522   1.354   6.827
63968SOL    HW293802  10.528   1.212   6.880
63969SOL     OW93803   7.877   1.803  13.876
63969SOL    HW193804   7.809   1.751  13.834
63969SOL    HW293805   7.843   1.822  13.964
63970SOL     OW93806  14.563   1.931   2.586
63970SOL    HW193807  14.590   1.863   2.524
63970SOL    HW293808  14.539   2.006   2.531
63971SOL     OW93809   1.616   4.983  13.648
63971SOL    HW193810   1.541   5.037  13.672
63971SOL    HW293811   1.584   4.929  13.576
63972SOL     OW93812   6.794  13.503  13.498
63972SOL    HW193813   6.868  13.458  13.539
63972SOL    HW293814   6.789  13.466  13.411
63973SOL     OW93815   0.962   5.595   4.333
63973SOL    HW193816   0.991   5.579   4.243
63973SOL    HW293817   1.043   5.596   4.384
63974SOL     OW93818   1.278   1.071  10.150
63974SOL    HW193819   1.283   0.991  10.098
63974SOL    HW293820   1.362   1.074  10.197
63975SOL     OW93821   0.976   0.729   6.152
63975SOL    HW193822   0.926   0.800   6.193
63975SOL    HW293823   1.047   0.712   6.214
63976SOL     OW93824   0.931   3.380   2.268
63976SOL    HW193825   0.890   3.434   2.201
63976SOL    HW293826   0.903   3.418   2.351
63977SOL     OW93827   6.364   6.634  13.401
63977SOL    HW193828   6.272   6.619  13.380
63977SOL    HW293829   6.383   6.721  13.366
63978SOL     OW93830  10.967   8.918   0.857
63978SOL    HW193831  10.947   8.967   0.777
63978SOL    HW293832  10.892   8.933   0.914
63979SOL     OW93833   3.051   0.841  11.383
63979SOL    HW193834   2.978   0.789  11.351
63979SOL    HW293835   3.085   0.886  11.306
63980SOL     OW93836   5.483  13.474   6.878
63980SOL    HW193837   5.570  13.463   6.840
63980SOL    HW293838   5.499  13.489   6.971
63981SOL     OW93839   1.952   5.784  11.888
63981SOL    HW193840   1.947   5.803  11.794
63981SOL    HW293841   1.891   5.712  11.901
63982SOL     OW93842   7.634   2.075   5.406
63982SOL    HW193843   7.539   2.075   5.391
63982SOL    HW293844   7.667   2.145   5.350
63983SOL     OW93845  14.067   4.952   4.929
63983SOL    HW193846  14.070   5.047   4.912
63983SOL    HW293847  14.036   4.945   5.019
63984SOL     OW93848   8.564   0.204  10.027
63984SOL    HW193849   8.504   0.172   9.960
63984SOL    HW293850   8.612   0.276   9.984
63985SOL     OW93851   9.640  10.988   2.628
63985SOL    HW193852   9.677  11.054   2.687
63985SOL    HW293853   9.661  10.904   2.669
63986SOL     OW93854  12.306   1.279  10.219
63986SOL    HW193855  12.233   1.268  10.158
63986SOL    HW293856  12.334   1.190  10.240
63987SOL     OW93857   4.656   7.592  11.282
63987SOL    HW193858   4.731   7.544  11.248
63987SOL    HW293859   4.580   7.548  11.243
63988SOL     OW93860   0.139  11.816  13.407
63988SOL    HW193861   0.186  11.733  13.414
63988SOL    HW293862   0.208  11.880  13.388
63989SOL     OW93863   0.556  13.834   4.252
63989SOL    HW193864   0.553  13.921   4.212
63989SOL    HW293865   0.650  13.813   4.256
63990SOL     OW93866  12.424  13.809   8.426
63990SOL    HW193867  12.440  13.733   8.482
63990SOL    HW293868  12.463  13.786   8.342
63991SOL     OW93869   3.082   0.275   7.341
63991SOL    HW193870   3.040   0.203   7.389
63991SOL    HW293871   3.030   0.352   7.363
63992SOL     OW93872   1.151   5.557  14.129
63992SOL    HW193873   1.174   5.599  14.046
63992SOL    HW293874   1.107   5.625  14.180
63993SOL     OW93875   8.808   7.364  10.614
63993SOL    HW193876   8.754   7.428  10.661
63993SOL    HW293877   8.748   7.293  10.594
63994SOL     OW93878   1.207  13.248   0.430
63994SOL    HW193879   1.242  13.335   0.451
63994SOL    HW293880   1.142  13.265   0.362
63995SOL     OW93881   8.613  12.333   5.162
63995SOL    HW193882   8.654  12.414   5.131
63995SOL    HW293883   8.651  12.319   5.249
63996SOL     OW93884   3.225   9.807   2.764
63996SOL    HW193885   3.317   9.786   2.748
63996SOL    HW293886   3.216   9.897   2.734
63997SOL     OW93887   9.777   8.981  11.502
63997SOL    HW193888   9.700   9.022  11.464
63997SOL    HW293889   9.741   8.918  11.566
63998SOL     OW93890   4.592   9.747   9.853
63998SOL    HW193891   4.609   9.684   9.924
63998SOL    HW293892   4.514   9.712   9.809
63999SOL     OW93893   1.893  10.208   0.345
63999SOL    HW193894   1.861  10.255   0.268
63999SOL    HW293895   1.873  10.116   0.328
64000SOL     OW93896  10.955   6.647  13.293
64000SOL    HW193897  10.863   6.624  13.306
64000SOL    HW293898  10.998   6.564  13.272
64001SOL     OW93899   8.862  10.423   9.519
64001SOL    HW193900   8.930  10.432   9.586
64001SOL    HW293901   8.904  10.456   9.439
64002SOL     OW93902   5.299   5.261   5.684
64002SOL    HW193903   5.245   5.183   5.670
64002SOL    HW293904   5.255   5.330   5.633
64003SOL     OW93905   4.691  11.232  11.376
64003SOL    HW193906   4.739  11.238  11.293
64003SOL    HW293907   4.620  11.295  11.368
64004SOL     OW93908  11.594  14.222  14.727
64004SOL    HW193909  11.574  14.311  14.697
64004SOL    HW293910  11.686  14.225  14.752
64005SOL     OW93911  12.748   6.758   9.410
64005SOL    HW193912  12.712   6.714   9.332
64005SOL    HW293913  12.698   6.720   9.483
64006SOL     OW93914  12.409  12.225  12.114
64006SOL    HW193915  12.423  12.167  12.189
64006SOL    HW293916  12.479  12.291  12.121
64007SOL     OW93917   8.224   4.422   5.384
64007SOL    HW193918   8.215   4.392   5.294
64007SOL    HW293919   8.300   4.375   5.418
64008SOL     OW93920   6.281   7.101   4.352
64008SOL    HW193921   6.233   7.119   4.433
64008SOL    HW293922   6.285   7.186   4.308
64009SOL     OW93923   1.876  11.986   0.576
64009SOL    HW193924   1.822  12.002   0.653
64009SOL    HW293925   1.952  11.939   0.609
64010SOL     OW93926  10.198   7.551  10.498
64010SOL    HW193927  10.184   7.477  10.438
64010SOL    HW293928  10.118   7.555  10.550
64011SOL     OW93929   4.074   5.927   5.918
64011SOL    HW193930   4.025   5.901   5.841
64011SOL    HW293931   4.152   5.872   5.917
64012SOL     OW93932   6.005  12.433   9.298
64012SOL    HW193933   5.978  12.492   9.228
64012SOL    HW293934   5.975  12.346   9.270
64013SOL     OW93935   4.632  14.794   2.689
64013SOL    HW193936   4.562  14.858   2.686
64013SOL    HW293937   4.625  14.747   2.605
64014SOL     OW93938   6.425  11.957  13.017
64014SOL    HW193939   6.353  11.898  12.996
64014SOL    HW293940   6.402  11.993  13.102
64015SOL     OW93941   4.027  12.193   6.791
64015SOL    HW193942   4.000  12.179   6.882
64015SOL    HW293943   3.996  12.115   6.745
64016SOL     OW93944   2.776   4.344  12.063
64016SOL    HW193945   2.869   4.361  12.076
64016SOL    HW293946   2.773   4.271  12.002
64017SOL     OW93947   2.925   0.680  14.231
64017SOL    HW193948   2.956   0.604  14.279
64017SOL    HW293949   2.912   0.748  14.297
64018SOL     OW93950   9.709   0.204   9.330
64018SOL    HW193951   9.767   0.156   9.389
64018SOL    HW293952   9.621   0.193   9.367
64019SOL     OW93953   0.658   8.974   8.596
64019SOL    HW193954   0.600   8.939   8.664
64019SOL    HW293955   0.635   9.066   8.589
64020SOL     OW93956  11.811   8.329  12.228
64020SOL    HW193957  11.792   8.422  12.215
64020SOL    HW293958  11.761   8.304  12.306
64021SOL     OW93959   3.488   1.136   0.482
64021SOL    HW193960   3.582   1.147   0.467
64021SOL    HW293961   3.469   1.047   0.451
64022SOL     OW93962   5.333   8.275  13.206
64022SOL    HW193963   5.410   8.236  13.246
64022SOL    HW293964   5.367   8.349  13.156
64023SOL     OW93965  14.753  12.890   2.742
64023SOL    HW193966  14.668  12.928   2.719
64023SOL    HW293967  14.733  12.799   2.764
64024SOL     OW93968  10.532  12.219   8.696
64024SOL    HW193969  10.564  12.289   8.639
64024SOL    HW293970  10.445  12.248   8.723
64025SOL     OW93971  13.230  10.166   7.172
64025SOL    HW193972  13.208  10.078   7.203
64025SOL    HW293973  13.149  10.199   7.134
64026SOL     OW93974   6.951   0.766   9.230
64026SOL    HW193975   6.889   0.818   9.179
64026SOL    HW293976   6.981   0.826   9.298
64027SOL     OW93977   5.429  12.797   2.081
64027SOL    HW193978   5.357  12.806   2.019
64027SOL    HW293979   5.444  12.886   2.114
64028SOL     OW93980   9.913   6.762  11.607
64028SOL    HW193981   9.829   6.747  11.563
64028SOL    HW293982   9.975   6.778  11.536
64029SOL     OW93983   7.382   4.181   8.828
64029SOL    HW193984   7.473   4.159   8.808
64029SOL    HW293985   7.348   4.103   8.872
64030SOL     OW93986   4.590   4.287   9.719
64030SOL    HW193987   4.611   4.311   9.809
64030SOL    HW293988   4.627   4.358   9.666
64031SOL     OW93989   2.116   4.068   8.643
64031SOL    HW193990   2.146   4.135   8.582
64031SOL    HW293991   2.118   3.987   8.591
64032SOL     OW93992   6.934  10.749   9.398
64032SOL    HW193993   7.029  10.766   9.394
64032SOL    HW293994   6.896  10.835   9.415
64033SOL     OW93995   0.561   2.112   6.683
64033SOL    HW193996   0.592   2.175   6.747
64033SOL    HW293997   0.475   2.085   6.714
64034SOL     OW93998   9.559   4.278   3.589
64034SOL    HW193999   9.646   4.263   3.625
64034SOL    HW294000   9.500   4.264   3.663
64035SOL     OW94001  14.852   1.442   7.808
64035SOL    HW194002  14.808   1.490   7.738
64035SOL    HW294003  14.781   1.399   7.856
64036SOL     OW94004  11.540   7.212   7.331
64036SOL    HW194005  11.507   7.131   7.370
64036SOL    HW294006  11.588   7.184   7.253
64037SOL     OW94007   1.196  11.122   7.439
64037SOL    HW194008   1.287  11.095   7.429
64037SOL    HW294009   1.151  11.044   7.470
64038SOL     OW94010   2.671  13.652  12.567
64038SOL    HW194011   2.755  13.611  12.545
64038SOL    HW294012   2.685  13.692  12.652
64039SOL     OW94013   2.285  13.047   7.705
64039SOL    HW194014   2.379  13.058   7.722
64039SOL    HW294015   2.248  13.028   7.791
64040SOL     OW94016  11.356   5.760  11.375
64040SOL    HW194017  11.406   5.708  11.437
64040SOL    HW294018  11.265   5.749  11.402
64041SOL     OW94019   1.884   9.049   1.870
64041SOL    HW194020   1.908   8.975   1.814
64041SOL    HW294021   1.874   9.011   1.957
64042SOL     OW94022   9.987  12.910   1.765
64042SOL    HW194023   9.998  12.955   1.681
64042SOL    HW294024  10.027  12.825   1.751
64043SOL     OW94025   1.611  10.413   9.876
64043SOL    HW194026   1.519  10.440   9.880
64043SOL    HW294027   1.635  10.425   9.784
64044SOL     OW94028   0.000   5.572  12.895
64044SOL    HW194029   0.015   5.663  12.921
64044SOL    HW294030  14.780   5.565  12.885
64045SOL     OW94031   8.133   7.435  10.036
64045SOL    HW194032   8.101   7.380   9.964
64045SOL    HW294033   8.085   7.404  10.112
64046SOL     OW94034   5.490   0.716   3.174
64046SOL    HW194035   5.514   0.680   3.089
64046SOL    HW294036   5.394   0.716   3.175
64047SOL     OW94037  11.400  11.478   1.771
64047SOL    HW194038  11.492  11.486   1.798
64047SOL    HW294039  11.358  11.556   1.806
64048SOL     OW94040   8.745   1.189   5.821
64048SOL    HW194041   8.808   1.167   5.889
64048SOL    HW294042   8.742   1.285   5.822
64049SOL     OW94043   7.484  11.981   7.994
64049SOL    HW194044   7.528  12.059   7.961
64049SOL    HW294045   7.466  12.001   8.085
64050SOL     OW94046  13.354   3.107   7.613
64050SOL    HW194047  13.436   3.091   7.659
64050SOL    HW294048  13.336   3.025   7.566
64051SOL     OW94049   0.343  14.024   2.777
64051SOL    HW194050   0.403  14.080   2.727
64051SOL    HW294051   0.280  14.085   2.815
64052SOL     OW94052   4.848  11.021   8.447
64052SOL    HW194053   4.782  10.954   8.429
64052SOL    HW294054   4.910  10.979   8.506
64053SOL     OW94055  10.077  11.450   2.518
64053SOL    HW194056  10.111  11.517   2.458
64053SOL    HW294057  10.014  11.400   2.465
64054SOL     OW94058   6.150   9.767   3.742
64054SOL    HW194059   6.090   9.697   3.769
64054SOL    HW294060   6.174   9.745   3.652
64055SOL     OW94061  13.776   6.912   2.107
64055SOL    HW194062  13.857   6.933   2.061
64055SOL    HW294063  13.779   6.963   2.188
64056SOL     OW94064   4.041   0.796   7.707
64056SOL    HW194065   4.050   0.706   7.675
64056SOL    HW294066   4.013   0.847   7.630
64057SOL     OW94067   5.348   7.851  10.827
64057SOL    HW194068   5.408   7.802  10.884
64057SOL    HW294069   5.279   7.881  10.885
64058SOL     OW94070   2.119   0.060   5.744
64058SOL    HW194071   2.112  14.852   5.792
64058SOL    HW294072   2.211   0.084   5.752
64059SOL     OW94073   4.063  11.787   0.801
64059SOL    HW194074   3.982  11.778   0.850
64059SOL    HW294075   4.121  11.835   0.860
64060SOL     OW94076   4.060   2.531   6.197
64060SOL    HW194077   4.149   2.525   6.231
64060SOL    HW294078   4.050   2.453   6.141
64061SOL     OW94079   9.386   6.759  11.365
64061SOL    HW194080   9.474   6.742  11.400
64061SOL    HW294081   9.400   6.822  11.294
64062SOL     OW94082   4.725  11.523   0.938
64062SOL    HW194083   4.765  11.496   1.020
64062SOL    HW294084   4.637  11.551   0.961
64063SOL     OW94085   1.484   5.426   4.237
64063SOL    HW194086   1.528   5.499   4.194
64063SOL    HW294087   1.456   5.369   4.165
64064SOL     OW94088   9.738  11.440   0.746
64064SOL    HW194089   9.765  11.495   0.672
64064SOL    HW294090   9.649  11.468   0.765
64065SOL     OW94091   1.189  12.683   9.472
64065SOL    HW194092   1.283  12.699   9.462
64065SOL    HW294093   1.163  12.738   9.546
64066SOL     OW94094   3.519   8.026   8.995
64066SOL    HW194095   3.547   8.118   9.000
64066SOL    HW294096   3.430   8.026   9.031
64067SOL     OW94097   6.515   9.025  11.019
64067SOL    HW194098   6.485   8.934  11.018
64067SOL    HW294099   6.583   9.028  10.951
64068SOL     OW94100   3.883   2.033   9.649
64068SOL    HW194101   3.868   1.973   9.722
64068SOL    HW294102   3.929   1.981   9.584
64069SOL     OW94103  10.069  14.863   7.633
64069SOL    HW194104  10.037   0.000   7.544
64069SOL    HW294105  10.000  14.814   7.677
64070SOL     OW94106  10.576   4.478   0.498
64070SOL    HW194107  10.483   4.487   0.522
64070SOL    HW294108  10.608   4.407   0.554
64071SOL     OW94109   4.515  10.506  10.197
64071SOL    HW194110   4.544  10.448  10.127
64071SOL    HW294111   4.491  10.587  10.153
64072SOL     OW94112   2.537  14.591   2.303
64072SOL    HW194113   2.563  14.558   2.217
64072SOL    HW294114   2.619  14.613   2.346
64073SOL     OW94115   6.940   5.447   2.669
64073SOL    HW194116   6.854   5.426   2.630
64073SOL    HW294117   6.990   5.366   2.660
64074SOL     OW94118   2.226  13.517   6.379
64074SOL    HW194119   2.275  13.469   6.312
64074SOL    HW294120   2.269  13.602   6.384
64075SOL     OW94121   0.873  10.169  13.260
64075SOL    HW194122   0.964  10.147  13.282
64075SOL    HW294123   0.842  10.094  13.208
64076SOL     OW94124   2.873   2.322  12.636
64076SOL    HW194125   2.805   2.309  12.703
64076SOL    HW294126   2.929   2.390  12.673
64077SOL     OW94127  13.068  11.035  11.728
64077SOL    HW194128  13.036  11.082  11.651
64077SOL    HW294129  13.093  11.104  11.789
64078SOL     OW94130   7.051   0.638   8.883
64078SOL    HW194131   6.969   0.605   8.847
64078SOL    HW294132   7.050   0.612   8.975
64079SOL     OW94133  10.205  13.075  10.432
64079SOL    HW194134  10.143  13.002  10.435
64079SOL    HW294135  10.228  13.083  10.340
64080SOL     OW94136   2.604   5.453  10.647
64080SOL    HW194137   2.632   5.481  10.734
64080SOL    HW294138   2.522   5.406  10.662
64081SOL     OW94139   1.191   8.703   9.338
64081SOL    HW194140   1.235   8.720   9.254
64081SOL    HW294141   1.209   8.611   9.355
64082SOL     OW94142   7.601   6.329  14.429
64082SOL    HW194143   7.585   6.316  14.336
64082SOL    HW294144   7.522   6.371  14.462
64083SOL     OW94145   4.569   5.658   1.727
64083SOL    HW194146   4.656   5.666   1.766
64083SOL    HW294147   4.543   5.749   1.709
64084SOL     OW94148   9.845   8.804   7.061
64084SOL    HW194149   9.755   8.772   7.059
64084SOL    HW294150   9.855   8.850   6.978
64085SOL     OW94151   4.292   2.125   8.679
64085SOL    HW194152   4.350   2.144   8.605
64085SOL    HW294153   4.209   2.166   8.655
64086SOL     OW94154  13.070   3.944  10.434
64086SOL    HW194155  13.093   3.855  10.410
64086SOL    HW294156  13.124   3.999  10.378
64087SOL     OW94157   7.981   2.153   9.387
64087SOL    HW194158   8.051   2.214   9.367
64087SOL    HW294159   7.946   2.127   9.302
64088SOL     OW94160  13.041   1.055   6.372
64088SOL    HW194161  13.010   1.142   6.398
64088SOL    HW294162  13.133   1.069   6.349
64089SOL     OW94163   7.358   3.570  11.271
64089SOL    HW194164   7.404   3.647  11.305
64089SOL    HW294165   7.394   3.558  11.182
64090SOL     OW94166  14.227  14.801  13.074
64090SOL    HW194167  14.180  14.800  13.157
64090SOL    HW294168  14.165  14.838  13.012
64091SOL     OW94169  11.430   0.330   3.599
64091SOL    HW194170  11.409   0.415   3.561
64091SOL    HW294171  11.389   0.266   3.541
64092SOL     OW94172   4.644   2.787   0.993
64092SOL    HW194173   4.588   2.764   1.068
64092SOL    HW294174   4.595   2.758   0.916
64093SOL     OW94175   3.554   2.456   9.977
64093SOL    HW194176   3.589   2.484   9.892
64093SOL    HW294177   3.538   2.537  10.025
64094SOL     OW94178   8.714  14.828  14.709
64094SOL    HW194179   8.789  14.791  14.756
64094SOL    HW294180   8.743  14.835  14.618
64095SOL     OW94181  12.812   6.553   3.489
64095SOL    HW194182  12.794   6.478   3.546
64095SOL    HW294183  12.726   6.594   3.477
64096SOL     OW94184   7.600   8.165   3.394
64096SOL    HW194185   7.590   8.080   3.352
64096SOL    HW294186   7.678   8.156   3.448
64097SOL     OW94187   3.288   9.082  11.526
64097SOL    HW194188   3.216   9.140  11.550
64097SOL    HW294189   3.253   8.994  11.540
64098SOL     OW94190   0.127   4.628   8.369
64098SOL    HW194191   0.084   4.667   8.445
64098SOL    HW294192   0.099   4.536   8.370
64099SOL     OW94193  10.615   0.506   7.561
64099SOL    HW194194  10.604   0.594   7.597
64099SOL    HW294195  10.568   0.449   7.621
64100SOL     OW94196   3.084   3.744   6.468
64100SOL    HW194197   3.117   3.675   6.526
64100SOL    HW294198   3.157   3.764   6.410
64101SOL     OW94199  12.536  14.608   3.743
64101SOL    HW194200  12.600  14.596   3.813
64101SOL    HW294201  12.571  14.559   3.669
64102SOL     OW94202   5.399  14.769   0.380
64102SOL    HW194203   5.352  14.806   0.454
64102SOL    HW294204   5.376  14.676   0.380
64103SOL     OW94205  12.617   7.269   1.362
64103SOL    HW194206  12.632   7.352   1.317
64103SOL    HW294207  12.593   7.208   1.292
64104SOL     OW94208  12.273   3.937   2.424
64104SOL    HW194209  12.353   3.939   2.372
64104SOL    HW294210  12.216   4.003   2.383
64105SOL     OW94211   0.569   2.928   5.307
64105SOL    HW194212   0.477   2.932   5.280
64105SOL    HW294213   0.573   2.981   5.387
64106SOL     OW94214   5.926   9.370   3.318
64106SOL    HW194215   5.994   9.303   3.333
64106SOL    HW294216   5.916   9.373   3.223
64107SOL     OW94217  11.941   2.296   3.862
64107SOL    HW194218  12.033   2.272   3.869
64107SOL    HW294219  11.917   2.325   3.950
64108SOL     OW94220   3.382  12.176   0.866
64108SOL    HW194221   3.308  12.210   0.816
64108SOL    HW294222   3.460  12.207   0.820
64109SOL     OW94223   3.939   5.606   3.222
64109SOL    HW194224   3.959   5.562   3.304
64109SOL    HW294225   3.980   5.692   3.231
64110SOL     OW94226   4.238  14.496   7.423
64110SOL    HW194227   4.244  14.522   7.332
64110SOL    HW294228   4.156  14.534   7.454
64111SOL     OW94229  11.464   9.010  10.115
64111SOL    HW194230  11.421   8.945  10.171
64111SOL    HW294231  11.544   8.966  10.085
64112SOL     OW94232  11.385   6.638   3.897
64112SOL    HW194233  11.319   6.595   3.843
64112SOL    HW294234  11.426   6.703   3.840
64113SOL     OW94235   3.276  11.729   6.606
64113SOL    HW194236   3.227  11.773   6.536
64113SOL    HW294237   3.321  11.656   6.563
64114SOL     OW94238   0.003   0.501   0.085
64114SOL    HW194239  14.844   0.589   0.072
64114SOL    HW294240   0.088   0.514   0.127
64115SOL     OW94241  13.655   3.356  11.219
64115SOL    HW194242  13.620   3.294  11.283
64115SOL    HW294243  13.578   3.407  11.191
64116SOL     OW94244  10.693  13.552   5.497
64116SOL    HW194245  10.656  13.464   5.493
64116SOL    HW294246  10.711  13.566   5.590
64117SOL     OW94247   3.286   7.940  13.011
64117SOL    HW194248   3.363   7.925  12.957
64117SOL    HW294249   3.212   7.910  12.958
64118SOL     OW94250   1.246  12.715   5.412
64118SOL    HW194251   1.265  12.747   5.500
64118SOL    HW294252   1.292  12.777   5.354
64119SOL     OW94253   7.348  10.266   5.338
64119SOL    HW194254   7.432  10.234   5.370
64119SOL    HW294255   7.356  10.261   5.242
64120SOL     OW94256   9.028  12.464   9.124
64120SOL    HW194257   9.002  12.394   9.184
64120SOL    HW294258   9.072  12.528   9.180
64121SOL     OW94259   2.785   5.646   1.112
64121SOL    HW194260   2.833   5.728   1.121
64121SOL    HW294261   2.704   5.660   1.162
64122SOL     OW94262   0.197  12.827  14.809
64122SOL    HW194263   0.285  12.864  14.821
64122SOL    HW294264   0.156  12.883  14.744
64123SOL     OW94265   6.170   0.473   6.344
64123SOL    HW194266   6.202   0.540   6.284
64123SOL    HW294267   6.244   0.414   6.355
64124SOL     OW94268   0.848  13.623  13.489
64124SOL    HW194269   0.797  13.695  13.526
64124SOL    HW294270   0.906  13.664  13.425
64125SOL     OW94271  13.033   4.275   4.465
64125SOL    HW194272  13.107   4.288   4.406
64125SOL    HW294273  12.994   4.362   4.474
64126SOL     OW94274  14.256   1.577   5.161
64126SOL    HW194275  14.254   1.482   5.155
64126SOL    HW294276  14.265   1.594   5.255
64127SOL     OW94277   6.863  11.647   0.702
64127SOL    HW194278   6.948  11.686   0.686
64127SOL    HW294279   6.848  11.589   0.627
64128SOL     OW94280   9.255   3.466  14.005
64128SOL    HW194281   9.160   3.471  14.013
64128SOL    HW294282   9.280   3.387  14.052
64129SOL     OW94283   5.330  12.936  14.841
64129SOL    HW194284   5.396  12.983  14.790
64129SOL    HW294285   5.287  12.879  14.777
64130SOL     OW94286   6.179   1.574   8.288
64130SOL    HW194287   6.254   1.633   8.286
64130SOL    HW294288   6.167   1.552   8.380
64131SOL     OW94289   0.557  11.180   8.480
64131SOL    HW194290   0.463  11.180   8.462
64131SOL    HW294291   0.583  11.272   8.466
64132SOL     OW94292   4.320  14.305   3.931
64132SOL    HW194293   4.296  14.378   3.988
64132SOL    HW294294   4.291  14.227   3.978
64133SOL     OW94295   4.952   6.123   3.261
64133SOL    HW194296   4.946   6.032   3.291
64133SOL    HW294297   5.043   6.133   3.232
64134SOL     OW94298   7.591  13.026  10.225
64134SOL    HW194299   7.598  12.978  10.142
64134SOL    HW294300   7.653  13.098  10.215
64135SOL     OW94301   0.889   9.226  14.550
64135SOL    HW194302   0.980   9.228  14.520
64135SOL    HW294303   0.845   9.167  14.489
64136SOL     OW94304  13.606   8.346   1.713
64136SOL    HW194305  13.557   8.419   1.752
64136SOL    HW294306  13.580   8.270   1.765
64137SOL     OW94307  13.523   9.009  11.759
64137SOL    HW194308  13.575   9.050  11.690
64137SOL    HW294309  13.465   8.949  11.713
64138SOL     OW94310   6.045   7.846   5.505
64138SOL    HW194311   6.062   7.765   5.456
64138SOL    HW294312   6.098   7.912   5.461
64139SOL     OW94313  13.424  10.561   0.579
64139SOL    HW194314  13.400  10.549   0.487
64139SOL    HW294315  13.510  10.518   0.587
64140SOL     OW94316   0.530   4.801  13.197
64140SOL    HW194317   0.548   4.782  13.105
64140SOL    HW294318   0.436   4.820  13.199
64141SOL     OW94319   8.743  11.292  12.081
64141SOL    HW194320   8.664  11.347  12.081
64141SOL    HW294321   8.731  11.231  12.153
64142SOL     OW94322   8.215  11.950   6.818
64142SOL    HW194323   8.148  11.990   6.763
64142SOL    HW294324   8.205  11.992   6.903
64143SOL     OW94325   0.593   6.941   2.851
64143SOL    HW194326   0.545   7.012   2.893
64143SOL    HW294327   0.527   6.893   2.801
64144SOL     OW94328   1.643   0.905   8.752
64144SOL    HW194329   1.690   0.960   8.689
64144SOL    HW294330   1.650   0.817   8.716
64145SOL     OW94331   3.508   2.119   7.111
64145SOL    HW194332   3.519   2.080   7.025
64145SOL    HW294333   3.423   2.163   7.106
64146SOL     OW94334  14.324   7.759   9.917
64146SOL    HW194335  14.260   7.708   9.867
64146SOL    HW294336  14.390   7.785   9.852
64147SOL     OW94337  10.810   8.797  14.141
64147SOL    HW194338  10.904   8.788  14.129
64147SOL    HW294339  10.773   8.719  14.101
64148SOL     OW94340  10.975  11.557   7.251
64148SOL    HW194341  11.004  11.474   7.289
64148SOL    HW294342  11.013  11.624   7.309
64149SOL     OW94343  14.513   8.792   5.234
64149SOL    HW194344  14.477   8.788   5.146
64149SOL    HW294345  14.541   8.883   5.244
64150SOL     OW94346   8.864   5.571   5.194
64150SOL    HW194347   8.783   5.597   5.152
64150SOL    HW294348   8.866   5.620   5.276
64151SOL     OW94349   0.952   8.467   7.392
64151SOL    HW194350   0.866   8.508   7.394
64151SOL    HW294351   0.941   8.384   7.438
64152SOL     OW94352   7.933  10.606  13.598
64152SOL    HW194353   7.898  10.524  13.632
64152SOL    HW294354   7.924  10.668  13.670
64153SOL     OW94355  13.342   3.385   8.440
64153SOL    HW194356  13.271   3.323   8.423
64153SOL    HW294357  13.418   3.346   8.398
64154SOL     OW94358   4.662  11.504   4.001
64154SOL    HW194359   4.647  11.409   3.998
64154SOL    HW294360   4.575  11.541   4.019
64155SOL     OW94361   8.432  11.903   0.512
64155SOL    HW194362   8.415  11.842   0.440
64155SOL    HW294363   8.431  11.989   0.471
64156SOL     OW94364   0.550   0.629   0.282
64156SOL    HW194365   0.504   0.550   0.310
64156SOL    HW294366   0.521   0.643   0.192
64157SOL     OW94367   9.706   6.265  10.154
64157SOL    HW194368   9.738   6.340  10.204
64157SOL    HW294369   9.779   6.242  10.096
64158SOL     OW94370   9.421   8.395  14.139
64158SOL    HW194371   9.454   8.313  14.103
64158SOL    HW294372   9.348   8.418  14.082
64159SOL     OW94373   3.615   7.824  12.061
64159SOL    HW194374   3.574   7.873  11.990
64159SOL    HW294375   3.644   7.891  12.123
64160SOL     OW94376  13.679   4.267   8.466
64160SOL    HW194377  13.749   4.332   8.453
64160SOL    HW294378  13.607   4.298   8.411
64161SOL     OW94379  13.606  12.235   6.413
64161SOL    HW194380  13.605  12.231   6.318
64161SOL    HW294381  13.545  12.166   6.441
64162SOL     OW94382   3.375  12.561  10.122
64162SOL    HW194383   3.464  12.568  10.088
64162SOL    HW294384   3.326  12.627  10.073
64163SOL     OW94385   2.638   0.501   2.365
64163SOL    HW194386   2.686   0.529   2.443
64163SOL    HW294387   2.648   0.574   2.304
64164SOL     OW94388   7.309   9.087   1.169
64164SOL    HW194389   7.286   9.112   1.259
64164SOL    HW294390   7.338   9.168   1.128
64165SOL     OW94391   2.883   9.826  13.606
64165SOL    HW194392   2.942   9.887  13.651
64165SOL    HW294393   2.904   9.836  13.514
64166SOL     OW94394   1.991   3.071  12.510
64166SOL    HW194395   1.905   3.031  12.497
64166SOL    HW294396   2.044   3.039  12.437
64167SOL     OW94397   8.685   6.174   6.945
64167SOL    HW194398   8.708   6.081   6.947
64167SOL    HW294399   8.766   6.218   6.921
64168SOL     OW94400   0.630   8.524   3.511
64168SOL    HW194401   0.678   8.514   3.429
64168SOL    HW294402   0.695   8.555   3.574
64169SOL     OW94403  11.064   3.471  11.112
64169SOL    HW194404  11.126   3.537  11.143
64169SOL    HW294405  10.981   3.495  11.153
64170SOL     OW94406  12.197  10.305  13.394
64170SOL    HW194407  12.103  10.294  13.378
64170SOL    HW294408  12.239  10.272  13.315
64171SOL     OW94409   3.471   2.215  10.642
64171SOL    HW194410   3.523   2.295  10.648
64171SOL    HW294411   3.380   2.245  10.645
64172SOL     OW94412  14.830   1.431  13.623
64172SOL    HW194413  14.842   1.507  13.680
64172SOL    HW294414   0.041   1.419  13.581
64173SOL     OW94415   5.411  13.057   1.376
64173SOL    HW194416   5.326  13.012   1.382
64173SOL    HW294417   5.405  13.128   1.439
64174SOL     OW94418   4.773   2.430   1.376
64174SOL    HW194419   4.770   2.386   1.460
64174SOL    HW294420   4.700   2.393   1.326
64175SOL     OW94421  11.111   0.982  14.169
64175SOL    HW194422  11.190   0.936  14.197
64175SOL    HW294423  11.142   1.063  14.131
64176SOL     OW94424  12.923   2.808  12.170
64176SOL    HW194425  12.864   2.874  12.134
64176SOL    HW294426  12.951   2.842  12.254
64177SOL     OW94427   7.909   5.009   1.672
64177SOL    HW194428   7.859   5.034   1.749
64177SOL    HW294429   7.942   4.921   1.693
64178SOL     OW94430   7.503   8.044   5.720
64178SOL    HW194431   7.435   7.979   5.741
64178SOL    HW294432   7.583   8.007   5.755
64179SOL     OW94433   3.849   6.300  10.584
64179SOL    HW194434   3.854   6.267  10.674
64179SOL    HW294435   3.931   6.270  10.544
64180SOL     OW94436  11.233   8.172  12.926
64180SOL    HW194437  11.177   8.214  12.861
64180SOL    HW294438  11.184   8.094  12.954
64181SOL     OW94439  11.791  13.191   1.953
64181SOL    HW194440  11.704  13.209   1.989
64181SOL    HW294441  11.775  13.171   1.861
64182SOL     OW94442   1.056   8.549   4.091
64182SOL    HW194443   1.020   8.486   4.153
64182SOL    HW294444   1.091   8.619   4.145
64183SOL     OW94445   6.853  14.675   5.935
64183SOL    HW194446   6.937  14.670   5.981
64183SOL    HW294447   6.873  14.723   5.855
64184SOL     OW94448  10.089   3.137  12.538
64184SOL    HW194449  10.155   3.199  12.507
64184SOL    HW294450  10.115   3.117  12.628
64185SOL     OW94451   8.850  12.259  10.512
64185SOL    HW194452   8.855  12.238  10.419
64185SOL    HW294453   8.905  12.193  10.555
64186SOL     OW94454   6.498  12.461  11.801
64186SOL    HW194455   6.570  12.511  11.840
64186SOL    HW294456   6.474  12.397  11.868
64187SOL     OW94457  10.131  10.658   8.598
64187SOL    HW194458  10.210  10.676   8.649
64187SOL    HW294459  10.074  10.609   8.657
64188SOL     OW94460   4.810   0.250  13.643
64188SOL    HW194461   4.755   0.263  13.719
64188SOL    HW294462   4.770   0.304  13.574
64189SOL     OW94463   6.501  12.899   5.992
64189SOL    HW194464   6.509  12.985   5.952
64189SOL    HW294465   6.565  12.844   5.946
64190SOL     OW94466   0.418  14.584   7.769
64190SOL    HW194467   0.502  14.538   7.772
64190SOL    HW294468   0.352  14.514   7.771
64191SOL     OW94469   2.821   1.617  10.053
64191SOL    HW194470   2.860   1.562  10.121
64191SOL    HW294471   2.764   1.678  10.100
64192SOL     OW94472   6.814  11.498  10.221
64192SOL    HW194473   6.839  11.515  10.312
64192SOL    HW294474   6.761  11.573  10.196
64193SOL     OW94475   1.957   3.794  11.981
64193SOL    HW194476   1.965   3.877  12.029
64193SOL    HW294477   1.863   3.784  11.965
64194SOL     OW94478   7.580  10.584   4.600
64194SOL    HW194479   7.493  10.615   4.577
64194SOL    HW294480   7.635  10.663   4.600
64195SOL     OW94481   4.069  14.751   0.055
64195SOL    HW194482   4.028  14.683   0.001
64195SOL    HW294483   4.095  14.819  14.867
64196SOL     OW94484   8.782  12.937  10.624
64196SOL    HW194485   8.705  12.880  10.625
64196SOL    HW294486   8.767  12.997  10.698
64197SOL     OW94487   0.900   3.106   6.307
64197SOL    HW194488   0.904   3.021   6.264
64197SOL    HW294489   0.973   3.155   6.267
64198SOL     OW94490   7.608  14.215   6.380
64198SOL    HW194491   7.656  14.237   6.460
64198SOL    HW294492   7.633  14.124   6.361
64199SOL     OW94493   7.551   0.423   3.894
64199SOL    HW194494   7.565   0.333   3.922
64199SOL    HW294495   7.637   0.464   3.898
64200SOL     OW94496  11.080   6.088  12.838
64200SOL    HW194497  11.114   6.177  12.850
64200SOL    HW294498  11.019   6.076  12.911
64201SOL     OW94499  13.331   4.066  11.365
64201SOL    HW194500  13.403   4.041  11.307
64201SOL    HW294501  13.255   4.019  11.331
64202SOL     OW94502  14.297   9.796   8.453
64202SOL    HW194503  14.334   9.878   8.485
64202SOL    HW294504  14.212   9.820   8.417
64203SOL     OW94505  12.590   6.041   5.190
64203SOL    HW194506  12.509   6.086   5.216
64203SOL    HW294507  12.637   6.106   5.137
64204SOL     OW94508   7.563   8.025   0.142
64204SOL    HW194509   7.523   8.034   0.229
64204SOL    HW294510   7.656   8.013   0.161
64205SOL     OW94511   8.808  13.570  13.726
64205SOL    HW194512   8.756  13.511  13.781
64205SOL    HW294513   8.750  13.594  13.654
64206SOL     OW94514   5.362   6.422   3.285
64206SOL    HW194515   5.410   6.505   3.292
64206SOL    HW294516   5.321   6.410   3.371
64207SOL     OW94517   3.355   5.038   3.050
64207SOL    HW194518   3.329   4.961   2.999
64207SOL    HW294519   3.450   5.034   3.052
64208SOL     OW94520  12.451   5.535   6.424
64208SOL    HW194521  12.362   5.530   6.460
64208SOL    HW294522  12.454   5.621   6.382
64209SOL     OW94523   7.039   3.921   6.184
64209SOL    HW194524   6.953   3.957   6.204
64209SOL    HW294525   7.042   3.838   6.232
64210SOL     OW94526  11.707   4.449   2.339
64210SOL    HW194527  11.712   4.387   2.267
64210SOL    HW294528  11.649   4.408   2.403
64211SOL     OW94529   6.031  11.653   2.487
64211SOL    HW194530   6.087  11.701   2.426
64211SOL    HW294531   5.966  11.717   2.517
64212SOL     OW94532   3.488   0.269   9.888
64212SOL    HW194533   3.448   0.315   9.962
64212SOL    HW294534   3.430   0.195   9.872
64213SOL     OW94535   1.550   0.500   2.926
64213SOL    HW194536   1.465   0.490   2.969
64213SOL    HW294537   1.603   0.428   2.960
64214SOL     OW94538  13.915  13.901   3.532
64214SOL    HW194539  13.908  13.989   3.495
64214SOL    HW294540  13.941  13.915   3.623
64215SOL     OW94541   5.544   9.380   5.686
64215SOL    HW194542   5.523   9.469   5.657
64215SOL    HW294543   5.472   9.355   5.743
64216SOL     OW94544   9.513   2.439  12.754
64216SOL    HW194545   9.454   2.404  12.688
64216SOL    HW294546   9.531   2.528  12.725
64217SOL     OW94547   3.161  14.864   7.135
64217SOL    HW194548   3.081   0.002   7.186
64217SOL    HW294549   3.143  14.787   7.081
64218SOL     OW94550   7.852  10.961  10.938
64218SOL    HW194551   7.779  11.018  10.965
64218SOL    HW294552   7.925  10.988  10.994
64219SOL     OW94553   9.932  13.943  14.792
64219SOL    HW194554  10.027  13.953  14.786
64219SOL    HW294555   9.899  13.971  14.706
64220SOL     OW94556   5.268   3.520   5.489
64220SOL    HW194557   5.329   3.457   5.527
64220SOL    HW294558   5.192   3.468   5.464
64221SOL     OW94559  10.848  11.240  10.225
64221SOL    HW194560  10.801  11.272  10.148
64221SOL    HW294561  10.785  11.185  10.270
64222SOL     OW94562   6.104   5.162   1.733
64222SOL    HW194563   6.054   5.090   1.771
64222SOL    HW294564   6.041   5.234   1.727
64223SOL     OW94565  14.352  10.135   7.059
64223SOL    HW194566  14.347  10.168   6.970
64223SOL    HW294567  14.387  10.208   7.110
64224SOL     OW94568  11.523  10.398   7.683
64224SOL    HW194569  11.436  10.357   7.674
64224SOL    HW294570  11.516  10.451   7.762
64225SOL     OW94571   6.902   9.255   8.160
64225SOL    HW194572   6.971   9.309   8.122
64225SOL    HW294573   6.931   9.237   8.249
64226SOL     OW94574   0.645   0.493   7.371
64226SOL    HW194575   0.740   0.506   7.369
64226SOL    HW294576   0.614   0.529   7.288
64227SOL     OW94577   7.639   8.760  13.533
64227SOL    HW194578   7.572   8.746  13.467
64227SOL    HW294579   7.675   8.847  13.513
64228SOL     OW94580  14.602   1.725   3.926
64228SOL    HW194581  14.574   1.671   3.851
64228SOL    HW294582  14.578   1.814   3.902
64229SOL     OW94583   9.228   0.554  13.990
64229SOL    HW194584   9.136   0.534  13.975
64229SOL    HW294585   9.245   0.631  13.936
64230SOL     OW94586   6.978  11.763   2.706
64230SOL    HW194587   6.930  11.840   2.736
64230SOL    HW294588   7.070  11.790   2.709
64231SOL     OW94589   5.040   9.939   6.470
64231SOL    HW194590   5.091   9.905   6.397
64231SOL    HW294591   4.986  10.008   6.432
64232SOL     OW94592   5.406  11.760   4.413
64232SOL    HW194593   5.344  11.700   4.455
64232SOL    HW294594   5.359  11.843   4.408
64233SOL     OW94595  13.190  10.096   2.627
64233SOL    HW194596  13.281  10.088   2.597
64233SOL    HW294597  13.160  10.006   2.639
64234SOL     OW94598  13.877   4.355   4.178
64234SOL    HW194599  13.907   4.281   4.126
64234SOL    HW294600  13.797   4.384   4.135
64235SOL     OW94601  13.021  11.338   3.584
64235SOL    HW194602  12.962  11.394   3.634
64235SOL    HW294603  12.967  11.302   3.514
64236SOL     OW94604   0.585   2.090   3.476
64236SOL    HW194605   0.639   2.121   3.549
64236SOL    HW294606   0.648   2.065   3.408
64237SOL     OW94607   6.932   0.434   7.461
64237SOL    HW194608   6.987   0.411   7.536
64237SOL    HW294609   6.964   0.520   7.434
64238SOL     OW94610  13.969   4.186  13.810
64238SOL    HW194611  13.957   4.272  13.849
64238SOL    HW294612  13.882   4.162  13.778
64239SOL     OW94613   2.951  12.312   7.641
64239SOL    HW194614   3.027  12.256   7.627
64239SOL    HW294615   2.890  12.286   7.572
64240SOL     OW94616   5.040   1.063  10.476
64240SOL    HW194617   5.109   1.097  10.419
64240SOL    HW294618   5.052   1.111  10.558
64241SOL     OW94619   1.158   6.393   1.497
64241SOL    HW194620   1.237   6.446   1.487
64241SOL    HW294621   1.098   6.449   1.546
64242SOL     OW94622   0.134  12.378   0.461
64242SOL    HW194623   0.153  12.303   0.405
64242SOL    HW294624   0.041  12.394   0.449
64243SOL     OW94625  10.433  14.321   3.404
64243SOL    HW194626  10.417  14.387   3.472
64243SOL    HW294627  10.424  14.369   3.321
64244SOL     OW94628   5.182  10.231   2.663
64244SOL    HW194629   5.277  10.225   2.661
64244SOL    HW294630   5.158  10.198   2.749
64245SOL     OW94631   2.774  13.482  10.918
64245SOL    HW194632   2.818  13.564  10.898
64245SOL    HW294633   2.830  13.440  10.983
64246SOL     OW94634   2.445   5.511  11.251
64246SOL    HW194635   2.428   5.520  11.345
64246SOL    HW294636   2.455   5.417  11.237
64247SOL     OW94637   5.133   8.459  12.942
64247SOL    HW194638   5.147   8.523  13.011
64247SOL    HW294639   5.222   8.437  12.912
64248SOL     OW94640   2.858   8.578  14.128
64248SOL    HW194641   2.774   8.565  14.172
64248SOL    HW294642   2.905   8.496  14.143
64249SOL     OW94643   4.138  10.472  11.383
64249SOL    HW194644   4.230  10.487  11.403
64249SOL    HW294645   4.105  10.558  11.355
64250SOL     OW94646  12.097   8.049  13.718
64250SOL    HW194647  12.175   7.994  13.726
64250SOL    HW294648  12.052   8.016  13.640
64251SOL     OW94649   2.263  11.071   4.709
64251SOL    HW194650   2.348  11.086   4.668
64251SOL    HW294651   2.228  11.159   4.727
64252SOL     OW94652   8.137   1.236   0.036
64252SOL    HW194653   8.150   1.317   0.086
64252SOL    HW294654   8.049   1.207   0.059
64253SOL     OW94655  10.542   1.991   2.404
64253SOL    HW194656  10.581   1.952   2.482
64253SOL    HW294657  10.464   2.036   2.437
64254SOL     OW94658   1.663   3.990   4.178
64254SOL    HW194659   1.570   4.012   4.166
64254SOL    HW294660   1.680   3.922   4.112
64255SOL     OW94661  12.378  10.162   0.846
64255SOL    HW194662  12.395  10.220   0.772
64255SOL    HW294663  12.458  10.164   0.898
64256SOL     OW94664   8.768  14.158  14.015
64256SOL    HW194665   8.743  14.214  14.089
64256SOL    HW294666   8.734  14.071  14.038
64257SOL     OW94667   0.908   5.472   1.929
64257SOL    HW194668   0.899   5.444   1.838
64257SOL    HW294669   0.828   5.442   1.971
64258SOL     OW94670   7.305   7.166   7.148
64258SOL    HW194671   7.388   7.147   7.191
64258SOL    HW294672   7.240   7.116   7.199
64259SOL     OW94673   5.139  10.971   4.595
64259SOL    HW194674   5.234  10.971   4.583
64259SOL    HW294675   5.110  11.057   4.566
64260SOL     OW94676   1.938  12.834   4.508
64260SOL    HW194677   1.975  12.811   4.593
64260SOL    HW294678   1.871  12.768   4.492
64261SOL     OW94679   2.939  11.081   0.807
64261SOL    HW194680   2.967  10.997   0.845
64261SOL    HW294681   2.972  11.147   0.868
64262SOL     OW94682  13.658   4.687  11.356
64262SOL    HW194683  13.708   4.665  11.277
64262SOL    HW294684  13.597   4.614  11.366
64263SOL     OW94685  11.417   4.993   3.390
64263SOL    HW194686  11.437   5.086   3.376
64263SOL    HW294687  11.458   4.949   3.315
64264SOL     OW94688   3.617   2.951   0.591
64264SOL    HW194689   3.579   2.913   0.512
64264SOL    HW294690   3.584   3.041   0.593
64265SOL     OW94691   0.967   9.426   6.734
64265SOL    HW194692   0.937   9.427   6.644
64265SOL    HW294693   1.057   9.394   6.729
64266SOL     OW94694  12.259   4.826   5.336
64266SOL    HW194695  12.233   4.745   5.381
64266SOL    HW294696  12.321   4.867   5.396
64267SOL     OW94697  13.083  13.399  13.910
64267SOL    HW194698  13.172  13.432  13.924
64267SOL    HW294699  13.053  13.373  13.997
64268SOL     OW94700   4.247   7.446   0.060
64268SOL    HW194701   4.214   7.534   0.042
64268SOL    HW294702   4.184   7.409   0.123
64269SOL     OW94703   1.941   0.443   9.096
64269SOL    HW194704   1.939   0.524   9.147
64269SOL    HW294705   2.004   0.460   9.026
64270SOL     OW94706   7.447   5.039   3.286
64270SOL    HW194707   7.466   4.976   3.356
64270SOL    HW294708   7.358   5.018   3.258
64271SOL     OW94709   5.208  11.675   9.464
64271SOL    HW194710   5.142  11.614   9.431
64271SOL    HW294711   5.272  11.682   9.393
64272SOL     OW94712   2.948   7.859   7.557
64272SOL    HW194713   3.032   7.877   7.599
64272SOL    HW294714   2.905   7.944   7.551
64273SOL     OW94715   2.769   7.641   3.900
64273SOL    HW194716   2.842   7.593   3.940
64273SOL    HW294717   2.788   7.733   3.919
64274SOL     OW94718   7.270  13.061  11.018
64274SOL    HW194719   7.340  13.078  11.080
64274SOL    HW294720   7.190  13.073  11.070
64275SOL     OW94721   7.717   0.037  13.045
64275SOL    HW194722   7.753  14.842  12.990
64275SOL    HW294723   7.749   0.118  13.004
64276SOL     OW94724   2.222   7.203  11.985
64276SOL    HW194725   2.217   7.289  12.027
64276SOL    HW294726   2.143   7.200  11.930
64277SOL     OW94727   4.581   0.694  13.401
64277SOL    HW194728   4.518   0.685  13.472
64277SOL    HW294729   4.527   0.706  13.322
64278SOL     OW94730  12.291   4.760   4.321
64278SOL    HW194731  12.377   4.791   4.293
64278SOL    HW294732  12.276   4.803   4.405
64279SOL     OW94733   0.016   4.225   0.881
64279SOL    HW194734   0.004   4.215   0.975
64279SOL    HW294735   0.102   4.264   0.871
64280SOL     OW94736   9.934   2.211   3.931
64280SOL    HW194737   9.963   2.168   4.012
64280SOL    HW294738   9.858   2.159   3.903
64281SOL     OW94739   8.461   8.069   5.934
64281SOL    HW194740   8.457   8.005   5.863
64281SOL    HW294741   8.374   8.066   5.974
64282SOL     OW94742   5.242   2.649   3.605
64282SOL    HW194743   5.306   2.720   3.607
64282SOL    HW294744   5.281   2.582   3.549
64283SOL     OW94745   7.895   6.023  14.811
64283SOL    HW194746   7.936   6.073   0.007
64283SOL    HW294747   7.887   6.086  14.739
64284SOL     OW94748   3.463  13.002   2.687
64284SOL    HW194749   3.467  13.037   2.776
64284SOL    HW294750   3.393  12.937   2.691
64285SOL     OW94751   9.450  14.671   5.188
64285SOL    HW194752   9.523  14.726   5.158
64285SOL    HW294753   9.440  14.693   5.280
64286SOL     OW94754   3.223   0.377  12.336
64286SOL    HW194755   3.214   0.361  12.242
64286SOL    HW294756   3.220   0.289  12.375
64287SOL     OW94757   6.153   9.270   1.892
64287SOL    HW194758   6.089   9.238   1.957
64287SOL    HW294759   6.100   9.316   1.827
64288SOL     OW94760  10.242  10.869   1.797
64288SOL    HW194761  10.279  10.869   1.886
64288SOL    HW294762  10.313  10.838   1.741
64289SOL     OW94763   8.214   0.033  10.712
64289SOL    HW194764   8.120   0.026  10.728
64289SOL    HW294765   8.221   0.088  10.634
64290SOL     OW94766   6.391  13.878  12.183
64290SOL    HW194767   6.479  13.915  12.173
64290SOL    HW294768   6.333  13.955  12.183
64291SOL     OW94769  10.571   2.940  14.225
64291SOL    HW194770  10.583   2.968  14.316
64291SOL    HW294771  10.602   2.849  14.224
64292SOL     OW94772   9.415   1.741   8.525
64292SOL    HW194773   9.346   1.680   8.550
64292SOL    HW294774   9.489   1.718   8.582
64293SOL     OW94775   4.238  12.495   1.954
64293SOL    HW194776   4.225  12.516   1.862
64293SOL    HW294777   4.273  12.406   1.953
64294SOL     OW94778   5.338  11.419   2.802
64294SOL    HW194779   5.408  11.461   2.852
64294SOL    HW294780   5.332  11.469   2.721
64295SOL     OW94781  11.892   9.815   1.521
64295SOL    HW194782  11.946   9.883   1.480
64295SOL    HW294783  11.855   9.766   1.447
64296SOL     OW94784  12.607  10.992  12.972
64296SOL    HW194785  12.699  11.016  12.978
64296SOL    HW294786  12.587  10.997  12.878
64297SOL     OW94787   5.946   7.104   1.885
64297SOL    HW194788   5.894   7.149   1.818
64297SOL    HW294789   6.026   7.156   1.891
64298SOL     OW94790   7.632   3.002  10.466
64298SOL    HW194791   7.606   3.045  10.547
64298SOL    HW294792   7.583   2.919  10.466
64299SOL     OW94793  13.842  13.586   3.242
64299SOL    HW194794  13.789  13.553   3.170
64299SOL    HW294795  13.828  13.681   3.240
64300SOL     OW94796   9.338  14.584   9.691
64300SOL    HW194797   9.375  14.505   9.731
64300SOL    HW294798   9.359  14.575   9.598
64301SOL     OW94799   6.419   8.646   1.784
64301SOL    HW194800   6.349   8.600   1.737
64301SOL    HW294801   6.494   8.643   1.723
64302SOL     OW94802   3.503   4.463  10.348
64302SOL    HW194803   3.487   4.548  10.307
64302SOL    HW294804   3.578   4.478  10.405
64303SOL     OW94805   3.365   5.808   9.817
64303SOL    HW194806   3.284   5.759   9.800
64303SOL    HW294807   3.397   5.831   9.729
64304SOL     OW94808   1.286   4.074   3.253
64304SOL    HW194809   1.315   4.159   3.218
64304SOL    HW294810   1.326   4.009   3.196
64305SOL     OW94811   5.634   1.876  13.711
64305SOL    HW194812   5.682   1.809  13.760
64305SOL    HW294813   5.544   1.843  13.707
64306SOL     OW94814   4.151  12.966   3.751
64306SOL    HW194815   4.097  12.905   3.701
64306SOL    HW294816   4.136  12.943   3.842
64307SOL     OW94817  14.215   7.112   1.998
64307SOL    HW194818  14.258   7.046   1.944
64307SOL    HW294819  14.252   7.196   1.968
64308SOL     OW94820  12.121   2.796   2.375
64308SOL    HW194821  12.039   2.838   2.347
64308SOL    HW294822  12.130   2.720   2.317
64309SOL     OW94823   2.196   4.545   6.297
64309SOL    HW194824   2.232   4.507   6.378
64309SOL    HW294825   2.263   4.607   6.269
64310SOL     OW94826  11.851  10.607  10.314
64310SOL    HW194827  11.839  10.693  10.274
64310SOL    HW294828  11.930  10.572  10.272
64311SOL     OW94829   8.092   4.856  10.672
64311SOL    HW194830   8.002   4.833  10.695
64311SOL    HW294831   8.146   4.803  10.730
64312SOL     OW94832   6.079   0.863   6.505
64312SOL    HW194833   6.022   0.809   6.559
64312SOL    HW294834   6.114   0.803   6.439
64313SOL     OW94835   7.880   3.641  14.086
64313SOL    HW194836   7.813   3.657  14.020
64313SOL    HW294837   7.962   3.635  14.036
64314SOL     OW94838  10.174  14.254   6.196
64314SOL    HW194839  10.168  14.347   6.176
64314SOL    HW294840  10.148  14.210   6.115
64315SOL     OW94841   7.948   1.136  12.503
64315SOL    HW194842   7.988   1.108  12.586
64315SOL    HW294843   7.899   1.215  12.526
64316SOL     OW94844  10.546   0.582   1.486
64316SOL    HW194845  10.573   0.565   1.396
64316SOL    HW294846  10.460   0.624   1.477
64317SOL     OW94847  10.813   2.736   7.059
64317SOL    HW194848  10.867   2.791   7.002
64317SOL    HW294849  10.804   2.787   7.140
64318SOL     OW94850   3.542   0.805  10.753
64318SOL    HW194851   3.452   0.787  10.728
64318SOL    HW294852   3.540   0.891  10.793
64319SOL     OW94853  12.793   5.853   3.780
64319SOL    HW194854  12.758   5.779   3.730
64319SOL    HW294855  12.886   5.856   3.757
64320SOL     OW94856   8.789  10.720  12.163
64320SOL    HW194857   8.700  10.687  12.178
64320SOL    HW294858   8.845  10.659  12.211
64321SOL     OW94859  14.507  12.188   9.679
64321SOL    HW194860  14.462  12.119   9.728
64321SOL    HW294861  14.466  12.186   9.593
64322SOL     OW94862  11.748   1.743   5.999
64322SOL    HW194863  11.711   1.695   5.926
64322SOL    HW294864  11.720   1.833   5.986
64323SOL     OW94865   0.254   7.916   9.573
64323SOL    HW194866   0.207   7.935   9.654
64323SOL    HW294867   0.185   7.885   9.513
64324SOL     OW94868   9.436   1.763  11.351
64324SOL    HW194869   9.417   1.798  11.264
64324SOL    HW294870   9.370   1.695  11.365
64325SOL     OW94871  12.554   3.418  11.293
64325SOL    HW194872  12.503   3.376  11.224
64325SOL    HW294873  12.502   3.495  11.319
64326SOL     OW94874   2.171  12.453   6.208
64326SOL    HW194875   2.078  12.474   6.202
64326SOL    HW294876   2.209  12.526   6.258
64327SOL     OW94877   4.171   7.541   1.445
64327SOL    HW194878   4.173   7.452   1.408
64327SOL    HW294879   4.173   7.527   1.540
64328SOL     OW94880   5.202   6.347  11.367
64328SOL    HW194881   5.124   6.332  11.420
64328SOL    HW294882   5.260   6.274  11.390
64329SOL     OW94883   1.874  13.660  11.858
64329SOL    HW194884   1.785  13.692  11.877
64329SOL    HW294885   1.907  13.721  11.792
64330SOL     OW94886   7.102   5.446   6.741
64330SOL    HW194887   7.147   5.393   6.807
64330SOL    HW294888   7.019   5.400   6.726
64331SOL     OW94889  10.007   1.331  10.519
64331SOL    HW194890   9.994   1.412  10.469
64331SOL    HW294891  10.082   1.289  10.477
64332SOL     OW94892   3.041   7.962   4.571
64332SOL    HW194893   3.000   8.006   4.645
64332SOL    HW294894   3.033   7.869   4.591
64333SOL     OW94895   5.077  12.892  10.190
64333SOL    HW194896   5.109  12.926  10.274
64333SOL    HW294897   5.097  12.962  10.128
64334SOL     OW94898   4.978  14.168   4.146
64334SOL    HW194899   4.889  14.200   4.136
64334SOL    HW294900   5.012  14.217   4.222
64335SOL     OW94901   8.785   2.466   3.471
64335SOL    HW194902   8.832   2.489   3.391
64335SOL    HW294903   8.724   2.539   3.484
64336SOL     OW94904  13.864   4.424  12.532
64336SOL    HW194905  13.825   4.482  12.466
64336SOL    HW294906  13.852   4.470  12.615
64337SOL     OW94907  11.631   8.129   4.973
64337SOL    HW194908  11.684   8.152   5.049
64337SOL    HW294909  11.540   8.137   5.004
64338SOL     OW94910   6.305   7.898   7.579
64338SOL    HW194911   6.353   7.826   7.618
64338SOL    HW294912   6.353   7.977   7.607
64339SOL     OW94913   0.561   5.071  12.602
64339SOL    HW194914   0.515   5.028  12.674
64339SOL    HW294915   0.525   5.160  12.600
64340SOL     OW94916   2.638  11.277   0.862
64340SOL    HW194917   2.675  11.285   0.950
64340SOL    HW294918   2.593  11.193   0.862
64341SOL     OW94919   7.313   0.681  11.007
64341SOL    HW194920   7.235   0.636  10.976
64341SOL    HW294921   7.295   0.703  11.098
64342SOL     OW94922   6.048   4.907   9.282
64342SOL    HW194923   6.141   4.910   9.261
64342SOL    HW294924   6.005   4.957   9.212
64343SOL     OW94925   6.363  13.541   8.261
64343SOL    HW194926   6.292  13.488   8.296
64343SOL    HW294927   6.386  13.601   8.333
64344SOL     OW94928   3.903  10.345  10.865
64344SOL    HW194929   3.859  10.305  10.790
64344SOL    HW294930   3.833  10.360  10.929
64345SOL     OW94931  12.415   5.204   6.490
64345SOL    HW194932  12.363   5.227   6.413
64345SOL    HW294933  12.376   5.254   6.562
64346SOL     OW94934   5.485   8.107   9.574
64346SOL    HW194935   5.425   8.159   9.627
64346SOL    HW294936   5.452   8.114   9.485
64347SOL     OW94937   6.904   6.735   7.414
64347SOL    HW194938   6.938   6.744   7.325
64347SOL    HW294939   6.814   6.704   7.402
64348SOL     OW94940   2.812  10.483   3.929
64348SOL    HW194941   2.813  10.556   3.867
64348SOL    HW294942   2.781  10.408   3.878
64349SOL     OW94943  13.792  13.243   2.783
64349SOL    HW194944  13.763  13.234   2.873
64349SOL    HW294945  13.776  13.156   2.744
64350SOL     OW94946  14.409   5.973  14.154
64350SOL    HW194947  14.410   6.056  14.106
64350SOL    HW294948  14.499   5.963  14.187
64351SOL     OW94949   4.428  10.817   2.637
64351SOL    HW194950   4.367  10.799   2.709
64351SOL    HW294951   4.512  10.782   2.668
64352SOL     OW94952  11.588  13.257   5.760
64352SOL    HW194953  11.586  13.250   5.856
64352SOL    HW294954  11.502  13.294   5.738
64353SOL     OW94955  12.973   5.182   9.880
64353SOL    HW194956  13.008   5.093   9.874
64353SOL    HW294957  12.950   5.192   9.972
64354SOL     OW94958   7.290  10.604   3.813
64354SOL    HW194959   7.374  10.632   3.777
64354SOL    HW294960   7.287  10.645   3.900
64355SOL     OW94961   7.354   3.182   3.626
64355SOL    HW194962   7.293   3.128   3.677
64355SOL    HW294963   7.299   3.253   3.591
64356SOL     OW94964   2.296   0.053  13.549
64356SOL    HW194965   2.273   0.129  13.603
64356SOL    HW294966   2.233  14.861  13.575
64357SOL     OW94967  12.263  10.767   0.468
64357SOL    HW194968  12.338  10.825   0.452
64357SOL    HW294969  12.283  10.726   0.552
64358SOL     OW94970   9.978  11.996   0.604
64358SOL    HW194971   9.929  12.010   0.684
64358SOL    HW294972  10.035  11.921   0.623
64359SOL     OW94973   3.057   5.156   1.828
64359SOL    HW194974   3.067   5.069   1.790
64359SOL    HW294975   3.002   5.143   1.905
64360SOL     OW94976   3.756  13.206   3.198
64360SOL    HW194977   3.695  13.255   3.143
64360SOL    HW294978   3.793  13.272   3.257
64361SOL     OW94979   8.739   1.437   7.003
64361SOL    HW194980   8.797   1.478   6.940
64361SOL    HW294981   8.724   1.505   7.069
64362SOL     OW94982  13.794   5.139   0.311
64362SOL    HW194983  13.764   5.067   0.256
64362SOL    HW294984  13.735   5.212   0.290
64363SOL     OW94985   2.856  13.314   7.844
64363SOL    HW194986   2.797  13.367   7.898
64363SOL    HW294987   2.847  13.351   7.756
64364SOL     OW94988   5.457  13.418   2.763
64364SOL    HW194989   5.383  13.440   2.706
64364SOL    HW294990   5.527  13.391   2.703
64365SOL     OW94991   8.129  10.451  10.933
64365SOL    HW194992   8.058  10.387  10.945
64365SOL    HW294993   8.138  10.458  10.838
64366SOL     OW94994   8.535  14.737   4.058
64366SOL    HW194995   8.566  14.647   4.070
64366SOL    HW294996   8.525  14.771   4.147
64367SOL     OW94997  13.280  10.376   0.707
64367SOL    HW194998  13.206  10.396   0.764
64367SOL    HW294999  13.320  10.461   0.689
64368SOL     OW95000  13.260   1.481   5.573
64368SOL    HW195001  13.343   1.444   5.601
64368SOL    HW295002  13.195   1.438   5.628
64369SOL     OW95003   5.722   1.597   5.623
64369SOL    HW195004   5.684   1.510   5.615
64369SOL    HW295005   5.650   1.657   5.604
64370SOL     OW95006   5.506   8.506  11.773
64370SOL    HW195007   5.496   8.556  11.854
64370SOL    HW295008   5.549   8.425  11.800
64371SOL     OW95009   7.100   1.012   2.252
64371SOL    HW195010   7.078   0.942   2.189
64371SOL    HW295011   7.081   1.093   2.205
64372SOL     OW95012  10.960  10.697   8.454
64372SOL    HW195013  10.922  10.642   8.385
64372SOL    HW295014  11.051  10.708   8.427
64373SOL     OW95015  14.226  11.330   1.313
64373SOL    HW195016  14.153  11.281   1.350
64373SOL    HW295017  14.272  11.364   1.389
64374SOL     OW95018   8.286  11.941   7.519
64374SOL    HW195019   8.365  11.992   7.501
64374SOL    HW295020   8.313  11.878   7.585
64375SOL     OW95021  12.244   3.355   9.474
64375SOL    HW195022  12.217   3.296   9.545
64375SOL    HW295023  12.162   3.394   9.444
64376SOL     OW95024   6.828   4.176   4.583
64376SOL    HW195025   6.899   4.143   4.529
64376SOL    HW295026   6.841   4.270   4.585
64377SOL     OW95027   0.228   1.095   3.179
64377SOL    HW195028   0.237   1.050   3.095
64377SOL    HW295029   0.224   1.188   3.156
64378SOL     OW95030   5.321   4.188  13.215
64378SOL    HW195031   5.384   4.248  13.255
64378SOL    HW295032   5.339   4.103  13.256
64379SOL     OW95033   0.733   0.421  10.622
64379SOL    HW195034   0.810   0.426  10.678
64379SOL    HW295035   0.659   0.441  10.680
64380SOL     OW95036   3.950  13.402   3.612
64380SOL    HW195037   4.027  13.425   3.664
64380SOL    HW295038   3.879  13.392   3.676
64381SOL     OW95039   8.621   1.618   5.213
64381SOL    HW195040   8.529   1.624   5.187
64381SOL    HW295041   8.656   1.544   5.163
64382SOL     OW95042   8.868  14.096   2.317
64382SOL    HW195043   8.869  14.008   2.280
64382SOL    HW295044   8.928  14.092   2.392
64383SOL     OW95045   3.919  14.733   6.713
64383SOL    HW195046   3.908  14.828   6.706
64383SOL    HW295047   3.962  14.708   6.632
64384SOL     OW95048   3.389   4.558   1.904
64384SOL    HW195049   3.317   4.498   1.887
64384SOL    HW295050   3.370   4.635   1.851
64385SOL     OW95051   5.001   7.192  13.733
64385SOL    HW195052   4.996   7.161  13.823
64385SOL    HW295053   5.079   7.247  13.730
64386SOL     OW95054  14.760  13.475   4.707
64386SOL    HW195055  14.699  13.518   4.647
64386SOL    HW295056  14.736  13.382   4.702
64387SOL     OW95057   0.359  14.064  11.262
64387SOL    HW195058   0.265  14.075  11.280
64387SOL    HW295059   0.401  14.129  11.319
64388SOL     OW95060  10.841  10.298   5.768
64388SOL    HW195061  10.781  10.360   5.728
64388SOL    HW295062  10.852  10.329   5.858
64389SOL     OW95063  10.894  14.777   3.165
64389SOL    HW195064  10.905  14.849   3.227
64389SOL    HW295065  10.799  14.774   3.150
64390SOL     OW95066   2.364   0.411   7.187
64390SOL    HW195067   2.381   0.317   7.184
64390SOL    HW295068   2.281   0.423   7.140
64391SOL     OW95069   0.929  13.686  11.542
64391SOL    HW195070   0.890  13.661  11.626
64391SOL    HW295071   1.012  13.728  11.566
64392SOL     OW95072   8.822  14.562   2.731
64392SOL    HW195073   8.875  14.598   2.801
64392SOL    HW295074   8.884  14.516   2.675
64393SOL     OW95075   3.776  10.566   1.101
64393SOL    HW195076   3.813  10.619   1.172
64393SOL    HW295077   3.852  10.539   1.049
64394SOL     OW95078   5.068   9.203  14.144
64394SOL    HW195079   5.043   9.125  14.096
64394SOL    HW295080   5.029   9.193  14.231
64395SOL     OW95081  10.489   4.230  14.794
64395SOL    HW195082  10.404   4.272  14.789
64395SOL    HW295083  10.482   4.171  14.870
64396SOL     OW95084  13.183   5.726  13.202
64396SOL    HW195085  13.169   5.747  13.110
64396SOL    HW295086  13.230   5.642  13.200
64397SOL     OW95087   0.857   9.715   8.746
64397SOL    HW195088   0.943   9.757   8.741
64397SOL    HW295089   0.801   9.780   8.790
64398SOL     OW95090  10.181   3.860  10.795
64398SOL    HW195091  10.224   3.928  10.847
64398SOL    HW295092  10.110   3.906  10.750
64399SOL     OW95093   9.232   9.500   5.081
64399SOL    HW195094   9.171   9.434   5.048
64399SOL    HW295095   9.311   9.450   5.102
64400SOL     OW95096  13.575   9.449   0.580
64400SOL    HW195097  13.619   9.368   0.605
64400SOL    HW295098  13.581   9.505   0.657
64401SOL     OW95099   7.619  14.379   7.582
64401SOL    HW195100   7.705  14.338   7.580
64401SOL    HW295101   7.625  14.445   7.651
64402SOL     OW95102   3.530   2.064   3.937
64402SOL    HW195103   3.606   2.005   3.941
64402SOL    HW295104   3.550   2.123   3.865
64403SOL     OW95105   6.951   3.033  14.697
64403SOL    HW195106   6.860   3.011  14.675
64403SOL    HW295107   6.945   3.117  14.741
64404SOL     OW95108   6.390  13.882   9.439
64404SOL    HW195109   6.374  13.809   9.380
64404SOL    HW295110   6.308  13.932   9.438
64405SOL     OW95111   3.487   2.387  11.561
64405SOL    HW195112   3.467   2.480  11.572
64405SOL    HW295113   3.576   2.377  11.596
64406SOL     OW95114  10.158   4.961   7.415
64406SOL    HW195115  10.079   4.969   7.361
64406SOL    HW295116  10.230   4.979   7.354
64407SOL     OW95117   3.985  10.556   9.463
64407SOL    HW195118   4.048  10.485   9.476
64407SOL    HW295119   3.921  10.519   9.402
64408SOL     OW95120  10.449   4.674   8.635
64408SOL    HW195121  10.476   4.727   8.560
64408SOL    HW295122  10.528   4.667   8.688
64409SOL     OW95123  11.717  11.371   7.104
64409SOL    HW195124  11.624  11.350   7.115
64409SOL    HW295125  11.736  11.431   7.176
64410SOL     OW95126   2.275   0.704   5.928
64410SOL    HW195127   2.300   0.671   6.014
64410SOL    HW295128   2.315   0.791   5.923
64411SOL     OW95129   5.734  14.414  10.431
64411SOL    HW195130   5.768  14.373  10.511
64411SOL    HW295131   5.812  14.450  10.387
64412SOL     OW95132  13.671   5.378  13.769
64412SOL    HW195133  13.684   5.448  13.705
64412SOL    HW295134  13.722   5.405  13.845
64413SOL     OW95135   2.097  14.789  14.760
64413SOL    HW195136   2.138  14.705  14.778
64413SOL    HW295137   2.073  14.785  14.667
64414SOL     OW95138   2.470  10.794   0.798
64414SOL    HW195139   2.376  10.775   0.793
64414SOL    HW295140   2.505  10.728   0.858
64415SOL     OW95141   7.918   4.486  11.373
64415SOL    HW195142   7.848   4.425  11.348
64415SOL    HW295143   7.873   4.554  11.424
64416SOL     OW95144   5.511   5.199   7.905
64416SOL    HW195145   5.571   5.218   7.977
64416SOL    HW295146   5.432   5.248   7.927
64417SOL     OW95147   5.760   4.987   0.871
64417SOL    HW195148   5.819   4.927   0.826
64417SOL    HW295149   5.816   5.036   0.932
64418SOL     OW95150   0.692   3.084   3.738
64418SOL    HW195151   0.782   3.053   3.726
64418SOL    HW295152   0.655   3.082   3.650
64419SOL     OW95153  12.888   4.063   4.502
64419SOL    HW195154  12.963   4.122   4.494
64419SOL    HW295155  12.820   4.117   4.542
64420SOL     OW95156   9.161   1.359  12.499
64420SOL    HW195157   9.065   1.361  12.501
64420SOL    HW295158   9.186   1.323  12.585
64421SOL     OW95159   6.292  10.970   7.006
64421SOL    HW195160   6.288  10.893   7.063
64421SOL    HW295161   6.225  11.028   7.040
64422SOL     OW95162   2.312   0.920  12.225
64422SOL    HW195163   2.256   0.917  12.148
64422SOL    HW295164   2.276   0.854  12.284
64423SOL     OW95165   6.544   5.115   1.741
64423SOL    HW195166   6.629   5.129   1.783
64423SOL    HW295167   6.481   5.129   1.812
64424SOL     OW95168  11.276   3.718   9.359
64424SOL    HW195169  11.185   3.749   9.357
64424SOL    HW295170  11.287   3.672   9.276
64425SOL     OW95171   9.286   1.946  11.980
64425SOL    HW195172   9.311   1.854  11.983
64425SOL    HW295173   9.251   1.964  12.068
64426SOL     OW95174   6.039   9.346  11.066
64426SOL    HW195175   6.075   9.316  10.982
64426SOL    HW295176   5.947   9.317  11.064
64427SOL     OW95177   2.359   8.057  11.836
64427SOL    HW195178   2.321   8.106  11.909
64427SOL    HW295179   2.361   8.119  11.763
64428SOL     OW95180   7.379   3.880  14.369
64428SOL    HW195181   7.297   3.848  14.335
64428SOL    HW295182   7.428   3.802  14.394
64429SOL     OW95183  14.759   1.292   1.029
64429SOL    HW195184  14.679   1.239   1.031
64429SOL    HW295185  14.823   1.239   1.076
64430SOL     OW95186   8.839  10.860  11.262
64430SOL    HW195187   8.886  10.779  11.283
64430SOL    HW295188   8.881  10.927  11.317
64431SOL     OW95189  11.096  13.015  13.094
64431SOL    HW195190  11.159  12.943  13.089
64431SOL    HW295191  11.060  13.021  13.006
64432SOL     OW95192   7.603  11.366   3.986
64432SOL    HW195193   7.681  11.379   3.931
64432SOL    HW295194   7.630  11.398   4.073
64433SOL     OW95195   8.699  10.849   2.705
64433SOL    HW195196   8.607  10.859   2.681
64433SOL    HW295197   8.721  10.930   2.751
64434SOL     OW95198   6.706   0.408   2.724
64434SOL    HW195199   6.676   0.486   2.771
64434SOL    HW295200   6.758   0.443   2.651
64435SOL     OW95201   3.590  11.801  11.719
64435SOL    HW195202   3.678  11.765  11.708
64435SOL    HW295203   3.600  11.870  11.785
64436SOL     OW95204   1.483  11.228   1.608
64436SOL    HW195205   1.512  11.316   1.630
64436SOL    HW295206   1.549  11.195   1.547
64437SOL     OW95207  12.045   6.181  13.171
64437SOL    HW195208  12.015   6.151  13.085
64437SOL    HW295209  12.013   6.114  13.232
64438SOL     OW95210  11.501   4.655  12.399
64438SOL    HW195211  11.485   4.586  12.334
64438SOL    HW295212  11.532   4.608  12.476
64439SOL     OW95213   3.208  10.903  14.586
64439SOL    HW195214   3.163  10.963  14.646
64439SOL    HW295215   3.151  10.900  14.509
64440SOL     OW95216  14.635  12.133   3.730
64440SOL    HW195217  14.621  12.044   3.761
64440SOL    HW295218  14.666  12.180   3.808
64441SOL     OW95219  14.216  13.560   8.029
64441SOL    HW195220  14.161  13.608   7.967
64441SOL    HW295221  14.296  13.540   7.981
64442SOL     OW95222  10.645  10.888   8.161
64442SOL    HW195223  10.559  10.886   8.204
64442SOL    HW295224  10.707  10.897   8.233
64443SOL     OW95225   9.191   2.308  11.947
64443SOL    HW195226   9.137   2.237  11.911
64443SOL    HW295227   9.268   2.263  11.982
64444SOL     OW95228   7.828   8.659   8.610
64444SOL    HW195229   7.735   8.667   8.632
64444SOL    HW295230   7.855   8.748   8.589
64445SOL     OW95231  14.589   9.058   4.643
64445SOL    HW195232  14.567   9.077   4.552
64445SOL    HW295233  14.642   8.979   4.638
64446SOL     OW95234   2.302  11.355  11.217
64446SOL    HW195235   2.359  11.279  11.218
64446SOL    HW295236   2.324  11.401  11.136
64447SOL     OW95237   5.708   7.967   2.926
64447SOL    HW195238   5.745   7.891   2.971
64447SOL    HW295239   5.614   7.949   2.922
64448SOL     OW95240   7.559  11.576   6.127
64448SOL    HW195241   7.600  11.570   6.213
64448SOL    HW295242   7.594  11.656   6.089
64449SOL     OW95243   1.653  13.012   7.998
64449SOL    HW195244   1.616  13.071   7.933
64449SOL    HW295245   1.587  12.944   8.009
64450SOL     OW95246   5.299   0.428   5.151
64450SOL    HW195247   5.313   0.424   5.057
64450SOL    HW295248   5.282   0.520   5.169
64451SOL     OW95249   1.336   4.012   0.414
64451SOL    HW195250   1.272   3.942   0.400
64451SOL    HW295251   1.357   4.007   0.508
64452SOL     OW95252   3.752   5.969   1.744
64452SOL    HW195253   3.758   6.038   1.677
64452SOL    HW295254   3.765   6.015   1.827
64453SOL     OW95255   5.016  11.292   9.277
64453SOL    HW195256   5.112  11.292   9.273
64453SOL    HW295257   4.989  11.241   9.200
64454SOL     OW95258  12.715   4.912   6.043
64454SOL    HW195259  12.737   4.987   5.988
64454SOL    HW295260  12.668   4.950   6.117
64455SOL     OW95261   9.462  10.596   2.779
64455SOL    HW195262   9.493  10.507   2.762
64455SOL    HW295263   9.542  10.647   2.789
64456SOL     OW95264   4.630  13.505  14.606
64456SOL    HW195265   4.715  13.549  14.614
64456SOL    HW295266   4.567  13.577  14.602
64457SOL     OW95267   8.316   3.415   8.933
64457SOL    HW195268   8.307   3.479   9.003
64457SOL    HW295269   8.334   3.467   8.855
64458SOL     OW95270  12.531  10.969   2.622
64458SOL    HW195271  12.509  11.049   2.670
64458SOL    HW295272  12.613  10.990   2.577
64459SOL     OW95273   5.372   1.631   6.408
64459SOL    HW195274   5.400   1.720   6.429
64459SOL    HW295275   5.453   1.581   6.400
64460SOL     OW95276   4.478   3.675   7.166
64460SOL    HW195277   4.405   3.737   7.157
64460SOL    HW295278   4.541   3.719   7.222
64461SOL     OW95279   7.035  14.608   0.274
64461SOL    HW195280   6.966  14.657   0.318
64461SOL    HW295281   7.004  14.596   0.185
64462SOL     OW95282   8.803   2.894   1.711
64462SOL    HW195283   8.868   2.840   1.758
64462SOL    HW295284   8.775   2.838   1.638
64463SOL     OW95285   5.947   8.766  11.288
64463SOL    HW195286   5.943   8.761  11.384
64463SOL    HW295287   5.857   8.783  11.261
64464SOL     OW95288   8.276   6.478  12.184
64464SOL    HW195289   8.317   6.400  12.223
64464SOL    HW295290   8.350   6.536  12.165
64465SOL     OW95291   2.027   0.517  10.679
64465SOL    HW195292   1.958   0.453  10.695
64465SOL    HW295293   2.033   0.524  10.584
64466SOL     OW95294  13.500  13.432   1.580
64466SOL    HW195295  13.465  13.360   1.527
64466SOL    HW295296  13.523  13.500   1.517
64467SOL     OW95297  12.368   0.887   1.114
64467SOL    HW195298  12.316   0.967   1.111
64467SOL    HW295299  12.309   0.820   1.078
64468SOL     OW95300  14.761  11.553   0.637
64468SOL    HW195301  14.680  11.581   0.595
64468SOL    HW295302  14.806  11.502   0.569
64469SOL     OW95303   8.069   0.056  11.047
64469SOL    HW195304   7.994   0.105  11.081
64469SOL    HW295305   8.133   0.124  11.023
64470SOL     OW95306   3.092  11.979   9.226
64470SOL    HW195307   3.187  11.972   9.232
64470SOL    HW295308   3.071  12.064   9.265
64471SOL     OW95309  14.149   3.728   6.555
64471SOL    HW195310  14.167   3.794   6.622
64471SOL    HW295311  14.108   3.656   6.602
64472SOL     OW95312   7.951   8.316   7.608
64472SOL    HW195313   8.015   8.385   7.620
64472SOL    HW295314   7.979   8.246   7.667
64473SOL     OW95315  14.012  14.093   9.720
64473SOL    HW195316  13.981  14.126   9.805
64473SOL    HW295317  14.094  14.048   9.740
64474SOL     OW95318   9.662   5.566   3.378
64474SOL    HW195319   9.677   5.477   3.346
64474SOL    HW295320   9.662   5.558   3.473
64475SOL     OW95321   9.393  12.103  12.859
64475SOL    HW195322   9.355  12.079  12.774
64475SOL    HW295323   9.487  12.103  12.844
64476SOL     OW95324   5.150  12.664  12.110
64476SOL    HW195325   5.188  12.651  12.023
64476SOL    HW295326   5.071  12.715  12.094
64477SOL     OW95327   1.444   1.315   9.962
64477SOL    HW195328   1.444   1.301  10.057
64477SOL    HW295329   1.378   1.253   9.930
64478SOL     OW95330  10.009   3.559   9.813
64478SOL    HW195331   9.946   3.543   9.883
64478SOL    HW295332  10.070   3.485   9.819
64479SOL     OW95333  10.558  11.612  10.319
64479SOL    HW195334  10.534  11.692  10.366
64479SOL    HW295335  10.480  11.558  10.322
64480SOL     OW95336   1.084  12.127   6.918
64480SOL    HW195337   1.097  12.088   6.832
64480SOL    HW295338   1.003  12.177   6.910
64481SOL     OW95339   0.849  10.073   3.501
64481SOL    HW195340   0.919  10.022   3.462
64481SOL    HW295341   0.770  10.046   3.453
64482SOL     OW95342   3.383   7.046   3.849
64482SOL    HW195343   3.327   7.087   3.914
64482SOL    HW295344   3.404   6.960   3.886
64483SOL     OW95345   0.849  10.184  11.529
64483SOL    HW195346   0.813  10.123  11.593
64483SOL    HW295347   0.787  10.257  11.529
64484SOL     OW95348   9.948   5.190  11.834
64484SOL    HW195349  10.008   5.152  11.771
64484SOL    HW295350   9.963   5.284  11.828
64485SOL     OW95351  13.804  13.272  14.401
64485SOL    HW195352  13.889  13.256  14.360
64485SOL    HW295353  13.747  13.299  14.329
64486SOL     OW95354  14.816   4.917   7.209
64486SOL    HW195355  14.765   4.860   7.267
64486SOL    HW295356  14.862   4.976   7.269
64487SOL     OW95357   2.944  10.800   5.969
64487SOL    HW195358   3.031  10.802   5.929
64487SOL    HW295359   2.949  10.729   6.033
64488SOL     OW95360  12.376   0.644   0.177
64488SOL    HW195361  12.323   0.616   0.102
64488SOL    HW295362  12.466   0.630   0.150
64489SOL     OW95363   7.464  11.819   3.043
64489SOL    HW195364   7.477  11.863   2.959
64489SOL    HW295365   7.421  11.737   3.020
64490SOL     OW95366   2.841   1.466  12.393
64490SOL    HW195367   2.907   1.515  12.442
64490SOL    HW295368   2.892   1.411  12.333
64491SOL     OW95369   3.407   5.438   1.311
64491SOL    HW195370   3.470   5.372   1.282
64491SOL    HW295371   3.410   5.505   1.244
64492SOL     OW95372   5.969   6.185  12.230
64492SOL    HW195373   5.992   6.195  12.138
64492SOL    HW295374   6.030   6.118  12.262
64493SOL     OW95375   4.604   7.250  12.494
64493SOL    HW195376   4.528   7.193  12.483
64493SOL    HW295377   4.566   7.337  12.510
64494SOL     OW95378   4.730   8.940   9.153
64494SOL    HW195379   4.800   8.992   9.191
64494SOL    HW295380   4.655   8.957   9.210
64495SOL     OW95381   7.449   1.621   4.687
64495SOL    HW195382   7.498   1.632   4.768
64495SOL    HW295383   7.501   1.560   4.635
64496SOL     OW95384   7.201   7.852  11.229
64496SOL    HW195385   7.269   7.897  11.279
64496SOL    HW295386   7.134   7.919  11.214
64497SOL     OW95387  14.707  13.643   5.544
64497SOL    HW195388  14.741  13.665   5.457
64497SOL    HW295389  14.746  13.558   5.565
64498SOL     OW95390   2.727   3.387  12.024
64498SOL    HW195391   2.691   3.323  12.086
64498SOL    HW295392   2.664   3.459  12.024
64499SOL     OW95393   8.523   5.768   8.606
64499SOL    HW195394   8.586   5.806   8.668
64499SOL    HW295395   8.568   5.692   8.569
64500SOL     OW95396   8.779  14.739   6.767
64500SOL    HW195397   8.689  14.711   6.755
64500SOL    HW295398   8.831  14.674   6.719
64501SOL     OW95399   5.648  13.395  11.767
64501SOL    HW195400   5.720  13.346  11.728
64501SOL    HW295401   5.683  13.426  11.851
64502SOL     OW95402  13.213   2.720   8.901
64502SOL    HW195403  13.293   2.694   8.947
64502SOL    HW295404  13.243   2.750   8.815
64503SOL     OW95405  11.551   1.674   7.916
64503SOL    HW195406  11.572   1.637   8.002
64503SOL    HW295407  11.506   1.604   7.870
64504SOL     OW95408   6.262   4.023   8.637
64504SOL    HW195409   6.280   4.002   8.728
64504SOL    HW295410   6.261   4.118   8.634
64505SOL     OW95411  13.885  14.584  11.092
64505SOL    HW195412  13.866  14.673  11.063
64505SOL    HW295413  13.952  14.595  11.160
64506SOL     OW95414   9.656   0.929   2.646
64506SOL    HW195415   9.704   0.913   2.565
64506SOL    HW295416   9.720   0.970   2.704
64507SOL     OW95417   9.847  11.018  13.827
64507SOL    HW195418   9.872  10.971  13.906
64507SOL    HW295419   9.782  10.962  13.784
64508SOL     OW95420  13.778   1.717   0.271
64508SOL    HW195421  13.817   1.701   0.185
64508SOL    HW295422  13.741   1.632   0.297
64509SOL     OW95423  14.104  13.687  10.917
64509SOL    HW195424  14.107  13.711  11.009
64509SOL    HW295425  14.173  13.738  10.876
64510SOL     OW95426  11.743  10.057  11.824
64510SOL    HW195427  11.792  10.135  11.850
64510SOL    HW295428  11.786  10.026  11.745
64511SOL     OW95429   5.719   2.303  11.049
64511SOL    HW195430   5.810   2.282  11.071
64511SOL    HW295431   5.673   2.301  11.133
64512SOL     OW95432   8.481  12.956   9.540
64512SOL    HW195433   8.499  12.973   9.447
64512SOL    HW295434   8.516  12.868   9.555
64513SOL     OW95435   2.174   6.981  10.978
64513SOL    HW195436   2.251   6.956  11.029
64513SOL    HW295437   2.197   6.960  10.887
64514SOL     OW95438   8.609  10.931   5.518
64514SOL    HW195439   8.560  10.893   5.590
64514SOL    HW295440   8.695  10.888   5.522
64515SOL     OW95441  12.039   9.521  13.164
64515SOL    HW195442  12.098   9.451  13.135
64515SOL    HW295443  12.003   9.489  13.247
64516SOL     OW95444   2.280   8.840   5.096
64516SOL    HW195445   2.299   8.827   5.003
64516SOL    HW295446   2.363   8.872   5.133
64517SOL     OW95447  13.977  10.065  13.140
64517SOL    HW195448  14.064  10.043  13.172
64517SOL    HW295449  13.989  10.081  13.046
64518SOL     OW95450  10.890   5.427   8.773
64518SOL    HW195451  10.965   5.411   8.831
64518SOL    HW295452  10.815   5.397   8.824
64519SOL     OW95453   6.233   3.719   2.013
64519SOL    HW195454   6.190   3.762   2.087
64519SOL    HW295455   6.250   3.630   2.044
64520SOL     OW95456   3.815  11.900   7.647
64520SOL    HW195457   3.829  11.969   7.582
64520SOL    HW295458   3.900  11.857   7.655
64521SOL     OW95459  14.473  13.421   6.969
64521SOL    HW195460  14.515  13.354   7.023
64521SOL    HW295461  14.388  13.383   6.945
64522SOL     OW95462   9.104  10.894  13.314
64522SOL    HW195463   9.100  10.916  13.407
64522SOL    HW295464   9.081  10.801  13.310
64523SOL     OW95465   7.678  13.870  13.781
64523SOL    HW195466   7.584  13.886  13.790
64523SOL    HW295467   7.719  13.931  13.843
64524SOL     OW95468   5.196   8.944   3.856
64524SOL    HW195469   5.280   8.960   3.811
64524SOL    HW295470   5.131   8.988   3.801
64525SOL     OW95471   3.203  13.986   5.311
64525SOL    HW195472   3.151  14.030   5.378
64525SOL    HW295473   3.180  14.030   5.229
64526SOL     OW95474   3.872  10.736  10.164
64526SOL    HW195475   3.819  10.811  10.135
64526SOL    HW295476   3.961  10.756  10.136
64527SOL     OW95477   4.900   8.346   4.553
64527SOL    HW195478   4.955   8.373   4.627
64527SOL    HW295479   4.853   8.268   4.585
64528SOL     OW95480   5.689   3.780   6.451
64528SOL    HW195481   5.648   3.693   6.447
64528SOL    HW295482   5.730   3.783   6.538
64529SOL     OW95483   3.736  11.565   6.989
64529SOL    HW195484   3.796  11.516   6.934
64529SOL    HW295485   3.654  11.516   6.986
64530SOL     OW95486   0.907   5.405   1.666
64530SOL    HW195487   0.878   5.316   1.646
64530SOL    HW295488   0.998   5.408   1.637
64531SOL     OW95489   8.356  13.685   8.559
64531SOL    HW195490   8.435  13.653   8.515
64531SOL    HW295491   8.383  13.696   8.650
64532SOL     OW95492   9.182   2.173  11.583
64532SOL    HW195493   9.166   2.080  11.600
64532SOL    HW295494   9.262   2.193  11.633
64533SOL     OW95495   5.397   5.638   9.495
64533SOL    HW195496   5.310   5.613   9.523
64533SOL    HW295497   5.452   5.624   9.572
64534SOL     OW95498   2.236  13.742   5.979
64534SOL    HW195499   2.174  13.812   5.961
64534SOL    HW295500   2.182  13.665   5.997
64535SOL     OW95501   7.729   6.955  14.051
64535SOL    HW195502   7.731   6.916  13.964
64535SOL    HW295503   7.637   6.959  14.075
64536SOL     OW95504   8.060  13.285   1.297
64536SOL    HW195505   8.083  13.228   1.370
64536SOL    HW295506   8.038  13.225   1.225
64537SOL     OW95507   3.288   3.938   5.366
64537SOL    HW195508   3.292   3.905   5.277
64537SOL    HW295509   3.361   3.999   5.373
64538SOL     OW95510   7.189  12.152  13.593
64538SOL    HW195511   7.121  12.217  13.614
64538SOL    HW295512   7.175  12.081  13.655
64539SOL     OW95513  12.601   6.963  10.824
64539SOL    HW195514  12.573   7.054  10.822
64539SOL    HW295515  12.599   6.935  10.732
64540SOL     OW95516  10.949   0.464   6.496
64540SOL    HW195517  10.987   0.397   6.552
64540SOL    HW295518  10.860   0.477   6.530
64541SOL     OW95519   7.446  11.458   0.589
64541SOL    HW195520   7.435  11.544   0.628
64541SOL    HW295521   7.490  11.474   0.505
64542SOL     OW95522  14.054   4.585   4.220
64542SOL    HW195523  14.015   4.498   4.217
64542SOL    HW295524  14.142   4.571   4.255
64543SOL     OW95525  11.112   2.543   6.411
64543SOL    HW195526  11.041   2.603   6.388
64543SOL    HW295527  11.178   2.558   6.343
64544SOL     OW95528  10.980  10.722  11.581
64544SOL    HW195529  10.955  10.749  11.669
64544SOL    HW295530  10.903  10.737  11.527
64545SOL     OW95531   1.755   4.657   9.732
64545SOL    HW195532   1.803   4.681   9.812
64545SOL    HW295533   1.682   4.603   9.764
64546SOL     OW95534   3.708  13.416  10.082
64546SOL    HW195535   3.640  13.352  10.062
64546SOL    HW295536   3.667  13.474  10.147
64547SOL     OW95537   1.010  12.588   1.152
64547SOL    HW195538   0.968  12.668   1.122
64547SOL    HW295539   1.042  12.546   1.072
64548SOL     OW95540  10.837   7.842  10.263
64548SOL    HW195541  10.761   7.805  10.219
64548SOL    HW295542  10.847   7.929  10.223
64549SOL     OW95543   8.587   5.233   6.885
64549SOL    HW195544   8.493   5.217   6.881
64549SOL    HW295545   8.626   5.146   6.888
64550SOL     OW95546  11.623  14.158   4.347
64550SOL    HW195547  11.717  14.156   4.367
64550SOL    HW295548  11.603  14.071   4.315
64551SOL     OW95549   8.181  12.559   0.418
64551SOL    HW195550   8.161  12.647   0.450
64551SOL    HW295551   8.140  12.500   0.482
64552SOL     OW95552   4.832   1.207   3.336
64552SOL    HW195553   4.927   1.205   3.346
64552SOL    HW295554   4.815   1.280   3.276
64553SOL     OW95555   4.622   8.535  11.967
64553SOL    HW195556   4.676   8.568  12.038
64553SOL    HW295557   4.644   8.590  11.892
64554SOL     OW95558   7.780   8.940  10.714
64554SOL    HW195559   7.694   8.931  10.675
64554SOL    HW295560   7.779   9.027  10.755
64555SOL     OW95561   0.444  12.696   9.315
64555SOL    HW195562   0.373  12.637   9.292
64555SOL    HW295563   0.469  12.670   9.404
64556SOL     OW95564  13.444   5.301   1.367
64556SOL    HW195565  13.459   5.206   1.372
64556SOL    HW295566  13.398   5.321   1.448
64557SOL     OW95567   4.520   8.685  10.942
64557SOL    HW195568   4.547   8.689  11.034
64557SOL    HW295569   4.424   8.684  10.946
64558SOL     OW95570   6.646   6.810  13.018
64558SOL    HW195571   6.576   6.876  13.022
64558SOL    HW295572   6.659   6.783  13.109
64559SOL     OW95573   1.254  12.798  13.277
64559SOL    HW195574   1.174  12.831  13.317
64559SOL    HW295575   1.322  12.860  13.304
64560SOL     OW95576  12.365   5.021  13.332
64560SOL    HW195577  12.437   4.992  13.277
64560SOL    HW295578  12.301   5.058  13.271
64561SOL     OW95579   5.581   1.353   8.696
64561SOL    HW195580   5.603   1.394   8.612
64561SOL    HW295581   5.493   1.318   8.683
64562SOL     OW95582  12.113  14.168   7.526
64562SOL    HW195583  12.194  14.217   7.510
64562SOL    HW295584  12.049  14.234   7.552
64563SOL     OW95585   0.579   5.195   5.182
64563SOL    HW195586   0.552   5.168   5.270
64563SOL    HW295587   0.670   5.165   5.174
64564SOL     OW95588   6.420  12.012  13.853
64564SOL    HW195589   6.494  11.956  13.878
64564SOL    HW295590   6.347  11.979  13.904
64565SOL     OW95591   6.979  11.406   9.470
64565SOL    HW195592   6.986  11.471   9.399
64565SOL    HW295593   6.942  11.455   9.543
64566SOL     OW95594  11.173   5.370   1.258
64566SOL    HW195595  11.132   5.453   1.236
64566SOL    HW295596  11.100   5.314   1.286
64567SOL     OW95597   4.788   1.438   9.697
64567SOL    HW195598   4.812   1.345   9.692
64567SOL    HW295599   4.815   1.465   9.785
64568SOL     OW95600  12.200  13.927   3.712
64568SOL    HW195601  12.139  14.000   3.702
64568SOL    HW295602  12.154  13.864   3.767
64569SOL     OW95603   4.115   2.244  11.703
64569SOL    HW195604   4.057   2.212  11.634
64569SOL    HW295605   4.151   2.325  11.668
64570SOL     OW95606   8.712  11.634   4.130
64570SOL    HW195607   8.697  11.729   4.133
64570SOL    HW295608   8.639  11.599   4.079
64571SOL     OW95609  13.673   2.418  13.441
64571SOL    HW195610  13.578   2.420  13.457
64571SOL    HW295611  13.691   2.499  13.395
64572SOL     OW95612  14.842   3.341  11.114
64572SOL    HW195613  14.811   3.432  11.111
64572SOL    HW295614  14.766   3.290  11.086
64573SOL     OW95615   2.212  13.764  11.848
64573SOL    HW195616   2.180  13.789  11.934
64573SOL    HW295617   2.135  13.767  11.792
64574SOL     OW95618   0.873  11.132   2.366
64574SOL    HW195619   0.877  11.219   2.406
64574SOL    HW295620   0.958  11.123   2.322
64575SOL     OW95621   6.497   3.143   5.852
64575SOL    HW195622   6.477   3.170   5.942
64575SOL    HW295623   6.483   3.048   5.852
64576SOL     OW95624   5.949   4.684   3.213
64576SOL    HW195625   5.860   4.689   3.178
64576SOL    HW295626   5.983   4.600   3.182
64577SOL     OW95627  12.743   1.901   2.884
64577SOL    HW195628  12.797   1.979   2.869
64577SOL    HW295629  12.661   1.935   2.919
64578SOL     OW95630  14.251   9.910   7.731
64578SOL    HW195631  14.236   9.938   7.640
64578SOL    HW295632  14.234   9.816   7.730
64579SOL     OW95633  11.550   5.202  14.739
64579SOL    HW195634  11.524   5.111  14.752
64579SOL    HW295635  11.624   5.198  14.678
64580SOL     OW95636   5.655   8.506   6.673
64580SOL    HW195637   5.648   8.415   6.699
64580SOL    HW295638   5.733   8.509   6.617
64581SOL     OW95639   2.242   2.084   1.177
64581SOL    HW195640   2.275   2.109   1.264
64581SOL    HW295641   2.321   2.078   1.122
64582SOL     OW95642   5.880   6.860   7.015
64582SOL    HW195643   5.809   6.811   7.056
64582SOL    HW295644   5.876   6.837   6.923
64583SOL     OW95645   7.093   1.036   9.496
64583SOL    HW195646   7.053   1.119   9.473
64583SOL    HW295647   7.181   1.041   9.460
64584SOL     OW95648  11.082   1.048   4.398
64584SOL    HW195649  11.079   1.140   4.370
64584SOL    HW295650  11.175   1.029   4.408
64585SOL     OW95651  13.018   0.531  11.057
64585SOL    HW195652  13.057   0.590  11.120
64585SOL    HW295653  12.956   0.585  11.007
64586SOL     OW95654   2.064   0.486  12.517
64586SOL    HW195655   1.985   0.433  12.526
64586SOL    HW295656   2.132   0.434  12.561
64587SOL     OW95657   6.540   9.787   0.272
64587SOL    HW195658   6.601   9.814   0.203
64587SOL    HW295659   6.556   9.693   0.282
64588SOL     OW95660   7.421  12.203   3.134
64588SOL    HW195661   7.401  12.125   3.186
64588SOL    HW295662   7.356  12.268   3.162
64589SOL     OW95663  14.299   6.440  13.854
64589SOL    HW195664  14.302   6.535  13.846
64589SOL    HW295665  14.216   6.422  13.899
64590SOL     OW95666   5.080  14.638   7.039
64590SOL    HW195667   4.989  14.639   7.008
64590SOL    HW295668   5.130  14.603   6.965
64591SOL     OW95669   8.157   7.652   3.437
64591SOL    HW195670   8.206   7.652   3.520
64591SOL    HW295671   8.079   7.705   3.456
64592SOL     OW95672  12.035  14.133  10.957
64592SOL    HW195673  12.041  14.164  10.867
64592SOL    HW295674  11.994  14.046  10.949
64593SOL     OW95675   9.696   7.426   6.421
64593SOL    HW195676   9.675   7.345   6.467
64593SOL    HW295677   9.683   7.495   6.486
64594SOL     OW95678   5.452   7.302  11.709
64594SOL    HW195679   5.458   7.223  11.656
64594SOL    HW295680   5.476   7.373  11.650
64595SOL     OW95681   2.452  10.552   0.598
64595SOL    HW195682   2.421  10.475   0.647
64595SOL    HW295683   2.479  10.517   0.513
64596SOL     OW95684   1.200  10.194   0.020
64596SOL    HW195685   1.285  10.160  14.868
64596SOL    HW295686   1.210  10.289   0.020
64597SOL     OW95687   2.609   6.096  12.351
64597SOL    HW195688   2.615   6.043  12.430
64597SOL    HW295689   2.644   6.040  12.282
64598SOL     OW95690   8.840   5.681  14.001
64598SOL    HW195691   8.899   5.655  13.929
64598SOL    HW295692   8.754   5.691  13.959
64599SOL     OW95693   5.165  14.032   3.821
64599SOL    HW195694   5.079  14.030   3.779
64599SOL    HW295695   5.173  13.946   3.862
64600SOL     OW95696   0.597   5.666  14.185
64600SOL    HW195697   0.507   5.632  14.187
64600SOL    HW295698   0.598   5.726  14.111
64601SOL     OW95699   7.036  10.512   7.721
64601SOL    HW195700   6.987  10.477   7.646
64601SOL    HW295701   7.109  10.451   7.732
64602SOL     OW95702   3.990   9.688   3.380
64602SOL    HW195703   4.035   9.738   3.312
64602SOL    HW295704   3.995   9.743   3.458
64603SOL     OW95705  13.195   1.031   9.387
64603SOL    HW195706  13.198   0.939   9.413
64603SOL    HW295707  13.270   1.041   9.328
64604SOL     OW95708   1.038  13.790  13.373
64604SOL    HW195709   1.014  13.791  13.281
64604SOL    HW295710   1.107  13.724  13.379
64605SOL     OW95711   3.300   8.741   2.305
64605SOL    HW195712   3.322   8.648   2.300
64605SOL    HW295713   3.211   8.746   2.273
64606SOL     OW95714  11.781   3.876  12.615
64606SOL    HW195715  11.865   3.867  12.570
64606SOL    HW295716  11.722   3.909  12.548
64607SOL     OW95717  10.243  13.518  13.375
64607SOL    HW195718  10.209  13.542  13.461
64607SOL    HW295719  10.223  13.594  13.320
64608SOL     OW95720   9.862  10.576   6.091
64608SOL    HW195721   9.770  10.568   6.064
64608SOL    HW295722   9.859  10.566   6.186
64609SOL     OW95723   1.769  12.198  10.223
64609SOL    HW195724   1.792  12.262  10.156
64609SOL    HW295725   1.676  12.180  10.208
64610SOL     OW95726   1.313  10.344   3.562
64610SOL    HW195727   1.323  10.382   3.649
64610SOL    HW295728   1.225  10.367   3.535
64611SOL     OW95729  12.222  11.141   0.357
64611SOL    HW195730  12.211  11.161   0.264
64611SOL    HW295731  12.317  11.132   0.368
64612SOL     OW95732   2.248  12.656   4.105
64612SOL    HW195733   2.280  12.718   4.171
64612SOL    HW295734   2.155  12.675   4.096
64613SOL     OW95735   2.887   0.934  13.709
64613SOL    HW195736   2.942   0.977  13.775
64613SOL    HW295737   2.862   0.851  13.750
64614SOL     OW95738  13.578   9.482  11.110
64614SOL    HW195739  13.567   9.418  11.181
64614SOL    HW295740  13.672   9.498  11.106
64615SOL     OW95741   1.995  14.446   4.612
64615SOL    HW195742   2.078  14.436   4.658
64615SOL    HW295743   1.982  14.541   4.607
64616SOL     OW95744   0.106   2.212   7.556
64616SOL    HW195745   0.087   2.271   7.629
64616SOL    HW295746   0.202   2.204   7.557
64617SOL     OW95747  14.744  12.439   6.609
64617SOL    HW195748  14.767  12.348   6.590
64617SOL    HW295749  14.677  12.462   6.545
64618SOL     OW95750   0.967   5.909  10.484
64618SOL    HW195751   0.889   5.874  10.440
64618SOL    HW295752   1.035   5.844  10.466
64619SOL     OW95753  12.200   5.721   5.759
64619SOL    HW195754  12.145   5.644   5.749
64619SOL    HW295755  12.277   5.689   5.806
64620SOL     OW95756   7.222   4.638   4.933
64620SOL    HW195757   7.212   4.713   4.874
64620SOL    HW295758   7.292   4.664   4.993
64621SOL     OW95759  11.921   2.477   5.449
64621SOL    HW195760  11.958   2.520   5.526
64621SOL    HW295761  11.968   2.516   5.375
64622SOL     OW95762  10.524   9.422   8.190
64622SOL    HW195763  10.610   9.390   8.219
64622SOL    HW295764  10.466   9.346   8.198
64623SOL     OW95765  12.619   4.975   1.723
64623SOL    HW195766  12.646   4.985   1.814
64623SOL    HW295767  12.524   4.986   1.724
64624SOL     OW95768  13.521   8.348   0.113
64624SOL    HW195769  13.616   8.339   0.126
64624SOL    HW295770  13.513   8.395   0.030
64625SOL     OW95771   9.823   1.788  13.053
64625SOL    HW195772   9.804   1.699  13.083
64625SOL    HW295773   9.907   1.780  13.008
64626SOL     OW95774   1.511  10.080   9.967
64626SOL    HW195775   1.496  10.128  10.049
64626SOL    HW295776   1.554  10.143   9.910
64627SOL     OW95777  10.235   6.305  10.716
64627SOL    HW195778  10.294   6.231  10.699
64627SOL    HW295779  10.293   6.376  10.745
64628SOL     OW95780   4.133   9.278   3.002
64628SOL    HW195781   4.111   9.308   2.914
64628SOL    HW295782   4.141   9.359   3.053
64629SOL     OW95783   4.809   4.702   9.894
64629SOL    HW195784   4.805   4.784   9.845
64629SOL    HW295785   4.839   4.728   9.981
64630SOL     OW95786  10.600   8.787  12.330
64630SOL    HW195787  10.597   8.799  12.425
64630SOL    HW295788  10.691   8.804  12.306
64631SOL     OW95789   5.454   7.244   9.312
64631SOL    HW195790   5.369   7.224   9.351
64631SOL    HW295791   5.434   7.282   9.227
64632SOL     OW95792   9.778  12.799   3.593
64632SOL    HW195793   9.699  12.745   3.584
64632SOL    HW295794   9.850  12.738   3.580
64633SOL     OW95795  12.412   3.063   6.824
64633SOL    HW195796  12.338   3.071   6.765
64633SOL    HW295797  12.459   3.146   6.817
64634SOL     OW95798   2.831  12.234  13.471
64634SOL    HW195799   2.858  12.199  13.556
64634SOL    HW295800   2.820  12.158  13.415
64635SOL     OW95801   7.929  12.913   3.285
64635SOL    HW195802   7.880  12.962   3.219
64635SOL    HW295803   7.869  12.843   3.312
64636SOL     OW95804   5.239  13.637   4.233
64636SOL    HW195805   5.205  13.719   4.270
64636SOL    HW295806   5.297  13.665   4.162
64637SOL     OW95807  11.536  12.227   9.226
64637SOL    HW195808  11.562  12.297   9.285
64637SOL    HW295809  11.459  12.188   9.267
64638SOL     OW95810  12.734   6.701   1.454
64638SOL    HW195811  12.807   6.666   1.402
64638SOL    HW295812  12.662   6.709   1.391
64639SOL     OW95813   0.606   2.576   7.625
64639SOL    HW195814   0.632   2.535   7.543
64639SOL    HW295815   0.522   2.618   7.607
64640SOL     OW95816  13.723   7.855  12.564
64640SOL    HW195817  13.787   7.841  12.634
64640SOL    HW295818  13.753   7.934  12.520
64641SOL     OW95819   4.497   9.433   7.236
64641SOL    HW195820   4.511   9.354   7.183
64641SOL    HW295821   4.429   9.481   7.189
64642SOL     OW95822  13.486   1.352   5.691
64642SOL    HW195823  13.464   1.260   5.707
64642SOL    HW295824  13.494   1.390   5.779
64643SOL     OW95825   4.044  10.744   7.820
64643SOL    HW195826   3.953  10.774   7.815
64643SOL    HW295827   4.039  10.649   7.809
64644SOL     OW95828   6.043   0.463   9.459
64644SOL    HW195829   6.000   0.417   9.531
64644SOL    HW295830   6.075   0.545   9.498
64645SOL     OW95831   1.147  10.388   6.580
64645SOL    HW195832   1.199  10.310   6.601
64645SOL    HW295833   1.060  10.369   6.614
64646SOL     OW95834   2.537   1.291  14.018
64646SOL    HW195835   2.548   1.196  14.010
64646SOL    HW295836   2.470   1.302  14.086
64647SOL     OW95837   3.564   3.867   7.231
64647SOL    HW195838   3.554   3.962   7.235
64647SOL    HW295839   3.515   3.834   7.307
64648SOL     OW95840   1.180   2.687  14.763
64648SOL    HW195841   1.249   2.651  14.817
64648SOL    HW295842   1.205   2.778  14.748
64649SOL     OW95843   1.121   1.063   5.338
64649SOL    HW195844   1.107   1.092   5.247
64649SOL    HW295845   1.200   1.010   5.334
64650SOL     OW95846   9.288   5.990   1.454
64650SOL    HW195847   9.279   6.019   1.545
64650SOL    HW295848   9.345   6.056   1.413
64651SOL     OW95849  11.705  14.229  14.073
64651SOL    HW195850  11.713  14.178  13.992
64651SOL    HW295851  11.795  14.240  14.104
64652SOL     OW95852  10.460   1.003   3.444
64652SOL    HW195853  10.416   1.069   3.498
64652SOL    HW295854  10.529   0.969   3.501
64653SOL     OW95855   2.730  13.351  10.654
64653SOL    HW195856   2.793  13.336  10.724
64653SOL    HW295857   2.782  13.349  10.574
64654SOL     OW95858   8.799   6.873   6.427
64654SOL    HW195859   8.788   6.846   6.518
64654SOL    HW295860   8.716   6.914   6.403
64655SOL     OW95861   4.417   8.760   2.290
64655SOL    HW195862   4.354   8.694   2.317
64655SOL    HW295863   4.502   8.718   2.297
64656SOL     OW95864   7.257   1.945   0.605
64656SOL    HW195865   7.176   1.963   0.653
64656SOL    HW295866   7.307   1.888   0.663
64657SOL     OW95867   5.933  13.974   0.150
64657SOL    HW195868   5.839  13.963   0.167
64657SOL    HW295869   5.968  14.008   0.232
64658SOL     OW95870   6.139  11.120  12.077
64658SOL    HW195871   6.154  11.062  12.152
64658SOL    HW295872   6.092  11.195  12.113
64659SOL     OW95873   6.206   7.133  13.102
64659SOL    HW195874   6.117   7.158  13.126
64659SOL    HW295875   6.218   7.045  13.139
64660SOL     OW95876  13.567   2.410  12.291
64660SOL    HW195877  13.649   2.422  12.339
64660SOL    HW295878  13.585   2.442  12.203
64661SOL     OW95879   5.858   4.059   4.319
64661SOL    HW195880   5.872   4.026   4.231
64661SOL    HW295881   5.893   4.149   4.317
64662SOL     OW95882   1.768   1.261  14.533
64662SOL    HW195883   1.762   1.191  14.598
64662SOL    HW295884   1.850   1.306  14.553
64663SOL     OW95885  13.904   0.261   3.109
64663SOL    HW195886  13.877   0.348   3.139
64663SOL    HW295887  13.949   0.223   3.184
64664SOL     OW95888  14.675   2.397   2.002
64664SOL    HW195889  14.633   2.480   2.026
64664SOL    HW295890  14.741   2.422   1.937
64665SOL     OW95891   0.029   7.089   5.843
64665SOL    HW195892  14.829   7.057   5.893
64665SOL    HW295893   0.005   7.075   5.752
64666SOL     OW95894   4.585   2.836  10.719
64666SOL    HW195895   4.539   2.780  10.655
64666SOL    HW295896   4.626   2.774  10.779
64667SOL     OW95897   2.530  12.573   7.950
64667SOL    HW195898   2.443  12.612   7.953
64667SOL    HW295899   2.587  12.641   7.987
64668SOL     OW95900  10.112   2.495  13.855
64668SOL    HW195901  10.177   2.563  13.875
64668SOL    HW295902  10.029   2.533  13.882
64669SOL     OW95903  14.309   6.803   9.164
64669SOL    HW195904  14.225   6.757   9.170
64669SOL    HW295905  14.328   6.807   9.071
64670SOL     OW95906   8.801   4.074  10.011
64670SOL    HW195907   8.795   4.125   9.930
64670SOL    HW295908   8.770   4.133  10.079
64671SOL     OW95909  12.237  11.677  14.133
64671SOL    HW195910  12.312  11.669  14.192
64671SOL    HW295911  12.226  11.772  14.121
64672SOL     OW95912  10.718   4.764   1.719
64672SOL    HW195913  10.800   4.759   1.769
64672SOL    HW295914  10.714   4.855   1.689
64673SOL     OW95915   4.279   6.894   5.066
64673SOL    HW195916   4.325   6.916   5.147
64673SOL    HW295917   4.314   6.955   5.002
64674SOL     OW95918   5.681   4.197   1.185
64674SOL    HW195919   5.760   4.165   1.228
64674SOL    HW295920   5.654   4.273   1.237
64675SOL     OW95921  11.135  12.344   6.420
64675SOL    HW195922  11.197  12.312   6.354
64675SOL    HW295923  11.140  12.280   6.491
64676SOL     OW95924  14.770  11.442   9.642
64676SOL    HW195925  14.697  11.410   9.589
64676SOL    HW295926  14.738  11.438   9.732
64677SOL     OW95927  14.686  13.178   3.465
64677SOL    HW195928  14.605  13.222   3.442
64677SOL    HW295929  14.749  13.249   3.479
64678SOL     OW95930  11.597   9.514  10.444
64678SOL    HW195931  11.629   9.590  10.396
64678SOL    HW295932  11.676   9.466  10.467
64679SOL     OW95933   8.414   6.747   8.180
64679SOL    HW195934   8.398   6.708   8.094
64679SOL    HW295935   8.367   6.691   8.241
64680SOL     OW95936   4.572  14.155   0.134
64680SOL    HW195937   4.571  14.175   0.228
64680SOL    HW295938   4.569  14.241   0.091
64681SOL     OW95939  12.822  11.108   9.199
64681SOL    HW195940  12.806  11.085   9.291
64681SOL    HW295941  12.871  11.034   9.164
64682SOL     OW95942   7.694   0.486   4.534
64682SOL    HW195943   7.762   0.552   4.524
64682SOL    HW295944   7.666   0.466   4.445
64683SOL     OW95945   2.245   6.961   2.081
64683SOL    HW195946   2.249   6.999   2.168
64683SOL    HW295947   2.289   7.024   2.024
64684SOL     OW95948   2.854   6.408  13.077
64684SOL    HW195949   2.762   6.411  13.052
64684SOL    HW295950   2.900   6.447  13.004
64685SOL     OW95951   1.602  14.109   0.013
64685SOL    HW195952   1.516  14.084  14.856
64685SOL    HW295953   1.588  14.131   0.105
64686SOL     OW95954   7.559  14.263   7.213
64686SOL    HW195955   7.529  14.217   7.291
64686SOL    HW295956   7.625  14.206   7.175
64687SOL     OW95957   2.650   7.131  11.950
64687SOL    HW195958   2.693   7.204  11.994
64687SOL    HW295959   2.557   7.156  11.947
64688SOL     OW95960   4.199   1.118   2.993
64688SOL    HW195961   4.174   1.071   3.073
64688SOL    HW295962   4.287   1.086   2.973
64689SOL     OW95963   9.991   9.386  14.112
64689SOL    HW195964   9.940   9.309  14.085
64689SOL    HW295965   9.965   9.455  14.051
64690SOL     OW95966   3.842   4.398   3.980
64690SOL    HW195967   3.748   4.409   3.973
64690SOL    HW295968   3.854   4.308   4.012
64691SOL     OW95969  14.087  14.063   6.480
64691SOL    HW195970  14.002  14.102   6.499
64691SOL    HW295971  14.096  14.069   6.385
64692SOL     OW95972  11.398  13.101  14.806
64692SOL    HW195973  11.462  13.030  14.802
64692SOL    HW295974  11.424  13.151   0.009
64693SOL     OW95975   4.670  13.702   6.572
64693SOL    HW195976   4.697  13.638   6.637
64693SOL    HW295977   4.606  13.757   6.618
64694SOL     OW95978  14.443   6.988  14.323
64694SOL    HW195979  14.370   6.927  14.311
64694SOL    HW295980  14.412   7.070  14.285
64695SOL     OW95981  12.481   8.331   5.479
64695SOL    HW195982  12.551   8.375   5.430
64695SOL    HW295983  12.523   8.307   5.562
64696SOL     OW95984  10.641   6.091   8.686
64696SOL    HW195985  10.582   6.040   8.630
64696SOL    HW295986  10.603   6.178   8.689
64697SOL     OW95987   6.224   2.388   5.307
64697SOL    HW195988   6.218   2.483   5.303
64697SOL    HW295989   6.310   2.368   5.270
64698SOL     OW95990   4.851   9.431   3.195
64698SOL    HW195991   4.835   9.381   3.115
64698SOL    HW295992   4.946   9.441   3.198
64699SOL     OW95993  13.761   8.960   0.367
64699SOL    HW195994  13.778   9.041   0.414
64699SOL    HW295995  13.847   8.920   0.357
64700SOL     OW95996   8.000  10.694   4.315
64700SOL    HW195997   8.002  10.752   4.391
64700SOL    HW295998   8.091  10.691   4.284
64701SOL     OW95999   6.971   6.365   5.605
64701SOL    HW196000   7.045   6.425   5.598
64701SOL    HW296001   6.990   6.295   5.543
64702SOL     OW96002   7.580  11.515   5.443
64702SOL    HW196003   7.567  11.460   5.520
64702SOL    HW296004   7.608  11.454   5.375
64703SOL     OW96005   5.523   8.690   2.758
64703SOL    HW196006   5.492   8.779   2.738
64703SOL    HW296007   5.617   8.700   2.768
64704SOL     OW96008   5.337  12.523  10.354
64704SOL    HW196009   5.401  12.484  10.413
64704SOL    HW296010   5.321  12.455  10.288
64705SOL     OW96011  12.826   9.423   1.914
64705SOL    HW196012  12.886   9.470   1.972
64705SOL    HW296013  12.739   9.456   1.936
64706SOL     OW96014   3.058   8.720   3.695
64706SOL    HW196015   3.134   8.776   3.682
64706SOL    HW296016   3.087   8.652   3.755
64707SOL     OW96017  11.192   4.126   1.762
64707SOL    HW196018  11.178   4.034   1.783
64707SOL    HW296019  11.120   4.171   1.806
64708SOL     OW96020   6.451   4.318   2.640
64708SOL    HW196021   6.545   4.305   2.644
64708SOL    HW296022   6.430   4.370   2.717
64709SOL     OW96023  12.576  11.288   8.322
64709SOL    HW196024  12.497  11.341   8.332
64709SOL    HW296025  12.644  11.351   8.297
64710SOL     OW96026  13.235  12.672  13.467
64710SOL    HW196027  13.235  12.753  13.519
64710SOL    HW296028  13.243  12.702  13.377
64711SOL     OW96029   6.535   9.453  14.321
64711SOL    HW196030   6.567   9.386  14.381
64711SOL    HW296031   6.470   9.408  14.267
64712SOL     OW96032  14.243   8.704  11.085
64712SOL    HW196033  14.245   8.785  11.034
64712SOL    HW296034  14.166   8.658  11.053
64713SOL     OW96035   7.339   0.365   8.406
64713SOL    HW196036   7.413   0.425   8.398
64713SOL    HW296037   7.272   0.416   8.452
64714SOL     OW96038  13.659   5.160   2.580
64714SOL    HW196039  13.603   5.226   2.619
64714SOL    HW296040  13.599   5.096   2.542
64715SOL     OW96041  12.071  14.562   0.225
64715SOL    HW196042  12.008  14.630   0.249
64715SOL    HW296043  12.034  14.522   0.146
64716SOL     OW96044   0.338   2.339   7.070
64716SOL    HW196045   0.374   2.301   7.150
64716SOL    HW296046   0.408   2.395   7.037
64717SOL     OW96047   5.746  14.865   5.618
64717SOL    HW196048   5.729   0.076   5.658
64717SOL    HW296049   5.807  14.823   5.678
64718SOL     OW96050   8.450   5.131   4.199
64718SOL    HW196051   8.504   5.127   4.120
64718SOL    HW296052   8.491   5.198   4.253
64719SOL     OW96053   7.595   7.288   8.504
64719SOL    HW196054   7.661   7.219   8.492
64719SOL    HW296055   7.619   7.330   8.587
64720SOL     OW96056  13.796   7.870   7.391
64720SOL    HW196057  13.856   7.843   7.461
64720SOL    HW296058  13.853   7.898   7.320
64721SOL     OW96059   0.958   4.472  12.825
64721SOL    HW196060   0.865   4.462  12.801
64721SOL    HW296061   1.001   4.496  12.742
64722SOL     OW96062   3.263   8.125   0.053
64722SOL    HW196063   3.345   8.139   0.100
64722SOL    HW296064   3.289   8.112  14.837
64723SOL     OW96065  11.528  11.218  14.852
64723SOL    HW196066  11.500  11.151   0.039
64723SOL    HW296067  11.487  11.299   0.008
64724SOL     OW96068   8.565   3.835   8.754
64724SOL    HW196069   8.551   3.896   8.827
64724SOL    HW296070   8.559   3.889   8.676
64725SOL     OW96071   7.034   7.016  10.993
64725SOL    HW196072   7.123   6.982  10.993
64725SOL    HW296073   7.000   6.994  10.907
64726SOL     OW96074  13.865  14.329   9.802
64726SOL    HW196075  13.902  14.308   9.716
64726SOL    HW296076  13.826  14.416   9.791
64727SOL     OW96077   9.191  14.606   4.428
64727SOL    HW196078   9.150  14.559   4.356
64727SOL    HW296079   9.206  14.694   4.394
64728SOL     OW96080  11.199   5.093   0.253
64728SOL    HW196081  11.116   5.060   0.219
64728SOL    HW296082  11.216   5.040   0.331
64729SOL     OW96083   3.479   1.737   2.850
64729SOL    HW196084   3.515   1.795   2.783
64729SOL    HW296085   3.540   1.745   2.924
64730SOL     OW96086   3.012  11.114   2.544
64730SOL    HW196087   2.989  11.083   2.456
64730SOL    HW296088   3.004  11.210   2.538
64731SOL     OW96089   2.773   8.655   1.611
64731SOL    HW196090   2.731   8.569   1.620
64731SOL    HW296091   2.859   8.636   1.573
64732SOL     OW96092   1.711   3.599   9.508
64732SOL    HW196093   1.698   3.514   9.551
64732SOL    HW296094   1.625   3.641   9.513
64733SOL     OW96095   9.425  10.714  12.251
64733SOL    HW196096   9.342  10.760  12.254
64733SOL    HW296097   9.401  10.621  12.243
64734SOL     OW96098   7.163  11.336   5.724
64734SOL    HW196099   7.144  11.430   5.727
64734SOL    HW296100   7.174  11.311   5.815
64735SOL     OW96101   6.381  14.110   8.059
64735SOL    HW196102   6.371  14.140   8.149
64735SOL    HW296103   6.295  14.075   8.035
64736SOL     OW96104   4.973   6.641  11.948
64736SOL    HW196105   4.942   6.716  11.999
64736SOL    HW296106   5.029   6.680  11.881
64737SOL     OW96107  14.556   0.432  10.794
64737SOL    HW196108  14.566   0.491  10.720
64737SOL    HW296109  14.644   0.399  10.810
64738SOL     OW96110  14.299  12.631   9.016
64738SOL    HW196111  14.260  12.595   8.936
64738SOL    HW296112  14.324  12.721   8.992
64739SOL     OW96113  11.906   0.893  12.447
64739SOL    HW196114  11.964   0.968  12.457
64739SOL    HW296115  11.956   0.819  12.481
64740SOL     OW96116  13.591   5.745   5.820
64740SOL    HW196117  13.681   5.715   5.834
64740SOL    HW296118  13.538   5.666   5.824
64741SOL     OW96119   1.420  10.752   9.913
64741SOL    HW196120   1.370  10.748   9.832
64741SOL    HW296121   1.357  10.729   9.981
64742SOL     OW96122  10.893   8.102   6.798
64742SOL    HW196123  10.987   8.111   6.811
64742SOL    HW296124  10.860   8.192   6.804
64743SOL     OW96125   3.920  12.181   1.468
64743SOL    HW196126   3.857  12.240   1.509
64743SOL    HW296127   3.888  12.093   1.489
64744SOL     OW96128  13.722   3.169   0.455
64744SOL    HW196129  13.791   3.147   0.517
64744SOL    HW296130  13.706   3.087   0.408
64745SOL     OW96131  11.276   7.649   6.140
64745SOL    HW196132  11.235   7.571   6.101
64745SOL    HW296133  11.229   7.723   6.102
64746SOL     OW96134   9.331   8.902   5.571
64746SOL    HW196135   9.410   8.888   5.519
64746SOL    HW296136   9.306   8.993   5.553
64747SOL     OW96137   8.961   1.431   9.443
64747SOL    HW196138   8.872   1.418   9.411
64747SOL    HW296139   8.949   1.470   9.530
64748SOL     OW96140   1.554   2.615   0.509
64748SOL    HW196141   1.523   2.536   0.464
64748SOL    HW296142   1.547   2.684   0.443
64749SOL     OW96143   4.602   5.635   4.981
64749SOL    HW196144   4.568   5.639   5.071
64749SOL    HW296145   4.671   5.702   4.979
64750SOL     OW96146   4.093   6.073   7.250
64750SOL    HW196147   4.183   6.064   7.282
64750SOL    HW296148   4.069   5.984   7.223
64751SOL     OW96149  11.417  12.027   3.385
64751SOL    HW196150  11.455  12.079   3.314
64751SOL    HW296151  11.441  11.937   3.364
64752SOL     OW96152   1.077   0.884  14.554
64752SOL    HW196153   1.118   0.944  14.492
64752SOL    HW296154   1.059   0.938  14.631
64753SOL     OW96155  14.710  12.573   5.758
64753SOL    HW196156  14.804  12.592   5.764
64753SOL    HW296157  14.700  12.528   5.675
64754SOL     OW96158   1.420   4.569  13.815
64754SOL    HW196159   1.478   4.645  13.825
64754SOL    HW296160   1.332   4.607  13.811
64755SOL     OW96161  12.189   7.950   4.583
64755SOL    HW196162  12.183   8.039   4.617
64755SOL    HW296163  12.284   7.935   4.573
64756SOL     OW96164  12.449   4.590   2.259
64756SOL    HW196165  12.515   4.579   2.191
64756SOL    HW296166  12.428   4.501   2.287
64757SOL     OW96167   5.831   9.671   3.656
64757SOL    HW196168   5.896   9.610   3.691
64757SOL    HW296169   5.748   9.644   3.697
64758SOL     OW96170   3.583   2.412  11.851
64758SOL    HW196171   3.656   2.473  11.863
64758SOL    HW296172   3.512   2.467  11.817
64759SOL     OW96173   3.681  11.148  13.297
64759SOL    HW196174   3.677  11.087  13.371
64759SOL    HW296175   3.758  11.202  13.315
64760SOL     OW96176   1.921   8.668   5.678
64760SOL    HW196177   1.970   8.749   5.691
64760SOL    HW296178   1.876   8.681   5.595
64761SOL     OW96179   6.888   3.705   0.138
64761SOL    HW196180   6.913   3.707   0.231
64761SOL    HW296181   6.967   3.730   0.091
64762SOL     OW96182  12.467   4.225   9.500
64762SOL    HW196183  12.514   4.289   9.447
64762SOL    HW296184  12.535   4.184   9.554
64763SOL     OW96185  11.123  10.084   5.052
64763SOL    HW196186  11.085  10.048   5.132
64763SOL    HW296187  11.140  10.176   5.073
64764SOL     OW96188  12.304  10.652  10.595
64764SOL    HW196189  12.217  10.614  10.597
64764SOL    HW296190  12.361  10.581  10.564
64765SOL     OW96191   9.272   9.240   1.667
64765SOL    HW196192   9.310   9.186   1.736
64765SOL    HW296193   9.330   9.316   1.661
64766SOL     OW96194   8.104   9.390   9.746
64766SOL    HW196195   8.162   9.457   9.708
64766SOL    HW296196   8.123   9.391   9.839
64767SOL     OW96197   9.852   8.255   8.375
64767SOL    HW196198   9.928   8.264   8.432
64767SOL    HW296199   9.821   8.166   8.391
64768SOL     OW96200  12.373  11.434   6.083
64768SOL    HW196201  12.372  11.464   6.174
64768SOL    HW296202  12.316  11.358   6.082
64769SOL     OW96203  11.172  10.709   7.523
64769SOL    HW196204  11.094  10.691   7.471
64769SOL    HW296205  11.163  10.802   7.548
64770SOL     OW96206   3.771  14.691  14.468
64770SOL    HW196207   3.742  14.777  14.439
64770SOL    HW296208   3.852  14.675  14.420
64771SOL     OW96209  14.817  14.759   1.050
64771SOL    HW196210  14.764  14.717   0.982
64771SOL    HW296211  14.761  14.829   1.083
64772SOL     OW96212  11.111  10.620   6.668
64772SOL    HW196213  11.139  10.537   6.707
64772SOL    HW296214  11.020  10.605   6.643
64773SOL     OW96215   6.154   5.371   2.346
64773SOL    HW196216   6.142   5.276   2.353
64773SOL    HW296217   6.118   5.393   2.261
64774SOL     OW96218   2.845  13.366   7.557
64774SOL    HW196219   2.916  13.303   7.576
64774SOL    HW296220   2.861  13.393   7.467
64775SOL     OW96221   2.702   6.008   6.854
64775SOL    HW196222   2.789   5.968   6.851
64775SOL    HW296223   2.650   5.960   6.789
64776SOL     OW96224  11.494   5.117   9.908
64776SOL    HW196225  11.437   5.042   9.891
64776SOL    HW296226  11.583   5.081   9.905
64777SOL     OW96227   3.647   6.717  10.174
64777SOL    HW196228   3.736   6.749  10.158
64777SOL    HW296229   3.648   6.689  10.266
64778SOL     OW96230   3.330  10.869   9.836
64778SOL    HW196231   3.384  10.818   9.776
64778SOL    HW296232   3.317  10.953   9.791
64779SOL     OW96233  13.274  14.394   1.822
64779SOL    HW196234  13.180  14.402   1.810
64779SOL    HW296235  13.312  14.443   1.749
64780SOL     OW96236   7.623  14.307  12.488
64780SOL    HW196237   7.646  14.362  12.562
64780SOL    HW296238   7.651  14.357  12.411
64781SOL     OW96239   5.454   3.600   9.200
64781SOL    HW196240   5.434   3.668   9.264
64781SOL    HW296241   5.517   3.543   9.244
64782SOL     OW96242   7.815   0.876  12.848
64782SOL    HW196243   7.725   0.908  12.858
64782SOL    HW296244   7.838   0.842  12.935
64783SOL     OW96245  10.131   6.334   0.288
64783SOL    HW196246  10.121   6.424   0.319
64783SOL    HW296247  10.221   6.328   0.259
64784SOL     OW96248   2.396   3.823   7.033
64784SOL    HW196249   2.359   3.823   6.944
64784SOL    HW296250   2.453   3.746   7.036
64785SOL     OW96251   7.237   1.498  10.402
64785SOL    HW196252   7.214   1.542  10.320
64785SOL    HW296253   7.158   1.447  10.424
64786SOL     OW96254   0.982   8.562   0.686
64786SOL    HW196255   0.967   8.645   0.731
64786SOL    HW296256   0.902   8.547   0.636
64787SOL     OW96257  14.420  14.309   5.282
64787SOL    HW196258  14.390  14.400   5.278
64787SOL    HW296259  14.512  14.315   5.306
64788SOL     OW96260  10.176  12.386  11.471
64788SOL    HW196261  10.097  12.434  11.447
64788SOL    HW296262  10.210  12.431  11.548
64789SOL     OW96263  11.980  10.996   2.248
64789SOL    HW196264  12.043  11.066   2.263
64789SOL    HW296265  12.008  10.956   2.165
64790SOL     OW96266   2.214   7.440  12.138
64790SOL    HW196267   2.128   7.451  12.179
64790SOL    HW296268   2.276   7.472  12.203
64791SOL     OW96269   4.558   6.384   9.638
64791SOL    HW196270   4.489   6.319   9.626
64791SOL    HW296271   4.511   6.464   9.661
64792SOL     OW96272  13.163   1.866  10.554
64792SOL    HW196273  13.153   1.797  10.620
64792SOL    HW296274  13.256   1.889  10.558
64793SOL     OW96275  14.461   6.604  10.117
64793SOL    HW196276  14.475   6.599  10.023
64793SOL    HW296277  14.414   6.523  10.139
64794SOL     OW96278   5.350   8.047   9.329
64794SOL    HW196279   5.302   7.970   9.362
64794SOL    HW296280   5.403   8.013   9.257
64795SOL     OW96281   3.707   6.091   6.852
64795SOL    HW196282   3.626   6.141   6.858
64795SOL    HW296283   3.768   6.137   6.910
64796SOL     OW96284  14.642  12.669  14.857
64796SOL    HW196285  14.723  12.688   0.028
64796SOL    HW296286  14.622  12.578   0.006
64797SOL     OW96287   6.816   0.527   8.800
64797SOL    HW196288   6.782   0.438   8.811
64797SOL    HW296289   6.765   0.580   8.860
64798SOL     OW96290   9.636   4.154   5.353
64798SOL    HW196291   9.683   4.072   5.336
64798SOL    HW296292   9.643   4.203   5.271
64799SOL     OW96293   9.824   0.620   0.535
64799SOL    HW196294   9.862   0.538   0.501
64799SOL    HW296295   9.760   0.591   0.600
64800SOL     OW96296   9.717  10.666   5.002
64800SOL    HW196297   9.713  10.608   4.926
64800SOL    HW296298   9.697  10.608   5.077
64801SOL     OW96299   3.856   2.574   6.384
64801SOL    HW196300   3.930   2.556   6.326
64801SOL    HW296301   3.782   2.588   6.324
64802SOL     OW96302   1.748   7.361   7.205
64802SOL    HW196303   1.678   7.363   7.139
64802SOL    HW296304   1.827   7.342   7.154
64803SOL     OW96305   7.855  12.193   1.321
64803SOL    HW196306   7.947  12.209   1.342
64803SOL    HW296307   7.854  12.106   1.281
64804SOL     OW96308  12.364  13.877   4.300
64804SOL    HW196309  12.360  13.815   4.373
64804SOL    HW296310  12.273  13.896   4.279
64805SOL     OW96311   7.365   2.588  12.833
64805SOL    HW196312   7.441   2.608  12.888
64805SOL    HW296313   7.403   2.575  12.746
64806SOL     OW96314   5.750   0.411  10.760
64806SOL    HW196315   5.740   0.437  10.668
64806SOL    HW296316   5.743   0.316  10.759
64807SOL     OW96317   2.945   3.798  11.004
64807SOL    HW196318   2.908   3.714  11.031
64807SOL    HW296319   2.871   3.859  11.010
64808SOL     OW96320   8.290   8.747   7.904
64808SOL    HW196321   8.265   8.671   7.958
64808SOL    HW296322   8.351   8.796   7.959
64809SOL     OW96323   0.241   9.628   1.799
64809SOL    HW196324   0.333   9.606   1.786
64809SOL    HW296325   0.235   9.720   1.774
64810SOL     OW96326   1.285   0.795   1.873
64810SOL    HW196327   1.360   0.736   1.876
64810SOL    HW296328   1.253   0.798   1.963
64811SOL     OW96329   2.035  13.877   2.806
64811SOL    HW196330   1.994  13.791   2.810
64811SOL    HW296331   2.107  13.865   2.743
64812SOL     OW96332   8.222   6.103   9.337
64812SOL    HW196333   8.217   6.083   9.431
64812SOL    HW296334   8.309   6.140   9.325
64813SOL     OW96335   7.946   6.891  10.237
64813SOL    HW196336   8.038   6.869  10.225
64813SOL    HW296337   7.899   6.815  10.202
64814SOL     OW96338   7.633  14.018  13.522
64814SOL    HW196339   7.601  14.102  13.554
64814SOL    HW296340   7.666  13.974  13.601
64815SOL     OW96341  13.479  12.231   0.042
64815SOL    HW196342  13.554  12.172   0.044
64815SOL    HW296343  13.502  12.297  14.851
64816SOL     OW96344  14.238   6.258   0.326
64816SOL    HW196345  14.280   6.336   0.291
64816SOL    HW296346  14.211   6.209   0.249
64817SOL     OW96347   3.838   9.612   4.858
64817SOL    HW196348   3.931   9.623   4.877
64817SOL    HW296349   3.819   9.678   4.792
64818SOL     OW96350   4.176   6.204   8.823
64818SOL    HW196351   4.257   6.223   8.871
64818SOL    HW296352   4.180   6.110   8.807
64819SOL     OW96353   7.918   7.694   8.122
64819SOL    HW196354   7.855   7.635   8.080
64819SOL    HW296355   7.919   7.667   8.213
64820SOL     OW96356   1.589   1.254  12.327
64820SOL    HW196357   1.583   1.162  12.300
64820SOL    HW296358   1.512   1.267  12.382
64821SOL     OW96359  13.912   3.937   9.999
64821SOL    HW196360  13.919   3.998   9.926
64821SOL    HW296361  13.826   3.955  10.038
64822SOL     OW96362   2.606  10.479   2.862
64822SOL    HW196363   2.667  10.539   2.904
64822SOL    HW296364   2.662  10.422   2.809
64823SOL     OW96365   6.965   1.068   8.264
64823SOL    HW196366   6.895   1.071   8.330
64823SOL    HW296367   6.924   1.102   8.184
64824SOL     OW96368   9.303  11.521   3.097
64824SOL    HW196369   9.391  11.539   3.130
64824SOL    HW296370   9.248  11.517   3.176
64825SOL     OW96371   0.304   0.788   3.197
64825SOL    HW196372   0.313   0.880   3.223
64825SOL    HW296373   0.251   0.749   3.266
64826SOL     OW96374   1.633   2.174  10.670
64826SOL    HW196375   1.711   2.179  10.616
64826SOL    HW296376   1.590   2.258  10.659
64827SOL     OW96377  14.041   3.173   0.575
64827SOL    HW196378  14.006   3.187   0.663
64827SOL    HW296379  14.119   3.228   0.572
64828SOL     OW96380   3.943   4.266   6.422
64828SOL    HW196381   3.864   4.286   6.471
64828SOL    HW296382   4.005   4.336   6.446
64829SOL     OW96383  10.108   2.943   6.880
64829SOL    HW196384  10.169   2.984   6.942
64829SOL    HW296385  10.159   2.874   6.839
64830SOL     OW96386   6.401   3.314  11.606
64830SOL    HW196387   6.326   3.276  11.653
64830SOL    HW296388   6.417   3.398  11.648
64831SOL     OW96389   6.884   1.973  13.060
64831SOL    HW196390   6.843   1.892  13.092
64831SOL    HW296391   6.843   2.043  13.111
64832SOL     OW96392   0.230  13.956  12.213
64832SOL    HW196393   0.135  13.958  12.207
64832SOL    HW296394   0.255  14.046  12.238
64833SOL     OW96395   6.832   9.363   9.118
64833SOL    HW196396   6.920   9.325   9.125
64833SOL    HW296397   6.813   9.360   9.024
64834SOL     OW96398  13.937  10.188   3.161
64834SOL    HW196399  13.978  10.217   3.243
64834SOL    HW296400  13.923  10.269   3.112
64835SOL     OW96401   9.583   5.928   1.365
64835SOL    HW196402   9.546   5.961   1.447
64835SOL    HW296403   9.658   5.984   1.349
64836SOL     OW96404   5.195  10.373   6.881
64836SOL    HW196405   5.115  10.385   6.828
64836SOL    HW296406   5.165  10.328   6.960
64837SOL     OW96407  13.535  14.703   3.651
64837SOL    HW196408  13.630  14.695   3.659
64837SOL    HW296409  13.510  14.768   3.716
64838SOL     OW96410  11.674   6.145   3.287
64838SOL    HW196411  11.670   6.106   3.374
64838SOL    HW296412  11.752   6.107   3.247
64839SOL     OW96413  12.609   3.410   6.403
64839SOL    HW196414  12.677   3.373   6.459
64839SOL    HW296415  12.606   3.354   6.326
64840SOL     OW96416   0.328   5.694   2.197
64840SOL    HW196417   0.296   5.784   2.187
64840SOL    HW296418   0.403   5.701   2.257
64841SOL     OW96419   8.371   8.417   0.638
64841SOL    HW196420   8.402   8.359   0.569
64841SOL    HW296421   8.441   8.482   0.647
64842SOL     OW96422  10.470   2.877   0.061
64842SOL    HW196423  10.460   2.839   0.148
64842SOL    HW296424  10.521   2.813   0.012
64843SOL     OW96425   4.117   7.639   7.542
64843SOL    HW196426   4.087   7.648   7.633
64843SOL    HW296427   4.062   7.570   7.505
64844SOL     OW96428   5.425  12.009   1.840
64844SOL    HW196429   5.366  12.084   1.832
64844SOL    HW296430   5.512  12.048   1.849
64845SOL     OW96431   9.311   6.054   0.019
64845SOL    HW196432   9.271   5.974  14.861
64845SOL    HW296433   9.364   6.025   0.093
64846SOL     OW96434  14.033  10.003   3.789
64846SOL    HW196435  13.940  10.028   3.791
64846SOL    HW296436  14.035   9.921   3.740
64847SOL     OW96437   5.842   4.747   4.298
64847SOL    HW196438   5.755   4.719   4.329
64847SOL    HW296439   5.839   4.734   4.204
64848SOL     OW96440  12.666  13.002  12.194
64848SOL    HW196441  12.598  12.948  12.234
64848SOL    HW296442  12.618  13.067  12.143
64849SOL     OW96443   6.332  14.167   4.158
64849SOL    HW196444   6.304  14.112   4.085
64849SOL    HW296445   6.367  14.105   4.223
64850SOL     OW96446   7.485   2.916  11.070
64850SOL    HW196447   7.447   2.845  11.019
64850SOL    HW296448   7.411   2.974  11.089
64851SOL     OW96449  10.532   5.270   4.024
64851SOL    HW196450  10.507   5.251   4.115
64851SOL    HW296451  10.551   5.364   4.025
64852SOL     OW96452   7.846  14.417  14.271
64852SOL    HW196453   7.933  14.393  14.300
64852SOL    HW296454   7.787  14.358  14.319
64853SOL     OW96455   1.810  12.558   9.816
64853SOL    HW196456   1.757  12.580   9.739
64853SOL    HW296457   1.772  12.610   9.887
64854SOL     OW96458   3.593   0.175   3.020
64854SOL    HW196459   3.682   0.150   3.043
64854SOL    HW296460   3.559   0.101   2.970
64855SOL     OW96461   4.439   2.517  12.373
64855SOL    HW196462   4.408   2.428  12.390
64855SOL    HW296463   4.390   2.571  12.435
64856SOL     OW96464   6.093  11.220  10.537
64856SOL    HW196465   6.112  11.163  10.463
64856SOL    HW296466   6.175  11.267  10.554
64857SOL     OW96467   9.643   0.335   8.564
64857SOL    HW196468   9.666   0.425   8.541
64857SOL    HW296469   9.690   0.281   8.500
64858SOL     OW96470   9.956  12.435   6.863
64858SOL    HW196471   9.936  12.343   6.879
64858SOL    HW296472   9.899  12.460   6.790
64859SOL     OW96473   7.341  12.062   1.699
64859SOL    HW196474   7.375  11.998   1.762
64859SOL    HW296475   7.408  12.066   1.630
64860SOL     OW96476   8.982  13.829  10.360
64860SOL    HW196477   9.058  13.778  10.333
64860SOL    HW296478   8.973  13.896  10.293
64861SOL     OW96479   2.433  13.283   7.891
64861SOL    HW196480   2.434  13.364   7.840
64861SOL    HW296481   2.480  13.220   7.837
64862SOL     OW96482   2.028   1.547   7.203
64862SOL    HW196483   1.968   1.531   7.130
64862SOL    HW296484   2.074   1.627   7.178
64863SOL     OW96485  10.692  13.128   7.564
64863SOL    HW196486  10.777  13.170   7.560
64863SOL    HW296487  10.712  13.034   7.571
64864SOL     OW96488   7.791   0.769   9.817
64864SOL    HW196489   7.802   0.697   9.879
64864SOL    HW296490   7.880   0.796   9.796
64865SOL     OW96491   4.858   2.003   0.610
64865SOL    HW196492   4.869   2.032   0.700
64865SOL    HW296493   4.938   2.032   0.566
64866SOL     OW96494   8.638  10.076  13.102
64866SOL    HW196495   8.608   9.986  13.111
64866SOL    HW296496   8.559  10.125  13.077
64867SOL     OW96497   0.356  10.355   8.853
64867SOL    HW196498   0.269  10.384   8.828
64867SOL    HW296499   0.397  10.434   8.891
64868SOL     OW96500  13.769   0.189   3.685
64868SOL    HW196501  13.791   0.244   3.609
64868SOL    HW296502  13.700   0.238   3.730
64869SOL     OW96503   2.458   8.569   7.100
64869SOL    HW196504   2.445   8.661   7.078
64869SOL    HW296505   2.527   8.540   7.041
64870SOL     OW96506   4.892  14.087   7.795
64870SOL    HW196507   4.832  14.027   7.839
64870SOL    HW296508   4.837  14.161   7.768
64871SOL     OW96509  11.953   1.338   5.250
64871SOL    HW196510  11.865   1.372   5.237
64871SOL    HW296511  11.981   1.374   5.334
64872SOL     OW96512  10.975  10.038  11.637
64872SOL    HW196513  11.045  10.097  11.666
64872SOL    HW296514  10.994   9.956  11.682
64873SOL     OW96515  14.180   9.536   3.877
64873SOL    HW196516  14.171   9.456   3.826
64873SOL    HW296517  14.113   9.529   3.945
64874SOL     OW96518   7.925   0.813   3.598
64874SOL    HW196519   7.978   0.888   3.626
64874SOL    HW296520   7.891   0.838   3.513
64875SOL     OW96521  10.000   8.714  13.983
64875SOL    HW196522  10.005   8.639  14.043
64875SOL    HW296523   9.935   8.687  13.917
64876SOL     OW96524  10.894   6.056   2.514
64876SOL    HW196525  10.838   5.981   2.532
64876SOL    HW296526  10.968   6.020   2.465
64877SOL     OW96527  12.204   1.308  11.467
64877SOL    HW196528  12.113   1.334  11.451
64877SOL    HW296529  12.252   1.341  11.391
64878SOL     OW96530   5.041   2.991   2.207
64878SOL    HW196531   5.055   3.071   2.258
64878SOL    HW296532   4.973   2.944   2.256
64879SOL     OW96533   1.015   4.424   2.196
64879SOL    HW196534   0.972   4.504   2.165
64879SOL    HW296535   0.960   4.353   2.164
64880SOL     OW96536   5.068   0.535  13.462
64880SOL    HW196537   5.103   0.595  13.395
64880SOL    HW296538   5.077   0.448  13.423
64881SOL     OW96539   7.782   1.074   6.746
64881SOL    HW196540   7.871   1.073   6.780
64881SOL    HW296541   7.793   1.082   6.651
64882SOL     OW96542   4.561  14.056  11.163
64882SOL    HW196543   4.599  14.124  11.219
64882SOL    HW296544   4.467  14.073  11.165
64883SOL     OW96545   0.883   2.549   0.948
64883SOL    HW196546   0.963   2.513   0.911
64883SOL    HW296547   0.886   2.523   1.040
64884SOL     OW96548   0.769   1.887   7.128
64884SOL    HW196549   0.738   1.800   7.152
64884SOL    HW296550   0.721   1.909   7.048
64885SOL     OW96551  14.337   3.871   7.423
64885SOL    HW196552  14.391   3.950   7.431
64885SOL    HW296553  14.264   3.886   7.483
64886SOL     OW96554   1.142   1.432   5.115
64886SOL    HW196555   1.209   1.439   5.183
64886SOL    HW296556   1.099   1.348   5.132
64887SOL     OW96557  12.689  14.311   2.117
64887SOL    HW196558  12.722  14.366   2.046
64887SOL    HW296559  12.740  14.230   2.110
64888SOL     OW96560   7.951   0.638   7.580
64888SOL    HW196561   7.875   0.619   7.526
64888SOL    HW296562   8.012   0.684   7.521
64889SOL     OW96563   6.557   7.275   2.807
64889SOL    HW196564   6.587   7.366   2.815
64889SOL    HW296565   6.493   7.278   2.735
64890SOL     OW96566   6.013   6.699   8.836
64890SOL    HW196567   5.985   6.676   8.924
64890SOL    HW296568   5.938   6.677   8.780
64891SOL     OW96569  14.785   3.851   7.505
64891SOL    HW196570  14.751   3.918   7.565
64891SOL    HW296571  14.743   3.869   7.421
64892SOL     OW96572   8.897   0.453   5.703
64892SOL    HW196573   8.866   0.445   5.613
64892SOL    HW296574   8.926   0.544   5.710
64893SOL     OW96575   8.114  11.143   3.088
64893SOL    HW196576   8.185  11.092   3.127
64893SOL    HW296577   8.088  11.094   3.010
64894SOL     OW96578   8.113   3.952  13.155
64894SOL    HW196579   8.067   4.014  13.099
64894SOL    HW296580   8.087   3.976  13.244
64895SOL     OW96581  11.939   9.749   1.791
64895SOL    HW196582  11.926   9.785   1.703
64895SOL    HW296583  12.021   9.701   1.785
64896SOL     OW96584   0.132  13.522  11.195
64896SOL    HW196585   0.101  13.438  11.230
64896SOL    HW296586   0.071  13.542  11.125
64897SOL     OW96587   3.946  10.791  13.285
64897SOL    HW196588   3.967  10.712  13.335
64897SOL    HW296589   3.885  10.761  13.218
64898SOL     OW96590  11.002   4.893  11.486
64898SOL    HW196591  10.971   4.840  11.559
64898SOL    HW296592  10.931   4.956  11.470
64899SOL     OW96593  14.346  12.736   6.278
64899SOL    HW196594  14.403  12.681   6.225
64899SOL    HW296595  14.318  12.806   6.219
64900SOL     OW96596   2.576  10.154  10.572
64900SOL    HW196597   2.615  10.239  10.591
64900SOL    HW296598   2.588  10.143  10.478
64901SOL     OW96599   0.697  14.609   2.003
64901SOL    HW196600   0.756  14.680   1.977
64901SOL    HW296601   0.728  14.532   1.955
64902SOL     OW96602   4.023   9.274  12.630
64902SOL    HW196603   3.973   9.246  12.706
64902SOL    HW296604   4.103   9.221  12.632
64903SOL     OW96605   6.810  11.714   1.737
64903SOL    HW196606   6.812  11.633   1.789
64903SOL    HW296607   6.772  11.779   1.796
64904SOL     OW96608   3.549   5.818   3.266
64904SOL    HW196609   3.482   5.811   3.198
64904SOL    HW296610   3.501   5.848   3.343
64905SOL     OW96611   4.756   8.654  14.101
64905SOL    HW196612   4.831   8.614  14.057
64905SOL    HW296613   4.750   8.742  14.062
64906SOL     OW96614   5.114   5.194  12.122
64906SOL    HW196615   5.191   5.233  12.080
64906SOL    HW296616   5.107   5.107  12.084
64907SOL     OW96617   9.734   1.437  11.492
64907SOL    HW196618   9.774   1.523  11.501
64907SOL    HW296619   9.711   1.412  11.582
64908SOL     OW96620   7.552   7.241  10.155
64908SOL    HW196621   7.603   7.161  10.147
64908SOL    HW296622   7.575   7.275  10.242
64909SOL     OW96623   6.973   7.697   1.510
64909SOL    HW196624   6.901   7.647   1.472
64909SOL    HW296625   7.015   7.636   1.571
64910SOL     OW96626  13.947   6.674  14.183
64910SOL    HW196627  13.941   6.749  14.124
64910SOL    HW296628  14.040   6.664  14.200
64911SOL     OW96629   6.543  14.247   9.294
64911SOL    HW196630   6.570  14.249   9.385
64911SOL    HW296631   6.622  14.223   9.246
64912SOL     OW96632   8.537  12.715   0.529
64912SOL    HW196633   8.602  12.646   0.516
64912SOL    HW296634   8.510  12.740   0.440
64913SOL     OW96635   9.773   1.271  13.712
64913SOL    HW196636   9.863   1.266  13.745
64913SOL    HW296637   9.719   1.279  13.791
64914SOL     OW96638   0.894   2.112   7.701
64914SOL    HW196639   0.982   2.074   7.705
64914SOL    HW296640   0.836   2.043   7.732
64915SOL     OW96641  10.955  14.244   0.960
64915SOL    HW196642  11.005  14.162   0.965
64915SOL    HW296643  11.019  14.310   0.933
64916SOL     OW96644   0.727  14.674  14.462
64916SOL    HW196645   0.726  14.669  14.366
64916SOL    HW296646   0.794  14.740  14.482
64917SOL     OW96647  14.224   8.155  14.462
64917SOL    HW196648  14.255   8.234  14.417
64917SOL    HW296649  14.130   8.153  14.443
64918SOL     OW96650   4.573   3.550  10.143
64918SOL    HW196651   4.482   3.540  10.115
64918SOL    HW296652   4.572   3.528  10.236
64919SOL     OW96653   9.883   5.790   9.217
64919SOL    HW196654   9.874   5.708   9.169
64919SOL    HW296655   9.829   5.778   9.295
64920SOL     OW96656   4.853  11.857  11.522
64920SOL    HW196657   4.831  11.939  11.565
64920SOL    HW296658   4.780  11.840  11.462
64921SOL     OW96659  11.136   6.183  11.183
64921SOL    HW196660  11.188   6.104  11.194
64921SOL    HW296661  11.050   6.161  11.218
64922SOL     OW96662   7.088   0.984   0.429
64922SOL    HW196663   7.129   0.957   0.512
64922SOL    HW296664   7.098   0.909   0.372
64923SOL     OW96665   1.643   7.038   0.752
64923SOL    HW196666   1.573   7.058   0.814
64923SOL    HW296667   1.668   7.123   0.715
64924SOL     OW96668   6.646   6.175   5.705
64924SOL    HW196669   6.606   6.154   5.621
64924SOL    HW296670   6.577   6.218   5.755
64925SOL     OW96671   4.580   9.575   8.340
64925SOL    HW196672   4.651   9.511   8.335
64925SOL    HW296673   4.519   9.539   8.405
64926SOL     OW96674   3.005   0.861   0.995
64926SOL    HW196675   3.008   0.908   1.078
64926SOL    HW296676   2.964   0.923   0.934
64927SOL     OW96677   4.993   6.886   9.125
64927SOL    HW196678   4.997   6.875   9.220
64927SOL    HW296679   5.021   6.977   9.111
64928SOL     OW96680  10.973   0.512   3.403
64928SOL    HW196681  10.953   0.478   3.315
64928SOL    HW296682  11.019   0.594   3.387
64929SOL     OW96683   6.561  13.806   6.146
64929SOL    HW196684   6.518  13.891   6.136
64929SOL    HW296685   6.513  13.762   6.217
64930SOL     OW96686   8.088   2.566  11.365
64930SOL    HW196687   8.098   2.617  11.445
64930SOL    HW296688   8.079   2.476  11.394
64931SOL     OW96689   7.608   9.165  12.555
64931SOL    HW196690   7.610   9.227  12.483
64931SOL    HW296691   7.549   9.095  12.525
64932SOL     OW96692   5.991   2.246  13.755
64932SOL    HW196693   5.928   2.304  13.798
64932SOL    HW296694   5.940   2.203  13.686
64933SOL     OW96695  14.018   8.606   0.988
64933SOL    HW196696  14.092   8.661   1.012
64933SOL    HW296697  13.941   8.658   1.008
64934SOL     OW96698   5.140  12.365   1.430
64934SOL    HW196699   5.107  12.453   1.413
64934SOL    HW296700   5.143  12.359   1.526
64935SOL     OW96701  14.727  10.764  14.510
64935SOL    HW196702  14.790  10.709  14.557
64935SOL    HW296703  14.643  10.719  14.522
64936SOL     OW96704  13.071  12.135   6.643
64936SOL    HW196705  13.049  12.092   6.560
64936SOL    HW296706  12.988  12.137   6.691
64937SOL     OW96707   7.830   6.657  11.124
64937SOL    HW196708   7.845   6.565  11.145
64937SOL    HW296709   7.781   6.692  11.198
64938SOL     OW96710   4.762  14.455   5.955
64938SOL    HW196711   4.822  14.492   6.020
64938SOL    HW296712   4.680  14.503   5.969
64939SOL     OW96713  12.424   3.403  11.017
64939SOL    HW196714  12.490   3.435  10.955
64939SOL    HW296715  12.341   3.414  10.971
64940SOL     OW96716   9.135   5.859   7.894
64940SOL    HW196717   9.181   5.901   7.821
64940SOL    HW296718   9.046   5.892   7.888
64941SOL     OW96719   0.145   1.656   2.382
64941SOL    HW196720   0.104   1.605   2.452
64941SOL    HW296721   0.104   1.625   2.302
64942SOL     OW96722   7.833   5.331   2.810
64942SOL    HW196723   7.886   5.348   2.733
64942SOL    HW296724   7.794   5.415   2.832
64943SOL     OW96725  14.526   1.227   9.733
64943SOL    HW196726  14.440   1.267   9.717
64943SOL    HW296727  14.588   1.288   9.693
64944SOL     OW96728   0.308   4.914  11.604
64944SOL    HW196729   0.249   4.840  11.616
64944SOL    HW296730   0.370   4.885  11.538
64945SOL     OW96731   5.707   5.815   3.877
64945SOL    HW196732   5.674   5.727   3.896
64945SOL    HW296733   5.786   5.823   3.931
64946SOL     OW96734  14.489   9.044   3.522
64946SOL    HW196735  14.393   9.038   3.518
64946SOL    HW296736  14.519   8.956   3.500
64947SOL     OW96737  13.576   1.128   8.598
64947SOL    HW196738  13.610   1.217   8.610
64947SOL    HW296739  13.614   1.079   8.670
64948SOL     OW96740  13.621   5.948   6.156
64948SOL    HW196741  13.658   5.862   6.138
64948SOL    HW296742  13.585   5.977   6.072
64949SOL     OW96743   4.930   0.771   8.665
64949SOL    HW196744   4.917   0.805   8.754
64949SOL    HW296745   5.024   0.785   8.649
64950SOL     OW96746   3.232   7.603   1.602
64950SOL    HW196747   3.297   7.669   1.626
64950SOL    HW296748   3.203   7.629   1.514
64951SOL     OW96749  14.451   3.191  14.847
64951SOL    HW196750  14.483   3.161  14.762
64951SOL    HW296751  14.529   3.197   0.026
64952SOL     OW96752   1.044   0.231  11.272
64952SOL    HW196753   1.118   0.224  11.332
64952SOL    HW296754   0.966   0.233  11.328
64953SOL     OW96755  14.275   1.052  12.446
64953SOL    HW196756  14.322   1.056  12.529
64953SOL    HW296757  14.342   1.035  12.380
64954SOL     OW96758  14.352   1.031  11.675
64954SOL    HW196759  14.366   1.119  11.709
64954SOL    HW296760  14.418   0.977  11.717
64955SOL     OW96761   0.203   2.228   0.551
64955SOL    HW196762   0.238   2.316   0.547
64955SOL    HW296763   0.113   2.239   0.582
64956SOL     OW96764  14.229   0.241   9.578
64956SOL    HW196765  14.283   0.260   9.501
64956SOL    HW296766  14.229   0.145   9.584
64957SOL     OW96767   3.183   3.242  11.306
64957SOL    HW196768   3.186   3.326  11.262
64957SOL    HW296769   3.175   3.264  11.399
64958SOL     OW96770   6.000  11.878  10.303
64958SOL    HW196771   6.024  11.864  10.394
64958SOL    HW296772   6.078  11.917  10.263
64959SOL     OW96773   3.751   4.707   5.381
64959SOL    HW196774   3.773   4.629   5.330
64959SOL    HW296775   3.831   4.759   5.381
64960SOL     OW96776  11.110   8.086   7.543
64960SOL    HW196777  11.036   8.044   7.588
64960SOL    HW296778  11.137   8.022   7.477
64961SOL     OW96779   9.789  11.414   0.253
64961SOL    HW196780   9.811  11.334   0.205
64961SOL    HW296781   9.793  11.484   0.187
64962SOL     OW96782   0.953  11.807   2.165
64962SOL    HW196783   1.020  11.859   2.122
64962SOL    HW296784   0.939  11.732   2.106
64963SOL     OW96785   9.540   4.407   0.847
64963SOL    HW196786   9.538   4.461   0.925
64963SOL    HW296787   9.483   4.453   0.785
64964SOL     OW96788   2.018  13.916  10.499
64964SOL    HW196789   1.976  13.949  10.420
64964SOL    HW296790   1.977  13.965  10.570
64965SOL     OW96791   8.276   1.619   2.507
64965SOL    HW196792   8.227   1.675   2.566
64965SOL    HW296793   8.367   1.628   2.535
64966SOL     OW96794   8.269   8.746   1.856
64966SOL    HW196795   8.349   8.792   1.832
64966SOL    HW296796   8.202   8.814   1.861
64967SOL     OW96797   9.186   7.421   6.922
64967SOL    HW196798   9.195   7.508   6.884
64967SOL    HW296799   9.237   7.364   6.864
64968SOL     OW96800   3.226   3.145  12.670
64968SOL    HW196801   3.270   3.224  12.638
64968SOL    HW296802   3.185   3.108  12.592
64969SOL     OW96803   2.344   6.796   5.111
64969SOL    HW196804   2.370   6.744   5.036
64969SOL    HW296805   2.393   6.878   5.102
64970SOL     OW96806  13.113   9.854   3.545
64970SOL    HW196807  13.103   9.938   3.591
64970SOL    HW296808  13.024   9.832   3.516
64971SOL     OW96809  14.238  14.239   2.011
64971SOL    HW196810  14.260  14.206   1.924
64971SOL    HW296811  14.318  14.282   2.041
64972SOL     OW96812   1.890   7.232   0.309
64972SOL    HW196813   1.974   7.203   0.273
64972SOL    HW296814   1.909   7.313   0.355
64973SOL     OW96815   1.723  13.851   3.104
64973SOL    HW196816   1.696  13.941   3.122
64973SOL    HW296817   1.803  13.840   3.154
64974SOL     OW96818   4.436  14.826   3.516
64974SOL    HW196819   4.513  14.770   3.528
64974SOL    HW296820   4.471   0.040   3.519
64975SOL     OW96821   9.490   2.857   0.404
64975SOL    HW196822   9.497   2.930   0.466
64975SOL    HW296823   9.557   2.875   0.338
64976SOL     OW96824  10.666   0.564   6.352
64976SOL    HW196825  10.744   0.571   6.298
64976SOL    HW296826  10.637   0.473   6.342
64977SOL     OW96827   9.818   8.197   5.869
64977SOL    HW196828   9.805   8.149   5.951
64977SOL    HW296829   9.856   8.281   5.896
64978SOL     OW96830   5.084   1.862   4.702
64978SOL    HW196831   5.089   1.807   4.780
64978SOL    HW296832   5.054   1.947   4.733
64979SOL     OW96833  10.777   9.836   6.440
64979SOL    HW196834  10.714   9.870   6.503
64979SOL    HW296835  10.840   9.907   6.429
64980SOL     OW96836   4.793  11.842   2.823
64980SOL    HW196837   4.763  11.896   2.749
64980SOL    HW296838   4.822  11.761   2.783
64981SOL     OW96839   9.965  12.688   5.212
64981SOL    HW196840   9.949  12.777   5.244
64981SOL    HW296841   9.879  12.647   5.209
64982SOL     OW96842   2.799  11.102   7.351
64982SOL    HW196843   2.805  11.151   7.269
64982SOL    HW296844   2.841  11.158   7.416
64983SOL     OW96845  11.796  11.320   6.687
64983SOL    HW196846  11.802  11.412   6.715
64983SOL    HW296847  11.702  11.301   6.687
64984SOL     OW96848  12.094  13.913  13.485
64984SOL    HW196849  12.091  13.888  13.577
64984SOL    HW296850  12.116  13.831  13.439
64985SOL     OW96851   3.293   1.801   7.495
64985SOL    HW196852   3.272   1.709   7.514
64985SOL    HW296853   3.388   1.806   7.503
64986SOL     OW96854   6.324   4.251   7.889
64986SOL    HW196855   6.228   4.249   7.883
64986SOL    HW296856   6.352   4.188   7.822
64987SOL     OW96857   1.522  13.692  14.385
64987SOL    HW196858   1.579  13.673  14.310
64987SOL    HW296859   1.580  13.727  14.452
64988SOL     OW96860  12.283   9.810  12.195
64988SOL    HW196861  12.214   9.745  12.204
64988SOL    HW296862  12.289   9.826  12.101
64989SOL     OW96863  11.350   8.415   4.291
64989SOL    HW196864  11.295   8.487   4.262
64989SOL    HW296865  11.391   8.446   4.372
64990SOL     OW96866  10.478   9.666   2.101
64990SOL    HW196867  10.543   9.712   2.154
64990SOL    HW296868  10.425   9.617   2.163
64991SOL     OW96869   0.287   5.824  12.281
64991SOL    HW196870   0.300   5.824  12.375
64991SOL    HW296871   0.200   5.786  12.268
64992SOL     OW96872   6.258   3.612   4.793
64992SOL    HW196873   6.219   3.531   4.825
64992SOL    HW296874   6.240   3.611   4.699
64993SOL     OW96875  12.472   1.080  10.586
64993SOL    HW196876  12.482   1.042  10.673
64993SOL    HW296877  12.487   1.007  10.526
64994SOL     OW96878   4.765   3.641  13.833
64994SOL    HW196879   4.765   3.618  13.740
64994SOL    HW296880   4.695   3.588  13.871
64995SOL     OW96881  11.704  12.708   3.155
64995SOL    HW196882  11.709  12.781   3.092
64995SOL    HW296883  11.794  12.697   3.185
64996SOL     OW96884   5.662   7.026  13.659
64996SOL    HW196885   5.732   6.998  13.718
64996SOL    HW296886   5.699   7.101  13.612
64997SOL     OW96887   8.228   3.823   2.746
64997SOL    HW196888   8.248   3.846   2.656
64997SOL    HW296889   8.271   3.739   2.761
64998SOL     OW96890   3.566   8.219  10.558
64998SOL    HW196891   3.574   8.313  10.544
64998SOL    HW296892   3.472   8.203  10.556
64999SOL     OW96893  13.463  10.622   9.765
64999SOL    HW196894  13.451  10.672   9.684
64999SOL    HW296895  13.374  10.601   9.794
65000SOL     OW96896   9.188  12.764   4.071
65000SOL    HW196897   9.095  12.786   4.072
65000SOL    HW296898   9.192  12.673   4.102
65001SOL     OW96899   4.126  11.161   6.263
65001SOL    HW196900   4.206  11.169   6.211
65001SOL    HW296901   4.152  11.110   6.339
65002SOL     OW96902   5.138   9.799   7.088
65002SOL    HW196903   5.226   9.819   7.059
65002SOL    HW296904   5.118   9.867   7.152
65003SOL     OW96905   3.671   8.694   6.516
65003SOL    HW196906   3.601   8.715   6.453
65003SOL    HW296907   3.751   8.727   6.474
65004SOL     OW96908  14.069   5.074   0.801
65004SOL    HW196909  14.017   5.091   0.723
65004SOL    HW296910  14.148   5.030   0.768
65005SOL     OW96911  13.167   4.744   3.525
65005SOL    HW196912  13.119   4.661   3.533
65005SOL    HW296913  13.101   4.807   3.497
65006SOL     OW96914  13.888   2.233  11.763
65006SOL    HW196915  13.852   2.321  11.752
65006SOL    HW296916  13.900   2.224  11.858
65007SOL     OW96917   0.213   9.021   5.503
65007SOL    HW196918   0.238   9.053   5.589
65007SOL    HW296919   0.118   9.017   5.505
65008SOL     OW96920  11.953  10.771  14.720
65008SOL    HW196921  11.862  10.800  14.733
65008SOL    HW296922  11.951  10.721  14.639
65009SOL     OW96923   8.342   2.823   7.104
65009SOL    HW196924   8.268   2.763   7.118
65009SOL    HW296925   8.348   2.831   7.009
65010SOL     OW96926   0.961   5.390  12.131
65010SOL    HW196927   0.927   5.450  12.064
65010SOL    HW296928   0.899   5.397  12.203
65011SOL     OW96929   3.800   5.901   3.295
65011SOL    HW196930   3.721   5.863   3.257
65011SOL    HW296931   3.812   5.854   3.378
65012SOL     OW96932   9.711  11.319   5.142
65012SOL    HW196933   9.699  11.344   5.051
65012SOL    HW296934   9.685  11.227   5.146
65013SOL     OW96935   7.539   8.516   9.154
65013SOL    HW196936   7.551   8.468   9.072
65013SOL    HW296937   7.447   8.543   9.153
65014SOL     OW96938  10.699   7.610  13.735
65014SOL    HW196939  10.695   7.624  13.829
65014SOL    HW296940  10.611   7.581  13.711
65015SOL     OW96941   0.223  12.573   7.628
65015SOL    HW196942   0.159  12.504   7.649
65015SOL    HW296943   0.284  12.532   7.567
65016SOL     OW96944  10.786   7.703  10.543
65016SOL    HW196945  10.742   7.619  10.548
65016SOL    HW296946  10.865   7.685  10.492
65017SOL     OW96947   8.969  14.332  12.535
65017SOL    HW196948   9.032  14.272  12.576
65017SOL    HW296949   8.989  14.417  12.574
65018SOL     OW96950   5.810   9.816   1.612
65018SOL    HW196951   5.856   9.754   1.554
65018SOL    HW296952   5.879   9.871   1.648
65019SOL     OW96953   8.884   2.355  10.802
65019SOL    HW196954   8.792   2.350  10.775
65019SOL    HW296955   8.890   2.439  10.848
65020SOL     OW96956   7.576   8.045   5.452
65020SOL    HW196957   7.551   8.063   5.543
65020SOL    HW296958   7.534   8.115   5.401
65021SOL     OW96959  14.477   2.125   5.802
65021SOL    HW196960  14.530   2.055   5.766
65021SOL    HW296961  14.510   2.138   5.890
65022SOL     OW96962   6.222   6.118   9.699
65022SOL    HW196963   6.206   6.102   9.792
65022SOL    HW296964   6.185   6.043   9.654
65023SOL     OW96965   7.539   6.599   4.261
65023SOL    HW196966   7.606   6.561   4.203
65023SOL    HW296967   7.487   6.524   4.288
65024SOL     OW96968  10.525   7.110   7.175
65024SOL    HW196969  10.526   7.162   7.255
65024SOL    HW296970  10.443   7.060   7.180
65025SOL     OW96971   6.265  11.036   4.047
65025SOL    HW196972   6.322  11.028   3.970
65025SOL    HW296973   6.318  10.999   4.118
65026SOL     OW96974   7.657   4.631   4.104
65026SOL    HW196975   7.644   4.538   4.089
65026SOL    HW296976   7.681   4.666   4.018
65027SOL     OW96977   9.076  14.684   2.304
65027SOL    HW196978   9.086  14.597   2.343
65027SOL    HW296979   9.019  14.731   2.365
65028SOL     OW96980   4.024   5.054   8.168
65028SOL    HW196981   4.079   5.002   8.109
65028SOL    HW296982   3.956   5.090   8.112
65029SOL     OW96983  12.286  13.547   9.915
65029SOL    HW196984  12.344  13.471   9.917
65029SOL    HW296985  12.205  13.516   9.955
65030SOL     OW96986   2.285  11.192   6.605
65030SOL    HW196987   2.330  11.137   6.542
65030SOL    HW296988   2.355  11.232   6.656
65031SOL     OW96989   2.878  13.706   7.027
65031SOL    HW196990   2.787  13.688   7.006
65031SOL    HW296991   2.906  13.629   7.077
65032SOL     OW96992   6.569   7.521   9.556
65032SOL    HW196993   6.583   7.574   9.478
65032SOL    HW296994   6.610   7.569   9.627
65033SOL     OW96995   2.093  13.983   3.479
65033SOL    HW196996   2.164  14.008   3.420
65033SOL    HW296997   2.136  13.963   3.562
65034SOL     OW96998   3.838   0.874   9.207
65034SOL    HW196999   3.862   0.965   9.221
65034SOL    HW297000   3.782   0.876   9.129
65035SOL     OW97001   5.005   2.233   7.354
65035SOL    HW197002   5.047   2.153   7.323
65035SOL    HW297003   4.988   2.284   7.275
65036SOL     OW97004  12.044   4.447   5.223
65036SOL    HW197005  12.057   4.504   5.299
65036SOL    HW297006  12.072   4.360   5.252
65037SOL     OW97007  12.452   9.297   3.365
65037SOL    HW197008  12.416   9.381   3.393
65037SOL    HW297009  12.519   9.276   3.430
65038SOL     OW97010   8.137   9.010   4.467
65038SOL    HW197011   8.072   9.076   4.442
65038SOL    HW297012   8.114   8.988   4.558
65039SOL     OW97013  10.715   5.059   3.161
65039SOL    HW197014  10.649   5.079   3.227
65039SOL    HW297015  10.779   5.130   3.168
65040SOL     OW97016   4.353   1.082  13.781
65040SOL    HW197017   4.444   1.063  13.803
65040SOL    HW297018   4.348   1.178  13.780
65041SOL     OW97019   6.202   6.561   3.378
65041SOL    HW197020   6.222   6.468   3.375
65041SOL    HW297021   6.156   6.574   3.461
65042SOL     OW97022  13.020   6.573   2.031
65042SOL    HW197023  13.034   6.598   2.122
65042SOL    HW297024  12.963   6.497   2.036
65043SOL     OW97025  13.374   2.024   1.715
65043SOL    HW197026  13.438   2.092   1.693
65043SOL    HW297027  13.391   1.954   1.653
65044SOL     OW97028   0.356   0.217   7.723
65044SOL    HW197029   0.290   0.152   7.747
65044SOL    HW297030   0.416   0.220   7.797
65045SOL     OW97031  12.245   5.183  10.109
65045SOL    HW197032  12.263   5.126  10.183
65045SOL    HW297033  12.155   5.213  10.122
65046SOL     OW97034   4.003  12.844   4.864
65046SOL    HW197035   3.991  12.813   4.954
65046SOL    HW297036   3.928  12.901   4.848
65047SOL     OW97037   0.540  14.799  12.017
65047SOL    HW197038   0.514  14.737  11.949
65047SOL    HW297039   0.582  14.871  11.970
65048SOL     OW97040  14.615   5.225  12.055
65048SOL    HW197041  14.613   5.182  12.141
65048SOL    HW297042  14.707   5.245  12.041
65049SOL     OW97043  10.501   7.968   6.155
65049SOL    HW197044  10.564   7.939   6.088
65049SOL    HW297045  10.421   7.920   6.134
65050SOL     OW97046   0.898   6.311   3.307
65050SOL    HW197047   0.874   6.261   3.384
65050SOL    HW297048   0.922   6.398   3.340
65051SOL     OW97049  12.481   2.241   3.370
65051SOL    HW197050  12.393   2.277   3.361
65051SOL    HW297051  12.472   2.150   3.341
65052SOL     OW97052   2.994  14.293  13.343
65052SOL    HW197053   3.012  14.360  13.410
65052SOL    HW297054   3.054  14.314  13.271
65053SOL     OW97055   0.852   7.895   5.219
65053SOL    HW197056   0.822   7.809   5.249
65053SOL    HW297057   0.876   7.942   5.300
65054SOL     OW97058   2.472  11.688  11.644
65054SOL    HW197059   2.407  11.716  11.709
65054SOL    HW297060   2.461  11.593  11.639
65055SOL     OW97061   1.151   9.843   2.786
65055SOL    HW197062   1.176   9.931   2.813
65055SOL    HW297063   1.215   9.820   2.718
65056SOL     OW97064   2.310   5.962   6.569
65056SOL    HW197065   2.381   5.910   6.608
65056SOL    HW297066   2.237   5.901   6.561
65057SOL     OW97067   2.345  14.836   3.693
65057SOL    HW197068   2.383  14.812   3.608
65057SOL    HW297069   2.291  14.760   3.717
65058SOL     OW97070   1.580  12.514   4.655
65058SOL    HW197071   1.562  12.578   4.586
65058SOL    HW297072   1.630  12.562   4.720
65059SOL     OW97073   5.436   1.684   5.991
65059SOL    HW197074   5.398   1.658   5.907
65059SOL    HW297075   5.531   1.673   5.978
65060SOL     OW97076   3.127   3.094   9.822
65060SOL    HW197077   3.086   3.178   9.799
65060SOL    HW297078   3.216   3.117   9.847
65061SOL     OW97079  13.079  11.584  13.866
65061SOL    HW197080  13.047  11.561  13.953
65061SOL    HW297081  13.174  11.575  13.872
65062SOL     OW97082   4.122   3.429  11.310
65062SOL    HW197083   4.132   3.334  11.324
65062SOL    HW297084   4.179   3.448  11.236
65063SOL     OW97085  10.771  14.271  10.784
65063SOL    HW197086  10.863  14.296  10.778
65063SOL    HW297087  10.723  14.351  10.761
65064SOL     OW97088   6.788  12.308   5.350
65064SOL    HW197089   6.763  12.238   5.291
65064SOL    HW297090   6.824  12.376   5.293
65065SOL     OW97091   1.361   6.578  11.412
65065SOL    HW197092   1.418   6.629  11.469
65065SOL    HW297093   1.397   6.489  11.417
65066SOL     OW97094   8.433  13.341   7.353
65066SOL    HW197095   8.412  13.342   7.446
65066SOL    HW297096   8.506  13.279   7.346
65067SOL     OW97097  10.137   9.535   9.206
65067SOL    HW197098  10.192   9.467   9.245
65067SOL    HW297099  10.191   9.613   9.208
65068SOL     OW97100   9.160   4.576  12.976
65068SOL    HW197101   9.142   4.669  12.988
65068SOL    HW297102   9.166   4.564  12.881
65069SOL     OW97103  12.633   6.358   8.550
65069SOL    HW197104  12.638   6.378   8.643
65069SOL    HW297105  12.585   6.276   8.545
65070SOL     OW97106  14.862   5.593   1.827
65070SOL    HW197107  14.808   5.527   1.784
65070SOL    HW297108  14.875   5.660   1.761
65071SOL     OW97109   3.291   4.370   9.386
65071SOL    HW197110   3.366   4.381   9.327
65071SOL    HW297111   3.312   4.427   9.461
65072SOL     OW97112   0.950   3.959  10.409
65072SOL    HW197113   0.888   3.982  10.339
65072SOL    HW297114   0.927   3.869  10.432
65073SOL     OW97115   3.323   3.893  10.696
65073SOL    HW197116   3.384   3.828  10.731
65073SOL    HW297117   3.364   3.977  10.715
65074SOL     OW97118  11.787   6.653   3.907
65074SOL    HW197119  11.745   6.588   3.851
65074SOL    HW297120  11.717   6.714   3.929
65075SOL     OW97121  14.391   4.267  10.902
65075SOL    HW197122  14.401   4.350  10.949
65075SOL    HW297123  14.383   4.292  10.810
65076SOL     OW97124   4.919  14.804   2.379
65076SOL    HW197125   5.010  14.833   2.385
65076SOL    HW297126   4.870  14.868   2.431
65077SOL     OW97127   2.681  13.649  11.781
65077SOL    HW197128   2.595  13.655  11.740
65077SOL    HW297129   2.686  13.726  11.838
65078SOL     OW97130   5.500   6.690   3.424
65078SOL    HW197131   5.595   6.702   3.418
65078SOL    HW297132   5.465   6.732   3.346
65079SOL     OW97133   6.145   2.304   9.991
65079SOL    HW197134   6.237   2.290  10.014
65079SOL    HW297135   6.097   2.240  10.043
65080SOL     OW97136   3.638  12.271  11.717
65080SOL    HW197137   3.563  12.261  11.776
65080SOL    HW297138   3.618  12.350  11.666
65081SOL     OW97139  11.681   8.188  10.602
65081SOL    HW197140  11.748   8.138  10.648
65081SOL    HW297141  11.616   8.208  10.669
65082SOL     OW97142   9.644   0.762   1.967
65082SOL    HW197143   9.590   0.694   2.008
65082SOL    HW297144   9.585   0.809   1.908
65083SOL     OW97145   6.404  10.747  14.349
65083SOL    HW197146   6.425  10.840  14.354
65083SOL    HW297147   6.359  10.728  14.431
65084SOL     OW97148  12.434   3.343   8.095
65084SOL    HW197149  12.514   3.311   8.052
65084SOL    HW297150  12.462   3.421   8.143
65085SOL     OW97151   8.436   2.465   9.510
65085SOL    HW197152   8.395   2.497   9.590
65085SOL    HW297153   8.392   2.382   9.491
65086SOL     OW97154   3.206  11.495   1.334
65086SOL    HW197155   3.281  11.509   1.277
65086SOL    HW297156   3.197  11.400   1.340
65087SOL     OW97157  10.978   0.881   7.288
65087SOL    HW197158  11.059   0.877   7.338
65087SOL    HW297159  10.988   0.956   7.230
65088SOL     OW97160   3.484   4.156   3.915
65088SOL    HW197161   3.554   4.122   3.971
65088SOL    HW297162   3.506   4.248   3.901
65089SOL     OW97163   7.344  11.799   8.604
65089SOL    HW197164   7.268  11.802   8.546
65089SOL    HW297165   7.408  11.858   8.564
65090SOL     OW97166   9.923   7.738   8.502
65090SOL    HW197167   9.885   7.651   8.494
65090SOL    HW297168   9.931   7.752   8.597
65091SOL     OW97169   5.038   9.561   4.266
65091SOL    HW197170   4.983   9.574   4.343
65091SOL    HW297171   5.102   9.494   4.293
65092SOL     OW97172  13.826   4.485  13.210
65092SOL    HW197173  13.786   4.567  13.240
65092SOL    HW297174  13.862   4.507  13.124
65093SOL     OW97175   8.066   5.798   9.294
65093SOL    HW197176   8.065   5.838   9.207
65093SOL    HW297177   8.157   5.771   9.307
65094SOL     OW97178  14.688  10.394   9.738
65094SOL    HW197179  14.747  10.348   9.798
65094SOL    HW297180  14.665  10.474   9.785
65095SOL     OW97181   9.199  10.451   5.782
65095SOL    HW197182   9.267  10.389   5.756
65095SOL    HW297183   9.247  10.530   5.808
65096SOL     OW97184   5.118  14.546   9.694
65096SOL    HW197185   5.212  14.541   9.708
65096SOL    HW297186   5.087  14.455   9.701
65097SOL     OW97187  13.234  13.093  10.065
65097SOL    HW197188  13.327  13.087  10.086
65097SOL    HW297189  13.230  13.085   9.970
65098SOL     OW97190   8.226   1.364  12.832
65098SOL    HW197191   8.223   1.375  12.927
65098SOL    HW297192   8.139   1.391  12.803
65099SOL     OW97193   6.251   6.244  10.240
65099SOL    HW197194   6.241   6.277  10.329
65099SOL    HW297195   6.278   6.153  10.250
65100SOL     OW97196   1.838   7.594   0.687
65100SOL    HW197197   1.750   7.586   0.725
65100SOL    HW297198   1.829   7.660   0.618
65101SOL     OW97199   7.103   9.418  13.821
65101SOL    HW197200   7.088   9.498  13.871
65101SOL    HW297201   7.080   9.441  13.731
65102SOL     OW97202   0.033   5.205   8.807
65102SOL    HW197203  14.834   5.179   8.752
65102SOL    HW297204   0.101   5.139   8.789
65103SOL     OW97205  12.806  10.553   0.196
65103SOL    HW197206  12.881  10.562   0.255
65103SOL    HW297207  12.836  10.492   0.129
65104SOL     OW97208   5.655  10.496   5.497
65104SOL    HW197209   5.612  10.411   5.510
65104SOL    HW297210   5.744  10.482   5.528
65105SOL     OW97211  12.197  11.134  12.359
65105SOL    HW197212  12.169  11.207  12.415
65105SOL    HW297213  12.177  11.056  12.410
65106SOL     OW97214   4.377   0.931   5.905
65106SOL    HW197215   4.458   0.897   5.866
65106SOL    HW297216   4.329   0.852   5.932
65107SOL     OW97217   3.401   9.415  10.378
65107SOL    HW197218   3.426   9.459  10.459
65107SOL    HW297219   3.480   9.420  10.324
65108SOL     OW97220  10.955   5.258   1.377
65108SOL    HW197221  10.873   5.258   1.327
65108SOL    HW297222  10.930   5.225   1.463
65109SOL     OW97223   9.440   8.497  11.662
65109SOL    HW197224   9.423   8.406  11.639
65109SOL    HW297225   9.361   8.526  11.707
65110SOL     OW97226   0.340   9.442   0.268
65110SOL    HW197227   0.288   9.367   0.295
65110SOL    HW297228   0.319   9.454   0.175
65111SOL     OW97229  13.853  12.587   3.917
65111SOL    HW197230  13.937  12.602   3.960
65111SOL    HW297231  13.855  12.645   3.841
65112SOL     OW97232   7.915   3.678   1.178
65112SOL    HW197233   7.849   3.611   1.194
65112SOL    HW297234   7.866   3.751   1.140
65113SOL     OW97235   6.584   3.443   9.062
65113SOL    HW197236   6.579   3.538   9.056
65113SOL    HW297237   6.621   3.416   8.978
65114SOL     OW97238   7.009   0.802   9.599
65114SOL    HW197239   6.930   0.782   9.550
65114SOL    HW297240   7.055   0.867   9.545
65115SOL     OW97241   6.867   6.040   5.590
65115SOL    HW197242   6.814   6.109   5.629
65115SOL    HW297243   6.811   5.962   5.593
65116SOL     OW97244   6.671   2.358   7.519
65116SOL    HW197245   6.756   2.324   7.492
65116SOL    HW297246   6.611   2.331   7.450
65117SOL     OW97247  10.754  13.367   0.610
65117SOL    HW197248  10.659  13.382   0.606
65117SOL    HW297249  10.785  13.384   0.521
65118SOL     OW97250  12.811   5.922  13.363
65118SOL    HW197251  12.750   5.996  13.361
65118SOL    HW297252  12.827   5.906  13.456
65119SOL     OW97253   4.482   1.701   4.653
65119SOL    HW197254   4.568   1.735   4.678
65119SOL    HW297255   4.460   1.747   4.572
65120SOL     OW97256   2.204   5.159   8.911
65120SOL    HW197257   2.113   5.181   8.893
65120SOL    HW297258   2.200   5.088   8.976
65121SOL     OW97259   2.051  14.108  14.336
65121SOL    HW197260   1.998  14.170  14.387
65121SOL    HW297261   2.125  14.160  14.305
65122SOL     OW97262   0.706  12.267  14.179
65122SOL    HW197263   0.710  12.268  14.274
65122SOL    HW297264   0.627  12.317  14.157
65123SOL     OW97265   4.032   9.152   2.123
65123SOL    HW197266   4.014   9.246   2.130
65123SOL    HW297267   4.027   9.120   2.213
65124SOL     OW97268   1.663   3.528   6.952
65124SOL    HW197269   1.714   3.448   6.944
65124SOL    HW297270   1.668   3.550   7.045
65125SOL     OW97271   0.265  12.757  10.156
65125SOL    HW197272   0.301  12.840  10.187
65125SOL    HW297273   0.222  12.779  10.074
65126SOL     OW97274  11.772   6.823   9.415
65126SOL    HW197275  11.780   6.910   9.454
65126SOL    HW297276  11.680   6.800   9.425
65127SOL     OW97277  13.494   7.613  12.262
65127SOL    HW197278  13.530   7.582  12.180
65127SOL    HW297279  13.414   7.561  12.274
65128SOL     OW97280   2.906  11.317  10.063
65128SOL    HW197281   2.889  11.249  10.129
65128SOL    HW297282   2.843  11.386  10.082
65129SOL     OW97283  13.042  12.243  10.744
65129SOL    HW197284  13.134  12.228  10.719
65129SOL    HW297285  13.045  12.257  10.839
65130SOL     OW97286   9.760   4.118  13.072
65130SOL    HW197287   9.674   4.103  13.034
65130SOL    HW297288   9.817   4.054  13.031
65131SOL     OW97289   4.726  14.091   3.807
65131SOL    HW197290   4.666  14.054   3.742
65131SOL    HW297291   4.722  14.186   3.791
65132SOL     OW97292  10.786  11.331   7.409
65132SOL    HW197293  10.846  11.373   7.471
65132SOL    HW297294  10.703  11.328   7.455
65133SOL     OW97295   7.409   5.520  14.310
65133SOL    HW197296   7.430   5.504  14.402
65133SOL    HW297297   7.458   5.453  14.262
65134SOL     OW97298   6.206   1.027   1.243
65134SOL    HW197299   6.268   1.041   1.172
65134SOL    HW297300   6.141   0.967   1.207
65135SOL     OW97301   2.774  13.737  10.250
65135SOL    HW197302   2.797  13.745  10.343
65135SOL    HW297303   2.768  13.827  10.219
65136SOL     OW97304   2.723  12.286   0.043
65136SOL    HW197305   2.649  12.312   0.098
65136SOL    HW297306   2.683  12.255  14.837
65137SOL     OW97307  14.401  11.839  14.793
65137SOL    HW197308  14.449  11.813  14.715
65137SOL    HW297309  14.310  11.815  14.774
65138SOL     OW97310   2.673   5.551   6.947
65138SOL    HW197311   2.599   5.591   6.900
65138SOL    HW297312   2.647   5.554   7.039
65139SOL     OW97313  10.546   5.803  14.100
65139SOL    HW197314  10.513   5.858  14.171
65139SOL    HW297315  10.481   5.814  14.030
65140SOL     OW97316   0.070   9.640   0.790
65140SOL    HW197317   0.015   9.717   0.774
65140SOL    HW297318   0.160   9.674   0.787
65141SOL     OW97319   5.025   0.433   4.274
65141SOL    HW197320   5.120   0.438   4.260
65141SOL    HW297321   5.002   0.519   4.309
65142SOL     OW97322   3.536  12.997   6.071
65142SOL    HW197323   3.506  12.968   5.985
65142SOL    HW297324   3.458  12.993   6.127
65143SOL     OW97325  11.323   2.898   6.540
65143SOL    HW197326  11.236   2.889   6.578
65143SOL    HW297327  11.366   2.964   6.594
65144SOL     OW97328   1.548   1.418  11.296
65144SOL    HW197329   1.568   1.474  11.221
65144SOL    HW297330   1.604   1.451  11.366
65145SOL     OW97331  12.739   2.672   6.594
65145SOL    HW197332  12.810   2.721   6.554
65145SOL    HW297333  12.674   2.739   6.618
65146SOL     OW97334   3.313   9.409   6.746
65146SOL    HW197335   3.255   9.399   6.670
65146SOL    HW297336   3.268   9.362   6.816
65147SOL     OW97337   2.169  12.617   5.491
65147SOL    HW197338   2.230  12.544   5.500
65147SOL    HW297339   2.201  12.666   5.416
65148SOL     OW97340   5.041   3.588   2.219
65148SOL    HW197341   4.971   3.644   2.187
65148SOL    HW297342   5.068   3.629   2.302
65149SOL     OW97343   8.187   3.055   0.695
65149SOL    HW197344   8.215   3.067   0.604
65149SOL    HW297345   8.186   3.143   0.733
65150SOL     OW97346   0.942   9.866  11.050
65150SOL    HW197347   0.874   9.887  11.114
65150SOL    HW297348   0.900   9.879  10.965
65151SOL     OW97349   8.640  14.321  12.915
65151SOL    HW197350   8.567  14.259  12.923
65151SOL    HW297351   8.675  14.306  12.827
65152SOL     OW97352  10.507  12.202   1.836
65152SOL    HW197353  10.507  12.141   1.909
65152SOL    HW297354  10.426  12.253   1.847
65153SOL     OW97355   6.604  10.929   0.006
65153SOL    HW197356   6.589  11.001   0.067
65153SOL    HW297357   6.581  10.965  14.796
65154SOL     OW97358   9.899   1.345   1.531
65154SOL    HW197359   9.866   1.325   1.443
65154SOL    HW297360   9.824   1.379   1.578
65155SOL     OW97361   1.528   4.874   3.417
65155SOL    HW197362   1.528   4.854   3.324
65155SOL    HW297363   1.612   4.918   3.432
65156SOL     OW97364  14.596   0.499  11.869
65156SOL    HW197365  14.663   0.435  11.891
65156SOL    HW297366  14.638   0.556  11.805
65157SOL     OW97367   8.593   0.344  10.645
65157SOL    HW197368   8.552   0.382  10.567
65157SOL    HW297369   8.684   0.373  10.641
65158SOL     OW97370   1.558   7.444   7.600
65158SOL    HW197371   1.554   7.410   7.690
65158SOL    HW297372   1.634   7.399   7.562
65159SOL     OW97373  12.581  10.941  10.881
65159SOL    HW197374  12.605  10.888  10.805
65159SOL    HW297375  12.486  10.948  10.876
65160SOL     OW97376   2.730   1.119  12.981
65160SOL    HW197377   2.690   1.083  12.902
65160SOL    HW297378   2.714   1.214  12.974
65161SOL     OW97379  10.817   7.943   6.215
65161SOL    HW197380  10.802   8.030   6.177
65161SOL    HW297381  10.902   7.951   6.259
65162SOL     OW97382   2.567   1.097   4.253
65162SOL    HW197383   2.565   1.189   4.227
65162SOL    HW297384   2.656   1.068   4.233
65163SOL     OW97385   9.914   2.292   0.435
65163SOL    HW197386   9.916   2.199   0.455
65163SOL    HW297387   9.921   2.335   0.520
65164SOL     OW97388   3.223  13.438   6.935
65164SOL    HW197389   3.292  13.465   6.996
65164SOL    HW297390   3.146  13.427   6.991
65165SOL     OW97391   4.742  13.272   9.811
65165SOL    HW197392   4.799  13.281   9.734
65165SOL    HW297393   4.655  13.294   9.778
65166SOL     OW97394   6.788   3.927   9.625
65166SOL    HW197395   6.827   3.865   9.686
65166SOL    HW297396   6.861   3.981   9.595
65167SOL     OW97397   7.352   3.285   2.346
65167SOL    HW197398   7.262   3.306   2.320
65167SOL    HW297399   7.407   3.333   2.283
65168SOL     OW97400  12.594   8.071   5.305
65168SOL    HW197401  12.660   8.141   5.302
65168SOL    HW297402  12.527   8.104   5.365
65169SOL     OW97403  11.511   1.222  12.409
65169SOL    HW197404  11.600   1.187  12.415
65169SOL    HW297405  11.458   1.146  12.384
65170SOL     OW97406  10.795   7.044  10.069
65170SOL    HW197407  10.758   6.993  10.141
65170SOL    HW297408  10.753   7.009   9.991
65171SOL     OW97409   8.429   8.578   6.918
65171SOL    HW197410   8.499   8.521   6.949
65171SOL    HW297411   8.349   8.526   6.927
65172SOL     OW97412  13.570   8.150  12.656
65172SOL    HW197413  13.605   8.120  12.740
65172SOL    HW297414  13.647   8.178  12.606
65173SOL     OW97415  12.417  10.631   7.490
65173SOL    HW197416  12.375  10.710   7.525
65173SOL    HW297417  12.422  10.571   7.564
65174SOL     OW97418   8.110   8.248  10.064
65174SOL    HW197419   8.061   8.259  10.145
65174SOL    HW297420   8.047   8.214  10.001
65175SOL     OW97421   2.253   0.436   7.439
65175SOL    HW197422   2.287   0.458   7.352
65175SOL    HW297423   2.288   0.349   7.457
65176SOL     OW97424   0.014   9.148  11.209
65176SOL    HW197425   0.081   9.144  11.141
65176SOL    HW297426   0.030   9.070  11.263
65177SOL     OW97427  13.233  13.595   3.506
65177SOL    HW197428  13.189  13.591   3.591
65177SOL    HW297429  13.304  13.658   3.519
65178SOL     OW97430   1.323   3.021   7.865
65178SOL    HW197431   1.255   3.085   7.887
65178SOL    HW297432   1.312   3.005   7.772
65179SOL     OW97433   6.869  14.104   9.928
65179SOL    HW197434   6.919  14.131   9.851
65179SOL    HW297435   6.798  14.168   9.934
65180SOL     OW97436   3.330  10.474  14.176
65180SOL    HW197437   3.300  10.524  14.101
65180SOL    HW297438   3.300  10.523  14.252
65181SOL     OW97439  13.416   4.077  14.640
65181SOL    HW197440  13.350   4.089  14.708
65181SOL    HW297441  13.491   4.039  14.685
65182SOL     OW97442   3.204   3.965   2.874
65182SOL    HW197443   3.117   3.937   2.904
65182SOL    HW297444   3.191   4.055   2.845
65183SOL     OW97445   1.263   4.847   8.119
65183SOL    HW197446   1.228   4.796   8.193
65183SOL    HW297447   1.238   4.796   8.042
65184SOL     OW97448   0.457   6.958   7.340
65184SOL    HW197449   0.402   6.979   7.265
65184SOL    HW297450   0.453   6.863   7.347
65185SOL     OW97451   8.337   0.895   9.546
65185SOL    HW197452   8.357   0.817   9.599
65185SOL    HW297453   8.403   0.895   9.477
65186SOL     OW97454   7.460  14.231   8.449
65186SOL    HW197455   7.381  14.202   8.496
65186SOL    HW297456   7.490  14.307   8.498
65187SOL     OW97457   8.711   1.865   2.579
65187SOL    HW197458   8.692   1.869   2.672
65187SOL    HW297459   8.804   1.842   2.574
65188SOL     OW97460  12.732  11.361  11.800
65188SOL    HW197461  12.696  11.284  11.844
65188SOL    HW297462  12.741  11.427  11.868
65189SOL     OW97463  12.602   6.718   3.934
65189SOL    HW197464  12.577   6.658   3.864
65189SOL    HW297465  12.694   6.697   3.951
65190SOL     OW97466   7.369   1.784   0.804
65190SOL    HW197467   7.404   1.828   0.881
65190SOL    HW297468   7.296   1.731   0.837
65191SOL     OW97469   2.174  12.155  11.090
65191SOL    HW197470   2.268  12.160  11.070
65191SOL    HW297471   2.167  12.185  11.180
65192SOL     OW97472   8.866   3.289  10.921
65192SOL    HW197473   8.889   3.346  10.994
65192SOL    HW297474   8.863   3.201  10.959
65193SOL     OW97475  13.881   6.982   1.671
65193SOL    HW197476  13.801   6.974   1.620
65193SOL    HW297477  13.865   7.054   1.731
65194SOL     OW97478   0.438  11.819   8.705
65194SOL    HW197479   0.485  11.899   8.681
65194SOL    HW297480   0.492  11.778   8.772
65195SOL     OW97481  10.892   7.668  11.309
65195SOL    HW197482  10.837   7.604  11.354
65195SOL    HW297483  10.949   7.617  11.252
65196SOL     OW97484   2.348   3.272  13.089
65196SOL    HW197485   2.384   3.257  13.001
65196SOL    HW297486   2.315   3.362  13.085
65197SOL     OW97487  10.357  12.089   7.689
65197SOL    HW197488  10.319  12.065   7.773
65197SOL    HW297489  10.287  12.136   7.643
65198SOL     OW97490   8.760   7.186  11.910
65198SOL    HW197491   8.817   7.151  11.841
65198SOL    HW297492   8.676   7.200  11.868
65199SOL     OW97493   7.111  14.305  14.728
65199SOL    HW197494   7.063  14.246  14.669
65199SOL    HW297495   7.132  14.250  14.804
65200SOL     OW97496  11.208   1.497   5.316
65200SOL    HW197497  11.199   1.429   5.383
65200SOL    HW297498  11.123   1.540   5.315
65201SOL     OW97499   2.852   3.327  14.338
65201SOL    HW197500   2.846   3.234  14.314
65201SOL    HW297501   2.811   3.373  14.265
65202SOL     OW97502  14.378   5.510   2.727
65202SOL    HW197503  14.343   5.540   2.811
65202SOL    HW297504  14.444   5.445   2.751
65203SOL     OW97505   2.395   7.735  10.956
65203SOL    HW197506   2.463   7.751  11.022
65203SOL    HW297507   2.315   7.768  10.997
65204SOL     OW97508   6.922   9.204   4.677
65204SOL    HW197509   6.841   9.156   4.664
65204SOL    HW297510   6.950   9.181   4.765
65205SOL     OW97511  10.066   0.385   9.223
65205SOL    HW197512  10.044   0.332   9.147
65205SOL    HW297513  10.072   0.474   9.190
65206SOL     OW97514   9.944  13.266  13.570
65206SOL    HW197515  10.036  13.244  13.581
65206SOL    HW297516   9.931  13.266  13.475
65207SOL     OW97517   2.745   8.929  11.433
65207SOL    HW197518   2.744   9.013  11.479
65207SOL    HW297519   2.790   8.948  11.350
65208SOL     OW97520  13.339   0.364   7.237
65208SOL    HW197521  13.426   0.324   7.241
65208SOL    HW297522  13.309   0.365   7.328
65209SOL     OW97523  12.925   6.655  14.137
65209SOL    HW197524  12.927   6.746  14.168
65209SOL    HW297525  12.982   6.608  14.198
65210SOL     OW97526   1.553  13.143   0.379
65210SOL    HW197527   1.594  13.219   0.338
65210SOL    HW297528   1.526  13.174   0.466
65211SOL     OW97529   7.060  13.363  14.209
65211SOL    HW197530   7.131  13.300  14.221
65211SOL    HW297531   7.050  13.370  14.114
65212SOL     OW97532   5.146   8.727   4.502
65212SOL    HW197533   5.128   8.708   4.410
65212SOL    HW297534   5.070   8.693   4.549
65213SOL     OW97535  13.515   5.030  14.122
65213SOL    HW197536  13.488   5.117  14.152
65213SOL    HW297537  13.593   5.046  14.069
65214SOL     OW97538  13.895   4.469  13.473
65214SOL    HW197539  13.847   4.394  13.508
65214SOL    HW297540  13.857   4.483  13.386
65215SOL     OW97541   4.327   4.886   3.979
65215SOL    HW197542   4.307   4.963   3.926
65215SOL    HW297543   4.423   4.887   3.986
65216SOL     OW97544   8.383   8.255   9.251
65216SOL    HW197545   8.443   8.321   9.216
65216SOL    HW297546   8.440   8.182   9.278
65217SOL     OW97547   7.584  11.576   0.380
65217SOL    HW197548   7.607  11.649   0.437
65217SOL    HW297549   7.662  11.563   0.326
65218SOL     OW97550   0.663   9.151   7.496
65218SOL    HW197551   0.675   9.095   7.573
65218SOL    HW297552   0.630   9.233   7.531
65219SOL     OW97553   8.201   4.106   3.778
65219SOL    HW197554   8.274   4.046   3.770
65219SOL    HW297555   8.189   4.142   3.690
65220SOL     OW97556   5.981  12.563   5.045
65220SOL    HW197557   5.973  12.584   4.951
65220SOL    HW297558   6.036  12.485   5.047
65221SOL     OW97559   9.112   8.774  13.026
65221SOL    HW197560   9.149   8.692  12.992
65221SOL    HW297561   9.183   8.813  13.077
65222SOL     OW97562  10.262   6.492  13.020
65222SOL    HW197563  10.213   6.440  13.084
65222SOL    HW297564  10.267   6.436  12.943
65223SOL     OW97565  11.458   9.220   6.822
65223SOL    HW197566  11.433   9.128   6.821
65223SOL    HW297567  11.384   9.266   6.862
65224SOL     OW97568   6.799   6.038   4.215
65224SOL    HW197569   6.784   6.047   4.121
65224SOL    HW297570   6.788   6.127   4.249
65225SOL     OW97571  12.399   5.349  10.318
65225SOL    HW197572  12.425   5.260  10.342
65225SOL    HW297573  12.346   5.378  10.392
65226SOL     OW97574   3.489  11.127   1.936
65226SOL    HW197575   3.530  11.187   1.874
65226SOL    HW297576   3.397  11.122   1.909
65227SOL     OW97577  12.739  10.393  14.083
65227SOL    HW197578  12.734  10.434  14.169
65227SOL    HW297579  12.765  10.303  14.101
65228SOL     OW97580   0.744   4.696  10.634
65228SOL    HW197581   0.757   4.701  10.539
65228SOL    HW297582   0.723   4.604  10.650
65229SOL     OW97583  11.572   1.409   0.107
65229SOL    HW197584  11.529   1.460   0.039
65229SOL    HW297585  11.624   1.473   0.156
65230SOL     OW97586  11.242  10.720   7.115
65230SOL    HW197587  11.280  10.708   7.028
65230SOL    HW297588  11.316  10.714   7.175
65231SOL     OW97589   0.414   9.367   4.160
65231SOL    HW197590   0.423   9.412   4.076
65231SOL    HW297591   0.501   9.374   4.200
65232SOL     OW97592   4.219  10.770  11.977
65232SOL    HW197593   4.303  10.783  11.934
65232SOL    HW297594   4.176  10.701  11.928
65233SOL     OW97595   1.604  12.937   1.832
65233SOL    HW197596   1.545  12.936   1.757
65233SOL    HW297597   1.570  13.006   1.889
65234SOL     OW97598   1.721   1.683  11.862
65234SOL    HW197599   1.723   1.750  11.793
65234SOL    HW297600   1.682   1.728  11.937
65235SOL     OW97601   3.456  12.411   2.018
65235SOL    HW197602   3.402  12.439   2.092
65235SOL    HW297603   3.497  12.329   2.048
65236SOL     OW97604   4.137  11.676   9.960
65236SOL    HW197605   4.078  11.737  10.005
65236SOL    HW297606   4.223  11.718   9.964
65237SOL     OW97607   7.235  11.325   5.997
65237SOL    HW197608   7.309  11.372   5.959
65237SOL    HW297609   7.201  11.385   6.064
65238SOL     OW97610   2.853   6.014  14.600
65238SOL    HW197611   2.887   5.954  14.666
65238SOL    HW297612   2.854   5.964  14.518
65239SOL     OW97613  14.032  12.501  11.069
65239SOL    HW197614  14.080  12.577  11.035
65239SOL    HW297615  14.101  12.441  11.096
65240SOL     OW97616  11.834   0.231   5.642
65240SOL    HW197617  11.752   0.180   5.646
65240SOL    HW297618  11.860   0.227   5.550
65241SOL     OW97619   9.170   4.708  10.927
65241SOL    HW197620   9.128   4.793  10.937
65241SOL    HW297621   9.106   4.654  10.881
65242SOL     OW97622   1.853   6.954   8.150
65242SOL    HW197623   1.863   6.871   8.104
65242SOL    HW297624   1.873   7.020   8.084
65243SOL     OW97625  14.457  11.589   5.748
65243SOL    HW197626  14.364  11.576   5.770
65243SOL    HW297627  14.459  11.676   5.708
65244SOL     OW97628  14.121   5.239  13.234
65244SOL    HW197629  14.095   5.314  13.287
65244SOL    HW297630  14.217   5.246  13.227
65245SOL     OW97631  13.003   3.928   3.252
65245SOL    HW197632  12.952   3.892   3.179
65245SOL    HW297633  12.950   4.000   3.285
65246SOL     OW97634   1.153   0.704   5.913
65246SOL    HW197635   1.079   0.704   5.974
65246SOL    HW297636   1.230   0.698   5.970
65247SOL     OW97637   2.825   8.677   7.539
65247SOL    HW197638   2.917   8.660   7.521
65247SOL    HW297639   2.779   8.649   7.460
65248SOL     OW97640   7.035   0.812   8.230
65248SOL    HW197641   6.964   0.753   8.207
65248SOL    HW297642   6.996   0.899   8.227
65249SOL     OW97643   0.021  14.590   1.390
65249SOL    HW197644  14.831  14.657   1.370
65249SOL    HW297645   0.035  14.544   1.307
65250SOL     OW97646  11.199  10.566  12.430
65250SOL    HW197647  11.240  10.626  12.368
65250SOL    HW297648  11.109  10.599  12.440
65251SOL     OW97649   2.393  11.094   5.829
65251SOL    HW197650   2.383  11.182   5.792
65251SOL    HW297651   2.304  11.069   5.856
65252SOL     OW97652   0.824  12.621   3.539
65252SOL    HW197653   0.785  12.669   3.612
65252SOL    HW297654   0.833  12.686   3.470
65253SOL     OW97655   2.649   8.096   7.322
65253SOL    HW197656   2.658   8.176   7.270
65253SOL    HW297657   2.571   8.053   7.285
65254SOL     OW97658   2.775  12.231   0.998
65254SOL    HW197659   2.744  12.142   0.979
65254SOL    HW297660   2.783  12.233   1.093
65255SOL     OW97661   5.934   9.268   2.820
65255SOL    HW197662   5.911   9.351   2.779
65255SOL    HW297663   5.914   9.202   2.752
65256SOL     OW97664   6.067  10.732   5.365
65256SOL    HW197665   6.153  10.733   5.323
65256SOL    HW297666   6.062  10.815   5.412
65257SOL     OW97667   6.091   2.539   3.209
65257SOL    HW197668   6.133   2.614   3.166
65257SOL    HW297669   6.158   2.471   3.208
65258SOL     OW97670  14.702   3.348   7.245
65258SOL    HW197671  14.700   3.440   7.218
65258SOL    HW297672  14.668   3.301   7.169
65259SOL     OW97673   6.312  14.823  10.324
65259SOL    HW197674   6.262   0.021  10.287
65259SOL    HW297675   6.247  14.773  10.375
65260SOL     OW97676  12.557   6.493   4.142
65260SOL    HW197677  12.539   6.557   4.073
65260SOL    HW297678  12.482   6.500   4.201
65261SOL     OW97679  13.163  11.077   0.471
65261SOL    HW197680  13.214  10.999   0.450
65261SOL    HW297681  13.194  11.105   0.557
65262SOL     OW97682   2.260   9.216   1.460
65262SOL    HW197683   2.258   9.123   1.483
65262SOL    HW297684   2.213   9.259   1.531
65263SOL     OW97685   9.830   9.665  14.122
65263SOL    HW197686   9.843   9.758  14.105
65263SOL    HW297687   9.753   9.641  14.070
65264SOL     OW97688   9.875   0.413  12.826
65264SOL    HW197689   9.899   0.499  12.794
65264SOL    HW297690   9.780   0.415  12.832
65265SOL     OW97691   9.967   1.979   7.351
65265SOL    HW197692   9.901   2.034   7.310
65265SOL    HW297693   9.991   1.916   7.284
65266SOL     OW97694   4.250   7.274   1.366
65266SOL    HW197695   4.186   7.250   1.433
65266SOL    HW297696   4.293   7.191   1.343
65267SOL     OW97697   2.066   6.830   9.767
65267SOL    HW197698   2.034   6.740   9.768
65267SOL    HW297699   2.157   6.823   9.796
65268SOL     OW97700   5.923  12.221   7.514
65268SOL    HW197701   5.956  12.187   7.431
65268SOL    HW297702   6.001  12.237   7.566
65269SOL     OW97703  10.321  12.369  12.615
65269SOL    HW197704  10.276  12.362  12.531
65269SOL    HW297705  10.382  12.296  12.616
65270SOL     OW97706   7.861  11.670   7.886
65270SOL    HW197707   7.847  11.765   7.886
65270SOL    HW297708   7.778  11.633   7.917
65271SOL     OW97709   9.227  14.193   2.654
65271SOL    HW197710   9.280  14.270   2.673
65271SOL    HW297711   9.266  14.124   2.707
65272SOL     OW97712   7.486   4.448   6.761
65272SOL    HW197713   7.514   4.536   6.785
65272SOL    HW297714   7.545   4.422   6.690
65273SOL     OW97715  11.990   8.900   0.328
65273SOL    HW197716  12.013   8.853   0.248
65273SOL    HW297717  11.922   8.962   0.301
65274SOL     OW97718   2.647   5.890   2.761
65274SOL    HW197719   2.623   5.966   2.709
65274SOL    HW297720   2.606   5.905   2.846
65275SOL     OW97721   5.249   1.253   5.298
65275SOL    HW197722   5.172   1.309   5.293
65275SOL    HW297723   5.233   1.183   5.236
65276SOL     OW97724   3.629  11.595   9.600
65276SOL    HW197725   3.616  11.607   9.506
65276SOL    HW297726   3.545  11.562   9.632
65277SOL     OW97727  10.373   0.450   5.444
65277SOL    HW197728  10.413   0.536   5.455
65277SOL    HW297729  10.360   0.442   5.349
65278SOL     OW97730   3.731   4.652   0.298
65278SOL    HW197731   3.788   4.657   0.221
65278SOL    HW297732   3.762   4.575   0.345
65279SOL     OW97733  11.735   7.641   2.851
65279SOL    HW197734  11.803   7.576   2.868
65279SOL    HW297735  11.743   7.704   2.923
65280SOL     OW97736   7.844   3.140   3.104
65280SOL    HW197737   7.824   3.079   3.175
65280SOL    HW297738   7.758   3.173   3.075
65281SOL     OW97739   7.094   2.168  13.799
65281SOL    HW197740   7.093   2.182  13.893
65281SOL    HW297741   7.175   2.210  13.769
65282SOL     OW97742  12.705   7.811  12.583
65282SOL    HW197743  12.759   7.887  12.561
65282SOL    HW297744  12.768   7.745  12.611
65283SOL     OW97745   2.023  10.335   6.796
65283SOL    HW197746   2.114  10.363   6.807
65283SOL    HW297747   1.973  10.395   6.853
65284SOL     OW97748  13.638   6.847   2.835
65284SOL    HW197749  13.642   6.753   2.852
65284SOL    HW297750  13.657   6.888   2.920
65285SOL     OW97751  10.124  13.558   5.725
65285SOL    HW197752  10.108  13.519   5.639
65285SOL    HW297753  10.185  13.498   5.768
65286SOL     OW97754   1.318   8.600  12.883
65286SOL    HW197755   1.377   8.571  12.952
65286SOL    HW297756   1.279   8.520  12.849
65287SOL     OW97757  10.775   4.409  13.768
65287SOL    HW197758  10.834   4.349  13.814
65287SOL    HW297759  10.695   4.358  13.754
65288SOL     OW97760   9.366   0.728  14.182
65288SOL    HW197761   9.301   0.675  14.135
65288SOL    HW297762   9.314   0.792  14.231
65289SOL     OW97763   6.719   9.841  12.060
65289SOL    HW197764   6.693   9.759  12.101
65289SOL    HW297765   6.800   9.866  12.103
65290SOL     OW97766   5.185  11.320  14.853
65290SOL    HW197767   5.145  11.407  14.851
65290SOL    HW297768   5.169  11.288   0.067
65291SOL     OW97769   6.546   4.551   9.520
65291SOL    HW197770   6.467   4.504   9.495
65291SOL    HW297771   6.558   4.616   9.451
65292SOL     OW97772  10.370   8.211  10.115
65292SOL    HW197773  10.348   8.295  10.157
65292SOL    HW297774  10.304   8.150  10.148
65293SOL     OW97775   3.998   3.584   7.482
65293SOL    HW197776   4.055   3.513   7.450
65293SOL    HW297777   3.911   3.544   7.487
65294SOL     OW97778  11.471   8.397   2.400
65294SOL    HW197779  11.422   8.470   2.361
65294SOL    HW297780  11.429   8.384   2.485
65295SOL     OW97781   1.704   3.349   8.804
65295SOL    HW197782   1.626   3.393   8.838
65295SOL    HW297783   1.743   3.306   8.880
65296SOL     OW97784  12.315   4.484  12.784
65296SOL    HW197785  12.387   4.469  12.845
65296SOL    HW297786  12.247   4.526  12.838
65297SOL     OW97787   7.718   4.687   4.395
65297SOL    HW197788   7.800   4.736   4.395
65297SOL    HW297789   7.690   4.688   4.303
65298SOL     OW97790  13.698   0.738   9.920
65298SOL    HW197791  13.747   0.746   9.838
65298SOL    HW297792  13.669   0.827   9.940
65299SOL     OW97793   7.556  14.258   6.870
65299SOL    HW197794   7.550  14.173   6.915
65299SOL    HW297795   7.529  14.322   6.935
65300SOL     OW97796   3.090  13.645   7.467
65300SOL    HW197797   3.013  13.647   7.411
65300SOL    HW297798   3.081  13.721   7.524
65301SOL     OW97799   7.818  13.754   6.365
65301SOL    HW197800   7.755  13.695   6.323
65301SOL    HW297801   7.892  13.697   6.387
65302SOL     OW97802   6.786  10.272   4.277
65302SOL    HW197803   6.770  10.336   4.208
65302SOL    HW297804   6.831  10.200   4.232
65303SOL     OW97805   0.493   3.578   8.403
65303SOL    HW197806   0.550   3.546   8.473
65303SOL    HW297807   0.548   3.578   8.325
65304SOL     OW97808  10.379  10.798   0.601
65304SOL    HW197809  10.290  10.830   0.611
65304SOL    HW297810  10.434  10.874   0.623
65305SOL     OW97811   7.153   9.995   3.062
65305SOL    HW197812   7.135   9.953   3.146
65305SOL    HW297813   7.247  10.012   3.062
65306SOL     OW97814   0.271  11.160   9.119
65306SOL    HW197815   0.328  11.084   9.132
65306SOL    HW297816   0.305  11.202   9.041
65307SOL     OW97817   6.379   5.499   7.891
65307SOL    HW197818   6.471   5.526   7.898
65307SOL    HW297819   6.358   5.513   7.799
65308SOL     OW97820   7.217   8.597   5.634
65308SOL    HW197821   7.184   8.669   5.688
65308SOL    HW297822   7.140   8.543   5.617
65309SOL     OW97823   3.339   7.027  14.758
65309SOL    HW197824   3.334   7.059  14.668
65309SOL    HW297825   3.430   7.039  14.783
65310SOL     OW97826   9.467   4.504   5.234
65310SOL    HW197827   9.523   4.521   5.309
65310SOL    HW297828   9.522   4.454   5.174
65311SOL     OW97829  12.119   3.325   5.539
65311SOL    HW197830  12.072   3.405   5.560
65311SOL    HW297831  12.084   3.298   5.454
65312SOL     OW97832  14.690   7.012   7.773
65312SOL    HW197833  14.599   7.003   7.801
65312SOL    HW297834  14.687   6.999   7.678
65313SOL     OW97835   3.511   6.956   6.931
65313SOL    HW197836   3.454   6.956   7.008
65313SOL    HW297837   3.515   6.864   6.904
65314SOL     OW97838   7.495  12.176   6.305
65314SOL    HW197839   7.553  12.248   6.331
65314SOL    HW297840   7.443  12.159   6.383
65315SOL     OW97841   5.457   3.201   2.929
65315SOL    HW197842   5.480   3.278   2.877
65315SOL    HW297843   5.403   3.148   2.870
65316SOL     OW97844  10.426  10.941  13.986
65316SOL    HW197845  10.518  10.922  13.970
65316SOL    HW297846  10.400  10.998  13.913
65317SOL     OW97847   5.131   7.237   5.019
65317SOL    HW197848   5.135   7.318   5.069
65317SOL    HW297849   5.039   7.228   4.994
65318SOL     OW97850  11.322   7.819  10.832
65318SOL    HW197851  11.261   7.813  10.758
65318SOL    HW297852  11.266   7.816  10.909
65319SOL     OW97853   5.172   5.058   7.860
65319SOL    HW197854   5.112   5.132   7.862
65319SOL    HW297855   5.259   5.097   7.859
65320SOL     OW97856   0.769  10.393   1.603
65320SOL    HW197857   0.789  10.301   1.587
65320SOL    HW297858   0.695  10.391   1.664
65321SOL     OW97859   4.169   7.688   7.126
65321SOL    HW197860   4.128   7.745   7.061
65321SOL    HW297861   4.241   7.646   7.079
65322SOL     OW97862   9.337   7.086   6.541
65322SOL    HW197863   9.256   7.090   6.591
65322SOL    HW297864   9.319   7.023   6.471
65323SOL     OW97865   1.397  14.328   3.455
65323SOL    HW197866   1.308  14.323   3.420
65323SOL    HW297867   1.448  14.368   3.385
65324SOL     OW97868   5.152   2.379   1.293
65324SOL    HW197869   5.214   2.307   1.304
65324SOL    HW297870   5.144   2.418   1.380
65325SOL     OW97871  12.854   9.076  10.635
65325SOL    HW197872  12.920   9.061  10.567
65325SOL    HW297873  12.876   9.013  10.704
65326SOL     OW97874  14.064   2.792   4.965
65326SOL    HW197875  14.027   2.764   5.048
65326SOL    HW297876  14.118   2.718   4.937
65327SOL     OW97877  10.002  10.283  11.818
65327SOL    HW197878  10.048  10.365  11.835
65327SOL    HW297879   9.983  10.248  11.905
65328SOL     OW97880  10.792   1.419   6.796
65328SOL    HW197881  10.872   1.381   6.831
65328SOL    HW297882  10.730   1.346   6.793
65329SOL     OW97883   4.432   9.028   3.278
65329SOL    HW197884   4.422   8.937   3.250
65329SOL    HW297885   4.514   9.029   3.328
65330SOL     OW97886   3.520  10.587   1.026
65330SOL    HW197887   3.470  10.608   1.106
65330SOL    HW297888   3.610  10.574   1.057
65331SOL     OW97889  11.408   4.273  12.436
65331SOL    HW197890  11.352   4.306  12.366
65331SOL    HW297891  11.436   4.351  12.484
65332SOL     OW97892   3.797  12.508   5.825
65332SOL    HW197893   3.879  12.486   5.868
65332SOL    HW297894   3.820  12.524   5.734
65333SOL     OW97895   5.786   7.046  14.494
65333SOL    HW197896   5.762   6.958  14.465
65333SOL    HW297897   5.707   7.098  14.481
65334SOL     OW97898   6.473   6.114  10.110
65334SOL    HW197899   6.477   6.203  10.145
65334SOL    HW297900   6.483   6.057  10.187
65335SOL     OW97901   0.845   8.330   0.344
65335SOL    HW197902   0.776   8.310   0.280
65335SOL    HW297903   0.912   8.263   0.329
65336SOL     OW97904   2.463   0.584  12.181
65336SOL    HW197905   2.492   0.494  12.167
65336SOL    HW297906   2.422   0.583  12.268
65337SOL     OW97907   1.025   0.777   9.190
65337SOL    HW197908   0.954   0.786   9.254
65337SOL    HW297909   1.040   0.866   9.158
65338SOL     OW97910   3.879  10.491  11.171
65338SOL    HW197911   3.930  10.410  11.179
65338SOL    HW297912   3.937  10.551  11.124
65339SOL     OW97913   9.387  14.442  13.801
65339SOL    HW197914   9.372  14.443  13.706
65339SOL    HW297915   9.380  14.534  13.826
65340SOL     OW97916   4.972  14.114  12.128
65340SOL    HW197917   5.061  14.121  12.092
65340SOL    HW297918   4.983  14.135  12.221
65341SOL     OW97919   5.509   0.434   5.717
65341SOL    HW197920   5.432   0.398   5.761
65341SOL    HW297921   5.479   0.453   5.628
65342SOL     OW97922   2.049  11.406   9.513
65342SOL    HW197923   1.965  11.369   9.543
65342SOL    HW297924   2.093  11.333   9.469
65343SOL     OW97925   5.059   6.933   5.595
65343SOL    HW197926   5.090   6.870   5.660
65343SOL    HW297927   5.079   6.893   5.511
65344SOL     OW97928   0.006   7.695   8.279
65344SOL    HW197929  14.851   7.734   8.197
65344SOL    HW297930  14.814   7.720   8.343
65345SOL     OW97931  11.840  11.373   2.868
65345SOL    HW197932  11.889  11.306   2.916
65345SOL    HW297933  11.806  11.432   2.935
65346SOL     OW97934   1.645   8.992   0.724
65346SOL    HW197935   1.689   9.073   0.699
65346SOL    HW297936   1.583   8.975   0.653
65347SOL     OW97937   5.282  10.070  13.992
65347SOL    HW197938   5.257  10.158  13.964
65347SOL    HW297939   5.311  10.082  14.082
65348SOL     OW97940  11.321  14.208   8.544
65348SOL    HW197941  11.340  14.136   8.484
65348SOL    HW297942  11.231  14.233   8.524
65349SOL     OW97943   8.380   9.309   4.828
65349SOL    HW197944   8.354   9.243   4.892
65349SOL    HW297945   8.451   9.268   4.779
65350SOL     OW97946   0.551   6.522   6.340
65350SOL    HW197947   0.602   6.602   6.325
65350SOL    HW297948   0.541   6.484   6.253
65351SOL     OW97949  11.203   5.410  14.544
65351SOL    HW197950  11.116   5.429  14.510
65351SOL    HW297951  11.249   5.370  14.470
65352SOL     OW97952   2.205   7.035   8.087
65352SOL    HW197953   2.159   6.964   8.042
65352SOL    HW297954   2.276   7.059   8.027
65353SOL     OW97955  10.309   7.076  12.192
65353SOL    HW197956  10.384   7.032  12.152
65353SOL    HW297957  10.333   7.168  12.194
65354SOL     OW97958   2.237   2.028   8.597
65354SOL    HW197959   2.330   2.030   8.575
65354SOL    HW297960   2.211   2.120   8.599
65355SOL     OW97961  11.332  10.413   4.725
65355SOL    HW197962  11.269  10.457   4.782
65355SOL    HW297963  11.407  10.396   4.781
65356SOL     OW97964   3.544   9.260  10.624
65356SOL    HW197965   3.513   9.233  10.710
65356SOL    HW297966   3.482   9.221  10.562
65357SOL     OW97967   5.267   2.061   9.703
65357SOL    HW197968   5.244   2.114   9.779
65357SOL    HW297969   5.357   2.086   9.683
65358SOL     OW97970   2.495   8.637   7.720
65358SOL    HW197971   2.509   8.546   7.745
65358SOL    HW297972   2.401   8.642   7.700
65359SOL     OW97973  10.912   9.637   2.782
65359SOL    HW197974  10.900   9.717   2.832
65359SOL    HW297975  10.874   9.568   2.837
65360SOL     OW97976  11.993   0.366  11.867
65360SOL    HW197977  11.959   0.376  11.955
65360SOL    HW297978  12.016   0.274  11.860
65361SOL     OW97979  13.571  14.311  13.461
65361SOL    HW197980  13.554  14.222  13.430
65361SOL    HW297981  13.499  14.363  13.423
65362SOL     OW97982   9.604  10.348  12.303
65362SOL    HW197983   9.637  10.346  12.213
65362SOL    HW297984   9.678  10.316  12.356
65363SOL     OW97985   7.329   8.071   8.774
65363SOL    HW197986   7.258   8.006   8.779
65363SOL    HW297987   7.377   8.060   8.856
65364SOL     OW97988   4.129  11.906  11.782
65364SOL    HW197989   4.142  11.985  11.833
65364SOL    HW297990   4.185  11.840  11.824
65365SOL     OW97991  14.489  11.409   4.863
65365SOL    HW197992  14.419  11.343   4.861
65365SOL    HW297993  14.445  11.488   4.897
65366SOL     OW97994  13.128   1.255   3.961
65366SOL    HW197995  13.063   1.320   3.935
65366SOL    HW297996  13.137   1.198   3.884
65367SOL     OW97997   5.643  14.112  13.160
65367SOL    HW197998   5.658  14.178  13.227
65367SOL    HW297999   5.666  14.154  13.077
65368SOL     OW98000   2.373   6.093  14.666
65368SOL    HW198001   2.303   6.078  14.729
65368SOL    HW298002   2.407   6.005  14.646
65369SOL     OW98003  11.262   9.183   8.783
65369SOL    HW198004  11.183   9.129   8.774
65369SOL    HW298005  11.316   9.159   8.709
65370SOL     OW98006   1.852  10.693   1.978
65370SOL    HW198007   1.837  10.614   1.925
65370SOL    HW298008   1.903  10.750   1.921
65371SOL     OW98009   6.859  11.427   7.488
65371SOL    HW198010   6.927  11.414   7.555
65371SOL    HW298011   6.823  11.513   7.507
65372SOL     OW98012   6.562   7.398   8.774
65372SOL    HW198013   6.467   7.388   8.774
65372SOL    HW298014   6.592   7.348   8.850
65373SOL     OW98015   1.793  14.284  13.129
65373SOL    HW198016   1.739  14.267  13.052
65373SOL    HW298017   1.756  14.228  13.197
65374SOL     OW98018  11.107  11.905   2.739
65374SOL    HW198019  11.122  11.880   2.831
65374SOL    HW298020  11.056  11.833   2.703
65375SOL     OW98021  11.486   9.058   7.534
65375SOL    HW198022  11.472   9.152   7.547
65375SOL    HW298023  11.580   9.050   7.519
65376SOL     OW98024   9.911   1.732  12.410
65376SOL    HW198025   9.954   1.685  12.481
65376SOL    HW298026   9.821   1.745  12.442
65377SOL     OW98027   1.268  12.480  14.321
65377SOL    HW198028   1.289  12.451  14.409
65377SOL    HW298029   1.183  12.524  14.330
65378SOL     OW98030  11.368   1.749   8.973
65378SOL    HW198031  11.305   1.813   9.006
65378SOL    HW298032  11.314   1.674   8.949
65379SOL     OW98033   4.760   3.173  13.914
65379SOL    HW198034   4.844   3.175  13.868
65379SOL    HW298035   4.744   3.080  13.930
65380SOL     OW98036  14.476   1.882   1.407
65380SOL    HW198037  14.415   1.848   1.342
65380SOL    HW298038  14.562   1.854   1.375
65381SOL     OW98039   3.515   6.837  14.516
65381SOL    HW198040   3.538   6.896  14.444
65381SOL    HW298041   3.424   6.857  14.535
65382SOL     OW98042  12.452   6.570   5.517
65382SOL    HW198043  12.401   6.559   5.597
65382SOL    HW298044  12.536   6.528   5.536
65383SOL     OW98045   7.150   8.733   6.435
65383SOL    HW198046   7.091   8.676   6.485
65383SOL    HW298047   7.177   8.681   6.360
65384SOL     OW98048  11.585   5.689   8.556
65384SOL    HW198049  11.501   5.680   8.511
65384SOL    HW298050  11.601   5.603   8.594
65385SOL     OW98051   4.040   6.671  13.780
65385SOL    HW198052   3.994   6.712  13.853
65385SOL    HW298053   4.086   6.596  13.821
65386SOL     OW98054   7.556  11.918   3.294
65386SOL    HW198055   7.513  11.897   3.210
65386SOL    HW298056   7.632  11.970   3.269
65387SOL     OW98057   7.938   6.133  13.114
65387SOL    HW198058   8.001   6.133  13.186
65387SOL    HW298059   7.966   6.061  13.057
65388SOL     OW98060   8.105   9.253   1.574
65388SOL    HW198061   8.105   9.340   1.614
65388SOL    HW298062   8.118   9.270   1.480
65389SOL     OW98063   8.125  12.167   3.308
65389SOL    HW198064   8.061  12.221   3.261
65389SOL    HW298065   8.207  12.215   3.303
65390SOL     OW98066  12.117   0.940  11.818
65390SOL    HW198067  12.157   1.027  11.823
65390SOL    HW298068  12.183   0.886  11.775
65391SOL     OW98069  12.253  10.723  11.914
65391SOL    HW198070  12.291  10.648  11.960
65391SOL    HW298071  12.239  10.692  11.825
65392SOL     OW98072  11.210   2.094   5.250
65392SOL    HW198073  11.253   2.063   5.329
65392SOL    HW298074  11.165   2.017   5.215
65393SOL     OW98075   7.449   0.008   7.436
65393SOL    HW198076   7.487  14.797   7.455
65393SOL    HW298077   7.466   0.060   7.514
65394SOL     OW98078   1.411   6.076   7.423
65394SOL    HW198079   1.499   6.037   7.417
65394SOL    HW298080   1.416   6.153   7.367
65395SOL     OW98081   4.017  13.905  14.313
65395SOL    HW198082   4.031  13.875  14.403
65395SOL    HW298083   3.941  13.963  14.319
65396SOL     OW98084   1.231   1.443   2.422
65396SOL    HW198085   1.287   1.396   2.483
65396SOL    HW298086   1.277   1.439   2.338
65397SOL     OW98087   6.988   1.900   1.960
65397SOL    HW198088   6.979   1.848   2.040
65397SOL    HW298089   7.082   1.902   1.942
65398SOL     OW98090   1.723   0.917   2.960
65398SOL    HW198091   1.646   0.897   3.013
65398SOL    HW298092   1.693   0.983   2.897
65399SOL     OW98093   9.948   6.445   6.927
65399SOL    HW198094   9.857   6.475   6.924
65399SOL    HW298095   9.945   6.355   6.895
65400SOL     OW98096   5.826   9.939   9.879
65400SOL    HW198097   5.822   9.880   9.954
65400SOL    HW298098   5.811  10.026   9.915
65401SOL     OW98099  12.203   4.009   5.891
65401SOL    HW198100  12.258   4.044   5.821
65401SOL    HW298101  12.249   3.930   5.921
65402SOL     OW98102   3.715   3.640   7.943
65402SOL    HW198103   3.774   3.583   7.893
65402SOL    HW298104   3.648   3.580   7.976
65403SOL     OW98105   7.219   1.968   5.133
65403SOL    HW198106   7.152   1.911   5.171
65403SOL    HW298107   7.242   1.925   5.050
65404SOL     OW98108   2.686   7.782   6.994
65404SOL    HW198109   2.635   7.844   7.047
65404SOL    HW298110   2.637   7.774   6.912
65405SOL     OW98111   1.395  13.052  13.350
65405SOL    HW198112   1.322  13.064  13.289
65405SOL    HW298113   1.473  13.074  13.298
65406SOL     OW98114  12.404   9.537  11.973
65406SOL    HW198115  12.365   9.460  11.931
65406SOL    HW298116  12.372   9.533  12.063
65407SOL     OW98117   7.907   2.729   8.511
65407SOL    HW198118   7.877   2.673   8.583
65407SOL    HW298119   7.900   2.674   8.433
65408SOL     OW98120  10.117  14.696  12.568
65408SOL    HW198121  10.157  14.779  12.595
65408SOL    HW298122  10.184  14.653  12.515
65409SOL     OW98123   0.749  10.913  14.287
65409SOL    HW198124   0.654  10.911  14.283
65409SOL    HW298125   0.775  10.970  14.214
65410SOL     OW98126   4.262   4.538   8.450
65410SOL    HW198127   4.218   4.621   8.431
65410SOL    HW298128   4.328   4.531   8.381
65411SOL     OW98129  14.865   0.861  10.067
65411SOL    HW198130  14.812   0.859   9.988
65411SOL    HW298131  14.839   0.782  10.115
65412SOL     OW98132  12.682   4.337   1.464
65412SOL    HW198133  12.728   4.278   1.523
65412SOL    HW298134  12.591   4.335   1.493
65413SOL     OW98135   6.288   2.597   9.711
65413SOL    HW198136   6.337   2.671   9.745
65413SOL    HW298137   6.287   2.610   9.616
65414SOL     OW98138   2.855  13.339   5.715
65414SOL    HW198139   2.889  13.317   5.628
65414SOL    HW298140   2.933  13.343   5.770
65415SOL     OW98141   9.417   2.643   8.363
65415SOL    HW198142   9.329   2.653   8.327
65415SOL    HW298143   9.468   2.604   8.291
65416SOL     OW98144  14.091  12.688   1.737
65416SOL    HW198145  14.102  12.747   1.811
65416SOL    HW298146  14.169  12.632   1.740
65417SOL     OW98147  11.157   3.136  10.675
65417SOL    HW198148  11.200   3.188  10.743
65417SOL    HW298149  11.100   3.076  10.724
65418SOL     OW98150   9.027  12.069   5.300
65418SOL    HW198151   9.015  12.164   5.298
65418SOL    HW298152   8.942  12.034   5.327
65419SOL     OW98153   0.727   5.946  11.755
65419SOL    HW198154   0.763   6.003  11.823
65419SOL    HW298155   0.804   5.911  11.710
65420SOL     OW98156   6.761   2.116   5.916
65420SOL    HW198157   6.832   2.058   5.941
65420SOL    HW298158   6.798   2.204   5.923
65421SOL     OW98159   8.025  13.130   5.162
65421SOL    HW198160   8.082  13.200   5.193
65421SOL    HW298161   7.948  13.134   5.219
65422SOL     OW98162   5.834   4.215   7.008
65422SOL    HW198163   5.793   4.301   7.006
65422SOL    HW298164   5.774   4.158   6.960
65423SOL     OW98165  14.473  13.967   5.448
65423SOL    HW198166  14.514  14.018   5.518
65423SOL    HW298167  14.407  13.914   5.493
65424SOL     OW98168   6.588   0.373  11.606
65424SOL    HW198169   6.599   0.430  11.530
65424SOL    HW298170   6.641   0.414  11.674
65425SOL     OW98171  13.371   0.391   1.636
65425SOL    HW198172  13.369   0.477   1.678
65425SOL    HW298173  13.423   0.404   1.557
65426SOL     OW98174  11.445   5.371  12.894
65426SOL    HW198175  11.456   5.332  12.981
65426SOL    HW298176  11.350   5.379  12.883
65427SOL     OW98177   1.847  12.400   8.836
65427SOL    HW198178   1.762  12.360   8.851
65427SOL    HW298179   1.908  12.349   8.890
65428SOL     OW98180   6.365   6.282   1.060
65428SOL    HW198181   6.414   6.224   1.002
65428SOL    HW298182   6.275   6.251   1.055
65429SOL     OW98183  12.650   7.704   6.002
65429SOL    HW198184  12.685   7.790   6.024
65429SOL    HW298185  12.725   7.656   5.965
65430SOL     OW98186   5.784   5.058   3.078
65430SOL    HW198187   5.796   5.019   2.991
65430SOL    HW298188   5.720   5.002   3.121
65431SOL     OW98189  11.208   6.391   0.853
65431SOL    HW198190  11.267   6.446   0.801
65431SOL    HW298191  11.123   6.434   0.845
65432SOL     OW98192   5.077   5.214   5.976
65432SOL    HW198193   5.170   5.233   5.963
65432SOL    HW298194   5.032   5.289   5.938
65433SOL     OW98195   7.606   9.396  10.248
65433SOL    HW198196   7.678   9.398  10.185
65433SOL    HW298197   7.646   9.423  10.331
65434SOL     OW98198   0.439  13.797   2.875
65434SOL    HW198199   0.401  13.793   2.963
65434SOL    HW298200   0.410  13.881   2.839
65435SOL     OW98201  13.233   2.288   3.833
65435SOL    HW198202  13.241   2.290   3.929
65435SOL    HW298203  13.176   2.362   3.813
65436SOL     OW98204   5.849   8.333  12.858
65436SOL    HW198205   5.866   8.390  12.933
65436SOL    HW298206   5.936   8.307  12.828
65437SOL     OW98207   0.829   6.434   5.104
65437SOL    HW198208   0.824   6.466   5.194
65437SOL    HW298209   0.822   6.512   5.051
65438SOL     OW98210   2.334   0.578  12.448
65438SOL    HW198211   2.246   0.584  12.409
65438SOL    HW298212   2.347   0.665  12.487
65439SOL     OW98213  11.908   8.827  13.557
65439SOL    HW198214  11.961   8.903  13.533
65439SOL    HW298215  11.867   8.852  13.640
65440SOL     OW98216   8.881   9.674  13.533
65440SOL    HW198217   8.901   9.744  13.596
65440SOL    HW298218   8.803   9.705  13.487
65441SOL     OW98219   6.962   2.454   3.929
65441SOL    HW198220   7.018   2.377   3.939
65441SOL    HW298221   6.924   2.444   3.842
65442SOL     OW98222  14.071   1.030   5.075
65442SOL    HW198223  14.160   1.015   5.044
65442SOL    HW298224  14.052   1.120   5.051
65443SOL     OW98225  13.322   0.038   3.331
65443SOL    HW198226  13.337   0.078   3.245
65443SOL    HW298227  13.279   0.107   3.382
65444SOL     OW98228  10.087  13.437   3.729
65444SOL    HW198229  10.163  13.456   3.783
65444SOL    HW298230  10.040  13.520   3.724
65445SOL     OW98231   4.484   8.297  11.738
65445SOL    HW198232   4.556   8.274  11.680
65445SOL    HW298233   4.470   8.391  11.722
65446SOL     OW98234   5.377  11.668   2.125
65446SOL    HW198235   5.324  11.589   2.113
65446SOL    HW298236   5.399  11.668   2.218
65447SOL     OW98237   5.710  13.890   7.897
65447SOL    HW198238   5.631  13.910   7.847
65447SOL    HW298239   5.700  13.798   7.922
65448SOL     OW98240  14.534   5.113   1.367
65448SOL    HW198241  14.473   5.171   1.413
65448SOL    HW298242  14.498   5.025   1.381
65449SOL     OW98243   0.333   1.760   5.123
65449SOL    HW198244   0.256   1.774   5.069
65449SOL    HW298245   0.304   1.699   5.191
65450SOL     OW98246   3.493  12.787   2.913
65450SOL    HW198247   3.530  12.700   2.893
65450SOL    HW298248   3.420  12.796   2.852
65451SOL     OW98249   3.267   1.574  13.108
65451SOL    HW198250   3.336   1.635  13.082
65451SOL    HW298251   3.264   1.510  13.036
65452SOL     OW98252   4.356   1.305  10.983
65452SOL    HW198253   4.412   1.303  10.905
65452SOL    HW298254   4.357   1.397  11.010
65453SOL     OW98255   4.075   1.937   9.173
65453SOL    HW198256   4.164   1.902   9.160
65453SOL    HW298257   4.077   2.022   9.129
65454SOL     OW98258   3.027   3.318   0.627
65454SOL    HW198259   3.007   3.371   0.550
65454SOL    HW298260   2.943   3.278   0.651
65455SOL     OW98261  12.650  13.573   0.195
65455SOL    HW198262  12.732  13.523   0.201
65455SOL    HW298263  12.600  13.530   0.126
65456SOL     OW98264   3.298   7.044  13.809
65456SOL    HW198265   3.228   7.093  13.765
65456SOL    HW298266   3.276   7.050  13.902
65457SOL     OW98267  13.022   4.020  11.890
65457SOL    HW198268  12.948   4.067  11.929
65457SOL    HW298269  12.986   3.935  11.864
65458SOL     OW98270   8.607  14.654   2.903
65458SOL    HW198271   8.613  14.567   2.944
65458SOL    HW298272   8.688  14.661   2.853
65459SOL     OW98273  13.454   3.255   3.461
65459SOL    HW198274  13.416   3.231   3.376
65459SOL    HW298275  13.424   3.344   3.476
65460SOL     OW98276   6.718   5.198   7.819
65460SOL    HW198277   6.772   5.120   7.803
65460SOL    HW298278   6.756   5.265   7.763
65461SOL     OW98279   3.603   0.384   8.498
65461SOL    HW198280   3.542   0.330   8.549
65461SOL    HW298281   3.655   0.321   8.447
65462SOL     OW98282   9.977  12.479   5.912
65462SOL    HW198283   9.890  12.437   5.909
65462SOL    HW298284   9.988  12.516   5.825
65463SOL     OW98285  10.494   2.357   0.752
65463SOL    HW198286  10.443   2.438   0.752
65463SOL    HW298287  10.428   2.288   0.761
65464SOL     OW98288   1.735   5.973  10.172
65464SOL    HW198289   1.724   5.884  10.206
65464SOL    HW298290   1.829   5.981  10.155
65465SOL     OW98291  14.659   9.495   0.790
65465SOL    HW198292  14.591   9.482   0.856
65465SOL    HW298293  14.680   9.588   0.793
65466SOL     OW98294  13.318   7.155   4.723
65466SOL    HW198295  13.238   7.104   4.708
65466SOL    HW298296  13.378   7.094   4.767
65467SOL     OW98297   0.155   3.284  14.491
65467SOL    HW198298   0.105   3.270  14.572
65467SOL    HW298299   0.100   3.246  14.422
65468SOL     OW98300   7.382   0.697   3.405
65468SOL    HW198301   7.326   0.620   3.393
65468SOL    HW298302   7.412   0.691   3.495
65469SOL     OW98303   0.591   7.110  11.987
65469SOL    HW198304   0.539   7.166  12.044
65469SOL    HW298305   0.569   7.021  12.013
65470SOL     OW98306   0.278   6.724   8.987
65470SOL    HW198307   0.352   6.664   8.986
65470SOL    HW298308   0.219   6.690   8.920
65471SOL     OW98309  11.760  11.880   7.520
65471SOL    HW198310  11.740  11.880   7.426
65471SOL    HW298311  11.841  11.830   7.528
65472SOL     OW98312   6.260   5.468  14.453
65472SOL    HW198313   6.169   5.498  14.461
65472SOL    HW298314   6.291   5.461  14.543
65473SOL     OW98315   8.621   4.275  11.494
65473SOL    HW198316   8.585   4.303  11.410
65473SOL    HW298317   8.669   4.351  11.526
65474SOL     OW98318  14.869   0.254   3.040
65474SOL    HW198319  14.854   0.169   2.998
65474SOL    HW298320  14.874   0.233   3.134
65475SOL     OW98321   9.270  13.771   8.336
65475SOL    HW198322   9.283  13.852   8.287
65475SOL    HW298323   9.174  13.763   8.344
65476SOL     OW98324   6.380   0.331  12.499
65476SOL    HW198325   6.402   0.279  12.421
65476SOL    HW298326   6.450   0.311  12.561
65477SOL     OW98327   4.189  13.459  14.051
65477SOL    HW198328   4.158  13.549  14.059
65477SOL    HW298329   4.197  13.427  14.141
65478SOL     OW98330  12.674   5.604   6.943
65478SOL    HW198331  12.709   5.526   6.987
65478SOL    HW298332  12.724   5.677   6.980
65479SOL     OW98333  14.062   9.456   0.949
65479SOL    HW198334  14.144   9.505   0.944
65479SOL    HW298335  14.013   9.485   0.871
65480SOL     OW98336  11.179   6.877   9.240
65480SOL    HW198337  11.222   6.925   9.169
65480SOL    HW298338  11.120   6.816   9.196
65481SOL     OW98339   6.894  10.507   9.586
65481SOL    HW198340   6.951  10.440   9.548
65481SOL    HW298341   6.903  10.582   9.528
65482SOL     OW98342   9.706  11.640   0.017
65482SOL    HW198343   9.791  11.663  14.855
65482SOL    HW298344   9.683  11.715   0.071
65483SOL     OW98345  11.882   2.323  11.307
65483SOL    HW198346  11.838   2.360  11.384
65483SOL    HW298347  11.907   2.235  11.334
65484SOL     OW98348   6.765   7.168   5.199
65484SOL    HW198349   6.746   7.250   5.155
65484SOL    HW298350   6.860   7.170   5.214
65485SOL     OW98351  14.238   6.002   6.381
65485SOL    HW198352  14.215   5.958   6.463
65485SOL    HW298353  14.243   6.094   6.403
65486SOL     OW98354   0.201   3.256  10.994
65486SOL    HW198355   0.212   3.169  11.033
65486SOL    HW298356   0.109   3.278  11.009
65487SOL     OW98357   4.504   9.173   0.385
65487SOL    HW198358   4.531   9.244   0.327
65487SOL    HW298359   4.586   9.131   0.411
65488SOL     OW98360   6.039  14.457   5.185
65488SOL    HW198361   6.022  14.378   5.135
65488SOL    HW298362   6.109  14.433   5.246
65489SOL     OW98363   3.148   2.484   1.382
65489SOL    HW198364   3.230   2.441   1.357
65489SOL    HW298365   3.096   2.488   1.302
65490SOL     OW98366   6.903   6.074   2.442
65490SOL    HW198367   6.818   6.040   2.470
65490SOL    HW298368   6.903   6.165   2.471
65491SOL     OW98369   0.122  11.582   5.735
65491SOL    HW198370   0.059  11.585   5.663
65491SOL    HW298371   0.072  11.611   5.812
65492SOL     OW98372  12.807   4.460   1.789
65492SOL    HW198373  12.730   4.463   1.846
65492SOL    HW298374  12.881   4.473   1.848
65493SOL     OW98375  12.893  13.654   2.739
65493SOL    HW198376  12.851  13.646   2.824
65493SOL    HW298377  12.947  13.733   2.745
65494SOL     OW98378   2.124   5.027   5.942
65494SOL    HW198379   2.145   4.989   6.028
65494SOL    HW298380   2.106   5.119   5.961
65495SOL     OW98381  13.974   0.486   1.255
65495SOL    HW198382  13.891   0.528   1.279
65495SOL    HW298383  13.948   0.404   1.214
65496SOL     OW98384  14.243  11.660   5.244
65496SOL    HW198385  14.271  11.569   5.251
65496SOL    HW298386  14.257  11.696   5.332
65497SOL     OW98387   9.964   5.086   7.061
65497SOL    HW198388   9.957   5.000   7.103
65497SOL    HW298389   9.886   5.093   7.007
65498SOL     OW98390   9.282  12.286   7.108
65498SOL    HW198391   9.206  12.341   7.128
65498SOL    HW298392   9.298  12.236   7.188
65499SOL     OW98393  14.670   5.897   7.567
65499SOL    HW198394  14.638   5.922   7.480
65499SOL    HW298395  14.721   5.818   7.553
65500SOL     OW98396  13.633   5.335   4.051
65500SOL    HW198397  13.545   5.357   4.081
65500SOL    HW298398  13.621   5.259   3.994
65501SOL     OW98399   8.959   4.609   7.994
65501SOL    HW198400   8.988   4.686   7.946
65501SOL    HW298401   8.863   4.617   7.995
65502SOL     OW98402   6.020  10.160  14.534
65502SOL    HW198403   6.053  10.233  14.586
65502SOL    HW298404   6.089  10.094  14.538
65503SOL     OW98405   1.842   6.678   4.905
65503SOL    HW198406   1.826   6.610   4.971
65503SOL    HW298407   1.911   6.732   4.943
65504SOL     OW98408  10.173   2.266   0.777
65504SOL    HW198409  10.211   2.209   0.709
65504SOL    HW298410  10.164   2.351   0.735
65505SOL     OW98411   1.138   8.458   2.920
65505SOL    HW198412   1.233   8.451   2.921
65505SOL    HW298413   1.120   8.529   2.858
65506SOL     OW98414   3.272   7.734  12.358
65506SOL    HW198415   3.249   7.825  12.376
65506SOL    HW298416   3.189   7.694  12.331
65507SOL     OW98417   8.145  14.082   5.201
65507SOL    HW198418   8.054  14.087   5.169
65507SOL    HW298419   8.140  14.029   5.280
65508SOL     OW98420  10.326   1.213   0.347
65508SOL    HW198421  10.332   1.186   0.255
65508SOL    HW298422  10.415   1.203   0.380
65509SOL     OW98423   5.280   6.816   1.071
65509SOL    HW198424   5.295   6.891   1.128
65509SOL    HW298425   5.223   6.758   1.122
65510SOL     OW98426  12.882  10.457   7.740
65510SOL    HW198427  12.809  10.478   7.798
65510SOL    HW298428  12.954  10.513   7.769
65511SOL     OW98429   4.429  10.161   2.521
65511SOL    HW198430   4.510  10.144   2.473
65511SOL    HW298431   4.429  10.255   2.536
65512SOL     OW98432   6.803  11.426   0.507
65512SOL    HW198433   6.890  11.388   0.497
65512SOL    HW298434   6.792  11.481   0.429
65513SOL     OW98435  13.980   7.698   4.822
65513SOL    HW198436  13.942   7.765   4.878
65513SOL    HW298437  13.922   7.694   4.746
65514SOL     OW98438   5.884  13.592  10.459
65514SOL    HW198439   5.921  13.504  10.452
65514SOL    HW298440   5.960  13.649  10.468
65515SOL     OW98441   7.982   3.043   3.774
65515SOL    HW198442   8.074   3.038   3.746
65515SOL    HW298443   7.952   3.128   3.743
65516SOL     OW98444   4.301   1.847   3.137
65516SOL    HW198445   4.269   1.924   3.090
65516SOL    HW298446   4.372   1.813   3.082
65517SOL     OW98447   5.775   2.980   8.501
65517SOL    HW198448   5.813   3.055   8.454
65517SOL    HW298449   5.799   2.905   8.448
65518SOL     OW98450   6.610  12.256   7.825
65518SOL    HW198451   6.592  12.316   7.897
65518SOL    HW298452   6.668  12.305   7.766
65519SOL     OW98453  12.103   4.996  10.713
65519SOL    HW198454  12.159   4.948  10.652
65519SOL    HW298455  12.072   4.929  10.774
65520SOL     OW98456  10.518   4.587  14.837
65520SOL    HW198457  10.548   4.545  14.756
65520SOL    HW298458  10.536   4.680  14.824
65521SOL     OW98459   0.424  10.554   1.859
65521SOL    HW198460   0.482  10.593   1.924
65521SOL    HW298461   0.451  10.462   1.856
65522SOL     OW98462   1.978  14.299   6.448
65522SOL    HW198463   1.991  14.243   6.372
65522SOL    HW298464   2.035  14.375   6.433
65523SOL     OW98465   9.621   3.340   1.906
65523SOL    HW198466   9.604   3.280   1.978
65523SOL    HW298467   9.552   3.323   1.843
65524SOL     OW98468   7.154  10.125  11.924
65524SOL    HW198469   7.231  10.105  11.871
65524SOL    HW298470   7.147  10.053  11.986
65525SOL     OW98471   2.601   1.509   4.526
65525SOL    HW198472   2.539   1.473   4.463
65525SOL    HW298473   2.627   1.435   4.580
65526SOL     OW98474   7.085   3.654   6.299
65526SOL    HW198475   7.145   3.581   6.313
65526SOL    HW298476   7.015   3.639   6.362
65527SOL     OW98477  11.731  14.684   1.795
65527SOL    HW198478  11.795  14.613   1.793
65527SOL    HW298479  11.687  14.679   1.709
65528SOL     OW98480  10.480  10.136   6.690
65528SOL    HW198481  10.548  10.071   6.674
65528SOL    HW298482  10.399  10.094   6.662
65529SOL     OW98483  12.416   7.159   0.094
65529SOL    HW198484  12.371   7.146   0.011
65529SOL    HW298485  12.429   7.254   0.100
65530SOL     OW98486  10.737   7.495   4.730
65530SOL    HW198487  10.723   7.589   4.721
65530SOL    HW298488  10.700   7.457   4.650
65531SOL     OW98489  12.123   4.812   4.088
65531SOL    HW198490  12.182   4.803   4.013
65531SOL    HW298491  12.181   4.820   4.164
65532SOL     OW98492  10.168   6.525  13.490
65532SOL    HW198493  10.098   6.563  13.438
65532SOL    HW298494  10.151   6.556  13.579
65533SOL     OW98495   5.857   2.801  10.577
65533SOL    HW198496   5.900   2.858  10.641
65533SOL    HW298497   5.858   2.852  10.496
65534SOL     OW98498   5.089   2.655   4.885
65534SOL    HW198499   5.183   2.671   4.886
65534SOL    HW298500   5.075   2.597   4.811
65535SOL     OW98501   9.970   5.323  13.632
65535SOL    HW198502  10.063   5.315  13.610
65535SOL    HW298503   9.969   5.333  13.728
65536SOL     OW98504   5.167  14.620  13.686
65536SOL    HW198505   5.229  14.683  13.722
65536SOL    HW298506   5.217  14.539  13.678
65537SOL     OW98507   1.847   2.956   0.064
65537SOL    HW198508   1.849   3.031   0.004
65537SOL    HW298509   1.932   2.958   0.107
65538SOL     OW98510   7.380  13.987   9.334
65538SOL    HW198511   7.325  13.958   9.407
65538SOL    HW298512   7.470  13.966   9.363
65539SOL     OW98513   7.514   2.529  12.106
65539SOL    HW198514   7.484   2.501  12.019
65539SOL    HW298515   7.439   2.512  12.163
65540SOL     OW98516   9.859   4.749   4.671
65540SOL    HW198517   9.764   4.748   4.687
65540SOL    HW298518   9.894   4.689   4.737
65541SOL     OW98519  12.065  13.430  10.088
65541SOL    HW198520  11.984  13.381  10.077
65541SOL    HW298521  12.128  13.366  10.122
65542SOL     OW98522   9.180   4.221  11.461
65542SOL    HW198523   9.107   4.261  11.415
65542SOL    HW298524   9.257   4.271  11.432
65543SOL     OW98525   0.088   8.714  11.514
65543SOL    HW198526   0.175   8.676  11.511
65543SOL    HW298527   0.087   8.778  11.443
65544SOL     OW98528   4.066   3.008  13.575
65544SOL    HW198529   4.149   2.965  13.552
65544SOL    HW298530   4.011   2.998  13.497
65545SOL     OW98531  10.481  14.708   0.866
65545SOL    HW198532  10.412  14.728   0.930
65545SOL    HW298533  10.504  14.793   0.828
65546SOL     OW98534   5.114   5.081   5.545
65546SOL    HW198535   5.029   5.109   5.579
65546SOL    HW298536   5.102   5.079   5.450
65547SOL     OW98537   6.399   9.713   1.916
65547SOL    HW198538   6.342   9.666   1.855
65547SOL    HW298539   6.399   9.803   1.884
65548SOL     OW98540   4.004   1.429   1.019
65548SOL    HW198541   4.045   1.456   1.101
65548SOL    HW298542   4.016   1.334   1.016
65549SOL     OW98543  13.955   8.179  14.394
65549SOL    HW198544  13.910   8.250  14.350
65549SOL    HW298545  13.910   8.169  14.478
65550SOL     OW98546  11.612   9.729   6.002
65550SOL    HW198547  11.616   9.794   5.932
65550SOL    HW298548  11.570   9.775   6.075
65551SOL     OW98549   6.806  10.604   3.897
65551SOL    HW198550   6.896  10.633   3.880
65551SOL    HW298551   6.792  10.532   3.835
65552SOL     OW98552  11.472   7.555  12.945
65552SOL    HW198553  11.566   7.539  12.940
65552SOL    HW298554  11.432   7.472  12.920
65553SOL     OW98555   2.434  13.291  10.932
65553SOL    HW198556   2.429  13.386  10.920
65553SOL    HW298557   2.378  13.255  10.864
65554SOL     OW98558   7.478  10.609  13.841
65554SOL    HW198559   7.507  10.518  13.847
65554SOL    HW298560   7.394  10.605  13.794
65555SOL     OW98561   1.621   8.774   4.436
65555SOL    HW198562   1.699   8.719   4.435
65555SOL    HW298563   1.569   8.743   4.510
65556SOL     OW98564   7.341   9.138   4.742
65556SOL    HW198565   7.337   9.230   4.768
65556SOL    HW298566   7.428   9.128   4.703
65557SOL     OW98567  10.620  12.183   4.644
65557SOL    HW198568  10.588  12.205   4.557
65557SOL    HW298569  10.693  12.122   4.629
65558SOL     OW98570  11.796   2.608  10.314
65558SOL    HW198571  11.864   2.675  10.308
65558SOL    HW298572  11.777   2.584  10.224
65559SOL     OW98573   1.495   1.484  11.027
65559SOL    HW198574   1.481   1.391  11.047
65559SOL    HW298575   1.413   1.512  10.986
65560SOL     OW98576  11.797   9.052   2.178
65560SOL    HW198577  11.861   9.052   2.107
65560SOL    HW298578  11.768   9.143   2.184
65561SOL     OW98579  13.775   8.964  12.289
65561SOL    HW198580  13.754   9.047  12.333
65561SOL    HW298581  13.710   8.902  12.322
65562SOL     OW98582   2.822  12.031   3.441
65562SOL    HW198583   2.865  12.116   3.448
65562SOL    HW298584   2.771  12.023   3.522
65563SOL     OW98585   1.256  13.885   6.652
65563SOL    HW198586   1.229  13.808   6.702
65563SOL    HW298587   1.264  13.954   6.718
65564SOL     OW98588   5.519  10.299   0.030
65564SOL    HW198589   5.579  10.290  14.831
65564SOL    HW298590   5.434  10.318  14.865
65565SOL     OW98591   8.133   0.965   6.236
65565SOL    HW198592   8.094   1.044   6.198
65565SOL    HW298593   8.178   0.923   6.162
65566SOL     OW98594   4.387   9.988  13.636
65566SOL    HW198595   4.406   9.894  13.643
65566SOL    HW298596   4.339   9.997  13.554
65567SOL     OW98597   1.361   9.535  12.604
65567SOL    HW198598   1.361   9.624  12.640
65567SOL    HW298599   1.429   9.489  12.653
65568SOL     OW98600   1.302   2.500   3.884
65568SOL    HW198601   1.316   2.408   3.907
65568SOL    HW298602   1.328   2.549   3.963
65569SOL     OW98603   8.783  13.422   4.092
65569SOL    HW198604   8.785  13.512   4.059
65569SOL    HW298605   8.770  13.368   4.014
65570SOL     OW98606  13.776   5.383   7.420
65570SOL    HW198607  13.737   5.456   7.373
65570SOL    HW298608  13.828   5.425   7.489
65571SOL     OW98609   7.766  12.282  14.527
65571SOL    HW198610   7.857  12.284  14.495
65571SOL    HW298611   7.750  12.371  14.558
65572SOL     OW98612   7.112  11.550   9.863
65572SOL    HW198613   7.071  11.495   9.796
65572SOL    HW298614   7.174  11.604   9.814
65573SOL     OW98615  13.427   5.889   8.740
65573SOL    HW198616  13.333   5.900   8.754
65573SOL    HW298617  13.435   5.807   8.693
65574SOL     OW98618  13.422   0.658  11.294
65574SOL    HW198619  13.498   0.704  11.259
65574SOL    HW298620  13.458   0.580  11.336
65575SOL     OW98621  10.862   2.540   7.587
65575SOL    HW198622  10.829   2.629   7.574
65575SOL    HW298623  10.854   2.525   7.682
65576SOL     OW98624  11.266   5.956   8.655
65576SOL    HW198625  11.276   5.934   8.563
65576SOL    HW298626  11.333   6.022   8.672
65577SOL     OW98627  11.368  10.196   7.564
65577SOL    HW198628  11.294  10.147   7.528
65577SOL    HW298629  11.417  10.131   7.615
65578SOL     OW98630   5.292   0.938  14.697
65578SOL    HW198631   5.366   0.936  14.637
65578SOL    HW298632   5.325   0.984  14.775
65579SOL     OW98633  12.716   4.366   2.319
65579SOL    HW198634  12.672   4.346   2.401
65579SOL    HW298635  12.772   4.291   2.303
65580SOL     OW98636   2.407   8.811   1.367
65580SOL    HW198637   2.357   8.870   1.423
65580SOL    HW298638   2.390   8.842   1.278
65581SOL     OW98639   8.037   1.890   3.292
65581SOL    HW198640   8.127   1.865   3.314
65581SOL    HW298641   7.999   1.919   3.375
65582SOL     OW98642  11.357   7.235  13.720
65582SOL    HW198643  11.444   7.200  13.742
65582SOL    HW298644  11.305   7.220  13.799
65583SOL     OW98645  11.592  13.756  13.301
65583SOL    HW198646  11.625  13.810  13.229
65583SOL    HW298647  11.612  13.807  13.380
65584SOL     OW98648   2.213  11.228  14.764
65584SOL    HW198649   2.128  11.247  14.725
65584SOL    HW298650   2.232  11.138  14.737
65585SOL     OW98651  14.810   7.366   4.395
65585SOL    HW198652  14.722   7.341   4.364
65585SOL    HW298653  14.849   7.411   4.320
65586SOL     OW98654  10.434  10.358   4.252
65586SOL    HW198655  10.398  10.323   4.333
65586SOL    HW298656  10.482  10.437   4.279
65587SOL     OW98657   4.250   0.178   4.015
65587SOL    HW198658   4.286   0.201   3.930
65587SOL    HW298659   4.298   0.099   4.041
65588SOL     OW98660  10.865   9.058  10.843
65588SOL    HW198661  10.793   9.121  10.849
65588SOL    HW298662  10.844   9.004  10.767
65589SOL     OW98663  14.401   7.794   1.922
65589SOL    HW198664  14.474   7.751   1.879
65589SOL    HW298665  14.332   7.728   1.925
65590SOL     OW98666  14.711   1.426   7.072
65590SOL    HW198667  14.691   1.336   7.047
65590SOL    HW298668  14.794   1.445   7.028
65591SOL     OW98669   3.927   8.402  13.459
65591SOL    HW198670   3.922   8.488  13.501
65591SOL    HW298671   3.910   8.419  13.366
65592SOL     OW98672  10.551   3.082   4.438
65592SOL    HW198673  10.527   3.037   4.518
65592SOL    HW298674  10.641   3.054   4.420
65593SOL     OW98675   5.131   7.912   7.454
65593SOL    HW198676   5.153   7.819   7.443
65593SOL    HW298677   5.058   7.927   7.394
65594SOL     OW98678   3.427  13.508   5.389
65594SOL    HW198679   3.469  13.518   5.303
65594SOL    HW298680   3.334  13.498   5.369
65595SOL     OW98681   1.882   1.298   6.911
65595SOL    HW198682   1.793   1.262   6.903
65595SOL    HW298683   1.871   1.377   6.963
65596SOL     OW98684   5.446   1.633  11.108
65596SOL    HW198685   5.413   1.554  11.151
65596SOL    HW298686   5.537   1.613  11.086
65597SOL     OW98687   5.676   1.660  13.068
65597SOL    HW198688   5.689   1.642  13.162
65597SOL    HW298689   5.621   1.739  13.067
65598SOL     OW98690  11.425   5.061  10.255
65598SOL    HW198691  11.439   5.104  10.171
65598SOL    HW298692  11.512   5.029  10.280
65599SOL     OW98693   0.480   6.225  13.925
65599SOL    HW198694   0.495   6.181  14.009
65599SOL    HW298695   0.435   6.306  13.948
65600SOL     OW98696   8.991  11.601   8.645
65600SOL    HW198697   8.998  11.696   8.654
65600SOL    HW298698   8.948  11.572   8.725
65601SOL     OW98699  11.085   8.068   5.512
65601SOL    HW198700  11.097   7.973   5.513
65601SOL    HW298701  10.990   8.081   5.505
65602SOL     OW98702   3.677   7.646  13.378
65602SOL    HW198703   3.757   7.605  13.345
65602SOL    HW298704   3.646   7.700  13.306
65603SOL     OW98705   9.170   6.474   7.064
65603SOL    HW198706   9.141   6.439   7.148
65603SOL    HW298707   9.115   6.430   6.999
65604SOL     OW98708   7.384   7.961   6.587
65604SOL    HW198709   7.445   7.903   6.542
65604SOL    HW298710   7.316   7.980   6.522
65605SOL     OW98711   1.778   7.956   1.751
65605SOL    HW198712   1.778   7.882   1.813
65605SOL    HW298713   1.847   7.934   1.688
65606SOL     OW98714  13.922   6.510   4.570
65606SOL    HW198715  13.972   6.585   4.603
65606SOL    HW298716  13.989   6.447   4.541
65607SOL     OW98717   2.374  12.092  12.689
65607SOL    HW198718   2.369  12.187  12.676
65607SOL    HW298719   2.444  12.064  12.630
65608SOL     OW98720   5.740   3.799  13.244
65608SOL    HW198721   5.803   3.802  13.172
65608SOL    HW298722   5.661   3.762  13.204
65609SOL     OW98723   6.078  14.628  11.454
65609SOL    HW198724   6.115  14.649  11.540
65609SOL    HW298725   5.984  14.622  11.469
65610SOL     OW98726  14.567   0.791   8.922
65610SOL    HW198727  14.501   0.848   8.883
65610SOL    HW298728  14.642   0.849   8.939
65611SOL     OW98729  14.671   8.449  13.912
65611SOL    HW198730  14.645   8.538  13.892
65611SOL    HW298731  14.597   8.412  13.959
65612SOL     OW98732   1.109  11.295   2.700
65612SOL    HW198733   1.090  11.362   2.765
65612SOL    HW298734   1.057  11.320   2.624
65613SOL     OW98735   3.067  10.641   5.405
65613SOL    HW198736   3.030  10.725   5.433
65613SOL    HW298737   2.992  10.587   5.383
65614SOL     OW98738  10.886   8.763   0.522
65614SOL    HW198739  10.886   8.851   0.558
65614SOL    HW298740  10.956   8.762   0.457
65615SOL     OW98741   4.642   7.896   6.824
65615SOL    HW198742   4.572   7.927   6.881
65615SOL    HW298743   4.721   7.940   6.857
65616SOL     OW98744   5.278   0.942   2.699
65616SOL    HW198745   5.322   1.026   2.711
65616SOL    HW298746   5.227   0.954   2.619
65617SOL     OW98747  14.082  13.536   4.718
65617SOL    HW198748  14.053  13.459   4.669
65617SOL    HW298749  14.131  13.500   4.792
65618SOL     OW98750   5.124  14.305  12.996
65618SOL    HW198751   5.206  14.257  13.003
65618SOL    HW298752   5.120  14.334  12.905
65619SOL     OW98753   2.372  11.991  12.369
65619SOL    HW198754   2.396  12.058  12.305
65619SOL    HW298755   2.398  11.909  12.328
65620SOL     OW98756   5.902   0.942   0.221
65620SOL    HW198757   5.988   0.901   0.214
65620SOL    HW298758   5.910   1.000   0.296
65621SOL     OW98759   2.700   9.222   4.647
65621SOL    HW198760   2.694   9.132   4.682
65621SOL    HW298761   2.636   9.224   4.576
65622SOL     OW98762   8.670   9.699  14.849
65622SOL    HW198763   8.653   9.751   0.053
65622SOL    HW298764   8.606   9.627  14.854
65623SOL     OW98765   3.172   9.522  14.373
65623SOL    HW198766   3.217   9.458  14.318
65623SOL    HW298767   3.083   9.488  14.381
65624SOL     OW98768  10.273  13.616  11.169
65624SOL    HW198769  10.357  13.572  11.157
65624SOL    HW298770  10.240  13.583  11.253
65625SOL     OW98771   0.549  13.656   5.646
65625SOL    HW198772   0.514  13.572   5.676
65625SOL    HW298773   0.480  13.720   5.665
65626SOL     OW98774  13.244   5.331   8.401
65626SOL    HW198775  13.332   5.370   8.400
65626SOL    HW298776  13.192   5.391   8.454
65627SOL     OW98777   5.062  13.643   6.253
65627SOL    HW198778   5.003  13.681   6.318
65627SOL    HW298779   5.141  13.697   6.258
65628SOL     OW98780   2.860   4.345   8.160
65628SOL    HW198781   2.911   4.278   8.206
65628SOL    HW298782   2.831   4.301   8.080
65629SOL     OW98783  11.134   1.219  14.030
65629SOL    HW198784  11.229   1.227  14.018
65629SOL    HW298785  11.103   1.309  14.032
65630SOL     OW98786   2.470   3.270   8.917
65630SOL    HW198787   2.549   3.271   8.863
65630SOL    HW298788   2.404   3.312   8.863
65631SOL     OW98789   0.087   4.020  10.734
65631SOL    HW198790   0.086   4.106  10.775
65631SOL    HW298791   0.174   4.013  10.694
65632SOL     OW98792   2.351   5.171  14.198
65632SOL    HW198793   2.415   5.150  14.266
65632SOL    HW298794   2.333   5.264  14.211
65633SOL     OW98795  14.488   0.527   4.264
65633SOL    HW198796  14.472   0.600   4.324
65633SOL    HW298797  14.453   0.451   4.310
65634SOL     OW98798  12.878   9.980   2.925
65634SOL    HW198799  12.916  10.068   2.925
65634SOL    HW298800  12.927   9.933   2.993
65635SOL     OW98801   7.718  14.155   0.548
65635SOL    HW198802   7.812  14.174   0.548
65635SOL    HW298803   7.709  14.079   0.606
65636SOL     OW98804   1.118   0.398   6.768
65636SOL    HW198805   1.151   0.335   6.833
65636SOL    HW298806   1.023   0.385   6.769
65637SOL     OW98807   8.094   4.947  13.174
65637SOL    HW198808   8.069   4.895  13.250
65637SOL    HW298809   8.011   4.970  13.132
65638SOL     OW98810  12.071   3.224  13.387
65638SOL    HW198811  12.034   3.302  13.346
65638SOL    HW298812  12.160   3.250  13.412
65639SOL     OW98813   0.039   9.939   3.257
65639SOL    HW198814  14.823   9.936   3.286
65639SOL    HW298815   0.069   9.848   3.258
65640SOL     OW98816   1.949   2.136   9.668
65640SOL    HW198817   1.972   2.224   9.695
65640SOL    HW298818   2.010   2.115   9.598
65641SOL     OW98819  12.396   4.288   2.304
65641SOL    HW198820  12.444   4.282   2.386
65641SOL    HW298821  12.428   4.215   2.251
65642SOL     OW98822   0.479   4.550   5.442
65642SOL    HW198823   0.410   4.521   5.382
65642SOL    HW298824   0.560   4.523   5.400
65643SOL     OW98825   5.374   9.193   7.453
65643SOL    HW198826   5.418   9.126   7.506
65643SOL    HW298827   5.288   9.203   7.494
65644SOL     OW98828   0.129   9.248  14.336
65644SOL    HW198829   0.126   9.198  14.418
65644SOL    HW298830   0.149   9.183  14.269
65645SOL     OW98831   8.938  10.372   7.241
65645SOL    HW198832   9.030  10.349   7.233
65645SOL    HW298833   8.936  10.437   7.311
65646SOL     OW98834   8.255   8.409  11.470
65646SOL    HW198835   8.264   8.314  11.480
65646SOL    HW298836   8.293   8.428  11.384
65647SOL     OW98837   9.070   4.914   3.649
65647SOL    HW198838   8.989   4.941   3.605
65647SOL    HW298839   9.042   4.887   3.736
65648SOL     OW98840  12.492   1.797   3.706
65648SOL    HW198841  12.577   1.775   3.743
65648SOL    HW298842  12.508   1.880   3.659
65649SOL     OW98843   3.094   8.396   3.769
65649SOL    HW198844   3.143   8.330   3.720
65649SOL    HW298845   3.022   8.348   3.810
65650SOL     OW98846   0.827  13.027  14.178
65650SOL    HW198847   0.874  12.950  14.146
65650SOL    HW298848   0.895  13.085  14.211
65651SOL     OW98849  10.297  13.965  12.510
65651SOL    HW198850  10.381  13.923  12.529
65651SOL    HW298851  10.261  13.915  12.437
65652SOL     OW98852   7.902   6.504   0.928
65652SOL    HW198853   7.828   6.442   0.924
65652SOL    HW298854   7.874   6.569   0.992
65653SOL     OW98855   8.999   6.318   4.970
65653SOL    HW198856   8.904   6.320   4.963
65653SOL    HW298857   9.017   6.331   5.063
65654SOL     OW98858  13.952   6.592  11.788
65654SOL    HW198859  13.988   6.539  11.858
65654SOL    HW298860  13.857   6.583  11.798
65655SOL     OW98861   4.705   6.323   7.235
65655SOL    HW198862   4.648   6.370   7.295
65655SOL    HW298863   4.661   6.239   7.219
65656SOL     OW98864   9.752   1.905  14.259
65656SOL    HW198865   9.795   1.987  14.236
65656SOL    HW298866   9.810   1.863  14.322
65657SOL     OW98867  14.499   9.373   2.300
65657SOL    HW198868  14.450   9.405   2.225
65657SOL    HW298869  14.441   9.308   2.341
65658SOL     OW98870  10.671   6.971   9.840
65658SOL    HW198871  10.642   6.952   9.751
65658SOL    HW298872  10.642   7.061   9.856
65659SOL     OW98873  10.960   5.949  11.776
65659SOL    HW198874  10.888   5.909  11.728
65659SOL    HW298875  11.020   5.981  11.707
65660SOL     OW98876   9.395   6.223  13.138
65660SOL    HW198877   9.478   6.270  13.124
65660SOL    HW298878   9.361   6.210  13.049
65661SOL     OW98879   6.017   0.774   0.698
65661SOL    HW198880   5.955   0.713   0.738
65661SOL    HW298881   6.074   0.719   0.644
65662SOL     OW98882  11.373   9.329  10.824
65662SOL    HW198883  11.277   9.331  10.824
65662SOL    HW298884  11.398   9.406  10.773
65663SOL     OW98885  10.904   3.255   6.261
65663SOL    HW198886  10.942   3.243   6.175
65663SOL    HW298887  10.820   3.300   6.245
65664SOL     OW98888  10.559   7.013  11.978
65664SOL    HW198889  10.496   6.975  11.917
65664SOL    HW298890  10.644   7.000  11.935
65665SOL     OW98891  10.148   8.384  14.511
65665SOL    HW198892  10.232   8.341  14.526
65665SOL    HW298893  10.164   8.443  14.437
65666SOL     OW98894   6.336  14.011   4.392
65666SOL    HW198895   6.427  13.983   4.385
65666SOL    HW298896   6.290  13.934   4.426
65667SOL     OW98897   0.949   2.415  10.557
65667SOL    HW198898   0.870   2.409  10.611
65667SOL    HW298899   0.957   2.328  10.518
65668SOL     OW98900   2.240   4.725   7.125
65668SOL    HW198901   2.330   4.716   7.155
65668SOL    HW298902   2.239   4.682   7.039
65669SOL     OW98903   2.203   5.059  13.089
65669SOL    HW198904   2.288   5.054  13.133
65669SOL    HW298905   2.210   4.998  13.015
65670SOL     OW98906   8.189  10.757  13.361
65670SOL    HW198907   8.260  10.778  13.300
65670SOL    HW298908   8.137  10.691  13.315
65671SOL     OW98909   3.443  13.337  14.029
65671SOL    HW198910   3.535  13.311  14.042
65671SOL    HW298911   3.404  13.264  13.982
65672SOL     OW98912   3.222   2.443   9.668
65672SOL    HW198913   3.307   2.400   9.660
65672SOL    HW298914   3.243   2.535   9.686
65673SOL     OW98915   6.046  10.798   4.285
65673SOL    HW198916   5.983  10.855   4.329
65673SOL    HW298917   6.025  10.807   4.192
65674SOL     OW98918  14.466   4.628  14.622
65674SOL    HW198919  14.440   4.557  14.563
65674SOL    HW298920  14.520   4.585  14.689
65675SOL     OW98921   1.654  11.307   8.715
65675SOL    HW198922   1.675  11.400   8.719
65675SOL    HW298923   1.606  11.296   8.633
65676SOL     OW98924  14.596   5.329  12.432
65676SOL    HW198925  14.508   5.333  12.469
65676SOL    HW298926  14.617   5.236  12.430
65677SOL     OW98927   8.307  11.897   2.450
65677SOL    HW198928   8.304  11.803   2.468
65677SOL    HW298929   8.260  11.938   2.523
65678SOL     OW98930   1.124   8.531  12.535
65678SOL    HW198931   1.184   8.540  12.460
65678SOL    HW298932   1.154   8.595  12.598
65679SOL     OW98933  10.054   5.334   9.822
65679SOL    HW198934   9.963   5.336   9.793
65679SOL    HW298935  10.096   5.404   9.771
65680SOL     OW98936   5.622   9.562   2.445
65680SOL    HW198937   5.536   9.601   2.428
65680SOL    HW298938   5.605   9.495   2.512
65681SOL     OW98939   8.049   5.719   6.196
65681SOL    HW198940   7.996   5.674   6.131
65681SOL    HW298941   8.139   5.697   6.173
65682SOL     OW98942   6.623   8.283  13.524
65682SOL    HW198943   6.607   8.208  13.581
65682SOL    HW298944   6.688   8.335  13.572
65683SOL     OW98945   2.540   0.871  10.933
65683SOL    HW198946   2.619   0.885  10.985
65683SOL    HW298947   2.483   0.945  10.955
65684SOL     OW98948   1.903  11.246   5.575
65684SOL    HW198949   1.966  11.185   5.536
65684SOL    HW298950   1.818  11.207   5.555
65685SOL     OW98951   6.030   8.221  12.343
65685SOL    HW198952   6.000   8.301  12.388
65685SOL    HW298953   5.965   8.155  12.366
65686SOL     OW98954   5.263  13.526   2.555
65686SOL    HW198955   5.252  13.461   2.486
65686SOL    HW298956   5.349  13.566   2.538
65687SOL     OW98957   6.388   5.996   7.115
65687SOL    HW198958   6.422   5.927   7.172
65687SOL    HW298959   6.293   5.982   7.115
65688SOL     OW98960   4.471   7.407   3.201
65688SOL    HW198961   4.388   7.410   3.249
65688SOL    HW298962   4.449   7.442   3.115
65689SOL     OW98963   4.307  10.998  12.124
65689SOL    HW198964   4.261  10.935  12.068
65689SOL    HW298965   4.313  11.077  12.070
65690SOL     OW98966   1.368   9.161   8.110
65690SOL    HW198967   1.451   9.158   8.061
65690SOL    HW298968   1.302   9.179   8.043
65691SOL     OW98969   3.127   6.118   7.703
65691SOL    HW198970   3.082   6.061   7.641
65691SOL    HW298971   3.219   6.111   7.680
65692SOL     OW98972   1.233  11.836  13.190
65692SOL    HW198973   1.197  11.772  13.251
65692SOL    HW298974   1.245  11.787  13.108
65693SOL     OW98975   0.448   3.233   8.383
65693SOL    HW198976   0.415   3.303   8.326
65693SOL    HW298977   0.411   3.252   8.469
65694SOL     OW98978  13.730   5.213   2.016
65694SOL    HW198979  13.786   5.135   2.022
65694SOL    HW298980  13.655   5.193   2.072
65695SOL     OW98981   5.803   8.739   3.055
65695SOL    HW198982   5.751   8.659   3.053
65695SOL    HW298983   5.782   8.778   3.140
65696SOL     OW98984   9.820   8.845  10.560
65696SOL    HW198985   9.792   8.918  10.615
65696SOL    HW298986   9.870   8.886  10.489
65697SOL     OW98987   0.947   2.023   5.507
65697SOL    HW198988   0.947   2.022   5.603
65697SOL    HW298989   1.014   2.087   5.484
65698SOL     OW98990   9.048   4.506  11.143
65698SOL    HW198991   9.135   4.467  11.135
65698SOL    HW298992   9.013   4.505  11.053
65699SOL     OW98993   4.610   0.034   3.218
65699SOL    HW198994   4.686   0.089   3.240
65699SOL    HW298995   4.625  14.827   3.265
65700SOL     OW98996   4.338   2.638  10.566
65700SOL    HW198997   4.399   2.645  10.492
65700SOL    HW298998   4.253   2.622  10.525
65701SOL     OW98999   9.688  14.398  14.851
65701SOL    HW199000   9.676  14.332  14.782
65701SOL    HW299001   9.640  14.363   0.051
65702SOL     OW99002  14.580   0.982   1.802
65702SOL    HW199003  14.602   0.888   1.809
65702SOL    HW299004  14.549   1.005   1.890
65703SOL     OW99005   4.668   8.292   4.000
65703SOL    HW199006   4.637   8.266   3.913
65703SOL    HW299007   4.764   8.288   3.994
65704SOL     OW99008   2.477  13.917   4.501
65704SOL    HW199009   2.401  13.903   4.445
65704SOL    HW299010   2.460  13.862   4.578
65705SOL     OW99011   6.931   5.211   6.378
65705SOL    HW199012   7.012   5.260   6.362
65705SOL    HW299013   6.952   5.156   6.454
65706SOL     OW99014  11.098  14.389   2.851
65706SOL    HW199015  11.120  14.402   2.758
65706SOL    HW299016  11.065  14.299   2.855
65707SOL     OW99017  10.147   3.073  13.193
65707SOL    HW199018  10.225   3.048  13.144
65707SOL    HW299019  10.076   3.021  13.154
65708SOL     OW99020  13.486  13.550   3.842
65708SOL    HW199021  13.475  13.545   3.747
65708SOL    HW299022  13.461  13.639   3.865
65709SOL     OW99023  10.723   1.056   7.144
65709SOL    HW199024  10.719   0.981   7.085
65709SOL    HW299025  10.632   1.071   7.171
65710SOL     OW99026  11.365   1.188   2.084
65710SOL    HW199027  11.332   1.139   2.008
65710SOL    HW299028  11.441   1.138   2.114
65711SOL     OW99029   4.997   6.374   7.316
65711SOL    HW199030   4.910   6.358   7.280
65711SOL    HW299031   4.987   6.453   7.369
65712SOL     OW99032   7.486   9.151   6.013
65712SOL    HW199033   7.559   9.127   6.070
65712SOL    HW299034   7.492   9.091   5.939
65713SOL     OW99035   2.685   3.513   2.048
65713SOL    HW199036   2.731   3.580   1.997
65713SOL    HW299037   2.657   3.448   1.984
65714SOL     OW99038   6.000   9.060   3.240
65714SOL    HW199039   5.964   9.101   3.162
65714SOL    HW299040   6.093   9.081   3.238
65715SOL     OW99041  14.501   4.190   3.518
65715SOL    HW199042  14.469   4.186   3.428
65715SOL    HW299043  14.455   4.119   3.563
65716SOL     OW99044   8.699   5.262   3.732
65716SOL    HW199045   8.640   5.217   3.793
65716SOL    HW299046   8.641   5.310   3.673
65717SOL     OW99047   0.565   2.297   1.131
65717SOL    HW199048   0.660   2.290   1.122
65717SOL    HW299049   0.552   2.370   1.192
65718SOL     OW99050   1.803   3.093   6.152
65718SOL    HW199051   1.744   3.165   6.131
65718SOL    HW299052   1.891   3.131   6.147
65719SOL     OW99053   1.010   0.200  10.588
65719SOL    HW199054   1.100   0.166  10.586
65719SOL    HW299055   0.956   0.122  10.605
65720SOL     OW99056   5.082  13.871  13.411
65720SOL    HW199057   5.101  13.953  13.364
65720SOL    HW299058   4.989  13.856  13.397
65721SOL     OW99059   2.577   9.678  13.485
65721SOL    HW199060   2.557   9.598  13.437
65721SOL    HW299061   2.637   9.651  13.554
65722SOL     OW99062   0.502  14.755   6.282
65722SOL    HW199063   0.521  14.755   6.188
65722SOL    HW299064   0.429  14.695   6.292
65723SOL     OW99065   8.969  12.103   0.447
65723SOL    HW199066   9.056  12.143   0.452
65723SOL    HW299067   8.929  12.145   0.371
65724SOL     OW99068   0.302  11.268   9.359
65724SOL    HW199069   0.232  11.257   9.423
65724SOL    HW299070   0.265  11.237   9.276
65725SOL     OW99071   2.963   6.484   9.120
65725SOL    HW199072   3.043   6.433   9.133
65725SOL    HW299073   2.898   6.419   9.091
65726SOL     OW99074  11.950   0.141   6.483
65726SOL    HW199075  11.904   0.224   6.497
65726SOL    HW299076  12.037   0.167   6.451
65727SOL     OW99077   8.568   1.800   0.154
65727SOL    HW199078   8.548   1.707   0.147
65727SOL    HW299079   8.559   1.834   0.064
65728SOL     OW99080   1.131   0.350  12.770
65728SOL    HW199081   1.152   0.442  12.755
65728SOL    HW299082   1.075   0.351  12.848
65729SOL     OW99083   3.067   2.137  10.005
65729SOL    HW199084   3.162   2.139   9.988
65729SOL    HW299085   3.027   2.140   9.918
65730SOL     OW99086   0.342  12.146  12.403
65730SOL    HW199087   0.290  12.192  12.336
65730SOL    HW299088   0.395  12.215  12.443
65731SOL     OW99089   9.764   3.833   0.510
65731SOL    HW199090   9.783   3.838   0.604
65731SOL    HW299091   9.776   3.741   0.488
65732SOL     OW99092   9.912  12.348  14.648
65732SOL    HW199093   9.952  12.286  14.708
65732SOL    HW299094   9.968  12.347  14.571
65733SOL     OW99095   6.725  12.545  12.147
65733SOL    HW199096   6.635  12.510  12.144
65733SOL    HW299097   6.725  12.615  12.081
65734SOL     OW99098   2.854   2.228   2.556
65734SOL    HW199099   2.822   2.174   2.484
65734SOL    HW299100   2.820   2.316   2.537
65735SOL     OW99101   6.228  11.579   3.558
65735SOL    HW199102   6.142  11.538   3.566
65735SOL    HW299103   6.244  11.584   3.464
65736SOL     OW99104   6.345  14.493  14.533
65736SOL    HW199105   6.290  14.559  14.577
65736SOL    HW299106   6.416  14.475  14.594
65737SOL     OW99107   2.656   8.571   5.799
65737SOL    HW199108   2.580   8.622   5.829
65737SOL    HW299109   2.629   8.537   5.714
65738SOL     OW99110  11.016   5.536   9.425
65738SOL    HW199111  11.039   5.598   9.355
65738SOL    HW299112  11.042   5.450   9.391
65739SOL     OW99113   6.581  14.021  14.773
65739SOL    HW199114   6.520  13.948  14.762
65739SOL    HW299115   6.541  14.075  14.842
65740SOL     OW99116   6.981  12.500   4.691
65740SOL    HW199117   6.990  12.438   4.764
65740SOL    HW299118   7.049  12.566   4.708
65741SOL     OW99119   6.206  12.799  13.034
65741SOL    HW199120   6.154  12.829  13.108
65741SOL    HW299121   6.230  12.709  13.056
65742SOL     OW99122  11.698  13.565  11.309
65742SOL    HW199123  11.654  13.607  11.235
65742SOL    HW299124  11.741  13.636  11.356
65743SOL     OW99125   3.391  14.442   8.982
65743SOL    HW199126   3.444  14.365   8.962
65743SOL    HW299127   3.395  14.451   9.077
65744SOL     OW99128   7.972   0.301   0.618
65744SOL    HW199129   7.934   0.306   0.530
65744SOL    HW299130   7.897   0.305   0.677
65745SOL     OW99131   4.389  10.404   8.640
65745SOL    HW199132   4.341  10.368   8.715
65745SOL    HW299133   4.475  10.362   8.644
65746SOL     OW99134  13.321   8.015   3.709
65746SOL    HW199135  13.265   7.992   3.635
65746SOL    HW299136  13.273   8.086   3.753
65747SOL     OW99137   6.807   4.996   0.443
65747SOL    HW199138   6.768   5.075   0.481
65747SOL    HW299139   6.756   4.924   0.480
65748SOL     OW99140  10.726  11.188   6.597
65748SOL    HW199141  10.712  11.202   6.691
65748SOL    HW299142  10.817  11.214   6.583
65749SOL     OW99143  14.109   0.917   8.172
65749SOL    HW199144  14.189   0.959   8.139
65749SOL    HW299145  14.123   0.824   8.157
65750SOL     OW99146  13.404   0.068  14.797
65750SOL    HW199147  13.415   0.063   0.017
65750SOL    HW299148  13.438   0.154  14.773
65751SOL     OW99149   6.589   5.855   4.507
65751SOL    HW199150   6.656   5.893   4.563
65751SOL    HW299151   6.573   5.921   4.439
65752SOL     OW99152   3.036  12.893   4.979
65752SOL    HW199153   2.944  12.919   4.978
65752SOL    HW299154   3.080  12.960   4.926
65753SOL     OW99155   1.256   0.276  12.400
65753SOL    HW199156   1.286   0.360  12.436
65753SOL    HW299157   1.162   0.276  12.418
65754SOL     OW99158  11.173  12.802   9.663
65754SOL    HW199159  11.247  12.742   9.651
65754SOL    HW299160  11.097  12.744   9.673
65755SOL     OW99161   8.095   2.522   6.200
65755SOL    HW199162   8.045   2.476   6.132
65755SOL    HW299163   8.177   2.474   6.207
65756SOL     OW99164   7.115   1.806   0.161
65756SOL    HW199165   7.186   1.854   0.204
65756SOL    HW299166   7.110   1.843   0.073
65757SOL     OW99167   4.336   2.132   2.010
65757SOL    HW199168   4.349   2.046   1.970
65757SOL    HW299169   4.355   2.194   1.940
65758SOL     OW99170  12.199   2.265   0.048
65758SOL    HW199171  12.279   2.217   0.069
65758SOL    HW299172  12.228   2.334  14.864
65759SOL     OW99173  10.748   4.957   7.623
65759SOL    HW199174  10.825   4.902   7.606
65759SOL    HW299175  10.779   5.024   7.684
65760SOL     OW99176  10.820   0.106   1.540
65760SOL    HW199177  10.793   0.047   1.611
65760SOL    HW299178  10.869   0.175   1.585
65761SOL     OW99179   4.012  11.989   2.605
65761SOL    HW199180   4.059  11.919   2.650
65761SOL    HW299181   4.072  12.064   2.608
65762SOL     OW99182  13.271   4.050   1.251
65762SOL    HW199183  13.342   4.066   1.313
65762SOL    HW299184  13.302   4.087   1.169
65763SOL     OW99185  11.890   4.604  14.330
65763SOL    HW199186  11.875   4.544  14.257
65763SOL    HW299187  11.816   4.589  14.389
65764SOL     OW99188  12.441  11.484  12.634
65764SOL    HW199189  12.360  11.436  12.648
65764SOL    HW299190  12.421  11.574  12.659
65765SOL     OW99191  13.169  13.662  11.480
65765SOL    HW199192  13.176  13.754  11.454
65765SOL    HW299193  13.138  13.665  11.571
65766SOL     OW99194   2.142   5.860   0.446
65766SOL    HW199195   2.117   5.941   0.492
65766SOL    HW299196   2.113   5.790   0.505
65767SOL     OW99197  12.967   4.573   6.900
65767SOL    HW199198  13.025   4.600   6.829
65767SOL    HW299199  13.025   4.535   6.966
65768SOL     OW99200  10.514  13.926   5.485
65768SOL    HW199201  10.448  13.964   5.427
65768SOL    HW299202  10.508  13.977   5.566
65769SOL     OW99203  11.479   8.888  11.434
65769SOL    HW199204  11.502   8.870  11.343
65769SOL    HW299205  11.452   8.980  11.434
65770SOL     OW99206   3.652   8.358   8.112
65770SOL    HW199207   3.623   8.448   8.126
65770SOL    HW299208   3.648   8.318   8.199
65771SOL     OW99209   7.106   2.460   4.970
65771SOL    HW199210   7.013   2.448   4.954
65771SOL    HW299211   7.132   2.382   5.020
65772SOL     OW99212   7.934  11.674  13.267
65772SOL    HW199213   7.930  11.581  13.288
65772SOL    HW299214   7.932  11.678  13.172
65773SOL     OW99215   1.068  12.111   1.010
65773SOL    HW199216   1.088  12.025   1.045
65773SOL    HW299217   1.096  12.172   1.078
65774SOL     OW99218   4.275  13.392   1.768
65774SOL    HW199219   4.322  13.475   1.768
65774SOL    HW299220   4.301  13.349   1.686
65775SOL     OW99221  11.603   1.808   4.156
65775SOL    HW199222  11.673   1.873   4.156
65775SOL    HW299223  11.561   1.818   4.070
65776SOL     OW99224  11.472   3.363  14.472
65776SOL    HW199225  11.502   3.447  14.436
65776SOL    HW299226  11.461   3.379  14.565
65777SOL     OW99227   7.861  11.434   9.051
65777SOL    HW199228   7.850  11.457   8.959
65777SOL    HW299229   7.841  11.514   9.099
65778SOL     OW99230   8.496   7.736   0.442
65778SOL    HW199231   8.530   7.824   0.461
65778SOL    HW299232   8.405   7.739   0.471
65779SOL     OW99233   0.844  13.379   4.850
65779SOL    HW199234   0.835  13.456   4.906
65779SOL    HW299235   0.781  13.316   4.886
65780SOL     OW99236   6.273   1.363   4.080
65780SOL    HW199237   6.178   1.374   4.081
65780SOL    HW299238   6.306   1.443   4.120
65781SOL     OW99239   0.344   1.684   3.196
65781SOL    HW199240   0.376   1.666   3.108
65781SOL    HW299241   0.399   1.755   3.228
65782SOL     OW99242   0.813   5.902   9.485
65782SOL    HW199243   0.748   5.842   9.448
65782SOL    HW299244   0.787   5.988   9.452
65783SOL     OW99245   6.259  12.538   5.628
65783SOL    HW199246   6.344  12.505   5.600
65783SOL    HW299247   6.273  12.631   5.643
65784SOL     OW99248   6.251   1.953  10.009
65784SOL    HW199249   6.181   2.015  10.030
65784SOL    HW299250   6.207   1.884   9.959
65785SOL     OW99251   6.491  10.160   9.997
65785SOL    HW199252   6.456  10.072  10.009
65785SOL    HW299253   6.551  10.172  10.071
65786SOL     OW99254  11.925  12.657   1.883
65786SOL    HW199255  11.985  12.709   1.830
65786SOL    HW299256  11.925  12.570   1.843
65787SOL     OW99257   2.460  14.470   9.399
65787SOL    HW199258   2.453  14.540   9.464
65787SOL    HW299259   2.399  14.403   9.430
65788SOL     OW99260  14.562   7.367   0.505
65788SOL    HW199261  14.641   7.396   0.551
65788SOL    HW299262  14.594   7.327   0.424
65789SOL     OW99263   2.696   6.383   8.263
65789SOL    HW199264   2.717   6.436   8.339
65789SOL    HW299265   2.630   6.321   8.294
65790SOL     OW99266   6.755  11.739  12.518
65790SOL    HW199267   6.746  11.653  12.477
65790SOL    HW299268   6.678  11.788  12.488
65791SOL     OW99269  11.613   0.113  11.496
65791SOL    HW199270  11.600   0.018  11.503
65791SOL    HW299271  11.526   0.148  11.476
65792SOL     OW99272  14.654   3.602   7.082
65792SOL    HW199273  14.638   3.695   7.063
65792SOL    HW299274  14.693   3.568   7.001
65793SOL     OW99275  10.307  10.047   3.698
65793SOL    HW199276  10.292   9.959   3.664
65793SOL    HW299277  10.339  10.097   3.624
65794SOL     OW99278  11.641   6.940   4.873
65794SOL    HW199279  11.550   6.958   4.898
65794SOL    HW299280  11.650   6.980   4.787
65795SOL     OW99281  12.293   4.934   7.899
65795SOL    HW199282  12.382   4.909   7.875
65795SOL    HW299283  12.303   4.973   7.986
65796SOL     OW99284   7.185   9.455  10.126
65796SOL    HW199285   7.192   9.364  10.096
65796SOL    HW299286   7.259   9.466  10.187
65797SOL     OW99287  12.603   4.111   4.902
65797SOL    HW199288  12.641   4.124   4.815
65797SOL    HW299289  12.519   4.068   4.885
65798SOL     OW99290  10.535   2.674  12.931
65798SOL    HW199291  10.502   2.714  13.012
65798SOL    HW299292  10.471   2.699  12.864
65799SOL     OW99293   2.397   3.839   7.355
65799SOL    HW199294   2.374   3.747   7.350
65799SOL    HW299295   2.481   3.840   7.401
65800SOL     OW99296   6.188  13.491  14.229
65800SOL    HW199297   6.100  13.481  14.266
65800SOL    HW299298   6.173  13.509  14.136
65801SOL     OW99299  12.138  11.999   4.444
65801SOL    HW199300  12.164  12.068   4.505
65801SOL    HW299301  12.044  12.014   4.430
65802SOL     OW99302   9.320  13.207   4.985
65802SOL    HW199303   9.312  13.292   4.943
65802SOL    HW299304   9.390  13.219   5.050
65803SOL     OW99305   2.894   6.413   4.663
65803SOL    HW199306   2.799   6.423   4.668
65803SOL    HW299307   2.928   6.501   4.674
65804SOL     OW99308   7.894   2.143   7.743
65804SOL    HW199309   7.830   2.172   7.677
65804SOL    HW299310   7.875   2.049   7.753
65805SOL     OW99311   8.994   7.835   0.566
65805SOL    HW199312   8.952   7.909   0.523
65805SOL    HW299313   8.923   7.774   0.584
65806SOL     OW99314   1.364   9.537   8.463
65806SOL    HW199315   1.340   9.474   8.530
65806SOL    HW299316   1.447   9.575   8.494
65807SOL     OW99317   7.156   4.153   6.141
65807SOL    HW199318   7.129   4.158   6.233
65807SOL    HW299319   7.154   4.060   6.120
65808SOL     OW99320   0.996  10.268   2.421
65808SOL    HW199321   1.029  10.277   2.332
65808SOL    HW299322   0.959  10.354   2.441
65809SOL     OW99323   6.694   7.592   9.105
65809SOL    HW199324   6.786   7.568   9.095
65809SOL    HW299325   6.667   7.622   9.018
65810SOL     OW99326  13.253  10.138   5.139
65810SOL    HW199327  13.278  10.085   5.215
65810SOL    HW299328  13.165  10.171   5.160
65811SOL     OW99329  12.413   0.917  14.502
65811SOL    HW199330  12.450   0.933  14.589
65811SOL    HW299331  12.457   0.980  14.445
65812SOL     OW99332  14.810  10.394   5.813
65812SOL    HW199333  14.724  10.352   5.817
65812SOL    HW299334  14.850  10.374   5.897
65813SOL     OW99335   2.857  11.253   3.359
65813SOL    HW199336   2.932  11.195   3.374
65813SOL    HW299337   2.877  11.331   3.409
65814SOL     OW99338   0.218   4.438   0.041
65814SOL    HW199339   0.207   4.453  14.823
65814SOL    HW299340   0.148   4.376   0.064
65815SOL     OW99341   8.497  14.565  14.561
65815SOL    HW199342   8.551  14.572  14.640
65815SOL    HW299343   8.426  14.628  14.575
65816SOL     OW99344  13.951   5.788  13.178
65816SOL    HW199345  13.865   5.829  13.186
65816SOL    HW299346  14.003   5.850  13.126
65817SOL     OW99347   8.666   1.080   6.127
65817SOL    HW199348   8.609   1.155   6.110
65817SOL    HW299349   8.722   1.075   6.050
65818SOL     OW99350   8.495  14.469   9.736
65818SOL    HW199351   8.413  14.502   9.770
65818SOL    HW299352   8.520  14.398   9.795
65819SOL     OW99353  13.492   7.822  12.683
65819SOL    HW199354  13.573   7.842  12.636
65819SOL    HW299355  13.445   7.905  12.683
65820SOL     OW99356   7.317  13.634   2.269
65820SOL    HW199357   7.302  13.711   2.324
65820SOL    HW299358   7.232  13.590   2.265
65821SOL     OW99359  10.450   9.564   0.213
65821SOL    HW199360  10.357   9.578   0.200
65821SOL    HW299361  10.492   9.621   0.148
65822SOL     OW99362   6.083   7.549  13.498
65822SOL    HW199363   6.010   7.523  13.553
65822SOL    HW299364   6.129   7.467  13.479
65823SOL     OW99365  12.459   5.111   6.866
65823SOL    HW199366  12.381   5.076   6.909
65823SOL    HW299367  12.532   5.065   6.907
65824SOL     OW99368   2.531  10.224  11.071
65824SOL    HW199369   2.581  10.277  11.010
65824SOL    HW299370   2.574  10.239  11.156
65825SOL     OW99371   3.200   2.047   0.276
65825SOL    HW199372   3.256   2.118   0.307
65825SOL    HW299373   3.153   2.017   0.354
65826SOL     OW99374   2.661  12.153  12.479
65826SOL    HW199375   2.626  12.074  12.439
65826SOL    HW299376   2.747  12.164  12.438
65827SOL     OW99377   9.903   5.804  14.436
65827SOL    HW199378   9.845   5.873  14.403
65827SOL    HW299379   9.934   5.759  14.357
65828SOL     OW99380  11.464   6.949   5.659
65828SOL    HW199381  11.374   6.957   5.627
65828SOL    HW299382  11.512   7.016   5.611
65829SOL     OW99383   9.704   2.913   5.906
65829SOL    HW199384   9.755   2.993   5.896
65829SOL    HW299385   9.614   2.944   5.915
65830SOL     OW99386   4.232   6.047   7.857
65830SOL    HW199387   4.301   6.040   7.790
65830SOL    HW299388   4.164   5.986   7.827
65831SOL     OW99389  13.574   3.610  12.014
65831SOL    HW199390  13.660   3.632  11.979
65831SOL    HW299391  13.592   3.552  12.088
65832SOL     OW99392   7.686   7.049  13.206
65832SOL    HW199393   7.739   7.114  13.159
65832SOL    HW299394   7.744   6.975  13.219
65833SOL     OW99395   1.736  12.999   1.293
65833SOL    HW199396   1.688  12.934   1.344
65833SOL    HW299397   1.787  13.047   1.358
65834SOL     OW99398  11.608  14.833   4.199
65834SOL    HW199399  11.581  14.784   4.277
65834SOL    HW299400  11.683  14.786   4.165
65835SOL     OW99401   5.565  13.049   7.048
65835SOL    HW199402   5.629  13.068   6.980
65835SOL    HW299403   5.608  12.986   7.105
65836SOL     OW99404  11.231   8.433   2.983
65836SOL    HW199405  11.247   8.341   2.965
65836SOL    HW299406  11.136   8.441   2.988
65837SOL     OW99407   6.327   6.892  10.417
65837SOL    HW199408   6.300   6.944  10.493
65837SOL    HW299409   6.245   6.877  10.369
65838SOL     OW99410  13.791   9.051  14.708
65838SOL    HW199411  13.843   9.076  14.632
65838SOL    HW299412  13.701   9.073  14.683
65839SOL     OW99413   7.881   1.325   1.234
65839SOL    HW199414   7.959   1.363   1.193
65839SOL    HW299415   7.837   1.279   1.162
65840SOL     OW99416  12.338   4.444  12.170
65840SOL    HW199417  12.284   4.384  12.221
65840SOL    HW299418  12.277   4.509  12.137
65841SOL     OW99419  11.309  10.813   5.486
65841SOL    HW199420  11.396  10.851   5.477
65841SOL    HW299421  11.251  10.875   5.441
65842SOL     OW99422   0.389   2.950   4.262
65842SOL    HW199423   0.431   2.865   4.247
65842SOL    HW299424   0.461   3.013   4.261
65843SOL     OW99425   9.980   2.183   4.837
65843SOL    HW199426  10.075   2.166   4.839
65843SOL    HW299427   9.942   2.100   4.810
65844SOL     OW99428   4.594   8.064  12.809
65844SOL    HW199429   4.529   8.117  12.765
65844SOL    HW299430   4.675   8.114  12.801
65845SOL     OW99431   2.306   2.239   9.053
65845SOL    HW199432   2.310   2.241   9.149
65845SOL    HW299433   2.389   2.199   9.027
65846SOL     OW99434   0.756   4.084   2.520
65846SOL    HW199435   0.663   4.062   2.517
65846SOL    HW299436   0.798   4.017   2.467
65847SOL     OW99437   5.795   4.936   2.455
65847SOL    HW199438   5.795   4.952   2.550
65847SOL    HW299439   5.773   4.843   2.447
65848SOL     OW99440   5.122   5.262  13.169
65848SOL    HW199441   5.164   5.324  13.110
65848SOL    HW299442   5.085   5.316  13.239
65849SOL     OW99443   7.598  11.141  13.677
65849SOL    HW199444   7.642  11.089  13.609
65849SOL    HW299445   7.622  11.231  13.657
65850SOL     OW99446  11.833  10.195  10.507
65850SOL    HW199447  11.778  10.270  10.529
65850SOL    HW299448  11.825  10.186  10.412
65851SOL     OW99449  14.864   8.882  10.990
65851SOL    HW199450  14.791   8.926  10.947
65851SOL    HW299451  14.826   8.844  11.069
65852SOL     OW99452   2.858   4.147   1.030
65852SOL    HW199453   2.920   4.080   1.000
65852SOL    HW299454   2.837   4.197   0.952
65853SOL     OW99455   2.042  14.778  12.880
65853SOL    HW199456   2.095  14.831  12.940
65853SOL    HW299457   1.957  14.769  12.924
65854SOL     OW99458  14.261   0.706   9.400
65854SOL    HW199459  14.206   0.731   9.325
65854SOL    HW299460  14.213   0.635   9.442
65855SOL     OW99461   7.878   2.927   5.880
65855SOL    HW199462   7.902   3.004   5.830
65855SOL    HW299463   7.934   2.857   5.846
65856SOL     OW99464   7.306   0.947   1.360
65856SOL    HW199465   7.267   0.862   1.379
65856SOL    HW299466   7.397   0.940   1.388
65857SOL     OW99467   1.775  12.401   1.330
65857SOL    HW199468   1.693  12.355   1.345
65857SOL    HW299469   1.749  12.493   1.323
65858SOL     OW99470   7.324   3.117   1.731
65858SOL    HW199471   7.349   3.046   1.671
65858SOL    HW299472   7.363   3.091   1.815
65859SOL     OW99473   3.301   5.019   5.754
65859SOL    HW199474   3.376   4.965   5.779
65859SOL    HW299475   3.339   5.101   5.724
65860SOL     OW99476  11.571   8.917   5.683
65860SOL    HW199477  11.518   8.996   5.672
65860SOL    HW299478  11.560   8.893   5.775
65861SOL     OW99479   1.760  12.323  11.326
65861SOL    HW199480   1.798  12.365  11.403
65861SOL    HW299481   1.753  12.393  11.261
65862SOL     OW99482   8.756   6.545   2.790
65862SOL    HW199483   8.843   6.507   2.798
65862SOL    HW299484   8.724   6.516   2.705
65863SOL     OW99485   4.503   8.479  12.856
65863SOL    HW199486   4.577   8.418  12.847
65863SOL    HW299487   4.425   8.423  12.848
65864SOL     OW99488   3.589   1.637   6.700
65864SOL    HW199489   3.536   1.670   6.628
65864SOL    HW299490   3.542   1.558   6.730
65865SOL     OW99491  14.165  12.201   8.092
65865SOL    HW199492  14.144  12.292   8.070
65865SOL    HW299493  14.105  12.179   8.162
65866SOL     OW99494   7.070   4.420   1.401
65866SOL    HW199495   7.091   4.375   1.319
65866SOL    HW299496   6.990   4.377   1.431
65867SOL     OW99497   1.749   8.288   0.609
65867SOL    HW199498   1.756   8.384   0.610
65867SOL    HW299499   1.706   8.266   0.691
65868SOL     OW99500   2.057   8.939   9.124
65868SOL    HW199501   2.137   8.912   9.169
65868SOL    HW299502   2.014   8.999   9.185
65869SOL     OW99503   9.537   1.711  14.238
65869SOL    HW199504   9.478   1.722  14.163
65869SOL    HW299505   9.594   1.788  14.235
65870SOL     OW99506   8.188  13.293   3.460
65870SOL    HW199507   8.144  13.261   3.381
65870SOL    HW299508   8.118  13.301   3.525
65871SOL     OW99509   8.053   1.976   4.405
65871SOL    HW199510   8.127   2.029   4.377
65871SOL    HW299511   7.979   2.007   4.353
65872SOL     OW99512  14.676   0.881   7.517
65872SOL    HW199513  14.696   0.887   7.610
65872SOL    HW299514  14.758   0.854   7.476
65873SOL     OW99515  14.284   5.773   7.595
65873SOL    HW199516  14.270   5.861   7.631
65873SOL    HW299517  14.307   5.788   7.503
65874SOL     OW99518   0.530  10.789   9.842
65874SOL    HW199519   0.578  10.856   9.793
65874SOL    HW299520   0.438  10.816   9.837
65875SOL     OW99521   6.160  13.319  14.759
65875SOL    HW199522   6.179  13.229  14.784
65875SOL    HW299523   6.068  13.332  14.785
65876SOL     OW99524   0.668   3.414   5.778
65876SOL    HW199525   0.750   3.462   5.791
65876SOL    HW299526   0.678   3.372   5.693
65877SOL     OW99527   3.696   4.273  11.819
65877SOL    HW199528   3.616   4.306  11.778
65877SOL    HW299529   3.738   4.352  11.855
65878SOL     OW99530   9.902   6.446  14.504
65878SOL    HW199531   9.872   6.508  14.437
65878SOL    HW299532   9.891   6.492  14.587
65879SOL     OW99533   2.062   5.063   6.362
65879SOL    HW199534   2.048   5.155   6.384
65879SOL    HW299535   1.997   5.016   6.415
65880SOL     OW99536   4.897   5.374   0.261
65880SOL    HW199537   4.815   5.360   0.213
65880SOL    HW299538   4.875   5.351   0.352
65881SOL     OW99539   6.379   8.783   8.561
65881SOL    HW199540   6.441   8.774   8.488
65881SOL    HW299541   6.376   8.877   8.578
65882SOL     OW99542   0.467  10.089   8.933
65882SOL    HW199543   0.561  10.105   8.926
65882SOL    HW299544   0.426  10.168   8.897
65883SOL     OW99545   2.552   1.939   4.677
65883SOL    HW199546   2.492   1.983   4.737
65883SOL    HW299547   2.549   1.992   4.597
65884SOL     OW99548  10.857   6.862   1.220
65884SOL    HW199549  10.933   6.894   1.269
65884SOL    HW299550  10.874   6.768   1.209
65885SOL     OW99551   1.566   4.031   2.536
65885SOL    HW199552   1.582   3.937   2.543
65885SOL    HW299553   1.491   4.047   2.593
65886SOL     OW99554   7.928  11.826   2.594
65886SOL    HW199555   7.997  11.892   2.602
65886SOL    HW299556   7.913  11.819   2.499
65887SOL     OW99557   7.400  13.963  14.216
65887SOL    HW199558   7.327  14.018  14.245
65887SOL    HW299559   7.360  13.903  14.152
65888SOL     OW99560   2.698   2.329   1.539
65888SOL    HW199561   2.741   2.413   1.555
65888SOL    HW299562   2.766   2.273   1.502
65889SOL     OW99563   5.594  12.233  12.731
65889SOL    HW199564   5.501  12.246  12.713
65889SOL    HW299565   5.621  12.161  12.674
65890SOL     OW99566   2.259  14.434  14.388
65890SOL    HW199567   2.199  14.428  14.463
65890SOL    HW299568   2.280  14.527  14.381
65891SOL     OW99569  13.714   9.480  11.495
65891SOL    HW199570  13.673   9.535  11.562
65891SOL    HW299571  13.799   9.520  11.480
65892SOL     OW99572   7.611   1.507  10.678
65892SOL    HW199573   7.538   1.559  10.711
65892SOL    HW299574   7.573   1.452  10.609
65893SOL     OW99575   0.941   1.389   0.803
65893SOL    HW199576   0.974   1.423   0.719
65893SOL    HW299577   0.927   1.295   0.786
65894SOL     OW99578  11.026  13.486  13.883
65894SOL    HW199579  11.015  13.580  13.900
65894SOL    HW299580  11.074  13.453  13.958
65895SOL     OW99581   8.119  10.450   9.841
65895SOL    HW199582   8.213  10.462   9.857
65895SOL    HW299583   8.111  10.456   9.746
65896SOL     OW99584   9.887   9.919   7.667
65896SOL    HW199585   9.938   9.982   7.617
65896SOL    HW299586   9.796   9.939   7.644
65897SOL     OW99587   4.427   3.696   7.806
65897SOL    HW199588   4.378   3.727   7.882
65897SOL    HW299589   4.395   3.749   7.733
65898SOL     OW99590   5.480   2.130   3.666
65898SOL    HW199591   5.411   2.195   3.664
65898SOL    HW299592   5.519   2.139   3.753
65899SOL     OW99593   1.082   7.501   3.486
65899SOL    HW199594   1.154   7.546   3.442
65899SOL    HW299595   1.120   7.468   3.567
65900SOL     OW99596   9.922  11.043  11.098
65900SOL    HW199597   9.829  11.051  11.121
65900SOL    HW299598   9.962  11.122  11.134
65901SOL     OW99599   6.818  13.888  13.138
65901SOL    HW199600   6.755  13.945  13.093
65901SOL    HW299601   6.900  13.901  13.092
65902SOL     OW99602  13.728   1.961   6.656
65902SOL    HW199603  13.705   2.052   6.639
65902SOL    HW299604  13.656   1.911   6.617
65903SOL     OW99605   4.279   3.558   4.170
65903SOL    HW199606   4.221   3.608   4.227
65903SOL    HW299607   4.315   3.622   4.109
65904SOL     OW99608  11.133   3.046  10.267
65904SOL    HW199609  11.051   3.092  10.254
65904SOL    HW299610  11.179   3.097  10.334
65905SOL     OW99611   5.479   7.692   6.578
65905SOL    HW199612   5.494   7.646   6.660
65905SOL    HW299613   5.532   7.771   6.585
65906SOL     OW99614   9.349   4.704   5.855
65906SOL    HW199615   9.284   4.742   5.914
65906SOL    HW299616   9.305   4.700   5.770
65907SOL     OW99617   5.247   0.402   1.290
65907SOL    HW199618   5.309   0.433   1.225
65907SOL    HW299619   5.239   0.475   1.352
65908SOL     OW99620   1.918   3.368   6.290
65908SOL    HW199621   1.876   3.307   6.350
65908SOL    HW299622   1.984   3.316   6.244
65909SOL     OW99623   1.783   6.274  12.544
65909SOL    HW199624   1.737   6.190  12.542
65909SOL    HW299625   1.874   6.252  12.528
65910SOL     OW99626   4.825   5.101   5.913
65910SOL    HW199627   4.845   5.134   5.826
65910SOL    HW299628   4.909   5.100   5.959
65911SOL     OW99629   7.302   5.596   6.637
65911SOL    HW199630   7.227   5.540   6.654
65911SOL    HW299631   7.323   5.581   6.545
65912SOL     OW99632  10.619  12.355   1.639
65912SOL    HW199633  10.594  12.311   1.721
65912SOL    HW299634  10.713  12.369   1.648
65913SOL     OW99635   3.778   0.841   1.164
65913SOL    HW199636   3.728   0.822   1.085
65913SOL    HW299637   3.728   0.911   1.207
65914SOL     OW99638   3.666  14.231   0.291
65914SOL    HW199639   3.590  14.210   0.236
65914SOL    HW299640   3.657  14.325   0.308
65915SOL     OW99641   8.705  10.249   3.564
65915SOL    HW199642   8.695  10.202   3.481
65915SOL    HW299643   8.664  10.192   3.629
65916SOL     OW99644  13.150   8.895   6.350
65916SOL    HW199645  13.180   8.864   6.264
65916SOL    HW299646  13.066   8.851   6.363
65917SOL     OW99647   4.010   5.181   6.160
65917SOL    HW199648   4.030   5.267   6.122
65917SOL    HW299649   3.922   5.161   6.129
65918SOL     OW99650  13.701  11.021   7.670
65918SOL    HW199651  13.734  11.104   7.704
65918SOL    HW299652  13.650  10.984   7.742
65919SOL     OW99653  14.037   7.322  14.817
65919SOL    HW199654  14.107   7.386  14.806
65919SOL    HW299655  14.031   7.308   0.037
65920SOL     OW99656  11.512   4.540   6.455
65920SOL    HW199657  11.545   4.594   6.527
65920SOL    HW299658  11.581   4.474   6.442
65921SOL     OW99659   9.958   6.811   6.207
65921SOL    HW199660   9.864   6.818   6.190
65921SOL    HW299661  10.000   6.854   6.133
65922SOL     OW99662  11.379  14.821   6.839
65922SOL    HW199663  11.351  14.740   6.797
65922SOL    HW299664  11.316  14.836   6.909
65923SOL     OW99665   3.298   6.465   4.879
65923SOL    HW199666   3.249   6.419   4.947
65923SOL    HW299667   3.382   6.485   4.920
65924SOL     OW99668  14.086  12.939   9.360
65924SOL    HW199669  14.118  12.851   9.383
65924SOL    HW299670  14.114  12.994   9.433
65925SOL     OW99671   0.499   6.133   5.528
65925SOL    HW199672   0.545   6.053   5.550
65925SOL    HW299673   0.568   6.198   5.514
65926SOL     OW99674   4.673   5.787   2.720
65926SOL    HW199675   4.607   5.855   2.710
65926SOL    HW299676   4.739   5.826   2.777
65927SOL     OW99677  11.904   1.847   4.896
65927SOL    HW199678  11.864   1.912   4.837
65927SOL    HW299679  11.864   1.764   4.869
65928SOL     OW99680  10.799   4.263   5.191
65928SOL    HW199681  10.890   4.279   5.214
65928SOL    HW299682  10.774   4.186   5.241
65929SOL     OW99683  13.094   2.490   4.222
65929SOL    HW199684  13.000   2.477   4.211
65929SOL    HW299685  13.134   2.422   4.169
65930SOL     OW99686  14.213   6.712  12.243
65930SOL    HW199687  14.118   6.717  12.239
65930SOL    HW299688  14.231   6.666  12.326
65931SOL     OW99689   0.491   1.981   9.309
65931SOL    HW199690   0.433   1.913   9.275
65931SOL    HW299691   0.505   1.957   9.400
65932SOL     OW99692   0.758   2.505  12.180
65932SOL    HW199693   0.717   2.517  12.094
65932SOL    HW299694   0.820   2.578  12.187
65933SOL     OW99695  10.185   5.803   9.778
65933SOL    HW199696  10.241   5.826   9.704
65933SOL    HW299697  10.134   5.883   9.795
65934SOL     OW99698  14.030   9.406   7.762
65934SOL    HW199699  13.972   9.339   7.724
65934SOL    HW299700  13.980   9.487   7.755
65935SOL     OW99701   4.255  13.703   8.202
65935SOL    HW199702   4.342  13.667   8.188
65935SOL    HW299703   4.209  13.636   8.253
65936SOL     OW99704   5.759   0.608  12.775
65936SOL    HW199705   5.831   0.657  12.814
65936SOL    HW299706   5.777   0.607  12.681
65937SOL     OW99707  13.954   1.104   7.153
65937SOL    HW199708  14.015   1.165   7.112
65937SOL    HW299709  13.944   1.033   7.090
65938SOL     OW99710   1.358   3.014   9.786
65938SOL    HW199711   1.420   3.011   9.859
65938SOL    HW299712   1.272   3.009   9.828
65939SOL     OW99713   3.341   5.653   1.163
65939SOL    HW199714   3.299   5.692   1.240
65939SOL    HW299715   3.401   5.720   1.131
65940SOL     OW99716   8.500  11.130  11.267
65940SOL    HW199717   8.505  11.036  11.251
65940SOL    HW299718   8.564  11.146  11.336
65941SOL     OW99719  11.870   2.605   7.853
65941SOL    HW199720  11.962   2.614   7.878
65941SOL    HW299721  11.822   2.608   7.936
65942SOL     OW99722  14.442  13.546   9.928
65942SOL    HW199723  14.507  13.585   9.869
65942SOL    HW299724  14.377  13.508   9.870
65943SOL     OW99725  11.952   3.112  11.530
65943SOL    HW199726  12.036   3.086  11.492
65943SOL    HW299727  11.919   3.179  11.471
65944SOL     OW99728   7.246   3.715   3.123
65944SOL    HW199729   7.276   3.735   3.212
65944SOL    HW299730   7.189   3.788   3.100
65945SOL     OW99731   3.878   0.762   7.031
65945SOL    HW199732   3.950   0.700   7.044
65945SOL    HW299733   3.915   0.830   6.975
65946SOL     OW99734  13.885  12.235  12.874
65946SOL    HW199735  13.978  12.251  12.891
65946SOL    HW299736  13.883  12.149  12.834
65947SOL     OW99737   2.393   5.729  12.531
65947SOL    HW199738   2.440   5.653  12.497
65947SOL    HW299739   2.456   5.801  12.524
65948SOL     OW99740   9.271   0.275   1.370
65948SOL    HW199741   9.322   0.345   1.329
65948SOL    HW299742   9.180   0.300   1.356
65949SOL     OW99743  10.736  13.620  14.031
65949SOL    HW199744  10.782  13.604  14.114
65949SOL    HW299745  10.806  13.636  13.968
65950SOL     OW99746   3.999   9.936   0.685
65950SOL    HW199747   4.037   9.906   0.602
65950SOL    HW299748   3.926   9.992   0.660
65951SOL     OW99749   6.252   6.841  13.185
65951SOL    HW199750   6.191   6.828  13.257
65951SOL    HW299751   6.262   6.754  13.145
65952SOL     OW99752  10.519   8.041   4.519
65952SOL    HW199753  10.579   8.062   4.591
65952SOL    HW299754  10.442   8.002   4.562
65953SOL     OW99755   5.643  13.234   2.667
65953SOL    HW199756   5.691  13.185   2.601
65953SOL    HW299757   5.670  13.195   2.750
65954SOL     OW99758  13.601  12.350   0.397
65954SOL    HW199759  13.527  12.360   0.336
65954SOL    HW299760  13.560  12.348   0.483
65955SOL     OW99761   9.894   0.518   2.136
65955SOL    HW199762   9.806   0.485   2.116
65955SOL    HW299763   9.941   0.513   2.052
65956SOL     OW99764   7.165   9.440   0.831
65956SOL    HW199765   7.078   9.405   0.816
65956SOL    HW299766   7.208   9.434   0.746
65957SOL     OW99767  10.233   1.353   0.830
65957SOL    HW199768  10.324   1.337   0.804
65957SOL    HW299769  10.234   1.348   0.925
65958SOL     OW99770   3.483  11.304   7.114
65958SOL    HW199771   3.507  11.301   7.207
65958SOL    HW299772   3.457  11.394   7.098
65959SOL     OW99773  11.475   3.865   2.563
65959SOL    HW199774  11.555   3.846   2.514
65959SOL    HW299775  11.414   3.898   2.497
65960SOL     OW99776  14.663   2.754  14.043
65960SOL    HW199777  14.711   2.754  13.960
65960SOL    HW299778  14.719   2.704  14.103
65961SOL     OW99779   0.013   7.598  11.389
65961SOL    HW199780   0.024   7.613  11.483
65961SOL    HW299781  14.822   7.662  11.362
65962SOL     OW99782   0.186   1.401  13.451
65962SOL    HW199783   0.233   1.462  13.509
65962SOL    HW299784   0.232   1.318  13.462
65963SOL     OW99785   6.057  14.048   3.372
65963SOL    HW199786   6.009  14.121   3.332
65963SOL    HW299787   6.136  14.039   3.319
65964SOL     OW99788   5.449   8.918   2.450
65964SOL    HW199789   5.428   8.937   2.542
65964SOL    HW299790   5.487   8.999   2.417
65965SOL     OW99791  11.423   6.270   2.986
65965SOL    HW199792  11.396   6.203   2.923
65965SOL    HW299793  11.421   6.226   3.071
65966SOL     OW99794   1.289  13.323   8.929
65966SOL    HW199795   1.377  13.296   8.953
65966SOL    HW299796   1.232  13.263   8.978
65967SOL     OW99797   5.015   3.906  12.342
65967SOL    HW199798   5.038   3.815  12.360
65967SOL    HW299799   4.926   3.902  12.307
65968SOL     OW99800  13.840   1.439  10.934
65968SOL    HW199801  13.784   1.375  10.889
65968SOL    HW299802  13.781   1.482  10.995
65969SOL     OW99803   1.865   9.604  13.958
65969SOL    HW199804   1.923   9.662  13.909
65969SOL    HW299805   1.781   9.611  13.914
65970SOL     OW99806   6.395   6.732   9.111
65970SOL    HW199807   6.450   6.742   9.034
65970SOL    HW299808   6.454   6.698   9.179
65971SOL     OW99809   3.981  12.831  12.500
65971SOL    HW199810   3.929  12.872  12.432
65971SOL    HW299811   4.005  12.745  12.465
65972SOL     OW99812  10.668   1.672   7.771
65972SOL    HW199813  10.604   1.698   7.704
65972SOL    HW299814  10.752   1.672   7.725
65973SOL     OW99815  11.794   8.094   9.414
65973SOL    HW199816  11.767   8.164   9.355
65973SOL    HW299817  11.820   8.022   9.356
65974SOL     OW99818   3.024  12.816  14.002
65974SOL    HW199819   2.963  12.890  14.002
65974SOL    HW299820   2.971  12.741  13.975
65975SOL     OW99821  14.175   9.585   3.352
65975SOL    HW199822  14.142   9.671   3.376
65975SOL    HW299823  14.097   9.529   3.348
65976SOL     OW99824   3.795   3.198  14.526
65976SOL    HW199825   3.859   3.130  14.545
65976SOL    HW299826   3.837   3.279  14.553
65977SOL     OW99827   9.564   4.385   2.406
65977SOL    HW199828   9.564   4.332   2.486
65977SOL    HW299829   9.560   4.475   2.438
65978SOL     OW99830   8.535   2.299   0.911
65978SOL    HW199831   8.610   2.278   0.855
65978SOL    HW299832   8.459   2.297   0.852
65979SOL     OW99833   8.082  12.187   5.903
65979SOL    HW199834   8.028  12.241   5.845
65979SOL    HW299835   8.122  12.249   5.964
65980SOL     OW99836   7.726   1.469   0.101
65980SOL    HW199837   7.771   1.385   0.091
65980SOL    HW299838   7.737   1.513   0.017
65981SOL     OW99839  11.181   5.374   0.242
65981SOL    HW199840  11.201   5.282   0.260
65981SOL    HW299841  11.217   5.391   0.156
65982SOL     OW99842  10.350   4.933   5.503
65982SOL    HW199843  10.416   4.867   5.523
65982SOL    HW299844  10.343   4.985   5.584
65983SOL     OW99845   1.541   7.836   9.968
65983SOL    HW199846   1.451   7.863   9.954
65983SOL    HW299847   1.593   7.901   9.920
65984SOL     OW99848   9.853   1.209   7.781
65984SOL    HW199849   9.773   1.164   7.808
65984SOL    HW299850   9.823   1.283   7.729
65985SOL     OW99851   5.656  13.433   6.048
65985SOL    HW199852   5.749  13.443   6.025
65985SOL    HW299853   5.609  13.463   5.970
65986SOL     OW99854   3.318  10.713  14.734
65986SOL    HW199855   3.274  10.782  14.684
65986SOL    HW299856   3.401  10.753  14.761
65987SOL     OW99857   4.158   7.388   9.932
65987SOL    HW199858   4.182   7.367   9.842
65987SOL    HW299859   4.225   7.449   9.961
65988SOL     OW99860  13.898   1.030  10.521
65988SOL    HW199861  13.808   1.043  10.490
65988SOL    HW299862  13.938   0.972  10.456
65989SOL     OW99863  13.210   4.927  10.344
65989SOL    HW199864  13.152   4.915  10.268
65989SOL    HW299865  13.163   4.888  10.417
65990SOL     OW99866   5.122  10.731  11.589
65990SOL    HW199867   5.200  10.736  11.645
65990SOL    HW299868   5.153  10.760  11.503
65991SOL     OW99869   0.957   0.363   5.788
65991SOL    HW199870   1.048   0.350   5.815
65991SOL    HW299871   0.924   0.428   5.850
65992SOL     OW99872   7.688   5.170  14.029
65992SOL    HW199873   7.713   5.085  13.991
65992SOL    HW299874   7.708   5.234  13.960
65993SOL     OW99875   6.031  14.332  11.381
65993SOL    HW199876   5.947  14.364  11.414
65993SOL    HW299877   6.092  14.404  11.397
65994SOL     OW99878   9.791   1.078   7.044
65994SOL    HW199879   9.818   1.169   7.031
65994SOL    HW299880   9.842   1.028   6.981
65995SOL     OW99881  12.595   4.931  11.198
65995SOL    HW199882  12.599   4.839  11.171
65995SOL    HW299883  12.542   4.930  11.278
65996SOL     OW99884   0.569   6.919   7.880
65996SOL    HW199885   0.567   6.926   7.785
65996SOL    HW299886   0.551   7.008   7.911
65997SOL     OW99887   7.153   3.723   0.654
65997SOL    HW199888   7.138   3.674   0.735
65997SOL    HW299889   7.176   3.811   0.683
65998SOL     OW99890   5.314   1.414   4.144
65998SOL    HW199891   5.392   1.426   4.198
65998SOL    HW299892   5.349   1.392   4.057
65999SOL     OW99893  11.604   3.047   6.791
65999SOL    HW199894  11.680   3.018   6.841
65999SOL    HW299895  11.536   2.983   6.810
66000SOL     OW99896  13.935   6.076  13.005
66000SOL    HW199897  13.968   6.067  13.094
66000SOL    HW299898  13.847   6.112  13.015
66001SOL     OW99899   7.599  10.256   7.992
66001SOL    HW199900   7.594  10.256   8.087
66001SOL    HW299901   7.651  10.333   7.970
66002SOL     OW99902  14.834   5.314  14.562
66002SOL    HW199903   0.023   5.385  14.563
66002SOL    HW299904  14.791   5.320  14.648
66003SOL     OW99905   1.831   1.966  13.179
66003SOL    HW199906   1.776   2.040  13.204
66003SOL    HW299907   1.874   1.940  13.260
66004SOL     OW99908  13.187  10.323  12.948
66004SOL    HW199909  13.229  10.243  12.981
66004SOL    HW299910  13.162  10.372  13.026
66005SOL     OW99911  12.635   4.696  10.272
66005SOL    HW199912  12.665   4.625  10.216
66005SOL    HW299913  12.619   4.769  10.213
66006SOL     OW99914   3.461   0.935   3.329
66006SOL    HW199915   3.542   0.917   3.281
66006SOL    HW299916   3.491   0.957   3.417
66007SOL     OW99917  11.068   8.030  12.062
66007SOL    HW199918  11.051   7.936  12.074
66007SOL    HW299919  11.077   8.040  11.967
66008SOL     OW99920   3.124  11.607   7.504
66008SOL    HW199921   3.140  11.515   7.524
66008SOL    HW299922   3.206  11.651   7.529
66009SOL     OW99923  13.175   2.095  10.169
66009SOL    HW199924  13.267   2.087  10.193
66009SOL    HW299925  13.132   2.132  10.246
66010SOL     OW99926   4.461   7.818  11.436
66010SOL    HW199927   4.525   7.792  11.370
66010SOL    HW299928   4.452   7.740  11.492
66011SOL     OW99929   9.161   0.456   7.632
66011SOL    HW199930   9.176   0.548   7.610
66011SOL    HW299931   9.130   0.416   7.551
66012SOL     OW99932  14.823  12.617  10.144
66012SOL    HW199933  14.864  12.696  10.178
66012SOL    HW299934   0.004  12.590  10.071
66013SOL     OW99935   1.881   7.413  10.843
66013SOL    HW199936   1.896   7.483  10.779
66013SOL    HW299937   1.931   7.339  10.809
66014SOL     OW99938  13.673   2.025  11.857
66014SOL    HW199939  13.623   2.095  11.898
66014SOL    HW299940  13.764   2.057  11.857
66015SOL     OW99941   4.831   2.118   5.380
66015SOL    HW199942   4.738   2.110   5.403
66015SOL    HW299943   4.877   2.119   5.463
66016SOL     OW99944   9.818   1.087  10.850
66016SOL    HW199945   9.798   1.144  10.925
66016SOL    HW299946   9.760   1.012  10.861
66017SOL     OW99947  11.148   1.251   5.800
66017SOL    HW199948  11.191   1.167   5.787
66017SOL    HW299949  11.188   1.286   5.880
66018SOL     OW99950   1.830   2.572   0.947
66018SOL    HW199951   1.868   2.519   1.018
66018SOL    HW299952   1.902   2.630   0.920
66019SOL     OW99953   1.526  13.951   9.624
66019SOL    HW199954   1.457  13.919   9.681
66019SOL    HW299955   1.488  13.952   9.537
66020SOL     OW99956  10.139   3.667   6.343
66020SOL    HW199957  10.171   3.616   6.418
66020SOL    HW299958  10.188   3.632   6.268
66021SOL     OW99959  11.926   0.639   8.306
66021SOL    HW199960  11.865   0.598   8.245
66021SOL    HW299961  11.913   0.733   8.293
66022SOL     OW99962  11.892   4.662  10.635
66022SOL    HW199963  11.919   4.711  10.712
66022SOL    HW299964  11.966   4.669  10.575
66023SOL     OW99965  13.943   7.246   8.617
66023SOL    HW199966  13.934   7.293   8.534
66023SOL    HW299967  13.929   7.313   8.684
66024SOL     OW99968   0.985  12.130  12.141
66024SOL    HW199969   0.939  12.157  12.221
66024SOL    HW299970   1.069  12.175  12.146
66025SOL     OW99971   6.937   3.351   5.647
66025SOL    HW199972   6.947   3.372   5.555
66025SOL    HW299973   6.931   3.436   5.691
66026SOL     OW99974   4.076   1.357   0.527
66026SOL    HW199975   4.101   1.449   0.535
66026SOL    HW299976   4.106   1.316   0.608
66027SOL     OW99977   9.965   7.387  12.641
66027SOL    HW199978   9.928   7.410  12.556
66027SOL    HW299979   9.957   7.292  12.646
66028SOL     OW99980   5.475   8.650   9.004
66028SOL    HW199981   5.492   8.733   8.959
66028SOL    HW299982   5.558   8.604   9.003
66029SOL     OW99983  12.450  13.356   8.475
66029SOL    HW199984  12.419  13.443   8.500
66029SOL    HW299985  12.472  13.314   8.559
66030SOL     OW99986   1.470   0.179   2.282
66030SOL    HW199987   1.492   0.119   2.210
66030SOL    HW299988   1.446   0.121   2.354
66031SOL     OW99989  12.012   5.404   4.124
66031SOL    HW199990  11.945   5.339   4.103
66031SOL    HW299991  11.980   5.485   4.084
66032SOL     OW99992  12.902   8.246   0.835
66032SOL    HW199993  12.862   8.206   0.758
66032SOL    HW299994  12.905   8.176   0.900
66033SOL     OW99995   6.826  12.337  12.470
66033SOL    HW199996   6.852  12.333  12.562
66033SOL    HW299997   6.815  12.246  12.444
66034SOL     OW99998   0.826  14.728   7.171
66034SOL    HW199999   0.845  14.780   7.250
66034SOL    HW2    0   0.901  14.668   7.164
66035SOL     OW    1   4.355   1.341   1.355
66035SOL    HW1    2   4.442   1.377   1.340
66035SOL    HW2    3   4.371   1.252   1.386
66036SOL     OW    4  11.867   2.417   1.130
66036SOL    HW1    5  11.822   2.478   1.189
66036SOL    HW2    6  11.881   2.339   1.183
66037SOL     OW    7  11.802   8.234   3.783
66037SOL    HW1    8  11.891   8.242   3.818
66037SOL    HW2    9  11.777   8.144   3.803
66038SOL     OW   10  12.212   8.859  10.355
66038SOL    HW1   11  12.181   8.945  10.382
66038SOL    HW2   12  12.297   8.849  10.398
66039SOL     OW   13  12.527   2.627   8.048
66039SOL    HW1   14  12.443   2.592   8.077
66039SOL    HW2   15  12.509   2.665   7.962
66040SOL     OW   16  14.417  13.762   8.307
66040SOL    HW1   17  14.337  13.719   8.275
66040SOL    HW2   18  14.465  13.785   8.227
66041SOL     OW   19   6.224   6.852  13.670
66041SOL    HW1   20   6.257   6.927  13.719
66041SOL    HW2   21   6.271   6.777  13.707
66042SOL     OW   22   9.230  12.807   8.696
66042SOL    HW1   23   9.317  12.775   8.719
66042SOL    HW2   24   9.193  12.838   8.779
66043SOL     OW   25   4.697   2.778  11.664
66043SOL    HW1   26   4.752   2.781  11.742
66043SOL    HW2   27   4.746   2.723  11.603
66044SOL     OW   28   4.552   1.292   2.765
66044SOL    HW1   29   4.627   1.259   2.814
66044SOL    HW2   30   4.590   1.357   2.705
66045SOL     OW   31   7.802   6.627  13.988
66045SOL    HW1   32   7.763   6.638  13.901
66045SOL    HW2   33   7.747   6.561  14.031
66046SOL     OW   34   8.255   9.673   5.871
66046SOL    HW1   35   8.164   9.701   5.877
66046SOL    HW2   36   8.300   9.722   5.940
66047SOL     OW   37   5.396   2.977   2.499
66047SOL    HW1   38   5.485   3.011   2.508
66047SOL    HW2   39   5.407   2.890   2.462
66048SOL     OW   40   0.274   8.795  13.411
66048SOL    HW1   41   0.348   8.753  13.369
66048SOL    HW2   42   0.296   8.795  13.504
66049SOL     OW   43   0.674   5.969   1.626
66049SOL    HW1   44   0.756   5.991   1.581
66049SOL    HW2   45   0.700   5.902   1.690
66050SOL     OW   46  13.018   4.674   0.872
66050SOL    HW1   47  12.943   4.652   0.928
66050SOL    HW2   48  13.046   4.590   0.836
66051SOL     OW   49   0.585  13.197   5.337
66051SOL    HW1   50   0.557  13.227   5.424
66051SOL    HW2   51   0.559  13.105   5.335
66052SOL     OW   52   5.526  11.588   1.088
66052SOL    HW1   53   5.557  11.570   0.999
66052SOL    HW2   54   5.591  11.648   1.124
66053SOL     OW   55  13.918   8.443   5.498
66053SOL    HW1   56  13.965   8.370   5.539
66053SOL    HW2   57  13.892   8.411   5.412
66054SOL     OW   58   9.665  13.025   8.291
66054SOL    HW1   59   9.611  13.094   8.253
66054SOL    HW2   60   9.614  12.992   8.365
66055SOL     OW   61  13.266   4.596  12.841
66055SOL    HW1   62  13.278   4.638  12.756
66055SOL    HW2   63  13.243   4.668  12.900
66056SOL     OW   64   3.363   2.062   1.395
66056SOL    HW1   65   3.313   1.995   1.348
66056SOL    HW2   66   3.351   2.041   1.487
66057SOL     OW   67  13.985   6.313   2.945
66057SOL    HW1   68  13.906   6.359   2.973
66057SOL    HW2   69  13.953   6.239   2.893
66058SOL     OW   70  10.190  12.920  14.569
66058SOL    HW1   71  10.170  12.970  14.490
66058SOL    HW2   72  10.257  12.858  14.541
66059SOL     OW   73   3.522   7.484  13.551
66059SOL    HW1   74   3.554   7.527  13.472
66059SOL    HW2   75   3.592   7.494  13.615
66060SOL     OW   76   6.441  12.416   8.054
66060SOL    HW1   77   6.455  12.422   8.148
66060SOL    HW2   78   6.486  12.492   8.018
66061SOL     OW   79   5.995   6.317   6.633
66061SOL    HW1   80   6.008   6.300   6.540
66061SOL    HW2   81   6.056   6.387   6.653
66062SOL     OW   82   1.169  14.847   7.898
66062SOL    HW1   83   1.103  14.842   7.828
66062SOL    HW2   84   1.122  14.823   7.977
66063SOL     OW   85   9.843  11.711   4.276
66063SOL    HW1   86   9.806  11.626   4.299
66063SOL    HW2   87   9.788  11.744   4.205
66064SOL     OW   88   9.463   8.098   3.605
66064SOL    HW1   89   9.467   8.188   3.635
66064SOL    HW2   90   9.512   8.048   3.670
66065SOL     OW   91   9.953   2.504   8.152
66065SOL    HW1   92   9.967   2.599   8.160
66065SOL    HW2   93  10.023   2.475   8.094
66066SOL     OW   94   8.930   1.801  14.205
66066SOL    HW1   95   9.008   1.846  14.236
66066SOL    HW2   96   8.872   1.796  14.281
66067SOL     OW   97   8.222  14.582  10.597
66067SOL    HW1   98   8.253  14.492  10.605
66067SOL    HW2   99   8.205  14.609  10.687
66068SOL     OW  100   9.422  13.567   5.191
66068SOL    HW1  101   9.439  13.477   5.162
66068SOL    HW2  102   9.469  13.575   5.274
66069SOL     OW  103   2.408   7.212   5.836
66069SOL    HW1  104   2.388   7.124   5.803
66069SOL    HW2  105   2.323   7.255   5.843
66070SOL     OW  106   9.527  11.538   1.567
66070SOL    HW1  107   9.470  11.493   1.630
66070SOL    HW2  108   9.615  11.505   1.585
66071SOL     OW  109   7.734   1.599   0.904
66071SOL    HW1  110   7.802   1.613   0.969
66071SOL    HW2  111   7.717   1.504   0.907
66072SOL     OW  112   9.105   3.439   5.552
66072SOL    HW1  113   9.155   3.472   5.627
66072SOL    HW2  114   9.142   3.485   5.476
66073SOL     OW  115   9.414  14.021  14.147
66073SOL    HW1  116   9.413  14.066  14.063
66073SOL    HW2  117   9.405  14.091  14.212
66074SOL     OW  118   1.449  11.611   7.446
66074SOL    HW1  119   1.473  11.602   7.539
66074SOL    HW2  120   1.429  11.704   7.435
66075SOL     OW  121   0.760  10.143   5.244
66075SOL    HW1  122   0.839  10.196   5.230
66075SOL    HW2  123   0.724  10.176   5.327
66076SOL     OW  124   3.799   0.223   1.145
66076SOL    HW1  125   3.803   0.317   1.129
66076SOL    HW2  126   3.880   0.203   1.192
66077SOL     OW  127  11.758   9.247   0.069
66077SOL    HW1  128  11.744   9.340   0.088
66077SOL    HW2  129  11.679   9.218   0.024
66078SOL     OW  130  13.923  11.012   8.447
66078SOL    HW1  131  13.957  11.077   8.509
66078SOL    HW2  132  14.002  10.966   8.416
66079SOL     OW  133  11.389   8.862   5.271
66079SOL    HW1  134  11.416   8.803   5.341
66079SOL    HW2  135  11.459   8.858   5.207
66080SOL     OW  136  13.799  10.707  13.350
66080SOL    HW1  137  13.713  10.722  13.310
66080SOL    HW2  138  13.856  10.772  13.308
66081SOL     OW  139   8.967   3.533   4.890
66081SOL    HW1  140   8.991   3.516   4.799
66081SOL    HW2  141   8.893   3.594   4.885
66082SOL     OW  142  11.150   4.328   2.969
66082SOL    HW1  143  11.194   4.298   3.048
66082SOL    HW2  144  11.216   4.324   2.900
66083SOL     OW  145   0.985  14.449  11.393
66083SOL    HW1  146   1.009  14.538  11.370
66083SOL    HW2  147   1.067  14.408  11.420
66084SOL     OW  148   4.987   5.362   2.395
66084SOL    HW1  149   4.998   5.324   2.308
66084SOL    HW2  150   4.898   5.336   2.421
66085SOL     OW  151   8.334  12.353   0.864
66085SOL    HW1  152   8.258  12.299   0.843
66085SOL    HW2  153   8.317  12.437   0.821
66086SOL     OW  154   6.831   4.892  10.831
66086SOL    HW1  155   6.818   4.826  10.899
66086SOL    HW2  156   6.813   4.975  10.875
66087SOL     OW  157  14.107  10.741   3.525
66087SOL    HW1  158  14.110  10.800   3.600
66087SOL    HW2  159  14.197  10.710   3.515
66088SOL     OW  160   7.845   9.447   0.861
66088SOL    HW1  161   7.902   9.508   0.909
66088SOL    HW2  162   7.889   9.435   0.777
66089SOL     OW  163   3.501   9.126   5.706
66089SOL    HW1  164   3.501   9.037   5.742
66089SOL    HW2  165   3.458   9.117   5.621
66090SOL     OW  166  14.384   7.197   7.709
66090SOL    HW1  167  14.407   7.176   7.619
66090SOL    HW2  168  14.430   7.278   7.728
66091SOL     OW  169   0.902   6.153   5.122
66091SOL    HW1  170   0.909   6.249   5.123
66091SOL    HW2  171   0.936   6.127   5.037
66092SOL     OW  172   5.557  12.914   9.626
66092SOL    HW1  173   5.634  12.937   9.678
66092SOL    HW2  174   5.540  12.993   9.574
66093SOL     OW  175   4.518   1.584  14.552
66093SOL    HW1  176   4.546   1.539  14.632
66093SOL    HW2  177   4.457   1.651  14.582
66094SOL     OW  178  14.274  10.691  12.961
66094SOL    HW1  179  14.321  10.642  13.029
66094SOL    HW2  180  14.342  10.713  12.897
66095SOL     OW  181   1.251   8.259   5.045
66095SOL    HW1  182   1.194   8.184   5.058
66095SOL    HW2  183   1.303   8.237   4.967
66096SOL     OW  184   0.501   5.402   8.862
66096SOL    HW1  185   0.492   5.420   8.768
66096SOL    HW2  186   0.412   5.408   8.896
66097SOL     OW  187   7.612   0.828  11.283
66097SOL    HW1  188   7.627   0.875  11.364
66097SOL    HW2  189   7.529   0.864  11.249
66098SOL     OW  190  11.949  13.066  12.515
66098SOL    HW1  191  11.870  13.088  12.564
66098SOL    HW2  192  11.948  12.970  12.508
66099SOL     OW  193   1.506   2.843   6.084
66099SOL    HW1  194   1.454   2.763   6.077
66099SOL    HW2  195   1.499   2.884   5.998
66100SOL     OW  196  11.018   4.732   6.670
66100SOL    HW1  197  10.930   4.696   6.667
66100SOL    HW2  198  11.067   4.682   6.605
66101SOL     OW  199   7.028   0.126   2.679
66101SOL    HW1  200   6.965   0.102   2.611
66101SOL    HW2  201   7.108   0.079   2.654
66102SOL     OW  202  12.738  14.704  12.694
66102SOL    HW1  203  12.763  14.789  12.731
66102SOL    HW2  204  12.820  14.667  12.660
66103SOL     OW  205  14.580  10.593  10.336
66103SOL    HW1  206  14.541  10.665  10.386
66103SOL    HW2  207  14.648  10.636  10.283
66104SOL     OW  208   8.211  14.022   2.338
66104SOL    HW1  209   8.239  14.094   2.394
66104SOL    HW2  210   8.293  13.979   2.312
66105SOL     OW  211   3.516   7.748  12.617
66105SOL    HW1  212   3.579   7.676  12.617
66105SOL    HW2  213   3.502   7.768  12.524
66106SOL     OW  214   7.801  11.710  11.196
66106SOL    HW1  215   7.853  11.631  11.184
66106SOL    HW2  216   7.793  11.747  11.108
66107SOL     OW  217   8.895   0.861   9.323
66107SOL    HW1  218   8.881   0.953   9.345
66107SOL    HW2  219   8.861   0.813   9.398
66108SOL     OW  220   8.631   2.011  14.435
66108SOL    HW1  221   8.557   2.052  14.390
66108SOL    HW2  222   8.679   2.085  14.474
66109SOL     OW  223  13.331   7.143   5.886
66109SOL    HW1  224  13.320   7.137   5.791
66109SOL    HW2  225  13.376   7.226   5.900
66110SOL     OW  226  12.223   3.245  13.866
66110SOL    HW1  227  12.132   3.255  13.894
66110SOL    HW2  228  12.274   3.287  13.935
66111SOL     OW  229   5.321   9.178   8.367
66111SOL    HW1  230   5.309   9.138   8.453
66111SOL    HW2  231   5.243   9.233   8.356
66112SOL     OW  232   6.865   7.538  12.996
66112SOL    HW1  233   6.815   7.616  13.020
66112SOL    HW2  234   6.821   7.466  13.042
66113SOL     OW  235   3.210   7.270   1.677
66113SOL    HW1  236   3.268   7.246   1.750
66113SOL    HW2  237   3.190   7.362   1.692
66114SOL     OW  238   3.049   0.717   0.758
66114SOL    HW1  239   3.040   0.761   0.843
66114SOL    HW2  240   2.996   0.638   0.765
66115SOL     OW  241   6.862   6.680  10.078
66115SOL    HW1  242   6.788   6.638  10.122
66115SOL    HW2  243   6.851   6.657   9.986
66116SOL     OW  244   5.963  11.914   6.207
66116SOL    HW1  245   5.880  11.874   6.229
66116SOL    HW2  246   5.940  12.000   6.170
66117SOL     OW  247  14.201   1.938   4.152
66117SOL    HW1  248  14.122   1.892   4.125
66117SOL    HW2  249  14.267   1.870   4.161
66118SOL     OW  250   9.747   5.522   7.250
66118SOL    HW1  251   9.713   5.445   7.294
66118SOL    HW2  252   9.837   5.529   7.280
66119SOL     OW  253   4.367   6.526  12.434
66119SOL    HW1  254   4.357   6.572  12.518
66119SOL    HW2  255   4.291   6.555  12.383
66120SOL     OW  256  12.379   2.747  10.240
66120SOL    HW1  257  12.444   2.737  10.310
66120SOL    HW2  258  12.308   2.687  10.265
66121SOL     OW  259   8.301   8.822   4.318
66121SOL    HW1  260   8.387   8.843   4.355
66121SOL    HW2  261   8.240   8.878   4.366
66122SOL     OW  262  13.613   5.463   5.816
66122SOL    HW1  263  13.567   5.443   5.898
66122SOL    HW2  264  13.706   5.455   5.838
66123SOL     OW  265   9.473   6.767   2.457
66123SOL    HW1  266   9.548   6.724   2.416
66123SOL    HW2  267   9.452   6.840   2.399
66124SOL     OW  268  10.896  11.614   6.037
66124SOL    HW1  269  10.897  11.640   6.129
66124SOL    HW2  270  10.960  11.543   6.031
66125SOL     OW  271  10.923   9.604  11.960
66125SOL    HW1  272  10.904   9.528  12.016
66125SOL    HW2  273  10.883   9.678  12.007
66126SOL     OW  274   0.310   2.800   1.459
66126SOL    HW1  275   0.390   2.748   1.465
66126SOL    HW2  276   0.329   2.867   1.394
66127SOL     OW  277   7.229   6.529  10.010
66127SOL    HW1  278   7.312   6.503   9.968
66127SOL    HW2  279   7.161   6.486   9.957
66128SOL     OW  280   9.992  14.382  12.982
66128SOL    HW1  281   9.962  14.321  13.049
66128SOL    HW2  282  10.088  14.378  12.987
66129SOL     OW  283   1.276   6.423   6.843
66129SOL    HW1  284   1.324   6.342   6.821
66129SOL    HW2  285   1.190   6.411   6.804
66130SOL     OW  286   5.416  10.171  13.130
66130SOL    HW1  287   5.484  10.208  13.074
66130SOL    HW2  288   5.346  10.146  13.070
66131SOL     OW  289  12.113  13.746   7.844
66131SOL    HW1  290  12.093  13.762   7.752
66131SOL    HW2  291  12.076  13.822   7.890
66132SOL     OW  292   5.272  14.128   9.469
66132SOL    HW1  293   5.214  14.098   9.400
66132SOL    HW2  294   5.327  14.052   9.489
66133SOL     OW  295   0.636   0.627   3.370
66133SOL    HW1  296   0.620   0.719   3.391
66133SOL    HW2  297   0.601   0.579   3.444
66134SOL     OW  298   8.266   5.518   2.938
66134SOL    HW1  299   8.320   5.569   2.999
66134SOL    HW2  300   8.321   5.444   2.913
66135SOL     OW  301   0.193   4.203   2.409
66135SOL    HW1  302   0.133   4.247   2.349
66135SOL    HW2  303   0.189   4.256   2.489
66136SOL     OW  304   9.526   5.573   2.654
66136SOL    HW1  305   9.454   5.517   2.684
66136SOL    HW2  306   9.562   5.527   2.578
66137SOL     OW  307  10.371  14.180   1.304
66137SOL    HW1  308  10.280  14.153   1.317
66137SOL    HW2  309  10.391  14.154   1.214
66138SOL     OW  310   2.094  12.258  12.956
66138SOL    HW1  311   2.095  12.316  13.031
66138SOL    HW2  312   2.168  12.287  12.902
66139SOL     OW  313   8.575  13.035   7.287
66139SOL    HW1  314   8.485  13.014   7.312
66139SOL    HW2  315   8.611  12.952   7.255
66140SOL     OW  316   9.280  11.326   4.457
66140SOL    HW1  317   9.296  11.302   4.366
66140SOL    HW2  318   9.232  11.251   4.493
66141SOL     OW  319   6.552  12.871   7.466
66141SOL    HW1  320   6.488  12.857   7.396
66141SOL    HW2  321   6.511  12.834   7.544
66142SOL     OW  322   2.892   1.836  10.947
66142SOL    HW1  323   2.940   1.877  11.018
66142SOL    HW2  324   2.915   1.887  10.869
66143SOL     OW  325   6.979   7.976   1.692
66143SOL    HW1  326   6.884   7.980   1.702
66143SOL    HW2  327   7.011   8.059   1.727
66144SOL     OW  328  11.300   2.873  11.577
66144SOL    HW1  329  11.321   2.792  11.530
66144SOL    HW2  330  11.349   2.941  11.530
66145SOL     OW  331   5.897  12.772   4.297
66145SOL    HW1  332   5.977  12.730   4.329
66145SOL    HW2  333   5.912  12.865   4.312
66146SOL     OW  334  12.992   6.574   5.594
66146SOL    HW1  335  13.016   6.611   5.679
66146SOL    HW2  336  12.901   6.599   5.581
66147SOL     OW  337   7.691   1.671   4.402
66147SOL    HW1  338   7.747   1.597   4.379
66147SOL    HW2  339   7.735   1.747   4.366
66148SOL     OW  340  11.251   2.712   7.345
66148SOL    HW1  341  11.317   2.643   7.342
66148SOL    HW2  342  11.261   2.750   7.432
66149SOL     OW  343  12.989  10.451  10.677
66149SOL    HW1  344  13.054  10.435  10.608
66149SOL    HW2  345  12.911  10.481  10.631
66150SOL     OW  346  13.058   7.281   5.672
66150SOL    HW1  347  12.985   7.221   5.688
66150SOL    HW2  348  13.062   7.336   5.751
66151SOL     OW  349  12.771  11.901   0.377
66151SOL    HW1  350  12.830  11.884   0.304
66151SOL    HW2  351  12.755  11.815   0.416
66152SOL     OW  352  12.595   9.944   9.510
66152SOL    HW1  353  12.609   9.907   9.422
66152SOL    HW2  354  12.608  10.038   9.498
66153SOL     OW  355   7.716  13.154   0.688
66153SOL    HW1  356   7.773  13.135   0.614
66153SOL    HW2  357   7.627  13.144   0.653
66154SOL     OW  358  10.395   1.116   3.180
66154SOL    HW1  359  10.417   1.037   3.230
66154SOL    HW2  360  10.466   1.177   3.199
66155SOL     OW  361   9.115   4.703  12.506
66155SOL    HW1  362   9.022   4.685  12.499
66155SOL    HW2  363   9.156   4.641  12.445
66156SOL     OW  364  14.670   9.621   5.831
66156SOL    HW1  365  14.664   9.531   5.797
66156SOL    HW2  366  14.639   9.614   5.921
66157SOL     OW  367   3.157   1.193  11.714
66157SOL    HW1  368   3.251   1.204  11.700
66157SOL    HW2  369   3.116   1.255  11.653
66158SOL     OW  370   4.795   5.841   6.420
66158SOL    HW1  371   4.746   5.916   6.454
66158SOL    HW2  372   4.730   5.771   6.412
66159SOL     OW  373   6.941   1.362  11.492
66159SOL    HW1  374   6.903   1.316  11.567
66159SOL    HW2  375   6.967   1.292  11.432
66160SOL     OW  376   5.649   0.152  13.226
66160SOL    HW1  377   5.688   0.125  13.308
66160SOL    HW2  378   5.564   0.108  13.224
66161SOL     OW  379  10.080  10.351  12.840
66161SOL    HW1  380  10.061  10.257  12.843
66161SOL    HW2  381  10.093  10.370  12.747
66162SOL     OW  382   1.875   9.121   6.996
66162SOL    HW1  383   1.785   9.152   7.007
66162SOL    HW2  384   1.890   9.063   7.071
66163SOL     OW  385  10.784   5.536   4.337
66163SOL    HW1  386  10.702   5.509   4.377
66163SOL    HW2  387  10.805   5.619   4.380
66164SOL     OW  388  13.524   3.993   1.116
66164SOL    HW1  389  13.518   3.959   1.205
66164SOL    HW2  390  13.558   3.920   1.065
66165SOL     OW  391   8.349   6.036   6.201
66165SOL    HW1  392   8.347   5.943   6.180
66165SOL    HW2  393   8.372   6.039   6.294
66166SOL     OW  394   6.884  11.303  11.201
66166SOL    HW1  395   6.911  11.297  11.293
66166SOL    HW2  396   6.799  11.347  11.204
66167SOL     OW  397   9.953   9.990   4.887
66167SOL    HW1  398   9.918   9.903   4.908
66167SOL    HW2  399   9.968   9.987   4.793
66168SOL     OW  400  13.699  12.625  10.919
66168SOL    HW1  401  13.780  12.674  10.911
66168SOL    HW2  402  13.669  12.641  11.009
66169SOL     OW  403   9.884   4.061   6.713
66169SOL    HW1  404   9.813   4.049   6.776
66169SOL    HW2  405   9.964   4.060   6.765
66170SOL     OW  406   8.608   8.311   3.090
66170SOL    HW1  407   8.535   8.303   3.028
66170SOL    HW2  408   8.646   8.223   3.092
66171SOL     OW  409   3.593   3.174   8.021
66171SOL    HW1  410   3.639   3.181   7.938
66171SOL    HW2  411   3.500   3.180   7.998
66172SOL     OW  412  10.944  10.192   8.774
66172SOL    HW1  413  10.971  10.101   8.783
66172SOL    HW2  414  11.011  10.242   8.821
66173SOL     OW  415  14.822   2.192   7.802
66173SOL    HW1  416  14.769   2.237   7.867
66173SOL    HW2  417  14.809   2.241   7.721
66174SOL     OW  418   7.881   7.890   7.171
66174SOL    HW1  419   7.880   7.932   7.257
66174SOL    HW2  420   7.960   7.835   7.172
66175SOL     OW  421  14.750   9.449   3.062
66175SOL    HW1  422  14.672   9.468   3.115
66175SOL    HW2  423  14.731   9.364   3.021
66176SOL     OW  424  13.466   8.096   6.750
66176SOL    HW1  425  13.403   8.168   6.743
66176SOL    HW2  426  13.495   8.097   6.841
66177SOL     OW  427   2.206   4.721   5.254
66177SOL    HW1  428   2.181   4.696   5.343
66177SOL    HW2  429   2.300   4.737   5.259
66178SOL     OW  430   9.913   4.820  11.806
66178SOL    HW1  431   9.904   4.836  11.900
66178SOL    HW2  432   9.921   4.908  11.768
66179SOL     OW  433  11.680  13.828   1.435
66179SOL    HW1  434  11.692  13.735   1.421
66179SOL    HW2  435  11.723  13.846   1.519
66180SOL     OW  436  14.845   4.852   8.673
66180SOL    HW1  437  14.759   4.881   8.643
66180SOL    HW2  438   0.032   4.889   8.609
66181SOL     OW  439   3.579   2.380  10.388
66181SOL    HW1  440   3.659   2.358  10.340
66181SOL    HW2  441   3.521   2.306  10.375
66182SOL     OW  442   4.149   1.889  14.448
66182SOL    HW1  443   4.059   1.866  14.424
66182SOL    HW2  444   4.195   1.895  14.364
66183SOL     OW  445   5.112   9.734  14.824
66183SOL    HW1  446   5.174   9.661  14.819
66183SOL    HW2  447   5.166   9.812  14.813
66184SOL     OW  448   9.040  11.072   0.491
66184SOL    HW1  449   9.063  11.164   0.498
66184SOL    HW2  450   9.027  11.057   0.397
66185SOL     OW  451  13.019   0.729  10.369
66185SOL    HW1  452  13.113   0.731  10.352
66185SOL    HW2  453  12.982   0.795  10.310
66186SOL     OW  454  14.789   1.330   8.070
66186SOL    HW1  455  14.778   1.297   8.159
66186SOL    HW2  456  14.795   1.425   8.080
66187SOL     OW  457   0.767   3.474   0.335
66187SOL    HW1  458   0.727   3.539   0.392
66187SOL    HW2  459   0.704   3.464   0.263
66188SOL     OW  460  13.149   8.365   5.578
66188SOL    HW1  461  13.086   8.421   5.625
66188SOL    HW2  462  13.136   8.278   5.616
66189SOL     OW  463   0.871   7.690  11.878
66189SOL    HW1  464   0.822   7.753  11.930
66189SOL    HW2  465   0.874   7.728  11.790
66190SOL     OW  466   5.523   7.590  14.400
66190SOL    HW1  467   5.597   7.533  14.382
66190SOL    HW2  468   5.533   7.662  14.337
66191SOL     OW  469   9.141  10.995   6.141
66191SOL    HW1  470   9.144  10.902   6.117
66191SOL    HW2  471   9.049  11.020   6.129
66192SOL     OW  472   6.422   0.198   9.078
66192SOL    HW1  473   6.365   0.194   9.001
66192SOL    HW2  474   6.417   0.289   9.107
66193SOL     OW  475   5.982   6.492   4.351
66193SOL    HW1  476   6.072   6.481   4.322
66193SOL    HW2  477   5.975   6.584   4.374
66194SOL     OW  478   7.548  12.831   1.037
66194SOL    HW1  479   7.456  12.817   1.059
66194SOL    HW2  480   7.564  12.922   1.062
66195SOL     OW  481  14.426  11.009   6.378
66195SOL    HW1  482  14.508  11.009   6.329
66195SOL    HW2  483  14.449  11.047   6.463
66196SOL     OW  484   6.377   8.647   4.509
66196SOL    HW1  485   6.469   8.669   4.498
66196SOL    HW2  486   6.341   8.720   4.559
66197SOL     OW  487   8.275   1.328   5.403
66197SOL    HW1  488   8.371   1.324   5.394
66197SOL    HW2  489   8.257   1.285   5.486
66198SOL     OW  490   5.553   5.030   2.001
66198SOL    HW1  491   5.526   5.110   2.046
66198SOL    HW2  492   5.617   4.990   2.061
66199SOL     OW  493  11.512   0.840  13.006
66199SOL    HW1  494  11.560   0.758  12.997
66199SOL    HW2  495  11.548   0.880  13.085
66200SOL     OW  496   9.391  11.577   4.150
66200SOL    HW1  497   9.307  11.609   4.116
66200SOL    HW2  498   9.404  11.624   4.232
66201SOL     OW  499  13.151  13.790   5.104
66201SOL    HW1  500  13.073  13.793   5.049
66201SOL    HW2  501  13.204  13.864   5.076
66202SOL     OW  502   3.496   4.203  12.213
66202SOL    HW1  503   3.511   4.177  12.304
66202SOL    HW2  504   3.576   4.248  12.187
66203SOL     OW  505  11.305   4.924   3.974
66203SOL    HW1  506  11.356   4.843   3.966
66203SOL    HW2  507  11.337   4.980   3.903
66204SOL     OW  508   6.270   3.546   2.749
66204SOL    HW1  509   6.362   3.518   2.753
66204SOL    HW2  510   6.226   3.477   2.699
66205SOL     OW  511   1.330   2.350   8.279
66205SOL    HW1  512   1.326   2.361   8.184
66205SOL    HW2  513   1.422   2.332   8.298
66206SOL     OW  514   6.230  12.108   2.898
66206SOL    HW1  515   6.208  12.197   2.872
66206SOL    HW2  516   6.292  12.119   2.971
66207SOL     OW  517  11.776   4.818  13.547
66207SOL    HW1  518  11.856   4.867  13.566
66207SOL    HW2  519  11.806   4.741  13.500
66208SOL     OW  520   0.378   2.918   9.721
66208SOL    HW1  521   0.328   2.850   9.765
66208SOL    HW2  522   0.460   2.875   9.696
66209SOL     OW  523   7.692   5.084  10.064
66209SOL    HW1  524   7.724   5.104  10.152
66209SOL    HW2  525   7.769   5.048  10.019
66210SOL     OW  526  14.312  14.296  10.606
66210SOL    HW1  527  14.373  14.259  10.542
66210SOL    HW2  528  14.230  14.250  10.589
66211SOL     OW  529  14.637   9.092   0.134
66211SOL    HW1  530  14.678   9.174   0.108
66211SOL    HW2  531  14.708   9.041   0.173
66212SOL     OW  532  11.389   6.889   6.199
66212SOL    HW1  533  11.457   6.950   6.227
66212SOL    HW2  534  11.376   6.909   6.106
66213SOL     OW  535   3.860   1.403   8.005
66213SOL    HW1  536   3.934   1.395   8.066
66213SOL    HW2  537   3.801   1.465   8.047
66214SOL     OW  538   6.956   2.984   4.987
66214SOL    HW1  539   6.902   2.910   4.959
66214SOL    HW2  540   7.046   2.952   4.980
66215SOL     OW  541  11.509   4.587   1.731
66215SOL    HW1  542  11.459   4.627   1.802
66215SOL    HW2  543  11.456   4.602   1.653
66216SOL     OW  544  12.023   1.350   3.776
66216SOL    HW1  545  12.033   1.302   3.694
66216SOL    HW2  546  12.111   1.381   3.797
66217SOL     OW  547   7.263   8.159  13.253
66217SOL    HW1  548   7.268   8.063  13.259
66217SOL    HW2  549   7.317   8.181  13.177
66218SOL     OW  550   5.779  10.053  12.326
66218SOL    HW1  551   5.848  10.096  12.376
66218SOL    HW2  552   5.734   9.998  12.390
66219SOL     OW  553   8.020  13.071   5.627
66219SOL    HW1  554   7.937  13.047   5.670
66219SOL    HW2  555   8.084  13.070   5.698
66220SOL     OW  556   8.584  12.396   1.517
66220SOL    HW1  557   8.557  12.419   1.428
66220SOL    HW2  558   8.501  12.390   1.565
66221SOL     OW  559   0.265  12.037   4.971
66221SOL    HW1  560   0.187  12.092   4.961
66221SOL    HW2  561   0.326  12.090   5.022
66222SOL     OW  562   8.478  13.754   5.561
66222SOL    HW1  563   8.507  13.803   5.638
66222SOL    HW2  564   8.557  13.737   5.510
66223SOL     OW  565   0.117   2.280   8.077
66223SOL    HW1  566   0.210   2.277   8.053
66223SOL    HW2  567   0.088   2.367   8.050
66224SOL     OW  568  13.916   6.052   2.847
66224SOL    HW1  569  13.827   6.050   2.883
66224SOL    HW2  570  13.913   5.990   2.774
66225SOL     OW  571   0.272   0.407   3.374
66225SOL    HW1  572   0.347   0.434   3.321
66225SOL    HW2  573   0.253   0.482   3.430
66226SOL     OW  574   4.628   7.307  14.082
66226SOL    HW1  575   4.683   7.365  14.135
66226SOL    HW2  576   4.685   7.233  14.061
66227SOL     OW  577   1.877   5.740   5.036
66227SOL    HW1  578   1.865   5.662   5.090
66227SOL    HW2  579   1.802   5.795   5.057
66228SOL     OW  580   4.829   4.288  14.199
66228SOL    HW1  581   4.804   4.321  14.112
66228SOL    HW2  582   4.879   4.360  14.238
66229SOL     OW  583   6.599   2.818   8.070
66229SOL    HW1  584   6.505   2.823   8.053
66229SOL    HW2  585   6.639   2.858   7.992
66230SOL     OW  586  14.568  13.678  14.048
66230SOL    HW1  587  14.522  13.595  14.059
66230SOL    HW2  588  14.557  13.723  14.132
66231SOL     OW  589   7.048   8.785  14.405
66231SOL    HW1  590   7.091   8.723  14.346
66231SOL    HW2  591   7.109   8.797  14.477
66232SOL     OW  592   9.563   0.861   0.591
66232SOL    HW1  593   9.609   0.835   0.671
66232SOL    HW2  594   9.501   0.790   0.576
66233SOL     OW  595   8.524  14.262   6.489
66233SOL    HW1  596   8.612  14.223   6.488
66233SOL    HW2  597   8.537  14.350   6.526
66234SOL     OW  598   8.160   6.709   9.868
66234SOL    HW1  599   8.067   6.728   9.854
66234SOL    HW2  600   8.164   6.614   9.874
66235SOL     OW  601  12.271  14.541   7.230
66235SOL    HW1  602  12.340  14.486   7.268
66235SOL    HW2  603  12.252  14.501   7.145
66236SOL     OW  604  11.739   5.072   6.602
66236SOL    HW1  605  11.781   5.140   6.550
66236SOL    HW2  606  11.658   5.112   6.634
66237SOL     OW  607  10.536   0.738   7.716
66237SOL    HW1  608  10.454   0.768   7.756
66237SOL    HW2  609  10.602   0.754   7.783
66238SOL     OW  610  13.294   7.522  12.121
66238SOL    HW1  611  13.262   7.434  12.139
66238SOL    HW2  612  13.217   7.571  12.094
66239SOL     OW  613  12.692   1.722   9.196
66239SOL    HW1  614  12.639   1.790   9.154
66239SOL    HW2  615  12.776   1.765   9.214
66240SOL     OW  616   6.427   9.264   9.511
66240SOL    HW1  617   6.356   9.251   9.449
66240SOL    HW2  618   6.384   9.288   9.593
66241SOL     OW  619  10.697   1.401   4.190
66241SOL    HW1  620  10.684   1.433   4.280
66241SOL    HW2  621  10.766   1.458   4.155
66242SOL     OW  622   7.896   4.075   7.427
66242SOL    HW1  623   7.879   3.984   7.404
66242SOL    HW2  624   7.989   4.076   7.451
66243SOL     OW  625  14.711   1.262   4.005
66243SOL    HW1  626  14.706   1.327   4.076
66243SOL    HW2  627  14.681   1.310   3.927
66244SOL     OW  628   8.060  13.556   1.594
66244SOL    HW1  629   8.034  13.465   1.602
66244SOL    HW2  630   7.984  13.605   1.626
66245SOL     OW  631   5.946   3.388  14.366
66245SOL    HW1  632   5.988   3.456  14.420
66245SOL    HW2  633   5.946   3.425  14.278
66246SOL     OW  634   5.128   6.554   8.200
66246SOL    HW1  635   5.208   6.567   8.251
66246SOL    HW2  636   5.108   6.461   8.209
66247SOL     OW  637   8.501   4.850  11.816
66247SOL    HW1  638   8.453   4.839  11.734
66247SOL    HW2  639   8.545   4.935  11.806
66248SOL     OW  640   1.952  13.777   1.751
66248SOL    HW1  641   1.985  13.785   1.661
66248SOL    HW2  642   2.010  13.712   1.791
66249SOL     OW  643   9.077   0.043  12.146
66249SOL    HW1  644   9.148  14.866  12.184
66249SOL    HW2  645   9.100   0.053  12.054
66250SOL     OW  646  10.595   9.516   1.495
66250SOL    HW1  647  10.548   9.595   1.469
66250SOL    HW2  648  10.614   9.528   1.588
66251SOL     OW  649  10.866  14.337   1.686
66251SOL    HW1  650  10.881  14.264   1.626
66251SOL    HW2  651  10.929  14.404   1.660
66252SOL     OW  652   2.511   8.610   8.615
66252SOL    HW1  653   2.542   8.582   8.529
66252SOL    HW2  654   2.434   8.664   8.597
66253SOL     OW  655   5.834   3.867   8.635
66253SOL    HW1  656   5.920   3.833   8.611
66253SOL    HW2  657   5.778   3.789   8.639
66254SOL     OW  658  14.537  13.496   9.228
66254SOL    HW1  659  14.625  13.493   9.189
66254SOL    HW2  660  14.551  13.530   9.316
66255SOL     OW  661  11.934  10.734   9.614
66255SOL    HW1  662  11.934  10.654   9.667
66255SOL    HW2  663  11.851  10.732   9.567
66256SOL     OW  664   6.805   8.691  14.481
66256SOL    HW1  665   6.886   8.737  14.457
66256SOL    HW2  666   6.832   8.600  14.494
66257SOL     OW  667   7.322   1.125   7.684
66257SOL    HW1  668   7.394   1.118   7.621
66257SOL    HW2  669   7.366   1.134   7.769
66258SOL     OW  670   8.891   1.031  13.460
66258SOL    HW1  671   8.958   1.039  13.528
66258SOL    HW2  672   8.933   0.982  13.389
66259SOL     OW  673   2.185   0.555   7.028
66259SOL    HW1  674   2.142   0.573   6.944
66259SOL    HW2  675   2.275   0.585   7.015
66260SOL     OW  676   5.275   6.273  12.042
66260SOL    HW1  677   5.337   6.346  12.050
66260SOL    HW2  678   5.242   6.279  11.952
66261SOL     OW  679   0.951  14.250   0.614
66261SOL    HW1  680   0.927  14.262   0.522
66261SOL    HW2  681   1.047  14.243   0.613
66262SOL     OW  682   0.914   5.768   8.284
66262SOL    HW1  683   0.990   5.713   8.301
66262SOL    HW2  684   0.852   5.711   8.239
66263SOL     OW  685   5.919   7.566   3.532
66263SOL    HW1  686   5.897   7.478   3.500
66263SOL    HW2  687   5.837   7.614   3.529
66264SOL     OW  688   9.847  10.252  11.608
66264SOL    HW1  689   9.923  10.291  11.652
66264SOL    HW2  690   9.859  10.158  11.618
66265SOL     OW  691   1.745  13.781  13.724
66265SOL    HW1  692   1.805  13.855  13.727
66265SOL    HW2  693   1.658  13.821  13.721
66266SOL     OW  694   4.524   7.517   6.775
66266SOL    HW1  695   4.450   7.546   6.721
66266SOL    HW2  696   4.595   7.578   6.753
66267SOL     OW  697   4.454   8.909   5.381
66267SOL    HW1  698   4.437   8.847   5.310
66267SOL    HW2  699   4.538   8.882   5.417
66268SOL     OW  700  14.754   1.211  11.793
66268SOL    HW1  701  14.789   1.233  11.879
66268SOL    HW2  702  14.718   1.293  11.760
66269SOL     OW  703  11.793   8.750   8.108
66269SOL    HW1  704  11.765   8.751   8.017
66269SOL    HW2  705  11.773   8.837   8.140
66270SOL     OW  706   0.067   0.869  13.825
66270SOL    HW1  707  14.858   0.913  13.809
66270SOL    HW2  708   0.065   0.792  13.768
66271SOL     OW  709  11.112   4.768   0.810
66271SOL    HW1  710  11.107   4.796   0.902
66271SOL    HW2  711  11.040   4.706   0.801
66272SOL     OW  712   0.517   8.154  10.880
66272SOL    HW1  713   0.601   8.125  10.917
66272SOL    HW2  714   0.462   8.173  10.956
66273SOL     OW  715   7.895   5.982   9.820
66273SOL    HW1  716   7.892   6.077   9.805
66273SOL    HW2  717   7.841   5.968   9.897
66274SOL     OW  718   2.635   6.995   5.910
66274SOL    HW1  719   2.551   6.998   5.956
66274SOL    HW2  720   2.613   6.971   5.820
66275SOL     OW  721   3.870  12.971  10.125
66275SOL    HW1  722   3.864  12.880  10.153
66275SOL    HW2  723   3.904  13.017  10.202
66276SOL     OW  724   8.604   6.155  14.640
66276SOL    HW1  725   8.587   6.126  14.730
66276SOL    HW2  726   8.524   6.200  14.614
66277SOL     OW  727  13.225   2.251   1.433
66277SOL    HW1  728  13.305   2.301   1.445
66277SOL    HW2  729  13.230   2.218   1.343
66278SOL     OW  730  13.995   8.390   3.831
66278SOL    HW1  731  13.924   8.361   3.775
66278SOL    HW2  732  13.953   8.415   3.913
66279SOL     OW  733   9.043  13.026   0.420
66279SOL    HW1  734   9.097  12.947   0.420
66279SOL    HW2  735   8.988  13.017   0.342
66280SOL     OW  736   2.236   2.917   6.995
66280SOL    HW1  737   2.200   2.828   6.998
66280SOL    HW2  738   2.244   2.942   7.087
66281SOL     OW  739   3.983   7.642   3.343
66281SOL    HW1  740   4.016   7.585   3.412
66281SOL    HW2  741   3.890   7.651   3.362
66282SOL     OW  742   2.153  12.846  12.759
66282SOL    HW1  743   2.101  12.900  12.818
66282SOL    HW2  744   2.175  12.769  12.811
66283SOL     OW  745   4.822   9.178  12.550
66283SOL    HW1  746   4.815   9.185  12.645
66283SOL    HW2  747   4.743   9.130  12.523
66284SOL     OW  748  10.198   1.029  12.576
66284SOL    HW1  749  10.241   0.966  12.518
66284SOL    HW2  750  10.112   0.991  12.593
66285SOL     OW  751   9.233   4.439  13.702
66285SOL    HW1  752   9.187   4.447  13.786
66285SOL    HW2  753   9.222   4.524  13.661
66286SOL     OW  754   5.797   0.159   6.303
66286SOL    HW1  755   5.816   0.238   6.353
66286SOL    HW2  756   5.817   0.087   6.364
66287SOL     OW  757   3.593  10.779  12.876
66287SOL    HW1  758   3.498  10.786  12.865
66287SOL    HW2  759   3.619  10.864  12.912
66288SOL     OW  760  13.269  10.798  13.740
66288SOL    HW1  761  13.304  10.877  13.700
66288SOL    HW2  762  13.347  10.748  13.767
66289SOL     OW  763  11.092  11.732  10.491
66289SOL    HW1  764  11.098  11.782  10.572
66289SOL    HW2  765  11.012  11.680  10.500
66290SOL     OW  766   4.407  11.464   5.868
66290SOL    HW1  767   4.413  11.536   5.805
66290SOL    HW2  768   4.496  11.454   5.901
66291SOL     OW  769  14.155  13.065  13.640
66291SOL    HW1  770  14.078  13.032  13.687
66291SOL    HW2  771  14.129  13.152  13.609
66292SOL     OW  772   4.285  12.101  13.594
66292SOL    HW1  773   4.275  12.193  13.571
66292SOL    HW2  774   4.252  12.094  13.683
66293SOL     OW  775   7.238   7.487   8.371
66293SOL    HW1  776   7.246   7.395   8.397
66293SOL    HW2  777   7.214   7.533   8.451
66294SOL     OW  778  11.187  12.937   6.621
66294SOL    HW1  779  11.169  12.948   6.527
66294SOL    HW2  780  11.212  13.024   6.651
66295SOL     OW  781   1.513   2.662   4.618
66295SOL    HW1  782   1.533   2.738   4.564
66295SOL    HW2  783   1.568   2.671   4.695
66296SOL     OW  784   0.105  11.596  11.691
66296SOL    HW1  785   0.124  11.668  11.631
66296SOL    HW2  786   0.013  11.576  11.678
66297SOL     OW  787   0.306   7.442   7.314
66297SOL    HW1  788   0.388   7.491   7.306
66297SOL    HW2  789   0.244   7.505   7.351
66298SOL     OW  790   1.822   3.545  11.610
66298SOL    HW1  791   1.853   3.630  11.640
66298SOL    HW2  792   1.729   3.543  11.633
66299SOL     OW  793   5.102   8.417   9.742
66299SOL    HW1  794   5.077   8.348   9.680
66299SOL    HW2  795   5.074   8.384   9.827
66300SOL     OW  796  10.732   4.626   5.222
66300SOL    HW1  797  10.664   4.561   5.206
66300SOL    HW2  798  10.798   4.608   5.155
66301SOL     OW  799   4.219  10.033   9.533
66301SOL    HW1  800   4.190  10.081   9.456
66301SOL    HW2  801   4.145   9.977   9.556
66302SOL     OW  802   9.761   2.270  14.138
66302SOL    HW1  803   9.818   2.313  14.202
66302SOL    HW2  804   9.725   2.342  14.086
66303SOL     OW  805   4.724   6.283  12.606
66303SOL    HW1  806   4.817   6.292  12.585
66303SOL    HW2  807   4.679   6.326  12.533
66304SOL     OW  808  11.489  14.015  12.801
66304SOL    HW1  809  11.498  13.996  12.708
66304SOL    HW2  810  11.433  13.945  12.834
66305SOL     OW  811   8.354  10.352  10.131
66305SOL    HW1  812   8.437  10.312  10.107
66305SOL    HW2  813   8.376  10.413  10.202
66306SOL     OW  814  14.296   1.419   2.182
66306SOL    HW1  815  14.217   1.398   2.232
66306SOL    HW2  816  14.290   1.513   2.166
66307SOL     OW  817  13.259  14.167   3.466
66307SOL    HW1  818  13.210  14.250   3.470
66307SOL    HW2  819  13.305  14.163   3.550
66308SOL     OW  820   1.275  12.335   3.688
66308SOL    HW1  821   1.354  12.325   3.634
66308SOL    HW2  822   1.244  12.424   3.668
66309SOL     OW  823  13.100   7.139   3.735
66309SOL    HW1  824  13.020   7.094   3.761
66309SOL    HW2  825  13.090   7.228   3.769
66310SOL     OW  826   8.790  13.467   8.809
66310SOL    HW1  827   8.783  13.558   8.839
66310SOL    HW2  828   8.703  13.445   8.777
66311SOL     OW  829   5.767   9.549   9.158
66311SOL    HW1  830   5.793   9.460   9.136
66311SOL    HW2  831   5.844   9.588   9.199
66312SOL     OW  832   0.490  14.317   1.114
66312SOL    HW1  833   0.434  14.362   1.178
66312SOL    HW2  834   0.429  14.267   1.060
66313SOL     OW  835   3.999  13.942   9.748
66313SOL    HW1  836   4.024  13.887   9.822
66313SOL    HW2  837   4.001  13.883   9.673
66314SOL     OW  838   2.877   4.769  11.090
66314SOL    HW1  839   2.836   4.682  11.091
66314SOL    HW2  840   2.932   4.768  11.012
66315SOL     OW  841  14.074   6.560   8.767
66315SOL    HW1  842  14.039   6.565   8.856
66315SOL    HW2  843  14.169   6.557   8.779
66316SOL     OW  844   3.963   7.604   6.487
66316SOL    HW1  845   4.003   7.682   6.447
66316SOL    HW2  846   3.888   7.585   6.430
66317SOL     OW  847   5.707   2.051   5.183
66317SOL    HW1  848   5.643   2.035   5.114
66317SOL    HW2  849   5.742   2.138   5.165
66318SOL     OW  850   6.580   7.829   3.751
66318SOL    HW1  851   6.591   7.816   3.657
66318SOL    HW2  852   6.489   7.805   3.769
66319SOL     OW  853   4.512   4.514   7.895
66319SOL    HW1  854   4.520   4.609   7.906
66319SOL    HW2  855   4.463   4.503   7.813
66320SOL     OW  856   2.659  11.691   4.124
66320SOL    HW1  857   2.728  11.663   4.064
66320SOL    HW2  858   2.640  11.612   4.176
66321SOL     OW  859   7.520  14.069  11.808
66321SOL    HW1  860   7.516  14.008  11.882
66321SOL    HW2  861   7.477  14.024  11.736
66322SOL     OW  862   9.270   1.667   9.627
66322SOL    HW1  863   9.195   1.724   9.608
66322SOL    HW2  864   9.283   1.675   9.721
66323SOL     OW  865   1.709  13.658   9.833
66323SOL    HW1  866   1.722  13.739   9.785
66323SOL    HW2  867   1.722  13.681   9.925
66324SOL     OW  868   6.084  12.540   7.873
66324SOL    HW1  869   6.016  12.477   7.899
66324SOL    HW2  870   6.088  12.601   7.947
66325SOL     OW  871   9.203   3.509   1.061
66325SOL    HW1  872   9.222   3.459   0.982
66325SOL    HW2  873   9.251   3.464   1.130
66326SOL     OW  874  11.453   4.590   1.022
66326SOL    HW1  875  11.477   4.679   1.046
66326SOL    HW2  876  11.492   4.576   0.936
66327SOL     OW  877  10.626   6.714   1.482
66327SOL    HW1  878  10.677   6.767   1.544
66327SOL    HW2  879  10.604   6.775   1.412
66328SOL     OW  880  13.526   8.483  10.127
66328SOL    HW1  881  13.555   8.410  10.072
66328SOL    HW2  882  13.440   8.455  10.160
66329SOL     OW  883   5.168   5.479   5.581
66329SOL    HW1  884   5.185   5.480   5.487
66329SOL    HW2  885   5.191   5.567   5.610
66330SOL     OW  886   9.162  11.162  12.138
66330SOL    HW1  887   9.189  11.070  12.144
66330SOL    HW2  888   9.146  11.187  12.229
66331SOL     OW  889  14.141   6.971  11.180
66331SOL    HW1  890  14.053   7.009  11.183
66331SOL    HW2  891  14.133   6.889  11.229
66332SOL     OW  892  11.406   2.364  13.769
66332SOL    HW1  893  11.374   2.285  13.813
66332SOL    HW2  894  11.330   2.423  13.767
66333SOL     OW  895   2.601   9.591  13.015
66333SOL    HW1  896   2.606   9.498  12.993
66333SOL    HW2  897   2.690   9.617  13.037
66334SOL     OW  898  12.591   9.420   6.697
66334SOL    HW1  899  12.611   9.454   6.610
66334SOL    HW2  900  12.501   9.387   6.690
66335SOL     OW  901   1.661   8.074   4.080
66335SOL    HW1  902   1.580   8.101   4.123
66335SOL    HW2  903   1.639   7.990   4.038
66336SOL     OW  904   9.996   8.264  12.857
66336SOL    HW1  905  10.031   8.188  12.904
66336SOL    HW2  906   9.974   8.327  12.926
66337SOL     OW  907   2.310  11.570  12.419
66337SOL    HW1  908   2.281  11.497  12.365
66337SOL    HW2  909   2.387  11.536  12.465
66338SOL     OW  910   4.303   1.368  13.795
66338SOL    HW1  911   4.263   1.449  13.761
66338SOL    HW2  912   4.331   1.391  13.883
66339SOL     OW  913   9.183   7.214   1.910
66339SOL    HW1  914   9.218   7.159   1.980
66339SOL    HW2  915   9.243   7.288   1.905
66340SOL     OW  916  10.976   0.936   2.177
66340SOL    HW1  917  11.043   0.976   2.232
66340SOL    HW2  918  11.018   0.858   2.140
66341SOL     OW  919   0.760   9.715   5.988
66341SOL    HW1  920   0.827   9.659   6.028
66341SOL    HW2  921   0.681   9.696   6.039
66342SOL     OW  922   0.242   0.483   1.660
66342SOL    HW1  923   0.263   0.546   1.591
66342SOL    HW2  924   0.190   0.533   1.723
66343SOL     OW  925  11.289  11.989   6.161
66343SOL    HW1  926  11.212  12.010   6.107
66343SOL    HW2  927  11.309  12.071   6.206
66344SOL     OW  928   8.754  12.628  14.146
66344SOL    HW1  929   8.840  12.657  14.175
66344SOL    HW2  930   8.772  12.576  14.068
66345SOL     OW  931   8.379  13.631  13.422
66345SOL    HW1  932   8.344  13.580  13.350
66345SOL    HW2  933   8.320  13.613  13.495
66346SOL     OW  934   8.146   2.834  12.660
66346SOL    HW1  935   8.074   2.896  12.670
66346SOL    HW2  936   8.155   2.794  12.746
66347SOL     OW  937  10.178   5.873  14.791
66347SOL    HW1  938  10.256   5.832  14.753
66347SOL    HW2  939  10.157   5.943  14.730
66348SOL     OW  940   3.699   7.358   9.914
66348SOL    HW1  941   3.696   7.267   9.944
66348SOL    HW2  942   3.676   7.354   9.821
66349SOL     OW  943   2.666   9.113   3.689
66349SOL    HW1  944   2.669   9.148   3.779
66349SOL    HW2  945   2.646   9.020   3.700
66350SOL     OW  946   3.857   0.124  13.088
66350SOL    HW1  947   3.907   0.089  13.015
66350SOL    HW2  948   3.909   0.198  13.120
66351SOL     OW  949   3.830  13.332   2.787
66351SOL    HW1  950   3.773  13.392   2.740
66351SOL    HW2  951   3.897  13.306   2.723
66352SOL     OW  952  13.497   1.937   0.641
66352SOL    HW1  953  13.581   1.926   0.687
66352SOL    HW2  954  13.477   2.030   0.650
66353SOL     OW  955   7.812   3.167   0.901
66353SOL    HW1  956   7.802   3.108   0.826
66353SOL    HW2  957   7.898   3.208   0.887
66354SOL     OW  958  14.142   9.298   9.819
66354SOL    HW1  959  14.104   9.343   9.744
66354SOL    HW2  960  14.210   9.242   9.782
66355SOL     OW  961   0.705  10.187   4.337
66355SOL    HW1  962   0.614  10.212   4.353
66355SOL    HW2  963   0.751  10.214   4.416
66356SOL     OW  964  13.236  10.089   8.616
66356SOL    HW1  965  13.286  10.011   8.643
66356SOL    HW2  966  13.207  10.069   8.528
66357SOL     OW  967   2.053   3.879  11.246
66357SOL    HW1  968   2.073   3.885  11.340
66357SOL    HW2  969   1.979   3.819  11.241
66358SOL     OW  970   2.046   6.043  12.782
66358SOL    HW1  971   2.083   5.984  12.847
66358SOL    HW2  972   2.082   6.012  12.699
66359SOL     OW  973  10.800   6.721   2.275
66359SOL    HW1  974  10.752   6.732   2.357
66359SOL    HW2  975  10.885   6.763   2.291
66360SOL     OW  976  12.177  11.913   7.530
66360SOL    HW1  977  12.151  11.822   7.522
66360SOL    HW2  978  12.145  11.940   7.616
66361SOL     OW  979   0.087   9.422   1.727
66361SOL    HW1  980   0.000   9.460   1.712
66361SOL    HW2  981   0.139   9.494   1.762
66362SOL     OW  982  11.897  14.320  11.968
66362SOL    HW1  983  11.803  14.316  11.984
66362SOL    HW2  984  11.926  14.229  11.977
66363SOL     OW  985   0.487   1.264  11.693
66363SOL    HW1  986   0.518   1.338  11.641
66363SOL    HW2  987   0.405   1.238  11.652
66364SOL     OW  988   2.058  13.559  14.478
66364SOL    HW1  989   2.057  13.573  14.383
66364SOL    HW2  990   2.127  13.495  14.492
66365SOL     OW  991  13.555   7.371   9.514
66365SOL    HW1  992  13.619   7.301   9.522
66365SOL    HW2  993  13.554   7.392   9.420
66366SOL     OW  994   1.107  11.278   6.302
66366SOL    HW1  995   1.181  11.323   6.343
66366SOL    HW2  996   1.107  11.309   6.211
66367SOL     OW  997   7.883  10.357  12.882
66367SOL    HW1  998   7.946  10.313  12.939
66367SOL    HW2  999   7.868  10.295  12.811
66368SOL     OW 1000  13.847  14.124   7.549
66368SOL    HW1 1001  13.894  14.049   7.587
66368SOL    HW2 1002  13.854  14.193   7.615
66369SOL     OW 1003  13.122   6.865  11.440
66369SOL    HW1 1004  13.051   6.824  11.488
66369SOL    HW2 1005  13.100   6.852  11.348
66370SOL     OW 1006  10.716   3.902   3.539
66370SOL    HW1 1007  10.760   3.890   3.624
66370SOL    HW2 1008  10.737   3.992   3.514
66371SOL     OW 1009  14.300   0.546   5.883
66371SOL    HW1 1010  14.353   0.514   5.810
66371SOL    HW2 1011  14.364   0.577   5.947
66372SOL     OW 1012   6.006  12.097   3.608
66372SOL    HW1 1013   5.976  12.058   3.526
66372SOL    HW2 1014   6.033  12.022   3.661
66373SOL     OW 1015   9.748  14.703   4.416
66373SOL    HW1 1016   9.770  14.642   4.345
66373SOL    HW2 1017   9.792  14.785   4.392
66374SOL     OW 1018  11.343   3.060  14.285
66374SOL    HW1 1019  11.417   3.004  14.260
66374SOL    HW2 1020  11.266   3.005  14.269
66375SOL     OW 1021   5.040   5.052  11.319
66375SOL    HW1 1022   5.055   5.013  11.233
66375SOL    HW2 1023   4.947   5.036  11.336
66376SOL     OW 1024   3.480   9.713   5.132
66376SOL    HW1 1025   3.460   9.666   5.213
66376SOL    HW2 1026   3.531   9.651   5.080
66377SOL     OW 1027   1.249   4.027   9.955
66377SOL    HW1 1028   1.207   4.065  10.032
66377SOL    HW2 1029   1.222   3.935   9.956
66378SOL     OW 1030   1.608  12.917   5.591
66378SOL    HW1 1031   1.625  12.991   5.649
66378SOL    HW2 1032   1.635  12.948   5.504
66379SOL     OW 1033   3.649  10.772   0.855
66379SOL    HW1 1034   3.620  10.761   0.945
66379SOL    HW2 1035   3.732  10.724   0.851
66380SOL     OW 1036   9.581   2.693   0.746
66380SOL    HW1 1037   9.620   2.709   0.833
66380SOL    HW2 1038   9.512   2.759   0.738
66381SOL     OW 1039  14.830   3.699   8.730
66381SOL    HW1 1040  14.855   3.735   8.645
66381SOL    HW2 1041  14.835   3.773   8.790
66382SOL     OW 1042  11.857   6.966   3.909
66382SOL    HW1 1043  11.903   6.891   3.872
66382SOL    HW2 1044  11.836   7.022   3.834
66383SOL     OW 1045   8.000   6.176   6.569
66383SOL    HW1 1046   8.014   6.183   6.475
66383SOL    HW2 1047   8.036   6.090   6.592
66384SOL     OW 1048  13.741   8.476  11.652
66384SOL    HW1 1049  13.789   8.530  11.590
66384SOL    HW2 1050  13.662   8.526  11.672
66385SOL     OW 1051   5.095   7.678   7.935
66385SOL    HW1 1052   5.121   7.770   7.938
66385SOL    HW2 1053   5.170   7.634   7.895
66386SOL     OW 1054   5.260   5.572  14.475
66386SOL    HW1 1055   5.239   5.557  14.383
66386SOL    HW2 1056   5.230   5.494  14.520
66387SOL     OW 1057   1.899   3.452  13.522
66387SOL    HW1 1058   1.941   3.469  13.437
66387SOL    HW2 1059   1.970   3.417  13.576
66388SOL     OW 1060   2.322  13.592  11.147
66388SOL    HW1 1061   2.314  13.681  11.181
66388SOL    HW2 1062   2.393  13.596  11.083
66389SOL     OW 1063  14.870   6.598  14.426
66389SOL    HW1 1064   0.028   6.511  14.447
66389SOL    HW2 1065   0.065   6.658  14.453
66390SOL     OW 1066   2.037   8.039   2.501
66390SOL    HW1 1067   2.093   7.962   2.504
66390SOL    HW2 1068   2.068   8.095   2.572
66391SOL     OW 1069  10.371   1.092   7.877
66391SOL    HW1 1070  10.378   1.116   7.784
66391SOL    HW2 1071  10.459   1.106   7.912
66392SOL     OW 1072  10.986   3.098   8.536
66392SOL    HW1 1073  10.971   3.007   8.512
66392SOL    HW2 1074  10.901   3.128   8.570
66393SOL     OW 1075   8.125  12.819   6.625
66393SOL    HW1 1076   8.045  12.777   6.592
66393SOL    HW2 1077   8.139  12.892   6.565
66394SOL     OW 1078  10.095   1.082  11.098
66394SOL    HW1 1079  10.102   1.118  11.010
66394SOL    HW2 1080  10.052   0.997  11.087
66395SOL     OW 1081  14.570   2.279   3.102
66395SOL    HW1 1082  14.664   2.265   3.097
66395SOL    HW2 1083  14.540   2.218   3.169
66396SOL     OW 1084   0.505   1.233   9.986
66396SOL    HW1 1085   0.426   1.280   9.959
66396SOL    HW2 1086   0.533   1.186   9.908
66397SOL     OW 1087   8.700   4.548  12.578
66397SOL    HW1 1088   8.732   4.632  12.545
66397SOL    HW2 1089   8.654   4.570  12.659
66398SOL     OW 1090  12.965   4.110  13.365
66398SOL    HW1 1091  12.913   4.177  13.410
66398SOL    HW2 1092  12.904   4.037  13.353
66399SOL     OW 1093  11.665   0.258   0.616
66399SOL    HW1 1094  11.673   0.165   0.599
66399SOL    HW2 1095  11.755   0.291   0.611
66400SOL     OW 1096   0.837  11.179   1.774
66400SOL    HW1 1097   0.862  11.160   1.864
66400SOL    HW2 1098   0.814  11.094   1.737
66401SOL     OW 1099   1.616  13.508   0.473
66401SOL    HW1 1100   1.688  13.492   0.533
66401SOL    HW2 1101   1.548  13.547   0.527
66402SOL     OW 1102   9.234   0.570  14.381
66402SOL    HW1 1103   9.226   0.665  14.372
66402SOL    HW2 1104   9.148   0.541  14.412
66403SOL     OW 1105   9.874   0.481  13.343
66403SOL    HW1 1106   9.949   0.515  13.392
66403SOL    HW2 1107   9.834   0.416  13.401
66404SOL     OW 1108   9.135   1.242  12.052
66404SOL    HW1 1109   9.210   1.286  12.091
66404SOL    HW2 1110   9.166   1.212  11.967
66405SOL     OW 1111   9.727   4.483  13.596
66405SOL    HW1 1112   9.686   4.537  13.528
66405SOL    HW2 1113   9.705   4.528  13.678
66406SOL     OW 1114   6.993  14.738   4.666
66406SOL    HW1 1115   7.006  14.830   4.689
66406SOL    HW2 1116   7.024  14.732   4.576
66407SOL     OW 1117   1.251   3.002  11.392
66407SOL    HW1 1118   1.159   2.999  11.419
66407SOL    HW2 1119   1.249   2.982  11.299
66408SOL     OW 1120   2.631   6.164   9.365
66408SOL    HW1 1121   2.676   6.097   9.313
66408SOL    HW2 1122   2.640   6.244   9.314
66409SOL     OW 1123  12.497  11.525   9.791
66409SOL    HW1 1124  12.485  11.504   9.883
66409SOL    HW2 1125  12.592  11.533   9.780
66410SOL     OW 1126  10.536   2.203  12.385
66410SOL    HW1 1127  10.629   2.189  12.365
66410SOL    HW2 1128  10.491   2.136  12.334
66411SOL     OW 1129  10.011  12.792   4.949
66411SOL    HW1 1130  10.005  12.732   5.023
66411SOL    HW2 1131  10.034  12.877   4.988
66412SOL     OW 1132   1.876  10.966   0.458
66412SOL    HW1 1133   1.870  10.975   0.553
66412SOL    HW2 1134   1.800  10.912   0.435
66413SOL     OW 1135   4.297   5.370  12.901
66413SOL    HW1 1136   4.212   5.411  12.919
66413SOL    HW2 1137   4.302   5.366  12.806
66414SOL     OW 1138   1.581  13.767  12.941
66414SOL    HW1 1139   1.538  13.776  12.857
66414SOL    HW2 1140   1.654  13.708  12.925
66415SOL     OW 1141   7.927  12.499   4.314
66415SOL    HW1 1142   7.889  12.440   4.249
66415SOL    HW2 1143   7.851  12.543   4.353
66416SOL     OW 1144   0.620   5.472   7.034
66416SOL    HW1 1145   0.617   5.485   7.128
66416SOL    HW2 1146   0.530   5.453   7.008
66417SOL     OW 1147   8.291   3.229   4.208
66417SOL    HW1 1148   8.317   3.311   4.165
66417SOL    HW2 1149   8.267   3.171   4.136
66418SOL     OW 1150  14.464   6.761  10.754
66418SOL    HW1 1151  14.452   6.804  10.669
66418SOL    HW2 1152  14.532   6.813  10.797
66419SOL     OW 1153   4.380   2.159   5.423
66419SOL    HW1 1154   4.387   2.101   5.347
66419SOL    HW2 1155   4.345   2.104   5.493
66420SOL     OW 1156  14.068  10.349   6.987
66420SOL    HW1 1157  13.989  10.298   7.009
66420SOL    HW2 1158  14.039  10.440   6.991
66421SOL     OW 1159   8.680   8.992   9.595
66421SOL    HW1 1160   8.698   8.980   9.502
66421SOL    HW2 1161   8.695   8.905   9.633
66422SOL     OW 1162   8.125   8.780   8.526
66422SOL    HW1 1163   8.092   8.868   8.507
66422SOL    HW2 1164   8.065   8.722   8.479
66423SOL     OW 1165   3.848  14.115  10.707
66423SOL    HW1 1166   3.823  14.118  10.800
66423SOL    HW2 1167   3.765  14.118  10.660
66424SOL     OW 1168   3.577   5.320  11.609
66424SOL    HW1 1169   3.543   5.287  11.526
66424SOL    HW2 1170   3.577   5.245  11.668
66425SOL     OW 1171   6.142   7.571   6.360
66425SOL    HW1 1172   6.147   7.659   6.395
66425SOL    HW2 1173   6.048   7.550   6.361
66426SOL     OW 1174   7.519   0.565  13.467
66426SOL    HW1 1175   7.508   0.470  13.475
66426SOL    HW2 1176   7.502   0.599  13.555
66427SOL     OW 1177   1.748  12.924   4.174
66427SOL    HW1 1178   1.767  12.962   4.087
66427SOL    HW2 1179   1.724  12.834   4.156
66428SOL     OW 1180   1.492   1.230   0.299
66428SOL    HW1 1181   1.420   1.167   0.292
66428SOL    HW2 1182   1.484   1.283   0.220
66429SOL     OW 1183   1.015  11.504  13.807
66429SOL    HW1 1184   1.096  11.522  13.855
66429SOL    HW2 1185   0.975  11.590  13.796
66430SOL     OW 1186   8.643   3.640   0.648
66430SOL    HW1 1187   8.556   3.628   0.686
66430SOL    HW2 1188   8.629   3.637   0.553
66431SOL     OW 1189  11.147   0.231   5.589
66431SOL    HW1 1190  11.193   0.155   5.552
66431SOL    HW2 1191  11.216   0.281   5.633
66432SOL     OW 1192   5.100   7.711   0.818
66432SOL    HW1 1193   5.109   7.802   0.789
66432SOL    HW2 1194   5.083   7.662   0.737
66433SOL     OW 1195   6.380  11.664   7.125
66433SOL    HW1 1196   6.356  11.596   7.063
66433SOL    HW2 1197   6.310  11.662   7.191
66434SOL     OW 1198  13.113   0.570   5.092
66434SOL    HW1 1199  13.068   0.639   5.044
66434SOL    HW2 1200  13.087   0.489   5.048
66435SOL     OW 1201  12.972   9.238  13.869
66435SOL    HW1 1202  12.925   9.179  13.928
66435SOL    HW2 1203  12.946   9.211  13.781
66436SOL     OW 1204   6.948   0.777   7.632
66436SOL    HW1 1205   6.974   0.763   7.541
66436SOL    HW2 1206   6.996   0.711   7.682
66437SOL     OW 1207  11.438  11.701   3.594
66437SOL    HW1 1208  11.501  11.714   3.665
66437SOL    HW2 1209  11.353  11.702   3.636
66438SOL     OW 1210   6.806  10.872  10.422
66438SOL    HW1 1211   6.722  10.831  10.401
66438SOL    HW2 1212   6.788  10.966  10.418
66439SOL     OW 1213  12.375  11.607  13.534
66439SOL    HW1 1214  12.451  11.642  13.488
66439SOL    HW2 1215  12.401  11.519  13.560
66440SOL     OW 1216   9.699   6.377   1.936
66440SOL    HW1 1217   9.614   6.408   1.905
66440SOL    HW2 1218   9.761   6.445   1.907
66441SOL     OW 1219   3.154   9.782   2.466
66441SOL    HW1 1220   3.116   9.864   2.499
66441SOL    HW2 1221   3.150   9.723   2.541
66442SOL     OW 1222   7.671   5.979   0.791
66442SOL    HW1 1223   7.599   6.005   0.848
66442SOL    HW2 1224   7.711   6.061   0.764
66443SOL     OW 1225   0.001  14.161   8.604
66443SOL    HW1 1226  14.815  14.229   8.576
66443SOL    HW2 1227  14.830  14.114   8.673
66444SOL     OW 1228  13.986  13.232   0.799
66444SOL    HW1 1229  14.074  13.197   0.812
66444SOL    HW2 1230  13.967  13.280   0.879
66445SOL     OW 1231   5.615   5.797   0.374
66445SOL    HW1 1232   5.576   5.729   0.429
66445SOL    HW2 1233   5.547   5.864   0.367
66446SOL     OW 1234   5.220   3.612   9.438
66446SOL    HW1 1235   5.296   3.566   9.474
66446SOL    HW2 1236   5.163   3.542   9.406
66447SOL     OW 1237  11.900   3.062   8.669
66447SOL    HW1 1238  11.973   3.012   8.634
66447SOL    HW2 1239  11.930   3.153   8.667
66448SOL     OW 1240   3.579   4.190   7.294
66448SOL    HW1 1241   3.665   4.212   7.331
66448SOL    HW2 1242   3.595   4.183   7.200
66449SOL     OW 1243   0.116   8.787   0.194
66449SOL    HW1 1244   0.051   8.839   0.242
66449SOL    HW2 1245   0.133   8.712   0.252
66450SOL     OW 1246   6.730  10.851   0.547
66450SOL    HW1 1247   6.684  10.779   0.504
66450SOL    HW2 1248   6.670  10.882   0.614
66451SOL     OW 1249   9.631   5.808  12.520
66451SOL    HW1 1250   9.572   5.800  12.595
66451SOL    HW2 1251   9.591   5.874  12.465
66452SOL     OW 1252   8.112   1.352   1.578
66452SOL    HW1 1253   8.072   1.383   1.497
66452SOL    HW2 1254   8.061   1.275   1.602
66453SOL     OW 1255   8.714  10.167   4.462
66453SOL    HW1 1256   8.662  10.191   4.538
66453SOL    HW2 1257   8.737  10.075   4.476
66454SOL     OW 1258   3.772  11.496   2.465
66454SOL    HW1 1259   3.784  11.573   2.410
66454SOL    HW2 1260   3.780  11.528   2.554
66455SOL     OW 1261   3.448   6.943   8.336
66455SOL    HW1 1262   3.355   6.924   8.349
66455SOL    HW2 1263   3.451   7.037   8.319
66456SOL     OW 1264  11.518   8.407  12.283
66456SOL    HW1 1265  11.547   8.317  12.264
66456SOL    HW2 1266  11.589   8.462  12.250
66457SOL     OW 1267   4.501   3.525  11.184
66457SOL    HW1 1268   4.480   3.527  11.277
66457SOL    HW2 1269   4.439   3.463  11.146
66458SOL     OW 1270   6.661  13.373   9.812
66458SOL    HW1 1271   6.614  13.399   9.891
66458SOL    HW2 1272   6.716  13.448   9.791
66459SOL     OW 1273   6.121   7.151   4.595
66459SOL    HW1 1274   6.171   7.231   4.611
66459SOL    HW2 1275   6.030   7.181   4.586
66460SOL     OW 1276   1.178   0.512  10.966
66460SOL    HW1 1277   1.098   0.563  10.974
66460SOL    HW2 1278   1.148   0.421  10.954
66461SOL     OW 1279   7.304   1.829  13.561
66461SOL    HW1 1280   7.300   1.842  13.656
66461SOL    HW2 1281   7.375   1.886  13.531
66462SOL     OW 1282   1.548  12.421  13.019
66462SOL    HW1 1283   1.623  12.402  12.963
66462SOL    HW2 1284   1.503  12.338  13.029
66463SOL     OW 1285   5.681   0.368   5.409
66463SOL    HW1 1286   5.681   0.404   5.320
66463SOL    HW2 1287   5.588   0.368   5.434
66464SOL     OW 1288  14.778   8.006   3.256
66464SOL    HW1 1289  14.853   8.045   3.211
66464SOL    HW2 1290  14.802   7.914   3.266
66465SOL     OW 1291   5.487  13.302   0.378
66465SOL    HW1 1292   5.411  13.252   0.408
66465SOL    HW2 1293   5.542  13.311   0.456
66466SOL     OW 1294   0.514   1.826   6.373
66466SOL    HW1 1295   0.574   1.778   6.317
66466SOL    HW2 1296   0.568   1.862   6.443
66467SOL     OW 1297   0.886   9.481   1.750
66467SOL    HW1 1298   0.862   9.488   1.842
66467SOL    HW2 1299   0.954   9.547   1.737
66468SOL     OW 1300   4.585  10.384  12.514
66468SOL    HW1 1301   4.509  10.416  12.466
66468SOL    HW2 1302   4.635  10.462  12.536
66469SOL     OW 1303   3.296   2.652  14.343
66469SOL    HW1 1304   3.310   2.736  14.386
66469SOL    HW2 1305   3.227   2.610  14.393
66470SOL     OW 1306   9.019   2.352   0.110
66470SOL    HW1 1307   9.089   2.300   0.151
66470SOL    HW2 1308   8.955   2.363   0.180
66471SOL     OW 1309  13.734   4.119  12.178
66471SOL    HW1 1310  13.724   4.033  12.218
66471SOL    HW2 1311  13.649   4.137  12.137
66472SOL     OW 1312   7.150  14.132   2.493
66472SOL    HW1 1313   7.088  14.061   2.474
66472SOL    HW2 1314   7.174  14.167   2.406
66473SOL     OW 1315   7.552  14.043  14.486
66473SOL    HW1 1316   7.637  14.040  14.530
66473SOL    HW2 1317   7.514  14.126  14.513
66474SOL     OW 1318  10.731   5.913   8.906
66474SOL    HW1 1319  10.736   5.988   8.848
66474SOL    HW2 1320  10.703   5.841   8.850
66475SOL     OW 1321   4.111   2.178   6.800
66475SOL    HW1 1322   4.019   2.206   6.801
66475SOL    HW2 1323   4.154   2.235   6.864
66476SOL     OW 1324   1.852  14.142   0.249
66476SOL    HW1 1325   1.776  14.181   0.291
66476SOL    HW2 1326   1.816  14.071   0.195
66477SOL     OW 1327  13.650   1.909  14.229
66477SOL    HW1 1328  13.596   1.984  14.254
66477SOL    HW2 1329  13.704   1.892  14.305
66478SOL     OW 1330  14.384   5.136   8.389
66478SOL    HW1 1331  14.386   5.216   8.441
66478SOL    HW2 1332  14.378   5.066   8.454
66479SOL     OW 1333   4.275   4.296   4.507
66479SOL    HW1 1334   4.286   4.225   4.571
66479SOL    HW2 1335   4.331   4.271   4.434
66480SOL     OW 1336   4.536   2.977   8.216
66480SOL    HW1 1337   4.487   3.033   8.155
66480SOL    HW2 1338   4.611   3.031   8.243
66481SOL     OW 1339  11.678   7.106   1.870
66481SOL    HW1 1340  11.739   7.055   1.817
66481SOL    HW2 1341  11.733   7.157   1.929
66482SOL     OW 1342   4.891   8.624  13.765
66482SOL    HW1 1343   4.849   8.705  13.736
66482SOL    HW2 1344   4.820   8.572  13.803
66483SOL     OW 1345  10.517   2.370  14.807
66483SOL    HW1 1346  10.492   2.349   0.022
66483SOL    HW2 1347  10.435   2.372  14.758
66484SOL     OW 1348  14.783  11.695   3.335
66484SOL    HW1 1349  14.792  11.754   3.410
66484SOL    HW2 1350  14.690  11.698   3.314
66485SOL     OW 1351   3.911   4.853   0.906
66485SOL    HW1 1352   3.966   4.777   0.891
66485SOL    HW2 1353   3.880   4.879   0.819
66486SOL     OW 1354   0.092   8.237  14.362
66486SOL    HW1 1355   0.099   8.282  14.447
66486SOL    HW2 1356   0.183   8.225  14.334
66487SOL     OW 1357  14.321  13.091  13.856
66487SOL    HW1 1358  14.398  13.035  13.846
66487SOL    HW2 1359  14.275  13.082  13.773
66488SOL     OW 1360  12.170  12.664   0.458
66488SOL    HW1 1361  12.157  12.593   0.396
66488SOL    HW2 1362  12.162  12.744   0.406
66489SOL     OW 1363  10.634  14.281  10.484
66489SOL    HW1 1364  10.573  14.210  10.505
66489SOL    HW2 1365  10.614  14.350  10.548
66490SOL     OW 1366   7.806  14.156   3.318
66490SOL    HW1 1367   7.818  14.217   3.245
66490SOL    HW2 1368   7.811  14.211   3.396
66491SOL     OW 1369   8.765  13.244   7.419
66491SOL    HW1 1370   8.795  13.179   7.483
66491SOL    HW2 1371   8.823  13.320   7.433
66492SOL     OW 1372  14.865   7.243  13.815
66492SOL    HW1 1373  14.856   7.271  13.724
66492SOL    HW2 1374  14.837   7.319  13.867
66493SOL     OW 1375   2.996   5.102   6.050
66493SOL    HW1 1376   3.059   5.044   6.006
66493SOL    HW2 1377   2.926   5.114   5.986
66494SOL     OW 1378  11.466   7.353  11.540
66494SOL    HW1 1379  11.392   7.296  11.520
66494SOL    HW2 1380  11.439   7.399  11.620
66495SOL     OW 1381  12.294  14.049   9.407
66495SOL    HW1 1382  12.263  14.020   9.493
66495SOL    HW2 1383  12.300  14.144   9.414
66496SOL     OW 1384   3.121   8.937   5.544
66496SOL    HW1 1385   3.163   8.949   5.629
66496SOL    HW2 1386   3.085   9.023   5.522
66497SOL     OW 1387   3.632  12.888   1.395
66497SOL    HW1 1388   3.664  12.878   1.306
66497SOL    HW2 1389   3.564  12.821   1.404
66498SOL     OW 1390   6.617  10.124  13.195
66498SOL    HW1 1391   6.704  10.088  13.210
66498SOL    HW2 1392   6.572  10.059  13.142
66499SOL     OW 1393  13.777   5.505   9.494
66499SOL    HW1 1394  13.871   5.513   9.481
66499SOL    HW2 1395  13.758   5.562   9.568
66500SOL     OW 1396  14.585   1.451  12.027
66500SOL    HW1 1397  14.523   1.377  12.030
66500SOL    HW2 1398  14.530   1.529  12.026
66501SOL     OW 1399  12.922   1.799   6.378
66501SOL    HW1 1400  12.911   1.881   6.427
66501SOL    HW2 1401  12.927   1.826   6.287
66502SOL     OW 1402   7.397   6.170  10.174
66502SOL    HW1 1403   7.430   6.080  10.185
66502SOL    HW2 1404   7.465   6.225  10.213
66503SOL     OW 1405   2.848   7.594   7.531
66503SOL    HW1 1406   2.761   7.628   7.512
66503SOL    HW2 1407   2.897   7.669   7.563
66504SOL     OW 1408  11.399  12.869   4.940
66504SOL    HW1 1409  11.369  12.863   5.030
66504SOL    HW2 1410  11.489  12.836   4.942
66505SOL     OW 1411   1.621  10.228   1.335
66505SOL    HW1 1412   1.715  10.210   1.332
66505SOL    HW2 1413   1.598  10.217   1.427
66506SOL     OW 1414   0.746   7.776   4.361
66506SOL    HW1 1415   0.776   7.823   4.439
66506SOL    HW2 1416   0.776   7.686   4.374
66507SOL     OW 1417   5.053  14.153   2.394
66507SOL    HW1 1418   5.026  14.077   2.343
66507SOL    HW2 1419   5.040  14.228   2.335
66508SOL     OW 1420   6.910  11.404  13.770
66508SOL    HW1 1421   6.859  11.329  13.803
66508SOL    HW2 1422   6.976  11.364  13.714
66509SOL     OW 1423   4.529   6.350  11.007
66509SOL    HW1 1424   4.512   6.424  11.065
66509SOL    HW2 1425   4.500   6.273  11.057
66510SOL     OW 1426  10.323  10.714  12.538
66510SOL    HW1 1427  10.235  10.737  12.509
66510SOL    HW2 1428  10.375  10.712  12.458
66511SOL     OW 1429   4.998   5.375   1.473
66511SOL    HW1 1430   5.028   5.311   1.408
66511SOL    HW2 1431   4.945   5.437   1.423
66512SOL     OW 1432   6.765   2.892   7.518
66512SOL    HW1 1433   6.824   2.844   7.576
66512SOL    HW2 1434   6.766   2.981   7.551
66513SOL     OW 1435   2.180  12.510   8.502
66513SOL    HW1 1436   2.181  12.511   8.406
66513SOL    HW2 1437   2.186  12.418   8.525
66514SOL     OW 1438  14.498  14.346  12.108
66514SOL    HW1 1439  14.553  14.270  12.090
66514SOL    HW2 1440  14.539  14.389  12.183
66515SOL     OW 1441   1.588  10.934   5.009
66515SOL    HW1 1442   1.645  10.865   4.976
66515SOL    HW2 1443   1.632  11.015   4.984
66516SOL     OW 1444   4.623   2.030  13.907
66516SOL    HW1 1445   4.660   2.004  13.823
66516SOL    HW2 1446   4.538   1.985  13.910
66517SOL     OW 1447   7.627  12.127   1.828
66517SOL    HW1 1448   7.624  12.218   1.798
66517SOL    HW2 1449   7.714  12.096   1.803
66518SOL     OW 1450  11.503   1.312   1.768
66518SOL    HW1 1451  11.452   1.369   1.710
66518SOL    HW2 1452  11.449   1.303   1.846
66519SOL     OW 1453   0.937   5.378   2.372
66519SOL    HW1 1454   0.983   5.411   2.450
66519SOL    HW2 1455   0.913   5.457   2.323
66520SOL     OW 1456   2.616   2.942   8.805
66520SOL    HW1 1457   2.521   2.952   8.814
66520SOL    HW2 1458   2.634   2.855   8.840
66521SOL     OW 1459   7.954   9.635  10.257
66521SOL    HW1 1460   8.024   9.701  10.259
66521SOL    HW2 1461   7.973   9.577  10.330
66522SOL     OW 1462   4.365   2.416  13.018
66522SOL    HW1 1463   4.425   2.342  13.008
66522SOL    HW2 1464   4.400   2.465  13.092
66523SOL     OW 1465   2.290   1.908   5.694
66523SOL    HW1 1466   2.201   1.917   5.730
66523SOL    HW2 1467   2.310   1.815   5.704
66524SOL     OW 1468  12.574   5.816   2.400
66524SOL    HW1 1469  12.611   5.903   2.410
66524SOL    HW2 1470  12.628   5.773   2.333
66525SOL     OW 1471  11.485  14.364   3.543
66525SOL    HW1 1472  11.558  14.322   3.499
66525SOL    HW2 1473  11.407  14.331   3.498
66526SOL     OW 1474   1.303   9.735   0.309
66526SOL    HW1 1475   1.263   9.798   0.249
66526SOL    HW2 1476   1.258   9.748   0.392
66527SOL     OW 1477  10.165   0.123   2.929
66527SOL    HW1 1478  10.233   0.169   2.881
66527SOL    HW2 1479  10.110   0.192   2.965
66528SOL     OW 1480   6.658   0.052   7.682
66528SOL    HW1 1481   6.677   0.134   7.637
66528SOL    HW2 1482   6.708  14.861   7.634
66529SOL     OW 1483  14.582  12.288  13.782
66529SOL    HW1 1484  14.545  12.216  13.834
66529SOL    HW2 1485  14.545  12.275  13.694
66530SOL     OW 1486   0.233   5.666   0.594
66530SOL    HW1 1487   0.201   5.664   0.684
66530SOL    HW2 1488   0.258   5.576   0.576
66531SOL     OW 1489   5.214   6.674   4.467
66531SOL    HW1 1490   5.305   6.678   4.498
66531SOL    HW2 1491   5.163   6.648   4.543
66532SOL     OW 1492   1.554   3.249   6.657
66532SOL    HW1 1493   1.593   3.170   6.620
66532SOL    HW2 1494   1.610   3.271   6.732
66533SOL     OW 1495   3.727   3.897   6.973
66533SOL    HW1 1496   3.675   3.821   6.999
66533SOL    HW2 1497   3.818   3.871   6.985
66534SOL     OW 1498   0.001   3.930   4.270
66534SOL    HW1 1499  14.800   3.880   4.242
66534SOL    HW2 1500   0.076   3.881   4.237
66535SOL     OW 1501   8.617   8.672   8.562
66535SOL    HW1 1502   8.592   8.582   8.581
66535SOL    HW2 1503   8.647   8.707   8.646
66536SOL     OW 1504  14.105  12.449   8.017
66536SOL    HW1 1505  14.112  12.445   7.921
66536SOL    HW2 1506  14.144  12.533   8.041
66537SOL     OW 1507   5.178   7.361  11.722
66537SOL    HW1 1508   5.166   7.452  11.696
66537SOL    HW2 1509   5.271   7.344  11.706
66538SOL     OW 1510  10.393   8.252   9.390
66538SOL    HW1 1511  10.385   8.170   9.341
66538SOL    HW2 1512  10.372   8.320   9.327
66539SOL     OW 1513   1.627   7.349   8.975
66539SOL    HW1 1514   1.687   7.274   8.974
66539SOL    HW2 1515   1.674   7.419   8.929
66540SOL     OW 1516   6.319   1.985  12.167
66540SOL    HW1 1517   6.370   2.054  12.125
66540SOL    HW2 1518   6.231   2.022  12.176
66541SOL     OW 1519   5.476   1.202  13.713
66541SOL    HW1 1520   5.515   1.142  13.778
66541SOL    HW2 1521   5.499   1.289  13.745
66542SOL     OW 1522  11.160   6.625  12.433
66542SOL    HW1 1523  11.104   6.548  12.441
66542SOL    HW2 1524  11.189   6.624  12.342
66543SOL     OW 1525  11.180  12.358   5.469
66543SOL    HW1 1526  11.185  12.292   5.399
66543SOL    HW2 1527  11.089  12.386   5.468
66544SOL     OW 1528  12.423   6.004   4.191
66544SOL    HW1 1529  12.462   5.919   4.213
66544SOL    HW2 1530  12.480   6.039   4.122
66545SOL     OW 1531   2.489  12.642   7.002
66545SOL    HW1 1532   2.464  12.600   7.084
66545SOL    HW2 1533   2.407  12.654   6.955
66546SOL     OW 1534   1.572   2.201   0.751
66546SOL    HW1 1535   1.665   2.222   0.761
66546SOL    HW2 1536   1.563   2.113   0.786
66547SOL     OW 1537   8.953  11.290   0.948
66547SOL    HW1 1538   9.000  11.373   0.952
66547SOL    HW2 1539   8.968  11.258   0.859
66548SOL     OW 1540   9.329   7.583   8.146
66548SOL    HW1 1541   9.300   7.527   8.074
66548SOL    HW2 1542   9.252   7.592   8.202
66549SOL     OW 1543   0.508   5.333  12.880
66549SOL    HW1 1544   0.512   5.335  12.784
66549SOL    HW2 1545   0.599   5.336  12.908
66550SOL     OW 1546  11.271   4.690   3.383
66550SOL    HW1 1547  11.260   4.783   3.364
66550SOL    HW2 1548  11.282   4.685   3.478
66551SOL     OW 1549  12.652   6.398  10.072
66551SOL    HW1 1550  12.647   6.331  10.004
66551SOL    HW2 1551  12.722   6.456  10.043
66552SOL     OW 1552   6.501   6.527   1.972
66552SOL    HW1 1553   6.569   6.495   2.032
66552SOL    HW2 1554   6.533   6.504   1.885
66553SOL     OW 1555   5.479   5.993   2.860
66553SOL    HW1 1556   5.442   6.082   2.852
66553SOL    HW2 1557   5.527   5.995   2.943
66554SOL     OW 1558   1.697  10.030   8.696
66554SOL    HW1 1559   1.710   9.935   8.693
66554SOL    HW2 1560   1.602  10.041   8.689
66555SOL     OW 1561  11.004  14.592   6.996
66555SOL    HW1 1562  10.929  14.616   6.941
66555SOL    HW2 1563  11.043  14.675   7.023
66556SOL     OW 1564   5.360  10.619  10.877
66556SOL    HW1 1565   5.286  10.677  10.860
66556SOL    HW2 1566   5.437  10.671  10.855
66557SOL     OW 1567   1.541   0.171   2.579
66557SOL    HW1 1568   1.523   0.078   2.592
66557SOL    HW2 1569   1.633   0.181   2.602
66558SOL     OW 1570   5.625   4.897   3.239
66558SOL    HW1 1571   5.648   4.958   3.308
66558SOL    HW2 1572   5.593   4.819   3.285
66559SOL     OW 1573  11.907   2.233  10.441
66559SOL    HW1 1574  11.827   2.266  10.399
66559SOL    HW2 1575  11.907   2.139  10.422
66560SOL     OW 1576  12.235  12.468   9.791
66560SOL    HW1 1577  12.235  12.549   9.840
66560SOL    HW2 1578  12.196  12.403   9.850
66561SOL     OW 1579   5.855   7.518   6.363
66561SOL    HW1 1580   5.833   7.430   6.392
66561SOL    HW2 1581   5.784   7.541   6.302
66562SOL     OW 1582   1.488   2.401   1.572
66562SOL    HW1 1583   1.468   2.331   1.634
66562SOL    HW2 1584   1.409   2.408   1.518
66563SOL     OW 1585  13.195   2.347  11.625
66563SOL    HW1 1586  13.177   2.428  11.577
66563SOL    HW2 1587  13.162   2.364  11.714
66564SOL     OW 1588  10.036  12.885   6.129
66564SOL    HW1 1589  10.057  12.841   6.047
66564SOL    HW2 1590  10.019  12.814   6.191
66565SOL     OW 1591   1.741   7.011   7.768
66565SOL    HW1 1592   1.738   7.094   7.722
66565SOL    HW2 1593   1.800   7.026   7.842
66566SOL     OW 1594   7.002   7.259   5.565
66566SOL    HW1 1595   7.027   7.351   5.558
66566SOL    HW2 1596   6.927   7.249   5.507
66567SOL     OW 1597  10.172   6.633   6.162
66567SOL    HW1 1598  10.135   6.545   6.161
66567SOL    HW2 1599  10.095   6.690   6.169
66568SOL     OW 1600  11.273   6.289   8.361
66568SOL    HW1 1601  11.234   6.307   8.447
66568SOL    HW2 1602  11.280   6.194   8.357
66569SOL     OW 1603   3.005  12.327   4.101
66569SOL    HW1 1604   2.987  12.375   4.020
66569SOL    HW2 1605   3.098  12.304   4.095
66570SOL     OW 1606   2.007  13.841   1.305
66570SOL    HW1 1607   2.033  13.755   1.271
66570SOL    HW2 1608   1.912  13.836   1.313
66571SOL     OW 1609   8.852  12.466  12.357
66571SOL    HW1 1610   8.878  12.378  12.331
66571SOL    HW2 1611   8.777  12.452  12.416
66572SOL     OW 1612   0.306   6.197  10.103
66572SOL    HW1 1613   0.388   6.178  10.149
66572SOL    HW2 1614   0.238   6.183  10.169
66573SOL     OW 1615   8.350  10.677   4.794
66573SOL    HW1 1616   8.401  10.647   4.719
66573SOL    HW2 1617   8.402  10.652   4.871
66574SOL     OW 1618   1.311   3.755   6.029
66574SOL    HW1 1619   1.273   3.786   6.111
66574SOL    HW2 1620   1.401   3.733   6.051
66575SOL     OW 1621   1.602   8.285   0.862
66575SOL    HW1 1622   1.653   8.316   0.936
66575SOL    HW2 1623   1.512   8.278   0.895
66576SOL     OW 1624   0.944  11.977  11.287
66576SOL    HW1 1625   0.908  11.956  11.200
66576SOL    HW2 1626   1.038  11.984  11.272
66577SOL     OW 1627  14.520   9.482   8.240
66577SOL    HW1 1628  14.434   9.488   8.282
66577SOL    HW2 1629  14.537   9.388   8.234
66578SOL     OW 1630  10.261  10.990   2.957
66578SOL    HW1 1631  10.294  11.056   3.018
66578SOL    HW2 1632  10.271  10.907   3.004
66579SOL     OW 1633   9.334  12.961   5.524
66579SOL    HW1 1634   9.414  12.969   5.576
66579SOL    HW2 1635   9.284  12.891   5.567
66580SOL     OW 1636  12.536   4.016   7.810
66580SOL    HW1 1637  12.552   4.106   7.838
66580SOL    HW2 1638  12.447   4.018   7.774
66581SOL     OW 1639   1.176  13.935   2.808
66581SOL    HW1 1640   1.219  13.852   2.826
66581SOL    HW2 1641   1.103  13.938   2.870
66582SOL     OW 1642  11.133   5.989  11.561
66582SOL    HW1 1643  11.081   5.994  11.481
66582SOL    HW2 1644  11.216   5.949  11.533
66583SOL     OW 1645  10.489   8.817  12.658
66583SOL    HW1 1646  10.441   8.793  12.579
66583SOL    HW2 1647  10.503   8.911  12.650
66584SOL     OW 1648   9.249   4.618  14.732
66584SOL    HW1 1649   9.333   4.590  14.769
66584SOL    HW2 1650   9.271   4.692  14.676
66585SOL     OW 1651   8.869   2.174  10.165
66585SOL    HW1 1652   8.867   2.182  10.260
66585SOL    HW2 1653   8.907   2.257  10.136
66586SOL     OW 1654   2.505   6.214   1.875
66586SOL    HW1 1655   2.517   6.165   1.793
66586SOL    HW2 1656   2.411   6.230   1.879
66587SOL     OW 1657   6.979  13.270   6.999
66587SOL    HW1 1658   7.036  13.249   7.073
66587SOL    HW2 1659   6.899  13.221   7.016
66588SOL     OW 1660  14.504  12.708  12.356
66588SOL    HW1 1661  14.554  12.629  12.337
66588SOL    HW2 1662  14.549  12.747  12.431
66589SOL     OW 1663   0.739  11.498   3.177
66589SOL    HW1 1664   0.747  11.557   3.103
66589SOL    HW2 1665   0.758  11.552   3.254
66590SOL     OW 1666   7.043   4.216  12.364
66590SOL    HW1 1667   6.954   4.203  12.395
66590SOL    HW2 1668   7.059   4.143  12.305
66591SOL     OW 1669   4.932  12.292   3.593
66591SOL    HW1 1670   4.856  12.314   3.539
66591SOL    HW2 1671   4.896  12.254   3.673
66592SOL     OW 1672   4.516   6.855   4.679
66592SOL    HW1 1673   4.455   6.807   4.737
66592SOL    HW2 1674   4.538   6.934   4.728
66593SOL     OW 1675   9.441   2.884  11.100
66593SOL    HW1 1676   9.398   2.801  11.081
66593SOL    HW2 1677   9.382   2.950  11.065
66594SOL     OW 1678   4.361   7.109  11.479
66594SOL    HW1 1679   4.354   7.032  11.423
66594SOL    HW2 1680   4.449   7.104  11.516
66595SOL     OW 1681   2.766   3.817   4.158
66595SOL    HW1 1682   2.811   3.879   4.102
66595SOL    HW2 1683   2.736   3.748   4.099
66596SOL     OW 1684   4.767  10.164   8.368
66596SOL    HW1 1685   4.786  10.120   8.286
66596SOL    HW2 1686   4.752  10.255   8.344
66597SOL     OW 1687   2.661   3.071  10.820
66597SOL    HW1 1688   2.684   3.082  10.912
66597SOL    HW2 1689   2.738   3.032  10.780
66598SOL     OW 1690   7.200  11.154  12.851
66598SOL    HW1 1691   7.243  11.239  12.839
66598SOL    HW2 1692   7.214  11.108  12.768
66599SOL     OW 1693  12.330  13.263   7.066
66599SOL    HW1 1694  12.351  13.351   7.098
66599SOL    HW2 1695  12.234  13.258   7.071
66600SOL     OW 1696  11.402   0.358   9.817
66600SOL    HW1 1697  11.318   0.347   9.861
66600SOL    HW2 1698  11.438   0.439   9.853
66601SOL     OW 1699   6.058   1.926   3.618
66601SOL    HW1 1700   6.119   1.884   3.678
66601SOL    HW2 1701   6.105   1.932   3.535
66602SOL     OW 1702   4.516   2.936   9.099
66602SOL    HW1 1703   4.454   3.009   9.104
66602SOL    HW2 1704   4.524   2.918   9.005
66603SOL     OW 1705   2.314  13.321   6.188
66603SOL    HW1 1706   2.316  13.394   6.125
66603SOL    HW2 1707   2.280  13.247   6.137
66604SOL     OW 1708   7.217  14.768   1.550
66604SOL    HW1 1709   7.228  14.714   1.628
66604SOL    HW2 1710   7.154  14.720   1.496
66605SOL     OW 1711  11.447   5.017   8.545
66605SOL    HW1 1712  11.394   5.094   8.524
66605SOL    HW2 1713  11.385   4.944   8.539
66606SOL     OW 1714  14.519   3.492   1.022
66606SOL    HW1 1715  14.533   3.415   1.078
66606SOL    HW2 1716  14.494   3.561   1.083
66607SOL     OW 1717   8.869   5.793   7.563
66607SOL    HW1 1718   8.905   5.732   7.628
66607SOL    HW2 1719   8.859   5.740   7.484
66608SOL     OW 1720   6.261   2.997   9.897
66608SOL    HW1 1721   6.316   3.029   9.968
66608SOL    HW2 1722   6.200   2.937   9.940
66609SOL     OW 1723   9.476  14.337   2.452
66609SOL    HW1 1724   9.520  14.393   2.388
66609SOL    HW2 1725   9.488  14.382   2.536
66610SOL     OW 1726   1.221   7.263   9.636
66610SOL    HW1 1727   1.198   7.317   9.712
66610SOL    HW2 1728   1.275   7.320   9.582
66611SOL     OW 1729  10.650   5.543   5.087
66611SOL    HW1 1730  10.644   5.637   5.067
66611SOL    HW2 1731  10.701   5.506   5.015
66612SOL     OW 1732  10.893   1.930  10.174
66612SOL    HW1 1733  10.930   1.867  10.236
66612SOL    HW2 1734  10.930   1.904  10.089
66613SOL     OW 1735  11.226   3.860  13.791
66613SOL    HW1 1736  11.143   3.903  13.769
66613SOL    HW2 1737  11.240   3.882  13.883
66614SOL     OW 1738  10.119   5.776   1.823
66614SOL    HW1 1739  10.200   5.826   1.811
66614SOL    HW2 1740  10.052   5.841   1.843
66615SOL     OW 1741   3.450  11.497   0.848
66615SOL    HW1 1742   3.497  11.434   0.792
66615SOL    HW2 1743   3.365  11.508   0.806
66616SOL     OW 1744   1.825   9.685  13.389
66616SOL    HW1 1745   1.909   9.724  13.411
66616SOL    HW2 1746   1.776   9.755  13.346
66617SOL     OW 1747  12.672  10.122  12.933
66617SOL    HW1 1748  12.655  10.164  13.017
66617SOL    HW2 1749  12.726  10.185  12.885
66618SOL     OW 1750   3.032   3.539   6.073
66618SOL    HW1 1751   3.022   3.535   6.168
66618SOL    HW2 1752   3.092   3.613   6.058
66619SOL     OW 1753   0.994   8.888  14.163
66619SOL    HW1 1754   0.962   8.950  14.097
66619SOL    HW2 1755   1.024   8.813  14.112
66620SOL     OW 1756  10.196  11.221   6.737
66620SOL    HW1 1757  10.277  11.172   6.754
66620SOL    HW2 1758  10.127  11.155   6.743
66621SOL     OW 1759  14.727  11.711   5.493
66621SOL    HW1 1760  14.660  11.689   5.428
66621SOL    HW2 1761  14.707  11.655   5.568
66622SOL     OW 1762   8.750  12.098   5.282
66622SOL    HW1 1763   8.754  12.164   5.351
66622SOL    HW2 1764   8.669  12.118   5.235
66623SOL     OW 1765   0.590  11.707   3.354
66623SOL    HW1 1766   0.521  11.701   3.419
66623SOL    HW2 1767   0.610  11.801   3.349
66624SOL     OW 1768   4.773  10.245   5.470
66624SOL    HW1 1769   4.867  10.240   5.492
66624SOL    HW2 1770   4.754  10.339   5.471
66625SOL     OW 1771   6.179   1.679   1.801
66625SOL    HW1 1772   6.148   1.602   1.754
66625SOL    HW2 1773   6.275   1.671   1.801
66626SOL     OW 1774   0.131   8.787   7.809
66626SOL    HW1 1775   0.141   8.834   7.726
66626SOL    HW2 1776   0.216   8.793   7.851
66627SOL     OW 1777  12.115   1.815   5.097
66627SOL    HW1 1778  12.057   1.833   5.023
66627SOL    HW2 1779  12.112   1.894   5.150
66628SOL     OW 1780  11.329  12.265   2.670
66628SOL    HW1 1781  11.326  12.356   2.699
66628SOL    HW2 1782  11.376  12.267   2.586
66629SOL     OW 1783  11.956   1.171   6.478
66629SOL    HW1 1784  11.986   1.112   6.548
66629SOL    HW2 1785  12.003   1.143   6.400
66630SOL     OW 1786   1.481   0.969  11.615
66630SOL    HW1 1787   1.474   0.891  11.671
66630SOL    HW2 1788   1.432   0.947  11.536
66631SOL     OW 1789  14.178  10.881   9.502
66631SOL    HW1 1790  14.116  10.871   9.575
66631SOL    HW2 1791  14.191  10.791   9.471
66632SOL     OW 1792   7.212   1.394  11.157
66632SOL    HW1 1793   7.130   1.435  11.185
66632SOL    HW2 1794   7.264   1.389  11.237
66633SOL     OW 1795   6.574  11.742   2.287
66633SOL    HW1 1796   6.560  11.685   2.363
66633SOL    HW2 1797   6.513  11.814   2.300
66634SOL     OW 1798   3.667   6.445   6.852
66634SOL    HW1 1799   3.688   6.355   6.829
66634SOL    HW2 1800   3.655   6.490   6.768
66635SOL     OW 1801   2.646   1.004   9.946
66635SOL    HW1 1802   2.565   1.056   9.945
66635SOL    HW2 1803   2.651   0.972  10.036
66636SOL     OW 1804   6.733   2.585  12.661
66636SOL    HW1 1805   6.706   2.653  12.722
66636SOL    HW2 1806   6.762   2.633  12.583
66637SOL     OW 1807   7.367   6.248   1.211
66637SOL    HW1 1808   7.459   6.232   1.231
66637SOL    HW2 1809   7.367   6.334   1.168
66638SOL     OW 1810  11.542  11.162   3.040
66638SOL    HW1 1811  11.449  11.179   3.051
66638SOL    HW2 1812  11.572  11.132   3.126
66639SOL     OW 1813   6.975   4.770   1.629
66639SOL    HW1 1814   6.983   4.694   1.571
66639SOL    HW2 1815   6.951   4.842   1.571
66640SOL     OW 1816  10.057   1.836  14.874
66640SOL    HW1 1817   9.991   1.823  14.806
66640SOL    HW2 1818  10.117   1.900  14.837
66641SOL     OW 1819   7.612  13.280   1.784
66641SOL    HW1 1820   7.539  13.256   1.842
66641SOL    HW2 1821   7.680  13.215   1.802
66642SOL     OW 1822   0.277   1.339   9.374
66642SOL    HW1 1823   0.245   1.393   9.446
66642SOL    HW2 1824   0.365   1.314   9.400
66643SOL     OW 1825  14.345   5.761  13.992
66643SOL    HW1 1826  14.369   5.831  14.053
66643SOL    HW2 1827  14.321   5.687  14.047
66644SOL     OW 1828   8.199  11.160   9.250
66644SOL    HW1 1829   8.228  11.155   9.340
66644SOL    HW2 1830   8.279  11.159   9.198
66645SOL     OW 1831  10.179  13.004   5.588
66645SOL    HW1 1832  10.155  12.940   5.521
66645SOL    HW2 1833  10.165  12.959   5.671
66646SOL     OW 1834   5.162   4.792   2.664
66646SOL    HW1 1835   5.143   4.705   2.700
66646SOL    HW2 1836   5.161   4.850   2.741
66647SOL     OW 1837   8.352   0.732   4.636
66647SOL    HW1 1838   8.403   0.794   4.583
66647SOL    HW2 1839   8.381   0.747   4.726
66648SOL     OW 1840   2.093  14.713   5.890
66648SOL    HW1 1841   2.106  14.709   5.985
66648SOL    HW2 1842   2.008  14.671   5.877
66649SOL     OW 1843   7.451   4.470   0.363
66649SOL    HW1 1844   7.378   4.520   0.400
66649SOL    HW2 1845   7.458   4.501   0.273
66650SOL     OW 1846  13.623  13.559   6.195
66650SOL    HW1 1847  13.656  13.473   6.172
66650SOL    HW2 1848  13.699  13.605   6.231
66651SOL     OW 1849  11.952   3.906   1.959
66651SOL    HW1 1850  12.036   3.925   2.001
66651SOL    HW2 1851  11.912   3.992   1.946
66652SOL     OW 1852   9.022   9.962   3.180
66652SOL    HW1 1853   8.953  10.005   3.231
66652SOL    HW2 1854   9.023  10.008   3.097
66653SOL     OW 1855   1.348  12.641   3.871
66653SOL    HW1 1856   1.271  12.613   3.820
66653SOL    HW2 1857   1.408  12.567   3.864
66654SOL     OW 1858  13.388  14.859   9.091
66654SOL    HW1 1859  13.346   0.069   9.095
66654SOL    HW2 1860  13.399  14.842   8.997
66655SOL     OW 1861   4.865   7.947   7.358
66655SOL    HW1 1862   4.780   7.984   7.384
66655SOL    HW2 1863   4.848   7.854   7.345
66656SOL     OW 1864  10.047   2.288   7.587
66656SOL    HW1 1865  10.062   2.291   7.492
66656SOL    HW2 1866   9.953   2.304   7.597
66657SOL     OW 1867   6.645  13.872   6.465
66657SOL    HW1 1868   6.597  13.858   6.547
66657SOL    HW2 1869   6.595  13.823   6.399
66658SOL     OW 1870   2.249  13.768   0.020
66658SOL    HW1 1871   2.228  13.823   0.096
66658SOL    HW2 1872   2.237  13.678   0.050
66659SOL     OW 1873   4.667  11.981   6.891
66659SOL    HW1 1874   4.657  12.020   6.805
66659SOL    HW2 1875   4.660  11.887   6.876
66660SOL     OW 1876   0.733  11.919   0.075
66660SOL    HW1 1877   0.810  11.971   0.100
66660SOL    HW2 1878   0.739  11.912  14.855
66661SOL     OW 1879   7.502  13.782   3.358
66661SOL    HW1 1880   7.457  13.799   3.440
66661SOL    HW2 1881   7.455  13.708   3.319
66662SOL     OW 1882  14.659   6.672  14.788
66662SOL    HW1 1883  14.618   6.696  14.705
66662SOL    HW2 1884  14.589   6.680  14.853
66663SOL     OW 1885   5.348   4.544  12.868
66663SOL    HW1 1886   5.317   4.573  12.783
66663SOL    HW2 1887   5.270   4.514  12.914
66664SOL     OW 1888   8.969  11.070   5.773
66664SOL    HW1 1889   8.908  10.998   5.793
66664SOL    HW2 1890   9.025  11.036   5.704
66665SOL     OW 1891   5.187   5.737   1.520
66665SOL    HW1 1892   5.220   5.798   1.586
66665SOL    HW2 1893   5.131   5.790   1.464
66666SOL     OW 1894  13.488  12.474  11.118
66666SOL    HW1 1895  13.516  12.520  11.197
66666SOL    HW2 1896  13.444  12.396  11.150
66667SOL     OW 1897   5.798   0.276   0.297
66667SOL    HW1 1898   5.864   0.255   0.363
66667SOL    HW2 1899   5.751   0.351   0.333
66668SOL     OW 1900   4.783   1.249   3.587
66668SOL    HW1 1901   4.784   1.281   3.497
66668SOL    HW2 1902   4.853   1.298   3.630
66669SOL     OW 1903   4.002   5.663   1.242
66669SOL    HW1 1904   4.081   5.683   1.292
66669SOL    HW2 1905   4.009   5.570   1.222
66670SOL     OW 1906   9.106  12.403  10.476
66670SOL    HW1 1907   9.152  12.319  10.484
66670SOL    HW2 1908   9.015  12.383  10.495
66671SOL     OW 1909   3.278  12.706   1.883
66671SOL    HW1 1910   3.224  12.632   1.854
66671SOL    HW2 1911   3.324  12.674   1.960
66672SOL     OW 1912   9.706   7.919   1.398
66672SOL    HW1 1913   9.656   7.843   1.427
66672SOL    HW2 1914   9.651   7.994   1.419
66673SOL     OW 1915   6.395   0.166   9.585
66673SOL    HW1 1916   6.374   0.229   9.517
66673SOL    HW2 1917   6.409   0.084   9.539
66674SOL     OW 1918   8.845   3.956   8.905
66674SOL    HW1 1919   8.788   4.005   8.964
66674SOL    HW2 1920   8.932   3.994   8.917
66675SOL     OW 1921  13.215   0.722   2.875
66675SOL    HW1 1922  13.192   0.815   2.877
66675SOL    HW2 1923  13.290   0.717   2.816
66676SOL     OW 1924   2.777   8.115   5.001
66676SOL    HW1 1925   2.727   8.195   4.987
66676SOL    HW2 1926   2.806   8.120   5.092
66677SOL     OW 1927  10.040  12.624   3.189
66677SOL    HW1 1928   9.950  12.650   3.170
66677SOL    HW2 1929  10.094  12.687   3.141
66678SOL     OW 1930   9.483  12.232  11.419
66678SOL    HW1 1931   9.522  12.286  11.488
66678SOL    HW2 1932   9.433  12.295  11.367
66679SOL     OW 1933  11.146   1.251   6.308
66679SOL    HW1 1934  11.175   1.167   6.271
66679SOL    HW2 1935  11.109   1.228   6.393
66680SOL     OW 1936  11.471   3.134  11.049
66680SOL    HW1 1937  11.393   3.112  10.998
66680SOL    HW2 1938  11.488   3.226  11.028
66681SOL     OW 1939   3.042   4.624   7.891
66681SOL    HW1 1940   3.032   4.635   7.796
66681SOL    HW2 1941   3.118   4.566   7.901
66682SOL     OW 1942   5.425  10.653  13.688
66682SOL    HW1 1943   5.385  10.725  13.639
66682SOL    HW2 1944   5.399  10.574  13.640
66683SOL     OW 1945   4.083   6.155  10.582
66683SOL    HW1 1946   4.083   6.059  10.582
66683SOL    HW2 1947   4.128   6.179  10.663
66684SOL     OW 1948   0.339   4.065   6.036
66684SOL    HW1 1949   0.292   4.043   5.955
66684SOL    HW2 1950   0.389   4.143   6.015
66685SOL     OW 1951  13.837  14.010   6.000
66685SOL    HW1 1952  13.752  14.043   6.029
66685SOL    HW2 1953  13.860  14.066   5.926
66686SOL     OW 1954  11.507  11.422   4.942
66686SOL    HW1 1955  11.482  11.504   4.986
66686SOL    HW2 1956  11.593  11.401   4.978
66687SOL     OW 1957   1.612   2.363   4.818
66687SOL    HW1 1958   1.629   2.275   4.853
66687SOL    HW2 1959   1.691   2.413   4.837
66688SOL     OW 1960   4.957   2.196   1.154
66688SOL    HW1 1961   4.997   2.248   1.224
66688SOL    HW2 1962   4.963   2.251   1.076
66689SOL     OW 1963  14.301  10.651   1.015
66689SOL    HW1 1964  14.231  10.603   0.972
66689SOL    HW2 1965  14.378  10.595   1.006
66690SOL     OW 1966   2.742   3.247   9.779
66690SOL    HW1 1967   2.686   3.316   9.744
66690SOL    HW2 1968   2.770   3.197   9.703
66691SOL     OW 1969   7.140   1.513   6.654
66691SOL    HW1 1970   7.055   1.544   6.621
66691SOL    HW2 1971   7.150   1.555   6.739
66692SOL     OW 1972   0.749   1.669  11.432
66692SOL    HW1 1973   0.841   1.648  11.443
66692SOL    HW2 1974   0.734   1.665  11.338
66693SOL     OW 1975   2.897   0.664   3.108
66693SOL    HW1 1976   2.805   0.683   3.090
66693SOL    HW2 1977   2.934   0.749   3.133
66694SOL     OW 1978  11.139   7.605   8.855
66694SOL    HW1 1979  11.234   7.610   8.850
66694SOL    HW2 1980  11.116   7.652   8.935
66695SOL     OW 1981   9.031   2.700  12.863
66695SOL    HW1 1982   9.075   2.621  12.834
66695SOL    HW2 1983   8.957   2.668  12.914
66696SOL     OW 1984   1.618  12.677   4.089
66696SOL    HW1 1985   1.623  12.713   4.001
66696SOL    HW2 1986   1.528  12.692   4.116
66697SOL     OW 1987   1.538   1.260  13.474
66697SOL    HW1 1988   1.525   1.179  13.524
66697SOL    HW2 1989   1.581   1.319  13.536
66698SOL     OW 1990   1.818  14.504  12.949
66698SOL    HW1 1991   1.788  14.451  13.023
66698SOL    HW2 1992   1.911  14.518  12.967
66699SOL     OW 1993  10.308   7.493  12.731
66699SOL    HW1 1994  10.323   7.436  12.656
66699SOL    HW2 1995  10.255   7.564  12.698
66700SOL     OW 1996   5.814   9.548   3.049
66700SOL    HW1 1997   5.788   9.603   2.975
66700SOL    HW2 1998   5.909   9.558   3.053
66701SOL     OW 1999  13.065   3.849   8.300
66701SOL    HW1 2000  13.132   3.782   8.313
66701SOL    HW2 2001  13.057   3.857   8.205
66702SOL     OW 2002   1.030   1.242   3.540
66702SOL    HW1 2003   1.095   1.250   3.470
66702SOL    HW2 2004   1.047   1.316   3.598
66703SOL     OW 2005   7.619   4.589   5.349
66703SOL    HW1 2006   7.640   4.532   5.274
66703SOL    HW2 2007   7.660   4.673   5.326
66704SOL     OW 2008   5.052  12.069   1.145
66704SOL    HW1 2009   4.996  12.146   1.135
66704SOL    HW2 2010   5.081  12.049   1.057
66705SOL     OW 2011   4.916  12.753   4.283
66705SOL    HW1 2012   4.936  12.846   4.276
66705SOL    HW2 2013   4.953  12.715   4.204
66706SOL     OW 2014   3.342   7.677   6.389
66706SOL    HW1 2015   3.411   7.645   6.331
66706SOL    HW2 2016   3.378   7.757   6.428
66707SOL     OW 2017   3.001   6.959   9.062
66707SOL    HW1 2018   3.003   6.872   9.024
66707SOL    HW2 2019   2.927   7.003   9.019
66708SOL     OW 2020   7.137   9.142   4.499
66708SOL    HW1 2021   7.193   9.130   4.576
66708SOL    HW2 2022   7.064   9.195   4.531
66709SOL     OW 2023   1.811   5.658   9.335
66709SOL    HW1 2024   1.810   5.744   9.291
66709SOL    HW2 2025   1.902   5.631   9.331
66710SOL     OW 2026   6.024   6.215  10.490
66710SOL    HW1 2027   5.955   6.273  10.458
66710SOL    HW2 2028   6.086   6.273  10.534
66711SOL     OW 2029   1.913   9.646  10.850
66711SOL    HW1 2030   1.954   9.675  10.932
66711SOL    HW2 2031   1.938   9.711  10.785
66712SOL     OW 2032   9.478  10.833   8.961
66712SOL    HW1 2033   9.535  10.843   9.037
66712SOL    HW2 2034   9.444  10.921   8.946
66713SOL     OW 2035   0.813  10.390   8.953
66713SOL    HW1 2036   0.908  10.401   8.947
66713SOL    HW2 2037   0.777  10.460   8.898
66714SOL     OW 2038   0.216   7.017   2.855
66714SOL    HW1 2039   0.139   6.998   2.802
66714SOL    HW2 2040   0.278   7.057   2.793
66715SOL     OW 2041   4.016   7.388   0.219
66715SOL    HW1 2042   4.002   7.331   0.294
66715SOL    HW2 2043   3.977   7.472   0.244
66716SOL     OW 2044  10.928   5.983  10.719
66716SOL    HW1 2045  10.874   5.952  10.792
66716SOL    HW2 2046  10.932   5.909  10.659
66717SOL     OW 2047  14.277  13.749   5.512
66717SOL    HW1 2048  14.187  13.719   5.496
66717SOL    HW2 2049  14.320  13.673   5.550
66718SOL     OW 2050   4.749   7.766  11.510
66718SOL    HW1 2051   4.793   7.709  11.573
66718SOL    HW2 2052   4.721   7.706  11.440
66719SOL     OW 2053   5.407   5.514  14.232
66719SOL    HW1 2054   5.497   5.487  14.217
66719SOL    HW2 2055   5.354   5.440  14.204
66720SOL     OW 2056  13.562  13.734  14.586
66720SOL    HW1 2057  13.527  13.646  14.601
66720SOL    HW2 2058  13.640  13.738  14.641
66721SOL     OW 2059   0.058   2.547   2.212
66721SOL    HW1 2060  14.844   2.519   2.189
66721SOL    HW2 2061   0.055   2.558   2.307
66722SOL     OW 2062   2.582   3.341   2.415
66722SOL    HW1 2063   2.570   3.334   2.509
66722SOL    HW2 2064   2.649   3.409   2.404
66723SOL     OW 2065  14.378  10.015  13.650
66723SOL    HW1 2066  14.301   9.959  13.657
66723SOL    HW2 2067  14.347  10.092  13.603
66724SOL     OW 2068  12.689   5.876   8.031
66724SOL    HW1 2069  12.639   5.892   8.111
66724SOL    HW2 2070  12.771   5.925   8.045
66725SOL     OW 2071   8.165  14.751   7.125
66725SOL    HW1 2072   8.095  14.757   7.190
66725SOL    HW2 2073   8.201  14.663   7.137
66726SOL     OW 2074   6.844   6.108  13.157
66726SOL    HW1 2075   6.928   6.129  13.197
66726SOL    HW2 2076   6.866   6.078  13.069
66727SOL     OW 2077  11.830  12.398   2.899
66727SOL    HW1 2078  11.794  12.314   2.925
66727SOL    HW2 2079  11.766  12.435   2.838
66728SOL     OW 2080   0.789   7.549   6.515
66728SOL    HW1 2081   0.810   7.617   6.580
66728SOL    HW2 2082   0.743   7.482   6.565
66729SOL     OW 2083  12.665   5.224   3.437
66729SOL    HW1 2084  12.639   5.263   3.353
66729SOL    HW2 2085  12.589   5.239   3.494
66730SOL     OW 2086  10.710  14.643   7.482
66730SOL    HW1 2087  10.630  14.676   7.440
66730SOL    HW2 2088  10.766  14.616   7.409
66731SOL     OW 2089  10.352   6.761   3.073
66731SOL    HW1 2090  10.385   6.849   3.056
66731SOL    HW2 2091  10.305   6.737   2.993
66732SOL     OW 2092   2.003   2.462   5.773
66732SOL    HW1 2093   2.053   2.406   5.832
66732SOL    HW2 2094   1.912   2.437   5.788
66733SOL     OW 2095  12.951  12.909   8.187
66733SOL    HW1 2096  12.871  12.924   8.137
66733SOL    HW2 2097  12.950  12.976   8.255
66734SOL     OW 2098   9.878  12.872  11.434
66734SOL    HW1 2099   9.910  12.924  11.360
66734SOL    HW2 2100   9.939  12.892  11.505
66735SOL     OW 2101   7.459  13.455   4.421
66735SOL    HW1 2102   7.435  13.519   4.488
66735SOL    HW2 2103   7.518  13.395   4.465
66736SOL     OW 2104  13.078  13.675   7.080
66736SOL    HW1 2105  13.110  13.678   6.990
66736SOL    HW2 2106  13.039  13.588   7.089
66737SOL     OW 2107   1.248  12.633   9.148
66737SOL    HW1 2108   1.218  12.552   9.106
66737SOL    HW2 2109   1.332  12.652   9.106
66738SOL     OW 2110  12.371   0.836   5.353
66738SOL    HW1 2111  12.395   0.871   5.438
66738SOL    HW2 2112  12.288   0.879   5.332
66739SOL     OW 2113   8.101   5.439   3.359
66739SOL    HW1 2114   8.186   5.425   3.317
66739SOL    HW2 2115   8.040   5.388   3.306
66740SOL     OW 2116   7.811   5.059   0.839
66740SOL    HW1 2117   7.873   5.006   0.790
66740SOL    HW2 2118   7.743   4.997   0.866
66741SOL     OW 2119   1.260   3.463   5.473
66741SOL    HW1 2120   1.239   3.403   5.545
66741SOL    HW2 2121   1.180   3.467   5.421
66742SOL     OW 2122  12.203  12.014  11.170
66742SOL    HW1 2123  12.188  11.934  11.119
66742SOL    HW2 2124  12.298  12.024  11.172
66743SOL     OW 2125   5.868   9.085   5.016
66743SOL    HW1 2126   5.947   9.053   5.061
66743SOL    HW2 2127   5.811   9.114   5.087
66744SOL     OW 2128  12.404   0.048   4.378
66744SOL    HW1 2129  12.449  14.865   4.440
66744SOL    HW2 2130  12.352   0.106   4.432
66745SOL     OW 2131  12.904   7.770  14.851
66745SOL    HW1 2132  12.936   7.682  14.835
66745SOL    HW2 2133  12.958   7.804   0.047
66746SOL     OW 2134  14.789   3.859  10.356
66746SOL    HW1 2135  14.858   3.914  10.319
66746SOL    HW2 2136  14.818   3.769  10.339
66747SOL     OW 2137   4.054   9.151   4.809
66747SOL    HW1 2138   4.106   9.126   4.885
66747SOL    HW2 2139   4.007   9.072   4.784
66748SOL     OW 2140   3.438   3.727   3.422
66748SOL    HW1 2141   3.366   3.749   3.481
66748SOL    HW2 2142   3.475   3.647   3.459
66749SOL     OW 2143   6.584   9.724  11.825
66749SOL    HW1 2144   6.613   9.805  11.867
66749SOL    HW2 2145   6.493   9.714  11.852
66750SOL     OW 2146  13.891  13.912  11.290
66750SOL    HW1 2147  13.869  14.005  11.283
66750SOL    HW2 2148  13.857  13.886  11.376
66751SOL     OW 2149   8.299   6.861   0.271
66751SOL    HW1 2150   8.257   6.891   0.351
66751SOL    HW2 2151   8.391   6.852   0.294
66752SOL     OW 2152   6.811   0.722   9.838
66752SOL    HW1 2153   6.731   0.710   9.889
66752SOL    HW2 2154   6.784   0.778   9.765
66753SOL     OW 2155   4.457  11.587   0.921
66753SOL    HW1 2156   4.453  11.642   0.842
66753SOL    HW2 2157   4.432  11.646   0.992
66754SOL     OW 2158   9.484   6.640   4.549
66754SOL    HW1 2159   9.526   6.556   4.566
66754SOL    HW2 2160   9.394   6.618   4.526
66755SOL     OW 2161  14.167   9.813   2.525
66755SOL    HW1 2162  14.174   9.840   2.617
66755SOL    HW2 2163  14.249   9.769   2.506
66756SOL     OW 2164   4.283   1.175  11.378
66756SOL    HW1 2165   4.324   1.147  11.296
66756SOL    HW2 2166   4.198   1.210  11.352
66757SOL     OW 2167  12.681  11.989  10.297
66757SOL    HW1 2168  12.728  12.006  10.216
66757SOL    HW2 2169  12.589  11.995  10.274
66758SOL     OW 2170  11.312   1.927   1.027
66758SOL    HW1 2171  11.350   1.856   0.975
66758SOL    HW2 2172  11.384   1.959   1.081
66759SOL     OW 2173  11.939  10.496   1.351
66759SOL    HW1 2174  12.031  10.519   1.367
66759SOL    HW2 2175  11.934  10.479   1.257
66760SOL     OW 2176   4.590  12.256   7.559
66760SOL    HW1 2177   4.672  12.293   7.529
66760SOL    HW2 2178   4.564  12.194   7.490
66761SOL     OW 2179   8.835   8.723  13.747
66761SOL    HW1 2180   8.875   8.661  13.808
66761SOL    HW2 2181   8.909   8.762  13.700
66762SOL     OW 2182   3.311   9.103   6.269
66762SOL    HW1 2183   3.379   9.044   6.303
66762SOL    HW2 2184   3.332   9.188   6.308
66763SOL     OW 2185   8.534   6.712  14.204
66763SOL    HW1 2186   8.470   6.663  14.255
66763SOL    HW2 2187   8.537   6.668  14.119
66764SOL     OW 2188   8.901  11.021   9.127
66764SOL    HW1 2189   8.982  11.072   9.138
66764SOL    HW2 2190   8.919  10.966   9.050
66765SOL     OW 2191   5.446   5.754  13.068
66765SOL    HW1 2192   5.478   5.693  13.134
66765SOL    HW2 2193   5.458   5.841  13.108
66766SOL     OW 2194  13.809   2.676   7.860
66766SOL    HW1 2195  13.741   2.636   7.807
66766SOL    HW2 2196  13.891   2.639   7.825
66767SOL     OW 2197  10.076   4.823   5.894
66767SOL    HW1 2198  10.105   4.896   5.949
66767SOL    HW2 2199  10.156   4.779   5.868
66768SOL     OW 2200   0.125   9.349   0.393
66768SOL    HW1 2201   0.144   9.419   0.455
66768SOL    HW2 2202   0.050   9.303   0.431
66769SOL     OW 2203   2.456  10.779   3.010
66769SOL    HW1 2204   2.384  10.725   2.976
66769SOL    HW2 2205   2.415  10.863   3.030
66770SOL     OW 2206  13.710   9.198   5.933
66770SOL    HW1 2207  13.709   9.119   5.986
66770SOL    HW2 2208  13.633   9.247   5.960
66771SOL     OW 2209   2.702   8.948   4.016
66771SOL    HW1 2210   2.658   8.965   4.099
66771SOL    HW2 2211   2.790   8.918   4.042
66772SOL     OW 2212  14.293  12.373   3.749
66772SOL    HW1 2213  14.333  12.459   3.760
66772SOL    HW2 2214  14.238  12.362   3.826
66773SOL     OW 2215  10.065  12.039   1.555
66773SOL    HW1 2216  10.131  11.971   1.570
66773SOL    HW2 2217   9.987  11.991   1.528
66774SOL     OW 2218  13.063   8.718   0.593
66774SOL    HW1 2219  13.044   8.628   0.566
66774SOL    HW2 2220  13.148   8.713   0.637
66775SOL     OW 2221  10.246  13.632   2.605
66775SOL    HW1 2222  10.181  13.687   2.648
66775SOL    HW2 2223  10.222  13.636   2.512
66776SOL     OW 2224   4.103  10.324  12.340
66776SOL    HW1 2225   4.186  10.369  12.332
66776SOL    HW2 2226   4.103  10.289  12.429
66777SOL     OW 2227  14.542   9.562   2.739
66777SOL    HW1 2228  14.635   9.581   2.725
66777SOL    HW2 2229  14.499   9.594   2.660
66778SOL     OW 2230  12.204   5.656   2.795
66778SOL    HW1 2231  12.260   5.685   2.867
66778SOL    HW2 2232  12.153   5.584   2.833
66779SOL     OW 2233  10.022   9.966   1.098
66779SOL    HW1 2234  10.009  10.058   1.120
66779SOL    HW2 2235  10.116   9.951   1.109
66780SOL     OW 2236   0.702   3.296   6.291
66780SOL    HW1 2237   0.782   3.244   6.295
66780SOL    HW2 2238   0.732   3.386   6.281
66781SOL     OW 2239  13.078   0.277   4.304
66781SOL    HW1 2240  13.038   0.346   4.357
66781SOL    HW2 2241  13.077   0.313   4.215
66782SOL     OW 2242   8.894   7.693   1.090
66782SOL    HW1 2243   8.869   7.611   1.047
66782SOL    HW2 2244   8.935   7.666   1.172
66783SOL     OW 2245  11.317   3.956  14.044
66783SOL    HW1 2246  11.397   3.997  14.076
66783SOL    HW2 2247  11.315   3.870  14.087
66784SOL     OW 2248  10.970   7.683  13.752
66784SOL    HW1 2249  10.876   7.664  13.753
66784SOL    HW2 2250  11.011   7.606  13.791
66785SOL     OW 2251   9.202   7.492   2.398
66785SOL    HW1 2252   9.156   7.428   2.451
66785SOL    HW2 2253   9.221   7.446   2.316
66786SOL     OW 2254   8.918   9.761   6.103
66786SOL    HW1 2255   8.922   9.849   6.068
66786SOL    HW2 2256   8.831   9.729   6.078
66787SOL     OW 2257   2.052   7.448   5.583
66787SOL    HW1 2258   1.993   7.413   5.650
66787SOL    HW2 2259   2.097   7.521   5.627
66788SOL     OW 2260   7.130   0.311   8.200
66788SOL    HW1 2261   7.190   0.276   8.265
66788SOL    HW2 2262   7.160   0.401   8.185
66789SOL     OW 2263  10.807  14.563   3.998
66789SOL    HW1 2264  10.895  14.591   3.974
66789SOL    HW2 2265  10.749  14.627   3.955
66790SOL     OW 2266  10.788   5.627   8.419
66790SOL    HW1 2267  10.715   5.569   8.441
66790SOL    HW2 2268  10.827   5.649   8.503
66791SOL     OW 2269   2.506   2.071   8.510
66791SOL    HW1 2270   2.553   2.001   8.464
66791SOL    HW2 2271   2.554   2.150   8.488
66792SOL     OW 2272  11.367  11.171   5.915
66792SOL    HW1 2273  11.364  11.233   5.842
66792SOL    HW2 2274  11.360  11.085   5.874
66793SOL     OW 2275  14.052   4.164  11.330
66793SOL    HW1 2276  13.992   4.130  11.264
66793SOL    HW2 2277  14.024   4.255  11.343
66794SOL     OW 2278   8.036  11.126   0.140
66794SOL    HW1 2279   7.992  11.210   0.157
66794SOL    HW2 2280   7.987  11.063   0.193
66795SOL     OW 2281   9.798  14.146   6.640
66795SOL    HW1 2282   9.776  14.150   6.547
66795SOL    HW2 2283   9.842  14.062   6.650
66796SOL     OW 2284   6.435  10.582   6.239
66796SOL    HW1 2285   6.479  10.633   6.308
66796SOL    HW2 2286   6.342  10.600   6.252
66797SOL     OW 2287   2.045  10.394   7.439
66797SOL    HW1 2288   2.129  10.406   7.394
66797SOL    HW2 2289   2.032  10.476   7.487
66798SOL     OW 2290   6.052   3.595   6.695
66798SOL    HW1 2291   6.110   3.556   6.760
66798SOL    HW2 2292   6.106   3.660   6.650
66799SOL     OW 2293  12.577   3.716  12.432
66799SOL    HW1 2294  12.568   3.740  12.340
66799SOL    HW2 2295  12.601   3.624  12.431
66800SOL     OW 2296   2.623  13.048  12.124
66800SOL    HW1 2297   2.701  13.103  12.122
66800SOL    HW2 2298   2.569  13.085  12.193
66801SOL     OW 2299   0.381   0.444   8.143
66801SOL    HW1 2300   0.411   0.401   8.223
66801SOL    HW2 2301   0.286   0.430   8.142
66802SOL     OW 2302  10.095   1.611   4.196
66802SOL    HW1 2303  10.024   1.649   4.145
66802SOL    HW2 2304  10.078   1.637   4.286
66803SOL     OW 2305  14.172   0.824  11.569
66803SOL    HW1 2306  14.222   0.743  11.561
66803SOL    HW2 2307  14.235   0.886  11.607
66804SOL     OW 2308  10.320   0.665   4.451
66804SOL    HW1 2309  10.275   0.728   4.393
66804SOL    HW2 2310  10.339   0.715   4.530
66805SOL     OW 2311  10.198  13.046   8.700
66805SOL    HW1 2312  10.234  13.051   8.611
66805SOL    HW2 2313  10.110  13.084   8.692
66806SOL     OW 2314   3.776  14.260   0.681
66806SOL    HW1 2315   3.838  14.203   0.726
66806SOL    HW2 2316   3.800  14.253   0.589
66807SOL     OW 2317  10.916   2.784   9.827
66807SOL    HW1 2318  10.947   2.872   9.844
66807SOL    HW2 2319  10.854   2.794   9.754
66808SOL     OW 2320   7.790   1.926  12.347
66808SOL    HW1 2321   7.788   1.968  12.261
66808SOL    HW2 2322   7.752   1.839  12.332
66809SOL     OW 2323   8.946   6.329   4.595
66809SOL    HW1 2324   9.020   6.295   4.544
66809SOL    HW2 2325   8.885   6.363   4.530
66810SOL     OW 2326  13.680  13.641   0.500
66810SOL    HW1 2327  13.641  13.727   0.519
66810SOL    HW2 2328  13.773  13.653   0.519
66811SOL     OW 2329   1.650  13.691  10.136
66811SOL    HW1 2330   1.598  13.740  10.199
66811SOL    HW2 2331   1.739  13.727  10.145
66812SOL     OW 2332   6.059   6.128  13.412
66812SOL    HW1 2333   6.031   6.058  13.354
66812SOL    HW2 2334   6.154   6.118  13.417
66813SOL     OW 2335   1.052   9.356  12.356
66813SOL    HW1 2336   1.114   9.301  12.309
66813SOL    HW2 2337   1.086   9.360  12.445
66814SOL     OW 2338  12.841   5.038   0.983
66814SOL    HW1 2339  12.823   4.954   1.024
66814SOL    HW2 2340  12.890   5.017   0.904
66815SOL     OW 2341   5.532  14.165   3.974
66815SOL    HW1 2342   5.451  14.205   3.942
66815SOL    HW2 2343   5.503  14.085   4.018
66816SOL     OW 2344  12.587  11.331   0.274
66816SOL    HW1 2345  12.516  11.318   0.211
66816SOL    HW2 2346  12.548  11.387   0.342
66817SOL     OW 2347   8.010   4.974   7.916
66817SOL    HW1 2348   8.077   5.018   7.967
66817SOL    HW2 2349   8.058   4.922   7.851
66818SOL     OW 2350  11.613   3.863  14.362
66818SOL    HW1 2351  11.599   3.768  14.359
66818SOL    HW2 2352  11.708   3.874  14.364
66819SOL     OW 2353  11.036   1.426   7.320
66819SOL    HW1 2354  10.966   1.438   7.384
66819SOL    HW2 2355  11.116   1.452   7.366
66820SOL     OW 2356   1.238   2.558  12.116
66820SOL    HW1 2357   1.207   2.494  12.051
66820SOL    HW2 2358   1.161   2.611  12.136
66821SOL     OW 2359   9.605   9.461   7.338
66821SOL    HW1 2360   9.685   9.486   7.384
66821SOL    HW2 2361   9.560   9.402   7.399
66822SOL     OW 2362   0.277   8.693   9.734
66822SOL    HW1 2363   0.289   8.630   9.663
66822SOL    HW2 2364   0.328   8.656   9.807
66823SOL     OW 2365   9.413   1.667   9.163
66823SOL    HW1 2366   9.409   1.759   9.189
66823SOL    HW2 2367   9.390   1.619   9.243
66824SOL     OW 2368   7.101  13.934  12.269
66824SOL    HW1 2369   7.158  13.866  12.234
66824SOL    HW2 2370   7.145  13.961  12.350
66825SOL     OW 2371   5.154   9.713   4.815
66825SOL    HW1 2372   5.249   9.710   4.809
66825SOL    HW2 2373   5.137   9.763   4.896
66826SOL     OW 2374  14.079   4.170  11.812
66826SOL    HW1 2375  14.090   4.077  11.794
66826SOL    HW2 2376  14.152   4.212  11.764
66827SOL     OW 2377   2.519  14.438   8.899
66827SOL    HW1 2378   2.434  14.452   8.857
66827SOL    HW2 2379   2.499  14.387   8.977
66828SOL     OW 2380   9.714   3.677  12.582
66828SOL    HW1 2381   9.686   3.763  12.553
66828SOL    HW2 2382   9.706   3.621  12.505
66829SOL     OW 2383   7.547   0.884   2.226
66829SOL    HW1 2384   7.493   0.862   2.302
66829SOL    HW2 2385   7.548   0.804   2.173
66830SOL     OW 2386   4.441  10.695   8.688
66830SOL    HW1 2387   4.417  10.663   8.775
66830SOL    HW2 2388   4.410  10.626   8.629
66831SOL     OW 2389   0.881   1.274  11.628
66831SOL    HW1 2390   0.907   1.189  11.591
66831SOL    HW2 2391   0.905   1.268  11.721
66832SOL     OW 2392   5.022   7.860  11.944
66832SOL    HW1 2393   5.046   7.812  12.023
66832SOL    HW2 2394   4.937   7.898  11.963
66833SOL     OW 2395   6.523   6.524   3.071
66833SOL    HW1 2396   6.514   6.467   3.147
66833SOL    HW2 2397   6.543   6.465   2.999
66834SOL     OW 2398   3.398   3.531   4.574
66834SOL    HW1 2399   3.395   3.587   4.651
66834SOL    HW2 2400   3.316   3.549   4.528
66835SOL     OW 2401   5.485   3.696   0.064
66835SOL    HW1 2402   5.466   3.759  14.870
66835SOL    HW2 2403   5.411   3.635   0.062
66836SOL     OW 2404  13.634   3.629   7.534
66836SOL    HW1 2405  13.563   3.665   7.587
66836SOL    HW2 2406  13.591   3.568   7.474
66837SOL     OW 2407   1.239   4.589  11.811
66837SOL    HW1 2408   1.282   4.511  11.775
66837SOL    HW2 2409   1.172   4.555  11.870
66838SOL     OW 2410   6.022  12.734  13.650
66838SOL    HW1 2411   5.980  12.780  13.578
66838SOL    HW2 2412   6.026  12.643  13.622
66839SOL     OW 2413   4.273  13.042   6.607
66839SOL    HW1 2414   4.211  13.012   6.674
66839SOL    HW2 2415   4.359  13.016   6.641
66840SOL     OW 2416   4.586   2.105   2.578
66840SOL    HW1 2417   4.513   2.080   2.634
66840SOL    HW2 2418   4.586   2.201   2.580
66841SOL     OW 2419   6.050   0.825  10.720
66841SOL    HW1 2420   6.045   0.909  10.766
66841SOL    HW2 2421   5.997   0.766  10.773
66842SOL     OW 2422  12.953  13.670   4.392
66842SOL    HW1 2423  12.994  13.753   4.369
66842SOL    HW2 2424  12.954  13.619   4.311
66843SOL     OW 2425   1.366   8.108   2.760
66843SOL    HW1 2426   1.289   8.053   2.773
66843SOL    HW2 2427   1.333   8.198   2.769
66844SOL     OW 2428   1.648   6.289   8.874
66844SOL    HW1 2429   1.676   6.344   8.801
66844SOL    HW2 2430   1.571   6.335   8.910
66845SOL     OW 2431   1.580  14.542   9.994
66845SOL    HW1 2432   1.649  14.592   9.950
66845SOL    HW2 2433   1.507  14.604  10.000
66846SOL     OW 2434   7.971   0.288   3.310
66846SOL    HW1 2435   8.004   0.331   3.231
66846SOL    HW2 2436   7.878   0.311   3.313
66847SOL     OW 2437   0.447  11.201   1.404
66847SOL    HW1 2438   0.373  11.224   1.461
66847SOL    HW2 2439   0.510  11.272   1.417
66848SOL     OW 2440  10.056   3.789   2.330
66848SOL    HW1 2441  10.015   3.874   2.316
66848SOL    HW2 2442   9.984   3.726   2.322
66849SOL     OW 2443  10.721   8.278  13.603
66849SOL    HW1 2444  10.685   8.229  13.529
66849SOL    HW2 2445  10.789   8.333  13.564
66850SOL     OW 2446   2.644   2.445   7.983
66850SOL    HW1 2447   2.649   2.435   7.888
66850SOL    HW2 2448   2.735   2.443   8.011
66851SOL     OW 2449   4.728   1.950   7.748
66851SOL    HW1 2450   4.635   1.937   7.764
66851SOL    HW2 2451   4.754   1.877   7.693
66852SOL     OW 2452  10.610   8.076   1.360
66852SOL    HW1 2453  10.527   8.043   1.325
66852SOL    HW2 2454  10.676   8.017   1.324
66853SOL     OW 2455  13.217   8.450   9.975
66853SOL    HW1 2456  13.234   8.365   9.934
66853SOL    HW2 2457  13.241   8.515   9.908
66854SOL     OW 2458   6.986   7.229   8.182
66854SOL    HW1 2459   6.992   7.192   8.271
66854SOL    HW2 2460   6.936   7.309   8.193
66855SOL     OW 2461   2.255   7.915   5.113
66855SOL    HW1 2462   2.163   7.936   5.128
66855SOL    HW2 2463   2.253   7.831   5.066
66856SOL     OW 2464   4.693   7.078   4.568
66856SOL    HW1 2465   4.638   7.055   4.493
66856SOL    HW2 2466   4.671   7.169   4.587
66857SOL     OW 2467  13.874   9.194  10.129
66857SOL    HW1 2468  13.948   9.239  10.170
66857SOL    HW2 2469  13.912   9.115  10.091
66858SOL     OW 2470   6.724   5.025  14.357
66858SOL    HW1 2471   6.804   4.974  14.351
66858SOL    HW2 2472   6.654   4.964  14.336
66859SOL     OW 2473   7.590   3.615  12.087
66859SOL    HW1 2474   7.684   3.624  12.078
66859SOL    HW2 2475   7.554   3.677  12.023
66860SOL     OW 2476  14.735   0.158   4.252
66860SOL    HW1 2477  14.662   0.216   4.275
66860SOL    HW2 2478  14.812   0.215   4.255
66861SOL     OW 2479   4.748   8.507   6.076
66861SOL    HW1 2480   4.814   8.576   6.084
66861SOL    HW2 2481   4.665   8.550   6.100
66862SOL     OW 2482   7.855   2.326   9.744
66862SOL    HW1 2483   7.951   2.327   9.751
66862SOL    HW2 2484   7.829   2.243   9.784
66863SOL     OW 2485   3.173   7.706   9.357
66863SOL    HW1 2486   3.235   7.700   9.285
66863SOL    HW2 2487   3.098   7.754   9.320
66864SOL     OW 2488   9.199   4.704   4.738
66864SOL    HW1 2489   9.149   4.646   4.680
66864SOL    HW2 2490   9.254   4.645   4.790
66865SOL     OW 2491   6.934   0.247  14.707
66865SOL    HW1 2492   6.879   0.170  14.723
66865SOL    HW2 2493   7.012   0.212  14.664
66866SOL     OW 2494   6.812   3.340  11.597
66866SOL    HW1 2495   6.758   3.388  11.535
66866SOL    HW2 2496   6.767   3.257  11.609
66867SOL     OW 2497   0.749   9.397   2.786
66867SOL    HW1 2498   0.703   9.315   2.801
66867SOL    HW2 2499   0.745   9.444   2.869
66868SOL     OW 2500   6.038   2.529   6.043
66868SOL    HW1 2501   6.119   2.509   6.089
66868SOL    HW2 2502   5.984   2.451   6.057
66869SOL     OW 2503   7.191  11.878  10.008
66869SOL    HW1 2504   7.137  11.850   9.934
66869SOL    HW2 2505   7.281  11.864   9.978
66870SOL     OW 2506  11.119   9.284  13.260
66870SOL    HW1 2507  11.170   9.269  13.339
66870SOL    HW2 2508  11.052   9.347  13.287
66871SOL     OW 2509   0.083  11.784   6.725
66871SOL    HW1 2510   0.165  11.740   6.744
66871SOL    HW2 2511   0.059  11.754   6.637
66872SOL     OW 2512   8.334   9.679  12.648
66872SOL    HW1 2513   8.373   9.695  12.734
66872SOL    HW2 2514   8.285   9.759  12.629
66873SOL     OW 2515   9.228   0.688  11.123
66873SOL    HW1 2516   9.140   0.653  11.139
66873SOL    HW2 2517   9.271   0.684  11.209
66874SOL     OW 2518   9.344  13.857   7.596
66874SOL    HW1 2519   9.427  13.869   7.644
66874SOL    HW2 2520   9.279  13.900   7.651
66875SOL     OW 2521   0.112   7.958  14.737
66875SOL    HW1 2522   0.087   7.904  14.812
66875SOL    HW2 2523   0.154   7.897  14.676
66876SOL     OW 2524  14.028  10.115   0.705
66876SOL    HW1 2525  14.020  10.210   0.697
66876SOL    HW2 2526  14.105  10.093   0.653
66877SOL     OW 2527   0.713   9.320   1.426
66877SOL    HW1 2528   0.720   9.281   1.514
66877SOL    HW2 2529   0.697   9.245   1.368
66878SOL     OW 2530   5.360   7.788   0.101
66878SOL    HW1 2531   5.421   7.786   0.175
66878SOL    HW2 2532   5.287   7.733   0.129
66879SOL     OW 2533   6.561   8.225   5.575
66879SOL    HW1 2534   6.523   8.242   5.489
66879SOL    HW2 2535   6.492   8.181   5.624
66880SOL     OW 2536   4.488   8.130  13.938
66880SOL    HW1 2537   4.527   8.182  14.008
66880SOL    HW2 2538   4.533   8.046  13.942
66881SOL     OW 2539   5.404   9.929   9.501
66881SOL    HW1 2540   5.310   9.912   9.499
66881SOL    HW2 2541   5.415   9.996   9.569
66882SOL     OW 2542   0.889  14.501   2.481
66882SOL    HW1 2543   0.850  14.550   2.409
66882SOL    HW2 2544   0.953  14.562   2.520
66883SOL     OW 2545   1.923  10.055  12.075
66883SOL    HW1 2546   1.990  10.013  12.128
66883SOL    HW2 2547   1.957  10.052  11.986
66884SOL     OW 2548  11.328  13.856   0.341
66884SOL    HW1 2549  11.247  13.845   0.390
66884SOL    HW2 2550  11.397  13.833   0.404
66885SOL     OW 2551   3.990   8.935  14.121
66885SOL    HW1 2552   3.910   8.988  14.127
66885SOL    HW2 2553   3.969   8.856  14.170
66886SOL     OW 2554  10.352   7.372  13.602
66886SOL    HW1 2555  10.368   7.401  13.512
66886SOL    HW2 2556  10.273   7.318  13.597
66887SOL     OW 2557   2.111  11.786   7.071
66887SOL    HW1 2558   2.118  11.875   7.036
66887SOL    HW2 2559   2.144  11.793   7.161
66888SOL     OW 2560   2.299   0.397   1.768
66888SOL    HW1 2561   2.321   0.487   1.742
66888SOL    HW2 2562   2.383   0.357   1.788
66889SOL     OW 2563  13.363   9.031   9.901
66889SOL    HW1 2564  13.345   8.950   9.950
66889SOL    HW2 2565  13.293   9.036   9.836
66890SOL     OW 2566   4.446  11.573   1.580
66890SOL    HW1 2567   4.474  11.488   1.614
66890SOL    HW2 2568   4.419  11.556   1.490
66891SOL     OW 2569   4.816   0.334   4.133
66891SOL    HW1 2570   4.870   0.359   4.208
66891SOL    HW2 2571   4.867   0.363   4.057
66892SOL     OW 2572  11.254  10.078  12.529
66892SOL    HW1 2573  11.225  10.072  12.438
66892SOL    HW2 2574  11.188  10.028  12.578
66893SOL     OW 2575   9.735  13.798   0.101
66893SOL    HW1 2576   9.763  13.863   0.036
66893SOL    HW2 2577   9.639  13.803   0.099
66894SOL     OW 2578   4.931  12.512   0.381
66894SOL    HW1 2579   4.907  12.419   0.374
66894SOL    HW2 2580   5.022  12.511   0.411
66895SOL     OW 2581   3.991  11.941   3.718
66895SOL    HW1 2582   3.986  11.979   3.631
66895SOL    HW2 2583   4.070  11.979   3.757
66896SOL     OW 2584  10.180   0.175   4.634
66896SOL    HW1 2585  10.268   0.140   4.618
66896SOL    HW2 2586  10.173   0.252   4.578
66897SOL     OW 2587   8.730   6.259   3.990
66897SOL    HW1 2588   8.819   6.256   4.026
66897SOL    HW2 2589   8.703   6.350   4.001
66898SOL     OW 2590   4.032   0.969   3.421
66898SOL    HW1 2591   4.065   1.059   3.419
66898SOL    HW2 2592   4.041   0.943   3.513
66899SOL     OW 2593  13.984  11.749  14.371
66899SOL    HW1 2594  14.017  11.659  14.378
66899SOL    HW2 2595  14.035  11.787  14.299
66900SOL     OW 2596   2.728   4.012   1.612
66900SOL    HW1 2597   2.782   4.077   1.657
66900SOL    HW2 2598   2.791   3.958   1.565
66901SOL     OW 2599   2.477  10.906  10.669
66901SOL    HW1 2600   2.433  10.940  10.591
66901SOL    HW2 2601   2.478  10.811  10.656
66902SOL     OW 2602   8.845   6.138   1.136
66902SOL    HW1 2603   8.929   6.138   1.182
66902SOL    HW2 2604   8.804   6.055   1.161
66903SOL     OW 2605   0.453   9.910   6.896
66903SOL    HW1 2606   0.422   9.983   6.950
66903SOL    HW2 2607   0.485   9.952   6.816
66904SOL     OW 2608   7.533   3.096  10.724
66904SOL    HW1 2609   7.468   3.027  10.738
66904SOL    HW2 2610   7.573   3.109  10.811
66905SOL     OW 2611   9.991   2.669  13.511
66905SOL    HW1 2612  10.025   2.753  13.480
66905SOL    HW2 2613  10.044   2.604  13.464
66906SOL     OW 2614  11.656   5.500   5.926
66906SOL    HW1 2615  11.573   5.454   5.938
66906SOL    HW2 2616  11.722   5.437   5.952
66907SOL     OW 2617   0.138  14.566   4.005
66907SOL    HW1 2618   0.164  14.647   3.962
66907SOL    HW2 2619   0.073  14.527   3.946
66908SOL     OW 2620  10.215   3.464  13.944
66908SOL    HW1 2621  10.284   3.525  13.919
66908SOL    HW2 2622  10.220   3.460  14.039
66909SOL     OW 2623   5.478   8.124  11.597
66909SOL    HW1 2624   5.499   8.066  11.671
66909SOL    HW2 2625   5.562   8.135  11.552
66910SOL     OW 2626   5.625   2.631  12.751
66910SOL    HW1 2627   5.582   2.592  12.827
66910SOL    HW2 2628   5.710   2.588  12.746
66911SOL     OW 2629   7.789  11.357  14.084
66911SOL    HW1 2630   7.702  11.330  14.057
66911SOL    HW2 2631   7.784  11.361  14.180
66912SOL     OW 2632  11.991  12.395  14.049
66912SOL    HW1 2633  11.933  12.453  13.998
66912SOL    HW2 2634  11.982  12.310  14.006
66913SOL     OW 2635   6.100   7.808   6.827
66913SOL    HW1 2636   6.171   7.872   6.820
66913SOL    HW2 2637   6.144   7.724   6.830
66914SOL     OW 2638   7.785  12.999  11.472
66914SOL    HW1 2639   7.723  13.036  11.535
66914SOL    HW2 2640   7.749  12.913  11.450
66915SOL     OW 2641  13.917  14.289   1.830
66915SOL    HW1 2642  13.907  14.310   1.737
66915SOL    HW2 2643  13.909  14.194   1.834
66916SOL     OW 2644   4.141   7.557  12.676
66916SOL    HW1 2645   4.136   7.652  12.692
66916SOL    HW2 2646   4.067   7.538  12.619
66917SOL     OW 2647   1.762   8.610  13.715
66917SOL    HW1 2648   1.797   8.521  13.717
66917SOL    HW2 2649   1.830   8.664  13.756
66918SOL     OW 2650   4.273   3.473  14.538
66918SOL    HW1 2651   4.318   3.467  14.454
66918SOL    HW2 2652   4.241   3.563  14.543
66919SOL     OW 2653   9.677   0.522   5.668
66919SOL    HW1 2654   9.629   0.568   5.737
66919SOL    HW2 2655   9.678   0.431   5.697
66920SOL     OW 2656   8.824   6.644   1.157
66920SOL    HW1 2657   8.915   6.669   1.172
66920SOL    HW2 2658   8.785   6.719   1.112
66921SOL     OW 2659  10.650   6.500  12.188
66921SOL    HW1 2660  10.672   6.547  12.108
66921SOL    HW2 2661  10.554   6.506  12.194
66922SOL     OW 2662   6.711  14.050   3.012
66922SOL    HW1 2663   6.635  14.077   2.962
66922SOL    HW2 2664   6.762  14.130   3.025
66923SOL     OW 2665   2.411   4.547  12.674
66923SOL    HW1 2666   2.381   4.481  12.737
66923SOL    HW2 2667   2.502   4.563  12.698
66924SOL     OW 2668   4.307   3.256   7.205
66924SOL    HW1 2669   4.218   3.232   7.180
66924SOL    HW2 2670   4.363   3.214   7.140
66925SOL     OW 2671  13.895  14.841   4.528
66925SOL    HW1 2672  13.826  14.816   4.465
66925SOL    HW2 2673  13.973  14.797   4.496
66926SOL     OW 2674   3.387   5.379   2.755
66926SOL    HW1 2675   3.393   5.461   2.803
66926SOL    HW2 2676   3.413   5.402   2.666
66927SOL     OW 2677   4.342  11.967   7.679
66927SOL    HW1 2678   4.406  11.897   7.664
66927SOL    HW2 2679   4.384  12.023   7.745
66928SOL     OW 2680   9.926  11.826  14.438
66928SOL    HW1 2681   9.896  11.791  14.354
66928SOL    HW2 2682  10.008  11.781  14.455
66929SOL     OW 2683   9.759  14.582   8.114
66929SOL    HW1 2684   9.846  14.612   8.088
66929SOL    HW2 2685   9.740  14.511   8.053
66930SOL     OW 2686   1.872   4.251   1.945
66930SOL    HW1 2687   1.879   4.166   1.900
66930SOL    HW2 2688   1.788   4.286   1.916
66931SOL     OW 2689   6.970   2.698   4.673
66931SOL    HW1 2690   7.063   2.700   4.652
66931SOL    HW2 2691   6.930   2.655   4.598
66932SOL     OW 2692   3.325  11.345   9.311
66932SOL    HW1 2693   3.253  11.390   9.265
66932SOL    HW2 2694   3.283  11.301   9.384
66933SOL     OW 2695   9.451   7.198  14.005
66933SOL    HW1 2696   9.432   7.128  14.067
66933SOL    HW2 2697   9.374   7.202  13.949
66934SOL     OW 2698   5.873   1.449   9.132
66934SOL    HW1 2699   5.831   1.533   9.151
66934SOL    HW2 2700   5.844   1.426   9.044
66935SOL     OW 2701   8.279   0.791   3.521
66935SOL    HW1 2702   8.277   0.790   3.426
66935SOL    HW2 2703   8.246   0.878   3.545
66936SOL     OW 2704   9.835  13.131  14.352
66936SOL    HW1 2705   9.802  13.216  14.382
66936SOL    HW2 2706   9.832  13.136  14.257
66937SOL     OW 2707   8.775   2.921  13.016
66937SOL    HW1 2708   8.822   2.838  13.024
66937SOL    HW2 2709   8.739   2.919  12.927
66938SOL     OW 2710  11.521  13.577  13.107
66938SOL    HW1 2711  11.598  13.550  13.057
66938SOL    HW2 2712  11.549  13.657  13.152
66939SOL     OW 2713   1.731   9.058   5.937
66939SOL    HW1 2714   1.742   8.989   6.002
66939SOL    HW2 2715   1.767   9.136   5.979
66940SOL     OW 2716  11.229   1.110   1.846
66940SOL    HW1 2717  11.145   1.155   1.841
66940SOL    HW2 2718  11.209   1.020   1.820
66941SOL     OW 2719   0.620  14.050  13.606
66941SOL    HW1 2720   0.640  14.091  13.691
66941SOL    HW2 2721   0.528  14.072  13.590
66942SOL     OW 2722  10.110  14.377   4.616
66942SOL    HW1 2723  10.118  14.343   4.527
66942SOL    HW2 2724  10.034  14.435   4.612
66943SOL     OW 2725  13.050  10.429  12.359
66943SOL    HW1 2726  13.005  10.513  12.356
66943SOL    HW2 2727  13.119  10.436  12.292
66944SOL     OW 2728   9.439   5.832  14.521
66944SOL    HW1 2729   9.506   5.826  14.454
66944SOL    HW2 2730   9.473   5.894  14.585
66945SOL     OW 2731   4.568  12.179   3.189
66945SOL    HW1 2732   4.504  12.245   3.163
66945SOL    HW2 2733   4.622  12.166   3.111
66946SOL     OW 2734   1.204  13.643   4.218
66946SOL    HW1 2735   1.164  13.602   4.295
66946SOL    HW2 2736   1.295  13.659   4.245
66947SOL     OW 2737   1.571   7.004   0.054
66947SOL    HW1 2738   1.484   7.020   0.019
66947SOL    HW2 2739   1.609   7.092   0.063
66948SOL     OW 2740   5.806   8.163   5.242
66948SOL    HW1 2741   5.746   8.229   5.278
66948SOL    HW2 2742   5.772   8.079   5.274
66949SOL     OW 2743  14.036   6.193  11.864
66949SOL    HW1 2744  14.124   6.165  11.838
66949SOL    HW2 2745  14.049   6.278  11.907
66950SOL     OW 2746  13.627   3.299  11.963
66950SOL    HW1 2747  13.651   3.333  11.876
66950SOL    HW2 2748  13.699   3.327  12.020
66951SOL     OW 2749   6.431   5.138   7.846
66951SOL    HW1 2750   6.497   5.176   7.787
66951SOL    HW2 2751   6.394   5.212   7.893
66952SOL     OW 2752   7.234   6.559   0.835
66952SOL    HW1 2753   7.181   6.613   0.894
66952SOL    HW2 2754   7.251   6.479   0.885
66953SOL     OW 2755   5.725   7.491   2.335
66953SOL    HW1 2756   5.696   7.502   2.425
66953SOL    HW2 2757   5.647   7.507   2.282
66954SOL     OW 2758  13.832   1.493   7.168
66954SOL    HW1 2759  13.919   1.532   7.169
66954SOL    HW2 2760  13.775   1.558   7.209
66955SOL     OW 2761  10.598  14.398   7.257
66955SOL    HW1 2762  10.574  14.411   7.165
66955SOL    HW2 2763  10.678  14.450   7.269
66956SOL     OW 2764   8.634   0.875   5.391
66956SOL    HW1 2765   8.636   0.780   5.403
66956SOL    HW2 2766   8.541   0.898   5.394
66957SOL     OW 2767   2.642   1.562  13.621
66957SOL    HW1 2768   2.581   1.605  13.681
66957SOL    HW2 2769   2.610   1.473  13.613
66958SOL     OW 2770  14.001   6.713   1.718
66958SOL    HW1 2771  14.024   6.670   1.636
66958SOL    HW2 2772  14.004   6.806   1.698
66959SOL     OW 2773   8.736   8.107   6.943
66959SOL    HW1 2774   8.743   8.012   6.950
66959SOL    HW2 2775   8.726   8.123   6.849
66960SOL     OW 2776   0.620   6.303  13.704
66960SOL    HW1 2777   0.631   6.391  13.738
66960SOL    HW2 2778   0.574   6.256  13.774
66961SOL     OW 2779  11.134   2.876   2.727
66961SOL    HW1 2780  11.205   2.903   2.786
66961SOL    HW2 2781  11.174   2.877   2.640
66962SOL     OW 2782   6.164  13.361   3.993
66962SOL    HW1 2783   6.122  13.337   3.910
66962SOL    HW2 2784   6.133  13.450   4.011
66963SOL     OW 2785   2.474   3.935   5.534
66963SOL    HW1 2786   2.451   3.916   5.443
66963SOL    HW2 2787   2.390   3.951   5.577
66964SOL     OW 2788   5.166   5.418  10.036
66964SOL    HW1 2789   5.240   5.410  10.096
66964SOL    HW2 2790   5.204   5.447   9.953
66965SOL     OW 2791  11.661  14.538   4.854
66965SOL    HW1 2792  11.718  14.515   4.928
66965SOL    HW2 2793  11.713  14.598   4.802
66966SOL     OW 2794   1.859  13.997  12.967
66966SOL    HW1 2795   1.819  14.042  13.041
66966SOL    HW2 2796   1.824  14.042  12.890
66967SOL     OW 2797  10.017   3.051   7.982
66967SOL    HW1 2798  10.003   3.023   8.073
66967SOL    HW2 2799   9.933   3.036   7.939
66968SOL     OW 2800   2.060  10.554  14.175
66968SOL    HW1 2801   2.106  10.625  14.129
66968SOL    HW2 2802   2.122  10.522  14.240
66969SOL     OW 2803  13.488  13.813  12.126
66969SOL    HW1 2804  13.449  13.899  12.145
66969SOL    HW2 2805  13.435  13.778  12.055
66970SOL     OW 2806   0.100  13.350  11.862
66970SOL    HW1 2807   0.039  13.284  11.895
66970SOL    HW2 2808   0.186  13.310  11.871
66971SOL     OW 2809   6.643  14.781   6.896
66971SOL    HW1 2810   6.719  14.737   6.933
66971SOL    HW2 2811   6.674  14.869   6.875
66972SOL     OW 2812   0.735   8.922   7.055
66972SOL    HW1 2813   0.695   8.961   6.978
66972SOL    HW2 2814   0.705   8.978   7.128
66973SOL     OW 2815  13.328   8.489   8.495
66973SOL    HW1 2816  13.345   8.453   8.582
66973SOL    HW2 2817  13.308   8.582   8.511
66974SOL     OW 2818   3.774  13.790  12.755
66974SOL    HW1 2819   3.801  13.724  12.692
66974SOL    HW2 2820   3.801  13.755  12.840
66975SOL     OW 2821   6.169   8.042  11.926
66975SOL    HW1 2822   6.098   8.093  11.966
66975SOL    HW2 2823   6.132   8.008  11.845
66976SOL     OW 2824   4.948   2.968  10.694
66976SOL    HW1 2825   4.898   2.978  10.774
66976SOL    HW2 2826   4.949   3.056  10.655
66977SOL     OW 2827  14.243   8.014  11.729
66977SOL    HW1 2828  14.337   8.030  11.734
66977SOL    HW2 2829  14.223   7.968  11.811
66978SOL     OW 2830   6.902  13.519   6.310
66978SOL    HW1 2831   6.935  13.431   6.329
66978SOL    HW2 2832   6.857  13.509   6.226
66979SOL     OW 2833  12.853   1.141   0.570
66979SOL    HW1 2834  12.883   1.223   0.611
66979SOL    HW2 2835  12.841   1.164   0.478
66980SOL     OW 2836   6.161  14.095   2.987
66980SOL    HW1 2837   6.154  14.078   2.893
66980SOL    HW2 2838   6.222  14.168   2.993
66981SOL     OW 2839  12.323  11.830   9.842
66981SOL    HW1 2840  12.398  11.778   9.812
66981SOL    HW2 2841  12.259  11.765   9.871
66982SOL     OW 2842   5.559   2.895  12.572
66982SOL    HW1 2843   5.607   2.908  12.490
66982SOL    HW2 2844   5.596   2.815  12.608
66983SOL     OW 2845  10.116   6.697  12.327
66983SOL    HW1 2846  10.036   6.646  12.317
66983SOL    HW2 2847  10.095   6.784  12.292
66984SOL     OW 2848   7.754   4.015  13.013
66984SOL    HW1 2849   7.839   4.054  12.994
66984SOL    HW2 2850   7.741   4.028  13.107
66985SOL     OW 2851   9.768   0.975   1.428
66985SOL    HW1 2852   9.696   0.925   1.390
66985SOL    HW2 2853   9.770   1.056   1.377
66986SOL     OW 2854   2.506   9.873   4.926
66986SOL    HW1 2855   2.521   9.792   4.877
66986SOL    HW2 2856   2.512   9.943   4.860
66987SOL     OW 2857   6.848  11.153  10.215
66987SOL    HW1 2858   6.858  11.248  10.211
66987SOL    HW2 2859   6.910  11.118  10.151
66988SOL     OW 2860   5.110   2.398   9.655
66988SOL    HW1 2861   5.205   2.410   9.663
66988SOL    HW2 2862   5.079   2.476   9.609
66989SOL     OW 2863   2.706  14.428  12.699
66989SOL    HW1 2864   2.685  14.405  12.789
66989SOL    HW2 2865   2.766  14.502  12.706
66990SOL     OW 2866   6.316   4.094  11.070
66990SOL    HW1 2867   6.407   4.121  11.060
66990SOL    HW2 2868   6.321   4.014  11.123
66991SOL     OW 2869  12.305   4.046   5.609
66991SOL    HW1 2870  12.360   4.120   5.586
66991SOL    HW2 2871  12.267   4.018   5.525
66992SOL     OW 2872   4.006   3.574   0.130
66992SOL    HW1 2873   3.990   3.482   0.107
66992SOL    HW2 2874   3.925   3.603   0.172
66993SOL     OW 2875  13.629   1.113   5.878
66993SOL    HW1 2876  13.548   1.131   5.831
66993SOL    HW2 2877  13.659   1.029   5.841
66994SOL     OW 2878  14.691   0.264   3.567
66994SOL    HW1 2879  14.660   0.220   3.487
66994SOL    HW2 2880  14.613   0.305   3.604
66995SOL     OW 2881   1.619   8.179   1.763
66995SOL    HW1 2882   1.578   8.158   1.847
66995SOL    HW2 2883   1.653   8.095   1.731
66996SOL     OW 2884   6.403   6.997  11.479
66996SOL    HW1 2885   6.331   6.997  11.542
66996SOL    HW2 2886   6.450   6.915  11.495
66997SOL     OW 2887   0.651   9.021  14.175
66997SOL    HW1 2888   0.580   9.033  14.112
66997SOL    HW2 2889   0.664   8.926  14.179
66998SOL     OW 2890   6.483  13.787   4.807
66998SOL    HW1 2891   6.440  13.711   4.768
66998SOL    HW2 2892   6.459  13.783   4.900
66999SOL     OW 2893  11.230   1.713  13.289
66999SOL    HW1 2894  11.235   1.799  13.246
66999SOL    HW2 2895  11.140   1.685  13.275
67000SOL     OW 2896   1.809   7.627   8.016
67000SOL    HW1 2897   1.800   7.703   8.074
67000SOL    HW2 2898   1.902   7.603   8.023
67001SOL     OW 2899   6.358   5.798  10.970
67001SOL    HW1 2900   6.307   5.717  10.971
67001SOL    HW2 2901   6.447   5.770  10.948
67002SOL     OW 2902   4.117   1.271  11.608
67002SOL    HW1 2903   4.099   1.295  11.517
67002SOL    HW2 2904   4.211   1.253  11.609
67003SOL     OW 2905   9.994   6.710  13.634
67003SOL    HW1 2906  10.067   6.696  13.693
67003SOL    HW2 2907   9.920   6.666  13.677
67004SOL     OW 2908  13.702  12.382   9.237
67004SOL    HW1 2909  13.706  12.289   9.260
67004SOL    HW2 2910  13.672  12.383   9.146
67005SOL     OW 2911   6.171   8.026   6.241
67005SOL    HW1 2912   6.153   7.932   6.244
67005SOL    HW2 2913   6.173   8.053   6.332
67006SOL     OW 2914   6.368   1.462  12.632
67006SOL    HW1 2915   6.303   1.437  12.697
67006SOL    HW2 2916   6.431   1.390  12.631
67007SOL     OW 2917  12.815   6.527  13.175
67007SOL    HW1 2918  12.836   6.452  13.230
67007SOL    HW2 2919  12.726   6.551  13.202
67008SOL     OW 2920  14.377   7.896  14.734
67008SOL    HW1 2921  14.340   7.872  14.649
67008SOL    HW2 2922  14.467   7.863  14.732
67009SOL     OW 2923   8.225   2.726   1.263
67009SOL    HW1 2924   8.198   2.785   1.334
67009SOL    HW2 2925   8.157   2.658   1.262
67010SOL     OW 2926   5.601   3.158   9.491
67010SOL    HW1 2927   5.606   3.063   9.489
67010SOL    HW2 2928   5.656   3.187   9.419
67011SOL     OW 2929   1.194   2.167   4.606
67011SOL    HW1 2930   1.117   2.182   4.660
67011SOL    HW2 2931   1.181   2.224   4.529
67012SOL     OW 2932  11.998  13.802   9.502
67012SOL    HW1 2933  11.934  13.871   9.483
67012SOL    HW2 2934  11.964  13.758   9.579
67013SOL     OW 2935  14.307   3.508  12.019
67013SOL    HW1 2936  14.380   3.459  11.980
67013SOL    HW2 2937  14.244   3.440  12.043
67014SOL     OW 2938  14.699   6.848  13.371
67014SOL    HW1 2939  14.713   6.923  13.313
67014SOL    HW2 2940  14.727   6.880  13.457
67015SOL     OW 2941   8.788   0.193  14.505
67015SOL    HW1 2942   8.776   0.103  14.475
67015SOL    HW2 2943   8.877   0.216  14.479
67016SOL     OW 2944  10.660  14.505  14.640
67016SOL    HW1 2945  10.716  14.468  14.709
67016SOL    HW2 2946  10.571  14.492  14.672
67017SOL     OW 2947   1.282   0.657   6.776
67017SOL    HW1 2948   1.219   0.587   6.791
67017SOL    HW2 2949   1.296   0.695   6.863
67018SOL     OW 2950  13.485   1.807   2.522
67018SOL    HW1 2951  13.512   1.886   2.476
67018SOL    HW2 2952  13.504   1.736   2.461
67019SOL     OW 2953  14.465  11.516   1.459
67019SOL    HW1 2954  14.545  11.498   1.409
67019SOL    HW2 2955  14.445  11.432   1.501
67020SOL     OW 2956  14.322   8.483   4.672
67020SOL    HW1 2957  14.386   8.423   4.711
67020SOL    HW2 2958  14.268   8.512   4.745
67021SOL     OW 2959  11.796  13.111   2.772
67021SOL    HW1 2960  11.846  13.073   2.700
67021SOL    HW2 2961  11.773  13.199   2.742
67022SOL     OW 2962   8.026   5.953   7.546
67022SOL    HW1 2963   7.979   5.872   7.524
67022SOL    HW2 2964   8.110   5.923   7.580
67023SOL     OW 2965   1.004   5.776   1.624
67023SOL    HW1 2966   0.925   5.724   1.610
67023SOL    HW2 2967   1.032   5.755   1.713
67024SOL     OW 2968   9.202  14.866   0.535
67024SOL    HW1 2969   9.257  14.797   0.498
67024SOL    HW2 2970   9.205  14.849   0.630
67025SOL     OW 2971  10.896   4.364   1.634
67025SOL    HW1 2972  10.897   4.394   1.543
67025SOL    HW2 2973  10.805   4.338   1.649
67026SOL     OW 2974  14.723   4.720  13.711
67026SOL    HW1 2975  14.635   4.756  13.726
67026SOL    HW2 2976  14.779   4.765  13.774
67027SOL     OW 2977  14.457   8.213   3.661
67027SOL    HW1 2978  14.381   8.263   3.689
67027SOL    HW2 2979  14.532   8.261   3.696
67028SOL     OW 2980   0.873   8.096   3.736
67028SOL    HW1 2981   0.950   8.139   3.697
67028SOL    HW2 2982   0.840   8.039   3.667
67029SOL     OW 2983   3.561  12.868   8.408
67029SOL    HW1 2984   3.478  12.831   8.380
67029SOL    HW2 2985   3.577  12.828   8.494
67030SOL     OW 2986  13.071   4.103   8.596
67030SOL    HW1 2987  13.001   4.047   8.561
67030SOL    HW2 2988  13.129   4.043   8.643
67031SOL     OW 2989   1.054   5.584   0.319
67031SOL    HW1 2990   1.094   5.526   0.383
67031SOL    HW2 2991   0.965   5.549   0.308
67032SOL     OW 2992   5.376   6.759  14.152
67032SOL    HW1 2993   5.363   6.852  14.134
67032SOL    HW2 2994   5.433   6.729  14.082
67033SOL     OW 2995   5.928   4.350   0.460
67033SOL    HW1 2996   5.960   4.284   0.398
67033SOL    HW2 2997   5.834   4.354   0.443
67034SOL     OW 2998   0.936  12.885   9.550
67034SOL    HW1 2999   1.016  12.935   9.535
67034SOL    HW2 3000   0.897  12.877   9.463
67035SOL     OW 3001   2.950   6.515   2.477
67035SOL    HW1 3002   2.970   6.541   2.387
67035SOL    HW2 3003   3.026   6.464   2.505
67036SOL     OW 3004   2.645  13.506  12.082
67036SOL    HW1 3005   2.557  13.495  12.046
67036SOL    HW2 3006   2.672  13.594  12.054
67037SOL     OW 3007   2.500  14.317  12.224
67037SOL    HW1 3008   2.519  14.226  12.200
67037SOL    HW2 3009   2.557  14.334  12.299
67038SOL     OW 3010   7.240   0.425  12.696
67038SOL    HW1 3011   7.147   0.432  12.673
67038SOL    HW2 3012   7.283   0.399  12.615
67039SOL     OW 3013   3.283   4.264  11.293
67039SOL    HW1 3014   3.296   4.359  11.303
67039SOL    HW2 3015   3.301   4.229  11.381
67040SOL     OW 3016  12.080  12.463  11.866
67040SOL    HW1 3017  12.016  12.527  11.899
67040SOL    HW2 3018  12.075  12.390  11.927
67041SOL     OW 3019   8.882   0.990   0.284
67041SOL    HW1 3020   8.889   1.080   0.318
67041SOL    HW2 3021   8.874   0.935   0.362
67042SOL     OW 3022   7.654   4.815   8.057
67042SOL    HW1 3023   7.613   4.857   8.133
67042SOL    HW2 3024   7.610   4.853   7.981
67043SOL     OW 3025   8.921   0.733   8.259
67043SOL    HW1 3026   8.971   0.653   8.249
67043SOL    HW2 3027   8.833   0.704   8.282
67044SOL     OW 3028   5.481   2.510   5.783
67044SOL    HW1 3029   5.418   2.440   5.768
67044SOL    HW2 3030   5.428   2.583   5.815
67045SOL     OW 3031  14.658   4.796   5.297
67045SOL    HW1 3032  14.643   4.705   5.272
67045SOL    HW2 3033  14.603   4.847   5.237
67046SOL     OW 3034  10.751   0.758  12.663
67046SOL    HW1 3035  10.832   0.711  12.679
67046SOL    HW2 3036  10.719   0.782  12.750
67047SOL     OW 3037  12.268   6.653   2.116
67047SOL    HW1 3038  12.249   6.610   2.200
67047SOL    HW2 3039  12.324   6.727   2.140
67048SOL     OW 3040   1.942  12.520   0.668
67048SOL    HW1 3041   1.956  12.486   0.757
67048SOL    HW2 3042   1.927  12.441   0.615
67049SOL     OW 3043   9.392   5.893   5.123
67049SOL    HW1 3044   9.363   5.837   5.052
67049SOL    HW2 3045   9.418   5.833   5.193
67050SOL     OW 3046  11.470   5.397   4.252
67050SOL    HW1 3047  11.399   5.455   4.282
67050SOL    HW2 3048  11.426   5.316   4.228
67051SOL     OW 3049   2.812  13.613   1.395
67051SOL    HW1 3050   2.844  13.677   1.331
67051SOL    HW2 3051   2.815  13.529   1.349
67052SOL     OW 3052   8.582  11.572  14.531
67052SOL    HW1 3053   8.663  11.612  14.499
67052SOL    HW2 3054   8.611  11.492  14.575
67053SOL     OW 3055   4.781   2.565   3.867
67053SOL    HW1 3056   4.840   2.564   3.943
67053SOL    HW2 3057   4.826   2.512   3.802
67054SOL     OW 3058   0.141   5.170   6.034
67054SOL    HW1 3059   0.102   5.084   6.051
67054SOL    HW2 3060   0.170   5.165   5.942
67055SOL     OW 3061   1.333   6.982  11.667
67055SOL    HW1 3062   1.280   6.955  11.592
67055SOL    HW2 3063   1.382   6.903  11.691
67056SOL     OW 3064  10.853   9.730   2.059
67056SOL    HW1 3065  10.845   9.752   1.967
67056SOL    HW2 3066  10.934   9.679   2.065
67057SOL     OW 3067  12.599   5.655   8.862
67057SOL    HW1 3068  12.601   5.569   8.906
67057SOL    HW2 3069  12.656   5.644   8.786
67058SOL     OW 3070   3.913   9.139   3.438
67058SOL    HW1 3071   4.003   9.116   3.416
67058SOL    HW2 3072   3.878   9.179   3.357
67059SOL     OW 3073  10.810   8.146   0.677
67059SOL    HW1 3074  10.815   8.240   0.661
67059SOL    HW2 3075  10.830   8.136   0.770
67060SOL     OW 3076   3.575   1.676   0.409
67060SOL    HW1 3077   3.546   1.613   0.474
67060SOL    HW2 3078   3.516   1.663   0.335
67061SOL     OW 3079   0.865   2.011  12.172
67061SOL    HW1 3080   0.937   1.989  12.112
67061SOL    HW2 3081   0.871   2.106  12.183
67062SOL     OW 3082  14.232   9.561   2.858
67062SOL    HW1 3083  14.249   9.589   2.768
67062SOL    HW2 3084  14.300   9.495   2.875
67063SOL     OW 3085   1.756   0.187   1.519
67063SOL    HW1 3086   1.798   0.164   1.602
67063SOL    HW2 3087   1.662   0.191   1.540
67064SOL     OW 3088   7.770  10.168  14.443
67064SOL    HW1 3089   7.785  10.082  14.482
67064SOL    HW2 3090   7.680  10.189  14.466
67065SOL     OW 3091   1.135   4.610   0.542
67065SOL    HW1 3092   1.223   4.593   0.509
67065SOL    HW2 3093   1.148   4.640   0.632
67066SOL     OW 3094   6.034   1.918   8.378
67066SOL    HW1 3095   5.963   1.876   8.328
67066SOL    HW2 3096   6.072   1.981   8.317
67067SOL     OW 3097   7.273   2.728  12.107
67067SOL    HW1 3098   7.334   2.675  12.159
67067SOL    HW2 3099   7.191   2.679  12.108
67068SOL     OW 3100   7.903   5.697  10.053
67068SOL    HW1 3101   7.895   5.776  10.107
67068SOL    HW2 3102   7.880   5.727   9.964
67069SOL     OW 3103   1.873   2.872   7.887
67069SOL    HW1 3104   1.836   2.958   7.906
67069SOL    HW2 3105   1.808   2.831   7.829
67070SOL     OW 3106  12.874   5.740   5.817
67070SOL    HW1 3107  12.932   5.809   5.784
67070SOL    HW2 3108  12.861   5.682   5.742
67071SOL     OW 3109  10.789   4.092   5.700
67071SOL    HW1 3110  10.842   4.032   5.754
67071SOL    HW2 3111  10.716   4.038   5.669
67072SOL     OW 3112   0.584   2.533  13.810
67072SOL    HW1 3113   0.502   2.529  13.760
67072SOL    HW2 3114   0.651   2.545  13.743
67073SOL     OW 3115   9.258  12.341   8.333
67073SOL    HW1 3116   9.316  12.382   8.269
67073SOL    HW2 3117   9.199  12.412   8.360
67074SOL     OW 3118   9.944   9.017  14.586
67074SOL    HW1 3119   9.878   9.051  14.525
67074SOL    HW2 3120   9.894   8.962  14.646
67075SOL     OW 3121   8.959   9.825   1.618
67075SOL    HW1 3122   8.957   9.730   1.607
67075SOL    HW2 3123   9.029   9.854   1.560
67076SOL     OW 3124   4.560   4.736   0.474
67076SOL    HW1 3125   4.473   4.700   0.454
67076SOL    HW2 3126   4.568   4.727   0.569
67077SOL     OW 3127   9.324  14.676   0.421
67077SOL    HW1 3128   9.267  14.600   0.410
67077SOL    HW2 3129   9.388  14.649   0.487
67078SOL     OW 3130  13.539  10.682   3.960
67078SOL    HW1 3131  13.532  10.640   3.874
67078SOL    HW2 3132  13.588  10.762   3.943
67079SOL     OW 3133  14.262   5.278  11.569
67079SOL    HW1 3134  14.199   5.215  11.602
67079SOL    HW2 3135  14.346   5.251  11.607
67080SOL     OW 3136   0.918   3.520  10.989
67080SOL    HW1 3137   0.823   3.537  10.994
67080SOL    HW2 3138   0.930   3.482  10.902
67081SOL     OW 3139   4.126  12.042  14.643
67081SOL    HW1 3140   4.158  11.978  14.706
67081SOL    HW2 3141   4.189  12.114  14.647
67082SOL     OW 3142  12.804  12.558  13.332
67082SOL    HW1 3143  12.787  12.621  13.402
67082SOL    HW2 3144  12.719  12.516  13.316
67083SOL     OW 3145   4.452   8.770  13.238
67083SOL    HW1 3146   4.443   8.676  13.223
67083SOL    HW2 3147   4.365   8.805  13.219
67084SOL     OW 3148   1.765   9.215  10.451
67084SOL    HW1 3149   1.684   9.266  10.454
67084SOL    HW2 3150   1.751   9.151  10.382
67085SOL     OW 3151  13.034  11.574   5.934
67085SOL    HW1 3152  13.098  11.624   5.984
67085SOL    HW2 3153  12.960  11.634   5.923
67086SOL     OW 3154   5.952  11.390  12.474
67086SOL    HW1 3155   6.006  11.382  12.395
67086SOL    HW2 3156   5.928  11.482  12.478
67087SOL     OW 3157   7.412   5.264   7.934
67087SOL    HW1 3158   7.469   5.311   7.995
67087SOL    HW2 3159   7.460   5.267   7.851
67088SOL     OW 3160   3.297   6.285   2.049
67088SOL    HW1 3161   3.371   6.283   2.109
67088SOL    HW2 3162   3.299   6.200   2.005
67089SOL     OW 3163   6.837   1.625   5.643
67089SOL    HW1 3164   6.795   1.692   5.696
67089SOL    HW2 3165   6.914   1.599   5.693
67090SOL     OW 3166   5.957   8.998  14.062
67090SOL    HW1 3167   5.920   8.930  14.006
67090SOL    HW2 3168   5.882   9.030  14.114
67091SOL     OW 3169   6.280  12.722   8.830
67091SOL    HW1 3170   6.318  12.635   8.838
67091SOL    HW2 3171   6.189  12.706   8.806
67092SOL     OW 3172   9.252   2.853   2.454
67092SOL    HW1 3173   9.259   2.924   2.389
67092SOL    HW2 3174   9.192   2.887   2.520
67093SOL     OW 3175   9.056   3.964  11.402
67093SOL    HW1 3176   9.100   3.890  11.359
67093SOL    HW2 3177   9.127   4.025  11.422
67094SOL     OW 3178   8.295   0.400  13.180
67094SOL    HW1 3179   8.240   0.343  13.233
67094SOL    HW2 3180   8.372   0.347  13.159
67095SOL     OW 3181   2.934   1.718  14.377
67095SOL    HW1 3182   2.884   1.748  14.452
67095SOL    HW2 3183   3.021   1.758  14.388
67096SOL     OW 3184  11.049   8.504  14.055
67096SOL    HW1 3185  11.074   8.502  13.963
67096SOL    HW2 3186  10.978   8.440  14.062
67097SOL     OW 3187  11.780  11.444   5.270
67097SOL    HW1 3188  11.855  11.503   5.275
67097SOL    HW2 3189  11.755  11.445   5.177
67098SOL     OW 3190   6.456   4.270   6.413
67098SOL    HW1 3191   6.438   4.186   6.370
67098SOL    HW2 3192   6.417   4.262   6.499
67099SOL     OW 3193  13.056   9.585   0.783
67099SOL    HW1 3194  13.062   9.522   0.854
67099SOL    HW2 3195  12.969   9.624   0.791
67100SOL     OW 3196  11.219   0.707   0.379
67100SOL    HW1 3197  11.139   0.760   0.384
67100SOL    HW2 3198  11.191   0.619   0.401
67101SOL     OW 3199  14.510   2.725   2.941
67101SOL    HW1 3200  14.488   2.639   2.976
67101SOL    HW2 3201  14.521   2.711   2.847
67102SOL     OW 3202  11.531   3.593   3.850
67102SOL    HW1 3203  11.618   3.558   3.833
67102SOL    HW2 3204  11.471   3.529   3.810
67103SOL     OW 3205   6.826   1.423   4.305
67103SOL    HW1 3206   6.870   1.377   4.233
67103SOL    HW2 3207   6.886   1.416   4.379
67104SOL     OW 3208   4.707   4.296   0.287
67104SOL    HW1 3209   4.781   4.293   0.349
67104SOL    HW2 3210   4.680   4.388   0.288
67105SOL     OW 3211   8.069   7.845   1.932
67105SOL    HW1 3212   7.975   7.838   1.948
67105SOL    HW2 3213   8.085   7.790   1.856
67106SOL     OW 3214  14.770  14.190  14.398
67106SOL    HW1 3215  14.863  14.178  14.418
67106SOL    HW2 3216  14.762  14.167  14.306
67107SOL     OW 3217   8.057   5.436   6.728
67107SOL    HW1 3218   7.984   5.376   6.715
67107SOL    HW2 3219   8.123   5.385   6.773
67108SOL     OW 3220  12.954   7.997   8.410
67108SOL    HW1 3221  12.964   8.029   8.500
67108SOL    HW2 3222  12.987   8.069   8.355
67109SOL     OW 3223   9.030  13.186   5.726
67109SOL    HW1 3224   8.956  13.154   5.778
67109SOL    HW2 3225   8.998  13.189   5.636
67110SOL     OW 3226   0.035   0.802   7.441
67110SOL    HW1 3227   0.075   0.812   7.527
67110SOL    HW2 3228   0.090   0.854   7.382
67111SOL     OW 3229  10.416   4.188   0.755
67111SOL    HW1 3230  10.484   4.131   0.791
67111SOL    HW2 3231  10.334   4.155   0.791
67112SOL     OW 3232  11.296   5.044   9.650
67112SOL    HW1 3233  11.286   4.966   9.596
67112SOL    HW2 3234  11.391   5.056   9.657
67113SOL     OW 3235  14.734   7.521  12.227
67113SOL    HW1 3236  14.827   7.540  12.216
67113SOL    HW2 3237  14.730   7.465  12.305
67114SOL     OW 3238  13.843   4.540   9.657
67114SOL    HW1 3239  13.833   4.633   9.680
67114SOL    HW2 3240  13.756   4.502   9.674
67115SOL     OW 3241   8.598   7.513   8.689
67115SOL    HW1 3242   8.504   7.516   8.706
67115SOL    HW2 3243   8.631   7.598   8.717
67116SOL     OW 3244   6.024   2.891   8.676
67116SOL    HW1 3245   6.024   2.805   8.717
67116SOL    HW2 3246   6.030   2.873   8.582
67117SOL     OW 3247   7.335  14.370   2.883
67117SOL    HW1 3248   7.366  14.365   2.973
67117SOL    HW2 3249   7.258  14.313   2.881
67118SOL     OW 3250  11.027  13.660   9.589
67118SOL    HW1 3251  10.938  13.653   9.553
67118SOL    HW2 3252  11.019  13.627   9.678
67119SOL     OW 3253   9.743   7.537  13.106
67119SOL    HW1 3254   9.797   7.572  13.035
67119SOL    HW2 3255   9.728   7.445  13.081
67120SOL     OW 3256   3.760   4.074  11.008
67120SOL    HW1 3257   3.676   4.086  10.964
67120SOL    HW2 3258   3.743   4.006  11.074
67121SOL     OW 3259   2.401   7.430  14.761
67121SOL    HW1 3260   2.446   7.346  14.757
67121SOL    HW2 3261   2.372   7.437  14.852
67122SOL     OW 3262   5.072   4.992   4.859
67122SOL    HW1 3263   5.061   5.057   4.789
67122SOL    HW2 3264   5.066   4.908   4.814
67123SOL     OW 3265   4.533   0.226   8.048
67123SOL    HW1 3266   4.623   0.235   8.078
67123SOL    HW2 3267   4.505   0.142   8.085
67124SOL     OW 3268   4.874   0.963   4.698
67124SOL    HW1 3269   4.951   0.953   4.643
67124SOL    HW2 3270   4.906   1.007   4.777
67125SOL     OW 3271   7.388   1.280   8.549
67125SOL    HW1 3272   7.450   1.331   8.498
67125SOL    HW2 3273   7.436   1.200   8.573
67126SOL     OW 3274   0.565  11.381  11.638
67126SOL    HW1 3275   0.627  11.413  11.573
67126SOL    HW2 3276   0.533  11.298  11.602
67127SOL     OW 3277   7.970   1.293   9.726
67127SOL    HW1 3278   7.892   1.310   9.779
67127SOL    HW2 3279   7.940   1.298   9.636
67128SOL     OW 3280   3.071   1.652  13.270
67128SOL    HW1 3281   3.059   1.564  13.305
67128SOL    HW2 3282   3.112   1.638  13.185
67129SOL     OW 3283   5.098   4.508   4.615
67129SOL    HW1 3284   5.063   4.419   4.627
67129SOL    HW2 3285   5.034   4.551   4.558
67130SOL     OW 3286  12.306   5.456   1.918
67130SOL    HW1 3287  12.247   5.447   1.843
67130SOL    HW2 3288  12.388   5.488   1.880
67131SOL     OW 3289   3.469   9.250   8.544
67131SOL    HW1 3290   3.427   9.242   8.459
67131SOL    HW2 3291   3.421   9.191   8.601
67132SOL     OW 3292  12.078  11.559  11.544
67132SOL    HW1 3293  11.991  11.591  11.522
67132SOL    HW2 3294  12.111  11.622  11.609
67133SOL     OW 3295   0.400   5.831  10.019
67133SOL    HW1 3296   0.382   5.912   9.971
67133SOL    HW2 3297   0.339   5.767   9.983
67134SOL     OW 3298   1.022   3.889   2.017
67134SOL    HW1 3299   1.118   3.895   2.019
67134SOL    HW2 3300   0.997   3.862   2.105
67135SOL     OW 3301   9.215  11.385  14.857
67135SOL    HW1 3302   9.262  11.430   0.052
67135SOL    HW2 3303   9.123  11.399   0.002
67136SOL     OW 3304   0.541   2.348   7.777
67136SOL    HW1 3305   0.564   2.424   7.724
67136SOL    HW2 3306   0.623   2.324   7.821
67137SOL     OW 3307  12.507   5.861   3.001
67137SOL    HW1 3308  12.536   5.770   2.994
67137SOL    HW2 3309  12.563   5.909   2.940
67138SOL     OW 3310   1.693   9.583  14.751
67138SOL    HW1 3311   1.760   9.638  14.711
67138SOL    HW2 3312   1.727   9.562  14.838
67139SOL     OW 3313   7.572   2.200   1.939
67139SOL    HW1 3314   7.565   2.127   1.878
67139SOL    HW2 3315   7.666   2.208   1.956
67140SOL     OW 3316  14.743   1.903  10.611
67140SOL    HW1 3317  14.775   1.982  10.655
67140SOL    HW2 3318  14.711   1.847  10.682
67141SOL     OW 3319   1.845   1.730   8.697
67141SOL    HW1 3320   1.767   1.782   8.681
67141SOL    HW2 3321   1.876   1.758   8.783
67142SOL     OW 3322  14.165  10.854  12.533
67142SOL    HW1 3323  14.211  10.906  12.600
67142SOL    HW2 3324  14.145  10.771  12.577
67143SOL     OW 3325   2.121  14.161   5.682
67143SOL    HW1 3326   2.131  14.066   5.689
67143SOL    HW2 3327   2.121  14.191   5.773
67144SOL     OW 3328   5.153  11.715  14.651
67144SOL    HW1 3329   5.083  11.780  14.646
67144SOL    HW2 3330   5.233  11.767  14.662
67145SOL     OW 3331   6.623   8.075  11.713
67145SOL    HW1 3332   6.580   8.136  11.773
67145SOL    HW2 3333   6.684   8.026  11.768
67146SOL     OW 3334   0.073   6.712  14.120
67146SOL    HW1 3335   0.009   6.733  14.053
67146SOL    HW2 3336   0.086   6.617  14.113
67147SOL     OW 3337  11.214   3.234  10.436
67147SOL    HW1 3338  11.128   3.272  10.422
67147SOL    HW2 3339  11.210   3.198  10.525
67148SOL     OW 3340   1.308   4.627  12.904
67148SOL    HW1 3341   1.397   4.611  12.872
67148SOL    HW2 3342   1.256   4.640  12.824
67149SOL     OW 3343   8.577  10.588   5.704
67149SOL    HW1 3344   8.663  10.559   5.734
67149SOL    HW2 3345   8.549  10.521   5.642
67150SOL     OW 3346  14.341   6.697  13.824
67150SOL    HW1 3347  14.419   6.709  13.769
67150SOL    HW2 3348  14.322   6.785  13.857
67151SOL     OW 3349  13.599   1.895  12.267
67151SOL    HW1 3350  13.507   1.879  12.289
67151SOL    HW2 3351  13.622   1.824  12.207
67152SOL     OW 3352  14.491   4.368   0.155
67152SOL    HW1 3353  14.506   4.283   0.114
67152SOL    HW2 3354  14.398   4.368   0.177
67153SOL     OW 3355   7.555   0.480   2.993
67153SOL    HW1 3356   7.567   0.574   3.000
67153SOL    HW2 3357   7.591   0.458   2.907
67154SOL     OW 3358   6.986   0.004  11.269
67154SOL    HW1 3359   7.035   0.024  11.190
67154SOL    HW2 3360   6.930   0.081  11.282
67155SOL     OW 3361  10.112   0.784  12.912
67155SOL    HW1 3362  10.157   0.850  12.965
67155SOL    HW2 3363  10.022   0.817  12.904
67156SOL     OW 3364   8.014  14.036  12.800
67156SOL    HW1 3365   7.922  14.063  12.797
67156SOL    HW2 3366   8.062  14.110  12.762
67157SOL     OW 3367   7.823   1.410  12.268
67157SOL    HW1 3368   7.876   1.414  12.188
67157SOL    HW2 3369   7.887   1.417  12.339
67158SOL     OW 3370  12.711   6.882   8.348
67158SOL    HW1 3371  12.648   6.906   8.416
67158SOL    HW2 3372  12.793   6.868   8.395
67159SOL     OW 3373  12.361   4.659   8.402
67159SOL    HW1 3374  12.419   4.632   8.473
67159SOL    HW2 3375  12.277   4.677   8.446
67160SOL     OW 3376   5.571  10.544   2.738
67160SOL    HW1 3377   5.597  10.565   2.649
67160SOL    HW2 3378   5.603  10.617   2.791
67161SOL     OW 3379  13.936   5.920   8.745
67161SOL    HW1 3380  13.950   6.015   8.741
67161SOL    HW2 3381  13.845   5.910   8.771
67162SOL     OW 3382   9.657   0.271   5.226
67162SOL    HW1 3383   9.749   0.286   5.204
67162SOL    HW2 3384   9.659   0.245   5.318
67163SOL     OW 3385   1.523  12.610   0.462
67163SOL    HW1 3386   1.528  12.705   0.457
67163SOL    HW2 3387   1.516  12.590   0.555
67164SOL     OW 3388  10.808   2.315  14.772
67164SOL    HW1 3389  10.717   2.327  14.746
67164SOL    HW2 3390  10.836   2.402  14.803
67165SOL     OW 3391   5.624   7.509  12.353
67165SOL    HW1 3392   5.598   7.594  12.388
67165SOL    HW2 3393   5.650   7.458  12.430
67166SOL     OW 3394   5.227  11.942   5.016
67166SOL    HW1 3395   5.255  11.850   5.021
67166SOL    HW2 3396   5.136  11.940   5.047
67167SOL     OW 3397  13.612   2.005   9.353
67167SOL    HW1 3398  13.674   2.059   9.303
67167SOL    HW2 3399  13.651   1.917   9.352
67168SOL     OW 3400   8.205   3.264   3.337
67168SOL    HW1 3401   8.223   3.300   3.424
67168SOL    HW2 3402   8.119   3.222   3.346
67169SOL     OW 3403  11.128  12.953  12.498
67169SOL    HW1 3404  11.086  13.030  12.459
67169SOL    HW2 3405  11.115  12.963  12.592
67170SOL     OW 3406  11.678   5.460  13.496
67170SOL    HW1 3407  11.763   5.421  13.476
67170SOL    HW2 3408  11.672   5.456  13.592
67171SOL     OW 3409   6.091   6.901   1.984
67171SOL    HW1 3410   6.065   6.843   1.913
67171SOL    HW2 3411   6.042   6.982   1.969
67172SOL     OW 3412  13.393   8.153   1.555
67172SOL    HW1 3413  13.364   8.231   1.603
67172SOL    HW2 3414  13.320   8.093   1.560
67173SOL     OW 3415   5.135   8.354  13.381
67173SOL    HW1 3416   5.183   8.366  13.463
67173SOL    HW2 3417   5.201   8.327  13.318
67174SOL     OW 3418   4.624   7.749   8.892
67174SOL    HW1 3419   4.611   7.674   8.834
67174SOL    HW2 3420   4.614   7.712   8.981
67175SOL     OW 3421   1.316   7.762   7.674
67175SOL    HW1 3422   1.282   7.843   7.637
67175SOL    HW2 3423   1.241   7.703   7.678
67176SOL     OW 3424   2.303   9.154   2.828
67176SOL    HW1 3425   2.215   9.192   2.842
67176SOL    HW2 3426   2.361   9.230   2.828
67177SOL     OW 3427  11.063  11.306  13.516
67177SOL    HW1 3428  11.023  11.388  13.488
67177SOL    HW2 3429  11.118  11.279  13.443
67178SOL     OW 3430   7.344   7.289   4.454
67178SOL    HW1 3431   7.429   7.287   4.498
67178SOL    HW2 3432   7.282   7.310   4.523
67179SOL     OW 3433   2.077   4.593   1.224
67179SOL    HW1 3434   2.084   4.685   1.248
67179SOL    HW2 3435   1.988   4.569   1.249
67180SOL     OW 3436   6.613   5.615   4.377
67180SOL    HW1 3437   6.615   5.683   4.444
67180SOL    HW2 3438   6.703   5.580   4.375
67181SOL     OW 3439   0.468   3.558  10.067
67181SOL    HW1 3440   0.454   3.480  10.120
67181SOL    HW2 3441   0.546   3.539  10.016
67182SOL     OW 3442  12.957   2.870  13.690
67182SOL    HW1 3443  12.909   2.907  13.764
67182SOL    HW2 3444  13.012   2.802  13.728
67183SOL     OW 3445   8.671  13.214   2.217
67183SOL    HW1 3446   8.635  13.262   2.143
67183SOL    HW2 3447   8.594  13.177   2.261
67184SOL     OW 3448   9.111   3.502   8.616
67184SOL    HW1 3449   9.093   3.429   8.675
67184SOL    HW2 3450   9.184   3.472   8.562
67185SOL     OW 3451   2.414  13.352   0.289
67185SOL    HW1 3452   2.467  13.312   0.358
67185SOL    HW2 3453   2.378  13.279   0.240
67186SOL     OW 3454   2.300  10.851   4.874
67186SOL    HW1 3455   2.269  10.888   4.957
67186SOL    HW2 3456   2.302  10.925   4.814
67187SOL     OW 3457   8.403  11.105  13.008
67187SOL    HW1 3458   8.485  11.113  13.057
67187SOL    HW2 3459   8.384  11.195  12.979
67188SOL     OW 3460  11.978   2.165  12.940
67188SOL    HW1 3461  12.045   2.123  12.886
67188SOL    HW2 3462  11.925   2.093  12.974
67189SOL     OW 3463   2.251   5.696  12.220
67189SOL    HW1 3464   2.297   5.627  12.269
67189SOL    HW2 3465   2.205   5.746  12.286
67190SOL     OW 3466   3.946   8.860   7.495
67190SOL    HW1 3467   4.025   8.825   7.536
67190SOL    HW2 3468   3.965   8.953   7.483
67191SOL     OW 3469   4.161  12.751  13.877
67191SOL    HW1 3470   4.203  12.717  13.956
67191SOL    HW2 3471   4.143  12.843  13.897
67192SOL     OW 3472   4.716   0.927  13.449
67192SOL    HW1 3473   4.717   0.959  13.359
67192SOL    HW2 3474   4.693   0.834  13.441
67193SOL     OW 3475  14.520   5.022   2.269
67193SOL    HW1 3476  14.472   4.989   2.345
67193SOL    HW2 3477  14.487   4.969   2.196
67194SOL     OW 3478   3.232  10.161   8.036
67194SOL    HW1 3479   3.142  10.162   8.067
67194SOL    HW2 3480   3.276  10.229   8.087
67195SOL     OW 3481   8.662  11.923   0.160
67195SOL    HW1 3482   8.626  12.000   0.116
67195SOL    HW2 3483   8.741  11.955   0.203
67196SOL     OW 3484   6.994   8.361  14.128
67196SOL    HW1 3485   6.909   8.404  14.138
67196SOL    HW2 3486   7.018   8.378  14.037
67197SOL     OW 3487   6.769   1.061  11.046
67197SOL    HW1 3488   6.807   0.973  11.041
67197SOL    HW2 3489   6.676   1.048  11.028
67198SOL     OW 3490   7.136   2.713   5.893
67198SOL    HW1 3491   7.205   2.720   5.959
67198SOL    HW2 3492   7.063   2.671   5.939
67199SOL     OW 3493   1.719   9.226   9.475
67199SOL    HW1 3494   1.625   9.209   9.466
67199SOL    HW2 3495   1.726   9.320   9.491
67200SOL     OW 3496   9.713   7.833  13.818
67200SOL    HW1 3497   9.651   7.803  13.884
67200SOL    HW2 3498   9.661   7.846  13.739
67201SOL     OW 3499   6.474   9.134   2.568
67201SOL    HW1 3500   6.497   9.187   2.491
67201SOL    HW2 3501   6.410   9.072   2.535
67202SOL     OW 3502   1.563  10.443   1.879
67202SOL    HW1 3503   1.574  10.413   1.969
67202SOL    HW2 3504   1.650  10.470   1.852
67203SOL     OW 3505   0.835  14.385  10.908
67203SOL    HW1 3506   0.821  14.348  10.994
67203SOL    HW2 3507   0.930  14.381  10.895
67204SOL     OW 3508   7.040  10.295   1.908
67204SOL    HW1 3509   7.133  10.273   1.909
67204SOL    HW2 3510   7.039  10.390   1.898
67205SOL     OW 3511  11.537  11.680   0.021
67205SOL    HW1 3512  11.481  11.752  14.865
67205SOL    HW2 3513  11.617  11.723   0.052
67206SOL     OW 3514  14.394   2.810   6.894
67206SOL    HW1 3515  14.469   2.841   6.844
67206SOL    HW2 3516  14.373   2.882   6.954
67207SOL     OW 3517   0.064  10.501   2.490
67207SOL    HW1 3518  14.864  10.559   2.504
67207SOL    HW2 3519   0.094  10.523   2.402
67208SOL     OW 3520   0.613  11.447   1.323
67208SOL    HW1 3521   0.675  11.435   1.251
67208SOL    HW2 3522   0.534  11.479   1.282
67209SOL     OW 3523  13.280   7.607   7.251
67209SOL    HW1 3524  13.352   7.670   7.243
67209SOL    HW2 3525  13.203   7.661   7.268
67210SOL     OW 3526  10.907   8.567   5.178
67210SOL    HW1 3527  10.885   8.492   5.121
67210SOL    HW2 3528  11.001   8.579   5.165
67211SOL     OW 3529   6.023  12.563   6.037
67211SOL    HW1 3530   5.978  12.548   5.954
67211SOL    HW2 3531   6.102  12.509   6.031
67212SOL     OW 3532   4.468  10.431   1.453
67212SOL    HW1 3533   4.490  10.511   1.405
67212SOL    HW2 3534   4.550  10.404   1.493
67213SOL     OW 3535  10.375   0.790   5.655
67213SOL    HW1 3536  10.373   0.716   5.716
67213SOL    HW2 3537  10.389   0.749   5.569
67214SOL     OW 3538   6.211   2.222   6.197
67214SOL    HW1 3539   6.261   2.279   6.140
67214SOL    HW2 3540   6.274   2.157   6.229
67215SOL     OW 3541   8.428  10.084   4.322
67215SOL    HW1 3542   8.475  10.165   4.300
67215SOL    HW2 3543   8.471  10.052   4.401
67216SOL     OW 3544   0.683  13.834  10.184
67216SOL    HW1 3545   0.620  13.861  10.118
67216SOL    HW2 3546   0.678  13.902  10.252
67217SOL     OW 3547  10.677   4.663   3.717
67217SOL    HW1 3548  10.773   4.658   3.712
67217SOL    HW2 3549  10.657   4.755   3.698
67218SOL     OW 3550  10.425  13.102   3.446
67218SOL    HW1 3551  10.374  13.177   3.477
67218SOL    HW2 3552  10.443  13.121   3.354
67219SOL     OW 3553   9.157   7.288  11.460
67219SOL    HW1 3554   9.083   7.238  11.424
67219SOL    HW2 3555   9.234   7.237  11.434
67220SOL     OW 3556  13.074   5.839   9.197
67220SOL    HW1 3557  13.101   5.903   9.130
67220SOL    HW2 3558  12.998   5.796   9.159
67221SOL     OW 3559   9.042  12.976   5.463
67221SOL    HW1 3560   9.134  12.968   5.440
67221SOL    HW2 3561   9.000  12.899   5.423
67222SOL     OW 3562  12.929   5.653  11.177
67222SOL    HW1 3563  13.016   5.692  11.171
67222SOL    HW2 3564  12.869   5.728  11.184
67223SOL     OW 3565  12.983  12.140  13.781
67223SOL    HW1 3566  12.992  12.046  13.793
67223SOL    HW2 3567  12.970  12.152  13.687
67224SOL     OW 3568   5.981   3.386   1.468
67224SOL    HW1 3569   5.952   3.363   1.380
67224SOL    HW2 3570   5.941   3.318   1.524
67225SOL     OW 3571   5.279   3.513   6.068
67225SOL    HW1 3572   5.371   3.539   6.060
67225SOL    HW2 3573   5.272   3.434   6.013
67226SOL     OW 3574  12.920   0.720   4.680
67226SOL    HW1 3575  12.989   0.654   4.679
67226SOL    HW2 3576  12.872   0.705   4.598
67227SOL     OW 3577  14.748   9.618   1.726
67227SOL    HW1 3578  14.662   9.611   1.686
67227SOL    HW2 3579  14.796   9.679   1.670
67228SOL     OW 3580   5.682   2.660   0.457
67228SOL    HW1 3581   5.610   2.721   0.471
67228SOL    HW2 3582   5.757   2.703   0.498
67229SOL     OW 3583   6.760  12.332   6.751
67229SOL    HW1 3584   6.692  12.297   6.694
67229SOL    HW2 3585   6.828  12.265   6.753
67230SOL     OW 3586   1.767   5.653  14.330
67230SOL    HW1 3587   1.760   5.669  14.424
67230SOL    HW2 3588   1.699   5.588  14.312
67231SOL     OW 3589   2.288  10.569   6.970
67231SOL    HW1 3590   2.253  10.658   6.958
67231SOL    HW2 3591   2.277  10.528   6.884
67232SOL     OW 3592   3.088  10.449   1.596
67232SOL    HW1 3593   3.131  10.426   1.678
67232SOL    HW2 3594   3.005  10.489   1.623
67233SOL     OW 3595  13.583   9.748   0.028
67233SOL    HW1 3596  13.631   9.704  14.833
67233SOL    HW2 3597  13.534   9.678   0.071
67234SOL     OW 3598   4.212   1.655   8.235
67234SOL    HW1 3599   4.306   1.662   8.253
67234SOL    HW2 3600   4.174   1.734   8.274
67235SOL     OW 3601   1.832  11.882  12.690
67235SOL    HW1 3602   1.834  11.791  12.659
67235SOL    HW2 3603   1.860  11.876  12.781
67236SOL     OW 3604  10.934  10.951   5.798
67236SOL    HW1 3605  10.876  10.979   5.728
67236SOL    HW2 3606  10.988  11.027   5.817
67237SOL     OW 3607   9.038   4.125   9.243
67237SOL    HW1 3608   9.007   4.175   9.168
67237SOL    HW2 3609   9.126   4.158   9.260
67238SOL     OW 3610  12.794   7.455   8.576
67238SOL    HW1 3611  12.766   7.510   8.649
67238SOL    HW2 3612  12.714   7.408   8.550
67239SOL     OW 3613  10.085  10.031   8.298
67239SOL    HW1 3614  10.120   9.943   8.285
67239SOL    HW2 3615  10.127  10.085   8.231
67240SOL     OW 3616   5.119   8.178   6.959
67240SOL    HW1 3617   5.127   8.206   6.868
67240SOL    HW2 3618   5.208   8.152   6.983
67241SOL     OW 3619   1.555  13.241   2.505
67241SOL    HW1 3620   1.557  13.163   2.450
67241SOL    HW2 3621   1.638  13.238   2.553
67242SOL     OW 3622   2.944  11.815   1.461
67242SOL    HW1 3623   2.874  11.776   1.514
67242SOL    HW2 3624   2.902  11.886   1.414
67243SOL     OW 3625   1.019  13.402  11.544
67243SOL    HW1 3626   0.985  13.491  11.554
67243SOL    HW2 3627   1.005  13.361  11.629
67244SOL     OW 3628   1.597   8.115  10.876
67244SOL    HW1 3629   1.572   8.157  10.794
67244SOL    HW2 3630   1.684   8.150  10.895
67245SOL     OW 3631   9.149   2.449   1.888
67245SOL    HW1 3632   9.168   2.479   1.977
67245SOL    HW2 3633   9.196   2.511   1.832
67246SOL     OW 3634  13.281   9.838   1.610
67246SOL    HW1 3635  13.255   9.859   1.520
67246SOL    HW2 3636  13.374   9.818   1.604
67247SOL     OW 3637   9.959   4.553   2.144
67247SOL    HW1 3638  10.001   4.549   2.230
67247SOL    HW2 3639   9.897   4.625   2.151
67248SOL     OW 3640   0.158  12.174  13.875
67248SOL    HW1 3641   0.115  12.239  13.819
67248SOL    HW2 3642   0.127  12.194  13.963
67249SOL     OW 3643   5.592   3.801   4.610
67249SOL    HW1 3644   5.529   3.732   4.589
67249SOL    HW2 3645   5.594   3.857   4.532
67250SOL     OW 3646   0.396   6.155  12.207
67250SOL    HW1 3647   0.308   6.167  12.171
67250SOL    HW2 3648   0.455   6.184  12.137
67251SOL     OW 3649  12.137   4.682   2.548
67251SOL    HW1 3650  12.159   4.589   2.545
67251SOL    HW2 3651  12.196   4.723   2.485
67252SOL     OW 3652  10.683  12.968  12.912
67252SOL    HW1 3653  10.761  12.916  12.891
67252SOL    HW2 3654  10.663  13.016  12.832
67253SOL     OW 3655  14.201   4.367  10.188
67253SOL    HW1 3656  14.218   4.273  10.178
67253SOL    HW2 3657  14.287   4.408  10.179
67254SOL     OW 3658   3.594   0.018  12.988
67254SOL    HW1 3659   3.637   0.091  13.032
67254SOL    HW2 3660   3.574   0.052  12.900
67255SOL     OW 3661   2.517   2.288  12.977
67255SOL    HW1 3662   2.446   2.260  12.919
67255SOL    HW2 3663   2.516   2.224  13.048
67256SOL     OW 3664   2.555   7.308   7.259
67256SOL    HW1 3665   2.576   7.389   7.212
67256SOL    HW2 3666   2.613   7.242   7.221
67257SOL     OW 3667  13.010   6.969   1.577
67257SOL    HW1 3668  12.999   6.907   1.649
67257SOL    HW2 3669  12.921   6.999   1.557
67258SOL     OW 3670   6.659   9.349  12.468
67258SOL    HW1 3671   6.633   9.313  12.553
67258SOL    HW2 3672   6.591   9.415  12.449
67259SOL     OW 3673   8.276   4.139   6.378
67259SOL    HW1 3674   8.327   4.058   6.381
67259SOL    HW2 3675   8.187   4.113   6.400
67260SOL     OW 3676   7.396   0.168   9.936
67260SOL    HW1 3677   7.319   0.123   9.971
67260SOL    HW2 3678   7.471   0.124   9.976
67261SOL     OW 3679   4.870   3.558  10.139
67261SOL    HW1 3680   4.882   3.490  10.205
67261SOL    HW2 3681   4.775   3.567  10.132
67262SOL     OW 3682   4.358   2.915   7.306
67262SOL    HW1 3683   4.434   2.973   7.314
67262SOL    HW2 3684   4.316   2.917   7.392
67263SOL     OW 3685  13.792   9.224   0.476
67263SOL    HW1 3686  13.864   9.270   0.433
67263SOL    HW2 3687  13.807   9.238   0.570
67264SOL     OW 3688   7.666   3.044  14.063
67264SOL    HW1 3689   7.736   3.075  14.007
67264SOL    HW2 3690   7.639   3.121  14.113
67265SOL     OW 3691   5.991   7.190  12.585
67265SOL    HW1 3692   6.025   7.103  12.565
67265SOL    HW2 3693   5.966   7.185  12.678
67266SOL     OW 3694  12.780   7.118  11.519
67266SOL    HW1 3695  12.765   7.055  11.449
67266SOL    HW2 3696  12.855   7.169  11.489
67267SOL     OW 3697   3.986   3.538   3.876
67267SOL    HW1 3698   3.952   3.456   3.911
67267SOL    HW2 3699   4.016   3.586   3.952
67268SOL     OW 3700   6.496   8.163   3.893
67268SOL    HW1 3701   6.422   8.168   3.953
67268SOL    HW2 3702   6.513   8.253   3.868
67269SOL     OW 3703  12.917   2.442   8.370
67269SOL    HW1 3704  12.981   2.491   8.319
67269SOL    HW2 3705  12.964   2.413   8.448
67270SOL     OW 3706   4.850  10.149   1.467
67270SOL    HW1 3707   4.786  10.167   1.397
67270SOL    HW2 3708   4.809  10.080   1.519
67271SOL     OW 3709   6.647   3.208   1.419
67271SOL    HW1 3710   6.623   3.120   1.447
67271SOL    HW2 3711   6.579   3.234   1.357
67272SOL     OW 3712  10.715   0.797  10.545
67272SOL    HW1 3713  10.622   0.821  10.552
67272SOL    HW2 3714  10.738   0.818  10.455
67273SOL     OW 3715  13.519   1.903  10.812
67273SOL    HW1 3716  13.604   1.923  10.852
67273SOL    HW2 3717  13.467   1.982  10.827
67274SOL     OW 3718   9.682   5.619  11.986
67274SOL    HW1 3719   9.650   5.651  11.901
67274SOL    HW2 3720   9.724   5.696  12.025
67275SOL     OW 3721   2.484  11.155   9.870
67275SOL    HW1 3722   2.579  11.165   9.881
67275SOL    HW2 3723   2.448  11.179   9.956
67276SOL     OW 3724  12.769   8.000   2.636
67276SOL    HW1 3725  12.675   8.016   2.626
67276SOL    HW2 3726  12.777   7.905   2.635
67277SOL     OW 3727   0.116  13.448   9.453
67277SOL    HW1 3728   0.030  13.429   9.491
67277SOL    HW2 3729   0.153  13.515   9.510
67278SOL     OW 3730   4.828  10.236  12.622
67278SOL    HW1 3731   4.806  10.230  12.715
67278SOL    HW2 3732   4.776  10.310  12.590
67279SOL     OW 3733  12.417   8.330   9.238
67279SOL    HW1 3734  12.349   8.350   9.174
67279SOL    HW2 3735  12.442   8.415   9.274
67280SOL     OW 3736   6.801   0.715   4.950
67280SOL    HW1 3737   6.866   0.730   5.019
67280SOL    HW2 3738   6.835   0.763   4.874
67281SOL     OW 3739  13.032   8.916   0.206
67281SOL    HW1 3740  12.989   8.830   0.197
67281SOL    HW2 3741  13.105   8.900   0.266
67282SOL     OW 3742   2.035  12.155   2.901
67282SOL    HW1 3743   2.099  12.111   2.845
67282SOL    HW2 3744   1.959  12.098   2.900
67283SOL     OW 3745   2.363   7.829   1.464
67283SOL    HW1 3746   2.417   7.832   1.385
67283SOL    HW2 3747   2.360   7.920   1.494
67284SOL     OW 3748   3.535   7.346   7.452
67284SOL    HW1 3749   3.536   7.389   7.538
67284SOL    HW2 3750   3.454   7.295   7.452
67285SOL     OW 3751   3.999   5.860  13.495
67285SOL    HW1 3752   3.906   5.878  13.508
67285SOL    HW2 3753   4.011   5.865  13.400
67286SOL     OW 3754  14.330   1.780   6.406
67286SOL    HW1 3755  14.373   1.803   6.323
67286SOL    HW2 3756  14.390   1.813   6.473
67287SOL     OW 3757   7.689   7.423  13.909
67287SOL    HW1 3758   7.769   7.389  13.868
67287SOL    HW2 3759   7.620   7.364  13.880
67288SOL     OW 3760  12.817  11.762   6.125
67288SOL    HW1 3761  12.856  11.734   6.208
67288SOL    HW2 3762  12.726  11.732   6.129
67289SOL     OW 3763  14.024  12.217   1.607
67289SOL    HW1 3764  14.111  12.237   1.572
67289SOL    HW2 3765  13.967  12.284   1.569
67290SOL     OW 3766   4.210  11.002   4.460
67290SOL    HW1 3767   4.280  11.068   4.465
67290SOL    HW2 3768   4.245  10.935   4.400
67291SOL     OW 3769   4.984  12.481   1.852
67291SOL    HW1 3770   4.952  12.529   1.776
67291SOL    HW2 3771   5.058  12.429   1.819
67292SOL     OW 3772   9.881  12.568  12.800
67292SOL    HW1 3773   9.820  12.513  12.849
67292SOL    HW2 3774   9.960  12.515  12.791
67293SOL     OW 3775   9.352   6.842   6.060
67293SOL    HW1 3776   9.270   6.827   6.014
67293SOL    HW2 3777   9.403   6.762   6.045
67294SOL     OW 3778  12.232   5.349   7.697
67294SOL    HW1 3779  12.198   5.410   7.762
67294SOL    HW2 3780  12.288   5.290   7.747
67295SOL     OW 3781  14.573   5.007   3.766
67295SOL    HW1 3782  14.637   5.078   3.774
67295SOL    HW2 3783  14.624   4.928   3.783
67296SOL     OW 3784   8.599  10.799   8.430
67296SOL    HW1 3785   8.533  10.864   8.405
67296SOL    HW2 3786   8.548  10.721   8.453
67297SOL     OW 3787   8.980  10.729   6.356
67297SOL    HW1 3788   8.973  10.757   6.447
67297SOL    HW2 3789   9.020  10.804   6.311
67298SOL     OW 3790   0.683  11.427  13.983
67298SOL    HW1 3791   0.627  11.485  14.034
67298SOL    HW2 3792   0.747  11.394  14.046
67299SOL     OW 3793  13.252   2.893  11.018
67299SOL    HW1 3794  13.204   2.812  11.002
67299SOL    HW2 3795  13.315   2.899  10.946
67300SOL     OW 3796  13.171   2.838   1.941
67300SOL    HW1 3797  13.172   2.744   1.925
67300SOL    HW2 3798  13.260   2.867   1.919
67301SOL     OW 3799   0.555   7.332  12.594
67301SOL    HW1 3800   0.606   7.337  12.674
67301SOL    HW2 3801   0.619   7.341  12.523
67302SOL     OW 3802  11.801   5.515  13.759
67302SOL    HW1 3803  11.860   5.488  13.688
67302SOL    HW2 3804  11.779   5.606  13.739
67303SOL     OW 3805   9.748   4.659   8.268
67303SOL    HW1 3806   9.688   4.639   8.339
67303SOL    HW2 3807   9.784   4.745   8.291
67304SOL     OW 3808   2.535  12.069   6.902
67304SOL    HW1 3809   2.482  12.015   6.960
67304SOL    HW2 3810   2.626  12.049   6.927
67305SOL     OW 3811   9.002   1.393   2.285
67305SOL    HW1 3812   8.970   1.461   2.225
67305SOL    HW2 3813   9.027   1.441   2.364
67306SOL     OW 3814  13.618  13.583   0.899
67306SOL    HW1 3815  13.543  13.536   0.863
67306SOL    HW2 3816  13.596  13.595   0.991
67307SOL     OW 3817  13.095   5.781   7.367
67307SOL    HW1 3818  13.107   5.761   7.275
67307SOL    HW2 3819  13.092   5.877   7.371
67308SOL     OW 3820   8.513  12.785   3.011
67308SOL    HW1 3821   8.442  12.753   3.067
67308SOL    HW2 3822   8.591  12.776   3.065
67309SOL     OW 3823   6.858   8.334   1.518
67309SOL    HW1 3824   6.806   8.265   1.560
67309SOL    HW2 3825   6.818   8.343   1.431
67310SOL     OW 3826   8.738  11.543   4.379
67310SOL    HW1 3827   8.720  11.566   4.288
67310SOL    HW2 3828   8.692  11.610   4.430
67311SOL     OW 3829  12.192   2.741   1.051
67311SOL    HW1 3830  12.264   2.728   0.989
67311SOL    HW2 3831  12.114   2.710   1.003
67312SOL     OW 3832   0.217   0.768   2.628
67312SOL    HW1 3833   0.147   0.783   2.565
67312SOL    HW2 3834   0.172   0.732   2.705
67313SOL     OW 3835   9.606   2.184  14.654
67313SOL    HW1 3836   9.580   2.175  14.563
67313SOL    HW2 3837   9.689   2.137  14.661
67314SOL     OW 3838   5.637   5.552   7.965
67314SOL    HW1 3839   5.576   5.607   8.014
67314SOL    HW2 3840   5.694   5.514   8.031
67315SOL     OW 3841  13.265  10.577  10.948
67315SOL    HW1 3842  13.216  10.602  10.869
67315SOL    HW2 3843  13.228  10.632  11.017
67316SOL     OW 3844   8.303   7.316  12.478
67316SOL    HW1 3845   8.282   7.259  12.551
67316SOL    HW2 3846   8.269   7.270  12.401
67317SOL     OW 3847  10.327   4.656   1.541
67317SOL    HW1 3848  10.258   4.594   1.563
67317SOL    HW2 3849  10.403   4.626   1.592
67318SOL     OW 3850   3.414   3.102   5.993
67318SOL    HW1 3851   3.346   3.051   5.949
67318SOL    HW2 3852   3.367   3.169   6.043
67319SOL     OW 3853  12.008   3.056  14.511
67319SOL    HW1 3854  11.923   3.031  14.545
67319SOL    HW2 3855  12.070   3.000  14.557
67320SOL     OW 3856   7.799   6.346   6.679
67320SOL    HW1 3857   7.866   6.293   6.634
67320SOL    HW2 3858   7.777   6.295   6.757
67321SOL     OW 3859   6.218  10.860   6.175
67321SOL    HW1 3860   6.306  10.896   6.160
67321SOL    HW2 3861   6.221  10.829   6.266
67322SOL     OW 3862   4.050   4.145   9.341
67322SOL    HW1 3863   4.139   4.179   9.345
67322SOL    HW2 3864   4.018   4.168   9.254
67323SOL     OW 3865  11.937   5.133  12.316
67323SOL    HW1 3866  11.989   5.137  12.396
67323SOL    HW2 3867  11.851   5.166  12.342
67324SOL     OW 3868   8.947   2.670  13.449
67324SOL    HW1 3869   8.958   2.653  13.356
67324SOL    HW2 3870   9.031   2.709  13.476
67325SOL     OW 3871   5.163  10.091   9.789
67325SOL    HW1 3872   5.204  10.124   9.710
67325SOL    HW2 3873   5.112  10.015   9.759
67326SOL     OW 3874   1.652   1.443   8.733
67326SOL    HW1 3875   1.741   1.446   8.698
67326SOL    HW2 3876   1.611   1.370   8.688
67327SOL     OW 3877   8.134  11.109  12.903
67327SOL    HW1 3878   8.203  11.067  12.955
67327SOL    HW2 3879   8.056  11.055  12.918
67328SOL     OW 3880   3.379   9.316   9.382
67328SOL    HW1 3881   3.409   9.392   9.431
67328SOL    HW2 3882   3.450   9.299   9.320
67329SOL     OW 3883  13.787   2.750   1.588
67329SOL    HW1 3884  13.813   2.791   1.505
67329SOL    HW2 3885  13.719   2.687   1.563
67330SOL     OW 3886   6.337  11.936   0.200
67330SOL    HW1 3887   6.425  11.900   0.213
67330SOL    HW2 3888   6.289  11.910   0.279
67331SOL     OW 3889   1.535   5.784   9.986
67331SOL    HW1 3890   1.619   5.827   9.969
67331SOL    HW2 3891   1.472   5.832   9.932
67332SOL     OW 3892   1.138  12.190   6.237
67332SOL    HW1 3893   1.105  12.272   6.274
67332SOL    HW2 3894   1.141  12.130   6.311
67333SOL     OW 3895  14.186   7.351  12.522
67333SOL    HW1 3896  14.152   7.428  12.475
67333SOL    HW2 3897  14.176   7.374  12.614
67334SOL     OW 3898   6.214  12.087   1.976
67334SOL    HW1 3899   6.158  12.036   1.917
67334SOL    HW2 3900   6.262  12.146   1.919
67335SOL     OW 3901   4.794  11.118   6.828
67335SOL    HW1 3902   4.773  11.024   6.828
67335SOL    HW2 3903   4.873  11.124   6.882
67336SOL     OW 3904   6.174   5.272   1.295
67336SOL    HW1 3905   6.205   5.181   1.300
67336SOL    HW2 3906   6.201   5.310   1.379
67337SOL     OW 3907   8.966  11.095   0.735
67337SOL    HW1 3908   8.998  11.076   0.647
67337SOL    HW2 3909   9.018  11.040   0.792
67338SOL     OW 3910   7.176   3.141   7.770
67338SOL    HW1 3911   7.168   3.194   7.691
67338SOL    HW2 3912   7.254   3.087   7.755
67339SOL     OW 3913   1.245   7.872   8.025
67339SOL    HW1 3914   1.194   7.793   8.044
67339SOL    HW2 3915   1.265   7.909   8.110
67340SOL     OW 3916  12.867  11.146   7.812
67340SOL    HW1 3917  12.918  11.224   7.793
67340SOL    HW2 3918  12.875  11.135   7.907
67341SOL     OW 3919   2.890  11.190  11.996
67341SOL    HW1 3920   2.909  11.245  12.072
67341SOL    HW2 3921   2.795  11.183  11.994
67342SOL     OW 3922   8.693   9.895   8.250
67342SOL    HW1 3923   8.627   9.926   8.187
67342SOL    HW2 3924   8.777   9.914   8.208
67343SOL     OW 3925   4.365  10.779   1.459
67343SOL    HW1 3926   4.330  10.818   1.539
67343SOL    HW2 3927   4.410  10.700   1.489
67344SOL     OW 3928   6.980   3.331   9.574
67344SOL    HW1 3929   6.887   3.345   9.591
67344SOL    HW2 3930   7.007   3.406   9.521
67345SOL     OW 3931   3.100  10.980  14.320
67345SOL    HW1 3932   3.089  11.006  14.228
67345SOL    HW2 3933   3.017  10.936  14.342
67346SOL     OW 3934  10.680  10.965   9.102
67346SOL    HW1 3935  10.668  11.017   9.181
67346SOL    HW2 3936  10.604  10.907   9.099
67347SOL     OW 3937  12.221  14.854   3.454
67347SOL    HW1 3938  12.283  14.827   3.521
67347SOL    HW2 3939  12.271  14.853   3.372
67348SOL     OW 3940   2.283   7.389   3.747
67348SOL    HW1 3941   2.307   7.467   3.698
67348SOL    HW2 3942   2.190   7.375   3.726
67349SOL     OW 3943   5.938  10.975   6.306
67349SOL    HW1 3944   6.011  11.022   6.266
67349SOL    HW2 3945   5.970  10.950   6.392
67350SOL     OW 3946   9.770   8.585   0.820
67350SOL    HW1 3947   9.708   8.567   0.890
67350SOL    HW2 3948   9.853   8.548   0.851
67351SOL     OW 3949   0.958   1.771   1.895
67351SOL    HW1 3950   0.889   1.806   1.839
67351SOL    HW2 3951   0.964   1.679   1.870
67352SOL     OW 3952  10.172  10.284   2.634
67352SOL    HW1 3953  10.213  10.214   2.684
67352SOL    HW2 3954  10.244  10.326   2.587
67353SOL     OW 3955   2.743   7.134   3.251
67353SOL    HW1 3956   2.731   7.054   3.200
67353SOL    HW2 3957   2.679   7.195   3.215
67354SOL     OW 3958   6.139   6.079   1.004
67354SOL    HW1 3959   6.067   6.038   1.052
67354SOL    HW2 3960   6.192   6.006   0.974
67355SOL     OW 3961   6.266  12.527   3.821
67355SOL    HW1 3962   6.261  12.523   3.916
67355SOL    HW2 3963   6.212  12.455   3.791
67356SOL     OW 3964   8.386   3.275   9.640
67356SOL    HW1 3965   8.312   3.311   9.592
67356SOL    HW2 3966   8.449   3.347   9.645
67357SOL     OW 3967   6.825   6.520   5.357
67357SOL    HW1 3968   6.876   6.442   5.337
67357SOL    HW2 3969   6.749   6.515   5.299
67358SOL     OW 3970   6.144  13.323  11.092
67358SOL    HW1 3971   6.084  13.267  11.142
67358SOL    HW2 3972   6.221  13.269  11.078
67359SOL     OW 3973   1.175  11.020  11.053
67359SOL    HW1 3974   1.083  11.004  11.030
67359SOL    HW2 3975   1.217  11.045  10.971
67360SOL     OW 3976   5.112  11.546  14.192
67360SOL    HW1 3977   5.103  11.474  14.130
67360SOL    HW2 3978   5.109  11.625  14.138
67361SOL     OW 3979   2.269  10.499   4.924
67361SOL    HW1 3980   2.260  10.594   4.922
67361SOL    HW2 3981   2.270  10.477   5.017
67362SOL     OW 3982  11.246   0.639  14.784
67362SOL    HW1 3983  11.219   0.562  14.735
67362SOL    HW2 3984  11.217   0.623  14.874
67363SOL     OW 3985   9.220  11.338   9.585
67363SOL    HW1 3986   9.243  11.320   9.676
67363SOL    HW2 3987   9.303  11.330   9.537
67364SOL     OW 3988   7.934   6.488  11.991
67364SOL    HW1 3989   7.935   6.575  11.949
67364SOL    HW2 3990   7.960   6.506  12.081
67365SOL     OW 3991   8.171  13.224  10.311
67365SOL    HW1 3992   8.243  13.199  10.368
67365SOL    HW2 3993   8.121  13.288  10.362
67366SOL     OW 3994   9.082   3.375   3.532
67366SOL    HW1 3995   9.072   3.280   3.526
67366SOL    HW2 3996   9.171   3.392   3.503
67367SOL     OW 3997   9.592   1.375   7.069
67367SOL    HW1 3998   9.602   1.321   7.147
67367SOL    HW2 3999   9.583   1.313   6.997
67368SOL     OW 4000  12.785   9.460   7.888
67368SOL    HW1 4001  12.700   9.501   7.902
67368SOL    HW2 4002  12.765   9.368   7.870
67369SOL     OW 4003   6.177   1.632   3.542
67369SOL    HW1 4004   6.180   1.670   3.629
67369SOL    HW2 4005   6.268   1.617   3.519
67370SOL     OW 4006   5.813   5.585  11.484
67370SOL    HW1 4007   5.813   5.643  11.408
67370SOL    HW2 4008   5.741   5.524  11.468
67371SOL     OW 4009   6.193  11.900  11.848
67371SOL    HW1 4010   6.186  11.822  11.792
67371SOL    HW2 4011   6.281  11.933  11.833
67372SOL     OW 4012   4.164   5.569   2.800
67372SOL    HW1 4013   4.187   5.586   2.709
67372SOL    HW2 4014   4.165   5.474   2.807
67373SOL     OW 4015  11.633   5.769  10.378
67373SOL    HW1 4016  11.587   5.733  10.453
67373SOL    HW2 4017  11.632   5.699  10.313
67374SOL     OW 4018   8.691  10.325   8.034
67374SOL    HW1 4019   8.768  10.321   7.977
67374SOL    HW2 4020   8.710  10.263   8.104
67375SOL     OW 4021  13.167   5.861   1.964
67375SOL    HW1 4022  13.098   5.799   1.939
67375SOL    HW2 4023  13.237   5.845   1.901
67376SOL     OW 4024   1.799   9.985   6.910
67376SOL    HW1 4025   1.853  10.046   6.959
67376SOL    HW2 4026   1.792  10.023   6.822
67377SOL     OW 4027  10.295   8.716   0.811
67377SOL    HW1 4028  10.335   8.634   0.782
67377SOL    HW2 4029  10.233   8.738   0.741
67378SOL     OW 4030   0.338   2.518   2.066
67378SOL    HW1 4031   0.320   2.611   2.079
67378SOL    HW2 4032   0.303   2.475   2.144
67379SOL     OW 4033   3.280   6.223  14.710
67379SOL    HW1 4034   3.328   6.140  14.720
67379SOL    HW2 4035   3.211   6.203  14.646
67380SOL     OW 4036   8.612   6.943   0.544
67380SOL    HW1 4037   8.556   7.002   0.595
67380SOL    HW2 4038   8.619   6.986   0.459
67381SOL     OW 4039  10.825   3.122  10.566
67381SOL    HW1 4040  10.752   3.146  10.622
67381SOL    HW2 4041  10.882   3.199  10.567
67382SOL     OW 4042  14.008  14.721   0.673
67382SOL    HW1 4043  14.041  14.808   0.650
67382SOL    HW2 4044  13.942  14.738   0.740
67383SOL     OW 4045   4.245   0.423   7.791
67383SOL    HW1 4046   4.256   0.398   7.882
67383SOL    HW2 4047   4.305   0.496   7.778
67384SOL     OW 4048   1.755   4.345   9.092
67384SOL    HW1 4049   1.760   4.420   9.151
67384SOL    HW2 4050   1.726   4.273   9.147
67385SOL     OW 4051   5.929   2.740   5.048
67385SOL    HW1 4052   5.956   2.821   5.006
67385SOL    HW2 4053   5.939   2.673   4.980
67386SOL     OW 4054   7.899  14.833   0.095
67386SOL    HW1 4055   7.916   0.007   0.015
67386SOL    HW2 4056   7.850   0.019   0.151
67387SOL     OW 4057   4.569   5.580   1.023
67387SOL    HW1 4058   4.534   5.496   1.053
67387SOL    HW2 4059   4.606   5.561   0.937
67388SOL     OW 4060  11.155   9.498  11.842
67388SOL    HW1 4061  11.073   9.547  11.833
67388SOL    HW2 4062  11.154   9.467  11.933
67389SOL     OW 4063   8.143   8.726  10.597
67389SOL    HW1 4064   8.106   8.814  10.588
67389SOL    HW2 4065   8.235   8.742  10.618
67390SOL     OW 4066   7.871   1.403   3.322
67390SOL    HW1 4067   7.781   1.398   3.354
67390SOL    HW2 4068   7.904   1.313   3.331
67391SOL     OW 4069   1.197   1.677   6.262
67391SOL    HW1 4070   1.220   1.619   6.335
67391SOL    HW2 4071   1.276   1.678   6.207
67392SOL     OW 4072  11.295   9.878   6.548
67392SOL    HW1 4073  11.210   9.903   6.510
67392SOL    HW2 4074  11.344   9.842   6.474
67393SOL     OW 4075   7.341  11.778   9.265
67393SOL    HW1 4076   7.404  11.707   9.258
67393SOL    HW2 4077   7.384  11.842   9.322
67394SOL     OW 4078   4.014   7.064   8.578
67394SOL    HW1 4079   4.029   7.156   8.555
67394SOL    HW2 4080   4.074   7.047   8.651
67395SOL     OW 4081  13.548   1.694  14.684
67395SOL    HW1 4082  13.485   1.625  14.705
67395SOL    HW2 4083  13.494   1.768  14.657
67396SOL     OW 4084   0.842   1.226   8.600
67396SOL    HW1 4085   0.878   1.276   8.527
67396SOL    HW2 4086   0.872   1.137   8.585
67397SOL     OW 4087  10.479   7.292   9.232
67397SOL    HW1 4088  10.560   7.329   9.267
67397SOL    HW2 4089  10.410   7.347   9.269
67398SOL     OW 4090  14.161   5.375   8.080
67398SOL    HW1 4091  14.203   5.295   8.110
67398SOL    HW2 4092  14.234   5.432   8.056
67399SOL     OW 4093   5.259   0.471   6.080
67399SOL    HW1 4094   5.258   0.438   6.170
67399SOL    HW2 4095   5.331   0.423   6.038
67400SOL     OW 4096   7.696   9.780   3.864
67400SOL    HW1 4097   7.610   9.753   3.830
67400SOL    HW2 4098   7.711   9.867   3.825
67401SOL     OW 4099  12.094  11.639   7.529
67401SOL    HW1 4100  12.118  11.573   7.464
67401SOL    HW2 4101  12.133  11.608   7.610
67402SOL     OW 4102  14.664   6.244  14.247
67402SOL    HW1 4103  14.578   6.285  14.247
67402SOL    HW2 4104  14.665   6.191  14.327
67403SOL     OW 4105  10.093  14.481   6.958
67403SOL    HW1 4106  10.059  14.426   6.887
67403SOL    HW2 4107  10.161  14.534   6.917
67404SOL     OW 4108  11.221   0.280   0.766
67404SOL    HW1 4109  11.253   0.196   0.800
67404SOL    HW2 4110  11.293   0.314   0.713
67405SOL     OW 4111   5.425   9.013   7.174
67405SOL    HW1 4112   5.430   9.027   7.268
67405SOL    HW2 4113   5.332   8.993   7.157
67406SOL     OW 4114   7.491   8.771  13.999
67406SOL    HW1 4115   7.419   8.799  13.942
67406SOL    HW2 4116   7.461   8.687  14.034
67407SOL     OW 4117   1.507  14.794   0.309
67407SOL    HW1 4118   1.462  14.754   0.383
67407SOL    HW2 4119   1.525   0.009   0.338
67408SOL     OW 4120   2.964  12.434  11.457
67408SOL    HW1 4121   2.938  12.475  11.374
67408SOL    HW2 4122   2.943  12.341  11.444
67409SOL     OW 4123   0.457   9.978   5.909
67409SOL    HW1 4124   0.414  10.055   5.872
67409SOL    HW2 4125   0.448   9.911   5.842
67410SOL     OW 4126  13.367  10.548   0.322
67410SOL    HW1 4127  13.409  10.486   0.261
67410SOL    HW2 4128  13.315  10.605   0.265
67411SOL     OW 4129   2.038   3.096   1.513
67411SOL    HW1 4130   2.125   3.132   1.530
67411SOL    HW2 4131   1.996   3.159   1.455
67412SOL     OW 4132   3.945  14.762  11.397
67412SOL    HW1 4133   4.005  14.831  11.372
67412SOL    HW2 4134   3.858  14.798  11.379
67413SOL     OW 4135   1.874   7.498   3.382
67413SOL    HW1 4136   1.806   7.432   3.394
67413SOL    HW2 4137   1.935   7.460   3.319
67414SOL     OW 4138   8.072   6.562   7.974
67414SOL    HW1 4139   8.041   6.475   7.949
67414SOL    HW2 4140   8.041   6.573   8.064
67415SOL     OW 4141   3.776   3.871  11.773
67415SOL    HW1 4142   3.851   3.812  11.767
67415SOL    HW2 4143   3.800   3.933  11.841
67416SOL     OW 4144   8.110   7.638   1.727
67416SOL    HW1 4145   8.171   7.566   1.711
67416SOL    HW2 4146   8.084   7.667   1.639
67417SOL     OW 4147   4.033  14.567   1.070
67417SOL    HW1 4148   4.054  14.623   0.996
67417SOL    HW2 4149   4.003  14.627   1.138
67418SOL     OW 4150   3.325   2.137   8.036
67418SOL    HW1 4151   3.339   2.073   7.967
67418SOL    HW2 4152   3.413   2.160   8.067
67419SOL     OW 4153  14.036   4.579   2.126
67419SOL    HW1 4154  14.070   4.536   2.048
67419SOL    HW2 4155  13.994   4.509   2.176
67420SOL     OW 4156   2.566   3.896  13.595
67420SOL    HW1 4157   2.549   3.989  13.578
67420SOL    HW2 4158   2.562   3.855  13.509
67421SOL     OW 4159   1.737   4.781  12.987
67421SOL    HW1 4160   1.745   4.790  12.892
67421SOL    HW2 4161   1.643   4.784  13.003
67422SOL     OW 4162   8.635   2.890  12.800
67422SOL    HW1 4163   8.683   2.821  12.756
67422SOL    HW2 4164   8.543   2.875  12.776
67423SOL     OW 4165   6.471   2.407   3.259
67423SOL    HW1 4166   6.440   2.442   3.343
67423SOL    HW2 4167   6.554   2.364   3.279
67424SOL     OW 4168  13.335   8.791   3.482
67424SOL    HW1 4169  13.420   8.762   3.514
67424SOL    HW2 4170  13.304   8.719   3.427
67425SOL     OW 4171   7.999  10.042  10.198
67425SOL    HW1 4172   8.065  10.098  10.157
67425SOL    HW2 4173   7.992   9.966  10.140
67426SOL     OW 4174   7.935   9.212  12.378
67426SOL    HW1 4175   7.917   9.119  12.372
67426SOL    HW2 4176   8.001   9.229  12.311
67427SOL     OW 4177   9.952   6.811   7.059
67427SOL    HW1 4178   9.860   6.823   7.082
67427SOL    HW2 4179   9.981   6.737   7.111
67428SOL     OW 4180   8.122   5.591   3.911
67428SOL    HW1 4181   8.211   5.601   3.878
67428SOL    HW2 4182   8.116   5.498   3.936
67429SOL     OW 4183  12.007   5.746   6.104
67429SOL    HW1 4184  11.979   5.749   6.013
67429SOL    HW2 4185  11.926   5.744   6.155
67430SOL     OW 4186   5.023   2.831  11.410
67430SOL    HW1 4187   4.981   2.904  11.364
67430SOL    HW2 4188   5.019   2.856  11.502
67431SOL     OW 4189   2.129   1.886   3.706
67431SOL    HW1 4190   2.111   1.829   3.632
67431SOL    HW2 4191   2.218   1.864   3.733
67432SOL     OW 4192   4.307   3.384  10.381
67432SOL    HW1 4193   4.374   3.329  10.421
67432SOL    HW2 4194   4.325   3.380  10.287
67433SOL     OW 4195  13.103   0.001  10.998
67433SOL    HW1 4196  13.159  14.869  10.921
67433SOL    HW2 4197  13.077  14.786  11.017
67434SOL     OW 4198   2.443   8.048   1.958
67434SOL    HW1 4199   2.386   7.980   1.922
67434SOL    HW2 4200   2.516   7.999   1.996
67435SOL     OW 4201   4.490  10.224  14.764
67435SOL    HW1 4202   4.503  10.206  14.857
67435SOL    HW2 4203   4.490  10.319  14.758
67436SOL     OW 4204  13.504   5.442   6.740
67436SOL    HW1 4205  13.410   5.432   6.726
67436SOL    HW2 4206  13.545   5.375   6.686
67437SOL     OW 4207  11.164  11.463  13.149
67437SOL    HW1 4208  11.154  11.473  13.054
67437SOL    HW2 4209  11.135  11.546  13.185
67438SOL     OW 4210   9.515  13.692   4.084
67438SOL    HW1 4211   9.525  13.710   4.177
67438SOL    HW2 4212   9.461  13.764   4.051
67439SOL     OW 4213   6.892  12.726   6.140
67439SOL    HW1 4214   6.946  12.652   6.112
67439SOL    HW2 4215   6.873  12.708   6.232
67440SOL     OW 4216   4.424   6.496  11.648
67440SOL    HW1 4217   4.508   6.540  11.634
67440SOL    HW2 4218   4.403   6.459  11.562
67441SOL     OW 4219   7.740   1.547   1.863
67441SOL    HW1 4220   7.649   1.569   1.843
67441SOL    HW2 4221   7.738   1.454   1.886
67442SOL     OW 4222   0.065  10.043   2.039
67442SOL    HW1 4223   0.031  10.044   1.949
67442SOL    HW2 4224   0.037   9.959   2.074
67443SOL     OW 4225   1.472  11.667  10.803
67443SOL    HW1 4226   1.499  11.758  10.812
67443SOL    HW2 4227   1.392  11.660  10.855
67444SOL     OW 4228  13.974   1.055   0.506
67444SOL    HW1 4229  13.995   1.124   0.569
67444SOL    HW2 4230  13.989   0.973   0.554
67445SOL     OW 4231   4.157   9.615   9.460
67445SOL    HW1 4232   4.138   9.524   9.482
67445SOL    HW2 4233   4.193   9.611   9.371
67446SOL     OW 4234   9.321   8.349   2.759
67446SOL    HW1 4235   9.322   8.383   2.848
67446SOL    HW2 4236   9.264   8.272   2.764
67447SOL     OW 4237  14.545   3.051  14.624
67447SOL    HW1 4238  14.515   3.099  14.547
67447SOL    HW2 4239  14.487   2.976  14.630
67448SOL     OW 4240  11.628  14.274   9.462
67448SOL    HW1 4241  11.576  14.210   9.512
67448SOL    HW2 4242  11.583  14.357   9.474
67449SOL     OW 4243   2.924   1.673   9.630
67449SOL    HW1 4244   2.903   1.758   9.590
67449SOL    HW2 4245   2.911   1.610   9.559
67450SOL     OW 4246  14.237   7.105   7.258
67450SOL    HW1 4247  14.302   7.080   7.324
67450SOL    HW2 4248  14.182   7.169   7.302
67451SOL     OW 4249  13.475  12.155  12.817
67451SOL    HW1 4250  13.402  12.107  12.778
67451SOL    HW2 4251  13.479  12.237  12.768
67452SOL     OW 4252   0.347   0.064   4.418
67452SOL    HW1 4253   0.392   0.115   4.351
67452SOL    HW2 4254   0.258   0.099   4.419
67453SOL     OW 4255   8.447   4.075   2.285
67453SOL    HW1 4256   8.475   4.067   2.376
67453SOL    HW2 4257   8.416   3.988   2.261
67454SOL     OW 4258   7.806   3.065   0.665
67454SOL    HW1 4259   7.812   2.993   0.601
67454SOL    HW2 4260   7.731   3.117   0.636
67455SOL     OW 4261   6.769   5.268   0.553
67455SOL    HW1 4262   6.811   5.267   0.639
67455SOL    HW2 4263   6.675   5.268   0.572
67456SOL     OW 4264   6.017  13.854  11.889
67456SOL    HW1 4265   6.067  13.794  11.944
67456SOL    HW2 4266   5.926  13.825  11.899
67457SOL     OW 4267   4.910   4.527   3.918
67457SOL    HW1 4268   4.912   4.451   3.977
67457SOL    HW2 4269   4.910   4.489   3.830
67458SOL     OW 4270  12.408   3.558   9.559
67458SOL    HW1 4271  12.345   3.487   9.571
67458SOL    HW2 4272  12.357   3.630   9.523
67459SOL     OW 4273   9.856   8.251  11.600
67459SOL    HW1 4274   9.939   8.219  11.564
67459SOL    HW2 4275   9.855   8.218  11.690
67460SOL     OW 4276   2.244   4.413   5.080
67460SOL    HW1 4277   2.263   4.506   5.072
67460SOL    HW2 4278   2.152   4.405   5.055
67461SOL     OW 4279  10.508   5.485   9.394
67461SOL    HW1 4280  10.467   5.570   9.378
67461SOL    HW2 4281  10.581   5.504   9.453
67462SOL     OW 4282   8.443   9.895  12.322
67462SOL    HW1 4283   8.458   9.849  12.405
67462SOL    HW2 4284   8.362   9.944  12.336
67463SOL     OW 4285  12.422   5.939   0.947
67463SOL    HW1 4286  12.378   6.023   0.960
67463SOL    HW2 4287  12.396   5.886   1.022
67464SOL     OW 4288   9.220  10.694   2.861
67464SOL    HW1 4289   9.304  10.678   2.817
67464SOL    HW2 4290   9.245  10.722   2.949
67465SOL     OW 4291   4.343   4.609   4.293
67465SOL    HW1 4292   4.401   4.667   4.341
67465SOL    HW2 4293   4.264   4.661   4.277
67466SOL     OW 4294  14.791   3.142   2.145
67466SOL    HW1 4295  14.771   3.125   2.053
67466SOL    HW2 4296  14.870   3.090   2.163
67467SOL     OW 4297   2.018   2.716   3.687
67467SOL    HW1 4298   1.990   2.779   3.620
67467SOL    HW2 4299   2.112   2.730   3.696
67468SOL     OW 4300  10.274   2.994  10.536
67468SOL    HW1 4301  10.353   2.967  10.582
67468SOL    HW2 4302  10.244   2.914  10.491
67469SOL     OW 4303  12.536   6.516   5.921
67469SOL    HW1 4304  12.502   6.603   5.943
67469SOL    HW2 4305  12.466   6.456   5.946
67470SOL     OW 4306  11.807   1.842   8.672
67470SOL    HW1 4307  11.823   1.750   8.694
67470SOL    HW2 4308  11.727   1.864   8.719
67471SOL     OW 4309   4.589  12.166   5.092
67471SOL    HW1 4310   4.552  12.115   5.020
67471SOL    HW2 4311   4.679  12.183   5.066
67472SOL     OW 4312   9.494   5.786  13.921
67472SOL    HW1 4313   9.477   5.853  13.987
67472SOL    HW2 4314   9.454   5.820  13.841
67473SOL     OW 4315   1.015   1.448   1.128
67473SOL    HW1 4316   1.058   1.516   1.180
67473SOL    HW2 4317   1.087   1.403   1.083
67474SOL     OW 4318   5.579   2.543  10.931
67474SOL    HW1 4319   5.612   2.545  10.841
67474SOL    HW2 4320   5.627   2.472  10.973
67475SOL     OW 4321   8.632  14.667   8.995
67475SOL    HW1 4322   8.582  14.592   8.963
67475SOL    HW2 4323   8.630  14.658   9.091
67476SOL     OW 4324   9.642   0.208   2.770
67476SOL    HW1 4325   9.680   0.287   2.807
67476SOL    HW2 4326   9.646   0.144   2.840
67477SOL     OW 4327  13.298   5.715  14.868
67477SOL    HW1 4328  13.305   5.761   0.077
67477SOL    HW2 4329  13.328   5.778  14.803
67478SOL     OW 4330   9.251  12.030   5.165
67478SOL    HW1 4331   9.177  12.045   5.224
67478SOL    HW2 4332   9.326  12.069   5.210
67479SOL     OW 4333   8.830   5.210   8.266
67479SOL    HW1 4334   8.805   5.302   8.266
67479SOL    HW2 4335   8.780   5.171   8.337
67480SOL     OW 4336   3.460   2.899   3.045
67480SOL    HW1 4337   3.510   2.901   2.963
67480SOL    HW2 4338   3.380   2.948   3.025
67481SOL     OW 4339   8.112  12.710   3.777
67481SOL    HW1 4340   8.063  12.693   3.858
67481SOL    HW2 4341   8.191  12.755   3.806
67482SOL     OW 4342   0.865   4.384   5.789
67482SOL    HW1 4343   0.780   4.397   5.831
67482SOL    HW2 4344   0.883   4.290   5.797
67483SOL     OW 4345  13.417  14.858   2.976
67483SOL    HW1 4346  13.420   0.029   2.892
67483SOL    HW2 4347  13.487   0.023   3.028
67484SOL     OW 4348  11.467  10.756   0.591
67484SOL    HW1 4349  11.559  10.760   0.566
67484SOL    HW2 4350  11.422  10.804   0.522
67485SOL     OW 4351   0.815   6.046  12.642
67485SOL    HW1 4352   0.781   5.994  12.569
67485SOL    HW2 4353   0.738   6.063  12.697
67486SOL     OW 4354  13.547   4.125   7.168
67486SOL    HW1 4355  13.504   4.049   7.129
67486SOL    HW2 4356  13.590   4.169   7.095
67487SOL     OW 4357   1.403   3.914   9.679
67487SOL    HW1 4358   1.322   3.948   9.717
67487SOL    HW2 4359   1.412   3.961   9.596
67488SOL     OW 4360  12.562  13.806   1.647
67488SOL    HW1 4361  12.485  13.749   1.645
67488SOL    HW2 4362  12.554  13.854   1.730
67489SOL     OW 4363  11.783   1.218   7.382
67489SOL    HW1 4364  11.744   1.303   7.360
67489SOL    HW2 4365  11.787   1.218   7.477
67490SOL     OW 4366   7.794   4.751   3.894
67490SOL    HW1 4367   7.851   4.731   3.820
67490SOL    HW2 4368   7.848   4.800   3.955
67491SOL     OW 4369  13.561   8.268   8.100
67491SOL    HW1 4370  13.485   8.310   8.140
67491SOL    HW2 4371  13.529   8.240   8.014
67492SOL     OW 4372   0.302   9.062  13.296
67492SOL    HW1 4373   0.291   8.994  13.362
67492SOL    HW2 4374   0.302   9.016  13.212
67493SOL     OW 4375  14.571   9.849   4.440
67493SOL    HW1 4376  14.563   9.943   4.459
67493SOL    HW2 4377  14.482   9.815   4.450
67494SOL     OW 4378  13.341  10.620  12.544
67494SOL    HW1 4379  13.409  10.561  12.511
67494SOL    HW2 4380  13.309  10.577  12.624
67495SOL     OW 4381   0.805  14.161   7.082
67495SOL    HW1 4382   0.874  14.226   7.065
67495SOL    HW2 4383   0.840  14.107   7.152
67496SOL     OW 4384  12.638  13.060   9.042
67496SOL    HW1 4385  12.707  13.103   8.992
67496SOL    HW2 4386  12.575  13.130   9.060
67497SOL     OW 4387   0.845   5.090   5.186
67497SOL    HW1 4388   0.826   5.027   5.256
67497SOL    HW2 4389   0.919   5.141   5.218
67498SOL     OW 4390  12.316   4.014   9.358
67498SOL    HW1 4391  12.390   3.983   9.306
67498SOL    HW2 4392  12.352   4.086   9.410
67499SOL     OW 4393   4.785  13.185   8.886
67499SOL    HW1 4394   4.854  13.163   8.824
67499SOL    HW2 4395   4.830  13.191   8.971
67500SOL     OW 4396   5.926  13.023   8.563
67500SOL    HW1 4397   5.942  12.939   8.519
67500SOL    HW2 4398   5.912  13.085   8.491
67501SOL     OW 4399   0.448   8.012   9.419
67501SOL    HW1 4400   0.413   7.955   9.488
67501SOL    HW2 4401   0.427   7.966   9.338
67502SOL     OW 4402  13.769  14.327   2.786
67502SOL    HW1 4403  13.765  14.369   2.699
67502SOL    HW2 4404  13.806  14.241   2.769
67503SOL     OW 4405   3.100   6.248   1.618
67503SOL    HW1 4406   3.057   6.254   1.703
67503SOL    HW2 4407   3.034   6.210   1.560
67504SOL     OW 4408   1.712  14.207  14.217
67504SOL    HW1 4409   1.660  14.164  14.285
67504SOL    HW2 4410   1.691  14.159  14.137
67505SOL     OW 4411   2.762   2.943   3.579
67505SOL    HW1 4412   2.678   2.968   3.539
67505SOL    HW2 4413   2.772   3.005   3.651
67506SOL     OW 4414  14.325   5.449  11.170
67506SOL    HW1 4415  14.286   5.496  11.243
67506SOL    HW2 4416  14.286   5.362  11.174
67507SOL     OW 4417   6.651  14.335   2.590
67507SOL    HW1 4418   6.620  14.327   2.680
67507SOL    HW2 4419   6.730  14.389   2.596
67508SOL     OW 4420  10.280   5.317   2.864
67508SOL    HW1 4421  10.195   5.279   2.885
67508SOL    HW2 4422  10.262   5.409   2.846
67509SOL     OW 4423   4.643   2.422   0.228
67509SOL    HW1 4424   4.667   2.508   0.264
67509SOL    HW2 4425   4.559   2.437   0.184
67510SOL     OW 4426   2.669  12.365   6.457
67510SOL    HW1 4427   2.659  12.456   6.482
67510SOL    HW2 4428   2.592  12.321   6.494
67511SOL     OW 4429   7.657   5.984   6.367
67511SOL    HW1 4430   7.751   5.997   6.355
67511SOL    HW2 4431   7.637   6.027   6.450
67512SOL     OW 4432  10.215   0.294   2.378
67512SOL    HW1 4433  10.293   0.344   2.403
67512SOL    HW2 4434  10.142   0.347   2.411
67513SOL     OW 4435   3.405  12.613   0.277
67513SOL    HW1 4436   3.437  12.619   0.187
67513SOL    HW2 4437   3.314  12.644   0.272
67514SOL     OW 4438  12.011   5.652   0.514
67514SOL    HW1 4439  12.003   5.640   0.419
67514SOL    HW2 4440  12.072   5.584   0.542
67515SOL     OW 4441   4.055  10.254   8.981
67515SOL    HW1 4442   4.018  10.293   8.902
67515SOL    HW2 4443   4.092  10.328   9.029
67516SOL     OW 4444  10.045  12.185  14.831
67516SOL    HW1 4445  10.065  12.215   0.044
67516SOL    HW2 4446  10.125  12.140  14.802
67517SOL     OW 4447   9.561  10.338   0.844
67517SOL    HW1 4448   9.628  10.280   0.808
67517SOL    HW2 4449   9.495  10.279   0.881
67518SOL     OW 4450   7.271  14.304  12.445
67518SOL    HW1 4451   7.311  14.374  12.498
67518SOL    HW2 4452   7.340  14.279  12.383
67519SOL     OW 4453   0.185  13.663   7.013
67519SOL    HW1 4454   0.270  13.687   6.977
67519SOL    HW2 4455   0.148  13.603   6.949
67520SOL     OW 4456   6.937   8.547   8.746
67520SOL    HW1 4457   6.948   8.601   8.668
67520SOL    HW2 4458   6.985   8.467   8.727
67521SOL     OW 4459  14.237   1.430  10.017
67521SOL    HW1 4460  14.257   1.517   9.982
67521SOL    HW2 4461  14.172   1.394   9.956
67522SOL     OW 4462  14.710  11.093  11.537
67522SOL    HW1 4463  14.640  11.104  11.601
67522SOL    HW2 4464  14.787  11.130  11.579
67523SOL     OW 4465   3.684   4.961   4.615
67523SOL    HW1 4466   3.729   5.005   4.686
67523SOL    HW2 4467   3.712   5.007   4.536
67524SOL     OW 4468  10.528   8.971   6.275
67524SOL    HW1 4469  10.461   8.914   6.313
67524SOL    HW2 4470  10.554   8.927   6.194
67525SOL     OW 4471  11.920   2.295  12.593
67525SOL    HW1 4472  11.960   2.323  12.510
67525SOL    HW2 4473  11.985   2.318  12.659
67526SOL     OW 4474   4.109   2.343   8.650
67526SOL    HW1 4475   4.139   2.434   8.647
67526SOL    HW2 4476   4.016   2.349   8.673
67527SOL     OW 4477  10.926   9.150   4.805
67527SOL    HW1 4478  11.002   9.137   4.748
67527SOL    HW2 4479  10.883   9.064   4.809
67528SOL     OW 4480   0.855   5.713   5.424
67528SOL    HW1 4481   0.856   5.644   5.357
67528SOL    HW2 4482   0.935   5.762   5.408
67529SOL     OW 4483   4.879   9.553   8.343
67529SOL    HW1 4484   4.905   9.509   8.424
67529SOL    HW2 4485   4.906   9.644   8.356
67530SOL     OW 4486   5.694  13.603   2.023
67530SOL    HW1 4487   5.686  13.633   2.113
67530SOL    HW2 4488   5.785  13.574   2.015
67531SOL     OW 4489   3.684   2.777  11.923
67531SOL    HW1 4490   3.740   2.720  11.870
67531SOL    HW2 4491   3.744   2.819  11.985
67532SOL     OW 4492   5.303   3.934   2.953
67532SOL    HW1 4493   5.298   4.015   2.903
67532SOL    HW2 4494   5.361   3.878   2.902
67533SOL     OW 4495   9.930   0.890   4.157
67533SOL    HW1 4496   9.859   0.904   4.220
67533SOL    HW2 4497   9.889   0.903   4.071
67534SOL     OW 4498  12.695   6.819   2.171
67534SOL    HW1 4499  12.668   6.728   2.166
67534SOL    HW2 4500  12.613   6.869   2.162
67535SOL     OW 4501   6.696   4.823   1.114
67535SOL    HW1 4502   6.769   4.867   1.070
67535SOL    HW2 4503   6.738   4.764   1.177
67536SOL     OW 4504   3.889   3.458  14.636
67536SOL    HW1 4505   3.973   3.444  14.679
67536SOL    HW2 4506   3.908   3.519  14.565
67537SOL     OW 4507   3.870  11.745   3.892
67537SOL    HW1 4508   3.779  11.746   3.862
67537SOL    HW2 4509   3.916  11.805   3.834
67538SOL     OW 4510   5.715   1.955   6.572
67538SOL    HW1 4511   5.731   1.870   6.533
67538SOL    HW2 4512   5.713   1.938   6.666
67539SOL     OW 4513   5.014  12.967   8.945
67539SOL    HW1 4514   5.015  12.961   9.040
67539SOL    HW2 4515   5.031  12.878   8.915
67540SOL     OW 4516   0.556   2.318   0.399
67540SOL    HW1 4517   0.516   2.355   0.320
67540SOL    HW2 4518   0.636   2.369   0.412
67541SOL     OW 4519   7.434   0.737   6.680
67541SOL    HW1 4520   7.432   0.642   6.664
67541SOL    HW2 4521   7.505   0.750   6.742
67542SOL     OW 4522  13.446   8.009   7.352
67542SOL    HW1 4523  13.516   8.067   7.379
67542SOL    HW2 4524  13.386   8.064   7.302
67543SOL     OW 4525   4.034   8.086  12.975
67543SOL    HW1 4526   4.078   8.039  13.045
67543SOL    HW2 4527   3.978   8.150  13.020
67544SOL     OW 4528  13.774  12.672   0.518
67544SOL    HW1 4529  13.841  12.713   0.463
67544SOL    HW2 4530  13.691  12.696   0.475
67545SOL     OW 4531  12.095   9.878   4.296
67545SOL    HW1 4532  12.029   9.947   4.300
67545SOL    HW2 4533  12.112   9.855   4.387
67546SOL     OW 4534   5.854  11.276   7.085
67546SOL    HW1 4535   5.783  11.213   7.077
67546SOL    HW2 4536   5.922  11.230   7.135
67547SOL     OW 4537   5.874   5.873  13.960
67547SOL    HW1 4538   5.953   5.888  14.011
67547SOL    HW2 4539   5.877   5.780  13.938
67548SOL     OW 4540   5.284   6.050  13.571
67548SOL    HW1 4541   5.223   5.975  13.574
67548SOL    HW2 4542   5.254   6.108  13.640
67549SOL     OW 4543   3.218   9.638   8.965
67549SOL    HW1 4544   3.233   9.693   9.042
67549SOL    HW2 4545   3.123   9.635   8.956
67550SOL     OW 4546   9.132  10.076  10.889
67550SOL    HW1 4547   9.213  10.028  10.867
67550SOL    HW2 4548   9.159  10.168  10.891
67551SOL     OW 4549   0.908  12.690  12.887
67551SOL    HW1 4550   0.948  12.764  12.842
67551SOL    HW2 4551   0.982  12.637  12.916
67552SOL     OW 4552   6.549   8.230   9.775
67552SOL    HW1 4553   6.456   8.248   9.793
67552SOL    HW2 4554   6.593   8.313   9.792
67553SOL     OW 4555   3.213   3.493   9.019
67553SOL    HW1 4556   3.205   3.403   9.049
67553SOL    HW2 4557   3.131   3.510   8.972
67554SOL     OW 4558   3.747   7.386   3.549
67554SOL    HW1 4559   3.705   7.350   3.628
67554SOL    HW2 4560   3.727   7.323   3.480
67555SOL     OW 4561  12.025  12.969   2.672
67555SOL    HW1 4562  12.042  12.946   2.764
67555SOL    HW2 4563  12.103  12.939   2.625
67556SOL     OW 4564   0.913  14.538   5.516
67556SOL    HW1 4565   0.840  14.558   5.458
67556SOL    HW2 4566   0.882  14.561   5.603
67557SOL     OW 4567   7.260   2.439   8.822
67557SOL    HW1 4568   7.298   2.511   8.771
67557SOL    HW2 4569   7.173   2.426   8.783
67558SOL     OW 4570  14.037  11.440   9.433
67558SOL    HW1 4571  14.011  11.356   9.470
67558SOL    HW2 4572  14.054  11.422   9.341
67559SOL     OW 4573   3.029   4.398  12.230
67559SOL    HW1 4574   2.990   4.406  12.318
67559SOL    HW2 4575   3.122   4.383  12.246
67560SOL     OW 4576   2.646   7.572   7.191
67560SOL    HW1 4577   2.654   7.616   7.276
67560SOL    HW2 4578   2.732   7.583   7.150
67561SOL     OW 4579  10.517   8.213  11.747
67561SOL    HW1 4580  10.436   8.255  11.716
67561SOL    HW2 4581  10.493   8.173  11.831
67562SOL     OW 4582  10.592   3.819   8.154
67562SOL    HW1 4583  10.674   3.773   8.174
67562SOL    HW2 4584  10.579   3.877   8.229
67563SOL     OW 4585   2.837  14.796   3.230
67563SOL    HW1 4586   2.817  14.709   3.265
67563SOL    HW2 4587   2.763  14.850   3.256
67564SOL     OW 4588   4.320   6.907   2.620
67564SOL    HW1 4589   4.339   6.865   2.704
67564SOL    HW2 4590   4.349   6.997   2.631
67565SOL     OW 4591  10.267   1.243   2.015
67565SOL    HW1 4592  10.177   1.273   2.027
67565SOL    HW2 4593  10.260   1.148   2.005
67566SOL     OW 4594   0.915   3.548   9.100
67566SOL    HW1 4595   0.853   3.613   9.066
67566SOL    HW2 4596   0.886   3.465   9.062
67567SOL     OW 4597   1.654   4.903   5.817
67567SOL    HW1 4598   1.574   4.851   5.813
67567SOL    HW2 4599   1.644   4.957   5.895
67568SOL     OW 4600   8.122   3.256   8.497
67568SOL    HW1 4601   8.189   3.213   8.551
67568SOL    HW2 4602   8.039   3.225   8.532
67569SOL     OW 4603  13.799   6.019   4.175
67569SOL    HW1 4604  13.821   6.079   4.104
67569SOL    HW2 4605  13.704   6.011   4.172
67570SOL     OW 4606   5.104   7.732  14.142
67570SOL    HW1 4607   5.031   7.725  14.204
67570SOL    HW2 4608   5.157   7.804  14.176
67571SOL     OW 4609   3.114   3.189   4.357
67571SOL    HW1 4610   3.100   3.220   4.446
67571SOL    HW2 4611   3.026   3.167   4.326
67572SOL     OW 4612   7.425  14.521  14.482
67572SOL    HW1 4613   7.359  14.470  14.436
67572SOL    HW2 4614   7.415  14.610  14.447
67573SOL     OW 4615   6.588  11.973   2.640
67573SOL    HW1 4616   6.543  11.944   2.719
67573SOL    HW2 4617   6.577  12.068   2.640
67574SOL     OW 4618   7.775   4.538  11.084
67574SOL    HW1 4619   7.752   4.574  11.169
67574SOL    HW2 4620   7.778   4.615  11.026
67575SOL     OW 4621  14.126   0.733   7.969
67575SOL    HW1 4622  14.200   0.731   7.908
67575SOL    HW2 4623  14.049   0.738   7.913
67576SOL     OW 4624   4.076   3.550  13.109
67576SOL    HW1 4625   4.062   3.507  13.025
67576SOL    HW2 4626   4.144   3.615  13.092
67577SOL     OW 4627  14.164  12.518   2.464
67577SOL    HW1 4628  14.192  12.581   2.531
67577SOL    HW2 4629  14.069  12.519   2.469
67578SOL     OW 4630  14.666   6.032   6.680
67578SOL    HW1 4631  14.636   6.105   6.735
67578SOL    HW2 4632  14.659   5.955   6.736
67579SOL     OW 4633   7.467  10.386  11.020
67579SOL    HW1 4634   7.544  10.381  11.077
67579SOL    HW2 4635   7.427  10.299  11.026
67580SOL     OW 4636  10.707   2.295   3.629
67580SOL    HW1 4637  10.735   2.301   3.720
67580SOL    HW2 4638  10.713   2.202   3.608
67581SOL     OW 4639   1.420   4.502   1.829
67581SOL    HW1 4640   1.341   4.466   1.868
67581SOL    HW2 4641   1.430   4.588   1.871
67582SOL     OW 4642   9.869   0.219   6.359
67582SOL    HW1 4643   9.869   0.274   6.437
67582SOL    HW2 4644   9.896   0.278   6.288
67583SOL     OW 4645   9.778   2.993   0.742
67583SOL    HW1 4646   9.747   3.071   0.696
67583SOL    HW2 4647   9.712   2.976   0.808
67584SOL     OW 4648  13.474   3.918  10.994
67584SOL    HW1 4649  13.410   3.847  10.990
67584SOL    HW2 4650  13.493   3.940  10.903
67585SOL     OW 4651  11.209  11.412   2.030
67585SOL    HW1 4652  11.278  11.358   1.990
67585SOL    HW2 4653  11.156  11.442   1.957
67586SOL     OW 4654  13.834  14.171   8.999
67586SOL    HW1 4655  13.916  14.175   8.951
67586SOL    HW2 4656  13.848  14.104   9.065
67587SOL     OW 4657  14.762   7.865   5.037
67587SOL    HW1 4658  14.704   7.816   4.978
67587SOL    HW2 4659  14.782   7.804   5.107
67588SOL     OW 4660  11.138   7.832  10.594
67588SOL    HW1 4661  11.101   7.753  10.554
67588SOL    HW2 4662  11.153   7.891  10.520
67589SOL     OW 4663  14.431   1.764   4.139
67589SOL    HW1 4664  14.478   1.722   4.211
67589SOL    HW2 4665  14.487   1.750   4.062
67590SOL     OW 4666   6.406  11.582  12.100
67590SOL    HW1 4667   6.388  11.507  12.156
67590SOL    HW2 4668   6.327  11.636  12.106
67591SOL     OW 4669  14.414  10.122   2.602
67591SOL    HW1 4670  14.423  10.202   2.550
67591SOL    HW2 4671  14.374  10.151   2.684
67592SOL     OW 4672   4.223   6.267   8.316
67592SOL    HW1 4673   4.248   6.266   8.223
67592SOL    HW2 4674   4.169   6.189   8.327
67593SOL     OW 4675   2.367   1.652  11.283
67593SOL    HW1 4676   2.442   1.594  11.298
67593SOL    HW2 4677   2.350   1.691  11.369
67594SOL     OW 4678   2.410   9.882  13.872
67594SOL    HW1 4679   2.351   9.951  13.843
67594SOL    HW2 4680   2.496   9.908  13.839
67595SOL     OW 4681   8.484   5.871   4.614
67595SOL    HW1 4682   8.570   5.906   4.639
67595SOL    HW2 4683   8.475   5.892   4.521
67596SOL     OW 4684   0.854   2.966  14.004
67596SOL    HW1 4685   0.800   2.948  14.081
67596SOL    HW2 4686   0.792   2.977  13.932
67597SOL     OW 4687  11.813  11.848   6.629
67597SOL    HW1 4688  11.871  11.900   6.573
67597SOL    HW2 4689  11.775  11.782   6.571
67598SOL     OW 4690  12.244  14.560  10.709
67598SOL    HW1 4691  12.244  14.495  10.639
67598SOL    HW2 4692  12.254  14.644  10.665
67599SOL     OW 4693   2.884   6.349  14.022
67599SOL    HW1 4694   2.812   6.385  13.969
67599SOL    HW2 4695   2.934   6.426  14.048
67600SOL     OW 4696  11.447  14.841   8.715
67600SOL    HW1 4697  11.517   0.002   8.769
67600SOL    HW2 4698  11.404  14.777   8.771
67601SOL     OW 4699   9.592   2.883   5.597
67601SOL    HW1 4700   9.527   2.842   5.540
67601SOL    HW2 4701   9.623   2.812   5.653
67602SOL     OW 4702  12.952   9.086  12.497
67602SOL    HW1 4703  13.026   9.139  12.525
67602SOL    HW2 4704  12.875   9.143  12.508
67603SOL     OW 4705  14.806  11.813   1.125
67603SOL    HW1 4706  14.774  11.725   1.108
67603SOL    HW2 4707   0.026  11.804   1.133
67604SOL     OW 4708   7.868  14.037  14.601
67604SOL    HW1 4709   7.856  14.129  14.624
67604SOL    HW2 4710   7.961  14.029  14.581
67605SOL     OW 4711   7.210   0.697   1.407
67605SOL    HW1 4712   7.133   0.674   1.356
67605SOL    HW2 4713   7.185   0.681   1.498
67606SOL     OW 4714   9.696  12.197   4.625
67606SOL    HW1 4715   9.675  12.164   4.712
67606SOL    HW2 4716   9.628  12.160   4.569
67607SOL     OW 4717  12.088  10.250   4.737
67607SOL    HW1 4718  12.063  10.333   4.777
67607SOL    HW2 4719  12.020  10.233   4.672
67608SOL     OW 4720   8.264   7.408  10.984
67608SOL    HW1 4721   8.317   7.427  10.906
67608SOL    HW2 4722   8.174   7.427  10.956
67609SOL     OW 4723  12.362  12.240   1.028
67609SOL    HW1 4724  12.312  12.242   1.109
67609SOL    HW2 4725  12.304  12.279   0.963
67610SOL     OW 4726   3.967   3.500   9.545
67610SOL    HW1 4727   4.011   3.451   9.475
67610SOL    HW2 4728   3.874   3.494   9.523
67611SOL     OW 4729  12.964   3.325   4.899
67611SOL    HW1 4730  13.002   3.267   4.832
67611SOL    HW2 4731  13.002   3.295   4.981
67612SOL     OW 4732  14.542  11.573   4.663
67612SOL    HW1 4733  14.497  11.558   4.580
67612SOL    HW2 4734  14.495  11.518   4.726
67613SOL     OW 4735   6.387   0.498  13.538
67613SOL    HW1 4736   6.380   0.453  13.622
67613SOL    HW2 4737   6.447   0.571  13.556
67614SOL     OW 4738  13.958   8.540   1.424
67614SOL    HW1 4739  13.955   8.505   1.512
67614SOL    HW2 4740  13.916   8.473   1.369
67615SOL     OW 4741  13.391  14.507   4.947
67615SOL    HW1 4742  13.310  14.462   4.924
67615SOL    HW2 4743  13.457  14.439   4.947
67616SOL     OW 4744   8.501   2.864   1.836
67616SOL    HW1 4745   8.588   2.832   1.812
67616SOL    HW2 4746   8.497   2.953   1.799
67617SOL     OW 4747   1.501   0.224  10.961
67617SOL    HW1 4748   1.564   0.292  10.937
67617SOL    HW2 4749   1.461   0.256  11.042
67618SOL     OW 4750   0.342   4.548   9.673
67618SOL    HW1 4751   0.411   4.598   9.629
67618SOL    HW2 4752   0.283   4.521   9.603
67619SOL     OW 4753  14.684  11.329   6.500
67619SOL    HW1 4754  14.716  11.329   6.410
67619SOL    HW2 4755  14.755  11.366   6.551
67620SOL     OW 4756   4.998   8.928   0.246
67620SOL    HW1 4757   5.019   8.836   0.227
67620SOL    HW2 4758   5.054   8.977   0.185
67621SOL     OW 4759   2.265  13.188   9.333
67621SOL    HW1 4760   2.248  13.179   9.427
67621SOL    HW2 4761   2.359  13.175   9.324
67622SOL     OW 4762  11.817  12.563   5.054
67622SOL    HW1 4763  11.875  12.635   5.076
67622SOL    HW2 4764  11.801  12.518   5.137
67623SOL     OW 4765  12.099   7.655   5.259
67623SOL    HW1 4766  12.083   7.749   5.248
67623SOL    HW2 4767  12.186   7.650   5.299
67624SOL     OW 4768   8.155   3.057   5.979
67624SOL    HW1 4769   8.061   3.075   5.972
67624SOL    HW2 4770   8.194   3.140   6.005
67625SOL     OW 4771   6.508   7.841   3.085
67625SOL    HW1 4772   6.601   7.838   3.106
67625SOL    HW2 4773   6.506   7.866   2.992
67626SOL     OW 4774   5.411  14.324   5.933
67626SOL    HW1 4775   5.317  14.333   5.914
67626SOL    HW2 4776   5.430  14.231   5.919
67627SOL     OW 4777   8.539   2.188   9.674
67627SOL    HW1 4778   8.604   2.180   9.604
67627SOL    HW2 4779   8.579   2.248   9.737
67628SOL     OW 4780   5.656   8.091   6.420
67628SOL    HW1 4781   5.665   8.082   6.325
67628SOL    HW2 4782   5.709   8.168   6.441
67629SOL     OW 4783   8.842   7.593   2.474
67629SOL    HW1 4784   8.860   7.616   2.566
67629SOL    HW2 4785   8.847   7.677   2.428
67630SOL     OW 4786   2.831   9.452   3.178
67630SOL    HW1 4787   2.792   9.365   3.168
67630SOL    HW2 4788   2.858   9.476   3.090
67631SOL     OW 4789   3.880  10.312  14.150
67631SOL    HW1 4790   3.785  10.314  14.160
67631SOL    HW2 4791   3.895  10.341  14.061
67632SOL     OW 4792   6.262   0.152   4.741
67632SOL    HW1 4793   6.254   0.118   4.652
67632SOL    HW2 4794   6.205   0.096   4.793
67633SOL     OW 4795  11.602   1.137   4.666
67633SOL    HW1 4796  11.554   1.129   4.749
67633SOL    HW2 4797  11.542   1.182   4.607
67634SOL     OW 4798  13.865   6.017  10.715
67634SOL    HW1 4799  13.871   6.063  10.631
67634SOL    HW2 4800  13.876   6.085  10.781
67635SOL     OW 4801   7.629   7.588  13.566
67635SOL    HW1 4802   7.688   7.527  13.520
67635SOL    HW2 4803   7.686   7.658  13.596
67636SOL     OW 4804   4.937  14.785   9.225
67636SOL    HW1 4805   4.959  14.724   9.296
67636SOL    HW2 4806   4.872  14.738   9.173
67637SOL     OW 4807  11.091   0.463   0.180
67637SOL    HW1 4808  11.074   0.428   0.093
67637SOL    HW2 4809  11.030   0.536   0.190
67638SOL     OW 4810   3.065   7.391   7.589
67638SOL    HW1 4811   2.991   7.432   7.546
67638SOL    HW2 4812   3.039   7.385   7.681
67639SOL     OW 4813   8.778   3.005   7.925
67639SOL    HW1 4814   8.794   3.094   7.894
67639SOL    HW2 4815   8.719   2.967   7.860
67640SOL     OW 4816   5.119  14.215  11.628
67640SOL    HW1 4817   5.073  14.225  11.712
67640SOL    HW2 4818   5.101  14.297  11.581
67641SOL     OW 4819   2.771   2.314   0.827
67641SOL    HW1 4820   2.855   2.289   0.789
67641SOL    HW2 4821   2.753   2.400   0.788
67642SOL     OW 4822   3.037   4.511  13.384
67642SOL    HW1 4823   3.029   4.534  13.291
67642SOL    HW2 4824   3.057   4.417  13.383
67643SOL     OW 4825   5.756   7.357   8.299
67643SOL    HW1 4826   5.709   7.431   8.337
67643SOL    HW2 4827   5.688   7.291   8.283
67644SOL     OW 4828   0.960  10.465  13.476
67644SOL    HW1 4829   1.040  10.470  13.423
67644SOL    HW2 4830   0.890  10.490  13.416
67645SOL     OW 4831   5.655  11.959   3.503
67645SOL    HW1 4832   5.576  11.948   3.451
67645SOL    HW2 4833   5.669  12.054   3.507
67646SOL     OW 4834  10.573   3.254   6.121
67646SOL    HW1 4835  10.632   3.304   6.178
67646SOL    HW2 4836  10.485   3.277   6.152
67647SOL     OW 4837   3.356   2.325   4.967
67647SOL    HW1 4838   3.383   2.270   5.040
67647SOL    HW2 4839   3.364   2.414   4.999
67648SOL     OW 4840  10.329   7.161   1.926
67648SOL    HW1 4841  10.423   7.150   1.911
67648SOL    HW2 4842  10.287   7.111   1.855
67649SOL     OW 4843   8.205   4.098  11.444
67649SOL    HW1 4844   8.200   4.194  11.436
67649SOL    HW2 4845   8.258   4.084  11.523
67650SOL     OW 4846   7.638   2.747   3.757
67650SOL    HW1 4847   7.633   2.776   3.848
67650SOL    HW2 4848   7.729   2.761   3.732
67651SOL     OW 4849   9.094   1.979   1.897
67651SOL    HW1 4850   9.131   1.990   1.809
67651SOL    HW2 4851   8.999   1.982   1.883
67652SOL     OW 4852  11.095   0.660   2.457
67652SOL    HW1 4853  11.026   0.712   2.417
67652SOL    HW2 4854  11.076   0.570   2.430
67653SOL     OW 4855   9.764  13.706   3.944
67653SOL    HW1 4856   9.683  13.691   3.992
67653SOL    HW2 4857   9.739  13.702   3.852
67654SOL     OW 4858  11.248   6.273   3.554
67654SOL    HW1 4859  11.160   6.245   3.530
67654SOL    HW2 4860  11.300   6.193   3.554
67655SOL     OW 4861   0.068  11.861   9.527
67655SOL    HW1 4862  14.867  11.882   9.581
67655SOL    HW2 4863   0.073  11.932   9.463
67656SOL     OW 4864   3.820  13.050   4.431
67656SOL    HW1 4865   3.759  13.090   4.494
67656SOL    HW2 4866   3.782  13.069   4.345
67657SOL     OW 4867   5.415   8.954  13.649
67657SOL    HW1 4868   5.388   9.045  13.635
67657SOL    HW2 4869   5.511   8.956  13.644
67658SOL     OW 4870   6.134   2.409   2.199
67658SOL    HW1 4871   6.209   2.455   2.235
67658SOL    HW2 4872   6.144   2.416   2.104
67659SOL     OW 4873   2.019   7.418   8.235
67659SOL    HW1 4874   2.052   7.394   8.321
67659SOL    HW2 4875   1.924   7.418   8.244
67660SOL     OW 4876   5.976  12.293  11.168
67660SOL    HW1 4877   6.003  12.349  11.095
67660SOL    HW2 4878   5.880  12.297  11.166
67661SOL     OW 4879   5.251   4.347  12.063
67661SOL    HW1 4880   5.313   4.407  12.104
67661SOL    HW2 4881   5.306   4.285  12.015
67662SOL     OW 4882   8.593  14.203  10.451
67662SOL    HW1 4883   8.671  14.177  10.401
67662SOL    HW2 4884   8.591  14.142  10.525
67663SOL     OW 4885   6.844  13.514   7.050
67663SOL    HW1 4886   6.900  13.436   7.048
67663SOL    HW2 4887   6.756  13.480   7.066
67664SOL     OW 4888   6.750  11.243  12.702
67664SOL    HW1 4889   6.719  11.301  12.633
67664SOL    HW2 4890   6.749  11.297  12.781
67665SOL     OW 4891   4.351  11.891   1.743
67665SOL    HW1 4892   4.324  11.843   1.821
67665SOL    HW2 4893   4.269  11.908   1.696
67666SOL     OW 4894   8.848   7.736   5.438
67666SOL    HW1 4895   8.801   7.687   5.505
67666SOL    HW2 4896   8.794   7.729   5.360
67667SOL     OW 4897  12.777   6.275   1.472
67667SOL    HW1 4898  12.743   6.325   1.398
67667SOL    HW2 4899  12.815   6.196   1.432
67668SOL     OW 4900  11.459  12.492   1.449
67668SOL    HW1 4901  11.405  12.559   1.492
67668SOL    HW2 4902  11.459  12.517   1.357
67669SOL     OW 4903  14.468   8.930  13.566
67669SOL    HW1 4904  14.555   8.968  13.565
67669SOL    HW2 4905  14.416   8.990  13.619
67670SOL     OW 4906  12.578  13.097  12.900
67670SOL    HW1 4907  12.584  13.053  12.816
67670SOL    HW2 4908  12.549  13.030  12.961
67671SOL     OW 4909   9.928  11.600   2.692
67671SOL    HW1 4910   9.983  11.648   2.754
67671SOL    HW2 4911   9.989  11.545   2.643
67672SOL     OW 4912   1.616  13.757  11.931
67672SOL    HW1 4913   1.594  13.824  11.867
67672SOL    HW2 4914   1.639  13.805  12.010
67673SOL     OW 4915   6.598   4.139   8.383
67673SOL    HW1 4916   6.690   4.112   8.384
67673SOL    HW2 4917   6.597   4.216   8.325
67674SOL     OW 4918  12.084   8.326  10.299
67674SOL    HW1 4919  12.124   8.387  10.237
67674SOL    HW2 4920  11.994   8.356  10.307
67675SOL     OW 4921   0.228  12.325   8.946
67675SOL    HW1 4922   0.250  12.373   8.866
67675SOL    HW2 4923   0.178  12.387   8.999
67676SOL     OW 4924  14.127   8.633   6.391
67676SOL    HW1 4925  14.206   8.623   6.339
67676SOL    HW2 4926  14.150   8.598   6.477
67677SOL     OW 4927   8.018   2.672  14.816
67677SOL    HW1 4928   8.024   2.590  14.866
67677SOL    HW2 4929   7.933   2.709  14.842
67678SOL     OW 4930   0.097  13.095   8.378
67678SOL    HW1 4931   0.048  13.030   8.327
67678SOL    HW2 4932   0.177  13.109   8.327
67679SOL     OW 4933  13.092  13.704   8.821
67679SOL    HW1 4934  13.127  13.748   8.899
67679SOL    HW2 4935  13.107  13.611   8.837
67680SOL     OW 4936   9.639   0.882   5.176
67680SOL    HW1 4937   9.577   0.914   5.110
67680SOL    HW2 4938   9.631   0.944   5.249
67681SOL     OW 4939   8.556   4.356   8.902
67681SOL    HW1 4940   8.494   4.390   8.838
67681SOL    HW2 4941   8.642   4.370   8.862
67682SOL     OW 4942  13.240  11.504   0.541
67682SOL    HW1 4943  13.264  11.433   0.600
67682SOL    HW2 4944  13.275  11.479   0.456
67683SOL     OW 4945   0.050   2.420  14.083
67683SOL    HW1 4946   0.021   2.332  14.057
67683SOL    HW2 4947   0.073   2.462  14.000
67684SOL     OW 4948   7.053   8.115   6.664
67684SOL    HW1 4949   7.062   8.167   6.744
67684SOL    HW2 4950   7.089   8.171   6.595
67685SOL     OW 4951  10.277  10.155  11.051
67685SOL    HW1 4952  10.322  10.237  11.067
67685SOL    HW2 4953  10.198  10.160  11.105
67686SOL     OW 4954   8.100   5.267   6.138
67686SOL    HW1 4955   8.149   5.290   6.059
67686SOL    HW2 4956   8.127   5.333   6.202
67687SOL     OW 4957   9.105  11.358   4.237
67687SOL    HW1 4958   9.089  11.280   4.184
67687SOL    HW2 4959   9.052  11.427   4.197
67688SOL     OW 4960  10.264  10.592   3.892
67688SOL    HW1 4961  10.209  10.577   3.969
67688SOL    HW2 4962  10.210  10.566   3.818
67689SOL     OW 4963  13.072  14.713   0.473
67689SOL    HW1 4964  13.024  14.792   0.500
67689SOL    HW2 4965  13.149  14.712   0.529
67690SOL     OW 4966   5.137  12.296   1.724
67690SOL    HW1 4967   5.229  12.296   1.748
67690SOL    HW2 4968   5.103  12.213   1.757
67691SOL     OW 4969   6.553   7.727   1.482
67691SOL    HW1 4970   6.517   7.810   1.451
67691SOL    HW2 4971   6.487   7.662   1.457
67692SOL     OW 4972   0.208   8.177   6.370
67692SOL    HW1 4973   0.160   8.107   6.327
67692SOL    HW2 4974   0.295   8.141   6.386
67693SOL     OW 4975   9.448   1.856  14.834
67693SOL    HW1 4976   9.461   1.763  14.852
67693SOL    HW2 4977   9.512   1.900   0.015
67694SOL     OW 4978   1.636   2.362  10.377
67694SOL    HW1 4979   1.688   2.286  10.404
67694SOL    HW2 4980   1.614   2.345  10.286
67695SOL     OW 4981   9.126   4.471  12.680
67695SOL    HW1 4982   9.072   4.417  12.622
67695SOL    HW2 4983   9.126   4.557  12.639
67696SOL     OW 4984  11.671   9.271   2.105
67696SOL    HW1 4985  11.603   9.207   2.083
67696SOL    HW2 4986  11.668   9.335   2.034
67697SOL     OW 4987  13.326  14.492  11.872
67697SOL    HW1 4988  13.285  14.500  11.786
67697SOL    HW2 4989  13.400  14.553  11.868
67698SOL     OW 4990  10.663   7.268   4.135
67698SOL    HW1 4991  10.614   7.208   4.191
67698SOL    HW2 4992  10.626   7.354   4.154
67699SOL     OW 4993  10.958   4.316  14.077
67699SOL    HW1 4994  11.024   4.347  14.139
67699SOL    HW2 4995  11.002   4.244  14.030
67700SOL     OW 4996   3.374  10.666  11.588
67700SOL    HW1 4997   3.425  10.705  11.659
67700SOL    HW2 4998   3.367  10.736  11.522
67701SOL     OW 4999  11.423   7.491   8.973
67701SOL    HW1 5000  11.363   7.466   9.043
67701SOL    HW2 5001  11.433   7.586   8.981
67702SOL     OW 5002  11.211   2.630   8.820
67702SOL    HW1 5003  11.247   2.641   8.908
67702SOL    HW2 5004  11.286   2.641   8.762
67703SOL     OW 5005   4.752   8.760   0.177
67703SOL    HW1 5006   4.684   8.735   0.114
67703SOL    HW2 5007   4.806   8.682   0.185
67704SOL     OW 5008   6.895   3.723  12.187
67704SOL    HW1 5009   6.901   3.640  12.140
67704SOL    HW2 5010   6.838   3.777  12.133
67705SOL     OW 5011   7.561  11.852   7.380
67705SOL    HW1 5012   7.550  11.761   7.407
67705SOL    HW2 5013   7.601  11.895   7.456
67706SOL     OW 5014   1.964   0.304  10.041
67706SOL    HW1 5015   1.921   0.385  10.070
67706SOL    HW2 5016   1.922   0.235  10.092
67707SOL     OW 5017   4.604   3.889   0.060
67707SOL    HW1 5018   4.523   3.848   0.090
67707SOL    HW2 5019   4.601   3.977   0.098
67708SOL     OW 5020   3.072  10.358   0.261
67708SOL    HW1 5021   2.984  10.370   0.227
67708SOL    HW2 5022   3.081  10.425   0.329
67709SOL     OW 5023   7.377  14.430   4.022
67709SOL    HW1 5024   7.446  14.448   4.086
67709SOL    HW2 5025   7.418  14.371   3.958
67710SOL     OW 5026   6.334   9.410  12.941
67710SOL    HW1 5027   6.250   9.457  12.942
67710SOL    HW2 5028   6.376   9.433  13.023
67711SOL     OW 5029   4.614   9.179   2.463
67711SOL    HW1 5030   4.608   9.158   2.556
67711SOL    HW2 5031   4.524   9.188   2.435
67712SOL     OW 5032   3.675   6.231   0.874
67712SOL    HW1 5033   3.591   6.206   0.836
67712SOL    HW2 5034   3.657   6.311   0.923
67713SOL     OW 5035   8.029  13.807   7.086
67713SOL    HW1 5036   8.011  13.714   7.099
67713SOL    HW2 5037   7.960  13.837   7.028
67714SOL     OW 5038  14.231   6.617   2.283
67714SOL    HW1 5039  14.174   6.648   2.212
67714SOL    HW2 5040  14.300   6.683   2.288
67715SOL     OW 5041   1.975   8.272   7.330
67715SOL    HW1 5042   1.975   8.197   7.390
67715SOL    HW2 5043   1.883   8.295   7.320
67716SOL     OW 5044  12.464   9.715   0.751
67716SOL    HW1 5045  12.398   9.777   0.722
67716SOL    HW2 5046  12.539   9.732   0.694
67717SOL     OW 5047   4.139   1.077   2.059
67717SOL    HW1 5048   4.105   1.029   2.135
67717SOL    HW2 5049   4.065   1.128   2.027
67718SOL     OW 5050   2.543   7.661  13.829
67718SOL    HW1 5051   2.617   7.651  13.888
67718SOL    HW2 5052   2.470   7.688  13.885
67719SOL     OW 5053   9.226  13.779   5.817
67719SOL    HW1 5054   9.215  13.743   5.729
67719SOL    HW2 5055   9.137  13.801   5.845
67720SOL     OW 5056   0.664   6.518   7.086
67720SOL    HW1 5057   0.737   6.517   7.024
67720SOL    HW2 5058   0.606   6.587   7.054
67721SOL     OW 5059  14.310  10.385   7.844
67721SOL    HW1 5060  14.390  10.416   7.887
67721SOL    HW2 5061  14.314  10.290   7.851
67722SOL     OW 5062   2.044  12.998   3.356
67722SOL    HW1 5063   2.057  13.068   3.292
67722SOL    HW2 5064   2.045  13.042   3.441
67723SOL     OW 5065  10.584   5.290   2.064
67723SOL    HW1 5066  10.538   5.229   2.122
67723SOL    HW2 5067  10.676   5.265   2.071
67724SOL     OW 5068   2.614  14.531   0.463
67724SOL    HW1 5069   2.614  14.585   0.384
67724SOL    HW2 5070   2.567  14.583   0.528
67725SOL     OW 5071   2.498   0.272   8.115
67725SOL    HW1 5072   2.448   0.329   8.173
67725SOL    HW2 5073   2.550   0.217   8.173
67726SOL     OW 5074   1.691   2.868  13.809
67726SOL    HW1 5075   1.671   2.779  13.781
67726SOL    HW2 5076   1.641   2.924  13.749
67727SOL     OW 5077   8.093   1.874   8.823
67727SOL    HW1 5078   8.127   1.824   8.749
67727SOL    HW2 5079   8.137   1.836   8.900
67728SOL     OW 5080   9.020   9.478   3.927
67728SOL    HW1 5081   9.005   9.449   4.017
67728SOL    HW2 5082   8.942   9.449   3.880
67729SOL     OW 5083   1.086   3.196   0.658
67729SOL    HW1 5084   1.121   3.141   0.589
67729SOL    HW2 5085   1.164   3.230   0.703
67730SOL     OW 5086   8.297   8.850   9.390
67730SOL    HW1 5087   8.276   8.762   9.423
67730SOL    HW2 5088   8.344   8.891   9.462
67731SOL     OW 5089   7.302  13.075  10.078
67731SOL    HW1 5090   7.390  13.049  10.050
67731SOL    HW2 5091   7.315  13.118  10.162
67732SOL     OW 5092   1.650   3.293   2.454
67732SOL    HW1 5093   1.722   3.271   2.395
67732SOL    HW2 5094   1.608   3.209   2.471
67733SOL     OW 5095   1.088  10.393   8.964
67733SOL    HW1 5096   1.119  10.469   9.014
67733SOL    HW2 5097   1.166  10.342   8.946
67734SOL     OW 5098   7.302   1.842  14.102
67734SOL    HW1 5099   7.284   1.929  14.136
67734SOL    HW2 5100   7.272   1.782  14.171
67735SOL     OW 5101   7.279   2.214   7.119
67735SOL    HW1 5102   7.357   2.192   7.067
67735SOL    HW2 5103   7.281   2.309   7.126
67736SOL     OW 5104   9.340  11.616  10.530
67736SOL    HW1 5105   9.354  11.636  10.438
67736SOL    HW2 5106   9.253  11.652  10.550
67737SOL     OW 5107   2.544  11.618  12.563
67737SOL    HW1 5108   2.634  11.629  12.532
67737SOL    HW2 5109   2.552  11.607  12.658
67738SOL     OW 5110   4.625   0.522   3.975
67738SOL    HW1 5111   4.686   0.585   3.935
67738SOL    HW2 5112   4.681   0.450   4.002
67739SOL     OW 5113   2.957   0.002  13.977
67739SOL    HW1 5114   3.033  14.820  13.991
67739SOL    HW2 5115   2.995   0.087  13.953
67740SOL     OW 5116   6.070  11.398   6.699
67740SOL    HW1 5117   5.994  11.360   6.655
67740SOL    HW2 5118   6.037  11.429   6.783
67741SOL     OW 5119   7.028  12.985   3.694
67741SOL    HW1 5120   7.021  13.058   3.755
67741SOL    HW2 5121   7.033  13.026   3.607
67742SOL     OW 5122  13.161   0.076   4.736
67742SOL    HW1 5123  13.075   0.049   4.767
67742SOL    HW2 5124  13.219   0.005   4.762
67743SOL     OW 5125  13.988  14.088  10.014
67743SOL    HW1 5126  14.062  14.111  10.071
67743SOL    HW2 5127  13.921  14.154  10.033
67744SOL     OW 5128   6.332   3.654   9.709
67744SOL    HW1 5129   6.408   3.604   9.682
67744SOL    HW2 5130   6.347   3.742   9.673
67745SOL     OW 5131   3.618  13.666   9.511
67745SOL    HW1 5132   3.571  13.594   9.554
67745SOL    HW2 5133   3.704  13.666   9.552
67746SOL     OW 5134   1.038   0.298   2.030
67746SOL    HW1 5135   0.962   0.260   2.074
67746SOL    HW2 5136   1.107   0.299   2.096
67747SOL     OW 5137  11.664   2.267  13.743
67747SOL    HW1 5138  11.578   2.305  13.755
67747SOL    HW2 5139  11.682   2.221  13.826
67748SOL     OW 5140   1.752   5.459   7.669
67748SOL    HW1 5141   1.758   5.554   7.676
67748SOL    HW2 5142   1.821   5.426   7.726
67749SOL     OW 5143   2.521   0.801   4.840
67749SOL    HW1 5144   2.579   0.813   4.915
67749SOL    HW2 5145   2.434   0.821   4.873
67750SOL     OW 5146   9.808  14.206   5.028
67750SOL    HW1 5147   9.773  14.189   4.941
67750SOL    HW2 5148   9.874  14.138   5.042
67751SOL     OW 5149   4.004   3.868   6.141
67751SOL    HW1 5150   3.972   3.867   6.051
67751SOL    HW2 5151   3.983   3.955   6.173
67752SOL     OW 5152  10.567   4.856  14.858
67752SOL    HW1 5153  10.529   4.850   0.071
67752SOL    HW2 5154  10.604   4.945  14.855
67753SOL     OW 5155  14.815   9.706   3.639
67753SOL    HW1 5156  14.778   9.624   3.608
67753SOL    HW2 5157   0.029   9.683   3.667
67754SOL     OW 5158   0.035   1.206   8.383
67754SOL    HW1 5159  14.850   1.133   8.366
67754SOL    HW2 5160   0.122   1.168   8.374
67755SOL     OW 5161  11.856   2.383  14.587
67755SOL    HW1 5162  11.805   2.423  14.657
67755SOL    HW2 5163  11.907   2.315  14.630
67756SOL     OW 5164   5.584   5.799   3.577
67756SOL    HW1 5165   5.608   5.812   3.669
67756SOL    HW2 5166   5.631   5.868   3.531
67757SOL     OW 5167   1.945  14.832   4.932
67757SOL    HW1 5168   1.963  14.824   5.026
67757SOL    HW2 5169   1.861   0.002   4.928
67758SOL     OW 5170   0.342  10.721  12.628
67758SOL    HW1 5171   0.325  10.748  12.538
67758SOL    HW2 5172   0.297  10.787  12.682
67759SOL     OW 5173  11.421  10.107   9.819
67759SOL    HW1 5174  11.386  10.026   9.780
67759SOL    HW2 5175  11.515  10.104   9.799
67760SOL     OW 5176   9.746   0.666  14.676
67760SOL    HW1 5177   9.663   0.646  14.718
67760SOL    HW2 5178   9.734   0.754  14.638
67761SOL     OW 5179  12.312  12.408  11.488
67761SOL    HW1 5180  12.254  12.466  11.439
67761SOL    HW2 5181  12.275  12.320  11.475
67762SOL     OW 5182   0.801  14.822  10.533
67762SOL    HW1 5183   0.805  14.818  10.628
67762SOL    HW2 5184   0.741   0.019  10.514
67763SOL     OW 5185   7.922   3.601   9.851
67763SOL    HW1 5186   7.979   3.623   9.925
67763SOL    HW2 5187   7.975   3.619   9.773
67764SOL     OW 5188   5.142   7.103  12.858
67764SOL    HW1 5189   5.113   7.137  12.942
67764SOL    HW2 5190   5.122   7.010  12.862
67765SOL     OW 5191  13.367  13.234   9.084
67765SOL    HW1 5192  13.308  13.186   9.141
67765SOL    HW2 5193  13.387  13.173   9.013
67766SOL     OW 5194   5.489   1.866  14.289
67766SOL    HW1 5195   5.439   1.836  14.213
67766SOL    HW2 5196   5.463   1.807  14.360
67767SOL     OW 5197   6.268   9.960   5.286
67767SOL    HW1 5198   6.212   9.897   5.331
67767SOL    HW2 5199   6.276   9.926   5.197
67768SOL     OW 5200   0.528  11.239   2.802
67768SOL    HW1 5201   0.620  11.213   2.806
67768SOL    HW2 5202   0.499  11.238   2.894
67769SOL     OW 5203   6.491   0.007   8.106
67769SOL    HW1 5204   6.416   0.048   8.063
67769SOL    HW2 5205   6.498   0.051   8.191
67770SOL     OW 5206  10.775   7.967   3.893
67770SOL    HW1 5207  10.723   7.935   3.819
67770SOL    HW2 5208  10.859   7.923   3.884
67771SOL     OW 5209   0.064   6.210   8.136
67771SOL    HW1 5210  14.874   6.183   8.071
67771SOL    HW2 5211   0.148   6.191   8.094
67772SOL     OW 5212  14.355  12.915   3.853
67772SOL    HW1 5213  14.311  12.981   3.800
67772SOL    HW2 5214  14.368  12.957   3.939
67773SOL     OW 5215   8.742   3.428  14.118
67773SOL    HW1 5216   8.677   3.491  14.088
67773SOL    HW2 5217   8.699   3.382  14.191
67774SOL     OW 5218  12.401  11.042  11.642
67774SOL    HW1 5219  12.390  11.006  11.730
67774SOL    HW2 5220  12.456  10.979  11.596
67775SOL     OW 5221   2.882   2.860  10.085
67775SOL    HW1 5222   2.841   2.792  10.139
67775SOL    HW2 5223   2.816   2.929  10.080
67776SOL     OW 5224   1.353   5.383   6.871
67776SOL    HW1 5225   1.374   5.408   6.781
67776SOL    HW2 5226   1.273   5.332   6.864
67777SOL     OW 5227  13.960   1.630   2.683
67777SOL    HW1 5228  13.927   1.718   2.669
67777SOL    HW2 5229  14.042   1.627   2.634
67778SOL     OW 5230   2.555  12.659   5.612
67778SOL    HW1 5231   2.460  12.665   5.596
67778SOL    HW2 5232   2.588  12.747   5.593
67779SOL     OW 5233  10.858   5.674  12.412
67779SOL    HW1 5234  10.767   5.701  12.397
67779SOL    HW2 5235  10.852   5.581  12.433
67780SOL     OW 5236   2.668  12.888   5.246
67780SOL    HW1 5237   2.697  12.958   5.187
67780SOL    HW2 5238   2.699  12.808   5.205
67781SOL     OW 5239   7.262   6.958   7.560
67781SOL    HW1 5240   7.261   7.022   7.632
67781SOL    HW2 5241   7.350   6.920   7.562
67782SOL     OW 5242   5.140   8.375   4.150
67782SOL    HW1 5243   5.139   8.467   4.175
67782SOL    HW2 5244   5.233   8.353   4.143
67783SOL     OW 5245   5.291   4.593   8.138
67783SOL    HW1 5246   5.338   4.640   8.207
67783SOL    HW2 5247   5.318   4.502   8.147
67784SOL     OW 5248   0.182   5.417   1.049
67784SOL    HW1 5249   0.233   5.382   1.122
67784SOL    HW2 5250   0.240   5.412   0.973
67785SOL     OW 5251   2.024  10.046   2.073
67785SOL    HW1 5252   2.095  10.093   2.116
67785SOL    HW2 5253   2.067   9.996   2.004
67786SOL     OW 5254  14.720  13.366   0.857
67786SOL    HW1 5255  14.677  13.404   0.934
67786SOL    HW2 5256  14.670  13.286   0.839
67787SOL     OW 5257   5.604   7.791   2.174
67787SOL    HW1 5258   5.554   7.711   2.156
67787SOL    HW2 5259   5.695   7.765   2.164
67788SOL     OW 5260   9.332   9.381   0.757
67788SOL    HW1 5261   9.273   9.341   0.693
67788SOL    HW2 5262   9.407   9.411   0.706
67789SOL     OW 5263  12.044   1.727  12.225
67789SOL    HW1 5264  12.028   1.651  12.169
67789SOL    HW2 5265  12.138   1.725  12.242
67790SOL     OW 5266   9.826  11.239  11.425
67790SOL    HW1 5267   9.852  11.300  11.494
67790SOL    HW2 5268   9.788  11.165  11.471
67791SOL     OW 5269   6.155   4.400  10.028
67791SOL    HW1 5270   6.110   4.481  10.005
67791SOL    HW2 5271   6.204   4.376   9.949
67792SOL     OW 5272   8.153   6.976  14.208
67792SOL    HW1 5273   8.177   6.894  14.167
67792SOL    HW2 5274   8.087   7.014  14.151
67793SOL     OW 5275   6.336   2.492   6.062
67793SOL    HW1 5276   6.411   2.474   6.118
67793SOL    HW2 5277   6.323   2.586   6.068
67794SOL     OW 5278   5.443  11.700   6.852
67794SOL    HW1 5279   5.365  11.656   6.818
67794SOL    HW2 5280   5.468  11.761   6.782
67795SOL     OW 5281   4.000   5.892  14.414
67795SOL    HW1 5282   4.033   5.825  14.354
67795SOL    HW2 5283   3.960   5.957  14.357
67796SOL     OW 5284   0.642   7.934   4.148
67796SOL    HW1 5285   0.636   7.845   4.184
67796SOL    HW2 5286   0.644   7.991   4.225
67797SOL     OW 5287   2.845   9.923   8.216
67797SOL    HW1 5288   2.780   9.974   8.265
67797SOL    HW2 5289   2.796   9.851   8.178
67798SOL     OW 5290   3.333   3.880  12.552
67798SOL    HW1 5291   3.341   3.836  12.636
67798SOL    HW2 5292   3.420   3.918  12.536
67799SOL     OW 5293   1.674   2.793   0.193
67799SOL    HW1 5294   1.726   2.831   0.122
67799SOL    HW2 5295   1.703   2.839   0.272
67800SOL     OW 5296   2.421  13.385  11.795
67800SOL    HW1 5297   2.436  13.458  11.854
67800SOL    HW2 5298   2.378  13.424  11.718
67801SOL     OW 5299   1.331   2.575   8.528
67801SOL    HW1 5300   1.361   2.620   8.607
67801SOL    HW2 5301   1.385   2.496   8.524
67802SOL     OW 5302   5.541   7.265  12.515
67802SOL    HW1 5303   5.521   7.306  12.430
67802SOL    HW2 5304   5.507   7.327  12.580
67803SOL     OW 5305  13.673   1.388   5.267
67803SOL    HW1 5306  13.757   1.399   5.311
67803SOL    HW2 5307  13.678   1.444   5.189
67804SOL     OW 5308  14.122  13.042   1.178
67804SOL    HW1 5309  14.037  13.000   1.187
67804SOL    HW2 5310  14.151  13.019   1.090
67805SOL     OW 5311  11.264   1.499  14.427
67805SOL    HW1 5312  11.341   1.531  14.474
67805SOL    HW2 5313  11.294   1.492  14.336
67806SOL     OW 5314  14.309   6.003   2.212
67806SOL    HW1 5315  14.301   6.028   2.120
67806SOL    HW2 5316  14.219   5.997   2.244
67807SOL     OW 5317   6.691  12.145  10.116
67807SOL    HW1 5318   6.611  12.151  10.063
67807SOL    HW2 5319   6.693  12.228  10.164
67808SOL     OW 5320   7.115  10.500   9.246
67808SOL    HW1 5321   7.063  10.465   9.174
67808SOL    HW2 5322   7.134  10.590   9.221
67809SOL     OW 5323   3.161   9.700   7.224
67809SOL    HW1 5324   3.140   9.620   7.176
67809SOL    HW2 5325   3.144   9.678   7.316
67810SOL     OW 5326   1.727  12.578   5.611
67810SOL    HW1 5327   1.747  12.655   5.665
67810SOL    HW2 5328   1.762  12.600   5.525
67811SOL     OW 5329  14.201   3.089  14.808
67811SOL    HW1 5330  14.237   3.001  14.810
67811SOL    HW2 5331  14.275   3.145  14.783
67812SOL     OW 5332   3.557  10.485   7.439
67812SOL    HW1 5333   3.633  10.500   7.382
67812SOL    HW2 5334   3.509  10.568   7.437
67813SOL     OW 5335   7.510   1.726   4.948
67813SOL    HW1 5336   7.565   1.753   5.021
67813SOL    HW2 5337   7.550   1.768   4.871
67814SOL     OW 5338   6.267  13.620   9.346
67814SOL    HW1 5339   6.265  13.570   9.265
67814SOL    HW2 5340   6.187  13.595   9.392
67815SOL     OW 5341   5.932   3.784  12.998
67815SOL    HW1 5342   5.961   3.859  12.946
67815SOL    HW2 5343   5.845   3.763  12.964
67816SOL     OW 5344  10.295  11.813  14.411
67816SOL    HW1 5345  10.273  11.872  14.339
67816SOL    HW2 5346  10.364  11.858  14.459
67817SOL     OW 5347   6.892   0.072   6.938
67817SOL    HW1 5348   6.907   0.068   7.032
67817SOL    HW2 5349   6.966   0.026   6.900
67818SOL     OW 5350   7.136  11.491  12.139
67818SOL    HW1 5351   7.112  11.400  12.126
67818SOL    HW2 5352   7.221  11.488  12.181
67819SOL     OW 5353   0.655   8.874   2.971
67819SOL    HW1 5354   0.736   8.884   3.020
67819SOL    HW2 5355   0.613   8.797   3.010
67820SOL     OW 5356   8.288   8.518   0.990
67820SOL    HW1 5357   8.233   8.484   1.061
67820SOL    HW2 5358   8.242   8.596   0.958
67821SOL     OW 5359  12.725   3.708  13.718
67821SOL    HW1 5360  12.676   3.632  13.690
67821SOL    HW2 5361  12.699   3.778  13.657
67822SOL     OW 5362   7.591  12.746  12.508
67822SOL    HW1 5363   7.622  12.746  12.417
67822SOL    HW2 5364   7.552  12.659  12.519
67823SOL     OW 5365   7.922   2.101   1.035
67823SOL    HW1 5366   7.880   2.124   0.952
67823SOL    HW2 5367   8.001   2.053   1.010
67824SOL     OW 5368  10.462  11.115   2.746
67824SOL    HW1 5369  10.521  11.047   2.712
67824SOL    HW2 5370  10.392  11.066   2.789
67825SOL     OW 5371   5.799   6.426   9.726
67825SOL    HW1 5372   5.884   6.393   9.698
67825SOL    HW2 5373   5.739   6.405   9.654
67826SOL     OW 5374  13.340   3.225   0.063
67826SOL    HW1 5375  13.245   3.213   0.062
67826SOL    HW2 5376  13.365   3.210   0.154
67827SOL     OW 5377   8.181  12.312  13.361
67827SOL    HW1 5378   8.107  12.295  13.302
67827SOL    HW2 5379   8.224  12.228  13.370
67828SOL     OW 5380   1.258   7.454   5.636
67828SOL    HW1 5381   1.185   7.458   5.574
67828SOL    HW2 5382   1.217   7.448   5.722
67829SOL     OW 5383   3.792  14.657  13.952
67829SOL    HW1 5384   3.735  14.615  14.017
67829SOL    HW2 5385   3.881  14.638  13.983
67830SOL     OW 5386   6.781   9.543  12.993
67830SOL    HW1 5387   6.709   9.568  12.936
67830SOL    HW2 5388   6.751   9.563  13.081
67831SOL     OW 5389   0.019   2.716   3.906
67831SOL    HW1 5390   0.041   2.797   3.952
67831SOL    HW2 5391  14.803   2.728   3.878
67832SOL     OW 5392   7.778   9.221   7.505
67832SOL    HW1 5393   7.711   9.172   7.553
67832SOL    HW2 5394   7.815   9.156   7.444
67833SOL     OW 5395   8.787  12.971  10.330
67833SOL    HW1 5396   8.781  12.945  10.422
67833SOL    HW2 5397   8.730  13.047  10.322
67834SOL     OW 5398   4.244   0.842  10.852
67834SOL    HW1 5399   4.276   0.756  10.881
67834SOL    HW2 5400   4.323   0.891  10.829
67835SOL     OW 5401   6.315   3.520  14.652
67835SOL    HW1 5402   6.274   3.434  14.645
67835SOL    HW2 5403   6.268   3.563  14.724
67836SOL     OW 5404   7.172   7.247   7.525
67836SOL    HW1 5405   7.100   7.190   7.495
67836SOL    HW2 5406   7.190   7.304   7.450
67837SOL     OW 5407   7.479   8.812   6.783
67837SOL    HW1 5408   7.508   8.759   6.858
67837SOL    HW2 5409   7.428   8.883   6.822
67838SOL     OW 5410   7.868  14.137  12.377
67838SOL    HW1 5411   7.810  14.121  12.303
67838SOL    HW2 5412   7.819  14.104  12.453
67839SOL     OW 5413   7.129   9.138   2.998
67839SOL    HW1 5414   7.124   9.063   3.057
67839SOL    HW2 5415   7.222   9.145   2.976
67840SOL     OW 5416   4.332   3.010   0.447
67840SOL    HW1 5417   4.330   2.991   0.540
67840SOL    HW2 5418   4.406   3.070   0.436
67841SOL     OW 5419  10.686   8.499   2.434
67841SOL    HW1 5420  10.731   8.421   2.402
67841SOL    HW2 5421  10.704   8.566   2.368
67842SOL     OW 5422  13.777  10.382   5.278
67842SOL    HW1 5423  13.844  10.388   5.347
67842SOL    HW2 5424  13.695  10.401   5.323
67843SOL     OW 5425   7.539  12.428   2.577
67843SOL    HW1 5426   7.600  12.353   2.578
67843SOL    HW2 5427   7.454  12.389   2.559
67844SOL     OW 5428   7.967   4.841   1.202
67844SOL    HW1 5429   7.900   4.906   1.225
67844SOL    HW2 5430   7.980   4.790   1.283
67845SOL     OW 5431  12.039  14.635  10.933
67845SOL    HW1 5432  12.115  14.584  10.907
67845SOL    HW2 5433  12.068  14.726  10.926
67846SOL     OW 5434  14.232   3.967  13.465
67846SOL    HW1 5435  14.214   4.056  13.497
67846SOL    HW2 5436  14.283   3.981  13.385
67847SOL     OW 5437  13.008   8.107   8.119
67847SOL    HW1 5438  12.981   8.195   8.145
67847SOL    HW2 5439  13.103   8.111   8.117
67848SOL     OW 5440   0.594   6.336   3.583
67848SOL    HW1 5441   0.519   6.345   3.642
67848SOL    HW2 5442   0.655   6.278   3.629
67849SOL     OW 5443  11.706  14.721  12.635
67849SOL    HW1 5444  11.785  14.698  12.684
67849SOL    HW2 5445  11.635  14.710  12.698
67850SOL     OW 5446  10.748   1.498   2.590
67850SOL    HW1 5447  10.666   1.546   2.600
67850SOL    HW2 5448  10.785   1.496   2.678
67851SOL     OW 5449  13.151   9.373   0.622
67851SOL    HW1 5450  13.199   9.349   0.701
67851SOL    HW2 5451  13.111   9.458   0.643
67852SOL     OW 5452   5.182   6.711   7.567
67852SOL    HW1 5453   5.275   6.710   7.544
67852SOL    HW2 5454   5.172   6.786   7.626
67853SOL     OW 5455  12.937   7.713  14.369
67853SOL    HW1 5456  12.971   7.776  14.432
67853SOL    HW2 5457  13.013   7.686  14.317
67854SOL     OW 5458   4.367   6.945   7.420
67854SOL    HW1 5459   4.322   6.878   7.472
67854SOL    HW2 5460   4.297   6.986   7.369
67855SOL     OW 5461   4.233   5.674   9.753
67855SOL    HW1 5462   4.325   5.657   9.773
67855SOL    HW2 5463   4.228   5.666   9.657
67856SOL     OW 5464   0.248   0.111  12.801
67856SOL    HW1 5465   0.173   0.167  12.783
67856SOL    HW2 5466   0.223   0.059  12.877
67857SOL     OW 5467   9.907   1.701   7.707
67857SOL    HW1 5468   9.987   1.688   7.759
67857SOL    HW2 5469   9.895   1.796   7.706
67858SOL     OW 5470   1.025   8.808   1.125
67858SOL    HW1 5471   1.075   8.886   1.150
67858SOL    HW2 5472   1.082   8.734   1.148
67859SOL     OW 5473   9.648  11.607  10.028
67859SOL    HW1 5474   9.651  11.580  10.120
67859SOL    HW2 5475   9.739  11.625  10.005
67860SOL     OW 5476  10.701   2.432   0.918
67860SOL    HW1 5477  10.770   2.374   0.885
67860SOL    HW2 5478  10.623   2.406   0.868
67861SOL     OW 5479  10.516  12.019   2.649
67861SOL    HW1 5480  10.435  12.049   2.608
67861SOL    HW2 5481  10.516  12.059   2.735
67862SOL     OW 5482   1.741  12.686   8.417
67862SOL    HW1 5483   1.740  12.665   8.511
67862SOL    HW2 5484   1.659  12.734   8.403
67863SOL     OW 5485  10.036  14.432  14.396
67863SOL    HW1 5486  10.108  14.474  14.443
67863SOL    HW2 5487  10.079  14.389  14.321
67864SOL     OW 5488   5.931   8.983   1.302
67864SOL    HW1 5489   5.868   8.927   1.348
67864SOL    HW2 5490   5.998   9.002   1.367
67865SOL     OW 5491  10.465   1.141   6.176
67865SOL    HW1 5492  10.550   1.183   6.159
67865SOL    HW2 5493  10.468   1.060   6.125
67866SOL     OW 5494  11.709  14.219   9.042
67866SOL    HW1 5495  11.752  14.134   9.047
67866SOL    HW2 5496  11.670  14.221   8.954
67867SOL     OW 5497   0.702  13.990  12.080
67867SOL    HW1 5498   0.790  14.013  12.110
67867SOL    HW2 5499   0.674  13.921  12.139
67868SOL     OW 5500   8.555   2.103  12.641
67868SOL    HW1 5501   8.642   2.143  12.628
67868SOL    HW2 5502   8.517   2.152  12.714
67869SOL     OW 5503   1.214   6.824   5.123
67869SOL    HW1 5504   1.279   6.885   5.089
67869SOL    HW2 5505   1.239   6.809   5.214
67870SOL     OW 5506  14.005   7.188  11.826
67870SOL    HW1 5507  13.916   7.154  11.822
67870SOL    HW2 5508  14.029   7.181  11.918
67871SOL     OW 5509   1.868   7.631  14.395
67871SOL    HW1 5510   1.777   7.661  14.392
67871SOL    HW2 5511   1.880   7.582  14.314
67872SOL     OW 5512   2.082   0.690  12.701
67872SOL    HW1 5513   2.139   0.753  12.657
67872SOL    HW2 5514   2.043   0.639  12.630
67873SOL     OW 5515   6.909   5.613   0.686
67873SOL    HW1 5516   6.922   5.518   0.686
67873SOL    HW2 5517   6.824   5.625   0.644
67874SOL     OW 5518   2.991   9.361  10.339
67874SOL    HW1 5519   3.045   9.395  10.409
67874SOL    HW2 5520   2.922   9.427  10.327
67875SOL     OW 5521   8.677   0.817   2.678
67875SOL    HW1 5522   8.736   0.809   2.753
67875SOL    HW2 5523   8.717   0.764   2.610
67876SOL     OW 5524  14.656   3.260   0.138
67876SOL    HW1 5525  14.618   3.347   0.152
67876SOL    HW2 5526  14.749   3.276   0.125
67877SOL     OW 5527   6.423  13.224  12.161
67877SOL    HW1 5528   6.375  13.259  12.236
67877SOL    HW2 5529   6.503  13.277  12.156
67878SOL     OW 5530  12.821  12.568   0.883
67878SOL    HW1 5531  12.729  12.593   0.889
67878SOL    HW2 5532  12.826  12.483   0.928
67879SOL     OW 5533  13.512   9.332  13.028
67879SOL    HW1 5534  13.543   9.399  13.089
67879SOL    HW2 5535  13.537   9.364  12.942
67880SOL     OW 5536   1.837  14.446   8.204
67880SOL    HW1 5537   1.847  14.444   8.109
67880SOL    HW2 5538   1.910  14.500   8.234
67881SOL     OW 5539   7.573   4.083  13.872
67881SOL    HW1 5540   7.615   4.062  13.788
67881SOL    HW2 5541   7.634   4.143  13.915
67882SOL     OW 5542   1.251   1.955  13.860
67882SOL    HW1 5543   1.338   1.948  13.900
67882SOL    HW2 5544   1.197   1.995  13.928
67883SOL     OW 5545   5.614   6.261   8.426
67883SOL    HW1 5546   5.646   6.175   8.401
67883SOL    HW2 5547   5.579   6.299   8.345
67884SOL     OW 5548  14.791  12.761   2.343
67884SOL    HW1 5549   0.006  12.788   2.323
67884SOL    HW2 5550  14.779  12.680   2.294
67885SOL     OW 5551   1.594   9.751   9.558
67885SOL    HW1 5552   1.532   9.815   9.594
67885SOL    HW2 5553   1.670   9.756   9.615
67886SOL     OW 5554  14.483   8.759   0.159
67886SOL    HW1 5555  14.515   8.806   0.082
67886SOL    HW2 5556  14.516   8.670   0.149
67887SOL     OW 5557   1.629   5.447  14.498
67887SOL    HW1 5558   1.628   5.538  14.529
67887SOL    HW2 5559   1.539   5.430  14.471
67888SOL     OW 5560   5.383   1.059   9.001
67888SOL    HW1 5561   5.327   1.102   8.936
67888SOL    HW2 5562   5.412   1.131   9.058
67889SOL     OW 5563  10.708   7.299  10.198
67889SOL    HW1 5564  10.675   7.210  10.206
67889SOL    HW2 5565  10.744   7.303  10.109
67890SOL     OW 5566   5.583   2.866  10.429
67890SOL    HW1 5567   5.664   2.908  10.400
67890SOL    HW2 5568   5.600   2.773  10.420
67891SOL     OW 5569   1.669   3.260   1.450
67891SOL    HW1 5570   1.619   3.288   1.526
67891SOL    HW2 5571   1.667   3.164   1.454
67892SOL     OW 5572   6.113   3.414  11.994
67892SOL    HW1 5573   6.167   3.492  11.977
67892SOL    HW2 5574   6.030   3.448  12.025
67893SOL     OW 5575   2.642   5.478   3.350
67893SOL    HW1 5576   2.667   5.429   3.271
67893SOL    HW2 5577   2.651   5.415   3.421
67894SOL     OW 5578   7.255   2.829  14.541
67894SOL    HW1 5579   7.246   2.840  14.636
67894SOL    HW2 5580   7.167   2.847  14.507
67895SOL     OW 5581   1.031   0.339   7.779
67895SOL    HW1 5582   1.023   0.248   7.749
67895SOL    HW2 5583   1.123   0.350   7.799
67896SOL     OW 5584   1.892   8.432   1.279
67896SOL    HW1 5585   1.874   8.361   1.340
67896SOL    HW2 5586   1.986   8.450   1.291
67897SOL     OW 5587   5.242  13.636  10.780
67897SOL    HW1 5588   5.185  13.710  10.759
67897SOL    HW2 5589   5.239  13.580  10.702
67898SOL     OW 5590   6.437   7.167   3.297
67898SOL    HW1 5591   6.425   7.189   3.389
67898SOL    HW2 5592   6.471   7.248   3.257
67899SOL     OW 5593   2.811   3.992   2.671
67899SOL    HW1 5594   2.848   3.986   2.583
67899SOL    HW2 5595   2.729   3.945   2.665
67900SOL     OW 5596   4.833   0.446   5.085
67900SOL    HW1 5597   4.758   0.506   5.089
67900SOL    HW2 5598   4.908   0.500   5.109
67901SOL     OW 5599   7.144   5.475   3.393
67901SOL    HW1 5600   7.210   5.407   3.387
67901SOL    HW2 5601   7.170   5.528   3.469
67902SOL     OW 5602   8.933   3.585   9.589
67902SOL    HW1 5603   8.854   3.620   9.630
67902SOL    HW2 5604   8.917   3.491   9.584
67903SOL     OW 5605   9.699   8.682  13.102
67903SOL    HW1 5606   9.657   8.756  13.059
67903SOL    HW2 5607   9.687   8.609  13.040
67904SOL     OW 5608  11.117   0.523  11.311
67904SOL    HW1 5609  11.097   0.617  11.307
67904SOL    HW2 5610  11.174   0.508  11.236
67905SOL     OW 5611   8.949  13.100   7.704
67905SOL    HW1 5612   8.874  13.042   7.692
67905SOL    HW2 5613   8.912  13.188   7.696
67906SOL     OW 5614   2.265  14.294  11.384
67906SOL    HW1 5615   2.290  14.255  11.467
67906SOL    HW2 5616   2.173  14.317  11.394
67907SOL     OW 5617   0.317   3.433   5.079
67907SOL    HW1 5618   0.231   3.434   5.038
67907SOL    HW2 5619   0.375   3.395   5.013
67908SOL     OW 5620   8.499  13.910  14.549
67908SOL    HW1 5621   8.449  13.837  14.587
67908SOL    HW2 5622   8.579  13.914  14.602
67909SOL     OW 5623  11.661   4.913   8.670
67909SOL    HW1 5624  11.699   4.890   8.585
67909SOL    HW2 5625  11.579   4.958   8.649
67910SOL     OW 5626  14.361   4.952   2.049
67910SOL    HW1 5627  14.402   4.879   2.002
67910SOL    HW2 5628  14.389   5.030   2.003
67911SOL     OW 5629   1.159   5.540   9.175
67911SOL    HW1 5630   1.221   5.479   9.214
67911SOL    HW2 5631   1.203   5.625   9.179
67912SOL     OW 5632   1.599   1.020   9.248
67912SOL    HW1 5633   1.597   1.094   9.188
67912SOL    HW2 5634   1.623   0.945   9.193
67913SOL     OW 5635  11.853   2.504  10.067
67913SOL    HW1 5636  11.895   2.430  10.111
67913SOL    HW2 5637  11.923   2.544  10.015
67914SOL     OW 5638  10.047  11.462  14.291
67914SOL    HW1 5639  10.062  11.538  14.347
67914SOL    HW2 5640  10.073  11.490  14.203
67915SOL     OW 5641  14.660  13.819  11.804
67915SOL    HW1 5642  14.693  13.738  11.842
67915SOL    HW2 5643  14.700  13.824  11.717
67916SOL     OW 5644   6.284   8.349   0.564
67916SOL    HW1 5645   6.204   8.317   0.606
67916SOL    HW2 5646   6.281   8.313   0.475
67917SOL     OW 5647   9.816   5.538   9.528
67917SOL    HW1 5648   9.903   5.552   9.490
67917SOL    HW2 5649   9.771   5.622   9.516
67918SOL     OW 5650   6.350  11.572   9.307
67918SOL    HW1 5651   6.366  11.664   9.285
67918SOL    HW2 5652   6.299  11.576   9.388
67919SOL     OW 5653   7.727  12.070   6.816
67919SOL    HW1 5654   7.647  12.031   6.852
67919SOL    HW2 5655   7.696  12.126   6.745
67920SOL     OW 5656  11.451  10.337   5.192
67920SOL    HW1 5657  11.409  10.327   5.106
67920SOL    HW2 5658  11.392  10.292   5.253
67921SOL     OW 5659   2.900   4.082   3.740
67921SOL    HW1 5660   2.862   4.058   3.824
67921SOL    HW2 5661   2.967   4.147   3.761
67922SOL     OW 5662   5.006   4.705   4.442
67922SOL    HW1 5663   4.931   4.730   4.386
67922SOL    HW2 5664   5.072   4.673   4.380
67923SOL     OW 5665   4.388   7.862  12.406
67923SOL    HW1 5666   4.425   7.943  12.371
67923SOL    HW2 5667   4.450   7.794  12.382
67924SOL     OW 5668  11.119   2.765   9.268
67924SOL    HW1 5669  11.183   2.777   9.338
67924SOL    HW2 5670  11.106   2.853   9.232
67925SOL     OW 5671   6.686   1.326  14.556
67925SOL    HW1 5672   6.607   1.304  14.606
67925SOL    HW2 5673   6.653   1.372  14.479
67926SOL     OW 5674  10.312   2.680   3.306
67926SOL    HW1 5675  10.221   2.656   3.327
67926SOL    HW2 5676  10.334   2.627   3.230
67927SOL     OW 5677   3.903   3.125   9.533
67927SOL    HW1 5678   3.828   3.149   9.478
67927SOL    HW2 5679   3.978   3.164   9.490
67928SOL     OW 5680  13.426  11.454   1.050
67928SOL    HW1 5681  13.401  11.546   1.048
67928SOL    HW2 5682  13.510  11.453   1.096
67929SOL     OW 5683   6.539   6.940   9.253
67929SOL    HW1 5684   6.575   6.856   9.282
67929SOL    HW2 5685   6.462   6.917   9.202
67930SOL     OW 5686   6.837  11.082  14.459
67930SOL    HW1 5687   6.902  11.123  14.516
67930SOL    HW2 5688   6.848  11.124  14.374
67931SOL     OW 5689   9.045   8.922  13.479
67931SOL    HW1 5690   9.106   8.868  13.531
67931SOL    HW2 5691   9.023   8.995  13.537
67932SOL     OW 5692  10.122   9.908  13.024
67932SOL    HW1 5693  10.171   9.986  13.051
67932SOL    HW2 5694  10.140   9.899  12.931
67933SOL     OW 5695   3.663   0.789   6.221
67933SOL    HW1 5696   3.658   0.874   6.264
67933SOL    HW2 5697   3.733   0.798   6.156
67934SOL     OW 5698  11.857  14.594  13.395
67934SOL    HW1 5699  11.930  14.574  13.336
67934SOL    HW2 5700  11.780  14.563  13.348
67935SOL     OW 5701  12.648   3.436   9.572
67935SOL    HW1 5702  12.557   3.464   9.577
67935SOL    HW2 5703  12.644   3.345   9.542
67936SOL     OW 5704  14.804  12.116   7.217
67936SOL    HW1 5705  14.711  12.142   7.218
67936SOL    HW2 5706  14.834  12.129   7.307
67937SOL     OW 5707  14.468  10.285  13.028
67937SOL    HW1 5708  14.561  10.284  13.051
67937SOL    HW2 5709  14.431  10.355  13.081
67938SOL     OW 5710  10.527  11.582   3.496
67938SOL    HW1 5711  10.541  11.598   3.403
67938SOL    HW2 5712  10.450  11.636   3.518
67939SOL     OW 5713   5.677   6.465  14.865
67939SOL    HW1 5714   5.601   6.445  14.810
67939SOL    HW2 5715   5.752   6.430  14.817
67940SOL     OW 5716  13.508   8.788  13.253
67940SOL    HW1 5717  13.552   8.760  13.172
67940SOL    HW2 5718  13.415   8.772  13.236
67941SOL     OW 5719   2.985   9.243   3.992
67941SOL    HW1 5720   2.947   9.163   4.028
67941SOL    HW2 5721   3.054   9.266   4.054
67942SOL     OW 5722   5.858   7.052   7.591
67942SOL    HW1 5723   5.884   7.033   7.682
67942SOL    HW2 5724   5.941   7.070   7.547
67943SOL     OW 5725   8.279  13.169   9.475
67943SOL    HW1 5726   8.294  13.076   9.496
67943SOL    HW2 5727   8.268  13.211   9.560
67944SOL     OW 5728  12.378  10.478  12.722
67944SOL    HW1 5729  12.313  10.472  12.793
67944SOL    HW2 5730  12.462  10.481  12.767
67945SOL     OW 5731   4.978  10.786  14.182
67945SOL    HW1 5732   4.940  10.716  14.236
67945SOL    HW2 5733   5.066  10.798  14.217
67946SOL     OW 5734   1.810  12.855  10.308
67946SOL    HW1 5735   1.809  12.759  10.306
67946SOL    HW2 5736   1.763  12.877  10.388
67947SOL     OW 5737   0.437   4.958   8.263
67947SOL    HW1 5738   0.448   4.956   8.358
67947SOL    HW2 5739   0.430   4.866   8.238
67948SOL     OW 5740   1.700   1.743   9.484
67948SOL    HW1 5741   1.786   1.702   9.495
67948SOL    HW2 5742   1.682   1.787   9.567
67949SOL     OW 5743   7.575   1.848   6.670
67949SOL    HW1 5744   7.571   1.831   6.576
67949SOL    HW2 5745   7.661   1.886   6.685
67950SOL     OW 5746   0.166   0.813   2.043
67950SOL    HW1 5747   0.091   0.773   2.086
67950SOL    HW2 5748   0.136   0.831   1.954
67951SOL     OW 5749   0.736  11.724  13.195
67951SOL    HW1 5750   0.641  11.709  13.195
67951SOL    HW2 5751   0.773  11.639  13.172
67952SOL     OW 5752   8.198   7.480   3.223
67952SOL    HW1 5753   8.233   7.516   3.142
67952SOL    HW2 5754   8.186   7.555   3.280
67953SOL     OW 5755   1.891   9.514   0.605
67953SOL    HW1 5756   1.972   9.511   0.554
67953SOL    HW2 5757   1.824   9.540   0.542
67954SOL     OW 5758   3.430  13.771  13.585
67954SOL    HW1 5759   3.505  13.825  13.610
67954SOL    HW2 5760   3.465  13.710  13.520
67955SOL     OW 5761   4.264   7.957   3.452
67955SOL    HW1 5762   4.235   8.032   3.505
67955SOL    HW2 5763   4.323   7.996   3.387
67956SOL     OW 5764   5.268   0.516   2.808
67956SOL    HW1 5765   5.358   0.538   2.830
67956SOL    HW2 5766   5.268   0.421   2.798
67957SOL     OW 5767   1.756   5.319   9.544
67957SOL    HW1 5768   1.699   5.253   9.504
67957SOL    HW2 5769   1.822   5.268   9.591
67958SOL     OW 5770   0.075   0.787   8.671
67958SOL    HW1 5771   0.132   0.842   8.724
67958SOL    HW2 5772   0.064   0.707   8.724
67959SOL     OW 5773   9.497  12.360   7.659
67959SOL    HW1 5774   9.484  12.393   7.748
67959SOL    HW2 5775   9.591  12.350   7.650
67960SOL     OW 5776   0.239  14.265   2.845
67960SOL    HW1 5777   0.181  14.294   2.774
67960SOL    HW2 5778   0.189  14.283   2.925
67961SOL     OW 5779   8.933  13.854   2.250
67961SOL    HW1 5780   8.990  13.817   2.317
67961SOL    HW2 5781   8.883  13.780   2.216
67962SOL     OW 5782   6.811   3.592  11.712
67962SOL    HW1 5783   6.817   3.500  11.687
67962SOL    HW2 5784   6.771   3.635  11.636
67963SOL     OW 5785   1.259  13.076   7.031
67963SOL    HW1 5786   1.319  13.001   7.029
67963SOL    HW2 5787   1.172  13.038   7.015
67964SOL     OW 5788   9.802   9.454  13.708
67964SOL    HW1 5789   9.838   9.368  13.684
67964SOL    HW2 5790   9.746   9.478  13.635
67965SOL     OW 5791  14.095  13.623   1.221
67965SOL    HW1 5792  14.113  13.647   1.313
67965SOL    HW2 5793  14.086  13.708   1.176
67966SOL     OW 5794   1.844  10.516   5.836
67966SOL    HW1 5795   1.816  10.425   5.849
67966SOL    HW2 5796   1.883  10.542   5.919
67967SOL     OW 5797  11.920   8.428   7.836
67967SOL    HW1 5798  11.835   8.467   7.819
67967SOL    HW2 5799  11.900   8.338   7.863
67968SOL     OW 5800  11.425  12.541   5.637
67968SOL    HW1 5801  11.407  12.570   5.547
67968SOL    HW2 5802  11.407  12.447   5.635
67969SOL     OW 5803   1.723  13.734   4.177
67969SOL    HW1 5804   1.765  13.658   4.137
67969SOL    HW2 5805   1.750  13.808   4.123
67970SOL     OW 5806   7.744   4.333   8.356
67970SOL    HW1 5807   7.666   4.368   8.398
67970SOL    HW2 5808   7.815   4.353   8.416
67971SOL     OW 5809   7.989  10.354  12.216
67971SOL    HW1 5810   7.962  10.431  12.267
67971SOL    HW2 5811   7.960  10.279  12.268
67972SOL     OW 5812   0.147   3.744   9.791
67972SOL    HW1 5813   0.117   3.835   9.787
67972SOL    HW2 5814   0.188   3.736   9.877
67973SOL     OW 5815   5.463  14.465   6.695
67973SOL    HW1 5816   5.500  14.552   6.714
67973SOL    HW2 5817   5.383  14.483   6.645
67974SOL     OW 5818  11.934   3.262   6.681
67974SOL    HW1 5819  11.870   3.222   6.622
67974SOL    HW2 5820  11.890   3.264   6.766
67975SOL     OW 5821   0.393  12.976  14.512
67975SOL    HW1 5822   0.315  13.018  14.474
67975SOL    HW2 5823   0.464  12.999  14.451
67976SOL     OW 5824   3.740   6.942   1.393
67976SOL    HW1 5825   3.734   6.928   1.488
67976SOL    HW2 5826   3.649   6.945   1.363
67977SOL     OW 5827   8.452   2.502   1.192
67977SOL    HW1 5828   8.461   2.597   1.204
67977SOL    HW2 5829   8.539   2.474   1.163
67978SOL     OW 5830   4.760   2.858   6.877
67978SOL    HW1 5831   4.834   2.798   6.864
67978SOL    HW2 5832   4.795   2.944   6.851
67979SOL     OW 5833   0.219   4.517  11.124
67979SOL    HW1 5834   0.312   4.537  11.113
67979SOL    HW2 5835   0.209   4.428  11.091
67980SOL     OW 5836  14.017   4.310   3.928
67980SOL    HW1 5837  14.049   4.348   3.846
67980SOL    HW2 5838  13.929   4.346   3.939
67981SOL     OW 5839   6.966  13.128   9.090
67981SOL    HW1 5840   6.890  13.117   9.033
67981SOL    HW2 5841   6.932  13.174   9.167
67982SOL     OW 5842  14.435   5.305   7.828
67982SOL    HW1 5843  14.371   5.241   7.861
67982SOL    HW2 5844  14.469   5.265   7.748
67983SOL     OW 5845   9.131   9.218   8.520
67983SOL    HW1 5846   9.049   9.196   8.476
67983SOL    HW2 5847   9.154   9.138   8.569
67984SOL     OW 5848  12.246  12.510   7.202
67984SOL    HW1 5849  12.291  12.510   7.286
67984SOL    HW2 5850  12.194  12.590   7.202
67985SOL     OW 5851   1.954   7.545   7.696
67985SOL    HW1 5852   1.998   7.516   7.616
67985SOL    HW2 5853   1.937   7.464   7.744
67986SOL     OW 5854   1.644  11.821  11.105
67986SOL    HW1 5855   1.660  11.915  11.096
67986SOL    HW2 5856   1.552  11.809  11.082
67987SOL     OW 5857   4.329   7.908   4.507
67987SOL    HW1 5858   4.338   7.976   4.573
67987SOL    HW2 5859   4.403   7.849   4.522
67988SOL     OW 5860  14.691  14.195   2.649
67988SOL    HW1 5861  14.668  14.149   2.568
67988SOL    HW2 5862  14.703  14.126   2.714
67989SOL     OW 5863   0.801  11.264  10.086
67989SOL    HW1 5864   0.713  11.254  10.051
67989SOL    HW2 5865   0.856  11.206  10.033
67990SOL     OW 5866   3.724   6.236  14.149
67990SOL    HW1 5867   3.786   6.261  14.080
67990SOL    HW2 5868   3.657   6.304  14.147
67991SOL     OW 5869  10.815   5.990  14.464
67991SOL    HW1 5870  10.732   5.942  14.472
67991SOL    HW2 5871  10.790   6.074  14.425
67992SOL     OW 5872   6.867   8.667   4.626
67992SOL    HW1 5873   6.858   8.703   4.714
67992SOL    HW2 5874   6.953   8.623   4.626
67993SOL     OW 5875   2.889   3.733  13.360
67993SOL    HW1 5876   2.886   3.646  13.319
67993SOL    HW2 5877   2.816   3.781  13.321
67994SOL     OW 5878  11.827  10.389   9.011
67994SOL    HW1 5879  11.902  10.388   8.952
67994SOL    HW2 5880  11.825  10.302   9.050
67995SOL     OW 5881   6.831   1.701  10.085
67995SOL    HW1 5882   6.893   1.768  10.113
67995SOL    HW2 5883   6.772   1.689  10.159
67996SOL     OW 5884   6.075  10.273  12.976
67996SOL    HW1 5885   6.083  10.346  13.037
67996SOL    HW2 5886   6.096  10.311  12.890
67997SOL     OW 5887  11.835   9.090   6.457
67997SOL    HW1 5888  11.905   9.148   6.424
67997SOL    HW2 5889  11.756   9.123   6.414
67998SOL     OW 5890   0.919   1.213  12.288
67998SOL    HW1 5891   1.011   1.236  12.296
67998SOL    HW2 5892   0.876   1.294  12.262
67999SOL     OW 5893   4.035   6.476  11.148
67999SOL    HW1 5894   3.940   6.485  11.159
67999SOL    HW2 5895   4.050   6.494  11.055
68000SOL     OW 5896  11.745   5.179   8.104
68000SOL    HW1 5897  11.715   5.145   8.020
68000SOL    HW2 5898  11.675   5.157   8.166
68001SOL     OW 5899   5.889   9.890   2.737
68001SOL    HW1 5900   5.799   9.919   2.723
68001SOL    HW2 5901   5.893   9.865   2.829
68002SOL     OW 5902   7.869   0.132   2.490
68002SOL    HW1 5903   7.779   0.159   2.469
68002SOL    HW2 5904   7.890   0.180   2.570
68003SOL     OW 5905   7.400   1.177   6.087
68003SOL    HW1 5906   7.448   1.095   6.079
68003SOL    HW2 5907   7.338   1.162   6.159
68004SOL     OW 5908   8.701   2.457   7.187
68004SOL    HW1 5909   8.706   2.406   7.268
68004SOL    HW2 5910   8.612   2.492   7.187
68005SOL     OW 5911   6.993   3.197   3.747
68005SOL    HW1 5912   6.988   3.124   3.809
68005SOL    HW2 5913   6.902   3.218   3.726
68006SOL     OW 5914  13.128   0.221   8.187
68006SOL    HW1 5915  13.180   0.248   8.263
68006SOL    HW2 5916  13.100   0.132   8.208
68007SOL     OW 5917  11.239   6.659  13.614
68007SOL    HW1 5918  11.237   6.582  13.557
68007SOL    HW2 5919  11.166   6.713  13.582
68008SOL     OW 5920   5.929   7.542   6.015
68008SOL    HW1 5921   5.871   7.580   6.081
68008SOL    HW2 5922   5.904   7.449   6.012
68009SOL     OW 5923   4.030   0.412   1.946
68009SOL    HW1 5924   4.106   0.354   1.951
68009SOL    HW2 5925   3.992   0.394   1.860
68010SOL     OW 5926  13.188   3.905   8.790
68010SOL    HW1 5927  13.245   3.918   8.866
68010SOL    HW2 5928  13.202   3.814   8.765
68011SOL     OW 5929   6.656   5.099  14.611
68011SOL    HW1 5930   6.683   5.093  14.519
68011SOL    HW2 5931   6.723   5.153  14.653
68012SOL     OW 5932  14.125   7.330   9.355
68012SOL    HW1 5933  14.197   7.277   9.322
68012SOL    HW2 5934  14.160   7.419   9.357
68013SOL     OW 5935   8.163   0.582  13.860
68013SOL    HW1 5936   8.145   0.507  13.917
68013SOL    HW2 5937   8.116   0.655  13.899
68014SOL     OW 5938   5.476   8.510  14.596
68014SOL    HW1 5939   5.436   8.491  14.511
68014SOL    HW2 5940   5.506   8.425  14.628
68015SOL     OW 5941   0.439   9.186  10.160
68015SOL    HW1 5942   0.439   9.237  10.079
68015SOL    HW2 5943   0.497   9.234  10.219
68016SOL     OW 5944  10.024   5.220   2.959
68016SOL    HW1 5945  10.049   5.175   3.039
68016SOL    HW2 5946   9.928   5.224   2.962
68017SOL     OW 5947  11.679  10.389   3.619
68017SOL    HW1 5948  11.620  10.346   3.557
68017SOL    HW2 5949  11.736  10.444   3.564
68018SOL     OW 5950   4.662   8.916   2.110
68018SOL    HW1 5951   4.747   8.918   2.155
68018SOL    HW2 5952   4.612   8.849   2.156
68019SOL     OW 5953   9.637   9.879   8.283
68019SOL    HW1 5954   9.651   9.898   8.376
68019SOL    HW2 5955   9.638   9.784   8.277
68020SOL     OW 5956   1.933   4.887  10.308
68020SOL    HW1 5957   1.849   4.894  10.263
68020SOL    HW2 5958   1.910   4.888  10.401
68021SOL     OW 5959   7.614  12.317   5.993
68021SOL    HW1 5960   7.642  12.327   5.902
68021SOL    HW2 5961   7.617  12.223   6.009
68022SOL     OW 5962   2.455   3.666   6.288
68022SOL    HW1 5963   2.548   3.678   6.272
68022SOL    HW2 5964   2.412   3.708   6.214
68023SOL     OW 5965   2.044   3.581  12.607
68023SOL    HW1 5966   1.971   3.629  12.569
68023SOL    HW2 5967   2.013   3.490  12.613
68024SOL     OW 5968   5.147   8.200  14.193
68024SOL    HW1 5969   5.133   8.208  14.287
68024SOL    HW2 5970   5.157   8.106  14.178
68025SOL     OW 5971  11.859  14.623   3.599
68025SOL    HW1 5972  11.816  14.560   3.542
68025SOL    HW2 5973  11.790  14.685   3.624
68026SOL     OW 5974  12.408  11.424  11.809
68026SOL    HW1 5975  12.432  11.362  11.740
68026SOL    HW2 5976  12.330  11.385  11.849
68027SOL     OW 5977   6.133   0.078   1.723
68027SOL    HW1 5978   6.191   0.062   1.648
68027SOL    HW2 5979   6.154   0.008   1.785
68028SOL     OW 5980   8.160   0.665  11.319
68028SOL    HW1 5981   8.115   0.747  11.338
68028SOL    HW2 5982   8.162   0.618  11.403
68029SOL     OW 5983   1.766   2.166   7.646
68029SOL    HW1 5984   1.777   2.261   7.634
68029SOL    HW2 5985   1.849   2.137   7.684
68030SOL     OW 5986  14.695  12.481   0.804
68030SOL    HW1 5987  14.771  12.533   0.781
68030SOL    HW2 5988  14.658  12.526   0.881
68031SOL     OW 5989   9.745   4.483   4.367
68031SOL    HW1 5990   9.761   4.422   4.439
68031SOL    HW2 5991   9.832   4.498   4.329
68032SOL     OW 5992   1.814   9.663   3.766
68032SOL    HW1 5993   1.791   9.600   3.835
68032SOL    HW2 5994   1.824   9.746   3.812
68033SOL     OW 5995   8.392   7.207  13.155
68033SOL    HW1 5996   8.449   7.134  13.129
68033SOL    HW2 5997   8.330   7.169  13.217
68034SOL     OW 5998  14.208   9.362   0.613
68034SOL    HW1 5999  14.144   9.433   0.611
68034SOL    HW2 6000  14.165   9.291   0.565
68035SOL     OW 6001  11.256  11.263  11.014
68035SOL    HW1 6002  11.311  11.265  10.936
68035SOL    HW2 6003  11.292  11.192  11.067
68036SOL     OW 6004   8.127  11.942   1.316
68036SOL    HW1 6005   8.085  11.938   1.230
68036SOL    HW2 6006   8.185  12.017   1.310
68037SOL     OW 6007   8.940  11.897   8.155
68037SOL    HW1 6008   8.932  11.992   8.159
68037SOL    HW2 6009   8.875  11.865   8.219
68038SOL     OW 6010   8.465   0.183  13.052
68038SOL    HW1 6011   8.410   0.105  13.059
68038SOL    HW2 6012   8.466   0.203  12.958
68039SOL     OW 6013   8.176  12.025   4.538
68039SOL    HW1 6014   8.194  12.119   4.548
68039SOL    HW2 6015   8.153  12.014   4.446
68040SOL     OW 6016   5.871   9.737   9.411
68040SOL    HW1 6017   5.906   9.763   9.326
68040SOL    HW2 6018   5.948   9.723   9.465
68041SOL     OW 6019   9.215   2.006  10.354
68041SOL    HW1 6020   9.216   2.089  10.306
68041SOL    HW2 6021   9.136   2.011  10.408
68042SOL     OW 6022   4.021  14.317  12.862
68042SOL    HW1 6023   4.094  14.355  12.913
68042SOL    HW2 6024   3.957  14.388  12.857
68043SOL     OW 6025  12.810   3.729  14.568
68043SOL    HW1 6026  12.824   3.711  14.661
68043SOL    HW2 6027  12.889   3.776  14.541
68044SOL     OW 6028   5.408   3.657   1.013
68044SOL    HW1 6029   5.367   3.584   1.058
68044SOL    HW2 6030   5.502   3.641   1.023
68045SOL     OW 6031   2.310  14.605   9.121
68045SOL    HW1 6032   2.382  14.665   9.104
68045SOL    HW2 6033   2.234  14.647   9.079
68046SOL     OW 6034   2.912  12.113   8.397
68046SOL    HW1 6035   2.862  12.194   8.391
68046SOL    HW2 6036   2.988  12.126   8.341
68047SOL     OW 6037  11.264   7.430  13.251
68047SOL    HW1 6038  11.242   7.431  13.157
68047SOL    HW2 6039  11.210   7.500  13.288
68048SOL     OW 6040  13.401   6.832   7.443
68048SOL    HW1 6041  13.398   6.927   7.432
68048SOL    HW2 6042  13.368   6.817   7.532
68049SOL     OW 6043   2.957   3.130   0.961
68049SOL    HW1 6044   3.048   3.155   0.978
68049SOL    HW2 6045   2.925   3.196   0.900
68050SOL     OW 6046   1.205   6.211   0.104
68050SOL    HW1 6047   1.230   6.127   0.064
68050SOL    HW2 6048   1.201   6.272   0.031
68051SOL     OW 6049  14.315  12.371  14.144
68051SOL    HW1 6050  14.229  12.334  14.127
68051SOL    HW2 6051  14.328  12.434  14.073
68052SOL     OW 6052   3.174   6.471   7.739
68052SOL    HW1 6053   3.144   6.548   7.691
68052SOL    HW2 6054   3.151   6.489   7.830
68053SOL     OW 6055   3.573   0.607  10.249
68053SOL    HW1 6056   3.541   0.517  10.259
68053SOL    HW2 6057   3.562   0.646  10.336
68054SOL     OW 6058  11.829   1.243  12.274
68054SOL    HW1 6059  11.798   1.207  12.357
68054SOL    HW2 6060  11.754   1.237  12.216
68055SOL     OW 6061   8.305   2.141   8.404
68055SOL    HW1 6062   8.325   2.059   8.359
68055SOL    HW2 6063   8.345   2.132   8.490
68056SOL     OW 6064  10.236   5.779   2.607
68056SOL    HW1 6065  10.187   5.859   2.628
68056SOL    HW2 6066  10.187   5.739   2.536
68057SOL     OW 6067  10.013  10.252  12.136
68057SOL    HW1 6068  10.029  10.158  12.148
68057SOL    HW2 6069  10.089  10.294  12.173
68058SOL     OW 6070   9.431   1.501  11.980
68058SOL    HW1 6071   9.406   1.420  12.025
68058SOL    HW2 6072   9.503   1.537  12.033
68059SOL     OW 6073  11.575   6.850   7.766
68059SOL    HW1 6074  11.502   6.789   7.754
68059SOL    HW2 6075  11.653   6.796   7.763
68060SOL     OW 6076  13.715   2.211   6.367
68060SOL    HW1 6077  13.740   2.293   6.324
68060SOL    HW2 6078  13.795   2.158   6.364
68061SOL     OW 6079  13.160  14.833   5.177
68061SOL    HW1 6080  13.230  14.871   5.124
68061SOL    HW2 6081  13.085   0.017   5.164
68062SOL     OW 6082   7.515  12.672   1.827
68062SOL    HW1 6083   7.578  12.666   1.755
68062SOL    HW2 6084   7.436  12.632   1.792
68063SOL     OW 6085  11.048  13.826   1.827
68063SOL    HW1 6086  11.135  13.820   1.788
68063SOL    HW2 6087  11.002  13.748   1.795
68064SOL     OW 6088   6.009   7.965  11.399
68064SOL    HW1 6089   5.917   7.942  11.384
68064SOL    HW2 6090   6.059   7.897  11.353
68065SOL     OW 6091   6.862   9.963   8.851
68065SOL    HW1 6092   6.780   9.981   8.896
68065SOL    HW2 6093   6.930   9.998   8.908
68066SOL     OW 6094   2.876  10.825   6.994
68066SOL    HW1 6095   2.805  10.839   7.057
68066SOL    HW2 6096   2.944  10.886   7.021
68067SOL     OW 6097   1.875   9.879   2.380
68067SOL    HW1 6098   1.965   9.909   2.396
68067SOL    HW2 6099   1.827   9.958   2.356
68068SOL     OW 6100  12.736  14.820  14.647
68068SOL    HW1 6101  12.777   0.010  14.704
68068SOL    HW2 6102  12.810  14.781  14.600
68069SOL     OW 6103   0.362   8.649   2.883
68069SOL    HW1 6104   0.439   8.606   2.848
68069SOL    HW2 6105   0.385   8.670   2.974
68070SOL     OW 6106  11.176  10.319  12.755
68070SOL    HW1 6107  11.083  10.334  12.743
68070SOL    HW2 6108  11.186  10.224  12.752
68071SOL     OW 6109   9.848   1.685   5.280
68071SOL    HW1 6110   9.882   1.775   5.275
68071SOL    HW2 6111   9.843   1.656   5.189
68072SOL     OW 6112   6.431   8.827   9.988
68072SOL    HW1 6113   6.383   8.753   9.952
68072SOL    HW2 6114   6.419   8.819  10.083
68073SOL     OW 6115  11.580   9.723   7.322
68073SOL    HW1 6116  11.622   9.693   7.242
68073SOL    HW2 6117  11.627   9.804   7.344
68074SOL     OW 6118  12.538   8.795   6.693
68074SOL    HW1 6119  12.516   8.888   6.682
68074SOL    HW2 6120  12.633   8.792   6.689
68075SOL     OW 6121  14.703  10.816   7.674
68075SOL    HW1 6122  14.712  10.911   7.684
68075SOL    HW2 6123  14.783  10.789   7.630
68076SOL     OW 6124  10.796   4.113   9.174
68076SOL    HW1 6125  10.795   4.209   9.175
68076SOL    HW2 6126  10.888   4.091   9.160
68077SOL     OW 6127   6.425  10.791  11.426
68077SOL    HW1 6128   6.339  10.787  11.384
68077SOL    HW2 6129   6.407  10.825  11.513
68078SOL     OW 6130  11.803   7.079  14.643
68078SOL    HW1 6131  11.821   7.033  14.725
68078SOL    HW2 6132  11.885   7.123  14.621
68079SOL     OW 6133   1.723   0.053  14.271
68079SOL    HW1 6134   1.793   0.082  14.213
68079SOL    HW2 6135   1.729  14.832  14.269
68080SOL     OW 6136  10.429  14.221   6.700
68080SOL    HW1 6137  10.353  14.183   6.744
68080SOL    HW2 6138  10.393  14.288   6.642
68081SOL     OW 6139   6.489   7.042   2.308
68081SOL    HW1 6140   6.478   6.951   2.283
68081SOL    HW2 6141   6.466   7.092   2.229
68082SOL     OW 6142  13.719   2.721   6.370
68082SOL    HW1 6143  13.671   2.739   6.450
68082SOL    HW2 6144  13.664   2.757   6.300
68083SOL     OW 6145   8.570  11.661   4.780
68083SOL    HW1 6146   8.558  11.706   4.864
68083SOL    HW2 6147   8.517  11.582   4.787
68084SOL     OW 6148   5.388  14.755   7.703
68084SOL    HW1 6149   5.368  14.725   7.615
68084SOL    HW2 6150   5.419  14.845   7.692
68085SOL     OW 6151  13.752   9.741  12.841
68085SOL    HW1 6152  13.804   9.684  12.785
68085SOL    HW2 6153  13.676   9.688  12.865
68086SOL     OW 6154   2.835   3.402   1.493
68086SOL    HW1 6155   2.821   3.372   1.403
68086SOL    HW2 6156   2.847   3.321   1.543
68087SOL     OW 6157   2.718   8.173  10.108
68087SOL    HW1 6158   2.765   8.227  10.172
68087SOL    HW2 6159   2.765   8.090  10.108
68088SOL     OW 6160   7.703   0.161  13.858
68088SOL    HW1 6161   7.788   0.205  13.850
68088SOL    HW2 6162   7.640   0.233  13.866
68089SOL     OW 6163  14.048   3.716   9.062
68089SOL    HW1 6164  14.106   3.649   9.097
68089SOL    HW2 6165  14.020   3.767   9.138
68090SOL     OW 6166   8.011   3.721   8.099
68090SOL    HW1 6167   8.097   3.729   8.142
68090SOL    HW2 6168   8.016   3.782   8.026
68091SOL     OW 6169   4.582   2.220   1.635
68091SOL    HW1 6170   4.590   2.222   1.730
68091SOL    HW2 6171   4.532   2.299   1.613
68092SOL     OW 6172   9.536   1.303   5.926
68092SOL    HW1 6173   9.463   1.264   5.877
68092SOL    HW2 6174   9.612   1.291   5.870
68093SOL     OW 6175  12.220   4.168  13.680
68093SOL    HW1 6176  12.282   4.129  13.741
68093SOL    HW2 6177  12.169   4.094  13.647
68094SOL     OW 6178   4.940  12.298  14.504
68094SOL    HW1 6179   4.955  12.344  14.421
68094SOL    HW2 6180   4.943  12.205  14.480
68095SOL     OW 6181   2.356   3.171   0.302
68095SOL    HW1 6182   2.358   3.207   0.213
68095SOL    HW2 6183   2.433   3.115   0.307
68096SOL     OW 6184   8.645   7.476  14.463
68096SOL    HW1 6185   8.709   7.509  14.400
68096SOL    HW2 6186   8.563   7.518  14.439
68097SOL     OW 6187   1.204   1.516   8.582
68097SOL    HW1 6188   1.238   1.447   8.526
68097SOL    HW2 6189   1.281   1.561   8.615
68098SOL     OW 6190   9.045   8.632  10.851
68098SOL    HW1 6191   9.094   8.701  10.896
68098SOL    HW2 6192   9.112   8.583  10.802
68099SOL     OW 6193  11.951   4.227  10.900
68099SOL    HW1 6194  11.949   4.245  10.994
68099SOL    HW2 6195  12.028   4.274  10.868
68100SOL     OW 6196   3.671  11.905   8.472
68100SOL    HW1 6197   3.615  11.836   8.437
68100SOL    HW2 6198   3.731  11.860   8.531
68101SOL     OW 6199   8.903   9.875  14.820
68101SOL    HW1 6200   8.972   9.861  14.754
68101SOL    HW2 6201   8.833   9.815  14.795
68102SOL     OW 6202   7.834   2.502   7.208
68102SOL    HW1 6203   7.923   2.471   7.225
68102SOL    HW2 6204   7.843   2.598   7.204
68103SOL     OW 6205   5.860   9.915   5.320
68103SOL    HW1 6206   5.812   9.912   5.403
68103SOL    HW2 6207   5.867   9.823   5.293
68104SOL     OW 6208  12.064   8.632  13.278
68104SOL    HW1 6209  12.009   8.599  13.349
68104SOL    HW2 6210  12.090   8.553  13.229
68105SOL     OW 6211   6.933  12.375  14.460
68105SOL    HW1 6212   6.894  12.456  14.426
68105SOL    HW2 6213   6.932  12.315  14.385
68106SOL     OW 6214   4.698  10.509   9.469
68106SOL    HW1 6215   4.749  10.464   9.537
68106SOL    HW2 6216   4.663  10.438   9.416
68107SOL     OW 6217  11.535   1.835  12.132
68107SOL    HW1 6218  11.463   1.892  12.160
68107SOL    HW2 6219  11.532   1.761  12.192
68108SOL     OW 6220   0.241   4.423   6.449
68108SOL    HW1 6221   0.280   4.442   6.534
68108SOL    HW2 6222   0.166   4.367   6.468
68109SOL     OW 6223  14.434  14.086  11.215
68109SOL    HW1 6224  14.507  14.135  11.250
68109SOL    HW2 6225  14.368  14.152  11.193
68110SOL     OW 6226  10.040   4.242  10.989
68110SOL    HW1 6227   9.981   4.226  10.914
68110SOL    HW2 6228  10.119   4.279  10.949
68111SOL     OW 6229   0.134   8.537   4.729
68111SOL    HW1 6230   0.042   8.511   4.719
68111SOL    HW2 6231   0.137   8.628   4.699
68112SOL     OW 6232   1.871  12.926   9.621
68112SOL    HW1 6233   1.791  12.977   9.629
68112SOL    HW2 6234   1.910  12.955   9.539
68113SOL     OW 6235   1.751   5.987   9.796
68113SOL    HW1 6236   1.806   6.064   9.810
68113SOL    HW2 6237   1.734   5.987   9.702
68114SOL     OW 6238  13.545   7.653   5.482
68114SOL    HW1 6239  13.465   7.673   5.433
68114SOL    HW2 6240  13.544   7.558   5.491
68115SOL     OW 6241   1.926  10.318  10.730
68115SOL    HW1 6242   1.969  10.312  10.816
68115SOL    HW2 6243   1.833  10.331  10.751
68116SOL     OW 6244   6.031  10.061   1.983
68116SOL    HW1 6245   6.083  10.138   1.962
68116SOL    HW2 6246   6.025  10.012   1.902
68117SOL     OW 6247  11.575   2.858   9.658
68117SOL    HW1 6248  11.513   2.818   9.719
68117SOL    HW2 6249  11.634   2.909   9.714
68118SOL     OW 6250  11.128  10.392   9.229
68118SOL    HW1 6251  11.128  10.301   9.258
68118SOL    HW2 6252  11.040  10.423   9.246
68119SOL     OW 6253  14.565  11.989   8.031
68119SOL    HW1 6254  14.558  11.904   7.988
68119SOL    HW2 6255  14.545  11.972   8.123
68120SOL     OW 6256   2.171  12.652  12.959
68120SOL    HW1 6257   2.214  12.568  12.942
68120SOL    HW2 6258   2.197  12.675  13.048
68121SOL     OW 6259   7.926   8.957   2.877
68121SOL    HW1 6260   7.861   8.886   2.877
68121SOL    HW2 6261   8.004   8.917   2.839
68122SOL     OW 6262   9.297  13.200  11.582
68122SOL    HW1 6263   9.340  13.218  11.665
68122SOL    HW2 6264   9.230  13.268  11.574
68123SOL     OW 6265   4.169   4.424   3.857
68123SOL    HW1 6266   4.100   4.427   3.923
68123SOL    HW2 6267   4.242   4.473   3.896
68124SOL     OW 6268   9.931   3.327  10.649
68124SOL    HW1 6269   9.882   3.402  10.685
68124SOL    HW2 6270   9.882   3.301  10.571
68125SOL     OW 6271   4.275  11.128  14.375
68125SOL    HW1 6272   4.270  11.151  14.468
68125SOL    HW2 6273   4.195  11.162  14.337
68126SOL     OW 6274  11.723  13.384  13.440
68126SOL    HW1 6275  11.727  13.416  13.349
68126SOL    HW2 6276  11.664  13.309  13.437
68127SOL     OW 6277   7.529  11.557   8.927
68127SOL    HW1 6278   7.573  11.581   8.846
68127SOL    HW2 6279   7.447  11.606   8.925
68128SOL     OW 6280  14.344   1.997   7.053
68128SOL    HW1 6281  14.437   2.015   7.035
68128SOL    HW2 6282  14.331   1.907   7.022
68129SOL     OW 6283   7.142   5.630   6.190
68129SOL    HW1 6284   7.134   5.592   6.103
68129SOL    HW2 6285   7.236   5.633   6.207
68130SOL     OW 6286   5.121  10.787   9.163
68130SOL    HW1 6287   5.063  10.798   9.239
68130SOL    HW2 6288   5.072  10.729   9.105
68131SOL     OW 6289   8.308   8.578   4.683
68131SOL    HW1 6290   8.346   8.596   4.597
68131SOL    HW2 6291   8.312   8.661   4.729
68132SOL     OW 6292  12.522   8.719   4.351
68132SOL    HW1 6293  12.539   8.652   4.286
68132SOL    HW2 6294  12.588   8.705   4.418
68133SOL     OW 6295   6.138   1.301   9.287
68133SOL    HW1 6296   6.091   1.382   9.267
68133SOL    HW2 6297   6.147   1.257   9.202
68134SOL     OW 6298   5.865   3.297  11.695
68134SOL    HW1 6299   5.814   3.357  11.640
68134SOL    HW2 6300   5.827   3.308  11.782
68135SOL     OW 6301   5.827  12.392  14.128
68135SOL    HW1 6302   5.750  12.410  14.075
68135SOL    HW2 6303   5.792  12.367  14.214
68136SOL     OW 6304   1.409  10.726   6.186
68136SOL    HW1 6305   1.387  10.725   6.279
68136SOL    HW2 6306   1.487  10.781   6.180
68137SOL     OW 6307   9.460   2.694  10.563
68137SOL    HW1 6308   9.535   2.753  10.572
68137SOL    HW2 6309   9.408   2.733  10.493
68138SOL     OW 6310   3.968  12.939  13.197
68138SOL    HW1 6311   3.941  12.988  13.274
68138SOL    HW2 6312   3.991  13.006  13.133
68139SOL     OW 6313   4.153   7.177   2.837
68139SOL    HW1 6314   4.086   7.115   2.867
68139SOL    HW2 6315   4.170   7.234   2.912
68140SOL     OW 6316   1.814  14.662   9.863
68140SOL    HW1 6317   1.894  14.651   9.811
68140SOL    HW2 6318   1.744  14.662   9.798
68141SOL     OW 6319   8.489   8.541   6.633
68141SOL    HW1 6320   8.471   8.552   6.727
68141SOL    HW2 6321   8.582   8.563   6.624
68142SOL     OW 6322   9.172  12.222   5.001
68142SOL    HW1 6323   9.082  12.191   4.994
68142SOL    HW2 6324   9.205  12.183   5.082
68143SOL     OW 6325   7.177   9.984   2.782
68143SOL    HW1 6326   7.228   9.904   2.793
68143SOL    HW2 6327   7.174  10.023   2.870
68144SOL     OW 6328   3.254   7.924  11.090
68144SOL    HW1 6329   3.246   7.940  10.996
68144SOL    HW2 6330   3.174   7.879  11.114
68145SOL     OW 6331   0.314   8.635   3.168
68145SOL    HW1 6332   0.317   8.539   3.176
68145SOL    HW2 6333   0.220   8.654   3.159
68146SOL     OW 6334  12.900  13.030  11.283
68146SOL    HW1 6335  12.927  12.987  11.202
68146SOL    HW2 6336  12.962  13.102  11.294
68147SOL     OW 6337  14.776   7.706   3.864
68147SOL    HW1 6338  14.681   7.703   3.880
68147SOL    HW2 6339  14.786   7.771   3.795
68148SOL     OW 6340   8.171  14.180  14.186
68148SOL    HW1 6341   8.263  14.153  14.182
68148SOL    HW2 6342   8.157  14.202  14.278
68149SOL     OW 6343   9.519   9.018   4.228
68149SOL    HW1 6344   9.429   9.028   4.195
68149SOL    HW2 6345   9.512   8.950   4.294
68150SOL     OW 6346  12.043  12.057  10.832
68150SOL    HW1 6347  12.075  11.973  10.799
68150SOL    HW2 6348  12.121  12.103  10.862
68151SOL     OW 6349   1.051   5.076   0.274
68151SOL    HW1 6350   1.094   5.160   0.260
68151SOL    HW2 6351   1.024   5.049   0.186
68152SOL     OW 6352   5.042   7.967  13.414
68152SOL    HW1 6353   5.022   7.876  13.392
68152SOL    HW2 6354   5.027   8.015  13.332
68153SOL     OW 6355   3.339  12.689  11.413
68153SOL    HW1 6356   3.305  12.761  11.360
68153SOL    HW2 6357   3.263  12.657  11.461
68154SOL     OW 6358  13.996   8.431   8.889
68154SOL    HW1 6359  13.984   8.392   8.803
68154SOL    HW2 6360  14.088   8.456   8.891
68155SOL     OW 6361   5.975   5.033   1.502
68155SOL    HW1 6362   6.034   4.958   1.493
68155SOL    HW2 6363   6.026   5.099   1.550
68156SOL     OW 6364  14.391  11.135   3.789
68156SOL    HW1 6365  14.297  11.121   3.789
68156SOL    HW2 6366  14.418  11.122   3.880
68157SOL     OW 6367   1.293  10.871   4.574
68157SOL    HW1 6368   1.310  10.910   4.660
68157SOL    HW2 6369   1.206  10.904   4.550
68158SOL     OW 6370   3.035   7.457   6.908
68158SOL    HW1 6371   2.978   7.507   6.966
68158SOL    HW2 6372   2.975   7.404   6.855
68159SOL     OW 6373   7.754   8.070   8.396
68159SOL    HW1 6374   7.704   8.043   8.472
68159SOL    HW2 6375   7.751   7.994   8.337
68160SOL     OW 6376   4.261  13.082   1.729
68160SOL    HW1 6377   4.193  13.148   1.743
68160SOL    HW2 6378   4.230  13.004   1.775
68161SOL     OW 6379   0.314   5.905  13.152
68161SOL    HW1 6380   0.281   5.928  13.065
68161SOL    HW2 6381   0.401   5.944  13.156
68162SOL     OW 6382   4.855  11.546  13.063
68162SOL    HW1 6383   4.863  11.627  13.013
68162SOL    HW2 6384   4.814  11.572  13.146
68163SOL     OW 6385   4.682   6.634   8.596
68163SOL    HW1 6386   4.658   6.609   8.506
68163SOL    HW2 6387   4.645   6.565   8.650
68164SOL     OW 6388   8.942   5.634  11.940
68164SOL    HW1 6389   8.939   5.713  11.886
68164SOL    HW2 6390   8.954   5.667  12.029
68165SOL     OW 6391  14.725  13.689  11.289
68165SOL    HW1 6392  14.650  13.661  11.237
68165SOL    HW2 6393  14.731  13.624  11.359
68166SOL     OW 6394   1.308   6.442  10.971
68166SOL    HW1 6395   1.313   6.414  11.063
68166SOL    HW2 6396   1.399   6.450  10.943
68167SOL     OW 6397   1.824  13.735   6.424
68167SOL    HW1 6398   1.907  13.716   6.469
68167SOL    HW2 6399   1.767  13.771   6.492
68168SOL     OW 6400   6.007   5.979  10.371
68168SOL    HW1 6401   6.024   6.059  10.422
68168SOL    HW2 6402   5.939   6.004  10.309
68169SOL     OW 6403   5.473   6.779   6.231
68169SOL    HW1 6404   5.444   6.862   6.268
68169SOL    HW2 6405   5.404   6.755   6.169
68170SOL     OW 6406  10.670   5.387   8.927
68170SOL    HW1 6407  10.599   5.424   8.875
68170SOL    HW2 6408  10.638   5.302   8.956
68171SOL     OW 6409   8.473  13.829   9.930
68171SOL    HW1 6410   8.398  13.882   9.958
68171SOL    HW2 6411   8.545  13.857   9.988
68172SOL     OW 6412  13.923   0.013   0.248
68172SOL    HW1 6413  13.959   0.007   0.337
68172SOL    HW2 6414  13.984  14.837   0.195
68173SOL     OW 6415   8.901   3.058   3.348
68173SOL    HW1 6416   8.846   3.009   3.409
68173SOL    HW2 6417   8.878   3.025   3.261
68174SOL     OW 6418  10.243   7.781   8.895
68174SOL    HW1 6419  10.238   7.701   8.947
68174SOL    HW2 6420  10.320   7.769   8.840
68175SOL     OW 6421  14.505   0.885   2.338
68175SOL    HW1 6422  14.570   0.954   2.324
68175SOL    HW2 6423  14.554   0.814   2.379
68176SOL     OW 6424   9.108  12.919  13.497
68176SOL    HW1 6425   9.137  12.852  13.559
68176SOL    HW2 6426   9.188  12.945  13.450
68177SOL     OW 6427   4.723  14.857   1.091
68177SOL    HW1 6428   4.810  14.849   1.053
68177SOL    HW2 6429   4.682  14.771   1.078
68178SOL     OW 6430  14.385  14.502  10.067
68178SOL    HW1 6431  14.463  14.549  10.098
68178SOL    HW2 6432  14.313  14.537  10.121
68179SOL     OW 6433   9.046   2.289  13.224
68179SOL    HW1 6434   9.112   2.304  13.292
68179SOL    HW2 6435   9.076   2.211  13.179
68180SOL     OW 6436  14.707   9.982  10.485
68180SOL    HW1 6437  14.731  10.039  10.559
68180SOL    HW2 6438  14.714  10.039  10.409
68181SOL     OW 6439   2.159   0.532   6.584
68181SOL    HW1 6440   2.165   0.491   6.671
68181SOL    HW2 6441   2.066   0.552   6.573
68182SOL     OW 6442   3.491   2.613   5.095
68182SOL    HW1 6443   3.523   2.593   5.183
68182SOL    HW2 6444   3.401   2.642   5.108
68183SOL     OW 6445  13.286  14.832  13.800
68183SOL    HW1 6446  13.381  14.823  13.788
68183SOL    HW2 6447  13.248  14.783  13.727
68184SOL     OW 6448  10.684   6.786  11.573
68184SOL    HW1 6449  10.682   6.795  11.668
68184SOL    HW2 6450  10.641   6.702  11.556
68185SOL     OW 6451   8.234  12.756   7.738
68185SOL    HW1 6452   8.278  12.825   7.688
68185SOL    HW2 6453   8.216  12.796   7.823
68186SOL     OW 6454   4.542  13.142   8.633
68186SOL    HW1 6455   4.626  13.109   8.602
68186SOL    HW2 6456   4.502  13.067   8.678
68187SOL     OW 6457   2.692   3.649   1.055
68187SOL    HW1 6458   2.653   3.681   1.136
68187SOL    HW2 6459   2.753   3.717   1.029
68188SOL     OW 6460  14.241   6.999  11.472
68188SOL    HW1 6461  14.222   7.019  11.380
68188SOL    HW2 6462  14.156   6.974  11.509
68189SOL     OW 6463   7.086   1.533  12.258
68189SOL    HW1 6464   7.011   1.574  12.301
68189SOL    HW2 6465   7.047   1.481  12.188
68190SOL     OW 6466   9.015   7.694   0.185
68190SOL    HW1 6467   9.062   7.630   0.239
68190SOL    HW2 6468   8.976   7.641   0.115
68191SOL     OW 6469  13.277   4.444   2.119
68191SOL    HW1 6470  13.330   4.510   2.074
68191SOL    HW2 6471  13.340   4.379   2.150
68192SOL     OW 6472  11.726  10.165  14.627
68192SOL    HW1 6473  11.761  10.092  14.678
68192SOL    HW2 6474  11.768  10.243  14.664
68193SOL     OW 6475  10.020  11.711   7.318
68193SOL    HW1 6476  10.072  11.738   7.394
68193SOL    HW2 6477   9.935  11.687   7.354
68194SOL     OW 6478  11.607  13.164   8.666
68194SOL    HW1 6479  11.595  13.131   8.755
68194SOL    HW2 6480  11.599  13.259   8.673
68195SOL     OW 6481  14.761   7.370   6.742
68195SOL    HW1 6482  14.731   7.395   6.829
68195SOL    HW2 6483  14.708   7.422   6.682
68196SOL     OW 6484  11.817  12.870   2.928
68196SOL    HW1 6485  11.816  12.958   2.890
68196SOL    HW2 6486  11.900  12.865   2.976
68197SOL     OW 6487   2.855   7.426   2.665
68197SOL    HW1 6488   2.893   7.355   2.612
68197SOL    HW2 6489   2.779   7.386   2.707
68198SOL     OW 6490  12.664   3.520   8.928
68198SOL    HW1 6491  12.749   3.501   8.967
68198SOL    HW2 6492  12.628   3.591   8.980
68199SOL     OW 6493   2.296   8.519  13.424
68199SOL    HW1 6494   2.216   8.546  13.380
68199SOL    HW2 6495   2.324   8.440  13.378
68200SOL     OW 6496   6.626  11.895   0.739
68200SOL    HW1 6497   6.645  11.843   0.661
68200SOL    HW2 6498   6.709  11.937   0.761
68201SOL     OW 6499  10.936   4.967   8.506
68201SOL    HW1 6500  10.886   5.048   8.520
68201SOL    HW2 6501  10.936   4.924   8.592
68202SOL     OW 6502   8.992   7.354   9.070
68202SOL    HW1 6503   9.015   7.279   9.016
68202SOL    HW2 6504   8.957   7.316   9.150
68203SOL     OW 6505  14.387   2.847   5.650
68203SOL    HW1 6506  14.429   2.768   5.683
68203SOL    HW2 6507  14.330   2.875   5.722
68204SOL     OW 6508   8.612   4.092   5.186
68204SOL    HW1 6509   8.584   4.052   5.268
68204SOL    HW2 6510   8.690   4.042   5.161
68205SOL     OW 6511   9.267   1.016  10.172
68205SOL    HW1 6512   9.333   1.058  10.116
68205SOL    HW2 6513   9.242   1.084  10.234
68206SOL     OW 6514   8.629   5.035  14.112
68206SOL    HW1 6515   8.702   4.978  14.089
68206SOL    HW2 6516   8.592   5.061  14.028
68207SOL     OW 6517   0.166   9.618   9.613
68207SOL    HW1 6518   0.085   9.664   9.636
68207SOL    HW2 6519   0.206   9.597   9.697
68208SOL     OW 6520   0.530   1.172   2.095
68208SOL    HW1 6521   0.552   1.238   2.161
68208SOL    HW2 6522   0.472   1.111   2.140
68209SOL     OW 6523  13.179  10.600  13.571
68209SOL    HW1 6524  13.198  10.676  13.625
68209SOL    HW2 6525  13.254  10.592  13.512
68210SOL     OW 6526   1.651   7.001   3.028
68210SOL    HW1 6527   1.616   7.090   3.020
68210SOL    HW2 6528   1.718   6.995   2.960
68211SOL     OW 6529   6.079  14.541   7.674
68211SOL    HW1 6530   6.136  14.542   7.751
68211SOL    HW2 6531   5.992  14.522   7.710
68212SOL     OW 6532   6.466   5.961   5.959
68212SOL    HW1 6533   6.551   5.928   5.987
68212SOL    HW2 6534   6.404   5.892   5.983
68213SOL     OW 6535   0.700   4.874  11.386
68213SOL    HW1 6536   0.703   4.818  11.309
68213SOL    HW2 6537   0.685   4.814  11.459
68214SOL     OW 6538   0.348  12.316   3.826
68214SOL    HW1 6539   0.421  12.263   3.858
68214SOL    HW2 6540   0.349  12.394   3.881
68215SOL     OW 6541   6.361   8.170  10.958
68215SOL    HW1 6542   6.402   8.110  11.019
68215SOL    HW2 6543   6.273   8.183  10.992
68216SOL     OW 6544  10.722   7.833   1.307
68216SOL    HW1 6545  10.715   7.809   1.399
68216SOL    HW2 6546  10.719   7.750   1.260
68217SOL     OW 6547   6.123   6.993   3.006
68217SOL    HW1 6548   6.217   6.984   2.988
68217SOL    HW2 6549   6.101   6.916   3.059
68218SOL     OW 6550   6.634   9.519   5.379
68218SOL    HW1 6551   6.608   9.427   5.381
68218SOL    HW2 6552   6.551   9.568   5.376
68219SOL     OW 6553  10.758   7.314   0.637
68219SOL    HW1 6554  10.700   7.297   0.711
68219SOL    HW2 6555  10.812   7.236   0.630
68220SOL     OW 6556   6.355   2.440   5.783
68220SOL    HW1 6557   6.312   2.355   5.792
68220SOL    HW2 6558   6.345   2.481   5.869
68221SOL     OW 6559   5.786  12.486   3.752
68221SOL    HW1 6560   5.840  12.555   3.712
68221SOL    HW2 6561   5.782  12.510   3.845
68222SOL     OW 6562   3.133   8.456  10.580
68222SOL    HW1 6563   3.131   8.524  10.647
68222SOL    HW2 6564   3.220   8.417  10.587
68223SOL     OW 6565   7.275  10.886   5.830
68223SOL    HW1 6566   7.359  10.840   5.824
68223SOL    HW2 6567   7.298  10.978   5.823
68224SOL     OW 6568   3.292   4.414   7.915
68224SOL    HW1 6569   3.336   4.328   7.913
68224SOL    HW2 6570   3.355   4.472   7.956
68225SOL     OW 6571  13.669   4.132   3.462
68225SOL    HW1 6572  13.577   4.121   3.486
68225SOL    HW2 6573  13.682   4.073   3.388
68226SOL     OW 6574   0.718  12.367  11.500
68226SOL    HW1 6575   0.643  12.318  11.534
68226SOL    HW2 6576   0.786  12.301  11.485
68227SOL     OW 6577   2.983   8.263   8.979
68227SOL    HW1 6578   2.967   8.316   9.057
68227SOL    HW2 6579   3.051   8.310   8.931
68228SOL     OW 6580   3.311  14.621   5.237
68228SOL    HW1 6581   3.384  14.682   5.225
68228SOL    HW2 6582   3.272  14.612   5.150
68229SOL     OW 6583   1.751  14.356   6.623
68229SOL    HW1 6584   1.736  14.263   6.607
68229SOL    HW2 6585   1.840  14.371   6.592
68230SOL     OW 6586  14.726   8.783   8.386
68230SOL    HW1 6587  14.686   8.697   8.374
68230SOL    HW2 6588  14.678   8.822   8.459
68231SOL     OW 6589  14.762   6.583  10.593
68231SOL    HW1 6590  14.734   6.671  10.568
68231SOL    HW2 6591  14.816   6.554  10.520
68232SOL     OW 6592   0.466   9.897   2.972
68232SOL    HW1 6593   0.488   9.975   2.922
68232SOL    HW2 6594   0.372   9.907   2.990
68233SOL     OW 6595   4.201   0.556   6.689
68233SOL    HW1 6596   4.257   0.504   6.631
68233SOL    HW2 6597   4.259   0.582   6.761
68234SOL     OW 6598   2.575  10.697  12.002
68234SOL    HW1 6599   2.485  10.675  12.028
68234SOL    HW2 6600   2.582  10.668  11.911
68235SOL     OW 6601   7.446   4.121   2.454
68235SOL    HW1 6602   7.399   4.193   2.411
68235SOL    HW2 6603   7.380   4.075   2.505
68236SOL     OW 6604  11.114   9.370   0.944
68236SOL    HW1 6605  11.168   9.433   0.897
68236SOL    HW2 6606  11.131   9.286   0.901
68237SOL     OW 6607   1.152  10.836   7.417
68237SOL    HW1 6608   1.133  10.806   7.328
68237SOL    HW2 6609   1.229  10.786   7.443
68238SOL     OW 6610  12.525   3.490   6.088
68238SOL    HW1 6611  12.539   3.416   6.147
68238SOL    HW2 6612  12.510   3.565   6.146
68239SOL     OW 6613   4.373  11.174   1.797
68239SOL    HW1 6614   4.296  11.229   1.816
68239SOL    HW2 6615   4.430  11.229   1.744
68240SOL     OW 6616  10.864   5.785   6.759
68240SOL    HW1 6617  10.813   5.750   6.832
68240SOL    HW2 6618  10.833   5.735   6.683
68241SOL     OW 6619  13.318   1.849   7.834
68241SOL    HW1 6620  13.291   1.835   7.743
68241SOL    HW2 6621  13.237   1.872   7.880
68242SOL     OW 6622   1.885   4.750   1.675
68242SOL    HW1 6623   1.868   4.657   1.666
68242SOL    HW2 6624   1.941   4.757   1.753
68243SOL     OW 6625   9.506   3.373  10.504
68243SOL    HW1 6626   9.557   3.319  10.565
68243SOL    HW2 6627   9.419   3.377  10.542
68244SOL     OW 6628  12.674  14.554  13.692
68244SOL    HW1 6629  12.602  14.536  13.631
68244SOL    HW2 6630  12.630  14.573  13.775
68245SOL     OW 6631   3.810   5.696   4.248
68245SOL    HW1 6632   3.814   5.629   4.179
68245SOL    HW2 6633   3.755   5.657   4.316
68246SOL     OW 6634   6.640   9.520   1.181
68246SOL    HW1 6635   6.587   9.588   1.222
68246SOL    HW2 6636   6.589   9.491   1.105
68247SOL     OW 6637   0.606   3.324   4.208
68247SOL    HW1 6638   0.634   3.401   4.258
68247SOL    HW2 6639   0.531   3.290   4.256
68248SOL     OW 6640   7.131   8.355   2.101
68248SOL    HW1 6641   7.068   8.283   2.112
68248SOL    HW2 6642   7.093   8.427   2.151
68249SOL     OW 6643  10.305   2.552   4.067
68249SOL    HW1 6644  10.327   2.541   4.159
68249SOL    HW2 6645  10.245   2.627   4.065
68250SOL     OW 6646   0.818   0.712  13.816
68250SOL    HW1 6647   0.903   0.673  13.836
68250SOL    HW2 6648   0.815   0.713  13.720
68251SOL     OW 6649   6.887   7.158   7.719
68251SOL    HW1 6650   6.836   7.122   7.792
68251SOL    HW2 6651   6.905   7.083   7.662
68252SOL     OW 6652  12.320  10.675   0.713
68252SOL    HW1 6653  12.396  10.699   0.766
68252SOL    HW2 6654  12.248  10.670   0.776
68253SOL     OW 6655   0.875   3.778   7.841
68253SOL    HW1 6656   0.940   3.714   7.868
68253SOL    HW2 6657   0.825   3.795   7.921
68254SOL     OW 6658  14.268   1.200   6.902
68254SOL    HW1 6659  14.206   1.141   6.861
68254SOL    HW2 6660  14.271   1.277   6.844
68255SOL     OW 6661   2.490  12.282  13.865
68255SOL    HW1 6662   2.560  12.306  13.927
68255SOL    HW2 6663   2.493  12.186  13.863
68256SOL     OW 6664   5.169  14.146  14.565
68256SOL    HW1 6665   5.102  14.090  14.604
68256SOL    HW2 6666   5.216  14.088  14.505
68257SOL     OW 6667   1.792   5.229  10.118
68257SOL    HW1 6668   1.874   5.266  10.085
68257SOL    HW2 6669   1.806   5.222  10.212
68258SOL     OW 6670   2.562   0.690   2.043
68258SOL    HW1 6671   2.635   0.655   2.095
68258SOL    HW2 6672   2.483   0.662   2.091
68259SOL     OW 6673   6.916  14.694   8.955
68259SOL    HW1 6674   6.946  14.785   8.957
68259SOL    HW2 6675   6.995  14.642   8.944
68260SOL     OW 6676   0.701   0.503   7.903
68260SOL    HW1 6677   0.794   0.526   7.904
68260SOL    HW2 6678   0.670   0.531   7.817
68261SOL     OW 6679   5.567   5.410  14.648
68261SOL    HW1 6680   5.656   5.386  14.673
68261SOL    HW2 6681   5.541   5.476  14.713
68262SOL     OW 6682   6.003  14.832   2.613
68262SOL    HW1 6683   6.037  14.745   2.630
68262SOL    HW2 6684   6.053  14.863   2.538
68263SOL     OW 6685   2.333   5.390   6.300
68263SOL    HW1 6686   2.413   5.380   6.249
68263SOL    HW2 6687   2.338   5.322   6.367
68264SOL     OW 6688  13.782   9.678  13.192
68264SOL    HW1 6689  13.808   9.635  13.110
68264SOL    HW2 6690  13.857   9.732  13.215
68265SOL     OW 6691  14.242   9.570  14.347
68265SOL    HW1 6692  14.261   9.628  14.273
68265SOL    HW2 6693  14.234   9.483  14.309
68266SOL     OW 6694   0.680   7.216   1.526
68266SOL    HW1 6695   0.728   7.185   1.449
68266SOL    HW2 6696   0.589   7.223   1.497
68267SOL     OW 6697   1.841  14.843  14.845
68267SOL    HW1 6698   1.937  14.838  14.844
68267SOL    HW2 6699   1.819   0.034  14.779
68268SOL     OW 6700  14.486   0.336  13.550
68268SOL    HW1 6701  14.576   0.311  13.573
68268SOL    HW2 6702  14.456   0.388  13.625
68269SOL     OW 6703  14.052  11.239  12.714
68269SOL    HW1 6704  14.047  11.319  12.765
68269SOL    HW2 6705  14.026  11.170  12.775
68270SOL     OW 6706   0.922   4.200   8.440
68270SOL    HW1 6707   0.880   4.149   8.509
68270SOL    HW2 6708   0.851   4.249   8.399
68271SOL     OW 6709   4.023  13.007   3.376
68271SOL    HW1 6710   4.106  13.055   3.386
68271SOL    HW2 6711   4.034  12.928   3.429
68272SOL     OW 6712  13.586  11.658   7.927
68272SOL    HW1 6713  13.665  11.605   7.923
68272SOL    HW2 6714  13.529  11.623   7.859
68273SOL     OW 6715  10.310   1.480   4.302
68273SOL    HW1 6716  10.254   1.522   4.237
68273SOL    HW2 6717  10.306   1.386   4.280
68274SOL     OW 6718   6.564   5.136  11.126
68274SOL    HW1 6719   6.540   5.067  11.064
68274SOL    HW2 6720   6.634   5.184  11.083
68275SOL     OW 6721  13.408   7.423   8.994
68275SOL    HW1 6722  13.473   7.389   8.932
68275SOL    HW2 6723  13.352   7.348   9.013
68276SOL     OW 6724  14.486  10.708   4.816
68276SOL    HW1 6725  14.409  10.678   4.863
68276SOL    HW2 6726  14.543  10.631   4.810
68277SOL     OW 6727   5.115   7.348  13.994
68277SOL    HW1 6728   5.155   7.347  13.907
68277SOL    HW2 6729   5.186   7.372  14.053
68278SOL     OW 6730   0.034   5.524   5.851
68278SOL    HW1 6731   0.120   5.559   5.874
68278SOL    HW2 6732   0.029   5.532   5.756
68279SOL     OW 6733   2.069  14.533   8.322
68279SOL    HW1 6734   2.071  14.626   8.341
68279SOL    HW2 6735   2.160  14.510   8.302
68280SOL     OW 6736   5.028   8.069   9.929
68280SOL    HW1 6737   4.940   8.101   9.950
68280SOL    HW2 6738   5.082   8.147   9.924
68281SOL     OW 6739  10.242  10.456   7.126
68281SOL    HW1 6740  10.147  10.469   7.134
68281SOL    HW2 6741  10.264  10.492   7.040
68282SOL     OW 6742  10.851   6.810   7.590
68282SOL    HW1 6743  10.842   6.740   7.655
68282SOL    HW2 6744  10.843   6.765   7.506
68283SOL     OW 6745   5.191  11.062  10.219
68283SOL    HW1 6746   5.233  11.025  10.142
68283SOL    HW2 6747   5.255  11.051  10.289
68284SOL     OW 6748   1.464   2.897  10.749
68284SOL    HW1 6749   1.399   2.857  10.808
68284SOL    HW2 6750   1.412   2.942  10.683
68285SOL     OW 6751  12.999   1.446  11.118
68285SOL    HW1 6752  12.960   1.516  11.065
68285SOL    HW2 6753  12.930   1.381  11.126
68286SOL     OW 6754   8.052   3.815   2.234
68286SOL    HW1 6755   8.124   3.783   2.179
68286SOL    HW2 6756   8.009   3.882   2.182
68287SOL     OW 6757  10.124   9.767   2.446
68287SOL    HW1 6758  10.142   9.859   2.464
68287SOL    HW2 6759  10.058   9.742   2.511
68288SOL     OW 6760   1.303   4.391   6.380
68288SOL    HW1 6761   1.295   4.323   6.313
68288SOL    HW2 6762   1.224   4.444   6.370
68289SOL     OW 6763   5.212  10.558   3.294
68289SOL    HW1 6764   5.206  10.585   3.202
68289SOL    HW2 6765   5.265  10.478   3.292
68290SOL     OW 6766   4.372  11.976  12.488
68290SOL    HW1 6767   4.308  11.907  12.471
68290SOL    HW2 6768   4.448  11.953  12.434
68291SOL     OW 6769   2.172   2.491  11.658
68291SOL    HW1 6770   2.175   2.549  11.734
68291SOL    HW2 6771   2.217   2.412  11.686
68292SOL     OW 6772   0.365  13.185   1.743
68292SOL    HW1 6773   0.405  13.265   1.708
68292SOL    HW2 6774   0.383  13.189   1.837
68293SOL     OW 6775   0.548   6.391  14.282
68293SOL    HW1 6776   0.486   6.337  14.332
68293SOL    HW2 6777   0.502   6.474  14.270
68294SOL     OW 6778  14.613   4.264   0.796
68294SOL    HW1 6779  14.668   4.246   0.720
68294SOL    HW2 6780  14.674   4.296   0.863
68295SOL     OW 6781   9.842   7.232   7.648
68295SOL    HW1 6782   9.931   7.199   7.645
68295SOL    HW2 6783   9.834   7.290   7.572
68296SOL     OW 6784   5.334   8.788  13.916
68296SOL    HW1 6785   5.401   8.724  13.891
68296SOL    HW2 6786   5.327   8.848  13.842
68297SOL     OW 6787  11.017   4.513   7.845
68297SOL    HW1 6788  11.062   4.592   7.815
68297SOL    HW2 6789  11.076   4.442   7.821
68298SOL     OW 6790   4.044   2.209   5.088
68298SOL    HW1 6791   3.964   2.254   5.116
68298SOL    HW2 6792   4.091   2.275   5.036
68299SOL     OW 6793   9.331  11.619  14.066
68299SOL    HW1 6794   9.302  11.532  14.094
68299SOL    HW2 6795   9.265  11.679  14.101
68300SOL     OW 6796  11.272  12.598  13.928
68300SOL    HW1 6797  11.215  12.606  14.004
68300SOL    HW2 6798  11.214  12.564  13.859
68301SOL     OW 6799   7.866   6.948   5.154
68301SOL    HW1 6800   7.834   6.859   5.169
68301SOL    HW2 6801   7.799   7.005   5.192
68302SOL     OW 6802   6.919   6.900   1.824
68302SOL    HW1 6803   6.868   6.849   1.761
68302SOL    HW2 6804   7.004   6.856   1.827
68303SOL     OW 6805   9.435   6.865   4.402
68303SOL    HW1 6806   9.366   6.845   4.339
68303SOL    HW2 6807   9.440   6.786   4.457
68304SOL     OW 6808  10.956   1.707  11.063
68304SOL    HW1 6809  10.861   1.701  11.069
68304SOL    HW2 6810  10.988   1.640  11.124
68305SOL     OW 6811  11.075   8.695   8.022
68305SOL    HW1 6812  11.146   8.661   7.967
68305SOL    HW2 6813  11.067   8.787   7.998
68306SOL     OW 6814  13.433   3.050   3.640
68306SOL    HW1 6815  13.421   3.128   3.586
68306SOL    HW2 6816  13.349   3.004   3.633
68307SOL     OW 6817  11.665   9.150   3.298
68307SOL    HW1 6818  11.574   9.148   3.268
68307SOL    HW2 6819  11.667   9.216   3.366
68308SOL     OW 6820   0.336   8.351   3.121
68308SOL    HW1 6821   0.398   8.306   3.177
68308SOL    HW2 6822   0.372   8.342   3.032
68309SOL     OW 6823   4.065  12.971  12.748
68309SOL    HW1 6824   4.151  12.930  12.746
68309SOL    HW2 6825   4.024  12.945  12.666
68310SOL     OW 6826  14.128   4.643   9.031
68310SOL    HW1 6827  14.065   4.682   9.091
68310SOL    HW2 6828  14.214   4.662   9.070
68311SOL     OW 6829   2.984   9.916   6.959
68311SOL    HW1 6830   2.942   9.928   7.043
68311SOL    HW2 6831   2.959   9.993   6.907
68312SOL     OW 6832   7.573   9.030   1.877
68312SOL    HW1 6833   7.535   9.022   1.965
68312SOL    HW2 6834   7.661   8.993   1.885
68313SOL     OW 6835  12.322   0.407   0.377
68313SOL    HW1 6836  12.332   0.472   0.446
68313SOL    HW2 6837  12.237   0.425   0.338
68314SOL     OW 6838   0.694   5.401  10.957
68314SOL    HW1 6839   0.742   5.389  11.039
68314SOL    HW2 6840   0.607   5.364  10.975
68315SOL     OW 6841   2.266  14.203   7.580
68315SOL    HW1 6842   2.200  14.145   7.618
68315SOL    HW2 6843   2.350  14.170   7.613
68316SOL     OW 6844  10.647   3.430  11.320
68316SOL    HW1 6845  10.664   3.409  11.412
68316SOL    HW2 6846  10.612   3.349  11.283
68317SOL     OW 6847   5.107   9.017   8.171
68317SOL    HW1 6848   5.043   8.964   8.124
68317SOL    HW2 6849   5.156   8.954   8.225
68318SOL     OW 6850  11.779  14.603   0.450
68318SOL    HW1 6851  11.694  14.631   0.483
68318SOL    HW2 6852  11.815  14.681   0.407
68319SOL     OW 6853  14.507   9.077  14.022
68319SOL    HW1 6854  14.429   9.085  13.967
68319SOL    HW2 6855  14.500   9.151  14.083
68320SOL     OW 6856  10.984   2.474   1.516
68320SOL    HW1 6857  10.932   2.552   1.535
68320SOL    HW2 6858  11.070   2.508   1.490
68321SOL     OW 6859   1.127  13.462   3.344
68321SOL    HW1 6860   1.103  13.512   3.422
68321SOL    HW2 6861   1.099  13.517   3.271
68322SOL     OW 6862   6.297  12.247   4.542
68322SOL    HW1 6863   6.381  12.278   4.508
68322SOL    HW2 6864   6.306  12.253   4.637
68323SOL     OW 6865   8.489   3.372  11.861
68323SOL    HW1 6866   8.482   3.461  11.897
68323SOL    HW2 6867   8.481   3.384  11.767
68324SOL     OW 6868   9.324   0.246   0.243
68324SOL    HW1 6869   9.269   0.324   0.255
68324SOL    HW2 6870   9.349   0.248   0.151
68325SOL     OW 6871   4.694   9.539   2.665
68325SOL    HW1 6872   4.783   9.532   2.702
68325SOL    HW2 6873   4.670   9.449   2.642
68326SOL     OW 6874   8.234   0.856   6.010
68326SOL    HW1 6875   8.223   0.783   5.948
68326SOL    HW2 6876   8.328   0.858   6.027
68327SOL     OW 6877   1.222   5.730   8.596
68327SOL    HW1 6878   1.238   5.735   8.690
68327SOL    HW2 6879   1.134   5.693   8.588
68328SOL     OW 6880   0.816   9.793   6.351
68328SOL    HW1 6881   0.883   9.827   6.410
68328SOL    HW2 6882   0.830   9.698   6.351
68329SOL     OW 6883   1.355   5.151   2.405
68329SOL    HW1 6884   1.306   5.079   2.365
68329SOL    HW2 6885   1.433   5.160   2.351
68330SOL     OW 6886  10.724  10.801   0.602
68330SOL    HW1 6887  10.718  10.731   0.537
68330SOL    HW2 6888  10.668  10.772   0.675
68331SOL     OW 6889  13.262  14.599   7.739
68331SOL    HW1 6890  13.326  14.539   7.699
68331SOL    HW2 6891  13.316  14.662   7.787
68332SOL     OW 6892   5.035   4.216   1.584
68332SOL    HW1 6893   4.998   4.143   1.534
68332SOL    HW2 6894   5.126   4.222   1.554
68333SOL     OW 6895  10.084   2.790  10.885
68333SOL    HW1 6896  10.125   2.876  10.879
68333SOL    HW2 6897  10.156   2.728  10.873
68334SOL     OW 6898   3.663   4.639  10.656
68334SOL    HW1 6899   3.651   4.722  10.612
68334SOL    HW2 6900   3.740   4.652  10.712
68335SOL     OW 6901   9.274   4.679  13.573
68335SOL    HW1 6902   9.352   4.638  13.537
68335SOL    HW2 6903   9.307   4.739  13.640
68336SOL     OW 6904   0.717   9.676   9.829
68336SOL    HW1 6905   0.804   9.674   9.789
68336SOL    HW2 6906   0.659   9.706   9.758
68337SOL     OW 6907   5.575  10.059   5.386
68337SOL    HW1 6908   5.525   9.990   5.342
68337SOL    HW2 6909   5.586  10.026   5.476
68338SOL     OW 6910   3.763   4.528  14.708
68338SOL    HW1 6911   3.704   4.455  14.688
68338SOL    HW2 6912   3.724   4.569  14.786
68339SOL     OW 6913   4.907   8.935  10.293
68339SOL    HW1 6914   4.909   9.026  10.322
68339SOL    HW2 6915   4.841   8.893  10.348
68340SOL     OW 6916   9.760  13.479   7.022
68340SOL    HW1 6917   9.722  13.562   6.992
68340SOL    HW2 6918   9.727  13.470   7.112
68341SOL     OW 6919  14.164   8.920   7.753
68341SOL    HW1 6920  14.085   8.971   7.770
68341SOL    HW2 6921  14.158   8.895   7.661
68342SOL     OW 6922  13.041   8.382  13.484
68342SOL    HW1 6923  12.952   8.353  13.506
68342SOL    HW2 6924  13.066   8.327  13.410
68343SOL     OW 6925  11.599   6.601   1.417
68343SOL    HW1 6926  11.646   6.667   1.468
68343SOL    HW2 6927  11.595   6.525   1.475
68344SOL     OW 6928  11.733   9.806   9.838
68344SOL    HW1 6929  11.762   9.887   9.881
68344SOL    HW2 6930  11.813   9.759   9.817
68345SOL     OW 6931  14.603  14.512   1.426
68345SOL    HW1 6932  14.635  14.439   1.374
68345SOL    HW2 6933  14.508  14.500   1.430
68346SOL     OW 6934   0.998  14.347   7.052
68346SOL    HW1 6935   0.936  14.405   7.007
68346SOL    HW2 6936   1.084  14.386   7.035
68347SOL     OW 6937   4.451   3.081   3.096
68347SOL    HW1 6938   4.491   3.150   3.043
68347SOL    HW2 6939   4.432   3.123   3.180
68348SOL     OW 6940   2.501   2.321   9.848
68348SOL    HW1 6941   2.502   2.324   9.943
68348SOL    HW2 6942   2.588   2.288   9.824
68349SOL     OW 6943   4.714   1.923   6.461
68349SOL    HW1 6944   4.644   1.937   6.525
68349SOL    HW2 6945   4.674   1.944   6.377
68350SOL     OW 6946  13.765  10.199   2.443
68350SOL    HW1 6947  13.814  10.123   2.474
68350SOL    HW2 6948  13.717  10.168   2.367
68351SOL     OW 6949   2.099  11.846   0.636
68351SOL    HW1 6950   2.151  11.875   0.711
68351SOL    HW2 6951   2.071  11.758   0.660
68352SOL     OW 6952  10.957  13.818   7.805
68352SOL    HW1 6953  10.963  13.859   7.891
68352SOL    HW2 6954  11.046  13.820   7.770
68353SOL     OW 6955  12.715   3.680   3.971
68353SOL    HW1 6956  12.759   3.595   3.969
68353SOL    HW2 6957  12.629   3.662   3.933
68354SOL     OW 6958   4.632   3.819   7.296
68354SOL    HW1 6959   4.691   3.891   7.271
68354SOL    HW2 6960   4.676   3.777   7.369
68355SOL     OW 6961  11.601   1.893   8.849
68355SOL    HW1 6962  11.510   1.881   8.874
68355SOL    HW2 6963  11.647   1.912   8.931
68356SOL     OW 6964   4.103   0.272  12.405
68356SOL    HW1 6965   4.105   0.235  12.317
68356SOL    HW2 6966   4.060   0.206  12.459
68357SOL     OW 6967   1.854   9.389   7.304
68357SOL    HW1 6968   1.915   9.321   7.333
68357SOL    HW2 6969   1.835   9.440   7.383
68358SOL     OW 6970  13.664  12.376   9.845
68358SOL    HW1 6971  13.654  12.283   9.866
68358SOL    HW2 6972  13.696  12.376   9.754
68359SOL     OW 6973  13.136   1.530   6.044
68359SOL    HW1 6974  13.143   1.624   6.029
68359SOL    HW2 6975  13.082   1.522   6.122
68360SOL     OW 6976  14.731   4.216  12.414
68360SOL    HW1 6977  14.773   4.270  12.480
68360SOL    HW2 6978  14.665   4.273  12.375
68361SOL     OW 6979   4.735   4.672  10.746
68361SOL    HW1 6980   4.665   4.607  10.751
68361SOL    HW2 6981   4.743   4.705  10.836
68362SOL     OW 6982   8.064   5.008   3.734
68362SOL    HW1 6983   8.146   5.054   3.749
68362SOL    HW2 6984   8.085   4.943   3.666
68363SOL     OW 6985  10.636  14.397  14.254
68363SOL    HW1 6986  10.730  14.388  14.236
68363SOL    HW2 6987  10.624  14.491  14.270
68364SOL     OW 6988   4.364   9.889  14.730
68364SOL    HW1 6989   4.362   9.920  14.820
68364SOL    HW2 6990   4.433   9.941  14.688
68365SOL     OW 6991   8.464   0.823  12.048
68365SOL    HW1 6992   8.489   0.903  12.003
68365SOL    HW2 6993   8.372   0.835  12.071
68366SOL     OW 6994   5.699   5.351  11.941
68366SOL    HW1 6995   5.686   5.262  11.974
68366SOL    HW2 6996   5.785   5.376  11.974
68367SOL     OW 6997   0.404   7.104   6.783
68367SOL    HW1 6998   0.322   7.055   6.779
68367SOL    HW2 6999   0.379   7.190   6.815
68368SOL     OW 7000   0.488   7.572  14.116
68368SOL    HW1 7001   0.583   7.582  14.125
68368SOL    HW2 7002   0.477   7.524  14.034
68369SOL     OW 7003   6.201  13.742   9.759
68369SOL    HW1 7004   6.263  13.669   9.761
68369SOL    HW2 7005   6.229  13.796   9.685
68370SOL     OW 7006  10.783  10.019  14.874
68370SOL    HW1 7007  10.757  10.051   0.085
68370SOL    HW2 7008  10.862   9.967   0.015
68371SOL     OW 7009   0.819  13.124   5.974
68371SOL    HW1 7010   0.771  13.197   5.936
68371SOL    HW2 7011   0.820  13.142   6.068
68372SOL     OW 7012   2.622   7.806   8.944
68372SOL    HW1 7013   2.566   7.792   8.868
68372SOL    HW2 7014   2.610   7.898   8.966
68373SOL     OW 7015   4.104  14.585   4.838
68373SOL    HW1 7016   4.195  14.600   4.865
68373SOL    HW2 7017   4.057  14.575   4.921
68374SOL     OW 7018  14.481  12.785   9.823
68374SOL    HW1 7019  14.497  12.705   9.774
68374SOL    HW2 7020  14.398  12.819   9.788
68375SOL     OW 7021  11.283   8.201   4.779
68375SOL    HW1 7022  11.345   8.274   4.780
68375SOL    HW2 7023  11.275   8.175   4.871
68376SOL     OW 7024  12.768   7.328  10.549
68376SOL    HW1 7025  12.803   7.290  10.630
68376SOL    HW2 7026  12.699   7.388  10.579
68377SOL     OW 7027  10.894  10.916   0.262
68377SOL    HW1 7028  10.925  10.931   0.173
68377SOL    HW2 7029  10.963  10.950   0.318
68378SOL     OW 7030  12.871  12.302  14.195
68378SOL    HW1 7031  12.927  12.254  14.135
68378SOL    HW2 7032  12.925  12.375  14.225
68379SOL     OW 7033  14.567   1.434  12.459
68379SOL    HW1 7034  14.473   1.444  12.473
68379SOL    HW2 7035  14.590   1.356  12.508
68380SOL     OW 7036   6.472   2.318   6.784
68380SOL    HW1 7037   6.385   2.349   6.760
68380SOL    HW2 7038   6.458   2.229   6.816
68381SOL     OW 7039   9.598   1.467   1.054
68381SOL    HW1 7040   9.556   1.472   1.140
68381SOL    HW2 7041   9.575   1.380   1.021
68382SOL     OW 7042   5.887   2.812  12.972
68382SOL    HW1 7043   5.833   2.735  12.958
68382SOL    HW2 7044   5.895   2.853  12.886
68383SOL     OW 7045   4.874   5.291   0.761
68383SOL    HW1 7046   4.832   5.333   0.685
68383SOL    HW2 7047   4.950   5.347   0.779
68384SOL     OW 7048   7.676   1.740   1.415
68384SOL    HW1 7049   7.724   1.657   1.416
68384SOL    HW2 7050   7.697   1.781   1.499
68385SOL     OW 7051   0.447  12.707  10.872
68385SOL    HW1 7052   0.403  12.631  10.834
68385SOL    HW2 7053   0.521  12.670  10.920
68386SOL     OW 7054   8.596  14.740  11.481
68386SOL    HW1 7055   8.604  14.706  11.570
68386SOL    HW2 7056   8.516  14.700  11.447
68387SOL     OW 7057   3.541  10.696  13.687
68387SOL    HW1 7058   3.569  10.623  13.743
68387SOL    HW2 7059   3.540  10.772  13.746
68388SOL     OW 7060   2.011  13.993   1.526
68388SOL    HW1 7061   2.077  13.971   1.592
68388SOL    HW2 7062   2.018  13.923   1.461
68389SOL     OW 7063   5.500   4.815   0.287
68389SOL    HW1 7064   5.453   4.883   0.238
68389SOL    HW2 7065   5.571   4.862   0.331
68390SOL     OW 7066   9.529   3.179  13.990
68390SOL    HW1 7067   9.459   3.221  13.941
68390SOL    HW2 7068   9.560   3.247  14.050
68391SOL     OW 7069  12.898   5.432   9.277
68391SOL    HW1 7070  12.864   5.343   9.263
68391SOL    HW2 7071  12.837   5.470   9.340
68392SOL     OW 7072   4.928   3.604   5.533
68392SOL    HW1 7073   4.912   3.510   5.547
68392SOL    HW2 7074   4.883   3.646   5.606
68393SOL     OW 7075   0.907   5.066   1.980
68393SOL    HW1 7076   0.855   4.990   2.007
68393SOL    HW2 7077   0.918   5.116   2.061
68394SOL     OW 7078  10.720   7.744   0.277
68394SOL    HW1 7079  10.776   7.820   0.261
68394SOL    HW2 7080  10.702   7.708   0.190
68395SOL     OW 7081   0.485   5.368   0.268
68395SOL    HW1 7082   0.560   5.339   0.319
68395SOL    HW2 7083   0.506   5.342   0.178
68396SOL     OW 7084   9.089   3.817  12.581
68396SOL    HW1 7085   9.021   3.827  12.648
68396SOL    HW2 7086   9.166   3.861  12.617
68397SOL     OW 7087   9.320  12.401  12.677
68397SOL    HW1 7088   9.231  12.434  12.690
68397SOL    HW2 7089   9.334  12.342  12.751
68398SOL     OW 7090   7.026   9.173   8.401
68398SOL    HW1 7091   7.066   9.091   8.372
68398SOL    HW2 7092   7.098   9.237   8.396
68399SOL     OW 7093  11.527  13.668   6.070
68399SOL    HW1 7094  11.602  13.643   6.124
68399SOL    HW2 7095  11.507  13.590   6.019
68400SOL     OW 7096   6.896   7.703  10.266
68400SOL    HW1 7097   6.855   7.653  10.337
68400SOL    HW2 7098   6.951   7.767  10.311
68401SOL     OW 7099  12.085   1.506   2.296
68401SOL    HW1 7100  12.150   1.544   2.354
68401SOL    HW2 7101  12.003   1.550   2.320
68402SOL     OW 7102  13.922  11.655  14.791
68402SOL    HW1 7103  13.907  11.577  14.844
68402SOL    HW2 7104  14.005  11.638  14.746
68403SOL     OW 7105   5.969   1.277   0.479
68403SOL    HW1 7106   5.877   1.288   0.457
68403SOL    HW2 7107   5.974   1.291   0.573
68404SOL     OW 7108   1.297  14.501  11.827
68404SOL    HW1 7109   1.337  14.582  11.859
68404SOL    HW2 7110   1.209  14.500  11.865
68405SOL     OW 7111   8.699   4.994   6.854
68405SOL    HW1 7112   8.776   4.969   6.906
68405SOL    HW2 7113   8.683   4.919   6.797
68406SOL     OW 7114  11.322   2.648   9.068
68406SOL    HW1 7115  11.321   2.554   9.084
68406SOL    HW2 7116  11.300   2.688   9.152
68407SOL     OW 7117   9.296   3.295  13.306
68407SOL    HW1 7118   9.338   3.301  13.220
68407SOL    HW2 7119   9.239   3.372  13.310
68408SOL     OW 7120  11.350   3.537   6.804
68408SOL    HW1 7121  11.396   3.621   6.804
68408SOL    HW2 7122  11.418   3.473   6.828
68409SOL     OW 7123  10.061   8.137  11.788
68409SOL    HW1 7124  10.097   8.155  11.701
68409SOL    HW2 7125  10.016   8.053  11.778
68410SOL     OW 7126   0.090   9.588   1.121
68410SOL    HW1 7127   0.136   9.506   1.138
68410SOL    HW2 7128   0.087   9.595   1.026
68411SOL     OW 7129  12.744  12.185   0.362
68411SOL    HW1 7130  12.749  12.090   0.369
68411SOL    HW2 7131  12.773  12.204   0.273
68412SOL     OW 7132   2.658   1.210  13.613
68412SOL    HW1 7133   2.636   1.236  13.524
68412SOL    HW2 7134   2.574   1.211  13.660
68413SOL     OW 7135  11.963  11.263   8.268
68413SOL    HW1 7136  11.989  11.183   8.315
68413SOL    HW2 7137  12.046  11.302   8.240
68414SOL     OW 7138  12.186   5.357  13.332
68414SOL    HW1 7139  12.243   5.390  13.401
68414SOL    HW2 7140  12.205   5.264  13.327
68415SOL     OW 7141  14.228  10.515   4.330
68415SOL    HW1 7142  14.162  10.458   4.371
68415SOL    HW2 7143  14.279  10.548   4.404
68416SOL     OW 7144   9.512   3.949   0.542
68416SOL    HW1 7145   9.482   3.879   0.600
68416SOL    HW2 7146   9.600   3.923   0.515
68417SOL     OW 7147  12.447   2.984   8.413
68417SOL    HW1 7148  12.491   3.009   8.494
68417SOL    HW2 7149  12.377   3.049   8.404
68418SOL     OW 7150  12.627   1.647  12.626
68418SOL    HW1 7151  12.566   1.595  12.573
68418SOL    HW2 7152  12.635   1.730  12.579
68419SOL     OW 7153  13.017   4.521   1.995
68419SOL    HW1 7154  13.106   4.498   2.021
68419SOL    HW2 7155  13.019   4.616   1.983
68420SOL     OW 7156   3.808  13.351  14.253
68420SOL    HW1 7157   3.823  13.438  14.216
68420SOL    HW2 7158   3.877  13.339  14.318
68421SOL     OW 7159  11.687  14.402   2.035
68421SOL    HW1 7160  11.653  14.427   2.121
68421SOL    HW2 7161  11.640  14.321   2.013
68422SOL     OW 7162   3.347  14.677  14.202
68422SOL    HW1 7163   3.273  14.644  14.151
68422SOL    HW2 7164   3.415  14.610  14.192
68423SOL     OW 7165   2.382   1.665   3.291
68423SOL    HW1 7166   2.455   1.623   3.245
68423SOL    HW2 7167   2.320   1.594   3.306
68424SOL     OW 7168   3.602   4.400   2.361
68424SOL    HW1 7169   3.553   4.391   2.279
68424SOL    HW2 7170   3.541   4.373   2.429
68425SOL     OW 7171   6.160   3.652  11.799
68425SOL    HW1 7172   6.104   3.710  11.851
68425SOL    HW2 7173   6.100   3.590  11.759
68426SOL     OW 7174   6.695   1.681  10.321
68426SOL    HW1 7175   6.680   1.640  10.406
68426SOL    HW2 7176   6.772   1.736  10.334
68427SOL     OW 7177   8.718  11.425  12.782
68427SOL    HW1 7178   8.807  11.427  12.748
68427SOL    HW2 7179   8.726  11.386  12.869
68428SOL     OW 7180   7.751   0.467  10.932
68428SOL    HW1 7181   7.697   0.408  10.984
68428SOL    HW2 7182   7.715   0.554  10.947
68429SOL     OW 7183  11.813   2.046   6.032
68429SOL    HW1 7184  11.873   2.108   5.991
68429SOL    HW2 7185  11.728   2.090   6.029
68430SOL     OW 7186   8.817   6.811  10.178
68430SOL    HW1 7187   8.734   6.775  10.146
68430SOL    HW2 7188   8.884   6.769  10.124
68431SOL     OW 7189   6.448   3.769   0.271
68431SOL    HW1 7190   6.438   3.759   0.366
68431SOL    HW2 7191   6.381   3.834   0.247
68432SOL     OW 7192  10.018  14.554   3.948
68432SOL    HW1 7193  10.099  14.603   3.934
68432SOL    HW2 7194   9.968  14.567   3.867
68433SOL     OW 7195   4.478  13.050   5.119
68433SOL    HW1 7196   4.502  13.050   5.026
68433SOL    HW2 7197   4.398  12.998   5.123
68434SOL     OW 7198   1.313  12.786  14.065
68434SOL    HW1 7199   1.385  12.798  14.128
68434SOL    HW2 7200   1.291  12.693  14.072
68435SOL     OW 7201   0.649  13.731  14.126
68435SOL    HW1 7202   0.695  13.805  14.085
68435SOL    HW2 7203   0.715  13.661  14.129
68436SOL     OW 7204   0.105   3.521   7.170
68436SOL    HW1 7205   0.031   3.517   7.110
68436SOL    HW2 7206   0.179   3.550   7.117
68437SOL     OW 7207   9.110   9.543   3.014
68437SOL    HW1 7208   9.132   9.457   3.052
68437SOL    HW2 7209   9.069   9.591   3.086
68438SOL     OW 7210  13.984  13.298   4.573
68438SOL    HW1 7211  13.895  13.300   4.538
68438SOL    HW2 7212  14.001  13.205   4.589
68439SOL     OW 7213   7.039   7.637   7.722
68439SOL    HW1 7214   7.031   7.547   7.752
68439SOL    HW2 7215   7.093   7.680   7.789
68440SOL     OW 7216   5.775   2.840   0.905
68440SOL    HW1 7217   5.705   2.777   0.915
68440SOL    HW2 7218   5.855   2.788   0.906
68441SOL     OW 7219   7.851   9.752   1.929
68441SOL    HW1 7220   7.830   9.806   1.852
68441SOL    HW2 7221   7.770   9.749   1.979
68442SOL     OW 7222  14.207   9.720  10.543
68442SOL    HW1 7223  14.114   9.699  10.551
68442SOL    HW2 7224  14.252   9.660  10.603
68443SOL     OW 7225  13.875   2.892  14.253
68443SOL    HW1 7226  13.847   2.970  14.300
68443SOL    HW2 7227  13.830   2.897  14.168
68444SOL     OW 7228   8.240  11.890   5.623
68444SOL    HW1 7229   8.295  11.861   5.551
68444SOL    HW2 7230   8.279  11.973   5.650
68445SOL     OW 7231   6.937  12.162   8.269
68445SOL    HW1 7232   7.015  12.172   8.323
68445SOL    HW2 7233   6.955  12.213   8.190
68446SOL     OW 7234   0.660  10.804   6.106
68446SOL    HW1 7235   0.714  10.725   6.109
68446SOL    HW2 7236   0.598  10.788   6.036
68447SOL     OW 7237  10.614  14.493  10.727
68447SOL    HW1 7238  10.548  14.479  10.795
68447SOL    HW2 7239  10.659  14.573  10.754
68448SOL     OW 7240   6.174  13.735   3.826
68448SOL    HW1 7241   6.223  13.773   3.753
68448SOL    HW2 7242   6.126  13.662   3.786
68449SOL     OW 7243   8.451   2.269  10.924
68449SOL    HW1 7244   8.445   2.185  10.971
68449SOL    HW2 7245   8.378   2.267  10.863
68450SOL     OW 7246   1.221  14.261   7.543
68450SOL    HW1 7247   1.315  14.257   7.521
68450SOL    HW2 7248   1.187  14.333   7.491
68451SOL     OW 7249   2.471  13.922   8.201
68451SOL    HW1 7250   2.406  13.891   8.264
68451SOL    HW2 7251   2.553  13.925   8.250
68452SOL     OW 7252   7.094   4.167   6.401
68452SOL    HW1 7253   7.171   4.207   6.441
68452SOL    HW2 7254   7.063   4.104   6.465
68453SOL     OW 7255   4.366   2.615   7.829
68453SOL    HW1 7256   4.307   2.670   7.881
68453SOL    HW2 7257   4.323   2.529   7.828
68454SOL     OW 7258   4.777   2.696   4.424
68454SOL    HW1 7259   4.715   2.699   4.350
68454SOL    HW2 7260   4.848   2.754   4.398
68455SOL     OW 7261   6.640  12.669  14.814
68455SOL    HW1 7262   6.613  12.579  14.797
68455SOL    HW2 7263   6.686  12.696  14.735
68456SOL     OW 7264  12.232  14.646   0.965
68456SOL    HW1 7265  12.254  14.699   0.888
68456SOL    HW2 7266  12.148  14.606   0.943
68457SOL     OW 7267  11.013  11.718  13.586
68457SOL    HW1 7268  11.085  11.682  13.638
68457SOL    HW2 7269  10.994  11.803  13.627
68458SOL     OW 7270   7.676   4.183   5.992
68458SOL    HW1 7271   7.651   4.111   5.934
68458SOL    HW2 7272   7.597   4.238   5.997
68459SOL     OW 7273  10.472   8.109   3.721
68459SOL    HW1 7274  10.445   8.185   3.669
68459SOL    HW2 7275  10.548   8.075   3.674
68460SOL     OW 7276   3.184   7.714   3.361
68460SOL    HW1 7277   3.103   7.668   3.339
68460SOL    HW2 7278   3.222   7.662   3.432
68461SOL     OW 7279   6.736   7.611  14.847
68461SOL    HW1 7280   6.653   7.573   0.001
68461SOL    HW2 7281   6.800   7.542  14.864
68462SOL     OW 7282   9.690  12.898   3.179
68462SOL    HW1 7283   9.595  12.886   3.178
68462SOL    HW2 7284   9.725  12.810   3.164
68463SOL     OW 7285   0.174   2.448  10.504
68463SOL    HW1 7286   0.120   2.527  10.496
68463SOL    HW2 7287   0.168   2.407  10.418
68464SOL     OW 7288   8.720   9.287  12.683
68464SOL    HW1 7289   8.734   9.380  12.701
68464SOL    HW2 7290   8.789   9.242  12.731
68465SOL     OW 7291  11.418  13.841   4.302
68465SOL    HW1 7292  11.490  13.779   4.317
68465SOL    HW2 7293  11.341  13.786   4.291
68466SOL     OW 7294   8.580   2.124   8.552
68466SOL    HW1 7295   8.664   2.079   8.562
68466SOL    HW2 7296   8.600   2.198   8.495
68467SOL     OW 7297   7.937  10.928  12.844
68467SOL    HW1 7298   7.875  10.976  12.789
68467SOL    HW2 7299   7.897  10.842  12.856
68468SOL     OW 7300   8.421   9.656   0.584
68468SOL    HW1 7301   8.353   9.618   0.639
68468SOL    HW2 7302   8.451   9.733   0.632
68469SOL     OW 7303   7.036   7.175   5.226
68469SOL    HW1 7304   7.109   7.222   5.267
68469SOL    HW2 7305   7.054   7.083   5.244
68470SOL     OW 7306   7.156   1.077  11.789
68470SOL    HW1 7307   7.185   1.000  11.838
68470SOL    HW2 7308   7.074   1.103  11.831
68471SOL     OW 7309   0.267   3.249   2.906
68471SOL    HW1 7310   0.247   3.278   2.817
68471SOL    HW2 7311   0.360   3.226   2.904
68472SOL     OW 7312   4.520   6.112   4.452
68472SOL    HW1 7313   4.516   6.017   4.440
68472SOL    HW2 7314   4.429   6.137   4.469
68473SOL     OW 7315   0.817   1.779  10.240
68473SOL    HW1 7316   0.853   1.845  10.300
68473SOL    HW2 7317   0.806   1.701  10.295
68474SOL     OW 7318   2.395  12.125   7.628
68474SOL    HW1 7319   2.446  12.045   7.637
68474SOL    HW2 7320   2.445  12.192   7.675
68475SOL     OW 7321   0.077   5.937   9.883
68475SOL    HW1 7322   0.166   5.970   9.877
68475SOL    HW2 7323   0.086   5.842   9.880
68476SOL     OW 7324   7.580  14.522   3.385
68476SOL    HW1 7325   7.556  14.599   3.438
68476SOL    HW2 7326   7.654  14.483   3.431
68477SOL     OW 7327  12.241   0.493   0.858
68477SOL    HW1 7328  12.159   0.452   0.829
68477SOL    HW2 7329  12.277   0.431   0.922
68478SOL     OW 7330  11.302   7.391   7.243
68478SOL    HW1 7331  11.377   7.389   7.302
68478SOL    HW2 7332  11.234   7.341   7.288
68479SOL     OW 7333   8.248   1.815   0.036
68479SOL    HW1 7334   8.168   1.782  14.870
68479SOL    HW2 7335   8.318   1.786  14.852
68480SOL     OW 7336   3.820   3.065   5.413
68480SOL    HW1 7337   3.735   3.034   5.446
68480SOL    HW2 7338   3.868   3.091   5.492
68481SOL     OW 7339   5.079   5.241   7.541
68481SOL    HW1 7340   5.064   5.336   7.547
68481SOL    HW2 7341   5.000   5.201   7.576
68482SOL     OW 7342   4.507  13.321   9.642
68482SOL    HW1 7343   4.476  13.391   9.699
68482SOL    HW2 7344   4.432  13.262   9.633
68483SOL     OW 7345   3.418   2.252   9.585
68483SOL    HW1 7346   3.329   2.227   9.563
68483SOL    HW2 7347   3.472   2.176   9.562
68484SOL     OW 7348   8.142   6.111  12.666
68484SOL    HW1 7349   8.161   6.030  12.617
68484SOL    HW2 7350   8.077   6.156  12.613
68485SOL     OW 7351   0.649   1.075   2.919
68485SOL    HW1 7352   0.621   1.131   2.991
68485SOL    HW2 7353   0.613   0.989   2.941
68486SOL     OW 7354   8.437   7.732   9.442
68486SOL    HW1 7355   8.514   7.757   9.392
68486SOL    HW2 7356   8.441   7.786   9.521
68487SOL     OW 7357   0.957   1.716  14.776
68487SOL    HW1 7358   1.050   1.722  14.756
68487SOL    HW2 7359   0.946   1.769  14.856
68488SOL     OW 7360   2.802  10.261  13.747
68488SOL    HW1 7361   2.728  10.307  13.788
68488SOL    HW2 7362   2.874  10.271  13.809
68489SOL     OW 7363  13.862   9.521  13.735
68489SOL    HW1 7364  13.784   9.470  13.715
68489SOL    HW2 7365  13.836   9.612  13.721
68490SOL     OW 7366   2.962  10.309   9.505
68490SOL    HW1 7367   3.008  10.229   9.481
68490SOL    HW2 7368   2.870  10.292   9.484
68491SOL     OW 7369   1.118   0.097   2.471
68491SOL    HW1 7370   1.148   0.141   2.392
68491SOL    HW2 7371   1.034   0.137   2.491
68492SOL     OW 7372   2.847   5.686  14.030
68492SOL    HW1 7373   2.837   5.781  14.021
68492SOL    HW2 7374   2.812   5.650  13.949
68493SOL     OW 7375  11.227   1.562   0.505
68493SOL    HW1 7376  11.317   1.549   0.474
68493SOL    HW2 7377  11.223   1.516   0.588
68494SOL     OW 7378   1.427   8.266   6.083
68494SOL    HW1 7379   1.438   8.361   6.078
68494SOL    HW2 7380   1.464   8.233   6.001
68495SOL     OW 7381   6.562  12.805   2.579
68495SOL    HW1 7382   6.654  12.809   2.556
68495SOL    HW2 7383   6.521  12.755   2.508
68496SOL     OW 7384   1.108  12.010   5.093
68496SOL    HW1 7385   1.030  12.014   5.038
68496SOL    HW2 7386   1.179  12.038   5.035
68497SOL     OW 7387  12.512   0.313   5.317
68497SOL    HW1 7388  12.491   0.361   5.397
68497SOL    HW2 7389  12.434   0.262   5.298
68498SOL     OW 7390   4.821  12.157   3.796
68498SOL    HW1 7391   4.848  12.066   3.803
68498SOL    HW2 7392   4.775  12.174   3.879
68499SOL     OW 7393   5.653  11.328  11.878
68499SOL    HW1 7394   5.747  11.313  11.875
68499SOL    HW2 7395   5.615  11.261  11.821
68500SOL     OW 7396   3.785   3.276  12.110
68500SOL    HW1 7397   3.769   3.270  12.016
68500SOL    HW2 7398   3.706   3.319  12.145
68501SOL     OW 7399   5.645   0.369   9.102
68501SOL    HW1 7400   5.599   0.289   9.076
68501SOL    HW2 7401   5.702   0.340   9.174
68502SOL     OW 7402  12.340   7.346  11.477
68502SOL    HW1 7403  12.245   7.334  11.469
68502SOL    HW2 7404  12.367   7.278  11.540
68503SOL     OW 7405  10.170  10.665   5.777
68503SOL    HW1 7406  10.152  10.700   5.864
68503SOL    HW2 7407  10.261  10.689   5.760
68504SOL     OW 7408   2.385  11.759   4.102
68504SOL    HW1 7409   2.476  11.737   4.121
68504SOL    HW2 7410   2.388  11.803   4.017
68505SOL     OW 7411  13.989  13.761   5.540
68505SOL    HW1 7412  13.976  13.689   5.602
68505SOL    HW2 7413  13.902  13.799   5.529
68506SOL     OW 7414  10.267   1.439   1.477
68506SOL    HW1 7415  10.325   1.382   1.527
68506SOL    HW2 7416  10.313   1.454   1.394
68507SOL     OW 7417  14.718   4.531   3.203
68507SOL    HW1 7418  14.725   4.497   3.113
68507SOL    HW2 7419  14.624   4.532   3.221
68508SOL     OW 7420  13.138   1.651   3.793
68508SOL    HW1 7421  13.161   1.619   3.706
68508SOL    HW2 7422  13.197   1.606   3.852
68509SOL     OW 7423   8.860   7.150   4.004
68509SOL    HW1 7424   8.858   7.238   4.043
68509SOL    HW2 7425   8.915   7.099   4.064
68510SOL     OW 7426   9.607  11.881   0.676
68510SOL    HW1 7427   9.657  11.800   0.667
68510SOL    HW2 7428   9.549  11.882   0.599
68511SOL     OW 7429   2.803   7.835  14.576
68511SOL    HW1 7430   2.721   7.792  14.601
68511SOL    HW2 7431   2.782   7.880  14.494
68512SOL     OW 7432  13.254   9.016   1.982
68512SOL    HW1 7433  13.172   8.992   1.939
68512SOL    HW2 7434  13.243   8.985   2.072
68513SOL     OW 7435  14.733  12.520  14.459
68513SOL    HW1 7436  14.734  12.488  14.549
68513SOL    HW2 7437  14.779  12.453  14.409
68514SOL     OW 7438   0.554   8.002   3.430
68514SOL    HW1 7439   0.529   7.910   3.435
68514SOL    HW2 7440   0.646   8.004   3.457
68515SOL     OW 7441   4.341  10.459  12.327
68515SOL    HW1 7442   4.325  10.548  12.297
68515SOL    HW2 7443   4.349  10.408  12.246
68516SOL     OW 7444   4.830   1.350  13.557
68516SOL    HW1 7445   4.867   1.430  13.520
68516SOL    HW2 7446   4.891   1.281  13.530
68517SOL     OW 7447   3.145   2.016  12.781
68517SOL    HW1 7448   3.168   1.997  12.690
68517SOL    HW2 7449   3.208   2.082  12.808
68518SOL     OW 7450   7.844   2.128  11.456
68518SOL    HW1 7451   7.865   2.035  11.453
68518SOL    HW2 7452   7.764   2.136  11.403
68519SOL     OW 7453  12.965   6.042   2.919
68519SOL    HW1 7454  13.057   6.031   2.944
68519SOL    HW2 7455  12.958   6.134   2.894
68520SOL     OW 7456  12.151   1.155   9.038
68520SOL    HW1 7457  12.189   1.229   8.991
68520SOL    HW2 7458  12.223   1.092   9.045
68521SOL     OW 7459  12.061   9.639   4.558
68521SOL    HW1 7460  12.059   9.723   4.605
68521SOL    HW2 7461  11.975   9.601   4.572
68522SOL     OW 7462   5.248   1.034   1.509
68522SOL    HW1 7463   5.296   0.985   1.443
68522SOL    HW2 7464   5.275   0.994   1.592
68523SOL     OW 7465  11.546  12.437  13.207
68523SOL    HW1 7466  11.620  12.376  13.209
68523SOL    HW2 7467  11.469  12.382  13.192
68524SOL     OW 7468   8.094   6.438   9.888
68524SOL    HW1 7469   8.025   6.373   9.878
68524SOL    HW2 7470   8.151   6.425   9.812
68525SOL     OW 7471   2.877  14.501  14.209
68525SOL    HW1 7472   2.904  14.559  14.280
68525SOL    HW2 7473   2.835  14.559  14.145
68526SOL     OW 7474   1.313   0.914   8.706
68526SOL    HW1 7475   1.401   0.878   8.711
68526SOL    HW2 7476   1.324   1.007   8.725
68527SOL     OW 7477  12.277   0.708  12.643
68527SOL    HW1 7478  12.238   0.699  12.731
68527SOL    HW2 7479  12.333   0.785  12.650
68528SOL     OW 7480   8.845   4.934  11.088
68528SOL    HW1 7481   8.888   4.898  11.166
68528SOL    HW2 7482   8.916   4.952  11.027
68529SOL     OW 7483   2.571   1.957   7.061
68529SOL    HW1 7484   2.488   1.911   7.046
68529SOL    HW2 7485   2.596   1.931   7.149
68530SOL     OW 7486  11.996   2.399   3.271
68530SOL    HW1 7487  12.009   2.487   3.238
68530SOL    HW2 7488  11.901   2.385   3.264
68531SOL     OW 7489   9.232   2.515  13.571
68531SOL    HW1 7490   9.325   2.502  13.556
68531SOL    HW2 7491   9.225   2.603  13.609
68532SOL     OW 7492   5.789   6.981  13.087
68532SOL    HW1 7493   5.699   6.999  13.059
68532SOL    HW2 7494   5.785   6.981  13.183
68533SOL     OW 7495   0.372   3.056   2.227
68533SOL    HW1 7496   0.324   3.124   2.179
68533SOL    HW2 7497   0.430   3.017   2.162
68534SOL     OW 7498   9.113   0.226   8.817
68534SOL    HW1 7499   9.173   0.214   8.742
68534SOL    HW2 7500   9.036   0.174   8.794
68535SOL     OW 7501  10.002   4.652  11.346
68535SOL    HW1 7502   9.998   4.667  11.251
68535SOL    HW2 7503   9.913   4.624  11.369
68536SOL     OW 7504  11.983   4.245   5.777
68536SOL    HW1 7505  11.899   4.199   5.778
68536SOL    HW2 7506  11.993   4.279   5.866
68537SOL     OW 7507   8.997   4.960   3.143
68537SOL    HW1 7508   9.026   5.051   3.133
68537SOL    HW2 7509   9.054   4.910   3.085
68538SOL     OW 7510  12.983   3.810  12.362
68538SOL    HW1 7511  13.037   3.822  12.441
68538SOL    HW2 7512  12.914   3.876  12.371
68539SOL     OW 7513   1.163  11.951   2.050
68539SOL    HW1 7514   1.165  11.925   1.958
68539SOL    HW2 7515   1.252  11.933   2.082
68540SOL     OW 7516   2.685   0.452  11.508
68540SOL    HW1 7517   2.703   0.371  11.556
68540SOL    HW2 7518   2.689   0.427  11.416
68541SOL     OW 7519   1.979   3.676  14.431
68541SOL    HW1 7520   1.919   3.741  14.396
68541SOL    HW2 7521   1.970   3.683  14.526
68542SOL     OW 7522  10.869   1.949  11.688
68542SOL    HW1 7523  10.907   1.999  11.615
68542SOL    HW2 7524  10.775   1.962  11.678
68543SOL     OW 7525   4.860   7.552   4.035
68543SOL    HW1 7526   4.879   7.467   4.075
68543SOL    HW2 7527   4.946   7.590   4.016
68544SOL     OW 7528  10.056   9.093   4.061
68544SOL    HW1 7529  10.007   9.097   3.978
68544SOL    HW2 7530  10.000   9.043   4.120
68545SOL     OW 7531   1.020   9.807   2.263
68545SOL    HW1 7532   1.028   9.886   2.316
68545SOL    HW2 7533   0.927   9.786   2.265
68546SOL     OW 7534  10.039   7.220   4.159
68546SOL    HW1 7535   9.993   7.255   4.083
68546SOL    HW2 7536   9.979   7.234   4.232
68547SOL     OW 7537   7.945  14.539  10.899
68547SOL    HW1 7538   7.932  14.521  10.993
68547SOL    HW2 7539   7.950  14.452  10.859
68548SOL     OW 7540  14.280   7.633   1.508
68548SOL    HW1 7541  14.376   7.633   1.508
68548SOL    HW2 7542  14.255   7.689   1.435
68549SOL     OW 7543   5.093  14.456   8.353
68549SOL    HW1 7544   5.076  14.394   8.424
68549SOL    HW2 7545   5.115  14.402   8.278
68550SOL     OW 7546  11.573  10.617   4.916
68550SOL    HW1 7547  11.534  10.619   5.004
68550SOL    HW2 7548  11.592  10.525   4.900
68551SOL     OW 7549  14.220  13.255   6.810
68551SOL    HW1 7550  14.247  13.218   6.894
68551SOL    HW2 7551  14.125  13.240   6.807
68552SOL     OW 7552  11.986   9.404   3.282
68552SOL    HW1 7553  12.003   9.384   3.374
68552SOL    HW2 7554  11.934   9.485   3.284
68553SOL     OW 7555   2.306   9.900  12.695
68553SOL    HW1 7556   2.344   9.926  12.611
68553SOL    HW2 7557   2.378   9.859  12.743
68554SOL     OW 7558  10.898   6.035  12.583
68554SOL    HW1 7559  10.888   5.943  12.608
68554SOL    HW2 7560  10.960   6.071  12.647
68555SOL     OW 7561   2.221  13.794   0.840
68555SOL    HW1 7562   2.293  13.795   0.903
68555SOL    HW2 7563   2.264  13.783   0.755
68556SOL     OW 7564   9.207   6.970  11.588
68556SOL    HW1 7565   9.261   7.021  11.527
68556SOL    HW2 7566   9.248   6.884  11.590
68557SOL     OW 7567   8.498  10.208  10.646
68557SOL    HW1 7568   8.450  10.290  10.651
68557SOL    HW2 7569   8.557  10.210  10.722
68558SOL     OW 7570   8.674   9.289   0.403
68558SOL    HW1 7571   8.578   9.292   0.408
68558SOL    HW2 7572   8.698   9.374   0.365
68559SOL     OW 7573   3.812   2.837   4.585
68559SOL    HW1 7574   3.751   2.899   4.624
68559SOL    HW2 7575   3.817   2.862   4.493
68560SOL     OW 7576   9.202  14.303   8.770
68560SOL    HW1 7577   9.278  14.258   8.733
68560SOL    HW2 7578   9.132  14.290   8.706
68561SOL     OW 7579   8.422  11.641   2.167
68561SOL    HW1 7580   8.374  11.716   2.131
68561SOL    HW2 7581   8.355  11.590   2.213
68562SOL     OW 7582   3.721  13.916   1.615
68562SOL    HW1 7583   3.772  13.837   1.594
68562SOL    HW2 7584   3.663  13.889   1.686
68563SOL     OW 7585   3.476  13.895   5.420
68563SOL    HW1 7586   3.541  13.919   5.354
68563SOL    HW2 7587   3.391  13.913   5.378
68564SOL     OW 7588  14.666   3.967  13.839
68564SOL    HW1 7589  14.619   4.000  13.916
68564SOL    HW2 7590  14.604   3.975  13.767
68565SOL     OW 7591   7.947  13.525  10.686
68565SOL    HW1 7592   7.852  13.514  10.681
68565SOL    HW2 7593   7.982  13.469  10.616
68566SOL     OW 7594   4.911   3.916  13.105
68566SOL    HW1 7595   4.934   3.823  13.094
68566SOL    HW2 7596   4.922   3.933  13.198
68567SOL     OW 7597  10.339  11.667   8.086
68567SOL    HW1 7598  10.360  11.755   8.116
68567SOL    HW2 7599  10.417  11.615   8.107
68568SOL     OW 7600   6.492   2.846  13.924
68568SOL    HW1 7601   6.432   2.917  13.902
68568SOL    HW2 7602   6.446   2.795  13.990
68569SOL     OW 7603   4.445   4.313   2.131
68569SOL    HW1 7604   4.392   4.392   2.120
68569SOL    HW2 7605   4.381   4.241   2.133
68570SOL     OW 7606   6.773   2.762   1.707
68570SOL    HW1 7607   6.749   2.670   1.705
68570SOL    HW2 7608   6.866   2.764   1.685
68571SOL     OW 7609   2.615   9.875   5.315
68571SOL    HW1 7610   2.601   9.785   5.344
68571SOL    HW2 7611   2.647   9.921   5.392
68572SOL     OW 7612   7.140  12.232  13.282
68572SOL    HW1 7613   7.053  12.258  13.312
68572SOL    HW2 7614   7.182  12.195  13.360
68573SOL     OW 7615   4.425   7.323   0.782
68573SOL    HW1 7616   4.484   7.375   0.837
68573SOL    HW2 7617   4.356   7.384   0.758
68574SOL     OW 7618   3.989   1.122   1.094
68574SOL    HW1 7619   3.904   1.104   1.055
68574SOL    HW2 7620   3.984   1.085   1.182
68575SOL     OW 7621   4.727   7.133   2.559
68575SOL    HW1 7622   4.766   7.167   2.478
68575SOL    HW2 7623   4.735   7.205   2.621
68576SOL     OW 7624   3.155   5.715   8.188
68576SOL    HW1 7625   3.137   5.804   8.217
68576SOL    HW2 7626   3.091   5.661   8.236
68577SOL     OW 7627   7.159   4.265   8.604
68577SOL    HW1 7628   7.206   4.301   8.679
68577SOL    HW2 7629   7.140   4.174   8.629
68578SOL     OW 7630   5.376   7.738   1.253
68578SOL    HW1 7631   5.419   7.760   1.335
68578SOL    HW2 7632   5.290   7.780   1.259
68579SOL     OW 7633   0.179   3.170   4.715
68579SOL    HW1 7634   0.114   3.126   4.661
68579SOL    HW2 7635   0.140   3.255   4.736
68580SOL     OW 7636   0.637   8.451   1.742
68580SOL    HW1 7637   0.676   8.472   1.657
68580SOL    HW2 7638   0.569   8.386   1.721
68581SOL     OW 7639   0.171  11.011   6.955
68581SOL    HW1 7640   0.207  11.002   6.866
68581SOL    HW2 7641   0.239  10.973   7.011
68582SOL     OW 7642   6.416   2.298   9.265
68582SOL    HW1 7643   6.394   2.205   9.268
68582SOL    HW2 7644   6.370   2.331   9.188
68583SOL     OW 7645  14.681  10.351   4.100
68583SOL    HW1 7646  14.612  10.290   4.127
68583SOL    HW2 7647  14.706  10.395   4.181
68584SOL     OW 7648   9.315   8.458  12.154
68584SOL    HW1 7649   9.362   8.540  12.140
68584SOL    HW2 7650   9.322   8.412  12.071
68585SOL     OW 7651  14.018   6.802   9.795
68585SOL    HW1 7652  13.925   6.808   9.775
68585SOL    HW2 7653  14.060   6.859   9.732
68586SOL     OW 7654   8.495  14.559   7.340
68586SOL    HW1 7655   8.588  14.562   7.359
68586SOL    HW2 7656   8.453  14.549   7.426
68587SOL     OW 7657  10.758   8.029  14.585
68587SOL    HW1 7658  10.699   8.095  14.549
68587SOL    HW2 7659  10.707   7.988  14.655
68588SOL     OW 7660   1.719  10.203   0.522
68588SOL    HW1 7661   1.628  10.212   0.493
68588SOL    HW2 7662   1.770  10.203   0.441
68589SOL     OW 7663  12.945   1.779   2.170
68589SOL    HW1 7664  12.970   1.775   2.262
68589SOL    HW2 7665  12.987   1.859   2.137
68590SOL     OW 7666  13.991  12.506   5.504
68590SOL    HW1 7667  13.899  12.481   5.505
68590SOL    HW2 7668  14.018  12.493   5.413
68591SOL     OW 7669   0.562  10.068  11.786
68591SOL    HW1 7670   0.501  10.079  11.713
68591SOL    HW2 7671   0.647  10.055  11.744
68592SOL     OW 7672   9.044  14.507   3.848
68592SOL    HW1 7673   8.999  14.453   3.912
68592SOL    HW2 7674   8.979  14.571   3.820
68593SOL     OW 7675   8.486   3.744   3.020
68593SOL    HW1 7676   8.480   3.653   3.046
68593SOL    HW2 7677   8.564   3.777   3.065
68594SOL     OW 7678   7.159   6.195  10.059
68594SOL    HW1 7679   7.091   6.139  10.098
68594SOL    HW2 7680   7.234   6.186  10.119
68595SOL     OW 7681   2.628  11.959   5.306
68595SOL    HW1 7682   2.581  12.015   5.369
68595SOL    HW2 7683   2.702  11.925   5.356
68596SOL     OW 7684   9.617   1.700   8.701
68596SOL    HW1 7685   9.610   1.662   8.788
68596SOL    HW2 7686   9.663   1.783   8.715
68597SOL     OW 7687   9.757  12.048   7.161
68597SOL    HW1 7688   9.791  12.053   7.072
68597SOL    HW2 7689   9.683  12.108   7.162
68598SOL     OW 7690   1.114   7.515   8.810
68598SOL    HW1 7691   1.024   7.509   8.778
68598SOL    HW2 7692   1.110   7.487   8.901
68599SOL     OW 7693   1.642  10.656  11.835
68599SOL    HW1 7694   1.657  10.696  11.750
68599SOL    HW2 7695   1.675  10.720  11.898
68600SOL     OW 7696   4.652   4.592   7.104
68600SOL    HW1 7697   4.707   4.645   7.047
68600SOL    HW2 7698   4.713   4.557   7.170
68601SOL     OW 7699   4.153   3.722  13.568
68601SOL    HW1 7700   4.114   3.809  13.583
68601SOL    HW2 7701   4.159   3.715  13.473
68602SOL     OW 7702   0.618   6.849   9.094
68602SOL    HW1 7703   0.572   6.798   9.161
68602SOL    HW2 7704   0.554   6.912   9.062
68603SOL     OW 7705   1.974   5.279   5.349
68603SOL    HW1 7706   1.913   5.234   5.291
68603SOL    HW2 7707   1.976   5.226   5.429
68604SOL     OW 7708   9.615  11.014   6.187
68604SOL    HW1 7709   9.696  10.966   6.207
68604SOL    HW2 7710   9.583  11.043   6.272
68605SOL     OW 7711  13.240  14.853   8.514
68605SOL    HW1 7712  13.149  14.853   8.545
68605SOL    HW2 7713  13.251  14.769   8.469
68606SOL     OW 7714  14.109   8.291   5.344
68606SOL    HW1 7715  14.145   8.215   5.298
68606SOL    HW2 7716  14.105   8.264   5.435
68607SOL     OW 7717  12.407   9.512  12.264
68607SOL    HW1 7718  12.356   9.553  12.334
68607SOL    HW2 7719  12.474   9.577  12.243
68608SOL     OW 7720  12.596   8.341   3.726
68608SOL    HW1 7721  12.576   8.306   3.639
68608SOL    HW2 7722  12.550   8.425   3.730
68609SOL     OW 7723  12.003   6.042   8.754
68609SOL    HW1 7724  12.079   6.014   8.805
68609SOL    HW2 7725  12.025   6.020   8.664
68610SOL     OW 7726   8.703   8.653   8.023
68610SOL    HW1 7727   8.746   8.731   8.058
68610SOL    HW2 7728   8.634   8.633   8.086
68611SOL     OW 7729   1.820  10.515  12.628
68611SOL    HW1 7730   1.869  10.439  12.597
68611SOL    HW2 7731   1.795  10.493  12.718
68612SOL     OW 7732   1.479   9.324   0.770
68612SOL    HW1 7733   1.442   9.295   0.686
68612SOL    HW2 7734   1.427   9.402   0.792
68613SOL     OW 7735   5.184   3.334   9.827
68613SOL    HW1 7736   5.110   3.277   9.805
68613SOL    HW2 7737   5.144   3.420   9.841
68614SOL     OW 7738   4.515  12.454   9.827
68614SOL    HW1 7739   4.438  12.503   9.856
68614SOL    HW2 7740   4.573  12.454   9.904
68615SOL     OW 7741   8.794   9.775  11.214
68615SOL    HW1 7742   8.808   9.826  11.135
68615SOL    HW2 7743   8.762   9.690  11.183
68616SOL     OW 7744   2.780   7.923   9.996
68616SOL    HW1 7745   2.686   7.938   9.990
68616SOL    HW2 7746   2.789   7.828  10.004
68617SOL     OW 7747   1.240   6.017  10.811
68617SOL    HW1 7748   1.299   6.081  10.771
68617SOL    HW2 7749   1.153   6.046  10.785
68618SOL     OW 7750   3.284  13.774  12.667
68618SOL    HW1 7751   3.231  13.788  12.588
68618SOL    HW2 7752   3.374  13.792  12.638
68619SOL     OW 7753   3.835  13.270   0.579
68619SOL    HW1 7754   3.746  13.268   0.614
68619SOL    HW2 7755   3.888  13.308   0.649
68620SOL     OW 7756   6.848  10.596   0.096
68620SOL    HW1 7757   6.829  10.563   0.184
68620SOL    HW2 7758   6.864  10.689   0.109
68621SOL     OW 7759  13.757   0.437   9.863
68621SOL    HW1 7760  13.722   0.516   9.822
68621SOL    HW2 7761  13.721   0.365   9.811
68622SOL     OW 7762  10.690   7.230   5.497
68622SOL    HW1 7763  10.699   7.318   5.534
68622SOL    HW2 7764  10.732   7.237   5.411
68623SOL     OW 7765  11.977   3.242  11.988
68623SOL    HW1 7766  11.942   3.161  12.026
68623SOL    HW2 7767  12.041   3.212  11.923
68624SOL     OW 7768  12.733   2.869   9.094
68624SOL    HW1 7769  12.802   2.832   9.148
68624SOL    HW2 7770  12.652   2.829   9.127
68625SOL     OW 7771  11.966   6.264  12.355
68625SOL    HW1 7772  11.967   6.276  12.450
68625SOL    HW2 7773  11.942   6.350  12.320
68626SOL     OW 7774   5.616  12.927   4.552
68626SOL    HW1 7775   5.552  12.934   4.623
68626SOL    HW2 7776   5.683  12.867   4.587
68627SOL     OW 7777   0.335   8.597  11.453
68627SOL    HW1 7778   0.382   8.546  11.519
68627SOL    HW2 7779   0.289   8.531  11.400
68628SOL     OW 7780   7.683   6.142  11.834
68628SOL    HW1 7781   7.660   6.069  11.777
68628SOL    HW2 7782   7.703   6.214  11.774
68629SOL     OW 7783   1.585  11.754  14.625
68629SOL    HW1 7784   1.536  11.757  14.543
68629SOL    HW2 7785   1.615  11.663  14.631
68630SOL     OW 7786   6.052   9.635   9.092
68630SOL    HW1 7787   6.062   9.649   8.998
68630SOL    HW2 7788   6.090   9.713   9.132
68631SOL     OW 7789   9.100   3.279   8.807
68631SOL    HW1 7790   9.010   3.292   8.836
68631SOL    HW2 7791   9.153   3.286   8.886
68632SOL     OW 7792  12.342  14.313   7.503
68632SOL    HW1 7793  12.403  14.247   7.535
68632SOL    HW2 7794  12.338  14.299   7.408
68633SOL     OW 7795  12.032  10.364   0.878
68633SOL    HW1 7796  12.088  10.345   0.953
68633SOL    HW2 7797  11.957  10.305   0.889
68634SOL     OW 7798   5.366  13.839  12.690
68634SOL    HW1 7799   5.365  13.926  12.732
68634SOL    HW2 7800   5.458  13.826  12.667
68635SOL     OW 7801   8.747   5.841   9.135
68635SOL    HW1 7802   8.820   5.873   9.187
68635SOL    HW2 7803   8.763   5.746   9.128
68636SOL     OW 7804  11.292   5.845   1.355
68636SOL    HW1 7805  11.378   5.839   1.313
68636SOL    HW2 7806  11.231   5.810   1.290
68637SOL     OW 7807  14.774   3.415   3.197
68637SOL    HW1 7808  14.816   3.337   3.233
68637SOL    HW2 7809  14.823   3.435   3.117
68638SOL     OW 7810   3.652  10.420  12.939
68638SOL    HW1 7811   3.578  10.432  12.999
68638SOL    HW2 7812   3.614  10.372  12.864
68639SOL     OW 7813   6.900  11.641   5.467
68639SOL    HW1 7814   6.848  11.697   5.409
68639SOL    HW2 7815   6.990  11.669   5.454
68640SOL     OW 7816   4.862   9.393   7.889
68640SOL    HW1 7817   4.938   9.336   7.894
68640SOL    HW2 7818   4.876   9.459   7.957
68641SOL     OW 7819   5.312   3.158  10.349
68641SOL    HW1 7820   5.235   3.213  10.338
68641SOL    HW2 7821   5.281   3.080  10.395
68642SOL     OW 7822  10.029  11.874   3.828
68642SOL    HW1 7823  10.094  11.931   3.787
68642SOL    HW2 7824  10.075  11.792   3.843
68643SOL     OW 7825  13.395  10.883  11.663
68643SOL    HW1 7826  13.339  10.869  11.586
68643SOL    HW2 7827  13.355  10.956  11.709
68644SOL     OW 7828  13.320   6.585   2.963
68644SOL    HW1 7829  13.342   6.564   2.872
68644SOL    HW2 7830  13.275   6.669   2.959
68645SOL     OW 7831   0.832   7.004   9.618
68645SOL    HW1 7832   0.838   7.059   9.697
68645SOL    HW2 7833   0.825   6.915   9.652
68646SOL     OW 7834  13.240  11.159   8.515
68646SOL    HW1 7835  13.252  11.125   8.426
68646SOL    HW2 7836  13.154  11.125   8.542
68647SOL     OW 7837   6.705  13.119   2.715
68647SOL    HW1 7838   6.775  13.169   2.756
68647SOL    HW2 7839   6.743  13.086   2.634
68648SOL     OW 7840  10.984   5.716   2.594
68648SOL    HW1 7841  10.919   5.787   2.593
68648SOL    HW2 7842  11.000   5.700   2.687
68649SOL     OW 7843   3.621   6.942   3.687
68649SOL    HW1 7844   3.544   6.986   3.723
68649SOL    HW2 7845   3.660   6.895   3.760
68650SOL     OW 7846   0.777  14.046   8.358
68650SOL    HW1 7847   0.685  14.065   8.379
68650SOL    HW2 7848   0.773  13.978   8.290
68651SOL     OW 7849   9.443   4.662   4.933
68651SOL    HW1 7850   9.516   4.607   4.906
68651SOL    HW2 7851   9.435   4.648   5.027
68652SOL     OW 7852  12.823   6.350   9.290
68652SOL    HW1 7853  12.810   6.371   9.382
68652SOL    HW2 7854  12.843   6.434   9.249
68653SOL     OW 7855   7.413   1.202  12.346
68653SOL    HW1 7856   7.409   1.233  12.255
68653SOL    HW2 7857   7.353   1.258  12.394
68654SOL     OW 7858   5.985   1.052   9.447
68654SOL    HW1 7859   5.932   1.126   9.417
68654SOL    HW2 7860   6.068   1.093   9.473
68655SOL     OW 7861   2.583   5.500   1.739
68655SOL    HW1 7862   2.598   5.468   1.650
68655SOL    HW2 7863   2.544   5.425   1.785
68656SOL     OW 7864   1.334  12.260   0.822
68656SOL    HW1 7865   1.341  12.227   0.911
68656SOL    HW2 7866   1.418  12.241   0.782
68657SOL     OW 7867  11.118   7.544   7.767
68657SOL    HW1 7868  11.035   7.499   7.784
68657SOL    HW2 7869  11.184   7.485   7.803
68658SOL     OW 7870   0.967   0.927   8.130
68658SOL    HW1 7871   0.972   0.901   8.039
68658SOL    HW2 7872   0.994   0.850   8.179
68659SOL     OW 7873   5.922  10.393   2.053
68659SOL    HW1 7874   5.992  10.338   2.087
68659SOL    HW2 7875   5.950  10.482   2.071
68660SOL     OW 7876   2.714  10.973  11.230
68660SOL    HW1 7877   2.722  11.050  11.285
68660SOL    HW2 7878   2.649  10.918  11.274
68661SOL     OW 7879   6.299   9.105  13.884
68661SOL    HW1 7880   6.313   9.033  13.946
68661SOL    HW2 7881   6.303   9.063  13.798
68662SOL     OW 7882  13.342   4.389  13.312
68662SOL    HW1 7883  13.431   4.364  13.336
68662SOL    HW2 7884  13.287   4.351  13.381
68663SOL     OW 7885   8.825   3.743   5.188
68663SOL    HW1 7886   8.732   3.741   5.213
68663SOL    HW2 7887   8.857   3.826   5.222
68664SOL     OW 7888   9.919  14.625   6.274
68664SOL    HW1 7889   9.931  14.718   6.294
68664SOL    HW2 7890   9.873  14.624   6.190
68665SOL     OW 7891   4.916   9.707  14.240
68665SOL    HW1 7892   4.999   9.753  14.248
68665SOL    HW2 7893   4.941   9.615  14.226
68666SOL     OW 7894   8.538   8.555  10.312
68666SOL    HW1 7895   8.570   8.505  10.387
68666SOL    HW2 7896   8.538   8.646  10.341
68667SOL     OW 7897  13.879   2.015  11.233
68667SOL    HW1 7898  13.891   2.067  11.153
68667SOL    HW2 7899  13.846   1.931  11.202
68668SOL     OW 7900  14.677   7.435  13.835
68668SOL    HW1 7901  14.637   7.472  13.915
68668SOL    HW2 7902  14.607   7.382  13.797
68669SOL     OW 7903   6.952   0.937   3.139
68669SOL    HW1 7904   6.936   0.999   3.211
68669SOL    HW2 7905   6.987   0.859   3.182
68670SOL     OW 7906   8.950   8.772   8.870
68670SOL    HW1 7907   8.993   8.797   8.788
68670SOL    HW2 7908   8.880   8.713   8.844
68671SOL     OW 7909  12.354   4.867  13.833
68671SOL    HW1 7910  12.324   4.866  13.923
68671SOL    HW2 7911  12.302   4.801  13.789
68672SOL     OW 7912   1.384   2.722   5.621
68672SOL    HW1 7913   1.475   2.695   5.626
68672SOL    HW2 7914   1.358   2.738   5.711
68673SOL     OW 7915  14.842   6.431   9.066
68673SOL    HW1 7916   0.058   6.422   9.039
68673SOL    HW2 7917  14.808   6.504   9.014
68674SOL     OW 7918  11.514   9.439   7.379
68674SOL    HW1 7919  11.545   9.528   7.364
68674SOL    HW2 7920  11.587   9.394   7.420
68675SOL     OW 7921   2.070   6.745  10.539
68675SOL    HW1 7922   2.004   6.801  10.498
68675SOL    HW2 7923   2.109   6.697  10.467
68676SOL     OW 7924  11.216  14.568   6.825
68676SOL    HW1 7925  11.160  14.523   6.763
68676SOL    HW2 7926  11.160  14.584   6.901
68677SOL     OW 7927   0.236   1.212   4.158
68677SOL    HW1 7928   0.182   1.254   4.224
68677SOL    HW2 7929   0.181   1.143   4.120
68678SOL     OW 7930  13.520  12.518   5.673
68678SOL    HW1 7931  13.432  12.545   5.700
68678SOL    HW2 7932  13.559  12.482   5.753
68679SOL     OW 7933   4.699  10.024   9.864
68679SOL    HW1 7934   4.671   9.932   9.858
68679SOL    HW2 7935   4.648  10.068   9.796
68680SOL     OW 7936   6.089   1.063   4.001
68680SOL    HW1 7937   6.049   1.039   3.918
68680SOL    HW2 7938   6.163   1.119   3.977
68681SOL     OW 7939  12.804  10.638   0.931
68681SOL    HW1 7940  12.877  10.697   0.911
68681SOL    HW2 7941  12.805  10.630   1.026
68682SOL     OW 7942   2.350   4.332   9.261
68682SOL    HW1 7943   2.383   4.368   9.344
68682SOL    HW2 7944   2.316   4.246   9.285
68683SOL     OW 7945   6.850   5.829   9.552
68683SOL    HW1 7946   6.906   5.906   9.563
68683SOL    HW2 7947   6.902   5.768   9.501
68684SOL     OW 7948  12.261  11.274   8.772
68684SOL    HW1 7949  12.250  11.329   8.850
68684SOL    HW2 7950  12.199  11.310   8.708
68685SOL     OW 7951  13.056   7.184  13.710
68685SOL    HW1 7952  13.009   7.239  13.647
68685SOL    HW2 7953  13.138   7.162  13.665
68686SOL     OW 7954   9.305   2.804  12.904
68686SOL    HW1 7955   9.302   2.720  12.858
68686SOL    HW2 7956   9.250   2.792  12.981
68687SOL     OW 7957   2.851   1.238   4.781
68687SOL    HW1 7958   2.792   1.308   4.807
68687SOL    HW2 7959   2.905   1.276   4.712
68688SOL     OW 7960  10.784   3.498   8.090
68688SOL    HW1 7961  10.805   3.439   8.017
68688SOL    HW2 7962  10.712   3.455   8.135
68689SOL     OW 7963  10.273   4.744   9.555
68689SOL    HW1 7964  10.272   4.655   9.520
68689SOL    HW2 7965  10.307   4.734   9.644
68690SOL     OW 7966  12.742   1.174   1.300
68690SOL    HW1 7967  12.724   1.110   1.232
68690SOL    HW2 7968  12.657   1.191   1.341
68691SOL     OW 7969   5.674   4.825  13.945
68691SOL    HW1 7970   5.728   4.847  14.022
68691SOL    HW2 7971   5.619   4.753  13.975
68692SOL     OW 7972  10.045   8.162  13.917
68692SOL    HW1 7973   9.961   8.116  13.918
68692SOL    HW2 7974  10.049   8.204  13.832
68693SOL     OW 7975  11.592   2.639  11.802
68693SOL    HW1 7976  11.613   2.727  11.770
68693SOL    HW2 7977  11.498   2.631  11.788
68694SOL     OW 7978   0.979  14.244   8.097
68694SOL    HW1 7979   0.917  14.188   8.049
68694SOL    HW2 7980   1.057  14.190   8.105
68695SOL     OW 7981   5.246   8.681   7.626
68695SOL    HW1 7982   5.240   8.628   7.546
68695SOL    HW2 7983   5.180   8.645   7.684
68696SOL     OW 7984  10.391   5.227   6.591
68696SOL    HW1 7985  10.435   5.213   6.507
68696SOL    HW2 7986  10.420   5.155   6.646
68697SOL     OW 7987  11.046   9.178   4.246
68697SOL    HW1 7988  11.114   9.183   4.179
68697SOL    HW2 7989  11.031   9.269   4.272
68698SOL     OW 7990   5.054   6.537   4.163
68698SOL    HW1 7991   5.104   6.585   4.229
68698SOL    HW2 7992   5.079   6.576   4.080
68699SOL     OW 7993   4.202   8.250  13.961
68699SOL    HW1 7994   4.157   8.196  13.896
68699SOL    HW2 7995   4.295   8.242  13.939
68700SOL     OW 7996   0.222   8.397   5.110
68700SOL    HW1 7997   0.264   8.321   5.070
68700SOL    HW2 7998   0.266   8.405   5.195
68701SOL     OW 7999   2.997  12.213   4.496
68701SOL    HW1 8000   3.016  12.273   4.568
68701SOL    HW2 8001   3.079  12.208   4.447
68702SOL     OW 8002   2.548   6.776  10.930
68702SOL    HW1 8003   2.575   6.794  10.840
68702SOL    HW2 8004   2.482   6.842  10.949
68703SOL     OW 8005   2.769   2.709   5.120
68703SOL    HW1 8006   2.817   2.790   5.139
68703SOL    HW2 8007   2.680   2.738   5.101
68704SOL     OW 8008   1.243   9.440  13.408
68704SOL    HW1 8009   1.189   9.433  13.487
68704SOL    HW2 8010   1.298   9.518  13.423
68705SOL     OW 8011   3.760   2.037   7.424
68705SOL    HW1 8012   3.807   1.958   7.397
68705SOL    HW2 8013   3.725   2.073   7.343
68706SOL     OW 8014   5.401   4.637   8.370
68706SOL    HW1 8015   5.346   4.714   8.380
68706SOL    HW2 8016   5.489   4.667   8.395
68707SOL     OW 8017  11.268   9.566   0.175
68707SOL    HW1 8018  11.220   9.522   0.246
68707SOL    HW2 8019  11.319   9.634   0.219
68708SOL     OW 8020   9.887   0.628   8.050
68708SOL    HW1 8021   9.812   0.592   8.098
68708SOL    HW2 8022   9.871   0.723   8.049
68709SOL     OW 8023  13.146  14.479   4.744
68709SOL    HW1 8024  13.099  14.549   4.700
68709SOL    HW2 8025  13.144  14.502   4.837
68710SOL     OW 8026   5.969   4.145  10.729
68710SOL    HW1 8027   5.972   4.051  10.749
68710SOL    HW2 8028   6.059   4.175  10.746
68711SOL     OW 8029   4.212   3.282   7.957
68711SOL    HW1 8030   4.292   3.230   7.962
68711SOL    HW2 8031   4.211   3.333   8.038
68712SOL     OW 8032  11.225   4.295   6.709
68712SOL    HW1 8033  11.223   4.223   6.646
68712SOL    HW2 8034  11.318   4.307   6.727
68713SOL     OW 8035   1.581   3.012   1.494
68713SOL    HW1 8036   1.537   3.023   1.578
68713SOL    HW2 8037   1.647   2.944   1.510
68714SOL     OW 8038   6.045   2.216   0.390
68714SOL    HW1 8039   6.115   2.157   0.363
68714SOL    HW2 8040   6.058   2.295   0.337
68715SOL     OW 8041   3.556  13.674  10.165
68715SOL    HW1 8042   3.474  13.660  10.213
68715SOL    HW2 8043   3.622  13.683  10.234
68716SOL     OW 8044   1.108  14.491   9.546
68716SOL    HW1 8045   1.015  14.492   9.522
68716SOL    HW2 8046   1.118  14.412   9.600
68717SOL     OW 8047  12.240  12.882   4.822
68717SOL    HW1 8048  12.238  12.975   4.801
68717SOL    HW2 8049  12.313  12.848   4.770
68718SOL     OW 8050  11.320  13.052  11.327
68718SOL    HW1 8051  11.320  12.986  11.257
68718SOL    HW2 8052  11.334  13.135  11.281
68719SOL     OW 8053  10.350  14.596   6.825
68719SOL    HW1 8054  10.426  14.653   6.836
68719SOL    HW2 8055  10.358  14.561   6.736
68720SOL     OW 8056   3.326   6.048   9.394
68720SOL    HW1 8057   3.322   6.066   9.488
68720SOL    HW2 8058   3.363   6.128   9.356
68721SOL     OW 8059   9.073   7.161  10.409
68721SOL    HW1 8060   9.014   7.166  10.334
68721SOL    HW2 8061   9.099   7.069  10.412
68722SOL     OW 8062   7.796   0.558   6.959
68722SOL    HW1 8063   7.784   0.487   6.896
68722SOL    HW2 8064   7.887   0.587   6.945
68723SOL     OW 8065   4.250  14.651  13.153
68723SOL    HW1 8066   4.190  14.712  13.196
68723SOL    HW2 8067   4.337  14.679  13.180
68724SOL     OW 8068   6.680  10.834   2.835
68724SOL    HW1 8069   6.740  10.906   2.813
68724SOL    HW2 8070   6.705  10.764   2.775
68725SOL     OW 8071  13.435   5.298   4.938
68725SOL    HW1 8072  13.417   5.332   5.025
68725SOL    HW2 8073  13.493   5.363   4.898
68726SOL     OW 8074  14.580  14.349   3.359
68726SOL    HW1 8075  14.600  14.347   3.266
68726SOL    HW2 8076  14.663  14.367   3.402
68727SOL     OW 8077  13.252  12.996  11.355
68727SOL    HW1 8078  13.320  13.019  11.293
68727SOL    HW2 8079  13.193  13.071  11.357
68728SOL     OW 8080   2.497  12.503   1.437
68728SOL    HW1 8081   2.429  12.524   1.501
68728SOL    HW2 8082   2.568  12.565   1.455
68729SOL     OW 8083   3.606   1.071  14.325
68729SOL    HW1 8084   3.661   1.148  14.341
68729SOL    HW2 8085   3.589   1.036  14.412
68730SOL     OW 8086  12.068   7.420   4.869
68730SOL    HW1 8087  12.020   7.443   4.949
68730SOL    HW2 8088  12.123   7.496   4.851
68731SOL     OW 8089   1.922   2.416  13.772
68731SOL    HW1 8090   1.972   2.357  13.714
68731SOL    HW2 8091   1.984   2.484  13.796
68732SOL     OW 8092   5.289  13.935  11.871
68732SOL    HW1 8093   5.338  13.931  11.953
68732SOL    HW2 8094   5.328  14.009  11.823
68733SOL     OW 8095   0.971  12.636   8.546
68733SOL    HW1 8096   0.881  12.605   8.546
68733SOL    HW2 8097   0.964  12.731   8.538
68734SOL     OW 8098  12.172  11.884   1.020
68734SOL    HW1 8099  12.123  11.820   0.967
68734SOL    HW2 8100  12.258  11.889   0.978
68735SOL     OW 8101   1.979  10.265  11.814
68735SOL    HW1 8102   2.020  10.191  11.768
68735SOL    HW2 8103   1.890  10.269  11.778
68736SOL     OW 8104   7.215  12.117   7.029
68736SOL    HW1 8105   7.135  12.168   7.043
68736SOL    HW2 8106   7.279  12.181   7.001
68737SOL     OW 8107   4.862   2.864   5.287
68737SOL    HW1 8108   4.879   2.808   5.211
68737SOL    HW2 8109   4.851   2.951   5.250
68738SOL     OW 8110   0.694  12.930   9.015
68738SOL    HW1 8111   0.672  12.913   9.106
68738SOL    HW2 8112   0.686  13.025   9.006
68739SOL     OW 8113   3.969  13.803   4.807
68739SOL    HW1 8114   3.993  13.781   4.897
68739SOL    HW2 8115   4.041  13.859   4.776
68740SOL     OW 8116  12.861   7.121  10.103
68740SOL    HW1 8117  12.930   7.186  10.089
68740SOL    HW2 8118  12.797   7.166  10.159
68741SOL     OW 8119   0.051  12.090   3.617
68741SOL    HW1 8120   0.132  12.127   3.583
68741SOL    HW2 8121   0.045  12.124   3.706
68742SOL     OW 8122   0.077   6.391  13.925
68742SOL    HW1 8123   0.040   6.433  14.003
68742SOL    HW2 8124   0.172   6.397  13.938
68743SOL     OW 8125  11.404  11.759   3.281
68743SOL    HW1 8126  11.309  11.763   3.286
68743SOL    HW2 8127  11.433  11.733   3.368
68744SOL     OW 8128   9.435   1.502   5.488
68744SOL    HW1 8129   9.342   1.522   5.481
68744SOL    HW2 8130   9.472   1.527   5.403
68745SOL     OW 8131   7.839  14.771  13.503
68745SOL    HW1 8132   7.863  14.762  13.411
68745SOL    HW2 8133   7.780  14.846  13.506
68746SOL     OW 8134   3.817  10.330   0.930
68746SOL    HW1 8135   3.898  10.367   0.964
68746SOL    HW2 8136   3.823  10.339   0.835
68747SOL     OW 8137   1.859   1.938   0.906
68747SOL    HW1 8138   1.826   1.865   0.853
68747SOL    HW2 8139   1.927   1.899   0.961
68748SOL     OW 8140   4.125   9.154  14.280
68748SOL    HW1 8141   4.151   9.071  14.321
68748SOL    HW2 8142   4.042   9.133  14.236
68749SOL     OW 8143  14.031   4.355  10.742
68749SOL    HW1 8144  14.030   4.263  10.715
68749SOL    HW2 8145  14.034   4.351  10.838
68750SOL     OW 8146   8.830   1.285   8.496
68750SOL    HW1 8147   8.831   1.319   8.407
68750SOL    HW2 8148   8.813   1.192   8.486
68751SOL     OW 8149   2.354  12.138  11.640
68751SOL    HW1 8150   2.293  12.201  11.679
68751SOL    HW2 8151   2.355  12.064  11.700
68752SOL     OW 8152   3.052   0.935  11.100
68752SOL    HW1 8153   3.064   1.024  11.133
68752SOL    HW2 8154   3.140   0.897  11.102
68753SOL     OW 8155   4.962  10.708   6.942
68753SOL    HW1 8156   4.920  10.734   6.860
68753SOL    HW2 8157   4.954  10.785   6.998
68754SOL     OW 8158  10.022   2.270  13.142
68754SOL    HW1 8159   9.968   2.251  13.065
68754SOL    HW2 8160  10.090   2.202  13.140
68755SOL     OW 8161   0.649  14.705   8.572
68755SOL    HW1 8162   0.739  14.739   8.576
68755SOL    HW2 8163   0.644  14.643   8.644
68756SOL     OW 8164   7.792   8.357  10.558
68756SOL    HW1 8165   7.856   8.419  10.523
68756SOL    HW2 8166   7.718   8.412  10.583
68757SOL     OW 8167  10.832   5.681   7.571
68757SOL    HW1 8168  10.773   5.745   7.531
68757SOL    HW2 8169  10.774   5.619   7.616
68758SOL     OW 8170   3.483  10.489  13.132
68758SOL    HW1 8171   3.392  10.519  13.134
68758SOL    HW2 8172   3.492  10.437  13.212
68759SOL     OW 8173   9.116   6.636   3.982
68759SOL    HW1 8174   9.092   6.640   4.075
68759SOL    HW2 8175   9.061   6.567   3.945
68760SOL     OW 8176  14.642   4.371   3.001
68760SOL    HW1 8177  14.586   4.421   2.941
68760SOL    HW2 8178  14.681   4.303   2.946
68761SOL     OW 8179   9.800   0.967   9.660
68761SOL    HW1 8180   9.761   0.916   9.731
68761SOL    HW2 8181   9.890   0.981   9.687
68762SOL     OW 8182   0.700   2.699   3.793
68762SOL    HW1 8183   0.716   2.761   3.865
68762SOL    HW2 8184   0.748   2.736   3.719
68763SOL     OW 8185   1.229   4.066   4.618
68763SOL    HW1 8186   1.244   4.000   4.685
68763SOL    HW2 8187   1.259   4.148   4.657
68764SOL     OW 8188  13.737  14.156  14.680
68764SOL    HW1 8189  13.649  14.118  14.691
68764SOL    HW2 8190  13.763  14.129  14.592
68765SOL     OW 8191   3.034   4.987   4.095
68765SOL    HW1 8192   3.040   4.891   4.092
68765SOL    HW2 8193   2.949   5.004   4.137
68766SOL     OW 8194  13.479  11.710   9.902
68766SOL    HW1 8195  13.568  11.676   9.903
68766SOL    HW2 8196  13.475  11.766   9.824
68767SOL     OW 8197   8.371   1.414   6.996
68767SOL    HW1 8198   8.423   1.350   7.044
68767SOL    HW2 8199   8.328   1.466   7.064
68768SOL     OW 8200  11.129   2.043   3.024
68768SOL    HW1 8201  11.216   2.004   3.015
68768SOL    HW2 8202  11.077   2.003   2.955
68769SOL     OW 8203   1.818  11.757   4.085
68769SOL    HW1 8204   1.852  11.816   4.152
68769SOL    HW2 8205   1.776  11.687   4.134
68770SOL     OW 8206  11.950   7.959  12.981
68770SOL    HW1 8207  11.988   7.874  12.959
68770SOL    HW2 8208  11.856   7.945  12.979
68771SOL     OW 8209  13.619  10.282   1.375
68771SOL    HW1 8210  13.649  10.192   1.362
68771SOL    HW2 8211  13.656  10.308   1.459
68772SOL     OW 8212   2.669  10.530   3.236
68772SOL    HW1 8213   2.670  10.438   3.262
68772SOL    HW2 8214   2.583  10.543   3.196
68773SOL     OW 8215   3.358   0.012   1.498
68773SOL    HW1 8216   3.336   0.094   1.455
68773SOL    HW2 8217   3.453   0.003   1.484
68774SOL     OW 8218   1.010   5.503  13.128
68774SOL    HW1 8219   1.038   5.593  13.113
68774SOL    HW2 8220   0.916   5.505  13.111
68775SOL     OW 8221  13.890   7.605   1.106
68775SOL    HW1 8222  13.913   7.687   1.149
68775SOL    HW2 8223  13.934   7.609   1.021
68776SOL     OW 8224  13.549  10.818   5.768
68776SOL    HW1 8225  13.567  10.856   5.682
68776SOL    HW2 8226  13.461  10.847   5.789
68777SOL     OW 8227   6.211   2.512   6.726
68777SOL    HW1 8228   6.153   2.523   6.801
68777SOL    HW2 8229   6.166   2.557   6.654
68778SOL     OW 8230   1.506   6.932  10.438
68778SOL    HW1 8231   1.550   7.017  10.442
68778SOL    HW2 8232   1.420   6.951  10.400
68779SOL     OW 8233  10.295   4.394   5.230
68779SOL    HW1 8234  10.324   4.387   5.321
68779SOL    HW2 8235  10.292   4.303   5.199
68780SOL     OW 8236   5.571  13.602   0.257
68780SOL    HW1 8237   5.539  13.520   0.295
68780SOL    HW2 8238   5.497  13.635   0.206
68781SOL     OW 8239   7.117   7.188  14.209
68781SOL    HW1 8240   7.175   7.237  14.267
68781SOL    HW2 8241   7.174   7.160  14.137
68782SOL     OW 8242  11.444   8.645   2.235
68782SOL    HW1 8243  11.476   8.727   2.197
68782SOL    HW2 8244  11.417   8.669   2.324
68783SOL     OW 8245  12.836  11.699  12.571
68783SOL    HW1 8246  12.754  11.732  12.534
68783SOL    HW2 8247  12.861  11.763  12.636
68784SOL     OW 8248  11.418   6.470   3.666
68784SOL    HW1 8249  11.394   6.378   3.652
68784SOL    HW2 8250  11.377   6.517   3.593
68785SOL     OW 8251   8.631   0.193   8.760
68785SOL    HW1 8252   8.556   0.249   8.779
68785SOL    HW2 8253   8.634   0.131   8.833
68786SOL     OW 8254   7.367  13.538  10.128
68786SOL    HW1 8255   7.292  13.484  10.149
68786SOL    HW2 8256   7.434  13.513  10.193
68787SOL     OW 8257  14.856   1.729  12.925
68787SOL    HW1 8258  14.826   1.785  12.997
68787SOL    HW2 8259  14.828   1.775  12.846
68788SOL     OW 8260  14.224   0.503  13.095
68788SOL    HW1 8261  14.148   0.462  13.136
68788SOL    HW2 8262  14.291   0.434  13.095
68789SOL     OW 8263   3.471   6.009  10.048
68789SOL    HW1 8264   3.433   6.094  10.026
68789SOL    HW2 8265   3.481   5.964   9.964
68790SOL     OW 8266   4.318  12.267  11.177
68790SOL    HW1 8267   4.358  12.354  11.170
68790SOL    HW2 8268   4.293  12.259  11.269
68791SOL     OW 8269  11.979   1.698  11.506
68791SOL    HW1 8270  11.918   1.652  11.448
68791SOL    HW2 8271  11.927   1.768  11.544
68792SOL     OW 8272   7.782  13.750  14.363
68792SOL    HW1 8273   7.749  13.719  14.278
68792SOL    HW2 8274   7.704  13.757  14.418
68793SOL     OW 8275   7.545   0.389  13.859
68793SOL    HW1 8276   7.557   0.478  13.892
68793SOL    HW2 8277   7.456   0.365  13.885
68794SOL     OW 8278   6.542   0.184  10.801
68794SOL    HW1 8279   6.526   0.090  10.799
68794SOL    HW2 8280   6.604   0.199  10.729
68795SOL     OW 8281   7.958  10.463   9.197
68795SOL    HW1 8282   7.966  10.434   9.106
68795SOL    HW2 8283   7.871  10.433   9.224
68796SOL     OW 8284  11.087   2.391  11.530
68796SOL    HW1 8285  11.017   2.380  11.466
68796SOL    HW2 8286  11.053   2.456  11.592
68797SOL     OW 8287   0.046   6.174   0.836
68797SOL    HW1 8288   0.092   6.096   0.804
68797SOL    HW2 8289   0.112   6.243   0.833
68798SOL     OW 8290   3.695  11.857   6.784
68798SOL    HW1 8291   3.787  11.842   6.762
68798SOL    HW2 8292   3.648  11.849   6.700
68799SOL     OW 8293   8.062   9.144  10.825
68799SOL    HW1 8294   8.158   9.142  10.819
68799SOL    HW2 8295   8.041   9.237  10.835
68800SOL     OW 8296  11.122   6.924   4.975
68800SOL    HW1 8297  11.077   7.008   4.988
68800SOL    HW2 8298  11.074   6.882   4.904
68801SOL     OW 8299  14.874   1.626  13.287
68801SOL    HW1 8300  14.803   1.591  13.340
68801SOL    HW2 8301   0.053   1.550  13.265
68802SOL     OW 8302   3.803  14.537   0.741
68802SOL    HW1 8303   3.766  14.546   0.829
68802SOL    HW2 8304   3.790  14.445   0.719
68803SOL     OW 8305   5.270   5.587   6.868
68803SOL    HW1 8306   5.356   5.592   6.828
68803SOL    HW2 8307   5.227   5.669   6.842
68804SOL     OW 8308   7.064   2.374  14.135
68804SOL    HW1 8309   7.119   2.444  14.170
68804SOL    HW2 8310   6.982   2.418  14.111
68805SOL     OW 8311  12.870  13.257  11.749
68805SOL    HW1 8312  12.871  13.230  11.841
68805SOL    HW2 8313  12.782  13.235  11.719
68806SOL     OW 8314  13.775  14.305   1.336
68806SOL    HW1 8315  13.713  14.368   1.301
68806SOL    HW2 8316  13.804  14.255   1.260
68807SOL     OW 8317   5.016   5.617   1.251
68807SOL    HW1 8318   4.945   5.603   1.188
68807SOL    HW2 8319   4.976   5.668   1.321
68808SOL     OW 8320   4.469   2.782  11.543
68808SOL    HW1 8321   4.542   2.772  11.604
68808SOL    HW2 8322   4.498   2.851  11.483
68809SOL     OW 8323   7.626  10.278  10.439
68809SOL    HW1 8324   7.578  10.332  10.503
68809SOL    HW2 8325   7.615  10.324  10.356
68810SOL     OW 8326  12.594   4.443   2.777
68810SOL    HW1 8327  12.673   4.468   2.728
68810SOL    HW2 8328  12.622   4.442   2.869
68811SOL     OW 8329  12.730  12.566   4.585
68811SOL    HW1 8330  12.787  12.538   4.656
68811SOL    HW2 8331  12.765  12.651   4.558
68812SOL     OW 8332   4.970   9.106   7.254
68812SOL    HW1 8333   5.024   9.185   7.255
68812SOL    HW2 8334   4.975   9.072   7.344
68813SOL     OW 8335  12.562   0.276  14.751
68813SOL    HW1 8336  12.641   0.316  14.715
68813SOL    HW2 8337  12.549   0.321  14.835
68814SOL     OW 8338   7.808   3.540  10.598
68814SOL    HW1 8339   7.837   3.552  10.508
68814SOL    HW2 8340   7.870   3.592  10.650
68815SOL     OW 8341   1.292  10.701   9.683
68815SOL    HW1 8342   1.343  10.763   9.632
68815SOL    HW2 8343   1.228  10.755   9.730
68816SOL     OW 8344   8.559   3.528   8.392
68816SOL    HW1 8345   8.475   3.488   8.371
68816SOL    HW2 8346   8.539   3.620   8.405
68817SOL     OW 8347  12.767   6.037   1.291
68817SOL    HW1 8348  12.833   5.971   1.310
68817SOL    HW2 8349  12.734   6.014   1.204
68818SOL     OW 8350  12.060   6.066   0.910
68818SOL    HW1 8351  12.013   6.108   0.982
68818SOL    HW2 8352  12.143   6.113   0.905
68819SOL     OW 8353  10.739   1.428  11.982
68819SOL    HW1 8354  10.801   1.483  11.934
68819SOL    HW2 8355  10.706   1.366  11.917
68820SOL     OW 8356  14.712  12.137  13.331
68820SOL    HW1 8357  14.767  12.085  13.389
68820SOL    HW2 8358  14.698  12.080  13.255
68821SOL     OW 8359  11.108   8.799   2.278
68821SOL    HW1 8360  11.183   8.853   2.252
68821SOL    HW2 8361  11.115   8.721   2.223
68822SOL     OW 8362   7.918   8.239  12.206
68822SOL    HW1 8363   7.915   8.190  12.288
68822SOL    HW2 8364   8.009   8.232  12.177
68823SOL     OW 8365   5.009   4.251   4.391
68823SOL    HW1 8366   5.030   4.188   4.461
68823SOL    HW2 8367   4.916   4.271   4.404
68824SOL     OW 8368   4.536  10.042  11.428
68824SOL    HW1 8369   4.485   9.966  11.455
68824SOL    HW2 8370   4.589  10.010  11.355
68825SOL     OW 8371  12.801   3.636   6.336
68825SOL    HW1 8372  12.775   3.702   6.401
68825SOL    HW2 8373  12.738   3.565   6.348
68826SOL     OW 8374   5.060   5.099   0.002
68826SOL    HW1 8375   5.009   5.142  14.809
68826SOL    HW2 8376   5.146   5.085  14.837
68827SOL     OW 8377  11.427   4.949  12.378
68827SOL    HW1 8378  11.466   4.866  12.407
68827SOL    HW2 8379  11.356   4.923  12.320
68828SOL     OW 8380   7.501  10.330  12.645
68828SOL    HW1 8381   7.494  10.319  12.740
68828SOL    HW2 8382   7.410  10.337  12.615
68829SOL     OW 8383   9.205   9.930   5.470
68829SOL    HW1 8384   9.239   9.956   5.555
68829SOL    HW2 8385   9.250   9.849   5.450
68830SOL     OW 8386   2.613   4.259  14.376
68830SOL    HW1 8387   2.633   4.292  14.463
68830SOL    HW2 8388   2.531   4.303  14.351
68831SOL     OW 8389  12.176   3.937  12.246
68831SOL    HW1 8390  12.259   3.928  12.294
68831SOL    HW2 8391  12.198   3.988  12.168
68832SOL     OW 8392   7.844   3.169   4.370
68832SOL    HW1 8393   7.904   3.198   4.301
68832SOL    HW2 8394   7.799   3.249   4.397
68833SOL     OW 8395   2.111   6.143   7.960
68833SOL    HW1 8396   2.146   6.055   7.969
68833SOL    HW2 8397   2.101   6.174   8.050
68834SOL     OW 8398   3.621  12.886  12.104
68834SOL    HW1 8399   3.565  12.960  12.079
68834SOL    HW2 8400   3.566  12.809  12.094
68835SOL     OW 8401  13.876  10.844  14.600
68835SOL    HW1 8402  13.920  10.922  14.631
68835SOL    HW2 8403  13.943  10.775  14.603
68836SOL     OW 8404   6.328   5.480  14.710
68836SOL    HW1 8405   6.399   5.465  14.774
68836SOL    HW2 8406   6.322   5.575  14.703
68837SOL     OW 8407   8.705   9.217   2.881
68837SOL    HW1 8408   8.722   9.291   2.823
68837SOL    HW2 8409   8.791   9.188   2.910
68838SOL     OW 8410  10.702   2.296  12.782
68838SOL    HW1 8411  10.773   2.237  12.806
68838SOL    HW2 8412  10.700   2.362  12.852
68839SOL     OW 8413   7.870   7.257   8.102
68839SOL    HW1 8414   7.847   7.293   8.187
68839SOL    HW2 8415   7.859   7.162   8.112
68840SOL     OW 8416   4.174   1.844  12.884
68840SOL    HW1 8417   4.117   1.769  12.896
68840SOL    HW2 8418   4.172   1.861  12.790
68841SOL     OW 8419  12.308   2.178  13.126
68841SOL    HW1 8420  12.260   2.161  13.207
68841SOL    HW2 8421  12.314   2.093  13.083
68842SOL     OW 8422   1.827   7.291  14.610
68842SOL    HW1 8423   1.883   7.224  14.649
68842SOL    HW2 8424   1.738   7.260  14.624
68843SOL     OW 8425   5.791  12.893  11.446
68843SOL    HW1 8426   5.836  12.916  11.364
68843SOL    HW2 8427   5.703  12.929  11.436
68844SOL     OW 8428  10.870  13.880  12.716
68844SOL    HW1 8429  10.925  13.943  12.670
68844SOL    HW2 8430  10.866  13.805  12.657
68845SOL     OW 8431  12.384   8.700   4.768
68845SOL    HW1 8432  12.447   8.771   4.758
68845SOL    HW2 8433  12.316   8.719   4.703
68846SOL     OW 8434   9.062   5.879   5.864
68846SOL    HW1 8435   9.058   5.919   5.777
68846SOL    HW2 8436   9.010   5.799   5.855
68847SOL     OW 8437   7.544  10.318   6.799
68847SOL    HW1 8438   7.633  10.307   6.765
68847SOL    HW2 8439   7.531  10.413   6.801
68848SOL     OW 8440  11.558   6.501   9.108
68848SOL    HW1 8441  11.649   6.528   9.103
68848SOL    HW2 8442  11.517   6.535   9.029
68849SOL     OW 8443   5.052   7.922   1.283
68849SOL    HW1 8444   5.068   7.858   1.213
68849SOL    HW2 8445   5.127   7.980   1.281
68850SOL     OW 8446  13.267   8.270  10.718
68850SOL    HW1 8447  13.204   8.208  10.682
68850SOL    HW2 8448  13.334   8.216  10.758
68851SOL     OW 8449   6.447   4.008  10.761
68851SOL    HW1 8450   6.394   4.082  10.731
68851SOL    HW2 8451   6.510   4.046  10.822
68852SOL     OW 8452   2.934   0.130   1.972
68852SOL    HW1 8453   2.969   0.103   2.057
68852SOL    HW2 8454   3.012   0.155   1.922
68853SOL     OW 8455   2.718  10.024   5.529
68853SOL    HW1 8456   2.720  10.102   5.584
68853SOL    HW2 8457   2.804  10.022   5.487
68854SOL     OW 8458   6.648   5.717   3.270
68854SOL    HW1 8459   6.731   5.760   3.295
68854SOL    HW2 8460   6.665   5.681   3.183
68855SOL     OW 8461  10.626   9.859   0.267
68855SOL    HW1 8462  10.670   9.943   0.252
68855SOL    HW2 8463  10.533   9.881   0.273
68856SOL     OW 8464   0.009  13.322  13.644
68856SOL    HW1 8465  14.795  13.294  13.663
68856SOL    HW2 8466   0.013  13.413  13.675
68857SOL     OW 8467   9.194   7.772   1.186
68857SOL    HW1 8468   9.144   7.802   1.262
68857SOL    HW2 8469   9.162   7.682   1.171
68858SOL     OW 8470   4.410   8.146  13.086
68858SOL    HW1 8471   4.410   8.126  13.180
68858SOL    HW2 8472   4.499   8.175  13.067
68859SOL     OW 8473   8.685   2.287  13.306
68859SOL    HW1 8474   8.778   2.289  13.283
68859SOL    HW2 8475   8.684   2.294  13.402
68860SOL     OW 8476  10.035   4.388   9.830
68860SOL    HW1 8477  10.043   4.339   9.912
68860SOL    HW2 8478  10.124   4.415   9.809
68861SOL     OW 8479   1.062  11.518   4.735
68861SOL    HW1 8480   1.027  11.602   4.766
68861SOL    HW2 8481   1.061  11.526   4.639
68862SOL     OW 8482   1.172   8.512   4.932
68862SOL    HW1 8483   1.077   8.502   4.943
68862SOL    HW2 8484   1.208   8.427   4.958
68863SOL     OW 8485  10.476  10.338   3.980
68863SOL    HW1 8486  10.471  10.336   4.076
68863SOL    HW2 8487  10.420  10.412   3.955
68864SOL     OW 8488   5.854   4.730   4.824
68864SOL    HW1 8489   5.831   4.668   4.893
68864SOL    HW2 8490   5.795   4.708   4.752
68865SOL     OW 8491   3.309   6.825  13.487
68865SOL    HW1 8492   3.331   6.877  13.565
68865SOL    HW2 8493   3.230   6.866  13.452
68866SOL     OW 8494   3.615  14.492   4.814
68866SOL    HW1 8495   3.529  14.460   4.842
68866SOL    HW2 8496   3.672  14.416   4.820
68867SOL     OW 8497   4.449   1.477   3.948
68867SOL    HW1 8498   4.491   1.407   3.898
68867SOL    HW2 8499   4.358   1.477   3.918
68868SOL     OW 8500   0.916   1.665   0.868
68868SOL    HW1 8501   0.861   1.642   0.943
68868SOL    HW2 8502   0.938   1.582   0.826
68869SOL     OW 8503   5.295  13.498   5.735
68869SOL    HW1 8504   5.266  13.588   5.722
68869SOL    HW2 8505   5.216  13.445   5.723
68870SOL     OW 8506  13.664   9.374   5.255
68870SOL    HW1 8507  13.660   9.279   5.243
68870SOL    HW2 8508  13.576   9.398   5.284
68871SOL     OW 8509   9.895  13.315   9.584
68871SOL    HW1 8510   9.816  13.274   9.618
68871SOL    HW2 8511   9.868  13.357   9.503
68872SOL     OW 8512   8.586   4.936   5.524
68872SOL    HW1 8513   8.512   4.991   5.550
68872SOL    HW2 8514   8.636   4.923   5.605
68873SOL     OW 8515   4.843  13.145   8.302
68873SOL    HW1 8516   4.760  13.192   8.288
68873SOL    HW2 8517   4.907  13.195   8.252
68874SOL     OW 8518   9.720   5.194   5.601
68874SOL    HW1 8519   9.705   5.214   5.694
68874SOL    HW2 8520   9.634   5.167   5.568
68875SOL     OW 8521   9.940   8.591   2.398
68875SOL    HW1 8522  10.000   8.656   2.361
68875SOL    HW2 8523   9.995   8.535   2.452
68876SOL     OW 8524  12.784   8.581   3.282
68876SOL    HW1 8525  12.823   8.667   3.294
68876SOL    HW2 8526  12.850   8.520   3.314
68877SOL     OW 8527  11.201   4.003   4.598
68877SOL    HW1 8528  11.159   4.008   4.684
68877SOL    HW2 8529  11.294   3.991   4.617
68878SOL     OW 8530   0.609   5.762  11.471
68878SOL    HW1 8531   0.628   5.854  11.457
68878SOL    HW2 8532   0.526   5.761  11.520
68879SOL     OW 8533   6.492   4.612  14.580
68879SOL    HW1 8534   6.412   4.650  14.616
68879SOL    HW2 8535   6.561   4.675  14.604
68880SOL     OW 8536  13.527  12.943  12.728
68880SOL    HW1 8537  13.543  12.852  12.703
68880SOL    HW2 8538  13.436  12.943  12.760
68881SOL     OW 8539  13.744   3.733  13.759
68881SOL    HW1 8540  13.746   3.808  13.700
68881SOL    HW2 8541  13.820   3.681  13.734
68882SOL     OW 8542   9.694   7.882   6.449
68882SOL    HW1 8543   9.679   7.962   6.499
68882SOL    HW2 8544   9.610   7.866   6.406
68883SOL     OW 8545  13.206   5.336   2.725
68883SOL    HW1 8546  13.226   5.249   2.757
68883SOL    HW2 8547  13.118   5.328   2.686
68884SOL     OW 8548   6.255  13.654   8.020
68884SOL    HW1 8549   6.170  13.620   8.045
68884SOL    HW2 8550   6.314  13.625   8.090
68885SOL     OW 8551   7.454   7.046   7.345
68885SOL    HW1 8552   7.405   6.964   7.346
68885SOL    HW2 8553   7.467   7.067   7.437
68886SOL     OW 8554   2.219  12.127   6.130
68886SOL    HW1 8555   2.239  12.106   6.222
68886SOL    HW2 8556   2.280  12.198   6.108
68887SOL     OW 8557   7.534  10.024  13.005
68887SOL    HW1 8558   7.548  10.031  13.099
68887SOL    HW2 8559   7.601   9.963  12.975
68888SOL     OW 8560   8.855   0.469   6.975
68888SOL    HW1 8561   8.853   0.393   7.033
68888SOL    HW2 8562   8.910   0.442   6.901
68889SOL     OW 8563   1.335   2.989   0.814
68889SOL    HW1 8564   1.410   2.930   0.826
68889SOL    HW2 8565   1.362   3.071   0.857
68890SOL     OW 8566   5.743   9.268   7.187
68890SOL    HW1 8567   5.733   9.296   7.278
68890SOL    HW2 8568   5.804   9.331   7.149
68891SOL     OW 8569  11.712   4.457   4.909
68891SOL    HW1 8570  11.797   4.456   4.865
68891SOL    HW2 8571  11.730   4.494   4.995
68892SOL     OW 8572   9.893   9.370  11.362
68892SOL    HW1 8573   9.975   9.400  11.323
68892SOL    HW2 8574   9.846   9.450  11.386
68893SOL     OW 8575   9.762   0.772  13.546
68893SOL    HW1 8576   9.728   0.712  13.480
68893SOL    HW2 8577   9.832   0.819  13.501
68894SOL     OW 8578   3.695  14.286   3.146
68894SOL    HW1 8579   3.600  14.290   3.159
68894SOL    HW2 8580   3.731  14.289   3.235
68895SOL     OW 8581  13.425   2.649   5.544
68895SOL    HW1 8582  13.369   2.600   5.484
68895SOL    HW2 8583  13.428   2.595   5.623
68896SOL     OW 8584   4.567   0.633   3.698
68896SOL    HW1 8585   4.517   0.589   3.767
68896SOL    HW2 8586   4.501   0.682   3.649
68897SOL     OW 8587   1.375  14.116  13.824
68897SOL    HW1 8588   1.371  14.154  13.736
68897SOL    HW2 8589   1.293  14.145  13.865
68898SOL     OW 8590  11.203  11.377   4.405
68898SOL    HW1 8591  11.251  11.295   4.404
68898SOL    HW2 8592  11.137  11.367   4.336
68899SOL     OW 8593  14.175  12.326   2.806
68899SOL    HW1 8594  14.238  12.397   2.797
68899SOL    HW2 8595  14.223  12.257   2.852
68900SOL     OW 8596   2.214   6.413   9.984
68900SOL    HW1 8597   2.147   6.470  10.024
68900SOL    HW2 8598   2.297   6.457  10.002
68901SOL     OW 8599   5.766  14.806   7.050
68901SOL    HW1 8600   5.783   0.025   7.058
68901SOL    HW2 8601   5.819  14.766   7.119
68902SOL     OW 8602   3.059  12.398   5.452
68902SOL    HW1 8603   2.976  12.352   5.442
68902SOL    HW2 8604   3.092  12.368   5.537
68903SOL     OW 8605  10.726   2.542   5.691
68903SOL    HW1 8606  10.692   2.496   5.614
68903SOL    HW2 8607  10.682   2.499   5.765
68904SOL     OW 8608   0.202  12.453  14.052
68904SOL    HW1 8609   0.142  12.395  14.098
68904SOL    HW2 8610   0.145  12.511  14.002
68905SOL     OW 8611   9.220  13.406  13.851
68905SOL    HW1 8612   9.159  13.401  13.925
68905SOL    HW2 8613   9.188  13.340  13.789
68906SOL     OW 8614   9.955   6.982   8.211
68906SOL    HW1 8615   9.911   6.998   8.127
68906SOL    HW2 8616  10.035   6.935   8.188
68907SOL     OW 8617   7.012   5.348   0.743
68907SOL    HW1 8618   7.066   5.316   0.671
68907SOL    HW2 8619   7.046   5.304   0.821
68908SOL     OW 8620   9.533   0.933  12.616
68908SOL    HW1 8621   9.623   0.919  12.586
68908SOL    HW2 8622   9.542   0.977  12.700
68909SOL     OW 8623   2.388   2.617   8.782
68909SOL    HW1 8624   2.338   2.609   8.701
68909SOL    HW2 8625   2.322   2.630   8.850
68910SOL     OW 8626  14.789   2.771   1.906
68910SOL    HW1 8627  14.763   2.729   1.824
68910SOL    HW2 8628  14.721   2.748   1.969
68911SOL     OW 8629   3.114   1.137   2.039
68911SOL    HW1 8630   3.154   1.219   2.067
68911SOL    HW2 8631   3.047   1.118   2.105
68912SOL     OW 8632   1.540  13.548   0.061
68912SOL    HW1 8633   1.552  13.636   0.098
68912SOL    HW2 8634   1.454  13.551   0.019
68913SOL     OW 8635   3.234   8.601   1.369
68913SOL    HW1 8636   3.177   8.545   1.316
68913SOL    HW2 8637   3.272   8.663   1.306
68914SOL     OW 8638  10.760   6.334  13.295
68914SOL    HW1 8639  10.856   6.334  13.285
68914SOL    HW2 8640  10.728   6.289  13.217
68915SOL     OW 8641  11.784  12.189   3.835
68915SOL    HW1 8642  11.704  12.198   3.887
68915SOL    HW2 8643  11.752  12.168   3.747
68916SOL     OW 8644  12.043   5.059   8.096
68916SOL    HW1 8645  12.019   5.049   8.004
68916SOL    HW2 8646  11.967   5.103   8.136
68917SOL     OW 8647   8.520  12.142   6.684
68917SOL    HW1 8648   8.549  12.137   6.775
68917SOL    HW2 8649   8.583  12.201   6.642
68918SOL     OW 8650  14.532  12.874   2.345
68918SOL    HW1 8651  14.533  12.900   2.437
68918SOL    HW2 8652  14.611  12.821   2.334
68919SOL     OW 8653   3.164   5.783   5.716
68919SOL    HW1 8654   3.136   5.811   5.803
68919SOL    HW2 8655   3.087   5.742   5.677
68920SOL     OW 8656   9.923   2.624  10.244
68920SOL    HW1 8657   9.831   2.638  10.222
68920SOL    HW2 8658   9.922   2.555  10.311
68921SOL     OW 8659   5.771  13.769   2.276
68921SOL    HW1 8660   5.804  13.746   2.363
68921SOL    HW2 8661   5.850  13.791   2.226
68922SOL     OW 8662   3.847  11.727   4.854
68922SOL    HW1 8663   3.824  11.729   4.761
68922SOL    HW2 8664   3.939  11.699   4.855
68923SOL     OW 8665   8.202   3.797  11.785
68923SOL    HW1 8666   8.246   3.835  11.709
68923SOL    HW2 8667   8.247   3.836  11.860
68924SOL     OW 8668   1.388   0.802  11.408
68924SOL    HW1 8669   1.391   0.857  11.330
68924SOL    HW2 8670   1.314   0.744  11.393
68925SOL     OW 8671   2.323   0.114  14.219
68925SOL    HW1 8672   2.306   0.033  14.267
68925SOL    HW2 8673   2.382   0.164  14.276
68926SOL     OW 8674  11.396  11.223   1.909
68926SOL    HW1 8675  11.400  11.266   1.824
68926SOL    HW2 8676  11.488  11.208   1.932
68927SOL     OW 8677  11.591   9.055  13.844
68927SOL    HW1 8678  11.580   9.086  13.934
68927SOL    HW2 8679  11.628   9.130  13.798
68928SOL     OW 8680   6.090   2.209   0.066
68928SOL    HW1 8681   6.129   2.148   0.129
68928SOL    HW2 8682   6.017   2.161   0.027
68929SOL     OW 8683   4.820  14.798  14.313
68929SOL    HW1 8684   4.787  14.783  14.401
68929SOL    HW2 8685   4.742  14.815  14.260
68930SOL     OW 8686  11.289   0.311  11.854
68930SOL    HW1 8687  11.333   0.226  11.857
68930SOL    HW2 8688  11.224   0.302  11.784
68931SOL     OW 8689   0.806   5.797  14.500
68931SOL    HW1 8690   0.792   5.849  14.579
68931SOL    HW2 8691   0.830   5.861  14.433
68932SOL     OW 8692   9.939   0.050   2.704
68932SOL    HW1 8693  10.033   0.048   2.687
68932SOL    HW2 8694   9.930   0.020   2.795
68933SOL     OW 8695   5.231  12.795  13.791
68933SOL    HW1 8696   5.159  12.816  13.851
68933SOL    HW2 8697   5.309  12.830  13.834
68934SOL     OW 8698   1.439   0.848   1.273
68934SOL    HW1 8699   1.410   0.766   1.233
68934SOL    HW2 8700   1.495   0.889   1.206
68935SOL     OW 8701   2.057  11.728   6.447
68935SOL    HW1 8702   2.089  11.669   6.379
68935SOL    HW2 8703   1.996  11.675   6.498
68936SOL     OW 8704   4.462  10.252  13.659
68936SOL    HW1 8705   4.428  10.162  13.662
68936SOL    HW2 8706   4.469  10.278  13.750
68937SOL     OW 8707   9.377  12.218  14.800
68937SOL    HW1 8708   9.344  12.224  14.710
68937SOL    HW2 8709   9.463  12.175  14.791
68938SOL     OW 8710   7.399  14.267  13.560
68938SOL    HW1 8711   7.418  14.307  13.475
68938SOL    HW2 8712   7.349  14.188  13.539
68939SOL     OW 8713   5.032  13.738  14.264
68939SOL    HW1 8714   5.057  13.810  14.322
68939SOL    HW2 8715   5.094  13.742  14.191
68940SOL     OW 8716  13.894   5.320   4.121
68940SOL    HW1 8717  13.801   5.321   4.100
68940SOL    HW2 8718  13.918   5.228   4.124
68941SOL     OW 8719   8.755   4.524   1.884
68941SOL    HW1 8720   8.704   4.532   1.803
68941SOL    HW2 8721   8.775   4.614   1.908
68942SOL     OW 8722   2.638   3.694  10.609
68942SOL    HW1 8723   2.625   3.704  10.703
68942SOL    HW2 8724   2.568   3.747  10.570
68943SOL     OW 8725   1.435   9.187   1.174
68943SOL    HW1 8726   1.477   9.125   1.234
68943SOL    HW2 8727   1.507   9.222   1.121
68944SOL     OW 8728   1.526   1.472   3.374
68944SOL    HW1 8729   1.450   1.530   3.372
68944SOL    HW2 8730   1.573   1.497   3.454
68945SOL     OW 8731   6.700   2.865  12.771
68945SOL    HW1 8732   6.732   2.908  12.850
68945SOL    HW2 8733   6.775   2.817  12.737
68946SOL     OW 8734   0.640   2.263   6.342
68946SOL    HW1 8735   0.630   2.333   6.277
68946SOL    HW2 8736   0.723   2.283   6.386
68947SOL     OW 8737   5.802  10.326   1.821
68947SOL    HW1 8738   5.859  10.347   1.895
68947SOL    HW2 8739   5.766  10.410   1.793
68948SOL     OW 8740  14.089  11.858  10.832
68948SOL    HW1 8741  14.063  11.946  10.805
68948SOL    HW2 8742  14.105  11.865  10.926
68949SOL     OW 8743  13.229   9.880   9.315
68949SOL    HW1 8744  13.146   9.885   9.268
68949SOL    HW2 8745  13.286   9.826   9.260
68950SOL     OW 8746   2.841   0.822  11.614
68950SOL    HW1 8747   2.839   0.791  11.704
68950SOL    HW2 8748   2.853   0.917  11.622
68951SOL     OW 8749   9.100   7.202   7.868
68951SOL    HW1 8750   9.036   7.262   7.829
68951SOL    HW2 8751   9.134   7.250   7.943
68952SOL     OW 8752   5.547  14.727   8.279
68952SOL    HW1 8753   5.526  14.670   8.205
68952SOL    HW2 8754   5.469  14.782   8.289
68953SOL     OW 8755   8.983   3.402   9.983
68953SOL    HW1 8756   8.930   3.473   9.947
68953SOL    HW2 8757   9.001   3.344   9.908
68954SOL     OW 8758  13.899   5.567   5.079
68954SOL    HW1 8759  13.817   5.529   5.109
68954SOL    HW2 8760  13.873   5.632   5.014
68955SOL     OW 8761   5.756   5.494   0.175
68955SOL    HW1 8762   5.661   5.495   0.165
68955SOL    HW2 8763   5.785   5.581   0.149
68956SOL     OW 8764   6.207   6.721  12.825
68956SOL    HW1 8765   6.207   6.683  12.738
68956SOL    HW2 8766   6.300   6.728  12.848
68957SOL     OW 8767  13.375   4.497  13.977
68957SOL    HW1 8768  13.464   4.486  13.944
68957SOL    HW2 8769  13.379   4.578  14.029
68958SOL     OW 8770   9.220   2.418  14.425
68958SOL    HW1 8771   9.129   2.446  14.426
68958SOL    HW2 8772   9.257   2.455  14.506
68959SOL     OW 8773   2.930   2.542   6.706
68959SOL    HW1 8774   2.997   2.514   6.769
68959SOL    HW2 8775   2.860   2.476   6.715
68960SOL     OW 8776   0.952  11.216   3.462
68960SOL    HW1 8777   0.878  11.265   3.497
68960SOL    HW2 8778   1.029  11.267   3.486
68961SOL     OW 8779   1.570   5.501  14.217
68961SOL    HW1 8780   1.587   5.409  14.238
68961SOL    HW2 8781   1.523   5.499  14.134
68962SOL     OW 8782  12.938   1.751  14.471
68962SOL    HW1 8783  13.003   1.693  14.509
68962SOL    HW2 8784  12.862   1.695  14.454
68963SOL     OW 8785   5.454   7.948  14.456
68963SOL    HW1 8786   5.439   8.036  14.488
68963SOL    HW2 8787   5.412   7.891  14.520
68964SOL     OW 8788  10.307  11.755   9.084
68964SOL    HW1 8789  10.389  11.770   9.037
68964SOL    HW2 8790  10.309  11.663   9.107
68965SOL     OW 8791   7.651  11.842   0.508
68965SOL    HW1 8792   7.557  11.840   0.524
68965SOL    HW2 8793   7.684  11.909   0.568
68966SOL     OW 8794   0.961   2.904   9.634
68966SOL    HW1 8795   1.030   2.840   9.614
68966SOL    HW2 8796   0.932   2.881   9.722
68967SOL     OW 8797  11.987   4.161  12.288
68967SOL    HW1 8798  12.058   4.107  12.322
68967SOL    HW2 8799  12.022   4.249  12.284
68968SOL     OW 8800  12.209  12.879  11.792
68968SOL    HW1 8801  12.201  12.967  11.830
68968SOL    HW2 8802  12.142  12.828  11.838
68969SOL     OW 8803   1.766  11.417  11.921
68969SOL    HW1 8804   1.815  11.364  11.983
68969SOL    HW2 8805   1.783  11.507  11.947
68970SOL     OW 8806  10.912   4.415   1.368
68970SOL    HW1 8807  10.951   4.335   1.333
68970SOL    HW2 8808  10.828   4.422   1.324
68971SOL     OW 8809   9.242   9.339   6.230
68971SOL    HW1 8810   9.332   9.371   6.227
68971SOL    HW2 8811   9.239   9.280   6.304
68972SOL     OW 8812   6.107   6.192   8.545
68972SOL    HW1 8813   6.188   6.203   8.495
68972SOL    HW2 8814   6.120   6.244   8.624
68973SOL     OW 8815   0.107  11.878  13.774
68973SOL    HW1 8816   0.038  11.941  13.793
68973SOL    HW2 8817   0.084  11.801  13.826
68974SOL     OW 8818   9.030  14.624   1.913
68974SOL    HW1 8819   9.094  14.557   1.935
68974SOL    HW2 8820   8.985  14.591   1.835
68975SOL     OW 8821   0.828  14.557   9.490
68975SOL    HW1 8822   0.746  14.598   9.463
68975SOL    HW2 8823   0.806  14.466   9.506
68976SOL     OW 8824  10.280   0.651   3.182
68976SOL    HW1 8825  10.282   0.610   3.095
68976SOL    HW2 8826  10.362   0.624   3.223
68977SOL     OW 8827   0.287   8.757   3.435
68977SOL    HW1 8828   0.339   8.725   3.361
68977SOL    HW2 8829   0.199   8.769   3.398
68978SOL     OW 8830   8.863   1.178   1.741
68978SOL    HW1 8831   8.846   1.270   1.719
68978SOL    HW2 8832   8.941   1.180   1.796
68979SOL     OW 8833  14.007  11.603  10.883
68979SOL    HW1 8834  14.011  11.603  10.979
68979SOL    HW2 8835  14.024  11.693  10.858
68980SOL     OW 8836  12.562   2.313  13.080
68980SOL    HW1 8837  12.597   2.392  13.122
68980SOL    HW2 8838  12.506   2.274  13.147
68981SOL     OW 8839   1.180   5.434   0.509
68981SOL    HW1 8840   1.177   5.355   0.562
68981SOL    HW2 8841   1.184   5.506   0.573
68982SOL     OW 8842  12.518   4.452  11.614
68982SOL    HW1 8843  12.470   4.372  11.595
68982SOL    HW2 8844  12.568   4.433  11.693
68983SOL     OW 8845   9.407   4.409   5.626
68983SOL    HW1 8846   9.378   4.370   5.708
68983SOL    HW2 8847   9.334   4.394   5.566
68984SOL     OW 8848   2.698  11.812  10.549
68984SOL    HW1 8849   2.708  11.741  10.612
68984SOL    HW2 8850   2.604  11.830  10.547
68985SOL     OW 8851  12.334   5.438   3.627
68985SOL    HW1 8852  12.379   5.357   3.603
68985SOL    HW2 8853  12.301   5.422   3.716
68986SOL     OW 8854   6.423  10.135  11.305
68986SOL    HW1 8855   6.421  10.159  11.212
68986SOL    HW2 8856   6.513  10.154  11.332
68987SOL     OW 8857   9.898   5.256   3.472
68987SOL    HW1 8858   9.869   5.188   3.411
68987SOL    HW2 8859   9.914   5.210   3.554
68988SOL     OW 8860  14.433  14.290  14.719
68988SOL    HW1 8861  14.343  14.284  14.751
68988SOL    HW2 8862  14.430  14.249  14.632
68989SOL     OW 8863   9.349   6.043   0.735
68989SOL    HW1 8864   9.365   5.951   0.755
68989SOL    HW2 8865   9.350   6.087   0.820
68990SOL     OW 8866  13.018  12.597  11.630
68990SOL    HW1 8867  13.001  12.508  11.600
68990SOL    HW2 8868  12.952  12.650  11.585
68991SOL     OW 8869   4.214  11.051  11.387
68991SOL    HW1 8870   4.305  11.047  11.418
68991SOL    HW2 8871   4.178  11.130  11.428
68992SOL     OW 8872   6.746   6.649   8.196
68992SOL    HW1 8873   6.788   6.566   8.178
68992SOL    HW2 8874   6.673   6.628   8.254
68993SOL     OW 8875  12.790   2.664   1.699
68993SOL    HW1 8876  12.798   2.660   1.604
68993SOL    HW2 8877  12.881   2.664   1.731
68994SOL     OW 8878   3.086   4.235  13.357
68994SOL    HW1 8879   3.081   4.148  13.396
68994SOL    HW2 8880   2.999   4.250  13.319
68995SOL     OW 8881   2.294  13.671   3.696
68995SOL    HW1 8882   2.294  13.590   3.644
68995SOL    HW2 8883   2.202  13.692   3.708
68996SOL     OW 8884   3.837  14.644   8.878
68996SOL    HW1 8885   3.900  14.716   8.884
68996SOL    HW2 8886   3.764  14.681   8.829
68997SOL     OW 8887   9.703   2.625   7.191
68997SOL    HW1 8888   9.647   2.573   7.249
68997SOL    HW2 8889   9.725   2.566   7.119
68998SOL     OW 8890  12.390   4.164   6.202
68998SOL    HW1 8891  12.375   4.101   6.132
68998SOL    HW2 8892  12.483   4.186   6.195
68999SOL     OW 8893   5.589  12.989   7.560
68999SOL    HW1 8894   5.625  12.955   7.642
68999SOL    HW2 8895   5.664  12.988   7.499
69000SOL     OW 8896   5.282   5.919   2.158
69000SOL    HW1 8897   5.299   5.857   2.229
69000SOL    HW2 8898   5.186   5.921   2.150
69001SOL     OW 8899   3.200   2.810   5.458
69001SOL    HW1 8900   3.254   2.889   5.463
69001SOL    HW2 8901   3.218   2.763   5.539
69002SOL     OW 8902   8.758   1.300   9.969
69002SOL    HW1 8903   8.774   1.341  10.054
69002SOL    HW2 8904   8.706   1.363   9.921
69003SOL     OW 8905   8.826   6.940  12.458
69003SOL    HW1 8906   8.865   6.880  12.521
69003SOL    HW2 8907   8.884   6.937  12.382
69004SOL     OW 8908   0.621  12.908   6.145
69004SOL    HW1 8909   0.654  12.987   6.187
69004SOL    HW2 8910   0.526  12.912   6.158
69005SOL     OW 8911   9.233   8.337   9.263
69005SOL    HW1 8912   9.200   8.249   9.279
69005SOL    HW2 8913   9.328   8.327   9.257
69006SOL     OW 8914   6.576   8.411  14.613
69006SOL    HW1 8915   6.614   8.490  14.651
69006SOL    HW2 8916   6.634   8.341  14.642
69007SOL     OW 8917  12.433   7.740   0.053
69007SOL    HW1 8918  12.393   7.659   0.086
69007SOL    HW2 8919  12.359   7.789   0.016
69008SOL     OW 8920  10.109   0.243  12.835
69008SOL    HW1 8921  10.159   0.312  12.791
69008SOL    HW2 8922  10.027   0.286  12.861
69009SOL     OW 8923  10.152  12.054  12.333
69009SOL    HW1 8924  10.233  12.013  12.362
69009SOL    HW2 8925  10.083  12.003  12.376
69010SOL     OW 8926   1.342   0.348  14.823
69010SOL    HW1 8927   1.313   0.330  14.734
69010SOL    HW2 8928   1.433   0.317  14.825
69011SOL     OW 8929   1.596  12.598  13.812
69011SOL    HW1 8930   1.627  12.679  13.853
69011SOL    HW2 8931   1.506  12.588  13.842
69012SOL     OW 8932  10.890   8.979   4.426
69012SOL    HW1 8933  10.962   9.037   4.451
69012SOL    HW2 8934  10.899   8.969   4.331
69013SOL     OW 8935   2.554   9.060   9.852
69013SOL    HW1 8936   2.500   9.068   9.930
69013SOL    HW2 8937   2.602   9.143   9.847
69014SOL     OW 8938   2.783   8.329   3.441
69014SOL    HW1 8939   2.703   8.323   3.494
69014SOL    HW2 8940   2.829   8.406   3.476
69015SOL     OW 8941  10.784   9.732   7.502
69015SOL    HW1 8942  10.710   9.678   7.529
69015SOL    HW2 8943  10.775   9.812   7.554
69016SOL     OW 8944   7.777  10.421   4.632
69016SOL    HW1 8945   7.700  10.473   4.608
69016SOL    HW2 8946   7.779  10.351   4.567
69017SOL     OW 8947   0.549  12.270   8.902
69017SOL    HW1 8948   0.552  12.316   8.985
69017SOL    HW2 8949   0.483  12.201   8.914
69018SOL     OW 8950  13.596   8.385   5.810
69018SOL    HW1 8951  13.680   8.386   5.856
69018SOL    HW2 8952  13.533   8.354   5.876
69019SOL     OW 8953  13.207   8.396   7.877
69019SOL    HW1 8954  13.185   8.458   7.945
69019SOL    HW2 8955  13.170   8.433   7.797
69020SOL     OW 8956   5.070   8.102  14.855
69020SOL    HW1 8957   5.162   8.098   0.003
69020SOL    HW2 8958   5.036   8.014   0.001
69021SOL     OW 8959   2.485  13.736   2.166
69021SOL    HW1 8960   2.505  13.817   2.119
69021SOL    HW2 8961   2.442  13.765   2.247
69022SOL     OW 8962   4.545   0.721   3.412
69022SOL    HW1 8963   4.615   0.775   3.446
69022SOL    HW2 8964   4.506   0.773   3.342
69023SOL     OW 8965  10.198  10.026  13.461
69023SOL    HW1 8966  10.223  10.079  13.385
69023SOL    HW2 8967  10.154  10.088  13.519
69024SOL     OW 8968  10.034  12.460  10.149
69024SOL    HW1 8969  10.014  12.413  10.229
69024SOL    HW2 8970  10.030  12.553  10.174
69025SOL     OW 8971  11.745   1.567   7.554
69025SOL    HW1 8972  11.661   1.589   7.513
69025SOL    HW2 8973  11.789   1.510   7.490
69026SOL     OW 8974   6.103  13.957  13.401
69026SOL    HW1 8975   6.176  13.977  13.459
69026SOL    HW2 8976   6.106  14.024  13.333
69027SOL     OW 8977  12.121   0.419  10.558
69027SOL    HW1 8978  12.089   0.488  10.500
69027SOL    HW2 8979  12.061   0.346  10.544
69028SOL     OW 8980   4.402  12.811  10.409
69028SOL    HW1 8981   4.400  12.905  10.389
69028SOL    HW2 8982   4.454  12.805  10.489
69029SOL     OW 8983   2.775   7.641   4.427
69029SOL    HW1 8984   2.857   7.604   4.394
69029SOL    HW2 8985   2.722   7.565   4.449
69030SOL     OW 8986   3.395  12.091   9.985
69030SOL    HW1 8987   3.300  12.094   9.980
69030SOL    HW2 8988   3.415  11.999  10.002
69031SOL     OW 8989  13.390   1.517   7.033
69031SOL    HW1 8990  13.298   1.503   7.009
69031SOL    HW2 8991  13.419   1.433   7.068
69032SOL     OW 8992   4.517   9.195  11.160
69032SOL    HW1 8993   4.612   9.186  11.157
69032SOL    HW2 8994   4.484   9.114  11.122
69033SOL     OW 8995   0.190   0.578  12.287
69033SOL    HW1 8996   0.131   0.527  12.232
69033SOL    HW2 8997   0.272   0.529  12.286
69034SOL     OW 8998   2.777   3.148   3.779
69034SOL    HW1 8999   2.811   3.201   3.852
69034SOL    HW2 9000   2.710   3.203   3.739
69035SOL     OW 9001   9.132  12.420  10.116
69035SOL    HW1 9002   9.217  12.392  10.152
69035SOL    HW2 9003   9.075  12.343  10.128
69036SOL     OW 9004   7.631   1.042   3.441
69036SOL    HW1 9005   7.683   0.965   3.419
69036SOL    HW2 9006   7.654   1.061   3.532
69037SOL     OW 9007   2.482  12.002  14.649
69037SOL    HW1 9008   2.485  12.032  14.558
69037SOL    HW2 9009   2.543  12.060  14.695
69038SOL     OW 9010   3.029   0.544  11.908
69038SOL    HW1 9011   3.048   0.517  11.818
69038SOL    HW2 9012   2.948   0.595  11.901
69039SOL     OW 9013   0.017   9.330  11.951
69039SOL    HW1 9014  14.828   9.378  12.003
69039SOL    HW2 9015   0.096   9.329  12.004
69040SOL     OW 9016   5.913  14.498   4.706
69040SOL    HW1 9017   5.951  14.464   4.625
69040SOL    HW2 9018   5.981  14.555   4.743
69041SOL     OW 9019   7.702   6.494   8.681
69041SOL    HW1 9020   7.709   6.404   8.712
69041SOL    HW2 9021   7.692   6.546   8.761
69042SOL     OW 9022  13.742   3.302   7.937
69042SOL    HW1 9023  13.706   3.362   8.002
69042SOL    HW2 9024  13.718   3.341   7.853
69043SOL     OW 9025   6.094   7.007  10.841
69043SOL    HW1 9026   6.046   6.960  10.772
69043SOL    HW2 9027   6.108   6.942  10.909
69044SOL     OW 9028   9.500   8.492   0.899
69044SOL    HW1 9029   9.537   8.466   0.983
69044SOL    HW2 9030   9.405   8.488   0.913
69045SOL     OW 9031   5.276   0.611   6.586
69045SOL    HW1 9032   5.217   0.544   6.553
69045SOL    HW2 9033   5.322   0.643   6.509
69046SOL     OW 9034   9.629  13.049  10.737
69046SOL    HW1 9035   9.662  13.137  10.716
69046SOL    HW2 9036   9.651  13.037  10.829
69047SOL     OW 9037   9.231  11.495   5.916
69047SOL    HW1 9038   9.200  11.585   5.911
69047SOL    HW2 9039   9.316  11.496   5.872
69048SOL     OW 9040   7.846   1.147   3.759
69048SOL    HW1 9041   7.899   1.100   3.824
69048SOL    HW2 9042   7.888   1.128   3.675
69049SOL     OW 9043   1.197  12.485   4.956
69049SOL    HW1 9044   1.261  12.445   4.897
69049SOL    HW2 9045   1.178  12.417   5.021
69050SOL     OW 9046  12.232   5.217   9.215
69050SOL    HW1 9047  12.194   5.303   9.234
69050SOL    HW2 9048  12.303   5.235   9.153
69051SOL     OW 9049   7.699   5.786   3.854
69051SOL    HW1 9050   7.708   5.881   3.845
69051SOL    HW2 9051   7.700   5.771   3.949
69052SOL     OW 9052  11.823   1.847  11.699
69052SOL    HW1 9053  11.749   1.886  11.651
69052SOL    HW2 9054  11.784   1.812  11.779
69053SOL     OW 9055   2.006  13.499   2.914
69053SOL    HW1 9056   1.911  13.498   2.918
69053SOL    HW2 9057   2.027  13.451   2.833
69054SOL     OW 9058   4.060  14.028   2.007
69054SOL    HW1 9059   4.038  13.941   2.040
69054SOL    HW2 9060   4.045  14.087   2.081
69055SOL     OW 9061  10.285   0.622   1.740
69055SOL    HW1 9062  10.319   0.697   1.790
69055SOL    HW2 9063  10.287   0.652   1.649
69056SOL     OW 9064   0.483   4.517   1.741
69056SOL    HW1 9065   0.453   4.597   1.698
69056SOL    HW2 9066   0.466   4.447   1.678
69057SOL     OW 9067   2.545   4.805   7.590
69057SOL    HW1 9068   2.587   4.785   7.674
69057SOL    HW2 9069   2.487   4.879   7.609
69058SOL     OW 9070   0.554   1.712   3.536
69058SOL    HW1 9071   0.641   1.675   3.522
69058SOL    HW2 9072   0.568   1.782   3.600
69059SOL     OW 9073   9.730   4.934   1.453
69059SOL    HW1 9074   9.735   5.027   1.431
69059SOL    HW2 9075   9.788   4.923   1.528
69060SOL     OW 9076  11.129  11.655  12.500
69060SOL    HW1 9077  11.126  11.716  12.426
69060SOL    HW2 9078  11.175  11.704  12.568
69061SOL     OW 9079   2.818   1.316  11.280
69061SOL    HW1 9080   2.724   1.295  11.281
69061SOL    HW2 9081   2.821   1.408  11.307
69062SOL     OW 9082  11.296   9.479   7.912
69062SOL    HW1 9083  11.275   9.571   7.897
69062SOL    HW2 9084  11.365   9.459   7.850
69063SOL     OW 9085   0.441   4.801   1.638
69063SOL    HW1 9086   0.433   4.826   1.545
69063SOL    HW2 9087   0.501   4.865   1.675
69064SOL     OW 9088   9.889   3.993  12.821
69064SOL    HW1 9089   9.945   3.919  12.843
69064SOL    HW2 9090   9.840   3.964  12.744
69065SOL     OW 9091  12.126   4.063   0.631
69065SOL    HW1 9092  12.092   4.013   0.706
69065SOL    HW2 9093  12.049   4.082   0.578
69066SOL     OW 9094   7.622   8.317   1.041
69066SOL    HW1 9095   7.708   8.305   1.000
69066SOL    HW2 9096   7.591   8.401   1.009
69067SOL     OW 9097  11.381   1.856  10.346
69067SOL    HW1 9098  11.423   1.796  10.284
69067SOL    HW2 9099  11.307   1.806  10.382
69068SOL     OW 9100   1.995   6.698   8.088
69068SOL    HW1 9101   2.056   6.753   8.040
69068SOL    HW2 9102   1.963   6.635   8.023
69069SOL     OW 9103   3.058   2.717  13.645
69069SOL    HW1 9104   2.983   2.660  13.628
69069SOL    HW2 9105   3.134   2.659  13.642
69070SOL     OW 9106   4.193   9.787   2.291
69070SOL    HW1 9107   4.208   9.882   2.295
69070SOL    HW2 9108   4.147   9.767   2.372
69071SOL     OW 9109   5.135   0.737  11.520
69071SOL    HW1 9110   5.064   0.675  11.502
69071SOL    HW2 9111   5.208   0.705  11.466
69072SOL     OW 9112   0.054  12.667   7.841
69072SOL    HW1 9113   0.140  12.654   7.880
69072SOL    HW2 9114   0.006  12.719   7.905
69073SOL     OW 9115   3.922  13.892   6.519
69073SOL    HW1 9116   3.842  13.942   6.530
69073SOL    HW2 9117   3.893  13.801   6.511
69074SOL     OW 9118  12.408  13.831  12.849
69074SOL    HW1 9119  12.395  13.925  12.835
69074SOL    HW2 9120  12.447  13.825  12.936
69075SOL     OW 9121  10.411   7.375   8.033
69075SOL    HW1 9122  10.369   7.295   8.001
69075SOL    HW2 9123  10.457   7.410   7.956
69076SOL     OW 9124   5.021   1.533  11.110
69076SOL    HW1 9125   5.026   1.590  11.033
69076SOL    HW2 9126   5.021   1.444  11.074
69077SOL     OW 9127   6.452  12.030   8.480
69077SOL    HW1 9128   6.377  12.021   8.422
69077SOL    HW2 9129   6.520  12.070   8.426
69078SOL     OW 9130  10.255  12.010   3.730
69078SOL    HW1 9131  10.297  11.956   3.664
69078SOL    HW2 9132  10.220  12.085   3.681
69079SOL     OW 9133   2.713   9.464   9.216
69079SOL    HW1 9134   2.715   9.559   9.200
69079SOL    HW2 9135   2.737   9.425   9.132
69080SOL     OW 9136  11.808   6.187   0.055
69080SOL    HW1 9137  11.726   6.208   0.010
69080SOL    HW2 9138  11.781   6.142   0.135
69081SOL     OW 9139  13.719  14.626   4.847
69081SOL    HW1 9140  13.761  14.640   4.932
69081SOL    HW2 9141  13.734  14.708   4.799
69082SOL     OW 9142   3.206   9.994   5.547
69082SOL    HW1 9143   3.286  10.011   5.496
69082SOL    HW2 9144   3.224  10.030   5.633
69083SOL     OW 9145  14.096  13.271   9.170
69083SOL    HW1 9146  14.107  13.176   9.163
69083SOL    HW2 9147  14.031  13.283   9.239
69084SOL     OW 9148  12.357   7.308   3.396
69084SOL    HW1 9149  12.273   7.263   3.387
69084SOL    HW2 9150  12.340   7.376   3.461
69085SOL     OW 9151  13.973  10.227   2.637
69085SOL    HW1 9152  13.889  10.220   2.684
69085SOL    HW2 9153  13.997  10.137   2.617
69086SOL     OW 9154   1.472   6.074   5.927
69086SOL    HW1 9155   1.483   6.161   5.966
69086SOL    HW2 9156   1.406   6.031   5.982
69087SOL     OW 9157  14.774   5.063   0.338
69087SOL    HW1 9158  14.803   5.137   0.391
69087SOL    HW2 9159  14.684   5.084   0.313
69088SOL     OW 9160  13.716   1.162  12.713
69088SOL    HW1 9161  13.688   1.128  12.629
69088SOL    HW2 9162  13.732   1.255  12.697
69089SOL     OW 9163  12.136   8.394  12.268
69089SOL    HW1 9164  12.116   8.442  12.348
69089SOL    HW2 9165  12.068   8.419  12.206
69090SOL     OW 9166  13.997  10.440   9.505
69090SOL    HW1 9167  13.990  10.363   9.449
69090SOL    HW2 9168  13.907  10.470   9.515
69091SOL     OW 9169   6.456  14.776  11.304
69091SOL    HW1 9170   6.545  14.780  11.270
69091SOL    HW2 9171   6.447  14.854  11.358
69092SOL     OW 9172   1.515  11.074   1.869
69092SOL    HW1 9173   1.568  11.136   1.819
69092SOL    HW2 9174   1.563  11.064   1.952
69093SOL     OW 9175  14.435   8.990   0.361
69093SOL    HW1 9176  14.451   9.032   0.276
69093SOL    HW2 9177  14.460   8.899   0.347
69094SOL     OW 9178   6.370  11.912   3.265
69094SOL    HW1 9179   6.457  11.876   3.249
69094SOL    HW2 9180   6.354  11.896   3.358
69095SOL     OW 9181   4.131  14.564   0.508
69095SOL    HW1 9182   4.173  14.647   0.484
69095SOL    HW2 9183   4.054  14.559   0.452
69096SOL     OW 9184   0.526  11.642  11.160
69096SOL    HW1 9185   0.498  11.708  11.224
69096SOL    HW2 9186   0.617  11.664  11.140
69097SOL     OW 9187   0.195   4.249  11.054
69097SOL    HW1 9188   0.284   4.231  11.085
69097SOL    HW2 9189   0.203   4.256  10.959
69098SOL     OW 9190   6.490   6.767   8.587
69098SOL    HW1 9191   6.563   6.828   8.598
69098SOL    HW2 9192   6.523   6.701   8.526
69099SOL     OW 9193  12.412   0.600   2.365
69099SOL    HW1 9194  12.449   0.588   2.452
69099SOL    HW2 9195  12.409   0.512   2.327
69100SOL     OW 9196   2.763   4.709  13.892
69100SOL    HW1 9197   2.678   4.691  13.851
69100SOL    HW2 9198   2.743   4.776  13.957
69101SOL     OW 9199   6.711  10.833   4.240
69101SOL    HW1 9200   6.690  10.927   4.239
69101SOL    HW2 9201   6.761  10.819   4.159
69102SOL     OW 9202  13.599   4.382   0.094
69102SOL    HW1 9203  13.542   4.383   0.017
69102SOL    HW2 9204  13.615   4.289   0.110
69103SOL     OW 9205   0.557   8.181   8.038
69103SOL    HW1 9206   0.516   8.113   7.984
69103SOL    HW2 9207   0.550   8.148   8.128
69104SOL     OW 9208   7.394   2.402   8.423
69104SOL    HW1 9209   7.345   2.320   8.425
69104SOL    HW2 9210   7.366   2.449   8.502
69105SOL     OW 9211   2.957   7.695   5.925
69105SOL    HW1 9212   2.886   7.750   5.958
69105SOL    HW2 9213   3.033   7.719   5.979
69106SOL     OW 9214  12.424   4.414   1.822
69106SOL    HW1 9215  12.394   4.325   1.839
69106SOL    HW2 9216  12.363   4.470   1.870
69107SOL     OW 9217   7.516   3.935   1.803
69107SOL    HW1 9218   7.568   3.855   1.794
69107SOL    HW2 9219   7.436   3.907   1.847
69108SOL     OW 9220   5.785   0.728  10.227
69108SOL    HW1 9221   5.843   0.661  10.265
69108SOL    HW2 9222   5.718   0.740  10.294
69109SOL     OW 9223  12.167   2.198   0.392
69109SOL    HW1 9224  12.228   2.242   0.333
69109SOL    HW2 9225  12.105   2.153   0.334
69110SOL     OW 9226  14.151   5.908   8.089
69110SOL    HW1 9227  14.153   5.937   8.180
69110SOL    HW2 9228  14.240   5.881   8.070
69111SOL     OW 9229   0.231  13.498   2.437
69111SOL    HW1 9230   0.164  13.487   2.370
69111SOL    HW2 9231   0.306  13.450   2.405
69112SOL     OW 9232   0.375   2.103  13.522
69112SOL    HW1 9233   0.392   2.134  13.433
69112SOL    HW2 9234   0.432   2.158  13.577
69113SOL     OW 9235   9.496   9.392  12.679
69113SOL    HW1 9236   9.570   9.333  12.662
69113SOL    HW2 9237   9.521   9.438  12.759
69114SOL     OW 9238   7.839   0.598  10.552
69114SOL    HW1 9239   7.920   0.594  10.602
69114SOL    HW2 9240   7.816   0.691  10.552
69115SOL     OW 9241  11.908  12.277   6.264
69115SOL    HW1 9242  11.821  12.259   6.229
69115SOL    HW2 9243  11.967  12.221   6.214
69116SOL     OW 9244  12.958   3.747   6.678
69116SOL    HW1 9245  12.899   3.726   6.751
69116SOL    HW2 9246  13.010   3.667   6.667
69117SOL     OW 9247  10.707  12.583   9.973
69117SOL    HW1 9248  10.644  12.642  10.016
69117SOL    HW2 9249  10.662  12.554   9.893
69118SOL     OW 9250   7.534   8.799  10.920
69118SOL    HW1 9251   7.548   8.883  10.965
69118SOL    HW2 9252   7.439   8.793  10.910
69119SOL     OW 9253  13.225   3.499  13.641
69119SOL    HW1 9254  13.275   3.537  13.568
69119SOL    HW2 9255  13.275   3.523  13.719
69120SOL     OW 9256  14.011  14.288   5.280
69120SOL    HW1 9257  14.084  14.229   5.261
69120SOL    HW2 9258  13.997  14.336   5.198
69121SOL     OW 9259  14.833   1.981   0.877
69121SOL    HW1 9260   0.038   1.940   0.845
69121SOL    HW2 9261  14.790   1.913   0.928
69122SOL     OW 9262   9.024  11.939   6.395
69122SOL    HW1 9263   9.105  11.978   6.364
69122SOL    HW2 9264   9.011  11.975   6.482
69123SOL     OW 9265  11.485   6.967   8.672
69123SOL    HW1 9266  11.507   6.874   8.678
69123SOL    HW2 9267  11.475   6.995   8.763
69124SOL     OW 9268   4.947   6.374  14.371
69124SOL    HW1 9269   5.011   6.432  14.414
69124SOL    HW2 9270   5.001   6.311  14.322
69125SOL     OW 9271   3.478  10.986  10.155
69125SOL    HW1 9272   3.387  10.990  10.127
69125SOL    HW2 9273   3.483  11.042  10.232
69126SOL     OW 9274  13.129   7.825   5.962
69126SOL    HW1 9275  13.036   7.843   5.948
69126SOL    HW2 9276  13.159   7.787   5.879
69127SOL     OW 9277   7.338   2.879  10.747
69127SOL    HW1 9278   7.351   2.836  10.831
69127SOL    HW2 9279   7.355   2.811  10.682
69128SOL     OW 9280  13.963  14.343   2.296
69128SOL    HW1 9281  13.974  14.272   2.233
69128SOL    HW2 9282  13.886  14.390   2.265
69129SOL     OW 9283   8.138  11.828   8.580
69129SOL    HW1 9284   8.111  11.748   8.627
69129SOL    HW2 9285   8.227  11.809   8.551
69130SOL     OW 9286   0.450   1.210  13.959
69130SOL    HW1 9287   0.403   1.129  13.937
69130SOL    HW2 9288   0.436   1.266  13.883
69131SOL     OW 9289  14.488   4.280  12.012
69131SOL    HW1 9290  14.578   4.298  12.039
69131SOL    HW2 9291  14.470   4.343  11.942
69132SOL     OW 9292   9.198   4.862   7.580
69132SOL    HW1 9293   9.279   4.812   7.568
69132SOL    HW2 9294   9.223   4.953   7.563
69133SOL     OW 9295  10.234   6.591   8.928
69133SOL    HW1 9296  10.325   6.565   8.944
69133SOL    HW2 9297  10.184   6.510   8.931
69134SOL     OW 9298  10.233   2.726   5.907
69134SOL    HW1 9299  10.186   2.671   5.845
69134SOL    HW2 9300  10.302   2.669   5.942
69135SOL     OW 9301   9.589  10.177   8.410
69135SOL    HW1 9302   9.563  10.210   8.324
69135SOL    HW2 9303   9.673  10.134   8.395
69136SOL     OW 9304  12.405   2.782   5.690
69136SOL    HW1 9305  12.463   2.771   5.766
69136SOL    HW2 9306  12.327   2.824   5.725
69137SOL     OW 9307  12.659   0.112   7.819
69137SOL    HW1 9308  12.749   0.084   7.808
69137SOL    HW2 9309  12.659   0.163   7.900
69138SOL     OW 9310  12.651   2.059   8.492
69138SOL    HW1 9311  12.677   2.020   8.409
69138SOL    HW2 9312  12.579   2.005   8.523
69139SOL     OW 9313  11.300   2.125   4.469
69139SOL    HW1 9314  11.307   2.158   4.379
69139SOL    HW2 9315  11.220   2.073   4.469
69140SOL     OW 9316   1.676   2.615   5.114
69140SOL    HW1 9317   1.732   2.542   5.139
69140SOL    HW2 9318   1.730   2.669   5.056
69141SOL     OW 9319   8.631   4.985   4.636
69141SOL    HW1 9320   8.692   4.912   4.624
69141SOL    HW2 9321   8.544   4.947   4.620
69142SOL     OW 9322   6.650   0.428   7.859
69142SOL    HW1 9323   6.665   0.365   7.930
69142SOL    HW2 9324   6.579   0.389   7.808
69143SOL     OW 9325  10.308   4.677   5.869
69143SOL    HW1 9326  10.264   4.644   5.791
69143SOL    HW2 9327  10.284   4.614   5.938
69144SOL     OW 9328   8.444  13.131   5.105
69144SOL    HW1 9329   8.501  13.124   5.182
69144SOL    HW2 9330   8.365  13.083   5.129
69145SOL     OW 9331  11.919   5.133  12.581
69145SOL    HW1 9332  11.885   5.102  12.665
69145SOL    HW2 9333  11.972   5.209  12.603
69146SOL     OW 9334   8.071   7.004   3.931
69146SOL    HW1 9335   8.074   6.930   3.870
69146SOL    HW2 9336   8.077   7.082   3.875
69147SOL     OW 9337   6.644  10.510   8.684
69147SOL    HW1 9338   6.572  10.483   8.627
69147SOL    HW2 9339   6.607  10.580   8.738
69148SOL     OW 9340   8.562  10.165   9.228
69148SOL    HW1 9341   8.624  10.172   9.301
69148SOL    HW2 9342   8.485  10.122   9.266
69149SOL     OW 9343   2.480   5.873   4.815
69149SOL    HW1 9344   2.556   5.817   4.802
69149SOL    HW2 9345   2.517   5.960   4.829
69150SOL     OW 9346   1.239   6.739   2.817
69150SOL    HW1 9347   1.268   6.744   2.726
69150SOL    HW2 9348   1.204   6.650   2.825
69151SOL     OW 9349   6.551   6.855   9.602
69151SOL    HW1 9350   6.600   6.866   9.521
69151SOL    HW2 9351   6.464   6.829   9.574
69152SOL     OW 9352   5.515  11.285   3.183
69152SOL    HW1 9353   5.568  11.359   3.215
69152SOL    HW2 9354   5.425  11.315   3.192
69153SOL     OW 9355   5.490   2.002   4.989
69153SOL    HW1 9356   5.458   2.058   5.060
69153SOL    HW2 9357   5.492   2.058   4.912
69154SOL     OW 9358   8.168  12.778  10.140
69154SOL    HW1 9359   8.106  12.849  10.156
69154SOL    HW2 9360   8.249  12.806  10.182
69155SOL     OW 9361   0.144   6.071   8.362
69155SOL    HW1 9362   0.058   6.051   8.399
69155SOL    HW2 9363   0.126   6.140   8.297
69156SOL     OW 9364  13.487   1.665  11.751
69156SOL    HW1 9365  13.576   1.694  11.730
69156SOL    HW2 9366  13.485   1.573  11.724
69157SOL     OW 9367   1.141  10.676  14.849
69157SOL    HW1 9368   1.085  10.697  14.775
69157SOL    HW2 9369   1.083  10.678   0.050
69158SOL     OW 9370   2.082   4.763  13.541
69158SOL    HW1 9371   1.990   4.742  13.526
69158SOL    HW2 9372   2.081   4.852  13.577
69159SOL     OW 9373  11.360   9.519   3.481
69159SOL    HW1 9374  11.347   9.433   3.522
69159SOL    HW2 9375  11.373   9.499   3.388
69160SOL     OW 9376  13.350   8.171   7.871
69160SOL    HW1 9377  13.303   8.254   7.863
69160SOL    HW2 9378  13.331   8.124   7.790
69161SOL     OW 9379   4.269  12.624   5.415
69161SOL    HW1 9380   4.178  12.597   5.427
69161SOL    HW2 9381   4.286  12.684   5.487
69162SOL     OW 9382   1.917  12.918   5.795
69162SOL    HW1 9383   1.897  12.979   5.724
69162SOL    HW2 9384   1.856  12.943   5.865
69163SOL     OW 9385   8.680  14.725   3.364
69163SOL    HW1 9386   8.759  14.725   3.417
69163SOL    HW2 9387   8.614  14.681   3.418
69164SOL     OW 9388  10.181   7.448  13.116
69164SOL    HW1 9389  10.156   7.406  13.034
69164SOL    HW2 9390  10.119   7.415  13.181
69165SOL     OW 9391   0.845  12.124   7.595
69165SOL    HW1 9392   0.823  12.217   7.586
69165SOL    HW2 9393   0.887  12.118   7.681
69166SOL     OW 9394  11.558   5.419   9.253
69166SOL    HW1 9395  11.636   5.476   9.255
69166SOL    HW2 9396  11.566   5.371   9.171
69167SOL     OW 9397   4.778   6.236   9.434
69167SOL    HW1 9398   4.766   6.327   9.461
69167SOL    HW2 9399   4.868   6.232   9.401
69168SOL     OW 9400   9.879   9.383   2.566
69168SOL    HW1 9401   9.801   9.384   2.511
69168SOL    HW2 9402   9.853   9.429   2.645
69169SOL     OW 9403   8.542  11.242   5.916
69169SOL    HW1 9404   8.631  11.210   5.929
69169SOL    HW2 9405   8.498  11.228   6.000
69170SOL     OW 9406   3.309  10.837   2.872
69170SOL    HW1 9407   3.237  10.838   2.809
69170SOL    HW2 9408   3.276  10.787   2.946
69171SOL     OW 9409   3.857   4.979  11.632
69171SOL    HW1 9410   3.890   5.034  11.703
69171SOL    HW2 9411   3.884   5.024  11.552
69172SOL     OW 9412   9.316  12.119   8.050
69172SOL    HW1 9413   9.223  12.097   8.044
69172SOL    HW2 9414   9.335  12.118   8.144
69173SOL     OW 9415   6.359   7.638   7.643
69173SOL    HW1 9416   6.264   7.634   7.637
69173SOL    HW2 9417   6.379   7.600   7.729
69174SOL     OW 9418  12.568   7.380   5.988
69174SOL    HW1 9419  12.533   7.399   6.075
69174SOL    HW2 9420  12.544   7.457   5.936
69175SOL     OW 9421   3.992   4.825   2.670
69175SOL    HW1 9422   4.027   4.865   2.591
69175SOL    HW2 9423   4.069   4.805   2.723
69176SOL     OW 9424  13.657  14.787   9.131
69176SOL    HW1 9425  13.581  14.836   9.163
69176SOL    HW2 9426  13.622  14.700   9.112
69177SOL     OW 9427   0.305  10.535   4.093
69177SOL    HW1 9428   0.307  10.523   4.188
69177SOL    HW2 9429   0.291  10.447   4.058
69178SOL     OW 9430  11.948   1.433   4.033
69178SOL    HW1 9431  11.926   1.391   3.950
69178SOL    HW2 9432  11.905   1.379   4.099
69179SOL     OW 9433  10.283   1.669  10.617
69179SOL    HW1 9434  10.215   1.736  10.623
69179SOL    HW2 9435  10.288   1.632  10.705
69180SOL     OW 9436  12.326   5.290   4.360
69180SOL    HW1 9437  12.400   5.231   4.345
69180SOL    HW2 9438  12.357   5.375   4.330
69181SOL     OW 9439   7.977  12.452  11.152
69181SOL    HW1 9440   8.025  12.395  11.212
69181SOL    HW2 9441   7.942  12.521  11.208
69182SOL     OW 9442  13.806  11.960   3.449
69182SOL    HW1 9443  13.750  12.028   3.410
69182SOL    HW2 9444  13.757  11.930   3.525
69183SOL     OW 9445  10.992   6.263   8.236
69183SOL    HW1 9446  10.974   6.199   8.167
69183SOL    HW2 9447  11.087   6.260   8.247
69184SOL     OW 9448   9.423  14.401   9.285
69184SOL    HW1 9449   9.477  14.460   9.337
69184SOL    HW2 9450   9.342  14.391   9.336
69185SOL     OW 9451  10.697   6.406   0.208
69185SOL    HW1 9452  10.748   6.487   0.205
69185SOL    HW2 9453  10.727   6.357   0.131
69186SOL     OW 9454   5.685   1.936  14.699
69186SOL    HW1 9455   5.635   1.885  14.762
69186SOL    HW2 9456   5.718   1.872  14.636
69187SOL     OW 9457   8.405   0.351   9.166
69187SOL    HW1 9458   8.333   0.303   9.124
69187SOL    HW2 9459   8.480   0.335   9.108
69188SOL     OW 9460   3.853   3.078   0.627
69188SOL    HW1 9461   3.855   3.128   0.545
69188SOL    HW2 9462   3.785   3.013   0.614
69189SOL     OW 9463   4.383   5.460  13.790
69189SOL    HW1 9464   4.323   5.388  13.810
69189SOL    HW2 9465   4.371   5.522  13.861
69190SOL     OW 9466   6.117   3.981   1.555
69190SOL    HW1 9467   6.086   3.909   1.608
69190SOL    HW2 9468   6.081   3.965   1.468
69191SOL     OW 9469   9.498  14.612  13.508
69191SOL    HW1 9470   9.554  14.577  13.439
69191SOL    HW2 9471   9.536  14.697  13.529
69192SOL     OW 9472   5.431   2.659   6.464
69192SOL    HW1 9473   5.516   2.619   6.444
69192SOL    HW2 9474   5.387   2.596   6.520
69193SOL     OW 9475   1.328   7.495  10.939
69193SOL    HW1 9476   1.393   7.534  10.881
69193SOL    HW2 9477   1.365   7.410  10.964
69194SOL     OW 9478  11.323  14.033   1.302
69194SOL    HW1 9479  11.250  14.049   1.362
69194SOL    HW2 9480  11.401  14.044   1.356
69195SOL     OW 9481   1.359   9.611  14.402
69195SOL    HW1 9482   1.421   9.658  14.459
69195SOL    HW2 9483   1.273   9.640  14.432
69196SOL     OW 9484  11.784   3.980   1.262
69196SOL    HW1 9485  11.740   4.065   1.253
69196SOL    HW2 9486  11.718   3.923   1.301
69197SOL     OW 9487   6.548   1.234  12.624
69197SOL    HW1 9488   6.527   1.190  12.707
69197SOL    HW2 9489   6.515   1.174  12.557
69198SOL     OW 9490  10.063   6.055  11.034
69198SOL    HW1 9491  10.067   5.971  10.988
69198SOL    HW2 9492   9.998   6.105  10.985
69199SOL     OW 9493  14.143  11.572   8.478
69199SOL    HW1 9494  14.181  11.488   8.451
69199SOL    HW2 9495  14.096  11.603   8.400
69200SOL     OW 9496  13.892   5.235   3.535
69200SOL    HW1 9497  13.879   5.250   3.628
69200SOL    HW2 9498  13.930   5.147   3.530
69201SOL     OW 9499   3.466   3.032   3.320
69201SOL    HW1 9500   3.436   2.977   3.247
69201SOL    HW2 9501   3.560   3.015   3.325
69202SOL     OW 9502   2.430   8.908   0.699
69202SOL    HW1 9503   2.445   8.913   0.605
69202SOL    HW2 9504   2.374   8.832   0.710
69203SOL     OW 9505   3.916  10.068   9.114
69203SOL    HW1 9506   3.968  10.142   9.081
69203SOL    HW2 9507   3.842  10.062   9.054
69204SOL     OW 9508  11.358   9.332   8.120
69204SOL    HW1 9509  11.427   9.387   8.156
69204SOL    HW2 9510  11.316   9.386   8.054
69205SOL     OW 9511   8.876   5.642  14.439
69205SOL    HW1 9512   8.941   5.575  14.463
69205SOL    HW2 9513   8.829   5.603  14.366
69206SOL     OW 9514   7.630   8.248   8.647
69206SOL    HW1 9515   7.694   8.183   8.677
69206SOL    HW2 9516   7.604   8.294   8.727
69207SOL     OW 9517  11.703   4.177   0.879
69207SOL    HW1 9518  11.630   4.194   0.939
69207SOL    HW2 9519  11.677   4.096   0.834
69208SOL     OW 9520   7.506   6.466   0.187
69208SOL    HW1 9521   7.528   6.412   0.263
69208SOL    HW2 9522   7.411   6.458   0.179
69209SOL     OW 9523  13.133  10.209  10.246
69209SOL    HW1 9524  13.199  10.197  10.178
69209SOL    HW2 9525  13.180  10.254  10.317
69210SOL     OW 9526   6.825   5.150   1.794
69210SOL    HW1 9527   6.800   5.155   1.886
69210SOL    HW2 9528   6.851   5.058   1.782
69211SOL     OW 9529  11.231   0.416   7.733
69211SOL    HW1 9530  11.289   0.467   7.677
69211SOL    HW2 9531  11.145   0.423   7.691
69212SOL     OW 9532   8.580   0.936  14.498
69212SOL    HW1 9533   8.522   0.930  14.423
69212SOL    HW2 9534   8.571   1.027  14.528
69213SOL     OW 9535  11.881   0.285   5.377
69213SOL    HW1 9536  11.902   0.333   5.296
69213SOL    HW2 9537  11.897   0.194   5.355
69214SOL     OW 9538   1.201   6.437  12.733
69214SOL    HW1 9539   1.193   6.415  12.640
69214SOL    HW2 9540   1.283   6.396  12.761
69215SOL     OW 9541   6.528   9.868   6.394
69215SOL    HW1 9542   6.528   9.856   6.489
69215SOL    HW2 9543   6.440   9.842   6.366
69216SOL     OW 9544   8.065   7.055   1.366
69216SOL    HW1 9545   8.030   7.087   1.284
69216SOL    HW2 9546   8.013   7.099   1.434
69217SOL     OW 9547  10.594   5.707  10.989
69217SOL    HW1 9548  10.555   5.620  10.984
69217SOL    HW2 9549  10.553   5.755  10.916
69218SOL     OW 9550   9.819   1.279   6.260
69218SOL    HW1 9551   9.862   1.291   6.176
69218SOL    HW2 9552   9.725   1.290   6.241
69219SOL     OW 9553   7.961   2.056  10.515
69219SOL    HW1 9554   7.917   1.990  10.460
69219SOL    HW2 9555   8.054   2.036  10.505
69220SOL     OW 9556  12.478   3.533   8.718
69220SOL    HW1 9557  12.398   3.576   8.750
69220SOL    HW2 9558  12.539   3.537   8.792
69221SOL     OW 9559   9.335   1.782  10.539
69221SOL    HW1 9560   9.243   1.806  10.527
69221SOL    HW2 9561   9.366   1.758  10.452
69222SOL     OW 9562   5.040  10.156  13.348
69222SOL    HW1 9563   4.969  10.212  13.318
69222SOL    HW2 9564   5.064  10.104  13.271
69223SOL     OW 9565  13.582   1.228   6.238
69223SOL    HW1 9566  13.643   1.156   6.255
69223SOL    HW2 9567  13.629   1.307   6.264
69224SOL     OW 9568  12.673   3.586  13.311
69224SOL    HW1 9569  12.581   3.610  13.315
69224SOL    HW2 9570  12.711   3.647  13.247
69225SOL     OW 9571   6.610   7.040   6.529
69225SOL    HW1 9572   6.560   6.968   6.490
69225SOL    HW2 9573   6.545   7.107   6.550
69226SOL     OW 9574  10.642   9.255   7.797
69226SOL    HW1 9575  10.698   9.213   7.862
69226SOL    HW2 9576  10.689   9.333   7.771
69227SOL     OW 9577   0.681   0.247  14.751
69227SOL    HW1 9578   0.753   0.282  14.699
69227SOL    HW2 9579   0.673   0.156  14.725
69228SOL     OW 9580   8.964   0.181  13.064
69228SOL    HW1 9581   8.881   0.144  13.093
69228SOL    HW2 9582   8.975   0.260  13.117
69229SOL     OW 9583   2.302  14.274   1.915
69229SOL    HW1 9584   2.303  14.357   1.962
69229SOL    HW2 9585   2.223  14.278   1.860
69230SOL     OW 9586  14.460   6.706   1.095
69230SOL    HW1 9587  14.540   6.671   1.134
69230SOL    HW2 9588  14.417   6.629   1.056
69231SOL     OW 9589   4.578   3.150   0.448
69231SOL    HW1 9590   4.608   3.206   0.377
69231SOL    HW2 9591   4.557   3.210   0.520
69232SOL     OW 9592   3.216  10.518   2.024
69232SOL    HW1 9593   3.260  10.444   2.065
69232SOL    HW2 9594   3.230  10.507   1.931
69233SOL     OW 9595  14.665   1.715  12.261
69233SOL    HW1 9596  14.630   1.704  12.172
69233SOL    HW2 9597  14.697   1.628  12.285
69234SOL     OW 9598  11.084  12.970   5.324
69234SOL    HW1 9599  11.101  12.880   5.354
69234SOL    HW2 9600  11.168  12.999   5.289
69235SOL     OW 9601   5.007  10.805   4.969
69235SOL    HW1 9602   4.935  10.864   4.946
69235SOL    HW2 9603   5.001  10.795   5.064
69236SOL     OW 9604  10.785   6.596   2.979
69236SOL    HW1 9605  10.779   6.505   2.949
69236SOL    HW2 9606  10.771   6.648   2.900
69237SOL     OW 9607  14.175   6.777   5.461
69237SOL    HW1 9608  14.173   6.696   5.410
69237SOL    HW2 9609  14.084   6.792   5.485
69238SOL     OW 9610  11.883   4.223   7.893
69238SOL    HW1 9611  11.859   4.155   7.831
69238SOL    HW2 9612  11.914   4.175   7.970
69239SOL     OW 9613   7.133  11.237   4.673
69239SOL    HW1 9614   7.111  11.146   4.653
69239SOL    HW2 9615   7.222  11.233   4.709
69240SOL     OW 9616   5.445   7.379   0.851
69240SOL    HW1 9617   5.401   7.441   0.908
69240SOL    HW2 9618   5.460   7.301   0.905
69241SOL     OW 9619   0.730   2.662  10.678
69241SOL    HW1 9620   0.685   2.746  10.678
69241SOL    HW2 9621   0.745   2.642  10.586
69242SOL     OW 9622   8.088   7.946  11.540
69242SOL    HW1 9623   8.154   8.015  11.548
69242SOL    HW2 9624   8.033   7.956  11.617
69243SOL     OW 9625  11.304  13.081   0.588
69243SOL    HW1 9626  11.380  13.048   0.541
69243SOL    HW2 9627  11.295  13.172   0.559
69244SOL     OW 9628   1.230  13.103  13.782
69244SOL    HW1 9629   1.147  13.102  13.734
69244SOL    HW2 9630   1.293  13.061  13.722
69245SOL     OW 9631   0.003   8.501   0.901
69245SOL    HW1 9632  14.848   8.588   0.874
69245SOL    HW2 9633   0.033   8.513   0.991
69246SOL     OW 9634  12.123   1.715   7.142
69246SOL    HW1 9635  12.111   1.706   7.048
69246SOL    HW2 9636  12.217   1.729   7.153
69247SOL     OW 9637  10.072   7.640   0.236
69247SOL    HW1 9638  10.009   7.568   0.225
69247SOL    HW2 9639  10.090   7.640   0.330
69248SOL     OW 9640   5.665  11.063   5.722
69248SOL    HW1 9641   5.682  10.980   5.767
69248SOL    HW2 9642   5.573  11.082   5.741
69249SOL     OW 9643  10.104   8.391   8.970
69249SOL    HW1 9644  10.183   8.340   8.981
69249SOL    HW2 9645  10.037   8.342   9.018
69250SOL     OW 9646   2.949  10.918   4.021
69250SOL    HW1 9647   3.041  10.945   4.019
69250SOL    HW2 9648   2.947  10.842   4.079
69251SOL     OW 9649   1.572  13.180  12.962
69251SOL    HW1 9650   1.587  13.274  12.964
69251SOL    HW2 9651   1.623  13.145  13.035
69252SOL     OW 9652   6.762   7.703   1.275
69252SOL    HW1 9653   6.738   7.794   1.295
69252SOL    HW2 9654   6.685   7.666   1.232
69253SOL     OW 9655  13.957   0.505  11.510
69253SOL    HW1 9656  14.016   0.483  11.437
69253SOL    HW2 9657  14.015   0.510  11.586
69254SOL     OW 9658   8.360   2.994   9.263
69254SOL    HW1 9659   8.336   3.037   9.181
69254SOL    HW2 9660   8.292   3.020   9.325
69255SOL     OW 9661   6.881   1.344   1.564
69255SOL    HW1 9662   6.904   1.339   1.471
69255SOL    HW2 9663   6.876   1.438   1.582
69256SOL     OW 9664   9.266  13.152   6.183
69256SOL    HW1 9665   9.348  13.108   6.202
69256SOL    HW2 9666   9.254  13.142   6.088
69257SOL     OW 9667   3.237   5.512   0.515
69257SOL    HW1 9668   3.179   5.583   0.543
69257SOL    HW2 9669   3.232   5.448   0.586
69258SOL     OW 9670  10.886   0.569   8.874
69258SOL    HW1 9671  10.919   0.629   8.942
69258SOL    HW2 9672  10.964   0.548   8.822
69259SOL     OW 9673   7.767   1.339  14.650
69259SOL    HW1 9674   7.855   1.374  14.665
69259SOL    HW2 9675   7.782   1.259  14.599
69260SOL     OW 9676   2.183   7.757   8.621
69260SOL    HW1 9677   2.111   7.819   8.627
69260SOL    HW2 9678   2.164   7.704   8.544
69261SOL     OW 9679  13.948   4.113  10.684
69261SOL    HW1 9680  13.917   4.057  10.755
69261SOL    HW2 9681  13.998   4.055  10.627
69262SOL     OW 9682  10.814   3.366   5.425
69262SOL    HW1 9683  10.763   3.318   5.359
69262SOL    HW2 9684  10.805   3.315   5.505
69263SOL     OW 9685   5.564  10.925   1.814
69263SOL    HW1 9686   5.551  10.953   1.905
69263SOL    HW2 9687   5.638  10.864   1.818
69264SOL     OW 9688   3.780   0.245  14.589
69264SOL    HW1 9689   3.832   0.204  14.658
69264SOL    HW2 9690   3.844   0.283  14.529
69265SOL     OW 9691   1.797  11.750   4.507
69265SOL    HW1 9692   1.750  11.674   4.541
69265SOL    HW2 9693   1.745  11.778   4.431
69266SOL     OW 9694   8.979   3.302  14.020
69266SOL    HW1 9695   8.914   3.363  14.054
69266SOL    HW2 9696   8.929   3.241  13.965
69267SOL     OW 9697   1.801   3.009   0.942
69267SOL    HW1 9698   1.791   3.093   0.898
69267SOL    HW2 9699   1.751   3.018   1.023
69268SOL     OW 9700  11.385  13.333  13.190
69268SOL    HW1 9701  11.409  13.305  13.278
69268SOL    HW2 9702  11.439  13.410  13.173
69269SOL     OW 9703   2.636   8.540  14.292
69269SOL    HW1 9704   2.572   8.611  14.292
69269SOL    HW2 9705   2.606   8.481  14.362
69270SOL     OW 9706  14.054   1.127   6.193
69270SOL    HW1 9707  13.962   1.130   6.167
69270SOL    HW2 9708  14.067   1.204   6.248
69271SOL     OW 9709  11.737   0.864   8.497
69271SOL    HW1 9710  11.819   0.845   8.544
69271SOL    HW2 9711  11.717   0.955   8.520
69272SOL     OW 9712   0.890   6.425   8.856
69272SOL    HW1 9713   0.983   6.450   8.857
69272SOL    HW2 9714   0.891   6.331   8.836
69273SOL     OW 9715  11.911   6.298   5.862
69273SOL    HW1 9716  11.941   6.262   5.778
69273SOL    HW2 9717  11.889   6.221   5.915
69274SOL     OW 9718  13.484   7.485   7.957
69274SOL    HW1 9719  13.503   7.565   7.908
69274SOL    HW2 9720  13.515   7.414   7.900
69275SOL     OW 9721  11.309   2.838  12.301
69275SOL    HW1 9722  11.255   2.871  12.374
69275SOL    HW2 9723  11.301   2.743  12.308
69276SOL     OW 9724   5.231  13.354  10.507
69276SOL    HW1 9725   5.153  13.361  10.562
69276SOL    HW2 9726   5.199  13.368  10.418
69277SOL     OW 9727   1.512   6.625   1.184
69277SOL    HW1 9728   1.488   6.609   1.275
69277SOL    HW2 9729   1.606   6.643   1.187
69278SOL     OW 9730   7.846  12.537   6.132
69278SOL    HW1 9731   7.904  12.463   6.147
69278SOL    HW2 9732   7.767  12.499   6.095
69279SOL     OW 9733  13.299  13.323   1.928
69279SOL    HW1 9734  13.219  13.272   1.943
69279SOL    HW2 9735  13.323  13.356   2.014
69280SOL     OW 9736  12.948  12.193   5.855
69280SOL    HW1 9737  12.915  12.248   5.925
69280SOL    HW2 9738  12.884  12.122   5.848
69281SOL     OW 9739   2.566  12.810   2.277
69281SOL    HW1 9740   2.604  12.858   2.205
69281SOL    HW2 9741   2.507  12.747   2.235
69282SOL     OW 9742  10.963  11.445  10.386
69282SOL    HW1 9743  10.915  11.370  10.352
69282SOL    HW2 9744  10.979  11.500  10.309
69283SOL     OW 9745   4.309  10.329  13.320
69283SOL    HW1 9746   4.294  10.423  13.313
69283SOL    HW2 9747   4.403  10.318  13.305
69284SOL     OW 9748   1.437   7.418   1.704
69284SOL    HW1 9749   1.489   7.372   1.771
69284SOL    HW2 9750   1.428   7.507   1.737
69285SOL     OW 9751   4.846  14.805  13.688
69285SOL    HW1 9752   4.920  14.852  13.651
69285SOL    HW2 9753   4.801  14.870  13.743
69286SOL     OW 9754   8.714   6.981   1.646
69286SOL    HW1 9755   8.687   7.042   1.577
69286SOL    HW2 9756   8.807   6.966   1.629
69287SOL     OW 9757  11.320   6.312  12.538
69287SOL    HW1 9758  11.362   6.257  12.471
69287SOL    HW2 9759  11.248   6.355  12.492
69288SOL     OW 9760  13.259   2.129   3.312
69288SOL    HW1 9761  13.353   2.144   3.298
69288SOL    HW2 9762  13.219   2.146   3.227
69289SOL     OW 9763  10.124   4.850   8.278
69289SOL    HW1 9764  10.059   4.901   8.326
69289SOL    HW2 9765  10.101   4.863   8.186
69290SOL     OW 9766   3.449   4.817   7.259
69290SOL    HW1 9767   3.495   4.828   7.176
69290SOL    HW2 9768   3.472   4.728   7.287
69291SOL     OW 9769   7.360   7.852  14.321
69291SOL    HW1 9770   7.376   7.773  14.372
69291SOL    HW2 9771   7.435   7.858  14.261
69292SOL     OW 9772   4.838   9.175   3.330
69292SOL    HW1 9773   4.840   9.258   3.378
69292SOL    HW2 9774   4.771   9.123   3.375
69293SOL     OW 9775  14.276   3.538  12.465
69293SOL    HW1 9776  14.254   3.566  12.554
69293SOL    HW2 9777  14.289   3.444  12.472
69294SOL     OW 9778   2.475   1.343   9.992
69294SOL    HW1 9779   2.536   1.346   9.918
69294SOL    HW2 9780   2.531   1.327  10.068
69295SOL     OW 9781   7.803  11.059  13.871
69295SOL    HW1 9782   7.886  11.065  13.825
69295SOL    HW2 9783   7.741  11.105  13.815
69296SOL     OW 9784   0.681   7.013   5.961
69296SOL    HW1 9785   0.602   7.007   6.014
69296SOL    HW2 9786   0.701   7.107   5.957
69297SOL     OW 9787  11.722   8.117   1.387
69297SOL    HW1 9788  11.692   8.146   1.473
69297SOL    HW2 9789  11.762   8.032   1.403
69298SOL     OW 9790   8.748  10.967  13.064
69298SOL    HW1 9791   8.843  10.979  13.075
69298SOL    HW2 9792   8.712  11.055  13.069
69299SOL     OW 9793   8.663   7.451  13.843
69299SOL    HW1 9794   8.736   7.394  13.870
69299SOL    HW2 9795   8.606   7.393  13.793
69300SOL     OW 9796   8.211   8.122   0.775
69300SOL    HW1 9797   8.226   8.029   0.793
69300SOL    HW2 9798   8.297   8.163   0.790
69301SOL     OW 9799  12.542   9.722   0.275
69301SOL    HW1 9800  12.500   9.653   0.223
69301SOL    HW2 9801  12.538   9.691   0.365
69302SOL     OW 9802   5.069   8.304   2.705
69302SOL    HW1 9803   5.026   8.363   2.767
69302SOL    HW2 9804   5.146   8.352   2.675
69303SOL     OW 9805   9.665  12.930  14.090
69303SOL    HW1 9806   9.633  12.955  14.003
69303SOL    HW2 9807   9.735  12.993  14.109
69304SOL     OW 9808   8.198   8.854   2.854
69304SOL    HW1 9809   8.229   8.803   2.929
69304SOL    HW2 9810   8.249   8.823   2.780
69305SOL     OW 9811  12.143  10.754  13.741
69305SOL    HW1 9812  12.232  10.737  13.773
69305SOL    HW2 9813  12.096  10.672  13.756
69306SOL     OW 9814  11.321   8.567   3.422
69306SOL    HW1 9815  11.304   8.642   3.364
69306SOL    HW2 9816  11.247   8.508   3.408
69307SOL     OW 9817   4.463   6.144   5.615
69307SOL    HW1 9818   4.373   6.163   5.644
69307SOL    HW2 9819   4.503   6.100   5.690
69308SOL     OW 9820  12.285   3.848   0.884
69308SOL    HW1 9821  12.203   3.874   0.843
69308SOL    HW2 9822  12.292   3.905   0.961
69309SOL     OW 9823   7.276   5.878   2.952
69309SOL    HW1 9824   7.369   5.857   2.956
69309SOL    HW2 9825   7.233   5.805   2.997
69310SOL     OW 9826   6.571  13.347   2.514
69310SOL    HW1 9827   6.477  13.332   2.513
69310SOL    HW2 9828   6.605  13.286   2.579
69311SOL     OW 9829  10.772   1.377  13.773
69311SOL    HW1 9830  10.797   1.302  13.827
69311SOL    HW2 9831  10.820   1.365  13.691
69312SOL     OW 9832  12.588   8.295   0.708
69312SOL    HW1 9833  12.541   8.373   0.678
69312SOL    HW2 9834  12.523   8.225   0.706
69313SOL     OW 9835   4.539   4.509   6.859
69313SOL    HW1 9836   4.469   4.573   6.848
69313SOL    HW2 9837   4.551   4.502   6.954
69314SOL     OW 9838   0.958   0.443   9.575
69314SOL    HW1 9839   1.022   0.439   9.504
69314SOL    HW2 9840   0.929   0.534   9.577
69315SOL     OW 9841   1.582  12.098   5.650
69315SOL    HW1 9842   1.656  12.043   5.624
69315SOL    HW2 9843   1.620  12.185   5.665
69316SOL     OW 9844  10.734  10.381   2.631
69316SOL    HW1 9845  10.717  10.291   2.660
69316SOL    HW2 9846  10.773  10.371   2.545
69317SOL     OW 9847   3.692   7.082  14.470
69317SOL    HW1 9848   3.686   7.136  14.391
69317SOL    HW2 9849   3.786   7.067  14.482
69318SOL     OW 9850  11.391   5.642   9.379
69318SOL    HW1 9851  11.445   5.573   9.340
69318SOL    HW2 9852  11.334   5.671   9.308
69319SOL     OW 9853   1.543  10.476  10.283
69319SOL    HW1 9854   1.623  10.432  10.311
69319SOL    HW2 9855   1.477  10.450  10.347
69320SOL     OW 9856   8.504   9.952   8.707
69320SOL    HW1 9857   8.442   9.998   8.763
69320SOL    HW2 9858   8.493   9.859   8.730
69321SOL     OW 9859   0.625   8.220  13.616
69321SOL    HW1 9860   0.594   8.309  13.601
69321SOL    HW2 9861   0.633   8.182  13.529
69322SOL     OW 9862  12.686   9.011  11.465
69322SOL    HW1 9863  12.704   9.087  11.410
69322SOL    HW2 9864  12.653   8.944  11.405
69323SOL     OW 9865  13.188   7.333   6.412
69323SOL    HW1 9866  13.283   7.323   6.407
69323SOL    HW2 9867  13.158   7.254   6.457
69324SOL     OW 9868   7.493   0.184   3.332
69324SOL    HW1 9869   7.552   0.123   3.287
69324SOL    HW2 9870   7.551   0.232   3.392
69325SOL     OW 9871   0.436  10.841   3.712
69325SOL    HW1 9872   0.366  10.830   3.648
69325SOL    HW2 9873   0.508  10.787   3.679
69326SOL     OW 9874   8.757   3.947   4.509
69326SOL    HW1 9875   8.680   3.897   4.484
69326SOL    HW2 9876   8.826   3.915   4.451
69327SOL     OW 9877  13.303  12.687  13.894
69327SOL    HW1 9878  13.393  12.664  13.871
69327SOL    HW2 9879  13.309  12.723  13.983
69328SOL     OW 9880  12.175  13.640  11.074
69328SOL    HW1 9881  12.255  13.651  11.022
69328SOL    HW2 9882  12.180  13.709  11.140
69329SOL     OW 9883   8.258   8.071   7.058
69329SOL    HW1 9884   8.312   7.997   7.032
69329SOL    HW2 9885   8.245   8.060   7.152
69330SOL     OW 9886  12.234   2.481   3.913
69330SOL    HW1 9887  12.299   2.413   3.894
69330SOL    HW2 9888  12.221   2.476   4.008
69331SOL     OW 9889  13.461   8.575  14.742
69331SOL    HW1 9890  13.401   8.512  14.702
69331SOL    HW2 9891  13.455   8.652  14.686
69332SOL     OW 9892   7.447   5.518   7.744
69332SOL    HW1 9893   7.447   5.427   7.714
69332SOL    HW2 9894   7.527   5.526   7.796
69333SOL     OW 9895   7.841  14.422  11.916
69333SOL    HW1 9896   7.925  14.376  11.922
69333SOL    HW2 9897   7.793  14.375  11.848
69334SOL     OW 9898   5.818  14.376   7.687
69334SOL    HW1 9899   5.769  14.367   7.606
69334SOL    HW2 9900   5.760  14.340   7.754
69335SOL     OW 9901   7.216   7.266   6.649
69335SOL    HW1 9902   7.212   7.261   6.745
69335SOL    HW2 9903   7.270   7.343   6.631
69336SOL     OW 9904   6.697  14.708  12.598
69336SOL    HW1 9905   6.681  14.637  12.659
69336SOL    HW2 9906   6.677  14.671  12.512
69337SOL     OW 9907  14.742   4.826   3.123
69337SOL    HW1 9908  14.775   4.736   3.128
69337SOL    HW2 9909  14.804   4.872   3.067
69338SOL     OW 9910   7.614  13.156   1.458
69338SOL    HW1 9911   7.533  13.110   1.478
69338SOL    HW2 9912   7.683  13.099   1.491
69339SOL     OW 9913   4.158  10.441   4.871
69339SOL    HW1 9914   4.168  10.525   4.826
69339SOL    HW2 9915   4.176  10.461   4.963
69340SOL     OW 9916   2.897   4.462   2.602
69340SOL    HW1 9917   2.940   4.543   2.575
69340SOL    HW2 9918   2.957   4.393   2.575
69341SOL     OW 9919  12.744   0.955   3.149
69341SOL    HW1 9920  12.822   0.927   3.099
69341SOL    HW2 9921  12.693   0.874   3.159
69342SOL     OW 9922   9.861   4.915  11.412
69342SOL    HW1 9923   9.919   4.870  11.351
69342SOL    HW2 9924   9.911   4.989  11.444
69343SOL     OW 9925  12.883   5.743  14.362
69343SOL    HW1 9926  12.804   5.753  14.415
69343SOL    HW2 9927  12.852   5.736  14.272
69344SOL     OW 9928   9.548   3.095  11.951
69344SOL    HW1 9929   9.597   3.044  12.015
69344SOL    HW2 9930   9.458   3.092  11.983
69345SOL     OW 9931   9.025   2.133  14.366
69345SOL    HW1 9932   9.004   2.044  14.394
69345SOL    HW2 9933   9.110   2.152  14.406
69346SOL     OW 9934   1.007   4.825   0.386
69346SOL    HW1 9935   1.088   4.876   0.376
69346SOL    HW2 9936   1.037   4.737   0.409
69347SOL     OW 9937  14.855   3.080  14.342
69347SOL    HW1 9938   0.048   3.020  14.309
69347SOL    HW2 9939  14.774   3.029  14.336
69348SOL     OW 9940   1.949   1.296   4.575
69348SOL    HW1 9941   1.921   1.254   4.493
69348SOL    HW2 9942   2.035   1.258   4.592
69349SOL     OW 9943  13.407   9.435   5.336
69349SOL    HW1 9944  13.411   9.485   5.418
69349SOL    HW2 9945  13.322   9.391   5.339
69350SOL     OW 9946   6.739   8.918   7.556
69350SOL    HW1 9947   6.777   8.993   7.510
69350SOL    HW2 9948   6.809   8.852   7.554
69351SOL     OW 9949  12.970   8.659   0.186
69351SOL    HW1 9950  12.932   8.579   0.150
69351SOL    HW2 9951  13.055   8.633   0.221
69352SOL     OW 9952   9.192   3.985   5.188
69352SOL    HW1 9953   9.257   4.032   5.241
69352SOL    HW2 9954   9.245   3.932   5.128
69353SOL     OW 9955  10.684  12.114  12.395
69353SOL    HW1 9956  10.730  12.174  12.336
69353SOL    HW2 9957  10.751  12.085  12.457
69354SOL     OW 9958   5.145  11.289   1.363
69354SOL    HW1 9959   5.238  11.310   1.353
69354SOL    HW2 9960   5.118  11.337   1.441
69355SOL     OW 9961   1.076  13.506   3.769
69355SOL    HW1 9962   1.077  13.590   3.723
69355SOL    HW2 9963   1.166  13.494   3.799
69356SOL     OW 9964   2.221  12.150   6.625
69356SOL    HW1 9965   2.160  12.076   6.629
69356SOL    HW2 9966   2.167  12.227   6.638
69357SOL     OW 9967  10.873   0.703   4.698
69357SOL    HW1 9968  10.954   0.680   4.744
69357SOL    HW2 9969  10.893   0.787   4.655
69358SOL     OW 9970   6.802  14.624   7.049
69358SOL    HW1 9971   6.897  14.640   7.053
69358SOL    HW2 9972   6.794  14.530   7.035
69359SOL     OW 9973   6.092   2.168  14.183
69359SOL    HW1 9974   6.093   2.252  14.137
69359SOL    HW2 9975   6.166   2.120  14.146
69360SOL     OW 9976  10.575  11.780   7.870
69360SOL    HW1 9977  10.651  11.745   7.916
69360SOL    HW2 9978  10.610  11.851   7.816
69361SOL     OW 9979   1.988   3.759   0.897
69361SOL    HW1 9980   2.001   3.699   0.971
69361SOL    HW2 9981   2.076   3.782   0.869
69362SOL     OW 9982   7.323   1.602  10.059
69362SOL    HW1 9983   7.292   1.513  10.043
69362SOL    HW2 9984   7.336   1.639   9.971
69363SOL     OW 9985   2.999   2.020  14.108
69363SOL    HW1 9986   3.068   1.969  14.152
69363SOL    HW2 9987   3.006   1.996  14.016
69364SOL     OW 9988  11.007   1.280   1.841
69364SOL    HW1 9989  10.935   1.224   1.870
69364SOL    HW2 9990  10.995   1.361   1.890
69365SOL     OW 9991   0.586   4.115   2.077
69365SOL    HW1 9992   0.601   4.042   2.016
69365SOL    HW2 9993   0.565   4.073   2.160
69366SOL     OW 9994   1.638   5.824   8.353
69366SOL    HW1 9995   1.655   5.828   8.259
69366SOL    HW2 9996   1.553   5.779   8.361
69367SOL     OW 9997  12.361  13.414   2.283
69367SOL    HW1 9998  12.360  13.364   2.364
69367SOL    HW2 9999  12.429  13.480   2.296
69368SOL     OW10000   3.086  10.235  13.325
69368SOL    HW110001   3.167  10.284  13.339
69368SOL    HW210002   3.113  10.144  13.319
69369SOL     OW10003  12.069   6.094   2.105
69369SOL    HW110004  12.112   6.146   2.037
69369SOL    HW210005  12.129   6.098   2.180
69370SOL     OW10006   8.539   3.971  11.441
69370SOL    HW110007   8.563   4.062  11.460
69370SOL    HW210008   8.611   3.938  11.388
69371SOL     OW10009  11.540   8.118  12.251
69371SOL    HW110010  11.456   8.143  12.212
69371SOL    HW210011  11.583   8.066  12.183
69372SOL     OW10012   5.782   5.664   7.229
69372SOL    HW110013   5.795   5.737   7.169
69372SOL    HW210014   5.728   5.700   7.299
69373SOL     OW10015  12.367   8.670  13.676
69373SOL    HW110016  12.325   8.755  13.666
69373SOL    HW210017  12.307   8.620  13.732
69374SOL     OW10018   3.816  10.473   9.661
69374SOL    HW110019   3.878  10.512   9.600
69374SOL    HW210020   3.853  10.490   9.747
69375SOL     OW10021   4.688   7.664  11.856
69375SOL    HW110022   4.691   7.740  11.799
69375SOL    HW210023   4.625   7.688  11.925
69376SOL     OW10024   9.814   5.748   3.695
69376SOL    HW110025   9.832   5.670   3.748
69376SOL    HW210026   9.720   5.762   3.705
69377SOL     OW10027  10.042   6.773  14.470
69377SOL    HW110028   9.956   6.782  14.510
69377SOL    HW210029  10.025   6.735  14.384
69378SOL     OW10030   7.795   0.108  12.491
69378SOL    HW110031   7.794   0.176  12.558
69378SOL    HW210032   7.879   0.064  12.503
69379SOL     OW10033  14.078   2.057   5.656
69379SOL    HW110034  14.062   2.075   5.563
69379SOL    HW210035  14.068   1.962   5.664
69380SOL     OW10036   9.491  11.276  11.768
69380SOL    HW110037   9.468  11.220  11.694
69380SOL    HW210038   9.521  11.357  11.727
69381SOL     OW10039   0.323  14.749  14.728
69381SOL    HW110040   0.401  14.703  14.696
69381SOL    HW210041   0.356  14.835  14.756
69382SOL     OW10042   9.740   0.914   4.380
69382SOL    HW110043   9.754   0.908   4.474
69382SOL    HW210044   9.684   0.991   4.368
69383SOL     OW10045  11.112   2.678   1.745
69383SOL    HW110046  11.018   2.687   1.727
69383SOL    HW210047  11.117   2.611   1.813
69384SOL     OW10048   6.456   2.786  14.738
69384SOL    HW110049   6.394   2.774  14.810
69384SOL    HW210050   6.480   2.878  14.741
69385SOL     OW10051   4.485   2.505   9.295
69385SOL    HW110052   4.523   2.461   9.220
69385SOL    HW210053   4.493   2.599   9.275
69386SOL     OW10054   3.411  14.415   8.367
69386SOL    HW110055   3.344  14.367   8.415
69386SOL    HW210056   3.445  14.478   8.431
69387SOL     OW10057  10.733  11.123   5.023
69387SOL    HW110058  10.732  11.044   4.969
69387SOL    HW210059  10.823  11.155   5.018
69388SOL     OW10060  10.439   1.168  12.606
69388SOL    HW110061  10.356   1.129  12.578
69388SOL    HW210062  10.495   1.093  12.628
69389SOL     OW10063   3.842   8.107   9.142
69389SOL    HW110064   3.834   8.181   9.080
69389SOL    HW210065   3.854   8.149   9.227
69390SOL     OW10066  12.279   4.282   7.407
69390SOL    HW110067  12.211   4.222   7.436
69390SOL    HW210068  12.304   4.250   7.320
69391SOL     OW10069   6.545   4.104   4.524
69391SOL    HW110070   6.597   4.184   4.524
69391SOL    HW210071   6.589   4.046   4.586
69392SOL     OW10072   0.043  12.274   2.010
69392SOL    HW110073  14.831  12.258   1.973
69392SOL    HW210074   0.103  12.249   1.941
69393SOL     OW10075   0.674  11.436   1.768
69393SOL    HW110076   0.761  11.466   1.795
69393SOL    HW210077   0.671  11.344   1.791
69394SOL     OW10078   5.543  12.155   1.001
69394SOL    HW110079   5.550  12.243   0.964
69394SOL    HW210080   5.467  12.116   0.957
69395SOL     OW10081   6.803  13.621   4.126
69395SOL    HW110082   6.723  13.577   4.156
69395SOL    HW210083   6.781  13.654   4.039
69396SOL     OW10084   2.950   3.857   3.195
69396SOL    HW110085   3.039   3.852   3.161
69396SOL    HW210086   2.961   3.870   3.290
69397SOL     OW10087   2.814  11.378   5.932
69397SOL    HW110088   2.807  11.415   6.020
69397SOL    HW210089   2.730  11.336   5.917
69398SOL     OW10090  11.216   0.759  12.722
69398SOL    HW110091  11.241   0.810  12.799
69398SOL    HW210092  11.193   0.824  12.656
69399SOL     OW10093   6.224   5.209  14.677
69399SOL    HW110094   6.148   5.185  14.730
69399SOL    HW210095   6.248   5.296  14.706
69400SOL     OW10096  13.886  11.711  10.352
69400SOL    HW110097  13.906  11.728  10.260
69400SOL    HW210098  13.916  11.789  10.399
69401SOL     OW10099   3.440   7.130   9.599
69401SOL    HW110100   3.531   7.145   9.625
69401SOL    HW210101   3.413   7.213   9.559
69402SOL     OW10102   6.992   8.249   9.275
69402SOL    HW110103   7.009   8.342   9.288
69402SOL    HW210104   6.925   8.228   9.340
69403SOL     OW10105   0.168  12.205  13.207
69403SOL    HW110106   0.196  12.129  13.156
69403SOL    HW210107   0.080  12.182  13.238
69404SOL     OW10108   3.201  10.983   8.715
69404SOL    HW110109   3.143  10.924   8.762
69404SOL    HW210110   3.190  11.068   8.760
69405SOL     OW10111   9.858   8.860   5.348
69405SOL    HW110112   9.770   8.826   5.364
69405SOL    HW210113   9.848   8.955   5.350
69406SOL     OW10114  12.848   0.848   8.775
69406SOL    HW110115  12.943   0.850   8.789
69406SOL    HW210116  12.833   0.909   8.703
69407SOL     OW10117   1.692   8.362  10.380
69407SOL    HW110118   1.776   8.365  10.334
69407SOL    HW210119   1.698   8.432  10.445
69408SOL     OW10120  10.768  13.174   0.159
69408SOL    HW110121  10.775  13.233   0.084
69408SOL    HW210122  10.858  13.168   0.193
69409SOL     OW10123   6.343   1.269   7.739
69409SOL    HW110124   6.254   1.286   7.769
69409SOL    HW210125   6.338   1.277   7.643
69410SOL     OW10126   8.167   2.514  12.093
69410SOL    HW110127   8.240   2.479  12.144
69410SOL    HW210128   8.207   2.548  12.013
69411SOL     OW10129   9.735   6.664   2.306
69411SOL    HW110130   9.780   6.707   2.378
69411SOL    HW210131   9.780   6.581   2.295
69412SOL     OW10132   1.151   5.977   5.792
69412SOL    HW110133   1.204   6.048   5.755
69412SOL    HW210134   1.141   6.001   5.884
69413SOL     OW10135   7.567   4.610   0.728
69413SOL    HW110136   7.618   4.589   0.650
69413SOL    HW210137   7.603   4.554   0.796
69414SOL     OW10138   3.543   9.301   6.600
69414SOL    HW110139   3.585   9.387   6.597
69414SOL    HW210140   3.461   9.316   6.647
69415SOL     OW10141   9.778   1.903   6.781
69415SOL    HW110142   9.694   1.859   6.796
69415SOL    HW210143   9.769   1.941   6.693
69416SOL     OW10144   9.598   9.901   3.351
69416SOL    HW110145   9.626   9.818   3.312
69416SOL    HW210146   9.663   9.964   3.321
69417SOL     OW10147   2.719   2.792  13.909
69417SOL    HW110148   2.728   2.749  13.824
69417SOL    HW210149   2.766   2.735  13.969
69418SOL     OW10150  13.139  12.700   4.083
69418SOL    HW110151  13.133  12.770   4.018
69418SOL    HW210152  13.112  12.741   4.165
69419SOL     OW10153  10.106   1.562   0.010
69419SOL    HW110154  10.135   1.652  14.874
69419SOL    HW210155  10.014   1.562  14.859
69420SOL     OW10156   3.180   7.751   1.067
69420SOL    HW110157   3.217   7.800   0.993
69420SOL    HW210158   3.146   7.671   1.028
69421SOL     OW10159  10.328   3.195   6.551
69421SOL    HW110160  10.377   3.258   6.604
69421SOL    HW210161  10.395   3.150   6.499
69422SOL     OW10162   9.392   3.670  13.487
69422SOL    HW110163   9.343   3.658  13.568
69422SOL    HW210164   9.352   3.609  13.425
69423SOL     OW10165   8.931  13.848   5.840
69423SOL    HW110166   8.907  13.836   5.749
69423SOL    HW210167   8.853  13.824   5.889
69424SOL     OW10168   0.923   2.319  14.760
69424SOL    HW110169   0.877   2.338  14.678
69424SOL    HW210170   0.924   2.403  14.807
69425SOL     OW10171   0.361   3.307  10.748
69425SOL    HW110172   0.312   3.389  10.741
69425SOL    HW210173   0.312   3.254  10.811
69426SOL     OW10174   1.803   8.714   9.953
69426SOL    HW110175   1.889   8.754   9.971
69426SOL    HW210176   1.788   8.655  10.027
69427SOL     OW10177   2.846  10.111  11.881
69427SOL    HW110178   2.775  10.174  11.892
69427SOL    HW210179   2.915  10.158  11.835
69428SOL     OW10180   6.185   8.877   9.463
69428SOL    HW110181   6.164   8.786   9.484
69428SOL    HW210182   6.207   8.917   9.547
69429SOL     OW10183   8.001   6.735  11.892
69429SOL    HW110184   7.993   6.705  11.801
69429SOL    HW210185   8.095   6.751  11.903
69430SOL     OW10186   8.558   9.409  10.277
69430SOL    HW110187   8.639   9.399  10.227
69430SOL    HW210188   8.573   9.486  10.333
69431SOL     OW10189   9.322   0.479   1.179
69431SOL    HW110190   9.399   0.530   1.205
69431SOL    HW210191   9.249   0.538   1.190
69432SOL     OW10192   6.611   4.950  10.133
69432SOL    HW110193   6.689   4.906  10.167
69432SOL    HW210194   6.599   5.026  10.189
69433SOL     OW10195  12.330  13.572   9.518
69433SOL    HW110196  12.421  13.542   9.515
69433SOL    HW210197  12.302  13.574   9.427
69434SOL     OW10198  13.162   5.451   9.874
69434SOL    HW110199  13.180   5.409   9.958
69434SOL    HW210200  13.188   5.387   9.809
69435SOL     OW10201   0.670  11.756   0.278
69435SOL    HW110202   0.635  11.681   0.230
69435SOL    HW210203   0.701  11.816   0.211
69436SOL     OW10204   7.110  10.378   4.310
69436SOL    HW110205   7.093  10.437   4.383
69436SOL    HW210206   7.048  10.405   4.242
69437SOL     OW10207   0.277   5.848  12.553
69437SOL    HW110208   0.294   5.789  12.627
69437SOL    HW210209   0.191   5.886  12.573
69438SOL     OW10210   3.564   2.313   8.341
69438SOL    HW110211   3.566   2.272   8.254
69438SOL    HW210212   3.488   2.371   8.338
69439SOL     OW10213   7.710  10.343   1.988
69439SOL    HW110214   7.790  10.292   1.980
69439SOL    HW210215   7.721  10.392   2.070
69440SOL     OW10216   7.474   2.638   3.543
69440SOL    HW110217   7.411   2.616   3.612
69440SOL    HW210218   7.556   2.653   3.590
69441SOL     OW10219   3.156  10.192  11.480
69441SOL    HW110220   3.170  10.115  11.425
69441SOL    HW210221   3.202  10.172  11.562
69442SOL     OW10222   2.562   0.216   8.454
69442SOL    HW110223   2.628   0.206   8.386
69442SOL    HW210224   2.578   0.144   8.514
69443SOL     OW10225   0.185   6.816   2.442
69443SOL    HW110226   0.158   6.743   2.386
69443SOL    HW210227   0.135   6.804   2.522
69444SOL     OW10228  10.137   2.617   5.666
69444SOL    HW110229  10.061   2.662   5.703
69444SOL    HW210230  10.108   2.590   5.578
69445SOL     OW10231  12.373   9.700  14.803
69445SOL    HW110232  12.306   9.766  14.786
69445SOL    HW210233  12.327   9.616  14.792
69446SOL     OW10234  12.039   4.791  13.205
69446SOL    HW110235  12.025   4.724  13.272
69446SOL    HW210236  12.098   4.750  13.142
69447SOL     OW10237  14.834  10.912  12.329
69447SOL    HW110238  14.838  10.963  12.248
69447SOL    HW210239  14.854  10.975  12.398
69448SOL     OW10240  11.884  10.310   4.541
69448SOL    HW110241  11.950  10.376   4.522
69448SOL    HW210242  11.803  10.345   4.503
69449SOL     OW10243   0.037   2.174  10.597
69449SOL    HW110244   0.002   2.196  10.511
69449SOL    HW210245   0.090   2.250  10.621
69450SOL     OW10246   5.235   4.935  11.475
69450SOL    HW110247   5.210   4.848  11.505
69450SOL    HW210248   5.157   4.970  11.433
69451SOL     OW10249   0.702   4.522   8.011
69451SOL    HW110250   0.610   4.497   8.022
69451SOL    HW210251   0.706   4.612   8.042
69452SOL     OW10252  11.365   6.963  14.115
69452SOL    HW110253  11.291   6.953  14.174
69452SOL    HW210254  11.432   6.904  14.149
69453SOL     OW10255   3.970   0.817  14.487
69453SOL    HW110256   3.986   0.743  14.547
69453SOL    HW210257   3.895   0.789  14.434
69454SOL     OW10258  10.590  13.051   6.984
69454SOL    HW110259  10.651  13.101   7.038
69454SOL    HW210260  10.579  12.968   7.031
69455SOL     OW10261  10.529  10.032   2.972
69455SOL    HW110262  10.601  10.072   3.021
69455SOL    HW210263  10.451  10.075   3.007
69456SOL     OW10264   5.186   3.807   4.708
69456SOL    HW110265   5.276   3.813   4.676
69456SOL    HW210266   5.176   3.715   4.732
69457SOL     OW10267   8.576   2.167   9.230
69457SOL    HW110268   8.491   2.186   9.192
69457SOL    HW210269   8.557   2.108   9.303
69458SOL     OW10270   4.591   5.274   9.639
69458SOL    HW110271   4.631   5.359   9.619
69458SOL    HW210272   4.635   5.245   9.719
69459SOL     OW10273   2.583   9.855   3.226
69459SOL    HW110274   2.653   9.890   3.171
69459SOL    HW210275   2.505   9.905   3.201
69460SOL     OW10276   4.949   4.420   2.787
69460SOL    HW110277   4.946   4.505   2.831
69460SOL    HW210278   4.901   4.433   2.705
69461SOL     OW10279   1.837  13.540   4.048
69461SOL    HW110280   1.806  13.535   3.958
69461SOL    HW210281   1.801  13.462   4.090
69462SOL     OW10282   2.872   5.805  11.033
69462SOL    HW110283   2.876   5.710  11.024
69462SOL    HW210284   2.846   5.820  11.124
69463SOL     OW10285   9.009   1.106   0.032
69463SOL    HW110286   9.076   1.044   0.003
69463SOL    HW210287   9.009   1.097   0.128
69464SOL     OW10288  12.703  13.295  13.555
69464SOL    HW110289  12.763  13.264  13.487
69464SOL    HW210290  12.724  13.388  13.565
69465SOL     OW10291   9.016  12.120   8.846
69465SOL    HW110292   9.011  12.216   8.853
69465SOL    HW210293   8.995  12.102   8.754
69466SOL     OW10294  14.630  14.702  10.978
69466SOL    HW110295  14.562  14.760  11.012
69466SOL    HW210296  14.694  14.696  11.049
69467SOL     OW10297   4.373   2.609  10.839
69467SOL    HW110298   4.287   2.637  10.870
69467SOL    HW210299   4.367   2.613  10.744
69468SOL     OW10300   2.351   9.205   5.727
69468SOL    HW110301   2.378   9.293   5.753
69468SOL    HW210302   2.307   9.216   5.643
69469SOL     OW10303   6.660   6.732  13.294
69469SOL    HW110304   6.654   6.640  13.322
69469SOL    HW210305   6.593   6.777  13.345
69470SOL     OW10306  13.972   9.953  14.263
69470SOL    HW110307  14.039  10.015  14.232
69470SOL    HW210308  14.023   9.881  14.300
69471SOL     OW10309   9.505   3.328   6.790
69471SOL    HW110310   9.599   3.308   6.794
69471SOL    HW210311   9.466   3.267   6.853
69472SOL     OW10312   5.326   8.224  13.984
69472SOL    HW110313   5.291   8.150  13.934
69472SOL    HW210314   5.263   8.236  14.056
69473SOL     OW10315  10.040  13.633   9.280
69473SOL    HW110316  10.020  13.633   9.374
69473SOL    HW210317  10.057  13.542   9.259
69474SOL     OW10318   0.953   1.581   1.544
69474SOL    HW110319   0.867   1.611   1.516
69474SOL    HW210320   0.950   1.585   1.640
69475SOL     OW10321  10.970  13.221  11.626
69475SOL    HW110322  10.967  13.143  11.572
69475SOL    HW210323  11.028  13.281  11.579
69476SOL     OW10324   0.451  12.702   6.766
69476SOL    HW110325   0.358  12.693   6.786
69476SOL    HW210326   0.456  12.694   6.670
69477SOL     OW10327   4.664   1.931   3.010
69477SOL    HW110328   4.582   1.979   2.999
69477SOL    HW210329   4.732   1.994   2.984
69478SOL     OW10330   3.677   6.201   6.158
69478SOL    HW110331   3.714   6.184   6.072
69478SOL    HW210332   3.599   6.254   6.141
69479SOL     OW10333   9.512  11.452   6.351
69479SOL    HW110334   9.555  11.417   6.273
69479SOL    HW210335   9.585  11.475   6.409
69480SOL     OW10336   4.848   3.157   5.781
69480SOL    HW110337   4.897   3.164   5.862
69480SOL    HW210338   4.782   3.089   5.798
69481SOL     OW10339  10.044  13.128   4.036
69481SOL    HW110340  10.055  13.137   3.941
69481SOL    HW210341   9.978  13.059   4.046
69482SOL     OW10342   1.152   6.370   5.975
69482SOL    HW110343   1.188   6.364   5.887
69482SOL    HW210344   1.103   6.452   5.976
69483SOL     OW10345   1.577   0.029   3.504
69483SOL    HW110346   1.589   0.068   3.591
69483SOL    HW210347   1.603  14.813   3.514
69484SOL     OW10348   6.855   7.966  13.588
69484SOL    HW110349   6.836   7.994  13.499
69484SOL    HW210350   6.950   7.956  13.591
69485SOL     OW10351  10.070   4.503   3.563
69485SOL    HW110352  10.079   4.556   3.484
69485SOL    HW210353  10.156   4.461   3.574
69486SOL     OW10354  10.875   7.074   7.685
69486SOL    HW110355  10.964   7.047   7.662
69486SOL    HW210356  10.819   7.022   7.628
69487SOL     OW10357   3.033   0.733   7.410
69487SOL    HW110358   3.114   0.695   7.374
69487SOL    HW210359   3.063   0.807   7.464
69488SOL     OW10360   0.848   6.604  11.120
69488SOL    HW110361   0.906   6.548  11.067
69488SOL    HW210362   0.806   6.662  11.056
69489SOL     OW10363   5.896   7.404  10.998
69489SOL    HW110364   5.966   7.341  10.984
69489SOL    HW210365   5.823   7.371  10.945
69490SOL     OW10366   8.494  10.991   4.392
69490SOL    HW110367   8.421  10.991   4.330
69490SOL    HW210368   8.523  11.082   4.394
69491SOL     OW10369   1.556  12.596  10.554
69491SOL    HW110370   1.501  12.533  10.602
69491SOL    HW210371   1.639  12.549  10.541
69492SOL     OW10372   3.271  14.447   4.051
69492SOL    HW110373   3.359  14.460   4.015
69492SOL    HW210374   3.218  14.419   3.977
69493SOL     OW10375   4.871   3.745   6.926
69493SOL    HW110376   4.951   3.695   6.940
69493SOL    HW210377   4.801   3.686   6.954
69494SOL     OW10378   1.677  10.458   5.394
69494SOL    HW110379   1.594  10.499   5.369
69494SOL    HW210380   1.691  10.390   5.328
69495SOL     OW10381   9.641   0.478  13.564
69495SOL    HW110382   9.564   0.510  13.611
69495SOL    HW210383   9.608   0.455  13.477
69496SOL     OW10384   2.534   7.770  11.680
69496SOL    HW110385   2.560   7.860  11.663
69496SOL    HW210386   2.515   7.767  11.774
69497SOL     OW10387   5.057   1.417   5.210
69497SOL    HW110388   5.099   1.503   5.205
69497SOL    HW210389   5.012   1.407   5.126
69498SOL     OW10390   9.263  12.223   9.900
69498SOL    HW110391   9.265  12.238   9.806
69498SOL    HW210392   9.174  12.191   9.917
69499SOL     OW10393   1.456   3.725   1.776
69499SOL    HW110394   1.375   3.689   1.741
69499SOL    HW210395   1.457   3.816   1.746
69500SOL     OW10396   2.912   4.759   9.793
69500SOL    HW110397   2.898   4.763   9.698
69500SOL    HW210398   2.925   4.850   9.818
69501SOL     OW10399   0.300   9.760   0.538
69501SOL    HW110400   0.320   9.854   0.540
69501SOL    HW210401   0.385   9.717   0.544
69502SOL     OW10402   1.941  14.362   0.112
69502SOL    HW110403   1.849  14.388   0.110
69502SOL    HW210404   1.942  14.283   0.167
69503SOL     OW10405   0.981  13.257  10.501
69503SOL    HW110406   0.945  13.247  10.589
69503SOL    HW210407   1.064  13.303  10.514
69504SOL     OW10408   3.190   6.350   2.570
69504SOL    HW110409   3.213   6.269   2.616
69504SOL    HW210410   3.258   6.359   2.502
69505SOL     OW10411  10.366  11.156  11.061
69505SOL    HW110412  10.398  11.210  10.989
69505SOL    HW210413  10.320  11.084  11.019
69506SOL     OW10414   8.452  11.775  11.695
69506SOL    HW110415   8.390  11.704  11.680
69506SOL    HW210416   8.500  11.748  11.773
69507SOL     OW10417   9.005  14.323   8.029
69507SOL    HW110418   8.998  14.324   7.934
69507SOL    HW210419   9.041  14.409   8.052
69508SOL     OW10420   8.036  13.012  10.208
69508SOL    HW110421   8.042  13.030  10.114
69508SOL    HW210422   8.085  13.082  10.250
69509SOL     OW10423   7.220   2.355   9.711
69509SOL    HW110424   7.130   2.386   9.712
69509SOL    HW210425   7.253   2.382   9.625
69510SOL     OW10426   4.375   7.837   9.478
69510SOL    HW110427   4.468   7.819   9.490
69510SOL    HW210428   4.371   7.929   9.452
69511SOL     OW10429   4.631  12.805  10.022
69511SOL    HW110430   4.612  12.896   9.996
69511SOL    HW210431   4.670  12.766   9.944
69512SOL     OW10432   5.102  11.213   6.668
69512SOL    HW110433   5.105  11.135   6.612
69512SOL    HW210434   5.184  11.259   6.649
69513SOL     OW10435  13.125   1.414  13.755
69513SOL    HW110436  13.160   1.345  13.699
69513SOL    HW210437  13.065   1.463  13.698
69514SOL     OW10438   6.014   8.842  12.055
69514SOL    HW110439   5.973   8.764  12.090
69514SOL    HW210440   5.964   8.863  11.976
69515SOL     OW10441  11.833   3.067   5.080
69515SOL    HW110442  11.856   2.981   5.043
69515SOL    HW210443  11.740   3.060   5.100
69516SOL     OW10444  12.641  12.456   5.842
69516SOL    HW110445  12.654  12.385   5.905
69516SOL    HW210446  12.670  12.535   5.889
69517SOL     OW10447   8.127   8.341  13.938
69517SOL    HW110448   8.126   8.437  13.938
69517SOL    HW210449   8.042   8.315  13.902
69518SOL     OW10450   7.159  11.298   0.672
69518SOL    HW110451   7.200  11.378   0.706
69518SOL    HW210452   7.162  11.236   0.745
69519SOL     OW10453   1.877   8.335   8.400
69519SOL    HW110454   1.878   8.363   8.492
69519SOL    HW210455   1.969   8.318   8.379
69520SOL     OW10456   1.397   0.331   8.446
69520SOL    HW110457   1.413   0.267   8.515
69520SOL    HW210458   1.441   0.294   8.369
69521SOL     OW10459   8.946  10.773   1.218
69521SOL    HW110460   9.021  10.799   1.271
69521SOL    HW210461   8.898  10.855   1.205
69522SOL     OW10462   0.925  14.188   0.005
69522SOL    HW110463   1.005  14.184   0.059
69522SOL    HW210464   0.885  14.272   0.029
69523SOL     OW10465  10.077  13.477   9.993
69523SOL    HW110466  10.003  13.469   9.932
69523SOL    HW210467  10.054  13.422  10.067
69524SOL     OW10468  14.483   3.806   1.653
69524SOL    HW110469  14.458   3.715   1.668
69524SOL    HW210470  14.401   3.854   1.650
69525SOL     OW10471  13.164   2.750  14.181
69525SOL    HW110472  13.147   2.825  14.124
69525SOL    HW210473  13.109   2.680  14.145
69526SOL     OW10474   4.759   9.925   8.871
69526SOL    HW110475   4.796   9.869   8.803
69526SOL    HW210476   4.739   9.864   8.943
69527SOL     OW10477   0.920  11.417  11.665
69527SOL    HW110478   0.997  11.380  11.707
69527SOL    HW210479   0.903  11.359  11.590
69528SOL     OW10480  13.207   4.997  11.954
69528SOL    HW110481  13.222   4.978  12.047
69528SOL    HW210482  13.114   4.980  11.941
69529SOL     OW10483   0.086  11.357  14.238
69529SOL    HW110484   0.095  11.327  14.328
69529SOL    HW210485   0.158  11.315  14.192
69530SOL     OW10486   5.107   9.309  11.827
69530SOL    HW110487   5.186   9.306  11.881
69530SOL    HW210488   5.139   9.326  11.739
69531SOL     OW10489   6.607   6.399   1.414
69531SOL    HW110490   6.561   6.418   1.332
69531SOL    HW210491   6.555   6.329   1.455
69532SOL     OW10492   0.581   6.386   6.782
69532SOL    HW110493   0.640   6.324   6.739
69532SOL    HW210494   0.631   6.467   6.786
69533SOL     OW10495  12.642  14.608  10.656
69533SOL    HW110496  12.631  14.599  10.561
69533SOL    HW210497  12.726  14.652  10.666
69534SOL     OW10498  13.521   0.465   2.769
69534SOL    HW110499  13.497   0.548   2.728
69534SOL    HW210500  13.439   0.418   2.777
69535SOL     OW10501   3.144   9.345   6.317
69535SOL    HW110502   3.102   9.274   6.365
69535SOL    HW210503   3.233   9.348   6.352
69536SOL     OW10504   3.357  10.025   4.045
69536SOL    HW110505   3.322   9.957   4.102
69536SOL    HW210506   3.452  10.014   4.050
69537SOL     OW10507   5.764   1.603   1.148
69537SOL    HW110508   5.787   1.650   1.229
69537SOL    HW210509   5.716   1.667   1.096
69538SOL     OW10510   8.168  11.659   8.322
69538SOL    HW110511   8.244  11.705   8.286
69538SOL    HW210512   8.093  11.708   8.291
69539SOL     OW10513  14.314   1.884   4.757
69539SOL    HW110514  14.270   1.835   4.688
69539SOL    HW210515  14.318   1.974   4.723
69540SOL     OW10516   8.576  10.417  12.586
69540SOL    HW110517   8.629  10.461  12.652
69540SOL    HW210518   8.574  10.478  12.512
69541SOL     OW10519   2.286  12.088   3.530
69541SOL    HW110520   2.273  12.175   3.492
69541SOL    HW210521   2.295  12.104   3.624
69542SOL     OW10522   1.847  10.189   1.879
69542SOL    HW110523   1.917  10.124   1.876
69542SOL    HW210524   1.809  10.179   1.967
69543SOL     OW10525  10.712   6.994  13.768
69543SOL    HW110526  10.777   6.928  13.792
69543SOL    HW210527  10.642   6.983  13.832
69544SOL     OW10528  11.410  10.483   0.549
69544SOL    HW110529  11.424  10.566   0.593
69544SOL    HW210530  11.383  10.506   0.460
69545SOL     OW10531   9.442  13.673   9.733
69545SOL    HW110532   9.481  13.710   9.812
69545SOL    HW210533   9.348  13.676   9.749
69546SOL     OW10534   8.695   1.948   4.552
69546SOL    HW110535   8.733   1.869   4.591
69546SOL    HW210536   8.768   2.009   4.545
69547SOL     OW10537  13.442   5.409   7.538
69547SOL    HW110538  13.391   5.440   7.613
69547SOL    HW210539  13.528   5.389   7.574
69548SOL     OW10540  12.931   4.520   9.404
69548SOL    HW110541  12.977   4.573   9.339
69548SOL    HW210542  12.934   4.431   9.369
69549SOL     OW10543   6.388   9.648   5.390
69549SOL    HW110544   6.344   9.571   5.425
69549SOL    HW210545   6.358   9.656   5.300
69550SOL     OW10546  10.107   8.348   1.142
69550SOL    HW110547  10.075   8.380   1.058
69550SOL    HW210548  10.072   8.409   1.206
69551SOL     OW10549   8.243   1.171  13.672
69551SOL    HW110550   8.189   1.164  13.751
69551SOL    HW210551   8.190   1.133  13.603
69552SOL     OW10552   6.983   5.681  14.862
69552SOL    HW110553   6.936   5.606  14.826
69552SOL    HW210554   6.951   5.689   0.077
69553SOL     OW10555  11.667   4.466   1.168
69553SOL    HW110556  11.748   4.497   1.210
69553SOL    HW210557  11.675   4.496   1.077
69554SOL     OW10558   0.730   8.099   7.522
69554SOL    HW110559   0.662   8.165   7.507
69554SOL    HW210560   0.691   8.038   7.585
69555SOL     OW10561  14.426   3.102  12.037
69555SOL    HW110562  14.454   3.103  11.946
69555SOL    HW210563  14.495   3.149  12.084
69556SOL     OW10564  12.058  10.563  10.147
69556SOL    HW110565  12.058  10.469  10.128
69556SOL    HW210566  12.094  10.603  10.068
69557SOL     OW10567   3.442  12.050   3.790
69557SOL    HW110568   3.468  11.995   3.716
69557SOL    HW210569   3.524  12.070   3.835
69558SOL     OW10570   2.926   4.965   7.690
69558SOL    HW110571   2.852   4.905   7.706
69558SOL    HW210572   2.982   4.954   7.767
69559SOL     OW10573  13.067   9.221   2.278
69559SOL    HW110574  13.093   9.129   2.271
69559SOL    HW210575  13.056   9.236   2.372
69560SOL     OW10576   5.694  11.781  14.345
69560SOL    HW110577   5.729  11.757  14.430
69560SOL    HW210578   5.768  11.771  14.284
69561SOL     OW10579   4.864   0.585  14.476
69561SOL    HW110580   4.810   0.662  14.495
69561SOL    HW210581   4.942   0.621  14.433
69562SOL     OW10582   6.704   9.167  11.225
69562SOL    HW110583   6.675   9.100  11.288
69562SOL    HW210584   6.661   9.142  11.143
69563SOL     OW10585  10.027   7.472   5.712
69563SOL    HW110586   9.957   7.413   5.741
69563SOL    HW210587  10.090   7.416   5.667
69564SOL     OW10588  13.252   9.027   9.259
69564SOL    HW110589  13.266   8.933   9.248
69564SOL    HW210590  13.177   9.047   9.204
69565SOL     OW10591   7.553   5.489   6.376
69565SOL    HW110592   7.553   5.584   6.380
69565SOL    HW210593   7.532   5.469   6.285
69566SOL     OW10594  13.281  10.830   1.418
69566SOL    HW110595  13.237  10.751   1.385
69566SOL    HW210596  13.220  10.867   1.482
69567SOL     OW10597   7.555   4.241  12.025
69567SOL    HW110598   7.460   4.249  12.014
69567SOL    HW210599   7.588   4.330  12.009
69568SOL     OW10600   9.101   6.108  13.872
69568SOL    HW110601   9.021   6.081  13.827
69568SOL    HW210602   9.167   6.113  13.802
69569SOL     OW10603   3.121   8.319   4.976
69569SOL    HW110604   3.180   8.280   4.912
69569SOL    HW210605   3.105   8.250   5.040
69570SOL     OW10606   5.761  10.784  10.616
69570SOL    HW110607   5.711  10.781  10.534
69570SOL    HW210608   5.848  10.751  10.593
69571SOL     OW10609  14.560   5.614   3.163
69571SOL    HW110610  14.560   5.691   3.106
69571SOL    HW210611  14.631   5.559   3.129
69572SOL     OW10612   8.818   5.666   6.743
69572SOL    HW110613   8.747   5.672   6.806
69572SOL    HW210614   8.815   5.576   6.710
69573SOL     OW10615  10.046   0.979   9.833
69573SOL    HW110616  10.108   0.988   9.760
69573SOL    HW210617  10.101   0.969   9.910
69574SOL     OW10618   4.849   4.909   7.259
69574SOL    HW110619   4.811   4.831   7.219
69574SOL    HW210620   4.906   4.946   7.192
69575SOL     OW10621   6.280   8.249   9.195
69575SOL    HW110622   6.236   8.173   9.232
69575SOL    HW210623   6.342   8.213   9.131
69576SOL     OW10624  13.668   9.659   7.330
69576SOL    HW110625  13.707   9.662   7.243
69576SOL    HW210626  13.598   9.594   7.322
69577SOL     OW10627   6.292   4.804  10.928
69577SOL    HW110628   6.275   4.853  10.848
69577SOL    HW210629   6.370   4.845  10.965
69578SOL     OW10630   8.742   8.446   6.217
69578SOL    HW110631   8.677   8.508   6.187
69578SOL    HW210632   8.826   8.487   6.196
69579SOL     OW10633  10.923   9.542   9.821
69579SOL    HW110634  10.892   9.480   9.887
69579SOL    HW210635  10.964   9.488   9.754
69580SOL     OW10636   3.047  14.304   6.198
69580SOL    HW110637   3.070  14.397   6.205
69580SOL    HW210638   3.090  14.275   6.118
69581SOL     OW10639   0.826   7.099   4.806
69581SOL    HW110640   0.731   7.101   4.807
69581SOL    HW210641   0.851   7.183   4.768
69582SOL     OW10642   0.687   4.856  11.921
69582SOL    HW110643   0.708   4.773  11.878
69582SOL    HW210644   0.613   4.890  11.870
69583SOL     OW10645  11.081   8.236  13.474
69583SOL    HW110646  11.125   8.276  13.398
69583SOL    HW210647  10.996   8.208  13.440
69584SOL     OW10648   3.269  13.083   3.760
69584SOL    HW110649   3.232  13.171   3.771
69584SOL    HW210650   3.215  13.027   3.816
69585SOL     OW10651   6.641   8.113   2.978
69585SOL    HW110652   6.582   8.124   3.052
69585SOL    HW210653   6.663   8.202   2.950
69586SOL     OW10654   7.315   7.850   5.644
69586SOL    HW110655   7.322   7.931   5.594
69586SOL    HW210656   7.316   7.780   5.578
69587SOL     OW10657   4.408   5.910  14.003
69587SOL    HW110658   4.459   5.939  13.927
69587SOL    HW210659   4.345   5.848  13.967
69588SOL     OW10660  12.092   1.072   5.562
69588SOL    HW110661  12.182   1.059   5.533
69588SOL    HW210662  12.040   1.019   5.502
69589SOL     OW10663  10.701   3.737   1.486
69589SOL    HW110664  10.795   3.729   1.475
69589SOL    HW210665  10.664   3.667   1.431
69590SOL     OW10666   2.322   1.527   0.204
69590SOL    HW110667   2.410   1.563   0.191
69590SOL    HW210668   2.309   1.469   0.129
69591SOL     OW10669   0.762   3.694  10.747
69591SOL    HW110670   0.846   3.719  10.787
69591SOL    HW210671   0.707   3.771  10.761
69592SOL     OW10672   6.828  10.077   2.458
69592SOL    HW110673   6.922  10.079   2.475
69592SOL    HW210674   6.789  10.117   2.536
69593SOL     OW10675   7.893   7.670   5.846
69593SOL    HW110676   7.974   7.621   5.846
69593SOL    HW210677   7.838   7.627   5.780
69594SOL     OW10678  11.983   4.644   4.601
69594SOL    HW110679  11.989   4.735   4.631
69594SOL    HW210680  11.968   4.652   4.506
69595SOL     OW10681   9.679  12.015   4.290
69595SOL    HW110682   9.742  12.078   4.257
69595SOL    HW210683   9.680  11.944   4.226
69596SOL     OW10684   5.779   2.051  12.409
69596SOL    HW110685   5.870   2.024  12.423
69596SOL    HW210686   5.727   1.978  12.443
69597SOL     OW10687  13.907   2.279  11.016
69597SOL    HW110688  13.990   2.233  11.005
69597SOL    HW210689  13.925   2.368  10.988
69598SOL     OW10690   6.459   6.915   3.195
69598SOL    HW110691   6.411   6.901   3.113
69598SOL    HW210692   6.468   7.010   3.202
69599SOL     OW10693   0.890   7.265   7.035
69599SOL    HW110694   0.849   7.352   7.033
69599SOL    HW210695   0.863   7.227   7.118
69600SOL     OW10696   0.298   4.533   5.208
69600SOL    HW110697   0.364   4.480   5.164
69600SOL    HW210698   0.286   4.610   5.152
69601SOL     OW10699   7.409  10.705   6.511
69601SOL    HW110700   7.384  10.792   6.480
69601SOL    HW210701   7.327  10.655   6.511
69602SOL     OW10702  14.060   1.347  13.926
69602SOL    HW110703  13.982   1.367  13.977
69602SOL    HW210704  14.131   1.394  13.972
69603SOL     OW10705   8.205   3.280  12.577
69603SOL    HW110706   8.240   3.332  12.505
69603SOL    HW210707   8.270   3.289  12.647
69604SOL     OW10708   7.323   3.895   7.367
69604SOL    HW110709   7.351   3.987   7.360
69604SOL    HW210710   7.241   3.899   7.415
69605SOL     OW10711   7.259   1.466   4.011
69605SOL    HW110712   7.293   1.515   3.937
69605SOL    HW210713   7.172   1.438   3.983
69606SOL     OW10714  12.982   5.494   7.833
69606SOL    HW110715  12.915   5.456   7.777
69606SOL    HW210716  13.002   5.578   7.793
69607SOL     OW10717  13.359  10.561  11.347
69607SOL    HW110718  13.448  10.548  11.312
69607SOL    HW210719  13.368  10.548  11.441
69608SOL     OW10720   0.351  10.696  11.988
69608SOL    HW110721   0.379  10.730  11.903
69608SOL    HW210722   0.309  10.770  12.031
69609SOL     OW10723   9.382  11.432   7.984
69609SOL    HW110724   9.435  11.476   7.918
69609SOL    HW210725   9.331  11.367   7.935
69610SOL     OW10726  14.593  10.174   4.857
69610SOL    HW110727  14.501  10.192   4.876
69610SOL    HW210728  14.600  10.079   4.859
69611SOL     OW10729  11.492   6.129   6.982
69611SOL    HW110730  11.566   6.184   6.955
69611SOL    HW210731  11.429   6.136   6.911
69612SOL     OW10732  10.700   3.108  12.454
69612SOL    HW110733  10.665   3.196  12.444
69612SOL    HW210734  10.623   3.051  12.455
69613SOL     OW10735   6.457   3.879   8.417
69613SOL    HW110736   6.509   3.956   8.397
69613SOL    HW210737   6.411   3.901   8.498
69614SOL     OW10738  13.047   2.264  10.897
69614SOL    HW110739  12.981   2.197  10.915
69614SOL    HW210740  13.119   2.217  10.854
69615SOL     OW10741   7.204  10.950  11.979
69615SOL    HW110742   7.274  10.885  11.976
69615SOL    HW210743   7.125  10.899  12.000
69616SOL     OW10744   7.687   6.814   1.753
69616SOL    HW110745   7.751   6.750   1.784
69616SOL    HW210746   7.728   6.899   1.769
69617SOL     OW10747   4.897   7.795   3.242
69617SOL    HW110748   4.936   7.879   3.270
69617SOL    HW210749   4.971   7.744   3.210
69618SOL     OW10750   7.263   4.405  13.216
69618SOL    HW110751   7.262   4.418  13.311
69618SOL    HW210752   7.271   4.310  13.205
69619SOL     OW10753   0.276   4.314   0.898
69619SOL    HW110754   0.292   4.275   0.983
69619SOL    HW210755   0.320   4.399   0.902
69620SOL     OW10756  14.046  11.017   6.765
69620SOL    HW110757  14.001  10.964   6.830
69620SOL    HW210758  14.119  11.056   6.812
69621SOL     OW10759  11.322   9.190   2.589
69621SOL    HW110760  11.358   9.135   2.657
69621SOL    HW210761  11.347   9.147   2.507
69622SOL     OW10762   7.407   7.897   2.465
69622SOL    HW110763   7.343   7.904   2.394
69622SOL    HW210764   7.472   7.964   2.446
69623SOL     OW10765   8.464  13.485   0.336
69623SOL    HW110766   8.369  13.475   0.336
69623SOL    HW210767   8.497  13.402   0.302
69624SOL     OW10768   7.757  10.395  11.703
69624SOL    HW110769   7.792  10.319  11.656
69624SOL    HW210770   7.727  10.454  11.634
69625SOL     OW10771   3.340   6.357  10.451
69625SOL    HW110772   3.291   6.420  10.399
69625SOL    HW210773   3.373   6.408  10.525
69626SOL     OW10774   7.748   6.661   8.487
69626SOL    HW110775   7.842   6.653   8.466
69626SOL    HW210776   7.734   6.598   8.558
69627SOL     OW10777   2.783  10.661   2.069
69627SOL    HW110778   2.830  10.583   2.100
69627SOL    HW210779   2.824  10.734   2.116
69628SOL     OW10780  10.769   3.331  12.982
69628SOL    HW110781  10.706   3.275  13.026
69628SOL    HW210782  10.733   3.419  12.989
69629SOL     OW10783   4.423  10.347   7.972
69629SOL    HW110784   4.334  10.312   7.976
69629SOL    HW210785   4.478  10.270   7.956
69630SOL     OW10786  10.018   8.681   5.948
69630SOL    HW110787  10.109   8.683   5.978
69630SOL    HW210788  10.000   8.771   5.921
69631SOL     OW10789  12.359   9.607   0.446
69631SOL    HW110790  12.344   9.548   0.372
69631SOL    HW210791  12.325   9.559   0.522
69632SOL     OW10792   9.046   6.267  11.474
69632SOL    HW110793   8.958   6.261  11.439
69632SOL    HW210794   9.100   6.217  11.413
69633SOL     OW10795  13.479  12.108   8.971
69633SOL    HW110796  13.474  12.014   8.958
69633SOL    HW210797  13.558  12.135   8.924
69634SOL     OW10798   7.037   1.794   7.200
69634SOL    HW110799   7.102   1.757   7.260
69634SOL    HW210800   7.088   1.848   7.140
69635SOL     OW10801   8.006   4.635   5.138
69635SOL    HW110802   7.971   4.563   5.190
69635SOL    HW210803   7.996   4.606   5.048
69636SOL     OW10804   7.055  10.235   8.159
69636SOL    HW110805   7.139  10.273   8.186
69636SOL    HW210806   7.078  10.162   8.102
69637SOL     OW10807   4.236   7.328   2.334
69637SOL    HW110808   4.284   7.262   2.283
69637SOL    HW210809   4.303   7.368   2.390
69638SOL     OW10810  12.558   4.918  12.476
69638SOL    HW110811  12.551   5.006  12.514
69638SOL    HW210812  12.626   4.875  12.529
69639SOL     OW10813  12.942  10.587   6.243
69639SOL    HW110814  13.008  10.571   6.175
69639SOL    HW210815  12.988  10.635   6.311
69640SOL     OW10816  14.036   8.586  12.274
69640SOL    HW110817  14.002   8.645  12.341
69640SOL    HW210818  14.043   8.640  12.195
69641SOL     OW10819   2.594  10.246  11.862
69641SOL    HW110820   2.659  10.298  11.815
69641SOL    HW210821   2.564  10.182  11.798
69642SOL     OW10822  12.801  14.643   8.614
69642SOL    HW110823  12.778  14.594   8.534
69642SOL    HW210824  12.745  14.604   8.682
69643SOL     OW10825   7.372  10.982  11.556
69643SOL    HW110826   7.393  10.930  11.633
69643SOL    HW210827   7.457  11.009  11.520
69644SOL     OW10828   2.910  10.844   0.337
69644SOL    HW110829   2.949  10.763   0.369
69644SOL    HW210830   2.949  10.856   0.250
69645SOL     OW10831   7.939   4.996   9.330
69645SOL    HW110832   7.907   4.912   9.298
69645SOL    HW210833   7.994   5.029   9.259
69646SOL     OW10834  13.014  11.940   7.673
69646SOL    HW110835  13.093  11.990   7.651
69646SOL    HW210836  12.957  11.952   7.597
69647SOL     OW10837   4.355  12.129   6.266
69647SOL    HW110838   4.301  12.180   6.204
69647SOL    HW210839   4.308  12.136   6.349
69648SOL     OW10840  10.635   8.819   6.049
69648SOL    HW110841  10.681   8.884   5.997
69648SOL    HW210842  10.705   8.763   6.084
69649SOL     OW10843  11.810  11.400  14.465
69649SOL    HW110844  11.838  11.313  14.436
69649SOL    HW210845  11.890  11.451  14.471
69650SOL     OW10846  11.004  11.757   5.562
69650SOL    HW110847  10.953  11.695   5.510
69650SOL    HW210848  10.961  11.842   5.546
69651SOL     OW10849   1.994  13.436   6.467
69651SOL    HW110850   2.016  13.384   6.544
69651SOL    HW210851   2.076  13.478   6.442
69652SOL     OW10852  10.620   9.445   0.387
69652SOL    HW110853  10.560   9.484   0.323
69652SOL    HW210854  10.586   9.473   0.472
69653SOL     OW10855   1.093   4.462   0.878
69653SOL    HW110856   1.079   4.400   0.949
69653SOL    HW210857   1.095   4.408   0.799
69654SOL     OW10858   3.999   9.829  12.051
69654SOL    HW110859   3.983   9.737  12.031
69654SOL    HW210860   3.992   9.835  12.146
69655SOL     OW10861   0.823  13.250  10.719
69655SOL    HW110862   0.738  13.231  10.759
69655SOL    HW210863   0.882  13.263  10.793
69656SOL     OW10864   3.819   9.809   1.474
69656SOL    HW110865   3.725   9.792   1.469
69656SOL    HW210866   3.856   9.730   1.514
69657SOL     OW10867   1.312   7.617   3.042
69657SOL    HW110868   1.291   7.528   3.015
69657SOL    HW210869   1.387   7.642   2.987
69658SOL     OW10870   5.327   6.577   1.950
69658SOL    HW110871   5.317   6.566   2.044
69658SOL    HW210872   5.246   6.542   1.912
69659SOL     OW10873   6.743  11.274   3.823
69659SOL    HW110874   6.655  11.276   3.785
69659SOL    HW210875   6.777  11.187   3.800
69660SOL     OW10876  14.096   8.607   0.509
69660SOL    HW110877  14.166   8.578   0.450
69660SOL    HW210878  14.042   8.530   0.523
69661SOL     OW10879   5.070   7.929   8.605
69661SOL    HW110880   5.123   8.006   8.587
69661SOL    HW210881   5.095   7.866   8.538
69662SOL     OW10882   6.984   1.850   3.175
69662SOL    HW110883   6.966   1.902   3.253
69662SOL    HW210884   7.079   1.854   3.165
69663SOL     OW10885   0.568   0.044  14.607
69663SOL    HW110886   0.563  14.840  14.553
69663SOL    HW210887   0.531   0.113  14.552
69664SOL     OW10888  10.688  12.678   7.140
69664SOL    HW110889  10.608  12.726   7.118
69664SOL    HW210890  10.717  12.716   7.223
69665SOL     OW10891  13.283   9.539   7.709
69665SOL    HW110892  13.253   9.630   7.721
69665SOL    HW210893  13.261   9.519   7.618
69666SOL     OW10894   3.897   5.570   3.731
69666SOL    HW110895   3.955   5.494   3.735
69666SOL    HW210896   3.811   5.533   3.709
69667SOL     OW10897   5.832   1.572   2.648
69667SOL    HW110898   5.810   1.647   2.703
69667SOL    HW210899   5.780   1.583   2.569
69668SOL     OW10900   2.386   6.643   4.800
69668SOL    HW110901   2.388   6.550   4.826
69668SOL    HW210902   2.419   6.642   4.710
69669SOL     OW10903  14.396   9.289   4.377
69669SOL    HW110904  14.489   9.291   4.354
69669SOL    HW210905  14.396   9.284   4.473
69670SOL     OW10906   3.722  10.500   5.807
69670SOL    HW110907   3.699  10.472   5.719
69670SOL    HW210908   3.640  10.529   5.846
69671SOL     OW10909  10.187   3.246   0.883
69671SOL    HW110910  10.178   3.256   0.788
69671SOL    HW210911  10.097   3.235   0.914
69672SOL     OW10912  14.752  10.230  11.932
69672SOL    HW110913  14.672  10.248  11.881
69672SOL    HW210914  14.775  10.140  11.909
69673SOL     OW10915  10.753   8.144  10.740
69673SOL    HW110916  10.697   8.128  10.817
69673SOL    HW210917  10.778   8.056  10.711
69674SOL     OW10918   3.356   9.701  12.895
69674SOL    HW110919   3.368   9.609  12.919
69674SOL    HW210920   3.434   9.724  12.845
69675SOL     OW10921  11.757   4.577  13.101
69675SOL    HW110922  11.709   4.516  13.045
69675SOL    HW210923  11.796   4.640  13.040
69676SOL     OW10924   7.875   2.618  11.181
69676SOL    HW110925   7.895   2.624  11.274
69676SOL    HW210926   7.903   2.530  11.156
69677SOL     OW10927   7.998   1.462   5.096
69677SOL    HW110928   8.023   1.469   5.004
69677SOL    HW210929   7.903   1.470   5.096
69678SOL     OW10930  12.981   5.706  11.481
69678SOL    HW110931  13.001   5.739  11.394
69678SOL    HW210932  13.035   5.760  11.540
69679SOL     OW10933   7.959   9.571  11.195
69679SOL    HW110934   7.887   9.552  11.256
69679SOL    HW210935   7.962   9.495  11.137
69680SOL     OW10936  12.659   4.992   9.720
69680SOL    HW110937  12.600   4.936   9.771
69680SOL    HW210938  12.665   5.073   9.770
69681SOL     OW10939   8.693   2.269   5.046
69681SOL    HW110940   8.629   2.254   4.976
69681SOL    HW210941   8.672   2.203   5.112
69682SOL     OW10942  11.970  11.844   1.490
69682SOL    HW110943  12.065  11.841   1.478
69682SOL    HW210944  11.941  11.921   1.442
69683SOL     OW10945   3.421   7.358   0.179
69683SOL    HW110946   3.506   7.320   0.156
69683SOL    HW210947   3.432   7.386   0.270
69684SOL     OW10948   7.569  10.706   1.226
69684SOL    HW110949   7.502  10.749   1.279
69684SOL    HW210950   7.536  10.617   1.213
69685SOL     OW10951   4.835  13.233  11.003
69685SOL    HW110952   4.757  13.277  11.035
69685SOL    HW210953   4.838  13.150  11.050
69686SOL     OW10954  11.282   2.194   4.204
69686SOL    HW110955  11.376   2.208   4.192
69686SOL    HW210956  11.255   2.146   4.126
69687SOL     OW10957   6.310   4.324   4.462
69687SOL    HW110958   6.300   4.233   4.435
69687SOL    HW210959   6.400   4.346   4.440
69688SOL     OW10960  10.216  14.589  11.119
69688SOL    HW110961  10.303  14.622  11.143
69688SOL    HW210962  10.187  14.541  11.196
69689SOL     OW10963   3.708   2.322   8.570
69689SOL    HW110964   3.748   2.237   8.583
69689SOL    HW210965   3.672   2.318   8.481
69690SOL     OW10966   3.029  13.306   5.924
69690SOL    HW110967   2.973  13.229   5.925
69690SOL    HW210968   3.114  13.274   5.954
69691SOL     OW10969   7.177  12.156  12.249
69691SOL    HW110970   7.192  12.099  12.324
69691SOL    HW210971   7.264  12.181  12.219
69692SOL     OW10972   2.653  10.686   6.804
69692SOL    HW110973   2.595  10.691   6.728
69692SOL    HW210974   2.723  10.748   6.786
69693SOL     OW10975   8.870   8.732   2.422
69693SOL    HW110976   8.926   8.689   2.487
69693SOL    HW210977   8.922   8.807   2.392
69694SOL     OW10978   8.388   2.029  13.084
69694SOL    HW110979   8.296   2.055  13.084
69694SOL    HW210980   8.413   2.028  13.176
69695SOL     OW10981   6.179   3.474   6.307
69695SOL    HW110982   6.204   3.557   6.349
69695SOL    HW210983   6.257   3.419   6.315
69696SOL     OW10984   2.467  11.441  14.471
69696SOL    HW110985   2.546  11.466  14.423
69696SOL    HW210986   2.431  11.524  14.503
69697SOL     OW10987   6.048  12.628   2.899
69697SOL    HW110988   5.982  12.696   2.886
69697SOL    HW210989   6.073  12.635   2.991
69698SOL     OW10990  14.690   5.352   5.868
69698SOL    HW110991  14.677   5.334   5.775
69698SOL    HW210992  14.760   5.417   5.871
69699SOL     OW10993   4.284   9.481   3.174
69699SOL    HW110994   4.344   9.411   3.148
69699SOL    HW210995   4.275   9.471   3.269
69700SOL     OW10996   6.957  11.646   5.155
69700SOL    HW110997   6.940  11.553   5.168
69700SOL    HW210998   6.915  11.667   5.071
69701SOL     OW10999   7.660  10.366   0.249
69701SOL    HW111000   7.677  10.380   0.343
69701SOL    HW211001   7.657  10.271   0.240
69702SOL     OW11002   7.656  10.869   0.431
69702SOL    HW111003   7.586  10.932   0.414
69702SOL    HW211004   7.619  10.808   0.495
69703SOL     OW11005   2.685   4.063  14.180
69703SOL    HW111006   2.674   3.968  14.171
69703SOL    HW211007   2.644   4.084  14.263
69704SOL     OW11008   7.712   5.874  14.569
69704SOL    HW111009   7.762   5.947  14.607
69704SOL    HW211010   7.681   5.908  14.485
69705SOL     OW11011   6.626  11.655  11.661
69705SOL    HW111012   6.650  11.648  11.753
69705SOL    HW211013   6.687  11.596  11.616
69706SOL     OW11014  13.481  14.535   8.173
69706SOL    HW111015  13.423  14.462   8.196
69706SOL    HW211016  13.558  14.522   8.228
69707SOL     OW11017  10.781  13.659  14.607
69707SOL    HW111018  10.756  13.580  14.655
69707SOL    HW211019  10.875  13.667  14.622
69708SOL     OW11020  14.665   1.942   8.022
69708SOL    HW111021  14.693   1.952   8.113
69708SOL    HW211022  14.701   1.858   7.994
69709SOL     OW11023  11.497   8.166   7.229
69709SOL    HW111024  11.463   8.231   7.168
69709SOL    HW211025  11.535   8.098   7.172
69710SOL     OW11026   1.838   4.185   7.132
69710SOL    HW111027   1.823   4.215   7.222
69710SOL    HW211028   1.752   4.159   7.101
69711SOL     OW11029  12.069  10.448   4.416
69711SOL    HW111030  12.082  10.528   4.364
69711SOL    HW211031  12.147  10.443   4.471
69712SOL     OW11032  14.744   1.826  13.144
69712SOL    HW111033  14.779   1.764  13.208
69712SOL    HW211034  14.726   1.905  13.195
69713SOL     OW11035  10.855   9.763   3.385
69713SOL    HW111036  10.897   9.828   3.441
69713SOL    HW211037  10.761   9.774   3.401
69714SOL     OW11038   0.472   9.208  11.265
69714SOL    HW111039   0.556   9.253  11.269
69714SOL    HW211040   0.493   9.115  11.275
69715SOL     OW11041  13.838  10.888   4.402
69715SOL    HW111042  13.793  10.805   4.420
69715SOL    HW211043  13.908  10.864   4.342
69716SOL     OW11044   5.179   4.587   5.168
69716SOL    HW111045   5.274   4.593   5.172
69716SOL    HW211046   5.158   4.586   5.074
69717SOL     OW11047   0.839   7.536  12.478
69717SOL    HW111048   0.800   7.543  12.564
69717SOL    HW211049   0.803   7.455  12.441
69718SOL     OW11050   1.088   9.985   6.505
69718SOL    HW111051   1.136   9.929   6.444
69718SOL    HW211052   1.057  10.059   6.451
69719SOL     OW11053  12.769   2.828   8.508
69719SOL    HW111054  12.710   2.752   8.505
69719SOL    HW211055  12.721   2.893   8.559
69720SOL     OW11056   9.167  11.618  11.574
69720SOL    HW111057   9.113  11.681  11.525
69720SOL    HW211058   9.118  11.536  11.571
69721SOL     OW11059   1.030   6.411   1.032
69721SOL    HW111060   1.003   6.359   1.107
69721SOL    HW211061   1.105   6.462   1.064
69722SOL     OW11062   7.738  13.931  14.827
69722SOL    HW111063   7.771  13.943  14.738
69722SOL    HW211064   7.715  14.019  14.856
69723SOL     OW11065   8.736  10.550  13.951
69723SOL    HW111066   8.687  10.627  13.924
69723SOL    HW211067   8.766  10.510  13.870
69724SOL     OW11068  14.572  12.105   0.729
69724SOL    HW111069  14.648  12.092   0.673
69724SOL    HW211070  14.513  12.033   0.707
69725SOL     OW11071   5.285   0.159   5.563
69725SOL    HW111072   5.272   0.088   5.626
69725SOL    HW211073   5.272   0.239   5.614
69726SOL     OW11074   4.629  11.188   9.786
69726SOL    HW111075   4.675  11.186   9.870
69726SOL    HW211076   4.608  11.096   9.768
69727SOL     OW11077   4.881   9.010  13.425
69727SOL    HW111078   4.819   9.068  13.469
69727SOL    HW211079   4.828   8.938  13.392
69728SOL     OW11080   1.264   0.113   0.614
69728SOL    HW111081   1.182   0.072   0.586
69728SOL    HW211082   1.246   0.207   0.613
69729SOL     OW11083   1.964   8.704   6.979
69729SOL    HW111084   1.896   8.750   6.929
69729SOL    HW211085   1.942   8.611   6.970
69730SOL     OW11086   5.466  11.810   9.891
69730SOL    HW111087   5.522  11.887   9.884
69730SOL    HW211088   5.389  11.832   9.837
69731SOL     OW11089   7.699  12.582  10.770
69731SOL    HW111090   7.738  12.512  10.822
69731SOL    HW211091   7.610  12.592  10.806
69732SOL     OW11092  12.447   8.169  13.647
69732SOL    HW111093  12.389   8.208  13.582
69732SOL    HW211094  12.478   8.088  13.606
69733SOL     OW11095   3.332   0.680   6.389
69733SOL    HW111096   3.341   0.607   6.451
69733SOL    HW211097   3.376   0.754   6.432
69734SOL     OW11098   2.891   6.987  12.090
69734SOL    HW111099   2.835   7.062  12.106
69734SOL    HW211100   2.918   6.996  11.998
69735SOL     OW11101   7.790  14.032  13.981
69735SOL    HW111102   7.882  14.030  14.007
69735SOL    HW211103   7.749  14.094  14.041
69736SOL     OW11104   7.234   2.854   6.547
69736SOL    HW111105   7.306   2.858   6.484
69736SOL    HW211106   7.156   2.849   6.493
69737SOL     OW11107   9.252   1.005   6.050
69737SOL    HW111108   9.339   0.997   6.090
69737SOL    HW211109   9.270   1.027   5.959
69738SOL     OW11110   5.314   0.717   7.756
69738SOL    HW111111   5.282   0.628   7.743
69738SOL    HW211112   5.353   0.716   7.844
69739SOL     OW11113   3.111   4.534  14.550
69739SOL    HW111114   3.152   4.604  14.600
69739SOL    HW211115   3.058   4.486  14.614
69740SOL     OW11116   2.019   5.158   4.310
69740SOL    HW111117   1.970   5.223   4.260
69740SOL    HW211118   2.039   5.089   4.246
69741SOL     OW11119   0.361  12.466   0.883
69741SOL    HW111120   0.338  12.416   0.962
69741SOL    HW211121   0.321  12.417   0.811
69742SOL     OW11122   6.207  12.399   6.764
69742SOL    HW111123   6.165  12.418   6.680
69742SOL    HW211124   6.142  12.424   6.829
69743SOL     OW11125   4.625  10.898   1.497
69743SOL    HW111126   4.600  10.867   1.584
69743SOL    HW211127   4.586  10.986   1.492
69744SOL     OW11128   2.447   1.060   3.912
69744SOL    HW111129   2.366   1.047   3.962
69744SOL    HW211130   2.438   1.003   3.836
69745SOL     OW11131  13.869   9.244   1.932
69745SOL    HW111132  13.804   9.300   1.890
69745SOL    HW211133  13.874   9.276   2.021
69746SOL     OW11134   0.843   9.840   3.827
69746SOL    HW111135   0.853   9.933   3.806
69746SOL    HW211136   0.924   9.817   3.872
69747SOL     OW11137  12.495   7.670  11.352
69747SOL    HW111138  12.493   7.630  11.439
69747SOL    HW211139  12.585   7.698  11.340
69748SOL     OW11140  11.772   8.125   6.045
69748SOL    HW111141  11.797   8.215   6.026
69748SOL    HW211142  11.687   8.114   6.003
69749SOL     OW11143  10.250  14.244  12.017
69749SOL    HW111144  10.230  14.160  11.975
69749SOL    HW211145  10.270  14.303  11.944
69750SOL     OW11146   6.920   7.820   5.413
69750SOL    HW111147   6.876   7.754   5.467
69750SOL    HW211148   6.850   7.878   5.384
69751SOL     OW11149  14.681   3.112  12.937
69751SOL    HW111150  14.735   3.177  12.893
69751SOL    HW211151  14.728   3.029  12.924
69752SOL     OW11152   7.513   1.651   9.285
69752SOL    HW111153   7.443   1.692   9.235
69752SOL    HW211154   7.593   1.693   9.254
69753SOL     OW11155  11.831   7.906  10.110
69753SOL    HW111156  11.906   7.899  10.050
69753SOL    HW211157  11.790   7.990  10.086
69754SOL     OW11158   5.367   5.615  11.822
69754SOL    HW111159   5.302   5.635  11.755
69754SOL    HW211160   5.331   5.652  11.903
69755SOL     OW11161   5.086  10.792  12.795
69755SOL    HW111162   5.022  10.839  12.741
69755SOL    HW211163   5.156  10.770  12.735
69756SOL     OW11164   4.276  11.983   9.900
69756SOL    HW111165   4.316  11.905   9.861
69756SOL    HW211166   4.316  11.990   9.987
69757SOL     OW11167   5.228  11.193   2.690
69757SOL    HW111168   5.295  11.197   2.621
69757SOL    HW211169   5.247  11.269   2.745
69758SOL     OW11170   4.786   0.704  11.119
69758SOL    HW111171   4.820   0.616  11.134
69758SOL    HW211172   4.862   0.761  11.131
69759SOL     OW11173   9.429   8.668  11.321
69759SOL    HW111174   9.489   8.702  11.255
69759SOL    HW211175   9.464   8.581  11.343
69760SOL     OW11176   6.123   8.932   2.073
69760SOL    HW111177   6.200   8.988   2.086
69760SOL    HW211178   6.152   8.867   2.009
69761SOL     OW11179   7.372   3.578  10.395
69761SOL    HW111180   7.332   3.652  10.440
69761SOL    HW211181   7.334   3.501  10.438
69762SOL     OW11182   8.299   5.785   4.855
69762SOL    HW111183   8.369   5.792   4.790
69762SOL    HW211184   8.233   5.729   4.814
69763SOL     OW11185  14.390  14.574  13.305
69763SOL    HW111186  14.305  14.567  13.349
69763SOL    HW211187  14.407  14.486  13.271
69764SOL     OW11188   3.851   8.118   8.738
69764SOL    HW111189   3.759   8.127   8.713
69764SOL    HW211190   3.898   8.112   8.654
69765SOL     OW11191   6.812  12.766   2.303
69765SOL    HW111192   6.863  12.780   2.223
69765SOL    HW211193   6.744  12.704   2.277
69766SOL     OW11194   4.469  13.605  10.791
69766SOL    HW111195   4.514  13.596  10.707
69766SOL    HW211196   4.395  13.663  10.773
69767SOL     OW11197   4.003   2.476   9.140
69767SOL    HW111198   4.016   2.523   9.057
69767SOL    HW211199   4.032   2.386   9.121
69768SOL     OW11200  10.563  11.454  10.917
69768SOL    HW111201  10.545  11.424  10.828
69768SOL    HW211202  10.582  11.548  10.907
69769SOL     OW11203   9.537   6.441   8.939
69769SOL    HW111204   9.595   6.379   8.983
69769SOL    HW211205   9.453   6.396   8.934
69770SOL     OW11206   0.652   1.399   2.195
69770SOL    HW111207   0.712   1.430   2.262
69770SOL    HW211208   0.622   1.479   2.151
69771SOL     OW11209  10.767   0.910   5.906
69771SOL    HW111210  10.857   0.939   5.896
69771SOL    HW211211  10.754   0.844   5.839
69772SOL     OW11212   9.990   5.530   1.606
69772SOL    HW111213  10.084   5.520   1.623
69772SOL    HW211214   9.953   5.553   1.691
69773SOL     OW11215  13.667   2.888   5.324
69773SOL    HW111216  13.697   2.835   5.398
69773SOL    HW211217  13.611   2.829   5.274
69774SOL     OW11218   1.107   8.492   8.196
69774SOL    HW111219   1.192   8.475   8.237
69774SOL    HW211220   1.120   8.575   8.150
69775SOL     OW11221  10.440   3.713   2.610
69775SOL    HW111222  10.355   3.754   2.594
69775SOL    HW211223  10.498   3.785   2.634
69776SOL     OW11224   8.926  11.399  10.602
69776SOL    HW111225   8.916  11.406  10.697
69776SOL    HW211226   8.988  11.327  10.590
69777SOL     OW11227  10.340   0.303  11.673
69777SOL    HW111228  10.418   0.318  11.619
69777SOL    HW211229  10.373   0.262  11.753
69778SOL     OW11230   4.512  11.396   3.524
69778SOL    HW111231   4.595  11.395   3.477
69778SOL    HW211232   4.516  11.474   3.579
69779SOL     OW11233  14.193   2.786   9.537
69779SOL    HW111234  14.146   2.760   9.616
69779SOL    HW211235  14.222   2.704   9.499
69780SOL     OW11236   4.872  11.343  13.288
69780SOL    HW111237   4.874  11.295  13.205
69780SOL    HW211238   4.785  11.324  13.324
69781SOL     OW11239   8.551   4.320   3.124
69781SOL    HW111240   8.577   4.250   3.185
69781SOL    HW211241   8.626   4.329   3.065
69782SOL     OW11242  10.092   7.905  13.629
69782SOL    HW111243  10.070   7.858  13.710
69782SOL    HW211244  10.062   7.847  13.559
69783SOL     OW11245   3.016   9.830   1.225
69783SOL    HW111246   2.998   9.919   1.254
69783SOL    HW211247   2.930   9.792   1.209
69784SOL     OW11248   1.432  11.473   6.903
69784SOL    HW111249   1.375  11.397   6.891
69784SOL    HW211250   1.483  11.452   6.982
69785SOL     OW11251   9.561   7.755   6.796
69785SOL    HW111252   9.652   7.728   6.784
69785SOL    HW211253   9.561   7.850   6.780
69786SOL     OW11254   0.676   9.837   3.628
69786SOL    HW111255   0.713   9.824   3.715
69786SOL    HW211256   0.723   9.775   3.573
69787SOL     OW11257   4.923  13.797  12.471
69787SOL    HW111258   4.900  13.719  12.523
69787SOL    HW211259   5.013  13.782  12.445
69788SOL     OW11260  10.520   8.503   7.378
69788SOL    HW111261  10.486   8.592   7.371
69788SOL    HW211262  10.598   8.502   7.322
69789SOL     OW11263  11.779   5.594   1.273
69789SOL    HW111264  11.864   5.623   1.308
69789SOL    HW211265  11.717   5.659   1.306
69790SOL     OW11266  12.555   2.469   4.035
69790SOL    HW111267  12.520   2.486   4.122
69790SOL    HW211268  12.491   2.410   3.995
69791SOL     OW11269  10.719   0.675   5.790
69791SOL    HW111270  10.760   0.606   5.841
69791SOL    HW211271  10.627   0.673   5.818
69792SOL     OW11272   9.132  10.412   1.397
69792SOL    HW111273   9.194  10.340   1.409
69792SOL    HW211274   9.185  10.485   1.366
69793SOL     OW11275   4.672   4.062  11.452
69793SOL    HW111276   4.651   3.969  11.445
69793SOL    HW211277   4.587   4.105  11.456
69794SOL     OW11278   5.348   1.485   3.777
69794SOL    HW111279   5.424   1.441   3.814
69794SOL    HW211280   5.347   1.571   3.818
69795SOL     OW11281   6.888   5.361  11.716
69795SOL    HW111282   6.961   5.421  11.709
69795SOL    HW211283   6.890   5.309  11.636
69796SOL     OW11284  13.958   0.857  12.942
69796SOL    HW111285  13.990   0.852  13.032
69796SOL    HW211286  13.892   0.926  12.943
69797SOL     OW11287   1.268   4.546   4.843
69797SOL    HW111288   1.187   4.595   4.859
69797SOL    HW211289   1.313   4.596   4.774
69798SOL     OW11290  12.492   8.924  13.370
69798SOL    HW111291  12.480   8.976  13.450
69798SOL    HW211292  12.414   8.868  13.367
69799SOL     OW11293  14.353   0.373   5.481
69799SOL    HW111294  14.361   0.341   5.391
69799SOL    HW211295  14.274   0.427   5.480
69800SOL     OW11296   8.256   2.334   8.687
69800SOL    HW111297   8.181   2.297   8.642
69800SOL    HW211298   8.229   2.422   8.712
69801SOL     OW11299   3.076   4.961   6.728
69801SOL    HW111300   3.133   4.900   6.775
69801SOL    HW211301   3.059   5.031   6.791
69802SOL     OW11302  12.181  13.347   6.467
69802SOL    HW111303  12.105  13.401   6.489
69802SOL    HW211304  12.254  13.409   6.463
69803SOL     OW11305   6.998   6.738   0.914
69803SOL    HW111306   7.060   6.808   0.936
69803SOL    HW211307   6.947   6.725   0.993
69804SOL     OW11308   3.381  12.366   7.952
69804SOL    HW111309   3.462  12.315   7.955
69804SOL    HW211310   3.315  12.309   7.991
69805SOL     OW11311  10.265   6.866  11.559
69805SOL    HW111312  10.259   6.771  11.547
69805SOL    HW211313  10.207   6.902  11.492
69806SOL     OW11314   8.807  14.835   7.464
69806SOL    HW111315   8.790   0.038   7.518
69806SOL    HW211316   8.815  14.869   7.375
69807SOL     OW11317  12.783  11.767  13.611
69807SOL    HW111318  12.789  11.684  13.659
69807SOL    HW211319  12.746  11.828  13.675
69808SOL     OW11320   1.363   0.229   9.459
69808SOL    HW111321   1.316   0.303   9.422
69808SOL    HW211322   1.358   0.242   9.554
69809SOL     OW11323   2.953   6.294   3.119
69809SOL    HW111324   3.002   6.291   3.037
69809SOL    HW211325   2.955   6.204   3.153
69810SOL     OW11326   9.598   3.602   4.734
69810SOL    HW111327   9.598   3.687   4.690
69810SOL    HW211328   9.508   3.590   4.764
69811SOL     OW11329  13.005   9.555   3.221
69811SOL    HW111330  13.054   9.498   3.281
69811SOL    HW211331  12.921   9.510   3.209
69812SOL     OW11332   4.239  12.477  14.525
69812SOL    HW111333   4.167  12.525  14.483
69812SOL    HW211334   4.318  12.516  14.487
69813SOL     OW11335   4.459   8.037   6.978
69813SOL    HW111336   4.438   8.042   7.071
69813SOL    HW211337   4.376   8.055   6.934
69814SOL     OW11338   3.206   4.594   3.660
69814SOL    HW111339   3.119   4.553   3.657
69814SOL    HW211340   3.243   4.579   3.572
69815SOL     OW11341   7.650   3.083   1.496
69815SOL    HW111342   7.693   3.152   1.445
69815SOL    HW211343   7.642   3.120   1.584
69816SOL     OW11344   4.405  14.753   0.215
69816SOL    HW111345   4.316  14.784   0.200
69816SOL    HW211346   4.461  14.824   0.182
69817SOL     OW11347  10.278  14.720   4.697
69817SOL    HW111348  10.297  14.677   4.613
69817SOL    HW211349  10.352  14.780   4.710
69818SOL     OW11350   9.941   7.085  13.782
69818SOL    HW111351   9.897   7.072  13.699
69818SOL    HW211352   9.879   7.055  13.848
69819SOL     OW11353  10.513   5.739   7.181
69819SOL    HW111354  10.466   5.682   7.242
69819SOL    HW211355  10.471   5.723   7.097
69820SOL     OW11356   8.924   4.686  14.164
69820SOL    HW111357   8.983   4.632  14.216
69820SOL    HW211358   8.859   4.718  14.226
69821SOL     OW11359   1.788  10.091   6.113
69821SOL    HW111360   1.737  10.075   6.192
69821SOL    HW211361   1.879  10.087   6.142
69822SOL     OW11362   6.435   1.501  10.605
69822SOL    HW111363   6.371   1.502  10.534
69822SOL    HW211364   6.392   1.453  10.676
69823SOL     OW11365   3.609  11.621   9.320
69823SOL    HW111366   3.618  11.549   9.257
69823SOL    HW211367   3.550  11.683   9.277
69824SOL     OW11368  14.418   7.416  10.210
69824SOL    HW111369  14.431   7.440  10.118
69824SOL    HW211370  14.472   7.478  10.259
69825SOL     OW11371  14.159  11.909   0.327
69825SOL    HW111372  14.209  11.989   0.343
69825SOL    HW211373  14.193  11.847   0.392
69826SOL     OW11374   8.946  14.050   5.438
69826SOL    HW111375   9.026  14.102   5.448
69826SOL    HW211376   8.935  14.042   5.343
69827SOL     OW11377   0.671   8.837   7.955
69827SOL    HW111378   0.627   8.789   8.025
69827SOL    HW211379   0.703   8.917   7.997
69828SOL     OW11380   2.583   7.609  14.675
69828SOL    HW111381   2.540   7.674  14.729
69828SOL    HW211382   2.522   7.535  14.674
69829SOL     OW11383  13.443   9.672   5.567
69829SOL    HW111384  13.457   9.664   5.662
69829SOL    HW211385  13.352   9.701   5.559
69830SOL     OW11386   3.653  11.143   2.829
69830SOL    HW111387   3.640  11.149   2.734
69830SOL    HW211388   3.697  11.225   2.852
69831SOL     OW11389  10.689   6.124   4.739
69831SOL    HW111390  10.594   6.119   4.751
69831SOL    HW211391  10.717   6.195   4.797
69832SOL     OW11392   7.218  12.490   8.584
69832SOL    HW111393   7.174  12.510   8.667
69832SOL    HW211394   7.148  12.489   8.519
69833SOL     OW11395   7.209  12.356  11.957
69833SOL    HW111396   7.124  12.373  11.998
69833SOL    HW211397   7.244  12.442  11.936
69834SOL     OW11398  10.893  12.600   8.950
69834SOL    HW111399  10.954  12.624   8.881
69834SOL    HW211400  10.811  12.644   8.926
69835SOL     OW11401  14.425   8.159  10.795
69835SOL    HW111402  14.394   8.172  10.705
69835SOL    HW211403  14.388   8.233  10.844
69836SOL     OW11404   5.872  12.004  10.773
69836SOL    HW111405   5.819  12.037  10.701
69836SOL    HW211406   5.848  12.060  10.847
69837SOL     OW11407   5.776  10.091   7.512
69837SOL    HW111408   5.856  10.060   7.471
69837SOL    HW211409   5.794  10.090   7.606
69838SOL     OW11410   1.578   9.748  10.317
69838SOL    HW111411   1.657   9.710  10.278
69838SOL    HW211412   1.508   9.721  10.258
69839SOL     OW11413   8.870   1.281  12.459
69839SOL    HW111414   8.791   1.318  12.422
69839SOL    HW211415   8.856   1.284  12.554
69840SOL     OW11416  10.993   3.137  13.989
69840SOL    HW111417  10.912   3.172  14.025
69840SOL    HW211418  11.026   3.206  13.931
69841SOL     OW11419   5.231   5.999  11.994
69841SOL    HW111420   5.277   5.987  11.911
69841SOL    HW211421   5.268   6.079  12.031
69842SOL     OW11422   0.597  12.453   0.323
69842SOL    HW111423   0.556  12.539   0.327
69842SOL    HW211424   0.684  12.466   0.360
69843SOL     OW11425   3.935   3.062  11.344
69843SOL    HW111426   3.851   3.087  11.305
69843SOL    HW211427   3.933   3.101  11.431
69844SOL     OW11428  11.310   0.144   8.058
69844SOL    HW111429  11.319   0.120   8.151
69844SOL    HW211430  11.353   0.072   8.011
69845SOL     OW11431   8.989  12.859  13.841
69845SOL    HW111432   8.894  12.849  13.840
69845SOL    HW211433   9.016  12.819  13.923
69846SOL     OW11434  13.924   5.568   2.418
69846SOL    HW111435  13.944   5.652   2.459
69846SOL    HW211436  13.958   5.576   2.329
69847SOL     OW11437   2.039   7.798   4.165
69847SOL    HW111438   2.093   7.747   4.106
69847SOL    HW211439   2.085   7.882   4.173
69848SOL     OW11440  11.899  14.306   7.653
69848SOL    HW111441  11.835  14.282   7.586
69848SOL    HW211442  11.854  14.370   7.708
69849SOL     OW11443   4.252   8.198   9.482
69849SOL    HW111444   4.212   8.185   9.396
69849SOL    HW211445   4.186   8.243   9.533
69850SOL     OW11446   6.915  13.369  11.789
69850SOL    HW111447   6.976  13.392  11.719
69850SOL    HW211448   6.868  13.292  11.756
69851SOL     OW11449  11.644   9.923   8.427
69851SOL    HW111450  11.638   9.926   8.522
69851SOL    HW211451  11.555   9.907   8.397
69852SOL     OW11452   7.519  14.024   4.946
69852SOL    HW111453   7.577  14.089   4.986
69852SOL    HW211454   7.503  13.960   5.016
69853SOL     OW11455   1.191  10.740   0.898
69853SOL    HW111456   1.125  10.767   0.962
69853SOL    HW211457   1.274  10.747   0.944
69854SOL     OW11458   6.955  12.072   1.060
69854SOL    HW111459   7.044  12.038   1.054
69854SOL    HW211460   6.900  11.997   1.039
69855SOL     OW11461   5.259   1.074   1.870
69855SOL    HW111462   5.349   1.100   1.849
69855SOL    HW211463   5.205   1.128   1.812
69856SOL     OW11464  13.231  14.258   4.886
69856SOL    HW111465  13.320  14.233   4.861
69856SOL    HW211466  13.202  14.317   4.816
69857SOL     OW11467   7.811  11.963   5.762
69857SOL    HW111468   7.885  11.911   5.730
69857SOL    HW211469   7.753  11.898   5.803
69858SOL     OW11470  10.694   0.983  11.925
69858SOL    HW111471  10.649   0.944  12.000
69858SOL    HW211472  10.639   0.960  11.850
69859SOL     OW11473   0.192  11.673   4.382
69859SOL    HW111474   0.195  11.596   4.439
69859SOL    HW211475   0.281  11.710   4.388
69860SOL     OW11476   2.130  10.943   4.168
69860SOL    HW111477   2.133  10.921   4.075
69860SOL    HW211478   2.061  10.887   4.204
69861SOL     OW11479   5.482   9.883   9.953
69861SOL    HW111480   5.529   9.815  10.000
69861SOL    HW211481   5.415   9.835   9.903
69862SOL     OW11482  11.700   4.319  11.944
69862SOL    HW111483  11.631   4.385  11.932
69862SOL    HW211484  11.693   4.294  12.036
69863SOL     OW11485   7.206   9.619   1.178
69863SOL    HW111486   7.153   9.560   1.231
69863SOL    HW211487   7.195   9.586   1.088
69864SOL     OW11488   0.528   8.931  11.193
69864SOL    HW111489   0.554   8.950  11.102
69864SOL    HW211490   0.589   8.864  11.222
69865SOL     OW11491  14.104   6.186  14.278
69865SOL    HW111492  14.023   6.158  14.319
69865SOL    HW211493  14.156   6.224  14.349
69866SOL     OW11494  14.021   0.388  13.206
69866SOL    HW111495  13.947   0.448  13.220
69866SOL    HW211496  14.034   0.345  13.291
69867SOL     OW11497   3.414  12.280   5.556
69867SOL    HW111498   3.463  12.362   5.550
69867SOL    HW211499   3.359  12.291   5.634
69868SOL     OW11500   9.048   5.723   6.885
69868SOL    HW111501   9.039   5.674   6.967
69868SOL    HW211502   8.961   5.720   6.846
69869SOL     OW11503  13.905   5.102  13.083
69869SOL    HW111504  13.886   5.181  13.133
69869SOL    HW211505  13.998   5.086  13.096
69870SOL     OW11506   2.715   1.211   2.127
69870SOL    HW111507   2.741   1.269   2.198
69870SOL    HW211508   2.779   1.139   2.130
69871SOL     OW11509   7.943  13.619   9.401
69871SOL    HW111510   7.903  13.578   9.324
69871SOL    HW211511   8.031  13.584   9.405
69872SOL     OW11512  13.649  14.471  13.992
69872SOL    HW111513  13.612  14.448  13.907
69872SOL    HW211514  13.598  14.421  14.056
69873SOL     OW11515   3.148   2.649   7.325
69873SOL    HW111516   3.070   2.669   7.273
69873SOL    HW211517   3.114   2.627   7.412
69874SOL     OW11518   0.135   5.642   9.969
69874SOL    HW111519   0.163   5.647  10.060
69874SOL    HW211520   0.040   5.648   9.973
69875SOL     OW11521   7.333   3.662   1.327
69875SOL    HW111522   7.260   3.723   1.316
69875SOL    HW211523   7.307   3.584   1.278
69876SOL     OW11524   2.790   1.703   4.418
69876SOL    HW111525   2.745   1.625   4.452
69876SOL    HW211526   2.882   1.690   4.442
69877SOL     OW11527   1.658   1.736   5.682
69877SOL    HW111528   1.598   1.770   5.748
69877SOL    HW211529   1.730   1.696   5.732
69878SOL     OW11530   8.419  11.776  14.252
69878SOL    HW111531   8.389  11.757  14.341
69878SOL    HW211532   8.491  11.838  14.263
69879SOL     OW11533  12.448  10.363  14.145
69879SOL    HW111534  12.514  10.336  14.080
69879SOL    HW211535  12.365  10.334  14.108
69880SOL     OW11536  12.612   5.062  12.790
69880SOL    HW111537  12.700   5.069  12.827
69880SOL    HW211538  12.605   5.138  12.732
69881SOL     OW11539   1.121   7.052   9.012
69881SOL    HW111540   1.120   7.117   9.082
69881SOL    HW211541   1.029   7.029   9.000
69882SOL     OW11542   3.886  14.086  10.152
69882SOL    HW111543   3.936  14.081  10.234
69882SOL    HW211544   3.886  13.997  10.117
69883SOL     OW11545  10.451   9.558   5.178
69883SOL    HW111546  10.449   9.643   5.134
69883SOL    HW211547  10.516   9.508   5.130
69884SOL     OW11548   2.352   2.398   8.133
69884SOL    HW111549   2.345   2.476   8.079
69884SOL    HW211550   2.266   2.357   8.129
69885SOL     OW11551   7.910   8.311  14.205
69885SOL    HW111552   7.910   8.225  14.164
69885SOL    HW211553   7.940   8.371  14.137
69886SOL     OW11554   1.717  13.797  11.286
69886SOL    HW111555   1.783  13.754  11.232
69886SOL    HW211556   1.718  13.888  11.257
69887SOL     OW11557  14.080   7.936   0.784
69887SOL    HW111558  14.135   7.935   0.706
69887SOL    HW211559  13.998   7.895   0.757
69888SOL     OW11560   9.884  12.685   0.189
69888SOL    HW111561   9.832  12.616   0.231
69888SOL    HW211562   9.840  12.699   0.105
69889SOL     OW11563  14.157   0.397   1.444
69889SOL    HW111564  14.199   0.345   1.375
69889SOL    HW211565  14.088   0.445   1.398
69890SOL     OW11566   3.273   9.658   3.994
69890SOL    HW111567   3.192   9.657   3.943
69890SOL    HW211568   3.243   9.649   4.085
69891SOL     OW11569   2.414   4.616   5.029
69891SOL    HW111570   2.408   4.692   5.088
69891SOL    HW211571   2.503   4.583   5.044
69892SOL     OW11572   5.034   4.392   5.324
69892SOL    HW111573   5.071   4.347   5.399
69892SOL    HW211574   5.109   4.413   5.269
69893SOL     OW11575  14.629   9.868   3.753
69893SOL    HW111576  14.685   9.813   3.697
69893SOL    HW211577  14.690   9.908   3.814
69894SOL     OW11578   9.473   1.614   0.800
69894SOL    HW111579   9.547   1.623   0.740
69894SOL    HW211580   9.486   1.529   0.841
69895SOL     OW11581  14.400  11.826  10.408
69895SOL    HW111582  14.313  11.831  10.447
69895SOL    HW211583  14.447  11.762  10.461
69896SOL     OW11584   2.298  11.134   5.374
69896SOL    HW111585   2.321  11.083   5.452
69896SOL    HW211586   2.361  11.206   5.373
69897SOL     OW11587  11.790   7.757   6.604
69897SOL    HW111588  11.826   7.676   6.567
69897SOL    HW211589  11.829   7.827   6.552
69898SOL     OW11590  14.462   7.848   3.128
69898SOL    HW111591  14.420   7.826   3.045
69898SOL    HW211592  14.554   7.824   3.115
69899SOL     OW11593   1.474  14.499  13.495
69899SOL    HW111594   1.486  14.594  13.491
69899SOL    HW211595   1.515  14.467  13.414
69900SOL     OW11596   8.920  11.850   1.995
69900SOL    HW111597   8.975  11.869   1.918
69900SOL    HW211598   8.979  11.863   2.070
69901SOL     OW11599  13.041   4.379   2.239
69901SOL    HW111600  13.124   4.344   2.206
69901SOL    HW211601  12.997   4.413   2.161
69902SOL     OW11602  12.122   0.290  11.147
69902SOL    HW111603  12.170   0.246  11.077
69902SOL    HW211604  12.188   0.337  11.196
69903SOL     OW11605   6.068   1.562  13.568
69903SOL    HW111606   6.106   1.474  13.580
69903SOL    HW211607   6.144   1.618  13.549
69904SOL     OW11608   9.407   5.623   3.425
69904SOL    HW111609   9.383   5.531   3.410
69904SOL    HW211610   9.503   5.623   3.420
69905SOL     OW11611   6.793  12.284  11.981
69905SOL    HW111612   6.753  12.351  12.036
69905SOL    HW211613   6.875  12.263  12.024
69906SOL     OW11614   9.955   0.503   4.366
69906SOL    HW111615   9.947   0.596   4.390
69906SOL    HW211616   9.865   0.471   4.362
69907SOL     OW11617   0.348  12.953  12.821
69907SOL    HW111618   0.368  12.909  12.903
69907SOL    HW211619   0.263  12.995  12.836
69908SOL     OW11620  10.814   3.626   3.785
69908SOL    HW111621  10.882   3.621   3.718
69908SOL    HW211622  10.810   3.719   3.807
69909SOL     OW11623   1.312   9.651   0.612
69909SOL    HW111624   1.233   9.704   0.600
69909SOL    HW211625   1.290   9.566   0.573
69910SOL     OW11626   4.143  13.953  11.794
69910SOL    HW111627   4.181  13.866  11.783
69910SOL    HW211628   4.209  14.001  11.844
69911SOL     OW11629   3.129   3.504   1.525
69911SOL    HW111630   3.118   3.537   1.436
69911SOL    HW211631   3.192   3.563   1.566
69912SOL     OW11632  12.977   6.923   7.714
69912SOL    HW111633  12.892   6.924   7.760
69912SOL    HW211634  12.964   6.863   7.641
69913SOL     OW11635   9.835   7.099  14.845
69913SOL    HW111636   9.913   7.060   0.008
69913SOL    HW211637   9.808   7.166   0.032
69914SOL     OW11638  13.086   0.383   0.593
69914SOL    HW111639  13.028   0.308   0.582
69914SOL    HW211640  13.081   0.403   0.686
69915SOL     OW11641   5.000  11.118   1.633
69915SOL    HW111642   4.921  11.069   1.609
69915SOL    HW211643   5.032  11.153   1.550
69916SOL     OW11644   3.641  14.412   5.544
69916SOL    HW111645   3.696  14.417   5.465
69916SOL    HW211646   3.700  14.383   5.613
69917SOL     OW11647   4.371   7.891   5.207
69917SOL    HW111648   4.361   7.870   5.114
69917SOL    HW211649   4.462   7.920   5.216
69918SOL     OW11650   3.473  10.885  13.250
69918SOL    HW111651   3.450  10.842  13.168
69918SOL    HW211652   3.520  10.817  13.299
69919SOL     OW11653   6.169   5.371  13.001
69919SOL    HW111654   6.099   5.319  12.962
69919SOL    HW211655   6.182   5.332  13.087
69920SOL     OW11656   2.311  10.284  11.767
69920SOL    HW111657   2.265  10.201  11.755
69920SOL    HW211658   2.403  10.259  11.774
69921SOL     OW11659   9.591  13.974  11.580
69921SOL    HW111660   9.539  13.904  11.540
69921SOL    HW211661   9.531  14.015  11.642
69922SOL     OW11662   8.284   1.677   0.915
69922SOL    HW111663   8.362   1.725   0.887
69922SOL    HW211664   8.277   1.694   1.009
69923SOL     OW11665  13.633   6.791  11.723
69923SOL    HW111666  13.660   6.700  11.733
69923SOL    HW211667  13.636   6.807  11.629
69924SOL     OW11668   9.357   3.805   1.495
69924SOL    HW111669   9.413   3.843   1.426
69924SOL    HW211670   9.283   3.865   1.501
69925SOL     OW11671   8.755   5.232   4.658
69925SOL    HW111672   8.849   5.213   4.659
69925SOL    HW211673   8.714   5.146   4.645
69926SOL     OW11674   4.277   2.699   5.519
69926SOL    HW111675   4.280   2.716   5.424
69926SOL    HW211676   4.368   2.699   5.546
69927SOL     OW11677  10.710   5.921   7.468
69927SOL    HW111678  10.706   5.946   7.376
69927SOL    HW211679  10.634   5.964   7.508
69928SOL     OW11680  14.215   4.322   4.878
69928SOL    HW111681  14.174   4.407   4.868
69928SOL    HW211682  14.211   4.283   4.791
69929SOL     OW11683   8.994  11.362   5.258
69929SOL    HW111684   8.997  11.455   5.281
69929SOL    HW211685   8.948  11.321   5.332
69930SOL     OW11686   1.154  10.369   0.483
69930SOL    HW111687   1.101  10.337   0.411
69930SOL    HW211688   1.147  10.465   0.478
69931SOL     OW11689   3.585   3.259  12.942
69931SOL    HW111690   3.546   3.182  12.900
69931SOL    HW211691   3.511   3.302  12.985
69932SOL     OW11692   5.957  10.225   1.608
69932SOL    HW111693   5.909  10.260   1.533
69932SOL    HW211694   5.903  10.249   1.684
69933SOL     OW11695  11.471   4.799  11.013
69933SOL    HW111696  11.468   4.829  11.104
69933SOL    HW211697  11.560   4.820  10.984
69934SOL     OW11698   6.029   9.301   6.911
69934SOL    HW111699   5.968   9.339   6.848
69934SOL    HW211700   5.998   9.334   6.996
69935SOL     OW11701   9.161   9.319   2.589
69935SOL    HW111702   9.195   9.326   2.500
69935SOL    HW211703   9.089   9.382   2.593
69936SOL     OW11704   0.689  11.722   5.284
69936SOL    HW111705   0.765  11.687   5.238
69936SOL    HW211706   0.689  11.675   5.368
69937SOL     OW11707   8.032  13.809   2.617
69937SOL    HW111708   8.110  13.774   2.574
69937SOL    HW211709   8.020  13.896   2.579
69938SOL     OW11710   5.454   9.457   9.868
69938SOL    HW111711   5.405   9.398   9.926
69938SOL    HW211712   5.450   9.415   9.782
69939SOL     OW11713   2.043  11.649   0.140
69939SOL    HW111714   2.105  11.712   0.176
69939SOL    HW211715   2.033  11.675   0.048
69940SOL     OW11716   0.230   9.783   9.940
69940SOL    HW111717   0.310   9.798   9.890
69940SOL    HW211718   0.215   9.688   9.932
69941SOL     OW11719   2.948   1.850  14.779
69941SOL    HW111720   2.964   1.906  14.855
69941SOL    HW211721   3.024   1.792  14.775
69942SOL     OW11722   4.486   2.094  13.466
69942SOL    HW111723   4.447   2.013  13.434
69942SOL    HW211724   4.429   2.163  13.432
69943SOL     OW11725   9.509  11.564   0.768
69943SOL    HW111726   9.489  11.596   0.856
69943SOL    HW211727   9.451  11.614   0.711
69944SOL     OW11728   6.415   9.604   2.177
69944SOL    HW111729   6.384   9.641   2.095
69944SOL    HW211730   6.481   9.666   2.208
69945SOL     OW11731   3.495   8.739  12.686
69945SOL    HW111732   3.435   8.798  12.733
69945SOL    HW211733   3.447   8.656  12.680
69946SOL     OW11734   6.550  10.648   0.487
69946SOL    HW111735   6.507  10.616   0.408
69946SOL    HW211736   6.480  10.655   0.552
69947SOL     OW11737   8.071  13.000  14.072
69947SOL    HW111738   8.091  12.907  14.089
69947SOL    HW211739   7.987  12.999  14.026
69948SOL     OW11740   9.653   8.644   8.752
69948SOL    HW111741   9.708   8.575   8.714
69948SOL    HW211742   9.581   8.596   8.794
69949SOL     OW11743   4.175   5.562  11.474
69949SOL    HW111744   4.113   5.627  11.443
69949SOL    HW211745   4.122   5.502  11.527
69950SOL     OW11746  13.629   6.227   8.533
69950SOL    HW111747  13.687   6.271   8.595
69950SOL    HW211748  13.654   6.135   8.537
69951SOL     OW11749   5.268   6.632   9.756
69951SOL    HW111750   5.204   6.654   9.824
69951SOL    HW211751   5.342   6.595   9.805
69952SOL     OW11752  14.698   8.116   7.639
69952SOL    HW111753  14.652   8.200   7.651
69952SOL    HW211754  14.667   8.084   7.554
69953SOL     OW11755   4.024  10.662   4.587
69953SOL    HW111756   4.093  10.596   4.580
69953SOL    HW211757   3.963  10.641   4.516
69954SOL     OW11758   5.572  10.197   1.849
69954SOL    HW111759   5.664  10.217   1.832
69954SOL    HW211760   5.532  10.191   1.762
69955SOL     OW11761  10.140   0.265  10.803
69955SOL    HW111762  10.146   0.356  10.775
69955SOL    HW211763  10.094   0.221  10.731
69956SOL     OW11764  14.411   6.814   2.315
69956SOL    HW111765  14.463   6.844   2.389
69956SOL    HW211766  14.458   6.846   2.238
69957SOL     OW11767  11.533   2.209   8.977
69957SOL    HW111768  11.567   2.133   9.024
69957SOL    HW211769  11.502   2.174   8.893
69958SOL     OW11770   3.220  13.429  14.157
69958SOL    HW111771   3.207  13.517  14.122
69958SOL    HW211772   3.312  13.408  14.137
69959SOL     OW11773  14.362   9.625  11.850
69959SOL    HW111774  14.328   9.668  11.928
69959SOL    HW211775  14.432   9.568  11.883
69960SOL     OW11776   3.594   5.045  11.716
69960SOL    HW111777   3.549   4.966  11.687
69960SOL    HW211778   3.687   5.024  11.709
69961SOL     OW11779   8.041   2.381   9.003
69961SOL    HW111780   8.054   2.290   8.978
69961SOL    HW211781   8.054   2.382   9.098
69962SOL     OW11782   5.732  12.492   9.796
69962SOL    HW111783   5.663  12.555   9.776
69962SOL    HW211784   5.781  12.483   9.714
69963SOL     OW11785  14.348  13.507   1.270
69963SOL    HW111786  14.323  13.425   1.228
69963SOL    HW211787  14.277  13.568   1.246
69964SOL     OW11788   4.999   6.203   2.512
69964SOL    HW111789   5.081   6.158   2.534
69964SOL    HW211790   4.937   6.133   2.495
69965SOL     OW11791  12.778   3.832  11.981
69965SOL    HW111792  12.716   3.787  11.924
69965SOL    HW211793  12.741   3.920  11.993
69966SOL     OW11794   8.227  14.659   9.124
69966SOL    HW111795   8.207  14.568   9.103
69966SOL    HW211796   8.241  14.701   9.040
69967SOL     OW11797   5.119  14.270  10.446
69967SOL    HW111798   5.057  14.202  10.471
69967SOL    HW211799   5.092  14.298  10.359
69968SOL     OW11800   7.504  11.105   1.906
69968SOL    HW111801   7.525  11.016   1.935
69968SOL    HW211802   7.473  11.149   1.985
69969SOL     OW11803   8.693   7.346  13.285
69969SOL    HW111804   8.603   7.377  13.300
69969SOL    HW211805   8.720   7.311  13.370
69970SOL     OW11806   6.892   0.507   1.662
69970SOL    HW111807   6.960   0.553   1.612
69970SOL    HW211808   6.934   0.486   1.746
69971SOL     OW11809  13.132   7.668   9.188
69971SOL    HW111810  13.217   7.708   9.172
69971SOL    HW211811  13.095   7.654   9.101
69972SOL     OW11812   8.924   2.046   9.828
69972SOL    HW111813   8.939   2.100   9.750
69972SOL    HW211814   8.984   2.082   9.894
69973SOL     OW11815  10.572  14.851   9.325
69973SOL    HW111816  10.512  14.838   9.398
69973SOL    HW211817  10.610  14.764   9.310
69974SOL     OW11818  10.113   6.289   4.488
69974SOL    HW111819  10.184   6.334   4.533
69974SOL    HW211820  10.079   6.227   4.552
69975SOL     OW11821  13.556  10.291   9.100
69975SOL    HW111822  13.463  10.284   9.121
69975SOL    HW211823  13.562  10.264   9.008
69976SOL     OW11824   7.909   0.728   6.686
69976SOL    HW111825   7.854   0.776   6.624
69976SOL    HW211826   7.991   0.777   6.688
69977SOL     OW11827  14.155   3.232   7.504
69977SOL    HW111828  14.246   3.252   7.484
69977SOL    HW211829  14.150   3.235   7.600
69978SOL     OW11830  12.938   9.951   5.306
69978SOL    HW111831  12.976  10.032   5.273
69978SOL    HW211832  12.859   9.937   5.253
69979SOL     OW11833  14.523  10.472   8.184
69979SOL    HW111834  14.592  10.453   8.247
69979SOL    HW211835  14.443  10.440   8.226
69980SOL     OW11836   4.984   0.417   1.441
69980SOL    HW111837   5.058   0.380   1.392
69980SOL    HW211838   4.912   0.356   1.424
69981SOL     OW11839   5.507   0.619   0.657
69981SOL    HW111840   5.573   0.554   0.631
69981SOL    HW211841   5.428   0.568   0.673
69982SOL     OW11842   2.137   4.254   4.223
69982SOL    HW111843   2.202   4.202   4.271
69982SOL    HW211844   2.135   4.215   4.136
69983SOL     OW11845   9.494  14.682   1.125
69983SOL    HW111846   9.418  14.730   1.156
69983SOL    HW211847   9.566  14.710   1.182
69984SOL     OW11848   0.321  11.721   2.415
69984SOL    HW111849   0.239  11.764   2.439
69984SOL    HW211850   0.342  11.757   2.328
69985SOL     OW11851   2.734   1.543  10.373
69985SOL    HW111852   2.793   1.618  10.381
69985SOL    HW211853   2.661   1.563  10.432
69986SOL     OW11854  12.387   1.404  11.883
69986SOL    HW111855  12.477   1.373  11.877
69986SOL    HW211856  12.386   1.460  11.960
69987SOL     OW11857  14.831  14.466   5.381
69987SOL    HW111858  14.783  14.402   5.329
69987SOL    HW211859   0.037  14.482   5.332
69988SOL     OW11860   6.006   7.823  13.853
69988SOL    HW111861   6.071   7.756  13.832
69988SOL    HW211862   6.057   7.904  13.860
69989SOL     OW11863   9.684   9.270   1.522
69989SOL    HW111864   9.601   9.312   1.541
69989SOL    HW211865   9.676   9.242   1.431
69990SOL     OW11866  14.691   7.706   8.471
69990SOL    HW111867  14.628   7.775   8.448
69990SOL    HW211868  14.640   7.642   8.520
69991SOL     OW11869  10.777  12.500   5.169
69991SOL    HW111870  10.717  12.550   5.224
69991SOL    HW211871  10.723  12.431   5.131
69992SOL     OW11872   1.715   9.898  10.031
69992SOL    HW111873   1.630   9.933  10.008
69992SOL    HW211874   1.711   9.806  10.005
69993SOL     OW11875   1.733   8.309  11.226
69993SOL    HW111876   1.759   8.236  11.169
69993SOL    HW211877   1.757   8.280  11.314
69994SOL     OW11878   4.176   2.767  11.821
69994SOL    HW111879   4.148   2.723  11.901
69994SOL    HW211880   4.221   2.699  11.770
69995SOL     OW11881   2.735   4.384  11.162
69995SOL    HW111882   2.780   4.304  11.187
69995SOL    HW211883   2.736   4.383  11.066
69996SOL     OW11884   5.072  10.059   0.847
69996SOL    HW111885   5.164  10.070   0.874
69996SOL    HW211886   5.023  10.073   0.928
69997SOL     OW11887  11.286   4.386   6.362
69997SOL    HW111888  11.281   4.425   6.275
69997SOL    HW211889  11.380   4.384   6.382
69998SOL     OW11890   0.467  14.279  12.978
69998SOL    HW111891   0.454  14.210  13.043
69998SOL    HW211892   0.476  14.359  13.030
69999SOL     OW11893  10.370   7.491   8.285
69999SOL    HW111894  10.404   7.450   8.206
69999SOL    HW211895  10.312   7.560   8.253
70000SOL     OW11896   1.118  12.935  12.096
70000SOL    HW111897   1.101  12.907  12.186
70000SOL    HW211898   1.085  13.025  12.092
70001SOL     OW11899   9.030  11.461   1.669
70001SOL    HW111900   8.947  11.421   1.695
70001SOL    HW211901   9.008  11.553   1.654
70002SOL     OW11902   3.544   6.305  10.874
70002SOL    HW111903   3.489   6.235  10.841
70002SOL    HW211904   3.534   6.302  10.969
70003SOL     OW11905  13.992   8.004   5.762
70003SOL    HW111906  13.923   8.070   5.765
70003SOL    HW211907  13.962   7.936   5.822
70004SOL     OW11908  12.406  12.177   3.514
70004SOL    HW111909  12.317  12.209   3.497
70004SOL    HW211910  12.438  12.148   3.428
70005SOL     OW11911   1.166  14.711  10.591
70005SOL    HW111912   1.198  14.751  10.672
70005SOL    HW211913   1.099  14.649  10.619
70006SOL     OW11914   9.491  14.329   9.739
70006SOL    HW111915   9.586  14.332   9.733
70006SOL    HW211916   9.473  14.310   9.832
70007SOL     OW11917  14.053  10.154   5.088
70007SOL    HW111918  13.996  10.098   5.140
70007SOL    HW211919  14.081  10.099   5.015
70008SOL     OW11920   9.957   7.240   4.611
70008SOL    HW111921   9.985   7.331   4.608
70008SOL    HW211922  10.004   7.202   4.685
70009SOL     OW11923   5.143  11.583   0.753
70009SOL    HW111924   5.173  11.613   0.667
70009SOL    HW211925   5.192  11.637   0.816
70010SOL     OW11926   3.169   4.907   7.310
70010SOL    HW111927   3.158   5.001   7.323
70010SOL    HW211928   3.264   4.893   7.307
70011SOL     OW11929   7.143  12.072   0.674
70011SOL    HW111930   7.049  12.060   0.666
70011SOL    HW211931   7.171  12.104   0.588
70012SOL     OW11932   0.161  13.940   7.415
70012SOL    HW111933   0.205  13.931   7.500
70012SOL    HW211934   0.076  13.979   7.435
70013SOL     OW11935   3.189  11.320  12.037
70013SOL    HW111936   3.128  11.306  11.964
70013SOL    HW211937   3.205  11.415  12.036
70014SOL     OW11938   4.167   7.705   2.940
70014SOL    HW111939   4.094   7.767   2.932
70014SOL    HW211940   4.225   7.744   3.005
70015SOL     OW11941   7.339   6.022   6.836
70015SOL    HW111942   7.378   5.938   6.858
70015SOL    HW211943   7.394   6.087   6.881
70016SOL     OW11944  13.402  12.322  13.821
70016SOL    HW111945  13.387  12.355  13.732
70016SOL    HW211946  13.315  12.300  13.854
70017SOL     OW11947   9.330  10.987  14.046
70017SOL    HW111948   9.343  11.049  14.118
70017SOL    HW211949   9.415  10.984  14.001
70018SOL     OW11950   1.076  14.754   1.287
70018SOL    HW111951   1.065  14.728   1.196
70018SOL    HW211952   0.987  14.769   1.319
70019SOL     OW11953  14.738   5.727   7.355
70019SOL    HW111954  14.828   5.697   7.338
70019SOL    HW211955  14.727   5.802   7.297
70020SOL     OW11956   7.153  14.311  12.023
70020SOL    HW111957   7.234  14.347  12.059
70020SOL    HW211958   7.166  14.216  12.024
70021SOL     OW11959  11.591   9.488   5.708
70021SOL    HW111960  11.685   9.498   5.723
70021SOL    HW211961  11.581   9.396   5.682
70022SOL     OW11962   1.159  13.442   7.069
70022SOL    HW111963   1.065  13.441   7.047
70022SOL    HW211964   1.161  13.461   7.163
70023SOL     OW11965   1.939   6.121   1.057
70023SOL    HW111966   1.897   6.181   0.996
70023SOL    HW211967   2.013   6.170   1.093
70024SOL     OW11968   6.344  13.518   1.026
70024SOL    HW111969   6.276  13.492   1.088
70024SOL    HW211970   6.414  13.554   1.081
70025SOL     OW11971   4.018   0.170   1.309
70025SOL    HW111972   4.095   0.142   1.260
70025SOL    HW211973   4.051   0.197   1.394
70026SOL     OW11974   0.444   5.129   2.763
70026SOL    HW111975   0.349   5.131   2.755
70026SOL    HW211976   0.468   5.218   2.789
70027SOL     OW11977   8.579   0.001   5.507
70027SOL    HW111978   8.534   0.078   5.474
70027SOL    HW211979   8.513  14.807   5.507
70028SOL     OW11980   1.004  12.076   3.246
70028SOL    HW111981   1.099  12.063   3.242
70028SOL    HW211982   0.993  12.169   3.264
70029SOL     OW11983  13.740   3.510  12.711
70029SOL    HW111984  13.806   3.442  12.697
70029SOL    HW211985  13.675   3.496  12.643
70030SOL     OW11986   4.146   0.048   3.623
70030SOL    HW111987   4.229   0.026   3.666
70030SOL    HW211988   4.138  14.860   3.552
70031SOL     OW11989   0.436  12.014   0.760
70031SOL    HW111990   0.435  11.922   0.734
70031SOL    HW211991   0.346  12.033   0.786
70032SOL     OW11992   7.721  12.840   6.796
70032SOL    HW111993   7.777  12.792   6.856
70032SOL    HW211994   7.673  12.772   6.748
70033SOL     OW11995   1.743   0.190   2.921
70033SOL    HW111996   1.652   0.212   2.940
70033SOL    HW211997   1.749   0.097   2.941
70034SOL     OW11998   4.191  10.411   3.316
70034SOL    HW111999   4.271  10.422   3.264
70034SOL    HW212000   4.137  10.486   3.291
70035SOL     OW12001   7.923  13.035   4.696
70035SOL    HW112002   7.976  13.060   4.771
70035SOL    HW212003   7.868  12.963   4.728
70036SOL     OW12004   6.312  13.245   9.983
70036SOL    HW112005   6.392  13.294  10.005
70036SOL    HW212006   6.267  13.233  10.066
70037SOL     OW12007   0.110   5.619   3.027
70037SOL    HW112008   0.041   5.552   3.029
70037SOL    HW212009   0.066   5.700   3.053
70038SOL     OW12010   2.460  14.133   6.886
70038SOL    HW112011   2.500  14.168   6.966
70038SOL    HW212012   2.402  14.202   6.856
70039SOL     OW12013   3.407   5.634   6.791
70039SOL    HW112014   3.502   5.641   6.781
70039SOL    HW212015   3.383   5.556   6.740
70040SOL     OW12016   8.480   1.814   9.120
70040SOL    HW112017   8.390   1.840   9.100
70040SOL    HW212018   8.534   1.875   9.069
70041SOL     OW12019   1.564  10.817  14.580
70041SOL    HW112020   1.608  10.901  14.595
70041SOL    HW212021   1.608  10.756  14.639
70042SOL     OW12022   3.450   3.547  11.229
70042SOL    HW112023   3.495   3.533  11.146
70042SOL    HW212024   3.465   3.466  11.278
70043SOL     OW12025   6.789   4.076  11.131
70043SOL    HW112026   6.809   4.153  11.079
70043SOL    HW212027   6.848   4.082  11.206
70044SOL     OW12028   7.307   0.336  14.277
70044SOL    HW112029   7.388   0.286  14.284
70044SOL    HW212030   7.334   0.421  14.243
70045SOL     OW12031   9.616   8.969   8.768
70045SOL    HW112032   9.701   8.927   8.765
70045SOL    HW212033   9.580   8.960   8.680
70046SOL     OW12034   9.929   7.565  10.530
70046SOL    HW112035   9.900   7.478  10.559
70046SOL    HW212036   9.855   7.598  10.478
70047SOL     OW12037   8.917   4.322   0.373
70047SOL    HW112038   8.950   4.243   0.416
70047SOL    HW212039   8.855   4.359   0.436
70048SOL     OW12040  11.277   8.246   7.719
70048SOL    HW112041  11.340   8.222   7.651
70048SOL    HW212042  11.196   8.201   7.694
70049SOL     OW12043   9.788  12.350   2.426
70049SOL    HW112044   9.833  12.353   2.510
70049SOL    HW212045   9.858  12.357   2.361
70050SOL     OW12046  13.802  14.605   9.896
70050SOL    HW112047  13.873  14.667   9.880
70050SOL    HW212048  13.724  14.649   9.863
70051SOL     OW12049   8.064   1.267   4.365
70051SOL    HW112050   8.141   1.323   4.357
70051SOL    HW212051   8.070   1.230   4.453
70052SOL     OW12052  11.109  11.006   0.419
70052SOL    HW112053  11.135  11.077   0.479
70052SOL    HW212054  11.186  10.950   0.413
70053SOL     OW12055  11.751   1.171   0.303
70053SOL    HW112056  11.785   1.229   0.234
70053SOL    HW212057  11.683   1.223   0.346
70054SOL     OW12058   4.368   8.619   7.757
70054SOL    HW112059   4.433   8.571   7.808
70054SOL    HW212060   4.420   8.673   7.697
70055SOL     OW12061  11.525   5.829   5.291
70055SOL    HW112062  11.484   5.914   5.270
70055SOL    HW212063  11.498   5.811   5.381
70056SOL     OW12064  13.011   8.791   2.106
70056SOL    HW112065  12.956   8.722   2.069
70056SOL    HW212066  13.010   8.861   2.041
70057SOL     OW12067   3.172  13.427  10.666
70057SOL    HW112068   3.229  13.459  10.735
70057SOL    HW212069   3.171  13.332  10.677
70058SOL     OW12070   7.747  10.664   9.531
70058SOL    HW112071   7.653  10.649   9.532
70058SOL    HW212072   7.776  10.632   9.445
70059SOL     OW12073  14.729   2.647   3.283
70059SOL    HW112074  14.665   2.695   3.336
70059SOL    HW212075  14.680   2.616   3.207
70060SOL     OW12076  14.566   5.530  14.150
70060SOL    HW112077  14.614   5.557  14.072
70060SOL    HW212078  14.624   5.551  14.223
70061SOL     OW12079  13.840   9.643   1.370
70061SOL    HW112080  13.934   9.627   1.369
70061SOL    HW212081  13.825   9.704   1.298
70062SOL     OW12082  12.361   0.296  10.676
70062SOL    HW112083  12.357   0.380  10.720
70062SOL    HW212084  12.278   0.289  10.630
70063SOL     OW12085   5.874  13.096   8.002
70063SOL    HW112086   5.880  13.132   8.091
70063SOL    HW212087   5.842  13.169   7.949
70064SOL     OW12088   4.435   6.678   2.414
70064SOL    HW112089   4.407   6.770   2.409
70064SOL    HW212090   4.353   6.629   2.421
70065SOL     OW12091   2.762   6.743  11.620
70065SOL    HW112092   2.742   6.780  11.706
70065SOL    HW212093   2.852   6.711  11.628
70066SOL     OW12094   3.526   3.574   6.450
70066SOL    HW112095   3.550   3.666   6.443
70066SOL    HW212096   3.546   3.537   6.364
70067SOL     OW12097   7.108  13.428   4.771
70067SOL    HW112098   7.140  13.392   4.853
70067SOL    HW212099   7.135  13.364   4.705
70068SOL     OW12100   8.382  11.711   2.819
70068SOL    HW112101   8.348  11.627   2.789
70068SOL    HW212102   8.472  11.713   2.788
70069SOL     OW12103   6.194   4.228  10.830
70069SOL    HW112104   6.222   4.315  10.857
70069SOL    HW212105   6.217   4.172  10.904
70070SOL     OW12106   2.174   8.943  10.065
70070SOL    HW112107   2.119   9.020  10.051
70070SOL    HW212108   2.122   8.870  10.031
70071SOL     OW12109   0.967   8.995   0.189
70071SOL    HW112110   0.944   8.918   0.137
70071SOL    HW212111   0.931   8.976   0.276
70072SOL     OW12112   0.406   9.838   8.505
70072SOL    HW112113   0.338   9.791   8.457
70072SOL    HW212114   0.359   9.902   8.558
70073SOL     OW12115  11.164  11.667   7.451
70073SOL    HW112116  11.136  11.576   7.464
70073SOL    HW212117  11.113  11.717   7.515
70074SOL     OW12118  14.537   2.983   9.064
70074SOL    HW112119  14.459   2.956   9.014
70074SOL    HW212120  14.548   2.914   9.130
70075SOL     OW12121   3.999   7.976  12.263
70075SOL    HW112122   4.006   8.047  12.327
70075SOL    HW212123   4.049   8.008  12.187
70076SOL     OW12124   9.330   3.862   6.562
70076SOL    HW112125   9.266   3.794   6.540
70076SOL    HW212126   9.298   3.941   6.519
70077SOL     OW12127   7.423  11.133   7.123
70077SOL    HW112128   7.462  11.218   7.145
70077SOL    HW212129   7.390  11.144   7.035
70078SOL     OW12130  14.357   5.619   3.335
70078SOL    HW112131  14.439   5.620   3.285
70078SOL    HW212132  14.384   5.629   3.426
70079SOL     OW12133  10.669   2.812   2.320
70079SOL    HW112134  10.642   2.899   2.348
70079SOL    HW212135  10.734   2.785   2.385
70080SOL     OW12136   8.223   8.459   8.020
70080SOL    HW112137   8.302   8.427   7.978
70080SOL    HW212138   8.182   8.381   8.058
70081SOL     OW12139  10.657  14.219  11.715
70081SOL    HW112140  10.620  14.202  11.629
70081SOL    HW212141  10.618  14.302  11.742
70082SOL     OW12142   6.892   0.961   1.293
70082SOL    HW112143   6.860   0.989   1.380
70082SOL    HW212144   6.830   1.001   1.232
70083SOL     OW12145   9.197   9.662   0.920
70083SOL    HW112146   9.155   9.577   0.908
70083SOL    HW212147   9.270   9.662   0.858
70084SOL     OW12148   4.927  11.665   8.569
70084SOL    HW112149   4.987  11.735   8.594
70084SOL    HW212150   4.956  11.638   8.482
70085SOL     OW12151  12.644  10.422   6.451
70085SOL    HW112152  12.635  10.336   6.409
70085SOL    HW212153  12.645  10.484   6.377
70086SOL     OW12154   4.223   7.760   8.286
70086SOL    HW112155   4.182   7.752   8.200
70086SOL    HW212156   4.194   7.683   8.334
70087SOL     OW12157   0.862   3.821   8.126
70087SOL    HW112158   0.837   3.761   8.196
70087SOL    HW212159   0.879   3.904   8.171
70088SOL     OW12160   1.410   5.862   5.715
70088SOL    HW112161   1.408   5.789   5.778
70088SOL    HW212162   1.387   5.939   5.766
70089SOL     OW12163  13.709   9.277  10.548
70089SOL    HW112164  13.701   9.236  10.462
70089SOL    HW212165  13.624   9.261  10.590
70090SOL     OW12166  11.322  13.670  14.143
70090SOL    HW112167  11.309  13.713  14.228
70090SOL    HW212168  11.320  13.741  14.079
70091SOL     OW12169  12.959   7.965  11.508
70091SOL    HW112170  12.990   7.893  11.453
70091SOL    HW212171  12.999   7.950  11.593
70092SOL     OW12172   4.923   1.547   6.426
70092SOL    HW112173   5.005   1.512   6.461
70092SOL    HW212174   4.942   1.567   6.334
70093SOL     OW12175  14.196   0.014  13.595
70093SOL    HW112176  14.134  14.863  13.663
70093SOL    HW212177  14.281  14.859  13.627
70094SOL     OW12178  14.463   7.031  10.742
70094SOL    HW112179  14.408   7.043  10.820
70094SOL    HW212180  14.431   7.095  10.679
70095SOL     OW12181   4.880   8.928   0.911
70095SOL    HW112182   4.913   9.012   0.878
70095SOL    HW212183   4.935   8.908   0.987
70096SOL     OW12184   7.901  14.553  11.187
70096SOL    HW112185   7.992  14.575  11.208
70096SOL    HW212186   7.861  14.531  11.271
70097SOL     OW12187   1.313  10.197   1.472
70097SOL    HW112188   1.248  10.264   1.493
70097SOL    HW212189   1.317  10.197   1.376
70098SOL     OW12190   1.092  13.721   8.871
70098SOL    HW112191   1.020  13.720   8.934
70098SOL    HW212192   1.166  13.755   8.920
70099SOL     OW12193  13.439   9.655  12.196
70099SOL    HW112194  13.377   9.710  12.244
70099SOL    HW212195  13.523   9.698  12.208
70100SOL     OW12196   5.124  11.919  14.339
70100SOL    HW112197   5.046  11.899  14.287
70100SOL    HW212198   5.191  11.941  14.275
70101SOL     OW12199   3.685   7.900   6.614
70101SOL    HW112200   3.590   7.896   6.610
70101SOL    HW212201   3.709   7.834   6.679
70102SOL     OW12202   5.071  11.045   2.528
70102SOL    HW112203   5.017  11.107   2.479
70102SOL    HW212204   5.113  11.097   2.596
70103SOL     OW12205  11.881   9.034   5.228
70103SOL    HW112206  11.916   9.078   5.305
70103SOL    HW212207  11.946   8.967   5.206
70104SOL     OW12208   6.134   3.369  11.678
70104SOL    HW112209   6.045   3.334  11.672
70104SOL    HW212210   6.173   3.322  11.751
70105SOL     OW12211  12.630  10.701  13.310
70105SOL    HW112212  12.674  10.784  13.329
70105SOL    HW212213  12.597  10.713  13.220
70106SOL     OW12214   5.423   5.871   1.013
70106SOL    HW112215   5.513   5.896   1.033
70106SOL    HW212216   5.415   5.782   1.046
70107SOL     OW12217   7.826  13.868   0.340
70107SOL    HW112218   7.836  13.788   0.391
70107SOL    HW212219   7.912  13.910   0.341
70108SOL     OW12220   7.005   0.674  11.563
70108SOL    HW112221   6.993   0.600  11.504
70108SOL    HW212222   7.005   0.751  11.506
70109SOL     OW12223   0.169  14.185  10.160
70109SOL    HW112224   0.079  14.200  10.188
70109SOL    HW212225   0.175  14.225  10.073
70110SOL     OW12226   4.023   4.405  14.008
70110SOL    HW112227   3.986   4.319  14.031
70110SOL    HW212228   4.005   4.414  13.914
70111SOL     OW12229   8.794  12.632  13.388
70111SOL    HW112230   8.828  12.568  13.325
70111SOL    HW212231   8.854  12.625  13.463
70112SOL     OW12232  11.399   6.224  14.097
70112SOL    HW112233  11.316   6.240  14.052
70112SOL    HW212234  11.398   6.129  14.114
70113SOL     OW12235   7.528  11.304  14.026
70113SOL    HW112236   7.465  11.287  14.095
70113SOL    HW212237   7.488  11.266  13.947
70114SOL     OW12238   9.817   7.034   1.680
70114SOL    HW112239   9.813   7.127   1.660
70114SOL    HW212240   9.841   7.029   1.773
70115SOL     OW12241   3.594   8.619  12.304
70115SOL    HW112242   3.602   8.614  12.209
70115SOL    HW212243   3.558   8.534  12.329
70116SOL     OW12244   8.498  10.434   2.765
70116SOL    HW112245   8.475  10.504   2.704
70116SOL    HW212246   8.593  10.440   2.775
70117SOL     OW12247  11.677  12.098   5.638
70117SOL    HW112248  11.654  12.025   5.695
70117SOL    HW212249  11.608  12.100   5.571
70118SOL     OW12250   2.359   3.697  13.345
70118SOL    HW112251   2.316   3.766  13.394
70118SOL    HW212252   2.415   3.653  13.409
70119SOL     OW12253   9.020  11.459  10.901
70119SOL    HW112254   9.021  11.457  10.996
70119SOL    HW212255   9.068  11.380  10.875
70120SOL     OW12256   6.903   9.883   3.574
70120SOL    HW112257   6.859   9.859   3.655
70120SOL    HW212258   6.833   9.894   3.511
70121SOL     OW12259   1.775  11.663  10.065
70121SOL    HW112260   1.720  11.643  10.141
70121SOL    HW212261   1.715  11.662   9.990
70122SOL     OW12262   9.578  12.311  10.841
70122SOL    HW112263   9.619  12.397  10.855
70122SOL    HW212264   9.490  12.331  10.811
70123SOL     OW12265   2.778   8.071   4.153
70123SOL    HW112266   2.765   7.995   4.211
70123SOL    HW212267   2.718   8.137   4.187
70124SOL     OW12268   4.004  14.634  14.380
70124SOL    HW112269   4.066  14.653  14.309
70124SOL    HW212270   4.041  14.559  14.426
70125SOL     OW12271   3.388   9.554   5.925
70125SOL    HW112272   3.387   9.459   5.912
70125SOL    HW212273   3.418   9.566   6.015
70126SOL     OW12274   6.062  14.391   3.608
70126SOL    HW112275   6.001  14.464   3.596
70126SOL    HW212276   6.147  14.426   3.581
70127SOL     OW12277   6.011   7.063   8.859
70127SOL    HW112278   6.020   7.011   8.939
70127SOL    HW212279   6.087   7.036   8.806
70128SOL     OW12280   4.299   9.231   4.625
70128SOL    HW112281   4.375   9.275   4.587
70128SOL    HW212282   4.268   9.291   4.693
70129SOL     OW12283   9.201   5.809  14.861
70129SOL    HW112284   9.206   5.727   0.036
70129SOL    HW212285   9.144   5.789  14.787
70130SOL     OW12286   4.332   4.325   4.802
70130SOL    HW112287   4.314   4.359   4.890
70130SOL    HW212288   4.257   4.270   4.781
70131SOL     OW12289   5.280  12.577  10.884
70131SOL    HW112290   5.283  12.579  10.980
70131SOL    HW212291   5.211  12.639  10.861
70132SOL     OW12292   4.859   3.216   2.682
70132SOL    HW112293   4.886   3.244   2.594
70132SOL    HW212294   4.832   3.125   2.672
70133SOL     OW12295   1.557  14.811   7.473
70133SOL    HW112296   1.530   0.028   7.468
70133SOL    HW212297   1.634  14.811   7.529
70134SOL     OW12298   1.670   3.146   2.204
70134SOL    HW112299   1.763   3.149   2.225
70134SOL    HW212300   1.643   3.238   2.203
70135SOL     OW12301   1.555   1.535   9.801
70135SOL    HW112302   1.649   1.542   9.782
70135SOL    HW212303   1.544   1.446   9.833
70136SOL     OW12304  12.123  12.253   5.847
70136SOL    HW112305  12.188  12.251   5.776
70136SOL    HW212306  12.085  12.340   5.842
70137SOL     OW12307   3.153   3.027   7.856
70137SOL    HW112308   3.184   3.051   7.769
70137SOL    HW212309   3.191   2.941   7.872
70138SOL     OW12310   7.658  12.308   1.478
70138SOL    HW112311   7.724  12.248   1.445
70138SOL    HW212312   7.576  12.258   1.473
70139SOL     OW12313   1.273   3.206  12.513
70139SOL    HW112314   1.253   3.159  12.594
70139SOL    HW212315   1.200   3.266  12.502
70140SOL     OW12316   4.202   5.323   4.214
70140SOL    HW112317   4.172   5.278   4.135
70140SOL    HW212318   4.123   5.366   4.248
70141SOL     OW12319   3.836   3.713  10.015
70141SOL    HW112320   3.853   3.790   9.961
70141SOL    HW212321   3.784   3.656   9.958
70142SOL     OW12322   5.967   1.703   8.143
70142SOL    HW112323   6.004   1.708   8.055
70142SOL    HW212324   6.025   1.643   8.190
70143SOL     OW12325  10.849   2.528   2.795
70143SOL    HW112326  10.938   2.550   2.767
70143SOL    HW212327  10.861   2.461   2.863
70144SOL     OW12328   6.012  14.617   8.522
70144SOL    HW112329   5.917  14.613   8.527
70144SOL    HW212330   6.041  14.526   8.527
70145SOL     OW12331  13.865   4.159   5.815
70145SOL    HW112332  13.945   4.207   5.796
70145SOL    HW212333  13.824   4.145   5.729
70146SOL     OW12334  13.485   5.114  13.817
70146SOL    HW112335  13.403   5.078  13.853
70146SOL    HW212336  13.456   5.188  13.763
70147SOL     OW12337  14.747  10.728   1.708
70147SOL    HW112338  14.821  10.667   1.708
70147SOL    HW212339  14.770  10.794   1.774
70148SOL     OW12340   9.451   3.038   5.791
70148SOL    HW112341   9.494   2.979   5.729
70148SOL    HW212342   9.494   3.122   5.778
70149SOL     OW12343  13.824   6.294   1.045
70149SOL    HW112344  13.893   6.273   1.109
70149SOL    HW212345  13.752   6.328   1.098
70150SOL     OW12346   6.164   5.500   3.619
70150SOL    HW112347   6.159   5.426   3.679
70150SOL    HW212348   6.089   5.555   3.643
70151SOL     OW12349  12.207  12.183  12.852
70151SOL    HW112350  12.269  12.256  12.862
70151SOL    HW212351  12.262  12.107  12.834
70152SOL     OW12352   0.441   3.949  11.934
70152SOL    HW112353   0.530   3.920  11.915
70152SOL    HW212354   0.418   3.907  12.017
70153SOL     OW12355   7.792   3.867   2.669
70153SOL    HW112356   7.715   3.811   2.660
70153SOL    HW212357   7.860   3.809   2.704
70154SOL     OW12358   5.049   9.072  10.922
70154SOL    HW112359   5.060   9.160  10.886
70154SOL    HW212360   5.048   9.085  11.017
70155SOL     OW12361   0.775  14.228  12.551
70155SOL    HW112362   0.709  14.207  12.618
70155SOL    HW212363   0.846  14.166  12.567
70156SOL     OW12364   2.692  10.897   9.952
70156SOL    HW112365   2.770  10.865   9.996
70156SOL    HW212366   2.718  10.982   9.916
70157SOL     OW12367  10.314   3.261  10.132
70157SOL    HW112368  10.346   3.192  10.074
70157SOL    HW212369  10.257   3.216  10.194
70158SOL     OW12370   8.664   9.591  12.277
70158SOL    HW112371   8.753   9.595  12.310
70158SOL    HW212372   8.609   9.609  12.354
70159SOL     OW12373  14.415  11.665   2.662
70159SOL    HW112374  14.438  11.596   2.724
70159SOL    HW212375  14.321  11.678   2.674
70160SOL     OW12376  13.562   7.374  12.588
70160SOL    HW112377  13.606   7.457  12.568
70160SOL    HW212378  13.472   7.386  12.556
70161SOL     OW12379  10.854  11.578   8.147
70161SOL    HW112380  10.908  11.653   8.122
70161SOL    HW212381  10.831  11.536   8.064
70162SOL     OW12382   8.257   9.996  13.842
70162SOL    HW112383   8.231  10.030  13.928
70162SOL    HW212384   8.178  10.002  13.789
70163SOL     OW12385   0.383   2.941  14.118
70163SOL    HW112386   0.318   2.879  14.151
70163SOL    HW212387   0.341   2.983  14.043
70164SOL     OW12388  14.667   9.569   7.869
70164SOL    HW112389  14.661   9.664   7.879
70164SOL    HW212390  14.748   9.544   7.913
70165SOL     OW12391  13.087   7.458   5.898
70165SOL    HW112392  13.088   7.409   5.980
70165SOL    HW212393  13.171   7.504   5.897
70166SOL     OW12394  12.072   8.160   0.022
70166SOL    HW112395  12.070   8.194   0.112
70166SOL    HW212396  11.982   8.167  14.867
70167SOL     OW12397   4.760  10.090   6.143
70167SOL    HW112398   4.811  10.165   6.113
70167SOL    HW212399   4.777  10.022   6.077
70168SOL     OW12400  14.806   4.064   2.538
70168SOL    HW112401  14.777   3.974   2.524
70168SOL    HW212402   0.024   4.056   2.558
70169SOL     OW12403   4.897  13.692   0.548
70169SOL    HW112404   4.826  13.711   0.487
70169SOL    HW212405   4.895  13.597   0.559
70170SOL     OW12406   3.965  14.406  10.640
70170SOL    HW112407   3.966  14.492  10.683
70170SOL    HW212408   3.960  14.343  10.712
70171SOL     OW12409  11.110   7.721  12.136
70171SOL    HW112410  11.029   7.736  12.185
70171SOL    HW212411  11.170   7.682  12.199
70172SOL     OW12412  13.824   8.575  12.654
70172SOL    HW112413  13.824   8.532  12.740
70172SOL    HW212414  13.852   8.507  12.593
70173SOL     OW12415  10.632   5.168   3.672
70173SOL    HW112416  10.702   5.216   3.629
70173SOL    HW212417  10.559   5.230   3.676
70174SOL     OW12418   6.804  10.594   7.888
70174SOL    HW112419   6.885  10.577   7.840
70174SOL    HW212420   6.809  10.537   7.965
70175SOL     OW12421   1.762   1.361   0.037
70175SOL    HW112422   1.676   1.319   0.044
70175SOL    HW212423   1.743   1.452   0.016
70176SOL     OW12424  14.463   4.304   4.267
70176SOL    HW112425  14.507   4.234   4.314
70176SOL    HW212426  14.533   4.360   4.234
70177SOL     OW12427   3.321  10.823   6.101
70177SOL    HW112428   3.316  10.773   6.020
70177SOL    HW212429   3.395  10.882   6.088
70178SOL     OW12430  14.568  14.393   4.897
70178SOL    HW112431  14.505  14.369   4.829
70178SOL    HW212432  14.626  14.317   4.904
70179SOL     OW12433   4.123   3.388  13.315
70179SOL    HW112434   4.117   3.307  13.264
70179SOL    HW212435   4.098   3.456  13.253
70180SOL     OW12436   8.784   3.379   0.779
70180SOL    HW112437   8.737   3.322   0.840
70180SOL    HW212438   8.749   3.357   0.693
70181SOL     OW12439  10.417  12.732   6.104
70181SOL    HW112440  10.513  12.733   6.096
70181SOL    HW212441  10.397  12.640   6.120
70182SOL     OW12442  12.514  11.905   5.681
70182SOL    HW112443  12.510  11.836   5.748
70182SOL    HW212444  12.424  11.919   5.655
70183SOL     OW12445  13.011  10.089  13.952
70183SOL    HW112446  13.000  10.121  14.042
70183SOL    HW212447  12.929  10.045  13.933
70184SOL     OW12448  12.541  12.021  11.227
70184SOL    HW112449  12.539  12.005  11.322
70184SOL    HW212450  12.534  11.934  11.188
70185SOL     OW12451  12.715   8.031   3.006
70185SOL    HW112452  12.727   8.096   3.075
70185SOL    HW212453  12.793   7.976   3.011
70186SOL     OW12454  12.388  10.017  14.056
70186SOL    HW112455  12.380   9.936  14.005
70186SOL    HW212456  12.401  10.086  13.991
70187SOL     OW12457   0.245  11.321   2.346
70187SOL    HW112458   0.154  11.308   2.373
70187SOL    HW212459   0.239  11.348   2.254
70188SOL     OW12460   6.793   0.687   9.472
70188SOL    HW112461   6.837   0.602   9.475
70188SOL    HW212462   6.700   0.666   9.464
70189SOL     OW12463   2.169  12.306  12.256
70189SOL    HW112464   2.204  12.367  12.321
70189SOL    HW212465   2.246  12.259  12.224
70190SOL     OW12466  14.299   3.167   6.220
70190SOL    HW112467  14.393   3.180   6.211
70190SOL    HW212468  14.283   3.081   6.182
70191SOL     OW12469  13.912   7.208  13.430
70191SOL    HW112470  13.841   7.261  13.395
70191SOL    HW212471  13.908   7.126  13.379
70192SOL     OW12472  12.524  13.408   3.490
70192SOL    HW112473  12.458  13.430   3.556
70192SOL    HW212474  12.474  13.385   3.412
70193SOL     OW12475   7.287   3.358   3.945
70193SOL    HW112476   7.327   3.409   4.015
70193SOL    HW212477   7.340   3.278   3.940
70194SOL     OW12478   2.734  11.815   2.188
70194SOL    HW112479   2.727  11.722   2.168
70194SOL    HW212480   2.675  11.858   2.126
70195SOL     OW12481   6.355   3.780   1.147
70195SOL    HW112482   6.309   3.777   1.231
70195SOL    HW212483   6.286   3.781   1.081
70196SOL     OW12484   4.642   8.583   0.781
70196SOL    HW112485   4.553   8.579   0.817
70196SOL    HW212486   4.632   8.630   0.698
70197SOL     OW12487   1.381   8.780   1.547
70197SOL    HW112488   1.436   8.751   1.474
70197SOL    HW212489   1.432   8.850   1.589
70198SOL     OW12490   0.909   2.755   1.833
70198SOL    HW112491   0.949   2.780   1.749
70198SOL    HW212492   0.935   2.825   1.893
70199SOL     OW12493  13.271   9.354  11.821
70199SOL    HW112494  13.354   9.371  11.864
70199SOL    HW212495  13.223   9.299  11.883
70200SOL     OW12496   7.604  12.453   4.852
70200SOL    HW112497   7.563  12.493   4.929
70200SOL    HW212498   7.537  12.394   4.817
70201SOL     OW12499  10.292   9.400   8.876
70201SOL    HW112500  10.213   9.400   8.823
70201SOL    HW212501  10.263   9.376   8.964
70202SOL     OW12502  12.832   4.559   5.163
70202SOL    HW112503  12.765   4.505   5.205
70202SOL    HW212504  12.804   4.566   5.072
70203SOL     OW12505  13.052   1.951   2.670
70203SOL    HW112506  12.975   1.977   2.720
70203SOL    HW212507  13.115   2.022   2.682
70204SOL     OW12508  10.862   6.735  10.141
70204SOL    HW112509  10.778   6.780  10.145
70204SOL    HW212510  10.840   6.643  10.129
70205SOL     OW12511   5.827   7.177  11.369
70205SOL    HW112512   5.818   7.152  11.277
70205SOL    HW212513   5.919   7.162  11.389
70206SOL     OW12514  11.140  10.055   5.389
70206SOL    HW112515  11.121   9.966   5.416
70206SOL    HW212516  11.195  10.091   5.458
70207SOL     OW12517   6.417  12.247   7.526
70207SOL    HW112518   6.401  12.163   7.482
70207SOL    HW212519   6.511  12.260   7.517
70208SOL     OW12520   0.165   3.409   6.687
70208SOL    HW112521   0.212   3.473   6.740
70208SOL    HW212522   0.233   3.354   6.649
70209SOL     OW12523   0.495   6.978  11.411
70209SOL    HW112524   0.463   6.995  11.500
70209SOL    HW212525   0.535   7.061  11.384
70210SOL     OW12526   0.677   7.414   5.245
70210SOL    HW112527   0.753   7.358   5.262
70210SOL    HW212528   0.613   7.388   5.310
70211SOL     OW12529   1.639  12.091  11.099
70211SOL    HW112530   1.572  12.147  11.059
70211SOL    HW212531   1.722  12.134  11.079
70212SOL     OW12532  14.514  12.991  12.289
70212SOL    HW112533  14.540  12.920  12.347
70212SOL    HW212534  14.420  12.980  12.278
70213SOL     OW12535  11.774  10.739  10.638
70213SOL    HW112536  11.827  10.769  10.564
70213SOL    HW212537  11.783  10.644  10.637
70214SOL     OW12538   0.868   5.142   1.711
70214SOL    HW112539   0.852   5.048   1.698
70214SOL    HW212540   0.875   5.151   1.806
70215SOL     OW12541   3.318   1.774  11.074
70215SOL    HW112542   3.314   1.841  11.142
70215SOL    HW212543   3.409   1.773  11.045
70216SOL     OW12544   8.149   0.682   1.421
70216SOL    HW112545   8.214   0.651   1.484
70216SOL    HW212546   8.066   0.680   1.468
70217SOL     OW12547   7.568  14.001   6.963
70217SOL    HW112548   7.528  13.935   6.906
70217SOL    HW212549   7.597  13.952   7.040
70218SOL     OW12550   9.780   8.604   3.520
70218SOL    HW112551   9.695   8.624   3.560
70218SOL    HW212552   9.840   8.669   3.556
70219SOL     OW12553   7.590  12.468   0.352
70219SOL    HW112554   7.586  12.437   0.442
70219SOL    HW212555   7.629  12.395   0.304
70220SOL     OW12556   9.269   7.401   0.104
70220SOL    HW112557   9.211   7.427   0.033
70220SOL    HW212558   9.211   7.362   0.169
70221SOL     OW12559   1.164   9.355   3.439
70221SOL    HW112560   1.143   9.297   3.512
70221SOL    HW212561   1.082   9.360   3.389
70222SOL     OW12562  11.252   2.873   1.474
70222SOL    HW112563  11.237   2.778   1.475
70222SOL    HW212564  11.218   2.902   1.390
70223SOL     OW12565   5.066  13.346   5.703
70223SOL    HW112566   4.977  13.373   5.725
70223SOL    HW212567   5.055  13.267   5.650
70224SOL     OW12568   3.630   9.803  12.283
70224SOL    HW112569   3.612   9.788  12.190
70224SOL    HW212570   3.703   9.743  12.303
70225SOL     OW12571   4.210  12.928  11.728
70225SOL    HW112572   4.237  12.917  11.636
70225SOL    HW212573   4.288  12.907  11.778
70226SOL     OW12574  11.227  13.930  10.121
70226SOL    HW112575  11.289  14.003  10.127
70226SOL    HW212576  11.187  13.926  10.208
70227SOL     OW12577   1.631   9.095  10.692
70227SOL    HW112578   1.723   9.117  10.678
70227SOL    HW212579   1.594   9.088  10.604
70228SOL     OW12580   2.068   8.922  13.033
70228SOL    HW112581   2.093   9.014  13.040
70228SOL    HW212582   2.031   8.914  12.945
70229SOL     OW12583   9.303   5.753   7.628
70229SOL    HW112584   9.347   5.726   7.709
70229SOL    HW212585   9.367   5.732   7.559
70230SOL     OW12586   6.899   7.525  10.509
70230SOL    HW112587   6.988   7.510  10.542
70230SOL    HW212588   6.849   7.553  10.586
70231SOL     OW12589   1.083  14.714   9.933
70231SOL    HW112590   1.021  14.779   9.967
70231SOL    HW212591   1.057  14.701   9.842
70232SOL     OW12592  12.181   5.366   8.718
70232SOL    HW112593  12.233   5.286   8.712
70232SOL    HW212594  12.185   5.404   8.631
70233SOL     OW12595   9.344  12.238   4.611
70233SOL    HW112596   9.380  12.162   4.566
70233SOL    HW212597   9.302  12.202   4.689
70234SOL     OW12598   3.753   6.176  12.134
70234SOL    HW112599   3.675   6.128  12.163
70234SOL    HW212600   3.820   6.154  12.199
70235SOL     OW12601   4.804   3.534  14.173
70235SOL    HW112602   4.783   3.451  14.128
70235SOL    HW212603   4.833   3.507  14.260
70236SOL     OW12604  14.288   2.468   0.623
70236SOL    HW112605  14.292   2.387   0.673
70236SOL    HW212606  14.227   2.449   0.551
70237SOL     OW12607   5.093   9.313   1.948
70237SOL    HW112608   5.031   9.242   1.961
70237SOL    HW212609   5.109   9.314   1.854
70238SOL     OW12610   3.702   2.312   4.864
70238SOL    HW112611   3.684   2.218   4.862
70238SOL    HW212612   3.618   2.353   4.842
70239SOL     OW12613   4.388   4.153  12.253
70239SOL    HW112614   4.298   4.132  12.229
70239SOL    HW212615   4.397   4.246  12.236
70240SOL     OW12616  12.383  14.467  10.456
70240SOL    HW112617  12.458  14.466  10.396
70240SOL    HW212618  12.316  14.518  10.410
70241SOL     OW12619   5.108   5.360   6.847
70241SOL    HW112620   5.023   5.373   6.805
70241SOL    HW212621   5.140   5.448   6.863
70242SOL     OW12622   8.883   0.085  11.736
70242SOL    HW112623   8.805   0.140  11.726
70242SOL    HW212624   8.902   0.088  11.830
70243SOL     OW12625  11.696  12.829  11.612
70243SOL    HW112626  11.725  12.760  11.552
70243SOL    HW212627  11.686  12.906  11.557
70244SOL     OW12628   6.884   3.008  12.380
70244SOL    HW112629   6.883   3.103  12.375
70244SOL    HW212630   6.957   2.988  12.439
70245SOL     OW12631  11.984   2.531  13.485
70245SOL    HW112632  11.944   2.473  13.550
70245SOL    HW212633  12.027   2.473  13.423
70246SOL     OW12634   4.845   3.175  11.767
70246SOL    HW112635   4.892   3.247  11.810
70246SOL    HW212636   4.753   3.197  11.779
70247SOL     OW12637   4.197  13.453  11.019
70247SOL    HW112638   4.114  13.441  10.972
70247SOL    HW212639   4.197  13.385  11.086
70248SOL     OW12640   3.188   1.178  13.582
70248SOL    HW112641   3.126   1.166  13.510
70248SOL    HW212642   3.132   1.195  13.658
70249SOL     OW12643   2.533   4.242   3.865
70249SOL    HW112644   2.566   4.330   3.884
70249SOL    HW212645   2.581   4.214   3.787
70250SOL     OW12646  12.992  10.233   7.055
70250SOL    HW112647  12.947  10.169   6.999
70250SOL    HW212648  12.925  10.261   7.117
70251SOL     OW12649   8.313   5.812   6.678
70251SOL    HW112650   8.372   5.743   6.708
70251SOL    HW212651   8.241   5.766   6.637
70252SOL     OW12652   4.629   9.588   4.715
70252SOL    HW112653   4.586   9.544   4.642
70252SOL    HW212654   4.719   9.555   4.712
70253SOL     OW12655   3.299   7.972   7.058
70253SOL    HW112656   3.378   8.007   7.018
70253SOL    HW212657   3.316   7.879   7.069
70254SOL     OW12658   6.860   4.668   9.849
70254SOL    HW112659   6.943   4.666   9.802
70254SOL    HW212660   6.878   4.621   9.930
70255SOL     OW12661  11.399   2.134   9.680
70255SOL    HW112662  11.328   2.190   9.649
70255SOL    HW212663  11.479   2.177   9.651
70256SOL     OW12664   5.988  10.939   6.554
70256SOL    HW112665   5.929  10.914   6.624
70256SOL    HW212666   6.074  10.909   6.583
70257SOL     OW12667  14.407   1.697   2.739
70257SOL    HW112668  14.488   1.730   2.699
70257SOL    HW212669  14.436   1.644   2.813
70258SOL     OW12670   7.447   7.698  12.747
70258SOL    HW112671   7.367   7.658  12.781
70258SOL    HW212672   7.430   7.709  12.654
70259SOL     OW12673  10.601  10.528  13.630
70259SOL    HW112674  10.687  10.569  13.630
70259SOL    HW212675  10.573  10.530  13.538
70260SOL     OW12676   2.822  10.851   3.154
70260SOL    HW112677   2.759  10.841   3.226
70260SOL    HW212678   2.822  10.766   3.110
70261SOL     OW12679   4.893  14.843  13.326
70261SOL    HW112680   4.929  14.834  13.237
70261SOL    HW212681   4.939  14.775  13.377
70262SOL     OW12682   6.943   7.654   4.309
70262SOL    HW112683   6.982   7.664   4.222
70262SOL    HW212684   6.922   7.560   4.315
70263SOL     OW12685  13.206   0.208  14.570
70263SOL    HW112686  13.185   0.243  14.656
70263SOL    HW212687  13.300   0.224  14.559
70264SOL     OW12688   2.017  14.658   3.363
70264SOL    HW112689   2.095  14.703   3.330
70264SOL    HW212690   2.043  14.627   3.450
70265SOL     OW12691  13.119   2.069  12.920
70265SOL    HW112692  13.077   2.057  13.005
70265SOL    HW212693  13.056   2.118  12.868
70266SOL     OW12694   7.730  13.787   9.160
70266SOL    HW112695   7.778  13.708   9.133
70266SOL    HW212696   7.638  13.760   9.162
70267SOL     OW12697   2.663   7.977  13.094
70267SOL    HW112698   2.590   8.026  13.132
70267SOL    HW212699   2.724   7.963  13.166
70268SOL     OW12700   1.304  11.709   1.172
70268SOL    HW112701   1.381  11.692   1.225
70268SOL    HW212702   1.338  11.725   1.084
70269SOL     OW12703  13.022  12.669   3.225
70269SOL    HW112704  13.101  12.676   3.172
70269SOL    HW212705  12.962  12.734   3.188
70270SOL     OW12706  11.704  13.503  10.229
70270SOL    HW112707  11.701  13.447  10.151
70270SOL    HW212708  11.793  13.492  10.263
70271SOL     OW12709   7.085  13.187   0.829
70271SOL    HW112710   7.140  13.133   0.772
70271SOL    HW212711   7.015  13.219   0.771
70272SOL     OW12712   6.485   8.293   0.748
70272SOL    HW112713   6.437   8.342   0.681
70272SOL    HW212714   6.447   8.324   0.831
70273SOL     OW12715  10.936   3.432  14.081
70273SOL    HW112716  10.975   3.486  14.012
70273SOL    HW212717  10.849   3.468  14.095
70274SOL     OW12718  14.742  11.722   4.749
70274SOL    HW112719  14.808  11.758   4.690
70274SOL    HW212720  14.687  11.667   4.693
70275SOL     OW12721   2.848   1.658   8.314
70275SOL    HW112722   2.896   1.631   8.391
70275SOL    HW212723   2.789   1.584   8.295
70276SOL     OW12724  11.991  14.757   0.733
70276SOL    HW112725  12.077  14.780   0.698
70276SOL    HW212726  11.968  14.675   0.690
70277SOL     OW12727   3.195   0.260   8.824
70277SOL    HW112728   3.233   0.308   8.898
70277SOL    HW212729   3.237   0.174   8.827
70278SOL     OW12730  10.053   2.103  11.823
70278SOL    HW112731  10.091   2.179  11.866
70278SOL    HW212732   9.993   2.140  11.758
70279SOL     OW12733   9.173   9.624   4.651
70279SOL    HW112734   9.259   9.612   4.692
70279SOL    HW212735   9.191   9.622   4.557
70280SOL     OW12736  12.639  13.397  10.405
70280SOL    HW112737  12.611  13.430  10.491
70280SOL    HW212738  12.655  13.476  10.353
70281SOL     OW12739  10.424   1.138   7.014
70281SOL    HW112740  10.442   1.157   7.106
70281SOL    HW212741  10.335   1.103   7.015
70282SOL     OW12742   4.253   3.930  11.221
70282SOL    HW112743   4.180   3.951  11.280
70282SOL    HW212744   4.221   3.857  11.169
70283SOL     OW12745  14.413   5.493   5.640
70283SOL    HW112746  14.445   5.576   5.675
70283SOL    HW212747  14.484   5.431   5.658
70284SOL     OW12748   5.998  10.501  10.838
70284SOL    HW112749   5.998  10.521  10.931
70284SOL    HW212750   6.061  10.563  10.800
70285SOL     OW12751  11.679  10.994  11.563
70285SOL    HW112752  11.717  10.966  11.479
70285SOL    HW212753  11.749  11.045  11.604
70286SOL     OW12754  10.156  12.158   3.270
70286SOL    HW112755  10.069  12.117   3.265
70286SOL    HW212756  10.138  12.250   3.289
70287SOL     OW12757  13.354  14.774   4.488
70287SOL    HW112758  13.352  14.858   4.442
70287SOL    HW212759  13.363  14.797   4.580
70288SOL     OW12760   1.668  10.930   3.885
70288SOL    HW112761   1.738  10.991   3.909
70288SOL    HW212762   1.657  10.875   3.963
70289SOL     OW12763   1.386  14.141   4.851
70289SOL    HW112764   1.338  14.082   4.909
70289SOL    HW212765   1.322  14.208   4.828
70290SOL     OW12766   4.974   8.180   4.334
70290SOL    HW112767   5.020   8.233   4.269
70290SOL    HW212768   4.923   8.243   4.385
70291SOL     OW12769   5.788   1.111   7.965
70291SOL    HW112770   5.821   1.199   7.984
70291SOL    HW212771   5.855   1.073   7.907
70292SOL     OW12772  14.273   0.900   6.367
70292SOL    HW112773  14.210   0.870   6.432
70292SOL    HW212774  14.285   0.993   6.387
70293SOL     OW12775   7.866   6.292   4.191
70293SOL    HW112776   7.935   6.294   4.126
70293SOL    HW212777   7.857   6.383   4.220
70294SOL     OW12778   3.604  13.752  11.919
70294SOL    HW112779   3.655  13.676  11.947
70294SOL    HW212780   3.544  13.770  11.991
70295SOL     OW12781  12.947   1.259   8.628
70295SOL    HW112782  13.037   1.242   8.600
70295SOL    HW212783  12.936   1.353   8.618
70296SOL     OW12784   1.437   0.286  11.838
70296SOL    HW112785   1.410   0.229  11.767
70296SOL    HW212786   1.383   0.364  11.829
70297SOL     OW12787   5.923  12.603   2.152
70297SOL    HW112788   5.843  12.657   2.150
70297SOL    HW212789   5.894  12.520   2.189
70298SOL     OW12790   3.956  12.316   2.161
70298SOL    HW112791   4.033  12.287   2.113
70298SOL    HW212792   3.926  12.238   2.208
70299SOL     OW12793   4.045  11.282   2.638
70299SOL    HW112794   4.032  11.290   2.732
70299SOL    HW212795   4.039  11.188   2.620
70300SOL     OW12796  14.857   2.158  12.889
70300SOL    HW112797   0.046   2.175  12.820
70300SOL    HW212798  14.800   2.090  12.854
70301SOL     OW12799  10.702  11.629   3.695
70301SOL    HW112800  10.632  11.597   3.639
70301SOL    HW212801  10.692  11.724   3.694
70302SOL     OW12802   4.158   5.579  10.806
70302SOL    HW112803   4.190   5.520  10.737
70302SOL    HW212804   4.075   5.540  10.835
70303SOL     OW12805  12.621   9.697  13.146
70303SOL    HW112806  12.538   9.742  13.165
70303SOL    HW212807  12.627   9.697  13.050
70304SOL     OW12808   7.060   3.851   3.630
70304SOL    HW112809   7.013   3.818   3.553
70304SOL    HW212810   7.111   3.776   3.661
70305SOL     OW12811   7.201   0.607  12.082
70305SOL    HW112812   7.240   0.691  12.057
70305SOL    HW212813   7.225   0.548  12.011
70306SOL     OW12814  13.515   0.896   1.345
70306SOL    HW112815  13.442   0.864   1.397
70306SOL    HW212816  13.588   0.838   1.368
70307SOL     OW12817  13.918   2.948   3.224
70307SOL    HW112818  13.832   2.957   3.266
70307SOL    HW212819  13.975   3.004   3.277
70308SOL     OW12820   5.803  12.143   2.369
70308SOL    HW112821   5.775  12.129   2.278
70308SOL    HW212822   5.734  12.103   2.421
70309SOL     OW12823   0.835  10.234   6.555
70309SOL    HW112824   0.897  10.195   6.493
70309SOL    HW212825   0.749  10.207   6.524
70310SOL     OW12826   2.618  14.671   5.886
70310SOL    HW112827   2.595  14.641   5.974
70310SOL    HW212828   2.672  14.748   5.901
70311SOL     OW12829   6.867   4.454   4.573
70311SOL    HW112830   6.917   4.481   4.496
70311SOL    HW212831   6.927   4.470   4.647
70312SOL     OW12832   8.541   0.057   2.290
70312SOL    HW112833   8.583  14.862   2.340
70312SOL    HW212834   8.530   0.020   2.202
70313SOL     OW12835  10.019   5.327  12.244
70313SOL    HW112836  10.005   5.241  12.205
70313SOL    HW212837  10.113   5.342  12.235
70314SOL     OW12838  10.222   0.099   0.841
70314SOL    HW112839  10.276   0.096   0.762
70314SOL    HW212840  10.285   0.100   0.913
70315SOL     OW12841   1.078  13.761  10.253
70315SOL    HW112842   1.030  13.772  10.335
70315SOL    HW212843   1.045  13.831  10.196
70316SOL     OW12844   9.708   0.791   6.929
70316SOL    HW112845   9.685   0.853   6.859
70316SOL    HW212846   9.646   0.810   6.999
70317SOL     OW12847   3.503  11.891   3.503
70317SOL    HW112848   3.553  11.900   3.422
70317SOL    HW212849   3.411  11.889   3.474
70318SOL     OW12850   7.251   2.427   2.627
70318SOL    HW112851   7.296   2.421   2.711
70318SOL    HW212852   7.240   2.336   2.599
70319SOL     OW12853  13.064   8.196   5.883
70319SOL    HW112854  13.050   8.289   5.900
70319SOL    HW212855  13.047   8.153   5.967
70320SOL     OW12856   2.702  10.467  11.690
70320SOL    HW112857   2.790  10.495  11.666
70320SOL    HW212858   2.644  10.528  11.644
70321SOL     OW12859   6.601   0.901   7.493
70321SOL    HW112860   6.527   0.867   7.544
70321SOL    HW212861   6.572   0.896   7.402
70322SOL     OW12862   1.015   7.562  11.551
70322SOL    HW112863   0.921   7.547  11.564
70322SOL    HW212864   1.035   7.514  11.470
70323SOL     OW12865   2.598  13.435  13.020
70323SOL    HW112866   2.681  13.395  12.995
70323SOL    HW212867   2.533  13.367  13.002
70324SOL     OW12868  12.930   4.225   0.193
70324SOL    HW112869  13.024   4.241   0.191
70324SOL    HW212870  12.900   4.248   0.105
70325SOL     OW12871  11.813   4.316   6.753
70325SOL    HW112872  11.820   4.257   6.677
70325SOL    HW212873  11.861   4.394   6.727
70326SOL     OW12874  12.561  12.726  11.807
70326SOL    HW112875  12.542  12.660  11.740
70326SOL    HW212876  12.619  12.789  11.763
70327SOL     OW12877  12.065   0.187   3.523
70327SOL    HW112878  12.035   0.230   3.443
70327SOL    HW212879  12.110   0.108   3.493
70328SOL     OW12880   7.427  10.675   0.173
70328SOL    HW112881   7.518  10.704   0.175
70328SOL    HW212882   7.382  10.741   0.120
70329SOL     OW12883  12.874  10.438   8.537
70329SOL    HW112884  12.919  10.402   8.613
70329SOL    HW212885  12.942  10.444   8.469
70330SOL     OW12886   2.042  12.800   2.607
70330SOL    HW112887   1.951  12.827   2.621
70330SOL    HW212888   2.093  12.862   2.659
70331SOL     OW12889  12.048  12.794   2.122
70331SOL    HW112890  12.032  12.705   2.154
70331SOL    HW212891  12.001  12.799   2.039
70332SOL     OW12892   3.592   5.018  10.002
70332SOL    HW112893   3.534   5.014   9.926
70332SOL    HW212894   3.545   5.070  10.066
70333SOL     OW12895  12.314   0.223   0.680
70333SOL    HW112896  12.268   0.149   0.718
70333SOL    HW212897  12.278   0.299   0.725
70334SOL     OW12898  14.353   7.655  14.255
70334SOL    HW112899  14.319   7.649  14.166
70334SOL    HW212900  14.423   7.720  14.250
70335SOL     OW12901   9.792   0.064   1.582
70335SOL    HW112902   9.770   0.105   1.498
70335SOL    HW212903   9.858   0.121   1.620
70336SOL     OW12904   7.619   3.748   9.143
70336SOL    HW112905   7.528   3.718   9.152
70336SOL    HW212906   7.667   3.698   9.208
70337SOL     OW12907  12.727   3.438   9.950
70337SOL    HW112908  12.712   3.352   9.990
70337SOL    HW212909  12.662   3.495   9.991
70338SOL     OW12910  10.483   1.206   0.888
70338SOL    HW112911  10.550   1.260   0.846
70338SOL    HW212912  10.527   1.170   0.966
70339SOL     OW12913  12.050   7.598   3.226
70339SOL    HW112914  12.070   7.570   3.315
70339SOL    HW212915  12.136   7.616   3.187
70340SOL     OW12916   0.769   9.630   3.275
70340SOL    HW112917   0.806   9.668   3.355
70340SOL    HW212918   0.694   9.686   3.254
70341SOL     OW12919   6.149   0.253  14.198
70341SOL    HW112920   6.200   0.322  14.242
70341SOL    HW212921   6.202   0.174  14.208
70342SOL     OW12922  12.060  11.128   5.583
70342SOL    HW112923  12.040  11.207   5.533
70342SOL    HW212924  12.110  11.074   5.522
70343SOL     OW12925   8.755   0.238   3.823
70343SOL    HW112926   8.763   0.333   3.820
70343SOL    HW212927   8.776   0.209   3.734
70344SOL     OW12928   9.636   2.447   6.547
70344SOL    HW112929   9.580   2.375   6.516
70344SOL    HW212930   9.652   2.500   6.469
70345SOL     OW12931   5.975   0.717  12.984
70345SOL    HW112932   6.013   0.662  12.915
70345SOL    HW212933   5.978   0.664  13.063
70346SOL     OW12934   6.428   1.303  14.735
70346SOL    HW112935   6.419   1.311  14.830
70346SOL    HW212936   6.391   1.218  14.714
70347SOL     OW12937  11.495   0.317   6.465
70347SOL    HW112938  11.493   0.385   6.397
70347SOL    HW212939  11.524   0.363   6.544
70348SOL     OW12940  11.156   1.132   3.298
70348SOL    HW112941  11.070   1.135   3.256
70348SOL    HW212942  11.197   1.053   3.263
70349SOL     OW12943  13.087   2.366   0.032
70349SOL    HW112944  13.140   2.444   0.018
70349SOL    HW212945  13.012   2.378  14.849
70350SOL     OW12946   9.630  14.529   8.412
70350SOL    HW112947   9.653  14.621   8.402
70350SOL    HW212948   9.542  14.522   8.374
70351SOL     OW12949   1.914   7.063  14.705
70351SOL    HW112950   1.873   6.978  14.718
70351SOL    HW212951   2.007   7.044  14.693
70352SOL     OW12952  10.006   8.863  13.591
70352SOL    HW112953  10.062   8.929  13.632
70352SOL    HW212954   9.975   8.810  13.664
70353SOL     OW12955   1.231   9.987  12.339
70353SOL    HW112956   1.286   9.993  12.417
70353SOL    HW212957   1.221  10.078  12.310
70354SOL     OW12958  14.055  11.544   6.584
70354SOL    HW112959  14.095  11.505   6.506
70354SOL    HW212960  14.006  11.619   6.552
70355SOL     OW12961  13.454   7.832   0.211
70355SOL    HW112962  13.539   7.825   0.168
70355SOL    HW212963  13.397   7.773   0.162
70356SOL     OW12964   2.256   0.776   1.898
70356SOL    HW112965   2.311   0.721   1.953
70356SOL    HW212966   2.271   0.744   1.809
70357SOL     OW12967  11.919  14.453   9.002
70357SOL    HW112968  11.992  14.480   9.057
70357SOL    HW212969  11.873  14.386   9.054
70358SOL     OW12970  11.739   7.352  10.011
70358SOL    HW112971  11.751   7.446  10.026
70358SOL    HW212972  11.646   7.343   9.993
70359SOL     OW12973   6.720   9.757  12.403
70359SOL    HW112974   6.705   9.700  12.328
70359SOL    HW212975   6.807   9.733  12.435
70360SOL     OW12976   6.038  10.167   2.228
70360SOL    HW112977   6.000  10.107   2.292
70360SOL    HW212978   6.032  10.121   2.144
70361SOL     OW12979   0.330  13.582   3.749
70361SOL    HW112980   0.237  13.584   3.726
70361SOL    HW212981   0.334  13.530   3.829
70362SOL     OW12982   4.414   0.780  11.297
70362SOL    HW112983   4.339   0.745  11.249
70362SOL    HW212984   4.404   0.875  11.291
70363SOL     OW12985   3.679   6.122   1.274
70363SOL    HW112986   3.736   6.052   1.245
70363SOL    HW212987   3.646   6.092   1.359
70364SOL     OW12988  13.708  10.899  11.230
70364SOL    HW112989  13.617  10.915  11.257
70364SOL    HW212990  13.723  10.961  11.159
70365SOL     OW12991  10.771   7.301  13.530
70365SOL    HW112992  10.723   7.331  13.607
70365SOL    HW212993  10.735   7.214  13.512
70366SOL     OW12994  14.387   9.409  13.871
70366SOL    HW112995  14.420   9.365  13.793
70366SOL    HW212996  14.322   9.471  13.838
70367SOL     OW12997   3.771   7.396   1.869
70367SOL    HW112998   3.733   7.410   1.956
70367SOL    HW212999   3.809   7.480   1.845
70368SOL     OW13000  14.829   0.797  12.124
70368SOL    HW113001   0.011   0.771  12.051
70368SOL    HW213002  14.803   0.714  12.164
70369SOL     OW13003   8.640   1.598  14.221
70369SOL    HW113004   8.557   1.619  14.177
70369SOL    HW213005   8.649   1.503  14.211
70370SOL     OW13006   9.087   0.053   2.163
70370SOL    HW113007   9.147   0.081   2.094
70370SOL    HW213008   9.115  14.838   2.182
70371SOL     OW13009  10.372   2.852   2.058
70371SOL    HW113010  10.409   2.938   2.076
70371SOL    HW213011  10.338   2.822   2.143
70372SOL     OW13012   2.785  10.381   5.559
70372SOL    HW113013   2.858  10.341   5.605
70372SOL    HW213014   2.801  10.475   5.566
70373SOL     OW13015   2.263   3.255  14.334
70373SOL    HW113016   2.180   3.301  14.344
70373SOL    HW213017   2.239   3.164  14.319
70374SOL     OW13018   4.028  10.978  10.514
70374SOL    HW113019   4.010  11.008  10.425
70374SOL    HW213020   3.968  10.904  10.527
70375SOL     OW13021   4.500   6.280  13.508
70375SOL    HW113022   4.445   6.246  13.437
70375SOL    HW213023   4.513   6.372  13.485
70376SOL     OW13024  12.210   3.920  12.896
70376SOL    HW113025  12.135   3.910  12.953
70376SOL    HW213026  12.242   3.830  12.881
70377SOL     OW13027   4.225   2.832   2.221
70377SOL    HW113028   4.176   2.882   2.286
70377SOL    HW213029   4.197   2.869   2.137
70378SOL     OW13030   3.361   4.818  11.997
70378SOL    HW113031   3.367   4.773  11.913
70378SOL    HW213032   3.292   4.772  12.044
70379SOL     OW13033   2.681   8.423   9.670
70379SOL    HW113034   2.722   8.494   9.718
70379SOL    HW213035   2.712   8.343   9.713
70380SOL     OW13036  13.524   3.666  12.381
70380SOL    HW113037  13.590   3.727  12.348
70380SOL    HW213038  13.441   3.712  12.370
70381SOL     OW13039   9.803   3.574   0.378
70381SOL    HW113040   9.874   3.534   0.328
70381SOL    HW213041   9.736   3.594   0.312
70382SOL     OW13042   3.720  12.332   9.786
70382SOL    HW113043   3.671  12.307   9.864
70382SOL    HW213044   3.772  12.254   9.764
70383SOL     OW13045   3.259   0.450   5.132
70383SOL    HW113046   3.322   0.489   5.193
70383SOL    HW213047   3.267   0.356   5.145
70384SOL     OW13048  14.852   2.773   8.414
70384SOL    HW113049   0.055   2.780   8.360
70384SOL    HW213050  14.874   2.821   8.494
70385SOL     OW13051  14.040  10.243   9.748
70385SOL    HW113052  14.113  10.216   9.692
70385SOL    HW213053  13.981  10.291   9.689
70386SOL     OW13054  14.619   5.469   4.089
70386SOL    HW113055  14.586   5.441   4.003
70386SOL    HW213056  14.568   5.547   4.110
70387SOL     OW13057  14.359   5.739   1.545
70387SOL    HW113058  14.318   5.654   1.556
70387SOL    HW213059  14.412   5.730   1.466
70388SOL     OW13060   0.357   9.751   2.359
70388SOL    HW113061   0.314   9.816   2.304
70388SOL    HW213062   0.435   9.726   2.310
70389SOL     OW13063   9.595   0.744   3.658
70389SOL    HW113064   9.547   0.753   3.741
70389SOL    HW213065   9.656   0.817   3.657
70390SOL     OW13066   0.499  13.937   5.545
70390SOL    HW113067   0.553  14.002   5.590
70390SOL    HW213068   0.427  13.920   5.605
70391SOL     OW13069   2.618   0.299  14.083
70391SOL    HW113070   2.703   0.335  14.109
70391SOL    HW213071   2.612   0.216  14.129
70392SOL     OW13072  11.174   2.352   8.284
70392SOL    HW113073  11.096   2.299   8.266
70392SOL    HW213074  11.142   2.422   8.340
70393SOL     OW13075   1.198   7.329   6.925
70393SOL    HW113076   1.275   7.322   6.870
70393SOL    HW213077   1.224   7.388   6.996
70394SOL     OW13078   3.788   5.512   0.269
70394SOL    HW113079   3.845   5.435   0.275
70394SOL    HW213080   3.796   5.554   0.354
70395SOL     OW13081  12.041  10.410  11.811
70395SOL    HW113082  11.957  10.369  11.790
70395SOL    HW213083  12.056  10.470  11.738
70396SOL     OW13084   7.346   6.748   7.293
70396SOL    HW113085   7.257   6.757   7.327
70396SOL    HW213086   7.348   6.805   7.216
70397SOL     OW13087   5.386   3.912   8.231
70397SOL    HW113088   5.352   3.990   8.275
70397SOL    HW213089   5.399   3.848   8.302
70398SOL     OW13090   0.311  14.166  14.252
70398SOL    HW113091   0.389  14.196  14.205
70398SOL    HW213092   0.313  14.071  14.244
70399SOL     OW13093   8.549  12.451   4.534
70399SOL    HW113094   8.639  12.482   4.528
70399SOL    HW213095   8.512  12.500   4.608
70400SOL     OW13096  11.977  13.161  14.368
70400SOL    HW113097  11.893  13.161  14.322
70400SOL    HW213098  11.972  13.235  14.428
70401SOL     OW13099  10.876   0.560  10.143
70401SOL    HW113100  10.908   0.496  10.080
70401SOL    HW213101  10.868   0.512  10.225
70402SOL     OW13102   5.032   1.467   9.487
70402SOL    HW113103   5.120   1.473   9.523
70402SOL    HW213104   4.984   1.414   9.551
70403SOL     OW13105  11.922  12.101  13.052
70403SOL    HW113106  12.016  12.117  13.059
70403SOL    HW213107  11.898  12.059  13.134
70404SOL     OW13108   0.705   7.553  12.695
70404SOL    HW113109   0.673   7.627  12.745
70404SOL    HW213110   0.739   7.492  12.760
70405SOL     OW13111   0.081   8.459   2.973
70405SOL    HW113112   0.113   8.477   3.061
70405SOL    HW213113  14.867   8.424   2.986
70406SOL     OW13114   9.600   2.162  14.366
70406SOL    HW113115   9.512   2.197  14.376
70406SOL    HW213116   9.642   2.219  14.302
70407SOL     OW13117   5.167   3.659  12.063
70407SOL    HW113118   5.117   3.738  12.044
70407SOL    HW213119   5.211   3.638  11.980
70408SOL     OW13120   0.492   7.578   8.955
70408SOL    HW113121   0.502   7.570   8.860
70408SOL    HW213122   0.412   7.528   8.975
70409SOL     OW13123  11.076   6.368  12.401
70409SOL    HW113124  11.114   6.302  12.343
70409SOL    HW213125  10.983   6.345  12.406
70410SOL     OW13126  12.073   4.074   3.324
70410SOL    HW113127  12.048   4.163   3.298
70410SOL    HW213128  11.995   4.022   3.308
70411SOL     OW13129   7.611   2.100   1.451
70411SOL    HW113130   7.664   2.101   1.372
70411SOL    HW213131   7.656   2.039   1.510
70412SOL     OW13132   3.213  11.508   5.623
70412SOL    HW113133   3.187  11.547   5.706
70412SOL    HW213134   3.163  11.555   5.557
70413SOL     OW13135   0.851   8.700   5.212
70413SOL    HW113136   0.839   8.618   5.165
70413SOL    HW213137   0.873   8.764   5.145
70414SOL     OW13138   7.226   2.288   9.154
70414SOL    HW113139   7.266   2.254   9.073
70414SOL    HW213140   7.240   2.218   9.218
70415SOL     OW13141   1.745   9.363   7.076
70415SOL    HW113142   1.787   9.365   7.162
70415SOL    HW213143   1.653   9.349   7.095
70416SOL     OW13144   8.611  13.209  11.587
70416SOL    HW113145   8.529  13.232  11.631
70416SOL    HW213146   8.641  13.131  11.634
70417SOL     OW13147   0.241  14.632   5.304
70417SOL    HW113148   0.223  14.694   5.375
70417SOL    HW213149   0.206  14.675   5.226
70418SOL     OW13150   1.338   5.192   1.913
70418SOL    HW113151   1.434   5.186   1.913
70418SOL    HW213152   1.320   5.273   1.961
70419SOL     OW13153   5.066   5.574  13.971
70419SOL    HW113154   5.015   5.655  13.963
70419SOL    HW213155   5.003   5.504  13.957
70420SOL     OW13156  10.722  11.221   1.702
70420SOL    HW113157  10.698  11.161   1.773
70420SOL    HW213158  10.761  11.164   1.635
70421SOL     OW13159   1.962  11.977  13.575
70421SOL    HW113160   1.956  12.069  13.552
70421SOL    HW213161   1.925  11.931  13.500
70422SOL     OW13162   9.492   9.201   5.436
70422SOL    HW113163   9.538   9.206   5.351
70422SOL    HW213164   9.401   9.184   5.413
70423SOL     OW13165   1.599   4.266   2.130
70423SOL    HW113166   1.636   4.183   2.159
70423SOL    HW213167   1.531   4.286   2.195
70424SOL     OW13168   9.545   9.119   9.276
70424SOL    HW113169   9.550   9.214   9.291
70424SOL    HW213170   9.579   9.107   9.188
70425SOL     OW13171  10.210   8.835  10.439
70425SOL    HW113172  10.233   8.920  10.477
70425SOL    HW213173  10.286   8.779  10.458
70426SOL     OW13174   8.342   8.759   5.576
70426SOL    HW113175   8.271   8.697   5.563
70426SOL    HW213176   8.419   8.705   5.591
70427SOL     OW13177  12.495   6.570   3.729
70427SOL    HW113178  12.517   6.488   3.684
70427SOL    HW213179  12.461   6.627   3.660
70428SOL     OW13180   4.404   4.912   1.162
70428SOL    HW113181   4.359   4.834   1.195
70428SOL    HW213182   4.353   4.985   1.196
70429SOL     OW13183   8.017   0.378  12.193
70429SOL    HW113184   7.999   0.377  12.287
70429SOL    HW213185   7.934   0.354  12.152
70430SOL     OW13186   8.317  14.465   2.706
70430SOL    HW113187   8.408  14.478   2.679
70430SOL    HW213188   8.309  14.513   2.788
70431SOL     OW13189   3.606   4.105   4.712
70431SOL    HW113190   3.618   4.126   4.619
70431SOL    HW213191   3.544   4.170   4.744
70432SOL     OW13192  11.766   9.050   7.382
70432SOL    HW113193  11.857   9.028   7.364
70432SOL    HW213194  11.718   9.020   7.305
70433SOL     OW13195   0.254  13.794   6.483
70433SOL    HW113196   0.189  13.725   6.468
70433SOL    HW213197   0.290  13.812   6.396
70434SOL     OW13198   7.995   7.058   3.198
70434SOL    HW113199   8.045   7.018   3.126
70434SOL    HW213200   7.943   6.987   3.234
70435SOL     OW13201   6.452   9.358  12.013
70435SOL    HW113202   6.386   9.290  12.002
70435SOL    HW213203   6.405   9.432  12.050
70436SOL     OW13204   9.205   7.114  10.706
70436SOL    HW113205   9.175   7.203  10.690
70436SOL    HW213206   9.301   7.119  10.699
70437SOL     OW13207   7.374   4.070   3.414
70437SOL    HW113208   7.379   4.109   3.327
70437SOL    HW213209   7.453   4.016   3.421
70438SOL     OW13210  10.384   2.039   8.005
70438SOL    HW113211  10.434   1.961   7.981
70438SOL    HW213212  10.422   2.109   7.952
70439SOL     OW13213   7.841  12.123  13.906
70439SOL    HW113214   7.805  12.041  13.941
70439SOL    HW213215   7.780  12.149  13.838
70440SOL     OW13216  10.393   1.189   7.605
70440SOL    HW113217  10.410   1.281   7.583
70440SOL    HW213218  10.303   1.173   7.576
70441SOL     OW13219   9.861   3.586   8.456
70441SOL    HW113220   9.806   3.664   8.460
70441SOL    HW213221   9.800   3.513   8.466
70442SOL     OW13222   4.570  12.571   0.261
70442SOL    HW113223   4.612  12.569   0.176
70442SOL    HW213224   4.509  12.645   0.256
70443SOL     OW13225   2.474   4.978  14.759
70443SOL    HW113226   2.395   4.948  14.714
70443SOL    HW213227   2.545   4.927  14.719
70444SOL     OW13228  12.666  12.361  12.207
70444SOL    HW113229  12.751  12.319  12.212
70444SOL    HW213230  12.678  12.432  12.144
70445SOL     OW13231   8.946   4.137  11.223
70445SOL    HW113232   8.944   4.062  11.282
70445SOL    HW213233   8.923   4.211  11.279
70446SOL     OW13234  14.282  11.156   5.334
70446SOL    HW113235  14.267  11.107   5.252
70446SOL    HW213236  14.245  11.100   5.402
70447SOL     OW13237   0.266   7.035  12.439
70447SOL    HW113238   0.199   6.988  12.489
70447SOL    HW213239   0.288   7.110  12.495
70448SOL     OW13240   5.471  14.809   6.184
70448SOL    HW113241   5.482  14.756   6.263
70448SOL    HW213242   5.470  14.746   6.112
70449SOL     OW13243   3.631   0.585   5.567
70449SOL    HW113244   3.703   0.627   5.520
70449SOL    HW213245   3.572   0.657   5.590
70450SOL     OW13246  12.099   8.093   5.482
70450SOL    HW113247  12.108   8.088   5.577
70450SOL    HW213248  12.130   8.181   5.460
70451SOL     OW13249  14.381   2.499   3.065
70451SOL    HW113250  14.441   2.426   3.051
70451SOL    HW213251  14.328   2.473   3.141
70452SOL     OW13252   7.301   7.264  10.105
70452SOL    HW113253   7.389   7.252  10.140
70452SOL    HW213254   7.280   7.182  10.061
70453SOL     OW13255   1.723   6.500  10.482
70453SOL    HW113256   1.691   6.573  10.429
70453SOL    HW213257   1.751   6.541  10.564
70454SOL     OW13258  14.833  13.477   7.667
70454SOL    HW113259  14.804  13.466   7.577
70454SOL    HW213260   0.024  13.409   7.679
70455SOL     OW13261   7.843   9.216  14.720
70455SOL    HW113262   7.772   9.152  14.710
70455SOL    HW213263   7.802   9.301  14.706
70456SOL     OW13264  10.520   9.147   9.427
70456SOL    HW113265  10.616   9.142   9.430
70456SOL    HW213266  10.491   9.088   9.497
70457SOL     OW13267   7.047   0.388   6.115
70457SOL    HW113268   7.123   0.446   6.114
70457SOL    HW213269   6.972   0.447   6.118
70458SOL     OW13270   4.095  12.363   3.318
70458SOL    HW113271   4.173  12.308   3.332
70458SOL    HW213272   4.023  12.312   3.353
70459SOL     OW13273   2.391   9.293   1.886
70459SOL    HW113274   2.343   9.376   1.886
70459SOL    HW213275   2.439   9.293   1.803
70460SOL     OW13276   9.218   7.857   5.475
70460SOL    HW113277   9.245   7.881   5.563
70460SOL    HW213278   9.281   7.901   5.418
70461SOL     OW13279   2.565   3.998   1.256
70461SOL    HW113280   2.526   4.038   1.179
70461SOL    HW213281   2.620   4.066   1.294
70462SOL     OW13282   4.233  11.877   4.405
70462SOL    HW113283   4.252  11.962   4.366
70462SOL    HW213284   4.230  11.817   4.331
70463SOL     OW13285   8.035  14.037   4.467
70463SOL    HW113286   7.953  13.991   4.449
70463SOL    HW213287   8.016  14.129   4.446
70464SOL     OW13288  13.952  10.790   1.369
70464SOL    HW113289  13.928  10.778   1.461
70464SOL    HW213290  13.929  10.882   1.351
70465SOL     OW13291  10.999  13.454   9.300
70465SOL    HW113292  10.995  13.359   9.286
70465SOL    HW213293  11.086  13.479   9.270
70466SOL     OW13294   0.427   8.904   2.385
70466SOL    HW113295   0.449   8.814   2.408
70466SOL    HW213296   0.339   8.916   2.420
70467SOL     OW13297   7.266  10.774   2.619
70467SOL    HW113298   7.352  10.773   2.659
70467SOL    HW213299   7.263  10.695   2.566
70468SOL     OW13300   2.385   7.745   2.094
70468SOL    HW113301   2.377   7.771   2.003
70468SOL    HW213302   2.297   7.756   2.130
70469SOL     OW13303   1.509  11.326  11.116
70469SOL    HW113304   1.580  11.391  11.109
70469SOL    HW213305   1.432  11.378  11.141
70470SOL     OW13306  14.331   5.337   0.829
70470SOL    HW113307  14.333   5.287   0.747
70470SOL    HW213308  14.259   5.399   0.818
70471SOL     OW13309   8.506  13.280   1.992
70471SOL    HW113310   8.421  13.283   1.948
70471SOL    HW213311   8.562  13.339   1.940
70472SOL     OW13312   3.563   4.526  12.908
70472SOL    HW113313   3.545   4.578  12.830
70472SOL    HW213314   3.581   4.592  12.976
70473SOL     OW13315   8.377   1.325   8.428
70473SOL    HW113316   8.350   1.416   8.439
70473SOL    HW213317   8.296   1.275   8.432
70474SOL     OW13318   1.262  11.745   2.334
70474SOL    HW113319   1.196  11.735   2.266
70474SOL    HW213320   1.237  11.681   2.401
70475SOL     OW13321   1.662   0.842   5.438
70475SOL    HW113322   1.708   0.921   5.468
70475SOL    HW213323   1.622   0.806   5.518
70476SOL     OW13324  12.995   0.894   5.385
70476SOL    HW113325  13.067   0.926   5.331
70476SOL    HW213326  12.921   0.950   5.362
70477SOL     OW13327  14.698  14.027   8.760
70477SOL    HW113328  14.685  13.942   8.719
70477SOL    HW213329  14.684  14.011   8.853
70478SOL     OW13330   1.891   7.349   5.792
70478SOL    HW113331   1.830   7.312   5.856
70478SOL    HW213332   1.844   7.423   5.753
70479SOL     OW13333   3.507   5.866   6.149
70479SOL    HW113334   3.443   5.807   6.110
70479SOL    HW213335   3.549   5.814   6.217
70480SOL     OW13336  13.359   5.090   0.153
70480SOL    HW113337  13.349   5.182   0.130
70480SOL    HW213338  13.333   5.043   0.074
70481SOL     OW13339  10.135   1.057   2.505
70481SOL    HW113340  10.062   1.003   2.476
70481SOL    HW213341  10.161   1.019   2.590
70482SOL     OW13342  12.315   0.720  14.279
70482SOL    HW113343  12.322   0.808  14.316
70482SOL    HW213344  12.244   0.727  14.215
70483SOL     OW13345   6.722   8.310   1.281
70483SOL    HW113346   6.640   8.343   1.316
70483SOL    HW213347   6.702   8.285   1.191
70484SOL     OW13348   9.775   8.722  14.171
70484SOL    HW113349   9.793   8.733  14.078
70484SOL    HW213350   9.683   8.698  14.175
70485SOL     OW13351   4.481  10.798   6.457
70485SOL    HW113352   4.393  10.784   6.424
70485SOL    HW213353   4.506  10.714   6.496
70486SOL     OW13354   7.457  14.542   1.429
70486SOL    HW113355   7.472  14.583   1.514
70486SOL    HW213356   7.448  14.449   1.450
70487SOL     OW13357  14.452   6.968   7.914
70487SOL    HW113358  14.426   6.921   7.993
70487SOL    HW213359  14.408   7.053   7.921
70488SOL     OW13360   0.370  13.936  13.919
70488SOL    HW113361   0.406  13.848  13.913
70488SOL    HW213362   0.322  13.936  14.002
70489SOL     OW13363   5.077  13.220   9.745
70489SOL    HW113364   5.024  13.219   9.665
70489SOL    HW213365   5.127  13.302   9.738
70490SOL     OW13366   6.926   1.799  10.356
70490SOL    HW113367   7.016   1.807  10.324
70490SOL    HW213368   6.916   1.871  10.418
70491SOL     OW13369   5.001  14.674   2.697
70491SOL    HW113370   4.960  14.648   2.615
70491SOL    HW213371   5.055  14.599   2.722
70492SOL     OW13372   2.896   0.102   7.888
70492SOL    HW113373   2.951   0.027   7.868
70492SOL    HW213374   2.873   0.091   7.980
70493SOL     OW13375   1.249  11.290   9.018
70493SOL    HW113376   1.267  11.299   9.112
70493SOL    HW213377   1.314  11.347   8.976
70494SOL     OW13378   4.198  10.717  13.549
70494SOL    HW113379   4.273  10.773  13.569
70494SOL    HW213380   4.222  10.631  13.582
70495SOL     OW13381   7.658  12.819   5.839
70495SOL    HW113382   7.574  12.796   5.879
70495SOL    HW213383   7.647  12.797   5.747
70496SOL     OW13384  13.927   1.742  10.603
70496SOL    HW113385  13.983   1.675  10.640
70496SOL    HW213386  13.867   1.695  10.545
70497SOL     OW13387  12.680  10.842   2.806
70497SOL    HW113388  12.730  10.786   2.746
70497SOL    HW213389  12.620  10.890   2.749
70498SOL     OW13390   1.642   4.470  12.066
70498SOL    HW113391   1.698   4.479  12.143
70498SOL    HW213392   1.667   4.385  12.029
70499SOL     OW13393   0.154   9.022   8.006
70499SOL    HW113394   0.188   9.109   7.983
70499SOL    HW213395   0.112   8.992   7.925
70500SOL     OW13396   0.387   4.661  14.054
70500SOL    HW113397   0.371   4.748  14.016
70500SOL    HW213398   0.372   4.601  13.982
70501SOL     OW13399   4.453   1.653   6.365
70501SOL    HW113400   4.514   1.598   6.316
70501SOL    HW213401   4.507   1.694   6.433
70502SOL     OW13402  12.214  14.009   5.981
70502SOL    HW113403  12.133  14.056   6.002
70502SOL    HW213404  12.200  13.921   6.018
70503SOL     OW13405   6.139   1.838   9.102
70503SOL    HW113406   6.130   1.794   9.017
70503SOL    HW213407   6.113   1.771   9.166
70504SOL     OW13408   0.542   5.613   1.688
70504SOL    HW113409   0.449   5.624   1.707
70504SOL    HW213410   0.580   5.583   1.771
70505SOL     OW13411   2.254  12.897  11.750
70505SOL    HW113412   2.259  12.942  11.666
70505SOL    HW213413   2.169  12.921  11.786
70506SOL     OW13414  10.416  10.999   5.505
70506SOL    HW113415  10.459  10.958   5.431
70506SOL    HW213416  10.330  11.024   5.472
70507SOL     OW13417   0.338   7.749   2.801
70507SOL    HW113418   0.291   7.815   2.852
70507SOL    HW213419   0.316   7.666   2.843
70508SOL     OW13420  13.960   6.278   5.337
70508SOL    HW113421  13.952   6.325   5.420
70508SOL    HW213422  13.958   6.185   5.362
70509SOL     OW13423   6.319  11.587   8.838
70509SOL    HW113424   6.356  11.638   8.766
70509SOL    HW213425   6.389  11.527   8.863
70510SOL     OW13426  10.102   7.116  11.260
70510SOL    HW113427  10.186   7.144  11.294
70510SOL    HW213428  10.113   7.116  11.165
70511SOL     OW13429  11.794  14.845  13.708
70511SOL    HW113430  11.885  14.823  13.688
70511SOL    HW213431  11.799   0.018  13.790
70512SOL     OW13432   6.310   6.550   4.550
70512SOL    HW113433   6.296   6.455   4.543
70512SOL    HW213434   6.222   6.587   4.540
70513SOL     OW13435  11.433   9.423  11.204
70513SOL    HW113436  11.492   9.447  11.275
70513SOL    HW213437  11.489   9.424  11.126
70514SOL     OW13438  10.880   7.834  14.422
70514SOL    HW113439  10.869   7.910  14.480
70514SOL    HW213440  10.872   7.758  14.480
70515SOL     OW13441  14.123   1.842   7.812
70515SOL    HW113442  14.191   1.909   7.815
70515SOL    HW213443  14.069   1.858   7.889
70516SOL     OW13444  14.023   3.678  13.726
70516SOL    HW113445  14.087   3.613  13.755
70516SOL    HW213446  14.062   3.762  13.750
70517SOL     OW13447   7.650   1.553   0.335
70517SOL    HW113448   7.728   1.530   0.384
70517SOL    HW213449   7.659   1.507   0.251
70518SOL     OW13450  14.163   8.990  14.722
70518SOL    HW113451  14.133   9.063  14.776
70518SOL    HW213452  14.255   8.978  14.745
70519SOL     OW13453   9.995   7.972  10.016
70519SOL    HW113454   9.937   8.046  10.031
70519SOL    HW213455  10.066   7.984  10.079
70520SOL     OW13456  13.089   6.244  12.531
70520SOL    HW113457  13.149   6.172  12.512
70520SOL    HW213458  13.002   6.209  12.511
70521SOL     OW13459   2.113  10.343   8.106
70521SOL    HW113460   2.043  10.391   8.150
70521SOL    HW213461   2.144  10.280   8.171
70522SOL     OW13462   6.224   0.222   8.923
70522SOL    HW113463   6.224   0.280   8.847
70522SOL    HW213464   6.132   0.202   8.939
70523SOL     OW13465   0.093  13.171   1.654
70523SOL    HW113466   0.158  13.175   1.724
70523SOL    HW213467   0.057  13.260   1.651
70524SOL     OW13468   0.023   2.638  12.225
70524SOL    HW113469   0.014   2.552  12.266
70524SOL    HW213470   0.043   2.697  12.297
70525SOL     OW13471   6.261  10.612   4.100
70525SOL    HW113472   6.173  10.619   4.061
70525SOL    HW213473   6.258  10.532   4.152
70526SOL     OW13474   1.337   5.417  14.453
70526SOL    HW113475   1.304   5.354  14.389
70526SOL    HW213476   1.301   5.501  14.426
70527SOL     OW13477   5.108   5.866   2.382
70527SOL    HW113478   5.122   5.922   2.458
70527SOL    HW213479   5.019   5.887   2.353
70528SOL     OW13480  10.240   6.261  13.431
70528SOL    HW113481  10.189   6.338  13.456
70528SOL    HW213482  10.328   6.295  13.416
70529SOL     OW13483   6.421   5.140  11.473
70529SOL    HW113484   6.503   5.165  11.514
70529SOL    HW213485   6.354   5.167  11.535
70530SOL     OW13486   3.352   7.621  13.259
70530SOL    HW113487   3.386   7.534  13.277
70530SOL    HW213488   3.293   7.609  13.185
70531SOL     OW13489   9.769  13.756  10.729
70531SOL    HW113490   9.714  13.688  10.768
70531SOL    HW213491   9.783  13.819  10.799
70532SOL     OW13492   3.263   2.271   7.330
70532SOL    HW113493   3.183   2.313   7.363
70532SOL    HW213494   3.231   2.200   7.274
70533SOL     OW13495  11.579   7.657   9.860
70533SOL    HW113496  11.494   7.635   9.822
70533SOL    HW213497  11.572   7.629   9.952
70534SOL     OW13498   5.702   6.325   2.743
70534SOL    HW113499   5.703   6.235   2.711
70534SOL    HW213500   5.670   6.318   2.833
70535SOL     OW13501  14.751   7.442   5.739
70535SOL    HW113502  14.833   7.409   5.703
70535SOL    HW213503  14.684   7.382   5.707
70536SOL     OW13504  13.683  11.846   7.546
70536SOL    HW113505  13.648  11.884   7.627
70536SOL    HW213506  13.606  11.813   7.500
70537SOL     OW13507  10.228   7.999   3.722
70537SOL    HW113508  10.204   8.030   3.635
70537SOL    HW213509  10.322   8.018   3.728
70538SOL     OW13510   1.209   3.358   1.639
70538SOL    HW113511   1.199   3.451   1.659
70538SOL    HW213512   1.120   3.327   1.622
70539SOL     OW13513  14.802  12.632   2.873
70539SOL    HW113514   0.013  12.673   2.868
70539SOL    HW213515  14.785  12.626   2.967
70540SOL     OW13516   3.799   8.805   0.513
70540SOL    HW113517   3.797   8.769   0.424
70540SOL    HW213518   3.718   8.856   0.521
70541SOL     OW13519  11.322   3.985   0.554
70541SOL    HW113520  11.302   4.078   0.561
70541SOL    HW213521  11.411   3.982   0.518
70542SOL     OW13522  12.505   8.786   1.860
70542SOL    HW113523  12.521   8.846   1.932
70542SOL    HW213524  12.451   8.836   1.798
70543SOL     OW13525   5.345  12.165  11.555
70543SOL    HW113526   5.370  12.076  11.580
70543SOL    HW213527   5.415  12.220  11.590
70544SOL     OW13528  14.820   5.344   1.286
70544SOL    HW113529  14.828   5.254   1.319
70544SOL    HW213530   0.009   5.393   1.337
70545SOL     OW13531   0.274   6.008   4.255
70545SOL    HW113532   0.221   5.929   4.252
70545SOL    HW213533   0.294   6.020   4.348
70546SOL     OW13534  10.306  12.604   8.153
70546SOL    HW113535  10.242  12.676   8.157
70546SOL    HW213536  10.297  12.569   8.064
70547SOL     OW13537  11.901   7.131   2.368
70547SOL    HW113538  11.809   7.158   2.370
70547SOL    HW213539  11.947   7.200   2.415
70548SOL     OW13540   3.727   5.947   7.136
70548SOL    HW113541   3.779   5.871   7.111
70548SOL    HW213542   3.782   6.022   7.114
70549SOL     OW13543   5.275   8.169   3.439
70549SOL    HW113544   5.268   8.264   3.442
70549SOL    HW213545   5.364   8.152   3.408
70550SOL     OW13546   0.439  13.403   5.177
70550SOL    HW113547   0.473  13.456   5.249
70550SOL    HW213548   0.436  13.314   5.212
70551SOL     OW13549  10.909  10.924  10.342
70551SOL    HW113550  10.864  10.845  10.373
70551SOL    HW213551  10.892  10.989  10.411
70552SOL     OW13552  11.766  13.640   9.225
70552SOL    HW113553  11.782  13.549   9.250
70552SOL    HW213554  11.853  13.679   9.220
70553SOL     OW13555  11.397   4.690   0.650
70553SOL    HW113556  11.463   4.688   0.719
70553SOL    HW213557  11.313   4.684   0.697
70554SOL     OW13558   3.393   4.966  11.266
70554SOL    HW113559   3.404   4.874  11.243
70554SOL    HW213560   3.456   5.012  11.210
70555SOL     OW13561   4.289  13.970   8.907
70555SOL    HW113562   4.322  13.967   8.818
70555SOL    HW213563   4.206  13.922   8.903
70556SOL     OW13564   5.676  11.717  12.372
70556SOL    HW113565   5.752  11.775  12.379
70556SOL    HW213566   5.688  11.670  12.290
70557SOL     OW13567   3.391   2.004   7.674
70557SOL    HW113568   3.413   1.916   7.645
70557SOL    HW213569   3.476   2.046   7.688
70558SOL     OW13570  13.289   4.018   0.312
70558SOL    HW113571  13.348   4.068   0.369
70558SOL    HW213572  13.206   4.067   0.315
70559SOL     OW13573   4.668  13.564   6.895
70559SOL    HW113574   4.689  13.656   6.884
70559SOL    HW213575   4.624  13.559   6.980
70560SOL     OW13576   4.346   4.446   5.409
70560SOL    HW113577   4.442   4.451   5.403
70560SOL    HW213578   4.330   4.357   5.440
70561SOL     OW13579   4.960   8.998  13.976
70561SOL    HW113580   4.893   8.961  14.033
70561SOL    HW213581   5.016   8.923  13.953
70562SOL     OW13582   3.742   9.314   5.414
70562SOL    HW113583   3.757   9.234   5.464
70562SOL    HW213584   3.749   9.287   5.322
70563SOL     OW13585   2.574  10.369   2.440
70563SOL    HW113586   2.648  10.340   2.493
70563SOL    HW213587   2.497  10.337   2.486
70564SOL     OW13588  10.622   1.212   7.938
70564SOL    HW113589  10.699   1.157   7.955
70564SOL    HW213590  10.650   1.271   7.869
70565SOL     OW13591   3.817  12.410  13.006
70565SOL    HW113592   3.850  12.455  13.083
70565SOL    HW213593   3.763  12.475  12.961
70566SOL     OW13594   0.971   6.320  10.726
70566SOL    HW113595   1.016   6.341  10.644
70566SOL    HW213596   0.878   6.321  10.704
70567SOL     OW13597  11.177  14.258   3.912
70567SOL    HW113598  11.267  14.288   3.927
70567SOL    HW213599  11.179  14.221   3.824
70568SOL     OW13600   2.045   4.596   0.362
70568SOL    HW113601   1.968   4.648   0.384
70568SOL    HW213602   2.038   4.518   0.416
70569SOL     OW13603  13.610   8.044   5.914
70569SOL    HW113604  13.660   8.006   5.842
70569SOL    HW213605  13.531   8.079   5.872
70570SOL     OW13606   1.036   9.847  12.535
70570SOL    HW113607   0.968   9.900  12.494
70570SOL    HW213608   1.118   9.884  12.502
70571SOL     OW13609  11.634  13.271   6.646
70571SOL    HW113610  11.618  13.351   6.598
70571SOL    HW213611  11.560  13.263   6.705
70572SOL     OW13612   5.376   9.280   4.010
70572SOL    HW113613   5.283   9.279   3.988
70572SOL    HW213614   5.388   9.361   4.060
70573SOL     OW13615   5.700   8.145   1.991
70573SOL    HW113616   5.698   8.238   2.010
70573SOL    HW213617   5.753   8.107   2.061
70574SOL     OW13618  14.608   2.227   8.215
70574SOL    HW113619  14.645   2.291   8.155
70574SOL    HW213620  14.669   2.153   8.212
70575SOL     OW13621   6.266   7.092  10.610
70575SOL    HW113622   6.229   7.091  10.699
70575SOL    HW213623   6.357   7.118  10.622
70576SOL     OW13624  10.952   5.134   5.304
70576SOL    HW113625  11.031   5.108   5.256
70576SOL    HW213626  10.911   5.051   5.329
70577SOL     OW13627   2.286  11.228  10.863
70577SOL    HW113628   2.330  11.197  10.784
70577SOL    HW213629   2.200  11.258  10.833
70578SOL     OW13630   3.883   5.755   5.047
70578SOL    HW113631   3.894   5.831   5.104
70578SOL    HW213632   3.943   5.770   4.974
70579SOL     OW13633   7.467   0.305  13.589
70579SOL    HW113634   7.535   0.321  13.655
70579SOL    HW213635   7.390   0.351  13.621
70580SOL     OW13636   5.025   0.614  10.156
70580SOL    HW113637   5.093   0.621  10.223
70580SOL    HW213638   5.073   0.599  10.074
70581SOL     OW13639   5.743   6.301  11.766
70581SOL    HW113640   5.717   6.223  11.815
70581SOL    HW213641   5.812   6.270  11.708
70582SOL     OW13642  14.330   0.827  12.862
70582SOL    HW113643  14.270   0.752  12.860
70582SOL    HW213644  14.351   0.839  12.954
70583SOL     OW13645  11.541  10.321   4.889
70583SOL    HW113646  11.630  10.288   4.899
70583SOL    HW213647  11.485  10.250   4.919
70584SOL     OW13648  10.236  11.307  13.676
70584SOL    HW113649  10.197  11.362  13.609
70584SOL    HW213650  10.331  11.316  13.664
70585SOL     OW13651   9.780  12.138   6.907
70585SOL    HW113652   9.710  12.137   6.841
70585SOL    HW213653   9.847  12.079   6.873
70586SOL     OW13654  13.164   4.550  13.738
70586SOL    HW113655  13.251   4.561  13.776
70586SOL    HW213656  13.179   4.497  13.659
70587SOL     OW13657   1.350  14.472   0.107
70587SOL    HW113658   1.324  14.406   0.043
70587SOL    HW213659   1.290  14.459   0.181
70588SOL     OW13660  14.855   2.633  14.245
70588SOL    HW113661  14.870   2.562  14.182
70588SOL    HW213662  14.840   2.587  14.328
70589SOL     OW13663   0.542   0.652  14.675
70589SOL    HW113664   0.458   0.643  14.629
70589SOL    HW213665   0.608   0.646  14.606
70590SOL     OW13666   7.694   4.314   3.387
70590SOL    HW113667   7.715   4.305   3.480
70590SOL    HW213668   7.725   4.401   3.364
70591SOL     OW13669   4.057  13.091   8.016
70591SOL    HW113670   4.059  13.186   8.032
70591SOL    HW213671   3.973  13.063   8.052
70592SOL     OW13672   6.673   1.548   2.465
70592SOL    HW113673   6.655   1.583   2.552
70592SOL    HW213674   6.764   1.519   2.469
70593SOL     OW13675   5.910  13.125   6.642
70593SOL    HW113676   5.869  13.088   6.564
70593SOL    HW213677   6.004  13.111   6.629
70594SOL     OW13678  12.210  12.317   6.329
70594SOL    HW113679  12.143  12.372   6.371
70594SOL    HW213680  12.293  12.361   6.349
70595SOL     OW13681   0.230   6.805   4.325
70595SOL    HW113682   0.263   6.895   4.331
70595SOL    HW213683   0.232   6.785   4.232
70596SOL     OW13684  14.754   6.635  11.908
70596SOL    HW113685  14.698   6.679  11.845
70596SOL    HW213686  14.761   6.697  11.981
70597SOL     OW13687  14.303  10.489   9.769
70597SOL    HW113688  14.358  10.527   9.701
70597SOL    HW213689  14.217  10.528   9.756
70598SOL     OW13690   7.393   6.352   4.294
70598SOL    HW113691   7.317   6.396   4.330
70598SOL    HW213692   7.380   6.260   4.316
70599SOL     OW13693  14.201  12.677  11.530
70599SOL    HW113694  14.116  12.634  11.538
70599SOL    HW213695  14.208  12.701  11.437
70600SOL     OW13696  12.487   4.400  13.122
70600SOL    HW113697  12.441   4.330  13.075
70600SOL    HW213698  12.423   4.431  13.186
70601SOL     OW13699   1.881   2.049   6.087
70601SOL    HW113700   1.976   2.044   6.099
70601SOL    HW213701   1.845   2.050   6.176
70602SOL     OW13702   1.996  13.170  13.055
70602SOL    HW113703   2.049  13.149  13.131
70602SOL    HW213704   2.043  13.242  13.012
70603SOL     OW13705  10.488  10.839   5.319
70603SOL    HW113706  10.513  10.752   5.351
70603SOL    HW213707  10.441  10.821   5.238
70604SOL     OW13708   8.258  10.194   5.822
70604SOL    HW113709   8.276  10.288   5.816
70604SOL    HW213710   8.344  10.154   5.835
70605SOL     OW13711  12.735  11.564  10.653
70605SOL    HW113712  12.744  11.653  10.688
70605SOL    HW213713  12.668  11.523  10.707
70606SOL     OW13714   6.865   8.184   7.510
70606SOL    HW113715   6.825   8.159   7.594
70606SOL    HW213716   6.834   8.273   7.495
70607SOL     OW13717   0.550  13.673  11.157
70607SOL    HW113718   0.492  13.626  11.098
70607SOL    HW213719   0.561  13.614  11.232
70608SOL     OW13720  13.700  10.020   7.507
70608SOL    HW113721  13.779   9.993   7.460
70608SOL    HW213722  13.710  10.115   7.517
70609SOL     OW13723   8.128   9.465   7.401
70609SOL    HW113724   8.049   9.422   7.432
70609SOL    HW213725   8.126   9.551   7.442
70610SOL     OW13726   8.687  11.133  14.060
70610SOL    HW113727   8.659  11.222  14.038
70610SOL    HW213728   8.753  11.144  14.128
70611SOL     OW13729  13.547   6.073   2.594
70611SOL    HW113730  13.556   6.078   2.499
70611SOL    HW213731  13.508   6.157   2.619
70612SOL     OW13732   1.366   7.158  12.148
70612SOL    HW113733   1.338   7.109  12.071
70612SOL    HW213734   1.381   7.246  12.116
70613SOL     OW13735  10.877   8.752  11.877
70613SOL    HW113736  10.856   8.791  11.792
70613SOL    HW213737  10.793   8.751  11.923
70614SOL     OW13738   7.066   1.995   1.014
70614SOL    HW113739   6.994   2.055   1.030
70614SOL    HW213740   7.145   2.046   1.032
70615SOL     OW13741  14.692  14.371   8.510
70615SOL    HW113742  14.606  14.412   8.523
70615SOL    HW213743  14.685  14.328   8.424
70616SOL     OW13744   1.561  11.205   6.411
70616SOL    HW113745   1.635  11.265   6.420
70616SOL    HW213746   1.547  11.170   6.498
70617SOL     OW13747   5.643   6.778  11.686
70617SOL    HW113748   5.663   6.704  11.742
70617SOL    HW213749   5.569   6.748  11.632
70618SOL     OW13750   9.008   8.348   9.117
70618SOL    HW113751   8.929   8.365   9.168
70618SOL    HW213752   9.079   8.384   9.170
70619SOL     OW13753   1.024  14.363   5.315
70619SOL    HW113754   1.000  14.411   5.394
70619SOL    HW213755   1.102  14.409   5.282
70620SOL     OW13756   9.856   7.853  12.549
70620SOL    HW113757   9.813   7.933  12.520
70620SOL    HW213758   9.849   7.855  12.644
70621SOL     OW13759  12.020  14.396   3.982
70621SOL    HW113760  12.055  14.363   4.064
70621SOL    HW213761  11.927  14.371   3.984
70622SOL     OW13762   3.895   8.228  11.456
70622SOL    HW113763   3.910   8.203  11.364
70622SOL    HW213764   3.945   8.164  11.506
70623SOL     OW13765  12.076  12.879   1.825
70623SOL    HW113766  12.079  12.975   1.822
70623SOL    HW213767  12.113  12.851   1.742
70624SOL     OW13768   9.018   1.053  12.571
70624SOL    HW113769   8.948   1.109  12.536
70624SOL    HW213770   9.075   1.114  12.619
70625SOL     OW13771   9.048  14.639   8.947
70625SOL    HW113772   9.121  14.691   8.916
70625SOL    HW213773   9.030  14.673   9.035
70626SOL     OW13774   8.758   0.310   7.215
70626SOL    HW113775   8.670   0.277   7.200
70626SOL    HW213776   8.746   0.403   7.237
70627SOL     OW13777   6.567   9.647  13.598
70627SOL    HW113778   6.622   9.721  13.572
70627SOL    HW213779   6.628   9.577  13.619
70628SOL     OW13780   9.368  13.202  14.633
70628SOL    HW113781   9.392  13.288  14.598
70628SOL    HW213782   9.414  13.139  14.577
70629SOL     OW13783  11.964  11.669  13.772
70629SOL    HW113784  11.988  11.577  13.775
70629SOL    HW213785  12.038  11.712  13.730
70630SOL     OW13786   0.138   6.983   0.329
70630SOL    HW113787   0.168   7.069   0.300
70630SOL    HW213788   0.196   6.921   0.286
70631SOL     OW13789  11.508   2.223   8.000
70631SOL    HW113790  11.599   2.195   7.998
70631SOL    HW213791  11.498   2.276   7.921
70632SOL     OW13792   4.749   5.421   8.398
70632SOL    HW113793   4.739   5.337   8.441
70632SOL    HW213794   4.712   5.484   8.459
70633SOL     OW13795   1.886  12.957   6.756
70633SOL    HW113796   1.888  12.949   6.852
70633SOL    HW213797   1.978  12.959   6.730
70634SOL     OW13798   7.696  10.863  10.554
70634SOL    HW113799   7.670  10.912  10.476
70634SOL    HW213800   7.614  10.830  10.590
70635SOL     OW13801   9.030   1.816   9.632
70635SOL    HW113802   8.970   1.744   9.652
70635SOL    HW213803   8.991   1.892   9.674
70636SOL     OW13804   3.122   6.432  10.669
70636SOL    HW113805   3.094   6.400  10.755
70636SOL    HW213806   3.133   6.353  10.616
70637SOL     OW13807   8.403   1.164   0.022
70637SOL    HW113808   8.308   1.180   0.018
70637SOL    HW213809   8.432   1.215   0.097
70638SOL     OW13810   0.745   2.571  11.092
70638SOL    HW113811   0.781   2.581  11.004
70638SOL    HW213812   0.791   2.636  11.144
70639SOL     OW13813   3.840  10.570   0.185
70639SOL    HW113814   3.874  10.484   0.156
70639SOL    HW213815   3.919  10.624   0.195
70640SOL     OW13816   4.235  13.834  14.773
70640SOL    HW113817   4.258  13.787  14.853
70640SOL    HW213818   4.294  13.909  14.773
70641SOL     OW13819   9.544   8.083   4.585
70641SOL    HW113820   9.512   8.121   4.667
70641SOL    HW213821   9.545   7.989   4.601
70642SOL     OW13822   9.908   1.346   4.414
70642SOL    HW113823   9.836   1.313   4.359
70642SOL    HW213824   9.968   1.272   4.420
70643SOL     OW13825   5.729   5.836   5.603
70643SOL    HW113826   5.657   5.773   5.601
70643SOL    HW213827   5.808   5.783   5.591
70644SOL     OW13828   5.144   2.370   0.756
70644SOL    HW113829   5.134   2.310   0.682
70644SOL    HW213830   5.149   2.457   0.716
70645SOL     OW13831  10.108  11.442   6.614
70645SOL    HW113832  10.121  11.511   6.679
70645SOL    HW213833  10.135  11.362   6.657
70646SOL     OW13834  10.504  11.084   7.677
70646SOL    HW113835  10.456  11.012   7.636
70646SOL    HW213836  10.508  11.060   7.770
70647SOL     OW13837   5.485  12.270   6.536
70647SOL    HW113838   5.545  12.246   6.606
70647SOL    HW213839   5.443  12.351   6.567
70648SOL     OW13840  11.502  10.279   1.633
70648SOL    HW113841  11.583  10.229   1.623
70648SOL    HW213842  11.528  10.369   1.615
70649SOL     OW13843   8.642   5.545   1.756
70649SOL    HW113844   8.556   5.588   1.761
70649SOL    HW213845   8.636   5.473   1.819
70650SOL     OW13846  11.243   2.328   9.442
70650SOL    HW113847  11.192   2.333   9.523
70650SOL    HW213848  11.186   2.367   9.376
70651SOL     OW13849  10.717   4.189   3.558
70651SOL    HW113850  10.810   4.214   3.565
70651SOL    HW213851  10.672   4.247   3.620
70652SOL     OW13852  13.210  12.765   2.043
70652SOL    HW113853  13.266  12.804   1.976
70652SOL    HW213854  13.124  12.757   2.001
70653SOL     OW13855  14.437  14.825   5.624
70653SOL    HW113856  14.450  14.828   5.719
70653SOL    HW213857  14.510   0.001   5.589
70654SOL     OW13858   4.822   4.100  14.657
70654SOL    HW113859   4.908   4.139  14.639
70654SOL    HW213860   4.819   4.092  14.752
70655SOL     OW13861   8.498   3.804   3.854
70655SOL    HW113862   8.528   3.714   3.866
70655SOL    HW213863   8.579   3.855   3.845
70656SOL     OW13864  13.095   2.125   9.164
70656SOL    HW113865  13.105   2.164   9.251
70656SOL    HW213866  13.089   2.200   9.105
70657SOL     OW13867   6.654  11.045   2.244
70657SOL    HW113868   6.708  11.080   2.315
70657SOL    HW213869   6.710  11.051   2.166
70658SOL     OW13870   8.803   3.727   8.745
70658SOL    HW113871   8.850   3.787   8.803
70658SOL    HW213872   8.711   3.755   8.750
70659SOL     OW13873   8.271  13.742   4.057
70659SOL    HW113874   8.357  13.704   4.073
70659SOL    HW213875   8.213  13.667   4.048
70660SOL     OW13876   3.287   2.206  12.915
70660SOL    HW113877   3.330   2.161  12.988
70660SOL    HW213878   3.261   2.291  12.950
70661SOL     OW13879  13.536   0.303  13.126
70661SOL    HW113880  13.546   0.211  13.103
70661SOL    HW213881  13.543   0.305  13.222
70662SOL     OW13882   2.399   6.596  11.485
70662SOL    HW113883   2.331   6.594  11.417
70662SOL    HW213884   2.350   6.603  11.567
70663SOL     OW13885   0.856   7.374   2.155
70663SOL    HW113886   0.943   7.403   2.128
70663SOL    HW213887   0.857   7.382   2.251
70664SOL     OW13888  11.899  14.066   8.619
70664SOL    HW113889  11.936  14.153   8.636
70664SOL    HW213890  11.821  14.082   8.568
70665SOL     OW13891   8.250   9.293   7.234
70665SOL    HW113892   8.315   9.245   7.286
70665SOL    HW213893   8.211   9.355   7.296
70666SOL     OW13894   9.821   2.807   8.095
70666SOL    HW113895   9.849   2.792   8.004
70666SOL    HW213896   9.901   2.832   8.141
70667SOL     OW13897   7.126   0.999   9.130
70667SOL    HW113898   7.193   0.934   9.152
70667SOL    HW213899   7.092   0.969   9.046
70668SOL     OW13900  13.238   0.941   8.113
70668SOL    HW113901  13.307   0.918   8.175
70668SOL    HW213902  13.162   0.961   8.168
70669SOL     OW13903   4.198   1.634   6.867
70669SOL    HW113904   4.260   1.680   6.925
70669SOL    HW213905   4.117   1.628   6.918
70670SOL     OW13906   2.937  13.089   9.154
70670SOL    HW113907   3.025  13.052   9.159
70670SOL    HW213908   2.935  13.157   9.221
70671SOL     OW13909  13.559   5.596  10.126
70671SOL    HW113910  13.625   5.665  10.120
70671SOL    HW213911  13.603   5.525  10.174
70672SOL     OW13912  10.588   2.401   5.915
70672SOL    HW113913  10.503   2.439   5.937
70672SOL    HW213914  10.640   2.410   5.995
70673SOL     OW13915  12.925  11.358  10.527
70673SOL    HW113916  12.905  11.265  10.513
70673SOL    HW213917  12.840  11.402  10.521
70674SOL     OW13918  14.272  11.574   6.765
70674SOL    HW113919  14.259  11.494   6.816
70674SOL    HW213920  14.216  11.563   6.688
70675SOL     OW13921   2.487   7.675   2.510
70675SOL    HW113922   2.498   7.764   2.545
70675SOL    HW213923   2.515   7.683   2.419
70676SOL     OW13924  14.462   6.275  12.609
70676SOL    HW113925  14.372   6.302  12.591
70676SOL    HW213926  14.474   6.197  12.555
70677SOL     OW13927   6.529   6.301  13.647
70677SOL    HW113928   6.612   6.298  13.695
70677SOL    HW213929   6.541   6.369  13.581
70678SOL     OW13930  14.140   4.424   4.543
70678SOL    HW113931  14.073   4.482   4.580
70678SOL    HW213932  14.178   4.475   4.471
70679SOL     OW13933  13.563  10.469   3.048
70679SOL    HW113934  13.471  10.446   3.065
70679SOL    HW213935  13.590  10.516   3.126
70680SOL     OW13936   3.440   2.757  10.563
70680SOL    HW113937   3.519   2.756  10.508
70680SOL    HW213938   3.405   2.845  10.552
70681SOL     OW13939  10.120   6.301   8.619
70681SOL    HW113940  10.072   6.296   8.702
70681SOL    HW213941  10.065   6.354   8.562
70682SOL     OW13942  14.729   0.060  14.836
70682SOL    HW113943  14.732   0.143   0.008
70682SOL    HW213944  14.643   0.024  14.856
70683SOL     OW13945   9.720   3.903  11.274
70683SOL    HW113946   9.788   3.942  11.329
70683SOL    HW213947   9.695   3.972  11.214
70684SOL     OW13948   2.919   4.479   0.978
70684SOL    HW113949   2.994   4.449   1.029
70684SOL    HW213950   2.855   4.506   1.044
70685SOL     OW13951   9.099  10.837  12.396
70685SOL    HW113952   9.011  10.862  12.427
70685SOL    HW213953   9.116  10.753  12.437
70686SOL     OW13954   2.023   9.208   4.537
70686SOL    HW113955   1.982   9.294   4.545
70686SOL    HW213956   2.017   9.188   4.444
70687SOL     OW13957   6.390   7.821   9.150
70687SOL    HW113958   6.453   7.890   9.131
70687SOL    HW213959   6.360   7.791   9.064
70688SOL     OW13960   8.974   9.426  11.020
70688SOL    HW113961   8.994   9.512  10.984
70688SOL    HW213962   8.888   9.436  11.061
70689SOL     OW13963  12.897   9.419   2.887
70689SOL    HW113964  12.851   9.463   2.959
70689SOL    HW213965  12.830   9.406   2.820
70690SOL     OW13966   4.136   4.161   9.795
70690SOL    HW113967   4.169   4.237   9.747
70690SOL    HW213968   4.146   4.184   9.887
70691SOL     OW13969  13.449   4.323  12.962
70691SOL    HW113970  13.369   4.374  12.957
70691SOL    HW213971  13.428   4.251  13.021
70692SOL     OW13972  13.460   0.040   2.227
70692SOL    HW113973  13.495   0.129   2.226
70692SOL    HW213974  13.398   0.040   2.301
70693SOL     OW13975  12.937  11.495   4.402
70693SOL    HW113976  12.970  11.409   4.377
70693SOL    HW213977  12.871  11.516   4.336
70694SOL     OW13978   9.409   3.687   8.954
70694SOL    HW113979   9.333   3.729   8.994
70694SOL    HW213980   9.476   3.690   9.022
70695SOL     OW13981  14.387   7.172   0.238
70695SOL    HW113982  14.358   7.127   0.317
70695SOL    HW213983  14.354   7.117   0.167
70696SOL     OW13984  11.352   8.172   2.085
70696SOL    HW113985  11.376   8.265   2.079
70696SOL    HW213986  11.357   8.152   2.178
70697SOL     OW13987  13.222   8.066   5.399
70697SOL    HW113988  13.195   8.148   5.358
70697SOL    HW213989  13.187   8.071   5.488
70698SOL     OW13990   9.775  13.425   6.075
70698SOL    HW113991   9.778  13.515   6.106
70698SOL    HW213992   9.798  13.372   6.151
70699SOL     OW13993   0.278   3.431  11.166
70699SOL    HW113994   0.237   3.366  11.109
70699SOL    HW213995   0.205   3.479  11.205
70700SOL     OW13996  12.273  10.031  10.809
70700SOL    HW113997  12.267   9.997  10.898
70700SOL    HW213998  12.183  10.052  10.785
70701SOL     OW13999   0.603   9.337   4.872
70701SOL    HW114000   0.681   9.283   4.861
70701SOL    HW214001   0.611   9.403   4.803
70702SOL     OW14002   7.382   0.034   7.913
70702SOL    HW114003   7.288   0.019   7.928
70702SOL    HW214004   7.425  14.863   7.986
70703SOL     OW14005   0.311  12.511  10.714
70703SOL    HW114006   0.236  12.562  10.683
70703SOL    HW214007   0.273  12.449  10.776
70704SOL     OW14008   7.614   9.591   4.287
70704SOL    HW114009   7.687   9.642   4.323
70704SOL    HW214010   7.640   9.574   4.197
70705SOL     OW14011   3.810   3.040   6.801
70705SOL    HW114012   3.872   2.972   6.828
70705SOL    HW214013   3.797   3.025   6.707
70706SOL     OW14014   1.758   8.692   7.278
70706SOL    HW114015   1.704   8.644   7.215
70706SOL    HW214016   1.835   8.637   7.290
70707SOL     OW14017   1.431   2.336   7.476
70707SOL    HW114018   1.380   2.360   7.553
70707SOL    HW214019   1.372   2.283   7.423
70708SOL     OW14020   4.219  12.204   6.514
70708SOL    HW114021   4.258  12.205   6.601
70708SOL    HW214022   4.134  12.160   6.526
70709SOL     OW14023  10.195   0.207  10.227
70709SOL    HW114024  10.237   0.174  10.147
70709SOL    HW214025  10.113   0.245  10.197
70710SOL     OW14026   4.010  11.242   5.771
70710SOL    HW114027   3.954  11.260   5.847
70710SOL    HW214028   3.988  11.311   5.709
70711SOL     OW14029  12.292   0.351  14.067
70711SOL    HW114030  12.310   0.263  14.036
70711SOL    HW214031  12.361   0.405  14.029
70712SOL     OW14032   3.318  10.258   3.047
70712SOL    HW114033   3.265  10.265   3.127
70712SOL    HW214034   3.288  10.178   3.005
70713SOL     OW14035  10.396  13.251   1.000
70713SOL    HW114036  10.402  13.214   0.912
70713SOL    HW214037  10.400  13.176   1.058
70714SOL     OW14038   1.426  10.053  14.854
70714SOL    HW114039   1.449  10.049   0.072
70714SOL    HW214040   1.505  10.023  14.809
70715SOL     OW14041   3.640  12.332   5.966
70715SOL    HW114042   3.652  12.407   5.908
70715SOL    HW214043   3.644  12.370   6.054
70716SOL     OW14044   8.620  13.044   3.742
70716SOL    HW114045   8.661  13.074   3.661
70716SOL    HW214046   8.527  13.036   3.721
70717SOL     OW14047  10.923   2.760   2.493
70717SOL    HW114048  11.019   2.751   2.495
70717SOL    HW214049  10.904   2.822   2.564
70718SOL     OW14050   5.041   9.953  10.198
70718SOL    HW114051   5.119   9.977  10.248
70718SOL    HW214052   5.065   9.874  10.151
70719SOL     OW14053  13.413   7.955  13.336
70719SOL    HW114054  13.430   8.004  13.256
70719SOL    HW214055  13.353   8.010  13.386
70720SOL     OW14056   9.919   3.898  13.872
70720SOL    HW114057   9.880   3.955  13.805
70720SOL    HW214058  10.006   3.935  13.886
70721SOL     OW14059   4.563  11.833   5.968
70721SOL    HW114060   4.595  11.908   6.019
70721SOL    HW214061   4.578  11.758   6.026
70722SOL     OW14062   1.229  11.876  12.262
70722SOL    HW114063   1.215  11.957  12.311
70722SOL    HW214064   1.300  11.898  12.201
70723SOL     OW14065   6.706   1.396   5.265
70723SOL    HW114066   6.741   1.385   5.177
70723SOL    HW214067   6.633   1.334   5.271
70724SOL     OW14068   7.469  13.098   3.291
70724SOL    HW114069   7.377  13.073   3.300
70724SOL    HW214070   7.502  13.045   3.218
70725SOL     OW14071  14.718  14.638   3.899
70725SOL    HW114072  14.642  14.691   3.919
70725SOL    HW214073  14.785  14.667   3.961
70726SOL     OW14074   8.639   0.196  14.802
70726SOL    HW114075   8.712   0.226  14.856
70726SOL    HW214076   8.670   0.114  14.763
70727SOL     OW14077   8.761   7.838   3.823
70727SOL    HW114078   8.721   7.921   3.848
70727SOL    HW214079   8.692   7.773   3.841
70728SOL     OW14080  10.589  12.214   9.517
70728SOL    HW114081  10.556  12.255   9.597
70728SOL    HW214082  10.683  12.200   9.534
70729SOL     OW14083  14.075   5.782   9.260
70729SOL    HW114084  14.055   5.793   9.353
70729SOL    HW214085  14.001   5.821   9.215
70730SOL     OW14086  11.944  11.240   9.590
70730SOL    HW114087  11.992  11.288   9.658
70730SOL    HW214088  11.856  11.278   9.591
70731SOL     OW14089  13.037   7.551  14.732
70731SOL    HW114090  13.113   7.510  14.692
70731SOL    HW214091  12.962   7.515  14.684
70732SOL     OW14092   4.897   7.430  14.208
70732SOL    HW114093   4.940   7.425  14.123
70732SOL    HW214094   4.895   7.524  14.228
70733SOL     OW14095   5.289   6.149   9.437
70733SOL    HW114096   5.353   6.078   9.440
70733SOL    HW214097   5.291   6.188   9.524
70734SOL     OW14098   5.514  11.686   9.595
70734SOL    HW114099   5.456  11.627   9.643
70734SOL    HW214100   5.584  11.707   9.657
70735SOL     OW14101  10.804   5.717   8.713
70735SOL    HW114102  10.816   5.635   8.761
70735SOL    HW214103  10.890   5.760   8.718
70736SOL     OW14104  13.631   9.300  14.058
70736SOL    HW114105  13.635   9.267  14.147
70736SOL    HW214106  13.667   9.389  14.064
70737SOL     OW14107   3.007  13.389  13.968
70737SOL    HW114108   3.083  13.385  14.026
70737SOL    HW214109   2.957  13.464  14.001
70738SOL     OW14110   0.625   9.028   4.702
70738SOL    HW114111   0.603   8.956   4.760
70738SOL    HW214112   0.646   8.986   4.618
70739SOL     OW14113   7.476   0.578   7.059
70739SOL    HW114114   7.386   0.610   7.048
70739SOL    HW214115   7.480   0.499   7.005
70740SOL     OW14116   1.212  12.076  11.904
70740SOL    HW114117   1.195  12.138  11.833
70740SOL    HW214118   1.145  12.009  11.894
70741SOL     OW14119   0.657  14.471   2.630
70741SOL    HW114120   0.596  14.448   2.561
70741SOL    HW214121   0.742  14.479   2.587
70742SOL     OW14122   3.573   9.265   7.185
70742SOL    HW114123   3.516   9.218   7.123
70742SOL    HW214124   3.533   9.250   7.270
70743SOL     OW14125   0.153   4.710   2.435
70743SOL    HW114126   0.223   4.646   2.449
70743SOL    HW214127   0.195   4.780   2.384
70744SOL     OW14128  14.058  10.083  10.149
70744SOL    HW114129  14.051  10.047  10.238
70744SOL    HW214130  14.148  10.061  10.122
70745SOL     OW14131  12.625  14.027  14.000
70745SOL    HW114132  12.535  14.035  13.968
70745SOL    HW214133  12.618  13.976  14.081
70746SOL     OW14134   5.044   6.280  10.247
70746SOL    HW114135   5.022   6.294  10.155
70746SOL    HW214136   5.090   6.360  10.273
70747SOL     OW14137   5.045   5.314   5.010
70747SOL    HW114138   5.132   5.323   4.971
70747SOL    HW214139   4.987   5.296   4.936
70748SOL     OW14140   6.830  10.887   3.990
70748SOL    HW114141   6.861  10.804   3.955
70748SOL    HW214142   6.827  10.945   3.914
70749SOL     OW14143   9.324  10.245  10.268
70749SOL    HW114144   9.405  10.274  10.226
70749SOL    HW214145   9.337  10.151  10.282
70750SOL     OW14146   5.879   1.409  14.063
70750SOL    HW114147   5.918   1.330  14.101
70750SOL    HW214148   5.859   1.384  13.973
70751SOL     OW14149   4.402   9.608   3.741
70751SOL    HW114150   4.364   9.677   3.686
70751SOL    HW214151   4.326   9.565   3.781
70752SOL     OW14152   6.465  13.596   3.865
70752SOL    HW114153   6.458  13.691   3.851
70752SOL    HW214154   6.508  13.588   3.950
70753SOL     OW14155   1.299  13.576   6.709
70753SOL    HW114156   1.248  13.547   6.634
70753SOL    HW214157   1.389  13.551   6.687
70754SOL     OW14158  13.919   6.447  10.286
70754SOL    HW114159  13.864   6.376  10.319
70754SOL    HW214160  13.919   6.511  10.357
70755SOL     OW14161   0.711   4.401   9.837
70755SOL    HW114162   0.700   4.496   9.829
70755SOL    HW214163   0.787   4.381   9.782
70756SOL     OW14164   3.135   4.202   7.381
70756SOL    HW114165   3.048   4.234   7.407
70756SOL    HW214166   3.118   4.118   7.339
70757SOL     OW14167  13.487   9.874   8.925
70757SOL    HW114168  13.443   9.866   8.840
70757SOL    HW214169  13.579   9.885   8.903
70758SOL     OW14170   6.794  10.661   2.182
70758SOL    HW114171   6.789  10.570   2.150
70758SOL    HW214172   6.766  10.655   2.273
70759SOL     OW14173   7.009  10.892  12.463
70759SOL    HW114174   6.994  10.974  12.509
70759SOL    HW214175   6.997  10.824  12.530
70760SOL     OW14176  14.841   3.478  11.389
70760SOL    HW114177  14.757   3.458  11.430
70760SOL    HW214178  14.835   3.571  11.367
70761SOL     OW14179   1.011   9.965   8.013
70761SOL    HW114180   1.099   9.954   7.978
70761SOL    HW214181   1.021   9.952   8.107
70762SOL     OW14182  13.219   4.033   3.662
70762SOL    HW114183  13.278   4.072   3.727
70762SOL    HW214184  13.158   3.981   3.713
70763SOL     OW14185  13.254   1.288   0.609
70763SOL    HW114186  13.182   1.344   0.579
70763SOL    HW214187  13.213   1.203   0.623
70764SOL     OW14188   2.616   4.336   8.313
70764SOL    HW114189   2.712   4.338   8.319
70764SOL    HW214190   2.597   4.358   8.222
70765SOL     OW14191  11.771   7.733   2.078
70765SOL    HW114192  11.738   7.815   2.116
70765SOL    HW214193  11.856   7.720   2.120
70766SOL     OW14194   8.615   0.999  11.388
70766SOL    HW114195   8.561   0.923  11.363
70766SOL    HW214196   8.552   1.070  11.401
70767SOL     OW14197   8.624  13.148   1.471
70767SOL    HW114198   8.535  13.137   1.505
70767SOL    HW214199   8.646  13.239   1.489
70768SOL     OW14200  13.911   3.899   5.541
70768SOL    HW114201  13.991   3.951   5.531
70768SOL    HW214202  13.858   3.921   5.465
70769SOL     OW14203  14.050   4.068   2.935
70769SOL    HW114204  14.146   4.061   2.932
70769SOL    HW214205  14.034   4.162   2.943
70770SOL     OW14206   6.253   4.923   6.136
70770SOL    HW114207   6.282   5.007   6.099
70770SOL    HW214208   6.266   4.933   6.230
70771SOL     OW14209   6.140   2.870   7.087
70771SOL    HW114210   6.051   2.843   7.111
70771SOL    HW214211   6.128   2.947   7.033
70772SOL     OW14212   2.661   7.345   5.749
70772SOL    HW114213   2.706   7.269   5.714
70772SOL    HW214214   2.568   7.329   5.730
70773SOL     OW14215   2.030  12.157  13.277
70773SOL    HW114216   1.972  12.082  13.267
70773SOL    HW214217   2.118  12.120  13.270
70774SOL     OW14218  11.803   0.355   0.942
70774SOL    HW114219  11.722   0.407   0.942
70774SOL    HW214220  11.775   0.267   0.915
70775SOL     OW14221   4.475   1.754   9.886
70775SOL    HW114222   4.455   1.758   9.792
70775SOL    HW214223   4.521   1.671   9.896
70776SOL     OW14224   4.103   7.311   3.164
70776SOL    HW114225   4.142   7.392   3.196
70776SOL    HW214226   4.127   7.245   3.230
70777SOL     OW14227   1.352   2.840  10.107
70777SOL    HW114228   1.374   2.931  10.086
70777SOL    HW214229   1.360   2.836  10.203
70778SOL     OW14230  14.144   8.202   8.763
70778SOL    HW114231  14.164   8.167   8.850
70778SOL    HW214232  14.218   8.259   8.742
70779SOL     OW14233   5.766   6.772   9.667
70779SOL    HW114234   5.694   6.779   9.604
70779SOL    HW214235   5.827   6.841   9.642
70780SOL     OW14236   5.084  10.366  14.369
70780SOL    HW114237   5.091  10.370  14.274
70780SOL    HW214238   4.991  10.349  14.385
70781SOL     OW14239  14.597   6.826   4.398
70781SOL    HW114240  14.678   6.785   4.368
70781SOL    HW214241  14.529   6.794   4.338
70782SOL     OW14242  11.169   8.144   1.552
70782SOL    HW114243  11.175   8.137   1.456
70782SOL    HW214244  11.220   8.069   1.584
70783SOL     OW14245  12.080  11.674  13.457
70783SOL    HW114246  12.117  11.758  13.483
70783SOL    HW214247  12.155  11.614  13.458
70784SOL     OW14248   6.475  13.376   8.987
70784SOL    HW114249   6.491  13.465   8.956
70784SOL    HW214250   6.561  13.334   8.985
70785SOL     OW14251   0.416   5.844  13.711
70785SOL    HW114252   0.329   5.857  13.672
70785SOL    HW214253   0.478   5.866  13.642
70786SOL     OW14254   1.561   2.010  13.816
70786SOL    HW114255   1.643   2.048  13.784
70786SOL    HW214256   1.509   1.995  13.737
70787SOL     OW14257  14.583   7.144   8.809
70787SOL    HW114258  14.590   7.166   8.716
70787SOL    HW214259  14.515   7.202   8.843
70788SOL     OW14260   8.075   8.968   8.784
70788SOL    HW114261   8.058   8.915   8.706
70788SOL    HW214262   8.073   9.058   8.752
70789SOL     OW14263   7.970   6.873  14.453
70789SOL    HW114264   7.918   6.835  14.383
70789SOL    HW214265   8.025   6.800  14.483
70790SOL     OW14266  10.697  12.678   9.196
70790SOL    HW114267  10.730  12.739   9.130
70790SOL    HW214268  10.754  12.602   9.190
70791SOL     OW14269   1.889   8.003   0.668
70791SOL    HW114270   1.969   8.049   0.641
70791SOL    HW214271   1.819   8.066   0.653
70792SOL     OW14272   4.729   6.789   8.331
70792SOL    HW114273   4.793   6.801   8.261
70792SOL    HW214274   4.676   6.714   8.304
70793SOL     OW14275   6.990   2.880   8.240
70793SOL    HW114276   7.010   2.815   8.173
70793SOL    HW214277   6.902   2.857   8.271
70794SOL     OW14278  10.714  13.546  13.215
70794SOL    HW114279  10.676  13.623  13.257
70794SOL    HW214280  10.741  13.490  13.288
70795SOL     OW14281  12.944   4.993  11.907
70795SOL    HW114282  12.899   5.019  11.826
70795SOL    HW214283  12.899   5.040  11.976
70796SOL     OW14284   7.287   1.794   9.184
70796SOL    HW114285   7.270   1.884   9.157
70796SOL    HW214286   7.227   1.741   9.130
70797SOL     OW14287   5.535   2.046   9.744
70797SOL    HW114288   5.600   2.099   9.698
70797SOL    HW214289   5.580   2.018   9.824
70798SOL     OW14290   8.148  11.676  11.433
70798SOL    HW114291   8.081  11.745  11.426
70798SOL    HW214292   8.113  11.603  11.383
70799SOL     OW14293  14.218   0.109   6.133
70799SOL    HW114294  14.128   0.078   6.124
70799SOL    HW214295  14.231   0.120   6.227
70800SOL     OW14296  12.345   5.600   9.307
70800SOL    HW114297  12.268   5.556   9.272
70800SOL    HW214298  12.339   5.587   9.402
70801SOL     OW14299  11.117   0.241   2.940
70801SOL    HW114300  11.117   0.260   2.846
70801SOL    HW214301  11.105   0.327   2.982
70802SOL     OW14302  13.150   4.592   7.531
70802SOL    HW114303  13.084   4.654   7.562
70802SOL    HW214304  13.138   4.589   7.436
70803SOL     OW14305  12.358  11.338   3.121
70803SOL    HW114306  12.325  11.383   3.044
70803SOL    HW214307  12.414  11.402   3.164
70804SOL     OW14308   3.285   6.218  11.959
70804SOL    HW114309   3.239   6.276  11.898
70804SOL    HW214310   3.246   6.236  12.044
70805SOL     OW14311   4.369   2.477   5.104
70805SOL    HW114312   4.277   2.496   5.123
70805SOL    HW214313   4.380   2.503   5.013
70806SOL     OW14314   8.045   7.493   7.714
70806SOL    HW114315   7.992   7.416   7.695
70806SOL    HW214316   8.041   7.503   7.809
70807SOL     OW14317   6.648   9.333   7.586
70807SOL    HW114318   6.593   9.409   7.565
70807SOL    HW214319   6.602   9.290   7.657
70808SOL     OW14320  14.480   9.824   5.403
70808SOL    HW114321  14.487   9.762   5.475
70808SOL    HW214322  14.387   9.849   5.402
70809SOL     OW14323  10.802   3.664   3.367
70809SOL    HW114324  10.782   3.742   3.419
70809SOL    HW214325  10.719   3.643   3.323
70810SOL     OW14326  14.488   8.562   7.791
70810SOL    HW114327  14.397   8.542   7.772
70810SOL    HW214328  14.501   8.650   7.757
70811SOL     OW14329   1.526   7.256  13.005
70811SOL    HW114330   1.450   7.312  13.021
70811SOL    HW214331   1.581   7.267  13.083
70812SOL     OW14332  10.314   0.947  12.334
70812SOL    HW114333  10.278   0.992  12.257
70812SOL    HW214334  10.386   0.895  12.300
70813SOL     OW14335  10.464   4.413   2.941
70813SOL    HW114336  10.553   4.391   2.969
70813SOL    HW214337  10.468   4.413   2.846
70814SOL     OW14338   1.280  12.934  10.320
70814SOL    HW114339   1.324  13.015  10.296
70814SOL    HW214340   1.350  12.869  10.328
70815SOL     OW14341   8.659  10.732  10.137
70815SOL    HW114342   8.741  10.723  10.089
70815SOL    HW214343   8.609  10.797  10.086
70816SOL     OW14344   3.145   8.903  14.603
70816SOL    HW114345   3.222   8.910  14.546
70816SOL    HW214346   3.170   8.950  14.682
70817SOL     OW14347  12.283   8.716   3.638
70817SOL    HW114348  12.339   8.641   3.619
70817SOL    HW214349  12.194   8.680   3.639
70818SOL     OW14350  13.346   1.595   3.160
70818SOL    HW114351  13.358   1.519   3.102
70818SOL    HW214352  13.263   1.634   3.130
70819SOL     OW14353   0.951  11.080   6.146
70819SOL    HW114354   1.016  11.125   6.200
70819SOL    HW214355   0.966  10.987   6.162
70820SOL     OW14356  13.700   5.764   2.388
70820SOL    HW114357  13.684   5.693   2.450
70820SOL    HW214358  13.621   5.766   2.333
70821SOL     OW14359  14.840   1.250   6.776
70821SOL    HW114360  14.831   1.155   6.782
70821SOL    HW214361  14.755   1.281   6.743
70822SOL     OW14362  13.836  13.872  10.933
70822SOL    HW114363  13.858  13.851  11.023
70822SOL    HW214364  13.812  13.788  10.894
70823SOL     OW14365   8.608   9.417  14.059
70823SOL    HW114366   8.615   9.443  13.967
70823SOL    HW214367   8.615   9.499  14.107
70824SOL     OW14368  10.536   4.830  11.338
70824SOL    HW114369  10.596   4.823  11.264
70824SOL    HW214370  10.469   4.891  11.308
70825SOL     OW14371  10.421   4.517   4.997
70825SOL    HW114372  10.393   4.508   5.088
70825SOL    HW214373  10.499   4.461   4.990
70826SOL     OW14374  11.919  13.164  12.196
70826SOL    HW114375  11.951  13.174  12.286
70826SOL    HW214376  11.983  13.212  12.143
70827SOL     OW14377   9.131   8.123  13.575
70827SOL    HW114378   9.163   8.064  13.643
70827SOL    HW214379   9.211   8.163  13.539
70828SOL     OW14380   9.019  11.035  14.136
70828SOL    HW114381   9.076  11.066  14.066
70828SOL    HW214382   9.071  10.969  14.181
70829SOL     OW14383  10.121   0.635   7.313
70829SOL    HW114384  10.045   0.591   7.274
70829SOL    HW214385  10.087   0.676   7.392
70830SOL     OW14386   5.099   8.053  12.859
70830SOL    HW114387   5.105   7.961  12.885
70830SOL    HW214388   5.185   8.073  12.822
70831SOL     OW14389  12.499  10.332   4.016
70831SOL    HW114390  12.569  10.363   3.959
70831SOL    HW214391  12.445  10.409   4.033
70832SOL     OW14392   9.533   4.474   2.150
70832SOL    HW114393   9.440   4.456   2.134
70832SOL    HW214394   9.544   4.460   2.244
70833SOL     OW14395   2.184   6.030   2.828
70833SOL    HW114396   2.093   6.044   2.855
70833SOL    HW214397   2.220   5.972   2.895
70834SOL     OW14398   8.849   4.964   1.511
70834SOL    HW114399   8.765   4.922   1.528
70834SOL    HW214400   8.851   5.039   1.570
70835SOL     OW14401   1.636   2.352   8.802
70835SOL    HW114402   1.710   2.302   8.837
70835SOL    HW214403   1.586   2.377   8.880
70836SOL     OW14404   3.130   0.561  11.068
70836SOL    HW114405   3.062   0.569  11.001
70836SOL    HW214406   3.211   0.554  11.018
70837SOL     OW14407   1.844   1.028  11.259
70837SOL    HW114408   1.805   1.019  11.346
70837SOL    HW214409   1.868   1.121  11.253
70838SOL     OW14410  11.153   0.976  13.152
70838SOL    HW114411  11.160   0.957  13.246
70838SOL    HW214412  11.214   1.049  13.139
70839SOL     OW14413   6.828   8.748   9.116
70839SOL    HW114414   6.819   8.828   9.168
70839SOL    HW214415   6.741   8.733   9.079
70840SOL     OW14416  10.879   5.641   0.298
70840SOL    HW114417  10.802   5.595   0.264
70840SOL    HW214418  10.901   5.595   0.379
70841SOL     OW14419   2.893   9.094   8.227
70841SOL    HW114420   2.978   9.060   8.253
70841SOL    HW214421   2.878   9.056   8.140
70842SOL     OW14422   2.040  11.910  11.171
70842SOL    HW114423   2.100  11.977  11.138
70842SOL    HW214424   1.979  11.959  11.227
70843SOL     OW14425   6.221  13.791   4.504
70843SOL    HW114426   6.205  13.708   4.460
70843SOL    HW214427   6.246  13.766   4.593
70844SOL     OW14428   7.570   9.432   0.934
70844SOL    HW114429   7.655   9.430   0.889
70844SOL    HW214430   7.557   9.525   0.956
70845SOL     OW14431  12.630   2.004  11.110
70845SOL    HW114432  12.639   1.909  11.113
70845SOL    HW214433  12.543   2.019  11.073
70846SOL     OW14434  11.871   7.522   9.232
70846SOL    HW114435  11.829   7.469   9.300
70846SOL    HW214436  11.850   7.479   9.150
70847SOL     OW14437   0.808   3.918   1.168
70847SOL    HW114438   0.722   3.878   1.150
70847SOL    HW214439   0.832   3.885   1.255
70848SOL     OW14440  10.056  11.841  11.039
70848SOL    HW114441  10.072  11.848  10.945
70848SOL    HW214442   9.990  11.773  11.047
70849SOL     OW14443   2.063   7.728   5.835
70849SOL    HW114444   2.066   7.732   5.931
70849SOL    HW214445   1.970   7.714   5.815
70850SOL     OW14446  12.779   0.759  14.674
70850SOL    HW114447  12.721   0.743  14.599
70850SOL    HW214448  12.866   0.734  14.642
70851SOL     OW14449  14.216   8.043   5.231
70851SOL    HW114450  14.209   7.952   5.260
70851SOL    HW214451  14.237   8.036   5.138
70852SOL     OW14452   2.296   9.561  12.446
70852SOL    HW114453   2.211   9.603  12.432
70852SOL    HW214454   2.276   9.467  12.448
70853SOL     OW14455   6.194  10.370  12.744
70853SOL    HW114456   6.224  10.344  12.657
70853SOL    HW214457   6.230  10.458  12.756
70854SOL     OW14458   3.858  13.597   1.231
70854SOL    HW114459   3.780  13.557   1.270
70854SOL    HW214460   3.830  13.684   1.203
70855SOL     OW14461   3.521   8.637   9.804
70855SOL    HW114462   3.509   8.583   9.726
70855SOL    HW214463   3.577   8.709   9.775
70856SOL     OW14464  12.420  14.724  12.876
70856SOL    HW114465  12.485  14.793  12.892
70856SOL    HW214466  12.456  14.648  12.923
70857SOL     OW14467   5.150   0.763  13.696
70857SOL    HW114468   5.113   0.819  13.628
70857SOL    HW214469   5.115   0.676  13.677
70858SOL     OW14470  10.766  14.535   5.678
70858SOL    HW114471  10.718  14.607   5.637
70858SOL    HW214472  10.856  14.546   5.650
70859SOL     OW14473   6.684  12.970  11.437
70859SOL    HW114474   6.615  12.939  11.379
70859SOL    HW214475   6.755  12.907  11.425
70860SOL     OW14476   9.918   6.010   2.980
70860SOL    HW114477  10.010   6.010   3.006
70860SOL    HW214478   9.896   5.917   2.974
70861SOL     OW14479  11.295   7.732  11.913
70861SOL    HW114480  11.245   7.706  11.990
70861SOL    HW214481  11.268   7.822  11.897
70862SOL     OW14482   5.196  12.897   3.316
70862SOL    HW114483   5.224  12.884   3.407
70862SOL    HW214484   5.201  12.810   3.277
70863SOL     OW14485  13.036   1.079   7.497
70863SOL    HW114486  12.961   1.126   7.462
70863SOL    HW214487  13.041   1.107   7.589
70864SOL     OW14488   1.003  10.181   6.343
70864SOL    HW114489   1.064  10.251   6.319
70864SOL    HW214490   0.979  10.140   6.259
70865SOL     OW14491   8.438   5.521   0.677
70865SOL    HW114492   8.416   5.432   0.651
70865SOL    HW214493   8.462   5.565   0.595
70866SOL     OW14494  12.335   3.633   0.366
70866SOL    HW114495  12.291   3.718   0.374
70866SOL    HW214496  12.428   3.654   0.364
70867SOL     OW14497   5.255  14.129   2.590
70867SOL    HW114498   5.277  14.036   2.593
70867SOL    HW214499   5.198  14.138   2.514
70868SOL     OW14500   5.098   8.675   0.226
70868SOL    HW114501   5.152   8.631   0.291
70868SOL    HW214502   5.150   8.676   0.146
70869SOL     OW14503   4.248  12.857  12.349
70869SOL    HW114504   4.189  12.821  12.283
70869SOL    HW214505   4.224  12.813  12.430
70870SOL     OW14506  12.904   3.488   1.093
70870SOL    HW114507  12.978   3.503   1.153
70870SOL    HW214508  12.933   3.416   1.038
70871SOL     OW14509   8.967   8.174  14.389
70871SOL    HW114510   8.924   8.091  14.369
70871SOL    HW214511   9.056   8.150  14.411
70872SOL     OW14512   7.951  11.764   5.373
70872SOL    HW114513   7.957  11.770   5.469
70872SOL    HW214514   8.035  11.796   5.342
70873SOL     OW14515   4.688   6.817   1.842
70873SOL    HW114516   4.665   6.743   1.899
70873SOL    HW214517   4.784   6.820   1.846
70874SOL     OW14518  12.494  10.067  14.581
70874SOL    HW114519  12.530  10.142  14.534
70874SOL    HW214520  12.565  10.039  14.639
70875SOL     OW14521   7.161   0.006   5.996
70875SOL    HW114522   7.243   0.055   5.985
70875SOL    HW214523   7.093   0.065   5.965
70876SOL     OW14524  12.980   9.637   6.415
70876SOL    HW114525  12.920   9.596   6.353
70876SOL    HW214526  12.951   9.728   6.420
70877SOL     OW14527  13.489   5.192   3.243
70877SOL    HW114528  13.433   5.161   3.314
70877SOL    HW214529  13.570   5.217   3.285
70878SOL     OW14530   7.832   2.173  13.963
70878SOL    HW114531   7.838   2.247  13.904
70878SOL    HW214532   7.750   2.129  13.938
70879SOL     OW14533  12.192   9.320  13.228
70879SOL    HW114534  12.267   9.265  13.205
70879SOL    HW214535  12.223   9.372  13.302
70880SOL     OW14536  13.090  11.296   6.316
70880SOL    HW114537  13.016  11.237   6.326
70880SOL    HW214538  13.101  11.336   6.402
70881SOL     OW14539   2.716  11.694  14.597
70881SOL    HW114540   2.626  11.697  14.630
70881SOL    HW214541   2.707  11.670  14.505
70882SOL     OW14542   3.580   2.403   3.417
70882SOL    HW114543   3.544   2.329   3.466
70882SOL    HW214544   3.641   2.363   3.355
70883SOL     OW14545   7.039   9.372  14.615
70883SOL    HW114546   7.042   9.303  14.549
70883SOL    HW214547   7.129   9.377  14.648
70884SOL     OW14548   1.189  13.850   6.967
70884SOL    HW114549   1.257  13.783   6.977
70884SOL    HW214550   1.237  13.928   6.938
70885SOL     OW14551   8.964  10.597   2.727
70885SOL    HW114552   9.041  10.644   2.760
70885SOL    HW214553   8.999  10.512   2.700
70886SOL     OW14554   3.180   7.446  14.155
70886SOL    HW114555   3.254   7.396  14.121
70886SOL    HW214556   3.108   7.383  14.157
70887SOL     OW14557  11.756   5.834   0.459
70887SOL    HW114558  11.742   5.781   0.537
70887SOL    HW214559  11.770   5.923   0.492
70888SOL     OW14560   0.019  10.742  14.132
70888SOL    HW114561   0.033  10.680  14.061
70888SOL    HW214562   0.080  10.716  14.200
70889SOL     OW14563   9.984   4.001  11.734
70889SOL    HW114564   9.931   4.078  11.750
70889SOL    HW214565  10.055   4.007  11.798
70890SOL     OW14566  10.127  10.033   2.435
70890SOL    HW114567  10.035  10.058   2.427
70890SOL    HW214568  10.175  10.114   2.419
70891SOL     OW14569  10.433   1.913  10.833
70891SOL    HW114570  10.436   2.008  10.831
70891SOL    HW214571  10.473   1.886  10.750
70892SOL     OW14572   6.243   9.408   7.231
70892SOL    HW114573   6.241   9.504   7.235
70892SOL    HW214574   6.156   9.381   7.258
70893SOL     OW14575   5.557   5.058   8.301
70893SOL    HW114576   5.508   5.079   8.380
70893SOL    HW214577   5.489   5.048   8.233
70894SOL     OW14578   8.516  10.729   8.113
70894SOL    HW114579   8.545  10.810   8.156
70894SOL    HW214580   8.555  10.659   8.165
70895SOL     OW14581   9.386  11.437  12.283
70895SOL    HW114582   9.390  11.385  12.203
70895SOL    HW214583   9.313  11.498  12.268
70896SOL     OW14584   7.330  12.593   7.949
70896SOL    HW114585   7.256  12.541   7.918
70896SOL    HW214586   7.322  12.677   7.903
70897SOL     OW14587   0.233   1.185   4.824
70897SOL    HW114588   0.276   1.100   4.810
70897SOL    HW214589   0.296   1.234   4.877
70898SOL     OW14590   1.241   4.206  14.284
70898SOL    HW114591   1.274   4.146  14.216
70898SOL    HW214592   1.298   4.283  14.277
70899SOL     OW14593  12.821   7.575   0.200
70899SOL    HW114594  12.767   7.526   0.138
70899SOL    HW214595  12.857   7.508   0.258
70900SOL     OW14596  14.799   3.021   7.248
70900SOL    HW114597  14.848   3.086   7.298
70900SOL    HW214598  14.844   2.938   7.265
70901SOL     OW14599  12.972   2.778   2.603
70901SOL    HW114600  12.986   2.809   2.514
70901SOL    HW214601  12.902   2.714   2.596
70902SOL     OW14602   3.759   4.162   6.625
70902SOL    HW114603   3.729   4.186   6.537
70902SOL    HW214604   3.758   4.067   6.626
70903SOL     OW14605   9.735   6.642   5.448
70903SOL    HW114606   9.822   6.610   5.471
70903SOL    HW214607   9.741   6.664   5.355
70904SOL     OW14608   8.763  10.573  13.342
70904SOL    HW114609   8.718  10.631  13.281
70904SOL    HW214610   8.712  10.578  13.423
70905SOL     OW14611   8.452   3.563  14.870
70905SOL    HW114612   8.444   3.483   0.047
70905SOL    HW214613   8.523   3.544  14.808
70906SOL     OW14614   4.018  10.653   6.030
70906SOL    HW114615   4.054  10.714   5.966
70906SOL    HW214616   4.007  10.571   5.981
70907SOL     OW14617   9.000  12.685   2.066
70907SOL    HW114618   8.937  12.691   1.994
70907SOL    HW214619   9.081  12.657   2.024
70908SOL     OW14620  13.449   1.464  14.835
70908SOL    HW114621  13.441   1.495   0.050
70908SOL    HW214622  13.523   1.403  14.838
70909SOL     OW14623  13.043   3.151  11.394
70909SOL    HW114624  12.986   3.080  11.365
70909SOL    HW214625  13.129   3.129  11.358
70910SOL     OW14626   2.504   4.394   8.052
70910SOL    HW114627   2.518   4.487   8.035
70910SOL    HW214628   2.446   4.366   7.980
70911SOL     OW14629   6.623  10.095   3.482
70911SOL    HW114630   6.589  10.184   3.472
70911SOL    HW214631   6.716  10.102   3.461
70912SOL     OW14632   6.683   6.166   1.681
70912SOL    HW114633   6.744   6.194   1.750
70912SOL    HW214634   6.715   6.080   1.655
70913SOL     OW14635  14.316   4.534   4.336
70913SOL    HW114636  14.395   4.575   4.371
70913SOL    HW214637  14.342   4.444   4.319
70914SOL     OW14638   7.635  10.968   9.347
70914SOL    HW114639   7.687  10.893   9.317
70914SOL    HW214640   7.673  11.042   9.300
70915SOL     OW14641   3.499   5.524   1.715
70915SOL    HW114642   3.407   5.504   1.735
70915SOL    HW214643   3.511   5.614   1.747
70916SOL     OW14644  13.840   6.299   0.322
70916SOL    HW114645  13.909   6.308   0.387
70916SOL    HW214646  13.759   6.323   0.368
70917SOL     OW14647   1.484  13.902   3.615
70917SOL    HW114648   1.432  13.978   3.588
70917SOL    HW214649   1.518  13.926   3.701
70918SOL     OW14650   0.632   3.144   9.990
70918SOL    HW114651   0.581   3.131  10.069
70918SOL    HW214652   0.567   3.165   9.922
70919SOL     OW14653   4.869  10.782  10.728
70919SOL    HW114654   4.857  10.687  10.726
70919SOL    HW214655   4.942  10.796  10.789
70920SOL     OW14656   8.236   3.860   5.091
70920SOL    HW114657   8.152   3.829   5.058
70920SOL    HW214658   8.231   3.849   5.185
70921SOL     OW14659   8.612   1.297  14.082
70921SOL    HW114660   8.673   1.287  14.155
70921SOL    HW214661   8.664   1.340  14.014
70922SOL     OW14662   6.847  11.077   1.328
70922SOL    HW114663   6.904  11.115   1.261
70922SOL    HW214664   6.771  11.135   1.331
70923SOL     OW14665  12.396   7.874  12.658
70923SOL    HW114666  12.388   7.823  12.577
70923SOL    HW214667  12.491   7.889  12.667
70924SOL     OW14668   8.890   7.521   2.145
70924SOL    HW114669   8.833   7.458   2.189
70924SOL    HW214670   8.935   7.566   2.217
70925SOL     OW14671  10.017   0.998  14.759
70925SOL    HW114672  10.101   0.958  14.781
70925SOL    HW214673   9.952   0.932  14.782
70926SOL     OW14674  10.442   1.616   4.783
70926SOL    HW114675  10.371   1.672   4.815
70926SOL    HW214676  10.405   1.573   4.706
70927SOL     OW14677   1.637  11.915  13.964
70927SOL    HW114678   1.693  11.959  13.900
70927SOL    HW214679   1.662  11.954  14.048
70928SOL     OW14680   6.588  12.607   2.215
70928SOL    HW114681   6.503  12.592   2.255
70928SOL    HW214682   6.607  12.525   2.169
70929SOL     OW14683   6.212   7.824   1.758
70929SOL    HW114684   6.204   7.729   1.750
70929SOL    HW214685   6.182   7.843   1.846
70930SOL     OW14686   7.672  12.083   9.503
70930SOL    HW114687   7.592  12.079   9.451
70930SOL    HW214688   7.741  12.049   9.446
70931SOL     OW14689   3.949  11.594   1.978
70931SOL    HW114690   4.019  11.538   2.013
70931SOL    HW214691   3.919  11.644   2.054
70932SOL     OW14692  14.641   9.643   6.952
70932SOL    HW114693  14.736   9.638   6.949
70932SOL    HW214694  14.621   9.673   7.041
70933SOL     OW14695   3.259  11.906  14.700
70933SOL    HW114696   3.310  11.896  14.619
70933SOL    HW214697   3.316  11.955  14.758
70934SOL     OW14698   1.438  13.246  10.991
70934SOL    HW114699   1.517  13.280  10.949
70934SOL    HW214700   1.423  13.161  10.949
70935SOL     OW14701   2.096  11.021   6.724
70935SOL    HW114702   2.028  11.089   6.728
70935SOL    HW214703   2.175  11.067   6.697
70936SOL     OW14704   4.810   3.410   2.369
70936SOL    HW114705   4.796   3.384   2.278
70936SOL    HW214706   4.730   3.457   2.394
70937SOL     OW14707   9.471  13.777   4.858
70937SOL    HW114708   9.474  13.688   4.824
70937SOL    HW214709   9.380  13.789   4.887
70938SOL     OW14710  13.492   0.929  12.472
70938SOL    HW114711  13.583   0.914  12.446
70938SOL    HW214712  13.471   1.014  12.435
70939SOL     OW14713   4.665  11.310   6.992
70939SOL    HW114714   4.636  11.253   7.063
70939SOL    HW214715   4.699  11.250   6.925
70940SOL     OW14716   4.525   4.400   8.593
70940SOL    HW114717   4.608   4.416   8.547
70940SOL    HW214718   4.458   4.414   8.526
70941SOL     OW14719  11.718   2.401  10.776
70941SOL    HW114720  11.744   2.475  10.830
70941SOL    HW214721  11.736   2.429  10.686
70942SOL     OW14722   7.265   5.527  13.636
70942SOL    HW114723   7.282   5.512  13.543
70942SOL    HW214724   7.187   5.475  13.655
70943SOL     OW14725   0.815   3.748  11.532
70943SOL    HW114726   0.723   3.773  11.524
70943SOL    HW214727   0.820   3.662  11.491
70944SOL     OW14728  13.864   4.828   7.849
70944SOL    HW114729  13.784   4.839   7.898
70944SOL    HW214730  13.843   4.860   7.761
70945SOL     OW14731   5.342  11.043   7.471
70945SOL    HW114732   5.436  11.030   7.463
70945SOL    HW214733   5.331  11.137   7.481
70946SOL     OW14734   7.635   0.029   0.196
70946SOL    HW114735   7.546   0.020   0.231
70946SOL    HW214736   7.625   0.010   0.103
70947SOL     OW14737  11.264  13.875  12.699
70947SOL    HW114738  11.210  13.876  12.620
70947SOL    HW214739  11.204  13.899  12.770
70948SOL     OW14740   0.854   0.318   4.049
70948SOL    HW114741   0.931   0.291   3.999
70948SOL    HW214742   0.846   0.253   4.119
70949SOL     OW14743  13.813  12.848   4.692
70949SOL    HW114744  13.794  12.937   4.721
70949SOL    HW214745  13.825  12.798   4.773
70950SOL     OW14746   9.632   8.716   1.533
70950SOL    HW114747   9.552   8.762   1.560
70950SOL    HW214748   9.670   8.684   1.615
70951SOL     OW14749   0.957  14.019   4.082
70951SOL    HW114750   0.985  13.980   4.166
70951SOL    HW214751   0.884  13.964   4.053
70952SOL     OW14752   2.071   6.902   7.429
70952SOL    HW114753   2.152   6.952   7.432
70952SOL    HW214754   2.098   6.814   7.403
70953SOL     OW14755   6.986   1.480   4.515
70953SOL    HW114756   7.071   1.491   4.473
70953SOL    HW214757   6.969   1.564   4.557
70954SOL     OW14758   5.264   8.228   7.268
70954SOL    HW114759   5.190   8.170   7.247
70954SOL    HW214760   5.326   8.213   7.197
70955SOL     OW14761  14.625   9.709   2.409
70955SOL    HW114762  14.655   9.632   2.361
70955SOL    HW214763  14.706   9.750   2.441
70956SOL     OW14764   9.324  11.776   7.469
70956SOL    HW114765   9.263  11.820   7.410
70956SOL    HW214766   9.383  11.728   7.410
70957SOL     OW14767  13.894   2.584   3.359
70957SOL    HW114768  13.958   2.646   3.324
70957SOL    HW214769  13.854   2.629   3.433
70958SOL     OW14770  11.702  10.117   9.109
70958SOL    HW114771  11.708  10.076   9.023
70958SOL    HW214772  11.617  10.161   9.109
70959SOL     OW14773   2.288   8.801   2.185
70959SOL    HW114774   2.331   8.768   2.106
70959SOL    HW214775   2.264   8.891   2.162
70960SOL     OW14776  12.753  10.231   3.486
70960SOL    HW114777  12.746  10.185   3.570
70960SOL    HW214778  12.831  10.286   3.495
70961SOL     OW14779   9.151   5.273   0.229
70961SOL    HW114780   9.126   5.217   0.156
70961SOL    HW214781   9.173   5.212   0.300
70962SOL     OW14782   2.148   4.225   0.644
70962SOL    HW114783   2.169   4.305   0.692
70962SOL    HW214784   2.060   4.201   0.673
70963SOL     OW14785   6.714  10.831  13.011
70963SOL    HW114786   6.640  10.893  13.014
70963SOL    HW214787   6.755  10.847  12.926
70964SOL     OW14788   8.468   0.553   7.117
70964SOL    HW114789   8.474   0.458   7.124
70964SOL    HW214790   8.433   0.569   7.030
70965SOL     OW14791  12.946  11.777   0.648
70965SOL    HW114792  12.909  11.743   0.566
70965SOL    HW214793  12.879  11.758   0.714
70966SOL     OW14794   5.998  10.312  11.157
70966SOL    HW114795   5.992  10.254  11.233
70966SOL    HW214796   5.937  10.275  11.093
70967SOL     OW14797   4.768  11.667   2.603
70967SOL    HW114798   4.834  11.695   2.538
70967SOL    HW214799   4.689  11.714   2.577
70968SOL     OW14800   0.793   1.701   6.347
70968SOL    HW114801   0.790   1.607   6.365
70968SOL    HW214802   0.866   1.734   6.399
70969SOL     OW14803  12.829  11.829  13.960
70969SOL    HW114804  12.891  11.792  13.897
70969SOL    HW214805  12.826  11.765  14.031
70970SOL     OW14806   0.329   2.350   4.589
70970SOL    HW114807   0.237   2.329   4.571
70970SOL    HW214808   0.325   2.427   4.645
70971SOL     OW14809   0.552   7.095  14.645
70971SOL    HW114810   0.613   7.024  14.663
70971SOL    HW214811   0.606   7.164  14.608
70972SOL     OW14812   7.057   0.325   7.910
70972SOL    HW114813   6.986   0.387   7.928
70972SOL    HW214814   7.079   0.289   7.996
70973SOL     OW14815   6.219   4.756  12.852
70973SOL    HW114816   6.127   4.777  12.841
70973SOL    HW214817   6.266   4.832  12.816
70974SOL     OW14818   7.042  12.377   3.880
70974SOL    HW114819   6.993  12.297   3.859
70974SOL    HW214820   7.006  12.406   3.964
70975SOL     OW14821   0.154   6.000  14.301
70975SOL    HW114822   0.148   5.956  14.216
70975SOL    HW214823   0.140   6.093  14.282
70976SOL     OW14824   6.075   6.874  10.281
70976SOL    HW114825   6.075   6.866  10.186
70976SOL    HW214826   5.994   6.830  10.309
70977SOL     OW14827  12.251  13.026   4.342
70977SOL    HW114828  12.283  12.975   4.416
70977SOL    HW214829  12.317  13.095   4.330
70978SOL     OW14830   9.976  13.663   4.126
70978SOL    HW114831   9.911  13.675   4.057
70978SOL    HW214832  10.028  13.588   4.097
70979SOL     OW14833  13.296   6.880   5.830
70979SOL    HW114834  13.387   6.875   5.862
70979SOL    HW214835  13.271   6.971   5.843
70980SOL     OW14836   9.804   5.752   8.024
70980SOL    HW114837   9.746   5.681   8.051
70980SOL    HW214838   9.784   5.824   8.083
70981SOL     OW14839   7.291   6.702   6.273
70981SOL    HW114840   7.356   6.752   6.223
70981SOL    HW214841   7.226   6.677   6.208
70982SOL     OW14842   4.574   8.276   2.785
70982SOL    HW114843   4.486   8.265   2.750
70982SOL    HW214844   4.595   8.368   2.769
70983SOL     OW14845  10.145   3.317  13.041
70983SOL    HW114846  10.085   3.282  13.106
70983SOL    HW214847  10.090   3.367  12.981
70984SOL     OW14848   1.146   1.002  12.409
70984SOL    HW114849   1.135   0.982  12.502
70984SOL    HW214850   1.187   0.923  12.372
70985SOL     OW14851   8.543   4.353   3.530
70985SOL    HW114852   8.619   4.316   3.576
70985SOL    HW214853   8.539   4.305   3.447
70986SOL     OW14854   0.484   1.455   7.126
70986SOL    HW114855   0.443   1.540   7.110
70986SOL    HW214856   0.438   1.395   7.068
70987SOL     OW14857   4.732   3.665   3.038
70987SOL    HW114858   4.722   3.585   3.090
70987SOL    HW214859   4.813   3.704   3.069
70988SOL     OW14860  14.839  10.583   4.674
70988SOL    HW114861   0.020  10.595   4.751
70988SOL    HW214862  14.828  10.671   4.639
70989SOL     OW14863   2.003  13.657   4.362
70989SOL    HW114864   1.951  13.702   4.295
70989SOL    HW214865   1.953  13.578   4.383
70990SOL     OW14866  11.032   8.933  12.968
70990SOL    HW114867  11.025   8.943  13.063
70990SOL    HW214868  10.944   8.912  12.939
70991SOL     OW14869  10.841  10.728   9.624
70991SOL    HW114870  10.904  10.795   9.599
70991SOL    HW214871  10.783  10.720   9.549
70992SOL     OW14872   5.964   4.671   0.434
70992SOL    HW114873   5.913   4.713   0.503
70992SOL    HW214874   5.901   4.613   0.390
70993SOL     OW14875   4.187   4.090  14.331
70993SOL    HW114876   4.156   4.173  14.296
70993SOL    HW214877   4.251   4.059  14.267
70994SOL     OW14878  13.042  14.500   4.161
70994SOL    HW114879  13.063  14.530   4.250
70994SOL    HW214880  12.948  14.485   4.163
70995SOL     OW14881  12.482   4.512   6.335
70995SOL    HW114882  12.406   4.552   6.377
70995SOL    HW214883  12.520   4.582   6.282
70996SOL     OW14884  12.742   1.274  10.303
70996SOL    HW114885  12.695   1.225  10.236
70996SOL    HW214886  12.674   1.326  10.347
70997SOL     OW14887  12.582   2.569   4.489
70997SOL    HW114888  12.630   2.603   4.414
70997SOL    HW214889  12.627   2.608   4.565
70998SOL     OW14890   0.973   6.605   1.618
70998SOL    HW114891   0.916   6.666   1.570
70998SOL    HW214892   0.940   6.607   1.708
70999SOL     OW14893   0.277  14.046   5.984
70999SOL    HW114894   0.358  14.043   5.933
70999SOL    HW214895   0.254  14.139   5.987
71000SOL     OW14896   1.367   0.704   5.086
71000SOL    HW114897   1.390   0.614   5.110
71000SOL    HW214898   1.347   0.700   4.993
71001SOL     OW14899  11.248   5.566  10.098
71001SOL    HW114900  11.256   5.476  10.067
71001SOL    HW214901  11.271   5.620  10.022
71002SOL     OW14902   0.464  14.539   6.993
71002SOL    HW114903   0.490  14.451   6.966
71002SOL    HW214904   0.480  14.593   6.916
71003SOL     OW14905  11.888  14.820   1.542
71003SOL    HW114906  11.913  14.780   1.625
71003SOL    HW214907  11.795  14.798   1.532
71004SOL     OW14908   2.606   2.920   6.396
71004SOL    HW114909   2.556   2.988   6.441
71004SOL    HW214910   2.697   2.937   6.421
71005SOL     OW14911   6.028   5.585  11.276
71005SOL    HW114912   6.088   5.562  11.205
71005SOL    HW214913   6.040   5.679  11.288
71006SOL     OW14914  10.323   0.042  14.535
71006SOL    HW114915  10.389   0.111  14.541
71006SOL    HW214916  10.340  14.862  14.612
71007SOL     OW14917   0.558   5.501   2.651
71007SOL    HW114918   0.509   5.451   2.715
71007SOL    HW214919   0.563   5.444   2.574
71008SOL     OW14920  12.626   7.927   7.521
71008SOL    HW114921  12.531   7.923   7.505
71008SOL    HW214922  12.657   7.839   7.502
71009SOL     OW14923  13.155  10.874  12.841
71009SOL    HW114924  13.125  10.864  12.931
71009SOL    HW214925  13.192  10.789  12.818
71010SOL     OW14926   1.984   8.873   2.468
71010SOL    HW114927   1.959   8.812   2.399
71010SOL    HW214928   2.080   8.872   2.467
71011SOL     OW14929   5.441   2.069   3.973
71011SOL    HW114930   5.371   2.095   4.033
71011SOL    HW214931   5.522   2.093   4.019
71012SOL     OW14932   9.381  13.790   7.216
71012SOL    HW114933   9.425  13.777   7.132
71012SOL    HW214934   9.392  13.706   7.261
71013SOL     OW14935  12.777  11.917   7.503
71013SOL    HW114936  12.720  11.902   7.579
71013SOL    HW214937  12.719  11.956   7.437
71014SOL     OW14938   9.557   4.590   8.453
71014SOL    HW114939   9.588   4.613   8.541
71014SOL    HW214940   9.499   4.663   8.429
71015SOL     OW14941   6.931   5.164  10.570
71015SOL    HW114942   6.941   5.233  10.504
71015SOL    HW214943   6.849   5.185  10.614
71016SOL     OW14944   3.983   2.935  11.744
71016SOL    HW114945   4.046   2.871  11.776
71016SOL    HW214946   3.993   3.009  11.804
71017SOL     OW14947   5.406   8.529   2.969
71017SOL    HW114948   5.501   8.517   2.973
71017SOL    HW214949   5.392   8.582   2.890
71018SOL     OW14950  10.219  10.173  11.359
71018SOL    HW114951  10.216  10.148  11.451
71018SOL    HW214952  10.311  10.197  11.344
71019SOL     OW14953   3.149   1.679   5.814
71019SOL    HW114954   3.125   1.594   5.777
71019SOL    HW214955   3.225   1.659   5.870
71020SOL     OW14956   3.659   0.504   7.430
71020SOL    HW114957   3.657   0.593   7.394
71020SOL    HW214958   3.578   0.498   7.481
71021SOL     OW14959  11.739   5.960   2.300
71021SOL    HW114960  11.734   5.938   2.392
71021SOL    HW214961  11.656   5.931   2.262
71022SOL     OW14962   7.019  14.453   3.082
71022SOL    HW114963   6.979  14.538   3.062
71022SOL    HW214964   7.056  14.465   3.170
71023SOL     OW14965   3.519   0.350  10.409
71023SOL    HW114966   3.537   0.376  10.500
71023SOL    HW214967   3.594   0.295  10.386
71024SOL     OW14968  11.880   9.996   4.821
71024SOL    HW114969  11.953   9.966   4.767
71024SOL    HW214970  11.802   9.964   4.776
71025SOL     OW14971   7.522   0.356   7.770
71025SOL    HW114972   7.521   0.268   7.731
71025SOL    HW214973   7.470   0.347   7.850
71026SOL     OW14974   8.686   1.305  11.131
71026SOL    HW114975   8.759   1.349  11.088
71026SOL    HW214976   8.608   1.351  11.099
71027SOL     OW14977   2.280   4.802   2.834
71027SOL    HW114978   2.312   4.819   2.923
71027SOL    HW214979   2.357   4.814   2.778
71028SOL     OW14980   9.467   1.779   6.531
71028SOL    HW114981   9.434   1.828   6.607
71028SOL    HW214982   9.435   1.690   6.543
71029SOL     OW14983   9.214   3.775  13.894
71029SOL    HW114984   9.165   3.753  13.973
71029SOL    HW214985   9.297   3.809  13.927
71030SOL     OW14986   9.734   7.130   6.855
71030SOL    HW114987   9.709   7.117   6.763
71030SOL    HW214988   9.814   7.080   6.866
71031SOL     OW14989   9.586   9.952   5.709
71031SOL    HW114990   9.589   9.861   5.738
71031SOL    HW214991   9.675   9.970   5.676
71032SOL     OW14992  12.280  10.649   8.265
71032SOL    HW114993  12.212  10.716   8.278
71032SOL    HW214994  12.249  10.599   8.189
71033SOL     OW14995   8.341   9.852   4.182
71033SOL    HW114996   8.349   9.859   4.087
71033SOL    HW214997   8.411   9.907   4.216
71034SOL     OW14998   6.263   8.164  10.424
71034SOL    HW114999   6.258   8.149  10.518
71034SOL    HW215000   6.205   8.098  10.386
71035SOL     OW15001   0.560  14.330  14.164
71035SOL    HW115002   0.584  14.241  14.136
71035SOL    HW215003   0.643  14.369  14.191
71036SOL     OW15004   9.764  10.036   0.446
71036SOL    HW115005   9.848   9.997   0.424
71036SOL    HW215006   9.702   9.962   0.445
71037SOL     OW15007   4.921   2.400   7.110
71037SOL    HW115008   4.898   2.456   7.035
71037SOL    HW215009   5.009   2.430   7.134
71038SOL     OW15010   8.492   1.754   9.734
71038SOL    HW115011   8.553   1.800   9.792
71038SOL    HW215012   8.410   1.749   9.784
71039SOL     OW15013   3.245   9.669   6.764
71039SOL    HW115014   3.267   9.576   6.771
71039SOL    HW215015   3.152   9.674   6.784
71040SOL     OW15016   6.619   4.414  14.466
71040SOL    HW115017   6.559   4.356  14.512
71040SOL    HW215018   6.591   4.502  14.490
71041SOL     OW15019   8.542  13.057   6.829
71041SOL    HW115020   8.564  13.117   6.900
71041SOL    HW215021   8.541  13.112   6.751
71042SOL     OW15022   3.711   8.835  10.968
71042SOL    HW115023   3.641   8.826  10.903
71042SOL    HW215024   3.726   8.745  10.999
71043SOL     OW15025   3.578  13.466   5.164
71043SOL    HW115026   3.673  13.480   5.164
71043SOL    HW215027   3.548  13.502   5.081
71044SOL     OW15028   9.743   8.504  12.127
71044SOL    HW115029   9.833   8.532  12.111
71044SOL    HW215030   9.738   8.416  12.091
71045SOL     OW15031  11.871  14.558  12.850
71045SOL    HW115032  11.824  14.571  12.932
71045SOL    HW215033  11.952  14.607  12.860
71046SOL     OW15034  14.255   8.899   9.467
71046SOL    HW115035  14.280   8.871   9.555
71046SOL    HW215036  14.159   8.893   9.466
71047SOL     OW15037   7.420   8.214  13.040
71047SOL    HW115038   7.432   8.138  12.983
71047SOL    HW215039   7.506   8.229  13.079
71048SOL     OW15040   8.442   0.618   4.298
71048SOL    HW115041   8.536   0.635   4.297
71048SOL    HW215042   8.423   0.585   4.210
71049SOL     OW15043   9.102   7.248   4.678
71049SOL    HW115044   9.101   7.246   4.582
71049SOL    HW215045   9.073   7.337   4.700
71050SOL     OW15046   0.247  10.478   3.707
71050SOL    HW115047   0.315  10.544   3.698
71050SOL    HW215048   0.170  10.515   3.663
71051SOL     OW15049   6.895   2.611  10.762
71051SOL    HW115050   6.814   2.572  10.793
71051SOL    HW215051   6.916   2.679  10.826
71052SOL     OW15052   1.510   6.549   9.819
71052SOL    HW115053   1.494   6.541   9.725
71052SOL    HW215054   1.423   6.539   9.859
71053SOL     OW15055   1.321   9.328   4.351
71053SOL    HW115056   1.410   9.339   4.384
71053SOL    HW215057   1.269   9.391   4.400
71054SOL     OW15058  11.943   3.375   0.515
71054SOL    HW115059  11.900   3.307   0.567
71054SOL    HW215060  11.882   3.390   0.442
71055SOL     OW15061  11.853   4.130   7.560
71055SOL    HW115062  11.848   4.050   7.613
71055SOL    HW215063  11.771   4.175   7.577
71056SOL     OW15064   6.050  13.157  10.447
71056SOL    HW115065   6.055  13.089  10.514
71056SOL    HW215066   5.957  13.164  10.425
71057SOL     OW15067   9.422   5.182  10.930
71057SOL    HW115068   9.341   5.226  10.956
71057SOL    HW215069   9.408   5.162  10.837
71058SOL     OW15070  11.877   8.857  11.256
71058SOL    HW115071  11.804   8.907  11.220
71058SOL    HW215072  11.934   8.840  11.181
71059SOL     OW15073   9.979   4.185   5.990
71059SOL    HW115074   9.986   4.231   5.906
71059SOL    HW215075  10.016   4.245   6.054
71060SOL     OW15076  13.472   5.544   2.174
71060SOL    HW115077  13.505   5.504   2.254
71060SOL    HW215078  13.511   5.632   2.172
71061SOL     OW15079   5.679  11.296   8.991
71061SOL    HW115080   5.584  11.288   8.987
71061SOL    HW215081   5.706  11.308   8.900
71062SOL     OW15082   4.007   7.764  12.941
71062SOL    HW115083   4.019   7.670  12.953
71062SOL    HW215084   4.093   7.801  12.957
71063SOL     OW15085   4.322   1.817   7.031
71063SOL    HW115086   4.409   1.854   7.019
71063SOL    HW215087   4.282   1.870   7.100
71064SOL     OW15088   7.253   9.598  12.339
71064SOL    HW115089   7.265   9.544  12.260
71064SOL    HW215090   7.342   9.623  12.364
71065SOL     OW15091   8.829  11.994   7.767
71065SOL    HW115092   8.777  11.961   7.694
71065SOL    HW215093   8.919  11.967   7.746
71066SOL     OW15094   9.837   2.726   2.947
71066SOL    HW115095   9.842   2.702   2.854
71066SOL    HW215096   9.853   2.820   2.948
71067SOL     OW15097  12.484   8.490   0.093
71067SOL    HW115098  12.431   8.415   0.066
71067SOL    HW215099  12.554   8.495   0.027
71068SOL     OW15100  14.505   2.117   2.401
71068SOL    HW115101  14.434   2.132   2.339
71068SOL    HW215102  14.579   2.165   2.365
71069SOL     OW15103  14.689  14.014   2.854
71069SOL    HW115104  14.671  13.986   2.944
71069SOL    HW215105  14.770  13.968   2.831
71070SOL     OW15106   8.497   3.123   1.658
71070SOL    HW115107   8.567   3.173   1.618
71070SOL    HW215108   8.441   3.188   1.700
71071SOL     OW15109   6.081   4.555   1.924
71071SOL    HW115110   6.135   4.585   1.851
71071SOL    HW215111   6.002   4.519   1.882
71072SOL     OW15112  12.852  11.137   5.888
71072SOL    HW115113  12.855  11.165   5.797
71072SOL    HW215114  12.928  11.177   5.928
71073SOL     OW15115   5.848   9.015   5.619
71073SOL    HW115116   5.894   8.999   5.537
71073SOL    HW215117   5.858   8.933   5.668
71074SOL     OW15118   4.188   5.124   7.264
71074SOL    HW115119   4.131   5.048   7.270
71074SOL    HW215120   4.274   5.088   7.243
71075SOL     OW15121  13.069  13.193   8.829
71075SOL    HW115122  13.135  13.148   8.882
71075SOL    HW215123  13.069  13.146   8.745
71076SOL     OW15124   0.263   1.202   1.494
71076SOL    HW115125   0.195   1.226   1.557
71076SOL    HW215126   0.343   1.241   1.528
71077SOL     OW15127   7.224  10.542  13.719
71077SOL    HW115128   7.256  10.491  13.645
71077SOL    HW215129   7.165  10.607  13.680
71078SOL     OW15130   0.364   4.609   1.289
71078SOL    HW115131   0.435   4.670   1.310
71078SOL    HW215132   0.288   4.645   1.333
71079SOL     OW15133   5.888  13.544  13.389
71079SOL    HW115134   5.953  13.500  13.335
71079SOL    HW215135   5.815  13.561  13.330
71080SOL     OW15136   3.003  11.924  11.564
71080SOL    HW115137   2.976  11.940  11.474
71080SOL    HW215138   3.083  11.975  11.574
71081SOL     OW15139   2.803   8.869   9.984
71081SOL    HW115140   2.885   8.840  10.026
71081SOL    HW215141   2.790   8.958  10.017
71082SOL     OW15142   4.787   7.151  13.343
71082SOL    HW115143   4.763   7.086  13.409
71082SOL    HW215144   4.873   7.183  13.372
71083SOL     OW15145   5.655   8.993   9.204
71083SOL    HW115146   5.568   8.967   9.234
71083SOL    HW215147   5.714   8.965   9.274
71084SOL     OW15148   9.555  14.475  11.982
71084SOL    HW115149   9.618  14.545  11.967
71084SOL    HW215150   9.606  14.405  12.023
71085SOL     OW15151   6.547   3.175   1.730
71085SOL    HW115152   6.596   3.112   1.782
71085SOL    HW215153   6.500   3.122   1.666
71086SOL     OW15154   7.552   4.051   5.783
71086SOL    HW115155   7.500   4.117   5.738
71086SOL    HW215156   7.575   3.988   5.715
71087SOL     OW15157  14.551   1.211   6.890
71087SOL    HW115158  14.548   1.140   6.954
71087SOL    HW215159  14.467   1.256   6.900
71088SOL     OW15160  14.459  14.854   3.764
71088SOL    HW115161  14.435  14.836   3.673
71088SOL    HW215162  14.472   0.074   3.767
71089SOL     OW15163  11.710   7.224  10.943
71089SOL    HW115164  11.713   7.306  10.992
71089SOL    HW215165  11.648   7.240  10.872
71090SOL     OW15166   8.844   1.888   7.591
71090SOL    HW115167   8.854   1.978   7.560
71090SOL    HW215168   8.823   1.897   7.684
71091SOL     OW15169   3.194   9.272   2.849
71091SOL    HW115170   3.219   9.263   2.941
71091SOL    HW215171   3.128   9.205   2.836
71092SOL     OW15172   5.802  13.980   3.079
71092SOL    HW115173   5.836  14.049   3.136
71092SOL    HW215174   5.763  14.028   3.005
71093SOL     OW15175   6.317   9.409   2.720
71093SOL    HW115176   6.317   9.313   2.729
71093SOL    HW215177   6.394   9.428   2.667
71094SOL     OW15178  10.648   9.148   7.394
71094SOL    HW115179  10.723   9.108   7.439
71094SOL    HW215180  10.576   9.141   7.456
71095SOL     OW15181   6.652   5.408  11.018
71095SOL    HW115182   6.653   5.403  11.113
71095SOL    HW215183   6.612   5.493  10.999
71096SOL     OW15184   6.826   9.700  14.460
71096SOL    HW115185   6.829   9.773  14.399
71096SOL    HW215186   6.762   9.726  14.526
71097SOL     OW15187   8.485   9.444   4.406
71097SOL    HW115188   8.569   9.429   4.362
71097SOL    HW215189   8.453   9.356   4.428
71098SOL     OW15190   9.963   1.564   7.942
71098SOL    HW115191   9.904   1.588   7.870
71098SOL    HW215192   9.919   1.595   8.021
71099SOL     OW15193   4.184   3.738   8.268
71099SOL    HW115194   4.111   3.760   8.211
71099SOL    HW215195   4.214   3.823   8.301
71100SOL     OW15196   6.485   1.040   4.423
71100SOL    HW115197   6.553   1.106   4.410
71100SOL    HW215198   6.422   1.057   4.353
71101SOL     OW15199  11.041   3.585  13.873
71101SOL    HW115200  11.120   3.561  13.824
71101SOL    HW215201  10.974   3.595  13.806
71102SOL     OW15202   9.964   5.650   2.893
71102SOL    HW115203   9.875   5.643   2.860
71102SOL    HW215204   9.955   5.643   2.988
71103SOL     OW15205   7.797   8.623  13.147
71103SOL    HW115206   7.801   8.598  13.239
71103SOL    HW215207   7.800   8.718  13.148
71104SOL     OW15208  13.628   2.627   8.699
71104SOL    HW115209  13.660   2.695   8.759
71104SOL    HW215210  13.676   2.642   8.618
71105SOL     OW15211   4.583   0.197   9.111
71105SOL    HW115212   4.633   0.279   9.106
71105SOL    HW215213   4.492   0.225   9.124
71106SOL     OW15214  12.083   8.251   0.654
71106SOL    HW115215  11.991   8.275   0.662
71106SOL    HW215216  12.124   8.328   0.613
71107SOL     OW15217   6.360   9.081   2.131
71107SOL    HW115218   6.319   9.165   2.153
71107SOL    HW215219   6.442   9.080   2.180
71108SOL     OW15220  14.850   8.293   9.504
71108SOL    HW115221  14.860   8.326   9.415
71108SOL    HW215222   0.056   8.316   9.548
71109SOL     OW15223   4.451   1.890   6.584
71109SOL    HW115224   4.371   1.910   6.632
71109SOL    HW215225   4.488   1.814   6.630
71110SOL     OW15226  13.154   3.107   5.658
71110SOL    HW115227  13.201   3.054   5.723
71110SOL    HW215228  13.213   3.110   5.583
71111SOL     OW15229   9.255   9.536   8.939
71111SOL    HW115230   9.245   9.471   8.869
71111SOL    HW215231   9.218   9.616   8.903
71112SOL     OW15232  13.456   0.186   5.120
71112SOL    HW115233  13.477   0.262   5.174
71112SOL    HW215234  13.393   0.218   5.056
71113SOL     OW15235  13.848   7.292   7.190
71113SOL    HW115236  13.926   7.337   7.223
71113SOL    HW215237  13.796   7.274   7.269
71114SOL     OW15238   8.359  14.047  14.365
71114SOL    HW115239   8.413  13.975  14.399
71114SOL    HW215240   8.405  14.076  14.286
71115SOL     OW15241   1.328  11.293   7.684
71115SOL    HW115242   1.305  11.216   7.735
71115SOL    HW215243   1.256  11.305   7.622
71116SOL     OW15244  10.894   6.402   5.330
71116SOL    HW115245  10.831   6.413   5.400
71116SOL    HW215246  10.979   6.402   5.373
71117SOL     OW15247   7.249   8.196   0.553
71117SOL    HW115248   7.196   8.276   0.556
71117SOL    HW215249   7.248   8.163   0.643
71118SOL     OW15250   0.339   5.299  14.611
71118SOL    HW115251   0.270   5.241  14.645
71118SOL    HW215252   0.363   5.260  14.527
71119SOL     OW15253   7.787   1.031   1.586
71119SOL    HW115254   7.711   1.006   1.533
71119SOL    HW215255   7.850   1.066   1.522
71120SOL     OW15256   9.892   9.657   6.438
71120SOL    HW115257   9.938   9.649   6.355
71120SOL    HW215258   9.809   9.611   6.424
71121SOL     OW15259  12.918   9.449  11.313
71121SOL    HW115260  12.960   9.531  11.287
71121SOL    HW215261  12.825   9.471  11.321
71122SOL     OW15262  12.108   1.674   0.321
71122SOL    HW115263  12.150   1.743   0.269
71122SOL    HW215264  12.056   1.625   0.257
71123SOL     OW15265   3.082   3.305  13.551
71123SOL    HW115266   3.115   3.310  13.461
71123SOL    HW215267   3.011   3.369  13.554
71124SOL     OW15268   8.228   6.627   1.196
71124SOL    HW115269   8.223   6.532   1.185
71124SOL    HW215270   8.317   6.642   1.230
71125SOL     OW15271   2.470   8.820   8.302
71125SOL    HW115272   2.379   8.796   8.283
71125SOL    HW215273   2.463   8.888   8.368
71126SOL     OW15274  11.162  13.526   6.047
71126SOL    HW115275  11.067  13.520   6.040
71126SOL    HW215276  11.178  13.571   6.129
71127SOL     OW15277   0.596   6.762   4.387
71127SOL    HW115278   0.591   6.670   4.412
71127SOL    HW215279   0.558   6.810   4.461
71128SOL     OW15280   3.558   7.846   0.756
71128SOL    HW115281   3.536   7.796   0.835
71128SOL    HW215282   3.572   7.935   0.787
71129SOL     OW15283   4.463   1.685   9.352
71129SOL    HW115284   4.478   1.592   9.342
71129SOL    HW215285   4.525   1.713   9.420
71130SOL     OW15286  11.530   1.507   2.409
71130SOL    HW115287  11.440   1.478   2.399
71130SOL    HW215288  11.527   1.602   2.397
71131SOL     OW15289   4.622   1.369  12.207
71131SOL    HW115290   4.587   1.294  12.255
71131SOL    HW215291   4.686   1.408  12.267
71132SOL     OW15292   1.592  13.560  10.934
71132SOL    HW115293   1.638  13.477  10.926
71132SOL    HW215294   1.660  13.626  10.923
71133SOL     OW15295   1.942   4.690  12.250
71133SOL    HW115296   1.870   4.745  12.282
71133SOL    HW215297   1.991   4.747  12.191
71134SOL     OW15298   1.743   1.569   2.060
71134SOL    HW115299   1.709   1.501   2.002
71134SOL    HW215300   1.812   1.611   2.010
71135SOL     OW15301   2.478   2.894   0.011
71135SOL    HW115302   2.528   2.928   0.086
71135SOL    HW215303   2.538   2.903  14.812
71136SOL     OW15304   7.352  10.088  10.420
71136SOL    HW115305   7.279  10.145  10.445
71136SOL    HW215306   7.413  10.146  10.375
71137SOL     OW15307  12.111   6.479   8.080
71137SOL    HW115308  12.117   6.452   7.988
71137SOL    HW215309  12.031   6.438   8.111
71138SOL     OW15310   5.705   0.913   4.398
71138SOL    HW115311   5.777   0.888   4.340
71138SOL    HW215312   5.690   0.837   4.454
71139SOL     OW15313  11.329   2.608  11.759
71139SOL    HW115314  11.261   2.556  11.802
71139SOL    HW215315  11.298   2.698  11.768
71140SOL     OW15316   4.067   1.968   6.365
71140SOL    HW115317   4.145   1.942   6.316
71140SOL    HW215318   4.068   1.913   6.443
71141SOL     OW15319   5.324   5.405   1.352
71141SOL    HW115320   5.313   5.428   1.444
71141SOL    HW215321   5.346   5.312   1.353
71142SOL     OW15322   1.935   9.719   2.116
71142SOL    HW115323   1.957   9.742   2.206
71142SOL    HW215324   2.004   9.759   2.063
71143SOL     OW15325  10.182   9.793   3.062
71143SOL    HW115326  10.262   9.742   3.051
71143SOL    HW215327  10.209   9.884   3.047
71144SOL     OW15328  13.553   5.266  11.389
71144SOL    HW115329  13.511   5.303  11.312
71144SOL    HW215330  13.582   5.179  11.361
71145SOL     OW15331   4.291   0.802  12.500
71145SOL    HW115332   4.374   0.827  12.539
71145SOL    HW215333   4.226   0.814  12.569
71146SOL     OW15334  10.880  11.404   3.219
71146SOL    HW115335  10.974  11.408   3.241
71146SOL    HW215336  10.875  11.439   3.130
71147SOL     OW15337   2.439   6.285   9.751
71147SOL    HW115338   2.447   6.360   9.810
71147SOL    HW215339   2.388   6.221   9.800
71148SOL     OW15340   3.493   6.799   4.662
71148SOL    HW115341   3.552   6.839   4.725
71148SOL    HW215342   3.456   6.873   4.613
71149SOL     OW15343   8.566   3.521   7.187
71149SOL    HW115344   8.477   3.491   7.206
71149SOL    HW215345   8.623   3.462   7.237
71150SOL     OW15346   9.004  12.186  13.223
71150SOL    HW115347   9.096  12.170  13.246
71150SOL    HW215348   8.997  12.155  13.133
71151SOL     OW15349  11.818  11.749  10.783
71151SOL    HW115350  11.807  11.668  10.834
71151SOL    HW215351  11.752  11.808  10.817
71152SOL     OW15352   5.210   5.896   3.353
71152SOL    HW115353   5.220   5.943   3.436
71152SOL    HW215354   5.204   5.964   3.287
71153SOL     OW15355  12.427   7.767   4.015
71153SOL    HW115356  12.451   7.733   3.929
71153SOL    HW215357  12.434   7.691   4.073
71154SOL     OW15358   6.058  13.690   0.079
71154SOL    HW115359   5.999  13.644   0.138
71154SOL    HW215360   6.085  13.768   0.127
71155SOL     OW15361   2.472   1.094   1.160
71155SOL    HW115362   2.561   1.098   1.195
71155SOL    HW215363   2.450   1.186   1.140
71156SOL     OW15364   2.419   4.999  12.549
71156SOL    HW115365   2.484   5.025  12.615
71156SOL    HW215366   2.342   4.975  12.601
71157SOL     OW15367  10.308  11.440   3.926
71157SOL    HW115368  10.358  11.422   4.006
71157SOL    HW215369  10.249  11.365   3.917
71158SOL     OW15370   7.233   0.956   3.970
71158SOL    HW115371   7.316   0.911   3.985
71158SOL    HW215372   7.180   0.933   4.046
71159SOL     OW15373  14.585   5.265   9.840
71159SOL    HW115374  14.490   5.273   9.838
71159SOL    HW215375  14.603   5.205   9.913
71160SOL     OW15376   6.215   0.733   5.331
71160SOL    HW115377   6.194   0.664   5.268
71160SOL    HW215378   6.295   0.702   5.374
71161SOL     OW15379  10.622  12.249   6.612
71161SOL    HW115380  10.633  12.170   6.666
71161SOL    HW215381  10.577  12.311   6.670
71162SOL     OW15382   9.301   9.238  11.829
71162SOL    HW115383   9.318   9.143  11.830
71162SOL    HW215384   9.207   9.245  11.814
71163SOL     OW15385   5.886   8.963   9.042
71163SOL    HW115386   5.814   8.992   9.098
71163SOL    HW215387   5.962   8.961   9.099
71164SOL     OW15388   2.655   8.758   0.576
71164SOL    HW115389   2.586   8.725   0.519
71164SOL    HW215390   2.610   8.816   0.638
71165SOL     OW15391   2.337   6.061  11.745
71165SOL    HW115392   2.418   6.013  11.765
71165SOL    HW215393   2.270   5.993  11.739
71166SOL     OW15394   6.532   9.428   2.549
71166SOL    HW115395   6.621   9.438   2.582
71166SOL    HW215396   6.539   9.360   2.481
71167SOL     OW15397   4.619  11.198  13.304
71167SOL    HW115398   4.619  11.179  13.210
71167SOL    HW215399   4.573  11.282  13.311
71168SOL     OW15400   4.119   4.414  11.552
71168SOL    HW115401   4.105   4.356  11.477
71168SOL    HW215402   4.208   4.446  11.541
71169SOL     OW15403  14.564   7.763  10.955
71169SOL    HW115404  14.489   7.811  10.991
71169SOL    HW215405  14.628   7.763  11.026
71170SOL     OW15406   7.701  13.101  13.705
71170SOL    HW115407   7.614  13.080  13.740
71170SOL    HW215408   7.714  13.037  13.635
71171SOL     OW15409   5.527   8.747   6.704
71171SOL    HW115410   5.580   8.669   6.687
71171SOL    HW215411   5.438   8.713   6.712
71172SOL     OW15412  11.878   4.379   4.364
71172SOL    HW115413  11.807   4.442   4.347
71172SOL    HW215414  11.956   4.433   4.375
71173SOL     OW15415   4.296   8.590   2.859
71173SOL    HW115416   4.288   8.498   2.833
71173SOL    HW215417   4.218   8.608   2.910
71174SOL     OW15418   0.891  12.006   5.862
71174SOL    HW115419   0.842  12.085   5.837
71174SOL    HW215420   0.833  11.933   5.837
71175SOL     OW15421  13.764   8.837  13.676
71175SOL    HW115422  13.705   8.811  13.604
71175SOL    HW215423  13.783   8.755  13.722
71176SOL     OW15424  12.985   8.210  10.692
71176SOL    HW115425  13.003   8.296  10.729
71176SOL    HW215426  12.894   8.192  10.715
71177SOL     OW15427  13.274   8.469  12.144
71177SOL    HW115428  13.328   8.475  12.066
71177SOL    HW215429  13.205   8.534  12.131
71178SOL     OW15430  13.619  12.207   3.029
71178SOL    HW115431  13.606  12.116   3.002
71178SOL    HW215432  13.587  12.259   2.956
71179SOL     OW15433   3.997  14.082  12.296
71179SOL    HW115434   3.931  14.151  12.284
71179SOL    HW215435   4.080  14.124  12.271
71180SOL     OW15436   2.649  14.470   3.294
71180SOL    HW115437   2.589  14.526   3.343
71180SOL    HW215438   2.723  14.456   3.353
71181SOL     OW15439   8.658  10.119  10.325
71181SOL    HW115440   8.583  10.070  10.290
71181SOL    HW215441   8.711  10.053  10.369
71182SOL     OW15442   1.123  10.230  13.049
71182SOL    HW115443   1.031  10.229  13.025
71182SOL    HW215444   1.162  10.297  12.994
71183SOL     OW15445  14.362  12.225   5.747
71183SOL    HW115446  14.280  12.259   5.711
71183SOL    HW215447  14.424  12.230   5.674
71184SOL     OW15448  11.011   3.994   2.383
71184SOL    HW115449  11.068   4.048   2.438
71184SOL    HW215450  11.070   3.931   2.342
71185SOL     OW15451   9.695  13.169   9.776
71185SOL    HW115452   9.710  13.075   9.790
71185SOL    HW215453   9.609  13.173   9.734
71186SOL     OW15454   6.140   0.490   7.972
71186SOL    HW115455   6.225   0.451   7.991
71186SOL    HW215456   6.146   0.579   8.007
71187SOL     OW15457   1.795  12.304  12.892
71187SOL    HW115458   1.856  12.376  12.873
71187SOL    HW215459   1.832  12.229  12.846
71188SOL     OW15460   8.744   7.433   1.677
71188SOL    HW115461   8.740   7.501   1.745
71188SOL    HW215462   8.823   7.383   1.698
71189SOL     OW15463   7.303   2.295   8.027
71189SOL    HW115464   7.381   2.350   8.034
71189SOL    HW215465   7.280   2.296   7.934
71190SOL     OW15466   7.045  12.317   3.360
71190SOL    HW115467   6.969  12.258   3.355
71190SOL    HW215468   7.100  12.280   3.429
71191SOL     OW15469   7.484   2.855   4.679
71191SOL    HW115470   7.534   2.791   4.730
71191SOL    HW215471   7.528   2.857   4.594
71192SOL     OW15472  13.063  12.553   3.872
71192SOL    HW115473  13.083  12.581   3.961
71192SOL    HW215474  13.146  12.561   3.825
71193SOL     OW15475   2.727   2.983   5.533
71193SOL    HW115476   2.750   3.034   5.611
71193SOL    HW215477   2.809   2.942   5.507
71194SOL     OW15478   3.617  10.719   3.751
71194SOL    HW115479   3.592  10.671   3.673
71194SOL    HW215480   3.666  10.656   3.804
71195SOL     OW15481   0.095   8.894   9.376
71195SOL    HW115482   0.048   8.900   9.459
71195SOL    HW215483   0.036   8.934   9.312
71196SOL     OW15484   3.404   7.272  14.105
71196SOL    HW115485   3.392   7.178  14.099
71196SOL    HW215486   3.409   7.302  14.014
71197SOL     OW15487   6.811   4.550  13.217
71197SOL    HW115488   6.896   4.580  13.187
71197SOL    HW215489   6.806   4.459  13.187
71198SOL     OW15490   7.217  10.805   6.777
71198SOL    HW115491   7.165  10.770   6.705
71198SOL    HW215492   7.250  10.889   6.745
71199SOL     OW15493   3.556   9.788   1.419
71199SOL    HW115494   3.479   9.836   1.449
71199SOL    HW215495   3.526   9.740   1.342
71200SOL     OW15496  11.868   9.690  10.685
71200SOL    HW115497  11.936   9.756  10.671
71200SOL    HW215498  11.786   9.738  10.676
71201SOL     OW15499   1.004  14.788  10.352
71201SOL    HW115500   1.063  14.731  10.402
71201SOL    HW215501   0.940  14.819  10.417
71202SOL     OW15502   7.509   0.095   9.019
71202SOL    HW115503   7.417   0.111   9.039
71202SOL    HW215504   7.547   0.064   9.101
71203SOL     OW15505   2.910  11.068   1.089
71203SOL    HW115506   2.855  11.004   1.134
71203SOL    HW215507   3.000  11.037   1.104
71204SOL     OW15508  14.813  14.687  11.452
71204SOL    HW115509  14.780  14.689  11.542
71204SOL    HW215510   0.016  14.742  11.454
71205SOL     OW15511   3.335   1.738   7.227
71205SOL    HW115512   3.310   1.786   7.306
71205SOL    HW215513   3.296   1.651   7.240
71206SOL     OW15514   5.711  14.284  10.945
71206SOL    HW115515   5.770  14.269  11.019
71206SOL    HW215516   5.647  14.347  10.979
71207SOL     OW15517   6.270   9.442   4.474
71207SOL    HW115518   6.290   9.472   4.386
71207SOL    HW215519   6.323   9.499   4.531
71208SOL     OW15520  13.258   4.813  14.795
71208SOL    HW115521  13.208   4.805  14.715
71208SOL    HW215522  13.340   4.855  14.768
71209SOL     OW15523   2.813  12.491  12.138
71209SOL    HW115524   2.842  12.461  12.052
71209SOL    HW215525   2.891  12.487  12.192
71210SOL     OW15526   4.647   5.307   1.638
71210SOL    HW115527   4.581   5.324   1.706
71210SOL    HW215528   4.637   5.380   1.577
71211SOL     OW15529   2.890   7.600   7.077
71211SOL    HW115530   2.927   7.666   7.136
71211SOL    HW215531   2.836   7.650   7.016
71212SOL     OW15532   3.237  14.221   8.390
71212SOL    HW115533   3.155  14.264   8.416
71212SOL    HW215534   3.210  14.134   8.361
71213SOL     OW15535  13.859   9.886   5.722
71213SOL    HW115536  13.791   9.848   5.665
71213SOL    HW215537  13.838   9.979   5.725
71214SOL     OW15538  13.566   1.974   6.332
71214SOL    HW115539  13.556   1.996   6.240
71214SOL    HW215540  13.588   2.057   6.374
71215SOL     OW15541   2.388   6.805   7.024
71215SOL    HW115542   2.471   6.827   6.982
71215SOL    HW215543   2.402   6.717   7.061
71216SOL     OW15544   2.880   4.549   7.108
71216SOL    HW115545   2.975   4.538   7.112
71216SOL    HW215546   2.863   4.628   7.158
71217SOL     OW15547   7.440   2.741   0.918
71217SOL    HW115548   7.387   2.732   0.838
71217SOL    HW215549   7.507   2.673   0.910
71218SOL     OW15550  11.502  12.154   5.978
71218SOL    HW115551  11.534  12.080   5.926
71218SOL    HW215552  11.418  12.177   5.939
71219SOL     OW15553   2.736   5.389   8.575
71219SOL    HW115554   2.801   5.457   8.558
71219SOL    HW215555   2.771   5.341   8.650
71220SOL     OW15556   9.706   1.935  12.118
71220SOL    HW115557   9.645   2.004  12.091
71220SOL    HW215558   9.790   1.979  12.124
71221SOL     OW15559   4.926  12.617  10.421
71221SOL    HW115560   4.853  12.580  10.472
71221SOL    HW215561   4.886  12.684  10.366
71222SOL     OW15562   1.172   2.747   7.836
71222SOL    HW115563   1.225   2.815   7.796
71222SOL    HW215564   1.166   2.678   7.769
71223SOL     OW15565  10.733   4.024   1.287
71223SOL    HW115566  10.674   4.068   1.226
71223SOL    HW215567  10.778   4.094   1.333
71224SOL     OW15568   6.416   5.367   9.036
71224SOL    HW115569   6.346   5.420   8.999
71224SOL    HW215570   6.481   5.431   9.067
71225SOL     OW15571   6.412  14.614  13.618
71225SOL    HW115572   6.322  14.642  13.602
71225SOL    HW215573   6.422  14.621  13.713
71226SOL     OW15574   9.086   4.110   4.106
71226SOL    HW115575   9.148   4.182   4.105
71226SOL    HW215576   9.063   4.100   4.199
71227SOL     OW15577  12.287   2.478   1.662
71227SOL    HW115578  12.270   2.402   1.606
71227SOL    HW215579  12.381   2.474   1.680
71228SOL     OW15580   9.542   9.911   9.800
71228SOL    HW115581   9.544   9.816   9.785
71228SOL    HW215582   9.470   9.942   9.745
71229SOL     OW15583   2.137   3.800  10.762
71229SOL    HW115584   2.153   3.705  10.761
71229SOL    HW215585   2.097   3.817  10.676
71230SOL     OW15586  12.882   6.904  10.989
71230SOL    HW115587  12.893   6.861  10.904
71230SOL    HW215588  12.790   6.930  10.990
71231SOL     OW15589  13.988  13.676   0.485
71231SOL    HW115590  14.010  13.762   0.519
71231SOL    HW215591  14.011  13.680   0.392
71232SOL     OW15592   8.802  10.939   2.380
71232SOL    HW115593   8.779  10.846   2.384
71232SOL    HW215594   8.753  10.972   2.305
71233SOL     OW15595  10.872  12.734  14.595
71233SOL    HW115596  10.903  12.781  14.672
71233SOL    HW215597  10.801  12.678  14.628
71234SOL     OW15598   9.795   7.785   5.707
71234SOL    HW115599   9.819   7.877   5.706
71234SOL    HW215600   9.781   7.763   5.615
71235SOL     OW15601   9.844  10.192   1.115
71235SOL    HW115602   9.865  10.215   1.205
71235SOL    HW215603   9.796  10.109   1.122
71236SOL     OW15604   7.453  12.255   7.479
71236SOL    HW115605   7.519  12.236   7.546
71236SOL    HW215606   7.435  12.349   7.489
71237SOL     OW15607   6.454   0.008  14.459
71237SOL    HW115608   6.495  14.823  14.396
71237SOL    HW215609   6.473   0.096  14.425
71238SOL     OW15610   2.237   4.339   3.371
71238SOL    HW115611   2.238   4.432   3.349
71238SOL    HW215612   2.147   4.311   3.354
71239SOL     OW15613   9.649   2.776   1.734
71239SOL    HW115614   9.733   2.817   1.752
71239SOL    HW215615   9.588   2.818   1.795
71240SOL     OW15616   9.602   0.620  14.349
71240SOL    HW115617   9.613   0.547  14.289
71240SOL    HW215618   9.557   0.583  14.425
71241SOL     OW15619  10.097   1.535  13.969
71241SOL    HW115620  10.174   1.580  13.936
71241SOL    HW215621  10.080   1.575  14.054
71242SOL     OW15622   6.673   1.115   9.860
71242SOL    HW115623   6.748   1.091   9.914
71242SOL    HW215624   6.658   1.039   9.804
71243SOL     OW15625   9.392   2.996   4.086
71243SOL    HW115626   9.428   3.024   4.170
71243SOL    HW215627   9.347   2.914   4.105
71244SOL     OW15628   6.166   5.558   3.016
71244SOL    HW115629   6.090   5.548   2.957
71244SOL    HW215630   6.146   5.499   3.089
71245SOL     OW15631   7.393   4.142   1.951
71245SOL    HW115632   7.312   4.095   1.931
71245SOL    HW215633   7.460   4.100   1.896
71246SOL     OW15634   8.955  10.652  11.358
71246SOL    HW115635   9.040  10.608  11.369
71246SOL    HW215636   8.934  10.684  11.446
71247SOL     OW15637   4.432  14.592   9.294
71247SOL    HW115638   4.507  14.606   9.350
71247SOL    HW215639   4.454  14.636   9.212
71248SOL     OW15640   6.136  13.594   4.334
71248SOL    HW115641   6.120  13.595   4.239
71248SOL    HW215642   6.097  13.512   4.364
71249SOL     OW15643   0.363   5.461   9.535
71249SOL    HW115644   0.405   5.545   9.548
71249SOL    HW215645   0.357   5.451   9.440
71250SOL     OW15646   4.535   8.043   5.716
71250SOL    HW115647   4.559   8.013   5.804
71250SOL    HW215648   4.565   7.972   5.659
71251SOL     OW15649   1.399   3.549   9.071
71251SOL    HW115650   1.427   3.623   9.018
71251SOL    HW215651   1.318   3.578   9.112
71252SOL     OW15652  10.867   8.321   8.998
71252SOL    HW115653  10.833   8.232   9.002
71252SOL    HW215654  10.911   8.333   9.083
71253SOL     OW15655   6.660  12.299   9.107
71253SOL    HW115656   6.566  12.283   9.107
71253SOL    HW215657   6.699  12.218   9.140
71254SOL     OW15658   1.680  12.794  14.483
71254SOL    HW115659   1.710  12.705  14.503
71254SOL    HW215660   1.660  12.832  14.568
71255SOL     OW15661   9.036   8.349   2.350
71255SOL    HW115662   8.976   8.319   2.419
71255SOL    HW215663   8.981   8.403   2.293
71256SOL     OW15664   5.556  13.986   5.218
71256SOL    HW115665   5.512  14.046   5.158
71256SOL    HW215666   5.632  14.034   5.250
71257SOL     OW15667   1.154   4.334  13.997
71257SOL    HW115668   1.088   4.274  14.031
71257SOL    HW215669   1.162   4.401  14.064
71258SOL     OW15670  14.847   9.691   7.217
71258SOL    HW115671   0.052   9.732   7.183
71258SOL    HW215672  14.803   9.762   7.265
71259SOL     OW15673   1.764   8.959   1.354
71259SOL    HW115674   1.756   9.043   1.399
71259SOL    HW215675   1.754   8.979   1.261
71260SOL     OW15676   1.802  14.297   3.396
71260SOL    HW115677   1.751  14.286   3.315
71260SOL    HW215678   1.885  14.334   3.366
71261SOL     OW15679  10.762   9.661   8.340
71261SOL    HW115680  10.688   9.610   8.372
71261SOL    HW215681  10.835   9.635   8.397
71262SOL     OW15682   3.116   1.881   6.472
71262SOL    HW115683   3.101   1.788   6.487
71262SOL    HW215684   3.108   1.892   6.377
71263SOL     OW15685   7.696   3.851  14.625
71263SOL    HW115686   7.698   3.922  14.561
71263SOL    HW215687   7.786   3.844  14.655
71264SOL     OW15688   8.357   0.753   4.958
71264SOL    HW115689   8.412   0.675   4.963
71264SOL    HW215690   8.416   0.824   4.986
71265SOL     OW15691  12.323  12.040   9.374
71265SOL    HW115692  12.285  12.029   9.287
71265SOL    HW215693  12.299  11.960   9.421
71266SOL     OW15694  10.069   4.390  10.223
71266SOL    HW115695   9.975   4.394  10.245
71266SOL    HW215696  10.075   4.326  10.153
71267SOL     OW15697  11.593  13.853   0.448
71267SOL    HW115698  11.555  13.927   0.495
71267SOL    HW215699  11.682  13.845   0.483
71268SOL     OW15700   4.422   5.944   2.978
71268SOL    HW115701   4.364   5.881   3.019
71268SOL    HW215702   4.480   5.973   3.049
71269SOL     OW15703   9.771  12.925  13.163
71269SOL    HW115704   9.866  12.923  13.169
71269SOL    HW215705   9.752  12.992  13.097
71270SOL     OW15706   7.765   8.221  11.477
71270SOL    HW115707   7.743   8.141  11.428
71270SOL    HW215708   7.759   8.195  11.568
71271SOL     OW15709  11.143   9.202   2.913
71271SOL    HW115710  11.117   9.113   2.937
71271SOL    HW215711  11.237   9.204   2.931
71272SOL     OW15712   4.434  12.577   1.104
71272SOL    HW115713   4.439  12.535   1.190
71272SOL    HW215714   4.524  12.573   1.070
71273SOL     OW15715   6.198   2.324   8.601
71273SOL    HW115716   6.173   2.396   8.658
71273SOL    HW215717   6.139   2.253   8.624
71274SOL     OW15718  12.304  12.161  14.869
71274SOL    HW115719  12.229  12.171   0.052
71274SOL    HW215720  12.341  12.076   0.015
71275SOL     OW15721  11.541   5.847  12.841
71275SOL    HW115722  11.449   5.866  12.819
71275SOL    HW215723  11.557   5.761  12.805
71276SOL     OW15724  10.637   9.457   7.430
71276SOL    HW115725  10.653   9.364   7.419
71276SOL    HW215726  10.668   9.477   7.518
71277SOL     OW15727   1.613   5.206   1.867
71277SOL    HW115728   1.659   5.263   1.929
71277SOL    HW215729   1.675   5.193   1.796
71278SOL     OW15730   5.680  10.820   7.439
71278SOL    HW115731   5.720  10.781   7.517
71278SOL    HW215732   5.752  10.827   7.376
71279SOL     OW15733  14.177  12.729  11.271
71279SOL    HW115734  14.255  12.748  11.218
71279SOL    HW215735  14.107  12.777  11.227
71280SOL     OW15736   0.583  14.466   1.648
71280SOL    HW115737   0.517  14.489   1.713
71280SOL    HW215738   0.545  14.394   1.599
71281SOL     OW15739   0.542  13.378   4.426
71281SOL    HW115740   0.474  13.324   4.467
71281SOL    HW215741   0.620  13.361   4.479
71282SOL     OW15742   1.104   8.862  12.157
71282SOL    HW115743   1.114   8.801  12.084
71282SOL    HW215744   1.065   8.810  12.227
71283SOL     OW15745   3.095   3.776   9.340
71283SOL    HW115746   3.175   3.827   9.331
71283SOL    HW215747   3.078   3.743   9.251
71284SOL     OW15748  13.369   9.533   8.075
71284SOL    HW115749  13.352   9.500   8.163
71284SOL    HW215750  13.287   9.571   8.047
71285SOL     OW15751  12.420  10.553  12.133
71285SOL    HW115752  12.449  10.530  12.221
71285SOL    HW215753  12.382  10.473  12.098
71286SOL     OW15754   4.840   3.814  10.149
71286SOL    HW115755   4.882   3.729  10.140
71286SOL    HW215756   4.746   3.795  10.153
71287SOL     OW15757   6.575   5.967  10.730
71287SOL    HW115758   6.630   6.027  10.680
71287SOL    HW215759   6.597   5.986  10.822
71288SOL     OW15760   7.849   2.149  10.941
71288SOL    HW115761   7.891   2.078  10.989
71288SOL    HW215762   7.761   2.117  10.921
71289SOL     OW15763   2.593  13.190   1.521
71289SOL    HW115764   2.567  13.150   1.438
71289SOL    HW215765   2.679  13.151   1.540
71290SOL     OW15766  12.779   2.121   7.821
71290SOL    HW115767  12.705   2.174   7.794
71290SOL    HW215768  12.742   2.034   7.835
71291SOL     OW15769  13.056  11.268   8.086
71291SOL    HW115770  13.102  11.230   8.011
71291SOL    HW215771  12.971  11.224   8.086
71292SOL     OW15772  12.581   9.265   8.622
71292SOL    HW115773  12.519   9.260   8.696
71292SOL    HW215774  12.643   9.333   8.648
71293SOL     OW15775   0.726   8.145   6.761
71293SOL    HW115776   0.817   8.122   6.780
71293SOL    HW215777   0.710   8.225   6.812
71294SOL     OW15778   7.841  14.293   0.820
71294SOL    HW115779   7.799  14.259   0.899
71294SOL    HW215780   7.928  14.253   0.820
71295SOL     OW15781   5.098  14.760   0.131
71295SOL    HW115782   5.123  14.821   0.201
71295SOL    HW215783   5.072  14.817   0.059
71296SOL     OW15784   2.625  10.181   1.677
71296SOL    HW115785   2.630  10.250   1.742
71296SOL    HW215786   2.688  10.115   1.707
71297SOL     OW15787   1.239   5.780   2.123
71297SOL    HW115788   1.239   5.703   2.180
71297SOL    HW215789   1.329   5.814   2.129
71298SOL     OW15790  13.119   3.466   7.088
71298SOL    HW115791  13.101   3.440   7.178
71298SOL    HW215792  13.195   3.524   7.094
71299SOL     OW15793  12.381   4.219  11.536
71299SOL    HW115794  12.423   4.258  11.459
71299SOL    HW215795  12.369   4.127  11.512
71300SOL     OW15796  11.179   7.300   8.568
71300SOL    HW115797  11.117   7.344   8.509
71300SOL    HW215798  11.256   7.356   8.567
71301SOL     OW15799   7.231  11.927   0.019
71301SOL    HW115800   7.326  11.918   0.028
71301SOL    HW215801   7.207  11.992   0.085
71302SOL     OW15802  14.374   4.048   0.558
71302SOL    HW115803  14.381   4.054   0.654
71302SOL    HW215804  14.463   4.032   0.529
71303SOL     OW15805   1.484   7.546   5.190
71303SOL    HW115806   1.450   7.458   5.207
71303SOL    HW215807   1.570   7.547   5.233
71304SOL     OW15808  10.757  12.010   4.084
71304SOL    HW115809  10.766  11.923   4.044
71304SOL    HW215810  10.725  11.993   4.172
71305SOL     OW15811   1.233   9.251  11.719
71305SOL    HW115812   1.230   9.232  11.813
71305SOL    HW215813   1.295   9.186  11.684
71306SOL     OW15814   7.671   6.410   7.539
71306SOL    HW115815   7.677   6.315   7.549
71306SOL    HW215816   7.675   6.424   7.444
71307SOL     OW15817   8.174  10.490  13.695
71307SOL    HW115818   8.242  10.557  13.699
71307SOL    HW215819   8.101  10.533  13.649
71308SOL     OW15820  14.135   1.510  12.882
71308SOL    HW115821  14.190   1.586  12.901
71308SOL    HW215822  14.046   1.539  12.903
71309SOL     OW15823   8.651   3.886   9.913
71309SOL    HW115824   8.706   3.943   9.966
71309SOL    HW215825   8.650   3.926   9.826
71310SOL     OW15826   9.917  13.486  12.450
71310SOL    HW115827   9.876  13.556  12.501
71310SOL    HW215828  10.011  13.501  12.460
71311SOL     OW15829  10.101  14.199   1.428
71311SOL    HW115830  10.028  14.220   1.486
71311SOL    HW215831  10.061  14.156   1.352
71312SOL     OW15832   8.110   2.951   1.112
71312SOL    HW115833   8.072   2.928   1.028
71312SOL    HW215834   8.151   2.871   1.144
71313SOL     OW15835  12.242  13.417   4.963
71313SOL    HW115836  12.308  13.373   4.910
71313SOL    HW215837  12.158  13.385   4.930
71314SOL     OW15838   8.402   1.702   7.559
71314SOL    HW115839   8.468   1.720   7.491
71314SOL    HW215840   8.421   1.766   7.628
71315SOL     OW15841  11.226   8.234   3.964
71315SOL    HW115842  11.144   8.234   4.012
71315SOL    HW215843  11.291   8.201   4.026
71316SOL     OW15844   1.363   5.999   1.265
71316SOL    HW115845   1.397   6.080   1.227
71316SOL    HW215846   1.441   5.953   1.296
71317SOL     OW15847  12.081   8.375   3.809
71317SOL    HW115848  12.050   8.437   3.743
71317SOL    HW215849  12.096   8.430   3.887
71318SOL     OW15850   9.677  13.127   5.721
71318SOL    HW115851   9.771  13.116   5.736
71318SOL    HW215852   9.635  13.065   5.781
71319SOL     OW15853  11.397   8.537  13.122
71319SOL    HW115854  11.491   8.557  13.126
71319SOL    HW215855  11.355   8.617  13.153
71320SOL     OW15856   7.457  12.271   5.479
71320SOL    HW115857   7.448  12.193   5.534
71320SOL    HW215858   7.533  12.317   5.515
71321SOL     OW15859   8.778  12.049   9.207
71321SOL    HW115860   8.708  12.063   9.271
71321SOL    HW215861   8.739  11.994   9.139
71322SOL     OW15862   1.037  11.446   3.646
71322SOL    HW115863   1.057  11.524   3.594
71322SOL    HW215864   1.122  11.403   3.659
71323SOL     OW15865   5.363  10.681   6.556
71323SOL    HW115866   5.271  10.661   6.573
71323SOL    HW215867   5.385  10.749   6.619
71324SOL     OW15868   9.185  14.433   2.027
71324SOL    HW115869   9.231  14.474   2.100
71324SOL    HW215870   9.137  14.360   2.066
71325SOL     OW15871   2.460  13.962   2.016
71325SOL    HW115872   2.440  13.948   1.924
71325SOL    HW215873   2.464  14.057   2.026
71326SOL     OW15874  14.668  11.140   3.326
71326SOL    HW115875  14.691  11.211   3.386
71326SOL    HW215876  14.588  11.102   3.362
71327SOL     OW15877   8.467   5.510   5.829
71327SOL    HW115878   8.535   5.567   5.793
71327SOL    HW215879   8.399   5.507   5.762
71328SOL     OW15880  10.137   3.084  12.806
71328SOL    HW115881  10.047   3.079  12.837
71328SOL    HW215882  10.187   3.113  12.882
71329SOL     OW15883   7.411  10.307   5.073
71329SOL    HW115884   7.424  10.397   5.041
71329SOL    HW215885   7.458  10.253   5.010
71330SOL     OW15886   6.508   8.041   8.042
71330SOL    HW115887   6.479   8.130   8.059
71330SOL    HW215888   6.586   8.030   8.097
71331SOL     OW15889   2.738   4.949  10.408
71331SOL    HW115890   2.804   4.909  10.353
71331SOL    HW215891   2.778   4.952  10.495
71332SOL     OW15892   8.852   4.465   5.369
71332SOL    HW115893   8.872   4.541   5.423
71332SOL    HW215894   8.818   4.400   5.430
71333SOL     OW15895   4.017  12.505  10.420
71333SOL    HW115896   3.976  12.501  10.506
71333SOL    HW215897   4.111  12.499  10.438
71334SOL     OW15898  12.319   8.206  14.794
71334SOL    HW115899  12.320   8.157  14.711
71334SOL    HW215900  12.236   8.183  14.835
71335SOL     OW15901   2.276   4.546   1.020
71335SOL    HW115902   2.206   4.599   1.059
71335SOL    HW215903   2.248   4.456   1.033
71336SOL     OW15904   4.523   0.555   0.572
71336SOL    HW115905   4.499   0.615   0.643
71336SOL    HW215906   4.558   0.611   0.504
71337SOL     OW15907  13.890   4.634   0.716
71337SOL    HW115908  13.865   4.649   0.807
71337SOL    HW215909  13.950   4.560   0.720
71338SOL     OW15910   0.385   6.203  14.459
71338SOL    HW115911   0.344   6.118  14.441
71338SOL    HW215912   0.395   6.205  14.554
71339SOL     OW15913   7.074   0.016   5.515
71339SOL    HW115914   7.094  14.813   5.567
71339SOL    HW215915   7.131   0.009   5.439
71340SOL     OW15916   3.979   2.529   9.836
71340SOL    HW115917   3.976   2.435   9.815
71340SOL    HW215918   4.032   2.567   9.767
71341SOL     OW15919   1.625   5.545   6.493
71341SOL    HW115920   1.717   5.570   6.502
71341SOL    HW215921   1.618   5.462   6.541
71342SOL     OW15922   3.184  10.038   0.484
71342SOL    HW115923   3.112   9.993   0.439
71342SOL    HW215924   3.140  10.100   0.543
71343SOL     OW15925   4.144  11.069   4.983
71343SOL    HW115926   4.202  11.070   5.059
71343SOL    HW215927   4.109  10.980   4.980
71344SOL     OW15928   7.144   9.968   1.529
71344SOL    HW115929   7.234   9.989   1.554
71344SOL    HW215930   7.092  10.037   1.569
71345SOL     OW15931  13.420  13.283   4.439
71345SOL    HW115932  13.413  13.263   4.532
71345SOL    HW215933  13.374  13.212   4.395
71346SOL     OW15934   7.610   4.500   5.071
71346SOL    HW115935   7.532   4.546   5.039
71346SOL    HW215936   7.681   4.531   5.015
71347SOL     OW15937  14.182   2.480   3.311
71347SOL    HW115938  14.179   2.564   3.264
71347SOL    HW215939  14.092   2.447   3.305
71348SOL     OW15940   2.458   0.618  10.896
71348SOL    HW115941   2.362   0.613  10.896
71348SOL    HW215942   2.477   0.712  10.887
71349SOL     OW15943   5.853   1.667   8.735
71349SOL    HW115944   5.867   1.580   8.697
71349SOL    HW215945   5.845   1.725   8.660
71350SOL     OW15946   5.736  13.684   9.856
71350SOL    HW115947   5.798  13.757   9.854
71350SOL    HW215948   5.750  13.642   9.940
71351SOL     OW15949  10.169   5.691   4.323
71351SOL    HW115950  10.150   5.643   4.242
71351SOL    HW215951  10.087   5.734   4.345
71352SOL     OW15952   6.675   6.694   1.214
71352SOL    HW115953   6.605   6.758   1.226
71352SOL    HW215954   6.632   6.618   1.174
71353SOL     OW15955   2.288   8.893  11.245
71353SOL    HW115956   2.279   8.799  11.259
71353SOL    HW215957   2.382   8.907  11.232
71354SOL     OW15958  14.209   1.553   0.656
71354SOL    HW115959  14.221   1.587   0.567
71354SOL    HW215960  14.298   1.547   0.691
71355SOL     OW15961   2.506   1.139   4.664
71355SOL    HW115962   2.540   1.213   4.715
71355SOL    HW215963   2.579   1.114   4.607
71356SOL     OW15964  12.255   1.799  13.789
71356SOL    HW115965  12.297   1.840  13.713
71356SOL    HW215966  12.298   1.840  13.864
71357SOL     OW15967  13.621   6.877   8.388
71357SOL    HW115968  13.610   6.962   8.431
71357SOL    HW215969  13.576   6.887   8.304
71358SOL     OW15970   6.537  14.800   6.178
71358SOL    HW115971   6.550  14.717   6.224
71358SOL    HW215972   6.549  14.779   6.086
71359SOL     OW15973   4.655   9.115  10.549
71359SOL    HW115974   4.726   9.065  10.508
71359SOL    HW215975   4.607   9.050  10.602
71360SOL     OW15976   7.618   9.041  11.015
71360SOL    HW115977   7.660   9.113  10.967
71360SOL    HW215978   7.558   9.086  11.075
71361SOL     OW15979  12.305  12.146  12.559
71361SOL    HW115980  12.215  12.125  12.533
71361SOL    HW215981  12.326  12.227  12.513
71362SOL     OW15982  12.466   1.818   4.687
71362SOL    HW115983  12.469   1.900   4.736
71362SOL    HW215984  12.459   1.844   4.596
71363SOL     OW15985   8.375   2.410   0.046
71363SOL    HW115986   8.329   2.336   0.086
71363SOL    HW215987   8.450   2.371   0.001
71364SOL     OW15988  14.168   5.323   3.851
71364SOL    HW115989  14.076   5.297   3.847
71364SOL    HW215990  14.209   5.260   3.910
71365SOL     OW15991  13.216   0.459   8.970
71365SOL    HW115992  13.137   0.486   9.018
71365SOL    HW215993  13.274   0.535   8.975
71366SOL     OW15994   4.851   1.429   1.643
71366SOL    HW115995   4.926   1.428   1.584
71366SOL    HW215996   4.851   1.342   1.683
71367SOL     OW15997   6.088   1.409   8.931
71367SOL    HW115998   5.993   1.394   8.931
71367SOL    HW215999   6.098   1.499   8.963
71368SOL     OW16000   8.489   7.587  14.819
71368SOL    HW116001   8.456   7.602  14.731
71368SOL    HW216002   8.412   7.564  14.871
71369SOL     OW16003  14.030  14.431  11.758
71369SOL    HW116004  14.100  14.373  11.727
71369SOL    HW216005  14.021  14.410  11.851
71370SOL     OW16006   7.698   5.196   3.363
71370SOL    HW116007   7.650   5.273   3.333
71370SOL    HW216008   7.647   5.122   3.331
71371SOL     OW16009   6.096   9.304   6.553
71371SOL    HW116010   6.149   9.380   6.530
71371SOL    HW216011   6.062   9.271   6.470
71372SOL     OW16012   1.311   7.557   7.404
71372SOL    HW116013   1.385   7.549   7.343
71372SOL    HW216014   1.351   7.585   7.486
71373SOL     OW16015   5.085   9.536   5.482
71373SOL    HW116016   5.096   9.550   5.388
71373SOL    HW216017   5.001   9.491   5.490
71374SOL     OW16018   1.837   9.812   5.319
71374SOL    HW116019   1.866   9.726   5.289
71374SOL    HW216020   1.748   9.797   5.350
71375SOL     OW16021   2.106  14.454  12.106
71375SOL    HW116022   2.119  14.360  12.088
71375SOL    HW216023   2.148  14.468  12.191
71376SOL     OW16024   4.495   8.719  10.180
71376SOL    HW116025   4.500   8.678  10.267
71376SOL    HW216026   4.582   8.706  10.143
71377SOL     OW16027   4.235   2.046   0.159
71377SOL    HW116028   4.268   2.053   0.070
71377SOL    HW216029   4.283   2.112   0.208
71378SOL     OW16030   7.280   6.092  12.886
71378SOL    HW116031   7.303   6.142  12.808
71378SOL    HW216032   7.322   6.007  12.873
71379SOL     OW16033  12.582   8.859   4.720
71379SOL    HW116034  12.659   8.838   4.667
71379SOL    HW216035  12.602   8.945   4.757
71380SOL     OW16036   9.575  11.044  13.935
71380SOL    HW116037   9.550  10.962  13.891
71380SOL    HW216038   9.585  11.020  14.027
71381SOL     OW16039   2.960   5.937  14.195
71381SOL    HW116040   2.908   6.017  14.209
71381SOL    HW216041   3.025   5.961  14.129
71382SOL     OW16042  12.248   2.892   1.861
71382SOL    HW116043  12.279   2.872   1.773
71382SOL    HW216044  12.157   2.919   1.848
71383SOL     OW16045   9.181   9.413   6.621
71383SOL    HW116046   9.147   9.502   6.624
71383SOL    HW216047   9.103   9.357   6.624
71384SOL     OW16048   3.014   7.723   3.661
71384SOL    HW116049   3.047   7.647   3.612
71384SOL    HW216050   2.975   7.779   3.594
71385SOL     OW16051   7.291   3.633   8.217
71385SOL    HW116052   7.357   3.621   8.285
71385SOL    HW216053   7.211   3.595   8.254
71386SOL     OW16054  13.010   2.235   6.246
71386SOL    HW116055  12.994   2.329   6.260
71386SOL    HW216056  13.035   2.202   6.332
71387SOL     OW16057   2.902   2.749   1.286
71387SOL    HW116058   2.896   2.779   1.377
71387SOL    HW216059   2.995   2.733   1.272
71388SOL     OW16060   8.884   3.987   8.178
71388SOL    HW116061   8.789   3.995   8.185
71388SOL    HW216062   8.901   3.895   8.199
71389SOL     OW16063   2.690   6.682  13.519
71389SOL    HW116064   2.681   6.590  13.496
71389SOL    HW216065   2.601   6.714  13.528
71390SOL     OW16066   2.713   1.311   2.367
71390SOL    HW116067   2.636   1.324   2.423
71390SOL    HW216068   2.787   1.344   2.420
71391SOL     OW16069  11.453   5.651   3.865
71391SOL    HW116070  11.524   5.627   3.924
71391SOL    HW216071  11.420   5.568   3.832
71392SOL     OW16072   3.283  11.717  12.478
71392SOL    HW116073   3.268  11.716  12.573
71392SOL    HW216074   3.377  11.704  12.469
71393SOL     OW16075  10.386  12.019   0.513
71393SOL    HW116076  10.362  11.928   0.494
71393SOL    HW216077  10.410  12.055   0.427
71394SOL     OW16078   9.811   3.032   9.278
71394SOL    HW116079   9.766   2.951   9.255
71394SOL    HW216080   9.765   3.100   9.229
71395SOL     OW16081   2.070   1.001   2.589
71395SOL    HW116082   2.018   0.955   2.523
71395SOL    HW216083   2.108   0.932   2.642
71396SOL     OW16084  10.997   5.117   4.937
71396SOL    HW116085  10.910   5.093   4.969
71396SOL    HW216086  10.989   5.113   4.841
71397SOL     OW16087   7.104   8.471   9.622
71397SOL    HW116088   7.140   8.556   9.600
71397SOL    HW216089   7.168   8.431   9.681
71398SOL     OW16090   9.559   4.007   4.954
71398SOL    HW116091   9.491   3.942   4.969
71398SOL    HW216092   9.516   4.076   4.904
71399SOL     OW16093   7.836  13.945   6.871
71399SOL    HW116094   7.782  14.022   6.891
71399SOL    HW216095   7.782  13.893   6.812
71400SOL     OW16096   4.553   7.511   2.264
71400SOL    HW116097   4.633   7.539   2.308
71400SOL    HW216098   4.505   7.463   2.331
71401SOL     OW16099   9.281  13.979   8.803
71401SOL    HW116100   9.191  13.973   8.833
71401SOL    HW216101   9.285  13.922   8.726
71402SOL     OW16102   1.814   7.741  12.625
71402SOL    HW116103   1.806   7.669  12.688
71402SOL    HW216104   1.838   7.698  12.543
71403SOL     OW16105   1.253   5.542  10.670
71403SOL    HW116106   1.201   5.616  10.701
71403SOL    HW216107   1.332   5.582  10.633
71404SOL     OW16108   4.953   3.588   3.548
71404SOL    HW116109   5.015   3.661   3.548
71404SOL    HW216110   4.890   3.610   3.480
71405SOL     OW16111   6.427  11.400   2.151
71405SOL    HW116112   6.430  11.323   2.094
71405SOL    HW216113   6.351  11.450   2.119
71406SOL     OW16114  10.935   1.453   2.046
71406SOL    HW116115  10.870   1.511   2.087
71406SOL    HW216116  10.975   1.408   2.120
71407SOL     OW16117  11.702  13.427   4.008
71407SOL    HW116118  11.760  13.351   4.019
71407SOL    HW216119  11.615  13.389   3.997
71408SOL     OW16120  13.014  11.519  13.002
71408SOL    HW116121  13.092  11.525  12.946
71408SOL    HW216122  12.982  11.430  12.990
71409SOL     OW16123   5.800  14.629   6.814
71409SOL    HW116124   5.881  14.662   6.774
71409SOL    HW216125   5.788  14.684   6.891
71410SOL     OW16126   5.657   2.388   3.251
71410SOL    HW116127   5.655   2.447   3.326
71410SOL    HW216128   5.624   2.304   3.286
71411SOL     OW16129  13.953  14.449   5.040
71411SOL    HW116130  14.009  14.526   5.051
71411SOL    HW216131  13.879  14.465   5.099
71412SOL     OW16132   4.041   9.026   9.162
71412SOL    HW116133   4.029   9.057   9.072
71412SOL    HW216134   4.116   9.076   9.195
71413SOL     OW16135  10.470  13.202   4.738
71413SOL    HW116136  10.558  13.164   4.732
71413SOL    HW216137  10.445  13.218   4.647
71414SOL     OW16138   6.514  11.145   5.017
71414SOL    HW116139   6.608  11.143   5.030
71414SOL    HW216140   6.502  11.127   4.924
71415SOL     OW16141  12.319   0.913   9.633
71415SOL    HW116142  12.301   0.909   9.727
71415SOL    HW216143  12.325   0.821   9.607
71416SOL     OW16144   4.060  12.873  13.508
71416SOL    HW116145   4.119  12.856  13.435
71416SOL    HW216146   4.108  12.933  13.565
71417SOL     OW16147   4.512   4.136  13.109
71417SOL    HW116148   4.417   4.128  13.121
71417SOL    HW216149   4.525   4.226  13.080
71418SOL     OW16150  10.843   4.762   7.996
71418SOL    HW116151  10.881   4.692   7.941
71418SOL    HW216152  10.877   4.843   7.958
71419SOL     OW16153   4.373   5.502  10.331
71419SOL    HW116154   4.406   5.560  10.262
71419SOL    HW216155   4.427   5.423  10.324
71420SOL     OW16156   5.258   8.342   7.624
71420SOL    HW116157   5.285   8.386   7.543
71420SOL    HW216158   5.163   8.349   7.625
71421SOL     OW16159   9.648  14.142   5.910
71421SOL    HW116160   9.734  14.139   5.868
71421SOL    HW216161   9.629  14.236   5.919
71422SOL     OW16162  13.898   3.568  14.488
71422SOL    HW116163  13.984   3.611  14.488
71422SOL    HW216164  13.895   3.523  14.403
71423SOL     OW16165   5.409  13.357   2.300
71423SOL    HW116166   5.338  13.334   2.239
71423SOL    HW216167   5.488  13.322   2.258
71424SOL     OW16168   2.282   2.548   6.511
71424SOL    HW116169   2.200   2.504   6.534
71424SOL    HW216170   2.254   2.627   6.464
71425SOL     OW16171  14.720  12.356   3.602
71425SOL    HW116172  14.668  12.286   3.642
71425SOL    HW216173  14.758  12.403   3.676
71426SOL     OW16174   9.587   9.066  13.684
71426SOL    HW116175   9.609   9.003  13.615
71426SOL    HW216176   9.511   9.113  13.650
71427SOL     OW16177  14.141  14.315  10.366
71427SOL    HW116178  14.216  14.375  10.366
71427SOL    HW216179  14.161  14.252  10.296
71428SOL     OW16180   5.905   1.736  13.831
71428SOL    HW116181   5.871   1.706  13.747
71428SOL    HW216182   5.957   1.663  13.864
71429SOL     OW16183   3.375  14.413   4.925
71429SOL    HW116184   3.305  14.409   4.860
71429SOL    HW216185   3.356  14.342   4.985
71430SOL     OW16186   9.334   1.602   2.065
71430SOL    HW116187   9.273   1.581   1.994
71430SOL    HW216188   9.325   1.529   2.126
71431SOL     OW16189   7.121   0.732   1.697
71431SOL    HW116190   7.109   0.821   1.664
71431SOL    HW216191   7.197   0.738   1.756
71432SOL     OW16192   4.401  13.661   2.612
71432SOL    HW116193   4.456  13.599   2.661
71432SOL    HW216194   4.323  13.671   2.666
71433SOL     OW16195   4.122  14.152   0.071
71433SOL    HW116196   4.142  14.119   0.158
71433SOL    HW216197   4.182  14.104   0.013
71434SOL     OW16198   3.056   8.773  14.088
71434SOL    HW116199   3.007   8.698  14.122
71434SOL    HW216200   3.069   8.829  14.165
71435SOL     OW16201   5.582   0.089   9.067
71435SOL    HW116202   5.631   0.037   9.130
71435SOL    HW216203   5.541   0.024   9.009
71436SOL     OW16204  12.224   5.968   5.650
71436SOL    HW116205  12.237   5.929   5.564
71436SOL    HW216206  12.223   5.893   5.710
71437SOL     OW16207   1.366   7.236   6.007
71437SOL    HW116208   1.326   7.288   6.077
71437SOL    HW216209   1.396   7.156   6.051
71438SOL     OW16210  12.644   6.582   0.157
71438SOL    HW116211  12.646   6.490   0.130
71438SOL    HW216212  12.639   6.631   0.076
71439SOL     OW16213  12.924   3.362  14.478
71439SOL    HW116214  12.967   3.412  14.409
71439SOL    HW216215  12.832   3.391  14.475
71440SOL     OW16216   0.323   1.659  11.093
71440SOL    HW116217   0.291   1.659  11.003
71440SOL    HW216218   0.354   1.748  11.108
71441SOL     OW16219   9.753   3.756   5.946
71441SOL    HW116220   9.674   3.766   5.893
71441SOL    HW216221   9.752   3.832   6.004
71442SOL     OW16222   0.899   1.459  12.124
71442SOL    HW116223   0.944   1.408  12.057
71442SOL    HW216224   0.826   1.501  12.078
71443SOL     OW16225   5.895   5.197   3.313
71443SOL    HW116226   5.839   5.235   3.380
71443SOL    HW216227   5.835   5.153   3.253
71444SOL     OW16228   6.786  14.315   3.029
71444SOL    HW116229   6.836  14.374   3.085
71444SOL    HW216230   6.730  14.374   2.978
71445SOL     OW16231  10.662   0.199   1.882
71445SOL    HW116232  10.689   0.289   1.896
71445SOL    HW216233  10.732   0.146   1.919
71446SOL     OW16234  13.431   6.441   4.876
71446SOL    HW116235  13.344   6.465   4.844
71446SOL    HW216236  13.451   6.507   4.942
71447SOL     OW16237  13.230   1.718  12.573
71447SOL    HW116238  13.257   1.776  12.645
71447SOL    HW216239  13.134   1.724  12.572
71448SOL     OW16240  10.484   1.241   8.225
71448SOL    HW116241  10.405   1.290   8.200
71448SOL    HW216242  10.523   1.215   8.142
71449SOL     OW16243   0.042   1.265   4.644
71449SOL    HW116244   0.070   1.282   4.554
71449SOL    HW216245   0.123   1.242   4.690
71450SOL     OW16246  14.875  11.987   6.283
71450SOL    HW116247  14.855  12.053   6.217
71450SOL    HW216248   0.088  12.008   6.313
71451SOL     OW16249  11.899  13.713   3.317
71451SOL    HW116250  11.950  13.638   3.348
71451SOL    HW216251  11.931  13.728   3.228
71452SOL     OW16252   9.384  12.152  12.390
71452SOL    HW116253   9.414  12.188  12.306
71452SOL    HW216254   9.302  12.109  12.369
71453SOL     OW16255  13.066   2.327   9.620
71453SOL    HW116256  12.979   2.308   9.653
71453SOL    HW216257  13.104   2.387   9.685
71454SOL     OW16258   5.372  10.812   9.795
71454SOL    HW116259   5.381  10.859   9.712
71454SOL    HW216260   5.461  10.802   9.827
71455SOL     OW16261   4.314  13.155   4.087
71455SOL    HW116262   4.332  13.214   4.014
71455SOL    HW216263   4.238  13.193   4.131
71456SOL     OW16264   8.841  14.531   4.622
71456SOL    HW116265   8.910  14.596   4.607
71456SOL    HW216266   8.848  14.471   4.548
71457SOL     OW16267   6.978   9.873  13.933
71457SOL    HW116268   6.897   9.824  13.916
71457SOL    HW216269   7.046   9.820  13.891
71458SOL     OW16270   1.870   2.857   6.296
71458SOL    HW116271   1.850   2.936   6.245
71458SOL    HW216272   1.877   2.887   6.386
71459SOL     OW16273   0.625   7.243  10.725
71459SOL    HW116274   0.591   7.281  10.806
71459SOL    HW216275   0.604   7.150  10.731
71460SOL     OW16276   4.274   5.723   7.696
71460SOL    HW116277   4.232   5.637   7.706
71460SOL    HW216278   4.277   5.758   7.785
71461SOL     OW16279   2.051   6.821   2.627
71461SOL    HW116280   2.120   6.768   2.667
71461SOL    HW216281   2.029   6.773   2.546
71462SOL     OW16282   3.581  10.946   6.144
71462SOL    HW116283   3.660  10.986   6.178
71462SOL    HW216284   3.612  10.871   6.093
71463SOL     OW16285  14.405   5.895  12.838
71463SOL    HW116286  14.418   5.881  12.744
71463SOL    HW216287  14.448   5.978  12.856
71464SOL     OW16288   8.869  10.109   0.073
71464SOL    HW116289   8.862  10.018   0.046
71464SOL    HW216290   8.879  10.158  14.867
71465SOL     OW16291   4.583   4.935   0.951
71465SOL    HW116292   4.533   4.939   1.032
71465SOL    HW216293   4.662   4.887   0.973
71466SOL     OW16294  13.181  14.624   7.431
71466SOL    HW116295  13.169  14.636   7.526
71466SOL    HW216296  13.113  14.561   7.407
71467SOL     OW16297   4.192   3.670  11.925
71467SOL    HW116298   4.269   3.662  11.982
71467SOL    HW216299   4.120   3.692  11.984
71468SOL     OW16300   0.413   2.100   8.796
71468SOL    HW116301   0.359   2.092   8.717
71468SOL    HW216302   0.502   2.083   8.765
71469SOL     OW16303   8.999   9.267  10.271
71469SOL    HW116304   8.924   9.226  10.228
71469SOL    HW216305   9.067   9.200  10.268
71470SOL     OW16306   7.162   0.168   0.035
71470SOL    HW116307   7.175   0.073   0.038
71470SOL    HW216308   7.071   0.181   0.058
71471SOL     OW16309   9.535  14.008   2.000
71471SOL    HW116310   9.482  13.934   1.973
71471SOL    HW216311   9.590  13.974   2.071
71472SOL     OW16312   7.141   3.159  10.427
71472SOL    HW116313   7.166   3.233  10.373
71472SOL    HW216314   7.123   3.089  10.365
71473SOL     OW16315   7.671  10.311   3.800
71473SOL    HW116316   7.766  10.319   3.801
71473SOL    HW216317   7.640  10.390   3.845
71474SOL     OW16318  14.114   2.997  12.933
71474SOL    HW116319  14.190   3.045  12.967
71474SOL    HW216320  14.082   2.947  13.008
71475SOL     OW16321  10.472   0.682  11.776
71475SOL    HW116322  10.384   0.702  11.745
71475SOL    HW216323  10.527   0.684  11.698
71476SOL     OW16324   4.232   3.824   3.224
71476SOL    HW116325   4.209   3.900   3.171
71476SOL    HW216326   4.317   3.846   3.262
71477SOL     OW16327   9.332  14.473  11.305
71477SOL    HW116328   9.390  14.517  11.243
71477SOL    HW216329   9.376  14.391  11.325
71478SOL     OW16330   0.170   0.450  10.931
71478SOL    HW116331   0.148   0.477  11.021
71478SOL    HW216332   0.134   0.519  10.876
71479SOL     OW16333  10.322  13.115   5.257
71479SOL    HW116334  10.414  13.090   5.264
71479SOL    HW216335  10.319  13.171   5.179
71480SOL     OW16336   9.158   6.516   1.909
71480SOL    HW116337   9.153   6.592   1.967
71480SOL    HW216338   9.133   6.442   1.964
71481SOL     OW16339   6.638   3.273   5.655
71481SOL    HW116340   6.708   3.309   5.710
71481SOL    HW216341   6.591   3.212   5.713
71482SOL     OW16342   3.138   7.562   5.025
71482SOL    HW116343   3.079   7.603   5.087
71482SOL    HW216344   3.225   7.591   5.051
71483SOL     OW16345   4.400  14.046  14.793
71483SOL    HW116346   4.472  14.080  14.845
71483SOL    HW216347   4.393  14.107  14.719
71484SOL     OW16348   3.192   4.271   5.728
71484SOL    HW116349   3.115   4.270   5.785
71484SOL    HW216350   3.243   4.194   5.755
71485SOL     OW16351  11.011   4.108  12.788
71485SOL    HW116352  11.014   4.154  12.872
71485SOL    HW216353  11.000   4.016  12.811
71486SOL     OW16354   6.737   2.725  14.293
71486SOL    HW116355   6.686   2.703  14.215
71486SOL    HW216356   6.700   2.808  14.323
71487SOL     OW16357   2.188   1.240  13.886
71487SOL    HW116358   2.158   1.329  13.868
71487SOL    HW216359   2.124   1.205  13.948
71488SOL     OW16360   5.067   3.127   2.487
71488SOL    HW116361   5.050   3.220   2.495
71488SOL    HW216362   5.161   3.118   2.507
71489SOL     OW16363   1.091   7.901  12.227
71489SOL    HW116364   1.051   7.960  12.291
71489SOL    HW216365   1.029   7.829  12.219
71490SOL     OW16366   7.910   9.971   4.555
71490SOL    HW116367   7.900   9.899   4.492
71490SOL    HW216368   8.004   9.990   4.555
71491SOL     OW16369  10.809  11.192  10.519
71491SOL    HW116370  10.819  11.166  10.611
71491SOL    HW216371  10.775  11.281  10.522
71492SOL     OW16372   2.827   9.548   1.219
71492SOL    HW116373   2.912   9.508   1.235
71492SOL    HW216374   2.776   9.481   1.173
71493SOL     OW16375   3.862  14.263   4.946
71493SOL    HW116376   3.850  14.230   4.857
71493SOL    HW216377   3.773  14.275   4.979
71494SOL     OW16378   7.438  11.271  14.632
71494SOL    HW116379   7.347  11.296  14.643
71494SOL    HW216380   7.453  11.204  14.698
71495SOL     OW16381   0.512   9.077   7.263
71495SOL    HW116382   0.577   9.075   7.334
71495SOL    HW216383   0.434   9.115   7.304
71496SOL     OW16384   8.906  11.903   6.770
71496SOL    HW116385   8.975  11.851   6.728
71496SOL    HW216386   8.883  11.969   6.705
71497SOL     OW16387   0.722   7.431   4.962
71497SOL    HW116388   0.703   7.421   5.055
71497SOL    HW216389   0.816   7.448   4.959
71498SOL     OW16390   4.983  14.569   9.432
71498SOL    HW116391   5.016  14.579   9.521
71498SOL    HW216392   5.011  14.481   9.406
71499SOL     OW16393  13.701  10.845   0.180
71499SOL    HW116394  13.702  10.817   0.089
71499SOL    HW216395  13.653  10.929   0.178
71500SOL     OW16396  12.965   9.916   2.677
71500SOL    HW116397  12.935   9.941   2.764
71500SOL    HW216398  12.968   9.821   2.678
71501SOL     OW16399   4.102  12.241   2.659
71501SOL    HW116400   4.040  12.304   2.623
71501SOL    HW216401   4.185  12.262   2.617
71502SOL     OW16402   5.214   7.265  10.769
71502SOL    HW116403   5.186   7.174  10.760
71502SOL    HW216404   5.265   7.267  10.849
71503SOL     OW16405   1.294   5.390  10.197
71503SOL    HW116406   1.208   5.420  10.167
71503SOL    HW216407   1.340   5.470  10.221
71504SOL     OW16408   2.831   2.755   1.571
71504SOL    HW116409   2.746   2.787   1.539
71504SOL    HW216410   2.815   2.735   1.663
71505SOL     OW16411   6.888   3.205  12.004
71505SOL    HW116412   6.826   3.140  12.036
71505SOL    HW216413   6.943   3.158  11.942
71506SOL     OW16414   4.900  14.372   8.821
71506SOL    HW116415   4.907  14.465   8.804
71506SOL    HW216416   4.827  14.343   8.767
71507SOL     OW16417   1.132  11.191  10.286
71507SOL    HW116418   1.102  11.266  10.337
71507SOL    HW216419   1.189  11.142  10.345
71508SOL     OW16420   1.112   7.916   7.298
71508SOL    HW116421   1.151   7.836   7.331
71508SOL    HW216422   1.019   7.910   7.321
71509SOL     OW16423   2.646  11.294   5.728
71509SOL    HW116424   2.655  11.386   5.751
71509SOL    HW216425   2.553  11.283   5.710
71510SOL     OW16426   6.237   6.336   2.726
71510SOL    HW116427   6.146   6.305   2.729
71510SOL    HW216428   6.289   6.258   2.709
71511SOL     OW16429   4.865   2.283   6.512
71511SOL    HW116430   4.880   2.189   6.516
71511SOL    HW216431   4.953   2.321   6.511
71512SOL     OW16432   9.188   6.263   2.658
71512SOL    HW116433   9.187   6.274   2.563
71512SOL    HW216434   9.234   6.340   2.691
71513SOL     OW16435  11.867  13.319   0.008
71513SOL    HW116436  11.827  13.405   0.001
71513SOL    HW216437  11.961  13.337   0.014
71514SOL     OW16438   1.876   0.808  13.806
71514SOL    HW116439   1.790   0.846  13.789
71514SOL    HW216440   1.892   0.824  13.899
71515SOL     OW16441   2.947  14.185   1.572
71515SOL    HW116442   2.877  14.189   1.506
71515SOL    HW216443   2.941  14.097   1.608
71516SOL     OW16444   5.955   7.182  13.174
71516SOL    HW116445   5.935   7.274  13.157
71516SOL    HW216446   5.898   7.134  13.113
71517SOL     OW16447   6.776   3.364   2.541
71517SOL    HW116448   6.844   3.302   2.564
71517SOL    HW216449   6.694   3.322   2.567
71518SOL     OW16450   9.395   7.569  10.331
71518SOL    HW116451   9.461   7.502  10.346
71518SOL    HW216452   9.407   7.631  10.403
71519SOL     OW16453   0.536  13.564   5.369
71519SOL    HW116454   0.575  13.621   5.303
71519SOL    HW216455   0.501  13.623   5.435
71520SOL     OW16456   0.697   3.704  11.072
71520SOL    HW116457   0.745   3.786  11.069
71520SOL    HW216458   0.621   3.718  11.015
71521SOL     OW16459   0.025   4.926   0.651
71521SOL    HW116460   0.072   4.929   0.568
71521SOL    HW216461  14.865   5.014   0.663
71522SOL     OW16462  10.799   5.534  14.790
71522SOL    HW116463  10.795   5.618  14.745
71522SOL    HW216464  10.891   5.523  14.813
71523SOL     OW16465   3.240  13.482   5.088
71523SOL    HW116466   3.215  13.571   5.061
71523SOL    HW216467   3.245  13.433   5.007
71524SOL     OW16468  10.403   8.890   9.800
71524SOL    HW116469  10.403   8.948   9.723
71524SOL    HW216470  10.355   8.812   9.770
71525SOL     OW16471  14.385   8.059  12.672
71525SOL    HW116472  14.385   8.150  12.703
71525SOL    HW216473  14.429   8.010  12.742
71526SOL     OW16474  10.070   3.145  14.124
71526SOL    HW116475  10.025   3.226  14.099
71526SOL    HW216476  10.159   3.174  14.147
71527SOL     OW16477   9.190   0.042  13.249
71527SOL    HW116478   9.151   0.027  13.335
71527SOL    HW216479   9.117   0.074  13.196
71528SOL     OW16480  13.558   8.470  12.996
71528SOL    HW116481  13.595   8.557  13.014
71528SOL    HW216482  13.466   8.487  12.974
71529SOL     OW16483  14.240   8.787   1.020
71529SOL    HW116484  14.300   8.716   0.997
71529SOL    HW216485  14.271   8.818   1.105
71530SOL     OW16486  12.307   0.649   9.600
71530SOL    HW116487  12.386   0.630   9.649
71530SOL    HW216488  12.306   0.584   9.530
71531SOL     OW16489   8.807  11.566   3.423
71531SOL    HW116490   8.826  11.613   3.505
71531SOL    HW216491   8.807  11.474   3.448
71532SOL     OW16492   0.059  11.056  12.527
71532SOL    HW116493   0.085  11.010  12.607
71532SOL    HW216494   0.102  11.141  12.533
71533SOL     OW16495  14.873   4.224   7.853
71533SOL    HW116496   0.083   4.259   7.825
71533SOL    HW216497   0.007   4.215   7.948
71534SOL     OW16498   8.681   7.913   6.147
71534SOL    HW116499   8.664   7.998   6.188
71534SOL    HW216500   8.653   7.924   6.056
71535SOL     OW16501   8.376  14.309   3.233
71535SOL    HW116502   8.470  14.314   3.251
71535SOL    HW216503   8.339  14.268   3.312
71536SOL     OW16504  10.202   3.733   9.698
71536SOL    HW116505  10.253   3.772   9.769
71536SOL    HW216506  10.141   3.673   9.742
71537SOL     OW16507  11.903  13.654  14.615
71537SOL    HW116508  11.873  13.572  14.576
71537SOL    HW216509  11.979  13.680  14.562
71538SOL     OW16510   7.023  12.160   3.089
71538SOL    HW116511   7.008  12.250   3.059
71538SOL    HW216512   7.022  12.166   3.185
71539SOL     OW16513  11.867   0.029   2.619
71539SOL    HW116514  11.863   0.077   2.536
71539SOL    HW216515  11.960   0.026   2.640
71540SOL     OW16516  12.039  12.485   4.715
71540SOL    HW116517  12.014  12.397   4.741
71540SOL    HW216518  12.090  12.519   4.788
71541SOL     OW16519  11.228   2.357   5.291
71541SOL    HW116520  11.225   2.261   5.288
71541SOL    HW216521  11.318   2.377   5.319
71542SOL     OW16522   2.562   8.976   9.292
71542SOL    HW116523   2.568   9.026   9.373
71542SOL    HW216524   2.556   8.884   9.320
71543SOL     OW16525   6.948   0.462  10.360
71543SOL    HW116526   6.934   0.526  10.429
71543SOL    HW216527   6.977   0.513  10.284
71544SOL     OW16528   4.117   2.590   6.969
71544SOL    HW116529   4.051   2.536   6.924
71544SOL    HW216530   4.109   2.566   7.061
71545SOL     OW16531   5.155  13.823   0.242
71545SOL    HW116532   5.211  13.900   0.249
71545SOL    HW216533   5.069  13.852   0.274
71546SOL     OW16534   9.689   8.672   9.417
71546SOL    HW116535   9.605   8.676   9.371
71546SOL    HW216536   9.728   8.589   9.389
71547SOL     OW16537   9.587  12.990  10.468
71547SOL    HW116538   9.494  12.975  10.481
71547SOL    HW216539   9.621  13.005  10.557
71548SOL     OW16540   2.397  11.897   8.096
71548SOL    HW116541   2.466  11.831   8.092
71548SOL    HW216542   2.383  11.911   8.189
71549SOL     OW16543  10.684   7.883   5.820
71549SOL    HW116544  10.645   7.806   5.861
71549SOL    HW216545  10.665   7.873   5.726
71550SOL     OW16546  12.647   0.405  14.287
71550SOL    HW116547  12.589   0.329  14.280
71550SOL    HW216548  12.735   0.367  14.292
71551SOL     OW16549   4.547  13.955   3.647
71551SOL    HW116550   4.464  13.999   3.663
71551SOL    HW216551   4.570  13.979   3.557
71552SOL     OW16552  11.436   2.290  10.185
71552SOL    HW116553  11.388   2.363  10.225
71552SOL    HW216554  11.466   2.324  10.101
71553SOL     OW16555  13.086   9.717  10.670
71553SOL    HW116556  13.156   9.653  10.684
71553SOL    HW216557  13.030   9.677  10.604
71554SOL     OW16558  14.285   7.780   1.290
71554SOL    HW116559  14.339   7.853   1.320
71554SOL    HW216560  14.318   7.760   1.202
71555SOL     OW16561   4.062  14.362   5.312
71555SOL    HW116562   4.025  14.418   5.380
71555SOL    HW216563   4.024  14.396   5.230
71556SOL     OW16564   1.158  12.479  11.670
71556SOL    HW116565   1.083  12.536  11.657
71556SOL    HW216566   1.234  12.536  11.658
71557SOL     OW16567   2.764   6.137  13.479
71557SOL    HW116568   2.700   6.143  13.408
71557SOL    HW216569   2.829   6.204  13.458
71558SOL     OW16570  10.183   2.774  11.565
71558SOL    HW116571  10.164   2.681  11.579
71558SOL    HW216572  10.151   2.792  11.476
71559SOL     OW16573   7.467   1.160   7.916
71559SOL    HW116574   7.453   1.121   8.003
71559SOL    HW216575   7.557   1.193   7.919
71560SOL     OW16576   8.793   5.953   3.090
71560SOL    HW116577   8.747   5.890   3.145
71560SOL    HW216578   8.725   5.994   3.038
71561SOL     OW16579   8.327   3.245   3.873
71561SOL    HW116580   8.322   3.301   3.796
71561SOL    HW216581   8.415   3.207   3.870
71562SOL     OW16582   8.431   2.798   6.329
71562SOL    HW116583   8.472   2.842   6.403
71562SOL    HW216584   8.416   2.868   6.265
71563SOL     OW16585   3.432   4.419   8.613
71563SOL    HW116586   3.447   4.326   8.594
71563SOL    HW216587   3.339   4.423   8.636
71564SOL     OW16588   7.033   2.139   5.433
71564SOL    HW116589   7.032   2.223   5.478
71564SOL    HW216590   6.989   2.078   5.492
71565SOL     OW16591   0.618   6.511   2.232
71565SOL    HW116592   0.563   6.480   2.160
71565SOL    HW216593   0.569   6.582   2.272
71566SOL     OW16594   7.122   4.502   3.271
71566SOL    HW116595   7.154   4.442   3.338
71566SOL    HW216596   7.094   4.446   3.199
71567SOL     OW16597  14.742   7.338  13.024
71567SOL    HW116598  14.655   7.376  13.030
71567SOL    HW216599  14.771   7.360  12.935
71568SOL     OW16600   8.890   1.900   1.726
71568SOL    HW116601   8.903   1.819   1.776
71568SOL    HW216602   8.867   1.871   1.638
71569SOL     OW16603   8.460   0.879   8.224
71569SOL    HW116604   8.493   0.874   8.314
71569SOL    HW216605   8.440   0.789   8.201
71570SOL     OW16606  12.914   9.229   7.168
71570SOL    HW116607  12.865   9.288   7.226
71570SOL    HW216608  12.927   9.279   7.088
71571SOL     OW16609  12.487   9.233  14.257
71571SOL    HW116610  12.443   9.155  14.225
71571SOL    HW216611  12.494   9.219  14.352
71572SOL     OW16612   9.224   6.228   2.396
71572SOL    HW116613   9.319   6.229   2.382
71572SOL    HW216614   9.188   6.258   2.312
71573SOL     OW16615   2.311  10.816  10.857
71573SOL    HW116616   2.373  10.873  10.811
71573SOL    HW216617   2.281  10.755  10.789
71574SOL     OW16618  12.749   9.812   3.246
71574SOL    HW116619  12.656   9.835   3.259
71574SOL    HW216620  12.783   9.799   3.335
71575SOL     OW16621   7.327  12.743   2.752
71575SOL    HW116622   7.334  12.702   2.838
71575SOL    HW216623   7.309  12.835   2.771
71576SOL     OW16624   0.281  12.002  12.101
71576SOL    HW116625   0.318  11.975  12.018
71576SOL    HW216626   0.323  11.945  12.166
71577SOL     OW16627  11.959   1.490   5.724
71577SOL    HW116628  11.893   1.425   5.749
71577SOL    HW216629  12.024   1.441   5.674
71578SOL     OW16630   2.606   6.145  11.333
71578SOL    HW116631   2.587   6.202  11.259
71578SOL    HW216632   2.583   6.198  11.410
71579SOL     OW16633  12.432   3.146   5.119
71579SOL    HW116634  12.429   3.220   5.057
71579SOL    HW216635  12.342   3.112   5.120
71580SOL     OW16636   8.662   1.895   8.792
71580SOL    HW116637   8.753   1.875   8.768
71580SOL    HW216638   8.668   1.936   8.879
71581SOL     OW16639   8.633  11.309   8.893
71581SOL    HW116640   8.677  11.283   8.973
71581SOL    HW216641   8.690  11.278   8.822
71582SOL     OW16642   2.921  13.544   3.928
71582SOL    HW116643   2.833  13.524   3.897
71582SOL    HW216644   2.968  13.572   3.849
71583SOL     OW16645   8.887  12.879   4.895
71583SOL    HW116646   8.850  12.889   4.983
71583SOL    HW216647   8.830  12.931   4.839
71584SOL     OW16648  14.651  12.849  12.534
71584SOL    HW116649  14.737  12.886  12.511
71584SOL    HW216650  14.644  12.863  12.628
71585SOL     OW16651  12.329   0.034  11.250
71585SOL    HW116652  12.252   0.007  11.300
71585SOL    HW216653  12.398   0.044  11.315
71586SOL     OW16654  14.026  11.229  10.220
71586SOL    HW116655  14.038  11.239  10.314
71586SOL    HW216656  14.010  11.317  10.188
71587SOL     OW16657   8.423  14.219  10.966
71587SOL    HW116658   8.361  14.291  10.979
71587SOL    HW216659   8.373  14.140  10.988
71588SOL     OW16660  10.705   9.933   8.255
71588SOL    HW116661  10.611   9.953   8.256
71588SOL    HW216662  10.709   9.839   8.275
71589SOL     OW16663  13.817   5.867   7.155
71589SOL    HW116664  13.850   5.902   7.237
71589SOL    HW216665  13.868   5.912   7.087
71590SOL     OW16666   4.391  11.600   1.280
71590SOL    HW116667   4.299  11.624   1.272
71590SOL    HW216668   4.438  11.669   1.232
71591SOL     OW16669   1.990   5.317   6.399
71591SOL    HW116670   1.989   5.412   6.386
71591SOL    HW216671   1.981   5.306   6.494
71592SOL     OW16672   9.233   3.882  13.291
71592SOL    HW116673   9.222   3.975  13.274
71592SOL    HW216674   9.325   3.865  13.271
71593SOL     OW16675  10.319   3.963  11.649
71593SOL    HW116676  10.280   4.039  11.605
71593SOL    HW216677  10.282   3.887  11.603
71594SOL     OW16678   8.654   3.788  13.851
71594SOL    HW116679   8.715   3.826  13.788
71594SOL    HW216680   8.611   3.863  13.891
71595SOL     OW16681  13.971  11.518   6.942
71595SOL    HW116682  14.022  11.590   6.981
71595SOL    HW216683  14.023  11.491   6.866
71596SOL     OW16684  11.158   4.516  11.151
71596SOL    HW116685  11.088   4.566  11.192
71596SOL    HW216686  11.214   4.582  11.110
71597SOL     OW16687   3.032   6.620   6.555
71597SOL    HW116688   2.970   6.623   6.628
71597SOL    HW216689   2.994   6.678   6.489
71598SOL     OW16690   0.051   1.716   6.109
71598SOL    HW116691  14.865   1.762   6.167
71598SOL    HW216692   0.107   1.785   6.074
71599SOL     OW16693  13.409   4.147  14.347
71599SOL    HW116694  13.405   4.099  14.430
71599SOL    HW216695  13.320   4.181  14.335
71600SOL     OW16696  12.698   9.301  10.740
71600SOL    HW116697  12.772   9.259  10.696
71600SOL    HW216698  12.654   9.350  10.671
71601SOL     OW16699   8.015  10.141   0.263
71601SOL    HW116700   8.089  10.164   0.206
71601SOL    HW216701   7.992  10.223   0.305
71602SOL     OW16702   5.306  10.011  13.620
71602SOL    HW116703   5.362  10.082  13.587
71602SOL    HW216704   5.355   9.973  13.693
71603SOL     OW16705   7.231   5.923   2.644
71603SOL    HW116706   7.234   5.841   2.595
71603SOL    HW216707   7.304   5.974   2.608
71604SOL     OW16708   8.225   4.771  12.741
71604SOL    HW116709   8.254   4.825  12.815
71604SOL    HW216710   8.297   4.776  12.678
71605SOL     OW16711   2.681   9.463  14.139
71605SOL    HW116712   2.590   9.489  14.149
71605SOL    HW216713   2.682   9.406  14.062
71606SOL     OW16714   3.488   5.841   1.024
71606SOL    HW116715   3.411   5.896   1.009
71606SOL    HW216716   3.516   5.815   0.936
71607SOL     OW16717  10.799  11.768   3.242
71607SOL    HW116718  10.782  11.859   3.263
71607SOL    HW216719  10.712  11.731   3.224
71608SOL     OW16720  11.111   0.288   6.179
71608SOL    HW116721  11.146   0.371   6.146
71608SOL    HW216722  11.164   0.268   6.256
71609SOL     OW16723  13.021  12.928  14.008
71609SOL    HW116724  12.951  12.992  14.000
71609SOL    HW216725  13.002  12.882  14.089
71610SOL     OW16726   3.522  10.867   2.704
71610SOL    HW116727   3.571  10.808   2.761
71610SOL    HW216728   3.443  10.888   2.753
71611SOL     OW16729  11.424   9.404   6.204
71611SOL    HW116730  11.408   9.321   6.159
71611SOL    HW216731  11.337   9.443   6.214
71612SOL     OW16732  10.323   6.558   2.000
71612SOL    HW116733  10.338   6.611   1.922
71612SOL    HW216734  10.383   6.594   2.065
71613SOL     OW16735  12.477   4.901   5.130
71613SOL    HW116736  12.401   4.872   5.182
71613SOL    HW216737  12.546   4.913   5.194
71614SOL     OW16738   6.879  12.689   3.714
71614SOL    HW116739   6.882  12.761   3.651
71614SOL    HW216740   6.870  12.610   3.660
71615SOL     OW16741   7.326  14.704  13.552
71615SOL    HW116742   7.292  14.646  13.620
71615SOL    HW216743   7.367  14.776  13.600
71616SOL     OW16744   1.259   1.791   5.819
71616SOL    HW116745   1.200   1.758   5.887
71616SOL    HW216746   1.202   1.812   5.745
71617SOL     OW16747   3.573   6.413  11.915
71617SOL    HW116748   3.516   6.481  11.878
71617SOL    HW216749   3.540   6.401  12.004
71618SOL     OW16750   8.281   2.623   9.028
71618SOL    HW116751   8.317   2.643   9.114
71618SOL    HW216752   8.243   2.706   8.998
71619SOL     OW16753   4.892  14.825  14.675
71619SOL    HW116754   4.842  14.841  14.755
71619SOL    HW216755   4.893  14.730  14.666
71620SOL     OW16756   4.659  11.765  12.540
71620SOL    HW116757   4.643  11.822  12.465
71620SOL    HW216758   4.754  11.755  12.543
71621SOL     OW16759  10.460   2.622   8.341
71621SOL    HW116760  10.549   2.592   8.324
71621SOL    HW216761  10.431   2.570   8.416
71622SOL     OW16762   0.142   2.914  11.519
71622SOL    HW116763   0.119   2.873  11.436
71622SOL    HW216764   0.232   2.946  11.507
71623SOL     OW16765   8.536   6.839   9.869
71623SOL    HW116766   8.629   6.860   9.859
71623SOL    HW216767   8.536   6.755   9.915
71624SOL     OW16768  13.693  14.838   8.572
71624SOL    HW116769  13.677   0.042   8.522
71624SOL    HW216770  13.765  14.794   8.527
71625SOL     OW16771   8.402  10.838  10.458
71625SOL    HW116772   8.459  10.770  10.422
71625SOL    HW216773   8.341  10.791  10.515
71626SOL     OW16774   6.324   7.727   6.195
71626SOL    HW116775   6.246   7.721   6.139
71626SOL    HW216776   6.307   7.663   6.265
71627SOL     OW16777   4.150   2.903   6.295
71627SOL    HW116778   4.183   2.834   6.352
71627SOL    HW216779   4.210   2.976   6.310
71628SOL     OW16780   6.065   2.630  11.808
71628SOL    HW116781   6.071   2.611  11.902
71628SOL    HW216782   6.156   2.634  11.778
71629SOL     OW16783   6.863   7.145  14.812
71629SOL    HW116784   6.899   7.194  14.738
71629SOL    HW216785   6.814   7.073  14.772
71630SOL     OW16786   2.217   9.326   7.484
71630SOL    HW116787   2.227   9.345   7.390
71630SOL    HW216788   2.147   9.262   7.488
71631SOL     OW16789   9.362   6.125   4.207
71631SOL    HW116790   9.411   6.050   4.241
71631SOL    HW216791   9.399   6.200   4.253
71632SOL     OW16792  13.143  12.124   0.293
71632SOL    HW116793  13.157  12.053   0.230
71632SOL    HW216794  13.110  12.080   0.372
71633SOL     OW16795   2.261  11.584   2.071
71633SOL    HW116796   2.182  11.599   2.123
71633SOL    HW216797   2.319  11.533   2.129
71634SOL     OW16798   0.570   1.404   4.817
71634SOL    HW116799   0.642   1.458   4.785
71634SOL    HW216800   0.495   1.429   4.762
71635SOL     OW16801   8.615   5.983   2.296
71635SOL    HW116802   8.547   5.994   2.362
71635SOL    HW216803   8.628   6.070   2.259
71636SOL     OW16804   3.281   0.834   5.040
71636SOL    HW116805   3.271   0.900   5.108
71636SOL    HW216806   3.307   0.883   4.962
71637SOL     OW16807  13.021   6.806   3.608
71637SOL    HW116808  12.976   6.861   3.672
71637SOL    HW216809  12.967   6.811   3.530
71638SOL     OW16810  12.270   3.964   8.255
71638SOL    HW116811  12.249   3.981   8.163
71638SOL    HW216812  12.220   3.885   8.276
71639SOL     OW16813   8.120  12.567   9.987
71639SOL    HW116814   8.145  12.644  10.038
71639SOL    HW216815   8.025  12.561   9.997
71640SOL     OW16816   2.082   8.593  14.072
71640SOL    HW116817   2.139   8.636  14.009
71640SOL    HW216818   2.139   8.531  14.118
71641SOL     OW16819  12.328  14.201   2.431
71641SOL    HW116820  12.257  14.143   2.403
71641SOL    HW216821  12.285  14.286   2.445
71642SOL     OW16822   7.525  10.798   8.075
71642SOL    HW116823   7.580  10.871   8.104
71642SOL    HW216824   7.564  10.771   7.992
71643SOL     OW16825   2.668  10.949  12.057
71643SOL    HW116826   2.756  10.929  12.091
71643SOL    HW216827   2.640  10.868  12.014
71644SOL     OW16828  11.357  14.764   5.078
71644SOL    HW116829  11.399  14.679   5.088
71644SOL    HW216830  11.321  14.763   4.989
71645SOL     OW16831  13.227   9.521  11.429
71645SOL    HW116832  13.163   9.452  11.413
71645SOL    HW216833  13.200   9.559  11.513
71646SOL     OW16834  10.421   6.532   2.371
71646SOL    HW116835  10.387   6.460   2.423
71646SOL    HW216836  10.475   6.582   2.433
71647SOL     OW16837  10.051   3.900   5.870
71647SOL    HW116838  10.118   3.966   5.886
71647SOL    HW216839   9.989   3.942   5.810
71648SOL     OW16840   1.345   7.608   4.738
71648SOL    HW116841   1.325   7.626   4.647
71648SOL    HW216842   1.334   7.513   4.748
71649SOL     OW16843  10.076  13.851   6.854
71649SOL    HW116844  10.112  13.814   6.935
71649SOL    HW216845   9.989  13.812   6.846
71650SOL     OW16846   3.934   9.713   8.477
71650SOL    HW116847   3.936   9.787   8.538
71650SOL    HW216848   3.844   9.709   8.446
71651SOL     OW16849  13.523   2.146   3.228
71651SOL    HW116850  13.500   2.069   3.177
71651SOL    HW216851  13.615   2.133   3.252
71652SOL     OW16852  10.611   0.300   4.565
71652SOL    HW116853  10.677   0.350   4.613
71652SOL    HW216854  10.554   0.367   4.526
71653SOL     OW16855  10.826  13.417  10.056
71653SOL    HW116856  10.867  13.427   9.970
71653SOL    HW216857  10.740  13.380  10.038
71654SOL     OW16858  14.467   9.690   1.355
71654SOL    HW116859  14.488   9.677   1.262
71654SOL    HW216860  14.384   9.738   1.354
71655SOL     OW16861  10.298   8.341  13.860
71655SOL    HW116862  10.313   8.264  13.806
71655SOL    HW216863  10.372   8.399  13.840
71656SOL     OW16864   3.105  14.380  10.452
71656SOL    HW116865   3.116  14.340  10.366
71656SOL    HW216866   3.012  14.368  10.472
71657SOL     OW16867   6.416   5.103   5.979
71657SOL    HW116868   6.395   5.021   5.935
71657SOL    HW216869   6.460   5.156   5.912
71658SOL     OW16870  14.352   2.639   6.530
71658SOL    HW116871  14.436   2.599   6.553
71658SOL    HW216872  14.374   2.707   6.467
71659SOL     OW16873  11.321  11.967  12.158
71659SOL    HW116874  11.258  11.959  12.230
71659SOL    HW216875  11.402  11.997  12.200
71660SOL     OW16876  14.456   8.127   2.455
71660SOL    HW116877  14.472   8.039   2.419
71660SOL    HW216878  14.390   8.165   2.397
71661SOL     OW16879  10.489  12.742   0.532
71661SOL    HW116880  10.505  12.648   0.528
71661SOL    HW216881  10.508  12.774   0.444
71662SOL     OW16882  13.072   6.867   1.337
71662SOL    HW116883  13.032   6.890   1.420
71662SOL    HW216884  13.033   6.782   1.314
71663SOL     OW16885   4.187   0.254  10.057
71663SOL    HW116886   4.153   0.323  10.115
71663SOL    HW216887   4.136   0.263   9.977
71664SOL     OW16888  13.821  12.434  11.832
71664SOL    HW116889  13.869  12.516  11.824
71664SOL    HW216890  13.886  12.365  11.818
71665SOL     OW16891  12.817   9.164   5.269
71665SOL    HW116892  12.888   9.224   5.246
71665SOL    HW216893  12.841   9.081   5.228
71666SOL     OW16894   7.796   9.571   9.905
71666SOL    HW116895   7.776   9.662   9.927
71666SOL    HW216896   7.888   9.560   9.929
71667SOL     OW16897  10.146   4.831  12.625
71667SOL    HW116898  10.200   4.900  12.663
71667SOL    HW216899  10.056   4.852  12.653
71668SOL     OW16900   8.271  14.608   8.392
71668SOL    HW116901   8.292  14.517   8.412
71668SOL    HW216902   8.250  14.608   8.299
71669SOL     OW16903   2.878  14.592   1.767
71669SOL    HW116904   2.897  14.679   1.802
71669SOL    HW216905   2.783  14.590   1.757
71670SOL     OW16906  14.742   6.732  13.911
71670SOL    HW116907  14.682   6.663  13.884
71670SOL    HW216908  14.707   6.762  13.995
71671SOL     OW16909  13.962   9.254  13.404
71671SOL    HW116910  13.934   9.318  13.470
71671SOL    HW216911  13.907   9.177  13.421
71672SOL     OW16912   5.231  13.930   8.697
71672SOL    HW116913   5.217  14.006   8.754
71672SOL    HW216914   5.318  13.898   8.721
71673SOL     OW16915   4.526   8.297  14.138
71673SOL    HW116916   4.474   8.314  14.217
71673SOL    HW216917   4.517   8.377  14.086
71674SOL     OW16918  10.856  14.437   1.392
71674SOL    HW116919  10.832  14.370   1.328
71674SOL    HW216920  10.796  14.422   1.466
71675SOL     OW16921  11.764   1.703   2.617
71675SOL    HW116922  11.800   1.647   2.549
71675SOL    HW216923  11.832   1.767   2.636
71676SOL     OW16924   7.883  10.426   4.290
71676SOL    HW116925   7.942  10.427   4.365
71676SOL    HW216926   7.918  10.491   4.229
71677SOL     OW16927   2.770   5.623   9.882
71677SOL    HW116928   2.735   5.704   9.919
71677SOL    HW216929   2.693   5.577   9.849
71678SOL     OW16930  12.898  10.949   7.485
71678SOL    HW116931  12.854  10.867   7.466
71678SOL    HW216932  12.833  11.002   7.531
71679SOL     OW16933  14.317   9.405   8.901
71679SOL    HW116934  14.357   9.343   8.961
71679SOL    HW216935  14.392   9.448   8.858
71680SOL     OW16936  14.205   2.494   9.169
71680SOL    HW116937  14.251   2.496   9.253
71680SOL    HW216938  14.118   2.461   9.191
71681SOL     OW16939   6.683  10.328   1.294
71681SOL    HW116940   6.636  10.372   1.223
71681SOL    HW216941   6.744  10.393   1.327
71682SOL     OW16942  14.735   2.619   0.464
71682SOL    HW116943  14.724   2.712   0.486
71682SOL    HW216944  14.803   2.589   0.525
71683SOL     OW16945   5.985   2.021   4.352
71683SOL    HW116946   6.070   2.066   4.355
71683SOL    HW216947   6.002   1.935   4.392
71684SOL     OW16948   2.931   8.504   9.474
71684SOL    HW116949   2.843   8.482   9.445
71684SOL    HW216950   2.923   8.592   9.512
71685SOL     OW16951   0.937   4.111  12.887
71685SOL    HW116952   0.856   4.109  12.836
71685SOL    HW216953   0.969   4.201  12.878
71686SOL     OW16954   2.033   5.813   5.368
71686SOL    HW116955   1.940   5.819   5.388
71686SOL    HW216956   2.046   5.722   5.341
71687SOL     OW16957  12.768  13.370  10.011
71687SOL    HW116958  12.696  13.429  10.031
71687SOL    HW216959  12.739  13.284  10.042
71688SOL     OW16960   9.907  13.701  11.062
71688SOL    HW116961   9.999  13.725  11.076
71688SOL    HW216962   9.862  13.731  11.142
71689SOL     OW16963   9.294   6.799   8.017
71689SOL    HW116964   9.297   6.863   7.946
71689SOL    HW216965   9.238   6.729   7.983
71690SOL     OW16966   1.699   5.836   2.990
71690SOL    HW116967   1.695   5.887   3.071
71690SOL    HW216968   1.768   5.772   3.005
71691SOL     OW16969   1.129   0.745   3.116
71691SOL    HW116970   1.060   0.709   3.173
71691SOL    HW216971   1.112   0.839   3.115
71692SOL     OW16972  12.814  14.221   3.570
71692SOL    HW116973  12.848  14.285   3.633
71692SOL    HW216974  12.827  14.136   3.613
71693SOL     OW16975   1.119   5.303  10.758
71693SOL    HW116976   1.107   5.311  10.853
71693SOL    HW216977   1.167   5.382  10.733
71694SOL     OW16978   1.546   3.756   2.382
71694SOL    HW116979   1.542   3.715   2.468
71694SOL    HW216980   1.455   3.759   2.353
71695SOL     OW16981  14.211  12.627  12.699
71695SOL    HW116982  14.143  12.581  12.748
71695SOL    HW216983  14.176  12.716  12.686
71696SOL     OW16984   2.975   3.480   0.412
71696SOL    HW116985   3.012   3.488   0.324
71696SOL    HW216986   2.903   3.417   0.402
71697SOL     OW16987   7.760  13.819   2.143
71697SOL    HW116988   7.839  13.814   2.197
71697SOL    HW216989   7.792  13.845   2.057
71698SOL     OW16990   4.739   1.381   8.926
71698SOL    HW116991   4.741   1.418   9.015
71698SOL    HW216992   4.693   1.297   8.937
71699SOL     OW16993   4.952  11.936   0.611
71699SOL    HW116994   4.876  11.994   0.603
71699SOL    HW216995   4.916  11.855   0.647
71700SOL     OW16996  11.765   9.154   3.801
71700SOL    HW116997  11.815   9.136   3.880
71700SOL    HW216998  11.805   9.098   3.734
71701SOL     OW16999   3.885   2.196   2.122
71701SOL    HW117000   3.972   2.171   2.152
71701SOL    HW217001   3.827   2.131   2.163
71702SOL     OW17002   0.919   4.067   0.958
71702SOL    HW117003   0.908   4.062   1.053
71702SOL    HW217004   0.841   4.112   0.926
71703SOL     OW17005   2.633  12.321   6.883
71703SOL    HW117006   2.651  12.314   6.790
71703SOL    HW217007   2.584  12.242   6.905
71704SOL     OW17008  14.556   1.697  13.332
71704SOL    HW117009  14.522   1.689  13.243
71704SOL    HW217010  14.575   1.607  13.359
71705SOL     OW17011   4.055  14.656   7.544
71705SOL    HW117012   4.057  14.567   7.578
71705SOL    HW217013   4.033  14.711   7.620
71706SOL     OW17014   6.236   7.805   0.321
71706SOL    HW117015   6.297   7.794   0.248
71706SOL    HW217016   6.268   7.882   0.368
71707SOL     OW17017   5.365   7.478  14.608
71707SOL    HW117018   5.297   7.428  14.561
71707SOL    HW217019   5.414   7.521  14.538
71708SOL     OW17020   1.136  13.688   2.122
71708SOL    HW117021   1.053  13.661   2.161
71708SOL    HW217022   1.145  13.780   2.146
71709SOL     OW17023   0.886   2.681   4.190
71709SOL    HW117024   0.799   2.715   4.172
71709SOL    HW217025   0.937   2.756   4.219
71710SOL     OW17026   4.110   7.578   8.447
71710SOL    HW117027   4.201   7.574   8.477
71710SOL    HW217028   4.069   7.644   8.503
71711SOL     OW17029   4.837  13.988  10.733
71711SOL    HW117030   4.745  13.972  10.716
71711SOL    HW217031   4.838  14.049  10.807
71712SOL     OW17032   8.335   3.622   9.598
71712SOL    HW117033   8.349   3.690   9.532
71712SOL    HW217034   8.368   3.662   9.679
71713SOL     OW17035   7.772   2.743   0.958
71713SOL    HW117036   7.759   2.766   1.050
71713SOL    HW217037   7.828   2.813   0.924
71714SOL     OW17038   0.669   3.893  14.209
71714SOL    HW117039   0.652   3.953  14.136
71714SOL    HW217040   0.645   3.807  14.175
71715SOL     OW17041  10.703   5.189   7.462
71715SOL    HW117042  10.667   5.154   7.543
71715SOL    HW217043  10.748   5.115   7.422
71716SOL     OW17044  12.131   0.547   3.921
71716SOL    HW117045  12.137   0.487   3.996
71716SOL    HW217046  12.121   0.489   3.845
71717SOL     OW17047   6.297   6.872   7.498
71717SOL    HW117048   6.281   6.934   7.427
71717SOL    HW217049   6.300   6.786   7.455
71718SOL     OW17050   1.113   3.678  13.579
71718SOL    HW117051   1.033   3.725  13.600
71718SOL    HW217052   1.122   3.687  13.484
71719SOL     OW17053  14.532  10.268  13.368
71719SOL    HW117054  14.534  10.325  13.445
71719SOL    HW217055  14.601  10.203  13.384
71720SOL     OW17056  13.023  14.074   3.368
71720SOL    HW117057  12.959  14.055   3.436
71720SOL    HW217058  13.098  14.111   3.414
71721SOL     OW17059   7.676   2.809   3.021
71721SOL    HW117060   7.588   2.779   3.000
71721SOL    HW217061   7.698   2.763   3.102
71722SOL     OW17062  12.182   2.693   8.589
71722SOL    HW117063  12.153   2.779   8.561
71722SOL    HW217064  12.254   2.672   8.529
71723SOL     OW17065  11.192   0.664   8.355
71723SOL    HW117066  11.277   0.681   8.395
71723SOL    HW217067  11.176   0.739   8.299
71724SOL     OW17068   5.189  10.498   1.705
71724SOL    HW117069   5.106  10.500   1.753
71724SOL    HW217070   5.204  10.590   1.680
71725SOL     OW17071   4.491   3.939   1.978
71725SOL    HW117072   4.538   4.005   1.928
71725SOL    HW217073   4.404   3.936   1.939
71726SOL     OW17074   5.505  14.657  10.776
71726SOL    HW117075   5.527  14.700  10.858
71726SOL    HW217076   5.422  14.612  10.793
71727SOL     OW17077   1.647   3.179   4.204
71727SOL    HW117078   1.612   3.258   4.163
71727SOL    HW217079   1.604   3.107   4.157
71728SOL     OW17080   0.898   1.593   5.419
71728SOL    HW117081   0.939   1.557   5.339
71728SOL    HW217082   0.816   1.630   5.389
71729SOL     OW17083   1.629  14.225   3.613
71729SOL    HW117084   1.695  14.224   3.544
71729SOL    HW217085   1.549  14.254   3.568
71730SOL     OW17086  13.835  10.744  12.327
71730SOL    HW117087  13.882  10.661  12.315
71730SOL    HW217088  13.812  10.772  12.239
71731SOL     OW17089  14.566  13.666  13.473
71731SOL    HW117090  14.659  13.653  13.455
71731SOL    HW217091  14.562  13.750  13.519
71732SOL     OW17092  11.481  14.851   3.428
71732SOL    HW117093  11.548  14.862   3.495
71732SOL    HW217094  11.445  14.763   3.443
71733SOL     OW17095   4.453   5.143   2.064
71733SOL    HW117096   4.453   5.141   1.968
71733SOL    HW217097   4.364   5.167   2.088
71734SOL     OW17098   5.951   3.064   2.296
71734SOL    HW117099   6.022   3.005   2.273
71734SOL    HW217100   5.925   3.036   2.384
71735SOL     OW17101   7.126   0.629   6.767
71735SOL    HW117102   7.194   0.562   6.774
71735SOL    HW217103   7.154   0.697   6.829
71736SOL     OW17104   5.074   6.621   6.264
71736SOL    HW117105   4.979   6.622   6.274
71736SOL    HW217106   5.108   6.627   6.353
71737SOL     OW17107   1.788  12.235   6.143
71737SOL    HW117108   1.752  12.231   6.232
71737SOL    HW217109   1.715  12.267   6.090
71738SOL     OW17110  14.555  13.455   5.782
71738SOL    HW117111  14.471  13.497   5.802
71738SOL    HW217112  14.558  13.380   5.841
71739SOL     OW17113   5.442   8.901   3.600
71739SOL    HW117114   5.455   8.822   3.652
71739SOL    HW217115   5.531   8.929   3.576
71740SOL     OW17116   4.156   0.574   2.444
71740SOL    HW117117   4.095   0.512   2.403
71740SOL    HW217118   4.211   0.520   2.501
71741SOL     OW17119  11.120   1.668  10.802
71741SOL    HW117120  11.155   1.744  10.849
71741SOL    HW217121  11.107   1.602  10.870
71742SOL     OW17122   3.690  11.541   0.492
71742SOL    HW117123   3.598  11.567   0.494
71742SOL    HW217124   3.698  11.489   0.412
71743SOL     OW17125   9.364  11.035   5.226
71743SOL    HW117126   9.349  11.097   5.156
71743SOL    HW217127   9.320  11.073   5.303
71744SOL     OW17128   2.760   3.079   9.571
71744SOL    HW117129   2.767   2.998   9.622
71744SOL    HW217130   2.769   3.051   9.480
71745SOL     OW17131   5.328   7.737   5.777
71745SOL    HW117132   5.273   7.658   5.779
71745SOL    HW217133   5.416   7.706   5.795
71746SOL     OW17134   2.742   7.672   3.003
71746SOL    HW117135   2.735   7.599   2.942
71746SOL    HW217136   2.665   7.726   2.985
71747SOL     OW17137   5.688   9.631   7.379
71747SOL    HW117138   5.619   9.667   7.435
71747SOL    HW217139   5.667   9.539   7.370
71748SOL     OW17140   2.268   1.065  14.369
71748SOL    HW117141   2.198   1.014  14.411
71748SOL    HW217142   2.316   1.001  14.316
71749SOL     OW17143   9.601   8.016   6.779
71749SOL    HW117144   9.621   8.030   6.871
71749SOL    HW217145   9.650   8.084   6.733
71750SOL     OW17146  12.132   3.790   1.292
71750SOL    HW117147  12.107   3.742   1.372
71750SOL    HW217148  12.119   3.882   1.314
71751SOL     OW17149   7.850   9.371  10.126
71751SOL    HW117150   7.888   9.285  10.142
71751SOL    HW217151   7.904   9.408  10.056
71752SOL     OW17152   4.541  10.877  12.190
71752SOL    HW117153   4.585  10.880  12.105
71752SOL    HW217154   4.489  10.958  12.192
71753SOL     OW17155   0.867  10.512  14.753
71753SOL    HW117156   0.850  10.532  14.845
71753SOL    HW217157   0.910  10.590  14.719
71754SOL     OW17158   5.275   3.484   6.545
71754SOL    HW117159   5.323   3.562   6.516
71754SOL    HW217160   5.339   3.432   6.593
71755SOL     OW17161  10.072   2.181   2.489
71755SOL    HW117162   9.994   2.228   2.518
71755SOL    HW217163  10.040   2.094   2.465
71756SOL     OW17164   6.818   9.633   9.637
71756SOL    HW117165   6.833   9.638   9.543
71756SOL    HW217166   6.756   9.562   9.648
71757SOL     OW17167   5.555   7.741  10.977
71757SOL    HW117168   5.648   7.763  10.984
71757SOL    HW217169   5.545   7.661  11.029
71758SOL     OW17170   3.544  12.739  13.510
71758SOL    HW117171   3.575  12.829  13.495
71758SOL    HW217172   3.450  12.744  13.495
71759SOL     OW17173  14.645   9.509  13.439
71759SOL    HW117174  14.662   9.545  13.526
71759SOL    HW217175  14.592   9.576  13.396
71760SOL     OW17176   4.089  12.007   3.076
71760SOL    HW117177   4.146  12.070   3.031
71760SOL    HW217178   4.120  12.007   3.166
71761SOL     OW17179   0.074   5.858  14.546
71761SOL    HW117180   0.113   5.936  14.509
71761SOL    HW217181   0.105   5.786  14.491
71762SOL     OW17182  11.925   7.315  13.647
71762SOL    HW117183  12.001   7.270  13.611
71762SOL    HW217184  11.959   7.368  13.718
71763SOL     OW17185   1.576   3.362   8.554
71763SOL    HW117186   1.640   3.344   8.622
71763SOL    HW217187   1.575   3.283   8.500
71764SOL     OW17188   5.744   3.208  11.073
71764SOL    HW117189   5.770   3.116  11.067
71764SOL    HW217190   5.650   3.207  11.059
71765SOL     OW17191  14.087   5.835  11.339
71765SOL    HW117192  14.178   5.843  11.366
71765SOL    HW217193  14.091   5.825  11.243
71766SOL     OW17194   8.173   4.195  14.751
71766SOL    HW117195   8.091   4.212  14.704
71766SOL    HW217196   8.146   4.153  14.832
71767SOL     OW17197  12.659   0.150  12.508
71767SOL    HW117198  12.749   0.161  12.538
71767SOL    HW217199  12.606   0.158  12.588
71768SOL     OW17200  11.494   4.688  10.367
71768SOL    HW117201  11.541   4.769  10.352
71768SOL    HW217202  11.521   4.659  10.454
71769SOL     OW17203   1.821  11.046   8.501
71769SOL    HW117204   1.728  11.050   8.481
71769SOL    HW217205   1.844  11.135   8.529
71770SOL     OW17206  11.125  10.166   1.860
71770SOL    HW117207  11.138  10.149   1.953
71770SOL    HW217208  11.213  10.185   1.827
71771SOL     OW17209  11.156   3.806   7.613
71771SOL    HW117210  11.245   3.827   7.642
71771SOL    HW217211  11.134   3.726   7.661
71772SOL     OW17212   2.771  11.620   5.233
71772SOL    HW117213   2.796  11.679   5.304
71772SOL    HW217214   2.707  11.669   5.182
71773SOL     OW17215  10.671   0.278   9.479
71773SOL    HW117216  10.756   0.318   9.500
71773SOL    HW217217  10.634   0.333   9.411
71774SOL     OW17218   6.687  13.542  11.810
71774SOL    HW117219   6.668  13.585  11.893
71774SOL    HW217220   6.771  13.500  11.824
71775SOL     OW17221  12.694   8.634   9.484
71775SOL    HW117222  12.779   8.659   9.521
71775SOL    HW217223  12.713   8.616   9.392
71776SOL     OW17224  13.035  11.487  12.134
71776SOL    HW117225  13.077  11.569  12.107
71776SOL    HW217226  13.105  11.436  12.175
71777SOL     OW17227  14.096  14.426   9.923
71777SOL    HW117228  14.011  14.405   9.884
71777SOL    HW217229  14.119  14.349   9.974
71778SOL     OW17230  13.980   1.682   3.790
71778SOL    HW117231  13.975   1.592   3.757
71778SOL    HW217232  13.950   1.736   3.717
71779SOL     OW17233  11.779  12.755   6.245
71779SOL    HW117234  11.828  12.824   6.200
71779SOL    HW217235  11.771  12.786   6.335
71780SOL     OW17236   1.354  14.739   5.001
71780SOL    HW117237   1.398  14.793   5.066
71780SOL    HW217238   1.307  14.802   4.946
71781SOL     OW17239   9.639   3.453   7.633
71781SOL    HW117240   9.547   3.447   7.658
71781SOL    HW217241   9.642   3.523   7.567
71782SOL     OW17242   4.346   0.958  10.492
71782SOL    HW117243   4.341   1.045  10.532
71782SOL    HW217244   4.353   0.975  10.398
71783SOL     OW17245   1.091  14.525   7.861
71783SOL    HW117246   1.128  14.546   7.946
71783SOL    HW217247   1.097  14.430   7.855
71784SOL     OW17248   9.748   8.266   4.552
71784SOL    HW117249   9.663   8.222   4.559
71784SOL    HW217250   9.753   8.323   4.628
71785SOL     OW17251   5.340  11.150   5.466
71785SOL    HW117252   5.383  11.195   5.393
71785SOL    HW217253   5.247  11.171   5.456
71786SOL     OW17254  11.820   5.064   9.681
71786SOL    HW117255  11.854   5.002   9.617
71786SOL    HW217256  11.868   5.045   9.761
71787SOL     OW17257  10.443   1.547   3.095
71787SOL    HW117258  10.421   1.609   3.164
71787SOL    HW217259  10.359   1.523   3.056
71788SOL     OW17260   9.848   8.295   9.007
71788SOL    HW117261   9.761   8.330   8.987
71788SOL    HW217262   9.847   8.206   8.973
71789SOL     OW17263  13.947   5.300  12.366
71789SOL    HW117264  13.915   5.305  12.276
71789SOL    HW217265  13.917   5.214  12.397
71790SOL     OW17266  14.200   3.456   3.955
71790SOL    HW117267  14.177   3.545   3.981
71790SOL    HW217268  14.119   3.407   3.965
71791SOL     OW17269   2.930   2.834   5.452
71791SOL    HW117270   3.023   2.828   5.475
71791SOL    HW217271   2.926   2.804   5.361
71792SOL     OW17272   6.648   0.686   7.934
71792SOL    HW117273   6.657   0.598   7.898
71792SOL    HW217274   6.559   0.712   7.911
71793SOL     OW17275  13.293   6.155   3.218
71793SOL    HW117276  13.281   6.249   3.214
71793SOL    HW217277  13.318   6.137   3.309
71794SOL     OW17278   8.340   7.588   4.681
71794SOL    HW117279   8.361   7.545   4.764
71794SOL    HW217280   8.425   7.607   4.642
71795SOL     OW17281   7.014  12.027   8.964
71795SOL    HW117282   6.997  12.050   9.055
71795SOL    HW217283   6.984  11.936   8.956
71796SOL     OW17284  12.120   1.073   7.443
71796SOL    HW117285  12.164   1.145   7.489
71796SOL    HW217286  12.117   1.101   7.352
71797SOL     OW17287   3.338   9.302  12.148
71797SOL    HW117288   3.322   9.392  12.175
71797SOL    HW217289   3.283   9.250  12.206
71798SOL     OW17290  13.508   4.402   9.910
71798SOL    HW117291  13.594   4.427   9.944
71798SOL    HW217292  13.490   4.317   9.949
71799SOL     OW17293   5.872   6.048  13.081
71799SOL    HW117294   5.787   6.067  13.120
71799SOL    HW217295   5.914   5.988  13.142
71800SOL     OW17296   3.245   7.112   5.806
71800SOL    HW117297   3.336   7.140   5.818
71800SOL    HW217298   3.193   7.191   5.819
71801SOL     OW17299  13.205  14.067   0.489
71801SOL    HW117300  13.261  13.989   0.490
71801SOL    HW217301  13.217  14.106   0.576
71802SOL     OW17302   5.887   2.941   3.182
71802SOL    HW117303   5.850   2.904   3.102
71802SOL    HW217304   5.953   3.003   3.151
71803SOL     OW17305   0.513   5.076   3.833
71803SOL    HW117306   0.450   5.006   3.855
71803SOL    HW217307   0.565   5.039   3.761
71804SOL     OW17308   1.201   0.495   5.188
71804SOL    HW117309   1.144   0.510   5.264
71804SOL    HW217310   1.151   0.529   5.114
71805SOL     OW17311   0.782  14.838  11.841
71805SOL    HW117312   0.864  14.875  11.810
71805SOL    HW217313   0.786  14.745  11.817
71806SOL     OW17314   0.648   8.652   7.760
71806SOL    HW117315   0.698   8.702   7.825
71806SOL    HW217316   0.618   8.575   7.807
71807SOL     OW17317  13.759   3.490  12.234
71807SOL    HW117318  13.765   3.549  12.310
71807SOL    HW217319  13.826   3.423  12.250
71808SOL     OW17320   1.638   9.279  12.184
71808SOL    HW117321   1.603   9.290  12.272
71808SOL    HW217322   1.584   9.335  12.129
71809SOL     OW17323   6.844   1.346  12.880
71809SOL    HW117324   6.821   1.417  12.820
71809SOL    HW217325   6.863   1.272  12.824
71810SOL     OW17326   6.413   1.288   6.161
71810SOL    HW117327   6.416   1.240   6.244
71810SOL    HW217328   6.495   1.339   6.161
71811SOL     OW17329  11.761   0.212   6.229
71811SOL    HW117330  11.783   0.205   6.322
71811SOL    HW217331  11.685   0.271   6.227
71812SOL     OW17332   6.206  13.384  12.603
71812SOL    HW117333   6.134  13.337  12.644
71812SOL    HW217334   6.198  13.474  12.636
71813SOL     OW17335   5.638  10.217  13.527
71813SOL    HW117336   5.705  10.185  13.588
71813SOL    HW217337   5.681  10.288  13.479
71814SOL     OW17338  11.681   7.949  14.352
71814SOL    HW117339  11.600   7.956  14.303
71814SOL    HW217340  11.663   7.885  14.420
71815SOL     OW17341  12.980   4.832   8.888
71815SOL    HW117342  13.057   4.832   8.832
71815SOL    HW217343  12.912   4.875   8.836
71816SOL     OW17344  11.858  12.454  14.733
71816SOL    HW117345  11.808  12.430  14.811
71816SOL    HW217346  11.948  12.429  14.753
71817SOL     OW17347   7.824   8.687  14.573
71817SOL    HW117348   7.881   8.700  14.497
71817SOL    HW217349   7.751   8.746  14.558
71818SOL     OW17350   9.276   1.393   6.097
71818SOL    HW117351   9.347   1.329   6.103
71818SOL    HW217352   9.316   1.476   6.122
71819SOL     OW17353   7.681   9.764   0.777
71819SOL    HW117354   7.691   9.668   0.781
71819SOL    HW217355   7.640   9.787   0.860
71820SOL     OW17356   1.406   0.030   8.891
71820SOL    HW117357   1.412  14.873   8.801
71820SOL    HW217358   1.425   0.124   8.884
71821SOL     OW17359  11.602  13.858  12.187
71821SOL    HW117360  11.648  13.825  12.110
71821SOL    HW217361  11.623  13.796  12.256
71822SOL     OW17362   7.821   6.973  11.152
71822SOL    HW117363   7.783   6.906  11.209
71822SOL    HW217364   7.909   6.941  11.133
71823SOL     OW17365  10.644   9.212  10.762
71823SOL    HW117366  10.610   9.300  10.775
71823SOL    HW217367  10.567   9.160  10.739
71824SOL     OW17368  11.631   6.732  14.692
71824SOL    HW117369  11.651   6.668  14.760
71824SOL    HW217370  11.706   6.728  14.632
71825SOL     OW17371   2.769  14.839   4.384
71825SOL    HW117372   2.760  14.794   4.300
71825SOL    HW217373   2.812   0.047   4.363
71826SOL     OW17374   4.030  11.438   9.637
71826SOL    HW117375   4.027  11.401   9.549
71826SOL    HW217376   4.101  11.503   9.634
71827SOL     OW17377   0.748  13.332   7.597
71827SOL    HW117378   0.757  13.427   7.601
71827SOL    HW217379   0.662  13.318   7.558
71828SOL     OW17380  13.284   8.692  12.632
71828SOL    HW117381  13.274   8.604  12.596
71828SOL    HW217382  13.312   8.745  12.557
71829SOL     OW17383   8.631  12.179   8.104
71829SOL    HW117384   8.555  12.176   8.045
71829SOL    HW217385   8.678  12.098   8.086
71830SOL     OW17386  13.032  11.428  14.135
71830SOL    HW117387  12.938  11.441  14.129
71830SOL    HW217388  13.041  11.337  14.164
71831SOL     OW17389   3.156   5.064  10.152
71831SOL    HW117390   3.094   5.092  10.084
71831SOL    HW217391   3.231   5.123  10.141
71832SOL     OW17392  10.516   1.846  13.233
71832SOL    HW117393  10.483   1.763  13.269
71832SOL    HW217394  10.569   1.821  13.158
71833SOL     OW17395   3.036  12.447  11.885
71833SOL    HW117396   2.983  12.495  11.822
71833SOL    HW217397   3.075  12.514  11.940
71834SOL     OW17398   7.183  11.177  13.238
71834SOL    HW117399   7.233  11.228  13.174
71834SOL    HW217400   7.149  11.242  13.299
71835SOL     OW17401  12.006   3.561  13.986
71835SOL    HW117402  12.100   3.554  13.970
71835SOL    HW217403  11.966   3.531  13.904
71836SOL     OW17404   8.349  13.464   2.253
71836SOL    HW117405   8.359  13.461   2.158
71836SOL    HW217406   8.439  13.459   2.286
71837SOL     OW17407  13.440   6.538  12.263
71837SOL    HW117408  13.482   6.473  12.206
71837SOL    HW217409  13.352   6.547  12.228
71838SOL     OW17410   4.742   0.105  10.272
71838SOL    HW117411   4.702   0.081  10.188
71838SOL    HW217412   4.825   0.147  10.249
71839SOL     OW17413   7.166   2.923   7.016
71839SOL    HW117414   7.245   2.906   6.965
71839SOL    HW217415   7.185   3.004   7.064
71840SOL     OW17416   4.056   6.226  12.620
71840SOL    HW117417   4.094   6.179  12.546
71840SOL    HW217418   4.048   6.316  12.589
71841SOL     OW17419   9.956  12.548  11.417
71841SOL    HW117420   9.966  12.632  11.462
71841SOL    HW217421   9.919  12.570  11.332
71842SOL     OW17422   1.595  12.278   0.681
71842SOL    HW117423   1.577  12.254   0.590
71842SOL    HW217424   1.562  12.367   0.690
71843SOL     OW17425   1.069   8.627   3.815
71843SOL    HW117426   1.086   8.576   3.894
71843SOL    HW217427   1.099   8.716   3.837
71844SOL     OW17428  14.069  13.736   7.837
71844SOL    HW117429  14.095  13.823   7.806
71844SOL    HW217430  14.010  13.704   7.770
71845SOL     OW17431   1.416  10.138   2.668
71845SOL    HW117432   1.410  10.081   2.591
71845SOL    HW217433   1.506  10.128   2.699
71846SOL     OW17434  12.567   9.866   3.650
71846SOL    HW117435  12.516   9.920   3.710
71846SOL    HW217436  12.552   9.776   3.679
71847SOL     OW17437   2.388  11.366   3.924
71847SOL    HW117438   2.428  11.394   3.841
71847SOL    HW217439   2.346  11.283   3.904
71848SOL     OW17440   6.882  12.283   0.512
71848SOL    HW117441   6.801  12.326   0.483
71848SOL    HW217442   6.879  12.289   0.607
71849SOL     OW17443   4.878  12.708   1.227
71849SOL    HW117444   4.945  12.670   1.284
71849SOL    HW217445   4.803  12.722   1.285
71850SOL     OW17446  12.169   4.600   6.946
71850SOL    HW117447  12.100   4.655   6.909
71850SOL    HW217448  12.142   4.586   7.037
71851SOL     OW17449   0.503   8.455  13.554
71851SOL    HW117450   0.501   8.550  13.547
71851SOL    HW217451   0.505   8.424  13.464
71852SOL     OW17452  12.355   5.226   2.654
71852SOL    HW117453  12.319   5.187   2.574
71852SOL    HW217454  12.382   5.313   2.628
71853SOL     OW17455   0.376   1.701   5.772
71853SOL    HW117456   0.384   1.734   5.861
71853SOL    HW217457   0.435   1.626   5.768
71854SOL     OW17458   1.440   6.784   8.246
71854SOL    HW117459   1.430   6.739   8.162
71854SOL    HW217460   1.499   6.857   8.228
71855SOL     OW17461   9.591  13.596   8.760
71855SOL    HW117462   9.564  13.686   8.745
71855SOL    HW217463   9.675  13.588   8.715
71856SOL     OW17464   6.115   6.495   7.548
71856SOL    HW117465   6.124   6.568   7.486
71856SOL    HW217466   6.073   6.534   7.625
71857SOL     OW17467   2.756  12.352   9.218
71857SOL    HW117468   2.720  12.269   9.248
71857SOL    HW217469   2.684  12.415   9.225
71858SOL     OW17470   4.366   0.203   3.756
71858SOL    HW117471   4.443   0.217   3.702
71858SOL    HW217472   4.317   0.285   3.750
71859SOL     OW17473  12.409  11.486  13.254
71859SOL    HW117474  12.399  11.564  13.308
71859SOL    HW217475  12.460  11.514  13.178
71860SOL     OW17476  10.007   9.019  14.041
71860SOL    HW117477  10.047   9.004  14.127
71860SOL    HW217478   9.990   8.932  14.006
71861SOL     OW17479  11.184   5.658  12.160
71861SOL    HW117480  11.264   5.698  12.127
71861SOL    HW217481  11.127   5.732  12.180
71862SOL     OW17482  10.276   5.276   1.693
71862SOL    HW117483  10.318   5.209   1.747
71862SOL    HW217484  10.344   5.302   1.630
71863SOL     OW17485  10.249   3.230   5.956
71863SOL    HW117486  10.287   3.263   6.038
71863SOL    HW217487  10.215   3.143   5.978
71864SOL     OW17488   1.781   3.847   3.578
71864SOL    HW117489   1.832   3.927   3.592
71864SOL    HW217490   1.804   3.819   3.489
71865SOL     OW17491  10.570  11.529   8.152
71865SOL    HW117492  10.657  11.568   8.144
71865SOL    HW217493  10.576  11.471   8.228
71866SOL     OW17494   4.747   2.095   1.996
71866SOL    HW117495   4.719   2.030   2.060
71866SOL    HW217496   4.794   2.044   1.930
71867SOL     OW17497  10.353   9.017   5.753
71867SOL    HW117498  10.362   8.930   5.793
71867SOL    HW217499  10.325   9.073   5.825
71868SOL     OW17500   6.892   9.859  11.226
71868SOL    HW117501   6.902   9.764  11.240
71868SOL    HW217502   6.938   9.899  11.299
71869SOL     OW17503   5.280  14.344   4.910
71869SOL    HW117504   5.185  14.353   4.919
71869SOL    HW217505   5.300  14.379   4.824
71870SOL     OW17506  11.343  11.878   1.747
71870SOL    HW117507  11.414  11.928   1.788
71870SOL    HW217508  11.334  11.800   1.801
71871SOL     OW17509  13.504   5.104  12.642
71871SOL    HW117510  13.505   5.062  12.728
71871SOL    HW217511  13.559   5.047  12.587
71872SOL     OW17512  11.900   7.790   2.492
71872SOL    HW117513  11.917   7.780   2.398
71872SOL    HW217514  11.835   7.723   2.512
71873SOL     OW17515  14.271   0.495   1.651
71873SOL    HW117516  14.222   0.464   1.575
71873SOL    HW217517  14.357   0.453   1.643
71874SOL     OW17518   9.639   4.215   6.652
71874SOL    HW117519   9.733   4.208   6.662
71874SOL    HW217520   9.615   4.142   6.595
71875SOL     OW17521  11.288  14.217   3.389
71875SOL    HW117522  11.253  14.283   3.329
71875SOL    HW217523  11.300  14.140   3.335
71876SOL     OW17524   4.707   9.928  10.938
71876SOL    HW117525   4.692   9.846  10.891
71876SOL    HW217526   4.639   9.929  11.006
71877SOL     OW17527  14.480   1.885   8.253
71877SOL    HW117528  14.397   1.913   8.292
71877SOL    HW217529  14.481   1.924   8.166
71878SOL     OW17530   6.057   0.253   9.315
71878SOL    HW117531   6.074   0.193   9.388
71878SOL    HW217532   6.047   0.339   9.356
71879SOL     OW17533  11.911  11.303   7.427
71879SOL    HW117534  12.000  11.278   7.404
71879SOL    HW217535  11.903  11.281   7.520
71880SOL     OW17536  13.054   4.892   3.862
71880SOL    HW117537  13.082   4.887   3.771
71880SOL    HW217538  13.014   4.978   3.870
71881SOL     OW17539   1.745  13.786  13.318
71881SOL    HW117540   1.801  13.746  13.385
71881SOL    HW217541   1.664  13.737  13.322
71882SOL     OW17542  14.764   6.353   5.139
71882SOL    HW117543  14.840   6.298   5.161
71882SOL    HW217544  14.795   6.443   5.153
71883SOL     OW17545  10.638  11.240   6.337
71883SOL    HW117546  10.686  11.247   6.419
71883SOL    HW217547  10.550  11.271   6.357
71884SOL     OW17548   4.663   3.050  11.589
71884SOL    HW117549   4.737   3.098  11.627
71884SOL    HW217550   4.652   2.974  11.646
71885SOL     OW17551   8.758   0.806   0.092
71885SOL    HW117552   8.683   0.777   0.040
71885SOL    HW217553   8.727   0.885   0.137
71886SOL     OW17554   5.536  11.089  11.788
71886SOL    HW117555   5.443  11.078  11.808
71886SOL    HW217556   5.580  11.023  11.842
71887SOL     OW17557   5.316  14.076  12.799
71887SOL    HW117558   5.229  14.112  12.784
71887SOL    HW217559   5.335  14.098  12.891
71888SOL     OW17560  14.485   8.470  14.506
71888SOL    HW117561  14.507   8.426  14.589
71888SOL    HW217562  14.539   8.549  14.506
71889SOL     OW17563   5.600   8.922   6.439
71889SOL    HW117564   5.555   8.848   6.479
71889SOL    HW217565   5.626   8.977   6.513
71890SOL     OW17566  11.732  11.069   4.884
71890SOL    HW117567  11.799  11.002   4.868
71890SOL    HW217568  11.742  11.130   4.810
71891SOL     OW17569  11.388   3.420  11.898
71891SOL    HW117570  11.482   3.416  11.879
71891SOL    HW217571  11.349   3.354  11.841
71892SOL     OW17572   9.690   4.246   8.783
71892SOL    HW117573   9.661   4.336   8.801
71892SOL    HW217574   9.626   4.212   8.720
71893SOL     OW17575   0.870  11.065   7.755
71893SOL    HW117576   0.847  11.127   7.823
71893SOL    HW217577   0.863  11.114   7.674
71894SOL     OW17578   3.273  11.962  12.343
71894SOL    HW117579   3.287  11.885  12.399
71894SOL    HW217580   3.215  12.018  12.394
71895SOL     OW17581   3.774  11.548  12.402
71895SOL    HW117582   3.838  11.612  12.371
71895SOL    HW217583   3.786  11.545  12.497
71896SOL     OW17584   9.783  12.961   3.995
71896SOL    HW117585   9.697  12.920   3.989
71896SOL    HW217586   9.796  13.003   3.910
71897SOL     OW17587   8.203  10.744  10.624
71897SOL    HW117588   8.167  10.656  10.631
71897SOL    HW217589   8.184  10.785  10.709
71898SOL     OW17590   9.790   8.425   7.871
71898SOL    HW117591   9.732   8.349   7.873
71898SOL    HW217592   9.878   8.389   7.883
71899SOL     OW17593  11.012  10.141  13.760
71899SOL    HW117594  11.069  10.190  13.820
71899SOL    HW217595  10.933  10.195  13.752
71900SOL     OW17596   9.190   4.730   1.158
71900SOL    HW117597   9.251   4.663   1.189
71900SOL    HW217598   9.117   4.727   1.220
71901SOL     OW17599  13.706   0.393  12.907
71901SOL    HW117600  13.662   0.386  12.822
71901SOL    HW217601  13.639   0.369  12.971
71902SOL     OW17602   2.907   2.896   7.885
71902SOL    HW117603   2.994   2.930   7.865
71902SOL    HW217604   2.923   2.806   7.913
71903SOL     OW17605   8.645   0.561   9.290
71903SOL    HW117606   8.636   0.586   9.198
71903SOL    HW217607   8.680   0.472   9.287
71904SOL     OW17608   0.745   9.246   0.680
71904SOL    HW117609   0.680   9.189   0.721
71904SOL    HW217610   0.825   9.194   0.680
71905SOL     OW17611  11.271  12.296   4.776
71905SOL    HW117612  11.249  12.267   4.687
71905SOL    HW217613  11.315  12.221   4.815
71906SOL     OW17614   6.979   0.458  12.555
71906SOL    HW117615   6.946   0.485  12.640
71906SOL    HW217616   6.947   0.525  12.494
71907SOL     OW17617   3.387   4.216   6.265
71907SOL    HW117618   3.394   4.294   6.210
71907SOL    HW217619   3.356   4.248   6.349
71908SOL     OW17620   3.585   1.754   8.358
71908SOL    HW117621   3.529   1.679   8.339
71908SOL    HW217622   3.577   1.811   8.281
71909SOL     OW17623  13.174   1.994   0.588
71909SOL    HW117624  13.222   2.024   0.511
71909SOL    HW217625  13.241   1.957   0.645
71910SOL     OW17626   9.405   7.888   8.348
71910SOL    HW117627   9.477   7.873   8.409
71910SOL    HW217628   9.359   7.804   8.344
71911SOL     OW17629  11.536   9.926   2.501
71911SOL    HW117630  11.545   9.902   2.593
71911SOL    HW217631  11.624   9.952   2.474
71912SOL     OW17632   0.316   7.579   0.588
71912SOL    HW117633   0.301   7.489   0.616
71912SOL    HW217634   0.365   7.571   0.506
71913SOL     OW17635   2.789   3.275   0.798
71913SOL    HW117636   2.719   3.213   0.780
71913SOL    HW217637   2.744   3.354   0.828
71914SOL     OW17638   9.834   9.268   7.412
71914SOL    HW117639   9.817   9.314   7.494
71914SOL    HW217640   9.825   9.175   7.434
71915SOL     OW17641   0.280  14.010   9.678
71915SOL    HW117642   0.233  13.927   9.666
71915SOL    HW217643   0.287  14.020   9.773
71916SOL     OW17644   4.448  11.259  12.462
71916SOL    HW117645   4.424  11.172  12.493
71916SOL    HW217646   4.365  11.301  12.440
71917SOL     OW17647   7.340   9.690  11.565
71917SOL    HW117648   7.381   9.675  11.650
71917SOL    HW217649   7.357   9.609  11.516
71918SOL     OW17650   4.694   8.227   6.493
71918SOL    HW117651   4.677   8.236   6.586
71918SOL    HW217652   4.779   8.183   6.488
71919SOL     OW17653   3.579  13.549   8.781
71919SOL    HW117654   3.535  13.515   8.703
71919SOL    HW217655   3.524  13.621   8.811
71920SOL     OW17656   5.148   6.854   8.506
71920SOL    HW117657   5.220   6.799   8.539
71920SOL    HW217658   5.151   6.932   8.561
71921SOL     OW17659  10.473   5.969   3.998
71921SOL    HW117660  10.381   5.991   4.015
71921SOL    HW217661  10.499   6.026   3.926
71922SOL     OW17662   0.132   5.134  14.695
71922SOL    HW117663   0.088   5.151  14.779
71922SOL    HW217664   0.075   5.174  14.630
71923SOL     OW17665  12.524   2.583   7.703
71923SOL    HW117666  12.440   2.620   7.732
71923SOL    HW217667  12.541   2.625   7.618
71924SOL     OW17668   9.844   3.212   9.498
71924SOL    HW117669   9.903   3.272   9.452
71924SOL    HW217670   9.798   3.165   9.429
71925SOL     OW17671  13.323   8.789   5.011
71925SOL    HW117672  13.374   8.862   4.975
71925SOL    HW217673  13.249   8.779   4.951
71926SOL     OW17674   9.504   4.017   0.147
71926SOL    HW117675   9.415   3.993   0.173
71926SOL    HW217676   9.513   3.981   0.059
71927SOL     OW17677  13.653  10.601  12.995
71927SOL    HW117678  13.716  10.536  13.024
71927SOL    HW217679  13.576  10.550  12.970
71928SOL     OW17680   4.845  14.805   4.031
71928SOL    HW117681   4.788  14.731   4.011
71928SOL    HW217682   4.893  14.777   4.109
71929SOL     OW17683   8.046   4.529  10.858
71929SOL    HW117684   7.958   4.515  10.824
71929SOL    HW217685   8.042   4.497  10.948
71930SOL     OW17686   7.063  10.281   9.772
71930SOL    HW117687   7.091  10.246   9.857
71930SOL    HW217688   7.128  10.248   9.710
71931SOL     OW17689   8.968  10.929   7.734
71931SOL    HW117690   8.978  10.941   7.828
71931SOL    HW217691   9.029  10.992   7.695
71932SOL     OW17692   6.834  14.180  10.923
71932SOL    HW117693   6.783  14.100  10.935
71932SOL    HW217694   6.835  14.221  11.010
71933SOL     OW17695   6.861   0.330  10.057
71933SOL    HW117696   6.859   0.377   9.974
71933SOL    HW217697   6.910   0.386  10.117
71934SOL     OW17698   6.324   1.328  11.273
71934SOL    HW117699   6.346   1.395  11.209
71934SOL    HW217700   6.357   1.247  11.235
71935SOL     OW17701   4.107   2.644  12.071
71935SOL    HW117702   4.183   2.604  12.114
71935SOL    HW217703   4.053   2.571  12.043
71936SOL     OW17704  12.948  11.348   7.094
71936SOL    HW117705  13.019  11.410   7.109
71936SOL    HW217706  12.900  11.346   7.176
71937SOL     OW17707   2.558   3.130   1.495
71937SOL    HW117708   2.587   3.194   1.559
71937SOL    HW217709   2.568   3.174   1.410
71938SOL     OW17710   7.724   0.262   3.509
71938SOL    HW117711   7.685   0.228   3.589
71938SOL    HW217712   7.785   0.330   3.539
71939SOL     OW17713   1.090   5.715   4.922
71939SOL    HW117714   1.161   5.733   4.984
71939SOL    HW217715   1.014   5.761   4.959
71940SOL     OW17716  12.511   6.809  14.194
71940SOL    HW117717  12.522   6.730  14.247
71940SOL    HW217718  12.550   6.786  14.110
71941SOL     OW17719   7.394   8.203  14.733
71941SOL    HW117720   7.407   8.227  14.825
71941SOL    HW217721   7.420   8.111  14.728
71942SOL     OW17722   1.096   9.631   7.880
71942SOL    HW117723   1.135   9.545   7.868
71942SOL    HW217724   1.012   9.626   7.834
71943SOL     OW17725   0.237  14.177   6.757
71943SOL    HW117726   0.198  14.124   6.687
71943SOL    HW217727   0.309  14.124   6.790
71944SOL     OW17728   1.977   7.828   6.894
71944SOL    HW117729   1.968   7.867   6.807
71944SOL    HW217730   1.951   7.898   6.954
71945SOL     OW17731   1.981   3.493   4.061
71945SOL    HW117732   2.065   3.510   4.020
71945SOL    HW217733   1.936   3.433   4.001
71946SOL     OW17734  14.444   3.670   7.914
71946SOL    HW117735  14.453   3.762   7.890
71946SOL    HW217736  14.455   3.623   7.832
71947SOL     OW17737   9.367  12.638   6.841
71947SOL    HW117738   9.461  12.641   6.825
71947SOL    HW217739   9.358  12.657   6.935
71948SOL     OW17740   0.981   2.045   5.790
71948SOL    HW117741   0.922   1.970   5.798
71948SOL    HW217742   1.065   2.013   5.822
71949SOL     OW17743   0.235   1.751  12.246
71949SOL    HW117744   0.320   1.796  12.244
71949SOL    HW217745   0.236   1.705  12.330
71950SOL     OW17746  12.671   9.387   4.680
71950SOL    HW117747  12.640   9.414   4.594
71950SOL    HW217748  12.616   9.313   4.704
71951SOL     OW17749  12.330   7.048  10.550
71951SOL    HW117750  12.380   6.967  10.559
71951SOL    HW217751  12.239   7.021  10.554
71952SOL     OW17752   9.005   1.039   4.547
71952SOL    HW117753   8.955   1.088   4.612
71952SOL    HW217754   8.995   1.088   4.466
71953SOL     OW17755   2.002   1.132   3.036
71953SOL    HW117756   1.912   1.106   3.055
71953SOL    HW217757   2.003   1.146   2.941
71954SOL     OW17758   6.099   6.236   5.463
71954SOL    HW117759   6.036   6.182   5.509
71954SOL    HW217760   6.111   6.312   5.520
71955SOL     OW17761   1.744  10.529   4.085
71955SOL    HW117762   1.693  10.572   4.154
71955SOL    HW217763   1.826  10.504   4.128
71956SOL     OW17764   1.560   2.620   9.720
71956SOL    HW117765   1.503   2.679   9.671
71956SOL    HW217766   1.513   2.605   9.803
71957SOL     OW17767   2.513   0.080   6.135
71957SOL    HW117768   2.521  14.864   6.164
71957SOL    HW217769   2.584   0.126   6.181
71958SOL     OW17770   4.218   4.114   0.159
71958SOL    HW117771   4.191   4.065   0.082
71958SOL    HW217772   4.313   4.121   0.152
71959SOL     OW17773   2.329   2.281   2.279
71959SOL    HW117774   2.421   2.284   2.303
71959SOL    HW217775   2.325   2.222   2.203
71960SOL     OW17776   4.304  11.740   0.177
71960SOL    HW117777   4.241  11.734   0.248
71960SOL    HW217778   4.305  11.653   0.137
71961SOL     OW17779   3.641   2.769   0.133
71961SOL    HW117780   3.727   2.801   0.108
71961SOL    HW217781   3.658   2.702   0.200
71962SOL     OW17782  10.400   1.029   4.635
71962SOL    HW117783  10.399   0.952   4.692
71962SOL    HW217784  10.393   1.103   4.695
71963SOL     OW17785   1.716  14.398  11.421
71963SOL    HW117786   1.740  14.472  11.478
71963SOL    HW217787   1.620  14.396  11.425
71964SOL     OW17788   3.974   0.938  11.399
71964SOL    HW117789   4.021   0.952  11.316
71964SOL    HW217790   3.889   0.903  11.373
71965SOL     OW17791   8.656   4.494  14.144
71965SOL    HW117792   8.701   4.420  14.185
71965SOL    HW217793   8.631   4.551  14.217
71966SOL     OW17794   0.993   7.324   7.344
71966SOL    HW117795   1.012   7.308   7.437
71966SOL    HW217796   0.923   7.263   7.323
71967SOL     OW17797   2.626   8.767  11.626
71967SOL    HW117798   2.668   8.823  11.560
71967SOL    HW217799   2.550   8.818  11.656
71968SOL     OW17800   7.168  11.870  13.814
71968SOL    HW117801   7.135  11.782  13.801
71968SOL    HW217802   7.248  11.874  13.762
71969SOL     OW17803   5.380  13.081   1.723
71969SOL    HW117804   5.449  13.032   1.679
71969SOL    HW217805   5.299  13.043   1.690
71970SOL     OW17806   3.060  12.455  14.143
71970SOL    HW117807   3.139  12.435  14.092
71970SOL    HW217808   3.094  12.501  14.221
71971SOL     OW17809  11.033   3.844   4.035
71971SOL    HW117810  10.975   3.793   4.091
71971SOL    HW217811  11.097   3.780   4.003
71972SOL     OW17812   8.981  12.815   8.424
71972SOL    HW117813   8.892  12.839   8.401
71972SOL    HW217814   8.972  12.762   8.504
71973SOL     OW17815   4.895  10.306   8.074
71973SOL    HW117816   4.931  10.294   7.986
71973SOL    HW217817   4.892  10.218   8.111
71974SOL     OW17818   8.873   9.825   7.437
71974SOL    HW117819   8.952   9.787   7.475
71974SOL    HW217820   8.890   9.830   7.343
71975SOL     OW17821  11.034   9.806   7.395
71975SOL    HW117822  11.051   9.752   7.318
71975SOL    HW217823  10.941   9.795   7.412
71976SOL     OW17824   2.251   8.962   1.535
71976SOL    HW117825   2.250   8.934   1.626
71976SOL    HW217826   2.163   8.941   1.503
71977SOL     OW17827  13.099  11.254  14.680
71977SOL    HW117828  13.101  11.268  14.586
71977SOL    HW217829  13.191  11.261  14.707
71978SOL     OW17830   3.463   8.821  10.830
71978SOL    HW117831   3.492   8.774  10.752
71978SOL    HW217832   3.405   8.760  10.876
71979SOL     OW17833  13.244   5.754   6.730
71979SOL    HW117834  13.217   5.690   6.796
71979SOL    HW217835  13.162   5.797   6.704
71980SOL     OW17836   0.686  12.916   5.011
71980SOL    HW117837   0.779  12.917   5.033
71980SOL    HW217838   0.642  12.892   5.093
71981SOL     OW17839   6.518  13.171   2.221
71981SOL    HW117840   6.496  13.261   2.244
71981SOL    HW217841   6.613  13.172   2.208
71982SOL     OW17842   3.752   7.388   6.944
71982SOL    HW117843   3.779   7.371   7.034
71982SOL    HW217844   3.693   7.316   6.922
71983SOL     OW17845  11.212   4.371  10.124
71983SOL    HW117846  11.247   4.339  10.041
71983SOL    HW217847  11.120   4.390  10.106
71984SOL     OW17848   3.539  13.226  14.397
71984SOL    HW117849   3.622  13.192  14.366
71984SOL    HW217850   3.532  13.313  14.356
71985SOL     OW17851   4.520  10.908   5.800
71985SOL    HW117852   4.445  10.926   5.857
71985SOL    HW217853   4.482  10.879   5.718
71986SOL     OW17854  13.351   0.430   2.025
71986SOL    HW117855  13.289   0.358   2.021
71986SOL    HW217856  13.408   0.417   1.949
71987SOL     OW17857  10.760   2.797   7.598
71987SOL    HW117858  10.665   2.808   7.607
71987SOL    HW217859  10.797   2.853   7.666
71988SOL     OW17860  13.362  10.549  14.119
71988SOL    HW117861  13.344  10.641  14.136
71988SOL    HW217862  13.275  10.508  14.118
71989SOL     OW17863  12.984   4.624   8.581
71989SOL    HW117864  13.071   4.663   8.586
71989SOL    HW217865  12.998   4.537   8.542
71990SOL     OW17866  14.127   2.831  14.419
71990SOL    HW117867  14.045   2.825  14.370
71990SOL    HW217868  14.108   2.894  14.488
71991SOL     OW17869   7.250   8.019   8.077
71991SOL    HW117870   7.321   8.027   8.140
71991SOL    HW217871   7.172   8.000   8.130
71992SOL     OW17872   1.821   8.191  13.928
71992SOL    HW117873   1.851   8.137  14.002
71992SOL    HW217874   1.749   8.243  13.965
71993SOL     OW17875   0.712   2.647   4.488
71993SOL    HW117876   0.700   2.579   4.554
71993SOL    HW217877   0.630   2.696   4.489
71994SOL     OW17878  13.100   9.534   4.673
71994SOL    HW117879  13.143   9.593   4.735
71994SOL    HW217880  13.009   9.564   4.669
71995SOL     OW17881   9.234   4.117   2.533
71995SOL    HW117882   9.204   4.188   2.590
71995SOL    HW217883   9.298   4.069   2.586
71996SOL     OW17884   0.906  14.654   6.521
71996SOL    HW117885   0.914  14.578   6.578
71996SOL    HW217886   0.992  14.663   6.480
71997SOL     OW17887   7.532  11.351   8.402
71997SOL    HW117888   7.517  11.273   8.455
71997SOL    HW217889   7.477  11.419   8.442
71998SOL     OW17890  13.806   0.337  10.957
71998SOL    HW117891  13.715   0.328  10.929
71998SOL    HW217892  13.830   0.425  10.928
71999SOL     OW17893   4.687   5.816   9.700
71999SOL    HW117894   4.773   5.815   9.658
71999SOL    HW217895   4.669   5.909   9.714
72000SOL     OW17896   7.445  12.517  13.722
72000SOL    HW117897   7.399  12.562  13.793
72000SOL    HW217898   7.457  12.428  13.754
72001SOL     OW17899   8.243  14.557   7.516
72001SOL    HW117900   8.164  14.601   7.484
72001SOL    HW217901   8.300  14.628   7.547
72002SOL     OW17902  10.560   9.074   2.741
72002SOL    HW117903  10.611   9.068   2.660
72002SOL    HW217904  10.534   9.166   2.746
72003SOL     OW17905  11.095   0.924   8.071
72003SOL    HW117906  11.043   0.843   8.072
72003SOL    HW217907  11.180   0.897   8.036
72004SOL     OW17908   7.898  11.932   3.546
72004SOL    HW117909   7.896  11.839   3.567
72004SOL    HW217910   7.981  11.944   3.500
72005SOL     OW17911   3.235   7.455  13.620
72005SOL    HW117912   3.188   7.428  13.541
72005SOL    HW217913   3.322   7.479  13.589
72006SOL     OW17914   8.239  12.657   1.982
72006SOL    HW117915   8.206  12.608   2.058
72006SOL    HW217916   8.329  12.680   2.005
72007SOL     OW17917  10.853   8.564   1.219
72007SOL    HW117918  10.805   8.483   1.200
72007SOL    HW217919  10.945   8.538   1.217
72008SOL     OW17920   6.184  11.220  14.325
72008SOL    HW117921   6.193  11.306  14.282
72008SOL    HW217922   6.089  11.205  14.327
72009SOL     OW17923   4.695  14.473   4.833
72009SOL    HW117924   4.632  14.402   4.819
72009SOL    HW217925   4.729  14.493   4.746
72010SOL     OW17926  13.959   4.987   4.533
72010SOL    HW117927  13.979   4.947   4.448
72010SOL    HW217928  13.873   5.027   4.521
72011SOL     OW17929  11.158  14.281   1.245
72011SOL    HW117930  11.174  14.260   1.337
72011SOL    HW217931  11.083  14.226   1.221
72012SOL     OW17932   1.988   5.532   8.008
72012SOL    HW117933   2.061   5.582   7.970
72012SOL    HW217934   2.007   5.530   8.102
72013SOL     OW17935   7.982   8.635  11.937
72013SOL    HW117936   7.912   8.585  11.980
72013SOL    HW217937   7.996   8.590  11.854
72014SOL     OW17938   7.586  11.409   4.491
72014SOL    HW117939   7.560  11.495   4.459
72014SOL    HW217940   7.552  11.405   4.580
72015SOL     OW17941  11.633   4.605   0.817
72015SOL    HW117942  11.677   4.648   0.743
72015SOL    HW217943  11.689   4.530   0.837
72016SOL     OW17944   9.176   7.933   9.565
72016SOL    HW117945   9.192   8.027   9.554
72016SOL    HW217946   9.176   7.920   9.660
72017SOL     OW17947   1.500   3.658  14.356
72017SOL    HW117948   1.461   3.702  14.280
72017SOL    HW217949   1.571   3.605  14.320
72018SOL     OW17950   4.806   2.695  13.601
72018SOL    HW117951   4.846   2.608  13.605
72018SOL    HW217952   4.881   2.755  13.590
72019SOL     OW17953   7.482  11.994   6.907
72019SOL    HW117954   7.446  12.083   6.905
72019SOL    HW217955   7.443  11.954   6.984
72020SOL     OW17956   3.491  13.923   1.774
72020SOL    HW117957   3.478  14.018   1.767
72020SOL    HW217958   3.549  13.913   1.850
72021SOL     OW17959  10.233   1.613   8.051
72021SOL    HW117960  10.243   1.518   8.055
72021SOL    HW217961  10.151   1.626   8.002
72022SOL     OW17962   3.127   0.822   7.839
72022SOL    HW117963   3.120   0.815   7.934
72022SOL    HW217964   3.216   0.854   7.823
72023SOL     OW17965  12.370   6.624   9.861
72023SOL    HW117966  12.359   6.706   9.813
72023SOL    HW217967  12.459   6.596   9.841
72024SOL     OW17968  14.857  14.002   4.382
72024SOL    HW117969  14.804  13.933   4.344
72024SOL    HW217970   0.057  13.956   4.421
72025SOL     OW17971  13.555   5.898   3.538
72025SOL    HW117972  13.624   5.926   3.599
72025SOL    HW217973  13.497   5.842   3.590
72026SOL     OW17974   7.679   1.101  14.337
72026SOL    HW117975   7.617   1.054  14.393
72026SOL    HW217976   7.759   1.106  14.390
72027SOL     OW17977  10.518   8.515   4.179
72027SOL    HW117978  10.546   8.488   4.091
72027SOL    HW217979  10.535   8.609   4.182
72028SOL     OW17980  13.970   2.383   0.688
72028SOL    HW117981  14.020   2.377   0.607
72028SOL    HW217982  13.916   2.461   0.677
72029SOL     OW17983   9.673   0.490   2.617
72029SOL    HW117984   9.629   0.557   2.565
72029SOL    HW217985   9.704   0.426   2.553
72030SOL     OW17986   8.778   6.544  13.461
72030SOL    HW117987   8.693   6.528  13.504
72030SOL    HW217988   8.838   6.483  13.504
72031SOL     OW17989  11.090   9.796  10.630
72031SOL    HW117990  11.079   9.827  10.540
72031SOL    HW217991  11.000   9.780  10.660
72032SOL     OW17992  13.464   1.910   1.940
72032SOL    HW117993  13.431   1.935   1.854
72032SOL    HW217994  13.488   1.818   1.931
72033SOL     OW17995   5.297  10.728   2.128
72033SOL    HW117996   5.274  10.786   2.200
72033SOL    HW217997   5.225  10.737   2.065
72034SOL     OW17998  11.878   1.853   4.435
72034SOL    HW117999  11.815   1.906   4.483
72034SOL    HW218000  11.860   1.763   4.463
72035SOL     OW18001   4.596  13.062  14.163
72035SOL    HW118002   4.624  13.137  14.112
72035SOL    HW218003   4.521  13.094  14.214
72036SOL     OW18004   5.237   8.859   1.078
72036SOL    HW118005   5.262   8.855   0.986
72036SOL    HW218006   5.168   8.794   1.087
72037SOL     OW18007   8.797  11.006  10.227
72037SOL    HW118008   8.885  10.998  10.263
72037SOL    HW218009   8.742  10.954  10.285
72038SOL     OW18010   4.050   6.381   5.885
72038SOL    HW118011   4.057   6.310   5.949
72038SOL    HW218012   3.988   6.443   5.925
72039SOL     OW18013   6.188   4.314   2.320
72039SOL    HW118014   6.213   4.243   2.379
72039SOL    HW218015   6.099   4.292   2.293
72040SOL     OW18016  13.644   7.822   3.626
72040SOL    HW118017  13.683   7.743   3.589
72040SOL    HW218018  13.674   7.822   3.717
72041SOL     OW18019   3.673   5.572   1.512
72041SOL    HW118020   3.677   5.493   1.457
72041SOL    HW218021   3.607   5.551   1.578
72042SOL     OW18022   2.368   5.848   2.167
72042SOL    HW118023   2.297   5.905   2.195
72042SOL    HW218024   2.437   5.863   2.232
72043SOL     OW18025  10.469   8.596   9.466
72043SOL    HW118026  10.549   8.647   9.472
72043SOL    HW218027  10.412   8.632   9.534
72044SOL     OW18028   3.559   6.991  11.607
72044SOL    HW118029   3.604   6.968  11.525
72044SOL    HW218030   3.589   6.926  11.670
72045SOL     OW18031  11.061  11.582   9.798
72045SOL    HW118032  11.027  11.493   9.800
72045SOL    HW218033  10.982  11.638   9.800
72046SOL     OW18034   4.293   7.667   9.262
72046SOL    HW118035   4.337   7.730   9.319
72046SOL    HW218036   4.242   7.721   9.201
72047SOL     OW18037   5.554   3.524  13.059
72047SOL    HW118038   5.601   3.441  13.048
72047SOL    HW218039   5.595   3.583  12.996
72048SOL     OW18040   1.343   7.452  12.949
72048SOL    HW118041   1.281   7.407  12.892
72048SOL    HW218042   1.403   7.497  12.890
72049SOL     OW18043  13.775   6.962  11.504
72049SOL    HW118044  13.778   6.887  11.445
72049SOL    HW218045  13.859   6.962  11.549
72050SOL     OW18046   7.195   7.766   4.386
72050SOL    HW118047   7.228   7.747   4.473
72050SOL    HW218048   7.109   7.724   4.382
72051SOL     OW18049  10.961   6.419   5.757
72051SOL    HW118050  10.978   6.508   5.727
72051SOL    HW218051  10.903   6.430   5.832
72052SOL     OW18052   0.612  13.484   3.944
72052SOL    HW118053   0.570  13.570   3.942
72052SOL    HW218054   0.705  13.503   3.928
72053SOL     OW18055   2.590   3.177   8.276
72053SOL    HW118056   2.500   3.147   8.261
72053SOL    HW218057   2.589   3.269   8.248
72054SOL     OW18058   9.992   8.643   4.850
72054SOL    HW118059   9.935   8.694   4.907
72054SOL    HW218060   9.980   8.553   4.877
72055SOL     OW18061   3.827  11.710  14.375
72055SOL    HW118062   3.899  11.731  14.316
72055SOL    HW218063   3.835  11.773  14.447
72056SOL     OW18064   2.369   3.000   9.599
72056SOL    HW118065   2.425   3.017   9.674
72056SOL    HW218066   2.381   3.075   9.541
72057SOL     OW18067   2.068   0.386  14.257
72057SOL    HW118068   2.155   0.391  14.218
72057SOL    HW218069   2.084   0.360  14.348
72058SOL     OW18070   4.282   6.157  12.155
72058SOL    HW118071   4.370   6.169  12.117
72058SOL    HW218072   4.222   6.171  12.082
72059SOL     OW18073  14.379   0.646   6.351
72059SOL    HW118074  14.380   0.660   6.256
72059SOL    HW218075  14.327   0.718   6.385
72060SOL     OW18076   4.971   4.991   3.283
72060SOL    HW118077   4.949   5.031   3.199
72060SOL    HW218078   5.054   4.946   3.266
72061SOL     OW18079   9.793  10.460   0.333
72061SOL    HW118080   9.884  10.485   0.348
72061SOL    HW218081   9.745  10.498   0.407
72062SOL     OW18082   5.624  12.261   1.717
72062SOL    HW118083   5.654  12.349   1.692
72062SOL    HW218084   5.702  12.219   1.754
72063SOL     OW18085   2.253   6.264   5.827
72063SOL    HW118086   2.300   6.343   5.801
72063SOL    HW218087   2.163   6.294   5.841
72064SOL     OW18088   6.043   6.569  11.818
72064SOL    HW118089   6.086   6.546  11.735
72064SOL    HW218090   6.001   6.653  11.800
72065SOL     OW18091   3.040   1.037   6.063
72065SOL    HW118092   2.966   1.001   6.015
72065SOL    HW218093   3.102   0.965   6.072
72066SOL     OW18094  14.545   3.266   3.138
72066SOL    HW118095  14.616   3.330   3.135
72066SOL    HW218096  14.589   3.181   3.130
72067SOL     OW18097  10.028  10.943  11.573
72067SOL    HW118098  10.043  10.853  11.603
72067SOL    HW218099  10.096  10.959  11.508
72068SOL     OW18100   7.371  10.149   8.406
72068SOL    HW118101   7.412  10.063   8.395
72068SOL    HW218102   7.395  10.197   8.327
72069SOL     OW18103   0.032   7.348   1.725
72069SOL    HW118104   0.118   7.331   1.762
72069SOL    HW218105   0.024   7.287   1.652
72070SOL     OW18106   5.110   0.221   7.623
72070SOL    HW118107   5.020   0.189   7.615
72070SOL    HW218108   5.153   0.195   7.542
72071SOL     OW18109   3.921   6.474   9.686
72071SOL    HW118110   3.864   6.485   9.609
72071SOL    HW218111   3.888   6.537   9.750
72072SOL     OW18112   8.984   2.087  11.037
72072SOL    HW118113   8.916   2.133  10.987
72072SOL    HW218114   9.066   2.112  10.995
72073SOL     OW18115  13.124   4.283  11.389
72073SOL    HW118116  13.173   4.338  11.329
72073SOL    HW218117  13.154   4.194  11.371
72074SOL     OW18118   2.918   9.085   3.014
72074SOL    HW118119   2.933   9.177   3.039
72074SOL    HW218120   2.942   9.081   2.922
72075SOL     OW18121  12.952   1.092   9.479
72075SOL    HW118122  12.965   1.066   9.570
72075SOL    HW218123  13.036   1.076   9.437
72076SOL     OW18124   7.258   2.364   7.763
72076SOL    HW118125   7.186   2.416   7.727
72076SOL    HW218126   7.298   2.323   7.687
72077SOL     OW18127   1.009  13.155  14.611
72077SOL    HW118128   1.058  13.095  14.555
72077SOL    HW218129   0.978  13.223  14.552
72078SOL     OW18130   2.507   5.502   5.758
72078SOL    HW118131   2.476   5.589   5.783
72078SOL    HW218132   2.430   5.446   5.770
72079SOL     OW18133   4.373   3.642   7.517
72079SOL    HW118134   4.280   3.664   7.520
72079SOL    HW218135   4.405   3.685   7.438
72080SOL     OW18136   6.624  11.487   9.376
72080SOL    HW118137   6.542  11.516   9.336
72080SOL    HW218138   6.655  11.564   9.425
72081SOL     OW18139   7.553  11.479  11.746
72081SOL    HW118140   7.470  11.434  11.763
72081SOL    HW218141   7.536  11.569  11.772
72082SOL     OW18142   9.252   0.721  10.524
72082SOL    HW118143   9.302   0.676  10.592
72082SOL    HW218144   9.241   0.810  10.557
72083SOL     OW18145   1.579   7.731   7.604
72083SOL    HW118146   1.573   7.637   7.616
72083SOL    HW218147   1.504   7.767   7.651
72084SOL     OW18148  11.266   4.530   9.392
72084SOL    HW118149  11.317   4.469   9.338
72084SOL    HW218150  11.321   4.608   9.399
72085SOL     OW18151   7.411   8.518   8.722
72085SOL    HW118152   7.462   8.575   8.780
72085SOL    HW218153   7.365   8.579   8.664
72086SOL     OW18154  13.078   5.318   6.232
72086SOL    HW118155  13.153   5.360   6.190
72086SOL    HW218156  13.035   5.388   6.280
72087SOL     OW18157   7.691  10.664  14.122
72087SOL    HW118158   7.759  10.612  14.080
72087SOL    HW218159   7.633  10.691  14.051
72088SOL     OW18160   2.941   7.778   9.226
72088SOL    HW118161   2.871   7.795   9.289
72088SOL    HW218162   2.947   7.859   9.175
72089SOL     OW18163  10.208   5.925   7.912
72089SOL    HW118164  10.171   5.918   8.000
72089SOL    HW218165  10.302   5.912   7.925
72090SOL     OW18166   1.460   9.065   6.579
72090SOL    HW118167   1.536   9.043   6.633
72090SOL    HW218168   1.404   8.987   6.585
72091SOL     OW18169  13.993   0.383  10.012
72091SOL    HW118170  14.065   0.376   9.948
72091SOL    HW218171  13.914   0.374   9.959
72092SOL     OW18172   9.702  12.399  13.839
72092SOL    HW118173   9.630  12.434  13.892
72092SOL    HW218174   9.693  12.443  13.754
72093SOL     OW18175   3.967   3.755  12.620
72093SOL    HW118176   4.027   3.684  12.601
72093SOL    HW218177   3.967   3.763  12.715
72094SOL     OW18178  13.443   2.046   6.067
72094SOL    HW118179  13.437   2.138   6.041
72094SOL    HW218180  13.487   2.003   5.994
72095SOL     OW18181  11.044   9.398   9.619
72095SOL    HW118182  11.112   9.337   9.649
72095SOL    HW218183  11.072   9.424   9.532
72096SOL     OW18184  12.335  14.143   4.590
72096SOL    HW118185  12.244  14.112   4.586
72096SOL    HW218186  12.372  14.099   4.667
72097SOL     OW18187   9.296   8.958   5.826
72097SOL    HW118188   9.318   8.946   5.733
72097SOL    HW218189   9.314   8.874   5.866
72098SOL     OW18190   4.465   1.402   8.751
72098SOL    HW118191   4.531   1.429   8.688
72098SOL    HW218192   4.404   1.349   8.700
72099SOL     OW18193  11.736  14.014   7.037
72099SOL    HW118194  11.807  13.951   7.049
72099SOL    HW218195  11.758  14.086   7.095
72100SOL     OW18196  12.999   1.415   7.897
72100SOL    HW118197  13.087   1.412   7.933
72100SOL    HW218198  13.010   1.396   7.803
72101SOL     OW18199   1.568  13.410  10.062
72101SOL    HW118200   1.600  13.490  10.020
72101SOL    HW218201   1.490  13.386  10.012
72102SOL     OW18202  13.507  11.094  13.151
72102SOL    HW118203  13.494  11.027  13.084
72102SOL    HW218204  13.421  11.137  13.159
72103SOL     OW18205   9.484   3.829   3.004
72103SOL    HW118206   9.447   3.917   3.015
72103SOL    HW218207   9.418   3.770   3.042
72104SOL     OW18208   7.294  12.404   1.401
72104SOL    HW118209   7.331  12.444   1.323
72104SOL    HW218210   7.284  12.312   1.378
72105SOL     OW18211   4.438   7.076   7.055
72105SOL    HW118212   4.391   7.021   7.117
72105SOL    HW218213   4.472   7.015   6.990
72106SOL     OW18214   7.520   3.523  13.342
72106SOL    HW118215   7.539   3.493  13.253
72106SOL    HW218216   7.444   3.472  13.369
72107SOL     OW18217   8.378  13.021   4.032
72107SOL    HW118218   8.321  13.040   4.107
72107SOL    HW218219   8.464  13.007   4.071
72108SOL     OW18220   2.178   4.205   2.777
72108SOL    HW118221   2.100   4.166   2.818
72108SOL    HW218222   2.235   4.130   2.758
72109SOL     OW18223   2.388  12.407   4.701
72109SOL    HW118224   2.410  12.365   4.617
72109SOL    HW218225   2.345  12.489   4.676
72110SOL     OW18226   1.302  13.531   4.598
72110SOL    HW118227   1.360  13.479   4.652
72110SOL    HW218228   1.300  13.617   4.641
72111SOL     OW18229   2.592   5.099   7.987
72111SOL    HW118230   2.612   5.021   8.040
72111SOL    HW218231   2.540   5.154   8.045
72112SOL     OW18232   1.449   7.255  10.983
72112SOL    HW118233   1.391   7.179  10.974
72112SOL    HW218234   1.483   7.249  11.072
72113SOL     OW18235  10.388   1.582   5.349
72113SOL    HW118236  10.292   1.586   5.346
72113SOL    HW218237  10.413   1.522   5.279
72114SOL     OW18238  14.350   9.613  14.647
72114SOL    HW118239  14.343   9.677  14.577
72114SOL    HW218240  14.260   9.598  14.675
72115SOL     OW18241  14.374   9.493  13.196
72115SOL    HW118242  14.430   9.532  13.129
72115SOL    HW218243  14.375   9.399  13.177
72116SOL     OW18244  14.282   5.943  12.316
72116SOL    HW118245  14.283   6.005  12.243
72116SOL    HW218246  14.276   5.857  12.275
72117SOL     OW18247   8.823  10.271   1.194
72117SOL    HW118248   8.877  10.240   1.121
72117SOL    HW218249   8.804  10.362   1.172
72118SOL     OW18250   5.950  12.247   5.326
72118SOL    HW118251   5.919  12.157   5.334
72118SOL    HW218252   6.038  12.246   5.364
72119SOL     OW18253   4.508   8.739  13.870
72119SOL    HW118254   4.572   8.782  13.814
72119SOL    HW218255   4.427   8.740  13.819
72120SOL     OW18256   2.477  13.695   3.332
72120SOL    HW118257   2.478  13.754   3.407
72120SOL    HW218258   2.495  13.751   3.257
72121SOL     OW18259   1.576  13.095   5.946
72121SOL    HW118260   1.482  13.082   5.960
72121SOL    HW218261   1.581  13.162   5.878
72122SOL     OW18262   3.735  10.482   9.931
72122SOL    HW118263   3.739  10.578   9.930
72122SOL    HW218264   3.657  10.462   9.983
72123SOL     OW18265   6.992  13.980   2.149
72123SOL    HW118266   6.992  14.073   2.126
72123SOL    HW218267   6.904  13.949   2.129
72124SOL     OW18268   2.659  14.213  13.245
72124SOL    HW118269   2.572  14.196  13.208
72124SOL    HW218270   2.656  14.175  13.333
72125SOL     OW18271   0.404   2.967   0.262
72125SOL    HW118272   0.326   2.914   0.244
72125SOL    HW218273   0.379   3.024   0.334
72126SOL     OW18274  14.832  11.245   6.226
72126SOL    HW118275   0.045  11.211   6.212
72126SOL    HW218276  14.781  11.211   6.152
72127SOL     OW18277  13.339   2.136   1.180
72127SOL    HW118278  13.423   2.098   1.154
72127SOL    HW218279  13.281   2.116   1.107
72128SOL     OW18280   7.065  12.966   9.599
72128SOL    HW118281   6.970  12.959   9.609
72128SOL    HW218282   7.097  12.981   9.688
72129SOL     OW18283   2.583   7.297  10.183
72129SOL    HW118284   2.570   7.244  10.262
72129SOL    HW218285   2.666   7.266  10.147
72130SOL     OW18286  11.676   6.673   0.356
72130SOL    HW118287  11.692   6.579   0.356
72130SOL    HW218288  11.697   6.701   0.445
72131SOL     OW18289  11.387   2.507   7.517
72131SOL    HW118290  11.438   2.537   7.593
72131SOL    HW218291  11.432   2.427   7.490
72132SOL     OW18292  10.633  12.282  12.875
72132SOL    HW118293  10.573  12.353  12.853
72132SOL    HW218294  10.581  12.202  12.864
72133SOL     OW18295  12.349  11.912   6.023
72133SOL    HW118296  12.293  11.875   6.091
72133SOL    HW218297  12.379  11.836   5.973
72134SOL     OW18298   2.089   4.727  14.284
72134SOL    HW118299   2.068   4.726  14.378
72134SOL    HW218300   2.062   4.814  14.255
72135SOL     OW18301  13.139  12.004   1.496
72135SOL    HW118302  13.227  11.995   1.460
72135SOL    HW218303  13.084  11.951   1.438
72136SOL     OW18304   4.522   1.032  11.986
72136SOL    HW118305   4.587   1.056  11.920
72136SOL    HW218306   4.467   0.967  11.944
72137SOL     OW18307   1.016   6.767  14.567
72137SOL    HW118308   1.055   6.845  14.527
72137SOL    HW218309   1.088   6.723  14.610
72138SOL     OW18310   3.176   7.129   1.401
72138SOL    HW118311   3.259   7.146   1.356
72138SOL    HW218312   3.193   7.152   1.492
72139SOL     OW18313  11.668   0.522   7.431
72139SOL    HW118314  11.666   0.587   7.361
72139SOL    HW218315  11.652   0.438   7.387
72140SOL     OW18316   4.441   6.743  12.260
72140SOL    HW118317   4.521   6.720  12.214
72140SOL    HW218318   4.460   6.725  12.353
72141SOL     OW18319   5.164   9.995   8.195
72141SOL    HW118320   5.251  10.023   8.167
72141SOL    HW218321   5.175   9.966   8.285
72142SOL     OW18322   0.044   1.583   2.129
72142SOL    HW118323  14.850   1.633   2.085
72142SOL    HW218324   0.125   1.614   2.088
72143SOL     OW18325   3.554   8.725  11.209
72143SOL    HW118326   3.502   8.786  11.157
72143SOL    HW218327   3.584   8.660  11.146
72144SOL     OW18328   1.903  12.605  13.153
72144SOL    HW118329   1.889  12.568  13.066
72144SOL    HW218330   1.971  12.550  13.192
72145SOL     OW18331  12.770   4.556   3.525
72145SOL    HW118332  12.715   4.516   3.593
72145SOL    HW218333  12.837   4.604   3.574
72146SOL     OW18334   4.540  11.685   5.059
72146SOL    HW118335   4.459  11.680   5.111
72146SOL    HW218336   4.518  11.641   4.977
72147SOL     OW18337   3.166  10.300  14.377
72147SOL    HW118338   3.226  10.345  14.318
72147SOL    HW218339   3.223  10.248  14.434
72148SOL     OW18340  10.207   7.388   5.284
72148SOL    HW118341  10.129   7.432   5.319
72148SOL    HW218342  10.204   7.405   5.190
72149SOL     OW18343   5.669  14.664   5.421
72149SOL    HW118344   5.637  14.663   5.331
72149SOL    HW218345   5.717  14.747   5.429
72150SOL     OW18346   0.642  10.286  10.243
72150SOL    HW118347   0.667  10.373  10.210
72150SOL    HW218348   0.556  10.299  10.283
72151SOL     OW18349   5.584   0.608   6.624
72151SOL    HW118350   5.499   0.581   6.661
72151SOL    HW218351   5.632   0.526   6.611
72152SOL     OW18352   5.376  14.205   0.882
72152SOL    HW118353   5.296  14.225   0.833
72152SOL    HW218354   5.379  14.110   0.886
72153SOL     OW18355   1.700   2.913   5.142
72153SOL    HW118356   1.789   2.878   5.137
72153SOL    HW218357   1.647   2.839   5.170
72154SOL     OW18358   0.038   1.396   2.853
72154SOL    HW118359   0.131   1.375   2.861
72154SOL    HW218360  14.871   1.312   2.831
72155SOL     OW18361  13.496   1.550   6.443
72155SOL    HW118362  13.487   1.631   6.494
72155SOL    HW218363  13.585   1.554   6.408
72156SOL     OW18364  13.028   3.893  14.629
72156SOL    HW118365  13.057   3.984  14.633
72156SOL    HW218366  13.088   3.851  14.567
72157SOL     OW18367   1.207   9.163  13.321
72157SOL    HW118368   1.245   9.142  13.235
72157SOL    HW218369   1.228   9.256  13.334
72158SOL     OW18370   4.552  14.629  14.257
72158SOL    HW118371   4.641  14.598  14.274
72158SOL    HW218372   4.558  14.680  14.177
72159SOL     OW18373   5.297   7.549   1.022
72159SOL    HW118374   5.283   7.616   1.089
72159SOL    HW218375   5.248   7.579   0.946
72160SOL     OW18376  12.749  12.795   1.585
72160SOL    HW118377  12.682  12.748   1.634
72160SOL    HW218378  12.831  12.773   1.629
72161SOL     OW18379   7.804   8.919  13.129
72161SOL    HW118380   7.897   8.932  13.143
72161SOL    HW218381   7.793   8.925  13.034
72162SOL     OW18382   4.644  13.973   6.357
72162SOL    HW118383   4.674  13.959   6.268
72162SOL    HW218384   4.620  14.065   6.361
72163SOL     OW18385  10.624   1.771  11.912
72163SOL    HW118386  10.558   1.722  11.962
72163SOL    HW218387  10.688   1.704  11.886
72164SOL     OW18388  10.557  11.309   7.565
72164SOL    HW118389  10.591  11.366   7.633
72164SOL    HW218390  10.543  11.225   7.609
72165SOL     OW18391   3.148   4.820  12.701
72165SOL    HW118392   3.094   4.861  12.633
72165SOL    HW218393   3.159   4.887  12.768
72166SOL     OW18394   6.891   5.084  12.996
72166SOL    HW118395   6.813   5.044  12.959
72166SOL    HW218396   6.865   5.174  13.015
72167SOL     OW18397   9.467   1.396   8.848
72167SOL    HW118398   9.513   1.326   8.894
72167SOL    HW218399   9.514   1.475   8.872
72168SOL     OW18400   3.183   2.124  14.854
72168SOL    HW118401   3.112   2.188  14.846
72168SOL    HW218402   3.207   2.127   0.071
72169SOL     OW18403   7.569   2.172   1.042
72169SOL    HW118404   7.614   2.147   1.123
72169SOL    HW218405   7.569   2.267   1.043
72170SOL     OW18406   4.229   2.586   4.414
72170SOL    HW118407   4.138   2.563   4.432
72170SOL    HW218408   4.270   2.590   4.500
72171SOL     OW18409   8.296   6.197  14.847
72171SOL    HW118410   8.255   6.265  14.793
72171SOL    HW218411   8.298   6.120  14.791
72172SOL     OW18412  10.997   0.430   2.372
72172SOL    HW118413  11.066   0.370   2.344
72172SOL    HW218414  10.918   0.398   2.326
72173SOL     OW18415   8.802   5.915   4.993
72173SOL    HW118416   8.895   5.932   4.977
72173SOL    HW218417   8.777   5.854   4.924
72174SOL     OW18418   6.910  11.003   2.816
72174SOL    HW118419   6.962  10.997   2.896
72174SOL    HW218420   6.948  11.076   2.767
72175SOL     OW18421  13.320  12.250  10.680
72175SOL    HW118422  13.338  12.269  10.588
72175SOL    HW218423  13.388  12.188  10.707
72176SOL     OW18424   4.917  12.831  10.641
72176SOL    HW118425   4.861  12.807  10.715
72176SOL    HW218426   5.005  12.804  10.667
72177SOL     OW18427   3.328   2.545   3.110
72177SOL    HW118428   3.264   2.474   3.116
72177SOL    HW218429   3.383   2.522   3.034
72178SOL     OW18430  12.670  14.063   3.396
72178SOL    HW118431  12.667  14.098   3.307
72178SOL    HW218432  12.700  14.136   3.450
72179SOL     OW18433   8.652   8.761   7.091
72179SOL    HW118434   8.730   8.814   7.109
72179SOL    HW218435   8.609   8.805   7.019
72180SOL     OW18436   2.432   9.229   3.632
72180SOL    HW118437   2.509   9.180   3.661
72180SOL    HW218438   2.466   9.294   3.572
72181SOL     OW18439   5.658  10.440   4.478
72181SOL    HW118440   5.735  10.492   4.456
72181SOL    HW218441   5.593  10.505   4.507
72182SOL     OW18442   1.021   8.040   2.475
72182SOL    HW118443   1.005   7.950   2.448
72182SOL    HW218444   1.094   8.069   2.420
72183SOL     OW18445  13.464   8.177   1.088
72183SOL    HW118446  13.387   8.132   1.123
72183SOL    HW218447  13.526   8.178   1.161
72184SOL     OW18448   2.788   8.466   6.084
72184SOL    HW118449   2.762   8.378   6.109
72184SOL    HW218450   2.830   8.456   5.998
72185SOL     OW18451  14.031  13.559   2.949
72185SOL    HW118452  14.072  13.608   3.020
72185SOL    HW218453  14.040  13.468   2.975
72186SOL     OW18454   6.733  14.333   9.904
72186SOL    HW118455   6.803  14.398   9.905
72186SOL    HW218456   6.656  14.380   9.872
72187SOL     OW18457   5.969   7.574  10.734
72187SOL    HW118458   6.064   7.566  10.744
72187SOL    HW218459   5.952   7.668  10.740
72188SOL     OW18460   1.968   1.284   5.416
72188SOL    HW118461   1.882   1.289   5.458
72188SOL    HW218462   1.975   1.193   5.386
72189SOL     OW18463   1.427  13.999   6.155
72189SOL    HW118464   1.395  14.057   6.224
72189SOL    HW218465   1.480  13.934   6.201
72190SOL     OW18466   0.542   1.098  10.569
72190SOL    HW118467   0.620   1.133  10.611
72190SOL    HW218468   0.549   1.124  10.478
72191SOL     OW18469   3.170   7.046   6.684
72191SOL    HW118470   3.249   6.993   6.695
72191SOL    HW218471   3.188   7.127   6.732
72192SOL     OW18472  12.594   4.931   7.826
72192SOL    HW118473  12.651   4.859   7.798
72192SOL    HW218474  12.641   5.010   7.801
72193SOL     OW18475   6.874   3.951   0.494
72193SOL    HW118476   6.826   3.869   0.479
72193SOL    HW218477   6.851   4.005   0.418
72194SOL     OW18478   8.127   9.070  13.459
72194SOL    HW118479   8.040   9.040  13.432
72194SOL    HW218480   8.187   9.003  13.426
72195SOL     OW18481  13.328   9.457   8.540
72195SOL    HW118482  13.355   9.454   8.632
72195SOL    HW218483  13.340   9.548   8.514
72196SOL     OW18484   0.750  12.564   7.179
72196SOL    HW118485   0.763  12.544   7.086
72196SOL    HW218486   0.666  12.611   7.181
72197SOL     OW18487   9.835  10.034   0.040
72197SOL    HW118488   9.747  10.065   0.020
72197SOL    HW218489   9.888  10.114   0.049
72198SOL     OW18490   6.321   6.350  11.033
72198SOL    HW118491   6.392   6.349  10.969
72198SOL    HW218492   6.331   6.267  11.081
72199SOL     OW18493   6.115   7.702   2.805
72199SOL    HW118494   6.100   7.742   2.891
72199SOL    HW218495   6.183   7.636   2.821
72200SOL     OW18496   5.702   6.756   8.379
72200SOL    HW118497   5.709   6.842   8.337
72200SOL    HW218498   5.630   6.713   8.333
72201SOL     OW18499   8.735  10.498   3.669
72201SOL    HW118500   8.777  10.546   3.598
72201SOL    HW218501   8.705  10.417   3.628
72202SOL     OW18502   5.708   9.658   4.063
72202SOL    HW118503   5.700   9.712   3.985
72202SOL    HW218504   5.796   9.677   4.097
72203SOL     OW18505  11.805   5.501   2.542
72203SOL    HW118506  11.759   5.550   2.473
72203SOL    HW218507  11.892   5.539   2.545
72204SOL     OW18508   5.372   0.301   0.385
72204SOL    HW118509   5.413   0.386   0.373
72204SOL    HW218510   5.400   0.250   0.309
72205SOL     OW18511   6.241  14.180   1.802
72205SOL    HW118512   6.159  14.181   1.753
72205SOL    HW218513   6.262  14.088   1.813
72206SOL     OW18514   5.283  13.403   6.017
72206SOL    HW118515   5.279  13.428   5.925
72206SOL    HW218516   5.193  13.406   6.047
72207SOL     OW18517   7.335  12.514   6.936
72207SOL    HW118518   7.272  12.560   6.992
72207SOL    HW218519   7.420  12.549   6.963
72208SOL     OW18520   1.606   4.610   1.072
72208SOL    HW118521   1.604   4.573   1.160
72208SOL    HW218522   1.683   4.668   1.072
72209SOL     OW18523   7.601  10.455   7.092
72209SOL    HW118524   7.596  10.398   7.015
72209SOL    HW218525   7.544  10.529   7.070
72210SOL     OW18526   0.254   0.488   7.324
72210SOL    HW118527   0.293   0.444   7.399
72210SOL    HW218528   0.325   0.541   7.288
72211SOL     OW18529   4.951   1.043  14.747
72211SOL    HW118530   4.893   1.115  14.771
72211SOL    HW218531   5.002   1.076  14.673
72212SOL     OW18532   7.537   0.778   8.715
72212SOL    HW118533   7.595   0.732   8.776
72212SOL    HW218534   7.504   0.710   8.657
72213SOL     OW18535  10.524  11.522  12.180
72213SOL    HW118536  10.452  11.504  12.240
72213SOL    HW218537  10.602  11.488  12.225
72214SOL     OW18538   0.427   8.356   3.903
72214SOL    HW118539   0.415   8.347   3.998
72214SOL    HW218540   0.521   8.344   3.890
72215SOL     OW18541   7.012  11.536   6.982
72215SOL    HW118542   7.104  11.562   6.976
72215SOL    HW218543   7.011  11.463   7.044
72216SOL     OW18544   1.294  10.889  12.318
72216SOL    HW118545   1.357  10.816  12.317
72216SOL    HW218546   1.344  10.964  12.286
72217SOL     OW18547  10.481  13.218   2.790
72217SOL    HW118548  10.474  13.290   2.726
72217SOL    HW218549  10.546  13.249   2.853
72218SOL     OW18550   0.333   8.487   2.134
72218SOL    HW118551   0.239   8.472   2.125
72218SOL    HW218552   0.341   8.574   2.173
72219SOL     OW18553  12.649   3.087  10.156
72219SOL    HW118554  12.684   3.026  10.090
72219SOL    HW218555  12.647   3.036  10.237
72220SOL     OW18556  12.112   1.347  12.282
72220SOL    HW118557  12.104   1.406  12.207
72220SOL    HW218558  12.035   1.290  12.277
72221SOL     OW18559   3.022   0.019   2.191
72221SOL    HW118560   2.987   0.009   2.279
72221SOL    HW218561   3.114   0.042   2.204
72222SOL     OW18562  11.366  14.461  14.387
72222SOL    HW118563  11.420  14.474  14.465
72222SOL    HW218564  11.415  14.502  14.317
72223SOL     OW18565   0.970   8.244   7.568
72223SOL    HW118566   0.884   8.209   7.591
72223SOL    HW218567   1.019   8.241   7.649
72224SOL     OW18568   7.475  14.569  13.922
72224SOL    HW118569   7.558  14.616  13.919
72224SOL    HW218570   7.482  14.512  13.998
72225SOL     OW18571   4.129  13.802   1.253
72225SOL    HW118572   4.185  13.880   1.259
72225SOL    HW218573   4.187  13.733   1.221
72226SOL     OW18574   6.606   5.497  11.554
72226SOL    HW118575   6.524   5.546  11.560
72226SOL    HW218576   6.600   5.431  11.623
72227SOL     OW18577  13.843  14.324   0.959
72227SOL    HW118578  13.887  14.400   0.998
72227SOL    HW218579  13.869  14.250   1.014
72228SOL     OW18580   0.793   0.046  13.726
72228SOL    HW118581   0.832   0.129  13.697
72228SOL    HW218582   0.699   0.065  13.733
72229SOL     OW18583   9.920   8.863   3.388
72229SOL    HW118584   9.983   8.875   3.317
72229SOL    HW218585   9.958   8.793   3.442
72230SOL     OW18586  14.708  11.155  13.552
72230SOL    HW118587  14.798  11.156  13.519
72230SOL    HW218588  14.716  11.121  13.642
72231SOL     OW18589   7.879  14.239   9.677
72231SOL    HW118590   7.965  14.281   9.668
72231SOL    HW218591   7.818  14.301   9.637
72232SOL     OW18592  13.252   5.183  10.511
72232SOL    HW118593  13.241   5.118  10.441
72232SOL    HW218594  13.229   5.266  10.470
72233SOL     OW18595   2.902  12.572  11.238
72233SOL    HW118596   2.896  12.652  11.292
72233SOL    HW218597   2.836  12.585  11.170
72234SOL     OW18598  12.663   0.424  10.329
72234SOL    HW118599  12.652   0.342  10.280
72234SOL    HW218600  12.749   0.456  10.303
72235SOL     OW18601  12.404   7.622  13.367
72235SOL    HW118602  12.409   7.577  13.451
72235SOL    HW218603  12.350   7.699  13.385
72236SOL     OW18604   7.065   7.627  14.198
72236SOL    HW118605   7.010   7.550  14.188
72236SOL    HW218606   7.107   7.637  14.112
72237SOL     OW18607  13.806   1.808   8.685
72237SOL    HW118608  13.716   1.816   8.716
72237SOL    HW218609  13.848   1.749   8.748
72238SOL     OW18610   6.330   3.935   9.638
72238SOL    HW118611   6.421   3.958   9.618
72238SOL    HW218612   6.280   3.974   9.567
72239SOL     OW18613   2.181  11.939  12.544
72239SOL    HW118614   2.236  11.956  12.467
72239SOL    HW218615   2.235  11.965  12.618
72240SOL     OW18616   3.552   2.473   6.452
72240SOL    HW118617   3.508   2.486   6.536
72240SOL    HW218618   3.588   2.559   6.430
72241SOL     OW18619   3.551   8.149  12.046
72241SOL    HW118620   3.473   8.150  12.101
72241SOL    HW218621   3.624   8.152  12.108
72242SOL     OW18622   2.564   9.771   9.450
72242SOL    HW118623   2.519   9.734   9.526
72242SOL    HW218624   2.553   9.706   9.381
72243SOL     OW18625   9.482   4.804  14.561
72243SOL    HW118626   9.566   4.834  14.596
72243SOL    HW218627   9.467   4.858  14.484
72244SOL     OW18628  13.363   8.929   5.660
72244SOL    HW118629  13.416   8.852   5.679
72244SOL    HW218630  13.415   9.003   5.691
72245SOL     OW18631  11.847  13.287  10.075
72245SOL    HW118632  11.761  13.300  10.036
72245SOL    HW218633  11.837  13.208  10.129
72246SOL     OW18634   8.812   5.304  13.972
72246SOL    HW118635   8.857   5.238  13.921
72246SOL    HW218636   8.873   5.377  13.977
72247SOL     OW18637  12.598  14.664   5.242
72247SOL    HW118638  12.598  14.573   5.273
72247SOL    HW218639  12.611  14.657   5.148
72248SOL     OW18640   8.987  12.387  10.775
72248SOL    HW118641   9.052  12.451  10.745
72248SOL    HW218642   9.038  12.309  10.796
72249SOL     OW18643   9.588  14.613   9.374
72249SOL    HW118644   9.574  14.647   9.462
72249SOL    HW218645   9.584  14.691   9.317
72250SOL     OW18646   5.459   7.996   9.087
72250SOL    HW118647   5.486   7.922   9.033
72250SOL    HW218648   5.470   8.072   9.031
72251SOL     OW18649   3.741   8.843  14.464
72251SOL    HW118650   3.816   8.845  14.405
72251SOL    HW218651   3.770   8.891  14.542
72252SOL     OW18652   0.642   6.028   3.706
72252SOL    HW118653   0.553   6.007   3.680
72252SOL    HW218654   0.632   6.088   3.780
72253SOL     OW18655   7.040  13.135   8.253
72253SOL    HW118656   7.048  13.101   8.342
72253SOL    HW218657   7.104  13.087   8.202
72254SOL     OW18658   3.774  10.592  14.682
72254SOL    HW118659   3.714  10.639  14.739
72254SOL    HW218660   3.719  10.567  14.607
72255SOL     OW18661  11.347   8.271   6.997
72255SOL    HW118662  11.263   8.229   6.978
72255SOL    HW218663  11.411   8.217   6.949
72256SOL     OW18664   0.908   3.816   0.821
72256SOL    HW118665   0.828   3.841   0.774
72256SOL    HW218666   0.917   3.883   0.889
72257SOL     OW18667   8.403   7.465   9.544
72257SOL    HW118668   8.405   7.546   9.493
72257SOL    HW218669   8.329   7.475   9.603
72258SOL     OW18670   0.684   5.157   7.752
72258SOL    HW118671   0.759   5.196   7.707
72258SOL    HW218672   0.723   5.099   7.818
72259SOL     OW18673   7.727  11.060  12.704
72259SOL    HW118674   7.664  11.129  12.682
72259SOL    HW218675   7.705  10.988  12.646
72260SOL     OW18676  12.518   1.842   5.856
72260SOL    HW118677  12.541   1.752   5.833
72260SOL    HW218678  12.422   1.844   5.855
72261SOL     OW18679   2.372   2.032   0.712
72261SOL    HW118680   2.278   2.017   0.707
72261SOL    HW218681   2.410   1.945   0.727
72262SOL     OW18682  11.544   5.240   3.007
72262SOL    HW118683  11.507   5.242   2.919
72262SOL    HW218684  11.582   5.327   3.019
72263SOL     OW18685   9.775   4.817   0.883
72263SOL    HW118686   9.706   4.797   0.819
72263SOL    HW218687   9.757   4.907   0.911
72264SOL     OW18688   5.561   8.830   5.028
72264SOL    HW118689   5.641   8.808   5.076
72264SOL    HW218690   5.490   8.801   5.085
72265SOL     OW18691   8.409  11.704   8.211
72265SOL    HW118692   8.424  11.623   8.162
72265SOL    HW218693   8.494  11.749   8.210
72266SOL     OW18694   0.302  13.868   5.711
72266SOL    HW118695   0.297  13.862   5.807
72266SOL    HW218696   0.213  13.890   5.684
72267SOL     OW18697   5.583   1.839   6.219
72267SOL    HW118698   5.542   1.842   6.306
72267SOL    HW218699   5.513   1.808   6.161
72268SOL     OW18700   3.454   8.416   3.346
72268SOL    HW118701   3.430   8.447   3.434
72268SOL    HW218702   3.417   8.481   3.287
72269SOL     OW18703   5.381   0.414  13.673
72269SOL    HW118704   5.410   0.432  13.583
72269SOL    HW218705   5.445   0.460  13.727
72270SOL     OW18706  10.606  10.310   7.608
72270SOL    HW118707  10.530  10.290   7.552
72270SOL    HW218708  10.567  10.333   7.693
72271SOL     OW18709   7.106   1.251   2.143
72271SOL    HW118710   7.078   1.312   2.075
72271SOL    HW218711   7.150   1.306   2.208
72272SOL     OW18712  10.595  11.706   9.394
72272SOL    HW118713  10.669  11.726   9.336
72272SOL    HW218714  10.606  11.765   9.468
72273SOL     OW18715  12.276   8.961  12.852
72273SOL    HW118716  12.204   9.023  12.866
72273SOL    HW218717  12.259   8.890  12.915
72274SOL     OW18718   4.104   4.305   8.156
72274SOL    HW118719   4.178   4.291   8.215
72274SOL    HW218720   4.135   4.369   8.093
72275SOL     OW18721  14.209  12.637  10.899
72275SOL    HW118722  14.240  12.726  10.913
72275SOL    HW218723  14.265  12.603  10.828
72276SOL     OW18724  14.623   3.460   9.219
72276SOL    HW118725  14.571   3.396   9.170
72276SOL    HW218726  14.568   3.481   9.295
72277SOL     OW18727  14.442   2.361   9.351
72277SOL    HW118728  14.521   2.406   9.380
72277SOL    HW218729  14.456   2.345   9.258
72278SOL     OW18730   4.330   3.871   0.980
72278SOL    HW118731   4.386   3.820   0.922
72278SOL    HW218732   4.283   3.804   1.031
72279SOL     OW18733   9.838   5.986   9.577
72279SOL    HW118734   9.781   6.032   9.639
72279SOL    HW218735   9.780   5.927   9.530
72280SOL     OW18736   8.966   4.368  11.951
72280SOL    HW118737   8.985   4.426  11.878
72280SOL    HW218738   9.047   4.319  11.965
72281SOL     OW18739   6.062   0.348  14.477
72281SOL    HW118740   6.136   0.391  14.434
72281SOL    HW218741   5.989   0.408  14.463
72282SOL     OW18742   0.895  13.283   8.975
72282SOL    HW118743   0.909  13.377   8.959
72282SOL    HW218744   0.963  13.240   8.923
72283SOL     OW18745  10.408   5.725   3.459
72283SOL    HW118746  10.465   5.722   3.382
72283SOL    HW218747  10.352   5.648   3.450
72284SOL     OW18748   4.922   2.839   3.958
72284SOL    HW118749   4.903   2.770   3.895
72284SOL    HW218750   5.000   2.882   3.924
72285SOL     OW18751   8.433  11.236   0.460
72285SOL    HW118752   8.388  11.151   0.460
72285SOL    HW218753   8.440  11.260   0.552
72286SOL     OW18754  14.067   5.514   2.909
72286SOL    HW118755  14.130   5.523   2.980
72286SOL    HW218756  13.981   5.518   2.952
72287SOL     OW18757   1.756   8.577   5.440
72287SOL    HW118758   1.738   8.602   5.349
72287SOL    HW218759   1.687   8.620   5.491
72288SOL     OW18760   4.561  10.996   4.125
72288SOL    HW118761   4.577  10.929   4.058
72288SOL    HW218762   4.466  11.003   4.129
72289SOL     OW18763   9.343   1.604  14.786
72289SOL    HW118764   9.427   1.594  14.743
72289SOL    HW218765   9.298   1.520  14.772
72290SOL     OW18766  13.848   0.012  12.023
72290SOL    HW118767  13.800  14.809  12.053
72290SOL    HW218768  13.921  14.851  11.973
72291SOL     OW18769  12.549   8.009   3.919
72291SOL    HW118770  12.488   7.952   3.965
72291SOL    HW218771  12.508   8.095   3.920
72292SOL     OW18772  12.941   6.385  12.172
72292SOL    HW118773  12.965   6.405  12.262
72292SOL    HW218774  12.934   6.290  12.170
72293SOL     OW18775  12.541   8.837   2.384
72293SOL    HW118776  12.475   8.875   2.441
72293SOL    HW218777  12.622   8.882   2.407
72294SOL     OW18778   2.844  13.875  10.477
72294SOL    HW118779   2.924  13.890  10.527
72294SOL    HW218780   2.817  13.963  10.449
72295SOL     OW18781   4.423   0.593   8.610
72295SOL    HW118782   4.444   0.611   8.702
72295SOL    HW218783   4.466   0.509   8.592
72296SOL     OW18784   5.694   3.978  12.414
72296SOL    HW118785   5.685   4.072  12.434
72296SOL    HW218786   5.608   3.942  12.432
72297SOL     OW18787   3.945   3.314   8.648
72297SOL    HW118788   4.038   3.293   8.637
72297SOL    HW218789   3.931   3.314   8.742
72298SOL     OW18790  12.226   9.469   2.827
72298SOL    HW118791  12.228   9.563   2.843
72298SOL    HW218792  12.194   9.431   2.909
72299SOL     OW18793   1.509   4.211   7.480
72299SOL    HW118794   1.564   4.138   7.507
72299SOL    HW218795   1.493   4.261   7.561
72300SOL     OW18796   2.574  12.939   2.020
72300SOL    HW118797   2.543  12.901   1.938
72300SOL    HW218798   2.633  13.010   1.993
72301SOL     OW18799  11.589  11.458  14.623
72301SOL    HW118800  11.646  11.433  14.697
72301SOL    HW218801  11.644  11.445  14.546
72302SOL     OW18802   6.296   0.139   4.408
72302SOL    HW118803   6.222   0.099   4.452
72302SOL    HW218804   6.316   0.080   4.335
72303SOL     OW18805  13.097   8.480   7.657
72303SOL    HW118806  13.141   8.534   7.591
72303SOL    HW218807  13.007   8.472   7.626
72304SOL     OW18808   2.901   0.400   2.022
72304SOL    HW118809   2.903   0.320   1.969
72304SOL    HW218810   2.851   0.377   2.099
72305SOL     OW18811  12.138  13.285   1.168
72305SOL    HW118812  12.183  13.370   1.168
72305SOL    HW218813  12.190  13.231   1.108
72306SOL     OW18814   5.262  13.204   4.780
72306SOL    HW118815   5.263  13.141   4.708
72306SOL    HW218816   5.173  13.239   4.780
72307SOL     OW18817   8.657   9.545   6.723
72307SOL    HW118818   8.753   9.541   6.725
72307SOL    HW218819   8.631   9.548   6.815
72308SOL     OW18820   1.060  11.478  13.547
72308SOL    HW118821   1.155  11.465  13.544
72308SOL    HW218822   1.038  11.473  13.639
72309SOL     OW18823  14.766   7.368  10.818
72309SOL    HW118824  14.810   7.402  10.896
72309SOL    HW218825  14.720   7.290  10.848
72310SOL     OW18826   3.177   2.729   7.824
72310SOL    HW118827   3.257   2.760   7.782
72310SOL    HW218828   3.207   2.682   7.902
72311SOL     OW18829   1.279  11.005   6.089
72311SOL    HW118830   1.301  11.098   6.084
72311SOL    HW218831   1.284  10.984   6.183
72312SOL     OW18832   6.126   5.985   1.447
72312SOL    HW118833   6.139   5.890   1.450
72312SOL    HW218834   6.064   5.998   1.376
72313SOL     OW18835   5.729   8.493   5.024
72313SOL    HW118836   5.637   8.514   5.006
72313SOL    HW218837   5.772   8.501   4.939
72314SOL     OW18838   3.372   3.433  11.651
72314SOL    HW118839   3.454   3.483  11.646
72314SOL    HW218840   3.397   3.345  11.624
72315SOL     OW18841   0.470  10.272  11.951
72315SOL    HW118842   0.548  10.266  12.006
72315SOL    HW218843   0.497  10.232  11.868
72316SOL     OW18844   6.954   1.233   0.603
72316SOL    HW118845   6.954   1.323   0.568
72316SOL    HW218846   6.882   1.190   0.557
72317SOL     OW18847   0.743   6.902  12.955
72317SOL    HW118848   0.754   6.977  13.014
72317SOL    HW218849   0.799   6.834  12.992
72318SOL     OW18850   5.030   7.722   1.486
72318SOL    HW118851   5.009   7.792   1.424
72318SOL    HW218852   5.065   7.768   1.562
72319SOL     OW18853   7.222   4.949   7.016
72319SOL    HW118854   7.131   4.918   7.016
72319SOL    HW218855   7.246   4.954   7.108
72320SOL     OW18856  13.770  12.117   2.294
72320SOL    HW118857  13.803  12.029   2.276
72320SOL    HW218858  13.771  12.123   2.390
72321SOL     OW18859   4.255   9.879   8.267
72321SOL    HW118860   4.168   9.884   8.226
72321SOL    HW218861   4.295   9.801   8.230
72322SOL     OW18862   1.841   0.623   3.419
72322SOL    HW118863   1.855   0.708   3.379
72322SOL    HW218864   1.924   0.602   3.462
72323SOL     OW18865  10.033   8.193   4.544
72323SOL    HW118866  10.029   8.193   4.639
72323SOL    HW218867   9.945   8.219   4.516
72324SOL     OW18868   3.571  12.123   8.910
72324SOL    HW118869   3.528  12.208   8.914
72324SOL    HW218870   3.616  12.115   8.994
72325SOL     OW18871  10.561   5.712   3.218
72325SOL    HW118872  10.498   5.675   3.156
72325SOL    HW218873  10.614   5.772   3.166
72326SOL     OW18874   4.877   8.878   8.087
72326SOL    HW118875   4.836   8.877   8.000
72326SOL    HW218876   4.874   8.787   8.116
72327SOL     OW18877   1.437   6.058   5.084
72327SOL    HW118878   1.348   6.056   5.119
72327SOL    HW218879   1.427   6.087   4.994
72328SOL     OW18880   5.465   4.291  11.465
72328SOL    HW118881   5.449   4.312  11.373
72328SOL    HW218882   5.386   4.319  11.511
72329SOL     OW18883   7.143  12.305  14.005
72329SOL    HW118884   7.122  12.222  14.047
72329SOL    HW218885   7.061  12.333  13.964
72330SOL     OW18886   5.439  12.428  12.391
72330SOL    HW118887   5.403  12.505  12.346
72330SOL    HW218888   5.462  12.459  12.478
72331SOL     OW18889   2.128   4.408   8.336
72331SOL    HW118890   2.147   4.314   8.345
72331SOL    HW218891   2.188   4.450   8.398
72332SOL     OW18892   0.732  13.248   8.284
72332SOL    HW118893   0.800  13.221   8.221
72332SOL    HW218894   0.758  13.335   8.312
72333SOL     OW18895   0.611   2.192   9.664
72333SOL    HW118896   0.518   2.214   9.667
72333SOL    HW218897   0.656   2.276   9.662
72334SOL     OW18898  10.723   9.257   8.533
72334SOL    HW118899  10.782   9.184   8.553
72334SOL    HW218900  10.649   9.246   8.591
72335SOL     OW18901   0.123   6.153  12.596
72335SOL    HW118902   0.081   6.075  12.633
72335SOL    HW218903   0.068   6.177  12.522
72336SOL     OW18904   1.736   9.404   5.820
72336SOL    HW118905   1.754   9.436   5.908
72336SOL    HW218906   1.792   9.456   5.763
72337SOL     OW18907   1.354   8.274   1.939
72337SOL    HW118908   1.363   8.219   2.017
72337SOL    HW218909   1.401   8.355   1.962
72338SOL     OW18910   0.802   3.691  12.050
72338SOL    HW118911   0.811   3.620  11.986
72338SOL    HW218912   0.787   3.770  11.997
72339SOL     OW18913   5.207  11.963   8.343
72339SOL    HW118914   5.146  11.901   8.302
72339SOL    HW218915   5.160  12.046   8.344
72340SOL     OW18916   0.593  10.424  10.555
72340SOL    HW118917   0.579  10.389  10.643
72340SOL    HW218918   0.661  10.368  10.518
72341SOL     OW18919  13.318  12.667   4.392
72341SOL    HW118920  13.302  12.605   4.463
72341SOL    HW218921  13.231  12.687   4.358
72342SOL     OW18922  11.380   3.932   3.423
72342SOL    HW118923  11.407   3.855   3.472
72342SOL    HW218924  11.401   3.913   3.332
72343SOL     OW18925   0.999   9.572  11.447
72343SOL    HW118926   0.929   9.637  11.451
72343SOL    HW218927   0.979   9.510  11.517
72344SOL     OW18928   1.041  13.865   0.669
72344SOL    HW118929   1.075  13.943   0.713
72344SOL    HW218930   0.946  13.871   0.679
72345SOL     OW18931   3.005   8.438  12.401
72345SOL    HW118932   2.924   8.431  12.351
72345SOL    HW218933   3.045   8.519  12.370
72346SOL     OW18934   1.157  13.497  14.574
72346SOL    HW118935   1.081  13.451  14.538
72346SOL    HW218936   1.232  13.452  14.535
72347SOL     OW18937  12.184   3.907   6.338
72347SOL    HW118938  12.158   3.956   6.260
72347SOL    HW218939  12.212   3.821   6.304
72348SOL     OW18940  13.923   9.812   5.116
72348SOL    HW118941  13.907   9.841   5.205
72348SOL    HW218942  13.870   9.733   5.106
72349SOL     OW18943   2.923   5.169   2.086
72349SOL    HW118944   2.842   5.214   2.112
72349SOL    HW218945   2.945   5.116   2.163
72350SOL     OW18946  11.366  11.631  11.911
72350SOL    HW118947  11.448  11.650  11.865
72350SOL    HW218948  11.298  11.666  11.855
72351SOL     OW18949   2.273  13.919  11.521
72351SOL    HW118950   2.193  13.889  11.564
72351SOL    HW218951   2.278  14.013  11.541
72352SOL     OW18952  10.808   3.620  11.921
72352SOL    HW118953  10.890   3.584  11.956
72352SOL    HW218954  10.829   3.643  11.831
72353SOL     OW18955   4.255   8.473  14.446
72353SOL    HW118956   4.232   8.384  14.473
72353SOL    HW218957   4.225   8.480  14.356
72354SOL     OW18958  10.391   4.624   0.835
72354SOL    HW118959  10.339   4.652   0.910
72354SOL    HW218960  10.475   4.598   0.872
72355SOL     OW18961   9.146   8.605   3.637
72355SOL    HW118962   9.183   8.655   3.709
72355SOL    HW218963   9.134   8.669   3.566
72356SOL     OW18964  12.103   1.842  10.920
72356SOL    HW118965  12.089   1.752  10.889
72356SOL    HW218966  12.147   1.831  11.004
72357SOL     OW18967   5.750  11.512  11.281
72357SOL    HW118968   5.782  11.425  11.305
72357SOL    HW218969   5.829  11.565  11.271
72358SOL     OW18970  11.753  12.575   1.368
72358SOL    HW118971  11.815  12.647   1.357
72358SOL    HW218972  11.702  12.598   1.445
72359SOL     OW18973  11.533   6.766  11.310
72359SOL    HW118974  11.613   6.752  11.361
72359SOL    HW218975  11.529   6.691  11.251
72360SOL     OW18976   5.045  12.067  12.441
72360SOL    HW118977   5.034  12.028  12.528
72360SOL    HW218978   5.138  12.053  12.420
72361SOL     OW18979   5.592   5.281  12.691
72361SOL    HW118980   5.512   5.232  12.711
72361SOL    HW218981   5.562   5.361  12.648
72362SOL     OW18982   3.143  12.826   5.227
72362SOL    HW118983   3.238  12.835   5.215
72362SOL    HW218984   3.105  12.859   5.146
72363SOL     OW18985   9.081   2.859  14.582
72363SOL    HW118986   9.172   2.830  14.592
72363SOL    HW218987   9.063   2.850  14.489
72364SOL     OW18988  10.540   7.531   6.686
72364SOL    HW118989  10.587   7.586   6.623
72364SOL    HW218990  10.606   7.470   6.719
72365SOL     OW18991   9.613   7.441   9.709
72365SOL    HW118992   9.650   7.449   9.621
72365SOL    HW218993   9.520   7.462   9.697
72366SOL     OW18994  14.387   8.314   4.961
72366SOL    HW118995  14.458   8.379   4.964
72366SOL    HW218996  14.414   8.247   5.023
72367SOL     OW18997   2.258   9.512   1.948
72367SOL    HW118998   2.315   9.567   2.001
72367SOL    HW218999   2.169   9.531   1.980
72368SOL     OW19000   5.574   9.234   0.711
72368SOL    HW119001   5.647   9.296   0.711
72368SOL    HW219002   5.586   9.182   0.632
72369SOL     OW19003   9.371   3.364   1.707
72369SOL    HW119004   9.404   3.424   1.641
72369SOL    HW219005   9.289   3.403   1.736
72370SOL     OW19006   5.276   5.804   9.820
72370SOL    HW119007   5.357   5.846   9.792
72370SOL    HW219008   5.211   5.875   9.819
72371SOL     OW19009   2.549  11.651   6.977
72371SOL    HW119010   2.612  11.614   7.039
72371SOL    HW219011   2.599  11.660   6.896
72372SOL     OW19012   7.871   0.715   4.846
72372SOL    HW119013   7.957   0.736   4.810
72372SOL    HW219014   7.866   0.763   4.928
72373SOL     OW19015  14.124   4.133  14.758
72373SOL    HW119016  14.056   4.106  14.819
72373SOL    HW219017  14.204   4.133  14.810
72374SOL     OW19018  12.758  11.475   8.325
72374SOL    HW119019  12.843  11.444   8.357
72374SOL    HW219020  12.774  11.566   8.300
72375SOL     OW19021  10.313   7.079   5.882
72375SOL    HW119022  10.301   7.069   5.976
72375SOL    HW219023  10.347   7.168   5.871
72376SOL     OW19024   4.390   7.557   7.667
72376SOL    HW119025   4.321   7.497   7.695
72376SOL    HW219026   4.382   7.559   7.571
72377SOL     OW19027  11.085   2.738   0.723
72377SOL    HW119028  11.131   2.660   0.690
72377SOL    HW219029  11.027   2.764   0.651
72378SOL     OW19030   5.094   6.683   1.635
72378SOL    HW119031   5.075   6.620   1.704
72378SOL    HW219032   5.041   6.760   1.657
72379SOL     OW19033   7.518   1.969   1.763
72379SOL    HW119034   7.457   1.896   1.751
72379SOL    HW219035   7.598   1.941   1.718
72380SOL     OW19036  11.943   4.844   5.686
72380SOL    HW119037  12.020   4.811   5.732
72380SOL    HW219038  11.906   4.768   5.642
72381SOL     OW19039   4.931   8.163  11.284
72381SOL    HW119040   4.849   8.115  11.274
72381SOL    HW219041   4.907   8.255  11.274
72382SOL     OW19042   1.234   5.007   4.809
72382SOL    HW119043   1.309   4.948   4.816
72382SOL    HW219044   1.159   4.949   4.795
72383SOL     OW19045   4.534  14.703   8.614
72383SOL    HW119046   4.498  14.772   8.670
72383SOL    HW219047   4.474  14.629   8.625
72384SOL     OW19048   1.631   0.810  10.650
72384SOL    HW119049   1.706   0.762  10.685
72384SOL    HW219050   1.585   0.842  10.727
72385SOL     OW19051   9.000   4.261   8.975
72385SOL    HW119052   9.009   4.331   9.040
72385SOL    HW219053   8.931   4.291   8.916
72386SOL     OW19054  10.208   3.805  11.115
72386SOL    HW119055  10.214   3.714  11.085
72386SOL    HW219056  10.226   3.800  11.209
72387SOL     OW19057   9.706   0.289   3.101
72387SOL    HW119058   9.725   0.334   3.183
72387SOL    HW219059   9.667   0.356   3.045
72388SOL     OW19060   1.475   9.845  13.847
72388SOL    HW119061   1.473   9.914  13.913
72388SOL    HW219062   1.385   9.811  13.846
72389SOL     OW19063   5.365   9.444  10.391
72389SOL    HW119064   5.299   9.514  10.392
72389SOL    HW219065   5.419   9.461  10.469
72390SOL     OW19066   5.196  14.841   9.774
72390SOL    HW119067   5.185  14.747   9.759
72390SOL    HW219068   5.130  14.862   9.841
72391SOL     OW19069   8.569   8.032  10.230
72391SOL    HW119070   8.522   8.108  10.263
72391SOL    HW219071   8.574   7.972  10.304
72392SOL     OW19072   2.318   3.552   1.120
72392SOL    HW119073   2.332   3.647   1.113
72392SOL    HW219074   2.222   3.543   1.122
72393SOL     OW19075   7.443  12.313  13.970
72393SOL    HW119076   7.464  12.394  14.017
72393SOL    HW219077   7.348  12.305  13.979
72394SOL     OW19078  12.240  11.913   5.633
72394SOL    HW119079  12.155  11.903   5.676
72394SOL    HW219080  12.240  12.004   5.603
72395SOL     OW19081   4.647   2.878   3.990
72395SOL    HW119082   4.740   2.863   3.971
72395SOL    HW219083   4.641   2.972   4.006
72396SOL     OW19084   0.622  12.509   4.868
72396SOL    HW119085   0.590  12.507   4.958
72396SOL    HW219086   0.672  12.428   4.858
72397SOL     OW19087  13.779   4.281  14.615
72397SOL    HW119088  13.870   4.284  14.588
72397SOL    HW219089  13.763   4.189  14.638
72398SOL     OW19090  13.169   9.521  12.231
72398SOL    HW119091  13.247   9.549  12.279
72398SOL    HW219092  13.151   9.434  12.264
72399SOL     OW19093   2.675   0.547   6.139
72399SOL    HW119094   2.624   0.539   6.058
72399SOL    HW219095   2.645   0.474   6.193
72400SOL     OW19096  12.328  10.633   1.776
72400SOL    HW119097  12.374  10.698   1.723
72400SOL    HW219098  12.270  10.588   1.715
72401SOL     OW19099   9.264  13.719   2.721
72401SOL    HW119100   9.220  13.639   2.694
72401SOL    HW219101   9.194  13.779   2.744
72402SOL     OW19102   3.292   8.194  10.537
72402SOL    HW119103   3.270   8.135  10.610
72402SOL    HW219104   3.227   8.175  10.470
72403SOL     OW19105  10.963   1.617   4.336
72403SOL    HW119106  10.994   1.560   4.407
72403SOL    HW219107  11.007   1.584   4.258
72404SOL     OW19108  10.072  12.296   7.216
72404SOL    HW119109  10.147  12.261   7.265
72404SOL    HW219110   9.998  12.243   7.245
72405SOL     OW19111   1.848   3.674   3.353
72405SOL    HW119112   1.758   3.641   3.349
72405SOL    HW219113   1.901   3.602   3.318
72406SOL     OW19114   9.238   7.783   9.333
72406SOL    HW119115   9.287   7.724   9.391
72406SOL    HW219116   9.195   7.844   9.392
72407SOL     OW19117   7.592   7.540   9.913
72407SOL    HW119118   7.662   7.527   9.977
72407SOL    HW219119   7.639   7.559   9.831
72408SOL     OW19120   0.913  11.870  12.033
72408SOL    HW119121   0.930  11.962  12.054
72408SOL    HW219122   0.896  11.829  12.118
72409SOL     OW19123   4.569  11.227   8.230
72409SOL    HW119124   4.660  11.232   8.259
72409SOL    HW219125   4.557  11.305   8.176
72410SOL     OW19126   0.468  13.532   7.182
72410SOL    HW119127   0.558  13.551   7.156
72410SOL    HW219128   0.423  13.510   7.100
72411SOL     OW19129   1.601   8.725   5.608
72411SOL    HW119130   1.513   8.751   5.578
72411SOL    HW219131   1.605   8.756   5.699
72412SOL     OW19132  10.473   4.681   6.132
72412SOL    HW119133  10.551   4.633   6.104
72412SOL    HW219134  10.418   4.615   6.173
72413SOL     OW19135  12.031   1.164   0.637
72413SOL    HW119136  12.054   1.207   0.555
72413SOL    HW219137  11.940   1.191   0.653
72414SOL     OW19138  11.596   9.674  13.963
72414SOL    HW119139  11.610   9.768  13.951
72414SOL    HW219140  11.682   9.636  13.950
72415SOL     OW19141  13.606  12.569  14.129
72415SOL    HW119142  13.573  12.535  14.046
72415SOL    HW219143  13.666  12.639  14.104
72416SOL     OW19144   2.004   6.523  10.160
72416SOL    HW119145   2.072   6.566  10.212
72416SOL    HW219146   1.931   6.584  10.161
72417SOL     OW19147  11.143   5.104   1.154
72417SOL    HW119148  11.070   5.114   1.215
72417SOL    HW219149  11.170   5.194   1.134
72418SOL     OW19150  12.188   0.577   8.423
72418SOL    HW119151  12.109   0.614   8.382
72418SOL    HW219152  12.197   0.626   8.505
72419SOL     OW19153   8.545   8.729   3.115
72419SOL    HW119154   8.458   8.691   3.097
72419SOL    HW219155   8.527   8.820   3.139
72420SOL     OW19156  13.973  12.036  14.505
72420SOL    HW119157  14.017  11.962  14.464
72420SOL    HW219158  13.946  12.003  14.592
72421SOL     OW19159   2.829  12.267   7.394
72421SOL    HW119160   2.741  12.233   7.376
72421SOL    HW219161   2.868  12.277   7.307
72422SOL     OW19162   1.183  14.202  11.936
72422SOL    HW119163   1.164  14.256  11.859
72422SOL    HW219164   1.278  14.190  11.934
72423SOL     OW19165   1.971  11.241   7.542
72423SOL    HW119166   2.056  11.199   7.533
72423SOL    HW219167   1.977  11.321   7.488
72424SOL     OW19168   2.036   4.216   2.162
72424SOL    HW119169   2.049   4.304   2.196
72424SOL    HW219170   1.972   4.226   2.092
72425SOL     OW19171   9.811  11.133   6.525
72425SOL    HW119172   9.871  11.190   6.476
72425SOL    HW219173   9.730  11.135   6.474
72426SOL     OW19174  12.788   6.857   1.927
72426SOL    HW119175  12.882   6.837   1.922
72426SOL    HW219176  12.765   6.841   2.019
72427SOL     OW19177  14.166   4.253   5.859
72427SOL    HW119178  14.241   4.294   5.818
72427SOL    HW219179  14.197   4.229   5.947
72428SOL     OW19180   8.322   3.484   7.288
72428SOL    HW119181   8.307   3.535   7.367
72428SOL    HW219182   8.235   3.459   7.258
72429SOL     OW19183   1.157  11.825   0.435
72429SOL    HW119184   1.094  11.844   0.504
72429SOL    HW219185   1.184  11.910   0.402
72430SOL     OW19186   6.721   3.298  13.068
72430SOL    HW119187   6.641   3.248  13.053
72430SOL    HW219188   6.751   3.269  13.155
72431SOL     OW19189  12.914  11.957   0.068
72431SOL    HW119190  13.006  11.970   0.046
72431SOL    HW219191  12.874  12.043   0.055
72432SOL     OW19192   4.725   3.873   1.254
72432SOL    HW119193   4.739   3.779   1.247
72432SOL    HW219194   4.638   3.882   1.294
72433SOL     OW19195   9.217   7.790   7.410
72433SOL    HW119196   9.178   7.704   7.397
72433SOL    HW219197   9.158   7.851   7.365
72434SOL     OW19198   1.097   2.451  13.375
72434SOL    HW119199   1.177   2.487  13.415
72434SOL    HW219200   1.092   2.494  13.290
72435SOL     OW19201   2.977   5.168   8.207
72435SOL    HW119202   2.986   5.075   8.187
72435SOL    HW219203   3.067   5.201   8.206
72436SOL     OW19204  14.233   0.693  14.424
72436SOL    HW119205  14.305   0.721  14.366
72436SOL    HW219206  14.164   0.667  14.364
72437SOL     OW19207   5.430  14.787   4.244
72437SOL    HW119208   5.364  14.723   4.216
72437SOL    HW219209   5.483  14.801   4.165
72438SOL     OW19210   2.565   4.967   6.107
72438SOL    HW119211   2.562   4.923   6.192
72438SOL    HW219212   2.535   4.901   6.045
72439SOL     OW19213  11.626   0.109  13.935
72439SOL    HW119214  11.714   0.145  13.942
72439SOL    HW219215  11.569   0.185  13.924
72440SOL     OW19216   7.155   6.793  11.822
72440SOL    HW119217   7.209   6.785  11.743
72440SOL    HW219218   7.188   6.724  11.880
72441SOL     OW19219  10.676   1.658   7.409
72441SOL    HW119220  10.737   1.608   7.464
72441SOL    HW219221  10.730   1.725   7.368
72442SOL     OW19222  11.354  12.976   5.188
72442SOL    HW119223  11.431  12.950   5.239
72442SOL    HW219224  11.388  13.037   5.123
72443SOL     OW19225   5.269  13.955   4.853
72443SOL    HW119226   5.180  13.926   4.833
72443SOL    HW219227   5.295  13.902   4.929
72444SOL     OW19228   6.966  13.437   2.476
72444SOL    HW119229   6.903  13.500   2.510
72444SOL    HW219230   7.009  13.483   2.403
72445SOL     OW19231   6.010   8.934   6.506
72445SOL    HW119232   6.069   8.911   6.577
72445SOL    HW219233   5.961   9.009   6.538
72446SOL     OW19234  10.417   2.308   6.661
72446SOL    HW119235  10.347   2.366   6.692
72446SOL    HW219236  10.439   2.255   6.737
72447SOL     OW19237   8.286   2.050   7.594
72447SOL    HW119238   8.327   2.031   7.509
72447SOL    HW219239   8.279   1.965   7.636
72448SOL     OW19240  13.962  11.129   6.312
72448SOL    HW119241  13.897  11.128   6.243
72448SOL    HW219242  13.911  11.127   6.393
72449SOL     OW19243   5.717   8.140  12.126
72449SOL    HW119244   5.642   8.197  12.108
72449SOL    HW219245   5.793   8.188  12.092
72450SOL     OW19246   2.606   2.542  11.911
72450SOL    HW119247   2.559   2.495  11.980
72450SOL    HW219248   2.581   2.634  11.924
72451SOL     OW19249   3.158  10.477   4.324
72451SOL    HW119250   3.123  10.476   4.235
72451SOL    HW219251   3.197  10.564   4.334
72452SOL     OW19252   5.698   0.591   5.920
72452SOL    HW119253   5.673   0.645   5.995
72452SOL    HW219254   5.778   0.547   5.947
72453SOL     OW19255   5.846   2.830   6.881
72453SOL    HW119256   5.925   2.803   6.833
72453SOL    HW219257   5.831   2.761   6.945
72454SOL     OW19258   7.104  14.327   0.351
72454SOL    HW119259   7.171  14.303   0.414
72454SOL    HW219260   7.100  14.423   0.355
72455SOL     OW19261   3.853   0.624  14.027
72455SOL    HW119262   3.878   0.702  14.077
72455SOL    HW219263   3.766   0.645  13.993
72456SOL     OW19264   1.838   1.657  11.280
72456SOL    HW119265   1.829   1.663  11.185
72456SOL    HW219266   1.872   1.742  11.306
72457SOL     OW19267   7.071   2.253   5.989
72457SOL    HW119268   7.088   2.328   5.931
72457SOL    HW219269   7.156   2.231   6.025
72458SOL     OW19270  10.466  10.429   8.141
72458SOL    HW119271  10.431  10.367   8.206
72458SOL    HW219272  10.444  10.515   8.176
72459SOL     OW19273   9.070   0.960   9.936
72459SOL    HW119274   9.101   0.996  10.019
72459SOL    HW219275   9.025   1.033   9.894
72460SOL     OW19276   1.216  11.956  11.255
72460SOL    HW119277   1.232  11.913  11.339
72460SOL    HW219278   1.237  12.048  11.271
72461SOL     OW19279   9.505  10.624   9.549
72461SOL    HW119280   9.447  10.670   9.610
72461SOL    HW219281   9.450  10.558   9.508
72462SOL     OW19282   2.023   1.497  13.301
72462SOL    HW119283   2.111   1.474  13.270
72462SOL    HW219284   1.997   1.572  13.248
72463SOL     OW19285  11.470   9.590   0.450
72463SOL    HW119286  11.498   9.498   0.451
72463SOL    HW219287  11.536   9.635   0.398
72464SOL     OW19288  11.748  10.762  14.267
72464SOL    HW119289  11.686  10.776  14.338
72464SOL    HW219290  11.795  10.845  14.260
72465SOL     OW19291   3.118   8.890  13.592
72465SOL    HW119292   3.105   8.856  13.504
72465SOL    HW219293   3.079   8.978  13.590
72466SOL     OW19294   4.897  12.282   1.074
72466SOL    HW119295   4.967  12.344   1.052
72466SOL    HW219296   4.874  12.242   0.990
72467SOL     OW19297  13.109   2.332   9.359
72467SOL    HW119298  13.115   2.303   9.450
72467SOL    HW219299  13.139   2.423   9.361
72468SOL     OW19300   3.469  13.453   1.492
72468SOL    HW119301   3.410  13.449   1.416
72468SOL    HW219302   3.410  13.455   1.567
72469SOL     OW19303  10.176  14.729   9.081
72469SOL    HW119304  10.201  14.689   9.164
72469SOL    HW219305  10.120  14.663   9.039
72470SOL     OW19306   3.544   4.464   1.140
72470SOL    HW119307   3.621   4.520   1.153
72470SOL    HW219308   3.475   4.507   1.190
72471SOL     OW19309   9.255  12.358   2.792
72471SOL    HW119310   9.350  12.359   2.779
72471SOL    HW219311   9.231  12.266   2.784
72472SOL     OW19312   4.615   6.444   4.972
72472SOL    HW119313   4.609   6.478   4.883
72472SOL    HW219314   4.636   6.351   4.961
72473SOL     OW19315   8.251  10.388   9.300
72473SOL    HW119316   8.272  10.482   9.302
72473SOL    HW219317   8.156  10.384   9.300
72474SOL     OW19318   6.651   1.276   4.477
72474SOL    HW119319   6.693   1.348   4.431
72474SOL    HW219320   6.722   1.234   4.526
72475SOL     OW19321   9.938   0.228   1.729
72475SOL    HW119322   9.983   0.293   1.676
72475SOL    HW219323  10.008   0.181   1.774
72476SOL     OW19324   4.959   6.976   6.915
72476SOL    HW119325   4.975   6.892   6.959
72476SOL    HW219326   4.998   7.041   6.973
72477SOL     OW19327  10.860   2.545   0.313
72477SOL    HW119328  10.862   2.487   0.389
72477SOL    HW219329  10.914   2.620   0.338
72478SOL     OW19330   8.819   8.747  11.450
72478SOL    HW119331   8.760   8.820  11.472
72478SOL    HW219332   8.888   8.752  11.516
72479SOL     OW19333   6.487   3.062   5.353
72479SOL    HW119334   6.577   3.087   5.372
72479SOL    HW219335   6.458   3.018   5.433
72480SOL     OW19336   8.656   1.323   7.330
72480SOL    HW119337   8.619   1.398   7.282
72480SOL    HW219338   8.639   1.248   7.274
72481SOL     OW19339  11.789   0.023   0.571
72481SOL    HW119340  11.857   0.017   0.504
72481SOL    HW219341  11.837   0.024   0.654
72482SOL     OW19342   3.015   4.049   4.513
72482SOL    HW119343   2.984   4.014   4.596
72482SOL    HW219344   3.085   4.110   4.537
72483SOL     OW19345   3.879   2.980   8.596
72483SOL    HW119346   3.892   3.024   8.511
72483SOL    HW219347   3.784   2.978   8.607
72484SOL     OW19348  10.098   7.927  11.050
72484SOL    HW119349  10.154   7.930  11.127
72484SOL    HW219350  10.128   7.850  11.002
72485SOL     OW19351  13.471   8.011  13.678
72485SOL    HW119352  13.452   8.068  13.603
72485SOL    HW219353  13.399   8.027  13.739
72486SOL     OW19354   5.472   0.499   7.436
72486SOL    HW119355   5.386   0.486   7.476
72486SOL    HW219356   5.476   0.433   7.367
72487SOL     OW19357   3.728   4.106   4.475
72487SOL    HW119358   3.690   4.171   4.416
72487SOL    HW219359   3.763   4.038   4.418
72488SOL     OW19360   1.240   8.706   6.751
72488SOL    HW119361   1.206   8.784   6.796
72488SOL    HW219362   1.279   8.654   6.821
72489SOL     OW19363  13.951   4.988  12.774
72489SOL    HW119364  13.940   4.994  12.869
72489SOL    HW219365  13.879   4.932  12.745
72490SOL     OW19366   3.657   5.146   5.446
72490SOL    HW119367   3.732   5.137   5.387
72490SOL    HW219368   3.659   5.066   5.499
72491SOL     OW19369   0.423   7.206   2.933
72491SOL    HW119370   0.373   7.214   2.851
72491SOL    HW219371   0.357   7.192   3.000
72492SOL     OW19372   6.859   2.359  12.834
72492SOL    HW119373   6.815   2.437  12.800
72492SOL    HW219374   6.875   2.379  12.926
72493SOL     OW19375  11.981  14.740  14.377
72493SOL    HW119376  11.928  14.664  14.353
72493SOL    HW219377  12.069  14.720  14.347
72494SOL     OW19378   6.673   9.814   7.748
72494SOL    HW119379   6.730   9.789   7.676
72494SOL    HW219380   6.655   9.907   7.734
72495SOL     OW19381   2.242  14.679   1.562
72495SOL    HW119382   2.214  14.736   1.490
72495SOL    HW219383   2.196  14.714   1.639
72496SOL     OW19384   5.577   8.225   0.634
72496SOL    HW119385   5.648   8.216   0.697
72496SOL    HW219386   5.603   8.168   0.561
72497SOL     OW19387  14.855   9.321  12.737
72497SOL    HW119388  14.827   9.249  12.681
72497SOL    HW219389   0.072   9.301  12.757
72498SOL     OW19390   8.418   7.644   3.097
72498SOL    HW119391   8.403   7.609   3.009
72498SOL    HW219392   8.513   7.641   3.108
72499SOL     OW19393   8.545   1.136   8.596
72499SOL    HW119394   8.632   1.146   8.558
72499SOL    HW219395   8.487   1.187   8.539
72500SOL     OW19396  13.671  12.112  11.767
72500SOL    HW119397  13.754  12.157  11.752
72500SOL    HW219398  13.606  12.168  11.725
72501SOL     OW19399  13.800  12.267  10.471
72501SOL    HW119400  13.748  12.249  10.550
72501SOL    HW219401  13.889  12.279  10.503
72502SOL     OW19402  10.674   2.761   3.754
72502SOL    HW119403  10.642   2.738   3.667
72502SOL    HW219404  10.598   2.799   3.798
72503SOL     OW19405   8.528   4.679   3.966
72503SOL    HW119406   8.563   4.704   4.051
72503SOL    HW219407   8.443   4.641   3.985
72504SOL     OW19408  11.557  10.218   1.023
72504SOL    HW119409  11.528  10.169   0.946
72504SOL    HW219410  11.562  10.152   1.093
72505SOL     OW19411  12.109   7.204   3.417
72505SOL    HW119412  12.036   7.143   3.429
72505SOL    HW219413  12.085   7.280   3.469
72506SOL     OW19414   6.689   2.052  11.475
72506SOL    HW119415   6.649   2.079  11.393
72506SOL    HW219416   6.732   1.968  11.455
72507SOL     OW19417   3.511   0.642   2.895
72507SOL    HW119418   3.496   0.638   2.801
72507SOL    HW219419   3.439   0.696   2.929
72508SOL     OW19420  14.628   9.147   9.037
72508SOL    HW119421  14.656   9.238   9.027
72508SOL    HW219422  14.694   9.109   9.095
72509SOL     OW19423  12.521   8.816  11.942
72509SOL    HW119424  12.428   8.795  11.956
72509SOL    HW219425  12.564   8.731  11.936
72510SOL     OW19426   6.296   1.533   0.846
72510SOL    HW119427   6.210   1.571   0.830
72510SOL    HW219428   6.290   1.443   0.813
72511SOL     OW19429   5.538   8.031  14.132
72511SOL    HW119430   5.571   8.115  14.163
72511SOL    HW219431   5.451   8.051  14.097
72512SOL     OW19432   6.344  11.052   3.649
72512SOL    HW119433   6.313  11.105   3.575
72512SOL    HW219434   6.302  10.967   3.637
72513SOL     OW19435  12.744   5.288   4.850
72513SOL    HW119436  12.735   5.317   4.941
72513SOL    HW219437  12.659   5.249   4.829
72514SOL     OW19438   7.238   9.373   9.637
72514SOL    HW119439   7.169   9.340   9.580
72514SOL    HW219440   7.193   9.400   9.717
72515SOL     OW19441   2.372   1.912   8.879
72515SOL    HW119442   2.444   1.966   8.912
72515SOL    HW219443   2.344   1.955   8.799
72516SOL     OW19444  10.865   6.487  10.092
72516SOL    HW119445  10.807   6.431  10.143
72516SOL    HW219446  10.936   6.429  10.063
72517SOL     OW19447   5.838  12.784   1.715
72517SOL    HW119448   5.890  12.760   1.637
72517SOL    HW219449   5.896  12.841   1.765
72518SOL     OW19450   1.658   9.605   5.512
72518SOL    HW119451   1.746   9.570   5.527
72518SOL    HW219452   1.605   9.567   5.582
72519SOL     OW19453   2.869  12.935  10.064
72519SOL    HW119454   2.959  12.963  10.048
72519SOL    HW219455   2.842  12.892   9.983
72520SOL     OW19456   1.429   3.093  13.195
72520SOL    HW119457   1.410   3.176  13.238
72520SOL    HW219458   1.380   3.028  13.246
72521SOL     OW19459   5.790  12.984   6.452
72521SOL    HW119460   5.816  12.894   6.474
72521SOL    HW219461   5.774  12.981   6.357
72522SOL     OW19462   2.094   5.268  10.995
72522SOL    HW119463   2.050   5.269  10.910
72522SOL    HW219464   2.077   5.355  11.032
72523SOL     OW19465  14.680   6.195   1.598
72523SOL    HW119466  14.616   6.179   1.667
72523SOL    HW219467  14.649   6.275   1.555
72524SOL     OW19468   2.355   1.906  10.138
72524SOL    HW119469   2.379   1.884  10.228
72524SOL    HW219470   2.268   1.945  10.145
72525SOL     OW19471   9.225  13.549   1.977
72525SOL    HW119472   9.245  13.588   2.062
72525SOL    HW219473   9.132  13.526   1.983
72526SOL     OW19474  11.394   0.267  13.071
72526SOL    HW119475  11.344   0.345  13.048
72526SOL    HW219476  11.360   0.241  13.157
72527SOL     OW19477   7.689  10.915   2.036
72527SOL    HW119478   7.779  10.896   2.063
72527SOL    HW219479   7.668  10.998   2.080
72528SOL     OW19480  13.966   6.404  12.217
72528SOL    HW119481  13.878   6.440  12.212
72528SOL    HW219482  13.990   6.413  12.309
72529SOL     OW19483   2.826   7.635   8.174
72529SOL    HW119484   2.814   7.687   8.094
72529SOL    HW219485   2.776   7.555   8.158
72530SOL     OW19486  12.787   3.693   9.801
72530SOL    HW119487  12.744   3.615   9.837
72530SOL    HW219488  12.843   3.660   9.731
72531SOL     OW19489  14.665   4.670   6.622
72531SOL    HW119490  14.760   4.658   6.625
72531SOL    HW219491  14.642   4.655   6.530
72532SOL     OW19492  13.758  11.940  14.032
72532SOL    HW119493  13.744  12.021  14.082
72532SOL    HW219494  13.848  11.946  14.001
72533SOL     OW19495   4.142  12.905   6.977
72533SOL    HW119496   4.202  12.972   7.010
72533SOL    HW219497   4.080  12.953   6.922
72534SOL     OW19498  13.684   1.333   2.915
72534SOL    HW119499  13.749   1.363   2.979
72534SOL    HW219500  13.668   1.242   2.939
72535SOL     OW19501  13.295   1.715   9.570
72535SOL    HW119502  13.259   1.747   9.653
72535SOL    HW219503  13.237   1.751   9.503
72536SOL     OW19504   2.441  10.232  12.650
72536SOL    HW119505   2.416  10.273  12.568
72536SOL    HW219506   2.514  10.174  12.627
72537SOL     OW19507   1.077  12.209  14.039
72537SOL    HW119508   1.118  12.216  13.953
72537SOL    HW219509   0.985  12.191  14.020
72538SOL     OW19510   8.111  12.498  10.602
72538SOL    HW119511   8.079  12.408  10.614
72538SOL    HW219512   8.192  12.487  10.552
72539SOL     OW19513  10.856   0.780   1.140
72539SOL    HW119514  10.852   0.693   1.102
72539SOL    HW219515  10.791   0.831   1.091
72540SOL     OW19516   8.074   4.746  13.396
72540SOL    HW119517   8.096   4.714  13.484
72540SOL    HW219518   8.120   4.687  13.337
72541SOL     OW19519   3.314   0.265  11.151
72541SOL    HW119520   3.239   0.323  11.161
72541SOL    HW219521   3.388   0.324  11.137
72542SOL     OW19522  12.820  14.373   6.715
72542SOL    HW119523  12.803  14.435   6.643
72542SOL    HW219524  12.909  14.341   6.698
72543SOL     OW19525  13.781  11.643   6.762
72543SOL    HW119526  13.698  11.663   6.805
72543SOL    HW219527  13.848  11.685   6.817
72544SOL     OW19528   9.098   8.066  11.972
72544SOL    HW119529   9.110   7.984  11.924
72544SOL    HW219530   9.010   8.095  11.948
72545SOL     OW19531   6.596   0.964   0.281
72545SOL    HW119532   6.688   0.981   0.298
72545SOL    HW219533   6.585   0.978   0.187
72546SOL     OW19534  10.171   4.640   4.760
72546SOL    HW119535  10.264   4.665   4.760
72546SOL    HW219536  10.124   4.723   4.757
72547SOL     OW19537  14.505   5.813   4.397
72547SOL    HW119538  14.436   5.856   4.448
72547SOL    HW219539  14.584   5.824   4.450
72548SOL     OW19540   6.575   7.960   4.366
72548SOL    HW119541   6.670   7.952   4.374
72548SOL    HW219542   6.552   8.029   4.428
72549SOL     OW19543  12.488   8.283  13.893
72549SOL    HW119544  12.434   8.361  13.887
72549SOL    HW219545  12.487   8.246  13.805
72550SOL     OW19546   7.278   8.792  10.971
72550SOL    HW119547   7.227   8.764  10.896
72550SOL    HW219548   7.217   8.790  11.045
72551SOL     OW19549  12.402  13.293   3.228
72551SOL    HW119550  12.344  13.291   3.152
72551SOL    HW219551  12.350  13.333   3.298
72552SOL     OW19552   7.912   5.786  13.349
72552SOL    HW119553   7.858   5.815  13.276
72552SOL    HW219554   7.997   5.766  13.310
72553SOL     OW19555   2.907   2.667   0.473
72553SOL    HW119556   2.979   2.728   0.489
72553SOL    HW219557   2.946   2.596   0.423
72554SOL     OW19558  14.446   2.523   4.724
72554SOL    HW119559  14.522   2.494   4.774
72554SOL    HW219560  14.439   2.461   4.652
72555SOL     OW19561   0.298  10.643   1.264
72555SOL    HW119562   0.336  10.716   1.313
72555SOL    HW219563   0.219  10.619   1.313
72556SOL     OW19564  11.441  12.149   4.523
72556SOL    HW119565  11.496  12.219   4.486
72556SOL    HW219566  11.357  12.158   4.478
72557SOL     OW19567   6.854   1.270   6.267
72557SOL    HW119568   6.838   1.190   6.317
72557SOL    HW219569   6.897   1.329   6.328
72558SOL     OW19570   6.617   1.892   3.992
72558SOL    HW119571   6.522   1.896   4.004
72558SOL    HW219572   6.636   1.798   3.984
72559SOL     OW19573   2.001  14.055  14.035
72559SOL    HW119574   2.057  14.084  14.107
72559SOL    HW219575   1.921  14.024  14.078
72560SOL     OW19576  12.448  14.536  14.488
72560SOL    HW119577  12.458  14.620  14.532
72560SOL    HW219578  12.384  14.553  14.419
72561SOL     OW19579  10.118   3.644   1.560
72561SOL    HW119580  10.114   3.549   1.549
72561SOL    HW219581  10.059   3.662   1.633
72562SOL     OW19582   8.749  11.323   5.052
72562SOL    HW119583   8.760  11.400   4.997
72562SOL    HW219584   8.812  11.335   5.122
72563SOL     OW19585  10.679   2.145   0.469
72563SOL    HW119586  10.764   2.121   0.505
72563SOL    HW219587  10.672   2.239   0.483
72564SOL     OW19588   0.719   6.678   3.523
72564SOL    HW119589   0.634   6.649   3.556
72564SOL    HW219590   0.713   6.669   3.428
72565SOL     OW19591   4.915  11.431   6.738
72565SOL    HW119592   4.841  11.422   6.798
72565SOL    HW219593   4.911  11.352   6.684
72566SOL     OW19594   8.635  11.359  11.101
72566SOL    HW119595   8.592  11.367  11.016
72566SOL    HW219596   8.594  11.283  11.142
72567SOL     OW19597   2.334  14.696   8.714
72567SOL    HW119598   2.269  14.758   8.682
72567SOL    HW219599   2.390  14.678   8.638
72568SOL     OW19600  11.518  14.585   0.121
72568SOL    HW119601  11.603  14.578   0.077
72568SOL    HW219602  11.525  14.664   0.174
72569SOL     OW19603   6.748   1.516   3.334
72569SOL    HW119604   6.821   1.511   3.272
72569SOL    HW219605   6.740   1.609   3.355
72570SOL     OW19606   9.690   4.573   2.869
72570SOL    HW119607   9.616   4.607   2.920
72570SOL    HW219608   9.764   4.575   2.930
72571SOL     OW19609   5.767  13.878   0.651
72571SOL    HW119610   5.777  13.846   0.561
72571SOL    HW219611   5.691  13.830   0.684
72572SOL     OW19612   0.974  10.907   3.111
72572SOL    HW119613   1.058  10.952   3.099
72572SOL    HW219614   0.998  10.819   3.141
72573SOL     OW19615  12.031  12.267  14.404
72573SOL    HW119616  12.022  12.242  14.496
72573SOL    HW219617  11.964  12.216  14.358
72574SOL     OW19618  12.501   7.523   5.439
72574SOL    HW119619  12.468   7.438   5.409
72574SOL    HW219620  12.579   7.538   5.386
72575SOL     OW19621  10.971  12.999   2.472
72575SOL    HW119622  11.028  12.949   2.531
72575SOL    HW219623  10.884  12.963   2.488
72576SOL     OW19624   0.922  11.100  12.819
72576SOL    HW119625   0.891  11.169  12.761
72576SOL    HW219626   0.954  11.032  12.760
72577SOL     OW19627  10.204   8.829   5.214
72577SOL    HW119628  10.250   8.851   5.134
72577SOL    HW219629  10.270   8.785   5.269
72578SOL     OW19630   9.338  13.549  10.110
72578SOL    HW119631   9.371  13.467  10.073
72578SOL    HW219632   9.279  13.584  10.043
72579SOL     OW19633  12.359   1.014   3.247
72579SOL    HW119634  12.332   0.977   3.163
72579SOL    HW219635  12.286   1.070   3.273
72580SOL     OW19636   4.528   3.613   8.674
72580SOL    HW119637   4.607   3.564   8.694
72580SOL    HW219638   4.528   3.686   8.736
72581SOL     OW19639   4.412   6.235   3.936
72581SOL    HW119640   4.507   6.245   3.925
72581SOL    HW219641   4.382   6.207   3.850
72582SOL     OW19642  14.689   0.825   1.211
72582SOL    HW119643  14.740   0.861   1.284
72582SOL    HW219644  14.668   0.736   1.238
72583SOL     OW19645  10.586  13.791  13.358
72583SOL    HW119646  10.512  13.796  13.420
72583SOL    HW219647  10.555  13.838  13.281
72584SOL     OW19648   1.822  14.667  13.855
72584SOL    HW119649   1.850  14.756  13.875
72584SOL    HW219650   1.825  14.661  13.760
72585SOL     OW19651   8.234   1.526   7.209
72585SOL    HW119652   8.154   1.538   7.159
72585SOL    HW219653   8.255   1.613   7.243
72586SOL     OW19654   7.755   6.514   9.931
72586SOL    HW119655   7.817   6.442   9.930
72586SOL    HW219656   7.760   6.553   9.844
72587SOL     OW19657   6.572   9.921   2.636
72587SOL    HW119658   6.628   9.999   2.634
72587SOL    HW219659   6.521   9.932   2.716
72588SOL     OW19660   1.728  11.076  10.503
72588SOL    HW119661   1.807  11.103  10.551
72588SOL    HW219662   1.755  10.997  10.456
72589SOL     OW19663   2.682  12.667   9.550
72589SOL    HW119664   2.710  12.595   9.607
72589SOL    HW219665   2.762  12.717   9.534
72590SOL     OW19666   2.962  14.157  10.629
72590SOL    HW119667   2.937  14.075  10.673
72590SOL    HW219668   3.016  14.129  10.555
72591SOL     OW19669  12.073   9.703   0.695
72591SOL    HW119670  12.003   9.746   0.744
72591SOL    HW219671  12.147   9.764   0.700
72592SOL     OW19672   4.691   4.439   0.833
72592SOL    HW119673   4.605   4.419   0.869
72592SOL    HW219674   4.751   4.381   0.881
72593SOL     OW19675   7.105   2.517   0.594
72593SOL    HW119676   7.142   2.430   0.607
72593SOL    HW219677   7.028   2.519   0.651
72594SOL     OW19678   4.005  13.041  11.483
72594SOL    HW119679   4.024  13.120  11.433
72594SOL    HW219680   3.916  13.054  11.516
72595SOL     OW19681   6.619  10.845  13.820
72595SOL    HW119682   6.597  10.879  13.733
72595SOL    HW219683   6.561  10.770  13.832
72596SOL     OW19684   2.277   4.788  10.057
72596SOL    HW119685   2.303   4.792  10.149
72596SOL    HW219686   2.337   4.724  10.018
72597SOL     OW19687  13.303   0.671   4.324
72597SOL    HW119688  13.294   0.601   4.389
72597SOL    HW219689  13.258   0.746   4.363
72598SOL     OW19690   0.324   5.068   7.985
72598SOL    HW119691   0.327   5.003   8.056
72598SOL    HW219692   0.237   5.108   7.992
72599SOL     OW19693   1.603   6.381  10.197
72599SOL    HW119694   1.609   6.463  10.246
72599SOL    HW219695   1.693   6.353  10.185
72600SOL     OW19696  12.165  14.280  13.143
72600SOL    HW119697  12.137  14.213  13.205
72600SOL    HW219698  12.177  14.233  13.061
72601SOL     OW19699   4.164   4.515  13.044
72601SOL    HW119700   4.239   4.548  12.995
72601SOL    HW219701   4.202   4.453  13.107
72602SOL     OW19702   9.614  14.138   5.248
72602SOL    HW119703   9.658  14.089   5.318
72602SOL    HW219704   9.685  14.165   5.190
72603SOL     OW19705  13.447   6.003   5.921
72603SOL    HW119706  13.379   5.937   5.909
72603SOL    HW219707  13.520   5.972   5.868
72604SOL     OW19708   1.260   6.854   6.525
72604SOL    HW119709   1.297   6.807   6.600
72604SOL    HW219710   1.281   6.800   6.450
72605SOL     OW19711  12.346   6.001   1.708
72605SOL    HW119712  12.295   6.052   1.645
72605SOL    HW219713  12.412   6.063   1.741
72606SOL     OW19714  10.320  13.973   5.323
72606SOL    HW119715  10.268  13.896   5.300
72606SOL    HW219716  10.347  14.010   5.238
72607SOL     OW19717  11.808   1.496   1.873
72607SOL    HW119718  11.833   1.518   1.962
72607SOL    HW219719  11.733   1.552   1.854
72608SOL     OW19720   9.926   6.072   4.095
72608SOL    HW119721   9.921   5.988   4.049
72608SOL    HW219722   9.999   6.118   4.053
72609SOL     OW19723   8.735  12.460   8.071
72609SOL    HW119724   8.684  12.388   8.032
72609SOL    HW219725   8.815  12.419   8.101
72610SOL     OW19726   1.636   6.838  11.873
72610SOL    HW119727   1.715   6.819  11.924
72610SOL    HW219728   1.607   6.923  11.905
72611SOL     OW19729   2.395  10.771  14.399
72611SOL    HW119730   2.464  10.759  14.464
72611SOL    HW219731   2.384  10.866  14.393
72612SOL     OW19732   1.719   9.326   4.676
72612SOL    HW119733   1.638   9.360   4.713
72612SOL    HW219734   1.741   9.250   4.730
72613SOL     OW19735   6.872   6.538  11.036
72613SOL    HW119736   6.872   6.552  10.942
72613SOL    HW219737   6.959   6.565  11.065
72614SOL     OW19738   8.288   2.912   9.557
72614SOL    HW119739   8.218   2.978   9.556
72614SOL    HW219740   8.280   2.869   9.642
72615SOL     OW19741   1.960   7.981   8.961
72615SOL    HW119742   1.966   7.937   9.046
72615SOL    HW219743   1.963   8.075   8.982
72616SOL     OW19744   5.746   9.564  10.417
72616SOL    HW119745   5.827   9.576  10.467
72616SOL    HW219746   5.720   9.653  10.391
72617SOL     OW19747  13.498   0.397  11.386
72617SOL    HW119748  13.481   0.325  11.326
72617SOL    HW219749  13.550   0.359  11.457
72618SOL     OW19750   4.861  12.369   3.114
72618SOL    HW119751   4.918  12.294   3.130
72618SOL    HW219752   4.899  12.440   3.166
72619SOL     OW19753  10.375   6.069   9.157
72619SOL    HW119754  10.438   5.997   9.167
72619SOL    HW219755  10.316   6.040   9.087
72620SOL     OW19756   2.752   6.704   0.240
72620SOL    HW119757   2.679   6.726   0.298
72620SOL    HW219758   2.830   6.719   0.293
72621SOL     OW19759   4.284   9.781   3.548
72621SOL    HW119760   4.217   9.810   3.611
72621SOL    HW219761   4.277   9.843   3.476
72622SOL     OW19762   3.047  13.205   0.853
72622SOL    HW119763   3.135  13.241   0.839
72622SOL    HW219764   2.990  13.281   0.851
72623SOL     OW19765   0.069  10.428  14.278
72623SOL    HW119766  14.854  10.431  14.310
72623SOL    HW219767   0.097  10.337  14.292
72624SOL     OW19768   4.551  14.477   7.828
72624SOL    HW119769   4.481  14.510   7.771
72624SOL    HW219770   4.621  14.451   7.769
72625SOL     OW19771   8.924   0.339   1.541
72625SOL    HW119772   8.841   0.328   1.587
72625SOL    HW219773   8.958   0.251   1.530
72626SOL     OW19774   0.915   3.735  12.910
72626SOL    HW119775   0.850   3.734  12.980
72626SOL    HW219776   0.993   3.772  12.952
72627SOL     OW19777  13.298   6.444   3.183
72627SOL    HW119778  13.310   6.491   3.101
72627SOL    HW219779  13.206   6.458   3.206
72628SOL     OW19780   6.621   0.794   4.229
72628SOL    HW119781   6.667   0.710   4.220
72628SOL    HW219782   6.528   0.770   4.236
72629SOL     OW19783  14.096   4.801  11.401
72629SOL    HW119784  14.137   4.792  11.487
72629SOL    HW219785  14.002   4.805  11.420
72630SOL     OW19786   1.743   6.523  11.296
72630SOL    HW119787   1.815   6.523  11.359
72630SOL    HW219788   1.781   6.558  11.215
72631SOL     OW19789   6.327   6.497  14.580
72631SOL    HW119790   6.271   6.561  14.622
72631SOL    HW219791   6.344   6.533  14.493
72632SOL     OW19792  11.336   4.648  14.025
72632SOL    HW119793  11.380   4.732  14.011
72632SOL    HW219794  11.361   4.595  13.949
72633SOL     OW19795   0.603   5.746   9.075
72633SOL    HW119796   0.648   5.664   9.057
72633SOL    HW219797   0.595   5.750   9.170
72634SOL     OW19798   4.786   4.704  11.046
72634SOL    HW119799   4.718   4.671  11.104
72634SOL    HW219800   4.845   4.630  11.032
72635SOL     OW19801   2.115   7.093   5.062
72635SOL    HW119802   2.123   7.041   4.982
72635SOL    HW219803   2.062   7.039   5.120
72636SOL     OW19804   3.478   7.915  14.701
72636SOL    HW119805   3.404   7.857  14.718
72636SOL    HW219806   3.438   7.996  14.670
72637SOL     OW19807   8.093   0.623  10.639
72637SOL    HW119808   8.142   0.660  10.712
72637SOL    HW219809   8.159   0.583  10.583
72638SOL     OW19810  10.867   0.628  12.963
72638SOL    HW119811  10.803   0.581  13.017
72638SOL    HW219812  10.883   0.569  12.889
72639SOL     OW19813  10.653   1.980   5.892
72639SOL    HW119814  10.644   2.030   5.973
72639SOL    HW219815  10.621   2.039   5.824
72640SOL     OW19816   9.532   3.550   3.944
72640SOL    HW119817   9.477   3.518   3.873
72640SOL    HW219818   9.498   3.638   3.963
72641SOL     OW19819   7.343   0.386   4.077
72641SOL    HW119820   7.425   0.424   4.045
72641SOL    HW219821   7.345   0.295   4.045
72642SOL     OW19822   1.136   2.544   4.192
72642SOL    HW119823   1.061   2.602   4.199
72642SOL    HW219824   1.110   2.479   4.126
72643SOL     OW19825   8.574  12.873   1.004
72643SOL    HW119826   8.488  12.908   1.030
72643SOL    HW219827   8.557  12.781   0.982
72644SOL     OW19828  13.211  10.824   6.660
72644SOL    HW119829  13.306  10.828   6.654
72644SOL    HW219830  13.194  10.772   6.738
72645SOL     OW19831   2.902  13.747   5.098
72645SOL    HW119832   2.958  13.764   5.022
72645SOL    HW219833   2.962  13.735   5.171
72646SOL     OW19834  13.640   1.542  11.137
72646SOL    HW119835  13.550   1.533  11.108
72646SOL    HW219836  13.639   1.513  11.229
72647SOL     OW19837   7.752   5.978   4.658
72647SOL    HW119838   7.801   6.053   4.624
72647SOL    HW219839   7.758   5.987   4.754
72648SOL     OW19840   9.709   2.842  13.677
72648SOL    HW119841   9.620   2.845  13.641
72648SOL    HW219842   9.764   2.879  13.608
72649SOL     OW19843   5.000   5.293   2.127
72649SOL    HW119844   5.087   5.326   2.101
72649SOL    HW219845   4.995   5.206   2.088
72650SOL     OW19846   2.681   6.663   4.802
72650SOL    HW119847   2.742   6.624   4.866
72650SOL    HW219848   2.605   6.688   4.854
72651SOL     OW19849  13.976   9.789  14.860
72651SOL    HW119850  13.938   9.753   0.066
72651SOL    HW219851  14.008   9.876   0.011
72652SOL     OW19852  13.315   7.584   2.419
72652SOL    HW119853  13.271   7.658   2.376
72652SOL    HW219854  13.386   7.625   2.469
72653SOL     OW19855   9.694   7.078   2.899
72653SOL    HW119856   9.784   7.047   2.904
72653SOL    HW219857   9.652   7.044   2.977
72654SOL     OW19858   6.432  14.008  13.268
72654SOL    HW119859   6.451  14.101  13.254
72654SOL    HW219860   6.423  13.973  13.180
72655SOL     OW19861   1.573  12.883   0.465
72655SOL    HW119862   1.666  12.907   0.465
72655SOL    HW219863   1.529  12.957   0.422
72656SOL     OW19864   8.743  11.070   0.188
72656SOL    HW119865   8.729  11.133   0.259
72656SOL    HW219866   8.702  11.112   0.111
72657SOL     OW19867  12.703   4.556   4.435
72657SOL    HW119868  12.736   4.636   4.395
72657SOL    HW219869  12.609   4.573   4.448
72658SOL     OW19870   6.157   7.928  13.556
72658SOL    HW119871   6.236   7.882  13.585
72658SOL    HW219872   6.185   8.018  13.542
72659SOL     OW19873  11.709   7.821   5.770
72659SOL    HW119874  11.704   7.744   5.826
72659SOL    HW219875  11.764   7.883   5.818
72660SOL     OW19876  11.470  12.011   9.726
72660SOL    HW119877  11.535  12.080   9.740
72660SOL    HW219878  11.497  11.941   9.784
72661SOL     OW19879   3.100  14.504  11.423
72661SOL    HW119880   3.135  14.550  11.347
72661SOL    HW219881   3.092  14.572  11.490
72662SOL     OW19882  10.193   7.434  11.182
72662SOL    HW119883  10.121   7.476  11.135
72662SOL    HW219884  10.245   7.392  11.114
72663SOL     OW19885   1.361  12.309   9.707
72663SOL    HW119886   1.354  12.355   9.790
72663SOL    HW219887   1.289  12.342   9.654
72664SOL     OW19888   9.514   9.723   8.777
72664SOL    HW119889   9.419   9.730   8.780
72664SOL    HW219890   9.533   9.634   8.804
72665SOL     OW19891  14.481  14.576  13.771
72665SOL    HW119892  14.471  14.493  13.724
72665SOL    HW219893  14.459  14.555  13.862
72666SOL     OW19894   3.758  12.827   6.575
72666SOL    HW119895   3.839  12.850   6.531
72666SOL    HW219896   3.689  12.846   6.512
72667SOL     OW19897  13.622   6.481  11.320
72667SOL    HW119898  13.590   6.450  11.235
72667SOL    HW219899  13.696   6.538  11.299
72668SOL     OW19900   2.977   5.541   2.596
72668SOL    HW119901   2.940   5.628   2.611
72668SOL    HW219902   2.983   5.502   2.683
72669SOL     OW19903  14.649   7.596   9.848
72669SOL    HW119904  14.726   7.541   9.833
72669SOL    HW219905  14.684   7.678   9.881
72670SOL     OW19906   1.804   2.172   3.483
72670SOL    HW119907   1.868   2.231   3.444
72670SOL    HW219908   1.855   2.096   3.512
72671SOL     OW19909   8.414  14.480   7.098
72671SOL    HW119910   8.323  14.463   7.121
72671SOL    HW219911   8.454  14.511   7.180
72672SOL     OW19912  13.171  11.956  13.522
72672SOL    HW119913  13.206  12.045  13.514
72672SOL    HW219914  13.249  11.900  13.529
72673SOL     OW19915  10.134   4.410  12.027
72673SOL    HW119916  10.047   4.422  11.990
72673SOL    HW219917  10.181   4.358  11.961
72674SOL     OW19918   2.344   1.538   9.385
72674SOL    HW119919   2.382   1.625   9.381
72674SOL    HW219920   2.298   1.535   9.469
72675SOL     OW19921   6.745   3.916   3.352
72675SOL    HW119922   6.823   3.883   3.308
72675SOL    HW219923   6.712   3.985   3.294
72676SOL     OW19924  11.978   4.603  11.319
72676SOL    HW119925  12.042   4.665  11.355
72676SOL    HW219926  12.017   4.517  11.336
72677SOL     OW19927  12.880   8.999  14.009
72677SOL    HW119928  12.935   9.006  14.087
72677SOL    HW219929  12.927   8.939  13.951
72678SOL     OW19930   1.281  13.569  14.802
72678SOL    HW119931   1.211  13.590  14.864
72678SOL    HW219932   1.236  13.558  14.718
72679SOL     OW19933   1.896   0.227  14.111
72679SOL    HW119934   1.972   0.187  14.069
72679SOL    HW219935   1.933   0.284  14.179
72680SOL     OW19936   5.174   8.822   9.125
72680SOL    HW119937   5.087   8.821   9.083
72680SOL    HW219938   5.164   8.765   9.201
72681SOL     OW19939   9.699   8.015  14.210
72681SOL    HW119940   9.634   7.951  14.241
72681SOL    HW219941   9.768   8.012  14.276
72682SOL     OW19942  11.293   5.895   9.083
72682SOL    HW119943  11.366   5.887   9.144
72682SOL    HW219944  11.332   5.882   8.997
72683SOL     OW19945   6.625  12.250   0.885
72683SOL    HW119946   6.621  12.327   0.829
72683SOL    HW219947   6.718  12.226   0.887
72684SOL     OW19948   9.581  11.963   9.764
72684SOL    HW119949   9.567  11.887   9.707
72684SOL    HW219950   9.651  12.012   9.722
72685SOL     OW19951   1.738   1.897   5.120
72685SOL    HW119952   1.789   1.945   5.185
72685SOL    HW219953   1.673   1.848   5.171
72686SOL     OW19954   9.547  11.552  14.353
72686SOL    HW119955   9.517  11.470  14.313
72686SOL    HW219956   9.563  11.610  14.280
72687SOL     OW19957   4.836  12.336   7.508
72687SOL    HW119958   4.889  12.308   7.433
72687SOL    HW219959   4.895  12.330   7.583
72688SOL     OW19960   1.557   3.428   2.154
72688SOL    HW119961   1.560   3.515   2.114
72688SOL    HW219962   1.496   3.378   2.100
72689SOL     OW19963  12.462  12.011  13.416
72689SOL    HW119964  12.516  12.017  13.337
72689SOL    HW219965  12.518  12.044  13.486
72690SOL     OW19966   4.524   5.747  14.488
72690SOL    HW119967   4.479   5.736  14.405
72690SOL    HW219968   4.512   5.665  14.534
72691SOL     OW19969  12.507   1.994   2.675
72691SOL    HW119970  12.446   2.023   2.608
72691SOL    HW219971  12.580   2.057   2.670
72692SOL     OW19972  13.908   0.230   1.136
72692SOL    HW119973  13.903   0.232   1.041
72692SOL    HW219974  13.821   0.203   1.165
72693SOL     OW19975   1.371   8.421  10.998
72693SOL    HW119976   1.291   8.438  11.047
72693SOL    HW219977   1.436   8.479  11.037
72694SOL     OW19978   5.227   6.416  10.908
72694SOL    HW119979   5.303   6.386  10.859
72694SOL    HW219980   5.215   6.507  10.881
72695SOL     OW19981   0.442   9.119  10.628
72695SOL    HW119982   0.464   9.046  10.686
72695SOL    HW219983   0.348   9.110  10.613
72696SOL     OW19984   4.573   4.539   0.250
72696SOL    HW119985   4.501   4.538   0.314
72696SOL    HW219986   4.544   4.601   0.183
72697SOL     OW19987  12.299   9.433  12.507
72697SOL    HW119988  12.343   9.350  12.525
72697SOL    HW219989  12.207   9.410  12.496
72698SOL     OW19990  13.759   8.240   7.172
72698SOL    HW119991  13.851   8.219   7.188
72698SOL    HW219992  13.722   8.252   7.259
72699SOL     OW19993   3.519   6.357   1.670
72699SOL    HW119994   3.556   6.416   1.604
72699SOL    HW219995   3.471   6.415   1.730
72700SOL     OW19996  12.602   1.461   7.482
72700SOL    HW119997  12.651   1.531   7.524
72700SOL    HW219998  12.604   1.482   7.389
72701SOL     OW19999   2.642   0.291   6.947
72701SOL    HW120000   2.642   0.380   6.982
72701SOL    HW220001   2.566   0.249   6.987
72702SOL     OW20002   1.640   0.290   6.501
72702SOL    HW120003   1.677   0.245   6.577
72702SOL    HW220004   1.620   0.220   6.439
72703SOL     OW20005   0.571  12.177   0.335
72703SOL    HW120006   0.532  12.170   0.423
72703SOL    HW220007   0.560  12.269   0.312
72704SOL     OW20008  11.298   5.512   6.689
72704SOL    HW120009  11.327   5.595   6.726
72704SOL    HW220010  11.372   5.481   6.637
72705SOL     OW20011   0.218   3.900   1.605
72705SOL    HW120012   0.210   3.954   1.526
72705SOL    HW220013   0.312   3.900   1.624
72706SOL     OW20014   5.325   7.177   6.746
72706SOL    HW120015   5.281   7.100   6.709
72706SOL    HW220016   5.289   7.251   6.697
72707SOL     OW20017   3.205  13.723   2.599
72707SOL    HW120018   3.129  13.773   2.629
72707SOL    HW220019   3.167  13.650   2.550
72708SOL     OW20020  13.639   6.239   5.537
72708SOL    HW120021  13.652   6.226   5.631
72708SOL    HW220022  13.697   6.312   5.515
72709SOL     OW20023   2.108  13.897  13.516
72709SOL    HW120024   2.030  13.844  13.497
72709SOL    HW220025   2.150  13.852  13.589
72710SOL     OW20026   6.256  12.352   9.047
72710SOL    HW120027   6.218  12.431   9.009
72710SOL    HW220028   6.262  12.370   9.141
72711SOL     OW20029  12.811   1.396   2.791
72711SOL    HW120030  12.723   1.418   2.822
72711SOL    HW220031  12.860   1.478   2.798
72712SOL     OW20032  14.845  11.181   4.943
72712SOL    HW120033  14.863  11.087   4.950
72712SOL    HW220034  14.806  11.191   4.856
72713SOL     OW20035  13.692   0.838  13.152
72713SOL    HW120036  13.597   0.845  13.162
72713SOL    HW220037  13.719   0.925  13.121
72714SOL     OW20038   7.803   4.624  13.372
72714SOL    HW120039   7.884   4.658  13.411
72714SOL    HW220040   7.809   4.648  13.280
72715SOL     OW20041  10.521   2.289   9.510
72715SOL    HW120042  10.478   2.222   9.564
72715SOL    HW220043  10.538   2.362   9.569
72716SOL     OW20044  10.417  13.126   5.662
72716SOL    HW120045  10.379  13.203   5.704
72716SOL    HW220046  10.343  13.078   5.626
72717SOL     OW20047   8.163  12.565  12.253
72717SOL    HW120048   8.134  12.636  12.309
72717SOL    HW220049   8.247  12.596  12.217
72718SOL     OW20050   7.185   0.545   8.545
72718SOL    HW120051   7.226   0.551   8.631
72718SOL    HW220052   7.150   0.633   8.529
72719SOL     OW20053  13.342   7.623  11.523
72719SOL    HW120054  13.286   7.548  11.505
72719SOL    HW220055  13.355   7.665  11.438
72720SOL     OW20056  12.090   5.315   7.134
72720SOL    HW120057  12.021   5.290   7.196
72720SOL    HW220058  12.171   5.301   7.182
72721SOL     OW20059  12.521   9.242  14.537
72721SOL    HW120060  12.587   9.311  14.544
72721SOL    HW220061  12.468   9.250  14.616
72722SOL     OW20062   0.739   8.489   8.270
72722SOL    HW120063   0.712   8.570   8.227
72722SOL    HW220064   0.722   8.505   8.363
72723SOL     OW20065   2.507   2.913   5.810
72723SOL    HW120066   2.596   2.940   5.833
72723SOL    HW220067   2.498   2.825   5.845
72724SOL     OW20068   7.150   1.466   9.250
72724SOL    HW120069   7.158   1.515   9.169
72724SOL    HW220070   7.092   1.392   9.229
72725SOL     OW20071  11.160   7.939   6.844
72725SOL    HW120072  11.230   7.878   6.866
72725SOL    HW220073  11.126   7.909   6.760
72726SOL     OW20074   8.500  14.616   3.522
72726SOL    HW120075   8.551  14.561   3.581
72726SOL    HW220076   8.437  14.661   3.578
72727SOL     OW20077   9.342   6.938  10.150
72727SOL    HW120078   9.397   6.924  10.073
72727SOL    HW220079   9.259   6.969  10.115
72728SOL     OW20080   1.883   9.324  13.631
72728SOL    HW120081   1.840   9.349  13.549
72728SOL    HW220082   1.968   9.367  13.628
72729SOL     OW20083  13.193   2.283   2.458
72729SOL    HW120084  13.244   2.214   2.417
72729SOL    HW220085  13.124   2.304   2.394
72730SOL     OW20086  13.683   5.714  14.825
72730SOL    HW120087  13.716   5.739  14.738
72730SOL    HW220088  13.631   5.790  14.853
72731SOL     OW20089   3.568  14.556   1.483
72731SOL    HW120090   3.524  14.562   1.567
72731SOL    HW220091   3.509  14.600   1.422
72732SOL     OW20092   1.219  10.815   0.273
72732SOL    HW120093   1.136  10.855   0.297
72732SOL    HW220094   1.195  10.740   0.219
72733SOL     OW20095  14.770  12.762  14.277
72733SOL    HW120096  14.732  12.678  14.301
72733SOL    HW220097  14.716  12.794  14.206
72734SOL     OW20098   2.305   7.832   6.720
72734SOL    HW120099   2.249   7.759   6.750
72734SOL    HW220100   2.279   7.906   6.775
72735SOL     OW20101  13.688   6.526  11.733
72735SOL    HW120102  13.731   6.457  11.784
72735SOL    HW220103  13.619   6.480  11.685
72736SOL     OW20104   6.626  12.802   6.667
72736SOL    HW120105   6.643  12.864   6.738
72736SOL    HW220106   6.546  12.833   6.625
72737SOL     OW20107   5.714   8.182  10.115
72737SOL    HW120108   5.752   8.237  10.183
72737SOL    HW220109   5.710   8.095  10.153
72738SOL     OW20110   2.532  13.993   6.244
72738SOL    HW120111   2.610  13.984   6.189
72738SOL    HW220112   2.517  13.905   6.279
72739SOL     OW20113   5.845   3.749   5.797
72739SOL    HW120114   5.859   3.827   5.850
72739SOL    HW220115   5.830   3.783   5.709
72740SOL     OW20116   9.866   0.333   6.113
72740SOL    HW120117   9.932   0.363   6.050
72740SOL    HW220118   9.800   0.401   6.113
72741SOL     OW20119  11.042  13.768   5.800
72741SOL    HW120120  11.097  13.763   5.879
72741SOL    HW220121  11.085  13.709   5.738
72742SOL     OW20122   3.053  10.559   1.166
72742SOL    HW120123   3.056  10.481   1.110
72742SOL    HW220124   3.117  10.618   1.128
72743SOL     OW20125   1.265  11.641   8.079
72743SOL    HW120126   1.256  11.626   7.985
72743SOL    HW220127   1.225  11.564   8.120
72744SOL     OW20128   5.350   6.501   4.756
72744SOL    HW120129   5.364   6.479   4.848
72744SOL    HW220130   5.428   6.470   4.711
72745SOL     OW20131   9.212   8.523  11.054
72745SOL    HW120132   9.158   8.521  10.975
72745SOL    HW220133   9.202   8.436  11.092
72746SOL     OW20134   2.060   2.531   9.434
72746SOL    HW120135   2.013   2.519   9.517
72746SOL    HW220136   1.991   2.548   9.370
72747SOL     OW20137   4.767   7.610   1.940
72747SOL    HW120138   4.860   7.616   1.918
72747SOL    HW220139   4.747   7.516   1.933
72748SOL     OW20140   8.485   7.281   6.026
72748SOL    HW120141   8.411   7.226   6.051
72748SOL    HW220142   8.546   7.220   5.984
72749SOL     OW20143   6.885   2.648   8.549
72749SOL    HW120144   6.953   2.664   8.613
72749SOL    HW220145   6.931   2.612   8.473
72750SOL     OW20146   1.003  10.962   0.718
72750SOL    HW120147   0.994  11.020   0.793
72750SOL    HW220148   1.084  10.912   0.735
72751SOL     OW20149   3.664  13.075  14.804
72751SOL    HW120150   3.664  12.980  14.796
72751SOL    HW220151   3.577  13.102  14.773
72752SOL     OW20152   1.908   0.093  12.701
72752SOL    HW120153   1.971   0.036  12.745
72752SOL    HW220154   1.833   0.037  12.683
72753SOL     OW20155   8.024  12.322  13.103
72753SOL    HW120156   8.003  12.413  13.084
72753SOL    HW220157   7.994  12.274  13.025
72754SOL     OW20158   4.828   5.407  12.731
72754SOL    HW120159   4.869   5.463  12.665
72754SOL    HW220160   4.764   5.463  12.774
72755SOL     OW20161   2.359   4.571   9.917
72755SOL    HW120162   2.307   4.501   9.878
72755SOL    HW220163   2.419   4.597   9.847
72756SOL     OW20164  13.875  10.629   2.183
72756SOL    HW120165  13.834  10.546   2.157
72756SOL    HW220166  13.809  10.695   2.164
72757SOL     OW20167  14.538   7.404   1.214
72757SOL    HW120168  14.577   7.488   1.240
72757SOL    HW220169  14.515   7.416   1.122
72758SOL     OW20170  14.791   9.987   7.665
72758SOL    HW120171  14.850  10.015   7.735
72758SOL    HW220172  14.706  10.022   7.689
72759SOL     OW20173  13.174   8.315   1.349
72759SOL    HW120174  13.239   8.331   1.418
72759SOL    HW220175  13.209   8.358   1.272
72760SOL     OW20176   8.124   7.682  13.164
72760SOL    HW120177   8.209   7.719  13.140
72760SOL    HW220178   8.137   7.587  13.156
72761SOL     OW20179   5.850   0.051   1.631
72761SOL    HW120180   5.929   0.077   1.678
72761SOL    HW220181   5.870   0.068   1.539
72762SOL     OW20182   3.203   6.957  14.069
72762SOL    HW120183   3.121   6.924  14.105
72762SOL    HW220184   3.241   6.882  14.023
72763SOL     OW20185   7.203  11.545   5.119
72763SOL    HW120186   7.224  11.553   5.212
72763SOL    HW220187   7.124  11.597   5.108
72764SOL     OW20188   0.774   4.958  12.439
72764SOL    HW120189   0.770   4.974  12.344
72764SOL    HW220190   0.714   5.022  12.476
72765SOL     OW20191   9.430  11.836  13.615
72765SOL    HW120192   9.463  11.800  13.698
72765SOL    HW220193   9.338  11.807  13.612
72766SOL     OW20194   6.902   6.711  12.940
72766SOL    HW120195   6.811   6.737  12.933
72766SOL    HW220196   6.914   6.690  13.032
72767SOL     OW20197   4.527   0.639   2.212
72767SOL    HW120198   4.516   0.557   2.261
72767SOL    HW220199   4.437   0.670   2.196
72768SOL     OW20200  14.848  11.568   3.901
72768SOL    HW120201   0.036  11.589   3.970
72768SOL    HW220202   0.014  11.601   3.821
72769SOL     OW20203   7.725   9.006   5.435
72769SOL    HW120204   7.747   9.069   5.366
72769SOL    HW220205   7.802   9.007   5.492
72770SOL     OW20206   6.865   3.271   0.352
72770SOL    HW120207   6.844   3.322   0.274
72770SOL    HW220208   6.864   3.180   0.321
72771SOL     OW20209  12.049  11.059   8.892
72771SOL    HW120210  12.094  11.046   8.809
72771SOL    HW220211  12.087  11.140   8.928
72772SOL     OW20212   1.930  14.166   3.614
72772SOL    HW120213   1.886  14.194   3.534
72772SOL    HW220214   2.005  14.116   3.584
72773SOL     OW20215   8.561   4.641   5.168
72773SOL    HW120216   8.652   4.665   5.186
72773SOL    HW220217   8.559   4.546   5.174
72774SOL     OW20218   8.302   8.886  13.326
72774SOL    HW120219   8.367   8.908  13.393
72774SOL    HW220220   8.336   8.927  13.246
72775SOL     OW20221  11.025   3.127   1.502
72775SOL    HW120222  10.980   3.183   1.437
72775SOL    HW220223  11.014   3.038   1.468
72776SOL     OW20224   8.492  11.183   9.353
72776SOL    HW120225   8.471  11.272   9.323
72776SOL    HW220226   8.581  11.190   9.387
72777SOL     OW20227   7.037   2.373   2.931
72777SOL    HW120228   6.953   2.366   2.975
72777SOL    HW220229   7.075   2.285   2.936
72778SOL     OW20230   9.484   2.648   2.066
72778SOL    HW120231   9.441   2.638   1.981
72778SOL    HW220232   9.453   2.574   2.118
72779SOL     OW20233  12.367  14.324   3.224
72779SOL    HW120234  12.382  14.243   3.174
72779SOL    HW220235  12.377  14.394   3.160
72780SOL     OW20236   3.516   5.277   7.054
72780SOL    HW120237   3.559   5.346   7.004
72780SOL    HW220238   3.586   5.216   7.075
72781SOL     OW20239   4.441  14.776   2.247
72781SOL    HW120240   4.464  14.868   2.239
72781SOL    HW220241   4.346  14.773   2.237
72782SOL     OW20242   8.453   5.532   5.098
72782SOL    HW120243   8.514   5.458   5.099
72782SOL    HW220244   8.509   5.609   5.102
72783SOL     OW20245   6.637  11.706  10.237
72783SOL    HW120246   6.604  11.702  10.327
72783SOL    HW220247   6.563  11.677  10.184
72784SOL     OW20248   6.954   7.417   4.716
72784SOL    HW120249   7.008   7.421   4.795
72784SOL    HW220250   6.892   7.347   4.733
72785SOL     OW20251   1.403   0.669   3.658
72785SOL    HW120252   1.440   0.732   3.595
72785SOL    HW220253   1.346   0.722   3.714
72786SOL     OW20254   2.313  14.107   9.481
72786SOL    HW120255   2.291  14.200   9.474
72786SOL    HW220256   2.408  14.107   9.495
72787SOL     OW20257   5.912  13.488  11.915
72787SOL    HW120258   5.986  13.447  11.960
72787SOL    HW220259   5.946  13.511  11.829
72788SOL     OW20260  11.600   0.413   7.656
72788SOL    HW120261  11.582   0.322   7.635
72788SOL    HW220262  11.623   0.454   7.573
72789SOL     OW20263  13.791   8.846   4.997
72789SOL    HW120264  13.864   8.903   5.018
72789SOL    HW220265  13.794   8.777   5.064
72790SOL     OW20266  14.835   8.861   6.250
72790SOL    HW120267  14.819   8.818   6.334
72790SOL    HW220268  14.762   8.922   6.240
72791SOL     OW20269   0.630  11.835   1.473
72791SOL    HW120270   0.612  11.767   1.538
72791SOL    HW220271   0.714  11.871   1.500
72792SOL     OW20272   5.166   7.143   3.633
72792SOL    HW120273   5.261   7.136   3.648
72792SOL    HW220274   5.154   7.113   3.543
72793SOL     OW20275   7.012   3.836   3.248
72793SOL    HW120276   7.046   3.911   3.199
72793SOL    HW220277   6.980   3.776   3.181
72794SOL     OW20278   9.070   7.708  13.785
72794SOL    HW120279   9.061   7.803  13.772
72794SOL    HW220280   9.133   7.680  13.719
72795SOL     OW20281   5.819  11.777   5.456
72795SOL    HW120282   5.901  11.772   5.504
72795SOL    HW220283   5.765  11.708   5.493
72796SOL     OW20284   5.627   4.666   4.694
72796SOL    HW120285   5.566   4.592   4.703
72796SOL    HW220286   5.593   4.716   4.620
72797SOL     OW20287   8.693   5.823  14.557
72797SOL    HW120288   8.711   5.851  14.647
72797SOL    HW220289   8.732   5.736  14.550
72798SOL     OW20290   6.186   3.110   7.931
72798SOL    HW120291   6.113   3.054   7.902
72798SOL    HW220292   6.150   3.199   7.927
72799SOL     OW20293   2.953  10.169   1.065
72799SOL    HW120294   2.902  10.168   1.146
72799SOL    HW220295   3.035  10.213   1.088
72800SOL     OW20296   2.455   4.482  14.072
72800SOL    HW120297   2.489   4.536  14.143
72800SOL    HW220298   2.360   4.487  14.081
72801SOL     OW20299   5.140   5.635  10.705
72801SOL    HW120300   5.168   5.714  10.752
72801SOL    HW220301   5.100   5.669  10.625
72802SOL     OW20302   2.811  14.775  11.272
72802SOL    HW120303   2.724  14.735  11.275
72802SOL    HW220304   2.851  14.752  11.357
72803SOL     OW20305   7.865  13.842  10.473
72803SOL    HW120306   7.784  13.842  10.423
72803SOL    HW220307   7.837  13.828  10.564
72804SOL     OW20308   2.420   8.075   4.435
72804SOL    HW120309   2.368   8.106   4.509
72804SOL    HW220310   2.511   8.082   4.465
72805SOL     OW20311   2.391   8.349   0.291
72805SOL    HW120312   2.317   8.302   0.328
72805SOL    HW220313   2.423   8.292   0.221
72806SOL     OW20314   1.480  12.534   7.326
72806SOL    HW120315   1.389  12.539   7.356
72806SOL    HW220316   1.520  12.614   7.361
72807SOL     OW20317   0.765   2.626  13.626
72807SOL    HW120318   0.823   2.696  13.658
72807SOL    HW220319   0.706   2.671  13.566
72808SOL     OW20320   7.001   0.899  14.818
72808SOL    HW120321   7.091   0.866  14.814
72808SOL    HW220322   7.000   0.957   0.019
72809SOL     OW20323  13.505   3.557   5.926
72809SOL    HW120324  13.482   3.648   5.944
72809SOL    HW220325  13.574   3.537   5.989
72810SOL     OW20326  12.775  14.444   2.978
72810SOL    HW120327  12.805  14.535   2.975
72810SOL    HW220328  12.743  14.432   3.068
72811SOL     OW20329  12.126  12.617  11.145
72811SOL    HW120330  12.183  12.547  11.114
72811SOL    HW220331  12.050  12.613  11.088
72812SOL     OW20332  11.721   2.124  11.961
72812SOL    HW120333  11.684   2.109  12.047
72812SOL    HW220334  11.709   2.218  11.946
72813SOL     OW20335  12.520   2.280  13.675
72813SOL    HW120336  12.487   2.356  13.627
72813SOL    HW220337  12.503   2.206  13.617
72814SOL     OW20338   1.702   8.860  14.488
72814SOL    HW120339   1.765   8.832  14.554
72814SOL    HW220340   1.736   8.944  14.457
72815SOL     OW20341   1.061   7.810   2.985
72815SOL    HW120342   1.131   7.867   3.019
72815SOL    HW220343   1.108   7.737   2.944
72816SOL     OW20344   9.065  13.326  13.439
72816SOL    HW120345   9.088  13.270  13.513
72816SOL    HW220346   9.052  13.265  13.366
72817SOL     OW20347   0.514   3.360  11.475
72817SOL    HW120348   0.474   3.347  11.389
72817SOL    HW220349   0.440   3.382  11.532
72818SOL     OW20350   7.360   3.075   2.551
72818SOL    HW120351   7.340   3.132   2.478
72818SOL    HW220352   7.332   3.124   2.628
72819SOL     OW20353  14.514  13.391   7.363
72819SOL    HW120354  14.529  13.344   7.281
72819SOL    HW220355  14.499  13.322   7.427
72820SOL     OW20356   1.400   9.457   2.406
72820SOL    HW120357   1.318   9.487   2.444
72820SOL    HW220358   1.376   9.382   2.352
72821SOL     OW20359  10.688  13.290   3.683
72821SOL    HW120360  10.656  13.296   3.593
72821SOL    HW220361  10.670  13.376   3.721
72822SOL     OW20362  14.250   6.693   5.998
72822SOL    HW120363  14.237   6.627   6.066
72822SOL    HW220364  14.162   6.718   5.970
72823SOL     OW20365   1.073   6.291   7.565
72823SOL    HW120366   1.144   6.348   7.536
72823SOL    HW220367   0.994   6.342   7.552
72824SOL     OW20368   6.772   5.141   7.038
72824SOL    HW120369   6.787   5.085   7.115
72824SOL    HW220370   6.780   5.081   6.964
72825SOL     OW20371   0.910  11.377   5.376
72825SOL    HW120372   0.942  11.320   5.306
72825SOL    HW220373   0.952  11.461   5.361
72826SOL     OW20374   2.262  10.535   8.907
72826SOL    HW120375   2.181  10.487   8.889
72826SOL    HW220376   2.246  10.581   8.989
72827SOL     OW20377  14.617   3.896   4.139
72827SOL    HW120378  14.635   3.870   4.049
72827SOL    HW220379  14.533   3.942   4.135
72828SOL     OW20380  13.891   3.270   5.385
72828SOL    HW120381  13.864   3.348   5.337
72828SOL    HW220382  13.809   3.223   5.402
72829SOL     OW20383  14.224   4.602  12.040
72829SOL    HW120384  14.245   4.692  12.015
72829SOL    HW220385  14.144   4.609  12.092
72830SOL     OW20386  14.481  14.817   9.074
72830SOL    HW120387  14.565  14.853   9.105
72830SOL    HW220388  14.498  14.793   8.983
72831SOL     OW20389   4.829   9.437   5.481
72831SOL    HW120390   4.770   9.446   5.556
72831SOL    HW220391   4.777   9.389   5.416
72832SOL     OW20392   0.814   9.862  14.127
72832SOL    HW120393   0.878   9.886  14.195
72832SOL    HW220394   0.850   9.900  14.046
72833SOL     OW20395   2.217   3.539   3.957
72833SOL    HW120396   2.290   3.589   3.994
72833SOL    HW220397   2.259   3.471   3.904
72834SOL     OW20398  13.770   8.882  11.616
72834SOL    HW120399  13.859   8.848  11.631
72834SOL    HW220400  13.783   8.976  11.602
72835SOL     OW20401   1.686   4.427   1.866
72835SOL    HW120402   1.696   4.450   1.959
72835SOL    HW220403   1.592   4.421   1.853
72836SOL     OW20404   8.508   9.020   6.384
72836SOL    HW120405   8.553   9.095   6.346
72836SOL    HW220406   8.423   9.019   6.342
72837SOL     OW20407  13.207   8.761   0.928
72837SOL    HW120408  13.112   8.753   0.936
72837SOL    HW220409  13.240   8.742   1.016
72838SOL     OW20410   6.036   8.752   3.802
72838SOL    HW120411   5.956   8.700   3.810
72838SOL    HW220412   6.077   8.721   3.722
72839SOL     OW20413  10.318  13.778   4.538
72839SOL    HW120414  10.363  13.736   4.611
72839SOL    HW220415  10.273  13.707   4.492
72840SOL     OW20416  12.048   5.382  13.886
72840SOL    HW120417  12.086   5.299  13.915
72840SOL    HW220418  12.002   5.360  13.805
72841SOL     OW20419   4.760   1.336   8.500
72841SOL    HW120420   4.756   1.243   8.480
72841SOL    HW220421   4.851   1.352   8.525
72842SOL     OW20422  10.983   6.311  14.185
72842SOL    HW120423  10.947   6.222  14.178
72842SOL    HW220424  11.033   6.311  14.266
72843SOL     OW20425   4.703   5.177  12.931
72843SOL    HW120426   4.717   5.239  12.859
72843SOL    HW220427   4.617   5.202  12.967
72844SOL     OW20428   4.900  10.299   5.141
72844SOL    HW120429   4.876  10.245   5.217
72844SOL    HW220430   4.837  10.371   5.141
72845SOL     OW20431   3.255   5.363  12.551
72845SOL    HW120432   3.272   5.448  12.512
72845SOL    HW220433   3.192   5.321  12.492
72846SOL     OW20434   0.491   3.647   5.563
72846SOL    HW120435   0.409   3.656   5.612
72846SOL    HW220436   0.553   3.702   5.611
72847SOL     OW20437   9.015   8.542   5.831
72847SOL    HW120438   8.973   8.484   5.767
72847SOL    HW220439   9.107   8.541   5.807
72848SOL     OW20440  12.114   2.383   1.331
72848SOL    HW120441  12.209   2.387   1.320
72848SOL    HW220442  12.081   2.350   1.248
72849SOL     OW20443  12.401  10.621  13.623
72849SOL    HW120444  12.444  10.553  13.572
72849SOL    HW220445  12.327  10.649  13.568
72850SOL     OW20446   0.109  10.067  12.875
72850SOL    HW120447   0.129  10.132  12.942
72850SOL    HW220448   0.186  10.010  12.873
72851SOL     OW20449   6.974  11.504   8.373
72851SOL    HW120450   6.966  11.412   8.348
72851SOL    HW220451   6.989  11.551   8.291
72852SOL     OW20452   6.411   4.242   1.103
72852SOL    HW120453   6.409   4.276   1.014
72852SOL    HW220454   6.456   4.158   1.096
72853SOL     OW20455   6.618  13.665   4.472
72853SOL    HW120456   6.653  13.585   4.511
72853SOL    HW220457   6.535  13.639   4.433
72854SOL     OW20458   1.206  13.547   7.356
72854SOL    HW120459   1.289  13.580   7.321
72854SOL    HW220460   1.225  13.457   7.382
72855SOL     OW20461   4.869   1.993   3.520
72855SOL    HW120462   4.902   2.077   3.550
72855SOL    HW220463   4.778   2.009   3.496
72856SOL     OW20464   1.417  12.520   8.512
72856SOL    HW120465   1.375  12.599   8.480
72856SOL    HW220466   1.474  12.550   8.583
72857SOL     OW20467   8.978  12.856   1.612
72857SOL    HW120468   9.049  12.819   1.560
72857SOL    HW220469   8.990  12.820   1.699
72858SOL     OW20470  13.905   8.922  11.278
72858SOL    HW120471  13.981   8.904  11.332
72858SOL    HW220472  13.861   8.838  11.267
72859SOL     OW20473  12.724   4.494  13.983
72859SOL    HW120474  12.681   4.529  13.905
72859SOL    HW220475  12.719   4.399  13.973
72860SOL     OW20476   9.765   3.742  10.890
72860SOL    HW120477   9.766   3.822  10.837
72860SOL    HW220478   9.830   3.756  10.958
72861SOL     OW20479  12.303  11.306   1.723
72861SOL    HW120480  12.214  11.312   1.689
72861SOL    HW220481  12.335  11.221   1.692
72862SOL     OW20482   0.840   0.327   6.802
72862SOL    HW120483   0.805   0.394   6.743
72862SOL    HW220484   0.792   0.247   6.778
72863SOL     OW20485  13.070  10.168   7.632
72863SOL    HW120486  13.087  10.175   7.726
72863SOL    HW220487  13.156  10.150   7.593
72864SOL     OW20488   8.915   9.215   5.262
72864SOL    HW120489   8.928   9.249   5.351
72864SOL    HW220490   8.949   9.126   5.265
72865SOL     OW20491  12.878   2.364   2.371
72865SOL    HW120492  12.822   2.427   2.326
72865SOL    HW220493  12.965   2.378   2.335
72866SOL     OW20494   9.594   6.160   6.082
72866SOL    HW120495   9.627   6.087   6.029
72866SOL    HW220496   9.501   6.166   6.060
72867SOL     OW20497   8.152   4.500   4.415
72867SOL    HW120498   8.178   4.408   4.404
72867SOL    HW220499   8.057   4.499   4.402
72868SOL     OW20500   6.114   0.207  12.383
72868SOL    HW120501   6.181   0.192  12.316
72868SOL    HW220502   6.086   0.297  12.369
72869SOL     OW20503   4.349   2.283   7.549
72869SOL    HW120504   4.364   2.290   7.643
72869SOL    HW220505   4.425   2.235   7.516
72870SOL     OW20506   5.786  14.319   9.271
72870SOL    HW120507   5.832  14.387   9.320
72870SOL    HW220508   5.732  14.275   9.337
72871SOL     OW20509  13.197  10.938  13.271
72871SOL    HW120510  13.276  10.883  13.276
72871SOL    HW220511  13.185  10.971  13.360
72872SOL     OW20512  12.313  10.348   4.497
72872SOL    HW120513  12.277  10.266   4.532
72872SOL    HW220514  12.407  10.334   4.497
72873SOL     OW20515   2.053  10.718   5.140
72873SOL    HW120516   2.123  10.763   5.187
72873SOL    HW220517   2.076  10.625   5.144
72874SOL     OW20518   9.801   0.378   3.341
72874SOL    HW120519   9.884   0.416   3.370
72874SOL    HW220520   9.734   0.437   3.375
72875SOL     OW20521   4.484   6.601  13.341
72875SOL    HW120522   4.446   6.685  13.317
72875SOL    HW220523   4.445   6.538  13.281
72876SOL     OW20524   3.012  11.172   5.531
72876SOL    HW120525   2.974  11.196   5.446
72876SOL    HW220526   2.957  11.217   5.595
72877SOL     OW20527  13.013  14.006  13.218
72877SOL    HW120528  12.926  14.042  13.237
72877SOL    HW220529  13.031  13.947  13.291
72878SOL     OW20530  14.194   5.298  10.937
72878SOL    HW120531  14.160   5.209  10.944
72878SOL    HW220532  14.247   5.310  11.016
72879SOL     OW20533  13.699   1.086   0.637
72879SOL    HW120534  13.637   1.025   0.676
72879SOL    HW220535  13.722   1.046   0.553
72880SOL     OW20536   3.377  13.432   8.319
72880SOL    HW120537   3.326  13.396   8.247
72880SOL    HW220538   3.419  13.356   8.359
72881SOL     OW20539   0.295   0.209   8.728
72881SOL    HW120540   0.349   0.142   8.686
72881SOL    HW220541   0.319   0.290   8.683
72882SOL     OW20542  10.492  14.012   2.994
72882SOL    HW120543  10.501  14.060   3.076
72882SOL    HW220544  10.422  13.949   3.010
72883SOL     OW20545   0.540   0.643   8.081
72883SOL    HW120546   0.486   0.566   8.098
72883SOL    HW220547   0.621   0.607   8.045
72884SOL     OW20548   8.177  10.807   0.916
72884SOL    HW120549   8.175  10.846   1.003
72884SOL    HW220550   8.270  10.800   0.895
72885SOL     OW20551  13.222   0.540   0.226
72885SOL    HW120552  13.202   0.579   0.141
72885SOL    HW220553  13.228   0.446   0.209
72886SOL     OW20554   3.932   0.971   6.203
72886SOL    HW120555   3.925   1.038   6.271
72886SOL    HW220556   3.907   1.015   6.122
72887SOL     OW20557  14.306  14.706  12.159
72887SOL    HW120558  14.334  14.648  12.088
72887SOL    HW220559  14.251  14.651  12.214
72888SOL     OW20560   8.060   6.017   9.116
72888SOL    HW120561   8.137   6.024   9.172
72888SOL    HW220562   8.050   6.105   9.078
72889SOL     OW20563   1.614  12.637   6.581
72889SOL    HW120564   1.523  12.618   6.561
72889SOL    HW220565   1.619  12.732   6.585
72890SOL     OW20566  10.997  10.779   3.213
72890SOL    HW120567  11.064  10.716   3.186
72890SOL    HW220568  11.011  10.790   3.307
72891SOL     OW20569   1.731   6.934  13.557
72891SOL    HW120570   1.802   6.967  13.502
72891SOL    HW220571   1.764   6.943  13.646
72892SOL     OW20572   0.544   3.870  11.554
72892SOL    HW120573   0.523   3.857  11.461
72892SOL    HW220574   0.514   3.960  11.572
72893SOL     OW20575  13.231  14.070  11.949
72893SOL    HW120576  13.164  14.008  11.923
72893SOL    HW220577  13.312  14.037  11.910
72894SOL     OW20578  13.234  11.447  12.711
72894SOL    HW120579  13.253  11.410  12.797
72894SOL    HW220580  13.171  11.387  12.672
72895SOL     OW20581   3.420   5.162   4.167
72895SOL    HW120582   3.487   5.225   4.142
72895SOL    HW220583   3.337   5.201   4.139
72896SOL     OW20584   3.020   1.884  10.097
72896SOL    HW120585   2.958   1.855  10.031
72896SOL    HW220586   3.039   1.975  10.074
72897SOL     OW20587   9.859   3.135  12.398
72897SOL    HW120588   9.928   3.107  12.458
72897SOL    HW220589   9.900   3.201  12.343
72898SOL     OW20590  11.714  12.148   2.339
72898SOL    HW120591  11.691  12.076   2.398
72898SOL    HW220592  11.804  12.130   2.314
72899SOL     OW20593   9.060   6.244   7.166
72899SOL    HW120594   9.116   6.239   7.243
72899SOL    HW220595   9.058   6.155   7.132
72900SOL     OW20596   0.871   3.535   3.471
72900SOL    HW120597   0.861   3.516   3.564
72900SOL    HW220598   0.953   3.584   3.466
72901SOL     OW20599   7.834   9.219  13.786
72901SOL    HW120600   7.814   9.270  13.707
72901SOL    HW220601   7.912   9.261  13.822
72902SOL     OW20602  11.080   6.696   1.410
72902SOL    HW120603  11.040   6.671   1.327
72902SOL    HW220604  11.162   6.739   1.385
72903SOL     OW20605   7.457   0.408  10.563
72903SOL    HW120606   7.508   0.466  10.619
72903SOL    HW220607   7.421   0.465  10.495
72904SOL     OW20608   1.067  12.948   9.796
72904SOL    HW120609   1.056  12.862   9.837
72904SOL    HW220610   0.994  12.954   9.734
72905SOL     OW20611   4.716   2.483   5.996
72905SOL    HW120612   4.768   2.423   6.048
72905SOL    HW220613   4.625   2.455   6.009
72906SOL     OW20614   7.931   8.786   0.590
72906SOL    HW120615   7.950   8.694   0.573
72906SOL    HW220616   7.855   8.785   0.647
72907SOL     OW20617   2.547   4.025  12.028
72907SOL    HW120618   2.624   4.031  11.972
72907SOL    HW220619   2.564   4.089  12.098
72908SOL     OW20620  13.729   6.550  12.231
72908SOL    HW120621  13.645   6.582  12.264
72908SOL    HW220622  13.765   6.623  12.181
72909SOL     OW20623  14.548   5.965   9.210
72909SOL    HW120624  14.600   5.953   9.290
72909SOL    HW220625  14.457   5.962   9.239
72910SOL     OW20626  14.031   3.431  12.615
72910SOL    HW120627  13.994   3.394  12.695
72910SOL    HW220628  14.057   3.520  12.640
72911SOL     OW20629  10.299   0.274   4.130
72911SOL    HW120630  10.337   0.360   4.112
72911SOL    HW220631  10.232   0.263   4.061
72912SOL     OW20632  12.204   9.273  10.927
72912SOL    HW120633  12.298   9.278  10.915
72912SOL    HW220634  12.168   9.280  10.838
72913SOL     OW20635  12.810  12.830   8.762
72913SOL    HW120636  12.904  12.814   8.773
72913SOL    HW220637  12.800  12.856   8.671
72914SOL     OW20638   2.114   8.502   3.216
72914SOL    HW120639   2.160   8.539   3.140
72914SOL    HW220640   2.173   8.433   3.247
72915SOL     OW20641   9.513  10.157  14.476
72915SOL    HW120642   9.543  10.099  14.546
72915SOL    HW220643   9.428  10.189  14.507
72916SOL     OW20644   8.940  10.905   3.575
72916SOL    HW120645   8.965  10.921   3.666
72916SOL    HW220646   8.969  10.815   3.558
72917SOL     OW20647   4.081   2.026   4.573
72917SOL    HW120648   4.076   2.074   4.491
72917SOL    HW220649   4.172   2.035   4.601
72918SOL     OW20650   0.102  12.482   4.887
72918SOL    HW120651   0.169  12.452   4.825
72918SOL    HW220652   0.061  12.401   4.918
72919SOL     OW20653  14.410   3.916  13.256
72919SOL    HW120654  14.474   3.986  13.241
72919SOL    HW220655  14.464   3.839  13.276
72920SOL     OW20656   3.195   5.495   5.837
72920SOL    HW120657   3.172   5.404   5.819
72920SOL    HW220658   3.142   5.546   5.776
72921SOL     OW20659   0.872   1.686   3.010
72921SOL    HW120660   0.866   1.683   2.914
72921SOL    HW220661   0.940   1.751   3.027
72922SOL     OW20662  14.581   7.176   2.938
72922SOL    HW120663  14.651   7.182   3.003
72922SOL    HW220664  14.586   7.259   2.890
72923SOL     OW20665  13.549   0.373   4.385
72923SOL    HW120666  13.485   0.415   4.442
72923SOL    HW220667  13.500   0.301   4.343
72924SOL     OW20668   4.481   7.037   2.879
72924SOL    HW120669   4.485   7.060   2.972
72924SOL    HW220670   4.421   6.963   2.875
72925SOL     OW20671   0.000  11.639  14.178
72925SOL    HW120672   0.057  11.567  14.207
72925SOL    HW220673  14.793  11.625  14.224
72926SOL     OW20674   6.122   1.983  13.566
72926SOL    HW120675   6.156   2.068  13.538
72926SOL    HW220676   6.114   1.990  13.661
72927SOL     OW20677   5.229  12.388   8.032
72927SOL    HW120678   5.258  12.464   8.082
72927SOL    HW220679   5.286  12.387   7.955
72928SOL     OW20680   8.590   5.441  13.326
72928SOL    HW120681   8.670   5.478  13.289
72928SOL    HW220682   8.574   5.362  13.275
72929SOL     OW20683   1.706   0.603   4.284
72929SOL    HW120684   1.645   0.625   4.214
72929SOL    HW220685   1.651   0.584   4.360
72930SOL     OW20686   6.683  10.702   2.430
72930SOL    HW120687   6.636  10.765   2.485
72930SOL    HW220688   6.633  10.621   2.437
72931SOL     OW20689  11.378   5.741  10.551
72931SOL    HW120690  11.304   5.714  10.604
72931SOL    HW220691  11.339   5.778  10.472
72932SOL     OW20692   8.653  10.533   9.647
72932SOL    HW120693   8.622  10.538   9.556
72932SOL    HW220694   8.738  10.490   9.640
72933SOL     OW20695   1.080   5.297   9.673
72933SOL    HW120696   1.113   5.334   9.591
72933SOL    HW220697   1.143   5.326   9.739
72934SOL     OW20698   8.488   5.058  14.305
72934SOL    HW120699   8.555   5.045  14.238
72934SOL    HW220700   8.435   4.979  14.302
72935SOL     OW20701   5.159   8.342   0.448
72935SOL    HW120702   5.112   8.425   0.439
72935SOL    HW220703   5.101   8.288   0.501
72936SOL     OW20704  14.672   0.594   3.519
72936SOL    HW120705  14.692   0.686   3.532
72936SOL    HW220706  14.724   0.569   3.442
72937SOL     OW20707   4.785   4.450   3.560
72937SOL    HW120708   4.856   4.407   3.607
72937SOL    HW220709   4.781   4.405   3.476
72938SOL     OW20710  14.500  12.353   0.343
72938SOL    HW120711  14.535  12.380   0.427
72938SOL    HW220712  14.484  12.435   0.296
72939SOL     OW20713  12.435  12.314   8.839
72939SOL    HW120714  12.509  12.363   8.875
72939SOL    HW220715  12.474  12.238   8.797
72940SOL     OW20716  12.080   9.874   7.126
72940SOL    HW120717  11.987   9.889   7.140
72940SOL    HW220718  12.090   9.779   7.125
72941SOL     OW20719   8.367   9.009  10.065
72941SOL    HW120720   8.294   9.029  10.006
72941SOL    HW220721   8.396   8.922  10.039
72942SOL     OW20722   5.238   8.923   7.738
72942SOL    HW120723   5.213   8.897   7.827
72942SOL    HW220724   5.250   8.840   7.691
72943SOL     OW20725  12.225   0.710  10.149
72943SOL    HW120726  12.143   0.739  10.190
72943SOL    HW220727  12.204   0.624  10.113
72944SOL     OW20728   1.008   2.858   1.129
72944SOL    HW120729   1.037   2.829   1.043
72944SOL    HW220730   1.058   2.937   1.147
72945SOL     OW20731   4.545   2.221  12.970
72945SOL    HW120732   4.481   2.149  12.975
72945SOL    HW220733   4.599   2.209  13.048
72946SOL     OW20734  10.289   1.171  13.754
72946SOL    HW120735  10.193   1.177  13.759
72946SOL    HW220736  10.317   1.262  13.747
72947SOL     OW20737   0.649  12.980  12.073
72947SOL    HW120738   0.676  12.899  12.029
72947SOL    HW220739   0.713  12.993  12.142
72948SOL     OW20740  11.774   1.790   1.960
72948SOL    HW120741  11.737   1.877   1.978
72948SOL    HW220742  11.703   1.742   1.917
72949SOL     OW20743  10.618  11.267   9.999
72949SOL    HW120744  10.586  11.208   9.930
72949SOL    HW220745  10.539  11.289  10.049
72950SOL     OW20746   3.773   0.634  12.950
72950SOL    HW120747   3.698   0.575  12.941
72950SOL    HW220748   3.768   0.691  12.874
72951SOL     OW20749   3.576  12.767   9.865
72951SOL    HW120750   3.609  12.715   9.938
72951SOL    HW220751   3.481  12.756   9.869
72952SOL     OW20752   1.722   2.803   2.894
72952SOL    HW120753   1.641   2.788   2.846
72952SOL    HW220754   1.782   2.736   2.861
72953SOL     OW20755   7.133   8.379   2.841
72953SOL    HW120756   7.091   8.465   2.840
72953SOL    HW220757   7.147   8.360   2.934
72954SOL     OW20758   2.828   7.095   7.865
72954SOL    HW120759   2.865   7.099   7.777
72954SOL    HW220760   2.808   7.002   7.878
72955SOL     OW20761   8.778   0.375  12.810
72955SOL    HW120762   8.801   0.282  12.817
72955SOL    HW220763   8.747   0.385  12.720
72956SOL     OW20764  14.833   1.322   2.354
72956SOL    HW120765   0.024   1.253   2.365
72956SOL    HW220766  14.827   1.334   2.259
72957SOL     OW20767   6.339   9.763   5.059
72957SOL    HW120768   6.314   9.671   5.051
72957SOL    HW220769   6.433   9.763   5.042
72958SOL     OW20770   8.246   7.066   0.891
72958SOL    HW120771   8.272   7.080   0.982
72958SOL    HW220772   8.205   6.979   0.890
72959SOL     OW20773  10.025   3.517  13.290
72959SOL    HW120774  10.044   3.571  13.214
72959SOL    HW220775   9.970   3.446  13.257
72960SOL     OW20776   2.417  12.788   6.680
72960SOL    HW120777   2.442  12.879   6.670
72960SOL    HW220778   2.357  12.787   6.755
72961SOL     OW20779   3.172   2.224   4.578
72961SOL    HW120780   3.176   2.259   4.489
72961SOL    HW220781   3.100   2.161   4.576
72962SOL     OW20782  11.858   6.157  10.293
72962SOL    HW120783  11.882   6.231  10.238
72962SOL    HW220784  11.765   6.170  10.313
72963SOL     OW20785  10.895   2.574   1.096
72963SOL    HW120786  10.888   2.502   1.159
72963SOL    HW220787  10.807   2.580   1.058
72964SOL     OW20788  10.269   9.419   7.095
72964SOL    HW120789  10.301   9.335   7.129
72964SOL    HW220790  10.296   9.484   7.160
72965SOL     OW20791   9.781   1.219  13.441
72965SOL    HW120792   9.761   1.183  13.527
72965SOL    HW220793   9.754   1.151  13.379
72966SOL     OW20794   3.177   2.924   9.613
72966SOL    HW120795   3.148   2.999   9.665
72966SOL    HW220796   3.139   2.938   9.526
72967SOL     OW20797   2.009  10.596   8.649
72967SOL    HW120798   2.030  10.542   8.724
72967SOL    HW220799   2.083  10.657   8.642
72968SOL     OW20800   0.566   7.527  10.175
72968SOL    HW120801   0.478   7.561  10.157
72968SOL    HW220802   0.564   7.436  10.145
72969SOL     OW20803   8.946   1.006   7.986
72969SOL    HW120804   8.868   0.971   8.029
72969SOL    HW220805   8.934   1.101   7.987
72970SOL     OW20806   1.650   6.243  12.788
72970SOL    HW120807   1.649   6.280  12.700
72970SOL    HW220808   1.686   6.155  12.776
72971SOL     OW20809   0.947   4.577   2.598
72971SOL    HW120810   1.014   4.564   2.531
72971SOL    HW220811   0.909   4.663   2.578
72972SOL     OW20812  12.447   0.695   9.888
72972SOL    HW120813  12.476   0.614   9.930
72972SOL    HW220814  12.526   0.748   9.881
72973SOL     OW20815  12.479  12.755   3.057
72973SOL    HW120816  12.539  12.793   2.994
72973SOL    HW220817  12.508  12.664   3.066
72974SOL     OW20818  13.193   8.619  11.726
72974SOL    HW120819  13.278   8.655  11.699
72974SOL    HW220820  13.214   8.532  11.759
72975SOL     OW20821  14.699   8.923   4.174
72975SOL    HW120822  14.783   8.962   4.150
72975SOL    HW220823  14.675   8.871   4.097
72976SOL     OW20824   6.347   7.717   8.864
72976SOL    HW120825   6.337   7.697   8.771
72976SOL    HW220826   6.297   7.649   8.910
72977SOL     OW20827   3.599   1.432   7.242
72977SOL    HW120828   3.540   1.405   7.172
72977SOL    HW220829   3.654   1.356   7.258
72978SOL     OW20830  14.013   8.536  10.753
72978SOL    HW120831  13.932   8.503  10.715
72978SOL    HW220832  14.082   8.499  10.698
72979SOL     OW20833  12.405   2.122   5.683
72979SOL    HW120834  12.418   2.199   5.627
72979SOL    HW220835  12.313   2.127   5.708
72980SOL     OW20836  14.686   2.812   1.186
72980SOL    HW120837  14.605   2.770   1.157
72980SOL    HW220838  14.740   2.741   1.219
72981SOL     OW20839   7.469   6.636  13.601
72981SOL    HW120840   7.551   6.680  13.625
72981SOL    HW220841   7.433   6.691  13.531
72982SOL     OW20842  14.601   7.490   6.551
72982SOL    HW120843  14.591   7.512   6.458
72982SOL    HW220844  14.513   7.469   6.581
72983SOL     OW20845   8.503  13.876  13.352
72983SOL    HW120846   8.493  13.782  13.369
72983SOL    HW220847   8.474  13.888  13.262
72984SOL     OW20848   8.384   7.900  14.252
72984SOL    HW120849   8.451   7.951  14.299
72984SOL    HW220850   8.320   7.966  14.224
72985SOL     OW20851  11.007   9.548   3.079
72985SOL    HW120852  11.085   9.581   3.034
72985SOL    HW220853  11.038   9.524   3.166
72986SOL     OW20854   6.043  14.376   2.980
72986SOL    HW120855   6.099  14.418   2.914
72986SOL    HW220856   5.966  14.347   2.932
72987SOL     OW20857  14.365  13.438   7.664
72987SOL    HW120858  14.396  13.515   7.617
72987SOL    HW220859  14.415  13.439   7.746
72988SOL     OW20860   3.068   0.458   9.088
72988SOL    HW120861   3.150   0.418   9.119
72988SOL    HW220862   3.093   0.505   9.008
72989SOL     OW20863   1.288   2.125   5.846
72989SOL    HW120864   1.357   2.188   5.828
72989SOL    HW220865   1.284   2.071   5.767
72990SOL     OW20866   8.611  12.570   2.027
72990SOL    HW120867   8.585  12.657   2.056
72990SOL    HW220868   8.671  12.539   2.095
72991SOL     OW20869   0.891  14.792  10.802
72991SOL    HW120870   0.965  14.732  10.815
72991SOL    HW220871   0.867  14.819  10.890
72992SOL     OW20872   5.180   3.433  12.687
72992SOL    HW120873   5.182   3.408  12.780
72992SOL    HW220874   5.231   3.514  12.684
72993SOL     OW20875   0.686   1.970  13.693
72993SOL    HW120876   0.763   2.027  13.685
72993SOL    HW220877   0.710   1.908  13.761
72994SOL     OW20878   2.222  12.367   0.917
72994SOL    HW120879   2.179  12.323   0.843
72994SOL    HW220880   2.161  12.437   0.941
72995SOL     OW20881  10.687   9.389  14.820
72995SOL    HW120882  10.603   9.344  14.818
72995SOL    HW220883  10.686   9.438   0.027
72996SOL     OW20884   1.011   4.216  12.263
72996SOL    HW120885   1.034   4.124  12.272
72996SOL    HW220886   0.971   4.222  12.176
72997SOL     OW20887  12.797   9.898   0.177
72997SOL    HW120888  12.722   9.860   0.223
72997SOL    HW220889  12.804   9.846   0.097
72998SOL     OW20890   9.053  14.123  14.048
72998SOL    HW120891   9.062  14.028  14.053
72998SOL    HW220892   8.961  14.138  14.028
72999SOL     OW20893   7.166   2.682   7.166
72999SOL    HW120894   7.258   2.702   7.150
72999SOL    HW220895   7.118   2.751   7.120
73000SOL     OW20896   5.286  11.334   8.471
73000SOL    HW120897   5.339  11.267   8.515
73000SOL    HW220898   5.241  11.288   8.401
73001SOL     OW20899   9.411  12.399   8.558
73001SOL    HW120900   9.340  12.348   8.596
73001SOL    HW220901   9.396  12.396   8.464
73002SOL     OW20902   2.217   0.289  12.170
73002SOL    HW120903   2.160   0.212  12.178
73002SOL    HW220904   2.267   0.290  12.252
73003SOL     OW20905  11.524   6.598   7.336
73003SOL    HW120906  11.504   6.627   7.247
73003SOL    HW220907  11.584   6.525   7.325
73004SOL     OW20908   3.749   5.853  13.190
73004SOL    HW120909   3.690   5.780  13.209
73004SOL    HW220910   3.713   5.926  13.240
73005SOL     OW20911   3.576  10.267  11.106
73005SOL    HW120912   3.572  10.172  11.095
73005SOL    HW220913   3.597  10.300  11.018
73006SOL     OW20914  10.104   3.048   4.513
73006SOL    HW120915  10.163   3.102   4.565
73006SOL    HW220916  10.144   2.961   4.514
73007SOL     OW20917   5.846   2.321   7.635
73007SOL    HW120918   5.772   2.318   7.574
73007SOL    HW220919   5.885   2.407   7.621
73008SOL     OW20920   6.210   9.729  14.009
73008SOL    HW120921   6.151   9.779  13.952
73008SOL    HW220922   6.235   9.652  13.957
73009SOL     OW20923  10.473  12.822   7.077
73009SOL    HW120924  10.418  12.772   7.016
73009SOL    HW220925  10.422  12.824   7.158
73010SOL     OW20926   4.309   6.074  10.312
73010SOL    HW120927   4.249   6.115  10.250
73010SOL    HW220928   4.259   6.000  10.347
73011SOL     OW20929   8.073  14.831   7.569
73011SOL    HW120930   8.045  14.814   7.659
73011SOL    HW220931   8.040   0.043   7.549
73012SOL     OW20932  10.171   9.302   4.179
73012SOL    HW120933  10.148   9.219   4.139
73012SOL    HW220934  10.201   9.279   4.267
73013SOL     OW20935   7.970   0.060   5.440
73013SOL    HW120936   7.996  14.862   5.383
73013SOL    HW220937   7.935   0.126   5.380
73014SOL     OW20938   9.829   3.928  14.726
73014SOL    HW120939   9.785   3.850  14.760
73014SOL    HW220940   9.757   3.986  14.701
73015SOL     OW20941   8.731   6.933   8.337
73015SOL    HW120942   8.780   6.871   8.284
73015SOL    HW220943   8.752   6.909   8.428
73016SOL     OW20944   8.159   2.267   2.194
73016SOL    HW120945   8.229   2.325   2.166
73016SOL    HW220946   8.204   2.188   2.223
73017SOL     OW20947  11.027  13.385   1.553
73017SOL    HW120948  11.053  13.470   1.588
73017SOL    HW220949  10.950  13.405   1.499
73018SOL     OW20950   4.666  12.248  12.990
73018SOL    HW120951   4.734  12.211  13.046
73018SOL    HW220952   4.597  12.182  12.990
73019SOL     OW20953   6.704   9.383   4.727
73019SOL    HW120954   6.660   9.303   4.758
73019SOL    HW220955   6.793   9.355   4.707
73020SOL     OW20956   2.918   2.450   8.086
73020SOL    HW120957   2.988   2.456   8.021
73020SOL    HW220958   2.932   2.525   8.143
73021SOL     OW20959  10.836   0.470   5.951
73021SOL    HW120960  10.865   0.469   6.042
73021SOL    HW220961  10.870   0.389   5.914
73022SOL     OW20962   7.851   7.678   4.477
73022SOL    HW120963   7.795   7.729   4.535
73022SOL    HW220964   7.799   7.601   4.454
73023SOL     OW20965   0.089   9.397   0.697
73023SOL    HW120966   0.079   9.478   0.749
73023SOL    HW220967   0.024   9.337   0.734
73024SOL     OW20968   5.437   9.683  11.530
73024SOL    HW120969   5.415   9.770  11.563
73024SOL    HW220970   5.486   9.642  11.601
73025SOL     OW20971   1.658   5.129  12.398
73025SOL    HW120972   1.639   5.048  12.351
73025SOL    HW220973   1.576   5.178  12.395
73026SOL     OW20974   5.443   2.600  14.730
73026SOL    HW120975   5.431   2.521  14.677
73026SOL    HW220976   5.535   2.624  14.716
73027SOL     OW20977   3.612   8.075   1.287
73027SOL    HW120978   3.642   8.036   1.370
73027SOL    HW220979   3.520   8.052   1.282
73028SOL     OW20980  10.695   4.633   8.747
73028SOL    HW120981  10.700   4.553   8.695
73028SOL    HW220982  10.749   4.696   8.699
73029SOL     OW20983  13.833   8.391   5.942
73029SOL    HW120984  13.800   8.322   5.999
73029SOL    HW220985  13.918   8.360   5.912
73030SOL     OW20986   4.604   1.548  10.068
73030SOL    HW120987   4.594   1.631  10.114
73030SOL    HW220988   4.568   1.483  10.128
73031SOL     OW20989   6.228   7.638  13.810
73031SOL    HW120990   6.268   7.552  13.820
73031SOL    HW220991   6.270   7.675  13.733
73032SOL     OW20992   9.738   2.327   9.675
73032SOL    HW120993   9.680   2.402   9.670
73032SOL    HW220994   9.734   2.298   9.766
73033SOL     OW20995  13.606   7.974   1.702
73033SOL    HW120996  13.592   7.883   1.730
73033SOL    HW220997  13.529   7.995   1.650
73034SOL     OW20998   5.477  12.065   4.607
73034SOL    HW120999   5.483  11.983   4.655
73034SOL    HW221000   5.567  12.097   4.602
73035SOL     OW21001  10.739  13.030  10.036
73035SOL    HW121002  10.770  12.944  10.008
73035SOL    HW221003  10.663  13.048   9.982
73036SOL     OW21004   0.683   2.918   1.625
73036SOL    HW121005   0.620   2.852   1.596
73036SOL    HW221006   0.639   2.965   1.695
73037SOL     OW21007  10.529   6.558   8.882
73037SOL    HW121008  10.574   6.474   8.889
73037SOL    HW221009  10.583   6.609   8.821
73038SOL     OW21010   2.104   0.041   9.914
73038SOL    HW121011   2.072   0.129   9.893
73038SOL    HW221012   2.078  14.862   9.839
73039SOL     OW21013   3.266   7.199   0.539
73039SOL    HW121014   3.242   7.169   0.451
73039SOL    HW221015   3.295   7.119   0.584
73040SOL     OW21016   1.505   8.871   5.040
73040SOL    HW121017   1.438   8.819   4.998
73040SOL    HW221018   1.509   8.952   4.989
73041SOL     OW21019   0.699   5.391   2.201
73041SOL    HW121020   0.756   5.463   2.229
73041SOL    HW221021   0.704   5.328   2.273
73042SOL     OW21022   5.523  13.277   4.568
73042SOL    HW121023   5.492  13.187   4.583
73042SOL    HW221024   5.468  13.309   4.496
73043SOL     OW21025   1.387  10.757  11.993
73043SOL    HW121026   1.456  10.736  12.056
73043SOL    HW221027   1.424  10.826  11.938
73044SOL     OW21028   6.220   2.931   0.667
73044SOL    HW121029   6.176   2.966   0.744
73044SOL    HW221030   6.170   2.967   0.593
73045SOL     OW21031  12.274  10.521   6.128
73045SOL    HW121032  12.234  10.561   6.206
73045SOL    HW221033  12.200  10.497   6.073
73046SOL     OW21034  14.834   5.392  12.587
73046SOL    HW121035  14.797   5.452  12.652
73046SOL    HW221036  14.759   5.369  12.531
73047SOL     OW21037  14.211  12.522   8.785
73047SOL    HW121038  14.266  12.452   8.751
73047SOL    HW221039  14.182  12.570   8.708
73048SOL     OW21040  12.558   7.456  10.658
73048SOL    HW121041  12.470   7.494  10.653
73048SOL    HW221042  12.542   7.361  10.659
73049SOL     OW21043  10.626   1.255   5.848
73049SOL    HW121044  10.660   1.330   5.800
73049SOL    HW221045  10.701   1.196   5.858
73050SOL     OW21046   6.382   5.859   9.613
73050SOL    HW121047   6.427   5.943   9.611
73050SOL    HW221048   6.392   5.829   9.704
73051SOL     OW21049  12.514   4.013   4.558
73051SOL    HW121050  12.463   3.982   4.484
73051SOL    HW221051  12.553   4.095   4.528
73052SOL     OW21052  10.992   3.226   2.864
73052SOL    HW121053  10.918   3.202   2.808
73052SOL    HW221054  11.024   3.308   2.826
73053SOL     OW21055   9.182   2.855  14.035
73053SOL    HW121056   9.244   2.798  13.990
73053SOL    HW221057   9.199   2.942  13.999
73054SOL     OW21058   0.662  10.097   8.658
73054SOL    HW121059   0.572  10.068   8.649
73054SOL    HW221060   0.673  10.164   8.591
73055SOL     OW21061  14.572  14.279   6.972
73055SOL    HW121062  14.553  14.224   7.047
73055SOL    HW221063  14.666  14.265   6.955
73056SOL     OW21064  12.267   3.050   0.044
73056SOL    HW121065  12.345   2.996   0.055
73056SOL    HW221066  12.206   3.019   0.112
73057SOL     OW21067  11.131  11.104  14.812
73057SOL    HW121068  11.127  11.158  14.734
73057SOL    HW221069  11.182  11.155  14.875
73058SOL     OW21070  11.958   1.913   0.908
73058SOL    HW121071  11.873   1.949   0.933
73058SOL    HW221072  11.993   1.977   0.846
73059SOL     OW21073   9.464  12.390   0.125
73059SOL    HW121074   9.385  12.422   0.169
73059SOL    HW221075   9.432  12.335   0.054
73060SOL     OW21076   7.661   1.112  12.196
73060SOL    HW121077   7.601   1.185  12.214
73060SOL    HW221078   7.701   1.135  12.113
73061SOL     OW21079  13.610  11.510   2.321
73061SOL    HW121080  13.642  11.492   2.233
73061SOL    HW221081  13.683  11.486   2.378
73062SOL     OW21082   5.146   7.513   3.154
73062SOL    HW121083   5.172   7.487   3.242
73062SOL    HW221084   5.203   7.586   3.133
73063SOL     OW21085   7.325  13.113   3.675
73063SOL    HW121086   7.420  13.104   3.688
73063SOL    HW221087   7.294  13.150   3.757
73064SOL     OW21088   7.503  12.431   9.731
73064SOL    HW121089   7.411  12.456   9.733
73064SOL    HW221090   7.512  12.364   9.799
73065SOL     OW21091   9.284  13.054   9.348
73065SOL    HW121092   9.294  13.141   9.309
73065SOL    HW221093   9.230  13.068   9.425
73066SOL     OW21094  14.822  12.102   0.620
73066SOL    HW121095  14.802  12.037   0.553
73066SOL    HW221096   0.031  12.074   0.657
73067SOL     OW21097   2.869   6.207   3.549
73067SOL    HW121098   2.959   6.192   3.578
73067SOL    HW221099   2.816   6.193   3.628
73068SOL     OW21100   9.587  13.210   0.768
73068SOL    HW121101   9.677  13.181   0.756
73068SOL    HW221102   9.534  13.135   0.742
73069SOL     OW21103  11.855   1.785  12.431
73069SOL    HW121104  11.905   1.768  12.351
73069SOL    HW221105  11.846   1.880  12.434
73070SOL     OW21106   4.678   1.649  10.800
73070SOL    HW121107   4.700   1.660  10.892
73070SOL    HW221108   4.665   1.738  10.767
73071SOL     OW21109  10.304   7.616   9.560
73071SOL    HW121110  10.366   7.579   9.621
73071SOL    HW221111  10.231   7.646   9.614
73072SOL     OW21112   0.507   0.660   1.647
73072SOL    HW121113   0.462   0.654   1.731
73072SOL    HW221114   0.586   0.712   1.666
73073SOL     OW21115   8.379  11.259   1.039
73073SOL    HW121116   8.342  11.248   1.126
73073SOL    HW221117   8.414  11.348   1.038
73074SOL     OW21118   0.924   8.175   7.245
73074SOL    HW121119   0.955   8.179   7.335
73074SOL    HW221120   0.829   8.178   7.253
73075SOL     OW21121   0.836   3.531  11.834
73075SOL    HW121122   0.802   3.512  11.747
73075SOL    HW221123   0.871   3.447  11.864
73076SOL     OW21124   8.294  11.567   1.527
73076SOL    HW121125   8.293  11.631   1.455
73076SOL    HW221126   8.310  11.619   1.605
73077SOL     OW21127   5.302   2.120   4.667
73077SOL    HW121128   5.379   2.150   4.716
73077SOL    HW221129   5.232   2.116   4.732
73078SOL     OW21130   5.038  11.191   6.940
73078SOL    HW121131   5.066  11.225   6.855
73078SOL    HW221132   5.095  11.116   6.955
73079SOL     OW21133  13.669   0.587   5.990
73079SOL    HW121134  13.729   0.514   6.003
73079SOL    HW221135  13.592   0.548   5.949
73080SOL     OW21136   4.890   8.640   3.667
73080SOL    HW121137   4.871   8.570   3.605
73080SOL    HW221138   4.916   8.595   3.747
73081SOL     OW21139   0.335   8.022  10.377
73081SOL    HW121140   0.327   8.116  10.363
73081SOL    HW221141   0.421   7.999  10.341
73082SOL     OW21142   3.728   5.266  10.840
73082SOL    HW121143   3.673   5.192  10.813
73082SOL    HW221144   3.775   5.234  10.917
73083SOL     OW21145  13.639   0.985   9.998
73083SOL    HW121146  13.575   1.023   9.938
73083SOL    HW221147  13.662   1.057  10.058
73084SOL     OW21148   3.696  13.929   8.708
73084SOL    HW121149   3.671  13.956   8.797
73084SOL    HW221150   3.650  13.990   8.651
73085SOL     OW21151  14.140   6.753   6.564
73085SOL    HW121152  14.092   6.767   6.646
73085SOL    HW221153  14.162   6.660   6.566
73086SOL     OW21154  12.989   3.303   0.325
73086SOL    HW121155  12.968   3.372   0.262
73086SOL    HW221156  13.040   3.346   0.393
73087SOL     OW21157   8.141   6.696  10.633
73087SOL    HW121158   8.212   6.712  10.570
73087SOL    HW221159   8.185   6.695  10.718
73088SOL     OW21160  12.262   2.134   4.229
73088SOL    HW121161  12.328   2.068   4.208
73088SOL    HW221162  12.310   2.203   4.275
73089SOL     OW21163  14.496   8.940  10.485
73089SOL    HW121164  14.407   8.966  10.462
73089SOL    HW221165  14.493   8.928  10.580
73090SOL     OW21166  14.399  12.048   5.069
73090SOL    HW121167  14.447  11.965   5.075
73090SOL    HW221168  14.348  12.040   4.988
73091SOL     OW21169  13.748   7.287   0.470
73091SOL    HW121170  13.762   7.363   0.413
73091SOL    HW221171  13.835   7.263   0.501
73092SOL     OW21172   5.129  11.025   3.923
73092SOL    HW121173   5.155  11.113   3.949
73092SOL    HW221174   5.037  11.034   3.896
73093SOL     OW21175  14.354   3.309   7.889
73093SOL    HW121176  14.411   3.258   7.946
73093SOL    HW221177  14.412   3.376   7.852
73094SOL     OW21178  14.113   9.137  11.254
73094SOL    HW121179  14.187   9.198  11.250
73094SOL    HW221180  14.052   9.177  11.316
73095SOL     OW21181   5.431  11.604   8.890
73095SOL    HW121182   5.360  11.540   8.899
73095SOL    HW221183   5.504  11.567   8.939
73096SOL     OW21184  13.409  14.494  13.253
73096SOL    HW121185  13.320  14.458  13.251
73096SOL    HW221186  13.445  14.474  13.166
73097SOL     OW21187   2.235   8.959   1.817
73097SOL    HW121188   2.208   9.049   1.833
73097SOL    HW221189   2.179   8.907   1.875
73098SOL     OW21190   4.014   0.674   9.254
73098SOL    HW121191   4.085   0.737   9.243
73098SOL    HW221192   3.935   0.722   9.232
73099SOL     OW21193  12.917  10.557   1.997
73099SOL    HW121194  12.825  10.541   1.977
73099SOL    HW221195  12.919  10.648   2.027
73100SOL     OW21196  14.831  14.393  13.598
73100SOL    HW121197  14.799  14.419  13.684
73100SOL    HW221198  14.758  14.409  13.538
73101SOL     OW21199  10.369   1.598   6.168
73101SOL    HW121200  10.389   1.529   6.105
73101SOL    HW221201  10.438   1.663   6.156
73102SOL     OW21202   8.728   8.420  11.758
73102SOL    HW121203   8.696   8.441  11.670
73102SOL    HW221204   8.715   8.501  11.807
73103SOL     OW21205   1.858  10.981   0.746
73103SOL    HW121206   1.801  11.041   0.698
73103SOL    HW221207   1.883  11.028   0.826
73104SOL     OW21208   3.327  11.848   3.916
73104SOL    HW121209   3.322  11.765   3.869
73104SOL    HW221210   3.344  11.913   3.849
73105SOL     OW21211   5.518  12.319  14.292
73105SOL    HW121212   5.423  12.309  14.300
73105SOL    HW221213   5.547  12.238  14.249
73106SOL     OW21214   0.375   4.937   4.230
73106SOL    HW121215   0.369   4.908   4.139
73106SOL    HW221216   0.379   5.033   4.225
73107SOL     OW21217   8.372  11.220   4.528
73107SOL    HW121218   8.376  11.196   4.435
73107SOL    HW221219   8.424  11.300   4.535
73108SOL     OW21220  12.679  13.367   5.619
73108SOL    HW121221  12.598  13.317   5.625
73108SOL    HW221222  12.712  13.371   5.709
73109SOL     OW21223  11.931  11.152   5.209
73109SOL    HW121224  11.995  11.188   5.147
73109SOL    HW221225  11.896  11.229   5.254
73110SOL     OW21226  12.704   7.584  14.273
73110SOL    HW121227  12.734   7.516  14.212
73110SOL    HW221228  12.783   7.609  14.321
73111SOL     OW21229  12.954  10.198  14.186
73111SOL    HW121230  12.892  10.169  14.253
73111SOL    HW221231  12.989  10.281  14.219
73112SOL     OW21232   0.421  12.284   4.955
73112SOL    HW121233   0.354  12.322   4.898
73112SOL    HW221234   0.458  12.359   5.002
73113SOL     OW21235  12.463   7.649   6.283
73113SOL    HW121236  12.401   7.698   6.229
73113SOL    HW221237  12.455   7.559   6.252
73114SOL     OW21238   9.110   7.123   6.690
73114SOL    HW121239   9.043   7.123   6.622
73114SOL    HW221240   9.095   7.043   6.739
73115SOL     OW21241   8.679   0.889   8.042
73115SOL    HW121242   8.713   0.800   8.040
73115SOL    HW221243   8.627   0.893   8.122
73116SOL     OW21244   9.475  14.869  11.143
73116SOL    HW121245   9.559   0.033  11.167
73116SOL    HW221246   9.490  14.775  11.148
73117SOL     OW21247   4.597   1.081   0.658
73117SOL    HW121248   4.639   1.067   0.743
73117SOL    HW221249   4.535   1.153   0.674
73118SOL     OW21250   1.797   9.509   7.554
73118SOL    HW121251   1.788   9.468   7.640
73118SOL    HW221252   1.881   9.554   7.557
73119SOL     OW21253  14.516   1.296   0.546
73119SOL    HW121254  14.540   1.336   0.463
73119SOL    HW221255  14.488   1.369   0.601
73120SOL     OW21256   0.591  11.033   2.602
73120SOL    HW121257   0.649  11.044   2.678
73120SOL    HW221258   0.580  11.122   2.568
73121SOL     OW21259   2.351  13.383   5.472
73121SOL    HW121260   2.355  13.471   5.509
73121SOL    HW221261   2.401  13.389   5.390
73122SOL     OW21262  14.656   7.687   2.532
73122SOL    HW121263  14.640   7.631   2.607
73122SOL    HW221264  14.590   7.661   2.468
73123SOL     OW21265  13.529  12.527   1.985
73123SOL    HW121266  13.455  12.522   2.045
73123SOL    HW221267  13.566  12.615   2.000
73124SOL     OW21268   3.415   4.910  10.952
73124SOL    HW121269   3.386   4.863  11.031
73124SOL    HW221270   3.367   4.868  10.881
73125SOL     OW21271   2.988   4.734   2.494
73125SOL    HW121272   2.979   4.805   2.431
73125SOL    HW221273   3.064   4.757   2.547
73126SOL     OW21274  13.666  14.609  12.578
73126SOL    HW121275  13.746  14.624  12.629
73126SOL    HW221276  13.632  14.526  12.611
73127SOL     OW21277   9.354  12.037   2.242
73127SOL    HW121278   9.418  12.079   2.299
73127SOL    HW221279   9.274  12.089   2.254
73128SOL     OW21280   7.060  11.459  10.997
73128SOL    HW121281   7.014  11.394  11.051
73128SOL    HW221282   7.147  11.422  10.984
73129SOL     OW21283   0.722   5.150   9.591
73129SOL    HW121284   0.713   5.198   9.674
73129SOL    HW221285   0.730   5.058   9.617
73130SOL     OW21286   0.618  13.156  12.862
73130SOL    HW121287   0.539  13.107  12.885
73130SOL    HW221288   0.622  13.227  12.926
73131SOL     OW21289  13.905   2.710   6.964
73131SOL    HW121290  13.977   2.733   6.906
73131SOL    HW221291  13.894   2.787   7.021
73132SOL     OW21292  13.108   7.699   1.371
73132SOL    HW121293  13.088   7.618   1.324
73132SOL    HW221294  13.030   7.753   1.362
73133SOL     OW21295   0.569   0.333   9.264
73133SOL    HW121296   0.486   0.294   9.291
73133SOL    HW221297   0.567   0.330   9.169
73134SOL     OW21298  12.121  14.216  12.610
73134SOL    HW121299  12.198  14.271  12.623
73134SOL    HW221300  12.047  14.274  12.631
73135SOL     OW21301   4.881   4.467   2.506
73135SOL    HW121302   4.870   4.559   2.482
73135SOL    HW221303   4.976   4.456   2.513
73136SOL     OW21304   9.124   3.458   1.789
73136SOL    HW121305   9.100   3.425   1.702
73136SOL    HW221306   9.065   3.531   1.805
73137SOL     OW21307   0.405   8.168   4.104
73137SOL    HW121308   0.440   8.128   4.024
73137SOL    HW221309   0.451   8.124   4.175
73138SOL     OW21310   7.301   8.769   3.102
73138SOL    HW121311   7.210   8.747   3.122
73138SOL    HW221312   7.344   8.685   3.087
73139SOL     OW21313   3.622   7.568  14.123
73139SOL    HW121314   3.569   7.645  14.100
73139SOL    HW221315   3.628   7.571  14.218
73140SOL     OW21316   8.538   1.525  11.779
73140SOL    HW121317   8.536   1.495  11.870
73140SOL    HW221318   8.534   1.621  11.785
73141SOL     OW21319   6.420  13.109  13.161
73141SOL    HW121320   6.497  13.068  13.200
73141SOL    HW221321   6.374  13.149  13.234
73142SOL     OW21322  12.140   3.547   3.909
73142SOL    HW121323  12.108   3.465   3.871
73142SOL    HW221324  12.194   3.519   3.983
73143SOL     OW21325   6.375  12.886  12.296
73143SOL    HW121326   6.364  12.977  12.268
73143SOL    HW221327   6.395  12.838  12.215
73144SOL     OW21328   7.209   0.323  10.906
73144SOL    HW121329   7.280   0.284  10.854
73144SOL    HW221330   7.175   0.250  10.958
73145SOL     OW21331   8.071  13.473  12.442
73145SOL    HW121332   8.026  13.550  12.408
73145SOL    HW221333   8.136  13.452  12.375
73146SOL     OW21334   3.766   0.863   7.440
73146SOL    HW121335   3.699   0.904   7.495
73146SOL    HW221336   3.848   0.905   7.465
73147SOL     OW21337   3.135   3.985   6.588
73147SOL    HW121338   3.112   3.902   6.547
73147SOL    HW221339   3.231   3.988   6.584
73148SOL     OW21340   5.242   2.201   7.031
73148SOL    HW121341   5.315   2.237   7.081
73148SOL    HW221342   5.281   2.131   6.979
73149SOL     OW21343   4.197  14.566  11.214
73149SOL    HW121344   4.217  14.541  11.124
73149SOL    HW221345   4.173  14.659  11.209
73150SOL     OW21346  10.654   6.220   9.200
73150SOL    HW121347  10.686   6.136   9.233
73150SOL    HW221348  10.573   6.236   9.249
73151SOL     OW21349  10.380   4.369   5.893
73151SOL    HW121350  10.371   4.359   5.988
73151SOL    HW221351  10.472   4.394   5.881
73152SOL     OW21352  11.120   5.497  13.802
73152SOL    HW121353  11.031   5.494  13.769
73152SOL    HW221354  11.123   5.575  13.857
73153SOL     OW21355  12.219  12.609   4.898
73153SOL    HW121356  12.212  12.697   4.860
73153SOL    HW221357  12.313  12.590   4.898
73154SOL     OW21358  11.056  11.926  10.706
73154SOL    HW121359  10.977  11.942  10.759
73154SOL    HW221360  11.129  11.939  10.767
73155SOL     OW21361   9.342  14.051   0.519
73155SOL    HW121362   9.365  14.141   0.496
73155SOL    HW221363   9.377  14.039   0.607
73156SOL     OW21364   9.137  11.556   6.493
73156SOL    HW121365   9.124  11.546   6.587
73156SOL    HW221366   9.094  11.479   6.455
73157SOL     OW21367   8.392   9.037   9.578
73157SOL    HW121368   8.375   9.131   9.586
73157SOL    HW221369   8.487   9.031   9.566
73158SOL     OW21370   5.033  10.978   8.669
73158SOL    HW121371   5.025  10.888   8.698
73158SOL    HW221372   4.966  11.025   8.719
73159SOL     OW21373  12.925  10.620  12.652
73159SOL    HW121374  12.953  10.693  12.597
73159SOL    HW221375  13.004  10.567  12.663
73160SOL     OW21376   4.608  13.614  10.566
73160SOL    HW121377   4.566  13.595  10.482
73160SOL    HW221378   4.691  13.655  10.543
73161SOL     OW21379   8.613   0.577   5.402
73161SOL    HW121380   8.557   0.518   5.352
73161SOL    HW221381   8.698   0.533   5.405
73162SOL     OW21382  14.632  10.059   9.913
73162SOL    HW121383  14.642   9.972   9.952
73162SOL    HW221384  14.545  10.088   9.943
73163SOL     OW21385  12.371  11.134   7.237
73163SOL    HW121386  12.448  11.083   7.212
73163SOL    HW221387  12.331  11.161   7.154
73164SOL     OW21388  10.785   2.379   7.371
73164SOL    HW121389  10.835   2.429   7.306
73164SOL    HW221390  10.813   2.416   7.455
73165SOL     OW21391  10.381  11.750   0.100
73165SOL    HW121392  10.324  11.751   0.024
73165SOL    HW221393  10.422  11.663   0.099
73166SOL     OW21394  12.020   0.942  14.725
73166SOL    HW121395  11.981   0.882  14.662
73166SOL    HW221396  12.061   0.886  14.790
73167SOL     OW21397   1.692  11.808   1.055
73167SOL    HW121398   1.712  11.830   0.964
73167SOL    HW221399   1.654  11.720   1.051
73168SOL     OW21400   7.436   8.988   2.103
73168SOL    HW121401   7.388   9.067   2.127
73168SOL    HW221402   7.480   8.961   2.183
73169SOL     OW21403   2.560   1.920  13.550
73169SOL    HW121404   2.599   2.007  13.537
73169SOL    HW221405   2.623   1.860  13.510
73170SOL     OW21406  10.633   5.871   5.952
73170SOL    HW121407  10.658   5.867   6.045
73170SOL    HW221408  10.710   5.905   5.908
73171SOL     OW21409  14.188   7.837  14.482
73171SOL    HW121410  14.164   7.924  14.514
73171SOL    HW221411  14.121   7.779  14.519
73172SOL     OW21412   1.583   8.893   8.207
73172SOL    HW121413   1.623   8.926   8.287
73172SOL    HW221414   1.567   8.971   8.154
73173SOL     OW21415   5.683   5.453   9.072
73173SOL    HW121416   5.627   5.439   9.148
73173SOL    HW221417   5.767   5.414   9.097
73174SOL     OW21418  14.772   5.304   7.079
73174SOL    HW121419  14.858   5.301   7.121
73174SOL    HW221420  14.760   5.216   7.043
73175SOL     OW21421   8.566   1.906   8.021
73175SOL    HW121422   8.546   1.838   8.085
73175SOL    HW221423   8.491   1.905   7.961
73176SOL     OW21424  10.695   5.437   7.334
73176SOL    HW121425  10.601   5.444   7.320
73176SOL    HW221426  10.705   5.368   7.400
73177SOL     OW21427  11.933  11.379   2.006
73177SOL    HW121428  11.917  11.465   1.967
73177SOL    HW221429  11.975  11.397   2.090
73178SOL     OW21430   1.501   4.536   2.392
73178SOL    HW121431   1.433   4.599   2.415
73178SOL    HW221432   1.457   4.451   2.394
73179SOL     OW21433   5.667   7.997   9.748
73179SOL    HW121434   5.716   8.069   9.787
73179SOL    HW221435   5.612   8.039   9.681
73180SOL     OW21436   8.775   0.391   9.521
73180SOL    HW121437   8.825   0.317   9.556
73180SOL    HW221438   8.799   0.395   9.428
73181SOL     OW21439  13.435   0.427  12.059
73181SOL    HW121440  13.513   0.461  12.103
73181SOL    HW221441  13.364   0.438  12.123
73182SOL     OW21442   5.320   6.321   3.026
73182SOL    HW121443   5.317   6.333   3.121
73182SOL    HW221444   5.352   6.405   2.993
73183SOL     OW21445   1.696  12.533   2.674
73183SOL    HW121446   1.649  12.560   2.753
73183SOL    HW221447   1.633  12.547   2.603
73184SOL     OW21448  13.677   4.327   6.612
73184SOL    HW121449  13.727   4.268   6.669
73184SOL    HW221450  13.632   4.268   6.551
73185SOL     OW21451  14.599   6.836  11.814
73185SOL    HW121452  14.661   6.909  11.815
73185SOL    HW221453  14.514   6.876  11.831
73186SOL     OW21454   2.852   4.803   4.909
73186SOL    HW121455   2.832   4.855   4.831
73186SOL    HW221456   2.787   4.831   4.974
73187SOL     OW21457   6.064  14.560   2.716
73187SOL    HW121458   6.157  14.548   2.695
73187SOL    HW221459   6.022  14.482   2.678
73188SOL     OW21460   8.842  13.644  11.349
73188SOL    HW121461   8.759  13.643  11.396
73188SOL    HW221462   8.840  13.565  11.296
73189SOL     OW21463   8.468   1.065   6.945
73189SOL    HW121464   8.431   1.095   7.028
73189SOL    HW221465   8.562   1.082   6.953
73190SOL     OW21466  14.265  14.100   8.532
73190SOL    HW121467  14.284  14.151   8.611
73190SOL    HW221468  14.280  14.160   8.460
73191SOL     OW21469  14.049   6.174   8.091
73191SOL    HW121470  13.969   6.212   8.054
73191SOL    HW221471  14.048   6.083   8.061
73192SOL     OW21472   0.737   3.914   1.946
73192SOL    HW121473   0.747   3.836   2.001
73192SOL    HW221474   0.817   3.918   1.895
73193SOL     OW21475   2.173   7.938  10.461
73193SOL    HW121476   2.166   8.032  10.447
73193SOL    HW221477   2.170   7.900  10.373
73194SOL     OW21478  12.624   6.319   0.180
73194SOL    HW121479  12.607   6.299   0.272
73194SOL    HW221480  12.585   6.246   0.132
73195SOL     OW21481  11.318  10.788   1.686
73195SOL    HW121482  11.238  10.791   1.635
73195SOL    HW221483  11.334  10.694   1.701
73196SOL     OW21484  13.077   6.666   4.478
73196SOL    HW121485  13.145   6.683   4.543
73196SOL    HW221486  12.997   6.656   4.529
73197SOL     OW21487  10.306   0.078  10.911
73197SOL    HW121488  10.306   0.000  10.856
73197SOL    HW221489  10.263   0.145  10.858
73198SOL     OW21490   2.977   6.887  14.211
73198SOL    HW121491   2.916   6.946  14.255
73198SOL    HW221492   2.983   6.811  14.269
73199SOL     OW21493  13.449   2.220  14.634
73199SOL    HW121494  13.410   2.271  14.563
73199SOL    HW221495  13.430   2.271  14.713
73200SOL     OW21496   8.977   9.095   7.933
73200SOL    HW121497   8.948   9.011   7.897
73200SOL    HW221498   8.898   9.131   7.973
73201SOL     OW21499   9.585   1.446   9.587
73201SOL    HW121500   9.663   1.401   9.553
73201SOL    HW221501   9.517   1.379   9.587
73202SOL     OW21502   6.275  14.511   7.885
73202SOL    HW121503   6.368  14.510   7.860
73202SOL    HW221504   6.276  14.495   7.980
73203SOL     OW21505   4.715   2.502   9.948
73203SOL    HW121506   4.769   2.423   9.944
73203SOL    HW221507   4.777   2.573   9.963
73204SOL     OW21508   7.028  11.505  12.726
73204SOL    HW121509   6.967  11.523  12.655
73204SOL    HW221510   7.024  11.583  12.782
73205SOL     OW21511  12.664   5.946   5.811
73205SOL    HW121512  12.734   5.883   5.797
73205SOL    HW221513  12.603   5.931   5.739
73206SOL     OW21514  11.737  11.123   6.455
73206SOL    HW121515  11.645  11.119   6.477
73206SOL    HW221516  11.780  11.064   6.518
73207SOL     OW21517   0.818   8.413   9.929
73207SOL    HW121518   0.897   8.446   9.887
73207SOL    HW221519   0.753   8.413   9.859
73208SOL     OW21520   1.806  14.181   8.376
73208SOL    HW121521   1.736  14.124   8.410
73208SOL    HW221522   1.789  14.186   8.282
73209SOL     OW21523   0.540  11.382   3.862
73209SOL    HW121524   0.575  11.353   3.947
73209SOL    HW221525   0.598  11.453   3.835
73210SOL     OW21526   2.387   6.959   7.248
73210SOL    HW121527   2.345   6.948   7.162
73210SOL    HW221528   2.467   6.906   7.242
73211SOL     OW21529   7.512   8.599   0.133
73211SOL    HW121530   7.572   8.658   0.179
73211SOL    HW221531   7.549   8.590   0.045
73212SOL     OW21532   5.559  14.867  11.675
73212SOL    HW121533   5.504   0.034  11.741
73212SOL    HW221534   5.601   0.065  11.629
73213SOL     OW21535   3.301   8.114  13.240
73213SOL    HW121536   3.304   8.054  13.166
73213SOL    HW221537   3.314   8.201  13.201
73214SOL     OW21538   4.381  10.847   9.256
73214SOL    HW121539   4.431  10.929   9.259
73214SOL    HW221540   4.293  10.874   9.230
73215SOL     OW21541   5.222   0.174   3.954
73215SOL    HW121542   5.157   0.185   3.885
73215SOL    HW221543   5.200   0.092   3.996
73216SOL     OW21544   6.329   8.921   5.280
73216SOL    HW121545   6.276   8.841   5.282
73216SOL    HW221546   6.412   8.896   5.321
73217SOL     OW21547   3.980  11.485  14.479
73217SOL    HW121548   3.961  11.576  14.455
73217SOL    HW221549   4.064  11.490  14.525
73218SOL     OW21550   8.187   3.547   4.342
73218SOL    HW121551   8.244   3.607   4.390
73218SOL    HW221552   8.230   3.536   4.257
73219SOL     OW21553   0.483   0.210   3.107
73219SOL    HW121554   0.507   0.182   3.195
73219SOL    HW221555   0.497   0.304   3.107
73220SOL     OW21556  13.486   4.994   8.241
73220SOL    HW121557  13.459   5.038   8.160
73220SOL    HW221558  13.437   5.037   8.310
73221SOL     OW21559   0.799  13.251   9.480
73221SOL    HW121560   0.862  13.264   9.409
73221SOL    HW221561   0.738  13.185   9.445
73222SOL     OW21562   6.830  13.212  10.377
73222SOL    HW121563   6.821  13.299  10.417
73222SOL    HW221564   6.747  13.168  10.399
73223SOL     OW21565   8.140   3.104   4.019
73223SOL    HW121566   8.085   3.045   3.967
73223SOL    HW221567   8.208   3.134   3.957
73224SOL     OW21568   1.045   1.555  10.344
73224SOL    HW121569   0.952   1.554  10.365
73224SOL    HW221570   1.067   1.465  10.322
73225SOL     OW21571  11.201   9.419  12.151
73225SOL    HW121572  11.284   9.464  12.166
73225SOL    HW221573  11.225   9.342  12.098
73226SOL     OW21574  11.975   2.942  12.100
73226SOL    HW121575  11.955   2.861  12.054
73226SOL    HW221576  11.892   2.989  12.104
73227SOL     OW21577  10.655   2.980   5.512
73227SOL    HW121578  10.725   3.028   5.557
73227SOL    HW221579  10.644   2.901   5.564
73228SOL     OW21580   7.148  10.341   3.791
73228SOL    HW121581   7.192  10.426   3.787
73228SOL    HW221582   7.145  10.312   3.700
73229SOL     OW21583  10.965   9.119  14.348
73229SOL    HW121584  10.875   9.099  14.374
73229SOL    HW221585  10.992   9.189  14.407
73230SOL     OW21586   7.702   4.060   8.308
73230SOL    HW121587   7.758   4.032   8.235
73230SOL    HW221588   7.724   4.152   8.321
73231SOL     OW21589  12.130   7.248   9.304
73231SOL    HW121590  12.216   7.222   9.336
73231SOL    HW221591  12.090   7.295   9.377
73232SOL     OW21592   9.535   9.770   2.203
73232SOL    HW121593   9.496   9.858   2.202
73232SOL    HW221594   9.618   9.780   2.156
73233SOL     OW21595   5.253   1.458   8.718
73233SOL    HW121596   5.297   1.390   8.666
73233SOL    HW221597   5.226   1.413   8.798
73234SOL     OW21598   1.687   9.909  13.252
73234SOL    HW121599   1.591   9.916  13.251
73234SOL    HW221600   1.713   9.938  13.165
73235SOL     OW21601  12.037   0.833   3.752
73235SOL    HW121602  12.127   0.859   3.733
73235SOL    HW221603  11.983   0.900   3.710
73236SOL     OW21604   2.319   9.306   8.836
73236SOL    HW121605   2.376   9.356   8.896
73236SOL    HW221606   2.344   9.335   8.749
73237SOL     OW21607  10.160  11.925   2.030
73237SOL    HW121608  10.226  11.860   2.005
73237SOL    HW221609  10.209  11.997   2.068
73238SOL     OW21610  12.238   3.098  13.093
73238SOL    HW121611  12.184   3.053  13.027
73238SOL    HW221612  12.236   3.039  13.168
73239SOL     OW21613  11.834   8.465  10.332
73239SOL    HW121614  11.888   8.541  10.351
73239SOL    HW221615  11.769   8.463  10.402
73240SOL     OW21616   8.126  13.121   3.242
73240SOL    HW121617   8.112  13.148   3.151
73240SOL    HW221618   8.049  13.069   3.264
73241SOL     OW21619   2.827   7.437  14.522
73241SOL    HW121620   2.785   7.491  14.589
73241SOL    HW221621   2.896   7.492  14.486
73242SOL     OW21622  11.076  11.174   3.408
73242SOL    HW121623  11.092  11.261   3.373
73242SOL    HW221624  10.981  11.166   3.412
73243SOL     OW21625   4.694   6.117   3.935
73243SOL    HW121626   4.736   6.071   4.008
73243SOL    HW221627   4.737   6.202   3.933
73244SOL     OW21628   1.077   7.589  13.006
73244SOL    HW121629   1.045   7.642  12.934
73244SOL    HW221630   1.167   7.566  12.982
73245SOL     OW21631   9.935  13.008   8.364
73245SOL    HW121632   9.903  13.011   8.454
73245SOL    HW221633   9.856  13.022   8.310
73246SOL     OW21634   9.990  10.326  11.253
73246SOL    HW121635  10.065  10.277  11.288
73246SOL    HW221636   9.954  10.269  11.186
73247SOL     OW21637  14.103   5.056   3.017
73247SOL    HW121638  14.060   5.054   3.103
73247SOL    HW221639  14.049   5.116   2.965
73248SOL     OW21640   6.536   0.915   1.501
73248SOL    HW121641   6.595   0.982   1.465
73248SOL    HW221642   6.477   0.894   1.428
73249SOL     OW21643   3.136   2.267   2.707
73249SOL    HW121644   3.071   2.217   2.757
73249SOL    HW221645   3.189   2.200   2.663
73250SOL     OW21646   7.528   2.071   7.633
73250SOL    HW121647   7.560   2.005   7.695
73250SOL    HW221648   7.585   2.146   7.647
73251SOL     OW21649  12.190   3.149   8.361
73251SOL    HW121650  12.245   3.227   8.360
73251SOL    HW221651  12.110   3.175   8.317
73252SOL     OW21652   3.830   4.509   5.137
73252SOL    HW121653   3.822   4.554   5.053
73252SOL    HW221654   3.906   4.550   5.180
73253SOL     OW21655   3.919   1.072   1.669
73253SOL    HW121656   3.997   1.086   1.614
73253SOL    HW221657   3.903   0.978   1.665
73254SOL     OW21658  10.055  12.189  10.004
73254SOL    HW121659   9.974  12.140  10.020
73254SOL    HW221660  10.037  12.276  10.040
73255SOL     OW21661   8.489   9.434  14.560
73255SOL    HW121662   8.417   9.460  14.616
73255SOL    HW221663   8.540   9.515  14.548
73256SOL     OW21664   2.244   4.469   8.779
73256SOL    HW121665   2.287   4.461   8.694
73256SOL    HW221666   2.214   4.560   8.782
73257SOL     OW21667   5.683   5.041   3.472
73257SOL    HW121668   5.675   5.123   3.520
73257SOL    HW221669   5.759   4.998   3.510
73258SOL     OW21670   8.217  12.194   8.124
73258SOL    HW121671   8.162  12.250   8.068
73258SOL    HW221672   8.226  12.113   8.074
73259SOL     OW21673   5.032   8.040  10.516
73259SOL    HW121674   4.937   8.055  10.510
73259SOL    HW221675   5.041   7.951  10.550
73260SOL     OW21676   3.548  11.452  10.638
73260SOL    HW121677   3.632  11.476  10.599
73260SOL    HW221678   3.529  11.365  10.603
73261SOL     OW21679   0.375  12.770  14.285
73261SOL    HW121680   0.319  12.787  14.361
73261SOL    HW221681   0.415  12.685  14.303
73262SOL     OW21682  13.459   4.780   5.407
73262SOL    HW121683  13.412   4.742   5.482
73262SOL    HW221684  13.391   4.827   5.358
73263SOL     OW21685  10.894   6.402   4.669
73263SOL    HW121686  10.886   6.473   4.605
73263SOL    HW221687  10.808   6.359   4.667
73264SOL     OW21688  12.568   6.242   5.802
73264SOL    HW121689  12.559   6.176   5.870
73264SOL    HW221690  12.539   6.324   5.843
73265SOL     OW21691   6.124   4.611   4.142
73265SOL    HW121692   6.030   4.609   4.127
73265SOL    HW221693   6.143   4.527   4.183
73266SOL     OW21694   0.577  11.581  14.164
73266SOL    HW121695   0.534  11.659  14.129
73266SOL    HW221696   0.649  11.615  14.217
73267SOL     OW21697  12.447   2.611   9.562
73267SOL    HW121698  12.489   2.563   9.491
73267SOL    HW221699  12.510   2.609   9.634
73268SOL     OW21700   3.220   3.874  12.195
73268SOL    HW121701   3.230   3.958  12.151
73268SOL    HW221702   3.309   3.846  12.214
73269SOL     OW21703  11.120   3.909   8.469
73269SOL    HW121704  11.087   3.883   8.383
73269SOL    HW221705  11.136   3.826   8.514
73270SOL     OW21706  14.152   4.831   7.754
73270SOL    HW121707  14.154   4.743   7.717
73270SOL    HW221708  14.068   4.837   7.799
73271SOL     OW21709  12.706   5.628   3.587
73271SOL    HW121710  12.637   5.647   3.525
73271SOL    HW221711  12.768   5.574   3.538
73272SOL     OW21712   8.858   1.574   2.867
73272SOL    HW121713   8.805   1.561   2.789
73272SOL    HW221714   8.897   1.661   2.856
73273SOL     OW21715   9.389   5.872  13.664
73273SOL    HW121716   9.369   5.800  13.604
73273SOL    HW221717   9.305   5.899  13.699
73274SOL     OW21718  10.611  14.248   5.416
73274SOL    HW121719  10.670  14.287   5.481
73274SOL    HW221720  10.524  14.275   5.445
73275SOL     OW21721   6.636   5.193   6.573
73275SOL    HW121722   6.701   5.170   6.639
73275SOL    HW221723   6.654   5.285   6.553
73276SOL     OW21724   4.890   6.157   6.468
73276SOL    HW121725   4.814   6.216   6.464
73276SOL    HW221726   4.934   6.169   6.384
73277SOL     OW21727   0.662   1.515   6.031
73277SOL    HW121728   0.647   1.429   6.070
73277SOL    HW221729   0.636   1.505   5.940
73278SOL     OW21730   5.942   7.067   3.234
73278SOL    HW121731   6.025   7.097   3.198
73278SOL    HW221732   5.958   6.976   3.259
73279SOL     OW21733  13.405   5.903   1.463
73279SOL    HW121734  13.495   5.923   1.437
73279SOL    HW221735  13.377   5.834   1.403
73280SOL     OW21736   0.363   1.602  10.136
73280SOL    HW121737   0.298   1.632  10.071
73280SOL    HW221738   0.332   1.516  10.163
73281SOL     OW21739   5.156  12.617  13.550
73281SOL    HW121740   5.166  12.674  13.627
73281SOL    HW221741   5.138  12.531  13.587
73282SOL     OW21742   4.599   5.145   8.299
73282SOL    HW121743   4.669   5.098   8.346
73282SOL    HW221744   4.519   5.123   8.347
73283SOL     OW21745   0.781   1.368   2.878
73283SOL    HW121746   0.863   1.402   2.843
73283SOL    HW221747   0.754   1.301   2.815
73284SOL     OW21748   0.289   5.726  11.366
73284SOL    HW121749   0.311   5.663  11.297
73284SOL    HW221750   0.253   5.801  11.318
73285SOL     OW21751   2.946   2.494   1.897
73285SOL    HW121752   3.021   2.551   1.880
73285SOL    HW221753   2.929   2.505   1.991
73286SOL     OW21754   1.509  13.067  13.937
73286SOL    HW121755   1.528  13.105  14.023
73286SOL    HW221756   1.420  13.033  13.946
73287SOL     OW21757   4.832   0.624   3.197
73287SOL    HW121758   4.838   0.639   3.291
73287SOL    HW221759   4.795   0.705   3.162
73288SOL     OW21760   6.396   2.066   9.567
73288SOL    HW121761   6.418   2.158   9.581
73288SOL    HW221762   6.308   2.068   9.529
73289SOL     OW21763   9.275   8.741   7.368
73289SOL    HW121764   9.276   8.655   7.408
73289SOL    HW221765   9.356   8.746   7.318
73290SOL     OW21766   7.735  10.234   4.162
73290SOL    HW121767   7.762  10.254   4.072
73290SOL    HW221768   7.773  10.304   4.215
73291SOL     OW21769   9.876   4.056   3.844
73291SOL    HW121770   9.895   3.963   3.838
73291SOL    HW221771   9.933   4.088   3.914
73292SOL     OW21772  12.687   4.532   9.035
73292SOL    HW121773  12.608   4.540   8.982
73292SOL    HW221774  12.754   4.504   8.974
73293SOL     OW21775  13.393   5.333  12.710
73293SOL    HW121776  13.442   5.255  12.683
73293SOL    HW221777  13.402   5.335  12.805
73294SOL     OW21778   3.123  10.784   2.450
73294SOL    HW121779   3.061  10.802   2.521
73294SOL    HW221780   3.193  10.847   2.463
73295SOL     OW21781  12.591   1.716   6.436
73295SOL    HW121782  12.511   1.663   6.439
73295SOL    HW221783  12.611   1.735   6.528
73296SOL     OW21784   9.735  13.104  13.672
73296SOL    HW121785   9.694  13.114  13.586
73296SOL    HW221786   9.815  13.158  13.667
73297SOL     OW21787   3.157  14.342   3.659
73297SOL    HW121788   3.068  14.305   3.653
73297SOL    HW221789   3.201  14.310   3.580
73298SOL     OW21790  14.411   4.729   7.678
73298SOL    HW121791  14.356   4.656   7.649
73298SOL    HW221792  14.410   4.790   7.605
73299SOL     OW21793   8.762   1.784  12.574
73299SOL    HW121794   8.795   1.853  12.632
73299SOL    HW221795   8.733   1.715  12.633
73300SOL     OW21796  11.657   5.447   2.783
73300SOL    HW121797  11.684   5.505   2.854
73300SOL    HW221798  11.711   5.473   2.709
73301SOL     OW21799   8.420  10.809   9.714
73301SOL    HW121800   8.381  10.788   9.629
73301SOL    HW221801   8.439  10.903   9.709
73302SOL     OW21802   0.402   0.701   7.001
73302SOL    HW121803   0.411   0.699   7.097
73302SOL    HW221804   0.336   0.767   6.984
73303SOL     OW21805  11.936  13.717   0.221
73303SOL    HW121806  11.866  13.664   0.259
73303SOL    HW221807  11.974  13.661   0.154
73304SOL     OW21808  11.351   4.539   5.245
73304SOL    HW121809  11.267   4.508   5.278
73304SOL    HW221810  11.381   4.468   5.188
73305SOL     OW21811  12.879  14.852  10.851
73305SOL    HW121812  12.856  14.802  10.930
73305SOL    HW221813  12.945   0.039  10.881
73306SOL     OW21814  11.722  11.664   2.652
73306SOL    HW121815  11.755  11.740   2.700
73306SOL    HW221816  11.784  11.653   2.580
73307SOL     OW21817   5.735   4.391  14.444
73307SOL    HW121818   5.801   4.373  14.511
73307SOL    HW221819   5.679   4.459  14.482
73308SOL     OW21820  12.425  11.813   3.002
73308SOL    HW121821  12.398  11.767   3.082
73308SOL    HW221822  12.357  11.880   2.989
73309SOL     OW21823   1.874   4.959   0.013
73309SOL    HW121824   1.947   5.018  14.872
73309SOL    HW221825   1.886   4.932   0.104
73310SOL     OW21826   1.104   1.528  13.009
73310SOL    HW121827   1.026   1.544  12.957
73310SOL    HW221828   1.177   1.535  12.947
73311SOL     OW21829  14.078   6.101   3.825
73311SOL    HW121830  14.016   6.082   3.754
73311SOL    HW221831  14.136   6.025   3.826
73312SOL     OW21832  10.413   2.198   1.194
73312SOL    HW121833  10.354   2.124   1.198
73312SOL    HW221834  10.464   2.185   1.114
73313SOL     OW21835  13.940  12.795   5.899
73313SOL    HW121836  13.979  12.792   5.812
73313SOL    HW221837  13.891  12.712   5.905
73314SOL     OW21838   1.453   3.180  11.388
73314SOL    HW121839   1.373   3.127  11.384
73314SOL    HW221840   1.523   3.119  11.365
73315SOL     OW21841  10.092  10.058   6.868
73315SOL    HW121842  10.156   9.987   6.876
73315SOL    HW221843  10.086  10.094   6.957
73316SOL     OW21844   5.540   5.989   4.758
73316SOL    HW121845   5.533   6.056   4.826
73316SOL    HW221846   5.626   5.950   4.772
73317SOL     OW21847   5.762  13.609   5.292
73317SOL    HW121848   5.731  13.525   5.325
73317SOL    HW221849   5.837  13.587   5.237
73318SOL     OW21850  13.890   8.227  10.085
73318SOL    HW121851  13.920   8.205  10.174
73318SOL    HW221852  13.875   8.321  10.088
73319SOL     OW21853  10.703  12.718   4.248
73319SOL    HW121854  10.732  12.702   4.159
73319SOL    HW221855  10.748  12.799   4.273
73320SOL     OW21856   0.028   0.373   1.165
73320SOL    HW121857   0.042   0.321   1.086
73320SOL    HW221858   0.104   0.355   1.220
73321SOL     OW21859   3.236   9.119  13.217
73321SOL    HW121860   3.198   9.205  13.200
73321SOL    HW221861   3.293   9.102  13.142
73322SOL     OW21862   5.242   4.944   0.905
73322SOL    HW121863   5.300   4.868   0.899
73322SOL    HW221864   5.281   4.998   0.975
73323SOL     OW21865  11.785   6.409  13.094
73323SOL    HW121866  11.792   6.367  13.180
73323SOL    HW221867  11.866   6.460  13.086
73324SOL     OW21868   6.291   8.482   3.207
73324SOL    HW121869   6.205   8.522   3.202
73324SOL    HW221870   6.324   8.504   3.294
73325SOL     OW21871   8.439   1.620   0.420
73325SOL    HW121872   8.534   1.633   0.419
73325SOL    HW221873   8.404   1.702   0.384
73326SOL     OW21874   4.253  10.737   3.033
73326SOL    HW121875   4.186  10.756   3.099
73326SOL    HW221876   4.313  10.677   3.077
73327SOL     OW21877  14.320   6.935   9.408
73327SOL    HW121878  14.304   6.883   9.328
73327SOL    HW221879  14.398   6.895   9.447
73328SOL     OW21880  11.913   0.477   5.139
73328SOL    HW121881  11.953   0.475   5.053
73328SOL    HW221882  11.839   0.537   5.130
73329SOL     OW21883  10.549   4.740   1.926
73329SOL    HW121884  10.604   4.711   1.854
73329SOL    HW221885  10.576   4.831   1.941
73330SOL     OW21886   0.605   1.009   0.560
73330SOL    HW121887   0.616   0.917   0.537
73330SOL    HW221888   0.584   1.052   0.477
73331SOL     OW21889   2.377  12.982  12.854
73331SOL    HW121890   2.445  12.916  12.840
73331SOL    HW221891   2.300  12.947  12.808
73332SOL     OW21892   1.843   8.841   4.829
73332SOL    HW121893   1.892   8.809   4.905
73332SOL    HW221894   1.792   8.765   4.801
73333SOL     OW21895   1.132  10.629   7.696
73333SOL    HW121896   1.208  10.681   7.721
73333SOL    HW221897   1.060  10.666   7.748
73334SOL     OW21898   0.715   3.363  12.966
73334SOL    HW121899   0.719   3.300  13.038
73334SOL    HW221900   0.725   3.448  13.008
73335SOL     OW21901   6.160  10.183   6.527
73335SOL    HW121902   6.229  10.245   6.507
73335SOL    HW221903   6.143  10.137   6.445
73336SOL     OW21904   3.294  13.467   7.470
73336SOL    HW121905   3.267  13.397   7.530
73336SOL    HW221906   3.227  13.534   7.479
73337SOL     OW21907   9.435   5.313  10.013
73337SOL    HW121908   9.488   5.236  10.035
73337SOL    HW221909   9.448   5.373  10.086
73338SOL     OW21910   8.015  13.351  14.111
73338SOL    HW121911   7.926  13.333  14.142
73338SOL    HW221912   8.030  13.443  14.134
73339SOL     OW21913   9.323   3.807   9.745
73339SOL    HW121914   9.340   3.878   9.683
73339SOL    HW221915   9.349   3.842   9.830
73340SOL     OW21916   3.498   7.446   2.784
73340SOL    HW121917   3.507   7.352   2.766
73340SOL    HW221918   3.588   7.478   2.789
73341SOL     OW21919   5.622  13.579   4.465
73341SOL    HW121920   5.597  13.494   4.499
73341SOL    HW221921   5.708  13.564   4.426
73342SOL     OW21922  14.263   2.718  14.186
73342SOL    HW121923  14.219   2.733  14.270
73342SOL    HW221924  14.313   2.798  14.171
73343SOL     OW21925  10.234  10.053   2.111
73343SOL    HW121926  10.304  10.031   2.173
73343SOL    HW221927  10.194  10.132   2.147
73344SOL     OW21928   0.218  11.669   8.171
73344SOL    HW121929   0.303  11.713   8.174
73344SOL    HW221930   0.166  11.721   8.110
73345SOL     OW21931   2.777   7.652  14.014
73345SOL    HW121932   2.837   7.593  14.058
73345SOL    HW221933   2.740   7.706  14.084
73346SOL     OW21934   2.955  12.330   3.264
73346SOL    HW121935   2.895  12.388   3.311
73346SOL    HW221936   3.032  12.324   3.320
73347SOL     OW21937  12.091   1.100  13.034
73347SOL    HW121938  12.138   1.054  13.102
73347SOL    HW221939  12.124   1.063  12.952
73348SOL     OW21940   9.854   5.484   1.286
73348SOL    HW121941   9.807   5.442   1.359
73348SOL    HW221942   9.802   5.462   1.209
73349SOL     OW21943  11.058   4.024   4.826
73349SOL    HW121944  10.981   4.012   4.880
73349SOL    HW221945  11.113   3.948   4.844
73350SOL     OW21946  11.231  10.549   4.938
73350SOL    HW121947  11.290  10.589   5.001
73350SOL    HW221948  11.190  10.622   4.893
73351SOL     OW21949   4.196   9.461  14.244
73351SOL    HW121950   4.179   9.372  14.274
73351SOL    HW221951   4.243   9.502  14.317
73352SOL     OW21952   8.795   9.033   8.637
73352SOL    HW121953   8.735   8.985   8.581
73352SOL    HW221954   8.749   9.043   8.720
73353SOL     OW21955  13.708   6.543   6.410
73353SOL    HW121956  13.705   6.605   6.483
73353SOL    HW221957  13.693   6.457   6.450
73354SOL     OW21958   8.326  13.341  11.274
73354SOL    HW121959   8.419  13.362  11.280
73354SOL    HW221960   8.323  13.259  11.224
73355SOL     OW21961   3.532   6.494   7.112
73355SOL    HW121962   3.586   6.476   7.035
73355SOL    HW221963   3.448   6.452   7.093
73356SOL     OW21964   5.428  13.571  14.258
73356SOL    HW121965   5.507  13.520  14.242
73356SOL    HW221966   5.460  13.657  14.285
73357SOL     OW21967  11.684   2.507   8.848
73357SOL    HW121968  11.747   2.483   8.780
73357SOL    HW221969  11.636   2.427   8.866
73358SOL     OW21970   3.266  11.384   2.922
73358SOL    HW121971   3.243  11.294   2.902
73358SOL    HW221972   3.196  11.414   2.980
73359SOL     OW21973   9.701   9.476   8.326
73359SOL    HW121974   9.686   9.516   8.412
73359SOL    HW221975   9.751   9.397   8.345
73360SOL     OW21976  11.930   9.465   1.564
73360SOL    HW121977  11.997   9.527   1.592
73360SOL    HW221978  11.948   9.449   1.472
73361SOL     OW21979  13.948  14.216   6.799
73361SOL    HW121980  13.884  14.243   6.865
73361SOL    HW221981  13.916  14.258   6.718
73362SOL     OW21982  14.763  10.464  11.132
73362SOL    HW121983  14.856  10.487  11.129
73362SOL    HW221984  14.759  10.388  11.191
73363SOL     OW21985   6.330   6.688  13.857
73363SOL    HW121986   6.381   6.666  13.935
73363SOL    HW221987   6.325   6.605  13.808
73364SOL     OW21988   9.893  14.227   7.589
73364SOL    HW121989   9.899  14.209   7.495
73364SOL    HW221990   9.919  14.319   7.598
73365SOL     OW21991   8.997   8.372   6.766
73365SOL    HW121992   8.973   8.280   6.779
73365SOL    HW221993   9.081   8.381   6.812
73366SOL     OW21994  14.246   7.989   7.098
73366SOL    HW121995  14.319   7.930   7.080
73366SOL    HW221996  14.249   8.002   7.193
73367SOL     OW21997   7.897   6.919   6.222
73367SOL    HW121998   7.941   6.990   6.177
73367SOL    HW221999   7.889   6.849   6.157
73368SOL     OW22000  11.308   5.276   7.195
73368SOL    HW122001  11.384   5.333   7.184
73368SOL    HW222002  11.243   5.311   7.135
73369SOL     OW22003  10.716   6.625   8.482
73369SOL    HW122004  10.671   6.541   8.475
73369SOL    HW222005  10.801   6.611   8.441
73370SOL     OW22006   7.350  11.622  12.950
73370SOL    HW122007   7.299  11.648  13.027
73370SOL    HW222008   7.431  11.673  12.957
73371SOL     OW22009  13.911  14.578   9.227
73371SOL    HW122010  13.855  14.656   9.229
73371SOL    HW222011  13.852  14.506   9.205
73372SOL     OW22012   1.279  12.098   3.266
73372SOL    HW122013   1.260  12.104   3.360
73372SOL    HW222014   1.289  12.189   3.238
73373SOL     OW22015  11.326   0.755  12.411
73373SOL    HW122016  11.404   0.719  12.453
73373SOL    HW222017  11.293   0.820  12.472
73374SOL     OW22018   7.937   2.852   9.379
73374SOL    HW122019   8.030   2.833   9.371
73374SOL    HW222020   7.934   2.945   9.404
73375SOL     OW22021   9.243   3.562   5.323
73375SOL    HW122022   9.179   3.570   5.252
73375SOL    HW222023   9.324   3.534   5.279
73376SOL     OW22024   7.747  14.871   6.169
73376SOL    HW122025   7.693  14.836   6.098
73376SOL    HW222026   7.821  14.810   6.174
73377SOL     OW22027   6.301   3.531   6.832
73377SOL    HW122028   6.341   3.467   6.773
73377SOL    HW222029   6.330   3.504   6.919
73378SOL     OW22030  10.716  14.416   7.621
73378SOL    HW122031  10.714  14.503   7.581
73378SOL    HW222032  10.786  14.370   7.575
73379SOL     OW22033   7.720   6.724  13.029
73379SOL    HW122034   7.725   6.643  12.978
73379SOL    HW222035   7.629   6.728  13.057
73380SOL     OW22036  12.103  12.871   0.260
73380SOL    HW122037  12.117  12.964   0.243
73380SOL    HW222038  12.017  12.867   0.302
73381SOL     OW22039   6.720  13.078   0.439
73381SOL    HW122040   6.685  13.040   0.519
73381SOL    HW222041   6.682  13.165   0.435
73382SOL     OW22042  13.657  12.184  11.381
73382SOL    HW122043  13.629  12.275  11.385
73382SOL    HW222044  13.575  12.135  11.369
73383SOL     OW22045   1.679   6.479   0.228
73383SOL    HW122046   1.702   6.504   0.317
73383SOL    HW222047   1.657   6.562   0.184
73384SOL     OW22048   2.354   5.394  10.750
73384SOL    HW122049   2.286   5.458  10.770
73384SOL    HW222050   2.311   5.332  10.690
73385SOL     OW22051  12.217   5.722   2.258
73385SOL    HW122052  12.151   5.791   2.250
73385SOL    HW222053  12.167   5.641   2.260
73386SOL     OW22054   0.353   8.222  11.101
73386SOL    HW122055   0.258   8.208  11.096
73386SOL    HW222056   0.363   8.317  11.100
73387SOL     OW22057   5.727   2.540   4.081
73387SOL    HW122058   5.780   2.619   4.074
73387SOL    HW222059   5.751   2.502   4.165
73388SOL     OW22060   0.739   3.181  13.219
73388SOL    HW122061   0.741   3.087  13.200
73388SOL    HW222062   0.678   3.188  13.293
73389SOL     OW22063  14.232  12.206   4.786
73389SOL    HW122064  14.152  12.242   4.747
73389SOL    HW222065  14.260  12.273   4.849
73390SOL     OW22066  10.153   4.806   2.890
73390SOL    HW122067  10.239   4.766   2.902
73390SOL    HW222068  10.166   4.897   2.914
73391SOL     OW22069   9.500   9.035   1.216
73391SOL    HW122070   9.427   8.979   1.242
73391SOL    HW222071   9.535   8.994   1.137
73392SOL     OW22072   8.959   6.280   6.892
73392SOL    HW122073   8.968   6.199   6.843
73392SOL    HW222074   8.974   6.255   6.983
73393SOL     OW22075   8.740   5.222   0.540
73393SOL    HW122076   8.809   5.255   0.597
73393SOL    HW222077   8.758   5.128   0.531
73394SOL     OW22078   4.795  14.743   0.439
73394SOL    HW122079   4.797  14.763   0.533
73394SOL    HW222080   4.815  14.827   0.396
73395SOL     OW22081  13.899   3.274  12.811
73395SOL    HW122082  13.966   3.295  12.877
73395SOL    HW222083  13.908   3.180  12.798
73396SOL     OW22084  11.733   9.890   0.471
73396SOL    HW122085  11.750   9.983   0.485
73396SOL    HW222086  11.655   9.872   0.524
73397SOL     OW22087   8.490  11.526   7.193
73397SOL    HW122088   8.455  11.443   7.161
73397SOL    HW222089   8.430  11.592   7.159
73398SOL     OW22090   3.384  11.660   0.160
73398SOL    HW122091   3.464  11.658   0.107
73398SOL    HW222092   3.414  11.643   0.250
73399SOL     OW22093   7.567   4.805  12.606
73399SOL    HW122094   7.487   4.836  12.649
73399SOL    HW222095   7.553   4.823  12.513
73400SOL     OW22096  13.282   1.557   6.294
73400SOL    HW122097  13.306   1.537   6.204
73400SOL    HW222098  13.366   1.561   6.341
73401SOL     OW22099   2.668   7.357  11.407
73401SOL    HW122100   2.662   7.450  11.428
73401SOL    HW222101   2.761   7.337  11.414
73402SOL     OW22102   8.153  10.923   8.114
73402SOL    HW122103   8.104  10.962   8.187
73402SOL    HW222104   8.086  10.891   8.055
73403SOL     OW22105  10.334   5.361   4.855
73403SOL    HW122106  10.274   5.290   4.831
73403SOL    HW222107  10.304   5.390   4.941
73404SOL     OW22108  10.670   5.540   0.161
73404SOL    HW122109  10.711   5.542   0.075
73404SOL    HW222110  10.592   5.595   0.151
73405SOL     OW22111   7.610   0.960  10.800
73405SOL    HW122112   7.623   1.046  10.840
73405SOL    HW222113   7.682   0.906  10.833
73406SOL     OW22114  11.011   5.301   7.094
73406SOL    HW122115  10.919   5.305   7.070
73406SOL    HW222116  11.046   5.388   7.072
73407SOL     OW22117   1.906   7.604  10.645
73407SOL    HW122118   1.992   7.608  10.604
73407SOL    HW222119   1.846   7.635  10.578
73408SOL     OW22120   1.017  14.864   0.652
73408SOL    HW122121   1.039  14.778   0.689
73408SOL    HW222122   1.002   0.044   0.729
73409SOL     OW22123   4.188  12.046  11.100
73409SOL    HW122124   4.093  12.056  11.109
73409SOL    HW222125   4.222  12.135  11.102
73410SOL     OW22126   0.415   3.968   5.089
73410SOL    HW122127   0.438   3.941   5.178
73410SOL    HW222128   0.463   3.909   5.032
73411SOL     OW22129   0.883  10.289   0.531
73411SOL    HW122130   0.840  10.375   0.531
73411SOL    HW222131   0.930  10.286   0.447
73412SOL     OW22132  12.182   2.806  12.518
73412SOL    HW122133  12.141   2.760  12.591
73412SOL    HW222134  12.127   2.884  12.505
73413SOL     OW22135  13.958   6.411   7.461
73413SOL    HW122136  13.986   6.361   7.538
73413SOL    HW222137  13.979   6.355   7.387
73414SOL     OW22138   6.208   0.166   1.132
73414SOL    HW122139   6.224   0.075   1.108
73414SOL    HW222140   6.158   0.202   1.059
73415SOL     OW22141  12.866   5.710   4.609
73415SOL    HW122142  12.858   5.616   4.593
73415SOL    HW222143  12.776   5.741   4.622
73416SOL     OW22144   3.881   3.958   2.963
73416SOL    HW122145   3.927   3.922   2.887
73416SOL    HW222146   3.824   3.888   2.993
73417SOL     OW22147   8.262  14.729   5.259
73417SOL    HW122148   8.318  14.720   5.182
73417SOL    HW222149   8.322  14.727   5.333
73418SOL     OW22150   5.924   9.357  12.326
73418SOL    HW122151   5.892   9.428  12.382
73418SOL    HW222152   5.877   9.369  12.243
73419SOL     OW22153   3.909   6.111   3.414
73419SOL    HW122154   3.885   6.027   3.375
73419SOL    HW222155   3.848   6.121   3.487
73420SOL     OW22156  14.669   7.874  14.703
73420SOL    HW122157  14.707   7.838  14.623
73420SOL    HW222158  14.689   7.967  14.699
73421SOL     OW22159  11.314   3.517  10.165
73421SOL    HW122160  11.359   3.580  10.108
73421SOL    HW222161  11.343   3.540  10.253
73422SOL     OW22162   1.228   7.760  14.406
73422SOL    HW122163   1.257   7.809  14.329
73422SOL    HW222164   1.217   7.827  14.474
73423SOL     OW22165  11.256  13.571   9.312
73423SOL    HW122166  11.325  13.587   9.248
73423SOL    HW222167  11.287  13.612   9.392
73424SOL     OW22168   8.797   7.935   1.438
73424SOL    HW122169   8.733   7.871   1.409
73424SOL    HW222170   8.789   7.936   1.533
73425SOL     OW22171   7.958  13.265   2.068
73425SOL    HW122172   8.007  13.325   2.123
73425SOL    HW222173   7.963  13.181   2.113
73426SOL     OW22174   2.535   7.818  14.397
73426SOL    HW122175   2.614   7.829  14.344
73426SOL    HW222176   2.543   7.730  14.433
73427SOL     OW22177   4.330   3.073   6.403
73427SOL    HW122178   4.286   3.154   6.379
73427SOL    HW222179   4.411   3.101   6.446
73428SOL     OW22180   5.023   6.484   9.602
73428SOL    HW122181   5.071   6.565   9.583
73428SOL    HW222182   4.961   6.476   9.529
73429SOL     OW22183   9.114   2.377  12.200
73429SOL    HW122184   9.076   2.290  12.198
73429SOL    HW222185   9.116   2.405  12.108
73430SOL     OW22186  13.744   6.241  13.377
73430SOL    HW122187  13.739   6.335  13.358
73430SOL    HW222188  13.659   6.219  13.413
73431SOL     OW22189  14.626  13.080  11.642
73431SOL    HW122190  14.546  13.131  11.654
73431SOL    HW222191  14.663  13.113  11.560
73432SOL     OW22192   6.950  10.298  12.990
73432SOL    HW122193   6.945  10.389  13.017
73432SOL    HW222194   7.014  10.258  13.049
73433SOL     OW22195  14.439   3.388   3.674
73433SOL    HW122196  14.462   3.359   3.585
73433SOL    HW222197  14.392   3.470   3.661
73434SOL     OW22198  13.638   1.673   3.637
73434SOL    HW122199  13.724   1.647   3.606
73434SOL    HW222200  13.593   1.591   3.657
73435SOL     OW22201   4.701   1.985  13.617
73435SOL    HW122202   4.730   1.916  13.557
73435SOL    HW222203   4.618   2.016  13.581
73436SOL     OW22204   3.443   7.343   3.631
73436SOL    HW122205   3.430   7.338   3.726
73436SOL    HW222206   3.487   7.426   3.618
73437SOL     OW22207   6.331   4.472   5.403
73437SOL    HW122208   6.400   4.537   5.390
73437SOL    HW222209   6.278   4.476   5.324
73438SOL     OW22210   6.210  12.116  12.380
73438SOL    HW122211   6.199  12.165  12.299
73438SOL    HW222212   6.121  12.092  12.405
73439SOL     OW22213  10.527   4.966   2.535
73439SOL    HW122214  10.607   4.959   2.483
73439SOL    HW222215  10.543   4.911   2.612
73440SOL     OW22216   0.554   9.763   6.445
73440SOL    HW122217   0.499   9.737   6.371
73440SOL    HW222218   0.633   9.798   6.405
73441SOL     OW22219   0.163   5.930   0.754
73441SOL    HW122220   0.170   5.851   0.702
73441SOL    HW222221   0.193   5.904   0.841
73442SOL     OW22222  10.111   7.895   9.549
73442SOL    HW122223  10.101   7.872   9.641
73442SOL    HW222224  10.067   7.980   9.541
73443SOL     OW22225   6.274   0.757   4.777
73443SOL    HW122226   6.259   0.848   4.750
73443SOL    HW222227   6.349   0.729   4.723
73444SOL     OW22228   0.954  12.776   8.155
73444SOL    HW122229   0.980  12.858   8.113
73444SOL    HW222230   1.029  12.750   8.208
73445SOL     OW22231  13.393  12.238   6.925
73445SOL    HW122232  13.461  12.173   6.912
73445SOL    HW222233  13.436  12.309   6.973
73446SOL     OW22234   1.974   1.154   7.310
73446SOL    HW122235   2.047   1.189   7.259
73446SOL    HW222236   1.962   1.218   7.381
73447SOL     OW22237   7.228   3.751   2.489
73447SOL    HW122238   7.283   3.698   2.432
73447SOL    HW222239   7.141   3.748   2.448
73448SOL     OW22240  10.088   0.492   6.910
73448SOL    HW122241  10.103   0.409   6.955
73448SOL    HW222242   9.993   0.497   6.900
73449SOL     OW22243   3.573   8.537   1.882
73449SOL    HW122244   3.640   8.469   1.889
73449SOL    HW222245   3.494   8.497   1.918
73450SOL     OW22246   1.500   3.887  14.495
73450SOL    HW122247   1.461   3.872  14.581
73450SOL    HW222248   1.490   3.804  14.449
73451SOL     OW22249   0.102  11.146  10.774
73451SOL    HW122250   0.191  11.127  10.743
73451SOL    HW222251   0.104  11.123  10.867
73452SOL     OW22252   2.252   3.710   3.179
73452SOL    HW122253   2.195   3.762   3.121
73452SOL    HW222254   2.305   3.658   3.120
73453SOL     OW22255   2.742   1.463   2.966
73453SOL    HW122256   2.822   1.511   2.946
73453SOL    HW222257   2.724   1.412   2.887
73454SOL     OW22258   3.639   2.029   2.170
73454SOL    HW122259   3.679   1.943   2.181
73454SOL    HW222260   3.564   2.013   2.112
73455SOL     OW22261   3.010   7.438   9.352
73455SOL    HW122262   2.927   7.480   9.377
73455SOL    HW222263   3.032   7.478   9.268
73456SOL     OW22264  11.488   2.121   7.514
73456SOL    HW122265  11.466   2.155   7.427
73456SOL    HW222266  11.516   2.030   7.498
73457SOL     OW22267   5.599   5.043   6.435
73457SOL    HW122268   5.619   5.120   6.487
73457SOL    HW222269   5.537   4.994   6.488
73458SOL     OW22270   5.002   6.561   5.196
73458SOL    HW122271   4.921   6.546   5.245
73458SOL    HW222272   5.008   6.486   5.137
73459SOL     OW22273   2.861  11.182  13.561
73459SOL    HW122274   2.894  11.109  13.510
73459SOL    HW222275   2.793  11.222  13.506
73460SOL     OW22276   6.867   9.108   2.339
73460SOL    HW122277   6.954   9.116   2.378
73460SOL    HW222278   6.873   9.031   2.282
73461SOL     OW22279   7.776  14.675  12.379
73461SOL    HW122280   7.819  14.641  12.300
73461SOL    HW222281   7.823  14.755  12.400
73462SOL     OW22282   0.714   2.180   2.577
73462SOL    HW122283   0.702   2.273   2.595
73462SOL    HW222284   0.674   2.136   2.653
73463SOL     OW22285   6.201   2.942  11.933
73463SOL    HW122286   6.116   2.983  11.915
73463SOL    HW222287   6.179   2.860  11.977
73464SOL     OW22288   7.262   8.813   1.052
73464SOL    HW122289   7.266   8.741   1.115
73464SOL    HW222290   7.255   8.892   1.105
73465SOL     OW22291  13.745   1.240   7.280
73465SOL    HW122292  13.755   1.329   7.246
73465SOL    HW222293  13.822   1.194   7.249
73466SOL     OW22294   6.806   3.217   1.940
73466SOL    HW122295   6.813   3.226   1.845
73466SOL    HW222296   6.877   3.157   1.964
73467SOL     OW22297   9.975  12.836  14.165
73467SOL    HW122298  10.007  12.861  14.078
73467SOL    HW222299   9.924  12.757  14.150
73468SOL     OW22300   2.014  14.201   8.144
73468SOL    HW122301   1.943  14.141   8.120
73468SOL    HW222302   1.971  14.285   8.156
73469SOL     OW22303   1.455   7.067   7.079
73469SOL    HW122304   1.508   7.022   7.144
73469SOL    HW222305   1.365   7.058   7.111
73470SOL     OW22306  12.478   0.709  13.560
73470SOL    HW122307  12.476   0.782  13.497
73470SOL    HW222308  12.419   0.737  13.630
73471SOL     OW22309   3.196   4.033   3.363
73471SOL    HW122310   3.104   4.059   3.352
73471SOL    HW222311   3.206   3.954   3.311
73472SOL     OW22312   3.402   3.808   4.027
73472SOL    HW122313   3.312   3.821   3.998
73472SOL    HW222314   3.428   3.892   4.063
73473SOL     OW22315   7.313   8.508  11.444
73473SOL    HW122316   7.288   8.519  11.352
73473SOL    HW222317   7.243   8.550  11.494
73474SOL     OW22318   2.370  13.702  14.038
73474SOL    HW122319   2.425  13.654  14.100
73474SOL    HW222320   2.282  13.696  14.075
73475SOL     OW22321   3.520  14.769   9.273
73475SOL    HW122322   3.604  14.807   9.299
73475SOL    HW222323   3.543  14.697   9.215
73476SOL     OW22324   1.090  11.210   9.860
73476SOL    HW122325   1.028  11.152   9.905
73476SOL    HW222326   1.166  11.213   9.919
73477SOL     OW22327   6.312   3.079   8.826
73477SOL    HW122328   6.359   3.017   8.770
73477SOL    HW222329   6.269   3.139   8.765
73478SOL     OW22330  14.806   9.746   9.697
73478SOL    HW122331  14.804   9.838   9.670
73478SOL    HW222332  14.785   9.747   9.790
73479SOL     OW22333   4.428   8.550  11.660
73479SOL    HW122334   4.516   8.585  11.649
73479SOL    HW222335   4.383   8.570  11.578
73480SOL     OW22336  12.393   0.292  12.125
73480SOL    HW122337  12.308   0.258  12.097
73480SOL    HW222338  12.413   0.361  12.061
73481SOL     OW22339  13.375  11.017   6.298
73481SOL    HW122340  13.333  11.068   6.229
73481SOL    HW222341  13.401  10.935   6.254
73482SOL     OW22342   6.777  10.310  11.641
73482SOL    HW122343   6.795  10.397  11.605
73482SOL    HW222344   6.682  10.301  11.632
73483SOL     OW22345  12.850   4.121   8.864
73483SOL    HW122346  12.785   4.105   8.932
73483SOL    HW222347  12.818   4.198   8.817
73484SOL     OW22348   1.514   8.879   9.365
73484SOL    HW122349   1.482   8.914   9.281
73484SOL    HW222350   1.604   8.853   9.347
73485SOL     OW22351  13.864  10.507  12.562
73485SOL    HW122352  13.852  10.565  12.637
73485SOL    HW222353  13.870  10.420  12.601
73486SOL     OW22354   9.954   4.669   1.059
73486SOL    HW122355   9.902   4.729   1.005
73486SOL    HW222356   9.978   4.721   1.135
73487SOL     OW22357   1.938   2.987   2.973
73487SOL    HW122358   1.861   2.933   2.951
73487SOL    HW222359   2.008   2.952   2.918
73488SOL     OW22360  11.604   9.380  13.977
73488SOL    HW122361  11.547   9.312  14.015
73488SOL    HW222362  11.557   9.409  13.899
73489SOL     OW22363  14.158   2.598   8.442
73489SOL    HW122364  14.139   2.518   8.393
73489SOL    HW222365  14.251   2.591   8.464
73490SOL     OW22366  14.470   0.478   9.681
73490SOL    HW122367  14.392   0.516   9.639
73490SOL    HW222368  14.544   0.524   9.641
73491SOL     OW22369  14.359   6.767   2.737
73491SOL    HW122370  14.452   6.749   2.749
73491SOL    HW222371  14.323   6.687   2.699
73492SOL     OW22372   2.566  12.131   6.288
73492SOL    HW122373   2.630  12.067   6.317
73492SOL    HW222374   2.485  12.105   6.332
73493SOL     OW22375  13.353   8.395   2.670
73493SOL    HW122376  13.287   8.326   2.667
73493SOL    HW222377  13.328   8.456   2.601
73494SOL     OW22378   5.107  12.474   1.006
73494SOL    HW122379   5.190  12.451   1.049
73494SOL    HW222380   5.131  12.489   0.915
73495SOL     OW22381  14.362   3.729  12.307
73495SOL    HW122382  14.371   3.652  12.364
73495SOL    HW222383  14.298   3.703  12.241
73496SOL     OW22384  11.447  14.772  14.677
73496SOL    HW122385  11.415  14.845  14.625
73496SOL    HW222386  11.367  14.726  14.705
73497SOL     OW22387   1.019   4.774   7.040
73497SOL    HW122388   0.976   4.785   6.955
73497SOL    HW222389   1.026   4.679   7.050
73498SOL     OW22390  10.312   9.113  13.185
73498SOL    HW122391  10.307   9.075  13.272
73498SOL    HW222392  10.240   9.072  13.137
73499SOL     OW22393   2.476   9.850   9.086
73499SOL    HW122394   2.465   9.939   9.052
73499SOL    HW222395   2.482   9.795   9.008
73500SOL     OW22396   4.628   3.457   4.023
73500SOL    HW122397   4.605   3.494   3.938
73500SOL    HW222398   4.639   3.364   4.007
73501SOL     OW22399   6.794   6.147   9.449
73501SOL    HW122400   6.822   6.151   9.358
73501SOL    HW222401   6.721   6.084   9.448
73502SOL     OW22402  14.660   0.871   4.616
73502SOL    HW122403  14.658   0.820   4.696
73502SOL    HW222404  14.657   0.962   4.645
73503SOL     OW22405  11.079   4.624  14.000
73503SOL    HW122406  11.173   4.639  14.009
73503SOL    HW222407  11.055   4.671  13.920
73504SOL     OW22408   9.252   3.796   8.702
73504SOL    HW122409   9.230   3.888   8.715
73504SOL    HW222410   9.177   3.748   8.738
73505SOL     OW22411   7.459   8.245   7.426
73505SOL    HW122412   7.550   8.243   7.396
73505SOL    HW222413   7.443   8.158   7.461
73506SOL     OW22414   6.343   0.358   1.271
73506SOL    HW122415   6.409   0.305   1.314
73506SOL    HW222416   6.293   0.296   1.217
73507SOL     OW22417   9.719   9.251   8.050
73507SOL    HW122418   9.643   9.301   8.079
73507SOL    HW222419   9.721   9.175   8.108
73508SOL     OW22420   4.304  12.311   4.849
73508SOL    HW122421   4.356  12.236   4.819
73508SOL    HW222422   4.264  12.281   4.931
73509SOL     OW22423   1.317   1.746   9.754
73509SOL    HW122424   1.370   1.720   9.829
73509SOL    HW222425   1.239   1.785   9.792
73510SOL     OW22426  10.079   9.575   6.187
73510SOL    HW122427  10.150   9.528   6.230
73510SOL    HW222428  10.024   9.506   6.149
73511SOL     OW22429  10.072   8.413   9.866
73511SOL    HW122430  10.157   8.374   9.885
73511SOL    HW222431  10.058   8.397   9.773
73512SOL     OW22432  10.024   4.043  13.539
73512SOL    HW122433   9.959   4.078  13.600
73512SOL    HW222434  10.025   3.949  13.555
73513SOL     OW22435  11.094  12.441   9.613
73513SOL    HW122436  11.049  12.474   9.690
73513SOL    HW222437  11.036  12.465   9.540
73514SOL     OW22438  13.140   5.803  11.201
73514SOL    HW122439  13.162   5.828  11.111
73514SOL    HW222440  13.136   5.885  11.249
73515SOL     OW22441   9.816   3.175   6.527
73515SOL    HW122442   9.906   3.142   6.531
73515SOL    HW222443   9.786   3.152   6.439
73516SOL     OW22444  12.358   5.317  12.702
73516SOL    HW122445  12.396   5.393  12.745
73516SOL    HW222446  12.283   5.352  12.653
73517SOL     OW22447  11.608   5.588  12.770
73517SOL    HW122448  11.549   5.513  12.766
73517SOL    HW222449  11.669   5.566  12.840
73518SOL     OW22450   7.531   6.468   2.266
73518SOL    HW122451   7.530   6.471   2.362
73518SOL    HW222452   7.533   6.375   2.244
73519SOL     OW22453  10.007  11.290  11.184
73519SOL    HW122454  10.083  11.337  11.218
73519SOL    HW222455   9.955  11.267  11.262
73520SOL     OW22456  12.694   1.639  11.394
73520SOL    HW122457  12.778   1.611  11.431
73520SOL    HW222458  12.632   1.571  11.422
73521SOL     OW22459   0.244  10.431  11.363
73521SOL    HW122460   0.212  10.397  11.447
73521SOL    HW222461   0.326  10.385  11.348
73522SOL     OW22462   9.189   1.217  10.943
73522SOL    HW122463   9.239   1.155  10.996
73522SOL    HW222464   9.155   1.281  11.006
73523SOL     OW22465   0.930   1.697  12.438
73523SOL    HW122466   0.934   1.609  12.400
73523SOL    HW222467   0.994   1.694  12.510
73524SOL     OW22468  10.669   2.797   9.646
73524SOL    HW122469  10.695   2.705   9.640
73524SOL    HW222470  10.573   2.795   9.640
73525SOL     OW22471   3.213   3.104   0.393
73525SOL    HW122472   3.201   3.088   0.486
73525SOL    HW222473   3.261   3.187   0.389
73526SOL     OW22474  12.884  10.548  11.104
73526SOL    HW122475  12.908  10.466  11.062
73526SOL    HW222476  12.790  10.556  11.089
73527SOL     OW22477   6.698   2.932   2.499
73527SOL    HW122478   6.698   2.889   2.584
73527SOL    HW222479   6.675   3.023   2.519
73528SOL     OW22480   2.351   6.926   5.995
73528SOL    HW122481   2.318   6.937   5.906
73528SOL    HW222482   2.295   6.982   6.048
73529SOL     OW22483  12.822   5.869   8.764
73529SOL    HW122484  12.772   5.825   8.695
73529SOL    HW222485  12.858   5.797   8.817
73530SOL     OW22486   4.609   9.728  13.948
73530SOL    HW122487   4.589   9.724  14.042
73530SOL    HW222488   4.699   9.696  13.942
73531SOL     OW22489   1.808  13.601   7.031
73531SOL    HW122490   1.773  13.536   6.970
73531SOL    HW222491   1.903  13.586   7.029
73532SOL     OW22492   2.127   1.750   1.719
73532SOL    HW122493   2.105   1.794   1.637
73532SOL    HW222494   2.195   1.687   1.695
73533SOL     OW22495  13.315   1.662  13.786
73533SOL    HW122496  13.295   1.735  13.728
73533SOL    HW222497  13.250   1.595  13.764
73534SOL     OW22498  11.628   0.930  13.319
73534SOL    HW122499  11.701   0.896  13.268
73534SOL    HW222500  11.652   1.020  13.338
73535SOL     OW22501   2.682   1.808  10.186
73535SOL    HW122502   2.644   1.895  10.174
73535SOL    HW222503   2.714   1.809  10.277
73536SOL     OW22504   6.794   5.485  14.818
73536SOL    HW122505   6.721   5.432  14.850
73536SOL    HW222506   6.807   5.456  14.728
73537SOL     OW22507   8.994   9.038   4.173
73537SOL    HW122508   8.963   9.050   4.263
73537SOL    HW222509   8.916   9.012   4.124
73538SOL     OW22510   5.044   3.805  11.192
73538SOL    HW122511   5.139   3.789  11.189
73538SOL    HW222512   5.005   3.721  11.168
73539SOL     OW22513   8.665   9.691  14.151
73539SOL    HW122514   8.726   9.746  14.200
73539SOL    HW222515   8.657   9.734  14.066
73540SOL     OW22516   7.056   2.809   5.413
73540SOL    HW122517   7.079   2.719   5.389
73540SOL    HW222518   7.110   2.828   5.489
73541SOL     OW22519   2.192   1.139   5.080
73541SOL    HW122520   2.115   1.088   5.104
73541SOL    HW222521   2.159   1.228   5.067
73542SOL     OW22522  11.952  10.912   4.035
73542SOL    HW122523  12.042  10.943   4.033
73542SOL    HW222524  11.906  10.974   4.093
73543SOL     OW22525   3.559  12.710   0.476
73543SOL    HW122526   3.653  12.702   0.462
73543SOL    HW222527   3.519  12.669   0.400
73544SOL     OW22528   3.962  11.597   1.425
73544SOL    HW122529   3.888  11.652   1.450
73544SOL    HW222530   3.970  11.533   1.496
73545SOL     OW22531  14.077   8.119   1.929
73545SOL    HW122532  14.016   8.130   1.856
73545SOL    HW222533  14.116   8.205   1.942
73546SOL     OW22534  12.161  11.207   2.277
73546SOL    HW122535  12.170  11.287   2.225
73546SOL    HW222536  12.249  11.171   2.281
73547SOL     OW22537   7.691   6.345   3.936
73547SOL    HW122538   7.615   6.396   3.906
73547SOL    HW222539   7.724   6.394   4.011
73548SOL     OW22540   0.507  14.727   5.581
73548SOL    HW122541   0.449  14.754   5.652
73548SOL    HW222542   0.519  14.633   5.593
73549SOL     OW22543   7.985   1.494  11.960
73549SOL    HW122544   7.932   1.572  11.950
73549SOL    HW222545   8.059   1.507  11.901
73550SOL     OW22546   6.591   0.179  10.315
73550SOL    HW122547   6.547   0.192  10.398
73550SOL    HW222548   6.656   0.111  10.332
73551SOL     OW22549  11.331   7.664   5.362
73551SOL    HW122550  11.420   7.627   5.363
73551SOL    HW222551  11.280   7.601   5.311
73552SOL     OW22552  12.229   3.851   0.479
73552SOL    HW122553  12.188   3.925   0.524
73552SOL    HW222554  12.268   3.889   0.401
73553SOL     OW22555   9.287   9.838   2.498
73553SOL    HW122556   9.374   9.804   2.476
73553SOL    HW222557   9.298   9.879   2.583
73554SOL     OW22558  10.432  13.584   5.232
73554SOL    HW122559  10.400  13.524   5.299
73554SOL    HW222560  10.525  13.565   5.226
73555SOL     OW22561   9.580  14.136  11.320
73555SOL    HW122562   9.499  14.164  11.364
73555SOL    HW222563   9.613  14.064  11.373
73556SOL     OW22564  10.357  11.518  13.006
73556SOL    HW122565  10.357  11.485  12.916
73556SOL    HW222566  10.266  11.509  13.034
73557SOL     OW22567  10.233  12.584  10.988
73557SOL    HW122568  10.298  12.532  11.036
73557SOL    HW222569  10.280  12.617  10.912
73558SOL     OW22570  13.424   0.894  13.171
73558SOL    HW122571  13.423   0.946  13.091
73558SOL    HW222572  13.352   0.930  13.223
73559SOL     OW22573  11.654   1.012  11.661
73559SOL    HW122574  11.747   1.013  11.638
73559SOL    HW222575  11.624   0.925  11.637
73560SOL     OW22576  12.428   1.377   1.250
73560SOL    HW122577  12.384   1.458   1.224
73560SOL    HW222578  12.454   1.336   1.167
73561SOL     OW22579   2.293   3.068   2.221
73561SOL    HW122580   2.327   3.156   2.236
73561SOL    HW222581   2.203   3.081   2.192
73562SOL     OW22582  14.575   8.042   4.201
73562SOL    HW122583  14.621   8.000   4.273
73562SOL    HW222584  14.502   8.088   4.243
73563SOL     OW22585   2.738   7.212   4.175
73563SOL    HW122586   2.662   7.269   4.182
73563SOL    HW222587   2.776   7.213   4.263
73564SOL     OW22588  10.118   4.068   3.315
73564SOL    HW122589  10.107   4.110   3.230
73564SOL    HW222590  10.037   4.088   3.362
73565SOL     OW22591  10.284   3.831   9.090
73565SOL    HW122592  10.263   3.747   9.131
73565SOL    HW222593  10.377   3.845   9.110
73566SOL     OW22594  11.571   1.943   9.322
73566SOL    HW122595  11.533   2.030   9.321
73566SOL    HW222596  11.501   1.885   9.292
73567SOL     OW22597   3.037   0.530   4.371
73567SOL    HW122598   2.983   0.581   4.311
73567SOL    HW222599   3.108   0.495   4.317
73568SOL     OW22600  12.789   3.072   8.081
73568SOL    HW122601  12.884   3.068   8.092
73568SOL    HW222602  12.759   2.983   8.099
73569SOL     OW22603   4.582  14.317   5.141
73569SOL    HW122604   4.503  14.337   5.191
73569SOL    HW222605   4.630  14.399   5.138
73570SOL     OW22606   2.025   0.928  11.798
73570SOL    HW122607   2.065   0.866  11.737
73570SOL    HW222608   1.999   1.002  11.744
73571SOL     OW22609   2.251   7.866  12.439
73571SOL    HW122610   2.218   7.922  12.509
73571SOL    HW222611   2.262   7.925  12.364
73572SOL     OW22612  10.387   0.625  10.369
73572SOL    HW122613  10.294   0.637  10.389
73572SOL    HW222614  10.391   0.634  10.273
73573SOL     OW22615  11.090   8.771   8.391
73573SOL    HW122616  11.048   8.731   8.467
73573SOL    HW222617  11.082   8.705   8.322
73574SOL     OW22618   7.189   2.823  11.186
73574SOL    HW122619   7.192   2.731  11.214
73574SOL    HW222620   7.120   2.826  11.120
73575SOL     OW22621   3.494   0.934   6.896
73575SOL    HW122622   3.541   0.865   6.849
73575SOL    HW222623   3.550   0.955   6.971
73576SOL     OW22624   4.715  11.213   2.183
73576SOL    HW122625   4.690  11.176   2.099
73576SOL    HW222626   4.634  11.210   2.235
73577SOL     OW22627   3.135   8.925   4.677
73577SOL    HW122628   3.177   8.840   4.684
73577SOL    HW222629   3.167   8.974   4.753
73578SOL     OW22630   2.396   3.207  10.046
73578SOL    HW122631   2.360   3.295  10.063
73578SOL    HW222632   2.443   3.216   9.964
73579SOL     OW22633   9.454  12.074   9.016
73579SOL    HW122634   9.482  12.020   9.090
73579SOL    HW222635   9.358  12.072   9.020
73580SOL     OW22636   7.300  12.334  10.343
73580SOL    HW122637   7.390  12.348  10.373
73580SOL    HW222638   7.284  12.405  10.281
73581SOL     OW22639  10.991   8.146  12.783
73581SOL    HW122640  10.991   8.089  12.860
73581SOL    HW222641  10.971   8.087  12.710
73582SOL     OW22642   2.788   4.500   1.212
73582SOL    HW122643   2.772   4.421   1.265
73582SOL    HW222644   2.710   4.553   1.226
73583SOL     OW22645  11.715  13.553   0.043
73583SOL    HW122646  11.645  13.595   0.093
73583SOL    HW222647  11.669  13.490  14.863
73584SOL     OW22648   0.264   5.825   0.996
73584SOL    HW122649   0.265   5.739   1.039
73584SOL    HW222650   0.301   5.884   1.060
73585SOL     OW22651   8.622   4.397   3.865
73585SOL    HW122652   8.541   4.350   3.883
73585SOL    HW222653   8.595   4.487   3.851
73586SOL     OW22654   1.685   0.240   8.295
73586SOL    HW122655   1.712   0.279   8.212
73586SOL    HW222656   1.725   0.153   8.294
73587SOL     OW22657   3.727   6.508   3.593
73587SOL    HW122658   3.796   6.568   3.618
73587SOL    HW222659   3.751   6.477   3.506
73588SOL     OW22660   9.522   2.625  12.425
73588SOL    HW122661   9.509   2.535  12.454
73588SOL    HW222662   9.522   2.677  12.505
73589SOL     OW22663   3.160   5.732  10.810
73589SOL    HW122664   3.206   5.765  10.887
73589SOL    HW222665   3.101   5.804  10.785
73590SOL     OW22666  12.867  14.050   7.639
73590SOL    HW122667  12.792  14.029   7.584
73590SOL    HW222668  12.833  14.112   7.703
73591SOL     OW22669   3.022   2.920   2.473
73591SOL    HW122670   3.021   2.828   2.501
73591SOL    HW222671   2.965   2.922   2.396
73592SOL     OW22672   7.291  12.132   9.603
73592SOL    HW122673   7.244  12.099   9.680
73592SOL    HW222674   7.249  12.216   9.584
73593SOL     OW22675   9.704   7.910  10.339
73593SOL    HW122676   9.799   7.916  10.351
73593SOL    HW222677   9.691   7.825  10.295
73594SOL     OW22678  13.085   7.127   2.374
73594SOL    HW122679  12.992   7.138   2.351
73594SOL    HW222680  13.128   7.204   2.339
73595SOL     OW22681   6.155   8.081   3.421
73595SOL    HW122682   6.161   8.160   3.475
73595SOL    HW222683   6.101   8.107   3.346
73596SOL     OW22684  13.190   8.613   5.430
73596SOL    HW122685  13.272   8.640   5.390
73596SOL    HW222686  13.215   8.547   5.495
73597SOL     OW22687   3.071   2.576  10.048
73597SOL    HW122688   3.142   2.570  10.112
73597SOL    HW222689   3.072   2.668  10.020
73598SOL     OW22690   2.166   3.234  14.656
73598SOL    HW122691   2.174   3.142  14.682
73598SOL    HW222692   2.255   3.258  14.630
73599SOL     OW22693  10.631   9.130   3.649
73599SOL    HW122694  10.680   9.119   3.568
73599SOL    HW222695  10.596   9.219   3.645
73600SOL     OW22696   4.576   9.672  11.630
73600SOL    HW122697   4.551   9.633  11.714
73600SOL    HW222698   4.618   9.755  11.654
73601SOL     OW22699  14.795   3.962  14.836
73601SOL    HW122700   0.011   3.935  14.827
73601SOL    HW222701  14.769   3.985  14.747
73602SOL     OW22702   7.986  10.186   6.326
73602SOL    HW122703   7.958  10.274   6.351
73602SOL    HW222704   8.012  10.145   6.409
73603SOL     OW22705   8.012   0.878   4.478
73603SOL    HW122706   8.057   0.920   4.552
73603SOL    HW222707   8.079   0.871   4.410
73604SOL     OW22708   9.783   3.806   7.972
73604SOL    HW122709   9.875   3.828   7.958
73604SOL    HW222710   9.762   3.843   8.058
73605SOL     OW22711   1.139   4.505   2.423
73605SOL    HW122712   1.102   4.481   2.338
73605SOL    HW222713   1.185   4.426   2.452
73606SOL     OW22714   2.977   3.348  10.463
73606SOL    HW122715   2.977   3.329  10.369
73606SOL    HW222716   2.939   3.270  10.503
73607SOL     OW22717   6.304   5.091   4.255
73607SOL    HW122718   6.384   5.110   4.304
73607SOL    HW222719   6.322   5.008   4.210
73608SOL     OW22720   1.200   8.261  12.628
73608SOL    HW122721   1.202   8.356  12.622
73608SOL    HW222722   1.111   8.236  12.602
73609SOL     OW22723   5.361   5.690   7.393
73609SOL    HW122724   5.273   5.680   7.431
73609SOL    HW222725   5.384   5.603   7.361
73610SOL     OW22726  12.428  13.818   7.527
73610SOL    HW122727  12.337  13.789   7.539
73610SOL    HW222728  12.480  13.754   7.574
73611SOL     OW22729  10.974  14.718   8.320
73611SOL    HW122730  10.951  14.780   8.389
73611SOL    HW222731  10.898  14.660   8.314
73612SOL     OW22732   7.843   3.507  11.134
73612SOL    HW122733   7.869   3.557  11.212
73612SOL    HW222734   7.844   3.572  11.063
73613SOL     OW22735   8.349  10.677   0.672
73613SOL    HW122736   8.295  10.610   0.715
73613SOL    HW222737   8.383  10.634   0.594
73614SOL     OW22738   1.658   6.636   3.313
73614SOL    HW122739   1.702   6.551   3.315
73614SOL    HW222740   1.571   6.618   3.348
73615SOL     OW22741   9.769  10.963   3.673
73615SOL    HW122742   9.707  11.008   3.730
73615SOL    HW222743   9.777  11.019   3.596
73616SOL     OW22744  12.612   1.250  12.837
73616SOL    HW122745  12.518   1.251  12.855
73616SOL    HW222746  12.627   1.167  12.792
73617SOL     OW22747   1.037   0.901  10.968
73617SOL    HW122748   1.085   0.950  10.902
73617SOL    HW222749   1.014   0.819  10.926
73618SOL     OW22750   4.091  13.531   4.627
73618SOL    HW122751   4.099  13.478   4.548
73618SOL    HW222752   3.999  13.557   4.629
73619SOL     OW22753   4.016   4.799  11.115
73619SOL    HW122754   3.933   4.805  11.161
73619SOL    HW222755   4.004   4.728  11.051
73620SOL     OW22756   5.404   5.388   6.392
73620SOL    HW122757   5.458   5.349   6.460
73620SOL    HW222758   5.442   5.475   6.379
73621SOL     OW22759   7.713  11.359   6.971
73621SOL    HW122760   7.651  11.374   7.042
73621SOL    HW222761   7.660  11.319   6.902
73622SOL     OW22762   6.027  14.478   0.562
73622SOL    HW122763   5.990  14.396   0.527
73622SOL    HW222764   5.987  14.547   0.509
73623SOL     OW22765   8.777   3.700   7.594
73623SOL    HW122766   8.813   3.788   7.582
73623SOL    HW222767   8.753   3.696   7.686
73624SOL     OW22768   1.826  12.018   5.937
73624SOL    HW122769   1.850  11.939   5.984
73624SOL    HW222770   1.874  12.088   5.981
73625SOL     OW22771   8.703   0.628   2.462
73625SOL    HW122772   8.722   0.569   2.534
73625SOL    HW222773   8.611   0.650   2.471
73626SOL     OW22774   8.917  11.353   0.516
73626SOL    HW122775   8.860  11.308   0.454
73626SOL    HW222776   8.946  11.432   0.470
73627SOL     OW22777   5.724   0.824   9.468
73627SOL    HW122778   5.643   0.876   9.464
73627SOL    HW222779   5.708   0.761   9.538
73628SOL     OW22780   1.378  11.846  10.985
73628SOL    HW122781   1.375  11.923  10.930
73628SOL    HW222782   1.288  11.837  11.019
73629SOL     OW22783  13.073  12.366   4.585
73629SOL    HW122784  13.003  12.334   4.527
73629SOL    HW222785  13.086  12.457   4.559
73630SOL     OW22786  12.031  11.575   0.975
73630SOL    HW122787  12.122  11.595   0.954
73630SOL    HW222788  12.035  11.545   1.066
73631SOL     OW22789   3.402   9.569   5.337
73631SOL    HW122790   3.464   9.517   5.388
73631SOL    HW222791   3.354   9.619   5.403
73632SOL     OW22792   9.329   6.146  13.409
73632SOL    HW122793   9.235   6.130  13.408
73632SOL    HW222794   9.351   6.163  13.318
73633SOL     OW22795   4.931   4.960   3.706
73633SOL    HW122796   4.918   4.992   3.617
73633SOL    HW222797   4.908   5.034   3.762
73634SOL     OW22798   3.429   9.068   3.497
73634SOL    HW122799   3.516   9.106   3.513
73634SOL    HW222800   3.370   9.143   3.497
73635SOL     OW22801  14.767   6.066   4.734
73635SOL    HW122802  14.718   6.130   4.786
73635SOL    HW222803  14.854   6.104   4.726
73636SOL     OW22804  12.939  14.082   7.352
73636SOL    HW122805  12.988  14.019   7.299
73636SOL    HW222806  12.944  14.047   7.441
73637SOL     OW22807   4.335  11.068   5.166
73637SOL    HW122808   4.328  11.148   5.217
73637SOL    HW222809   4.383  11.007   5.223
73638SOL     OW22810  14.191   8.110   9.059
73638SOL    HW122811  14.124   8.080   9.120
73638SOL    HW222812  14.248   8.034   9.046
73639SOL     OW22813   5.774   1.223   3.902
73639SOL    HW122814   5.725   1.165   3.843
73639SOL    HW222815   5.861   1.183   3.908
73640SOL     OW22816   7.425   9.852  10.531
73640SOL    HW122817   7.399   9.937  10.496
73640SOL    HW222818   7.358   9.791  10.499
73641SOL     OW22819   3.022   3.548   5.201
73641SOL    HW122820   3.038   3.535   5.294
73641SOL    HW222821   2.944   3.604   5.198
73642SOL     OW22822   3.847  13.689   0.143
73642SOL    HW122823   3.813  13.602   0.166
73642SOL    HW222824   3.925  13.700   0.198
73643SOL     OW22825   5.623   6.141  13.221
73643SOL    HW122826   5.613   6.236  13.218
73643SOL    HW222827   5.566   6.109  13.151
73644SOL     OW22828   7.823  12.050   6.360
73644SOL    HW122829   7.875  12.046   6.279
73644SOL    HW222830   7.775  12.133   6.353
73645SOL     OW22831   8.517  13.912   4.339
73645SOL    HW122832   8.440  13.906   4.395
73645SOL    HW222833   8.580  13.963   4.389
73646SOL     OW22834   6.167   6.952  11.614
73646SOL    HW122835   6.099   6.957  11.681
73646SOL    HW222836   6.128   6.900  11.544
73647SOL     OW22837  14.290   5.991  13.070
73647SOL    HW122838  14.375   6.029  13.091
73647SOL    HW222839  14.299   5.962  12.979
73648SOL     OW22840   7.026  11.014  10.055
73648SOL    HW122841   6.979  10.931  10.048
73648SOL    HW222842   7.113  10.995  10.020
73649SOL     OW22843   7.150   3.146   2.746
73649SOL    HW122844   7.174   3.195   2.825
73649SOL    HW222845   7.147   3.213   2.677
73650SOL     OW22846   6.138   1.796   5.325
73650SOL    HW122847   6.177   1.713   5.353
73650SOL    HW222848   6.069   1.813   5.389
73651SOL     OW22849   2.744   0.962   8.551
73651SOL    HW122850   2.696   0.961   8.468
73651SOL    HW222851   2.693   1.020   8.608
73652SOL     OW22852  12.435  12.821   8.656
73652SOL    HW122853  12.481  12.868   8.726
73652SOL    HW222854  12.462  12.730   8.666
73653SOL     OW22855   5.534   1.286   7.561
73653SOL    HW122856   5.565   1.375   7.576
73653SOL    HW222857   5.612   1.236   7.538
73654SOL     OW22858   6.300  14.378  12.200
73654SOL    HW122859   6.367  14.440  12.229
73654SOL    HW222860   6.218  14.423  12.216
73655SOL     OW22861  13.373   8.913   1.156
73655SOL    HW122862  13.420   8.925   1.238
73655SOL    HW222863  13.440   8.880   1.095
73656SOL     OW22864  13.617  13.978   3.671
73656SOL    HW122865  13.670  14.055   3.690
73656SOL    HW222866  13.679  13.906   3.666
73657SOL     OW22867  13.046  13.269  14.167
73657SOL    HW122868  12.959  13.233  14.180
73657SOL    HW222869  13.102  13.192  14.151
73658SOL     OW22870  12.174   2.650   0.702
73658SOL    HW122871  12.113   2.690   0.640
73658SOL    HW222872  12.224   2.724   0.737
73659SOL     OW22873  13.968   1.402   4.224
73659SOL    HW122874  13.884   1.381   4.183
73659SOL    HW222875  14.033   1.383   4.156
73660SOL     OW22876  11.111   3.676  14.873
73660SOL    HW122877  11.063   3.695  14.793
73660SOL    HW222878  11.052   3.618   0.047
73661SOL     OW22879  12.579   0.643  12.748
73661SOL    HW122880  12.497   0.657  12.700
73661SOL    HW222881  12.645   0.632  12.680
73662SOL     OW22882   0.672   2.021   0.362
73662SOL    HW122883   0.731   2.036   0.437
73662SOL    HW222884   0.632   2.106   0.346
73663SOL     OW22885   2.136   0.489   1.433
73663SOL    HW122886   2.157   0.509   1.342
73663SOL    HW222887   2.089   0.566   1.464
73664SOL     OW22888   2.092  14.219  13.234
73664SOL    HW122889   2.043  14.231  13.316
73664SOL    HW222890   2.025  14.219  13.166
73665SOL     OW22891   7.517   6.413  13.288
73665SOL    HW122892   7.495   6.501  13.257
73665SOL    HW222893   7.608   6.400  13.261
73666SOL     OW22894   6.798   3.423  10.519
73666SOL    HW122895   6.867   3.489  10.518
73666SOL    HW222896   6.764   3.425  10.609
73667SOL     OW22897   6.001   6.294  11.136
73667SOL    HW122898   5.968   6.318  11.049
73667SOL    HW222899   5.993   6.198  11.138
73668SOL     OW22900   9.653   1.545  13.140
73668SOL    HW122901   9.673   1.454  13.119
73668SOL    HW222902   9.628   1.543  13.232
73669SOL     OW22903   2.386   2.047  14.764
73669SOL    HW122904   2.427   2.132  14.753
73669SOL    HW222905   2.325   2.059  14.837
73670SOL     OW22906   9.426  10.524  13.360
73670SOL    HW122907   9.409  10.525  13.266
73670SOL    HW222908   9.514  10.489  13.369
73671SOL     OW22909   9.608  12.609   3.729
73671SOL    HW122910   9.516  12.609   3.702
73671SOL    HW222911   9.609  12.558   3.810
73672SOL     OW22912   4.274   1.859  12.079
73672SOL    HW122913   4.265   1.764  12.068
73672SOL    HW222914   4.216   1.896  12.013
73673SOL     OW22915   6.690  12.304   0.182
73673SOL    HW122916   6.687  12.225   0.236
73673SOL    HW222917   6.784  12.324   0.177
73674SOL     OW22918   6.308   6.262  14.740
73674SOL    HW122919   6.317   6.307  14.656
73674SOL    HW222920   6.258   6.323  14.795
73675SOL     OW22921  14.099  14.249   3.727
73675SOL    HW122922  14.074  14.243   3.635
73675SOL    HW222923  14.111  14.343   3.742
73676SOL     OW22924  10.945   2.785  12.765
73676SOL    HW122925  10.934   2.849  12.694
73676SOL    HW222926  10.903   2.826  12.840
73677SOL     OW22927  13.340  12.048  11.631
73677SOL    HW122928  13.254  12.054  11.589
73677SOL    HW222929  13.362  12.138  11.655
73678SOL     OW22930   0.575   8.946   9.868
73678SOL    HW122931   0.520   8.959   9.946
73678SOL    HW222932   0.542   9.009   9.804
73679SOL     OW22933   3.910  12.231   8.257
73679SOL    HW122934   3.852  12.164   8.220
73679SOL    HW222935   3.985  12.233   8.198
73680SOL     OW22936   8.684   6.095  12.512
73680SOL    HW122937   8.721   6.162  12.569
73680SOL    HW222938   8.735   6.101  12.431
73681SOL     OW22939   0.998   1.728   4.810
73681SOL    HW122940   1.047   1.765   4.736
73681SOL    HW222941   1.015   1.788   4.883
73682SOL     OW22942  10.808   8.087   5.529
73682SOL    HW122943  10.758   8.006   5.533
73682SOL    HW222944  10.754   8.151   5.576
73683SOL     OW22945   7.055   1.568   5.810
73683SOL    HW122946   7.092   1.506   5.872
73683SOL    HW222947   7.067   1.654   5.851
73684SOL     OW22948   4.012   2.968   7.442
73684SOL    HW122949   3.991   3.019   7.520
73684SOL    HW222950   4.064   2.894   7.474
73685SOL     OW22951   8.616   7.748   6.661
73685SOL    HW122952   8.634   7.736   6.567
73685SOL    HW222953   8.660   7.830   6.683
73686SOL     OW22954  12.562  14.221   7.047
73686SOL    HW122955  12.644  14.197   7.089
73686SOL    HW222956  12.562  14.174   6.964
73687SOL     OW22957   1.865  13.214  13.936
73687SOL    HW122958   1.923  13.163  13.880
73687SOL    HW222959   1.786  13.227  13.884
73688SOL     OW22960   3.700   1.383  14.617
73688SOL    HW122961   3.611   1.417  14.613
73688SOL    HW222962   3.696   1.297  14.576
73689SOL     OW22963  13.457   0.709   4.749
73689SOL    HW122964  13.542   0.754   4.749
73689SOL    HW222965  13.394   0.777   4.728
73690SOL     OW22966   1.286   9.235   6.428
73690SOL    HW122967   1.348   9.195   6.490
73690SOL    HW222968   1.272   9.167   6.362
73691SOL     OW22969   6.697  13.265   5.290
73691SOL    HW122970   6.789  13.269   5.264
73691SOL    HW222971   6.689  13.183   5.339
73692SOL     OW22972   8.860   0.424   5.422
73692SOL    HW122973   8.947   0.386   5.429
73692SOL    HW222974   8.835   0.409   5.330
73693SOL     OW22975   8.464   0.314   0.157
73693SOL    HW122976   8.492   0.367   0.082
73693SOL    HW222977   8.523   0.338   0.228
73694SOL     OW22978   3.021  14.210   6.588
73694SOL    HW122979   3.058  14.159   6.660
73694SOL    HW222980   3.007  14.146   6.518
73695SOL     OW22981  14.734   4.517  11.662
73695SOL    HW122982  14.815   4.473  11.691
73695SOL    HW222983  14.703   4.563  11.739
73696SOL     OW22984   1.075   8.224   1.264
73696SOL    HW122985   1.122   8.288   1.317
73696SOL    HW222986   1.123   8.142   1.277
73697SOL     OW22987   1.298   9.894  14.469
73697SOL    HW122988   1.223   9.864  14.520
73697SOL    HW222989   1.373   9.850  14.508
73698SOL     OW22990   1.935   8.370  12.294
73698SOL    HW122991   1.927   8.283  12.333
73698SOL    HW222992   1.984   8.356  12.213
73699SOL     OW22993   1.883   0.515   6.551
73699SOL    HW122994   1.820   0.499   6.481
73699SOL    HW222995   1.829   0.535   6.628
73700SOL     OW22996   1.898   4.525   3.093
73700SOL    HW122997   1.929   4.435   3.077
73700SOL    HW222998   1.960   4.580   3.045
73701SOL     OW22999   6.950   7.184   3.985
73701SOL    HW123000   6.883   7.236   4.029
73701SOL    HW223001   6.925   7.093   3.999
73702SOL     OW23002  10.443   5.789   1.441
73702SOL    HW123003  10.503   5.863   1.451
73702SOL    HW223004  10.369   5.824   1.392
73703SOL     OW23005   9.070   9.528  14.032
73703SOL    HW123006   9.099   9.617  14.056
73703SOL    HW223007   9.069   9.528  13.937
73704SOL     OW23008   0.151  10.822   5.226
73704SOL    HW123009   0.134  10.893   5.288
73704SOL    HW223010   0.210  10.763   5.272
73705SOL     OW23011  13.288  14.492  14.432
73705SOL    HW123012  13.280  14.553  14.505
73705SOL    HW223013  13.372  14.515  14.391
73706SOL     OW23014   5.872  11.026  10.741
73706SOL    HW123015   5.834  10.953  10.692
73706SOL    HW223016   5.964  11.002  10.752
73707SOL     OW23017   9.126   0.694   7.150
73707SOL    HW123018   9.125   0.710   7.056
73707SOL    HW223019   9.201   0.743   7.183
73708SOL     OW23020   6.810  11.214  11.715
73708SOL    HW123021   6.851  11.256  11.791
73708SOL    HW223022   6.731  11.173  11.749
73709SOL     OW23023  13.524   7.471   2.113
73709SOL    HW123024  13.610   7.498   2.081
73709SOL    HW223025  13.543   7.418   2.191
73710SOL     OW23026   9.985  11.552   9.736
73710SOL    HW123027  10.064  11.592   9.701
73710SOL    HW223028   9.998  11.458   9.722
73711SOL     OW23029  12.737  11.601   1.422
73711SOL    HW123030  12.766  11.531   1.481
73711SOL    HW223031  12.684  11.558   1.356
73712SOL     OW23032   7.717   7.131   4.205
73712SOL    HW123033   7.669   7.214   4.203
73712SOL    HW223034   7.768   7.131   4.125
73713SOL     OW23035  13.028  12.092   2.042
73713SOL    HW123036  13.067  12.148   2.108
73713SOL    HW223037  13.066  12.123   1.959
73714SOL     OW23038   6.665  10.018   4.836
73714SOL    HW123039   6.651  10.108   4.865
73714SOL    HW223040   6.739   9.987   4.887
73715SOL     OW23041   6.827  10.525   2.990
73715SOL    HW123042   6.870  10.441   3.006
73715SOL    HW223043   6.793  10.518   2.901
73716SOL     OW23044  10.651  12.902  11.935
73716SOL    HW123045  10.620  12.869  12.020
73716SOL    HW223046  10.625  12.994  11.935
73717SOL     OW23047  11.656   6.572  12.489
73717SOL    HW123048  11.727   6.626  12.525
73717SOL    HW223049  11.596   6.560  12.562
73718SOL     OW23050   7.559  14.318  10.809
73718SOL    HW123051   7.531  14.376  10.738
73718SOL    HW223052   7.626  14.262  10.769
73719SOL     OW23053  14.645  10.476   1.949
73719SOL    HW123054  14.693  10.401   1.985
73719SOL    HW223055  14.660  10.471   1.855
73720SOL     OW23056   7.293   9.243   3.248
73720SOL    HW123057   7.379   9.221   3.284
73720SOL    HW223058   7.258   9.160   3.215
73721SOL     OW23059   4.492   6.182   7.129
73721SOL    HW123060   4.519   6.212   7.042
73721SOL    HW223061   4.420   6.241   7.154
73722SOL     OW23062   1.583   9.357  14.594
73722SOL    HW123063   1.580   9.441  14.639
73722SOL    HW223064   1.505   9.311  14.624
73723SOL     OW23065   5.699  12.544  14.701
73723SOL    HW123066   5.730  12.460  14.736
73723SOL    HW223067   5.668  12.592  14.778
73724SOL     OW23068  12.112   7.174  13.506
73724SOL    HW123069  12.063   7.092  13.498
73724SOL    HW223070  12.099   7.218  13.422
73725SOL     OW23071   7.816   1.698  10.676
73725SOL    HW123072   7.773   1.772  10.634
73725SOL    HW223073   7.753   1.626  10.668
73726SOL     OW23074   8.942  13.786   7.115
73726SOL    HW123075   8.892  13.747   7.187
73726SOL    HW223076   8.879  13.841   7.069
73727SOL     OW23077   7.530   2.110   2.946
73727SOL    HW123078   7.569   2.122   3.033
73727SOL    HW223079   7.585   2.043   2.905
73728SOL     OW23080   5.249  10.736  12.560
73728SOL    HW123081   5.335  10.705  12.535
73728SOL    HW223082   5.202  10.748  12.477
73729SOL     OW23083   5.538   7.357   4.430
73729SOL    HW123084   5.509   7.267   4.445
73729SOL    HW223085   5.619   7.348   4.380
73730SOL     OW23086  13.167   5.390   9.186
73730SOL    HW123087  13.154   5.304   9.145
73730SOL    HW223088  13.078   5.425   9.196
73731SOL     OW23089   3.347   3.962   1.680
73731SOL    HW123090   3.332   4.055   1.698
73731SOL    HW223091   3.442   3.952   1.684
73732SOL     OW23092  13.429   4.474   6.846
73732SOL    HW123093  13.363   4.428   6.794
73732SOL    HW223094  13.503   4.414   6.849
73733SOL     OW23095   8.575  14.856   9.720
73733SOL    HW123096   8.665  14.839   9.691
73733SOL    HW223097   8.568  14.812   9.805
73734SOL     OW23098   9.861   0.540   9.026
73734SOL    HW123099   9.866   0.445   9.017
73734SOL    HW223100   9.892   0.574   8.943
73735SOL     OW23101   8.709   9.318   9.658
73735SOL    HW123102   8.616   9.294   9.664
73735SOL    HW223103   8.726   9.321   9.564
73736SOL     OW23104   4.605   2.650   4.231
73736SOL    HW123105   4.519   2.685   4.253
73736SOL    HW223106   4.589   2.589   4.159
73737SOL     OW23107   1.208   1.166  14.143
73737SOL    HW123108   1.220   1.118  14.061
73737SOL    HW223109   1.127   1.216  14.130
73738SOL     OW23110   1.081   5.342  11.078
73738SOL    HW123111   1.066   5.248  11.071
73738SOL    HW223112   1.070   5.362  11.171
73739SOL     OW23113   7.742  12.888  12.694
73739SOL    HW123114   7.756  12.979  12.669
73739SOL    HW223115   7.671  12.858  12.636
73740SOL     OW23116   8.395   1.452   5.876
73740SOL    HW123117   8.376   1.505   5.954
73740SOL    HW223118   8.324   1.388   5.873
73741SOL     OW23119  12.297   2.549  14.222
73741SOL    HW123120  12.391   2.566  14.217
73741SOL    HW223121  12.288   2.486  14.294
73742SOL     OW23122   3.721   4.099   5.271
73742SOL    HW123123   3.713   4.163   5.342
73742SOL    HW223124   3.635   4.100   5.228
73743SOL     OW23125  11.300   0.261   4.185
73743SOL    HW123126  11.240   0.259   4.260
73743SOL    HW223127  11.298   0.352   4.155
73744SOL     OW23128   5.500  10.943   0.651
73744SOL    HW123129   5.569  10.951   0.585
73744SOL    HW223130   5.424  10.912   0.602
73745SOL     OW23131  13.253   9.834   0.712
73745SOL    HW123132  13.169   9.853   0.669
73745SOL    HW223133  13.260   9.739   0.709
73746SOL     OW23134  12.204  14.278   8.561
73746SOL    HW123135  12.263  14.286   8.635
73746SOL    HW223136  12.146  14.354   8.568
73747SOL     OW23137   8.184  11.968   7.975
73747SOL    HW123138   8.217  11.878   7.971
73747SOL    HW223139   8.106  11.967   7.920
73748SOL     OW23140  10.125  14.195   6.448
73748SOL    HW123141  10.153  14.211   6.358
73748SOL    HW223142  10.165  14.111   6.471
73749SOL     OW23143   8.032   9.371   2.975
73749SOL    HW123144   8.058   9.279   2.965
73749SOL    HW223145   8.022   9.402   2.885
73750SOL     OW23146  10.677   2.387   5.468
73750SOL    HW123147  10.743   2.319   5.452
73750SOL    HW223148  10.651   2.416   5.381
73751SOL     OW23149   4.976   4.522  14.421
73751SOL    HW123150   4.968   4.553  14.331
73751SOL    HW223151   4.899   4.558  14.466
73752SOL     OW23152   5.766   0.448   2.079
73752SOL    HW123153   5.820   0.525   2.063
73752SOL    HW223154   5.828   0.377   2.094
73753SOL     OW23155   8.297   6.344   2.178
73753SOL    HW123156   8.262   6.431   2.197
73753SOL    HW223157   8.329   6.350   2.088
73754SOL     OW23158   1.178   2.097   6.936
73754SOL    HW123159   1.227   2.029   6.890
73754SOL    HW223160   1.130   2.050   7.004
73755SOL     OW23161   4.772  10.089   0.383
73755SOL    HW123162   4.702  10.153   0.389
73755SOL    HW223163   4.754  10.026   0.452
73756SOL     OW23164  10.615   4.113   7.072
73756SOL    HW123165  10.615   4.021   7.047
73756SOL    HW223166  10.524   4.140   7.065
73757SOL     OW23167   2.501   5.655  11.530
73757SOL    HW123168   2.561   5.710  11.581
73757SOL    HW223169   2.466   5.592  11.594
73758SOL     OW23170   4.568   8.605   7.448
73758SOL    HW123171   4.550   8.690   7.490
73758SOL    HW223172   4.491   8.552   7.469
73759SOL     OW23173   0.260   1.551   0.168
73759SOL    HW123174   0.302   1.546   0.082
73759SOL    HW223175   0.171   1.520   0.153
73760SOL     OW23176   3.466  14.427  14.338
73760SOL    HW123177   3.476  14.400  14.429
73760SOL    HW223178   3.387  14.381  14.308
73761SOL     OW23179  14.022   1.108  12.338
73761SOL    HW123180  13.991   1.182  12.391
73761SOL    HW223181  14.091   1.068  12.392
73762SOL     OW23182   3.174   8.509   5.312
73762SOL    HW123183   3.115   8.526   5.386
73762SOL    HW223184   3.214   8.424   5.332
73763SOL     OW23185   4.369   4.277   5.119
73763SOL    HW123186   4.402   4.249   5.205
73763SOL    HW223187   4.312   4.206   5.091
73764SOL     OW23188  11.816   3.495   0.285
73764SOL    HW123189  11.772   3.490   0.200
73764SOL    HW223190  11.879   3.565   0.275
73765SOL     OW23191   3.268   3.922  13.223
73765SOL    HW123192   3.240   4.003  13.179
73765SOL    HW223193   3.227   3.852  13.172
73766SOL     OW23194  12.919   7.122   5.069
73766SOL    HW123195  12.959   7.102   4.984
73766SOL    HW223196  12.838   7.072   5.070
73767SOL     OW23197  13.403   6.762  12.067
73767SOL    HW123198  13.327   6.709  12.042
73767SOL    HW223199  13.426   6.809  11.987
73768SOL     OW23200   8.568   7.533   7.875
73768SOL    HW123201   8.593   7.458   7.929
73768SOL    HW223202   8.499   7.577   7.925
73769SOL     OW23203   9.512  13.003   6.968
73769SOL    HW123204   9.591  12.951   6.960
73769SOL    HW223205   9.543  13.092   6.984
73770SOL     OW23206   0.675   5.435   5.031
73770SOL    HW123207   0.631   5.378   5.094
73770SOL    HW223208   0.660   5.394   4.946
73771SOL     OW23209  14.714   2.937   5.352
73771SOL    HW123210  14.781   2.869   5.364
73771SOL    HW223211  14.671   2.914   5.270
73772SOL     OW23212   8.698   4.896  12.800
73772SOL    HW123213   8.685   4.976  12.850
73772SOL    HW223214   8.755   4.922  12.728
73773SOL     OW23215   5.527   9.890   7.878
73773SOL    HW123216   5.589   9.948   7.921
73773SOL    HW223217   5.581   9.840   7.816
73774SOL     OW23218   4.754   1.509  13.779
73774SOL    HW123219   4.673   1.560  13.786
73774SOL    HW223220   4.754   1.474  13.690
73775SOL     OW23221   5.184   1.025   2.174
73775SOL    HW123222   5.173   0.930   2.174
73775SOL    HW223223   5.200   1.048   2.083
73776SOL     OW23224  12.985  11.858   4.223
73776SOL    HW123225  12.894  11.883   4.243
73776SOL    HW223226  13.035  11.938   4.241
73777SOL     OW23227  10.866  14.469   2.471
73777SOL    HW123228  10.823  14.398   2.518
73777SOL    HW223229  10.847  14.450   2.378
73778SOL     OW23230  14.500   5.381  14.589
73778SOL    HW123231  14.584   5.397  14.634
73778SOL    HW223232  14.502   5.288  14.566
73779SOL     OW23233   4.097  13.670  10.203
73779SOL    HW123234   4.054  13.588  10.181
73779SOL    HW223235   4.135  13.655  10.290
73780SOL     OW23236   3.174   4.667   0.347
73780SOL    HW123237   3.149   4.612   0.273
73780SOL    HW223238   3.191   4.753   0.309
73781SOL     OW23239   7.222  11.707  11.199
73781SOL    HW123240   7.170  11.685  11.121
73781SOL    HW223241   7.161  11.698  11.272
73782SOL     OW23242   1.092   8.339  10.234
73782SOL    HW123243   1.104   8.326  10.328
73782SOL    HW223244   1.164   8.397  10.208
73783SOL     OW23245   1.352   5.118   8.109
73783SOL    HW123246   1.415   5.124   8.181
73783SOL    HW223247   1.318   5.028   8.113
73784SOL     OW23248  10.752   0.615   2.909
73784SOL    HW123249  10.806   0.561   2.851
73784SOL    HW223250  10.813   0.646   2.976
73785SOL     OW23251  11.903   6.355  12.630
73785SOL    HW123252  11.822   6.305  12.635
73785SOL    HW223253  11.876   6.446  12.646
73786SOL     OW23254   6.823  13.729   3.882
73786SOL    HW123255   6.853  13.692   3.799
73786SOL    HW223256   6.780  13.811   3.858
73787SOL     OW23257   7.034  11.266   9.796
73787SOL    HW123258   6.945  11.245   9.824
73787SOL    HW223259   7.029  11.270   9.700
73788SOL     OW23260  13.159  12.563   2.569
73788SOL    HW123261  13.114  12.512   2.502
73788SOL    HW223262  13.244  12.583   2.531
73789SOL     OW23263   5.523   2.188  14.829
73789SOL    HW123264   5.474   2.240  14.766
73789SOL    HW223265   5.595   2.150  14.778
73790SOL     OW23266  10.355   1.479   9.869
73790SOL    HW123267  10.333   1.557   9.818
73790SOL    HW223268  10.273   1.454   9.911
73791SOL     OW23269   1.518  10.084   9.661
73791SOL    HW123270   1.455  10.155   9.651
73791SOL    HW223271   1.604  10.126   9.659
73792SOL     OW23272  11.053  12.550   5.099
73792SOL    HW123273  11.080  12.622   5.156
73792SOL    HW223274  10.958  12.544   5.110
73793SOL     OW23275   5.444  13.129   9.469
73793SOL    HW123276   5.402  13.105   9.386
73793SOL    HW223277   5.445  13.225   9.467
73794SOL     OW23278  13.150  12.529  11.241
73794SOL    HW123279  13.234  12.486  11.253
73794SOL    HW223280  13.145  12.593  11.313
73795SOL     OW23281   6.746  10.597   4.841
73795SOL    HW123282   6.824  10.547   4.817
73795SOL    HW223283   6.779  10.685   4.862
73796SOL     OW23284  11.737  10.377   8.056
73796SOL    HW123285  11.651  10.342   8.079
73796SOL    HW223286  11.734  10.468   8.085
73797SOL     OW23287   6.126   8.966   9.207
73797SOL    HW123288   6.211   8.968   9.164
73797SOL    HW223289   6.142   8.919   9.289
73798SOL     OW23290  10.012  12.426   5.470
73798SOL    HW123291   9.983  12.375   5.546
73798SOL    HW223292   9.931  12.460   5.432
73799SOL     OW23293   5.678  11.403   6.706
73799SOL    HW123294   5.693  11.310   6.694
73799SOL    HW223295   5.759  11.436   6.747
73800SOL     OW23296  12.588   4.296   3.393
73800SOL    HW123297  12.574   4.389   3.375
73800SOL    HW223298  12.509   4.268   3.439
73801SOL     OW23299   1.201   1.038  10.810
73801SOL    HW123300   1.283   0.991  10.827
73801SOL    HW223301   1.195   1.041  10.714
73802SOL     OW23302  10.131   5.562   1.313
73802SOL    HW123303  10.149   5.589   1.403
73802SOL    HW223304  10.043   5.526   1.316
73803SOL     OW23305   7.218   2.610   3.360
73803SOL    HW123306   7.288   2.615   3.425
73803SOL    HW223307   7.231   2.525   3.317
73804SOL     OW23308   7.512   2.302   5.155
73804SOL    HW123309   7.596   2.292   5.199
73804SOL    HW223310   7.533   2.349   5.074
73805SOL     OW23311  12.856  14.540   6.467
73805SOL    HW123312  12.812  14.617   6.430
73805SOL    HW223313  12.859  14.477   6.394
73806SOL     OW23314   5.588   7.499  11.165
73806SOL    HW123315   5.606   7.537  11.251
73806SOL    HW223316   5.606   7.406  11.176
73807SOL     OW23317   9.825   2.275  12.183
73807SOL    HW123318   9.754   2.339  12.181
73807SOL    HW223319   9.858   2.278  12.273
73808SOL     OW23320   3.991   9.298  12.362
73808SOL    HW123321   3.896   9.313  12.357
73808SOL    HW223322   4.005   9.271  12.453
73809SOL     OW23323  10.229   2.804   7.576
73809SOL    HW123324  10.225   2.738   7.646
73809SOL    HW223325  10.187   2.881   7.613
73810SOL     OW23326  10.069   0.763  13.822
73810SOL    HW123327  10.006   0.832  13.799
73810SOL    HW223328  10.014   0.687  13.841
73811SOL     OW23329   4.740   7.719   1.116
73811SOL    HW123330   4.741   7.653   1.186
73811SOL    HW223331   4.649   7.748   1.112
73812SOL     OW23332   3.673   1.990   0.990
73812SOL    HW123333   3.636   1.995   0.902
73812SOL    HW223334   3.641   2.069   1.033
73813SOL     OW23335  11.134  14.460   8.496
73813SOL    HW123336  11.098  14.424   8.577
73813SOL    HW223337  11.159  14.549   8.518
73814SOL     OW23338   5.072  11.406   3.692
73814SOL    HW123339   5.034  11.405   3.780
73814SOL    HW223340   5.167  11.400   3.706
73815SOL     OW23341   3.040   9.113  10.173
73815SOL    HW123342   3.057   9.187  10.231
73815SOL    HW223343   2.946   9.119  10.154
73816SOL     OW23344  13.884  13.007   2.026
73816SOL    HW123345  13.852  13.005   1.935
73816SOL    HW223346  13.897  13.100   2.044
73817SOL     OW23347   3.275   6.113   3.173
73817SOL    HW123348   3.301   6.073   3.090
73817SOL    HW223349   3.253   6.203   3.151
73818SOL     OW23350   9.762  12.447   4.467
73818SOL    HW123351   9.773  12.373   4.527
73818SOL    HW223352   9.759  12.524   4.525
73819SOL     OW23353  12.800   2.065   8.966
73819SOL    HW123354  12.804   2.084   8.872
73819SOL    HW223355  12.819   2.148   9.008
73820SOL     OW23356   8.114   0.238   8.717
73820SOL    HW123357   8.193   0.238   8.770
73820SOL    HW223358   8.049   0.193   8.772
73821SOL     OW23359   6.783  10.693   9.178
73821SOL    HW123360   6.829  10.639   9.113
73821SOL    HW223361   6.836  10.687   9.257
73822SOL     OW23362   1.024  10.796  11.279
73822SOL    HW123363   0.955  10.777  11.216
73822SOL    HW223364   1.066  10.711  11.295
73823SOL     OW23365   7.152  11.987   7.862
73823SOL    HW123366   7.155  11.996   7.767
73823SOL    HW223367   7.213  12.054   7.894
73824SOL     OW23368  13.805  11.613   4.182
73824SOL    HW123369  13.794  11.619   4.277
73824SOL    HW223370  13.720  11.635   4.146
73825SOL     OW23371  11.124  10.100   6.090
73825SOL    HW123372  11.138  10.177   6.035
73825SOL    HW223373  11.092  10.033   6.029
73826SOL     OW23374  13.488  14.341   2.922
73826SOL    HW123375  13.551  14.405   2.889
73826SOL    HW223376  13.413  14.393   2.949
73827SOL     OW23377  12.640  11.855   9.171
73827SOL    HW123378  12.660  11.918   9.240
73827SOL    HW223379  12.701  11.783   9.187
73828SOL     OW23380  11.706   1.188   1.412
73828SOL    HW123381  11.765   1.143   1.352
73828SOL    HW223382  11.664   1.255   1.358
73829SOL     OW23383   5.123  12.335  12.542
73829SOL    HW123384   5.127  12.417  12.493
73829SOL    HW223385   5.129  12.267  12.474
73830SOL     OW23386   1.565  13.567   6.289
73830SOL    HW123387   1.494  13.522   6.334
73830SOL    HW223388   1.642  13.514   6.307
73831SOL     OW23389   7.751  10.708   2.591
73831SOL    HW123390   7.743  10.652   2.513
73831SOL    HW223391   7.661  10.738   2.607
73832SOL     OW23392   4.087  11.749   2.731
73832SOL    HW123393   4.107  11.678   2.792
73832SOL    HW223394   4.171  11.773   2.694
73833SOL     OW23395  14.163   0.612   0.746
73833SOL    HW123396  14.143   0.579   0.834
73833SOL    HW223397  14.184   0.534   0.695
73834SOL     OW23398   3.791   9.407   9.182
73834SOL    HW123399   3.702   9.388   9.209
73834SOL    HW223400   3.782   9.460   9.103
73835SOL     OW23401   0.416   9.285   9.498
73835SOL    HW123402   0.464   9.318   9.422
73835SOL    HW223403   0.325   9.282   9.469
73836SOL     OW23404  10.959  14.791  14.487
73836SOL    HW123405  10.887  14.799  14.550
73836SOL    HW223406  10.966  14.698  14.468
73837SOL     OW23407   6.807   4.296   9.277
73837SOL    HW123408   6.795   4.351   9.200
73837SOL    HW223409   6.901   4.303   9.297
73838SOL     OW23410   6.102   9.033  11.558
73838SOL    HW123411   6.198   9.039  11.556
73838SOL    HW223412   6.077   9.012  11.468
73839SOL     OW23413  12.620  12.941   0.746
73839SOL    HW123414  12.532  12.947   0.781
73839SOL    HW223415  12.630  13.018   0.690
73840SOL     OW23416   6.482  12.571   8.281
73840SOL    HW123417   6.464  12.638   8.346
73840SOL    HW223418   6.561  12.527   8.313
73841SOL     OW23419   2.047   4.457   4.811
73841SOL    HW123420   2.020   4.510   4.886
73841SOL    HW223421   2.133   4.490   4.787
73842SOL     OW23422   9.331  12.953   4.525
73842SOL    HW123423   9.333  13.022   4.591
73842SOL    HW223424   9.371  12.878   4.569
73843SOL     OW23425   5.090   0.233   5.139
73843SOL    HW123426   5.125   0.322   5.138
73843SOL    HW223427   5.064   0.218   5.230
73844SOL     OW23428   7.039  12.117   0.136
73844SOL    HW123429   7.035  12.107   0.231
73844SOL    HW223430   6.970  12.060   0.103
73845SOL     OW23431  11.400   3.254   7.341
73845SOL    HW123432  11.362   3.332   7.380
73845SOL    HW223433  11.440   3.285   7.259
73846SOL     OW23434   9.544   7.821   6.074
73846SOL    HW123435   9.516   7.731   6.058
73846SOL    HW223436   9.527   7.836   6.167
73847SOL     OW23437   8.986   7.524  10.377
73847SOL    HW123438   9.030   7.498  10.458
73847SOL    HW223439   8.936   7.447  10.351
73848SOL     OW23440   4.999   0.086   2.150
73848SOL    HW123441   4.989   0.122   2.238
73848SOL    HW223442   4.951   0.147   2.093
73849SOL     OW23443  10.187  11.714   9.702
73849SOL    HW123444  10.173  11.800   9.662
73849SOL    HW223445  10.241  11.666   9.639
73850SOL     OW23446   2.989   4.735   0.036
73850SOL    HW123447   2.992   4.644   0.063
73850SOL    HW223448   3.069   4.748  14.861
73851SOL     OW23449   4.758   6.488  14.768
73851SOL    HW123450   4.716   6.451  14.691
73851SOL    HW223451   4.849   6.503  14.741
73852SOL     OW23452  12.257  10.927  12.850
73852SOL    HW123453  12.209  10.848  12.825
73852SOL    HW223454  12.299  10.956  12.769
73853SOL     OW23455   2.774  14.836  13.111
73853SOL    HW123456   2.797  14.782  13.036
73853SOL    HW223457   2.768  14.774  13.184
73854SOL     OW23458  11.966   3.688   5.604
73854SOL    HW123459  11.996   3.708   5.516
73854SOL    HW223460  11.948   3.774   5.644
73855SOL     OW23461   8.074  11.421   8.165
73855SOL    HW123462   8.157  11.406   8.120
73855SOL    HW223463   8.097  11.475   8.241
73856SOL     OW23464   5.217   2.766  10.318
73856SOL    HW123465   5.286   2.713  10.357
73856SOL    HW223466   5.159   2.703  10.276
73857SOL     OW23467   5.921   4.152   5.675
73857SOL    HW123468   5.877   4.157   5.590
73857SOL    HW223469   5.862   4.101   5.730
73858SOL     OW23470  10.338  10.235  12.716
73858SOL    HW123471  10.253  10.251  12.676
73858SOL    HW223472  10.337  10.289  12.795
73859SOL     OW23473   5.255  14.557   2.817
73859SOL    HW123474   5.183  14.510   2.859
73859SOL    HW223475   5.291  14.495   2.755
73860SOL     OW23476  14.367  11.415   2.430
73860SOL    HW123477  14.316  11.495   2.437
73860SOL    HW223478  14.398  11.414   2.339
73861SOL     OW23479  11.664   9.468  12.093
73861SOL    HW123480  11.721   9.471  12.016
73861SOL    HW223481  11.597   9.534  12.076
73862SOL     OW23482   6.443   3.703   9.966
73862SOL    HW123483   6.482   3.781   9.927
73862SOL    HW223484   6.390   3.665   9.896
73863SOL     OW23485  12.177   9.281   1.046
73863SOL    HW123486  12.160   9.323   0.962
73863SOL    HW223487  12.213   9.195   1.024
73864SOL     OW23488  10.389   6.461   6.204
73864SOL    HW123489  10.463   6.486   6.260
73864SOL    HW223490  10.332   6.538   6.205
73865SOL     OW23491   2.793  11.969  10.866
73865SOL    HW123492   2.812  12.041  10.807
73865SOL    HW223493   2.863  11.906  10.851
73866SOL     OW23494   9.698   7.068  12.118
73866SOL    HW123495   9.783   7.091  12.155
73866SOL    HW223496   9.651   7.151  12.109
73867SOL     OW23497   2.314  10.919   9.866
73867SOL    HW123498   2.361  10.836   9.866
73867SOL    HW223499   2.383  10.986   9.862
73868SOL     OW23500   4.203   7.406   2.015
73868SOL    HW123501   4.167   7.419   2.102
73868SOL    HW223502   4.293   7.438   2.020
73869SOL     OW23503   4.085  12.606   4.725
73869SOL    HW123504   4.085  12.682   4.783
73869SOL    HW223505   4.072  12.642   4.637
73870SOL     OW23506  13.098  11.021  14.813
73870SOL    HW123507  13.084  11.102  14.764
73870SOL    HW223508  13.159  11.045   0.008
73871SOL     OW23509  11.515   6.700   5.174
73871SOL    HW123510  11.467   6.781   5.191
73871SOL    HW223511  11.469   6.633   5.224
73872SOL     OW23512  12.223  10.315   7.274
73872SOL    HW123513  12.197  10.311   7.182
73872SOL    HW223514  12.213  10.225   7.306
73873SOL     OW23515  11.757  10.679  13.671
73873SOL    HW123516  11.664  10.681  13.647
73873SOL    HW223517  11.780  10.771  13.686
73874SOL     OW23518   1.942   9.822  10.643
73874SOL    HW123519   1.852   9.831  10.612
73874SOL    HW223520   1.990   9.892  10.599
73875SOL     OW23521   4.061   3.042   7.986
73875SOL    HW123522   4.108   3.122   8.010
73875SOL    HW223523   3.988   3.038   8.047
73876SOL     OW23524   0.388   0.041   2.278
73876SOL    HW123525   0.329   0.088   2.338
73876SOL    HW223526   0.452   0.108   2.251
73877SOL     OW23527  13.448   7.415   7.117
73877SOL    HW123528  13.379   7.467   7.158
73877SOL    HW223529  13.402   7.343   7.074
73878SOL     OW23530  13.659  13.307  13.289
73878SOL    HW123531  13.574  13.270  13.312
73878SOL    HW223532  13.707  13.309  13.372
73879SOL     OW23533  12.426   1.816   6.247
73879SOL    HW123534  12.513   1.839   6.282
73879SOL    HW223535  12.401   1.738   6.297
73880SOL     OW23536   7.988   4.564   5.554
73880SOL    HW123537   8.022   4.508   5.624
73880SOL    HW223538   7.954   4.502   5.489
73881SOL     OW23539  10.911   2.111  13.624
73881SOL    HW123540  10.949   2.198  13.615
73881SOL    HW223541  10.896   2.100  13.718
73882SOL     OW23542  13.084   5.875  11.683
73882SOL    HW123543  13.133   5.833  11.753
73882SOL    HW223544  13.138   5.948  11.655
73883SOL     OW23545   0.255   9.118   3.475
73883SOL    HW123546   0.163   9.143   3.466
73883SOL    HW223547   0.280   9.087   3.388
73884SOL     OW23548  14.873   3.017   1.380
73884SOL    HW123549  14.874   2.955   1.307
73884SOL    HW223550  14.838   3.098   1.342
73885SOL     OW23551  11.553  13.751   1.813
73885SOL    HW123552  11.620  13.791   1.759
73885SOL    HW223553  11.597  13.678   1.855
73886SOL     OW23554   4.967   5.841  11.465
73886SOL    HW123555   4.982   5.932  11.439
73886SOL    HW223556   4.917   5.848  11.546
73887SOL     OW23557   6.981  11.914   1.376
73887SOL    HW123558   6.984  11.818   1.373
73887SOL    HW223559   6.896  11.936   1.338
73888SOL     OW23560   1.692  12.857  13.899
73888SOL    HW123561   1.698  12.855  13.994
73888SOL    HW223562   1.651  12.941  13.879
73889SOL     OW23563   7.781   7.116  11.699
73889SOL    HW123564   7.788   7.212  11.698
73889SOL    HW223565   7.852   7.088  11.758
73890SOL     OW23566  10.538   5.490   2.732
73890SOL    HW123567  10.525   5.407   2.779
73890SOL    HW223568  10.616   5.527   2.772
73891SOL     OW23569   8.475  12.571   8.174
73891SOL    HW123570   8.466  12.613   8.089
73891SOL    HW223571   8.569  12.561   8.187
73892SOL     OW23572   4.514   2.645   1.186
73892SOL    HW123573   4.420   2.659   1.187
73892SOL    HW223574   4.530   2.579   1.253
73893SOL     OW23575   1.496   3.209   9.139
73893SOL    HW123576   1.481   3.271   9.067
73893SOL    HW223577   1.567   3.153   9.108
73894SOL     OW23578   2.594   1.521   8.484
73894SOL    HW123579   2.649   1.471   8.423
73894SOL    HW223580   2.508   1.522   8.442
73895SOL     OW23581   1.609   2.343  13.659
73895SOL    HW123582   1.529   2.343  13.712
73895SOL    HW223583   1.672   2.294  13.711
73896SOL     OW23584   9.381   6.141   7.130
73896SOL    HW123585   9.330   6.157   7.209
73896SOL    HW223586   9.363   6.050   7.107
73897SOL     OW23587   5.633  13.837   1.021
73897SOL    HW123588   5.691  13.763   1.039
73897SOL    HW223589   5.632  13.888   1.102
73898SOL     OW23590   3.403  14.543  10.589
73898SOL    HW123591   3.326  14.492  10.564
73898SOL    HW223592   3.376  14.589  10.669
73899SOL     OW23593   7.997  12.821   2.556
73899SOL    HW123594   7.911  12.778   2.555
73899SOL    HW223595   7.978  12.912   2.535
73900SOL     OW23596   1.256   5.395   9.836
73900SOL    HW123597   1.347   5.419   9.853
73900SOL    HW223598   1.211   5.417   9.917
73901SOL     OW23599   2.276   8.506  13.695
73901SOL    HW123600   2.361   8.469  13.672
73901SOL    HW223601   2.240   8.537  13.612
73902SOL     OW23602   7.712   9.374  13.600
73902SOL    HW123603   7.649   9.377  13.528
73902SOL    HW223604   7.737   9.465  13.614
73903SOL     OW23605   4.711   8.374  10.408
73903SOL    HW123606   4.714   8.339  10.497
73903SOL    HW223607   4.625   8.348  10.375
73904SOL     OW23608   7.236   3.863  13.796
73904SOL    HW123609   7.231   3.929  13.727
73904SOL    HW223610   7.209   3.782  13.753
73905SOL     OW23611  14.601  14.260  10.104
73905SOL    HW123612  14.619  14.331  10.166
73905SOL    HW223613  14.632  14.181  10.148
73906SOL     OW23614   6.645  12.627   4.525
73906SOL    HW123615   6.579  12.676   4.573
73906SOL    HW223616   6.719  12.688   4.518
73907SOL     OW23617   7.920  11.581  12.214
73907SOL    HW123618   7.911  11.661  12.164
73907SOL    HW223619   7.986  11.530  12.166
73908SOL     OW23620   5.140   5.375   5.301
73908SOL    HW123621   5.224   5.334   5.279
73908SOL    HW223622   5.085   5.358   5.224
73909SOL     OW23623   4.266   6.720  12.936
73909SOL    HW123624   4.286   6.643  12.989
73909SOL    HW223625   4.342   6.777  12.948
73910SOL     OW23626   6.123   5.001   3.417
73910SOL    HW123627   6.093   5.085   3.381
73910SOL    HW223628   6.172   5.025   3.496
73911SOL     OW23629  10.161  10.889  12.057
73911SOL    HW123630  10.201  10.976  12.052
73911SOL    HW223631  10.204  10.839  11.988
73912SOL     OW23632   0.051  12.067  14.850
73912SOL    HW123633   0.115  12.137  14.861
73912SOL    HW223634   0.076  12.024  14.768
73913SOL     OW23635   3.968   9.281   6.091
73913SOL    HW123636   3.967   9.372   6.062
73913SOL    HW223637   3.882   9.266   6.129
73914SOL     OW23638   2.458   3.452   4.822
73914SOL    HW123639   2.397   3.462   4.895
73914SOL    HW223640   2.464   3.357   4.808
73915SOL     OW23641  14.616   9.758  13.270
73915SOL    HW123642  14.538   9.812  13.255
73915SOL    HW223643  14.650   9.741  13.182
73916SOL     OW23644   9.724   4.794   3.984
73916SOL    HW123645   9.792   4.840   3.935
73916SOL    HW223646   9.754   4.799   4.075
73917SOL     OW23647   5.367   1.288   8.500
73917SOL    HW123648   5.318   1.293   8.418
73917SOL    HW223649   5.387   1.195   8.512
73918SOL     OW23650  12.061  13.464   3.950
73918SOL    HW123651  12.026  13.379   3.924
73918SOL    HW223652  12.014  13.527   3.896
73919SOL     OW23653   6.732   4.554   0.228
73919SOL    HW123654   6.764   4.641   0.204
73919SOL    HW223655   6.648   4.571   0.271
73920SOL     OW23656   5.902   2.172   8.402
73920SOL    HW123657   5.915   2.187   8.309
73920SOL    HW223658   5.907   2.077   8.413
73921SOL     OW23659   9.208   8.029  14.409
73921SOL    HW123660   9.192   7.984  14.492
73921SOL    HW223661   9.201   7.960  14.343
73922SOL     OW23662   1.213   9.755   5.361
73922SOL    HW123663   1.176   9.838   5.330
73922SOL    HW223664   1.267   9.780   5.436
73923SOL     OW23665   6.217   9.223   9.260
73923SOL    HW123666   6.190   9.264   9.342
73923SOL    HW223667   6.164   9.143   9.255
73924SOL     OW23668   0.325   2.854  10.340
73924SOL    HW123669   0.361   2.847  10.428
73924SOL    HW223670   0.278   2.773  10.326
73925SOL     OW23671   2.876  10.007   9.196
73925SOL    HW123672   2.918  10.057   9.266
73925SOL    HW223673   2.858  10.072   9.127
73926SOL     OW23674   8.033   3.852  14.722
73926SOL    HW123675   8.128   3.855  14.735
73926SOL    HW223676   8.020   3.779  14.662
73927SOL     OW23677   9.063   4.059   0.393
73927SOL    HW123678   9.155   4.082   0.379
73927SOL    HW223679   9.046   4.081   0.485
73928SOL     OW23680  13.985  10.449   6.647
73928SOL    HW123681  14.027  10.379   6.697
73928SOL    HW223682  13.996  10.423   6.556
73929SOL     OW23683  10.676   8.490   8.825
73929SOL    HW123684  10.606   8.528   8.878
73929SOL    HW223685  10.711   8.418   8.878
73930SOL     OW23686   6.752  10.412   2.520
73930SOL    HW123687   6.684  10.403   2.453
73930SOL    HW223688   6.754  10.327   2.565
73931SOL     OW23689  10.219   6.445   7.391
73931SOL    HW123690  10.165   6.447   7.470
73931SOL    HW223691  10.166   6.397   7.327
73932SOL     OW23692   3.312   2.489  13.402
73932SOL    HW123693   3.288   2.572  13.360
73932SOL    HW223694   3.234   2.435  13.394
73933SOL     OW23695   7.246   7.327   5.271
73933SOL    HW123696   7.302   7.352   5.197
73933SOL    HW223697   7.233   7.409   5.319
73934SOL     OW23698   6.653  11.917  11.395
73934SOL    HW123699   6.583  11.866  11.437
73934SOL    HW223700   6.691  11.857  11.331
73935SOL     OW23701   8.159   7.250   0.276
73935SOL    HW123702   8.097   7.263   0.348
73935SOL    HW223703   8.241   7.287   0.308
73936SOL     OW23704  11.146  12.927   4.850
73936SOL    HW123705  11.103  12.892   4.772
73936SOL    HW223706  11.240  12.915   4.834
73937SOL     OW23707  11.954   9.124   7.876
73937SOL    HW123708  11.980   9.034   7.897
73937SOL    HW223709  11.899   9.151   7.950
73938SOL     OW23710   2.625   1.843   8.357
73938SOL    HW123711   2.615   1.748   8.350
73938SOL    HW223712   2.719   1.857   8.361
73939SOL     OW23713  12.510  12.403   8.423
73939SOL    HW123714  12.513  12.308   8.420
73939SOL    HW223715  12.569  12.432   8.354
73940SOL     OW23716   9.232   9.374  12.282
73940SOL    HW123717   9.140   9.348  12.290
73940SOL    HW223718   9.254   9.413  12.367
73941SOL     OW23719   4.285   0.233   9.029
73941SOL    HW123720   4.269   0.211   9.120
73941SOL    HW223721   4.247   0.320   9.018
73942SOL     OW23722   9.622   2.053   4.177
73942SOL    HW123723   9.609   2.139   4.138
73942SOL    HW223724   9.538   2.031   4.218
73943SOL     OW23725   7.925  12.097  14.216
73943SOL    HW123726   8.006  12.046  14.206
73943SOL    HW223727   7.871  12.072  14.141
73944SOL     OW23728   9.379   9.406   3.575
73944SOL    HW123729   9.462   9.365   3.550
73944SOL    HW223730   9.366   9.475   3.510
73945SOL     OW23731  11.262  11.374   6.993
73945SOL    HW123732  11.209  11.355   7.071
73945SOL    HW223733  11.339  11.419   7.027
73946SOL     OW23734   0.434   1.332  11.160
73946SOL    HW123735   0.401   1.401  11.217
73946SOL    HW223736   0.389   1.253  11.188
73947SOL     OW23737   0.298   1.153  11.522
73947SOL    HW123738   0.229   1.099  11.483
73947SOL    HW223739   0.358   1.170  11.449
73948SOL     OW23740   2.947  11.801   5.799
73948SOL    HW123741   3.042  11.811   5.800
73948SOL    HW223742   2.931  11.723   5.746
73949SOL     OW23743  14.341   7.469   6.038
73949SOL    HW123744  14.375   7.463   5.948
73949SOL    HW223745  14.283   7.545   6.036
73950SOL     OW23746   6.711   6.843   0.105
73950SOL    HW123747   6.667   6.854   0.190
73950SOL    HW223748   6.656   6.891   0.043
73951SOL     OW23749   6.407   1.893   0.019
73951SOL    HW123750   6.425   1.923  14.804
73951SOL    HW223751   6.313   1.907   0.031
73952SOL     OW23752   2.631   5.838  13.231
73952SOL    HW123753   2.624   5.933  13.234
73952SOL    HW223754   2.542   5.806  13.248
73953SOL     OW23755  10.169   5.846   6.350
73953SOL    HW123756  10.163   5.754   6.376
73953SOL    HW223757  10.161   5.895   6.432
73954SOL     OW23758  13.527   0.796   4.397
73954SOL    HW123759  13.441   0.769   4.365
73954SOL    HW223760  13.571   0.713   4.417
73955SOL     OW23761   7.609   5.494  10.176
73955SOL    HW123762   7.572   5.406  10.167
73955SOL    HW223763   7.662   5.490  10.256
73956SOL     OW23764   8.049   9.439   3.354
73956SOL    HW123765   8.102   9.388   3.416
73956SOL    HW223766   7.988   9.375   3.317
73957SOL     OW23767   4.423   7.075  12.379
73957SOL    HW123768   4.421   7.095  12.286
73957SOL    HW223769   4.334   7.047  12.399
73958SOL     OW23770  14.660   5.481   2.562
73958SOL    HW123771  14.638   5.518   2.477
73958SOL    HW223772  14.609   5.400   2.567
73959SOL     OW23773   2.565   5.135  10.692
73959SOL    HW123774   2.655   5.122  10.662
73959SOL    HW223775   2.512   5.124  10.613
73960SOL     OW23776   1.442  10.750   7.440
73960SOL    HW123777   1.506  10.707   7.496
73960SOL    HW223778   1.371  10.686   7.430
73961SOL     OW23779   0.228   6.542   4.434
73961SOL    HW123780   0.211   6.620   4.381
73961SOL    HW223781   0.241   6.472   4.369
73962SOL     OW23782   6.500  12.920  12.559
73962SOL    HW123783   6.567  12.865  12.599
73962SOL    HW223784   6.491  12.887  12.469
73963SOL     OW23785   5.284   0.549   4.744
73963SOL    HW123786   5.243   0.465   4.725
73963SOL    HW223787   5.211   0.610   4.754
73964SOL     OW23788   8.367   7.611  10.389
73964SOL    HW123789   8.391   7.527  10.428
73964SOL    HW223790   8.275   7.602  10.365
73965SOL     OW23791  12.264   7.982   3.994
73965SOL    HW123792  12.270   8.035   4.073
73965SOL    HW223793  12.292   7.894   4.021
73966SOL     OW23794  11.394  11.449   0.078
73966SOL    HW123795  11.452  11.525   0.075
73966SOL    HW223796  11.325  11.469   0.015
73967SOL     OW23797   3.696  11.049   5.413
73967SOL    HW123798   3.615  11.036   5.461
73967SOL    HW223799   3.763  11.062   5.480
73968SOL     OW23800   4.420   9.672  14.381
73968SOL    HW123801   4.464   9.588  14.370
73968SOL    HW223802   4.470   9.732  14.326
73969SOL     OW23803   7.384  13.298   1.961
73969SOL    HW123804   7.300  13.315   2.004
73969SOL    HW223805   7.437  13.254   2.028
73970SOL     OW23806   5.944   8.519   8.450
73970SOL    HW123807   5.954   8.553   8.540
73970SOL    HW223808   6.015   8.560   8.401
73971SOL     OW23809   3.076   6.397   3.994
73971SOL    HW123810   3.020   6.444   3.932
73971SOL    HW223811   3.158   6.447   3.996
73972SOL     OW23812   8.617  13.978  12.674
73972SOL    HW123813   8.689  13.931  12.632
73972SOL    HW223814   8.646  13.991  12.764
73973SOL     OW23815   0.511   2.803   3.258
73973SOL    HW123816   0.552   2.820   3.343
73973SOL    HW223817   0.584   2.794   3.197
73974SOL     OW23818   6.146  12.880  14.269
73974SOL    HW123819   6.203  12.955  14.253
73974SOL    HW223820   6.061  12.905  14.235
73975SOL     OW23821   7.893   5.967   9.469
73975SOL    HW123822   7.965   5.910   9.444
73975SOL    HW223823   7.814   5.919   9.442
73976SOL     OW23824   9.992  12.158  10.803
73976SOL    HW123825   9.944  12.195  10.877
73976SOL    HW223826  10.045  12.230  10.771
73977SOL     OW23827   7.733   3.841   5.323
73977SOL    HW123828   7.788   3.765   5.302
73977SOL    HW223829   7.713   3.831   5.416
73978SOL     OW23830  10.793  10.735   9.015
73978SOL    HW123831  10.885  10.759   8.998
73978SOL    HW223832  10.756  10.811   9.059
73979SOL     OW23833   2.565   5.727   3.312
73979SOL    HW123834   2.599   5.748   3.225
73979SOL    HW223835   2.593   5.637   3.328
73980SOL     OW23836   5.539  14.833  14.620
73980SOL    HW123837   5.628  14.853  14.591
73980SOL    HW223838   5.550  14.796  14.708
73981SOL     OW23839   5.843   9.484   2.683
73981SOL    HW123840   5.926   9.498   2.638
73981SOL    HW223841   5.793   9.564   2.667
73982SOL     OW23842   2.497   5.636   6.281
73982SOL    HW123843   2.433   5.566   6.290
73982SOL    HW223844   2.459   5.710   6.329
73983SOL     OW23845  13.597   4.533   1.226
73983SOL    HW123846  13.632   4.444   1.224
73983SOL    HW223847  13.504   4.523   1.206
73984SOL     OW23848   4.211  13.623   3.046
73984SOL    HW123849   4.213  13.705   3.095
73984SOL    HW223850   4.118  13.600   3.040
73985SOL     OW23851   4.535  10.626   6.884
73985SOL    HW123852   4.556  10.719   6.879
73985SOL    HW223853   4.477  10.618   6.960
73986SOL     OW23854   9.049  11.160  10.282
73986SOL    HW123855   9.107  11.228  10.316
73986SOL    HW223856   9.038  11.099  10.355
73987SOL     OW23857   9.400   3.367   8.012
73987SOL    HW123858   9.334   3.305   8.041
73987SOL    HW223859   9.428   3.335   7.926
73988SOL     OW23860  14.229   7.425   6.615
73988SOL    HW123861  14.280   7.367   6.559
73988SOL    HW223862  14.172   7.473   6.554
73989SOL     OW23863  10.745  11.296   8.710
73989SOL    HW123864  10.776  11.221   8.762
73989SOL    HW223865  10.825  11.336   8.677
73990SOL     OW23866   4.208  13.199   0.968
73990SOL    HW123867   4.300  13.220   0.954
73990SOL    HW223868   4.161  13.280   0.948
73991SOL     OW23869   2.181  10.528   3.398
73991SOL    HW123870   2.146  10.607   3.439
73991SOL    HW223871   2.275  10.543   3.394
73992SOL     OW23872   1.626   4.227   6.369
73992SOL    HW123873   1.719   4.241   6.388
73992SOL    HW223874   1.584   4.310   6.391
73993SOL     OW23875   6.239  13.073   2.183
73993SOL    HW123876   6.194  13.122   2.113
73993SOL    HW223877   6.324  13.115   2.190
73994SOL     OW23878  14.467  11.486  14.744
73994SOL    HW123879  14.452  11.395  14.720
73994SOL    HW223880  14.555  11.488  14.781
73995SOL     OW23881   0.155   4.940   0.407
73995SOL    HW123882   0.162   4.970   0.316
73995SOL    HW223883   0.160   4.845   0.401
73996SOL     OW23884   9.751  14.673  13.923
73996SOL    HW123885   9.843  14.690  13.941
73996SOL    HW223886   9.705  14.711  13.997
73997SOL     OW23887  13.855   7.485   2.802
73997SOL    HW123888  13.831   7.460   2.891
73997SOL    HW223889  13.906   7.412   2.769
73998SOL     OW23890  13.910  13.940  14.286
73998SOL    HW123891  13.982  13.984  14.331
73998SOL    HW223892  13.837  13.943  14.348
73999SOL     OW23893   2.287   8.977   3.220
73999SOL    HW123894   2.363   8.920   3.232
73999SOL    HW223895   2.213   8.925   3.253
74000SOL     OW23896   6.185   4.984  10.217
74000SOL    HW123897   6.143   5.010  10.135
74000SOL    HW223898   6.114   4.989  10.282
74001SOL     OW23899  11.014  11.965  10.254
74001SOL    HW123900  11.074  11.979  10.181
74001SOL    HW223901  11.071  11.949  10.329
74002SOL     OW23902  10.600  14.713  11.711
74002SOL    HW123903  10.688  14.748  11.695
74002SOL    HW223904  10.557  14.715  11.626
74003SOL     OW23905  11.763   0.466   3.716
74003SOL    HW123906  11.678   0.478   3.758
74003SOL    HW223907  11.778   0.372   3.717
74004SOL     OW23908   0.108   6.584  14.821
74004SOL    HW123909   0.072   6.660  14.866
74004SOL    HW223910   0.173   6.620  14.761
74005SOL     OW23911   1.022   7.165   5.027
74005SOL    HW123912   0.981   7.131   4.948
74005SOL    HW223913   1.108   7.123   5.030
74006SOL     OW23914   2.065  10.192  14.698
74006SOL    HW123915   2.079  10.201  14.604
74006SOL    HW223916   2.049  10.281  14.728
74007SOL     OW23917   3.970   2.234   9.815
74007SOL    HW123918   4.021   2.255   9.736
74007SOL    HW223919   3.901   2.175   9.783
74008SOL     OW23920   5.344   4.865   4.409
74008SOL    HW123921   5.321   4.952   4.378
74008SOL    HW223922   5.296   4.806   4.350
74009SOL     OW23923   3.024   4.576  13.776
74009SOL    HW123924   3.065   4.603  13.858
74009SOL    HW223925   2.930   4.579  13.794
74010SOL     OW23926  11.103   2.716   0.991
74010SOL    HW123927  11.091   2.718   0.896
74010SOL    HW223928  11.043   2.648   1.021
74011SOL     OW23929   8.646   3.889   1.249
74011SOL    HW123930   8.578   3.954   1.233
74011SOL    HW223931   8.599   3.808   1.265
74012SOL     OW23932   4.015   7.532   9.272
74012SOL    HW123933   3.958   7.455   9.277
74012SOL    HW223934   3.977   7.585   9.202
74013SOL     OW23935   2.337  12.569   1.669
74013SOL    HW123936   2.319  12.488   1.717
74013SOL    HW223937   2.378  12.626   1.733
74014SOL     OW23938   9.120   1.578  13.473
74014SOL    HW123939   9.090   1.627  13.549
74014SOL    HW223940   9.166   1.643  13.419
74015SOL     OW23941   2.102   8.249  10.751
74015SOL    HW123942   2.059   8.165  10.763
74015SOL    HW223943   2.042   8.299  10.695
74016SOL     OW23944   1.258   2.045  10.680
74016SOL    HW123945   1.186   2.002  10.725
74016SOL    HW223946   1.239   2.139  10.688
74017SOL     OW23947  11.267  12.757   3.121
74017SOL    HW123948  11.246  12.696   3.051
74017SOL    HW223949  11.187  12.764   3.172
74018SOL     OW23950   3.892  13.009  10.394
74018SOL    HW123951   3.954  12.937  10.405
74018SOL    HW223952   3.859  13.026  10.482
74019SOL     OW23953   3.944   9.065   9.558
74019SOL    HW123954   4.024   9.011   9.561
74019SOL    HW223955   3.891   9.024   9.489
74020SOL     OW23956   4.994   4.173   2.862
74020SOL    HW123957   5.086   4.156   2.839
74020SOL    HW223958   4.979   4.263   2.834
74021SOL     OW23959   6.416   0.554   4.611
74021SOL    HW123960   6.463   0.470   4.612
74021SOL    HW223961   6.475   0.613   4.564
74022SOL     OW23962   0.511   4.728   9.555
74022SOL    HW123963   0.443   4.763   9.498
74022SOL    HW223964   0.587   4.716   9.497
74023SOL     OW23965   0.483   2.779   4.487
74023SOL    HW123966   0.547   2.847   4.464
74023SOL    HW223967   0.419   2.825   4.543
74024SOL     OW23968   5.594  10.221  14.293
74024SOL    HW123969   5.615  10.290  14.230
74024SOL    HW223970   5.567  10.268  14.372
74025SOL     OW23971  10.587   2.146   9.768
74025SOL    HW123972  10.582   2.241   9.763
74025SOL    HW223973  10.497   2.116   9.753
74026SOL     OW23974   3.126  13.420  12.424
74026SOL    HW123975   3.089  13.486  12.365
74026SOL    HW223976   3.050  13.385  12.470
74027SOL     OW23977   0.873   7.783   4.099
74027SOL    HW123978   0.881   7.759   4.192
74027SOL    HW223979   0.793   7.835   4.094
74028SOL     OW23980  11.664   8.640  10.117
74028SOL    HW123981  11.654   8.619  10.024
74028SOL    HW223982  11.577   8.627  10.154
74029SOL     OW23983   2.778   3.225   4.839
74029SOL    HW123984   2.749   3.310   4.872
74029SOL    HW223985   2.865   3.212   4.878
74030SOL     OW23986   8.371   6.151   6.610
74030SOL    HW123987   8.370   6.106   6.695
74030SOL    HW223988   8.386   6.081   6.546
74031SOL     OW23989   0.329   3.653   2.309
74031SOL    HW123990   0.240   3.686   2.303
74031SOL    HW223991   0.354   3.667   2.401
74032SOL     OW23992  10.928  13.955   9.574
74032SOL    HW123993  10.944  13.863   9.596
74032SOL    HW223994  10.978  13.969   9.493
74033SOL     OW23995  14.779   8.634   1.496
74033SOL    HW123996  14.796   8.561   1.557
74033SOL    HW223997  14.842   8.701   1.521
74034SOL     OW23998   2.330  11.684   9.976
74034SOL    HW123999   2.358  11.596   9.951
74034SOL    HW224000   2.235  11.682   9.970
74035SOL     OW24001   7.527  13.132   5.780
74035SOL    HW124002   7.503  13.191   5.852
74035SOL    HW224003   7.484  13.049   5.802
74036SOL     OW24004   7.226   3.014   3.848
74036SOL    HW124005   7.287   3.042   3.915
74036SOL    HW224006   7.145   2.996   3.895
74037SOL     OW24007  10.685   1.721  11.080
74037SOL    HW124008  10.627   1.644  11.074
74037SOL    HW224009  10.627   1.792  11.108
74038SOL     OW24010  14.634  12.446  13.257
74038SOL    HW124011  14.684  12.516  13.212
74038SOL    HW224012  14.690  12.369  13.249
74039SOL     OW24013   0.569  13.678   8.992
74039SOL    HW124014   0.491  13.668   8.937
74039SOL    HW224015   0.612  13.757   8.958
74040SOL     OW24016  14.258   4.979  14.235
74040SOL    HW124017  14.212   4.918  14.177
74040SOL    HW224018  14.271   4.929  14.316
74041SOL     OW24019  11.650   8.981   4.059
74041SOL    HW124020  11.698   9.035   4.121
74041SOL    HW224021  11.560   9.014   4.062
74042SOL     OW24022   5.353   2.445   3.442
74042SOL    HW124023   5.319   2.432   3.353
74042SOL    HW224024   5.445   2.466   3.429
74043SOL     OW24025  14.516  11.549   7.421
74043SOL    HW124026  14.444  11.610   7.439
74043SOL    HW224027  14.526  11.550   7.326
74044SOL     OW24028  10.965  13.108   0.941
74044SOL    HW124029  10.968  13.151   1.026
74044SOL    HW224030  10.878  13.129   0.907
74045SOL     OW24031  12.423  12.235  14.134
74045SOL    HW124032  12.364  12.236  14.209
74045SOL    HW224033  12.491  12.299  14.156
74046SOL     OW24034   9.655   5.606   0.834
74046SOL    HW124035   9.730   5.549   0.849
74046SOL    HW224036   9.641   5.603   0.739
74047SOL     OW24037   4.102   5.369   7.214
74047SOL    HW124038   4.145   5.393   7.132
74047SOL    HW224039   4.138   5.283   7.236
74048SOL     OW24040   7.539   4.694   8.347
74048SOL    HW124041   7.474   4.677   8.415
74048SOL    HW224042   7.513   4.777   8.309
74049SOL     OW24043   3.010   2.016   0.809
74049SOL    HW124044   3.033   1.923   0.819
74049SOL    HW224045   2.948   2.017   0.736
74050SOL     OW24046  13.336   9.798   8.703
74050SOL    HW124047  13.268   9.781   8.768
74050SOL    HW224048  13.313   9.743   8.628
74051SOL     OW24049  12.802   2.153   9.359
74051SOL    HW124050  12.821   2.065   9.327
74051SOL    HW224051  12.775   2.202   9.281
74052SOL     OW24052   5.625   7.587   2.583
74052SOL    HW124053   5.695   7.621   2.638
74052SOL    HW224054   5.583   7.665   2.546
74053SOL     OW24055   6.783   3.017   5.976
74053SOL    HW124056   6.817   3.017   5.887
74053SOL    HW224057   6.702   2.965   5.971
74054SOL     OW24058   8.118  14.771   5.841
74054SOL    HW124059   8.136  14.705   5.775
74054SOL    HW224060   8.118  14.854   5.794
74055SOL     OW24061   9.406   6.185   8.349
74055SOL    HW124062   9.381   6.114   8.289
74055SOL    HW224063   9.326   6.202   8.400
74056SOL     OW24064   2.902   3.461   6.329
74056SOL    HW124065   2.936   3.411   6.404
74056SOL    HW224066   2.836   3.404   6.290
74057SOL     OW24067   3.594   7.674  13.090
74057SOL    HW124068   3.522   7.628  13.134
74057SOL    HW224069   3.667   7.613  13.092
74058SOL     OW24070   0.420   2.849   3.953
74058SOL    HW124071   0.444   2.768   3.908
74058SOL    HW224072   0.329   2.836   3.981
74059SOL     OW24073  12.305  13.048  12.698
74059SOL    HW124074  12.379  13.075  12.752
74059SOL    HW224075  12.234  13.033  12.761
74060SOL     OW24076  11.295  12.731   1.481
74060SOL    HW124077  11.258  12.690   1.403
74060SOL    HW224078  11.220  12.756   1.534
74061SOL     OW24079   3.395  13.388  12.420
74061SOL    HW124080   3.440  13.390  12.505
74061SOL    HW224081   3.307  13.358  12.441
74062SOL     OW24082   6.641   5.337   4.332
74062SOL    HW124083   6.599   5.418   4.305
74062SOL    HW224084   6.647   5.343   4.428
74063SOL     OW24085   6.464   1.750  11.428
74063SOL    HW124086   6.452   1.812  11.500
74063SOL    HW224087   6.415   1.788  11.356
74064SOL     OW24088   7.224  10.784   7.061
74064SOL    HW124089   7.144  10.788   7.112
74064SOL    HW224090   7.203  10.831   6.980
74065SOL     OW24091  14.068   6.297   9.173
74065SOL    HW124092  14.071   6.233   9.101
74065SOL    HW224093  14.053   6.244   9.251
74066SOL     OW24094  10.539   2.789   5.727
74066SOL    HW124095  10.456   2.741   5.736
74066SOL    HW224096  10.606   2.721   5.724
74067SOL     OW24097   2.109   9.371   2.577
74067SOL    HW124098   2.162   9.436   2.531
74067SOL    HW224099   2.123   9.290   2.528
74068SOL     OW24100   2.501   3.351   5.981
74068SOL    HW124101   2.577   3.409   5.979
74068SOL    HW224102   2.426   3.410   5.977
74069SOL     OW24103  12.471  10.618   9.830
74069SOL    HW124104  12.487  10.554   9.899
74069SOL    HW224105  12.378  10.610   9.810
74070SOL     OW24106   0.828  13.765   0.334
74070SOL    HW124107   0.745  13.791   0.295
74070SOL    HW224108   0.829  13.670   0.328
74071SOL     OW24109   9.949   6.690  10.160
74071SOL    HW124110   9.855   6.681  10.148
74071SOL    HW224111   9.985   6.604  10.138
74072SOL     OW24112   6.225  12.552   5.350
74072SOL    HW124113   6.176  12.559   5.432
74072SOL    HW224114   6.310  12.515   5.376
74073SOL     OW24115  11.473  10.880   7.051
74073SOL    HW124116  11.551  10.881   7.105
74073SOL    HW224117  11.497  10.828   6.974
74074SOL     OW24118   5.343   2.518  10.395
74074SOL    HW124119   5.295   2.520  10.478
74074SOL    HW224120   5.314   2.437  10.354
74075SOL     OW24121  14.300   5.912   3.962
74075SOL    HW124122  14.210   5.900   3.992
74075SOL    HW224123  14.331   5.987   4.011
74076SOL     OW24124   0.461  14.510  11.314
74076SOL    HW124125   0.482  14.445  11.246
74076SOL    HW224126   0.385  14.556  11.281
74077SOL     OW24127  13.067   1.923   3.378
74077SOL    HW124128  12.976   1.949   3.393
74077SOL    HW224129  13.110   2.002   3.345
74078SOL     OW24130   7.872   0.310   1.821
74078SOL    HW124131   7.868   0.277   1.732
74078SOL    HW224132   7.932   0.250   1.866
74079SOL     OW24133   0.623   1.495   0.736
74079SOL    HW124134   0.572   1.477   0.657
74079SOL    HW224135   0.559   1.529   0.799
74080SOL     OW24136   1.610   0.828  13.399
74080SOL    HW124137   1.677   0.805  13.334
74080SOL    HW224138   1.544   0.760  13.390
74081SOL     OW24139   1.745   9.523   2.913
74081SOL    HW124140   1.692   9.592   2.873
74081SOL    HW224141   1.820   9.512   2.854
74082SOL     OW24142   7.772   6.256   7.782
74082SOL    HW124143   7.844   6.265   7.844
74082SOL    HW224144   7.814   6.238   7.698
74083SOL     OW24145  12.340   2.743   6.497
74083SOL    HW124146  12.397   2.725   6.422
74083SOL    HW224147  12.282   2.667   6.501
74084SOL     OW24148   4.457  10.863   8.146
74084SOL    HW124149   4.483  10.927   8.080
74084SOL    HW224150   4.454  10.780   8.099
74085SOL     OW24151   2.997   1.399   0.898
74085SOL    HW124152   3.068   1.430   0.842
74085SOL    HW224153   2.940   1.475   0.909
74086SOL     OW24154   1.252   7.384   7.183
74086SOL    HW124155   1.253   7.316   7.249
74086SOL    HW224156   1.247   7.466   7.233
74087SOL     OW24157   4.355   4.997  13.199
74087SOL    HW124158   4.275   5.002  13.252
74087SOL    HW224159   4.420   4.959  13.258
74088SOL     OW24160   2.947  10.625  11.718
74088SOL    HW124161   2.995  10.556  11.672
74088SOL    HW224162   3.004  10.648  11.792
74089SOL     OW24163   0.476   7.062   9.631
74089SOL    HW124164   0.401   7.107   9.593
74089SOL    HW224165   0.438   7.001   9.694
74090SOL     OW24166   4.637   5.276  14.289
74090SOL    HW124167   4.668   5.361  14.258
74090SOL    HW224168   4.599   5.235  14.211
74091SOL     OW24169   6.071   9.265   4.543
74091SOL    HW124170   6.075   9.222   4.628
74091SOL    HW224171   6.120   9.346   4.554
74092SOL     OW24172  10.258   4.842  13.833
74092SOL    HW124173  10.217   4.774  13.780
74092SOL    HW224174  10.243   4.923  13.783
74093SOL     OW24175   8.285   9.167   5.543
74093SOL    HW124176   8.267   9.108   5.616
74093SOL    HW224177   8.380   9.170   5.537
74094SOL     OW24178   5.652   0.594   9.261
74094SOL    HW124179   5.736   0.637   9.277
74094SOL    HW224180   5.672   0.526   9.197
74095SOL     OW24181   9.461  13.480   1.344
74095SOL    HW124182   9.440  13.397   1.304
74095SOL    HW224183   9.443  13.468   1.438
74096SOL     OW24184  11.189   9.549  13.116
74096SOL    HW124185  11.163   9.483  13.180
74096SOL    HW224186  11.225   9.620  13.168
74097SOL     OW24187   7.264  10.379   0.696
74097SOL    HW124188   7.304  10.364   0.610
74097SOL    HW224189   7.336  10.410   0.751
74098SOL     OW24190   7.663  12.646   9.693
74098SOL    HW124191   7.592  12.594   9.730
74098SOL    HW224192   7.733  12.583   9.677
74099SOL     OW24193   5.027   8.993   1.190
74099SOL    HW124194   5.116   9.021   1.168
74099SOL    HW224195   5.035   8.954   1.277
74100SOL     OW24196  12.874   5.345   3.136
74100SOL    HW124197  12.945   5.289   3.106
74100SOL    HW224198  12.870   5.416   3.072
74101SOL     OW24199  10.320  10.227  10.220
74101SOL    HW124200  10.340  10.155  10.279
74101SOL    HW224201  10.238  10.201  10.178
74102SOL     OW24202   6.037   1.832  13.350
74102SOL    HW124203   5.947   1.837  13.383
74102SOL    HW224204   6.092   1.850  13.426
74103SOL     OW24205   2.902   4.049   1.833
74103SOL    HW124206   2.926   3.975   1.778
74103SOL    HW224207   2.984   4.095   1.849
74104SOL     OW24208   6.855   6.000   5.341
74104SOL    HW124209   6.774   5.949   5.342
74104SOL    HW224210   6.892   5.987   5.429
74105SOL     OW24211   9.023  11.802  10.389
74105SOL    HW124212   9.018  11.735  10.457
74105SOL    HW224213   9.112  11.796  10.355
74106SOL     OW24214   8.789   8.243   1.197
74106SOL    HW124215   8.871   8.193   1.201
74106SOL    HW224216   8.757   8.242   1.288
74107SOL     OW24217   9.696   7.746   5.453
74107SOL    HW124218   9.715   7.702   5.370
74107SOL    HW224219   9.688   7.838   5.430
74108SOL     OW24220   2.026   9.429   0.983
74108SOL    HW124221   1.937   9.458   1.004
74108SOL    HW224222   2.013   9.349   0.932
74109SOL     OW24223  11.770   1.337   4.217
74109SOL    HW124224  11.780   1.291   4.300
74109SOL    HW224225  11.732   1.422   4.241
74110SOL     OW24226   1.098  14.656   7.435
74110SOL    HW124227   1.091  14.566   7.403
74110SOL    HW224228   1.172  14.654   7.495
74111SOL     OW24229   1.565   4.991   1.593
74111SOL    HW124230   1.484   5.038   1.613
74111SOL    HW224231   1.539   4.925   1.528
74112SOL     OW24232   5.469   0.403   7.829
74112SOL    HW124233   5.508   0.490   7.839
74112SOL    HW224234   5.375   0.417   7.842
74113SOL     OW24235   0.174   5.600  13.901
74113SOL    HW124236   0.134   5.514  13.913
74113SOL    HW224237   0.237   5.588  13.830
74114SOL     OW24238  12.466   5.901  14.696
74114SOL    HW124239  12.414   5.927  14.620
74114SOL    HW224240  12.404   5.903  14.769
74115SOL     OW24241   5.728   0.476   5.159
74115SOL    HW124242   5.784   0.399   5.146
74115SOL    HW224243   5.786   0.551   5.147
74116SOL     OW24244   1.100   4.734   4.044
74116SOL    HW124245   1.149   4.786   3.980
74116SOL    HW224246   1.153   4.654   4.054
74117SOL     OW24247   4.317   0.998   7.060
74117SOL    HW124248   4.372   0.920   7.056
74117SOL    HW224249   4.332   1.042   6.976
74118SOL     OW24250   7.697   3.410   3.274
74118SOL    HW124251   7.707   3.344   3.205
74118SOL    HW224252   7.738   3.489   3.238
74119SOL     OW24253   5.522  11.634   0.172
74119SOL    HW124254   5.434  11.660   0.146
74119SOL    HW224255   5.522  11.539   0.167
74120SOL     OW24256   3.792   9.177  13.593
74120SOL    HW124257   3.720   9.222  13.547
74120SOL    HW224258   3.753   9.150  13.677
74121SOL     OW24259  14.626   1.863   8.996
74121SOL    HW124260  14.680   1.906   8.930
74121SOL    HW224261  14.562   1.812   8.945
74122SOL     OW24262   6.124   6.962  12.637
74122SOL    HW124263   6.062   6.906  12.685
74122SOL    HW224264   6.202   6.964  12.693
74123SOL     OW24265   0.159   8.076   5.221
74123SOL    HW124266   0.094   8.049   5.285
74123SOL    HW224267   0.108   8.112   5.148
74124SOL     OW24268  10.888   9.273   1.057
74124SOL    HW124269  10.866   9.332   1.129
74124SOL    HW224270  10.963   9.315   1.014
74125SOL     OW24271  13.310   4.592   0.576
74125SOL    HW124272  13.357   4.675   0.583
74125SOL    HW224273  13.233   4.613   0.523
74126SOL     OW24274  12.631  14.485   1.281
74126SOL    HW124275  12.559  14.524   1.232
74126SOL    HW224276  12.644  14.399   1.240
74127SOL     OW24277   6.829  10.197   5.254
74127SOL    HW124278   6.925  10.193   5.259
74127SOL    HW224279   6.801  10.106   5.256
74128SOL     OW24280   7.898   8.276  13.832
74128SOL    HW124281   7.809   8.300  13.808
74128SOL    HW224282   7.903   8.182  13.815
74129SOL     OW24283   4.600   2.629   8.949
74129SOL    HW124284   4.644   2.610   8.866
74129SOL    HW224285   4.571   2.543   8.981
74130SOL     OW24286  10.691   5.843  11.220
74130SOL    HW124287  10.653   5.930  11.219
74130SOL    HW224288  10.655   5.800  11.142
74131SOL     OW24289  12.939   7.626   6.996
74131SOL    HW124290  12.844   7.611   6.995
74131SOL    HW224291  12.970   7.588   6.914
74132SOL     OW24292  11.098  12.337  11.863
74132SOL    HW124293  11.169  12.393  11.892
74132SOL    HW224294  11.141  12.269  11.811
74133SOL     OW24295   2.763   1.165  11.967
74133SOL    HW124296   2.712   1.104  12.021
74133SOL    HW224297   2.841   1.116  11.942
74134SOL     OW24298   0.735  11.628   7.290
74134SOL    HW124299   0.803  11.562   7.275
74134SOL    HW224300   0.761  11.702   7.236
74135SOL     OW24301   2.329  10.957   5.582
74135SOL    HW124302   2.349  11.012   5.658
74135SOL    HW224303   2.252  10.907   5.609
74136SOL     OW24304  12.133   0.314   9.573
74136SOL    HW124305  12.192   0.365   9.517
74136SOL    HW224306  12.113   0.236   9.521
74137SOL     OW24307  12.635  13.632   4.725
74137SOL    HW124308  12.648  13.716   4.770
74137SOL    HW224309  12.721  13.610   4.690
74138SOL     OW24310   8.770   7.466   1.410
74138SOL    HW124311   8.759   7.441   1.502
74138SOL    HW224312   8.694   7.521   1.390
74139SOL     OW24313   7.709   7.809   6.006
74139SOL    HW124314   7.772   7.746   5.972
74139SOL    HW224315   7.699   7.874   5.937
74140SOL     OW24316   9.306  11.023  14.341
74140SOL    HW124317   9.241  11.089  14.367
74140SOL    HW224318   9.253  10.946  14.319
74141SOL     OW24319   9.613   4.106   4.645
74141SOL    HW124320   9.653   4.185   4.608
74141SOL    HW224321   9.647   4.101   4.734
74142SOL     OW24322   6.236   4.439  11.545
74142SOL    HW124323   6.235   4.499  11.471
74142SOL    HW224324   6.287   4.485  11.612
74143SOL     OW24325  10.748   5.879   6.201
74143SOL    HW124326  10.691   5.872   6.278
74143SOL    HW224327  10.836   5.869   6.237
74144SOL     OW24328   7.461   5.626   4.177
74144SOL    HW124329   7.370   5.608   4.202
74144SOL    HW224330   7.511   5.611   4.257
74145SOL     OW24331   2.612   1.685  11.763
74145SOL    HW124332   2.668   1.754  11.728
74145SOL    HW224333   2.538   1.731  11.801
74146SOL     OW24334  12.978  12.421   9.890
74146SOL    HW124335  12.886  12.444   9.890
74146SOL    HW224336  13.012  12.456   9.807
74147SOL     OW24337   2.774  13.284  10.035
74147SOL    HW124338   2.867  13.281  10.058
74147SOL    HW224339   2.738  13.354  10.088
74148SOL     OW24340  13.882   4.019   0.947
74148SOL    HW124341  13.970   3.999   0.914
74148SOL    HW224342  13.891   4.104   0.988
74149SOL     OW24343   3.667  10.922   0.084
74149SOL    HW124344   3.633  10.839   0.049
74149SOL    HW224345   3.654  10.915   0.178
74150SOL     OW24346  14.632  12.923   6.399
74150SOL    HW124347  14.693  12.966   6.459
74150SOL    HW224348  14.557  12.901   6.453
74151SOL     OW24349   5.020   1.132  13.651
74151SOL    HW124350   5.095   1.182  13.684
74151SOL    HW224351   5.033   1.129  13.557
74152SOL     OW24352   0.442   7.928  14.855
74152SOL    HW124353   0.410   7.845  14.819
74152SOL    HW224354   0.412   7.928   0.071
74153SOL     OW24355   2.157   2.648  11.862
74153SOL    HW124356   2.089   2.711  11.838
74153SOL    HW224357   2.142   2.632  11.956
74154SOL     OW24358   3.977   5.764   2.794
74154SOL    HW124359   4.040   5.693   2.804
74154SOL    HW224360   3.920   5.736   2.722
74155SOL     OW24361  13.552   7.056   1.415
74155SOL    HW124362  13.482   7.003   1.378
74155SOL    HW224363  13.546   7.040   1.509
74156SOL     OW24364   4.387   0.779   1.663
74156SOL    HW124365   4.400   0.850   1.725
74156SOL    HW224366   4.385   0.821   1.577
74157SOL     OW24367  13.888   1.863  13.175
74157SOL    HW124368  13.928   1.941  13.214
74157SOL    HW224369  13.882   1.800  13.246
74158SOL     OW24370   2.555  10.570   5.127
74158SOL    HW124371   2.626  10.609   5.177
74158SOL    HW224372   2.592  10.488   5.093
74159SOL     OW24373   3.863   4.580   8.498
74159SOL    HW124374   3.787   4.534   8.535
74159SOL    HW224375   3.938   4.526   8.521
74160SOL     OW24376   2.502   2.726   4.082
74160SOL    HW124377   2.581   2.691   4.124
74160SOL    HW224378   2.531   2.806   4.038
74161SOL     OW24379  13.708   6.481  12.880
74161SOL    HW124380  13.797   6.514  12.893
74161SOL    HW224381  13.654   6.559  12.880
74162SOL     OW24382   4.478  11.949   3.318
74162SOL    HW124383   4.514  12.025   3.273
74162SOL    HW224384   4.385  11.951   3.296
74163SOL     OW24385  12.032   8.746   0.103
74163SOL    HW124386  12.005   8.812   0.039
74163SOL    HW224387  12.061   8.672   0.050
74164SOL     OW24388   3.325   5.864   2.190
74164SOL    HW124389   3.318   5.921   2.113
74164SOL    HW224390   3.408   5.817   2.178
74165SOL     OW24391  12.587   3.271   8.666
74165SOL    HW124392  12.561   3.343   8.725
74165SOL    HW224393  12.544   3.292   8.583
74166SOL     OW24394   1.994   7.453   6.360
74166SOL    HW124395   1.936   7.421   6.429
74166SOL    HW224396   2.073   7.399   6.369
74167SOL     OW24397   3.197  10.886  10.639
74167SOL    HW124398   3.156  10.947  10.701
74167SOL    HW224399   3.242  10.822  10.695
74168SOL     OW24400   2.538  10.685   4.437
74168SOL    HW124401   2.617  10.638   4.409
74168SOL    HW224402   2.493  10.624   4.495
74169SOL     OW24403   6.432  13.268   7.430
74169SOL    HW124404   6.379  13.193   7.458
74169SOL    HW224405   6.373  13.343   7.439
74170SOL     OW24406   9.576  13.084   0.466
74170SOL    HW124407   9.616  13.003   0.497
74170SOL    HW224408   9.647  13.130   0.421
74171SOL     OW24409  10.595  14.162   1.631
74171SOL    HW124410  10.550  14.199   1.707
74171SOL    HW224411  10.534  14.096   1.598
74172SOL     OW24412   9.951   8.028  10.438
74172SOL    HW124413   9.979   7.966  10.506
74172SOL    HW224414   9.952   8.113  10.482
74173SOL     OW24415  12.038   4.425   3.937
74173SOL    HW124416  12.058   4.356   4.000
74173SOL    HW224417  11.984   4.382   3.871
74174SOL     OW24418  11.637   6.112   1.854
74174SOL    HW124419  11.718   6.163   1.853
74174SOL    HW224420  11.641   6.063   1.936
74175SOL     OW24421   7.810   7.867  10.699
74175SOL    HW124422   7.860   7.928  10.754
74175SOL    HW224423   7.834   7.890  10.610
74176SOL     OW24424   8.243   4.617   1.877
74176SOL    HW124425   8.192   4.560   1.935
74176SOL    HW224426   8.256   4.564   1.798
74177SOL     OW24427   7.607  10.500  12.286
74177SOL    HW124428   7.649  10.475  12.368
74177SOL    HW224429   7.563  10.421  12.256
74178SOL     OW24430  10.735   4.984   2.350
74178SOL    HW124431  10.821   5.002   2.388
74178SOL    HW224432  10.754   4.946   2.265
74179SOL     OW24433  12.079   5.962   5.902
74179SOL    HW124434  12.118   5.875   5.895
74179SOL    HW224435  11.996   5.956   5.856
74180SOL     OW24436   3.302   3.354   4.778
74180SOL    HW124437   3.367   3.410   4.734
74180SOL    HW224438   3.247   3.415   4.827
74181SOL     OW24439   7.220  11.994  13.117
74181SOL    HW124440   7.204  12.070  13.060
74181SOL    HW224441   7.168  12.013  13.196
74182SOL     OW24442   2.036   5.421  12.820
74182SOL    HW124443   1.963   5.360  12.832
74182SOL    HW224444   2.009   5.499  12.869
74183SOL     OW24445   7.694   5.659   1.656
74183SOL    HW124446   7.675   5.648   1.563
74183SOL    HW224447   7.668   5.750   1.675
74184SOL     OW24448  11.925  13.509   5.473
74184SOL    HW124449  11.899  13.535   5.562
74184SOL    HW224450  11.851  13.459   5.441
74185SOL     OW24451   9.030  14.843   9.842
74185SOL    HW124452   9.124  14.860   9.843
74185SOL    HW224453   8.993   0.030   9.906
74186SOL     OW24454  12.085  13.220   2.525
74186SOL    HW124455  12.076  13.128   2.548
74186SOL    HW224456  12.023  13.234   2.453
74187SOL     OW24457  12.153   6.449  13.474
74187SOL    HW124458  12.158   6.354  13.463
74187SOL    HW224459  12.101   6.462  13.553
74188SOL     OW24460   6.586   3.372  11.901
74188SOL    HW124461   6.605   3.417  11.818
74188SOL    HW224462   6.561   3.442  11.961
74189SOL     OW24463   3.528  12.856  12.795
74189SOL    HW124464   3.486  12.799  12.731
74189SOL    HW224465   3.458  12.911  12.830
74190SOL     OW24466   8.053   8.920  11.010
74190SOL    HW124467   7.962   8.892  11.019
74190SOL    HW224468   8.055   8.967  10.927
74191SOL     OW24469  12.536   1.824  14.033
74191SOL    HW124470  12.537   1.919  14.043
74191SOL    HW224471  12.495   1.792  14.113
74192SOL     OW24472   9.325   8.925  12.530
74192SOL    HW124473   9.256   8.898  12.469
74192SOL    HW224474   9.279   8.949  12.610
74193SOL     OW24475   1.140  11.736  10.107
74193SOL    HW124476   1.067  11.682  10.079
74193SOL    HW224477   1.141  11.809  10.045
74194SOL     OW24478  12.745   9.865  13.349
74194SOL    HW124479  12.695   9.834  13.424
74194SOL    HW224480  12.699   9.830  13.272
74195SOL     OW24481   9.758   7.296   3.068
74195SOL    HW124482   9.748   7.219   3.012
74195SOL    HW224483   9.669   7.332   3.076
74196SOL     OW24484  13.775   8.656  11.242
74196SOL    HW124485  13.769   8.636  11.148
74196SOL    HW224486  13.691   8.697  11.262
74197SOL     OW24487   9.217   1.319   8.766
74197SOL    HW124488   9.221   1.228   8.736
74197SOL    HW224489   9.306   1.339   8.794
74198SOL     OW24490  11.794  11.057   7.606
74198SOL    HW124491  11.841  10.984   7.567
74198SOL    HW224492  11.793  11.037   7.700
74199SOL     OW24493  13.441   4.817   7.027
74199SOL    HW124494  13.434   4.913   7.027
74199SOL    HW224495  13.424   4.792   6.936
74200SOL     OW24496   8.825   1.677   1.853
74200SOL    HW124497   8.857   1.587   1.853
74200SOL    HW224498   8.733   1.670   1.878
74201SOL     OW24499   7.741   2.786   9.902
74201SOL    HW124500   7.757   2.740   9.819
74201SOL    HW224501   7.805   2.857   9.903
74202SOL     OW24502  12.542   4.499   8.525
74202SOL    HW124503  12.551   4.437   8.452
74202SOL    HW224504  12.630   4.533   8.538
74203SOL     OW24505   1.698   8.360   6.124
74203SOL    HW124506   1.670   8.269   6.138
74203SOL    HW224507   1.789   8.363   6.155
74204SOL     OW24508   7.332   1.723  14.748
74204SOL    HW124509   7.405   1.688  14.799
74204SOL    HW224510   7.338   1.818  14.760
74205SOL     OW24511  10.025   6.422  13.125
74205SOL    HW124512  10.007   6.344  13.177
74205SOL    HW224513  10.001   6.397  13.036
74206SOL     OW24514   5.547   6.390   5.257
74206SOL    HW124515   5.564   6.430   5.343
74206SOL    HW224516   5.519   6.301   5.277
74207SOL     OW24517   2.943  14.552   7.771
74207SOL    HW124518   2.941  14.468   7.817
74207SOL    HW224519   2.869  14.548   7.710
74208SOL     OW24520   2.683  10.125   2.132
74208SOL    HW124521   2.594  10.097   2.109
74208SOL    HW224522   2.720  10.051   2.180
74209SOL     OW24523   0.266   9.269   8.033
74209SOL    HW124524   0.242   9.275   8.125
74209SOL    HW224525   0.342   9.327   8.025
74210SOL     OW24526  13.578   3.082   5.678
74210SOL    HW124527  13.550   3.163   5.721
74210SOL    HW224528  13.647   3.048   5.734
74211SOL     OW24529  13.703   1.508   7.528
74211SOL    HW124530  13.738   1.465   7.606
74211SOL    HW224531  13.652   1.440   7.483
74212SOL     OW24532   6.805   1.310   1.115
74212SOL    HW124533   6.750   1.326   1.038
74212SOL    HW224534   6.765   1.233   1.157
74213SOL     OW24535  14.326  10.319  10.198
74213SOL    HW124536  14.377  10.253  10.151
74213SOL    HW224537  14.325  10.288  10.289
74214SOL     OW24538   8.434  11.934   2.205
74214SOL    HW124539   8.528  11.925   2.220
74214SOL    HW224540   8.396  11.936   2.292
74215SOL     OW24541   7.388   8.433   5.404
74215SOL    HW124542   7.429   8.505   5.452
74215SOL    HW224543   7.377   8.364   5.469
74216SOL     OW24544   9.336  11.048   2.609
74216SOL    HW124545   9.399  10.996   2.659
74216SOL    HW224546   9.314  10.992   2.535
74217SOL     OW24547   6.139   7.216  10.378
74217SOL    HW124548   6.174   7.178  10.459
74217SOL    HW224549   6.084   7.289  10.408
74218SOL     OW24550   3.007  11.671   2.556
74218SOL    HW124551   2.927  11.680   2.608
74218SOL    HW224552   3.009  11.749   2.501
74219SOL     OW24553   2.715   0.522   4.432
74219SOL    HW124554   2.664   0.547   4.509
74219SOL    HW224555   2.774   0.453   4.463
74220SOL     OW24556   3.074  14.468  10.922
74220SOL    HW124557   3.104  14.522  10.849
74220SOL    HW224558   3.076  14.526  10.998
74221SOL     OW24559  11.750   0.782   7.932
74221SOL    HW124560  11.784   0.732   8.006
74221SOL    HW224561  11.756   0.721   7.858
74222SOL     OW24562   0.809   3.117  12.258
74222SOL    HW124563   0.751   3.078  12.192
74222SOL    HW224564   0.765   3.098  12.341
74223SOL     OW24565   6.073   8.838   5.955
74223SOL    HW124566   6.067   8.915   6.012
74223SOL    HW224567   6.166   8.818   5.952
74224SOL     OW24568  13.598   3.532  10.534
74224SOL    HW124569  13.526   3.470  10.524
74224SOL    HW224570  13.631   3.517  10.622
74225SOL     OW24571   3.742   1.290  14.085
74225SOL    HW124572   3.824   1.283  14.035
74225SOL    HW224573   3.769   1.278  14.176
74226SOL     OW24574   3.423   0.729   5.647
74226SOL    HW124575   3.351   0.686   5.694
74226SOL    HW224576   3.384   0.808   5.611
74227SOL     OW24577   7.041   1.114  14.105
74227SOL    HW124578   7.075   1.032  14.068
74227SOL    HW224579   7.092   1.127  14.184
74228SOL     OW24580   9.057   2.630   9.099
74228SOL    HW124581   9.009   2.612   9.019
74228SOL    HW224582   9.118   2.557   9.107
74229SOL     OW24583  14.816   7.803  10.125
74229SOL    HW124584  14.853   7.723  10.164
74229SOL    HW224585  14.728   7.777  10.098
74230SOL     OW24586  11.553  12.078   0.236
74230SOL    HW124587  11.464  12.066   0.269
74230SOL    HW224588  11.598  12.126   0.306
74231SOL     OW24589   6.380   8.411   4.035
74231SOL    HW124590   6.473   8.430   4.025
74231SOL    HW224591   6.361   8.433   4.127
74232SOL     OW24592   4.245   6.453   4.637
74232SOL    HW124593   4.263   6.527   4.579
74232SOL    HW224594   4.237   6.493   4.724
74233SOL     OW24595   8.097   2.349   0.624
74233SOL    HW124596   8.043   2.427   0.608
74233SOL    HW224597   8.035   2.276   0.619
74234SOL     OW24598  13.653   3.806   8.265
74234SOL    HW124599  13.577   3.860   8.285
74234SOL    HW224600  13.631   3.761   8.184
74235SOL     OW24601   4.123   0.312  10.701
74235SOL    HW124602   4.128   0.384  10.638
74235SOL    HW224603   4.212   0.277  10.704
74236SOL     OW24604   5.699   4.125  14.296
74236SOL    HW124605   5.623   4.095  14.346
74236SOL    HW224606   5.723   4.208  14.336
74237SOL     OW24607   6.677   8.785   6.050
74237SOL    HW124608   6.598   8.778   6.104
74237SOL    HW224609   6.719   8.700   6.058
74238SOL     OW24610   5.600   9.630   3.745
74238SOL    HW124611   5.515   9.675   3.743
74238SOL    HW224612   5.584   9.552   3.798
74239SOL     OW24613   7.243   7.251   8.066
74239SOL    HW124614   7.165   7.279   8.113
74239SOL    HW224615   7.316   7.288   8.116
74240SOL     OW24616   3.053   1.647   4.803
74240SOL    HW124617   3.076   1.575   4.862
74240SOL    HW224618   2.993   1.702   4.854
74241SOL     OW24619  12.579  12.439  13.236
74241SOL    HW124620  12.562  12.416  13.327
74241SOL    HW224621  12.594  12.354  13.193
74242SOL     OW24622   9.012   8.371   9.620
74242SOL    HW124623   9.000   8.426   9.542
74242SOL    HW224624   9.048   8.430   9.686
74243SOL     OW24625   5.898   5.854   0.483
74243SOL    HW124626   5.806   5.838   0.464
74243SOL    HW224627   5.921   5.930   0.428
74244SOL     OW24628   5.170   7.407   1.622
74244SOL    HW124629   5.220   7.437   1.547
74244SOL    HW224630   5.079   7.424   1.599
74245SOL     OW24631  12.049  10.802   2.537
74245SOL    HW124632  12.145  10.796   2.542
74245SOL    HW224633  12.028  10.889   2.570
74246SOL     OW24634   1.822   7.229  10.299
74246SOL    HW124635   1.785   7.163  10.239
74246SOL    HW224636   1.756   7.236  10.369
74247SOL     OW24637  13.306   0.005  12.159
74247SOL    HW124638  13.337  14.841  12.078
74247SOL    HW224639  13.224   0.048  12.136
74248SOL     OW24640  14.684  13.489  14.407
74248SOL    HW124641  14.687  13.407  14.358
74248SOL    HW224642  14.748  13.545  14.364
74249SOL     OW24643  10.714   8.842  10.984
74249SOL    HW124644  10.759   8.781  11.042
74249SOL    HW224645  10.783   8.897  10.947
74250SOL     OW24646   0.879   0.829   0.576
74250SOL    HW124647   0.786   0.810   0.563
74250SOL    HW224648   0.914   0.750   0.617
74251SOL     OW24649   3.444   6.536   5.589
74251SOL    HW124650   3.461   6.483   5.667
74251SOL    HW224651   3.526   6.584   5.574
74252SOL     OW24652   5.213  10.058   5.330
74252SOL    HW124653   5.232   9.992   5.397
74252SOL    HW224654   5.126  10.034   5.297
74253SOL     OW24655   9.330   5.992   8.171
74253SOL    HW124656   9.351   5.901   8.150
74253SOL    HW224657   9.239   6.003   8.145
74254SOL     OW24658  11.335   7.978   7.330
74254SOL    HW124659  11.413   8.029   7.305
74254SOL    HW224660  11.286   7.968   7.248
74255SOL     OW24661   0.643  14.262  12.118
74255SOL    HW124662   0.725  14.296  12.082
74255SOL    HW224663   0.631  14.178  12.073
74256SOL     OW24664   2.123  14.141  12.500
74256SOL    HW124665   2.083  14.227  12.489
74256SOL    HW224666   2.108  14.119  12.592
74257SOL     OW24667  11.488   1.294   7.580
74257SOL    HW124668  11.579   1.291   7.610
74257SOL    HW224669  11.488   1.243   7.499
74258SOL     OW24670   5.913  10.042   7.802
74258SOL    HW124671   5.897  10.114   7.863
74258SOL    HW224672   5.926   9.965   7.859
74259SOL     OW24673  13.785   5.472   9.227
74259SOL    HW124674  13.765   5.462   9.320
74259SOL    HW224675  13.785   5.567   9.213
74260SOL     OW24676   6.831   2.236   8.041
74260SOL    HW124677   6.872   2.261   7.959
74260SOL    HW224678   6.895   2.259   8.108
74261SOL     OW24679   2.315   5.577   5.143
74261SOL    HW124680   2.390   5.524   5.168
74261SOL    HW224681   2.253   5.515   5.104
74262SOL     OW24682  12.791   1.304   3.737
74262SOL    HW124683  12.719   1.310   3.674
74262SOL    HW224684  12.848   1.236   3.701
74263SOL     OW24685   7.205  13.189  11.397
74263SOL    HW124686   7.175  13.123  11.336
74263SOL    HW224687   7.290  13.218  11.363
74264SOL     OW24688   3.955  11.065   9.889
74264SOL    HW124689   3.974  10.978   9.855
74264SOL    HW224690   3.979  11.060   9.982
74265SOL     OW24691   3.369   1.322  12.539
74265SOL    HW124692   3.318   1.390  12.495
74265SOL    HW224693   3.343   1.328  12.631
74266SOL     OW24694   6.566   0.552   1.373
74266SOL    HW124695   6.609   0.477   1.416
74266SOL    HW224696   6.484   0.563   1.421
74267SOL     OW24697   2.489  14.206   7.917
74267SOL    HW124698   2.419  14.178   7.977
74267SOL    HW224699   2.474  14.155   7.838
74268SOL     OW24700   0.246   4.213   8.777
74268SOL    HW124701   0.156   4.227   8.748
74268SOL    HW224702   0.241   4.217   8.872
74269SOL     OW24703  10.397   3.017   2.895
74269SOL    HW124704  10.330   3.079   2.863
74269SOL    HW224705  10.351   2.934   2.903
74270SOL     OW24706   1.271   5.309   9.280
74270SOL    HW124707   1.258   5.298   9.374
74270SOL    HW224708   1.258   5.221   9.244
74271SOL     OW24709   9.351   0.018   0.794
74271SOL    HW124710   9.414   0.087   0.815
74271SOL    HW224711   9.398  14.811   0.811
74272SOL     OW24712  12.083   6.722   1.928
74272SOL    HW124713  12.127   6.765   1.855
74272SOL    HW224714  12.152   6.707   1.993
74273SOL     OW24715   9.106   0.280  13.569
74273SOL    HW124716   9.073   0.333  13.641
74273SOL    HW224717   9.028   0.242  13.529
74274SOL     OW24718   7.970   0.927  10.439
74274SOL    HW124719   7.885   0.903  10.475
74274SOL    HW224720   7.950   0.978  10.361
74275SOL     OW24721   3.642   3.057   2.308
74275SOL    HW124722   3.641   3.114   2.231
74275SOL    HW224723   3.625   3.116   2.381
74276SOL     OW24724   1.673   3.716  12.091
74276SOL    HW124725   1.693   3.641  12.147
74276SOL    HW224726   1.621   3.679  12.019
74277SOL     OW24727   1.335   8.534   1.674
74277SOL    HW124728   1.423   8.499   1.659
74277SOL    HW224729   1.339   8.623   1.640
74278SOL     OW24730   6.656  12.694   9.702
74278SOL    HW124731   6.671  12.659   9.614
74278SOL    HW224732   6.582  12.643   9.736
74279SOL     OW24733   8.076   4.023   4.191
74279SOL    HW124734   7.996   3.977   4.219
74279SOL    HW224735   8.093   4.086   4.260
74280SOL     OW24736   3.933   4.173  14.115
74280SOL    HW124737   3.953   4.112  14.044
74280SOL    HW224738   3.837   4.176  14.118
74281SOL     OW24739  14.138   0.936   6.017
74281SOL    HW124740  14.104   0.970   6.100
74281SOL    HW224741  14.219   0.891   6.041
74282SOL     OW24742   8.987   6.319  12.865
74282SOL    HW124743   9.072   6.360  12.879
74282SOL    HW224744   8.930   6.358  12.931
74283SOL     OW24745   3.936  13.253   9.770
74283SOL    HW124746   4.014  13.218   9.728
74283SOL    HW224747   3.864  13.226   9.713
74284SOL     OW24748   6.658  11.135  10.845
74284SOL    HW124749   6.595  11.198  10.810
74284SOL    HW224750   6.653  11.147  10.940
74285SOL     OW24751   6.272  14.145   8.883
74285SOL    HW124752   6.317  14.225   8.855
74285SOL    HW224753   6.202  14.176   8.941
74286SOL     OW24754   7.478  14.676   8.721
74286SOL    HW124755   7.493  14.695   8.813
74286SOL    HW224756   7.405  14.732   8.695
74287SOL     OW24757   5.888   6.406  12.877
74287SOL    HW124758   5.879   6.342  12.807
74287SOL    HW224759   5.982   6.422  12.883
74288SOL     OW24760   2.676   6.444   6.317
74288SOL    HW124761   2.677   6.428   6.411
74288SOL    HW224762   2.736   6.517   6.304
74289SOL     OW24763  13.026  11.879  13.751
74289SOL    HW124764  13.066  11.905  13.668
74289SOL    HW224765  13.059  11.790  13.767
74290SOL     OW24766  13.204   4.162   8.271
74290SOL    HW124767  13.197   4.186   8.363
74290SOL    HW224768  13.177   4.070   8.269
74291SOL     OW24769   8.613  12.941   9.987
74291SOL    HW124770   8.651  13.025  10.012
74291SOL    HW224771   8.530  12.963   9.946
74292SOL     OW24772  12.927  12.861   6.007
74292SOL    HW124773  12.911  12.870   6.101
74292SOL    HW224774  13.013  12.899   5.993
74293SOL     OW24775   4.483   4.725   0.088
74293SOL    HW124776   4.506   4.816   0.071
74293SOL    HW224777   4.389   4.719   0.069
74294SOL     OW24778  10.110   3.702  13.074
74294SOL    HW124779  10.112   3.671  12.984
74294SOL    HW224780  10.201   3.697  13.103
74295SOL     OW24781  12.102   5.750   8.056
74295SOL    HW124782  12.130   5.819   8.117
74295SOL    HW224783  12.127   5.782   7.970
74296SOL     OW24784   4.517   6.492   8.757
74296SOL    HW124785   4.455   6.537   8.815
74296SOL    HW224786   4.463   6.458   8.686
74297SOL     OW24787  10.095   1.301   1.754
74297SOL    HW124788  10.025   1.310   1.690
74297SOL    HW224789  10.095   1.385   1.802
74298SOL     OW24790   1.324   8.686  14.323
74298SOL    HW124791   1.330   8.747  14.396
74298SOL    HW224792   1.411   8.688  14.283
74299SOL     OW24793   5.519   9.498   4.200
74299SOL    HW124794   5.601   9.538   4.173
74299SOL    HW224795   5.460   9.571   4.219
74300SOL     OW24796  12.290  12.400  11.117
74300SOL    HW124797  12.372  12.374  11.161
74300SOL    HW224798  12.285  12.342  11.041
74301SOL     OW24799   4.471   0.200  10.815
74301SOL    HW124800   4.490   0.293  10.802
74301SOL    HW224801   4.458   0.165  10.727
74302SOL     OW24802  12.082  10.416   8.893
74302SOL    HW124803  12.150  10.452   8.836
74302SOL    HW224804  12.095  10.459   8.977
74303SOL     OW24805   8.829   7.128  14.447
74303SOL    HW124806   8.740   7.108  14.418
74303SOL    HW224807   8.832   7.099  14.538
74304SOL     OW24808   7.799   3.385   0.112
74304SOL    HW124809   7.814   3.434   0.031
74304SOL    HW224810   7.884   3.348   0.134
74305SOL     OW24811  14.574   8.531  10.794
74305SOL    HW124812  14.545   8.453  10.747
74305SOL    HW224813  14.637   8.573  10.736
74306SOL     OW24814  13.722  12.731  11.514
74306SOL    HW124815  13.676  12.695  11.590
74306SOL    HW224816  13.748  12.820  11.542
74307SOL     OW24817   3.741  10.958  10.047
74307SOL    HW124818   3.745  11.021   9.975
74307SOL    HW224819   3.655  10.973  10.087
74308SOL     OW24820  12.997   6.760  12.648
74308SOL    HW124821  12.904   6.751  12.628
74308SOL    HW224822  13.004   6.738  12.741
74309SOL     OW24823   9.395   0.520   7.106
74309SOL    HW124824   9.346   0.488   7.183
74309SOL    HW224825   9.479   0.548   7.142
74310SOL     OW24826  14.250  13.760  12.225
74310SOL    HW124827  14.305  13.823  12.270
74310SOL    HW224828  14.205  13.812  12.158
74311SOL     OW24829  14.259   8.503  10.083
74311SOL    HW124830  14.240   8.583  10.132
74311SOL    HW224831  14.246   8.527   9.991
74312SOL     OW24832   9.045   5.284   2.663
74312SOL    HW124833   8.994   5.348   2.613
74312SOL    HW224834   8.991   5.205   2.662
74313SOL     OW24835   0.180   4.503  12.765
74313SOL    HW124836   0.218   4.573  12.713
74313SOL    HW224837   0.145   4.441  12.701
74314SOL     OW24838  12.968   8.690  11.572
74314SOL    HW124839  13.040   8.674  11.633
74314SOL    HW224840  12.993   8.770  11.526
74315SOL     OW24841  10.695  13.336   5.876
74315SOL    HW124842  10.632  13.279   5.920
74315SOL    HW224843  10.647  13.372   5.801
74316SOL     OW24844   7.587  10.151  10.114
74316SOL    HW124845   7.522  10.221  10.126
74316SOL    HW224846   7.669  10.197  10.097
74317SOL     OW24847  11.474  12.913   3.181
74317SOL    HW124848  11.534  12.841   3.166
74317SOL    HW224849  11.387  12.872   3.186
74318SOL     OW24850   3.752   2.273   3.247
74318SOL    HW124851   3.722   2.244   3.161
74318SOL    HW224852   3.823   2.335   3.228
74319SOL     OW24853   4.801   7.335   1.929
74319SOL    HW124854   4.831   7.285   1.853
74319SOL    HW224855   4.745   7.274   1.978
74320SOL     OW24856  13.920  11.269   0.507
74320SOL    HW124857  14.009  11.298   0.488
74320SOL    HW224858  13.897  11.213   0.433
74321SOL     OW24859  11.484  11.802   8.814
74321SOL    HW124860  11.432  11.863   8.760
74321SOL    HW224861  11.422  11.734   8.839
74322SOL     OW24862   8.008   7.885   2.702
74322SOL    HW124863   7.973   7.911   2.616
74322SOL    HW224864   8.054   7.963   2.734
74323SOL     OW24865   7.904   1.981   5.027
74323SOL    HW124866   7.980   1.926   5.006
74323SOL    HW224867   7.934   2.039   5.097
74324SOL     OW24868   7.118   9.343  14.100
74324SOL    HW124869   7.131   9.434  14.127
74324SOL    HW224870   7.115   9.347  14.004
74325SOL     OW24871  10.073   3.752   5.398
74325SOL    HW124872  10.131   3.677   5.407
74325SOL    HW224873  10.035   3.764   5.484
74326SOL     OW24874   3.315   5.330   9.913
74326SOL    HW124875   3.326   5.411   9.962
74326SOL    HW224876   3.285   5.358   9.826
74327SOL     OW24877   3.204   5.673   0.203
74327SOL    HW124878   3.214   5.582   0.172
74327SOL    HW224879   3.293   5.708   0.204
74328SOL     OW24880   5.391   1.174   2.738
74328SOL    HW124881   5.408   1.156   2.831
74328SOL    HW224882   5.474   1.207   2.704
74329SOL     OW24883   7.215   6.546  13.678
74329SOL    HW124884   7.305   6.578  13.666
74329SOL    HW224885   7.167   6.621  13.713
74330SOL     OW24886   2.771   9.187   5.370
74330SOL    HW124887   2.702   9.232   5.321
74330SOL    HW224888   2.724   9.124   5.424
74331SOL     OW24889   9.222   5.729   3.236
74331SOL    HW124890   9.217   5.824   3.249
74331SOL    HW224891   9.284   5.699   3.302
74332SOL     OW24892  12.668   6.172   3.007
74332SOL    HW124893  12.763   6.186   3.016
74332SOL    HW224894  12.659   6.110   2.936
74333SOL     OW24895  10.670  12.149  14.430
74333SOL    HW124896  10.688  12.056  14.447
74333SOL    HW224897  10.690  12.192  14.513
74334SOL     OW24898  14.058  13.042   6.280
74334SOL    HW124899  14.111  12.975   6.236
74334SOL    HW224900  14.038  13.004   6.365
74335SOL     OW24901   9.963  11.703  11.896
74335SOL    HW124902   9.959  11.770  11.827
74335SOL    HW224903   9.878  11.709  11.939
74336SOL     OW24904  11.500   0.905   6.779
74336SOL    HW124905  11.539   0.931   6.863
74336SOL    HW224906  11.448   0.981   6.753
74337SOL     OW24907  10.380   2.947   4.236
74337SOL    HW124908  10.309   2.910   4.288
74337SOL    HW224909  10.446   2.973   4.300
74338SOL     OW24910   9.334   4.844   4.539
74338SOL    HW124911   9.289   4.820   4.620
74338SOL    HW224912   9.263   4.861   4.477
74339SOL     OW24913  10.148  13.743   6.157
74339SOL    HW124914  10.139  13.745   6.062
74339SOL    HW224915  10.237  13.774   6.174
74340SOL     OW24916   5.749  14.778  10.693
74340SOL    HW124917   5.720  14.849  10.750
74340SOL    HW224918   5.674  14.720  10.687
74341SOL     OW24919  12.696  14.735   8.200
74341SOL    HW124920  12.697  14.675   8.275
74341SOL    HW224921  12.662  14.817   8.237
74342SOL     OW24922   4.260  10.653   0.875
74342SOL    HW124923   4.273  10.686   0.964
74342SOL    HW224924   4.286  10.725   0.818
74343SOL     OW24925  12.605  12.538   7.655
74343SOL    HW124926  12.675  12.548   7.719
74343SOL    HW224927  12.627  12.459   7.606
74344SOL     OW24928  13.180   7.176   4.026
74344SOL    HW124929  13.131   7.255   4.000
74344SOL    HW224930  13.174   7.175   4.121
74345SOL     OW24931   2.794   7.441  11.688
74345SOL    HW124932   2.744   7.483  11.619
74345SOL    HW224933   2.775   7.492  11.767
74346SOL     OW24934  11.259  10.488  10.091
74346SOL    HW124935  11.330  10.431  10.058
74346SOL    HW224936  11.238  10.452  10.177
74347SOL     OW24937   2.818   9.193   4.260
74347SOL    HW124938   2.889   9.221   4.318
74347SOL    HW224939   2.847   9.108   4.227
74348SOL     OW24940   9.516  13.055   3.555
74348SOL    HW124941   9.531  13.103   3.474
74348SOL    HW224942   9.478  13.120   3.615
74349SOL     OW24943  11.044   9.858  10.369
74349SOL    HW124944  10.959   9.869  10.327
74349SOL    HW224945  11.106   9.899  10.308
74350SOL     OW24946   6.487   0.671   8.545
74350SOL    HW124947   6.398   0.687   8.576
74350SOL    HW224948   6.489   0.577   8.528
74351SOL     OW24949   2.560   1.740   6.822
74351SOL    HW124950   2.545   1.656   6.778
74351SOL    HW224951   2.655   1.748   6.827
74352SOL     OW24952  14.810  10.917   4.719
74352SOL    HW124953  14.865  10.882   4.789
74352SOL    HW224954  14.854  10.892   4.638
74353SOL     OW24955   3.542   8.974  14.812
74353SOL    HW124956   3.555   9.033   0.011
74353SOL    HW224957   3.629   8.936  14.796
74354SOL     OW24958   1.052   4.329   4.855
74354SOL    HW124959   1.137   4.341   4.813
74354SOL    HW224960   1.011   4.415   4.851
74355SOL     OW24961   2.017  11.737   8.612
74355SOL    HW124962   2.003  11.746   8.517
74355SOL    HW224963   2.074  11.661   8.620
74356SOL     OW24964   7.119   7.472  12.575
74356SOL    HW124965   7.029   7.477  12.607
74356SOL    HW224966   7.173   7.464  12.654
74357SOL     OW24967  11.027   1.387  11.716
74357SOL    HW124968  11.101   1.338  11.751
74357SOL    HW224969  10.990   1.331  11.648
74358SOL     OW24970  14.742   0.914   5.812
74358SOL    HW124971  14.777   0.835   5.770
74358SOL    HW224972  14.730   0.889   5.903
74359SOL     OW24973   9.506  13.681  12.947
74359SOL    HW124974   9.539  13.762  12.907
74359SOL    HW224975   9.473  13.708  13.033
74360SOL     OW24976   6.284   3.014  12.873
74360SOL    HW124977   6.254   3.093  12.828
74360SOL    HW224978   6.211   2.989  12.929
74361SOL     OW24979  10.288  13.182   7.812
74361SOL    HW124980  10.201  13.216   7.789
74361SOL    HW224981  10.347  13.220   7.747
74362SOL     OW24982  10.052   5.729   2.414
74362SOL    HW124983  10.002   5.804   2.382
74362SOL    HW224984  10.133   5.731   2.362
74363SOL     OW24985  10.736   2.064   4.857
74363SOL    HW124986  10.754   1.987   4.911
74363SOL    HW224987  10.769   2.137   4.909
74364SOL     OW24988   1.428  12.398   4.845
74364SOL    HW124989   1.471  12.436   4.768
74364SOL    HW224990   1.501  12.374   4.903
74365SOL     OW24991   7.377   3.293  11.339
74365SOL    HW124992   7.367   3.256  11.426
74365SOL    HW224993   7.380   3.388  11.353
74366SOL     OW24994   1.249  11.509   8.628
74366SOL    HW124995   1.310  11.559   8.574
74366SOL    HW224996   1.301  11.479   8.702
74367SOL     OW24997   0.911   8.065   9.281
74367SOL    HW124998   0.835   8.008   9.269
74367SOL    HW224999   0.970   8.015   9.338
74368SOL     OW25000   2.972   2.903   2.972
74368SOL    HW125001   3.052   2.852   2.957
74368SOL    HW225002   3.001   2.976   3.027
74369SOL     OW25003   8.232  10.840   7.209
74369SOL    HW125004   8.213  10.827   7.302
74369SOL    HW225005   8.307  10.899   7.207
74370SOL     OW25006   9.803   9.941   6.354
74370SOL    HW125007   9.881   9.906   6.311
74370SOL    HW225008   9.837   9.991   6.428
74371SOL     OW25009   9.321  12.876  11.157
74371SOL    HW125010   9.331  12.872  11.252
74371SOL    HW225011   9.384  12.942  11.129
74372SOL     OW25012   7.823   4.547  10.709
74372SOL    HW125013   7.732   4.520  10.722
74372SOL    HW225014   7.821   4.643  10.713
74373SOL     OW25015   2.371   4.426   6.465
74373SOL    HW125016   2.376   4.387   6.552
74373SOL    HW225017   2.452   4.477   6.457
74374SOL     OW25018  12.328   3.089   3.873
74374SOL    HW125019  12.366   3.021   3.817
74374SOL    HW225020  12.242   3.055   3.897
74375SOL     OW25021  14.115   4.094   5.467
74375SOL    HW125022  14.199   4.122   5.504
74375SOL    HW225023  14.117   4.128   5.377
74376SOL     OW25024  14.732  14.374   7.842
74376SOL    HW125025  14.701  14.329   7.763
74376SOL    HW225026  14.679  14.454   7.847
74377SOL     OW25027   5.556  12.709   2.805
74377SOL    HW125028   5.637  12.686   2.759
74377SOL    HW225029   5.489  12.709   2.737
74378SOL     OW25030  12.694  14.135   6.761
74378SOL    HW125031  12.753  14.209   6.763
74378SOL    HW225032  12.647  14.144   6.678
74379SOL     OW25033   3.721   8.050   5.754
74379SOL    HW125034   3.763   8.123   5.708
74379SOL    HW225035   3.790   7.985   5.763
74380SOL     OW25036  11.482   7.063   2.916
74380SOL    HW125037  11.401   7.032   2.877
74380SOL    HW225038  11.542   7.071   2.842
74381SOL     OW25039   9.397  13.149  10.199
74381SOL    HW125040   9.340  13.104  10.261
74381SOL    HW225041   9.445  13.213  10.252
74382SOL     OW25042  14.072   2.398  14.342
74382SOL    HW125043  14.147   2.452  14.363
74382SOL    HW225044  14.054   2.416  14.250
74383SOL     OW25045   1.770  10.293   8.462
74383SOL    HW125046   1.746  10.382   8.487
74383SOL    HW225047   1.852  10.276   8.509
74384SOL     OW25048   5.632   9.311   6.555
74384SOL    HW125049   5.662   9.240   6.498
74384SOL    HW225050   5.549   9.279   6.591
74385SOL     OW25051   2.573   8.997   8.076
74385SOL    HW125052   2.493   9.025   8.031
74385SOL    HW225053   2.546   8.922   8.129
74386SOL     OW25054   2.199   5.377   2.629
74386SOL    HW125055   2.216   5.312   2.561
74386SOL    HW225056   2.193   5.460   2.582
74387SOL     OW25057  14.579  14.591   7.820
74387SOL    HW125058  14.567  14.653   7.892
74387SOL    HW225059  14.544  14.636   7.744
74388SOL     OW25060   9.905  10.237   2.630
74388SOL    HW125061   9.896  10.148   2.597
74388SOL    HW225062  10.000  10.253   2.630
74389SOL     OW25063  11.005   7.550  14.622
74389SOL    HW125064  11.013   7.459  14.593
74389SOL    HW225065  10.912   7.570  14.616
74390SOL     OW25066   9.556   8.423  13.579
74390SOL    HW125067   9.588   8.385  13.497
74390SOL    HW225068   9.617   8.392  13.645
74391SOL     OW25069   7.601   8.340   5.180
74391SOL    HW125070   7.605   8.297   5.265
74391SOL    HW225071   7.613   8.433   5.199
74392SOL     OW25072   9.283   0.084  14.030
74392SOL    HW125073   9.318   0.173  14.029
74392SOL    HW225074   9.191   0.095  14.006
74393SOL     OW25075  11.419  14.355   3.044
74393SOL    HW125076  11.499  14.383   3.001
74393SOL    HW225077  11.394  14.275   2.998
74394SOL     OW25078   1.631  11.134   4.342
74394SOL    HW125079   1.660  11.101   4.427
74394SOL    HW225080   1.687  11.211   4.326
74395SOL     OW25081  12.690   9.083   4.870
74395SOL    HW125082  12.780   9.093   4.903
74395SOL    HW225083  12.648   9.166   4.889
74396SOL     OW25084   4.811  11.178   4.500
74396SOL    HW125085   4.840  11.261   4.461
74396SOL    HW225086   4.720  11.170   4.472
74397SOL     OW25087  13.328  14.561   2.945
74397SOL    HW125088  13.354  14.649   2.973
74397SOL    HW225089  13.258  14.537   3.006
74398SOL     OW25090   3.387   0.563   5.337
74398SOL    HW125091   3.437   0.624   5.284
74398SOL    HW225092   3.335   0.618   5.395
74399SOL     OW25093   4.023   8.553   8.828
74399SOL    HW125094   4.088   8.482   8.824
74399SOL    HW225095   3.947   8.514   8.871
74400SOL     OW25096   0.472   5.873   1.178
74400SOL    HW125097   0.513   5.856   1.093
74400SOL    HW225098   0.475   5.790   1.224
74401SOL     OW25099   2.139   2.498   7.105
74401SOL    HW125100   2.092   2.573   7.142
74401SOL    HW225101   2.214   2.485   7.163
74402SOL     OW25102   4.333  10.150  11.634
74402SOL    HW125103   4.417  10.123  11.598
74402SOL    HW225104   4.351  10.167  11.727
74403SOL     OW25105   5.052   5.864   0.212
74403SOL    HW125106   5.008   5.947   0.196
74403SOL    HW225107   4.982   5.799   0.210
74404SOL     OW25108  10.715   1.130   3.360
74404SOL    HW125109  10.685   1.104   3.447
74404SOL    HW225110  10.676   1.216   3.346
74405SOL     OW25111  10.591   1.144   2.409
74405SOL    HW125112  10.591   1.080   2.337
74405SOL    HW225113  10.542   1.219   2.375
74406SOL     OW25114   8.111  14.411   3.155
74406SOL    HW125115   8.097  14.474   3.225
74406SOL    HW225116   8.195  14.369   3.176
74407SOL     OW25117  10.586  13.477   3.854
74407SOL    HW125118  10.589  13.572   3.866
74407SOL    HW225119  10.659  13.444   3.906
74408SOL     OW25120  12.768   7.256   0.246
74408SOL    HW125121  12.733   7.185   0.192
74408SOL    HW225122  12.862   7.239   0.251
74409SOL     OW25123   3.110  12.085   2.300
74409SOL    HW125124   3.130  12.047   2.214
74409SOL    HW225125   3.090  12.177   2.283
74410SOL     OW25126   6.439  11.035   0.915
74410SOL    HW125127   6.352  10.998   0.928
74410SOL    HW225128   6.429  11.128   0.933
74411SOL     OW25129  14.135   4.409   9.894
74411SOL    HW125130  14.171   4.401   9.983
74411SOL    HW225131  14.046   4.373   9.902
74412SOL     OW25132   2.844   6.144   0.441
74412SOL    HW125133   2.886   6.221   0.403
74412SOL    HW225134   2.821   6.090   0.366
74413SOL     OW25135   7.025   1.756  12.843
74413SOL    HW125136   7.018   1.694  12.916
74413SOL    HW225137   7.099   1.724  12.792
74414SOL     OW25138   0.410  10.842  12.993
74414SOL    HW125139   0.492  10.879  12.961
74414SOL    HW225140   0.428  10.749  13.007
74415SOL     OW25141   0.494   5.555   7.290
74415SOL    HW125142   0.504   5.506   7.372
74415SOL    HW225143   0.424   5.510   7.243
74416SOL     OW25144   1.626   5.674   4.086
74416SOL    HW125145   1.579   5.742   4.037
74416SOL    HW225146   1.583   5.674   4.172
74417SOL     OW25147   3.904   4.779   2.994
74417SOL    HW125148   3.992   4.754   3.020
74417SOL    HW225149   3.913   4.867   2.957
74418SOL     OW25150   0.623   0.467   2.391
74418SOL    HW125151   0.706   0.505   2.362
74418SOL    HW225152   0.593   0.524   2.461
74419SOL     OW25153   8.824  12.116   2.463
74419SOL    HW125154   8.782  12.040   2.425
74419SOL    HW225155   8.900  12.081   2.510
74420SOL     OW25156   0.144  14.038   0.395
74420SOL    HW125157   0.199  14.002   0.465
74420SOL    HW225158   0.076  14.087   0.441
74421SOL     OW25159   1.432   5.958   1.689
74421SOL    HW125160   1.362   6.015   1.656
74421SOL    HW225161   1.389   5.874   1.703
74422SOL     OW25162   9.160  10.834  14.822
74422SOL    HW125163   9.067  10.831  14.846
74422SOL    HW225164   9.179  10.927  14.811
74423SOL     OW25165   9.337   2.177   2.714
74423SOL    HW125166   9.319   2.191   2.807
74423SOL    HW225167   9.388   2.096   2.712
74424SOL     OW25168   2.152  12.421   9.548
74424SOL    HW125169   2.214  12.465   9.490
74424SOL    HW225170   2.084  12.386   9.489
74425SOL     OW25171   0.399  12.145  14.742
74425SOL    HW125172   0.325  12.196  14.775
74425SOL    HW225173   0.474  12.205  14.747
74426SOL     OW25174  10.846   9.867  12.956
74426SOL    HW125175  10.934   9.858  12.991
74426SOL    HW225176  10.843   9.956  12.920
74427SOL     OW25177   2.684   4.231   3.626
74427SOL    HW125178   2.779   4.218   3.618
74427SOL    HW225179   2.654   4.239   3.536
74428SOL     OW25180   4.515   0.093   5.389
74428SOL    HW125181   4.492   0.016   5.337
74428SOL    HW225182   4.531   0.058   5.477
74429SOL     OW25183  13.853   6.545   0.702
74429SOL    HW125184  13.936   6.584   0.726
74429SOL    HW225185  13.830   6.587   0.619
74430SOL     OW25186   5.994   2.246   8.131
74430SOL    HW125187   5.934   2.173   8.115
74430SOL    HW225188   6.035   2.262   8.046
74431SOL     OW25189   9.395   8.375   4.012
74431SOL    HW125190   9.426   8.465   4.019
74431SOL    HW225191   9.313   8.382   3.963
74432SOL     OW25192  12.365   8.952   1.685
74432SOL    HW125193  12.281   8.905   1.691
74432SOL    HW225194  12.354   9.028   1.741
74433SOL     OW25195  10.768  12.902  13.906
74433SOL    HW125196  10.747  12.966  13.837
74433SOL    HW225197  10.694  12.904  13.965
74434SOL     OW25198  11.868   5.675   4.130
74434SOL    HW125199  11.860   5.763   4.093
74434SOL    HW225200  11.920   5.688   4.210
74435SOL     OW25201  12.020   7.329   4.110
74435SOL    HW125202  12.092   7.360   4.166
74435SOL    HW225203  12.039   7.237   4.094
74436SOL     OW25204  14.267  11.227   9.702
74436SOL    HW125205  14.245  11.141   9.667
74436SOL    HW225206  14.193  11.249   9.759
74437SOL     OW25207   6.794   8.668   9.416
74437SOL    HW125208   6.858   8.676   9.345
74437SOL    HW225209   6.828   8.725   9.485
74438SOL     OW25210   5.382  11.109  12.561
74438SOL    HW125211   5.472  11.141  12.568
74438SOL    HW225212   5.364  11.110  12.467
74439SOL     OW25213   7.889   3.173   4.940
74439SOL    HW125214   7.952   3.170   5.012
74439SOL    HW225215   7.940   3.200   4.864
74440SOL     OW25216  11.911  11.739   2.436
74440SOL    HW125217  11.944  11.816   2.389
74440SOL    HW225218  11.972  11.669   2.413
74441SOL     OW25219   2.412   7.501   5.019
74441SOL    HW125220   2.383   7.414   5.047
74441SOL    HW225221   2.332   7.545   4.990
74442SOL     OW25222   4.275   9.747  11.209
74442SOL    HW125223   4.278   9.657  11.174
74442SOL    HW225224   4.205   9.790  11.159
74443SOL     OW25225   8.194   2.608   8.282
74443SOL    HW125226   8.218   2.589   8.372
74443SOL    HW225227   8.277   2.622   8.237
74444SOL     OW25228   7.825   0.872   8.641
74444SOL    HW125229   7.852   0.791   8.597
74444SOL    HW225230   7.857   0.863   8.730
74445SOL     OW25231   2.569   7.997   6.735
74445SOL    HW125232   2.480   7.969   6.754
74445SOL    HW225233   2.561   8.051   6.657
74446SOL     OW25234   3.076  13.052  11.888
74446SOL    HW125235   3.117  13.050  11.801
74446SOL    HW225236   3.104  13.135  11.925
74447SOL     OW25237  10.461   8.056   1.946
74447SOL    HW125238  10.547   8.027   1.918
74447SOL    HW225239  10.460   8.150   1.928
74448SOL     OW25240   5.646   5.640  14.470
74448SOL    HW125241   5.734   5.626  14.504
74448SOL    HW225242   5.592   5.576  14.516
74449SOL     OW25243  14.458   8.875   6.360
74449SOL    HW125244  14.447   8.815   6.286
74449SOL    HW225245  14.549   8.862   6.387
74450SOL     OW25246   4.113   2.376   4.898
74450SOL    HW125247   4.063   2.340   4.825
74450SOL    HW225248   4.146   2.460   4.866
74451SOL     OW25249  12.897   3.224  12.622
74451SOL    HW125250  12.946   3.193  12.546
74451SOL    HW225251  12.961   3.225  12.694
74452SOL     OW25252  11.179   5.151   6.929
74452SOL    HW125253  11.123   5.184   6.999
74452SOL    HW225254  11.126   5.087   6.883
74453SOL     OW25255   6.811   5.775  10.480
74453SOL    HW125256   6.855   5.850  10.520
74453SOL    HW225257   6.791   5.804  10.391
74454SOL     OW25258   8.643   9.503   0.717
74454SOL    HW125259   8.721   9.470   0.674
74454SOL    HW225260   8.572   9.489   0.654
74455SOL     OW25261  14.208   1.667   0.043
74455SOL    HW125262  14.169   1.580   0.053
74455SOL    HW225263  14.162   1.706  14.844
74456SOL     OW25264   4.352   2.771   3.538
74456SOL    HW125265   4.332   2.733   3.623
74456SOL    HW225266   4.382   2.860   3.558
74457SOL     OW25267   8.548   1.560   3.724
74457SOL    HW125268   8.614   1.589   3.661
74457SOL    HW225269   8.567   1.467   3.737
74458SOL     OW25270   0.588   6.014  14.605
74458SOL    HW125271   0.638   6.056  14.674
74458SOL    HW225272   0.588   6.077  14.533
74459SOL     OW25273   6.460   0.514   1.072
74459SOL    HW125274   6.512   0.449   1.024
74459SOL    HW225275   6.423   0.466   1.146
74460SOL     OW25276   9.602   8.917  13.938
74460SOL    HW125277   9.656   8.842  13.913
74460SOL    HW225278   9.614   8.980  13.867
74461SOL     OW25279   4.269   6.360   5.250
74461SOL    HW125280   4.278   6.435   5.309
74461SOL    HW225281   4.345   6.305   5.270
74462SOL     OW25282   1.303   3.903   2.041
74462SOL    HW125283   1.381   3.947   2.008
74462SOL    HW225284   1.335   3.822   2.080
74463SOL     OW25285   8.331  13.948  12.123
74463SOL    HW125286   8.330  13.885  12.194
74463SOL    HW225287   8.343  13.896  12.044
74464SOL     OW25288   3.916   0.697   5.514
74464SOL    HW125289   3.858   0.771   5.535
74464SOL    HW225290   3.966   0.727   5.439
74465SOL     OW25291   3.575  13.860  11.656
74465SOL    HW125292   3.603  13.843  11.746
74465SOL    HW225293   3.631  13.932  11.627
74466SOL     OW25294   7.540   9.361   7.850
74466SOL    HW125295   7.490   9.376   7.930
74466SOL    HW225296   7.533   9.443   7.802
74467SOL     OW25297   6.744   2.764   2.706
74467SOL    HW125298   6.814   2.721   2.756
74467SOL    HW225299   6.732   2.708   2.629
74468SOL     OW25300   7.641   0.486   4.254
74468SOL    HW125301   7.698   0.423   4.210
74468SOL    HW225302   7.647   0.565   4.201
74469SOL     OW25303  10.482   4.484   2.666
74469SOL    HW125304  10.459   4.562   2.616
74469SOL    HW225305  10.570   4.502   2.698
74470SOL     OW25306  13.224   9.840   6.489
74470SOL    HW125307  13.169   9.918   6.477
74470SOL    HW225308  13.177   9.787   6.552
74471SOL     OW25309   7.228   6.994  10.110
74471SOL    HW125310   7.136   6.970  10.119
74471SOL    HW225311   7.267   6.969  10.193
74472SOL     OW25312   3.084   9.765   9.206
74472SOL    HW125313   2.999   9.803   9.185
74472SOL    HW225314   3.065   9.697   9.270
74473SOL     OW25315   4.808  11.519   8.218
74473SOL    HW125316   4.821  11.572   8.297
74473SOL    HW225317   4.837  11.432   8.243
74474SOL     OW25318  10.150  10.459  12.328
74474SOL    HW125319  10.151  10.552  12.349
74474SOL    HW225320  10.241  10.438  12.307
74475SOL     OW25321   0.965  13.085   5.289
74475SOL    HW125322   0.943  13.060   5.378
74475SOL    HW225323   0.908  13.159   5.269
74476SOL     OW25324   4.666  14.246  11.380
74476SOL    HW125325   4.627  14.219  11.462
74476SOL    HW225326   4.753  14.206  11.380
74477SOL     OW25327   3.901   8.722   1.613
74477SOL    HW125328   3.933   8.711   1.702
74477SOL    HW225329   3.812   8.687   1.615
74478SOL     OW25330  10.518  10.651   3.852
74478SOL    HW125331  10.427  10.659   3.880
74478SOL    HW225332  10.529  10.720   3.787
74479SOL     OW25333   0.826   8.765   4.253
74479SOL    HW125334   0.860   8.718   4.329
74479SOL    HW225335   0.879   8.846   4.250
74480SOL     OW25336  12.574   3.545   5.453
74480SOL    HW125337  12.624   3.562   5.533
74480SOL    HW225338  12.523   3.466   5.473
74481SOL     OW25339   2.204  12.129   9.601
74481SOL    HW125340   2.148  12.101   9.529
74481SOL    HW225341   2.155  12.199   9.644
74482SOL     OW25342   8.106   4.031   4.752
74482SOL    HW125343   8.056   3.995   4.678
74482SOL    HW225344   8.179   3.970   4.763
74483SOL     OW25345  14.678   4.506   5.357
74483SOL    HW125346  14.641   4.523   5.270
74483SOL    HW225347  14.772   4.497   5.342
74484SOL     OW25348   6.106  13.845  11.624
74484SOL    HW125349   6.083  13.869  11.713
74484SOL    HW225350   6.029  13.868  11.572
74485SOL     OW25351   2.913  11.009  13.790
74485SOL    HW125352   2.866  11.062  13.725
74485SOL    HW225353   2.918  10.922  13.751
74486SOL     OW25354  12.827   5.692   7.309
74486SOL    HW125355  12.796   5.602   7.306
74486SOL    HW225356  12.923   5.685   7.306
74487SOL     OW25357   3.084   7.116  11.008
74487SOL    HW125358   3.154   7.058  11.040
74487SOL    HW225359   3.005   7.086  11.052
74488SOL     OW25360   4.994  12.413  12.750
74488SOL    HW125361   5.053  12.370  12.688
74488SOL    HW225362   4.994  12.356  12.827
74489SOL     OW25363   4.274  10.506   4.534
74489SOL    HW125364   4.333  10.433   4.515
74489SOL    HW225365   4.332  10.578   4.558
74490SOL     OW25366   8.696   1.935   6.041
74490SOL    HW125367   8.628   1.977   5.989
74490SOL    HW225368   8.701   1.988   6.121
74491SOL     OW25369   3.297   9.765  12.385
74491SOL    HW125370   3.363   9.819  12.429
74491SOL    HW225371   3.279   9.811  12.303
74492SOL     OW25372   4.942   1.876  13.440
74492SOL    HW125373   4.853   1.842  13.434
74492SOL    HW225374   4.942   1.954  13.385
74493SOL     OW25375   4.956  11.763   2.389
74493SOL    HW125376   4.911  11.737   2.309
74493SOL    HW225377   5.014  11.690   2.409
74494SOL     OW25378   9.534  13.478   3.215
74494SOL    HW125379   9.510  13.561   3.255
74494SOL    HW225380   9.484  13.475   3.133
74495SOL     OW25381  13.435   4.030  12.486
74495SOL    HW125382  13.380   3.953  12.472
74495SOL    HW225383  13.406   4.093  12.421
74496SOL     OW25384  14.209  14.255   1.305
74496SOL    HW125385  14.241  14.321   1.366
74496SOL    HW225386  14.179  14.183   1.360
74497SOL     OW25387   7.758  13.851   8.509
74497SOL    HW125388   7.806  13.874   8.430
74497SOL    HW225389   7.785  13.917   8.573
74498SOL     OW25390   0.358   4.367  12.150
74498SOL    HW125391   0.340   4.314  12.228
74498SOL    HW225392   0.272   4.383  12.112
74499SOL     OW25393   4.171   8.266   7.371
74499SOL    HW125394   4.192   8.252   7.278
74499SOL    HW225395   4.084   8.227   7.382
74500SOL     OW25396   6.608   9.953   8.965
74500SOL    HW125397   6.540   9.917   9.022
74500SOL    HW225398   6.561  10.009   8.904
74501SOL     OW25399   8.500  14.412  12.219
74501SOL    HW125400   8.576  14.442  12.270
74501SOL    HW225401   8.538  14.359  12.149
74502SOL     OW25402   0.684  12.047   5.057
74502SOL    HW125403   0.665  11.962   5.017
74502SOL    HW225404   0.626  12.052   5.132
74503SOL     OW25405   1.710  13.326  10.935
74503SOL    HW125406   1.781  13.355  10.877
74503SOL    HW225407   1.754  13.271  11.000
74504SOL     OW25408  11.572   0.842   5.555
74504SOL    HW125409  11.643   0.782   5.535
74504SOL    HW225410  11.601   0.888   5.635
74505SOL     OW25411  13.952   4.681  10.410
74505SOL    HW125412  13.899   4.618  10.360
74505SOL    HW225413  14.002   4.627  10.471
74506SOL     OW25414   2.789  14.165   7.647
74506SOL    HW125415   2.862  14.154   7.586
74506SOL    HW225416   2.818  14.122   7.727
74507SOL     OW25417   9.929   9.284   7.868
74507SOL    HW125418   9.866   9.259   7.935
74507SOL    HW225419  10.005   9.227   7.884
74508SOL     OW25420   7.284  10.051   3.481
74508SOL    HW125421   7.195  10.031   3.453
74508SOL    HW225422   7.327   9.965   3.490
74509SOL     OW25423  11.302   5.325  14.284
74509SOL    HW125424  11.265   5.343  14.198
74509SOL    HW225425  11.322   5.231  14.283
74510SOL     OW25426   1.642   4.004   7.999
74510SOL    HW125427   1.598   4.089   8.003
74510SOL    HW225428   1.731   4.021   8.031
74511SOL     OW25429   7.942   9.802   7.472
74511SOL    HW125430   7.936   9.780   7.379
74511SOL    HW225431   7.904   9.727   7.517
74512SOL     OW25432   5.191  10.320   4.809
74512SOL    HW125433   5.184  10.374   4.730
74512SOL    HW225434   5.157  10.235   4.782
74513SOL     OW25435   0.718  10.650  13.306
74513SOL    HW125436   0.708  10.555  13.306
74513SOL    HW225437   0.794  10.665  13.249
74514SOL     OW25438   9.473   6.492   1.860
74514SOL    HW125439   9.449   6.584   1.863
74514SOL    HW225440   9.410   6.453   1.799
74515SOL     OW25441   1.715   7.200   5.997
74515SOL    HW125442   1.753   7.139   5.935
74515SOL    HW225443   1.629   7.163   6.019
74516SOL     OW25444  10.452   2.040  12.906
74516SOL    HW125445  10.398   2.052  12.827
74516SOL    HW225446  10.498   1.958  12.892
74517SOL     OW25447   3.498   1.681   9.699
74517SOL    HW125448   3.410   1.666   9.665
74517SOL    HW225449   3.537   1.593   9.702
74518SOL     OW25450   7.910  11.079   7.134
74518SOL    HW125451   7.848  11.086   7.206
74518SOL    HW225452   7.873  11.133   7.064
74519SOL     OW25453   0.224   1.038  10.390
74519SOL    HW125454   0.249   0.959  10.437
74519SOL    HW225455   0.230   1.108  10.455
74520SOL     OW25456   8.191   2.740  14.613
74520SOL    HW125457   8.279   2.770  14.637
74520SOL    HW225458   8.140   2.749  14.693
74521SOL     OW25459  13.507   5.244   2.189
74521SOL    HW125460  13.413   5.261   2.193
74521SOL    HW225461  13.546   5.313   2.242
74522SOL     OW25462   0.860  13.449  11.218
74522SOL    HW125463   0.805  13.396  11.160
74522SOL    HW225464   0.949  13.431  11.188
74523SOL     OW25465  11.880  11.926   0.684
74523SOL    HW125466  11.828  11.856   0.645
74523SOL    HW225467  11.896  11.987   0.611
74524SOL     OW25468  10.213   5.017   0.851
74524SOL    HW125469  10.173   4.998   0.766
74524SOL    HW225470  10.142   5.005   0.914
74525SOL     OW25471   3.645   7.412   6.698
74525SOL    HW125472   3.562   7.459   6.691
74525SOL    HW225473   3.669   7.421   6.791
74526SOL     OW25474   7.840   1.270   8.221
74526SOL    HW125475   7.836   1.203   8.153
74526SOL    HW225476   7.827   1.221   8.303
74527SOL     OW25477  12.667   0.500   7.257
74527SOL    HW125478  12.672   0.473   7.348
74527SOL    HW225479  12.701   0.590   7.257
74528SOL     OW25480  14.484  11.883   7.753
74528SOL    HW125481  14.561  11.849   7.797
74528SOL    HW225482  14.514  11.909   7.666
74529SOL     OW25483   9.165   8.851   1.515
74529SOL    HW125484   9.175   8.945   1.498
74529SOL    HW225485   9.077   8.843   1.551
74530SOL     OW25486  10.962   5.564  14.429
74530SOL    HW125487  10.928   5.479  14.402
74530SOL    HW225488  10.903   5.628  14.389
74531SOL     OW25489   7.171  14.772   7.699
74531SOL    HW125490   7.114  14.800   7.771
74531SOL    HW225491   7.188  14.852   7.650
74532SOL     OW25492   2.553   4.527   6.916
74532SOL    HW125493   2.640   4.524   6.955
74532SOL    HW225494   2.513   4.606   6.953
74533SOL     OW25495   1.299   8.809   9.073
74533SOL    HW125496   1.335   8.871   9.010
74533SOL    HW225497   1.210   8.840   9.090
74534SOL     OW25498  11.394  10.396  12.967
74534SOL    HW125499  11.376  10.472  13.022
74534SOL    HW225500  11.330  10.402  12.896
74535SOL     OW25501   2.539   6.205   6.449
74535SOL    HW125502   2.522   6.256   6.370
74535SOL    HW225503   2.538   6.269   6.520
74536SOL     OW25504   1.594  14.558   4.121
74536SOL    HW125505   1.500  14.562   4.142
74536SOL    HW225506   1.630  14.639   4.156
74537SOL     OW25507   9.677  13.900   1.789
74537SOL    HW125508   9.627  13.931   1.864
74537SOL    HW225509   9.765  13.884   1.823
74538SOL     OW25510   9.561   4.280   1.375
74538SOL    HW125511   9.648   4.308   1.404
74538SOL    HW225512   9.506   4.287   1.454
74539SOL     OW25513   7.848   0.944   7.670
74539SOL    HW125514   7.898   0.903   7.600
74539SOL    HW225515   7.844   0.878   7.739
74540SOL     OW25516   3.337  11.216   6.895
74540SOL    HW125517   3.379  11.243   6.977
74540SOL    HW225518   3.340  11.121   6.898
74541SOL     OW25519  12.535  10.844   0.546
74541SOL    HW125520  12.544  10.770   0.606
74541SOL    HW225521  12.591  10.821   0.472
74542SOL     OW25522   1.109   8.072  11.496
74542SOL    HW125523   1.116   8.078  11.401
74542SOL    HW225524   1.081   7.982  11.513
74543SOL     OW25525  12.589   6.180   4.321
74543SOL    HW125526  12.655   6.172   4.253
74543SOL    HW225527  12.519   6.119   4.296
74544SOL     OW25528   1.140   3.440  11.660
74544SOL    HW125529   1.102   3.372  11.604
74544SOL    HW225530   1.131   3.405  11.748
74545SOL     OW25531   4.905  14.644   7.434
74545SOL    HW125532   4.982  14.664   7.486
74545SOL    HW225533   4.831  14.664   7.492
74546SOL     OW25534   7.307   9.053  10.669
74546SOL    HW125535   7.312   9.081  10.760
74546SOL    HW225536   7.214   9.057  10.647
74547SOL     OW25537   7.969   6.165   1.758
74547SOL    HW125538   8.036   6.098   1.748
74547SOL    HW225539   7.895   6.119   1.798
74548SOL     OW25540   3.731   1.193   3.082
74548SOL    HW125541   3.723   1.228   3.170
74548SOL    HW225542   3.690   1.260   3.026
74549SOL     OW25543   7.436  11.259   0.244
74549SOL    HW125544   7.439  11.220   0.331
74549SOL    HW225545   7.350  11.235   0.209
74550SOL     OW25546  14.086  12.871  12.616
74550SOL    HW125547  14.128  12.947  12.656
74550SOL    HW225548  14.050  12.904  12.533
74551SOL     OW25549   4.259   2.954  13.400
74551SOL    HW125550   4.252   3.037  13.352
74551SOL    HW225551   4.275   2.889  13.331
74552SOL     OW25552   6.139   8.350   1.257
74552SOL    HW125553   6.163   8.422   1.198
74552SOL    HW225554   6.057   8.316   1.222
74553SOL     OW25555  10.926   6.859   7.191
74553SOL    HW125556  11.021   6.862   7.180
74553SOL    HW225557  10.913   6.842   7.284
74554SOL     OW25558   4.639   4.414  11.692
74554SOL    HW125559   4.686   4.491  11.726
74554SOL    HW225560   4.610   4.368  11.771
74555SOL     OW25561   8.051  11.328   7.801
74555SOL    HW125562   8.065  11.423   7.801
74555SOL    HW225563   7.968  11.316   7.848
74556SOL     OW25564   2.554   7.363   3.157
74556SOL    HW125565   2.595   7.432   3.209
74556SOL    HW225566   2.504   7.411   3.090
74557SOL     OW25567  12.304   4.498  13.292
74557SOL    HW125568  12.254   4.417  13.304
74557SOL    HW225569  12.258   4.562  13.347
74558SOL     OW25570   6.297   4.808   8.001
74558SOL    HW125571   6.275   4.724   7.960
74558SOL    HW225572   6.377   4.836   7.958
74559SOL     OW25573   5.758  14.090  12.237
74559SOL    HW125574   5.688  14.091  12.303
74559SOL    HW225575   5.759  14.000  12.205
74560SOL     OW25576  11.474   0.391   7.081
74560SOL    HW125577  11.469   0.484   7.100
74560SOL    HW225578  11.502   0.386   6.990
74561SOL     OW25579   7.191   8.633   5.350
74561SOL    HW125580   7.248   8.619   5.425
74561SOL    HW225581   7.251   8.638   5.275
74562SOL     OW25582   4.037  11.602   1.713
74562SOL    HW125583   4.074  11.680   1.671
74562SOL    HW225584   4.030  11.626   1.805
74563SOL     OW25585  13.931   1.353   2.181
74563SOL    HW125586  13.913   1.259   2.181
74563SOL    HW225587  13.989   1.367   2.256
74564SOL     OW25588   9.901  11.049   3.982
74564SOL    HW125589   9.850  11.037   3.902
74564SOL    HW225590   9.959  10.973   3.985
74565SOL     OW25591   7.681  13.099   8.174
74565SOL    HW125592   7.764  13.068   8.139
74565SOL    HW225593   7.641  13.148   8.103
74566SOL     OW25594   5.105   3.920   7.017
74566SOL    HW125595   5.039   3.921   7.086
74566SOL    HW225596   5.189   3.927   7.063
74567SOL     OW25597  11.603   1.297  10.855
74567SOL    HW125598  11.642   1.219  10.816
74567SOL    HW225599  11.530   1.318  10.797
74568SOL     OW25600   2.282   2.211   3.412
74568SOL    HW125601   2.376   2.195   3.402
74568SOL    HW225602   2.261   2.273   3.342
74569SOL     OW25603  11.684   8.756   0.227
74569SOL    HW125604  11.687   8.805   0.309
74569SOL    HW225605  11.646   8.817   0.164
74570SOL     OW25606   4.850   5.758   2.117
74570SOL    HW125607   4.908   5.830   2.093
74570SOL    HW225608   4.780   5.799   2.168
74571SOL     OW25609   4.127   4.119  12.827
74571SOL    HW125610   4.125   4.048  12.763
74571SOL    HW225611   4.158   4.195  12.776
74572SOL     OW25612   2.633   9.925   5.986
74572SOL    HW125613   2.564   9.976   5.943
74572SOL    HW225614   2.689   9.895   5.915
74573SOL     OW25615   6.019   5.432   8.855
74573SOL    HW125616   6.062   5.461   8.775
74573SOL    HW225617   6.028   5.505   8.915
74574SOL     OW25618  13.314   3.487   3.483
74574SOL    HW125619  13.286   3.561   3.430
74574SOL    HW225620  13.241   3.469   3.542
74575SOL     OW25621   2.300   0.933   9.004
74575SOL    HW125622   2.228   0.924   8.941
74575SOL    HW225623   2.378   0.944   8.949
74576SOL     OW25624   5.027   0.176   4.396
74576SOL    HW125625   4.993   0.203   4.482
74576SOL    HW225626   5.023   0.256   4.343
74577SOL     OW25627  14.719  10.479  10.757
74577SOL    HW125628  14.718  10.557  10.700
74577SOL    HW225629  14.734  10.514  10.845
74578SOL     OW25630   1.834   3.048   3.860
74578SOL    HW125631   1.807   3.095   3.938
74578SOL    HW225632   1.752   3.019   3.819
74579SOL     OW25633   8.988   2.477  13.891
74579SOL    HW125634   8.913   2.465  13.833
74579SOL    HW225635   9.051   2.411  13.863
74580SOL     OW25636   2.768   2.091   7.963
74580SOL    HW125637   2.680   2.115   7.993
74580SOL    HW225638   2.819   2.084   8.044
74581SOL     OW25639   8.555   2.549   0.751
74581SOL    HW125640   8.462   2.552   0.730
74581SOL    HW225641   8.585   2.464   0.719
74582SOL     OW25642   6.785   1.840   2.635
74582SOL    HW125643   6.712   1.864   2.578
74582SOL    HW225644   6.762   1.753   2.668
74583SOL     OW25645   3.499  11.675   5.866
74583SOL    HW125646   3.475  11.601   5.922
74583SOL    HW225647   3.416  11.718   5.846
74584SOL     OW25648  10.056  13.098   1.221
74584SOL    HW125649  10.117  13.031   1.191
74584SOL    HW225650  10.031  13.146   1.142
74585SOL     OW25651   8.723   8.860   2.975
74585SOL    HW125652   8.650   8.805   3.003
74585SOL    HW225653   8.752   8.905   3.054
74586SOL     OW25654   8.118  12.299  10.389
74586SOL    HW125655   8.095  12.217  10.347
74586SOL    HW225656   8.075  12.366  10.336
74587SOL     OW25657  14.226   7.381  14.090
74587SOL    HW125658  14.287   7.332  14.146
74587SOL    HW225659  14.281   7.416  14.020
74588SOL     OW25660  11.714  12.060  10.522
74588SOL    HW125661  11.745  12.067  10.613
74588SOL    HW225662  11.629  12.017  10.529
74589SOL     OW25663   1.175   4.188   5.757
74589SOL    HW125664   1.190   4.251   5.828
74589SOL    HW225665   1.159   4.242   5.680
74590SOL     OW25666   7.966   1.768  12.839
74590SOL    HW125667   8.028   1.701  12.869
74590SOL    HW225668   7.889   1.720  12.810
74591SOL     OW25669   1.649  12.641   8.696
74591SOL    HW125670   1.603  12.577   8.751
74591SOL    HW225671   1.739  12.608   8.691
74592SOL     OW25672   3.794  12.625  10.264
74592SOL    HW125673   3.816  12.666  10.180
74592SOL    HW225674   3.873  12.577  10.288
74593SOL     OW25675  13.762   8.847   5.644
74593SOL    HW125676  13.764   8.758   5.680
74593SOL    HW225677  13.740   8.835   5.552
74594SOL     OW25678   0.780  14.341  12.993
74594SOL    HW125679   0.765  14.415  13.051
74594SOL    HW225680   0.834  14.281  13.045
74595SOL     OW25681   2.934  11.870  14.654
74595SOL    HW125682   2.948  11.849  14.747
74595SOL    HW225683   2.855  11.821  14.630
74596SOL     OW25684   3.369  13.539   7.148
74596SOL    HW125685   3.342  13.510   7.235
74596SOL    HW225686   3.435  13.606   7.164
74597SOL     OW25687  10.436   4.150  12.084
74597SOL    HW125688  10.433   4.058  12.058
74597SOL    HW225689  10.370   4.192  12.029
74598SOL     OW25690   6.955   2.558   4.400
74598SOL    HW125691   6.943   2.581   4.308
74598SOL    HW225692   7.047   2.533   4.407
74599SOL     OW25693   2.965   2.962   9.093
74599SOL    HW125694   2.972   2.883   9.148
74599SOL    HW225695   3.001   2.935   9.009
74600SOL     OW25696  11.970  13.583   5.009
74600SOL    HW125697  12.016  13.591   5.093
74600SOL    HW225698  11.997  13.661   4.960
74601SOL     OW25699   6.952   4.336   0.569
74601SOL    HW125700   6.897   4.305   0.642
74601SOL    HW225701   7.041   4.313   0.595
74602SOL     OW25702   9.408  13.014  11.413
74602SOL    HW125703   9.385  13.087  11.470
74602SOL    HW225704   9.489  13.042  11.369
74603SOL     OW25705   5.237   5.760   6.361
74603SOL    HW125706   5.160   5.755   6.418
74603SOL    HW225707   5.307   5.720   6.413
74604SOL     OW25708   6.866   9.173   3.096
74604SOL    HW125709   6.946   9.173   3.044
74604SOL    HW225710   6.841   9.265   3.103
74605SOL     OW25711  10.186  12.314  11.206
74605SOL    HW125712  10.159  12.297  11.297
74605SOL    HW225713  10.260  12.374  11.214
74606SOL     OW25714  10.728   1.695   3.539
74606SOL    HW125715  10.778   1.657   3.612
74606SOL    HW225716  10.641   1.656   3.548
74607SOL     OW25717   2.712  13.447   7.321
74607SOL    HW125718   2.701  13.405   7.236
74607SOL    HW225719   2.634  13.422   7.370
74608SOL     OW25720   7.339  14.699   7.230
74608SOL    HW125721   7.386  14.716   7.312
74608SOL    HW225722   7.361  14.772   7.173
74609SOL     OW25723   1.531   0.650  10.143
74609SOL    HW125724   1.516   0.647  10.049
74609SOL    HW225725   1.475   0.580  10.178
74610SOL     OW25726  13.009   6.916  14.226
74610SOL    HW125727  13.095   6.949  14.201
74610SOL    HW225728  13.007   6.924  14.322
74611SOL     OW25729   5.772   2.444  14.101
74611SOL    HW125730   5.686   2.480  14.123
74611SOL    HW225731   5.777   2.362  14.151
74612SOL     OW25732   3.316  11.767   9.357
74612SOL    HW125733   3.228  11.744   9.328
74612SOL    HW225734   3.367  11.774   9.276
74613SOL     OW25735   5.808   5.773  10.956
74613SOL    HW125736   5.797   5.726  11.039
74613SOL    HW225737   5.749   5.728  10.896
74614SOL     OW25738  10.060   2.683   2.021
74614SOL    HW125739  10.126   2.660   2.087
74614SOL    HW225740  10.107   2.737   1.958
74615SOL     OW25741  11.465   8.851  13.710
74615SOL    HW125742  11.552   8.869  13.745
74615SOL    HW225743  11.416   8.932  13.725
74616SOL     OW25744   6.366   8.095  13.611
74616SOL    HW125745   6.356   8.176  13.660
74616SOL    HW225746   6.369   8.122  13.520
74617SOL     OW25747   4.810  14.282   5.687
74617SOL    HW125748   4.824  14.338   5.764
74617SOL    HW225749   4.856  14.327   5.616
74618SOL     OW25750  14.691   9.462   3.569
74618SOL    HW125751  14.659   9.410   3.495
74618SOL    HW225752  14.667   9.410   3.646
74619SOL     OW25753   3.820   9.299   7.195
74619SOL    HW125754   3.726   9.286   7.208
74619SOL    HW225755   3.837   9.388   7.227
74620SOL     OW25756   1.706   7.387  13.508
74620SOL    HW125757   1.662   7.443  13.571
74620SOL    HW225758   1.778   7.348  13.557
74621SOL     OW25759   2.935  10.921   5.230
74621SOL    HW125760   2.920  10.920   5.136
74621SOL    HW225761   3.025  10.950   5.240
74622SOL     OW25762  12.800   3.566   3.193
74622SOL    HW125763  12.741   3.497   3.224
74622SOL    HW225764  12.887   3.537   3.221
74623SOL     OW25765   8.401  10.917   2.311
74623SOL    HW125766   8.420  10.881   2.397
74623SOL    HW225767   8.352  10.998   2.329
74624SOL     OW25768   4.095  13.230   6.475
74624SOL    HW125769   4.120  13.320   6.497
74624SOL    HW225770   4.162  13.175   6.514
74625SOL     OW25771   7.038   7.647  11.773
74625SOL    HW125772   6.987   7.667  11.850
74625SOL    HW225773   7.114   7.705  11.778
74626SOL     OW25774   4.005  13.383   9.082
74626SOL    HW125775   4.043  13.461   9.121
74626SOL    HW225776   3.939  13.416   9.021
74627SOL     OW25777   1.151   7.253   1.009
74627SOL    HW125778   1.183   7.306   0.936
74627SOL    HW225779   1.207   7.277   1.083
74628SOL     OW25780   1.229   0.443   0.352
74628SOL    HW125781   1.194   0.503   0.286
74628SOL    HW225782   1.206   0.483   0.436
74629SOL     OW25783  14.006   0.571  14.857
74629SOL    HW125784  14.002   0.491  14.805
74629SOL    HW225785  14.096   0.602  14.848
74630SOL     OW25786   1.056   6.775   8.114
74630SOL    HW125787   0.960   6.779   8.120
74630SOL    HW225788   1.087   6.831   8.185
74631SOL     OW25789   7.040   2.449   7.608
74631SOL    HW125790   6.956   2.495   7.613
74631SOL    HW225791   7.020   2.366   7.564
74632SOL     OW25792   2.882   5.166   3.513
74632SOL    HW125793   2.863   5.094   3.572
74632SOL    HW225794   2.809   5.167   3.452
74633SOL     OW25795   1.372   7.885   0.257
74633SOL    HW125796   1.285   7.887   0.217
74633SOL    HW225797   1.430   7.922   0.189
74634SOL     OW25798   9.961   3.463   6.726
74634SOL    HW125799   9.916   3.547   6.723
74634SOL    HW225800   9.890   3.398   6.730
74635SOL     OW25801   9.020   9.204  11.917
74635SOL    HW125802   8.990   9.284  11.960
74635SOL    HW225803   8.961   9.194  11.842
74636SOL     OW25804   8.287   6.108   1.553
74636SOL    HW125805   8.224   6.037   1.540
74636SOL    HW225806   8.238   6.187   1.532
74637SOL     OW25807   9.492   2.242   7.915
74637SOL    HW125808   9.465   2.283   7.833
74637SOL    HW225809   9.587   2.235   7.908
74638SOL     OW25810   1.299   6.306   2.693
74638SOL    HW125811   1.383   6.353   2.693
74638SOL    HW225812   1.250   6.344   2.766
74639SOL     OW25813   9.491   3.023   3.095
74639SOL    HW125814   9.575   3.012   3.140
74639SOL    HW225815   9.514   3.025   3.002
74640SOL     OW25816   5.536  12.668   9.733
74640SOL    HW125817   5.468  12.692   9.797
74640SOL    HW225818   5.550  12.748   9.683
74641SOL     OW25819  10.770   0.972   7.963
74641SOL    HW125820  10.847   0.935   7.920
74641SOL    HW225821  10.708   0.899   7.970
74642SOL     OW25822   0.880   3.038   9.963
74642SOL    HW125823   0.786   3.046   9.944
74642SOL    HW225824   0.885   3.030  10.058
74643SOL     OW25825   9.219  12.932   0.095
74643SOL    HW125826   9.244  13.019   0.063
74643SOL    HW225827   9.132  12.944   0.132
74644SOL     OW25828   7.518   8.160   9.997
74644SOL    HW125829   7.529   8.243   9.951
74644SOL    HW225830   7.590   8.159  10.060
74645SOL     OW25831   1.686  11.284   2.510
74645SOL    HW125832   1.682  11.316   2.600
74645SOL    HW225833   1.640  11.200   2.512
74646SOL     OW25834  11.388   6.132   1.305
74646SOL    HW125835  11.375   6.166   1.393
74646SOL    HW225836  11.361   6.203   1.247
74647SOL     OW25837   2.255   1.424   3.345
74647SOL    HW125838   2.334   1.379   3.375
74647SOL    HW225839   2.187   1.396   3.407
74648SOL     OW25840  11.452   2.136  14.753
74648SOL    HW125841  11.544   2.113  14.751
74648SOL    HW225842  11.451   2.229  14.776
74649SOL     OW25843   9.071  10.261  13.882
74649SOL    HW125844   9.153  10.215  13.867
74649SOL    HW225845   9.077  10.340  13.829
74650SOL     OW25846   9.837  11.792  14.178
74650SOL    HW125847   9.746  11.764  14.170
74650SOL    HW225848   9.843  11.869  14.122
74651SOL     OW25849   9.096   3.162  11.153
74651SOL    HW125850   9.152   3.106  11.207
74651SOL    HW225851   9.132   3.153  11.064
74652SOL     OW25852   1.601  13.817  10.560
74652SOL    HW125853   1.637  13.729  10.568
74652SOL    HW225854   1.617  13.858  10.646
74653SOL     OW25855   9.991   7.405   0.469
74653SOL    HW125856  10.036   7.490   0.467
74653SOL    HW225857   9.900   7.425   0.446
74654SOL     OW25858   7.110   7.662  13.610
74654SOL    HW125859   7.082   7.667  13.702
74654SOL    HW225860   7.118   7.754  13.583
74655SOL     OW25861   6.040   4.529  12.251
74655SOL    HW125862   5.948   4.501  12.249
74655SOL    HW225863   6.043   4.603  12.191
74656SOL     OW25864   9.235   8.439   3.357
74656SOL    HW125865   9.304   8.491   3.315
74656SOL    HW225866   9.233   8.472   3.447
74657SOL     OW25867  13.220  12.656  11.929
74657SOL    HW125868  13.303  12.608  11.928
74657SOL    HW225869  13.179  12.632  12.012
74658SOL     OW25870   6.594   6.182  11.206
74658SOL    HW125871   6.571   6.250  11.270
74658SOL    HW225872   6.682   6.155  11.231
74659SOL     OW25873   7.626   1.832   0.336
74659SOL    HW125874   7.644   1.741   0.358
74659SOL    HW225875   7.679   1.883   0.398
74660SOL     OW25876   5.915   9.127  12.154
74660SOL    HW125877   6.008   9.133  12.177
74660SOL    HW225878   5.912   9.060  12.086
74661SOL     OW25879  12.706   3.003  12.322
74661SOL    HW125880  12.707   2.996  12.417
74661SOL    HW225881  12.617   3.031  12.301
74662SOL     OW25882  10.784  10.189   3.885
74662SOL    HW125883  10.815  10.234   3.963
74662SOL    HW225884  10.689  10.202   3.886
74663SOL     OW25885   9.496  10.352   4.848
74663SOL    HW125886   9.574  10.406   4.837
74663SOL    HW225887   9.530  10.266   4.871
74664SOL     OW25888  11.295   4.665   9.731
74664SOL    HW125889  11.262   4.700   9.648
74664SOL    HW225890  11.300   4.741   9.789
74665SOL     OW25891   0.625   6.973   6.685
74665SOL    HW125892   0.663   6.982   6.773
74665SOL    HW225893   0.543   7.021   6.689
74666SOL     OW25894  13.597   4.844   4.475
74666SOL    HW125895  13.593   4.767   4.532
74666SOL    HW225896  13.517   4.839   4.423
74667SOL     OW25897   2.725  12.802  12.308
74667SOL    HW125898   2.706  12.777  12.218
74667SOL    HW225899   2.790  12.872  12.301
74668SOL     OW25900   6.571   1.953  10.815
74668SOL    HW125901   6.495   1.980  10.763
74668SOL    HW225902   6.608   2.035  10.848
74669SOL     OW25903  12.296  14.725   3.672
74669SOL    HW125904  12.371  14.679   3.710
74669SOL    HW225905  12.274  14.675   3.593
74670SOL     OW25906   5.868   6.835   6.263
74670SOL    HW125907   5.931   6.894   6.222
74670SOL    HW225908   5.812   6.891   6.316
74671SOL     OW25909   8.242  13.806   2.956
74671SOL    HW125910   8.149  13.788   2.944
74671SOL    HW225911   8.286  13.742   2.900
74672SOL     OW25912   4.553   8.931   2.964
74672SOL    HW125913   4.647   8.942   2.948
74672SOL    HW225914   4.549   8.876   3.043
74673SOL     OW25915  14.639  13.765  13.778
74673SOL    HW125916  14.598  13.778  13.864
74673SOL    HW225917  14.666  13.853  13.751
74674SOL     OW25918  14.848   2.232   9.228
74674SOL    HW125919  14.872   2.238   9.136
74674SOL    HW225920  14.759   2.197   9.228
74675SOL     OW25921  13.259  11.948  12.787
74675SOL    HW125922  13.191  11.880  12.787
74675SOL    HW225923  13.332  11.909  12.834
74676SOL     OW25924  14.416   3.678  12.751
74676SOL    HW125925  14.462   3.752  12.789
74676SOL    HW225926  14.486   3.618  12.724
74677SOL     OW25927  10.567  10.438   6.316
74677SOL    HW125928  10.530  10.377   6.381
74677SOL    HW225929  10.658  10.412   6.308
74678SOL     OW25930   5.412   0.733   3.795
74678SOL    HW125931   5.437   0.641   3.784
74678SOL    HW225932   5.431   0.752   3.887
74679SOL     OW25933   2.402   9.400   1.057
74679SOL    HW125934   2.394   9.446   0.974
74679SOL    HW225935   2.321   9.351   1.066
74680SOL     OW25936   1.509   9.672   5.292
74680SOL    HW125937   1.448   9.602   5.266
74680SOL    HW225938   1.557   9.634   5.366
74681SOL     OW25939  11.527   4.722  13.681
74681SOL    HW125940  11.485   4.646  13.721
74681SOL    HW225941  11.601   4.685  13.631
74682SOL     OW25942   4.754   0.903   2.166
74682SOL    HW125943   4.785   0.863   2.248
74682SOL    HW225944   4.766   0.997   2.180
74683SOL     OW25945  13.695  14.793  10.808
74683SOL    HW125946  13.765  14.733  10.832
74683SOL    HW225947  13.626  14.778  10.873
74684SOL     OW25948   1.884   5.726   0.172
74684SOL    HW125949   1.907   5.817   0.190
74684SOL    HW225950   1.855   5.692   0.257
74685SOL     OW25951   4.686  12.130   4.053
74685SOL    HW125952   4.661  12.043   4.084
74685SOL    HW225953   4.780  12.136   4.068
74686SOL     OW25954  13.469  12.634   3.027
74686SOL    HW125955  13.376  12.656   3.027
74686SOL    HW225956  13.501  12.663   2.941
74687SOL     OW25957  13.942  14.189  14.839
74687SOL    HW125958  13.959  14.281  14.821
74687SOL    HW225959  13.864  14.168  14.788
74688SOL     OW25960   9.079   5.817   4.772
74688SOL    HW125961   9.054   5.897   4.819
74688SOL    HW225962   9.006   5.800   4.713
74689SOL     OW25963  12.986   4.629  12.670
74689SOL    HW125964  13.074   4.615  12.635
74689SOL    HW225965  13.001   4.651  12.762
74690SOL     OW25966   1.829   8.555  14.154
74690SOL    HW125967   1.770   8.600  14.093
74690SOL    HW225968   1.916   8.568  14.117
74691SOL     OW25969   3.657  11.543   6.292
74691SOL    HW125970   3.736  11.592   6.271
74691SOL    HW225971   3.686  11.452   6.296
74692SOL     OW25972   4.072   9.111   8.074
74692SOL    HW125973   4.142   9.142   8.131
74692SOL    HW225974   4.004   9.178   8.079
74693SOL     OW25975  14.107   8.262   5.613
74693SOL    HW125976  14.075   8.305   5.693
74693SOL    HW225977  14.159   8.189   5.645
74694SOL     OW25978   0.816   9.788  11.482
74694SOL    HW125979   0.843   9.846  11.553
74694SOL    HW225980   0.777   9.845  11.417
74695SOL     OW25981   1.097   1.503  10.028
74695SOL    HW125982   1.059   1.441  10.090
74695SOL    HW225983   1.024   1.561  10.005
74696SOL     OW25984  12.835   4.854   7.422
74696SOL    HW125985  12.816   4.760   7.421
74696SOL    HW225986  12.869   4.873   7.335
74697SOL     OW25987  13.098   5.586  12.843
74697SOL    HW125988  13.125   5.501  12.877
74697SOL    HW225989  13.100   5.576  12.748
74698SOL     OW25990   7.612   4.109   0.660
74698SOL    HW125991   7.628   4.110   0.566
74698SOL    HW225992   7.671   4.176   0.695
74699SOL     OW25993   8.640   0.075   1.790
74699SOL    HW125994   8.546   0.056   1.786
74699SOL    HW225995   8.677   0.001   1.840
74700SOL     OW25996   2.995   7.457   4.405
74700SOL    HW125997   3.004   7.510   4.325
74700SOL    HW225998   3.067   7.485   4.461
74701SOL     OW25999   6.675  12.144  14.760
74701SOL    HW126000   6.757  12.194  14.766
74701SOL    HW226001   6.610  12.210  14.736
74702SOL     OW26002  14.747  10.758  10.195
74702SOL    HW126003  14.806  10.784  10.266
74702SOL    HW226004  14.697  10.836  10.175
74703SOL     OW26005   6.539  11.317   7.467
74703SOL    HW126006   6.615  11.267   7.437
74703SOL    HW226007   6.549  11.322   7.562
74704SOL     OW26008  10.620  10.904   9.813
74704SOL    HW126009  10.671  10.919   9.893
74704SOL    HW226010  10.664  10.832   9.769
74705SOL     OW26011   8.822   6.459   8.867
74705SOL    HW126012   8.829   6.377   8.818
74705SOL    HW226013   8.730   6.483   8.861
74706SOL     OW26014  10.356  10.784   1.228
74706SOL    HW126015  10.305  10.721   1.279
74706SOL    HW226016  10.435  10.799   1.279
74707SOL     OW26017   5.187  12.511   3.338
74707SOL    HW126018   5.104  12.524   3.293
74707SOL    HW226019   5.248  12.569   3.293
74708SOL     OW26020   1.614   7.245   4.351
74708SOL    HW126021   1.635   7.163   4.395
74708SOL    HW226022   1.576   7.218   4.267
74709SOL     OW26023   2.554   6.636  10.298
74709SOL    HW126024   2.601   6.602  10.374
74709SOL    HW226025   2.573   6.572  10.229
74710SOL     OW26026   7.273   3.354  14.614
74710SOL    HW126027   7.206   3.411  14.575
74710SOL    HW226028   7.251   3.267  14.582
74711SOL     OW26029   6.664  12.515   7.294
74711SOL    HW126030   6.624  12.585   7.345
74711SOL    HW226031   6.641  12.535   7.204
74712SOL     OW26032   1.928   2.782  11.798
74712SOL    HW126033   1.934   2.828  11.715
74712SOL    HW226034   1.869   2.835  11.852
74713SOL     OW26035  12.632   9.632   6.887
74713SOL    HW126036  12.588   9.565   6.834
74713SOL    HW226037  12.708   9.657   6.834
74714SOL     OW26038   0.764   1.801  14.621
74714SOL    HW126039   0.722   1.715  14.627
74714SOL    HW226040   0.845   1.792  14.671
74715SOL     OW26041  11.393   0.680   7.708
74715SOL    HW126042  11.361   0.621   7.776
74715SOL    HW226043  11.486   0.691   7.727
74716SOL     OW26044   3.993   8.854  10.094
74716SOL    HW126045   4.021   8.773  10.137
74716SOL    HW226046   3.939   8.824  10.021
74717SOL     OW26047  10.859   4.825  12.330
74717SOL    HW126048  10.939   4.782  12.358
74717SOL    HW226049  10.888   4.894  12.271
74718SOL     OW26050  12.793  10.333   6.700
74718SOL    HW126051  12.845  10.290   6.633
74718SOL    HW226052  12.703  10.330   6.666
74719SOL     OW26053   2.238   7.941   7.470
74719SOL    HW126054   2.188   7.893   7.536
74719SOL    HW226055   2.173   7.966   7.404
74720SOL     OW26056   8.059   6.627   3.156
74720SOL    HW126057   8.119   6.596   3.224
74720SOL    HW226058   7.974   6.632   3.199
74721SOL     OW26059  12.943   7.701   7.629
74721SOL    HW126060  12.947   7.613   7.666
74721SOL    HW226061  12.968   7.759   7.700
74722SOL     OW26062   9.836  11.091   4.275
74722SOL    HW126063   9.780  11.015   4.293
74722SOL    HW226064   9.890  11.065   4.201
74723SOL     OW26065   9.299   1.304   0.098
74723SOL    HW126066   9.327   1.392   0.122
74723SOL    HW226067   9.269   1.312   0.007
74724SOL     OW26068  13.156   7.428   0.613
74724SOL    HW126069  13.124   7.489   0.548
74724SOL    HW226070  13.185   7.352   0.562
74725SOL     OW26071  12.625   9.181  10.457
74725SOL    HW126072  12.619   9.265  10.412
74725SOL    HW226073  12.711   9.182  10.498
74726SOL     OW26074   5.239   0.441   3.653
74726SOL    HW126075   5.314   0.381   3.659
74726SOL    HW226076   5.256   0.493   3.575
74727SOL     OW26077  14.016  13.614   7.489
74727SOL    HW126078  14.049  13.525   7.478
74727SOL    HW226079  13.944  13.605   7.552
74728SOL     OW26080   4.875   6.531   3.719
74728SOL    HW126081   4.923   6.542   3.636
74728SOL    HW226082   4.791   6.574   3.704
74729SOL     OW26083  14.314   9.034   4.956
74729SOL    HW126084  14.328   8.943   4.929
74729SOL    HW226085  14.399   9.063   4.989
74730SOL     OW26086   1.115   5.525   6.933
74730SOL    HW126087   1.038   5.514   6.878
74730SOL    HW226088   1.117   5.447   6.989
74731SOL     OW26089   0.341  13.646   9.913
74731SOL    HW126090   0.320  13.684   9.998
74731SOL    HW226091   0.399  13.573   9.933
74732SOL     OW26092   1.581   1.805  10.940
74732SOL    HW126093   1.552   1.851  10.861
74732SOL    HW226094   1.548   1.858  11.012
74733SOL     OW26095   7.392   3.586   1.617
74733SOL    HW126096   7.429   3.576   1.529
74733SOL    HW226097   7.331   3.659   1.609
74734SOL     OW26098  13.967   7.739  11.370
74734SOL    HW126099  13.900   7.675  11.345
74734SOL    HW226100  13.921   7.800  11.428
74735SOL     OW26101   0.546   9.429   9.692
74735SOL    HW126102   0.481   9.390   9.634
74735SOL    HW226103   0.565   9.515   9.653
74736SOL     OW26104   4.053  11.906   9.755
74736SOL    HW126105   4.046  11.815   9.783
74736SOL    HW226106   4.130  11.939   9.802
74737SOL     OW26107  10.116   4.050  11.219
74737SOL    HW126108  10.154   4.136  11.201
74737SOL    HW226109  10.136   3.999  11.141
74738SOL     OW26110   9.794   1.605   9.214
74738SOL    HW126111   9.882   1.616   9.178
74738SOL    HW226112   9.773   1.513   9.198
74739SOL     OW26113  10.316   7.919  14.775
74739SOL    HW126114  10.305   7.999  14.826
74739SOL    HW226115  10.265   7.853  14.822
74740SOL     OW26116   6.418  11.762  11.516
74740SOL    HW126117   6.350  11.778  11.582
74740SOL    HW226118   6.483  11.709  11.562
74741SOL     OW26119   4.454   0.737  13.659
74741SOL    HW126120   4.450   0.824  13.619
74741SOL    HW226121   4.389   0.741  13.729
74742SOL     OW26122   2.671   1.380  12.647
74742SOL    HW126123   2.750   1.374  12.702
74742SOL    HW226124   2.705   1.388  12.558
74743SOL     OW26125   8.583   1.490   2.265
74743SOL    HW126126   8.520   1.474   2.335
74743SOL    HW226127   8.649   1.546   2.304
74744SOL     OW26128   3.335  10.072   6.869
74744SOL    HW126129   3.311  10.164   6.861
74744SOL    HW226130   3.276  10.038   6.936
74745SOL     OW26131   6.551   4.310   7.164
74745SOL    HW126132   6.579   4.235   7.111
74745SOL    HW226133   6.607   4.382   7.136
74746SOL     OW26134  12.782   7.642  12.882
74746SOL    HW126135  12.845   7.674  12.817
74746SOL    HW226136  12.706   7.616  12.830
74747SOL     OW26137   7.795   9.227   5.248
74747SOL    HW126138   7.863   9.255   5.186
74747SOL    HW226139   7.809   9.282   5.325
74748SOL     OW26140  12.965   5.844   2.426
74748SOL    HW126141  12.950   5.752   2.405
74748SOL    HW226142  12.969   5.888   2.341
74749SOL     OW26143   4.796   7.848   5.468
74749SOL    HW126144   4.794   7.907   5.543
74749SOL    HW226145   4.886   7.815   5.466
74750SOL     OW26146   5.953   0.402  11.404
74750SOL    HW126147   5.942   0.482  11.353
74750SOL    HW226148   5.963   0.432  11.495
74751SOL     OW26149  14.234   4.400   2.986
74751SOL    HW126150  14.242   4.488   3.022
74751SOL    HW226151  14.148   4.369   3.014
74752SOL     OW26152   2.453   5.327   8.475
74752SOL    HW126153   2.392   5.289   8.538
74752SOL    HW226154   2.537   5.327   8.520
74753SOL     OW26155   6.782   0.648   0.636
74753SOL    HW126156   6.762   0.740   0.651
74753SOL    HW226157   6.752   0.604   0.716
74754SOL     OW26158   0.037   2.953  12.980
74754SOL    HW126159   0.045   2.919  13.069
74754SOL    HW226160   0.098   3.027  12.978
74755SOL     OW26161  10.852   1.636   9.531
74755SOL    HW126162  10.903   1.639   9.612
74755SOL    HW226163  10.871   1.549   9.495
74756SOL     OW26164   2.756   1.132  13.282
74756SOL    HW126165   2.687   1.196  13.293
74756SOL    HW226166   2.747   1.102  13.191
74757SOL     OW26167   2.019  10.674  12.867
74757SOL    HW126168   2.056  10.688  12.780
74757SOL    HW226169   1.932  10.714  12.863
74758SOL     OW26170   3.324   2.992  10.452
74758SOL    HW126171   3.303   3.001  10.359
74758SOL    HW226172   3.314   3.081  10.488
74759SOL     OW26173   2.834   1.258   1.229
74759SOL    HW126174   2.885   1.334   1.255
74759SOL    HW226175   2.773   1.244   1.302
74760SOL     OW26176   5.892   1.163   5.521
74760SOL    HW126177   5.951   1.236   5.500
74760SOL    HW226178   5.942   1.110   5.583
74761SOL     OW26179   9.152   5.105   4.524
74761SOL    HW126180   9.108   5.189   4.512
74761SOL    HW226181   9.235   5.114   4.476
74762SOL     OW26182  10.744   4.902   9.072
74762SOL    HW126183  10.744   4.983   9.021
74762SOL    HW226184  10.689   4.921   9.148
74763SOL     OW26185   2.680   8.102   7.748
74763SOL    HW126186   2.592   8.114   7.712
74763SOL    HW226187   2.736   8.091   7.671
74764SOL     OW26188  11.250   4.862  10.362
74764SOL    HW126189  11.172   4.909  10.391
74764SOL    HW226190  11.307   4.930  10.325
74765SOL     OW26191   9.558   3.525   4.405
74765SOL    HW126192   9.652   3.537   4.419
74765SOL    HW226193   9.543   3.431   4.419
74766SOL     OW26194   6.771   6.635   8.511
74766SOL    HW126195   6.849   6.584   8.534
74766SOL    HW226196   6.697   6.578   8.535
74767SOL     OW26197  14.255   2.564   2.720
74767SOL    HW126198  14.349   2.552   2.711
74767SOL    HW226199  14.245   2.626   2.793
74768SOL     OW26200   1.284  11.793   4.783
74768SOL    HW126201   1.364  11.833   4.749
74768SOL    HW226202   1.264  11.723   4.721
74769SOL     OW26203   8.474  11.262   1.917
74769SOL    HW126204   8.389  11.276   1.958
74769SOL    HW226205   8.524  11.342   1.937
74770SOL     OW26206  12.644   0.476   1.661
74770SOL    HW126207  12.611   0.566   1.654
74770SOL    HW226208  12.565   0.422   1.668
74771SOL     OW26209   0.965   8.601   4.423
74771SOL    HW126210   1.016   8.525   4.452
74771SOL    HW226211   1.021   8.676   4.440
74772SOL     OW26212   7.236   5.293   2.203
74772SOL    HW126213   7.211   5.248   2.122
74772SOL    HW226214   7.183   5.373   2.203
74773SOL     OW26215   0.914   3.988   4.235
74773SOL    HW126216   0.868   3.918   4.280
74773SOL    HW226217   0.847   4.031   4.181
74774SOL     OW26218   8.735   5.194   3.377
74774SOL    HW126219   8.682   5.268   3.347
74774SOL    HW226220   8.689   5.116   3.344
74775SOL     OW26221   5.838   9.756   6.480
74775SOL    HW126222   5.868   9.682   6.428
74775SOL    HW226223   5.744   9.761   6.464
74776SOL     OW26224   2.138   8.618   2.966
74776SOL    HW126225   2.211   8.677   2.984
74776SOL    HW226226   2.060   8.669   2.987
74777SOL     OW26227   1.542   4.051   6.563
74777SOL    HW126228   1.448   4.069   6.568
74777SOL    HW226229   1.579   4.126   6.517
74778SOL     OW26230   7.739  11.182   0.260
74778SOL    HW126231   7.646  11.207   0.257
74778SOL    HW226232   7.785  11.260   0.228
74779SOL     OW26233   2.519   3.397   1.076
74779SOL    HW126234   2.507   3.315   1.123
74779SOL    HW226235   2.440   3.447   1.094
74780SOL     OW26236   3.675   5.054   3.104
74780SOL    HW126237   3.683   5.147   3.125
74780SOL    HW226238   3.649   5.053   3.012
74781SOL     OW26239   9.226   6.405  13.463
74781SOL    HW126240   9.178   6.371  13.539
74781SOL    HW226241   9.310   6.359  13.465
74782SOL     OW26242   4.194   5.024  12.749
74782SOL    HW126243   4.257   5.075  12.698
74782SOL    HW226244   4.243   4.994  12.826
74783SOL     OW26245   4.190   8.083   3.852
74783SOL    HW126246   4.220   8.005   3.899
74783SOL    HW226247   4.225   8.156   3.902
74784SOL     OW26248   2.711  11.003  14.264
74784SOL    HW126249   2.709  10.958  14.349
74784SOL    HW226250   2.796  11.046  14.261
74785SOL     OW26251  12.682   2.114  14.353
74785SOL    HW126252  12.773   2.113  14.382
74785SOL    HW226253  12.654   2.204  14.365
74786SOL     OW26254   5.279   6.782  11.115
74786SOL    HW126255   5.243   6.809  11.030
74786SOL    HW226256   5.359   6.834  11.125
74787SOL     OW26257   7.894  11.581   1.934
74787SOL    HW126258   7.960  11.522   1.897
74787SOL    HW226259   7.889  11.558   2.026
74788SOL     OW26260  14.239   1.201   8.755
74788SOL    HW126261  14.227   1.256   8.833
74788SOL    HW226262  14.170   1.230   8.696
74789SOL     OW26263   1.671   4.485   0.562
74789SOL    HW126264   1.697   4.544   0.633
74789SOL    HW226265   1.594   4.527   0.523
74790SOL     OW26266   0.816  14.817   3.912
74790SOL    HW126267   0.743  14.873   3.938
74790SOL    HW226268   0.817  14.821   3.816
74791SOL     OW26269   6.791   4.286   5.640
74791SOL    HW126270   6.832   4.366   5.610
74791SOL    HW226271   6.754   4.308   5.726
74792SOL     OW26272   1.397  11.956   5.452
74792SOL    HW126273   1.444  11.980   5.532
74792SOL    HW226274   1.443  12.002   5.382
74793SOL     OW26275  12.142   8.977  10.691
74793SOL    HW126276  12.219   8.953  10.743
74793SOL    HW226277  12.162   9.064  10.658
74794SOL     OW26278   4.099  11.317   0.477
74794SOL    HW126279   4.119  11.230   0.512
74794SOL    HW226280   4.061  11.365   0.550
74795SOL     OW26281   5.331   5.908  12.675
74795SOL    HW126282   5.274   5.986  12.671
74795SOL    HW226283   5.291   5.847  12.613
74796SOL     OW26284   4.107   4.985   7.590
74796SOL    HW126285   4.166   5.059   7.598
74796SOL    HW226286   4.161   4.908   7.607
74797SOL     OW26287   4.073   1.001  12.300
74797SOL    HW126288   4.030   1.038  12.377
74797SOL    HW226289   4.154   0.962  12.335
74798SOL     OW26290  11.970   7.662   9.912
74798SOL    HW126291  11.904   7.653   9.981
74798SOL    HW226292  12.034   7.724   9.948
74799SOL     OW26293   0.225   8.304  12.209
74799SOL    HW126294   0.155   8.335  12.152
74799SOL    HW226295   0.283   8.379  12.220
74800SOL     OW26296   6.872   6.760   2.590
74800SOL    HW126297   6.786   6.801   2.579
74800SOL    HW226298   6.883   6.753   2.685
74801SOL     OW26299   4.414  13.681  14.586
74801SOL    HW126300   4.370  13.742  14.526
74801SOL    HW226301   4.376  13.699  14.671
74802SOL     OW26302   1.450   4.434   6.874
74802SOL    HW126303   1.463   4.450   6.781
74802SOL    HW226304   1.432   4.521   6.911
74803SOL     OW26305   4.565  11.919   0.249
74803SOL    HW126306   4.494  11.857   0.229
74803SOL    HW226307   4.547  11.995   0.193
74804SOL     OW26308   7.486  12.499   8.705
74804SOL    HW126309   7.529  12.496   8.619
74804SOL    HW226310   7.393  12.488   8.685
74805SOL     OW26311   5.295   4.427  14.729
74805SOL    HW126312   5.246   4.484  14.789
74805SOL    HW226313   5.322   4.353  14.784
74806SOL     OW26314  12.257  11.892   2.041
74806SOL    HW126315  12.329  11.868   2.100
74806SOL    HW226316  12.246  11.815   1.985
74807SOL     OW26317  11.020  11.848   7.614
74807SOL    HW126318  11.087  11.873   7.678
74807SOL    HW226319  10.963  11.925   7.608
74808SOL     OW26320  13.393   4.637  13.564
74808SOL    HW126321  13.331   4.696  13.520
74808SOL    HW226322  13.448   4.695  13.616
74809SOL     OW26323  11.327   2.354   4.627
74809SOL    HW126324  11.326   2.278   4.568
74809SOL    HW226325  11.292   2.426   4.575
74810SOL     OW26326  12.145  11.762   3.983
74810SOL    HW126327  12.212  11.829   3.970
74810SOL    HW226328  12.151  11.705   3.906
74811SOL     OW26329   2.558   3.866  14.329
74811SOL    HW126330   2.484   3.836  14.381
74811SOL    HW226331   2.568   3.800  14.261
74812SOL     OW26332   4.303  12.182  10.354
74812SOL    HW126333   4.308  12.205  10.261
74812SOL    HW226334   4.210  12.186  10.375
74813SOL     OW26335   3.724  14.547   4.476
74813SOL    HW126336   3.690  14.460   4.456
74813SOL    HW226337   3.794  14.531   4.540
74814SOL     OW26338  14.859  13.715  13.132
74814SOL    HW126339  14.825  13.630  13.161
74814SOL    HW226340  14.785  13.756  13.088
74815SOL     OW26341  10.919   2.889   3.415
74815SOL    HW126342  10.867   2.841   3.351
74815SOL    HW226343  10.963   2.957   3.364
74816SOL     OW26344   2.646   4.344   8.687
74816SOL    HW126345   2.688   4.262   8.715
74816SOL    HW226346   2.572   4.355   8.747
74817SOL     OW26347   2.745   0.231  10.467
74817SOL    HW126348   2.652   0.206  10.471
74817SOL    HW226349   2.778   0.212  10.555
74818SOL     OW26350  11.210   6.195   7.747
74818SOL    HW126351  11.261   6.141   7.686
74818SOL    HW226352  11.233   6.285   7.724
74819SOL     OW26353  13.918   5.408   5.367
74819SOL    HW126354  13.983   5.472   5.337
74819SOL    HW226355  13.835   5.439   5.331
74820SOL     OW26356   0.196   2.940   2.819
74820SOL    HW126357   0.276   2.931   2.872
74820SOL    HW226358   0.204   3.026   2.778
74821SOL     OW26359  13.800   3.557   7.266
74821SOL    HW126360  13.857   3.493   7.309
74821SOL    HW226361  13.829   3.642   7.300
74822SOL     OW26362   8.071   2.510  14.449
74822SOL    HW126363   8.117   2.546  14.525
74822SOL    HW226364   8.056   2.418  14.470
74823SOL     OW26365  10.023  10.184  10.180
74823SOL    HW126366   9.990  10.125  10.247
74823SOL    HW226367   9.949  10.195  10.120
74824SOL     OW26368   6.357  14.407  10.659
74824SOL    HW126369   6.286  14.361  10.614
74824SOL    HW226370   6.436  14.380  10.612
74825SOL     OW26371   0.067   1.434   8.844
74825SOL    HW126372   0.159   1.407   8.845
74825SOL    HW226373   0.068   1.522   8.880
74826SOL     OW26374   4.038   8.416  11.820
74826SOL    HW126375   4.118   8.372  11.847
74826SOL    HW226376   4.055   8.447  11.732
74827SOL     OW26377  14.847   9.616  13.926
74827SOL    HW126378  14.808   9.642  14.009
74827SOL    HW226379   0.063   9.596  13.947
74828SOL     OW26380   1.771   5.525   3.317
74828SOL    HW126381   1.701   5.589   3.324
74828SOL    HW226382   1.851   5.578   3.314
74829SOL     OW26383   7.774   3.792   3.955
74829SOL    HW126384   7.846   3.776   4.015
74829SOL    HW226385   7.766   3.711   3.905
74830SOL     OW26386  11.722   4.750   8.070
74830SOL    HW126387  11.750   4.661   8.050
74830SOL    HW226388  11.772   4.804   8.008
74831SOL     OW26389   2.095   0.581  11.365
74831SOL    HW126390   2.169   0.540  11.320
74831SOL    HW226391   2.059   0.643  11.302
74832SOL     OW26392   6.319   0.051   2.689
74832SOL    HW126393   6.357   0.136   2.668
74832SOL    HW226394   6.298   0.011   2.605
74833SOL     OW26395   9.794   6.641  14.712
74833SOL    HW126396   9.800   6.732  14.683
74833SOL    HW226397   9.734   6.644  14.786
74834SOL     OW26398   8.722   5.483   4.835
74834SOL    HW126399   8.762   5.418   4.777
74834SOL    HW226400   8.714   5.438   4.920
74835SOL     OW26401   5.475  10.278   2.801
74835SOL    HW126402   5.505  10.368   2.784
74835SOL    HW226403   5.481  10.234   2.716
74836SOL     OW26404   2.124  10.282   2.419
74836SOL    HW126405   2.204  10.240   2.450
74836SOL    HW226406   2.151  10.330   2.341
74837SOL     OW26407  10.708   9.063   5.919
74837SOL    HW126408  10.676   9.040   5.832
74837SOL    HW226409  10.632   9.102   5.962
74838SOL     OW26410  13.066  14.407   1.052
74838SOL    HW126411  13.153  14.431   1.084
74838SOL    HW226412  13.015  14.390   1.131
74839SOL     OW26413  11.588   0.063   1.792
74839SOL    HW126414  11.630  14.859   1.825
74839SOL    HW226415  11.657   0.110   1.745
74840SOL     OW26416  13.189   3.923  11.612
74840SOL    HW126417  13.183   4.013  11.644
74840SOL    HW226418  13.099   3.900  11.587
74841SOL     OW26419  13.323   7.174   0.956
74841SOL    HW126420  13.265   7.149   1.028
74841SOL    HW226421  13.405   7.199   0.999
74842SOL     OW26422   7.088  14.806   6.780
74842SOL    HW126423   7.141  14.743   6.732
74842SOL    HW226424   7.053  14.865   6.713
74843SOL     OW26425  14.135  11.380   8.068
74843SOL    HW126426  14.088  11.327   8.003
74843SOL    HW226427  14.210  11.326   8.093
74844SOL     OW26428   8.779   3.915   2.408
74844SOL    HW126429   8.751   3.922   2.317
74844SOL    HW226430   8.873   3.932   2.406
74845SOL     OW26431   1.665   6.903  13.178
74845SOL    HW126432   1.613   6.836  13.223
74845SOL    HW226433   1.747   6.859  13.156
74846SOL     OW26434   5.518  10.146   1.579
74846SOL    HW126435   5.463  10.070   1.560
74846SOL    HW226436   5.575  10.153   1.503
74847SOL     OW26437   2.258  12.305  14.127
74847SOL    HW126438   2.338  12.292  14.179
74847SOL    HW226439   2.284  12.369  14.061
74848SOL     OW26440  12.804   3.631   5.953
74848SOL    HW126441  12.761   3.603   6.034
74848SOL    HW226442  12.886   3.583   5.951
74849SOL     OW26443  12.164   2.547   6.499
74849SOL    HW126444  12.169   2.506   6.585
74849SOL    HW226445  12.070   2.556   6.482
74850SOL     OW26446  11.479   0.601   5.060
74850SOL    HW126447  11.405   0.541   5.053
74850SOL    HW226448  11.525   0.574   5.140
74851SOL     OW26449   8.342   9.271  11.817
74851SOL    HW126450   8.278   9.329  11.859
74851SOL    HW226451   8.290   9.219  11.756
74852SOL     OW26452  10.025   2.212   9.090
74852SOL    HW126453   9.935   2.182   9.103
74852SOL    HW226454  10.044   2.192   8.998
74853SOL     OW26455   1.784   7.750  11.690
74853SOL    HW126456   1.805   7.672  11.638
74853SOL    HW226457   1.690   7.762  11.677
74854SOL     OW26458   5.123   5.519   5.890
74854SOL    HW126459   5.199   5.528   5.948
74854SOL    HW226460   5.161   5.512   5.802
74855SOL     OW26461   3.924   9.602  11.051
74855SOL    HW126462   3.935   9.693  11.078
74855SOL    HW226463   4.009   9.576  11.017
74856SOL     OW26464   6.198   3.186   9.062
74856SOL    HW126465   6.258   3.167   8.990
74856SOL    HW226466   6.235   3.265   9.103
74857SOL     OW26467   7.470   9.054   3.883
74857SOL    HW126468   7.399   9.041   3.820
74857SOL    HW226469   7.469   8.974   3.937
74858SOL     OW26470   3.194   6.857   1.363
74858SOL    HW126471   3.191   6.946   1.399
74858SOL    HW226472   3.217   6.869   1.271
74859SOL     OW26473  13.770  12.540   4.539
74859SOL    HW126474  13.740  12.529   4.629
74859SOL    HW226475  13.692  12.531   4.486
74860SOL     OW26476  13.495   5.442   1.907
74860SOL    HW126477  13.585   5.473   1.904
74860SOL    HW226478  13.478   5.423   1.999
74861SOL     OW26479  13.448   3.365   1.161
74861SOL    HW126480  13.449   3.397   1.251
74861SOL    HW226481  13.426   3.441   1.108
74862SOL     OW26482  11.501   3.324   5.284
74862SOL    HW126483  11.578   3.283   5.324
74862SOL    HW226484  11.492   3.408   5.330
74863SOL     OW26485  14.036  12.900   1.504
74863SOL    HW126486  13.986  12.920   1.425
74863SOL    HW226487  14.016  12.808   1.522
74864SOL     OW26488   8.417   2.552   8.478
74864SOL    HW126489   8.500   2.578   8.518
74864SOL    HW226490   8.399   2.465   8.513
74865SOL     OW26491  12.974   2.686  14.810
74865SOL    HW126492  12.987   2.653  14.721
74865SOL    HW226493  13.062   2.682  14.849
74866SOL     OW26494   9.736   0.666  12.106
74866SOL    HW126495   9.749   0.615  12.186
74866SOL    HW226496   9.660   0.626  12.064
74867SOL     OW26497   9.245   5.613   9.935
74867SOL    HW126498   9.198   5.691   9.906
74867SOL    HW226499   9.336   5.640   9.939
74868SOL     OW26500  10.100   7.314   2.595
74868SOL    HW126501  10.053   7.355   2.523
74868SOL    HW226502  10.047   7.334   2.672
74869SOL     OW26503  10.594   3.784   9.518
74869SOL    HW126504  10.559   3.834   9.591
74869SOL    HW226505  10.550   3.819   9.441
74870SOL     OW26506  12.260   9.610  10.434
74870SOL    HW126507  12.231   9.560  10.358
74870SOL    HW226508  12.340   9.654  10.405
74871SOL     OW26509   0.541   6.665  14.230
74871SOL    HW126510   0.464   6.664  14.173
74871SOL    HW226511   0.615   6.673  14.169
74872SOL     OW26512   4.161   8.796   1.437
74872SOL    HW126513   4.112   8.716   1.422
74872SOL    HW226514   4.177   8.798   1.531
74873SOL     OW26515   2.052  13.367   8.428
74873SOL    HW126516   2.067  13.422   8.351
74873SOL    HW226517   2.136  13.326   8.445
74874SOL     OW26518   2.989   8.077   7.879
74874SOL    HW126519   2.914   8.060   7.822
74874SOL    HW226520   3.061   8.027   7.840
74875SOL     OW26521   6.748   9.004   2.551
74875SOL    HW126522   6.653   9.015   2.542
74875SOL    HW226523   6.785   9.067   2.489
74876SOL     OW26524   7.496   4.718  10.975
74876SOL    HW126525   7.548   4.777  10.921
74876SOL    HW226526   7.468   4.771  11.049
74877SOL     OW26527  12.697   3.674   0.796
74877SOL    HW126528  12.767   3.659   0.733
74877SOL    HW226529  12.648   3.748   0.761
74878SOL     OW26530   7.765   7.063   7.172
74878SOL    HW126531   7.725   7.139   7.215
74878SOL    HW226532   7.732   6.988   7.222
74879SOL     OW26533   4.270   2.163  12.598
74879SOL    HW126534   4.247   2.071  12.611
74879SOL    HW226535   4.316   2.165  12.514
74880SOL     OW26536   3.686   3.697   4.862
74880SOL    HW126537   3.646   3.773   4.904
74880SOL    HW226538   3.752   3.667   4.924
74881SOL     OW26539   7.975   1.317  13.117
74881SOL    HW126540   8.025   1.342  13.195
74881SOL    HW226541   7.923   1.241  13.145
74882SOL     OW26542   9.450   9.755  10.471
74882SOL    HW126543   9.540   9.751  10.503
74882SOL    HW226544   9.448   9.833  10.416
74883SOL     OW26545   5.726   2.950   5.234
74883SOL    HW126546   5.701   2.994   5.153
74883SOL    HW226547   5.803   2.899   5.211
74884SOL     OW26548  10.304   1.842  10.059
74884SOL    HW126549  10.313   1.805   9.971
74884SOL    HW226550  10.391   1.830  10.099
74885SOL     OW26551   7.129  13.314   2.094
74885SOL    HW126552   7.081  13.271   2.024
74885SOL    HW226553   7.098  13.271   2.174
74886SOL     OW26554   0.636  12.913  10.803
74886SOL    HW126555   0.607  13.004  10.813
74886SOL    HW226556   0.556  12.862  10.804
74887SOL     OW26557   0.384   1.038   5.311
74887SOL    HW126558   0.417   0.952   5.283
74887SOL    HW226559   0.463   1.092   5.318
74888SOL     OW26560   8.423  10.247  13.047
74888SOL    HW126561   8.419  10.341  13.026
74888SOL    HW226562   8.353  10.233  13.109
74889SOL     OW26563   9.890   8.802   4.520
74889SOL    HW126564   9.825   8.798   4.590
74889SOL    HW226565   9.891   8.714   4.482
74890SOL     OW26566   5.915  10.267   6.217
74890SOL    HW126567   5.955  10.329   6.157
74890SOL    HW226568   5.919  10.310   6.303
74891SOL     OW26569   3.043   1.478  10.215
74891SOL    HW126570   3.047   1.497  10.309
74891SOL    HW226571   3.112   1.532  10.177
74892SOL     OW26572   8.142   4.344   3.097
74892SOL    HW126573   8.121   4.268   3.043
74892SOL    HW226574   8.147   4.416   3.034
74893SOL     OW26575   1.365   6.926   9.990
74893SOL    HW126576   1.301   6.988   9.954
74893SOL    HW226577   1.313   6.850  10.017
74894SOL     OW26578   2.264  10.148   1.169
74894SOL    HW126579   2.329  10.094   1.215
74894SOL    HW226580   2.296  10.154   1.079
74895SOL     OW26581   7.586  11.562   8.057
74895SOL    HW126582   7.553  11.478   8.089
74895SOL    HW226583   7.543  11.575   7.973
74896SOL     OW26584   2.414   4.289   4.876
74896SOL    HW126585   2.363   4.217   4.838
74896SOL    HW226586   2.354   4.332   4.936
74897SOL     OW26587   3.822   0.285   4.288
74897SOL    HW126588   3.800   0.352   4.223
74897SOL    HW226589   3.795   0.322   4.372
74898SOL     OW26590   2.945  14.822  14.558
74898SOL    HW126591   2.994   0.010  14.611
74898SOL    HW226592   2.995  14.815  14.476
74899SOL     OW26593   3.856   8.130   7.750
74899SOL    HW126594   3.803   8.124   7.671
74899SOL    HW226595   3.945   8.110   7.720
74900SOL     OW26596  12.608  10.564  11.819
74900SOL    HW126597  12.516  10.564  11.846
74900SOL    HW226598  12.636  10.473  11.831
74901SOL     OW26599   7.470  10.468   2.995
74901SOL    HW126600   7.512  10.383   3.007
74901SOL    HW226601   7.452  10.499   3.084
74902SOL     OW26602   5.728   6.653   9.070
74902SOL    HW126603   5.717   6.721   9.004
74902SOL    HW226604   5.730   6.701   9.153
74903SOL     OW26605  11.131   3.302   2.402
74903SOL    HW126606  11.086   3.263   2.477
74903SOL    HW226607  11.177   3.229   2.361
74904SOL     OW26608  10.263  12.802  12.094
74904SOL    HW126609  10.315  12.736  12.048
74904SOL    HW226610  10.174  12.789  12.062
74905SOL     OW26611  12.085   6.412   5.557
74905SOL    HW126612  12.146   6.413   5.631
74905SOL    HW226613  12.026   6.339   5.574
74906SOL     OW26614   0.519   4.677   6.828
74906SOL    HW126615   0.555   4.622   6.759
74906SOL    HW226616   0.590   4.738   6.849
74907SOL     OW26617   9.544   8.130   4.983
74907SOL    HW126618   9.470   8.160   4.930
74907SOL    HW226619   9.578   8.054   4.936
74908SOL     OW26620  12.327   6.168  11.208
74908SOL    HW126621  12.361   6.220  11.135
74908SOL    HW226622  12.389   6.185  11.279
74909SOL     OW26623   3.749   0.333  11.895
74909SOL    HW126624   3.661   0.349  11.862
74909SOL    HW226625   3.771   0.245  11.866
74910SOL     OW26626   3.630   2.284   0.492
74910SOL    HW126627   3.703   2.322   0.443
74910SOL    HW226628   3.672   2.230   0.559
74911SOL     OW26629   7.816  11.142   1.090
74911SOL    HW126630   7.841  11.085   1.163
74911SOL    HW226631   7.893  11.142   1.032
74912SOL     OW26632   6.471   1.399  10.065
74912SOL    HW126633   6.480   1.484  10.107
74912SOL    HW226634   6.510   1.410   9.979
74913SOL     OW26635  12.679   8.352  10.087
74913SOL    HW126636  12.632   8.428  10.121
74913SOL    HW226637  12.768   8.363  10.118
74914SOL     OW26638  14.671  14.552  10.164
74914SOL    HW126639  14.624  14.618  10.217
74914SOL    HW226640  14.755  14.542  10.208
74915SOL     OW26641   6.521   6.293   6.713
74915SOL    HW126642   6.611   6.286   6.681
74915SOL    HW226643   6.517   6.235   6.788
74916SOL     OW26644  11.619   8.778   3.878
74916SOL    HW126645  11.636   8.862   3.921
74916SOL    HW226646  11.584   8.802   3.792
74917SOL     OW26647   5.691  10.854   0.945
74917SOL    HW126648   5.747  10.907   0.888
74917SOL    HW226649   5.683  10.906   1.025
74918SOL     OW26650   0.871  14.272   8.471
74918SOL    HW126651   0.847  14.189   8.429
74918SOL    HW226652   0.839  14.340   8.411
74919SOL     OW26653   6.487   5.768  13.734
74919SOL    HW126654   6.554   5.833  13.753
74919SOL    HW226655   6.442   5.754  13.818
74920SOL     OW26656  10.376   0.373   1.731
74920SOL    HW126657  10.344   0.462   1.748
74920SOL    HW226658  10.455   0.366   1.785
74921SOL     OW26659  11.983  13.767   8.330
74921SOL    HW126660  11.995  13.861   8.339
74921SOL    HW226661  12.030  13.729   8.404
74922SOL     OW26662  13.304   3.257   7.382
74922SOL    HW126663  13.315   3.217   7.469
74922SOL    HW226664  13.214   3.290   7.382
74923SOL     OW26665   5.386   1.715  14.000
74923SOL    HW126666   5.422   1.804  13.996
74923SOL    HW226667   5.299   1.723  13.961
74924SOL     OW26668  12.666  11.195   0.965
74924SOL    HW126669  12.688  11.238   0.882
74924SOL    HW226670  12.696  11.105   0.954
74925SOL     OW26671  12.581   5.284   0.431
74925SOL    HW126672  12.615   5.211   0.379
74925SOL    HW226673  12.486   5.282   0.416
74926SOL     OW26674   2.872   5.966   1.124
74926SOL    HW126675   2.869   5.995   1.033
74926SOL    HW226676   2.924   6.034   1.169
74927SOL     OW26677   7.112   3.615   6.817
74927SOL    HW126678   7.186   3.554   6.823
74927SOL    HW226679   7.141   3.681   6.755
74928SOL     OW26680  10.106   2.834   4.037
74928SOL    HW126681  10.079   2.869   4.122
74928SOL    HW226682  10.042   2.764   4.019
74929SOL     OW26683   9.632   3.916  10.643
74929SOL    HW126684   9.672   4.002  10.650
74929SOL    HW226685   9.702   3.860  10.608
74930SOL     OW26686   6.581   6.713   7.972
74930SOL    HW126687   6.618   6.698   8.059
74930SOL    HW226688   6.656   6.704   7.912
74931SOL     OW26689  12.358  11.648  10.420
74931SOL    HW126690  12.421  11.712  10.454
74931SOL    HW226691  12.277  11.697  10.409
74932SOL     OW26692   9.397   1.686  13.398
74932SOL    HW126693   9.392   1.743  13.321
74932SOL    HW226694   9.446   1.610  13.368
74933SOL     OW26695  13.990  10.944  12.761
74933SOL    HW126696  14.078  10.972  12.736
74933SOL    HW226697  14.001  10.852  12.785
74934SOL     OW26698   5.666   1.925   7.468
74934SOL    HW126699   5.678   1.888   7.556
74934SOL    HW226700   5.588   1.979   7.476
74935SOL     OW26701   4.092   2.622   3.985
74935SOL    HW126702   4.030   2.687   3.952
74935SOL    HW226703   4.117   2.654   4.072
74936SOL     OW26704  13.406   4.058   4.420
74936SOL    HW126705  13.342   3.992   4.448
74936SOL    HW226706  13.475   4.053   4.485
74937SOL     OW26707   4.458  11.651   3.794
74937SOL    HW126708   4.440  11.585   3.860
74937SOL    HW226709   4.540  11.623   3.754
74938SOL     OW26710   8.285  14.171   3.425
74938SOL    HW126711   8.341  14.172   3.503
74938SOL    HW226712   8.223  14.099   3.441
74939SOL     OW26713   2.128   3.522   3.651
74939SOL    HW126714   2.156   3.481   3.569
74939SOL    HW226715   2.194   3.495   3.715
74940SOL     OW26716   7.558   3.963  11.027
74940SOL    HW126717   7.628   3.996  10.971
74940SOL    HW226718   7.521   3.889  10.978
74941SOL     OW26719   8.394  11.727   1.067
74941SOL    HW126720   8.442  11.810   1.066
74941SOL    HW226721   8.414  11.687   0.983
74942SOL     OW26722   8.234   1.705   9.006
74942SOL    HW126723   8.181   1.657   9.070
74942SOL    HW226724   8.297   1.640   8.973
74943SOL     OW26725  14.589  13.654   0.060
74943SOL    HW126726  14.589  13.591   0.132
74943SOL    HW226727  14.598  13.600  14.856
74944SOL     OW26728   5.760  13.515   7.811
74944SOL    HW126729   5.833  13.568   7.844
74944SOL    HW226730   5.683  13.551   7.854
74945SOL     OW26731   2.795   8.698   9.022
74945SOL    HW126732   2.812   8.611   9.058
74945SOL    HW226733   2.708   8.722   9.056
74946SOL     OW26734   6.773   0.491   9.115
74946SOL    HW126735   6.725   0.446   9.184
74946SOL    HW226736   6.836   0.547   9.162
74947SOL     OW26737  11.944  10.281  12.985
74947SOL    HW126738  11.936  10.321  13.071
74947SOL    HW226739  11.900  10.196  12.993
74948SOL     OW26740   7.274  10.547  12.522
74948SOL    HW126741   7.336  10.619  12.535
74948SOL    HW226742   7.233  10.535  12.607
74949SOL     OW26743   4.246  10.735  12.792
74949SOL    HW126744   4.227  10.657  12.844
74949SOL    HW226745   4.238  10.707  12.701
74950SOL     OW26746   3.089   8.420  12.859
74950SOL    HW126747   2.999   8.390  12.842
74950SOL    HW226748   3.138   8.339  12.872
74951SOL     OW26749  14.523   6.793   9.480
74951SOL    HW126750  14.481   6.718   9.521
74951SOL    HW226751  14.602   6.758   9.439
74952SOL     OW26752   4.577   7.289   9.083
74952SOL    HW126753   4.667   7.277   9.113
74952SOL    HW226754   4.553   7.376   9.116
74953SOL     OW26755   4.472   8.311  13.338
74953SOL    HW126756   4.554   8.269  13.365
74953SOL    HW226757   4.412   8.294  13.411
74954SOL     OW26758  13.025   1.007  14.812
74954SOL    HW126759  13.107   0.985  14.858
74954SOL    HW226760  13.049   1.080  14.755
74955SOL     OW26761   2.991   1.943   8.055
74955SOL    HW126762   3.062   1.898   8.101
74955SOL    HW226763   3.024   1.958   7.967
74956SOL     OW26764   4.911   1.479   4.318
74956SOL    HW126765   4.901   1.542   4.247
74956SOL    HW226766   4.930   1.531   4.395
74957SOL     OW26767  11.222   9.861   3.246
74957SOL    HW126768  11.318   9.860   3.245
74957SOL    HW226769  11.198   9.814   3.326
74958SOL     OW26770   9.134  10.196   8.495
74958SOL    HW126771   9.155  10.252   8.420
74958SOL    HW226772   9.200  10.128   8.493
74959SOL     OW26773   7.458   4.489   7.045
74959SOL    HW126774   7.524   4.422   7.062
74959SOL    HW226775   7.503   4.552   6.987
74960SOL     OW26776   1.689   5.109   0.176
74960SOL    HW126777   1.768   5.093   0.227
74960SOL    HW226778   1.710   5.075   0.089
74961SOL     OW26779   5.846  11.300  11.587
74961SOL    HW126780   5.754  11.304  11.615
74961SOL    HW226781   5.842  11.292  11.492
74962SOL     OW26782   3.319  14.874   8.810
74962SOL    HW126783   3.266  14.795   8.814
74962SOL    HW226784   3.366   0.001   8.893
74963SOL     OW26785   0.857  10.094   0.108
74963SOL    HW126786   0.807  10.015   0.126
74963SOL    HW226787   0.791  10.157   0.079
74964SOL     OW26788  10.033   1.830   9.874
74964SOL    HW126789   9.955   1.786   9.841
74964SOL    HW226790  10.018   1.923   9.854
74965SOL     OW26791   0.989   4.880   6.374
74965SOL    HW126792   1.013   4.861   6.283
74965SOL    HW226793   0.894   4.870   6.377
74966SOL     OW26794   5.174  13.920   7.848
74966SOL    HW126795   5.128  13.912   7.765
74966SOL    HW226796   5.260  13.956   7.824
74967SOL     OW26797   9.552  13.867   7.766
74967SOL    HW126798   9.496  13.855   7.843
74967SOL    HW226799   9.619  13.798   7.773
74968SOL     OW26800   0.266   8.738  13.936
74968SOL    HW126801   0.281   8.693  14.019
74968SOL    HW226802   0.185   8.699  13.903
74969SOL     OW26803   0.762  13.374   8.576
74969SOL    HW126804   0.759  13.431   8.653
74969SOL    HW226805   0.789  13.431   8.504
74970SOL     OW26806  11.914   4.266  11.192
74970SOL    HW126807  11.996   4.272  11.241
74970SOL    HW226808  11.848   4.250  11.259
74971SOL     OW26809  13.107   5.502   3.327
74971SOL    HW126810  13.132   5.594   3.335
74971SOL    HW226811  13.113   5.484   3.233
74972SOL     OW26812   3.539   5.593  13.242
74972SOL    HW126813   3.450   5.567  13.264
74972SOL    HW226814   3.594   5.540  13.299
74973SOL     OW26815  13.936  10.022   7.745
74973SOL    HW126816  13.881   9.960   7.696
74973SOL    HW226817  13.952  10.094   7.684
74974SOL     OW26818   9.225   6.988   5.388
74974SOL    HW126819   9.148   7.038   5.415
74974SOL    HW226820   9.281   7.052   5.344
74975SOL     OW26821  13.536   0.273   2.998
74975SOL    HW126822  13.620   0.307   2.968
74975SOL    HW226823  13.480   0.275   2.921
74976SOL     OW26824   5.796  14.141   5.322
74976SOL    HW126825   5.794  14.231   5.353
74976SOL    HW226826   5.851  14.094   5.385
74977SOL     OW26827   0.059   9.276   9.075
74977SOL    HW126828  14.842   9.304   9.067
74977SOL    HW226829   0.096   9.292   8.989
74978SOL     OW26830   9.421   3.881   4.287
74978SOL    HW126831   9.402   3.814   4.352
74978SOL    HW226832   9.417   3.963   4.336
74979SOL     OW26833   0.029   6.427  10.758
74979SOL    HW126834  14.851   6.502  10.729
74979SOL    HW226835   0.031   6.369  10.682
74980SOL     OW26836   9.762   9.210   4.995
74980SOL    HW126837   9.805   9.142   4.943
74980SOL    HW226838   9.788   9.292   4.953
74981SOL     OW26839   0.276   9.901   1.696
74981SOL    HW126840   0.289   9.992   1.724
74981SOL    HW226841   0.345   9.886   1.631
74982SOL     OW26842   4.651   4.632  13.439
74982SOL    HW126843   4.737   4.590  13.439
74982SOL    HW226844   4.598   4.579  13.380
74983SOL     OW26845  13.094   8.961  11.656
74983SOL    HW126846  13.018   8.937  11.709
74983SOL    HW226847  13.108   9.053  11.676
74984SOL     OW26848  13.938   1.815   5.420
74984SOL    HW126849  13.850   1.850   5.431
74984SOL    HW226850  13.929   1.721   5.435
74985SOL     OW26851   9.262  10.282   3.373
74985SOL    HW126852   9.251  10.195   3.334
74985SOL    HW226853   9.173  10.308   3.399
74986SOL     OW26854  10.549  13.504  10.842
74986SOL    HW126855  10.528  13.430  10.786
74986SOL    HW226856  10.471  13.559  10.839
74987SOL     OW26857  10.327   0.099   7.616
74987SOL    HW126858  10.235   0.124   7.622
74987SOL    HW226859  10.324   0.006   7.592
74988SOL     OW26860   3.503   8.540   0.741
74988SOL    HW126861   3.473   8.631   0.732
74988SOL    HW226862   3.596   8.544   0.718
74989SOL     OW26863   0.413   7.876  12.436
74989SOL    HW126864   0.473   7.934  12.389
74989SOL    HW226865   0.454   7.790  12.433
74990SOL     OW26866  11.585   7.078   6.242
74990SOL    HW126867  11.545   7.153   6.198
74990SOL    HW226868  11.679   7.090   6.230
74991SOL     OW26869   0.129  13.447   1.311
74991SOL    HW126870   0.034  13.459   1.308
74991SOL    HW226871   0.141  13.354   1.291
74992SOL     OW26872   2.089  13.529   5.446
74992SOL    HW126873   2.162  13.467   5.447
74992SOL    HW226874   2.021  13.487   5.498
74993SOL     OW26875   2.814   1.240   3.125
74993SOL    HW126876   2.793   1.333   3.122
74993SOL    HW226877   2.811   1.211   3.034
74994SOL     OW26878  10.611   8.057  12.247
74994SOL    HW126879  10.610   8.116  12.171
74994SOL    HW226880  10.601   8.115  12.322
74995SOL     OW26881   0.124   8.443   9.745
74995SOL    HW126882   0.117   8.517   9.806
74995SOL    HW226883   0.181   8.380   9.789
74996SOL     OW26884  12.461   5.583   3.441
74996SOL    HW126885  12.399   5.522   3.482
74996SOL    HW226886  12.464   5.556   3.350
74997SOL     OW26887  12.156   3.647   1.561
74997SOL    HW126888  12.117   3.721   1.607
74997SOL    HW226889  12.237   3.629   1.609
74998SOL     OW26890   3.992   3.097   1.444
74998SOL    HW126891   3.993   3.074   1.351
74998SOL    HW226892   4.084   3.089   1.472
74999SOL     OW26893   4.680  12.961   6.104
74999SOL    HW126894   4.609  12.899   6.118
74999SOL    HW226895   4.662  13.033   6.165
75000SOL     OW26896   5.581   9.603   4.505
75000SOL    HW126897   5.668   9.586   4.468
75000SOL    HW226898   5.584   9.694   4.534
75001SOL     OW26899   4.058   6.521   2.751
75001SOL    HW126900   4.104   6.437   2.758
75001SOL    HW226901   3.983   6.512   2.810
75002SOL     OW26902  14.559   6.507   0.354
75002SOL    HW126903  14.586   6.446   0.423
75002SOL    HW226904  14.639   6.522   0.303
75003SOL     OW26905   2.691   6.588   5.255
75003SOL    HW126906   2.608   6.565   5.215
75003SOL    HW226907   2.731   6.504   5.278
75004SOL     OW26908  11.831   0.993   2.889
75004SOL    HW126909  11.753   1.038   2.855
75004SOL    HW226910  11.903   1.053   2.869
75005SOL     OW26911   7.661   6.850  12.639
75005SOL    HW126912   7.593   6.803  12.687
75005SOL    HW226913   7.710   6.782  12.593
75006SOL     OW26914   9.105   5.395   7.887
75006SOL    HW126915   9.023   5.361   7.923
75006SOL    HW226916   9.146   5.440   7.961
75007SOL     OW26917  11.834  13.195   5.329
75007SOL    HW126918  11.780  13.273   5.331
75007SOL    HW226919  11.804  13.142   5.403
75008SOL     OW26920  14.426   5.337   4.260
75008SOL    HW126921  14.412   5.393   4.184
75008SOL    HW226922  14.428   5.248   4.225
75009SOL     OW26923   5.267   6.242  13.359
75009SOL    HW126924   5.275   6.324  13.408
75009SOL    HW226925   5.285   6.174  13.424
75010SOL     OW26926   0.147   3.811  14.517
75010SOL    HW126927   0.236   3.811  14.550
75010SOL    HW226928   0.134   3.722  14.482
75011SOL     OW26929   9.576   4.956  13.962
75011SOL    HW126930   9.600   5.039  14.002
75011SOL    HW226931   9.609   4.963  13.872
75012SOL     OW26932   9.656  13.000   1.625
75012SOL    HW126933   9.700  13.014   1.541
75012SOL    HW226934   9.683  13.074   1.679
75013SOL     OW26935  12.375  13.687   9.082
75013SOL    HW126936  12.329  13.746   9.023
75013SOL    HW226937  12.467  13.715   9.078
75014SOL     OW26938  12.853   2.430   5.987
75014SOL    HW126939  12.851   2.526   5.980
75014SOL    HW226940  12.818   2.412   6.075
75015SOL     OW26941   5.815  12.325  10.695
75015SOL    HW126942   5.737  12.281  10.729
75015SOL    HW226943   5.853  12.263  10.633
75016SOL     OW26944   9.752  12.693  14.830
75016SOL    HW126945   9.762  12.644  14.748
75016SOL    HW226946   9.707  12.773  14.804
75017SOL     OW26947   4.078   7.991   4.598
75017SOL    HW126948   4.140   7.923   4.571
75017SOL    HW226949   4.129   8.072   4.595
75018SOL     OW26950   2.317  10.148  13.594
75018SOL    HW126951   2.341  10.169  13.684
75018SOL    HW226952   2.263  10.069  13.602
75019SOL     OW26953   1.981   2.004   8.650
75019SOL    HW126954   1.979   1.923   8.701
75019SOL    HW226955   2.069   2.008   8.615
75020SOL     OW26956   7.455  14.852   9.683
75020SOL    HW126957   7.539  14.853   9.728
75020SOL    HW226958   7.393  14.819   9.748
75021SOL     OW26959   0.383   3.159   3.418
75021SOL    HW126960   0.449   3.094   3.441
75021SOL    HW226961   0.310   3.140   3.477
75022SOL     OW26962  12.738   0.931  10.901
75022SOL    HW126963  12.706   0.841  10.909
75022SOL    HW226964  12.748   0.944  10.807
75023SOL     OW26965   0.952   6.963  13.362
75023SOL    HW126966   0.974   6.881  13.317
75023SOL    HW226967   0.930   7.024  13.292
75024SOL     OW26968   0.336  11.562   9.781
75024SOL    HW126969   0.325  11.555   9.686
75024SOL    HW226970   0.381  11.481   9.805
75025SOL     OW26971   9.054  11.429   9.858
75025SOL    HW126972   9.110  11.364   9.900
75025SOL    HW226973   9.025  11.387   9.777
75026SOL     OW26974   1.358   5.613   3.856
75026SOL    HW126975   1.439   5.569   3.831
75026SOL    HW226976   1.386   5.697   3.893
75027SOL     OW26977   0.808  12.267   8.478
75027SOL    HW126978   0.828  12.262   8.571
75027SOL    HW226979   0.887  12.235   8.435
75028SOL     OW26980   8.996  13.109   3.117
75028SOL    HW126981   9.086  13.081   3.100
75028SOL    HW226982   8.984  13.095   3.211
75029SOL     OW26983  11.441   7.536  11.760
75029SOL    HW126984  11.404   7.598  11.823
75029SOL    HW226985  11.507   7.488  11.809
75030SOL     OW26986   4.716  12.515   1.065
75030SOL    HW126987   4.781  12.445   1.074
75030SOL    HW226988   4.758  12.592   1.104
75031SOL     OW26989  11.946   3.671   3.439
75031SOL    HW126990  11.908   3.701   3.521
75031SOL    HW226991  11.871   3.656   3.381
75032SOL     OW26992   1.507   2.553  12.127
75032SOL    HW126993   1.537   2.607  12.054
75032SOL    HW226994   1.412   2.566  12.130
75033SOL     OW26995   2.630   3.186   1.219
75033SOL    HW126996   2.667   3.098   1.208
75033SOL    HW226997   2.696   3.244   1.180
75034SOL     OW26998  14.676  10.531   1.328
75034SOL    HW126999  14.659  10.620   1.299
75034SOL    HW227000  14.593  10.503   1.368
75035SOL     OW27001  13.619  14.266   8.837
75035SOL    HW127002  13.675  14.232   8.906
75035SOL    HW227003  13.543  14.303   8.883
75036SOL     OW27004  13.229   3.678   7.984
75036SOL    HW127005  13.305   3.650   8.035
75036SOL    HW227006  13.260   3.677   7.893
75037SOL     OW27007  12.138   2.554   2.262
75037SOL    HW127008  12.103   2.478   2.215
75037SOL    HW227009  12.169   2.519   2.345
75038SOL     OW27010   2.071  13.818   6.245
75038SOL    HW127011   2.033  13.733   6.225
75038SOL    HW227012   2.033  13.877   6.180
75039SOL     OW27013  13.980   9.315   8.481
75039SOL    HW127014  13.964   9.384   8.416
75039SOL    HW227015  14.074   9.295   8.473
75040SOL     OW27016  11.532   4.171   9.816
75040SOL    HW127017  11.548   4.170   9.722
75040SOL    HW227018  11.598   4.113   9.852
75041SOL     OW27019  10.628   4.302   3.827
75041SOL    HW127020  10.715   4.335   3.803
75041SOL    HW227021  10.574   4.381   3.833
75042SOL     OW27022   2.358   8.282  10.674
75042SOL    HW127023   2.383   8.374  10.663
75042SOL    HW227024   2.267   8.286  10.703
75043SOL     OW27025   3.930   5.610   0.506
75043SOL    HW127026   3.985   5.535   0.529
75043SOL    HW227027   3.854   5.603   0.563
75044SOL     OW27028   9.998   5.428   5.587
75044SOL    HW127029   9.996   5.371   5.664
75044SOL    HW227030  10.080   5.407   5.543
75045SOL     OW27031   5.676   6.231   5.980
75045SOL    HW127032   5.724   6.222   5.897
75045SOL    HW227033   5.665   6.141   6.011
75046SOL     OW27034  13.065  12.909   9.292
75046SOL    HW127035  12.998  12.970   9.324
75046SOL    HW227036  13.125  12.964   9.241
75047SOL     OW27037   9.005   1.140   6.947
75047SOL    HW127038   9.032   1.232   6.937
75047SOL    HW227039   9.017   1.102   6.860
75048SOL     OW27040   3.233   7.703   7.071
75048SOL    HW127041   3.186   7.644   7.012
75048SOL    HW227042   3.170   7.723   7.140
75049SOL     OW27043  14.136  12.344   3.982
75049SOL    HW127044  14.186  12.266   4.006
75049SOL    HW227045  14.085  12.365   4.060
75050SOL     OW27046   5.128   5.948   2.946
75050SOL    HW127047   5.156   5.865   2.907
75050SOL    HW227048   5.127   6.009   2.872
75051SOL     OW27049   4.160  12.031   2.217
75051SOL    HW127050   4.141  12.075   2.134
75051SOL    HW227051   4.074  12.009   2.253
75052SOL     OW27052   4.800  14.272   6.985
75052SOL    HW127053   4.809  14.296   6.893
75052SOL    HW227054   4.709  14.244   6.994
75053SOL     OW27055  12.375   1.680   2.239
75053SOL    HW127056  12.459   1.716   2.268
75053SOL    HW227057  12.313   1.752   2.250
75054SOL     OW27058   7.259  13.747  14.090
75054SOL    HW127059   7.254  13.711  14.178
75054SOL    HW227060   7.183  13.709  14.045
75055SOL     OW27061   6.334   5.677   3.747
75055SOL    HW127062   6.310   5.678   3.839
75055SOL    HW227063   6.268   5.623   3.704
75056SOL     OW27064   8.563   1.358   6.737
75056SOL    HW127065   8.473   1.330   6.717
75056SOL    HW227066   8.565   1.364   6.833
75057SOL     OW27067   3.536   1.501  12.794
75057SOL    HW127068   3.553   1.432  12.858
75057SOL    HW227069   3.608   1.495  12.732
75058SOL     OW27070   1.668   8.238   4.882
75058SOL    HW127071   1.707   8.318   4.917
75058SOL    HW227072   1.673   8.175   4.953
75059SOL     OW27073   5.935   8.253   1.518
75059SOL    HW127074   6.021   8.233   1.556
75059SOL    HW227075   5.873   8.210   1.576
75060SOL     OW27076   8.726  12.795  13.866
75060SOL    HW127077   8.710  12.830  13.954
75060SOL    HW227078   8.660  12.726  13.856
75061SOL     OW27079   7.518  13.955   1.626
75061SOL    HW127080   7.579  14.023   1.598
75061SOL    HW227081   7.518  13.960   1.722
75062SOL     OW27082  13.451  14.433   7.629
75062SOL    HW127083  13.523  14.390   7.583
75062SOL    HW227084  13.373  14.387   7.600
75063SOL     OW27085   6.641  14.121  10.338
75063SOL    HW127086   6.633  14.070  10.419
75063SOL    HW227087   6.552  14.149  10.320
75064SOL     OW27088  11.383  13.081  13.645
75064SOL    HW127089  11.311  13.145  13.644
75064SOL    HW227090  11.400  13.066  13.738
75065SOL     OW27091   6.650   5.996   2.542
75065SOL    HW127092   6.604   5.913   2.559
75065SOL    HW227093   6.641   6.046   2.624
75066SOL     OW27094   6.887   4.755   3.568
75066SOL    HW127095   6.821   4.820   3.589
75066SOL    HW227096   6.841   4.671   3.573
75067SOL     OW27097   0.584   6.870   6.426
75067SOL    HW127098   0.664   6.843   6.381
75067SOL    HW227099   0.615   6.898   6.513
75068SOL     OW27100  14.786  12.707   4.586
75068SOL    HW127101  14.852  12.741   4.646
75068SOL    HW227102  14.713  12.680   4.642
75069SOL     OW27103  10.803   2.937  11.877
75069SOL    HW127104  10.872   2.873  11.893
75069SOL    HW227105  10.804   2.950  11.782
75070SOL     OW27106   7.569  11.786   5.407
75070SOL    HW127107   7.559  11.691   5.405
75070SOL    HW227108   7.658  11.800   5.440
75071SOL     OW27109  13.369  12.880  14.152
75071SOL    HW127110  13.319  12.956  14.122
75071SOL    HW227111  13.457  12.915  14.170
75072SOL     OW27112   0.269  12.029   8.247
75072SOL    HW127113   0.347  12.046   8.299
75072SOL    HW227114   0.303  12.005   8.161
75073SOL     OW27115   6.530   7.797   6.054
75073SOL    HW127116   6.454   7.779   6.110
75073SOL    HW227117   6.532   7.723   5.993
75074SOL     OW27118  10.970   6.514  10.520
75074SOL    HW127119  11.048   6.462  10.539
75074SOL    HW227120  11.005   6.601  10.498
75075SOL     OW27121   7.977   2.203  14.226
75075SOL    HW127122   7.967   2.149  14.148
75075SOL    HW227123   8.056   2.169  14.269
75076SOL     OW27124  10.394   5.500   7.321
75076SOL    HW127125  10.381   5.409   7.347
75076SOL    HW227126  10.339   5.551   7.381
75077SOL     OW27127  12.642  14.324   3.872
75077SOL    HW127128  12.627  14.270   3.794
75077SOL    HW227129  12.726  14.367   3.855
75078SOL     OW27130   4.705   7.331  10.560
75078SOL    HW127131   4.664   7.255  10.520
75078SOL    HW227132   4.799   7.313  10.554
75079SOL     OW27133   9.661  11.732   1.706
75079SOL    HW127134   9.595  11.796   1.733
75079SOL    HW227135   9.612  11.670   1.652
75080SOL     OW27136   6.283   1.606   4.257
75080SOL    HW127137   6.364   1.557   4.268
75080SOL    HW227138   6.286   1.674   4.324
75081SOL     OW27139   5.385   2.558   4.631
75081SOL    HW127140   5.428   2.526   4.552
75081SOL    HW227141   5.322   2.490   4.653
75082SOL     OW27142   6.218   5.943   6.132
75082SOL    HW127143   6.285   5.909   6.192
75082SOL    HW227144   6.203   6.033   6.161
75083SOL     OW27145  14.241   7.441   7.941
75083SOL    HW127146  14.153   7.433   7.905
75083SOL    HW227147  14.297   7.455   7.864
75084SOL     OW27148   8.322   1.586  13.320
75084SOL    HW127149   8.233   1.621  13.320
75084SOL    HW227150   8.328   1.534  13.401
75085SOL     OW27151   1.504  12.626   2.489
75085SOL    HW127152   1.440  12.686   2.527
75085SOL    HW227153   1.461  12.590   2.412
75086SOL     OW27154  13.634  10.560   1.254
75086SOL    HW127155  13.606  10.476   1.290
75086SOL    HW227156  13.730  10.556   1.256
75087SOL     OW27157   0.603  11.958   9.245
75087SOL    HW127158   0.647  11.999   9.319
75087SOL    HW227159   0.639  11.869   9.242
75088SOL     OW27160   3.322   9.510   0.148
75088SOL    HW127161   3.358   9.423   0.131
75088SOL    HW227162   3.327   9.555   0.063
75089SOL     OW27163   3.976   9.327  14.041
75089SOL    HW127164   3.921   9.403  14.062
75089SOL    HW227165   3.945   9.259  14.101
75090SOL     OW27166  10.110   1.858   5.904
75090SOL    HW127167  10.072   1.871   5.817
75090SOL    HW227168  10.086   1.937   5.952
75091SOL     OW27169   4.594   4.123  13.547
75091SOL    HW127170   4.602   4.074  13.465
75091SOL    HW227171   4.555   4.060  13.608
75092SOL     OW27172   4.413  14.006   4.117
75092SOL    HW127173   4.467  14.029   4.192
75092SOL    HW227174   4.357  14.083   4.104
75093SOL     OW27175  10.771  11.072   5.600
75093SOL    HW127176  10.717  11.145   5.571
75093SOL    HW227177  10.786  11.020   5.521
75094SOL     OW27178   7.264  13.344  11.720
75094SOL    HW127179   7.229  13.346  11.631
75094SOL    HW227180   7.355  13.373  11.711
75095SOL     OW27181   9.249  14.378   3.321
75095SOL    HW127182   9.165  14.334   3.309
75095SOL    HW227183   9.315  14.309   3.311
75096SOL     OW27184   3.445   9.722  11.092
75096SOL    HW127185   3.444   9.708  11.187
75096SOL    HW227186   3.353   9.738  11.070
75097SOL     OW27187   7.236   3.630   3.658
75097SOL    HW127188   7.224   3.536   3.664
75097SOL    HW227189   7.324   3.646   3.694
75098SOL     OW27190   5.927  11.728   0.177
75098SOL    HW127191   5.927  11.737   0.272
75098SOL    HW227192   6.006  11.774   0.148
75099SOL     OW27193  11.995   4.485   4.853
75099SOL    HW127194  11.986   4.529   4.769
75099SOL    HW227195  12.039   4.549   4.909
75100SOL     OW27196   2.796   4.757   4.292
75100SOL    HW127197   2.767   4.738   4.202
75100SOL    HW227198   2.835   4.675   4.321
75101SOL     OW27199  11.635   4.978   8.285
75101SOL    HW127200  11.696   4.923   8.236
75101SOL    HW227201  11.662   4.968   8.377
75102SOL     OW27202  13.723   4.159   5.557
75102SOL    HW127203  13.702   4.227   5.492
75102SOL    HW227204  13.736   4.080   5.505
75103SOL     OW27205   7.658  11.546   6.388
75103SOL    HW127206   7.618  11.508   6.466
75103SOL    HW227207   7.661  11.640   6.406
75104SOL     OW27208   5.002   1.981  13.949
75104SOL    HW127209   4.918   1.944  13.923
75104SOL    HW227210   4.980   2.064  13.991
75105SOL     OW27211   9.812  12.079   5.144
75105SOL    HW127212   9.781  12.067   5.054
75105SOL    HW227213   9.830  12.172   5.151
75106SOL     OW27214   4.505  12.701  12.480
75106SOL    HW127215   4.554  12.709  12.398
75106SOL    HW227216   4.569  12.720  12.549
75107SOL     OW27217   8.590   8.162   9.998
75107SOL    HW127218   8.578   8.098  10.068
75107SOL    HW227219   8.612   8.243  10.044
75108SOL     OW27220   7.911  14.828  10.822
75108SOL    HW127221   7.888  14.735  10.829
75108SOL    HW227222   7.939  14.852  10.910
75109SOL     OW27223  14.178   5.255  10.163
75109SOL    HW127224  14.153   5.196  10.234
75109SOL    HW227225  14.263   5.222  10.133
75110SOL     OW27226  11.172   3.796   4.897
75110SOL    HW127227  11.257   3.773   4.860
75110SOL    HW227228  11.127   3.712   4.910
75111SOL     OW27229   7.810   1.439   4.368
75111SOL    HW127230   7.887   1.385   4.351
75111SOL    HW227231   7.777   1.408   4.452
75112SOL     OW27232   6.231  11.195  14.628
75112SOL    HW127233   6.258  11.176  14.538
75112SOL    HW227234   6.146  11.236  14.620
75113SOL     OW27235   7.498  11.702  12.523
75113SOL    HW127236   7.449  11.620  12.536
75113SOL    HW227237   7.562  11.681  12.455
75114SOL     OW27238  14.515   5.633   7.151
75114SOL    HW127239  14.606   5.643   7.124
75114SOL    HW227240  14.465   5.629   7.070
75115SOL     OW27241  14.843   0.911   7.000
75115SOL    HW127242  14.851   0.832   7.053
75115SOL    HW227243  14.831   0.879   6.911
75116SOL     OW27244   1.872  11.994   3.815
75116SOL    HW127245   1.786  12.023   3.846
75116SOL    HW227246   1.864  11.990   3.720
75117SOL     OW27247   0.597  14.817  12.966
75117SOL    HW127248   0.638  14.852  12.887
75117SOL    HW227249   0.631  14.728  12.974
75118SOL     OW27250   1.296   0.075   3.732
75118SOL    HW127251   1.340  14.868   3.754
75118SOL    HW227252   1.359   0.122   3.677
75119SOL     OW27253  10.734   5.847   2.530
75119SOL    HW127254  10.657   5.820   2.580
75119SOL    HW227255  10.734   5.790   2.453
75120SOL     OW27256   6.473  11.468   9.985
75120SOL    HW127257   6.489  11.466  10.080
75120SOL    HW227258   6.410  11.540   9.974
75121SOL     OW27259   0.084  12.798  13.743
75121SOL    HW127260   0.034  12.762  13.670
75121SOL    HW227261   0.078  12.893  13.731
75122SOL     OW27262   5.742   6.475   9.987
75122SOL    HW127263   5.739   6.475   9.892
75122SOL    HW227264   5.828   6.437  10.008
75123SOL     OW27265   5.520  10.302  12.827
75123SOL    HW127266   5.595  10.276  12.772
75123SOL    HW227267   5.459  10.228  12.821
75124SOL     OW27268   2.164  13.339   5.819
75124SOL    HW127269   2.111  13.405   5.775
75124SOL    HW227270   2.211  13.388   5.887
75125SOL     OW27271   6.971   6.758  12.441
75125SOL    HW127272   6.927   6.799  12.515
75125SOL    HW227273   7.034   6.824  12.411
75126SOL     OW27274  12.989   5.397  11.956
75126SOL    HW127275  12.969   5.432  11.869
75126SOL    HW227276  13.081   5.371  11.950
75127SOL     OW27277   3.506   4.568   5.436
75127SOL    HW127278   3.502   4.518   5.354
75127SOL    HW227279   3.519   4.659   5.408
75128SOL     OW27280   7.047  13.908   9.385
75128SOL    HW127281   6.954  13.887   9.374
75128SOL    HW227282   7.090  13.865   9.312
75129SOL     OW27283   1.731   1.624   8.166
75129SOL    HW127284   1.677   1.577   8.229
75129SOL    HW227285   1.745   1.562   8.094
75130SOL     OW27286  10.574   8.642   5.041
75130SOL    HW127287  10.509   8.591   5.088
75130SOL    HW227288  10.658   8.612   5.075
75131SOL     OW27289  11.164   0.793   5.273
75131SOL    HW127290  11.254   0.779   5.303
75131SOL    HW227291  11.127   0.856   5.335
75132SOL     OW27292   6.568   7.597  11.185
75132SOL    HW127293   6.570   7.644  11.101
75132SOL    HW227294   6.640   7.635  11.235
75133SOL     OW27295   9.490   9.668  11.597
75133SOL    HW127296   9.481   9.762  11.611
75133SOL    HW227297   9.401   9.634  11.609
75134SOL     OW27298   9.507  12.514   8.997
75134SOL    HW127299   9.559  12.434   9.007
75134SOL    HW227300   9.562  12.572   8.943
75135SOL     OW27301  10.044   5.997  12.454
75135SOL    HW127302   9.983   5.994  12.528
75135SOL    HW227303  10.062   5.906  12.434
75136SOL     OW27304   7.489  14.086   3.002
75136SOL    HW127305   7.485  14.169   3.050
75136SOL    HW227306   7.400  14.051   3.007
75137SOL     OW27307   8.689   5.152  12.930
75137SOL    HW127308   8.719   5.242  12.931
75137SOL    HW227309   8.728   5.112  13.008
75138SOL     OW27310   0.943   5.382   9.290
75138SOL    HW127311   1.036   5.386   9.311
75138SOL    HW227312   0.931   5.449   9.222
75139SOL     OW27313   5.764   0.469  14.473
75139SOL    HW127314   5.670   0.490  14.468
75139SOL    HW227315   5.775   0.428  14.559
75140SOL     OW27316   3.806  11.195   1.507
75140SOL    HW127317   3.739  11.264   1.502
75140SOL    HW227318   3.867  11.225   1.574
75141SOL     OW27319   1.649   8.724  14.005
75141SOL    HW127320   1.600   8.663  13.951
75141SOL    HW227321   1.600   8.806  13.999
75142SOL     OW27322  10.156   5.933   3.352
75142SOL    HW127323  10.195   5.892   3.275
75142SOL    HW227324  10.086   5.873   3.378
75143SOL     OW27325   8.009   7.090  10.945
75143SOL    HW127326   8.067   7.163  10.968
75143SOL    HW227327   7.979   7.056  11.029
75144SOL     OW27328   3.340   3.366   0.334
75144SOL    HW127329   3.340   3.380   0.239
75144SOL    HW227330   3.295   3.443   0.369
75145SOL     OW27331   0.145   9.487  12.421
75145SOL    HW127332   0.093   9.408  12.431
75145SOL    HW227333   0.105   9.550  12.481
75146SOL     OW27334   3.566   6.116   9.071
75146SOL    HW127335   3.613   6.200   9.069
75146SOL    HW227336   3.476   6.140   9.091
75147SOL     OW27337  10.085   5.681   0.761
75147SOL    HW127338  10.076   5.665   0.855
75147SOL    HW227339  10.088   5.776   0.752
75148SOL     OW27340   6.039  10.161   9.460
75148SOL    HW127341   5.973  10.215   9.415
75148SOL    HW227342   6.059  10.210   9.540
75149SOL     OW27343   7.806   9.418   9.109
75149SOL    HW127344   7.864   9.451   9.177
75149SOL    HW227345   7.839   9.330   9.088
75150SOL     OW27346  14.359  13.286  10.377
75150SOL    HW127347  14.414  13.351  10.421
75150SOL    HW227348  14.387  13.288  10.286
75151SOL     OW27349   0.005   2.148  12.079
75151SOL    HW127350   0.064   2.083  12.116
75151SOL    HW227351  14.796   2.103  12.072
75152SOL     OW27352   5.839  13.108   3.528
75152SOL    HW127353   5.758  13.159   3.526
75152SOL    HW227354   5.877  13.127   3.614
75153SOL     OW27355   7.390  13.855   9.794
75153SOL    HW127356   7.337  13.879   9.718
75153SOL    HW227357   7.327  13.823   9.859
75154SOL     OW27358  12.199   4.831  11.893
75154SOL    HW127359  12.155   4.812  11.976
75154SOL    HW227360  12.228   4.922  11.902
75155SOL     OW27361   5.894  14.320  13.066
75155SOL    HW127362   5.943  14.348  12.989
75155SOL    HW227363   5.951  14.255  13.108
75156SOL     OW27364  13.215   1.145  14.126
75156SOL    HW127365  13.154   1.123  14.197
75156SOL    HW227366  13.294   1.096  14.147
75157SOL     OW27367  14.214  13.040   0.705
75157SOL    HW127368  14.293  13.001   0.670
75157SOL    HW227369  14.149  13.030   0.635
75158SOL     OW27370   1.169   5.680   7.221
75158SOL    HW127371   1.226   5.640   7.156
75158SOL    HW227372   1.119   5.607   7.257
75159SOL     OW27373   1.108   1.808   7.984
75159SOL    HW127374   1.138   1.890   7.944
75159SOL    HW227375   1.184   1.774   8.031
75160SOL     OW27376  14.388   5.839   0.995
75160SOL    HW127377  14.332   5.882   0.930
75160SOL    HW227378  14.477   5.864   0.971
75161SOL     OW27379   8.032   5.997  13.524
75161SOL    HW127380   7.982   5.923  13.490
75161SOL    HW227381   7.968   6.048  13.573
75162SOL     OW27382   3.714  11.496  13.998
75162SOL    HW127383   3.800  11.517  14.032
75162SOL    HW227384   3.656  11.499  14.074
75163SOL     OW27385  13.942  10.958  12.449
75163SOL    HW127386  13.886  10.894  12.406
75163SOL    HW227387  14.008  10.906  12.495
75164SOL     OW27388   4.332  11.219   0.280
75164SOL    HW127389   4.238  11.240   0.281
75164SOL    HW227390   4.373  11.291   0.328
75165SOL     OW27391   9.713  10.404  10.951
75165SOL    HW127392   9.715  10.454  10.870
75165SOL    HW227393   9.800  10.366  10.958
75166SOL     OW27394  11.413   1.215   3.221
75166SOL    HW127395  11.506   1.199   3.231
75166SOL    HW227396  11.380   1.218   3.311
75167SOL     OW27397  12.583  14.074   5.550
75167SOL    HW127398  12.511  14.044   5.494
75167SOL    HW227399  12.652  14.009   5.537
75168SOL     OW27400   5.544   2.422  13.788
75168SOL    HW127401   5.452   2.450  13.795
75168SOL    HW227402   5.595   2.501  13.804
75169SOL     OW27403   3.398  10.033   2.800
75169SOL    HW127404   3.490  10.024   2.777
75169SOL    HW227405   3.388   9.983   2.880
75170SOL     OW27406   7.746   4.155  11.529
75170SOL    HW127407   7.748   4.141  11.434
75170SOL    HW227408   7.802   4.086  11.565
75171SOL     OW27409   6.796   1.037   5.665
75171SOL    HW127410   6.819   1.122   5.703
75171SOL    HW227411   6.768   1.056   5.576
75172SOL     OW27412   9.339  13.458  12.937
75172SOL    HW127413   9.413  13.518  12.943
75172SOL    HW227414   9.295  13.466  13.021
75173SOL     OW27415  14.629   8.777   3.825
75173SOL    HW127416  14.656   8.746   3.739
75173SOL    HW227417  14.536   8.795   3.816
75174SOL     OW27418   5.964   7.516  14.531
75174SOL    HW127419   5.947   7.579  14.461
75174SOL    HW227420   5.879   7.475  14.547
75175SOL     OW27421   8.703   5.811   6.943
75175SOL    HW127422   8.758   5.811   7.022
75175SOL    HW227423   8.614   5.801   6.976
75176SOL     OW27424   0.597   5.296   2.465
75176SOL    HW127425   0.539   5.288   2.389
75176SOL    HW227426   0.565   5.229   2.526
75177SOL     OW27427   2.842   5.294  10.834
75177SOL    HW127428   2.903   5.255  10.897
75177SOL    HW227429   2.892   5.364  10.793
75178SOL     OW27430   6.994   3.971  14.297
75178SOL    HW127431   7.067   4.029  14.275
75178SOL    HW227432   7.008   3.947  14.388
75179SOL     OW27433  13.428  11.658   4.364
75179SOL    HW127434  13.403  11.634   4.275
75179SOL    HW227435  13.355  11.626   4.418
75180SOL     OW27436   2.816  12.168   6.668
75180SOL    HW127437   2.762  12.189   6.591
75180SOL    HW227438   2.874  12.244   6.677
75181SOL     OW27439  10.192   9.339  11.988
75181SOL    HW127440  10.242   9.258  11.998
75181SOL    HW227441  10.247   9.394  11.931
75182SOL     OW27442  12.835  11.358   6.693
75182SOL    HW127443  12.742  11.382   6.695
75182SOL    HW227444  12.842  11.285   6.754
75183SOL     OW27445   7.127   1.580  14.601
75183SOL    HW127446   7.069   1.651  14.572
75183SOL    HW227447   7.181   1.619  14.669
75184SOL     OW27448   6.364   4.002  10.108
75184SOL    HW127449   6.308   4.009  10.030
75184SOL    HW227450   6.452   3.987  10.073
75185SOL     OW27451   2.529   5.530   2.970
75185SOL    HW127452   2.504   5.488   2.888
75185SOL    HW227453   2.520   5.462   3.037
75186SOL     OW27454  10.810   1.097   1.911
75186SOL    HW127455  10.740   1.146   1.955
75186SOL    HW227456  10.874   1.080   1.980
75187SOL     OW27457   7.663   7.349   6.709
75187SOL    HW127458   7.650   7.266   6.664
75187SOL    HW227459   7.583   7.360   6.762
75188SOL     OW27460  11.261  13.765   1.231
75188SOL    HW127461  11.318  13.700   1.272
75188SOL    HW227462  11.285  13.848   1.273
75189SOL     OW27463   1.059   7.911   4.535
75189SOL    HW127464   1.107   7.885   4.613
75189SOL    HW227465   1.095   7.855   4.465
75190SOL     OW27466  13.373  11.671  14.463
75190SOL    HW127467  13.370  11.761  14.431
75190SOL    HW227468  13.312  11.623  14.406
75191SOL     OW27469  14.335  12.485   5.181
75191SOL    HW127470  14.406  12.421   5.177
75191SOL    HW227471  14.377  12.564   5.216
75192SOL     OW27472   0.264   1.640   8.556
75192SOL    HW127473   0.271   1.581   8.630
75192SOL    HW227474   0.170   1.647   8.539
75193SOL     OW27475   7.530  13.135   1.082
75193SOL    HW127476   7.565  13.195   1.148
75193SOL    HW227477   7.578  13.157   1.002
75194SOL     OW27478   2.336   9.273   8.341
75194SOL    HW127479   2.366   9.360   8.313
75194SOL    HW227480   2.331   9.222   8.261
75195SOL     OW27481  10.647   3.521   1.325
75195SOL    HW127482  10.553   3.519   1.306
75195SOL    HW227483  10.686   3.466   1.257
75196SOL     OW27484   9.550   2.322  12.427
75196SOL    HW127485   9.594   2.353  12.347
75196SOL    HW227486   9.621   2.308  12.489
75197SOL     OW27487   1.729   6.124   4.586
75197SOL    HW127488   1.704   6.217   4.590
75197SOL    HW227489   1.823   6.124   4.605
75198SOL     OW27490  10.782   5.173   3.916
75198SOL    HW127491  10.736   5.143   3.839
75198SOL    HW227492  10.723   5.237   3.956
75199SOL     OW27493   9.345  10.296   1.213
75199SOL    HW127494   9.401  10.350   1.268
75199SOL    HW227495   9.309  10.230   1.273
75200SOL     OW27496  11.792   8.209   5.175
75200SOL    HW127497  11.753   8.174   5.255
75200SOL    HW227498  11.781   8.304   5.182
75201SOL     OW27499   2.979   4.082   0.238
75201SOL    HW127500   3.060   4.128   0.259
75201SOL    HW227501   2.932   4.077   0.321
75202SOL     OW27502   2.879   5.751  14.384
75202SOL    HW127503   2.899   5.809  14.311
75202SOL    HW227504   2.963   5.736  14.427
75203SOL     OW27505   3.030  14.594   3.953
75203SOL    HW127506   3.044  14.650   3.877
75203SOL    HW227507   3.111  14.600   4.004
75204SOL     OW27508  14.559  13.925   4.678
75204SOL    HW127509  14.604  13.889   4.754
75204SOL    HW227510  14.488  13.978   4.714
75205SOL     OW27511   4.525   2.692   3.833
75205SOL    HW127512   4.529   2.771   3.887
75205SOL    HW227513   4.611   2.651   3.845
75206SOL     OW27514   9.681  13.749   6.564
75206SOL    HW127515   9.608  13.760   6.624
75206SOL    HW227516   9.653  13.681   6.503
75207SOL     OW27517   6.750  14.705  11.249
75207SOL    HW127518   6.825  14.650  11.225
75207SOL    HW227519   6.788  14.775  11.302
75208SOL     OW27520   5.531   0.487  10.529
75208SOL    HW127521   5.550   0.402  10.488
75208SOL    HW227522   5.467   0.528  10.471
75209SOL     OW27523   2.615   8.567   1.331
75209SOL    HW127524   2.706   8.551   1.308
75209SOL    HW227525   2.615   8.573   1.426
75210SOL     OW27526   1.673   3.771   8.123
75210SOL    HW127527   1.763   3.765   8.092
75210SOL    HW227528   1.636   3.844   8.074
75211SOL     OW27529   0.345  11.832   2.744
75211SOL    HW127530   0.265  11.883   2.755
75211SOL    HW227531   0.319  11.741   2.761
75212SOL     OW27532   3.595   7.941   4.975
75212SOL    HW127533   3.681   7.910   5.004
75212SOL    HW227534   3.614   8.022   4.927
75213SOL     OW27535   1.890   8.201   1.823
75213SOL    HW127536   1.832   8.258   1.873
75213SOL    HW227537   1.835   8.127   1.798
75214SOL     OW27538  11.233   8.492   5.181
75214SOL    HW127539  11.200   8.498   5.092
75214SOL    HW227540  11.233   8.398   5.201
75215SOL     OW27541   0.195   2.452   1.138
75215SOL    HW127542   0.274   2.502   1.117
75215SOL    HW227543   0.167   2.415   1.054
75216SOL     OW27544  11.970   8.193  13.124
75216SOL    HW127545  11.876   8.208  13.125
75216SOL    HW227546  11.981   8.106  13.086
75217SOL     OW27547  13.407   4.964   6.502
75217SOL    HW127548  13.385   5.056   6.490
75217SOL    HW227549  13.323   4.919   6.493
75218SOL     OW27550   2.708   5.964  10.376
75218SOL    HW127551   2.751   6.011  10.447
75218SOL    HW227552   2.649   5.903  10.420
75219SOL     OW27553  10.933  14.680   7.864
75219SOL    HW127554  10.948  14.637   7.779
75219SOL    HW227555  10.838  14.672   7.877
75220SOL     OW27556  13.698   1.449  10.074
75220SOL    HW127557  13.739   1.445   9.988
75220SOL    HW227558  13.652   1.533  10.075
75221SOL     OW27559   1.097   1.010   9.081
75221SOL    HW127560   1.044   1.082   9.047
75221SOL    HW227561   1.187   1.040   9.071
75222SOL     OW27562   1.208   4.105   8.204
75222SOL    HW127563   1.137   4.170   8.201
75222SOL    HW227564   1.179   4.041   8.269
75223SOL     OW27565   2.811  13.327   4.800
75223SOL    HW127566   2.877  13.359   4.738
75223SOL    HW227567   2.809  13.393   4.869
75224SOL     OW27568  12.191   6.195  13.584
75224SOL    HW127569  12.186   6.261  13.653
75224SOL    HW227570  12.169   6.113  13.628
75225SOL     OW27571   9.019   1.721  10.786
75225SOL    HW127572   9.025   1.768  10.869
75225SOL    HW227573   8.927   1.693  10.781
75226SOL     OW27574  11.566  13.469   6.323
75226SOL    HW127575  11.506  13.450   6.395
75226SOL    HW227576  11.630  13.530   6.361
75227SOL     OW27577   9.455   8.460   8.802
75227SOL    HW127578   9.468   8.377   8.756
75227SOL    HW227579   9.372   8.493   8.767
75228SOL     OW27580   7.063  14.077   7.722
75228SOL    HW127581   7.140  14.020   7.720
75228SOL    HW227582   7.060  14.116   7.634
75229SOL     OW27583   1.033   4.929  11.294
75229SOL    HW127584   0.977   4.856  11.266
75229SOL    HW227585   1.122   4.897  11.283
75230SOL     OW27586   3.777  14.812   4.017
75230SOL    HW127587   3.791  14.784   4.108
75230SOL    HW227588   3.859  14.789   3.973
75231SOL     OW27589  10.726   7.386  10.985
75231SOL    HW127590  10.689   7.393  10.897
75231SOL    HW227591  10.756   7.295  10.991
75232SOL     OW27592  10.785   4.162  11.524
75232SOL    HW127593  10.757   4.113  11.601
75232SOL    HW227594  10.731   4.241  11.525
75233SOL     OW27595  12.188   5.241   3.225
75233SOL    HW127596  12.198   5.157   3.180
75233SOL    HW227597  12.231   5.304   3.168
75234SOL     OW27598   0.965  13.477   0.542
75234SOL    HW127599   1.057  13.486   0.520
75234SOL    HW227600   0.933  13.408   0.483
75235SOL     OW27601   6.105   0.640  10.309
75235SOL    HW127602   6.079   0.591  10.231
75235SOL    HW227603   6.196   0.666  10.292
75236SOL     OW27604   0.953  12.722   9.955
75236SOL    HW127605   0.860  12.744   9.953
75236SOL    HW227606   0.983  12.749  10.042
75237SOL     OW27607   2.770   7.835   6.347
75237SOL    HW127608   2.755   7.809   6.438
75237SOL    HW227609   2.804   7.756   6.305
75238SOL     OW27610   0.964   3.055   0.850
75238SOL    HW127611   0.954   2.969   0.808
75238SOL    HW227612   0.993   3.113   0.779
75239SOL     OW27613   4.372   1.790  10.357
75239SOL    HW127614   4.295   1.766  10.305
75239SOL    HW227615   4.418   1.707  10.370
75240SOL     OW27616   8.211  11.626   4.715
75240SOL    HW127617   8.200  11.542   4.758
75240SOL    HW227618   8.126  11.644   4.674
75241SOL     OW27619   1.032   0.727   6.989
75241SOL    HW127620   1.123   0.746   7.012
75241SOL    HW227621   0.991   0.703   7.072
75242SOL     OW27622   2.275   8.928  14.153
75242SOL    HW127623   2.214   8.936  14.081
75242SOL    HW227624   2.301   9.019  14.173
75243SOL     OW27625  12.796  10.271  12.659
75243SOL    HW127626  12.787  10.364  12.677
75243SOL    HW227627  12.733  10.253  12.589
75244SOL     OW27628   4.359   4.131  10.620
75244SOL    HW127629   4.433   4.190  10.615
75244SOL    HW227630   4.392   4.054  10.667
75245SOL     OW27631   9.419  10.130   6.531
75245SOL    HW127632   9.377  10.125   6.445
75245SOL    HW227633   9.505  10.169   6.514
75246SOL     OW27634   9.048   1.141  12.934
75246SOL    HW127635   9.007   1.054  12.936
75246SOL    HW227636   9.031   1.177  13.021
75247SOL     OW27637   0.530  10.588  13.102
75247SOL    HW127638   0.564  10.628  13.182
75247SOL    HW227639   0.547  10.494  13.113
75248SOL     OW27640  13.802  12.186   6.000
75248SOL    HW127641  13.790  12.160   5.909
75248SOL    HW227642  13.717  12.173   6.041
75249SOL     OW27643   4.575   1.968  10.020
75249SOL    HW127644   4.535   1.892   9.976
75249SOL    HW227645   4.504   2.004  10.074
75250SOL     OW27646   8.964   6.155   4.094
75250SOL    HW127647   8.967   6.065   4.126
75250SOL    HW227648   9.029   6.201   4.147
75251SOL     OW27649  11.194   0.426  13.302
75251SOL    HW127650  11.208   0.486  13.229
75251SOL    HW227651  11.113   0.379  13.280
75252SOL     OW27652  13.336  12.752   8.972
75252SOL    HW127653  13.266  12.720   9.029
75252SOL    HW227654  13.353  12.679   8.912
75253SOL     OW27655   3.215   1.757   1.818
75253SOL    HW127656   3.181   1.731   1.903
75253SOL    HW227657   3.310   1.745   1.825
75254SOL     OW27658   9.210   6.630   2.423
75254SOL    HW127659   9.131   6.684   2.421
75254SOL    HW227660   9.279   6.690   2.449
75255SOL     OW27661  11.117   9.147   7.715
75255SOL    HW127662  11.165   9.137   7.632
75255SOL    HW227663  11.149   9.076   7.770
75256SOL     OW27664   0.294   1.552  13.667
75256SOL    HW127665   0.225   1.589  13.722
75256SOL    HW227666   0.341   1.628  13.634
75257SOL     OW27667  14.597   6.022  11.070
75257SOL    HW127668  14.683   6.006  11.031
75257SOL    HW227669  14.587   5.953  11.136
75258SOL     OW27670  10.224   7.013   3.589
75258SOL    HW127671  10.182   6.959   3.656
75258SOL    HW227672  10.198   7.102   3.609
75259SOL     OW27673   1.915   4.569   7.471
75259SOL    HW127674   1.865   4.529   7.542
75259SOL    HW227675   2.006   4.564   7.500
75260SOL     OW27676  10.061   9.854   6.232
75260SOL    HW127677  10.127   9.880   6.167
75260SOL    HW227678  10.060   9.759   6.228
75261SOL     OW27679  13.390   8.289   3.480
75261SOL    HW127680  13.297   8.268   3.490
75261SOL    HW227681  13.431   8.206   3.458
75262SOL     OW27682   3.088   6.441   9.763
75262SOL    HW127683   3.027   6.369   9.750
75262SOL    HW227684   3.046   6.497   9.829
75263SOL     OW27685  11.984   3.646   8.781
75263SOL    HW127686  11.984   3.669   8.688
75263SOL    HW227687  11.946   3.723   8.824
75264SOL     OW27688  14.678   7.644  14.852
75264SOL    HW127689  14.700   7.721  14.800
75264SOL    HW227690  14.701   7.570  14.797
75265SOL     OW27691  14.653   6.434   6.018
75265SOL    HW127692  14.697   6.350   6.004
75265SOL    HW227693  14.563   6.410   6.041
75266SOL     OW27694  10.107   1.624  14.542
75266SOL    HW127695  10.113   1.529  14.552
75266SOL    HW227696  10.179   1.658  14.594
75267SOL     OW27697  11.933   8.249   3.241
75267SOL    HW127698  11.925   8.326   3.298
75267SOL    HW227699  11.848   8.242   3.198
75268SOL     OW27700   1.035   5.486  13.388
75268SOL    HW127701   0.973   5.414  13.383
75268SOL    HW227702   1.044   5.516  13.298
75269SOL     OW27703   9.188   2.202   6.252
75269SOL    HW127704   9.148   2.283   6.221
75269SOL    HW227705   9.281   2.221   6.257
75270SOL     OW27706   5.394   3.452   7.346
75270SOL    HW127707   5.401   3.466   7.252
75270SOL    HW227708   5.358   3.535   7.380
75271SOL     OW27709   5.193   8.461  12.008
75271SOL    HW127710   5.174   8.398  12.078
75271SOL    HW227711   5.279   8.434  11.976
75272SOL     OW27712   2.224   8.213   3.403
75272SOL    HW127713   2.138   8.210   3.443
75272SOL    HW227714   2.244   8.121   3.384
75273SOL     OW27715  11.620  11.030   9.360
75273SOL    HW127716  11.550  11.030   9.426
75273SOL    HW227717  11.600  11.106   9.305
75274SOL     OW27718  12.392   1.741   8.359
75274SOL    HW127719  12.311   1.715   8.402
75274SOL    HW227720  12.397   1.686   8.281
75275SOL     OW27721  14.685   8.274   1.134
75275SOL    HW127722  14.608   8.299   1.184
75275SOL    HW227723  14.664   8.298   1.044
75276SOL     OW27724  14.828  13.286   5.729
75276SOL    HW127725  14.795  13.196   5.737
75276SOL    HW227726  14.832  13.301   5.635
75277SOL     OW27727  12.722   4.732   6.957
75277SOL    HW127728  12.794   4.675   6.929
75277SOL    HW227729  12.659   4.726   6.886
75278SOL     OW27730  13.177   6.431   6.954
75278SOL    HW127731  13.091   6.462   6.928
75278SOL    HW227732  13.160   6.349   7.001
75279SOL     OW27733   6.665   5.147  10.496
75279SOL    HW127734   6.615   5.121  10.419
75279SOL    HW227735   6.661   5.072  10.554
75280SOL     OW27736   1.000   6.535  14.753
75280SOL    HW127737   1.007   6.606  14.816
75280SOL    HW227738   0.919   6.554  14.704
75281SOL     OW27739   9.329   1.660   6.158
75281SOL    HW127740   9.331   1.749   6.124
75281SOL    HW227741   9.399   1.657   6.222
75282SOL     OW27742   8.803  10.879   9.371
75282SOL    HW127743   8.857  10.932   9.312
75282SOL    HW227744   8.818  10.789   9.344
75283SOL     OW27745  14.052  13.328   1.522
75283SOL    HW127746  14.147  13.318   1.517
75283SOL    HW227747  14.025  13.340   1.431
75284SOL     OW27748   8.886  10.868   4.232
75284SOL    HW127749   8.847  10.871   4.144
75284SOL    HW227750   8.892  10.960   4.258
75285SOL     OW27751   2.576  10.781   7.992
75285SOL    HW127752   2.563  10.874   8.007
75285SOL    HW227753   2.498  10.753   7.944
75286SOL     OW27754   4.509   9.088   0.756
75286SOL    HW127755   4.442   9.128   0.701
75286SOL    HW227756   4.589   9.137   0.734
75287SOL     OW27757   1.938   2.190  12.640
75287SOL    HW127758   2.002   2.139  12.590
75287SOL    HW227759   1.858   2.138  12.637
75288SOL     OW27760  10.601  10.823   4.115
75288SOL    HW127761  10.530  10.843   4.054
75288SOL    HW227762  10.558  10.775   4.186
75289SOL     OW27763   7.126   5.875   5.347
75289SOL    HW127764   7.039   5.844   5.322
75289SOL    HW227765   7.119   5.895   5.440
75290SOL     OW27766   2.442  12.028   0.166
75290SOL    HW127767   2.407  12.112   0.136
75290SOL    HW227768   2.520  12.051   0.216
75291SOL     OW27769   4.075   6.127  10.872
75291SOL    HW127770   4.012   6.174  10.926
75291SOL    HW227771   4.154   6.122  10.926
75292SOL     OW27772   7.950   3.783   7.744
75292SOL    HW127773   7.985   3.835   7.816
75292SOL    HW227774   8.006   3.805   7.669
75293SOL     OW27775   9.471   9.062   3.693
75293SOL    HW127776   9.518   8.981   3.715
75293SOL    HW227777   9.407   9.072   3.763
75294SOL     OW27778  10.015   1.811   6.299
75294SOL    HW127779   9.950   1.762   6.351
75294SOL    HW227780   9.963   1.875   6.251
75295SOL     OW27781   4.581   3.409   6.831
75295SOL    HW127782   4.487   3.407   6.810
75295SOL    HW227783   4.624   3.425   6.747
75296SOL     OW27784   5.356   6.030   3.786
75296SOL    HW127785   5.447   6.054   3.804
75296SOL    HW227786   5.341   6.058   3.696
75297SOL     OW27787  12.096  11.762  14.480
75297SOL    HW127788  12.042  11.840  14.484
75297SOL    HW227789  12.182  11.792  14.510
75298SOL     OW27790  13.226  12.970   0.808
75298SOL    HW127791  13.159  12.964   0.875
75298SOL    HW227792  13.302  12.925   0.845
75299SOL     OW27793   9.629  11.099   1.228
75299SOL    HW127794   9.674  11.079   1.146
75299SOL    HW227795   9.627  11.195   1.231
75300SOL     OW27796   0.257   4.195   0.385
75300SOL    HW127797   0.318   4.267   0.363
75300SOL    HW227798   0.199   4.232   0.451
75301SOL     OW27799   1.186   8.175   5.844
75301SOL    HW127800   1.174   8.200   5.936
75301SOL    HW227801   1.280   8.159   5.836
75302SOL     OW27802   9.988   6.594   0.103
75302SOL    HW127803  10.024   6.548   0.027
75302SOL    HW227804   9.894   6.578   0.099
75303SOL     OW27805   0.499   7.073   2.039
75303SOL    HW127806   0.469   7.094   1.950
75303SOL    HW227807   0.528   7.157   2.075
75304SOL     OW27808   2.154  14.861   1.377
75304SOL    HW127809   2.186   0.072   1.405
75304SOL    HW227810   2.121   0.000   1.289
75305SOL     OW27811   8.608   6.341  10.058
75305SOL    HW127812   8.673   6.380  10.116
75305SOL    HW227813   8.607   6.248  10.082
75306SOL     OW27814   0.156  10.362  11.627
75306SOL    HW127815   0.106  10.412  11.692
75306SOL    HW227816   0.092  10.301  11.590
75307SOL     OW27817   2.266   0.335   5.841
75307SOL    HW127818   2.190   0.278   5.829
75307SOL    HW227819   2.295   0.317   5.930
75308SOL     OW27820  13.510  10.329  14.144
75308SOL    HW127821  13.441  10.396  14.153
75308SOL    HW227822  13.462  10.248  14.126
75309SOL     OW27823   3.103   3.219   6.944
75309SOL    HW127824   3.037   3.155   6.918
75309SOL    HW227825   3.186   3.181   6.914
75310SOL     OW27826   4.077  14.251  12.026
75310SOL    HW127827   4.057  14.314  11.957
75310SOL    HW227828   4.026  14.173  12.002
75311SOL     OW27829   1.857   1.182   9.147
75311SOL    HW127830   1.866   1.134   9.230
75311SOL    HW227831   1.925   1.145   9.091
75312SOL     OW27832   5.248   6.267   1.314
75312SOL    HW127833   5.295   6.211   1.251
75312SOL    HW227834   5.158   6.235   1.312
75313SOL     OW27835   1.214   9.231   9.385
75313SOL    HW127836   1.246   9.318   9.361
75313SOL    HW227837   1.120   9.242   9.397
75314SOL     OW27838   1.504   1.933  10.714
75314SOL    HW127839   1.572   1.999  10.723
75314SOL    HW227840   1.423   1.983  10.702
75315SOL     OW27841  13.560   6.832   5.874
75315SOL    HW127842  13.540   6.739   5.865
75315SOL    HW227843  13.651   6.835   5.903
75316SOL     OW27844   8.101   2.480  14.154
75316SOL    HW127845   8.081   2.389  14.173
75316SOL    HW227846   8.110   2.521  14.240
75317SOL     OW27847  11.043  14.003   7.069
75317SOL    HW127848  11.048  13.933   7.134
75317SOL    HW227849  10.956  14.041   7.082
75318SOL     OW27850  11.606   4.063  12.475
75318SOL    HW127851  11.560   3.982  12.449
75318SOL    HW227852  11.545   4.133  12.453
75319SOL     OW27853   1.585   6.979   9.259
75319SOL    HW127854   1.515   6.961   9.197
75319SOL    HW227855   1.649   6.909   9.243
75320SOL     OW27856   9.298   0.507  10.925
75320SOL    HW127857   9.310   0.573  10.994
75320SOL    HW227858   9.340   0.545  10.848
75321SOL     OW27859  13.674   7.650  13.629
75321SOL    HW127860  13.630   7.596  13.695
75321SOL    HW227861  13.616   7.649  13.553
75322SOL     OW27862   0.572   7.631   4.603
75322SOL    HW127863   0.628   7.558   4.628
75322SOL    HW227864   0.631   7.707   4.604
75323SOL     OW27865   2.812   1.945   7.517
75323SOL    HW127866   2.806   1.918   7.608
75323SOL    HW227867   2.897   1.988   7.510
75324SOL     OW27868   1.949   0.786  11.193
75324SOL    HW127869   1.924   0.877  11.207
75324SOL    HW227870   1.983   0.784  11.104
75325SOL     OW27871   1.311   5.566   8.858
75325SOL    HW127872   1.227   5.530   8.831
75325SOL    HW227873   1.307   5.569   8.953
75326SOL     OW27874   4.759   4.060   2.757
75326SOL    HW127875   4.836   4.107   2.790
75326SOL    HW227876   4.685   4.097   2.805
75327SOL     OW27877   2.999   2.456   7.697
75327SOL    HW127878   3.073   2.466   7.758
75327SOL    HW227879   2.969   2.366   7.711
75328SOL     OW27880   5.266  12.035  10.426
75328SOL    HW127881   5.218  12.108  10.463
75328SOL    HW227882   5.224  12.019  10.341
75329SOL     OW27883   5.901   3.540   4.923
75329SOL    HW127884   5.873   3.541   4.832
75329SOL    HW227885   5.940   3.453   4.936
75330SOL     OW27886  12.747  14.129  11.881
75330SOL    HW127887  12.755  14.091  11.794
75330SOL    HW227888  12.697  14.210  11.867
75331SOL     OW27889   3.602   1.024   4.798
75331SOL    HW127890   3.609   1.088   4.727
75331SOL    HW227891   3.563   1.073   4.870
75332SOL     OW27892   9.000   2.790   2.657
75332SOL    HW127893   8.946   2.846   2.712
75332SOL    HW227894   8.941   2.721   2.627
75333SOL     OW27895   9.111  14.052   8.057
75333SOL    HW127896   9.053  14.128   8.055
75333SOL    HW227897   9.187  14.080   8.109
75334SOL     OW27898  12.511  13.771   5.337
75334SOL    HW127899  12.514  13.721   5.255
75334SOL    HW227900  12.449  13.841   5.320
75335SOL     OW27901  13.862  13.385   7.349
75335SOL    HW127902  13.824  13.362   7.264
75335SOL    HW227903  13.853  13.480   7.354
75336SOL     OW27904  13.360   5.894   1.152
75336SOL    HW127905  13.452   5.909   1.175
75336SOL    HW227906  13.321   5.982   1.149
75337SOL     OW27907   2.785  13.707   3.586
75337SOL    HW127908   2.776  13.781   3.526
75337SOL    HW227909   2.765  13.743   3.672
75338SOL     OW27910  14.195  11.705   5.519
75338SOL    HW127911  14.153  11.619   5.522
75338SOL    HW227912  14.127  11.766   5.545
75339SOL     OW27913  14.211  10.262   0.904
75339SOL    HW127914  14.191  10.339   0.851
75339SOL    HW227915  14.126  10.229   0.932
75340SOL     OW27916   9.688  10.189   0.655
75340SOL    HW127917   9.744  10.139   0.595
75340SOL    HW227918   9.631  10.239   0.597
75341SOL     OW27919   6.549   3.973   1.086
75341SOL    HW127920   6.499   3.894   1.110
75341SOL    HW227921   6.600   3.993   1.165
75342SOL     OW27922   5.846   4.018  14.647
75342SOL    HW127923   5.843   4.114  14.641
75342SOL    HW227924   5.869   3.989  14.559
75343SOL     OW27925   2.169   5.729   2.491
75343SOL    HW127926   2.090   5.682   2.516
75343SOL    HW227927   2.233   5.660   2.473
75344SOL     OW27928   8.109   9.928  12.233
75344SOL    HW127929   8.123   9.975  12.314
75344SOL    HW227930   8.164   9.972  12.169
75345SOL     OW27931  10.071   7.760   7.461
75345SOL    HW127932   9.980   7.732   7.465
75345SOL    HW227933  10.073   7.842   7.511
75346SOL     OW27934   2.731   3.719  12.313
75346SOL    HW127935   2.732   3.812  12.334
75346SOL    HW227936   2.714   3.716  12.219
75347SOL     OW27937   0.823   6.657   2.111
75347SOL    HW127938   0.859   6.718   2.175
75347SOL    HW227939   0.752   6.614   2.156
75348SOL     OW27940  10.826   6.541   0.542
75348SOL    HW127941  10.860   6.452   0.538
75348SOL    HW227942  10.842   6.577   0.455
75349SOL     OW27943   3.636  12.673   8.684
75349SOL    HW127944   3.616  12.583   8.661
75349SOL    HW227945   3.703  12.666   8.753
75350SOL     OW27946  12.605   2.736  12.817
75350SOL    HW127947  12.570   2.650  12.793
75350SOL    HW227948  12.537   2.798  12.791
75351SOL     OW27949  12.491   6.483   4.839
75351SOL    HW127950  12.553   6.447   4.903
75351SOL    HW227951  12.534   6.469   4.755
75352SOL     OW27952   8.212   4.243  14.205
75352SOL    HW127953   8.186   4.335  14.211
75352SOL    HW227954   8.298   4.240  14.247
75353SOL     OW27955   0.378  10.663   5.300
75353SOL    HW127956   0.461  10.680   5.254
75353SOL    HW227957   0.405  10.634   5.387
75354SOL     OW27958  13.182  13.940  10.744
75354SOL    HW127959  13.184  13.944  10.839
75354SOL    HW227960  13.197  14.030  10.715
75355SOL     OW27961  13.798   3.988   0.337
75355SOL    HW127962  13.795   4.057   0.403
75355SOL    HW227963  13.849   3.918   0.378
75356SOL     OW27964  12.223   5.475  10.513
75356SOL    HW127965  12.155   5.520  10.463
75356SOL    HW227966  12.175   5.411  10.566
75357SOL     OW27967   4.496   5.618   9.745
75357SOL    HW127968   4.545   5.553   9.794
75357SOL    HW227969   4.544   5.700   9.757
75358SOL     OW27970   4.855   7.388   5.598
75358SOL    HW127971   4.778   7.376   5.542
75358SOL    HW227972   4.911   7.313   5.578
75359SOL     OW27973   9.884   7.470   3.262
75359SOL    HW127974   9.798   7.512   3.274
75359SOL    HW227975   9.865   7.391   3.211
75360SOL     OW27976   4.319   5.648  11.249
75360SOL    HW127977   4.393   5.684  11.297
75360SOL    HW227978   4.256   5.624  11.316
75361SOL     OW27979   1.302   1.978   6.341
75361SOL    HW127980   1.279   2.047   6.279
75361SOL    HW227981   1.305   2.021   6.426
75362SOL     OW27982  10.536   7.470   7.786
75362SOL    HW127983  10.622   7.463   7.745
75362SOL    HW227984  10.536   7.556   7.828
75363SOL     OW27985  13.489   2.185   6.546
75363SOL    HW127986  13.568   2.231   6.518
75363SOL    HW227987  13.431   2.189   6.469
75364SOL     OW27988  13.028   3.113   3.447
75364SOL    HW127989  12.933   3.124   3.450
75364SOL    HW227990  13.041   3.018   3.454
75365SOL     OW27991   4.623  10.357   3.229
75365SOL    HW127992   4.688  10.287   3.225
75365SOL    HW227993   4.621  10.393   3.140
75366SOL     OW27994  13.474   0.480  14.298
75366SOL    HW127995  13.461   0.575  14.298
75366SOL    HW227996  13.387   0.444  14.314
75367SOL     OW27997  12.522  10.092   5.241
75367SOL    HW127998  12.438  10.136   5.255
75367SOL    HW227999  12.551  10.068   5.328
75368SOL     OW28000   5.329   8.684   0.060
75368SOL    HW128001   5.398   8.661   0.122
75368SOL    HW228002   5.342   8.777   0.044
75369SOL     OW28003  10.470  14.711   1.806
75369SOL    HW128004  10.481  14.616   1.811
75369SOL    HW228005  10.533  14.739   1.739
75370SOL     OW28006  13.303   7.764   1.543
75370SOL    HW128007  13.270   7.836   1.596
75370SOL    HW228008  13.235   7.749   1.477
75371SOL     OW28009   4.020  10.856   5.819
75371SOL    HW128010   4.017  10.898   5.905
75371SOL    HW228011   3.928  10.837   5.798
75372SOL     OW28012   3.574   1.637   0.713
75372SOL    HW128013   3.668   1.618   0.708
75372SOL    HW228014   3.570   1.732   0.729
75373SOL     OW28015   1.827   7.643   6.234
75373SOL    HW128016   1.788   7.708   6.293
75373SOL    HW228017   1.840   7.566   6.289
75374SOL     OW28018   6.619   5.814   7.597
75374SOL    HW128019   6.711   5.818   7.622
75374SOL    HW228020   6.571   5.839   7.676
75375SOL     OW28021   2.800  12.254   4.301
75375SOL    HW128022   2.866  12.271   4.234
75375SOL    HW228023   2.850  12.215   4.374
75376SOL     OW28024  12.894   0.123  10.115
75376SOL    HW128025  12.906   0.042  10.165
75376SOL    HW228026  12.984   0.153  10.098
75377SOL     OW28027  10.515   0.416   8.333
75377SOL    HW128028  10.516   0.491   8.392
75377SOL    HW228029  10.587   0.361   8.363
75378SOL     OW28030  12.432  10.983  11.257
75378SOL    HW128031  12.516  10.954  11.223
75378SOL    HW228032  12.385  11.016  11.181
75379SOL     OW28033  13.715   3.586  13.399
75379SOL    HW128034  13.763   3.669  13.395
75379SOL    HW228035  13.723   3.549  13.311
75380SOL     OW28036   6.701   0.601   4.397
75380SOL    HW128037   6.670   0.683   4.437
75380SOL    HW228038   6.711   0.541   4.470
75381SOL     OW28039  10.912   4.916   6.998
75381SOL    HW128040  10.969   4.923   6.921
75381SOL    HW228041  10.899   4.822   7.009
75382SOL     OW28042   1.415   6.397   3.554
75382SOL    HW128043   1.402   6.472   3.496
75382SOL    HW228044   1.347   6.335   3.528
75383SOL     OW28045  12.319   7.091   9.468
75383SOL    HW128046  12.242   7.069   9.521
75383SOL    HW228047  12.355   7.168   9.511
75384SOL     OW28048   9.809  10.775   0.674
75384SOL    HW128049   9.799  10.859   0.628
75384SOL    HW228050   9.902  10.771   0.695
75385SOL     OW28051   5.036  10.905   2.796
75385SOL    HW128052   5.119  10.882   2.837
75385SOL    HW228053   5.061  10.943   2.711
75386SOL     OW28054   8.448  10.264  12.128
75386SOL    HW128055   8.485  10.217  12.203
75386SOL    HW228056   8.411  10.344  12.166
75387SOL     OW28057   1.951   2.031   0.150
75387SOL    HW128058   1.880   2.094   0.156
75387SOL    HW228059   1.976   2.014   0.240
75388SOL     OW28060   0.295  11.661   1.720
75388SOL    HW128061   0.202  11.649   1.741
75388SOL    HW228062   0.307  11.617   1.636
75389SOL     OW28063   0.100   5.268   2.160
75389SOL    HW128064   0.009   5.249   2.184
75389SOL    HW228065   0.103   5.363   2.150
75390SOL     OW28066  13.151   9.382   2.817
75390SOL    HW128067  13.068   9.374   2.864
75390SOL    HW228068  13.216   9.346   2.877
75391SOL     OW28069   0.233  12.100   1.450
75391SOL    HW128070   0.195  12.180   1.484
75391SOL    HW228071   0.303  12.129   1.392
75392SOL     OW28072   2.547  14.361   3.907
75392SOL    HW128073   2.639  14.371   3.931
75392SOL    HW228074   2.506  14.443   3.933
75393SOL     OW28075   1.610  10.183   7.239
75393SOL    HW128076   1.569  10.210   7.157
75393SOL    HW228077   1.559  10.107   7.268
75394SOL     OW28078  11.292   1.086  13.725
75394SOL    HW128079  11.243   1.168  13.734
75394SOL    HW228080  11.224   1.019  13.715
75395SOL     OW28081   8.675   9.644   8.323
75395SOL    HW128082   8.589   9.601   8.323
75395SOL    HW228083   8.656   9.737   8.314
75396SOL     OW28084   0.760  11.983   6.918
75396SOL    HW128085   0.668  12.002   6.939
75396SOL    HW228086   0.794  12.067   6.886
75397SOL     OW28087  11.334   0.636  12.141
75397SOL    HW128088  11.362   0.688  12.217
75397SOL    HW228089  11.402   0.652  12.075
75398SOL     OW28090   6.469   0.835   1.250
75398SOL    HW128091   6.419   0.755   1.268
75398SOL    HW228092   6.403   0.899   1.223
75399SOL     OW28093   7.568  12.971   6.159
75399SOL    HW128094   7.534  12.920   6.085
75399SOL    HW228095   7.490  12.999   6.207
75400SOL     OW28096  14.230   3.682   5.374
75400SOL    HW128097  14.195   3.593   5.370
75400SOL    HW228098  14.189   3.728   5.301
75401SOL     OW28099   1.034  12.883  12.757
75401SOL    HW128100   1.014  12.958  12.814
75401SOL    HW228101   1.129  12.872  12.765
75402SOL     OW28102  14.850   9.371   3.879
75402SOL    HW128103  14.795   9.293   3.894
75402SOL    HW228104   0.065   9.339   3.889
75403SOL     OW28105  14.409   2.748   1.159
75403SOL    HW128106  14.315   2.760   1.177
75403SOL    HW228107  14.413   2.664   1.112
75404SOL     OW28108   9.540   1.101   8.838
75404SOL    HW128109   9.488   1.107   8.918
75404SOL    HW228110   9.627   1.131   8.864
75405SOL     OW28111   8.942  13.285   2.682
75405SOL    HW128112   8.929  13.294   2.777
75405SOL    HW228113   8.956  13.192   2.669
75406SOL     OW28114   2.350   6.416   0.223
75406SOL    HW128115   2.271   6.362   0.218
75406SOL    HW228116   2.329   6.494   0.172
75407SOL     OW28117  12.199  13.729   5.973
75407SOL    HW128118  12.105  13.729   5.992
75407SOL    HW228119  12.215  13.645   5.930
75408SOL     OW28120  10.597   1.483   7.239
75408SOL    HW128121  10.621   1.536   7.315
75408SOL    HW228122  10.661   1.411   7.239
75409SOL     OW28123   5.778   9.108   7.855
75409SOL    HW128124   5.855   9.084   7.907
75409SOL    HW228125   5.709   9.049   7.885
75410SOL     OW28126  11.071   1.204   7.800
75410SOL    HW128127  11.110   1.118   7.811
75410SOL    HW228128  11.049   1.232   7.889
75411SOL     OW28129  12.721   0.592   7.590
75411SOL    HW128130  12.704   0.503   7.560
75411SOL    HW228131  12.810   0.611   7.560
75412SOL     OW28132   8.126   2.393  11.045
75412SOL    HW128133   8.043   2.375  11.091
75412SOL    HW228134   8.173   2.310  11.047
75413SOL     OW28135   7.669  12.466   3.794
75413SOL    HW128136   7.698  12.557   3.785
75413SOL    HW228137   7.574  12.469   3.780
75414SOL     OW28138   8.558  10.735  14.293
75414SOL    HW128139   8.506  10.779  14.226
75414SOL    HW228140   8.497  10.725  14.367
75415SOL     OW28141   5.230   8.486  12.590
75415SOL    HW128142   5.217   8.580  12.595
75415SOL    HW228143   5.282   8.464  12.668
75416SOL     OW28144   5.882  11.185   6.618
75416SOL    HW128145   5.849  11.167   6.530
75416SOL    HW228146   5.964  11.135   6.623
75417SOL     OW28147   1.825   1.689  13.911
75417SOL    HW128148   1.729   1.694  13.903
75417SOL    HW228149   1.845   1.743  13.988
75418SOL     OW28150   1.456   0.961  14.255
75418SOL    HW128151   1.421   1.039  14.211
75418SOL    HW228152   1.459   0.985  14.348
75419SOL     OW28153   1.118   7.893   0.148
75419SOL    HW128154   1.103   7.950   0.223
75419SOL    HW228155   1.031   7.862   0.124
75420SOL     OW28156   2.531  13.248   2.822
75420SOL    HW128157   2.506  13.312   2.755
75420SOL    HW228158   2.468  13.260   2.893
75421SOL     OW28159  10.092  12.528  12.032
75421SOL    HW128160  10.182  12.496  12.034
75421SOL    HW228161  10.059  12.512  12.120
75422SOL     OW28162   9.296   0.221   4.410
75422SOL    HW128163   9.273   0.312   4.426
75422SOL    HW228164   9.368   0.224   4.347
75423SOL     OW28165   6.501   0.207   1.968
75423SOL    HW128166   6.595   0.222   1.956
75423SOL    HW228167   6.482   0.131   1.913
75424SOL     OW28168   0.577   7.352  13.928
75424SOL    HW128169   0.534   7.272  13.897
75424SOL    HW228170   0.634   7.322  13.999
75425SOL     OW28171  13.936  13.774   5.909
75425SOL    HW128172  13.924  13.859   5.951
75425SOL    HW228173  14.017  13.784   5.859
75426SOL     OW28174   1.570   5.321  13.553
75426SOL    HW128175   1.536   5.231  13.547
75426SOL    HW228176   1.634   5.327  13.482
75427SOL     OW28177  10.687  12.955   4.497
75427SOL    HW128178  10.598  12.925   4.517
75427SOL    HW228179  10.734  12.876   4.472
75428SOL     OW28180   7.310   6.217   7.915
75428SOL    HW128181   7.289   6.223   7.822
75428SOL    HW228182   7.336   6.126   7.929
75429SOL     OW28183   4.128  10.339   1.855
75429SOL    HW128184   4.071  10.396   1.906
75429SOL    HW228185   4.089  10.336   1.768
75430SOL     OW28186   2.554   7.232  13.936
75430SOL    HW128187   2.537   7.309  13.989
75430SOL    HW228188   2.564   7.266  13.847
75431SOL     OW28189   3.485   8.817   3.889
75431SOL    HW128190   3.439   8.895   3.858
75431SOL    HW228191   3.572   8.824   3.851
75432SOL     OW28192  10.869   0.365   4.138
75432SOL    HW128193  10.856   0.270   4.130
75432SOL    HW228194  10.941   0.384   4.078
75433SOL     OW28195  13.569   3.294  11.547
75433SOL    HW128196  13.539   3.250  11.467
75433SOL    HW228197  13.544   3.235  11.618
75434SOL     OW28198  13.208   0.236  14.254
75434SOL    HW128199  13.193   0.218  14.347
75434SOL    HW228200  13.280   0.178  14.229
75435SOL     OW28201  13.303   3.090   0.926
75435SOL    HW128202  13.338   3.161   0.872
75435SOL    HW228203  13.257   3.135   0.998
75436SOL     OW28204   6.685   8.187  12.586
75436SOL    HW128205   6.688   8.279  12.558
75436SOL    HW228206   6.749   8.143  12.530
75437SOL     OW28207   7.950   1.427  12.868
75437SOL    HW128208   7.956   1.401  12.960
75437SOL    HW228209   7.949   1.344  12.820
75438SOL     OW28210   0.000  10.331   6.084
75438SOL    HW128211   0.074  10.294   6.131
75438SOL    HW228212  14.811  10.351   6.151
75439SOL     OW28213   4.998  11.098   7.329
75439SOL    HW128214   4.999  11.015   7.280
75439SOL    HW228215   4.945  11.157   7.274
75440SOL     OW28216   7.463   9.533   9.493
75440SOL    HW128217   7.495   9.571   9.575
75440SOL    HW228218   7.378   9.495   9.516
75441SOL     OW28219   7.171  11.443   1.384
75441SOL    HW128220   7.264  11.457   1.367
75441SOL    HW228221   7.131  11.437   1.297
75442SOL     OW28222   2.802  13.143   6.024
75442SOL    HW128223   2.741  13.117   5.955
75442SOL    HW228224   2.761  13.221   6.064
75443SOL     OW28225   6.105   8.146   5.403
75443SOL    HW128226   6.062   8.220   5.444
75443SOL    HW228227   6.065   8.141   5.316
75444SOL     OW28228   0.178   9.945   7.497
75444SOL    HW128229   0.242   9.929   7.567
75444SOL    HW228230   0.109   9.881   7.512
75445SOL     OW28231   9.712   2.011   3.914
75445SOL    HW128232   9.646   2.003   3.846
75445SOL    HW228233   9.662   2.014   3.996
75446SOL     OW28234   1.902   7.167   7.931
75446SOL    HW128235   1.995   7.178   7.911
75446SOL    HW228236   1.872   7.254   7.955
75447SOL     OW28237   0.428  10.939   9.206
75447SOL    HW128238   0.469  10.854   9.220
75447SOL    HW228239   0.501  11.000   9.198
75448SOL     OW28240  12.646   4.971  14.067
75448SOL    HW128241  12.586   5.046  14.076
75448SOL    HW228242  12.589   4.894  14.068
75449SOL     OW28243   8.048   9.170   8.545
75449SOL    HW128244   8.046   9.250   8.493
75449SOL    HW228245   8.015   9.195   8.631
75450SOL     OW28246  14.367   5.772   2.587
75450SOL    HW128247  14.363   5.695   2.645
75450SOL    HW228248  14.322   5.744   2.507
75451SOL     OW28249   5.255   8.430   2.570
75451SOL    HW128250   5.340   8.424   2.612
75451SOL    HW228251   5.275   8.433   2.476
75452SOL     OW28252   3.260   2.807   1.310
75452SOL    HW128253   3.279   2.750   1.385
75452SOL    HW228254   3.282   2.895   1.341
75453SOL     OW28255  14.417   3.390   5.307
75453SOL    HW128256  14.444   3.481   5.311
75453SOL    HW228257  14.484   3.347   5.254
75454SOL     OW28258   4.018   6.528  10.869
75454SOL    HW128259   3.925   6.509  10.882
75454SOL    HW228260   4.019   6.600  10.805
75455SOL     OW28261  11.695  10.988   6.903
75455SOL    HW128262  11.633  11.042   6.951
75455SOL    HW228263  11.780  11.007   6.943
75456SOL     OW28264   1.715   8.145   1.400
75456SOL    HW128265   1.772   8.190   1.462
75456SOL    HW228266   1.655   8.213   1.369
75457SOL     OW28267   7.585   4.658   3.540
75457SOL    HW128268   7.634   4.647   3.459
75457SOL    HW228269   7.632   4.604   3.604
75458SOL     OW28270   6.012  10.316   3.155
75458SOL    HW128271   5.988  10.355   3.071
75458SOL    HW228272   5.938  10.335   3.213
75459SOL     OW28273   9.739   8.581   6.790
75459SOL    HW128274   9.832   8.561   6.794
75459SOL    HW228275   9.711   8.586   6.882
75460SOL     OW28276   4.026   9.140   6.632
75460SOL    HW128277   3.953   9.078   6.625
75460SOL    HW228278   4.007   9.207   6.566
75461SOL     OW28279   1.415  11.616   8.438
75461SOL    HW128280   1.373  11.677   8.377
75461SOL    HW228281   1.507  11.616   8.413
75462SOL     OW28282   8.329  10.145   3.080
75462SOL    HW128283   8.289  10.210   3.022
75462SOL    HW228284   8.423  10.162   3.074
75463SOL     OW28285   6.567   0.885   2.187
75463SOL    HW128286   6.648   0.924   2.219
75463SOL    HW228287   6.586   0.861   2.097
75464SOL     OW28288   3.715   3.587  14.808
75464SOL    HW128289   3.762   3.612  14.729
75464SOL    HW228290   3.625   3.572  14.779
75465SOL     OW28291   0.458  11.024  12.526
75465SOL    HW128292   0.428  10.966  12.457
75465SOL    HW228293   0.514  10.969  12.581
75466SOL     OW28294   2.201   3.079  13.219
75466SOL    HW128295   2.246   3.142  13.163
75466SOL    HW228296   2.194   3.000  13.165
75467SOL     OW28297  12.219   6.786   4.167
75467SOL    HW128298  12.123   6.778   4.168
75467SOL    HW228299  12.247   6.720   4.103
75468SOL     OW28300   4.043   1.262   7.354
75468SOL    HW128301   4.088   1.184   7.387
75468SOL    HW228302   4.082   1.277   7.268
75469SOL     OW28303   0.229   4.097   0.130
75469SOL    HW128304   0.156   4.148   0.097
75469SOL    HW228305   0.241   4.126   0.220
75470SOL     OW28306   1.143   6.910   9.291
75470SOL    HW128307   1.117   6.968   9.363
75470SOL    HW228308   1.071   6.847   9.284
75471SOL     OW28309   7.283   2.185   6.789
75471SOL    HW128310   7.364   2.226   6.757
75471SOL    HW228311   7.231   2.258   6.822
75472SOL     OW28312   5.522  10.090   9.016
75472SOL    HW128313   5.505  10.084   8.922
75472SOL    HW228314   5.436  10.077   9.056
75473SOL     OW28315   4.072   4.618   0.813
75473SOL    HW128316   4.049   4.637   0.722
75473SOL    HW228317   4.104   4.527   0.811
75474SOL     OW28318  10.479  13.359  13.120
75474SOL    HW128319  10.502  13.330  13.032
75474SOL    HW228320  10.537  13.434  13.136
75475SOL     OW28321  12.196   1.422  13.869
75475SOL    HW128322  12.226   1.333  13.851
75475SOL    HW228323  12.261   1.457  13.929
75476SOL     OW28324   6.437   0.196  12.259
75476SOL    HW128325   6.460   0.112  12.299
75476SOL    HW228326   6.380   0.174  12.186
75477SOL     OW28327   2.601  12.853   7.853
75477SOL    HW128328   2.684  12.842   7.806
75477SOL    HW228329   2.540  12.794   7.808
75478SOL     OW28330   8.868   9.576   9.358
75478SOL    HW128331   8.904   9.555   9.272
75478SOL    HW228332   8.810   9.650   9.342
75479SOL     OW28333   6.708   8.230   8.442
75479SOL    HW128334   6.615   8.254   8.436
75479SOL    HW228335   6.722   8.216   8.536
75480SOL     OW28336   4.730   3.667  11.111
75480SOL    HW128337   4.743   3.714  11.194
75480SOL    HW228338   4.655   3.610  11.129
75481SOL     OW28339   4.031   6.852   6.128
75481SOL    HW128340   3.963   6.838   6.193
75481SOL    HW228341   4.110   6.815   6.167
75482SOL     OW28342   0.975   6.913   5.173
75482SOL    HW128343   1.065   6.884   5.187
75482SOL    HW228344   0.933   6.906   5.258
75483SOL     OW28345  13.859  12.978   1.293
75483SOL    HW128346  13.777  13.004   1.336
75483SOL    HW228347  13.840  12.984   1.199
75484SOL     OW28348   3.156   2.747  10.956
75484SOL    HW128349   3.155   2.682  11.026
75484SOL    HW228350   3.093   2.714  10.892
75485SOL     OW28351  14.624  11.953   7.509
75485SOL    HW128352  14.720  11.959   7.512
75485SOL    HW228353  14.594  12.042   7.494
75486SOL     OW28354   4.090   5.828   7.137
75486SOL    HW128355   4.138   5.747   7.153
75486SOL    HW228356   4.022   5.803   7.075
75487SOL     OW28357   1.690   5.722  14.578
75487SOL    HW128358   1.673   5.814  14.600
75487SOL    HW228359   1.719   5.683  14.660
75488SOL     OW28360   7.551   3.937  10.621
75488SOL    HW128361   7.633   3.987  10.621
75488SOL    HW228362   7.543   3.904  10.710
75489SOL     OW28363   4.069   3.185  10.181
75489SOL    HW128364   4.035   3.261  10.133
75489SOL    HW228365   3.993   3.150  10.227
75490SOL     OW28366  12.543  13.284  14.194
75490SOL    HW128367  12.585  13.315  14.113
75490SOL    HW228368  12.531  13.190  14.181
75491SOL     OW28369   2.510   2.068   4.445
75491SOL    HW128370   2.473   1.997   4.393
75491SOL    HW228371   2.532   2.136   4.382
75492SOL     OW28372   4.436   9.686   2.315
75492SOL    HW128373   4.370   9.753   2.298
75492SOL    HW228374   4.475   9.711   2.399
75493SOL     OW28375  11.785  11.116   8.871
75493SOL    HW128376  11.784  11.150   8.960
75493SOL    HW228377  11.875  11.084   8.859
75494SOL     OW28378   4.947  10.264  13.855
75494SOL    HW128379   4.912  10.184  13.893
75494SOL    HW228380   4.976  10.239  13.767
75495SOL     OW28381  11.483   8.681  14.310
75495SOL    HW128382  11.572   8.645  14.315
75495SOL    HW228383  11.437   8.622  14.250
75496SOL     OW28384   1.394  13.951   2.313
75496SOL    HW128385   1.440  14.004   2.248
75496SOL    HW228386   1.384  13.865   2.272
75497SOL     OW28387   3.508  11.228   7.612
75497SOL    HW128388   3.496  11.262   7.523
75497SOL    HW228389   3.419  11.218   7.645
75498SOL     OW28390  14.008   5.018   8.169
75498SOL    HW128391  14.013   5.028   8.264
75498SOL    HW228392  13.915   5.006   8.152
75499SOL     OW28393   8.625   3.485  12.997
75499SOL    HW128394   8.546   3.498  13.050
75499SOL    HW228395   8.662   3.402  13.027
75500SOL     OW28396  13.485   5.734   9.288
75500SOL    HW128397  13.427   5.780   9.349
75500SOL    HW228398  13.500   5.797   9.217
75501SOL     OW28399  10.233   2.060   4.072
75501SOL    HW128400  10.294   2.115   4.024
75501SOL    HW228401  10.208   1.991   4.011
75502SOL     OW28402   8.762   5.991   8.702
75502SOL    HW128403   8.817   5.916   8.677
75502SOL    HW228404   8.712   5.959   8.777
75503SOL     OW28405   2.951  12.353  12.433
75503SOL    HW128406   2.999  12.416  12.379
75503SOL    HW228407   2.862  12.386  12.436
75504SOL     OW28408  13.336   6.873   4.900
75504SOL    HW128409  13.262   6.898   4.954
75504SOL    HW228410  13.412   6.913   4.943
75505SOL     OW28411   2.776   2.286   4.646
75505SOL    HW128412   2.833   2.363   4.641
75505SOL    HW228413   2.692   2.316   4.611
75506SOL     OW28414   5.676  11.995   5.464
75506SOL    HW128415   5.710  12.009   5.376
75506SOL    HW228416   5.705  11.907   5.487
75507SOL     OW28417  13.656   1.076  11.133
75507SOL    HW128418  13.725   1.109  11.191
75507SOL    HW228419  13.576   1.118  11.165
75508SOL     OW28420   8.746  14.871   7.034
75508SOL    HW128421   8.820   0.010   6.976
75508SOL    HW228422   8.676  14.839   6.978
75509SOL     OW28423  11.583   7.005   7.523
75509SOL    HW128424  11.543   6.964   7.600
75509SOL    HW228425  11.669   6.964   7.517
75510SOL     OW28426   6.198  13.401  11.455
75510SOL    HW128427   6.127  13.339  11.471
75510SOL    HW228428   6.153  13.483  11.432
75511SOL     OW28429   4.484   4.297   5.799
75511SOL    HW128430   4.556   4.235   5.792
75511SOL    HW228431   4.522   4.381   5.776
75512SOL     OW28432  11.060   6.174   6.943
75512SOL    HW128433  10.986   6.196   6.885
75512SOL    HW228434  11.068   6.079   6.937
75513SOL     OW28435  10.080   6.129   3.176
75513SOL    HW128436   9.988   6.153   3.183
75513SOL    HW228437  10.097   6.076   3.255
75514SOL     OW28438  10.022  13.383  10.875
75514SOL    HW128439  10.040  13.474  10.849
75514SOL    HW228440  10.004  13.389  10.969
75515SOL     OW28441   1.353   8.834   5.709
75515SOL    HW128442   1.312   8.785   5.781
75515SOL    HW228443   1.444   8.845   5.737
75516SOL     OW28444  13.303  10.823  10.661
75516SOL    HW128445  13.336  10.911  10.680
75516SOL    HW228446  13.342  10.767  10.728
75517SOL     OW28447  12.706   8.616   5.665
75517SOL    HW128448  12.640   8.556   5.699
75517SOL    HW228449  12.658   8.695   5.643
75518SOL     OW28450   0.673   9.267   5.500
75518SOL    HW128451   0.754   9.217   5.511
75518SOL    HW228452   0.621   9.245   5.577
75519SOL     OW28453  11.695  13.478  13.697
75519SOL    HW128454  11.725  13.444  13.613
75519SOL    HW228455  11.774  13.514  13.738
75520SOL     OW28456   0.275  11.544  13.797
75520SOL    HW128457   0.191  11.587  13.810
75520SOL    HW228458   0.340  11.611  13.819
75521SOL     OW28459   2.472   2.841   9.152
75521SOL    HW128460   2.546   2.781   9.150
75521SOL    HW228461   2.457   2.865   9.061
75522SOL     OW28462  13.627   0.773   1.705
75522SOL    HW128463  13.537   0.761   1.676
75522SOL    HW228464  13.680   0.728   1.639
75523SOL     OW28465   4.730  12.121  13.401
75523SOL    HW128466   4.659  12.078  13.448
75523SOL    HW228467   4.714  12.215  13.414
75524SOL     OW28468  13.699   6.149   6.897
75524SOL    HW128469  13.692   6.104   6.813
75524SOL    HW228470  13.616   6.195   6.907
75525SOL     OW28471   3.077   6.220   2.902
75525SOL    HW128472   3.047   6.130   2.916
75525SOL    HW228473   3.066   6.235   2.808
75526SOL     OW28474   7.976   5.414   9.462
75526SOL    HW128475   8.058   5.397   9.415
75526SOL    HW228476   8.001   5.413   9.555
75527SOL     OW28477   0.442  12.468   7.466
75527SOL    HW128478   0.474  12.554   7.494
75527SOL    HW228479   0.471  12.408   7.535
75528SOL     OW28480  10.142   8.820  12.733
75528SOL    HW128481  10.074   8.783  12.678
75528SOL    HW228482  10.198   8.870  12.673
75529SOL     OW28483   1.261   1.331  11.929
75529SOL    HW128484   1.264   1.340  11.834
75529SOL    HW228485   1.171   1.306  11.948
75530SOL     OW28486   2.985   0.457   2.362
75530SOL    HW128487   2.962   0.532   2.308
75530SOL    HW228488   2.936   0.384   2.325
75531SOL     OW28489  14.665   4.059   1.483
75531SOL    HW128490  14.577   4.080   1.513
75531SOL    HW228491  14.656   4.039   1.390
75532SOL     OW28492  11.676  10.468   5.156
75532SOL    HW128493  11.591  10.438   5.187
75532SOL    HW228494  11.703  10.403   5.092
75533SOL     OW28495  14.126   4.539   9.663
75533SOL    HW128496  14.142   4.502   9.750
75533SOL    HW228497  14.031   4.541   9.654
75534SOL     OW28498   8.964   0.910   5.543
75534SOL    HW128499   8.938   0.828   5.585
75534SOL    HW228500   8.995   0.884   5.456
75535SOL     OW28501   8.175  11.232  11.957
75535SOL    HW128502   8.255  11.180  11.956
75535SOL    HW228503   8.106  11.171  11.932
75536SOL     OW28504   4.881  11.435   4.451
75536SOL    HW128505   4.877  11.487   4.371
75536SOL    HW228506   4.863  11.497   4.521
75537SOL     OW28507  11.022   6.305   1.193
75537SOL    HW128508  10.977   6.221   1.204
75537SOL    HW228509  11.104   6.282   1.150
75538SOL     OW28510  11.570   5.974  10.960
75538SOL    HW128511  11.567   5.962  10.866
75538SOL    HW228512  11.482   5.951  10.990
75539SOL     OW28513   4.434  10.558  11.948
75539SOL    HW128514   4.422  10.588  11.858
75539SOL    HW228515   4.512  10.604  11.978
75540SOL     OW28516   5.994   6.883  12.922
75540SOL    HW128517   5.925   6.857  12.983
75540SOL    HW228518   6.060   6.814  12.930
75541SOL     OW28519  12.867  14.134   2.530
75541SOL    HW128520  12.848  14.164   2.619
75541SOL    HW228521  12.914  14.208   2.490
75542SOL     OW28522   1.815   9.596   8.766
75542SOL    HW128523   1.845   9.619   8.854
75542SOL    HW228524   1.894   9.563   8.722
75543SOL     OW28525   5.589   9.723   6.327
75543SOL    HW128526   5.524   9.660   6.295
75543SOL    HW228527   5.647   9.737   6.252
75544SOL     OW28528   1.488   3.341   7.274
75544SOL    HW128529   1.580   3.318   7.261
75544SOL    HW228530   1.457   3.369   7.188
75545SOL     OW28531   8.239   3.875   3.962
75545SOL    HW128532   8.261   3.948   4.020
75545SOL    HW228533   8.321   3.855   3.917
75546SOL     OW28534   9.386  14.189   8.134
75546SOL    HW128535   9.469  14.142   8.123
75546SOL    HW228536   9.382  14.248   8.059
75547SOL     OW28537   1.926   8.723   3.867
75547SOL    HW128538   2.006   8.671   3.857
75547SOL    HW228539   1.916   8.734   3.961
75548SOL     OW28540  10.928   7.185   2.365
75548SOL    HW128541  10.950   7.255   2.426
75548SOL    HW228542  10.969   7.107   2.402
75549SOL     OW28543   2.586   0.580   7.259
75549SOL    HW128544   2.517   0.520   7.231
75549SOL    HW228545   2.544   0.666   7.260
75550SOL     OW28546   7.764   6.394  13.167
75550SOL    HW128547   7.813   6.417  13.247
75550SOL    HW228548   7.825   6.342  13.115
75551SOL     OW28549   5.799  10.556  10.068
75551SOL    HW128550   5.710  10.524  10.082
75551SOL    HW228551   5.855  10.486  10.100
75552SOL     OW28552  12.104   1.769   1.084
75552SOL    HW128553  12.039   1.813   1.030
75552SOL    HW228554  12.146   1.839   1.134
75553SOL     OW28555   6.333   9.383   7.856
75553SOL    HW128556   6.286   9.322   7.912
75553SOL    HW228557   6.367   9.329   7.784
75554SOL     OW28558   7.118   1.897   5.741
75554SOL    HW128559   7.172   1.976   5.735
75554SOL    HW228560   7.073   1.906   5.825
75555SOL     OW28561  12.115   5.087   0.473
75555SOL    HW128562  12.177   5.096   0.401
75555SOL    HW228563  12.029   5.099   0.433
75556SOL     OW28564   3.742   0.909   5.494
75556SOL    HW128565   3.684   0.960   5.551
75556SOL    HW228566   3.720   0.937   5.405
75557SOL     OW28567   3.847   6.507   0.833
75557SOL    HW128568   3.934   6.546   0.845
75557SOL    HW228569   3.829   6.517   0.739
75558SOL     OW28570   6.726  12.228   5.824
75558SOL    HW128571   6.695  12.237   5.733
75558SOL    HW228572   6.751  12.317   5.849
75559SOL     OW28573  13.136  14.039  12.985
75559SOL    HW128574  13.051  14.052  12.943
75559SOL    HW228575  13.115  14.006  13.073
75560SOL     OW28576   0.804  13.684   5.772
75560SOL    HW128577   0.844  13.649   5.692
75560SOL    HW228578   0.710  13.686   5.752
75561SOL     OW28579   0.674   3.509   7.852
75561SOL    HW128580   0.751   3.505   7.795
75561SOL    HW228581   0.655   3.417   7.873
75562SOL     OW28582  14.602   2.279   0.882
75562SOL    HW128583  14.544   2.246   0.814
75562SOL    HW228584  14.578   2.230   0.961
75563SOL     OW28585   1.328   9.684   3.738
75563SOL    HW128586   1.339   9.776   3.713
75563SOL    HW228587   1.415   9.645   3.724
75564SOL     OW28588   2.192   1.570  10.594
75564SOL    HW128589   2.162   1.568  10.503
75564SOL    HW228590   2.259   1.502  10.599
75565SOL     OW28591   8.927   4.836  11.330
75565SOL    HW128592   8.916   4.762  11.390
75565SOL    HW228593   8.998   4.887  11.367
75566SOL     OW28594   6.024   8.907  11.038
75566SOL    HW128595   6.019   8.811  11.034
75566SOL    HW228596   5.934   8.935  11.055
75567SOL     OW28597   7.854  14.491   1.187
75567SOL    HW128598   7.831  14.403   1.155
75567SOL    HW228599   7.811  14.551   1.126
75568SOL     OW28600   4.337   4.729   8.686
75568SOL    HW128601   4.379   4.653   8.647
75568SOL    HW228602   4.402   4.765   8.746
75569SOL     OW28603  11.656   7.102   2.644
75569SOL    HW128604  11.700   7.026   2.679
75569SOL    HW228605  11.647   7.084   2.550
75570SOL     OW28606  14.123   3.675  12.707
75570SOL    HW128607  14.196   3.650  12.764
75570SOL    HW228608  14.107   3.767  12.726
75571SOL     OW28609   0.461   6.623   7.953
75571SOL    HW128610   0.500   6.708   7.974
75571SOL    HW228611   0.473   6.571   8.032
75572SOL     OW28612   3.549   8.466   1.517
75572SOL    HW128613   3.563   8.372   1.531
75572SOL    HW228614   3.474   8.471   1.457
75573SOL     OW28615  13.683  12.973  13.204
75573SOL    HW128616  13.619  13.020  13.151
75573SOL    HW228617  13.759  12.964  13.146
75574SOL     OW28618   7.972   2.576   1.201
75574SOL    HW128619   7.928   2.632   1.137
75574SOL    HW228620   7.901   2.540   1.254
75575SOL     OW28621   1.644   8.928  11.473
75575SOL    HW128622   1.572   8.876  11.508
75575SOL    HW228623   1.604   8.985  11.408
75576SOL     OW28624   7.788   4.336   6.608
75576SOL    HW128625   7.875   4.325   6.570
75576SOL    HW228626   7.756   4.419   6.571
75577SOL     OW28627   8.355  12.624   3.533
75577SOL    HW128628   8.296  12.693   3.563
75577SOL    HW228629   8.326  12.545   3.580
75578SOL     OW28630   1.341   1.420  13.284
75578SOL    HW128631   1.300   1.435  13.369
75578SOL    HW228632   1.322   1.329  13.263
75579SOL     OW28633   6.911   3.628   8.332
75579SOL    HW128634   6.919   3.549   8.386
75579SOL    HW228635   6.819   3.652   8.338
75580SOL     OW28636   0.593  13.932   9.352
75580SOL    HW128637   0.623  13.883   9.429
75580SOL    HW228638   0.671  13.940   9.297
75581SOL     OW28639   7.767  10.384   3.288
75581SOL    HW128640   7.843  10.326   3.287
75581SOL    HW228641   7.754  10.405   3.381
75582SOL     OW28642   1.440   1.402   1.211
75582SOL    HW128643   1.534   1.384   1.199
75582SOL    HW228644   1.438   1.469   1.280
75583SOL     OW28645   1.521   8.653   2.414
75583SOL    HW128646   1.583   8.704   2.467
75583SOL    HW228647   1.456   8.716   2.385
75584SOL     OW28648  14.629   3.805   9.594
75584SOL    HW128649  14.558   3.824   9.656
75584SOL    HW228650  14.705   3.849   9.631
75585SOL     OW28651   6.925  13.228   6.368
75585SOL    HW128652   6.867  13.232   6.292
75585SOL    HW228653   6.872  13.189   6.437
75586SOL     OW28654   9.581   0.560  13.150
75586SOL    HW128655   9.530   0.631  13.112
75586SOL    HW228656   9.516   0.504  13.193
75587SOL     OW28657  11.686  11.968   9.196
75587SOL    HW128658  11.652  12.056   9.177
75587SOL    HW228659  11.653  11.948   9.283
75588SOL     OW28660   3.611   1.509   1.186
75588SOL    HW128661   3.616   1.602   1.165
75588SOL    HW228662   3.628   1.465   1.102
75589SOL     OW28663   4.668   6.842   6.028
75589SOL    HW128664   4.650   6.917   5.971
75589SOL    HW228665   4.599   6.779   6.008
75590SOL     OW28666   8.345   9.238  12.972
75590SOL    HW128667   8.383   9.227  12.885
75590SOL    HW228668   8.322   9.331  12.977
75591SOL     OW28669  13.840   6.198   2.553
75591SOL    HW128670  13.802   6.226   2.469
75591SOL    HW228671  13.767   6.200   2.615
75592SOL     OW28672   6.696   7.455  14.504
75592SOL    HW128673   6.721   7.387  14.442
75592SOL    HW228674   6.657   7.523  14.450
75593SOL     OW28675  10.714  10.557   2.153
75593SOL    HW128676  10.796  10.603   2.170
75593SOL    HW228677  10.737  10.490   2.088
75594SOL     OW28678  13.875   5.203   9.725
75594SOL    HW128679  13.937   5.200   9.653
75594SOL    HW228680  13.791   5.181   9.686
75595SOL     OW28681   2.173   2.528   9.725
75595SOL    HW128682   2.198   2.465   9.658
75595SOL    HW228683   2.217   2.609   9.698
75596SOL     OW28684   8.814   8.738  10.706
75596SOL    HW128685   8.890   8.779  10.749
75596SOL    HW228686   8.821   8.645  10.730
75597SOL     OW28687   2.374   7.187   1.209
75597SOL    HW128688   2.429   7.244   1.263
75597SOL    HW228689   2.387   7.218   1.120
75598SOL     OW28690  12.681  14.244   9.436
75598SOL    HW128691  12.654  14.157   9.465
75598SOL    HW228692  12.775  14.238   9.425
75599SOL     OW28693   7.691  14.471  13.107
75599SOL    HW128694   7.673  14.528  13.182
75599SOL    HW228695   7.618  14.410  13.105
75600SOL     OW28696   8.597   3.379  13.738
75600SOL    HW128697   8.570   3.424  13.658
75600SOL    HW228698   8.549   3.296  13.737
75601SOL     OW28699  13.004   0.124   2.530
75601SOL    HW128700  12.931   0.078   2.489
75601SOL    HW228701  13.051   0.163   2.456
75602SOL     OW28702   6.268   1.560   7.619
75602SOL    HW128703   6.182   1.584   7.582
75602SOL    HW228704   6.327   1.561   7.544
75603SOL     OW28705   6.707   5.908   6.049
75603SOL    HW128706   6.674   5.909   6.139
75603SOL    HW228707   6.779   5.971   6.050
75604SOL     OW28708   8.700  10.076  13.695
75604SOL    HW128709   8.785  10.118  13.681
75604SOL    HW228710   8.677  10.039  13.610
75605SOL     OW28711  11.056   1.389   4.478
75605SOL    HW128712  10.993   1.409   4.547
75605SOL    HW228713  11.003   1.356   4.405
75606SOL     OW28714  10.837   0.543   0.967
75606SOL    HW128715  10.909   0.481   0.961
75606SOL    HW228716  10.801   0.547   0.878
75607SOL     OW28717   7.958   7.188   4.580
75607SOL    HW128718   7.986   7.279   4.570
75607SOL    HW228719   8.036   7.142   4.609
75608SOL     OW28720   2.042  10.038   6.216
75608SOL    HW128721   2.120  10.046   6.270
75608SOL    HW228722   2.025   9.943   6.212
75609SOL     OW28723   6.755  11.379  12.462
75609SOL    HW128724   6.838  11.345  12.430
75609SOL    HW228725   6.718  11.427  12.388
75610SOL     OW28726  12.687   6.972  14.575
75610SOL    HW128727  12.759   6.968  14.511
75610SOL    HW228728  12.705   7.050  14.627
75611SOL     OW28729  13.673   3.090   3.009
75611SOL    HW128730  13.593   3.039   3.005
75611SOL    HW228731  13.704   3.079   3.099
75612SOL     OW28732  10.175   4.843  11.463
75612SOL    HW128733  10.104   4.785  11.437
75612SOL    HW228734  10.231   4.849  11.385
75613SOL     OW28735   8.164   6.841   2.770
75613SOL    HW128736   8.205   6.755   2.761
75613SOL    HW228737   8.125   6.859   2.684
75614SOL     OW28738   5.942   0.499   8.361
75614SOL    HW128739   5.949   0.410   8.325
75614SOL    HW228740   6.028   0.537   8.347
75615SOL     OW28741   3.251  13.496  11.173
75615SOL    HW128742   3.179  13.445  11.136
75615SOL    HW228743   3.210  13.554  11.238
75616SOL     OW28744   7.815   2.640   2.254
75616SOL    HW128745   7.885   2.598   2.304
75616SOL    HW228746   7.807   2.727   2.291
75617SOL     OW28747   7.261   9.036  12.612
75617SOL    HW128748   7.185   9.038  12.555
75617SOL    HW228749   7.336   9.028  12.553
75618SOL     OW28750  13.528   2.927  12.311
75618SOL    HW128751  13.540   2.856  12.247
75618SOL    HW228752  13.585   2.903  12.384
75619SOL     OW28753   5.967   3.717   5.117
75619SOL    HW128754   5.939   3.808   5.118
75619SOL    HW228755   5.934   3.683   5.033
75620SOL     OW28756   8.804   4.072   2.797
75620SOL    HW128757   8.758   4.145   2.754
75620SOL    HW228758   8.896   4.100   2.797
75621SOL     OW28759  14.221   1.896  12.728
75621SOL    HW128760  14.128   1.873  12.738
75621SOL    HW228761  14.263   1.814  12.704
75622SOL     OW28762   8.402   0.990   8.946
75622SOL    HW128763   8.409   0.924   8.877
75622SOL    HW228764   8.317   1.032   8.931
75623SOL     OW28765   8.762   4.888   3.010
75623SOL    HW128766   8.852   4.886   3.043
75623SOL    HW228767   8.710   4.914   3.085
75624SOL     OW28768   3.697   7.407   5.143
75624SOL    HW128769   3.626   7.470   5.128
75624SOL    HW228770   3.745   7.442   5.218
75625SOL     OW28771   9.377   6.506   7.419
75625SOL    HW128772   9.409   6.437   7.478
75625SOL    HW228773   9.349   6.576   7.477
75626SOL     OW28774  14.844  10.928   1.457
75626SOL    HW128775  14.875  10.995   1.518
75626SOL    HW228776  14.797  10.865   1.511
75627SOL     OW28777  13.986   5.123   5.635
75627SOL    HW128778  14.080   5.126   5.652
75627SOL    HW228779  13.947   5.181   5.702
75628SOL     OW28780   9.568   4.405   9.689
75628SOL    HW128781   9.558   4.436   9.779
75628SOL    HW228782   9.509   4.460   9.638
75629SOL     OW28783  14.079   0.761  13.982
75629SOL    HW128784  14.055   0.722  13.898
75629SOL    HW228785  14.175   0.762  13.981
75630SOL     OW28786   1.668  12.912  10.548
75630SOL    HW128787   1.579  12.884  10.572
75630SOL    HW228788   1.672  13.003  10.577
75631SOL     OW28789   7.046   5.369  11.299
75631SOL    HW128790   6.970   5.397  11.248
75631SOL    HW228791   7.109   5.339  11.234
75632SOL     OW28792  10.547   7.653  10.800
75632SOL    HW128793  10.519   7.626  10.713
75632SOL    HW228794  10.511   7.742  10.810
75633SOL     OW28795   7.745   7.841   8.887
75633SOL    HW128796   7.810   7.907   8.909
75633SOL    HW228797   7.692   7.880   8.818
75634SOL     OW28798   7.437   7.480   9.159
75634SOL    HW128799   7.438   7.474   9.255
75634SOL    HW228800   7.358   7.432   9.133
75635SOL     OW28801   6.894  14.267   3.577
75635SOL    HW128802   6.838  14.299   3.648
75635SOL    HW228803   6.963  14.333   3.569
75636SOL     OW28804   4.874   7.405   8.908
75636SOL    HW128805   4.812   7.373   8.842
75636SOL    HW228806   4.846   7.495   8.926
75637SOL     OW28807   0.461   4.299   5.078
75637SOL    HW128808   0.385   4.258   5.037
75637SOL    HW228809   0.535   4.272   5.024
75638SOL     OW28810  10.833   4.107   6.693
75638SOL    HW128811  10.842   4.110   6.597
75638SOL    HW228812  10.760   4.166   6.712
75639SOL     OW28813  12.305   3.418   7.403
75639SOL    HW128814  12.378   3.480   7.402
75639SOL    HW228815  12.337   3.343   7.352
75640SOL     OW28816   4.051   5.687   5.352
75640SOL    HW128817   4.094   5.680   5.267
75640SOL    HW228818   3.987   5.615   5.353
75641SOL     OW28819   8.504  12.296   8.786
75641SOL    HW128820   8.496  12.230   8.717
75641SOL    HW228821   8.424  12.348   8.780
75642SOL     OW28822   5.673   3.508   3.049
75642SOL    HW128823   5.597   3.491   3.105
75642SOL    HW228824   5.658   3.595   3.013
75643SOL     OW28825   9.062  13.058  12.959
75643SOL    HW128826   9.001  13.104  12.902
75643SOL    HW228827   9.146  13.101  12.944
75644SOL     OW28828   6.770   6.947  14.646
75644SOL    HW128829   6.745   6.860  14.613
75644SOL    HW228830   6.821   6.986  14.575
75645SOL     OW28831   1.183   2.222   3.620
75645SOL    HW128832   1.272   2.189   3.632
75645SOL    HW228833   1.131   2.175   3.685
75646SOL     OW28834  14.436   7.556   2.734
75646SOL    HW128835  14.352   7.557   2.781
75646SOL    HW228836  14.429   7.482   2.675
75647SOL     OW28837   5.723   2.372   6.249
75647SOL    HW128838   5.782   2.395   6.177
75647SOL    HW228839   5.756   2.287   6.281
75648SOL     OW28840   1.177   4.652  10.815
75648SOL    HW128841   1.264   4.661  10.777
75648SOL    HW228842   1.137   4.580  10.766
75649SOL     OW28843   7.817  11.606   0.750
75649SOL    HW128844   7.875  11.660   0.696
75649SOL    HW228845   7.791  11.534   0.692
75650SOL     OW28846  14.321  10.661   7.240
75650SOL    HW128847  14.393  10.722   7.258
75650SOL    HW228848  14.262  10.671   7.314
75651SOL     OW28849  12.539  12.611  10.070
75651SOL    HW128850  12.548  12.624   9.975
75651SOL    HW228851  12.589  12.531  10.088
75652SOL     OW28852   7.786   8.101   1.767
75652SOL    HW128853   7.759   8.171   1.827
75652SOL    HW228854   7.868   8.132   1.730
75653SOL     OW28855   7.644  14.571  13.365
75653SOL    HW128856   7.580  14.632  13.403
75653SOL    HW228857   7.723  14.584  13.417
75654SOL     OW28858   2.003   5.387  11.988
75654SOL    HW128859   2.062   5.462  11.993
75654SOL    HW228860   2.007   5.347  12.075
75655SOL     OW28861   1.690  14.791  12.682
75655SOL    HW128862   1.666  14.832  12.765
75655SOL    HW228863   1.673  14.698  12.695
75656SOL     OW28864   5.366  12.316   4.352
75656SOL    HW128865   5.306  12.291   4.423
75656SOL    HW228866   5.440  12.356   4.397
75657SOL     OW28867   4.363  13.306   1.538
75657SOL    HW128868   4.301  13.291   1.467
75657SOL    HW228869   4.443  13.337   1.495
75658SOL     OW28870   4.675   9.288  14.574
75658SOL    HW128871   4.739   9.359  14.579
75658SOL    HW228872   4.727   9.210  14.557
75659SOL     OW28873  12.011   9.786   7.766
75659SOL    HW128874  12.082   9.723   7.777
75659SOL    HW228875  12.041   9.864   7.812
75660SOL     OW28876  14.541   9.817  11.747
75660SOL    HW128877  14.470   9.873  11.716
75660SOL    HW228878  14.497   9.749  11.797
75661SOL     OW28879   8.504  13.685  14.033
75661SOL    HW128880   8.482  13.643  13.950
75661SOL    HW228881   8.588  13.647  14.058
75662SOL     OW28882   5.672  13.606  14.676
75662SOL    HW128883   5.644  13.692  14.645
75662SOL    HW228884   5.591  13.557  14.686
75663SOL     OW28885   5.558  12.355   5.485
75663SOL    HW128886   5.643  12.333   5.522
75663SOL    HW228887   5.554  12.306   5.402
75664SOL     OW28888   8.407   4.701  12.542
75664SOL    HW128889   8.353   4.763  12.493
75664SOL    HW228890   8.400   4.619  12.494
75665SOL     OW28891   3.649   8.995   9.861
75665SOL    HW128892   3.604   9.036   9.935
75665SOL    HW228893   3.742   8.994   9.887
75666SOL     OW28894   7.123  10.061   9.942
75666SOL    HW128895   7.145   9.990   9.881
75666SOL    HW228896   7.136  10.023  10.029
75667SOL     OW28897  14.621  10.221   9.511
75667SOL    HW128898  14.651  10.254   9.596
75667SOL    HW228899  14.690  10.160   9.483
75668SOL     OW28900  11.673   3.545  10.941
75668SOL    HW128901  11.735   3.547  11.013
75668SOL    HW228902  11.598   3.497  10.975
75669SOL     OW28903   1.064   7.758  13.771
75669SOL    HW128904   1.073   7.750  13.677
75669SOL    HW228905   1.133   7.819  13.797
75670SOL     OW28906  12.880   7.994   8.692
75670SOL    HW128907  12.787   7.971   8.690
75670SOL    HW228908  12.916   7.941   8.763
75671SOL     OW28909  12.799   2.650   3.433
75671SOL    HW128910  12.725   2.637   3.375
75671SOL    HW228911  12.848   2.568   3.429
75672SOL     OW28912   8.414   7.636   1.503
75672SOL    HW128913   8.449   7.662   1.588
75672SOL    HW228914   8.389   7.544   1.514
75673SOL     OW28915   4.384   8.910   3.719
75673SOL    HW128916   4.388   9.005   3.709
75673SOL    HW228917   4.362   8.877   3.632
75674SOL     OW28918   6.144  12.299  13.815
75674SOL    HW128919   6.132  12.210  13.849
75674SOL    HW228920   6.144  12.354  13.893
75675SOL     OW28921  10.894  12.053   9.915
75675SOL    HW128922  10.864  12.143   9.904
75675SOL    HW228923  10.967  12.045   9.855
75676SOL     OW28924  12.603   7.894  12.031
75676SOL    HW128925  12.515   7.865  12.054
75676SOL    HW228926  12.604   7.987  12.055
75677SOL     OW28927   9.966   4.007   7.155
75677SOL    HW128928   9.997   4.024   7.244
75677SOL    HW228929   9.875   4.036   7.155
75678SOL     OW28930   0.016   2.527   7.414
75678SOL    HW128931  14.847   2.607   7.386
75678SOL    HW228932   0.028   2.477   7.333
75679SOL     OW28933   9.659   2.118   7.519
75679SOL    HW128934   9.738   2.083   7.562
75679SOL    HW228935   9.692   2.182   7.457
75680SOL     OW28936  10.991   6.066  12.020
75680SOL    HW128937  10.959   5.994  12.075
75680SOL    HW228938  10.968   6.040  11.931
75681SOL     OW28939   2.104   0.295  10.391
75681SOL    HW128940   2.016   0.258  10.376
75681SOL    HW228941   2.126   0.267  10.480
75682SOL     OW28942  11.434   2.617  12.112
75682SOL    HW128943  11.520   2.658  12.117
75682SOL    HW228944  11.388   2.667  12.043
75683SOL     OW28945   0.945   4.053   0.649
75683SOL    HW128946   0.884   4.024   0.717
75683SOL    HW228947   0.967   3.972   0.602
75684SOL     OW28948  13.304   7.016  14.442
75684SOL    HW128949  13.375   6.969  14.398
75684SOL    HW228950  13.260   7.064  14.371
75685SOL     OW28951  12.923   4.725  14.669
75685SOL    HW128952  12.858   4.796  14.675
75685SOL    HW228953  12.998   4.766  14.627
75686SOL     OW28954  11.746  13.596   4.247
75686SOL    HW128955  11.827  13.555   4.275
75686SOL    HW228956  11.730  13.561   4.159
75687SOL     OW28957  12.115   6.052  12.252
75687SOL    HW128958  12.040   6.102  12.285
75687SOL    HW228959  12.183   6.067  12.317
75688SOL     OW28960   8.810  11.636   0.391
75688SOL    HW128961   8.764  11.601   0.467
75688SOL    HW228962   8.756  11.609   0.316
75689SOL     OW28963   3.895  13.682   4.009
75689SOL    HW128964   3.956  13.654   4.077
75689SOL    HW228965   3.818  13.627   4.021
75690SOL     OW28966  13.366   4.567   7.752
75690SOL    HW128967  13.301   4.522   7.699
75690SOL    HW228968  13.320   4.592   7.832
75691SOL     OW28969   2.367  11.617   4.770
75691SOL    HW128970   2.366  11.667   4.852
75691SOL    HW228971   2.453  11.575   4.769
75692SOL     OW28972   4.326   2.545  10.201
75692SOL    HW128973   4.237   2.578  10.188
75692SOL    HW228974   4.365   2.547  10.113
75693SOL     OW28975   0.186  10.899   3.307
75693SOL    HW128976   0.106  10.940   3.273
75693SOL    HW228977   0.257  10.956   3.275
75694SOL     OW28978   2.049   6.747   3.747
75694SOL    HW128979   2.094   6.787   3.673
75694SOL    HW228980   2.099   6.774   3.823
75695SOL     OW28981   0.329  12.499   1.707
75695SOL    HW128982   0.268  12.516   1.635
75695SOL    HW228983   0.292  12.548   1.781
75696SOL     OW28984  12.449  13.672  14.228
75696SOL    HW128985  12.469  13.615  14.302
75696SOL    HW228986  12.367  13.638  14.193
75697SOL     OW28987  13.005   6.575  13.809
75697SOL    HW128988  13.014   6.638  13.737
75697SOL    HW228989  13.073   6.600  13.871
75698SOL     OW28990   5.645  12.203   6.757
75698SOL    HW128991   5.647  12.273   6.823
75698SOL    HW228992   5.735  12.170   6.754
75699SOL     OW28993   8.469   3.140   3.645
75699SOL    HW128994   8.560   3.141   3.674
75699SOL    HW228995   8.474   3.109   3.554
75700SOL     OW28996   3.590   8.330   2.734
75700SOL    HW128997   3.504   8.373   2.733
75700SOL    HW228998   3.603   8.305   2.826
75701SOL     OW28999   8.448  13.431   3.610
75701SOL    HW129000   8.528  13.483   3.599
75701SOL    HW229001   8.425  13.443   3.702
75702SOL     OW29002  12.728   8.493  10.740
75702SOL    HW129003  12.811   8.500  10.787
75702SOL    HW229004  12.687   8.414  10.776
75703SOL     OW29005   9.511   6.733  14.726
75703SOL    HW129006   9.420   6.754  14.702
75703SOL    HW229007   9.509   6.726  14.821
75704SOL     OW29008  11.662  12.727   4.886
75704SOL    HW129009  11.677  12.795   4.951
75704SOL    HW229010  11.716  12.653   4.915
75705SOL     OW29011  10.660   7.620  12.290
75705SOL    HW129012  10.752   7.608  12.269
75705SOL    HW229013  10.616   7.620  12.205
75706SOL     OW29014   0.942   3.944   9.793
75706SOL    HW129015   1.007   3.877   9.772
75706SOL    HW229016   0.941   4.002   9.717
75707SOL     OW29017   8.238   2.943  14.182
75707SOL    HW129018   8.154   2.961  14.223
75707SOL    HW229019   8.291   2.904  14.252
75708SOL     OW29020  10.887   6.963  10.562
75708SOL    HW129021  10.976   6.962  10.598
75708SOL    HW229022  10.876   6.875  10.525
75709SOL     OW29023   6.063   2.997   0.901
75709SOL    HW129024   6.056   2.902   0.894
75709SOL    HW229025   6.027   3.018   0.987
75710SOL     OW29026   5.794   0.053   0.619
75710SOL    HW129027   5.826  14.841   0.596
75710SOL    HW229028   5.714   0.037   0.668
75711SOL     OW29029   7.448   8.747   6.026
75711SOL    HW129030   7.359   8.768   5.995
75711SOL    HW229031   7.459   8.802   6.104
75712SOL     OW29032  11.291   4.711  14.536
75712SOL    HW129033  11.361   4.658  14.575
75712SOL    HW229034  11.280   4.675  14.448
75713SOL     OW29035   2.140   4.877   6.913
75713SOL    HW129036   2.119   4.799   6.862
75713SOL    HW229037   2.167   4.843   6.998
75714SOL     OW29038   5.352   8.793  13.238
75714SOL    HW129039   5.294   8.836  13.301
75714SOL    HW229040   5.297   8.727  13.196
75715SOL     OW29041   1.417   9.701   5.995
75715SOL    HW129042   1.502   9.670   5.965
75715SOL    HW229043   1.416   9.794   5.972
75716SOL     OW29044   7.141   2.207   1.472
75716SOL    HW129045   7.078   2.239   1.537
75716SOL    HW229046   7.226   2.221   1.514
75717SOL     OW29047   6.943  11.286  12.316
75717SOL    HW129048   6.989  11.260  12.236
75717SOL    HW229049   7.011  11.288  12.384
75718SOL     OW29050   9.910   8.670  13.252
75718SOL    HW129051   9.848   8.710  13.192
75718SOL    HW229052   9.950   8.599  13.202
75719SOL     OW29053  13.877  10.496   7.391
75719SOL    HW129054  13.822  10.474   7.466
75719SOL    HW229055  13.871  10.591   7.384
75720SOL     OW29056  13.863   2.120   7.762
75720SOL    HW129057  13.916   2.129   7.682
75720SOL    HW229058  13.899   2.044   7.806
75721SOL     OW29059   5.373   5.787   4.763
75721SOL    HW129060   5.422   5.869   4.753
75721SOL    HW229061   5.409   5.747   4.842
75722SOL     OW29062  10.088   8.474   8.713
75722SOL    HW129063  10.095   8.462   8.808
75722SOL    HW229064  10.159   8.421   8.677
75723SOL     OW29065   1.414  10.652   4.759
75723SOL    HW129066   1.362  10.685   4.832
75723SOL    HW229067   1.372  10.688   4.681
75724SOL     OW29068  10.989   5.666   7.125
75724SOL    HW129069  10.905   5.674   7.081
75724SOL    HW229070  10.966   5.643   7.215
75725SOL     OW29071   5.857   1.239   2.497
75725SOL    HW129072   5.894   1.173   2.438
75725SOL    HW229073   5.892   1.322   2.463
75726SOL     OW29074   7.855   8.788  12.377
75726SOL    HW129075   7.940   8.749  12.399
75726SOL    HW229076   7.877   8.859  12.316
75727SOL     OW29077  13.873  14.256  12.972
75727SOL    HW129078  13.882  14.193  12.901
75727SOL    HW229079  13.785  14.241  13.006
75728SOL     OW29080   9.458  10.577  10.821
75728SOL    HW129081   9.436  10.531  10.902
75728SOL    HW229082   9.533  10.529  10.786
75729SOL     OW29083   4.799  11.634  10.073
75729SOL    HW129084   4.713  11.605  10.044
75729SOL    HW229085   4.857  11.559  10.054
75730SOL     OW29086   5.380   2.821  12.229
75730SOL    HW129087   5.380   2.727  12.212
75730SOL    HW229088   5.443   2.857  12.166
75731SOL     OW29089  14.246   9.528   8.330
75731SOL    HW129090  14.262   9.616   8.362
75731SOL    HW229091  14.151   9.524   8.318
75732SOL     OW29092   5.004   0.020   9.955
75732SOL    HW129093   4.978   0.110   9.973
75732SOL    HW229094   4.922  14.847   9.945
75733SOL     OW29095  12.488  13.998   5.052
75733SOL    HW129096  12.554  13.929   5.045
75733SOL    HW229097  12.476  14.010   5.146
75734SOL     OW29098   0.450   6.246   0.439
75734SOL    HW129099   0.397   6.203   0.373
75734SOL    HW229100   0.515   6.180   0.465
75735SOL     OW29101   9.951  13.826   0.263
75735SOL    HW129102   9.964  13.731   0.267
75735SOL    HW229103   9.878  13.838   0.202
75736SOL     OW29104  11.377  11.649  14.627
75736SOL    HW129105  11.443  11.580  14.617
75736SOL    HW229106  11.402  11.695  14.707
75737SOL     OW29107   0.700  10.860  11.840
75737SOL    HW129108   0.740  10.777  11.814
75737SOL    HW229109   0.752  10.926  11.793
75738SOL     OW29110   5.700  11.398  13.371
75738SOL    HW129111   5.703  11.396  13.275
75738SOL    HW229112   5.737  11.483  13.395
75739SOL     OW29113   8.753   0.326   2.548
75739SOL    HW129114   8.739   0.383   2.623
75739SOL    HW229115   8.738   0.238   2.581
75740SOL     OW29116  12.409   3.353   5.532
75740SOL    HW129117  12.316   3.360   5.554
75740SOL    HW229118  12.428   3.259   5.541
75741SOL     OW29119   3.136  10.602   6.631
75741SOL    HW129120   3.219  10.565   6.601
75741SOL    HW229121   3.148  10.697   6.625
75742SOL     OW29122   3.588   1.859   8.857
75742SOL    HW129123   3.577   1.801   8.782
75742SOL    HW229124   3.680   1.850   8.881
75743SOL     OW29125   7.542  14.204   1.796
75743SOL    HW129126   7.528  14.138   1.863
75743SOL    HW229127   7.485  14.276   1.821
75744SOL     OW29128  11.350  10.269   9.506
75744SOL    HW129129  11.334  10.305   9.593
75744SOL    HW229130  11.369  10.346   9.452
75745SOL     OW29131  12.933  12.924   1.290
75745SOL    HW129132  12.997  12.863   1.326
75745SOL    HW229133  12.905  12.976   1.366
75746SOL     OW29134   7.657   8.984   0.511
75746SOL    HW129135   7.688   8.960   0.598
75746SOL    HW229136   7.591   8.917   0.490
75747SOL     OW29137  13.375   2.180  10.526
75747SOL    HW129138  13.395   2.254  10.469
75747SOL    HW229139  13.385   2.214  10.614
75748SOL     OW29140   0.103   5.761  10.213
75748SOL    HW129141   0.016   5.741  10.250
75748SOL    HW229142   0.160   5.767  10.289
75749SOL     OW29143  11.066   1.551   4.863
75749SOL    HW129144  11.010   1.566   4.939
75749SOL    HW229145  11.150   1.521   4.901
75750SOL     OW29146   9.859   7.878   0.260
75750SOL    HW129147   9.914   7.802   0.245
75750SOL    HW229148   9.920   7.948   0.283
75751SOL     OW29149   7.277   0.451  10.296
75751SOL    HW129150   7.200   0.500  10.266
75751SOL    HW229151   7.343   0.519  10.313
75752SOL     OW29152   5.294  14.673   0.825
75752SOL    HW129153   5.291  14.675   0.921
75752SOL    HW229154   5.354  14.601   0.804
75753SOL     OW29155   5.751   3.480   7.579
75753SOL    HW129156   5.703   3.436   7.648
75753SOL    HW229157   5.832   3.509   7.621
75754SOL     OW29158  11.202   6.625   9.360
75754SOL    HW129159  11.290   6.613   9.395
75754SOL    HW229160  11.195   6.719   9.343
75755SOL     OW29161   9.382   7.859   0.972
75755SOL    HW129162   9.325   7.826   0.904
75755SOL    HW229163   9.330   7.852   1.052
75756SOL     OW29164   6.595   3.637   9.382
75756SOL    HW129165   6.600   3.644   9.287
75756SOL    HW229166   6.570   3.724   9.412
75757SOL     OW29167   6.337  11.459   4.101
75757SOL    HW129168   6.328  11.491   4.011
75757SOL    HW229169   6.399  11.387   4.094
75758SOL     OW29170   6.313  10.370   2.170
75758SOL    HW129171   6.358  10.320   2.102
75758SOL    HW229172   6.233  10.320   2.189
75759SOL     OW29173   1.230   2.965   8.660
75759SOL    HW129174   1.269   2.878   8.663
75759SOL    HW229175   1.268   3.011   8.735
75760SOL     OW29176   9.155   9.070   3.183
75760SOL    HW129177   9.149   8.984   3.141
75760SOL    HW229178   9.074   9.077   3.234
75761SOL     OW29179   3.292  14.482  12.065
75761SOL    HW129180   3.305  14.443  12.151
75761SOL    HW229181   3.224  14.428  12.024
75762SOL     OW29182   4.643   7.756   3.060
75762SOL    HW129183   4.667   7.801   2.979
75762SOL    HW229184   4.723   7.757   3.113
75763SOL     OW29185   9.234   0.917   0.409
75763SOL    HW129186   9.189   0.854   0.354
75763SOL    HW229187   9.234   0.878   0.496
75764SOL     OW29188   2.577   2.713   2.703
75764SOL    HW129189   2.518   2.781   2.739
75764SOL    HW229190   2.665   2.743   2.726
75765SOL     OW29191  13.815   7.215   2.066
75765SOL    HW129192  13.792   7.220   1.974
75765SOL    HW229193  13.907   7.186   2.066
75766SOL     OW29194   5.635  12.808  12.217
75766SOL    HW129195   5.703  12.743  12.232
75766SOL    HW229196   5.639  12.826  12.123
75767SOL     OW29197   5.761   3.184   0.424
75767SOL    HW129198   5.731   3.224   0.342
75767SOL    HW229199   5.845   3.144   0.402
75768SOL     OW29200   1.410   9.357  11.320
75768SOL    HW129201   1.362   9.416  11.378
75768SOL    HW229202   1.442   9.414  11.250
75769SOL     OW29203   5.757   7.567  12.589
75769SOL    HW129204   5.829   7.536  12.643
75769SOL    HW229205   5.784   7.655  12.561
75770SOL     OW29206  13.450   3.119   7.190
75770SOL    HW129207  13.392   3.154   7.257
75770SOL    HW229208  13.479   3.195   7.140
75771SOL     OW29209  12.416   5.444  13.161
75771SOL    HW129210  12.467   5.495  13.224
75771SOL    HW229211  12.349   5.401  13.214
75772SOL     OW29212  13.371   4.113  13.102
75772SOL    HW129213  13.369   4.047  13.172
75772SOL    HW229214  13.284   4.111  13.064
75773SOL     OW29215   5.061   8.659   4.252
75773SOL    HW129216   5.016   8.719   4.193
75773SOL    HW229217   4.992   8.603   4.288
75774SOL     OW29218   1.192  12.258  12.672
75774SOL    HW129219   1.247  12.265  12.751
75774SOL    HW229220   1.203  12.342  12.628
75775SOL     OW29221   8.568  11.309   5.342
75775SOL    HW129222   8.508  11.249   5.386
75775SOL    HW229223   8.655  11.272   5.358
75776SOL     OW29224  11.338   6.267   5.918
75776SOL    HW129225  11.284   6.346   5.922
75776SOL    HW229226  11.428   6.298   5.932
75777SOL     OW29227  11.581  12.036  12.203
75777SOL    HW129228  11.643  12.042  12.130
75777SOL    HW229229  11.603  12.110  12.260
75778SOL     OW29230   1.059   6.761   7.404
75778SOL    HW129231   1.141   6.760   7.453
75778SOL    HW229232   0.992   6.739   7.469
75779SOL     OW29233   4.398  11.315   9.915
75779SOL    HW129234   4.404  11.271  10.000
75779SOL    HW229235   4.454  11.263   9.857
75780SOL     OW29236   1.229   1.777   1.772
75780SOL    HW129237   1.153   1.832   1.752
75780SOL    HW229238   1.199   1.719   1.842
75781SOL     OW29239  12.713   2.282   8.215
75781SOL    HW129240  12.757   2.345   8.272
75781SOL    HW229241  12.745   2.197   8.244
75782SOL     OW29242   6.789   0.188  14.393
75782SOL    HW129243   6.830   0.266  14.355
75782SOL    HW229244   6.700   0.216  14.414
75783SOL     OW29245   0.439  12.271   4.516
75783SOL    HW129246   0.352  12.298   4.486
75783SOL    HW229247   0.482  12.352   4.543
75784SOL     OW29248   6.562   8.592   1.003
75784SOL    HW129249   6.511   8.598   1.084
75784SOL    HW229250   6.498   8.602   0.933
75785SOL     OW29251  11.013   4.294  11.431
75785SOL    HW129252  10.957   4.220  11.456
75785SOL    HW229253  11.012   4.351  11.509
75786SOL     OW29254  13.848   4.539   6.636
75786SOL    HW129255  13.779   4.473   6.641
75786SOL    HW229256  13.849   4.566   6.544
75787SOL     OW29257  10.877   2.470   5.080
75787SOL    HW129258  10.896   2.378   5.065
75787SOL    HW229259  10.863   2.506   4.993
75788SOL     OW29260  13.871   8.243  11.206
75788SOL    HW129261  13.889   8.187  11.281
75788SOL    HW229262  13.779   8.265  11.213
75789SOL     OW29263   4.216  13.313   0.577
75789SOL    HW129264   4.128  13.349   0.591
75789SOL    HW229265   4.205  13.218   0.588
75790SOL     OW29266   0.127   3.790   0.875
75790SOL    HW129267   0.052   3.850   0.867
75790SOL    HW229268   0.179   3.806   0.797
75791SOL     OW29269  11.313  10.514   4.056
75791SOL    HW129270  11.282  10.434   4.097
75791SOL    HW229271  11.370  10.554   4.121
75792SOL     OW29272  14.462   4.871   1.120
75792SOL    HW129273  14.447   4.855   1.213
75792SOL    HW229274  14.439   4.963   1.106
75793SOL     OW29275   9.469   5.353   4.069
75793SOL    HW129276   9.451   5.259   4.072
75793SOL    HW229277   9.552   5.360   4.022
75794SOL     OW29278  10.407   2.131   3.132
75794SOL    HW129279  10.475   2.064   3.129
75794SOL    HW229280  10.453   2.212   3.110
75795SOL     OW29281   0.779  14.801  11.053
75795SOL    HW129282   0.798   0.004  11.106
75795SOL    HW229283   0.690  14.777  11.077
75796SOL     OW29284  11.716   3.664  11.648
75796SOL    HW129285  11.786   3.659  11.583
75796SOL    HW229286  11.760   3.694  11.728
75797SOL     OW29287   4.521   3.633   6.237
75797SOL    HW129288   4.572   3.684   6.301
75797SOL    HW229289   4.533   3.681   6.155
75798SOL     OW29290   9.319  14.214   7.189
75798SOL    HW129291   9.266  14.135   7.201
75798SOL    HW229292   9.375  14.217   7.266
75799SOL     OW29293  11.227   4.502   2.096
75799SOL    HW129294  11.152   4.540   2.141
75799SOL    HW229295  11.204   4.505   2.003
75800SOL     OW29296   9.843   1.115   5.386
75800SOL    HW129297   9.870   1.089   5.474
75800SOL    HW229298   9.751   1.090   5.381
75801SOL     OW29299   2.903   2.795  13.023
75801SOL    HW129300   2.857   2.839  12.951
75801SOL    HW229301   2.874   2.841  13.101
75802SOL     OW29302  11.414   6.606   8.466
75802SOL    HW129303  11.509   6.616   8.476
75802SOL    HW229304  11.390   6.539   8.530
75803SOL     OW29305   9.710  14.027  10.434
75803SOL    HW129306   9.759  14.109  10.431
75803SOL    HW229307   9.760  13.972  10.494
75804SOL     OW29308   1.312   2.714   3.270
75804SOL    HW129309   1.280   2.741   3.184
75804SOL    HW229310   1.287   2.786   3.328
75805SOL     OW29311   0.885   1.106   0.955
75805SOL    HW129312   0.892   1.089   0.861
75805SOL    HW229313   0.805   1.158   0.964
75806SOL     OW29314  14.106   0.106  12.906
75806SOL    HW129315  14.063   0.183  12.944
75806SOL    HW229316  14.183   0.140  12.862
75807SOL     OW29317   5.011   4.420   3.675
75807SOL    HW129318   5.061   4.340   3.671
75807SOL    HW229319   5.074   4.490   3.659
75808SOL     OW29320  14.442   3.167   2.513
75808SOL    HW129321  14.412   3.127   2.595
75808SOL    HW229322  14.470   3.255   2.538
75809SOL     OW29323  13.308  12.568  12.750
75809SOL    HW129324  13.267  12.637  12.802
75809SOL    HW229325  13.312  12.493  12.809
75810SOL     OW29326  13.112  11.318  14.427
75810SOL    HW129327  13.207  11.300  14.427
75810SOL    HW229328  13.105  11.410  14.404
75811SOL     OW29329  14.621  11.804   1.728
75811SOL    HW129330  14.573  11.876   1.770
75811SOL    HW229331  14.563  11.729   1.737
75812SOL     OW29332   5.277   9.326   5.418
75812SOL    HW129333   5.197   9.283   5.448
75812SOL    HW229334   5.247   9.411   5.386
75813SOL     OW29335   9.210   8.477   4.681
75813SOL    HW129336   9.161   8.464   4.761
75813SOL    HW229337   9.188   8.401   4.626
75814SOL     OW29338  14.864   3.558   8.393
75814SOL    HW129339   0.025   3.625   8.335
75814SOL    HW229340  14.772   3.551   8.367
75815SOL     OW29341  14.063   0.498   0.241
75815SOL    HW129342  14.050   0.506   0.147
75815SOL    HW229343  14.078   0.587   0.271
75816SOL     OW29344   8.125   1.886  11.333
75816SOL    HW129345   8.047   1.898  11.279
75816SOL    HW229346   8.145   1.973  11.366
75817SOL     OW29347   7.658  13.602   0.825
75817SOL    HW129348   7.586  13.581   0.885
75817SOL    HW229349   7.736  13.568   0.869
75818SOL     OW29350   0.344  13.836  11.402
75818SOL    HW129351   0.415  13.850  11.464
75818SOL    HW229352   0.367  13.890  11.326
75819SOL     OW29353  13.641  13.074   7.050
75819SOL    HW129354  13.561  13.094   7.001
75819SOL    HW229355  13.695  13.024   6.989
75820SOL     OW29356   7.200   1.441  10.885
75820SOL    HW129357   7.187   1.422  10.978
75820SOL    HW229358   7.111   1.447  10.849
75821SOL     OW29359   2.764   6.181  11.064
75821SOL    HW129360   2.720   6.260  11.094
75821SOL    HW229361   2.694   6.123  11.036
75822SOL     OW29362  11.791   8.711   1.180
75822SOL    HW129363  11.869   8.764   1.198
75822SOL    HW229364  11.719   8.774   1.182
75823SOL     OW29365  11.974   5.645  12.417
75823SOL    HW129366  11.957   5.560  12.378
75823SOL    HW229367  11.888   5.678  12.442
75824SOL     OW29368   6.697  11.473  11.326
75824SOL    HW129369   6.744  11.482  11.408
75824SOL    HW229370   6.613  11.434  11.350
75825SOL     OW29371   5.759   1.137   7.544
75825SOL    HW129372   5.760   1.123   7.449
75825SOL    HW229373   5.851   1.146   7.567
75826SOL     OW29374   4.242   9.890  14.478
75826SOL    HW129375   4.224   9.798  14.493
75826SOL    HW229376   4.272   9.924  14.562
75827SOL     OW29377   5.178   1.003   2.446
75827SOL    HW129378   5.157   0.994   2.353
75827SOL    HW229379   5.225   1.086   2.452
75828SOL     OW29380   6.092   3.497   8.908
75828SOL    HW129381   6.171   3.521   8.859
75828SOL    HW229382   6.082   3.567   8.973
75829SOL     OW29383   1.929  13.922   4.113
75829SOL    HW129384   1.868  13.974   4.166
75829SOL    HW229385   1.929  13.964   4.027
75830SOL     OW29386  10.248  13.568   2.989
75830SOL    HW129387  10.263  13.489   2.937
75830SOL    HW229388  10.204  13.537   3.068
75831SOL     OW29389   4.731   2.418   9.162
75831SOL    HW129390   4.757   2.432   9.071
75831SOL    HW229391   4.790   2.474   9.212
75832SOL     OW29392  12.121   2.393  13.313
75832SOL    HW129393  12.189   2.460  13.300
75832SOL    HW229394  12.169   2.314  13.336
75833SOL     OW29395  11.229   9.424   7.498
75833SOL    HW129396  11.252   9.335   7.524
75833SOL    HW229397  11.304   9.452   7.445
75834SOL     OW29398  12.043  14.610   4.845
75834SOL    HW129399  11.983  14.630   4.774
75834SOL    HW229400  12.012  14.527   4.881
75835SOL     OW29401   3.387  11.541   6.389
75835SOL    HW129402   3.479  11.546   6.364
75835SOL    HW229403   3.376  11.453   6.424
75836SOL     OW29404   3.604   3.043   8.380
75836SOL    HW129405   3.643   3.117   8.428
75836SOL    HW229406   3.579   2.981   8.448
75837SOL     OW29407   7.618   9.592   3.594
75837SOL    HW129408   7.582   9.530   3.531
75837SOL    HW229409   7.545   9.612   3.653
75838SOL     OW29410   6.822   7.625   3.717
75838SOL    HW129411   6.890   7.629   3.784
75838SOL    HW229412   6.830   7.708   3.670
75839SOL     OW29413   9.544  11.891  10.102
75839SOL    HW129414   9.597  11.814  10.119
75839SOL    HW229415   9.572  11.922  10.016
75840SOL     OW29416   4.285   3.702   0.518
75840SOL    HW129417   4.329   3.641   0.459
75840SOL    HW229418   4.248   3.768   0.460
75841SOL     OW29419   3.552   8.634   0.170
75841SOL    HW129420   3.511   8.624   0.084
75841SOL    HW229421   3.485   8.676   0.224
75842SOL     OW29422   8.967   7.673   8.779
75842SOL    HW129423   8.874   7.682   8.799
75842SOL    HW229424   8.992   7.589   8.816
75843SOL     OW29425   7.974  11.213   3.678
75843SOL    HW129426   7.997  11.174   3.593
75843SOL    HW229427   7.893  11.169   3.703
75844SOL     OW29428   4.458   0.035   6.980
75844SOL    HW129429   4.508  14.869   6.909
75844SOL    HW229430   4.369   0.039   6.947
75845SOL     OW29431   5.142   1.904  10.684
75845SOL    HW129432   5.208   1.972  10.695
75845SOL    HW229433   5.077   1.943  10.625
75846SOL     OW29434   0.495  10.514   6.636
75846SOL    HW129435   0.534  10.536   6.551
75846SOL    HW229436   0.408  10.481   6.614
75847SOL     OW29437   7.772  14.633   8.749
75847SOL    HW129438   7.735  14.719   8.768
75847SOL    HW229439   7.850  14.627   8.804
75848SOL     OW29440  11.354  13.924   6.317
75848SOL    HW129441  11.420  13.917   6.247
75848SOL    HW229442  11.271  13.903   6.274
75849SOL     OW29443   7.803   4.435   2.399
75849SOL    HW129444   7.755   4.517   2.409
75849SOL    HW229445   7.795   4.413   2.306
75850SOL     OW29446   3.309   1.284   1.617
75850SOL    HW129447   3.290   1.361   1.564
75850SOL    HW229448   3.302   1.210   1.556
75851SOL     OW29449   4.039   0.669  11.476
75851SOL    HW129450   4.020   0.757  11.445
75851SOL    HW229451   4.132   0.672  11.500
75852SOL     OW29452   7.443   0.760   2.942
75852SOL    HW129453   7.418   0.830   2.881
75852SOL    HW229454   7.409   0.790   3.027
75853SOL     OW29455   9.628   8.031   8.648
75853SOL    HW129456   9.626   7.940   8.616
75853SOL    HW229457   9.566   8.032   8.721
75854SOL     OW29458  13.251  13.572  13.644
75854SOL    HW129459  13.158  13.551  13.654
75854SOL    HW229460  13.295  13.487  13.654
75855SOL     OW29461   2.321   0.997   5.430
75855SOL    HW129462   2.257   1.037   5.489
75855SOL    HW229463   2.279   0.917   5.400
75856SOL     OW29464  14.333   8.196   1.562
75856SOL    HW129465  14.280   8.262   1.518
75856SOL    HW229466  14.269   8.135   1.599
75857SOL     OW29467   1.057  12.409  13.808
75857SOL    HW129468   1.078  12.390  13.716
75857SOL    HW229469   0.969  12.373  13.821
75858SOL     OW29470   8.727   9.894   5.812
75858SOL    HW129471   8.821   9.910   5.804
75858SOL    HW229472   8.690   9.922   5.727
75859SOL     OW29473   8.918   2.176   4.933
75859SOL    HW129474   8.955   2.247   4.881
75859SOL    HW229475   8.848   2.217   4.983
75860SOL     OW29476   7.036   0.596  13.353
75860SOL    HW129477   6.981   0.562  13.423
75860SOL    HW229478   7.112   0.538  13.351
75861SOL     OW29479  14.626   3.181  14.133
75861SOL    HW129480  14.593   3.097  14.103
75861SOL    HW229481  14.548   3.235  14.146
75862SOL     OW29482  13.885   8.434  14.575
75862SOL    HW129483  13.833   8.512  14.554
75862SOL    HW229484  13.952   8.431  14.507
75863SOL     OW29485   3.824   4.270   4.935
75863SOL    HW129486   3.830   4.176   4.917
75863SOL    HW229487   3.810   4.275   5.030
75864SOL     OW29488  10.969  12.415   0.602
75864SOL    HW129489  10.931  12.339   0.646
75864SOL    HW229490  10.970  12.392   0.510
75865SOL     OW29491  12.664  11.081  10.314
75865SOL    HW129492  12.717  11.117  10.385
75865SOL    HW229493  12.728  11.041  10.255
75866SOL     OW29494  12.286  13.232  10.879
75866SOL    HW129495  12.295  13.291  10.804
75866SOL    HW229496  12.289  13.144  10.840
75867SOL     OW29497  14.131   0.654   4.922
75867SOL    HW129498  14.099   0.633   4.834
75867SOL    HW229499  14.147   0.748   4.920
75868SOL     OW29500   3.645   1.375   0.950
75868SOL    HW129501   3.728   1.391   0.904
75868SOL    HW229502   3.653   1.286   0.984
75869SOL     OW29503   1.138   3.426  12.454
75869SOL    HW129504   1.126   3.474  12.536
75869SOL    HW229505   1.058   3.443  12.404
75870SOL     OW29506  13.004   1.463   9.875
75870SOL    HW129507  13.067   1.535   9.879
75870SOL    HW229508  12.998   1.431   9.965
75871SOL     OW29509   1.368  14.080   2.562
75871SOL    HW129510   1.309  14.050   2.632
75871SOL    HW229511   1.357  14.015   2.492
75872SOL     OW29512   9.596   3.380   6.366
75872SOL    HW129513   9.589   3.418   6.279
75872SOL    HW229514   9.678   3.414   6.401
75873SOL     OW29515   4.300   6.900   3.466
75873SOL    HW129516   4.366   6.895   3.397
75873SOL    HW229517   4.319   6.980   3.514
75874SOL     OW29518   7.211   5.077   1.615
75874SOL    HW129519   7.133   5.111   1.572
75874SOL    HW229520   7.267   5.154   1.629
75875SOL     OW29521  12.773   5.002  13.309
75875SOL    HW129522  12.802   5.079  13.260
75875SOL    HW229523  12.686   4.984  13.274
75876SOL     OW29524   3.303   0.923   2.549
75876SOL    HW129525   3.363   0.994   2.528
75876SOL    HW229526   3.240   0.961   2.610
75877SOL     OW29527   2.798   1.888   7.778
75877SOL    HW129528   2.796   1.952   7.849
75877SOL    HW229529   2.815   1.804   7.821
75878SOL     OW29530  10.931   3.603   9.680
75878SOL    HW129531  10.931   3.685   9.630
75878SOL    HW229532  10.915   3.630   9.770
75879SOL     OW29533  11.663   1.663   0.211
75879SOL    HW129534  11.638   1.750   0.180
75879SOL    HW229535  11.758   1.668   0.222
75880SOL     OW29536  10.652   8.520  10.665
75880SOL    HW129537  10.556   8.522  10.656
75880SOL    HW229538  10.682   8.471  10.589
75881SOL     OW29539  10.645   6.626   7.128
75881SOL    HW129540  10.550   6.632   7.122
75881SOL    HW229541  10.677   6.660   7.045
75882SOL     OW29542  10.742   9.362   0.743
75882SOL    HW129543  10.833   9.384   0.720
75882SOL    HW229544  10.730   9.400   0.830
75883SOL     OW29545  10.233   2.406  10.220
75883SOL    HW129546  10.272   2.321  10.201
75883SOL    HW229547  10.300   2.469  10.191
75884SOL     OW29548   5.693  11.193  14.156
75884SOL    HW129549   5.599  11.211  14.147
75884SOL    HW229550   5.735  11.264  14.108
75885SOL     OW29551   5.460   8.401   3.703
75885SOL    HW129552   5.429   8.392   3.613
75885SOL    HW229553   5.444   8.316   3.743
75886SOL     OW29554   1.951  10.150   9.228
75886SOL    HW129555   1.976  10.201   9.305
75886SOL    HW229556   1.946  10.060   9.259
75887SOL     OW29557  10.121  11.125   5.458
75887SOL    HW129558  10.124  11.036   5.423
75887SOL    HW229559  10.052  11.122   5.524
75888SOL     OW29560  10.875   0.086   8.174
75888SOL    HW129561  10.945   0.033   8.212
75888SOL    HW229562  10.812   0.022   8.140
75889SOL     OW29563  13.973   5.784   4.414
75889SOL    HW129564  14.024   5.838   4.474
75889SOL    HW229565  13.985   5.695   4.445
75890SOL     OW29566   4.861   1.705   8.122
75890SOL    HW129567   4.892   1.631   8.069
75890SOL    HW229568   4.907   1.781   8.086
75891SOL     OW29569   7.399  13.363  14.064
75891SOL    HW129570   7.420  13.439  14.117
75891SOL    HW229571   7.347  13.397  13.992
75892SOL     OW29572   3.131   7.385   5.391
75892SOL    HW129573   3.180   7.448   5.443
75892SOL    HW229574   3.053   7.366   5.442
75893SOL     OW29575   1.577   8.369  14.355
75893SOL    HW129576   1.554   8.456  14.390
75893SOL    HW229577   1.620   8.325  14.427
75894SOL     OW29578   1.102   5.362  11.347
75894SOL    HW129579   1.083   5.442  11.396
75894SOL    HW229580   1.197   5.352  11.353
75895SOL     OW29581  11.413  11.783   7.403
75895SOL    HW129582  11.400  11.873   7.435
75895SOL    HW229583  11.328  11.741   7.416
75896SOL     OW29584   2.165  13.104   7.264
75896SOL    HW129585   2.070  13.103   7.276
75896SOL    HW229586   2.178  13.145   7.178
75897SOL     OW29587   6.330   5.196   1.882
75897SOL    HW129588   6.249   5.196   1.833
75897SOL    HW229589   6.320   5.126   1.946
75898SOL     OW29590   7.148   0.100  11.037
75898SOL    HW129591   7.135   0.044  10.960
75898SOL    HW229592   7.235   0.076  11.069
75899SOL     OW29593   5.681  13.571  12.811
75899SOL    HW129594   5.620  13.644  12.802
75899SOL    HW229595   5.743  13.583  12.739
75900SOL     OW29596   5.814  11.409   2.916
75900SOL    HW129597   5.775  11.487   2.956
75900SOL    HW229598   5.855  11.363   2.990
75901SOL     OW29599   5.376   9.233   6.618
75901SOL    HW129600   5.300   9.176   6.628
75901SOL    HW229601   5.370   9.295   6.691
75902SOL     OW29602   1.447   8.601  12.294
75902SOL    HW129603   1.440   8.696  12.282
75902SOL    HW229604   1.542   8.584  12.299
75903SOL     OW29605   3.173   8.937   3.094
75903SOL    HW129606   3.088   8.979   3.080
75903SOL    HW229607   3.158   8.846   3.069
75904SOL     OW29608   9.896   3.746   5.650
75904SOL    HW129609   9.898   3.828   5.700
75904SOL    HW229610   9.811   3.708   5.670
75905SOL     OW29611  13.664   8.944  12.956
75905SOL    HW129612  13.721   9.018  12.937
75905SOL    HW229613  13.593   8.951  12.893
75906SOL     OW29614   8.831   6.589   1.765
75906SOL    HW129615   8.804   6.670   1.810
75906SOL    HW229616   8.910   6.561   1.811
75907SOL     OW29617   8.259  14.555   8.089
75907SOL    HW129618   8.195  14.517   8.029
75907SOL    HW229619   8.257  14.649   8.070
75908SOL     OW29620   7.677   7.828   8.261
75908SOL    HW129621   7.614   7.759   8.282
75908SOL    HW229622   7.719   7.797   8.180
75909SOL     OW29623   8.284  12.330  13.801
75909SOL    HW129624   8.212  12.272  13.828
75909SOL    HW229625   8.324  12.358  13.883
75910SOL     OW29626   4.286   6.591  14.786
75910SOL    HW129627   4.259   6.605   0.001
75910SOL    HW229628   4.238   6.656  14.735
75911SOL     OW29629  12.478   1.393   7.168
75911SOL    HW129630  12.485   1.309   7.213
75911SOL    HW229631  12.388   1.421   7.184
75912SOL     OW29632  11.323   3.271  12.109
75912SOL    HW129633  11.318   3.330  12.034
75912SOL    HW229634  11.235   3.232  12.113
75913SOL     OW29635  14.467  14.184  14.452
75913SOL    HW129636  14.439  14.252  14.390
75913SOL    HW229637  14.563  14.183  14.444
75914SOL     OW29638  12.609   5.251   9.442
75914SOL    HW129639  12.538   5.211   9.492
75914SOL    HW229640  12.593   5.345   9.449
75915SOL     OW29641   9.733  10.998  12.225
75915SOL    HW129642   9.788  10.920  12.217
75915SOL    HW229643   9.644  10.964  12.227
75916SOL     OW29644  12.381  14.246   6.771
75916SOL    HW129645  12.389  14.160   6.812
75916SOL    HW229646  12.454  14.250   6.710
75917SOL     OW29647   7.760   7.843  10.072
75917SOL    HW129648   7.771   7.756  10.034
75917SOL    HW229649   7.849   7.880  10.073
75918SOL     OW29650   7.729   7.648  14.107
75918SOL    HW129651   7.654   7.707  14.101
75918SOL    HW229652   7.715   7.584  14.038
75919SOL     OW29653   5.973  11.459   6.936
75919SOL    HW129654   5.931  11.405   7.003
75919SOL    HW229655   5.922  11.540   6.935
75920SOL     OW29656  13.501  14.785   9.453
75920SOL    HW129657  13.511  14.713   9.391
75920SOL    HW229658  13.535  14.862   9.407
75921SOL     OW29659   6.097   1.840  10.833
75921SOL    HW129660   6.048   1.800  10.761
75921SOL    HW229661   6.041   1.830  10.909
75922SOL     OW29662   9.746   9.099   4.088
75922SOL    HW129663   9.780   9.169   4.144
75922SOL    HW229664   9.665   9.071   4.131
75923SOL     OW29665   2.698   2.501   6.894
75923SOL    HW129666   2.628   2.478   6.834
75923SOL    HW229667   2.680   2.592   6.918
75924SOL     OW29668   3.769   1.534  12.215
75924SOL    HW129669   3.798   1.504  12.128
75924SOL    HW229670   3.718   1.460  12.249
75925SOL     OW29671  14.101   9.660   3.070
75925SOL    HW129672  14.130   9.608   2.995
75925SOL    HW229673  14.139   9.616   3.146
75926SOL     OW29674   9.307  11.638   5.499
75926SOL    HW129675   9.279  11.663   5.587
75926SOL    HW229676   9.394  11.675   5.491
75927SOL     OW29677   3.826   2.116  10.767
75927SOL    HW129678   3.804   2.129  10.675
75927SOL    HW229679   3.892   2.182  10.786
75928SOL     OW29680   4.882   9.834   1.561
75928SOL    HW129681   4.805   9.887   1.581
75928SOL    HW229682   4.856   9.781   1.486
75929SOL     OW29683  11.648   6.667   5.916
75929SOL    HW129684  11.732   6.657   5.872
75929SOL    HW229685  11.584   6.636   5.852
75930SOL     OW29686   5.553  13.432   4.140
75930SOL    HW129687   5.612  13.358   4.122
75930SOL    HW229688   5.489  13.397   4.202
75931SOL     OW29689   2.267  13.230   9.604
75931SOL    HW129690   2.193  13.236   9.665
75931SOL    HW229691   2.344  13.246   9.659
75932SOL     OW29692   8.293   6.881  13.155
75932SOL    HW129693   8.374   6.930  13.137
75932SOL    HW229694   8.322   6.801  13.198
75933SOL     OW29695  12.347   7.168   4.869
75933SOL    HW129696  12.351   7.131   4.958
75933SOL    HW229697  12.274   7.121   4.827
75934SOL     OW29698   2.064  10.280   8.511
75934SOL    HW129699   2.093  10.366   8.482
75934SOL    HW229700   2.042  10.291   8.603
75935SOL     OW29701   2.280   9.925   9.308
75935SOL    HW129702   2.242   9.920   9.220
75935SOL    HW229703   2.373   9.908   9.296
75936SOL     OW29704   6.578  14.520   1.809
75936SOL    HW129705   6.527  14.446   1.778
75936SOL    HW229706   6.577  14.513   1.904
75937SOL     OW29707   9.615   6.938   8.316
75937SOL    HW129708   9.680   6.885   8.364
75937SOL    HW229709   9.603   6.892   8.233
75938SOL     OW29710  10.664   4.929  10.612
75938SOL    HW129711  10.711   4.975  10.681
75938SOL    HW229712  10.577   4.969  10.611
75939SOL     OW29713   4.840   5.062   9.555
75939SOL    HW129714   4.924   5.019   9.569
75939SOL    HW229715   4.792   5.004   9.497
75940SOL     OW29716  11.968  14.822   5.026
75940SOL    HW129717  11.972   0.022   4.967
75940SOL    HW229718  11.997  14.747   4.973
75941SOL     OW29719   7.477   4.323  14.808
75941SOL    HW129720   7.428   4.248  14.840
75941SOL    HW229721   7.521   4.292  14.729
75942SOL     OW29722  11.788  12.338  13.127
75942SOL    HW129723  11.846  12.374  13.194
75942SOL    HW229724  11.821  12.250  13.111
75943SOL     OW29725   3.478  13.452   3.792
75943SOL    HW129726   3.472  13.533   3.842
75943SOL    HW229727   3.388  13.432   3.768
75944SOL     OW29728   8.434  10.492   3.430
75944SOL    HW129729   8.340  10.504   3.420
75944SOL    HW229730   8.443  10.428   3.500
75945SOL     OW29731   3.712   0.406   2.784
75945SOL    HW129732   3.673   0.346   2.721
75945SOL    HW229733   3.722   0.488   2.736
75946SOL     OW29734   1.182  14.337  10.573
75946SOL    HW129735   1.257  14.362  10.518
75946SOL    HW229736   1.108  14.385  10.536
75947SOL     OW29737   6.541   5.963   4.257
75947SOL    HW129738   6.502   6.048   4.238
75947SOL    HW229739   6.636   5.979   4.252
75948SOL     OW29740   0.347  14.664   9.075
75948SOL    HW129741   0.374  14.679   8.984
75948SOL    HW229742   0.423  14.689   9.127
75949SOL     OW29743   1.275   2.411   6.505
75949SOL    HW129744   1.205   2.399   6.440
75949SOL    HW229745   1.232   2.395   6.589
75950SOL     OW29746   8.086   9.169   2.237
75950SOL    HW129747   8.128   9.188   2.153
75950SOL    HW229748   8.081   9.254   2.281
75951SOL     OW29749  11.224   5.213   8.568
75951SOL    HW129750  11.189   5.225   8.480
75951SOL    HW229751  11.225   5.300   8.607
75952SOL     OW29752  10.037  10.433   7.906
75952SOL    HW129753  10.032  10.501   7.973
75952SOL    HW229754  10.119  10.451   7.860
75953SOL     OW29755   7.156  14.428   0.809
75953SOL    HW129756   7.131  14.520   0.798
75953SOL    HW229757   7.153  14.393   0.720
75954SOL     OW29758  10.011  11.430   8.382
75954SOL    HW129759  10.018  11.513   8.334
75954SOL    HW229760  10.097  11.389   8.371
75955SOL     OW29761   6.755  13.196   6.117
75955SOL    HW129762   6.787  13.118   6.072
75955SOL    HW229763   6.663  13.176   6.136
75956SOL     OW29764  14.674  14.433   1.075
75956SOL    HW129765  14.635  14.358   1.031
75956SOL    HW229766  14.690  14.496   1.005
75957SOL     OW29767   9.300   5.409   1.188
75957SOL    HW129768   9.343   5.345   1.246
75957SOL    HW229769   9.283   5.360   1.107
75958SOL     OW29770   5.193  14.395   6.285
75958SOL    HW129771   5.226  14.382   6.196
75958SOL    HW229772   5.109  14.350   6.286
75959SOL     OW29773  10.624   7.617  11.113
75959SOL    HW129774  10.674   7.537  11.098
75959SOL    HW229775  10.588   7.640  11.027
75960SOL     OW29776  14.807   2.215   6.467
75960SOL    HW129777  14.854   2.236   6.387
75960SOL    HW229778  14.827   2.289   6.526
75961SOL     OW29779   1.662  10.223   0.855
75961SOL    HW129780   1.666  10.156   0.924
75961SOL    HW229781   1.633  10.302   0.901
75962SOL     OW29782  10.479   7.653   8.785
75962SOL    HW129783  10.539   7.661   8.711
75962SOL    HW229784  10.522   7.590   8.844
75963SOL     OW29785   4.570  14.211   8.609
75963SOL    HW129786   4.651  14.260   8.592
75963SOL    HW229787   4.546  14.174   8.524
75964SOL     OW29788  13.660   6.660   9.939
75964SOL    HW129789  13.697   6.573   9.937
75964SOL    HW229790  13.625   6.669  10.028
75965SOL     OW29791   4.727   3.224   4.216
75965SOL    HW129792   4.816   3.189   4.224
75965SOL    HW229793   4.705   3.254   4.304
75966SOL     OW29794   3.051   5.617  10.010
75966SOL    HW129795   3.018   5.545  10.063
75966SOL    HW229796   2.973   5.657   9.973
75967SOL     OW29797  10.170   8.143   7.352
75967SOL    HW129798  10.218   8.211   7.398
75967SOL    HW229799  10.218   8.063   7.371
75968SOL     OW29800  10.654   4.757  12.753
75968SOL    HW129801  10.624   4.705  12.679
75968SOL    HW229802  10.741   4.722  12.774
75969SOL     OW29803  13.999  12.317   4.666
75969SOL    HW129804  13.978  12.260   4.592
75969SOL    HW229805  13.979  12.405   4.634
75970SOL     OW29806   7.855  11.701  13.690
75970SOL    HW129807   7.826  11.656  13.611
75970SOL    HW229808   7.810  11.656  13.761
75971SOL     OW29809  13.077   4.265   3.463
75971SOL    HW129810  13.141   4.277   3.392
75971SOL    HW229811  13.107   4.187   3.509
75972SOL     OW29812  13.387   1.695   0.573
75972SOL    HW129813  13.425   1.638   0.641
75972SOL    HW229814  13.427   1.781   0.590
75973SOL     OW29815   5.931   8.784   5.742
75973SOL    HW129816   5.983   8.714   5.703
75973SOL    HW229817   5.975   8.804   5.824
75974SOL     OW29818   8.560  12.378   3.630
75974SOL    HW129819   8.513  12.435   3.691
75974SOL    HW229820   8.571  12.296   3.679
75975SOL     OW29821  14.234   8.540   7.685
75975SOL    HW129822  14.177   8.602   7.640
75975SOL    HW229823  14.215   8.456   7.643
75976SOL     OW29824   5.765   4.510  13.807
75976SOL    HW129825   5.688   4.537  13.858
75976SOL    HW229826   5.831   4.577  13.826
75977SOL     OW29827   8.675   4.649   0.231
75977SOL    HW129828   8.609   4.718   0.238
75977SOL    HW229829   8.666   4.617   0.141
75978SOL     OW29830  10.053   0.887  11.825
75978SOL    HW129831  10.123   0.917  11.883
75978SOL    HW229832   9.986   0.955  11.831
75979SOL     OW29833   6.019  13.557  11.655
75979SOL    HW129834   5.972  13.555  11.572
75979SOL    HW229835   6.077  13.633  11.649
75980SOL     OW29836   4.109   1.887  13.228
75980SOL    HW129837   4.042   1.852  13.168
75980SOL    HW229838   4.092   1.981  13.229
75981SOL     OW29839  10.087   5.853  10.865
75981SOL    HW129840  10.078   5.850  10.770
75981SOL    HW229841   9.998   5.842  10.898
75982SOL     OW29842   1.919  12.542  12.878
75982SOL    HW129843   1.996  12.589  12.909
75982SOL    HW229844   1.846  12.602  12.893
75983SOL     OW29845   4.314   1.538   0.349
75983SOL    HW129846   4.306   1.630   0.323
75983SOL    HW229847   4.293   1.489   0.270
75984SOL     OW29848   0.403   4.780   7.696
75984SOL    HW129849   0.388   4.874   7.707
75984SOL    HW229850   0.493   4.766   7.725
75985SOL     OW29851  12.960   8.248   6.204
75985SOL    HW129852  13.047   8.232   6.241
75985SOL    HW229853  12.902   8.189   6.252
75986SOL     OW29854   4.577  12.868  10.623
75986SOL    HW129855   4.634  12.839  10.694
75986SOL    HW229856   4.635  12.919  10.565
75987SOL     OW29857   4.990   2.178   5.603
75987SOL    HW129858   4.997   2.214   5.691
75987SOL    HW229859   5.025   2.089   5.610
75988SOL     OW29860   9.396   8.769   5.965
75988SOL    HW129861   9.418   8.679   5.992
75988SOL    HW229862   9.475   8.819   5.984
75989SOL     OW29863   0.098   8.124  11.424
75989SOL    HW129864   0.018   8.175  11.420
75989SOL    HW229865   0.077   8.051  11.482
75990SOL     OW29866   7.275   0.269   7.093
75990SOL    HW129867   7.205   0.296   7.034
75990SOL    HW229868   7.243   0.290   7.181
75991SOL     OW29869   1.604   4.784  13.822
75991SOL    HW129870   1.598   4.849  13.752
75991SOL    HW229871   1.597   4.835  13.903
75992SOL     OW29872  14.203   8.826   0.179
75992SOL    HW129873  14.204   8.910   0.134
75992SOL    HW229874  14.284   8.783   0.149
75993SOL     OW29875   0.117   7.199  10.274
75993SOL    HW129876   0.180   7.265  10.304
75993SOL    HW229877   0.171   7.122  10.258
75994SOL     OW29878   4.487   6.467   8.125
75994SOL    HW129879   4.485   6.372   8.134
75994SOL    HW229880   4.402   6.490   8.089
75995SOL     OW29881  10.703   5.840   4.111
75995SOL    HW129882  10.631   5.888   4.070
75995SOL    HW229883  10.674   5.828   4.202
75996SOL     OW29884   1.679  14.768   2.290
75996SOL    HW129885   1.631  14.689   2.265
75996SOL    HW229886   1.645  14.791   2.376
75997SOL     OW29887  11.454   9.953   8.942
75997SOL    HW129888  11.386   9.927   9.004
75997SOL    HW229889  11.407   9.998   8.872
75998SOL     OW29890  13.851  10.787  10.425
75998SOL    HW129891  13.870  10.693  10.418
75998SOL    HW229892  13.908  10.827  10.359
75999SOL     OW29893   3.491  11.284   3.095
75999SOL    HW129894   3.468  11.353   3.033
75999SOL    HW229895   3.436  11.302   3.172
76000SOL     OW29896   6.363   9.913   3.155
76000SOL    HW129897   6.445   9.867   3.138
76000SOL    HW229898   6.313   9.854   3.211
76001SOL     OW29899   4.552  13.717   3.343
76001SOL    HW129900   4.490  13.693   3.413
76001SOL    HW229901   4.511  13.684   3.263
76002SOL     OW29902   7.159   5.585   5.294
76002SOL    HW129903   7.230   5.648   5.306
76002SOL    HW229904   7.080   5.635   5.313
76003SOL     OW29905   5.208   5.256  11.402
76003SOL    HW129906   5.153   5.191  11.358
76003SOL    HW229907   5.297   5.221  11.395
76004SOL     OW29908  12.597  12.414   7.262
76004SOL    HW129909  12.627  12.469   7.189
76004SOL    HW229910  12.676  12.395   7.311
76005SOL     OW29911   8.113  11.059   5.535
76005SOL    HW129912   8.019  11.068   5.525
76005SOL    HW229913   8.149  11.139   5.496
76006SOL     OW29914   4.218   7.964  13.532
76006SOL    HW129915   4.282   7.990  13.598
76006SOL    HW229916   4.143   8.022  13.547
76007SOL     OW29917   0.003  12.829   9.330
76007SOL    HW129918  14.796  12.780   9.330
76007SOL    HW229919   0.055  12.788   9.400
76008SOL     OW29920   4.378  13.717  11.410
76008SOL    HW129921   4.363  13.628  11.380
76008SOL    HW229922   4.426  13.759  11.339
76009SOL     OW29923   6.398  14.676  12.218
76009SOL    HW129924   6.475  14.629  12.186
76009SOL    HW229925   6.341  14.685  12.141
76010SOL     OW29926   2.638   4.251   1.514
76010SOL    HW129927   2.685   4.168   1.526
76010SOL    HW229928   2.659   4.278   1.425
76011SOL     OW29929   1.865   3.130   0.357
76011SOL    HW129930   1.951   3.142   0.317
76011SOL    HW229931   1.804   3.130   0.283
76012SOL     OW29932  13.529   1.401   9.006
76012SOL    HW129933  13.440   1.431   8.988
76012SOL    HW229934  13.576   1.416   8.924
76013SOL     OW29935   7.256   8.708   9.571
76013SOL    HW129936   7.269   8.800   9.546
76013SOL    HW229937   7.291   8.658   9.497
76014SOL     OW29938   2.521   5.736   1.095
76014SOL    HW129939   2.473   5.797   1.151
76014SOL    HW229940   2.549   5.788   1.020
76015SOL     OW29941   7.052   3.824   7.438
76015SOL    HW129942   7.076   3.814   7.530
76015SOL    HW229943   7.079   3.741   7.397
76016SOL     OW29944   2.410  12.000   9.073
76016SOL    HW129945   2.413  12.021   9.166
76016SOL    HW229946   2.487  11.944   9.059
76017SOL     OW29947   4.285   5.991  13.277
76017SOL    HW129948   4.335   5.928  13.226
76017SOL    HW229949   4.194   5.980  13.248
76018SOL     OW29950   3.842   4.392  12.608
76018SOL    HW129951   3.776   4.351  12.664
76018SOL    HW229952   3.923   4.345  12.626
76019SOL     OW29953   5.837   0.596   0.821
76019SOL    HW129954   5.873   0.509   0.839
76019SOL    HW229955   5.761   0.580   0.766
76020SOL     OW29956  14.842   0.200   5.400
76020SOL    HW129957   0.010   0.224   5.483
76020SOL    HW229958  14.762   0.156   5.427
76021SOL     OW29959  12.323  10.300   3.224
76021SOL    HW129960  12.321  10.332   3.314
76021SOL    HW229961  12.415  10.274   3.210
76022SOL     OW29962   1.726   9.153   5.682
76022SOL    HW129963   1.723   9.107   5.765
76022SOL    HW229964   1.727   9.246   5.706
76023SOL     OW29965  11.020   5.610   7.832
76023SOL    HW129966  11.107   5.570   7.832
76023SOL    HW229967  10.972   5.563   7.763
76024SOL     OW29968   1.453   0.798  11.076
76024SOL    HW129969   1.526   0.852  11.107
76024SOL    HW229970   1.376   0.835  11.119
76025SOL     OW29971   0.292   4.781   0.080
76025SOL    HW129972   0.340   4.844   0.026
76025SOL    HW229973   0.325   4.696   0.052
76026SOL     OW29974   3.681   2.748   2.606
76026SOL    HW129975   3.737   2.785   2.538
76026SOL    HW229976   3.639   2.672   2.564
76027SOL     OW29977   9.997   1.923   2.351
76027SOL    HW129978   9.992   1.943   2.257
76027SOL    HW229979   9.915   1.876   2.370
76028SOL     OW29980   7.866  13.422  12.605
76028SOL    HW129981   7.946  13.437  12.554
76028SOL    HW229982   7.827  13.508  12.614
76029SOL     OW29983  11.789   6.224   8.814
76029SOL    HW129984  11.835   6.148   8.777
76029SOL    HW229985  11.734   6.187   8.883
76030SOL     OW29986   9.802  11.156  10.488
76030SOL    HW129987   9.740  11.223  10.517
76030SOL    HW229988   9.884  11.205  10.475
76031SOL     OW29989  11.238   6.040  13.827
76031SOL    HW129990  11.257   6.127  13.794
76031SOL    HW229991  11.195   6.055  13.912
76032SOL     OW29992  12.393   5.172   5.134
76032SOL    HW129993  12.411   5.083   5.166
76032SOL    HW229994  12.437   5.176   5.049
76033SOL     OW29995   8.729   1.632   3.552
76033SOL    HW129996   8.784   1.709   3.537
76033SOL    HW229997   8.791   1.562   3.573
76034SOL     OW29998  14.429   6.805  11.481
76034SOL    HW129999  14.497   6.857  11.439
76034SOL    HW230000  14.350   6.858  11.473
76035SOL     OW30001   5.912  11.122   8.305
76035SOL    HW130002   5.957  11.187   8.359
76035SOL    HW230003   5.920  11.040   8.354
76036SOL     OW30004   3.544  13.257   5.951
76036SOL    HW130005   3.616  13.265   6.013
76036SOL    HW230006   3.579  13.202   5.881
76037SOL     OW30007   5.563   4.841   4.049
76037SOL    HW130008   5.634   4.881   3.999
76037SOL    HW230009   5.487   4.898   4.034
76038SOL     OW30010   9.450   2.098   3.092
76038SOL    HW130011   9.383   2.127   3.031
76038SOL    HW230012   9.456   2.003   3.078
76039SOL     OW30013   1.136  11.087   9.443
76039SOL    HW130014   1.200  11.034   9.489
76039SOL    HW230015   1.139  11.057   9.353
76040SOL     OW30016   8.026  11.972   2.121
76040SOL    HW130017   7.979  11.938   2.045
76040SOL    HW230018   7.988  12.058   2.137
76041SOL     OW30019   2.736  11.378   4.117
76041SOL    HW130020   2.748  11.283   4.115
76041SOL    HW230021   2.677  11.393   4.191
76042SOL     OW30022   5.235   5.718   8.319
76042SOL    HW130023   5.266   5.698   8.408
76042SOL    HW230024   5.284   5.796   8.294
76043SOL     OW30025   7.642   3.554  12.852
76043SOL    HW130026   7.581   3.611  12.804
76043SOL    HW230027   7.698   3.615  12.900
76044SOL     OW30028   5.321   3.591   4.339
76044SOL    HW130029   5.264   3.616   4.266
76044SOL    HW230030   5.393   3.544   4.298
76045SOL     OW30031  14.146  14.073  14.124
76045SOL    HW130032  14.195  14.152  14.099
76045SOL    HW230033  14.160  14.065  14.218
76046SOL     OW30034   5.069  14.395  11.220
76046SOL    HW130035   5.148  14.359  11.179
76046SOL    HW230036   5.031  14.451  11.153
76047SOL     OW30037   8.421  11.027  13.662
76047SOL    HW130038   8.346  10.984  13.621
76047SOL    HW230039   8.401  11.024  13.756
76048SOL     OW30040   0.143   8.917   7.574
76048SOL    HW130041   0.102   8.928   7.488
76048SOL    HW230042   0.196   8.996   7.586
76049SOL     OW30043  11.588   6.431  11.454
76049SOL    HW130044  11.657   6.470  11.400
76049SOL    HW230045  11.635   6.394  11.529
76050SOL     OW30046  14.446   7.956   3.613
76050SOL    HW130047  14.485   7.979   3.529
76050SOL    HW230048  14.441   8.038   3.661
76051SOL     OW30049   4.265  12.556  10.880
76051SOL    HW130050   4.347  12.547  10.831
76051SOL    HW230051   4.273  12.639  10.926
76052SOL     OW30052   8.947   9.327   5.776
76052SOL    HW130053   8.860   9.364   5.794
76052SOL    HW230054   8.974   9.288   5.860
76053SOL     OW30055   5.796  10.974   2.422
76053SOL    HW130056   5.775  11.055   2.470
76053SOL    HW230057   5.891  10.976   2.413
76054SOL     OW30058  14.363  10.889   2.486
76054SOL    HW130059  14.346  10.973   2.444
76054SOL    HW230060  14.427  10.909   2.554
76055SOL     OW30061  10.885  10.000   2.116
76055SOL    HW130062  10.981   9.996   2.116
76055SOL    HW230063  10.857   9.910   2.097
76056SOL     OW30064   8.523   7.832   3.590
76056SOL    HW130065   8.473   7.868   3.663
76056SOL    HW230066   8.584   7.902   3.566
76057SOL     OW30067   1.197   9.884   6.949
76057SOL    HW130068   1.161   9.821   6.886
76057SOL    HW230069   1.268   9.927   6.902
76058SOL     OW30070  12.764  12.617  14.114
76058SOL    HW130071  12.699  12.685  14.096
76058SOL    HW230072  12.770  12.567  14.033
76059SOL     OW30073  12.649  10.764   6.844
76059SOL    HW130074  12.555  10.775   6.829
76059SOL    HW230075  12.658  10.766   6.939
76060SOL     OW30076   5.656   4.046   9.127
76060SOL    HW130077   5.565   4.024   9.146
76060SOL    HW230078   5.683   3.980   9.063
76061SOL     OW30079   4.677   8.274  10.969
76061SOL    HW130080   4.638   8.215  11.034
76061SOL    HW230081   4.747   8.318  11.016
76062SOL     OW30082   8.391  14.103  11.424
76062SOL    HW130083   8.327  14.071  11.361
76062SOL    HW230084   8.427  14.182  11.385
76063SOL     OW30085  13.285  13.178  13.075
76063SOL    HW130086  13.365  13.126  13.068
76063SOL    HW230087  13.303  13.240  13.146
76064SOL     OW30088   7.552   2.857   5.291
76064SOL    HW130089   7.638   2.853   5.333
76064SOL    HW230090   7.571   2.862   5.198
76065SOL     OW30091   8.281  12.129   5.334
76065SOL    HW130092   8.245  12.044   5.309
76065SOL    HW230093   8.350  12.108   5.397
76066SOL     OW30094   0.658  14.595  10.455
76066SOL    HW130095   0.705  14.584  10.538
76066SOL    HW230096   0.678  14.684  10.428
76067SOL     OW30097   6.724   5.639   4.759
76067SOL    HW130098   6.776   5.570   4.717
76067SOL    HW230099   6.781   5.716   4.757
76068SOL     OW30100   6.605  11.660   0.537
76068SOL    HW130101   6.529  11.619   0.496
76068SOL    HW230102   6.625  11.605   0.612
76069SOL     OW30103   7.794   6.712  12.350
76069SOL    HW130104   7.887   6.734  12.355
76069SOL    HW230105   7.777   6.702  12.256
76070SOL     OW30106  11.681   2.034   2.384
76070SOL    HW130107  11.645   1.956   2.342
76070SOL    HW230108  11.606   2.073   2.430
76071SOL     OW30109   6.841   1.118   8.017
76071SOL    HW130110   6.788   1.188   7.978
76071SOL    HW230111   6.902   1.093   7.948
76072SOL     OW30112  10.673   0.501   5.144
76072SOL    HW130113  10.578   0.495   5.151
76072SOL    HW230114  10.688   0.582   5.095
76073SOL     OW30115   2.277  14.282   6.763
76073SOL    HW130116   2.260  14.373   6.787
76073SOL    HW230117   2.255  14.277   6.670
76074SOL     OW30118   6.273   5.868  10.648
76074SOL    HW130119   6.187   5.892  10.682
76074SOL    HW230120   6.334   5.921  10.698
76075SOL     OW30121  13.563  10.936   2.448
76075SOL    HW130122  13.520  10.910   2.529
76075SOL    HW230123  13.562  11.032   2.450
76076SOL     OW30124   9.583   0.240   9.031
76076SOL    HW130125   9.568   0.233   8.937
76076SOL    HW230126   9.678   0.228   9.041
76077SOL     OW30127  10.334  12.367  11.874
76077SOL    HW130128  10.348  12.356  11.968
76077SOL    HW230129  10.308  12.280  11.844
76078SOL     OW30130   5.369   7.337  10.528
76078SOL    HW130131   5.321   7.334  10.611
76078SOL    HW230132   5.425   7.414  10.535
76079SOL     OW30133  13.635   6.319   2.133
76079SOL    HW130134  13.551   6.276   2.120
76079SOL    HW230135  13.613   6.403   2.175
76080SOL     OW30136   4.591   7.879   4.895
76080SOL    HW130137   4.575   7.972   4.907
76080SOL    HW230138   4.675   7.863   4.938
76081SOL     OW30139  14.350  11.753   3.852
76081SOL    HW130140  14.258  11.734   3.833
76081SOL    HW230141  14.347  11.817   3.923
76082SOL     OW30142   4.028   0.691   2.002
76082SOL    HW130143   4.025   0.600   1.973
76082SOL    HW230144   4.094   0.732   1.946
76083SOL     OW30145   7.957   3.379   7.428
76083SOL    HW130146   8.014   3.433   7.373
76083SOL    HW230147   7.868   3.407   7.404
76084SOL     OW30148   1.286  12.991   8.683
76084SOL    HW130149   1.305  13.084   8.678
76084SOL    HW230150   1.324  12.963   8.767
76085SOL     OW30151   3.028  12.380   4.707
76085SOL    HW130152   3.037  12.475   4.694
76085SOL    HW230153   2.933  12.366   4.708
76086SOL     OW30154  12.993  10.569   0.665
76086SOL    HW130155  12.949  10.500   0.714
76086SOL    HW230156  13.041  10.522   0.596
76087SOL     OW30157   1.237   5.958   0.897
76087SOL    HW130158   1.295   5.964   0.821
76087SOL    HW230159   1.151   5.985   0.862
76088SOL     OW30160   1.534   8.528  10.794
76088SOL    HW130161   1.486   8.459  10.841
76088SOL    HW230162   1.467   8.594  10.774
76089SOL     OW30163   2.412  12.617   7.496
76089SOL    HW130164   2.485  12.635   7.437
76089SOL    HW230165   2.385  12.527   7.474
76090SOL     OW30166  11.840  13.796  12.047
76090SOL    HW130167  11.869  13.721  12.100
76090SOL    HW230168  11.870  13.873  12.095
76091SOL     OW30169   9.652  12.580   6.924
76091SOL    HW130170   9.732  12.578   6.976
76091SOL    HW230171   9.682  12.591   6.834
76092SOL     OW30172  13.961   2.868  10.995
76092SOL    HW130173  14.055   2.851  10.981
76092SOL    HW230174  13.937   2.931  10.927
76093SOL     OW30175   5.275   2.932   4.971
76093SOL    HW130176   5.196   2.966   4.929
76093SOL    HW230177   5.301   2.858   4.916
76094SOL     OW30178   1.203  11.541  10.901
76094SOL    HW130179   1.246  11.492  10.971
76094SOL    HW230180   1.140  11.597  10.947
76095SOL     OW30181   5.741  12.026   1.512
76095SOL    HW130182   5.705  11.937   1.502
76095SOL    HW230183   5.704  12.075   1.439
76096SOL     OW30184  11.900   6.093   9.535
76096SOL    HW130185  11.898   6.088   9.631
76096SOL    HW230186  11.871   6.181   9.514
76097SOL     OW30187   3.641   4.914   6.542
76097SOL    HW130188   3.682   4.913   6.629
76097SOL    HW230189   3.561   4.966   6.554
76098SOL     OW30190  14.340  13.209  10.967
76098SOL    HW130191  14.286  13.283  10.996
76098SOL    HW230192  14.308  13.190  10.878
76099SOL     OW30193  10.033   2.388   6.290
76099SOL    HW130194  10.012   2.472   6.250
76099SOL    HW230195  10.021   2.324   6.219
76100SOL     OW30196  11.612   6.268   5.951
76100SOL    HW130197  11.641   6.181   5.978
76100SOL    HW230198  11.668   6.289   5.876
76101SOL     OW30199  14.665  14.281   2.322
76101SOL    HW130200  14.627  14.193   2.317
76101SOL    HW230201  14.739  14.278   2.262
76102SOL     OW30202  11.448   7.325  14.217
76102SOL    HW130203  11.483   7.245  14.179
76102SOL    HW230204  11.362   7.300  14.252
76103SOL     OW30205   0.719   7.958   2.820
76103SOL    HW130206   0.776   7.902   2.767
76103SOL    HW230207   0.777   7.994   2.887
76104SOL     OW30208   9.262   0.460   8.073
76104SOL    HW130209   9.314   0.532   8.038
76104SOL    HW230210   9.237   0.408   7.997
76105SOL     OW30211   4.748   6.636   5.424
76105SOL    HW130212   4.752   6.674   5.512
76105SOL    HW230213   4.810   6.563   5.426
76106SOL     OW30214   1.791   0.799   0.623
76106SOL    HW130215   1.812   0.795   0.530
76106SOL    HW230216   1.696   0.798   0.627
76107SOL     OW30217  12.222   8.419   9.083
76107SOL    HW130218  12.126   8.410   9.088
76107SOL    HW230219  12.237   8.512   9.095
76108SOL     OW30220   8.354  13.046  11.193
76108SOL    HW130221   8.343  13.011  11.105
76108SOL    HW230222   8.310  12.983  11.250
76109SOL     OW30223  11.047  10.418   4.600
76109SOL    HW130224  11.005  10.419   4.686
76109SOL    HW230225  11.107  10.493   4.602
76110SOL     OW30226   6.247   6.387   4.283
76110SOL    HW130227   6.298   6.468   4.292
76110SOL    HW230228   6.306   6.318   4.315
76111SOL     OW30229   6.096   9.696   3.062
76111SOL    HW130230   6.130   9.606   3.063
76111SOL    HW230231   6.127   9.733   3.145
76112SOL     OW30232  13.537   8.580   8.079
76112SOL    HW130233  13.460   8.613   8.034
76112SOL    HW230234  13.570   8.654   8.129
76113SOL     OW30235  10.510  13.514  12.056
76113SOL    HW130236  10.577  13.558  12.004
76113SOL    HW230237  10.473  13.448  11.998
76114SOL     OW30238   0.785   5.864   8.884
76114SOL    HW130239   0.715   5.850   8.947
76114SOL    HW230240   0.835   5.782   8.885
76115SOL     OW30241  13.807  11.967   8.803
76115SOL    HW130242  13.789  11.934   8.715
76115SOL    HW230243  13.791  11.892   8.860
76116SOL     OW30244   3.068  14.296  14.177
76116SOL    HW130245   2.988  14.344  14.199
76116SOL    HW230246   3.039  14.231  14.113
76117SOL     OW30247   7.593   8.845  14.515
76117SOL    HW130248   7.614   8.936  14.534
76117SOL    HW230249   7.534   8.849  14.440
76118SOL     OW30250  10.032  14.040   4.936
76118SOL    HW130251  10.099  14.098   4.900
76118SOL    HW230252   9.993  13.998   4.859
76119SOL     OW30253  11.922   2.377   2.922
76119SOL    HW130254  11.906   2.289   2.887
76119SOL    HW230255  11.952   2.427   2.846
76120SOL     OW30256   2.742   6.826   6.703
76120SOL    HW130257   2.685   6.823   6.626
76120SOL    HW230258   2.779   6.914   6.703
76121SOL     OW30259   9.858   3.235   3.729
76121SOL    HW130260   9.855   3.187   3.812
76121SOL    HW230261   9.925   3.189   3.678
76122SOL     OW30262   4.261  10.127   8.700
76122SOL    HW130263   4.179  10.156   8.659
76122SOL    HW230264   4.318  10.106   8.626
76123SOL     OW30265   7.193   0.193  10.315
76123SOL    HW130266   7.101   0.219  10.325
76123SOL    HW230267   7.242   0.275  10.324
76124SOL     OW30268   7.033   2.904  14.383
76124SOL    HW130269   7.067   2.842  14.319
76124SOL    HW230270   6.945   2.924  14.353
76125SOL     OW30271   8.302   9.351  14.201
76125SOL    HW130272   8.363   9.424  14.204
76125SOL    HW230273   8.341   9.284  14.256
76126SOL     OW30274   0.741   0.069   5.602
76126SOL    HW130275   0.680   0.137   5.630
76126SOL    HW230276   0.687   0.006   5.555
76127SOL     OW30277   8.110  13.626  12.132
76127SOL    HW130278   8.082  13.711  12.166
76127SOL    HW230279   8.052  13.610  12.057
76128SOL     OW30280  10.534   5.859   9.124
76128SOL    HW130281  10.595   5.899   9.063
76128SOL    HW230282  10.507   5.777   9.082
76129SOL     OW30283  10.707   9.300  11.607
76129SOL    HW130284  10.789   9.291  11.655
76129SOL    HW230285  10.733   9.307  11.515
76130SOL     OW30286   8.803   9.109  10.159
76130SOL    HW130287   8.795   9.018  10.187
76130SOL    HW230288   8.713   9.139  10.150
76131SOL     OW30289   6.878   2.736  11.282
76131SOL    HW130290   6.931   2.663  11.251
76131SOL    HW230291   6.849   2.710  11.370
76132SOL     OW30292   3.280  11.292  14.140
76132SOL    HW130293   3.217  11.361  14.120
76132SOL    HW230294   3.326  11.324  14.218
76133SOL     OW30295   3.030   1.264   3.525
76133SOL    HW130296   3.071   1.179   3.541
76133SOL    HW230297   3.104   1.322   3.505
76134SOL     OW30298  11.346   9.246   1.142
76134SOL    HW130299  11.285   9.197   1.087
76134SOL    HW230300  11.306   9.243   1.229
76135SOL     OW30301   7.099  12.947  14.421
76135SOL    HW130302   7.084  13.010  14.491
76135SOL    HW230303   7.052  12.868  14.449
76136SOL     OW30304  11.988   9.594  12.914
76136SOL    HW130305  12.016   9.566  13.001
76136SOL    HW230306  12.017   9.685  12.907
76137SOL     OW30307  14.198   9.244  10.548
76137SOL    HW130308  14.144   9.309  10.592
76137SOL    HW230309  14.284   9.286  10.540
76138SOL     OW30310   1.939  11.936   1.368
76138SOL    HW130311   2.034  11.928   1.372
76138SOL    HW230312   1.923  12.029   1.351
76139SOL     OW30313   6.455   0.106  13.667
76139SOL    HW130314   6.482   0.044  13.735
76139SOL    HW230315   6.506   0.081  13.590
76140SOL     OW30316   7.992  10.412   0.339
76140SOL    HW130317   8.041  10.452   0.267
76140SOL    HW230318   7.924  10.475   0.359
76141SOL     OW30319   5.284   6.246   5.388
76141SOL    HW130320   5.277   6.246   5.483
76141SOL    HW230321   5.346   6.176   5.368
76142SOL     OW30322  10.715  12.255   2.089
76142SOL    HW130323  10.736  12.171   2.049
76142SOL    HW230324  10.800  12.299   2.098
76143SOL     OW30325   7.183  14.866   2.519
76143SOL    HW130326   7.269  14.836   2.548
76143SOL    HW230327   7.201   0.054   2.449
76144SOL     OW30328   9.823  11.819  10.585
76144SOL    HW130329   9.795  11.809  10.494
76144SOL    HW230330   9.896  11.882  10.581
76145SOL     OW30331  10.513  13.790  11.468
76145SOL    HW130332  10.563  13.718  11.429
76145SOL    HW230333  10.526  13.863  11.407
76146SOL     OW30334   8.188  11.592  13.516
76146SOL    HW130335   8.165  11.672  13.563
76146SOL    HW230336   8.179  11.615  13.424
76147SOL     OW30337   8.548   4.071   5.660
76147SOL    HW130338   8.624   4.036   5.612
76147SOL    HW230339   8.526   4.002   5.722
76148SOL     OW30340   7.792  13.313   5.104
76148SOL    HW130341   7.871  13.361   5.079
76148SOL    HW230342   7.725  13.345   5.044
76149SOL     OW30343   6.404  10.083  14.610
76149SOL    HW130344   6.333  10.020  14.615
76149SOL    HW230345   6.461  10.062  14.683
76150SOL     OW30346   0.152   4.127   9.642
76150SOL    HW130347   0.126   4.218   9.661
76150SOL    HW230348   0.178   4.092   9.727
76151SOL     OW30349  11.978  11.290   4.631
76151SOL    HW130350  11.905  11.229   4.635
76151SOL    HW230351  11.955  11.349   4.559
76152SOL     OW30352   5.832   3.868   0.202
76152SOL    HW130353   5.756   3.913   0.165
76152SOL    HW230354   5.801   3.829   0.283
76153SOL     OW30355   3.214   5.410  14.718
76153SOL    HW130356   3.295   5.443  14.679
76153SOL    HW230357   3.228   5.418  14.813
76154SOL     OW30358  13.406   4.384   4.957
76154SOL    HW130359  13.432   4.474   4.976
76154SOL    HW230360  13.421   4.375   4.863
76155SOL     OW30361  14.035   0.644  14.265
76155SOL    HW130362  14.057   0.615  14.177
76155SOL    HW230363  14.015   0.737  14.256
76156SOL     OW30364   3.493  10.515  12.287
76156SOL    HW130365   3.545  10.565  12.224
76156SOL    HW230366   3.555  10.452  12.324
76157SOL     OW30367   9.570   9.373   6.045
76157SOL    HW130368   9.527   9.293   6.012
76157SOL    HW230369   9.616   9.408   5.968
76158SOL     OW30370   2.503   9.244   0.683
76158SOL    HW130371   2.533   9.188   0.612
76158SOL    HW230372   2.440   9.191   0.730
76159SOL     OW30373   5.928   2.884   3.445
76159SOL    HW130374   5.909   2.790   3.452
76159SOL    HW230375   5.909   2.906   3.354
76160SOL     OW30376   9.449   8.696   9.990
76160SOL    HW130377   9.357   8.719   9.997
76160SOL    HW230378   9.476   8.730   9.904
76161SOL     OW30379   6.526   4.877   9.885
76161SOL    HW130380   6.537   4.967   9.852
76161SOL    HW230381   6.530   4.886   9.980
76162SOL     OW30382   1.826   7.832   2.162
76162SOL    HW130383   1.778   7.829   2.079
76162SOL    HW230384   1.915   7.806   2.139
76163SOL     OW30385   1.042  11.331   3.057
76163SOL    HW130386   0.959  11.326   3.105
76163SOL    HW230387   1.107  11.299   3.118
76164SOL     OW30388   3.555   8.297   8.954
76164SOL    HW130389   3.615   8.370   8.966
76164SOL    HW230390   3.492   8.305   9.026
76165SOL     OW30391   2.947   7.372  12.538
76165SOL    HW130392   2.872   7.317  12.562
76165SOL    HW230393   3.019   7.310  12.528
76166SOL     OW30394   9.639  11.400  13.125
76166SOL    HW130395   9.695  11.446  13.062
76166SOL    HW230396   9.682  11.414  13.209
76167SOL     OW30397  11.248   2.694   4.736
76167SOL    HW130398  11.200   2.709   4.655
76167SOL    HW230399  11.208   2.615   4.773
76168SOL     OW30400  12.260   6.247   9.654
76168SOL    HW130401  12.206   6.168   9.646
76168SOL    HW230402  12.231   6.288   9.736
76169SOL     OW30403  13.089   3.948   5.587
76169SOL    HW130404  13.098   4.015   5.519
76169SOL    HW230405  13.007   3.903   5.565
76170SOL     OW30406   1.299  12.054   2.392
76170SOL    HW130407   1.214  12.094   2.372
76170SOL    HW230408   1.282  12.001   2.470
76171SOL     OW30409  10.053  14.557   5.887
76171SOL    HW130410   9.982  14.568   5.824
76171SOL    HW230411  10.032  14.476   5.934
76172SOL     OW30412   5.484   6.759  11.937
76172SOL    HW130413   5.444   6.845  11.930
76172SOL    HW230414   5.578   6.775  11.926
76173SOL     OW30415  12.899  13.870  10.108
76173SOL    HW130416  12.924  13.779  10.093
76173SOL    HW230417  12.822  13.864  10.166
76174SOL     OW30418   8.195  12.492   7.793
76174SOL    HW130419   8.227  12.582   7.790
76174SOL    HW230420   8.274  12.438   7.791
76175SOL     OW30421   1.344  10.879  14.743
76175SOL    HW130422   1.416  10.848  14.689
76175SOL    HW230423   1.291  10.801  14.760
76176SOL     OW30424   1.807   8.390  13.058
76176SOL    HW130425   1.894   8.350  13.061
76176SOL    HW230426   1.797   8.433  13.143
76177SOL     OW30427  14.142   7.666  10.651
76177SOL    HW130428  14.219   7.610  10.650
76177SOL    HW230429  14.173   7.751  10.618
76178SOL     OW30430   0.456  10.562  13.586
76178SOL    HW130431   0.473  10.656  13.576
76178SOL    HW230432   0.542  10.522  13.595
76179SOL     OW30433  13.433   3.574   6.777
76179SOL    HW130434  13.341   3.558   6.797
76179SOL    HW230435  13.432   3.644   6.712
76180SOL     OW30436  10.541  10.069   5.873
76180SOL    HW130437  10.547  10.131   5.800
76180SOL    HW230438  10.554   9.983   5.832
76181SOL     OW30439  12.747   7.505   6.259
76181SOL    HW130440  12.801   7.534   6.333
76181SOL    HW230441  12.698   7.584   6.234
76182SOL     OW30442   8.220  10.932   6.624
76182SOL    HW130443   8.298  10.936   6.570
76182SOL    HW230444   8.157  10.883   6.572
76183SOL     OW30445   2.421   4.344   6.733
76183SOL    HW130446   2.473   4.385   6.802
76183SOL    HW230447   2.457   4.256   6.725
76184SOL     OW30448   4.097   6.571   0.986
76184SOL    HW130449   4.139   6.641   0.936
76184SOL    HW230450   4.169   6.530   1.034
76185SOL     OW30451   5.727   2.012   9.472
76185SOL    HW130452   5.696   1.963   9.396
76185SOL    HW230453   5.778   1.948   9.523
76186SOL     OW30454   2.054   3.987  13.199
76186SOL    HW130455   1.970   4.003  13.241
76186SOL    HW230456   2.042   3.905  13.151
76187SOL     OW30457   0.572  13.698   8.050
76187SOL    HW130458   0.554  13.764   7.984
76187SOL    HW230459   0.621  13.631   8.004
76188SOL     OW30460   8.245  11.932  10.731
76188SOL    HW130461   8.240  12.008  10.674
76188SOL    HW230462   8.228  11.967  10.819
76189SOL     OW30463  10.572   8.218  12.504
76189SOL    HW130464  10.510   8.184  12.569
76189SOL    HW230465  10.530   8.297  12.470
76190SOL     OW30466  10.585   0.157  14.848
76190SOL    HW130467  10.549   0.206  14.774
76190SOL    HW230468  10.528   0.080  14.856
76191SOL     OW30469  10.258   8.006  14.012
76191SOL    HW130470  10.297   8.080  13.967
76191SOL    HW230471  10.164   8.017  13.998
76192SOL     OW30472   6.828   8.350   6.392
76192SOL    HW130473   6.784   8.304   6.320
76192SOL    HW230474   6.777   8.326   6.470
76193SOL     OW30475  12.295   4.169   1.882
76193SOL    HW130476  12.240   4.125   1.947
76193SOL    HW230477  12.363   4.105   1.861
76194SOL     OW30478  10.258   3.562   2.397
76194SOL    HW130479  10.245   3.647   2.354
76194SOL    HW230480  10.338   3.573   2.448
76195SOL     OW30481   2.763   8.263  14.041
76195SOL    HW130482   2.838   8.204  14.038
76195SOL    HW230483   2.769   8.315  13.961
76196SOL     OW30484  14.220  14.231  10.102
76196SOL    HW130485  14.265  14.160  10.148
76196SOL    HW230486  14.290  14.283  10.063
76197SOL     OW30487  10.759  11.885  12.821
76197SOL    HW130488  10.698  11.946  12.863
76197SOL    HW230489  10.716  11.800  12.828
76198SOL     OW30490  10.001   9.016   3.813
76198SOL    HW130491   9.952   9.036   3.733
76198SOL    HW230492   9.980   8.925   3.832
76199SOL     OW30493  12.653  10.801  11.976
76199SOL    HW130494  12.685  10.885  11.945
76199SOL    HW230495  12.636  10.751  11.896
76200SOL     OW30496   2.514   2.369   8.684
76200SOL    HW130497   2.515   2.463   8.701
76200SOL    HW230498   2.424   2.342   8.702
76201SOL     OW30499   1.151   3.013   0.470
76201SOL    HW130500   1.147   2.934   0.524
76201SOL    HW230501   1.218   2.994   0.405
76202SOL     OW30502  10.750   9.847   4.972
76202SOL    HW130503  10.820   9.890   4.923
76202SOL    HW230504  10.674   9.853   4.914
76203SOL     OW30505   5.931   6.209  14.060
76203SOL    HW130506   5.847   6.165  14.047
76203SOL    HW230507   5.988   6.173  13.992
76204SOL     OW30508   4.335   6.138   2.452
76204SOL    HW130509   4.344   6.044   2.471
76204SOL    HW230510   4.425   6.168   2.436
76205SOL     OW30511  14.513  13.555   8.028
76205SOL    HW130512  14.522  13.644   7.993
76205SOL    HW230513  14.534  13.497   7.955
76206SOL     OW30514   4.199   4.722   1.675
76206SOL    HW130515   4.114   4.749   1.710
76206SOL    HW230516   4.233   4.661   1.741
76207SOL     OW30517   0.825   5.625  12.354
76207SOL    HW130518   0.781   5.573  12.287
76207SOL    HW230519   0.907   5.653  12.313
76208SOL     OW30520  12.845   4.139   2.259
76208SOL    HW130521  12.865   4.050   2.289
76208SOL    HW230522  12.926   4.168   2.216
76209SOL     OW30523  14.171   8.919   5.404
76209SOL    HW130524  14.218   8.891   5.482
76209SOL    HW230525  14.184   8.849   5.341
76210SOL     OW30526   1.285   0.549  11.824
76210SOL    HW130527   1.335   0.631  11.823
76210SOL    HW230528   1.272   0.528  11.731
76211SOL     OW30529   9.748   0.213  14.721
76211SOL    HW130530   9.762   0.165  14.803
76211SOL    HW230531   9.739   0.145  14.655
76212SOL     OW30532  12.251   9.008  12.392
76212SOL    HW130533  12.182   9.035  12.453
76212SOL    HW230534  12.282   8.925  12.427
76213SOL     OW30535   7.437   6.115   8.193
76213SOL    HW130536   7.381   6.185   8.227
76213SOL    HW230537   7.525   6.137   8.223
76214SOL     OW30538   4.032   4.921  13.639
76214SOL    HW130539   4.080   4.915  13.721
76214SOL    HW230540   3.963   4.986  13.657
76215SOL     OW30541  12.874   3.628   4.631
76215SOL    HW130542  12.900   3.542   4.599
76215SOL    HW230543  12.902   3.630   4.722
76216SOL     OW30544   2.545   8.334  13.329
76216SOL    HW130545   2.589   8.418  13.342
76216SOL    HW230546   2.563   8.285  13.410
76217SOL     OW30547   4.073   8.386   9.967
76217SOL    HW130548   4.153   8.405   9.918
76217SOL    HW230549   4.045   8.301   9.934
76218SOL     OW30550   3.546   9.213   1.048
76218SOL    HW130551   3.579   9.126   1.071
76218SOL    HW230552   3.574   9.227   0.958
76219SOL     OW30553   6.093   3.576  13.130
76219SOL    HW130554   6.179   3.534  13.123
76219SOL    HW230555   6.105   3.664  13.094
76220SOL     OW30556  12.299   8.414  10.695
76220SOL    HW130557  12.330   8.353  10.627
76220SOL    HW230558  12.278   8.494  10.647
76221SOL     OW30559  13.293  12.210  11.946
76221SOL    HW130560  13.233  12.220  12.019
76221SOL    HW230561  13.240  12.231  11.869
76222SOL     OW30562   6.034   1.986   5.719
76222SOL    HW130563   5.956   2.018   5.765
76222SOL    HW230564   6.065   2.061   5.668
76223SOL     OW30565   7.979   3.516   1.821
76223SOL    HW130566   7.943   3.457   1.887
76223SOL    HW230567   7.951   3.603   1.849
76224SOL     OW30568   1.240  14.325  11.230
76224SOL    HW130569   1.253  14.390  11.299
76224SOL    HW230570   1.309  14.344  11.166
76225SOL     OW30571   4.361   3.993   1.678
76225SOL    HW130572   4.432   4.048   1.711
76225SOL    HW230573   4.331   3.944   1.754
76226SOL     OW30574   4.178   1.529   9.107
76226SOL    HW130575   4.147   1.507   9.195
76226SOL    HW230576   4.268   1.496   9.105
76227SOL     OW30577   7.427   3.764  12.987
76227SOL    HW130578   7.489   3.814  12.934
76227SOL    HW230579   7.464   3.767  13.075
76228SOL     OW30580   1.427  14.360   7.729
76228SOL    HW130581   1.382  14.436   7.691
76228SOL    HW230582   1.462  14.313   7.653
76229SOL     OW30583  11.760   7.170   5.264
76229SOL    HW130584  11.677   7.203   5.299
76229SOL    HW230585  11.818   7.166   5.341
76230SOL     OW30586   3.358   0.033   9.777
76230SOL    HW130587   3.288   0.098   9.770
76230SOL    HW230588   3.368  14.873   9.689
76231SOL     OW30589   1.491   1.428   3.963
76231SOL    HW130590   1.505   1.481   4.042
76231SOL    HW230591   1.503   1.338   3.992
76232SOL     OW30592   8.469   7.503  13.133
76232SOL    HW130593   8.432   7.537  13.215
76232SOL    HW230594   8.424   7.420  13.119
76233SOL     OW30595   4.696   9.419   9.328
76233SOL    HW130596   4.622   9.388   9.380
76233SOL    HW230597   4.758   9.454   9.394
76234SOL     OW30598   2.963   6.237  12.078
76234SOL    HW130599   2.998   6.183  12.007
76234SOL    HW230600   2.945   6.321  12.037
76235SOL     OW30601   7.258  12.952  13.015
76235SOL    HW130602   7.330  12.903  13.056
76235SOL    HW230603   7.294  13.039  13.001
76236SOL     OW30604  10.719  14.565   3.366
76236SOL    HW130605  10.803  14.525   3.343
76236SOL    HW230606  10.686  14.600   3.283
76237SOL     OW30607  10.472  12.086   6.899
76237SOL    HW130608  10.391  12.083   6.949
76237SOL    HW230609  10.484  11.996   6.868
76238SOL     OW30610  12.489   9.418   0.991
76238SOL    HW130611  12.564   9.441   0.935
76238SOL    HW230612  12.416   9.467   0.954
76239SOL     OW30613   6.801  11.838   4.265
76239SOL    HW130614   6.714  11.824   4.228
76239SOL    HW230615   6.784  11.869   4.354
76240SOL     OW30616   2.283  11.655   6.843
76240SOL    HW130617   2.230  11.732   6.823
76240SOL    HW230618   2.367  11.691   6.870
76241SOL     OW30619   6.163  13.692   5.291
76241SOL    HW130620   6.106  13.692   5.213
76241SOL    HW230621   6.141  13.774   5.336
76242SOL     OW30622   8.767   5.976   5.707
76242SOL    HW130623   8.818   5.899   5.733
76242SOL    HW230624   8.695   5.940   5.655
76243SOL     OW30625   2.071   4.914   4.115
76243SOL    HW130626   1.981   4.941   4.096
76243SOL    HW230627   2.062   4.836   4.170
76244SOL     OW30628  13.722   6.411   5.269
76244SOL    HW130629  13.672   6.364   5.203
76244SOL    HW230630  13.797   6.355   5.287
76245SOL     OW30631   5.515   2.947   1.972
76245SOL    HW130632   5.526   2.867   2.023
76245SOL    HW230633   5.514   2.918   1.881
76246SOL     OW30634  14.014  14.449  14.825
76246SOL    HW130635  13.953  14.512  14.787
76246SOL    HW230636  14.080  14.504  14.869
76247SOL     OW30637   0.899  12.354  11.952
76247SOL    HW130638   0.980  12.384  11.992
76247SOL    HW230639   0.895  12.260  11.971
76248SOL     OW30640  11.939   5.119   3.601
76248SOL    HW130641  11.944   5.121   3.506
76248SOL    HW230642  11.920   5.028   3.622
76249SOL     OW30643   5.888   0.728   8.990
76249SOL    HW130644   5.895   0.824   8.994
76249SOL    HW230645   5.901   0.699   9.080
76250SOL     OW30646   0.371   1.569  11.750
76250SOL    HW130647   0.387   1.633  11.680
76250SOL    HW230648   0.277   1.574  11.766
76251SOL     OW30649   0.435   6.215   4.411
76251SOL    HW130650   0.476   6.237   4.327
76251SOL    HW230651   0.493   6.150   4.450
76252SOL     OW30652  11.900  10.208  12.348
76252SOL    HW130653  11.875  10.299  12.332
76252SOL    HW230654  11.834  10.176  12.410
76253SOL     OW30655  14.716   2.310  13.370
76253SOL    HW130656  14.790   2.363  13.399
76253SOL    HW230657  14.700   2.337  13.280
76254SOL     OW30658   0.894   7.618   8.227
76254SOL    HW130659   0.892   7.525   8.204
76254SOL    HW230660   0.948   7.623   8.306
76255SOL     OW30661  12.869  13.813   6.583
76255SOL    HW130662  12.901  13.870   6.653
76255SOL    HW230663  12.946  13.795   6.529
76256SOL     OW30664   9.061  14.043  10.556
76256SOL    HW130665   9.113  13.968  10.528
76256SOL    HW230666   8.978  14.004  10.585
76257SOL     OW30667   8.437   9.427   9.191
76257SOL    HW130668   8.463   9.435   9.099
76257SOL    HW230669   8.519   9.429   9.239
76258SOL     OW30670   2.495   6.823   0.653
76258SOL    HW130671   2.433   6.895   0.662
76258SOL    HW230672   2.560   6.838   0.722
76259SOL     OW30673   4.444  13.587  10.323
76259SOL    HW130674   4.485  13.636  10.251
76259SOL    HW230675   4.371  13.642  10.351
76260SOL     OW30676  13.346   0.067  11.524
76260SOL    HW130677  13.255   0.093  11.539
76260SOL    HW230678  13.397   0.144  11.547
76261SOL     OW30679   8.134   3.064  12.104
76261SOL    HW130680   8.053   3.013  12.112
76261SOL    HW230681   8.172   3.062  12.192
76262SOL     OW30682   5.792  13.416  13.655
76262SOL    HW130683   5.812  13.478  13.585
76262SOL    HW230684   5.844  13.339  13.635
76263SOL     OW30685   6.559  11.539   8.192
76263SOL    HW130686   6.588  11.551   8.101
76263SOL    HW230687   6.545  11.445   8.200
76264SOL     OW30688   0.893   4.545   3.555
76264SOL    HW130689   0.907   4.558   3.461
76264SOL    HW230690   0.889   4.450   3.566
76265SOL     OW30691   5.581   6.722  13.992
76265SOL    HW130692   5.580   6.687  13.903
76265SOL    HW230693   5.664   6.768  13.999
76266SOL     OW30694   8.128   0.085   9.520
76266SOL    HW130695   8.053   0.130   9.559
76266SOL    HW230696   8.095   0.048   9.438
76267SOL     OW30697   6.621  14.254   3.802
76267SOL    HW130698   6.558  14.323   3.821
76267SOL    HW230699   6.704  14.285   3.838
76268SOL     OW30700   3.495   4.524   0.876
76268SOL    HW130701   3.447   4.444   0.851
76268SOL    HW230702   3.543   4.498   0.954
76269SOL     OW30703   0.354   2.133   1.982
76269SOL    HW130704   0.351   2.187   2.060
76269SOL    HW230705   0.294   2.060   2.000
76270SOL     OW30706  13.219   6.929  13.317
76270SOL    HW130707  13.224   6.886  13.231
76270SOL    HW230708  13.132   6.907  13.349
76271SOL     OW30709   7.165   3.202  13.111
76271SOL    HW130710   7.107   3.257  13.059
76271SOL    HW230711   7.108   3.130  13.142
76272SOL     OW30712  10.341  13.822  10.098
76272SOL    HW130713  10.390  13.853  10.022
76272SOL    HW230714  10.403  13.766  10.144
76273SOL     OW30715   1.554   3.242   6.135
76273SOL    HW130716   1.489   3.182   6.098
76273SOL    HW230717   1.520   3.262   6.222
76274SOL     OW30718   2.480   6.407   4.129
76274SOL    HW130719   2.468   6.493   4.090
76274SOL    HW230720   2.540   6.422   4.203
76275SOL     OW30721   0.941  10.021   9.754
76275SOL    HW130722   0.868  10.010   9.815
76275SOL    HW230723   0.934  10.111   9.724
76276SOL     OW30724  10.652   5.220   2.491
76276SOL    HW130725  10.678   5.162   2.419
76276SOL    HW230726  10.574   5.178   2.529
76277SOL     OW30727   6.375   6.967   1.455
76277SOL    HW130728   6.285   6.937   1.449
76277SOL    HW230729   6.418   6.905   1.514
76278SOL     OW30730  12.202   7.469   6.052
76278SOL    HW130731  12.138   7.450   5.983
76278SOL    HW230732  12.264   7.529   6.011
76279SOL     OW30733   2.734   6.851   3.766
76279SOL    HW130734   2.728   6.808   3.681
76279SOL    HW230735   2.768   6.783   3.825
76280SOL     OW30736   3.527   4.072   7.547
76280SOL    HW130737   3.603   4.074   7.605
76280SOL    HW230738   3.555   4.117   7.468
76281SOL     OW30739   9.773   6.869  11.821
76281SOL    HW130740   9.809   6.842  11.736
76281SOL    HW230741   9.715   6.942  11.801
76282SOL     OW30742  11.708   6.405   5.314
76282SOL    HW130743  11.716   6.462   5.390
76282SOL    HW230744  11.654   6.454   5.252
76283SOL     OW30745  13.680   9.514   8.033
76283SOL    HW130746  13.772   9.539   8.039
76283SOL    HW230747  13.639   9.584   7.982
76284SOL     OW30748   2.841   5.896   9.086
76284SOL    HW130749   2.860   5.808   9.052
76284SOL    HW230750   2.922   5.922   9.130
76285SOL     OW30751   9.618   5.001   9.715
76285SOL    HW130752   9.700   4.969   9.754
76285SOL    HW230753   9.646   5.038   9.631
76286SOL     OW30754   0.988  14.234   2.465
76286SOL    HW130755   1.026  14.230   2.553
76286SOL    HW230756   0.934  14.314   2.466
76287SOL     OW30757   9.527  12.148   9.948
76287SOL    HW130758   9.553  12.093   9.874
76287SOL    HW230759   9.441  12.183   9.923
76288SOL     OW30760  13.178  12.016  12.352
76288SOL    HW130761  13.201  11.976  12.436
76288SOL    HW230762  13.256  12.065  12.327
76289SOL     OW30763   0.235  13.185  10.062
76289SOL    HW130764   0.252  13.276  10.086
76289SOL    HW230765   0.219  13.188   9.968
76290SOL     OW30766   7.636   6.857  11.874
76290SOL    HW130767   7.603   6.848  11.963
76290SOL    HW230768   7.568   6.903  11.826
76291SOL     OW30769   9.698  14.114  14.245
76291SOL    HW130770   9.785  14.080  14.263
76291SOL    HW230771   9.706  14.209  14.256
76292SOL     OW30772  12.155   2.717   0.095
76292SOL    HW130773  12.197   2.657   0.157
76292SOL    HW230774  12.175   2.805   0.129
76293SOL     OW30775   7.029   1.640  13.695
76293SOL    HW130776   7.020   1.735  13.699
76293SOL    HW230777   6.975   1.613  13.622
76294SOL     OW30778   9.179   0.095   7.492
76294SOL    HW130779   9.107   0.157   7.492
76294SOL    HW230780   9.191   0.071   7.401
76295SOL     OW30781   1.727   2.255   5.989
76295SOL    HW130782   1.804   2.199   6.001
76295SOL    HW230783   1.749   2.311   5.914
76296SOL     OW30784  11.127  13.471  12.226
76296SOL    HW130785  11.157  13.549  12.273
76296SOL    HW230786  11.032  13.480  12.223
76297SOL     OW30787   4.689   9.005   8.893
76297SOL    HW130788   4.699   8.946   8.818
76297SOL    HW230789   4.676   8.947   8.968
76298SOL     OW30790   2.674  13.556   2.105
76298SOL    HW130791   2.593  13.603   2.124
76298SOL    HW230792   2.646  13.469   2.075
76299SOL     OW30793   9.177   7.315   8.608
76299SOL    HW130794   9.204   7.399   8.645
76299SOL    HW230795   9.084   7.307   8.631
76300SOL     OW30796   8.604   8.292   0.013
76300SOL    HW130797   8.619   8.205  14.852
76300SOL    HW230798   8.592   8.348  14.811
76301SOL     OW30799   4.303   6.398   7.042
76301SOL    HW130800   4.312   6.446   6.959
76301SOL    HW230801   4.209   6.387   7.053
76302SOL     OW30802   9.045   1.824  11.063
76302SOL    HW130803   9.014   1.893  11.005
76302SOL    HW230804   9.030   1.857  11.151
76303SOL     OW30805   4.283   8.336  12.338
76303SOL    HW130806   4.361   8.388  12.360
76303SOL    HW230807   4.211   8.399  12.337
76304SOL     OW30808   7.917   3.598   4.321
76304SOL    HW130809   7.907   3.656   4.397
76304SOL    HW230810   8.007   3.565   4.327
76305SOL     OW30811   6.214  11.500   7.307
76305SOL    HW130812   6.127  11.483   7.342
76305SOL    HW230813   6.260  11.416   7.313
76306SOL     OW30814   4.896   5.524   3.506
76306SOL    HW130815   4.932   5.436   3.495
76306SOL    HW230816   4.901   5.562   3.418
76307SOL     OW30817  13.801   1.774  11.087
76307SOL    HW130818  13.887   1.735  11.072
76307SOL    HW230819  13.749   1.703  11.124
76308SOL     OW30820   4.971   7.152   2.910
76308SOL    HW130821   4.909   7.079   2.917
76308SOL    HW230822   5.019   7.135   2.830
76309SOL     OW30823   9.054   1.945   9.399
76309SOL    HW130824   9.051   1.907   9.487
76309SOL    HW230825   8.972   1.919   9.358
76310SOL     OW30826   0.385   1.356   6.696
76310SOL    HW130827   0.414   1.440   6.659
76310SOL    HW230828   0.443   1.291   6.658
76311SOL     OW30829  13.696   8.984   6.123
76311SOL    HW130830  13.655   9.040   6.190
76311SOL    HW230831  13.696   8.897   6.161
76312SOL     OW30832  10.035   8.550   0.913
76312SOL    HW130833  10.067   8.494   0.842
76312SOL    HW230834  10.086   8.630   0.905
76313SOL     OW30835   5.963   5.410   1.719
76313SOL    HW130836   5.897   5.379   1.656
76313SOL    HW230837   5.957   5.505   1.715
76314SOL     OW30838  12.195   2.060  12.091
76314SOL    HW130839  12.119   2.023  12.046
76314SOL    HW230840  12.270   2.029  12.039
76315SOL     OW30841  13.670  10.898   3.808
76315SOL    HW130842  13.713  10.974   3.769
76315SOL    HW230843  13.598  10.878   3.748
76316SOL     OW30844  10.720   5.565   6.245
76316SOL    HW130845  10.685   5.636   6.299
76316SOL    HW230846  10.643   5.517   6.215
76317SOL     OW30847  13.550   2.801   4.727
76317SOL    HW130848  13.578   2.784   4.637
76317SOL    HW230849  13.625   2.843   4.768
76318SOL     OW30850   7.286   7.042   0.311
76318SOL    HW130851   7.304   7.096   0.389
76318SOL    HW230852   7.344   6.967   0.321
76319SOL     OW30853  12.252  12.455  10.666
76319SOL    HW130854  12.174  12.406  10.641
76319SOL    HW230855  12.220  12.527  10.720
76320SOL     OW30856   2.350  10.117   6.943
76320SOL    HW130857   2.339  10.081   6.855
76320SOL    HW230858   2.370  10.041   6.998
76321SOL     OW30859   9.330   2.370   1.513
76321SOL    HW130860   9.328   2.385   1.419
76321SOL    HW230861   9.254   2.316   1.531
76322SOL     OW30862   8.732  13.470   3.102
76322SOL    HW130863   8.730  13.499   3.011
76322SOL    HW230864   8.683  13.537   3.149
76323SOL     OW30865   9.192   0.711   7.562
76323SOL    HW130866   9.164   0.778   7.499
76323SOL    HW230867   9.142   0.731   7.641
76324SOL     OW30868  12.345   0.419  11.272
76324SOL    HW130869  12.407   0.357  11.233
76324SOL    HW230870  12.397   0.467  11.337
76325SOL     OW30871   4.023  10.407  14.689
76325SOL    HW130872   3.994  10.409  14.598
76325SOL    HW230873   3.954  10.451  14.737
76326SOL     OW30874   6.163  12.810   9.122
76326SOL    HW130875   6.239  12.769   9.165
76326SOL    HW230876   6.194  12.897   9.097
76327SOL     OW30877   9.145  13.474   4.397
76327SOL    HW130878   9.062  13.432   4.374
76327SOL    HW230879   9.209  13.435   4.338
76328SOL     OW30880   0.356  12.161   2.037
76328SOL    HW130881   0.277  12.201   2.073
76328SOL    HW230882   0.324  12.108   1.964
76329SOL     OW30883   7.992   0.908  13.798
76329SOL    HW130884   7.981   0.876  13.887
76329SOL    HW230885   8.083   0.887  13.776
76330SOL     OW30886  14.425   9.044  14.850
76330SOL    HW130887  14.512   9.041   0.016
76330SOL    HW230888  14.386   9.125   0.008
76331SOL     OW30889   4.357   7.515   5.762
76331SOL    HW130890   4.341   7.536   5.854
76331SOL    HW230891   4.294   7.446   5.743
76332SOL     OW30892   8.935   0.074   7.214
76332SOL    HW130893   8.916   0.165   7.239
76332SOL    HW230894   8.857   0.046   7.166
76333SOL     OW30895   7.105   0.412  12.254
76333SOL    HW130896   7.149   0.474  12.196
76333SOL    HW230897   7.127   0.326  12.219
76334SOL     OW30898   1.424  13.646  12.088
76334SOL    HW130899   1.479  13.669  12.012
76334SOL    HW230900   1.344  13.612  12.049
76335SOL     OW30901  11.067  13.241  12.451
76335SOL    HW130902  10.987  13.293  12.442
76335SOL    HW230903  11.134  13.305  12.474
76336SOL     OW30904  12.110  12.748  13.773
76336SOL    HW130905  12.109  12.654  13.792
76336SOL    HW230906  12.192  12.779  13.813
76337SOL     OW30907  14.581  13.201  11.409
76337SOL    HW130908  14.606  13.282  11.365
76337SOL    HW230909  14.545  13.146  11.340
76338SOL     OW30910  14.122   7.537  10.901
76338SOL    HW130911  14.120   7.459  10.845
76338SOL    HW230912  14.088   7.607  10.845
76339SOL     OW30913   2.505   2.896   3.034
76339SOL    HW130914   2.441   2.825   3.044
76339SOL    HW230915   2.586   2.861   3.070
76340SOL     OW30916   5.212  14.554   1.619
76340SOL    HW130917   5.192  14.461   1.630
76340SOL    HW230918   5.200  14.592   1.706
76341SOL     OW30919   4.038   3.336  12.391
76341SOL    HW130920   4.121   3.345  12.437
76341SOL    HW230921   3.992   3.266  12.439
76342SOL     OW30922  12.537   5.958  12.267
76342SOL    HW130923  12.458   5.946  12.319
76342SOL    HW230924  12.576   6.039  12.300
76343SOL     OW30925  14.384   5.147   9.559
76343SOL    HW130926  14.418   5.236   9.556
76343SOL    HW230927  14.447   5.096   9.507
76344SOL     OW30928  14.417   3.938   0.953
76344SOL    HW130929  14.389   4.008   0.894
76344SOL    HW230930  14.377   3.959   1.037
76345SOL     OW30931   7.435   2.416   0.385
76345SOL    HW130932   7.359   2.359   0.401
76345SOL    HW230933   7.400   2.504   0.392
76346SOL     OW30934  10.996  12.232   0.344
76346SOL    HW130935  11.085  12.245   0.311
76346SOL    HW230936  11.006  12.173   0.419
76347SOL     OW30937   3.039  10.497  10.980
76347SOL    HW130938   3.021  10.507  11.073
76347SOL    HW230939   3.090  10.416  10.974
76348SOL     OW30940  10.598   6.278   6.648
76348SOL    HW130941  10.528   6.328   6.606
76348SOL    HW230942  10.633   6.221   6.580
76349SOL     OW30943  10.560   4.136   4.928
76349SOL    HW130944  10.634   4.075   4.923
76349SOL    HW230945  10.600   4.222   4.938
76350SOL     OW30946   0.018   3.438  11.676
76350SOL    HW130947   0.013   3.344  11.657
76350SOL    HW230948   0.024   3.479  11.590
76351SOL     OW30949   2.080   7.713   6.105
76351SOL    HW130950   2.009   7.683   6.162
76351SOL    HW230951   2.153   7.655   6.125
76352SOL     OW30952   4.569   2.491   0.606
76352SOL    HW130953   4.650   2.447   0.581
76352SOL    HW230954   4.507   2.420   0.622
76353SOL     OW30955   6.432   0.081  11.497
76353SOL    HW130956   6.507   0.140  11.496
76353SOL    HW230957   6.364   0.128  11.546
76354SOL     OW30958   4.089   1.101   4.462
76354SOL    HW130959   4.088   1.084   4.557
76354SOL    HW230960   4.182   1.108   4.440
76355SOL     OW30961  14.029  11.530  13.081
76355SOL    HW130962  14.014  11.534  13.176
76355SOL    HW230963  14.109  11.479  13.072
76356SOL     OW30964   5.347  10.101   8.517
76356SOL    HW130965   5.310  10.020   8.550
76356SOL    HW230966   5.332  10.099   8.422
76357SOL     OW30967   4.204  14.223   7.313
76357SOL    HW130968   4.227  14.260   7.227
76357SOL    HW230969   4.253  14.276   7.376
76358SOL     OW30970  14.142   5.978  14.112
76358SOL    HW130971  14.118   6.056  14.163
76358SOL    HW230972  14.236   5.968  14.127
76359SOL     OW30973   5.438   7.313   8.032
76359SOL    HW130974   5.485   7.389   8.067
76359SOL    HW230975   5.362   7.303   8.089
76360SOL     OW30976  13.229   9.053   1.662
76360SOL    HW130977  13.271   9.139   1.658
76360SOL    HW230978  13.135   9.073   1.658
76361SOL     OW30979  12.487   5.856  13.333
76361SOL    HW130980  12.562   5.915  13.334
76361SOL    HW230981  12.439   5.876  13.414
76362SOL     OW30982   1.331   7.990   4.325
76362SOL    HW130983   1.265   7.923   4.339
76362SOL    HW230984   1.414   7.944   4.329
76363SOL     OW30985   5.251   8.516   7.366
76363SOL    HW130986   5.187   8.468   7.313
76363SOL    HW230987   5.327   8.527   7.308
76364SOL     OW30988   2.192  14.207  12.040
76364SOL    HW130989   2.181  14.219  11.946
76364SOL    HW230990   2.260  14.141  12.048
76365SOL     OW30991   1.553   4.926  14.071
76365SOL    HW130992   1.626   4.927  14.132
76365SOL    HW230993   1.497   4.999  14.098
76366SOL     OW30994  13.415   5.157  13.518
76366SOL    HW130995  13.451   5.086  13.570
76366SOL    HW230996  13.482   5.176  13.452
76367SOL     OW30997   8.429   6.748   4.947
76367SOL    HW130998   8.493   6.679   4.929
76367SOL    HW230999   8.478   6.814   4.995
76368SOL     OW31000   1.508   3.348   4.910
76368SOL    HW131001   1.600   3.326   4.928
76368SOL    HW231002   1.460   3.268   4.933
76369SOL     OW31003   3.403  12.813  10.808
76369SOL    HW131004   3.368  12.769  10.885
76369SOL    HW231005   3.327  12.851  10.765
76370SOL     OW31006   2.195   4.089  14.850
76370SOL    HW131007   2.102   4.091  14.870
76370SOL    HW231008   2.225   4.179  14.864
76371SOL     OW31009   9.366   5.125   9.765
76371SOL    HW131010   9.314   5.052   9.798
76371SOL    HW231011   9.451   5.086   9.745
76372SOL     OW31012   5.946   5.118  12.565
76372SOL    HW131013   6.025   5.077  12.600
76372SOL    HW231014   5.874   5.066  12.600
76373SOL     OW31015  11.015  13.840   4.089
76373SOL    HW131016  10.925  13.850   4.118
76373SOL    HW231017  11.028  13.910   4.024
76374SOL     OW31018  14.520  12.938   8.187
76374SOL    HW131019  14.459  12.998   8.231
76374SOL    HW231020  14.574  12.904   8.258
76375SOL     OW31021   9.877   7.089  10.147
76375SOL    HW131022   9.883   7.174  10.104
76375SOL    HW231023   9.783   7.079  10.166
76376SOL     OW31024   5.152   5.462  14.789
76376SOL    HW131025   5.173   5.555  14.775
76376SOL    HW231026   5.115   5.433  14.705
76377SOL     OW31027   8.436  10.708   6.315
76377SOL    HW131028   8.387  10.626   6.318
76377SOL    HW231029   8.430  10.737   6.224
76378SOL     OW31030   3.814   2.833  12.945
76378SOL    HW131031   3.820   2.816  12.851
76378SOL    HW231032   3.720   2.833  12.963
76379SOL     OW31033   4.149  10.633   7.311
76379SOL    HW131034   4.105  10.566   7.363
76379SOL    HW231035   4.242  10.619   7.327
76380SOL     OW31036  12.719  14.614   4.743
76380SOL    HW131037  12.725  14.580   4.832
76380SOL    HW231038  12.790  14.572   4.696
76381SOL     OW31039   3.136   2.176   9.563
76381SOL    HW131040   3.121   2.256   9.614
76381SOL    HW231041   3.148   2.108   9.629
76382SOL     OW31042   3.603   1.914   2.672
76382SOL    HW131043   3.569   1.881   2.589
76382SOL    HW231044   3.688   1.953   2.649
76383SOL     OW31045   9.303  14.325   6.079
76383SOL    HW131046   9.347  14.240   6.077
76383SOL    HW231047   9.300  14.348   6.172
76384SOL     OW31048   7.209   2.332   0.059
76384SOL    HW131049   7.175   2.332  14.845
76384SOL    HW231050   7.241   2.421   0.073
76385SOL     OW31051  12.000  14.356   3.273
76385SOL    HW131052  12.033  14.266   3.276
76385SOL    HW231053  12.026  14.393   3.358
76386SOL     OW31054   6.719   1.980   7.539
76386SOL    HW131055   6.804   2.015   7.565
76386SOL    HW231056   6.704   2.017   7.452
76387SOL     OW31057   6.569   7.081  14.268
76387SOL    HW131058   6.581   6.992  14.234
76387SOL    HW231059   6.550   7.070  14.361
76388SOL     OW31060   2.725   0.310   1.673
76388SOL    HW131061   2.781   0.387   1.656
76388SOL    HW231062   2.660   0.313   1.603
76389SOL     OW31063   4.875  14.186   0.108
76389SOL    HW131064   4.780  14.194   0.111
76389SOL    HW231065   4.899  14.216   0.020
76390SOL     OW31066   6.547  13.212   4.472
76390SOL    HW131067   6.629  13.167   4.451
76390SOL    HW231068   6.574  13.294   4.512
76391SOL     OW31069   4.931   7.827  13.636
76391SOL    HW131070   4.955   7.891  13.570
76391SOL    HW231071   4.965   7.744  13.603
76392SOL     OW31072  11.330   4.639   3.654
76392SOL    HW131073  11.328   4.554   3.699
76392SOL    HW231074  11.415   4.676   3.678
76393SOL     OW31075   0.020   2.959  10.298
76393SOL    HW131076   0.106   2.973  10.337
76393SOL    HW231077   0.036   2.901  10.223
76394SOL     OW31078  14.088  10.048   0.038
76394SOL    HW131079  14.104  10.090  14.829
76394SOL    HW231080  14.175  10.027   0.072
76395SOL     OW31081   8.774   2.268  12.594
76395SOL    HW131082   8.791   2.326  12.520
76395SOL    HW231083   8.857   2.223  12.609
76396SOL     OW31084   2.239   7.770   0.468
76396SOL    HW131085   2.204   7.761   0.380
76396SOL    HW231086   2.176   7.724   0.524
76397SOL     OW31087   5.238   6.813   0.387
76397SOL    HW131088   5.234   6.898   0.430
76397SOL    HW231089   5.265   6.752   0.456
76398SOL     OW31090   5.458   1.872  13.092
76398SOL    HW131091   5.435   1.936  13.160
76398SOL    HW231092   5.380   1.865  13.038
76399SOL     OW31093  13.542   2.510  11.559
76399SOL    HW131094  13.609   2.530  11.494
76399SOL    HW231095  13.484   2.447  11.516
76400SOL     OW31096   7.942  10.141   2.908
76400SOL    HW131097   7.887  10.161   2.833
76400SOL    HW231098   8.029  10.174   2.884
76401SOL     OW31099   8.444   6.260   9.396
76401SOL    HW131100   8.483   6.330   9.343
76401SOL    HW231101   8.469   6.281   9.486
76402SOL     OW31102  13.868   4.029  11.192
76402SOL    HW131103  13.919   3.989  11.122
76402SOL    HW231104  13.782   3.988  11.185
76403SOL     OW31105  10.176   0.402   4.496
76403SOL    HW131106  10.085   0.426   4.481
76403SOL    HW231107  10.227   0.478   4.468
76404SOL     OW31108   5.791   3.725   3.695
76404SOL    HW131109   5.834   3.704   3.612
76404SOL    HW231110   5.805   3.818   3.707
76405SOL     OW31111  14.760  11.097  12.838
76405SOL    HW131112  14.679  11.111  12.888
76405SOL    HW231113  14.814  11.042  12.895
76406SOL     OW31114   8.784   8.377   8.080
76406SOL    HW131115   8.829   8.456   8.049
76406SOL    HW231116   8.775   8.390   8.174
76407SOL     OW31117  12.155   6.994   7.637
76407SOL    HW131118  12.249   6.995   7.618
76407SOL    HW231119  12.133   7.084   7.661
76408SOL     OW31120  12.165   6.897  11.914
76408SOL    HW131121  12.120   6.908  11.831
76408SOL    HW231122  12.153   6.804  11.936
76409SOL     OW31123   2.957  10.320   9.928
76409SOL    HW131124   3.007  10.367   9.995
76409SOL    HW231125   2.881  10.376   9.911
76410SOL     OW31126  13.963   2.467  11.574
76410SOL    HW131127  13.966   2.547  11.627
76410SOL    HW231128  13.896   2.484  11.508
76411SOL     OW31129   3.053  11.602  10.566
76411SOL    HW131130   2.960  11.583  10.563
76411SOL    HW231131   3.095  11.517  10.554
76412SOL     OW31132   7.410   2.194  14.368
76412SOL    HW131133   7.365   2.269  14.407
76412SOL    HW231134   7.349   2.161  14.301
76413SOL     OW31135   7.657   4.918   8.989
76413SOL    HW131136   7.729   4.973   8.957
76413SOL    HW231137   7.692   4.829   8.985
76414SOL     OW31138   8.698  14.265   4.966
76414SOL    HW131139   8.757  14.194   4.941
76414SOL    HW231140   8.752  14.344   4.960
76415SOL     OW31141  11.606   2.383   2.417
76415SOL    HW131142  11.670   2.393   2.488
76415SOL    HW231143  11.552   2.309   2.445
76416SOL     OW31144   6.601   5.884   8.275
76416SOL    HW131145   6.542   5.959   8.272
76416SOL    HW231146   6.623   5.875   8.368
76417SOL     OW31147   8.699   6.845  10.745
76417SOL    HW131148   8.773   6.903  10.727
76417SOL    HW231149   8.632   6.902  10.783
76418SOL     OW31150   9.838   4.800   7.477
76418SOL    HW131151   9.779   4.798   7.402
76418SOL    HW231152   9.869   4.710   7.486
76419SOL     OW31153   9.785   1.752  14.824
76419SOL    HW131154   9.755   1.758   0.040
76419SOL    HW231155   9.729   1.686  14.784
76420SOL     OW31156   7.918  12.231   0.441
76420SOL    HW131157   7.984  12.289   0.479
76420SOL    HW231158   7.918  12.252   0.348
76421SOL     OW31159  14.421  13.338   2.453
76421SOL    HW131160  14.331  13.370   2.448
76421SOL    HW231161  14.445  13.319   2.362
76422SOL     OW31162   8.357   9.845   3.565
76422SOL    HW131163   8.381   9.764   3.520
76422SOL    HW231164   8.345   9.908   3.494
76423SOL     OW31165   5.396  13.056   2.183
76423SOL    HW131166   5.386  13.085   2.274
76423SOL    HW231167   5.424  13.134   2.135
76424SOL     OW31168   2.053  11.334  11.034
76424SOL    HW131169   1.991  11.364  10.967
76424SOL    HW231170   2.132  11.385  11.018
76425SOL     OW31171   7.035  10.379   5.551
76425SOL    HW131172   7.068  10.314   5.614
76425SOL    HW231173   6.941  10.361   5.545
76426SOL     OW31174  10.100   9.881   5.166
76426SOL    HW131175  10.100   9.863   5.073
76426SOL    HW231176  10.097   9.976   5.172
76427SOL     OW31177   7.219  13.477   0.177
76427SOL    HW131178   7.309  13.488   0.146
76427SOL    HW231179   7.186  13.402   0.128
76428SOL     OW31180   4.059   4.183   4.160
76428SOL    HW131181   4.069   4.257   4.219
76428SOL    HW231182   4.143   4.175   4.116
76429SOL     OW31183  11.959   2.247   7.282
76429SOL    HW131184  11.895   2.213   7.344
76429SOL    HW231185  11.916   2.321   7.239
76430SOL     OW31186   9.593   9.042   4.717
76430SOL    HW131187   9.656   9.067   4.650
76430SOL    HW231188   9.599   8.947   4.722
76431SOL     OW31189   5.612  12.662   0.030
76431SOL    HW131190   5.626  12.755   0.048
76431SOL    HW231191   5.526  12.644   0.068
76432SOL     OW31192   9.511   2.249  10.648
76432SOL    HW131193   9.591   2.266  10.599
76432SOL    HW231194   9.448   2.314  10.616
76433SOL     OW31195  12.446   7.229  14.464
76433SOL    HW131196  12.352   7.246  14.473
76433SOL    HW231197  12.479   7.304  14.414
76434SOL     OW31198  11.974  10.883  13.221
76434SOL    HW131199  11.895  10.830  13.238
76434SOL    HW231200  12.038  10.850  13.284
76435SOL     OW31201   2.478   0.041   4.678
76435SOL    HW131202   2.422   0.111   4.712
76435SOL    HW231203   2.470  14.846   4.743
76436SOL     OW31204  11.616   1.590   6.189
76436SOL    HW131205  11.657   1.636   6.116
76436SOL    HW231206  11.618   1.652   6.261
76437SOL     OW31207  13.718  13.526   5.463
76437SOL    HW131208  13.650  13.552   5.525
76437SOL    HW231209  13.711  13.589   5.392
76438SOL     OW31210  12.996  14.773  14.235
76438SOL    HW131211  13.065  14.752  14.172
76438SOL    HW231212  12.922  14.803  14.182
76439SOL     OW31213  14.720   7.315   7.968
76439SOL    HW131214  14.802   7.355   7.998
76439SOL    HW231215  14.665   7.310   8.047
76440SOL     OW31216  10.717   1.990  11.216
76440SOL    HW131217  10.792   1.932  11.201
76440SOL    HW231218  10.653   1.934  11.262
76441SOL     OW31219   7.993   0.579   4.045
76441SOL    HW131220   7.924   0.524   4.007
76441SOL    HW231221   8.006   0.544   4.133
76442SOL     OW31222  13.996  13.508  14.398
76442SOL    HW131223  14.077  13.531  14.445
76442SOL    HW231224  13.959  13.436  14.449
76443SOL     OW31225   6.637   3.892  12.100
76443SOL    HW131226   6.681   3.848  12.027
76443SOL    HW231227   6.546   3.901  12.072
76444SOL     OW31228   1.407   6.232   3.059
76444SOL    HW131229   1.462   6.291   3.008
76444SOL    HW231230   1.382   6.163   2.998
76445SOL     OW31231   0.834   5.351   0.032
76445SOL    HW131232   0.907   5.332  14.848
76445SOL    HW231233   0.775   5.276   0.020
76446SOL     OW31234   4.123  13.515   2.027
76446SOL    HW131235   4.109  13.553   2.114
76446SOL    HW231236   4.105  13.422   2.039
76447SOL     OW31237  11.619  11.900   6.406
76447SOL    HW131238  11.610  11.835   6.476
76447SOL    HW231239  11.581  11.979   6.443
76448SOL     OW31240   8.102   9.336   1.318
76448SOL    HW131241   8.192   9.350   1.348
76448SOL    HW231242   8.109   9.339   1.222
76449SOL     OW31243  12.810  11.486   4.640
76449SOL    HW131244  12.819  11.396   4.670
76449SOL    HW231245  12.846  11.485   4.551
76450SOL     OW31246   3.143  12.299   0.718
76450SOL    HW131247   3.056  12.331   0.742
76450SOL    HW231248   3.183  12.371   0.670
76451SOL     OW31249   0.665   4.667   9.797
76451SOL    HW131250   0.597   4.706   9.743
76451SOL    HW231251   0.746   4.711   9.770
76452SOL     OW31252   3.779   6.018   6.348
76452SOL    HW131253   3.720   6.081   6.307
76452SOL    HW231254   3.839   5.992   6.277
76453SOL     OW31255  12.659  11.291   3.416
76453SOL    HW131256  12.653  11.242   3.334
76453SOL    HW231257  12.718  11.364   3.397
76454SOL     OW31258   7.885   8.762  10.304
76454SOL    HW131259   7.892   8.835  10.365
76454SOL    HW231260   7.966   8.765  10.253
76455SOL     OW31261  14.209   3.179   6.756
76455SOL    HW131262  14.295   3.158   6.720
76455SOL    HW231263  14.162   3.221   6.683
76456SOL     OW31264  13.482   0.160   2.592
76456SOL    HW131265  13.445   0.080   2.555
76456SOL    HW231266  13.437   0.171   2.676
76457SOL     OW31267   8.710  11.103   3.126
76457SOL    HW131268   8.729  11.023   3.175
76457SOL    HW231269   8.689  11.167   3.194
76458SOL     OW31270  13.854   0.600   4.955
76458SOL    HW131271  13.860   0.561   4.868
76458SOL    HW231272  13.937   0.647   4.966
76459SOL     OW31273   7.484  14.515   6.320
76459SOL    HW131274   7.475  14.452   6.391
76459SOL    HW231275   7.574  14.503   6.288
76460SOL     OW31276  13.254   9.065   9.552
76460SOL    HW131277  13.176   9.118   9.542
76460SOL    HW231278  13.289   9.056   9.463
76461SOL     OW31279   3.205   2.203  11.866
76461SOL    HW131280   3.291   2.184  11.903
76461SOL    HW231281   3.223   2.226  11.774
76462SOL     OW31282   7.176  12.256  10.873
76462SOL    HW131283   7.249  12.193  10.879
76462SOL    HW231284   7.184  12.293  10.785
76463SOL     OW31285   2.947   2.146  13.178
76463SOL    HW131286   2.966   2.072  13.121
76463SOL    HW231287   2.904   2.210  13.121
76464SOL     OW31288  13.555   8.647   4.613
76464SOL    HW131289  13.544   8.741   4.597
76464SOL    HW231290  13.513   8.605   4.538
76465SOL     OW31291   4.278   3.473   4.566
76465SOL    HW131292   4.361   3.509   4.536
76465SOL    HW231293   4.212   3.530   4.525
76466SOL     OW31294  13.977   3.098  11.875
76466SOL    HW131295  13.916   3.058  11.814
76466SOL    HW231296  14.060   3.101  11.828
76467SOL     OW31297  14.735  14.640   0.780
76467SOL    HW131298  14.728  14.719   0.726
76467SOL    HW231299  14.731  14.568   0.717
76468SOL     OW31300   8.240  11.594  13.192
76468SOL    HW131301   8.300  11.644  13.248
76468SOL    HW231302   8.206  11.659  13.131
76469SOL     OW31303  12.898   6.653   1.012
76469SOL    HW131304  12.819   6.694   1.048
76469SOL    HW231305  12.868   6.570   0.976
76470SOL     OW31306   6.988  10.956  14.119
76470SOL    HW131307   6.902  10.923  14.097
76470SOL    HW231308   6.975  11.050  14.134
76471SOL     OW31309   9.487  14.108   3.024
76471SOL    HW131310   9.511  14.200   3.014
76471SOL    HW231311   9.398  14.102   2.990
76472SOL     OW31312   2.964   0.591   1.853
76472SOL    HW131313   2.926   0.565   1.769
76472SOL    HW231314   2.948   0.516   1.911
76473SOL     OW31315   7.941  11.116   8.782
76473SOL    HW131316   7.964  11.153   8.868
76473SOL    HW231317   7.866  11.168   8.753
76474SOL     OW31318  10.920   7.274   3.259
76474SOL    HW131319  10.914   7.285   3.354
76474SOL    HW231320  10.957   7.186   3.248
76475SOL     OW31321   6.760   3.112   7.696
76475SOL    HW131322   6.811   3.103   7.777
76475SOL    HW231323   6.790   3.195   7.658
76476SOL     OW31324  14.383  10.288   4.126
76476SOL    HW131325  14.379  10.327   4.213
76476SOL    HW231326  14.313  10.223   4.126
76477SOL     OW31327   5.879   4.244   9.136
76477SOL    HW131328   5.837   4.159   9.153
76477SOL    HW231329   5.898   4.279   9.223
76478SOL     OW31330   6.114  11.228   8.111
76478SOL    HW131331   6.110  11.305   8.168
76478SOL    HW231332   6.050  11.167   8.149
76479SOL     OW31333   8.729  10.301   5.236
76479SOL    HW131334   8.699  10.218   5.199
76479SOL    HW231335   8.799  10.329   5.177
76480SOL     OW31336  11.842   0.628   1.310
76480SOL    HW131337  11.889   0.550   1.339
76480SOL    HW231338  11.757   0.597   1.282
76481SOL     OW31339   3.562  11.351   9.156
76481SOL    HW131340   3.494  11.357   9.222
76481SOL    HW231341   3.522  11.302   9.084
76482SOL     OW31342   8.788   3.248  12.275
76482SOL    HW131343   8.840   3.283  12.203
76482SOL    HW231344   8.770   3.323  12.331
76483SOL     OW31345   0.557  13.894  11.547
76483SOL    HW131346   0.645  13.887  11.509
76483SOL    HW231347   0.572  13.892  11.642
76484SOL     OW31348  14.503   5.457  12.004
76484SOL    HW131349  14.418   5.446  11.962
76484SOL    HW231350  14.538   5.369  12.011
76485SOL     OW31351   1.834  11.340   3.715
76485SOL    HW131352   1.911  11.389   3.685
76485SOL    HW231353   1.812  11.379   3.799
76486SOL     OW31354   0.275   7.359  13.535
76486SOL    HW131355   0.252   7.266  13.544
76486SOL    HW231356   0.358   7.359  13.488
76487SOL     OW31357   7.805   6.555   7.761
76487SOL    HW131358   7.788   6.531   7.852
76487SOL    HW231359   7.745   6.500   7.711
76488SOL     OW31360  12.608  13.885  14.235
76488SOL    HW131361  12.544  13.814  14.229
76488SOL    HW231362  12.583  13.934  14.313
76489SOL     OW31363  10.256   3.827   2.896
76489SOL    HW131364  10.286   3.737   2.911
76489SOL    HW231365  10.161   3.820   2.893
76490SOL     OW31366   1.441  12.642   6.052
76490SOL    HW131367   1.495  12.642   6.131
76490SOL    HW231368   1.491  12.590   5.989
76491SOL     OW31369   0.971   3.576  14.847
76491SOL    HW131370   0.973   3.671  14.835
76491SOL    HW231371   1.063   3.552  14.862
76492SOL     OW31372  14.439   7.863   7.809
76492SOL    HW131373  14.458   7.921   7.883
76492SOL    HW231374  14.395   7.919   7.745
76493SOL     OW31375   5.341   6.564   5.447
76493SOL    HW131376   5.346   6.477   5.408
76493SOL    HW231377   5.425   6.605   5.425
76494SOL     OW31378  11.624   5.128  12.344
76494SOL    HW131379  11.544   5.077  12.334
76494SOL    HW231380  11.595   5.209  12.387
76495SOL     OW31381   9.064   1.708  14.815
76495SOL    HW131382   9.143   1.667  14.779
76495SOL    HW231383   9.092   1.797  14.837
76496SOL     OW31384   1.015   3.679   7.056
76496SOL    HW131385   1.007   3.598   7.005
76496SOL    HW231386   0.926   3.698   7.085
76497SOL     OW31387   4.001   2.702  14.547
76497SOL    HW131388   3.918   2.732  14.584
76497SOL    HW231389   4.059   2.779  14.553
76498SOL     OW31390  11.072   1.319   8.335
76498SOL    HW131391  10.990   1.365   8.316
76498SOL    HW231392  11.137   1.389   8.341
76499SOL     OW31393   9.400   1.992   1.869
76499SOL    HW131394   9.446   2.068   1.834
76499SOL    HW231395   9.322   1.984   1.815
76500SOL     OW31396   9.692   1.852  11.035
76500SOL    HW131397   9.755   1.819  10.971
76500SOL    HW231398   9.696   1.789  11.107
76501SOL     OW31399   6.421  11.662   2.716
76501SOL    HW131400   6.352  11.596   2.718
76501SOL    HW231401   6.374  11.746   2.720
76502SOL     OW31402   6.430   1.442  13.365
76502SOL    HW131403   6.442   1.463  13.458
76502SOL    HW231404   6.358   1.379  13.364
76503SOL     OW31405   6.887  12.596   2.574
76503SOL    HW131406   6.879  12.575   2.481
76503SOL    HW231407   6.981  12.599   2.590
76504SOL     OW31408  14.845   2.625  10.471
76504SOL    HW131409  14.850   2.646  10.378
76504SOL    HW231410  14.758   2.653  10.498
76505SOL     OW31411  12.713   9.189   1.386
76505SOL    HW131412  12.723   9.240   1.466
76505SOL    HW231413  12.631   9.221   1.347
76506SOL     OW31414  12.793   7.143   2.339
76506SOL    HW131415  12.811   7.236   2.344
76506SOL    HW231416  12.697   7.138   2.330
76507SOL     OW31417  14.343  10.762   0.414
76507SOL    HW131418  14.322  10.845   0.456
76507SOL    HW231419  14.413  10.784   0.352
76508SOL     OW31420   7.076   7.423  10.718
76508SOL    HW131421   7.070   7.453  10.809
76508SOL    HW231422   7.073   7.328  10.724
76509SOL     OW31423  10.403   6.765   4.211
76509SOL    HW131424  10.472   6.775   4.276
76509SOL    HW231425  10.446   6.721   4.137
76510SOL     OW31426   7.228  14.230   6.310
76510SOL    HW131427   7.292  14.188   6.368
76510SOL    HW231428   7.277  14.250   6.231
76511SOL     OW31429  12.412   9.124  11.115
76511SOL    HW131430  12.381   9.063  11.048
76511SOL    HW231431  12.475   9.180  11.070
76512SOL     OW31432   4.497   7.933  11.002
76512SOL    HW131433   4.539   7.996  11.060
76512SOL    HW231434   4.455   7.987  10.934
76513SOL     OW31435   4.434   2.137  10.258
76513SOL    HW131436   4.340   2.121  10.244
76513SOL    HW231437   4.458   2.076  10.327
76514SOL     OW31438   7.341   1.304   4.211
76514SOL    HW131439   7.420   1.252   4.195
76514SOL    HW231440   7.339   1.367   4.139
76515SOL     OW31441   1.930   3.610  12.258
76515SOL    HW131442   1.894   3.653  12.335
76515SOL    HW231443   2.014   3.575  12.287
76516SOL     OW31444   8.587  14.563   5.811
76516SOL    HW131445   8.617  14.611   5.888
76516SOL    HW231446   8.652  14.582   5.744
76517SOL     OW31447   3.419  11.765  13.128
76517SOL    HW131448   3.466  11.847  13.145
76517SOL    HW231449   3.464  11.701  13.183
76518SOL     OW31450   0.996   3.027   2.722
76518SOL    HW131451   0.906   3.002   2.746
76518SOL    HW231452   1.051   2.958   2.760
76519SOL     OW31453   0.644   4.277   3.829
76519SOL    HW131454   0.666   4.368   3.805
76519SOL    HW231455   0.551   4.279   3.849
76520SOL     OW31456   5.363   1.947  10.999
76520SOL    HW131457   5.289   2.008  10.998
76520SOL    HW231458   5.368   1.918  11.090
76521SOL     OW31459   2.978   1.139   0.642
76521SOL    HW131460   3.052   1.088   0.673
76521SOL    HW231461   3.017   1.218   0.605
76522SOL     OW31462   3.841   0.436  13.758
76522SOL    HW131463   3.924   0.444  13.711
76522SOL    HW231464   3.792   0.515  13.734
76523SOL     OW31465  14.660  13.501   3.106
76523SOL    HW131466  14.740  13.453   3.129
76523SOL    HW231467  14.658  13.574   3.168
76524SOL     OW31468  14.659   7.186   7.350
76524SOL    HW131469  14.626   7.252   7.288
76524SOL    HW231470  14.680   7.110   7.295
76525SOL     OW31471   5.184  11.652   8.101
76525SOL    HW131472   5.139  11.592   8.041
76525SOL    HW231473   5.158  11.739   8.072
76526SOL     OW31474   0.841   7.693   3.759
76526SOL    HW131475   0.840   7.606   3.798
76526SOL    HW231476   0.931   7.725   3.773
76527SOL     OW31477   9.663  11.175  12.959
76527SOL    HW131478   9.685  11.252  13.012
76527SOL    HW231479   9.688  11.100  13.014
76528SOL     OW31480  11.731   8.732   0.656
76528SOL    HW131481  11.759   8.715   0.745
76528SOL    HW231482  11.812   8.741   0.606
76529SOL     OW31483   5.074  14.653  12.350
76529SOL    HW131484   4.986  14.682  12.376
76529SOL    HW231485   5.133  14.709  12.400
76530SOL     OW31486   3.545   4.191  12.498
76530SOL    HW131487   3.569   4.237  12.579
76530SOL    HW231488   3.585   4.104  12.508
76531SOL     OW31489   9.346  11.718  12.442
76531SOL    HW131490   9.367  11.738  12.351
76531SOL    HW231491   9.419  11.664  12.473
76532SOL     OW31492  14.385  10.993   0.924
76532SOL    HW131493  14.359  11.063   0.982
76532SOL    HW231494  14.304  10.965   0.881
76533SOL     OW31495   6.794   3.099   7.299
76533SOL    HW131496   6.828   3.157   7.367
76533SOL    HW231497   6.770   3.158   7.228
76534SOL     OW31498  13.731   8.431   4.684
76534SOL    HW131499  13.744   8.443   4.778
76534SOL    HW231500  13.653   8.483   4.664
76535SOL     OW31501  13.034  13.276   3.621
76535SOL    HW131502  13.103  13.209   3.616
76535SOL    HW231503  12.958  13.229   3.654
76536SOL     OW31504  10.226  10.195   4.202
76536SOL    HW131505  10.162  10.233   4.143
76536SOL    HW231506  10.299  10.256   4.201
76537SOL     OW31507   1.733   9.934  11.535
76537SOL    HW131508   1.721   9.852  11.583
76537SOL    HW231509   1.690   9.919  11.451
76538SOL     OW31510   5.331  14.570   4.083
76538SOL    HW131511   5.338  14.491   4.137
76538SOL    HW231512   5.381  14.549   4.004
76539SOL     OW31513   0.654  13.682  12.029
76539SOL    HW131514   0.687  13.695  12.117
76539SOL    HW231515   0.574  13.735  12.025
76540SOL     OW31516  11.022  14.637   1.688
76540SOL    HW131517  11.066  14.719   1.711
76540SOL    HW231518  10.934  14.646   1.723
76541SOL     OW31519  11.055   3.757   0.847
76541SOL    HW131520  11.022   3.847   0.844
76541SOL    HW231521  11.143   3.763   0.811
76542SOL     OW31522  11.851  10.286   3.020
76542SOL    HW131523  11.838  10.370   3.063
76542SOL    HW231524  11.915  10.240   3.075
76543SOL     OW31525   6.485  11.357   2.416
76543SOL    HW131526   6.460  11.375   2.325
76543SOL    HW231527   6.511  11.443   2.451
76544SOL     OW31528   6.245  14.121   7.507
76544SOL    HW131529   6.303  14.121   7.431
76544SOL    HW231530   6.272  14.198   7.557
76545SOL     OW31531   0.953   2.083   1.665
76545SOL    HW131532   0.998   2.120   1.741
76545SOL    HW231533   0.918   1.999   1.695
76546SOL     OW31534   1.952   8.662   8.256
76546SOL    HW131535   1.976   8.569   8.252
76546SOL    HW231536   1.879   8.670   8.193
76547SOL     OW31537  13.943   7.248  13.725
76547SOL    HW131538  13.900   7.257  13.639
76547SOL    HW231539  13.931   7.333  13.766
76548SOL     OW31540  13.690   2.241   2.615
76548SOL    HW131541  13.605   2.285   2.613
76548SOL    HW231542  13.745   2.297   2.671
76549SOL     OW31543  10.701   3.212  10.884
76549SOL    HW131544  10.634   3.178  10.943
76549SOL    HW231545  10.672   3.186  10.797
76550SOL     OW31546   9.308  13.991   9.852
76550SOL    HW131547   9.385  13.991   9.795
76550SOL    HW231548   9.323  14.063   9.912
76551SOL     OW31549  12.516   5.165   5.692
76551SOL    HW131550  12.476   5.150   5.607
76551SOL    HW231551  12.442   5.186   5.750
76552SOL     OW31552   0.965  13.226   8.166
76552SOL    HW131553   1.015  13.236   8.247
76552SOL    HW231554   0.999  13.146   8.126
76553SOL     OW31555  11.859  10.582  11.194
76553SOL    HW131556  11.787  10.584  11.257
76553SOL    HW231557  11.915  10.655  11.219
76554SOL     OW31558   5.419   6.777  14.429
76554SOL    HW131559   5.392   6.808  14.343
76554SOL    HW231560   5.353   6.812  14.489
76555SOL     OW31561  10.919   4.741  11.699
76555SOL    HW131562  10.832   4.775  11.676
76555SOL    HW231563  10.920   4.741  11.794
76556SOL     OW31564  12.088   3.222  14.781
76556SOL    HW131565  12.141   3.143  14.788
76556SOL    HW231566  12.002   3.192  14.753
76557SOL     OW31567  13.886   9.897   4.560
76557SOL    HW131568  13.952   9.828   4.566
76557SOL    HW231569  13.802   9.851   4.570
76558SOL     OW31570  12.412   1.469  13.641
76558SOL    HW131571  12.324   1.447  13.670
76558SOL    HW231572  12.469   1.418  13.699
76559SOL     OW31573  12.269   6.562   5.727
76559SOL    HW131574  12.264   6.655   5.748
76559SOL    HW231575  12.221   6.519   5.797
76560SOL     OW31576   4.839   7.466  13.724
76560SOL    HW131577   4.829   7.371  13.721
76560SOL    HW231578   4.813   7.491  13.812
76561SOL     OW31579   3.373   8.039   9.769
76561SOL    HW131580   3.313   7.990   9.713
76561SOL    HW231581   3.373   8.128   9.734
76562SOL     OW31582   5.311   8.252   5.997
76562SOL    HW131583   5.266   8.260   6.081
76562SOL    HW231584   5.315   8.158   5.980
76563SOL     OW31585   0.268   9.186   2.712
76563SOL    HW131586   0.270   9.128   2.637
76563SOL    HW231587   0.259   9.274   2.674
76564SOL     OW31588   6.146  12.346   2.786
76564SOL    HW131589   6.132  12.311   2.698
76564SOL    HW231590   6.095  12.427   2.788
76565SOL     OW31591   3.728   4.290   6.080
76565SOL    HW131592   3.741   4.363   6.140
76565SOL    HW231593   3.637   4.297   6.053
76566SOL     OW31594  13.904   3.571   1.679
76566SOL    HW131595  13.990   3.581   1.718
76566SOL    HW231596  13.905   3.483   1.642
76567SOL     OW31597   3.681   1.421   1.765
76567SOL    HW131598   3.771   1.395   1.748
76567SOL    HW231599   3.636   1.340   1.788
76568SOL     OW31600   2.243   8.692   7.683
76568SOL    HW131601   2.190   8.771   7.678
76568SOL    HW231602   2.186   8.622   7.651
76569SOL     OW31603  11.260   5.931  14.504
76569SOL    HW131604  11.309   5.849  14.498
76569SOL    HW231605  11.322   5.997  14.473
76570SOL     OW31606   4.043  11.856  10.167
76570SOL    HW131607   4.010  11.845  10.256
76570SOL    HW231608   4.135  11.879  10.178
76571SOL     OW31609  11.662   2.514  13.478
76571SOL    HW131610  11.623   2.432  13.508
76571SOL    HW231611  11.589   2.564  13.441
76572SOL     OW31612   9.358  10.545   3.894
76572SOL    HW131613   9.355  10.544   3.990
76572SOL    HW231614   9.348  10.453   3.869
76573SOL     OW31615   5.771   3.622   9.714
76573SOL    HW131616   5.839   3.659   9.657
76573SOL    HW231617   5.766   3.530   9.689
76574SOL     OW31618   7.458   4.347   8.181
76574SOL    HW131619   7.468   4.418   8.118
76574SOL    HW231620   7.483   4.386   8.265
76575SOL     OW31621   7.696   3.298  11.582
76575SOL    HW131622   7.699   3.269  11.492
76575SOL    HW231623   7.734   3.226  11.632
76576SOL     OW31624   4.542   8.675  14.399
76576SOL    HW131625   4.510   8.709  14.316
76576SOL    HW231626   4.503   8.733  14.465
76577SOL     OW31627   5.640   9.787  12.310
76577SOL    HW131628   5.644   9.765  12.403
76577SOL    HW231629   5.564   9.845  12.302
76578SOL     OW31630   5.455   6.065  13.016
76578SOL    HW131631   5.517   6.129  12.980
76578SOL    HW231632   5.369   6.098  12.988
76579SOL     OW31633   9.209   9.093   1.450
76579SOL    HW131634   9.228   9.118   1.360
76579SOL    HW231635   9.217   9.175   1.499
76580SOL     OW31636   3.182   0.460   2.575
76580SOL    HW131637   3.106   0.454   2.517
76580SOL    HW231638   3.253   0.491   2.518
76581SOL     OW31639   9.001   0.117  13.975
76581SOL    HW131640   8.980   0.125  14.068
76581SOL    HW231641   8.964   0.032  13.950
76582SOL     OW31642   6.189   7.006   0.864
76582SOL    HW131643   6.254   6.998   0.794
76582SOL    HW231644   6.135   7.081   0.838
76583SOL     OW31645  12.473  13.604   3.983
76583SOL    HW131646  12.402  13.667   3.998
76583SOL    HW231647  12.535  13.651   3.927
76584SOL     OW31648   1.665  13.678   3.463
76584SOL    HW131649   1.595  13.645   3.406
76584SOL    HW231650   1.619  13.723   3.534
76585SOL     OW31651  12.887  14.696  10.637
76585SOL    HW131652  12.974  14.683  10.599
76585SOL    HW231653  12.900  14.760  10.707
76586SOL     OW31654   5.233  10.488   9.991
76586SOL    HW131655   5.238  10.393   9.995
76586SOL    HW231656   5.187  10.514  10.070
76587SOL     OW31657   0.293   2.949   5.222
76587SOL    HW131658   0.250   2.986   5.299
76587SOL    HW231659   0.236   2.877   5.195
76588SOL     OW31660  12.941   1.019   5.739
76588SOL    HW131661  12.980   1.074   5.670
76588SOL    HW231662  12.938   1.076   5.816
76589SOL     OW31663  12.533   1.962  14.545
76589SOL    HW131664  12.567   2.036  14.493
76589SOL    HW231665  12.563   1.884  14.498
76590SOL     OW31666  12.969   1.769  11.250
76590SOL    HW131667  12.988   1.862  11.262
76590SOL    HW231668  12.954   1.760  11.156
76591SOL     OW31669   6.267   9.542   2.395
76591SOL    HW131670   6.292   9.589   2.316
76591SOL    HW231671   6.350   9.523   2.439
76592SOL     OW31672   1.768   1.421   3.820
76592SOL    HW131673   1.753   1.393   3.911
76592SOL    HW231674   1.853   1.464   3.822
76593SOL     OW31675   2.348  13.617   1.501
76593SOL    HW131676   2.299  13.561   1.441
76593SOL    HW231677   2.283  13.681   1.532
76594SOL     OW31678   9.227  10.712  11.188
76594SOL    HW131679   9.217  10.633  11.241
76594SOL    HW231680   9.322  10.728  11.186
76595SOL     OW31681   9.841   6.062   1.265
76595SOL    HW131682   9.925   6.095   1.235
76595SOL    HW231683   9.847   5.967   1.255
76596SOL     OW31684  13.568  10.778   1.053
76596SOL    HW131685  13.623  10.772   0.975
76596SOL    HW231686  13.608  10.718   1.115
76597SOL     OW31687   8.006   5.186   7.517
76597SOL    HW131688   7.999   5.271   7.474
76597SOL    HW231689   8.048   5.129   7.453
76598SOL     OW31690   4.565   0.788  14.747
76598SOL    HW131691   4.606   0.707  14.779
76598SOL    HW231692   4.600   0.798  14.658
76599SOL     OW31693   9.068  10.305   6.249
76599SOL    HW131694   9.054  10.355   6.169
76599SOL    HW231695   8.996  10.242   6.251
76600SOL     OW31696  12.510   6.624  12.120
76600SOL    HW131697  12.447   6.611  12.192
76600SOL    HW231698  12.486   6.709  12.082
76601SOL     OW31699  14.056   1.824   6.451
76601SOL    HW131700  14.037   1.771   6.374
76601SOL    HW231701  14.151   1.821   6.460
76602SOL     OW31702   3.457  13.588  13.004
76602SOL    HW131703   3.374  13.586  13.050
76602SOL    HW231704   3.471  13.680  12.983
76603SOL     OW31705   8.078   7.608  14.507
76603SOL    HW131706   8.011   7.620  14.440
76603SOL    HW231707   8.135   7.684  14.499
76604SOL     OW31708   9.379   2.309  12.170
76604SOL    HW131709   9.295   2.353  12.179
76604SOL    HW231710   9.425   2.329  12.252
76605SOL     OW31711   7.314  13.748   8.001
76605SOL    HW131712   7.314  13.809   7.927
76605SOL    HW231713   7.261  13.791   8.068
76606SOL     OW31714   5.705   7.200   3.116
76606SOL    HW131715   5.683   7.207   3.023
76606SOL    HW231716   5.793   7.161   3.117
76607SOL     OW31717   8.921  10.036  13.934
76607SOL    HW131718   8.854  10.048  14.002
76607SOL    HW231719   8.975  10.115  13.940
76608SOL     OW31720   0.941  11.033  11.397
76608SOL    HW131721   0.962  10.949  11.356
76608SOL    HW231722   0.953  11.017  11.491
76609SOL     OW31723  13.214   6.087   7.749
76609SOL    HW131724  13.189   6.173   7.714
76609SOL    HW231725  13.309   6.084   7.738
76610SOL     OW31726   7.637   4.302  12.837
76610SOL    HW131727   7.715   4.292  12.781
76610SOL    HW231728   7.569   4.252  12.791
76611SOL     OW31729   5.516   2.099  12.008
76611SOL    HW131730   5.562   2.015  11.999
76611SOL    HW231731   5.493   2.103  12.101
76612SOL     OW31732   4.166   5.412   1.892
76612SOL    HW131733   4.171   5.443   1.802
76612SOL    HW231734   4.157   5.491   1.945
76613SOL     OW31735   8.707   9.805   2.194
76613SOL    HW131736   8.793   9.845   2.202
76613SOL    HW231737   8.650   9.860   2.249
76614SOL     OW31738  10.678   1.039   6.692
76614SOL    HW131739  10.696   0.989   6.771
76614SOL    HW231740  10.653   1.126   6.724
76615SOL     OW31741  13.652   7.755   8.808
76615SOL    HW131742  13.713   7.818   8.848
76615SOL    HW231743  13.584   7.810   8.768
76616SOL     OW31744  13.996   7.580   5.833
76616SOL    HW131745  13.953   7.662   5.858
76616SOL    HW231746  13.935   7.512   5.862
76617SOL     OW31747   3.533   8.356   3.813
76617SOL    HW131748   3.478   8.432   3.831
76617SOL    HW231749   3.605   8.390   3.761
76618SOL     OW31750   0.065   1.833   1.258
76618SOL    HW131751   0.145   1.872   1.221
76618SOL    HW231752   0.057   1.875   1.344
76619SOL     OW31753  12.173   3.456  14.675
76619SOL    HW131754  12.098   3.510  14.702
76619SOL    HW231755  12.158   3.371  14.717
76620SOL     OW31756   3.469  11.219   3.852
76620SOL    HW131757   3.456  11.142   3.909
76620SOL    HW231758   3.508  11.285   3.910
76621SOL     OW31759   9.799   7.177   1.266
76621SOL    HW131760   9.819   7.230   1.343
76621SOL    HW231761   9.884   7.150   1.232
76622SOL     OW31762   2.883   5.845  10.212
76622SOL    HW131763   2.822   5.888  10.272
76622SOL    HW231764   2.962   5.832  10.265
76623SOL     OW31765  11.905   6.310   8.156
76623SOL    HW131766  11.814   6.335   8.138
76623SOL    HW231767  11.901   6.264   8.239
76624SOL     OW31768   1.048   6.263  12.108
76624SOL    HW131769   1.050   6.204  12.183
76624SOL    HW231770   1.053   6.351  12.147
76625SOL     OW31771   2.190   8.779  12.057
76625SOL    HW131772   2.151   8.715  12.117
76625SOL    HW231773   2.140   8.859  12.072
76626SOL     OW31774   9.544  14.198   5.602
76626SOL    HW131775   9.492  14.259   5.654
76626SOL    HW231776   9.493  14.117   5.602
76627SOL     OW31777   8.145   7.371   8.772
76627SOL    HW131778   8.060   7.363   8.815
76627SOL    HW231779   8.203   7.313   8.821
76628SOL     OW31780   7.999  11.243  11.642
76628SOL    HW131781   7.954  11.298  11.705
76628SOL    HW231782   7.970  11.274  11.557
76629SOL     OW31783   2.781   7.252  12.171
76629SOL    HW131784   2.807   7.339  12.140
76629SOL    HW231785   2.733   7.269  12.252
76630SOL     OW31786  12.423   3.603   2.974
76630SOL    HW131787  12.491   3.657   3.013
76630SOL    HW231788  12.444   3.513   3.001
76631SOL     OW31789  14.468   5.113  14.550
76631SOL    HW131790  14.425   5.050  14.492
76631SOL    HW231791  14.519   5.058  14.610
76632SOL     OW31792   9.373   7.459   6.565
76632SOL    HW131793   9.393   7.522   6.495
76632SOL    HW231794   9.317   7.508   6.625
76633SOL     OW31795   6.727   5.127   8.941
76633SOL    HW131796   6.743   5.051   8.885
76633SOL    HW231797   6.810   5.143   8.985
76634SOL     OW31798   5.611   0.519  10.108
76634SOL    HW131799   5.569   0.443  10.149
76634SOL    HW231800   5.703   0.511  10.131
76635SOL     OW31801  12.577   2.876   6.704
76635SOL    HW131802  12.497   2.824   6.692
76635SOL    HW231803  12.547   2.961   6.734
76636SOL     OW31804   6.198   4.033   4.195
76636SOL    HW131805   6.188   3.963   4.259
76636SOL    HW231806   6.280   4.012   4.150
76637SOL     OW31807  14.211   1.507   3.081
76637SOL    HW131808  14.177   1.565   3.013
76637SOL    HW231809  14.204   1.419   3.045
76638SOL     OW31810   1.957   5.512   2.331
76638SOL    HW131811   1.956   5.519   2.427
76638SOL    HW231812   2.046   5.483   2.310
76639SOL     OW31813   8.467  10.056   4.629
76639SOL    HW131814   8.508  10.123   4.683
76639SOL    HW231815   8.492   9.973   4.669
76640SOL     OW31816   2.184   9.624   0.962
76640SOL    HW131817   2.260   9.586   0.918
76640SOL    HW231818   2.120   9.553   0.966
76641SOL     OW31819   7.505   1.018   8.886
76641SOL    HW131820   7.415   0.986   8.894
76641SOL    HW231821   7.545   0.962   8.820
76642SOL     OW31822  11.014   2.778  14.827
76642SOL    HW131823  11.010   2.752  14.735
76642SOL    HW231824  11.000   2.873  14.825
76643SOL     OW31825  12.745   6.157  12.322
76643SOL    HW131826  12.772   6.164  12.413
76643SOL    HW231827  12.816   6.109  12.279
76644SOL     OW31828   8.509   0.416   2.003
76644SOL    HW131829   8.592   0.384   1.968
76644SOL    HW231830   8.515   0.401   2.097
76645SOL     OW31831  11.725   0.340  10.265
76645SOL    HW131832  11.742   0.387  10.182
76645SOL    HW231833  11.648   0.287  10.246
76646SOL     OW31834   6.175   8.228  11.197
76646SOL    HW131835   6.147   8.314  11.226
76646SOL    HW231836   6.239   8.200  11.262
76647SOL     OW31837   4.249   7.363   9.283
76647SOL    HW131838   4.176   7.422   9.299
76647SOL    HW231839   4.280   7.387   9.196
76648SOL     OW31840   0.541   0.036   0.538
76648SOL    HW131841   0.613   0.067   0.484
76648SOL    HW231842   0.463   0.074   0.497
76649SOL     OW31843   3.890  12.203  10.986
76649SOL    HW131844   3.859  12.143  10.918
76649SOL    HW231845   3.963  12.250  10.946
76650SOL     OW31846   0.119   2.845  12.392
76650SOL    HW131847   0.092   2.890  12.473
76650SOL    HW231848   0.212   2.829  12.404
76651SOL     OW31849  11.247  11.681   5.943
76651SOL    HW131850  11.172  11.731   5.909
76651SOL    HW231851  11.299  11.746   5.990
76652SOL     OW31852   9.607   3.160   2.118
76652SOL    HW131853   9.584   3.205   2.199
76652SOL    HW231854   9.672   3.095   2.145
76653SOL     OW31855   3.826   3.962   0.504
76653SOL    HW131856   3.757   4.003   0.556
76653SOL    HW231857   3.884   4.035   0.480
76654SOL     OW31858   7.916   1.657   6.497
76654SOL    HW131859   7.829   1.665   6.458
76654SOL    HW231860   7.913   1.574   6.545
76655SOL     OW31861   0.768   2.481  14.538
76655SOL    HW131862   0.781   2.549  14.604
76655SOL    HW231863   0.723   2.526  14.466
76656SOL     OW31864   4.083   2.641   9.630
76656SOL    HW131865   4.139   2.608   9.559
76656SOL    HW231866   4.008   2.681   9.584
76657SOL     OW31867   8.834   3.482  11.122
76657SOL    HW131868   8.775   3.464  11.196
76657SOL    HW231869   8.779   3.530  11.060
76658SOL     OW31870   9.259   6.926   6.314
76658SOL    HW131871   9.194   6.993   6.294
76658SOL    HW231872   9.285   6.891   6.229
76659SOL     OW31873  12.077  13.847  11.540
76659SOL    HW131874  12.105  13.760  11.567
76659SOL    HW231875  12.073  13.897  11.621
76660SOL     OW31876  13.346   8.198   7.140
76660SOL    HW131877  13.320   8.269   7.080
76660SOL    HW231878  13.285   8.205   7.213
76661SOL     OW31879   4.412   6.659   0.240
76661SOL    HW131880   4.465   6.580   0.247
76661SOL    HW231881   4.467   6.722   0.194
76662SOL     OW31882  10.701   9.636   3.779
76662SOL    HW131883  10.620   9.673   3.744
76662SOL    HW231884  10.708   9.673   3.868
76663SOL     OW31885  10.964  10.909  11.261
76663SOL    HW131886  11.013  10.827  11.257
76663SOL    HW231887  10.974  10.947  11.174
76664SOL     OW31888   7.806   0.284   8.571
76664SOL    HW131889   7.869   0.347   8.605
76664SOL    HW231890   7.765   0.246   8.648
76665SOL     OW31891  11.291   8.174  10.411
76665SOL    HW131892  11.229   8.101  10.413
76665SOL    HW231893  11.334   8.167  10.326
76666SOL     OW31894   6.440   4.040   3.327
76666SOL    HW131895   6.495   4.040   3.405
76666SOL    HW231896   6.429   4.132   3.304
76667SOL     OW31897  12.912   2.379   7.246
76667SOL    HW131898  12.849   2.365   7.174
76667SOL    HW231899  12.986   2.422   7.204
76668SOL     OW31900  14.163   9.790   8.060
76668SOL    HW131901  14.225   9.739   8.114
76668SOL    HW231902  14.216   9.821   7.987
76669SOL     OW31903   8.059   4.446  13.015
76669SOL    HW131904   8.062   4.469  12.922
76669SOL    HW231905   8.144   4.406  13.033
76670SOL     OW31906   9.191  14.181   5.451
76670SOL    HW131907   9.219  14.178   5.359
76670SOL    HW231908   9.249  14.120   5.496
76671SOL     OW31909   5.340  10.709   1.116
76671SOL    HW131910   5.367  10.622   1.144
76671SOL    HW231911   5.398  10.769   1.163
76672SOL     OW31912   4.918  14.606   7.769
76672SOL    HW131913   4.952  14.524   7.731
76672SOL    HW231914   4.965  14.675   7.722
76673SOL     OW31915   4.008   5.525  12.633
76673SOL    HW131916   3.966   5.470  12.699
76673SOL    HW231917   4.013   5.611  12.674
76674SOL     OW31918   5.594   6.514   6.300
76674SOL    HW131919   5.570   6.601   6.268
76674SOL    HW231920   5.514   6.479   6.338
76675SOL     OW31921   7.079   2.077  10.233
76675SOL    HW131922   7.135   2.127  10.174
76675SOL    HW231923   7.017   2.032  10.175
76676SOL     OW31924   4.435  11.814  14.354
76676SOL    HW131925   4.463  11.739  14.301
76676SOL    HW231926   4.486  11.888  14.320
76677SOL     OW31927   2.941   8.463   2.635
76677SOL    HW131928   2.979   8.519   2.702
76677SOL    HW231929   2.853   8.498   2.621
76678SOL     OW31930   4.212   9.375   8.012
76678SOL    HW131931   4.200   9.328   8.094
76678SOL    HW231932   4.133   9.428   8.003
76679SOL     OW31933  11.581   5.818   7.355
76679SOL    HW131934  11.616   5.820   7.444
76679SOL    HW231935  11.655   5.794   7.300
76680SOL     OW31936   0.475   2.131   4.624
76680SOL    HW131937   0.561   2.163   4.598
76680SOL    HW231938   0.424   2.210   4.642
76681SOL     OW31939  14.668   4.016   7.732
76681SOL    HW131940  14.690   3.971   7.813
76681SOL    HW231941  14.710   4.101   7.740
76682SOL     OW31942   8.994   2.248   2.175
76682SOL    HW131943   8.935   2.280   2.106
76682SOL    HW231944   8.936   2.210   2.240
76683SOL     OW31945   3.750   5.518   4.056
76683SOL    HW131946   3.768   5.515   3.962
76683SOL    HW231947   3.752   5.426   4.084
76684SOL     OW31948  12.998  10.863   2.977
76684SOL    HW131949  13.024  10.864   3.070
76684SOL    HW231950  12.915  10.910   2.976
76685SOL     OW31951   1.285  11.764   0.878
76685SOL    HW131952   1.296  11.856   0.854
76685SOL    HW231953   1.191  11.749   0.869
76686SOL     OW31954   7.829   1.014   8.409
76686SOL    HW131955   7.917   1.037   8.382
76686SOL    HW231956   7.840   0.972   8.495
76687SOL     OW31957  10.477  14.017  13.632
76687SOL    HW131958  10.507  14.099  13.593
76687SOL    HW231959  10.431  14.044  13.712
76688SOL     OW31960   1.727   8.470  13.344
76688SOL    HW131961   1.692   8.459  13.432
76688SOL    HW231962   1.693   8.555  13.314
76689SOL     OW31963  12.594   2.863   1.300
76689SOL    HW131964  12.525   2.812   1.256
76689SOL    HW231965  12.547   2.915   1.365
76690SOL     OW31966   7.743   3.614   7.814
76690SOL    HW131967   7.812   3.679   7.801
76690SOL    HW231968   7.668   3.665   7.845
76691SOL     OW31969  10.457   5.683   8.250
76691SOL    HW131970  10.475   5.777   8.258
76691SOL    HW231971  10.362   5.678   8.242
76692SOL     OW31972   9.750  14.350  11.382
76692SOL    HW131973   9.782  14.377  11.296
76692SOL    HW231974   9.695  14.273  11.364
76693SOL     OW31975   3.648  14.287  14.022
76693SOL    HW131976   3.684  14.198  14.016
76693SOL    HW231977   3.686  14.323  14.102
76694SOL     OW31978  13.634   9.513   9.529
76694SOL    HW131979  13.595   9.483   9.447
76694SOL    HW231980  13.609   9.447   9.594
76695SOL     OW31981   6.772  13.119   4.275
76695SOL    HW131982   6.831  13.186   4.241
76695SOL    HW231983   6.756  13.061   4.201
76696SOL     OW31984   4.851   9.390   7.218
76696SOL    HW131985   4.852   9.380   7.123
76696SOL    HW231986   4.833   9.302   7.252
76697SOL     OW31987   2.198   9.298   1.210
76697SOL    HW131988   2.212   9.392   1.204
76697SOL    HW231989   2.240   9.272   1.292
76698SOL     OW31990   9.853  13.847  14.050
76698SOL    HW131991   9.789  13.790  14.008
76698SOL    HW231992   9.928  13.847  13.990
76699SOL     OW31993   6.269  13.504   0.037
76699SOL    HW131994   6.208  13.578   0.036
76699SOL    HW231995   6.238  13.446  14.843
76700SOL     OW31996  12.790   1.234   1.989
76700SOL    HW131997  12.853   1.264   2.054
76700SOL    HW231998  12.766   1.146   2.018
76701SOL     OW31999   0.835   6.617  13.654
76701SOL    HW132000   0.883   6.629  13.735
76701SOL    HW232001   0.901   6.623  13.585
76702SOL     OW32002   1.555   2.264   6.992
76702SOL    HW132003   1.563   2.259   6.897
76702SOL    HW232004   1.473   2.311   7.008
76703SOL     OW32005   0.649   9.665   6.690
76703SOL    HW132006   0.634   9.689   6.599
76703SOL    HW232007   0.722   9.720   6.718
76704SOL     OW32008   8.255   1.382   3.523
76704SOL    HW132009   8.272   1.334   3.442
76704SOL    HW232010   8.193   1.450   3.498
76705SOL     OW32011   9.255   0.977  11.096
76705SOL    HW132012   9.211   1.017  11.170
76705SOL    HW232013   9.215   0.891  11.087
76706SOL     OW32014  11.179   9.730   3.498
76706SOL    HW132015  11.092   9.691   3.511
76706SOL    HW232016  11.240   9.658   3.511
76707SOL     OW32017   4.347  14.569   7.665
76707SOL    HW132018   4.289  14.642   7.684
76707SOL    HW232019   4.347  14.562   7.569
76708SOL     OW32020   1.357   1.589  10.008
76708SOL    HW132021   1.380   1.503   9.972
76708SOL    HW232022   1.268   1.577  10.041
76709SOL     OW32023   4.815  14.065   6.542
76709SOL    HW132024   4.737  14.026   6.504
76709SOL    HW232025   4.782  14.139   6.594
76710SOL     OW32026   2.988   2.779  13.387
76710SOL    HW132027   2.986   2.801  13.480
76710SOL    HW232028   2.984   2.863  13.342
76711SOL     OW32029  10.099   5.847   0.281
76711SOL    HW132030  10.080   5.914   0.346
76711SOL    HW232031  10.190   5.862   0.257
76712SOL     OW32032  14.388   0.832  13.384
76712SOL    HW132033  14.323   0.894  13.349
76712SOL    HW232034  14.393   0.853  13.477
76713SOL     OW32035   4.014   2.608   0.963
76713SOL    HW132036   3.981   2.518   0.973
76713SOL    HW232037   3.937   2.658   0.937
76714SOL     OW32038  10.061   6.166  10.585
76714SOL    HW132039  10.007   6.130  10.655
76714SOL    HW232040  10.125   6.221  10.630
76715SOL     OW32041   8.191   3.724  13.488
76715SOL    HW132042   8.171   3.817  13.485
76715SOL    HW232043   8.161   3.691  13.403
76716SOL     OW32044  13.188  12.291   5.743
76716SOL    HW132045  13.212  12.215   5.690
76716SOL    HW232046  13.103  12.268   5.781
76717SOL     OW32047   8.591   8.015  14.854
76717SOL    HW132048   8.640   7.935  14.872
76717SOL    HW232049   8.502   7.986  14.836
76718SOL     OW32050   3.874   3.602   6.236
76718SOL    HW132051   3.825   3.683   6.247
76718SOL    HW232052   3.902   3.603   6.145
76719SOL     OW32053   9.808  14.593   9.752
76719SOL    HW132054   9.778  14.671   9.705
76719SOL    HW232055   9.900  14.583   9.726
76720SOL     OW32056   9.552   5.410   0.462
76720SOL    HW132057   9.494   5.486   0.472
76720SOL    HW232058   9.559   5.398   0.367
76721SOL     OW32059  11.751  12.964  10.860
76721SOL    HW132060  11.709  12.913  10.790
76721SOL    HW232061  11.691  12.957  10.934
76722SOL     OW32062  13.236  13.116   5.104
76722SOL    HW132063  13.170  13.050   5.082
76722SOL    HW232064  13.217  13.140   5.195
76723SOL     OW32065   4.017   8.325   2.446
76723SOL    HW132066   3.978   8.358   2.527
76723SOL    HW232067   4.051   8.403   2.402
76724SOL     OW32068  14.056   0.498   8.374
76724SOL    HW132069  14.056   0.414   8.420
76724SOL    HW232070  13.964   0.512   8.350
76725SOL     OW32071   6.093   0.932  14.309
76725SOL    HW132072   6.040   0.906  14.385
76725SOL    HW232073   6.120   1.022  14.328
76726SOL     OW32074   2.436  11.639   1.567
76726SOL    HW132075   2.341  11.644   1.554
76726SOL    HW232076   2.470  11.607   1.483
76727SOL     OW32077   7.411   4.272  14.326
76727SOL    HW132078   7.465   4.216  14.270
76727SOL    HW232079   7.418   4.359  14.289
76728SOL     OW32080   5.045   7.161   6.551
76728SOL    HW132081   4.970   7.149   6.610
76728SOL    HW232082   5.065   7.073   6.519
76729SOL     OW32083   1.483   8.195   7.339
76729SOL    HW132084   1.411   8.164   7.284
76729SOL    HW232085   1.480   8.139   7.417
76730SOL     OW32086  10.696   4.541   2.391
76730SOL    HW132087  10.744   4.616   2.426
76730SOL    HW232088  10.619   4.580   2.349
76731SOL     OW32089  10.316   5.278   3.181
76731SOL    HW132090  10.310   5.297   3.087
76731SOL    HW232091  10.229   5.245   3.205
76732SOL     OW32092   6.835   4.950   9.881
76732SOL    HW132093   6.823   4.860   9.851
76732SOL    HW232094   6.759   4.997   9.847
76733SOL     OW32095   2.937   4.587   2.059
76733SOL    HW132096   2.955   4.551   2.146
76733SOL    HW232097   2.849   4.558   2.038
76734SOL     OW32098  11.604   6.523   2.346
76734SOL    HW132099  11.544   6.449   2.356
76734SOL    HW232100  11.640   6.536   2.434
76735SOL     OW32101   4.629   3.753   4.517
76735SOL    HW132102   4.713   3.716   4.490
76735SOL    HW232103   4.602   3.700   4.593
76736SOL     OW32104  12.758   2.245   6.583
76736SOL    HW132105  12.711   2.309   6.530
76736SOL    HW232106  12.767   2.286   6.669
76737SOL     OW32107  13.766   8.944   2.597
76737SOL    HW132108  13.697   8.923   2.660
76737SOL    HW232109  13.769   8.869   2.539
76738SOL     OW32110   9.595   0.738   8.726
76738SOL    HW132111   9.523   0.797   8.748
76738SOL    HW232112   9.579   0.659   8.779
76739SOL     OW32113   8.218   2.057  10.419
76739SOL    HW132114   8.228   1.998  10.344
76739SOL    HW232115   8.255   2.140  10.389
76740SOL     OW32116   5.759   5.903   8.071
76740SOL    HW132117   5.774   5.821   8.118
76740SOL    HW232118   5.829   5.907   8.006
76741SOL     OW32119  14.868  14.775   5.394
76741SOL    HW132120  14.847  14.822   5.313
76741SOL    HW232121  14.828  14.689   5.383
76742SOL     OW32122  11.415   6.453  13.322
76742SOL    HW132123  11.439   6.455  13.229
76742SOL    HW232124  11.389   6.543  13.341
76743SOL     OW32125   8.833   8.494   1.498
76743SOL    HW132126   8.814   8.579   1.458
76743SOL    HW232127   8.784   8.494   1.580
76744SOL     OW32128   1.217  12.282  12.955
76744SOL    HW132129   1.159  12.221  13.000
76744SOL    HW232130   1.164  12.361  12.944
76745SOL     OW32131   5.193  11.377  12.546
76745SOL    HW132132   5.282  11.349  12.526
76745SOL    HW232133   5.190  11.382  12.642
76746SOL     OW32134  10.205   4.033   0.382
76746SOL    HW132135  10.266   4.102   0.410
76746SOL    HW232136  10.120   4.077   0.379
76747SOL     OW32137   4.345  13.305   5.895
76747SOL    HW132138   4.408  13.234   5.880
76747SOL    HW232139   4.288  13.272   5.965
76748SOL     OW32140   3.073   8.426   5.561
76748SOL    HW132141   3.102   8.409   5.651
76748SOL    HW232142   3.039   8.341   5.531
76749SOL     OW32143   6.466   3.095   0.662
76749SOL    HW132144   6.388   3.047   0.634
76749SOL    HW232145   6.455   3.105   0.757
76750SOL     OW32146  14.823   2.131  11.476
76750SOL    HW132147  14.768   2.191  11.527
76750SOL    HW232148  14.871   2.081  11.542
76751SOL     OW32149   8.320  10.545  14.804
76751SOL    HW132150   8.289  10.484  14.737
76751SOL    HW232151   8.387  10.495  14.852
76752SOL     OW32152   8.627   6.281   7.627
76752SOL    HW132153   8.622   6.185   7.624
76752SOL    HW232154   8.680   6.305   7.551
76753SOL     OW32155   3.943   2.684  11.258
76753SOL    HW132156   3.992   2.766  11.264
76753SOL    HW232157   3.878   2.699  11.189
76754SOL     OW32158  10.354   2.689  10.191
76754SOL    HW132159  10.308   2.703  10.108
76754SOL    HW232160  10.436   2.736  10.181
76755SOL     OW32161   5.836   5.744   8.670
76755SOL    HW132162   5.869   5.819   8.721
76755SOL    HW232163   5.830   5.673   8.733
76756SOL     OW32164   2.642   4.982  12.998
76756SOL    HW132165   2.649   4.995  12.904
76756SOL    HW232166   2.688   5.056  13.036
76757SOL     OW32167   5.515   1.232   7.288
76757SOL    HW132168   5.608   1.252   7.277
76757SOL    HW232169   5.494   1.261   7.377
76758SOL     OW32170   8.178   0.173   0.725
76758SOL    HW132171   8.203   0.082   0.711
76758SOL    HW232172   8.088   0.178   0.692
76759SOL     OW32173   1.635   7.597   8.789
76759SOL    HW132174   1.680   7.681   8.781
76759SOL    HW232175   1.542   7.618   8.790
76760SOL     OW32176  14.085   1.750  11.190
76760SOL    HW132177  14.030   1.705  11.253
76760SOL    HW232178  14.146   1.801  11.244
76761SOL     OW32179   0.086  10.240   9.568
76761SOL    HW132180   0.181  10.223   9.569
76761SOL    HW232181   0.060  10.220   9.478
76762SOL     OW32182  12.810   5.716   9.545
76762SOL    HW132183  12.891   5.667   9.534
76762SOL    HW232184  12.790   5.709   9.638
76763SOL     OW32185   3.137   8.577   5.850
76763SOL    HW132186   3.163   8.605   5.938
76763SOL    HW232187   3.052   8.619   5.836
76764SOL     OW32188   7.288   7.561   2.338
76764SOL    HW132189   7.279   7.636   2.280
76764SOL    HW232190   7.382   7.553   2.352
76765SOL     OW32191   6.776   4.075   5.148
76765SOL    HW132192   6.682   4.065   5.136
76765SOL    HW232193   6.810   3.986   5.149
76766SOL     OW32194   9.636   1.165   4.367
76766SOL    HW132195   9.623   1.221   4.291
76766SOL    HW232196   9.562   1.186   4.425
76767SOL     OW32197   4.102   9.111   5.752
76767SOL    HW132198   4.193   9.081   5.754
76767SOL    HW232199   4.099   9.185   5.813
76768SOL     OW32200   2.184   7.662   4.975
76768SOL    HW132201   2.144   7.731   4.921
76768SOL    HW232202   2.113   7.630   5.030
76769SOL     OW32203   5.011  11.408   7.988
76769SOL    HW132204   4.925  11.428   8.024
76769SOL    HW232205   5.007  11.315   7.967
76770SOL     OW32206  10.220   3.286   0.123
76770SOL    HW132207  10.203   3.321   0.036
76770SOL    HW232208  10.222   3.191   0.111
76771SOL     OW32209   1.076  12.338   7.583
76771SOL    HW132210   1.048  12.266   7.639
76771SOL    HW232211   1.002  12.354   7.524
76772SOL     OW32212   2.908  12.055  13.957
76772SOL    HW132213   2.937  12.081  13.870
76772SOL    HW232214   2.912  12.135  14.009
76773SOL     OW32215   3.636   2.818   3.828
76773SOL    HW132216   3.638   2.914   3.836
76773SOL    HW232217   3.548   2.794   3.856
76774SOL     OW32218   2.646   4.199   2.682
76774SOL    HW132219   2.598   4.194   2.600
76774SOL    HW232220   2.723   4.143   2.669
76775SOL     OW32221   5.425  11.611   8.499
76775SOL    HW132222   5.372  11.538   8.532
76775SOL    HW232223   5.445  11.586   8.408
76776SOL     OW32224   0.875   0.829  11.793
76776SOL    HW132225   0.901   0.808  11.883
76776SOL    HW232226   0.790   0.872  11.802
76777SOL     OW32227  14.086   1.379   7.993
76777SOL    HW132228  14.084   1.408   7.901
76777SOL    HW232229  14.083   1.284   7.989
76778SOL     OW32230   1.945   4.134   4.742
76778SOL    HW132231   1.957   4.068   4.673
76778SOL    HW232232   1.962   4.217   4.699
76779SOL     OW32233   4.714  13.904   0.181
76779SOL    HW132234   4.673  13.989   0.168
76779SOL    HW232235   4.679  13.848   0.112
76780SOL     OW32236  13.622  12.189   4.768
76780SOL    HW132237  13.547  12.209   4.712
76780SOL    HW232238  13.669  12.272   4.776
76781SOL     OW32239   2.649   8.309   4.277
76781SOL    HW132240   2.704   8.368   4.327
76781SOL    HW232241   2.559   8.336   4.297
76782SOL     OW32242  14.583   6.328  10.650
76782SOL    HW132243  14.649   6.395  10.666
76782SOL    HW232244  14.626   6.265  10.593
76783SOL     OW32245   9.586   7.598   7.015
76783SOL    HW132246   9.565   7.666   6.951
76783SOL    HW232247   9.573   7.515   6.968
76784SOL     OW32248   6.049   7.736   7.924
76784SOL    HW132249   6.053   7.693   7.839
76784SOL    HW232250   6.059   7.829   7.905
76785SOL     OW32251   1.066  10.622  12.858
76785SOL    HW132252   1.084  10.682  12.785
76785SOL    HW232253   0.975  10.594  12.844
76786SOL     OW32254  11.301   3.451   5.566
76786SOL    HW132255  11.354   3.438   5.645
76786SOL    HW232256  11.286   3.363   5.532
76787SOL     OW32257  13.570   2.444   5.061
76787SOL    HW132258  13.579   2.484   4.974
76787SOL    HW232259  13.503   2.376   5.049
76788SOL     OW32260   9.520   8.668   6.621
76788SOL    HW132261   9.591   8.634   6.675
76788SOL    HW232262   9.548   8.651   6.531
76789SOL     OW32263   4.247   0.810   5.247
76789SOL    HW132264   4.182   0.744   5.222
76789SOL    HW232265   4.204   0.894   5.231
76790SOL     OW32266   4.821  11.353  14.691
76790SOL    HW132267   4.787  11.333  14.604
76790SOL    HW232268   4.762  11.420  14.725
76791SOL     OW32269   9.493   2.351   0.601
76791SOL    HW132270   9.515   2.300   0.678
76791SOL    HW232271   9.413   2.398   0.625
76792SOL     OW32272   7.404   9.758   5.273
76792SOL    HW132273   7.443   9.674   5.297
76792SOL    HW232274   7.360   9.787   5.353
76793SOL     OW32275  11.599   3.301   3.380
76793SOL    HW132276  11.560   3.374   3.331
76793SOL    HW232277  11.686   3.333   3.404
76794SOL     OW32278  10.665   1.051   3.642
76794SOL    HW132279  10.607   1.051   3.718
76794SOL    HW232280  10.744   1.096   3.672
76795SOL     OW32281  13.209  12.957   6.026
76795SOL    HW132282  13.267  12.901   5.974
76795SOL    HW232283  13.238  12.946   6.116
76796SOL     OW32284   1.374   8.346  13.770
76796SOL    HW132285   1.412   8.258  13.767
76796SOL    HW232286   1.281   8.332  13.753
76797SOL     OW32287   1.208   5.389   3.868
76797SOL    HW132288   1.255   5.471   3.852
76797SOL    HW232289   1.269   5.337   3.921
76798SOL     OW32290   7.961   9.506   1.903
76798SOL    HW132291   7.928   9.494   1.814
76798SOL    HW232292   7.918   9.586   1.934
76799SOL     OW32293  10.929  13.989  14.871
76799SOL    HW132294  10.946  13.911  14.818
76799SOL    HW232295  10.979  13.975   0.076
76800SOL     OW32296   3.583   3.857  12.073
76800SOL    HW132297   3.525   3.830  12.144
76800SOL    HW232298   3.533   3.923  12.025
76801SOL     OW32299   0.121   9.334   6.782
76801SOL    HW132300   0.107   9.247   6.744
76801SOL    HW232301   0.072   9.393   6.725
76802SOL     OW32302   3.434   1.413   2.079
76802SOL    HW132303   3.475   1.375   2.001
76802SOL    HW232304   3.491   1.486   2.102
76803SOL     OW32305   0.752   2.269  11.397
76803SOL    HW132306   0.702   2.233  11.470
76803SOL    HW232307   0.835   2.221  11.399
76804SOL     OW32308   0.110  10.723  11.393
76804SOL    HW132309   0.038  10.731  11.330
76804SOL    HW232310   0.149  10.638  11.374
76805SOL     OW32311  14.595  10.791   1.295
76805SOL    HW132312  14.516  10.825   1.253
76805SOL    HW232313  14.666  10.840   1.254
76806SOL     OW32314   3.752  12.998  12.733
76806SOL    HW132315   3.695  12.926  12.760
76806SOL    HW232316   3.707  13.038  12.659
76807SOL     OW32317  10.550   2.878   0.980
76807SOL    HW132318  10.463   2.913   0.962
76807SOL    HW232319  10.548   2.853   1.072
76808SOL     OW32320   0.527   9.210  12.786
76808SOL    HW132321   0.590   9.153  12.830
76808SOL    HW232322   0.510   9.280  12.850
76809SOL     OW32323   6.937   3.686   3.032
76809SOL    HW132324   6.843   3.701   3.023
76809SOL    HW232325   6.956   3.615   2.971
76810SOL     OW32326  14.451  11.693   7.961
76810SOL    HW132327  14.374  11.742   7.932
76810SOL    HW232328  14.484  11.650   7.883
76811SOL     OW32329   0.415  10.832  12.338
76811SOL    HW132330   0.503  10.807  12.311
76811SOL    HW232331   0.364  10.833  12.257
76812SOL     OW32332   3.578  10.213  13.901
76812SOL    HW132333   3.491  10.249  13.884
76812SOL    HW232334   3.598  10.240  13.991
76813SOL     OW32335   6.993   6.186   7.850
76813SOL    HW132336   6.989   6.205   7.943
76813SOL    HW232337   7.084   6.203   7.826
76814SOL     OW32338   9.467   7.932   9.560
76814SOL    HW132339   9.483   7.838   9.549
76814SOL    HW232340   9.374   7.938   9.580
76815SOL     OW32341  12.400  12.668   9.079
76815SOL    HW132342  12.478  12.697   9.126
76815SOL    HW232343  12.327  12.699   9.133
76816SOL     OW32344   2.548  12.182   5.183
76816SOL    HW132345   2.595  12.102   5.205
76816SOL    HW232346   2.599  12.220   5.111
76817SOL     OW32347   9.357  11.283   5.091
76817SOL    HW132348   9.274  11.301   5.046
76817SOL    HW232349   9.385  11.368   5.125
76818SOL     OW32350  13.105   5.521  12.573
76818SOL    HW132351  13.086   5.602  12.526
76818SOL    HW232352  13.121   5.457  12.505
76819SOL     OW32353  11.315  11.200   5.613
76819SOL    HW132354  11.365  11.248   5.548
76819SOL    HW232355  11.232  11.180   5.571
76820SOL     OW32356  12.865   3.236  12.047
76820SOL    HW132357  12.945   3.195  12.081
76820SOL    HW232358  12.873   3.228  11.952
76821SOL     OW32359  13.180  14.121  13.741
76821SOL    HW132360  13.132  14.202  13.760
76821SOL    HW232361  13.124  14.051  13.775
76822SOL     OW32362  12.040   7.646  14.218
76822SOL    HW132363  11.971   7.596  14.175
76822SOL    HW232364  11.995   7.700  14.283
76823SOL     OW32365   2.273   1.841  10.622
76823SOL    HW132366   2.323   1.846  10.704
76823SOL    HW232367   2.230   1.756  10.626
76824SOL     OW32368  12.992   1.615  12.219
76824SOL    HW132369  12.902   1.629  12.192
76824SOL    HW232370  13.045   1.657  12.150
76825SOL     OW32371   9.685   2.364   1.818
76825SOL    HW132372   9.596   2.337   1.839
76825SOL    HW232373   9.693   2.453   1.854
76826SOL     OW32374   8.667   9.113   5.719
76826SOL    HW132375   8.675   9.194   5.770
76826SOL    HW232376   8.598   9.132   5.655
76827SOL     OW32377   4.972   3.614   1.204
76827SOL    HW132378   5.021   3.693   1.224
76827SOL    HW232379   5.038   3.545   1.202
76828SOL     OW32380   1.377   8.346  14.704
76828SOL    HW132381   1.359   8.415  14.767
76828SOL    HW232382   1.301   8.348  14.645
76829SOL     OW32383  13.944  12.327  11.396
76829SOL    HW132384  13.888  12.249  11.400
76829SOL    HW232385  14.031  12.295  11.418
76830SOL     OW32386  12.157  14.534   8.797
76830SOL    HW132387  12.167  14.562   8.706
76830SOL    HW232388  12.081  14.475   8.796
76831SOL     OW32389   9.351  13.277   3.631
76831SOL    HW132390   9.257  13.260   3.634
76831SOL    HW232391   9.360  13.367   3.660
76832SOL     OW32392   0.092  14.689   3.113
76832SOL    HW132393   0.096  14.666   3.206
76832SOL    HW232394   0.119  14.781   3.110
76833SOL     OW32395   0.504   3.335   0.718
76833SOL    HW132396   0.551   3.292   0.789
76833SOL    HW232397   0.553   3.312   0.639
76834SOL     OW32398  10.436  14.460   3.697
76834SOL    HW132399  10.360  14.402   3.693
76834SOL    HW232400  10.408  14.532   3.753
76835SOL     OW32401   0.653  12.623  11.032
76835SOL    HW132402   0.723  12.583  10.981
76835SOL    HW232403   0.661  12.583  11.119
76836SOL     OW32404   0.246   8.344  14.598
76836SOL    HW132405   0.170   8.400  14.611
76836SOL    HW232406   0.255   8.296  14.680
76837SOL     OW32407   6.100   2.285   3.925
76837SOL    HW132408   6.077   2.202   3.966
76837SOL    HW232409   6.134   2.262   3.839
76838SOL     OW32410  12.550   5.188   1.180
76838SOL    HW132411  12.569   5.190   1.086
76838SOL    HW232412  12.490   5.115   1.191
76839SOL     OW32413   7.351   3.862   4.321
76839SOL    HW132414   7.261   3.886   4.298
76839SOL    HW232415   7.400   3.874   4.240
76840SOL     OW32416   2.365  11.770   6.373
76840SOL    HW132417   2.459  11.749   6.370
76840SOL    HW232418   2.327  11.701   6.428
76841SOL     OW32419  10.547  11.662   8.710
76841SOL    HW132420  10.573  11.680   8.801
76841SOL    HW232421  10.515  11.572   8.712
76842SOL     OW32422  10.801   9.594  10.459
76842SOL    HW132423  10.857   9.613  10.384
76842SOL    HW232424  10.824   9.505  10.485
76843SOL     OW32425  14.085   3.881   8.853
76843SOL    HW132426  14.047   3.830   8.925
76843SOL    HW232427  14.151   3.823   8.814
76844SOL     OW32428  10.778   8.179  13.844
76844SOL    HW132429  10.774   8.226  13.761
76844SOL    HW232430  10.787   8.087  13.820
76845SOL     OW32431   7.872   5.216   4.440
76845SOL    HW132432   7.806   5.147   4.439
76845SOL    HW232433   7.876   5.244   4.531
76846SOL     OW32434   6.242   3.322   7.132
76846SOL    HW132435   6.280   3.234   7.135
76846SOL    HW232436   6.154   3.311   7.166
76847SOL     OW32437  10.771  14.155   1.892
76847SOL    HW132438  10.799  14.217   1.824
76847SOL    HW232439  10.778  14.069   1.851
76848SOL     OW32440   1.161   5.869   0.509
76848SOL    HW132441   1.089   5.820   0.547
76848SOL    HW232442   1.157   5.850   0.415
76849SOL     OW32443   3.003   4.594   0.720
76849SOL    HW132444   3.098   4.598   0.731
76849SOL    HW232445   2.968   4.596   0.809
76850SOL     OW32446   3.938   6.380   2.112
76850SOL    HW132447   3.885   6.424   2.178
76850SOL    HW232448   4.013   6.347   2.160
76851SOL     OW32449   4.212   7.773  14.252
76851SOL    HW132450   4.146   7.832  14.288
76851SOL    HW232451   4.245   7.819  14.175
76852SOL     OW32452   0.804   6.243  11.094
76852SOL    HW132453   0.883   6.209  11.052
76852SOL    HW232454   0.793   6.188  11.172
76853SOL     OW32455   9.475   5.835  10.019
76853SOL    HW132456   9.544   5.836   9.952
76853SOL    HW232457   9.514   5.879  10.094
76854SOL     OW32458  12.854   3.276   8.591
76854SOL    HW132459  12.759   3.282   8.601
76854SOL    HW232460  12.867   3.206   8.526
76855SOL     OW32461   2.654   3.554   0.221
76855SOL    HW132462   2.724   3.620   0.218
76855SOL    HW232463   2.611   3.560   0.136
76856SOL     OW32464   5.020  10.875   7.151
76856SOL    HW132465   4.956  10.817   7.193
76856SOL    HW232466   5.101  10.860   7.199
76857SOL     OW32467   7.237  14.732   0.798
76857SOL    HW132468   7.188  14.786   0.860
76857SOL    HW232469   7.198  14.752   0.713
76858SOL     OW32470   1.158   9.583   2.458
76858SOL    HW132471   1.104   9.543   2.526
76858SOL    HW232472   1.099   9.590   2.382
76859SOL     OW32473   3.649  14.752   9.721
76859SOL    HW132474   3.589  14.819   9.687
76859SOL    HW232475   3.736  14.793   9.714
76860SOL     OW32476   3.636   4.190   6.396
76860SOL    HW132477   3.569   4.128   6.365
76860SOL    HW232478   3.598   4.276   6.380
76861SOL     OW32479   9.380   3.048  13.421
76861SOL    HW132480   9.440   3.052  13.496
76861SOL    HW232481   9.356   3.139  13.405
76862SOL     OW32482   1.429   4.667  10.713
76862SOL    HW132483   1.397   4.725  10.644
76862SOL    HW232484   1.497   4.717  10.758
76863SOL     OW32485   6.402   0.861   8.153
76863SOL    HW132486   6.493   0.832   8.157
76863SOL    HW232487   6.400   0.928   8.085
76864SOL     OW32488  14.401  12.220  14.855
76864SOL    HW132489  14.321  12.232   0.030
76864SOL    HW232490  14.382  12.260  14.769
76865SOL     OW32491   4.446  13.604   4.069
76865SOL    HW132492   4.506  13.678   4.061
76865SOL    HW232493   4.500  13.532   4.099
76866SOL     OW32494   6.741   7.005   9.432
76866SOL    HW132495   6.763   7.095   9.451
76866SOL    HW232496   6.668   7.011   9.369
76867SOL     OW32497   8.724  13.268   3.882
76867SOL    HW132498   8.760  13.279   3.794
76867SOL    HW232499   8.643  13.219   3.869
76868SOL     OW32500   8.507   2.606  13.001
76868SOL    HW132501   8.471   2.691  13.029
76868SOL    HW232502   8.432   2.547  13.002
76869SOL     OW32503  13.619  10.851   0.483
76869SOL    HW132504  13.687  10.910   0.514
76869SOL    HW232505  13.631  10.848   0.388
76870SOL     OW32506  11.718   6.355  14.585
76870SOL    HW132507  11.712   6.397  14.670
76870SOL    HW232508  11.647   6.290  14.585
76871SOL     OW32509  10.754   6.015   1.413
76871SOL    HW132510  10.824   5.952   1.430
76871SOL    HW232511  10.765   6.039   1.321
76872SOL     OW32512   4.338   6.779  10.879
76872SOL    HW132513   4.284   6.753  10.804
76872SOL    HW232514   4.286   6.845  10.924
76873SOL     OW32515   5.073   8.355  10.001
76873SOL    HW132516   5.136   8.310  10.057
76873SOL    HW232517   4.992   8.355  10.051
76874SOL     OW32518   9.777  10.275   9.671
76874SOL    HW132519   9.745  10.274   9.581
76874SOL    HW232520   9.817  10.361   9.682
76875SOL     OW32521   7.275   3.519  11.655
76875SOL    HW132522   7.259   3.543  11.746
76875SOL    HW232523   7.368   3.495  11.653
76876SOL     OW32524   4.137   4.000   3.026
76876SOL    HW132525   4.152   3.929   2.963
76876SOL    HW232526   4.042   4.001   3.038
76877SOL     OW32527   1.052  10.526   1.763
76877SOL    HW132528   1.143  10.510   1.741
76877SOL    HW232529   1.005  10.518   1.680
76878SOL     OW32530   6.749  11.478   6.406
76878SOL    HW132531   6.732  11.564   6.444
76878SOL    HW232532   6.706  11.416   6.465
76879SOL     OW32533   4.185   9.474   4.769
76879SOL    HW132534   4.165   9.489   4.862
76879SOL    HW232535   4.191   9.562   4.732
76880SOL     OW32536   2.966   1.261   7.843
76880SOL    HW132537   3.047   1.211   7.829
76880SOL    HW232538   2.908   1.200   7.888
76881SOL     OW32539   0.559  13.534  13.680
76881SOL    HW132540   0.601  13.618  13.664
76881SOL    HW232541   0.477  13.538  13.631
76882SOL     OW32542   2.289  12.983   8.780
76882SOL    HW132543   2.251  12.951   8.862
76882SOL    HW232544   2.278  12.911   8.718
76883SOL     OW32545   7.767   2.106   1.240
76883SOL    HW132546   7.830   2.135   1.306
76883SOL    HW232547   7.815   2.113   1.157
76884SOL     OW32548  14.331   0.955   3.899
76884SOL    HW132549  14.356   0.958   3.991
76884SOL    HW232550  14.290   0.869   3.889
76885SOL     OW32551   4.764  12.654   2.804
76885SOL    HW132552   4.781  12.560   2.800
76885SOL    HW232553   4.754  12.681   2.713
76886SOL     OW32554  11.421   5.145  13.874
76886SOL    HW132555  11.395   5.209  13.808
76886SOL    HW232556  11.511   5.171  13.898
76887SOL     OW32557   8.711  13.880   0.990
76887SOL    HW132558   8.768  13.867   0.914
76887SOL    HW232559   8.736  13.811   1.051
76888SOL     OW32560   9.729   7.359   8.262
76888SOL    HW132561   9.760   7.375   8.173
76888SOL    HW232562   9.719   7.264   8.267
76889SOL     OW32563   7.890   8.153   8.707
76889SOL    HW132564   7.926   8.241   8.708
76889SOL    HW232565   7.905   8.120   8.795
76890SOL     OW32566   2.866   7.980   0.914
76890SOL    HW132567   2.919   7.916   0.867
76890SOL    HW232568   2.851   8.051   0.852
76891SOL     OW32569   1.234   9.493   6.472
76891SOL    HW132570   1.231   9.544   6.391
76891SOL    HW232571   1.265   9.407   6.445
76892SOL     OW32572   1.702  13.694   1.133
76892SOL    HW132573   1.739  13.708   1.220
76892SOL    HW232574   1.616  13.736   1.137
76893SOL     OW32575   7.651  14.366   9.250
76893SOL    HW132576   7.622  14.326   9.168
76893SOL    HW232577   7.740  14.334   9.263
76894SOL     OW32578  14.154  11.618   9.162
76894SOL    HW132579  14.233  11.584   9.120
76894SOL    HW232580  14.086  11.553   9.142
76895SOL     OW32581   4.497   2.246   2.291
76895SOL    HW132582   4.472   2.317   2.231
76895SOL    HW232583   4.446   2.262   2.370
76896SOL     OW32584   8.038  12.416   0.921
76896SOL    HW132585   8.039  12.422   1.017
76896SOL    HW232586   7.946  12.422   0.897
76897SOL     OW32587   0.634   6.835   0.256
76897SOL    HW132588   0.663   6.803   0.341
76897SOL    HW232589   0.712   6.876   0.218
76898SOL     OW32590   5.561   0.364   6.026
76898SOL    HW132591   5.610   0.434   5.984
76898SOL    HW232592   5.574   0.379   6.120
76899SOL     OW32593  14.669  10.427   1.670
76899SOL    HW132594  14.668  10.523   1.675
76899SOL    HW232595  14.703  10.407   1.583
76900SOL     OW32596   4.226   3.701   6.099
76900SOL    HW132597   4.157   3.766   6.088
76900SOL    HW232598   4.302   3.739   6.055
76901SOL     OW32599   4.305   4.379   0.126
76901SOL    HW132600   4.278   4.446   0.190
76901SOL    HW232601   4.265   4.298   0.158
76902SOL     OW32602  14.869   4.246   6.507
76902SOL    HW132603  14.843   4.154   6.497
76902SOL    HW232604  14.787   4.292   6.525
76903SOL     OW32605  12.356   8.691   7.439
76903SOL    HW132606  12.391   8.603   7.451
76903SOL    HW232607  12.419   8.735   7.382
76904SOL     OW32608   7.808   3.665   0.309
76904SOL    HW132609   7.734   3.603   0.309
76904SOL    HW232610   7.813   3.695   0.400
76905SOL     OW32611   9.854   5.467   8.334
76905SOL    HW132612   9.846   5.372   8.345
76905SOL    HW232613   9.785   5.489   8.272
76906SOL     OW32614   5.861   8.286   2.371
76906SOL    HW132615   5.833   8.378   2.375
76906SOL    HW232616   5.841   8.251   2.457
76907SOL     OW32617   3.177  13.749   1.488
76907SOL    HW132618   3.142  13.661   1.503
76907SOL    HW232619   3.166  13.764   1.395
76908SOL     OW32620   0.645   3.597   8.190
76908SOL    HW132621   0.617   3.674   8.140
76908SOL    HW232622   0.725   3.567   8.146
76909SOL     OW32623  11.656  11.509  10.854
76909SOL    HW132624  11.646  11.415  10.837
76909SOL    HW232625  11.616  11.522  10.940
76910SOL     OW32626   4.544   9.616   1.716
76910SOL    HW132627   4.635   9.587   1.715
76910SOL    HW232628   4.500   9.561   1.651
76911SOL     OW32629   9.100   3.346   0.026
76911SOL    HW132630   9.121   3.399  14.824
76911SOL    HW232631   9.021   3.388   0.062
76912SOL     OW32632  13.149   8.477   6.296
76912SOL    HW132633  13.183   8.549   6.349
76912SOL    HW232634  13.215   8.463   6.228
76913SOL     OW32635   8.800   6.544  14.272
76913SOL    HW132636   8.828   6.467  14.322
76913SOL    HW232637   8.766   6.605  14.338
76914SOL     OW32638   3.128   8.655  10.752
76914SOL    HW132639   3.054   8.713  10.734
76914SOL    HW232640   3.156   8.678  10.841
76915SOL     OW32641   7.909   2.921  11.567
76915SOL    HW132642   7.905   3.008  11.606
76915SOL    HW232643   7.920   2.937  11.473
76916SOL     OW32644   4.836   8.787   8.760
76916SOL    HW132645   4.745   8.782   8.731
76916SOL    HW232646   4.882   8.724   8.706
76917SOL     OW32647   3.979   0.664   5.809
76917SOL    HW132648   3.997   0.573   5.783
76917SOL    HW232649   3.907   0.691   5.751
76918SOL     OW32650   9.597  12.066  14.793
76918SOL    HW132651   9.618  12.017  14.714
76918SOL    HW232652   9.681  12.078  14.837
76919SOL     OW32653  14.046   3.329   6.890
76919SOL    HW132654  14.073   3.366   6.974
76919SOL    HW232655  14.107   3.257   6.875
76920SOL     OW32656   2.189  11.223   8.916
76920SOL    HW132657   2.133  11.221   8.994
76920SOL    HW232658   2.264  11.169   8.939
76921SOL     OW32659  10.063  11.075  14.145
76921SOL    HW132660  10.069  11.058  14.239
76921SOL    HW232661  10.153  11.067  14.113
76922SOL     OW32662   0.529   2.475  10.246
76922SOL    HW132663   0.450   2.523  10.221
76922SOL    HW232664   0.568   2.527  10.316
76923SOL     OW32665  10.750   6.224  11.664
76923SOL    HW132666  10.761   6.222  11.759
76923SOL    HW232667  10.831   6.263  11.632
76924SOL     OW32668   2.728   9.374   6.024
76924SOL    HW132669   2.790   9.438   6.059
76924SOL    HW232670   2.643   9.404   6.056
76925SOL     OW32671  14.588   8.266  11.172
76925SOL    HW132672  14.628   8.348  11.201
76925SOL    HW232673  14.525   8.293  11.105
76926SOL     OW32674   4.818   7.920   0.834
76926SOL    HW132675   4.851   7.958   0.916
76926SOL    HW232676   4.750   7.981   0.806
76927SOL     OW32677   8.590   8.745   2.395
76927SOL    HW132678   8.617   8.768   2.306
76927SOL    HW232679   8.671   8.739   2.444
76928SOL     OW32680   1.286  14.223   4.269
76928SOL    HW132681   1.355  14.166   4.233
76928SOL    HW232682   1.303  14.223   4.363
76929SOL     OW32683  11.047   2.499  10.885
76929SOL    HW132684  11.034   2.406  10.869
76929SOL    HW232685  11.089   2.503  10.971
76930SOL     OW32686   0.612   4.655   1.960
76930SOL    HW132687   0.562   4.602   1.898
76930SOL    HW232688   0.635   4.594   2.030
76931SOL     OW32689   9.308   1.959   6.934
76931SOL    HW132690   9.312   1.867   6.908
76931SOL    HW232691   9.327   2.007   6.854
76932SOL     OW32692   4.034   2.534   7.688
76932SOL    HW132693   3.941   2.522   7.711
76932SOL    HW232694   4.038   2.512   7.595
76933SOL     OW32695   2.148   6.965  14.550
76933SOL    HW132696   2.201   7.024  14.604
76933SOL    HW232697   2.201   6.950  14.472
76934SOL     OW32698  12.331   6.325   0.386
76934SOL    HW132699  12.413   6.357   0.424
76934SOL    HW232700  12.271   6.399   0.393
76935SOL     OW32701  12.108   4.847   0.613
76935SOL    HW132702  12.090   4.937   0.588
76935SOL    HW232703  12.055   4.795   0.552
76936SOL     OW32704   7.346   9.352  14.734
76936SOL    HW132705   7.340   9.270  14.684
76936SOL    HW232706   7.403   9.330  14.808
76937SOL     OW32707  12.107   1.345   5.506
76937SOL    HW132708  12.081   1.253   5.514
76937SOL    HW232709  12.176   1.346   5.440
76938SOL     OW32710   5.465  10.118   3.871
76938SOL    HW132711   5.496  10.077   3.790
76938SOL    HW232712   5.379  10.154   3.847
76939SOL     OW32713  10.303   3.833  14.224
76939SOL    HW132714  10.208   3.844  14.230
76939SOL    HW232715  10.327   3.787  14.304
76940SOL     OW32716   6.050  12.986   1.181
76940SOL    HW132717   6.062  12.891   1.171
76940SOL    HW232718   6.101  13.009   1.258
76941SOL     OW32719  11.968   9.190  13.305
76941SOL    HW132720  12.034   9.259  13.298
76941SOL    HW232721  11.885   9.235  13.298
76942SOL     OW32722  13.000  11.265   1.943
76942SOL    HW132723  13.060  11.210   1.893
76942SOL    HW232724  12.978  11.337   1.884
76943SOL     OW32725   1.017   7.917  14.529
76943SOL    HW132726   1.050   7.996  14.485
76943SOL    HW232727   0.946   7.887  14.473
76944SOL     OW32728   0.452   4.890  12.398
76944SOL    HW132729   0.507   4.963  12.427
76944SOL    HW232730   0.411   4.858  12.479
76945SOL     OW32731   6.036   8.209   2.786
76945SOL    HW132732   5.965   8.216   2.850
76945SOL    HW232733   6.103   8.157   2.831
76946SOL     OW32734  13.746   8.303  12.249
76946SOL    HW132735  13.674   8.241  12.235
76946SOL    HW232736  13.734   8.369  12.181
76947SOL     OW32737   1.662  10.626   8.826
76947SOL    HW132738   1.662  10.550   8.883
76947SOL    HW232739   1.582  10.674   8.850
76948SOL     OW32740   8.048  14.750   7.837
76948SOL    HW132741   8.027  14.661   7.863
76948SOL    HW232742   8.140  14.762   7.859
76949SOL     OW32743   5.697   6.672  13.106
76949SOL    HW132744   5.633   6.738  13.134
76949SOL    HW232745   5.736   6.710  13.027
76950SOL     OW32746   4.996   3.171  11.191
76950SOL    HW132747   4.943   3.251  11.190
76950SOL    HW232748   4.944   3.109  11.242
76951SOL     OW32749  11.914   8.258   1.126
76951SOL    HW132750  11.948   8.291   1.043
76951SOL    HW232751  11.992   8.245   1.180
76952SOL     OW32752   8.947   9.395   6.295
76952SOL    HW132753   9.006   9.325   6.267
76952SOL    HW232754   8.859   9.357   6.290
76953SOL     OW32755  11.899   4.842   0.145
76953SOL    HW132756  11.836   4.890   0.198
76953SOL    HW232757  11.887   4.877   0.056
76954SOL     OW32758   2.725   8.727  13.924
76954SOL    HW132759   2.677   8.652  13.889
76954SOL    HW232760   2.794   8.689  13.977
76955SOL     OW32761  12.606   1.035   9.680
76955SOL    HW132762  12.520   0.995   9.669
76955SOL    HW232763  12.626   1.072   9.594
76956SOL     OW32764   2.256  13.801   4.369
76956SOL    HW132765   2.218  13.722   4.406
76956SOL    HW232766   2.203  13.872   4.405
76957SOL     OW32767  14.262  14.647   5.828
76957SOL    HW132768  14.220  14.713   5.772
76957SOL    HW232769  14.196  14.578   5.835
76958SOL     OW32770   6.585   0.739  14.534
76958SOL    HW132771   6.669   0.782  14.547
76958SOL    HW232772   6.524   0.810  14.516
76959SOL     OW32773   4.659   3.749   9.079
76959SOL    HW132774   4.739   3.703   9.053
76959SOL    HW232775   4.600   3.738   9.005
76960SOL     OW32776  12.590  10.495   8.985
76960SOL    HW132777  12.678  10.490   9.022
76960SOL    HW232778  12.582  10.586   8.956
76961SOL     OW32779   7.112   6.627  13.429
76961SOL    HW132780   7.130   6.613  13.522
76961SOL    HW232781   7.146   6.549  13.386
76962SOL     OW32782  14.337  14.347   6.340
76962SOL    HW132783  14.277  14.346   6.266
76962SOL    HW232784  14.282  14.367   6.416
76963SOL     OW32785   1.795   1.798   0.138
76963SOL    HW132786   1.810   1.750   0.220
76963SOL    HW232787   1.864   1.865   0.137
76964SOL     OW32788   1.572  14.696   9.748
76964SOL    HW132789   1.522  14.624   9.709
76964SOL    HW232790   1.531  14.775   9.713
76965SOL     OW32791   1.674   6.871  14.440
76965SOL    HW132792   1.625   6.941  14.483
76965SOL    HW232793   1.624   6.853  14.360
76966SOL     OW32794  10.516   4.362   3.432
76966SOL    HW132795  10.472   4.402   3.507
76966SOL    HW232796  10.542   4.437   3.378
76967SOL     OW32797  10.057   8.339   3.190
76967SOL    HW132798  10.100   8.253   3.194
76967SOL    HW232799   9.996   8.338   3.264
76968SOL     OW32800   4.611  11.769  12.936
76968SOL    HW132801   4.548  11.731  12.996
76968SOL    HW232802   4.558  11.806  12.865
76969SOL     OW32803   1.963   0.261   9.747
76969SOL    HW132804   1.951   0.290   9.837
76969SOL    HW232805   2.036   0.314   9.714
76970SOL     OW32806   1.917  10.728   2.709
76970SOL    HW132807   1.977  10.801   2.721
76970SOL    HW232808   1.957  10.656   2.756
76971SOL     OW32809   3.761  11.328  11.273
76971SOL    HW132810   3.780  11.243  11.314
76971SOL    HW232811   3.845  11.356  11.237
76972SOL     OW32812   0.021  10.460   3.327
76972SOL    HW132813   0.058  10.403   3.260
76972SOL    HW232814  14.873  10.541   3.280
76973SOL     OW32815   9.551   9.769  12.789
76973SOL    HW132816   9.512   9.838  12.735
76973SOL    HW232817   9.622   9.735  12.735
76974SOL     OW32818   8.520   3.377   1.103
76974SOL    HW132819   8.575   3.445   1.064
76974SOL    HW232820   8.569   3.345   1.178
76975SOL     OW32821   3.429   8.700   3.049
76975SOL    HW132822   3.406   8.676   2.959
76975SOL    HW232823   3.353   8.672   3.101
76976SOL     OW32824  11.779   2.292   0.185
76976SOL    HW132825  11.822   2.377   0.175
76976SOL    HW232826  11.720   2.304   0.259
76977SOL     OW32827   6.770  13.974   7.036
76977SOL    HW132828   6.833  13.921   7.085
76977SOL    HW232829   6.685  13.941   7.063
76978SOL     OW32830  10.972  13.441   1.002
76978SOL    HW132831  10.980  13.403   1.089
76978SOL    HW232832  11.034  13.391   0.948
76979SOL     OW32833   6.282  10.655  12.703
76979SOL    HW132834   6.372  10.660  12.737
76979SOL    HW232835   6.258  10.745  12.686
76980SOL     OW32836  14.246   8.415  14.362
76980SOL    HW132837  14.219   8.506  14.357
76980SOL    HW232838  14.326   8.416  14.414
76981SOL     OW32839   2.694   8.260  10.924
76981SOL    HW132840   2.632   8.312  10.975
76981SOL    HW232841   2.754   8.324  10.887
76982SOL     OW32842   8.783  12.988   4.397
76982SOL    HW132843   8.714  13.030   4.448
76982SOL    HW232844   8.845  12.956   4.462
76983SOL     OW32845   2.678   5.599   5.090
76983SOL    HW132846   2.612   5.530   5.097
76983SOL    HW232847   2.759   5.558   5.120
76984SOL     OW32848   0.428  12.979  14.791
76984SOL    HW132849   0.431  12.990  14.696
76984SOL    HW232850   0.479  13.053  14.826
76985SOL     OW32851   7.835   9.552   4.630
76985SOL    HW132852   7.843   9.611   4.704
76985SOL    HW232853   7.826   9.609   4.554
76986SOL     OW32854  14.676   0.094  11.261
76986SOL    HW132855  14.702   0.111  11.352
76986SOL    HW232856  14.588   0.056  11.269
76987SOL     OW32857   0.276   4.765   9.174
76987SOL    HW132858   0.198   4.777   9.120
76987SOL    HW232859   0.348   4.799   9.121
76988SOL     OW32860  14.063   3.378   3.675
76988SOL    HW132861  13.984   3.328   3.697
76988SOL    HW232862  14.123   3.360   3.748
76989SOL     OW32863   8.160   7.079   8.223
76989SOL    HW132864   8.110   7.048   8.147
76989SOL    HW232865   8.111   7.046   8.299
76990SOL     OW32866  13.542   9.555   2.599
76990SOL    HW132867  13.634   9.547   2.575
76990SOL    HW232868  13.536   9.640   2.642
76991SOL     OW32869  10.715  13.959   3.995
76991SOL    HW132870  10.657  14.031   4.019
76991SOL    HW232871  10.802  13.999   3.989
76992SOL     OW32872   9.528  10.865   8.613
76992SOL    HW132873   9.463  10.806   8.576
76992SOL    HW232874   9.612  10.824   8.591
76993SOL     OW32875   4.422  10.006   1.225
76993SOL    HW132876   4.422  10.089   1.177
76993SOL    HW232877   4.335   9.970   1.210
76994SOL     OW32878  14.638   6.103   8.220
76994SOL    HW132879  14.678   6.117   8.134
76994SOL    HW232880  14.674   6.019   8.250
76995SOL     OW32881  10.886  12.456   9.448
76995SOL    HW132882  10.801  12.492   9.473
76995SOL    HW232883  10.875  12.427   9.358
76996SOL     OW32884   3.501   0.134   0.761
76996SOL    HW132885   3.517   0.149   0.854
76996SOL    HW232886   3.437   0.200   0.736
76997SOL     OW32887   1.064   3.394   5.237
76997SOL    HW132888   0.982   3.398   5.188
76997SOL    HW232889   1.097   3.306   5.220
76998SOL     OW32890   3.124   2.974   6.375
76998SOL    HW132891   3.110   2.976   6.280
76998SOL    HW232892   3.199   2.916   6.387
76999SOL     OW32893   0.490   0.459  11.707
76999SOL    HW132894   0.435   0.505  11.770
76999SOL    HW232895   0.580   0.481  11.734
77000SOL     OW32896   5.964   5.607   0.622
77000SOL    HW132897   5.936   5.686   0.575
77000SOL    HW232898   5.886   5.552   0.623
77001SOL     OW32899   1.329   0.435  10.517
77001SOL    HW132900   1.282   0.351  10.517
77001SOL    HW232901   1.419   0.412  10.491
77002SOL     OW32902   9.762   3.665   4.101
77002SOL    HW132903   9.834   3.660   4.038
77002SOL    HW232904   9.693   3.611   4.063
77003SOL     OW32905   3.297  10.680   0.837
77003SOL    HW132906   3.313  10.683   0.932
77003SOL    HW232907   3.383  10.692   0.798
77004SOL     OW32908  10.825  14.591   7.243
77004SOL    HW132909  10.917  14.594   7.217
77004SOL    HW232910  10.789  14.675   7.212
77005SOL     OW32911   4.345  14.833  11.819
77005SOL    HW132912   4.419   0.016  11.836
77005SOL    HW232913   4.385  14.755  11.780
77006SOL     OW32914  14.001   1.359   6.586
77006SOL    HW132915  13.991   1.372   6.492
77006SOL    HW232916  13.912   1.346   6.618
77007SOL     OW32917   8.392   8.152   3.281
77007SOL    HW132918   8.379   8.165   3.187
77007SOL    HW232919   8.357   8.065   3.299
77008SOL     OW32920   3.875   8.029   6.427
77008SOL    HW132921   3.824   8.097   6.383
77008SOL    HW232922   3.809   7.971   6.466
77009SOL     OW32923   7.667   6.379  11.391
77009SOL    HW132924   7.616   6.311  11.347
77009SOL    HW232925   7.728   6.409  11.324
77010SOL     OW32926  13.421   1.226   2.193
77010SOL    HW132927  13.483   1.268   2.253
77010SOL    HW232928  13.341   1.216   2.245
77011SOL     OW32929   7.590   5.757   0.617
77011SOL    HW132930   7.631   5.795   0.694
77011SOL    HW232931   7.633   5.672   0.606
77012SOL     OW32932  11.802  14.532  10.988
77012SOL    HW132933  11.890  14.564  10.967
77012SOL    HW232934  11.771  14.590  11.057
77013SOL     OW32935   7.818   3.908   9.770
77013SOL    HW132936   7.738   3.859   9.790
77013SOL    HW232937   7.847   3.942   9.854
77014SOL     OW32938   4.418   1.536   9.669
77014SOL    HW132939   4.450   1.458   9.715
77014SOL    HW232940   4.493   1.566   9.619
77015SOL     OW32941   2.530   5.550   7.165
77015SOL    HW132942   2.540   5.457   7.185
77015SOL    HW232943   2.436   5.565   7.164
77016SOL     OW32944   0.256  13.349   4.246
77016SOL    HW132945   0.196  13.329   4.318
77016SOL    HW232946   0.306  13.425   4.277
77017SOL     OW32947   9.741   6.231   1.721
77017SOL    HW132948   9.816   6.280   1.688
77017SOL    HW232949   9.727   6.265   1.810
77018SOL     OW32950   5.107   6.406   9.122
77018SOL    HW132951   5.034   6.422   9.062
77018SOL    HW232952   5.076   6.336   9.179
77019SOL     OW32953   6.170  10.384   7.003
77019SOL    HW132954   6.129  10.367   6.919
77019SOL    HW232955   6.097  10.407   7.061
77020SOL     OW32956   1.563   6.219   0.163
77020SOL    HW132957   1.628   6.286   0.144
77020SOL    HW232958   1.516   6.206   0.081
77021SOL     OW32959  12.001  11.533  14.803
77021SOL    HW132960  12.084  11.523  14.757
77021SOL    HW232961  12.015  11.492   0.013
77022SOL     OW32962   4.516   4.826   1.818
77022SOL    HW132963   4.448   4.894   1.811
77022SOL    HW232964   4.548   4.815   1.729
77023SOL     OW32965  13.636   6.261   4.840
77023SOL    HW132966  13.558   6.317   4.841
77023SOL    HW232967  13.667   6.264   4.749
77024SOL     OW32968   2.976   2.413   9.800
77024SOL    HW132969   3.059   2.402   9.755
77024SOL    HW232970   2.997   2.466   9.877
77025SOL     OW32971  12.456  11.084   4.681
77025SOL    HW132972  12.477  11.168   4.723
77025SOL    HW232973  12.540  11.050   4.651
77026SOL     OW32974   9.080  10.408   4.431
77026SOL    HW132975   9.147  10.351   4.392
77026SOL    HW232976   9.062  10.368   4.516
77027SOL     OW32977  13.917  11.581   1.618
77027SOL    HW132978  13.835  11.599   1.665
77027SOL    HW232979  13.949  11.667   1.592
77028SOL     OW32980   7.508  12.136   7.238
77028SOL    HW132981   7.583  12.196   7.236
77028SOL    HW232982   7.492  12.121   7.331
77029SOL     OW32983   8.099   3.508   1.307
77029SOL    HW132984   8.052   3.508   1.391
77029SOL    HW232985   8.040   3.553   1.246
77030SOL     OW32986  14.061   3.179   1.445
77030SOL    HW132987  14.075   3.105   1.503
77030SOL    HW232988  14.144   3.192   1.400
77031SOL     OW32989   8.850   3.523  10.719
77031SOL    HW132990   8.884   3.438  10.749
77031SOL    HW232991   8.766   3.502  10.677
77032SOL     OW32992   3.785  13.913   2.914
77032SOL    HW132993   3.722  13.842   2.902
77032SOL    HW232994   3.746  13.987   2.866
77033SOL     OW32995   7.344   0.114   8.494
77033SOL    HW132996   7.362   0.195   8.447
77033SOL    HW232997   7.334   0.141   8.585
77034SOL     OW32998   2.782   1.318   6.538
77034SOL    HW132999   2.825   1.344   6.620
77034SOL    HW233000   2.726   1.245   6.564
77035SOL     OW33001   7.727  10.305   9.215
77035SOL    HW133002   7.690  10.241   9.154
77035SOL    HW233003   7.667  10.304   9.290
77036SOL     OW33004   4.767  11.245   4.146
77036SOL    HW133005   4.805  11.182   4.207
77036SOL    HW233006   4.702  11.195   4.097
77037SOL     OW33007  11.771   4.365  12.280
77037SOL    HW133008  11.846   4.423  12.271
77037SOL    HW233009  11.808   4.283  12.314
77038SOL     OW33010   2.638  11.271   8.926
77038SOL    HW133011   2.709  11.252   8.987
77038SOL    HW233012   2.680  11.273   8.840
77039SOL     OW33013  10.919   2.230   4.994
77039SOL    HW133014  11.010   2.202   4.987
77039SOL    HW233015  10.886   2.186   5.072
77040SOL     OW33016   3.383   1.703   5.580
77040SOL    HW133017   3.367   1.609   5.572
77040SOL    HW233018   3.383   1.735   5.489
77041SOL     OW33019   8.423   0.024   3.822
77041SOL    HW133020   8.413   0.120   3.821
77041SOL    HW233021   8.434   0.002   3.914
77042SOL     OW33022   1.810  10.692   5.313
77042SOL    HW133023   1.892  10.693   5.264
77042SOL    HW233024   1.807  10.606   5.354
77043SOL     OW33025   9.598   8.193  11.481
77043SOL    HW133026   9.686   8.225  11.498
77043SOL    HW233027   9.605   8.098  11.493
77044SOL     OW33028   7.529   0.485  13.115
77044SOL    HW133029   7.483   0.508  13.034
77044SOL    HW233030   7.550   0.568  13.156
77045SOL     OW33031   3.773   4.364  11.055
77045SOL    HW133032   3.792   4.273  11.034
77045SOL    HW233033   3.678   4.371  11.048
77046SOL     OW33034   0.467  13.688   7.406
77046SOL    HW133035   0.479  13.620   7.339
77046SOL    HW233036   0.373  13.689   7.423
77047SOL     OW33037   1.046   6.619   0.379
77047SOL    HW133038   1.112   6.603   0.446
77047SOL    HW233039   1.051   6.543   0.321
77048SOL     OW33040   4.469   8.290  10.306
77048SOL    HW133041   4.506   8.216  10.258
77048SOL    HW233042   4.394   8.318  10.253
77049SOL     OW33043  12.120   6.969  10.211
77049SOL    HW133044  12.102   7.056  10.247
77049SOL    HW233045  12.200   6.982  10.159
77050SOL     OW33046   1.706  14.625   4.511
77050SOL    HW133047   1.768  14.681   4.558
77050SOL    HW233048   1.699  14.664   4.424
77051SOL     OW33049  13.598  12.822  11.992
77051SOL    HW133050  13.628  12.867  12.070
77051SOL    HW233051  13.608  12.885  11.921
77052SOL     OW33052  10.461  11.020   0.269
77052SOL    HW133053  10.493  10.945   0.219
77052SOL    HW233054  10.539  11.058   0.308
77053SOL     OW33055  13.792   1.117   0.313
77053SOL    HW133056  13.868   1.095   0.367
77053SOL    HW233057  13.814   1.201   0.273
77054SOL     OW33058   7.471  12.137  11.180
77054SOL    HW133059   7.421  12.073  11.128
77054SOL    HW233060   7.447  12.222  11.142
77055SOL     OW33061  13.303   4.760   3.052
77055SOL    HW133062  13.268   4.671   3.047
77055SOL    HW233063  13.265   4.796   3.133
77056SOL     OW33064   2.175  13.226   9.076
77056SOL    HW133065   2.113  13.294   9.102
77056SOL    HW233066   2.220  13.202   9.157
77057SOL     OW33067   7.178   2.341   3.165
77057SOL    HW133068   7.134   2.372   3.086
77057SOL    HW233069   7.117   2.277   3.202
77058SOL     OW33070   9.126   3.810   4.795
77058SOL    HW133071   9.052   3.792   4.736
77058SOL    HW233072   9.091   3.874   4.857
77059SOL     OW33073   9.487  14.285   0.154
77059SOL    HW133074   9.404  14.237   0.157
77059SOL    HW233075   9.465  14.372   0.189
77060SOL     OW33076   7.512  12.750  11.480
77060SOL    HW133077   7.444  12.688  11.454
77060SOL    HW233078   7.548  12.714  11.561
77061SOL     OW33079  11.773  11.659   8.635
77061SOL    HW133080  11.790  11.735   8.691
77061SOL    HW233081  11.740  11.592   8.695
77062SOL     OW33082   2.715  10.352   8.655
77062SOL    HW133083   2.672  10.388   8.577
77062SOL    HW233084   2.808  10.368   8.640
77063SOL     OW33085   9.193  10.429   1.910
77063SOL    HW133086   9.189  10.344   1.867
77063SOL    HW233087   9.221  10.409   2.000
77064SOL     OW33088  14.458   1.695   5.007
77064SOL    HW133089  14.369   1.667   5.031
77064SOL    HW233090  14.468   1.667   4.916
77065SOL     OW33091  14.500   4.105   4.913
77065SOL    HW133092  14.538   4.120   4.827
77065SOL    HW233093  14.570   4.064   4.964
77066SOL     OW33094   1.157  13.115   9.073
77066SOL    HW133095   1.158  13.067   9.156
77066SOL    HW233096   1.165  13.047   9.006
77067SOL     OW33097   9.394  14.495   9.031
77067SOL    HW133098   9.307  14.457   9.021
77067SOL    HW233099   9.419  14.474   9.121
77068SOL     OW33100  13.613   5.079  12.085
77068SOL    HW133101  13.593   5.016  12.016
77068SOL    HW233102  13.679   5.035  12.140
77069SOL     OW33103   8.935   1.621   9.982
77069SOL    HW133104   8.930   1.642  10.075
77069SOL    HW233105   9.029   1.612   9.965
77070SOL     OW33106   8.381   8.902   8.899
77070SOL    HW133107   8.296   8.944   8.891
77070SOL    HW233108   8.386   8.844   8.822
77071SOL     OW33109   5.432  11.499  13.301
77071SOL    HW133110   5.359  11.439  13.315
77071SOL    HW233111   5.496  11.474  13.367
77072SOL     OW33112   5.875  14.466  11.147
77072SOL    HW133113   5.887  14.544  11.093
77072SOL    HW233114   5.964  14.432  11.159
77073SOL     OW33115  10.466   0.736   2.602
77073SOL    HW133116  10.450   0.777   2.517
77073SOL    HW233117  10.557   0.758   2.623
77074SOL     OW33118   4.409  11.424   0.474
77074SOL    HW133119   4.481  11.431   0.537
77074SOL    HW233120   4.336  11.470   0.515
77075SOL     OW33121   4.142  10.766  10.086
77075SOL    HW133122   4.191  10.746  10.166
77075SOL    HW233123   4.185  10.714  10.018
77076SOL     OW33124  10.887  11.459  14.677
77076SOL    HW133125  10.892  11.469  14.582
77076SOL    HW233126  10.854  11.543  14.709
77077SOL     OW33127   0.558   2.064   8.417
77077SOL    HW133128   0.550   2.083   8.324
77077SOL    HW233129   0.497   1.992   8.432
77078SOL     OW33130   1.017   8.096   1.769
77078SOL    HW133131   0.931   8.053   1.761
77078SOL    HW233132   1.007   8.179   1.723
77079SOL     OW33133  12.552  13.680  10.306
77079SOL    HW133134  12.593  13.764  10.285
77079SOL    HW233135  12.465  13.702  10.338
77080SOL     OW33136  13.215   6.811   6.336
77080SOL    HW133137  13.234   6.752   6.409
77080SOL    HW233138  13.277   6.883   6.347
77081SOL     OW33139  14.061  10.980  13.975
77081SOL    HW133140  14.002  10.906  13.961
77081SOL    HW233141  14.103  10.993  13.890
77082SOL     OW33142   7.517   4.875  13.107
77082SOL    HW133143   7.515   4.780  13.093
77082SOL    HW233144   7.424   4.899  13.114
77083SOL     OW33145  11.885   1.055   5.879
77083SOL    HW133146  11.869   1.148   5.891
77083SOL    HW233147  11.925   1.027   5.962
77084SOL     OW33148  14.198   7.161  12.059
77084SOL    HW133149  14.145   7.089  12.094
77084SOL    HW233150  14.264   7.118  12.004
77085SOL     OW33151   8.887  14.162   0.949
77085SOL    HW133152   8.835  14.124   1.019
77085SOL    HW233153   8.978  14.148   0.975
77086SOL     OW33154  13.083   9.414   0.967
77086SOL    HW133155  12.995   9.423   1.004
77086SOL    HW233156  13.124   9.344   1.018
77087SOL     OW33157   4.307   4.422  10.037
77087SOL    HW133158   4.360   4.452  10.111
77087SOL    HW233159   4.328   4.329  10.028
77088SOL     OW33160   6.546   5.527   7.212
77088SOL    HW133161   6.565   5.440   7.178
77088SOL    HW233162   6.519   5.512   7.303
77089SOL     OW33163   7.719   6.365   5.394
77089SOL    HW133164   7.661   6.288   5.393
77089SOL    HW233165   7.668   6.431   5.442
77090SOL     OW33166  11.494   5.274  13.155
77090SOL    HW133167  11.542   5.192  13.168
77090SOL    HW233168  11.504   5.320  13.238
77091SOL     OW33169   8.089   2.710   0.339
77091SOL    HW133170   8.065   2.787   0.287
77091SOL    HW233171   8.112   2.643   0.275
77092SOL     OW33172   3.963   1.043   5.476
77092SOL    HW133173   3.941   1.105   5.545
77092SOL    HW233174   3.893   0.977   5.480
77093SOL     OW33175  13.008   6.217   6.564
77093SOL    HW133176  13.027   6.257   6.479
77093SOL    HW233177  12.964   6.135   6.543
77094SOL     OW33178  10.635   1.396   9.431
77094SOL    HW133179  10.614   1.304   9.414
77094SOL    HW233180  10.691   1.422   9.358
77095SOL     OW33181  12.769   8.464   0.430
77095SOL    HW133182  12.856   8.463   0.471
77095SOL    HW233183  12.787   8.466   0.336
77096SOL     OW33184  10.580   3.884   6.835
77096SOL    HW133185  10.606   3.792   6.834
77096SOL    HW233186  10.607   3.917   6.749
77097SOL     OW33187  10.796   3.747   5.386
77097SOL    HW133188  10.884   3.744   5.349
77097SOL    HW233189  10.744   3.688   5.331
77098SOL     OW33190   0.603  14.692   9.154
77098SOL    HW133191   0.688  14.735   9.153
77098SOL    HW233192   0.591  14.663   9.244
77099SOL     OW33193  14.054   5.498  12.016
77099SOL    HW133194  13.968   5.466  11.986
77099SOL    HW233195  14.051   5.489  12.111
77100SOL     OW33196   6.974  11.042  10.842
77100SOL    HW133197   7.040  10.973  10.852
77100SOL    HW233198   6.897  11.009  10.890
77101SOL     OW33199  12.290   5.487  13.978
77101SOL    HW133200  12.203   5.461  13.946
77101SOL    HW233201  12.273   5.531  14.061
77102SOL     OW33202  14.630  11.180  12.302
77102SOL    HW133203  14.643  11.120  12.229
77102SOL    HW233204  14.567  11.134  12.359
77103SOL     OW33205  13.643   9.583  14.022
77103SOL    HW133206  13.598   9.548  13.945
77103SOL    HW233207  13.597   9.665  14.041
77104SOL     OW33208  14.215   0.110   7.454
77104SOL    HW133209  14.264   0.091   7.374
77104SOL    HW233210  14.262   0.184   7.493
77105SOL     OW33211  11.281   5.157  10.778
77105SOL    HW133212  11.279   5.188  10.687
77105SOL    HW233213  11.234   5.073  10.775
77106SOL     OW33214  13.556   2.771   4.448
77106SOL    HW133215  13.518   2.792   4.363
77106SOL    HW233216  13.579   2.679   4.442
77107SOL     OW33217   9.509  12.263   0.776
77107SOL    HW133218   9.493  12.234   0.866
77107SOL    HW233219   9.599  12.236   0.758
77108SOL     OW33220   4.955  10.701  12.522
77108SOL    HW133221   5.014  10.641  12.567
77108SOL    HW233222   5.010  10.746  12.458
77109SOL     OW33223  13.502  13.577  12.272
77109SOL    HW133224  13.539  13.607  12.355
77109SOL    HW233225  13.494  13.657  12.219
77110SOL     OW33226   1.091   9.720  12.755
77110SOL    HW133227   1.095   9.773  12.676
77110SOL    HW233228   1.177   9.733  12.796
77111SOL     OW33229   6.660   2.318  10.603
77111SOL    HW133230   6.711   2.264  10.542
77111SOL    HW233231   6.668   2.407  10.568
77112SOL     OW33232   7.490   7.604   8.297
77112SOL    HW133233   7.530   7.589   8.212
77112SOL    HW233234   7.418   7.541   8.302
77113SOL     OW33235   1.315  10.341   5.899
77113SOL    HW133236   1.390  10.354   5.841
77113SOL    HW233237   1.242  10.383   5.853
77114SOL     OW33238   8.332  12.489   3.880
77114SOL    HW133239   8.378  12.574   3.882
77114SOL    HW233240   8.244  12.509   3.912
77115SOL     OW33241   6.075  12.172   9.929
77115SOL    HW133242   6.092  12.263   9.953
77115SOL    HW233243   5.982  12.160   9.945
77116SOL     OW33244   8.111   2.980   3.265
77116SOL    HW133245   8.046   2.927   3.311
77116SOL    HW233246   8.061   3.056   3.234
77117SOL     OW33247   3.938   4.153   9.066
77117SOL    HW133248   3.961   4.171   8.975
77117SOL    HW233249   3.939   4.057   9.073
77118SOL     OW33250  10.955   0.242   5.810
77118SOL    HW133251  11.019   0.229   5.741
77118SOL    HW233252  10.939   0.154   5.844
77119SOL     OW33253   5.080  12.638   1.392
77119SOL    HW133254   5.145  12.707   1.385
77119SOL    HW233255   5.057  12.636   1.485
77120SOL     OW33256   0.702  11.432   8.454
77120SOL    HW133257   0.785  11.433   8.406
77120SOL    HW233258   0.722  11.475   8.537
77121SOL     OW33259   1.489   0.437   5.268
77121SOL    HW133260   1.495   0.377   5.343
77121SOL    HW233261   1.396   0.442   5.248
77122SOL     OW33262  10.936   5.172   6.721
77122SOL    HW133263  10.993   5.249   6.712
77122SOL    HW233264  10.992   5.098   6.701
77123SOL     OW33265   5.459   2.850  13.278
77123SOL    HW133266   5.511   2.865  13.199
77123SOL    HW233267   5.372   2.883  13.256
77124SOL     OW33268   9.745  12.560  14.591
77124SOL    HW133269   9.799  12.482  14.600
77124SOL    HW233270   9.789  12.611  14.522
77125SOL     OW33271   5.954   1.294  13.196
77125SOL    HW133272   5.896   1.304  13.120
77125SOL    HW233273   5.961   1.383  13.231
77126SOL     OW33274   1.792  14.521   6.924
77126SOL    HW133275   1.719  14.469   6.958
77126SOL    HW233276   1.859  14.456   6.902
77127SOL     OW33277   8.416   2.634   2.641
77127SOL    HW133278   8.331   2.679   2.636
77127SOL    HW233279   8.478   2.703   2.664
77128SOL     OW33280   6.336   4.996   7.629
77128SOL    HW133281   6.273   4.928   7.652
77128SOL    HW233282   6.355   5.041   7.712
77129SOL     OW33283  11.907   0.222   2.406
77129SOL    HW133284  11.864   0.307   2.400
77129SOL    HW233285  11.978   0.226   2.342
77130SOL     OW33286  11.716  11.348   5.851
77130SOL    HW133287  11.645  11.408   5.870
77130SOL    HW233288  11.725  11.349   5.756
77131SOL     OW33289   2.957   1.941  13.497
77131SOL    HW133290   2.873   1.905  13.469
77131SOL    HW233291   3.001   1.967  13.417
77132SOL     OW33292   8.124   3.055   8.813
77132SOL    HW133293   8.193   3.109   8.774
77132SOL    HW233294   8.069   3.029   8.739
77133SOL     OW33295   7.145  11.857   6.344
77133SOL    HW133296   7.233  11.820   6.339
77133SOL    HW233297   7.087  11.782   6.334
77134SOL     OW33298   9.360   9.575   7.254
77134SOL    HW133299   9.436   9.567   7.311
77134SOL    HW233300   9.393   9.551   7.167
77135SOL     OW33301   5.447  12.679   5.910
77135SOL    HW133302   5.439  12.759   5.858
77135SOL    HW233303   5.359  12.641   5.909
77136SOL     OW33304  10.854   4.851   2.143
77136SOL    HW133305  10.902   4.844   2.060
77136SOL    HW233306  10.903   4.917   2.193
77137SOL     OW33307   2.060   1.661   0.134
77137SOL    HW133308   2.143   1.623   0.165
77137SOL    HW233309   1.999   1.647   0.206
77138SOL     OW33310  14.706   0.644  13.213
77138SOL    HW133311  14.718   0.737  13.233
77138SOL    HW233312  14.627   0.619  13.261
77139SOL     OW33313   6.967   5.151   9.085
77139SOL    HW133314   7.033   5.085   9.061
77139SOL    HW233315   6.961   5.145   9.180
77140SOL     OW33316   3.688   1.055  12.217
77140SOL    HW133317   3.684   0.977  12.162
77140SOL    HW233318   3.771   1.047  12.263
77141SOL     OW33319   0.896  13.085   0.977
77141SOL    HW133320   0.915  13.127   0.893
77141SOL    HW233321   0.849  13.151   1.026
77142SOL     OW33322   2.598  13.124   7.731
77142SOL    HW133323   2.628  13.047   7.780
77142SOL    HW233324   2.678  13.165   7.699
77143SOL     OW33325  13.234  10.429   3.473
77143SOL    HW133326  13.265  10.446   3.561
77143SOL    HW233327  13.309  10.447   3.416
77144SOL     OW33328   1.974   4.867  10.786
77144SOL    HW133329   2.028   4.914  10.850
77144SOL    HW233330   1.973   4.777  10.817
77145SOL     OW33331   8.475   9.635   0.925
77145SOL    HW133332   8.493   9.721   0.963
77145SOL    HW233333   8.537   9.626   0.853
77146SOL     OW33334   4.739   9.003  13.056
77146SOL    HW133335   4.702   9.091  13.044
77146SOL    HW233336   4.693   8.949  12.992
77147SOL     OW33337  14.615   0.059   6.171
77147SOL    HW133338  14.691   0.002   6.179
77147SOL    HW233339  14.540  14.874   6.171
77148SOL     OW33340   3.862   5.472   5.405
77148SOL    HW133341   3.848   5.478   5.310
77148SOL    HW233342   3.788   5.421   5.437
77149SOL     OW33343   5.394   3.164  11.791
77149SOL    HW133344   5.430   3.081  11.819
77149SOL    HW233345   5.333   3.189  11.860
77150SOL     OW33346   7.702   9.760  10.481
77150SOL    HW133347   7.609   9.786  10.478
77150SOL    HW233348   7.746   9.823  10.424
77151SOL     OW33349   7.693   9.812   5.731
77151SOL    HW133350   7.764   9.752   5.705
77151SOL    HW233351   7.613   9.766   5.706
77152SOL     OW33352   5.806  14.011   0.864
77152SOL    HW133353   5.806  13.953   0.788
77152SOL    HW233354   5.729  13.985   0.914
77153SOL     OW33355   5.615   1.803   5.307
77153SOL    HW133356   5.679   1.750   5.258
77153SOL    HW233357   5.651   1.891   5.307
77154SOL     OW33358  11.162   3.536   3.926
77154SOL    HW133359  11.226   3.521   3.857
77154SOL    HW233360  11.099   3.464   3.916
77155SOL     OW33361  13.011   0.004   4.389
77155SOL    HW133362  13.028   0.097   4.377
77155SOL    HW233363  12.930  14.875   4.439
77156SOL     OW33364   6.142   1.266   0.760
77156SOL    HW133365   6.049   1.288   0.772
77156SOL    HW233366   6.172   1.323   0.690
77157SOL     OW33367   3.686   2.160  14.047
77157SOL    HW133368   3.674   2.101  13.972
77157SOL    HW233369   3.683   2.248  14.010
77158SOL     OW33370   8.400   3.924   5.847
77158SOL    HW133371   8.489   3.910   5.878
77158SOL    HW233372   8.374   3.839   5.811
77159SOL     OW33373   6.689  13.218  13.049
77159SOL    HW133374   6.771  13.203  13.002
77159SOL    HW233375   6.663  13.131  13.079
77160SOL     OW33376   5.146   3.683   8.256
77160SOL    HW133377   5.159   3.767   8.299
77160SOL    HW233378   5.212   3.680   8.188
77161SOL     OW33379  14.504   5.172   9.215
77161SOL    HW133380  14.528   5.196   9.125
77161SOL    HW233381  14.495   5.255   9.260
77162SOL     OW33382   3.940  11.836   2.928
77162SOL    HW133383   3.995  11.895   2.980
77162SOL    HW233384   3.990  11.820   2.848
77163SOL     OW33385   3.329   5.039   4.551
77163SOL    HW133386   3.413   5.011   4.515
77163SOL    HW233387   3.344   5.130   4.578
77164SOL     OW33388   0.507   3.318   8.827
77164SOL    HW133389   0.565   3.252   8.865
77164SOL    HW233390   0.472   3.277   8.748
77165SOL     OW33391   3.008  11.513   5.101
77165SOL    HW133392   2.934  11.560   5.139
77165SOL    HW233393   3.082  11.572   5.112
77166SOL     OW33394   7.542   9.902   2.803
77166SOL    HW133395   7.615   9.858   2.845
77166SOL    HW233396   7.488   9.831   2.767
77167SOL     OW33397   1.817   4.651   6.494
77167SOL    HW133398   1.763   4.722   6.529
77167SOL    HW233399   1.873   4.692   6.429
77168SOL     OW33400   2.795  13.026   0.537
77168SOL    HW133401   2.782  13.117   0.565
77168SOL    HW233402   2.780  13.027   0.443
77169SOL     OW33403  11.953   6.230   3.470
77169SOL    HW133404  11.946   6.320   3.502
77169SOL    HW233405  11.946   6.238   3.375
77170SOL     OW33406  14.225   7.115  12.689
77170SOL    HW133407  14.232   7.178  12.618
77170SOL    HW233408  14.301   7.132  12.745
77171SOL     OW33409   7.751   6.941   1.207
77171SOL    HW133410   7.783   7.025   1.241
77171SOL    HW233411   7.665   6.930   1.247
77172SOL     OW33412  10.042   4.018   6.280
77172SOL    HW133413  10.011   4.091   6.334
77172SOL    HW233414  10.067   4.059   6.197
77173SOL     OW33415   0.163   9.968   8.752
77173SOL    HW133416   0.088  10.004   8.705
77173SOL    HW233417   0.127   9.932   8.833
77174SOL     OW33418   3.833   1.847   8.180
77174SOL    HW133419   3.851   1.787   8.252
77174SOL    HW233420   3.809   1.929   8.223
77175SOL     OW33421   3.563   5.902  10.555
77175SOL    HW133422   3.559   5.894  10.460
77175SOL    HW233423   3.589   5.993  10.571
77176SOL     OW33424   7.014  10.769  12.070
77176SOL    HW133425   6.925  10.775  12.106
77176SOL    HW233426   7.014  10.685  12.023
77177SOL     OW33427   5.237  12.779   4.224
77177SOL    HW133428   5.318  12.760   4.272
77177SOL    HW233429   5.187  12.697   4.227
77178SOL     OW33430  14.331  12.054  11.623
77178SOL    HW133431  14.363  12.107  11.696
77178SOL    HW233432  14.341  11.963  11.653
77179SOL     OW33433  13.454   1.861  10.282
77179SOL    HW133434  13.476   1.938  10.229
77179SOL    HW233435  13.408   1.896  10.358
77180SOL     OW33436   7.974  13.122   1.092
77180SOL    HW133437   8.019  13.166   1.019
77180SOL    HW233438   7.891  13.095   1.054
77181SOL     OW33439   3.859   7.200  11.221
77181SOL    HW133440   3.872   7.293  11.235
77181SOL    HW233441   3.926   7.157  11.274
77182SOL     OW33442   4.357  11.885   5.377
77182SOL    HW133443   4.344  11.876   5.283
77182SOL    HW233444   4.448  11.915   5.386
77183SOL     OW33445  11.583   6.906   0.208
77183SOL    HW133446  11.506   6.893   0.153
77183SOL    HW233447  11.597   6.821   0.251
77184SOL     OW33448   5.712   0.530   6.865
77184SOL    HW133449   5.664   0.571   6.937
77184SOL    HW233450   5.676   0.570   6.786
77185SOL     OW33451   4.247   6.512   2.270
77185SOL    HW133452   4.226   6.420   2.255
77185SOL    HW233453   4.203   6.534   2.353
77186SOL     OW33454   1.615   1.156   9.508
77186SOL    HW133455   1.597   1.100   9.432
77186SOL    HW233456   1.624   1.244   9.471
77187SOL     OW33457   7.644   7.478   5.138
77187SOL    HW133458   7.569   7.456   5.082
77187SOL    HW233459   7.630   7.569   5.162
77188SOL     OW33460   3.156   8.382   3.404
77188SOL    HW133461   3.194   8.321   3.468
77188SOL    HW233462   3.082   8.421   3.450
77189SOL     OW33463   0.041   9.983  14.688
77189SOL    HW133464  14.843  10.032  14.649
77189SOL    HW233465   0.017   9.973  14.780
77190SOL     OW33466   4.680   9.219   9.964
77190SOL    HW133467   4.648   9.161   9.895
77190SOL    HW233468   4.672   9.167  10.045
77191SOL     OW33469   7.932   6.325   2.007
77191SOL    HW133470   7.971   6.376   1.936
77191SOL    HW233471   7.907   6.242   1.965
77192SOL     OW33472   0.134   8.522  11.786
77192SOL    HW133473   0.164   8.442  11.742
77192SOL    HW233474   0.092   8.573  11.717
77193SOL     OW33475  11.823  13.609   3.839
77193SOL    HW133476  11.770  13.539   3.876
77193SOL    HW233477  11.767  13.651   3.774
77194SOL     OW33478   4.797   2.090  11.095
77194SOL    HW133479   4.743   2.114  11.170
77194SOL    HW233480   4.861   2.161  11.087
77195SOL     OW33481   6.654   8.841   6.926
77195SOL    HW133482   6.587   8.895   6.884
77195SOL    HW233483   6.607   8.762   6.953
77196SOL     OW33484   0.163   2.329  10.251
77196SOL    HW133485   0.131   2.303  10.164
77196SOL    HW233486   0.216   2.256  10.280
77197SOL     OW33487   3.278  11.396  10.187
77197SOL    HW133488   3.297  11.389  10.094
77197SOL    HW233489   3.183  11.382  10.193
77198SOL     OW33490   3.622   7.917   5.992
77198SOL    HW133491   3.593   7.984   6.055
77198SOL    HW233492   3.637   7.964   5.911
77199SOL     OW33493   7.794  11.815   0.303
77199SOL    HW133494   7.733  11.845   0.370
77199SOL    HW233495   7.844  11.893   0.280
77200SOL     OW33496   3.897  11.581   3.658
77200SOL    HW133497   3.955  11.642   3.703
77200SOL    HW233498   3.883  11.619   3.571
77201SOL     OW33499  11.988   2.308  14.028
77201SOL    HW133500  11.970   2.218  14.054
77201SOL    HW233501  11.903   2.344  14.004
77202SOL     OW33502   9.642  12.903  12.349
77202SOL    HW133503   9.645  12.890  12.444
77202SOL    HW233504   9.565  12.855  12.320
77203SOL     OW33505  14.422   7.206  10.351
77203SOL    HW133506  14.486   7.147  10.312
77203SOL    HW233507  14.412   7.276  10.287
77204SOL     OW33508   8.993   3.749  10.052
77204SOL    HW133509   8.946   3.750  10.136
77204SOL    HW233510   9.084   3.731  10.076
77205SOL     OW33511  11.584   3.934   0.850
77205SOL    HW133512  11.590   3.856   0.794
77205SOL    HW233513  11.516   3.913   0.914
77206SOL     OW33514  12.308   8.579  10.290
77206SOL    HW133515  12.319   8.656  10.234
77206SOL    HW233516  12.310   8.614  10.379
77207SOL     OW33517   2.389   7.108   4.330
77207SOL    HW133518   2.329   7.050   4.377
77207SOL    HW233519   2.464   7.052   4.308
77208SOL     OW33520  13.810   8.639   8.925
77208SOL    HW133521  13.832   8.650   9.018
77208SOL    HW233522  13.772   8.551   8.920
77209SOL     OW33523   2.688   5.214   2.855
77209SOL    HW133524   2.724   5.158   2.787
77209SOL    HW233525   2.641   5.283   2.808
77210SOL     OW33526   3.132  13.363  11.500
77210SOL    HW133527   3.051  13.315  11.485
77210SOL    HW233528   3.120  13.446  11.453
77211SOL     OW33529  11.238   6.378   8.645
77211SOL    HW133530  11.286   6.367   8.727
77211SOL    HW233531  11.213   6.470   8.643
77212SOL     OW33532   0.892  10.426   7.366
77212SOL    HW133533   0.876  10.482   7.441
77212SOL    HW233534   0.807  10.388   7.346
77213SOL     OW33535   9.093  13.301   0.438
77213SOL    HW133536   9.104  13.207   0.423
77213SOL    HW233537   9.121  13.314   0.529
77214SOL     OW33538  10.819  10.247   2.353
77214SOL    HW133539  10.827  10.296   2.272
77214SOL    HW233540  10.886  10.179   2.347
77215SOL     OW33541   8.563  13.596   2.617
77215SOL    HW133542   8.559  13.692   2.621
77215SOL    HW233543   8.489  13.571   2.562
77216SOL     OW33544   4.595   6.549   8.373
77216SOL    HW133545   4.586   6.519   8.283
77216SOL    HW233546   4.506   6.554   8.406
77217SOL     OW33547   7.118  12.500   6.752
77217SOL    HW133548   7.044  12.534   6.802
77217SOL    HW233549   7.189  12.494   6.817
77218SOL     OW33550  14.428   8.752   5.927
77218SOL    HW133551  14.433   8.727   5.835
77218SOL    HW233552  14.507   8.805   5.941
77219SOL     OW33553   5.449   5.341   0.875
77219SOL    HW133554   5.354   5.332   0.866
77219SOL    HW233555   5.460   5.413   0.938
77220SOL     OW33556  13.640   8.433   3.443
77220SOL    HW133557  13.549   8.402   3.441
77220SOL    HW233558  13.666   8.436   3.351
77221SOL     OW33559  13.788   1.150   3.164
77221SOL    HW133560  13.732   1.202   3.220
77221SOL    HW233561  13.876   1.159   3.202
77222SOL     OW33562   0.847   2.828   6.612
77222SOL    HW133563   0.891   2.746   6.592
77222SOL    HW233564   0.914   2.895   6.602
77223SOL     OW33565   4.003   5.369  11.620
77223SOL    HW133566   4.063   5.296  11.636
77223SOL    HW233567   3.935   5.360  11.687
77224SOL     OW33568   7.076   6.773   8.444
77224SOL    HW133569   7.113   6.836   8.505
77224SOL    HW233570   6.984   6.797   8.436
77225SOL     OW33571   2.134  12.016   6.918
77225SOL    HW133572   2.106  12.030   6.827
77225SOL    HW233573   2.223  11.982   6.910
77226SOL     OW33574   6.206   1.039   7.324
77226SOL    HW133575   6.175   1.097   7.254
77226SOL    HW233576   6.297   1.020   7.300
77227SOL     OW33577  11.796   6.630   2.152
77227SOL    HW133578  11.775   6.707   2.099
77227SOL    HW233579  11.726   6.626   2.217
77228SOL     OW33580   2.724   1.264  10.758
77228SOL    HW133581   2.743   1.205  10.685
77228SOL    HW233582   2.805   1.266  10.809
77229SOL     OW33583   0.248   5.975   3.374
77229SOL    HW133584   0.198   5.893   3.378
77229SOL    HW233585   0.222   6.014   3.290
77230SOL     OW33586   2.720  12.902   5.515
77230SOL    HW133587   2.710  12.892   5.421
77230SOL    HW233588   2.813  12.918   5.528
77231SOL     OW33589   8.337  12.639   0.731
77231SOL    HW133590   8.251  12.638   0.690
77231SOL    HW233591   8.397  12.667   0.662
77232SOL     OW33592   1.223   6.211   3.449
77232SOL    HW133593   1.149   6.219   3.510
77232SOL    HW233594   1.233   6.117   3.435
77233SOL     OW33595   0.009   6.568  11.110
77233SOL    HW133596   0.064   6.572  11.188
77233SOL    HW233597   0.043   6.493  11.061
77234SOL     OW33598   6.234  12.175   2.451
77234SOL    HW133599   6.270  12.263   2.460
77234SOL    HW233600   6.188  12.177   2.367
77235SOL     OW33601  10.139  10.023   3.914
77235SOL    HW133602  10.215  10.031   3.857
77235SOL    HW233603  10.065  10.014   3.855
77236SOL     OW33604   0.176   1.790   3.767
77236SOL    HW133605   0.225   1.872   3.770
77236SOL    HW233606   0.228   1.732   3.711
77237SOL     OW33607   7.613   3.741   0.137
77237SOL    HW133608   7.672   3.731   0.212
77237SOL    HW233609   7.525   3.734   0.174
77238SOL     OW33610   7.069   6.630   6.135
77238SOL    HW133611   6.998   6.565   6.137
77238SOL    HW233612   7.024   6.714   6.135
77239SOL     OW33613  12.665   5.574   1.007
77239SOL    HW133614  12.570   5.564   1.019
77239SOL    HW233615  12.690   5.500   0.952
77240SOL     OW33616   3.741   1.105   0.984
77240SOL    HW133617   3.754   1.081   0.892
77240SOL    HW233618   3.654   1.071   1.004
77241SOL     OW33619   3.901   0.130   9.144
77241SOL    HW133620   3.884   0.220   9.115
77241SOL    HW233621   3.830   0.111   9.206
77242SOL     OW33622   1.605   5.183   5.974
77242SOL    HW133623   1.555   5.231   5.908
77242SOL    HW233624   1.617   5.245   6.046
77243SOL     OW33625   1.515   6.353  11.207
77243SOL    HW133626   1.468   6.331  11.288
77243SOL    HW233627   1.596   6.395  11.238
77244SOL     OW33628   5.931   0.224   8.332
77244SOL    HW133629   6.014   0.213   8.285
77244SOL    HW233630   5.901   0.134   8.348
77245SOL     OW33631   4.633   5.435   7.909
77245SOL    HW133632   4.604   5.395   7.827
77245SOL    HW233633   4.726   5.455   7.894
77246SOL     OW33634   4.733  13.681   5.162
77246SOL    HW133635   4.671  13.611   5.180
77246SOL    HW233636   4.799  13.673   5.231
77247SOL     OW33637   6.323  11.192   3.433
77247SOL    HW133638   6.262  11.183   3.360
77247SOL    HW233639   6.389  11.254   3.402
77248SOL     OW33640   2.512   0.523  14.717
77248SOL    HW133641   2.527   0.474  14.798
77248SOL    HW233642   2.570   0.599  14.724
77249SOL     OW33643   3.243  13.877  13.171
77249SOL    HW133644   3.295  13.933  13.227
77249SOL    HW233645   3.305  13.843  13.106
77250SOL     OW33646   1.186   5.619   8.214
77250SOL    HW133647   1.102   5.573   8.210
77250SOL    HW233648   1.240   5.577   8.148
77251SOL     OW33649  12.730  11.661  14.145
77251SOL    HW133650  12.758  11.626  14.230
77251SOL    HW233651  12.646  11.617  14.128
77252SOL     OW33652   3.544   9.331   9.166
77252SOL    HW133653   3.514   9.405   9.113
77252SOL    HW233654   3.573   9.266   9.103
77253SOL     OW33655   2.555   8.990  14.737
77253SOL    HW133656   2.630   8.930  14.729
77253SOL    HW233657   2.506   8.956  14.811
77254SOL     OW33658   0.227   7.690   1.546
77254SOL    HW133659   0.222   7.654   1.457
77254SOL    HW233660   0.137   7.684   1.579
77255SOL     OW33661  14.552  13.026   8.664
77255SOL    HW133662  14.554  13.102   8.606
77255SOL    HW233663  14.583  12.953   8.609
77256SOL     OW33664   8.370   3.144  11.910
77256SOL    HW133665   8.421   3.222  11.891
77256SOL    HW233666   8.309   3.171  11.978
77257SOL     OW33667   8.977   7.119   9.644
77257SOL    HW133668   9.048   7.081   9.696
77257SOL    HW233669   8.951   7.049   9.584
77258SOL     OW33670   6.665  10.780   5.789
77258SOL    HW133671   6.721  10.845   5.831
77258SOL    HW233672   6.708  10.761   5.706
77259SOL     OW33673  13.375   6.732   8.769
77259SOL    HW133674  13.443   6.787   8.731
77259SOL    HW233675  13.410   6.707   8.855
77260SOL     OW33676   3.225  10.264   5.887
77260SOL    HW133677   3.145  10.239   5.933
77260SOL    HW233678   3.255  10.184   5.844
77261SOL     OW33679  13.449   5.163   6.913
77261SOL    HW133680  13.468   5.251   6.881
77261SOL    HW233681  13.535   5.128   6.937
77262SOL     OW33682   1.957   9.603   8.007
77262SOL    HW133683   1.921   9.687   7.979
77262SOL    HW233684   1.948   9.603   8.102
77263SOL     OW33685   7.698   4.558  10.389
77263SOL    HW133686   7.791   4.576  10.404
77263SOL    HW233687   7.660   4.645  10.378
77264SOL     OW33688   2.288   1.334  14.149
77264SOL    HW133689   2.224   1.267  14.127
77264SOL    HW233690   2.244   1.390  14.213
77265SOL     OW33691   0.984   9.367  11.623
77265SOL    HW133692   1.069   9.346  11.664
77265SOL    HW233693   0.949   9.281  11.597
77266SOL     OW33694   0.282   1.925   2.467
77266SOL    HW133695   0.293   1.906   2.561
77266SOL    HW233696   0.242   1.846   2.431
77267SOL     OW33697  12.254   9.186   7.831
77267SOL    HW133698  12.178   9.194   7.888
77267SOL    HW233699  12.252   9.095   7.801
77268SOL     OW33700   8.296   8.639   3.046
77268SOL    HW133701   8.231   8.651   3.115
77268SOL    HW233702   8.299   8.545   3.032
77269SOL     OW33703  13.919   8.847   1.713
77269SOL    HW133704  13.960   8.775   1.761
77269SOL    HW233705  13.833   8.813   1.688
77270SOL     OW33706   1.107   4.281   8.647
77270SOL    HW133707   1.057   4.271   8.566
77270SOL    HW233708   1.077   4.210   8.703
77271SOL     OW33709   5.694   7.923  10.204
77271SOL    HW133710   5.722   7.840  10.241
77271SOL    HW233711   5.599   7.916  10.200
77272SOL     OW33712  10.551   3.324   6.873
77272SOL    HW133713  10.456   3.312   6.860
77272SOL    HW233714  10.582   3.238   6.899
77273SOL     OW33715   8.895   5.374   0.681
77273SOL    HW133716   8.907   5.469   0.677
77273SOL    HW233717   8.940   5.348   0.761
77274SOL     OW33718   9.291   9.036  13.046
77274SOL    HW133719   9.220   9.052  13.108
77274SOL    HW233720   9.356   8.986  13.096
77275SOL     OW33721  13.074   7.117   6.552
77275SOL    HW133722  13.002   7.155   6.602
77275SOL    HW233723  13.042   7.031   6.525
77276SOL     OW33724   9.643   5.838   2.461
77276SOL    HW133725   9.693   5.914   2.429
77276SOL    HW233726   9.621   5.861   2.551
77277SOL     OW33727   9.987   9.097   8.257
77277SOL    HW133728  10.082   9.086   8.264
77277SOL    HW233729   9.962   9.043   8.182
77278SOL     OW33730  13.858  12.130   6.765
77278SOL    HW133731  13.807  12.116   6.685
77278SOL    HW233732  13.913  12.207   6.745
77279SOL     OW33733   4.491   4.621   2.001
77279SOL    HW133734   4.396   4.637   2.007
77279SOL    HW233735   4.519   4.672   1.925
77280SOL     OW33736  11.516   2.901   5.196
77280SOL    HW133737  11.485   2.977   5.147
77280SOL    HW233738  11.472   2.907   5.281
77281SOL     OW33739   9.778   4.829  10.980
77281SOL    HW133740   9.737   4.846  11.065
77281SOL    HW233741   9.853   4.772  11.000
77282SOL     OW33742  13.291   9.618  12.767
77282SOL    HW133743  13.292   9.579  12.855
77282SOL    HW233744  13.206   9.593  12.731
77283SOL     OW33745   9.673   1.231   2.656
77283SOL    HW133746   9.737   1.181   2.706
77283SOL    HW233747   9.597   1.237   2.714
77284SOL     OW33748   0.789   7.285  12.386
77284SOL    HW133749   0.717   7.284  12.323
77284SOL    HW233750   0.826   7.196  12.380
77285SOL     OW33751   1.314   9.544   0.881
77285SOL    HW133752   1.305   9.617   0.820
77285SOL    HW233753   1.281   9.579   0.964
77286SOL     OW33754   0.851  12.852   4.340
77286SOL    HW133755   0.848  12.781   4.405
77286SOL    HW233756   0.859  12.932   4.393
77287SOL     OW33757   5.649   8.753  14.147
77287SOL    HW133758   5.569   8.720  14.186
77287SOL    HW233759   5.625   8.837  14.109
77288SOL     OW33760  12.626   5.080   2.550
77288SOL    HW133761  12.590   5.168   2.561
77288SOL    HW233762  12.610   5.060   2.458
77289SOL     OW33763  13.127   9.921   0.357
77289SOL    HW133764  13.222   9.912   0.366
77289SOL    HW233765  13.095   9.832   0.346
77290SOL     OW33766   1.818   4.704  14.133
77290SOL    HW133767   1.910   4.700  14.162
77290SOL    HW233768   1.821   4.752  14.051
77291SOL     OW33769   7.508   8.838   3.269
77291SOL    HW133770   7.486   8.780   3.342
77291SOL    HW233771   7.435   8.827   3.208
77292SOL     OW33772   7.186   7.401  13.159
77292SOL    HW133773   7.156   7.476  13.108
77292SOL    HW233774   7.106   7.353  13.180
77293SOL     OW33775  13.881   1.960  10.747
77293SOL    HW133776  13.831   2.009  10.682
77293SOL    HW233777  13.904   1.879  10.703
77294SOL     OW33778   9.924   8.995   6.828
77294SOL    HW133779   9.968   9.071   6.867
77294SOL    HW233780   9.879   9.030   6.751
77295SOL     OW33781   1.597   6.893   2.023
77295SOL    HW133782   1.619   6.802   2.044
77295SOL    HW233783   1.502   6.894   2.015
77296SOL     OW33784   3.251  13.073   0.635
77296SOL    HW133785   3.310  13.116   0.573
77296SOL    HW233786   3.303  13.000   0.670
77297SOL     OW33787   2.765   6.189   4.059
77297SOL    HW133788   2.766   6.254   4.130
77297SOL    HW233789   2.848   6.142   4.069
77298SOL     OW33790   0.421  13.074   8.947
77298SOL    HW133791   0.439  13.168   8.942
77298SOL    HW233792   0.389  13.061   9.037
77299SOL     OW33793   3.177   1.431   6.432
77299SOL    HW133794   3.255   1.395   6.473
77299SOL    HW233795   3.148   1.500   6.492
77300SOL     OW33796   0.992  10.851   3.820
77300SOL    HW133797   1.000  10.924   3.882
77300SOL    HW233798   0.899  10.828   3.823
77301SOL     OW33799   4.155   5.855   0.130
77301SOL    HW133800   4.230   5.811   0.171
77301SOL    HW233801   4.159   5.945   0.162
77302SOL     OW33802   2.105  10.898  10.337
77302SOL    HW133803   2.021  10.853  10.340
77302SOL    HW233804   2.168  10.831  10.314
77303SOL     OW33805   6.048  13.982  10.411
77303SOL    HW133806   6.017  13.969  10.322
77303SOL    HW233807   6.143  13.978  10.404
77304SOL     OW33808   7.123  14.449   3.940
77304SOL    HW133809   7.207  14.469   3.982
77304SOL    HW233810   7.146  14.432   3.849
77305SOL     OW33811   2.656  13.808  12.018
77305SOL    HW133812   2.642  13.787  12.110
77305SOL    HW233813   2.635  13.901  12.011
77306SOL     OW33814   5.184   4.215   1.074
77306SOL    HW133815   5.219   4.146   1.130
77306SOL    HW233816   5.126   4.265   1.132
77307SOL     OW33817   2.800   5.634   7.572
77307SOL    HW133818   2.890   5.642   7.540
77307SOL    HW233819   2.747   5.682   7.508
77308SOL     OW33820   7.412   0.877   2.469
77308SOL    HW133821   7.332   0.923   2.497
77308SOL    HW233822   7.461   0.863   2.549
77309SOL     OW33823   3.449   3.804  12.312
77309SOL    HW133824   3.499   3.726  12.333
77309SOL    HW233825   3.399   3.823  12.391
77310SOL     OW33826  13.781  13.070   0.674
77310SOL    HW133827  13.842  13.086   0.746
77310SOL    HW233828  13.791  13.147   0.617
77311SOL     OW33829   4.713  10.649   5.573
77311SOL    HW133830   4.709  10.744   5.588
77311SOL    HW233831   4.807  10.631   5.563
77312SOL     OW33832   5.296   7.521   7.833
77312SOL    HW133833   5.213   7.499   7.790
77312SOL    HW233834   5.312   7.449   7.893
77313SOL     OW33835   0.223   7.978  12.705
77313SOL    HW133836   0.169   8.057  12.699
77313SOL    HW233837   0.301   7.998  12.654
77314SOL     OW33838   3.729   9.872   9.937
77314SOL    HW133839   3.818   9.869   9.903
77314SOL    HW233840   3.715   9.964   9.958
77315SOL     OW33841   7.358   5.547   9.444
77315SOL    HW133842   7.432   5.503   9.486
77315SOL    HW233843   7.397   5.624   9.402
77316SOL     OW33844   0.687  12.300   1.339
77316SOL    HW133845   0.596  12.314   1.364
77316SOL    HW233846   0.705  12.366   1.273
77317SOL     OW33847  10.288   0.871   5.081
77317SOL    HW133848  10.224   0.878   5.151
77317SOL    HW233849  10.372   0.891   5.122
77318SOL     OW33850   3.985   8.787  11.762
77318SOL    HW133851   3.991   8.879  11.788
77318SOL    HW233852   4.053   8.777  11.696
77319SOL     OW33853   2.836   4.867   1.903
77319SOL    HW133854   2.801   4.841   1.988
77319SOL    HW233855   2.829   4.788   1.849
77320SOL     OW33856   8.984   0.603  10.490
77320SOL    HW133857   9.038   0.667  10.536
77320SOL    HW233858   9.017   0.603  10.400
77321SOL     OW33859   9.142   3.062   3.472
77321SOL    HW133860   9.060   3.067   3.422
77321SOL    HW233861   9.206   3.028   3.409
77322SOL     OW33862   3.315   1.508  10.529
77322SOL    HW133863   3.253   1.537  10.596
77322SOL    HW233864   3.353   1.589  10.495
77323SOL     OW33865  13.708   1.527   5.557
77323SOL    HW133866  13.655   1.449   5.542
77323SOL    HW233867  13.791   1.510   5.512
77324SOL     OW33868   6.594   4.227   4.897
77324SOL    HW133869   6.525   4.239   4.831
77324SOL    HW233870   6.551   4.250   4.979
77325SOL     OW33871  13.017   6.416   0.348
77325SOL    HW133872  13.093   6.474   0.338
77325SOL    HW233873  12.960   6.462   0.409
77326SOL     OW33874   0.074  14.578  10.725
77326SOL    HW133875   0.088  14.485  10.708
77326SOL    HW233876   0.099  14.621  10.643
77327SOL     OW33877  11.803  10.889  12.175
77327SOL    HW133878  11.758  10.842  12.104
77327SOL    HW233879  11.896  10.874  12.158
77328SOL     OW33880   6.616   2.578   9.721
77328SOL    HW133881   6.572   2.608   9.800
77328SOL    HW233882   6.599   2.484   9.718
77329SOL     OW33883   2.182  14.316   5.890
77329SOL    HW133884   2.246  14.387   5.895
77329SOL    HW233885   2.199  14.262   5.968
77330SOL     OW33886   6.776  13.117   4.700
77330SOL    HW133887   6.820  13.185   4.650
77330SOL    HW233888   6.788  13.142   4.792
77331SOL     OW33889   8.381   8.877   5.319
77331SOL    HW133890   8.458   8.927   5.346
77331SOL    HW233891   8.351   8.834   5.400
77332SOL     OW33892   8.306  10.544   7.127
77332SOL    HW133893   8.260  10.628   7.133
77332SOL    HW233894   8.347  10.544   7.041
77333SOL     OW33895   9.456   5.087   0.860
77333SOL    HW133896   9.419   5.013   0.909
77333SOL    HW233897   9.393   5.158   0.873
77334SOL     OW33898   5.193   1.615   8.326
77334SOL    HW133899   5.152   1.530   8.306
77334SOL    HW233900   5.139   1.651   8.396
77335SOL     OW33901   3.505   7.604  12.271
77335SOL    HW133902   3.427   7.653  12.298
77335SOL    HW233903   3.556   7.667  12.220
77336SOL     OW33904   5.364  14.017  12.281
77336SOL    HW133905   5.416  13.986  12.207
77336SOL    HW233906   5.308  13.943  12.303
77337SOL     OW33907  13.754   5.483   1.724
77337SOL    HW133908  13.825   5.539   1.755
77337SOL    HW233909  13.740   5.510   1.633
77338SOL     OW33910   1.233   2.684   5.401
77338SOL    HW133911   1.295   2.697   5.474
77338SOL    HW233912   1.147   2.698   5.440
77339SOL     OW33913   4.772   2.178  12.742
77339SOL    HW133914   4.717   2.246  12.704
77339SOL    HW233915   4.761   2.103  12.683
77340SOL     OW33916  10.114  14.533   4.282
77340SOL    HW133917  10.028  14.529   4.240
77340SOL    HW233918  10.158  14.453   4.254
77341SOL     OW33919   9.424   7.881   6.315
77341SOL    HW133920   9.394   7.791   6.320
77341SOL    HW233921   9.363   7.930   6.369
77342SOL     OW33922  14.478   7.883   0.898
77342SOL    HW133923  14.571   7.904   0.887
77342SOL    HW233924  14.451   7.936   0.973
77343SOL     OW33925   6.614  10.069   1.066
77343SOL    HW133926   6.623  10.056   1.161
77343SOL    HW233927   6.519  10.076   1.052
77344SOL     OW33928   8.792   8.435   0.228
77344SOL    HW133929   8.751   8.495   0.166
77344SOL    HW233930   8.731   8.362   0.236
77345SOL     OW33931   3.011   2.318  14.071
77345SOL    HW133932   2.946   2.250  14.054
77345SOL    HW233933   3.053   2.291  14.153
77346SOL     OW33934   4.305   8.286   3.985
77346SOL    HW133935   4.398   8.265   3.982
77346SOL    HW233936   4.300   8.362   4.044
77347SOL     OW33937   4.782   4.767   5.071
77347SOL    HW133938   4.858   4.780   5.128
77347SOL    HW233939   4.813   4.706   5.004
77348SOL     OW33940  12.362   2.357  12.887
77348SOL    HW133941  12.456   2.351  12.903
77348SOL    HW233942  12.322   2.333  12.971
77349SOL     OW33943   2.811   2.229   1.073
77349SOL    HW133944   2.886   2.274   1.113
77349SOL    HW233945   2.797   2.275   0.990
77350SOL     OW33946  14.575   1.692  14.049
77350SOL    HW133947  14.657   1.724  14.086
77350SOL    HW233948  14.531   1.771  14.016
77351SOL     OW33949  12.628   7.263   6.434
77351SOL    HW133950  12.618   7.221   6.520
77351SOL    HW233951  12.630   7.356   6.454
77352SOL     OW33952   1.908  13.454  12.030
77352SOL    HW133953   1.898  13.532  11.975
77352SOL    HW233954   1.843  13.392  11.997
77353SOL     OW33955   5.447  12.613  13.957
77353SOL    HW133956   5.480  12.687  14.008
77353SOL    HW233957   5.377  12.576  14.012
77354SOL     OW33958   1.123  10.856   9.846
77354SOL    HW133959   1.040  10.814   9.825
77354SOL    HW233960   1.105  10.910   9.923
77355SOL     OW33961   6.029  12.162  11.918
77355SOL    HW133962   6.064  12.096  11.859
77355SOL    HW233963   6.041  12.245  11.871
77356SOL     OW33964   4.238  14.465  10.583
77356SOL    HW133965   4.187  14.473  10.502
77356SOL    HW233966   4.173  14.470  10.653
77357SOL     OW33967   4.176  12.275   6.159
77357SOL    HW133968   4.198  12.360   6.122
77357SOL    HW233969   4.080  12.273   6.159
77358SOL     OW33970   1.580  12.327   6.022
77358SOL    HW133971   1.578  12.374   5.939
77358SOL    HW233972   1.495  12.283   6.028
77359SOL     OW33973   9.839  14.249  10.389
77359SOL    HW133974   9.868  14.309  10.320
77359SOL    HW233975   9.921  14.218  10.429
77360SOL     OW33976   8.842  13.689   2.551
77360SOL    HW133977   8.779  13.754   2.522
77360SOL    HW233978   8.836  13.619   2.486
77361SOL     OW33979   3.012  12.744   3.760
77361SOL    HW133980   3.096  12.746   3.714
77361SOL    HW233981   2.950  12.786   3.699
77362SOL     OW33982   6.870   5.971   0.483
77362SOL    HW133983   6.825   5.956   0.400
77362SOL    HW233984   6.961   5.986   0.459
77363SOL     OW33985  13.051  12.487   9.634
77363SOL    HW133986  13.040  12.575   9.598
77363SOL    HW233987  13.145  12.471   9.630
77364SOL     OW33988   6.776  14.265   7.012
77364SOL    HW133989   6.847  14.310   7.057
77364SOL    HW233990   6.785  14.173   7.038
77365SOL     OW33991  13.542   2.052   6.986
77365SOL    HW133992  13.622   2.093   6.953
77365SOL    HW233993  13.545   1.963   6.948
77366SOL     OW33994   6.663  13.826   2.066
77366SOL    HW133995   6.624  13.851   1.982
77366SOL    HW233996   6.669  13.908   2.115
77367SOL     OW33997   5.960   6.604   8.346
77367SOL    HW133998   5.909   6.649   8.279
77367SOL    HW233999   5.897   6.546   8.389
77368SOL     OW34000   9.331   0.874   3.014
77368SOL    HW134001   9.255   0.926   2.989
77368SOL    HW234002   9.400   0.939   3.027
77369SOL     OW34003   7.182  13.306   6.063
77369SOL    HW134004   7.179  13.216   6.095
77369SOL    HW234005   7.169  13.360   6.141
77370SOL     OW34006  14.872   1.545   0.094
77370SOL    HW134007  14.795   1.594   0.122
77370SOL    HW234008   0.016   1.485   0.166
77371SOL     OW34009   7.156  13.084   6.257
77371SOL    HW134010   7.235  13.066   6.309
77371SOL    HW234011   7.108  13.149   6.308
77372SOL     OW34012  13.065  11.260   0.138
77372SOL    HW134013  13.002  11.296   0.201
77372SOL    HW234014  13.062  11.321   0.064
77373SOL     OW34015  13.092   2.032   4.961
77373SOL    HW134016  13.093   2.007   4.868
77373SOL    HW234017  13.181   2.016   4.991
77374SOL     OW34018   1.844   1.955   2.007
77374SOL    HW134019   1.758   1.930   1.975
77374SOL    HW234020   1.846   1.924   2.098
77375SOL     OW34021   1.209   1.855   8.609
77375SOL    HW134022   1.209   1.824   8.518
77375SOL    HW234023   1.127   1.820   8.645
77376SOL     OW34024   9.445   4.358   7.298
77376SOL    HW134025   9.490   4.274   7.309
77376SOL    HW234026   9.496   4.405   7.233
77377SOL     OW34027   8.037   8.024   8.496
77377SOL    HW134028   8.001   7.935   8.498
77377SOL    HW234029   7.978   8.074   8.552
77378SOL     OW34030  13.984   1.833   7.590
77378SOL    HW134031  14.021   1.758   7.544
77378SOL    HW234032  14.031   1.836   7.673
77379SOL     OW34033   3.022   0.267   0.627
77379SOL    HW134034   2.951   0.308   0.578
77379SOL    HW234035   2.977   0.207   0.688
77380SOL     OW34036   0.063   3.686   1.596
77380SOL    HW134037   0.124   3.616   1.572
77380SOL    HW234038   0.119   3.763   1.609
77381SOL     OW34039   0.401   1.383   0.357
77381SOL    HW134040   0.361   1.401   0.271
77381SOL    HW234041   0.436   1.467   0.385
77382SOL     OW34042   1.540   9.773  12.725
77382SOL    HW134043   1.557   9.822  12.644
77382SOL    HW234044   1.624   9.769  12.769
77383SOL     OW34045  11.152   8.698   9.511
77383SOL    HW134046  11.218   8.637   9.545
77383SOL    HW234047  11.083   8.697   9.576
77384SOL     OW34048  14.388   4.340   6.491
77384SOL    HW134049  14.318   4.305   6.435
77384SOL    HW234050  14.342   4.383   6.563
77385SOL     OW34051  10.896   7.148   4.589
77385SOL    HW134052  10.941   7.067   4.567
77385SOL    HW234053  10.882   7.191   4.505
77386SOL     OW34054  13.327   1.736   8.970
77386SOL    HW134055  13.299   1.821   8.937
77386SOL    HW234056  13.247   1.697   9.005
77387SOL     OW34057  14.117  12.748   0.208
77387SOL    HW134058  14.172  12.672   0.191
77387SOL    HW234059  14.144  12.813   0.143
77388SOL     OW34060   8.801   0.850   0.953
77388SOL    HW134061   8.724   0.806   0.916
77388SOL    HW234062   8.816   0.806   1.037
77389SOL     OW34063   1.979   3.321   1.829
77389SOL    HW134064   1.924   3.391   1.791
77389SOL    HW234065   1.939   3.240   1.798
77390SOL     OW34066   9.979  10.019  11.344
77390SOL    HW134067  10.069  10.050  11.342
77390SOL    HW234068   9.950  10.034  11.434
77391SOL     OW34069   9.853  12.959   2.263
77391SOL    HW134070   9.819  12.948   2.352
77391SOL    HW234071   9.780  12.996   2.214
77392SOL     OW34072   9.201   6.599   1.626
77392SOL    HW134073   9.168   6.574   1.712
77392SOL    HW234074   9.123   6.609   1.572
77393SOL     OW34075   3.164   3.466   7.036
77393SOL    HW134076   3.090   3.512   7.076
77393SOL    HW234077   3.125   3.393   6.989
77394SOL     OW34078   7.741   7.160   5.746
77394SOL    HW134079   7.742   7.087   5.807
77394SOL    HW234080   7.661   7.148   5.694
77395SOL     OW34081   3.348   7.416  10.338
77395SOL    HW134082   3.394   7.431  10.255
77395SOL    HW234083   3.349   7.321  10.349
77396SOL     OW34084   2.797  11.968  11.355
77396SOL    HW134085   2.757  11.934  11.435
77396SOL    HW234086   2.729  12.023  11.315
77397SOL     OW34087   4.554  10.493   4.157
77397SOL    HW134088   4.516  10.521   4.240
77397SOL    HW234089   4.520  10.405   4.143
77398SOL     OW34090   2.854   6.554   6.791
77398SOL    HW134091   2.789   6.623   6.805
77398SOL    HW234092   2.810   6.474   6.819
77399SOL     OW34093  12.383   3.996  12.437
77399SOL    HW134094  12.440   3.989  12.513
77399SOL    HW234095  12.359   4.089  12.434
77400SOL     OW34096   5.277  11.011  11.758
77400SOL    HW134097   5.229  11.030  11.678
77400SOL    HW234098   5.305  10.920  11.748
77401SOL     OW34099   4.770   0.771   3.901
77401SOL    HW134100   4.794   0.855   3.863
77401SOL    HW234101   4.819   0.766   3.982
77402SOL     OW34102   0.118  12.099   9.716
77402SOL    HW134103   0.038  12.053   9.690
77402SOL    HW234104   0.092  12.155   9.789
77403SOL     OW34105   7.491   7.174  12.329
77403SOL    HW134106   7.540   7.092  12.327
77403SOL    HW234107   7.498   7.204  12.419
77404SOL     OW34108  14.115   3.349  11.367
77404SOL    HW134109  14.050   3.301  11.315
77404SOL    HW234110  14.166   3.281  11.410
77405SOL     OW34111   0.231  14.830  13.931
77405SOL    HW134112   0.291  14.771  13.976
77405SOL    HW234113   0.148  14.820  13.977
77406SOL     OW34114   0.688   9.492   0.594
77406SOL    HW134115   0.701   9.402   0.623
77406SOL    HW234116   0.759   9.508   0.532
77407SOL     OW34117   3.801   2.733   0.777
77407SOL    HW134118   3.850   2.777   0.708
77407SOL    HW234119   3.733   2.684   0.731
77408SOL     OW34120   9.385   8.603   0.290
77408SOL    HW134121   9.346   8.675   0.241
77408SOL    HW234122   9.369   8.626   0.382
77409SOL     OW34123  12.746  10.196  11.053
77409SOL    HW134124  12.706  10.146  10.981
77409SOL    HW234125  12.809  10.253  11.009
77410SOL     OW34126   2.854  14.005   1.098
77410SOL    HW134127   2.793  14.071   1.129
77410SOL    HW234128   2.935  14.053   1.080
77411SOL     OW34129   8.504   7.494   6.475
77411SOL    HW134130   8.585   7.450   6.499
77411SOL    HW234131   8.518   7.522   6.384
77412SOL     OW34132   6.460   7.978   1.328
77412SOL    HW134133   6.411   8.056   1.353
77412SOL    HW234134   6.548   8.011   1.308
77413SOL     OW34135   7.491  11.996  10.236
77413SOL    HW134136   7.433  12.052  10.186
77413SOL    HW234137   7.454  11.908  10.227
77414SOL     OW34138   7.769   2.608   0.280
77414SOL    HW134139   7.697   2.584   0.222
77414SOL    HW234140   7.848   2.581   0.233
77415SOL     OW34141  10.039  14.657  10.893
77415SOL    HW134142  10.110  14.653  10.957
77415SOL    HW234143  10.052  14.580  10.838
77416SOL     OW34144  13.512   9.166  14.321
77416SOL    HW134145  13.581   9.230  14.337
77416SOL    HW234146  13.431   9.213  14.336
77417SOL     OW34147  11.258   3.568   1.459
77417SOL    HW134148  11.298   3.489   1.497
77417SOL    HW234149  11.230   3.541   1.372
77418SOL     OW34150   5.831   3.899  10.845
77418SOL    HW134151   5.874   3.953  10.911
77418SOL    HW234152   5.786   3.831  10.896
77419SOL     OW34153   6.128   1.245  12.427
77419SOL    HW134154   6.134   1.281  12.515
77419SOL    HW234155   6.041   1.273  12.396
77420SOL     OW34156   7.047   7.263   3.259
77420SOL    HW134157   6.982   7.328   3.287
77420SOL    HW234158   6.994   7.189   3.228
77421SOL     OW34159   4.517   4.354  12.746
77421SOL    HW134160   4.569   4.276  12.730
77421SOL    HW234161   4.501   4.354  12.840
77422SOL     OW34162  12.130   2.364   7.796
77422SOL    HW134163  12.107   2.456   7.796
77422SOL    HW234164  12.164   2.347   7.884
77423SOL     OW34165  11.299  12.520  11.963
77423SOL    HW134166  11.284  12.606  11.924
77423SOL    HW234167  11.393  12.505  11.952
77424SOL     OW34168   1.509  11.788   8.765
77424SOL    HW134169   1.427  11.770   8.811
77424SOL    HW234170   1.482  11.821   8.680
77425SOL     OW34171   3.423   8.291   0.979
77425SOL    HW134172   3.390   8.310   0.892
77425SOL    HW234173   3.419   8.196   0.987
77426SOL     OW34174   3.569   7.478   9.240
77426SOL    HW134175   3.509   7.434   9.180
77426SOL    HW234176   3.639   7.512   9.184
77427SOL     OW34177   6.489   5.420   0.041
77427SOL    HW134178   6.553   5.354   0.066
77427SOL    HW234179   6.524   5.502   0.075
77428SOL     OW34180   5.872   4.193   3.579
77428SOL    HW134181   5.962   4.216   3.601
77428SOL    HW234182   5.832   4.276   3.554
77429SOL     OW34183   9.348  12.126  10.942
77429SOL    HW134184   9.374  12.117  11.034
77429SOL    HW234185   9.416  12.080  10.893
77430SOL     OW34186   2.930   0.991  10.410
77430SOL    HW134187   2.939   1.068  10.355
77430SOL    HW234188   2.877   1.022  10.485
77431SOL     OW34189  12.056  13.823   0.676
77431SOL    HW134190  12.140  13.785   0.702
77431SOL    HW234191  12.004  13.749   0.646
77432SOL     OW34192  12.000   0.812   9.681
77432SOL    HW134193  11.959   0.898   9.683
77432SOL    HW234194  12.027   0.796   9.772
77433SOL     OW34195   1.366   5.041  12.749
77433SOL    HW134196   1.354   5.136  12.737
77433SOL    HW234197   1.325   5.002  12.672
77434SOL     OW34198  14.308  13.566   5.829
77434SOL    HW134199  14.283  13.573   5.921
77434SOL    HW234200  14.225  13.547   5.784
77435SOL     OW34201   7.398  12.281   4.754
77435SOL    HW134202   7.357  12.336   4.822
77435SOL    HW234203   7.330  12.272   4.687
77436SOL     OW34204   4.544  14.027   3.374
77436SOL    HW134205   4.484  13.976   3.319
77436SOL    HW234206   4.535  14.117   3.343
77437SOL     OW34207  12.516   2.678   6.295
77437SOL    HW134208  12.435   2.639   6.261
77437SOL    HW234209  12.530   2.756   6.241
77438SOL     OW34210   9.166   1.135   1.880
77438SOL    HW134211   9.178   1.207   1.819
77438SOL    HW234212   9.177   1.056   1.827
77439SOL     OW34213   0.660  12.518   8.496
77439SOL    HW134214   0.712  12.438   8.488
77439SOL    HW234215   0.607  12.505   8.574
77440SOL     OW34216   3.698   9.694   3.447
77440SOL    HW134217   3.706   9.670   3.540
77440SOL    HW234218   3.789   9.701   3.417
77441SOL     OW34219  13.582   1.563   1.406
77441SOL    HW134220  13.658   1.538   1.353
77441SOL    HW234221  13.520   1.600   1.344
77442SOL     OW34222  12.937  13.735   0.377
77442SOL    HW134223  13.011  13.675   0.386
77442SOL    HW234224  12.968  13.801   0.315
77443SOL     OW34225   4.701   0.600   1.488
77443SOL    HW134226   4.793   0.606   1.461
77443SOL    HW234227   4.697   0.521   1.542
77444SOL     OW34228   7.844   7.275  14.755
77444SOL    HW134229   7.750   7.257  14.750
77444SOL    HW234230   7.874   7.225  14.831
77445SOL     OW34231   1.749   6.230   3.904
77445SOL    HW134232   1.700   6.169   3.959
77445SOL    HW234233   1.752   6.311   3.955
77446SOL     OW34234   5.872   3.951   4.982
77446SOL    HW134235   5.804   3.956   4.914
77446SOL    HW234236   5.947   3.910   4.938
77447SOL     OW34237   6.709   4.206   0.680
77447SOL    HW134238   6.629   4.168   0.644
77447SOL    HW234239   6.699   4.198   0.775
77448SOL     OW34240   1.169   0.651   8.541
77448SOL    HW134241   1.109   0.661   8.614
77448SOL    HW234242   1.148   0.566   8.503
77449SOL     OW34243   1.649   7.770  14.734
77449SOL    HW134244   1.720   7.825  14.701
77449SOL    HW234245   1.574   7.829  14.739
77450SOL     OW34246  10.551   3.905  12.499
77450SOL    HW134247  10.571   3.874  12.411
77450SOL    HW234248  10.634   3.901  12.545
77451SOL     OW34249   3.827   9.596   7.182
77451SOL    HW134250   3.737   9.571   7.163
77451SOL    HW234251   3.820   9.653   7.259
77452SOL     OW34252   9.280   7.629  12.403
77452SOL    HW134253   9.232   7.549  12.420
77452SOL    HW234254   9.333   7.643  12.482
77453SOL     OW34255   9.093  13.420  11.515
77453SOL    HW134256   9.044  13.368  11.451
77453SOL    HW234257   9.029  13.441  11.583
77454SOL     OW34258  11.724   3.915   4.938
77454SOL    HW134259  11.720   4.007   4.964
77454SOL    HW234260  11.644   3.876   4.974
77455SOL     OW34261  14.391   6.145   9.444
77455SOL    HW134262  14.346   6.075   9.397
77455SOL    HW234263  14.324   6.214   9.453
77456SOL     OW34264   2.966   6.899   8.281
77456SOL    HW134265   3.008   6.910   8.195
77456SOL    HW234266   2.880   6.863   8.260
77457SOL     OW34267   0.336   1.983   5.287
77457SOL    HW134268   0.254   1.965   5.334
77457SOL    HW234269   0.332   1.928   5.209
77458SOL     OW34270  13.058   7.111  11.055
77458SOL    HW134271  12.971   7.069  11.054
77458SOL    HW234272  13.087   7.107  10.964
77459SOL     OW34273   9.290   3.087  14.626
77459SOL    HW134274   9.269   3.107  14.535
77459SOL    HW234275   9.287   3.171  14.671
77460SOL     OW34276  11.708   1.026   8.926
77460SOL    HW134277  11.688   0.946   8.878
77460SOL    HW234278  11.688   1.097   8.864
77461SOL     OW34279  11.286   7.494   4.393
77461SOL    HW134280  11.251   7.407   4.410
77461SOL    HW234281  11.310   7.493   4.300
77462SOL     OW34282   5.246   0.023   3.314
77462SOL    HW134283   5.285   0.035   3.401
77462SOL    HW234284   5.248  14.803   3.300
77463SOL     OW34285  12.340   3.109   3.305
77463SOL    HW134286  12.315   3.194   3.343
77463SOL    HW234287  12.394   3.067   3.372
77464SOL     OW34288   9.636  13.301  12.748
77464SOL    HW134289   9.677  13.215  12.740
77464SOL    HW234290   9.659  13.330  12.837
77465SOL     OW34291   7.289   7.621   5.367
77465SOL    HW134292   7.290   7.561   5.441
77465SOL    HW234293   7.372   7.668   5.373
77466SOL     OW34294   9.297   4.387   4.628
77466SOL    HW134295   9.213   4.402   4.584
77466SOL    HW234296   9.276   4.381   4.721
77467SOL     OW34297   9.969   2.941   4.273
77467SOL    HW134298   9.923   3.024   4.285
77467SOL    HW234299  10.003   2.919   4.360
77468SOL     OW34300   7.765   0.123   8.039
77468SOL    HW134301   7.710   0.165   8.104
77468SOL    HW234302   7.849   0.111   8.083
77469SOL     OW34303  13.853   2.571  14.848
77469SOL    HW134304  13.775   2.615   0.008
77469SOL    HW234305  13.839   2.479  14.869
77470SOL     OW34306   8.381   8.007   0.374
77470SOL    HW134307   8.392   7.937   0.309
77470SOL    HW234308   8.459   8.001   0.428
77471SOL     OW34309   8.980  14.872   6.880
77471SOL    HW134310   9.031  14.803   6.922
77471SOL    HW234311   8.913  14.826   6.829
77472SOL     OW34312   0.731  12.497  11.750
77472SOL    HW134313   0.687  12.455  11.676
77472SOL    HW234314   0.769  12.425  11.800
77473SOL     OW34315  10.083  12.107   9.077
77473SOL    HW134316  10.000  12.150   9.101
77473SOL    HW234317  10.094  12.039   9.143
77474SOL     OW34318  10.350   4.363  10.094
77474SOL    HW134319  10.431   4.328  10.132
77474SOL    HW234320  10.285   4.294  10.109
77475SOL     OW34321   2.269  11.595   0.457
77475SOL    HW134322   2.174  11.598   0.445
77475SOL    HW234323   2.295  11.509   0.424
77476SOL     OW34324   0.234   5.647   4.915
77476SOL    HW134325   0.149   5.667   4.877
77476SOL    HW234326   0.258   5.562   4.878
77477SOL     OW34327   8.872  11.006  13.653
77477SOL    HW134328   8.847  10.975  13.739
77477SOL    HW234329   8.955  10.962  13.633
77478SOL     OW34330   1.675  13.045   5.358
77478SOL    HW134331   1.605  13.084   5.306
77478SOL    HW234332   1.748  13.036   5.297
77479SOL     OW34333  10.709   0.965  11.480
77479SOL    HW134334  10.687   1.010  11.398
77479SOL    HW234335  10.802   0.946  11.474
77480SOL     OW34336  12.348   0.668  10.531
77480SOL    HW134337  12.315   0.600  10.473
77480SOL    HW234338  12.282   0.738  10.527
77481SOL     OW34339  11.078   1.180   7.527
77481SOL    HW134340  11.089   1.176   7.622
77481SOL    HW234341  11.128   1.257   7.501
77482SOL     OW34342   8.426   2.548   6.430
77482SOL    HW134343   8.426   2.624   6.372
77482SOL    HW234344   8.373   2.483   6.385
77483SOL     OW34345   7.716   6.071   4.175
77483SOL    HW134346   7.751   6.157   4.197
77483SOL    HW234347   7.787   6.027   4.129
77484SOL     OW34348  12.510  14.127  10.067
77484SOL    HW134349  12.437  14.155  10.012
77484SOL    HW234350  12.572  14.199  10.062
77485SOL     OW34351   3.666   5.812  14.216
77485SOL    HW134352   3.593   5.873  14.206
77485SOL    HW234353   3.743   5.869  14.226
77486SOL     OW34354   1.243   5.544   7.932
77486SOL    HW134355   1.213   5.614   7.874
77486SOL    HW234356   1.305   5.494   7.878
77487SOL     OW34357   1.281   5.739   1.723
77487SOL    HW134358   1.201   5.725   1.773
77487SOL    HW234359   1.298   5.655   1.680
77488SOL     OW34360  13.465   6.817   5.397
77488SOL    HW134361  13.489   6.738   5.348
77488SOL    HW234362  13.398   6.788   5.458
77489SOL     OW34363   5.462   4.801   1.649
77489SOL    HW134364   5.384   4.750   1.628
77489SOL    HW234365   5.430   4.873   1.703
77490SOL     OW34366   2.625   8.364   0.855
77490SOL    HW134367   2.705   8.311   0.853
77490SOL    HW234368   2.654   8.452   0.831
77491SOL     OW34369  14.002   5.767   0.578
77491SOL    HW134370  13.933   5.834   0.580
77491SOL    HW234371  13.974   5.706   0.510
77492SOL     OW34372   4.460   6.569   2.708
77492SOL    HW134373   4.392   6.556   2.643
77492SOL    HW234374   4.459   6.489   2.760
77493SOL     OW34375  10.034   1.084   4.389
77493SOL    HW134376  10.084   1.002   4.379
77493SOL    HW234377   9.951   1.056   4.428
77494SOL     OW34378   1.172  14.087   8.157
77494SOL    HW134379   1.225  14.092   8.236
77494SOL    HW234380   1.178  13.996   8.129
77495SOL     OW34381   7.390   2.362   6.220
77495SOL    HW134382   7.306   2.407   6.212
77495SOL    HW234383   7.455   2.430   6.201
77496SOL     OW34384   4.670   1.842   7.070
77496SOL    HW134385   4.635   1.931   7.063
77496SOL    HW234386   4.715   1.827   6.987
77497SOL     OW34387   7.826   1.442   4.894
77497SOL    HW134388   7.731   1.449   4.902
77497SOL    HW234389   7.844   1.348   4.900
77498SOL     OW34390  11.226   7.743  13.728
77498SOL    HW134391  11.222   7.833  13.696
77498SOL    HW234392  11.135   7.717  13.739
77499SOL     OW34393   5.219   2.583   3.912
77499SOL    HW134394   5.197   2.644   3.842
77499SOL    HW234395   5.314   2.583   3.916
77500SOL     OW34396  14.324   9.828   0.111
77500SOL    HW134397  14.359   9.864   0.193
77500SOL    HW234398  14.372   9.746   0.099
77501SOL     OW34399  12.124   0.432   2.036
77501SOL    HW134400  12.209   0.476   2.040
77501SOL    HW234401  12.079   0.473   1.962
77502SOL     OW34402  12.419   3.498  13.215
77502SOL    HW134403  12.461   3.559  13.156
77502SOL    HW234404  12.369   3.439  13.158
77503SOL     OW34405   5.557  14.705  11.247
77503SOL    HW134406   5.514  14.703  11.332
77503SOL    HW234407   5.564  14.613  11.221
77504SOL     OW34408  13.297  11.394   4.105
77504SOL    HW134409  13.261  11.450   4.036
77504SOL    HW234410  13.220  11.360   4.151
77505SOL     OW34411  12.697   7.959   1.541
77505SOL    HW134412  12.677   7.952   1.635
77505SOL    HW234413  12.632   8.019   1.507
77506SOL     OW34414   5.186   0.147   9.586
77506SOL    HW134415   5.210   0.075   9.644
77506SOL    HW234416   5.237   0.222   9.617
77507SOL     OW34417  11.654   0.646   0.360
77507SOL    HW134418  11.692   0.733   0.375
77507SOL    HW234419  11.566   0.663   0.326
77508SOL     OW34420  10.976   0.588  10.970
77508SOL    HW134421  10.887   0.598  11.005
77508SOL    HW234422  11.006   0.678  10.956
77509SOL     OW34423   2.767   9.561  11.303
77509SOL    HW134424   2.772   9.570  11.398
77509SOL    HW234425   2.716   9.636  11.274
77510SOL     OW34426   0.829   6.006   6.093
77510SOL    HW134427   0.820   5.918   6.055
77510SOL    HW234428   0.894   6.049   6.038
77511SOL     OW34429   0.103  13.237   5.990
77511SOL    HW134430   0.189  13.225   5.949
77511SOL    HW234431   0.042  13.246   5.917
77512SOL     OW34432   2.484   0.289   0.984
77512SOL    HW134433   2.444   0.223   0.928
77512SOL    HW234434   2.439   0.370   0.963
77513SOL     OW34435  11.599   6.975   2.417
77513SOL    HW134436  11.594   6.970   2.322
77513SOL    HW234437  11.589   6.885   2.447
77514SOL     OW34438  13.533   1.496  13.756
77514SOL    HW134439  13.568   1.477  13.669
77514SOL    HW234440  13.463   1.558  13.740
77515SOL     OW34441   4.687   3.393   3.162
77515SOL    HW134442   4.642   3.354   3.087
77515SOL    HW234443   4.618   3.427   3.218
77516SOL     OW34444   5.034   5.900  13.868
77516SOL    HW134445   5.105   5.953  13.905
77516SOL    HW234446   5.073   5.858  13.791
77517SOL     OW34447  11.434   8.637   1.391
77517SOL    HW134448  11.398   8.717   1.429
77517SOL    HW234449  11.525   8.635   1.420
77518SOL     OW34450  14.240  10.291   1.624
77518SOL    HW134451  14.209  10.281   1.714
77518SOL    HW234452  14.254  10.385   1.614
77519SOL     OW34453  12.807   6.469   3.218
77519SOL    HW134454  12.833   6.502   3.304
77519SOL    HW234455  12.831   6.376   3.219
77520SOL     OW34456   1.923   2.462   0.451
77520SOL    HW134457   1.926   2.518   0.528
77520SOL    HW234458   1.838   2.419   0.456
77521SOL     OW34459  14.623   7.656   5.842
77521SOL    HW134460  14.690   7.591   5.821
77521SOL    HW234461  14.541   7.618   5.811
77522SOL     OW34462  10.019   7.467   3.505
77522SOL    HW134463   9.954   7.486   3.437
77522SOL    HW234464  10.085   7.414   3.462
77523SOL     OW34465  11.051  12.637   9.354
77523SOL    HW134466  11.087  12.575   9.291
77523SOL    HW234467  10.985  12.587   9.402
77524SOL     OW34468  10.728   9.885  10.975
77524SOL    HW134469  10.796   9.926  11.028
77524SOL    HW234470  10.743   9.917  10.887
77525SOL     OW34471   2.359   2.434  14.495
77525SOL    HW134472   2.361   2.477  14.410
77525SOL    HW234473   2.451   2.423  14.520
77526SOL     OW34474   1.393   2.837  10.382
77526SOL    HW134475   1.440   2.920  10.373
77526SOL    HW234476   1.459   2.770  10.361
77527SOL     OW34477  11.311   6.007   3.495
77527SOL    HW134478  11.302   6.009   3.590
77527SOL    HW234479  11.312   5.914   3.473
77528SOL     OW34480  13.558   6.025   2.024
77528SOL    HW134481  13.628   6.037   1.960
77528SOL    HW234482  13.484   6.075   1.989
77529SOL     OW34483   6.471   7.226   2.080
77529SOL    HW134484   6.522   7.279   2.018
77529SOL    HW234485   6.412   7.176   2.024
77530SOL     OW34486   1.411   9.530   8.098
77530SOL    HW134487   1.425   9.484   8.015
77530SOL    HW234488   1.477   9.599   8.099
77531SOL     OW34489   5.525  14.207   3.055
77531SOL    HW134490   5.478  14.225   2.974
77531SOL    HW234491   5.551  14.293   3.088
77532SOL     OW34492   8.947   3.906   7.419
77532SOL    HW134493   9.005   3.962   7.367
77532SOL    HW234494   8.980   3.914   7.508
77533SOL     OW34495   5.277   9.391   4.308
77533SOL    HW134496   5.340   9.399   4.237
77533SOL    HW234497   5.307   9.454   4.374
77534SOL     OW34498   3.747   2.344   7.975
77534SOL    HW134499   3.843   2.344   7.980
77534SOL    HW234500   3.728   2.378   7.888
77535SOL     OW34501   6.472   5.941   8.767
77535SOL    HW134502   6.546   5.969   8.713
77535SOL    HW234503   6.454   6.015   8.824
77536SOL     OW34504  12.533   2.356   1.660
77536SOL    HW134505  12.570   2.408   1.588
77536SOL    HW234506  12.549   2.265   1.634
77537SOL     OW34507  10.984   7.833   1.488
77537SOL    HW134508  10.909   7.877   1.528
77537SOL    HW234509  11.060   7.879   1.523
77538SOL     OW34510   1.771  12.315   2.841
77538SOL    HW134511   1.844  12.253   2.842
77538SOL    HW234512   1.797  12.381   2.776
77539SOL     OW34513  12.940   5.267   7.327
77539SOL    HW134514  12.998   5.329   7.371
77539SOL    HW234515  12.924   5.198   7.391
77540SOL     OW34516   3.724   3.240   4.972
77540SOL    HW134517   3.759   3.180   5.038
77540SOL    HW234518   3.749   3.201   4.888
77541SOL     OW34519  10.777   1.735   9.031
77541SOL    HW134520  10.797   1.727   8.938
77541SOL    HW234521  10.803   1.824   9.054
77542SOL     OW34522   9.325   3.360   3.423
77542SOL    HW134523   9.383   3.301   3.472
77542SOL    HW234524   9.322   3.323   3.335
77543SOL     OW34525   4.236  13.268  13.727
77543SOL    HW134526   4.157  13.264  13.780
77543SOL    HW234527   4.235  13.188  13.675
77544SOL     OW34528  11.405   0.543   8.130
77544SOL    HW134529  11.354   0.472   8.170
77544SOL    HW234530  11.425   0.510   8.042
77545SOL     OW34531   6.829   7.426   6.574
77545SOL    HW134532   6.873   7.343   6.554
77545SOL    HW234533   6.794   7.414   6.662
77546SOL     OW34534   6.017  11.650   6.039
77546SOL    HW134535   6.054  11.617   6.121
77546SOL    HW234536   5.966  11.727   6.065
77547SOL     OW34537  11.650  14.766   1.446
77547SOL    HW134538  11.644  14.678   1.408
77547SOL    HW234539  11.691  14.818   1.377
77548SOL     OW34540   5.210   6.024  10.149
77548SOL    HW134541   5.152   5.996  10.078
77548SOL    HW234542   5.208   6.120  10.146
77549SOL     OW34543   4.710  10.662   9.242
77549SOL    HW134544   4.745  10.750   9.253
77549SOL    HW234545   4.715  10.623   9.330
77550SOL     OW34546   9.630   8.041   2.811
77550SOL    HW134547   9.713   8.057   2.856
77550SOL    HW234548   9.565   8.089   2.863
77551SOL     OW34549   5.676  10.918   3.039
77551SOL    HW134550   5.732  10.979   2.993
77551SOL    HW234551   5.603  10.971   3.072
77552SOL     OW34552   4.341  11.105   8.364
77552SOL    HW134553   4.425  11.135   8.331
77552SOL    HW234554   4.363  11.041   8.432
77553SOL     OW34555  13.603  12.426   8.948
77553SOL    HW134556  13.616  12.353   8.888
77553SOL    HW234557  13.547  12.488   8.900
77554SOL     OW34558   6.842   6.505   4.135
77554SOL    HW134559   6.890   6.434   4.093
77554SOL    HW234560   6.908   6.557   4.179
77555SOL     OW34561  11.002   8.850  10.585
77555SOL    HW134562  10.937   8.801  10.635
77555SOL    HW234563  11.013   8.799  10.504
77556SOL     OW34564  14.349   6.583  14.287
77556SOL    HW134565  14.315   6.671  14.272
77556SOL    HW234566  14.443   6.595  14.301
77557SOL     OW34567   6.318   0.361   9.436
77557SOL    HW134568   6.275   0.393   9.357
77557SOL    HW234569   6.288   0.421   9.505
77558SOL     OW34570  10.602   8.794   0.183
77558SOL    HW134571  10.622   8.744   0.263
77558SOL    HW234572  10.531   8.746   0.142
77559SOL     OW34573  12.260   7.905   0.344
77559SOL    HW134574  12.202   7.977   0.369
77559SOL    HW234575  12.347   7.945   0.338
77560SOL     OW34576   5.211  10.792  10.438
77560SOL    HW134577   5.220  10.771  10.345
77560SOL    HW234578   5.117  10.793  10.453
77561SOL     OW34579   4.259  12.359   4.473
77561SOL    HW134580   4.205  12.438   4.479
77561SOL    HW234581   4.340  12.381   4.519
77562SOL     OW34582   8.084  13.614  14.157
77562SOL    HW134583   7.990  13.630  14.148
77562SOL    HW234584   8.122  13.702  14.167
77563SOL     OW34585   3.866   2.463   8.798
77563SOL    HW134586   3.780   2.445   8.759
77563SOL    HW234587   3.855   2.441   8.891
77564SOL     OW34588  13.364   1.014  12.213
77564SOL    HW134589  13.366   0.923  12.243
77564SOL    HW234590  13.303   1.057  12.272
77565SOL     OW34591  12.360   0.656   5.134
77565SOL    HW134592  12.369   0.716   5.208
77565SOL    HW234593  12.332   0.711   5.061
77566SOL     OW34594   3.925   7.725   8.650
77566SOL    HW134595   3.972   7.727   8.733
77566SOL    HW234596   3.833   7.737   8.674
77567SOL     OW34597   6.601  13.553   9.326
77567SOL    HW134598   6.549  13.548   9.406
77567SOL    HW234599   6.574  13.636   9.285
77568SOL     OW34600   0.910   3.011   3.023
77568SOL    HW134601   1.005   3.014   3.020
77568SOL    HW234602   0.882   3.081   2.964
77569SOL     OW34603   7.543  10.795  14.560
77569SOL    HW134604   7.569  10.886  14.545
77569SOL    HW234605   7.579  10.747  14.485
77570SOL     OW34606   1.773  12.694   9.021
77570SOL    HW134607   1.799  12.751   8.948
77570SOL    HW234608   1.850  12.640   9.037
77571SOL     OW34609  12.435  12.386  14.475
77571SOL    HW134610  12.459  12.413  14.386
77571SOL    HW234611  12.517  12.388  14.524
77572SOL     OW34612   2.599   2.832  13.327
77572SOL    HW134613   2.659   2.905  13.343
77572SOL    HW234614   2.588   2.830  13.232
77573SOL     OW34615  10.290   3.415   3.425
77573SOL    HW134616  10.227   3.482   3.454
77573SOL    HW234617  10.250   3.332   3.451
77574SOL     OW34618   5.099   2.804  10.032
77574SOL    HW134619   5.191   2.778  10.038
77574SOL    HW234620   5.101   2.895  10.002
77575SOL     OW34621   6.070   3.621  12.300
77575SOL    HW134622   6.109   3.535  12.313
77575SOL    HW234623   6.003   3.628  12.369
77576SOL     OW34624  11.914  10.237   6.445
77576SOL    HW134625  11.983  10.288   6.487
77576SOL    HW234626  11.860  10.205   6.518
77577SOL     OW34627  12.833  12.307  11.778
77577SOL    HW134628  12.744  12.276  11.763
77577SOL    HW234629  12.828  12.357  11.860
77578SOL     OW34630   3.394   0.237  11.944
77578SOL    HW134631   3.477   0.245  11.991
77578SOL    HW234632   3.327   0.248  12.012
77579SOL     OW34633   2.824   4.910  14.704
77579SOL    HW134634   2.914   4.944  14.712
77579SOL    HW234635   2.834   4.815  14.705
77580SOL     OW34636   1.549  10.099   0.265
77580SOL    HW134637   1.463  10.065   0.292
77580SOL    HW234638   1.611  10.055   0.323
77581SOL     OW34639  13.514  13.956  14.308
77581SOL    HW134640  13.548  13.960  14.218
77581SOL    HW234641  13.419  13.954  14.297
77582SOL     OW34642   2.020  13.402   7.500
77582SOL    HW134643   1.967  13.333   7.459
77582SOL    HW234644   2.096  13.357   7.536
77583SOL     OW34645  10.209   1.277  12.770
77583SOL    HW134646  10.285   1.262  12.827
77583SOL    HW234647  10.213   1.207  12.705
77584SOL     OW34648  11.190  13.972   7.777
77584SOL    HW134649  11.113  14.013   7.738
77584SOL    HW234650  11.241  13.940   7.702
77585SOL     OW34651   3.465  12.249   2.815
77585SOL    HW134652   3.482  12.222   2.725
77585SOL    HW234653   3.504  12.181   2.869
77586SOL     OW34654  11.076  12.973  12.786
77586SOL    HW134655  11.028  13.052  12.763
77586SOL    HW234656  11.010  12.905  12.793
77587SOL     OW34657  14.850   7.543   4.924
77587SOL    HW134658   0.031   7.484   4.974
77587SOL    HW234659  14.850   7.507   4.835
77588SOL     OW34660  11.505  10.688  13.184
77588SOL    HW134661  11.433  10.672  13.124
77588SOL    HW234662  11.469  10.670  13.271
77589SOL     OW34663   5.477   7.460   2.789
77589SOL    HW134664   5.385   7.481   2.772
77589SOL    HW234665   5.522   7.485   2.708
77590SOL     OW34666   5.577   4.641  12.995
77590SOL    HW134667   5.493   4.621  12.954
77590SOL    HW234668   5.643   4.611  12.933
77591SOL     OW34669   4.536   5.430   7.246
77591SOL    HW134670   4.507   5.485   7.172
77591SOL    HW234671   4.549   5.344   7.207
77592SOL     OW34672   0.032   4.268   2.924
77592SOL    HW134673   0.033   4.269   2.828
77592SOL    HW234674   0.124   4.274   2.949
77593SOL     OW34675   4.935   6.612  10.971
77593SOL    HW134676   4.977   6.595  11.056
77593SOL    HW234677   4.871   6.542  10.962
77594SOL     OW34678  11.063  13.050   5.699
77594SOL    HW134679  11.145  13.081   5.661
77594SOL    HW234680  11.004  13.125   5.695
77595SOL     OW34681   7.484  11.818  14.319
77595SOL    HW134682   7.475  11.913  14.333
77595SOL    HW234683   7.453  11.779  14.401
77596SOL     OW34684   0.774  10.470   3.471
77596SOL    HW134685   0.773  10.428   3.557
77596SOL    HW234686   0.685  10.460   3.438
77597SOL     OW34687  14.568   6.401   0.931
77597SOL    HW134688  14.664   6.402   0.933
77597SOL    HW234689  14.545   6.313   0.903
77598SOL     OW34690  13.396  11.883   8.461
77598SOL    HW134691  13.471  11.942   8.469
77598SOL    HW234692  13.361  11.901   8.373
77599SOL     OW34693   8.086  11.238  10.170
77599SOL    HW134694   8.137  11.275  10.242
77599SOL    HW234695   8.091  11.143  10.183
77600SOL     OW34696   2.346   2.086   6.481
77600SOL    HW134697   2.331   2.024   6.410
77600SOL    HW234698   2.426   2.055   6.524
77601SOL     OW34699   8.010  12.817  12.991
77601SOL    HW134700   8.014  12.841  12.898
77601SOL    HW234701   8.102  12.807  13.017
77602SOL     OW34702  14.267   3.907   1.915
77602SOL    HW134703  14.314   3.826   1.897
77602SOL    HW234704  14.245   3.903   2.008
77603SOL     OW34705  12.561  12.325   2.533
77603SOL    HW134706  12.557  12.365   2.620
77603SOL    HW234707  12.469  12.313   2.508
77604SOL     OW34708   6.765  13.465   5.022
77604SOL    HW134709   6.743  13.487   4.931
77604SOL    HW234710   6.723  13.534   5.074
77605SOL     OW34711  14.602   3.987  10.916
77605SOL    HW134712  14.569   4.010  10.829
77605SOL    HW234713  14.527   3.999  10.974
77606SOL     OW34714  14.679  14.166   4.591
77606SOL    HW134715  14.673  14.164   4.686
77606SOL    HW234716  14.698  14.075   4.566
77607SOL     OW34717   2.648   3.696  11.847
77607SOL    HW134718   2.553   3.704  11.858
77607SOL    HW234719   2.662   3.701  11.753
77608SOL     OW34720  13.871   0.753  14.648
77608SOL    HW134721  13.860   0.665  14.613
77608SOL    HW234722  13.965   0.761  14.664
77609SOL     OW34723  14.297   7.169  14.553
77609SOL    HW134724  14.279   7.257  14.521
77609SOL    HW234725  14.233   7.114  14.509
77610SOL     OW34726   7.874  10.885   5.779
77610SOL    HW134727   7.857  10.831   5.701
77610SOL    HW234728   7.847  10.829   5.852
77611SOL     OW34729  10.501   7.674   1.020
77611SOL    HW134730  10.542   7.692   1.104
77611SOL    HW234731  10.420   7.628   1.042
77612SOL     OW34732  11.460   2.344   8.274
77612SOL    HW134733  11.454   2.334   8.179
77612SOL    HW234734  11.369   2.354   8.303
77613SOL     OW34735   5.244   7.490  14.188
77613SOL    HW134736   5.216   7.581  14.178
77613SOL    HW234737   5.335   7.489  14.157
77614SOL     OW34738   4.878   1.770   9.800
77614SOL    HW134739   4.920   1.740   9.720
77614SOL    HW234740   4.861   1.690   9.851
77615SOL     OW34741   2.015   4.955   1.492
77615SOL    HW134742   1.978   4.886   1.546
77615SOL    HW234743   1.944   5.018   1.480
77616SOL     OW34744   8.985   6.653  10.794
77616SOL    HW134745   8.961   6.734  10.748
77616SOL    HW234746   8.969   6.674  10.886
77617SOL     OW34747  10.781  13.805   7.188
77617SOL    HW134748  10.733  13.745   7.131
77617SOL    HW234749  10.838  13.854   7.129
77618SOL     OW34750   4.360  10.332   5.549
77618SOL    HW134751   4.428  10.344   5.616
77618SOL    HW234752   4.406  10.342   5.466
77619SOL     OW34753  14.678   8.893   2.472
77619SOL    HW134754  14.690   8.836   2.396
77619SOL    HW234755  14.648   8.976   2.435
77620SOL     OW34756   4.156   3.850   0.327
77620SOL    HW134757   4.122   3.934   0.359
77620SOL    HW234758   4.079   3.805   0.293
77621SOL     OW34759   2.260   3.262   5.565
77621SOL    HW134760   2.341   3.314   5.570
77621SOL    HW234761   2.266   3.201   5.639
77622SOL     OW34762   1.298   0.467   3.013
77622SOL    HW134763   1.270   0.501   2.928
77622SOL    HW234764   1.217   0.441   3.056
77623SOL     OW34765   2.984  11.816   0.227
77623SOL    HW134766   2.959  11.871   0.152
77623SOL    HW234767   2.976  11.727   0.195
77624SOL     OW34768   1.678   4.809  11.377
77624SOL    HW134769   1.679   4.885  11.319
77624SOL    HW234770   1.738   4.747  11.336
77625SOL     OW34771   4.018  10.159  12.151
77625SOL    HW134772   3.999  10.071  12.183
77625SOL    HW234773   4.055  10.204  12.227
77626SOL     OW34774   6.228   2.876  11.562
77626SOL    HW134775   6.200   2.901  11.474
77626SOL    HW234776   6.147   2.871  11.613
77627SOL     OW34777  14.123   6.685   8.522
77627SOL    HW134778  14.050   6.679   8.460
77627SOL    HW234779  14.100   6.624   8.592
77628SOL     OW34780  12.463   6.664   1.296
77628SOL    HW134781  12.422   6.580   1.279
77628SOL    HW234782  12.435   6.687   1.385
77629SOL     OW34783  13.875   3.927   6.523
77629SOL    HW134784  13.830   3.888   6.598
77629SOL    HW234785  13.951   3.871   6.509
77630SOL     OW34786  11.742  12.717   9.560
77630SOL    HW134787  11.699  12.638   9.593
77630SOL    HW234788  11.822  12.724   9.613
77631SOL     OW34789   5.584  13.024  14.718
77631SOL    HW134790   5.630  12.985  14.792
77631SOL    HW234791   5.651  13.076  14.673
77632SOL     OW34792   7.321  11.689   4.185
77632SOL    HW134793   7.336  11.631   4.260
77632SOL    HW234794   7.332  11.777   4.220
77633SOL     OW34795   6.548  12.428  12.404
77633SOL    HW134796   6.638  12.433  12.438
77633SOL    HW234797   6.509  12.354  12.452
77634SOL     OW34798   7.007   2.543   8.306
77634SOL    HW134799   7.003   2.588   8.221
77634SOL    HW234800   7.031   2.453   8.283
77635SOL     OW34801   0.617  10.909  13.345
77635SOL    HW134802   0.654  10.824  13.320
77635SOL    HW234803   0.649  10.970  13.278
77636SOL     OW34804   6.797  12.857   1.491
77636SOL    HW134805   6.867  12.857   1.557
77636SOL    HW234806   6.743  12.933   1.513
77637SOL     OW34807  10.354   7.503  14.575
77637SOL    HW134808  10.416   7.433  14.594
77637SOL    HW234809  10.317   7.525  14.660
77638SOL     OW34810  14.067   1.578   6.856
77638SOL    HW134811  14.001   1.630   6.808
77638SOL    HW234812  14.086   1.504   6.798
77639SOL     OW34813  11.687   2.490   1.343
77639SOL    HW134814  11.609   2.539   1.370
77639SOL    HW234815  11.746   2.494   1.418
77640SOL     OW34816  11.554   5.544  10.530
77640SOL    HW134817  11.529   5.451  10.537
77640SOL    HW234818  11.471   5.591  10.524
77641SOL     OW34819  11.690   1.496  12.062
77641SOL    HW134820  11.693   1.406  12.092
77641SOL    HW234821  11.654   1.545  12.136
77642SOL     OW34822   2.508   9.539   2.243
77642SOL    HW134823   2.545   9.556   2.157
77642SOL    HW234824   2.583   9.541   2.303
77643SOL     OW34825   6.563   0.779   5.834
77643SOL    HW134826   6.653   0.788   5.801
77643SOL    HW234827   6.558   0.840   5.907
77644SOL     OW34828   5.899  12.395  13.734
77644SOL    HW134829   5.974  12.336  13.745
77644SOL    HW234830   5.823  12.340  13.749
77645SOL     OW34831  10.778  10.698  10.485
77645SOL    HW134832  10.780  10.638  10.411
77645SOL    HW234833  10.685  10.715  10.500
77646SOL     OW34834   8.865   4.308  12.850
77646SOL    HW134835   8.918   4.387  12.853
77646SOL    HW234836   8.853   4.290  12.757
77647SOL     OW34837  11.044  10.002  12.702
77647SOL    HW134838  10.971  10.064  12.695
77647SOL    HW234839  11.068  10.004  12.795
77648SOL     OW34840  11.542   8.000   3.475
77648SOL    HW134841  11.596   7.980   3.552
77648SOL    HW234842  11.452   7.982   3.502
77649SOL     OW34843   0.357   3.015  14.683
77649SOL    HW134844   0.295   3.075  14.725
77649SOL    HW234845   0.402   3.068  14.618
77650SOL     OW34846  12.808   4.652  10.480
77650SOL    HW134847  12.759   4.687  10.406
77650SOL    HW234848  12.758   4.679  10.557
77651SOL     OW34849   1.706   2.637  10.072
77651SOL    HW134850   1.662   2.706  10.021
77651SOL    HW234851   1.709   2.562  10.013
77652SOL     OW34852   7.538  13.807   4.157
77652SOL    HW134853   7.550  13.862   4.235
77652SOL    HW234854   7.467  13.748   4.181
77653SOL     OW34855   3.613   2.472  10.876
77653SOL    HW134856   3.699   2.442  10.847
77653SOL    HW234857   3.568   2.497  10.795
77654SOL     OW34858  13.279  10.271   6.892
77654SOL    HW134859  13.299  10.182   6.920
77654SOL    HW234860  13.199  10.293   6.939
77655SOL     OW34861   1.039   2.821   8.234
77655SOL    HW134862   1.015   2.803   8.325
77655SOL    HW234863   1.032   2.916   8.226
77656SOL     OW34864   1.278  10.753   0.633
77656SOL    HW134865   1.292  10.846   0.648
77656SOL    HW234866   1.253  10.718   0.719
77657SOL     OW34867   8.372   4.549   3.217
77657SOL    HW134868   8.416   4.467   3.196
77657SOL    HW234869   8.391   4.563   3.310
77658SOL     OW34870   6.594   9.246   2.350
77658SOL    HW134871   6.560   9.285   2.270
77658SOL    HW234872   6.688   9.238   2.334
77659SOL     OW34873  11.355  13.266  10.325
77659SOL    HW134874  11.387  13.310  10.246
77659SOL    HW234875  11.288  13.206  10.294
77660SOL     OW34876   7.124   1.123   4.337
77660SOL    HW134877   7.149   1.195   4.279
77660SOL    HW234878   7.036   1.099   4.309
77661SOL     OW34879  10.013   1.793  11.044
77661SOL    HW134880  10.053   1.879  11.031
77661SOL    HW234881  10.072   1.732  10.999
77662SOL     OW34882   0.794  10.846  10.181
77662SOL    HW134883   0.709  10.883  10.205
77662SOL    HW234884   0.853  10.875  10.251
77663SOL     OW34885   8.340   1.803  13.705
77663SOL    HW134886   8.326   1.897  13.716
77663SOL    HW234887   8.294   1.763  13.778
77664SOL     OW34888   9.321   3.260   3.146
77664SOL    HW134889   9.377   3.185   3.126
77664SOL    HW234890   9.378   3.336   3.138
77665SOL     OW34891  13.009   8.972  12.908
77665SOL    HW134892  12.934   9.029  12.896
77665SOL    HW234893  13.080   9.015  12.860
77666SOL     OW34894   1.978   8.240   6.367
77666SOL    HW134895   1.940   8.285   6.442
77666SOL    HW234896   2.040   8.177   6.404
77667SOL     OW34897   2.696  12.100   8.013
77667SOL    HW134898   2.616  12.151   8.025
77667SOL    HW234899   2.683  12.053   7.930
77668SOL     OW34900  10.817   4.264   0.998
77668SOL    HW134901  10.841   4.347   0.957
77668SOL    HW234902  10.859   4.267   1.084
77669SOL     OW34903   1.532  11.959  12.879
77669SOL    HW134904   1.498  12.031  12.932
77669SOL    HW234905   1.607  11.926  12.929
77670SOL     OW34906   7.189   1.113  13.059
77670SOL    HW134907   7.267   1.077  13.101
77670SOL    HW234908   7.116   1.068  13.101
77671SOL     OW34909   4.274   9.713  12.259
77671SOL    HW134910   4.283   9.765  12.339
77671SOL    HW234911   4.239   9.629  12.289
77672SOL     OW34912  11.732  14.505   3.894
77672SOL    HW134913  11.772  14.466   3.816
77672SOL    HW234914  11.644  14.529   3.867
77673SOL     OW34915   9.944   8.727   1.443
77673SOL    HW134916   9.907   8.798   1.389
77673SOL    HW234917   9.968   8.770   1.525
77674SOL     OW34918  12.791   7.819  10.017
77674SOL    HW134919  12.715   7.792   9.966
77674SOL    HW234920  12.760   7.894  10.068
77675SOL     OW34921   7.982   2.618   8.080
77675SOL    HW134922   7.921   2.570   8.135
77675SOL    HW234923   8.064   2.620   8.129
77676SOL     OW34924   4.183   3.997  12.182
77676SOL    HW134925   4.157   3.960  12.266
77676SOL    HW234926   4.129   3.953  12.118
77677SOL     OW34927   2.708   1.867  11.376
77677SOL    HW134928   2.631   1.918  11.402
77677SOL    HW234929   2.718   1.883  11.282
77678SOL     OW34930   6.012   5.539   4.348
77678SOL    HW134931   6.090   5.485   4.364
77678SOL    HW234932   5.939   5.479   4.363
77679SOL     OW34933   4.426   1.281   0.769
77679SOL    HW134934   4.368   1.233   0.828
77679SOL    HW234935   4.489   1.323   0.827
77680SOL     OW34936   3.808   4.176  13.606
77680SOL    HW134937   3.738   4.239  13.625
77680SOL    HW234938   3.877   4.228  13.567
77681SOL     OW34939   6.797   9.266  14.201
77681SOL    HW134940   6.767   9.219  14.279
77681SOL    HW234941   6.849   9.338  14.236
77682SOL     OW34942  13.702   6.881  12.187
77682SOL    HW134943  13.645   6.835  12.125
77682SOL    HW234944  13.678   6.973  12.178
77683SOL     OW34945   6.103  13.974   2.474
77683SOL    HW134946   6.114  13.883   2.447
77683SOL    HW234947   6.143  14.026   2.404
77684SOL     OW34948   9.826  11.532   7.027
77684SOL    HW134949   9.920  11.535   7.042
77684SOL    HW234950   9.813  11.451   6.978
77685SOL     OW34951   8.972  14.347   2.613
77685SOL    HW134952   9.024  14.382   2.685
77685SOL    HW234953   8.946  14.260   2.642
77686SOL     OW34954   5.611  10.137   9.349
77686SOL    HW134955   5.642  10.071   9.287
77686SOL    HW234956   5.620  10.095   9.434
77687SOL     OW34957  12.415   4.874   8.955
77687SOL    HW134958  12.466   4.863   8.875
77687SOL    HW234959  12.350   4.940   8.933
77688SOL     OW34960   7.647   2.802  11.635
77688SOL    HW134961   7.617   2.806  11.726
77688SOL    HW234962   7.735   2.840  11.638
77689SOL     OW34963   8.626  13.158   5.615
77689SOL    HW134964   8.714  13.158   5.654
77689SOL    HW234965   8.580  13.229   5.659
77690SOL     OW34966   8.061   8.119   3.466
77690SOL    HW134967   8.056   8.027   3.440
77690SOL    HW234968   8.133   8.122   3.529
77691SOL     OW34969   2.484  12.343   8.082
77691SOL    HW134970   2.505  12.422   8.033
77691SOL    HW234971   2.426  12.294   8.024
77692SOL     OW34972   2.577  11.959   4.276
77692SOL    HW134973   2.616  11.887   4.227
77692SOL    HW234974   2.606  12.038   4.232
77693SOL     OW34975   8.270   5.150   4.867
77693SOL    HW134976   8.301   5.065   4.899
77693SOL    HW234977   8.349   5.199   4.846
77694SOL     OW34978  10.883   4.622   7.026
77694SOL    HW134979  10.914   4.604   7.115
77694SOL    HW234980  10.895   4.540   6.979
77695SOL     OW34981  10.156   6.671  12.002
77695SOL    HW134982  10.110   6.751  11.977
77695SOL    HW234983  10.098   6.600  11.974
77696SOL     OW34984   3.773  13.173   1.704
77696SOL    HW134985   3.816  13.229   1.639
77696SOL    HW234986   3.711  13.231   1.748
77697SOL     OW34987   3.474   0.553  14.737
77697SOL    HW134988   3.489   0.537  14.830
77697SOL    HW234989   3.390   0.511  14.719
77698SOL     OW34990  14.764   7.990   5.392
77698SOL    HW134991  14.687   7.934   5.399
77698SOL    HW234992  14.745   8.063   5.451
77699SOL     OW34993   3.189   5.651  11.837
77699SOL    HW134994   3.232   5.566  11.851
77699SOL    HW234995   3.257   5.705  11.796
77700SOL     OW34996   2.246   5.730   4.918
77700SOL    HW134997   2.265   5.684   4.999
77700SOL    HW234998   2.330   5.765   4.890
77701SOL     OW34999   7.495   5.617   2.058
77701SOL    HW135000   7.460   5.585   1.975
77701SOL    HW235001   7.580   5.655   2.035
77702SOL     OW35002  11.886   2.895  11.184
77702SOL    HW135003  11.839   2.812  11.188
77702SOL    HW235004  11.968   2.879  11.231
77703SOL     OW35005  13.496   1.102   1.889
77703SOL    HW135006  13.515   1.196   1.885
77703SOL    HW235007  13.400   1.097   1.886
77704SOL     OW35008   5.798   2.207   0.245
77704SOL    HW135009   5.871   2.170   0.296
77704SOL    HW235010   5.817   2.182   0.155
77705SOL     OW35011  10.234  13.932   7.899
77705SOL    HW135012  10.231  14.024   7.870
77705SOL    HW235013  10.145  13.914   7.930
77706SOL     OW35014   1.427   0.411   8.124
77706SOL    HW135015   1.523   0.411   8.119
77706SOL    HW235016   1.399   0.391   8.035
77707SOL     OW35017  11.522   2.643   5.442
77707SOL    HW135018  11.474   2.643   5.525
77707SOL    HW235019  11.600   2.696   5.459
77708SOL     OW35020   0.485  14.324   3.661
77708SOL    HW135021   0.452  14.333   3.572
77708SOL    HW235022   0.564  14.270   3.652
77709SOL     OW35023  11.837  13.414   5.930
77709SOL    HW135024  11.880  13.328   5.925
77709SOL    HW235025  11.746  13.394   5.953
77710SOL     OW35026   0.322   5.194   1.982
77710SOL    HW135027   0.278   5.188   2.067
77710SOL    HW235028   0.350   5.285   1.975
77711SOL     OW35029   8.238   8.161   3.662
77711SOL    HW135030   8.183   8.112   3.723
77711SOL    HW235031   8.315   8.186   3.713
77712SOL     OW35032  12.685   5.089   1.998
77712SOL    HW135033  12.702   5.183   2.000
77712SOL    HW235034  12.772   5.049   1.990
77713SOL     OW35035   8.380   4.105   6.939
77713SOL    HW135036   8.454   4.084   6.883
77713SOL    HW235037   8.409   4.082   7.027
77714SOL     OW35038   0.904   9.776   4.208
77714SOL    HW135039   0.874   9.866   4.201
77714SOL    HW235040   0.852   9.738   4.279
77715SOL     OW35041  10.418   9.776  11.467
77715SOL    HW135042  10.329   9.798  11.439
77715SOL    HW235043  10.423   9.680  11.460
77716SOL     OW35044  12.773   3.799   2.817
77716SOL    HW135045  12.763   3.704   2.812
77716SOL    HW235046  12.837   3.813   2.886
77717SOL     OW35047   9.657   6.303  11.853
77717SOL    HW135048   9.643   6.337  11.942
77717SOL    HW235049   9.586   6.239  11.842
77718SOL     OW35050   4.517   0.805   4.609
77718SOL    HW135051   4.571   0.849   4.544
77718SOL    HW235052   4.470   0.876   4.654
77719SOL     OW35053   2.792   0.956   4.832
77719SOL    HW135054   2.818   1.047   4.825
77719SOL    HW235055   2.788   0.924   4.742
77720SOL     OW35056   1.414   8.761   6.525
77720SOL    HW135057   1.387   8.710   6.601
77720SOL    HW235058   1.333   8.793   6.488
77721SOL     OW35059  11.840   5.076   8.477
77721SOL    HW135060  11.919   5.129   8.463
77721SOL    HW235061  11.870   5.002   8.529
77722SOL     OW35062  14.843   4.317   1.728
77722SOL    HW135063  14.864   4.340   1.638
77722SOL    HW235064   0.019   4.237   1.744
77723SOL     OW35065  12.901   7.678   0.713
77723SOL    HW135066  12.950   7.625   0.650
77723SOL    HW235067  12.963   7.744   0.743
77724SOL     OW35068   1.605   2.322  10.117
77724SOL    HW135069   1.631   2.346  10.028
77724SOL    HW235070   1.513   2.296  10.109
77725SOL     OW35071   4.681   0.674  14.101
77725SOL    HW135072   4.651   0.693  14.190
77725SOL    HW235073   4.765   0.630  14.114
77726SOL     OW35074   3.376   4.282   7.059
77726SOL    HW135075   3.394   4.190   7.045
77726SOL    HW235076   3.281   4.290   7.047
77727SOL     OW35077   7.318   2.668   6.107
77727SOL    HW135078   7.351   2.672   6.196
77727SOL    HW235079   7.397   2.662   6.052
77728SOL     OW35080   5.336  14.271  11.092
77728SOL    HW135081   5.297  14.206  11.034
77728SOL    HW235082   5.392  14.219  11.151
77729SOL     OW35083   2.023   7.534   9.277
77729SOL    HW135084   2.050   7.487   9.198
77729SOL    HW235085   2.001   7.622   9.246
77730SOL     OW35086   5.099   9.676   0.330
77730SOL    HW135087   5.029   9.732   0.363
77730SOL    HW235088   5.054   9.599   0.296
77731SOL     OW35089   0.582   8.957   2.070
77731SOL    HW135090   0.636   8.920   2.000
77731SOL    HW235091   0.577   9.050   2.051
77732SOL     OW35092   7.470   3.925   6.269
77732SOL    HW135093   7.545   3.867   6.259
77732SOL    HW235094   7.429   3.926   6.182
77733SOL     OW35095   4.539  11.096   9.289
77733SOL    HW135096   4.609  11.041   9.323
77733SOL    HW235097   4.547  11.179   9.336
77734SOL     OW35098   9.937   4.107   0.712
77734SOL    HW135099   9.862   4.164   0.728
77734SOL    HW235100   9.988   4.151   0.644
77735SOL     OW35101   2.354  10.178   3.607
77735SOL    HW135102   2.376  10.194   3.515
77735SOL    HW235103   2.341  10.083   3.612
77736SOL     OW35104  14.286   6.359  14.422
77736SOL    HW135105  14.307   6.385  14.512
77736SOL    HW235106  14.294   6.440  14.372
77737SOL     OW35107  14.392   8.258   6.727
77737SOL    HW135108  14.336   8.319   6.775
77737SOL    HW235109  14.343   8.176   6.726
77738SOL     OW35110  11.745  13.892   0.709
77738SOL    HW135111  11.806  13.965   0.723
77738SOL    HW235112  11.675  13.907   0.772
77739SOL     OW35113   2.169   9.839   1.978
77739SOL    HW135114   2.263   9.852   1.991
77739SOL    HW235115   2.163   9.796   1.892
77740SOL     OW35116   2.285   8.677   7.285
77740SOL    HW135117   2.302   8.604   7.344
77740SOL    HW235118   2.318   8.648   7.200
77741SOL     OW35119  11.549  12.586   1.889
77741SOL    HW135120  11.531  12.506   1.939
77741SOL    HW235121  11.473  12.594   1.831
77742SOL     OW35122  13.850   0.253   6.193
77742SOL    HW135123  13.777   0.311   6.216
77742SOL    HW235124  13.834   0.229   6.102
77743SOL     OW35125   7.584   1.114   7.492
77743SOL    HW135126   7.661   1.156   7.454
77743SOL    HW235127   7.615   1.029   7.522
77744SOL     OW35128  12.788  10.812  14.265
77744SOL    HW135129  12.876  10.774  14.267
77744SOL    HW235130  12.774  10.836  14.174
77745SOL     OW35131   7.059   4.474  11.352
77745SOL    HW135132   7.005   4.503  11.425
77745SOL    HW235133   7.029   4.525  11.277
77746SOL     OW35134   0.739   2.913  11.448
77746SOL    HW135135   0.721   2.952  11.363
77746SOL    HW235136   0.717   2.982  11.511
77747SOL     OW35137  14.745   0.442   9.149
77747SOL    HW135138  14.773   0.353   9.128
77747SOL    HW235139  14.693   0.470   9.074
77748SOL     OW35140   4.343   4.899   2.789
77748SOL    HW135141   4.341   4.938   2.701
77748SOL    HW235142   4.423   4.847   2.791
77749SOL     OW35143   3.728  12.531   1.976
77749SOL    HW135144   3.641  12.508   2.010
77749SOL    HW235145   3.779  12.450   1.985
77750SOL     OW35146  11.621  14.074   5.164
77750SOL    HW135147  11.679  14.024   5.222
77750SOL    HW235148  11.533  14.054   5.195
77751SOL     OW35149   2.203   0.447  10.104
77751SOL    HW135150   2.273   0.400  10.150
77751SOL    HW235151   2.133   0.383  10.095
77752SOL     OW35152   2.307   8.719   4.858
77752SOL    HW135153   2.344   8.790   4.806
77752SOL    HW235154   2.235   8.686   4.805
77753SOL     OW35155   4.457   9.140  13.700
77753SOL    HW135156   4.534   9.129  13.757
77753SOL    HW235157   4.422   9.051  13.690
77754SOL     OW35158   2.930  12.333   0.447
77754SOL    HW135159   2.855  12.392   0.451
77754SOL    HW235160   3.006  12.390   0.463
77755SOL     OW35161  11.378  10.632  11.717
77755SOL    HW135162  11.337  10.706  11.672
77755SOL    HW235163  11.340  10.633  11.805
77756SOL     OW35164   9.779  11.749   1.311
77756SOL    HW135165   9.868  11.715   1.301
77756SOL    HW235166   9.784  11.838   1.276
77757SOL     OW35167   3.097   7.735  13.671
77757SOL    HW135168   3.151   7.657  13.658
77757SOL    HW235169   3.124   7.769  13.756
77758SOL     OW35170  13.987   3.016   9.331
77758SOL    HW135171  14.024   3.080   9.270
77758SOL    HW235172  14.003   2.931   9.289
77759SOL     OW35173   7.363   4.602  11.384
77759SOL    HW135174   7.277   4.566  11.362
77759SOL    HW235175   7.420   4.526  11.391
77760SOL     OW35176  12.586   1.095   0.805
77760SOL    HW135177  12.575   1.141   0.721
77760SOL    HW235178  12.555   1.006   0.787
77761SOL     OW35179  14.703   5.215   2.174
77761SOL    HW135180  14.653   5.135   2.190
77761SOL    HW235181  14.637   5.283   2.162
77762SOL     OW35182   9.613   9.799   2.856
77762SOL    HW135183   9.618   9.718   2.906
77762SOL    HW235184   9.560   9.777   2.780
77763SOL     OW35185  14.756   5.886   8.309
77763SOL    HW135186  14.753   5.790   8.306
77763SOL    HW235187  14.786   5.906   8.397
77764SOL     OW35188  13.092   9.661   4.297
77764SOL    HW135189  13.182   9.668   4.328
77764SOL    HW235190  13.099   9.655   4.202
77765SOL     OW35191  14.246   2.035   3.042
77765SOL    HW135192  14.298   2.063   3.117
77765SOL    HW235193  14.271   1.944   3.027
77766SOL     OW35194  13.159   4.446   0.794
77766SOL    HW135195  13.218   4.475   0.725
77766SOL    HW235196  13.217   4.418   0.865
77767SOL     OW35197   9.785   0.185  11.859
77767SOL    HW135198   9.794   0.272  11.820
77767SOL    HW235199   9.799   0.124  11.787
77768SOL     OW35200   3.500   1.654   4.730
77768SOL    HW135201   3.438   1.709   4.778
77768SOL    HW235202   3.540   1.599   4.797
77769SOL     OW35203  12.608  10.328   4.386
77769SOL    HW135204  12.635  10.400   4.328
77769SOL    HW235205  12.660  10.253   4.357
77770SOL     OW35206   3.528  10.628   3.125
77770SOL    HW135207   3.439  10.659   3.139
77770SOL    HW235208   3.526  10.536   3.153
77771SOL     OW35209   2.152  14.534   6.782
77771SOL    HW135210   2.118  14.623   6.777
77771SOL    HW235211   2.075  14.479   6.768
77772SOL     OW35212   6.742  12.631   9.442
77772SOL    HW135213   6.769  12.721   9.423
77772SOL    HW235214   6.704  12.599   9.359
77773SOL     OW35215   2.774  11.398   3.079
77773SOL    HW135216   2.775  11.315   3.127
77773SOL    HW235217   2.716  11.454   3.130
77774SOL     OW35218  12.195   3.608   8.256
77774SOL    HW135219  12.123   3.666   8.233
77774SOL    HW235220  12.262   3.666   8.292
77775SOL     OW35221   9.468  10.871   1.735
77775SOL    HW135222   9.505  10.901   1.652
77775SOL    HW235223   9.374  10.886   1.726
77776SOL     OW35224   3.994   6.958   6.691
77776SOL    HW135225   3.904   6.986   6.676
77776SOL    HW235226   3.994   6.865   6.671
77777SOL     OW35227   8.951   9.765   2.862
77777SOL    HW135228   8.960   9.702   2.934
77777SOL    HW235229   8.960   9.712   2.783
77778SOL     OW35230   2.584  11.694   3.750
77778SOL    HW135231   2.664  11.714   3.799
77778SOL    HW235232   2.517  11.749   3.791
77779SOL     OW35233   7.228   7.542   6.543
77779SOL    HW135234   7.315   7.574   6.567
77779SOL    HW235235   7.197   7.604   6.478
77780SOL     OW35236   5.307   9.916   6.902
77780SOL    HW135237   5.257   9.957   6.830
77780SOL    HW235238   5.353   9.989   6.944
77781SOL     OW35239  10.030   6.344   8.343
77781SOL    HW135240  10.017   6.434   8.374
77781SOL    HW235241  10.079   6.353   8.261
77782SOL     OW35242   2.257   9.495   2.388
77782SOL    HW135243   2.341   9.492   2.343
77782SOL    HW235244   2.199   9.540   2.326
77783SOL     OW35245   9.644  13.791   2.139
77783SOL    HW135246   9.577  13.736   2.100
77783SOL    HW235247   9.677  13.740   2.213
77784SOL     OW35248  13.215  10.779   9.247
77784SOL    HW135249  13.214  10.694   9.291
77784SOL    HW235250  13.169  10.838   9.307
77785SOL     OW35251   3.441   6.407   6.659
77785SOL    HW135252   3.433   6.484   6.603
77785SOL    HW235253   3.359   6.360   6.648
77786SOL     OW35254   5.550  14.361  14.846
77786SOL    HW135255   5.617  14.369  14.778
77786SOL    HW235256   5.554  14.444   0.019
77787SOL     OW35257   0.543   3.844   0.265
77787SOL    HW135258   0.633   3.875   0.273
77787SOL    HW235259   0.527   3.839   0.170
77788SOL     OW35260  10.409   0.254   9.548
77788SOL    HW135261  10.376   0.229   9.462
77788SOL    HW235262  10.504   0.253   9.538
77789SOL     OW35263   6.720   3.796   4.518
77789SOL    HW135264   6.708   3.769   4.608
77789SOL    HW235265   6.750   3.718   4.472
77790SOL     OW35266   7.973   4.592  10.416
77790SOL    HW135267   7.972   4.642  10.497
77790SOL    HW235268   8.045   4.630  10.365
77791SOL     OW35269   6.137  10.952   5.908
77791SOL    HW135270   6.135  10.925   6.000
77791SOL    HW235271   6.055  11.000   5.895
77792SOL     OW35272  10.693  10.178   2.088
77792SOL    HW135273  10.743  10.260   2.095
77792SOL    HW235274  10.759  10.109   2.094
77793SOL     OW35275   8.124   7.765   7.222
77793SOL    HW135276   8.215   7.747   7.197
77793SOL    HW235277   8.118   7.735   7.313
77794SOL     OW35278  14.781   0.063   9.999
77794SOL    HW135279  14.851   0.016   9.953
77794SOL    HW235280  14.701   0.034   9.956
77795SOL     OW35281   1.194   9.332  10.111
77795SOL    HW135282   1.136   9.368  10.044
77795SOL    HW235283   1.137   9.313  10.185
77796SOL     OW35284   0.392   2.200   7.958
77796SOL    HW135285   0.440   2.261   7.903
77796SOL    HW235286   0.310   2.184   7.911
77797SOL     OW35287   2.646   0.499  13.644
77797SOL    HW135288   2.590   0.438  13.691
77797SOL    HW235289   2.599   0.518  13.563
77798SOL     OW35290  13.933   6.754  12.316
77798SOL    HW135291  13.928   6.741  12.411
77798SOL    HW235292  13.858   6.809  12.296
77799SOL     OW35293  12.435   5.771   9.134
77799SOL    HW135294  12.383   5.846   9.162
77799SOL    HW235295  12.408   5.700   9.192
77800SOL     OW35296   5.464   7.884   8.561
77800SOL    HW135297   5.460   7.811   8.622
77800SOL    HW235298   5.540   7.865   8.505
77801SOL     OW35299  11.563   3.153   9.132
77801SOL    HW135300  11.504   3.200   9.191
77801SOL    HW235301  11.600   3.084   9.187
77802SOL     OW35302   4.136   3.466   2.716
77802SOL    HW135303   4.130   3.559   2.691
77802SOL    HW235304   4.227   3.455   2.744
77803SOL     OW35305   5.854   8.975   9.414
77803SOL    HW135306   5.858   8.882   9.437
77803SOL    HW235307   5.946   9.002   9.408
77804SOL     OW35308   5.617   1.554   7.622
77804SOL    HW135309   5.708   1.561   7.592
77804SOL    HW235310   5.605   1.631   7.679
77805SOL     OW35311   5.051   2.897  14.449
77805SOL    HW135312   5.105   2.962  14.403
77805SOL    HW235313   5.114   2.840  14.493
77806SOL     OW35314   1.253   7.556   5.017
77806SOL    HW135315   1.250   7.641   5.060
77806SOL    HW235316   1.341   7.523   5.033
77807SOL     OW35317   4.933   8.072   6.523
77807SOL    HW135318   4.968   8.030   6.445
77807SOL    HW235319   4.911   8.000   6.582
77808SOL     OW35320   3.685   4.166   7.950
77808SOL    HW135321   3.752   4.197   8.011
77808SOL    HW235322   3.709   4.075   7.932
77809SOL     OW35323   2.132  10.009  13.846
77809SOL    HW135324   2.176  10.089  13.876
77809SOL    HW235325   2.094   9.971  13.925
77810SOL     OW35326   0.170   8.955   8.614
77810SOL    HW135327   0.153   8.968   8.521
77810SOL    HW235328   0.108   9.014   8.658
77811SOL     OW35329  13.135   5.635  13.665
77811SOL    HW135330  13.206   5.660  13.724
77811SOL    HW235331  13.064   5.696  13.685
77812SOL     OW35332   9.480   6.819   0.676
77812SOL    HW135333   9.490   6.873   0.597
77812SOL    HW235334   9.389   6.792   0.675
77813SOL     OW35335   6.937   9.055   5.834
77813SOL    HW135336   7.017   9.101   5.859
77813SOL    HW235337   6.886   9.050   5.915
77814SOL     OW35338   7.221  10.461  10.093
77814SOL    HW135339   7.158  10.444  10.163
77814SOL    HW235340   7.173  10.515  10.030
77815SOL     OW35341  12.517   0.776  13.965
77815SOL    HW135342  12.535   0.866  13.992
77815SOL    HW235343  12.519   0.726  14.047
77816SOL     OW35344  13.178   1.945   0.994
77816SOL    HW135345  13.252   1.893   0.963
77816SOL    HW235346  13.124   1.884   1.044
77817SOL     OW35347   5.357   1.638  11.858
77817SOL    HW135348   5.367   1.545  11.876
77817SOL    HW235349   5.411   1.682  11.924
77818SOL     OW35350  11.591   4.429  10.031
77818SOL    HW135351  11.519   4.480  10.069
77818SOL    HW235352  11.573   4.339  10.058
77819SOL     OW35353  12.098  11.978   1.832
77819SOL    HW135354  12.171  11.948   1.887
77819SOL    HW235355  12.023  11.981   1.891
77820SOL     OW35356  14.117   5.781   4.143
77820SOL    HW135357  14.104   5.688   4.127
77820SOL    HW235358  14.047   5.805   4.203
77821SOL     OW35359   5.189   6.264   7.086
77821SOL    HW135360   5.160   6.268   7.177
77821SOL    HW235361   5.114   6.228   7.039
77822SOL     OW35362   6.268  12.825   3.818
77822SOL    HW135363   6.288  12.733   3.835
77822SOL    HW235364   6.341  12.874   3.854
77823SOL     OW35365  14.454   8.331  10.213
77823SOL    HW135366  14.487   8.290  10.133
77823SOL    HW235367  14.380   8.385  10.184
77824SOL     OW35368   3.413   8.513   0.441
77824SOL    HW135369   3.365   8.590   0.470
77824SOL    HW235370   3.505   8.536   0.451
77825SOL     OW35371   4.665  10.696  10.419
77825SOL    HW135372   4.617  10.712  10.500
77825SOL    HW235373   4.598  10.693  10.351
77826SOL     OW35374  11.825   3.939   3.356
77826SOL    HW135375  11.838   3.920   3.449
77826SOL    HW235376  11.792   3.857   3.319
77827SOL     OW35377   3.166  12.559   6.974
77827SOL    HW135378   3.188  12.593   6.887
77827SOL    HW235379   3.210  12.618   7.035
77828SOL     OW35380   1.417  12.999   7.782
77828SOL    HW135381   1.429  13.093   7.796
77828SOL    HW235382   1.487  12.975   7.721
77829SOL     OW35383   7.364   8.173   5.283
77829SOL    HW135384   7.284   8.156   5.232
77829SOL    HW235385   7.391   8.261   5.256
77830SOL     OW35386   7.223   6.630   0.557
77830SOL    HW135387   7.207   6.609   0.649
77830SOL    HW235388   7.142   6.670   0.527
77831SOL     OW35389   8.527  10.877   5.195
77831SOL    HW135390   8.442  10.868   5.239
77831SOL    HW235391   8.504  10.895   5.103
77832SOL     OW35392   8.656  12.975   8.730
77832SOL    HW135393   8.719  13.043   8.706
77832SOL    HW235394   8.669  12.962   8.824
77833SOL     OW35395   5.668   1.821  12.526
77833SOL    HW135396   5.603   1.828  12.596
77833SOL    HW235397   5.749   1.795  12.571
77834SOL     OW35398   7.018  11.558   7.718
77834SOL    HW135399   6.936  11.528   7.757
77834SOL    HW235400   7.049  11.627   7.777
77835SOL     OW35401   9.304   5.421   7.387
77835SOL    HW135402   9.223   5.439   7.434
77835SOL    HW235403   9.297   5.329   7.360
77836SOL     OW35404   5.728   5.610  12.657
77836SOL    HW135405   5.672   5.659  12.717
77836SOL    HW235406   5.755   5.533  12.707
77837SOL     OW35407   6.271   6.821   3.396
77837SOL    HW135408   6.341   6.853   3.338
77837SOL    HW235409   6.262   6.728   3.373
77838SOL     OW35410   1.996  14.452  10.357
77838SOL    HW135411   2.028  14.520  10.298
77838SOL    HW235412   1.905  14.475  10.373
77839SOL     OW35413   0.060   9.704   4.073
77839SOL    HW135414   0.034   9.753   3.995
77839SOL    HW235415  14.856   9.699   4.126
77840SOL     OW35416   4.508  14.502   0.667
77840SOL    HW135417   4.522  14.517   0.573
77840SOL    HW235418   4.512  14.590   0.706
77841SOL     OW35419   0.801  11.111   3.270
77841SOL    HW135420   0.851  11.054   3.212
77841SOL    HW235421   0.860  11.127   3.344
77842SOL     OW35422   9.288  13.818  12.449
77842SOL    HW135423   9.228  13.804  12.522
77842SOL    HW235424   9.362  13.761  12.467
77843SOL     OW35425   1.340   7.993   9.961
77843SOL    HW135426   1.258   7.957   9.927
77843SOL    HW235427   1.315   8.033  10.044
77844SOL     OW35428   3.826  13.498  10.701
77844SOL    HW135429   3.822  13.480  10.607
77844SOL    HW235430   3.765  13.570  10.714
77845SOL     OW35431   8.803  11.935   4.833
77845SOL    HW135432   8.827  11.887   4.754
77845SOL    HW235433   8.709  11.951   4.824
77846SOL     OW35434   7.514   7.189  11.733
77846SOL    HW135435   7.605   7.160  11.726
77846SOL    HW235436   7.462   7.109  11.725
77847SOL     OW35437   8.797   1.287   2.709
77847SOL    HW135438   8.835   1.247   2.631
77847SOL    HW235439   8.737   1.221   2.743
77848SOL     OW35440  12.000   1.826   2.661
77848SOL    HW135441  12.081   1.796   2.618
77848SOL    HW235442  12.027   1.848   2.750
77849SOL     OW35443   6.493  14.265  10.836
77849SOL    HW135444   6.441  14.316  10.775
77849SOL    HW235445   6.568  14.235  10.785
77850SOL     OW35446  13.260  11.650  12.045
77850SOL    HW135447  13.353  11.643  12.068
77850SOL    HW235448  13.241  11.744  12.054
77851SOL     OW35449   9.004  11.716   7.131
77851SOL    HW135450   9.073  11.738   7.068
77851SOL    HW235451   8.922  11.731   7.083
77852SOL     OW35452  10.269   6.160  14.341
77852SOL    HW135453  10.321   6.168  14.421
77852SOL    HW235454  10.179   6.177  14.369
77853SOL     OW35455  12.159   7.129   5.702
77853SOL    HW135456  12.241   7.134   5.752
77853SOL    HW235457  12.181   7.078   5.624
77854SOL     OW35458  13.669   7.497  12.041
77854SOL    HW135459  13.744   7.513  11.984
77854SOL    HW235460  13.700   7.431  12.103
77855SOL     OW35461  12.964  14.753   1.750
77855SOL    HW135462  12.991  14.675   1.702
77855SOL    HW235463  13.045  14.802   1.764
77856SOL     OW35464  13.731  13.150   3.984
77856SOL    HW135465  13.795  13.132   4.053
77856SOL    HW235466  13.655  13.185   4.030
77857SOL     OW35467   6.439  14.416   9.054
77857SOL    HW135468   6.371  14.383   9.112
77857SOL    HW235469   6.519  14.373   9.084
77858SOL     OW35470  10.627  13.895   6.559
77858SOL    HW135471  10.543  13.927   6.528
77858SOL    HW235472  10.607  13.813   6.604
77859SOL     OW35473   0.254   7.270  10.949
77859SOL    HW135474   0.335   7.322  10.944
77859SOL    HW235475   0.231   7.271  11.042
77860SOL     OW35476   2.504   3.134   0.934
77860SOL    HW135477   2.415   3.165   0.948
77860SOL    HW235478   2.559   3.203   0.971
77861SOL     OW35479  10.293   8.425  13.085
77861SOL    HW135480  10.262   8.474  13.008
77861SOL    HW235481  10.217   8.419  13.142
77862SOL     OW35482  14.170   1.999   4.963
77862SOL    HW135483  14.221   1.937   4.912
77862SOL    HW235484  14.139   1.949   5.038
77863SOL     OW35485   1.622   9.543   0.464
77863SOL    HW135486   1.550   9.481   0.468
77863SOL    HW235487   1.623   9.573   0.373
77864SOL     OW35488  12.915   6.299  11.000
77864SOL    HW135489  12.844   6.277  11.060
77864SOL    HW235490  12.903   6.392  10.981
77865SOL     OW35491   5.961   7.649   7.233
77865SOL    HW135492   5.960   7.737   7.194
77865SOL    HW235493   5.971   7.591   7.158
77866SOL     OW35494   2.413   3.221   7.685
77866SOL    HW135495   2.450   3.258   7.765
77866SOL    HW235496   2.413   3.293   7.622
77867SOL     OW35497  14.559  11.113  13.316
77867SOL    HW135498  14.591  11.149  13.399
77867SOL    HW235499  14.570  11.184  13.253
77868SOL     OW35500   7.074   9.968  10.934
77868SOL    HW135501   6.989   9.998  10.967
77868SOL    HW235502   7.058   9.881  10.900
77869SOL     OW35503  11.205  13.667   3.781
77869SOL    HW135504  11.222  13.720   3.859
77869SOL    HW235505  11.149  13.596   3.813
77870SOL     OW35506   1.126   2.265  11.386
77870SOL    HW135507   1.054   2.320  11.417
77870SOL    HW235508   1.168   2.233  11.466
77871SOL     OW35509   4.258  11.233   2.887
77871SOL    HW135510   4.255  11.209   2.795
77871SOL    HW235511   4.337  11.285   2.896
77872SOL     OW35512   2.159   3.858   3.946
77872SOL    HW135513   2.084   3.825   3.995
77872SOL    HW235514   2.130   3.859   3.855
77873SOL     OW35515   0.506   7.397   1.782
77873SOL    HW135516   0.584   7.381   1.835
77873SOL    HW235517   0.531   7.470   1.725
77874SOL     OW35518  13.784  14.850   3.840
77874SOL    HW135519  13.877  14.828   3.831
77874SOL    HW235520  13.773   0.052   3.784
77875SOL     OW35521  10.102  11.068   5.148
77875SOL    HW135522  10.144  10.983   5.137
77875SOL    HW235523  10.134  11.101   5.232
77876SOL     OW35524   7.518   7.829   6.188
77876SOL    HW135525   7.500   7.922   6.170
77876SOL    HW235526   7.592   7.807   6.133
77877SOL     OW35527   3.126   8.585   4.009
77877SOL    HW135528   3.119   8.506   3.956
77877SOL    HW235529   3.074   8.567   4.087
77878SOL     OW35530   6.549   2.212   3.496
77878SOL    HW135531   6.551   2.169   3.581
77878SOL    HW235532   6.641   2.219   3.470
77879SOL     OW35533  12.415  11.866   4.087
77879SOL    HW135534  12.420  11.774   4.115
77879SOL    HW235535  12.376  11.912   4.161
77880SOL     OW35536   0.331   5.458   6.953
77880SOL    HW135537   0.265   5.401   6.912
77880SOL    HW235538   0.280   5.531   6.987
77881SOL     OW35539   6.416   7.264   1.568
77881SOL    HW135540   6.351   7.234   1.505
77881SOL    HW235541   6.420   7.195   1.634
77882SOL     OW35542   6.075   9.226   2.470
77882SOL    HW135543   6.069   9.296   2.535
77882SOL    HW235544   6.085   9.146   2.522
77883SOL     OW35545  10.345   0.547  13.608
77883SOL    HW135546  10.285   0.530  13.535
77883SOL    HW235547  10.350   0.463  13.654
77884SOL     OW35548   4.519  10.722   4.011
77884SOL    HW135549   4.518  10.642   4.063
77884SOL    HW235550   4.442  10.715   3.955
77885SOL     OW35551  12.492   3.244  10.005
77885SOL    HW135552  12.404   3.211  10.019
77885SOL    HW235553  12.549   3.180  10.048
77886SOL     OW35554   0.557   3.485   1.523
77886SOL    HW135555   0.625   3.469   1.589
77886SOL    HW235556   0.538   3.398   1.488
77887SOL     OW35557  10.944   7.194   8.976
77887SOL    HW135558  10.984   7.157   8.897
77887SOL    HW235559  10.893   7.121   9.012
77888SOL     OW35560  13.864  13.811  13.501
77888SOL    HW135561  13.922  13.735  13.500
77888SOL    HW235562  13.857  13.837  13.409
77889SOL     OW35563   3.341  14.288   4.561
77889SOL    HW135564   3.295  14.353   4.507
77889SOL    HW235565   3.432  14.317   4.561
77890SOL     OW35566   0.279   5.076   6.444
77890SOL    HW135567   0.282   5.035   6.530
77890SOL    HW235568   0.213   5.026   6.396
77891SOL     OW35569   5.016   9.984  11.670
77891SOL    HW135570   5.005  10.051  11.739
77891SOL    HW235571   4.945   9.921  11.687
77892SOL     OW35572   6.351  10.956   5.182
77892SOL    HW135573   6.317  11.023   5.242
77892SOL    HW235574   6.394  11.007   5.112
77893SOL     OW35575  14.321   6.062   8.691
77893SOL    HW135576  14.411   6.033   8.683
77893SOL    HW235577  14.268   5.987   8.664
77894SOL     OW35578   4.914  13.818   1.191
77894SOL    HW135579   4.928  13.766   1.112
77894SOL    HW235580   4.922  13.909   1.161
77895SOL     OW35581   6.706   5.187  13.449
77895SOL    HW135582   6.678   5.103  13.487
77895SOL    HW235583   6.640   5.208  13.384
77896SOL     OW35584   5.036   3.674  13.881
77896SOL    HW135585   4.966   3.690  13.944
77896SOL    HW235586   5.075   3.761  13.865
77897SOL     OW35587   0.698   4.436  10.334
77897SOL    HW135588   0.688   4.360  10.391
77897SOL    HW235589   0.722   4.399  10.249
77898SOL     OW35590   6.859  10.717   1.494
77898SOL    HW135591   6.890  10.800   1.531
77898SOL    HW235592   6.848  10.736   1.401
77899SOL     OW35593   3.691   9.815   4.134
77899SOL    HW135594   3.696   9.806   4.229
77899SOL    HW235595   3.727   9.902   4.116
77900SOL     OW35596  14.583   5.230  10.948
77900SOL    HW135597  14.579   5.185  11.032
77900SOL    HW235598  14.646   5.301  10.961
77901SOL     OW35599   1.690   7.635   3.201
77901SOL    HW135600   1.666   7.718   3.158
77901SOL    HW235601   1.785   7.632   3.193
77902SOL     OW35602   2.244  13.197   7.018
77902SOL    HW135603   2.291  13.116   6.999
77902SOL    HW235604   2.156  13.182   6.984
77903SOL     OW35605   6.625   8.518   9.280
77903SOL    HW135606   6.643   8.563   9.198
77903SOL    HW235607   6.666   8.573   9.347
77904SOL     OW35608   4.608   5.736   7.826
77904SOL    HW135609   4.682   5.743   7.765
77904SOL    HW235610   4.573   5.649   7.812
77905SOL     OW35611   3.180  12.284   6.595
77905SOL    HW135612   3.190  12.189   6.601
77905SOL    HW235613   3.244  12.319   6.656
77906SOL     OW35614  12.724   0.559  12.516
77906SOL    HW135615  12.661   0.540  12.447
77906SOL    HW235616  12.793   0.493  12.505
77907SOL     OW35617   5.135   5.948  14.271
77907SOL    HW135618   5.089   5.872  14.305
77907SOL    HW235619   5.083   6.023  14.298
77908SOL     OW35620   6.312   6.706  10.697
77908SOL    HW135621   6.307   6.784  10.752
77908SOL    HW235622   6.222   6.691  10.669
77909SOL     OW35623   4.040   7.868  12.581
77909SOL    HW135624   4.058   7.899  12.670
77909SOL    HW235625   4.023   7.948  12.531
77910SOL     OW35626   0.668  13.014   8.446
77910SOL    HW135627   0.619  13.057   8.518
77910SOL    HW235628   0.651  13.069   8.370
77911SOL     OW35629   5.387  11.282   4.643
77911SOL    HW135630   5.313  11.342   4.631
77911SOL    HW235631   5.464  11.338   4.635
77912SOL     OW35632  12.588   9.957   5.461
77912SOL    HW135633  12.522   9.931   5.525
77912SOL    HW235634  12.656   9.999   5.513
77913SOL     OW35635   3.823   5.672  10.392
77913SOL    HW135636   3.756   5.704  10.330
77913SOL    HW235637   3.775   5.659  10.474
77914SOL     OW35638  11.960  13.880   7.093
77914SOL    HW135639  12.002  13.934   7.160
77914SOL    HW235640  12.032  13.850   7.038
77915SOL     OW35641  11.249   8.131   2.725
77915SOL    HW135642  11.201   8.169   2.652
77915SOL    HW235643  11.292   8.053   2.689
77916SOL     OW35644   8.828   9.195   3.951
77916SOL    HW135645   8.777   9.275   3.962
77916SOL    HW235646   8.762   9.125   3.952
77917SOL     OW35647  12.639  14.293   2.515
77917SOL    HW135648  12.563  14.240   2.540
77917SOL    HW235649  12.625  14.377   2.558
77918SOL     OW35650   9.841   8.390   2.694
77918SOL    HW135651   9.882   8.365   2.777
77918SOL    HW235652   9.764   8.440   2.720
77919SOL     OW35653   4.031   0.017   2.520
77919SOL    HW135654   4.023  14.815   2.577
77919SOL    HW235655   3.941   0.042   2.500
77920SOL     OW35656   2.722  10.476   9.895
77920SOL    HW135657   2.716  10.555   9.841
77920SOL    HW235658   2.637  10.433   9.883
77921SOL     OW35659   9.494  12.354   5.090
77921SOL    HW135660   9.588  12.355   5.072
77921SOL    HW235661   9.460  12.284   5.034
77922SOL     OW35662  14.799   6.167   9.159
77922SOL    HW135663  14.827   6.253   9.127
77922SOL    HW235664  14.757   6.186   9.243
77923SOL     OW35665   3.323  11.629   4.162
77923SOL    HW135666   3.352  11.543   4.131
77923SOL    HW235667   3.238  11.642   4.119
77924SOL     OW35668   8.105   9.896  10.871
77924SOL    HW135669   8.023   9.923  10.830
77924SOL    HW235670   8.146   9.839  10.806
77925SOL     OW35671   0.137  13.629  13.923
77925SOL    HW135672   0.137  13.544  13.966
77925SOL    HW235673   0.223  13.636  13.883
77926SOL     OW35674   6.803   8.156   7.015
77926SOL    HW135675   6.779   8.127   7.103
77926SOL    HW235676   6.898   8.165   7.017
77927SOL     OW35677   5.660   3.507  14.256
77927SOL    HW135678   5.747   3.516  14.217
77927SOL    HW235679   5.650   3.585  14.311
77928SOL     OW35680   6.493   6.210   4.821
77928SOL    HW135681   6.541   6.133   4.852
77928SOL    HW235682   6.562   6.271   4.793
77929SOL     OW35683   3.172   3.634  10.224
77929SOL    HW135684   3.185   3.628  10.319
77929SOL    HW235685   3.077   3.639  10.213
77930SOL     OW35686   5.192   7.819   3.002
77930SOL    HW135687   5.288   7.818   2.994
77930SOL    HW235688   5.170   7.912   2.998
77931SOL     OW35689  10.950   2.255  10.756
77931SOL    HW135690  10.880   2.232  10.817
77931SOL    HW235691  10.906   2.259  10.671
77932SOL     OW35692   9.427  14.403  11.723
77932SOL    HW135693   9.467  14.453  11.794
77932SOL    HW235694   9.477  14.428  11.645
77933SOL     OW35695  14.066   2.474  13.164
77933SOL    HW135696  14.018   2.445  13.242
77933SOL    HW235697  14.155   2.443  13.177
77934SOL     OW35698  14.508  13.103  11.129
77934SOL    HW135699  14.555  13.032  11.087
77934SOL    HW235700  14.448  13.135  11.062
77935SOL     OW35701   0.547  12.928   5.302
77935SOL    HW135702   0.468  12.880   5.278
77935SOL    HW235703   0.608  12.860   5.331
77936SOL     OW35704   5.680  11.617   8.352
77936SOL    HW135705   5.671  11.712   8.355
77936SOL    HW235706   5.590  11.585   8.343
77937SOL     OW35707   1.531   4.016   1.987
77937SOL    HW135708   1.540   4.107   2.016
77937SOL    HW235709   1.594   4.007   1.916
77938SOL     OW35710   1.969  11.998   4.518
77938SOL    HW135711   2.021  11.968   4.592
77938SOL    HW235712   1.902  11.931   4.507
77939SOL     OW35713   1.577  14.059   8.466
77939SOL    HW135714   1.528  13.995   8.518
77939SOL    HW235715   1.518  14.134   8.459
77940SOL     OW35716   0.806  12.751  12.616
77940SOL    HW135717   0.744  12.824  12.623
77940SOL    HW235718   0.863  12.760  12.692
77941SOL     OW35719   1.974  11.166  14.326
77941SOL    HW135720   2.063  11.202  14.328
77941SOL    HW235721   1.978  11.090  14.384
77942SOL     OW35722  13.611  11.741  14.144
77942SOL    HW135723  13.668  11.798  14.092
77942SOL    HW235724  13.610  11.781  14.231
77943SOL     OW35725   3.851   5.664  14.467
77943SOL    HW135726   3.887   5.747  14.436
77943SOL    HW235727   3.800   5.688  14.545
77944SOL     OW35728   7.983  10.176  12.026
77944SOL    HW135729   7.994  10.250  12.086
77944SOL    HW235730   8.069  10.166  11.985
77945SOL     OW35731  10.412  12.487   2.630
77945SOL    HW135732  10.359  12.448   2.561
77945SOL    HW235733  10.383  12.443   2.710
77946SOL     OW35734   6.470   5.495   8.298
77946SOL    HW135735   6.562   5.512   8.274
77946SOL    HW235736   6.433   5.582   8.311
77947SOL     OW35737   2.992  10.315   7.167
77947SOL    HW135738   3.071  10.300   7.218
77947SOL    HW235739   2.929  10.349   7.230
77948SOL     OW35740   8.616  11.078   8.025
77948SOL    HW135741   8.531  11.075   7.980
77948SOL    HW235742   8.659  10.997   7.999
77949SOL     OW35743  13.148   3.128   1.159
77949SOL    HW135744  13.086   3.055   1.155
77949SOL    HW235745  13.128   3.171   1.242
77950SOL     OW35746   1.535   0.964   3.777
77950SOL    HW135747   1.540   0.918   3.693
77950SOL    HW235748   1.527   1.056   3.754
77951SOL     OW35749   1.334   9.649  10.935
77951SOL    HW135750   1.359   9.567  10.979
77951SOL    HW235751   1.268   9.688  10.993
77952SOL     OW35752  11.636   5.732   5.757
77952SOL    HW135753  11.685   5.688   5.687
77952SOL    HW235754  11.629   5.666   5.826
77953SOL     OW35755  10.910   5.125  13.491
77953SOL    HW135756  10.934   5.218  13.495
77953SOL    HW235757  10.917   5.102  13.399
77954SOL     OW35758  12.812   1.896  12.593
77954SOL    HW135759  12.849   1.976  12.554
77954SOL    HW235760  12.851   1.825  12.542
77955SOL     OW35761  14.116   3.097  10.123
77955SOL    HW135762  14.122   3.041  10.046
77955SOL    HW235763  14.022   3.110  10.136
77956SOL     OW35764   3.344   0.059   5.244
77956SOL    HW135765   3.336   0.001   5.319
77956SOL    HW235766   3.397   0.132   5.275
77957SOL     OW35767   4.909  11.278   2.438
77957SOL    HW135768   4.836  11.232   2.478
77957SOL    HW235769   4.869  11.330   2.367
77958SOL     OW35770   8.156   1.944  14.230
77958SOL    HW135771   8.086   1.886  14.262
77958SOL    HW235772   8.131   1.965  14.140
77959SOL     OW35773  13.947   1.547   3.378
77959SOL    HW135774  13.909   1.616   3.432
77959SOL    HW235775  13.887   1.541   3.303
77960SOL     OW35776  13.399  11.853   5.629
77960SOL    HW135777  13.403  11.758   5.638
77960SOL    HW235778  13.445  11.886   5.706
77961SOL     OW35779   1.164   3.031   6.224
77961SOL    HW135780   1.252   3.003   6.199
77961SOL    HW235781   1.178   3.110   6.276
77962SOL     OW35782   8.462   6.171   0.987
77962SOL    HW135783   8.378   6.152   1.028
77962SOL    HW235784   8.527   6.157   1.057
77963SOL     OW35785  14.095   8.373  10.469
77963SOL    HW135786  14.036   8.319  10.416
77963SOL    HW235787  14.064   8.462  10.455
77964SOL     OW35788   0.625   6.978   5.625
77964SOL    HW135789   0.587   6.913   5.683
77964SOL    HW235790   0.620   7.060   5.673
77965SOL     OW35791   0.475  12.359  12.522
77965SOL    HW135792   0.560  12.328  12.553
77965SOL    HW235793   0.456  12.435  12.576
77966SOL     OW35794   2.926  14.377  11.592
77966SOL    HW135795   2.990  14.414  11.531
77966SOL    HW235796   2.897  14.452  11.644
77967SOL     OW35797   2.788  12.003   5.740
77967SOL    HW135798   2.727  12.008   5.814
77967SOL    HW235799   2.844  11.928   5.761
77968SOL     OW35800   6.697   1.079   5.010
77968SOL    HW135801   6.718   1.030   5.089
77968SOL    HW235802   6.771   1.137   4.998
77969SOL     OW35803   7.944   5.760  14.251
77969SOL    HW135804   7.975   5.751  14.161
77969SOL    HW235805   7.980   5.684  14.297
77970SOL     OW35806  12.782   3.161   1.197
77970SOL    HW135807  12.690   3.185   1.209
77970SOL    HW235808  12.813   3.139   1.285
77971SOL     OW35809   8.752   2.181   7.091
77971SOL    HW135810   8.782   2.198   7.002
77971SOL    HW235811   8.730   2.267   7.126
77972SOL     OW35812   4.339   3.009  11.873
77972SOL    HW135813   4.323   2.918  11.847
77972SOL    HW235814   4.423   3.005  11.921
77973SOL     OW35815   5.457  14.355  10.676
77973SOL    HW135816   5.524  14.424  10.678
77973SOL    HW235817   5.375  14.402  10.660
77974SOL     OW35818   6.383   0.403   8.293
77974SOL    HW135819   6.410   0.364   8.376
77974SOL    HW235820   6.313   0.464   8.318
77975SOL     OW35821  14.008   0.003  12.679
77975SOL    HW135822  14.003   0.035  12.769
77975SOL    HW235823  13.939   0.051  12.633
77976SOL     OW35824   3.153   9.639   4.913
77976SOL    HW135825   3.145   9.545   4.895
77976SOL    HW235826   3.067   9.664   4.946
77977SOL     OW35827   0.600   8.361   6.893
77977SOL    HW135828   0.578   8.453   6.879
77977SOL    HW235829   0.610   8.353   6.988
77978SOL     OW35830   4.221   1.726   0.024
77978SOL    HW135831   4.316   1.729   0.028
77978SOL    HW235832   4.192   1.801   0.075
77979SOL     OW35833   3.589  12.606   2.541
77979SOL    HW135834   3.549  12.563   2.617
77979SOL    HW235835   3.514  12.642   2.492
77980SOL     OW35836  10.304   2.953   2.495
77980SOL    HW135837  10.275   3.044   2.484
77980SOL    HW235838  10.254   2.921   2.570
77981SOL     OW35839   3.487   2.735  10.033
77981SOL    HW135840   3.470   2.774   9.947
77981SOL    HW235841   3.549   2.795  10.075
77982SOL     OW35842   2.507   7.797   8.235
77982SOL    HW135843   2.533   7.736   8.304
77982SOL    HW235844   2.504   7.882   8.278
77983SOL     OW35845   8.174   5.481   8.987
77983SOL    HW135846   8.231   5.557   9.000
77983SOL    HW235847   8.219   5.409   9.032
77984SOL     OW35848  13.769   0.648   1.926
77984SOL    HW135849  13.853   0.671   1.886
77984SOL    HW235850  13.703   0.683   1.866
77985SOL     OW35851   2.710  12.612   6.832
77985SOL    HW135852   2.628  12.633   6.877
77985SOL    HW235853   2.729  12.522   6.860
77986SOL     OW35854   3.779  11.727  10.726
77986SOL    HW135855   3.863  11.773  10.726
77986SOL    HW235856   3.764  11.705  10.818
77987SOL     OW35857   8.139   1.091  14.204
77987SOL    HW135858   8.053   1.085  14.162
77987SOL    HW235859   8.123   1.140  14.285
77988SOL     OW35860   6.377   6.530  12.601
77988SOL    HW135861   6.423   6.550  12.683
77988SOL    HW235862   6.442   6.483  12.549
77989SOL     OW35863   0.712   9.438  14.590
77989SOL    HW135864   0.673   9.437  14.503
77989SOL    HW235865   0.753   9.352  14.598
77990SOL     OW35866   4.573   9.551   7.643
77990SOL    HW135867   4.648   9.597   7.678
77990SOL    HW235868   4.514   9.539   7.718
77991SOL     OW35869   2.624  12.530  13.181
77991SOL    HW135870   2.619  12.466  13.110
77991SOL    HW235871   2.593  12.611  13.141
77992SOL     OW35872   1.860  10.795  14.872
77992SOL    HW135873   1.858  10.777   0.091
77992SOL    HW235874   1.807  10.725  14.834
77993SOL     OW35875   9.188  11.876  14.143
77993SOL    HW135876   9.245  11.947  14.113
77993SOL    HW235877   9.112  11.880  14.084
77994SOL     OW35878   8.045   7.015   9.724
77994SOL    HW135879   8.017   6.925   9.745
77994SOL    HW235880   8.130   7.025   9.766
77995SOL     OW35881  13.686  10.101   5.647
77995SOL    HW135882  13.597  10.123   5.676
77995SOL    HW235883  13.740  10.174   5.678
77996SOL     OW35884   5.964   7.979   1.730
77996SOL    HW135885   6.060   7.977   1.726
77996SOL    HW235886   5.936   7.905   1.676
77997SOL     OW35887   7.946   0.293   5.247
77997SOL    HW135888   7.963   0.354   5.175
77997SOL    HW235889   7.853   0.272   5.241
77998SOL     OW35890   4.361   9.893   0.448
77998SOL    HW135891   4.267   9.893   0.466
77998SOL    HW235892   4.401   9.917   0.532
77999SOL     OW35893   5.325  10.558  10.567
77999SOL    HW135894   5.405  10.555  10.620
77999SOL    HW235895   5.334  10.639  10.516
78000SOL     OW35896  10.294   8.347  10.797
78000SOL    HW135897  10.269   8.358  10.888
78000SOL    HW235898  10.327   8.433  10.770
78001SOL     OW35899   2.757   9.967   4.281
78001SOL    HW135900   2.797   9.886   4.312
78001SOL    HW235901   2.814   9.997   4.210
78002SOL     OW35902   8.301  13.954  12.582
78002SOL    HW135903   8.351  14.028  12.616
78002SOL    HW235904   8.241  13.992  12.518
78003SOL     OW35905   6.505  13.638   1.818
78003SOL    HW135906   6.502  13.734   1.824
78003SOL    HW235907   6.599  13.618   1.817
78004SOL     OW35908  10.072  13.707   0.806
78004SOL    HW135909  10.049  13.622   0.770
78004SOL    HW235910  10.112  13.687   0.890
78005SOL     OW35911   2.712   5.600  11.363
78005SOL    HW135912   2.649   5.566  11.300
78005SOL    HW235913   2.660   5.627  11.438
78006SOL     OW35914   1.989   4.320   7.963
78006SOL    HW135915   2.073   4.359   7.939
78006SOL    HW235916   1.937   4.322   7.883
78007SOL     OW35917  11.488  11.282   1.041
78007SOL    HW135918  11.465  11.226   1.115
78007SOL    HW235919  11.523  11.362   1.081
78008SOL     OW35920  12.633   6.344   0.452
78008SOL    HW135921  12.638   6.413   0.519
78008SOL    HW235922  12.679   6.270   0.492
78009SOL     OW35923   2.638   0.784  13.324
78009SOL    HW135924   2.718   0.816  13.282
78009SOL    HW235925   2.637   0.828  13.409
78010SOL     OW35926   7.308   4.999  11.960
78010SOL    HW135927   7.334   5.088  11.934
78010SOL    HW235928   7.356   4.942  11.900
78011SOL     OW35929   4.080   8.604  10.191
78011SOL    HW135930   4.065   8.536  10.126
78011SOL    HW235931   4.167   8.584  10.227
78012SOL     OW35932   4.784  14.362   9.847
78012SOL    HW135933   4.714  14.338   9.909
78012SOL    HW235934   4.835  14.282   9.836
78013SOL     OW35935   6.982   6.012   3.476
78013SOL    HW135936   7.047   6.079   3.499
78013SOL    HW235937   6.953   6.036   3.388
78014SOL     OW35938   9.993   0.324  11.332
78014SOL    HW135939  10.066   0.270  11.363
78014SOL    HW235940   9.964   0.372  11.410
78015SOL     OW35941   3.065  14.605   5.665
78015SOL    HW135942   3.125  14.638   5.731
78015SOL    HW235943   3.020  14.532   5.708
78016SOL     OW35944   1.677   5.384   6.208
78016SOL    HW135945   1.717   5.317   6.264
78016SOL    HW235946   1.751   5.422   6.160
78017SOL     OW35947   7.266   3.456   6.285
78017SOL    HW135948   7.282   3.362   6.282
78017SOL    HW235949   7.295   3.483   6.372
78018SOL     OW35950  11.584   9.999   7.419
78018SOL    HW135951  11.672   9.965   7.409
78018SOL    HW235952  11.582  10.078   7.364
78019SOL     OW35953   8.032   8.061  10.451
78019SOL    HW135954   8.007   8.101  10.534
78019SOL    HW235955   8.025   8.132  10.387
78020SOL     OW35956  10.270   8.191   4.314
78020SOL    HW135957  10.237   8.184   4.403
78020SOL    HW235958  10.344   8.253   4.321
78021SOL     OW35959   3.074  10.765   3.605
78021SOL    HW135960   3.050  10.680   3.568
78021SOL    HW235961   3.040  10.763   3.694
78022SOL     OW35962  10.036   6.789   5.604
78022SOL    HW135963  10.066   6.698   5.603
78022SOL    HW235964  10.083   6.831   5.532
78023SOL     OW35965   2.979   8.522   0.535
78023SOL    HW135966   3.042   8.465   0.578
78023SOL    HW235967   3.032   8.578   0.478
78024SOL     OW35968   8.510   9.451   5.036
78024SOL    HW135969   8.481   9.391   4.968
78024SOL    HW235970   8.560   9.518   4.990
78025SOL     OW35971   7.149  12.836   6.099
78025SOL    HW135972   7.153  12.921   6.145
78025SOL    HW235973   7.088  12.851   6.027
78026SOL     OW35974  13.085   1.350  12.258
78026SOL    HW135975  13.008   1.343  12.202
78026SOL    HW235976  13.071   1.431  12.308
78027SOL     OW35977   5.565   3.484  14.597
78027SOL    HW135978   5.627   3.551  14.623
78027SOL    HW235979   5.611   3.434  14.529
78028SOL     OW35980   3.253   2.053   2.538
78028SOL    HW135981   3.334   2.055   2.487
78028SOL    HW235982   3.184   2.067   2.474
78029SOL     OW35983  10.135   8.953   3.223
78029SOL    HW135984  10.205   8.916   3.276
78029SOL    HW235985  10.137   8.903   3.141
78030SOL     OW35986   0.333  11.072   8.215
78030SOL    HW135987   0.392  11.000   8.239
78030SOL    HW235988   0.325  11.125   8.295
78031SOL     OW35989   4.867   0.043   7.332
78031SOL    HW135990   4.882  14.824   7.345
78031SOL    HW235991   4.951   0.077   7.300
78032SOL     OW35992  11.248   4.196  13.529
78032SOL    HW135993  11.188   4.179  13.601
78032SOL    HW235994  11.208   4.269  13.481
78033SOL     OW35995  10.543   5.171   9.030
78033SOL    HW135996  10.478   5.129   8.974
78033SOL    HW235997  10.492   5.208   9.102
78034SOL     OW35998   0.829   9.226   8.120
78034SOL    HW135999   0.794   9.141   8.149
78034SOL    HW236000   0.863   9.208   8.032
78035SOL     OW36001   4.571   9.464   1.000
78035SOL    HW136002   4.664   9.439   0.993
78035SOL    HW236003   4.556   9.521   0.925
78036SOL     OW36004  13.295   7.283   3.475
78036SOL    HW136005  13.341   7.309   3.396
78036SOL    HW236006  13.350   7.315   3.547
78037SOL     OW36007   7.223   4.886  14.164
78037SOL    HW136008   7.228   4.858  14.072
78037SOL    HW236009   7.297   4.842  14.206
78038SOL     OW36010  12.064   6.868  10.583
78038SOL    HW136011  12.018   6.932  10.638
78038SOL    HW236012  12.010   6.861  10.505
78039SOL     OW36013   8.614   9.142  11.345
78039SOL    HW136014   8.677   9.208  11.375
78039SOL    HW236015   8.636   9.064  11.395
78040SOL     OW36016  13.128   0.972  10.551
78040SOL    HW136017  13.104   1.045  10.494
78040SOL    HW236018  13.103   1.002  10.639
78041SOL     OW36019  10.204  12.528   7.226
78041SOL    HW136020  10.141  12.456   7.227
78041SOL    HW236021  10.224  12.540   7.133
78042SOL     OW36022   6.610  14.216   8.300
78042SOL    HW136023   6.626  14.201   8.207
78042SOL    HW236024   6.652  14.299   8.318
78043SOL     OW36025   3.383   6.418   9.536
78043SOL    HW136026   3.330   6.345   9.568
78043SOL    HW236027   3.351   6.495   9.583
78044SOL     OW36028  12.655   3.187  12.782
78044SOL    HW136029  12.718   3.232  12.726
78044SOL    HW236030  12.572   3.232  12.766
78045SOL     OW36031  12.904   4.321  14.807
78045SOL    HW136032  12.969   4.383  14.777
78045SOL    HW236033  12.884   4.268  14.730
78046SOL     OW36034   3.616  11.734   3.808
78046SOL    HW136035   3.627  11.639   3.814
78046SOL    HW236036   3.538  11.746   3.754
78047SOL     OW36037  11.678   5.078   2.772
78047SOL    HW136038  11.771   5.100   2.770
78047SOL    HW236039  11.643   5.112   2.689
78048SOL     OW36040   7.295   1.313   0.128
78048SOL    HW136041   7.271   1.406   0.127
78048SOL    HW236042   7.274   1.285   0.217
78049SOL     OW36043   0.282  13.456   3.047
78049SOL    HW136044   0.330  13.430   2.968
78049SOL    HW236045   0.350  13.476   3.111
78050SOL     OW36046   4.645   0.595   5.708
78050SOL    HW136047   4.625   0.673   5.759
78050SOL    HW236048   4.716   0.553   5.756
78051SOL     OW36049   2.478   0.367   9.294
78051SOL    HW136050   2.386   0.381   9.271
78051SOL    HW236051   2.494   0.275   9.274
78052SOL     OW36052   8.932   6.578  11.302
78052SOL    HW136053   8.855   6.523  11.293
78052SOL    HW236054   9.006   6.517  11.293
78053SOL     OW36055   3.540   0.174   1.048
78053SOL    HW136056   3.624   0.166   1.094
78053SOL    HW236057   3.491   0.239   1.099
78054SOL     OW36058   9.384   4.134   1.948
78054SOL    HW136059   9.363   4.227   1.939
78054SOL    HW236060   9.447   4.117   1.878
78055SOL     OW36061   4.811   9.585   1.789
78055SOL    HW136062   4.822   9.579   1.884
78055SOL    HW236063   4.865   9.659   1.763
78056SOL     OW36064  13.249  13.906  11.383
78056SOL    HW136065  13.329  13.902  11.330
78056SOL    HW236066  13.195  13.972  11.340
78057SOL     OW36067  10.512   8.198   2.795
78057SOL    HW136068  10.528   8.258   2.868
78057SOL    HW236069  10.596   8.192   2.750
78058SOL     OW36070  14.455   7.739   2.191
78058SOL    HW136071  14.469   7.749   2.097
78058SOL    HW236072  14.527   7.683   2.220
78059SOL     OW36073  14.272   8.001   7.630
78059SOL    HW136074  14.305   8.089   7.652
78059SOL    HW236075  14.194   7.990   7.684
78060SOL     OW36076   8.386  11.217  14.214
78060SOL    HW136077   8.390  11.235  14.307
78060SOL    HW236078   8.447  11.278  14.174
78061SOL     OW36079   4.744   3.638   4.203
78061SOL    HW136080   4.713   3.570   4.143
78061SOL    HW236081   4.833   3.611   4.226
78062SOL     OW36082   0.057   8.317   6.534
78062SOL    HW136083   0.107   8.265   6.471
78062SOL    HW236084   0.035   8.255   6.603
78063SOL     OW36085  10.342   4.394   7.723
78063SOL    HW136086  10.285   4.324   7.754
78063SOL    HW236087  10.413   4.398   7.787
78064SOL     OW36088   3.448  13.230   3.956
78064SOL    HW136089   3.494  13.292   3.900
78064SOL    HW236090   3.361  13.222   3.918
78065SOL     OW36091   5.109   3.835   8.721
78065SOL    HW136092   5.120   3.744   8.692
78065SOL    HW236093   5.099   3.828   8.816
78066SOL     OW36094   3.787   5.315   1.440
78066SOL    HW136095   3.727   5.289   1.371
78066SOL    HW236096   3.857   5.249   1.438
78067SOL     OW36097  13.471   4.036   8.147
78067SOL    HW136098  13.565   4.052   8.143
78067SOL    HW236099  13.436   4.107   8.200
78068SOL     OW36100   3.199   7.142   9.973
78068SOL    HW136101   3.203   7.235   9.995
78068SOL    HW236102   3.275   7.103  10.016
78069SOL     OW36103   8.928   1.883  13.269
78069SOL    HW136104   8.958   1.917  13.353
78069SOL    HW236105   8.833   1.893  13.271
78070SOL     OW36106   6.439   8.781   2.379
78070SOL    HW136107   6.489   8.736   2.446
78070SOL    HW236108   6.395   8.710   2.331
78071SOL     OW36109   8.586   1.013   0.192
78071SOL    HW136110   8.500   1.041   0.161
78071SOL    HW236111   8.644   1.086   0.171
78072SOL     OW36112   0.666  10.819  11.506
78072SOL    HW136113   0.599  10.788  11.567
78072SOL    HW236114   0.744  10.769  11.529
78073SOL     OW36115  14.177   4.475   2.646
78073SOL    HW136116  14.241   4.543   2.628
78073SOL    HW236117  14.225   4.409   2.696
78074SOL     OW36118   6.803   5.180   2.656
78074SOL    HW136119   6.840   5.125   2.587
78074SOL    HW236120   6.855   5.158   2.734
78075SOL     OW36121   2.916   7.270  11.449
78075SOL    HW136122   2.990   7.327  11.474
78075SOL    HW236123   2.957   7.190  11.418
78076SOL     OW36124  11.949  12.819   7.853
78076SOL    HW136125  11.960  12.775   7.938
78076SOL    HW236126  11.971  12.910   7.871
78077SOL     OW36127   9.943   5.633   3.155
78077SOL    HW136128   9.871   5.694   3.172
78077SOL    HW236129   9.950   5.581   3.236
78078SOL     OW36130   3.858  11.269   9.741
78078SOL    HW136131   3.927  11.331   9.718
78078SOL    HW236132   3.904  11.201   9.791
78079SOL     OW36133   8.815  10.124   3.308
78079SOL    HW136134   8.720  10.129   3.312
78079SOL    HW236135   8.846  10.192   3.367
78080SOL     OW36136  12.883   9.458  10.885
78080SOL    HW136137  12.809   9.407  10.851
78080SOL    HW236138  12.959   9.402  10.871
78081SOL     OW36139   8.413  13.858  13.094
78081SOL    HW136140   8.454  13.785  13.048
78081SOL    HW236141   8.327  13.867  13.052
78082SOL     OW36142   7.146   7.977   4.971
78082SOL    HW136143   7.123   8.004   5.060
78082SOL    HW236144   7.222   8.030   4.948
78083SOL     OW36145   0.442  14.338  11.086
78083SOL    HW136146   0.400  14.252  11.077
78083SOL    HW236147   0.464  14.363  10.996
78084SOL     OW36148   1.107   8.782   1.532
78084SOL    HW136149   1.202   8.783   1.544
78084SOL    HW236150   1.075   8.851   1.591
78085SOL     OW36151  11.489   2.189  13.336
78085SOL    HW136152  11.547   2.114  13.345
78085SOL    HW236153  11.530   2.244  13.269
78086SOL     OW36154   9.340  12.524   8.157
78086SOL    HW136155   9.270  12.582   8.186
78086SOL    HW236156   9.420  12.576   8.165
78087SOL     OW36157  12.009  10.834   1.381
78087SOL    HW136158  11.936  10.890   1.356
78087SOL    HW236159  12.083  10.864   1.328
78088SOL     OW36160   0.720  12.458   3.166
78088SOL    HW136161   0.700  12.394   3.098
78088SOL    HW236162   0.635  12.482   3.203
78089SOL     OW36163   4.430  10.735   6.126
78089SOL    HW136164   4.373  10.793   6.076
78089SOL    HW236165   4.389  10.730   6.213
78090SOL     OW36166   5.308   9.579  12.161
78090SOL    HW136167   5.262   9.586  12.077
78090SOL    HW236168   5.328   9.670  12.184
78091SOL     OW36169  10.062   9.162   1.421
78091SOL    HW136170  10.125   9.207   1.365
78091SOL    HW236171  10.018   9.101   1.362
78092SOL     OW36172   4.741   1.075   6.988
78092SOL    HW136173   4.771   0.985   6.983
78092SOL    HW236174   4.739   1.095   7.081
78093SOL     OW36175   6.238   9.610   0.081
78093SOL    HW136176   6.192   9.658   0.012
78093SOL    HW236177   6.232   9.666   0.158
78094SOL     OW36178   1.075   8.225   7.813
78094SOL    HW136179   1.100   8.252   7.902
78094SOL    HW236180   1.115   8.139   7.802
78095SOL     OW36181  12.432   3.771  11.095
78095SOL    HW136182  12.502   3.836  11.103
78095SOL    HW236183  12.411   3.771  11.001
78096SOL     OW36184   2.814   9.427   0.059
78096SOL    HW136185   2.853   9.352   0.013
78096SOL    HW236186   2.880   9.496   0.055
78097SOL     OW36187   8.855  13.804  12.286
78097SOL    HW136188   8.929  13.860  12.261
78097SOL    HW236189   8.863  13.728  12.228
78098SOL     OW36190   3.929   5.530  13.518
78098SOL    HW136191   3.890   5.506  13.434
78098SOL    HW236192   3.991   5.459  13.537
78099SOL     OW36193  13.198   5.283  14.773
78099SOL    HW136194  13.200   5.329  14.689
78099SOL    HW236195  13.202   5.352  14.839
78100SOL     OW36196   3.575   5.871   8.054
78100SOL    HW136197   3.510   5.874   8.124
78100SOL    HW236198   3.571   5.957   8.013
78101SOL     OW36199  12.595   9.907   6.769
78101SOL    HW136200  12.516   9.870   6.731
78101SOL    HW236201  12.566   9.946   6.851
78102SOL     OW36202   4.315   6.929   3.917
78102SOL    HW136203   4.407   6.954   3.913
78102SOL    HW236204   4.291   6.939   4.009
78103SOL     OW36205   1.317   7.787   2.092
78103SOL    HW136206   1.270   7.845   2.033
78103SOL    HW236207   1.367   7.846   2.149
78104SOL     OW36208  14.364   7.564  13.360
78104SOL    HW136209  14.293   7.505  13.334
78104SOL    HW236210  14.328   7.616  13.432
78105SOL     OW36211   8.959  12.039  10.669
78105SOL    HW136212   8.964  12.008  10.760
78105SOL    HW236213   8.984  11.963  10.616
78106SOL     OW36214   5.595   4.826   2.802
78106SOL    HW136215   5.613   4.760   2.869
78106SOL    HW236216   5.672   4.883   2.803
78107SOL     OW36217  11.574   1.755   2.282
78107SOL    HW136218  11.517   1.832   2.277
78107SOL    HW236219  11.548   1.702   2.206
78108SOL     OW36220   6.776   1.528   6.797
78108SOL    HW136221   6.787   1.570   6.712
78108SOL    HW236222   6.805   1.595   6.860
78109SOL     OW36223  13.477  11.656   0.433
78109SOL    HW136224  13.485  11.750   0.416
78109SOL    HW236225  13.494  11.647   0.526
78110SOL     OW36226   0.163   9.035   3.099
78110SOL    HW136227   0.247   9.058   3.058
78110SOL    HW236228   0.149   8.943   3.074
78111SOL     OW36229   6.438   6.897   5.718
78111SOL    HW136230   6.430   6.920   5.626
78111SOL    HW236231   6.369   6.832   5.733
78112SOL     OW36232   3.889  13.204   8.747
78112SOL    HW136233   3.919  13.292   8.726
78112SOL    HW236234   3.966  13.149   8.731
78113SOL     OW36235   2.376  10.977  14.103
78113SOL    HW136236   2.419  10.891  14.106
78113SOL    HW236237   2.337  10.988  14.190
78114SOL     OW36238  14.406  10.807   8.826
78114SOL    HW136239  14.376  10.717   8.837
78114SOL    HW236240  14.326  10.858   8.814
78115SOL     OW36241  14.061  11.787   4.609
78115SOL    HW136242  14.016  11.702   4.613
78115SOL    HW236243  14.076  11.810   4.700
78116SOL     OW36244   9.268   8.949   8.341
78116SOL    HW136245   9.265   8.893   8.263
78116SOL    HW236246   9.206   9.019   8.322
78117SOL     OW36247   1.270  10.258   1.192
78117SOL    HW136248   1.176  10.271   1.179
78117SOL    HW236249   1.287  10.169   1.160
78118SOL     OW36250   1.305   2.174   4.878
78118SOL    HW136251   1.395   2.163   4.909
78118SOL    HW236252   1.313   2.177   4.783
78119SOL     OW36253   0.122   1.692  11.800
78119SOL    HW136254   0.163   1.759  11.745
78119SOL    HW236255   0.038   1.675  11.757
78120SOL     OW36256   0.073   3.445   8.836
78120SOL    HW136257   0.039   3.374   8.890
78120SOL    HW236258   0.090   3.404   8.751
78121SOL     OW36259   6.660   0.510   2.031
78121SOL    HW136260   6.651   0.484   1.939
78121SOL    HW236261   6.707   0.593   2.028
78122SOL     OW36262   7.988  12.981   0.271
78122SOL    HW136263   7.994  13.051   0.206
78122SOL    HW236264   7.981  12.901   0.218
78123SOL     OW36265  11.305  10.102   6.700
78123SOL    HW136266  11.291  10.031   6.638
78123SOL    HW236267  11.352  10.169   6.650
78124SOL     OW36268   0.524   3.608   4.921
78124SOL    HW136269   0.504   3.661   4.844
78124SOL    HW236270   0.536   3.672   4.992
78125SOL     OW36271   1.690  13.241  11.890
78125SOL    HW136272   1.683  13.224  11.796
78125SOL    HW236273   1.758  13.180  11.920
78126SOL     OW36274   7.391   0.542   7.614
78126SOL    HW136275   7.425   0.454   7.633
78126SOL    HW236276   7.326   0.557   7.682
78127SOL     OW36277   0.407  10.293   7.562
78127SOL    HW136278   0.501  10.298   7.545
78127SOL    HW236279   0.383  10.381   7.591
78128SOL     OW36280   0.617   2.479   2.103
78128SOL    HW136281   0.524   2.489   2.079
78128SOL    HW236282   0.641   2.392   2.072
78129SOL     OW36283   6.372   8.333   7.409
78129SOL    HW136284   6.329   8.400   7.356
78129SOL    HW236285   6.319   8.254   7.397
78130SOL     OW36286   4.448  14.250  13.136
78130SOL    HW136287   4.482  14.337  13.154
78130SOL    HW236288   4.490  14.224  13.054
78131SOL     OW36289   8.997   7.032  13.588
78131SOL    HW136290   9.087   7.064  13.579
78131SOL    HW236291   9.002   6.968  13.659
78132SOL     OW36292  12.266   4.322  11.804
78132SOL    HW136293  12.281   4.416  11.814
78132SOL    HW236294  12.353   4.286  11.787
78133SOL     OW36295  11.734  11.398  13.882
78133SOL    HW136296  11.716  11.442  13.799
78133SOL    HW236297  11.656  11.415  13.935
78134SOL     OW36298   4.350  12.349   3.053
78134SOL    HW136299   4.372  12.426   3.000
78134SOL    HW236300   4.276  12.309   3.008
78135SOL     OW36301   6.717   5.928  13.753
78135SOL    HW136302   6.788   5.981  13.790
78135SOL    HW236303   6.698   5.969  13.668
78136SOL     OW36304   0.269   0.008   6.074
78136SOL    HW136305   0.260  14.870   5.980
78136SOL    HW236306   0.350  14.839   6.098
78137SOL     OW36307   4.263  13.229  12.497
78137SOL    HW136308   4.293  13.143  12.526
78137SOL    HW236309   4.184  13.211  12.446
78138SOL     OW36310  10.800  10.675   0.358
78138SOL    HW136311  10.829  10.606   0.297
78138SOL    HW236312  10.843  10.754   0.326
78139SOL     OW36313   4.942   0.594  11.811
78139SOL    HW136314   4.909   0.669  11.762
78139SOL    HW236315   5.008   0.631  11.870
78140SOL     OW36316   6.806   4.299  13.109
78140SOL    HW136317   6.853   4.280  13.028
78140SOL    HW236318   6.769   4.215  13.136
78141SOL     OW36319   6.664  10.738   0.939
78141SOL    HW136320   6.665  10.807   1.005
78141SOL    HW236321   6.727  10.767   0.873
78142SOL     OW36322  10.072   5.374  14.154
78142SOL    HW136323  10.033   5.288  14.137
78142SOL    HW236324  10.101   5.370  14.245
78143SOL     OW36325  14.242   1.319  14.851
78143SOL    HW136326  14.268   1.401  14.810
78143SOL    HW236327  14.196   1.346   0.056
78144SOL     OW36328  11.118  11.973   4.480
78144SOL    HW136329  11.194  12.021   4.446
78144SOL    HW236330  11.147  11.883   4.486
78145SOL     OW36331   7.193   9.141   0.326
78145SOL    HW136332   7.216   9.072   0.263
78145SOL    HW236333   7.247   9.122   0.402
78146SOL     OW36334  14.273   8.435   8.401
78146SOL    HW136335  14.300   8.517   8.361
78146SOL    HW236336  14.189   8.414   8.362
78147SOL     OW36337   4.666  11.084   5.294
78147SOL    HW136338   4.585  11.078   5.345
78147SOL    HW236339   4.670  11.002   5.244
78148SOL     OW36340   6.789  11.338   4.749
78148SOL    HW136341   6.765  11.412   4.692
78148SOL    HW236342   6.876  11.312   4.718
78149SOL     OW36343   8.124  12.052   7.056
78149SOL    HW136344   8.030  12.055   7.040
78149SOL    HW236345   8.132  12.046   7.151
78150SOL     OW36346  12.754   0.054   7.490
78150SOL    HW136347  12.822   0.061   7.422
78150SOL    HW236348  12.803   0.057   7.572
78151SOL     OW36349  10.630  14.713  14.476
78151SOL    HW136350  10.537  14.692  14.467
78151SOL    HW236351  10.661  14.656  14.546
78152SOL     OW36352  14.205   8.600   1.609
78152SOL    HW136353  14.291   8.639   1.624
78152SOL    HW236354  14.152   8.672   1.575
78153SOL     OW36355   5.293  13.276  11.207
78153SOL    HW136356   5.229  13.315  11.148
78153SOL    HW236357   5.378  13.307  11.175
78154SOL     OW36358  14.719   3.571   9.512
78154SOL    HW136359  14.780   3.568   9.586
78154SOL    HW236360  14.685   3.661   9.512
78155SOL     OW36361   5.573   9.112  13.018
78155SOL    HW136362   5.611   9.174  13.080
78155SOL    HW236363   5.646   9.087  12.961
78156SOL     OW36364  13.760   9.312   6.846
78156SOL    HW136365  13.759   9.340   6.755
78156SOL    HW236366  13.791   9.222   6.844
78157SOL     OW36367  11.137   7.076   7.822
78157SOL    HW136368  11.090   7.028   7.891
78157SOL    HW236369  11.184   7.009   7.774
78158SOL     OW36370  11.077   0.752  11.756
78158SOL    HW136371  11.167   0.780  11.741
78158SOL    HW236372  11.086   0.661  11.785
78159SOL     OW36373  12.027   5.380   7.525
78159SOL    HW136374  11.978   5.310   7.482
78159SOL    HW236375  12.093   5.334   7.578
78160SOL     OW36376   0.493   9.609   0.404
78160SOL    HW136377   0.444   9.534   0.369
78160SOL    HW236378   0.551   9.572   0.470
78161SOL     OW36379   4.084   4.100  10.406
78161SOL    HW136380   4.084   4.194  10.420
78161SOL    HW236381   4.062   4.063  10.491
78162SOL     OW36382  10.057   4.171   8.347
78162SOL    HW136383  10.022   4.260   8.359
78162SOL    HW236384   9.984   4.114   8.373
78163SOL     OW36385  14.688  13.166   2.854
78163SOL    HW136386  14.771  13.118   2.849
78163SOL    HW236387  14.666  13.185   2.763
78164SOL     OW36388  12.994   9.141   0.515
78164SOL    HW136389  13.055   9.075   0.547
78164SOL    HW236390  13.038   9.225   0.531
78165SOL     OW36391   9.637   4.564   5.922
78165SOL    HW136392   9.643   4.508   5.845
78165SOL    HW236393   9.553   4.608   5.914
78166SOL     OW36394   6.138   7.393  12.924
78166SOL    HW136395   6.105   7.410  13.013
78166SOL    HW236396   6.232   7.381  12.935
78167SOL     OW36397   7.383  11.894   7.143
78167SOL    HW136398   7.332  11.972   7.167
78167SOL    HW236399   7.443  11.881   7.216
78168SOL     OW36400   3.942  12.818  12.938
78168SOL    HW136401   3.968  12.881  12.871
78168SOL    HW236402   3.969  12.859  13.020
78169SOL     OW36403  14.661   9.167   4.877
78169SOL    HW136404  14.654   9.125   4.791
78169SOL    HW236405  14.653   9.261   4.859
78170SOL     OW36406   2.540   6.651   1.618
78170SOL    HW136407   2.611   6.588   1.628
78170SOL    HW236408   2.521   6.652   1.525
78171SOL     OW36409  12.844   8.381   8.513
78171SOL    HW136410  12.797   8.374   8.595
78171SOL    HW236411  12.929   8.339   8.530
78172SOL     OW36412  14.697   4.758   3.746
78172SOL    HW136413  14.791   4.747   3.727
78172SOL    HW236414  14.668   4.671   3.772
78173SOL     OW36415   3.389  11.517   9.755
78173SOL    HW136416   3.400  11.467   9.835
78173SOL    HW236417   3.377  11.607   9.785
78174SOL     OW36418   3.662   6.822   2.099
78174SOL    HW136419   3.736   6.785   2.051
78174SOL    HW236420   3.703   6.874   2.169
78175SOL     OW36421  14.126  14.531  13.998
78175SOL    HW136422  14.160  14.618  14.019
78175SOL    HW236423  14.041  14.527  14.041
78176SOL     OW36424   9.486   5.197   3.584
78176SOL    HW136425   9.456   5.107   3.570
78176SOL    HW236426   9.406   5.246   3.602
78177SOL     OW36427  12.627   4.262   4.500
78177SOL    HW136428  12.634   4.263   4.405
78177SOL    HW236429  12.575   4.341   4.521
78178SOL     OW36430   1.233   8.692  10.294
78178SOL    HW136431   1.146   8.713  10.261
78178SOL    HW236432   1.293   8.735  10.233
78179SOL     OW36433  12.530  14.431   9.529
78179SOL    HW136434  12.587  14.493   9.575
78179SOL    HW236435  12.588  14.357   9.507
78180SOL     OW36436   8.550  13.810  10.334
78180SOL    HW136437   8.552  13.875  10.264
78180SOL    HW236438   8.606  13.740  10.303
78181SOL     OW36439  12.495   1.610   8.144
78181SOL    HW136440  12.558   1.635   8.077
78181SOL    HW236441  12.442   1.541   8.104
78182SOL     OW36442   9.479   3.749   0.738
78182SOL    HW136443   9.575   3.752   0.743
78182SOL    HW236444   9.450   3.763   0.827
78183SOL     OW36445  10.636   8.111  12.831
78183SOL    HW136446  10.621   8.205  12.822
78183SOL    HW236447  10.696   8.090  12.759
78184SOL     OW36448  11.081   6.630  14.546
78184SOL    HW136449  10.992   6.601  14.568
78184SOL    HW236450  11.078   6.647  14.452
78185SOL     OW36451  13.849  11.040  14.830
78185SOL    HW136452  13.850  11.116   0.013
78185SOL    HW236453  13.940  11.027  14.805
78186SOL     OW36454   9.763  10.937   4.789
78186SOL    HW136455   9.814  10.993   4.848
78186SOL    HW236456   9.672  10.956   4.811
78187SOL     OW36457  10.427   6.067   4.849
78187SOL    HW136458  10.410   5.981   4.888
78187SOL    HW236459  10.396   6.129   4.915
78188SOL     OW36460   2.275   1.575   2.411
78188SOL    HW136461   2.314   1.645   2.464
78188SOL    HW236462   2.253   1.506   2.475
78189SOL     OW36463   4.727  10.631  11.418
78189SOL    HW136464   4.691  10.689  11.350
78189SOL    HW236465   4.821  10.631  11.401
78190SOL     OW36466  10.672   4.068   2.875
78190SOL    HW136467  10.712   3.997   2.825
78190SOL    HW236468  10.734   4.141   2.866
78191SOL     OW36469   9.685   1.959   8.783
78191SOL    HW136470   9.772   1.985   8.756
78191SOL    HW236471   9.626   2.012   8.729
78192SOL     OW36472   4.286  11.067   2.624
78192SOL    HW136473   4.347  10.993   2.630
78192SOL    HW236474   4.207  11.030   2.585
78193SOL     OW36475   2.584   8.313  12.493
78193SOL    HW136476   2.657   8.358  12.537
78193SOL    HW236477   2.549   8.254  12.560
78194SOL     OW36478   1.107   0.869   0.067
78194SOL    HW136479   1.021   0.873   0.109
78194SOL    HW236480   1.142   0.783   0.093
78195SOL     OW36481   8.307   7.681   4.010
78195SOL    HW136482   8.286   7.588   4.007
78195SOL    HW236483   8.255   7.715   4.082
78196SOL     OW36484  10.833  10.148   6.322
78196SOL    HW136485  10.912  10.095   6.336
78196SOL    HW236486  10.797  10.116   6.239
78197SOL     OW36487   7.136   6.991   4.206
78197SOL    HW136488   7.077   6.945   4.266
78197SOL    HW236489   7.210   6.931   4.196
78198SOL     OW36490   7.019   4.756   6.360
78198SOL    HW136491   7.013   4.689   6.291
78198SOL    HW236492   7.094   4.810   6.334
78199SOL     OW36493   6.031  14.348  12.846
78199SOL    HW136494   6.074  14.430  12.822
78199SOL    HW236495   6.049  14.290  12.772
78200SOL     OW36496   7.039   2.008   0.737
78200SOL    HW136497   7.037   1.976   0.827
78200SOL    HW236498   7.017   2.101   0.745
78201SOL     OW36499   7.631   9.262   1.716
78201SOL    HW136500   7.561   9.273   1.652
78201SOL    HW236501   7.615   9.176   1.754
78202SOL     OW36502   9.746  12.086   9.600
78202SOL    HW136503   9.831  12.045   9.583
78202SOL    HW236504   9.693  12.063   9.524
78203SOL     OW36505   6.763   0.248   1.841
78203SOL    HW136506   6.759   0.158   1.809
78203SOL    HW236507   6.854   0.275   1.827
78204SOL     OW36508   2.222   6.227  13.348
78204SOL    HW136509   2.220   6.313  13.389
78204SOL    HW236510   2.161   6.174  13.400
78205SOL     OW36511  13.970   5.592  11.670
78205SOL    HW136512  13.978   5.501  11.697
78205SOL    HW236513  13.953   5.589  11.576
78206SOL     OW36514   7.202  14.311   3.711
78206SOL    HW136515   7.171  14.222   3.727
78206SOL    HW236516   7.269  14.302   3.644
78207SOL     OW36517  10.496  13.190   9.576
78207SOL    HW136518  10.472  13.261   9.516
78207SOL    HW236519  10.575  13.152   9.537
78208SOL     OW36520   6.443   4.514  13.597
78208SOL    HW136521   6.384   4.589  13.597
78208SOL    HW236522   6.455   4.493  13.505
78209SOL     OW36523   5.870   8.208  13.476
78209SOL    HW136524   5.866   8.135  13.537
78209SOL    HW236525   5.905   8.170  13.395
78210SOL     OW36526   6.852   4.895   1.401
78210SOL    HW136527   6.823   4.812   1.363
78210SOL    HW236528   6.902   4.937   1.331
78211SOL     OW36529   6.570  14.402   2.856
78211SOL    HW136530   6.578  14.489   2.896
78211SOL    HW236531   6.483  14.372   2.881
78212SOL     OW36532   8.678   8.808   5.152
78212SOL    HW136533   8.690   8.872   5.222
78212SOL    HW236534   8.762   8.806   5.106
78213SOL     OW36535   1.794   9.328  13.378
78213SOL    HW136536   1.736   9.401  13.355
78213SOL    HW236537   1.752   9.252  13.338
78214SOL     OW36538   7.961  14.760   7.307
78214SOL    HW136539   7.985  14.781   7.397
78214SOL    HW236540   7.921  14.841   7.274
78215SOL     OW36541   5.453   3.958  13.309
78215SOL    HW136542   5.527   3.947  13.368
78215SOL    HW236543   5.390   3.890  13.336
78216SOL     OW36544   5.398   8.037   0.882
78216SOL    HW136545   5.443   8.015   0.964
78216SOL    HW236546   5.444   7.986   0.816
78217SOL     OW36547   2.877   5.563   7.960
78217SOL    HW136548   2.890   5.468   7.965
78217SOL    HW236549   2.845   5.587   8.047
78218SOL     OW36550   6.534   4.229   9.070
78218SOL    HW136551   6.522   4.324   9.059
78218SOL    HW236552   6.564   4.199   8.985
78219SOL     OW36553   7.800   4.146   8.981
78219SOL    HW136554   7.771   4.235   8.965
78219SOL    HW236555   7.849   4.151   9.063
78220SOL     OW36556   3.483  11.913  12.699
78220SOL    HW136557   3.556  11.853  12.708
78220SOL    HW236558   3.510  11.992  12.745
78221SOL     OW36559  14.564   3.368  12.907
78221SOL    HW136560  14.570   3.412  12.991
78221SOL    HW236561  14.555   3.275  12.928
78222SOL     OW36562   3.723   4.670  13.766
78222SOL    HW136563   3.639   4.663  13.720
78222SOL    HW236564   3.788   4.681  13.696
78223SOL     OW36565   3.065   5.877   5.952
78223SOL    HW136566   2.974   5.900   5.969
78223SOL    HW236567   3.112   5.960   5.958
78224SOL     OW36568  10.755   8.835   8.609
78224SOL    HW136569  10.807   8.755   8.617
78224SOL    HW236570  10.815   8.900   8.573
78225SOL     OW36571  12.931   4.041  10.632
78225SOL    HW136572  12.983   4.014  10.557
78225SOL    HW236573  12.954   4.133  10.645
78226SOL     OW36574   7.941  13.703  11.432
78226SOL    HW136575   7.874  13.635  11.433
78226SOL    HW236576   8.023  13.656  11.416
78227SOL     OW36577  10.354  13.080   6.864
78227SOL    HW136578  10.431  13.058   6.918
78227SOL    HW236579  10.365  13.173   6.844
78228SOL     OW36580  13.966   8.806  12.696
78228SOL    HW136581  14.052   8.763  12.693
78228SOL    HW236582  13.904   8.734  12.685
78229SOL     OW36583   0.828  10.543   7.618
78229SOL    HW136584   0.886  10.569   7.689
78229SOL    HW236585   0.794  10.458   7.644
78230SOL     OW36586   4.121   1.049   5.231
78230SOL    HW136587   4.136   1.142   5.215
78230SOL    HW236588   4.075   1.046   5.314
78231SOL     OW36589  12.369  12.183   6.036
78231SOL    HW136590  12.372  12.088   6.019
78231SOL    HW236591  12.318  12.218   5.963
78232SOL     OW36592   2.866   0.653   9.150
78232SOL    HW136593   2.925   0.579   9.133
78232SOL    HW236594   2.781   0.612   9.166
78233SOL     OW36595  11.649   8.642   7.062
78233SOL    HW136596  11.713   8.654   7.132
78233SOL    HW236597  11.568   8.681   7.096
78234SOL     OW36598   5.359   0.540   0.258
78234SOL    HW136599   5.280   0.573   0.301
78234SOL    HW236600   5.344   0.554   0.165
78235SOL     OW36601   2.972  13.188   1.286
78235SOL    HW136602   2.918  13.142   1.222
78235SOL    HW236603   2.954  13.281   1.271
78236SOL     OW36604   3.169  14.127  11.919
78236SOL    HW136605   3.240  14.072  11.887
78236SOL    HW236606   3.090  14.087  11.882
78237SOL     OW36607   1.841   8.636   8.527
78237SOL    HW136608   1.898   8.647   8.603
78237SOL    HW236609   1.897   8.653   8.452
78238SOL     OW36610  14.851  13.258   3.764
78238SOL    HW136611  14.859  13.277   3.670
78238SOL    HW236612  14.848  13.345   3.805
78239SOL     OW36613   6.280   9.999   9.009
78239SOL    HW136614   6.331  10.063   8.961
78239SOL    HW236615   6.280  10.030   9.099
78240SOL     OW36616   9.860   8.261   0.456
78240SOL    HW136617   9.811   8.342   0.447
78240SOL    HW236618   9.793   8.192   0.458
78241SOL     OW36619  14.019   7.766   6.141
78241SOL    HW136620  14.103   7.808   6.122
78241SOL    HW236621  14.013   7.767   6.236
78242SOL     OW36622  14.009   5.705   6.542
78242SOL    HW136623  13.918   5.690   6.513
78242SOL    HW236624  14.011   5.674   6.632
78243SOL     OW36625   7.391   0.854   9.163
78243SOL    HW136626   7.412   0.792   9.093
78243SOL    HW236627   7.463   0.917   9.162
78244SOL     OW36628  11.121   5.689   5.179
78244SOL    HW136629  11.121   5.594   5.169
78244SOL    HW236630  11.141   5.704   5.271
78245SOL     OW36631   8.317   9.765   1.371
78245SOL    HW136632   8.376   9.836   1.347
78245SOL    HW236633   8.308   9.713   1.290
78246SOL     OW36634  12.835   2.995   9.376
78246SOL    HW136635  12.818   2.998   9.282
78246SOL    HW236636  12.769   2.934   9.410
78247SOL     OW36637   2.245  10.831   5.308
78247SOL    HW136638   2.302  10.873   5.244
78247SOL    HW236639   2.292  10.837   5.390
78248SOL     OW36640  14.751   8.157  12.781
78248SOL    HW136641  14.712   8.083  12.733
78248SOL    HW236642  14.737   8.232  12.723
78249SOL     OW36643   8.180   0.009   2.060
78249SOL    HW136644   8.244   0.080   2.059
78249SOL    HW236645   8.139   0.016   2.146
78250SOL     OW36646   6.269   6.989  14.098
78250SOL    HW136647   6.288   7.006  14.006
78250SOL    HW236648   6.176   7.011  14.108
78251SOL     OW36649   0.021   1.111   1.981
78251SOL    HW136650   0.107   1.113   2.023
78251SOL    HW236651  14.872   1.203   1.969
78252SOL     OW36652   4.164  13.843  12.097
78252SOL    HW136653   4.070  13.852  12.084
78252SOL    HW236654   4.191  13.925  12.137
78253SOL     OW36655  14.673  10.831   8.832
78253SOL    HW136656  14.580  10.833   8.813
78253SOL    HW236657  14.715  10.860   8.750
78254SOL     OW36658  14.466   3.993   8.909
78254SOL    HW136659  14.523   3.921   8.938
78254SOL    HW236660  14.520   4.071   8.918
78255SOL     OW36661   1.924   7.006   9.062
78255SOL    HW136662   1.838   7.025   9.026
78255SOL    HW236663   1.984   7.013   8.988
78256SOL     OW36664  13.273  11.135  12.037
78256SOL    HW136665  13.349  11.169  11.990
78256SOL    HW236666  13.308  11.064  12.091
78257SOL     OW36667   1.984   9.612   8.981
78257SOL    HW136668   2.004   9.521   9.003
78257SOL    HW236669   2.068   9.658   8.991
78258SOL     OW36670   8.998  11.415  12.818
78258SOL    HW136671   9.053  11.430  12.741
78258SOL    HW236672   9.060  11.396  12.889
78259SOL     OW36673   6.070  13.667   1.474
78259SOL    HW136674   6.148  13.649   1.526
78259SOL    HW236675   6.042  13.754   1.502
78260SOL     OW36676   8.610   1.815   3.847
78260SOL    HW136677   8.615   1.868   3.768
78260SOL    HW236678   8.599   1.725   3.814
78261SOL     OW36679   7.607  14.322   2.221
78261SOL    HW136680   7.661  14.300   2.297
78261SOL    HW236681   7.542  14.252   2.217
78262SOL     OW36682   9.349   3.359  10.858
78262SOL    HW136683   9.291   3.431  10.883
78262SOL    HW236684   9.416   3.357  10.927
78263SOL     OW36685   6.262   7.666   7.336
78263SOL    HW136686   6.264   7.737   7.400
78263SOL    HW236687   6.190   7.610   7.364
78264SOL     OW36688   4.360   9.568   9.244
78264SOL    HW136689   4.425   9.505   9.212
78264SOL    HW236690   4.328   9.611   9.165
78265SOL     OW36691   8.081   7.591   2.668
78265SOL    HW136692   8.030   7.568   2.746
78265SOL    HW236693   8.164   7.623   2.703
78266SOL     OW36694   1.058   0.605  13.874
78266SOL    HW136695   1.119   0.599  13.800
78266SOL    HW236696   1.102   0.662  13.937
78267SOL     OW36697   5.755   8.051   1.108
78267SOL    HW136698   5.808   7.971   1.099
78267SOL    HW236699   5.668   8.025   1.080
78268SOL     OW36700   7.784  12.106   2.128
78268SOL    HW136701   7.758  12.187   2.084
78268SOL    HW236702   7.748  12.114   2.216
78269SOL     OW36703   4.321  13.729   6.135
78269SOL    HW136704   4.377  13.695   6.205
78269SOL    HW236705   4.244  13.763   6.180
78270SOL     OW36706   9.400   9.859   8.107
78270SOL    HW136707   9.459   9.859   8.182
78270SOL    HW236708   9.447   9.908   8.040
78271SOL     OW36709   3.458   4.053   5.968
78271SOL    HW136710   3.463   4.011   5.882
78271SOL    HW236711   3.478   3.984   6.030
78272SOL     OW36712   4.021  14.064  11.581
78272SOL    HW136713   4.096  14.059  11.522
78272SOL    HW236714   4.043  14.005  11.652
78273SOL     OW36715   1.846   0.531   0.920
78273SOL    HW136716   1.831   0.499   0.831
78273SOL    HW236717   1.849   0.626   0.911
78274SOL     OW36718   5.867   8.105  13.239
78274SOL    HW136719   5.792   8.054  13.211
78274SOL    HW236720   5.939   8.075  13.183
78275SOL     OW36721  13.973   5.827   2.275
78275SOL    HW136722  13.985   5.922   2.273
78275SOL    HW236723  13.887   5.814   2.315
78276SOL     OW36724   9.649   9.102  12.902
78276SOL    HW136725   9.683   9.144  12.823
78276SOL    HW236726   9.727   9.078  12.952
78277SOL     OW36727  10.683   1.075  13.628
78277SOL    HW136728  10.732   1.049  13.550
78277SOL    HW236729  10.622   1.142  13.596
78278SOL     OW36730   6.474   8.042   6.178
78278SOL    HW136731   6.516   7.976   6.123
78278SOL    HW236732   6.382   8.018   6.179
78279SOL     OW36733   3.793  14.767   8.482
78279SOL    HW136734   3.742  14.736   8.557
78279SOL    HW236735   3.812  14.688   8.431
78280SOL     OW36736   3.486   1.828   0.061
78280SOL    HW136737   3.522   1.740   0.067
78280SOL    HW236738   3.561   1.886   0.076
78281SOL     OW36739   1.821   3.855   2.007
78281SOL    HW136740   1.891   3.915   2.034
78281SOL    HW236741   1.787   3.894   1.927
78282SOL     OW36742  10.593  13.192  12.008
78282SOL    HW136743  10.663  13.257  12.019
78282SOL    HW236744  10.569  13.168  12.097
78283SOL     OW36745   4.661   5.820  13.063
78283SOL    HW136746   4.754   5.814  13.042
78283SOL    HW236747   4.617   5.800  12.981
78284SOL     OW36748  10.088   8.669   0.515
78284SOL    HW136749  10.180   8.651   0.496
78284SOL    HW236750  10.040   8.626   0.444
78285SOL     OW36751   2.172   1.106   6.102
78285SOL    HW136752   2.198   1.060   6.182
78285SOL    HW236753   2.088   1.146   6.123
78286SOL     OW36754   7.668  10.218   1.168
78286SOL    HW136755   7.709  10.300   1.142
78286SOL    HW236756   7.718  10.190   1.245
78287SOL     OW36757  12.274   8.613   9.986
78287SOL    HW136758  12.192   8.628  10.033
78287SOL    HW236759  12.324   8.693   9.998
78288SOL     OW36760   7.565  11.371   2.174
78288SOL    HW136761   7.611  11.288   2.158
78288SOL    HW236762   7.537  11.365   2.265
78289SOL     OW36763   8.086   7.400   4.298
78289SOL    HW136764   8.050   7.318   4.263
78289SOL    HW236765   8.119   7.376   4.385
78290SOL     OW36766  10.104   1.357  13.159
78290SOL    HW136767  10.041   1.400  13.101
78290SOL    HW236768  10.189   1.385  13.126
78291SOL     OW36769   7.762   4.285   4.326
78291SOL    HW136770   7.779   4.374   4.359
78291SOL    HW236771   7.802   4.228   4.392
78292SOL     OW36772  10.418   2.192  10.794
78292SOL    HW136773  10.465   2.213  10.712
78292SOL    HW236774  10.326   2.201  10.771
78293SOL     OW36775   1.581   5.468   8.812
78293SOL    HW136776   1.489   5.466   8.838
78293SOL    HW236777   1.607   5.375   8.811
78294SOL     OW36778   7.344   6.919  13.798
78294SOL    HW136779   7.293   6.841  13.774
78294SOL    HW236780   7.278   6.984  13.823
78295SOL     OW36781   8.870   6.459  10.191
78295SOL    HW136782   8.937   6.517  10.227
78295SOL    HW236783   8.851   6.397  10.261
78296SOL     OW36784   3.174   0.338  12.075
78296SOL    HW136785   3.092   0.289  12.076
78296SOL    HW236786   3.157   0.413  12.017
78297SOL     OW36787  11.257   8.502   6.030
78297SOL    HW136788  11.167   8.506   5.997
78297SOL    HW236789  11.293   8.588   6.011
78298SOL     OW36790   3.518  13.667   9.120
78298SOL    HW136791   3.571  13.588   9.129
78298SOL    HW236792   3.557  13.730   9.180
78299SOL     OW36793   9.607   4.129   7.410
78299SOL    HW136794   9.582   4.039   7.432
78299SOL    HW236795   9.595   4.178   7.491
78300SOL     OW36796   7.001   8.639  10.942
78300SOL    HW136797   6.996   8.705  10.874
78300SOL    HW236798   6.926   8.657  10.999
78301SOL     OW36799   9.704   2.105   9.514
78301SOL    HW136800   9.694   2.171   9.582
78301SOL    HW236801   9.751   2.150   9.444
78302SOL     OW36802   6.697  13.880   1.095
78302SOL    HW136803   6.656  13.887   1.182
78302SOL    HW236804   6.672  13.793   1.064
78303SOL     OW36805   1.621   7.997  13.212
78303SOL    HW136806   1.554   7.929  13.222
78303SOL    HW236807   1.627   8.037  13.299
78304SOL     OW36808   1.727  11.972   8.721
78304SOL    HW136809   1.817  11.937   8.719
78304SOL    HW236810   1.672  11.894   8.731
78305SOL     OW36811  10.534  13.141  13.504
78305SOL    HW136812  10.486  13.205  13.452
78305SOL    HW236813  10.531  13.060  13.453
78306SOL     OW36814   9.653  11.160   5.965
78306SOL    HW136815   9.671  11.103   6.039
78306SOL    HW236816   9.561  11.144   5.944
78307SOL     OW36817  11.519  12.636  10.155
78307SOL    HW136818  11.442  12.631  10.211
78307SOL    HW236819  11.561  12.718  10.179
78308SOL     OW36820   9.455   0.973   9.689
78308SOL    HW136821   9.493   0.906   9.631
78308SOL    HW236822   9.375   0.933   9.722
78309SOL     OW36823   7.508  10.901  12.345
78309SOL    HW136824   7.491  10.994  12.334
78309SOL    HW236825   7.422  10.862  12.358
78310SOL     OW36826   4.218   3.882  10.034
78310SOL    HW136827   4.248   3.822   9.966
78310SOL    HW236828   4.129   3.853  10.054
78311SOL     OW36829  11.332  10.700  14.691
78311SOL    HW136830  11.248  10.725  14.652
78311SOL    HW236831  11.351  10.614  14.652
78312SOL     OW36832   4.003   3.485  10.694
78312SOL    HW136833   4.015   3.394  10.667
78312SOL    HW236834   4.076   3.503  10.753
78313SOL     OW36835   9.678   1.250   4.771
78313SOL    HW136836   9.766   1.221   4.746
78313SOL    HW236837   9.626   1.241   4.691
78314SOL     OW36838  14.183  10.179   8.864
78314SOL    HW136839  14.201  10.222   8.947
78314SOL    HW236840  14.217  10.090   8.875
78315SOL     OW36841  10.453  10.405   2.596
78315SOL    HW136842  10.425  10.438   2.510
78315SOL    HW236843  10.527  10.347   2.576
78316SOL     OW36844  10.591   4.514   6.916
78316SOL    HW136845  10.632   4.467   6.989
78316SOL    HW236846  10.527   4.572   6.957
78317SOL     OW36847  14.828   3.985  12.542
78317SOL    HW136848  14.788   4.065  12.510
78317SOL    HW236849  14.778   3.915  12.500
78318SOL     OW36850   7.869  13.746  14.600
78318SOL    HW136851   7.832  13.730  14.513
78318SOL    HW236852   7.928  13.820  14.587
78319SOL     OW36853   9.629   4.989   2.235
78319SOL    HW136854   9.572   5.045   2.182
78319SOL    HW236855   9.569   4.940   2.292
78320SOL     OW36856  12.031   1.155  13.430
78320SOL    HW136857  11.993   1.242  13.417
78320SOL    HW236858  12.000   1.129  13.517
78321SOL     OW36859   8.114  14.215   5.584
78321SOL    HW136860   8.141  14.134   5.627
78321SOL    HW236861   8.194  14.246   5.540
78322SOL     OW36862   8.812   0.753   6.156
78322SOL    HW136863   8.793   0.785   6.245
78322SOL    HW236864   8.853   0.827   6.112
78323SOL     OW36865   2.178  12.694   7.326
78323SOL    HW136866   2.234  12.637   7.273
78323SOL    HW236867   2.223  12.699   7.411
78324SOL     OW36868   7.568  12.201   7.766
78324SOL    HW136869   7.530  12.264   7.827
78324SOL    HW236870   7.640  12.247   7.724
78325SOL     OW36871  13.129   6.577   3.468
78325SOL    HW136872  13.096   6.609   3.384
78325SOL    HW236873  13.104   6.645   3.530
78326SOL     OW36874   7.324   2.730   5.193
78326SOL    HW136875   7.325   2.648   5.244
78326SOL    HW236876   7.389   2.785   5.235
78327SOL     OW36877   7.206   1.604   9.726
78327SOL    HW136878   7.160   1.683   9.752
78327SOL    HW236879   7.154   1.567   9.655
78328SOL     OW36880  12.902  13.086  14.873
78328SOL    HW136881  12.910  13.149  14.801
78328SOL    HW236882  12.815  13.048  14.862
78329SOL     OW36883  13.060   8.804   3.565
78329SOL    HW136884  13.069   8.853   3.647
78329SOL    HW236885  13.149   8.779   3.542
78330SOL     OW36886   6.904   0.570   3.804
78330SOL    HW136887   6.986   0.547   3.848
78330SOL    HW236888   6.926   0.568   3.711
78331SOL     OW36889  12.157   3.624   6.448
78331SOL    HW136890  12.205   3.613   6.530
78331SOL    HW236891  12.186   3.551   6.393
78332SOL     OW36892   6.704   5.178   9.449
78332SOL    HW136893   6.688   5.183   9.355
78332SOL    HW236894   6.798   5.160   9.457
78333SOL     OW36895   1.828   7.308   0.949
78333SOL    HW136896   1.866   7.220   0.947
78333SOL    HW236897   1.759   7.304   1.015
78334SOL     OW36898   2.737  12.704   5.931
78334SOL    HW136899   2.682  12.675   5.858
78334SOL    HW236900   2.730  12.633   5.995
78335SOL     OW36901  11.023   4.955   7.451
78335SOL    HW136902  10.964   5.003   7.393
78335SOL    HW236903  11.093   5.017   7.471
78336SOL     OW36904  11.074  11.209   5.879
78336SOL    HW136905  11.147  11.175   5.930
78336SOL    HW236906  11.047  11.288   5.925
78337SOL     OW36907  11.238   5.230   4.991
78337SOL    HW136908  11.158   5.196   4.952
78337SOL    HW236909  11.273   5.291   4.927
78338SOL     OW36910   4.846  12.917   3.334
78338SOL    HW136911   4.776  12.927   3.398
78338SOL    HW236912   4.864  13.006   3.304
78339SOL     OW36913   5.532   3.229  13.874
78339SOL    HW136914   5.584   3.197  13.800
78339SOL    HW236915   5.577   3.310  13.901
78340SOL     OW36916   5.719   4.987   7.061
78340SOL    HW136917   5.773   4.986   6.982
78340SOL    HW236918   5.781   4.974   7.133
78341SOL     OW36919   3.537  12.692   0.790
78341SOL    HW136920   3.473  12.635   0.833
78341SOL    HW236921   3.548  12.653   0.702
78342SOL     OW36922   1.324   2.370  14.046
78342SOL    HW136923   1.398   2.310  14.047
78342SOL    HW236924   1.285   2.363  14.133
78343SOL     OW36925   5.832   4.423   9.337
78343SOL    HW136926   5.738   4.421   9.321
78343SOL    HW236927   5.855   4.516   9.336
78344SOL     OW36928  13.280   5.533  11.140
78344SOL    HW136929  13.210   5.504  11.081
78344SOL    HW236930  13.236   5.594  11.200
78345SOL     OW36931   6.570   4.093   9.683
78345SOL    HW136932   6.655   4.050   9.673
78345SOL    HW236933   6.564   4.154   9.609
78346SOL     OW36934   2.434   9.576   3.984
78346SOL    HW136935   2.450   9.597   3.892
78346SOL    HW236936   2.439   9.660   4.029
78347SOL     OW36937   2.592   5.751   9.681
78347SOL    HW136938   2.521   5.743   9.617
78347SOL    HW236939   2.546   5.760   9.765
78348SOL     OW36940  11.189  10.673   2.183
78348SOL    HW136941  11.098  10.684   2.208
78348SOL    HW236942  11.237  10.737   2.236
78349SOL     OW36943  10.982   0.905  11.519
78349SOL    HW136944  11.027   0.871  11.596
78349SOL    HW236945  11.048   0.904  11.450
78350SOL     OW36946   2.062   8.017  11.240
78350SOL    HW136947   2.124   8.046  11.307
78350SOL    HW236948   2.111   7.952  11.189
78351SOL     OW36949   7.983   0.979   3.923
78351SOL    HW136950   8.013   1.033   3.996
78351SOL    HW236951   8.035   0.899   3.929
78352SOL     OW36952  10.220   3.432   8.113
78352SOL    HW136953  10.237   3.524   8.132
78352SOL    HW236954  10.162   3.403   8.183
78353SOL     OW36955  14.407   4.331  10.650
78353SOL    HW136956  14.432   4.410  10.603
78353SOL    HW236957  14.373   4.273  10.582
78354SOL     OW36958   8.047   1.470  12.449
78354SOL    HW136959   7.990   1.521  12.506
78354SOL    HW236960   8.136   1.496  12.474
78355SOL     OW36961   2.580  12.013  12.158
78355SOL    HW136962   2.658  11.980  12.202
78355SOL    HW236963   2.567  11.952  12.085
78356SOL     OW36964   1.737   7.276  12.570
78356SOL    HW136965   1.724   7.337  12.497
78356SOL    HW236966   1.773   7.330  12.640
78357SOL     OW36967   6.045   2.709   5.842
78357SOL    HW136968   6.000   2.659   5.774
78357SOL    HW236969   6.071   2.643   5.906
78358SOL     OW36970  13.015   9.404   3.783
78358SOL    HW136971  12.962   9.351   3.842
78358SOL    HW236972  13.100   9.360   3.781
78359SOL     OW36973  12.778   9.137   8.492
78359SOL    HW136974  12.701   9.153   8.547
78359SOL    HW236975  12.744   9.088   8.417
78360SOL     OW36976   2.231   3.604  14.050
78360SOL    HW136977   2.176   3.539  14.007
78360SOL    HW236978   2.256   3.665  13.981
78361SOL     OW36979  13.802   5.106  13.657
78361SOL    HW136980  13.865   5.114  13.728
78361SOL    HW236981  13.742   5.180  13.669
78362SOL     OW36982   9.143   2.097   5.524
78362SOL    HW136983   9.069   2.146   5.488
78362SOL    HW236984   9.167   2.036   5.454
78363SOL     OW36985  14.357   0.250   7.634
78363SOL    HW136986  14.426   0.183   7.630
78363SOL    HW236987  14.317   0.237   7.720
78364SOL     OW36988  13.145   2.856   5.402
78364SOL    HW136989  13.219   2.845   5.462
78364SOL    HW236990  13.184   2.865   5.316
78365SOL     OW36991   5.745   8.829   7.737
78365SOL    HW136992   5.724   8.739   7.759
78365SOL    HW236993   5.825   8.848   7.786
78366SOL     OW36994  12.782  11.490   1.885
78366SOL    HW136995  12.809  11.543   1.960
78366SOL    HW236996  12.847  11.509   1.818
78367SOL     OW36997   1.516   0.536   7.499
78367SOL    HW136998   1.459   0.589   7.443
78367SOL    HW236999   1.578   0.599   7.537
78368SOL     OW37000   1.372   0.243   5.619
78368SOL    HW137001   1.302   0.212   5.561
78368SOL    HW237002   1.449   0.251   5.563
78369SOL     OW37003  12.664   5.078   6.237
78369SOL    HW137004  12.669   5.164   6.280
78369SOL    HW237005  12.695   5.016   6.304
78370SOL     OW37006  12.687   7.517   1.876
78370SOL    HW137007  12.776   7.496   1.848
78370SOL    HW237008  12.633   7.446   1.840
78371SOL     OW37009  14.696   6.196   9.436
78371SOL    HW137010  14.601   6.186   9.427
78371SOL    HW237011  14.717   6.155   9.520
78372SOL     OW37012  12.477   2.485   5.995
78372SOL    HW137013  12.418   2.523   6.061
78372SOL    HW237014  12.511   2.406   6.037
78373SOL     OW37015  13.867   3.410  14.258
78373SOL    HW137016  13.827   3.325  14.279
78373SOL    HW237017  13.904   3.397  14.170
78374SOL     OW37018  12.873  11.100  12.969
78374SOL    HW137019  12.939  11.046  13.012
78374SOL    HW237020  12.864  11.177  13.026
78375SOL     OW37021   7.994   3.650   2.698
78375SOL    HW137022   8.083   3.684   2.703
78375SOL    HW237023   7.994   3.575   2.758
78376SOL     OW37024  14.769   0.612  11.058
78376SOL    HW137025  14.755   0.527  11.100
78376SOL    HW237026  14.847   0.647  11.102
78377SOL     OW37027   1.551   2.629   7.391
78377SOL    HW137028   1.455   2.633   7.398
78377SOL    HW237029   1.568   2.547   7.343
78378SOL     OW37030   5.422   6.642   6.559
78378SOL    HW137031   5.345   6.624   6.505
78378SOL    HW237032   5.437   6.560   6.606
78379SOL     OW37033   7.683   4.799  14.562
78379SOL    HW137034   7.733   4.781  14.482
78379SOL    HW237035   7.671   4.894  14.562
78380SOL     OW37036   1.648   3.005  12.283
78380SOL    HW137037   1.661   2.911  12.295
78380SOL    HW237038   1.724   3.046  12.325
78381SOL     OW37039   1.935   5.241   8.867
78381SOL    HW137040   1.888   5.211   8.788
78381SOL    HW237041   1.881   5.211   8.940
78382SOL     OW37042   6.995  13.439   3.981
78382SOL    HW137043   6.930  13.490   4.030
78382SOL    HW237044   7.061  13.503   3.954
78383SOL     OW37045  10.099   1.920   1.855
78383SOL    HW137046  10.143   1.835   1.851
78383SOL    HW237047  10.039   1.912   1.929
78384SOL     OW37048  12.117  14.638   2.157
78384SOL    HW137049  12.077  14.658   2.072
78384SOL    HW237050  12.063  14.686   2.220
78385SOL     OW37051   7.055  14.445  12.769
78385SOL    HW137052   7.083  14.497  12.844
78385SOL    HW237053   7.099  14.360  12.780
78386SOL     OW37054  11.262  10.619   8.850
78386SOL    HW137055  11.244  10.588   8.761
78386SOL    HW237056  11.344  10.577   8.874
78387SOL     OW37057  13.445   5.023  10.188
78387SOL    HW137058  13.370   5.031  10.247
78387SOL    HW237059  13.521   5.043  10.244
78388SOL     OW37060  11.042  12.396   2.313
78388SOL    HW137061  11.036  12.472   2.371
78388SOL    HW237062  11.102  12.423   2.244
78389SOL     OW37063  13.607  13.942   9.647
78389SOL    HW137064  13.623  13.847   9.642
78389SOL    HW237065  13.603  13.961   9.741
78390SOL     OW37066   4.874  14.166   6.051
78390SOL    HW137067   4.892  14.101   5.983
78390SOL    HW237068   4.890  14.250   6.008
78391SOL     OW37069   3.291   2.832   8.613
78391SOL    HW137070   3.256   2.862   8.529
78391SOL    HW237071   3.386   2.842   8.605
78392SOL     OW37072   5.915   0.484   6.239
78392SOL    HW137073   5.928   0.451   6.150
78392SOL    HW237074   5.997   0.466   6.284
78393SOL     OW37075   0.880  13.915   5.565
78393SOL    HW137076   0.796  13.938   5.525
78393SOL    HW237077   0.922  13.999   5.586
78394SOL     OW37078   6.927   1.404  14.677
78394SOL    HW137079   7.006   1.447  14.646
78394SOL    HW237080   6.895   1.354  14.601
78395SOL     OW37081   9.975   7.833   0.868
78395SOL    HW137082   9.918   7.901   0.831
78395SOL    HW237083   9.944   7.821   0.957
78396SOL     OW37084   5.390   1.877   9.061
78396SOL    HW137085   5.333   1.939   9.016
78396SOL    HW237086   5.407   1.808   8.996
78397SOL     OW37087   4.203   0.151   7.924
78397SOL    HW137088   4.184   0.175   8.015
78397SOL    HW237089   4.133   0.190   7.873
78398SOL     OW37090  12.731   9.910  12.071
78398SOL    HW137091  12.689   9.865  11.998
78398SOL    HW237092  12.741   9.843  12.139
78399SOL     OW37093  14.458  12.620   7.971
78399SOL    HW137094  14.422  12.542   7.929
78399SOL    HW237095  14.386  12.682   7.973
78400SOL     OW37096   1.919   1.456   9.299
78400SOL    HW137097   1.949   1.529   9.245
78400SOL    HW237098   1.988   1.390   9.290
78401SOL     OW37099   9.647   2.938  13.935
78401SOL    HW137100   9.618   3.029  13.927
78401SOL    HW237101   9.670   2.911  13.846
78402SOL     OW37102   2.804   7.145   5.671
78402SOL    HW137103   2.892   7.182   5.666
78402SOL    HW237104   2.795   7.091   5.592
78403SOL     OW37105  12.479  10.565  14.563
78403SOL    HW137106  12.397  10.517  14.576
78403SOL    HW237107  12.483  10.626  14.637
78404SOL     OW37108   0.253  12.477   9.219
78404SOL    HW137109   0.191  12.527   9.167
78404SOL    HW237110   0.203  12.449   9.296
78405SOL     OW37111   7.960   7.076  14.010
78405SOL    HW137112   7.966   7.170  14.027
78405SOL    HW237113   7.880   7.048  14.056
78406SOL     OW37114  10.457   5.238   9.297
78406SOL    HW137115  10.487   5.325   9.323
78406SOL    HW237116  10.391   5.215   9.363
78407SOL     OW37117   0.155   8.550   0.654
78407SOL    HW137118   0.110   8.632   0.674
78407SOL    HW237119   0.179   8.513   0.739
78408SOL     OW37120  12.590   2.662  14.055
78408SOL    HW137121  12.609   2.652  14.149
78408SOL    HW237122  12.628   2.583  14.015
78409SOL     OW37123   1.323   8.544   9.882
78409SOL    HW137124   1.335   8.621   9.937
78409SOL    HW237125   1.368   8.474   9.929
78410SOL     OW37126   9.264   3.587   2.839
78410SOL    HW137127   9.347   3.569   2.794
78410SOL    HW237128   9.288   3.592   2.931
78411SOL     OW37129   7.906   0.758   2.803
78411SOL    HW137130   7.901   0.827   2.869
78411SOL    HW237131   7.930   0.803   2.722
78412SOL     OW37132   1.630   4.874   0.649
78412SOL    HW137133   1.575   4.855   0.574
78412SOL    HW237134   1.647   4.789   0.689
78413SOL     OW37135   4.028  11.828   2.387
78413SOL    HW137136   4.032  11.881   2.466
78413SOL    HW237137   4.107  11.773   2.390
78414SOL     OW37138   9.558   7.285   1.186
78414SOL    HW137139   9.648   7.252   1.183
78414SOL    HW237140   9.556   7.354   1.120
78415SOL     OW37141   2.433  14.360   2.710
78415SOL    HW137142   2.486  14.367   2.789
78415SOL    HW237143   2.387  14.444   2.705
78416SOL     OW37144   4.212  12.519   7.472
78416SOL    HW137145   4.205  12.606   7.512
78416SOL    HW237146   4.297  12.487   7.501
78417SOL     OW37147   7.155   3.205  13.559
78417SOL    HW137148   7.087   3.273  13.566
78417SOL    HW237149   7.207   3.232  13.483
78418SOL     OW37150  11.921   8.880  12.386
78418SOL    HW137151  11.906   8.941  12.458
78418SOL    HW237152  11.986   8.818  12.420
78419SOL     OW37153   1.212   4.168   6.155
78419SOL    HW137154   1.184   4.249   6.113
78419SOL    HW237155   1.131   4.127   6.185
78420SOL     OW37156   5.646   2.857   7.318
78420SOL    HW137157   5.632   2.783   7.377
78420SOL    HW237158   5.597   2.930   7.358
78421SOL     OW37159  12.271   3.814   2.896
78421SOL    HW137160  12.298   3.722   2.904
78421SOL    HW237161  12.341   3.855   2.846
78422SOL     OW37162   5.249  14.551   5.305
78422SOL    HW137163   5.249  14.506   5.389
78422SOL    HW237164   5.297  14.632   5.322
78423SOL     OW37165   8.506   0.317   6.861
78423SOL    HW137166   8.568   0.284   6.927
78423SOL    HW237167   8.560   0.337   6.785
78424SOL     OW37168  13.235   7.982  14.268
78424SOL    HW137169  13.291   7.905  14.274
78424SOL    HW237170  13.296   8.056  14.269
78425SOL     OW37171   7.735   8.689   0.286
78425SOL    HW137172   7.754   8.783   0.278
78425SOL    HW237173   7.700   8.679   0.375
78426SOL     OW37174   4.729  12.752   3.072
78426SOL    HW137175   4.704  12.842   3.050
78426SOL    HW237176   4.750  12.711   2.989
78427SOL     OW37177   9.912  12.083   3.363
78427SOL    HW137178   9.825  12.049   3.383
78427SOL    HW237179   9.950  12.105   3.449
78428SOL     OW37180   6.416  11.374   5.164
78428SOL    HW137181   6.321  11.367   5.169
78428SOL    HW237182   6.442  11.307   5.101
78429SOL     OW37183  13.635   6.603   6.145
78429SOL    HW137184  13.540   6.608   6.140
78429SOL    HW237185  13.654   6.578   6.235
78430SOL     OW37186   8.680   9.721   3.836
78430SOL    HW137187   8.684   9.632   3.870
78430SOL    HW237188   8.763   9.733   3.790
78431SOL     OW37189   1.142   7.114   6.777
78431SOL    HW137190   1.082   7.044   6.803
78431SOL    HW237191   1.130   7.182   6.843
78432SOL     OW37192   4.580   6.521   1.585
78432SOL    HW137193   4.574   6.486   1.674
78432SOL    HW237194   4.557   6.613   1.593
78433SOL     OW37195   2.570   1.383   9.443
78433SOL    HW137196   2.530   1.298   9.457
78433SOL    HW237197   2.497   1.445   9.444
78434SOL     OW37198  12.063  14.675  12.555
78434SOL    HW137199  12.135  14.691  12.494
78434SOL    HW237200  12.007  14.611  12.510
78435SOL     OW37201  13.916   2.309   3.528
78435SOL    HW137202  13.912   2.309   3.624
78435SOL    HW237203  13.876   2.392   3.502
78436SOL     OW37204   6.794   1.110  10.184
78436SOL    HW137205   6.715   1.107  10.237
78436SOL    HW237206   6.807   1.203  10.165
78437SOL     OW37207   9.334  12.922   2.804
78437SOL    HW137208   9.284  12.840   2.801
78437SOL    HW237209   9.362  12.930   2.895
78438SOL     OW37210  11.557  14.398  12.060
78438SOL    HW137211  11.563  14.436  12.147
78438SOL    HW237212  11.594  14.464  12.002
78439SOL     OW37213  11.519   3.093   9.453
78439SOL    HW137214  11.471   3.167   9.416
78439SOL    HW237215  11.498   3.095   9.547
78440SOL     OW37216  13.161  13.032   7.581
78440SOL    HW137217  13.234  13.088   7.607
78440SOL    HW237218  13.201  12.952   7.548
78441SOL     OW37219   9.001   9.834  10.346
78441SOL    HW137220   9.072   9.856  10.405
78441SOL    HW237221   8.921   9.847  10.398
78442SOL     OW37222   5.071   9.407   2.585
78442SOL    HW137223   5.035   9.492   2.559
78442SOL    HW237224   5.149   9.397   2.531
78443SOL     OW37225   7.351   6.423   0.462
78443SOL    HW137226   7.306   6.496   0.505
78443SOL    HW237227   7.313   6.419   0.375
78444SOL     OW37228   6.484   4.682   7.365
78444SOL    HW137229   6.570   4.721   7.360
78444SOL    HW237230   6.457   4.693   7.456
78445SOL     OW37231  13.501  13.319   8.529
78445SOL    HW137232  13.473  13.371   8.453
78445SOL    HW237233  13.588  13.351   8.550
78446SOL     OW37234   2.828  11.869   7.357
78446SOL    HW137235   2.914  11.911   7.359
78446SOL    HW237236   2.827  11.815   7.437
78447SOL     OW37237  10.082  12.943  11.624
78447SOL    HW137238  10.031  12.922  11.702
78447SOL    HW237239  10.170  12.912  11.644
78448SOL     OW37240   4.519  11.965  14.758
78448SOL    HW137241   4.431  11.951  14.793
78448SOL    HW237242   4.573  11.983  14.834
78449SOL     OW37243   3.711   6.742  10.843
78449SOL    HW137244   3.718   6.655  10.804
78449SOL    HW237245   3.680   6.798  10.772
78450SOL     OW37246   1.005  12.229   8.238
78450SOL    HW137247   1.002  12.320   8.211
78450SOL    HW237248   1.038  12.182   8.162
78451SOL     OW37249   3.933   2.195   2.928
78451SOL    HW137250   3.972   2.275   2.963
78451SOL    HW237251   3.874   2.166   2.997
78452SOL     OW37252   7.246  12.306   0.016
78452SOL    HW137253   7.161  12.346  14.873
78452SOL    HW237254   7.226  12.234   0.077
78453SOL     OW37255   1.007   1.890   3.579
78453SOL    HW137256   0.999   1.926   3.667
78453SOL    HW237257   1.100   1.869   3.569
78454SOL     OW37258   1.234   0.846   3.753
78454SOL    HW137259   1.261   0.937   3.765
78454SOL    HW237260   1.168   0.831   3.820
78455SOL     OW37261   5.487   8.834   8.350
78455SOL    HW137262   5.498   8.831   8.255
78455SOL    HW237263   5.392   8.834   8.363
78456SOL     OW37264   5.238   9.574  14.625
78456SOL    HW137265   5.299   9.534  14.687
78456SOL    HW237266   5.293   9.623  14.565
78457SOL     OW37267   9.070   2.764   4.166
78457SOL    HW137268   9.003   2.708   4.127
78457SOL    HW237269   9.057   2.756   4.260
78458SOL     OW37270   5.745  11.452   3.289
78458SOL    HW137271   5.744  11.472   3.383
78458SOL    HW237272   5.790  11.368   3.282
78459SOL     OW37273  11.058   4.283   0.490
78459SOL    HW137274  11.021   4.230   0.419
78459SOL    HW237275  11.146   4.248   0.502
78460SOL     OW37276  14.174  11.015  10.140
78460SOL    HW137277  14.120  11.087  10.172
78460SOL    HW237278  14.153  10.942  10.199
78461SOL     OW37279  12.572  14.092   3.056
78461SOL    HW137280  12.665  14.110   3.068
78461SOL    HW237281  12.560  14.003   3.089
78462SOL     OW37282   8.503  11.505   4.014
78462SOL    HW137283   8.529  11.517   3.923
78462SOL    HW237284   8.433  11.569   4.028
78463SOL     OW37285   8.529   9.171  12.044
78463SOL    HW137286   8.612   9.207  12.076
78463SOL    HW237287   8.516   9.214  11.959
78464SOL     OW37288   0.363   5.210   4.186
78464SOL    HW137289   0.311   5.261   4.124
78464SOL    HW237290   0.452   5.212   4.150
78465SOL     OW37291  14.016   8.625   2.216
78465SOL    HW137292  14.048   8.715   2.222
78465SOL    HW237293  14.007   8.596   2.306
78466SOL     OW37294   6.190  10.201  10.993
78466SOL    HW137295   6.170  10.123  11.044
78466SOL    HW237296   6.112  10.256  11.000
78467SOL     OW37297  14.191  13.498   6.645
78467SOL    HW137298  14.252  13.566   6.675
78467SOL    HW237299  14.206  13.425   6.706
78468SOL     OW37300   1.936   2.632  10.697
78468SOL    HW137301   1.844   2.656  10.703
78468SOL    HW237302   1.973   2.656  10.782
78469SOL     OW37303   7.343   3.557   6.530
78469SOL    HW137304   7.345   3.540   6.625
78469SOL    HW237305   7.362   3.650   6.522
78470SOL     OW37306   5.069   3.704   6.238
78470SOL    HW137307   5.011   3.750   6.299
78470SOL    HW237308   5.156   3.716   6.274
78471SOL     OW37309   3.250   9.981   9.267
78471SOL    HW137310   3.283  10.003   9.180
78471SOL    HW237311   3.204   9.898   9.255
78472SOL     OW37312  14.051   7.748   1.656
78472SOL    HW137313  14.110   7.691   1.608
78472SOL    HW237314  14.089   7.835   1.648
78473SOL     OW37315   5.230  13.016  12.399
78473SOL    HW137316   5.180  12.939  12.424
78473SOL    HW237317   5.320  12.985  12.389
78474SOL     OW37318   8.690  13.495   6.077
78474SOL    HW137319   8.600  13.489   6.045
78474SOL    HW237320   8.736  13.547   6.011
78475SOL     OW37321   8.607  11.534   1.581
78475SOL    HW137322   8.531  11.533   1.639
78475SOL    HW237323   8.581  11.593   1.510
78476SOL     OW37324   2.994   1.378   4.569
78476SOL    HW137325   3.089   1.367   4.564
78476SOL    HW237326   2.981   1.472   4.576
78477SOL     OW37327   0.619   7.618   0.652
78477SOL    HW137328   0.584   7.645   0.737
78477SOL    HW237329   0.560   7.549   0.622
78478SOL     OW37330   7.400  14.727   8.402
78478SOL    HW137331   7.347  14.675   8.462
78478SOL    HW237332   7.369  14.817   8.414
78479SOL     OW37333   3.895   9.421  11.556
78479SOL    HW137334   3.837   9.402  11.630
78479SOL    HW237335   3.921   9.335  11.523
78480SOL     OW37336  11.103   5.694   3.241
78480SOL    HW137337  11.076   5.732   3.324
78480SOL    HW237338  11.191   5.660   3.257
78481SOL     OW37339  13.531  10.716  13.761
78481SOL    HW137340  13.587  10.780  13.717
78481SOL    HW237341  13.561  10.631  13.728
78482SOL     OW37342   1.292   8.130   5.489
78482SOL    HW137343   1.316   8.164   5.403
78482SOL    HW237344   1.299   8.035   5.480
78483SOL     OW37345  13.900   4.830   9.740
78483SOL    HW137346  13.985   4.854   9.703
78483SOL    HW237347  13.921   4.789   9.824
78484SOL     OW37348   6.569   9.049   1.905
78484SOL    HW137349   6.560   8.965   1.950
78484SOL    HW237350   6.533   9.113   1.967
78485SOL     OW37351   9.229  11.618   8.946
78485SOL    HW137352   9.150  11.646   8.901
78485SOL    HW237353   9.227  11.522   8.942
78486SOL     OW37354   4.876   2.211  13.667
78486SOL    HW137355   4.795   2.245  13.705
78486SOL    HW237356   4.849   2.134  13.616
78487SOL     OW37357  13.778   8.187   5.728
78487SOL    HW137358  13.709   8.251   5.743
78487SOL    HW237359  13.762   8.154   5.640
78488SOL     OW37360   9.990   6.299   8.877
78488SOL    HW137361   9.974   6.210   8.908
78488SOL    HW237362   9.947   6.355   8.942
78489SOL     OW37363  10.592  13.551  11.338
78489SOL    HW137364  10.569  13.531  11.247
78489SOL    HW237365  10.638  13.473  11.369
78490SOL     OW37366   3.535  11.055   1.571
78490SOL    HW137367   3.441  11.063   1.590
78490SOL    HW237368   3.574  11.130   1.615
78491SOL     OW37369   8.236  10.820   8.796
78491SOL    HW137370   8.263  10.772   8.874
78491SOL    HW237371   8.237  10.912   8.822
78492SOL     OW37372   7.740   7.916   2.858
78492SOL    HW137373   7.823   7.882   2.823
78492SOL    HW237374   7.704   7.969   2.788
78493SOL     OW37375   5.764  14.442  14.208
78493SOL    HW137376   5.764  14.349  14.183
78493SOL    HW237377   5.732  14.443  14.298
78494SOL     OW37378   6.311  11.754   1.129
78494SOL    HW137379   6.369  11.678   1.123
78494SOL    HW237380   6.226  11.717   1.151
78495SOL     OW37381   1.625   2.172  12.855
78495SOL    HW137382   1.614   2.267  12.847
78495SOL    HW237383   1.579   2.136  12.779
78496SOL     OW37384   2.584   8.996   2.988
78496SOL    HW137385   2.595   8.923   3.049
78496SOL    HW237386   2.523   9.055   3.032
78497SOL     OW37387   9.080   3.986  11.876
78497SOL    HW137388   9.002   3.983  11.820
78497SOL    HW237389   9.153   3.978  11.815
78498SOL     OW37390   5.159  11.549   4.303
78498SOL    HW137391   5.155  11.589   4.390
78498SOL    HW237392   5.074  11.506   4.293
78499SOL     OW37393  11.536  14.686  10.649
78499SOL    HW137394  11.499  14.623  10.588
78499SOL    HW237395  11.491  14.768  10.629
78500SOL     OW37396  12.441  12.149   2.091
78500SOL    HW137397  12.391  12.068   2.086
78500SOL    HW237398  12.378  12.214   2.122
78501SOL     OW37399   0.591  10.758   2.665
78501SOL    HW137400   0.618  10.736   2.576
78501SOL    HW237401   0.530  10.831   2.654
78502SOL     OW37402   2.207   3.037  14.835
78502SOL    HW137403   2.193   2.967  14.771
78502SOL    HW237404   2.295   3.020  14.869
78503SOL     OW37405   0.130   8.732   5.257
78503SOL    HW137406   0.147   8.715   5.349
78503SOL    HW237407   0.086   8.652   5.226
78504SOL     OW37408  10.067   2.295   9.893
78504SOL    HW137409  10.124   2.221   9.917
78504SOL    HW237410   9.984   2.255   9.871
78505SOL     OW37411   1.697  13.869   6.055
78505SOL    HW137412   1.638  13.844   6.126
78505SOL    HW237413   1.765  13.802   6.055
78506SOL     OW37414   3.032   2.940   6.071
78506SOL    HW137415   2.962   2.874   6.076
78506SOL    HW237416   3.110   2.890   6.048
78507SOL     OW37417   4.005   7.106   7.057
78507SOL    HW137418   3.934   7.044   7.042
78507SOL    HW237419   4.040   7.123   6.969
78508SOL     OW37420  11.754  12.712   0.603
78508SOL    HW137421  11.837  12.669   0.625
78508SOL    HW237422  11.688  12.646   0.623
78509SOL     OW37423   2.422   2.544   1.760
78509SOL    HW137424   2.476   2.605   1.810
78509SOL    HW237425   2.445   2.561   1.669
78510SOL     OW37426   2.559  11.144   9.356
78510SOL    HW137427   2.598  11.231   9.362
78510SOL    HW237428   2.535  11.123   9.446
78511SOL     OW37429  14.124   1.836   7.234
78511SOL    HW137430  14.078   1.863   7.155
78511SOL    HW237431  14.125   1.741   7.230
78512SOL     OW37432   6.655   9.230  12.139
78512SOL    HW137433   6.597   9.284  12.087
78512SOL    HW237434   6.740   9.272  12.133
78513SOL     OW37435   4.196   3.960   5.545
78513SOL    HW137436   4.103   3.972   5.525
78513SOL    HW237437   4.205   3.991   5.635
78514SOL     OW37438   7.147   2.175   4.291
78514SOL    HW137439   7.212   2.194   4.358
78514SOL    HW237440   7.154   2.081   4.276
78515SOL     OW37441  12.238   2.347   3.382
78515SOL    HW137442  12.229   2.312   3.471
78515SOL    HW237443  12.152   2.337   3.343
78516SOL     OW37444   6.937  11.904   8.597
78516SOL    HW137445   6.881  11.945   8.664
78516SOL    HW237446   6.895  11.820   8.580
78517SOL     OW37447   7.401   6.527  11.205
78517SOL    HW137448   7.340   6.521  11.131
78517SOL    HW237449   7.347   6.508  11.282
78518SOL     OW37450   6.201   5.992  12.261
78518SOL    HW137451   6.265   5.968  12.194
78518SOL    HW237452   6.243   5.971  12.344
78519SOL     OW37453  11.139  10.408   6.441
78519SOL    HW137454  11.061  10.399   6.386
78519SOL    HW237455  11.168  10.498   6.427
78520SOL     OW37456   3.171   9.811  11.011
78520SOL    HW137457   3.116   9.739  11.042
78520SOL    HW237458   3.110   9.871  10.967
78521SOL     OW37459   2.115   0.023   1.883
78521SOL    HW137460   2.122   0.041   1.977
78521SOL    HW237461   2.202   0.042   1.848
78522SOL     OW37462  14.228   7.909   6.137
78522SOL    HW137463  14.270   7.953   6.212
78522SOL    HW237464  14.293   7.914   6.067
78523SOL     OW37465  14.853   1.676  11.044
78523SOL    HW137466  14.848   1.686  10.949
78523SOL    HW237467  14.762   1.672  11.073
78524SOL     OW37468   8.875  12.808  10.934
78524SOL    HW137469   8.831  12.724  10.919
78524SOL    HW237470   8.825  12.871  10.884
78525SOL     OW37471   3.551   7.334   8.192
78525SOL    HW137472   3.496   7.269   8.235
78525SOL    HW237473   3.606   7.369   8.262
78526SOL     OW37474  13.560   9.943   8.056
78526SOL    HW137475  13.482   9.999   8.057
78526SOL    HW237476  13.558   9.902   7.969
78527SOL     OW37477   7.321  10.218  13.463
78527SOL    HW137478   7.291  10.241  13.551
78527SOL    HW237479   7.400  10.271  13.450
78528SOL     OW37480   1.698   7.891   3.662
78528SOL    HW137481   1.697   7.825   3.592
78528SOL    HW237482   1.605   7.910   3.678
78529SOL     OW37483   1.954   4.364   6.316
78529SOL    HW137484   1.940   4.440   6.373
78529SOL    HW237485   2.032   4.387   6.265
78530SOL     OW37486   0.578  10.651   3.580
78530SOL    HW137487   0.656  10.696   3.547
78530SOL    HW237488   0.547  10.598   3.507
78531SOL     OW37489  12.995   8.426   6.001
78531SOL    HW137490  12.962   8.386   6.081
78531SOL    HW237491  13.057   8.493   6.031
78532SOL     OW37492  10.578  11.539   9.840
78532SOL    HW137493  10.634  11.566   9.912
78532SOL    HW237494  10.489  11.552   9.873
78533SOL     OW37495   8.782   8.074   2.401
78533SOL    HW137496   8.833   8.075   2.482
78533SOL    HW237497   8.780   7.982   2.376
78534SOL     OW37498   6.434   8.333  14.863
78534SOL    HW137499   6.502   8.372   0.044
78534SOL    HW237500   6.469   8.342  14.775
78535SOL     OW37501   8.315   6.997   7.942
78535SOL    HW137502   8.381   7.035   7.885
78535SOL    HW237503   8.360   6.927   7.989
78536SOL     OW37504   8.686   1.415   8.856
78536SOL    HW137505   8.651   1.329   8.836
78536SOL    HW237506   8.772   1.398   8.895
78537SOL     OW37507  12.626   1.460   8.556
78537SOL    HW137508  12.576   1.421   8.484
78537SOL    HW237509  12.708   1.489   8.515
78538SOL     OW37510  10.388   6.732   1.781
78538SOL    HW137511  10.481   6.725   1.759
78538SOL    HW237512  10.345   6.751   1.697
78539SOL     OW37513   1.205   3.005   6.780
78539SOL    HW137514   1.277   2.941   6.781
78539SOL    HW237515   1.154   2.982   6.703
78540SOL     OW37516   0.015   3.968   4.649
78540SOL    HW137517   0.017   3.876   4.624
78540SOL    HW237518   0.057   4.014   4.577
78541SOL     OW37519   2.244   7.585   1.573
78541SOL    HW137520   2.296   7.646   1.521
78541SOL    HW237521   2.246   7.622   1.662
78542SOL     OW37522   7.769  14.181  12.787
78542SOL    HW137523   7.763  14.275  12.802
78542SOL    HW237524   7.679  14.150  12.786
78543SOL     OW37525  13.717   6.770   4.978
78543SOL    HW137526  13.794   6.763   5.036
78543SOL    HW237527  13.753   6.760   4.890
78544SOL     OW37528   4.320   3.268   4.199
78544SOL    HW137529   4.395   3.241   4.145
78544SOL    HW237530   4.298   3.355   4.166
78545SOL     OW37531   8.925   8.730   5.579
78545SOL    HW137532   9.013   8.698   5.561
78545SOL    HW237533   8.933   8.826   5.577
78546SOL     OW37534  14.477   5.493   0.675
78546SOL    HW137535  14.450   5.443   0.753
78546SOL    HW237536  14.396   5.529   0.640
78547SOL     OW37537   9.357   2.040   6.687
78547SOL    HW137538   9.284   2.029   6.626
78547SOL    HW237539   9.412   2.107   6.647
78548SOL     OW37540  10.032   2.450   4.851
78548SOL    HW137541  10.007   2.358   4.854
78548SOL    HW237542   9.961   2.493   4.803
78549SOL     OW37543   2.975  10.857  12.690
78549SOL    HW137544   3.056  10.905  12.672
78549SOL    HW237545   2.983  10.777  12.638
78550SOL     OW37546  12.541  12.980   4.422
78550SOL    HW137547  12.591  12.948   4.347
78550SOL    HW237548  12.515  13.069   4.397
78551SOL     OW37549   7.136   3.985  13.119
78551SOL    HW137550   7.194   4.058  13.097
78551SOL    HW237551   7.188   3.907  13.105
78552SOL     OW37552  14.275   5.619   4.343
78552SOL    HW137553  14.340   5.680   4.308
78552SOL    HW237554  14.229   5.586   4.266
78553SOL     OW37555   6.567  12.076   3.380
78553SOL    HW137556   6.550  12.161   3.420
78553SOL    HW237557   6.508  12.016   3.425
78554SOL     OW37558   8.145   2.637   3.562
78554SOL    HW137559   8.214   2.688   3.519
78554SOL    HW237560   8.187   2.604   3.641
78555SOL     OW37561   2.530   7.468   9.980
78555SOL    HW137562   2.553   7.421  10.060
78555SOL    HW237563   2.461   7.528  10.007
78556SOL     OW37564   2.281  10.068   2.205
78556SOL    HW137565   2.343  10.026   2.264
78556SOL    HW237566   2.335  10.109   2.137
78557SOL     OW37567  10.363   3.453   5.914
78557SOL    HW137568  10.349   3.502   5.833
78557SOL    HW237569  10.344   3.362   5.890
78558SOL     OW37570   7.265  12.769  10.633
78558SOL    HW137571   7.344  12.731  10.595
78558SOL    HW237572   7.255  12.854  10.589
78559SOL     OW37573  13.423   6.640   0.444
78559SOL    HW137574  13.411   6.678   0.531
78559SOL    HW237575  13.338   6.649   0.401
78560SOL     OW37576   8.591  13.981   3.464
78560SOL    HW137577   8.519  13.920   3.473
78560SOL    HW237578   8.622  13.997   3.553
78561SOL     OW37579   9.276   3.106   6.754
78561SOL    HW137580   9.204   3.123   6.814
78561SOL    HW237581   9.345   3.067   6.808
78562SOL     OW37582   8.357   0.830  11.105
78562SOL    HW137583   8.429   0.847  11.166
78562SOL    HW237584   8.301   0.907  11.113
78563SOL     OW37585   1.134   6.175   8.938
78563SOL    HW137586   1.210   6.123   8.962
78563SOL    HW237587   1.171   6.253   8.896
78564SOL     OW37588   9.171  13.710   1.174
78564SOL    HW137589   9.264  13.727   1.183
78564SOL    HW237590   9.149  13.653   1.248
78565SOL     OW37591  10.699  13.738   9.469
78565SOL    HW137592  10.709  13.748   9.374
78565SOL    HW237593  10.726  13.648   9.486
78566SOL     OW37594  10.634   6.505   6.378
78566SOL    HW137595  10.687   6.425   6.374
78566SOL    HW237596  10.685   6.564   6.434
78567SOL     OW37597   3.809   8.625   6.210
78567SOL    HW137598   3.829   8.707   6.254
78567SOL    HW237599   3.715   8.612   6.223
78568SOL     OW37600   7.420   8.443  13.601
78568SOL    HW137601   7.379   8.461  13.517
78568SOL    HW237602   7.355   8.392  13.649
78569SOL     OW37603  14.469   6.700   6.309
78569SOL    HW137604  14.376   6.723   6.313
78569SOL    HW237605  14.470   6.605   6.299
78570SOL     OW37606  11.513   5.296   0.482
78570SOL    HW137607  11.531   5.236   0.555
78570SOL    HW237608  11.420   5.284   0.464
78571SOL     OW37609  14.743   8.790   5.481
78571SOL    HW137610  14.801   8.715   5.488
78571SOL    HW237611  14.657   8.753   5.459
78572SOL     OW37612   7.856  14.335   3.044
78572SOL    HW137613   7.864  14.299   2.956
78572SOL    HW237614   7.945  14.336   3.078
78573SOL     OW37615   4.586   5.495   5.813
78573SOL    HW137616   4.572   5.482   5.719
78573SOL    HW237617   4.615   5.410   5.845
78574SOL     OW37618   6.579   2.589   8.523
78574SOL    HW137619   6.663   2.545   8.533
78574SOL    HW237620   6.515   2.530   8.562
78575SOL     OW37621  14.365   4.505   0.746
78575SOL    HW137622  14.448   4.527   0.787
78575SOL    HW237623  14.364   4.555   0.664
78576SOL     OW37624  13.176  11.539   3.448
78576SOL    HW137625  13.267  11.531   3.478
78576SOL    HW237626  13.138  11.453   3.463
78577SOL     OW37627   2.060  10.536   0.421
78577SOL    HW137628   1.986  10.498   0.468
78577SOL    HW237629   2.103  10.593   0.485
78578SOL     OW37630   6.624   0.126   3.058
78578SOL    HW137631   6.542   0.145   3.012
78578SOL    HW237632   6.645   0.208   3.104
78579SOL     OW37633   8.857   4.049  10.489
78579SOL    HW137634   8.833   3.981  10.552
78579SOL    HW237635   8.943   4.021  10.456
78580SOL     OW37636   2.305   1.420  13.447
78580SOL    HW137637   2.251   1.349  13.481
78580SOL    HW237638   2.290   1.493  13.507
78581SOL     OW37639   5.850   7.713   1.516
78581SOL    HW137640   5.874   7.670   1.434
78581SOL    HW237641   5.880   7.652   1.584
78582SOL     OW37642   9.656   7.148   9.768
78582SOL    HW137643   9.592   7.150   9.838
78582SOL    HW237644   9.663   7.239   9.739
78583SOL     OW37645  10.244  14.147   8.631
78583SOL    HW137646  10.208  14.227   8.593
78583SOL    HW237647  10.185  14.126   8.704
78584SOL     OW37648   7.911  12.891  14.450
78584SOL    HW137649   7.860  12.819  14.412
78584SOL    HW237650   7.981  12.847  14.498
78585SOL     OW37651  13.036   3.359  11.549
78585SOL    HW137652  13.129   3.376  11.531
78585SOL    HW237653  13.021   3.272  11.514
78586SOL     OW37654  10.468   5.270  14.262
78586SOL    HW137655  10.439   5.318  14.185
78586SOL    HW237656  10.402   5.201  14.273
78587SOL     OW37657   4.880  12.730   0.529
78587SOL    HW137658   4.956  12.782   0.503
78587SOL    HW237659   4.899  12.642   0.497
78588SOL     OW37660   0.772   1.336   0.542
78588SOL    HW137661   0.700   1.328   0.604
78588SOL    HW237662   0.834   1.269   0.568
78589SOL     OW37663   3.797   2.564   9.305
78589SOL    HW137664   3.875   2.529   9.262
78589SOL    HW237665   3.768   2.493   9.363
78590SOL     OW37666   7.385   8.523  14.064
78590SOL    HW137667   7.462   8.470  14.041
78590SOL    HW237668   7.347   8.478  14.140
78591SOL     OW37669   1.907   7.320   2.746
78591SOL    HW137670   1.820   7.340   2.713
78591SOL    HW237671   1.967   7.357   2.681
78592SOL     OW37672  11.705   7.698  13.472
78592SOL    HW137673  11.707   7.634  13.544
78592SOL    HW237674  11.639   7.664  13.412
78593SOL     OW37675  11.336   5.901   3.761
78593SOL    HW137676  11.388   5.828   3.793
78593SOL    HW237677  11.245   5.874   3.776
78594SOL     OW37678  10.271   4.756  11.998
78594SOL    HW137679  10.279   4.752  11.903
78594SOL    HW237680  10.237   4.844  12.016
78595SOL     OW37681   5.063   2.962   8.357
78595SOL    HW137682   5.062   2.867   8.372
78595SOL    HW237683   5.049   3.000   8.444
78596SOL     OW37684   2.524   0.557   5.919
78596SOL    HW137685   2.560   0.617   5.853
78596SOL    HW237686   2.430   0.556   5.901
78597SOL     OW37687   8.870  10.692  11.901
78597SOL    HW137688   8.837  10.602  11.899
78597SOL    HW237689   8.810  10.737  11.961
78598SOL     OW37690   6.244   4.639   4.638
78598SOL    HW137691   6.164   4.621   4.590
78598SOL    HW237692   6.295   4.694   4.579
78599SOL     OW37693   7.804   8.023   4.478
78599SOL    HW137694   7.839   8.072   4.552
78599SOL    HW237695   7.757   7.950   4.518
78600SOL     OW37696   6.617   7.247   9.748
78600SOL    HW137697   6.675   7.256   9.824
78600SOL    HW237698   6.624   7.330   9.703
78601SOL     OW37699   9.598   5.700   9.760
78601SOL    HW137700   9.665   5.762   9.789
78601SOL    HW237701   9.556   5.743   9.686
78602SOL     OW37702   3.228   4.546  13.584
78602SOL    HW137703   3.162   4.554  13.653
78602SOL    HW237704   3.179   4.546  13.503
78603SOL     OW37705   6.999   1.200   9.276
78603SOL    HW137706   6.938   1.216   9.204
78603SOL    HW237707   7.050   1.123   9.249
78604SOL     OW37708  11.574   8.984  14.155
78604SOL    HW137709  11.544   9.058  14.208
78604SOL    HW237710  11.494   8.949  14.116
78605SOL     OW37711  10.401  12.965   9.325
78605SOL    HW137712  10.351  13.044   9.307
78605SOL    HW237713  10.349  12.894   9.288
78606SOL     OW37714  11.846  11.215   2.525
78606SOL    HW137715  11.908  11.150   2.559
78606SOL    HW237716  11.775  11.163   2.487
78607SOL     OW37717  11.224   4.236   5.610
78607SOL    HW137718  11.315   4.231   5.578
78607SOL    HW237719  11.191   4.146   5.600
78608SOL     OW37720   3.716   5.006   8.674
78608SOL    HW137721   3.767   4.938   8.720
78608SOL    HW237722   3.630   4.966   8.661
78609SOL     OW37723   1.227   3.217  10.072
78609SOL    HW137724   1.315   3.236  10.039
78609SOL    HW237725   1.169   3.259  10.009
78610SOL     OW37726  13.952   6.080   1.433
78610SOL    HW137727  13.946   5.994   1.390
78610SOL    HW237728  13.993   6.062   1.517
78611SOL     OW37729   1.149   1.076  14.386
78611SOL    HW137730   1.177   1.112  14.302
78611SOL    HW237731   1.147   1.151  14.445
78612SOL     OW37732   8.352   5.071   6.832
78612SOL    HW137733   8.322   5.053   6.743
78612SOL    HW237734   8.373   4.986   6.868
78613SOL     OW37735   5.323   9.221  14.156
78613SOL    HW137736   5.229   9.224  14.141
78613SOL    HW237737   5.335   9.150  14.219
78614SOL     OW37738  13.740   1.087  13.278
78614SOL    HW137739  13.811   1.110  13.339
78614SOL    HW237740  13.666   1.065  13.335
78615SOL     OW37741   8.885   8.041   5.476
78615SOL    HW137742   8.872   7.947   5.485
78615SOL    HW237743   8.924   8.068   5.560
78616SOL     OW37744   5.214   2.259   3.610
78616SOL    HW137745   5.247   2.330   3.556
78616SOL    HW237746   5.165   2.302   3.680
78617SOL     OW37747  11.630   3.309  12.885
78617SOL    HW137748  11.568   3.381  12.879
78617SOL    HW237749  11.590   3.238  12.835
78618SOL     OW37750  12.488  14.150   4.342
78618SOL    HW137751  12.502  14.056   4.351
78618SOL    HW237752  12.420  14.171   4.406
78619SOL     OW37753   2.131   7.504  10.320
78619SOL    HW137754   2.153   7.540  10.405
78619SOL    HW237755   2.156   7.411  10.326
78620SOL     OW37756   2.229   9.536  10.895
78620SOL    HW137757   2.256   9.608  10.838
78620SOL    HW237758   2.186   9.579  10.969
78621SOL     OW37759  10.339  10.790  13.361
78621SOL    HW137760  10.264  10.846  13.346
78621SOL    HW237761  10.329  10.759  13.451
78622SOL     OW37762  11.759   0.181   9.967
78622SOL    HW137763  11.823   0.210  10.032
78622SOL    HW237764  11.676   0.178  10.015
78623SOL     OW37765  13.730   6.123   9.247
78623SOL    HW137766  13.644   6.154   9.275
78623SOL    HW237767  13.749   6.173   9.167
78624SOL     OW37768  13.958   7.651   0.749
78624SOL    HW137769  13.971   7.662   0.654
78624SOL    HW237770  13.882   7.594   0.755
78625SOL     OW37771  14.589  10.333   3.393
78625SOL    HW137772  14.640  10.397   3.343
78625SOL    HW237773  14.605  10.355   3.485
78626SOL     OW37774  12.540   4.746   9.230
78626SOL    HW137775  12.572   4.759   9.141
78626SOL    HW237776  12.513   4.833   9.259
78627SOL     OW37777   1.887   6.308   0.163
78627SOL    HW137778   1.934   6.364   0.101
78627SOL    HW237779   1.804   6.353   0.177
78628SOL     OW37780   4.505   1.343   8.377
78628SOL    HW137781   4.588   1.350   8.422
78628SOL    HW237782   4.514   1.400   8.300
78629SOL     OW37783  10.226   1.776   7.497
78629SOL    HW137784  10.163   1.710   7.466
78629SOL    HW237785  10.189   1.859   7.468
78630SOL     OW37786  11.004   7.031  14.011
78630SOL    HW137787  10.963   7.113  13.982
78630SOL    HW237788  10.979   6.967  13.944
78631SOL     OW37789   1.495   8.568   8.133
78631SOL    HW137790   1.567   8.615   8.091
78631SOL    HW237791   1.534   8.532   8.213
78632SOL     OW37792   2.049  14.008  11.229
78632SOL    HW137793   2.111  13.968  11.168
78632SOL    HW237794   1.963  13.975  11.201
78633SOL     OW37795   9.111  13.810   4.588
78633SOL    HW137796   9.124  13.847   4.500
78633SOL    HW237797   9.046  13.741   4.575
78634SOL     OW37798  12.905  14.608  11.273
78634SOL    HW137799  12.894  14.689  11.323
78634SOL    HW237800  12.848  14.620  11.197
78635SOL     OW37801   5.028   8.690   1.045
78635SOL    HW137802   5.048   8.617   0.987
78635SOL    HW237803   4.939   8.673   1.076
78636SOL     OW37804   7.480   5.845   6.113
78636SOL    HW137805   7.451   5.814   6.199
78636SOL    HW237806   7.572   5.868   6.126
78637SOL     OW37807  12.743   9.488   9.282
78637SOL    HW137808  12.765   9.451   9.367
78637SOL    HW237809  12.827   9.493   9.236
78638SOL     OW37810   5.369  12.267  11.876
78638SOL    HW137811   5.403  12.208  11.943
78638SOL    HW237812   5.442  12.278  11.815
78639SOL     OW37813  12.350  12.371  12.439
78639SOL    HW137814  12.300  12.436  12.488
78639SOL    HW237815  12.325  12.385  12.348
78640SOL     OW37816  13.206   4.349   0.180
78640SOL    HW137817  13.258   4.292   0.123
78640SOL    HW237818  13.257   4.429   0.189
78641SOL     OW37819   8.689   9.760   3.263
78641SOL    HW137820   8.656   9.788   3.349
78641SOL    HW237821   8.637   9.811   3.200
78642SOL     OW37822   5.638  13.337  13.138
78642SOL    HW137823   5.557  13.328  13.188
78642SOL    HW237824   5.671  13.424  13.161
78643SOL     OW37825   7.307  10.965   8.059
78643SOL    HW137826   7.355  10.883   8.046
78643SOL    HW237827   7.345  11.025   7.995
78644SOL     OW37828  13.134   3.363  11.213
78644SOL    HW137829  13.172   3.298  11.153
78644SOL    HW237830  13.095   3.310  11.283
78645SOL     OW37831   4.643  13.653   2.248
78645SOL    HW137832   4.552  13.669   2.224
78645SOL    HW237833   4.647  13.560   2.268
78646SOL     OW37834   3.985   4.742   4.664
78646SOL    HW137835   3.954   4.829   4.640
78646SOL    HW237836   3.983   4.741   4.760
78647SOL     OW37837   0.331   4.232   7.332
78647SOL    HW137838   0.265   4.165   7.317
78647SOL    HW237839   0.311   4.301   7.270
78648SOL     OW37840   4.778   8.593   3.238
78648SOL    HW137841   4.836   8.654   3.192
78648SOL    HW237842   4.776   8.516   3.182
78649SOL     OW37843   4.496   8.823   7.598
78649SOL    HW137844   4.491   8.904   7.547
78649SOL    HW237845   4.550   8.845   7.674
78650SOL     OW37846  11.906   8.344   1.570
78650SOL    HW137847  11.949   8.398   1.636
78650SOL    HW237848  11.944   8.372   1.487
78651SOL     OW37849   2.412  10.449   1.104
78651SOL    HW137850   2.425  10.411   1.190
78651SOL    HW237851   2.425  10.377   1.043
78652SOL     OW37852   0.880   7.802   2.392
78652SOL    HW137853   0.929   7.741   2.336
78652SOL    HW237854   0.814   7.840   2.334
78653SOL     OW37855   0.922   8.500   0.091
78653SOL    HW137856   1.007   8.458   0.078
78653SOL    HW237857   0.858   8.430   0.076
78654SOL     OW37858   1.245   3.438   0.030
78654SOL    HW137859   1.255   3.427  14.810
78654SOL    HW237860   1.249   3.349   0.065
78655SOL     OW37861   8.756   9.409   9.110
78655SOL    HW137862   8.765   9.404   9.015
78655SOL    HW237863   8.765   9.502   9.131
78656SOL     OW37864   5.598  13.734   5.117
78656SOL    HW137865   5.637  13.702   5.198
78656SOL    HW237866   5.579  13.826   5.134
78657SOL     OW37867   9.626   7.535  12.841
78657SOL    HW137868   9.570   7.461  12.818
78657SOL    HW237869   9.579   7.580  12.910
78658SOL     OW37870   5.114   8.578  14.785
78658SOL    HW137871   5.194   8.583  14.837
78658SOL    HW237872   5.123   8.647  14.720
78659SOL     OW37873   6.161   2.443   1.059
78659SOL    HW137874   6.081   2.394   1.041
78659SOL    HW237875   6.208   2.390   1.124
78660SOL     OW37876   3.299  10.669   9.248
78660SOL    HW137877   3.292  10.576   9.268
78660SOL    HW237878   3.247  10.680   9.168
78661SOL     OW37879   2.319   3.814  13.882
78661SOL    HW137880   2.369   3.896  13.876
78661SOL    HW237881   2.364   3.755  13.822
78662SOL     OW37882   3.628  14.693   7.170
78662SOL    HW137883   3.682  14.768   7.143
78662SOL    HW237884   3.561  14.686   7.101
78663SOL     OW37885  14.163  12.320  12.921
78663SOL    HW137886  14.182  12.351  13.010
78663SOL    HW237887  14.117  12.393  12.880
78664SOL     OW37888   9.437   7.949   0.662
78664SOL    HW137889   9.473   7.914   0.743
78664SOL    HW237890   9.349   7.911   0.657
78665SOL     OW37891  13.939   2.336   5.064
78665SOL    HW137892  14.033   2.355   5.066
78665SOL    HW237893  13.934   2.241   5.075
78666SOL     OW37894   7.908   8.735   9.353
78666SOL    HW137895   7.815   8.716   9.339
78666SOL    HW237896   7.909   8.817   9.401
78667SOL     OW37897   4.803   2.862   2.349
78667SOL    HW137898   4.763   2.948   2.352
78667SOL    HW237899   4.734   2.802   2.376
78668SOL     OW37900  13.463   0.160  10.714
78668SOL    HW137901  13.376   0.123  10.730
78668SOL    HW237902  13.514   0.087  10.678
78669SOL     OW37903   8.973   9.186   2.998
78669SOL    HW137904   9.037   9.140   2.944
78669SOL    HW237905   9.023   9.220   3.072
78670SOL     OW37906   4.390   0.354   2.762
78670SOL    HW137907   4.423   0.318   2.845
78670SOL    HW237908   4.365   0.444   2.783
78671SOL     OW37909  10.149   2.618   6.453
78671SOL    HW137910  10.220   2.555   6.453
78671SOL    HW237911  10.088   2.585   6.387
78672SOL     OW37912  11.733   7.482  11.057
78672SOL    HW137913  11.803   7.519  11.003
78672SOL    HW237914  11.761   7.497  11.147
78673SOL     OW37915   5.043   3.909  10.324
78673SOL    HW137916   4.954   3.881  10.306
78673SOL    HW237917   5.078   3.936  10.240
78674SOL     OW37918  12.869   1.421  12.510
78674SOL    HW137919  12.781   1.453  12.487
78674SOL    HW237920  12.868   1.412  12.605
78675SOL     OW37921   3.593   6.117   7.917
78675SOL    HW137922   3.650   6.186   7.950
78675SOL    HW237923   3.523   6.164   7.870
78676SOL     OW37924  12.122   1.331   9.384
78676SOL    HW137925  12.214   1.352   9.399
78676SOL    HW237926  12.095   1.281   9.461
78677SOL     OW37927   3.992   1.864   9.878
78677SOL    HW137928   4.061   1.798   9.876
78677SOL    HW237929   4.039   1.948   9.874
78678SOL     OW37930   6.233   2.143   8.258
78678SOL    HW137931   6.310   2.193   8.283
78678SOL    HW237932   6.180   2.205   8.206
78679SOL     OW37933   5.402   2.745  14.026
78679SOL    HW137934   5.310   2.718  14.033
78679SOL    HW237935   5.398   2.835  13.995
78680SOL     OW37936  11.996  14.386   5.003
78680SOL    HW137937  12.007  14.310   5.060
78680SOL    HW237938  11.962  14.454   5.061
78681SOL     OW37939  10.179  14.782  10.459
78681SOL    HW137940  10.113  14.837  10.418
78681SOL    HW237941  10.195  14.711  10.397
78682SOL     OW37942   1.321  13.102   8.164
78682SOL    HW137943   1.363  13.187   8.178
78682SOL    HW237944   1.393  13.044   8.140
78683SOL     OW37945  13.138  10.984   2.786
78683SOL    HW137946  13.087  10.941   2.854
78683SOL    HW237947  13.134  10.924   2.711
78684SOL     OW37948  11.655   4.601  11.624
78684SOL    HW137949  11.597   4.552  11.565
78684SOL    HW237950  11.699   4.664  11.567
78685SOL     OW37951   7.113   8.305   3.376
78685SOL    HW137952   7.061   8.258   3.442
78685SOL    HW237953   7.204   8.288   3.401
78686SOL     OW37954   3.692   1.795  13.337
78686SOL    HW137955   3.744   1.874  13.351
78686SOL    HW237956   3.624   1.798  13.405
78687SOL     OW37957  12.741   2.865  13.038
78687SOL    HW137958  12.695   2.844  12.957
78687SOL    HW237959  12.824   2.903  13.010
78688SOL     OW37960  13.522   3.592  11.585
78688SOL    HW137961  13.581   3.648  11.533
78688SOL    HW237962  13.557   3.504  11.575
78689SOL     OW37963   5.490   9.924  13.209
78689SOL    HW137964   5.465  10.013  13.186
78689SOL    HW237965   5.419   9.893  13.265
78690SOL     OW37966   4.157   2.922   1.966
78690SOL    HW137967   4.128   2.992   1.907
78690SOL    HW237968   4.080   2.867   1.976
78691SOL     OW37969   2.215  13.740   8.695
78691SOL    HW137970   2.302  13.779   8.684
78691SOL    HW237971   2.228  13.672   8.761
78692SOL     OW37972   6.953   9.248  13.010
78692SOL    HW137973   6.929   9.333  12.973
78692SOL    HW237974   7.042   9.261  13.042
78693SOL     OW37975  12.847   6.441  11.931
78693SOL    HW137976  12.900   6.420  12.008
78693SOL    HW237977  12.813   6.529  11.948
78694SOL     OW37978   9.804   6.455   5.762
78694SOL    HW137979   9.822   6.546   5.783
78694SOL    HW237980   9.766   6.418   5.842
78695SOL     OW37981   0.896   2.167   2.343
78695SOL    HW137982   0.963   2.156   2.411
78695SOL    HW237983   0.814   2.177   2.392
78696SOL     OW37984   9.951   9.768   0.822
78696SOL    HW137985   9.858   9.747   0.817
78696SOL    HW237986   9.987   9.703   0.883
78697SOL     OW37987   5.561   0.798  10.046
78697SOL    HW137988   5.467   0.797  10.062
78697SOL    HW237989   5.597   0.735  10.108
78698SOL     OW37990   3.438   0.874   0.466
78698SOL    HW137991   3.451   0.785   0.435
78698SOL    HW237992   3.343   0.883   0.476
78699SOL     OW37993  14.644   5.014   6.428
78699SOL    HW137994  14.669   5.104   6.448
78699SOL    HW237995  14.723   4.963   6.448
78700SOL     OW37996   1.675   1.456  12.990
78700SOL    HW137997   1.718   1.394  13.049
78700SOL    HW237998   1.611   1.501  13.045
78701SOL     OW37999   7.898   9.133   1.261
78701SOL    HW138000   7.914   9.146   1.168
78701SOL    HW238001   7.964   9.187   1.305
78702SOL     OW38002   1.335   5.108   9.856
78702SOL    HW138003   1.261   5.090   9.912
78702SOL    HW238004   1.315   5.192   9.815
78703SOL     OW38005  10.232   7.004  11.034
78703SOL    HW138006  10.218   6.988  10.941
78703SOL    HW238007  10.289   6.932  11.062
78704SOL     OW38008   0.934   5.813   2.844
78704SOL    HW138009   0.866   5.755   2.811
78704SOL    HW238010   0.892   5.899   2.851
78705SOL     OW38011   2.265  12.403  13.555
78705SOL    HW138012   2.324  12.374  13.486
78705SOL    HW238013   2.298  12.490  13.579
78706SOL     OW38014  12.083  12.669  10.754
78706SOL    HW138015  12.041  12.667  10.840
78706SOL    HW238016  12.017  12.706  10.695
78707SOL     OW38017  14.081   2.649  14.729
78707SOL    HW138018  13.992   2.614  14.740
78707SOL    HW238019  14.068   2.735  14.688
78708SOL     OW38020  10.538  11.202   4.538
78708SOL    HW138021  10.614  11.147   4.518
78708SOL    HW238022  10.573  11.291   4.539
78709SOL     OW38023   7.714  10.981   8.202
78709SOL    HW138024   7.783  10.928   8.242
78709SOL    HW238025   7.731  11.070   8.234
78710SOL     OW38026   5.104   0.629   3.828
78710SOL    HW138027   5.066   0.646   3.742
78710SOL    HW238028   5.178   0.571   3.811
78711SOL     OW38029   4.539   2.704   6.804
78711SOL    HW138030   4.552   2.755   6.885
78711SOL    HW238031   4.626   2.670   6.783
78712SOL     OW38032  13.671   6.278   7.547
78712SOL    HW138033  13.755   6.313   7.519
78712SOL    HW238034  13.622   6.354   7.578
78713SOL     OW38035  13.484  11.851   7.052
78713SOL    HW138036  13.577  11.867   7.068
78713SOL    HW238037  13.439  11.926   7.089
78714SOL     OW38038  13.209  12.462   7.404
78714SOL    HW138039  13.174  12.438   7.490
78714SOL    HW238040  13.299  12.430   7.405
78715SOL     OW38041  13.212   7.978  12.461
78715SOL    HW138042  13.146   7.979  12.392
78715SOL    HW238043  13.163   7.960  12.541
78716SOL     OW38044   8.615  10.234   7.734
78716SOL    HW138045   8.662  10.186   7.666
78716SOL    HW238046   8.673  10.232   7.810
78717SOL     OW38047  13.693   1.912   8.951
78717SOL    HW138048  13.676   1.986   8.893
78717SOL    HW238049  13.782   1.927   8.983
78718SOL     OW38050  13.748   8.431  14.794
78718SOL    HW138051  13.726   8.523  14.803
78718SOL    HW238052  13.795   8.426  14.710
78719SOL     OW38053   3.274  12.125   9.009
78719SOL    HW138054   3.326  12.067   8.953
78719SOL    HW238055   3.190  12.132   8.965
78720SOL     OW38056   3.016   1.654   9.084
78720SOL    HW138057   2.960   1.608   9.021
78720SOL    HW238058   3.042   1.586   9.146
78721SOL     OW38059  12.726   1.210   3.261
78721SOL    HW138060  12.747   1.117   3.255
78721SOL    HW238061  12.674   1.218   3.340
78722SOL     OW38062   3.997   3.988  13.913
78722SOL    HW138063   3.982   3.951  13.826
78722SOL    HW238064   3.973   3.918  13.973
78723SOL     OW38065  14.134   1.794  11.496
78723SOL    HW138066  14.210   1.737  11.501
78723SOL    HW238067  14.161   1.874  11.542
78724SOL     OW38068  14.414  11.508   3.671
78724SOL    HW138069  14.328  11.539   3.642
78724SOL    HW238070  14.431  11.558   3.751
78725SOL     OW38071   7.253   0.253   9.696
78725SOL    HW138072   7.319   0.311   9.735
78725SOL    HW238073   7.270   0.167   9.734
78726SOL     OW38074   7.645   0.218   2.283
78726SOL    HW138075   7.571   0.191   2.229
78726SOL    HW238076   7.710   0.148   2.271
78727SOL     OW38077   4.434  10.667   4.682
78727SOL    HW138078   4.508  10.728   4.687
78727SOL    HW238079   4.365  10.709   4.734
78728SOL     OW38080   8.380  11.787   9.332
78728SOL    HW138081   8.464  11.796   9.376
78728SOL    HW238082   8.346  11.877   9.326
78729SOL     OW38083   3.010   7.965  13.471
78729SOL    HW138084   3.053   8.048  13.451
78729SOL    HW238085   3.080   7.908  13.502
78730SOL     OW38086  13.257  12.602   6.603
78730SOL    HW138087  13.341  12.563   6.577
78730SOL    HW238088  13.224  12.545   6.672
78731SOL     OW38089   5.393  12.972   7.885
78731SOL    HW138090   5.299  12.972   7.905
78731SOL    HW238091   5.398  12.981   7.790
78732SOL     OW38092  12.196  11.120   6.660
78732SOL    HW138093  12.248  11.090   6.585
78732SOL    HW238094  12.136  11.185   6.622
78733SOL     OW38095  12.318  13.801  13.632
78733SOL    HW138096  12.310  13.747  13.553
78733SOL    HW238097  12.299  13.740  13.704
78734SOL     OW38098  10.530   4.200   2.642
78734SOL    HW138099  10.569   4.173   2.726
78734SOL    HW238100  10.594   4.261   2.605
78735SOL     OW38101   8.913  11.985   3.439
78735SOL    HW138102   8.935  12.061   3.384
78735SOL    HW238103   8.872  11.923   3.379
78736SOL     OW38104   7.786   6.114   1.065
78736SOL    HW138105   7.731   6.036   1.073
78736SOL    HW238106   7.861   6.096   1.121
78737SOL     OW38107   8.966   9.977  13.213
78737SOL    HW138108   8.991  10.034  13.140
78737SOL    HW238109   8.974  10.033  13.291
78738SOL     OW38110   6.042   6.178  11.967
78738SOL    HW138111   6.098   6.187  11.889
78738SOL    HW238112   6.009   6.089  11.963
78739SOL     OW38113   4.122  12.730  12.136
78739SOL    HW138114   4.179  12.663  12.099
78739SOL    HW238115   4.048  12.682  12.173
78740SOL     OW38116   6.749   8.066   1.779
78740SOL    HW138117   6.685   8.011   1.823
78740SOL    HW238118   6.697   8.121   1.720
78741SOL     OW38119   4.622   8.453   8.801
78741SOL    HW138120   4.629   8.358   8.811
78741SOL    HW238121   4.579   8.464   8.716
78742SOL     OW38122   9.451  11.914   8.522
78742SOL    HW138123   9.397  11.911   8.600
78742SOL    HW238124   9.528  11.965   8.548
78743SOL     OW38125   0.842   5.570   0.558
78743SOL    HW138126   0.767   5.597   0.612
78743SOL    HW238127   0.803   5.518   0.487
78744SOL     OW38128   7.156   0.876   6.899
78744SOL    HW138129   7.182   0.951   6.846
78744SOL    HW238130   7.181   0.899   6.988
78745SOL     OW38131   2.719   5.126   0.603
78745SOL    HW138132   2.723   5.221   0.613
78745SOL    HW238133   2.747   5.110   0.513
78746SOL     OW38134  10.498   0.761   0.797
78746SOL    HW138135  10.410   0.783   0.827
78746SOL    HW238136  10.519   0.831   0.734
78747SOL     OW38137   4.110  12.301   3.733
78747SOL    HW138138   4.127  12.366   3.664
78747SOL    HW238139   4.014  12.295   3.736
78748SOL     OW38140  10.254   4.840  14.788
78748SOL    HW138141  10.273   4.929  14.819
78748SOL    HW238142  10.337   4.793  14.800
78749SOL     OW38143   9.903  12.125   8.156
78749SOL    HW138144   9.863  12.039   8.173
78749SOL    HW238145   9.841  12.188   8.193
78750SOL     OW38146   8.797   5.606  14.788
78750SOL    HW138147   8.738   5.670  14.828
78750SOL    HW238148   8.809   5.539  14.855
78751SOL     OW38149  10.290   3.640  14.628
78751SOL    HW138150  10.329   3.725  14.606
78751SOL    HW238151  10.209   3.661  14.674
78752SOL     OW38152  10.950   9.097  10.240
78752SOL    HW138153  10.992   9.178  10.213
78752SOL    HW238154  10.962   9.095  10.335
78753SOL     OW38155   1.248  10.068   2.881
78753SOL    HW138156   1.312  10.108   2.822
78753SOL    HW238157   1.290  10.071   2.967
78754SOL     OW38158  10.048   8.409   3.595
78754SOL    HW138159   9.999   8.491   3.605
78754SOL    HW238160  10.139   8.435   3.605
78755SOL     OW38161  11.657   9.325   7.896
78755SOL    HW138162  11.610   9.310   7.814
78755SOL    HW238163  11.619   9.262   7.957
78756SOL     OW38164   9.487   4.889   3.355
78756SOL    HW138165   9.561   4.832   3.378
78756SOL    HW238166   9.445   4.908   3.439
78757SOL     OW38167   8.236   7.196  12.943
78757SOL    HW138168   8.301   7.205  13.013
78757SOL    HW238169   8.154   7.222  12.983
78758SOL     OW38170   6.266   6.791  12.175
78758SOL    HW138171   6.346   6.739  12.170
78758SOL    HW238172   6.198   6.728  12.201
78759SOL     OW38173   6.876  13.967   9.612
78759SOL    HW138174   6.807  13.904   9.632
78759SOL    HW238175   6.919  13.931   9.535
78760SOL     OW38176   9.589  10.792   7.672
78760SOL    HW138177   9.564  10.814   7.582
78760SOL    HW238178   9.526  10.839   7.727
78761SOL     OW38179   8.542   8.121  11.611
78761SOL    HW138180   8.579   8.142  11.697
78761SOL    HW238181   8.518   8.029  11.617
78762SOL     OW38182   4.719  11.636   1.604
78762SOL    HW138183   4.751  11.721   1.633
78762SOL    HW238184   4.627  11.651   1.581
78763SOL     OW38185   1.724   5.142   8.713
78763SOL    HW138186   1.734   5.066   8.656
78763SOL    HW238187   1.631   5.164   8.708
78764SOL     OW38188   3.420   6.155   0.801
78764SOL    HW138189   3.378   6.178   0.718
78764SOL    HW238190   3.363   6.088   0.838
78765SOL     OW38191  11.107   1.141  10.510
78765SOL    HW138192  11.043   1.105  10.571
78765SOL    HW238193  11.180   1.168  10.565
78766SOL     OW38194  13.427  11.509  13.242
78766SOL    HW138195  13.452  11.491  13.333
78766SOL    HW238196  13.484  11.453  13.190
78767SOL     OW38197  14.443  13.898   6.460
78767SOL    HW138198  14.510  13.949   6.505
78767SOL    HW238199  14.363  13.916   6.508
78768SOL     OW38200  11.953   4.629   0.498
78768SOL    HW138201  11.858   4.638   0.511
78768SOL    HW238202  11.977   4.550   0.547
78769SOL     OW38203  14.042   9.946   4.295
78769SOL    HW138204  14.008   9.914   4.379
78769SOL    HW238205  13.980   9.913   4.230
78770SOL     OW38206   3.465   5.358   5.891
78770SOL    HW138207   3.484   5.292   5.825
78770SOL    HW238208   3.414   5.312   5.957
78771SOL     OW38209   1.590   8.403   9.206
78771SOL    HW138210   1.533   8.425   9.132
78771SOL    HW238211   1.563   8.462   9.276
78772SOL     OW38212   4.361   4.788   7.742
78772SOL    HW138213   4.364   4.819   7.833
78772SOL    HW238214   4.343   4.695   7.749
78773SOL     OW38215  14.151  14.790   7.838
78773SOL    HW138216  14.194  14.875   7.823
78773SOL    HW238217  14.189  14.732   7.772
78774SOL     OW38218   9.916   5.576  14.217
78774SOL    HW138219   9.871   5.502  14.258
78774SOL    HW238220  10.003   5.543  14.195
78775SOL     OW38221   4.959   4.743  14.017
78775SOL    HW138222   5.046   4.775  13.993
78775SOL    HW238223   4.930   4.802  14.086
78776SOL     OW38224   9.219   2.576   2.754
78776SOL    HW138225   9.315   2.571   2.747
78776SOL    HW238226   9.191   2.618   2.673
78777SOL     OW38227  10.188   3.796   9.445
78777SOL    HW138228  10.175   3.890   9.457
78777SOL    HW238229  10.170   3.758   9.531
78778SOL     OW38230   8.719   4.263   5.629
78778SOL    HW138231   8.685   4.342   5.589
78778SOL    HW238232   8.643   4.221   5.668
78779SOL     OW38233  13.462  14.857   9.899
78779SOL    HW138234  13.536  14.849   9.959
78779SOL    HW238235  13.486  14.803   9.823
78780SOL     OW38236  13.435   5.208  11.651
78780SOL    HW138237  13.490   5.220  11.574
78780SOL    HW238238  13.354   5.168  11.616
78781SOL     OW38239   1.717   1.227   2.822
78781SOL    HW138240   1.806   1.244   2.794
78781SOL    HW238241   1.663   1.288   2.772
78782SOL     OW38242   5.250   0.622  11.269
78782SOL    HW138243   5.181   0.562  11.296
78782SOL    HW238244   5.312   0.568  11.221
78783SOL     OW38245   4.322  12.216  10.091
78783SOL    HW138246   4.303  12.310  10.087
78783SOL    HW238247   4.276  12.179  10.016
78784SOL     OW38248   9.798   3.659  13.771
78784SOL    HW138249   9.850   3.734  13.799
78784SOL    HW238250   9.856   3.584  13.782
78785SOL     OW38251  10.894   5.876   9.112
78785SOL    HW138252  10.975   5.877   9.061
78785SOL    HW238253  10.824   5.872   9.046
78786SOL     OW38254   5.451   2.236   2.467
78786SOL    HW138255   5.401   2.316   2.448
78786SOL    HW238256   5.408   2.199   2.544
78787SOL     OW38257  11.184   7.489   5.204
78787SOL    HW138258  11.222   7.503   5.117
78787SOL    HW238259  11.181   7.394   5.214
78788SOL     OW38260   2.249   8.992  10.910
78788SOL    HW138261   2.289   9.057  10.852
78788SOL    HW238262   2.234   9.040  10.992
78789SOL     OW38263   6.476   8.487   4.812
78789SOL    HW138264   6.483   8.428   4.887
78789SOL    HW238265   6.409   8.447   4.757
78790SOL     OW38266   1.190   3.232   8.897
78790SOL    HW138267   1.144   3.244   8.980
78790SOL    HW238268   1.245   3.155   8.911
78791SOL     OW38269   6.670   5.220   7.413
78791SOL    HW138270   6.656   5.152   7.347
78791SOL    HW238271   6.755   5.259   7.390
78792SOL     OW38272  12.814  12.678   4.929
78792SOL    HW138273  12.832  12.675   5.023
78792SOL    HW238274  12.796  12.770   4.910
78793SOL     OW38275   4.000   8.293   0.471
78793SOL    HW138276   4.056   8.280   0.394
78793SOL    HW238277   4.049   8.356   0.525
78794SOL     OW38278   0.477   1.592   0.929
78794SOL    HW138279   0.387   1.621   0.946
78794SOL    HW238280   0.509   1.562   1.013
78795SOL     OW38281   0.230   6.196   4.068
78795SOL    HW138282   0.209   6.169   3.978
78795SOL    HW238283   0.244   6.114   4.115
78796SOL     OW38284  13.638   1.871   8.482
78796SOL    HW138285  13.661   1.863   8.389
78796SOL    HW238286  13.722   1.883   8.526
78797SOL     OW38287   8.165   2.871   9.010
78797SOL    HW138288   8.148   2.922   8.931
78797SOL    HW238289   8.200   2.934   9.073
78798SOL     OW38290   3.408   9.343   6.343
78798SOL    HW138291   3.487   9.344   6.397
78798SOL    HW238292   3.426   9.406   6.273
78799SOL     OW38293   1.204   9.731   9.322
78799SOL    HW138294   1.161   9.783   9.391
78799SOL    HW238295   1.254   9.795   9.272
78800SOL     OW38296   4.005  11.288   1.650
78800SOL    HW138297   4.067  11.282   1.577
78800SOL    HW238298   4.059  11.305   1.726
78801SOL     OW38299   1.890   8.444   6.890
78801SOL    HW138300   1.981   8.417   6.906
78801SOL    HW238301   1.852   8.372   6.839
78802SOL     OW38302   3.157   4.208   9.170
78802SOL    HW138303   3.226   4.259   9.212
78802SOL    HW238304   3.157   4.238   9.079
78803SOL     OW38305   5.785   2.840   1.728
78803SOL    HW138306   5.842   2.887   1.788
78803SOL    HW238307   5.803   2.747   1.745
78804SOL     OW38308   6.198   2.365  13.004
78804SOL    HW138309   6.234   2.292  13.055
78804SOL    HW238310   6.182   2.434  13.068
78805SOL     OW38311   2.335   8.243   1.047
78805SOL    HW138312   2.281   8.280   0.977
78805SOL    HW238313   2.383   8.318   1.082
78806SOL     OW38314  13.712   5.089   4.499
78806SOL    HW138315  13.679   5.155   4.439
78806SOL    HW238316  13.684   5.006   4.462
78807SOL     OW38317   3.464   3.530  12.034
78807SOL    HW138318   3.378   3.488  12.039
78807SOL    HW238319   3.447   3.614  11.990
78808SOL     OW38320   7.672   0.372   0.865
78808SOL    HW138321   7.585   0.347   0.897
78808SOL    HW238322   7.665   0.366   0.770
78809SOL     OW38323  12.733   4.335   5.942
78809SOL    HW138324  12.640   4.311   5.946
78809SOL    HW238325  12.737   4.422   5.982
78810SOL     OW38326  10.369   1.694   7.731
78810SOL    HW138327  10.326   1.699   7.646
78810SOL    HW238328  10.305   1.731   7.792
78811SOL     OW38329   6.082  12.367   5.737
78811SOL    HW138330   6.003  12.419   5.724
78811SOL    HW238331   6.154  12.426   5.718
78812SOL     OW38332   4.083   8.477  11.561
78812SOL    HW138333   4.094   8.427  11.480
78812SOL    HW238334   4.149   8.546  11.555
78813SOL     OW38335   8.230   6.648  13.333
78813SOL    HW138336   8.203   6.599  13.255
78813SOL    HW238337   8.200   6.595  13.407
78814SOL     OW38338   3.649   4.553  13.451
78814SOL    HW138339   3.740   4.539  13.424
78814SOL    HW238340   3.652   4.632  13.504
78815SOL     OW38341  10.830   2.848   7.302
78815SOL    HW138342  10.803   2.848   7.394
78815SOL    HW238343  10.916   2.889   7.302
78816SOL     OW38344  11.493  14.760   5.780
78816SOL    HW138345  11.519  14.733   5.692
78816SOL    HW238346  11.570  14.806   5.814
78817SOL     OW38347  11.138   7.966   6.247
78817SOL    HW138348  11.214   8.024   6.240
78817SOL    HW238349  11.121   7.959   6.341
78818SOL     OW38350  10.744   9.851   7.024
78818SOL    HW138351  10.763   9.781   7.086
78818SOL    HW238352  10.696   9.916   7.075
78819SOL     OW38353   1.846  13.480   5.282
78819SOL    HW138354   1.822  13.568   5.310
78819SOL    HW238355   1.823  13.478   5.189
78820SOL     OW38356  12.444   3.342   4.934
78820SOL    HW138357  12.527   3.324   4.891
78820SOL    HW238358  12.381   3.352   4.863
78821SOL     OW38359  12.957   2.435   3.412
78821SOL    HW138360  13.021   2.371   3.441
78821SOL    HW238361  12.936   2.410   3.322
78822SOL     OW38362   8.097   4.105  12.591
78822SOL    HW138363   8.056   4.020  12.605
78822SOL    HW238364   8.141   4.124  12.674
78823SOL     OW38365  10.341  13.373   5.841
78823SOL    HW138366  10.338  13.380   5.937
78823SOL    HW238367  10.420  13.421   5.816
78824SOL     OW38368   0.247   6.164   6.172
78824SOL    HW138369   0.171   6.215   6.198
78824SOL    HW238370   0.261   6.188   6.080
78825SOL     OW38371   5.220   5.027   0.302
78825SOL    HW138372   5.238   5.021   0.396
78825SOL    HW238373   5.166   4.950   0.283
78826SOL     OW38374  11.208   8.615   0.148
78826SOL    HW138375  11.261   8.677   0.199
78826SOL    HW238376  11.119   8.649   0.155
78827SOL     OW38377  11.378   0.020  10.627
78827SOL    HW138378  11.448   0.073  10.664
78827SOL    HW238379  11.352   0.067  10.547
78828SOL     OW38380   1.855   0.132  10.250
78828SOL    HW138381   1.796   0.068  10.210
78828SOL    HW238382   1.834   0.130  10.343
78829SOL     OW38383  11.993  14.692   3.351
78829SOL    HW138384  11.995  14.617   3.409
78829SOL    HW238385  12.063  14.749   3.383
78830SOL     OW38386  11.681   8.324   9.264
78830SOL    HW138387  11.644   8.341   9.177
78830SOL    HW238388  11.605   8.328   9.323
78831SOL     OW38389   8.784  14.575   6.419
78831SOL    HW138390   8.730  14.559   6.496
78831SOL    HW238391   8.735  14.539   6.346
78832SOL     OW38392   8.972  13.524   7.378
78832SOL    HW138393   8.883  13.553   7.396
78832SOL    HW238394   9.027  13.590   7.421
78833SOL     OW38395   4.068  11.301   2.115
78833SOL    HW138396   4.054  11.322   2.207
78833SOL    HW238397   4.023  11.218   2.102
78834SOL     OW38398   5.650  13.769   7.519
78834SOL    HW138399   5.698  13.686   7.523
78834SOL    HW238400   5.565  13.750   7.559
78835SOL     OW38401   1.971  13.342   4.727
78835SOL    HW138402   1.930  13.428   4.732
78835SOL    HW238403   2.013  13.330   4.812
78836SOL     OW38404   6.010  13.204   2.985
78836SOL    HW138405   5.960  13.209   3.067
78836SOL    HW238406   6.101  13.201   3.014
78837SOL     OW38407  11.463  10.181  12.219
78837SOL    HW138408  11.456  10.176  12.123
78837SOL    HW238409  11.518  10.107  12.243
78838SOL     OW38410   0.421   3.901   7.579
78838SOL    HW138411   0.338   3.918   7.533
78838SOL    HW238412   0.415   3.809   7.605
78839SOL     OW38413   2.622   8.671  12.846
78839SOL    HW138414   2.605   8.674  12.940
78839SOL    HW238415   2.538   8.645  12.808
78840SOL     OW38416  13.602   5.296   7.116
78840SOL    HW138417  13.648   5.234   7.173
78840SOL    HW238418  13.537   5.337   7.173
78841SOL     OW38419  11.828   5.253  13.406
78841SOL    HW138420  11.889   5.220  13.340
78841SOL    HW238421  11.745   5.210  13.386
78842SOL     OW38422   7.334   2.149   4.505
78842SOL    HW138423   7.361   2.057   4.503
78842SOL    HW238424   7.406   2.196   4.464
78843SOL     OW38425   9.263   3.431  12.238
78843SOL    HW138426   9.289   3.343  12.267
78843SOL    HW238427   9.273   3.486  12.316
78844SOL     OW38428   4.958   8.965   5.895
78844SOL    HW138429   4.925   9.008   5.974
78844SOL    HW238430   4.881   8.925   5.855
78845SOL     OW38431   7.863   0.881   5.105
78845SOL    HW138432   7.891   0.972   5.093
78845SOL    HW238433   7.771   0.887   5.129
78846SOL     OW38434   3.288  11.172   8.257
78846SOL    HW138435   3.269  11.149   8.166
78846SOL    HW238436   3.247  11.103   8.309
78847SOL     OW38437   8.499   9.646   8.054
78847SOL    HW138438   8.502   9.625   8.148
78847SOL    HW238439   8.415   9.611   8.025
78848SOL     OW38440  10.383  14.708   5.069
78848SOL    HW138441  10.311  14.659   5.031
78848SOL    HW238442  10.350  14.798   5.076
78849SOL     OW38443  13.222   8.489  12.455
78849SOL    HW138444  13.242   8.404  12.494
78849SOL    HW238445  13.241   8.478  12.362
78850SOL     OW38446   2.769   4.405   1.706
78850SOL    HW138447   2.730   4.349   1.639
78850SOL    HW238448   2.751   4.359   1.789
78851SOL     OW38449   8.370   5.576   7.067
78851SOL    HW138450   8.278   5.554   7.082
78851SOL    HW238451   8.417   5.495   7.085
78852SOL     OW38452  10.268   3.357   6.854
78852SOL    HW138453  10.179   3.326   6.841
78852SOL    HW238454  10.258   3.439   6.902
78853SOL     OW38455   4.770   0.601   4.346
78853SOL    HW138456   4.765   0.673   4.408
78853SOL    HW238457   4.798   0.642   4.264
78854SOL     OW38458   9.584   4.663   1.355
78854SOL    HW138459   9.657   4.654   1.417
78854SOL    HW238460   9.580   4.757   1.337
78855SOL     OW38461   0.964  11.873   1.441
78855SOL    HW138462   0.902  11.939   1.408
78855SOL    HW238463   0.964  11.805   1.373
78856SOL     OW38464  12.583  13.992   1.462
78856SOL    HW138465  12.663  13.971   1.413
78856SOL    HW238466  12.584  13.932   1.536
78857SOL     OW38467   8.815  11.766   5.719
78857SOL    HW138468   8.856  11.752   5.805
78857SOL    HW238469   8.776  11.681   5.698
78858SOL     OW38470  14.758  13.697   5.279
78858SOL    HW138471  14.812  13.775   5.268
78858SOL    HW238472  14.753  13.660   5.191
78859SOL     OW38473   2.821   5.668   4.118
78859SOL    HW138474   2.839   5.739   4.180
78859SOL    HW238475   2.883   5.599   4.141
78860SOL     OW38476   7.205   5.946   4.418
78860SOL    HW138477   7.178   5.874   4.362
78860SOL    HW238478   7.133   6.009   4.413
78861SOL     OW38479   2.287  12.879   1.752
78861SOL    HW138480   2.379  12.860   1.738
78861SOL    HW238481   2.261  12.820   1.823
78862SOL     OW38482   6.172   8.348   1.842
78862SOL    HW138483   6.134   8.279   1.896
78862SOL    HW238484   6.258   8.365   1.881
78863SOL     OW38485  12.501   5.107  12.190
78863SOL    HW138486  12.433   5.041  12.174
78863SOL    HW238487  12.453   5.184  12.221
78864SOL     OW38488   5.602  11.054   9.932
78864SOL    HW138489   5.635  10.984   9.988
78864SOL    HW238490   5.635  11.033   9.845
78865SOL     OW38491  12.663   3.649  11.509
78865SOL    HW138492  12.738   3.619  11.458
78865SOL    HW238493  12.610   3.571  11.523
78866SOL     OW38494  12.318   6.713   1.531
78866SOL    HW138495  12.250   6.654   1.561
78866SOL    HW238496  12.339   6.767   1.607
78867SOL     OW38497  11.538   9.216   7.156
78867SOL    HW138498  11.524   9.267   7.236
78867SOL    HW238499  11.575   9.279   7.093
78868SOL     OW38500   7.623   1.050   0.003
78868SOL    HW138501   7.625   1.004   0.087
78868SOL    HW238502   7.678   0.997  14.820
78869SOL     OW38503  12.697   3.314   4.842
78869SOL    HW138504  12.791   3.328   4.853
78869SOL    HW238505  12.668   3.388   4.787
78870SOL     OW38506   7.217   2.246   5.094
78870SOL    HW138507   7.220   2.152   5.112
78870SOL    HW238508   7.301   2.279   5.127
78871SOL     OW38509   5.649   5.131  13.062
78871SOL    HW138510   5.582   5.094  13.004
78871SOL    HW238511   5.668   5.060  13.124
78872SOL     OW38512   6.179  14.159   6.886
78872SOL    HW138513   6.248  14.146   6.951
78872SOL    HW238514   6.108  14.101   6.913
78873SOL     OW38515   2.576  13.837   7.613
78873SOL    HW138516   2.640  13.766   7.611
78873SOL    HW238517   2.493  13.796   7.590
78874SOL     OW38518   5.394   3.621   1.730
78874SOL    HW138519   5.462   3.564   1.765
78874SOL    HW238520   5.356   3.572   1.657
78875SOL     OW38521   3.139   4.632   4.505
78875SOL    HW138522   3.107   4.722   4.514
78875SOL    HW238523   3.065   4.577   4.528
78876SOL     OW38524   4.491   4.193  14.763
78876SOL    HW138525   4.412   4.155  14.725
78876SOL    HW238526   4.563   4.155  14.713
78877SOL     OW38527   7.049  14.434   4.275
78877SOL    HW138528   7.013  14.492   4.208
78877SOL    HW238529   6.991  14.445   4.350
78878SOL     OW38530   5.122   0.110   1.492
78878SOL    HW138531   5.164   0.189   1.524
78878SOL    HW238532   5.042   0.102   1.545
78879SOL     OW38533  14.374   7.694   8.502
78879SOL    HW138534  14.416   7.708   8.417
78879SOL    HW238535  14.281   7.702   8.484
78880SOL     OW38536   2.280  13.768  13.054
78880SOL    HW138537   2.350  13.712  13.021
78880SOL    HW238538   2.273  13.745  13.147
78881SOL     OW38539  14.539  14.866   1.679
78881SOL    HW138540  14.504  14.791   1.728
78881SOL    HW238541  14.632  14.846   1.667
78882SOL     OW38542   2.773   1.722   6.603
78882SOL    HW138543   2.766   1.777   6.525
78882SOL    HW238544   2.694   1.668   6.603
78883SOL     OW38545   9.855   0.197  12.109
78883SOL    HW138546   9.822   0.223  12.023
78883SOL    HW238547   9.803   0.121  12.133
78884SOL     OW38548   9.500   1.920   5.385
78884SOL    HW138549   9.488   2.013   5.365
78884SOL    HW238550   9.429   1.898   5.445
78885SOL     OW38551  13.715   3.563   6.118
78885SOL    HW138552  13.677   3.607   6.194
78885SOL    HW238553  13.754   3.483   6.154
78886SOL     OW38554   2.931   9.666   9.675
78886SOL    HW138555   2.987   9.716   9.736
78886SOL    HW238556   2.842   9.680   9.707
78887SOL     OW38557  13.351  12.935   4.483
78887SOL    HW138558  13.425  12.985   4.448
78887SOL    HW238559  13.364  12.846   4.449
78888SOL     OW38560   9.673  13.357  11.073
78888SOL    HW138561   9.761  13.367  11.110
78888SOL    HW238562   9.656  13.440  11.029
78889SOL     OW38563   9.080   6.625  13.567
78889SOL    HW138564   9.126   6.556  13.519
78889SOL    HW238565   9.082   6.700  13.508
78890SOL     OW38566  12.898   1.988   6.186
78890SOL    HW138567  12.819   1.982   6.134
78890SOL    HW238568  12.963   2.029   6.128
78891SOL     OW38569   0.032   0.625  13.020
78891SOL    HW138570  14.851   0.625  13.098
78891SOL    HW238571   0.054   0.533  13.007
78892SOL     OW38572  11.246   7.450   2.230
78892SOL    HW138573  11.339   7.442   2.208
78892SOL    HW238574  11.244   7.506   2.307
78893SOL     OW38575   6.504   5.571  10.341
78893SOL    HW138576   6.506   5.503  10.408
78893SOL    HW238577   6.518   5.653  10.388
78894SOL     OW38578  14.509   1.440   9.491
78894SOL    HW138579  14.485   1.410   9.404
78894SOL    HW238580  14.429   1.431   9.543
78895SOL     OW38581   3.052   3.752   0.570
78895SOL    HW138582   2.971   3.800   0.587
78895SOL    HW238583   3.054   3.685   0.639
78896SOL     OW38584   5.503   8.060  13.362
78896SOL    HW138585   5.419   8.015  13.362
78896SOL    HW238586   5.518   8.082  13.454
78897SOL     OW38587  14.750   6.748  11.599
78897SOL    HW138588  14.730   6.655  11.591
78897SOL    HW238589  14.697   6.778  11.673
78898SOL     OW38590   2.548   6.455  13.085
78898SOL    HW138591   2.567   6.517  13.015
78898SOL    HW238592   2.502   6.506  13.151
78899SOL     OW38593  11.863  12.827   0.359
78899SOL    HW138594  11.805  12.895   0.326
78899SOL    HW238595  11.806  12.771   0.411
78900SOL     OW38596   6.326  11.674   3.066
78900SOL    HW138597   6.295  11.643   3.151
78900SOL    HW238598   6.374  11.754   3.086
78901SOL     OW38599  10.756  14.116   2.911
78901SOL    HW138600  10.675  14.093   2.957
78901SOL    HW238601  10.760  14.056   2.837
78902SOL     OW38602  10.210   2.211   4.580
78902SOL    HW138603  10.200   2.116   4.579
78902SOL    HW238604  10.136   2.244   4.528
78903SOL     OW38605   5.503  10.700   3.068
78903SOL    HW138606   5.564  10.769   3.043
78903SOL    HW238607   5.422  10.722   3.022
78904SOL     OW38608  10.151   7.051   5.662
78904SOL    HW138609  10.171   6.963   5.629
78904SOL    HW238610  10.207   7.060   5.740
78905SOL     OW38611   9.318   4.629  14.385
78905SOL    HW138612   9.330   4.676  14.303
78905SOL    HW238613   9.355   4.687  14.451
78906SOL     OW38614  14.167  14.507   0.710
78906SOL    HW138615  14.083  14.552   0.704
78906SOL    HW238616  14.167  14.467   0.797
78907SOL     OW38617   8.124  13.860  13.542
78907SOL    HW138618   8.032  13.844  13.520
78907SOL    HW238619   8.156  13.775  13.572
78908SOL     OW38620   1.601   6.758  12.321
78908SOL    HW138621   1.671   6.821  12.304
78908SOL    HW238622   1.592   6.709  12.239
78909SOL     OW38623   6.406   9.537   8.136
78909SOL    HW138624   6.433   9.547   8.044
78909SOL    HW238625   6.391   9.627   8.166
78910SOL     OW38626   0.295   4.075   5.534
78910SOL    HW138627   0.283   4.049   5.443
78910SOL    HW238628   0.389   4.068   5.549
78911SOL     OW38629  13.034  14.339  11.407
78911SOL    HW138630  12.997  14.323  11.494
78911SOL    HW238631  12.996  14.422  11.379
78912SOL     OW38632  10.354   0.525   0.699
78912SOL    HW138633  10.385   0.590   0.636
78912SOL    HW238634  10.334   0.576   0.777
78913SOL     OW38635   3.180   3.825  11.210
78913SOL    HW138636   3.179   3.799  11.118
78913SOL    HW238637   3.132   3.908  11.212
78914SOL     OW38638   9.497  14.660   8.146
78914SOL    HW138639   9.575  14.608   8.129
78914SOL    HW238640   9.514  14.703   8.230
78915SOL     OW38641   6.470  12.332  13.098
78915SOL    HW138642   6.424  12.301  13.019
78915SOL    HW238643   6.401  12.374  13.150
78916SOL     OW38644   3.823  12.907   7.650
78916SOL    HW138645   3.820  12.824   7.602
78916SOL    HW238646   3.879  12.888   7.726
78917SOL     OW38647   3.779   2.790   7.128
78917SOL    HW138648   3.750   2.877   7.158
78917SOL    HW238649   3.734   2.729   7.186
78918SOL     OW38650   0.652   3.002  12.059
78918SOL    HW138651   0.641   3.068  11.990
78918SOL    HW238652   0.563   2.973  12.078
78919SOL     OW38653   3.260   4.400   5.244
78919SOL    HW138654   3.226   4.454   5.315
78919SOL    HW238655   3.263   4.459   5.168
78920SOL     OW38656  11.768  12.316   1.245
78920SOL    HW138657  11.805  12.261   1.313
78920SOL    HW238658  11.717  12.382   1.292
78921SOL     OW38659   0.629   5.539   4.562
78921SOL    HW138660   0.540   5.567   4.540
78921SOL    HW238661   0.667   5.515   4.477
78922SOL     OW38662   0.571  14.207  12.372
78922SOL    HW138663   0.658  14.230  12.406
78922SOL    HW238664   0.580  14.212  12.277
78923SOL     OW38665  11.618   6.145  10.451
78923SOL    HW138666  11.578   6.066  10.487
78923SOL    HW238667  11.678   6.175  10.519
78924SOL     OW38668   2.583  13.389  11.517
78924SOL    HW138669   2.520  13.334  11.472
78924SOL    HW238670   2.563  13.378  11.610
78925SOL     OW38671   0.454  11.280   7.891
78925SOL    HW138672   0.488  11.211   7.948
78925SOL    HW238673   0.360  11.282   7.910
78926SOL     OW38674  10.962   0.064   0.935
78926SOL    HW138675  10.968   0.088   1.027
78926SOL    HW238676  10.930   0.143   0.892
78927SOL     OW38677   4.799  13.895   2.864
78927SOL    HW138678   4.737  13.827   2.891
78927SOL    HW238679   4.782  13.907   2.770
78928SOL     OW38680  11.110   0.192  14.859
78928SOL    HW138681  11.094   0.100   0.005
78928SOL    HW238682  11.063   0.240   0.052
78929SOL     OW38683   4.375  10.128   3.174
78929SOL    HW138684   4.424  10.169   3.245
78929SOL    HW238685   4.342  10.202   3.122
78930SOL     OW38686  13.438  13.456   3.342
78930SOL    HW138687  13.351  13.475   3.378
78930SOL    HW238688  13.448  13.520   3.271
78931SOL     OW38689   6.709   6.928   8.938
78931SOL    HW138690   6.787   6.881   8.967
78931SOL    HW238691   6.716   6.930   8.843
78932SOL     OW38692   9.091   5.912   8.952
78932SOL    HW138693   9.051   5.995   8.979
78932SOL    HW238694   9.171   5.905   9.005
78933SOL     OW38695  11.799   6.003  14.609
78933SOL    HW138696  11.775   5.920  14.568
78933SOL    HW238697  11.798   5.984  14.703
78934SOL     OW38698   6.819  12.248   6.337
78934SOL    HW138699   6.895  12.195   6.314
78934SOL    HW238700   6.852  12.311   6.401
78935SOL     OW38701   5.070  13.562  11.544
78935SOL    HW138702   5.142  13.625  11.542
78935SOL    HW238703   5.019  13.585  11.622
78936SOL     OW38704   0.918  12.157   1.854
78936SOL    HW138705   0.916  12.131   1.946
78936SOL    HW238706   0.827  12.150   1.825
78937SOL     OW38707  10.460   3.524  10.590
78937SOL    HW138708  10.389   3.588  10.588
78937SOL    HW238709  10.506   3.542  10.672
78938SOL     OW38710  11.348   0.352   5.324
78938SOL    HW138711  11.289   0.426   5.308
78938SOL    HW238712  11.436   0.391   5.323
78939SOL     OW38713   2.222  13.626  13.684
78939SOL    HW138714   2.248  13.582  13.603
78939SOL    HW238715   2.239  13.562  13.753
78940SOL     OW38716  11.662   2.907   9.180
78940SOL    HW138717  11.668   2.818   9.144
78940SOL    HW238718  11.676   2.896   9.274
78941SOL     OW38719   0.749   4.167  13.779
78941SOL    HW138720   0.780   4.257  13.787
78941SOL    HW238721   0.774   4.140  13.691
78942SOL     OW38722  10.196  13.634   8.192
78942SOL    HW138723  10.204  13.683   8.275
78942SOL    HW238724  10.283  13.637   8.154
78943SOL     OW38725  13.988   8.319   1.241
78943SOL    HW138726  13.921   8.259   1.210
78943SOL    HW238727  14.042   8.337   1.164
78944SOL     OW38728   8.139  13.741   0.361
78944SOL    HW138729   8.176  13.741   0.449
78944SOL    HW238730   8.178  13.819   0.320
78945SOL     OW38731   8.657  10.743   8.962
78945SOL    HW138732   8.751  10.737   8.947
78945SOL    HW238733   8.620  10.763   8.876
78946SOL     OW38734   1.557   0.178   5.438
78946SOL    HW138735   1.586   0.114   5.503
78946SOL    HW238736   1.624   0.173   5.369
78947SOL     OW38737  12.009  13.513  14.224
78947SOL    HW138738  12.038  13.423  14.213
78947SOL    HW238739  11.926  13.506  14.270
78948SOL     OW38740  12.397  12.557   1.189
78948SOL    HW138741  12.468  12.516   1.238
78948SOL    HW238742  12.441  12.622   1.134
78949SOL     OW38743   4.264   8.507  14.705
78949SOL    HW138744   4.280   8.495  14.611
78949SOL    HW238745   4.280   8.420  14.743
78950SOL     OW38746  12.053   6.932   2.276
78950SOL    HW138747  12.005   6.944   2.194
78950SOL    HW238748  11.998   6.972   2.342
78951SOL     OW38749   8.276  12.635   6.780
78951SOL    HW138750   8.227  12.697   6.727
78951SOL    HW238751   8.367  12.659   6.767
78952SOL     OW38752   6.946   9.881  12.160
78952SOL    HW138753   6.975   9.803  12.208
78952SOL    HW238754   6.956   9.953  12.222
78953SOL     OW38755  14.253   2.523   9.467
78953SOL    HW138756  14.313   2.463   9.422
78953SOL    HW238757  14.186   2.467   9.504
78954SOL     OW38758   2.386   1.303   6.463
78954SOL    HW138759   2.378   1.295   6.558
78954SOL    HW238760   2.388   1.213   6.431
78955SOL     OW38761   8.069   5.126   0.385
78955SOL    HW138762   7.981   5.100   0.412
78955SOL    HW238763   8.062   5.140   0.291
78956SOL     OW38764  11.261  12.045  14.345
78956SOL    HW138765  11.225  12.115  14.291
78956SOL    HW238766  11.198  12.035  14.417
78957SOL     OW38767   6.677   5.012  12.158
78957SOL    HW138768   6.771   5.016  12.140
78957SOL    HW238769   6.664   5.071  12.233
78958SOL     OW38770   0.556  10.237   0.571
78958SOL    HW138771   0.556  10.150   0.531
78958SOL    HW238772   0.478  10.238   0.628
78959SOL     OW38773   4.264   2.120  14.068
78959SOL    HW138774   4.177   2.113  14.027
78959SOL    HW238775   4.289   2.211  14.055
78960SOL     OW38776  13.432   4.859  10.980
78960SOL    HW138777  13.366   4.921  11.011
78960SOL    HW238778  13.397   4.826  10.897
78961SOL     OW38779   6.600  11.031   5.497
78961SOL    HW138780   6.692  11.035   5.523
78961SOL    HW238781   6.582  10.938   5.484
78962SOL     OW38782  12.727   8.340   8.783
78962SOL    HW138783  12.721   8.251   8.819
78962SOL    HW238784  12.686   8.396   8.849
78963SOL     OW38785   7.841  13.451   0.999
78963SOL    HW138786   7.807  13.454   1.089
78963SOL    HW238787   7.932  13.482   1.007
78964SOL     OW38788  10.405  14.469   3.178
78964SOL    HW138789  10.401  14.437   3.088
78964SOL    HW238790  10.444  14.556   3.171
78965SOL     OW38791   0.497   3.977   4.523
78965SOL    HW138792   0.475   3.975   4.430
78965SOL    HW238793   0.495   4.070   4.546
78966SOL     OW38794   6.649   4.168  11.925
78966SOL    HW138795   6.558   4.139  11.913
78966SOL    HW238796   6.643   4.239  11.989
78967SOL     OW38797   7.867   0.045   5.753
78967SOL    HW138798   7.945   0.081   5.796
78967SOL    HW238799   7.888   0.044   5.660
78968SOL     OW38800   9.433  12.219   7.425
78968SOL    HW138801   9.382  12.234   7.504
78968SOL    HW238802   9.519  12.257   7.444
78969SOL     OW38803   5.982   8.376   5.482
78969SOL    HW138804   5.959   8.403   5.571
78969SOL    HW238805   5.944   8.444   5.426
78970SOL     OW38806   3.590   3.359   0.381
78970SOL    HW138807   3.586   3.454   0.394
78970SOL    HW238808   3.502   3.335   0.352
78971SOL     OW38809  13.491   1.807   6.529
78971SOL    HW138810  13.496   1.861   6.450
78971SOL    HW238811  13.461   1.866   6.597
78972SOL     OW38812   9.155  10.829   1.388
78972SOL    HW138813   9.204  10.904   1.355
78972SOL    HW238814   9.215  10.755   1.380
78973SOL     OW38815  11.011  10.918  12.672
78973SOL    HW138816  10.973  10.840  12.713
78973SOL    HW238817  10.943  10.985  12.681
78974SOL     OW38818  14.250  11.175   6.269
78974SOL    HW138819  14.164  11.146   6.299
78974SOL    HW238820  14.312  11.119   6.316
78975SOL     OW38821   4.359   3.325   1.163
78975SOL    HW138822   4.367   3.408   1.211
78975SOL    HW238823   4.447   3.288   1.166
78976SOL     OW38824   3.654   9.446   0.284
78976SOL    HW138825   3.589   9.474   0.219
78976SOL    HW238826   3.602   9.426   0.362
78977SOL     OW38827   0.999   5.981  13.836
78977SOL    HW138828   0.955   5.998  13.753
78977SOL    HW238829   0.960   6.044  13.897
78978SOL     OW38830   3.311  12.784   9.144
78978SOL    HW138831   3.399  12.764   9.110
78978SOL    HW238832   3.279  12.853   9.086
78979SOL     OW38833  11.492   8.989  12.810
78979SOL    HW138834  11.477   8.903  12.849
78979SOL    HW238835  11.420   9.043  12.840
78980SOL     OW38836   3.951  14.340  10.983
78980SOL    HW138837   3.880  14.276  10.986
78980SOL    HW238838   3.906  14.425  10.988
78981SOL     OW38839  12.374  11.923   5.272
78981SOL    HW138840  12.335  11.917   5.185
78981SOL    HW238841  12.468  11.921   5.257
78982SOL     OW38842  11.093   3.378   5.350
78982SOL    HW138843  10.997   3.376   5.355
78982SOL    HW238844  11.120   3.292   5.382
78983SOL     OW38845  13.514   6.574   5.326
78983SOL    HW138846  13.488   6.590   5.235
78983SOL    HW238847  13.576   6.502   5.321
78984SOL     OW38848   5.543  14.326  12.061
78984SOL    HW138849   5.578  14.409  12.093
78984SOL    HW238850   5.567  14.326  11.968
78985SOL     OW38851  10.904  14.679  13.296
78985SOL    HW138852  10.965  14.739  13.338
78985SOL    HW238853  10.835  14.666  13.361
78986SOL     OW38854  14.676  13.912   3.734
78986SOL    HW138855  14.675  13.828   3.689
78986SOL    HW238856  14.616  13.967   3.684
78987SOL     OW38857  13.346  13.136   1.729
78987SOL    HW138858  13.352  13.205   1.795
78987SOL    HW238859  13.278  13.166   1.668
78988SOL     OW38860   4.762   0.899   6.065
78988SOL    HW138861   4.783   0.989   6.038
78988SOL    HW238862   4.845   0.852   6.059
78989SOL     OW38863  11.548   6.462   0.762
78989SOL    HW138864  11.582   6.539   0.807
78989SOL    HW238865  11.455   6.478   0.752
78990SOL     OW38866  14.618  13.401   7.830
78990SOL    HW138867  14.651  13.316   7.860
78990SOL    HW238868  14.689  13.438   7.778
78991SOL     OW38869   3.245   8.196   4.736
78991SOL    HW138870   3.263   8.117   4.685
78991SOL    HW238871   3.314   8.257   4.710
78992SOL     OW38872   6.061  13.959  12.350
78992SOL    HW138873   6.039  13.902  12.277
78992SOL    HW238874   6.131  14.015  12.316
78993SOL     OW38875   2.211  13.075   4.654
78993SOL    HW138876   2.163  13.049   4.732
78993SOL    HW238877   2.190  13.167   4.642
78994SOL     OW38878   4.883   8.688   6.551
78994SOL    HW138879   4.815   8.636   6.508
78994SOL    HW238880   4.901   8.642   6.632
78995SOL     OW38881   5.287   3.385  10.712
78995SOL    HW138882   5.379   3.388  10.686
78995SOL    HW238883   5.283   3.437  10.793
78996SOL     OW38884   6.424  11.218   9.857
78996SOL    HW138885   6.497  11.178   9.904
78996SOL    HW238886   6.433  11.312   9.874
78997SOL     OW38887   8.678  13.924  12.944
78997SOL    HW138888   8.722  13.871  13.010
78997SOL    HW238889   8.586  13.899  12.950
78998SOL     OW38890   6.060   6.347   9.397
78998SOL    HW138891   6.135   6.400   9.372
78998SOL    HW238892   5.986   6.387   9.352
78999SOL     OW38893   4.278  14.069  13.955
78999SOL    HW138894   4.323  13.992  13.989
78999SOL    HW238895   4.239  14.040  13.872
79000SOL     OW38896   8.322  11.294  11.704
79000SOL    HW138897   8.283  11.229  11.644
79000SOL    HW238898   8.265  11.292  11.781
79001SOL     OW38899  14.784   5.688   2.077
79001SOL    HW138900  14.855   5.653   2.131
79001SOL    HW238901  14.809   5.666   1.987
79002SOL     OW38902  12.318   5.347   7.284
79002SOL    HW138903  12.397   5.299   7.258
79002SOL    HW238904  12.309   5.330   7.378
79003SOL     OW38905  11.027  12.523  14.610
79003SOL    HW138906  11.022  12.491  14.519
79003SOL    HW238907  10.980  12.606  14.608
79004SOL     OW38908   5.246   0.869   9.882
79004SOL    HW138909   5.299   0.948   9.870
79004SOL    HW238910   5.241   0.857   9.977
79005SOL     OW38911   8.271   1.328  10.709
79005SOL    HW138912   8.183   1.292  10.720
79005SOL    HW238913   8.292   1.311  10.617
79006SOL     OW38914  14.341  11.326   7.187
79006SOL    HW138915  14.330  11.235   7.214
79006SOL    HW238916  14.435  11.342   7.195
79007SOL     OW38917   9.298   6.277   0.160
79007SOL    HW138918   9.288   6.198   0.106
79007SOL    HW238919   9.215   6.284   0.207
79008SOL     OW38920   5.956   6.751   2.682
79008SOL    HW138921   5.966   6.676   2.742
79008SOL    HW238922   5.994   6.721   2.599
79009SOL     OW38923   4.898  11.502   4.194
79009SOL    HW138924   4.840  11.426   4.181
79009SOL    HW238925   4.880  11.558   4.119
79010SOL     OW38926  11.480   1.656  14.509
79010SOL    HW138927  11.510   1.731  14.561
79010SOL    HW238928  11.550   1.592  14.516
79011SOL     OW38929  12.598   7.877   8.675
79011SOL    HW138930  12.563   7.883   8.586
79011SOL    HW238931  12.542   7.935   8.726
79012SOL     OW38932   4.936   5.366  13.397
79012SOL    HW138933   4.876   5.426  13.352
79012SOL    HW238934   4.885   5.331  13.470
79013SOL     OW38935  10.018  11.258   7.967
79013SOL    HW138936  10.080  11.189   7.987
79013SOL    HW238937  10.062  11.339   7.993
79014SOL     OW38938   2.288   9.080   7.658
79014SOL    HW138939   2.300   8.992   7.622
79014SOL    HW238940   2.354   9.087   7.727
79015SOL     OW38941   7.883   4.332  11.854
79015SOL    HW138942   7.792   4.358  11.842
79015SOL    HW238943   7.934   4.403  11.814
79016SOL     OW38944   8.233   9.448  12.740
79016SOL    HW138945   8.304   9.385  12.723
79016SOL    HW238946   8.263   9.528  12.698
79017SOL     OW38947   7.858  10.822   6.346
79017SOL    HW138948   7.884  10.741   6.303
79017SOL    HW238949   7.912  10.889   6.305
79018SOL     OW38950   0.684   8.752   8.419
79018SOL    HW138951   0.745   8.739   8.492
79018SOL    HW238952   0.629   8.826   8.447
79019SOL     OW38953  10.272   6.578   3.592
79019SOL    HW138954  10.320   6.586   3.675
79019SOL    HW238955  10.194   6.633   3.604
79020SOL     OW38956   4.504   6.932   8.385
79020SOL    HW138957   4.506   7.026   8.370
79020SOL    HW238958   4.583   6.899   8.341
79021SOL     OW38959   1.744  12.352  11.861
79021SOL    HW138960   1.695  12.271  11.876
79021SOL    HW238961   1.835  12.325  11.856
79022SOL     OW38962   7.401   1.625  10.809
79022SOL    HW138963   7.349   1.705  10.801
79022SOL    HW238964   7.337   1.556  10.821
79023SOL     OW38965   6.487   7.574   3.000
79023SOL    HW138966   6.550   7.567   2.928
79023SOL    HW238967   6.478   7.668   3.014
79024SOL     OW38968   5.291   7.096   7.834
79024SOL    HW138969   5.325   7.185   7.846
79024SOL    HW238970   5.315   7.050   7.915
79025SOL     OW38971   7.585   2.872   7.362
79025SOL    HW138972   7.494   2.861   7.390
79025SOL    HW238973   7.628   2.790   7.386
79026SOL     OW38974  14.318   4.292   9.120
79026SOL    HW138975  14.294   4.203   9.094
79026SOL    HW238976  14.251   4.317   9.184
79027SOL     OW38977   6.939   9.813   6.842
79027SOL    HW138978   6.946   9.719   6.825
79027SOL    HW238979   7.000   9.854   6.780
79028SOL     OW38980   1.518  12.129   4.281
79028SOL    HW138981   1.500  12.150   4.189
79028SOL    HW238982   1.463  12.190   4.331
79029SOL     OW38983   8.765   3.226  10.504
79029SOL    HW138984   8.757   3.233  10.409
79029SOL    HW238985   8.709   3.296  10.538
79030SOL     OW38986  11.864   1.932   7.084
79030SOL    HW138987  11.816   2.006   7.120
79030SOL    HW238988  11.934   1.972   7.032
79031SOL     OW38989   7.789  11.310   9.425
79031SOL    HW138990   7.802  11.402   9.403
79031SOL    HW238991   7.762  11.269   9.343
79032SOL     OW38992   9.147   2.828  10.861
79032SOL    HW138993   9.199   2.771  10.917
79032SOL    HW238994   9.211   2.875  10.808
79033SOL     OW38995   8.925   1.755  13.947
79033SOL    HW138996   8.968   1.835  13.915
79033SOL    HW238997   8.904   1.774  14.038
79034SOL     OW38998   5.435   7.113   1.466
79034SOL    HW138999   5.511   7.171   1.462
79034SOL    HW239000   5.472   7.025   1.470
79035SOL     OW39001  12.674  12.396   9.877
79035SOL    HW139002  12.650  12.474   9.826
79035SOL    HW239003  12.635  12.323   9.830
79036SOL     OW39004   7.658   3.142   7.825
79036SOL    HW139005   7.660   3.083   7.749
79036SOL    HW239006   7.707   3.219   7.797
79037SOL     OW39007  13.067   3.156   1.827
79037SOL    HW139008  13.159   3.130   1.816
79037SOL    HW239009  13.019   3.073   1.825
79038SOL     OW39010   5.619   0.487   9.539
79038SOL    HW139011   5.590   0.398   9.562
79038SOL    HW239012   5.609   0.491   9.444
79039SOL     OW39013   4.703   4.300   8.947
79039SOL    HW139014   4.750   4.321   9.028
79039SOL    HW239015   4.747   4.353   8.880
79040SOL     OW39016  10.281  14.769   2.070
79040SOL    HW139017  10.324  14.831   2.011
79040SOL    HW239018  10.221  14.823   2.122
79041SOL     OW39019   1.007   3.408  13.107
79041SOL    HW139020   0.955   3.476  13.150
79041SOL    HW239021   1.009   3.336  13.169
79042SOL     OW39022   7.711   2.848  14.292
79042SOL    HW139023   7.753   2.774  14.248
79042SOL    HW239024   7.722   2.921  14.231
79043SOL     OW39025   7.710   6.183  13.422
79043SOL    HW139026   7.725   6.273  13.450
79043SOL    HW239027   7.650   6.147  13.487
79044SOL     OW39028   2.120  13.094   6.298
79044SOL    HW139029   2.053  13.026   6.290
79044SOL    HW239030   2.127  13.130   6.209
79045SOL     OW39031   5.249  11.302  13.318
79045SOL    HW139032   5.190  11.286  13.244
79045SOL    HW239033   5.193  11.293  13.396
79046SOL     OW39034   7.239   3.884   5.182
79046SOL    HW139035   7.202   3.951   5.240
79046SOL    HW239036   7.178   3.810   5.190
79047SOL     OW39037  13.551   2.074  13.917
79047SOL    HW139038  13.514   2.134  13.851
79047SOL    HW239039  13.526   1.987  13.887
79048SOL     OW39040   9.367  10.300   3.633
79048SOL    HW139041   9.351  10.311   3.540
79048SOL    HW239042   9.449  10.250   3.638
79049SOL     OW39043   3.749   7.283  13.215
79049SOL    HW139044   3.835   7.323  13.218
79049SOL    HW239045   3.764   7.198  13.173
79050SOL     OW39046  11.341   8.512  14.137
79050SOL    HW139047  11.346   8.550  14.049
79050SOL    HW239048  11.248   8.502  14.154
79051SOL     OW39049   6.777  12.409   2.765
79051SOL    HW139050   6.732  12.486   2.801
79051SOL    HW239051   6.821  12.443   2.687
79052SOL     OW39052  11.325  11.585   8.927
79052SOL    HW139053  11.346  11.493   8.909
79052SOL    HW239054  11.233  11.594   8.902
79053SOL     OW39055  14.311   0.059   0.395
79053SOL    HW139056  14.303   0.036   0.303
79053SOL    HW239057  14.348  14.856   0.437
79054SOL     OW39058   9.021   0.146  10.497
79054SOL    HW139059   9.041   0.077  10.434
79054SOL    HW239060   8.955   0.200  10.454
79055SOL     OW39061   9.599   5.855   7.043
79055SOL    HW139062   9.529   5.791   7.050
79055SOL    HW239063   9.568   5.919   6.980
79056SOL     OW39064  10.911  10.667   5.001
79056SOL    HW139065  10.939  10.756   5.020
79056SOL    HW239066  10.863  10.639   5.079
79057SOL     OW39067  10.369   3.701   0.065
79057SOL    HW139068  10.305   3.763   0.030
79057SOL    HW239069  10.349   3.697   0.159
79058SOL     OW39070  12.697   3.524   3.656
79058SOL    HW139071  12.749   3.593   3.614
79058SOL    HW239072  12.632   3.571   3.708
79059SOL     OW39073  10.965   2.943  10.764
79059SOL    HW139074  10.915   3.005  10.710
79059SOL    HW239075  10.969   2.985  10.851
79060SOL     OW39076   5.725  10.323   8.116
79060SOL    HW139077   5.654  10.355   8.172
79060SOL    HW239078   5.787  10.396   8.112
79061SOL     OW39079   3.575  12.512  11.962
79061SOL    HW139080   3.564  12.447  12.031
79061SOL    HW239081   3.488  12.522  11.924
79062SOL     OW39082   7.222  10.325  12.389
79062SOL    HW139083   7.316  10.330  12.371
79062SOL    HW239084   7.199  10.410  12.426
79063SOL     OW39085   0.889   3.489   4.582
79063SOL    HW139086   0.936   3.444   4.511
79063SOL    HW239087   0.908   3.582   4.567
79064SOL     OW39088  11.039  12.640   4.331
79064SOL    HW139089  10.977  12.704   4.367
79064SOL    HW239090  11.085  12.605   4.407
79065SOL     OW39091  10.526   0.903   6.048
79065SOL    HW139092  10.520   0.839   6.119
79065SOL    HW239093  10.617   0.898   6.019
79066SOL     OW39094   1.102   6.694  10.580
79066SOL    HW139095   1.119   6.743  10.500
79066SOL    HW239096   1.188   6.663  10.608
79067SOL     OW39097   9.052  10.576   5.583
79067SOL    HW139098   9.108  10.533   5.647
79067SOL    HW239099   9.034  10.508   5.518
79068SOL     OW39100   4.794   6.240   4.881
79068SOL    HW139101   4.820   6.186   4.806
79068SOL    HW239102   4.732   6.185   4.929
79069SOL     OW39103   8.691   2.520   1.768
79069SOL    HW139104   8.690   2.442   1.712
79069SOL    HW239105   8.781   2.551   1.766
79070SOL     OW39106   8.493   0.499   5.008
79070SOL    HW139107   8.486   0.472   5.100
79070SOL    HW239108   8.446   0.431   4.959
79071SOL     OW39109   0.095   7.390   6.211
79071SOL    HW139110   0.097   7.485   6.211
79071SOL    HW239111   0.026   7.367   6.149
79072SOL     OW39112   0.932   2.822   0.680
79072SOL    HW139113   1.004   2.784   0.628
79072SOL    HW239114   0.920   2.761   0.753
79073SOL     OW39115   9.349   6.849  10.620
79073SOL    HW139116   9.289   6.912  10.659
79073SOL    HW239117   9.327   6.766  10.663
79074SOL     OW39118   5.374  10.403  10.305
79074SOL    HW139119   5.464  10.423  10.332
79074SOL    HW239120   5.320  10.435  10.377
79075SOL     OW39121   8.537  12.557   9.848
79075SOL    HW139122   8.520  12.469   9.881
79075SOL    HW239123   8.552  12.610   9.926
79076SOL     OW39124   1.277   9.076  14.315
79076SOL    HW139125   1.336   9.016  14.361
79076SOL    HW239126   1.316   9.162  14.328
79077SOL     OW39127  13.061   8.471   3.102
79077SOL    HW139128  13.067   8.523   3.182
79077SOL    HW239129  13.024   8.530   3.037
79078SOL     OW39130   5.502   6.402   4.992
79078SOL    HW139131   5.533   6.430   5.078
79078SOL    HW239132   5.545   6.318   4.977
79079SOL     OW39133   9.808  11.303   3.155
79079SOL    HW139134   9.861  11.336   3.227
79079SOL    HW239135   9.848  11.341   3.077
79080SOL     OW39136   7.514  11.284   1.111
79080SOL    HW139137   7.542  11.269   1.020
79080SOL    HW239138   7.574  11.230   1.163
79081SOL     OW39139  11.168  12.033   7.135
79081SOL    HW139140  11.183  12.100   7.069
79081SOL    HW239141  11.114  12.076   7.202
79082SOL     OW39142  14.752   5.360  14.814
79082SOL    HW139143  14.785   5.286  14.864
79082SOL    HW239144  14.726   5.424   0.006
79083SOL     OW39145  10.592   8.880   9.440
79083SOL    HW139146  10.558   8.913   9.357
79083SOL    HW239147  10.683   8.858   9.422
79084SOL     OW39148   3.715  11.019   7.485
79084SOL    HW139149   3.678  10.990   7.569
79084SOL    HW239150   3.747  11.107   7.501
79085SOL     OW39151   9.978   4.061   8.709
79085SOL    HW139152   9.905   4.007   8.737
79085SOL    HW239153   9.942   4.149   8.702
79086SOL     OW39154   4.315  10.670   2.232
79086SOL    HW139155   4.382  10.611   2.267
79086SOL    HW239156   4.347  10.758   2.253
79087SOL     OW39157  12.358   7.609   0.295
79087SOL    HW139158  12.279   7.559   0.319
79087SOL    HW239159  12.333   7.701   0.310
79088SOL     OW39160   9.414   7.134   3.669
79088SOL    HW139161   9.476   7.072   3.630
79088SOL    HW239162   9.459   7.218   3.665
79089SOL     OW39163   4.801   7.641  13.029
79089SOL    HW139164   4.760   7.662  13.113
79089SOL    HW239165   4.743   7.681  12.963
79090SOL     OW39166   1.927   4.941   2.428
79090SOL    HW139167   1.980   4.914   2.503
79090SOL    HW239168   1.860   4.998   2.465
79091SOL     OW39169   2.457   2.065  14.411
79091SOL    HW139170   2.370   2.091  14.442
79091SOL    HW239171   2.517   2.117  14.464
79092SOL     OW39172   5.978  14.166   0.387
79092SOL    HW139173   6.071  14.163   0.365
79092SOL    HW239174   5.963  14.089   0.441
79093SOL     OW39175   3.899  10.227   8.179
79093SOL    HW139176   3.949  10.273   8.246
79093SOL    HW239177   3.865  10.296   8.122
79094SOL     OW39178   6.458  11.347  14.166
79094SOL    HW139179   6.399  11.333  14.092
79094SOL    HW239180   6.544  11.321  14.133
79095SOL     OW39181   6.169   7.208   3.192
79095SOL    HW139182   6.258   7.190   3.224
79095SOL    HW239183   6.152   7.298   3.220
79096SOL     OW39184   1.440  14.560  11.184
79096SOL    HW139185   1.372  14.626  11.179
79096SOL    HW239186   1.511  14.594  11.130
79097SOL     OW39187   4.818   6.367   0.925
79097SOL    HW139188   4.907   6.396   0.905
79097SOL    HW239189   4.804   6.291   0.869
79098SOL     OW39190   6.662  12.083  12.133
79098SOL    HW139191   6.667  12.018  12.063
79098SOL    HW239192   6.715  12.156  12.101
79099SOL     OW39193   5.784  11.385   3.971
79099SOL    HW139194   5.755  11.470   3.936
79099SOL    HW239195   5.795  11.401   4.065
79100SOL     OW39196  11.816   2.146   7.562
79100SOL    HW139197  11.735   2.120   7.520
79100SOL    HW239198  11.829   2.081   7.631
79101SOL     OW39199  10.514   9.560   3.339
79101SOL    HW139200  10.478   9.479   3.304
79101SOL    HW239201  10.531   9.614   3.262
79102SOL     OW39202   0.791   2.857   5.981
79102SOL    HW139203   0.845   2.835   6.057
79102SOL    HW239204   0.845   2.916   5.930
79103SOL     OW39205  11.852   2.686   3.675
79103SOL    HW139206  11.924   2.627   3.700
79103SOL    HW239207  11.834   2.737   3.754
79104SOL     OW39208  12.046   7.330  11.552
79104SOL    HW139209  12.054   7.396  11.620
79104SOL    HW239210  11.952   7.327  11.532
79105SOL     OW39211   7.836  13.755  12.558
79105SOL    HW139212   7.787  13.792  12.631
79105SOL    HW239213   7.926  13.751  12.589
79106SOL     OW39214   8.857   7.299  13.944
79106SOL    HW139215   8.932   7.346  13.980
79106SOL    HW239216   8.874   7.207  13.963
79107SOL     OW39217  11.223   9.507  14.213
79107SOL    HW139218  11.245   9.588  14.259
79107SOL    HW239219  11.130   9.493  14.232
79108SOL     OW39220   3.887   7.628   9.051
79108SOL    HW139221   3.933   7.660   8.973
79108SOL    HW239222   3.863   7.538   9.029
79109SOL     OW39223   2.858  10.186   8.947
79109SOL    HW139224   2.906  10.114   8.905
79109SOL    HW239225   2.815  10.231   8.875
79110SOL     OW39226   6.567  10.021   6.862
79110SOL    HW139227   6.640  10.084   6.861
79110SOL    HW239228   6.488  10.075   6.860
79111SOL     OW39229  14.065   8.337  13.627
79111SOL    HW139230  14.135   8.326  13.692
79111SOL    HW239231  14.101   8.301  13.546
79112SOL     OW39232   2.570  14.176   4.523
79112SOL    HW139233   2.531  14.190   4.437
79112SOL    HW239234   2.555  14.083   4.541
79113SOL     OW39235  11.260  10.138  14.605
79113SOL    HW139236  11.260  10.047  14.635
79113SOL    HW239237  11.301  10.187  14.677
79114SOL     OW39238   7.791   9.338   8.138
79114SOL    HW139239   7.775   9.350   8.045
79114SOL    HW239240   7.871   9.285   8.142
79115SOL     OW39241   2.549  12.805   4.636
79115SOL    HW139242   2.460  12.771   4.625
79115SOL    HW239243   2.543  12.896   4.608
79116SOL     OW39244   0.746   3.209   7.353
79116SOL    HW139245   0.698   3.220   7.435
79116SOL    HW239246   0.769   3.298   7.327
79117SOL     OW39247   0.442  13.529   3.276
79117SOL    HW139248   0.439  13.555   3.368
79117SOL    HW239249   0.529  13.554   3.246
79118SOL     OW39250   4.454   9.362  13.557
79118SOL    HW139251   4.432   9.276  13.591
79118SOL    HW239252   4.453   9.419  13.633
79119SOL     OW39253   7.620   8.032   0.824
79119SOL    HW139254   7.531   8.001   0.842
79119SOL    HW239255   7.661   8.035   0.911
79120SOL     OW39256   6.090  10.505   0.408
79120SOL    HW139257   6.021  10.562   0.375
79120SOL    HW239258   6.085  10.515   0.503
79121SOL     OW39259  13.486   8.311   7.619
79121SOL    HW139260  13.526   8.344   7.699
79121SOL    HW239261  13.409   8.263   7.649
79122SOL     OW39262   2.283   1.335  14.473
79122SOL    HW139263   2.359   1.321  14.529
79122SOL    HW239264   2.265   1.249  14.435
79123SOL     OW39265   1.974   5.280   7.931
79123SOL    HW139266   1.983   5.288   7.836
79123SOL    HW239267   2.006   5.364   7.965
79124SOL     OW39268   2.142   9.133  12.070
79124SOL    HW139269   2.211   9.114  12.007
79124SOL    HW239270   2.063   9.146  12.016
79125SOL     OW39271   2.558   6.170   8.374
79125SOL    HW139272   2.637   6.118   8.362
79125SOL    HW239273   2.541   6.167   8.468
79126SOL     OW39274  13.722   3.864   9.351
79126SOL    HW139275  13.688   3.792   9.405
79126SOL    HW239276  13.750   3.930   9.415
79127SOL     OW39277   4.465   3.081   0.971
79127SOL    HW139278   4.518   3.127   1.036
79127SOL    HW239279   4.528   3.047   0.908
79128SOL     OW39280  14.282   5.136   5.654
79128SOL    HW139281  14.371   5.108   5.635
79128SOL    HW239282  14.280   5.150   5.749
79129SOL     OW39283   8.812   0.677   1.172
79129SOL    HW139284   8.846   0.595   1.207
79129SOL    HW239285   8.799   0.732   1.249
79130SOL     OW39286   0.396  14.773  10.139
79130SOL    HW139287   0.303  14.771  10.162
79130SOL    HW239288   0.433  14.697  10.184
79131SOL     OW39289   4.155   5.667   3.456
79131SOL    HW139290   4.206   5.641   3.533
79131SOL    HW239291   4.175   5.760   3.445
79132SOL     OW39292  12.355  14.084   8.290
79132SOL    HW139293  12.386  14.146   8.356
79132SOL    HW239294  12.381  13.998   8.324
79133SOL     OW39295   5.769  11.457  13.103
79133SOL    HW139296   5.700  11.524  13.102
79133SOL    HW239297   5.765  11.417  13.016
79134SOL     OW39298   9.161   7.511  12.027
79134SOL    HW139299   9.224   7.517  11.956
79134SOL    HW239300   9.149   7.601  12.056
79135SOL     OW39301   4.846   6.942  13.048
79135SOL    HW139302   4.823   6.899  12.966
79135SOL    HW239303   4.819   6.880  13.116
79136SOL     OW39304   9.332   2.426  10.565
79136SOL    HW139305   9.238   2.442  10.569
79136SOL    HW239306   9.371   2.510  10.589
79137SOL     OW39307   3.324   9.417  11.573
79137SOL    HW139308   3.234   9.386  11.564
79137SOL    HW239309   3.376   9.337  11.588
79138SOL     OW39310  11.904   8.027   8.479
79138SOL    HW139311  11.855   7.945   8.480
79138SOL    HW239312  11.980   8.010   8.535
79139SOL     OW39313   8.129   0.711   1.968
79139SOL    HW139314   8.108   0.691   1.877
79139SOL    HW239315   8.185   0.788   1.963
79140SOL     OW39316  14.487   1.418  14.043
79140SOL    HW139317  14.541   1.347  14.079
79140SOL    HW239318  14.521   1.497  14.083
79141SOL     OW39319  12.147   5.442   1.355
79141SOL    HW139320  12.230   5.490   1.349
79141SOL    HW239321  12.160   5.364   1.302
79142SOL     OW39322  10.563   7.564  11.419
79142SOL    HW139323  10.623   7.555  11.345
79142SOL    HW239324  10.572   7.656  11.447
79143SOL     OW39325  11.033   5.257   6.409
79143SOL    HW139326  11.116   5.242   6.363
79143SOL    HW239327  10.973   5.192   6.373
79144SOL     OW39328   6.485   3.760  10.343
79144SOL    HW139329   6.472   3.695  10.412
79144SOL    HW239330   6.411   3.748  10.284
79145SOL     OW39331   6.438  14.636  12.863
79145SOL    HW139332   6.441  14.704  12.795
79145SOL    HW239333   6.382  14.673  12.931
79146SOL     OW39334   3.835   2.630   3.009
79146SOL    HW139335   3.867   2.719   3.024
79146SOL    HW239336   3.775   2.613   3.081
79147SOL     OW39337  14.508   1.590   5.698
79147SOL    HW139338  14.427   1.572   5.747
79147SOL    HW239339  14.572   1.530   5.735
79148SOL     OW39340  12.249  12.098   5.443
79148SOL    HW139341  12.289  12.185   5.436
79148SOL    HW239342  12.308  12.040   5.394
79149SOL     OW39343  14.129  14.060   4.463
79149SOL    HW139344  14.095  13.971   4.460
79149SOL    HW239345  14.223  14.051   4.450
79150SOL     OW39346   1.184   2.312   6.766
79150SOL    HW139347   1.187   2.235   6.823
79150SOL    HW239348   1.108   2.361   6.797
79151SOL     OW39349   3.538   6.350   1.252
79151SOL    HW139350   3.607   6.285   1.250
79151SOL    HW239351   3.551   6.402   1.173
79152SOL     OW39352  13.367  13.723   2.867
79152SOL    HW139353  13.280  13.749   2.896
79152SOL    HW239354  13.363  13.628   2.860
79153SOL     OW39355  10.805  12.271   8.409
79153SOL    HW139356  10.727  12.281   8.464
79153SOL    HW239357  10.878  12.269   8.471
79154SOL     OW39358  13.296   7.990   9.411
79154SOL    HW139359  13.294   8.052   9.338
79154SOL    HW239360  13.253   7.912   9.378
79155SOL     OW39361   6.244   9.539   6.580
79155SOL    HW139362   6.243   9.512   6.671
79155SOL    HW239363   6.323   9.498   6.543
79156SOL     OW39364   9.125   8.807   3.414
79156SOL    HW139365   9.136   8.820   3.320
79156SOL    HW239366   9.043   8.760   3.423
79157SOL     OW39367   0.129  11.935   8.531
79157SOL    HW139368   0.080  11.951   8.450
79157SOL    HW239369   0.086  11.991   8.596
79158SOL     OW39370   2.997   2.036   5.737
79158SOL    HW139371   2.954   1.991   5.810
79158SOL    HW239372   3.034   1.966   5.684
79159SOL     OW39373  14.191   8.385   9.088
79159SOL    HW139374  14.218   8.407   8.999
79159SOL    HW239375  14.180   8.290   9.086
79160SOL     OW39376  13.243  13.265   6.591
79160SOL    HW139377  13.158  13.295   6.560
79160SOL    HW239378  13.304  13.294   6.523
79161SOL     OW39379  13.931   1.482  14.713
79161SOL    HW139380  13.890   1.396  14.701
79161SOL    HW239381  13.944   1.514  14.624
79162SOL     OW39382   2.791   5.359   1.077
79162SOL    HW139383   2.814   5.325   1.163
79162SOL    HW239384   2.771   5.451   1.092
79163SOL     OW39385   8.555   9.702  13.544
79163SOL    HW139386   8.599   9.772  13.497
79163SOL    HW239387   8.530   9.741  13.628
79164SOL     OW39388  11.302   9.437   1.557
79164SOL    HW139389  11.349   9.400   1.631
79164SOL    HW239390  11.228   9.483   1.596
79165SOL     OW39391   9.577   5.617  11.356
79165SOL    HW139392   9.626   5.547  11.400
79165SOL    HW239393   9.488   5.583  11.348
79166SOL     OW39394   0.282   5.652   1.866
79166SOL    HW139395   0.281   5.565   1.906
79166SOL    HW239396   0.213   5.650   1.800
79167SOL     OW39397   4.955   7.687   7.269
79167SOL    HW139398   5.047   7.662   7.264
79167SOL    HW239399   4.914   7.648   7.192
79168SOL     OW39400   7.931   8.731   1.607
79168SOL    HW139401   7.882   8.796   1.556
79168SOL    HW239402   7.864   8.674   1.643
79169SOL     OW39403   2.977   8.107   5.257
79169SOL    HW139404   3.041   8.096   5.186
79169SOL    HW239405   2.941   8.019   5.271
79170SOL     OW39406  11.808   9.294   3.117
79170SOL    HW139407  11.866   9.357   3.160
79170SOL    HW239408  11.764   9.249   3.189
79171SOL     OW39409   3.401   4.475  13.853
79171SOL    HW139410   3.355   4.394  13.829
79171SOL    HW239411   3.432   4.511  13.770
79172SOL     OW39412   2.477  13.223   3.840
79172SOL    HW139413   2.536  13.292   3.871
79172SOL    HW239414   2.489  13.222   3.745
79173SOL     OW39415  11.455  13.432   7.671
79173SOL    HW139416  11.402  13.487   7.614
79173SOL    HW239417  11.398  13.359   7.695
79174SOL     OW39418   2.326   8.908   4.419
79174SOL    HW139419   2.306   8.984   4.364
79174SOL    HW239420   2.374   8.849   4.361
79175SOL     OW39421   8.815   6.640   5.406
79175SOL    HW139422   8.822   6.734   5.425
79175SOL    HW239423   8.891   6.621   5.351
79176SOL     OW39424  10.034  14.022   3.378
79176SOL    HW139425  10.064  14.070   3.455
79176SOL    HW239426  10.112  13.973   3.349
79177SOL     OW39427  13.340   3.047  12.586
79177SOL    HW139428  13.310   3.004  12.506
79177SOL    HW239429  13.435   3.042  12.581
79178SOL     OW39430   3.425  12.501   7.690
79178SOL    HW139431   3.414  12.575   7.749
79178SOL    HW239432   3.408  12.424   7.744
79179SOL     OW39433   3.514   3.207  13.559
79179SOL    HW139434   3.516   3.123  13.514
79179SOL    HW239435   3.451   3.195  13.630
79180SOL     OW39436   4.277  13.642  13.057
79180SOL    HW139437   4.281  13.677  13.146
79180SOL    HW239438   4.310  13.714  13.002
79181SOL     OW39439  11.374  14.175  10.177
79181SOL    HW139440  11.388  14.245  10.113
79181SOL    HW239441  11.456  14.171  10.227
79182SOL     OW39442   4.106   6.689   8.535
79182SOL    HW139443   4.073   6.773   8.568
79182SOL    HW239444   4.152   6.650   8.609
79183SOL     OW39445   3.879   9.443   3.354
79183SOL    HW139446   3.916   9.528   3.333
79183SOL    HW239447   3.920   9.418   3.437
79184SOL     OW39448   1.725   7.686   1.290
79184SOL    HW139449   1.695   7.759   1.345
79184SOL    HW239450   1.649   7.628   1.284
79185SOL     OW39451  10.580   2.096   8.510
79185SOL    HW139452  10.513   2.056   8.454
79185SOL    HW239453  10.543   2.181   8.534
79186SOL     OW39454   0.841   0.812   1.053
79186SOL    HW139455   0.890   0.890   1.028
79186SOL    HW239456   0.770   0.807   0.989
79187SOL     OW39457   2.471  14.411  13.801
79187SOL    HW139458   2.543  14.349  13.793
79187SOL    HW239459   2.514  14.496  13.811
79188SOL     OW39460  12.256   6.130   8.031
79188SOL    HW139461  12.167   6.131   7.996
79188SOL    HW239462  12.293   6.214   8.004
79189SOL     OW39463   5.366  14.514   9.786
79189SOL    HW139464   5.334  14.547   9.870
79189SOL    HW239465   5.439  14.456   9.809
79190SOL     OW39466   5.310   0.945   7.548
79190SOL    HW139467   5.282   1.007   7.615
79190SOL    HW239468   5.304   0.859   7.590
79191SOL     OW39469   4.345  11.197   4.068
79191SOL    HW139470   4.266  11.245   4.095
79191SOL    HW239471   4.311  11.119   4.025
79192SOL     OW39472   2.389   9.066  11.461
79192SOL    HW139473   2.322   9.086  11.395
79192SOL    HW239474   2.350   8.994  11.512
79193SOL     OW39475  11.514  10.611   5.805
79193SOL    HW139476  11.546  10.697   5.779
79193SOL    HW239477  11.426  10.627   5.839
79194SOL     OW39478   4.641  13.546  12.260
79194SOL    HW139479   4.595  13.622  12.295
79194SOL    HW239480   4.577  13.475  12.265
79195SOL     OW39481  10.162   6.281   0.758
79195SOL    HW139482  10.201   6.366   0.780
79195SOL    HW239483  10.079   6.303   0.716
79196SOL     OW39484   7.650   8.852   7.638
79196SOL    HW139485   7.592   8.878   7.566
79196SOL    HW239486   7.737   8.850   7.599
79197SOL     OW39487   1.760   4.593   2.432
79197SOL    HW139488   1.756   4.688   2.446
79197SOL    HW239489   1.668   4.566   2.424
79198SOL     OW39490  10.156  13.909  12.778
79198SOL    HW139491  10.191  13.998  12.771
79198SOL    HW239492  10.234  13.853  12.777
79199SOL     OW39493   5.963   9.250   6.325
79199SOL    HW139494   5.923   9.335   6.342
79199SOL    HW239495   5.890   9.189   6.322
79200SOL     OW39496  12.642   8.341   4.487
79200SOL    HW139497  12.716   8.401   4.492
79200SOL    HW239498  12.577   8.376   4.548
79201SOL     OW39499   0.818   0.763  14.193
79201SOL    HW139500   0.906   0.766  14.230
79201SOL    HW239501   0.805   0.671  14.170
79202SOL     OW39502   2.652   0.402   6.624
79202SOL    HW139503   2.692   0.334   6.678
79202SOL    HW239504   2.723   0.461   6.603
79203SOL     OW39505   3.893   2.837   9.510
79203SOL    HW139506   3.924   2.833   9.420
79203SOL    HW239507   3.917   2.924   9.540
79204SOL     OW39508   1.633   5.087  10.762
79204SOL    HW139509   1.588   5.164  10.728
79204SOL    HW239510   1.615   5.089  10.856
79205SOL     OW39511   3.108   7.767  12.006
79205SOL    HW139512   3.016   7.768  12.033
79205SOL    HW239513   3.122   7.679  11.970
79206SOL     OW39514  13.668   2.471   1.517
79206SOL    HW139515  13.750   2.463   1.469
79206SOL    HW239516  13.601   2.486   1.450
79207SOL     OW39517   9.425   1.725   1.091
79207SOL    HW139518   9.382   1.699   1.010
79207SOL    HW239519   9.458   1.813   1.074
79208SOL     OW39520   4.279   0.062   6.506
79208SOL    HW139521   4.191   0.098   6.503
79208SOL    HW239522   4.313   0.072   6.417
79209SOL     OW39523  10.391  13.316  14.596
79209SOL    HW139524  10.478  13.301  14.560
79209SOL    HW239525  10.377  13.243  14.656
79210SOL     OW39526   8.661  12.216   7.574
79210SOL    HW139527   8.676  12.122   7.565
79210SOL    HW239528   8.748  12.253   7.590
79211SOL     OW39529   0.001  13.082  11.760
79211SOL    HW139530   0.051  13.129  11.693
79211SOL    HW239531  14.787  13.078  11.724
79212SOL     OW39532  12.287  12.366   5.548
79212SOL    HW139533  12.326  12.413   5.621
79212SOL    HW239534  12.285  12.429   5.476
79213SOL     OW39535   9.541   8.230  11.044
79213SOL    HW139536   9.535   8.323  11.022
79213SOL    HW239537   9.480   8.187  10.985
79214SOL     OW39538   0.698  14.418   6.667
79214SOL    HW139539   0.668  14.332   6.695
79214SOL    HW239540   0.713  14.466   6.748
79215SOL     OW39541   4.747   7.610   3.389
79215SOL    HW139542   4.777   7.604   3.480
79215SOL    HW239543   4.793   7.686   3.354
79216SOL     OW39544   7.780  12.089  11.038
79216SOL    HW139545   7.782  12.106  10.944
79216SOL    HW239546   7.775  11.994  11.045
79217SOL     OW39547   2.300  10.557   2.319
79217SOL    HW139548   2.299  10.508   2.401
79217SOL    HW239549   2.297  10.649   2.346
79218SOL     OW39550   3.573  10.909   6.758
79218SOL    HW139551   3.594  10.896   6.851
79218SOL    HW239552   3.538  10.825   6.729
79219SOL     OW39553   9.846  13.623  12.872
79219SOL    HW139554   9.786  13.552  12.897
79219SOL    HW239555   9.810  13.701  12.916
79220SOL     OW39556   9.781   2.804   6.354
79220SOL    HW139557   9.706   2.862   6.341
79220SOL    HW239558   9.754   2.721   6.315
79221SOL     OW39559   3.374   3.300   1.752
79221SOL    HW139560   3.329   3.242   1.690
79221SOL    HW239561   3.313   3.371   1.768
79222SOL     OW39562  11.790   3.350   6.922
79222SOL    HW139563  11.820   3.433   6.886
79222SOL    HW239564  11.837   3.340   7.004
79223SOL     OW39565   1.381   1.308  10.718
79223SOL    HW139566   1.313   1.375  10.717
79223SOL    HW239567   1.381   1.273  10.628
79224SOL     OW39568  12.765   8.653  10.211
79224SOL    HW139569  12.717   8.639  10.293
79224SOL    HW239570  12.835   8.589  10.213
79225SOL     OW39571   6.574   0.826  12.025
79225SOL    HW139572   6.612   0.913  12.036
79225SOL    HW239573   6.574   0.812  11.930
79226SOL     OW39574   7.432   8.097   1.054
79226SOL    HW139575   7.417   8.100   1.148
79226SOL    HW239576   7.487   8.173   1.035
79227SOL     OW39577   8.794   2.926  10.769
79227SOL    HW139578   8.848   2.942  10.847
79227SOL    HW239579   8.710   2.968  10.789
79228SOL     OW39580   4.871  11.672   2.145
79228SOL    HW139581   4.793  11.728   2.142
79228SOL    HW239582   4.837  11.583   2.141
79229SOL     OW39583   0.256   5.111  12.151
79229SOL    HW139584   0.279   5.195  12.112
79229SOL    HW239585   0.337   5.060  12.149
79230SOL     OW39586  13.253   5.766   1.681
79230SOL    HW139587  13.347   5.751   1.694
79230SOL    HW239588  13.249   5.825   1.605
79231SOL     OW39589  14.056  11.993   1.802
79231SOL    HW139590  14.058  12.057   1.731
79231SOL    HW239591  14.135  11.941   1.790
79232SOL     OW39592  12.618   9.783   7.345
79232SOL    HW139593  12.646   9.875   7.341
79232SOL    HW239594  12.631   9.759   7.437
79233SOL     OW39595   7.593   8.123  10.877
79233SOL    HW139596   7.664   8.066  10.904
79233SOL    HW239597   7.609   8.205  10.923
79234SOL     OW39598   3.121  10.997   3.103
79234SOL    HW139599   3.203  11.043   3.083
79234SOL    HW239600   3.073  10.997   3.021
79235SOL     OW39601   1.374   7.322   9.092
79235SOL    HW139602   1.318   7.323   9.014
79235SOL    HW239603   1.462   7.337   9.058
79236SOL     OW39604   1.028   5.892  13.410
79236SOL    HW139605   0.960   5.952  13.440
79236SOL    HW239606   1.033   5.907  13.315
79237SOL     OW39607  12.182   8.575   2.503
79237SOL    HW139608  12.219   8.504   2.555
79237SOL    HW239609  12.216   8.654   2.542
79238SOL     OW39610   3.426   9.003   8.124
79238SOL    HW139611   3.431   9.033   8.034
79238SOL    HW239612   3.514   8.973   8.144
79239SOL     OW39613   4.481   9.159  11.900
79239SOL    HW139614   4.418   9.185  11.966
79239SOL    HW239615   4.432   9.157  11.818
79240SOL     OW39616   8.196   6.010  14.650
79240SOL    HW139617   8.124   6.061  14.614
79240SOL    HW239618   8.158   5.924  14.668
79241SOL     OW39619   6.281  13.725  13.243
79241SOL    HW139620   6.238  13.641  13.259
79241SOL    HW239621   6.210  13.789  13.244
79242SOL     OW39622   3.249   7.866  10.010
79242SOL    HW139623   3.277   7.934   9.949
79242SOL    HW239624   3.225   7.912  10.090
79243SOL     OW39625   1.736  13.215  10.582
79243SOL    HW139626   1.756  13.223  10.675
79243SOL    HW239627   1.821  13.213  10.538
79244SOL     OW39628   5.053   9.360   5.735
79244SOL    HW139629   4.973   9.342   5.783
79244SOL    HW239630   5.037   9.326   5.647
79245SOL     OW39631  14.561  10.982   4.597
79245SOL    HW139632  14.641  10.976   4.650
79245SOL    HW239633  14.491  10.995   4.660
79246SOL     OW39634  11.664   9.709  11.121
79246SOL    HW139635  11.726   9.636  11.116
79246SOL    HW239636  11.653   9.736  11.030
79247SOL     OW39637  13.291   0.234  13.865
79247SOL    HW139638  13.241   0.284  13.801
79247SOL    HW239639  13.296   0.145  13.829
79248SOL     OW39640  11.136   2.470   4.835
79248SOL    HW139641  11.155   2.525   4.910
79248SOL    HW239642  11.174   2.385   4.857
79249SOL     OW39643   4.202   5.197  11.701
79249SOL    HW139644   4.187   5.140  11.776
79249SOL    HW239645   4.277   5.158  11.655
79250SOL     OW39646  11.749  10.674   1.443
79250SOL    HW139647  11.791  10.759   1.427
79250SOL    HW239648  11.811  10.610   1.410
79251SOL     OW39649   6.014   1.331   1.470
79251SOL    HW139650   5.995   1.313   1.562
79251SOL    HW239651   5.928   1.329   1.428
79252SOL     OW39652  11.480   7.009  10.484
79252SOL    HW139653  11.520   6.967  10.560
79252SOL    HW239654  11.502   7.101  10.493
79253SOL     OW39655   8.273   2.090   4.307
79253SOL    HW139656   8.364   2.071   4.330
79253SOL    HW239657   8.275   2.101   4.212
79254SOL     OW39658   1.347  12.469  12.565
79254SOL    HW139659   1.401  12.392  12.585
79254SOL    HW239660   1.404  12.543  12.584
79255SOL     OW39661   8.821   8.883   4.010
79255SOL    HW139662   8.808   8.796   4.048
79255SOL    HW239663   8.733   8.921   4.007
79256SOL     OW39664  11.949   5.968   9.145
79256SOL    HW139665  12.029   5.921   9.121
79256SOL    HW239666  11.981   6.048   9.188
79257SOL     OW39667  10.352   6.119   0.850
79257SOL    HW139668  10.275   6.158   0.808
79257SOL    HW239669  10.426   6.165   0.812
79258SOL     OW39670  10.594   4.860  12.399
79258SOL    HW139671  10.582   4.823  12.486
79258SOL    HW239672  10.686   4.842  12.378
79259SOL     OW39673   3.350   3.508   3.181
79259SOL    HW139674   3.416   3.576   3.193
79259SOL    HW239675   3.388   3.449   3.115
79260SOL     OW39676   1.843  12.120   9.199
79260SOL    HW139677   1.761  12.158   9.232
79260SOL    HW239678   1.828  12.026   9.202
79261SOL     OW39679   7.505   1.486  10.243
79261SOL    HW139680   7.461   1.452  10.321
79261SOL    HW239681   7.443   1.550  10.207
79262SOL     OW39682  11.380   4.184   7.695
79262SOL    HW139683  11.468   4.217   7.678
79262SOL    HW239684  11.355   4.140   7.614
79263SOL     OW39685   7.521  10.891   9.588
79263SOL    HW139686   7.536  10.901   9.494
79263SOL    HW239687   7.534  10.979   9.624
79264SOL     OW39688   9.166   1.405   6.957
79264SOL    HW139689   9.181   1.433   7.048
79264SOL    HW239690   9.245   1.434   6.911
79265SOL     OW39691   2.603  11.698   9.408
79265SOL    HW139692   2.610  11.701   9.313
79265SOL    HW239693   2.519  11.657   9.425
79266SOL     OW39694  13.994   2.646   0.963
79266SOL    HW139695  13.919   2.590   0.943
79266SOL    HW239696  14.029   2.670   0.877
79267SOL     OW39697   3.767  10.926   3.881
79267SOL    HW139698   3.810  10.887   3.958
79267SOL    HW239699   3.683  10.880   3.875
79268SOL     OW39700   4.722   5.295   6.921
79268SOL    HW139701   4.810   5.297   6.959
79268SOL    HW239702   4.737   5.293   6.826
79269SOL     OW39703  11.463   7.375   5.868
79269SOL    HW139704  11.552   7.404   5.848
79269SOL    HW239705  11.413   7.399   5.790
79270SOL     OW39706  12.327   9.890   6.666
79270SOL    HW139707  12.320   9.945   6.588
79270SOL    HW239708  12.266   9.818   6.651
79271SOL     OW39709   6.241  11.213   5.330
79271SOL    HW139710   6.202  11.263   5.258
79271SOL    HW239711   6.275  11.280   5.389
79272SOL     OW39712  10.645  10.421   1.454
79272SOL    HW139713  10.608  10.337   1.479
79272SOL    HW239714  10.696  10.449   1.530
79273SOL     OW39715  13.045   1.237   4.267
79273SOL    HW139716  13.061   1.311   4.208
79273SOL    HW239717  12.975   1.267   4.324
79274SOL     OW39718   5.508  13.470   9.051
79274SOL    HW139719   5.553  13.393   9.085
79274SOL    HW239720   5.490  13.449   8.959
79275SOL     OW39721  13.009   6.108   1.989
79275SOL    HW139722  13.055   6.148   1.916
79275SOL    HW239723  13.049   6.022   1.999
79276SOL     OW39724   8.759   2.007  12.049
79276SOL    HW139725   8.792   1.919  12.066
79276SOL    HW239726   8.708   2.029  12.127
79277SOL     OW39727   6.516  13.747  10.350
79277SOL    HW139728   6.599  13.789  10.328
79277SOL    HW239729   6.467  13.747  10.267
79278SOL     OW39730  11.265   5.727  13.477
79278SOL    HW139731  11.250   5.768  13.563
79278SOL    HW239732  11.178   5.724  13.437
79279SOL     OW39733   0.473   0.770  13.987
79279SOL    HW139734   0.567   0.787  13.983
79279SOL    HW239735   0.466   0.675  13.992
79280SOL     OW39736   8.022  11.481  14.171
79280SOL    HW139737   8.058  11.406  14.220
79280SOL    HW239738   7.957  11.442  14.113
79281SOL     OW39739  13.939   7.815   8.836
79281SOL    HW139740  13.971   7.845   8.751
79281SOL    HW239741  13.893   7.890   8.872
79282SOL     OW39742   7.593   1.179   5.487
79282SOL    HW139743   7.571   1.086   5.497
79282SOL    HW239744   7.668   1.192   5.545
79283SOL     OW39745   2.567  13.038  10.448
79283SOL    HW139746   2.649  13.084  10.430
79283SOL    HW239747   2.551  12.986  10.370
79284SOL     OW39748  11.752   5.405   5.548
79284SOL    HW139749  11.755   5.326   5.494
79284SOL    HW239750  11.668   5.401   5.592
79285SOL     OW39751  11.445  11.504  13.914
79285SOL    HW139752  11.413  11.584  13.871
79285SOL    HW239753  11.387  11.435  13.882
79286SOL     OW39754  14.849  14.414   3.380
79286SOL    HW139755   0.058  14.458   3.367
79286SOL    HW239756  14.855  14.374   3.467
79287SOL     OW39757   8.581   7.117   2.846
79287SOL    HW139758   8.590   7.071   2.929
79287SOL    HW239759   8.671   7.123   2.812
79288SOL     OW39760   8.909  12.546  11.292
79288SOL    HW139761   8.857  12.569  11.369
79288SOL    HW239762   8.845  12.540  11.221
79289SOL     OW39763   8.477   3.569  11.065
79289SOL    HW139764   8.548   3.614  11.019
79289SOL    HW239765   8.488   3.476  11.041
79290SOL     OW39766  11.338   7.385  10.695
79290SOL    HW139767  11.346   7.471  10.654
79290SOL    HW239768  11.351   7.401  10.788
79291SOL     OW39769   0.330   5.086   9.158
79291SOL    HW139770   0.426   5.084   9.167
79291SOL    HW239771   0.298   5.057   9.243
79292SOL     OW39772  14.615   5.809   6.886
79292SOL    HW139773  14.537   5.754   6.881
79292SOL    HW239774  14.682   5.753   6.924
79293SOL     OW39775  14.092  14.328   3.453
79293SOL    HW139776  14.185  14.342   3.468
79293SOL    HW239777  14.082  14.336   3.358
79294SOL     OW39778   9.647   3.179  13.253
79294SOL    HW139779   9.660   3.172  13.159
79294SOL    HW239780   9.557   3.212  13.262
79295SOL     OW39781   5.612   3.368  11.410
79295SOL    HW139782   5.678   3.341  11.346
79295SOL    HW239783   5.586   3.456  11.383
79296SOL     OW39784  11.972  11.164  14.440
79296SOL    HW139785  11.890  11.148  14.488
79296SOL    HW239786  12.031  11.200  14.506
79297SOL     OW39787   1.392   1.192  11.388
79297SOL    HW139788   1.433   1.251  11.325
79297SOL    HW239789   1.447   1.196  11.466
79298SOL     OW39790  10.893  12.121  13.052
79298SOL    HW139791  10.947  12.075  13.117
79298SOL    HW239792  10.868  12.054  12.989
79299SOL     OW39793   6.105   7.075   7.815
79299SOL    HW139794   6.135   7.151   7.765
79299SOL    HW239795   6.179   7.014   7.812
79300SOL     OW39796   6.285  14.100  12.998
79300SOL    HW139797   6.326  14.141  12.922
79300SOL    HW239798   6.243  14.022  12.963
79301SOL     OW39799   5.954  12.875  14.715
79301SOL    HW139800   5.956  12.792  14.763
79301SOL    HW239801   5.867  12.876  14.674
79302SOL     OW39802   5.184   9.284   7.217
79302SOL    HW139803   5.174   9.344   7.143
79302SOL    HW239804   5.277   9.262   7.217
79303SOL     OW39805  13.647  14.287   7.238
79303SOL    HW139806  13.610  14.369   7.206
79303SOL    HW239807  13.596  14.266   7.315
79304SOL     OW39808   4.990   1.504  10.180
79304SOL    HW139809   4.939   1.437  10.226
79304SOL    HW239810   4.975   1.584  10.230
79305SOL     OW39811  12.199   8.059   2.713
79305SOL    HW139812  12.135   8.119   2.750
79305SOL    HW239813  12.174   8.051   2.621
79306SOL     OW39814   0.418  14.765   7.547
79306SOL    HW139815   0.344  14.823   7.529
79306SOL    HW239816   0.391  14.714   7.624
79307SOL     OW39817  12.052   1.098   6.234
79307SOL    HW139818  12.137   1.064   6.264
79307SOL    HW239819  12.016   1.028   6.181
79308SOL     OW39820   3.672  14.561   9.112
79308SOL    HW139821   3.656  14.585   9.020
79308SOL    HW239822   3.766  14.542   9.116
79309SOL     OW39823  10.188  11.312   7.080
79309SOL    HW139824  10.150  11.231   7.047
79309SOL    HW239825  10.191  11.301   7.175
79310SOL     OW39826   2.595  12.327  10.046
79310SOL    HW139827   2.536  12.256  10.073
79310SOL    HW239828   2.604  12.316   9.951
79311SOL     OW39829   9.767   7.345  13.502
79311SOL    HW139830   9.813   7.390  13.431
79311SOL    HW239831   9.716   7.414  13.545
79312SOL     OW39832   5.458  11.531  10.514
79312SOL    HW139833   5.527  11.593  10.538
79312SOL    HW239834   5.377  11.581  10.520
79313SOL     OW39835   6.265  10.314  11.812
79313SOL    HW139836   6.190  10.337  11.757
79313SOL    HW239837   6.310  10.397  11.828
79314SOL     OW39838   7.717   3.795   2.101
79314SOL    HW139839   7.688   3.802   2.191
79314SOL    HW239840   7.681   3.712   2.070
79315SOL     OW39841  11.258  11.867   5.675
79315SOL    HW139842  11.179  11.826   5.710
79315SOL    HW239843  11.324  11.797   5.675
79316SOL     OW39844   9.422  14.645   5.683
79316SOL    HW139845   9.408  14.593   5.762
79316SOL    HW239846   9.442  14.733   5.717
79317SOL     OW39847  10.828  10.951  13.224
79317SOL    HW139848  10.751  10.912  13.182
79317SOL    HW239849  10.805  11.043  13.236
79318SOL     OW39850   5.038   2.661   8.380
79318SOL    HW139851   5.110   2.661   8.317
79318SOL    HW239852   5.081   2.670   8.465
79319SOL     OW39853   4.457   6.067  12.771
79319SOL    HW139854   4.396   6.127  12.814
79319SOL    HW239855   4.543   6.105  12.786
79320SOL     OW39856   3.775   8.804   5.697
79320SOL    HW139857   3.820   8.725   5.667
79320SOL    HW239858   3.682   8.785   5.685
79321SOL     OW39859   3.762   3.987   1.915
79321SOL    HW139860   3.798   4.074   1.898
79321SOL    HW239861   3.811   3.955   1.990
79322SOL     OW39862  13.830  12.722   2.704
79322SOL    HW139863  13.896  12.735   2.636
79322SOL    HW239864  13.873  12.752   2.784
79323SOL     OW39865  14.771   8.788   1.859
79323SOL    HW139866  14.849   8.754   1.903
79323SOL    HW239867  14.707   8.717   1.865
79324SOL     OW39868   9.244   8.550  14.856
79324SOL    HW139869   9.240   8.636   0.023
79324SOL    HW239870   9.154   8.518  14.860
79325SOL     OW39871  13.378   0.682   4.056
79325SOL    HW139872  13.294   0.658   4.016
79325SOL    HW239873  13.356   0.702   4.147
79326SOL     OW39874   7.329   5.731   9.043
79326SOL    HW139875   7.368   5.800   8.990
79326SOL    HW239876   7.301   5.776   9.124
79327SOL     OW39877  14.629  13.823   7.819
79327SOL    HW139878  14.718  13.790   7.828
79327SOL    HW239879  14.594  13.778   7.743
79328SOL     OW39880   2.737   7.578  11.917
79328SOL    HW139881   2.752   7.545  12.006
79328SOL    HW239882   2.649   7.615  11.919
79329SOL     OW39883  12.562  10.047   1.894
79329SOL    HW139884  12.571   9.958   1.926
79329SOL    HW239885  12.468  10.066   1.904
79330SOL     OW39886   4.515   0.611   8.888
79330SOL    HW139887   4.511   0.679   8.954
79330SOL    HW239888   4.536   0.531   8.936
79331SOL     OW39889  13.628   6.090   2.307
79331SOL    HW139890  13.610   6.034   2.231
79331SOL    HW239891  13.639   6.178   2.271
79332SOL     OW39892  11.934   5.033   9.938
79332SOL    HW139893  11.915   4.941   9.922
79332SOL    HW239894  11.956   5.037  10.031
79333SOL     OW39895   6.047  10.309   1.236
79333SOL    HW139896   6.132  10.283   1.273
79333SOL    HW239897   6.016  10.231   1.190
79334SOL     OW39898   5.143   1.695  12.116
79334SOL    HW139899   5.082   1.634  12.074
79334SOL    HW239900   5.117   1.781  12.082
79335SOL     OW39901  10.599  10.801   2.021
79335SOL    HW139902  10.642  10.787   1.936
79335SOL    HW239903  10.570  10.714   2.047
79336SOL     OW39904  13.170  13.315   3.054
79336SOL    HW139905  13.167  13.287   2.963
79336SOL    HW239906  13.195  13.237   3.103
79337SOL     OW39907   9.460   1.604   2.922
79337SOL    HW139908   9.497   1.558   2.846
79337SOL    HW239909   9.366   1.591   2.915
79338SOL     OW39910   1.017  13.809   9.810
79338SOL    HW139911   0.985  13.749   9.877
79338SOL    HW239912   0.983  13.895   9.838
79339SOL     OW39913   4.201  12.783  13.281
79339SOL    HW139914   4.214  12.698  13.239
79339SOL    HW239915   4.129  12.823  13.231
79340SOL     OW39916   5.874   8.535   6.534
79340SOL    HW139917   5.943   8.486   6.488
79340SOL    HW239918   5.862   8.614   6.481
79341SOL     OW39919  14.320   0.420   8.791
79341SOL    HW139920  14.312   0.480   8.717
79341SOL    HW239921  14.229   0.397   8.812
79342SOL     OW39922  10.642   7.629   3.532
79342SOL    HW139923  10.658   7.542   3.568
79342SOL    HW239924  10.554   7.623   3.494
79343SOL     OW39925  11.125  13.396   0.059
79343SOL    HW139926  11.139  13.490   0.072
79343SOL    HW239927  11.098  13.364   0.145
79344SOL     OW39928  11.402   9.708  14.695
79344SOL    HW139929  11.361   9.630  14.733
79344SOL    HW239930  11.331   9.772  14.690
79345SOL     OW39931  10.555   7.634   3.887
79345SOL    HW139932  10.475   7.640   3.834
79345SOL    HW239933  10.540   7.693   3.961
79346SOL     OW39934  11.978   8.769  13.057
79346SOL    HW139935  11.934   8.842  13.100
79346SOL    HW239936  12.018   8.720  13.129
79347SOL     OW39937  13.298   1.105   6.605
79347SOL    HW139938  13.380   1.154   6.616
79347SOL    HW239939  13.237   1.168   6.568
79348SOL     OW39940  11.970  10.338  14.439
79348SOL    HW139941  11.957  10.309  14.529
79348SOL    HW239942  12.038  10.280  14.404
79349SOL     OW39943   9.007   3.499  12.165
79349SOL    HW139944   8.998   3.592  12.144
79349SOL    HW239945   9.101   3.482  12.161
79350SOL     OW39946   8.046  14.733   3.945
79350SOL    HW139947   8.086  14.820   3.958
79350SOL    HW239948   8.103  14.673   3.993
79351SOL     OW39949  10.469   3.490   6.366
79351SOL    HW139950  10.518   3.457   6.441
79351SOL    HW239951  10.468   3.585   6.379
79352SOL     OW39952   5.665   4.166   4.636
79352SOL    HW139953   5.711   4.250   4.634
79352SOL    HW239954   5.603   4.175   4.709
79353SOL     OW39955   9.156   2.749  14.301
79353SOL    HW139956   9.172   2.788  14.215
79353SOL    HW239957   9.240   2.709  14.326
79354SOL     OW39958   5.409   9.455  12.393
79354SOL    HW139959   5.438   9.517  12.326
79354SOL    HW239960   5.384   9.377  12.344
79355SOL     OW39961   9.284   2.584   1.698
79355SOL    HW139962   9.317   2.670   1.673
79355SOL    HW239963   9.309   2.526   1.626
79356SOL     OW39964   1.780  13.353   6.036
79356SOL    HW139965   1.736  13.275   6.001
79356SOL    HW239966   1.760  13.352   6.130
79357SOL     OW39967   9.018   4.811   3.370
79357SOL    HW139968   9.009   4.885   3.309
79357SOL    HW239969   9.070   4.845   3.442
79358SOL     OW39970  13.756  10.302   6.326
79358SOL    HW139971  13.832  10.277   6.378
79358SOL    HW239972  13.756  10.241   6.252
79359SOL     OW39973  12.089  12.254  12.032
79359SOL    HW139974  12.160  12.198  12.000
79359SOL    HW239975  12.052  12.207  12.106
79360SOL     OW39976   4.720   8.851  11.503
79360SOL    HW139977   4.774   8.925  11.530
79360SOL    HW239978   4.701   8.867  11.411
79361SOL     OW39979   3.121  12.147  12.516
79361SOL    HW139980   3.051  12.205  12.485
79361SOL    HW239981   3.184  12.206  12.557
79362SOL     OW39982   7.353  12.524   1.174
79362SOL    HW139983   7.424  12.469   1.142
79362SOL    HW239984   7.319  12.567   1.095
79363SOL     OW39985   1.668   9.493  10.894
79363SOL    HW139986   1.639   9.469  10.806
79363SOL    HW239987   1.751   9.539  10.880
79364SOL     OW39988  14.359  10.612  11.604
79364SOL    HW139989  14.330  10.702  11.586
79364SOL    HW239990  14.446  10.623  11.643
79365SOL     OW39991   3.118  11.436   7.714
79365SOL    HW139992   3.033  11.407   7.747
79365SOL    HW239993   3.167  11.356   7.698
79366SOL     OW39994   5.932   5.609  11.712
79366SOL    HW139995   5.853   5.637  11.759
79366SOL    HW239996   5.905   5.611  11.620
79367SOL     OW39997   6.540   6.457   5.359
79367SOL    HW139998   6.483   6.386   5.330
79367SOL    HW239999   6.541   6.451   5.454
79368SOL     OW40000   8.966   8.234   3.036
79368SOL    HW140001   9.007   8.317   3.011
79368SOL    HW240002   8.987   8.225   3.129
79369SOL     OW40003   8.949  13.835   2.950
79369SOL    HW140004   8.966  13.848   2.856
79369SOL    HW240005   9.019  13.776   2.979
79370SOL     OW40006  14.144  14.260   4.954
79370SOL    HW140007  14.154  14.209   5.034
79370SOL    HW240008  14.069  14.317   4.971
79371SOL     OW40009   5.590   7.766   0.810
79371SOL    HW140010   5.673   7.745   0.766
79371SOL    HW240011   5.529   7.785   0.738
79372SOL     OW40012   0.466  14.541   0.644
79372SOL    HW140013   0.482  14.471   0.706
79372SOL    HW240014   0.445  14.496   0.562
79373SOL     OW40015  13.242   6.900   3.891
79373SOL    HW140016  13.236   6.820   3.838
79373SOL    HW240017  13.221   6.971   3.831
79374SOL     OW40018   3.301   9.605   3.632
79374SOL    HW140019   3.214   9.582   3.664
79374SOL    HW240020   3.347   9.638   3.710
79375SOL     OW40021   3.798  11.442   1.806
79375SOL    HW140022   3.843  11.381   1.747
79375SOL    HW240023   3.868  11.494   1.846
79376SOL     OW40024   4.392  14.178   2.926
79376SOL    HW140025   4.405  14.104   2.985
79376SOL    HW240026   4.431  14.252   2.972
79377SOL     OW40027   9.321  11.117   9.422
79377SOL    HW140028   9.363  11.070   9.494
79377SOL    HW240029   9.297  11.049   9.359
79378SOL     OW40030   0.600   8.020   8.983
79378SOL    HW140031   0.651   7.988   8.909
79378SOL    HW240032   0.516   7.974   8.975
79379SOL     OW40033   1.595   9.687   9.922
79379SOL    HW140034   1.541   9.744   9.867
79379SOL    HW240035   1.647   9.636   9.860
79380SOL     OW40036   1.567   4.488   3.983
79380SOL    HW140037   1.557   4.411   4.039
79380SOL    HW240038   1.639   4.537   4.023
79381SOL     OW40039   0.192  12.422   8.677
79381SOL    HW140040   0.236  12.504   8.700
79381SOL    HW240041   0.252  12.379   8.616
79382SOL     OW40042   8.313   9.038   7.669
79382SOL    HW140043   8.361   8.974   7.616
79382SOL    HW240044   8.223   9.031   7.639
79383SOL     OW40045  10.889   6.620   0.284
79383SOL    HW140046  10.872   6.693   0.224
79383SOL    HW240047  10.936   6.556   0.231
79384SOL     OW40048  13.872   9.570  11.929
79384SOL    HW140049  13.820   9.650  11.920
79384SOL    HW240050  13.957   9.592  11.891
79385SOL     OW40051  11.038   3.865   4.423
79385SOL    HW140052  11.108   3.910   4.470
79385SOL    HW240053  11.068   3.774   4.418
79386SOL     OW40054   0.276  13.041   0.553
79386SOL    HW140055   0.244  13.045   0.463
79386SOL    HW240056   0.371  13.034   0.545
79387SOL     OW40057   2.209   6.564   3.439
79387SOL    HW140058   2.219   6.659   3.427
79387SOL    HW240059   2.297   6.534   3.460
79388SOL     OW40060   1.877   2.308   8.207
79388SOL    HW140061   1.872   2.281   8.298
79388SOL    HW240062   1.944   2.376   8.205
79389SOL     OW40063   9.781   9.380   7.650
79389SOL    HW140064   9.830   9.351   7.727
79389SOL    HW240065   9.791   9.476   7.651
79390SOL     OW40066   4.982  13.470  13.021
79390SOL    HW140067   5.049  13.459  12.953
79390SOL    HW240068   4.911  13.412  12.994
79391SOL     OW40069  12.980   0.919  11.201
79391SOL    HW140070  12.922   0.890  11.271
79391SOL    HW240071  13.055   0.859  11.206
79392SOL     OW40072  12.703  12.401  10.161
79392SOL    HW140073  12.790  12.421  10.197
79392SOL    HW240074  12.712  12.314  10.122
79393SOL     OW40075  13.104  13.253   4.861
79393SOL    HW140076  13.082  13.340   4.828
79393SOL    HW240077  13.148  13.269   4.945
79394SOL     OW40078  14.388   0.168  13.040
79394SOL    HW140079  14.442   0.179  12.962
79394SOL    HW240080  14.333   0.092  13.021
79395SOL     OW40081  10.966   0.601  14.245
79395SOL    HW140082  10.987   0.560  14.329
79395SOL    HW240083  10.953   0.693  14.266
79396SOL     OW40084  13.693   1.049   2.923
79396SOL    HW140085  13.742   1.083   2.998
79396SOL    HW240086  13.744   0.973   2.893
79397SOL     OW40087   1.651  10.549   4.709
79397SOL    HW140088   1.622  10.489   4.641
79397SOL    HW240089   1.582  10.615   4.715
79398SOL     OW40090   0.005  14.638   7.225
79398SOL    HW140091  14.801  14.667   7.179
79398SOL    HW240092   0.055  14.590   7.159
79399SOL     OW40093   7.053   7.962   9.954
79399SOL    HW140094   7.025   7.877   9.922
79399SOL    HW240095   6.974   8.001   9.992
79400SOL     OW40096   0.502  13.100  13.109
79400SOL    HW140097   0.410  13.128  13.113
79400SOL    HW240098   0.540  13.132  13.191
79401SOL     OW40099   6.038  12.474   2.517
79401SOL    HW140100   6.130  12.470   2.491
79401SOL    HW240101   6.026  12.563   2.551
79402SOL     OW40102   4.181   2.306   4.563
79402SOL    HW140103   4.098   2.336   4.600
79402SOL    HW240104   4.185   2.213   4.588
79403SOL     OW40105   3.328   8.469   1.979
79403SOL    HW140106   3.298   8.480   2.069
79403SOL    HW240107   3.279   8.534   1.928
79404SOL     OW40108   7.451  13.744   9.177
79404SOL    HW140109   7.429  13.772   9.088
79404SOL    HW240110   7.406  13.806   9.234
79405SOL     OW40111   7.645   6.225   1.919
79405SOL    HW140112   7.673   6.312   1.891
79405SOL    HW240113   7.711   6.166   1.883
79406SOL     OW40114  12.703   0.067   2.634
79406SOL    HW140115  12.742  14.866   2.591
79406SOL    HW240116  12.733   0.142   2.582
79407SOL     OW40117   5.461  10.393   4.852
79407SOL    HW140118   5.366  10.381   4.854
79407SOL    HW240119   5.492  10.331   4.786
79408SOL     OW40120   8.309   4.372   0.774
79408SOL    HW140121   8.400   4.371   0.743
79408SOL    HW240122   8.265   4.306   0.721
79409SOL     OW40123   4.946   8.195   0.565
79409SOL    HW140124   4.928   8.122   0.624
79409SOL    HW240125   4.887   8.182   0.491
79410SOL     OW40126  14.722   4.170   6.224
79410SOL    HW140127  14.699   4.192   6.134
79410SOL    HW240128  14.818   4.171   6.225
79411SOL     OW40129   7.918   5.989   6.271
79411SOL    HW140130   7.976   5.913   6.264
79411SOL    HW240131   7.978   6.063   6.278
79412SOL     OW40132   2.349   2.726  10.643
79412SOL    HW140133   2.276   2.699  10.587
79412SOL    HW240134   2.365   2.817  10.619
79413SOL     OW40135  10.065   4.118  10.638
79413SOL    HW140136  10.120   4.079  10.570
79413SOL    HW240137  10.076   4.212  10.626
79414SOL     OW40138   4.844   4.433  12.597
79414SOL    HW140139   4.762   4.406  12.638
79414SOL    HW240140   4.893   4.351  12.586
79415SOL     OW40141   2.752  10.339   0.196
79415SOL    HW140142   2.789  10.417   0.154
79415SOL    HW240143   2.731  10.368   0.285
79416SOL     OW40144   8.565   6.161  11.529
79416SOL    HW140145   8.507   6.096  11.569
79416SOL    HW240146   8.513   6.241  11.525
79417SOL     OW40147   1.847   0.794   6.959
79417SOL    HW140148   1.843   0.882   6.997
79417SOL    HW240149   1.884   0.739   7.028
79418SOL     OW40150  12.267   2.624   9.073
79418SOL    HW140151  12.204   2.578   9.018
79418SOL    HW240152  12.230   2.619   9.162
79419SOL     OW40153   0.020  11.259  11.621
79419SOL    HW140154  14.836  11.330  11.597
79419SOL    HW240155   0.082  11.253  11.548
79420SOL     OW40156   4.010  10.931   4.633
79420SOL    HW140157   4.103  10.949   4.617
79420SOL    HW240158   3.999  10.839   4.611
79421SOL     OW40159   1.701   3.706   8.986
79421SOL    HW140160   1.753   3.753   8.920
79421SOL    HW240161   1.611   3.711   8.954
79422SOL     OW40162   0.885   9.964  10.140
79422SOL    HW140163   0.922   9.907  10.208
79422SOL    HW240164   0.953   9.968  10.073
79423SOL     OW40165   7.402   5.301   6.455
79423SOL    HW140166   7.469   5.244   6.491
79423SOL    HW240167   7.444   5.386   6.446
79424SOL     OW40168   6.688   8.883  13.072
79424SOL    HW140169   6.720   8.798  13.104
79424SOL    HW240170   6.616   8.905  13.132
79425SOL     OW40171   9.932   1.728   6.903
79425SOL    HW140172  10.000   1.705   6.839
79425SOL    HW240173   9.880   1.796   6.859
79426SOL     OW40174   3.628  10.520  11.313
79426SOL    HW140175   3.579  10.559  11.241
79426SOL    HW240176   3.711  10.493  11.273
79427SOL     OW40177   7.124   9.929   1.951
79427SOL    HW140178   7.082   9.889   1.876
79427SOL    HW240179   7.159   9.855   2.002
79428SOL     OW40180   4.763   0.402  11.806
79428SOL    HW140181   4.829   0.470  11.796
79428SOL    HW240182   4.808   0.329  11.847
79429SOL     OW40183   7.435  10.232   7.776
79429SOL    HW140184   7.502  10.225   7.844
79429SOL    HW240185   7.479  10.202   7.696
79430SOL     OW40186   1.333  11.163  13.549
79430SOL    HW140187   1.385  11.089  13.515
79430SOL    HW240188   1.256  11.165  13.492
79431SOL     OW40189  10.817   9.382   2.584
79431SOL    HW140190  10.904   9.422   2.579
79431SOL    HW240191  10.806   9.360   2.676
79432SOL     OW40192  10.770  11.976   7.264
79432SOL    HW140193  10.809  11.916   7.201
79432SOL    HW240194  10.785  11.936   7.350
79433SOL     OW40195  13.929  11.230  13.370
79433SOL    HW140196  13.988  11.221  13.295
79433SOL    HW240197  13.863  11.162  13.357
79434SOL     OW40198   3.511   7.666   6.016
79434SOL    HW140199   3.526   7.755   5.985
79434SOL    HW240200   3.438   7.634   5.963
79435SOL     OW40201   0.063  11.013  14.187
79435SOL    HW140202   0.153  11.018  14.156
79435SOL    HW240203   0.033  10.926  14.161
79436SOL     OW40204  12.757  12.624  14.681
79436SOL    HW140205  12.731  12.709  14.718
79436SOL    HW240206  12.852  12.630  14.673
79437SOL     OW40207  12.633  10.775   1.148
79437SOL    HW140208  12.719  10.754   1.185
79437SOL    HW240209  12.574  10.778   1.224
79438SOL     OW40210   6.387  13.132   1.846
79438SOL    HW140211   6.443  13.083   1.906
79438SOL    HW240212   6.447  13.169   1.781
79439SOL     OW40213   3.426  14.313   6.228
79439SOL    HW140214   3.516  14.320   6.260
79439SOL    HW240215   3.373  14.315   6.307
79440SOL     OW40216   3.273  14.112  12.471
79440SOL    HW140217   3.258  14.079  12.560
79440SOL    HW240218   3.205  14.178  12.458
79441SOL     OW40219   2.166   9.362   6.578
79441SOL    HW140220   2.225   9.297   6.617
79441SOL    HW240221   2.130   9.318   6.501
79442SOL     OW40222  13.073   7.483   8.555
79442SOL    HW140223  13.087   7.577   8.553
79442SOL    HW240224  12.978   7.472   8.548
79443SOL     OW40225   6.625   9.436   9.703
79443SOL    HW140226   6.543   9.418   9.658
79443SOL    HW240227   6.619   9.528   9.729
79444SOL     OW40228   0.908   0.061  12.972
79444SOL    HW140229   0.914  14.841  12.969
79444SOL    HW240230   0.998   0.092  12.956
79445SOL     OW40231   2.471  14.368   5.682
79445SOL    HW140232   2.439  14.448   5.724
79445SOL    HW240233   2.565  14.383   5.671
79446SOL     OW40234  13.212   0.664   3.380
79446SOL    HW140235  13.303   0.635   3.386
79446SOL    HW240236  13.161   0.589   3.409
79447SOL     OW40237   6.168   6.056   5.257
79447SOL    HW140238   6.155   6.124   5.324
79447SOL    HW240239   6.227   5.993   5.297
79448SOL     OW40240   7.392   6.743   4.983
79448SOL    HW140241   7.369   6.674   5.045
79448SOL    HW240242   7.443   6.806   5.035
79449SOL     OW40243  14.008  10.695   8.527
79449SOL    HW140244  14.025  10.630   8.596
79449SOL    HW240245  14.064  10.770   8.551
79450SOL     OW40246   6.041   0.710   2.694
79450SOL    HW140247   6.057   0.654   2.618
79450SOL    HW240248   6.128   0.734   2.726
79451SOL     OW40249   9.594   3.892  12.497
79451SOL    HW140250   9.549   3.964  12.541
79451SOL    HW240251   9.580   3.908  12.403
79452SOL     OW40252   7.319  10.842  13.517
79452SOL    HW140253   7.376  10.765  13.522
79452SOL    HW240254   7.377  10.912  13.484
79453SOL     OW40255  10.907   6.807  13.781
79453SOL    HW140256  10.908   6.719  13.821
79453SOL    HW240257  10.952   6.796  13.698
79454SOL     OW40258   7.237   3.548  13.018
79454SOL    HW140259   7.155   3.563  13.065
79454SOL    HW240260   7.282   3.632  13.020
79455SOL     OW40261   8.074  14.523   0.261
79455SOL    HW140262   8.141  14.550   0.199
79455SOL    HW240263   8.123  14.494   0.338
79456SOL     OW40264   4.187  14.141   4.097
79456SOL    HW140265   4.122  14.077   4.066
79456SOL    HW240266   4.141  14.191   4.164
79457SOL     OW40267  14.817   2.197   0.207
79457SOL    HW140268  14.781   2.255   0.274
79457SOL    HW240269  14.741   2.150   0.172
79458SOL     OW40270   5.195  14.320  13.818
79458SOL    HW140271   5.275  14.284  13.857
79458SOL    HW240272   5.157  14.246  13.771
79459SOL     OW40273   5.265  11.886   1.180
79459SOL    HW140274   5.338  11.907   1.237
79459SOL    HW240275   5.207  11.961   1.187
79460SOL     OW40276  10.464  11.352  14.313
79460SOL    HW140277  10.553  11.352  14.278
79460SOL    HW240278  10.426  11.434  14.281
79461SOL     OW40279   5.557   2.781   2.720
79461SOL    HW140280   5.594   2.713   2.776
79461SOL    HW240281   5.482   2.815   2.768
79462SOL     OW40282   6.984  12.570   1.888
79462SOL    HW140283   6.902  12.613   1.863
79462SOL    HW240284   6.990  12.494   1.830
79463SOL     OW40285   0.315  11.772   0.364
79463SOL    HW140286   0.357  11.828   0.430
79463SOL    HW240287   0.339  11.812   0.280
79464SOL     OW40288  14.508  10.064  10.726
79464SOL    HW140289  14.562  10.118  10.668
79464SOL    HW240290  14.501  10.115  10.807
79465SOL     OW40291   3.525   3.247  14.558
79465SOL    HW140292   3.607   3.200  14.541
79465SOL    HW240293   3.475   3.239  14.477
79466SOL     OW40294   2.725  10.862  12.783
79466SOL    HW140295   2.806  10.884  12.736
79466SOL    HW240296   2.656  10.910  12.737
79467SOL     OW40297  12.611   3.540   4.683
79467SOL    HW140298  12.697   3.569   4.655
79467SOL    HW240299  12.561   3.620   4.695
79468SOL     OW40300  12.585  11.728  13.384
79468SOL    HW140301  12.599  11.804  13.327
79468SOL    HW240302  12.635  11.747  13.463
79469SOL     OW40303   5.533   6.200   1.447
79469SOL    HW140304   5.597   6.236   1.387
79469SOL    HW240305   5.504   6.119   1.405
79470SOL     OW40306  12.312   8.422   8.825
79470SOL    HW140307  12.245   8.386   8.767
79470SOL    HW240308  12.263   8.462   8.897
79471SOL     OW40309   4.276   6.714  14.114
79471SOL    HW140310   4.304   6.804  14.099
79471SOL    HW240311   4.349   6.661  14.083
79472SOL     OW40312   5.654   1.849   8.322
79472SOL    HW140313   5.678   1.856   8.414
79472SOL    HW240314   5.590   1.779   8.319
79473SOL     OW40315   7.189   6.940   8.099
79473SOL    HW140316   7.185   7.034   8.120
79473SOL    HW240317   7.213   6.898   8.182
79474SOL     OW40318   0.049   0.053   7.130
79474SOL    HW140319   0.014   0.138   7.158
79474SOL    HW240320   0.130   0.044   7.181
79475SOL     OW40321  13.963   6.973   8.670
79475SOL    HW140322  13.974   7.060   8.633
79475SOL    HW240323  13.991   6.914   8.599
79476SOL     OW40324  10.878  10.783   2.458
79476SOL    HW140325  10.972  10.795   2.468
79476SOL    HW240326  10.840  10.868   2.479
79477SOL     OW40327   4.318   0.389   8.096
79477SOL    HW140328   4.376   0.436   8.156
79477SOL    HW240329   4.369   0.313   8.069
79478SOL     OW40330   3.063   9.379  12.024
79478SOL    HW140331   3.064   9.296  11.977
79478SOL    HW240332   3.119   9.437  11.972
79479SOL     OW40333   0.304  10.439   5.702
79479SOL    HW140334   0.225  10.488   5.678
79479SOL    HW240335   0.322  10.466   5.792
79480SOL     OW40336   0.289   5.408   4.808
79480SOL    HW140337   0.340   5.337   4.846
79480SOL    HW240338   0.218   5.364   4.762
79481SOL     OW40339  11.110   7.961  10.354
79481SOL    HW140340  11.160   7.950  10.273
79481SOL    HW240341  11.019   7.952  10.327
79482SOL     OW40342  12.375   5.442  13.511
79482SOL    HW140343  12.360   5.495  13.590
79482SOL    HW240344  12.424   5.500  13.453
79483SOL     OW40345   2.833   8.220   9.294
79483SOL    HW140346   2.870   8.165   9.363
79483SOL    HW240347   2.776   8.282   9.341
79484SOL     OW40348   6.301   2.962   9.354
79484SOL    HW140349   6.265   2.926   9.435
79484SOL    HW240350   6.368   2.900   9.328
79485SOL     OW40351   9.164   0.846  14.324
79485SOL    HW140352   9.143   0.888  14.408
79485SOL    HW240353   9.111   0.893  14.260
79486SOL     OW40354  14.442   9.691   3.407
79486SOL    HW140355  14.516   9.635   3.428
79486SOL    HW240356  14.375   9.632   3.373
79487SOL     OW40357  14.535   2.997   3.633
79487SOL    HW140358  14.585   3.070   3.668
79487SOL    HW240359  14.443   3.024   3.641
79488SOL     OW40360   5.295   3.252   5.763
79488SOL    HW140361   5.251   3.168   5.750
79488SOL    HW240362   5.224   3.314   5.777
79489SOL     OW40363   5.966  13.474  14.459
79489SOL    HW140364   5.958  13.493  14.552
79489SOL    HW240365   5.968  13.379  14.453
79490SOL     OW40366   4.959   0.351   5.767
79490SOL    HW140367   4.993   0.276   5.718
79490SOL    HW240368   4.873   0.321   5.798
79491SOL     OW40369  10.146  13.810  11.053
79491SOL    HW140370  10.184  13.738  11.103
79491SOL    HW240371  10.221  13.854  11.013
79492SOL     OW40372  10.811   6.054   6.776
79492SOL    HW140373  10.849   6.103   6.704
79492SOL    HW240374  10.846   5.965   6.766
79493SOL     OW40375   2.753  10.307   4.226
79493SOL    HW140376   2.843  10.276   4.217
79493SOL    HW240377   2.752  10.354   4.310
79494SOL     OW40378   6.549  11.912  14.722
79494SOL    HW140379   6.620  11.853  14.696
79494SOL    HW240380   6.594  11.990  14.755
79495SOL     OW40381   4.953  12.342   7.838
79495SOL    HW140382   4.937  12.412   7.775
79495SOL    HW240383   5.026  12.374   7.892
79496SOL     OW40384  13.088  12.370  11.043
79496SOL    HW140385  13.118  12.421  11.118
79496SOL    HW240386  13.084  12.280  11.075
79497SOL     OW40387   0.214   9.418  13.238
79497SOL    HW140388   0.151   9.349  13.214
79497SOL    HW240389   0.284   9.371  13.284
79498SOL     OW40390   5.766  12.326   4.112
79498SOL    HW140391   5.677  12.326   4.148
79498SOL    HW240392   5.768  12.404   4.056
79499SOL     OW40393   4.629   8.878   9.536
79499SOL    HW140394   4.720   8.849   9.526
79499SOL    HW240395   4.620   8.951   9.475
79500SOL     OW40396   5.741  12.779  14.583
79500SOL    HW140397   5.729  12.689  14.613
79500SOL    HW240398   5.659  12.800  14.538
79501SOL     OW40399   4.773   9.474   5.021
79501SOL    HW140400   4.776   9.558   5.067
79501SOL    HW240401   4.691   9.476   4.972
79502SOL     OW40402   6.789   7.533   1.932
79502SOL    HW140403   6.785   7.614   1.881
79502SOL    HW240404   6.880   7.504   1.923
79503SOL     OW40405  14.366   8.200   5.827
79503SOL    HW140406  14.421   8.177   5.752
79503SOL    HW240407  14.359   8.119   5.878
79504SOL     OW40408  11.748   7.389   1.657
79504SOL    HW140409  11.765   7.479   1.628
79504SOL    HW240410  11.693   7.398   1.735
79505SOL     OW40411   4.356   9.848   8.660
79505SOL    HW140412   4.443   9.822   8.630
79505SOL    HW240413   4.308   9.869   8.580
79506SOL     OW40414  13.685   7.892   1.108
79506SOL    HW140415  13.631   7.867   1.184
79506SOL    HW240416  13.633   7.864   1.033
79507SOL     OW40417   2.217  10.485   0.182
79507SOL    HW140418   2.152  10.511   0.248
79507SOL    HW240419   2.195  10.394   0.162
79508SOL     OW40420  14.279  14.805   8.289
79508SOL    HW140421  14.241  14.732   8.241
79508SOL    HW240422  14.245  14.795   8.378
79509SOL     OW40423   6.295   1.595  10.371
79509SOL    HW140424   6.308   1.671  10.428
79509SOL    HW240425   6.346   1.615  10.292
79510SOL     OW40426   8.333   1.152   9.637
79510SOL    HW140427   8.346   1.066   9.597
79510SOL    HW240428   8.415   1.199   9.619
79511SOL     OW40429   3.968   5.784  12.743
79511SOL    HW140430   3.915   5.806  12.667
79511SOL    HW240431   3.923   5.825  12.817
79512SOL     OW40432   3.047  13.026   2.149
79512SOL    HW140433   2.996  12.989   2.221
79512SOL    HW240434   3.016  13.117   2.143
79513SOL     OW40435  11.911  12.606   6.675
79513SOL    HW140436  11.898  12.667   6.602
79513SOL    HW240437  11.914  12.520   6.635
79514SOL     OW40438  11.016   4.602   2.233
79514SOL    HW140439  10.931   4.644   2.245
79514SOL    HW240440  11.060   4.612   2.317
79515SOL     OW40441  14.315   1.927   5.317
79515SOL    HW140442  14.389   1.869   5.304
79515SOL    HW240443  14.352   2.005   5.359
79516SOL     OW40444   5.542   9.470  10.607
79516SOL    HW140445   5.616   9.498  10.553
79516SOL    HW240446   5.582   9.421  10.679
79517SOL     OW40447  11.430   9.871   2.139
79517SOL    HW140448  11.348   9.916   2.159
79517SOL    HW240449  11.434   9.800   2.202
79518SOL     OW40450  12.069   9.052   9.666
79518SOL    HW140451  12.149   9.001   9.673
79518SOL    HW240452  12.097   9.138   9.636
79519SOL     OW40453   7.864   4.466   9.342
79519SOL    HW140454   7.843   4.396   9.280
79519SOL    HW240455   7.958   4.456   9.359
79520SOL     OW40456   6.775   1.930   1.536
79520SOL    HW140457   6.715   1.908   1.465
79520SOL    HW240458   6.857   1.952   1.492
79521SOL     OW40459  10.900   7.912   2.805
79521SOL    HW140460  10.937   7.962   2.878
79521SOL    HW240461  10.965   7.845   2.787
79522SOL     OW40462   9.619   1.228  14.132
79522SOL    HW140463   9.675   1.153  14.152
79522SOL    HW240464   9.673   1.304  14.156
79523SOL     OW40465  13.733  12.823   8.910
79523SOL    HW140466  13.732  12.742   8.858
79523SOL    HW240467  13.791  12.803   8.983
79524SOL     OW40468   4.942   7.732   0.423
79524SOL    HW140469   4.911   7.702   0.337
79524SOL    HW240470   4.959   7.651   0.472
79525SOL     OW40471   4.400   6.782  13.568
79525SOL    HW140472   4.313   6.820  13.572
79525SOL    HW240473   4.391   6.706  13.511
79526SOL     OW40474  12.404   1.045  11.288
79526SOL    HW140475  12.474   1.008  11.234
79526SOL    HW240476  12.339   1.076  11.225
79527SOL     OW40477   6.495  14.394   8.092
79527SOL    HW140478   6.444  14.313   8.092
79527SOL    HW240479   6.432  14.462   8.115
79528SOL     OW40480  10.091  13.619   5.009
79528SOL    HW140481  10.143  13.538   5.010
79528SOL    HW240482  10.096  13.648   4.918
79529SOL     OW40483  10.190   6.554   0.782
79529SOL    HW140484  10.247   6.630   0.772
79529SOL    HW240485  10.120   6.584   0.839
79530SOL     OW40486   0.106   1.760   7.142
79530SOL    HW140487   0.131   1.838   7.190
79530SOL    HW240488   0.025   1.784   7.096
79531SOL     OW40489  11.004   5.311  11.764
79531SOL    HW140490  11.033   5.362  11.688
79531SOL    HW240491  11.030   5.364  11.839
79532SOL     OW40492   6.807   8.182   5.943
79532SOL    HW140493   6.827   8.190   5.850
79532SOL    HW240494   6.803   8.088   5.959
79533SOL     OW40495  10.352  13.125  12.237
79533SOL    HW140496  10.398  13.041  12.228
79533SOL    HW240497  10.260  13.101  12.244
79534SOL     OW40498  11.628   0.386   9.476
79534SOL    HW140499  11.579   0.398   9.557
79534SOL    HW240500  11.561   0.383   9.407
79535SOL     OW40501   1.031   0.200   1.563
79535SOL    HW140502   1.088   0.178   1.489
79535SOL    HW240503   0.951   0.234   1.522
79536SOL     OW40504   6.217   8.902   0.858
79536SOL    HW140505   6.296   8.869   0.901
79536SOL    HW240506   6.146   8.852   0.897
79537SOL     OW40507   3.824  11.391   9.218
79537SOL    HW140508   3.855  11.418   9.132
79537SOL    HW240509   3.731  11.372   9.205
79538SOL     OW40510   1.976  12.885  13.300
79538SOL    HW140511   2.016  12.968  13.327
79538SOL    HW240512   2.021  12.862  13.218
79539SOL     OW40513   3.080   5.967   9.235
79539SOL    HW140514   3.049   6.011   9.314
79539SOL    HW240515   3.175   5.982   9.235
79540SOL     OW40516   3.268  13.007   6.987
79540SOL    HW140517   3.319  13.024   6.908
79540SOL    HW240518   3.182  13.044   6.968
79541SOL     OW40519   5.102   4.236   9.198
79541SOL    HW140520   5.097   4.237   9.294
79541SOL    HW240521   5.176   4.293   9.177
79542SOL     OW40522   8.729   5.419  13.010
79542SOL    HW140523   8.642   5.447  12.981
79542SOL    HW240524   8.751   5.479  13.081
79543SOL     OW40525   3.126  13.905   7.551
79543SOL    HW140526   3.078  13.987   7.537
79543SOL    HW240527   3.156  13.911   7.642
79544SOL     OW40528   3.740   9.384  13.863
79544SOL    HW140529   3.727   9.478  13.872
79544SOL    HW240530   3.702   9.363  13.778
79545SOL     OW40531  13.605  12.505  13.253
79545SOL    HW140532  13.685  12.512  13.304
79545SOL    HW240533  13.587  12.411  13.248
79546SOL     OW40534  13.821  14.572   6.432
79546SOL    HW140535  13.733  14.610   6.439
79546SOL    HW240536  13.871  14.635   6.381
79547SOL     OW40537   1.175   2.734   3.037
79547SOL    HW140538   1.097   2.681   3.053
79547SOL    HW240539   1.156   2.782   2.957
79548SOL     OW40540   0.717   7.421   4.686
79548SOL    HW140541   0.710   7.426   4.781
79548SOL    HW240542   0.805   7.387   4.670
79549SOL     OW40543  14.461  12.835  12.738
79549SOL    HW140544  14.406  12.787  12.677
79549SOL    HW240545  14.533  12.775  12.758
79550SOL     OW40546   7.796   4.797   5.323
79550SOL    HW140547   7.886   4.813   5.295
79550SOL    HW240548   7.798   4.806   5.418
79551SOL     OW40549   4.102   7.157   3.403
79551SOL    HW140550   4.027   7.173   3.460
79551SOL    HW240551   4.177   7.192   3.452
79552SOL     OW40552  12.193  11.025   4.082
79552SOL    HW140553  12.273  11.012   4.032
79552SOL    HW240554  12.163  11.112   4.057
79553SOL     OW40555   3.975   8.495   9.178
79553SOL    HW140556   4.030   8.567   9.147
79553SOL    HW240557   3.916   8.476   9.105
79554SOL     OW40558  10.623  11.309   3.245
79554SOL    HW140559  10.713  11.338   3.234
79554SOL    HW240560  10.569  11.383   3.218
79555SOL     OW40561  12.443   2.335   0.263
79555SOL    HW140562  12.482   2.277   0.197
79555SOL    HW240563  12.517   2.362   0.317
79556SOL     OW40564   3.262   9.643   4.558
79556SOL    HW140565   3.298   9.602   4.480
79556SOL    HW240566   3.167   9.641   4.544
79557SOL     OW40567   8.266   0.911   5.554
79557SOL    HW140568   8.236   1.001   5.566
79557SOL    HW240569   8.324   0.894   5.628
79558SOL     OW40570   2.968  14.082   3.657
79558SOL    HW140571   2.925  14.007   3.698
79558SOL    HW240572   3.005  14.048   3.576
79559SOL     OW40573   6.210  14.551   0.233
79559SOL    HW140574   6.132  14.496   0.233
79559SOL    HW240575   6.243  14.544   0.143
79560SOL     OW40576   1.031   4.345  10.013
79560SOL    HW140577   1.088   4.337   9.937
79560SOL    HW240578   1.090   4.356  10.087
79561SOL     OW40579  10.100   3.587  10.798
79561SOL    HW140580  10.020   3.591  10.746
79561SOL    HW240581  10.135   3.676  10.794
79562SOL     OW40582   7.451   7.950  14.762
79562SOL    HW140583   7.547   7.946  14.764
79562SOL    HW240584   7.425   7.940  14.854
79563SOL     OW40585   9.928   1.598   1.294
79563SOL    HW140586   9.853   1.579   1.350
79563SOL    HW240587  10.000   1.616   1.355
79564SOL     OW40588  14.448  12.147  11.870
79564SOL    HW140589  14.501  12.088  11.924
79564SOL    HW240590  14.502  12.225  11.861
79565SOL     OW40591   3.659  13.214   4.577
79565SOL    HW140592   3.574  13.169   4.575
79565SOL    HW240593   3.666  13.245   4.667
79566SOL     OW40594   0.976  11.317   5.097
79566SOL    HW140595   0.959  11.321   5.002
79566SOL    HW240596   1.033  11.241   5.108
79567SOL     OW40597  10.469  10.270   3.126
79567SOL    HW140598  10.525  10.252   3.202
79567SOL    HW240599  10.524  10.323   3.068
79568SOL     OW40600  10.950   7.865   8.256
79568SOL    HW140601  11.021   7.811   8.222
79568SOL    HW240602  10.994   7.933   8.307
79569SOL     OW40603   9.911   9.528  12.974
79569SOL    HW140604   9.956   9.502  12.894
79569SOL    HW240605   9.955   9.480  13.044
79570SOL     OW40606   0.194  10.063   9.955
79570SOL    HW140607   0.182  10.017  10.038
79570SOL    HW240608   0.221   9.995   9.893
79571SOL     OW40609   3.952   2.745   2.003
79571SOL    HW140610   3.952   2.665   2.056
79571SOL    HW240611   3.871   2.739   1.951
79572SOL     OW40612  12.843   0.176  12.017
79572SOL    HW140613  12.783   0.104  11.998
79572SOL    HW240614  12.787   0.252  12.033
79573SOL     OW40615   6.446   9.721  11.329
79573SOL    HW140616   6.506   9.771  11.384
79573SOL    HW240617   6.448   9.633  11.364
79574SOL     OW40618  13.067   3.071   6.807
79574SOL    HW140619  13.055   3.085   6.901
79574SOL    HW240620  13.107   2.984   6.801
79575SOL     OW40621   6.741  10.474   5.287
79575SOL    HW140622   6.698  10.489   5.202
79575SOL    HW240623   6.765  10.382   5.285
79576SOL     OW40624   4.659   3.512   0.236
79576SOL    HW140625   4.665   3.430   0.188
79576SOL    HW240626   4.741   3.557   0.217
79577SOL     OW40627  14.680   4.861  14.424
79577SOL    HW140628  14.712   4.951  14.416
79577SOL    HW240629  14.739   4.820  14.487
79578SOL     OW40630   1.069  14.006   7.500
79578SOL    HW140631   1.145  13.990   7.445
79578SOL    HW240632   1.081  14.094   7.534
79579SOL     OW40633  10.549   2.231   2.621
79579SOL    HW140634  10.522   2.210   2.711
79579SOL    HW240635  10.481   2.190   2.566
79580SOL     OW40636   6.294  12.832   5.725
79580SOL    HW140637   6.216  12.871   5.764
79580SOL    HW240638   6.367  12.883   5.762
79581SOL     OW40639  11.877  10.813   8.510
79581SOL    HW140640  11.907  10.722   8.505
79581SOL    HW240641  11.792  10.813   8.468
79582SOL     OW40642   2.141   9.269   9.246
79582SOL    HW140643   2.116   9.321   9.322
79582SOL    HW240644   2.066   9.211   9.231
79583SOL     OW40645   2.877   7.082   5.956
79583SOL    HW140646   2.919   7.153   5.907
79583SOL    HW240647   2.805   7.053   5.899
79584SOL     OW40648   5.583   4.562   0.675
79584SOL    HW140649   5.584   4.478   0.722
79584SOL    HW240650   5.505   4.607   0.709
79585SOL     OW40651  12.548   0.055   6.126
79585SOL    HW140652  12.485  14.858   6.131
79585SOL    HW240653  12.496   0.134   6.138
79586SOL     OW40654   4.000   7.448   4.507
79586SOL    HW140655   3.933   7.471   4.443
79586SOL    HW240656   3.954   7.397   4.573
79587SOL     OW40657   9.911  14.578   4.651
79587SOL    HW140658   9.874  14.598   4.565
79587SOL    HW240659   9.855  14.625   4.712
79588SOL     OW40660  11.581  14.837   8.441
79588SOL    HW140661  11.498  14.792   8.422
79588SOL    HW240662  11.557   0.030   8.504
79589SOL     OW40663  14.539  14.651   4.178
79589SOL    HW140664  14.563  14.734   4.137
79589SOL    HW240665  14.622  14.607   4.194
79590SOL     OW40666   2.258   3.831   6.451
79590SOL    HW140667   2.341   3.792   6.421
79590SOL    HW240668   2.200   3.756   6.464
79591SOL     OW40669   6.416   1.829   9.698
79591SOL    HW140670   6.394   1.893   9.630
79591SOL    HW240671   6.349   1.761   9.688
79592SOL     OW40672   0.650   9.930  12.287
79592SOL    HW140673   0.579   9.947  12.349
79592SOL    HW240674   0.609   9.939  12.201
79593SOL     OW40675   5.063  14.070   5.680
79593SOL    HW140676   5.079  14.102   5.591
79593SOL    HW240677   5.150  14.059   5.718
79594SOL     OW40678   2.462   8.924   3.525
79594SOL    HW140679   2.386   8.895   3.575
79594SOL    HW240680   2.479   9.013   3.556
79595SOL     OW40681   9.762   1.472   7.714
79595SOL    HW140682   9.813   1.552   7.702
79595SOL    HW240683   9.677   1.503   7.746
79596SOL     OW40684   9.838   1.894   4.189
79596SOL    HW140685   9.907   1.960   4.187
79596SOL    HW240686   9.757   1.945   4.182
79597SOL     OW40687   8.775   6.541   4.189
79597SOL    HW140688   8.865   6.555   4.217
79597SOL    HW240689   8.764   6.599   4.114
79598SOL     OW40690   6.675   6.715   4.927
79598SOL    HW140691   6.744   6.759   4.977
79598SOL    HW240692   6.649   6.641   4.982
79599SOL     OW40693   0.666   6.764  10.615
79599SOL    HW140694   0.630   6.675  10.619
79599SOL    HW240695   0.738   6.757  10.553
79600SOL     OW40696  11.906   3.761   5.881
79600SOL    HW140697  11.907   3.761   5.976
79600SOL    HW240698  11.954   3.683   5.855
79601SOL     OW40699   2.007  12.240  11.884
79601SOL    HW140700   2.070  12.196  11.942
79601SOL    HW240701   1.977  12.170  11.825
79602SOL     OW40702   3.537  10.586  11.068
79602SOL    HW140703   3.569  10.645  11.001
79602SOL    HW240704   3.523  10.503  11.022
79603SOL     OW40705   7.605   9.545   5.270
79603SOL    HW140706   7.558   9.468   5.302
79603SOL    HW240707   7.649   9.515   5.191
79604SOL     OW40708   7.811   9.278   7.856
79604SOL    HW140709   7.725   9.317   7.840
79604SOL    HW240710   7.793   9.185   7.872
79605SOL     OW40711   1.986  14.307  11.513
79605SOL    HW140712   1.905  14.347  11.482
79605SOL    HW240713   1.970  14.286  11.605
79606SOL     OW40714   1.632   4.129  10.006
79606SOL    HW140715   1.645   4.104   9.914
79606SOL    HW240716   1.716   4.108  10.048
79607SOL     OW40717   7.726   3.395   2.630
79607SOL    HW140718   7.801   3.448   2.658
79607SOL    HW240719   7.710   3.422   2.540
79608SOL     OW40720   8.909   0.416   8.475
79608SOL    HW140721   8.944   0.464   8.550
79608SOL    HW240722   8.851   0.479   8.431
79609SOL     OW40723   8.951  11.929  10.932
79609SOL    HW140724   8.988  11.883  11.007
79609SOL    HW240725   8.862  11.896  10.925
79610SOL     OW40726   5.890  14.777  13.831
79610SOL    HW140727   5.831  14.739  13.897
79610SOL    HW240728   5.974  14.733  13.847
79611SOL     OW40729  12.893   1.302  10.629
79611SOL    HW140730  12.848   1.254  10.560
79611SOL    HW240731  12.965   1.244  10.656
79612SOL     OW40732   0.294   0.961  13.998
79612SOL    HW140733   0.233   0.935  13.929
79612SOL    HW240734   0.357   0.889  14.003
79613SOL     OW40735   5.144  12.640   0.109
79613SOL    HW140736   5.069  12.599   0.066
79613SOL    HW240737   5.105  12.711   0.161
79614SOL     OW40738  10.045  14.316   7.913
79614SOL    HW140739   9.967  14.293   7.863
79614SOL    HW240740  10.050  14.412   7.906
79615SOL     OW40741   5.593   2.937   0.506
79615SOL    HW140742   5.515   2.983   0.538
79615SOL    HW240743   5.579   2.927   0.412
79616SOL     OW40744  12.884  11.616  10.248
79616SOL    HW140745  12.877  11.711  10.236
79616SOL    HW240746  12.955  11.605  10.311
79617SOL     OW40747   2.197  10.620   1.920
79617SOL    HW140748   2.160  10.586   1.839
79617SOL    HW240749   2.212  10.542   1.974
79618SOL     OW40750   8.944  11.347  14.076
79618SOL    HW140751   8.987  11.283  14.020
79618SOL    HW240752   8.931  11.301  14.159
79619SOL     OW40753  14.742  13.349   0.456
79619SOL    HW140754  14.761  13.403   0.533
79619SOL    HW240755  14.659  13.307   0.477
79620SOL     OW40756  10.282   4.242   1.523
79620SOL    HW140757  10.274   4.152   1.492
79620SOL    HW240758  10.370   4.269   1.495
79621SOL     OW40759  14.571   0.370   0.316
79621SOL    HW140760  14.476   0.372   0.326
79621SOL    HW240761  14.604   0.413   0.396
79622SOL     OW40762   7.744  12.088  14.723
79622SOL    HW140763   7.766  12.165  14.775
79622SOL    HW240764   7.730  12.122  14.635
79623SOL     OW40765  13.090   7.877   1.095
79623SOL    HW140766  13.067   7.837   1.178
79623SOL    HW240767  13.161   7.822   1.061
79624SOL     OW40768  13.428  10.212   5.677
79624SOL    HW140769  13.424  10.232   5.584
79624SOL    HW240770  13.413  10.296   5.721
79625SOL     OW40771   4.139   0.536   5.614
79625SOL    HW140772   4.101   0.463   5.566
79625SOL    HW240773   4.078   0.608   5.600
79626SOL     OW40774  13.899   9.245   5.085
79626SOL    HW140775  13.856   9.163   5.107
79626SOL    HW240776  13.954   9.264   5.161
79627SOL     OW40777   4.182   8.739   5.892
79627SOL    HW140778   4.096   8.779   5.881
79627SOL    HW240779   4.242   8.813   5.900
79628SOL     OW40780  14.161   7.356   4.284
79628SOL    HW140781  14.225   7.393   4.222
79628SOL    HW240782  14.079   7.353   4.235
79629SOL     OW40783   9.140   0.863   8.541
79629SOL    HW140784   9.123   0.926   8.611
79629SOL    HW240785   9.221   0.893   8.501
79630SOL     OW40786   8.620  11.598   7.797
79630SOL    HW140787   8.630  11.537   7.870
79630SOL    HW240788   8.707  11.636   7.786
79631SOL     OW40789   0.420   0.861  10.546
79631SOL    HW140790   0.458   0.949  10.545
79631SOL    HW240791   0.471   0.812  10.481
79632SOL     OW40792   5.519  11.571  13.718
79632SOL    HW140793   5.448  11.558  13.780
79632SOL    HW240794   5.569  11.645  13.754
79633SOL     OW40795   3.565   1.121   9.444
79633SOL    HW140796   3.520   1.037   9.451
79633SOL    HW240797   3.649   1.101   9.402
79634SOL     OW40798   8.062   8.574  10.800
79634SOL    HW140799   8.104   8.619  10.726
79634SOL    HW240800   7.986   8.628  10.820
79635SOL     OW40801  11.479  11.691   5.045
79635SOL    HW140802  11.438  11.756   5.103
79635SOL    HW240803  11.559  11.734   5.013
79636SOL     OW40804   7.703   7.296   1.818
79636SOL    HW140805   7.746   7.210   1.809
79636SOL    HW240806   7.770   7.351   1.859
79637SOL     OW40807   7.422   8.219  10.494
79637SOL    HW140808   7.419   8.239  10.400
79637SOL    HW240809   7.509   8.180  10.507
79638SOL     OW40810   9.019   8.392   0.059
79638SOL    HW140811   9.051   8.303   0.045
79638SOL    HW240812   8.948   8.381   0.123
79639SOL     OW40813  10.765  11.658   8.387
79639SOL    HW140814  10.807  11.658   8.301
79639SOL    HW240815  10.747  11.566   8.405
79640SOL     OW40816  10.719  10.170   8.539
79640SOL    HW140817  10.753  10.130   8.619
79640SOL    HW240818  10.633  10.129   8.526
79641SOL     OW40819  11.381   0.814   0.642
79641SOL    HW140820  11.337   0.789   0.560
79641SOL    HW240821  11.361   0.907   0.652
79642SOL     OW40822   2.924  11.539   6.838
79642SOL    HW140823   2.988  11.492   6.785
79642SOL    HW240824   2.841  11.493   6.824
79643SOL     OW40825   4.847  10.848   6.723
79643SOL    HW140826   4.886  10.880   6.642
79643SOL    HW240827   4.785  10.781   6.694
79644SOL     OW40828   5.721   0.040   8.581
79644SOL    HW140829   5.714  14.820   8.578
79644SOL    HW240830   5.742   0.066   8.492
79645SOL     OW40831   0.334   1.345   8.822
79645SOL    HW140832   0.301   1.258   8.799
79645SOL    HW240833   0.395   1.366   8.752
79646SOL     OW40834  10.331  11.690   4.540
79646SOL    HW140835  10.393  11.763   4.543
79646SOL    HW240836  10.278  11.707   4.463
79647SOL     OW40837   2.967   2.509  12.892
79647SOL    HW140838   3.001   2.559  12.817
79647SOL    HW240839   2.899   2.565  12.929
79648SOL     OW40840   6.040   2.966   8.952
79648SOL    HW140841   6.121   3.016   8.960
79648SOL    HW240842   6.034   2.943   8.860
79649SOL     OW40843   3.007   4.020  12.433
79649SOL    HW140844   3.074   4.057  12.491
79649SOL    HW240845   3.050   3.943  12.395
79650SOL     OW40846   5.428  12.162  14.043
79650SOL    HW140847   5.354  12.112  14.075
79650SOL    HW240848   5.394  12.208  13.966
79651SOL     OW40849  10.126   6.256   3.960
79651SOL    HW140850  10.196   6.305   4.004
79651SOL    HW240851  10.133   6.281   3.868
79652SOL     OW40852   0.197   2.605   4.488
79652SOL    HW140853   0.266   2.599   4.553
79652SOL    HW240854   0.232   2.663   4.421
79653SOL     OW40855   7.027   8.343   4.926
79653SOL    HW140856   7.120   8.359   4.939
79653SOL    HW240857   6.984   8.420   4.963
79654SOL     OW40858   3.903  13.672  11.072
79654SOL    HW140859   3.849  13.594  11.090
79654SOL    HW240860   3.841  13.736  11.036
79655SOL     OW40861   2.803  12.132  14.640
79655SOL    HW140862   2.838  12.043  14.637
79655SOL    HW240863   2.879  12.188  14.646
79656SOL     OW40864  13.891   0.205   9.572
79656SOL    HW140865  13.867   0.114   9.556
79656SOL    HW240866  13.985   0.209   9.555
79657SOL     OW40867   0.730   5.488   9.045
79657SOL    HW140868   0.679   5.435   8.984
79657SOL    HW240869   0.718   5.446   9.130
79658SOL     OW40870   5.379   8.416  12.837
79658SOL    HW140871   5.380   8.511  12.841
79658SOL    HW240872   5.438   8.387  12.906
79659SOL     OW40873   5.640   5.480   6.189
79659SOL    HW140874   5.736   5.482   6.183
79659SOL    HW240875   5.622   5.489   6.283
79660SOL     OW40876   2.742   4.868   3.676
79660SOL    HW140877   2.722   4.790   3.727
79660SOL    HW240878   2.834   4.858   3.651
79661SOL     OW40879  11.532   3.483   9.437
79661SOL    HW140880  11.588   3.557   9.414
79661SOL    HW240881  11.479   3.514   9.510
79662SOL     OW40882  11.155   9.896   3.966
79662SOL    HW140883  11.150   9.801   3.983
79662SOL    HW240884  11.192   9.932   4.046
79663SOL     OW40885   1.168  12.089  12.419
79663SOL    HW140886   1.092  12.146  12.428
79663SOL    HW240887   1.201  12.077  12.508
79664SOL     OW40888   6.969   1.389   9.928
79664SOL    HW140889   6.983   1.313   9.872
79664SOL    HW240890   6.905   1.442   9.881
79665SOL     OW40891   8.821   6.036  11.632
79665SOL    HW140892   8.739   6.083  11.617
79665SOL    HW240893   8.889   6.098  11.607
79666SOL     OW40894  11.630   6.529   7.821
79666SOL    HW140895  11.618   6.436   7.840
79666SOL    HW240896  11.547   6.570   7.845
79667SOL     OW40897   3.314  12.384  10.787
79667SOL    HW140898   3.374  12.431  10.845
79667SOL    HW240899   3.264  12.453  10.743
79668SOL     OW40900  10.505   1.019   3.853
79668SOL    HW140901  10.465   1.052   3.934
79668SOL    HW240902  10.562   0.947   3.882
79669SOL     OW40903  12.347   8.956   2.572
79669SOL    HW140904  12.267   8.954   2.519
79669SOL    HW240905  12.316   8.952   2.662
79670SOL     OW40906  10.645   7.788   1.569
79670SOL    HW140907  10.569   7.845   1.562
79670SOL    HW240908  10.663   7.784   1.663
79671SOL     OW40909   4.408  11.930  12.786
79671SOL    HW140910   4.418  11.937  12.691
79671SOL    HW240911   4.357  11.850  12.799
79672SOL     OW40912   4.804  13.705  10.409
79672SOL    HW140913   4.887  13.724  10.366
79672SOL    HW240914   4.751  13.784  10.395
79673SOL     OW40915   7.390  12.489   6.105
79673SOL    HW140916   7.337  12.411   6.122
79673SOL    HW240917   7.471  12.455   6.067
79674SOL     OW40918   5.923   1.392  10.171
79674SOL    HW140919   5.972   1.313  10.191
79674SOL    HW240920   5.966   1.460  10.223
79675SOL     OW40921   4.940  14.149  11.321
79675SOL    HW140922   5.013  14.091  11.343
79675SOL    HW240923   4.979  14.219  11.268
79676SOL     OW40924   2.980  13.054   0.226
79676SOL    HW140925   3.008  12.966   0.254
79676SOL    HW240926   2.891  13.041   0.194
79677SOL     OW40927  12.545  10.324  13.146
79677SOL    HW140928  12.461  10.320  13.099
79677SOL    HW240929  12.544  10.249  13.204
79678SOL     OW40930   8.142   9.870  12.577
79678SOL    HW140931   8.095   9.818  12.642
79678SOL    HW240932   8.151   9.957  12.616
79679SOL     OW40933   6.019   8.756   1.493
79679SOL    HW140934   6.062   8.840   1.506
79679SOL    HW240935   5.929   8.778   1.472
79680SOL     OW40936   8.611   7.709  10.949
79680SOL    HW140937   8.670   7.776  10.982
79680SOL    HW240938   8.524   7.748  10.954
79681SOL     OW40939   5.253   3.857   0.298
79681SOL    HW140940   5.317   3.786   0.304
79681SOL    HW240941   5.300   3.929   0.257
79682SOL     OW40942   2.025   7.550   9.540
79682SOL    HW140943   2.076   7.471   9.557
79682SOL    HW240944   2.019   7.555   9.445
79683SOL     OW40945   9.433   0.029   3.118
79683SOL    HW140946   9.410  14.817   3.150
79683SOL    HW240947   9.431   0.084   3.196
79684SOL     OW40948   8.141   5.026   4.620
79684SOL    HW140949   8.219   4.971   4.627
79684SOL    HW240950   8.073   4.979   4.669
79685SOL     OW40951  14.578   9.948   8.276
79685SOL    HW140952  14.583   9.858   8.307
79685SOL    HW240953  14.484   9.966   8.270
79686SOL     OW40954   7.992   2.826   7.454
79686SOL    HW140955   7.949   2.805   7.537
79686SOL    HW240956   7.966   2.916   7.436
79687SOL     OW40957   1.389   4.482   3.078
79687SOL    HW140958   1.324   4.475   3.148
79687SOL    HW240959   1.383   4.572   3.047
79688SOL     OW40960   0.653   7.434   0.305
79688SOL    HW140961   0.711   7.472   0.371
79688SOL    HW240962   0.653   7.340   0.323
79689SOL     OW40963   5.133   9.566  13.914
79689SOL    HW140964   5.202   9.523  13.963
79689SOL    HW240965   5.170   9.581  13.827
79690SOL     OW40966   6.522   6.780   2.111
79690SOL    HW140967   6.561   6.836   2.044
79690SOL    HW240968   6.513   6.695   2.068
79691SOL     OW40969  10.266   5.860  11.168
79691SOL    HW140970  10.248   5.781  11.116
79691SOL    HW240971  10.297   5.924  11.104
79692SOL     OW40972   5.154   6.222   9.707
79692SOL    HW140973   5.099   6.297   9.686
79692SOL    HW240974   5.096   6.161   9.753
79693SOL     OW40975   3.593   4.410   3.870
79693SOL    HW140976   3.610   4.389   3.778
79693SOL    HW240977   3.548   4.495   3.867
79694SOL     OW40978   9.155   6.340   9.796
79694SOL    HW140979   9.118   6.322   9.710
79694SOL    HW240980   9.079   6.342   9.855
79695SOL     OW40981   9.754  13.826  13.318
79695SOL    HW140982   9.729  13.738  13.344
79695SOL    HW240983   9.739  13.880  13.395
79696SOL     OW40984   5.813   3.787   3.345
79696SOL    HW140985   5.901   3.749   3.343
79696SOL    HW240986   5.829   3.882   3.344
79697SOL     OW40987  10.082  14.471  14.864
79697SOL    HW140988   9.998  14.515   0.001
79697SOL    HW240989  10.101  14.431   0.075
79698SOL     OW40990  13.015  13.676  14.598
79698SOL    HW140991  13.089  13.620  14.576
79698SOL    HW240992  13.027  13.699  14.690
79699SOL     OW40993  12.979   9.316   6.017
79699SOL    HW140994  12.988   9.271   6.101
79699SOL    HW240995  13.038   9.391   6.023
79700SOL     OW40996  10.741  12.927   2.211
79700SOL    HW140997  10.731  12.925   2.306
79700SOL    HW240998  10.653  12.944   2.178
79701SOL     OW40999  14.080  10.217   6.735
79701SOL    HW141000  14.057  10.221   6.828
79701SOL    HW241001  14.031  10.142   6.702
79702SOL     OW41002   0.280   2.584  10.261
79702SOL    HW141003   0.261   2.552  10.349
79702SOL    HW241004   0.208   2.550  10.207
79703SOL     OW41005  10.616   1.539   6.345
79703SOL    HW141006  10.544   1.475   6.353
79703SOL    HW241007  10.575   1.623   6.366
79704SOL     OW41008   9.864   9.777  13.028
79704SOL    HW141009   9.953   9.811  13.015
79704SOL    HW241010   9.866   9.689  12.991
79705SOL     OW41011  12.062   4.482  13.970
79705SOL    HW141012  11.977   4.476  14.015
79705SOL    HW241013  12.099   4.394  13.976
79706SOL     OW41014   7.965   5.422   7.383
79706SOL    HW141015   7.989   5.511   7.411
79706SOL    HW241016   7.882   5.434   7.336
79707SOL     OW41017  10.301   0.811   7.242
79707SOL    HW141018  10.234   0.746   7.264
79707SOL    HW241019  10.324   0.851   7.326
79708SOL     OW41020   8.401  11.983   2.993
79708SOL    HW141021   8.362  11.920   2.932
79708SOL    HW241022   8.348  12.062   2.983
79709SOL     OW41023   2.609  12.035   7.363
79709SOL    HW141024   2.688  11.981   7.357
79709SOL    HW241025   2.546  11.980   7.410
79710SOL     OW41026  10.509   6.885  13.483
79710SOL    HW141027  10.423   6.928  13.482
79710SOL    HW241028  10.492   6.799  13.522
79711SOL     OW41029   2.438  12.326   6.114
79711SOL    HW141030   2.387  12.397   6.152
79711SOL    HW241031   2.475  12.280   6.190
79712SOL     OW41032  11.302   6.988  10.874
79712SOL    HW141033  11.317   7.068  10.924
79712SOL    HW241034  11.345   6.920  10.926
79713SOL     OW41035  13.530  12.284   6.148
79713SOL    HW141036  13.522  12.369   6.105
79713SOL    HW241037  13.450  12.237   6.122
79714SOL     OW41038  14.547  13.504  11.688
79714SOL    HW141039  14.500  13.578  11.649
79714SOL    HW241040  14.486  13.431  11.680
79715SOL     OW41041  13.907   2.658   8.902
79715SOL    HW141042  13.963   2.593   8.859
79715SOL    HW241043  13.912   2.735   8.845
79716SOL     OW41044   8.663   1.038   1.399
79716SOL    HW141045   8.617   1.022   1.317
79716SOL    HW241046   8.598   1.083   1.454
79717SOL     OW41047   2.754  14.456   9.337
79717SOL    HW141048   2.670  14.484   9.373
79717SOL    HW241049   2.819  14.498   9.393
79718SOL     OW41050   3.188   7.936   5.590
79718SOL    HW141051   3.233   8.014   5.620
79718SOL    HW241052   3.188   7.943   5.494
79719SOL     OW41053   6.349   7.694   3.241
79719SOL    HW141054   6.400   7.620   3.207
79719SOL    HW241055   6.375   7.768   3.186
79720SOL     OW41056   2.055   9.264   2.944
79720SOL    HW141057   2.103   9.221   3.016
79720SOL    HW241058   2.071   9.357   2.957
79721SOL     OW41059   8.154   6.693   1.904
79721SOL    HW141060   8.240   6.731   1.921
79721SOL    HW241061   8.163   6.601   1.930
79722SOL     OW41062   4.983   3.903   0.250
79722SOL    HW141063   5.078   3.907   0.257
79722SOL    HW241064   4.959   3.985   0.207
79723SOL     OW41065  11.344   2.768   6.317
79723SOL    HW141066  11.340   2.809   6.403
79723SOL    HW241067  11.344   2.841   6.255
79724SOL     OW41068   3.153   9.922   3.301
79724SOL    HW141069   3.184   9.832   3.316
79724SOL    HW241070   3.195   9.974   3.369
79725SOL     OW41071  14.518   4.945  11.732
79725SOL    HW141072  14.510   4.858  11.691
79725SOL    HW241073  14.537   4.927  11.824
79726SOL     OW41074  13.981   0.201   7.168
79726SOL    HW141075  13.972   0.192   7.074
79726SOL    HW241076  14.066   0.244   7.180
79727SOL     OW41077   5.347   9.303  12.661
79727SOL    HW141078   5.314   9.299  12.571
79727SOL    HW241079   5.420   9.365  12.657
79728SOL     OW41080  12.332  12.975  11.193
79728SOL    HW141081  12.239  12.966  11.212
79728SOL    HW241082  12.343  13.066  11.166
79729SOL     OW41083   2.781  10.043   3.953
79729SOL    HW141084   2.776  10.128   3.998
79729SOL    HW241085   2.795  10.065   3.861
79730SOL     OW41086   1.034   3.569   1.319
79730SOL    HW141087   1.055   3.598   1.230
79730SOL    HW241088   0.981   3.640   1.356
79731SOL     OW41089  12.706  12.242  10.877
79731SOL    HW141090  12.632  12.245  10.816
79731SOL    HW241091  12.669  12.209  10.958
79732SOL     OW41092  13.490   3.981   3.937
79732SOL    HW141093  13.549   3.950   4.005
79732SOL    HW241094  13.403   3.978   3.977
79733SOL     OW41095  11.972   0.430  10.104
79733SOL    HW141096  11.940   0.491  10.039
79733SOL    HW241097  12.051   0.392  10.065
79734SOL     OW41098  12.150   0.718   6.332
79734SOL    HW141099  12.222   0.738   6.272
79734SOL    HW241100  12.076   0.699   6.275
79735SOL     OW41101   7.059   3.814   7.974
79735SOL    HW141102   7.139   3.845   8.017
79735SOL    HW241103   7.085   3.801   7.883
79736SOL     OW41104  10.072   7.785   9.297
79736SOL    HW141105  10.071   7.780   9.392
79736SOL    HW241106  10.091   7.877   9.279
79737SOL     OW41107  10.296   7.678   8.033
79737SOL    HW141108  10.297   7.729   7.952
79737SOL    HW241109  10.364   7.718   8.087
79738SOL     OW41110  11.724  11.826   5.405
79738SOL    HW141111  11.681  11.905   5.437
79738SOL    HW241112  11.817  11.847   5.409
79739SOL     OW41113  14.630   9.356   5.755
79739SOL    HW141114  14.564   9.322   5.816
79739SOL    HW241115  14.612   9.312   5.672
79740SOL     OW41116   2.112   2.183   4.001
79740SOL    HW141117   2.193   2.154   3.959
79740SOL    HW241118   2.049   2.113   3.983
79741SOL     OW41119  14.096   0.342   0.583
79741SOL    HW141120  14.162   0.401   0.546
79741SOL    HW241121  14.024   0.344   0.520
79742SOL     OW41122   3.205   6.767   1.656
79742SOL    HW141123   3.127   6.716   1.636
79742SOL    HW241124   3.220   6.820   1.577
79743SOL     OW41125  12.066  14.147   5.553
79743SOL    HW141126  11.994  14.183   5.501
79743SOL    HW241127  12.035  14.154   5.644
79744SOL     OW41128   4.952   9.884   9.710
79744SOL    HW141129   4.913   9.970   9.723
79744SOL    HW241130   4.922   9.832   9.785
79745SOL     OW41131   8.233   4.354   5.116
79745SOL    HW141132   8.157   4.346   5.058
79745SOL    HW241133   8.291   4.282   5.089
79746SOL     OW41134  12.899   2.969   5.058
79746SOL    HW141135  12.961   3.040   5.073
79746SOL    HW241136  12.814   3.012   5.052
79747SOL     OW41137   0.793   5.243   6.107
79747SOL    HW141138   0.751   5.223   6.191
79747SOL    HW241139   0.742   5.195   6.042
79748SOL     OW41140   6.503   0.409  12.054
79748SOL    HW141141   6.474   0.349  12.122
79748SOL    HW241142   6.535   0.486  12.102
79749SOL     OW41143   2.226  14.565   5.551
79749SOL    HW141144   2.238  14.493   5.613
79749SOL    HW241145   2.299  14.624   5.568
79750SOL     OW41146   8.482   7.377   0.701
79750SOL    HW141147   8.470   7.285   0.675
79750SOL    HW241148   8.423   7.426   0.644
79751SOL     OW41149   9.757   8.435   4.774
79751SOL    HW141150   9.834   8.419   4.829
79751SOL    HW241151   9.683   8.432   4.835
79752SOL     OW41152  12.541  10.594  10.832
79752SOL    HW141153  12.587  10.593  10.916
79752SOL    HW241154  12.448  10.586  10.855
79753SOL     OW41155   4.046   3.108  13.847
79753SOL    HW141156   4.066   3.110  13.753
79753SOL    HW241157   4.120   3.063  13.886
79754SOL     OW41158   0.603  10.244   9.578
79754SOL    HW141159   0.613  10.302   9.654
79754SOL    HW241160   0.655  10.285   9.509
79755SOL     OW41161   1.086   6.180  10.494
79755SOL    HW141162   1.170   6.163  10.536
79755SOL    HW241163   1.038   6.097  10.500
79756SOL     OW41164   4.833   7.721   4.600
79756SOL    HW141165   4.878   7.717   4.685
79756SOL    HW241166   4.861   7.642   4.554
79757SOL     OW41167   7.910   1.612  11.547
79757SOL    HW141168   7.840   1.615  11.613
79757SOL    HW241169   7.990   1.608  11.599
79758SOL     OW41170  14.343   6.483   0.175
79758SOL    HW141171  14.434   6.484   0.206
79758SOL    HW241172  14.347   6.432   0.094
79759SOL     OW41173   6.735   3.194  14.853
79759SOL    HW141174   6.816   3.239  14.874
79759SOL    HW241175   6.734   3.117   0.036
79760SOL     OW41176   3.896  14.076  13.613
79760SOL    HW141177   3.903  14.127  13.694
79760SOL    HW241178   3.941  14.129  13.548
79761SOL     OW41179   2.346  12.644   2.183
79761SOL    HW141180   2.300  12.678   2.259
79761SOL    HW241181   2.355  12.550   2.201
79762SOL     OW41182   4.105   1.497   5.911
79762SOL    HW141183   4.098   1.410   5.952
79762SOL    HW241184   4.078   1.557   5.980
79763SOL     OW41185   4.044   0.027  10.144
79763SOL    HW141186   3.958   0.014  10.105
79763SOL    HW241187   4.083   0.099  10.094
79764SOL     OW41188   5.308  11.317   7.499
79764SOL    HW141189   5.308  11.345   7.591
79764SOL    HW241190   5.399  11.328   7.471
79765SOL     OW41191   6.278   5.688   1.702
79765SOL    HW141192   6.300   5.619   1.765
79765SOL    HW241193   6.289   5.647   1.616
79766SOL     OW41194   7.022  10.498   2.495
79766SOL    HW141195   6.932  10.473   2.513
79766SOL    HW241196   7.049  10.439   2.424
79767SOL     OW41197  11.793   1.541   0.919
79767SOL    HW141198  11.716   1.502   0.879
79767SOL    HW241199  11.860   1.536   0.850
79768SOL     OW41200   9.794   5.580   4.082
79768SOL    HW141201   9.833   5.533   4.156
79768SOL    HW241202   9.776   5.512   4.017
79769SOL     OW41203   0.139   0.830  12.395
79769SOL    HW141204   0.078   0.880  12.340
79769SOL    HW241205   0.117   0.738  12.378
79770SOL     OW41206  10.121  11.525   6.944
79770SOL    HW141207  10.146  11.451   7.000
79770SOL    HW241208  10.199  11.543   6.892
79771SOL     OW41209   8.634   6.923   9.394
79771SOL    HW141210   8.562   6.892   9.449
79771SOL    HW241211   8.639   7.017   9.412
79772SOL     OW41212  13.498   7.107   7.884
79772SOL    HW141213  13.479   7.102   7.978
79772SOL    HW241214  13.539   7.194   7.874
79773SOL     OW41215   4.616   1.426   1.339
79773SOL    HW141216   4.659   1.341   1.329
79773SOL    HW241217   4.683   1.482   1.378
79774SOL     OW41218   7.132  11.650   0.593
79774SOL    HW141219   7.215  11.680   0.631
79774SOL    HW241220   7.122  11.702   0.514
79775SOL     OW41221   4.755  12.085   0.504
79775SOL    HW141222   4.720  12.085   0.593
79775SOL    HW241223   4.709  12.157   0.460
79776SOL     OW41224   4.977  11.604  12.565
79776SOL    HW141225   4.954  11.589  12.474
79776SOL    HW241226   5.005  11.518  12.598
79777SOL     OW41227   8.740   1.057  13.126
79777SOL    HW141228   8.747   1.151  13.108
79777SOL    HW241229   8.696   1.052  13.211
79778SOL     OW41230  12.878   9.549   1.087
79778SOL    HW141231  12.884   9.644   1.093
79778SOL    HW241232  12.815   9.525   1.155
79779SOL     OW41233  10.743   4.385   6.467
79779SOL    HW141234  10.683   4.413   6.537
79779SOL    HW241235  10.823   4.359   6.512
79780SOL     OW41236  13.835   5.140   6.043
79780SOL    HW141237  13.912   5.195   6.054
79780SOL    HW241238  13.869   5.050   6.044
79781SOL     OW41239  12.011   3.308   5.903
79781SOL    HW141240  12.068   3.365   5.850
79781SOL    HW241241  11.991   3.359   5.981
79782SOL     OW41242  10.039  12.906   0.282
79782SOL    HW141243  10.061  12.939   0.195
79782SOL    HW241244   9.988  12.827   0.266
79783SOL     OW41245  12.133   2.258   8.055
79783SOL    HW141246  12.196   2.209   8.108
79783SOL    HW241247  12.050   2.246   8.101
79784SOL     OW41248  12.602  14.677   0.301
79784SOL    HW141249  12.608  14.759   0.252
79784SOL    HW241250  12.512  14.647   0.287
79785SOL     OW41251   2.056   2.693   0.344
79785SOL    HW141252   1.993   2.761   0.320
79785SOL    HW241253   2.004   2.613   0.351
79786SOL     OW41254  11.371   3.075   8.883
79786SOL    HW141255  11.410   3.106   8.964
79786SOL    HW241256  11.446   3.057   8.826
79787SOL     OW41257   4.423   5.325  12.359
79787SOL    HW141258   4.468   5.272  12.293
79787SOL    HW241259   4.392   5.401  12.311
79788SOL     OW41260  13.751   8.025  12.861
79788SOL    HW141261  13.788   8.109  12.888
79788SOL    HW241262  13.810   7.993  12.794
79789SOL     OW41263   0.269   3.114  12.976
79789SOL    HW141264   0.322   3.175  13.027
79789SOL    HW241265   0.257   3.156  12.891
79790SOL     OW41266  12.272   9.051   6.431
79790SOL    HW141267  12.255   9.140   6.398
79790SOL    HW241268  12.219   9.046   6.511
79791SOL     OW41269   7.974   1.746  14.320
79791SOL    HW141270   8.058   1.700  14.326
79791SOL    HW241271   7.914   1.681  14.285
79792SOL     OW41272   9.312  14.154  12.046
79792SOL    HW141273   9.403  14.142  12.019
79792SOL    HW241274   9.308  14.118  12.135
79793SOL     OW41275  13.436   2.533  12.672
79793SOL    HW141276  13.503   2.502  12.732
79793SOL    HW241277  13.370   2.463  12.672
79794SOL     OW41278   1.415   3.977  14.802
79794SOL    HW141279   1.413   4.064  14.763
79794SOL    HW241280   1.439   3.991   0.018
79795SOL     OW41281  14.236  12.175  12.161
79795SOL    HW141282  14.188  12.238  12.214
79795SOL    HW241283  14.319  12.220  12.141
79796SOL     OW41284   5.115   6.196  12.291
79796SOL    HW141285   5.140   6.226  12.203
79796SOL    HW241286   5.143   6.105  12.294
79797SOL     OW41287   9.427   4.440  12.419
79797SOL    HW141288   9.445   4.504  12.488
79797SOL    HW241289   9.369   4.486  12.358
79798SOL     OW41290   2.371   5.355   3.222
79798SOL    HW141291   2.276   5.347   3.236
79798SOL    HW241292   2.410   5.291   3.282
79799SOL     OW41293   0.238   3.698  10.479
79799SOL    HW141294   0.281   3.782  10.468
79799SOL    HW241295   0.305   3.633  10.458
79800SOL     OW41296   3.913  14.490   4.651
79800SOL    HW141297   3.974  14.545   4.700
79800SOL    HW241298   3.908  14.408   4.700
79801SOL     OW41299   5.151  13.874   4.366
79801SOL    HW141300   5.136  13.875   4.461
79801SOL    HW241301   5.065  13.894   4.328
79802SOL     OW41302  11.958  13.967   0.913
79802SOL    HW141303  12.005  13.926   0.841
79802SOL    HW241304  12.025  14.014   0.963
79803SOL     OW41305   7.415   7.174   4.811
79803SOL    HW141306   7.440   7.121   4.735
79803SOL    HW241307   7.393   7.110   4.879
79804SOL     OW41308   6.565   0.623   3.838
79804SOL    HW141309   6.598   0.540   3.873
79804SOL    HW241310   6.621   0.690   3.876
79805SOL     OW41311   2.008   1.420  10.332
79805SOL    HW141312   2.039   1.510  10.337
79805SOL    HW241313   1.914   1.427  10.349
79806SOL     OW41314   2.422   5.551   6.753
79806SOL    HW141315   2.371   5.492   6.809
79806SOL    HW241316   2.374   5.553   6.671
79807SOL     OW41317  10.592  14.412  10.242
79807SOL    HW141318  10.604  14.388  10.334
79807SOL    HW241319  10.617  14.333  10.194
79808SOL     OW41320  11.659   3.784   5.714
79808SOL    HW141321  11.718   3.791   5.789
79808SOL    HW241322  11.663   3.692   5.688
79809SOL     OW41323   3.672  10.164  11.382
79809SOL    HW141324   3.586  10.133  11.410
79809SOL    HW241325   3.654  10.217  11.304
79810SOL     OW41326  14.517  10.085  14.391
79810SOL    HW141327  14.463  10.163  14.377
79810SOL    HW241328  14.506  10.033  14.312
79811SOL     OW41329   1.562   7.675   1.554
79811SOL    HW141330   1.644   7.626   1.562
79811SOL    HW241331   1.570   7.745   1.620
79812SOL     OW41332   6.850  12.531   0.373
79812SOL    HW141333   6.794  12.606   0.354
79812SOL    HW241334   6.879  12.500   0.287
79813SOL     OW41335   4.819   7.833   2.398
79813SOL    HW141336   4.810   7.830   2.303
79813SOL    HW241337   4.879   7.906   2.414
79814SOL     OW41338   3.384  10.485   2.866
79814SOL    HW141339   3.421  10.521   2.946
79814SOL    HW241340   3.321  10.419   2.896
79815SOL     OW41341   6.585  13.084   8.643
79815SOL    HW141342   6.680  13.072   8.636
79815SOL    HW241343   6.558  13.023   8.712
79816SOL     OW41344   5.345   3.637   0.734
79816SOL    HW141345   5.270   3.580   0.719
79816SOL    HW241346   5.363   3.629   0.828
79817SOL     OW41347   4.610  13.629   4.551
79817SOL    HW141348   4.590  13.538   4.571
79817SOL    HW241349   4.579  13.678   4.627
79818SOL     OW41350   3.357   0.786   3.126
79818SOL    HW141351   3.376   0.803   3.218
79818SOL    HW241352   3.413   0.848   3.078
79819SOL     OW41353   1.929   4.374   5.285
79819SOL    HW141354   1.985   4.310   5.329
79819SOL    HW241355   1.920   4.339   5.196
79820SOL     OW41356   1.980   9.229   6.426
79820SOL    HW141357   1.909   9.189   6.476
79820SOL    HW241358   2.003   9.163   6.360
79821SOL     OW41359   5.222   7.864  12.389
79821SOL    HW141360   5.250   7.952  12.411
79821SOL    HW241361   5.304   7.815  12.377
79822SOL     OW41362   3.997  14.781   0.323
79822SOL    HW141363   4.014  14.780   0.229
79822SOL    HW241364   4.077  14.818   0.361
79823SOL     OW41365   6.759   7.649   6.439
79823SOL    HW141366   6.710   7.618   6.362
79823SOL    HW241367   6.789   7.569   6.482
79824SOL     OW41368  13.477   2.293   3.719
79824SOL    HW141369  13.476   2.293   3.623
79824SOL    HW241370  13.389   2.263   3.743
79825SOL     OW41371   7.096  11.861   9.201
79825SOL    HW141372   7.186  11.845   9.228
79825SOL    HW241373   7.099  11.856   9.105
79826SOL     OW41374  13.705  12.671   5.355
79826SOL    HW141375  13.763  12.596   5.341
79826SOL    HW241376  13.621  12.632   5.378
79827SOL     OW41377   3.751   2.246   2.629
79827SOL    HW141378   3.811   2.179   2.662
79827SOL    HW241379   3.741   2.307   2.702
79828SOL     OW41380  10.304   6.668  10.436
79828SOL    HW141381  10.215   6.639  10.459
79828SOL    HW241382  10.355   6.587  10.430
79829SOL     OW41383   9.634  11.344  11.214
79829SOL    HW141384   9.619  11.263  11.166
79829SOL    HW241385   9.716  11.330  11.261
79830SOL     OW41386   5.662   4.478   7.056
79830SOL    HW141387   5.606   4.554   7.072
79830SOL    HW241388   5.622   4.435   6.981
79831SOL     OW41389   8.709   9.513  13.812
79831SOL    HW141390   8.733   9.604  13.797
79831SOL    HW241391   8.792   9.469  13.834
79832SOL     OW41392  13.228   4.158   2.396
79832SOL    HW141393  13.186   4.150   2.310
79832SOL    HW241394  13.317   4.125   2.383
79833SOL     OW41395   8.113  10.154   4.954
79833SOL    HW141396   8.102  10.197   5.039
79833SOL    HW241397   8.029  10.109   4.939
79834SOL     OW41398   8.733   9.587  12.744
79834SOL    HW141399   8.819   9.553  12.719
79834SOL    HW241400   8.751   9.649  12.815
79835SOL     OW41401   7.759   5.314   6.342
79835SOL    HW141402   7.707   5.394   6.347
79835SOL    HW241403   7.775   5.291   6.433
79836SOL     OW41404   1.183  14.116   5.237
79836SOL    HW141405   1.201  14.107   5.144
79836SOL    HW241406   1.159  14.208   5.249
79837SOL     OW41407   0.133   8.350   8.071
79837SOL    HW141408   0.166   8.265   8.042
79837SOL    HW241409   0.128   8.403   7.991
79838SOL     OW41410   4.890  11.447   5.072
79838SOL    HW141411   4.834  11.372   5.055
79838SOL    HW241412   4.979  11.411   5.073
79839SOL     OW41413   2.407   5.849   7.240
79839SOL    HW141414   2.346   5.923   7.239
79839SOL    HW241415   2.482   5.879   7.188
79840SOL     OW41416  13.420   9.757  11.766
79840SOL    HW141417  13.411   9.803  11.849
79840SOL    HW241418  13.368   9.807  11.704
79841SOL     OW41419   3.492   4.333  14.410
79841SOL    HW141420   3.406   4.295  14.427
79841SOL    HW241421   3.538   4.326  14.494
79842SOL     OW41422   1.457  14.342   9.137
79842SOL    HW141423   1.548  14.337   9.166
79842SOL    HW241424   1.455  14.291   9.056
79843SOL     OW41425   1.275   7.685  12.279
79843SOL    HW141426   1.234   7.771  12.266
79843SOL    HW241427   1.243   7.632  12.206
79844SOL     OW41428   8.949   7.040   6.982
79844SOL    HW141429   9.012   7.007   6.918
79844SOL    HW241430   8.891   6.966   6.999
79845SOL     OW41431   0.088   9.666   5.772
79845SOL    HW141432   0.104   9.636   5.682
79845SOL    HW241433  14.869   9.680   5.777
79846SOL     OW41434   4.007   6.183  13.755
79846SOL    HW141435   3.937   6.156  13.696
79846SOL    HW241436   3.969   6.255  13.805
79847SOL     OW41437   1.412   6.783   6.037
79847SOL    HW141438   1.457   6.864   6.061
79847SOL    HW241439   1.419   6.779   5.941
79848SOL     OW41440  12.341   2.959   9.354
79848SOL    HW141441  12.272   2.953   9.420
79848SOL    HW241442  12.313   3.029   9.296
79849SOL     OW41443  11.847   1.362   6.649
79849SOL    HW141444  11.910   1.434   6.653
79849SOL    HW241445  11.888   1.297   6.591
79850SOL     OW41446   4.761   3.952   2.498
79850SOL    HW141447   4.804   3.866   2.506
79850SOL    HW241448   4.755   3.985   2.587
79851SOL     OW41449   6.478  14.812   5.102
79851SOL    HW141450   6.567  14.785   5.124
79851SOL    HW241451   6.481   0.033   5.106
79852SOL     OW41452   2.611  12.316  12.992
79852SOL    HW141453   2.646  12.236  12.954
79852SOL    HW241454   2.532  12.289  13.038
79853SOL     OW41455   1.591   8.049   0.140
79853SOL    HW141456   1.521   8.096   0.094
79853SOL    HW241457   1.626   8.112   0.202
79854SOL     OW41458  14.644   5.033   7.025
79854SOL    HW141459  14.562   4.986   7.039
79854SOL    HW241460  14.708   4.985   7.078
79855SOL     OW41461   5.718   8.565   3.664
79855SOL    HW141462   5.787   8.556   3.730
79855SOL    HW241463   5.649   8.505   3.693
79856SOL     OW41464  10.617   1.910   9.268
79856SOL    HW141465  10.566   1.831   9.255
79856SOL    HW241466  10.622   1.919   9.363
79857SOL     OW41467   3.750  11.788  12.604
79857SOL    HW141468   3.768  11.840  12.526
79857SOL    HW241469   3.818  11.813  12.666
79858SOL     OW41470   9.988  13.044   9.705
79858SOL    HW141471  10.060  13.103   9.681
79858SOL    HW241472   9.926  13.052   9.633
79859SOL     OW41473   6.105  11.005   5.455
79859SOL    HW141474   6.172  11.060   5.415
79859SOL    HW241475   6.041  11.067   5.490
79860SOL     OW41476   3.112   4.517   6.579
79860SOL    HW141477   3.043   4.530   6.643
79860SOL    HW241478   3.133   4.606   6.549
79861SOL     OW41479   5.577   9.275   5.443
79861SOL    HW141480   5.483   9.286   5.430
79861SOL    HW241481   5.591   9.289   5.536
79862SOL     OW41482   5.234  14.465  12.654
79862SOL    HW141483   5.151  14.429  12.623
79862SOL    HW241484   5.208  14.530  12.720
79863SOL     OW41485  14.543  13.143   3.716
79863SOL    HW141486  14.564  13.135   3.809
79863SOL    HW241487  14.620  13.110   3.670
79864SOL     OW41488   9.953   9.255  12.098
79864SOL    HW141489   9.898   9.218  12.030
79864SOL    HW241490  10.028   9.293  12.051
79865SOL     OW41491  11.334   1.259   5.083
79865SOL    HW141492  11.378   1.258   5.168
79865SOL    HW241493  11.243   1.237   5.103
79866SOL     OW41494   2.261  11.304  14.358
79866SOL    HW141495   2.246  11.356  14.279
79866SOL    HW241496   2.337  11.345  14.400
79867SOL     OW41497  11.507   9.549   8.840
79867SOL    HW141498  11.430   9.589   8.798
79867SOL    HW241499  11.473   9.470   8.881
79868SOL     OW41500  10.726   1.289   6.441
79868SOL    HW141501  10.773   1.304   6.523
79868SOL    HW241502  10.685   1.373   6.421
79869SOL     OW41503  10.503  13.678   2.398
79869SOL    HW141504  10.462  13.762   2.376
79869SOL    HW241505  10.454  13.614   2.346
79870SOL     OW41506  10.906   9.072  13.884
79870SOL    HW141507  10.930   9.155  13.843
79870SOL    HW241508  10.888   9.013  13.811
79871SOL     OW41509   0.593   0.311   2.786
79871SOL    HW141510   0.535   0.244   2.820
79871SOL    HW241511   0.637   0.269   2.712
79872SOL     OW41512   0.968   9.773   7.153
79872SOL    HW141513   1.032   9.702   7.160
79872SOL    HW241514   1.014   9.850   7.185
79873SOL     OW41515  14.451   8.782   4.972
79873SOL    HW141516  14.377   8.754   4.918
79873SOL    HW241517  14.526   8.781   4.911
79874SOL     OW41518  10.650   0.066   6.581
79874SOL    HW141519  10.572   0.036   6.534
79874SOL    HW241520  10.627   0.153   6.614
79875SOL     OW41521  10.770  10.281  10.024
79875SOL    HW141522  10.841  10.328  10.070
79875SOL    HW241523  10.692  10.299  10.076
79876SOL     OW41524   0.943   3.099   5.852
79876SOL    HW141525   1.019   3.042   5.840
79876SOL    HW241526   0.901   3.101   5.767
79877SOL     OW41527   1.206   2.408  14.306
79877SOL    HW141528   1.252   2.449  14.379
79877SOL    HW241529   1.118   2.445  14.309
79878SOL     OW41530   4.752   6.082  11.825
79878SOL    HW141531   4.707   6.137  11.761
79878SOL    HW241532   4.837   6.125  11.837
79879SOL     OW41533   1.222   0.674   7.586
79879SOL    HW141534   1.185   0.759   7.609
79879SOL    HW241535   1.286   0.693   7.517
79880SOL     OW41536   8.839  13.256  13.687
79880SOL    HW141537   8.877  13.344  13.687
79880SOL    HW241538   8.904  13.201  13.729
79881SOL     OW41539   6.626  12.586   1.144
79881SOL    HW141540   6.662  12.673   1.162
79881SOL    HW241541   6.695  12.526   1.170
79882SOL     OW41542   7.275  11.109  10.937
79882SOL    HW141543   7.197  11.109  10.991
79882SOL    HW241544   7.276  11.021  10.897
79883SOL     OW41545   1.077   0.846   8.851
79883SOL    HW141546   1.088   0.885   8.938
79883SOL    HW241547   1.152   0.879   8.801
79884SOL     OW41548   3.560   6.648   9.790
79884SOL    HW141549   3.466   6.658   9.775
79884SOL    HW241550   3.575   6.682   9.878
79885SOL     OW41551  13.496   7.182  13.178
79885SOL    HW141552  13.508   7.274  13.202
79885SOL    HW241553  13.472   7.138  13.260
79886SOL     OW41554  14.565   2.777  13.682
79886SOL    HW141555  14.590   2.716  13.612
79886SOL    HW241556  14.647   2.822  13.705
79887SOL     OW41557  14.789  14.272  13.868
79887SOL    HW141558  14.866  14.216  13.876
79887SOL    HW241559  14.800  14.338  13.936
79888SOL     OW41560   1.511   5.832   7.863
79888SOL    HW141561   1.477   5.919   7.844
79888SOL    HW241562   1.435   5.774   7.859
79889SOL     OW41563  11.827   7.518   6.430
79889SOL    HW141564  11.753   7.517   6.368
79889SOL    HW241565  11.904   7.505   6.375
79890SOL     OW41566   5.176  10.364   0.673
79890SOL    HW141567   5.233  10.291   0.646
79890SOL    HW241568   5.154  10.343   0.764
79891SOL     OW41569   0.514   7.390   7.019
79891SOL    HW141570   0.433   7.395   6.967
79891SOL    HW241571   0.490   7.337   7.095
79892SOL     OW41572   3.810   5.632   7.698
79892SOL    HW141573   3.743   5.651   7.764
79892SOL    HW241574   3.878   5.584   7.746
79893SOL     OW41575   0.143   5.326  13.401
79893SOL    HW141576   0.089   5.353  13.475
79893SOL    HW241577   0.082   5.286  13.339
79894SOL     OW41578   5.122  14.312   0.781
79894SOL    HW141579   5.086  14.224   0.772
79894SOL    HW241580   5.093  14.358   0.702
79895SOL     OW41581   0.045  13.544  10.590
79895SOL    HW141582  14.869  13.484  10.645
79895SOL    HW241583   0.114  13.576  10.648
79896SOL     OW41584  12.376   5.967  13.560
79896SOL    HW141585  12.422   5.965  13.644
79896SOL    HW241586  12.378   6.059  13.533
79897SOL     OW41587  13.236   2.782  10.574
79897SOL    HW141588  13.221   2.688  10.570
79897SOL    HW241589  13.306   2.798  10.511
79898SOL     OW41590  10.727   8.873  14.800
79898SOL    HW141591  10.709   8.805  14.865
79898SOL    HW241592  10.785   8.934  14.845
79899SOL     OW41593  10.317   7.717   4.787
79899SOL    HW141594  10.378   7.786   4.812
79899SOL    HW241595  10.231   7.748   4.816
79900SOL     OW41596   1.287   4.867   0.185
79900SOL    HW141597   1.299   4.956   0.219
79900SOL    HW241598   1.224   4.877   0.114
79901SOL     OW41599   5.300   4.839  12.652
79901SOL    HW141600   5.215   4.864  12.689
79901SOL    HW241601   5.285   4.753  12.612
79902SOL     OW41602   8.137   0.525   3.515
79902SOL    HW141603   8.148   0.611   3.476
79902SOL    HW241604   8.205   0.520   3.583
79903SOL     OW41605  14.214   6.516  11.180
79903SOL    HW141606  14.145   6.450  11.183
79903SOL    HW241607  14.216   6.545  11.089
79904SOL     OW41608   0.029   9.587  12.840
79904SOL    HW141609  14.872   9.497  12.831
79904SOL    HW241610   0.023   9.624  12.752
79905SOL     OW41611   4.669   3.071   1.540
79905SOL    HW141612   4.652   3.040   1.629
79905SOL    HW241613   4.617   3.013   1.484
79906SOL     OW41614   4.986  10.977   9.655
79906SOL    HW141615   4.964  11.065   9.623
79906SOL    HW241616   4.988  10.987   9.750
79907SOL     OW41617   6.363   6.888   4.198
79907SOL    HW141618   6.379   6.893   4.103
79907SOL    HW241619   6.369   6.978   4.228
79908SOL     OW41620   8.685  12.643  13.109
79908SOL    HW141621   8.662  12.693  13.187
79908SOL    HW241622   8.745  12.576  13.141
79909SOL     OW41623  13.809   9.520   2.591
79909SOL    HW141624  13.793   9.427   2.571
79909SOL    HW241625  13.821   9.522   2.685
79910SOL     OW41626   8.099   3.265  10.176
79910SOL    HW141627   8.121   3.219  10.257
79910SOL    HW241628   8.007   3.289  10.187
79911SOL     OW41629  10.660   9.453   9.414
79911SOL    HW141630  10.710   9.385   9.369
79911SOL    HW241631  10.569   9.423   9.408
79912SOL     OW41632   9.420  12.562   4.303
79912SOL    HW141633   9.358  12.538   4.235
79912SOL    HW241634   9.497  12.508   4.285
79913SOL     OW41635   3.633   9.506   5.062
79913SOL    HW141636   3.667   9.462   5.140
79913SOL    HW241637   3.706   9.508   5.000
79914SOL     OW41638   6.760   4.393  14.062
79914SOL    HW141639   6.756   4.355  13.974
79914SOL    HW241640   6.845   4.365  14.096
79915SOL     OW41641  10.097   9.352  10.602
79915SOL    HW141642  10.103   9.263  10.566
79915SOL    HW241643  10.058   9.340  10.689
79916SOL     OW41644   1.076  12.998   8.063
79916SOL    HW141645   1.084  12.971   7.972
79916SOL    HW241646   1.166  13.015   8.091
79917SOL     OW41647  12.377   4.949  10.238
79917SOL    HW141648  12.408   5.023  10.290
79917SOL    HW241649  12.433   4.876  10.263
79918SOL     OW41650   3.820   6.062   0.454
79918SOL    HW141651   3.830   6.061   0.359
79918SOL    HW241652   3.766   6.138   0.472
79919SOL     OW41653   1.891  11.722  10.649
79919SOL    HW141654   1.873  11.771  10.729
79919SOL    HW241655   1.982  11.744  10.627
79920SOL     OW41656  13.976   6.231  10.842
79920SOL    HW141657  14.065   6.195  10.840
79920SOL    HW241658  13.968   6.280  10.761
79921SOL     OW41659   8.461   8.220   0.838
79921SOL    HW141660   8.526   8.284   0.808
79921SOL    HW241661   8.512   8.146   0.869
79922SOL     OW41662   5.813   5.394  12.777
79922SOL    HW141663   5.893   5.344  12.761
79922SOL    HW241664   5.743   5.338  12.743
79923SOL     OW41665   9.607   4.511   3.975
79923SOL    HW141666   9.622   4.600   3.943
79923SOL    HW241667   9.517   4.512   4.006
79924SOL     OW41668   9.565   6.628  13.891
79924SOL    HW141669   9.542   6.624  13.984
79924SOL    HW241670   9.499   6.574  13.848
79925SOL     OW41671  10.902   2.534   0.039
79925SOL    HW141672  10.914   2.624   0.007
79925SOL    HW241673  10.904   2.543   0.134
79926SOL     OW41674  13.118   2.525   6.491
79926SOL    HW141675  13.207   2.525   6.456
79926SOL    HW241676  13.065   2.486   6.421
79927SOL     OW41677   3.262  10.842   1.969
79927SOL    HW141678   3.296  10.931   1.957
79927SOL    HW241679   3.174  10.854   2.003
79928SOL     OW41680  13.246   5.115  10.760
79928SOL    HW141681  13.244   5.131  10.666
79928SOL    HW241682  13.304   5.183  10.795
79929SOL     OW41683   7.625   1.436  11.278
79929SOL    HW141684   7.579   1.354  11.258
79929SOL    HW241685   7.562   1.505  11.258
79930SOL     OW41686   3.506  11.887   5.575
79930SOL    HW141687   3.506  11.956   5.640
79930SOL    HW241688   3.568  11.917   5.508
79931SOL     OW41689   6.437  14.455   9.584
79931SOL    HW141690   6.432  14.524   9.517
79931SOL    HW241691   6.484  14.383   9.541
79932SOL     OW41692   5.973   6.044   7.937
79932SOL    HW141693   6.015   6.097   8.005
79932SOL    HW241694   5.938   6.109   7.876
79933SOL     OW41695   8.433   2.485  11.569
79933SOL    HW141696   8.434   2.580  11.556
79933SOL    HW241697   8.476   2.450  11.491
79934SOL     OW41698   4.687   9.558   8.662
79934SOL    HW141699   4.713   9.546   8.753
79934SOL    HW241700   4.621   9.490   8.647
79935SOL     OW41701   3.935   6.720   5.467
79935SOL    HW141702   3.982   6.715   5.384
79935SOL    HW241703   3.978   6.656   5.523
79936SOL     OW41704   7.110  13.903   2.384
79936SOL    HW141705   7.084  13.935   2.297
79936SOL    HW241706   7.204  13.888   2.376
79937SOL     OW41707   5.445   8.265   4.885
79937SOL    HW141708   5.500   8.225   4.954
79937SOL    HW241709   5.391   8.192   4.853
79938SOL     OW41710  13.331  11.119   0.692
79938SOL    HW141711  13.305  11.195   0.744
79938SOL    HW241712  13.339  11.048   0.756
79939SOL     OW41713  12.567  14.216  11.504
79939SOL    HW141714  12.521  14.238  11.423
79939SOL    HW241715  12.519  14.140  11.538
79940SOL     OW41716  11.618   5.153   2.213
79940SOL    HW141717  11.588   5.197   2.134
79940SOL    HW241718  11.713   5.160   2.210
79941SOL     OW41719   0.790   8.466  11.074
79941SOL    HW141720   0.731   8.492  11.144
79941SOL    HW241721   0.866   8.428  11.119
79942SOL     OW41722   8.856  14.698  11.100
79942SOL    HW141723   8.933  14.659  11.142
79942SOL    HW241724   8.865  14.674  11.008
79943SOL     OW41725  12.643   3.840   6.477
79943SOL    HW141726  12.679   3.926   6.456
79943SOL    HW241727  12.556   3.859   6.512
79944SOL     OW41728   4.480   6.593  11.999
79944SOL    HW141729   4.410   6.550  11.951
79944SOL    HW241730   4.552   6.531  11.997
79945SOL     OW41731   0.581   6.199   7.148
79945SOL    HW141732   0.666   6.202   7.190
79945SOL    HW241733   0.571   6.285   7.106
79946SOL     OW41734   4.515   0.239  12.942
79946SOL    HW141735   4.535   0.271  12.854
79946SOL    HW241736   4.476   0.153  12.928
79947SOL     OW41737  10.742   4.232   4.294
79947SOL    HW141738  10.693   4.185   4.362
79947SOL    HW241739  10.829   4.194   4.296
79948SOL     OW41740   2.197   3.369   7.969
79948SOL    HW141741   2.159   3.448   7.929
79948SOL    HW241742   2.122   3.317   7.996
79949SOL     OW41743   9.054   0.979   6.223
79949SOL    HW141744   9.039   1.069   6.253
79949SOL    HW241745   9.109   0.989   6.145
79950SOL     OW41746   2.674   6.072  14.838
79950SOL    HW141747   2.677   6.167  14.824
79950SOL    HW241748   2.632   6.038  14.759
79951SOL     OW41749   1.332   7.614   4.459
79951SOL    HW141750   1.310   7.547   4.395
79951SOL    HW241751   1.428   7.621   4.455
79952SOL     OW41752   7.479   6.239   8.835
79952SOL    HW141753   7.575   6.240   8.832
79952SOL    HW241754   7.453   6.237   8.743
79953SOL     OW41755   4.446   9.855   9.109
79953SOL    HW141756   4.446   9.900   9.025
79953SOL    HW241757   4.538   9.848   9.133
79954SOL     OW41758   6.918  10.287  14.073
79954SOL    HW141759   6.949  10.338  14.148
79954SOL    HW241760   6.870  10.350  14.020
79955SOL     OW41761   5.594   3.774   3.018
79955SOL    HW141762   5.564   3.824   2.943
79955SOL    HW241763   5.673   3.819   3.047
79956SOL     OW41764   1.575  10.936  10.992
79956SOL    HW141765   1.616  11.007  10.943
79956SOL    HW241766   1.546  10.873  10.926
79957SOL     OW41767  12.483   0.919  12.703
79957SOL    HW141768  12.464   0.975  12.628
79957SOL    HW241769  12.577   0.928  12.718
79958SOL     OW41770   3.893   7.591  13.210
79958SOL    HW141771   3.944   7.510  13.212
79958SOL    HW241772   3.950   7.654  13.166
79959SOL     OW41773   3.671   8.253   8.399
79959SOL    HW141774   3.661   8.199   8.477
79959SOL    HW241775   3.716   8.332   8.429
79960SOL     OW41776   5.799   1.794   1.362
79960SOL    HW141777   5.879   1.843   1.341
79960SOL    HW241778   5.758   1.844   1.432
79961SOL     OW41779   5.839   3.159   4.560
79961SOL    HW141780   5.864   3.137   4.470
79961SOL    HW241781   5.870   3.084   4.612
79962SOL     OW41782   8.794   8.385   9.256
79962SOL    HW141783   8.744   8.353   9.181
79962SOL    HW241784   8.728   8.408   9.322
79963SOL     OW41785   2.565   3.367  10.274
79963SOL    HW141786   2.602   3.343  10.190
79963SOL    HW241787   2.640   3.372  10.333
79964SOL     OW41788   5.025   9.675   2.527
79964SOL    HW141789   5.004   9.656   2.436
79964SOL    HW241790   4.980   9.757   2.546
79965SOL     OW41791   5.591   6.870   0.561
79965SOL    HW141792   5.651   6.868   0.636
79965SOL    HW241793   5.618   6.947   0.511
79966SOL     OW41794   3.392   2.392  14.037
79966SOL    HW141795   3.440   2.379  14.119
79966SOL    HW241796   3.426   2.475  14.003
79967SOL     OW41797  13.068   4.903  10.765
79967SOL    HW141798  13.126   4.979  10.764
79967SOL    HW241799  13.046   4.888  10.673
79968SOL     OW41800   3.778   1.287  11.143
79968SOL    HW141801   3.691   1.247  11.146
79968SOL    HW241802   3.769   1.368  11.193
79969SOL     OW41803   2.871   6.826   8.626
79969SOL    HW141804   2.907   6.769   8.557
79969SOL    HW241805   2.834   6.900   8.579
79970SOL     OW41806   9.794  14.321  14.412
79970SOL    HW141807   9.873  14.373  14.413
79970SOL    HW241808   9.801  14.263  14.488
79971SOL     OW41809   8.804   6.062   6.016
79971SOL    HW141810   8.880   6.027   5.970
79971SOL    HW241811   8.831   6.150   6.042
79972SOL     OW41812  13.057   0.475   0.903
79972SOL    HW141813  12.977   0.527   0.903
79972SOL    HW241814  13.120   0.528   0.950
79973SOL     OW41815   4.371   9.612   9.706
79973SOL    HW141816   4.324   9.605   9.623
79973SOL    HW241817   4.399   9.522   9.724
79974SOL     OW41818  11.317  10.906   2.950
79974SOL    HW141819  11.368  10.895   3.031
79974SOL    HW241820  11.249  10.969   2.973
79975SOL     OW41821  13.889   5.507   8.840
79975SOL    HW141822  13.932   5.457   8.910
79975SOL    HW241823  13.814   5.548   8.883
79976SOL     OW41824  11.393   4.609   1.468
79976SOL    HW141825  11.316   4.554   1.451
79976SOL    HW241826  11.367   4.696   1.439
79977SOL     OW41827   5.716   1.457   0.541
79977SOL    HW141828   5.628   1.479   0.569
79977SOL    HW241829   5.730   1.509   0.462
79978SOL     OW41830   3.334   8.759  12.115
79978SOL    HW141831   3.287   8.819  12.057
79978SOL    HW241832   3.365   8.689  12.058
79979SOL     OW41833   2.802  13.757  12.819
79979SOL    HW141834   2.864  13.786  12.886
79979SOL    HW241835   2.749  13.834  12.800
79980SOL     OW41836  10.368   7.430  13.330
79980SOL    HW141837  10.455   7.454  13.301
79980SOL    HW241838  10.312   7.442  13.254
79981SOL     OW41839   0.261  11.821   9.116
79981SOL    HW141840   0.271  11.801   9.209
79981SOL    HW241841   0.329  11.770   9.073
79982SOL     OW41842   5.726   6.609  12.123
79982SOL    HW141843   5.721   6.518  12.150
79982SOL    HW241844   5.737   6.606  12.028
79983SOL     OW41845   9.349   3.235   8.558
79983SOL    HW141846   9.312   3.248   8.471
79983SOL    HW241847   9.436   3.197   8.542
79984SOL     OW41848   7.698   7.602  11.354
79984SOL    HW141849   7.607   7.629  11.345
79984SOL    HW241850   7.732   7.654  11.427
79985SOL     OW41851  14.170  14.531  13.424
79985SOL    HW141852  14.120  14.452  13.403
79985SOL    HW241853  14.146  14.552  13.514
79986SOL     OW41854   8.612  13.087   5.329
79986SOL    HW141855   8.599  13.111   5.421
79986SOL    HW241856   8.705  13.064   5.322
79987SOL     OW41857   0.249   5.953   2.308
79987SOL    HW141858   0.191   5.923   2.377
79987SOL    HW241859   0.195   6.010   2.254
79988SOL     OW41860   7.943  13.348   7.963
79988SOL    HW141861   7.930  13.401   8.042
79988SOL    HW241862   7.866  13.367   7.908
79989SOL     OW41863  10.087  11.197   3.347
79989SOL    HW141864  10.154  11.144   3.389
79989SOL    HW241865  10.031  11.134   3.302
79990SOL     OW41866  10.595   2.108   6.116
79990SOL    HW141867  10.503   2.119   6.141
79990SOL    HW241868  10.643   2.172   6.170
79991SOL     OW41869  11.473   8.374   6.709
79991SOL    HW141870  11.537   8.382   6.780
79991SOL    HW241871  11.398   8.424   6.738
79992SOL     OW41872   6.045   5.134  10.008
79992SOL    HW141873   5.968   5.093  10.048
79992SOL    HW241874   6.008   5.194   9.943
79993SOL     OW41875  12.312   8.774   8.601
79993SOL    HW141876  12.364   8.735   8.671
79993SOL    HW241877  12.333   8.723   8.523
79994SOL     OW41878  12.428  12.876   4.027
79994SOL    HW141879  12.351  12.867   4.083
79994SOL    HW241880  12.486  12.935   4.076
79995SOL     OW41881  13.768   1.881   2.951
79995SOL    HW141882  13.848   1.885   3.003
79995SOL    HW241883  13.797   1.868   2.861
79996SOL     OW41884   9.755  12.649  11.603
79996SOL    HW141885   9.800  12.594  11.539
79996SOL    HW241886   9.734  12.729  11.555
79997SOL     OW41887  14.481  12.223   3.331
79997SOL    HW141888  14.569  12.258   3.346
79997SOL    HW241889  14.442  12.218   3.418
79998SOL     OW41890  10.165  14.261  10.428
79998SOL    HW141891  10.249  14.258  10.383
79998SOL    HW241892  10.186  14.244  10.520
79999SOL     OW41893   1.187   9.950   0.864
79999SOL    HW141894   1.125   9.943   0.791
79999SOL    HW241895   1.246  10.021   0.839
80000SOL     OW41896   3.065   4.106  11.967
80000SOL    HW141897   3.058   4.186  11.914
80000SOL    HW241898   3.159   4.086  11.968
80001SOL     OW41899   1.126  12.012   9.440
80001SOL    HW141900   1.082  12.045   9.519
80001SOL    HW241901   1.219  12.024   9.459
80002SOL     OW41902   3.070  11.115   3.788
80002SOL    HW141903   2.981  11.081   3.797
80002SOL    HW241904   3.076  11.185   3.852
80003SOL     OW41905   1.583   3.479   2.623
80003SOL    HW141906   1.657   3.537   2.644
80003SOL    HW241907   1.621   3.412   2.566
80004SOL     OW41908  12.926  12.087  10.956
80004SOL    HW141909  12.961  12.040  10.880
80004SOL    HW241910  12.849  12.132  10.923
80005SOL     OW41911   6.939   7.104   1.306
80005SOL    HW141912   6.912   7.185   1.262
80005SOL    HW241913   6.874   7.040   1.277
80006SOL     OW41914   2.831   6.680   4.379
80006SOL    HW141915   2.864   6.607   4.326
80006SOL    HW241916   2.747   6.702   4.338
80007SOL     OW41917   4.670   8.524   2.415
80007SOL    HW141918   4.749   8.473   2.435
80007SOL    HW241919   4.598   8.470   2.448
80008SOL     OW41920   1.441   5.067   0.308
80008SOL    HW141921   1.438   5.131   0.379
80008SOL    HW241922   1.515   5.095   0.253
80009SOL     OW41923  12.839   6.261   1.713
80009SOL    HW141924  12.836   6.353   1.738
80009SOL    HW241925  12.809   6.260   1.622
80010SOL     OW41926   3.223   3.261   1.122
80010SOL    HW141927   3.256   3.306   1.044
80010SOL    HW241928   3.302   3.241   1.173
80011SOL     OW41929   9.286  10.272   9.974
80011SOL    HW141930   9.336  10.350   9.998
80011SOL    HW241931   9.271  10.227  10.057
80012SOL     OW41932   9.346  10.076   5.657
80012SOL    HW141933   9.432  10.043   5.681
80012SOL    HW241934   9.349  10.169   5.682
80013SOL     OW41935  14.021   3.512   0.090
80013SOL    HW141936  13.974   3.574   0.146
80013SOL    HW241937  14.052   3.444   0.150
80014SOL     OW41938   9.209   5.531   1.448
80014SOL    HW141939   9.194   5.625   1.436
80014SOL    HW241940   9.260   5.505   1.372
80015SOL     OW41941  13.358   8.418   3.901
80015SOL    HW141942  13.329   8.508   3.887
80015SOL    HW241943  13.328   8.396   3.989
80016SOL     OW41944   4.912  10.327   8.752
80016SOL    HW141945   4.956  10.242   8.746
80016SOL    HW241946   4.976  10.384   8.794
80017SOL     OW41947   7.731   2.181  11.765
80017SOL    HW141948   7.753   2.232  11.687
80017SOL    HW241949   7.735   2.245  11.837
80018SOL     OW41950   4.284   8.834   8.599
80018SOL    HW141951   4.317   8.885   8.673
80018SOL    HW241952   4.292   8.893   8.524
80019SOL     OW41953   9.357   4.219   9.595
80019SOL    HW141954   9.323   4.211   9.684
80019SOL    HW241955   9.420   4.291   9.600
80020SOL     OW41956   1.052  11.682   0.802
80020SOL    HW141957   1.068  11.623   0.728
80020SOL    HW241958   1.031  11.623   0.874
80021SOL     OW41959   2.807  13.688  13.200
80021SOL    HW141960   2.759  13.759  13.241
80021SOL    HW241961   2.759  13.609  13.226
80022SOL     OW41962  12.974   3.085   0.484
80022SOL    HW141963  12.972   3.143   0.560
80022SOL    HW241964  12.967   3.144   0.408
80023SOL     OW41965   1.476   1.928   4.061
80023SOL    HW141966   1.433   1.873   3.995
80023SOL    HW241967   1.408   1.944   4.127
80024SOL     OW41968   6.019   3.407  10.374
80024SOL    HW141969   5.928   3.431  10.353
80024SOL    HW241970   6.040   3.462  10.450
80025SOL     OW41971   4.050   9.286   6.876
80025SOL    HW141972   4.067   9.227   6.950
80025SOL    HW241973   4.053   9.230   6.799
80026SOL     OW41974  13.201   5.165   4.901
80026SOL    HW141975  13.288   5.190   4.933
80026SOL    HW241976  13.147   5.243   4.914
80027SOL     OW41977   4.505  13.626   9.444
80027SOL    HW141978   4.547  13.704   9.407
80027SOL    HW241979   4.579  13.569   9.468
80028SOL     OW41980   0.976   9.183   1.044
80028SOL    HW141981   1.064   9.206   1.073
80028SOL    HW241982   0.926   9.265   1.048
80029SOL     OW41983   3.704   9.669   6.276
80029SOL    HW141984   3.732   9.623   6.355
80029SOL    HW241985   3.778   9.723   6.251
80030SOL     OW41986   8.459   0.557   8.241
80030SOL    HW141987   8.481   0.466   8.260
80030SOL    HW241988   8.367   0.565   8.267
80031SOL     OW41989   4.887   1.035   7.682
80031SOL    HW141990   4.890   1.114   7.628
80031SOL    HW241991   4.975   0.998   7.676
80032SOL     OW41992   4.315  12.555  12.003
80032SOL    HW141993   4.374  12.484  12.028
80032SOL    HW241994   4.233  12.511  11.980
80033SOL     OW41995   0.796   5.824   1.875
80033SOL    HW141996   0.876   5.772   1.886
80033SOL    HW241997   0.739   5.797   1.946
80034SOL     OW41998  12.063   7.489  11.810
80034SOL    HW141999  12.100   7.470  11.896
80034SOL    HW242000  12.085   7.581  11.795
80035SOL     OW42001   3.331   7.463  14.639
80035SOL    HW142002   3.371   7.518  14.572
80035SOL    HW242003   3.385   7.384  14.640
80036SOL     OW42004   8.905  10.194  14.457
80036SOL    HW142005   8.829  10.147  14.424
80036SOL    HW242006   8.966  10.198  14.382
80037SOL     OW42007   6.588   9.861  13.085
80037SOL    HW142008   6.495   9.850  13.104
80037SOL    HW242009   6.632   9.799  13.144
80038SOL     OW42010   7.818  11.806   0.028
80038SOL    HW142011   7.791  11.793   0.119
80038SOL    HW242012   7.891  11.867   0.034
80039SOL     OW42013  13.818   3.932  11.566
80039SOL    HW142014  13.778   3.902  11.647
80039SOL    HW242015  13.779   3.877  11.498
80040SOL     OW42016   2.258   2.183  13.700
80040SOL    HW142017   2.266   2.268  13.657
80040SOL    HW242018   2.240   2.205  13.792
80041SOL     OW42019   1.791  11.128   4.955
80041SOL    HW142020   1.849  11.066   5.000
80041SOL    HW242021   1.849  11.199   4.927
80042SOL     OW42022   7.228  14.057  12.533
80042SOL    HW142023   7.317  14.022  12.530
80042SOL    HW242024   7.238  14.150  12.514
80043SOL     OW42025   8.475   1.388  12.749
80043SOL    HW142026   8.499   1.303  12.712
80043SOL    HW242027   8.389   1.374  12.789
80044SOL     OW42028   9.981  10.758  10.775
80044SOL    HW142029   9.890  10.732  10.789
80044SOL    HW242030   9.975  10.845  10.737
80045SOL     OW42031  13.429   5.692   7.275
80045SOL    HW142032  13.385   5.688   7.190
80045SOL    HW242033  13.375   5.752   7.327
80046SOL     OW42034  11.635   4.115   2.585
80046SOL    HW142035  11.565   4.049   2.583
80046SOL    HW242036  11.590   4.198   2.571
80047SOL     OW42037  11.002   4.957   3.489
80047SOL    HW142038  11.059   5.032   3.473
80047SOL    HW242039  11.039   4.915   3.567
80048SOL     OW42040  14.258  11.155   8.182
80048SOL    HW142041  14.251  11.086   8.247
80048SOL    HW242042  14.305  11.115   8.109
80049SOL     OW42043   0.935   4.640  11.209
80049SOL    HW142044   0.949   4.588  11.288
80049SOL    HW242045   1.008   4.617  11.152
80050SOL     OW42046  14.438   2.310  10.489
80050SOL    HW142047  14.454   2.234  10.545
80050SOL    HW242048  14.402   2.376  10.549
80051SOL     OW42049   2.182   6.777   1.236
80051SOL    HW142050   2.151   6.710   1.174
80051SOL    HW242051   2.211   6.849   1.180
80052SOL     OW42052   4.540   7.323   4.960
80052SOL    HW142053   4.577   7.272   5.033
80052SOL    HW242054   4.521   7.408   4.998
80053SOL     OW42055  10.760   7.677   7.640
80053SOL    HW142056  10.751   7.700   7.733
80053SOL    HW242057  10.774   7.583   7.640
80054SOL     OW42058   0.906  12.538   2.564
80054SOL    HW142059   0.825  12.500   2.598
80054SOL    HW242060   0.957  12.560   2.642
80055SOL     OW42061   6.401  11.755   4.777
80055SOL    HW142062   6.435  11.691   4.840
80055SOL    HW242063   6.398  11.708   4.694
80056SOL     OW42064  10.098  10.220  13.283
80056SOL    HW142065  10.096  10.314  13.266
80056SOL    HW242066  10.148  10.183  13.211
80057SOL     OW42067   3.422  14.132   0.221
80057SOL    HW142068   3.375  14.195   0.166
80057SOL    HW242069   3.371  14.052   0.215
80058SOL     OW42070   9.712   1.973  10.000
80058SOL    HW142071   9.708   1.878  10.013
80058SOL    HW242072   9.656   2.010  10.068
80059SOL     OW42073   7.717   7.906  14.721
80059SOL    HW142074   7.800   7.953  14.712
80059SOL    HW242075   7.740   7.826  14.769
80060SOL     OW42076  14.396   4.095   1.323
80060SOL    HW142077  14.344   4.015   1.328
80060SOL    HW242078  14.338   4.164   1.354
80061SOL     OW42079   1.367   4.220   1.612
80061SOL    HW142080   1.394   4.312   1.618
80061SOL    HW242081   1.272   4.222   1.622
80062SOL     OW42082   9.228  12.422   3.379
80062SOL    HW142083   9.146  12.464   3.351
80062SOL    HW242084   9.261  12.478   3.449
80063SOL     OW42085  12.389  11.067   8.268
80063SOL    HW142086  12.452  11.123   8.312
80063SOL    HW242087  12.434  11.035   8.190
80064SOL     OW42088  10.819   0.292   3.545
80064SOL    HW142089  10.867   0.375   3.532
80064SOL    HW242090  10.805   0.288   3.640
80065SOL     OW42091  13.765   9.029   7.533
80065SOL    HW142092  13.793   9.119   7.549
80065SOL    HW242093  13.682   9.022   7.581
80066SOL     OW42094   6.303  10.903   9.829
80066SOL    HW142095   6.365  10.923   9.759
80066SOL    HW242096   6.219  10.937   9.798
80067SOL     OW42097  11.727   5.165   5.416
80067SOL    HW142098  11.771   5.093   5.370
80067SOL    HW242099  11.634   5.155   5.392
80068SOL     OW42100   5.744   5.243   7.760
80068SOL    HW142101   5.686   5.209   7.828
80068SOL    HW242102   5.809   5.295   7.807
80069SOL     OW42103  13.803  12.777  10.503
80069SOL    HW142104  13.719  12.820  10.519
80069SOL    HW242105  13.782  12.684  10.500
80070SOL     OW42106   7.512   8.192   9.622
80070SOL    HW142107   7.455   8.172   9.696
80070SOL    HW242108   7.586   8.132   9.631
80071SOL     OW42109   5.033   8.330   0.811
80071SOL    HW142110   4.973   8.377   0.869
80071SOL    HW242111   4.977   8.285   0.749
80072SOL     OW42112   1.528   4.049  12.266
80072SOL    HW142113   1.526   4.113  12.337
80072SOL    HW242114   1.577   3.975  12.301
80073SOL     OW42115   9.774   5.862   9.904
80073SOL    HW142116   9.851   5.806   9.906
80073SOL    HW242117   9.757   5.884   9.996
80074SOL     OW42118   1.436  12.807  14.833
80074SOL    HW142119   1.497  12.880  14.820
80074SOL    HW242120   1.359  12.846  14.874
80075SOL     OW42121   8.487   1.919   1.697
80075SOL    HW142122   8.439   1.871   1.630
80075SOL    HW242123   8.577   1.923   1.663
80076SOL     OW42124   9.793   1.123   0.492
80076SOL    HW142125   9.710   1.163   0.518
80076SOL    HW242126   9.828   1.183   0.425
80077SOL     OW42127   7.636   3.661   6.770
80077SOL    HW142128   7.683   3.689   6.848
80077SOL    HW242129   7.612   3.743   6.726
80078SOL     OW42130  13.939   4.229  10.207
80078SOL    HW142131  13.906   4.216  10.118
80078SOL    HW242132  14.015   4.285  10.196
80079SOL     OW42133  13.652   1.695   7.253
80079SOL    HW142134  13.647   1.788   7.232
80079SOL    HW242135  13.568   1.675   7.293
80080SOL     OW42136  12.419   6.754   9.070
80080SOL    HW142137  12.486   6.709   9.121
80080SOL    HW242138  12.337   6.712   9.095
80081SOL     OW42139  11.407   1.411  11.661
80081SOL    HW142140  11.460   1.476  11.708
80081SOL    HW242141  11.318   1.423  11.695
80082SOL     OW42142  12.335  10.649  14.074
80082SOL    HW142143  12.375  10.562  14.083
80082SOL    HW242144  12.269  10.652  14.143
80083SOL     OW42145   7.874   9.122  12.645
80083SOL    HW142146   7.781   9.138  12.625
80083SOL    HW242147   7.921   9.182  12.587
80084SOL     OW42148  11.934   6.081  12.929
80084SOL    HW142149  11.851   6.122  12.902
80084SOL    HW242150  11.918   5.987  12.922
80085SOL     OW42151   7.855  10.680   0.501
80085SOL    HW142152   7.803  10.744   0.453
80085SOL    HW242153   7.842  10.702   0.593
80086SOL     OW42154   3.193   4.152  12.579
80086SOL    HW142155   3.272   4.198  12.550
80086SOL    HW242156   3.222   4.096  12.651
80087SOL     OW42157   8.824   2.453  12.400
80087SOL    HW142158   8.757   2.476  12.336
80087SOL    HW242159   8.896   2.513  12.384
80088SOL     OW42160   3.897   6.687   3.680
80088SOL    HW142161   3.924   6.712   3.592
80088SOL    HW242162   3.958   6.733   3.738
80089SOL     OW42163  11.388  13.762   0.641
80089SOL    HW142164  11.333  13.771   0.718
80089SOL    HW242165  11.424  13.850   0.627
80090SOL     OW42166   2.899   2.943   0.598
80090SOL    HW142167   2.840   2.987   0.659
80090SOL    HW242168   2.911   3.006   0.526
80091SOL     OW42169   7.164   8.035   4.373
80091SOL    HW142170   7.159   7.939   4.368
80091SOL    HW242171   7.258   8.054   4.367
80092SOL     OW42172   7.987   5.252   4.712
80092SOL    HW142173   8.040   5.174   4.696
80092SOL    HW242174   8.016   5.284   4.798
80093SOL     OW42175  11.005   0.182   3.777
80093SOL    HW142176  10.991   0.270   3.811
80093SOL    HW242177  11.014   0.127   3.854
80094SOL     OW42178   5.498   9.593   9.107
80094SOL    HW142179   5.575   9.570   9.159
80094SOL    HW242180   5.441   9.640   9.168
80095SOL     OW42181  11.412  10.102  11.076
80095SOL    HW142182  11.448  10.039  11.139
80095SOL    HW242183  11.489  10.138  11.032
80096SOL     OW42184  12.326  13.349   4.553
80096SOL    HW142185  12.260  13.301   4.603
80096SOL    HW242186  12.276  13.416   4.506
80097SOL     OW42187   6.064   4.414   8.018
80097SOL    HW142188   6.073   4.368   7.935
80097SOL    HW242189   6.148   4.457   8.031
80098SOL     OW42190   7.584  11.530   2.898
80098SOL    HW142191   7.493  11.534   2.870
80098SOL    HW242192   7.629  11.592   2.841
80099SOL     OW42193  14.529   0.803   6.816
80099SOL    HW142194  14.502   0.721   6.776
80099SOL    HW242195  14.609   0.828   6.768
80100SOL     OW42196   2.511  14.090   7.671
80100SOL    HW142197   2.596  14.130   7.656
80100SOL    HW242198   2.529  13.996   7.675
80101SOL     OW42199   7.303   1.624   2.069
80101SOL    HW142200   7.316   1.674   2.149
80101SOL    HW242201   7.289   1.534   2.099
80102SOL     OW42202   9.638  11.977   3.390
80102SOL    HW142203   9.609  11.968   3.481
80102SOL    HW242204   9.592  11.907   3.344
80103SOL     OW42205   2.737   4.274   1.936
80103SOL    HW142206   2.667   4.211   1.918
80103SOL    HW242207   2.817   4.222   1.935
80104SOL     OW42208   6.355   8.538  13.600
80104SOL    HW142209   6.275   8.525  13.548
80104SOL    HW242210   6.426   8.533  13.536
80105SOL     OW42211  13.956   1.307   0.375
80105SOL    HW142212  14.044   1.297   0.412
80105SOL    HW242213  13.910   1.363   0.437
80106SOL     OW42214  14.667  11.998   2.134
80106SOL    HW142215  14.722  11.975   2.060
80106SOL    HW242216  14.580  12.011   2.096
80107SOL     OW42217   1.012   0.119  11.803
80107SOL    HW142218   0.977   0.190  11.749
80107SOL    HW242219   1.023   0.157  11.890
80108SOL     OW42220   9.085  13.840  11.994
80108SOL    HW142221   9.062  13.911  12.054
80108SOL    HW242222   9.180  13.836  11.997
80109SOL     OW42223  11.535   8.914   0.044
80109SOL    HW142224  11.446   8.921   0.078
80109SOL    HW242225  11.531   8.841  14.857
80110SOL     OW42226  10.724   5.470   1.731
80110SOL    HW142227  10.703   5.563   1.720
80110SOL    HW242228  10.806   5.459   1.684
80111SOL     OW42229   1.766   4.679  11.141
80111SOL    HW142230   1.744   4.597  11.186
80111SOL    HW242231   1.685   4.705  11.097
80112SOL     OW42232   2.988   3.713   9.035
80112SOL    HW142233   2.914   3.737   8.979
80112SOL    HW242234   3.063   3.714   8.976
80113SOL     OW42235   8.794  14.715   8.292
80113SOL    HW142236   8.862  14.754   8.237
80113SOL    HW242237   8.836  14.703   8.377
80114SOL     OW42238   9.954  10.990  10.629
80114SOL    HW142239   9.888  11.046  10.591
80114SOL    HW242240   9.968  11.025  10.717
80115SOL     OW42241   2.660   5.285   2.537
80115SOL    HW142242   2.588   5.336   2.573
80115SOL    HW242243   2.618   5.209   2.497
80116SOL     OW42244  13.377   3.986   4.837
80116SOL    HW142245  13.287   3.955   4.830
80116SOL    HW242246  13.373   4.058   4.899
80117SOL     OW42247  13.003   3.256  11.784
80117SOL    HW142248  12.998   3.297  11.698
80117SOL    HW242249  13.040   3.324  11.841
80118SOL     OW42250  14.304   8.676  14.068
80118SOL    HW142251  14.302   8.736  13.994
80118SOL    HW242252  14.281   8.730  14.144
80119SOL     OW42253   7.580  13.420   9.922
80119SOL    HW142254   7.601  13.512   9.904
80119SOL    HW242255   7.489  13.421   9.950
80120SOL     OW42256   1.243   1.368   3.845
80120SOL    HW142257   1.319   1.387   3.900
80120SOL    HW242258   1.176   1.429   3.876
80121SOL     OW42259  13.049   0.852   7.379
80121SOL    HW142260  13.045   0.930   7.435
80121SOL    HW242261  12.959   0.822   7.373
80122SOL     OW42262  12.025   7.404   5.804
80122SOL    HW142263  12.062   7.484   5.765
80122SOL    HW242264  12.039   7.336   5.738
80123SOL     OW42265   4.048  10.369   6.731
80123SOL    HW142266   4.138  10.354   6.759
80123SOL    HW242267   4.004  10.285   6.747
80124SOL     OW42268   2.617  14.384   6.645
80124SOL    HW142269   2.551  14.452   6.658
80124SOL    HW242270   2.593  14.343   6.562
80125SOL     OW42271   5.354   3.915   3.853
80125SOL    HW142272   5.294   3.990   3.849
80125SOL    HW242273   5.405   3.929   3.933
80126SOL     OW42274   4.416  14.859   4.122
80126SOL    HW142275   4.380  14.862   4.210
80126SOL    HW242276   4.506   0.015   4.132
80127SOL     OW42277   6.056   9.185   4.813
80127SOL    HW142278   6.148   9.176   4.836
80127SOL    HW242279   6.011   9.121   4.869
80128SOL     OW42280   9.821   2.983   6.843
80128SOL    HW142281   9.779   2.900   6.821
80128SOL    HW242282   9.915   2.966   6.835
80129SOL     OW42283  14.529   4.522   3.412
80129SOL    HW142284  14.594   4.483   3.470
80129SOL    HW242285  14.554   4.615   3.406
80130SOL     OW42286   1.863   8.119   4.391
80130SOL    HW142287   1.905   8.196   4.429
80130SOL    HW242288   1.903   8.110   4.305
80131SOL     OW42289   2.641  14.821   1.133
80131SOL    HW142290   2.558  14.779   1.155
80131SOL    HW242291   2.656  14.798   1.041
80132SOL     OW42292   9.724  10.163  14.071
80132SOL    HW142293   9.640  10.177  14.116
80132SOL    HW242294   9.763  10.249  14.066
80133SOL     OW42295   8.397  14.003   1.574
80133SOL    HW142296   8.437  14.040   1.496
80133SOL    HW242297   8.322  13.953   1.542
80134SOL     OW42298   2.345   8.822  13.446
80134SOL    HW142299   2.422   8.879  13.432
80134SOL    HW242300   2.381   8.733  13.445
80135SOL     OW42301   2.043   6.860   1.455
80135SOL    HW142302   2.106   6.841   1.386
80135SOL    HW242303   2.047   6.783   1.512
80136SOL     OW42304   0.220  13.597   9.678
80136SOL    HW142305   0.299  13.640   9.646
80136SOL    HW242306   0.231  13.596   9.773
80137SOL     OW42307  14.360   1.318   0.958
80137SOL    HW142308  14.406   1.240   0.991
80137SOL    HW242309  14.268   1.293   0.957
80138SOL     OW42310   7.936   8.340  10.934
80138SOL    HW142311   7.990   8.412  10.901
80138SOL    HW242312   7.846   8.368  10.918
80139SOL     OW42313   1.191   9.006   2.331
80139SOL    HW142314   1.167   9.008   2.423
80139SOL    HW242315   1.277   8.964   2.329
80140SOL     OW42316   6.522   9.894   7.992
80140SOL    HW142317   6.570   9.832   7.938
80140SOL    HW242318   6.590   9.951   8.030
80141SOL     OW42319   5.402   4.981   9.590
80141SOL    HW142320   5.313   4.978   9.624
80141SOL    HW242321   5.448   5.041   9.649
80142SOL     OW42322   1.049   4.226   0.213
80142SOL    HW142323   1.052   4.318   0.187
80142SOL    HW242324   0.988   4.224   0.287
80143SOL     OW42325   8.951   9.276   0.395
80143SOL    HW142326   8.968   9.216   0.322
80143SOL    HW242327   8.856   9.271   0.408
80144SOL     OW42328  10.509   8.466  12.429
80144SOL    HW142329  10.591   8.513  12.446
80144SOL    HW242330  10.468   8.515  12.357
80145SOL     OW42331   4.917  12.325  10.016
80145SOL    HW142332   4.854  12.388   9.982
80145SOL    HW242333   4.929  12.349  10.108
80146SOL     OW42334   1.319  10.153  13.604
80146SOL    HW142335   1.375  10.222  13.640
80146SOL    HW242336   1.230  10.183  13.620
80147SOL     OW42337  12.856  13.693   1.678
80147SOL    HW142338  12.889  13.696   1.768
80147SOL    HW242339  12.766  13.724   1.685
80148SOL     OW42340   0.314   1.250   7.276
80148SOL    HW142341   0.263   1.320   7.235
80148SOL    HW242342   0.383   1.295   7.324
80149SOL     OW42343   5.535   9.745   1.717
80149SOL    HW142344   5.628   9.742   1.693
80149SOL    HW242345   5.535   9.773   1.809
80150SOL     OW42346  12.219   1.397  13.351
80150SOL    HW142347  12.187   1.459  13.416
80150SOL    HW242348  12.157   1.404  13.278
80151SOL     OW42349   3.384   4.305   1.376
80151SOL    HW142350   3.471   4.275   1.351
80151SOL    HW242351   3.324   4.244   1.334
80152SOL     OW42352   2.600   0.343   9.555
80152SOL    HW142353   2.519   0.322   9.510
80152SOL    HW242354   2.573   0.384   9.637
80153SOL     OW42355   4.998   6.349   5.583
80153SOL    HW142356   4.980   6.314   5.670
80153SOL    HW242357   5.092   6.368   5.584
80154SOL     OW42358   0.580   7.797  13.254
80154SOL    HW142359   0.517   7.855  13.211
80154SOL    HW242360   0.547   7.788  13.343
80155SOL     OW42361   2.825  11.191  14.832
80155SOL    HW142362   2.817  11.183   0.052
80155SOL    HW242363   2.739  11.224  14.804
80156SOL     OW42364   4.919  10.930   5.750
80156SOL    HW142365   4.947  10.838   5.748
80156SOL    HW242366   4.861  10.939   5.675
80157SOL     OW42367   4.675   2.842   8.039
80157SOL    HW142368   4.629   2.906   8.095
80157SOL    HW242369   4.634   2.758   8.059
80158SOL     OW42370   2.322   8.683   0.945
80158SOL    HW142371   2.351   8.672   0.854
80158SOL    HW242372   2.226   8.685   0.939
80159SOL     OW42373   0.608  10.248   8.423
80159SOL    HW142374   0.633  10.173   8.369
80159SOL    HW242375   0.542  10.294   8.371
80160SOL     OW42376  12.731  11.612   5.703
80160SOL    HW142377  12.742  11.530   5.753
80160SOL    HW242378  12.756  11.681   5.765
80161SOL     OW42379   2.546   0.633  14.021
80161SOL    HW142380   2.589   0.710  13.983
80161SOL    HW242381   2.578   0.630  14.111
80162SOL     OW42382   3.329  10.139   9.898
80162SOL    HW142383   3.291  10.135   9.986
80162SOL    HW242384   3.253  10.142   9.840
80163SOL     OW42385  14.336  11.486   8.769
80163SOL    HW142386  14.417  11.531   8.746
80163SOL    HW242387  14.365  11.405   8.811
80164SOL     OW42388   4.615   5.545   0.106
80164SOL    HW142389   4.636   5.460   0.068
80164SOL    HW242390   4.591   5.600   0.031
80165SOL     OW42391   4.850  10.164   4.577
80165SOL    HW142392   4.861  10.245   4.626
80165SOL    HW242393   4.870  10.187   4.487
80166SOL     OW42394  11.428   8.064   9.348
80166SOL    HW142395  11.506   8.024   9.310
80166SOL    HW242396  11.449   8.157   9.354
80167SOL     OW42397   2.802  13.422   1.207
80167SOL    HW142398   2.890  13.421   1.170
80167SOL    HW242399   2.750  13.368   1.148
80168SOL     OW42400  14.222   8.147   3.445
80168SOL    HW142401  14.213   8.115   3.535
80168SOL    HW242402  14.308   8.117   3.418
80169SOL     OW42403   9.757  11.619   7.347
80169SOL    HW142404   9.758  11.588   7.256
80169SOL    HW242405   9.693  11.690   7.347
80170SOL     OW42406   0.143   2.515  14.848
80170SOL    HW142407   0.141   2.438   0.030
80170SOL    HW242408   0.054   2.550  14.851
80171SOL     OW42409  10.256   3.269  11.349
80171SOL    HW142410  10.264   3.176  11.326
80171SOL    HW242411  10.298   3.315  11.276
80172SOL     OW42412   9.428  11.293   2.717
80172SOL    HW142413   9.466  11.262   2.800
80172SOL    HW242414   9.405  11.214   2.670
80173SOL     OW42415  12.630  10.796   3.263
80173SOL    HW142416  12.657  10.708   3.237
80173SOL    HW242417  12.602  10.838   3.181
80174SOL     OW42418  11.607  12.975   6.768
80174SOL    HW142419  11.685  13.014   6.730
80174SOL    HW242420  11.561  12.936   6.693
80175SOL     OW42421  12.611   2.589   2.022
80175SOL    HW142422  12.647   2.672   1.989
80175SOL    HW242423  12.520   2.610   2.043
80176SOL     OW42424   7.850  11.855   9.562
80176SOL    HW142425   7.841  11.762   9.583
80176SOL    HW242426   7.844  11.859   9.467
80177SOL     OW42427  13.108   0.761   3.160
80177SOL    HW142428  13.159   0.735   3.237
80177SOL    HW242429  13.168   0.746   3.086
80178SOL     OW42430  12.947  10.314   6.321
80178SOL    HW142431  12.936  10.408   6.310
80178SOL    HW242432  13.008  10.288   6.252
80179SOL     OW42433   3.232   1.209   7.797
80179SOL    HW142434   3.319   1.186   7.831
80179SOL    HW242435   3.239   1.301   7.774
80180SOL     OW42436   8.656   1.035  10.034
80180SOL    HW142437   8.710   1.042  10.112
80180SOL    HW242438   8.651   1.124   9.999
80181SOL     OW42439   4.334   8.918   9.883
80181SOL    HW142440   4.378   8.859   9.944
80181SOL    HW242441   4.281   8.975   9.939
80182SOL     OW42442   2.664   1.582   9.817
80182SOL    HW142443   2.691   1.500   9.776
80182SOL    HW242444   2.727   1.595   9.888
80183SOL     OW42445   0.228   2.557  13.239
80183SOL    HW142446   0.254   2.618  13.307
80183SOL    HW242447   0.288   2.483  13.249
80184SOL     OW42448   0.159  12.145   0.276
80184SOL    HW142449   0.247  12.111   0.262
80184SOL    HW242450   0.104  12.098   0.214
80185SOL     OW42451   5.185  11.462   4.618
80185SOL    HW142452   5.171  11.462   4.713
80185SOL    HW242453   5.113  11.514   4.583
80186SOL     OW42454  12.965   8.319   2.149
80186SOL    HW142455  12.897   8.359   2.095
80186SOL    HW242456  12.920   8.290   2.228
80187SOL     OW42457   5.775   3.634  13.501
80187SOL    HW142458   5.745   3.553  13.541
80187SOL    HW242459   5.720   3.645  13.424
80188SOL     OW42460   4.026  13.284  13.895
80188SOL    HW142461   3.946  13.246  13.932
80188SOL    HW242462   4.057  13.345  13.962
80189SOL     OW42463   5.641   3.088   2.528
80189SOL    HW142464   5.704   3.150   2.492
80189SOL    HW242465   5.663   3.080   2.620
80190SOL     OW42466   3.508   5.493   0.790
80190SOL    HW142467   3.486   5.585   0.775
80190SOL    HW242468   3.544   5.492   0.879
80191SOL     OW42469   2.945  12.843   1.955
80191SOL    HW142470   2.988  12.928   1.942
80191SOL    HW242471   2.941  12.804   1.868
80192SOL     OW42472  12.987   1.101  13.986
80192SOL    HW142473  12.974   1.007  14.002
80192SOL    HW242474  13.071   1.121  14.027
80193SOL     OW42475   5.518  14.703   3.115
80193SOL    HW142476   5.570  14.632   3.078
80193SOL    HW242477   5.516  14.685   3.209
80194SOL     OW42478   9.644  13.659  10.486
80194SOL    HW142479   9.592  13.597  10.537
80194SOL    HW242480   9.710  13.691  10.546
80195SOL     OW42481   7.340   1.015   5.445
80195SOL    HW142482   7.361   1.108   5.452
80195SOL    HW242483   7.268   1.011   5.381
80196SOL     OW42484   7.687   6.954  12.374
80196SOL    HW142485   7.747   6.881  12.363
80196SOL    HW242486   7.661   6.950  12.466
80197SOL     OW42487   5.353   4.435   3.952
80197SOL    HW142488   5.394   4.357   3.989
80197SOL    HW242489   5.283   4.457   4.013
80198SOL     OW42490   6.414   8.253   8.359
80198SOL    HW142491   6.436   8.274   8.269
80198SOL    HW242492   6.320   8.271   8.366
80199SOL     OW42493   6.707  11.169   2.513
80199SOL    HW142494   6.690  11.131   2.599
80199SOL    HW242495   6.635  11.230   2.498
80200SOL     OW42496  14.382   0.705  14.190
80200SOL    HW142497  14.474   0.681  14.189
80200SOL    HW242498  14.380   0.796  14.160
80201SOL     OW42499   9.246  11.342  10.389
80201SOL    HW142500   9.334  11.316  10.359
80201SOL    HW242501   9.256  11.351  10.484
80202SOL     OW42502   0.539  10.144  13.056
80202SOL    HW142503   0.501  10.159  12.970
80202SOL    HW242504   0.601  10.072  13.044
80203SOL     OW42505  13.321   0.941  11.057
80203SOL    HW142506  13.338   0.992  11.137
80203SOL    HW242507  13.371   0.986  10.989
80204SOL     OW42508  13.888   9.622   3.619
80204SOL    HW142509  13.979   9.649   3.615
80204SOL    HW242510  13.861   9.612   3.528
80205SOL     OW42511   6.332   6.459  13.760
80205SOL    HW142512   6.276   6.408  13.702
80205SOL    HW242513   6.417   6.416  13.756
80206SOL     OW42514   9.945   5.964   2.342
80206SOL    HW142515   9.900   6.032   2.392
80206SOL    HW242516   9.968   6.006   2.259
80207SOL     OW42517   1.220  14.255  14.028
80207SOL    HW142518   1.220  14.256  14.124
80207SOL    HW242519   1.242  14.345  14.003
80208SOL     OW42520   5.128   4.397   7.184
80208SOL    HW142521   5.209   4.440   7.154
80208SOL    HW242522   5.157   4.312   7.218
80209SOL     OW42523   3.969   3.392  12.861
80209SOL    HW142524   3.881   3.429  12.860
80209SOL    HW242525   4.011   3.427  12.783
80210SOL     OW42526   8.906  12.696   3.097
80210SOL    HW142527   8.879  12.783   3.067
80210SOL    HW242528   8.849  12.635   3.049
80211SOL     OW42529   7.103  14.680   7.080
80211SOL    HW142530   7.184  14.707   7.124
80211SOL    HW242531   7.127  14.673   6.988
80212SOL     OW42532  10.259   6.861  12.793
80212SOL    HW142533  10.181   6.820  12.832
80212SOL    HW242534  10.256   6.952  12.823
80213SOL     OW42535   6.398  10.477   8.504
80213SOL    HW142536   6.306  10.453   8.516
80213SOL    HW242537   6.396  10.572   8.494
80214SOL     OW42538  13.073   4.563  13.293
80214SOL    HW142539  13.054   4.544  13.385
80214SOL    HW242540  13.155   4.518  13.276
80215SOL     OW42541   3.415   8.861   6.458
80215SOL    HW142542   3.348   8.827   6.517
80215SOL    HW242543   3.473   8.912   6.514
80216SOL     OW42544   3.365   0.483   6.554
80216SOL    HW142545   3.283   0.483   6.603
80216SOL    HW242546   3.433   0.468   6.621
80217SOL     OW42547   3.506   4.123   9.362
80217SOL    HW142548   3.572   4.111   9.431
80217SOL    HW242549   3.515   4.215   9.337
80218SOL     OW42550  11.774   2.054  12.460
80218SOL    HW142551  11.806   2.128  12.511
80218SOL    HW242552  11.715   2.008  12.519
80219SOL     OW42553   4.617   0.896   6.323
80219SOL    HW142554   4.675   0.849   6.382
80219SOL    HW242555   4.667   0.905   6.242
80220SOL     OW42556   4.662   2.694   4.947
80220SOL    HW142557   4.656   2.787   4.967
80220SOL    HW242558   4.748   2.668   4.980
80221SOL     OW42559   7.675   6.546   5.916
80221SOL    HW142560   7.610   6.480   5.940
80221SOL    HW242561   7.736   6.501   5.858
80222SOL     OW42562  12.196   5.578   7.424
80222SOL    HW142563  12.261   5.526   7.376
80222SOL    HW242564  12.127   5.515   7.445
80223SOL     OW42565   5.594   6.493   1.533
80223SOL    HW142566   5.620   6.418   1.586
80223SOL    HW242567   5.556   6.554   1.596
80224SOL     OW42568  13.121   2.702  12.874
80224SOL    HW142569  13.137   2.647  12.950
80224SOL    HW242570  13.044   2.663  12.832
80225SOL     OW42571  10.236  13.877   0.024
80225SOL    HW142572  10.317  13.839  14.865
80225SOL    HW242573  10.249  13.880   0.119
80226SOL     OW42574   7.559   0.571  12.504
80226SOL    HW142575   7.532   0.501  12.445
80226SOL    HW242576   7.503   0.645  12.481
80227SOL     OW42577   3.197   1.053   9.538
80227SOL    HW142578   3.281   1.045   9.582
80227SOL    HW242579   3.139   1.092   9.604
80228SOL     OW42580   9.303   4.943   2.156
80228SOL    HW142581   9.335   4.889   2.229
80228SOL    HW242582   9.254   4.881   2.101
80229SOL     OW42583   6.452   3.305   1.239
80229SOL    HW142584   6.420   3.222   1.204
80229SOL    HW242585   6.381   3.338   1.293
80230SOL     OW42586  12.127   7.872  12.735
80230SOL    HW142587  12.222   7.880  12.721
80230SOL    HW242588  12.115   7.782  12.764
80231SOL     OW42589   0.191   7.016   1.925
80231SOL    HW142590   0.141   6.998   1.845
80231SOL    HW242591   0.141   7.084   1.970
80232SOL     OW42592   1.410  13.582   3.405
80232SOL    HW142593   1.439  13.492   3.422
80232SOL    HW242594   1.363  13.576   3.322
80233SOL     OW42595   6.794   1.562  14.130
80233SOL    HW142596   6.782   1.557  14.035
80233SOL    HW242597   6.812   1.472  14.157
80234SOL     OW42598   7.413  14.661   9.489
80234SOL    HW142599   7.328  14.702   9.472
80234SOL    HW242600   7.448  14.709   9.564
80235SOL     OW42601  11.125  10.901   0.828
80235SOL    HW142602  11.221  10.906   0.831
80235SOL    HW242603  11.105  10.858   0.745
80236SOL     OW42604  10.609   9.397   6.129
80236SOL    HW142605  10.528   9.346   6.117
80236SOL    HW242606  10.602   9.467   6.064
80237SOL     OW42607   8.323   8.915  11.932
80237SOL    HW142608   8.395   8.867  11.973
80237SOL    HW242609   8.300   8.983  11.996
80238SOL     OW42610  13.901   4.657  11.137
80238SOL    HW142611  13.829   4.639  11.077
80238SOL    HW242612  13.905   4.753  11.141
80239SOL     OW42613   9.918  14.704   6.951
80239SOL    HW142614   9.955  14.616   6.951
80239SOL    HW242615   9.845  14.699   6.889
80240SOL     OW42616  13.514  11.877   9.681
80240SOL    HW142617  13.535  11.937   9.610
80240SOL    HW242618  13.445  11.821   9.646
80241SOL     OW42619   3.235   6.809   3.957
80241SOL    HW142620   3.256   6.823   3.865
80241SOL    HW242621   3.277   6.726   3.979
80242SOL     OW42622  11.300   3.606  11.271
80242SOL    HW142623  11.365   3.675  11.258
80242SOL    HW242624  11.312   3.577  11.361
80243SOL     OW42625   4.398  10.083   4.652
80243SOL    HW142626   4.469  10.077   4.716
80243SOL    HW242627   4.318  10.072   4.703
80244SOL     OW42628  10.859  12.267   6.930
80244SOL    HW142629  10.830  12.243   7.017
80244SOL    HW242630  10.805  12.341   6.905
80245SOL     OW42631  12.887   6.401   9.867
80245SOL    HW142632  12.974   6.422   9.833
80245SOL    HW242633  12.879   6.306   9.854
80246SOL     OW42634  14.458   6.870   5.969
80246SOL    HW142635  14.520   6.798   5.955
80246SOL    HW242636  14.376   6.826   5.992
80247SOL     OW42637   1.536   6.127  12.504
80247SOL    HW142638   1.467   6.087  12.558
80247SOL    HW242639   1.578   6.053  12.461
80248SOL     OW42640   1.509  13.241  10.404
80248SOL    HW142641   1.571  13.222  10.475
80248SOL    HW242642   1.560  13.229  10.324
80249SOL     OW42643  10.659   8.257  10.504
80249SOL    HW142644  10.568   8.241  10.529
80249SOL    HW242645  10.710   8.217  10.575
80250SOL     OW42646   2.687   9.427  11.728
80250SOL    HW142647   2.705   9.510  11.683
80250SOL    HW242648   2.616   9.388  11.677
80251SOL     OW42649   0.943  14.834   4.608
80251SOL    HW142650   0.999  14.865   4.680
80251SOL    HW242651   0.997  14.845   4.530
80252SOL     OW42652   4.663   4.116   0.580
80252SOL    HW142653   4.731   4.170   0.539
80252SOL    HW242654   4.674   4.131   0.674
80253SOL     OW42655  11.076   1.245   3.849
80253SOL    HW142656  11.150   1.214   3.796
80253SOL    HW242657  11.034   1.165   3.881
80254SOL     OW42658  10.346  14.502   9.892
80254SOL    HW142659  10.434  14.484   9.859
80254SOL    HW242660  10.337  14.446   9.969
80255SOL     OW42661   1.962   8.031   7.045
80255SOL    HW142662   1.906   8.064   7.115
80255SOL    HW242663   1.986   8.109   6.995
80256SOL     OW42664   9.246  12.799   6.578
80256SOL    HW142665   9.155  12.815   6.554
80256SOL    HW242666   9.267  12.867   6.642
80257SOL     OW42667   1.648  10.399   6.869
80257SOL    HW142668   1.721  10.425   6.925
80257SOL    HW242669   1.646  10.463   6.799
80258SOL     OW42670   5.537  11.442   7.434
80258SOL    HW142671   5.603  11.453   7.366
80258SOL    HW242672   5.492  11.527   7.438
80259SOL     OW42673   4.666  12.589   6.648
80259SOL    HW142674   4.717  12.520   6.605
80259SOL    HW242675   4.596  12.543   6.693
80260SOL     OW42676   3.744   1.950  13.802
80260SOL    HW142677   3.650   1.956  13.785
80260SOL    HW242678   3.767   1.861  13.774
80261SOL     OW42679   4.311  10.718  12.245
80261SOL    HW142680   4.382  10.781  12.258
80261SOL    HW242681   4.288  10.728  12.152
80262SOL     OW42682   0.924   9.780   4.945
80262SOL    HW142683   0.857   9.792   4.878
80262SOL    HW242684   0.925   9.685   4.961
80263SOL     OW42685   5.285   2.282   5.798
80263SOL    HW142686   5.235   2.201   5.803
80263SOL    HW242687   5.226   2.349   5.835
80264SOL     OW42688   8.630   4.100  13.696
80264SOL    HW142689   8.588   4.081  13.780
80264SOL    HW242690   8.596   4.186  13.671
80265SOL     OW42691   0.064   6.018   2.984
80265SOL    HW142692  14.850   5.994   3.012
80265SOL    HW242693   0.077   6.106   3.021
80266SOL     OW42694   7.861  14.765  11.610
80266SOL    HW142695   7.918  14.803  11.543
80266SOL    HW242696   7.793  14.720  11.560
80267SOL     OW42697   8.990   7.607   1.324
80267SOL    HW142698   8.915   7.572   1.371
80267SOL    HW242699   9.059   7.542   1.336
80268SOL     OW42700   7.163  10.475   1.343
80268SOL    HW142701   7.162  10.396   1.289
80268SOL    HW242702   7.092  10.529   1.307
80269SOL     OW42703   0.792   3.082   4.313
80269SOL    HW142704   0.806   3.177   4.314
80269SOL    HW242705   0.754   3.064   4.227
80270SOL     OW42706   3.069   3.803   6.862
80270SOL    HW142707   3.097   3.884   6.903
80270SOL    HW242708   3.010   3.830   6.792
80271SOL     OW42709   5.943   6.166   4.706
80271SOL    HW142710   5.955   6.160   4.611
80271SOL    HW242711   5.909   6.079   4.731
80272SOL     OW42712   4.294   2.604  11.637
80272SOL    HW142713   4.359   2.655  11.590
80272SOL    HW242714   4.324   2.514  11.631
80273SOL     OW42715   8.787   9.620   4.854
80273SOL    HW142716   8.874   9.659   4.856
80273SOL    HW242717   8.802   9.529   4.827
80274SOL     OW42718  13.878  14.253  10.769
80274SOL    HW142719  13.789  14.240  10.802
80274SOL    HW242720  13.911  14.164  10.753
80275SOL     OW42721  13.194   1.111   1.044
80275SOL    HW142722  13.182   1.087   1.136
80275SOL    HW242723  13.190   1.207   1.043
80276SOL     OW42724  12.889   1.301  13.824
80276SOL    HW142725  12.925   1.228  13.875
80276SOL    HW242726  12.965   1.355  13.804
80277SOL     OW42727  10.945  12.817   0.616
80277SOL    HW142728  11.004  12.859   0.679
80277SOL    HW242729  10.915  12.888   0.560
80278SOL     OW42730   7.080   4.537   6.958
80278SOL    HW142731   7.098   4.524   6.865
80278SOL    HW242732   7.024   4.463   6.982
80279SOL     OW42733   0.076   3.012  12.181
80279SOL    HW142734   0.159   3.010  12.133
80279SOL    HW242735   0.094   2.965  12.262
80280SOL     OW42736   3.787   7.381   5.761
80280SOL    HW142737   3.803   7.403   5.853
80280SOL    HW242738   3.773   7.286   5.761
80281SOL     OW42739  12.237   5.308   2.142
80281SOL    HW142740  12.259   5.358   2.064
80281SOL    HW242741  12.192   5.371   2.199
80282SOL     OW42742   5.282   5.209   4.907
80282SOL    HW142743   5.318   5.224   4.994
80282SOL    HW242744   5.321   5.126   4.879
80283SOL     OW42745   1.399   1.633  13.647
80283SOL    HW142746   1.422   1.660  13.558
80283SOL    HW242747   1.305   1.620  13.644
80284SOL     OW42748   6.070  10.370  14.701
80284SOL    HW142749   6.037  10.432  14.636
80284SOL    HW242750   6.165  10.370  14.689
80285SOL     OW42751  13.975   6.767   8.134
80285SOL    HW142752  14.032   6.689   8.136
80285SOL    HW242753  13.948   6.778   8.224
80286SOL     OW42754  12.044  13.809   4.898
80286SOL    HW142755  12.010  13.850   4.819
80286SOL    HW242756  12.098  13.877   4.939
80287SOL     OW42757   7.161   1.466   2.311
80287SOL    HW142758   7.069   1.442   2.314
80287SOL    HW242759   7.176   1.514   2.393
80288SOL     OW42760   2.370   0.826  11.746
80288SOL    HW142761   2.333   0.777  11.672
80288SOL    HW242762   2.367   0.765  11.820
80289SOL     OW42763   3.431   9.274   0.080
80289SOL    HW142764   3.499   9.306   0.021
80289SOL    HW242765   3.479   9.245   0.158
80290SOL     OW42766  11.852  11.295  10.637
80290SOL    HW142767  11.908  11.350  10.691
80290SOL    HW242768  11.899  11.213  10.628
80291SOL     OW42769   2.920   9.723   8.943
80291SOL    HW142770   2.878   9.722   9.030
80291SOL    HW242771   2.867   9.662   8.891
80292SOL     OW42772   6.448   6.992  13.064
80292SOL    HW142773   6.411   7.007  12.977
80292SOL    HW242774   6.380   6.943  13.111
80293SOL     OW42775   7.565  14.552   4.791
80293SOL    HW142776   7.484  14.564   4.742
80293SOL    HW242777   7.542  14.571   4.882
80294SOL     OW42778   7.522   9.954  10.772
80294SOL    HW142779   7.563   9.878  10.814
80294SOL    HW242780   7.508   9.926  10.681
80295SOL     OW42781   3.023  10.624  12.125
80295SOL    HW142782   3.044  10.667  12.042
80295SOL    HW242783   3.100  10.571  12.145
80296SOL     OW42784   5.127   9.867   6.213
80296SOL    HW142785   5.103   9.821   6.133
80296SOL    HW242786   5.116   9.959   6.193
80297SOL     OW42787   3.941   4.622  14.544
80297SOL    HW142788   3.888   4.626  14.464
80297SOL    HW242789   3.892   4.566  14.603
80298SOL     OW42790   2.288  14.131   8.067
80298SOL    HW142791   2.334  14.056   8.104
80298SOL    HW242792   2.203  14.131   8.111
80299SOL     OW42793   1.939  13.219   5.271
80299SOL    HW142794   1.901  13.305   5.249
80299SOL    HW242795   2.023  13.240   5.313
80300SOL     OW42796   8.020   4.081   0.691
80300SOL    HW142797   8.073   4.140   0.638
80300SOL    HW242798   7.977   4.138   0.755
80301SOL     OW42799   1.777   6.342   5.682
80301SOL    HW142800   1.761   6.260   5.729
80301SOL    HW242801   1.782   6.317   5.590
80302SOL     OW42802   0.071   9.429  11.333
80302SOL    HW142803  14.866   9.476  11.313
80302SOL    HW242804   0.091   9.379  11.254
80303SOL     OW42805   7.779   2.255   6.561
80303SOL    HW142806   7.833   2.219   6.491
80303SOL    HW242807   7.832   2.325   6.600
80304SOL     OW42808   2.777  11.319  12.755
80304SOL    HW142809   2.763  11.394  12.812
80304SOL    HW242810   2.871  11.319  12.739
80305SOL     OW42811   3.462   1.255   1.846
80305SOL    HW142812   3.402   1.278   1.775
80305SOL    HW242813   3.491   1.166   1.825
80306SOL     OW42814  10.658   3.645   0.235
80306SOL    HW142815  10.576   3.630   0.187
80306SOL    HW242816  10.629   3.676   0.321
80307SOL     OW42817   9.206   3.401  11.276
80307SOL    HW142818   9.167   3.364  11.197
80307SOL    HW242819   9.162   3.356  11.348
80308SOL     OW42820   0.290  11.921   1.852
80308SOL    HW142821   0.361  11.958   1.799
80308SOL    HW242822   0.291  11.827   1.832
80309SOL     OW42823  10.861   8.005   2.418
80309SOL    HW142824  10.831   7.950   2.490
80309SOL    HW242825  10.861   7.946   2.342
80310SOL     OW42826  13.273   8.775   6.134
80310SOL    HW142827  13.237   8.715   6.069
80310SOL    HW242828  13.348   8.816   6.090
80311SOL     OW42829   5.654   7.321  11.922
80311SOL    HW142830   5.626   7.249  11.978
80311SOL    HW242831   5.608   7.307  11.840
80312SOL     OW42832   4.800   8.569   7.581
80312SOL    HW142833   4.713   8.553   7.545
80312SOL    HW242834   4.838   8.636   7.526
80313SOL     OW42835   8.063   7.942   8.045
80313SOL    HW142836   7.996   7.928   8.111
80313SOL    HW242837   8.080   7.855   8.008
80314SOL     OW42838   7.468   8.898   6.268
80314SOL    HW142839   7.383   8.932   6.240
80314SOL    HW242840   7.453   8.865   6.356
80315SOL     OW42841  12.818  11.767   6.461
80315SOL    HW142842  12.729  11.790   6.487
80315SOL    HW242843  12.858  11.732   6.541
80316SOL     OW42844   6.790   3.096  10.813
80316SOL    HW142845   6.702   3.061  10.798
80316SOL    HW242846   6.845   3.046  10.752
80317SOL     OW42847   9.402  10.250   2.939
80317SOL    HW142848   9.393  10.154   2.943
80317SOL    HW242849   9.366  10.280   3.022
80318SOL     OW42850   8.484   4.078   8.863
80318SOL    HW142851   8.400   4.065   8.821
80318SOL    HW242852   8.502   4.172   8.853
80319SOL     OW42853   1.148  11.684   7.181
80319SOL    HW142854   1.067  11.636   7.164
80319SOL    HW242855   1.124  11.776   7.172
80320SOL     OW42856  11.440   5.053   3.765
80320SOL    HW142857  11.428   5.059   3.670
80320SOL    HW242858  11.534   5.068   3.777
80321SOL     OW42859   5.591   0.396  12.942
80321SOL    HW142860   5.496   0.384  12.942
80321SOL    HW242861   5.612   0.417  12.851
80322SOL     OW42862   1.369   7.794   3.532
80322SOL    HW142863   1.309   7.751   3.471
80322SOL    HW242864   1.456   7.761   3.508
80323SOL     OW42865   7.789  13.783  11.028
80323SOL    HW142866   7.770  13.864  11.074
80323SOL    HW242867   7.874  13.754  11.063
80324SOL     OW42868  12.921  10.168   9.558
80324SOL    HW142869  12.974  10.227   9.612
80324SOL    HW242870  12.831  10.198   9.571
80325SOL     OW42871   7.934   2.486   3.525
80325SOL    HW142872   7.998   2.548   3.560
80325SOL    HW242873   7.938   2.499   3.430
80326SOL     OW42874  11.923   2.319  13.646
80326SOL    HW142875  11.834   2.285  13.660
80326SOL    HW242876  11.980   2.247  13.673
80327SOL     OW42877   2.515   5.422   1.494
80327SOL    HW142878   2.452   5.353   1.514
80327SOL    HW242879   2.461   5.499   1.475
80328SOL     OW42880   4.713   5.263   7.589
80328SOL    HW142881   4.779   5.195   7.602
80328SOL    HW242882   4.631   5.222   7.616
80329SOL     OW42883   3.734  11.805   7.133
80329SOL    HW142884   3.828  11.821   7.145
80329SOL    HW242885   3.729  11.750   7.055
80330SOL     OW42886   6.165   2.695   7.742
80330SOL    HW142887   6.210   2.774   7.710
80330SOL    HW242888   6.151   2.712   7.835
80331SOL     OW42889   6.044  13.016   0.445
80331SOL    HW142890   5.985  13.085   0.478
80331SOL    HW242891   6.099  12.994   0.519
80332SOL     OW42892  10.829   1.285  14.787
80332SOL    HW142893  10.766   1.241  14.730
80332SOL    HW242894  10.827   1.236  14.869
80333SOL     OW42895   3.005   2.949  10.391
80333SOL    HW142896   2.920   2.924  10.354
80333SOL    HW242897   3.041   3.012  10.328
80334SOL     OW42898   3.515   2.699  12.435
80334SOL    HW142899   3.528   2.604  12.440
80334SOL    HW242900   3.462   2.711  12.356
80335SOL     OW42901  13.020   6.349   6.288
80335SOL    HW142902  13.027   6.336   6.193
80335SOL    HW242903  13.111   6.349   6.318
80336SOL     OW42904   8.727   7.868   2.134
80336SOL    HW142905   8.645   7.820   2.152
80336SOL    HW242906   8.699   7.943   2.082
80337SOL     OW42907   3.225   8.343  12.130
80337SOL    HW142908   3.205   8.426  12.087
80337SOL    HW242909   3.321   8.340  12.133
80338SOL     OW42910   5.225   6.182  12.922
80338SOL    HW142911   5.147   6.191  12.868
80338SOL    HW242912   5.259   6.271  12.931
80339SOL     OW42913   2.128   1.151  14.684
80339SOL    HW142914   2.138   1.208  14.761
80339SOL    HW242915   2.217   1.139  14.652
80340SOL     OW42916   6.166  10.528   1.092
80340SOL    HW142917   6.107  10.475   1.146
80340SOL    HW242918   6.225  10.569   1.155
80341SOL     OW42919   4.770   4.617  12.952
80341SOL    HW142920   4.742   4.688  12.895
80341SOL    HW242921   4.866   4.620  12.949
80342SOL     OW42922   2.305   9.237   4.282
80342SOL    HW142923   2.251   9.169   4.241
80342SOL    HW242924   2.373   9.255   4.217
80343SOL     OW42925   9.755  14.317   4.347
80343SOL    HW142926   9.683  14.257   4.364
80343SOL    HW242927   9.807  14.314   4.428
80344SOL     OW42928  13.056   2.602   8.590
80344SOL    HW142929  13.007   2.658   8.650
80344SOL    HW242930  13.053   2.648   8.506
80345SOL     OW42931  10.066   4.905   3.591
80345SOL    HW142932  10.003   4.922   3.520
80345SOL    HW242933  10.137   4.857   3.549
80346SOL     OW42934   0.335  12.159   7.505
80346SOL    HW142935   0.359  12.135   7.595
80346SOL    HW242936   0.379  12.243   7.490
80347SOL     OW42937  12.982   1.744   0.930
80347SOL    HW142938  13.007   1.722   1.020
80347SOL    HW242939  13.059   1.788   0.894
80348SOL     OW42940   1.533   4.127   6.109
80348SOL    HW142941   1.573   4.108   6.193
80348SOL    HW242942   1.439   4.129   6.126
80349SOL     OW42943   0.150   0.870  11.953
80349SOL    HW142944   0.121   0.955  11.922
80349SOL    HW242945   0.222   0.889  12.013
80350SOL     OW42946   8.043  14.839  12.457
80350SOL    HW142947   8.129   0.007  12.459
80350SOL    HW242948   8.057  14.760  12.404
80351SOL     OW42949  12.733  11.840  10.998
80351SOL    HW142950  12.782  11.792  11.065
80351SOL    HW242951  12.736  11.931  11.027
80352SOL     OW42952   8.844   8.963   2.759
80352SOL    HW142953   8.773   8.976   2.697
80352SOL    HW242954   8.801   8.933   2.839
80353SOL     OW42955   0.356   1.880   2.110
80353SOL    HW142956   0.369   1.785   2.113
80353SOL    HW242957   0.261   1.892   2.105
80354SOL     OW42958  10.551   9.556   4.713
80354SOL    HW142959  10.569   9.637   4.762
80354SOL    HW242960  10.636   9.532   4.675
80355SOL     OW42961   1.694   6.372   8.603
80355SOL    HW142962   1.679   6.452   8.553
80355SOL    HW242963   1.658   6.302   8.549
80356SOL     OW42964   3.865  13.166   0.950
80356SOL    HW142965   3.885  13.083   0.907
80356SOL    HW242966   3.776  13.187   0.922
80357SOL     OW42967   6.048   7.629   5.339
80357SOL    HW142968   5.957   7.617   5.365
80357SOL    HW242969   6.045   7.640   5.244
80358SOL     OW42970   1.115  10.551  11.349
80358SOL    HW142971   1.069  10.467  11.352
80358SOL    HW242972   1.155  10.559  11.436
80359SOL     OW42973  13.699   0.322  14.351
80359SOL    HW142974  13.635   0.393  14.358
80359SOL    HW242975  13.692   0.275  14.434
80360SOL     OW42976  11.961  14.853   0.028
80360SOL    HW142977  11.984   0.058   0.074
80360SOL    HW242978  12.023  14.847  14.830
80361SOL     OW42979   2.252   1.682   5.072
80361SOL    HW142980   2.194   1.757   5.053
80361SOL    HW242981   2.249   1.673   5.167
80362SOL     OW42982  10.186  12.202  13.048
80362SOL    HW142983  10.107  12.241  13.085
80362SOL    HW242984  10.254  12.268  13.061
80363SOL     OW42985  13.774   2.216   0.794
80363SOL    HW142986  13.771   2.158   0.870
80363SOL    HW242987  13.863   2.250   0.793
80364SOL     OW42988   5.177  12.672  12.839
80364SOL    HW142989   5.169  12.644  12.930
80364SOL    HW242990   5.107  12.625  12.794
80365SOL     OW42991   9.037  11.082  10.536
80365SOL    HW142992   8.956  11.104  10.583
80365SOL    HW242993   9.079  11.016  10.591
80366SOL     OW42994  11.721  12.158  14.272
80366SOL    HW142995  11.635  12.188  14.243
80366SOL    HW242996  11.742  12.214  14.347
80367SOL     OW42997   5.508   0.716   7.243
80367SOL    HW142998   5.419   0.709   7.208
80367SOL    HW242999   5.521   0.634   7.291
80368SOL     OW43000   3.391   6.115   7.385
80368SOL    HW143001   3.435   6.200   7.382
80368SOL    HW243002   3.423   6.068   7.308
80369SOL     OW43003   7.073  14.231  10.412
80369SOL    HW143004   7.008  14.201  10.349
80369SOL    HW243005   7.021  14.263  10.487
80370SOL     OW43006   0.286   8.226  13.400
80370SOL    HW143007   0.204   8.195  13.361
80370SOL    HW243008   0.332   8.146  13.424
80371SOL     OW43009   0.071   8.081   6.767
80371SOL    HW143010   0.048   8.052   6.679
80371SOL    HW243011  14.867   8.126   6.798
80372SOL     OW43012   5.734  11.039  12.912
80372SOL    HW143013   5.818  10.994  12.919
80372SOL    HW243014   5.669  10.974  12.937
80373SOL     OW43015   9.135  10.315   8.734
80373SOL    HW143016   9.109  10.407   8.723
80373SOL    HW243017   9.129  10.278   8.647
80374SOL     OW43018   1.242   1.363  13.546
80374SOL    HW143019   1.286   1.333  13.626
80374SOL    HW243020   1.185   1.434  13.575
80375SOL     OW43021   5.312   9.145   0.361
80375SOL    HW143022   5.248   9.123   0.292
80375SOL    HW243023   5.342   9.233   0.338
80376SOL     OW43024   1.086   0.962   0.494
80376SOL    HW143025   1.143   0.914   0.555
80376SOL    HW243026   1.002   0.917   0.498
80377SOL     OW43027   1.537  13.146   2.962
80377SOL    HW143028   1.461  13.092   2.983
80377SOL    HW243029   1.516  13.184   2.876
80378SOL     OW43030  14.580  11.677  11.896
80378SOL    HW143031  14.508  11.669  11.959
80378SOL    HW243032  14.634  11.600  11.911
80379SOL     OW43033   5.452   4.190   8.583
80379SOL    HW143034   5.433   4.132   8.657
80379SOL    HW243035   5.543   4.169   8.560
80380SOL     OW43036  14.027  13.621   5.197
80380SOL    HW143037  13.959  13.583   5.252
80380SOL    HW243038  13.981  13.655   5.120
80381SOL     OW43039   4.605   9.808   7.487
80381SOL    HW143040   4.554   9.848   7.416
80381SOL    HW243041   4.550   9.738   7.520
80382SOL     OW43042  11.582  12.486   4.641
80382SOL    HW143043  11.664  12.461   4.598
80382SOL    HW243044  11.594  12.460   4.733
80383SOL     OW43045  10.660  10.508  14.631
80383SOL    HW143046  10.582  10.482  14.581
80383SOL    HW243047  10.689  10.428  14.675
80384SOL     OW43048   2.520   0.106   9.189
80384SOL    HW143049   2.509   0.078   9.280
80384SOL    HW243050   2.529   0.025   9.139
80385SOL     OW43051   9.082  12.103   9.471
80385SOL    HW143052   9.016  12.079   9.536
80385SOL    HW243053   9.118  12.019   9.442
80386SOL     OW43054   8.339   9.279  13.379
80386SOL    HW143055   8.382   9.212  13.326
80386SOL    HW243056   8.317   9.235  13.461
80387SOL     OW43057   8.106  12.451  13.603
80387SOL    HW143058   8.091  12.367  13.647
80387SOL    HW243059   8.121  12.428  13.512
80388SOL     OW43060   6.954   9.169  12.677
80388SOL    HW143061   6.920   9.258  12.670
80388SOL    HW243062   7.011   9.171  12.754
80389SOL     OW43063   5.220   6.742   9.529
80389SOL    HW143064   5.216   6.662   9.476
80389SOL    HW243065   5.261   6.715   9.611
80390SOL     OW43066  12.476   3.009   6.223
80390SOL    HW143067  12.535   2.953   6.173
80390SOL    HW243068  12.390   2.993   6.187
80391SOL     OW43069  10.876   2.888   4.610
80391SOL    HW143070  10.819   2.868   4.536
80391SOL    HW243071  10.817   2.922   4.677
80392SOL     OW43072   3.256   7.835   8.161
80392SOL    HW143073   3.310   7.789   8.226
80392SOL    HW243074   3.224   7.766   8.103
80393SOL     OW43075   2.408   3.720   0.450
80393SOL    HW143076   2.394   3.652   0.516
80393SOL    HW243077   2.380   3.679   0.368
80394SOL     OW43078  11.135   0.231   2.219
80394SOL    HW143079  11.188   0.157   2.247
80394SOL    HW243080  11.045   0.207   2.243
80395SOL     OW43081  13.861   3.083   6.420
80395SOL    HW143082  13.929   3.033   6.376
80395SOL    HW243083  13.845   3.035   6.501
80396SOL     OW43084  11.012   8.082   8.514
80396SOL    HW143085  10.982   8.155   8.568
80396SOL    HW243086  11.070   8.032   8.572
80397SOL     OW43087  12.243  11.727  13.735
80397SOL    HW143088  12.249  11.821  13.715
80397SOL    HW243089  12.280  11.684  13.658
80398SOL     OW43090  13.373   0.852   6.261
80398SOL    HW143091  13.379   0.786   6.330
80398SOL    HW243092  13.324   0.809   6.191
80399SOL     OW43093  13.084   3.963   6.555
80399SOL    HW143094  13.028   3.904   6.606
80399SOL    HW243095  13.134   3.905   6.497
80400SOL     OW43096   1.601   8.666  14.295
80400SOL    HW143097   1.634   8.740  14.345
80400SOL    HW243098   1.678   8.614  14.273
80401SOL     OW43099   7.132  10.148   1.305
80401SOL    HW143100   7.054  10.164   1.252
80401SOL    HW243101   7.167  10.065   1.273
80402SOL     OW43102   2.899   7.048   6.738
80402SOL    HW143103   2.987   7.023   6.709
80402SOL    HW243104   2.905   7.142   6.756
80403SOL     OW43105   8.155  11.557  14.675
80403SOL    HW143106   8.080  11.551  14.734
80403SOL    HW243107   8.132  11.501  14.601
80404SOL     OW43108   3.074  11.194   2.070
80404SOL    HW143109   3.113  11.161   1.989
80404SOL    HW243110   3.136  11.259   2.102
80405SOL     OW43111   5.977  13.249   5.882
80405SOL    HW143112   5.998  13.229   5.791
80405SOL    HW243113   5.940  13.337   5.879
80406SOL     OW43114   1.319   7.932  14.196
80406SOL    HW143115   1.387   7.911  14.131
80406SOL    HW243116   1.359   7.999  14.252
80407SOL     OW43117   9.141   7.941   0.238
80407SOL    HW143118   9.191   7.936   0.319
80407SOL    HW243119   9.127   7.850   0.212
80408SOL     OW43120   1.524   0.923   1.003
80408SOL    HW143121   1.506   0.998   0.947
80408SOL    HW243122   1.617   0.907   0.992
80409SOL     OW43123   5.162  14.319   5.812
80409SOL    HW143124   5.120  14.402   5.835
80409SOL    HW243125   5.102  14.278   5.750
80410SOL     OW43126  12.834   5.785  13.149
80410SOL    HW143127  12.816   5.840  13.225
80410SOL    HW243128  12.853   5.699  13.186
80411SOL     OW43129   2.703   0.579  10.612
80411SOL    HW143130   2.787   0.532  10.618
80411SOL    HW243131   2.638   0.514  10.637
80412SOL     OW43132   1.201   3.757   8.040
80412SOL    HW143133   1.135   3.711   8.091
80412SOL    HW243134   1.228   3.694   7.973
80413SOL     OW43135   1.897   9.553   5.673
80413SOL    HW143136   1.980   9.530   5.633
80413SOL    HW243137   1.909   9.643   5.703
80414SOL     OW43138  14.413   9.194   6.991
80414SOL    HW143139  14.336   9.141   7.013
80414SOL    HW243140  14.437   9.165   6.903
80415SOL     OW43141   4.596   0.720   6.726
80415SOL    HW143142   4.607   0.653   6.659
80415SOL    HW243143   4.659   0.697   6.794
80416SOL     OW43144   9.965   5.979   4.631
80416SOL    HW143145  10.059   5.986   4.646
80416SOL    HW243146   9.935   5.919   4.700
80417SOL     OW43147  12.808   8.058  14.233
80417SOL    HW143148  12.747   7.991  14.264
80417SOL    HW243149  12.781   8.074  14.142
80418SOL     OW43150  11.856   9.332  13.752
80418SOL    HW143151  11.788   9.292  13.698
80418SOL    HW243152  11.840   9.426  13.744
80419SOL     OW43153   0.789  13.913   5.921
80419SOL    HW143154   0.824  13.886   6.006
80419SOL    HW243155   0.807  13.840   5.863
80420SOL     OW43156   7.673  11.626   1.132
80420SOL    HW143157   7.586  11.586   1.133
80420SOL    HW243158   7.732  11.555   1.110
80421SOL     OW43159   1.955   4.710   6.256
80421SOL    HW143160   1.968   4.744   6.168
80421SOL    HW243161   2.021   4.642   6.266
80422SOL     OW43162   1.274   4.711   2.511
80422SOL    HW143163   1.221   4.636   2.485
80422SOL    HW243164   1.233   4.786   2.467
80423SOL     OW43165   1.887  12.292   3.363
80423SOL    HW143166   1.948  12.322   3.297
80423SOL    HW243167   1.933  12.222   3.409
80424SOL     OW43168   2.053   9.210   1.980
80424SOL    HW143169   2.007   9.290   2.006
80424SOL    HW243170   1.990   9.163   1.926
80425SOL     OW43171  12.688   6.347  14.524
80425SOL    HW143172  12.702   6.323  14.432
80425SOL    HW243173  12.626   6.282  14.557
80426SOL     OW43174   8.716   0.344   4.693
80426SOL    HW143175   8.693   0.429   4.656
80426SOL    HW243176   8.642   0.320   4.748
80427SOL     OW43177   9.883   1.697  13.336
80427SOL    HW143178   9.850   1.608  13.324
80427SOL    HW243179   9.814   1.743  13.383
80428SOL     OW43180   5.101  11.171   3.053
80428SOL    HW143181   5.173  11.142   2.996
80428SOL    HW243182   5.050  11.230   2.999
80429SOL     OW43183   8.710  14.042  12.189
80429SOL    HW143184   8.781  14.089  12.233
80429SOL    HW243185   8.704  13.959  12.237
80430SOL     OW43186   2.067  14.608   3.640
80430SOL    HW143187   1.994  14.546   3.651
80430SOL    HW243188   2.129  14.585   3.709
80431SOL     OW43189  11.690   6.429   3.284
80431SOL    HW143190  11.672   6.335   3.279
80431SOL    HW243191  11.658   6.464   3.201
80432SOL     OW43192   0.339  11.313   1.849
80432SOL    HW143193   0.267  11.291   1.908
80432SOL    HW243194   0.401  11.241   1.860
80433SOL     OW43195   4.286   1.650   7.327
80433SOL    HW143196   4.193   1.673   7.328
80433SOL    HW243197   4.290   1.565   7.371
80434SOL     OW43198   9.903   7.330  12.061
80434SOL    HW143199   9.836   7.398  12.059
80434SOL    HW243200   9.947   7.336  11.977
80435SOL     OW43201  14.705   4.225  14.697
80435SOL    HW143202  14.729   4.155  14.636
80435SOL    HW243203  14.610   4.232  14.690
80436SOL     OW43204   2.837  11.433   0.254
80436SOL    HW143205   2.900  11.473   0.194
80436SOL    HW243206   2.753  11.437   0.207
80437SOL     OW43207  14.601  13.516   2.197
80437SOL    HW143208  14.539  13.535   2.268
80437SOL    HW243209  14.596  13.593   2.141
80438SOL     OW43210   5.073   6.491   1.837
80438SOL    HW143211   4.988   6.476   1.879
80438SOL    HW243212   5.120   6.409   1.849
80439SOL     OW43213   0.497   9.475   2.108
80439SOL    HW143214   0.476   9.502   2.019
80439SOL    HW243215   0.512   9.557   2.155
80440SOL     OW43216   5.224   1.140   0.776
80440SOL    HW143217   5.219   1.060   0.724
80440SOL    HW243218   5.172   1.204   0.727
80441SOL     OW43219  13.888   6.932   0.481
80441SOL    HW143220  13.956   6.968   0.537
80441SOL    HW243221  13.850   7.008   0.437
80442SOL     OW43222  11.555   9.175   4.444
80442SOL    HW143223  11.635   9.158   4.394
80442SOL    HW243224  11.540   9.095   4.494
80443SOL     OW43225   6.655   1.277   8.262
80443SOL    HW143226   6.634   1.367   8.288
80443SOL    HW243227   6.648   1.278   8.167
80444SOL     OW43228   9.917  13.509  13.167
80444SOL    HW143229   9.959  13.478  13.087
80444SOL    HW243230   9.957  13.458  13.237
80445SOL     OW43231  10.885  13.040  11.423
80445SOL    HW143232  10.799  13.000  11.411
80445SOL    HW243233  10.942  12.968  11.448
80446SOL     OW43234   4.321   5.504  12.603
80446SOL    HW143235   4.407   5.531  12.570
80446SOL    HW243236   4.291   5.578  12.656
80447SOL     OW43237   8.727  13.608  10.727
80447SOL    HW143238   8.633  13.597  10.717
80447SOL    HW243239   8.741  13.614  10.822
80448SOL     OW43240   1.783   1.484  11.682
80448SOL    HW143241   1.759   1.551  11.745
80448SOL    HW243242   1.802   1.406  11.735
80449SOL     OW43243  14.479   6.532   9.560
80449SOL    HW143244  14.396   6.485   9.568
80449SOL    HW243245  14.546   6.464   9.567
80450SOL     OW43246   0.209  11.501   7.744
80450SOL    HW143247   0.204  11.446   7.666
80450SOL    HW243248   0.171  11.584   7.717
80451SOL     OW43249   4.248  13.776  10.738
80451SOL    HW143250   4.179  13.714  10.760
80451SOL    HW243251   4.235  13.849  10.799
80452SOL     OW43252   5.134  11.284  12.075
80452SOL    HW143253   5.145  11.298  11.981
80452SOL    HW243254   5.223  11.278  12.110
80453SOL     OW43255   5.780   6.966  10.113
80453SOL    HW143256   5.852   6.925  10.066
80453SOL    HW243257   5.815   7.050  10.143
80454SOL     OW43258  13.394   6.845   4.113
80454SOL    HW143259  13.357   6.867   4.027
80454SOL    HW243260  13.343   6.771   4.143
80455SOL     OW43261   3.439   9.792   5.808
80455SOL    HW143262   3.527   9.823   5.831
80455SOL    HW243263   3.431   9.707   5.850
80456SOL     OW43264   9.560   5.691  12.872
80456SOL    HW143265   9.622   5.646  12.929
80456SOL    HW243266   9.552   5.634  12.796
80457SOL     OW43267   1.195   6.702   7.871
80457SOL    HW143268   1.185   6.606   7.873
80457SOL    HW243269   1.146   6.732   7.947
80458SOL     OW43270  12.979   2.954  12.903
80458SOL    HW143271  13.040   2.889  12.868
80458SOL    HW243272  13.012   3.038  12.871
80459SOL     OW43273   1.975   4.419   6.991
80459SOL    HW143274   1.901   4.358   6.996
80459SOL    HW243275   2.019   4.410   7.076
80460SOL     OW43276  13.807   7.428  13.130
80460SOL    HW143277  13.820   7.500  13.068
80460SOL    HW243278  13.775   7.355  13.076
80461SOL     OW43279   2.096   6.387   5.269
80461SOL    HW143280   2.150   6.311   5.248
80461SOL    HW243281   2.120   6.453   5.205
80462SOL     OW43282  11.681  13.493   2.832
80462SOL    HW143283  11.759  13.528   2.789
80462SOL    HW243284  11.630  13.571   2.856
80463SOL     OW43285  10.670   5.052  12.194
80463SOL    HW143286  10.722   5.008  12.126
80463SOL    HW243287  10.634   4.981  12.247
80464SOL     OW43288  13.069  10.196   2.872
80464SOL    HW143289  13.135  10.160   2.813
80464SOL    HW243290  13.114  10.202   2.957
80465SOL     OW43291   7.507   7.411  12.226
80465SOL    HW143292   7.484   7.324  12.259
80465SOL    HW243293   7.561   7.449  12.295
80466SOL     OW43294  14.080  10.186   1.391
80466SOL    HW143295  14.039  10.104   1.418
80466SOL    HW243296  14.107  10.228   1.473
80467SOL     OW43297  14.811   1.985   7.627
80467SOL    HW143298   0.002   2.031   7.576
80467SOL    HW243299  14.811   2.029   7.712
80468SOL     OW43300   3.040   9.812  12.214
80468SOL    HW143301   3.106   9.742  12.207
80468SOL    HW243302   2.957   9.769  12.191
80469SOL     OW43303  13.303   2.054   2.370
80469SOL    HW143304  13.335   2.066   2.280
80469SOL    HW243305  13.321   1.962   2.389
80470SOL     OW43306   9.943  12.744  12.482
80470SOL    HW143307   9.851  12.735  12.508
80470SOL    HW243308   9.968  12.830  12.513
80471SOL     OW43309   9.331   1.518  14.413
80471SOL    HW143310   9.386   1.547  14.340
80471SOL    HW243311   9.385   1.455  14.460
80472SOL     OW43312  10.388  13.589   7.970
80472SOL    HW143313  10.479  13.611   7.989
80472SOL    HW243314  10.367  13.640   7.892
80473SOL     OW43315  13.298   3.002   9.468
80473SOL    HW143316  13.249   2.924   9.441
80473SOL    HW243317  13.340   2.976   9.550
80474SOL     OW43318   8.894   6.033   3.719
80474SOL    HW143319   8.968   6.015   3.777
80474SOL    HW243320   8.818   6.031   3.776
80475SOL     OW43321   5.525  11.430  14.559
80475SOL    HW143322   5.457  11.482  14.515
80475SOL    HW243323   5.489  11.413  14.646
80476SOL     OW43324  11.047   4.928   2.566
80476SOL    HW143325  11.027   4.872   2.641
80476SOL    HW243326  11.112   4.990   2.600
80477SOL     OW43327  14.635   6.904   1.630
80477SOL    HW143328  14.616   6.920   1.538
80477SOL    HW243329  14.592   6.820   1.649
80478SOL     OW43330  12.985  10.861   1.332
80478SOL    HW143331  13.014  10.843   1.421
80478SOL    HW243332  13.039  10.936   1.304
80479SOL     OW43333   5.380   8.776   9.544
80479SOL    HW143334   5.415   8.687   9.547
80479SOL    HW243335   5.445   8.829   9.589
80480SOL     OW43336  10.373  11.798  13.151
80480SOL    HW143337  10.356  11.715  13.106
80480SOL    HW243338  10.328  11.864  13.098
80481SOL     OW43339   4.059  11.708   8.487
80481SOL    HW143340   4.060  11.745   8.575
80481SOL    HW243341   4.085  11.780   8.430
80482SOL     OW43342   4.567   1.176   0.998
80482SOL    HW143343   4.578   1.260   1.042
80482SOL    HW243344   4.646   1.165   0.946
80483SOL     OW43345   3.808  10.954   6.552
80483SOL    HW143346   3.759  10.881   6.590
80483SOL    HW243347   3.846  10.999   6.627
80484SOL     OW43348   7.795   8.552  13.405
80484SOL    HW143349   7.857   8.510  13.466
80484SOL    HW243350   7.740   8.606  13.461
80485SOL     OW43351  12.961  12.632   8.156
80485SOL    HW143352  12.983  12.650   8.065
80485SOL    HW243353  12.928  12.716   8.190
80486SOL     OW43354  13.675   4.404   8.075
80486SOL    HW143355  13.669   4.431   7.983
80486SOL    HW243356  13.584   4.398   8.103
80487SOL     OW43357   3.546   4.852   9.091
80487SOL    HW143358   3.628   4.874   9.136
80487SOL    HW243359   3.570   4.842   8.999
80488SOL     OW43360   2.239   5.209  14.649
80488SOL    HW143361   2.178   5.277  14.676
80488SOL    HW243362   2.202   5.128  14.684
80489SOL     OW43363   3.757  14.394   6.086
80489SOL    HW143364   3.847  14.384   6.056
80489SOL    HW243365   3.754  14.482   6.124
80490SOL     OW43366   1.308   3.123  11.904
80490SOL    HW143367   1.326   3.072  11.825
80490SOL    HW243368   1.369   3.089  11.970
80491SOL     OW43369   5.894  13.993  10.655
80491SOL    HW143370   5.938  13.967  10.575
80491SOL    HW243371   5.850  13.914  10.685
80492SOL     OW43372  13.414  11.168   7.120
80492SOL    HW143373  13.423  11.233   7.049
80492SOL    HW243374  13.346  11.108   7.089
80493SOL     OW43375  10.087   6.805   4.600
80493SOL    HW143376  10.121   6.795   4.510
80493SOL    HW243377  10.096   6.718   4.639
80494SOL     OW43378   2.605   9.338   4.976
80494SOL    HW143379   2.577   9.247   4.988
80494SOL    HW243380   2.695   9.340   5.008
80495SOL     OW43381   1.568  11.880   3.445
80495SOL    HW143382   1.532  11.896   3.357
80495SOL    HW243383   1.645  11.825   3.430
80496SOL     OW43384   8.159   3.826  14.396
80496SOL    HW143385   8.188   3.734  14.395
80496SOL    HW243386   8.095   3.832  14.325
80497SOL     OW43387   8.237   3.450  12.860
80497SOL    HW143388   8.289   3.461  12.940
80497SOL    HW243389   8.298   3.410  12.798
80498SOL     OW43390   7.387   4.159   7.380
80498SOL    HW143391   7.427   4.155   7.467
80498SOL    HW243392   7.311   4.216   7.392
80499SOL     OW43393  12.633  12.950   5.660
80499SOL    HW143394  12.565  12.926   5.597
80499SOL    HW243395  12.598  13.027   5.706
80500SOL     OW43396   2.973  13.043   9.700
80500SOL    HW143397   3.041  13.025   9.764
80500SOL    HW243398   3.011  13.110   9.643
80501SOL     OW43399  12.682   0.440   6.793
80501SOL    HW143400  12.710   0.528   6.818
80501SOL    HW243401  12.763   0.394   6.770
80502SOL     OW43402   2.745   7.586   0.721
80502SOL    HW143403   2.737   7.530   0.644
80502SOL    HW243404   2.750   7.675   0.685
80503SOL     OW43405   5.874  12.818   2.802
80503SOL    HW143406   5.818  12.895   2.807
80503SOL    HW243407   5.861  12.784   2.713
80504SOL     OW43408   0.075  14.845   9.815
80504SOL    HW143409   0.059   0.029   9.741
80504SOL    HW243410   0.146  14.788   9.785
80505SOL     OW43411  13.108  13.519   0.433
80505SOL    HW143412  13.170  13.527   0.506
80505SOL    HW243413  13.109  13.426   0.410
80506SOL     OW43414   6.917   8.960  12.963
80506SOL    HW143415   6.946   9.042  13.003
80506SOL    HW243416   6.834   8.941  13.007
80507SOL     OW43417  10.702   1.539   0.841
80507SOL    HW143418  10.753   1.598   0.786
80507SOL    HW243419  10.768   1.495   0.896
80508SOL     OW43420   6.126   3.858  10.046
80508SOL    HW143421   6.086   3.778  10.082
80508SOL    HW243422   6.206   3.870  10.098
80509SOL     OW43423   3.593   7.664   8.008
80509SOL    HW143424   3.647   7.724   7.957
80509SOL    HW243425   3.604   7.693   8.099
80510SOL     OW43426  14.563   6.369   2.331
80510SOL    HW143427  14.612   6.287   2.337
80510SOL    HW243428  14.517   6.376   2.415
80511SOL     OW43429   3.568   5.563   6.094
80511SOL    HW143430   3.512   5.585   6.020
80511SOL    HW243431   3.554   5.469   6.108
80512SOL     OW43432  14.178  14.049   0.749
80512SOL    HW143433  14.121  14.116   0.712
80512SOL    HW243434  14.184  14.071   0.842
80513SOL     OW43435   3.867  13.774   5.717
80513SOL    HW143436   3.924  13.843   5.751
80513SOL    HW243437   3.790  13.820   5.683
80514SOL     OW43438  13.416   9.086  13.071
80514SOL    HW143439  13.481   9.043  13.127
80514SOL    HW243440  13.451   9.175  13.058
80515SOL     OW43441   9.670   9.943   8.795
80515SOL    HW143442   9.642   9.852   8.803
80515SOL    HW243443   9.593   9.994   8.821
80516SOL     OW43444  12.611   1.825   1.773
80516SOL    HW143445  12.558   1.890   1.728
80516SOL    HW243446  12.613   1.750   1.714
80517SOL     OW43447   1.418  14.205   1.092
80517SOL    HW143448   1.510  14.199   1.118
80517SOL    HW243449   1.419  14.263   1.015
80518SOL     OW43450  13.976   1.786   4.047
80518SOL    HW143451  13.980   1.753   3.957
80518SOL    HW243452  13.885   1.812   4.059
80519SOL     OW43453   3.535  11.703  12.473
80519SOL    HW143454   3.574  11.644  12.409
80519SOL    HW243455   3.606  11.724  12.534
80520SOL     OW43456   0.387   8.631   1.023
80520SOL    HW143457   0.305   8.680   1.026
80520SOL    HW243458   0.413   8.623   1.115
80521SOL     OW43459   7.645   2.970  14.546
80521SOL    HW143460   7.661   2.943  14.456
80521SOL    HW243461   7.626   2.888  14.592
80522SOL     OW43462   9.097   8.883  14.346
80522SOL    HW143463   9.180   8.847  14.316
80522SOL    HW243464   9.121   8.955  14.403
80523SOL     OW43465   9.436   4.412  14.519
80523SOL    HW143466   9.402   4.486  14.469
80523SOL    HW243467   9.433   4.441  14.610
80524SOL     OW43468   3.959   8.025  13.241
80524SOL    HW143469   3.881   8.059  13.196
80524SOL    HW243470   3.953   8.063  13.329
80525SOL     OW43471   5.842  12.044  14.203
80525SOL    HW143472   5.796  12.117  14.245
80525SOL    HW243473   5.891  12.003  14.274
80526SOL     OW43474   0.550   7.108   4.826
80526SOL    HW143475   0.464   7.142   4.802
80526SOL    HW243476   0.535   7.062   4.908
80527SOL     OW43477   9.522   0.315  10.205
80527SOL    HW143478   9.543   0.407  10.187
80527SOL    HW243479   9.433   0.303  10.171
80528SOL     OW43480  11.187   4.368   7.666
80528SOL    HW143481  11.253   4.301   7.679
80528SOL    HW243482  11.222   4.424   7.597
80529SOL     OW43483   4.788  12.554   4.614
80529SOL    HW143484   4.786  12.523   4.523
80529SOL    HW243485   4.866  12.514   4.651
80530SOL     OW43486   4.613   5.119   5.554
80530SOL    HW143487   4.578   5.134   5.642
80530SOL    HW243488   4.549   5.061   5.512
80531SOL     OW43489   2.764   1.680  13.182
80531SOL    HW143490   2.814   1.601  13.203
80531SOL    HW243491   2.812   1.719  13.108
80532SOL     OW43492   4.439  12.069   4.893
80532SOL    HW143493   4.349  12.046   4.870
80532SOL    HW243494   4.493  12.013   4.837
80533SOL     OW43495   5.127   8.793  14.626
80533SOL    HW143496   5.040   8.824  14.600
80533SOL    HW243497   5.181   8.872  14.627
80534SOL     OW43498   3.783  12.988   8.914
80534SOL    HW143499   3.872  12.980   8.949
80534SOL    HW243500   3.750  13.069   8.952
80535SOL     OW43501   6.311   3.482  13.777
80535SOL    HW143502   6.338   3.494  13.686
80535SOL    HW243503   6.233   3.537  13.787
80536SOL     OW43504   1.645   4.416  13.134
80536SOL    HW143505   1.582   4.435  13.204
80536SOL    HW243506   1.694   4.340  13.165
80537SOL     OW43507   8.700   0.287   6.339
80537SOL    HW143508   8.620   0.238   6.317
80537SOL    HW243509   8.683   0.376   6.308
80538SOL     OW43510   4.030   9.175   1.701
80538SOL    HW143511   3.958   9.135   1.751
80538SOL    HW243512   4.043   9.260   1.743
80539SOL     OW43513   0.437   2.972  13.543
80539SOL    HW143514   0.451   2.987  13.637
80539SOL    HW243515   0.525   2.955  13.508
80540SOL     OW43516  12.402  11.308   4.509
80540SOL    HW143517  12.463  11.315   4.436
80540SOL    HW243518  12.425  11.226   4.553
80541SOL     OW43519  12.124   5.025   5.559
80541SOL    HW143520  12.066   4.961   5.599
80541SOL    HW243521  12.066   5.094   5.528
80542SOL     OW43522  11.963   0.109   3.908
80542SOL    HW143523  11.959   0.119   4.003
80542SOL    HW243524  11.988   0.018   3.895
80543SOL     OW43525   3.286  12.893   0.957
80543SOL    HW143526   3.216  12.833   0.981
80543SOL    HW243527   3.316  12.861   0.871
80544SOL     OW43528   1.337   8.458   1.210
80544SOL    HW143529   1.378   8.513   1.143
80544SOL    HW243530   1.252   8.499   1.227
80545SOL     OW43531   9.751   8.192  12.749
80545SOL    HW143532   9.733   8.282  12.722
80545SOL    HW243533   9.844   8.192  12.773
80546SOL     OW43534  11.521  10.205   2.122
80546SOL    HW143535  11.484  10.216   2.035
80546SOL    HW243536  11.553  10.115   2.124
80547SOL     OW43537   6.824  10.850  12.248
80547SOL    HW143538   6.764  10.918  12.278
80547SOL    HW243539   6.907  10.870  12.291
80548SOL     OW43540   5.917  11.765  12.222
80548SOL    HW143541   5.893  11.687  12.171
80548SOL    HW243542   5.899  11.838  12.163
80549SOL     OW43543  12.816   0.982   7.994
80549SOL    HW143544  12.759   1.018   7.926
80549SOL    HW243545  12.832   1.055   8.053
80550SOL     OW43546  13.083   5.523   5.089
80550SOL    HW143547  13.041   5.454   5.142
80550SOL    HW243548  13.083   5.487   5.000
80551SOL     OW43549   8.910   2.941   8.550
80551SOL    HW143550   8.962   2.976   8.622
80551SOL    HW243551   8.944   2.852   8.537
80552SOL     OW43552  13.080   1.708   1.197
80552SOL    HW143553  13.009   1.745   1.250
80552SOL    HW243554  13.109   1.631   1.246
80553SOL     OW43555   2.616   7.298   7.846
80553SOL    HW143556   2.572   7.317   7.764
80553SOL    HW243557   2.689   7.240   7.822
80554SOL     OW43558   1.471   6.797   2.932
80554SOL    HW143559   1.391   6.757   2.897
80554SOL    HW243560   1.440   6.864   2.993
80555SOL     OW43561   7.524  14.029   2.162
80555SOL    HW143562   7.449  14.002   2.111
80555SOL    HW243563   7.585  13.955   2.157
80556SOL     OW43564  11.155   9.147  10.957
80556SOL    HW143565  11.190   9.091  10.888
80556SOL    HW243566  11.064   9.163  10.931
80557SOL     OW43567  10.953  14.004  13.522
80557SOL    HW143568  10.899  14.076  13.490
80557SOL    HW243569  11.018  13.990  13.453
80558SOL     OW43570   9.675  12.678   5.999
80558SOL    HW143571   9.712  12.617   5.935
80558SOL    HW243572   9.742  12.683   6.068
80559SOL     OW43573  11.374  11.345  12.449
80559SOL    HW143574  11.411  11.409  12.388
80559SOL    HW243575  11.417  11.263  12.427
80560SOL     OW43576   1.278  12.056   0.347
80560SOL    HW143577   1.295  12.135   0.398
80560SOL    HW243578   1.314  12.076   0.260
80561SOL     OW43579   0.302  11.603  10.596
80561SOL    HW143580   0.228  11.543  10.608
80561SOL    HW243581   0.330  11.624  10.685
80562SOL     OW43582   4.060   1.379   1.317
80562SOL    HW143583   4.155   1.389   1.307
80562SOL    HW243584   4.049   1.287   1.343
80563SOL     OW43585   7.798   8.007   6.667
80563SOL    HW143586   7.812   7.999   6.573
80563SOL    HW243587   7.881   7.982   6.706
80564SOL     OW43588  10.406  14.514  11.432
80564SOL    HW143589  10.326  14.511  11.485
80564SOL    HW243590  10.440  14.602  11.446
80565SOL     OW43591   2.883  10.629   6.195
80565SOL    HW143592   2.867  10.580   6.276
80565SOL    HW243593   2.924  10.710   6.223
80566SOL     OW43594   0.957  12.557   4.832
80566SOL    HW143595   0.880  12.547   4.888
80566SOL    HW243596   1.028  12.518   4.882
80567SOL     OW43597   0.427   7.682  10.567
80567SOL    HW143598   0.449   7.755  10.624
80567SOL    HW243599   0.409   7.609  10.627
80568SOL     OW43600   7.657   5.986  12.751
80568SOL    HW143601   7.652   5.959  12.843
80568SOL    HW243602   7.737   5.946  12.718
80569SOL     OW43603   5.709   4.792   8.700
80569SOL    HW143604   5.710   4.868   8.758
80569SOL    HW243605   5.793   4.748   8.716
80570SOL     OW43606  11.078   0.088  11.447
80570SOL    HW143607  11.110   0.072  11.358
80570SOL    HW243608  11.056   0.001  11.481
80571SOL     OW43609   8.550   2.811   6.587
80571SOL    HW143610   8.513   2.722   6.588
80571SOL    HW243611   8.504   2.857   6.657
80572SOL     OW43612  11.461   1.710  12.587
80572SOL    HW143613  11.411   1.768  12.530
80572SOL    HW243614  11.464   1.627  12.540
80573SOL     OW43615   2.089  13.534   0.799
80573SOL    HW143616   2.011  13.565   0.844
80573SOL    HW243617   2.160  13.588   0.833
80574SOL     OW43618   7.105   8.699   0.861
80574SOL    HW143619   7.011   8.720   0.861
80574SOL    HW243620   7.143   8.760   0.924
80575SOL     OW43621   6.765   7.480   0.260
80575SOL    HW143622   6.833   7.463   0.194
80575SOL    HW243623   6.684   7.482   0.210
80576SOL     OW43624  11.882   4.167   9.145
80576SOL    HW143625  11.942   4.109   9.191
80576SOL    HW243626  11.908   4.161   9.053
80577SOL     OW43627   9.898  10.484  13.239
80577SOL    HW143628   9.941  10.536  13.307
80577SOL    HW243629   9.969  10.459  13.179
80578SOL     OW43630   2.520  10.178   7.521
80578SOL    HW143631   2.474  10.219   7.594
80578SOL    HW243632   2.460  10.188   7.447
80579SOL     OW43633   6.670   7.653   8.839
80579SOL    HW143634   6.590   7.692   8.804
80579SOL    HW243635   6.663   7.560   8.818
80580SOL     OW43636   1.156   0.810  14.032
80580SOL    HW143637   1.134   0.816  14.125
80580SOL    HW243638   1.168   0.900  14.004
80581SOL     OW43639   8.108   9.356   4.554
80581SOL    HW143640   8.016   9.381   4.562
80581SOL    HW243641   8.156   9.437   4.569
80582SOL     OW43642   2.633  13.778   4.071
80582SOL    HW143643   2.603  13.723   4.143
80582SOL    HW243644   2.661  13.860   4.112
80583SOL     OW43645  12.811   3.576   2.320
80583SOL    HW143646  12.899   3.561   2.287
80583SOL    HW243647  12.793   3.501   2.376
80584SOL     OW43648   1.083   8.993   3.257
80584SOL    HW143649   1.018   8.974   3.325
80584SOL    HW243650   1.094   9.088   3.260
80585SOL     OW43651   2.850  14.445   6.533
80585SOL    HW143652   2.782  14.448   6.601
80585SOL    HW243653   2.903  14.368   6.555
80586SOL     OW43654   1.573   6.942   7.313
80586SOL    HW143655   1.620   6.877   7.364
80586SOL    HW243656   1.533   6.999   7.378
80587SOL     OW43657   9.822   1.711   7.229
80587SOL    HW143658   9.768   1.702   7.150
80587SOL    HW243659   9.905   1.748   7.197
80588SOL     OW43660   8.342   2.328  13.766
80588SOL    HW143661   8.371   2.390  13.833
80588SOL    HW243662   8.283   2.378  13.710
80589SOL     OW43663   0.015   5.642  14.856
80589SOL    HW143664   0.032   5.650  14.762
80589SOL    HW243665  14.836   5.718   0.002
80590SOL     OW43666  12.780   1.542  14.274
80590SOL    HW143667  12.846   1.473  14.277
80590SOL    HW243668  12.786   1.577  14.185
80591SOL     OW43669  11.109  11.433  12.172
80591SOL    HW143670  11.056  11.458  12.248
80591SOL    HW243671  11.188  11.487  12.179
80592SOL     OW43672  12.599  12.757   5.350
80592SOL    HW143673  12.525  12.801   5.392
80592SOL    HW243674  12.611  12.676   5.401
80593SOL     OW43675   7.297  13.299   0.966
80593SOL    HW143676   7.219  13.264   0.923
80593SOL    HW243677   7.344  13.222   0.996
80594SOL     OW43678  13.907   9.376   6.239
80594SOL    HW143679  13.816   9.362   6.263
80594SOL    HW243680  13.955   9.307   6.283
80595SOL     OW43681   7.509  14.742   3.530
80595SOL    HW143682   7.478  14.796   3.457
80595SOL    HW243683   7.602  14.764   3.539
80596SOL     OW43684   4.755   1.568   3.760
80596SOL    HW143685   4.690   1.501   3.781
80596SOL    HW243686   4.751   1.630   3.833
80597SOL     OW43687   9.332  11.180   2.200
80597SOL    HW143688   9.388  11.192   2.276
80597SOL    HW243689   9.317  11.085   2.196
80598SOL     OW43690   5.566  13.897  12.994
80598SOL    HW143691   5.611  13.947  13.061
80598SOL    HW243692   5.605  13.927  12.912
80599SOL     OW43693  14.120  11.360   4.870
80599SOL    HW143694  14.162  11.379   4.786
80599SOL    HW243695  14.104  11.446   4.909
80600SOL     OW43696  11.011   4.806  12.950
80600SOL    HW143697  10.981   4.877  12.893
80600SOL    HW243698  11.036   4.849  13.031
80601SOL     OW43699   3.210   6.446   4.290
80601SOL    HW143700   3.237   6.355   4.303
80601SOL    HW243701   3.292   6.492   4.272
80602SOL     OW43702   2.046   7.318   1.874
80602SOL    HW143703   2.126   7.291   1.920
80602SOL    HW243704   1.985   7.245   1.887
80603SOL     OW43705   7.171   5.292  13.039
80603SOL    HW143706   7.088   5.338  13.027
80603SOL    HW243707   7.238   5.355  13.014
80604SOL     OW43708   1.089   2.889  13.562
80604SOL    HW143709   1.080   2.974  13.605
80604SOL    HW243710   1.044   2.827  13.619
80605SOL     OW43711   2.920   8.830   1.854
80605SOL    HW143712   2.845   8.817   1.912
80605SOL    HW243713   2.883   8.835   1.766
80606SOL     OW43714   9.389  10.569   2.501
80606SOL    HW143715   9.404  10.476   2.483
80606SOL    HW243716   9.385  10.574   2.596
80607SOL     OW43717   1.046   6.011   2.269
80607SOL    HW143718   1.048   5.935   2.211
80607SOL    HW243719   1.058   6.086   2.212
80608SOL     OW43720  12.940   9.563  13.617
80608SOL    HW143721  12.958   9.490  13.559
80608SOL    HW243722  12.852   9.592  13.593
80609SOL     OW43723   0.463  11.472  12.756
80609SOL    HW143724   0.550  11.495  12.724
80609SOL    HW243725   0.434  11.402  12.697
80610SOL     OW43726   9.417   0.029   7.574
80610SOL    HW143727   9.329   0.053   7.545
80610SOL    HW243728   9.432   0.084   7.651
80611SOL     OW43729   4.076   2.152   5.398
80611SOL    HW143730   4.028   2.077   5.363
80611SOL    HW243731   4.118   2.192   5.322
80612SOL     OW43732  14.244   4.757  10.581
80612SOL    HW143733  14.212   4.811  10.653
80612SOL    HW243734  14.209   4.670  10.598
80613SOL     OW43735  11.644  13.681   5.548
80613SOL    HW143736  11.634  13.684   5.453
80613SOL    HW243737  11.676  13.769   5.570
80614SOL     OW43738  13.234   2.361   5.751
80614SOL    HW143739  13.158   2.307   5.774
80614SOL    HW243740  13.222   2.380   5.658
80615SOL     OW43741   4.427   0.218  13.587
80615SOL    HW143742   4.415   0.271  13.666
80615SOL    HW243743   4.365   0.145  13.598
80616SOL     OW43744   3.222   5.823   6.621
80616SOL    HW143745   3.285   5.764   6.662
80616SOL    HW243746   3.232   5.906   6.669
80617SOL     OW43747  12.914   8.844  10.093
80617SOL    HW143748  12.995   8.793  10.087
80617SOL    HW243749  12.850   8.785  10.133
80618SOL     OW43750   1.754   9.271   1.755
80618SOL    HW143751   1.793   9.199   1.804
80618SOL    HW243752   1.806   9.277   1.676
80619SOL     OW43753  12.138   4.699   4.985
80619SOL    HW143754  12.222   4.682   5.027
80619SOL    HW243755  12.099   4.770   5.037
80620SOL     OW43756   9.369   9.970   9.602
80620SOL    HW143757   9.378   9.927   9.517
80620SOL    HW243758   9.388  10.062   9.585
80621SOL     OW43759   0.010  10.142   4.443
80621SOL    HW143760   0.066  10.066   4.428
80621SOL    HW243761  14.862  10.137   4.535
80622SOL     OW43762   3.523   4.879   2.504
80622SOL    HW143763   3.596   4.868   2.565
80622SOL    HW243764   3.525   4.973   2.482
80623SOL     OW43765   9.555  12.701   8.214
80623SOL    HW143766   9.531  12.761   8.144
80623SOL    HW243767   9.533  12.747   8.294
80624SOL     OW43768  10.170   0.556  10.759
80624SOL    HW143769  10.163   0.633  10.815
80624SOL    HW243770  10.134   0.584  10.675
80625SOL     OW43771  10.755  12.636  10.377
80625SOL    HW143772  10.782  12.658  10.466
80625SOL    HW243773  10.755  12.719  10.330
80626SOL     OW43774   9.296   6.278   9.455
80626SOL    HW143775   9.290   6.364   9.414
80626SOL    HW243776   9.216   6.271   9.507
80627SOL     OW43777  11.948   3.566  11.079
80627SOL    HW143778  11.998   3.635  11.121
80627SOL    HW243779  11.993   3.551  10.996
80628SOL     OW43780   8.756  12.801   3.397
80628SOL    HW143781   8.815  12.742   3.349
80628SOL    HW243782   8.715  12.745   3.463
80629SOL     OW43783   5.675   5.264   8.157
80629SOL    HW143784   5.661   5.345   8.206
80629SOL    HW243785   5.629   5.197   8.208
80630SOL     OW43786   7.469   4.556   3.831
80630SOL    HW143787   7.563   4.559   3.849
80630SOL    HW243788   7.453   4.468   3.798
80631SOL     OW43789   6.233  11.324  12.336
80631SOL    HW143790   6.318  11.296  12.302
80631SOL    HW243791   6.240  11.419  12.342
80632SOL     OW43792   5.697  10.749   3.455
80632SOL    HW143793   5.650  10.775   3.535
80632SOL    HW243794   5.786  10.782   3.468
80633SOL     OW43795  11.991   1.599  13.462
80633SOL    HW143796  11.923   1.535  13.441
80633SOL    HW243797  12.013   1.581  13.553
80634SOL     OW43798   0.544   6.035  14.138
80634SOL    HW143799   0.512   5.963  14.192
80634SOL    HW243800   0.601   6.085  14.196
80635SOL     OW43801  12.569   4.397  13.443
80635SOL    HW143802  12.497   4.459  13.431
80635SOL    HW243803  12.648   4.453  13.446
80636SOL     OW43804  10.421   1.951  11.112
80636SOL    HW143805  10.340   1.934  11.160
80636SOL    HW243806  10.404   1.921  11.023
80637SOL     OW43807   0.805   0.635   6.787
80637SOL    HW143808   0.844   0.649   6.701
80637SOL    HW243809   0.860   0.687   6.847
80638SOL     OW43810   7.912   2.781   3.730
80638SOL    HW143811   7.980   2.740   3.784
80638SOL    HW243812   7.934   2.874   3.729
80639SOL     OW43813   6.488   4.597   8.753
80639SOL    HW143814   6.486   4.539   8.676
80639SOL    HW243815   6.555   4.662   8.731
80640SOL     OW43816  11.498   1.320  12.694
80640SOL    HW143817  11.463   1.363  12.615
80640SOL    HW243818  11.421   1.305  12.748
80641SOL     OW43819  10.335  10.457   1.286
80641SOL    HW143820  10.276  10.525   1.320
80641SOL    HW243821  10.280  10.405   1.227
80642SOL     OW43822   2.439   8.307   2.384
80642SOL    HW143823   2.484   8.225   2.402
80642SOL    HW243824   2.368   8.282   2.324
80643SOL     OW43825  13.081   1.404  10.159
80643SOL    HW143826  13.132   1.422  10.238
80643SOL    HW243827  12.991   1.403  10.189
80644SOL     OW43828  10.878   0.049  12.519
80644SOL    HW143829  10.819   0.044  12.443
80644SOL    HW243830  10.931   0.127  12.503
80645SOL     OW43831   9.258  12.866   1.741
80645SOL    HW143832   9.342  12.899   1.773
80645SOL    HW243833   9.242  12.787   1.792
80646SOL     OW43834   9.811   6.651   4.746
80646SOL    HW143835   9.899   6.619   4.765
80646SOL    HW243836   9.784   6.603   4.667
80647SOL     OW43837  12.097   4.575   8.506
80647SOL    HW143838  12.026   4.585   8.568
80647SOL    HW243839  12.054   4.552   8.423
80648SOL     OW43840   1.276   8.805   2.523
80648SOL    HW143841   1.311   8.854   2.597
80648SOL    HW243842   1.220   8.738   2.563
80649SOL     OW43843   1.416   4.148   7.023
80649SOL    HW143844   1.416   4.162   7.118
80649SOL    HW243845   1.424   4.236   6.987
80650SOL     OW43846   2.718   6.818  10.174
80650SOL    HW143847   2.659   6.769  10.231
80650SOL    HW243848   2.664   6.888  10.137
80651SOL     OW43849   3.358   0.868   4.774
80651SOL    HW143850   3.441   0.853   4.728
80651SOL    HW243851   3.300   0.799   4.742
80652SOL     OW43852   9.600   7.719   3.601
80652SOL    HW143853   9.568   7.796   3.554
80652SOL    HW243854   9.541   7.648   3.574
80653SOL     OW43855   9.967   8.105   9.491
80653SOL    HW143856  10.024   8.094   9.415
80653SOL    HW243857   9.887   8.144   9.456
80654SOL     OW43858   8.193  12.524   2.214
80654SOL    HW143859   8.271  12.542   2.267
80654SOL    HW243860   8.201  12.432   2.191
80655SOL     OW43861   7.257   8.538   1.221
80655SOL    HW143862   7.315   8.488   1.279
80655SOL    HW243863   7.216   8.471   1.166
80656SOL     OW43864   4.559   9.414  10.877
80656SOL    HW143865   4.475   9.369  10.875
80656SOL    HW243866   4.613   9.362  10.937
80657SOL     OW43867  12.517   2.925   3.735
80657SOL    HW143868  12.591   2.980   3.763
80657SOL    HW243869  12.501   2.867   3.810
80658SOL     OW43870   5.483  13.437   5.139
80658SOL    HW143871   5.478  13.429   5.044
80658SOL    HW243872   5.483  13.531   5.155
80659SOL     OW43873   3.793   1.556   2.884
80659SOL    HW143874   3.737   1.489   2.924
80659SOL    HW243875   3.870   1.560   2.940
80660SOL     OW43876   8.290   2.229   9.465
80660SOL    HW143877   8.264   2.171   9.393
80660SOL    HW243878   8.353   2.176   9.515
80661SOL     OW43879   7.702   5.688   9.025
80661SOL    HW143880   7.680   5.768   9.072
80661SOL    HW243881   7.776   5.652   9.073
80662SOL     OW43882  12.256   1.445   4.140
80662SOL    HW143883  12.289   1.464   4.228
80662SOL    HW243884  12.170   1.486   4.136
80663SOL     OW43885  13.941   8.939   6.005
80663SOL    HW143886  13.878   8.981   6.064
80663SOL    HW243887  13.982   8.871   6.058
80664SOL     OW43888  14.011   3.950  12.374
80664SOL    HW143889  14.080   3.932  12.438
80664SOL    HW243890  13.951   4.010  12.419
80665SOL     OW43891   1.575   1.763   9.982
80665SOL    HW143892   1.638   1.728  10.044
80665SOL    HW243893   1.540   1.685   9.937
80666SOL     OW43894   1.511   3.423  11.313
80666SOL    HW143895   1.435   3.479  11.332
80666SOL    HW243896   1.494   3.342  11.360
80667SOL     OW43897   7.304   1.951  10.431
80667SOL    HW143898   7.230   1.998  10.392
80667SOL    HW243899   7.292   1.860  10.404
80668SOL     OW43900   3.099   4.496   2.904
80668SOL    HW143901   3.173   4.522   2.848
80668SOL    HW243902   3.095   4.563   2.972
80669SOL     OW43903   0.155  11.294   5.510
80669SOL    HW143904   0.222  11.360   5.533
80669SOL    HW243905   0.106  11.335   5.439
80670SOL     OW43906   2.563   3.273   3.653
80670SOL    HW143907   2.531   3.216   3.583
80670SOL    HW243908   2.574   3.358   3.611
80671SOL     OW43909   8.769  12.326   2.749
80671SOL    HW143910   8.859  12.358   2.745
80671SOL    HW243911   8.777  12.235   2.779
80672SOL     OW43912   9.526   5.036   0.150
80672SOL    HW143913   9.552   5.047   0.241
80672SOL    HW243914   9.542   5.121   0.109
80673SOL     OW43915   4.658  10.192   2.931
80673SOL    HW143916   4.660  10.131   2.857
80673SOL    HW243917   4.717  10.152   2.995
80674SOL     OW43918   1.421   2.717  13.225
80674SOL    HW143919   1.350   2.690  13.167
80674SOL    HW243920   1.441   2.638  13.276
80675SOL     OW43921   7.756   5.965  13.195
80675SOL    HW143922   7.691   6.006  13.252
80675SOL    HW243923   7.813   6.037  13.167
80676SOL     OW43924   1.728   3.594  12.834
80676SOL    HW143925   1.775   3.557  12.909
80676SOL    HW243926   1.673   3.663  12.872
80677SOL     OW43927  13.239  11.342  12.212
80677SOL    HW143928  13.239  11.269  12.150
80677SOL    HW243929  13.219  11.301  12.296
80678SOL     OW43930   8.938  12.356   0.764
80678SOL    HW143931   8.991  12.342   0.842
80678SOL    HW243932   8.996  12.401   0.703
80679SOL     OW43933  10.928   1.558   7.063
80679SOL    HW143934  10.976   1.560   7.146
80679SOL    HW243935  10.917   1.465   7.043
80680SOL     OW43936   1.425   7.120   7.948
80680SOL    HW143937   1.461   7.062   8.015
80680SOL    HW243938   1.336   7.086   7.933
80681SOL     OW43939   5.366   8.059   3.060
80681SOL    HW143940   5.362   8.147   3.097
80681SOL    HW243941   5.330   8.068   2.972
80682SOL     OW43942  11.629   1.954  13.392
80682SOL    HW143943  11.623   1.882  13.455
80682SOL    HW243944  11.719   1.986  13.401
80683SOL     OW43945   4.573   7.943   1.088
80683SOL    HW143946   4.627   7.955   1.166
80683SOL    HW243947   4.571   8.029   1.046
80684SOL     OW43948   4.745   0.242   9.455
80684SOL    HW143949   4.738   0.247   9.360
80684SOL    HW243950   4.825   0.192   9.471
80685SOL     OW43951   9.303  11.763   5.060
80685SOL    HW143952   9.368  11.716   5.113
80685SOL    HW243953   9.312  11.854   5.087
80686SOL     OW43954   6.058   0.877  13.416
80686SOL    HW143955   5.984   0.936  13.430
80686SOL    HW243956   6.089   0.898  13.328
80687SOL     OW43957   9.592   4.136  14.585
80687SOL    HW143958   9.587   4.230  14.601
80687SOL    HW243959   9.643   4.129  14.504
80688SOL     OW43960   2.287   0.577   8.806
80688SOL    HW143961   2.340   0.513   8.757
80688SOL    HW243962   2.336   0.593   8.886
80689SOL     OW43963   8.452   0.268  11.902
80689SOL    HW143964   8.456   0.258  11.997
80689SOL    HW243965   8.539   0.242  11.872
80690SOL     OW43966   8.848   1.518   8.189
80690SOL    HW143967   8.768   1.489   8.233
80690SOL    HW243968   8.819   1.587   8.129
80691SOL     OW43969   1.485   7.824   7.219
80691SOL    HW143970   1.499   7.744   7.268
80691SOL    HW243971   1.559   7.830   7.159
80692SOL     OW43972   9.545   0.326   1.803
80692SOL    HW143973   9.555   0.242   1.758
80692SOL    HW243974   9.614   0.381   1.766
80693SOL     OW43975  13.881  14.525  14.155
80693SOL    HW143976  13.851  14.596  14.212
80693SOL    HW243977  13.805  14.505  14.099
80694SOL     OW43978   5.821  11.672   1.485
80694SOL    HW143979   5.802  11.580   1.502
80694SOL    HW243980   5.756  11.698   1.420
80695SOL     OW43981   8.590   3.234   9.289
80695SOL    HW143982   8.665   3.217   9.346
80695SOL    HW243983   8.537   3.155   9.295
80696SOL     OW43984  11.843   8.006   1.049
80696SOL    HW143985  11.851   8.100   1.066
80696SOL    HW243986  11.819   7.968   1.134
80697SOL     OW43987   0.407   6.482   6.585
80697SOL    HW143988   0.472   6.445   6.646
80697SOL    HW243989   0.459   6.511   6.510
80698SOL     OW43990  12.063   7.702   7.667
80698SOL    HW143991  12.091   7.685   7.577
80698SOL    HW243992  12.058   7.615   7.707
80699SOL     OW43993   2.005   1.722  11.959
80699SOL    HW143994   1.921   1.678  11.970
80699SOL    HW243995   2.001   1.797  12.018
80700SOL     OW43996   5.018  10.439  12.387
80700SOL    HW143997   4.924  10.421  12.392
80700SOL    HW243998   5.047  10.440  12.478
80701SOL     OW43999   2.427  13.769   9.091
80701SOL    HW144000   2.391  13.709   9.026
80701SOL    HW244001   2.369  13.845   9.088
80702SOL     OW44002   9.858   7.425  12.403
80702SOL    HW144003   9.782   7.388  12.358
80702SOL    HW244004   9.931   7.409  12.344
80703SOL     OW44005   9.638   4.561   1.083
80703SOL    HW144006   9.680   4.636   1.041
80703SOL    HW244007   9.618   4.591   1.172
80704SOL     OW44008   5.104  12.466  10.567
80704SOL    HW144009   5.050  12.526  10.514
80704SOL    HW244010   5.192  12.475  10.530
80705SOL     OW44011  10.343   6.080   6.026
80705SOL    HW144012  10.348   6.030   5.944
80705SOL    HW244013  10.262   6.131   6.018
80706SOL     OW44014   5.097   5.588  12.304
80706SOL    HW144015   5.189   5.581  12.331
80706SOL    HW244016   5.100   5.576  12.209
80707SOL     OW44017  10.164  13.825  14.523
80707SOL    HW144018  10.083  13.787  14.491
80707SOL    HW244019  10.205  13.755  14.574
80708SOL     OW44020  11.250   2.875   5.333
80708SOL    HW144021  11.190   2.908   5.267
80708SOL    HW244022  11.198   2.815   5.386
80709SOL     OW44023   0.594   2.723   1.384
80709SOL    HW144024   0.637   2.806   1.365
80709SOL    HW244025   0.662   2.657   1.368
80710SOL     OW44026  13.179   9.513  10.203
80710SOL    HW144027  13.203   9.588  10.258
80710SOL    HW244028  13.146   9.552  10.122
80711SOL     OW44029   5.593   4.041   9.981
80711SOL    HW144030   5.602   4.116   9.923
80711SOL    HW244031   5.645   3.972   9.939
80712SOL     OW44032  11.304   9.733  11.216
80712SOL    HW144033  11.328   9.641  11.232
80712SOL    HW244034  11.386   9.781  11.222
80713SOL     OW44035   7.639   0.672  12.095
80713SOL    HW144036   7.679   0.620  12.166
80713SOL    HW244037   7.712   0.688  12.034
80714SOL     OW44038  10.974  10.776   9.303
80714SOL    HW144039  10.953  10.700   9.358
80714SOL    HW244040  11.048  10.748   9.249
80715SOL     OW44041   2.500   9.420   3.110
80715SOL    HW144042   2.414   9.414   3.152
80715SOL    HW244043   2.520   9.513   3.109
80716SOL     OW44044   3.113   4.306   7.743
80716SOL    HW144045   3.167   4.232   7.717
80716SOL    HW244046   3.174   4.370   7.778
80717SOL     OW44047  13.874  13.618   8.310
80717SOL    HW144048  13.962  13.585   8.329
80717SOL    HW244049  13.879  13.648   8.219
80718SOL     OW44050   5.447  12.125   8.587
80718SOL    HW144051   5.382  12.187   8.620
80718SOL    HW244052   5.403  12.040   8.592
80719SOL     OW44053   7.118   4.299   1.020
80719SOL    HW144054   7.091   4.327   0.933
80719SOL    HW244055   7.213   4.308   1.019
80720SOL     OW44056  11.483   6.201   4.005
80720SOL    HW144057  11.496   6.144   4.081
80720SOL    HW244058  11.491   6.290   4.040
80721SOL     OW44059  10.531   9.632   7.086
80721SOL    HW144060  10.617   9.643   7.129
80721SOL    HW244061  10.469   9.630   7.159
80722SOL     OW44062  12.937   2.209  14.416
80722SOL    HW144063  12.974   2.184  14.500
80722SOL    HW244064  13.014   2.223  14.360
80723SOL     OW44065  11.191  12.967   3.400
80723SOL    HW144066  11.220  12.892   3.452
80723SOL    HW244067  11.100  12.946   3.377
80724SOL     OW44068   7.201   9.960  10.198
80724SOL    HW144069   7.182  10.002  10.282
80724SOL    HW244070   7.296   9.950  10.197
80725SOL     OW44071  12.303  12.198  10.916
80725SOL    HW144072  12.353  12.121  10.942
80725SOL    HW244073  12.357  12.239  10.847
80726SOL     OW44074   0.805   7.426   3.803
80726SOL    HW144075   0.900   7.416   3.815
80726SOL    HW244076   0.767   7.359   3.860
80727SOL     OW44077   8.216   6.171   5.015
80727SOL    HW144078   8.265   6.116   5.075
80727SOL    HW244079   8.209   6.120   4.934
80728SOL     OW44080   2.852  12.702   7.958
80728SOL    HW144081   2.869  12.779   7.904
80728SOL    HW244082   2.841  12.631   7.895
80729SOL     OW44083  11.415  12.924  10.562
80729SOL    HW144084  11.327  12.888  10.549
80729SOL    HW244085  11.451  12.876  10.636
80730SOL     OW44086   1.194   4.178   2.227
80730SOL    HW144087   1.206   4.181   2.132
80730SOL    HW244088   1.121   4.239   2.243
80731SOL     OW44089   6.386   4.386   9.334
80731SOL    HW144090   6.341   4.470   9.338
80731SOL    HW244091   6.338   4.337   9.267
80732SOL     OW44092  12.762   9.791   9.320
80732SOL    HW144093  12.748   9.841   9.239
80732SOL    HW244094  12.702   9.717   9.313
80733SOL     OW44095   2.793   6.828   4.624
80733SOL    HW144096   2.820   6.779   4.546
80733SOL    HW244097   2.743   6.765   4.676
80734SOL     OW44098   1.292   4.855  14.383
80734SOL    HW144099   1.208   4.813  14.397
80734SOL    HW244100   1.305   4.852  14.288
80735SOL     OW44101   1.383  11.021   2.557
80735SOL    HW144102   1.375  10.928   2.538
80735SOL    HW244103   1.306  11.042   2.609
80736SOL     OW44104  11.750   5.212   7.661
80736SOL    HW144105  11.751   5.308   7.654
80736SOL    HW244106  11.671   5.192   7.711
80737SOL     OW44107  11.695   4.337   6.190
80737SOL    HW144108  11.616   4.332   6.136
80737SOL    HW244109  11.752   4.267   6.156
80738SOL     OW44110   6.409   3.741   0.544
80738SOL    HW144111   6.388   3.815   0.600
80738SOL    HW244112   6.354   3.670   0.577
80739SOL     OW44113  14.863   4.667   6.376
80739SOL    HW144114  14.793   4.601   6.374
80739SOL    HW244115   0.042   4.644   6.451
80740SOL     OW44116  13.764  10.562   6.997
80740SOL    HW144117  13.699  10.500   6.964
80740SOL    HW244118  13.822  10.578   6.922
80741SOL     OW44119   3.829   6.534   8.728
80741SOL    HW144120   3.834   6.629   8.722
80741SOL    HW244121   3.747   6.511   8.684
80742SOL     OW44122  11.513   5.421   0.002
80742SOL    HW144123  11.527   5.337  14.832
80742SOL    HW244124  11.549   5.408   0.089
80743SOL     OW44125   4.565   3.358   3.570
80743SOL    HW144126   4.624   3.312   3.509
80743SOL    HW244127   4.543   3.293   3.637
80744SOL     OW44128   3.984   3.649  11.729
80744SOL    HW144129   4.049   3.646  11.799
80744SOL    HW244130   3.925   3.576  11.748
80745SOL     OW44131   4.674  12.401   8.584
80745SOL    HW144132   4.596  12.370   8.630
80745SOL    HW244133   4.678  12.495   8.603
80746SOL     OW44134   6.774  11.039   8.594
80746SOL    HW144135   6.728  11.017   8.675
80746SOL    HW244136   6.788  11.134   8.600
80747SOL     OW44137   1.457   6.185  11.940
80747SOL    HW144138   1.393   6.115  11.929
80747SOL    HW244139   1.529   6.161  11.881
80748SOL     OW44140  12.510  10.957   1.397
80748SOL    HW144141  12.515  11.036   1.344
80748SOL    HW244142  12.597  10.949   1.436
80749SOL     OW44143   2.898   5.444   5.421
80749SOL    HW144144   2.879   5.461   5.329
80749SOL    HW244145   2.920   5.530   5.457
80750SOL     OW44146   7.127   4.966   0.133
80750SOL    HW144147   7.043   4.967   0.088
80750SOL    HW244148   7.116   5.030   0.204
80751SOL     OW44149   3.502  10.145   1.161
80751SOL    HW144150   3.516  10.202   1.236
80751SOL    HW244151   3.487  10.206   1.088
80752SOL     OW44152   1.354   0.722   0.918
80752SOL    HW144153   1.343   0.673   0.999
80752SOL    HW244154   1.420   0.788   0.939
80753SOL     OW44155   0.977   9.897   1.977
80753SOL    HW144156   1.000   9.985   2.009
80753SOL    HW244157   1.060   9.862   1.944
80754SOL     OW44158   4.168  11.467  13.566
80754SOL    HW144159   4.264  11.464  13.562
80754SOL    HW244160   4.143  11.385  13.609
80755SOL     OW44161   9.362   0.191  10.571
80755SOL    HW144162   9.284   0.239  10.543
80755SOL    HW244163   9.367   0.205  10.665
80756SOL     OW44164   4.366  10.610   8.018
80756SOL    HW144165   4.274  10.597   8.040
80756SOL    HW244166   4.403  10.521   8.013
80757SOL     OW44167   2.243   0.098   5.451
80757SOL    HW144168   2.301   0.033   5.490
80757SOL    HW244169   2.228   0.066   5.362
80758SOL     OW44170   9.906   7.913  11.672
80758SOL    HW144171   9.892   7.841  11.734
80758SOL    HW244172   9.977   7.882  11.616
80759SOL     OW44173   7.668   4.467   0.522
80759SOL    HW144174   7.587   4.437   0.481
80759SOL    HW244175   7.737   4.432   0.466
80760SOL     OW44176  12.033  13.701  10.102
80760SOL    HW144177  12.090  13.714  10.026
80760SOL    HW244178  12.037  13.607  10.119
80761SOL     OW44179   6.614   0.284   1.025
80761SOL    HW144180   6.586   0.246   1.109
80761SOL    HW244181   6.698   0.242   1.006
80762SOL     OW44182   6.767  13.452  14.256
80762SOL    HW144183   6.860  13.466  14.236
80762SOL    HW244184   6.724  13.530  14.222
80763SOL     OW44185  10.729   3.616  14.750
80763SOL    HW144186  10.785   3.667  14.692
80763SOL    HW244187  10.765   3.632  14.838
80764SOL     OW44188   4.995   2.600   6.528
80764SOL    HW144189   5.010   2.692   6.511
80764SOL    HW244190   5.028   2.555   6.450
80765SOL     OW44191   9.768  13.762   3.085
80765SOL    HW144192   9.722  13.765   3.002
80765SOL    HW244193   9.735  13.837   3.134
80766SOL     OW44194   7.665   9.169   6.485
80766SOL    HW144195   7.698   9.095   6.535
80766SOL    HW244196   7.706   9.160   6.399
80767SOL     OW44197   5.327   9.425  10.975
80767SOL    HW144198   5.267   9.377  11.032
80767SOL    HW244199   5.371   9.358  10.923
80768SOL     OW44200  11.008  13.704   1.408
80768SOL    HW144201  10.960  13.621   1.408
80768SOL    HW244202  11.091  13.684   1.364
80769SOL     OW44203   8.162   5.835   0.924
80769SOL    HW144204   8.067   5.822   0.917
80769SOL    HW244205   8.177   5.922   0.887
80770SOL     OW44206   4.968  11.543   9.385
80770SOL    HW144207   4.878  11.569   9.362
80770SOL    HW244208   4.987  11.470   9.326
80771SOL     OW44209   1.513   6.580   3.744
80771SOL    HW144210   1.488   6.493   3.713
80771SOL    HW244211   1.582   6.608   3.684
80772SOL     OW44212   0.408   2.487   9.832
80772SOL    HW144213   0.427   2.396   9.855
80772SOL    HW244214   0.494   2.528   9.824
80773SOL     OW44215   0.028   4.083  11.887
80773SOL    HW144216   0.007   4.078  11.981
80773SOL    HW244217   0.083   4.007  11.871
80774SOL     OW44218   1.358   6.131  12.180
80774SOL    HW144219   1.369   6.195  12.251
80774SOL    HW244220   1.418   6.161  12.111
80775SOL     OW44221   4.505   7.436  11.589
80775SOL    HW144222   4.479   7.359  11.639
80775SOL    HW244223   4.600   7.442  11.600
80776SOL     OW44224   8.004  10.125   5.727
80776SOL    HW144225   7.943  10.196   5.750
80776SOL    HW244226   8.088  10.153   5.764
80777SOL     OW44227   2.431   9.532   5.715
80777SOL    HW144228   2.392   9.615   5.743
80777SOL    HW244229   2.522   9.537   5.746
80778SOL     OW44230   5.915   5.470  10.072
80778SOL    HW144231   5.976   5.487  10.144
80778SOL    HW244232   5.891   5.378  10.083
80779SOL     OW44233   2.745   6.868   3.140
80779SOL    HW144234   2.805   6.852   3.212
80779SOL    HW244235   2.780   6.816   3.068
80780SOL     OW44236   7.350   3.950   2.228
80780SOL    HW144237   7.394   3.888   2.286
80780SOL    HW244238   7.378   3.924   2.140
80781SOL     OW44239   8.504  10.964  12.333
80781SOL    HW144240   8.596  10.972  12.309
80781SOL    HW244241   8.458  10.954  12.249
80782SOL     OW44242   4.032   2.367   3.935
80782SOL    HW144243   4.012   2.376   3.841
80782SOL    HW244244   4.046   2.457   3.965
80783SOL     OW44245  10.264   2.115   6.326
80783SOL    HW144246  10.353   2.139   6.351
80783SOL    HW244247  10.207   2.159   6.389
80784SOL     OW44248  14.217   5.928  11.059
80784SOL    HW144249  14.203   5.989  10.987
80784SOL    HW244250  14.206   5.841  11.020
80785SOL     OW44251   0.106   4.123   4.426
80785SOL    HW144252   0.197   4.149   4.411
80785SOL    HW244253   0.094   4.046   4.370
80786SOL     OW44254  13.166   1.633  14.118
80786SOL    HW144255  13.194   1.702  14.177
80786SOL    HW244256  13.138   1.679  14.039
80787SOL     OW44257   7.507   4.478   2.235
80787SOL    HW144258   7.529   4.385   2.236
80787SOL    HW244259   7.476   4.496   2.324
80788SOL     OW44260   3.296   4.892  10.713
80788SOL    HW144261   3.242   4.970  10.701
80788SOL    HW244262   3.308   4.858  10.624
80789SOL     OW44263   4.714   7.728  13.269
80789SOL    HW144264   4.651   7.694  13.333
80789SOL    HW244265   4.686   7.818  13.254
80790SOL     OW44266   7.870  10.048   4.879
80790SOL    HW144267   7.870   9.967   4.929
80790SOL    HW244268   7.865  10.020   4.787
80791SOL     OW44269   5.868   3.866   3.009
80791SOL    HW144270   5.874   3.881   2.915
80791SOL    HW244271   5.947   3.906   3.045
80792SOL     OW44272   1.842  11.468  13.705
80792SOL    HW144273   1.839  11.386  13.754
80792SOL    HW244274   1.846  11.536  13.772
80793SOL     OW44275   4.338   0.995   1.833
80793SOL    HW144276   4.327   1.076   1.783
80793SOL    HW244277   4.356   1.023   1.922
80794SOL     OW44278   3.277  12.299  11.597
80794SOL    HW144279   3.300  12.340  11.514
80794SOL    HW244280   3.244  12.212  11.572
80795SOL     OW44281   7.234   0.568   8.189
80795SOL    HW144282   7.270   0.642   8.237
80795SOL    HW244283   7.177   0.608   8.123
80796SOL     OW44284  13.719   8.360  13.963
80796SOL    HW144285  13.648   8.391  14.019
80796SOL    HW244286  13.742   8.275  13.999
80797SOL     OW44287   3.697  10.799   0.388
80797SOL    HW144288   3.789  10.788   0.363
80797SOL    HW244289   3.662  10.710   0.391
80798SOL     OW44290   1.277  10.522   4.970
80798SOL    HW144291   1.235  10.515   5.055
80798SOL    HW244292   1.370  10.509   4.988
80799SOL     OW44293   9.286   6.993   0.009
80799SOL    HW144294   9.260   7.053  14.813
80799SOL    HW244295   9.381   6.992   0.006
80800SOL     OW44296   8.862  12.672  12.757
80800SOL    HW144297   8.774  12.657  12.790
80800SOL    HW244298   8.850  12.722  12.677
80801SOL     OW44299  10.399  12.401   5.000
80801SOL    HW144300  10.378  12.341   4.929
80801SOL    HW244301  10.327  12.391   5.063
80802SOL     OW44302   1.783   9.232   6.132
80802SOL    HW144303   1.801   9.326   6.135
80802SOL    HW244304   1.713   9.219   6.195
80803SOL     OW44305   7.850   4.441   2.757
80803SOL    HW144306   7.818   4.527   2.731
80803SOL    HW244307   7.793   4.379   2.712
80804SOL     OW44308   9.941  11.312   2.300
80804SOL    HW144309   9.858  11.360   2.304
80804SOL    HW244310   9.994  11.361   2.237
80805SOL     OW44311   7.842   4.608   4.627
80805SOL    HW144312   7.920   4.662   4.616
80805SOL    HW244313   7.786   4.632   4.554
80806SOL     OW44314   1.150   9.354   2.903
80806SOL    HW144315   1.126   9.446   2.890
80806SOL    HW244316   1.207   9.354   2.980
80807SOL     OW44317   2.371  11.793   1.258
80807SOL    HW144318   2.435  11.824   1.193
80807SOL    HW244319   2.368  11.698   1.245
80808SOL     OW44320   3.594   2.018  10.963
80808SOL    HW144321   3.623   2.065  10.884
80808SOL    HW244322   3.585   1.927  10.934
80809SOL     OW44323   9.637   8.656   6.346
80809SOL    HW144324   9.692   8.604   6.288
80809SOL    HW244325   9.699   8.710   6.396
80810SOL     OW44326  13.272  12.998   7.020
80810SOL    HW144327  13.281  12.927   6.958
80810SOL    HW244328  13.235  13.071   6.969
80811SOL     OW44329   7.518   7.237   2.500
80811SOL    HW144330   7.550   7.147   2.500
80811SOL    HW244331   7.423   7.229   2.504
80812SOL     OW44332   3.090   5.923  12.034
80812SOL    HW144333   3.181   5.901  12.056
80812SOL    HW244334   3.089   5.930  11.939
80813SOL     OW44335  10.519  12.382   5.800
80813SOL    HW144336  10.473  12.457   5.837
80813SOL    HW244337  10.452  12.314   5.792
80814SOL     OW44338  11.362  10.084   6.212
80814SOL    HW144339  11.342  10.115   6.300
80814SOL    HW244340  11.282  10.101   6.162
80815SOL     OW44341   3.579  12.205   6.531
80815SOL    HW144342   3.598  12.113   6.549
80815SOL    HW244343   3.579  12.211   6.436
80816SOL     OW44344  11.587  14.436   9.138
80816SOL    HW144345  11.497  14.404   9.148
80816SOL    HW244346  11.638  14.359   9.114
80817SOL     OW44347  12.519   1.331   0.978
80817SOL    HW144348  12.603   1.342   1.023
80817SOL    HW244349  12.536   1.264   0.911
80818SOL     OW44350   5.372   5.546  12.386
80818SOL    HW144351   5.400   5.469  12.337
80818SOL    HW244352   5.387   5.523  12.477
80819SOL     OW44353   1.773   5.752  10.941
80819SOL    HW144354   1.788   5.736  11.034
80819SOL    HW244355   1.683   5.783  10.936
80820SOL     OW44356  13.361   3.992   6.178
80820SOL    HW144357  13.344   4.085   6.165
80820SOL    HW244358  13.304   3.967   6.250
80821SOL     OW44359  10.326  11.913   3.467
80821SOL    HW144360  10.291  11.824   3.470
80821SOL    HW244361  10.286  11.953   3.389
80822SOL     OW44362   1.211   3.943   6.771
80822SOL    HW144363   1.130   3.894   6.785
80822SOL    HW244364   1.272   3.906   6.834
80823SOL     OW44365  13.151   7.167  14.222
80823SOL    HW144366  13.086   7.191  14.288
80823SOL    HW244367  13.118   7.206  14.141
80824SOL     OW44368  12.515   1.205  10.979
80824SOL    HW144369  12.527   1.264  11.053
80824SOL    HW244370  12.427   1.224  10.947
80825SOL     OW44371   9.652   4.115   7.120
80825SOL    HW144372   9.619   4.113   7.210
80825SOL    HW244373   9.630   4.028   7.085
80826SOL     OW44374   4.968   7.393   1.244
80826SOL    HW144375   5.047   7.435   1.276
80826SOL    HW244376   4.995   7.348   1.164
80827SOL     OW44377   9.715   2.771  12.308
80827SOL    HW144378   9.783   2.728  12.361
80827SOL    HW244379   9.635   2.724  12.330
80828SOL     OW44380  14.844   8.313  10.114
80828SOL    HW144381   0.009   8.324  10.028
80828SOL    HW244382  14.827   8.218  10.121
80829SOL     OW44383   3.246  12.985   3.054
80829SOL    HW144384   3.226  12.898   3.087
80829SOL    HW244385   3.193  12.994   2.975
80830SOL     OW44386  11.757  11.681   5.914
80830SOL    HW144387  11.682  11.623   5.901
80830SOL    HW244388  11.759  11.697   6.008
80831SOL     OW44389  10.108   4.341   6.484
80831SOL    HW144390  10.128   4.261   6.534
80831SOL    HW244391  10.182   4.399   6.502
80832SOL     OW44392   6.812  12.285  13.903
80832SOL    HW144393   6.719  12.293  13.886
80832SOL    HW244394   6.849  12.369  13.878
80833SOL     OW44395  12.027  14.029  12.858
80833SOL    HW144396  12.114  14.063  12.875
80833SOL    HW244397  11.980  14.101  12.816
80834SOL     OW44398   2.216  11.141   7.528
80834SOL    HW144399   2.304  11.132   7.493
80834SOL    HW244400   2.226  11.130   7.622
80835SOL     OW44401  14.159  11.358   9.007
80835SOL    HW144402  14.087  11.309   9.048
80835SOL    HW244403  14.119  11.398   8.929
80836SOL     OW44404   1.295   3.179   0.087
80836SOL    HW144405   1.384   3.149   0.068
80836SOL    HW244406   1.285   3.168   0.181
80837SOL     OW44407  14.802  11.940   9.209
80837SOL    HW144408  14.802  11.845   9.214
80837SOL    HW244409  14.729  11.962   9.152
80838SOL     OW44410  11.569  10.613   5.381
80838SOL    HW144411  11.574  10.530   5.334
80838SOL    HW244412  11.481  10.615   5.417
80839SOL     OW44413  14.633   1.433   4.219
80839SOL    HW144414  14.558   1.405   4.270
80839SOL    HW244415  14.662   1.515   4.260
80840SOL     OW44416  11.649   1.015   6.993
80840SOL    HW144417  11.627   1.042   7.082
80840SOL    HW244418  11.697   1.089   6.956
80841SOL     OW44419   9.199  13.733   5.543
80841SOL    HW144420   9.208  13.752   5.450
80841SOL    HW244421   9.232  13.644   5.553
80842SOL     OW44422   0.588   3.240   2.132
80842SOL    HW144423   0.591   3.160   2.081
80842SOL    HW244424   0.629   3.218   2.216
80843SOL     OW44425  14.525   3.192   4.597
80843SOL    HW144426  14.595   3.135   4.566
80843SOL    HW244427  14.489   3.231   4.518
80844SOL     OW44428   5.506  13.221   1.994
80844SOL    HW144429   5.521  13.293   1.932
80844SOL    HW244430   5.445  13.163   1.949
80845SOL     OW44431   7.599  12.749  13.661
80845SOL    HW144432   7.552  12.667  13.650
80845SOL    HW244433   7.537  12.807  13.706
80846SOL     OW44434  13.430  10.119   2.541
80846SOL    HW144435  13.498  10.134   2.607
80846SOL    HW244436  13.458  10.041   2.494
80847SOL     OW44437   6.367   7.459   7.201
80847SOL    HW144438   6.421   7.401   7.254
80847SOL    HW244439   6.336   7.525   7.262
80848SOL     OW44440   8.433   0.013   7.270
80848SOL    HW144441   8.358   0.037   7.324
80848SOL    HW244442   8.420  14.795   7.251
80849SOL     OW44443  10.987  11.646   3.404
80849SOL    HW144444  11.037  11.725   3.424
80849SOL    HW244445  10.927  11.672   3.334
80850SOL     OW44446   5.451   1.877  12.674
80850SOL    HW144447   5.395   1.890  12.598
80850SOL    HW244448   5.461   1.965  12.712
80851SOL     OW44449   1.244   2.328  10.715
80851SOL    HW144450   1.198   2.388  10.656
80851SOL    HW244451   1.179   2.308  10.783
80852SOL     OW44452   1.502  12.043   2.922
80852SOL    HW144453   1.544  12.124   2.950
80852SOL    HW244454   1.525  12.034   2.830
80853SOL     OW44455  13.352   6.843   3.284
80853SOL    HW144456  13.379   6.754   3.307
80853SOL    HW244457  13.329   6.883   3.368
80854SOL     OW44458  13.867   2.122  13.847
80854SOL    HW144459  13.788   2.075  13.874
80854SOL    HW244460  13.938   2.075  13.890
80855SOL     OW44461  14.604   3.910   3.822
80855SOL    HW144462  14.571   3.998   3.840
80855SOL    HW244463  14.527   3.854   3.828
80856SOL     OW44464   7.301  10.196   3.258
80856SOL    HW144465   7.331  10.134   3.193
80856SOL    HW244466   7.296  10.146   3.339
80857SOL     OW44467   3.882   7.079  14.055
80857SOL    HW144468   3.943   7.135  14.102
80857SOL    HW244469   3.933   7.002  14.031
80858SOL     OW44470  12.547   3.977   8.432
80858SOL    HW144471  12.460   4.017   8.426
80858SOL    HW244472  12.531   3.884   8.448
80859SOL     OW44473   2.400   7.007   9.153
80859SOL    HW144474   2.487   6.976   9.175
80859SOL    HW244475   2.415   7.085   9.100
80860SOL     OW44476   5.348  12.322   4.960
80860SOL    HW144477   5.430  12.275   4.952
80860SOL    HW244478   5.373  12.415   4.959
80861SOL     OW44479   8.512   7.562  11.461
80861SOL    HW144480   8.585   7.501  11.476
80861SOL    HW244481   8.501   7.562  11.366
80862SOL     OW44482   8.218   5.570   5.989
80862SOL    HW144483   8.273   5.501   6.026
80862SOL    HW244484   8.137   5.525   5.964
80863SOL     OW44485  10.476   5.780  11.399
80863SOL    HW144486  10.450   5.870  11.382
80863SOL    HW244487  10.562   5.771  11.358
80864SOL     OW44488   2.841  14.331  12.271
80864SOL    HW144489   2.786  14.352  12.346
80864SOL    HW244490   2.851  14.414  12.224
80865SOL     OW44491   8.582   5.715   7.938
80865SOL    HW144492   8.500   5.738   7.983
80865SOL    HW244493   8.571   5.749   7.850
80866SOL     OW44494   8.441   9.826   4.826
80866SOL    HW144495   8.434   9.731   4.837
80866SOL    HW244496   8.363   9.861   4.868
80867SOL     OW44497   8.730  12.775  11.924
80867SOL    HW144498   8.739  12.787  12.019
80867SOL    HW244499   8.778  12.694  11.906
80868SOL     OW44500   8.085   3.966  13.466
80868SOL    HW144501   8.035   4.009  13.535
80868SOL    HW244502   8.141   4.036  13.431
80869SOL     OW44503  11.041  12.604   8.428
80869SOL    HW144504  10.946  12.600   8.422
80869SOL    HW244505  11.071  12.526   8.380
80870SOL     OW44506  13.528  14.213   8.548
80870SOL    HW144507  13.547  14.206   8.641
80870SOL    HW244508  13.473  14.137   8.529
80871SOL     OW44509  12.911   1.856   0.665
80871SOL    HW144510  12.984   1.887   0.611
80871SOL    HW244511  12.940   1.771   0.697
80872SOL     OW44512  13.343   2.427  10.039
80872SOL    HW144513  13.397   2.396  10.112
80872SOL    HW244514  13.341   2.354   9.977
80873SOL     OW44515   1.788   6.898   7.051
80873SOL    HW144516   1.735   6.860   7.121
80873SOL    HW244517   1.856   6.833   7.034
80874SOL     OW44518   6.073   4.870   9.924
80874SOL    HW144519   6.089   4.958   9.891
80874SOL    HW244520   6.151   4.821   9.899
80875SOL     OW44521  11.172   3.830  12.071
80875SOL    HW144522  11.245   3.768  12.075
80875SOL    HW244523  11.198   3.902  12.128
80876SOL     OW44524   1.756   5.697   1.086
80876SOL    HW144525   1.676   5.739   1.055
80876SOL    HW244526   1.729   5.609   1.110
80877SOL     OW44527   4.260   0.357   7.162
80877SOL    HW144528   4.230   0.276   7.203
80877SOL    HW244529   4.257   0.422   7.232
80878SOL     OW44530   5.056   5.119   8.780
80878SOL    HW144531   4.990   5.080   8.837
80878SOL    HW244532   5.139   5.088   8.814
80879SOL     OW44533   4.964   1.741   9.532
80879SOL    HW144534   5.039   1.801   9.538
80879SOL    HW244535   4.997   1.665   9.486
80880SOL     OW44536   6.322   8.635   0.070
80880SOL    HW144537   6.361   8.549   0.085
80880SOL    HW244538   6.398   8.692   0.053
80881SOL     OW44539  12.493   3.278   5.791
80881SOL    HW144540  12.403   3.256   5.765
80881SOL    HW244541  12.544   3.202   5.763
80882SOL     OW44542   5.445   7.134  14.169
80882SOL    HW144543   5.539   7.135  14.182
80882SOL    HW244544   5.412   7.204  14.226
80883SOL     OW44545  12.423   4.125   4.304
80883SOL    HW144546  12.468   4.051   4.263
80883SOL    HW244547  12.425   4.194   4.238
80884SOL     OW44548   0.789  11.280   0.853
80884SOL    HW144549   0.790  11.353   0.791
80884SOL    HW244550   0.880  11.252   0.859
80885SOL     OW44551   0.097   7.747  12.766
80885SOL    HW144552   0.165   7.812  12.750
80885SOL    HW244553   0.136   7.686  12.828
80886SOL     OW44554   0.089   1.551   0.520
80886SOL    HW144555   0.098   1.644   0.504
80886SOL    HW244556   0.161   1.529   0.579
80887SOL     OW44557   1.248   8.302  12.896
80887SOL    HW144558   1.329   8.250  12.898
80887SOL    HW244559   1.204   8.274  12.815
80888SOL     OW44560  11.643  13.369   9.872
80888SOL    HW144561  11.725  13.402   9.837
80888SOL    HW244562  11.604  13.320   9.799
80889SOL     OW44563  12.866   5.463   4.153
80889SOL    HW144564  12.925   5.415   4.096
80889SOL    HW244565  12.886   5.555   4.137
80890SOL     OW44566   4.920  14.615   0.983
80890SOL    HW144567   4.896  14.566   0.904
80890SOL    HW244568   4.985  14.678   0.953
80891SOL     OW44569   5.592   6.442   2.149
80891SOL    HW144570   5.507   6.482   2.161
80891SOL    HW244571   5.655   6.513   2.162
80892SOL     OW44572  11.312   2.291  11.879
80892SOL    HW144573  11.326   2.233  11.954
80892SOL    HW244574  11.245   2.353  11.908
80893SOL     OW44575  10.868  13.029   5.175
80893SOL    HW144576  10.880  13.015   5.081
80893SOL    HW244577  10.952  13.006   5.214
80894SOL     OW44578   8.040  12.723   7.192
80894SOL    HW144579   8.033  12.670   7.271
80894SOL    HW244580   8.047  12.658   7.121
80895SOL     OW44581   1.638  14.653   3.546
80895SOL    HW144582   1.586  14.581   3.580
80895SOL    HW244583   1.716  14.655   3.601
80896SOL     OW44584   2.368   6.032  10.218
80896SOL    HW144585   2.448   5.981  10.233
80896SOL    HW244586   2.310   5.973  10.170
80897SOL     OW44587   8.761  13.667  14.143
80897SOL    HW144588   8.828  13.693  14.080
80897SOL    HW244589   8.786  13.711  14.224
80898SOL     OW44590   2.847   8.449   6.531
80898SOL    HW144591   2.846   8.371   6.586
80898SOL    HW244592   2.899   8.512   6.581
80899SOL     OW44593  13.826   7.612   9.462
80899SOL    HW144594  13.765   7.605   9.535
80899SOL    HW244595  13.832   7.523   9.428
80900SOL     OW44596  13.245   3.875   9.463
80900SOL    HW144597  13.335   3.849   9.449
80900SOL    HW244598  13.251   3.958   9.510
80901SOL     OW44599   7.346  14.464  12.151
80901SOL    HW144600   7.434  14.467  12.112
80901SOL    HW244601   7.359  14.492  12.241
80902SOL     OW44602   4.290   8.744   6.540
80902SOL    HW144603   4.304   8.839   6.545
80902SOL    HW244604   4.278   8.717   6.630
80903SOL     OW44605  10.039   9.591   0.633
80903SOL    HW144606  10.002   9.667   0.678
80903SOL    HW244607  10.119   9.572   0.681
80904SOL     OW44608  14.690   0.584  13.568
80904SOL    HW144609  14.656   0.661  13.613
80904SOL    HW244610  14.631   0.572  13.493
80905SOL     OW44611   1.241   5.023   4.377
80905SOL    HW144612   1.201   5.104   4.346
80905SOL    HW244613   1.177   4.955   4.353
80906SOL     OW44614   4.573   1.904  13.150
80906SOL    HW144615   4.645   1.896  13.088
80906SOL    HW244616   4.496   1.919  13.094
80907SOL     OW44617  11.678   4.987   0.242
80907SOL    HW144618  11.610   5.040   0.201
80907SOL    HW244619  11.630   4.920   0.290
80908SOL     OW44620   6.245   3.739  12.926
80908SOL    HW144621   6.197   3.741  12.843
80908SOL    HW244622   6.316   3.677  12.911
80909SOL     OW44623   7.967   8.523   0.529
80909SOL    HW144624   8.029   8.495   0.462
80909SOL    HW244625   8.002   8.487   0.611
80910SOL     OW44626   4.570  12.960   4.582
80910SOL    HW144627   4.478  12.931   4.581
80910SOL    HW244628   4.583  12.997   4.495
80911SOL     OW44629  10.811   6.782  12.910
80911SOL    HW144630  10.728   6.814  12.875
80911SOL    HW244631  10.788   6.741  12.993
80912SOL     OW44632   4.274   4.865   5.717
80912SOL    HW144633   4.203   4.816   5.759
80912SOL    HW244634   4.346   4.862   5.781
80913SOL     OW44635  13.149   0.951  12.529
80913SOL    HW144636  13.192   1.030  12.498
80913SOL    HW244637  13.176   0.943  12.621
80914SOL     OW44638   3.092   3.342  14.051
80914SOL    HW144639   2.998   3.350  14.066
80914SOL    HW244640   3.131   3.396  14.119
80915SOL     OW44641   7.863  12.998   5.828
80915SOL    HW144642   7.922  12.936   5.869
80915SOL    HW244643   7.776  12.959   5.838
80916SOL     OW44644  14.101   9.190   5.320
80916SOL    HW144645  14.063   9.224   5.401
80916SOL    HW244646  14.131   9.102   5.343
80917SOL     OW44647   8.916   4.314   4.936
80917SOL    HW144648   8.833   4.361   4.923
80917SOL    HW244649   8.929   4.314   5.031
80918SOL     OW44650  12.726   3.357  11.621
80918SOL    HW144651  12.768   3.343  11.536
80918SOL    HW244652  12.786   3.415  11.668
80919SOL     OW44653   2.519   8.574  10.915
80919SOL    HW144654   2.548   8.665  10.907
80919SOL    HW244655   2.452   8.564  10.848
80920SOL     OW44656  14.748   9.911   9.278
80920SOL    HW144657  14.811   9.866   9.334
80920SOL    HW244658  14.682   9.844   9.257
80921SOL     OW44659   9.093   0.131   5.458
80921SOL    HW144660   9.055   0.145   5.545
80921SOL    HW244661   9.124   0.040   5.460
80922SOL     OW44662  14.015   3.426   7.726
80922SOL    HW144663  14.087   3.425   7.789
80922SOL    HW244664  14.000   3.334   7.705
80923SOL     OW44665  10.861   3.697   9.931
80923SOL    HW144666  10.864   3.789   9.904
80923SOL    HW244667  10.828   3.700  10.021
80924SOL     OW44668   2.831  12.789   4.496
80924SOL    HW144669   2.799  12.767   4.408
80924SOL    HW244670   2.753  12.809   4.546
80925SOL     OW44671   2.927  14.016  14.618
80925SOL    HW144672   2.965  13.955  14.556
80925SOL    HW244673   2.851  13.970  14.655
80926SOL     OW44674  10.997  10.781  11.860
80926SOL    HW144675  11.076  10.833  11.846
80926SOL    HW244676  10.988  10.775  11.955
80927SOL     OW44677   3.049   4.684  14.036
80927SOL    HW144678   3.090   4.670  14.121
80927SOL    HW244679   3.001   4.766  14.046
80928SOL     OW44680   5.714  13.148  11.138
80928SOL    HW144681   5.665  13.211  11.084
80928SOL    HW244682   5.719  13.069  11.084
80929SOL     OW44683   5.114   5.195   8.529
80929SOL    HW144684   5.112   5.161   8.619
80929SOL    HW244685   5.045   5.146   8.484
80930SOL     OW44686  12.348   8.338   9.554
80930SOL    HW144687  12.322   8.379   9.636
80930SOL    HW244688  12.399   8.405   9.508
80931SOL     OW44689   3.897  13.822  10.136
80931SOL    HW144690   3.852  13.804  10.218
80931SOL    HW244691   3.985  13.786  10.149
80932SOL     OW44692   9.942   2.187  14.764
80932SOL    HW144693   9.946   2.248  14.690
80932SOL    HW244694   9.962   2.241  14.841
80933SOL     OW44695  14.398   5.717  12.630
80933SOL    HW144696  14.305   5.731  12.612
80933SOL    HW244697  14.428   5.661  12.559
80934SOL     OW44698   3.136  12.526   7.345
80934SOL    HW144699   3.161  12.618   7.356
80934SOL    HW244700   3.218  12.478   7.350
80935SOL     OW44701  13.815   8.597   1.935
80935SOL    HW144702  13.907   8.599   1.962
80935SOL    HW244703  13.816   8.561   1.847
80936SOL     OW44704   4.091   8.726   9.041
80936SOL    HW144705   4.053   8.699   8.957
80936SOL    HW244706   4.042   8.804   9.066
80937SOL     OW44707   3.638   9.016   7.641
80937SOL    HW144708   3.680   8.938   7.679
80937SOL    HW244709   3.589   9.054   7.714
80938SOL     OW44710   3.223   2.598   8.054
80938SOL    HW144711   3.274   2.590   8.135
80938SOL    HW244712   3.187   2.510   8.040
80939SOL     OW44713   6.999   7.994  11.966
80939SOL    HW144714   7.025   8.055  11.897
80939SOL    HW244715   7.078   7.944  11.986
80940SOL     OW44716   2.261   6.692  11.190
80940SOL    HW144717   2.295   6.647  11.112
80940SOL    HW244718   2.291   6.783  11.180
80941SOL     OW44719   6.054   2.419   1.465
80941SOL    HW144720   6.102   2.434   1.546
80941SOL    HW244721   6.089   2.336   1.432
80942SOL     OW44722   4.549   6.713   7.585
80942SOL    HW144723   4.560   6.786   7.645
80942SOL    HW244724   4.554   6.752   7.498
80943SOL     OW44725   6.485   0.836  13.365
80943SOL    HW144726   6.441   0.905  13.317
80943SOL    HW244727   6.427   0.816  13.438
80944SOL     OW44728  10.109   4.707   7.277
80944SOL    HW144729  10.070   4.641   7.334
80944SOL    HW244730  10.131   4.779   7.336
80945SOL     OW44731   4.883   5.767   9.905
80945SOL    HW144732   4.887   5.680   9.945
80945SOL    HW244733   4.792   5.777   9.877
80946SOL     OW44734  12.555   5.095   2.902
80946SOL    HW144735  12.625   5.033   2.922
80946SOL    HW244736  12.539   5.083   2.809
80947SOL     OW44737   9.658   2.274   3.208
80947SOL    HW144738   9.628   2.363   3.188
80947SOL    HW244739   9.588   2.217   3.176
80948SOL     OW44740   5.372   5.153   4.390
80948SOL    HW144741   5.285   5.163   4.353
80948SOL    HW244742   5.384   5.230   4.445
80949SOL     OW44743  13.311   5.081   3.060
80949SOL    HW144744  13.301   5.004   3.116
80949SOL    HW244745  13.389   5.125   3.093
80950SOL     OW44746   2.214   2.519   9.201
80950SOL    HW144747   2.291   2.547   9.251
80950SOL    HW244748   2.149   2.497   9.267
80951SOL     OW44749  11.969   2.933  12.391
80951SOL    HW144750  11.892   2.887  12.423
80951SOL    HW244751  11.969   2.919  12.296
80952SOL     OW44752  10.539   0.350   0.788
80952SOL    HW144753  10.466   0.391   0.743
80952SOL    HW244754  10.617   0.394   0.754
80953SOL     OW44755   1.406   9.951   6.754
80953SOL    HW144756   1.377   9.888   6.689
80953SOL    HW244757   1.475   9.906   6.803
80954SOL     OW44758   4.043   1.281   6.076
80954SOL    HW144759   4.119   1.265   6.132
80954SOL    HW244760   4.059   1.228   5.998
80955SOL     OW44761   2.824  12.746  10.259
80955SOL    HW144762   2.845  12.664  10.214
80955SOL    HW244763   2.820  12.811  10.189
80956SOL     OW44764  12.786  12.704  10.408
80956SOL    HW144765  12.705  12.681  10.453
80956SOL    HW244766  12.776  12.797  10.386
80957SOL     OW44767   8.577   0.702  13.786
80957SOL    HW144768   8.597   0.757  13.711
80957SOL    HW244769   8.657   0.701  13.837
80958SOL     OW44770   6.337   6.250   4.561
80958SOL    HW144771   6.380   6.230   4.644
80958SOL    HW244772   6.308   6.166   4.528
80959SOL     OW44773   9.263   7.350  14.426
80959SOL    HW144774   9.187   7.391  14.384
80959SOL    HW244775   9.235   7.260  14.443
80960SOL     OW44776   3.190   2.349  13.866
80960SOL    HW144777   3.112   2.365  13.918
80960SOL    HW244778   3.263   2.361  13.927
80961SOL     OW44779  12.571  11.605  11.287
80961SOL    HW144780  12.507  11.664  11.248
80961SOL    HW244781  12.586  11.641  11.374
80962SOL     OW44782  11.163   3.705   7.128
80962SOL    HW144783  11.133   3.762   7.056
80962SOL    HW244784  11.159   3.761   7.206
80963SOL     OW44785   2.543   4.238   7.072
80963SOL    HW144786   2.514   4.326   7.050
80963SOL    HW244787   2.483   4.210   7.141
80964SOL     OW44788   1.841   4.109   2.474
80964SOL    HW144789   1.783   4.073   2.407
80964SOL    HW244790   1.781   4.143   2.541
80965SOL     OW44791   2.385   8.239   3.970
80965SOL    HW144792   2.315   8.196   4.019
80965SOL    HW244793   2.384   8.196   3.884
80966SOL     OW44794   0.141   4.259  14.464
80966SOL    HW144795   0.202   4.190  14.440
80966SOL    HW244796   0.193   4.322  14.512
80967SOL     OW44797  13.322  13.401  12.010
80967SOL    HW144798  13.291  13.312  11.996
80967SOL    HW244799  13.417  13.396  11.999
80968SOL     OW44800   6.880   2.060   2.243
80968SOL    HW144801   6.813   2.002   2.206
80968SOL    HW244802   6.937   2.002   2.293
80969SOL     OW44803  11.307  13.843   1.767
80969SOL    HW144804  11.390  13.798   1.783
80969SOL    HW244805  11.295  13.838   1.672
80970SOL     OW44806   8.700   7.616  14.063
80970SOL    HW144807   8.691   7.579  13.976
80970SOL    HW244808   8.629   7.680  14.069
80971SOL     OW44809   0.652  10.638   7.063
80971SOL    HW144810   0.669  10.687   6.982
80971SOL    HW244811   0.725  10.578   7.070
80972SOL     OW44812   2.582   2.989   0.250
80972SOL    HW144813   2.626   2.925   0.307
80972SOL    HW244814   2.646   3.059   0.240
80973SOL     OW44815  12.677   6.562   8.226
80973SOL    HW144816  12.603   6.547   8.285
80973SOL    HW244817  12.710   6.474   8.207
80974SOL     OW44818   9.665   2.972  12.501
80974SOL    HW144819   9.653   2.909  12.431
80974SOL    HW244820   9.729   3.035  12.467
80975SOL     OW44821  14.055   8.242   4.805
80975SOL    HW144822  13.962   8.231   4.822
80975SOL    HW244823  14.094   8.247   4.893
80976SOL     OW44824   9.594   4.845  11.623
80976SOL    HW144825   9.600   4.863  11.529
80976SOL    HW244826   9.644   4.915  11.665
80977SOL     OW44827   6.363   6.930   0.180
80977SOL    HW144828   6.386   6.879   0.102
80977SOL    HW244829   6.304   6.872   0.229
80978SOL     OW44830   6.808   2.635   0.227
80978SOL    HW144831   6.847   2.679   0.152
80978SOL    HW244832   6.806   2.542   0.202
80979SOL     OW44833   9.123   4.139   0.687
80979SOL    HW144834   9.183   4.100   0.751
80979SOL    HW244835   9.125   4.233   0.707
80980SOL     OW44836  13.609   2.948  14.643
80980SOL    HW144837  13.672   3.020  14.638
80980SOL    HW244838  13.531   2.982  14.599
80981SOL     OW44839  13.194   6.542   6.688
80981SOL    HW144840  13.222   6.498   6.768
80981SOL    HW244841  13.275   6.578   6.651
80982SOL     OW44842   0.015   7.557   5.380
80982SOL    HW144843   0.047   7.626   5.322
80982SOL    HW244844  14.857   7.490   5.321
80983SOL     OW44845   4.064   2.198   9.077
80983SOL    HW144846   3.987   2.191   9.020
80983SOL    HW244847   4.133   2.231   9.019
80984SOL     OW44848   4.242   9.457  12.356
80984SOL    HW144849   4.182   9.382  12.355
80984SOL    HW244850   4.327   9.420  12.334
80985SOL     OW44851   7.204   2.448  11.422
80985SOL    HW144852   7.160   2.457  11.506
80985SOL    HW244853   7.236   2.358  11.421
80986SOL     OW44854   1.215   7.968  12.652
80986SOL    HW144855   1.139   7.924  12.615
80986SOL    HW244856   1.289   7.930  12.605
80987SOL     OW44857   6.602   3.484   3.065
80987SOL    HW144858   6.638   3.508   2.980
80987SOL    HW244859   6.508   3.481   3.051
80988SOL     OW44860   9.914  11.495  12.568
80988SOL    HW144861   9.887  11.428  12.505
80988SOL    HW244862   9.832  11.538  12.595
80989SOL     OW44863   3.707   9.574   5.751
80989SOL    HW144864   3.735   9.484   5.767
80989SOL    HW244865   3.639   9.566   5.683
80990SOL     OW44866   1.528   1.814   2.488
80990SOL    HW144867   1.619   1.792   2.508
80990SOL    HW244868   1.496   1.858   2.567
80991SOL     OW44869   7.265   0.207   1.156
80991SOL    HW144870   7.300   0.140   1.214
80991SOL    HW244871   7.194   0.248   1.206
80992SOL     OW44872   5.381   9.636   7.302
80992SOL    HW144873   5.390   9.679   7.217
80992SOL    HW244874   5.407   9.703   7.366
80993SOL     OW44875   2.027  11.128  10.549
80993SOL    HW144876   2.084  11.052  10.558
80993SOL    HW244877   2.060  11.174  10.471
80994SOL     OW44878  10.429   1.225  11.368
80994SOL    HW144879  10.378   1.303  11.389
80994SOL    HW244880  10.419   1.168  11.444
80995SOL     OW44881  10.937  10.050   9.927
80995SOL    HW144882  10.906  10.051   9.836
80995SOL    HW244883  10.936   9.958   9.952
80996SOL     OW44884   2.753   8.475  12.234
80996SOL    HW144885   2.790   8.464  12.147
80996SOL    HW244886   2.661   8.448  12.226
80997SOL     OW44887  11.275   6.915   8.989
80997SOL    HW144888  11.255   7.006   8.968
80997SOL    HW244889  11.269   6.869   8.905
80998SOL     OW44890   3.019  10.329   2.805
80998SOL    HW144891   3.030  10.419   2.774
80998SOL    HW244892   3.069  10.276   2.742
80999SOL     OW44893   6.517   7.847   2.172
80999SOL    HW144894   6.545   7.762   2.207
80999SOL    HW244895   6.473   7.889   2.245
81000SOL     OW44896   7.232  11.669   2.931
81000SOL    HW144897   7.231  11.738   2.865
81000SOL    HW244898   7.202  11.711   3.011
81001SOL     OW44899  10.840   6.401   6.729
81001SOL    HW144900  10.763   6.346   6.714
81001SOL    HW244901  10.842   6.414   6.824
81002SOL     OW44902   0.264  11.873   6.987
81002SOL    HW144903   0.243  11.780   6.980
81002SOL    HW244904   0.183  11.914   7.015
81003SOL     OW44905   1.226  12.549  13.207
81003SOL    HW144906   1.248  12.501  13.287
81003SOL    HW244907   1.236  12.641  13.232
81004SOL     OW44908  11.775   5.409   6.860
81004SOL    HW144909  11.816   5.479   6.809
81004SOL    HW244910  11.793   5.330   6.809
81005SOL     OW44911  12.613   3.979   9.628
81005SOL    HW144912  12.587   3.895   9.666
81005SOL    HW244913  12.650   3.956   9.543
81006SOL     OW44914   6.631   8.085  13.706
81006SOL    HW144915   6.715   8.060  13.668
81006SOL    HW244916   6.567   8.034  13.657
81007SOL     OW44917  13.006  14.469   2.167
81007SOL    HW144918  12.939  14.445   2.230
81007SOL    HW244919  13.058  14.389   2.155
81008SOL     OW44920  11.374   8.241   1.122
81008SOL    HW144921  11.345   8.278   1.039
81008SOL    HW244922  11.451   8.294   1.146
81009SOL     OW44923   1.141   7.731   4.059
81009SOL    HW144924   1.048   7.741   4.077
81009SOL    HW244925   1.170   7.818   4.031
81010SOL     OW44926  14.691   2.498   1.054
81010SOL    HW144927  14.697   2.563   0.984
81010SOL    HW244928  14.695   2.413   1.009
81011SOL     OW44929   1.191  12.737   0.477
81011SOL    HW144930   1.168  12.743   0.570
81011SOL    HW244931   1.203  12.828   0.449
81012SOL     OW44932   7.912   6.398   4.832
81012SOL    HW144933   7.868   6.477   4.860
81012SOL    HW244934   7.956   6.365   4.911
81013SOL     OW44935  14.346   8.260   7.109
81013SOL    HW144936  14.425   8.209   7.127
81013SOL    HW244937  14.290   8.200   7.059
81014SOL     OW44938   6.580  12.204   2.291
81014SOL    HW144939   6.630  12.131   2.328
81014SOL    HW244940   6.550  12.254   2.367
81015SOL     OW44941   5.211   6.053   2.573
81015SOL    HW144942   5.277   6.076   2.506
81015SOL    HW244943   5.251   6.080   2.656
81016SOL     OW44944  13.761   1.551   2.480
81016SOL    HW144945  13.817   1.499   2.537
81016SOL    HW244946  13.674   1.544   2.519
81017SOL     OW44947   5.817   0.822   1.848
81017SOL    HW144948   5.869   0.854   1.774
81017SOL    HW244949   5.773   0.900   1.882
81018SOL     OW44950   3.737  11.284   3.216
81018SOL    HW144951   3.653  11.280   3.169
81018SOL    HW244952   3.722  11.236   3.297
81019SOL     OW44953  13.571  14.317  13.760
81019SOL    HW144954  13.575  14.314  13.665
81019SOL    HW244955  13.660  14.296  13.789
81020SOL     OW44956  14.833   0.815  10.532
81020SOL    HW144957  14.857   0.886  10.591
81020SOL    HW244958  14.782   0.857  10.462
81021SOL     OW44959   8.108   8.523   8.929
81021SOL    HW144960   8.075   8.461   8.994
81021SOL    HW244961   8.051   8.599   8.938
81022SOL     OW44962  10.368   8.531   7.035
81022SOL    HW144963  10.309   8.466   7.074
81022SOL    HW244964  10.310   8.600   7.003
81023SOL     OW44965   1.521   1.415  12.636
81023SOL    HW144966   1.544   1.370  12.717
81023SOL    HW244967   1.451   1.361  12.598
81024SOL     OW44968   9.117  10.813  14.272
81024SOL    HW144969   9.152  10.726  14.252
81024SOL    HW244970   9.023  10.799  14.282
81025SOL     OW44971   5.813   8.910   4.793
81025SOL    HW144972   5.908   8.921   4.803
81025SOL    HW244973   5.776   8.945   4.874
81026SOL     OW44974  12.561   0.487   4.995
81026SOL    HW144975  12.620   0.560   4.973
81026SOL    HW244976  12.508   0.520   5.067
81027SOL     OW44977   9.187  11.129   4.055
81027SOL    HW144978   9.226  11.060   4.002
81027SOL    HW244979   9.203  11.102   4.146
81028SOL     OW44980   1.762  12.730   1.163
81028SOL    HW144981   1.701  12.700   1.231
81028SOL    HW244982   1.847  12.730   1.207
81029SOL     OW44983  12.080  10.821  13.481
81029SOL    HW144984  12.069  10.732  13.449
81029SOL    HW244985  12.102  10.810  13.574
81030SOL     OW44986   8.239   2.185  10.128
81030SOL    HW144987   8.333   2.202  10.124
81030SOL    HW244988   8.230   2.092  10.109
81031SOL     OW44989  13.839  13.839   5.028
81031SOL    HW144990  13.882  13.809   4.948
81031SOL    HW244991  13.746  13.847   5.004
81032SOL     OW44992   6.789   4.096   1.669
81032SOL    HW144993   6.711   4.071   1.619
81032SOL    HW244994   6.844   4.018   1.669
81033SOL     OW44995   7.839   2.170   1.684
81033SOL    HW144996   7.790   2.240   1.642
81033SOL    HW244997   7.871   2.208   1.766
81034SOL     OW44998  13.276  10.905   0.877
81034SOL    HW144999  13.229  10.860   0.807
81034SOL    HW245000  13.239  10.871   0.958
81035SOL     OW45001  13.873   8.414   1.693
81035SOL    HW145002  13.896   8.332   1.649
81035SOL    HW245003  13.777   8.410   1.700
81036SOL     OW45004   4.443   2.186  10.609
81036SOL    HW145005   4.393   2.245  10.552
81036SOL    HW245006   4.509   2.243  10.650
81037SOL     OW45007   1.263  11.363   0.899
81037SOL    HW145008   1.299  11.444   0.862
81037SOL    HW245009   1.320  11.344   0.974
81038SOL     OW45010  12.321   0.254   9.801
81038SOL    HW145011  12.258   0.242   9.730
81038SOL    HW245012  12.376   0.176   9.798
81039SOL     OW45013   1.811   3.596   1.293
81039SOL    HW145014   1.819   3.683   1.333
81039SOL    HW245015   1.717   3.581   1.287
81040SOL     OW45016   0.013   8.692   8.037
81040SOL    HW145017  14.816   8.635   8.011
81040SOL    HW245018   0.047   8.726   7.954
81041SOL     OW45019  10.775   9.744  12.730
81041SOL    HW145020  10.705   9.679  12.731
81041SOL    HW245021  10.779   9.778  12.819
81042SOL     OW45022   0.345   3.916   2.088
81042SOL    HW145023   0.266   3.874   2.121
81042SOL    HW245024   0.410   3.903   2.157
81043SOL     OW45025   6.950   8.247   3.658
81043SOL    HW145026   7.022   8.189   3.635
81043SOL    HW245027   6.950   8.249   3.754
81044SOL     OW45028  14.752   7.392  10.442
81044SOL    HW145029  14.742   7.298  10.427
81044SOL    HW245030  14.806   7.399  10.521
81045SOL     OW45031   7.134   2.459   6.208
81045SOL    HW145032   7.050   2.442   6.167
81045SOL    HW245033   7.152   2.552   6.190
81046SOL     OW45034  13.105  14.318   2.883
81046SOL    HW145035  13.090  14.361   2.967
81046SOL    HW245036  13.170  14.250   2.902
81047SOL     OW45037  12.115   5.230   6.880
81047SOL    HW145038  12.153   5.143   6.890
81047SOL    HW245039  12.120   5.268   6.968
81048SOL     OW45040   1.236  12.132   7.398
81048SOL    HW145041   1.152  12.090   7.381
81048SOL    HW245042   1.256  12.180   7.318
81049SOL     OW45043  13.253   3.570   5.709
81049SOL    HW145044  13.301   3.552   5.790
81049SOL    HW245045  13.161   3.553   5.732
81050SOL     OW45046   2.784   7.399   9.878
81050SOL    HW145047   2.694   7.423   9.899
81050SOL    HW245048   2.801   7.323   9.934
81051SOL     OW45049   7.774  14.479   1.786
81051SOL    HW145050   7.765  14.416   1.858
81051SOL    HW245051   7.806  14.558   1.829
81052SOL     OW45052  11.068   7.820   0.347
81052SOL    HW145053  11.163   7.823   0.331
81052SOL    HW245054  11.059   7.840   0.440
81053SOL     OW45055   6.810   8.863   0.699
81053SOL    HW145056   6.838   8.878   0.789
81053SOL    HW245057   6.716   8.882   0.699
81054SOL     OW45058   6.764   8.625   8.025
81054SOL    HW145059   6.769   8.546   7.972
81054SOL    HW245060   6.689   8.673   7.989
81055SOL     OW45061   8.050  13.459   2.247
81055SOL    HW145062   8.032  13.549   2.272
81055SOL    HW245063   8.098  13.422   2.321
81056SOL     OW45064  14.824   2.407  12.360
81056SOL    HW145065  14.797   2.324  12.399
81056SOL    HW245066  14.843   2.464  12.434
81057SOL     OW45067  12.248   3.368  13.054
81057SOL    HW145068  12.219   3.277  13.068
81057SOL    HW245069  12.209   3.393  12.970
81058SOL     OW45070   8.239   2.254  12.667
81058SOL    HW145071   8.302   2.275  12.736
81058SOL    HW245072   8.207   2.167  12.691
81059SOL     OW45073   0.039  12.646  12.024
81059SOL    HW145074   0.039  12.731  11.979
81059SOL    HW245075   0.045  12.668  12.117
81060SOL     OW45076   2.433   0.601   6.922
81060SOL    HW145077   2.523   0.588   6.950
81060SOL    HW245078   2.413   0.525   6.867
81061SOL     OW45079  12.757  14.528   1.799
81061SOL    HW145080  12.668  14.564   1.803
81061SOL    HW245081  12.808  14.586   1.856
81062SOL     OW45082   4.474   9.451   0.297
81062SOL    HW145083   4.466   9.494   0.382
81062SOL    HW245084   4.388   9.461   0.256
81063SOL     OW45085  13.289  14.866   3.711
81063SOL    HW145086  13.349   0.064   3.726
81063SOL    HW245087  13.254   0.006   3.623
81064SOL     OW45088  10.329  13.124   6.515
81064SOL    HW145089  10.365  13.096   6.431
81064SOL    HW245090  10.259  13.186   6.491
81065SOL     OW45091   6.320  12.240   3.492
81065SOL    HW145092   6.255  12.176   3.465
81065SOL    HW245093   6.283  12.281   3.570
81066SOL     OW45094  13.757   7.525   6.207
81066SOL    HW145095  13.779   7.510   6.299
81066SOL    HW245096  13.662   7.540   6.207
81067SOL     OW45097  11.263   4.372  12.207
81067SOL    HW145098  11.342   4.421  12.184
81067SOL    HW245099  11.193   4.415  12.158
81068SOL     OW45100   6.237   6.481   9.263
81068SOL    HW145101   6.300   6.427   9.216
81068SOL    HW245102   6.238   6.565   9.218
81069SOL     OW45103  10.979   7.158  11.086
81069SOL    HW145104  10.964   7.063  11.082
81069SOL    HW245105  11.001   7.182  10.996
81070SOL     OW45106   6.725   2.515  12.335
81070SOL    HW145107   6.697   2.515  12.244
81070SOL    HW245108   6.667   2.452  12.378
81071SOL     OW45109  13.959  13.156   6.843
81071SOL    HW145110  13.940  13.115   6.759
81071SOL    HW245111  13.931  13.092   6.908
81072SOL     OW45112   5.590   0.645  14.707
81072SOL    HW145113   5.520   0.598  14.751
81072SOL    HW245114   5.586   0.614  14.616
81073SOL     OW45115  10.232   7.835   5.137
81073SOL    HW145116  10.247   7.767   5.202
81073SOL    HW245117  10.318   7.855   5.101
81074SOL     OW45118   1.158   4.985   2.736
81074SOL    HW145119   1.182   5.066   2.691
81074SOL    HW245120   1.240   4.936   2.742
81075SOL     OW45121   6.356   2.821  10.172
81075SOL    HW145122   6.279   2.803  10.118
81075SOL    HW245123   6.322   2.872  10.246
81076SOL     OW45124   6.970   8.761   7.566
81076SOL    HW145125   7.026   8.811   7.626
81076SOL    HW245126   6.984   8.669   7.591
81077SOL     OW45127  13.793  11.696  12.971
81077SOL    HW145128  13.737  11.639  12.918
81077SOL    HW245129  13.858  11.637  13.010
81078SOL     OW45130   0.808  14.682   2.306
81078SOL    HW145131   0.724  14.647   2.275
81078SOL    HW245132   0.788  14.770   2.336
81079SOL     OW45133  12.157   3.357   8.060
81079SOL    HW145134  12.249   3.330   8.070
81079SOL    HW245135  12.154   3.446   8.095
81080SOL     OW45136   7.449   1.480   0.757
81080SOL    HW145137   7.507   1.439   0.821
81080SOL    HW245138   7.416   1.559   0.802
81081SOL     OW45139   0.509   9.741  12.447
81081SOL    HW145140   0.446   9.812  12.434
81081SOL    HW245141   0.585   9.766  12.395
81082SOL     OW45142   3.018   3.951  14.457
81082SOL    HW145143   3.004   3.923  14.367
81082SOL    HW245144   2.998   4.045  14.457
81083SOL     OW45145   2.741   1.778   1.031
81083SOL    HW145146   2.687   1.851   1.063
81083SOL    HW245147   2.727   1.708   1.095
81084SOL     OW45148   0.285  14.205  12.295
81084SOL    HW145149   0.356  14.189  12.356
81084SOL    HW245150   0.228  14.268  12.340
81085SOL     OW45151   8.765  13.656  11.776
81085SOL    HW145152   8.795  13.609  11.698
81085SOL    HW245153   8.823  13.732  11.783
81086SOL     OW45154  14.390   7.098   5.853
81086SOL    HW145155  14.305   7.122   5.890
81086SOL    HW245156  14.412   7.015   5.897
81087SOL     OW45157   6.424   8.265   3.436
81087SOL    HW145158   6.461   8.193   3.487
81087SOL    HW245159   6.329   8.250   3.438
81088SOL     OW45160   1.608   9.578  13.835
81088SOL    HW145161   1.577   9.668  13.830
81088SOL    HW245162   1.531   9.526  13.858
81089SOL     OW45163   5.983   6.624   1.081
81089SOL    HW145164   6.028   6.655   1.002
81089SOL    HW245165   5.899   6.670   1.081
81090SOL     OW45166   8.327   4.128   0.319
81090SOL    HW145167   8.345   4.151   0.228
81090SOL    HW245168   8.280   4.044   0.315
81091SOL     OW45169   7.342   3.050   4.418
81091SOL    HW145170   7.255   3.086   4.398
81091SOL    HW245171   7.333   2.956   4.404
81092SOL     OW45172   6.765   7.264   5.452
81092SOL    HW145173   6.778   7.297   5.363
81092SOL    HW245174   6.684   7.213   5.447
81093SOL     OW45175  11.622   1.230  12.112
81093SOL    HW145176  11.638   1.232  12.018
81093SOL    HW245177  11.529   1.207  12.120
81094SOL     OW45178   9.424   3.161  12.803
81094SOL    HW145179   9.457   3.209  12.727
81094SOL    HW245180   9.431   3.069  12.778
81095SOL     OW45181   1.774   6.506   4.260
81095SOL    HW145182   1.768   6.418   4.297
81095SOL    HW245183   1.716   6.504   4.184
81096SOL     OW45184   8.443   6.222  14.023
81096SOL    HW145185   8.467   6.234  13.931
81096SOL    HW245186   8.526   6.207  14.068
81097SOL     OW45187   7.860  11.257   6.010
81097SOL    HW145188   7.835  11.319   6.078
81097SOL    HW245189   7.825  11.295   5.929
81098SOL     OW45190  10.310  13.047   2.360
81098SOL    HW145191  10.382  13.103   2.389
81098SOL    HW245192  10.233  13.105   2.360
81099SOL     OW45193   9.597   1.458   4.981
81099SOL    HW145194   9.665   1.489   5.041
81099SOL    HW245195   9.635   1.380   4.941
81100SOL     OW45196  12.712   1.997  13.339
81100SOL    HW145197  12.713   1.942  13.418
81100SOL    HW245198  12.805   2.012  13.319
81101SOL     OW45199  11.291   6.446   6.679
81101SOL    HW145200  11.328   6.364   6.712
81101SOL    HW245201  11.280   6.501   6.757
81102SOL     OW45202   2.978   3.213   6.053
81102SOL    HW145203   2.928   3.253   6.125
81102SOL    HW245204   2.963   3.119   6.064
81103SOL     OW45205  10.159   8.480  11.422
81103SOL    HW145206  10.239   8.458  11.376
81103SOL    HW245207  10.132   8.564  11.385
81104SOL     OW45208   3.674  13.394   5.501
81104SOL    HW145209   3.591  13.437   5.478
81104SOL    HW245210   3.700  13.347   5.422
81105SOL     OW45211   7.605   0.408   8.167
81105SOL    HW145212   7.665   0.414   8.093
81105SOL    HW245213   7.524   0.375   8.130
81106SOL     OW45214   3.685   6.711  13.421
81106SOL    HW145215   3.597   6.747  13.412
81106SOL    HW245216   3.682   6.628  13.373
81107SOL     OW45217   5.441   1.455   0.569
81107SOL    HW145218   5.436   1.362   0.592
81107SOL    HW245219   5.359   1.473   0.524
81108SOL     OW45220   3.855   8.714   4.231
81108SOL    HW145221   3.800   8.776   4.184
81108SOL    HW245222   3.899   8.767   4.297
81109SOL     OW45223  11.035   7.658   3.590
81109SOL    HW145224  11.085   7.589   3.547
81109SOL    HW245225  11.038   7.635   3.683
81110SOL     OW45226  12.559  14.842   9.034
81110SOL    HW145227  12.535  14.755   9.001
81110SOL    HW245228  12.535   0.026   8.963
81111SOL     OW45229   8.608   8.014   4.358
81111SOL    HW145230   8.640   8.100   4.330
81111SOL    HW245231   8.618   8.015   4.454
81112SOL     OW45232   2.659   9.728   9.785
81112SOL    HW145233   2.646   9.678   9.865
81112SOL    HW245234   2.600   9.687   9.721
81113SOL     OW45235   2.792   9.377   7.470
81113SOL    HW145236   2.765   9.291   7.502
81113SOL    HW245237   2.880   9.362   7.435
81114SOL     OW45238  13.703   8.647   0.248
81114SOL    HW145239  13.723   8.705   0.321
81114SOL    HW245240  13.743   8.688   0.172
81115SOL     OW45241   2.294  14.041   3.309
81115SOL    HW145242   2.326  14.041   3.218
81115SOL    HW245243   2.332  14.120   3.347
81116SOL     OW45244  11.319   7.897  10.178
81116SOL    HW145245  11.377   7.832  10.218
81116SOL    HW245246  11.304   7.865  10.090
81117SOL     OW45247  13.002   0.664   2.504
81117SOL    HW145248  13.033   0.660   2.595
81117SOL    HW245249  13.048   0.594   2.459
81118SOL     OW45250   3.976   3.745   2.523
81118SOL    HW145251   4.063   3.751   2.564
81118SOL    HW245252   3.986   3.679   2.455
81119SOL     OW45253   8.754   8.360   2.738
81119SOL    HW145254   8.814   8.415   2.788
81119SOL    HW245255   8.702   8.423   2.687
81120SOL     OW45256  10.219  13.199  13.626
81120SOL    HW145257  10.278  13.174  13.697
81120SOL    HW245258  10.276  13.207  13.549
81121SOL     OW45259  11.314  12.559  12.412
81121SOL    HW145260  11.352  12.647  12.416
81121SOL    HW245261  11.229  12.567  12.455
81122SOL     OW45262   8.341   1.751  11.900
81122SOL    HW145263   8.312   1.811  11.968
81122SOL    HW245264   8.434   1.767  11.891
81123SOL     OW45265   5.220  13.759   5.657
81123SOL    HW145266   5.128  13.767   5.684
81123SOL    HW245267   5.254  13.848   5.663
81124SOL     OW45268  13.673  11.101   7.946
81124SOL    HW145269  13.580  11.079   7.935
81124SOL    HW245270  13.694  11.072   8.035
81125SOL     OW45271   6.907   6.727   9.006
81125SOL    HW145272   6.986   6.780   8.994
81125SOL    HW245273   6.915   6.693   9.096
81126SOL     OW45274   3.950   4.593   7.703
81126SOL    HW145275   3.967   4.591   7.797
81126SOL    HW245276   4.037   4.607   7.664
81127SOL     OW45277  10.699   6.837   8.266
81127SOL    HW145278  10.710   6.765   8.327
81127SOL    HW245279  10.628   6.890   8.303
81128SOL     OW45280  10.112  10.611  10.430
81128SOL    HW145281  10.101  10.579  10.520
81128SOL    HW245282  10.197  10.576  10.403
81129SOL     OW45283   4.220   8.857  13.772
81129SOL    HW145284   4.125   8.844  13.770
81129SOL    HW245285   4.251   8.825  13.688
81130SOL     OW45286  11.294   3.751   0.706
81130SOL    HW145287  11.385   3.724   0.720
81130SOL    HW245288  11.299   3.843   0.683
81131SOL     OW45289   9.515   1.177   6.874
81131SOL    HW145290   9.451   1.109   6.896
81131SOL    HW245291   9.577   1.132   6.816
81132SOL     OW45292   9.977   3.592  14.766
81132SOL    HW145293   9.981   3.635  14.852
81132SOL    HW245294   9.899   3.536  14.772
81133SOL     OW45295   6.367   4.981   2.589
81133SOL    HW145296   6.399   5.005   2.676
81133SOL    HW245297   6.282   5.024   2.583
81134SOL     OW45298   0.715   4.339  11.808
81134SOL    HW145299   0.655   4.384  11.867
81134SOL    HW245300   0.699   4.379  11.722
81135SOL     OW45301   9.862   9.971   2.528
81135SOL    HW145302   9.775   9.965   2.489
81135SOL    HW245303   9.896   9.881   2.525
81136SOL     OW45304  10.780   4.965  11.156
81136SOL    HW145305  10.869   4.930  11.151
81136SOL    HW245306  10.726   4.898  11.116
81137SOL     OW45307   2.249   9.978   8.055
81137SOL    HW145308   2.232   9.885   8.038
81137SOL    HW245309   2.325   9.978   8.113
81138SOL     OW45310  11.871   2.026   8.443
81138SOL    HW145311  11.861   1.957   8.508
81138SOL    HW245312  11.791   2.022   8.391
81139SOL     OW45313   6.302  14.872   9.273
81139SOL    HW145314   6.241  14.866   9.199
81139SOL    HW245315   6.371   0.055   9.242
81140SOL     OW45316   1.795  14.695  10.692
81140SOL    HW145317   1.806  14.667  10.601
81140SOL    HW245318   1.758  14.619  10.736
81141SOL     OW45319  13.030  13.346  13.038
81141SOL    HW145320  13.100  13.284  13.057
81141SOL    HW245321  13.011  13.334  12.945
81142SOL     OW45322   7.293  11.418   2.930
81142SOL    HW145323   7.262  11.508   2.937
81142SOL    HW245324   7.213  11.365   2.935
81143SOL     OW45325   9.634   9.004   8.235
81143SOL    HW145326   9.674   8.920   8.260
81143SOL    HW245327   9.647   9.060   8.312
81144SOL     OW45328   6.073  10.965   3.770
81144SOL    HW145329   6.037  10.938   3.854
81144SOL    HW245330   6.163  10.935   3.772
81145SOL     OW45331  13.441  11.161  11.809
81145SOL    HW145332  13.510  11.227  11.811
81145SOL    HW245333  13.365  11.207  11.776
81146SOL     OW45334  14.719  13.373   4.131
81146SOL    HW145335  14.780  13.438   4.166
81146SOL    HW245336  14.647  13.372   4.194
81147SOL     OW45337   7.507  11.967  10.647
81147SOL    HW145338   7.552  11.882  10.639
81147SOL    HW245339   7.417  11.944  10.672
81148SOL     OW45340  14.379  11.692  13.094
81148SOL    HW145341  14.328  11.719  13.018
81148SOL    HW245342  14.435  11.621  13.062
81149SOL     OW45343   2.188  10.438   4.510
81149SOL    HW145344   2.115  10.398   4.558
81149SOL    HW245345   2.248  10.467   4.579
81150SOL     OW45346   1.500   3.252  10.624
81150SOL    HW145347   1.426   3.195  10.649
81150SOL    HW245348   1.552   3.259  10.705
81151SOL     OW45349   9.735   4.166   8.339
81151SOL    HW145350   9.653   4.177   8.388
81151SOL    HW245351   9.712   4.103   8.270
81152SOL     OW45352   9.642   0.928   0.339
81152SOL    HW145353   9.672   1.019   0.341
81152SOL    HW245354   9.636   0.902   0.431
81153SOL     OW45355   3.709   0.723   3.095
81153SOL    HW145356   3.654   0.692   3.023
81153SOL    HW245357   3.751   0.802   3.062
81154SOL     OW45358  11.996   9.814  14.641
81154SOL    HW145359  12.034   9.892  14.602
81154SOL    HW245360  12.053   9.743  14.611
81155SOL     OW45361   1.314  10.625   4.018
81155SOL    HW145362   1.284  10.644   3.929
81155SOL    HW245363   1.346  10.708   4.052
81156SOL     OW45364   3.621   4.788   3.201
81156SOL    HW145365   3.642   4.813   3.110
81156SOL    HW245366   3.687   4.834   3.253
81157SOL     OW45367   5.037  10.543  12.901
81157SOL    HW145368   5.094  10.525  12.975
81157SOL    HW245369   5.056  10.634  12.878
81158SOL     OW45370   3.003   4.887   7.935
81158SOL    HW145371   3.030   4.796   7.919
81158SOL    HW245372   2.979   4.889   8.028
81159SOL     OW45373   0.247  14.436  11.544
81159SOL    HW145374   0.262  14.493  11.620
81159SOL    HW245375   0.321  14.455  11.486
81160SOL     OW45376   0.738   6.439  12.108
81160SOL    HW145377   0.745   6.473  12.197
81160SOL    HW245378   0.821   6.464  12.067
81161SOL     OW45379   8.541   3.801   4.387
81161SOL    HW145380   8.458   3.776   4.426
81161SOL    HW245381   8.536   3.768   4.297
81162SOL     OW45382   6.330   6.659   7.353
81162SOL    HW145383   6.271   6.631   7.283
81162SOL    HW245384   6.382   6.582   7.374
81163SOL     OW45385   3.082  10.502   9.716
81163SOL    HW145386   3.006  10.444   9.712
81163SOL    HW245387   3.154  10.448   9.682
81164SOL     OW45388  14.836   3.788  12.261
81164SOL    HW145389  14.741   3.785  12.264
81164SOL    HW245390  14.860   3.732  12.187
81165SOL     OW45391   8.576  12.705   5.373
81165SOL    HW145392   8.487  12.739   5.373
81165SOL    HW245393   8.611  12.729   5.458
81166SOL     OW45394   8.560   0.796  13.058
81166SOL    HW145395   8.625   0.867  13.061
81166SOL    HW245396   8.498   0.817  13.127
81167SOL     OW45397  14.075   4.628  12.359
81167SOL    HW145398  14.091   4.543  12.399
81167SOL    HW245399  14.027   4.608  12.278
81168SOL     OW45400   1.969  14.741   8.793
81168SOL    HW145401   1.882  14.732   8.755
81168SOL    HW245402   1.955  14.792   8.873
81169SOL     OW45403   1.116   9.383  10.741
81169SOL    HW145404   1.072   9.408  10.660
81169SOL    HW245405   1.081   9.443  10.807
81170SOL     OW45406   2.520   8.318  12.013
81170SOL    HW145407   2.451   8.373  11.975
81170SOL    HW245408   2.563   8.279  11.937
81171SOL     OW45409   0.932  11.114  13.616
81171SOL    HW145410   0.944  11.169  13.694
81171SOL    HW245411   0.910  11.028  13.650
81172SOL     OW45412   6.910  11.934  12.523
81172SOL    HW145413   6.842  11.993  12.490
81172SOL    HW245414   6.865  11.850  12.534
81173SOL     OW45415   8.430  11.103  10.391
81173SOL    HW145416   8.463  11.132  10.306
81173SOL    HW245417   8.413  11.009  10.380
81174SOL     OW45418  11.092   5.960   7.247
81174SOL    HW145419  11.037   5.904   7.192
81174SOL    HW245420  11.181   5.947   7.212
81175SOL     OW45421  13.856   4.776  12.422
81175SOL    HW145422  13.797   4.745  12.353
81175SOL    HW245423  13.934   4.721  12.414
81176SOL     OW45424   2.204  11.201  13.980
81176SOL    HW145425   2.203  11.209  13.885
81176SOL    HW245426   2.239  11.113  13.996
81177SOL     OW45427   7.324   2.838   9.297
81177SOL    HW145428   7.252   2.776   9.295
81177SOL    HW245429   7.282   2.924   9.306
81178SOL     OW45430   5.188  11.973   4.230
81178SOL    HW145431   5.148  11.888   4.210
81178SOL    HW245432   5.254  11.984   4.161
81179SOL     OW45433   1.321  12.290   4.359
81179SOL    HW145434   1.265  12.240   4.300
81179SOL    HW245435   1.323  12.378   4.322
81180SOL     OW45436  10.420   0.070   4.608
81180SOL    HW145437  10.421   0.043   4.516
81180SOL    HW245438  10.503   0.118   4.620
81181SOL     OW45439  10.174  14.387  13.582
81181SOL    HW145440  10.208  14.328  13.514
81181SOL    HW245441  10.079  14.375  13.577
81182SOL     OW45442   3.447  11.084   4.140
81182SOL    HW145443   3.533  11.044   4.154
81182SOL    HW245444   3.453  11.170   4.182
81183SOL     OW45445  11.570   5.050   9.069
81183SOL    HW145446  11.636   5.117   9.050
81183SOL    HW245447  11.542   5.069   9.158
81184SOL     OW45448   3.235   7.468   2.666
81184SOL    HW145449   3.217   7.396   2.606
81184SOL    HW245450   3.311   7.439   2.716
81185SOL     OW45451   8.517   2.021   9.450
81185SOL    HW145452   8.551   1.962   9.518
81185SOL    HW245453   8.439   1.977   9.417
81186SOL     OW45454  13.724   0.126  13.571
81186SOL    HW145455  13.652   0.130  13.508
81186SOL    HW245456  13.728   0.214  13.608
81187SOL     OW45457  10.651  11.477   9.587
81187SOL    HW145458  10.616  11.479   9.676
81187SOL    HW245459  10.582  11.516   9.533
81188SOL     OW45460   2.320   4.280   9.005
81188SOL    HW145461   2.274   4.348   8.956
81188SOL    HW245462   2.320   4.311   9.096
81189SOL     OW45463  13.450  10.463  14.582
81189SOL    HW145464  13.521  10.487  14.643
81189SOL    HW245465  13.485  10.483  14.496
81190SOL     OW45466   0.690   4.183   2.867
81190SOL    HW145467   0.676   4.130   2.946
81190SOL    HW245468   0.615   4.162   2.811
81191SOL     OW45469   8.690   7.741   8.745
81191SOL    HW145470   8.709   7.826   8.786
81191SOL    HW245471   8.668   7.763   8.654
81192SOL     OW45472   2.662   0.624   1.498
81192SOL    HW145473   2.628   0.618   1.408
81192SOL    HW245474   2.603   0.568   1.549
81193SOL     OW45475   1.095   6.452  11.215
81193SOL    HW145476   1.052   6.456  11.129
81193SOL    HW245477   1.053   6.521  11.266
81194SOL     OW45478   9.912   2.742   9.052
81194SOL    HW145479   9.984   2.688   9.085
81194SOL    HW245480   9.953   2.798   8.986
81195SOL     OW45481   3.153  11.374  13.059
81195SOL    HW145482   3.214  11.372  13.132
81195SOL    HW245483   3.098  11.450  13.075
81196SOL     OW45484   0.321   3.491  11.649
81196SOL    HW145485   0.356   3.563  11.702
81196SOL    HW245486   0.227   3.509  11.643
81197SOL     OW45487   2.968   2.270   5.633
81197SOL    HW145488   2.912   2.322   5.691
81197SOL    HW245489   2.973   2.184   5.675
81198SOL     OW45490   2.972  13.634  11.151
81198SOL    HW145491   2.982  13.556  11.096
81198SOL    HW245492   2.887  13.670  11.125
81199SOL     OW45493   6.189  12.439   8.444
81199SOL    HW145494   6.252  12.449   8.516
81199SOL    HW245495   6.175  12.345   8.437
81200SOL     OW45496   4.742   5.779  11.645
81200SOL    HW145497   4.668   5.840  11.649
81200SOL    HW245498   4.773   5.774  11.736
81201SOL     OW45499   4.480   8.353   0.531
81201SOL    HW145500   4.557   8.365   0.587
81201SOL    HW245501   4.406   8.348   0.592
81202SOL     OW45502  12.067   2.255   6.337
81202SOL    HW145503  12.000   2.318   6.312
81202SOL    HW245504  12.121   2.245   6.258
81203SOL     OW45505  11.535   4.937  14.736
81203SOL    HW145506  11.477   4.920  14.661
81203SOL    HW245507  11.519   4.865  14.796
81204SOL     OW45508  12.733   3.942   5.404
81204SOL    HW145509  12.713   3.913   5.315
81204SOL    HW245510  12.784   3.870   5.442
81205SOL     OW45511   5.294   7.185  11.051
81205SOL    HW145512   5.286   7.278  11.075
81205SOL    HW245513   5.221   7.142  11.098
81206SOL     OW45514   8.720  10.207   2.622
81206SOL    HW145515   8.667  10.184   2.699
81206SOL    HW245516   8.697  10.298   2.603
81207SOL     OW45517   0.751   4.528   4.942
81207SOL    HW145518   0.694   4.452   4.952
81207SOL    HW245519   0.700   4.601   4.977
81208SOL     OW45520   8.675  12.285   5.973
81208SOL    HW145521   8.677  12.259   6.065
81208SOL    HW245522   8.669  12.381   5.975
81209SOL     OW45523  13.619  11.109  14.723
81209SOL    HW145524  13.656  11.136  14.639
81209SOL    HW245525  13.695  11.085  14.776
81210SOL     OW45526  10.883   3.515   8.859
81210SOL    HW145527  10.878   3.529   8.764
81210SOL    HW245528  10.860   3.423   8.871
81211SOL     OW45529   0.151  10.539  11.117
81211SOL    HW145530   0.212  10.553  11.044
81211SOL    HW245531   0.208  10.522  11.192
81212SOL     OW45532   6.514  14.160   8.575
81212SOL    HW145533   6.557  14.139   8.658
81212SOL    HW245534   6.521  14.256   8.568
81213SOL     OW45535   7.117   9.590   3.848
81213SOL    HW145536   7.098   9.679   3.818
81213SOL    HW245537   7.179   9.602   3.920
81214SOL     OW45538   8.673  14.745   3.805
81214SOL    HW145539   8.716  14.789   3.878
81214SOL    HW245540   8.586  14.784   3.801
81215SOL     OW45541   6.833  11.431  13.111
81215SOL    HW145542   6.883  11.439  13.192
81215SOL    HW245543   6.897  11.405  13.045
81216SOL     OW45544   7.446   2.024  13.123
81216SOL    HW145545   7.505   2.085  13.079
81216SOL    HW245546   7.481   1.937  13.102
81217SOL     OW45547  11.754  13.626   0.853
81217SOL    HW145548  11.814  13.605   0.925
81217SOL    HW245549  11.798  13.697   0.806
81218SOL     OW45550  12.020   9.088   2.034
81218SOL    HW145551  12.065   9.157   1.984
81218SOL    HW245552  12.082   9.065   2.104
81219SOL     OW45553   6.329   2.637  11.813
81219SOL    HW145554   6.346   2.649  11.906
81219SOL    HW245555   6.361   2.717  11.771
81220SOL     OW45556   3.957   7.861   0.730
81220SOL    HW145557   3.907   7.932   0.770
81220SOL    HW245558   4.020   7.834   0.797
81221SOL     OW45559  12.721  12.020  14.123
81221SOL    HW145560  12.650  11.966  14.158
81221SOL    HW245561  12.775  11.959  14.074
81222SOL     OW45562  13.875   7.921   3.460
81222SOL    HW145563  13.945   7.866   3.427
81222SOL    HW245564  13.837   7.871   3.532
81223SOL     OW45565   4.120  14.129   5.046
81223SOL    HW145566   4.051  14.189   5.018
81223SOL    HW245567   4.163  14.174   5.119
81224SOL     OW45568   1.839   8.055  11.077
81224SOL    HW145569   1.925   8.042  11.119
81224SOL    HW245570   1.778   8.009  11.135
81225SOL     OW45571   3.160   7.788   6.096
81225SOL    HW145572   3.256   7.791   6.107
81225SOL    HW245573   3.129   7.747   6.177
81226SOL     OW45574  10.072   9.988   9.956
81226SOL    HW145575  10.125  10.044  10.013
81226SOL    HW245576  10.075   9.902   9.997
81227SOL     OW45577   2.125  10.823   6.118
81227SOL    HW145578   2.119  10.733   6.086
81227SOL    HW245579   2.142  10.875   6.040
81228SOL     OW45580   2.065   3.586   6.436
81228SOL    HW145581   1.997   3.628   6.489
81228SOL    HW245582   2.017   3.524   6.381
81229SOL     OW45583  12.465   2.990  12.860
81229SOL    HW145584  12.424   3.043  12.927
81229SOL    HW245585  12.542   3.040  12.833
81230SOL     OW45586   2.016  13.380   2.634
81230SOL    HW145587   2.107  13.375   2.607
81230SOL    HW245588   1.968  13.397   2.553
81231SOL     OW45589   8.500   6.674   1.272
81231SOL    HW145590   8.546   6.600   1.233
81231SOL    HW245591   8.546   6.751   1.238
81232SOL     OW45592   2.993  12.442  10.405
81232SOL    HW145593   3.041  12.374  10.357
81232SOL    HW245594   2.903  12.409  10.410
81233SOL     OW45595   3.240   0.607   4.703
81233SOL    HW145596   3.156   0.576   4.737
81233SOL    HW245597   3.305   0.554   4.750
81234SOL     OW45598   4.165  10.359   6.478
81234SOL    HW145599   4.144  10.265   6.484
81234SOL    HW245600   4.161  10.389   6.569
81235SOL     OW45601   6.353   3.895  14.822
81235SOL    HW145602   6.411   3.969  14.838
81235SOL    HW245603   6.362   3.841   0.026
81236SOL     OW45604   3.456   2.517   5.590
81236SOL    HW145605   3.473   2.426   5.614
81236SOL    HW245606   3.365   2.532   5.617
81237SOL     OW45607  11.866   7.865   0.577
81237SOL    HW145608  11.881   7.811   0.499
81237SOL    HW245609  11.807   7.934   0.547
81238SOL     OW45610  12.999   0.163   2.220
81238SOL    HW145611  13.075   0.212   2.188
81238SOL    HW245612  12.986   0.093   2.155
81239SOL     OW45613   5.711   2.765   5.887
81239SOL    HW145614   5.750   2.758   5.800
81239SOL    HW245615   5.628   2.717   5.880
81240SOL     OW45616   4.567   5.905   5.194
81240SOL    HW145617   4.480   5.894   5.231
81240SOL    HW245618   4.621   5.841   5.240
81241SOL     OW45619  11.957   7.575  12.200
81241SOL    HW145620  11.881   7.588  12.144
81241SOL    HW245621  11.921   7.571  12.288
81242SOL     OW45622   1.051   7.424   5.449
81242SOL    HW145623   1.008   7.363   5.390
81242SOL    HW245624   0.991   7.498   5.457
81243SOL     OW45625  10.545   9.060  12.216
81243SOL    HW145626  10.549   8.977  12.264
81243SOL    HW245627  10.626   9.061  12.164
81244SOL     OW45628   6.720  11.244   9.378
81244SOL    HW145629   6.686  11.334   9.381
81244SOL    HW245630   6.788  11.242   9.446
81245SOL     OW45631   2.980   7.579   0.043
81245SOL    HW145632   2.888   7.555   0.026
81245SOL    HW245633   3.027   7.496   0.040
81246SOL     OW45634   9.385  10.878  11.806
81246SOL    HW145635   9.352  10.857  11.893
81246SOL    HW245636   9.473  10.914  11.822
81247SOL     OW45637  14.514   5.880  10.216
81247SOL    HW145638  14.457   5.944  10.174
81247SOL    HW245639  14.455   5.825  10.267
81248SOL     OW45640  14.578   5.271   3.391
81248SOL    HW145641  14.537   5.313   3.467
81248SOL    HW245642  14.647   5.333   3.365
81249SOL     OW45643  11.925   7.875   6.326
81249SOL    HW145644  12.016   7.903   6.321
81249SOL    HW245645  11.920   7.799   6.268
81250SOL     OW45646   7.199   9.555   6.608
81250SOL    HW145647   7.211   9.506   6.690
81250SOL    HW245648   7.286   9.586   6.585
81251SOL     OW45649   3.023  10.452  13.897
81251SOL    HW145650   3.057  10.376  13.943
81251SOL    HW245651   2.998  10.513  13.967
81252SOL     OW45652  12.928   3.491   0.762
81252SOL    HW145653  12.851   3.466   0.712
81252SOL    HW245654  12.921   3.442   0.844
81253SOL     OW45655  12.141   5.584   3.320
81253SOL    HW145656  12.227   5.568   3.281
81253SOL    HW245657  12.125   5.507   3.375
81254SOL     OW45658   5.822   0.737  14.415
81254SOL    HW145659   5.915   0.744  14.437
81254SOL    HW245660   5.795   0.652  14.451
81255SOL     OW45661   7.434  10.528  12.983
81255SOL    HW145662   7.412  10.444  12.942
81255SOL    HW245663   7.448  10.507  13.075
81256SOL     OW45664   6.983   4.633   9.509
81256SOL    HW145665   6.915   4.578   9.470
81256SOL    HW245666   7.048   4.570   9.541
81257SOL     OW45667   5.754   6.512   4.021
81257SOL    HW145668   5.806   6.436   4.046
81257SOL    HW245669   5.685   6.517   4.087
81258SOL     OW45670   7.184  11.774   0.324
81258SOL    HW145671   7.106  11.784   0.269
81258SOL    HW245672   7.238  11.711   0.277
81259SOL     OW45673   4.662   6.156   0.210
81259SOL    HW145674   4.663   6.143   0.305
81259SOL    HW245675   4.748   6.125   0.181
81260SOL     OW45676  11.761  13.395   4.944
81260SOL    HW145677  11.826  13.455   4.982
81260SOL    HW245678  11.758  13.322   5.006
81261SOL     OW45679  10.181   2.875   9.437
81261SOL    HW145680  10.188   2.834   9.351
81261SOL    HW245681  10.220   2.813   9.497
81262SOL     OW45682   9.791   7.677   7.457
81262SOL    HW145683   9.793   7.671   7.362
81262SOL    HW245684   9.728   7.745   7.477
81263SOL     OW45685   2.426   5.319  13.445
81263SOL    HW145686   2.464   5.327  13.532
81263SOL    HW245687   2.331   5.314  13.461
81264SOL     OW45688   0.818   7.849  14.346
81264SOL    HW145689   0.759   7.783  14.382
81264SOL    HW245690   0.885   7.798  14.299
81265SOL     OW45691   1.735   9.866   1.363
81265SOL    HW145692   1.755   9.861   1.270
81265SOL    HW245693   1.804   9.815   1.405
81266SOL     OW45694  13.454   2.116  10.175
81266SOL    HW145695  13.510   2.134  10.100
81266SOL    HW245696  13.463   2.194  10.231
81267SOL     OW45697   2.581   5.436   7.755
81267SOL    HW145698   2.630   5.358   7.729
81267SOL    HW245699   2.607   5.452   7.846
81268SOL     OW45700   6.092   0.004   4.540
81268SOL    HW145701   6.045  14.829   4.472
81268SOL    HW245702   6.027   0.015   4.609
81269SOL     OW45703  14.556   5.571   4.638
81269SOL    HW145704  14.567   5.579   4.543
81269SOL    HW245705  14.474   5.617   4.656
81270SOL     OW45706   4.081   2.823  10.210
81270SOL    HW145707   4.084   2.737  10.167
81270SOL    HW245708   4.141   2.877  10.159
81271SOL     OW45709  13.431   5.156  12.391
81271SOL    HW145710  13.503   5.094  12.381
81271SOL    HW245711  13.430   5.176  12.484
81272SOL     OW45712  11.936   5.741  13.607
81272SOL    HW145713  11.860   5.745  13.550
81272SOL    HW245714  12.001   5.798  13.564
81273SOL     OW45715   3.577   3.486   0.732
81273SOL    HW145716   3.673   3.490   0.738
81273SOL    HW245717   3.555   3.544   0.660
81274SOL     OW45718   9.111   1.525  12.067
81274SOL    HW145719   9.169   1.598  12.089
81274SOL    HW245720   9.095   1.481  12.150
81275SOL     OW45721  12.004  14.183  13.827
81275SOL    HW145722  11.921  14.147  13.795
81275SOL    HW245723  12.045  14.111  13.874
81276SOL     OW45724   0.779   1.305  12.536
81276SOL    HW145725   0.717   1.334  12.469
81276SOL    HW245726   0.839   1.246  12.490
81277SOL     OW45727   9.656   1.652   0.606
81277SOL    HW145728   9.693   1.738   0.585
81277SOL    HW245729   9.717   1.590   0.566
81278SOL     OW45730   5.077   2.736  14.034
81278SOL    HW145731   4.998   2.686  14.015
81278SOL    HW245732   5.075   2.809  13.972
81279SOL     OW45733   6.343   4.346   6.874
81279SOL    HW145734   6.257   4.388   6.874
81279SOL    HW245735   6.346   4.299   6.791
81280SOL     OW45736   9.013   6.816   5.276
81280SOL    HW145737   9.069   6.847   5.205
81280SOL    HW245738   9.070   6.810   5.352
81281SOL     OW45739   7.067   8.184   7.028
81281SOL    HW145740   7.143   8.235   7.055
81281SOL    HW245741   7.082   8.097   7.064
81282SOL     OW45742   0.216   7.249   1.240
81282SOL    HW145743   0.234   7.159   1.211
81282SOL    HW245744   0.171   7.289   1.165
81283SOL     OW45745  12.617  13.221  13.800
81283SOL    HW145746  12.644  13.263  13.719
81283SOL    HW245747  12.525  13.244  13.810
81284SOL     OW45748  13.441  14.757   6.661
81284SOL    HW145749  13.421  14.816   6.733
81284SOL    HW245750  13.522  14.792   6.622
81285SOL     OW45751  11.961   9.334  10.391
81285SOL    HW145752  11.899   9.348  10.320
81285SOL    HW245753  11.917   9.369  10.468
81286SOL     OW45754  12.955   2.808  10.471
81286SOL    HW145755  12.916   2.881  10.423
81286SOL    HW245756  13.046   2.806  10.441
81287SOL     OW45757  10.425   3.550   9.345
81287SOL    HW145758  10.421   3.620   9.411
81287SOL    HW245759  10.342   3.503   9.354
81288SOL     OW45760   6.010  13.653   6.764
81288SOL    HW145761   6.039  13.590   6.698
81288SOL    HW245762   6.025  13.609   6.848
81289SOL     OW45763   6.764  13.297  14.493
81289SOL    HW145764   6.850  13.339  14.496
81289SOL    HW245765   6.737  13.304  14.401
81290SOL     OW45766   0.339   0.437  10.436
81290SOL    HW145767   0.280   0.511  10.443
81290SOL    HW245768   0.401   0.448  10.509
81291SOL     OW45769  11.743  14.442   3.425
81291SOL    HW145770  11.790  14.415   3.346
81291SOL    HW245771  11.662  14.481   3.392
81292SOL     OW45772   7.729  12.795   4.705
81292SOL    HW145773   7.648  12.758   4.670
81292SOL    HW245774   7.794  12.726   4.693
81293SOL     OW45775   4.675   1.115   2.484
81293SOL    HW145776   4.765   1.145   2.484
81293SOL    HW245777   4.631   1.170   2.419
81294SOL     OW45778   8.407   0.490  11.634
81294SOL    HW145779   8.329   0.544  11.648
81294SOL    HW245780   8.433   0.461  11.721
81295SOL     OW45781  10.268   7.866   2.279
81295SOL    HW145782  10.348   7.911   2.255
81295SOL    HW245783  10.297   7.791   2.332
81296SOL     OW45784  13.774   8.660   2.567
81296SOL    HW145785  13.697   8.652   2.623
81296SOL    HW245786  13.739   8.650   2.478
81297SOL     OW45787   5.815  12.716   8.171
81297SOL    HW145788   5.732  12.670   8.162
81297SOL    HW245789   5.877  12.649   8.200
81298SOL     OW45790  14.624  10.723   8.119
81298SOL    HW145791  14.645  10.707   8.027
81298SOL    HW245792  14.593  10.638   8.152
81299SOL     OW45793   0.933   2.316  12.547
81299SOL    HW145794   0.857   2.369  12.523
81299SOL    HW245795   0.895   2.235  12.583
81300SOL     OW45796   9.606   4.932  10.627
81300SOL    HW145797   9.534   4.932  10.690
81300SOL    HW245798   9.568   4.971  10.548
81301SOL     OW45799   2.275   8.571   5.220
81301SOL    HW145800   2.366   8.560   5.249
81301SOL    HW245801   2.274   8.656   5.175
81302SOL     OW45802   3.116  11.391   8.312
81302SOL    HW145803   3.058  11.343   8.372
81302SOL    HW245804   3.170  11.323   8.272
81303SOL     OW45805   8.766  11.822   6.989
81303SOL    HW145806   8.708  11.760   6.944
81303SOL    HW245807   8.815  11.865   6.919
81304SOL     OW45808   1.617   7.439  14.161
81304SOL    HW145809   1.642   7.349  14.184
81304SOL    HW245810   1.691   7.471  14.108
81305SOL     OW45811  10.327   9.740   0.474
81305SOL    HW145812  10.264   9.670   0.490
81305SOL    HW245813  10.318   9.760   0.381
81306SOL     OW45814  10.705   6.874   4.334
81306SOL    HW145815  10.694   6.967   4.315
81306SOL    HW245816  10.745   6.837   4.256
81307SOL     OW45817   4.908   0.812   4.144
81307SOL    HW145818   4.950   0.898   4.141
81307SOL    HW245819   4.968   0.758   4.195
81308SOL     OW45820  14.398   3.267   8.315
81308SOL    HW145821  14.377   3.174   8.319
81308SOL    HW245822  14.328   3.311   8.362
81309SOL     OW45823  11.440   5.824   5.574
81309SOL    HW145824  11.441   5.919   5.572
81309SOL    HW245825  11.496   5.801   5.649
81310SOL     OW45826   6.096   7.738   9.883
81310SOL    HW145827   6.107   7.753   9.789
81310SOL    HW245828   6.003   7.757   9.899
81311SOL     OW45829  13.304   0.478   7.782
81311SOL    HW145830  13.300   0.558   7.835
81311SOL    HW245831  13.258   0.412   7.834
81312SOL     OW45832   0.367  13.368   8.727
81312SOL    HW145833   0.383  13.368   8.822
81312SOL    HW245834   0.278  13.335   8.718
81313SOL     OW45835   0.557   1.090   7.274
81313SOL    HW145836   0.528   1.160   7.333
81313SOL    HW245837   0.486   1.083   7.209
81314SOL     OW45838   2.589   7.991   0.702
81314SOL    HW145839   2.511   8.044   0.716
81314SOL    HW245840   2.558   7.914   0.654
81315SOL     OW45841   6.333  14.772   1.225
81315SOL    HW145842   6.245  14.735   1.227
81315SOL    HW245843   6.387  14.704   1.186
81316SOL     OW45844  12.174   8.391   4.899
81316SOL    HW145845  12.158   8.442   4.820
81316SOL    HW245846  12.212   8.454   4.960
81317SOL     OW45847  12.976  12.696   1.919
81317SOL    HW145848  12.952  12.607   1.946
81317SOL    HW245849  13.030  12.683   1.841
81318SOL     OW45850   2.454  12.872  14.661
81318SOL    HW145851   2.470  12.939  14.594
81318SOL    HW245852   2.444  12.791  14.612
81319SOL     OW45853   4.972  10.683   1.134
81319SOL    HW145854   4.941  10.772   1.113
81319SOL    HW245855   4.990  10.643   1.049
81320SOL     OW45856   3.181  11.086   0.478
81320SOL    HW145857   3.146  11.075   0.390
81320SOL    HW245858   3.227  11.170   0.476
81321SOL     OW45859   3.028  13.159  12.988
81321SOL    HW145860   3.088  13.166  12.914
81321SOL    HW245861   3.058  13.082  13.036
81322SOL     OW45862   1.199  10.089   5.748
81322SOL    HW145863   1.217  10.177   5.714
81322SOL    HW245864   1.286  10.048   5.754
81323SOL     OW45865   9.921   4.529   8.856
81323SOL    HW145866   9.832   4.493   8.852
81323SOL    HW245867   9.952   4.525   8.766
81324SOL     OW45868   7.093   6.410   6.677
81324SOL    HW145869   7.120   6.458   6.599
81324SOL    HW245870   7.140   6.327   6.672
81325SOL     OW45871   0.766   8.859   2.288
81325SOL    HW145872   0.817   8.928   2.247
81325SOL    HW245873   0.683   8.859   2.241
81326SOL     OW45874   2.592   5.056   8.600
81326SOL    HW145875   2.637   5.101   8.671
81326SOL    HW245876   2.509   5.103   8.590
81327SOL     OW45877   7.733   0.963   4.185
81327SOL    HW145878   7.812   1.006   4.152
81327SOL    HW245879   7.743   0.965   4.281
81328SOL     OW45880   4.916   7.850  10.829
81328SOL    HW145881   4.893   7.782  10.892
81328SOL    HW245882   4.955   7.803  10.756
81329SOL     OW45883   4.706  10.707   4.702
81329SOL    HW145884   4.763  10.631   4.698
81329SOL    HW245885   4.760  10.779   4.670
81330SOL     OW45886  13.173  14.392   9.802
81330SOL    HW145887  13.146  14.463   9.743
81330SOL    HW245888  13.153  14.312   9.755
81331SOL     OW45889  11.715  14.251  12.298
81331SOL    HW145890  11.700  14.343  12.318
81331SOL    HW245891  11.807  14.237  12.318
81332SOL     OW45892   6.479   3.159   7.701
81332SOL    HW145893   6.574   3.146   7.705
81332SOL    HW245894   6.453   3.176   7.791
81333SOL     OW45895  13.871  11.698   8.906
81333SOL    HW145896  13.962  11.683   8.879
81333SOL    HW245897  13.819  11.646   8.845
81334SOL     OW45898   3.654   1.619   3.839
81334SOL    HW145899   3.698   1.551   3.891
81334SOL    HW245900   3.670   1.594   3.748
81335SOL     OW45901   5.961   8.710   0.143
81335SOL    HW145902   6.021   8.685   0.073
81335SOL    HW245903   5.875   8.713   0.101
81336SOL     OW45904  11.531  12.854   9.824
81336SOL    HW145905  11.507  12.769   9.860
81336SOL    HW245906  11.501  12.917   9.889
81337SOL     OW45907   2.041   3.693   2.301
81337SOL    HW145908   1.952   3.662   2.320
81337SOL    HW245909   2.027   3.776   2.256
81338SOL     OW45910   0.017   0.322   7.312
81338SOL    HW145911  14.835   0.386   7.268
81338SOL    HW245912   0.093   0.373   7.340
81339SOL     OW45913  12.696   8.075  10.158
81339SOL    HW145914  12.702   8.163  10.121
81339SOL    HW245915  12.603   8.065  10.180
81340SOL     OW45916   5.487   6.049   0.470
81340SOL    HW145917   5.476   6.124   0.528
81340SOL    HW245918   5.512   6.088   0.386
81341SOL     OW45919   8.325   9.534  12.185
81341SOL    HW145920   8.245   9.572  12.221
81341SOL    HW245921   8.344   9.459  12.242
81342SOL     OW45922   1.232   8.837  13.044
81342SOL    HW145923   1.251   8.775  12.974
81342SOL    HW245924   1.209   8.782  13.119
81343SOL     OW45925  14.798   4.428   2.179
81343SOL    HW145926  14.782   4.333   2.178
81343SOL    HW245927   0.014   4.437   2.152
81344SOL     OW45928   2.454   4.726   4.291
81344SOL    HW145929   2.538   4.755   4.255
81344SOL    HW245930   2.402   4.806   4.297
81345SOL     OW45931   2.630   1.020   8.320
81345SOL    HW145932   2.664   0.961   8.253
81345SOL    HW245933   2.679   1.101   8.309
81346SOL     OW45934   0.367   9.131   8.776
81346SOL    HW145935   0.390   9.055   8.830
81346SOL    HW245936   0.443   9.189   8.784
81347SOL     OW45937  13.441   9.771  10.063
81347SOL    HW145938  13.431   9.836   9.994
81347SOL    HW245939  13.535   9.757  10.070
81348SOL     OW45940  10.856   3.435   5.895
81348SOL    HW145941  10.803   3.515   5.889
81348SOL    HW245942  10.930   3.451   5.835
81349SOL     OW45943   7.213   9.202  13.128
81349SOL    HW145944   7.218   9.151  13.047
81349SOL    HW245945   7.238   9.140  13.196
81350SOL     OW45946   8.436   9.476   6.583
81350SOL    HW145947   8.378   9.477   6.659
81350SOL    HW245948   8.521   9.503   6.618
81351SOL     OW45949  13.500   6.882  13.995
81351SOL    HW145950  13.446   6.959  14.013
81351SOL    HW245951  13.473   6.818  14.061
81352SOL     OW45952   8.062   3.180   2.940
81352SOL    HW145953   8.115   3.233   3.000
81352SOL    HW245954   7.986   3.154   2.992
81353SOL     OW45955  14.851   5.235   0.984
81353SOL    HW145956  14.823   5.205   1.071
81353SOL    HW245957   0.049   5.294   1.001
81354SOL     OW45958   2.027  10.046   5.868
81354SOL    HW145959   2.106  10.000   5.896
81354SOL    HW245960   2.058  10.132   5.839
81355SOL     OW45961  11.708   3.887   2.755
81355SOL    HW145962  11.678   3.927   2.673
81355SOL    HW245963  11.638   3.825   2.778
81356SOL     OW45964   0.711  10.325   0.793
81356SOL    HW145965   0.663  10.316   0.710
81356SOL    HW245966   0.767  10.248   0.796
81357SOL     OW45967  11.323   1.148   2.758
81357SOL    HW145968  11.347   1.088   2.687
81357SOL    HW245969  11.245   1.193   2.726
81358SOL     OW45970   8.610   9.496   6.121
81358SOL    HW145971   8.621   9.581   6.079
81358SOL    HW245972   8.529   9.504   6.172
81359SOL     OW45973   1.645   5.033  11.212
81359SOL    HW145974   1.692   5.005  11.133
81359SOL    HW245975   1.681   5.120  11.231
81360SOL     OW45976   2.162  12.533  14.717
81360SOL    HW145977   2.172  12.443  14.747
81360SOL    HW245978   2.217  12.538  14.639
81361SOL     OW45979   3.164  13.143   5.090
81361SOL    HW145980   3.172  13.214   5.026
81361SOL    HW245981   3.253  13.117   5.110
81362SOL     OW45982   0.056   9.546   4.655
81362SOL    HW145983   0.032   9.588   4.572
81362SOL    HW245984   0.080   9.619   4.713
81363SOL     OW45985   1.824   3.674  10.943
81363SOL    HW145986   1.881   3.618  10.890
81363SOL    HW245987   1.822   3.757  10.897
81364SOL     OW45988   3.354  12.418   1.769
81364SOL    HW145989   3.383  12.396   1.857
81364SOL    HW245990   3.362  12.336   1.720
81365SOL     OW45991   3.246   4.982   8.477
81365SOL    HW145992   3.245   5.044   8.404
81365SOL    HW245993   3.178   4.918   8.456
81366SOL     OW45994   4.642   7.056   1.436
81366SOL    HW145995   4.607   7.107   1.510
81366SOL    HW245996   4.735   7.078   1.434
81367SOL     OW45997  10.493  13.420   0.645
81367SOL    HW145998  10.426  13.420   0.576
81367SOL    HW245999  10.459  13.480   0.711
81368SOL     OW46000  12.957  12.918   3.449
81368SOL    HW146001  12.865  12.943   3.461
81368SOL    HW246002  12.970  12.846   3.510
81369SOL     OW46003  14.446   4.284  13.147
81369SOL    HW146004  14.521   4.236  13.182
81369SOL    HW246005  14.430   4.246  13.061
81370SOL     OW46006  12.622   0.295   0.542
81370SOL    HW146007  12.617   0.228   0.611
81370SOL    HW246008  12.607   0.378   0.588
81371SOL     OW46009   3.528   3.325   6.919
81371SOL    HW146010   3.551   3.242   6.961
81371SOL    HW246011   3.539   3.390   6.988
81372SOL     OW46012  12.178   7.557   3.726
81372SOL    HW146013  12.142   7.483   3.775
81372SOL    HW246014  12.271   7.538   3.717
81373SOL     OW46015   4.264   6.479  11.862
81373SOL    HW146016   4.323   6.464  11.788
81373SOL    HW246017   4.182   6.509  11.821
81374SOL     OW46018   3.204  13.818   1.211
81374SOL    HW146019   3.283  13.779   1.174
81374SOL    HW246020   3.232  13.904   1.241
81375SOL     OW46021   3.396   4.714   2.276
81375SOL    HW146022   3.465   4.738   2.338
81375SOL    HW246023   3.330   4.671   2.330
81376SOL     OW46024   4.084  10.635   5.640
81376SOL    HW146025   4.156  10.671   5.589
81376SOL    HW246026   4.041  10.711   5.679
81377SOL     OW46027  10.967  14.771   0.454
81377SOL    HW146028  11.017  14.844   0.491
81377SOL    HW246029  11.018  14.693   0.475
81378SOL     OW46030   3.920   1.902   4.753
81378SOL    HW146031   3.896   1.822   4.706
81378SOL    HW246032   3.983   1.946   4.696
81379SOL     OW46033   0.238  10.625  13.951
81379SOL    HW146034   0.328  10.625  13.985
81379SOL    HW246035   0.226  10.537  13.915
81380SOL     OW46036   8.125   6.530   9.562
81380SOL    HW146037   8.110   6.458   9.500
81380SOL    HW246038   8.177   6.491   9.632
81381SOL     OW46039   7.266   1.355  14.537
81381SOL    HW146040   7.230   1.434  14.578
81381SOL    HW246041   7.330   1.323  14.601
81382SOL     OW46042  13.724   0.492   6.664
81382SOL    HW146043  13.722   0.413   6.718
81382SOL    HW246044  13.796   0.544   6.702
81383SOL     OW46045  10.684  12.873   1.743
81383SOL    HW146046  10.727  12.941   1.795
81383SOL    HW246047  10.706  12.791   1.788
81384SOL     OW46048   0.151   9.868  11.701
81384SOL    HW146049   0.066   9.863  11.658
81384SOL    HW246050   0.179   9.777  11.710
81385SOL     OW46051   6.272  12.536   3.115
81385SOL    HW146052   6.349  12.589   3.132
81385SOL    HW246053   6.199  12.587   3.151
81386SOL     OW46054  13.273  11.723  12.451
81386SOL    HW146055  13.208  11.653  12.450
81386SOL    HW246056  13.318  11.712  12.535
81387SOL     OW46057  13.077  14.495   5.546
81387SOL    HW146058  13.126  14.564   5.591
81387SOL    HW246059  13.023  14.543   5.483
81388SOL     OW46060  11.754  13.356  11.009
81388SOL    HW146061  11.748  13.299  10.933
81388SOL    HW246062  11.678  13.414  11.001
81389SOL     OW46063   7.312   4.413   7.534
81389SOL    HW146064   7.257   4.418   7.612
81389SOL    HW246065   7.400   4.434   7.565
81390SOL     OW46066   7.796  13.238   3.923
81390SOL    HW146067   7.805  13.279   3.836
81390SOL    HW246068   7.875  13.266   3.970
81391SOL     OW46069   0.064  13.136  12.282
81391SOL    HW146070  14.868  13.087  12.240
81391SOL    HW246071   0.021  13.183  12.354
81392SOL     OW46072   9.063  11.237   2.995
81392SOL    HW146073   9.072  11.219   2.901
81392SOL    HW246074   9.117  11.314   3.010
81393SOL     OW46075   1.061   6.699  13.354
81393SOL    HW146076   1.148   6.738  13.368
81393SOL    HW246077   1.062   6.619  13.406
81394SOL     OW46078  10.210   5.511   8.543
81394SOL    HW146079  10.207   5.600   8.508
81394SOL    HW246080  10.213   5.454   8.466
81395SOL     OW46081   8.067   2.590   8.804
81395SOL    HW146082   8.057   2.530   8.878
81395SOL    HW246083   7.979   2.625   8.790
81396SOL     OW46084   8.456  13.733   1.670
81396SOL    HW146085   8.442  13.731   1.575
81396SOL    HW246086   8.379  13.779   1.704
81397SOL     OW46087  12.518   2.488  11.834
81397SOL    HW146088  12.456   2.456  11.769
81397SOL    HW246089  12.603   2.453  11.806
81398SOL     OW46090  10.344   2.458   4.726
81398SOL    HW146091  10.291   2.384   4.697
81398SOL    HW246092  10.281   2.525   4.750
81399SOL     OW46093  14.854  10.570   0.111
81399SOL    HW146094  14.833  10.590   0.019
81399SOL    HW246095  14.804  10.491   0.131
81400SOL     OW46096  10.462   1.867   3.518
81400SOL    HW146097  10.489   1.859   3.609
81400SOL    HW246098  10.367   1.851   3.520
81401SOL     OW46099  13.836   7.921   5.245
81401SOL    HW146100  13.775   7.850   5.226
81401SOL    HW246101  13.922   7.885   5.227
81402SOL     OW46102   8.625   4.808  10.959
81402SOL    HW146103   8.562   4.749  11.001
81402SOL    HW246104   8.684   4.834  11.030
81403SOL     OW46105  13.743   4.094   6.327
81403SOL    HW146106  13.763   4.031   6.396
81403SOL    HW246107  13.648   4.089   6.317
81404SOL     OW46108   8.654   8.372   1.717
81404SOL    HW146109   8.738   8.336   1.689
81404SOL    HW246110   8.600   8.295   1.734
81405SOL     OW46111  13.505  11.587  10.702
81405SOL    HW146112  13.442  11.606  10.633
81405SOL    HW246113  13.586  11.565  10.656
81406SOL     OW46114   2.447   5.396   2.245
81406SOL    HW146115   2.530   5.417   2.203
81406SOL    HW246116   2.452   5.302   2.263
81407SOL     OW46117   3.101   4.957   3.815
81407SOL    HW146118   3.091   4.911   3.898
81407SOL    HW246119   3.195   4.959   3.799
81408SOL     OW46120   2.266  10.493  14.396
81408SOL    HW146121   2.278  10.565  14.458
81408SOL    HW246122   2.341  10.436  14.410
81409SOL     OW46123   5.983  10.309   7.940
81409SOL    HW146124   6.026  10.391   7.914
81409SOL    HW246125   5.897  10.313   7.897
81410SOL     OW46126  14.588  11.863   8.325
81410SOL    HW146127  14.666  11.810   8.341
81410SOL    HW246128  14.608  11.948   8.363
81411SOL     OW46129   5.448  12.088   7.033
81411SOL    HW146130   5.398  12.047   7.103
81411SOL    HW246131   5.409  12.054   6.952
81412SOL     OW46132   9.179   7.357   1.614
81412SOL    HW146133   9.244   7.312   1.668
81412SOL    HW246134   9.095   7.335   1.656
81413SOL     OW46135   3.073   5.039   2.714
81413SOL    HW146136   3.088   4.968   2.777
81413SOL    HW246137   3.127   5.111   2.746
81414SOL     OW46138   4.069   4.076   5.834
81414SOL    HW146139   4.126   4.074   5.910
81414SOL    HW246140   4.032   4.164   5.833
81415SOL     OW46141   8.672  11.900   4.094
81415SOL    HW146142   8.647  11.982   4.137
81415SOL    HW246143   8.598  11.881   4.035
81416SOL     OW46144   4.212   3.069   0.869
81416SOL    HW146145   4.217   3.132   0.798
81416SOL    HW246146   4.297   3.076   0.913
81417SOL     OW46147   3.960   2.176  13.217
81417SOL    HW146148   3.953   2.195  13.123
81417SOL    HW246149   3.971   2.261  13.258
81418SOL     OW46150   8.565   4.948   1.721
81418SOL    HW146151   8.608   5.010   1.780
81418SOL    HW246152   8.633   4.883   1.702
81419SOL     OW46153  12.486  11.729   5.870
81419SOL    HW146154  12.554  11.700   5.930
81419SOL    HW246155  12.457  11.650   5.825
81420SOL     OW46156   4.888   5.020   8.957
81420SOL    HW146157   4.938   5.022   9.039
81420SOL    HW246158   4.830   4.945   8.967
81421SOL     OW46159   0.911  12.253  12.400
81421SOL    HW146160   0.850  12.197  12.448
81421SOL    HW246161   0.893  12.341  12.432
81422SOL     OW46162   4.951   0.757  13.904
81422SOL    HW146163   4.879   0.728  13.849
81422SOL    HW246164   5.028   0.754  13.848
81423SOL     OW46165   2.294   3.342  12.052
81423SOL    HW146166   2.249   3.424  12.073
81423SOL    HW246167   2.259   3.316  11.967
81424SOL     OW46168  11.546  14.845   0.255
81424SOL    HW146169  11.459   0.003   0.232
81424SOL    HW246170  11.607   0.032   0.215
81425SOL     OW46171  11.403   4.655   7.224
81425SOL    HW146172  11.337   4.677   7.158
81425SOL    HW246173  11.486   4.679   7.184
81426SOL     OW46174   5.463   0.714   9.683
81426SOL    HW146175   5.505   0.631   9.661
81426SOL    HW246176   5.487   0.731   9.774
81427SOL     OW46177   8.955   2.717  14.010
81427SOL    HW146178   8.962   2.634  13.963
81427SOL    HW246179   9.044   2.753  14.009
81428SOL     OW46180   4.794   1.272  14.825
81428SOL    HW146181   4.760   1.237   0.033
81428SOL    HW246182   4.717   1.280  14.769
81429SOL     OW46183   2.776   8.822   5.427
81429SOL    HW146184   2.770   8.727   5.420
81429SOL    HW246185   2.854   8.845   5.377
81430SOL     OW46186   1.045   9.825   9.540
81430SOL    HW146187   1.003   9.744   9.568
81430SOL    HW246188   0.980   9.893   9.558
81431SOL     OW46189   4.845   2.135   3.199
81431SOL    HW146190   4.932   2.118   3.234
81431SOL    HW246191   4.854   2.120   3.105
81432SOL     OW46192   3.471  14.050  12.241
81432SOL    HW146193   3.445  13.966  12.204
81432SOL    HW246194   3.415  14.060  12.318
81433SOL     OW46195   0.837   6.983   1.296
81433SOL    HW146196   0.882   7.067   1.299
81433SOL    HW246197   0.769   6.994   1.230
81434SOL     OW46198  12.972   9.514   5.347
81434SOL    HW146199  12.883   9.533   5.375
81434SOL    HW246200  12.967   9.510   5.251
81435SOL     OW46201   8.062   5.749  14.002
81435SOL    HW146202   8.151   5.778  14.025
81435SOL    HW246203   8.059   5.753  13.907
81436SOL     OW46204  12.657  13.690   9.110
81436SOL    HW146205  12.663  13.782   9.085
81436SOL    HW246206  12.671  13.689   9.204
81437SOL     OW46207  11.739  13.586  14.321
81437SOL    HW146208  11.655  13.629  14.333
81437SOL    HW246209  11.717  13.496  14.298
81438SOL     OW46210   3.461   3.069  14.328
81438SOL    HW146211   3.405   3.049  14.252
81438SOL    HW246212   3.548   3.040  14.301
81439SOL     OW46213  11.887   2.937   5.324
81439SOL    HW146214  11.885   3.003   5.254
81439SOL    HW246215  11.973   2.947   5.363
81440SOL     OW46216   1.637   6.646  14.588
81440SOL    HW146217   1.544   6.665  14.600
81440SOL    HW246218   1.667   6.713  14.527
81441SOL     OW46219  10.459  11.645   1.127
81441SOL    HW146220  10.421  11.561   1.151
81441SOL    HW246221  10.552  11.627   1.115
81442SOL     OW46222   8.926  10.707   5.029
81442SOL    HW146223   8.870  10.674   4.958
81442SOL    HW246224   8.866  10.721   5.102
81443SOL     OW46225   4.149   4.164   2.500
81443SOL    HW146226   4.201   4.116   2.565
81443SOL    HW246227   4.077   4.201   2.550
81444SOL     OW46228   3.497   9.603  10.565
81444SOL    HW146229   3.416   9.614  10.614
81444SOL    HW246230   3.564   9.648  10.617
81445SOL     OW46231   1.081   9.188   6.880
81445SOL    HW146232   1.065   9.171   6.787
81445SOL    HW246233   0.995   9.211   6.916
81446SOL     OW46234   0.474  11.799   9.786
81446SOL    HW146235   0.473  11.827   9.694
81446SOL    HW246236   0.451  11.706   9.783
81447SOL     OW46237  11.590  13.815  14.314
81447SOL    HW146238  11.653  13.870  14.360
81447SOL    HW246239  11.587  13.850  14.225
81448SOL     OW46240  11.876   3.034   9.065
81448SOL    HW146241  11.800   3.027   9.122
81448SOL    HW246242  11.842   3.073   8.984
81449SOL     OW46243   2.850   9.420  12.177
81449SOL    HW146244   2.792   9.432  12.102
81449SOL    HW246245   2.936   9.404  12.138
81450SOL     OW46246   8.040   3.552   8.473
81450SOL    HW146247   7.944   3.560   8.475
81450SOL    HW246248   8.061   3.493   8.545
81451SOL     OW46249   7.003   8.813   5.268
81451SOL    HW146250   7.075   8.754   5.291
81451SOL    HW246251   6.933   8.790   5.329
81452SOL     OW46252  10.184  11.568  13.552
81452SOL    HW146253  10.255  11.599  13.496
81452SOL    HW246254  10.182  11.631  13.624
81453SOL     OW46255   7.239   9.087   6.269
81453SOL    HW146256   7.242   9.182   6.280
81453SOL    HW246257   7.190   9.056   6.345
81454SOL     OW46258   8.584  12.802  13.311
81454SOL    HW146259   8.597  12.768  13.400
81454SOL    HW246260   8.526  12.878  13.323
81455SOL     OW46261   9.386   6.602   5.679
81455SOL    HW146262   9.410   6.547   5.604
81455SOL    HW246263   9.316   6.658   5.646
81456SOL     OW46264  10.482   1.449  12.572
81456SOL    HW146265  10.570   1.431  12.538
81456SOL    HW246266  10.447   1.363  12.596
81457SOL     OW46267   4.602   4.242   4.904
81457SOL    HW146268   4.561   4.260   4.819
81457SOL    HW246269   4.556   4.166   4.937
81458SOL     OW46270  12.113   8.813   4.286
81458SOL    HW146271  12.175   8.837   4.217
81458SOL    HW246272  12.057   8.746   4.247
81459SOL     OW46273   6.260   4.931  11.933
81459SOL    HW146274   6.230   4.844  11.963
81459SOL    HW246275   6.317   4.962  12.003
81460SOL     OW46276   1.004  10.638   9.665
81460SOL    HW146277   0.957  10.606   9.588
81460SOL    HW246278   1.094  10.609   9.652
81461SOL     OW46279   9.325  11.407  13.547
81461SOL    HW146280   9.286  11.430  13.632
81461SOL    HW246281   9.413  11.445  13.550
81462SOL     OW46282   2.442   4.248   5.890
81462SOL    HW146283   2.472   4.169   5.843
81462SOL    HW246284   2.485   4.242   5.976
81463SOL     OW46285  13.139  14.628   4.405
81463SOL    HW146286  13.070  14.694   4.411
81463SOL    HW246287  13.218  14.673   4.437
81464SOL     OW46288   0.854  13.818   6.201
81464SOL    HW146289   0.758  13.818   6.203
81464SOL    HW246290   0.880  13.766   6.276
81465SOL     OW46291   8.261  11.124  11.468
81465SOL    HW146292   8.248  11.180  11.392
81465SOL    HW246293   8.337  11.070  11.445
81466SOL     OW46294   8.192   6.988   0.478
81466SOL    HW146295   8.148   7.057   0.428
81466SOL    HW246296   8.124   6.952   0.535
81467SOL     OW46297   5.278   0.196  13.782
81467SOL    HW146298   5.293   0.283  13.743
81467SOL    HW246299   5.265   0.214  13.875
81468SOL     OW46300  11.548   2.124   3.437
81468SOL    HW146301  11.566   2.051   3.497
81468SOL    HW246302  11.456   2.112   3.413
81469SOL     OW46303   4.462   7.346   2.478
81469SOL    HW146304   4.509   7.411   2.530
81469SOL    HW246305   4.429   7.284   2.543
81470SOL     OW46306  11.858   6.205  10.835
81470SOL    HW146307  11.935   6.246  10.796
81470SOL    HW246308  11.873   6.111  10.826
81471SOL     OW46309   1.888  13.155   0.915
81471SOL    HW146310   1.799  13.176   0.886
81471SOL    HW246311   1.911  13.076   0.867
81472SOL     OW46312   4.143  14.005   4.764
81472SOL    HW146313   4.162  14.066   4.836
81472SOL    HW246314   4.228  13.969   4.741
81473SOL     OW46315   9.675   3.609   8.800
81473SOL    HW146316   9.723   3.531   8.775
81473SOL    HW246317   9.726   3.646   8.873
81474SOL     OW46318   4.093  14.220   6.933
81474SOL    HW146319   4.015  14.260   6.970
81474SOL    HW246320   4.062  14.177   6.853
81475SOL     OW46321   3.737   8.931   6.914
81475SOL    HW146322   3.744   9.016   6.872
81475SOL    HW246323   3.739   8.951   7.008
81476SOL     OW46324  13.817   8.912   2.232
81476SOL    HW146325  13.796   8.949   2.147
81476SOL    HW246326  13.815   8.817   2.218
81477SOL     OW46327  14.248  13.099   3.676
81477SOL    HW146328  14.217  13.075   3.588
81477SOL    HW246329  14.325  13.154   3.659
81478SOL     OW46330   8.047  12.789  11.513
81478SOL    HW146331   8.038  12.766  11.421
81478SOL    HW246332   8.030  12.883  11.516
81479SOL     OW46333   6.036   8.169   4.864
81479SOL    HW146334   6.013   8.079   4.840
81479SOL    HW246335   6.107   8.192   4.804
81480SOL     OW46336   5.869  12.399   2.311
81480SOL    HW146337   5.851  12.305   2.315
81480SOL    HW246338   5.930  12.415   2.383
81481SOL     OW46339   8.017  12.041   4.771
81481SOL    HW146340   7.935  12.046   4.721
81481SOL    HW246341   8.079  11.999   4.711
81482SOL     OW46342  13.954   8.625  10.451
81482SOL    HW146343  13.874   8.616  10.399
81482SOL    HW246344  13.970   8.719  10.454
81483SOL     OW46345   8.739   7.278  13.029
81483SOL    HW146346   8.825   7.253  13.063
81483SOL    HW246347   8.684   7.284  13.107
81484SOL     OW46348  14.616   1.753  10.786
81484SOL    HW146349  14.599   1.659  10.792
81484SOL    HW246350  14.539   1.794  10.827
81485SOL     OW46351   1.966   9.192   0.864
81485SOL    HW146352   2.053   9.197   0.823
81485SOL    HW246353   1.905   9.210   0.793
81486SOL     OW46354   8.039   2.858   5.133
81486SOL    HW146355   8.039   2.887   5.041
81486SOL    HW246356   8.124   2.814   5.143
81487SOL     OW46357   0.966   6.422   5.390
81487SOL    HW146358   0.950   6.465   5.475
81487SOL    HW246359   1.061   6.411   5.386
81488SOL     OW46360   8.888  10.835   6.782
81488SOL    HW146361   8.837  10.912   6.808
81488SOL    HW246362   8.843  10.800   6.706
81489SOL     OW46363   5.549   1.304   4.753
81489SOL    HW146364   5.480   1.242   4.729
81489SOL    HW246365   5.591   1.264   4.829
81490SOL     OW46366   9.907   0.342   0.805
81490SOL    HW146367   9.997   0.372   0.819
81490SOL    HW246368   9.910   0.248   0.825
81491SOL     OW46369   6.854   2.451   6.330
81491SOL    HW146370   6.837   2.362   6.299
81491SOL    HW246371   6.919   2.440   6.399
81492SOL     OW46372   4.564  14.815   6.339
81492SOL    HW146373   4.479  14.856   6.322
81492SOL    HW246374   4.597  14.859   6.417
81493SOL     OW46375  10.300   3.185   3.614
81493SOL    HW146376  10.370   3.247   3.637
81493SOL    HW246377  10.345   3.116   3.565
81494SOL     OW46378   7.971   9.686   2.172
81494SOL    HW146379   7.911   9.630   2.222
81494SOL    HW246380   7.919   9.717   2.099
81495SOL     OW46381   8.571   2.291   2.295
81495SOL    HW146382   8.544   2.308   2.204
81495SOL    HW246383   8.533   2.363   2.345
81496SOL     OW46384   6.479   3.058  14.767
81496SOL    HW146385   6.488   3.142  14.813
81496SOL    HW246386   6.526   3.072  14.685
81497SOL     OW46387  12.676   9.442   0.283
81497SOL    HW146388  12.619   9.431   0.206
81497SOL    HW246389  12.760   9.406   0.256
81498SOL     OW46390   8.061  14.765  11.765
81498SOL    HW146391   7.998  14.732  11.701
81498SOL    HW246392   8.126  14.813  11.714
81499SOL     OW46393   6.293   0.602  11.331
81499SOL    HW146394   6.253   0.563  11.253
81499SOL    HW246395   6.219   0.631  11.384
81500SOL     OW46396   9.901  14.687  12.356
81500SOL    HW146397   9.996  14.698  12.350
81500SOL    HW246398   9.875  14.735  12.434
81501SOL     OW46399  12.742   4.313   3.000
81501SOL    HW146400  12.773   4.299   2.911
81501SOL    HW246401  12.822   4.316   3.053
81502SOL     OW46402   9.998   2.324  10.628
81502SOL    HW146403  10.033   2.371  10.553
81502SOL    HW246404   9.912   2.364  10.644
81503SOL     OW46405   5.717   8.687   2.094
81503SOL    HW146406   5.762   8.758   2.048
81503SOL    HW246407   5.632   8.724   2.119
81504SOL     OW46408  10.135   3.203   4.936
81504SOL    HW146409  10.201   3.166   4.995
81504SOL    HW246410  10.053   3.162   4.964
81505SOL     OW46411  12.622   4.467  14.861
81505SOL    HW146412  12.684   4.407  14.819
81505SOL    HW246413  12.677   4.533   0.027
81506SOL     OW46414   2.787   1.532   0.693
81506SOL    HW146415   2.853   1.500   0.632
81506SOL    HW246416   2.728   1.584   0.639
81507SOL     OW46417  11.307   7.897   8.522
81507SOL    HW146418  11.299   7.831   8.453
81507SOL    HW246419  11.380   7.952   8.493
81508SOL     OW46420   0.974   5.153  13.441
81508SOL    HW146421   0.889   5.173  13.402
81508SOL    HW246422   1.030   5.132  13.367
81509SOL     OW46423  12.332   9.018  14.198
81509SOL    HW146424  12.370   9.009  14.111
81509SOL    HW246425  12.257   8.958  14.199
81510SOL     OW46426   7.003   4.320  14.180
81510SOL    HW146427   7.073   4.255  14.173
81510SOL    HW246428   6.968   4.310  14.268
81511SOL     OW46429   5.814  10.850   8.718
81511SOL    HW146430   5.879  10.880   8.655
81511SOL    HW246431   5.732  10.890   8.689
81512SOL     OW46432  11.549   4.455   7.818
81512SOL    HW146433  11.621   4.486   7.873
81512SOL    HW246434  11.492   4.406   7.878
81513SOL     OW46435   6.045  11.871   6.657
81513SOL    HW146436   6.062  11.918   6.575
81513SOL    HW246437   6.111  11.801   6.658
81514SOL     OW46438   7.273   2.079   3.916
81514SOL    HW146439   7.221   2.141   3.966
81514SOL    HW246440   7.338   2.045   3.978
81515SOL     OW46441   4.085  14.333  11.613
81515SOL    HW146442   4.054  14.381  11.537
81515SOL    HW246443   4.065  14.241  11.594
81516SOL     OW46444   3.025  10.292   6.715
81516SOL    HW146445   3.084  10.313   6.788
81516SOL    HW246446   2.992  10.377   6.686
81517SOL     OW46447  10.462   7.077  14.566
81517SOL    HW146448  10.533   7.037  14.517
81517SOL    HW246449  10.491   7.075  14.658
81518SOL     OW46450  13.157   8.719  10.054
81518SOL    HW146451  13.146   8.634  10.011
81518SOL    HW246452  13.250   8.722  10.078
81519SOL     OW46453   4.043   2.018  13.609
81519SOL    HW146454   4.121   2.057  13.649
81519SOL    HW246455   4.032   1.935  13.655
81520SOL     OW46456   0.398   0.351  12.331
81520SOL    HW146457   0.463   0.376  12.396
81520SOL    HW246458   0.328   0.310  12.382
81521SOL     OW46459   1.509   5.724  11.801
81521SOL    HW146460   1.525   5.703  11.893
81521SOL    HW246461   1.572   5.793  11.781
81522SOL     OW46462   9.062   6.056   4.873
81522SOL    HW146463   9.056   6.150   4.888
81522SOL    HW246464   9.148   6.044   4.831
81523SOL     OW46465   9.460  11.729   7.019
81523SOL    HW146466   9.547  11.691   7.008
81523SOL    HW246467   9.475  11.824   7.017
81524SOL     OW46468   2.996   0.152  10.438
81524SOL    HW146469   2.978   0.060  10.462
81524SOL    HW246470   2.910   0.187  10.413
81525SOL     OW46471   0.473   3.438   3.384
81525SOL    HW146472   0.445   3.348   3.369
81525SOL    HW246473   0.426   3.465   3.463
81526SOL     OW46474  14.818   8.933   3.491
81526SOL    HW146475  14.835   9.012   3.440
81526SOL    HW246476  14.848   8.954   3.579
81527SOL     OW46477  12.737   4.022  14.392
81527SOL    HW146478  12.782   4.008  14.309
81527SOL    HW246479  12.668   3.956  14.393
81528SOL     OW46480   2.851   5.185  12.276
81528SOL    HW146481   2.771   5.200  12.326
81528SOL    HW246482   2.822   5.160  12.189
81529SOL     OW46483   7.292   4.826   2.213
81529SOL    HW146484   7.209   4.857   2.177
81529SOL    HW246485   7.276   4.814   2.306
81530SOL     OW46486   6.545  14.326  13.869
81530SOL    HW146487   6.608  14.377  13.817
81530SOL    HW246488   6.576  14.334  13.959
81531SOL     OW46489   1.511   7.166  11.773
81531SOL    HW146490   1.487   7.220  11.849
81531SOL    HW246491   1.428   7.130  11.742
81532SOL     OW46492  11.244   8.883   4.433
81532SOL    HW146493  11.236   8.790   4.456
81532SOL    HW246494  11.273   8.883   4.342
81533SOL     OW46495  12.443   7.266  11.761
81533SOL    HW146496  12.495   7.341  11.731
81533SOL    HW246497  12.410   7.292  11.846
81534SOL     OW46498   2.921   0.955  12.562
81534SOL    HW146499   2.842   0.977  12.514
81534SOL    HW246500   2.988   0.941  12.494
81535SOL     OW46501  13.249   8.926   0.352
81535SOL    HW146502  13.230   8.962   0.439
81535SOL    HW246503  13.337   8.889   0.360
81536SOL     OW46504   6.830   5.394  14.224
81536SOL    HW146505   6.753   5.339  14.237
81536SOL    HW246506   6.901   5.344  14.264
81537SOL     OW46507  14.667   7.112  10.561
81537SOL    HW146508  14.661   7.018  10.579
81537SOL    HW246509  14.674   7.152  10.648
81538SOL     OW46510   3.327   9.203   7.633
81538SOL    HW146511   3.274   9.129   7.602
81538SOL    HW246512   3.263   9.267   7.664
81539SOL     OW46513  14.502   6.305  11.123
81539SOL    HW146514  14.456   6.330  11.042
81539SOL    HW246515  14.551   6.226  11.099
81540SOL     OW46516   4.522   3.827   5.170
81540SOL    HW146517   4.461   3.771   5.217
81540SOL    HW246518   4.570   3.874   5.238
81541SOL     OW46519   6.473  14.655   0.877
81541SOL    HW146520   6.502  14.618   0.960
81541SOL    HW246521   6.409  14.592   0.844
81542SOL     OW46522  13.685   3.819   3.784
81542SOL    HW146523  13.601   3.858   3.807
81542SOL    HW246524  13.736   3.891   3.747
81543SOL     OW46525   3.840   9.220   5.165
81543SOL    HW146526   3.832   9.257   5.077
81543SOL    HW246527   3.934   9.205   5.176
81544SOL     OW46528   5.314   1.759   0.317
81544SOL    HW146529   5.283   1.694   0.380
81544SOL    HW246530   5.408   1.740   0.307
81545SOL     OW46531  14.696   2.343  13.074
81545SOL    HW146532  14.763   2.302  13.019
81545SOL    HW246533  14.645   2.397  13.013
81546SOL     OW46534   6.653   6.671  13.948
81546SOL    HW146535   6.632   6.641  13.860
81546SOL    HW246536   6.729   6.619  13.973
81547SOL     OW46537  13.822   1.647  13.850
81547SOL    HW146538  13.793   1.555  13.855
81547SOL    HW246539  13.913   1.642  13.821
81548SOL     OW46540   2.954  10.637   7.302
81548SOL    HW146541   2.966  10.644   7.207
81548SOL    HW246542   2.859  10.636   7.315
81549SOL     OW46543   0.325   4.176   2.006
81549SOL    HW146544   0.413   4.202   2.032
81549SOL    HW246545   0.317   4.085   2.035
81550SOL     OW46546  12.521  13.679  11.877
81550SOL    HW146547  12.530  13.737  11.802
81550SOL    HW246548  12.525  13.736  11.953
81551SOL     OW46549   0.033   1.396   0.322
81551SOL    HW146550   0.056   1.458   0.391
81551SOL    HW246551   0.016   1.314   0.369
81552SOL     OW46552   0.908  14.050   7.913
81552SOL    HW146553   0.976  13.985   7.935
81552SOL    HW246554   0.952  14.112   7.856
81553SOL     OW46555   5.600   1.690  11.587
81553SOL    HW146556   5.581   1.599  11.607
81553SOL    HW246557   5.690   1.703  11.616
81554SOL     OW46558   5.244  10.844   7.317
81554SOL    HW146559   5.254  10.920   7.374
81554SOL    HW246560   5.332  10.828   7.284
81555SOL     OW46561   6.163  12.007  10.847
81555SOL    HW146562   6.188  11.926  10.891
81555SOL    HW246563   6.069  11.997  10.832
81556SOL     OW46564   3.099   2.254   4.841
81556SOL    HW146565   3.108   2.273   4.748
81556SOL    HW246566   3.184   2.278   4.878
81557SOL     OW46567  13.753   7.103  14.189
81557SOL    HW146568  13.693   7.032  14.213
81557SOL    HW246569  13.749   7.164  14.262
81558SOL     OW46570   8.231   1.822   8.577
81558SOL    HW146571   8.232   1.859   8.489
81558SOL    HW246572   8.299   1.871   8.624
81559SOL     OW46573  13.023  11.638  13.238
81559SOL    HW146574  13.012  11.599  13.151
81559SOL    HW246575  12.939  11.623  13.282
81560SOL     OW46576   7.000  10.594   5.303
81560SOL    HW146577   7.049  10.538   5.243
81560SOL    HW246578   6.916  10.550   5.315
81561SOL     OW46579   5.516  14.369   5.312
81561SOL    HW146580   5.541  14.349   5.222
81561SOL    HW246581   5.434  14.418   5.304
81562SOL     OW46582   6.982   2.815  10.972
81562SOL    HW146583   6.920   2.884  10.995
81562SOL    HW246584   7.048   2.859  10.918
81563SOL     OW46585  10.051   3.836  10.378
81563SOL    HW146586  10.133   3.865  10.337
81563SOL    HW246587  10.017   3.769  10.319
81564SOL     OW46588  11.931  14.477   2.828
81564SOL    HW146589  11.922  14.553   2.770
81564SOL    HW246590  11.955  14.406   2.769
81565SOL     OW46591   3.966   6.614   7.469
81565SOL    HW146592   3.893   6.589   7.414
81565SOL    HW246593   3.926   6.653   7.546
81566SOL     OW46594  12.501   4.700   6.741
81566SOL    HW146595  12.420   4.748   6.760
81566SOL    HW246596  12.474   4.630   6.682
81567SOL     OW46597   1.077  14.168  13.720
81567SOL    HW146598   1.025  14.193  13.643
81567SOL    HW246599   1.147  14.234  13.724
81568SOL     OW46600   8.508  10.440   3.061
81568SOL    HW146601   8.481  10.466   2.973
81568SOL    HW246602   8.541  10.350   3.050
81569SOL     OW46603   7.535   2.482  13.802
81569SOL    HW146604   7.622   2.445  13.819
81569SOL    HW246605   7.548   2.540  13.727
81570SOL     OW46606   8.024   6.080   7.297
81570SOL    HW146607   8.025   6.176   7.300
81570SOL    HW246608   8.021   6.054   7.389
81571SOL     OW46609  14.822   4.476  10.958
81571SOL    HW146610  14.792   4.385  10.966
81571SOL    HW246611  14.802   4.516  11.042
81572SOL     OW46612   3.592  13.233  12.295
81572SOL    HW146613   3.548  13.281  12.365
81572SOL    HW246614   3.668  13.287  12.273
81573SOL     OW46615   8.722   8.002   8.126
81573SOL    HW146616   8.683   7.966   8.046
81573SOL    HW246617   8.650   8.049   8.168
81574SOL     OW46618   6.606  14.041  13.014
81574SOL    HW146619   6.648  14.090  12.943
81574SOL    HW246620   6.589  14.106  13.082
81575SOL     OW46621  11.219   5.313   3.789
81575SOL    HW146622  11.208   5.386   3.728
81575SOL    HW246623  11.295   5.265   3.755
81576SOL     OW46624   6.558   8.695   6.296
81576SOL    HW146625   6.641   8.740   6.316
81576SOL    HW246626   6.553   8.625   6.361
81577SOL     OW46627   1.106  12.914   0.811
81577SOL    HW146628   1.080  12.823   0.800
81577SOL    HW246629   1.026  12.964   0.795
81578SOL     OW46630   1.785   9.642   2.440
81578SOL    HW146631   1.693   9.656   2.461
81578SOL    HW246632   1.818   9.728   2.414
81579SOL     OW46633  12.918   2.594   0.446
81579SOL    HW146634  12.895   2.666   0.504
81579SOL    HW246635  12.892   2.623   0.359
81580SOL     OW46636   2.049   9.853  14.096
81580SOL    HW146637   2.089   9.772  14.065
81580SOL    HW246638   2.008   9.828  14.179
81581SOL     OW46639  10.333   1.270   4.774
81581SOL    HW146640  10.342   1.364   4.757
81581SOL    HW246641  10.272   1.264   4.848
81582SOL     OW46642  12.836   3.860   7.278
81582SOL    HW146643  12.842   3.926   7.208
81582SOL    HW246644  12.879   3.900   7.353
81583SOL     OW46645  12.856   7.967   6.041
81583SOL    HW146646  12.798   8.034   6.075
81583SOL    HW246647  12.899   7.930   6.118
81584SOL     OW46648   2.503   6.660   3.346
81584SOL    HW146649   2.461   6.744   3.328
81584SOL    HW246650   2.544   6.635   3.263
81585SOL     OW46651   6.849   1.796  12.291
81585SOL    HW146652   6.854   1.716  12.343
81585SOL    HW246653   6.796   1.856  12.343
81586SOL     OW46654  12.584  12.319   0.912
81586SOL    HW146655  12.524  12.258   0.956
81586SOL    HW246656  12.537  12.402   0.910
81587SOL     OW46657  11.683   4.785  12.897
81587SOL    HW146658  11.703   4.752  12.809
81587SOL    HW246659  11.588   4.800  12.896
81588SOL     OW46660  12.412  13.494   7.163
81588SOL    HW146661  12.397  13.518   7.255
81588SOL    HW246662  12.453  13.571   7.124
81589SOL     OW46663   8.638  11.859   9.426
81589SOL    HW146664   8.610  11.846   9.517
81589SOL    HW246665   8.731  11.835   9.427
81590SOL     OW46666  10.728   4.919   3.622
81590SOL    HW146667  10.679   5.001   3.630
81590SOL    HW246668  10.820   4.946   3.620
81591SOL     OW46669   1.605  14.103  13.995
81591SOL    HW146670   1.662  14.038  13.953
81591SOL    HW246671   1.524  14.099  13.945
81592SOL     OW46672  11.936   7.021   5.955
81592SOL    HW146673  11.863   7.038   5.895
81592SOL    HW246674  11.941   6.926   5.960
81593SOL     OW46675  13.098   1.864   9.416
81593SOL    HW146676  13.034   1.819   9.472
81593SOL    HW246677  13.130   1.936   9.470
81594SOL     OW46678  11.897  14.295   4.781
81594SOL    HW146679  11.948  14.346   4.845
81594SOL    HW246680  11.841  14.239   4.835
81595SOL     OW46681   5.099   6.415   6.685
81595SOL    HW146682   5.009   6.447   6.676
81595SOL    HW246683   5.143   6.481   6.738
81596SOL     OW46684   8.433   3.810  13.611
81596SOL    HW146685   8.361   3.803  13.548
81596SOL    HW246686   8.505   3.848  13.560
81597SOL     OW46687   8.797   3.392   3.576
81597SOL    HW146688   8.769   3.310   3.617
81597SOL    HW246689   8.882   3.372   3.539
81598SOL     OW46690   5.742  12.455  12.683
81598SOL    HW146691   5.681  12.387  12.714
81598SOL    HW246692   5.688  12.514  12.632
81599SOL     OW46693  14.013   8.726  14.707
81599SOL    HW146694  14.068   8.804  14.708
81599SOL    HW246695  13.939   8.748  14.764
81600SOL     OW46696  10.447   7.989   0.725
81600SOL    HW146697  10.542   7.986   0.736
81600SOL    HW246698  10.424   7.906   0.685
81601SOL     OW46699   2.162   9.527   3.015
81601SOL    HW146700   2.091   9.557   3.073
81601SOL    HW246701   2.235   9.586   3.034
81602SOL     OW46702  10.271   9.982   6.602
81602SOL    HW146703  10.193   9.927   6.609
81602SOL    HW246704  10.327   9.935   6.540
81603SOL     OW46705   4.003   3.951  11.385
81603SOL    HW146706   3.920   3.905  11.378
81603SOL    HW246707   4.052   3.903  11.452
81604SOL     OW46708   1.161   8.058   3.035
81604SOL    HW146709   1.169   8.142   3.080
81604SOL    HW246710   1.234   8.005   3.068
81605SOL     OW46711  11.846   2.561   4.108
81605SOL    HW146712  11.813   2.563   4.198
81605SOL    HW246713  11.769   2.571   4.054
81606SOL     OW46714   0.717   3.766   5.135
81606SOL    HW146715   0.696   3.858   5.150
81606SOL    HW246716   0.725   3.729   5.223
81607SOL     OW46717  13.386   4.391   8.052
81607SOL    HW146718  13.324   4.356   7.988
81607SOL    HW246719  13.334   4.448   8.108
81608SOL     OW46720  12.576   9.496   9.877
81608SOL    HW146721  12.563   9.553   9.953
81608SOL    HW246722  12.671   9.482   9.874
81609SOL     OW46723  14.489   6.189   3.408
81609SOL    HW146724  14.466   6.272   3.451
81609SOL    HW246725  14.577   6.205   3.372
81610SOL     OW46726  14.703  11.296  11.974
81610SOL    HW146727  14.769  11.351  12.017
81610SOL    HW246728  14.706  11.213  12.022
81611SOL     OW46729  14.422   2.072  10.197
81611SOL    HW146730  14.511   2.075  10.232
81611SOL    HW246731  14.383   1.995  10.239
81612SOL     OW46732   9.440   3.109   3.450
81612SOL    HW146733   9.432   3.053   3.527
81612SOL    HW246734   9.462   3.049   3.379
81613SOL     OW46735  13.745  11.499   3.795
81613SOL    HW146736  13.771  11.591   3.799
81613SOL    HW246737  13.675  11.492   3.861
81614SOL     OW46738   2.166   9.054   1.042
81614SOL    HW146739   2.110   8.997   1.094
81614SOL    HW246740   2.196   9.122   1.103
81615SOL     OW46741  13.417   7.769  14.369
81615SOL    HW146742  13.478   7.732  14.432
81615SOL    HW246743  13.367   7.693  14.337
81616SOL     OW46744  11.030   2.083  11.512
81616SOL    HW146745  11.064   2.172  11.519
81616SOL    HW246746  11.053   2.055  11.424
81617SOL     OW46747   1.438  10.190  12.356
81617SOL    HW146748   1.379  10.244  12.409
81617SOL    HW246749   1.526  10.221  12.379
81618SOL     OW46750   1.884  14.382   1.165
81618SOL    HW146751   1.945  14.451   1.139
81618SOL    HW246752   1.934  14.328   1.226
81619SOL     OW46753   2.487  11.273   8.075
81619SOL    HW146754   2.411  11.329   8.093
81619SOL    HW246755   2.533  11.319   8.004
81620SOL     OW46756  11.279  11.364   7.805
81620SOL    HW146757  11.284  11.345   7.899
81620SOL    HW246758  11.369  11.388   7.781
81621SOL     OW46759   2.834   3.765  12.046
81621SOL    HW146760   2.773   3.752  11.973
81621SOL    HW246761   2.806   3.849  12.084
81622SOL     OW46762   0.245  13.436   3.994
81622SOL    HW146763   0.247  13.413   4.087
81622SOL    HW246764   0.152  13.437   3.972
81623SOL     OW46765   5.135   3.960   6.050
81623SOL    HW146766   5.119   3.883   6.104
81623SOL    HW246767   5.230   3.958   6.035
81624SOL     OW46768   0.781   9.352  10.735
81624SOL    HW146769   0.689   9.378  10.740
81624SOL    HW246770   0.829   9.424  10.774
81625SOL     OW46771   4.164  14.627   5.771
81625SOL    HW146772   4.202  14.628   5.859
81625SOL    HW246773   4.119  14.711   5.763
81626SOL     OW46774   2.624   0.734   0.114
81626SOL    HW146775   2.695   0.759   0.174
81626SOL    HW246776   2.601   0.815   0.069
81627SOL     OW46777   7.152   3.016   1.040
81627SOL    HW146778   7.150   3.061   1.124
81627SOL    HW246779   7.195   3.077   0.980
81628SOL     OW46780   3.702   0.223  10.834
81628SOL    HW146781   3.788   0.259  10.856
81628SOL    HW246782   3.721   0.153  10.771
81629SOL     OW46783  14.503  14.099   3.307
81629SOL    HW146784  14.507  14.060   3.395
81629SOL    HW246785  14.529  14.190   3.320
81630SOL     OW46786   9.365   2.449   5.601
81630SOL    HW146787   9.349   2.357   5.620
81630SOL    HW246788   9.285   2.494   5.630
81631SOL     OW46789   0.451  10.003   6.174
81631SOL    HW146790   0.445   9.981   6.081
81631SOL    HW246791   0.545  10.018   6.189
81632SOL     OW46792   1.032   5.674  13.605
81632SOL    HW146793   1.004   5.727  13.531
81632SOL    HW246794   1.070   5.596  13.565
81633SOL     OW46795   2.583   4.679  13.331
81633SOL    HW146796   2.641   4.643  13.399
81633SOL    HW246797   2.519   4.729  13.380
81634SOL     OW46798  12.527  14.076   6.547
81634SOL    HW146799  12.547  14.087   6.454
81634SOL    HW246800  12.579  14.000   6.574
81635SOL     OW46801   2.765   8.324   8.821
81635SOL    HW146802   2.840   8.306   8.877
81635SOL    HW246803   2.689   8.293   8.871
81636SOL     OW46804  14.250   3.744  13.114
81636SOL    HW146805  14.191   3.753  13.190
81636SOL    HW246806  14.311   3.817  13.123
81637SOL     OW46807   0.366   5.283   1.204
81637SOL    HW146808   0.389   5.242   1.121
81637SOL    HW246809   0.321   5.215   1.253
81638SOL     OW46810   3.740   5.362  14.374
81638SOL    HW146811   3.830   5.388  14.395
81638SOL    HW246812   3.699   5.349  14.460
81639SOL     OW46813  14.176   9.405   9.366
81639SOL    HW146814  14.152   9.422   9.275
81639SOL    HW246815  14.228   9.325   9.362
81640SOL     OW46816   6.659   5.667   0.617
81640SOL    HW146817   6.626   5.707   0.697
81640SOL    HW246818   6.585   5.667   0.557
81641SOL     OW46819   5.804   9.771   7.183
81641SOL    HW146820   5.752   9.725   7.249
81641SOL    HW246821   5.741   9.795   7.115
81642SOL     OW46822   9.601   8.213   0.303
81642SOL    HW146823   9.679   8.194   0.250
81642SOL    HW246824   9.576   8.302   0.278
81643SOL     OW46825  14.587   0.101   7.715
81643SOL    HW146826  14.649   0.134   7.780
81643SOL    HW246827  14.624   0.017   7.686
81644SOL     OW46828   0.513   0.746   6.729
81644SOL    HW146829   0.478   0.708   6.809
81644SOL    HW246830   0.571   0.816   6.759
81645SOL     OW46831   6.166   4.950  10.731
81645SOL    HW146832   6.145   5.037  10.697
81645SOL    HW246833   6.083   4.916  10.763
81646SOL     OW46834   1.370   4.373   8.241
81646SOL    HW146835   1.284   4.378   8.199
81646SOL    HW246836   1.423   4.321   8.181
81647SOL     OW46837  11.222   9.496  14.787
81647SOL    HW146838  11.126   9.495  14.786
81647SOL    HW246839  11.245   9.521   0.002
81648SOL     OW46840   2.074   3.365   9.016
81648SOL    HW146841   2.169   3.378   9.017
81648SOL    HW246842   2.041   3.433   8.957
81649SOL     OW46843   4.749   5.348   1.278
81649SOL    HW146844   4.733   5.411   1.348
81649SOL    HW246845   4.662   5.327   1.244
81650SOL     OW46846   3.262   6.216  13.792
81650SOL    HW146847   3.335   6.184  13.739
81650SOL    HW246848   3.184   6.202  13.738
81651SOL     OW46849   4.506   1.592  14.251
81651SOL    HW146850   4.515   1.586  14.346
81651SOL    HW246851   4.588   1.556  14.217
81652SOL     OW46852  11.035   2.701   9.561
81652SOL    HW146853  11.125   2.677   9.581
81652SOL    HW246854  10.995   2.718   9.646
81653SOL     OW46855   7.348   5.745   4.960
81653SOL    HW146856   7.411   5.692   5.009
81653SOL    HW246857   7.345   5.705   4.873
81654SOL     OW46858  14.221   0.209  12.034
81654SOL    HW146859  14.145   0.151  12.039
81654SOL    HW246860  14.285   0.161  11.982
81655SOL     OW46861   9.689   2.175   5.253
81655SOL    HW146862   9.721   2.162   5.163
81655SOL    HW246863   9.728   2.103   5.302
81656SOL     OW46864   0.487  11.840  11.360
81656SOL    HW146865   0.505  11.876  11.447
81656SOL    HW246866   0.522  11.905  11.299
81657SOL     OW46867   0.925   6.394   9.347
81657SOL    HW146868   0.992   6.461   9.359
81657SOL    HW246869   0.843   6.442   9.341
81658SOL     OW46870  14.411  12.439  12.166
81658SOL    HW146871  14.486  12.471  12.115
81658SOL    HW246872  14.441  12.441  12.257
81659SOL     OW46873   4.747   6.214   2.142
81659SOL    HW146874   4.669   6.168   2.109
81659SOL    HW246875   4.716   6.262   2.218
81660SOL     OW46876   3.449   5.231   9.229
81660SOL    HW146877   3.374   5.291   9.237
81660SOL    HW246878   3.522   5.287   9.203
81661SOL     OW46879   0.316   7.885   7.155
81661SOL    HW146880   0.410   7.897   7.165
81661SOL    HW246881   0.295   7.931   7.073
81662SOL     OW46882   5.133   6.790  11.750
81662SOL    HW146883   5.211   6.825  11.793
81662SOL    HW246884   5.164   6.759  11.665
81663SOL     OW46885   3.319   1.219   3.021
81663SOL    HW146886   3.232   1.229   3.058
81663SOL    HW246887   3.376   1.269   3.079
81664SOL     OW46888   3.904   5.365   2.968
81664SOL    HW146889   3.913   5.434   3.033
81664SOL    HW246890   3.833   5.394   2.910
81665SOL     OW46891   1.385   2.859   2.134
81665SOL    HW146892   1.456   2.896   2.080
81665SOL    HW246893   1.337   2.935   2.166
81666SOL     OW46894   2.623   6.895   1.817
81666SOL    HW146895   2.555   6.865   1.756
81666SOL    HW246896   2.699   6.913   1.761
81667SOL     OW46897  12.946   3.968   7.815
81667SOL    HW146898  12.915   4.059   7.810
81667SOL    HW246899  12.868   3.916   7.799
81668SOL     OW46900  14.173  12.683   7.678
81668SOL    HW146901  14.181  12.765   7.726
81668SOL    HW246902  14.079  12.665   7.677
81669SOL     OW46903   2.878  13.985   4.805
81669SOL    HW146904   2.952  14.046   4.810
81669SOL    HW246905   2.826  14.015   4.731
81670SOL     OW46906   0.983  11.106   1.503
81670SOL    HW146907   1.012  11.187   1.544
81670SOL    HW246908   1.021  11.037   1.556
81671SOL     OW46909  13.017   7.440   7.826
81671SOL    HW146910  13.093   7.425   7.882
81671SOL    HW246911  12.964   7.361   7.836
81672SOL     OW46912   9.682   9.438   7.086
81672SOL    HW146913   9.709   9.346   7.088
81672SOL    HW246914   9.644   9.453   7.172
81673SOL     OW46915  12.494   7.358  11.241
81673SOL    HW146916  12.569   7.416  11.256
81673SOL    HW246917  12.452   7.351  11.327
81674SOL     OW46918   5.387   7.826   5.048
81674SOL    HW146919   5.474   7.863   5.062
81674SOL    HW246920   5.374   7.829   4.953
81675SOL     OW46921   4.617   5.335  13.216
81675SOL    HW146922   4.647   5.258  13.264
81675SOL    HW246923   4.550   5.302  13.157
81676SOL     OW46924   4.479  14.508  13.819
81676SOL    HW146925   4.513  14.420  13.799
81676SOL    HW246926   4.531  14.566  13.764
81677SOL     OW46927  10.903   7.517  13.161
81677SOL    HW146928  10.910   7.608  13.191
81677SOL    HW246929  10.965   7.469  13.216
81678SOL     OW46930  13.467   4.380  13.591
81678SOL    HW146931  13.391   4.327  13.615
81678SOL    HW246932  13.433   4.469  13.583
81679SOL     OW46933   6.519   8.775   1.351
81679SOL    HW146934   6.500   8.796   1.442
81679SOL    HW246935   6.615   8.775   1.345
81680SOL     OW46936  11.515   0.436   8.356
81680SOL    HW146937  11.506   0.511   8.297
81680SOL    HW246938  11.461   0.458   8.432
81681SOL     OW46939   6.730   8.239  11.100
81681SOL    HW146940   6.786   8.299  11.150
81681SOL    HW246941   6.668   8.296  11.055
81682SOL     OW46942   2.791  12.838   1.616
81682SOL    HW146943   2.854  12.903   1.584
81682SOL    HW246944   2.846  12.766   1.648
81683SOL     OW46945   9.756   2.465   8.345
81683SOL    HW146946   9.688   2.433   8.285
81683SOL    HW246947   9.830   2.485   8.288
81684SOL     OW46948  13.435   3.931  11.760
81684SOL    HW146949  13.417   4.024  11.744
81684SOL    HW246950  13.378   3.885  11.698
81685SOL     OW46951   6.048  10.813  13.735
81685SOL    HW146952   6.012  10.760  13.805
81685SOL    HW246953   6.072  10.750  13.667
81686SOL     OW46954   5.196   4.854  13.881
81686SOL    HW146955   5.214   4.776  13.827
81686SOL    HW246956   5.262   4.850  13.950
81687SOL     OW46957   5.490   3.640   9.684
81687SOL    HW146958   5.447   3.557   9.706
81687SOL    HW246959   5.572   3.637   9.734
81688SOL     OW46960   8.419   1.872   4.570
81688SOL    HW146961   8.359   1.843   4.500
81688SOL    HW246962   8.494   1.909   4.523
81689SOL     OW46963  10.446   7.796  13.597
81689SOL    HW146964  10.362   7.784  13.552
81689SOL    HW246965  10.444   7.734  13.670
81690SOL     OW46966   5.361   9.919   1.573
81690SOL    HW146967   5.393   9.849   1.629
81690SOL    HW246968   5.271   9.933   1.600
81691SOL     OW46969   1.926   1.860  12.958
81691SOL    HW146970   1.880   1.885  12.878
81691SOL    HW246971   1.888   1.916  13.026
81692SOL     OW46972   0.554  12.211   1.034
81692SOL    HW146973   0.640  12.182   1.004
81692SOL    HW246974   0.558  12.306   1.030
81693SOL     OW46975   9.552   9.354   5.100
81693SOL    HW146976   9.577   9.421   5.164
81693SOL    HW246977   9.633   9.305   5.085
81694SOL     OW46978   0.133   6.127   8.826
81694SOL    HW146979   0.133   6.223   8.827
81694SOL    HW246980   0.198   6.103   8.760
81695SOL     OW46981   1.560  10.021   8.075
81695SOL    HW146982   1.630  10.044   8.013
81695SOL    HW246983   1.569  10.086   8.145
81696SOL     OW46984   8.789   9.989   2.849
81696SOL    HW146985   8.720   9.980   2.783
81696SOL    HW246986   8.815   9.898   2.867
81697SOL     OW46987  12.636   5.352   5.163
81697SOL    HW146988  12.665   5.261   5.154
81697SOL    HW246989  12.666   5.378   5.251
81698SOL     OW46990   1.141   6.778   5.862
81698SOL    HW146991   1.233   6.805   5.855
81698SOL    HW246992   1.113   6.813   5.947
81699SOL     OW46993   7.259   0.686   0.968
81699SOL    HW146994   7.169   0.653   0.976
81699SOL    HW246995   7.313   0.607   0.969
81700SOL     OW46996   2.499   1.156   8.062
81700SOL    HW146997   2.525   1.190   7.976
81700SOL    HW246998   2.442   1.224   8.097
81701SOL     OW46999   3.878   0.499   0.230
81701SOL    HW147000   3.962   0.463   0.201
81701SOL    HW247001   3.856   0.449   0.308
81702SOL     OW47002   0.803  12.169   9.070
81702SOL    HW147003   0.761  12.191   9.154
81702SOL    HW247004   0.732  12.174   9.006
81703SOL     OW47005  10.915   1.837  13.684
81703SOL    HW147006  10.858   1.870  13.753
81703SOL    HW247007  10.910   1.904  13.615
81704SOL     OW47008   1.515   6.229   3.745
81704SOL    HW147009   1.605   6.243   3.772
81704SOL    HW247010   1.506   6.279   3.664
81705SOL     OW47011   0.465  11.469   5.208
81705SOL    HW147012   0.542  11.499   5.256
81705SOL    HW247013   0.403  11.542   5.216
81706SOL     OW47014   2.594   9.095   0.194
81706SOL    HW147015   2.679   9.059   0.169
81706SOL    HW247016   2.604   9.190   0.183
81707SOL     OW47017  12.050  14.436  14.346
81707SOL    HW147018  12.100  14.388  14.412
81707SOL    HW247019  11.960  14.434  14.379
81708SOL     OW47020   8.864  14.824   4.799
81708SOL    HW147021   8.908  14.773   4.731
81708SOL    HW247022   8.777  14.841   4.763
81709SOL     OW47023  12.718  11.597   7.221
81709SOL    HW147024  12.804  11.633   7.242
81709SOL    HW247025  12.667  11.673   7.193
81710SOL     OW47026   4.630  12.790  14.174
81710SOL    HW147027   4.709  12.781  14.227
81710SOL    HW247028   4.630  12.882  14.146
81711SOL     OW47029   8.746   2.320  11.955
81711SOL    HW147030   8.785   2.233  11.964
81711SOL    HW247031   8.651   2.304  11.960
81712SOL     OW47032   5.242   6.075   4.059
81712SOL    HW147033   5.262   6.048   3.969
81712SOL    HW247034   5.192   6.002   4.095
81713SOL     OW47035   4.206   3.265   8.622
81713SOL    HW147036   4.290   3.309   8.633
81713SOL    HW247037   4.191   3.265   8.528
81714SOL     OW47038  11.632   3.039   3.311
81714SOL    HW147039  11.594   3.125   3.291
81714SOL    HW247040  11.561   2.977   3.295
81715SOL     OW47041   5.531  12.117   7.635
81715SOL    HW147042   5.497  12.028   7.635
81715SOL    HW247043   5.515  12.148   7.546
81716SOL     OW47044   5.999  10.818   3.028
81716SOL    HW147045   6.013  10.911   3.012
81716SOL    HW247046   5.963  10.784   2.946
81717SOL     OW47047  13.386   7.116  14.089
81717SOL    HW147048  13.387   7.178  14.016
81717SOL    HW247049  13.313   7.146  14.144
81718SOL     OW47050   7.548  13.384  10.273
81718SOL    HW147051   7.593  13.330  10.208
81718SOL    HW247052   7.612  13.451  10.296
81719SOL     OW47053  11.789   9.383   9.446
81719SOL    HW147054  11.744   9.450   9.497
81719SOL    HW247055  11.882   9.408   9.450
81720SOL     OW47056   2.855   0.988   5.134
81720SOL    HW147057   2.818   0.946   5.056
81720SOL    HW247058   2.786   1.047   5.164
81721SOL     OW47059   8.793   6.172   4.324
81721SOL    HW147060   8.846   6.164   4.245
81721SOL    HW247061   8.794   6.266   4.344
81722SOL     OW47062   3.540   2.601  13.980
81722SOL    HW147063   3.531   2.654  13.901
81722SOL    HW247064   3.545   2.665  14.051
81723SOL     OW47065   0.892   1.104   0.664
81723SOL    HW147066   0.799   1.087   0.654
81723SOL    HW247067   0.934   1.021   0.642
81724SOL     OW47068   7.018   7.294   3.652
81724SOL    HW147069   6.929   7.318   3.678
81724SOL    HW247070   7.010   7.206   3.617
81725SOL     OW47071   4.796   0.460   1.182
81725SOL    HW147072   4.752   0.406   1.248
81725SOL    HW247073   4.865   0.404   1.148
81726SOL     OW47074  11.158  12.195   5.261
81726SOL    HW147075  11.156  12.105   5.295
81726SOL    HW247076  11.066  12.221   5.259
81727SOL     OW47077   3.876  11.915   9.515
81727SOL    HW147078   3.937  11.951   9.579
81727SOL    HW247079   3.837  11.839   9.558
81728SOL     OW47080   5.588   3.919  14.555
81728SOL    HW147081   5.656   3.950  14.614
81728SOL    HW247082   5.544   3.999  14.525
81729SOL     OW47083   9.131   9.936   4.680
81729SOL    HW147084   9.180   9.916   4.601
81729SOL    HW247085   9.181  10.006   4.723
81730SOL     OW47086   4.620  14.312   3.282
81730SOL    HW147087   4.535  14.289   3.245
81730SOL    HW247088   4.642  14.396   3.241
81731SOL     OW47089   7.518  13.522   3.605
81731SOL    HW147090   7.445  13.583   3.607
81731SOL    HW247091   7.505  13.472   3.525
81732SOL     OW47092   1.064   6.682   2.491
81732SOL    HW147093   1.000   6.681   2.562
81732SOL    HW247094   1.145   6.714   2.531
81733SOL     OW47095   2.650  11.548   0.728
81733SOL    HW147096   2.645  11.454   0.745
81733SOL    HW247097   2.685  11.555   0.639
81734SOL     OW47098   4.267   3.530   1.550
81734SOL    HW147099   4.278   3.437   1.532
81734SOL    HW247100   4.350   3.570   1.523
81735SOL     OW47101   8.368   8.368  14.406
81735SOL    HW147102   8.314   8.408  14.338
81735SOL    HW247103   8.423   8.306  14.358
81736SOL     OW47104   3.664   7.091   9.965
81736SOL    HW147105   3.600   7.024   9.942
81736SOL    HW247106   3.662   7.094  10.061
81737SOL     OW47107  11.036   4.345   8.589
81737SOL    HW147108  11.087   4.264   8.592
81737SOL    HW247109  11.100   4.415   8.600
81738SOL     OW47110   5.930   3.007  11.796
81738SOL    HW147111   5.950   2.963  11.713
81738SOL    HW247112   5.922   3.100  11.773
81739SOL     OW47113   0.580  14.432  10.024
81739SOL    HW147114   0.644  14.480   9.972
81739SOL    HW247115   0.619  14.346  10.037
81740SOL     OW47116  11.063   6.373   0.262
81740SOL    HW147117  11.070   6.279   0.247
81740SOL    HW247118  11.030   6.381   0.351
81741SOL     OW47119  13.466   2.311   3.452
81741SOL    HW147120  13.524   2.257   3.398
81741SOL    HW247121  13.449   2.389   3.399
81742SOL     OW47122  10.237  11.414   5.549
81742SOL    HW147123  10.218  11.323   5.528
81742SOL    HW247124  10.190  11.431   5.630
81743SOL     OW47125   0.991  10.004   8.968
81743SOL    HW147126   1.015   9.970   8.882
81743SOL    HW247127   0.908  10.050   8.955
81744SOL     OW47128  10.015   7.569  11.052
81744SOL    HW147129   9.951   7.636  11.077
81744SOL    HW247130   9.970   7.515  10.987
81745SOL     OW47131  13.695  12.205   4.049
81745SOL    HW147132  13.756  12.167   4.111
81745SOL    HW247133  13.750  12.236   3.977
81746SOL     OW47134   7.031  12.913   2.655
81746SOL    HW147135   7.005  12.907   2.747
81746SOL    HW247136   6.980  12.986   2.620
81747SOL     OW47137   5.960   3.716   7.943
81747SOL    HW147138   5.952   3.775   8.018
81747SOL    HW247139   6.042   3.669   7.959
81748SOL     OW47140   4.780  14.383   8.544
81748SOL    HW147141   4.843  14.334   8.491
81748SOL    HW247142   4.780  14.471   8.505
81749SOL     OW47143  11.910   7.132   5.574
81749SOL    HW147144  11.934   7.045   5.542
81749SOL    HW247145  11.964   7.145   5.652
81750SOL     OW47146  14.125  12.424   7.059
81750SOL    HW147147  14.149  12.444   7.149
81750SOL    HW247148  14.158  12.335   7.045
81751SOL     OW47149   8.480   5.547  12.883
81751SOL    HW147150   8.499   5.558  12.789
81751SOL    HW247151   8.483   5.636  12.918
81752SOL     OW47152   2.554   9.265  14.733
81752SOL    HW147153   2.531   9.172  14.740
81752SOL    HW247154   2.586   9.274  14.643
81753SOL     OW47155   8.827  11.683   9.007
81753SOL    HW147156   8.737  11.705   9.030
81753SOL    HW247157   8.860  11.636   9.083
81754SOL     OW47158   3.103   6.960  14.851
81754SOL    HW147159   3.187   7.007  14.851
81754SOL    HW247160   3.073   6.967  14.760
81755SOL     OW47161   6.827  12.227   4.951
81755SOL    HW147162   6.920  12.249   4.952
81755SOL    HW247163   6.802  12.227   4.859
81756SOL     OW47164   0.831  13.049   2.208
81756SOL    HW147165   0.875  12.995   2.142
81756SOL    HW247166   0.753  13.081   2.164
81757SOL     OW47167   4.038   5.944   1.892
81757SOL    HW147168   4.065   5.934   1.800
81757SOL    HW247169   4.006   6.034   1.897
81758SOL     OW47170   1.063   9.148   3.572
81758SOL    HW147171   1.128   9.079   3.588
81758SOL    HW247172   0.998   9.136   3.641
81759SOL     OW47173   7.950   8.075  10.800
81759SOL    HW147174   8.021   8.107  10.743
81759SOL    HW247175   7.927   8.150  10.854
81760SOL     OW47176   7.834  12.151   8.954
81760SOL    HW147177   7.831  12.204   8.875
81760SOL    HW247178   7.811  12.211   9.024
81761SOL     OW47179   7.361  13.577   3.247
81761SOL    HW147180   7.268  13.554   3.254
81761SOL    HW247181   7.366  13.629   3.167
81762SOL     OW47182   0.506   8.441   7.886
81762SOL    HW147183   0.446   8.456   7.958
81762SOL    HW247184   0.588   8.414   7.927
81763SOL     OW47185  12.560  12.214  11.827
81763SOL    HW147186  12.502  12.260  11.888
81763SOL    HW247187  12.533  12.245  11.741
81764SOL     OW47188   8.584   0.393   3.514
81764SOL    HW147189   8.495   0.378   3.484
81764SOL    HW247190   8.623   0.306   3.520
81765SOL     OW47191  12.080   9.568   0.143
81765SOL    HW147192  12.053   9.594   0.232
81765SOL    HW247193  12.015   9.609   0.086
81766SOL     OW47194   4.489   9.035  11.610
81766SOL    HW147195   4.533   8.977  11.672
81766SOL    HW247196   4.559   9.087  11.572
81767SOL     OW47197  14.236  12.575  13.715
81767SOL    HW147198  14.281  12.645  13.668
81767SOL    HW247199  14.241  12.500  13.655
81768SOL     OW47200   6.192  13.212   7.252
81768SOL    HW147201   6.209  13.306   7.264
81768SOL    HW247202   6.116  13.194   7.306
81769SOL     OW47203   6.867  14.533   1.842
81769SOL    HW147204   6.779  14.561   1.816
81769SOL    HW247205   6.887  14.586   1.919
81770SOL     OW47206   2.066   5.793  13.182
81770SOL    HW147207   2.051   5.885  13.163
81770SOL    HW247208   2.016   5.776  13.262
81771SOL     OW47209  11.223   6.979  13.262
81771SOL    HW147210  11.214   7.055  13.320
81771SOL    HW247211  11.133   6.959  13.234
81772SOL     OW47212  12.376   3.431  11.610
81772SOL    HW147213  12.333   3.479  11.682
81772SOL    HW247214  12.355   3.482  11.532
81773SOL     OW47215  13.095   5.843   3.860
81773SOL    HW147216  13.114   5.803   3.945
81773SOL    HW247217  13.103   5.937   3.876
81774SOL     OW47218   2.897  10.927   4.940
81774SOL    HW147219   2.947  10.920   4.859
81774SOL    HW247220   2.809  10.952   4.912
81775SOL     OW47221   4.751   3.381   4.448
81775SOL    HW147222   4.714   3.310   4.501
81775SOL    HW247223   4.675   3.429   4.416
81776SOL     OW47224   2.217   2.188  14.519
81776SOL    HW147225   2.221   2.177  14.614
81776SOL    HW247226   2.233   2.281  14.506
81777SOL     OW47227   5.076  12.253   5.423
81777SOL    HW147228   5.144  12.317   5.444
81777SOL    HW247229   5.037  12.231   5.508
81778SOL     OW47230  10.890   3.334  14.818
81778SOL    HW147231  10.899   3.401   0.011
81778SOL    HW247232  10.808   3.355  14.774
81779SOL     OW47233   7.895  13.042   6.605
81779SOL    HW147234   7.856  13.129   6.616
81779SOL    HW247235   7.840  12.985   6.660
81780SOL     OW47236  11.252  11.843   8.275
81780SOL    HW147237  11.279  11.788   8.349
81780SOL    HW247238  11.285  11.930   8.297
81781SOL     OW47239   7.125   2.200   2.072
81781SOL    HW147240   7.178   2.228   2.147
81781SOL    HW247241   7.040   2.179   2.109
81782SOL     OW47242  11.909   1.086   9.848
81782SOL    HW147243  11.853   1.067   9.773
81782SOL    HW247244  11.952   1.169   9.826
81783SOL     OW47245   9.591   1.256   0.118
81783SOL    HW147246   9.522   1.190   0.124
81783SOL    HW247247   9.673   1.207   0.122
81784SOL     OW47248   8.704   1.531   2.645
81784SOL    HW147249   8.746   1.446   2.657
81784SOL    HW247250   8.733   1.561   2.559
81785SOL     OW47251   6.266   0.209   7.597
81785SOL    HW147252   6.190   0.264   7.576
81785SOL    HW247253   6.340   0.254   7.555
81786SOL     OW47254   3.033   0.810   2.738
81786SOL    HW147255   2.985   0.729   2.721
81786SOL    HW247256   3.039   0.815   2.833
81787SOL     OW47257   0.045  10.054  14.036
81787SOL    HW147258   0.058  10.144  14.005
81787SOL    HW247259   0.111  10.003  13.990
81788SOL     OW47260  11.289   8.796   0.461
81788SOL    HW147261  11.364   8.757   0.507
81788SOL    HW247262  11.230   8.823   0.531
81789SOL     OW47263   8.289   6.887  12.245
81789SOL    HW147264   8.349   6.846  12.184
81789SOL    HW247265   8.251   6.960  12.196
81790SOL     OW47266   0.423   8.057  10.077
81790SOL    HW147267   0.383   7.983  10.032
81790SOL    HW247268   0.501   8.020  10.119
81791SOL     OW47269   7.446   9.799   9.189
81791SOL    HW147270   7.403   9.863   9.133
81791SOL    HW247271   7.402   9.716   9.170
81792SOL     OW47272   2.620   7.402   5.338
81792SOL    HW147273   2.663   7.464   5.279
81792SOL    HW247274   2.615   7.320   5.289
81793SOL     OW47275   6.569   2.880  11.417
81793SOL    HW147276   6.564   2.873  11.322
81793SOL    HW247277   6.612   2.964  11.433
81794SOL     OW47278  13.809  11.632   5.923
81794SOL    HW147279  13.721  11.627   5.959
81794SOL    HW247280  13.866  11.627   6.000
81795SOL     OW47281  12.311   4.840  14.607
81795SOL    HW147282  12.219   4.847  14.634
81795SOL    HW247283  12.354   4.798  14.681
81796SOL     OW47284   2.645  14.093  14.844
81796SOL    HW147285   2.584  14.060   0.036
81796SOL    HW247286   2.651  14.022  14.780
81797SOL     OW47287   4.200   7.755  14.603
81797SOL    HW147288   4.168   7.739  14.691
81797SOL    HW247289   4.138   7.709  14.546
81798SOL     OW47290   2.433   7.715  12.871
81798SOL    HW147291   2.397   7.738  12.956
81798SOL    HW247292   2.356   7.706  12.814
81799SOL     OW47293   0.372   0.728  12.837
81799SOL    HW147294   0.309   0.776  12.784
81799SOL    HW247295   0.340   0.737  12.927
81800SOL     OW47296   3.188  12.651  12.736
81800SOL    HW147297   3.277  12.676  12.758
81800SOL    HW247298   3.171  12.572  12.788
81801SOL     OW47299   0.563   6.117   7.524
81801SOL    HW147300   0.546   6.100   7.431
81801SOL    HW247301   0.569   6.213   7.530
81802SOL     OW47302  13.614   4.023  13.278
81802SOL    HW147303  13.587   4.024  13.186
81802SOL    HW247304  13.684   4.088  13.283
81803SOL     OW47305   1.150   1.510   3.202
81803SOL    HW147306   1.175   1.419   3.214
81803SOL    HW247307   1.075   1.507   3.142
81804SOL     OW47308   8.972  12.229  11.398
81804SOL    HW147309   9.044  12.244  11.337
81804SOL    HW247310   8.951  12.316  11.432
81805SOL     OW47311  12.562  13.320  11.618
81805SOL    HW147312  12.594  13.401  11.577
81805SOL    HW247313  12.512  13.276  11.549
81806SOL     OW47314  14.567   6.715  13.063
81806SOL    HW147315  14.602   6.777  12.999
81806SOL    HW247316  14.505   6.766  13.115
81807SOL     OW47317   0.139   4.392   4.800
81807SOL    HW147318   0.146   4.325   4.868
81807SOL    HW247319   0.146   4.475   4.847
81808SOL     OW47320   7.140  10.719   0.584
81808SOL    HW147321   7.213  10.657   0.583
81808SOL    HW247322   7.150  10.767   0.666
81809SOL     OW47323   4.135  12.644   9.251
81809SOL    HW147324   4.160  12.600   9.170
81809SOL    HW247325   4.190  12.723   9.253
81810SOL     OW47326   7.835   1.555   5.457
81810SOL    HW147327   7.766   1.600   5.505
81810SOL    HW247328   7.888   1.626   5.419
81811SOL     OW47329   4.836   3.126  13.031
81811SOL    HW147330   4.842   3.214  13.067
81811SOL    HW247331   4.919   3.114  12.984
81812SOL     OW47332   7.448  10.978   2.342
81812SOL    HW147333   7.426  11.065   2.375
81812SOL    HW247334   7.517  10.946   2.400
81813SOL     OW47335  14.698   2.645   0.834
81813SOL    HW147336  14.611   2.656   0.796
81813SOL    HW247337  14.720   2.732   0.869
81814SOL     OW47338   9.394   2.320   5.906
81814SOL    HW147339   9.414   2.411   5.930
81814SOL    HW247340   9.353   2.283   5.985
81815SOL     OW47341   9.974  13.009  11.217
81815SOL    HW147342  10.052  13.049  11.178
81815SOL    HW247343   9.912  13.081  11.225
81816SOL     OW47344   1.602   7.058  12.046
81816SOL    HW147345   1.543   7.130  12.068
81816SOL    HW247346   1.663   7.053  12.119
81817SOL     OW47347  12.926   3.377   7.747
81817SOL    HW147348  12.901   3.382   7.839
81817SOL    HW247349  12.988   3.304   7.744
81818SOL     OW47350   1.310   1.985   3.317
81818SOL    HW147351   1.266   2.069   3.306
81818SOL    HW247352   1.402   2.003   3.301
81819SOL     OW47353   0.457   3.822   6.117
81819SOL    HW147354   0.400   3.760   6.071
81819SOL    HW247355   0.428   3.908   6.087
81820SOL     OW47356  14.663   8.895  13.155
81820SOL    HW147357  14.575   8.933  13.157
81820SOL    HW247358  14.649   8.802  13.141
81821SOL     OW47359   7.376   0.585   4.957
81821SOL    HW147360   7.375   0.561   4.864
81821SOL    HW247361   7.379   0.681   4.957
81822SOL     OW47362  14.280  13.226   5.444
81822SOL    HW147363  14.242  13.308   5.412
81822SOL    HW247364  14.285  13.171   5.366
81823SOL     OW47365   1.344  12.392   2.669
81823SOL    HW147366   1.320  12.301   2.650
81823SOL    HW247367   1.394  12.421   2.593
81824SOL     OW47368   9.115  10.038   8.869
81824SOL    HW147369   9.042   9.988   8.833
81824SOL    HW247370   9.078  10.122   8.894
81825SOL     OW47371   6.568  14.114   9.783
81825SOL    HW147372   6.603  14.159   9.860
81825SOL    HW247373   6.528  14.035   9.818
81826SOL     OW47374  10.714   9.656   3.100
81826SOL    HW147375  10.758   9.601   3.165
81826SOL    HW247376  10.786   9.692   3.047
81827SOL     OW47377   5.266   4.945   8.224
81827SOL    HW147378   5.295   4.965   8.135
81827SOL    HW247379   5.171   4.942   8.218
81828SOL     OW47380   4.060   2.277  11.176
81828SOL    HW147381   4.044   2.331  11.099
81828SOL    HW247382   4.115   2.206  11.144
81829SOL     OW47383   6.584   7.591   5.101
81829SOL    HW147384   6.609   7.678   5.133
81829SOL    HW247385   6.594   7.598   5.006
81830SOL     OW47386   3.223   6.072   3.467
81830SOL    HW147387   3.205   6.107   3.380
81830SOL    HW247388   3.140   6.035   3.497
81831SOL     OW47389   0.596   5.481   1.971
81831SOL    HW147390   0.622   5.445   2.056
81831SOL    HW247391   0.614   5.575   1.978
81832SOL     OW47392   5.760   4.797  13.664
81832SOL    HW147393   5.725   4.776  13.751
81832SOL    HW247394   5.789   4.888  13.671
81833SOL     OW47395   8.357   1.625  11.141
81833SOL    HW147396   8.442   1.667  11.150
81833SOL    HW247397   8.296   1.685  11.183
81834SOL     OW47398  11.831  12.219   6.775
81834SOL    HW147399  11.813  12.272   6.698
81834SOL    HW247400  11.748  12.176   6.795
81835SOL     OW47401  14.097   8.283   0.147
81835SOL    HW147402  14.094   8.366   0.100
81835SOL    HW247403  14.012   8.278   0.191
81836SOL     OW47404  12.587  13.569  11.431
81836SOL    HW147405  12.647  13.640  11.452
81836SOL    HW247406  12.517  13.610  11.380
81837SOL     OW47407  11.387   4.612  10.137
81837SOL    HW147408  11.303   4.571  10.154
81837SOL    HW247409  11.424   4.629  10.224
81838SOL     OW47410  11.701   8.808  11.892
81838SOL    HW147411  11.731   8.716  11.891
81838SOL    HW247412  11.770   8.854  11.940
81839SOL     OW47413   9.679   6.406   5.998
81839SOL    HW147414   9.644   6.319   6.016
81839SOL    HW247415   9.690   6.446   6.084
81840SOL     OW47416   3.853   9.317   4.895
81840SOL    HW147417   3.922   9.276   4.843
81840SOL    HW247418   3.853   9.408   4.867
81841SOL     OW47419  12.393   4.930   0.194
81841SOL    HW147420  12.443   4.933   0.112
81841SOL    HW247421  12.321   4.870   0.176
81842SOL     OW47422   0.898   7.033  12.352
81842SOL    HW147423   0.949   7.006  12.276
81842SOL    HW247424   0.814   6.988  12.342
81843SOL     OW47425  13.728  14.363  13.211
81843SOL    HW147426  13.802  14.420  13.190
81843SOL    HW247427  13.669  14.418  13.263
81844SOL     OW47428   6.441  12.036  12.729
81844SOL    HW147429   6.381  12.096  12.773
81844SOL    HW247430   6.505  12.012  12.797
81845SOL     OW47431  12.246   4.348   6.900
81845SOL    HW147432  12.308   4.343   6.973
81845SOL    HW247433  12.205   4.434   6.909
81846SOL     OW47434  12.695  10.378  11.550
81846SOL    HW147435  12.742  10.309  11.596
81846SOL    HW247436  12.608  10.378  11.590
81847SOL     OW47437  10.217   4.763  14.494
81847SOL    HW147438  10.297   4.765  14.441
81847SOL    HW247439  10.244   4.800  14.578
81848SOL     OW47440   9.098  10.188  13.078
81848SOL    HW147441   9.085  10.261  13.138
81848SOL    HW247442   9.188  10.196  13.048
81849SOL     OW47443   2.389   1.391  12.342
81849SOL    HW147444   2.323   1.458  12.364
81849SOL    HW247445   2.362   1.359  12.256
81850SOL     OW47446  14.073  13.266   4.931
81850SOL    HW147447  14.149  13.323   4.944
81850SOL    HW247448  14.090  13.223   4.847
81851SOL     OW47449  11.485   7.815  12.220
81851SOL    HW147450  11.558   7.832  12.280
81851SOL    HW247451  11.451   7.902  12.200
81852SOL     OW47452   7.426   1.351   2.128
81852SOL    HW147453   7.419   1.308   2.043
81852SOL    HW247454   7.420   1.280   2.191
81853SOL     OW47455   2.239  14.434   0.324
81853SOL    HW147456   2.266  14.524   0.309
81853SOL    HW247457   2.162  14.441   0.380
81854SOL     OW47458   7.988   0.052  14.758
81854SOL    HW147459   8.052   0.108  14.716
81854SOL    HW247460   7.964  14.863  14.691
81855SOL     OW47461  14.343  12.280   4.554
81855SOL    HW147462  14.311  12.230   4.628
81855SOL    HW247463  14.433  12.249   4.542
81856SOL     OW47464  13.969   4.253  12.210
81856SOL    HW147465  13.894   4.198  12.189
81856SOL    HW247466  14.041   4.192  12.225
81857SOL     OW47467  11.919   3.322   6.301
81857SOL    HW147468  11.872   3.284   6.375
81857SOL    HW247469  12.011   3.320   6.327
81858SOL     OW47470   3.632   3.096   6.991
81858SOL    HW147471   3.682   3.065   6.916
81858SOL    HW247472   3.687   3.076   7.067
81859SOL     OW47473   1.443   6.745   5.783
81859SOL    HW147474   1.430   6.794   5.702
81859SOL    HW247475   1.499   6.671   5.757
81860SOL     OW47476   3.955   7.597   5.605
81860SOL    HW147477   3.967   7.531   5.673
81860SOL    HW247478   3.925   7.675   5.652
81861SOL     OW47479   9.373   2.887   0.802
81861SOL    HW147480   9.317   2.855   0.732
81861SOL    HW247481   9.312   2.925   0.866
81862SOL     OW47482  12.845  12.431   4.829
81862SOL    HW147483  12.831  12.514   4.873
81862SOL    HW247484  12.939  12.416   4.834
81863SOL     OW47485  12.602   5.308   3.059
81863SOL    HW147486  12.593   5.233   3.001
81863SOL    HW247487  12.691   5.302   3.093
81864SOL     OW47488   3.157  12.452   1.479
81864SOL    HW147489   3.214  12.455   1.402
81864SOL    HW247490   3.212  12.416   1.548
81865SOL     OW47491   3.310   2.051   9.261
81865SOL    HW147492   3.225   2.093   9.271
81865SOL    HW247493   3.290   1.957   9.255
81866SOL     OW47494   2.160   5.611  11.977
81866SOL    HW147495   2.105   5.682  11.945
81866SOL    HW247496   2.204   5.648  12.053
81867SOL     OW47497   7.554  14.167  10.043
81867SOL    HW147498   7.499  14.092  10.066
81867SOL    HW247499   7.528  14.236  10.103
81868SOL     OW47500   2.715  11.146   3.166
81868SOL    HW147501   2.709  11.052   3.185
81868SOL    HW247502   2.765  11.182   3.239
81869SOL     OW47503  13.971   9.212   0.905
81869SOL    HW147504  14.017   9.278   0.956
81869SOL    HW247505  14.039   9.153   0.873
81870SOL     OW47506   8.014  11.323   3.270
81870SOL    HW147507   7.974  11.399   3.228
81870SOL    HW247508   8.037  11.265   3.197
81871SOL     OW47509   1.248  13.714   8.083
81871SOL    HW147510   1.321  13.769   8.113
81871SOL    HW247511   1.276  13.683   7.996
81872SOL     OW47512   3.602  11.350   5.050
81872SOL    HW147513   3.679  11.347   5.108
81872SOL    HW247514   3.633  11.396   4.972
81873SOL     OW47515   8.597  13.493   7.044
81873SOL    HW147516   8.610  13.398   7.041
81873SOL    HW247517   8.684  13.528   7.065
81874SOL     OW47518  14.823  13.806   0.851
81874SOL    HW147519  14.728  13.792   0.856
81874SOL    HW247520  14.842  13.805   0.758
81875SOL     OW47521  12.192   3.913   8.756
81875SOL    HW147522  12.273   3.864   8.775
81875SOL    HW247523  12.187   3.979   8.825
81876SOL     OW47524  12.138   4.403  12.586
81876SOL    HW147525  12.058   4.446  12.617
81876SOL    HW247526  12.204   4.423  12.652
81877SOL     OW47527  11.637  10.381  13.588
81877SOL    HW147528  11.730  10.379  13.610
81877SOL    HW247529  11.593  10.402  13.670
81878SOL     OW47530   3.126   7.407   7.169
81878SOL    HW147531   3.082   7.412   7.085
81878SOL    HW247532   3.213   7.371   7.149
81879SOL     OW47533  13.422   3.666  13.450
81879SOL    HW147534  13.430   3.755  13.417
81879SOL    HW247535  13.500   3.621  13.420
81880SOL     OW47536   8.926   6.850   2.641
81880SOL    HW147537   8.990   6.793   2.682
81880SOL    HW247538   8.978   6.915   2.593
81881SOL     OW47539   4.083   7.112  10.836
81881SOL    HW147540   4.085   7.067  10.751
81881SOL    HW247541   4.175   7.132  10.854
81882SOL     OW47542  13.086   7.975   4.909
81882SOL    HW147543  13.021   7.931   4.963
81882SOL    HW247544  13.155   7.910   4.897
81883SOL     OW47545   7.511   8.590   7.030
81883SOL    HW147546   7.556   8.507   7.050
81883SOL    HW247547   7.419   8.566   7.021
81884SOL     OW47548   8.384   4.384  14.749
81884SOL    HW147549   8.350   4.427  14.828
81884SOL    HW247550   8.324   4.311  14.734
81885SOL     OW47551   7.001   2.191  11.636
81885SOL    HW147552   6.985   2.147  11.720
81885SOL    HW247553   7.038   2.276  11.660
81886SOL     OW47554   9.510   7.628   2.560
81886SOL    HW147555   9.488   7.568   2.631
81886SOL    HW247556   9.579   7.683   2.596
81887SOL     OW47557  12.163  11.361   4.333
81887SOL    HW147558  12.239  11.350   4.390
81887SOL    HW247559  12.199  11.357   4.244
81888SOL     OW47560   1.713  11.129  11.909
81888SOL    HW147561   1.701  11.222  11.888
81888SOL    HW247562   1.808  11.119  11.918
81889SOL     OW47563   4.707   2.829  12.583
81889SOL    HW147564   4.612   2.830  12.589
81889SOL    HW247565   4.737   2.797  12.668
81890SOL     OW47566   6.981   2.546   6.969
81890SOL    HW147567   6.899   2.565   7.015
81890SOL    HW247568   6.996   2.623   6.913
81891SOL     OW47569   9.823   4.838   8.571
81891SOL    HW147570   9.765   4.776   8.613
81891SOL    HW247571   9.766   4.892   8.515
81892SOL     OW47572   3.502   8.193   5.107
81892SOL    HW147573   3.517   8.106   5.070
81892SOL    HW247574   3.434   8.180   5.173
81893SOL     OW47575   6.567  14.308   5.951
81893SOL    HW147576   6.613  14.361   5.887
81893SOL    HW247577   6.636  14.267   6.003
81894SOL     OW47578   2.259   4.622  11.435
81894SOL    HW147579   2.355   4.620  11.436
81894SOL    HW247580   2.236   4.602  11.345
81895SOL     OW47581   2.138   8.265   4.443
81895SOL    HW147582   2.188   8.274   4.524
81895SOL    HW247583   2.059   8.317   4.457
81896SOL     OW47584   8.258  12.511   2.681
81896SOL    HW147585   8.300  12.446   2.626
81896SOL    HW247586   8.329  12.551   2.731
81897SOL     OW47587  12.627  13.095   7.717
81897SOL    HW147588  12.699  13.046   7.678
81897SOL    HW247589  12.569  13.115   7.644
81898SOL     OW47590   7.618  11.936   8.514
81898SOL    HW147591   7.711  11.959   8.507
81898SOL    HW247592   7.591  11.921   8.424
81899SOL     OW47593   5.636   2.286  10.374
81899SOL    HW147594   5.653   2.286  10.468
81899SOL    HW247595   5.705   2.341  10.337
81900SOL     OW47596   9.532   3.172   5.182
81900SOL    HW147597   9.605   3.159   5.242
81900SOL    HW247598   9.560   3.242   5.124
81901SOL     OW47599   5.395   5.068   0.557
81901SOL    HW147600   5.420   5.094   0.468
81901SOL    HW247601   5.474   5.085   0.609
81902SOL     OW47602   0.992   4.503   0.230
81902SOL    HW147603   1.084   4.510   0.255
81902SOL    HW247604   0.989   4.530   0.138
81903SOL     OW47605   9.053   4.520   4.107
81903SOL    HW147606   8.987   4.584   4.078
81903SOL    HW247607   9.006   4.437   4.109
81904SOL     OW47608   6.037  14.747   3.970
81904SOL    HW147609   5.989  14.666   3.958
81904SOL    HW247610   6.043  14.785   3.882
81905SOL     OW47611   5.209   7.393   2.526
81905SOL    HW147612   5.275   7.438   2.473
81905SOL    HW247613   5.217   7.433   2.613
81906SOL     OW47614  13.149   2.539  11.382
81906SOL    HW147615  13.081   2.603  11.365
81906SOL    HW247616  13.188   2.522  11.296
81907SOL     OW47617   9.264   5.980  11.603
81907SOL    HW147618   9.299   5.920  11.536
81907SOL    HW247619   9.171   5.987  11.582
81908SOL     OW47620  14.642   9.497   1.487
81908SOL    HW147621  14.724   9.508   1.438
81908SOL    HW247622  14.579   9.551   1.441
81909SOL     OW47623   4.260   5.173  13.565
81909SOL    HW147624   4.354   5.165  13.548
81909SOL    HW247625   4.224   5.086  13.549
81910SOL     OW47626   8.702  14.619   1.233
81910SOL    HW147627   8.620  14.587   1.194
81910SOL    HW247628   8.713  14.707   1.196
81911SOL     OW47629   1.354  10.650   6.458
81911SOL    HW147630   1.347  10.692   6.544
81911SOL    HW247631   1.316  10.564   6.470
81912SOL     OW47632  11.731   0.266  14.758
81912SOL    HW147633  11.824   0.268  14.737
81912SOL    HW247634  11.717   0.345  14.811
81913SOL     OW47635   2.362   7.257   2.414
81913SOL    HW147636   2.393   7.287   2.500
81913SOL    HW247637   2.440   7.256   2.359
81914SOL     OW47638   6.925   6.824   1.175
81914SOL    HW147639   6.887   6.759   1.233
81914SOL    HW247640   6.850   6.864   1.131
81915SOL     OW47641   8.234  11.227   9.514
81915SOL    HW147642   8.200  11.265   9.595
81915SOL    HW247643   8.308  11.173   9.542
81916SOL     OW47644   6.848   2.724  12.460
81916SOL    HW147645   6.844   2.810  12.420
81916SOL    HW247646   6.799   2.667  12.401
81917SOL     OW47647   3.208   6.414  11.739
81917SOL    HW147648   3.254   6.348  11.688
81917SOL    HW247649   3.272   6.486  11.747
81918SOL     OW47650  12.402  12.913  12.252
81918SOL    HW147651  12.365  12.963  12.325
81918SOL    HW247652  12.328  12.894  12.195
81919SOL     OW47653  12.479  12.220   5.287
81919SOL    HW147654  12.522  12.136   5.298
81919SOL    HW247655  12.547  12.285   5.306
81920SOL     OW47656  10.615   4.386  11.200
81920SOL    HW147657  10.709   4.371  11.189
81920SOL    HW247658  10.604   4.405  11.294
81921SOL     OW47659   2.246   6.167   5.277
81921SOL    HW147660   2.328   6.117   5.277
81921SOL    HW247661   2.187   6.116   5.222
81922SOL     OW47662   1.658   9.397   8.417
81922SOL    HW147663   1.723   9.367   8.481
81922SOL    HW247664   1.687   9.485   8.393
81923SOL     OW47665   1.583   7.878   1.000
81923SOL    HW147666   1.658   7.931   0.975
81923SOL    HW247667   1.607   7.839   1.084
81924SOL     OW47668   2.903  12.558  13.123
81924SOL    HW147669   2.813  12.555  13.158
81924SOL    HW247670   2.897  12.618  13.048
81925SOL     OW47671   4.532   0.084   0.088
81925SOL    HW147672   4.530   0.176   0.118
81925SOL    HW247673   4.621   0.071   0.056
81926SOL     OW47674  13.723   5.306   8.365
81926SOL    HW147675  13.677   5.299   8.449
81926SOL    HW247676  13.732   5.216   8.335
81927SOL     OW47677   6.583   4.949   7.515
81927SOL    HW147678   6.602   5.042   7.529
81927SOL    HW247679   6.501   4.934   7.563
81928SOL     OW47680   0.319   0.083   3.848
81928SOL    HW147681   0.257   0.053   3.914
81928SOL    HW247682   0.295   0.034   3.769
81929SOL     OW47683   7.281  11.367  11.839
81929SOL    HW147684   7.238  11.282  11.834
81929SOL    HW247685   7.216  11.429  11.806
81930SOL     OW47686  10.540  13.682   0.424
81930SOL    HW147687  10.630  13.688   0.458
81930SOL    HW247688  10.487  13.730   0.488
81931SOL     OW47689   3.819   7.407  13.971
81931SOL    HW147690   3.889   7.466  14.000
81931SOL    HW247691   3.748   7.422  14.033
81932SOL     OW47692  13.328   5.189   6.017
81932SOL    HW147693  13.262   5.126   6.046
81932SOL    HW247694  13.408   5.137   6.007
81933SOL     OW47695  14.096  12.854   6.757
81933SOL    HW147696  14.047  12.832   6.835
81933SOL    HW247697  14.181  12.885   6.789
81934SOL     OW47698  12.077   7.256   3.761
81934SOL    HW147699  12.112   7.167   3.752
81934SOL    HW247700  11.982   7.245   3.764
81935SOL     OW47701  12.983  10.119   4.040
81935SOL    HW147702  13.009  10.192   4.097
81935SOL    HW247703  12.890  10.133   4.024
81936SOL     OW47704   6.082  10.075   8.803
81936SOL    HW147705   5.986  10.083   8.804
81936SOL    HW247706   6.104  10.048   8.892
81937SOL     OW47707   2.706   4.852  12.503
81937SOL    HW147708   2.634   4.914  12.514
81937SOL    HW247709   2.670   4.783  12.446
81938SOL     OW47710  11.545   4.394   3.080
81938SOL    HW147711  11.515   4.408   3.170
81938SOL    HW247712  11.636   4.365   3.090
81939SOL     OW47713   3.179  11.842   6.365
81939SOL    HW147714   3.231  11.786   6.308
81939SOL    HW247715   3.174  11.926   6.319
81940SOL     OW47716  13.184   4.863  12.983
81940SOL    HW147717  13.106   4.892  12.935
81940SOL    HW247718  13.157   4.865  13.075
81941SOL     OW47719   0.416  11.993   0.191
81941SOL    HW147720   0.485  12.047   0.228
81941SOL    HW247721   0.445  11.974   0.102
81942SOL     OW47722  14.495   1.959  13.399
81942SOL    HW147723  14.576   2.009  13.391
81942SOL    HW247724  14.520   1.870  13.372
81943SOL     OW47725   1.374   6.982   7.553
81943SOL    HW147726   1.358   7.041   7.627
81943SOL    HW247727   1.368   6.895   7.591
81944SOL     OW47728   9.349   0.244  10.833
81944SOL    HW147729   9.296   0.193  10.894
81944SOL    HW247730   9.334   0.335  10.859
81945SOL     OW47731  10.480   9.950   0.570
81945SOL    HW147732  10.421   9.879   0.545
81945SOL    HW247733  10.445  10.027   0.525
81946SOL     OW47734   2.361  14.176  13.553
81946SOL    HW147735   2.299  14.228  13.604
81946SOL    HW247736   2.308  14.106  13.515
81947SOL     OW47737  11.167   9.667   8.863
81947SOL    HW147738  11.187   9.623   8.945
81947SOL    HW247739  11.192   9.605   8.795
81948SOL     OW47740  10.532   2.206   6.910
81948SOL    HW147741  10.555   2.113   6.910
81948SOL    HW247742  10.542   2.234   7.001
81949SOL     OW47743   5.697  12.928  10.951
81949SOL    HW147744   5.672  12.853  11.005
81949SOL    HW247745   5.638  12.925  10.876
81950SOL     OW47746   5.926   0.693   6.657
81950SOL    HW147747   5.868   0.752   6.704
81950SOL    HW247748   5.920   0.610   6.705
81951SOL     OW47749   8.365   4.992  12.894
81951SOL    HW147750   8.333   5.081  12.877
81951SOL    HW247751   8.456   4.993  12.863
81952SOL     OW47752   5.418   9.528   6.239
81952SOL    HW147753   5.349   9.487   6.291
81952SOL    HW247754   5.484   9.460   6.229
81953SOL     OW47755   0.040   9.811   6.102
81953SOL    HW147756   0.120   9.855   6.130
81953SOL    HW247757  14.847   9.878   6.108
81954SOL     OW47758  14.590   0.151   6.441
81954SOL    HW147759  14.620   0.103   6.518
81954SOL    HW247760  14.603   0.089   6.369
81955SOL     OW47761   3.227   8.511   0.884
81955SOL    HW147762   3.322   8.521   0.874
81955SOL    HW247763   3.203   8.446   0.818
81956SOL     OW47764   6.822   2.355   0.195
81956SOL    HW147765   6.816   2.309   0.279
81956SOL    HW247766   6.752   2.317   0.141
81957SOL     OW47767  12.203   7.929   4.973
81957SOL    HW147768  12.294   7.934   5.002
81957SOL    HW247769  12.160   8.004   5.015
81958SOL     OW47770   8.911   3.758   0.105
81958SOL    HW147771   8.840   3.816   0.132
81958SOL    HW247772   8.964   3.746   0.184
81959SOL     OW47773  12.757   6.842   9.002
81959SOL    HW147774  12.831   6.867   8.946
81959SOL    HW247775  12.703   6.786   8.946
81960SOL     OW47776  12.835   9.165  14.726
81960SOL    HW147777  12.771   9.124  14.667
81960SOL    HW247778  12.901   9.098  14.741
81961SOL     OW47779   3.456   4.303   4.793
81961SOL    HW147780   3.377   4.357   4.788
81961SOL    HW247781   3.496   4.326   4.877
81962SOL     OW47782   2.762   7.653  11.249
81962SOL    HW147783   2.737   7.648  11.156
81962SOL    HW247784   2.835   7.592  11.257
81963SOL     OW47785   3.318  13.297   4.190
81963SOL    HW147786   3.373  13.310   4.113
81963SOL    HW247787   3.252  13.234   4.162
81964SOL     OW47788   0.470   2.554   2.865
81964SOL    HW147789   0.534   2.514   2.923
81964SOL    HW247790   0.399   2.490   2.859
81965SOL     OW47791   2.334  12.356   1.861
81965SOL    HW147792   2.402  12.358   1.929
81965SOL    HW247793   2.361  12.285   1.802
81966SOL     OW47794   1.501  11.540   3.607
81966SOL    HW147795   1.554  11.585   3.672
81966SOL    HW247796   1.507  11.447   3.630
81967SOL     OW47797   6.148   1.078   1.517
81967SOL    HW147798   6.159   1.063   1.423
81967SOL    HW247799   6.168   1.171   1.529
81968SOL     OW47800  11.330   1.477   4.359
81968SOL    HW147801  11.248   1.429   4.365
81968SOL    HW247802  11.330   1.517   4.272
81969SOL     OW47803   6.491   0.882   8.796
81969SOL    HW147804   6.473   0.842   8.711
81969SOL    HW247805   6.577   0.924   8.786
81970SOL     OW47806   2.501  12.858  13.804
81970SOL    HW147807   2.468  12.936  13.850
81970SOL    HW247808   2.485  12.786  13.865
81971SOL     OW47809  13.632   3.703   6.928
81971SOL    HW147810  13.573   3.634   6.897
81971SOL    HW247811  13.642   3.761   6.853
81972SOL     OW47812  13.940   1.503   8.515
81972SOL    HW147813  13.999   1.431   8.536
81972SOL    HW247814  13.855   1.461   8.502
81973SOL     OW47815   4.826   6.312  13.966
81973SOL    HW147816   4.848   6.240  14.025
81973SOL    HW247817   4.841   6.276  13.878
81974SOL     OW47818  10.983  11.340   0.305
81974SOL    HW147819  11.060  11.327   0.362
81974SOL    HW247820  10.923  11.391   0.359
81975SOL     OW47821  11.518   4.864   2.754
81975SOL    HW147822  11.583   4.929   2.782
81975SOL    HW247823  11.550   4.833   2.669
81976SOL     OW47824  14.311   4.765   0.085
81976SOL    HW147825  14.333   4.729   0.171
81976SOL    HW247826  14.395   4.774   0.041
81977SOL     OW47827  11.363   7.580  12.178
81977SOL    HW147828  11.410   7.664  12.184
81977SOL    HW247829  11.432   7.515  12.165
81978SOL     OW47830   1.821   0.008   0.326
81978SOL    HW147831   1.733   0.040   0.346
81978SOL    HW247832   1.836   0.036   0.236
81979SOL     OW47833   4.128   8.789   0.832
81979SOL    HW147834   4.155   8.877   0.803
81979SOL    HW247835   4.032   8.790   0.824
81980SOL     OW47836  14.190   7.735   7.309
81980SOL    HW147837  14.114   7.790   7.327
81980SOL    HW247838  14.153   7.652   7.279
81981SOL     OW47839   8.638  10.509   8.231
81981SOL    HW147840   8.582  10.466   8.295
81981SOL    HW247841   8.657  10.440   8.166
81982SOL     OW47842   0.115   9.617   3.050
81982SOL    HW147843   0.024   9.588   3.061
81982SOL    HW247844   0.134   9.600   2.958
81983SOL     OW47845   4.591  14.166  12.297
81983SOL    HW147846   4.665  14.113  12.325
81983SOL    HW247847   4.524  14.150  12.363
81984SOL     OW47848  10.744  13.209   7.186
81984SOL    HW147849  10.837  13.228   7.176
81984SOL    HW247850  10.713  13.271   7.252
81985SOL     OW47851  11.720   7.326   9.372
81985SOL    HW147852  11.654   7.358   9.310
81985SOL    HW247853  11.675   7.325   9.456
81986SOL     OW47854   6.612   8.370  13.114
81986SOL    HW147855   6.647   8.307  13.177
81986SOL    HW247856   6.559   8.317  13.055
81987SOL     OW47857  10.848   6.944   1.516
81987SOL    HW147858  10.927   6.958   1.463
81987SOL    HW247859  10.796   7.023   1.503
81988SOL     OW47860   3.161   1.576   3.852
81988SOL    HW147861   3.075   1.601   3.817
81988SOL    HW247862   3.223   1.631   3.804
81989SOL     OW47863  14.277  14.509   4.828
81989SOL    HW147864  14.306  14.419   4.816
81989SOL    HW247865  14.183  14.506   4.813
81990SOL     OW47866  13.174   8.946   2.258
81990SOL    HW147867  13.236   8.896   2.311
81990SOL    HW247868  13.119   8.880   2.217
81991SOL     OW47869   7.553   3.957   3.756
81991SOL    HW147870   7.478   4.002   3.795
81991SOL    HW247871   7.619   3.956   3.826
81992SOL     OW47872   6.823   2.526   5.783
81992SOL    HW147873   6.774   2.590   5.732
81992SOL    HW247874   6.804   2.548   5.874
81993SOL     OW47875   7.092   8.856  14.792
81993SOL    HW147876   7.004   8.822  14.775
81993SOL    HW247877   7.125   8.800  14.863
81994SOL     OW47878  11.969   9.363   9.093
81994SOL    HW147879  11.935   9.315   9.017
81994SOL    HW247880  11.894   9.370   9.152
81995SOL     OW47881   0.437   2.250  14.287
81995SOL    HW147882   0.401   2.306  14.218
81995SOL    HW247883   0.528   2.238  14.263
81996SOL     OW47884   3.314  10.729   4.311
81996SOL    HW147885   3.340  10.782   4.386
81996SOL    HW247886   3.280  10.793   4.248
81997SOL     OW47887   5.389   2.604   0.550
81997SOL    HW147888   5.295   2.605   0.571
81997SOL    HW247889   5.432   2.615   0.635
81998SOL     OW47890  12.517   1.416  13.382
81998SOL    HW147891  12.441   1.428  13.325
81998SOL    HW247892  12.483   1.433  13.470
81999SOL     OW47893   5.296   7.484  11.110
81999SOL    HW147894   5.384   7.497  11.144
81999SOL    HW247895   5.239   7.502  11.184
82000SOL     OW47896  12.435   4.526   1.201
82000SOL    HW147897  12.444   4.432   1.183
82000SOL    HW247898  12.462   4.568   1.119
82001SOL     OW47899   7.603   2.274   4.321
82001SOL    HW147900   7.608   2.317   4.407
82001SOL    HW247901   7.676   2.211   4.322
82002SOL     OW47902   8.176   8.439  12.856
82002SOL    HW147903   8.197   8.454  12.948
82002SOL    HW247904   8.151   8.525  12.823
82003SOL     OW47905  14.038   1.391   0.790
82003SOL    HW147906  13.970   1.443   0.748
82003SOL    HW247907  14.116   1.403   0.735
82004SOL     OW47908   9.522  11.965   3.637
82004SOL    HW147909   9.559  12.047   3.668
82004SOL    HW247910   9.469  11.933   3.711
82005SOL     OW47911  12.830  12.837   4.582
82005SOL    HW147912  12.873  12.918   4.606
82005SOL    HW247913  12.749  12.864   4.539
82006SOL     OW47914   6.818   4.850   4.953
82006SOL    HW147915   6.739   4.842   4.899
82006SOL    HW247916   6.889   4.860   4.889
82007SOL     OW47917  13.773   8.067   2.208
82007SOL    HW147918  13.709   8.068   2.137
82007SOL    HW247919  13.852   8.031   2.169
82008SOL     OW47920   9.204   8.555   8.745
82008SOL    HW147921   9.131   8.505   8.784
82008SOL    HW247922   9.161   8.620   8.690
82009SOL     OW47923   2.361  12.449  12.430
82009SOL    HW147924   2.427  12.481  12.369
82009SOL    HW247925   2.405  12.380  12.479
82010SOL     OW47926   2.561   0.901   1.498
82010SOL    HW147927   2.581   0.808   1.496
82010SOL    HW247928   2.468   0.906   1.474
82011SOL     OW47929   5.191   9.592   5.252
82011SOL    HW147930   5.161   9.569   5.165
82011SOL    HW247931   5.287   9.593   5.245
82012SOL     OW47932  12.124   8.014   9.741
82012SOL    HW147933  12.068   8.025   9.818
82012SOL    HW247934  12.097   8.083   9.681
82013SOL     OW47935   2.980  13.038   6.438
82013SOL    HW147936   3.008  12.974   6.503
82013SOL    HW247937   3.047  13.035   6.370
82014SOL     OW47938   0.185   4.774   7.524
82014SOL    HW147939   0.111   4.721   7.552
82014SOL    HW247940   0.250   4.765   7.594
82015SOL     OW47941   3.063   2.618   2.393
82015SOL    HW147942   3.120   2.688   2.362
82015SOL    HW247943   3.122   2.544   2.410
82016SOL     OW47944  12.517   7.149   8.136
82016SOL    HW147945  12.539   7.060   8.106
82016SOL    HW247946  12.487   7.137   8.226
82017SOL     OW47947  11.220   6.881   3.082
82017SOL    HW147948  11.234   6.908   2.991
82017SOL    HW247949  11.151   6.814   3.076
82018SOL     OW47950   8.967   6.822  11.794
82018SOL    HW147951   9.007   6.799  11.710
82018SOL    HW247952   8.875   6.798  11.785
82019SOL     OW47953   8.005   9.718   6.034
82019SOL    HW147954   8.038   9.792   5.984
82019SOL    HW247955   7.910   9.731   6.038
82020SOL     OW47956  12.576   8.921   0.056
82020SOL    HW147957  12.580   8.890  14.840
82020SOL    HW247958  12.667   8.941   0.079
82021SOL     OW47959   3.024   5.894   3.528
82021SOL    HW147960   2.941   5.880   3.483
82021SOL    HW247961   3.000   5.898   3.621
82022SOL     OW47962  10.632   0.052  12.377
82022SOL    HW147963  10.614   0.118  12.310
82022SOL    HW247964  10.643  14.845  12.329
82023SOL     OW47965  12.890   3.938   8.463
82023SOL    HW147966  12.852   3.856   8.495
82023SOL    HW247967  12.969   3.910   8.416
82024SOL     OW47968   1.668   2.784   2.254
82024SOL    HW147969   1.634   2.870   2.229
82024SOL    HW247970   1.694   2.743   2.172
82025SOL     OW47971   1.894  13.459   2.405
82025SOL    HW147972   1.839  13.526   2.446
82025SOL    HW247973   1.880  13.471   2.311
82026SOL     OW47974   8.699   6.784  14.791
82026SOL    HW147975   8.749   6.705  14.773
82026SOL    HW247976   8.671   6.775   0.007
82027SOL     OW47977   5.055   5.068   2.346
82027SOL    HW147978   5.137   5.085   2.393
82027SOL    HW247979   4.991   5.125   2.389
82028SOL     OW47980  13.241   1.196  12.425
82028SOL    HW147981  13.180   1.247  12.371
82028SOL    HW247982  13.266   1.256  12.495
82029SOL     OW47983   4.551   5.473   7.537
82029SOL    HW147984   4.527   5.454   7.446
82029SOL    HW247985   4.597   5.395   7.566
82030SOL     OW47986  14.180  14.386  14.596
82030SOL    HW147987  14.149  14.394  14.686
82030SOL    HW247988  14.101  14.370  14.545
82031SOL     OW47989  12.449  12.813  13.365
82031SOL    HW147990  12.484  12.736  13.411
82031SOL    HW247991  12.393  12.856  13.429
82032SOL     OW47992  13.785   7.584   6.765
82032SOL    HW147993  13.837   7.661   6.788
82032SOL    HW247994  13.760   7.545   6.849
82033SOL     OW47995   4.380  10.936   2.915
82033SOL    HW147996   4.314  10.976   2.859
82033SOL    HW247997   4.332  10.871   2.966
82034SOL     OW47998   2.994   7.276   1.917
82034SOL    HW147999   3.053   7.338   1.961
82034SOL    HW248000   3.051   7.224   1.861
82035SOL     OW48001  11.682  12.019   3.646
82035SOL    HW148002  11.675  11.925   3.663
82035SOL    HW248003  11.596  12.054   3.671
82036SOL     OW48004  13.610   2.547   7.734
82036SOL    HW148005  13.623   2.454   7.752
82036SOL    HW248006  13.518   2.555   7.712
82037SOL     OW48007   5.211  11.982  12.942
82037SOL    HW148008   5.303  12.006  12.949
82037SOL    HW248009   5.181  11.974  13.033
82038SOL     OW48010   0.183   0.297   4.109
82038SOL    HW148011   0.107   0.324   4.056
82038SOL    HW248012   0.258   0.329   4.060
82039SOL     OW48013   4.033   6.581   5.693
82039SOL    HW148014   4.023   6.501   5.744
82039SOL    HW248015   4.072   6.643   5.755
82040SOL     OW48016   3.918  10.030   7.448
82040SOL    HW148017   3.883  10.029   7.359
82040SOL    HW248018   3.885   9.949   7.488
82041SOL     OW48019   2.458   7.557   2.965
82041SOL    HW148020   2.448   7.650   2.984
82041SOL    HW248021   2.370   7.527   2.944
82042SOL     OW48022   9.758   7.652   6.567
82042SOL    HW148023   9.737   7.736   6.527
82042SOL    HW248024   9.806   7.674   6.647
82043SOL     OW48025  12.135   8.793   8.371
82043SOL    HW148026  12.198   8.731   8.408
82043SOL    HW248027  12.073   8.810   8.442
82044SOL     OW48028   6.116  13.270   6.127
82044SOL    HW148029   6.048  13.278   6.059
82044SOL    HW248030   6.195  13.302   6.084
82045SOL     OW48031   2.951   3.439   5.758
82045SOL    HW148032   3.026   3.386   5.785
82045SOL    HW248033   2.959   3.520   5.808
82046SOL     OW48034   7.395  13.101   8.951
82046SOL    HW148035   7.380  13.191   8.981
82046SOL    HW248036   7.337  13.048   9.005
82047SOL     OW48037   5.150   5.349   0.851
82047SOL    HW148038   5.201   5.429   0.865
82047SOL    HW248039   5.112   5.330   0.937
82048SOL     OW48040  12.587   9.313   5.188
82048SOL    HW148041  12.535   9.327   5.267
82048SOL    HW248042  12.663   9.262   5.218
82049SOL     OW48043  10.058   6.405  12.808
82049SOL    HW148044   9.972   6.379  12.773
82049SOL    HW248045  10.086   6.476  12.751
82050SOL     OW48046   0.909  14.758  12.103
82050SOL    HW148047   0.858  14.781  12.026
82050SOL    HW248048   0.850  14.777  12.177
82051SOL     OW48049  14.785   6.976   9.269
82051SOL    HW148050  14.704   7.004   9.226
82051SOL    HW248051  14.806   7.048   9.329
82052SOL     OW48052   7.261  12.291  14.310
82052SOL    HW148053   7.180  12.302  14.260
82052SOL    HW248054   7.271  12.197  14.321
82053SOL     OW48055  14.688   4.776   0.296
82053SOL    HW148056  14.703   4.868   0.320
82053SOL    HW248057  14.741   4.726   0.358
82054SOL     OW48058  14.156   3.400   5.387
82054SOL    HW148059  14.243   3.362   5.371
82054SOL    HW248060  14.095   3.330   5.365
82055SOL     OW48061   6.506   1.367  13.854
82055SOL    HW148062   6.510   1.311  13.931
82055SOL    HW248063   6.487   1.455  13.889
82056SOL     OW48064   0.501  10.280   1.667
82056SOL    HW148065   0.510  10.244   1.579
82056SOL    HW248066   0.422  10.238   1.702
82057SOL     OW48067   6.891  11.585  12.146
82057SOL    HW148068   6.928  11.669  12.118
82057SOL    HW248069   6.967  11.527  12.155
82058SOL     OW48070   2.538  14.819   9.855
82058SOL    HW148071   2.620  14.844   9.897
82058SOL    HW248072   2.564  14.790   9.768
82059SOL     OW48073  13.063   4.442   3.710
82059SOL    HW148074  13.147   4.489   3.712
82059SOL    HW248075  13.082   4.360   3.665
82060SOL     OW48076   1.777  10.509  11.620
82060SOL    HW148077   1.760  10.525  11.713
82060SOL    HW248078   1.711  10.561  11.574
82061SOL     OW48079   0.443   6.085   1.565
82061SOL    HW148080   0.526   6.045   1.586
82061SOL    HW248081   0.448   6.103   1.471
82062SOL     OW48082   0.468  13.819   0.815
82062SOL    HW148083   0.495  13.773   0.894
82062SOL    HW248084   0.374  13.837   0.828
82063SOL     OW48085   1.602   4.807   6.497
82063SOL    HW148086   1.526   4.837   6.447
82063SOL    HW248087   1.567   4.787   6.584
82064SOL     OW48088  12.551  14.136  13.030
82064SOL    HW148089  12.563  14.059  13.085
82064SOL    HW248090  12.520  14.204  13.090
82065SOL     OW48091  12.832   8.267   5.356
82065SOL    HW148092  12.923   8.251   5.331
82065SOL    HW248093  12.833   8.355   5.394
82066SOL     OW48094   0.260   0.522   5.964
82066SOL    HW148095   0.328   0.501   6.027
82066SOL    HW248096   0.183   0.475   5.995
82067SOL     OW48097  11.190   0.658   6.510
82067SOL    HW148098  11.115   0.601   6.492
82067SOL    HW248099  11.235   0.616   6.583
82068SOL     OW48100   7.091   3.936   4.176
82068SOL    HW148101   7.085   3.917   4.083
82068SOL    HW248102   7.022   4.001   4.192
82069SOL     OW48103   8.064  12.097  11.221
82069SOL    HW148104   8.026  12.167  11.274
82069SOL    HW248105   8.029  12.016  11.259
82070SOL     OW48106  10.679  13.472  13.606
82070SOL    HW148107  10.655  13.542  13.545
82070SOL    HW248108  10.597  13.449  13.650
82071SOL     OW48109  11.967   6.710  10.060
82071SOL    HW148110  12.054   6.670  10.060
82071SOL    HW248111  11.983   6.804  10.073
82072SOL     OW48112  13.071  13.771   6.335
82072SOL    HW148113  13.057  13.865   6.334
82072SOL    HW248114  13.131  13.755   6.262
82073SOL     OW48115  11.082  14.092  10.775
82073SOL    HW148116  11.069  14.181  10.808
82073SOL    HW248117  11.157  14.099  10.716
82074SOL     OW48118   1.729   0.505   2.142
82074SOL    HW148119   1.774   0.559   2.207
82074SOL    HW248120   1.675   0.566   2.092
82075SOL     OW48121   3.125  13.086  14.102
82075SOL    HW148122   3.050  13.106  14.047
82075SOL    HW248123   3.125  13.155  14.169
82076SOL     OW48124  11.697   2.254   3.741
82076SOL    HW148125  11.692   2.231   3.648
82076SOL    HW248126  11.791   2.257   3.760
82077SOL     OW48127   5.609   8.822  14.751
82077SOL    HW148128   5.678   8.848  14.690
82077SOL    HW248129   5.533   8.803  14.695
82078SOL     OW48130   4.451  10.293   4.495
82078SOL    HW148131   4.420  10.234   4.564
82078SOL    HW248132   4.537  10.257   4.470
82079SOL     OW48133  10.957   4.151   3.290
82079SOL    HW148134  10.897   4.167   3.363
82079SOL    HW248135  10.948   4.058   3.271
82080SOL     OW48136  11.313  14.086   7.005
82080SOL    HW148137  11.230  14.044   7.030
82080SOL    HW248138  11.289  14.148   6.936
82081SOL     OW48139  13.967   1.695  11.957
82081SOL    HW148140  13.976   1.640  12.034
82081SOL    HW248141  13.939   1.634  11.888
82082SOL     OW48142  10.491  10.626   2.317
82082SOL    HW148143  10.514  10.669   2.399
82082SOL    HW248144  10.575  10.612   2.273
82083SOL     OW48145  11.091  13.484   3.203
82083SOL    HW148146  11.090  13.522   3.116
82083SOL    HW248147  10.999  13.486   3.231
82084SOL     OW48148  14.448  12.515  13.905
82084SOL    HW148149  14.501  12.444  13.869
82084SOL    HW248150  14.383  12.533  13.837
82085SOL     OW48151  12.236   9.914   7.585
82085SOL    HW148152  12.236   9.819   7.596
82085SOL    HW248153  12.210   9.948   7.670
82086SOL     OW48154   0.535   1.875   6.998
82086SOL    HW148155   0.590   1.834   6.931
82086SOL    HW248156   0.472   1.808   7.023
82087SOL     OW48157   8.221  11.858   5.281
82087SOL    HW148158   8.248  11.815   5.199
82087SOL    HW248159   8.272  11.814   5.349
82088SOL     OW48160   1.755  13.038   4.557
82088SOL    HW148161   1.757  13.012   4.649
82088SOL    HW248162   1.809  12.974   4.512
82089SOL     OW48163   9.768  14.311   1.451
82089SOL    HW148164   9.809  14.285   1.533
82089SOL    HW248165   9.694  14.367   1.477
82090SOL     OW48166   0.824   8.110  14.274
82090SOL    HW148167   0.918   8.119  14.292
82090SOL    HW248168   0.805   8.018  14.291
82091SOL     OW48169  12.284   4.694   8.705
82091SOL    HW148170  12.264   4.680   8.798
82091SOL    HW248171  12.214   4.648   8.658
82092SOL     OW48172   1.876   3.399   4.507
82092SOL    HW148173   1.919   3.419   4.590
82092SOL    HW248174   1.821   3.475   4.488
82093SOL     OW48175   4.650  13.023  10.909
82093SOL    HW148176   4.634  13.052  10.999
82093SOL    HW248177   4.711  13.088  10.873
82094SOL     OW48178  10.853   9.725   5.990
82094SOL    HW148179  10.798   9.799   6.017
82094SOL    HW248180  10.840   9.659   6.057
82095SOL     OW48181   2.143   3.124  10.587
82095SOL    HW148182   2.229   3.099  10.554
82095SOL    HW248183   2.092   3.043  10.584
82096SOL     OW48184   4.531   0.962   3.643
82096SOL    HW148185   4.583   0.938   3.720
82096SOL    HW248186   4.594   0.961   3.571
82097SOL     OW48187   1.964   8.388   5.456
82097SOL    HW148188   1.970   8.400   5.551
82097SOL    HW248189   1.898   8.452   5.428
82098SOL     OW48190   7.601   5.101   9.516
82098SOL    HW148191   7.635   5.063   9.435
82098SOL    HW248192   7.679   5.127   9.565
82099SOL     OW48193   5.166  11.349   9.597
82099SOL    HW148194   5.217  11.329   9.519
82099SOL    HW248195   5.191  11.281   9.660
82100SOL     OW48196   1.496   3.984   1.629
82100SOL    HW148197   1.495   3.942   1.543
82100SOL    HW248198   1.434   4.056   1.622
82101SOL     OW48199   1.144  12.678   4.402
82101SOL    HW148200   1.217  12.647   4.348
82101SOL    HW248201   1.146  12.773   4.393
82102SOL     OW48202  13.438  13.282   4.954
82102SOL    HW148203  13.478  13.317   5.034
82102SOL    HW248204  13.378  13.213   4.985
82103SOL     OW48205  14.177   4.050   0.149
82103SOL    HW148206  14.176   3.964   0.107
82103SOL    HW248207  14.086   4.065   0.176
82104SOL     OW48208  14.295   0.808  12.603
82104SOL    HW148209  14.202   0.830  12.610
82104SOL    HW248210  14.329   0.820  12.692
82105SOL     OW48211  14.368   7.751   8.867
82105SOL    HW148212  14.283   7.772   8.830
82105SOL    HW248213  14.349   7.681   8.931
82106SOL     OW48214   7.148   9.673   2.442
82106SOL    HW148215   7.082   9.724   2.393
82106SOL    HW248216   7.193   9.739   2.496
82107SOL     OW48217   3.538   7.226  11.102
82107SOL    HW148218   3.563   7.134  11.092
82107SOL    HW248219   3.620   7.274  11.085
82108SOL     OW48220   9.347  11.327   7.519
82108SOL    HW148221   9.356  11.320   7.424
82108SOL    HW248222   9.260  11.365   7.532
82109SOL     OW48223   2.407   8.709  14.292
82109SOL    HW148224   2.366   8.634  14.248
82109SOL    HW248225   2.388   8.784  14.235
82110SOL     OW48226  12.085   6.470  13.185
82110SOL    HW148227  12.060   6.378  13.179
82110SOL    HW248228  12.088   6.488  13.279
82111SOL     OW48229   5.870  14.769   1.382
82111SOL    HW148230   5.812  14.825   1.331
82111SOL    HW248231   5.948  14.822   1.397
82112SOL     OW48232   6.255   6.708   0.362
82112SOL    HW148233   6.304   6.685   0.441
82112SOL    HW248234   6.274   6.636   0.301
82113SOL     OW48235  13.545   1.928   7.411
82113SOL    HW148236  13.641   1.928   7.408
82113SOL    HW248237  13.523   1.874   7.487
82114SOL     OW48238   6.265   5.502   7.652
82114SOL    HW148239   6.299   5.564   7.588
82114SOL    HW248240   6.284   5.416   7.615
82115SOL     OW48241   7.359   2.629   9.934
82115SOL    HW148242   7.401   2.616   9.849
82115SOL    HW248243   7.287   2.689   9.916
82116SOL     OW48244  12.612   8.121   7.209
82116SOL    HW148245  12.558   8.191   7.248
82116SOL    HW248246  12.701   8.142   7.235
82117SOL     OW48247   0.935  12.827  11.902
82117SOL    HW148248   0.966  12.898  11.846
82117SOL    HW248249   0.978  12.841  11.986
82118SOL     OW48250   4.589   2.609   3.569
82118SOL    HW148251   4.557   2.636   3.655
82118SOL    HW248252   4.517   2.627   3.509
82119SOL     OW48253   3.156   8.964   5.102
82119SOL    HW148254   3.221   8.976   5.171
82119SOL    HW248255   3.192   9.012   5.027
82120SOL     OW48256   1.311  14.470   7.295
82120SOL    HW148257   1.245  14.519   7.245
82120SOL    HW248258   1.342  14.403   7.234
82121SOL     OW48259   6.074   8.355  13.820
82121SOL    HW148260   6.042   8.407  13.746
82121SOL    HW248261   6.019   8.277  13.820
82122SOL     OW48262   1.059  12.461   4.584
82122SOL    HW148263   1.114  12.527   4.543
82122SOL    HW248264   1.017  12.505   4.657
82123SOL     OW48265   5.721   8.933  13.778
82123SOL    HW148266   5.719   9.016  13.730
82123SOL    HW248267   5.789   8.882  13.734
82124SOL     OW48268   5.126   5.653   2.148
82124SOL    HW148269   5.031   5.650   2.152
82124SOL    HW248270   5.151   5.717   2.215
82125SOL     OW48271   5.879   9.052   2.652
82125SOL    HW148272   5.798   9.080   2.610
82125SOL    HW248273   5.895   8.964   2.617
82126SOL     OW48274   1.906  11.605  13.218
82126SOL    HW148275   1.947  11.613  13.304
82126SOL    HW248276   1.935  11.520  13.185
82127SOL     OW48277   1.235   2.828   9.010
82127SOL    HW148278   1.296   2.795   8.943
82127SOL    HW248279   1.287   2.830   9.090
82128SOL     OW48280   1.618   7.062  10.144
82128SOL    HW148281   1.526   7.038  10.131
82128SOL    HW248282   1.629   7.143  10.095
82129SOL     OW48283   3.652   8.900   2.253
82129SOL    HW148284   3.677   8.859   2.171
82129SOL    HW248285   3.561   8.925   2.242
82130SOL     OW48286  14.706   8.699  10.300
82130SOL    HW148287  14.731   8.788  10.272
82130SOL    HW248288  14.703   8.649  10.219
82131SOL     OW48289  12.425   8.823   7.674
82131SOL    HW148290  12.420   8.785   7.586
82131SOL    HW248291  12.336   8.852   7.692
82132SOL     OW48292  11.911  10.069   7.502
82132SOL    HW148293  11.987  10.088   7.446
82132SOL    HW248294  11.885  10.154   7.536
82133SOL     OW48295  10.643   5.459   6.867
82133SOL    HW148296  10.684   5.444   6.782
82133SOL    HW248297  10.550   5.444   6.852
82134SOL     OW48298   7.410  13.267   2.601
82134SOL    HW148299   7.427  13.327   2.528
82134SOL    HW248300   7.478  13.288   2.665
82135SOL     OW48301  12.662   7.162  14.777
82135SOL    HW148302  12.717   7.107  14.832
82135SOL    HW248303  12.575   7.122  14.781
82136SOL     OW48304  13.459   0.846   0.462
82136SOL    HW148305  13.538   0.822   0.511
82136SOL    HW248306  13.387   0.810   0.514
82137SOL     OW48307   5.583  14.060   2.388
82137SOL    HW148308   5.551  13.998   2.453
82137SOL    HW248309   5.517  14.129   2.387
82138SOL     OW48310   6.309   7.340   8.771
82138SOL    HW148311   6.249   7.302   8.835
82138SOL    HW248312   6.257   7.346   8.690
82139SOL     OW48313   0.619  14.199  11.708
82139SOL    HW148314   0.711  14.177  11.718
82139SOL    HW248315   0.574  14.150  11.777
82140SOL     OW48316   8.062   6.752   0.224
82140SOL    HW148317   8.155   6.776   0.222
82140SOL    HW248318   8.024   6.796   0.147
82141SOL     OW48319  12.263  14.138   7.797
82141SOL    HW148320  12.221  14.189   7.867
82141SOL    HW248321  12.201  14.141   7.725
82142SOL     OW48322  12.956  11.983   8.337
82142SOL    HW148323  12.913  12.066   8.356
82142SOL    HW248324  13.040  11.988   8.383
82143SOL     OW48325  14.666  10.183   2.314
82143SOL    HW148326  14.742  10.184   2.372
82143SOL    HW248327  14.597  10.225   2.364
82144SOL     OW48328   5.692  14.087  14.723
82144SOL    HW148329   5.779  14.047  14.720
82144SOL    HW248330   5.684  14.121  14.812
82145SOL     OW48331  11.460   7.767  11.086
82145SOL    HW148332  11.503   7.805  11.163
82145SOL    HW248333  11.378   7.816  11.078
82146SOL     OW48334   4.054   9.329   9.486
82146SOL    HW148335   4.043   9.351   9.393
82146SOL    HW248336   3.971   9.285   9.509
82147SOL     OW48337   3.273   1.166   5.994
82147SOL    HW148338   3.339   1.097   6.001
82147SOL    HW248339   3.190   1.123   6.010
82148SOL     OW48340  11.133   0.371   6.922
82148SOL    HW148341  11.138   0.301   6.988
82148SOL    HW248342  11.073   0.435   6.960
82149SOL     OW48343  10.236  12.594   4.061
82149SOL    HW148344  10.248  12.627   4.150
82149SOL    HW248345  10.325  12.587   4.026
82150SOL     OW48346  13.939  12.188   0.397
82150SOL    HW148347  13.983  12.117   0.444
82150SOL    HW248348  13.952  12.265   0.452
82151SOL     OW48349  13.817   5.107   7.910
82151SOL    HW148350  13.728   5.072   7.920
82151SOL    HW248351  13.869   5.032   7.882
82152SOL     OW48352  10.657   3.069   1.580
82152SOL    HW148353  10.588   3.069   1.647
82152SOL    HW248354  10.722   3.131   1.612
82153SOL     OW48355  13.071  14.762   9.834
82153SOL    HW148356  13.117  14.746   9.916
82153SOL    HW248357  13.108  14.699   9.773
82154SOL     OW48358   7.213   2.866   9.678
82154SOL    HW148359   7.283   2.836   9.621
82154SOL    HW248360   7.198   2.957   9.653
82155SOL     OW48361   0.094  10.469   2.208
82155SOL    HW148362   0.124  10.517   2.131
82155SOL    HW248363   0.034  10.403   2.174
82156SOL     OW48364   2.610   7.160   0.625
82156SOL    HW148365   2.674   7.137   0.692
82156SOL    HW248366   2.647   7.126   0.544
82157SOL     OW48367   5.930   8.733  10.397
82157SOL    HW148368   5.845   8.700  10.370
82157SOL    HW248369   5.932   8.721  10.492
82158SOL     OW48370   8.175  10.914  13.583
82158SOL    HW148371   8.178  10.857  13.506
82158SOL    HW248372   8.084  10.942  13.589
82159SOL     OW48373   5.530   7.337   4.139
82159SOL    HW148374   5.547   7.243   4.151
82159SOL    HW248375   5.609   7.370   4.096
82160SOL     OW48376  12.968   3.041   5.392
82160SOL    HW148377  13.002   3.129   5.374
82160SOL    HW248378  13.045   2.985   5.390
82161SOL     OW48379  14.172   0.593   5.619
82161SOL    HW148380  14.216   0.607   5.703
82161SOL    HW248381  14.233   0.628   5.554
82162SOL     OW48382   5.427   5.503   8.500
82162SOL    HW148383   5.466   5.564   8.563
82162SOL    HW248384   5.378   5.441   8.554
82163SOL     OW48385   5.332   7.816  14.673
82163SOL    HW148386   5.308   7.732  14.632
82163SOL    HW248387   5.321   7.801  14.767
82164SOL     OW48388   7.738   8.033   1.079
82164SOL    HW148389   7.830   8.060   1.084
82164SOL    HW248390   7.706   8.037   1.169
82165SOL     OW48391   6.657  12.964   7.801
82165SOL    HW148392   6.630  13.036   7.745
82165SOL    HW248393   6.594  12.894   7.783
82166SOL     OW48394   2.689   4.588  10.597
82166SOL    HW148395   2.700   4.663  10.655
82166SOL    HW248396   2.736   4.517  10.640
82167SOL     OW48397   8.046   0.423   9.385
82167SOL    HW148398   8.058   0.518   9.373
82167SOL    HW248399   8.123   0.384   9.345
82168SOL     OW48400   2.021   0.188  11.173
82168SOL    HW148401   2.024   0.272  11.219
82168SOL    HW248402   2.049   0.124  11.239
82169SOL     OW48403   9.902   2.635  11.434
82169SOL    HW148404   9.830   2.622  11.372
82169SOL    HW248405   9.861   2.677  11.510
82170SOL     OW48406  11.041  13.571   2.557
82170SOL    HW148407  11.086  13.650   2.585
82170SOL    HW248408  11.016  13.587   2.466
82171SOL     OW48409  10.383   5.456   5.160
82171SOL    HW148410  10.478   5.452   5.150
82171SOL    HW248411  10.368   5.528   5.221
82172SOL     OW48412   1.115   7.044  14.579
82172SOL    HW148413   1.092   7.079  14.494
82172SOL    HW248414   1.194   7.092  14.604
82173SOL     OW48415   7.095   5.648   1.155
82173SOL    HW148416   7.065   5.625   1.242
82173SOL    HW248417   7.014   5.658   1.104
82174SOL     OW48418   9.237  12.087   8.428
82174SOL    HW148419   9.329  12.063   8.435
82174SOL    HW248420   9.238  12.175   8.389
82175SOL     OW48421   5.482   8.793   1.508
82175SOL    HW148422   5.460   8.701   1.519
82175SOL    HW248423   5.440   8.837   1.581
82176SOL     OW48424   5.416  13.402  12.942
82176SOL    HW148425   5.461  13.427  12.861
82176SOL    HW248426   5.447  13.465  13.007
82177SOL     OW48427   0.538   9.679   0.745
82177SOL    HW148428   0.454   9.637   0.731
82177SOL    HW248429   0.602   9.621   0.703
82178SOL     OW48430  12.929   2.904   1.766
82178SOL    HW148431  12.983   2.869   1.837
82178SOL    HW248432  12.874   2.831   1.738
82179SOL     OW48433   4.955   4.560  10.161
82179SOL    HW148434   5.011   4.623  10.206
82179SOL    HW248435   5.013   4.512  10.103
82180SOL     OW48436   0.576  11.361  11.924
82180SOL    HW148437   0.568  11.332  11.833
82180SOL    HW248438   0.571  11.457  11.919
82181SOL     OW48439   3.745   4.243   7.607
82181SOL    HW148440   3.730   4.333   7.578
82181SOL    HW248441   3.803   4.252   7.683
82182SOL     OW48442   8.820  11.110   6.387
82182SOL    HW148443   8.764  11.043   6.427
82182SOL    HW248444   8.781  11.193   6.413
82183SOL     OW48445   6.934   6.284   2.984
82183SOL    HW148446   7.010   6.226   2.978
82183SOL    HW248447   6.884   6.265   2.905
82184SOL     OW48448   2.456  11.760   7.448
82184SOL    HW148449   2.449  11.741   7.542
82184SOL    HW248450   2.474  11.675   7.408
82185SOL     OW48451  10.220   7.197   7.965
82185SOL    HW148452  10.190   7.283   7.936
82185SOL    HW248453  10.181   7.136   7.901
82186SOL     OW48454  10.577   5.590   8.024
82186SOL    HW148455  10.624   5.508   8.034
82186SOL    HW248456  10.534   5.604   8.108
82187SOL     OW48457   7.956   3.006  13.823
82187SOL    HW148458   7.941   2.917  13.853
82187SOL    HW248459   8.008   3.047  13.892
82188SOL     OW48460   8.070  13.642  10.106
82188SOL    HW148461   8.091  13.703  10.177
82188SOL    HW248462   8.029  13.696  10.039
82189SOL     OW48463  13.037   8.947   8.313
82189SOL    HW148464  13.112   8.887   8.311
82189SOL    HW248465  13.077   9.034   8.318
82190SOL     OW48466   5.093  14.670  10.640
82190SOL    HW148467   5.095  14.758  10.603
82190SOL    HW248468   5.140  14.615  10.577
82191SOL     OW48469  11.470   5.621   5.056
82191SOL    HW148470  11.424   5.568   5.121
82191SOL    HW248471  11.532   5.674   5.106
82192SOL     OW48472   4.913   3.186   0.174
82192SOL    HW148473   4.908   3.140   0.258
82192SOL    HW248474   4.998   3.162   0.139
82193SOL     OW48475   6.751  13.289  12.123
82193SOL    HW148476   6.846  13.296  12.128
82193SOL    HW248477   6.719  13.378  12.140
82194SOL     OW48478   1.652   1.051  10.013
82194SOL    HW148479   1.558   1.042   9.999
82194SOL    HW248480   1.688   1.060   9.924
82195SOL     OW48481  11.380  10.835  11.314
82195SOL    HW148482  11.362  10.883  11.233
82195SOL    HW248483  11.297  10.793  11.336
82196SOL     OW48484   7.662   9.378  13.163
82196SOL    HW148485   7.752   9.365  13.136
82196SOL    HW248486   7.622   9.292  13.156
82197SOL     OW48487   8.950   3.818   2.711
82197SOL    HW148488   8.894   3.744   2.734
82197SOL    HW248489   8.890   3.892   2.701
82198SOL     OW48490   0.204   6.983   3.599
82198SOL    HW148491   0.254   6.943   3.528
82198SOL    HW248492   0.114   6.984   3.567
82199SOL     OW48493   3.286   2.125   5.737
82199SOL    HW148494   3.198   2.111   5.772
82199SOL    HW248495   3.335   2.048   5.764
82200SOL     OW48496   5.781  14.849  11.303
82200SOL    HW148497   5.705  14.792  11.288
82200SOL    HW248498   5.783  14.861  11.397
82201SOL     OW48499  10.779   6.566   5.142
82201SOL    HW148500  10.808   6.514   5.216
82201SOL    HW248501  10.846   6.553   5.075
82202SOL     OW48502   6.805   8.095   7.788
82202SOL    HW148503   6.734   8.098   7.851
82202SOL    HW248504   6.883   8.123   7.837
82203SOL     OW48505   7.122   4.363  10.142
82203SOL    HW148506   7.192   4.374  10.078
82203SOL    HW248507   7.168   4.345  10.225
82204SOL     OW48508   2.317   5.007   6.739
82204SOL    HW148509   2.308   4.965   6.654
82204SOL    HW248510   2.246   4.971   6.791
82205SOL     OW48511   3.041   1.763   5.214
82205SOL    HW148512   3.110   1.753   5.148
82205SOL    HW248513   2.963   1.787   5.164
82206SOL     OW48514  10.346   2.939   1.395
82206SOL    HW148515  10.315   2.874   1.458
82206SOL    HW248516  10.422   2.899   1.353
82207SOL     OW48517  11.053   2.647   4.561
82207SOL    HW148518  10.993   2.580   4.595
82207SOL    HW248519  10.999   2.725   4.551
82208SOL     OW48520   8.586  10.123   8.506
82208SOL    HW148521   8.562  10.067   8.580
82208SOL    HW248522   8.681  10.119   8.501
82209SOL     OW48523  12.739  14.511   3.542
82209SOL    HW148524  12.772  14.600   3.531
82209SOL    HW248525  12.811  14.463   3.583
82210SOL     OW48526  10.988   3.218  12.420
82210SOL    HW148527  10.917   3.155  12.407
82210SOL    HW248528  10.944   3.296  12.453
82211SOL     OW48529  12.277   3.004  10.282
82211SOL    HW148530  12.224   3.003  10.202
82211SOL    HW248531  12.298   2.912  10.298
82212SOL     OW48532   2.979   4.731   3.045
82212SOL    HW148533   2.918   4.804   3.053
82212SOL    HW248534   3.022   4.726   3.131
82213SOL     OW48535   1.821   9.460  12.416
82213SOL    HW148536   1.846   9.541  12.459
82213SOL    HW248537   1.888   9.397  12.444
82214SOL     OW48538  10.203  10.719   6.246
82214SOL    HW148539  10.186  10.742   6.155
82214SOL    HW248540  10.293  10.747   6.261
82215SOL     OW48541   4.488   3.357   0.866
82215SOL    HW148542   4.443   3.310   0.936
82215SOL    HW248543   4.571   3.384   0.905
82216SOL     OW48544   0.878   2.415   5.556
82216SOL    HW148545   0.912   2.503   5.539
82216SOL    HW248546   0.927   2.384   5.632
82217SOL     OW48547   5.502   1.568   7.370
82217SOL    HW148548   5.539   1.573   7.458
82217SOL    HW248549   5.450   1.649   7.361
82218SOL     OW48550  11.913  13.281  11.267
82218SOL    HW148551  11.909  13.317  11.355
82218SOL    HW248552  11.871  13.348  11.212
82219SOL     OW48553  14.177   5.845   9.727
82219SOL    HW148554  14.245   5.912   9.729
82219SOL    HW248555  14.126   5.860   9.807
82220SOL     OW48556   1.740   0.185   6.725
82220SOL    HW148557   1.702   0.262   6.767
82220SOL    HW248558   1.783   0.138   6.796
82221SOL     OW48559   4.863  12.211   5.037
82221SOL    HW148560   4.932  12.268   5.070
82221SOL    HW248561   4.856  12.234   4.944
82222SOL     OW48562   4.288  12.426  12.713
82222SOL    HW148563   4.364  12.371  12.692
82222SOL    HW248564   4.323  12.496  12.767
82223SOL     OW48565  13.275   0.925   7.664
82223SOL    HW148566  13.193   0.927   7.713
82223SOL    HW248567  13.261   0.985   7.591
82224SOL     OW48568   3.968   3.779  12.889
82224SOL    HW148569   4.020   3.830  12.952
82224SOL    HW248570   3.877   3.799  12.912
82225SOL     OW48571  10.136   2.088  14.240
82225SOL    HW148572  10.061   2.129  14.284
82225SOL    HW248573  10.189   2.162  14.209
82226SOL     OW48574  13.490   5.634  14.201
82226SOL    HW148575  13.451   5.611  14.117
82226SOL    HW248576  13.553   5.704  14.179
82227SOL     OW48577  10.553   3.360   5.064
82227SOL    HW148578  10.592   3.378   4.978
82227SOL    HW248579  10.465   3.395   5.059
82228SOL     OW48580  10.270   5.340  13.594
82228SOL    HW148581  10.294   5.277  13.526
82228SOL    HW248582  10.308   5.422  13.564
82229SOL     OW48583  14.490   6.248   2.630
82229SOL    HW148584  14.495   6.179   2.564
82229SOL    HW248585  14.422   6.219   2.691
82230SOL     OW48586   6.234   9.311   4.169
82230SOL    HW148587   6.197   9.241   4.223
82230SOL    HW248588   6.174   9.316   4.094
82231SOL     OW48589  14.311   4.360   8.148
82231SOL    HW148590  14.336   4.283   8.097
82231SOL    HW248591  14.240   4.400   8.096
82232SOL     OW48592   2.337   9.278  10.906
82232SOL    HW148593   2.295   9.240  10.984
82232SOL    HW248594   2.293   9.363  10.895
82233SOL     OW48595   7.830  12.829  14.073
82233SOL    HW148596   7.829  12.833  13.978
82233SOL    HW248597   7.856  12.739  14.094
82234SOL     OW48598   1.649   6.525   6.476
82234SOL    HW148599   1.637   6.440   6.433
82234SOL    HW248600   1.731   6.559   6.440
82235SOL     OW48601   8.937  11.011   8.651
82235SOL    HW148602   9.027  11.037   8.629
82235SOL    HW248603   8.885  11.090   8.636
82236SOL     OW48604   6.648   4.564   4.808
82236SOL    HW148605   6.584   4.525   4.748
82236SOL    HW248606   6.714   4.496   4.820
82237SOL     OW48607  13.241   2.235   7.969
82237SOL    HW148608  13.149   2.249   7.990
82237SOL    HW248609  13.281   2.321   7.979
82238SOL     OW48610  14.843   2.968   5.083
82238SOL    HW148611  14.818   2.987   5.174
82238SOL    HW248612  14.789   2.893   5.058
82239SOL     OW48613  10.429   0.298   5.813
82239SOL    HW148614  10.520   0.315   5.789
82239SOL    HW248615  10.431   0.286   5.908
82240SOL     OW48616   7.400   0.973  11.188
82240SOL    HW148617   7.368   1.003  11.103
82240SOL    HW248618   7.320   0.962  11.240
82241SOL     OW48619   9.723   3.298  11.905
82241SOL    HW148620   9.762   3.227  11.854
82241SOL    HW248621   9.641   3.263  11.938
82242SOL     OW48622  10.573   4.573   1.044
82242SOL    HW148623  10.559   4.663   1.075
82242SOL    HW248624  10.566   4.519   1.123
82243SOL     OW48625   1.881  13.100  12.000
82243SOL    HW148626   1.855  13.016  12.037
82243SOL    HW248627   1.918  13.148  12.074
82244SOL     OW48628   2.721   2.139  12.035
82244SOL    HW148629   2.711   2.215  11.977
82244SOL    HW248630   2.691   2.065  11.982
82245SOL     OW48631   9.159  11.286  12.376
82245SOL    HW148632   9.218  11.360  12.392
82245SOL    HW248633   9.152  11.243  12.461
82246SOL     OW48634   0.105   6.863  11.562
82246SOL    HW148635   0.025   6.832  11.605
82246SOL    HW248636   0.102   6.824  11.475
82247SOL     OW48637   5.372  10.418   8.025
82247SOL    HW148638   5.437  10.479   7.989
82247SOL    HW248639   5.333  10.465   8.098
82248SOL     OW48640  13.608  13.319   9.246
82248SOL    HW148641  13.599  13.327   9.151
82248SOL    HW248642  13.619  13.225   9.261
82249SOL     OW48643  10.628  12.552  12.237
82249SOL    HW148644  10.665  12.484  12.293
82249SOL    HW248645  10.688  12.558  12.163
82250SOL     OW48646  13.826   6.911   6.806
82250SOL    HW148647  13.848   6.818   6.803
82250SOL    HW248648  13.904   6.953   6.841
82251SOL     OW48649  13.220   9.592  11.701
82251SOL    HW148650  13.291   9.649  11.731
82251SOL    HW248651  13.232   9.511  11.751
82252SOL     OW48652  13.262   1.898  11.056
82252SOL    HW148653  13.197   1.839  11.016
82252SOL    HW248654  13.322   1.840  11.103
82253SOL     OW48655   2.701  14.474   8.315
82253SOL    HW148656   2.679  14.551   8.366
82253SOL    HW248657   2.660  14.401   8.363
82254SOL     OW48658  12.654   1.585  10.509
82254SOL    HW148659  12.606   1.508  10.480
82254SOL    HW248660  12.620   1.603  10.597
82255SOL     OW48661  14.771  14.446  12.722
82255SOL    HW148662  14.741  14.408  12.805
82255SOL    HW248663  14.695  14.443  12.665
82256SOL     OW48664  10.700   8.665   1.725
82256SOL    HW148665  10.616   8.710   1.718
82256SOL    HW248666  10.677   8.572   1.727
82257SOL     OW48667  12.832  13.506  12.857
82257SOL    HW148668  12.770  13.565  12.815
82257SOL    HW248669  12.909  13.560  12.874
82258SOL     OW48670   7.298  12.552   1.710
82258SOL    HW148671   7.206  12.551   1.684
82258SOL    HW248672   7.344  12.504   1.641
82259SOL     OW48673   6.706   9.846   6.701
82259SOL    HW148674   6.678   9.930   6.738
82259SOL    HW248675   6.783   9.822   6.752
82260SOL     OW48676   4.796  13.926  12.093
82260SOL    HW148677   4.854  13.999  12.115
82260SOL    HW248678   4.846  13.872  12.033
82261SOL     OW48679   1.000   7.834  11.663
82261SOL    HW148680   1.051   7.841  11.744
82261SOL    HW248681   1.038   7.758  11.618
82262SOL     OW48682  11.746  10.329  11.687
82262SOL    HW148683  11.703  10.279  11.618
82262SOL    HW248684  11.674  10.356  11.745
82263SOL     OW48685  14.669  10.055   4.095
82263SOL    HW148686  14.671  10.113   4.018
82263SOL    HW248687  14.725   9.982   4.071
82264SOL     OW48688   2.907   1.272   9.393
82264SOL    HW148689   3.001   1.287   9.401
82264SOL    HW248690   2.868   1.359   9.401
82265SOL     OW48691  14.073  14.201  13.760
82265SOL    HW148692  14.134  14.230  13.827
82265SOL    HW248693  14.119  14.217  13.677
82266SOL     OW48694   5.710   7.197   6.178
82266SOL    HW148695   5.794   7.160   6.203
82266SOL    HW248696   5.687   7.152   6.097
82267SOL     OW48697   2.606   8.601   6.388
82267SOL    HW148698   2.654   8.527   6.424
82267SOL    HW248699   2.649   8.620   6.305
82268SOL     OW48700   8.569  10.361   0.900
82268SOL    HW148701   8.662  10.385   0.891
82268SOL    HW248702   8.551  10.307   0.823
82269SOL     OW48703  13.561   2.458   1.780
82269SOL    HW148704  13.523   2.376   1.747
82269SOL    HW248705  13.602   2.497   1.703
82270SOL     OW48706  12.502   0.343   2.934
82270SOL    HW148707  12.443   0.398   2.986
82270SOL    HW248708  12.553   0.406   2.882
82271SOL     OW48709  13.024   4.317  10.665
82271SOL    HW148710  13.035   4.331  10.571
82271SOL    HW248711  13.005   4.404  10.700
82272SOL     OW48712   6.041   6.394  14.521
82272SOL    HW148713   6.053   6.356  14.433
82272SOL    HW248714   6.116   6.453  14.531
82273SOL     OW48715   4.966   0.573   0.485
82273SOL    HW148716   4.969   0.641   0.418
82273SOL    HW248717   4.912   0.610   0.555
82274SOL     OW48718   0.247   9.098   4.703
82274SOL    HW148719   0.266   9.063   4.790
82274SOL    HW248720   0.189   9.172   4.719
82275SOL     OW48721   5.086  10.160  12.739
82275SOL    HW148722   5.054  10.101  12.672
82275SOL    HW248723   5.067  10.248  12.705
82276SOL     OW48724  14.769   5.949   1.966
82276SOL    HW148725  14.807   5.942   1.878
82276SOL    HW248726  14.778   5.861   2.003
82277SOL     OW48727   1.584  12.384  12.137
82277SOL    HW148728   1.499  12.373  12.179
82277SOL    HW248729   1.565  12.440  12.061
82278SOL     OW48730   7.721   2.176  14.418
82278SOL    HW148731   7.736   2.098  14.364
82278SOL    HW248732   7.664   2.232  14.364
82279SOL     OW48733  13.478   0.005   0.824
82279SOL    HW148734  13.532  14.801   0.825
82279SOL    HW248735  13.418  14.869   0.898
82280SOL     OW48736  10.720  14.728   8.121
82280SOL    HW148737  10.629  14.745   8.095
82280SOL    HW248738  10.726  14.633   8.127
82281SOL     OW48739   6.782  14.193   6.089
82281SOL    HW148740   6.772  14.099   6.109
82281SOL    HW248741   6.815  14.231   6.171
82282SOL     OW48742   5.523   7.179   1.015
82282SOL    HW148743   5.480   7.114   1.069
82282SOL    HW248744   5.616   7.167   1.032
82283SOL     OW48745   6.276  14.543   8.147
82283SOL    HW148746   6.328  14.576   8.221
82283SOL    HW248747   6.208  14.609   8.135
82284SOL     OW48748   3.976   1.578  13.320
82284SOL    HW148749   3.906   1.536  13.369
82284SOL    HW248750   3.933   1.619  13.245
82285SOL     OW48751  12.564  12.598  11.543
82285SOL    HW148752  12.485  12.552  11.513
82285SOL    HW248753  12.557  12.685  11.504
82286SOL     OW48754   2.904   2.036   2.065
82286SOL    HW148755   2.977   2.096   2.054
82286SOL    HW248756   2.861   2.035   1.980
82287SOL     OW48757  13.056   1.955   9.896
82287SOL    HW148758  13.107   2.035   9.881
82287SOL    HW248759  13.041   1.953   9.990
82288SOL     OW48760  13.918   5.778   3.425
82288SOL    HW148761  13.952   5.699   3.467
82288SOL    HW248762  13.827   5.758   3.406
82289SOL     OW48763   1.429   0.053   8.595
82289SOL    HW148764   1.510   0.103   8.599
82289SOL    HW248765   1.433   0.007   8.511
82290SOL     OW48766   7.927   4.252   1.710
82290SOL    HW148767   7.902   4.184   1.772
82290SOL    HW248768   8.004   4.216   1.666
82291SOL     OW48769   0.656   3.227   7.872
82291SOL    HW148770   0.680   3.232   7.964
82291SOL    HW248771   0.658   3.133   7.852
82292SOL     OW48772   7.495   1.993   9.625
82292SOL    HW148773   7.569   1.933   9.626
82292SOL    HW248774   7.422   1.942   9.591
82293SOL     OW48775   3.163  10.791   8.215
82293SOL    HW148776   3.089  10.836   8.174
82293SOL    HW248777   3.217  10.761   8.143
82294SOL     OW48778   6.779   7.253  14.338
82294SOL    HW148779   6.706   7.197  14.311
82294SOL    HW248780   6.848   7.191  14.362
82295SOL     OW48781  14.322   2.465   8.738
82295SOL    HW148782  14.325   2.500   8.649
82295SOL    HW248783  14.414   2.449   8.761
82296SOL     OW48784  13.111  10.168   4.431
82296SOL    HW148785  13.067  10.087   4.408
82296SOL    HW248786  13.160  10.147   4.511
82297SOL     OW48787  13.088   7.628   4.586
82297SOL    HW148788  13.118   7.565   4.521
82297SOL    HW248789  13.096   7.713   4.544
82298SOL     OW48790  10.087   4.932  10.366
82298SOL    HW148791  10.105   4.982  10.446
82298SOL    HW248792  10.133   4.980  10.297
82299SOL     OW48793  11.651   3.992   8.150
82299SOL    HW148794  11.602   4.010   8.070
82299SOL    HW248795  11.614   3.911   8.183
82300SOL     OW48796  13.868  12.975  13.992
82300SOL    HW148797  13.852  13.069  13.988
82300SOL    HW248798  13.937  12.965  14.058
82301SOL     OW48799   0.421   2.581   6.061
82301SOL    HW148800   0.440   2.616   5.975
82301SOL    HW248801   0.339   2.623   6.087
82302SOL     OW48802  11.019   7.938   8.920
82302SOL    HW148803  11.048   7.931   8.829
82302SOL    HW248804  10.925   7.919   8.917
82303SOL     OW48805   0.512   4.548   4.478
82303SOL    HW148806   0.605   4.559   4.455
82303SOL    HW248807   0.480   4.637   4.491
82304SOL     OW48808   3.755   6.968   7.159
82304SOL    HW148809   3.809   6.975   7.238
82304SOL    HW248810   3.673   7.012   7.182
82305SOL     OW48811  10.199   8.616  10.786
82305SOL    HW148812  10.178   8.710  10.791
82305SOL    HW248813  10.131   8.574  10.840
82306SOL     OW48814   9.428   7.823   1.725
82306SOL    HW148815   9.426   7.873   1.807
82306SOL    HW248816   9.363   7.866   1.669
82307SOL     OW48817   3.886   5.673   2.090
82307SOL    HW148818   3.979   5.683   2.070
82307SOL    HW248819   3.860   5.595   2.042
82308SOL     OW48820   2.671   3.290   8.738
82308SOL    HW148821   2.706   3.310   8.651
82308SOL    HW248822   2.707   3.204   8.760
82309SOL     OW48823   8.556   6.185   2.859
82309SOL    HW148824   8.508   6.195   2.777
82309SOL    HW248825   8.566   6.275   2.891
82310SOL     OW48826   1.609   0.137   0.413
82310SOL    HW148827   1.595   0.226   0.379
82310SOL    HW248828   1.646   0.150   0.500
82311SOL     OW48829   3.390   0.055   0.472
82311SOL    HW148830   3.451   0.023   0.405
82311SOL    HW248831   3.446   0.080   0.546
82312SOL     OW48832   4.148   2.317   7.376
82312SOL    HW148833   4.217   2.302   7.441
82312SOL    HW248834   4.087   2.244   7.389
82313SOL     OW48835   9.468   7.299   8.039
82313SOL    HW148836   9.440   7.321   8.127
82313SOL    HW248837   9.394   7.323   7.983
82314SOL     OW48838  12.180   3.055   5.125
82314SOL    HW148839  12.124   2.982   5.152
82314SOL    HW248840  12.147   3.078   5.038
82315SOL     OW48841   8.016  10.103  13.890
82315SOL    HW148842   8.056  10.151  13.962
82315SOL    HW248843   7.969  10.032  13.932
82316SOL     OW48844   7.568   9.615   1.843
82316SOL    HW148845   7.637   9.606   1.778
82316SOL    HW248846   7.488   9.591   1.796
82317SOL     OW48847  10.424  12.910   4.551
82317SOL    HW148848  10.361  12.908   4.622
82317SOL    HW248849  10.399  12.986   4.498
82318SOL     OW48850   0.848   7.607   5.523
82318SOL    HW148851   0.823   7.570   5.607
82318SOL    HW248852   0.844   7.701   5.535
82319SOL     OW48853  14.033   1.656   4.288
82319SOL    HW148854  13.989   1.571   4.282
82319SOL    HW248855  14.000   1.706   4.214
82320SOL     OW48856   0.953  14.163  13.143
82320SOL    HW148857   1.048  14.168  13.132
82320SOL    HW248858   0.940  14.161  13.238
82321SOL     OW48859   6.539   8.688  12.875
82321SOL    HW148860   6.593   8.674  12.952
82321SOL    HW248861   6.526   8.783  12.871
82322SOL     OW48862   9.942   4.885   3.858
82322SOL    HW148863   9.968   4.888   3.766
82322SOL    HW248864  10.018   4.917   3.906
82323SOL     OW48865   0.227   1.429   6.425
82323SOL    HW148866   0.133   1.428   6.442
82323SOL    HW248867   0.258   1.343   6.453
82324SOL     OW48868   3.316   8.425   2.655
82324SOL    HW148869   3.264   8.414   2.576
82324SOL    HW248870   3.263   8.386   2.724
82325SOL     OW48871   9.133   7.232   2.234
82325SOL    HW148872   9.039   7.248   2.226
82325SOL    HW248873   9.151   7.163   2.171
82326SOL     OW48874   4.396   1.084   7.820
82326SOL    HW148875   4.439   1.130   7.892
82326SOL    HW248876   4.466   1.065   7.758
82327SOL     OW48877  12.202  13.134   0.229
82327SOL    HW148878  12.184  13.228   0.230
82327SOL    HW248879  12.262  13.120   0.302
82328SOL     OW48880  12.337   5.395  11.251
82328SOL    HW148881  12.254   5.349  11.263
82328SOL    HW248882  12.400   5.325  11.234
82329SOL     OW48883   2.425  10.679  10.488
82329SOL    HW148884   2.509  10.633  10.477
82329SOL    HW248885   2.379  10.664  10.405
82330SOL     OW48886  11.841   6.521  12.282
82330SOL    HW148887  11.825   6.566  12.198
82330SOL    HW248888  11.756   6.521  12.325
82331SOL     OW48889   2.794   9.583  10.389
82331SOL    HW148890   2.702   9.603  10.404
82331SOL    HW248891   2.841   9.652  10.436
82332SOL     OW48892   3.361   2.541   3.510
82332SOL    HW148893   3.453   2.529   3.486
82332SOL    HW248894   3.344   2.473   3.575
82333SOL     OW48895  11.817   8.746  12.679
82333SOL    HW148896  11.814   8.839  12.657
82333SOL    HW248897  11.742   8.733  12.737
82334SOL     OW48898   9.738   8.519  11.206
82334SOL    HW148899   9.712   8.528  11.297
82334SOL    HW248900   9.739   8.425  11.191
82335SOL     OW48901   6.083   3.155   2.877
82335SOL    HW148902   6.087   3.171   2.971
82335SOL    HW248903   6.103   3.061   2.868
82336SOL     OW48904   1.558   0.865   3.512
82336SOL    HW148905   1.555   0.950   3.467
82336SOL    HW248906   1.612   0.810   3.455
82337SOL     OW48907   3.807   7.284   6.493
82337SOL    HW148908   3.797   7.189   6.503
82337SOL    HW248909   3.735   7.321   6.543
82338SOL     OW48910   9.082   4.176   2.810
82338SOL    HW148911   9.082   4.093   2.858
82338SOL    HW248912   9.113   4.241   2.873
82339SOL     OW48913   2.638   4.165   9.147
82339SOL    HW148914   2.686   4.219   9.209
82339SOL    HW248915   2.549   4.160   9.183
82340SOL     OW48916   2.913  13.261   6.626
82340SOL    HW148917   2.950  13.194   6.569
82340SOL    HW248918   2.874  13.325   6.567
82341SOL     OW48919  12.477   8.916   3.546
82341SOL    HW148920  12.421   8.857   3.597
82341SOL    HW248921  12.492   8.870   3.463
82342SOL     OW48922  12.797   3.809   4.450
82342SOL    HW148923  12.822   3.743   4.515
82342SOL    HW248924  12.826   3.892   4.487
82343SOL     OW48925   6.979   3.142   3.018
82343SOL    HW148926   6.898   3.157   3.067
82343SOL    HW248927   7.042   3.201   3.059
82344SOL     OW48928  11.179   9.452  13.783
82344SOL    HW148929  11.162   9.389  13.854
82344SOL    HW248930  11.209   9.530  13.828
82345SOL     OW48931   9.508   6.220   2.305
82345SOL    HW148932   9.583   6.204   2.248
82345SOL    HW248933   9.524   6.306   2.343
82346SOL     OW48934  12.291   2.943   8.994
82346SOL    HW148935  12.224   2.954   9.062
82346SOL    HW248936  12.275   2.855   8.959
82347SOL     OW48937   1.150  12.324   5.172
82347SOL    HW148938   1.193  12.341   5.256
82347SOL    HW248939   1.122  12.233   5.176
82348SOL     OW48940  10.409  10.929   3.937
82348SOL    HW148941  10.420  10.957   3.846
82348SOL    HW248942  10.384  11.009   3.983
82349SOL     OW48943   9.199  10.746   6.045
82349SOL    HW148944   9.198  10.651   6.037
82349SOL    HW248945   9.291  10.768   6.061
82350SOL     OW48946   5.299   5.704   6.088
82350SOL    HW148947   5.287   5.610   6.104
82350SOL    HW248948   5.279   5.745   6.173
82351SOL     OW48949  12.333   9.544   4.821
82351SOL    HW148950  12.345   9.459   4.864
82351SOL    HW248951  12.299   9.601   4.890
82352SOL     OW48952   6.233   7.512   5.114
82352SOL    HW148953   6.222   7.475   5.202
82352SOL    HW248954   6.325   7.494   5.092
82353SOL     OW48955  13.912  14.488   7.480
82353SOL    HW148956  13.855  14.565   7.486
82353SOL    HW248957  13.907  14.448   7.567
82354SOL     OW48958  12.935   2.580   5.195
82354SOL    HW148959  12.923   2.486   5.205
82354SOL    HW248960  13.015   2.588   5.142
82355SOL     OW48961   4.835  10.044   0.131
82355SOL    HW148962   4.817  10.073   0.220
82355SOL    HW248963   4.861   9.952   0.141
82356SOL     OW48964  11.168  10.729   3.963
82356SOL    HW148965  11.238  10.691   4.016
82356SOL    HW248966  11.190  10.822   3.957
82357SOL     OW48967  13.878   6.730   5.484
82357SOL    HW148968  13.789   6.765   5.496
82357SOL    HW248969  13.914   6.726   5.573
82358SOL     OW48970  13.061  11.111  13.960
82358SOL    HW148971  13.016  11.097  14.043
82358SOL    HW248972  13.042  11.032  13.909
82359SOL     OW48973   2.286   9.658  13.535
82359SOL    HW148974   2.376   9.652  13.566
82359SOL    HW248975   2.269   9.752  13.530
82360SOL     OW48976   4.737   4.044   2.156
82360SOL    HW148977   4.799   4.104   2.198
82360SOL    HW248978   4.658   4.051   2.210
82361SOL     OW48979   4.285  11.283   5.390
82361SOL    HW148980   4.258  11.359   5.441
82361SOL    HW248981   4.206  11.229   5.384
82362SOL     OW48982   6.790  14.816   4.849
82362SOL    HW148983   6.834  14.786   4.770
82362SOL    HW248984   6.709  14.856   4.817
82363SOL     OW48985   5.491   6.810   6.944
82363SOL    HW148986   5.512   6.717   6.948
82363SOL    HW248987   5.425   6.822   7.012
82364SOL     OW48988   0.363   5.579   4.444
82364SOL    HW148989   0.337   5.609   4.531
82364SOL    HW248990   0.324   5.492   4.436
82365SOL     OW48991   9.325  11.587   9.207
82365SOL    HW148992   9.284  11.601   9.122
82365SOL    HW248993   9.350  11.495   9.206
82366SOL     OW48994   2.633   8.747   9.432
82366SOL    HW148995   2.630   8.652   9.446
82366SOL    HW248996   2.618   8.784   9.519
82367SOL     OW48997   4.576  11.336   1.703
82367SOL    HW148998   4.632  11.391   1.757
82367SOL    HW248999   4.623  11.327   1.620
82368SOL     OW49000   4.759   7.797   2.132
82368SOL    HW149001   4.667   7.818   2.120
82368SOL    HW249002   4.769   7.711   2.090
82369SOL     OW49003   3.111  13.368   1.801
82369SOL    HW149004   3.203  13.354   1.781
82369SOL    HW249005   3.107  13.369   1.897
82370SOL     OW49006   3.871   9.658   2.860
82370SOL    HW149007   3.962   9.659   2.890
82370SOL    HW249008   3.832   9.735   2.901
82371SOL     OW49009  12.600  13.378   2.017
82371SOL    HW149010  12.683  13.330   2.028
82371SOL    HW249011  12.533  13.310   2.023
82372SOL     OW49012   4.004  10.213   5.850
82372SOL    HW149013   4.030  10.186   5.762
82372SOL    HW249014   4.029  10.306   5.855
82373SOL     OW49015   5.762   8.351   0.919
82373SOL    HW149016   5.822   8.352   0.994
82373SOL    HW249017   5.682   8.311   0.953
82374SOL     OW49018   3.105  14.449   5.388
82374SOL    HW149019   3.051  14.486   5.458
82374SOL    HW249020   3.134  14.525   5.338
82375SOL     OW49021  12.284   4.381   8.538
82375SOL    HW149022  12.366   4.421   8.568
82375SOL    HW249023  12.219   4.451   8.545
82376SOL     OW49024   8.575   7.335   0.967
82376SOL    HW149025   8.500   7.350   1.026
82376SOL    HW249026   8.539   7.346   0.879
82377SOL     OW49027   9.096  10.583  14.676
82377SOL    HW149028   9.081  10.519  14.746
82377SOL    HW249029   9.117  10.664  14.722
82378SOL     OW49030   6.950   9.052   7.986
82378SOL    HW149031   6.927   9.103   8.064
82378SOL    HW249032   6.916   9.104   7.913
82379SOL     OW49033   0.302   6.059   1.807
82379SOL    HW149034   0.213   6.061   1.771
82379SOL    HW249035   0.359   6.074   1.732
82380SOL     OW49036   5.176   5.613   3.348
82380SOL    HW149037   5.257   5.619   3.398
82380SOL    HW249038   5.154   5.704   3.328
82381SOL     OW49039   2.657   2.558  14.607
82381SOL    HW149040   2.669   2.622  14.677
82381SOL    HW249041   2.653   2.610  14.527
82382SOL     OW49042  13.205  13.754  12.902
82382SOL    HW149043  13.269  13.824  12.914
82382SOL    HW249044  13.124  13.790  12.939
82383SOL     OW49045  14.699   8.595   9.526
82383SOL    HW149046  14.708   8.500   9.533
82383SOL    HW249047  14.773   8.623   9.473
82384SOL     OW49048  10.875   1.493   9.936
82384SOL    HW149049  10.789   1.530   9.951
82384SOL    HW249050  10.934   1.547   9.988
82385SOL     OW49051   5.791   8.539   2.306
82385SOL    HW149052   5.809   8.586   2.225
82385SOL    HW249053   5.796   8.605   2.374
82386SOL     OW49054   0.625   7.290  10.038
82386SOL    HW149055   0.646   7.231   9.966
82386SOL    HW249056   0.703   7.345  10.047
82387SOL     OW49057   1.092   1.468  12.324
82387SOL    HW149058   1.150   1.396  12.301
82387SOL    HW249059   1.037   1.481  12.247
82388SOL     OW49060   3.645  11.926   2.296
82388SOL    HW149061   3.584  11.930   2.370
82388SOL    HW249062   3.603  11.867   2.233
82389SOL     OW49063   9.625   9.814   7.395
82389SOL    HW149064   9.548   9.872   7.402
82389SOL    HW249065   9.607   9.744   7.457
82390SOL     OW49066   4.890   0.505   2.932
82390SOL    HW149067   4.922   0.419   2.959
82390SOL    HW249068   4.887   0.557   3.012
82391SOL     OW49069  11.216  11.381   9.213
82391SOL    HW149070  11.248  11.297   9.245
82391SOL    HW249071  11.264  11.446   9.264
82392SOL     OW49072   0.180   6.271   3.574
82392SOL    HW149073   0.245   6.284   3.643
82392SOL    HW249074   0.215   6.317   3.498
82393SOL     OW49075   1.521   2.420  10.619
82393SOL    HW149076   1.426   2.404  10.624
82393SOL    HW249077   1.541   2.419  10.525
82394SOL     OW49078   9.942  10.654   7.508
82394SOL    HW149079  10.020  10.633   7.457
82394SOL    HW249080   9.962  10.737   7.550
82395SOL     OW49081  10.823   3.111  11.243
82395SOL    HW149082  10.837   3.031  11.294
82395SOL    HW249083  10.732   3.134  11.257
82396SOL     OW49084   1.098  12.580   3.302
82396SOL    HW149085   1.038  12.623   3.240
82396SOL    HW249086   1.159  12.649   3.328
82397SOL     OW49087   0.715  12.197   7.961
82397SOL    HW149088   0.728  12.106   7.989
82397SOL    HW249089   0.744  12.249   8.036
82398SOL     OW49090   5.744   5.545   1.395
82398SOL    HW149091   5.757   5.453   1.417
82398SOL    HW249092   5.799   5.592   1.457
82399SOL     OW49093   6.521  11.589   4.937
82399SOL    HW149094   6.615  11.586   4.953
82399SOL    HW249095   6.486  11.512   4.982
82400SOL     OW49096   7.522   7.730   5.420
82400SOL    HW149097   7.603   7.754   5.466
82400SOL    HW249098   7.533   7.766   5.332
82401SOL     OW49099  14.724   8.766  12.570
82401SOL    HW149100  14.644   8.744  12.521
82401SOL    HW249101  14.787   8.789  12.502
82402SOL     OW49102  10.144   9.785  11.502
82402SOL    HW149103  10.055   9.805  11.471
82402SOL    HW249104  10.139   9.796  11.597
82403SOL     OW49105   5.461  12.705   8.511
82403SOL    HW149106   5.455  12.776   8.574
82403SOL    HW249107   5.482  12.748   8.428
82404SOL     OW49108  11.245  14.811   9.700
82404SOL    HW149109  11.290  14.826   9.783
82404SOL    HW249110  11.308  14.835   9.633
82405SOL     OW49111   6.975   0.113   4.691
82405SOL    HW149112   6.925   0.132   4.612
82405SOL    HW249113   6.931   0.163   4.760
82406SOL     OW49114  12.092   3.975   4.590
82406SOL    HW149115  12.040   3.919   4.647
82406SOL    HW249116  12.164   3.919   4.561
82407SOL     OW49117   3.116  14.065   2.927
82407SOL    HW149118   3.179  14.001   2.895
82407SOL    HW249119   3.034  14.041   2.884
82408SOL     OW49120   7.404   8.758   5.195
82408SOL    HW149121   7.495   8.761   5.224
82408SOL    HW249122   7.380   8.849   5.178
82409SOL     OW49123   5.612  12.889   6.683
82409SOL    HW149124   5.528  12.885   6.636
82409SOL    HW249125   5.667  12.824   6.639
82410SOL     OW49126   1.167  12.357   2.190
82410SOL    HW149127   1.114  12.279   2.207
82410SOL    HW249128   1.203  12.344   2.103
82411SOL     OW49129  13.284   0.248   6.321
82411SOL    HW149130  13.225   0.266   6.395
82411SOL    HW249131  13.331   0.169   6.348
82412SOL     OW49132   2.516  13.892   5.544
82412SOL    HW149133   2.499  13.801   5.569
82412SOL    HW249134   2.611  13.902   5.555
82413SOL     OW49135   9.964   8.152  13.623
82413SOL    HW149136   9.976   8.062  13.655
82413SOL    HW249137   9.959   8.143  13.528
82414SOL     OW49138   0.514   6.475   4.253
82414SOL    HW149139   0.597   6.450   4.212
82414SOL    HW249140   0.523   6.448   4.344
82415SOL     OW49141   6.896   0.692   4.179
82415SOL    HW149142   6.851   0.677   4.262
82415SOL    HW249143   6.966   0.753   4.200
82416SOL     OW49144   9.488   1.811  13.972
82416SOL    HW149145   9.456   1.901  13.981
82416SOL    HW249146   9.421   1.767  13.919
82417SOL     OW49147  10.534   4.855   2.800
82417SOL    HW149148  10.481   4.808   2.864
82417SOL    HW249149  10.515   4.947   2.816
82418SOL     OW49150   5.772  12.331  11.518
82418SOL    HW149151   5.733  12.398  11.462
82418SOL    HW249152   5.829  12.280  11.460
82419SOL     OW49153  10.876  14.097  11.094
82419SOL    HW149154  10.914  14.125  11.011
82419SOL    HW249155  10.869  14.002  11.086
82420SOL     OW49156   2.393   5.069  11.409
82420SOL    HW149157   2.369   5.088  11.318
82420SOL    HW249158   2.396   5.155  11.452
82421SOL     OW49159  13.973   0.360  12.923
82421SOL    HW149160  13.974   0.392  13.013
82421SOL    HW249161  13.883   0.375  12.894
82422SOL     OW49162  10.140   6.568   0.399
82422SOL    HW149163  10.198   6.627   0.448
82422SOL    HW249164  10.053   6.585   0.436
82423SOL     OW49165  12.458  12.743   4.707
82423SOL    HW149166  12.475  12.668   4.764
82423SOL    HW249167  12.430  12.705   4.624
82424SOL     OW49168   1.760   3.840  10.720
82424SOL    HW149169   1.692   3.873  10.662
82424SOL    HW249170   1.840   3.841  10.667
82425SOL     OW49171   5.787  13.662   3.534
82425SOL    HW149172   5.790  13.732   3.469
82425SOL    HW249173   5.701  13.671   3.575
82426SOL     OW49174   9.919  10.971   2.910
82426SOL    HW149175   9.861  11.042   2.884
82426SOL    HW249176   9.978  10.960   2.835
82427SOL     OW49177  10.015   0.717   2.881
82427SOL    HW149178   9.998   0.761   2.964
82427SOL    HW249179  10.037   0.627   2.906
82428SOL     OW49180  12.035   3.992   9.310
82428SOL    HW149181  12.033   3.921   9.245
82428SOL    HW249182  12.128   4.017   9.315
82429SOL     OW49183   2.214   9.106   0.769
82429SOL    HW149184   2.238   9.015   0.752
82429SOL    HW249185   2.196   9.109   0.863
82430SOL     OW49186   3.335   5.237   3.262
82430SOL    HW149187   3.321   5.182   3.186
82430SOL    HW249188   3.270   5.207   3.326
82431SOL     OW49189   6.239  12.164  10.657
82431SOL    HW149190   6.194  12.242  10.688
82431SOL    HW249191   6.225  12.099  10.726
82432SOL     OW49192   2.110   8.648  11.246
82432SOL    HW149193   2.021   8.653  11.281
82432SOL    HW249194   2.117   8.561  11.209
82433SOL     OW49195  10.180  11.892   6.347
82433SOL    HW149196  10.087  11.872   6.338
82433SOL    HW249197  10.207  11.847   6.426
82434SOL     OW49198   7.285   8.930   8.950
82434SOL    HW149199   7.221   8.866   8.979
82434SOL    HW249200   7.361   8.915   9.006
82435SOL     OW49201   2.964  13.916   1.566
82435SOL    HW149202   2.932  13.848   1.624
82435SOL    HW249203   3.019  13.870   1.502
82436SOL     OW49204   8.952   7.555   3.339
82436SOL    HW149205   8.969   7.644   3.308
82436SOL    HW249206   8.865   7.560   3.379
82437SOL     OW49207   9.432   8.434   1.202
82437SOL    HW149208   9.462   8.343   1.200
82437SOL    HW249209   9.512   8.484   1.219
82438SOL     OW49210  12.053   7.739  13.531
82438SOL    HW149211  11.987   7.726  13.463
82438SOL    HW249212  12.003   7.739  13.613
82439SOL     OW49213   7.405  10.064   7.204
82439SOL    HW149214   7.396  10.100   7.115
82439SOL    HW249215   7.496  10.032   7.207
82440SOL     OW49216   6.330  14.198   8.312
82440SOL    HW149217   6.289  14.172   8.394
82440SOL    HW249218   6.420  14.219   8.335
82441SOL     OW49219   1.111  11.490   0.581
82441SOL    HW149220   1.179  11.423   0.590
82441SOL    HW249221   1.062  11.464   0.503
82442SOL     OW49222   3.712  13.308   3.731
82442SOL    HW149223   3.639  13.371   3.727
82442SOL    HW249224   3.670  13.223   3.723
82443SOL     OW49225   8.954  12.712   6.791
82443SOL    HW149226   8.925  12.784   6.847
82443SOL    HW249227   8.955  12.636   6.850
82444SOL     OW49228  13.844   1.568   5.167
82444SOL    HW149229  13.801   1.601   5.088
82444SOL    HW249230  13.854   1.645   5.223
82445SOL     OW49231   2.190  13.674   9.920
82445SOL    HW149232   2.241  13.598   9.892
82445SOL    HW249233   2.185  13.729   9.843
82446SOL     OW49234   5.793  13.263   7.328
82446SOL    HW149235   5.823  13.223   7.247
82446SOL    HW249236   5.698  13.272   7.317
82447SOL     OW49237   4.524  13.364  12.912
82447SOL    HW149238   4.519  13.446  12.959
82447SOL    HW249239   4.617  13.342  12.911
82448SOL     OW49240   7.308   1.047  11.562
82448SOL    HW149241   7.248   1.064  11.635
82448SOL    HW249242   7.298   0.953  11.545
82449SOL     OW49243   6.646  14.673   5.256
82449SOL    HW149244   6.659  14.587   5.296
82449SOL    HW249245   6.654  14.735   5.329
82450SOL     OW49246   9.580  12.412  12.589
82450SOL    HW149247   9.487  12.393  12.579
82450SOL    HW249248   9.606  12.358  12.664
82451SOL     OW49249   7.241   7.674   0.196
82451SOL    HW149250   7.209   7.764   0.204
82451SOL    HW249251   7.327   7.676   0.238
82452SOL     OW49252  10.914  11.584   0.166
82452SOL    HW149253  10.985  11.647   0.173
82452SOL    HW249254  10.957  11.499   0.159
82453SOL     OW49255   3.483  13.693   9.918
82453SOL    HW149256   3.561  13.739   9.886
82453SOL    HW249257   3.502  13.675  10.010
82454SOL     OW49258   2.981   5.173   5.095
82454SOL    HW149259   2.885   5.179   5.103
82454SOL    HW249260   3.006   5.110   5.163
82455SOL     OW49261  10.208  12.320  12.378
82455SOL    HW149262  10.170  12.232  12.373
82455SOL    HW249263  10.137  12.378  12.353
82456SOL     OW49264  12.847  12.313   1.015
82456SOL    HW149265  12.862  12.222   0.992
82456SOL    HW249266  12.755  12.329   0.993
82457SOL     OW49267   3.174   0.955   1.796
82457SOL    HW149268   3.258   0.974   1.755
82457SOL    HW249269   3.163   1.023   1.862
82458SOL     OW49270   0.238   8.624   1.365
82458SOL    HW149271   0.327   8.606   1.394
82458SOL    HW249272   0.197   8.537   1.355
82459SOL     OW49273   4.425   3.437   2.769
82459SOL    HW149274   4.475   3.515   2.794
82459SOL    HW249275   4.467   3.408   2.688
82460SOL     OW49276  12.804   0.470   3.241
82460SOL    HW149277  12.748   0.392   3.233
82460SOL    HW249278  12.889   0.441   3.208
82461SOL     OW49279   8.446   6.096  10.423
82461SOL    HW149280   8.444   6.104  10.328
82461SOL    HW249281   8.434   6.003  10.440
82462SOL     OW49282   8.277  10.638  12.931
82462SOL    HW149283   8.250  10.651  12.840
82462SOL    HW249284   8.198  10.609  12.976
82463SOL     OW49285  10.502   2.357   8.547
82463SOL    HW149286  10.557   2.428   8.582
82463SOL    HW249287  10.537   2.341   8.459
82464SOL     OW49288  10.212   5.167  11.774
82464SOL    HW149289  10.236   5.113  11.698
82464SOL    HW249290  10.222   5.109  11.849
82465SOL     OW49291   9.221   2.084  10.829
82465SOL    HW149292   9.288   2.147  10.858
82465SOL    HW249293   9.269   2.003  10.813
82466SOL     OW49294  13.826   7.785  10.695
82466SOL    HW149295  13.802   7.701  10.656
82466SOL    HW249296  13.880   7.762  10.771
82467SOL     OW49297   1.210   0.739   6.294
82467SOL    HW149298   1.288   0.700   6.333
82467SOL    HW249299   1.242   0.822   6.257
82468SOL     OW49300   5.880   0.165   5.442
82468SOL    HW149301   5.838   0.091   5.486
82468SOL    HW249302   5.811   0.232   5.436
82469SOL     OW49303  11.140   2.985   8.796
82469SOL    HW149304  11.213   3.014   8.851
82469SOL    HW249305  11.141   3.044   8.721
82470SOL     OW49306  11.549   3.125   7.554
82470SOL    HW149307  11.479   3.093   7.610
82470SOL    HW249308  11.516   3.112   7.465
82471SOL     OW49309   9.709  14.051   9.086
82471SOL    HW149310   9.616  14.075   9.084
82471SOL    HW249311   9.736  14.067   9.177
82472SOL     OW49312   1.158   0.045   9.741
82472SOL    HW149313   1.140  14.869   9.662
82472SOL    HW249314   1.074   0.084   9.764
82473SOL     OW49315   9.266  13.811   8.597
82473SOL    HW149316   9.196  13.745   8.596
82473SOL    HW249317   9.287  13.825   8.504
82474SOL     OW49318   2.067   5.661   0.684
82474SOL    HW149319   2.137   5.683   0.745
82474SOL    HW249320   1.990   5.708   0.718
82475SOL     OW49321   3.723  12.682  12.870
82475SOL    HW149322   3.676  12.754  12.827
82475SOL    HW249323   3.799  12.723  12.911
82476SOL     OW49324   3.473   7.458   2.066
82476SOL    HW149325   3.425   7.486   2.144
82476SOL    HW249326   3.564   7.449   2.095
82477SOL     OW49327   4.352  12.756   8.015
82477SOL    HW149328   4.329  12.677   7.966
82477SOL    HW249329   4.403  12.723   8.090
82478SOL     OW49330   4.252  11.567   2.861
82478SOL    HW149331   4.254  11.525   2.775
82478SOL    HW249332   4.343  11.560   2.893
82479SOL     OW49333   1.094   2.157  10.029
82479SOL    HW149334   1.036   2.149   9.953
82479SOL    HW249335   1.100   2.068  10.064
82480SOL     OW49336   1.116   1.896  14.473
82480SOL    HW149337   1.100   1.903  14.567
82480SOL    HW249338   1.154   1.980  14.448
82481SOL     OW49339   1.392  10.589  13.627
82481SOL    HW149340   1.311  10.619  13.666
82481SOL    HW249341   1.438  10.669  13.600
82482SOL     OW49342   5.216  11.329   0.905
82482SOL    HW149343   5.215  11.406   0.848
82482SOL    HW249344   5.304  11.294   0.898
82483SOL     OW49345   8.753   2.016   2.101
82483SOL    HW149346   8.769   2.103   2.063
82483SOL    HW249347   8.667   1.991   2.068
82484SOL     OW49348   8.979   9.404  14.464
82484SOL    HW149349   8.958   9.424  14.373
82484SOL    HW249350   8.897   9.369  14.500
82485SOL     OW49351  10.614   1.689   1.939
82485SOL    HW149352  10.582   1.739   1.864
82485SOL    HW249353  10.547   1.701   2.007
82486SOL     OW49354  10.600   4.295  14.403
82486SOL    HW149355  10.589   4.361  14.336
82486SOL    HW249356  10.617   4.214  14.355
82487SOL     OW49357   9.264   1.304   0.776
82487SOL    HW149358   9.356   1.292   0.801
82487SOL    HW249359   9.242   1.223   0.729
82488SOL     OW49360   0.893   0.430   9.954
82488SOL    HW149361   0.871   0.404  10.043
82488SOL    HW249362   0.987   0.450   9.957
82489SOL     OW49363   1.532  13.712  12.452
82489SOL    HW149364   1.527  13.644  12.384
82489SOL    HW249365   1.615  13.756  12.436
82490SOL     OW49366   6.270   0.854  10.561
82490SOL    HW149367   6.328   0.807  10.621
82490SOL    HW249368   6.183   0.849  10.602
82491SOL     OW49369  11.579  11.437   2.488
82491SOL    HW149370  11.633  11.367   2.526
82491SOL    HW249371  11.618  11.518   2.520
82492SOL     OW49372  11.011   8.563   8.819
82492SOL    HW149373  10.945   8.497   8.841
82492SOL    HW249374  11.095   8.516   8.824
82493SOL     OW49375  12.051   8.752   8.821
82493SOL    HW149376  12.046   8.789   8.733
82493SOL    HW249377  12.108   8.812   8.869
82494SOL     OW49378   6.394   2.871   6.307
82494SOL    HW149379   6.395   2.823   6.390
82494SOL    HW249380   6.474   2.923   6.309
82495SOL     OW49381   3.228   6.449   1.443
82495SOL    HW149382   3.323   6.457   1.454
82495SOL    HW249383   3.203   6.377   1.501
82496SOL     OW49384   9.050   1.946  13.522
82496SOL    HW149385   9.059   1.875  13.585
82496SOL    HW249386   9.140   1.968  13.497
82497SOL     OW49387   5.824   8.642   0.907
82497SOL    HW149388   5.785   8.562   0.941
82497SOL    HW249389   5.890   8.612   0.844
82498SOL     OW49390  10.471   7.811   8.198
82498SOL    HW149391  10.496   7.898   8.167
82498SOL    HW249392  10.410   7.828   8.269
82499SOL     OW49393   8.490   8.799   9.137
82499SOL    HW149394   8.564   8.838   9.184
82499SOL    HW249395   8.474   8.858   9.064
82500SOL     OW49396   7.829   9.187  13.354
82500SOL    HW149397   7.877   9.206  13.274
82500SOL    HW249398   7.836   9.267  13.406
82501SOL     OW49399   7.220  12.933   7.398
82501SOL    HW149400   7.291  12.935   7.333
82501SOL    HW249401   7.142  12.961   7.350
82502SOL     OW49402   2.752  11.977   8.600
82502SOL    HW149403   2.820  12.010   8.541
82502SOL    HW249404   2.751  12.040   8.672
82503SOL     OW49405   0.797   1.675  13.240
82503SOL    HW149406   0.706   1.690  13.266
82503SOL    HW249407   0.819   1.591  13.279
82504SOL     OW49408   0.316   9.414   9.134
82504SOL    HW149409   0.271   9.334   9.107
82504SOL    HW249410   0.259   9.452   9.201
82505SOL     OW49411   4.838   4.337   1.799
82505SOL    HW149412   4.844   4.252   1.844
82505SOL    HW249413   4.784   4.390   1.858
82506SOL     OW49414   9.303   2.733   6.559
82506SOL    HW149415   9.283   2.782   6.479
82506SOL    HW249416   9.368   2.787   6.605
82507SOL     OW49417  12.331  10.135   3.887
82507SOL    HW149418  12.367  10.215   3.924
82507SOL    HW249419  12.254  10.163   3.837
82508SOL     OW49420   3.262   3.823   1.965
82508SOL    HW149421   3.319   3.874   2.023
82508SOL    HW249422   3.267   3.868   1.881
82509SOL     OW49423   4.340  11.729   1.978
82509SOL    HW149424   4.404  11.659   1.964
82509SOL    HW249425   4.333  11.736   2.073
82510SOL     OW49426   2.097  13.769   6.502
82510SOL    HW149427   2.093  13.786   6.408
82510SOL    HW249428   2.163  13.830   6.535
82511SOL     OW49429   9.131  14.427   2.406
82511SOL    HW149430   9.090  14.398   2.488
82511SOL    HW249431   9.154  14.346   2.362
82512SOL     OW49432   6.102   9.384  12.583
82512SOL    HW149433   6.139   9.382  12.495
82512SOL    HW249434   6.164   9.334  12.636
82513SOL     OW49435   0.722   9.276   4.585
82513SOL    HW149436   0.712   9.201   4.644
82513SOL    HW249437   0.816   9.278   4.564
82514SOL     OW49438   9.096   3.676  11.729
82514SOL    HW149439   9.106   3.771  11.724
82514SOL    HW249440   9.144   3.651  11.808
82515SOL     OW49441   9.851   4.299  10.799
82515SOL    HW149442   9.836   4.204  10.802
82515SOL    HW249443   9.902   4.312  10.718
82516SOL     OW49444  14.211   1.619   3.363
82516SOL    HW149445  14.130   1.577   3.391
82516SOL    HW249446  14.224   1.589   3.273
82517SOL     OW49447  14.442   5.655  11.039
82517SOL    HW149448  14.356   5.685  11.009
82517SOL    HW249449  14.424   5.582  11.097
82518SOL     OW49450   5.859  12.988   2.070
82518SOL    HW149451   5.896  12.957   1.987
82518SOL    HW249452   5.917  12.951   2.137
82519SOL     OW49453   6.177   0.094  10.576
82519SOL    HW149454   6.158   0.001  10.561
82519SOL    HW249455   6.126   0.117  10.653
82520SOL     OW49456  13.761   6.832   0.031
82520SOL    HW149457  13.705   6.803   0.104
82520SOL    HW249458  13.702   6.883  14.851
82521SOL     OW49459   1.228   8.519   3.360
82521SOL    HW149460   1.234   8.592   3.299
82521SOL    HW249461   1.268   8.552   3.441
82522SOL     OW49462   2.396  12.028   0.492
82522SOL    HW149463   2.479  12.033   0.445
82522SOL    HW249464   2.386  11.935   0.514
82523SOL     OW49465  13.007   9.726  13.821
82523SOL    HW149466  13.077   9.768  13.772
82523SOL    HW249467  12.969   9.663  13.759
82524SOL     OW49468  10.133   1.548  10.412
82524SOL    HW149469  10.181   1.603  10.474
82524SOL    HW249470  10.182   1.466  10.409
82525SOL     OW49471   3.743   7.835   2.638
82525SOL    HW149472   3.658   7.792   2.625
82525SOL    HW249473   3.729   7.926   2.611
82526SOL     OW49474   1.568  13.739   9.074
82526SOL    HW149475   1.505  13.706   9.010
82526SOL    HW249476   1.520  13.806   9.122
82527SOL     OW49477   0.829   9.587   5.716
82527SOL    HW149478   0.824   9.667   5.769
82527SOL    HW249479   0.739   9.573   5.687
82528SOL     OW49480   4.232   5.729   6.854
82528SOL    HW149481   4.197   5.647   6.820
82528SOL    HW249482   4.206   5.795   6.790
82529SOL     OW49483   2.283   2.971   9.284
82529SOL    HW149484   2.211   2.937   9.230
82529SOL    HW249485   2.359   2.919   9.259
82530SOL     OW49486   1.698   8.747   0.457
82530SOL    HW149487   1.634   8.677   0.445
82530SOL    HW249488   1.645   8.825   0.473
82531SOL     OW49489   7.111   1.430   3.316
82531SOL    HW149490   7.153   1.458   3.397
82531SOL    HW249491   7.182   1.397   3.262
82532SOL     OW49492  12.669   4.168   6.208
82532SOL    HW149493  12.699   4.114   6.281
82532SOL    HW249494  12.696   4.257   6.232
82533SOL     OW49495  10.828  10.903  10.009
82533SOL    HW149496  10.876  10.916   9.927
82533SOL    HW249497  10.875  10.958  10.072
82534SOL     OW49498  12.061   3.837   7.324
82534SOL    HW149499  12.106   3.775   7.380
82534SOL    HW249500  12.076   3.804   7.235
82535SOL     OW49501   8.835   8.448   8.371
82535SOL    HW149502   8.744   8.427   8.389
82535SOL    HW249503   8.878   8.447   8.456
82536SOL     OW49504   3.108   6.393   6.417
82536SOL    HW149505   3.074   6.465   6.471
82536SOL    HW249506   3.150   6.334   6.480
82537SOL     OW49507   7.807   2.924   6.718
82537SOL    HW149508   7.896   2.889   6.710
82537SOL    HW249509   7.808   3.004   6.665
82538SOL     OW49510  10.393  10.183   7.450
82538SOL    HW149511  10.359  10.132   7.377
82538SOL    HW249512  10.366  10.135   7.529
82539SOL     OW49513   4.635   8.296  13.049
82539SOL    HW149514   4.693   8.362  13.013
82539SOL    HW249515   4.693   8.223  13.073
82540SOL     OW49516  11.269  11.164  10.510
82540SOL    HW149517  11.210  11.175  10.435
82540SOL    HW249518  11.308  11.078  10.497
82541SOL     OW49519   2.591  13.614  13.512
82541SOL    HW149520   2.519  13.677  13.515
82541SOL    HW249521   2.586  13.576  13.424
82542SOL     OW49522  14.779   7.635   0.365
82542SOL    HW149523  14.720   7.706   0.338
82542SOL    HW249524  14.867   7.669   0.348
82543SOL     OW49525   1.740   7.253   3.594
82543SOL    HW149526   1.737   7.163   3.627
82543SOL    HW249527   1.703   7.246   3.506
82544SOL     OW49528   3.543  11.129   6.601
82544SOL    HW149529   3.571  11.062   6.663
82544SOL    HW249530   3.594  11.206   6.624
82545SOL     OW49531  14.498   4.633   5.583
82545SOL    HW149532  14.432   4.698   5.561
82545SOL    HW249533  14.476   4.557   5.528
82546SOL     OW49534  12.568   3.734  14.725
82546SOL    HW149535  12.547   3.650  14.685
82546SOL    HW249536  12.651   3.759  14.684
82547SOL     OW49537   0.945   0.939   2.084
82547SOL    HW149538   0.922   0.994   2.009
82547SOL    HW249539   0.863   0.899   2.112
82548SOL     OW49540   6.827   2.873   9.121
82548SOL    HW149541   6.904   2.876   9.178
82548SOL    HW249542   6.844   2.940   9.054
82549SOL     OW49543  11.729   8.739   8.617
82549SOL    HW149544  11.818   8.719   8.646
82549SOL    HW249545  11.684   8.654   8.618
82550SOL     OW49546  12.334   9.984  12.398
82550SOL    HW149547  12.340   9.922  12.325
82550SOL    HW249548  12.241  10.005  12.403
82551SOL     OW49549  12.978   8.825  11.909
82551SOL    HW149550  13.014   8.736  11.911
82551SOL    HW249551  12.949   8.841  11.999
82552SOL     OW49552  12.971  10.858   3.245
82552SOL    HW149553  12.922  10.787   3.287
82552SOL    HW249554  12.947  10.936   3.295
82553SOL     OW49555  11.102   3.591   1.186
82553SOL    HW149556  11.040   3.590   1.258
82553SOL    HW249557  11.050   3.571   1.108
82554SOL     OW49558   5.308   1.613   1.328
82554SOL    HW149559   5.387   1.618   1.381
82554SOL    HW249560   5.340   1.614   1.237
82555SOL     OW49561   0.815   9.141   6.286
82555SOL    HW149562   0.728   9.179   6.276
82555SOL    HW249563   0.829   9.091   6.206
82556SOL     OW49564   6.383  14.244  13.511
82556SOL    HW149565   6.300  14.280  13.480
82556SOL    HW249566   6.444  14.319  13.508
82557SOL     OW49567  13.224   3.928   4.043
82557SOL    HW149568  13.235   3.838   4.075
82557SOL    HW249569  13.129   3.939   4.035
82558SOL     OW49570  11.201   4.169   2.208
82558SOL    HW149571  11.119   4.120   2.201
82558SOL    HW249572  11.245   4.156   2.124
82559SOL     OW49573   6.531   3.478   6.137
82559SOL    HW149574   6.473   3.447   6.067
82559SOL    HW249575   6.514   3.572   6.143
82560SOL     OW49576  10.286  13.856   1.385
82560SOL    HW149577  10.315  13.879   1.473
82560SOL    HW249578  10.365  13.865   1.330
82561SOL     OW49579  12.452   0.516   2.636
82561SOL    HW149580  12.537   0.553   2.613
82561SOL    HW249581  12.426   0.563   2.716
82562SOL     OW49582  14.354   3.870   2.452
82562SOL    HW149583  14.328   3.808   2.520
82562SOL    HW249584  14.337   3.957   2.490
82563SOL     OW49585   6.137  11.834   8.707
82563SOL    HW149586   6.060  11.864   8.659
82563SOL    HW249587   6.101  11.783   8.780
82564SOL     OW49588  12.804   3.901  13.386
82564SOL    HW149589  12.731   3.895  13.448
82564SOL    HW249590  12.762   3.891  13.300
82565SOL     OW49591   7.618   0.176   3.988
82565SOL    HW149592   7.683   0.205   4.053
82565SOL    HW249593   7.559   0.119   4.037
82566SOL     OW49594   3.083   0.248   1.221
82566SOL    HW149595   3.008   0.189   1.217
82566SOL    HW249596   3.152   0.203   1.173
82567SOL     OW49597   9.410   7.792   7.972
82567SOL    HW149598   9.369   7.737   8.038
82567SOL    HW249599   9.462   7.732   7.919
82568SOL     OW49600  14.874  12.292   5.886
82568SOL    HW149601  14.807  12.288   5.818
82568SOL    HW249602   0.061  12.223   5.863
82569SOL     OW49603   5.291   5.436  10.569
82569SOL    HW149604   5.254   5.512  10.614
82569SOL    HW249605   5.234   5.363  10.592
82570SOL     OW49606   1.685  12.780  13.188
82570SOL    HW149607   1.764  12.725  13.187
82570SOL    HW249608   1.615  12.721  13.214
82571SOL     OW49609   0.855   6.401   4.366
82571SOL    HW149610   0.817   6.460   4.431
82571SOL    HW249611   0.949   6.410   4.377
82572SOL     OW49612   0.060  13.819  11.192
82572SOL    HW149613   0.067  13.898  11.247
82572SOL    HW249614  14.857  13.774  11.226
82573SOL     OW49615   1.736   5.524   4.332
82573SOL    HW149616   1.756   5.439   4.370
82573SOL    HW249617   1.681   5.567   4.397
82574SOL     OW49618  11.186   8.432   6.643
82574SOL    HW149619  11.172   8.345   6.681
82574SOL    HW249620  11.120   8.487   6.686
82575SOL     OW49621   2.603   9.718   3.725
82575SOL    HW149622   2.645   9.789   3.676
82575SOL    HW249623   2.559   9.665   3.657
82576SOL     OW49624   4.855   7.608   7.845
82576SOL    HW149625   4.918   7.603   7.917
82576SOL    HW249626   4.848   7.702   7.826
82577SOL     OW49627   0.108  14.728  10.193
82577SOL    HW149628   0.048  14.799  10.171
82577SOL    HW249629   0.076  14.653  10.143
82578SOL     OW49630   0.430   5.572   6.718
82578SOL    HW149631   0.395   5.541   6.801
82578SOL    HW249632   0.433   5.667   6.726
82579SOL     OW49633  12.261   5.898   5.338
82579SOL    HW149634  12.285   5.988   5.315
82579SOL    HW249635  12.170   5.889   5.312
82580SOL     OW49636   7.533   0.845   3.677
82580SOL    HW149637   7.527   0.865   3.584
82580SOL    HW249638   7.527   0.931   3.720
82581SOL     OW49639  13.230   2.569  12.149
82581SOL    HW149640  13.140   2.580  12.119
82581SOL    HW249641  13.223   2.562  12.244
82582SOL     OW49642   9.801   7.005   9.227
82582SOL    HW149643   9.835   6.928   9.273
82582SOL    HW249644   9.773   7.064   9.296
82583SOL     OW49645   7.482   2.201  12.322
82583SOL    HW149646   7.422   2.264  12.281
82583SOL    HW249647   7.552   2.255  12.358
82584SOL     OW49648   9.466  11.756   8.152
82584SOL    HW149649   9.525  11.830   8.141
82584SOL    HW249650   9.379  11.795   8.158
82585SOL     OW49651   1.456  14.426   1.338
82585SOL    HW149652   1.468  14.348   1.283
82585SOL    HW249653   1.542  14.467   1.339
82586SOL     OW49654  10.907   8.839   6.597
82586SOL    HW149655  10.952   8.758   6.619
82586SOL    HW249656  10.965   8.908   6.629
82587SOL     OW49657   7.901  12.803   6.156
82587SOL    HW149658   7.854  12.802   6.240
82587SOL    HW249659   7.892  12.714   6.123
82588SOL     OW49660   8.544   8.249  14.043
82588SOL    HW149661   8.575   8.335  14.072
82588SOL    HW249662   8.457   8.240  14.082
82589SOL     OW49663   4.364   4.713   3.484
82589SOL    HW149664   4.295   4.681   3.426
82589SOL    HW249665   4.331   4.696   3.572
82590SOL     OW49666  11.348   5.329  12.173
82590SOL    HW149667  11.345   5.425  12.178
82590SOL    HW249668  11.409   5.303  12.243
82591SOL     OW49669  13.611   4.492  13.789
82591SOL    HW149670  13.581   4.445  13.711
82591SOL    HW249671  13.650   4.572  13.755
82592SOL     OW49672  14.173  14.526  12.762
82592SOL    HW149673  14.197  14.496  12.850
82592SOL    HW249674  14.239  14.593  12.740
82593SOL     OW49675  13.714   8.707  14.579
82593SOL    HW149676  13.665   8.667  14.507
82593SOL    HW249677  13.787   8.751  14.537
82594SOL     OW49678   6.039   2.168   3.339
82594SOL    HW149679   6.097   2.213   3.277
82594SOL    HW249680   5.954   2.165   3.294
82595SOL     OW49681  12.740  12.291   6.261
82595SOL    HW149682  12.739  12.328   6.349
82595SOL    HW249683  12.725  12.197   6.274
82596SOL     OW49684   1.096   1.629   7.530
82596SOL    HW149685   1.073   1.614   7.622
82596SOL    HW249686   1.034   1.576   7.481
82597SOL     OW49687   2.766   7.476   0.946
82597SOL    HW149688   2.850   7.434   0.923
82597SOL    HW249689   2.744   7.528   0.869
82598SOL     OW49690   4.537  11.254   5.654
82598SOL    HW149691   4.477  11.220   5.720
82598SOL    HW249692   4.484  11.263   5.575
82599SOL     OW49693   1.999  10.792  11.844
82599SOL    HW149694   1.970  10.823  11.758
82599SOL    HW249695   2.095  10.801  11.842
82600SOL     OW49696   6.952   3.856  12.962
82600SOL    HW149697   6.869   3.903  12.960
82600SOL    HW249698   7.017   3.923  12.984
82601SOL     OW49699   7.594   9.545   1.423
82601SOL    HW149700   7.676   9.568   1.379
82601SOL    HW249701   7.525   9.580   1.366
82602SOL     OW49702  11.595  12.941   9.528
82602SOL    HW149703  11.662  12.873   9.531
82602SOL    HW249704  11.547  12.931   9.609
82603SOL     OW49705   4.439   6.989   1.149
82603SOL    HW149706   4.502   7.061   1.152
82603SOL    HW249707   4.444   6.956   1.059
82604SOL     OW49708   0.715   5.031   0.769
82604SOL    HW149709   0.727   5.101   0.834
82604SOL    HW249710   0.784   4.968   0.790
82605SOL     OW49711   5.838   7.467  13.623
82605SOL    HW149712   5.806   7.511  13.544
82605SOL    HW249713   5.798   7.515  13.695
82606SOL     OW49714   2.725  14.246   1.389
82606SOL    HW149715   2.706  14.316   1.452
82606SOL    HW249716   2.681  14.169   1.425
82607SOL     OW49717  14.369   0.114   8.110
82607SOL    HW149718  14.326   0.065   8.180
82607SOL    HW249719  14.391   0.198   8.150
82608SOL     OW49720   9.905   0.728  11.502
82608SOL    HW149721   9.903   0.710  11.596
82608SOL    HW249722   9.859   0.654  11.463
82609SOL     OW49723  10.612   2.500  11.488
82609SOL    HW149724  10.540   2.440  11.504
82609SOL    HW249725  10.570   2.581  11.460
82610SOL     OW49726   4.311  11.434   8.271
82610SOL    HW149727   4.267  11.402   8.193
82610SOL    HW249728   4.381  11.370   8.287
82611SOL     OW49729  11.068   8.611  12.022
82611SOL    HW149730  10.989   8.642  11.977
82611SOL    HW249731  11.131   8.683  12.013
82612SOL     OW49732  13.797   8.953   1.952
82612SOL    HW149733  13.814   9.042   1.921
82612SOL    HW249734  13.850   8.897   1.896
82613SOL     OW49735   0.582   3.439   7.207
82613SOL    HW149736   0.659   3.488   7.237
82613SOL    HW249737   0.510   3.473   7.261
82614SOL     OW49738   7.053  10.267   6.112
82614SOL    HW149739   7.034  10.271   6.018
82614SOL    HW249740   7.045  10.174   6.134
82615SOL     OW49741   5.956   1.068  12.731
82615SOL    HW149742   5.968   1.159  12.706
82615SOL    HW249743   5.869   1.045  12.698
82616SOL     OW49744   7.801  11.513  10.555
82616SOL    HW149745   7.764  11.543  10.472
82616SOL    HW249746   7.739  11.446  10.586
82617SOL     OW49747   4.880   6.977  10.489
82617SOL    HW149748   4.852   6.899  10.536
82617SOL    HW249749   4.800   7.016  10.455
82618SOL     OW49750  14.518   3.180   8.053
82618SOL    HW149751  14.607   3.168   8.087
82618SOL    HW249752  14.471   3.222   8.125
82619SOL     OW49753  10.154   6.918   0.636
82619SOL    HW149754  10.062   6.892   0.635
82619SOL    HW249755  10.160   6.989   0.572
82620SOL     OW49756   8.084  14.110   1.346
82620SOL    HW149757   8.129  14.027   1.361
82620SOL    HW249758   8.009  14.107   1.406
82621SOL     OW49759  13.435   7.698  10.058
82621SOL    HW149760  13.469   7.729  10.142
82621SOL    HW249761  13.385   7.772  10.024
82622SOL     OW49762  11.337  11.786   5.257
82622SOL    HW149763  11.400  11.758   5.323
82622SOL    HW249764  11.281  11.849   5.301
82623SOL     OW49765  13.697   3.657   0.269
82623SOL    HW149766  13.779   3.667   0.318
82623SOL    HW249767  13.639   3.609   0.328
82624SOL     OW49768   9.946  13.116   0.711
82624SOL    HW149769   9.907  13.029   0.710
82624SOL    HW249770   9.917  13.156   0.629
82625SOL     OW49771  13.667  11.654  14.637
82625SOL    HW149772  13.762  11.653  14.654
82625SOL    HW249773  13.628  11.642  14.724
82626SOL     OW49774   7.986   4.680  10.120
82626SOL    HW149775   8.000   4.612  10.054
82626SOL    HW249776   8.074   4.705  10.148
82627SOL     OW49777   0.956   0.608   8.775
82627SOL    HW149778   0.878   0.627   8.722
82627SOL    HW249779   0.990   0.694   8.798
82628SOL     OW49780   5.132   0.567   9.929
82628SOL    HW149781   5.120   0.651   9.884
82628SOL    HW249782   5.163   0.508   9.861
82629SOL     OW49783   9.301   2.063   9.499
82629SOL    HW149784   9.221   2.039   9.453
82629SOL    HW249785   9.367   2.002   9.467
82630SOL     OW49786   4.019  12.465   9.962
82630SOL    HW149787   3.988  12.429   9.879
82630SOL    HW249788   4.005  12.394  10.025
82631SOL     OW49789   3.224  11.037   0.773
82631SOL    HW149790   3.215  11.057   0.680
82631SOL    HW249791   3.170  10.959   0.786
82632SOL     OW49792  11.337   4.675   5.650
82632SOL    HW149793  11.387   4.756   5.661
82632SOL    HW249794  11.385   4.611   5.703
82633SOL     OW49795   0.183   6.433   1.610
82633SOL    HW149796   0.108   6.482   1.577
82633SOL    HW249797   0.213   6.483   1.686
82634SOL     OW49798   1.697  11.568   7.390
82634SOL    HW149799   1.606  11.545   7.408
82634SOL    HW249800   1.694  11.609   7.303
82635SOL     OW49801   8.529  11.113   6.421
82635SOL    HW149802   8.548  11.181   6.486
82635SOL    HW249803   8.470  11.155   6.359
82636SOL     OW49804   4.411   7.093   1.611
82636SOL    HW149805   4.375   7.100   1.522
82636SOL    HW249806   4.408   7.182   1.645
82637SOL     OW49807  12.850   6.169   9.690
82637SOL    HW149808  12.857   6.099   9.625
82637SOL    HW249809  12.855   6.250   9.639
82638SOL     OW49810   0.475  14.553  10.263
82638SOL    HW149811   0.541  14.574  10.329
82638SOL    HW249812   0.524  14.511  10.192
82639SOL     OW49813  14.096   6.733   6.852
82639SOL    HW149814  14.103   6.811   6.908
82639SOL    HW249815  14.089   6.660   6.914
82640SOL     OW49816   0.348  13.450   9.232
82640SOL    HW149817   0.285  13.447   9.303
82640SOL    HW249818   0.364  13.544   9.217
82641SOL     OW49819  12.823  13.160   3.967
82641SOL    HW149820  12.766  13.236   3.952
82641SOL    HW249821  12.908  13.188   3.932
82642SOL     OW49822   5.080   2.149   4.823
82642SOL    HW149823   5.007   2.112   4.874
82642SOL    HW249824   5.078   2.242   4.844
82643SOL     OW49825   1.728   4.530   0.820
82643SOL    HW149826   1.668   4.524   0.894
82643SOL    HW249827   1.792   4.595   0.847
82644SOL     OW49828  11.612   6.736   8.696
82644SOL    HW149829  11.666   6.739   8.775
82644SOL    HW249830  11.672   6.706   8.627
82645SOL     OW49831  12.569   1.901  13.100
82645SOL    HW149832  12.603   1.947  13.177
82645SOL    HW249833  12.588   1.960  13.027
82646SOL     OW49834   1.820   5.217  14.234
82646SOL    HW149835   1.868   5.247  14.311
82646SOL    HW249836   1.737   5.183  14.268
82647SOL     OW49837   1.317   4.197  12.583
82647SOL    HW149838   1.278   4.114  12.558
82647SOL    HW249839   1.409   4.189  12.556
82648SOL     OW49840   0.522  10.983   4.476
82648SOL    HW149841   0.434  11.013   4.497
82648SOL    HW249842   0.522  10.971   4.381
82649SOL     OW49843   5.504   7.208   2.069
82649SOL    HW149844   5.586   7.253   2.049
82649SOL    HW249845   5.471   7.179   1.984
82650SOL     OW49846   3.870   3.514   8.460
82650SOL    HW149847   3.819   3.579   8.508
82650SOL    HW249848   3.893   3.448   8.526
82651SOL     OW49849  10.052  10.693   1.831
82651SOL    HW149850   9.981  10.735   1.781
82651SOL    HW249851  10.123  10.757   1.829
82652SOL     OW49852   1.306  13.223   5.473
82652SOL    HW149853   1.394  13.261   5.477
82652SOL    HW249854   1.289  13.191   5.561
82653SOL     OW49855  11.391   9.163   8.537
82653SOL    HW149856  11.341   9.091   8.499
82653SOL    HW249857  11.482   9.131   8.536
82654SOL     OW49858   5.730  10.050   7.023
82654SOL    HW149859   5.758   9.993   6.952
82654SOL    HW249860   5.812  10.077   7.066
82655SOL     OW49861   2.375   8.314   0.703
82655SOL    HW149862   2.444   8.357   0.754
82655SOL    HW249863   2.294   8.348   0.739
82656SOL     OW49864  10.991  11.700   6.591
82656SOL    HW149865  11.044  11.657   6.524
82656SOL    HW249866  11.045  11.772   6.622
82657SOL     OW49867  13.117  10.677  11.168
82657SOL    HW149868  13.139  10.671  11.261
82657SOL    HW249869  13.029  10.641  11.161
82658SOL     OW49870   5.922  14.704  11.015
82658SOL    HW149871   5.989  14.712  11.083
82658SOL    HW249872   5.965  14.734  10.935
82659SOL     OW49873   1.799   8.219  11.482
82659SOL    HW149874   1.826   8.132  11.512
82659SOL    HW249875   1.716   8.235  11.527
82660SOL     OW49876   8.321   3.416   8.337
82660SOL    HW149877   8.228   3.429   8.356
82660SOL    HW249878   8.328   3.323   8.313
82661SOL     OW49879   1.329   4.104  13.343
82661SOL    HW149880   1.300   4.088  13.433
82661SOL    HW249881   1.249   4.131  13.297
82662SOL     OW49882  14.258   4.389  12.194
82662SOL    HW149883  14.278   4.460  12.134
82662SOL    HW249884  14.255   4.311  12.138
82663SOL     OW49885   4.525   7.084   5.880
82663SOL    HW149886   4.462   7.028   5.834
82663SOL    HW249887   4.538   7.158   5.821
82664SOL     OW49888   5.680   8.594  10.386
82664SOL    HW149889   5.684   8.500  10.370
82664SOL    HW249890   5.669   8.602  10.481
82665SOL     OW49891  12.756   4.088   6.695
82665SOL    HW149892  12.753   3.992   6.691
82665SOL    HW249893  12.666   4.115   6.672
82666SOL     OW49894   0.728   2.970   7.914
82666SOL    HW149895   0.813   3.002   7.947
82666SOL    HW249896   0.749   2.928   7.831
82667SOL     OW49897   0.198  13.620   8.105
82667SOL    HW149898   0.190  13.695   8.047
82667SOL    HW249899   0.220  13.657   8.190
82668SOL     OW49900  13.600  10.321   3.792
82668SOL    HW149901  13.540  10.259   3.749
82668SOL    HW249902  13.568  10.328   3.881
82669SOL     OW49903   5.499   6.610  10.710
82669SOL    HW149904   5.523   6.640  10.797
82669SOL    HW249905   5.478   6.518  10.721
82670SOL     OW49906  12.375   5.055   3.093
82670SOL    HW149907  12.442   5.107   3.048
82670SOL    HW249908  12.336   5.001   3.024
82671SOL     OW49909   2.385   1.189  12.899
82671SOL    HW149910   2.354   1.158  12.984
82671SOL    HW249911   2.470   1.229  12.917
82672SOL     OW49912   3.362  14.816   8.427
82672SOL    HW149913   3.409  14.741   8.464
82672SOL    HW249914   3.408  14.835   8.345
82673SOL     OW49915  11.039  12.198   8.558
82673SOL    HW149916  11.133  12.216   8.564
82673SOL    HW249917  11.030  12.108   8.588
82674SOL     OW49918  11.547   0.044   6.490
82674SOL    HW149919  11.516   0.133   6.472
82674SOL    HW249920  11.471  14.864   6.476
82675SOL     OW49921  13.908   6.445  11.015
82675SOL    HW149922  13.906   6.404  11.101
82675SOL    HW249923  13.922   6.372  10.954
82676SOL     OW49924   2.773   8.424   2.979
82676SOL    HW149925   2.733   8.362   3.039
82676SOL    HW249926   2.814   8.370   2.912
82677SOL     OW49927   6.770  14.590   5.021
82677SOL    HW149928   6.756  14.671   4.973
82677SOL    HW249929   6.725  14.604   5.105
82678SOL     OW49930  14.158  13.110   9.562
82678SOL    HW149931  14.165  13.181   9.499
82678SOL    HW249932  14.103  13.145   9.632
82679SOL     OW49933   8.795   0.423  14.256
82679SOL    HW149934   8.813   0.487  14.325
82679SOL    HW249935   8.706   0.393  14.273
82680SOL     OW49936   3.585  11.677   0.969
82680SOL    HW149937   3.559  11.767   0.949
82680SOL    HW249938   3.531  11.623   0.911
82681SOL     OW49939   3.812   3.981   8.348
82681SOL    HW149940   3.835   3.990   8.440
82681SOL    HW249941   3.843   3.895   8.322
82682SOL     OW49942  12.785  12.214   0.087
82682SOL    HW149943  12.702  12.215   0.040
82682SOL    HW249944  12.838  12.282   0.044
82683SOL     OW49945   1.394  12.996   1.673
82683SOL    HW149946   1.316  12.941   1.671
82683SOL    HW249947   1.359  13.086   1.668
82684SOL     OW49948   2.994   0.338   5.526
82684SOL    HW149949   2.986   0.415   5.471
82684SOL    HW249950   3.021   0.268   5.465
82685SOL     OW49951   3.206   9.072   6.029
82685SOL    HW149952   3.249   9.077   6.114
82685SOL    HW249953   3.114   9.058   6.049
82686SOL     OW49954   7.457  13.809   1.033
82686SOL    HW149955   7.546  13.832   1.059
82686SOL    HW249956   7.451  13.715   1.049
82687SOL     OW49957   2.571  12.764   4.918
82687SOL    HW149958   2.549  12.674   4.940
82687SOL    HW249959   2.558  12.770   4.823
82688SOL     OW49960   5.969  10.037   9.103
82688SOL    HW149961   5.892   9.983   9.122
82688SOL    HW249962   6.035  10.009   9.166
82689SOL     OW49963   2.630   3.818  13.185
82689SOL    HW149964   2.579   3.739  13.203
82689SOL    HW249965   2.587   3.887  13.235
82690SOL     OW49966  12.133  13.675   5.593
82690SOL    HW149967  12.215  13.627   5.607
82690SOL    HW249968  12.067  13.607   5.580
82691SOL     OW49969  12.350   6.146   5.294
82691SOL    HW149970  12.392   6.159   5.379
82691SOL    HW249971  12.334   6.234   5.261
82692SOL     OW49972  10.411  10.512   6.045
82692SOL    HW149973  10.447  10.427   6.071
82692SOL    HW249974  10.316  10.496   6.038
82693SOL     OW49975   5.062   0.684   4.359
82693SOL    HW149976   5.154   0.662   4.371
82693SOL    HW249977   5.029   0.697   4.448
82694SOL     OW49978   5.372  12.070   5.525
82694SOL    HW149979   5.465  12.054   5.509
82694SOL    HW249980   5.358  12.161   5.499
82695SOL     OW49981   4.985   5.538   0.618
82695SOL    HW149982   5.032   5.482   0.557
82695SOL    HW249983   4.918   5.581   0.565
82696SOL     OW49984  14.423   2.137  14.026
82696SOL    HW149985  14.406   2.060  13.973
82696SOL    HW249986  14.340   2.184  14.028
82697SOL     OW49987   7.519   2.634   6.521
82697SOL    HW149988   7.480   2.703   6.468
82697SOL    HW249989   7.586   2.595   6.465
82698SOL     OW49990   3.207   2.241   1.873
82698SOL    HW149991   3.167   2.274   1.793
82698SOL    HW249992   3.300   2.234   1.853
82699SOL     OW49993   7.470  11.899   9.684
82699SOL    HW149994   7.463  11.971   9.621
82699SOL    HW249995   7.543  11.924   9.741
82700SOL     OW49996  11.469   8.535   1.136
82700SOL    HW149997  11.537   8.469   1.149
82700SOL    HW249998  11.454   8.572   1.224
82701SOL     OW49999  10.524  12.446   2.154
82701SOL    HW150000  10.599  12.386   2.159
82701SOL    HW250001  10.452  12.392   2.120
82702SOL     OW50002   6.632   2.031   8.030
82702SOL    HW150003   6.701   1.970   8.005
82702SOL    HW250004   6.675   2.116   8.035
82703SOL     OW50005  11.318   8.585   7.908
82703SOL    HW150006  11.317   8.510   7.967
82703SOL    HW250007  11.362   8.553   7.829
82704SOL     OW50008   7.713  10.177  10.801
82704SOL    HW150009   7.668  10.261  10.796
82704SOL    HW250010   7.645  10.113  10.778
82705SOL     OW50011   9.555   9.390   9.968
82705SOL    HW150012   9.528   9.465   9.915
82705SOL    HW250013   9.636   9.359   9.927
82706SOL     OW50014  13.462   8.061   9.978
82706SOL    HW150015  13.390   8.000   9.963
82706SOL    HW250016  13.460   8.079  10.072
82707SOL     OW50017   2.108   0.346  13.502
82707SOL    HW150018   2.132   0.337  13.594
82707SOL    HW250019   2.054   0.425  13.499
82708SOL     OW50020  13.681   3.802   6.648
82708SOL    HW150021  13.690   3.712   6.616
82708SOL    HW250022  13.598   3.832   6.612
82709SOL     OW50023   8.002  11.636   3.931
82709SOL    HW150024   7.971  11.699   3.996
82709SOL    HW250025   8.052  11.688   3.868
82710SOL     OW50026   7.409   4.796  11.813
82710SOL    HW150027   7.317   4.783  11.791
82710SOL    HW250028   7.441   4.709  11.836
82711SOL     OW50029   8.465   2.726  10.587
82711SOL    HW150030   8.425   2.736  10.673
82711SOL    HW250031   8.538   2.666  10.601
82712SOL     OW50032  12.734   0.664  11.173
82712SOL    HW150033  12.744   0.741  11.229
82712SOL    HW250034  12.740   0.590  11.233
82713SOL     OW50035   6.153   0.612   4.401
82713SOL    HW150036   6.163   0.519   4.381
82713SOL    HW250037   6.161   0.616   4.497
82714SOL     OW50038   2.149   6.750   8.722
82714SOL    HW150039   2.111   6.710   8.800
82714SOL    HW250040   2.143   6.682   8.655
82715SOL     OW50041   4.617   1.305  14.594
82715SOL    HW150042   4.595   1.232  14.536
82715SOL    HW250043   4.594   1.383  14.544
82716SOL     OW50044  11.956  14.806   2.296
82716SOL    HW150045  11.974   0.025   2.300
82716SOL    HW250046  11.861  14.799   2.301
82717SOL     OW50047  12.801   4.828   4.328
82717SOL    HW150048  12.833   4.877   4.403
82717SOL    HW250049  12.868   4.839   4.261
82718SOL     OW50050   9.906  12.328  10.369
82718SOL    HW150051   9.832  12.315  10.429
82718SOL    HW250052   9.983  12.303  10.421
82719SOL     OW50053   5.362  13.993   5.669
82719SOL    HW150054   5.439  14.003   5.726
82719SOL    HW250055   5.372  14.061   5.603
82720SOL     OW50056   6.162  12.860  10.198
82720SOL    HW150057   6.250  12.868  10.163
82720SOL    HW250058   6.161  12.775  10.243
82721SOL     OW50059  12.571   3.290   9.044
82721SOL    HW150060  12.569   3.371   8.992
82721SOL    HW250061  12.602   3.318   9.130
82722SOL     OW50062   6.464  12.903   3.986
82722SOL    HW150063   6.539  12.908   3.927
82722SOL    HW250064   6.482  12.969   4.052
82723SOL     OW50065   3.487   1.633   2.282
82723SOL    HW150066   3.456   1.618   2.371
82723SOL    HW250067   3.583   1.626   2.288
82724SOL     OW50068   5.119  14.350   3.428
82724SOL    HW150069   5.143  14.258   3.439
82724SOL    HW250070   5.195  14.398   3.462
82725SOL     OW50071   4.431   7.129   0.248
82725SOL    HW150072   4.356   7.073   0.225
82725SOL    HW250073   4.396   7.192   0.311
82726SOL     OW50074   6.526   0.246  14.340
82726SOL    HW150075   6.481   0.253  14.256
82726SOL    HW250076   6.553   0.336  14.359
82727SOL     OW50077   2.398   8.279   7.202
82727SOL    HW150078   2.425   8.354   7.149
82727SOL    HW250079   2.402   8.311   7.292
82728SOL     OW50080  14.164  11.515   7.215
82728SOL    HW150081  14.241  11.462   7.192
82728SOL    HW250082  14.153  11.502   7.309
82729SOL     OW50083   6.050  11.839  13.000
82729SOL    HW150084   5.963  11.810  13.026
82729SOL    HW250085   6.040  11.934  12.986
82730SOL     OW50086   0.759   7.051   6.909
82730SOL    HW150087   0.831   7.022   6.852
82730SOL    HW250088   0.788   7.137   6.941
82731SOL     OW50089   7.769  11.338   1.399
82731SOL    HW150090   7.729  11.258   1.431
82731SOL    HW250091   7.843  11.309   1.345
82732SOL     OW50092   3.801  11.608   1.111
82732SOL    HW150093   3.816  11.513   1.113
82732SOL    HW250094   3.716  11.617   1.068
82733SOL     OW50095   3.891   2.844   1.199
82733SOL    HW150096   3.837   2.827   1.121
82733SOL    HW250097   3.959   2.903   1.168
82734SOL     OW50098   3.932  13.640   5.366
82734SOL    HW150099   3.963  13.550   5.377
82734SOL    HW250100   3.991  13.693   5.419
82735SOL     OW50101   5.431   4.620   5.429
82735SOL    HW150102   5.340   4.651   5.431
82735SOL    HW250103   5.452   4.601   5.521
82736SOL     OW50104  13.941   6.452   9.556
82736SOL    HW150105  13.879   6.524   9.541
82736SOL    HW250106  13.887   6.373   9.554
82737SOL     OW50107   1.193   6.837   4.635
82737SOL    HW150108   1.125   6.771   4.648
82737SOL    HW250109   1.267   6.806   4.687
82738SOL     OW50110   3.366   1.776  10.624
82738SOL    HW150111   3.349   1.778  10.718
82738SOL    HW250112   3.438   1.837  10.612
82739SOL     OW50113   5.805   8.954   7.051
82739SOL    HW150114   5.894   8.949   7.015
82739SOL    HW250115   5.779   9.045   7.038
82740SOL     OW50116  14.676   9.130  13.641
82740SOL    HW150117  14.694   9.074  13.717
82740SOL    HW250118  14.749   9.191  13.638
82741SOL     OW50119   4.264   9.120  12.638
82741SOL    HW150120   4.355   9.123  12.669
82741SOL    HW250121   4.216   9.080  12.711
82742SOL     OW50122   0.200   1.985   8.906
82742SOL    HW150123   0.222   1.894   8.927
82742SOL    HW250124   0.283   2.023   8.876
82743SOL     OW50125   6.944  12.739   5.569
82743SOL    HW150126   6.960  12.649   5.539
82743SOL    HW250127   6.875  12.730   5.634
82744SOL     OW50128   9.325   9.009   6.227
82744SOL    HW150129   9.348   9.070   6.298
82744SOL    HW250130   9.382   9.034   6.154
82745SOL     OW50131   7.039   2.870   4.259
82745SOL    HW150132   7.002   2.786   4.233
82745SOL    HW250133   7.128   2.849   4.285
82746SOL     OW50134   4.767   3.775   9.635
82746SOL    HW150135   4.747   3.868   9.621
82746SOL    HW250136   4.853   3.763   9.593
82747SOL     OW50137  11.832   3.442  13.078
82747SOL    HW150138  11.886   3.392  13.016
82747SOL    HW250139  11.750   3.456  13.032
82748SOL     OW50140  14.456   1.069   8.656
82748SOL    HW150141  14.380   1.105   8.701
82748SOL    HW250142  14.530   1.090   8.713
82749SOL     OW50143   5.692   3.744   8.298
82749SOL    HW150144   5.742   3.824   8.279
82749SOL    HW250145   5.686   3.699   8.214
82750SOL     OW50146   8.970  14.131   7.633
82750SOL    HW150147   8.885  14.175   7.625
82750SOL    HW250148   9.024  14.171   7.565
82751SOL     OW50149   0.398   8.523   8.155
82751SOL    HW150150   0.321   8.571   8.187
82751SOL    HW250151   0.386   8.434   8.188
82752SOL     OW50152   5.599   6.095   3.096
82752SOL    HW150153   5.566   6.126   3.181
82752SOL    HW250154   5.638   6.172   3.056
82753SOL     OW50155   3.854   9.099  13.878
82753SOL    HW150156   3.897   9.019  13.848
82753SOL    HW250157   3.924   9.163  13.888
82754SOL     OW50158   2.309   5.656   9.732
82754SOL    HW150159   2.360   5.697   9.802
82754SOL    HW250160   2.324   5.562   9.743
82755SOL     OW50161   3.469   3.214   8.721
82755SOL    HW150162   3.509   3.234   8.806
82755SOL    HW250163   3.544   3.208   8.661
82756SOL     OW50164  10.351  12.770   2.758
82756SOL    HW150165  10.357  12.686   2.713
82756SOL    HW250166  10.361  12.748   2.851
82757SOL     OW50167  11.309   5.002   4.656
82757SOL    HW150168  11.391   4.957   4.635
82757SOL    HW250169  11.333   5.095   4.660
82758SOL     OW50170   7.031  11.256  14.568
82758SOL    HW150171   7.065  11.346  14.564
82758SOL    HW250172   7.100  11.202  14.530
82759SOL     OW50173   2.283  13.545  11.633
82759SOL    HW150174   2.267  13.527  11.540
82759SOL    HW250175   2.196  13.560  11.669
82760SOL     OW50176   0.706   4.829   8.689
82760SOL    HW150177   0.651   4.750   8.683
82760SOL    HW250178   0.750   4.821   8.774
82761SOL     OW50179   3.154   8.420   8.828
82761SOL    HW150180   3.114   8.440   8.743
82761SOL    HW250181   3.173   8.505   8.867
82762SOL     OW50182   5.737   6.943   5.261
82762SOL    HW150183   5.725   6.934   5.356
82762SOL    HW250184   5.649   6.934   5.225
82763SOL     OW50185  13.685  10.399   0.580
82763SOL    HW150186  13.633  10.373   0.656
82763SOL    HW250187  13.683  10.322   0.523
82764SOL     OW50188   2.037   8.100   7.713
82764SOL    HW150189   1.946   8.128   7.704
82764SOL    HW250190   2.038   8.042   7.789
82765SOL     OW50191  11.586  10.251   8.628
82765SOL    HW150192  11.555  10.170   8.588
82765SOL    HW250193  11.625  10.300   8.556
82766SOL     OW50194  14.442   7.448   5.757
82766SOL    HW150195  14.369   7.465   5.698
82766SOL    HW250196  14.479   7.366   5.726
82767SOL     OW50197   2.128   9.754   0.241
82767SOL    HW150198   2.222   9.750   0.257
82767SOL    HW250199   2.090   9.691   0.302
82768SOL     OW50200  11.795  13.954   5.327
82768SOL    HW150201  11.889  13.941   5.339
82768SOL    HW250202  11.757  13.934   5.412
82769SOL     OW50203   5.527   4.908  12.516
82769SOL    HW150204   5.452   4.871  12.564
82769SOL    HW250205   5.601   4.855  12.544
82770SOL     OW50206   9.832   5.559   6.434
82770SOL    HW150207   9.741   5.554   6.465
82770SOL    HW250208   9.851   5.653   6.429
82771SOL     OW50209   4.471   1.231   5.291
82771SOL    HW150210   4.402   1.166   5.307
82771SOL    HW250211   4.550   1.179   5.278
82772SOL     OW50212   6.689   4.170   4.194
82772SOL    HW150213   6.783   4.182   4.210
82772SOL    HW250214   6.680   4.171   4.099
82773SOL     OW50215   8.061   6.699   0.511
82773SOL    HW150216   7.980   6.697   0.562
82773SOL    HW250217   8.033   6.732   0.425
82774SOL     OW50218  14.166   3.082   9.099
82774SOL    HW150219  14.206   3.169   9.106
82774SOL    HW250220  14.201   3.034   9.174
82775SOL     OW50221  13.789  14.325   7.009
82775SOL    HW150222  13.736  14.289   7.080
82775SOL    HW250223  13.783  14.420   7.020
82776SOL     OW50224   0.153   7.852   1.808
82776SOL    HW150225   0.115   7.876   1.892
82776SOL    HW250226   0.181   7.761   1.820
82777SOL     OW50227   8.757  13.765   3.367
82777SOL    HW150228   8.717  13.848   3.392
82777SOL    HW250229   8.696  13.727   3.303
82778SOL     OW50230   0.631   2.498  14.800
82778SOL    HW150231   0.616   2.404  14.808
82778SOL    HW250232   0.621   2.532   0.014
82779SOL     OW50233  10.126   9.155   1.803
82779SOL    HW150234  10.165   9.239   1.825
82779SOL    HW250235  10.199   9.093   1.809
82780SOL     OW50236   3.929   3.208   6.537
82780SOL    HW150237   3.873   3.130   6.526
82780SOL    HW250238   3.898   3.268   6.469
82781SOL     OW50239   4.989   7.185   9.037
82781SOL    HW150240   5.070   7.231   9.016
82781SOL    HW250241   4.929   7.211   8.967
82782SOL     OW50242   7.207   9.842   6.327
82782SOL    HW150243   7.293   9.800   6.324
82782SOL    HW250244   7.147   9.774   6.297
82783SOL     OW50245  14.579   9.282   3.374
82783SOL    HW150246  14.523   9.207   3.394
82783SOL    HW250247  14.525   9.337   3.316
82784SOL     OW50248  13.662   4.390  11.217
82784SOL    HW150249  13.608   4.402  11.295
82784SOL    HW250250  13.662   4.296  11.201
82785SOL     OW50251  13.919  12.150   9.142
82785SOL    HW150252  13.917  12.151   9.238
82785SOL    HW250253  13.994  12.205   9.119
82786SOL     OW50254  14.181   7.514   5.637
82786SOL    HW150255  14.139   7.535   5.553
82786SOL    HW250256  14.118   7.543   5.703
82787SOL     OW50257  12.317  10.217   9.942
82787SOL    HW150258  12.380  10.246   9.876
82787SOL    HW250259  12.263  10.151   9.898
82788SOL     OW50260   5.664  14.334  13.357
82788SOL    HW150261   5.570  14.351  13.352
82788SOL    HW250262   5.704  14.420  13.347
82789SOL     OW50263   3.901   1.890   8.938
82789SOL    HW150264   3.930   1.862   9.024
82789SOL    HW250265   3.955   1.840   8.877
82790SOL     OW50266  12.047   6.974   7.390
82790SOL    HW150267  12.042   7.069   7.384
82790SOL    HW250268  12.093   6.957   7.472
82791SOL     OW50269  11.989  12.367   9.012
82791SOL    HW150270  12.046  12.341   8.939
82791SOL    HW250271  11.972  12.460   8.997
82792SOL     OW50272   7.130   4.610   9.822
82792SOL    HW150273   7.123   4.637   9.914
82792SOL    HW250274   7.220   4.630   9.798
82793SOL     OW50275   0.859   1.115   1.314
82793SOL    HW150276   0.895   1.046   1.258
82793SOL    HW250277   0.929   1.180   1.321
82794SOL     OW50278   0.834   3.252   5.075
82794SOL    HW150279   0.759   3.287   5.026
82794SOL    HW250280   0.815   3.272   5.167
82795SOL     OW50281  11.518   0.164   5.826
82795SOL    HW150282  11.491   0.248   5.862
82795SOL    HW250283  11.460   0.100   5.867
82796SOL     OW50284   2.412  10.650  12.765
82796SOL    HW150285   2.397  10.744  12.767
82796SOL    HW250286   2.344  10.616  12.706
82797SOL     OW50287   6.765  10.272   8.707
82797SOL    HW150288   6.753  10.297   8.798
82797SOL    HW250289   6.743  10.351   8.657
82798SOL     OW50290   2.647   0.979  14.858
82798SOL    HW150291   2.722   1.026  14.821
82798SOL    HW250292   2.589   1.049   0.015
82799SOL     OW50293  10.721   0.530   1.686
82799SOL    HW150294  10.656   0.547   1.617
82799SOL    HW250295  10.776   0.461   1.649
82800SOL     OW50296   4.685  13.083   3.924
82800SOL    HW150297   4.609  13.028   3.942
82800SOL    HW250298   4.671  13.114   3.834
82801SOL     OW50299   7.201   6.953   3.795
82801SOL    HW150300   7.272   6.890   3.780
82801SOL    HW250301   7.144   6.910   3.858
82802SOL     OW50302   3.667   2.222   9.787
82802SOL    HW150303   3.647   2.134   9.755
82802SOL    HW250304   3.705   2.266   9.711
82803SOL     OW50305  13.283   3.152  13.010
82803SOL    HW150306  13.307   3.099  13.086
82803SOL    HW250307  13.347   3.129  12.943
82804SOL     OW50308   0.012   3.695   5.915
82804SOL    HW150309   0.004   3.672   6.008
82804SOL    HW250310  14.815   3.756   5.899
82805SOL     OW50311   6.753   0.376   1.481
82805SOL    HW150312   6.790   0.427   1.554
82805SOL    HW250313   6.772   0.285   1.504
82806SOL     OW50314  11.661  11.037   2.447
82806SOL    HW150315  11.690  10.970   2.385
82806SOL    HW250316  11.644  10.988   2.528
82807SOL     OW50317   0.648  13.257  12.014
82807SOL    HW150318   0.657  13.254  11.919
82807SOL    HW250319   0.643  13.165  12.040
82808SOL     OW50320   7.561  10.364   9.447
82808SOL    HW150321   7.598  10.318   9.522
82808SOL    HW250322   7.519  10.441   9.484
82809SOL     OW50323   3.646  10.446  13.414
82809SOL    HW150324   3.710  10.375  13.410
82809SOL    HW250325   3.564  10.402  13.438
82810SOL     OW50326  10.798   3.201   2.520
82810SOL    HW150327  10.837   3.129   2.570
82810SOL    HW250328  10.714   3.167   2.489
82811SOL     OW50329   4.866   5.555   7.830
82811SOL    HW150330   4.954   5.592   7.836
82811SOL    HW250331   4.819   5.615   7.772
82812SOL     OW50332  11.936   8.084   8.992
82812SOL    HW150333  11.988   8.073   9.071
82812SOL    HW250334  11.928   7.996   8.956
82813SOL     OW50335  13.423   1.397   2.975
82813SOL    HW150336  13.347   1.391   2.918
82813SOL    HW250337  13.497   1.411   2.915
82814SOL     OW50338   8.462   7.471   5.097
82814SOL    HW150339   8.378   7.517   5.091
82814SOL    HW250340   8.446   7.386   5.056
82815SOL     OW50341  10.041   4.436  10.617
82815SOL    HW150342  10.125   4.453  10.575
82815SOL    HW250343   9.988   4.514  10.599
82816SOL     OW50344  12.424   4.478  10.303
82816SOL    HW150345  12.502   4.526  10.275
82816SOL    HW250346  12.399   4.520  10.386
82817SOL     OW50347   3.728   9.016   9.175
82817SOL    HW150348   3.775   9.095   9.201
82817SOL    HW250349   3.668   9.044   9.106
82818SOL     OW50350  12.403   7.255  13.846
82818SOL    HW150351  12.344   7.183  13.821
82818SOL    HW250352  12.400   7.256  13.942
82819SOL     OW50353   5.459  11.200   4.901
82819SOL    HW150354   5.507  11.270   4.856
82819SOL    HW250355   5.396  11.169   4.836
82820SOL     OW50356   3.632  11.663  13.295
82820SOL    HW150357   3.588  11.642  13.377
82820SOL    HW250358   3.674  11.581  13.268
82821SOL     OW50359  11.473   8.760   2.735
82821SOL    HW150360  11.547   8.705   2.711
82821SOL    HW250361  11.453   8.736   2.825
82822SOL     OW50362  13.111   9.143   3.986
82822SOL    HW150363  13.031   9.118   3.941
82822SOL    HW250364  13.160   9.194   3.921
82823SOL     OW50365   2.842   5.833   1.537
82823SOL    HW150366   2.746   5.829   1.540
82823SOL    HW250367   2.869   5.741   1.532
82824SOL     OW50368   2.744   2.655   3.938
82824SOL    HW150369   2.825   2.667   3.988
82824SOL    HW250370   2.696   2.736   3.951
82825SOL     OW50371  12.441   9.623   5.527
82825SOL    HW150372  12.501   9.625   5.601
82825SOL    HW250373  12.396   9.707   5.530
82826SOL     OW50374   6.598   7.684   9.354
82826SOL    HW150375   6.619   7.666   9.263
82826SOL    HW250376   6.567   7.774   9.355
82827SOL     OW50377  13.008   0.646  11.493
82827SOL    HW150378  13.095   0.606  11.496
82827SOL    HW250379  12.978   0.644  11.584
82828SOL     OW50380  14.557  12.911   2.065
82828SOL    HW150381  14.544  12.897   2.159
82828SOL    HW250382  14.499  12.984   2.044
82829SOL     OW50383  12.214   6.350  14.459
82829SOL    HW150384  12.178   6.434  14.488
82829SOL    HW250385  12.164   6.284  14.507
82830SOL     OW50386  12.829   5.804   7.607
82830SOL    HW150387  12.885   5.801   7.530
82830SOL    HW250388  12.888   5.828   7.679
82831SOL     OW50389   2.102   5.176  14.403
82831SOL    HW150390   2.053   5.205  14.480
82831SOL    HW250391   2.193   5.173  14.434
82832SOL     OW50392  13.185  14.418   7.960
82832SOL    HW150393  13.248  14.455   7.898
82832SOL    HW250394  13.150  14.341   7.916
82833SOL     OW50395  10.058   3.771   7.003
82833SOL    HW150396   9.968   3.748   6.980
82833SOL    HW250397  10.049   3.824   7.083
82834SOL     OW50398   1.334   5.563   4.780
82834SOL    HW150399   1.344   5.554   4.874
82834SOL    HW250400   1.272   5.494   4.756
82835SOL     OW50401   6.282  12.616   0.595
82835SOL    HW150402   6.336  12.559   0.541
82835SOL    HW250403   6.319  12.703   0.583
82836SOL     OW50404  11.476   2.658   1.361
82836SOL    HW150405  11.445   2.674   1.272
82836SOL    HW250406  11.397   2.637   1.411
82837SOL     OW50407   6.044   2.165   9.238
82837SOL    HW150408   6.028   2.239   9.179
82837SOL    HW250409   6.136   2.145   9.228
82838SOL     OW50410   4.546   4.518   7.517
82838SOL    HW150411   4.616   4.464   7.482
82838SOL    HW250412   4.585   4.605   7.527
82839SOL     OW50413   9.206  14.556   8.498
82839SOL    HW150414   9.123  14.551   8.546
82839SOL    HW250415   9.208  14.646   8.464
82840SOL     OW50416   4.826   4.774   5.660
82840SOL    HW150417   4.856   4.686   5.637
82840SOL    HW250418   4.737   4.778   5.625
82841SOL     OW50419   9.868   6.874   0.614
82841SOL    HW150420   9.822   6.953   0.643
82841SOL    HW250421   9.857   6.812   0.685
82842SOL     OW50422   7.750   7.878  13.682
82842SOL    HW150423   7.781   7.849  13.596
82842SOL    HW250424   7.828   7.882  13.736
82843SOL     OW50425  10.757   5.656   7.006
82843SOL    HW150426  10.694   5.673   7.077
82843SOL    HW250427  10.723   5.578   6.963
82844SOL     OW50428   0.911  14.682   9.704
82844SOL    HW150429   0.908  14.617   9.634
82844SOL    HW250430   0.907  14.766   9.659
82845SOL     OW50431  10.562  10.188   1.833
82845SOL    HW150432  10.623  10.201   1.906
82845SOL    HW250433  10.488  10.246   1.852
82846SOL     OW50434   6.716  10.978   9.522
82846SOL    HW150435   6.799  11.002   9.563
82846SOL    HW250436   6.708  11.037   9.446
82847SOL     OW50437  10.981   8.762   0.262
82847SOL    HW150438  10.890   8.787   0.277
82847SOL    HW250439  11.024   8.844   0.238
82848SOL     OW50440   7.679   8.838   0.771
82848SOL    HW150441   7.609   8.783   0.806
82848SOL    HW250442   7.654   8.927   0.794
82849SOL     OW50443  10.988  11.163   9.218
82849SOL    HW150444  11.045  11.200   9.286
82849SOL    HW250445  11.019  11.073   9.208
82850SOL     OW50446   9.210   8.466  10.331
82850SOL    HW150447   9.297   8.442  10.301
82850SOL    HW250448   9.222   8.483  10.425
82851SOL     OW50449  11.076   5.761   1.623
82851SOL    HW150450  11.146   5.825   1.634
82851SOL    HW250451  11.040   5.748   1.711
82852SOL     OW50452   6.161  14.236  11.642
82852SOL    HW150453   6.129  14.278  11.562
82852SOL    HW250454   6.242  14.192  11.614
82853SOL     OW50455   5.099   4.170  11.365
82853SOL    HW150456   5.096   4.266  11.356
82853SOL    HW250457   5.126   4.139  11.278
82854SOL     OW50458   4.028   0.836   9.004
82854SOL    HW150459   3.945   0.845   9.051
82854SOL    HW250460   4.007   0.781   8.928
82855SOL     OW50461   8.404   7.792  13.477
82855SOL    HW150462   8.340   7.797  13.549
82855SOL    HW250463   8.369   7.725  13.419
82856SOL     OW50464   3.631   4.902   0.369
82856SOL    HW150465   3.664   4.821   0.332
82856SOL    HW250466   3.710   4.949   0.398
82857SOL     OW50467   7.313  13.742  11.405
82857SOL    HW150468   7.408  13.734  11.415
82857SOL    HW250469   7.301  13.821  11.351
82858SOL     OW50470  10.878   3.767   4.229
82858SOL    HW150471  10.925   3.807   4.302
82858SOL    HW250472  10.883   3.673   4.246
82859SOL     OW50473  14.074  13.866  12.035
82859SOL    HW150474  14.003  13.872  12.099
82859SOL    HW250475  14.056  13.785  11.987
82860SOL     OW50476   1.913   6.955  14.369
82860SOL    HW150477   1.974   6.918  14.433
82860SOL    HW250478   1.829   6.914  14.389
82861SOL     OW50479   9.949  13.538   1.851
82861SOL    HW150480   9.946  13.459   1.906
82861SOL    HW250481  10.002  13.600   1.901
82862SOL     OW50482  10.352  14.274   5.161
82862SOL    HW150483  10.374  14.215   5.089
82862SOL    HW250484  10.288  14.227   5.213
82863SOL     OW50485   0.726  13.514  11.480
82863SOL    HW150486   0.784  13.590  11.486
82863SOL    HW250487   0.741  13.479  11.392
82864SOL     OW50488   1.159  14.803  11.693
82864SOL    HW150489   1.102  14.875  11.721
82864SOL    HW250490   1.214  14.785  11.769
82865SOL     OW50491   6.653   1.802  14.715
82865SOL    HW150492   6.617   1.758  14.638
82865SOL    HW250493   6.688   1.731  14.770
82866SOL     OW50494  11.261  11.342  14.413
82866SOL    HW150495  11.248  11.435  14.431
82866SOL    HW250496  11.213  11.326  14.332
82867SOL     OW50497  11.134  13.835  13.357
82867SOL    HW150498  11.190  13.811  13.282
82867SOL    HW250499  11.195  13.842  13.431
82868SOL     OW50500   3.239   1.677  10.104
82868SOL    HW150501   3.292   1.716  10.174
82868SOL    HW250502   3.166   1.738  10.093
82869SOL     OW50503   1.402  12.252   8.629
82869SOL    HW150504   1.324  12.224   8.678
82869SOL    HW250505   1.368  12.311   8.562
82870SOL     OW50506   7.408   2.701   2.977
82870SOL    HW150507   7.406   2.647   3.056
82870SOL    HW250508   7.325   2.682   2.933
82871SOL     OW50509   5.544   7.835  12.711
82871SOL    HW150510   5.499   7.917  12.731
82871SOL    HW250511   5.555   7.792  12.796
82872SOL     OW50512   2.293  12.689   1.414
82872SOL    HW150513   2.246  12.773   1.419
82872SOL    HW250514   2.315  12.669   1.505
82873SOL     OW50515  11.599   6.291  12.622
82873SOL    HW150516  11.617   6.360  12.687
82873SOL    HW250517  11.510   6.309  12.592
82874SOL     OW50518   9.886   4.037   0.356
82874SOL    HW150519   9.848   3.977   0.420
82874SOL    HW250520   9.837   4.020   0.275
82875SOL     OW50521   8.487  14.411   4.207
82875SOL    HW150522   8.469  14.412   4.301
82875SOL    HW250523   8.577  14.442   4.199
82876SOL     OW50524   5.201  10.988  11.206
82876SOL    HW150525   5.253  11.060  11.171
82876SOL    HW250526   5.111  11.018  11.202
82877SOL     OW50527   9.331   6.191   5.133
82877SOL    HW150528   9.297   6.166   5.047
82877SOL    HW250529   9.413   6.142   5.141
82878SOL     OW50530   2.610   6.958  14.657
82878SOL    HW150531   2.684   6.940  14.600
82878SOL    HW250532   2.544   6.893  14.631
82879SOL     OW50533  14.039   2.314   7.258
82879SOL    HW150534  14.127   2.276   7.264
82879SOL    HW250535  13.985   2.244   7.220
82880SOL     OW50536   6.641  14.061  12.435
82880SOL    HW150537   6.650  13.966  12.436
82880SOL    HW250538   6.711  14.091  12.377
82881SOL     OW50539   0.437  12.139   1.277
82881SOL    HW150540   0.461  12.185   1.197
82881SOL    HW250541   0.470  12.050   1.266
82882SOL     OW50542   1.642  11.159   1.367
82882SOL    HW150543   1.691  11.124   1.293
82882SOL    HW250544   1.673  11.249   1.377
82883SOL     OW50545   8.541   9.726   4.518
82883SOL    HW150546   8.505   9.650   4.472
82883SOL    HW250547   8.500   9.723   4.604
82884SOL     OW50548   2.719   3.012  11.146
82884SOL    HW150549   2.813   3.033  11.146
82884SOL    HW250550   2.713   2.932  11.094
82885SOL     OW50551   9.828   1.382   0.731
82885SOL    HW150552   9.905   1.329   0.754
82885SOL    HW250553   9.833   1.390   0.635
82886SOL     OW50554  14.420   0.843  14.653
82886SOL    HW150555  14.398   0.933  14.677
82886SOL    HW250556  14.339   0.794  14.667
82887SOL     OW50557  10.286   7.025   4.137
82887SOL    HW150558  10.330   6.948   4.172
82887SOL    HW250559  10.193   7.002   4.139
82888SOL     OW50560   4.526   7.883  12.121
82888SOL    HW150561   4.457   7.947  12.136
82888SOL    HW250562   4.482   7.798  12.125
82889SOL     OW50563  13.657   5.722   8.990
82889SOL    HW150564  13.644   5.797   8.932
82889SOL    HW250565  13.570   5.685   9.001
82890SOL     OW50566   2.969   8.976   4.105
82890SOL    HW150567   3.058   8.971   4.070
82890SOL    HW250568   2.967   8.914   4.177
82891SOL     OW50569  11.432  10.357  10.754
82891SOL    HW150570  11.441  10.420  10.825
82891SOL    HW250571  11.391  10.280  10.795
82892SOL     OW50572  11.457  10.251  10.372
82892SOL    HW150573  11.367  10.240  10.342
82892SOL    HW250574  11.474  10.345  10.363
82893SOL     OW50575   2.287   7.375   7.021
82893SOL    HW150576   2.313   7.316   6.950
82893SOL    HW250577   2.255   7.316   7.090
82894SOL     OW50578   2.997   8.155   3.320
82894SOL    HW150579   2.926   8.205   3.359
82894SOL    HW250580   3.055   8.221   3.283
82895SOL     OW50581   8.135   7.824   9.615
82895SOL    HW150582   8.214   7.828   9.561
82895SOL    HW250583   8.144   7.898   9.675
82896SOL     OW50584   4.940   8.496   2.804
82896SOL    HW150585   4.990   8.571   2.772
82896SOL    HW250586   4.850   8.526   2.807
82897SOL     OW50587   3.774   6.779   9.496
82897SOL    HW150588   3.787   6.696   9.450
82897SOL    HW250589   3.688   6.809   9.468
82898SOL     OW50590   7.978  12.729   9.393
82898SOL    HW150591   7.970  12.785   9.315
82898SOL    HW250592   8.069  12.700   9.393
82899SOL     OW50593   9.335   9.546   9.306
82899SOL    HW150594   9.256   9.559   9.358
82899SOL    HW250595   9.332   9.615   9.240
82900SOL     OW50596   3.124  10.950  11.584
82900SOL    HW150597   3.146  10.957  11.677
82900SOL    HW250598   3.052  10.887  11.580
82901SOL     OW50599  13.332   0.696   3.733
82901SOL    HW150600  13.336   0.780   3.779
82901SOL    HW250601  13.248   0.658   3.760
82902SOL     OW50602  13.525  14.388   3.212
82902SOL    HW150603  13.604  14.333   3.217
82902SOL    HW250604  13.558  14.476   3.198
82903SOL     OW50605   7.846   6.129  14.569
82903SOL    HW150606   7.803   6.205  14.531
82903SOL    HW250607   7.888   6.086  14.495
82904SOL     OW50608   0.870   1.642  11.823
82904SOL    HW150609   0.786   1.605  11.851
82904SOL    HW250610   0.913   1.668  11.904
82905SOL     OW50611  10.729   6.257   5.178
82905SOL    HW150612  10.800   6.302   5.225
82905SOL    HW250613  10.752   6.164   5.183
82906SOL     OW50614   1.120   5.428   7.631
82906SOL    HW150615   1.178   5.377   7.575
82906SOL    HW250616   1.162   5.426   7.717
82907SOL     OW50617   3.063   5.739  12.790
82907SOL    HW150618   3.125   5.761  12.720
82907SOL    HW250619   3.111   5.758  12.871
82908SOL     OW50620   2.697   9.613   8.406
82908SOL    HW150621   2.771   9.626   8.466
82908SOL    HW250622   2.701   9.520   8.383
82909SOL     OW50623   9.688   4.908   1.185
82909SOL    HW150624   9.711   4.887   1.276
82909SOL    HW250625   9.592   4.912   1.185
82910SOL     OW50626   3.088   7.325  12.798
82910SOL    HW150627   3.071   7.329  12.892
82910SOL    HW250628   3.131   7.241  12.785
82911SOL     OW50629  12.423  10.832   3.670
82911SOL    HW150630  12.391  10.901   3.611
82911SOL    HW250631  12.451  10.761   3.612
82912SOL     OW50632   8.488   8.283   0.444
82912SOL    HW150633   8.497   8.336   0.365
82912SOL    HW250634   8.484   8.193   0.412
82913SOL     OW50635  13.369   6.963  11.551
82913SOL    HW150636  13.400   7.030  11.489
82913SOL    HW250637  13.284   6.937  11.516
82914SOL     OW50638   0.109  14.125   8.329
82914SOL    HW150639   0.101  14.114   8.423
82914SOL    HW250640   0.027  14.169   8.303
82915SOL     OW50641   7.001   5.588   1.423
82915SOL    HW150642   6.966   5.505   1.455
82915SOL    HW250643   7.094   5.586   1.446
82916SOL     OW50644   7.300   3.647   4.662
82916SOL    HW150645   7.321   3.631   4.754
82916SOL    HW250646   7.307   3.560   4.621
82917SOL     OW50647   2.951  12.243   8.055
82917SOL    HW150648   2.910  12.300   7.989
82917SOL    HW250649   2.889  12.171   8.065
82918SOL     OW50650   9.763   8.309  14.772
82918SOL    HW150651   9.676   8.311  14.733
82918SOL    HW250652   9.822   8.318  14.697
82919SOL     OW50653   3.681   0.004  14.091
82919SOL    HW150654   3.692  14.805  14.032
82919SOL    HW250655   3.680   0.081  14.033
82920SOL     OW50656   9.330   4.231  14.719
82920SOL    HW150657   9.385   4.158  14.744
82920SOL    HW250658   9.356   4.251  14.629
82921SOL     OW50659   1.003   3.019   5.196
82921SOL    HW150660   0.958   3.092   5.154
82921SOL    HW250661   1.045   2.971   5.124
82922SOL     OW50662  13.581  11.400  13.822
82922SOL    HW150663  13.639  11.476  13.815
82922SOL    HW250664  13.526  11.405  13.744
82923SOL     OW50665  13.076   4.310   2.583
82923SOL    HW150666  13.081   4.406   2.576
82923SOL    HW250667  13.098   4.279   2.496
82924SOL     OW50668   3.532   8.707   6.220
82924SOL    HW150669   3.492   8.724   6.135
82924SOL    HW250670   3.499   8.777   6.276
82925SOL     OW50671   6.279  13.752   2.405
82925SOL    HW150672   6.282  13.665   2.446
82925SOL    HW250673   6.345  13.802   2.452
82926SOL     OW50674  14.456   2.195   3.606
82926SOL    HW150675  14.525   2.252   3.640
82926SOL    HW250676  14.389   2.255   3.575
82927SOL     OW50677   2.296   6.279   2.768
82927SOL    HW150678   2.232   6.295   2.699
82927SOL    HW250679   2.270   6.196   2.807
82928SOL     OW50680   3.563  12.159   7.426
82928SOL    HW150681   3.556  12.119   7.340
82928SOL    HW250682   3.658  12.171   7.439
82929SOL     OW50683   9.133  12.786   7.212
82929SOL    HW150684   9.205  12.780   7.150
82929SOL    HW250685   9.175  12.799   7.297
82930SOL     OW50686   3.271   7.245   2.485
82930SOL    HW150687   3.297   7.211   2.399
82930SOL    HW250688   3.240   7.169   2.533
82931SOL     OW50689  11.702   4.445   7.310
82931SOL    HW150690  11.630   4.477   7.364
82931SOL    HW250691  11.699   4.499   7.231
82932SOL     OW50692   2.016  12.267  14.513
82932SOL    HW150693   2.033  12.179  14.478
82932SOL    HW250694   2.041  12.326  14.441
82933SOL     OW50695   7.794   5.320  13.834
82933SOL    HW150696   7.872   5.267  13.846
82933SOL    HW250697   7.790   5.335  13.739
82934SOL     OW50698   3.709  11.457   4.148
82934SOL    HW150699   3.662  11.535   4.180
82934SOL    HW250700   3.688  11.388   4.211
82935SOL     OW50701   3.499   4.218   1.990
82935SOL    HW150702   3.435   4.280   2.024
82935SOL    HW250703   3.579   4.269   1.981
82936SOL     OW50704  11.502   4.233  10.176
82936SOL    HW150705  11.558   4.170  10.219
82936SOL    HW250706  11.466   4.287  10.247
82937SOL     OW50707   7.324   2.698   0.679
82937SOL    HW150708   7.353   2.751   0.605
82937SOL    HW250709   7.232   2.678   0.661
82938SOL     OW50710   2.928   1.652   4.129
82938SOL    HW150711   2.924   1.570   4.079
82938SOL    HW250712   2.838   1.668   4.156
82939SOL     OW50713   5.294   2.603  12.462
82939SOL    HW150714   5.388   2.586  12.468
82939SOL    HW250715   5.285   2.694  12.491
82940SOL     OW50716   9.364   1.237   5.371
82940SOL    HW150717   9.269   1.247   5.376
82940SOL    HW250718   9.399   1.323   5.392
82941SOL     OW50719   8.222   9.944   6.459
82941SOL    HW150720   8.226   9.863   6.409
82941SOL    HW250721   8.186   9.920   6.544
82942SOL     OW50722   6.324   0.089  11.068
82942SOL    HW150723   6.277   0.086  11.151
82942SOL    HW250724   6.297   0.008  11.023
82943SOL     OW50725   0.312   4.532  14.305
82943SOL    HW150726   0.321   4.566  14.216
82943SOL    HW250727   0.218   4.515  14.315
82944SOL     OW50728  14.707  13.125   7.894
82944SOL    HW150729  14.793  13.115   7.933
82944SOL    HW250730  14.655  13.053   7.931
82945SOL     OW50731   7.386   2.948   5.519
82945SOL    HW150732   7.338   2.871   5.549
82945SOL    HW250733   7.448   2.914   5.454
82946SOL     OW50734  11.910   8.546   0.244
82946SOL    HW150735  11.822   8.582   0.246
82946SOL    HW250736  11.964   8.616   0.207
82947SOL     OW50737  12.793  12.291   3.009
82947SOL    HW150738  12.750  12.307   3.093
82947SOL    HW250739  12.833  12.205   3.019
82948SOL     OW50740   4.622  11.930  13.869
82948SOL    HW150741   4.559  11.864  13.899
82948SOL    HW250742   4.586  12.013  13.900
82949SOL     OW50743   3.394   7.444  12.540
82949SOL    HW150744   3.464   7.509  12.550
82949SOL    HW250745   3.322   7.479  12.592
82950SOL     OW50746  10.016   0.968   6.880
82950SOL    HW150747  10.075   1.012   6.940
82950SOL    HW250748   9.998   0.884   6.921
82951SOL     OW50749   9.934   9.837   3.417
82951SOL    HW150750   9.879   9.758   3.411
82951SOL    HW250751   9.931   9.874   3.329
82952SOL     OW50752   0.505   3.080  11.831
82952SOL    HW150753   0.439   3.143  11.801
82952SOL    HW250754   0.454   3.001  11.853
82953SOL     OW50755   6.759  11.856   9.311
82953SOL    HW150756   6.839  11.903   9.333
82953SOL    HW250757   6.719  11.907   9.240
82954SOL     OW50758   1.707   9.011  10.266
82954SOL    HW150759   1.614   8.991  10.276
82954SOL    HW250760   1.752   8.944  10.319
82955SOL     OW50761   9.216   7.147  13.858
82955SOL    HW150762   9.278   7.120  13.791
82955SOL    HW250763   9.174   7.225  13.821
82956SOL     OW50764   4.193  10.144   7.861
82956SOL    HW150765   4.255  10.074   7.845
82956SOL    HW250766   4.147  10.155   7.778
82957SOL     OW50767   4.736  14.317   6.699
82957SOL    HW150768   4.652  14.362   6.703
82957SOL    HW250769   4.772  14.341   6.613
82958SOL     OW50770   8.137   9.713   6.308
82958SOL    HW150771   8.092   9.694   6.225
82958SOL    HW250772   8.202   9.644   6.315
82959SOL     OW50773   5.833   1.371   1.020
82959SOL    HW150774   5.807   1.455   1.059
82959SOL    HW250775   5.896   1.334   1.082
82960SOL     OW50776   5.386  14.376   9.440
82960SOL    HW150777   5.340  14.442   9.492
82960SOL    HW250778   5.325  14.302   9.436
82961SOL     OW50779   5.171  11.254  11.096
82961SOL    HW150780   5.136  11.340  11.119
82961SOL    HW250781   5.258  11.273  11.061
82962SOL     OW50782  12.258  11.654   8.960
82962SOL    HW150783  12.303  11.727   9.002
82962SOL    HW250784  12.260  11.584   9.025
82963SOL     OW50785   6.977  13.481   7.969
82963SOL    HW150786   6.966  13.502   8.061
82963SOL    HW250787   6.905  13.420   7.950
82964SOL     OW50788   0.807   0.227   9.074
82964SOL    HW150789   0.808   0.299   9.137
82964SOL    HW250790   0.893   0.233   9.030
82965SOL     OW50791   7.598   6.168   1.323
82965SOL    HW150792   7.656   6.110   1.274
82965SOL    HW250793   7.657   6.222   1.375
82966SOL     OW50794  10.263   4.462  11.197
82966SOL    HW150795  10.172   4.446  11.223
82966SOL    HW250796  10.301   4.375  11.189
82967SOL     OW50797   6.834   6.177   2.753
82967SOL    HW150798   6.875   6.098   2.718
82967SOL    HW250799   6.844   6.242   2.684
82968SOL     OW50800   0.912  10.303  12.274
82968SOL    HW150801   0.981  10.314  12.209
82968SOL    HW250802   0.944  10.350  12.351
82969SOL     OW50803  14.509   8.022   3.357
82969SOL    HW150804  14.478   7.960   3.291
82969SOL    HW250805  14.604   8.019   3.350
82970SOL     OW50806  13.271   5.891   9.361
82970SOL    HW150807  13.204   5.933   9.414
82970SOL    HW250808  13.224   5.855   9.286
82971SOL     OW50809  13.630   5.889   1.124
82971SOL    HW150810  13.704   5.946   1.102
82971SOL    HW250811  13.608   5.845   1.041
82972SOL     OW50812  14.281  10.991  12.739
82972SOL    HW150813  14.260  11.030  12.824
82972SOL    HW250814  14.375  11.004  12.730
82973SOL     OW50815  14.038   4.805   0.102
82973SOL    HW150816  14.008   4.877   0.047
82973SOL    HW250817  14.133   4.804   0.092
82974SOL     OW50818   3.704   7.628   3.346
82974SOL    HW150819   3.700   7.623   3.441
82974SOL    HW250820   3.617   7.600   3.316
82975SOL     OW50821   1.810   4.928   3.158
82975SOL    HW150822   1.753   4.851   3.156
82975SOL    HW250823   1.787   4.973   3.240
82976SOL     OW50824   2.485  11.853   1.740
82976SOL    HW150825   2.443  11.816   1.818
82976SOL    HW250826   2.472  11.787   1.672
82977SOL     OW50827   4.885   4.151   7.175
82977SOL    HW150828   4.959   4.198   7.136
82977SOL    HW250829   4.844   4.105   7.102
82978SOL     OW50830  13.805  13.325   6.167
82978SOL    HW150831  13.867  13.257   6.144
82978SOL    HW250832  13.856  13.406   6.166
82979SOL     OW50833  13.682   3.984   0.657
82979SOL    HW150834  13.712   3.893   0.660
82979SOL    HW250835  13.749   4.033   0.704
82980SOL     OW50836  14.791   4.882  10.577
82980SOL    HW150837  14.818   4.790  10.577
82980SOL    HW250838  14.731   4.888  10.651
82981SOL     OW50839   8.352  14.758  11.708
82981SOL    HW150840   8.392  14.826  11.653
82981SOL    HW250841   8.350  14.796  11.796
82982SOL     OW50842   0.311   0.120  10.527
82982SOL    HW150843   0.351   0.205  10.541
82982SOL    HW250844   0.227   0.140  10.485
82983SOL     OW50845  10.297   0.063   1.292
82983SOL    HW150846  10.240   0.040   1.365
82983SOL    HW250847  10.383   0.073   1.332
82984SOL     OW50848   3.610  10.626   0.034
82984SOL    HW150849   3.668  10.600   0.106
82984SOL    HW250850   3.533  10.571   0.045
82985SOL     OW50851   1.999  12.204   1.457
82985SOL    HW150852   2.063  12.259   1.413
82985SOL    HW250853   1.920  12.258   1.463
82986SOL     OW50854   4.892   2.257   9.709
82986SOL    HW150855   4.823   2.304   9.663
82986SOL    HW250856   4.968   2.315   9.706
82987SOL     OW50857  10.341   7.345  12.519
82987SOL    HW150858  10.336   7.370  12.427
82987SOL    HW250859  10.381   7.258  12.517
82988SOL     OW50860   6.615  10.675   6.412
82988SOL    HW150861   6.709  10.676   6.393
82988SOL    HW250862   6.592  10.767   6.424
82989SOL     OW50863   3.237  11.047   8.020
82989SOL    HW150864   3.161  10.996   7.993
82989SOL    HW250865   3.312  10.992   8.000
82990SOL     OW50866  10.361  12.376  14.657
82990SOL    HW150867  10.444  12.421  14.643
82990SOL    HW250868  10.351  12.319  14.581
82991SOL     OW50869   2.461   8.221   1.334
82991SOL    HW150870   2.430   8.312   1.339
82991SOL    HW250871   2.519   8.220   1.258
82992SOL     OW50872   7.742   9.929  14.847
82992SOL    HW150873   7.649   9.917  14.829
82992SOL    HW250874   7.749  10.019   0.006
82993SOL     OW50875   6.046  13.208   8.749
82993SOL    HW150876   6.000  13.159   8.681
82993SOL    HW250877   6.136  13.216   8.716
82994SOL     OW50878  10.466   7.577  12.922
82994SOL    HW150879  10.538   7.635  12.899
82994SOL    HW250880  10.410   7.576  12.844
82995SOL     OW50881   8.715   9.352  11.062
82995SOL    HW150882   8.701   9.444  11.083
82995SOL    HW250883   8.650   9.305  11.114
82996SOL     OW50884   7.982   7.609   9.440
82996SOL    HW150885   8.031   7.689   9.459
82996SOL    HW250886   7.892   7.639   9.427
82997SOL     OW50887   8.858  13.795  13.120
82997SOL    HW150888   8.900  13.865  13.172
82997SOL    HW250889   8.919  13.722  13.126
82998SOL     OW50890  13.138   9.980   8.030
82998SOL    HW150891  13.201   9.978   8.102
82998SOL    HW250892  13.079  10.052   8.052
82999SOL     OW50893   6.363  10.283   8.177
82999SOL    HW150894   6.389  10.247   8.262
82999SOL    HW250895   6.270  10.264   8.171
83000SOL     OW50896   2.998   1.432  14.444
83000SOL    HW150897   2.989   1.518  14.403
83000SOL    HW250898   2.912   1.416  14.484
83001SOL     OW50899  14.854  12.207   4.365
83001SOL    HW150900   0.054  12.260   4.337
83001SOL    HW250901  14.826  12.161   4.285
83002SOL     OW50902  14.519  13.305  13.305
83002SOL    HW150903  14.570  13.374  13.263
83002SOL    HW250904  14.569  13.282  13.383
83003SOL     OW50905  14.681  11.004  10.304
83003SOL    HW150906  14.608  11.064  10.288
83003SOL    HW250907  14.702  11.017  10.397
83004SOL     OW50908   3.117  12.664   1.035
83004SOL    HW150909   3.194  12.647   0.980
83004SOL    HW250910   3.088  12.577   1.062
83005SOL     OW50911   3.412  11.634  10.274
83005SOL    HW150912   3.371  11.688  10.342
83005SOL    HW250913   3.343  11.575  10.245
83006SOL     OW50914  13.844   4.692  14.318
83006SOL    HW150915  13.787   4.675  14.393
83006SOL    HW250916  13.921   4.735  14.356
83007SOL     OW50917   9.398   0.042   1.389
83007SOL    HW150918   9.350   0.124   1.393
83007SOL    HW250919   9.363  14.872   1.313
83008SOL     OW50920   2.867   7.761   4.879
83008SOL    HW150921   2.785   7.761   4.928
83008SOL    HW250922   2.915   7.685   4.913
83009SOL     OW50923   9.333   6.315  14.250
83009SOL    HW150924   9.306   6.320  14.342
83009SOL    HW250925   9.255   6.339  14.201
83010SOL     OW50926   2.345   2.954  10.471
83010SOL    HW150927   2.403   3.030  10.461
83010SOL    HW250928   2.286   2.958  10.395
83011SOL     OW50929  11.178   2.443   4.128
83011SOL    HW150930  11.213   2.366   4.173
83011SOL    HW250931  11.090   2.454   4.163
83012SOL     OW50932  12.573   2.314   4.703
83012SOL    HW150933  12.564   2.406   4.729
83012SOL    HW250934  12.667   2.296   4.713
83013SOL     OW50935  13.081  11.411   8.334
83013SOL    HW150936  13.093  11.504   8.312
83013SOL    HW250937  13.068  11.368   8.249
83014SOL     OW50938  13.424   5.699   0.312
83014SOL    HW150939  13.508   5.653   0.309
83014SOL    HW250940  13.359   5.630   0.327
83015SOL     OW50941  13.152  12.176  12.900
83015SOL    HW150942  13.196  12.110  12.847
83015SOL    HW250943  13.059  12.167  12.879
83016SOL     OW50944  11.364   5.028   8.160
83016SOL    HW150945  11.399   4.971   8.092
83016SOL    HW250946  11.425   5.018   8.233
83017SOL     OW50947  12.967   7.732  11.999
83017SOL    HW150948  12.903   7.747  12.067
83017SOL    HW250949  12.956   7.806  11.939
83018SOL     OW50950  12.004   1.508  12.080
83018SOL    HW150951  11.932   1.445  12.087
83018SOL    HW250952  12.000   1.539  11.990
83019SOL     OW50953   5.647   3.234  10.534
83019SOL    HW150954   5.576   3.169  10.536
83019SOL    HW250955   5.716   3.192  10.482
83020SOL     OW50956   1.428   6.674  13.085
83020SOL    HW150957   1.449   6.681  12.992
83020SOL    HW250958   1.418   6.765  13.114
83021SOL     OW50959   9.433   2.866  14.377
83021SOL    HW150960   9.516   2.913  14.372
83021SOL    HW250961   9.431   2.813  14.297
83022SOL     OW50962   8.657   1.825   1.479
83022SOL    HW150963   8.668   1.907   1.431
83022SOL    HW250964   8.720   1.765   1.439
83023SOL     OW50965   1.959  11.680   1.452
83023SOL    HW150966   1.959  11.621   1.377
83023SOL    HW250967   1.934  11.765   1.417
83024SOL     OW50968   6.178   7.305   6.783
83024SOL    HW150969   6.179   7.210   6.768
83024SOL    HW250970   6.149   7.314   6.874
83025SOL     OW50971  13.192   5.758   3.401
83025SOL    HW150972  13.186   5.852   3.384
83025SOL    HW250973  13.166   5.748   3.492
83026SOL     OW50974  10.980   0.574  12.662
83026SOL    HW150975  10.988   0.573  12.566
83026SOL    HW250976  11.053   0.627  12.691
83027SOL     OW50977  13.173   5.048  14.410
83027SOL    HW150978  13.179   5.042  14.315
83027SOL    HW250979  13.264   5.041  14.441
83028SOL     OW50980   3.999   4.803  12.324
83028SOL    HW150981   3.904   4.798  12.311
83028SOL    HW250982   4.009   4.828  12.415
83029SOL     OW50983   1.707   5.549   8.027
83029SOL    HW150984   1.671   5.637   8.018
83029SOL    HW250985   1.801   5.560   8.012
83030SOL     OW50986   2.914   5.638   0.856
83030SOL    HW150987   2.973   5.570   0.889
83030SOL    HW250988   2.853   5.653   0.929
83031SOL     OW50989   9.637   7.125  10.466
83031SOL    HW150990   9.630   7.122  10.370
83031SOL    HW250991   9.651   7.034  10.491
83032SOL     OW50992   7.712   7.001  10.530
83032SOL    HW150993   7.713   7.011  10.626
83032SOL    HW250994   7.680   7.084  10.497
83033SOL     OW50995   1.572   7.381   8.641
83033SOL    HW150996   1.622   7.442   8.695
83033SOL    HW250997   1.482   7.393   8.669
83034SOL     OW50998   8.643   0.072   9.015
83034SOL    HW150999   8.679   0.099   9.100
83034SOL    HW251000   8.638  14.852   9.020
83035SOL     OW51001   3.404   4.755   2.965
83035SOL    HW151002   3.441   4.696   3.030
83035SOL    HW251003   3.455   4.738   2.886
83036SOL     OW51004  14.536  11.465   3.067
83036SOL    HW151005  14.589  11.490   3.143
83036SOL    HW251006  14.575  11.383   3.037
83037SOL     OW51007   1.772   0.698   7.951
83037SOL    HW151008   1.846   0.690   8.010
83037SOL    HW251009   1.756   0.792   7.944
83038SOL     OW51010  11.124   3.922  10.132
83038SOL    HW151011  11.118   3.830  10.160
83038SOL    HW251012  11.062   3.968  10.188
83039SOL     OW51013  13.027  10.663  14.228
83039SOL    HW151014  13.071  10.652  14.143
83039SOL    HW251015  13.024  10.575  14.265
83040SOL     OW51016   9.087  14.330  11.980
83040SOL    HW151017   9.166  14.283  12.007
83040SOL    HW251018   9.062  14.381  12.057
83041SOL     OW51019   4.890   0.073   6.363
83041SOL    HW151020   4.843   0.108   6.438
83041SOL    HW251021   4.823   0.065   6.295
83042SOL     OW51022   2.163   1.029   7.873
83042SOL    HW151023   2.151   1.115   7.834
83042SOL    HW251024   2.108   0.971   7.821
83043SOL     OW51025   3.559   8.940   0.555
83043SOL    HW151026   3.533   8.910   0.642
83043SOL    HW251027   3.476   8.952   0.508
83044SOL     OW51028  14.762   3.320   1.811
83044SOL    HW151029  14.737   3.348   1.723
83044SOL    HW251030  14.782   3.227   1.802
83045SOL     OW51031   0.474   7.353   5.978
83045SOL    HW151032   0.429   7.295   6.039
83045SOL    HW251033   0.564   7.321   5.976
83046SOL     OW51034   1.510   3.029   3.973
83046SOL    HW151035   1.417   3.020   3.993
83046SOL    HW251036   1.517   3.114   3.930
83047SOL     OW51037   8.392   8.798   8.162
83047SOL    HW151038   8.460   8.855   8.197
83047SOL    HW251039   8.416   8.711   8.191
83048SOL     OW51040  11.414   9.149   2.035
83048SOL    HW151041  11.377   9.111   1.956
83048SOL    HW251042  11.341   9.197   2.075
83049SOL     OW51043   4.840  12.606   7.105
83049SOL    HW151044   4.754  12.573   7.131
83049SOL    HW251045   4.839  12.604   7.009
83050SOL     OW51046   7.696   4.731  13.630
83050SOL    HW151047   7.618   4.724  13.685
83050SOL    HW251048   7.666   4.710  13.542
83051SOL     OW51049   6.028   9.970   1.678
83051SOL    HW151050   6.116   9.949   1.647
83051SOL    HW251051   6.012  10.060   1.648
83052SOL     OW51052   9.287  14.246   2.280
83052SOL    HW151053   9.348  14.268   2.350
83052SOL    HW251054   9.342  14.216   2.208
83053SOL     OW51055   5.371   2.760   4.794
83053SOL    HW151056   5.388   2.691   4.730
83053SOL    HW251057   5.457   2.793   4.819
83054SOL     OW51058  12.844   4.908   2.544
83054SOL    HW151059  12.770   4.968   2.555
83054SOL    HW251060  12.884   4.935   2.461
83055SOL     OW51061  10.794   8.658   7.891
83055SOL    HW151062  10.804   8.753   7.898
83055SOL    HW251063  10.871   8.623   7.937
83056SOL     OW51064   4.406   3.516   9.469
83056SOL    HW151065   4.436   3.559   9.389
83056SOL    HW251066   4.430   3.577   9.539
83057SOL     OW51067   1.596   7.514  13.731
83057SOL    HW151068   1.506   7.508  13.698
83057SOL    HW251069   1.614   7.608  13.737
83058SOL     OW51070   9.364   2.153   9.764
83058SOL    HW151071   9.446   2.103   9.771
83058SOL    HW251072   9.321   2.117   9.687
83059SOL     OW51073  12.686   2.689   8.848
83059SOL    HW151074  12.751   2.756   8.870
83059SOL    HW251075  12.616   2.703   8.912
83060SOL     OW51076   2.831  12.353   8.347
83060SOL    HW151077   2.835  12.418   8.417
83060SOL    HW251078   2.858  12.401   8.268
83061SOL     OW51079  13.734   4.072  10.315
83061SOL    HW151080  13.729   4.061  10.410
83061SOL    HW251081  13.825   4.096  10.298
83062SOL     OW51082  13.852   5.783   5.306
83062SOL    HW151083  13.903   5.715   5.261
83062SOL    HW251084  13.767   5.783   5.262
83063SOL     OW51085   6.511   6.510   7.506
83063SOL    HW151086   6.560   6.429   7.493
83063SOL    HW251087   6.435   6.484   7.558
83064SOL     OW51088   7.361  10.799   1.400
83064SOL    HW151089   7.372  10.718   1.450
83064SOL    HW251090   7.267  10.816   1.403
83065SOL     OW51091   5.549  11.373   0.197
83065SOL    HW151092   5.553  11.318   0.276
83065SOL    HW251093   5.623  11.345   0.144
83066SOL     OW51094  11.691  13.882   9.872
83066SOL    HW151095  11.636  13.881   9.794
83066SOL    HW251096  11.630  13.862   9.944
83067SOL     OW51097   4.060  13.193  13.058
83067SOL    HW151098   3.991  13.260  13.057
83067SOL    HW251099   4.141  13.242  13.042
83068SOL     OW51100   4.065   3.986   6.530
83068SOL    HW151101   4.128   3.988   6.458
83068SOL    HW251102   4.028   4.074   6.531
83069SOL     OW51103  10.278   5.145  14.471
83069SOL    HW151104  10.264   5.078  14.404
83069SOL    HW251105  10.362   5.122  14.511
83070SOL     OW51106   4.150   7.092  13.401
83070SOL    HW151107   4.059   7.105  13.426
83070SOL    HW251108   4.152   7.007  13.358
83071SOL     OW51109   0.479  12.208   2.708
83071SOL    HW151110   0.445  12.189   2.621
83071SOL    HW251111   0.462  12.129   2.759
83072SOL     OW51112   8.649   5.179  10.392
83072SOL    HW151113   8.679   5.259  10.349
83072SOL    HW251114   8.570   5.206  10.438
83073SOL     OW51115   9.668   8.930  11.908
83073SOL    HW151116   9.586   8.921  11.860
83073SOL    HW251117   9.652   8.887  11.992
83074SOL     OW51118   1.188  14.096  12.318
83074SOL    HW151119   1.205  14.128  12.407
83074SOL    HW251120   1.241  14.016  12.311
83075SOL     OW51121   6.001   4.404   3.146
83075SOL    HW151122   5.981   4.367   3.232
83075SOL    HW251123   6.064   4.344   3.107
83076SOL     OW51124   7.533   5.757  14.213
83076SOL    HW151125   7.534   5.742  14.118
83076SOL    HW251126   7.509   5.673  14.251
83077SOL     OW51127   8.970   7.045  13.984
83077SOL    HW151128   9.051   7.063  13.935
83077SOL    HW251129   8.933   6.969  13.941
83078SOL     OW51130  10.734   4.839   2.995
83078SOL    HW151131  10.733   4.913   3.056
83078SOL    HW251132  10.697   4.873   2.914
83079SOL     OW51133  11.452  11.822   6.037
83079SOL    HW151134  11.395  11.879   6.088
83079SOL    HW251135  11.513  11.785   6.102
83080SOL     OW51136   7.304  14.475  13.723
83080SOL    HW151137   7.360  14.509  13.793
83080SOL    HW251138   7.352  14.400  13.689
83081SOL     OW51139   7.866   0.493   6.275
83081SOL    HW151140   7.854   0.494   6.180
83081SOL    HW251141   7.800   0.431   6.306
83082SOL     OW51142   2.535   0.035  11.132
83082SOL    HW151143   2.555  14.827  11.087
83082SOL    HW251144   2.567   0.102  11.072
83083SOL     OW51145   7.027   9.072  11.499
83083SOL    HW151146   7.058   8.981  11.503
83083SOL    HW251147   6.978   9.084  11.580
83084SOL     OW51148  10.605   8.776   4.078
83084SOL    HW151149  10.605   8.827   3.997
83084SOL    HW251150  10.675   8.816   4.131
83085SOL     OW51151   5.149   8.128   2.064
83085SOL    HW151152   5.061   8.092   2.051
83085SOL    HW251153   5.207   8.052   2.058
83086SOL     OW51154   5.531  12.756   7.836
83086SOL    HW151155   5.626  12.771   7.837
83086SOL    HW251156   5.495  12.831   7.883
83087SOL     OW51157   1.757  12.153   2.520
83087SOL    HW151158   1.737  12.237   2.479
83087SOL    HW251159   1.806  12.176   2.599
83088SOL     OW51160   3.771   9.235   7.502
83088SOL    HW151161   3.730   9.158   7.542
83088SOL    HW251162   3.853   9.203   7.466
83089SOL     OW51163  11.722   3.244  10.093
83089SOL    HW151164  11.633   3.274  10.076
83089SOL    HW251165  11.718   3.201  10.178
83090SOL     OW51166   4.055  14.258   4.312
83090SOL    HW151167   4.045  14.335   4.367
83090SOL    HW251168   4.052  14.184   4.372
83091SOL     OW51169   3.893  10.038   3.403
83091SOL    HW151170   3.944  10.056   3.323
83091SOL    HW251171   3.802  10.053   3.377
83092SOL     OW51172   4.716   5.055   1.520
83092SOL    HW151173   4.798   5.032   1.564
83092SOL    HW251174   4.679   5.125   1.573
83093SOL     OW51175   8.663  11.218  13.089
83093SOL    HW151176   8.736  11.237  13.147
83093SOL    HW251177   8.615  11.300  13.081
83094SOL     OW51178   1.622   6.071   4.091
83094SOL    HW151179   1.546   6.014   4.095
83094SOL    HW251180   1.696   6.012   4.077
83095SOL     OW51181   7.357   8.122   4.868
83095SOL    HW151182   7.425   8.122   4.935
83095SOL    HW251183   7.342   8.214   4.849
83096SOL     OW51184   5.992   9.720  11.407
83096SOL    HW151185   6.047   9.798  11.405
83096SOL    HW251186   6.047   9.652  11.368
83097SOL     OW51187  12.968  10.298   2.630
83097SOL    HW151188  13.020  10.267   2.704
83097SOL    HW251189  13.018  10.273   2.553
83098SOL     OW51190   8.188   2.922   2.944
83098SOL    HW151191   8.124   2.993   2.941
83098SOL    HW251192   8.237   2.937   3.025
83099SOL     OW51193   5.841  12.928   3.996
83099SOL    HW151194   5.779  12.865   4.032
83099SOL    HW251195   5.877  12.973   4.072
83100SOL     OW51196  12.807   2.077   3.233
83100SOL    HW151197  12.823   2.123   3.316
83100SOL    HW251198  12.758   2.141   3.180
83101SOL     OW51199  12.132  11.533   5.585
83101SOL    HW151200  12.194  11.595   5.546
83101SOL    HW251201  12.065  11.588   5.626
83102SOL     OW51202  10.039   0.377   9.839
83102SOL    HW151203   9.989   0.296   9.824
83102SOL    HW251204   9.995   0.442   9.784
83103SOL     OW51205  12.705   8.582   4.202
83103SOL    HW151206  12.795   8.566   4.230
83103SOL    HW251207  12.680   8.501   4.158
83104SOL     OW51208  10.741   3.237   0.285
83104SOL    HW151209  10.680   3.204   0.219
83104SOL    HW251210  10.795   3.301   0.238
83105SOL     OW51211   2.587   9.565   4.795
83105SOL    HW151212   2.555   9.550   4.707
83105SOL    HW251213   2.603   9.477   4.831
83106SOL     OW51214   1.977   0.506  14.635
83106SOL    HW151215   2.042   0.562  14.679
83106SOL    HW251216   1.940   0.453  14.706
83107SOL     OW51217   9.746   9.173   7.060
83107SOL    HW151218   9.752   9.119   7.140
83107SOL    HW251219   9.685   9.126   7.004
83108SOL     OW51220  13.978   5.311  14.195
83108SOL    HW151221  13.972   5.399  14.232
83108SOL    HW251222  13.953   5.253  14.267
83109SOL     OW51223   7.291   8.380   7.058
83109SOL    HW151224   7.268   8.472   7.065
83109SOL    HW251225   7.273   8.344   7.145
83110SOL     OW51226   3.925   7.336  10.894
83110SOL    HW151227   3.975   7.415  10.875
83110SOL    HW251228   3.985   7.264  10.872
83111SOL     OW51229  12.663   2.359   5.266
83111SOL    HW151230  12.661   2.432   5.205
83111SOL    HW251231  12.756   2.346   5.286
83112SOL     OW51232  12.810   2.015   8.261
83112SOL    HW151233  12.764   1.933   8.280
83112SOL    HW251234  12.902   1.995   8.274
83113SOL     OW51235  12.967   4.744  10.966
83113SOL    HW151236  12.984   4.809  10.898
83113SOL    HW251237  13.043   4.748  11.023
83114SOL     OW51238   2.173   1.708  14.526
83114SOL    HW151239   2.162   1.753  14.610
83114SOL    HW251240   2.106   1.639  14.527
83115SOL     OW51241  13.018   4.766   4.984
83115SOL    HW151242  12.928   4.747   5.010
83115SOL    HW251243  13.041   4.845   5.033
83116SOL     OW51244   4.798   7.188  12.892
83116SOL    HW151245   4.846   7.119  12.939
83116SOL    HW251246   4.706   7.162  12.898
83117SOL     OW51247   2.004   8.983   7.369
83117SOL    HW151248   2.084   8.986   7.317
83117SOL    HW251249   1.938   8.943   7.312
83118SOL     OW51250  13.048   3.388   7.339
83118SOL    HW151251  13.052   3.439   7.420
83118SOL    HW251252  12.966   3.339   7.345
83119SOL     OW51253   8.177   7.335   1.293
83119SOL    HW151254   8.184   7.345   1.388
83119SOL    HW251255   8.094   7.289   1.280
83120SOL     OW51256   1.899   8.055  12.853
83120SOL    HW151257   1.982   8.048  12.899
83120SOL    HW251258   1.895   8.147  12.826
83121SOL     OW51259   3.793  10.772   9.399
83121SOL    HW151260   3.725  10.772   9.331
83121SOL    HW251261   3.864  10.720   9.361
83122SOL     OW51262   1.652  14.509   2.599
83122SOL    HW151263   1.579  14.448   2.597
83122SOL    HW251264   1.726  14.460   2.563
83123SOL     OW51265  13.715   0.940   4.239
83123SOL    HW151266  13.701   0.918   4.330
83123SOL    HW251267  13.627   0.954   4.203
83124SOL     OW51268   2.184  13.369   4.521
83124SOL    HW151269   2.216  13.456   4.543
83124SOL    HW251270   2.100  13.362   4.568
83125SOL     OW51271  12.026   5.672   6.707
83125SOL    HW151272  11.938   5.641   6.684
83125SOL    HW251273  12.013   5.763   6.734
83126SOL     OW51274   7.213   9.108   5.959
83126SOL    HW151275   7.200   9.086   6.051
83126SOL    HW251276   7.304   9.136   5.953
83127SOL     OW51277  10.190  14.004  11.884
83127SOL    HW151278  10.098  14.032  11.879
83127SOL    HW251279  10.226  14.026  11.798
83128SOL     OW51280   6.843   6.964   6.985
83128SOL    HW151281   6.806   6.950   7.072
83128SOL    HW251282   6.778   6.927   6.925
83129SOL     OW51283  12.951   6.634   1.300
83129SOL    HW151284  12.951   6.584   1.219
83129SOL    HW251285  12.977   6.571   1.367
83130SOL     OW51286  13.737   3.033   5.012
83130SOL    HW151287  13.728   3.112   5.066
83130SOL    HW251288  13.704   2.962   5.067
83131SOL     OW51289  14.672   9.262   4.344
83131SOL    HW151290  14.737   9.221   4.400
83131SOL    HW251291  14.721   9.324   4.290
83132SOL     OW51292   9.942   7.651   6.358
83132SOL    HW151293   9.848   7.641   6.373
83132SOL    HW251294   9.981   7.578   6.404
83133SOL     OW51295   5.260   8.066  11.947
83133SOL    HW151296   5.196   8.033  11.883
83133SOL    HW251297   5.207   8.087  12.024
83134SOL     OW51298   9.321  10.516  14.521
83134SOL    HW151299   9.256  10.509  14.591
83134SOL    HW251300   9.340  10.610  14.516
83135SOL     OW51301   2.150   7.671   9.055
83135SOL    HW151302   2.176   7.579   9.049
83135SOL    HW251303   2.092   7.684   8.980
83136SOL     OW51304  10.575   4.516  14.242
83136SOL    HW151305  10.537   4.502  14.156
83136SOL    HW251306  10.669   4.524  14.226
83137SOL     OW51307   3.935   6.166  13.357
83137SOL    HW151308   3.944   6.207  13.271
83137SOL    HW251309   4.024   6.139  13.379
83138SOL     OW51310   6.330   9.790   8.187
83138SOL    HW151311   6.387   9.843   8.242
83138SOL    HW251312   6.355   9.813   8.097
83139SOL     OW51313  12.590  10.714   4.977
83139SOL    HW151314  12.597  10.791   5.033
83139SOL    HW251315  12.651  10.651   5.015
83140SOL     OW51316  10.887  11.326   9.820
83140SOL    HW151317  10.825  11.371   9.762
83140SOL    HW251318  10.836  11.305   9.898
83141SOL     OW51319  14.614  10.374   8.419
83141SOL    HW151320  14.582  10.333   8.499
83141SOL    HW251321  14.666  10.449   8.449
83142SOL     OW51322   0.149  14.167  14.511
83142SOL    HW151323   0.213  14.180  14.441
83142SOL    HW251324   0.196  14.187  14.591
83143SOL     OW51325   1.820  12.709  13.440
83143SOL    HW151326   1.792  12.618  13.439
83143SOL    HW251327   1.851  12.726  13.351
83144SOL     OW51328  11.124   9.159   0.492
83144SOL    HW151329  11.074   9.240   0.480
83144SOL    HW251330  11.213   9.189   0.508
83145SOL     OW51331   5.040  12.752   0.999
83145SOL    HW151332   5.059  12.658   1.003
83145SOL    HW251333   4.991  12.770   1.079
83146SOL     OW51334  11.214  13.776  10.671
83146SOL    HW151335  11.123  13.803  10.660
83146SOL    HW251336  11.224  13.701  10.613
83147SOL     OW51337  14.536   4.936   1.704
83147SOL    HW151338  14.607   4.892   1.751
83147SOL    HW251339  14.514   5.012   1.759
83148SOL     OW51340  14.033   5.355   9.233
83148SOL    HW151341  13.941   5.369   9.212
83148SOL    HW251342  14.052   5.416   9.304
83149SOL     OW51343   3.016   0.441   9.677
83149SOL    HW151344   2.945   0.404   9.625
83149SOL    HW251345   3.011   0.535   9.660
83150SOL     OW51346   3.277  11.685   2.647
83150SOL    HW151347   3.299  11.605   2.599
83150SOL    HW251348   3.181  11.690   2.641
83151SOL     OW51349   1.223   1.523   4.703
83151SOL    HW151350   1.202   1.585   4.773
83151SOL    HW251351   1.310   1.549   4.674
83152SOL     OW51352   1.420   9.421   0.024
83152SOL    HW151353   1.355   9.413   0.093
83152SOL    HW251354   1.373   9.462  14.826
83153SOL     OW51355   6.374   1.867  12.695
83153SOL    HW151356   6.379   1.815  12.774
83153SOL    HW251357   6.312   1.937  12.716
83154SOL     OW51358  10.869  14.370  13.965
83154SOL    HW151359  10.942  14.428  13.946
83154SOL    HW251360  10.892  14.327  14.047
83155SOL     OW51361   9.357  13.277   7.089
83155SOL    HW151362   9.323  13.254   7.175
83155SOL    HW251363   9.357  13.195   7.040
83156SOL     OW51364  12.482   1.077   7.826
83156SOL    HW151365  12.479   1.067   7.921
83156SOL    HW251366  12.393   1.103   7.802
83157SOL     OW51367   5.782  12.899   5.923
83157SOL    HW151368   5.751  12.989   5.936
83157SOL    HW251369   5.765  12.880   5.831
83158SOL     OW51370   1.410   5.932   9.305
83158SOL    HW151371   1.436   5.846   9.272
83158SOL    HW251372   1.480   5.991   9.276
83159SOL     OW51373   7.703   5.269   3.759
83159SOL    HW151374   7.710   5.362   3.782
83159SOL    HW251375   7.761   5.259   3.684
83160SOL     OW51376   6.440   3.385  12.662
83160SOL    HW151377   6.484   3.302  12.681
83160SOL    HW251378   6.469   3.408  12.574
83161SOL     OW51379   9.271   9.362   8.704
83161SOL    HW151380   9.246   9.325   8.620
83161SOL    HW251381   9.212   9.320   8.767
83162SOL     OW51382  13.011  13.392   2.163
83162SOL    HW151383  13.026  13.475   2.208
83162SOL    HW251384  13.026  13.325   2.230
83163SOL     OW51385   4.355   0.609   9.336
83163SOL    HW151386   4.316   0.683   9.289
83163SOL    HW251387   4.282   0.572   9.386
83164SOL     OW51388   7.092  10.909   1.422
83164SOL    HW151389   7.008  10.938   1.387
83164SOL    HW251390   7.135  10.990   1.449
83165SOL     OW51391   6.691   5.231   3.292
83165SOL    HW151392   6.600   5.204   3.278
83165SOL    HW251393   6.716   5.190   3.375
83166SOL     OW51394   1.317   8.874   9.563
83166SOL    HW151395   1.388   8.890   9.501
83166SOL    HW251396   1.335   8.787   9.598
83167SOL     OW51397   0.810  10.636   8.732
83167SOL    HW151398   0.751  10.699   8.773
83167SOL    HW251399   0.849  10.683   8.658
83168SOL     OW51400   4.856  14.450   4.395
83168SOL    HW151401   4.937  14.399   4.392
83168SOL    HW251402   4.791  14.394   4.354
83169SOL     OW51403  14.695   8.489   5.764
83169SOL    HW151404  14.702   8.423   5.833
83169SOL    HW251405  14.713   8.572   5.807
83170SOL     OW51406   2.045   3.780   9.906
83170SOL    HW151407   2.079   3.702   9.863
83170SOL    HW251408   1.980   3.815   9.845
83171SOL     OW51409  12.166   8.499   7.683
83171SOL    HW151410  12.245   8.517   7.733
83171SOL    HW251411  12.096   8.498   7.748
83172SOL     OW51412   0.533   9.735  12.718
83172SOL    HW151413   0.621   9.697  12.716
83172SOL    HW251414   0.501   9.724  12.628
83173SOL     OW51415  10.543   0.864   9.766
83173SOL    HW151416  10.556   0.817   9.683
83173SOL    HW251417  10.586   0.809   9.831
83174SOL     OW51418  11.524   3.655  13.176
83174SOL    HW151419  11.437   3.694  13.183
83174SOL    HW251420  11.538   3.643  13.082
83175SOL     OW51421   9.824   7.187   4.386
83175SOL    HW151422   9.791   7.098   4.392
83175SOL    HW251423   9.873   7.200   4.468
83176SOL     OW51424  13.506  11.205   9.300
83176SOL    HW151425  13.549  11.149   9.235
83176SOL    HW251426  13.461  11.272   9.248
83177SOL     OW51427   7.126   6.973   4.901
83177SOL    HW151428   7.175   6.897   4.932
83177SOL    HW251429   7.108   6.954   4.808
83178SOL     OW51430  13.282  14.195  10.695
83178SOL    HW151431  13.340  14.193  10.771
83178SOL    HW251432  13.339  14.217  10.621
83179SOL     OW51433   9.847   3.470   4.292
83179SOL    HW151434   9.859   3.527   4.216
83179SOL    HW251435   9.934   3.438   4.313
83180SOL     OW51436  14.612  14.855  12.053
83180SOL    HW151437  14.704  14.827  12.048
83180SOL    HW251438  14.562  14.774  12.044
83181SOL     OW51439   4.629   4.769  12.418
83181SOL    HW151440   4.679   4.848  12.399
83181SOL    HW251441   4.679   4.724  12.486
83182SOL     OW51442   3.626   8.407   9.315
83182SOL    HW151443   3.720   8.423   9.310
83182SOL    HW251444   3.588   8.475   9.259
83183SOL     OW51445   7.081   3.588   8.686
83183SOL    HW151446   7.171   3.621   8.694
83183SOL    HW251447   7.032   3.662   8.651
83184SOL     OW51448  10.870   7.295   4.337
83184SOL    HW151449  10.956   7.337   4.336
83184SOL    HW251450  10.839   7.301   4.246
83185SOL     OW51451  13.528  13.620  13.504
83185SOL    HW151452  13.550  13.631  13.411
83185SOL    HW251453  13.547  13.705  13.543
83186SOL     OW51454   8.066  13.186   2.978
83186SOL    HW151455   7.995  13.131   2.944
83186SOL    HW251456   8.126  13.195   2.904
83187SOL     OW51457   0.765  13.942   9.729
83187SOL    HW151458   0.783  13.996   9.805
83187SOL    HW251459   0.799  13.992   9.655
83188SOL     OW51460   2.244   5.562   1.371
83188SOL    HW151461   2.195   5.613   1.307
83188SOL    HW251462   2.179   5.538   1.437
83189SOL     OW51463   2.524   8.942   5.181
83189SOL    HW151464   2.532   8.981   5.268
83189SOL    HW251465   2.614   8.918   5.157
83190SOL     OW51466   3.458   5.629   2.869
83190SOL    HW151467   3.509   5.673   2.801
83190SOL    HW251468   3.520   5.620   2.942
83191SOL     OW51469  14.229   1.031  14.866
83191SOL    HW151470  14.273   1.112  14.841
83191SOL    HW251471  14.141   1.059   0.018
83192SOL     OW51472   2.960  12.642   1.435
83192SOL    HW151473   2.970  12.676   1.345
83192SOL    HW251474   3.011  12.561   1.435
83193SOL     OW51475   5.249  12.082  14.691
83193SOL    HW151476   5.342  12.101  14.680
83193SOL    HW251477   5.212  12.091  14.603
83194SOL     OW51478  13.612  11.521   9.235
83194SOL    HW151479  13.525  11.550   9.205
83194SOL    HW251480  13.625  11.567   9.317
83195SOL     OW51481  11.509   8.568   5.260
83195SOL    HW151482  11.506   8.632   5.332
83195SOL    HW251483  11.440   8.506   5.280
83196SOL     OW51484  14.676  12.497  10.367
83196SOL    HW151485  14.746  12.540  10.317
83196SOL    HW251486  14.595  12.541  10.337
83197SOL     OW51487  11.016   9.344  14.527
83197SOL    HW151488  11.020   9.418  14.466
83197SOL    HW251489  11.107   9.316  14.536
83198SOL     OW51490   3.283   4.327   6.477
83198SOL    HW151491   3.322   4.301   6.561
83198SOL    HW251492   3.202   4.372   6.501
83199SOL     OW51493  10.044   0.450   2.852
83199SOL    HW151494  10.135   0.442   2.822
83199SOL    HW251495   9.996   0.482   2.776
83200SOL     OW51496   6.182   8.197   1.619
83200SOL    HW151497   6.174   8.270   1.681
83200SOL    HW251498   6.273   8.168   1.629
83201SOL     OW51499  11.458  13.437  14.264
83201SOL    HW151500  11.420  13.503  14.206
83201SOL    HW251501  11.466  13.358  14.210
83202SOL     OW51502   1.845   7.215  13.972
83202SOL    HW151503   1.932   7.190  14.003
83202SOL    HW251504   1.787   7.148  14.009
83203SOL     OW51505   5.947   7.401   4.889
83203SOL    HW151506   5.988   7.317   4.911
83203SOL    HW251507   5.896   7.424   4.966
83204SOL     OW51508   6.376   9.836   9.317
83204SOL    HW151509   6.455   9.829   9.370
83204SOL    HW251510   6.357   9.746   9.290
83205SOL     OW51511   5.825   6.092   1.529
83205SOL    HW151512   5.841   6.064   1.439
83205SOL    HW251513   5.912   6.090   1.571
83206SOL     OW51514   1.822   9.424   2.583
83206SOL    HW151515   1.911   9.398   2.604
83206SOL    HW251516   1.832   9.494   2.518
83207SOL     OW51517  14.831   9.469  14.718
83207SOL    HW151518  14.819   9.564  14.721
83207SOL    HW251519  14.743   9.434  14.706
83208SOL     OW51520   1.834   5.824   0.725
83208SOL    HW151521   1.748   5.865   0.719
83208SOL    HW251522   1.864   5.843   0.814
83209SOL     OW51523   4.727   7.745   8.442
83209SOL    HW151524   4.790   7.805   8.401
83209SOL    HW251525   4.642   7.773   8.409
83210SOL     OW51526  11.847   6.244  11.966
83210SOL    HW151527  11.838   6.284  11.880
83210SOL    HW251528  11.941   6.229  11.976
83211SOL     OW51529   7.957  10.237  10.974
83211SOL    HW151530   7.921  10.214  10.888
83211SOL    HW251531   7.881  10.236  11.032
83212SOL     OW51532   4.125   7.170   6.819
83212SOL    HW151533   4.115   7.235   6.750
83212SOL    HW251534   4.112   7.086   6.775
83213SOL     OW51535   3.415   1.911   3.575
83213SOL    HW151536   3.496   1.881   3.534
83213SOL    HW251537   3.395   1.994   3.533
83214SOL     OW51538   6.867   4.326  10.953
83214SOL    HW151539   6.946   4.308  11.004
83214SOL    HW251540   6.875   4.419  10.930
83215SOL     OW51541  10.985  12.728  13.988
83215SOL    HW151542  10.953  12.691  14.070
83215SOL    HW251543  10.914  12.784  13.958
83216SOL     OW51544   7.731  13.225   0.941
83216SOL    HW151545   7.748  13.221   0.847
83216SOL    HW251546   7.775  13.306   0.969
83217SOL     OW51547  13.081  10.445   1.849
83217SOL    HW151548  13.167  10.458   1.888
83217SOL    HW251549  13.019  10.471   1.917
83218SOL     OW51550   0.985  11.099   7.013
83218SOL    HW151551   0.901  11.114   7.055
83218SOL    HW251552   0.998  11.175   6.957
83219SOL     OW51553  13.710  14.809  12.912
83219SOL    HW151554  13.721  14.851  12.827
83219SOL    HW251555  13.742  14.720  12.900
83220SOL     OW51556   0.119   8.277   5.968
83220SOL    HW151557   0.169   8.356   5.949
83220SOL    HW251558   0.029   8.308   5.980
83221SOL     OW51559   6.090  13.321  13.281
83221SOL    HW151560   6.176  13.335  13.322
83221SOL    HW251561   6.097  13.365  13.196
83222SOL     OW51562   0.479  11.196  10.189
83222SOL    HW151563   0.499  11.169  10.099
83222SOL    HW251564   0.406  11.258  10.180
83223SOL     OW51565   6.182   4.044   3.418
83223SOL    HW151566   6.275   4.038   3.394
83223SOL    HW251567   6.148   3.955   3.403
83224SOL     OW51568  11.971   9.502   6.464
83224SOL    HW151569  12.014   9.548   6.392
83224SOL    HW251570  12.000   9.411   6.456
83225SOL     OW51571   9.922  14.334  11.930
83225SOL    HW151572   9.940  14.240  11.919
83225SOL    HW251573   9.901  14.343  12.023
83226SOL     OW51574  10.397   7.466   3.536
83226SOL    HW151575  10.362   7.510   3.613
83226SOL    HW251576  10.320   7.442   3.485
83227SOL     OW51577   2.664  13.739  14.204
83227SOL    HW151578   2.628  13.828  14.204
83227SOL    HW251579   2.596  13.686  14.246
83228SOL     OW51580  13.296  11.396   2.944
83228SOL    HW151581  13.223  11.333   2.938
83228SOL    HW251582  13.357  11.355   3.006
83229SOL     OW51583   5.900   5.290   6.455
83229SOL    HW151584   5.943   5.242   6.383
83229SOL    HW251585   5.904   5.229   6.529
83230SOL     OW51586  10.585   7.004   3.857
83230SOL    HW151587  10.671   7.037   3.883
83230SOL    HW251588  10.530   7.081   3.850
83231SOL     OW51589   7.323   5.570   4.581
83231SOL    HW151590   7.309   5.655   4.621
83231SOL    HW251591   7.280   5.575   4.496
83232SOL     OW51592   8.493  12.341   1.922
83232SOL    HW151593   8.479  12.292   2.003
83232SOL    HW251594   8.538  12.421   1.949
83233SOL     OW51595   0.752   7.654   7.491
83233SOL    HW151596   0.777   7.744   7.471
83233SOL    HW251597   0.830   7.602   7.472
83234SOL     OW51598  14.797  12.877  10.317
83234SOL    HW151599  14.778  12.923  10.235
83234SOL    HW251600  14.862  12.931  10.361
83235SOL     OW51601   3.414   4.165   7.812
83235SOL    HW151602   3.416   4.070   7.821
83235SOL    HW251603   3.506   4.192   7.812
83236SOL     OW51604   9.192   9.981  12.857
83236SOL    HW151605   9.228   9.933  12.932
83236SOL    HW251606   9.266  10.032  12.823
83237SOL     OW51607   6.014   6.861  10.000
83237SOL    HW151608   5.987   6.780   9.955
83237SOL    HW251609   6.087   6.894   9.948
83238SOL     OW51610   3.306  12.147   0.475
83238SOL    HW151611   3.233  12.134   0.535
83238SOL    HW251612   3.297  12.076   0.411
83239SOL     OW51613  11.814   7.053  11.408
83239SOL    HW151614  11.861   7.105  11.343
83239SOL    HW251615  11.880   6.994  11.445
83240SOL     OW51616   8.625   9.310  11.679
83240SOL    HW151617   8.595   9.399  11.699
83240SOL    HW251618   8.546   9.265  11.647
83241SOL     OW51619   6.248   4.145   5.210
83241SOL    HW151620   6.219   4.235   5.199
83241SOL    HW251621   6.262   4.112   5.121
83242SOL     OW51622   5.755  11.665   9.948
83242SOL    HW151623   5.819  11.732   9.973
83242SOL    HW251624   5.670  11.705   9.964
83243SOL     OW51625  12.051  12.085  12.517
83243SOL    HW151626  12.058  12.165  12.571
83243SOL    HW251627  11.983  12.034  12.560
83244SOL     OW51628   7.397   9.624  10.046
83244SOL    HW151629   7.307   9.647  10.022
83244SOL    HW251630   7.441   9.708  10.059
83245SOL     OW51631   4.558  10.994  12.830
83245SOL    HW151632   4.554  11.022  12.739
83245SOL    HW251633   4.605  10.911  12.827
83246SOL     OW51634  11.020   6.054   3.838
83246SOL    HW151635  11.095   6.043   3.897
83246SOL    HW251636  10.960   5.983   3.862
83247SOL     OW51637   7.199   8.769  12.131
83247SOL    HW151638   7.169   8.769  12.040
83247SOL    HW251639   7.197   8.861  12.156
83248SOL     OW51640   5.064   6.094   1.544
83248SOL    HW151641   5.158   6.108   1.552
83248SOL    HW251642   5.039   6.053   1.627
83249SOL     OW51643   8.011  14.332   4.172
83249SOL    HW151644   7.978  14.323   4.082
83249SOL    HW251645   8.101  14.362   4.161
83250SOL     OW51646   3.775   7.250   8.056
83250SOL    HW151647   3.797   7.163   8.088
83250SOL    HW251648   3.698   7.276   8.107
83251SOL     OW51649   7.168   4.505  14.090
83251SOL    HW151650   7.137   4.595  14.089
83251SOL    HW251651   7.093   4.454  14.121
83252SOL     OW51652  12.590   8.432   5.189
83252SOL    HW151653  12.545   8.408   5.108
83252SOL    HW251654  12.681   8.409   5.173
83253SOL     OW51655   5.974   4.636  13.570
83253SOL    HW151656   5.899   4.692  13.592
83253SOL    HW251657   6.003   4.602  13.654
83254SOL     OW51658   5.198   1.644   8.041
83254SOL    HW151659   5.275   1.591   8.020
83254SOL    HW251660   5.188   1.636   8.136
83255SOL     OW51661  12.579   6.608   9.203
83255SOL    HW151662  12.563   6.589   9.296
83255SOL    HW251663  12.565   6.524   9.159
83256SOL     OW51664  12.008  11.584  12.139
83256SOL    HW151665  12.070  11.512  12.148
83256SOL    HW251666  12.059  11.655  12.098
83257SOL     OW51667   3.816   3.869  10.798
83257SOL    HW151668   3.754   3.883  10.726
83257SOL    HW251669   3.760   3.854  10.875
83258SOL     OW51670  14.680   1.787   3.597
83258SOL    HW151671  14.760   1.839   3.601
83258SOL    HW251672  14.612   1.844   3.632
83259SOL     OW51673   6.238  11.460  13.311
83259SOL    HW151674   6.313  11.425  13.263
83259SOL    HW251675   6.164  11.445  13.252
83260SOL     OW51676   7.615   0.207   7.339
83260SOL    HW151677   7.679   0.181   7.273
83260SOL    HW251678   7.557   0.132   7.348
83261SOL     OW51679  14.426   0.755   7.475
83261SOL    HW151680  14.430   0.745   7.380
83261SOL    HW251681  14.498   0.815   7.496
83262SOL     OW51682   1.333   8.129   9.114
83262SOL    HW151683   1.267   8.197   9.099
83262SOL    HW251684   1.306   8.056   9.059
83263SOL     OW51685   8.209   8.570  10.157
83263SOL    HW151686   8.162   8.574  10.074
83263SOL    HW251687   8.164   8.633  10.213
83264SOL     OW51688  10.310   9.598  12.679
83264SOL    HW151689  10.380   9.659  12.653
83264SOL    HW251690  10.287   9.552  12.598
83265SOL     OW51691   7.898   2.554   3.276
83265SOL    HW151692   7.962   2.591   3.215
83265SOL    HW251693   7.828   2.620   3.281
83266SOL     OW51694   5.005  14.610   4.750
83266SOL    HW151695   4.929  14.646   4.797
83266SOL    HW251696   5.081  14.649   4.794
83267SOL     OW51697   4.915   8.977   6.821
83267SOL    HW151698   4.845   8.979   6.755
83267SOL    HW251699   4.930   8.884   6.837
83268SOL     OW51700   8.213   8.201   4.635
83268SOL    HW151701   8.206   8.106   4.648
83268SOL    HW251702   8.182   8.216   4.546
83269SOL     OW51703  13.585  12.200   7.248
83269SOL    HW151704  13.659  12.149   7.281
83269SOL    HW251705  13.588  12.282   7.298
83270SOL     OW51706  10.932   4.627   3.608
83270SOL    HW151707  10.901   4.619   3.518
83270SOL    HW251708  10.977   4.711   3.610
83271SOL     OW51709  10.916  11.826   7.093
83271SOL    HW151710  10.942  11.746   7.137
83271SOL    HW251711  10.997  11.859   7.053
83272SOL     OW51712   5.632   7.515   3.533
83272SOL    HW151713   5.647   7.609   3.517
83272SOL    HW251714   5.663   7.472   3.453
83273SOL     OW51715   9.343   6.487   3.356
83273SOL    HW151716   9.268   6.457   3.304
83273SOL    HW251717   9.306   6.551   3.417
83274SOL     OW51718   2.307   0.938   0.962
83274SOL    HW151719   2.347   0.968   0.881
83274SOL    HW251720   2.362   0.975   1.031
83275SOL     OW51721   2.767  10.586  12.206
83275SOL    HW151722   2.848  10.560  12.161
83275SOL    HW251723   2.713  10.626  12.138
83276SOL     OW51724   5.304   8.368   1.966
83276SOL    HW151725   5.390   8.326   1.971
83276SOL    HW251726   5.245   8.305   2.007
83277SOL     OW51727  10.353   5.021  14.243
83277SOL    HW151728  10.302   4.964  14.185
83277SOL    HW251729  10.442   4.988  14.237
83278SOL     OW51730   1.497   0.865   4.032
83278SOL    HW151731   1.530   0.913   3.956
83278SOL    HW251732   1.514   0.773   4.012
83279SOL     OW51733   2.307   5.711   5.797
83279SOL    HW151734   2.346   5.768   5.863
83279SOL    HW251735   2.267   5.772   5.734
83280SOL     OW51736   8.769   8.855   7.528
83280SOL    HW151737   8.812   8.805   7.459
83280SOL    HW251738   8.729   8.790   7.585
83281SOL     OW51739   2.310  10.188   7.345
83281SOL    HW151740   2.311  10.195   7.249
83281SOL    HW251741   2.269  10.104   7.362
83282SOL     OW51742   7.778   1.071   2.277
83282SOL    HW151743   7.729   0.990   2.291
83282SOL    HW251744   7.778   1.082   2.182
83283SOL     OW51745   2.271   0.862  10.683
83283SOL    HW151746   2.260   0.775  10.645
83283SOL    HW251747   2.365   0.879  10.678
83284SOL     OW51748  12.143  10.613   9.887
83284SOL    HW151749  12.095  10.557   9.826
83284SOL    HW251750  12.100  10.699   9.880
83285SOL     OW51751   8.254   6.506   0.362
83285SOL    HW151752   8.316   6.577   0.378
83285SOL    HW251753   8.172   6.536   0.401
83286SOL     OW51754   4.425  10.692  13.865
83286SOL    HW151755   4.495  10.628  13.878
83286SOL    HW251756   4.403  10.685  13.772
83287SOL     OW51757   7.680  13.394  10.691
83287SOL    HW151758   7.694  13.374  10.784
83287SOL    HW251759   7.682  13.309  10.648
83288SOL     OW51760  13.580  11.494  14.429
83288SOL    HW151761  13.647  11.517  14.493
83288SOL    HW251762  13.514  11.563  14.437
83289SOL     OW51763   3.933   0.451   3.869
83289SOL    HW151764   3.972   0.364   3.875
83289SOL    HW251765   3.862   0.440   3.806
83290SOL     OW51766   9.657  13.330  11.489
83290SOL    HW151767   9.622  13.406  11.536
83290SOL    HW251768   9.677  13.266  11.558
83291SOL     OW51769   6.282  14.224   9.174
83291SOL    HW151770   6.360  14.212   9.227
83291SOL    HW251771   6.210  14.191   9.229
83292SOL     OW51772   9.735   7.119   8.972
83292SOL    HW151773   9.730   7.039   8.919
83292SOL    HW251774   9.752   7.088   9.061
83293SOL     OW51775   9.438   0.232  12.302
83293SOL    HW151776   9.426   0.319  12.341
83293SOL    HW251777   9.468   0.249  12.213
83294SOL     OW51778  14.451  11.127  11.129
83294SOL    HW151779  14.505  11.164  11.059
83294SOL    HW251780  14.413  11.203  11.173
83295SOL     OW51781   3.726   6.666   8.292
83295SOL    HW151782   3.689   6.590   8.336
83295SOL    HW251783   3.788   6.630   8.229
83296SOL     OW51784  12.072   8.836   5.155
83296SOL    HW151785  12.135   8.810   5.222
83296SOL    HW251786  12.046   8.753   5.114
83297SOL     OW51787   1.082   0.770  14.305
83297SOL    HW151788   1.049   0.799  14.390
83297SOL    HW251789   1.080   0.675  14.309
83298SOL     OW51790   7.184  11.017   4.326
83298SOL    HW151791   7.094  11.016   4.359
83298SOL    HW251792   7.179  11.061   4.242
83299SOL     OW51793   0.011  10.058   8.468
83299SOL    HW151794  14.813  10.051   8.529
83299SOL    HW251795   0.039  10.150   8.475
83300SOL     OW51796   4.950   1.766  12.886
83300SOL    HW151797   4.982   1.800  12.802
83300SOL    HW251798   4.866   1.810  12.898
83301SOL     OW51799   1.808   3.722   6.458
83301SOL    HW151800   1.728   3.759   6.420
83301SOL    HW251801   1.837   3.787   6.521
83302SOL     OW51802  10.377   3.467  14.435
83302SOL    HW151803  10.355   3.527  14.506
83302SOL    HW251804  10.458   3.424  14.464
83303SOL     OW51805   0.988   2.747  13.062
83303SOL    HW151806   1.060   2.766  13.002
83303SOL    HW251807   0.926   2.697  13.009
83304SOL     OW51808   3.291   6.729   2.940
83304SOL    HW151809   3.217   6.738   3.000
83304SOL    HW251810   3.274   6.647   2.894
83305SOL     OW51811  13.405   2.920   5.521
83305SOL    HW151812  13.424   2.827   5.519
83305SOL    HW251813  13.480   2.959   5.568
83306SOL     OW51814   5.673  13.465   1.393
83306SOL    HW151815   5.623  13.411   1.454
83306SOL    HW251816   5.639  13.441   1.307
83307SOL     OW51817  10.418  13.625   4.770
83307SOL    HW151818  10.349  13.587   4.823
83307SOL    HW251819  10.477  13.552   4.751
83308SOL     OW51820  13.218  11.989   0.072
83308SOL    HW151821  13.270  11.911   0.089
83308SOL    HW251822  13.253  12.024  14.865
83309SOL     OW51823  11.993  11.034   2.679
83309SOL    HW151824  12.029  11.112   2.721
83309SOL    HW251825  11.958  10.981   2.751
83310SOL     OW51826   2.501   7.569   3.999
83310SOL    HW151827   2.581   7.558   3.948
83310SOL    HW251828   2.515   7.517   4.078
83311SOL     OW51829   1.568   2.209   8.559
83311SOL    HW151830   1.553   2.268   8.632
83311SOL    HW251831   1.490   2.154   8.557
83312SOL     OW51832   3.530  12.473  13.613
83312SOL    HW151833   3.615  12.450  13.649
83312SOL    HW251834   3.538  12.565  13.588
83313SOL     OW51835  12.216   5.815   3.875
83313SOL    HW151836  12.205   5.754   3.948
83313SOL    HW251837  12.204   5.762   3.797
83314SOL     OW51838   0.217  12.207  10.684
83314SOL    HW151839   0.216  12.246  10.596
83314SOL    HW251840   0.241  12.116  10.669
83315SOL     OW51841   4.698  14.082   2.449
83315SOL    HW151842   4.731  14.037   2.371
83315SOL    HW251843   4.750  14.047   2.521
83316SOL     OW51844   2.792  14.790  10.502
83316SOL    HW151845   2.878  14.749  10.507
83316SOL    HW251846   2.735  14.724  10.462
83317SOL     OW51847   9.687  12.741   4.526
83317SOL    HW151848   9.593  12.751   4.545
83317SOL    HW251849   9.694  12.755   4.432
83318SOL     OW51850  12.712   5.421  11.262
83318SOL    HW151851  12.656   5.384  11.331
83318SOL    HW251852  12.771   5.479  11.309
83319SOL     OW51853   5.136   2.570   9.318
83319SOL    HW151854   5.103   2.589   9.231
83319SOL    HW251855   5.200   2.499   9.305
83320SOL     OW51856   4.059   7.003  10.587
83320SOL    HW151857   4.093   6.966  10.505
83320SOL    HW251858   4.055   7.097  10.571
83321SOL     OW51859   6.678  13.153  10.810
83321SOL    HW151860   6.751  13.147  10.871
83321SOL    HW251861   6.678  13.244  10.780
83322SOL     OW51862   1.856   4.458   1.642
83322SOL    HW151863   1.932   4.399   1.646
83322SOL    HW251864   1.802   4.431   1.716
83323SOL     OW51865   9.442  14.082  10.903
83323SOL    HW151866   9.484  14.032  10.974
83323SOL    HW251867   9.357  14.108  10.940
83324SOL     OW51868  14.117   0.116   1.603
83324SOL    HW151869  14.136   0.205   1.572
83324SOL    HW251870  14.126   0.122   1.699
83325SOL     OW51871   3.946  11.126   1.290
83325SOL    HW151872   3.897  11.155   1.366
83325SOL    HW251873   4.033  11.107   1.323
83326SOL     OW51874   1.926   3.869   5.893
83326SOL    HW151875   1.931   3.810   5.968
83326SOL    HW251876   1.839   3.909   5.900
83327SOL     OW51877   8.452   6.671  12.074
83327SOL    HW151878   8.532   6.694  12.121
83327SOL    HW251879   8.483   6.634  11.991
83328SOL     OW51880  13.093  11.346  10.772
83328SOL    HW151881  13.173  11.298  10.747
83328SOL    HW251882  13.047  11.359  10.689
83329SOL     OW51883   0.398   5.531   3.693
83329SOL    HW151884   0.472   5.577   3.652
83329SOL    HW251885   0.382   5.577   3.775
83330SOL     OW51886   6.655   0.606  12.158
83330SOL    HW151887   6.747   0.582  12.143
83330SOL    HW251888   6.641   0.684  12.103
83331SOL     OW51889   1.661   8.624  10.218
83331SOL    HW151890   1.685   8.532  10.221
83331SOL    HW251891   1.697   8.661  10.299
83332SOL     OW51892   9.970   4.483  13.501
83332SOL    HW151893   9.967   4.413  13.436
83332SOL    HW251894   9.889   4.473  13.551
83333SOL     OW51895   9.586   0.050   6.340
83333SOL    HW151896   9.679   0.073   6.344
83333SOL    HW251897   9.546   0.120   6.289
83334SOL     OW51898  10.210   1.241  14.535
83334SOL    HW151899  10.302   1.244  14.509
83334SOL    HW251900  10.213   1.223  14.629
83335SOL     OW51901  11.656  12.328   4.063
83335SOL    HW151902  11.711  12.399   4.030
83335SOL    HW251903  11.572  12.340   4.019
83336SOL     OW51904   4.887   8.068   6.840
83336SOL    HW151905   4.953   8.101   6.901
83336SOL    HW251906   4.823   8.139   6.835
83337SOL     OW51907  10.729  12.857  10.588
83337SOL    HW151908  10.731  12.935  10.533
83337SOL    HW251909  10.768  12.884  10.671
83338SOL     OW51910   4.611   8.669  13.527
83338SOL    HW151911   4.668   8.668  13.450
83338SOL    HW251912   4.623   8.583  13.567
83339SOL     OW51913  13.425  11.694  11.131
83339SOL    HW151914  13.466  11.741  11.059
83339SOL    HW251915  13.473  11.721  11.209
83340SOL     OW51916  11.610   2.999  13.159
83340SOL    HW151917  11.549   3.072  13.153
83340SOL    HW251918  11.694   3.040  13.182
83341SOL     OW51919   1.437  13.274   0.596
83341SOL    HW151920   1.398  13.361   0.607
83341SOL    HW251921   1.372  13.214   0.632
83342SOL     OW51922   3.070   7.398  13.111
83342SOL    HW151923   3.157   7.428  13.086
83342SOL    HW251924   3.020   7.478  13.125
83343SOL     OW51925   0.206  11.446   8.355
83343SOL    HW151926   0.238  11.484   8.437
83343SOL    HW251927   0.165  11.519   8.308
83344SOL     OW51928  10.500   4.837   0.693
83344SOL    HW151929  10.465   4.755   0.729
83344SOL    HW251930  10.550   4.809   0.617
83345SOL     OW51931   5.656  10.437   8.691
83345SOL    HW151932   5.641  10.372   8.622
83345SOL    HW251933   5.676  10.385   8.768
83346SOL     OW51934  11.478   1.577   1.045
83346SOL    HW151935  11.389   1.546   1.062
83346SOL    HW251936  11.491   1.562   0.951
83347SOL     OW51937   5.254  12.249   4.092
83347SOL    HW151938   5.196  12.320   4.065
83347SOL    HW251939   5.275  12.268   4.183
83348SOL     OW51940  14.803  10.494   7.674
83348SOL    HW151941   0.007  10.443   7.658
83348SOL    HW251942  14.746  10.475   7.599
83349SOL     OW51943   0.641  10.747   5.219
83349SOL    HW151944   0.721  10.798   5.233
83349SOL    HW251945   0.661  10.661   5.254
83350SOL     OW51946   4.734   3.178   6.719
83350SOL    HW151947   4.823   3.143   6.708
83350SOL    HW251948   4.730   3.206   6.810
83351SOL     OW51949  14.703   6.059  12.916
83351SOL    HW151950  14.615   6.096  12.911
83351SOL    HW251951  14.755   6.127  12.958
83352SOL     OW51952  10.886   1.600   3.968
83352SOL    HW151953  10.947   1.673   3.966
83352SOL    HW251954  10.799   1.641   3.970
83353SOL     OW51955   0.796   8.209   9.017
83353SOL    HW151956   0.859   8.137   9.028
83353SOL    HW251957   0.720   8.168   8.975
83354SOL     OW51958  11.716   7.110  12.998
83354SOL    HW151959  11.675   7.061  13.070
83354SOL    HW251960  11.647   7.117  12.932
83355SOL     OW51961   4.196   3.253  13.574
83355SOL    HW151962   4.130   3.184  13.565
83355SOL    HW251963   4.189   3.305  13.494
83356SOL     OW51964   5.148   7.989   0.855
83356SOL    HW151965   5.139   8.013   0.763
83356SOL    HW251966   5.242   7.997   0.872
83357SOL     OW51967   3.903   7.481   9.580
83357SOL    HW151968   3.998   7.487   9.573
83357SOL    HW251969   3.872   7.571   9.572
83358SOL     OW51970   5.507   9.544   8.515
83358SOL    HW151971   5.565   9.602   8.466
83358SOL    HW251972   5.537   9.456   8.492
83359SOL     OW51973   1.503   0.808   3.130
83359SOL    HW151974   1.426   0.785   3.182
83359SOL    HW251975   1.519   0.731   3.075
83360SOL     OW51976   8.014   3.623   0.106
83360SOL    HW151977   7.960   3.648   0.181
83360SOL    HW251978   8.061   3.704   0.083
83361SOL     OW51979   6.734   8.432   4.462
83361SOL    HW151980   6.680   8.510   4.459
83361SOL    HW251981   6.808   8.456   4.517
83362SOL     OW51982  14.802   3.844   3.240
83362SOL    HW151983  14.830   3.935   3.238
83362SOL    HW251984  14.825   3.809   3.154
83363SOL     OW51985  11.810   7.969   4.075
83363SOL    HW151986  11.776   7.896   4.022
83363SOL    HW251987  11.876   8.010   4.019
83364SOL     OW51988   7.853   0.146   4.998
83364SOL    HW151989   7.850   0.081   5.068
83364SOL    HW251990   7.780   0.205   5.018
83365SOL     OW51991   3.395   2.418   2.867
83365SOL    HW151992   3.438   2.400   2.784
83365SOL    HW251993   3.308   2.378   2.859
83366SOL     OW51994  14.636   2.867  14.347
83366SOL    HW151995  14.614   2.888  14.256
83366SOL    HW251996  14.635   2.771  14.351
83367SOL     OW51997  13.655   9.791  12.282
83367SOL    HW151998  13.667   9.753  12.369
83367SOL    HW251999  13.743   9.791  12.243
83368SOL     OW52000   8.386   8.541   4.415
83368SOL    HW152001   8.310   8.574   4.366
83368SOL    HW252002   8.416   8.465   4.364
83369SOL     OW52003   1.921  14.078   0.867
83369SOL    HW152004   1.927  14.053   0.774
83369SOL    HW252005   1.967  14.008   0.913
83370SOL     OW52006  13.660  13.418   5.104
83370SOL    HW152007  13.625  13.500   5.139
83370SOL    HW252008  13.735  13.445   5.052
83371SOL     OW52009   0.583   7.216  13.140
83371SOL    HW152010   0.664   7.169  13.120
83371SOL    HW252011   0.527   7.201  13.064
83372SOL     OW52012   8.950   3.868  12.823
83372SOL    HW152013   8.894   3.806  12.871
83372SOL    HW252014   8.889   3.925  12.777
83373SOL     OW52015   7.298  10.370  13.975
83373SOL    HW152016   7.245  10.387  13.898
83373SOL    HW252017   7.249  10.408  14.048
83374SOL     OW52018  12.190  13.734  12.087
83374SOL    HW152019  12.198  13.779  12.003
83374SOL    HW252020  12.238  13.789  12.149
83375SOL     OW52021  10.935  12.967   6.965
83375SOL    HW152022  10.892  12.935   7.045
83375SOL    HW252023  11.026  12.978   6.990
83376SOL     OW52024  12.325  14.334  13.471
83376SOL    HW152025  12.241  14.300  13.502
83376SOL    HW252026  12.336  14.417  13.517
83377SOL     OW52027  13.569  13.005   4.304
83377SOL    HW152028  13.609  12.944   4.367
83377SOL    HW252029  13.550  12.950   4.227
83378SOL     OW52030   4.117   9.755   4.742
83378SOL    HW152031   4.069   9.755   4.660
83378SOL    HW252032   4.064   9.810   4.801
83379SOL     OW52033   7.552  11.934   3.595
83379SOL    HW152034   7.608  11.864   3.630
83379SOL    HW252035   7.559  11.926   3.500
83380SOL     OW52036   2.688   5.505  14.407
83380SOL    HW152037   2.776   5.541  14.392
83380SOL    HW252038   2.704   5.413  14.429
83381SOL     OW52039   1.755   6.157  11.896
83381SOL    HW152040   1.731   6.160  11.988
83381SOL    HW252041   1.845   6.188  11.893
83382SOL     OW52042   6.558  14.531   7.846
83382SOL    HW152043   6.612  14.501   7.773
83382SOL    HW252044   6.619  14.536   7.920
83383SOL     OW52045   0.738   7.812   2.043
83383SOL    HW152046   0.751   7.733   2.096
83383SOL    HW252047   0.747   7.884   2.105
83384SOL     OW52048   0.247   5.530   3.437
83384SOL    HW152049   0.282   5.443   3.420
83384SOL    HW252050   0.282   5.554   3.522
83385SOL     OW52051   1.581   9.887  12.480
83385SOL    HW152052   1.598   9.804  12.434
83385SOL    HW252053   1.613   9.954  12.419
83386SOL     OW52054  11.165   2.406   0.142
83386SOL    HW152055  11.170   2.410   0.046
83386SOL    HW252056  11.083   2.358   0.159
83387SOL     OW52057   5.025   9.090   9.195
83387SOL    HW152058   5.107   9.054   9.163
83387SOL    HW252059   5.036   9.185   9.189
83388SOL     OW52060   4.714   2.439  13.401
83388SOL    HW152061   4.712   2.401  13.488
83388SOL    HW252062   4.706   2.534  13.415
83389SOL     OW52063  10.918   2.901   6.849
83389SOL    HW152064  10.910   2.836   6.779
83389SOL    HW252065  10.831   2.941   6.855
83390SOL     OW52066   4.092  11.286   9.077
83390SOL    HW152067   4.074  11.283   9.171
83390SOL    HW252068   4.155  11.357   9.067
83391SOL     OW52069   1.181   0.208   4.472
83391SOL    HW152070   1.120   0.184   4.402
83391SOL    HW252071   1.212   0.124   4.507
83392SOL     OW52072  14.064   7.757   0.222
83392SOL    HW152073  14.108   7.842   0.225
83392SOL    HW252074  14.104   7.712   0.148
83393SOL     OW52075   3.024  11.606   5.435
83393SOL    HW152076   3.077  11.622   5.357
83393SOL    HW252077   2.979  11.689   5.451
83394SOL     OW52078  14.145  13.327   7.558
83394SOL    HW152079  14.214  13.384   7.590
83394SOL    HW252080  14.172  13.304   7.469
83395SOL     OW52081   4.206   8.177  14.235
83395SOL    HW152082   4.140   8.109  14.241
83395SOL    HW252083   4.173   8.237  14.168
83396SOL     OW52084   3.477  12.867   9.464
83396SOL    HW152085   3.399  12.816   9.439
83396SOL    HW252086   3.518  12.815   9.533
83397SOL     OW52087   5.599   0.820   4.941
83397SOL    HW152088   5.667   0.845   4.879
83397SOL    HW252089   5.570   0.734   4.911
83398SOL     OW52090  12.306   1.575  11.669
83398SOL    HW152091  12.294   1.655  11.722
83398SOL    HW252092  12.330   1.508  11.733
83399SOL     OW52093   5.058  13.564  13.533
83399SOL    HW152094   5.138  13.525  13.497
83399SOL    HW252095   5.079  13.579  13.625
83400SOL     OW52096  12.101   8.265   7.103
83400SOL    HW152097  12.067   8.256   7.015
83400SOL    HW252098  12.169   8.333   7.096
83401SOL     OW52099  13.963   2.615  12.951
83401SOL    HW152100  13.940   2.705  12.973
83401SOL    HW252101  14.006   2.582  13.030
83402SOL     OW52102   9.671   1.253  12.576
83402SOL    HW152103   9.618   1.228  12.652
83402SOL    HW252104   9.736   1.182  12.568
83403SOL     OW52105   7.249   2.190   1.072
83403SOL    HW152106   7.264   2.144   1.155
83403SOL    HW252107   7.325   2.167   1.019
83404SOL     OW52108   9.068   2.925  10.478
83404SOL    HW152109   9.003   2.925  10.548
83404SOL    HW252110   9.025   2.879  10.406
83405SOL     OW52111   7.449   4.046   1.061
83405SOL    HW152112   7.513   4.111   1.092
83405SOL    HW252113   7.404   4.017   1.141
83406SOL     OW52114   0.043  13.598   6.492
83406SOL    HW152115   0.035  13.524   6.432
83406SOL    HW252116  14.828  13.624   6.511
83407SOL     OW52117   9.001   1.601  12.369
83407SOL    HW152118   8.922   1.573  12.324
83407SOL    HW252119   8.989   1.570  12.459
83408SOL     OW52120  14.482  10.825   4.143
83408SOL    HW152121  14.415  10.803   4.209
83408SOL    HW252122  14.485  10.920   4.143
83409SOL     OW52123   8.909   3.440   2.581
83409SOL    HW152124   8.850   3.514   2.566
83409SOL    HW252125   8.921   3.438   2.676
83410SOL     OW52126   4.568  10.379   5.766
83410SOL    HW152127   4.488  10.357   5.813
83410SOL    HW252128   4.593  10.465   5.799
83411SOL     OW52129  11.031   4.523   1.803
83411SOL    HW152130  10.967   4.468   1.757
83411SOL    HW252131  11.114   4.505   1.758
83412SOL     OW52132   7.479  14.620   0.059
83412SOL    HW152133   7.574  14.625   0.064
83412SOL    HW252134   7.451  14.604   0.149
83413SOL     OW52135  14.056  11.285   3.287
83413SOL    HW152136  13.974  11.291   3.237
83413SOL    HW252137  14.119  11.247   3.226
83414SOL     OW52138  12.469   1.931   4.183
83414SOL    HW152139  12.562   1.951   4.172
83414SOL    HW252140  12.461   1.840   4.154
83415SOL     OW52141   2.201   7.419   9.057
83415SOL    HW152142   2.227   7.359   9.127
83415SOL    HW252143   2.182   7.362   8.983
83416SOL     OW52144   5.287  13.908   5.212
83416SOL    HW152145   5.381  13.917   5.225
83416SOL    HW252146   5.261  13.836   5.270
83417SOL     OW52147   4.539  11.794   7.665
83417SOL    HW152148   4.594  11.814   7.589
83417SOL    HW252149   4.561  11.704   7.689
83418SOL     OW52150  10.950   8.590   8.553
83418SOL    HW152151  10.976   8.612   8.642
83418SOL    HW252152  10.943   8.494   8.553
83419SOL     OW52153   1.352   7.285   2.210
83419SOL    HW152154   1.356   7.368   2.257
83419SOL    HW252155   1.393   7.222   2.269
83420SOL     OW52156   4.454   7.333   9.460
83420SOL    HW152157   4.477   7.247   9.495
83420SOL    HW252158   4.393   7.314   9.389
83421SOL     OW52159  10.308   3.196   7.273
83421SOL    HW152160  10.294   3.290   7.263
83421SOL    HW252161  10.332   3.184   7.365
83422SOL     OW52162  11.115   1.331  10.278
83422SOL    HW152163  11.107   1.263  10.345
83422SOL    HW252164  11.027   1.336  10.239
83423SOL     OW52165  12.490  12.182   9.908
83423SOL    HW152166  12.536  12.151   9.831
83423SOL    HW252167  12.557  12.189   9.976
83424SOL     OW52168   8.491   4.504   0.407
83424SOL    HW152169   8.524   4.415   0.422
83424SOL    HW252170   8.524   4.527   0.321
83425SOL     OW52171   8.902   0.437  13.312
83425SOL    HW152172   8.824   0.441  13.257
83425SOL    HW252173   8.902   0.348  13.347
83426SOL     OW52174   9.937   2.946   6.189
83426SOL    HW152175   9.895   2.892   6.256
83426SOL    HW252176   9.895   3.031   6.197
83427SOL     OW52177   3.107  10.362   3.744
83427SOL    HW152178   3.124  10.290   3.805
83427SOL    HW252179   3.143  10.439   3.788
83428SOL     OW52180   0.259   2.425  14.568
83428SOL    HW152181   0.339   2.382  14.597
83428SOL    HW252182   0.219   2.459  14.649
83429SOL     OW52183   0.167   6.832  14.342
83429SOL    HW152184   0.128   6.810  14.258
83429SOL    HW252185   0.223   6.757  14.363
83430SOL     OW52186  13.490  10.920   7.513
83430SOL    HW152187  13.521  10.936   7.424
83430SOL    HW252188  13.564  10.943   7.569
83431SOL     OW52189   8.027   3.290   0.565
83431SOL    HW152190   8.063   3.265   0.650
83431SOL    HW252191   7.993   3.209   0.528
83432SOL     OW52192   4.735   2.166   0.978
83432SOL    HW152193   4.755   2.120   1.059
83432SOL    HW252194   4.808   2.226   0.965
83433SOL     OW52195   5.149   1.577   7.296
83433SOL    HW152196   5.177   1.498   7.250
83433SOL    HW252197   5.075   1.549   7.350
83434SOL     OW52198   0.140   4.432   7.190
83434SOL    HW152199   0.210   4.439   7.125
83434SOL    HW252200   0.105   4.521   7.197
83435SOL     OW52201   0.111   8.087   0.382
83435SOL    HW152202   0.033   8.041   0.413
83435SOL    HW252203   0.080   8.142   0.310
83436SOL     OW52204   2.333  13.678   4.893
83436SOL    HW152205   2.284  13.734   4.953
83436SOL    HW252206   2.419  13.720   4.885
83437SOL     OW52207   6.010   5.988   9.558
83437SOL    HW152208   5.962   5.906   9.549
83437SOL    HW252209   6.022   6.020   9.469
83438SOL     OW52210   9.588   0.209  14.432
83438SOL    HW152211   9.525   0.270  14.395
83438SOL    HW252212   9.660   0.207  14.369
83439SOL     OW52213   6.547  13.852   9.857
83439SOL    HW152214   6.639  13.837   9.876
83439SOL    HW252215   6.537  13.828   9.765
83440SOL     OW52216   6.922   5.893   2.107
83440SOL    HW152217   6.996   5.937   2.150
83440SOL    HW252218   6.883   5.961   2.052
83441SOL     OW52219   8.432   6.036   7.863
83441SOL    HW152220   8.461   5.966   7.805
83441SOL    HW252221   8.365   5.995   7.919
83442SOL     OW52222   6.735   4.469   5.839
83442SOL    HW152223   6.713   4.454   5.931
83442SOL    HW252224   6.817   4.518   5.842
83443SOL     OW52225   8.118   4.185  13.306
83443SOL    HW152226   8.047   4.237  13.344
83443SOL    HW252227   8.193   4.246  13.302
83444SOL     OW52228  11.120   7.667  12.991
83444SOL    HW152229  11.053   7.604  13.017
83444SOL    HW252230  11.151   7.635  12.906
83445SOL     OW52231   5.579  12.855   1.685
83445SOL    HW152232   5.667  12.829   1.710
83445SOL    HW252233   5.522  12.799   1.738
83446SOL     OW52234  11.813   2.564  12.895
83446SOL    HW152235  11.881   2.522  12.948
83446SOL    HW252236  11.786   2.641  12.945
83447SOL     OW52237  10.815   4.820   4.995
83447SOL    HW152238  10.733   4.805   5.042
83447SOL    HW252239  10.807   4.910   4.961
83448SOL     OW52240  12.427   6.984   7.619
83448SOL    HW152241  12.447   6.891   7.617
83448SOL    HW252242  12.504   7.025   7.658
83449SOL     OW52243  13.477   3.891   1.900
83449SOL    HW152244  13.496   3.952   1.971
83449SOL    HW252245  13.562   3.857   1.874
83450SOL     OW52246   8.335   4.885   4.277
83450SOL    HW152247   8.388   4.955   4.240
83450SOL    HW252248   8.248   4.898   4.239
83451SOL     OW52249   3.884   5.175  13.639
83451SOL    HW152250   3.959   5.234  13.645
83451SOL    HW252251   3.862   5.173  13.546
83452SOL     OW52252   5.623  13.133  14.302
83452SOL    HW152253   5.662  13.046  14.307
83452SOL    HW252254   5.664  13.182  14.372
83453SOL     OW52255  14.306  13.998   0.061
83453SOL    HW152256  14.347  13.961   0.139
83453SOL    HW252257  14.230  13.942   0.046
83454SOL     OW52258   6.368   1.525   2.854
83454SOL    HW152259   6.377   1.450   2.913
83454SOL    HW252260   6.421   1.594   2.896
83455SOL     OW52261  13.013  13.755   1.950
83455SOL    HW152262  13.108  13.762   1.959
83455SOL    HW252263  12.978  13.810   2.020
83456SOL     OW52264   8.779   6.104   6.505
83456SOL    HW152265   8.834   6.056   6.444
83456SOL    HW252266   8.798   6.066   6.590
83457SOL     OW52267  12.286   7.927  14.298
83457SOL    HW152268  12.350   7.990  14.332
83457SOL    HW252269  12.213   7.981  14.266
83458SOL     OW52270   7.148   3.623  13.697
83458SOL    HW152271   7.065   3.672  13.696
83458SOL    HW252272   7.131   3.546  13.643
83459SOL     OW52273   1.044  12.541  11.018
83459SOL    HW152274   1.133  12.570  10.999
83459SOL    HW252275   1.039  12.540  11.114
83460SOL     OW52276   2.921  14.486   0.194
83460SOL    HW152277   2.889  14.408   0.150
83460SOL    HW252278   2.876  14.487   0.279
83461SOL     OW52279   9.914  10.506   9.740
83461SOL    HW152280  10.008  10.524   9.746
83461SOL    HW252281   9.885  10.498   9.831
83462SOL     OW52282   8.420   6.090   6.888
83462SOL    HW152283   8.515   6.099   6.880
83462SOL    HW252284   8.408   6.020   6.952
83463SOL     OW52285   3.691   4.917  10.529
83463SOL    HW152286   3.710   4.891  10.440
83463SOL    HW252287   3.765   4.972  10.555
83464SOL     OW52288   6.058  14.871   3.714
83464SOL    HW152289   6.142  14.844   3.675
83464SOL    HW252290   6.036   0.077   3.669
83465SOL     OW52291  12.191   8.738   1.441
83465SOL    HW152292  12.218   8.733   1.532
83465SOL    HW252293  12.264   8.700   1.392
83466SOL     OW52294   2.411  13.517  10.278
83466SOL    HW152295   2.322  13.543  10.255
83466SOL    HW252296   2.400  13.441  10.335
83467SOL     OW52297   6.873   9.446  13.330
83467SOL    HW152298   6.841   9.358  13.310
83467SOL    HW252299   6.967   9.435  13.345
83468SOL     OW52300   1.309   5.739  12.011
83468SOL    HW152301   1.239   5.681  11.981
83468SOL    HW252302   1.349   5.692  12.084
83469SOL     OW52303  10.388   5.503   2.049
83469SOL    HW152304  10.436   5.421   2.063
83469SOL    HW252305  10.302   5.476   2.017
83470SOL     OW52306   8.868  14.171  10.362
83470SOL    HW152307   8.950  14.208  10.394
83470SOL    HW252308   8.876  14.077  10.379
83471SOL     OW52309  10.408   2.505  12.561
83471SOL    HW152310  10.484   2.546  12.520
83471SOL    HW252311  10.425   2.411  12.554
83472SOL     OW52312   9.093   0.195  14.463
83472SOL    HW152313   9.101   0.128  14.531
83472SOL    HW252314   9.183   0.209  14.433
83473SOL     OW52315   0.544  13.764   0.562
83473SOL    HW152316   0.508  13.793   0.645
83473SOL    HW252317   0.598  13.688   0.584
83474SOL     OW52318  12.647  13.210   4.854
83474SOL    HW152319  12.620  13.153   4.782
83474SOL    HW252320  12.601  13.293   4.837
83475SOL     OW52321   0.864  14.604  11.764
83475SOL    HW152322   0.824  14.524  11.729
83475SOL    HW252323   0.928  14.573  11.828
83476SOL     OW52324   9.211   9.703   9.588
83476SOL    HW152325   9.285   9.763   9.584
83476SOL    HW252326   9.248   9.618   9.562
83477SOL     OW52327   0.662   8.748   0.395
83477SOL    HW152328   0.585   8.794   0.428
83477SOL    HW252329   0.642   8.732   0.303
83478SOL     OW52330   6.079   0.002   7.644
83478SOL    HW152331   6.140   0.070   7.613
83478SOL    HW252332   6.100  14.800   7.590
83479SOL     OW52333  12.906   4.587   3.076
83479SOL    HW152334  12.980   4.636   3.113
83479SOL    HW252335  12.889   4.518   3.141
83480SOL     OW52336   5.396   5.665   0.570
83480SOL    HW152337   5.331   5.678   0.500
83480SOL    HW252338   5.434   5.579   0.552
83481SOL     OW52339   5.642  10.724   1.409
83481SOL    HW152340   5.580  10.718   1.336
83481SOL    HW252341   5.726  10.700   1.371
83482SOL     OW52342   4.661   4.687  10.323
83482SOL    HW152343   4.751   4.705  10.348
83482SOL    HW252344   4.663   4.599  10.286
83483SOL     OW52345  13.605   2.496   3.851
83483SOL    HW152346  13.691   2.473   3.887
83483SOL    HW252347  13.568   2.412   3.822
83484SOL     OW52348   1.036   5.041   7.741
83484SOL    HW152349   1.117   5.076   7.778
83484SOL    HW252350   0.971   5.110   7.754
83485SOL     OW52351   5.877   1.709   1.903
83485SOL    HW152352   5.788   1.736   1.927
83485SOL    HW252353   5.888   1.741   1.813
83486SOL     OW52354   7.950   0.593  14.198
83486SOL    HW152355   7.907   0.515  14.164
83486SOL    HW252356   7.878   0.653  14.218
83487SOL     OW52357   2.200   9.472   4.375
83487SOL    HW152358   2.249   9.392   4.355
83487SOL    HW252359   2.143   9.448   4.448
83488SOL     OW52360   9.500   3.475   3.095
83488SOL    HW152361   9.489   3.561   3.136
83488SOL    HW252362   9.594   3.459   3.100
83489SOL     OW52363   9.931   1.032   1.146
83489SOL    HW152364  10.016   1.044   1.104
83489SOL    HW252365   9.926   1.103   1.211
83490SOL     OW52366   5.178   7.386   6.653
83490SOL    HW152367   5.157   7.463   6.600
83490SOL    HW252368   5.095   7.361   6.692
83491SOL     OW52369   4.574   2.551  12.765
83491SOL    HW152370   4.531   2.624  12.721
83491SOL    HW252371   4.524   2.474  12.738
83492SOL     OW52372  12.544  12.493   3.057
83492SOL    HW152373  12.606  12.480   3.129
83492SOL    HW252374  12.468  12.440   3.081
83493SOL     OW52375   6.108   8.107   6.509
83493SOL    HW152376   6.167   8.149   6.571
83493SOL    HW252377   6.036   8.073   6.562
83494SOL     OW52378  13.146   6.493   1.791
83494SOL    HW152379  13.136   6.527   1.880
83494SOL    HW252380  13.176   6.403   1.803
83495SOL     OW52381  10.442  10.550  12.706
83495SOL    HW152382  10.498  10.486  12.662
83495SOL    HW252383  10.400  10.598  12.635
83496SOL     OW52384  14.242   9.821   9.215
83496SOL    HW152385  14.250   9.822   9.311
83496SOL    HW252386  14.195   9.902   9.194
83497SOL     OW52387   8.565   9.032   0.587
83497SOL    HW152388   8.607   9.089   0.522
83497SOL    HW252389   8.518   9.091   0.645
83498SOL     OW52390  12.409  12.868   5.505
83498SOL    HW152391  12.349  12.840   5.573
83498SOL    HW252392  12.361  12.934   5.455
83499SOL     OW52393   0.543   9.210   6.245
83499SOL    HW152394   0.545   9.122   6.207
83499SOL    HW252395   0.463   9.213   6.296
83500SOL     OW52396   5.339   1.844   2.662
83500SOL    HW152397   5.422   1.813   2.696
83500SOL    HW252398   5.313   1.779   2.596
83501SOL     OW52399  11.141   9.925  11.353
83501SOL    HW152400  11.102   9.896  11.436
83501SOL    HW252401  11.207   9.858  11.333
83502SOL     OW52402   4.637   4.635  13.720
83502SOL    HW152403   4.643   4.624  13.625
83502SOL    HW252404   4.563   4.580  13.746
83503SOL     OW52405  13.082   8.940  11.224
83503SOL    HW152406  13.077   8.998  11.300
83503SOL    HW252407  13.173   8.908  11.224
83504SOL     OW52408  13.404  14.329   5.817
83504SOL    HW152409  13.341  14.398   5.836
83504SOL    HW252410  13.350  14.252   5.800
83505SOL     OW52411  13.528  10.117   1.963
83505SOL    HW152412  13.529  10.179   1.891
83505SOL    HW252413  13.453  10.060   1.944
83506SOL     OW52414   7.109   3.840  11.378
83506SOL    HW152415   7.204   3.831  11.388
83506SOL    HW252416   7.083   3.762  11.329
83507SOL     OW52417   8.868  13.047   0.648
83507SOL    HW152418   8.938  13.034   0.711
83507SOL    HW252419   8.912  13.053   0.563
83508SOL     OW52420   7.944  10.173   3.205
83508SOL    HW152421   7.904  10.086   3.208
83508SOL    HW252422   7.968  10.185   3.113
83509SOL     OW52423  11.309   3.959   8.802
83509SOL    HW152424  11.394   3.970   8.759
83509SOL    HW252425  11.248   3.941   8.730
83510SOL     OW52426   9.575   1.984   0.165
83510SOL    HW152427   9.624   1.906   0.190
83510SOL    HW252428   9.582   2.042   0.241
83511SOL     OW52429   7.035  13.242   1.848
83511SOL    HW152430   6.965  13.306   1.856
83511SOL    HW252431   7.031  13.214   1.756
83512SOL     OW52432   7.869   1.450   0.471
83512SOL    HW152433   7.924   1.506   0.526
83512SOL    HW252434   7.922   1.371   0.457
83513SOL     OW52435   5.892   4.433  11.700
83513SOL    HW152436   5.854   4.456  11.615
83513SOL    HW252437   5.932   4.514  11.731
83514SOL     OW52438  11.301   8.786  10.594
83514SOL    HW152439  11.238   8.857  10.602
83514SOL    HW252440  11.253   8.708  10.623
83515SOL     OW52441  12.146   6.885   4.480
83515SOL    HW152442  12.051   6.898   4.483
83515SOL    HW252443  12.157   6.792   4.461
83516SOL     OW52444   2.885  12.785  14.773
83516SOL    HW152445   2.951  12.814  14.835
83516SOL    HW252446   2.808  12.837  14.793
83517SOL     OW52447  14.813   7.870   4.328
83517SOL    HW152448  14.871   7.930   4.374
83517SOL    HW252449  14.830   7.886   4.235
83518SOL     OW52450  11.940   8.379   9.206
83518SOL    HW152451  11.892   8.379   9.122
83518SOL    HW252452  11.876   8.347   9.270
83519SOL     OW52453   7.763  12.320   0.016
83519SOL    HW152454   7.777  12.398  14.837
83519SOL    HW252455   7.670  12.323   0.038
83520SOL     OW52456   2.600   3.376   2.698
83520SOL    HW152457   2.690   3.347   2.683
83520SOL    HW252458   2.573   3.332   2.778
83521SOL     OW52459   7.133  14.086  11.532
83521SOL    HW152460   7.049  14.049  11.560
83521SOL    HW252461   7.134  14.175  11.567
83522SOL     OW52462  14.694   4.974   5.825
83522SOL    HW152463  14.767   4.996   5.767
83522SOL    HW252464  14.634   4.923   5.770
83523SOL     OW52465   5.755   2.708  11.165
83523SOL    HW152466   5.799   2.639  11.116
83523SOL    HW252467   5.662   2.685  11.160
83524SOL     OW52468   2.870  13.234   6.279
83524SOL    HW152469   2.825  13.179   6.215
83524SOL    HW252470   2.909  13.172   6.340
83525SOL     OW52471   3.642   1.570  10.568
83525SOL    HW152472   3.546   1.564  10.564
83525SOL    HW252473   3.658   1.654  10.611
83526SOL     OW52474   5.043  14.450   2.921
83526SOL    HW152475   4.961  14.407   2.897
83526SOL    HW252476   5.040  14.453   3.017
83527SOL     OW52477  13.083   5.177   6.719
83527SOL    HW152478  13.062   5.159   6.627
83527SOL    HW252479  13.016   5.129   6.768
83528SOL     OW52480  10.979   0.559   7.044
83528SOL    HW152481  10.898   0.586   7.089
83528SOL    HW252482  11.045   0.560   7.113
83529SOL     OW52483  13.305   6.322   0.024
83529SOL    HW152484  13.246   6.393   0.050
83529SOL    HW252485  13.385   6.366  14.872
83530SOL     OW52486  12.554   3.817   4.753
83530SOL    HW152487  12.537   3.864   4.671
83530SOL    HW252488  12.482   3.843   4.810
83531SOL     OW52489  14.322   7.150  11.688
83531SOL    HW152490  14.408   7.184  11.661
83531SOL    HW252491  14.297   7.090  11.618
83532SOL     OW52492   0.094   4.235  13.400
83532SOL    HW152493   0.173   4.281  13.428
83532SOL    HW252494   0.061   4.286  13.327
83533SOL     OW52495   0.323   4.911   6.141
83533SOL    HW152496   0.293   4.881   6.055
83533SOL    HW252497   0.248   4.895   6.199
83534SOL     OW52498  11.771  11.521   7.342
83534SOL    HW152499  11.822  11.442   7.363
83534SOL    HW252500  11.730  11.545   7.425
83535SOL     OW52501   7.408   1.603  12.849
83535SOL    HW152502   7.428   1.571  12.761
83535SOL    HW252503   7.360   1.684  12.834
83536SOL     OW52504   2.363  14.393  12.666
83536SOL    HW152505   2.427  14.324  12.683
83536SOL    HW252506   2.410  14.457  12.614
83537SOL     OW52507  14.111   6.591   9.148
83537SOL    HW152508  14.094   6.501   9.177
83537SOL    HW252509  14.025   6.631   9.142
83538SOL     OW52510   4.784   7.098   4.122
83538SOL    HW152511   4.771   7.166   4.056
83538SOL    HW252512   4.855   7.131   4.178
83539SOL     OW52513   3.649   1.453   8.958
83539SOL    HW152514   3.638   1.373   9.009
83539SOL    HW252515   3.607   1.521   9.011
83540SOL     OW52516   3.127   1.141   4.836
83540SOL    HW152517   3.145   1.063   4.782
83540SOL    HW252518   3.032   1.147   4.838
83541SOL     OW52519  11.318   2.113  14.209
83541SOL    HW152520  11.244   2.052  14.215
83541SOL    HW252521  11.384   2.076  14.267
83542SOL     OW52522   7.592   9.264   3.797
83542SOL    HW152523   7.531   9.323   3.841
83542SOL    HW252524   7.547   9.180   3.796
83543SOL     OW52525   7.040   8.665  10.113
83543SOL    HW152526   7.090   8.740  10.147
83543SOL    HW252527   7.038   8.678  10.019
83544SOL     OW52528   4.058   8.153   8.497
83544SOL    HW152529   4.086   8.238   8.462
83544SOL    HW252530   4.139   8.105   8.512
83545SOL     OW52531   1.479   9.142   5.107
83545SOL    HW152532   1.557   9.094   5.134
83545SOL    HW252533   1.448   9.184   5.188
83546SOL     OW52534   9.473   0.147   9.738
83546SOL    HW152535   9.392   0.121   9.782
83546SOL    HW252536   9.542   0.119   9.797
83547SOL     OW52537   8.139   0.799  14.016
83547SOL    HW152538   8.166   0.891  14.027
83547SOL    HW252539   8.204   0.749  14.065
83548SOL     OW52540   3.523   8.674  14.523
83548SOL    HW152541   3.556   8.584  14.523
83548SOL    HW252542   3.594   8.725  14.483
83549SOL     OW52543  13.255  11.501  11.195
83549SOL    HW152544  13.183  11.538  11.144
83549SOL    HW252545  13.314  11.575  11.211
83550SOL     OW52546   5.142  10.164  10.481
83550SOL    HW152547   5.101  10.249  10.497
83550SOL    HW252548   5.197  10.179  10.404
83551SOL     OW52549  10.773   1.085  10.740
83551SOL    HW152550  10.778   1.014  10.677
83551SOL    HW252551  10.865   1.108  10.757
83552SOL     OW52552   8.461   3.492   9.265
83552SOL    HW152553   8.508   3.542   9.332
83552SOL    HW252554   8.507   3.408   9.262
83553SOL     OW52555  11.026   5.468   4.296
83553SOL    HW152556  10.931   5.482   4.300
83553SOL    HW252557  11.039   5.380   4.331
83554SOL     OW52558   1.724   0.976  14.589
83554SOL    HW152559   1.800   0.984  14.647
83554SOL    HW252560   1.689   0.889  14.607
83555SOL     OW52561  12.140   5.423   1.700
83555SOL    HW152562  12.120   5.333   1.676
83555SOL    HW252563  12.142   5.470   1.617
83556SOL     OW52564   9.540   9.252   0.077
83556SOL    HW152565   9.480   9.292   0.014
83556SOL    HW252566   9.604   9.321   0.096
83557SOL     OW52567   9.989   1.361   6.470
83557SOL    HW152568   9.967   1.345   6.379
83557SOL    HW252569  10.071   1.410   6.467
83558SOL     OW52570   8.069   1.525   8.329
83558SOL    HW152571   7.987   1.547   8.373
83558SOL    HW252572   8.051   1.541   8.236
83559SOL     OW52573  13.216   6.041   5.540
83559SOL    HW152574  13.181   6.068   5.626
83559SOL    HW252575  13.257   6.121   5.505
83560SOL     OW52576   0.097   1.998   2.073
83560SOL    HW152577   0.069   1.992   1.982
83560SOL    HW252578   0.016   2.007   2.123
83561SOL     OW52579   5.506   8.439   0.020
83561SOL    HW152580   5.474   8.478  14.813
83561SOL    HW252581   5.435   8.455   0.082
83562SOL     OW52582   8.217   2.206   4.022
83562SOL    HW152583   8.289   2.190   3.962
83562SOL    HW252584   8.183   2.292   3.998
83563SOL     OW52585   5.852   9.619   4.409
83563SOL    HW152586   5.889   9.667   4.335
83563SOL    HW252587   5.880   9.668   4.486
83564SOL     OW52588  11.910   1.589  14.052
83564SOL    HW152589  11.840   1.642  14.091
83564SOL    HW252590  11.869   1.548  13.976
83565SOL     OW52591   2.067   5.738   3.854
83565SOL    HW152592   2.066   5.655   3.901
83565SOL    HW252593   2.017   5.721   3.774
83566SOL     OW52594   6.804  10.537   8.355
83566SOL    HW152595   6.787  10.483   8.432
83566SOL    HW252596   6.797  10.627   8.387
83567SOL     OW52597   6.027  14.176   9.322
83567SOL    HW152598   5.949  14.124   9.302
83567SOL    HW252599   5.999  14.267   9.311
83568SOL     OW52600  13.793   6.928   4.567
83568SOL    HW152601  13.864   6.923   4.632
83568SOL    HW252602  13.781   6.838   4.537
83569SOL     OW52603   5.681   5.028  10.843
83569SOL    HW152604   5.595   5.054  10.811
83569SOL    HW252605   5.687   5.067  10.930
83570SOL     OW52606   1.597  14.854   4.276
83570SOL    HW152607   1.565  14.870   4.365
83570SOL    HW252608   1.517  14.841   4.224
83571SOL     OW52609   0.891   9.201   2.472
83571SOL    HW152610   0.824   9.156   2.523
83571SOL    HW252611   0.974   9.166   2.506
83572SOL     OW52612  13.137   1.060   0.656
83572SOL    HW152613  13.065   1.006   0.621
83572SOL    HW252614  13.200   0.996   0.690
83573SOL     OW52615  10.818  14.110   6.460
83573SOL    HW152616  10.749  14.046   6.475
83573SOL    HW252617  10.887  14.062   6.415
83574SOL     OW52618   7.544   5.628   5.079
83574SOL    HW152619   7.536   5.537   5.107
83574SOL    HW252620   7.638   5.646   5.080
83575SOL     OW52621   5.826  12.651  13.307
83575SOL    HW152622   5.839  12.741  13.335
83575SOL    HW252623   5.736  12.649  13.274
83576SOL     OW52624  13.592   6.904  13.732
83576SOL    HW152625  13.573   6.901  13.826
83576SOL    HW252626  13.522   6.852  13.692
83577SOL     OW52627   5.957   4.243   2.197
83577SOL    HW152628   5.872   4.210   2.227
83577SOL    HW252629   5.935   4.297   2.121
83578SOL     OW52630   0.960   4.382   1.800
83578SOL    HW152631   0.945   4.466   1.843
83578SOL    HW252632   0.883   4.329   1.823
83579SOL     OW52633   4.284  11.527   7.823
83579SOL    HW152634   4.365  11.538   7.774
83579SOL    HW252635   4.228  11.474   7.767
83580SOL     OW52636   4.076   9.088   3.850
83580SOL    HW152637   3.989   9.090   3.810
83580SOL    HW252638   4.061   9.064   3.941
83581SOL     OW52639  12.550  13.505   1.287
83581SOL    HW152640  12.552  13.415   1.319
83581SOL    HW252641  12.606  13.503   1.209
83582SOL     OW52642  10.421   2.409   1.333
83582SOL    HW152643  10.389   2.364   1.411
83582SOL    HW252644  10.445   2.339   1.272
83583SOL     OW52645   7.139   7.609   6.802
83583SOL    HW152646   7.109   7.698   6.784
83583SOL    HW252647   7.169   7.576   6.718
83584SOL     OW52648   3.230  12.631  13.639
83584SOL    HW152649   3.223  12.725  13.652
83584SOL    HW252650   3.262  12.621  13.550
83585SOL     OW52651   4.413   9.164  14.861
83585SOL    HW152652   4.487   9.225  14.858
83585SOL    HW252653   4.449   9.086   0.029
83586SOL     OW52654   2.737   0.733  14.714
83586SOL    HW152655   2.812   0.700  14.762
83586SOL    HW252656   2.696   0.796  14.773
83587SOL     OW52657   8.886  14.118   8.972
83587SOL    HW152658   8.837  14.187   8.928
83587SOL    HW252659   8.820  14.066   9.018
83588SOL     OW52660  13.569   4.552   7.137
83588SOL    HW152661  13.579   4.577   7.229
83588SOL    HW252662  13.536   4.630   7.094
83589SOL     OW52663  11.392   7.470  13.996
83589SOL    HW152664  11.347   7.406  13.941
83589SOL    HW252665  11.392   7.430  14.083
83590SOL     OW52666   0.008  10.046   7.940
83590SOL    HW152667  14.822  10.065   8.011
83590SOL    HW252668   0.092  10.029   7.984
83591SOL     OW52669   0.771   3.971   0.247
83591SOL    HW152670   0.738   4.032   0.180
83591SOL    HW252671   0.790   4.027   0.322
83592SOL     OW52672   3.245  13.646   8.214
83592SOL    HW152673   3.288  13.731   8.222
83592SOL    HW252674   3.299  13.586   8.265
83593SOL     OW52675  13.135  12.610  12.198
83593SOL    HW152676  13.188  12.678  12.240
83593SOL    HW252677  13.046  12.627  12.229
83594SOL     OW52678   5.256  13.461  12.616
83594SOL    HW152679   5.213  13.531  12.664
83594SOL    HW252680   5.337  13.445  12.664
83595SOL     OW52681  10.017   2.338  12.574
83595SOL    HW152682  10.074   2.347  12.650
83595SOL    HW252683  10.077   2.321  12.501
83596SOL     OW52684   3.117   6.062  11.596
83596SOL    HW152685   3.063   6.091  11.523
83596SOL    HW252686   3.205   6.055  11.560
83597SOL     OW52687  14.525   3.464   7.716
83597SOL    HW152688  14.504   3.450   7.624
83597SOL    HW252689  14.602   3.521   7.715
83598SOL     OW52690   1.022   8.298   5.642
83598SOL    HW152691   0.995   8.282   5.733
83598SOL    HW252692   1.117   8.291   5.644
83599SOL     OW52693   4.233   6.931   4.199
83599SOL    HW152694   4.209   6.980   4.278
83599SOL    HW252695   4.319   6.895   4.219
83600SOL     OW52696   1.742   4.156  11.283
83600SOL    HW152697   1.686   4.214  11.231
83600SOL    HW252698   1.730   4.186  11.374
83601SOL     OW52699   1.388   5.892  14.499
83601SOL    HW152700   1.410   5.819  14.441
83601SOL    HW252701   1.297   5.875  14.525
83602SOL     OW52702   0.926   6.151   8.137
83602SOL    HW152703   0.933   6.079   8.075
83602SOL    HW252704   0.951   6.113   8.221
83603SOL     OW52705   5.314   0.417   9.728
83603SOL    HW152706   5.406   0.436   9.747
83603SOL    HW252707   5.289   0.483   9.663
83604SOL     OW52708  11.175   3.356   8.843
83604SOL    HW152709  11.206   3.350   8.753
83604SOL    HW252710  11.080   3.348   8.837
83605SOL     OW52711  10.201   1.072   1.674
83605SOL    HW152712  10.153   0.991   1.688
83605SOL    HW252713  10.145   1.140   1.710
83606SOL     OW52714   9.143   4.618   2.801
83606SOL    HW152715   9.184   4.535   2.825
83606SOL    HW252716   9.054   4.593   2.773
83607SOL     OW52717   6.512  13.303  12.616
83607SOL    HW152718   6.480  13.390  12.637
83607SOL    HW252719   6.441  13.244  12.644
83608SOL     OW52720   5.156   5.372   2.870
83608SOL    HW152721   5.098   5.420   2.810
83608SOL    HW252722   5.166   5.430   2.945
83609SOL     OW52723  12.800   6.585  12.513
83609SOL    HW152724  12.716   6.561  12.474
83609SOL    HW252725  12.865   6.540  12.459
83610SOL     OW52726   7.441   8.350   1.689
83610SOL    HW152727   7.397   8.419   1.639
83610SOL    HW252728   7.443   8.383   1.779
83611SOL     OW52729   5.898   5.441  10.898
83611SOL    HW152730   5.858   5.474  10.818
83611SOL    HW252731   5.828   5.394  10.943
83612SOL     OW52732   7.396   1.421  14.288
83612SOL    HW152733   7.344   1.398  14.366
83612SOL    HW252734   7.338   1.479  14.238
83613SOL     OW52735  10.737   1.084  13.894
83613SOL    HW152736  10.785   1.062  13.814
83613SOL    HW252737  10.646   1.063  13.874
83614SOL     OW52738   7.895   0.315  11.937
83614SOL    HW152739   7.959   0.347  11.874
83614SOL    HW252740   7.916   0.222  11.947
83615SOL     OW52741   9.834  11.105  14.312
83615SOL    HW152742   9.892  11.059  14.252
83615SOL    HW252743   9.892  11.166  14.359
83616SOL     OW52744   0.551   5.950   8.111
83616SOL    HW152745   0.611   6.025   8.109
83616SOL    HW252746   0.597   5.884   8.163
83617SOL     OW52747  13.298   3.416  11.526
83617SOL    HW152748  13.364   3.353  11.497
83617SOL    HW252749  13.349   3.483  11.573
83618SOL     OW52750   6.054   3.535   5.656
83618SOL    HW152751   6.129   3.484   5.687
83618SOL    HW252752   6.081   3.567   5.570
83619SOL     OW52753  11.165   0.576   6.073
83619SOL    HW152754  11.253   0.612   6.076
83619SOL    HW252755  11.144   0.572   5.979
83620SOL     OW52756  10.865   3.263   8.943
83620SOL    HW152757  10.883   3.230   9.031
83620SOL    HW252758  10.808   3.197   8.904
83621SOL     OW52759   5.581   1.435  12.445
83621SOL    HW152760   5.493   1.397  12.441
83621SOL    HW252761   5.597   1.448  12.539
83622SOL     OW52762   6.507   4.224  14.655
83622SOL    HW152763   6.580   4.164  14.674
83622SOL    HW252764   6.499   4.277  14.733
83623SOL     OW52765  10.984   9.063   6.339
83623SOL    HW152766  10.897   9.024   6.352
83623SOL    HW252767  11.041   9.014   6.398
83624SOL     OW52768   8.759   1.380   7.708
83624SOL    HW152769   8.822   1.428   7.654
83624SOL    HW252770   8.687   1.443   7.721
83625SOL     OW52771   6.604  12.097   4.304
83625SOL    HW152772   6.600  12.110   4.209
83625SOL    HW252773   6.585  12.184   4.340
83626SOL     OW52774  14.405   8.620   3.286
83626SOL    HW152775  14.432   8.685   3.351
83626SOL    HW252776  14.354   8.556   3.336
83627SOL     OW52777   0.759   1.184  11.079
83627SOL    HW152778   0.766   1.279  11.082
83627SOL    HW252779   0.765   1.157  11.171
83628SOL     OW52780  13.599   0.988   2.175
83628SOL    HW152781  13.614   0.980   2.081
83628SOL    HW252782  13.545   1.066   2.185
83629SOL     OW52783  10.516   1.906   3.778
83629SOL    HW152784  10.578   1.949   3.837
83629SOL    HW252785  10.430   1.929   3.813
83630SOL     OW52786   6.175   1.287  10.667
83630SOL    HW152787   6.133   1.323  10.589
83630SOL    HW252788   6.179   1.360  10.728
83631SOL     OW52789  12.578  10.295   7.122
83631SOL    HW152790  12.667  10.331   7.115
83631SOL    HW252791  12.523  10.370   7.143
83632SOL     OW52792  10.277   5.648  13.903
83632SOL    HW152793  10.324   5.732  13.900
83632SOL    HW252794  10.228   5.644  13.821
83633SOL     OW52795   5.581  10.550  10.384
83633SOL    HW152796   5.666  10.547  10.340
83633SOL    HW252797   5.548  10.639  10.366
83634SOL     OW52798  12.328  11.892  14.490
83634SOL    HW152799  12.379  11.849  14.421
83634SOL    HW252800  12.317  11.982  14.458
83635SOL     OW52801   1.773   6.578   1.262
83635SOL    HW152802   1.820   6.607   1.340
83635SOL    HW252803   1.827   6.607   1.189
83636SOL     OW52804   9.305   9.735  10.053
83636SOL    HW152805   9.273   9.671   9.990
83636SOL    HW252806   9.296   9.691  10.138
83637SOL     OW52807  10.534  10.268   2.300
83637SOL    HW152808  10.537  10.223   2.216
83637SOL    HW252809  10.625  10.267   2.330
83638SOL     OW52810   6.516   7.636   1.161
83638SOL    HW152811   6.504   7.631   1.066
83638SOL    HW252812   6.444   7.691   1.191
83639SOL     OW52813   2.156   8.192  14.275
83639SOL    HW152814   2.209   8.168  14.199
83639SOL    HW252815   2.066   8.188  14.243
83640SOL     OW52816  14.790   1.107   9.478
83640SOL    HW152817  14.847   1.127   9.404
83640SOL    HW252818  14.804   1.013   9.494
83641SOL     OW52819  13.743  10.521   9.568
83641SOL    HW152820  13.667  10.525   9.626
83641SOL    HW252821  13.712  10.559   9.486
83642SOL     OW52822   8.456   1.766   2.193
83642SOL    HW152823   8.457   1.829   2.121
83642SOL    HW252824   8.510   1.694   2.163
83643SOL     OW52825   4.999  10.609   8.128
83643SOL    HW152826   4.928  10.636   8.187
83643SOL    HW252827   5.021  10.520   8.156
83644SOL     OW52828   5.158   3.778   3.529
83644SOL    HW152829   5.195   3.864   3.548
83644SOL    HW252830   5.200   3.752   3.447
83645SOL     OW52831   1.312  13.777   9.719
83645SOL    HW152832   1.299  13.701   9.662
83645SOL    HW252833   1.223  13.807   9.739
83646SOL     OW52834   3.989   0.930   8.648
83646SOL    HW152835   4.015   0.955   8.559
83646SOL    HW252836   3.939   1.004   8.681
83647SOL     OW52837   1.354   7.553  14.546
83647SOL    HW152838   1.303   7.618  14.497
83647SOL    HW252839   1.296   7.525  14.617
83648SOL     OW52840   1.468  14.358  13.132
83648SOL    HW152841   1.402  14.317  13.188
83648SOL    HW252842   1.489  14.440  13.175
83649SOL     OW52843  14.541   0.040   6.920
83649SOL    HW152844  14.568  14.871   7.000
83649SOL    HW252845  14.508   0.125   6.949
83650SOL     OW52846   8.199   2.829  12.979
83650SOL    HW152847   8.122   2.877  12.949
83650SOL    HW252848   8.265   2.897  12.993
83651SOL     OW52849   3.894  11.645  14.736
83651SOL    HW152850   3.833  11.603  14.676
83651SOL    HW252851   3.898  11.736  14.705
83652SOL     OW52852   5.095   7.990   4.508
83652SOL    HW152853   5.077   8.071   4.461
83652SOL    HW252854   5.062   7.921   4.450
83653SOL     OW52855   9.644   9.496  13.478
83653SOL    HW152856   9.591   9.566  13.439
83653SOL    HW252857   9.682   9.450  13.404
83654SOL     OW52858   5.875   3.447  13.033
83654SOL    HW152859   5.891   3.473  12.942
83654SOL    HW252860   5.949   3.485  13.082
83655SOL     OW52861   0.838   1.618   4.109
83655SOL    HW152862   0.784   1.572   4.174
83655SOL    HW252863   0.778   1.635   4.036
83656SOL     OW52864  12.086  11.025   1.556
83656SOL    HW152865  12.064  11.039   1.648
83656SOL    HW252866  12.058  10.935   1.538
83657SOL     OW52867   1.000   8.138  10.951
83657SOL    HW152868   1.019   8.208  10.889
83657SOL    HW252869   1.045   8.062  10.916
83658SOL     OW52870   9.638   1.927   8.096
83658SOL    HW152871   9.550   1.913   8.061
83658SOL    HW252872   9.623   1.949   8.188
83659SOL     OW52873   0.217   3.964  12.699
83659SOL    HW152874   0.224   4.026  12.773
83659SOL    HW252875   0.126   3.970  12.671
83660SOL     OW52876  12.331  13.229   2.102
83660SOL    HW152877  12.281  13.158   2.142
83660SOL    HW252878  12.325  13.301   2.165
83661SOL     OW52879   9.664   1.599  12.081
83661SOL    HW152880   9.694   1.577  12.169
83661SOL    HW252881   9.687   1.692  12.071
83662SOL     OW52882  11.313  13.694   8.547
83662SOL    HW152883  11.360  13.777   8.536
83662SOL    HW252884  11.317  13.653   8.460
83663SOL     OW52885   2.226  11.474  14.640
83663SOL    HW152886   2.256  11.389  14.671
83663SOL    HW252887   2.219  11.463  14.545
83664SOL     OW52888   2.688  10.570   7.276
83664SOL    HW152889   2.630  10.545   7.204
83664SOL    HW252890   2.712  10.487   7.317
83665SOL     OW52891  11.714   3.933   4.510
83665SOL    HW152892  11.743   3.998   4.574
83665SOL    HW252893  11.741   3.968   4.425
83666SOL     OW52894  10.463  11.284   7.981
83666SOL    HW152895  10.534  11.326   8.029
83666SOL    HW252896  10.464  11.193   8.011
83667SOL     OW52897   9.510   0.427   9.793
83667SOL    HW152898   9.471   0.346   9.760
83667SOL    HW252899   9.442   0.493   9.783
83668SOL     OW52900  14.356   6.977  11.886
83668SOL    HW152901  14.286   6.912  11.886
83668SOL    HW252902  14.337   7.034  11.812
83669SOL     OW52903   5.667   5.047   4.571
83669SOL    HW152904   5.572   5.039   4.579
83669SOL    HW252905   5.681   5.091   4.486
83670SOL     OW52906   9.833   6.415   2.280
83670SOL    HW152907   9.801   6.334   2.241
83670SOL    HW252908   9.928   6.411   2.269
83671SOL     OW52909  14.525  11.433  12.201
83671SOL    HW152910  14.593  11.471  12.146
83671SOL    HW252911  14.544  11.340  12.204
83672SOL     OW52912   1.919   2.715   3.930
83672SOL    HW152913   1.895   2.807   3.935
83672SOL    HW252914   1.970   2.708   3.849
83673SOL     OW52915  11.580  13.948   6.152
83673SOL    HW152916  11.646  13.987   6.210
83673SOL    HW252917  11.622  13.870   6.116
83674SOL     OW52918   8.186  13.129   9.791
83674SOL    HW152919   8.182  13.170   9.878
83674SOL    HW252920   8.264  13.073   9.795
83675SOL     OW52921  12.042  13.996   7.339
83675SOL    HW152922  11.957  13.960   7.364
83675SOL    HW252923  12.070  14.047   7.415
83676SOL     OW52924  12.301   7.509   6.749
83676SOL    HW152925  12.385   7.484   6.711
83676SOL    HW252926  12.311   7.491   6.843
83677SOL     OW52927  10.723   9.013  13.588
83677SOL    HW152928  10.719   9.034  13.494
83677SOL    HW252929  10.637   9.037  13.622
83678SOL     OW52930  14.763  10.947   1.199
83678SOL    HW152931  14.794  10.956   1.290
83678SOL    HW252932  14.820  11.005   1.149
83679SOL     OW52933  10.635   0.503   8.098
83679SOL    HW152934  10.712   0.448   8.083
83679SOL    HW252935  10.593   0.466   8.175
83680SOL     OW52936   9.892   0.923   2.483
83680SOL    HW152937   9.894   0.847   2.542
83680SOL    HW252938   9.881   0.886   2.396
83681SOL     OW52939   8.562  14.539   2.595
83681SOL    HW152940   8.651  14.516   2.619
83681SOL    HW252941   8.567  14.632   2.572
83682SOL     OW52942  11.492   4.255   6.702
83682SOL    HW152943  11.500   4.225   6.793
83682SOL    HW252944  11.528   4.184   6.650
83683SOL     OW52945   6.738   1.867  12.787
83683SOL    HW152946   6.665   1.900  12.839
83683SOL    HW252947   6.724   1.904  12.699
83684SOL     OW52948  12.808  14.178  13.560
83684SOL    HW152949  12.720  14.141  13.561
83684SOL    HW252950  12.866  14.101  13.561
83685SOL     OW52951   1.935   6.667   7.238
83685SOL    HW152952   2.024   6.633   7.240
83685SOL    HW252953   1.897   6.631   7.158
83686SOL     OW52954   7.518   2.452  11.855
83686SOL    HW152955   7.468   2.468  11.775
83686SOL    HW252956   7.601   2.498  11.843
83687SOL     OW52957   7.610   6.269   4.992
83687SOL    HW152958   7.635   6.330   5.062
83687SOL    HW252959   7.515   6.262   5.000
83688SOL     OW52960  11.130  13.232   6.733
83688SOL    HW152961  11.039  13.224   6.761
83688SOL    HW252962  11.181  13.228   6.814
83689SOL     OW52963   9.207  14.595  13.527
83689SOL    HW152964   9.296  14.628  13.535
83689SOL    HW252965   9.216  14.500  13.530
83690SOL     OW52966   1.464   1.043   2.178
83690SOL    HW152967   1.450   1.118   2.236
83690SOL    HW252968   1.396   0.981   2.201
83691SOL     OW52969  10.542   2.630   1.449
83691SOL    HW152970  10.590   2.567   1.503
83691SOL    HW252971  10.475   2.579   1.405
83692SOL     OW52972  10.775  11.079   4.518
83692SOL    HW152973  10.833  11.049   4.448
83692SOL    HW252974  10.834  11.117   4.583
83693SOL     OW52975   7.197   8.961   3.929
83693SOL    HW152976   7.261   8.923   3.989
83693SOL    HW252977   7.176   8.891   3.868
83694SOL     OW52978   5.727   1.823   9.244
83694SOL    HW152979   5.765   1.781   9.167
83694SOL    HW252980   5.801   1.845   9.300
83695SOL     OW52981   0.895  14.225  10.603
83695SOL    HW152982   0.975  14.186  10.636
83695SOL    HW252983   0.832  14.215  10.675
83696SOL     OW52984   0.433   8.864  14.477
83696SOL    HW152985   0.460   8.772  14.479
83696SOL    HW252986   0.375   8.871  14.401
83697SOL     OW52987   9.347   3.258   0.284
83697SOL    HW152988   9.287   3.224   0.351
83697SOL    HW252989   9.339   3.195   0.212
83698SOL     OW52990   3.209  12.130   7.900
83698SOL    HW152991   3.174  12.045   7.875
83698SOL    HW252992   3.134  12.176   7.938
83699SOL     OW52993   4.380  11.934  10.954
83699SOL    HW152994   4.320  11.952  11.026
83699SOL    HW252995   4.371  11.840  10.938
83700SOL     OW52996  12.138   5.897   3.325
83700SOL    HW152997  12.110   5.836   3.393
83700SOL    HW252998  12.058   5.943   3.300
83701SOL     OW52999  11.603  11.604   7.530
83701SOL    HW153000  11.541  11.664   7.489
83701SOL    HW253001  11.640  11.654   7.603
83702SOL     OW53002   2.778   7.351   9.111
83702SOL    HW153003   2.692   7.320   9.081
83702SOL    HW253004   2.766   7.444   9.126
83703SOL     OW53005   4.194   5.807  13.805
83703SOL    HW153006   4.249   5.749  13.752
83703SOL    HW253007   4.126   5.837  13.745
83704SOL     OW53008  12.029  13.015  11.481
83704SOL    HW153009  12.096  13.073  11.517
83704SOL    HW253010  12.041  13.020  11.387
83705SOL     OW53011  12.135  14.138  14.381
83705SOL    HW153012  12.065  14.117  14.443
83705SOL    HW253013  12.203  14.180  14.434
83706SOL     OW53014   5.445   1.444  10.591
83706SOL    HW153015   5.503   1.456  10.666
83706SOL    HW253016   5.418   1.533  10.567
83707SOL     OW53017   7.558   4.179   6.313
83707SOL    HW153018   7.517   4.093   6.300
83707SOL    HW253019   7.647   4.169   6.279
83708SOL     OW53020   0.453   3.817  12.747
83708SOL    HW153021   0.374   3.830  12.800
83708SOL    HW253022   0.424   3.831  12.657
83709SOL     OW53023   4.715  13.133   1.247
83709SOL    HW153024   4.750  13.178   1.324
83709SOL    HW253025   4.754  13.180   1.172
83710SOL     OW53026   9.768  11.420   1.668
83710SOL    HW153027   9.732  11.354   1.728
83710SOL    HW253028   9.847  11.452   1.712
83711SOL     OW53029   6.178   4.800   0.628
83711SOL    HW153030   6.232   4.877   0.606
83711SOL    HW253031   6.187   4.743   0.551
83712SOL     OW53032   0.829   1.291   4.116
83712SOL    HW153033   0.843   1.304   4.022
83712SOL    HW253034   0.734   1.282   4.125
83713SOL     OW53035  11.844   6.736  12.624
83713SOL    HW153036  11.761   6.783  12.629
83713SOL    HW253037  11.885   6.751  12.710
83714SOL     OW53038   6.121  13.456   6.613
83714SOL    HW153039   6.215  13.460   6.596
83714SOL    HW253040   6.083  13.419   6.534
83715SOL     OW53041   4.723  14.233   2.169
83715SOL    HW153042   4.725  14.328   2.156
83715SOL    HW253043   4.640  14.205   2.130
83716SOL     OW53044  14.712   2.336   0.410
83716SOL    HW153045  14.718   2.430   0.428
83716SOL    HW253046  14.740   2.294   0.491
83717SOL     OW53047  13.461   3.327   5.782
83717SOL    HW153048  13.501   3.399   5.831
83717SOL    HW253049  13.376   3.362   5.755
83718SOL     OW53050   9.588  11.929   5.764
83718SOL    HW153051   9.578  12.011   5.716
83718SOL    HW253052   9.593  11.862   5.697
83719SOL     OW53053   6.176   4.323   2.044
83719SOL    HW153054   6.141   4.401   2.003
83719SOL    HW253055   6.181   4.344   2.137
83720SOL     OW53056   7.793   4.308   2.121
83720SOL    HW153057   7.867   4.266   2.077
83720SOL    HW253058   7.720   4.246   2.110
83721SOL     OW53059   2.689   1.500   6.326
83721SOL    HW153060   2.772   1.507   6.279
83721SOL    HW253061   2.673   1.406   6.334
83722SOL     OW53062  13.843  12.534  13.814
83722SOL    HW153063  13.924  12.571  13.851
83722SOL    HW253064  13.813  12.601  13.752
83723SOL     OW53065  13.635   8.287   6.577
83723SOL    HW153066  13.577   8.222   6.616
83723SOL    HW253067  13.677   8.329   6.652
83724SOL     OW53068   8.990  12.606   4.265
83724SOL    HW153069   9.042  12.539   4.309
83724SOL    HW253070   9.037  12.688   4.282
83725SOL     OW53071   0.696   0.410   1.427
83725SOL    HW153072   0.625   0.349   1.446
83725SOL    HW253073   0.655   0.496   1.428
83726SOL     OW53074   1.164  10.662   5.544
83726SOL    HW153075   1.128  10.672   5.456
83726SOL    HW253076   1.211  10.744   5.561
83727SOL     OW53077   8.951   2.597   1.775
83727SOL    HW153078   9.008   2.521   1.789
83727SOL    HW253079   8.983   2.662   1.838
83728SOL     OW53080   7.539   3.332   2.129
83728SOL    HW153081   7.474   3.288   2.073
83728SOL    HW253082   7.577   3.398   2.072
83729SOL     OW53083  14.171  14.431   6.094
83729SOL    HW153084  14.119  14.362   6.053
83729SOL    HW253085  14.130  14.513   6.066
83730SOL     OW53086  12.495   8.792   1.012
83730SOL    HW153087  12.442   8.792   0.932
83730SOL    HW253088  12.585   8.779   0.980
83731SOL     OW53089  10.527   8.180  10.896
83731SOL    HW153090  10.452   8.201  10.953
83731SOL    HW253091  10.556   8.264  10.863
83732SOL     OW53092  10.727   5.635   2.867
83732SOL    HW153093  10.705   5.713   2.917
83732SOL    HW253094  10.777   5.580   2.928
83733SOL     OW53095   4.134   1.295   6.845
83733SOL    HW153096   4.144   1.353   6.770
83733SOL    HW253097   4.197   1.224   6.830
83734SOL     OW53098  11.096   3.771  11.515
83734SOL    HW153099  11.100   3.862  11.485
83734SOL    HW253100  11.173   3.729  11.478
83735SOL     OW53101   0.182   6.504   7.434
83735SOL    HW153102   0.177   6.467   7.346
83735SOL    HW253103   0.195   6.428   7.491
83736SOL     OW53104   6.074  10.959  14.164
83736SOL    HW153105   6.025  10.993  14.089
83736SOL    HW253106   6.103  11.037  14.211
83737SOL     OW53107   4.558   8.714   6.909
83737SOL    HW153108   4.560   8.706   7.005
83737SOL    HW253109   4.556   8.808   6.893
83738SOL     OW53110  12.548   4.411   4.176
83738SOL    HW153111  12.597   4.330   4.160
83738SOL    HW253112  12.545   4.454   4.091
83739SOL     OW53113   3.167  11.369   1.771
83739SOL    HW153114   3.253  11.410   1.782
83739SOL    HW253115   3.112  11.411   1.837
83740SOL     OW53116   9.639   7.591   3.273
83740SOL    HW153117   9.558   7.588   3.222
83740SOL    HW253118   9.687   7.665   3.237
83741SOL     OW53119  12.957   6.639   6.650
83741SOL    HW153120  12.931   6.607   6.564
83741SOL    HW253121  13.049   6.614   6.659
83742SOL     OW53122  14.357   7.048   8.241
83742SOL    HW153123  14.340   7.122   8.183
83742SOL    HW253124  14.395   7.088   8.320
83743SOL     OW53125   3.465  11.334  14.840
83743SOL    HW153126   3.493  11.285   0.042
83743SOL    HW253127   3.419  11.268  14.787
83744SOL     OW53128  11.134   4.351   0.137
83744SOL    HW153129  11.118   4.440   0.107
83744SOL    HW253130  11.223   4.353   0.172
83745SOL     OW53131  12.436   0.168   7.462
83745SOL    HW153132  12.364   0.229   7.481
83745SOL    HW253133  12.434   0.105   7.533
83746SOL     OW53134  12.134   0.765   7.121
83746SOL    HW153135  12.045   0.770   7.156
83746SOL    HW253136  12.138   0.834   7.055
83747SOL     OW53137   7.633  14.541   3.114
83747SOL    HW153138   7.626  14.539   3.209
83747SOL    HW253139   7.727  14.548   3.097
83748SOL     OW53140  11.314  12.994   8.941
83748SOL    HW153141  11.337  12.924   9.001
83748SOL    HW253142  11.393  13.047   8.934
83749SOL     OW53143  11.333  11.303   8.074
83749SOL    HW153144  11.326  11.376   8.136
83749SOL    HW253145  11.251  11.254   8.087
83750SOL     OW53146   2.021   9.739   5.058
83750SOL    HW153147   1.973   9.672   5.010
83750SOL    HW253148   2.111   9.731   5.029
83751SOL     OW53149   2.272   2.321   1.774
83751SOL    HW153150   2.304   2.281   1.856
83751SOL    HW253151   2.330   2.395   1.759
83752SOL     OW53152  13.422  13.539   0.548
83752SOL    HW153153  13.393  13.498   0.630
83752SOL    HW253154  13.443  13.629   0.572
83753SOL     OW53155  12.533   4.060   1.844
83753SOL    HW153156  12.567   3.988   1.896
83753SOL    HW253157  12.582   4.137   1.873
83754SOL     OW53158   9.047   4.410  12.417
83754SOL    HW153159   9.106   4.431  12.344
83754SOL    HW253160   8.966   4.382  12.375
83755SOL     OW53161  14.303   7.210   1.488
83755SOL    HW153162  14.263   7.291   1.518
83755SOL    HW253163  14.229   7.157   1.457
83756SOL     OW53164   7.418   6.782  11.323
83756SOL    HW153165   7.328   6.813  11.309
83756SOL    HW253166   7.420   6.696  11.282
83757SOL     OW53167   1.432   6.163   1.903
83757SOL    HW153168   1.454   6.113   1.824
83757SOL    HW253169   1.339   6.144   1.917
83758SOL     OW53170   9.049  14.745   5.209
83758SOL    HW153171   9.109  14.673   5.230
83758SOL    HW253172   9.106  14.815   5.178
83759SOL     OW53173   5.950   2.878   9.741
83759SOL    HW153174   5.861   2.884   9.705
83759SOL    HW253175   5.953   2.947   9.809
83760SOL     OW53176   8.834  10.203   8.250
83760SOL    HW153177   8.868  10.119   8.219
83760SOL    HW253178   8.824  10.192   8.345
83761SOL     OW53179   4.935   9.052   2.233
83761SOL    HW153180   5.019   9.079   2.270
83761SOL    HW253181   4.916   8.968   2.275
83762SOL     OW53182   7.691  13.434   1.560
83762SOL    HW153183   7.640  13.387   1.626
83762SOL    HW253184   7.691  13.525   1.591
83763SOL     OW53185   4.433   1.057   6.137
83763SOL    HW153186   4.408   1.003   6.062
83763SOL    HW253187   4.451   0.995   6.207
83764SOL     OW53188   0.392   2.204   6.429
83764SOL    HW153189   0.486   2.206   6.411
83764SOL    HW253190   0.381   2.254   6.510
83765SOL     OW53191  10.667  11.502   7.200
83765SOL    HW153192  10.610  11.430   7.175
83765SOL    HW253193  10.755  11.464   7.201
83766SOL     OW53194   0.519  14.175   2.641
83766SOL    HW153195   0.502  14.250   2.583
83766SOL    HW253196   0.551  14.215   2.721
83767SOL     OW53197   2.575   0.712   4.265
83767SOL    HW153198   2.583   0.722   4.170
83767SOL    HW253199   2.650   0.659   4.290
83768SOL     OW53200  12.798  11.531  11.992
83768SOL    HW153201  12.786  11.626  11.987
83768SOL    HW253202  12.886  11.519  12.027
83769SOL     OW53203  12.268  13.244  11.157
83769SOL    HW153204  12.279  13.225  11.064
83769SOL    HW253205  12.207  13.318  11.159
83770SOL     OW53206  11.849  11.983  14.483
83770SOL    HW153207  11.795  12.008  14.408
83770SOL    HW253208  11.801  11.910  14.523
83771SOL     OW53209  14.100   5.966  13.801
83771SOL    HW153210  14.169   5.939  13.861
83771SOL    HW253211  14.103   6.062  13.803
83772SOL     OW53212   7.518  13.797   2.849
83772SOL    HW153213   7.538  13.886   2.878
83772SOL    HW253214   7.444  13.769   2.902
83773SOL     OW53215  13.017   2.612  12.009
83773SOL    HW153216  12.988   2.665  12.083
83773SOL    HW253217  13.004   2.668  11.933
83774SOL     OW53218   0.938   9.074  13.414
83774SOL    HW153219   1.009   9.133  13.387
83774SOL    HW253220   0.977   8.987  13.411
83775SOL     OW53221  10.639  11.857   2.907
83775SOL    HW153222  10.709  11.896   2.855
83775SOL    HW253223  10.653  11.763   2.899
83776SOL     OW53224   3.587   3.698   1.857
83776SOL    HW153225   3.559   3.778   1.813
83776SOL    HW253226   3.680   3.713   1.874
83777SOL     OW53227   3.720  13.312   7.959
83777SOL    HW153228   3.658  13.304   8.031
83777SOL    HW253229   3.806  13.323   8.002
83778SOL     OW53230   2.147   9.144  11.665
83778SOL    HW153231   2.083   9.120  11.731
83778SOL    HW253232   2.132   9.083  11.593
83779SOL     OW53233  10.332   8.340  12.728
83779SOL    HW153234  10.274   8.311  12.658
83779SOL    HW253235  10.324   8.436  12.727
83780SOL     OW53236   9.905  12.173   2.104
83780SOL    HW153237   9.827  12.226   2.085
83780SOL    HW253238   9.972  12.207   2.044
83781SOL     OW53239   2.140   2.635   4.738
83781SOL    HW153240   2.215   2.636   4.678
83781SOL    HW253241   2.067   2.670   4.687
83782SOL     OW53242   6.948   5.244   4.330
83782SOL    HW153243   6.996   5.168   4.296
83782SOL    HW253244   6.862   5.238   4.289
83783SOL     OW53245  11.506   6.505   4.105
83783SOL    HW153246  11.480   6.566   4.036
83783SOL    HW253247  11.449   6.527   4.179
83784SOL     OW53248   5.642  13.158  13.348
83784SOL    HW153249   5.641  13.192  13.258
83784SOL    HW253250   5.555  13.181  13.382
83785SOL     OW53251   7.643   2.618  13.603
83785SOL    HW153252   7.635   2.559  13.528
83785SOL    HW253253   7.710   2.681  13.577
83786SOL     OW53254   3.770   2.522  13.685
83786SOL    HW153255   3.739   2.607  13.715
83786SOL    HW253256   3.812   2.540  13.601
83787SOL     OW53257   5.201   5.880   5.880
83787SOL    HW153258   5.253   5.957   5.902
83787SOL    HW253259   5.211   5.822   5.955
83788SOL     OW53260   0.370   4.547  11.558
83788SOL    HW153261   0.364   4.630  11.512
83788SOL    HW253262   0.462   4.538  11.582
83789SOL     OW53263  12.412  14.459   0.020
83789SOL    HW153264  12.459  14.533  14.855
83789SOL    HW253265  12.481  14.406   0.059
83790SOL     OW53266   5.856   6.395  10.363
83790SOL    HW153267   5.767   6.431  10.366
83790SOL    HW253268   5.888   6.416  10.276
83791SOL     OW53269  10.013   6.103  14.107
83791SOL    HW153270   9.997   6.048  14.030
83791SOL    HW253271  10.073   6.053  14.161
83792SOL     OW53272  12.645   8.646  11.209
83792SOL    HW153273  12.676   8.556  11.223
83792SOL    HW253274  12.715   8.689  11.160
83793SOL     OW53275   2.585   6.712   4.298
83793SOL    HW153276   2.599   6.801   4.263
83793SOL    HW253277   2.494   6.692   4.274
83794SOL     OW53278   4.370   3.869   5.916
83794SOL    HW153279   4.458   3.845   5.945
83794SOL    HW253280   4.361   3.827   5.831
83795SOL     OW53281   9.833   0.407  11.684
83795SOL    HW153282   9.795   0.427  11.599
83795SOL    HW253283   9.871   0.489  11.714
83796SOL     OW53284   3.845   0.058   4.510
83796SOL    HW153285   3.900  14.856   4.528
83796SOL    HW253286   3.842   0.106   4.592
83797SOL     OW53287   6.008  13.657  13.715
83797SOL    HW153288   5.968  13.699  13.639
83797SOL    HW253289   6.076  13.600  13.678
83798SOL     OW53290  12.018   1.817  13.928
83798SOL    HW153291  12.002   1.723  13.935
83798SOL    HW253292  12.086   1.824  13.860
83799SOL     OW53293  14.395  14.524   5.077
83799SOL    HW153294  14.469  14.472   5.045
83799SOL    HW253295  14.335  14.528   5.002
83800SOL     OW53296   8.936   8.894   5.020
83800SOL    HW153297   9.012   8.952   5.025
83800SOL    HW253298   8.954   8.839   4.944
83801SOL     OW53299  13.827   8.909   7.131
83801SOL    HW153300  13.751   8.894   7.075
83801SOL    HW253301  13.901   8.879   7.079
83802SOL     OW53302  14.525   1.824  11.579
83802SOL    HW153303  14.553   1.908  11.543
83802SOL    HW253304  14.455   1.846  11.640
83803SOL     OW53305   9.333   1.955   7.572
83803SOL    HW153306   9.257   2.013   7.560
83803SOL    HW253307   9.386   1.968   7.494
83804SOL     OW53308   5.458   1.459   8.965
83804SOL    HW153309   5.491   1.369   8.969
83804SOL    HW253310   5.364   1.450   8.983
83805SOL     OW53311  11.101   9.868   0.437
83805SOL    HW153312  11.154   9.806   0.487
83805SOL    HW253313  11.164   9.927   0.396
83806SOL     OW53314   8.175   5.107   3.427
83806SOL    HW153315   8.252   5.155   3.458
83806SOL    HW253316   8.192   5.016   3.452
83807SOL     OW53317   5.341   1.217   2.372
83807SOL    HW153318   5.397   1.287   2.406
83807SOL    HW253319   5.398   1.165   2.317
83808SOL     OW53320   4.277   5.636   4.613
83808SOL    HW153321   4.278   5.604   4.523
83808SOL    HW253322   4.262   5.730   4.605
83809SOL     OW53323  14.790   0.759   0.120
83809SOL    HW153324  14.818   0.804   0.040
83809SOL    HW253325  14.696   0.743   0.107
83810SOL     OW53326   1.525   2.555   0.962
83810SOL    HW153327   1.489   2.466   0.959
83810SOL    HW253328   1.620   2.542   0.962
83811SOL     OW53329  12.806  11.051  11.279
83811SOL    HW153330  12.771  10.985  11.219
83811SOL    HW253331  12.733  11.110  11.297
83812SOL     OW53332   4.512   1.322   4.267
83812SOL    HW153333   4.523   1.319   4.172
83812SOL    HW253334   4.601   1.317   4.302
83813SOL     OW53335  12.372   5.540   7.097
83813SOL    HW153336  12.348   5.466   7.152
83813SOL    HW253337  12.292   5.592   7.090
83814SOL     OW53338   4.536   7.047   4.006
83814SOL    HW153339   4.499   7.134   3.988
83814SOL    HW253340   4.608   7.064   4.067
83815SOL     OW53341  10.164   2.237   5.783
83815SOL    HW153342  10.070   2.223   5.781
83815SOL    HW253343  10.175   2.315   5.838
83816SOL     OW53344   8.345   9.226   5.264
83816SOL    HW153345   8.440   9.219   5.258
83816SOL    HW253346   8.325   9.204   5.355
83817SOL     OW53347   0.521  11.753   2.042
83817SOL    HW153348   0.447  11.699   2.014
83817SOL    HW253349   0.593  11.692   2.051
83818SOL     OW53350   6.228  14.156  11.268
83818SOL    HW153351   6.246  14.170  11.175
83818SOL    HW253352   6.164  14.223  11.291
83819SOL     OW53353   5.241   5.495   1.619
83819SOL    HW153354   5.163   5.439   1.620
83819SOL    HW253355   5.215   5.571   1.567
83820SOL     OW53356   7.606   3.776  10.411
83820SOL    HW153357   7.585   3.839  10.479
83820SOL    HW253358   7.529   3.719  10.407
83821SOL     OW53359   0.176   0.845   8.998
83821SOL    HW153360   0.190   0.930   8.956
83821SOL    HW253361   0.253   0.794   8.975
83822SOL     OW53362   0.486   8.020   5.988
83822SOL    HW153363   0.496   8.098   5.933
83822SOL    HW253364   0.393   8.018   6.010
83823SOL     OW53365   9.563  13.219  11.965
83823SOL    HW153366   9.620  13.210  12.042
83823SOL    HW253367   9.511  13.138  11.964
83824SOL     OW53368   3.402   1.146   5.354
83824SOL    HW153369   3.370   1.236   5.356
83824SOL    HW253370   3.459   1.142   5.278
83825SOL     OW53371   5.725   0.367   6.544
83825SOL    HW153372   5.722   0.276   6.572
83825SOL    HW253373   5.814   0.396   6.565
83826SOL     OW53374   1.377   2.617  11.267
83826SOL    HW153375   1.401   2.543  11.211
83826SOL    HW253376   1.345   2.684  11.207
83827SOL     OW53377   0.593   7.488  13.516
83827SOL    HW153378   0.589   7.537  13.598
83827SOL    HW253379   0.684   7.459  13.510
83828SOL     OW53380   3.355  13.095   5.483
83828SOL    HW153381   3.363  13.000   5.491
83828SOL    HW253382   3.276  13.117   5.533
83829SOL     OW53383   5.333   3.254   9.172
83829SOL    HW153384   5.386   3.221   9.100
83829SOL    HW253385   5.396   3.281   9.239
83830SOL     OW53386  14.305  13.727  10.459
83830SOL    HW153387  14.400  13.715  10.470
83830SOL    HW253388  14.274  13.642  10.427
83831SOL     OW53389   1.766   6.632   9.857
83831SOL    HW153390   1.759   6.698   9.788
83831SOL    HW253391   1.679   6.591   9.861
83832SOL     OW53392   3.724  13.012   3.838
83832SOL    HW153393   3.803  13.031   3.788
83832SOL    HW253394   3.654  13.055   3.788
83833SOL     OW53395   9.505   2.195   6.203
83833SOL    HW153396   9.525   2.130   6.135
83833SOL    HW253397   9.584   2.249   6.208
83834SOL     OW53398   4.537  12.316  12.702
83834SOL    HW153399   4.595  12.264  12.646
83834SOL    HW253400   4.590  12.336  12.779
83835SOL     OW53401   9.490   7.676   8.887
83835SOL    HW153402   9.417   7.701   8.830
83835SOL    HW253403   9.451   7.672   8.974
83836SOL     OW53404  11.191   6.340   6.406
83836SOL    HW153405  11.261   6.275   6.392
83836SOL    HW253406  11.118   6.308   6.354
83837SOL     OW53407  10.209  14.364   2.381
83837SOL    HW153408  10.160  14.289   2.415
83837SOL    HW253409  10.155  14.440   2.403
83838SOL     OW53410   4.425  13.315   2.272
83838SOL    HW153411   4.509  13.356   2.293
83838SOL    HW253412   4.448  13.241   2.215
83839SOL     OW53413   6.831  13.934   6.138
83839SOL    HW153414   6.750  13.901   6.176
83839SOL    HW253415   6.870  13.859   6.093
83840SOL     OW53416   4.125   1.236  10.777
83840SOL    HW153417   4.189   1.243  10.848
83840SOL    HW253418   4.044   1.211  10.821
83841SOL     OW53419  13.249   6.062  12.363
83841SOL    HW153420  13.325   6.008  12.387
83841SOL    HW253421  13.282   6.120  12.295
83842SOL     OW53422  10.466  11.081   6.623
83842SOL    HW153423  10.463  11.008   6.561
83842SOL    HW253424  10.559  11.102   6.631
83843SOL     OW53425  11.666  10.902   7.234
83843SOL    HW153426  11.702  10.990   7.242
83843SOL    HW253427  11.729  10.846   7.279
83844SOL     OW53428   3.974   2.425   6.565
83844SOL    HW153429   4.057   2.472   6.561
83844SOL    HW253430   3.917   2.471   6.504
83845SOL     OW53431   7.659   6.722   8.862
83845SOL    HW153432   7.651   6.793   8.925
83845SOL    HW253433   7.748   6.730   8.828
83846SOL     OW53434  10.491  14.468   8.562
83846SOL    HW153435  10.467  14.438   8.650
83846SOL    HW253436  10.469  14.394   8.505
83847SOL     OW53437   6.033   4.077   7.166
83847SOL    HW153438   6.116   4.096   7.123
83847SOL    HW253439   5.968   4.129   7.117
83848SOL     OW53440   0.203   3.892  11.823
83848SOL    HW153441   0.195   3.797  11.834
83848SOL    HW253442   0.293   3.912  11.849
83849SOL     OW53443   9.660   1.667   9.478
83849SOL    HW153444   9.634   1.584   9.519
83849SOL    HW253445   9.691   1.642   9.391
83850SOL     OW53446   9.047  14.209   2.137
83850SOL    HW153447   8.969  14.173   2.179
83850SOL    HW253448   9.120  14.166   2.182
83851SOL     OW53449   0.351  13.220   1.125
83851SOL    HW153450   0.417  13.154   1.143
83851SOL    HW253451   0.270  13.171   1.110
83852SOL     OW53452   5.187   3.948  13.086
83852SOL    HW153453   5.097   3.977  13.101
83852SOL    HW253454   5.241   4.010  13.134
83853SOL     OW53455  10.112  12.780   8.403
83853SOL    HW153456  10.097  12.834   8.481
83853SOL    HW253457  10.049  12.812   8.339
83854SOL     OW53458   9.171  12.020  13.586
83854SOL    HW153459   9.143  11.977  13.505
83854SOL    HW253460   9.212  12.102  13.556
83855SOL     OW53461   5.488   1.031   1.699
83855SOL    HW153462   5.533   1.009   1.618
83855SOL    HW253463   5.558   1.041   1.764
83856SOL     OW53464   4.332   2.465  12.115
83856SOL    HW153465   4.382   2.496  12.039
83856SOL    HW253466   4.394   2.468  12.188
83857SOL     OW53467   4.763  10.838   7.966
83857SOL    HW153468   4.734  10.751   7.941
83857SOL    HW253469   4.695  10.897   7.932
83858SOL     OW53470  13.050   6.781   1.835
83858SOL    HW153471  13.058   6.705   1.892
83858SOL    HW253472  13.112   6.764   1.763
83859SOL     OW53473  11.041  12.331  14.778
83859SOL    HW153474  10.957  12.350  14.820
83859SOL    HW253475  11.049  12.396  14.709
83860SOL     OW53476  14.749  12.446   8.117
83860SOL    HW153477  14.736  12.352   8.108
83860SOL    HW253478  14.757  12.460   8.211
83861SOL     OW53479   5.344   3.824  12.204
83861SOL    HW153480   5.308   3.908  12.173
83861SOL    HW253481   5.286   3.758  12.166
83862SOL     OW53482  10.827  14.638   8.839
83862SOL    HW153483  10.760  14.707   8.843
83862SOL    HW253484  10.827  14.610   8.748
83863SOL     OW53485   7.480  13.573   0.069
83863SOL    HW153486   7.502  13.575  14.851
83863SOL    HW253487   7.507  13.658   0.103
83864SOL     OW53488   7.847  11.213  14.678
83864SOL    HW153489   7.927  11.163  14.664
83864SOL    HW253490   7.794  11.159  14.737
83865SOL     OW53491   3.433   5.770  14.432
83865SOL    HW153492   3.425   5.858  14.395
83865SOL    HW253493   3.502   5.729  14.381
83866SOL     OW53494   3.843   6.718  12.448
83866SOL    HW153495   3.848   6.778  12.373
83866SOL    HW253496   3.778   6.758  12.506
83867SOL     OW53497   3.386  13.918   9.724
83867SOL    HW153498   3.390  13.985   9.793
83867SOL    HW253499   3.435  13.844   9.761
83868SOL     OW53500   1.768   9.212  13.841
83868SOL    HW153501   1.689   9.188  13.793
83868SOL    HW253502   1.824   9.255  13.776
83869SOL     OW53503   5.707   9.342   7.721
83869SOL    HW153504   5.724   9.260   7.768
83869SOL    HW253505   5.783   9.397   7.741
83870SOL     OW53506  13.988   6.038   6.049
83870SOL    HW153507  14.073   5.994   6.057
83870SOL    HW253508  13.999   6.120   6.097
83871SOL     OW53509  10.782   2.543   9.522
83871SOL    HW153510  10.787   2.500   9.436
83871SOL    HW253511  10.823   2.628   9.509
83872SOL     OW53512   2.582   7.751   2.279
83872SOL    HW153513   2.533   7.771   2.198
83872SOL    HW253514   2.651   7.691   2.251
83873SOL     OW53515   8.008   0.172   7.047
83873SOL    HW153516   8.047   0.168   6.960
83873SOL    HW253517   8.072   0.221   7.100
83874SOL     OW53518   0.874  11.881  13.379
83874SOL    HW153519   0.822  11.812  13.336
83874SOL    HW253520   0.816  11.957  13.380
83875SOL     OW53521   5.351   0.089   2.098
83875SOL    HW153522   5.265   0.100   2.137
83875SOL    HW253523   5.334   0.045   2.014
83876SOL     OW53524   0.632  14.860  12.273
83876SOL    HW153525   0.602  14.848  12.182
83876SOL    HW253526   0.635   0.079  12.285
83877SOL     OW53527   2.548   0.159  11.947
83877SOL    HW153528   2.643   0.149  11.956
83877SOL    HW253529   2.532   0.151  11.853
83878SOL     OW53530  11.467   3.698  10.020
83878SOL    HW153531  11.442   3.784   9.988
83878SOL    HW253532  11.514   3.657   9.947
83879SOL     OW53533  10.176   0.225   0.526
83879SOL    HW153534  10.217   0.311   0.522
83879SOL    HW253535  10.247   0.165   0.545
83880SOL     OW53536   3.139   3.688   4.811
83880SOL    HW153537   3.107   3.616   4.866
83880SOL    HW253538   3.234   3.680   4.815
83881SOL     OW53539   9.890   6.791   8.640
83881SOL    HW153540   9.823   6.817   8.703
83881SOL    HW253541   9.888   6.858   8.572
83882SOL     OW53542   2.048   2.365   4.487
83882SOL    HW153543   1.983   2.314   4.439
83882SOL    HW253544   1.999   2.438   4.525
83883SOL     OW53545   6.690  10.891  14.352
83883SOL    HW153546   6.749  10.952  14.398
83883SOL    HW253547   6.718  10.896  14.260
83884SOL     OW53548   6.483   6.895  13.433
83884SOL    HW153549   6.513   6.879  13.523
83884SOL    HW253550   6.415   6.961  13.442
83885SOL     OW53551   5.879   0.395   3.910
83885SOL    HW153552   5.821   0.348   3.969
83885SOL    HW253553   5.966   0.386   3.949
83886SOL     OW53554   0.014  10.526   9.315
83886SOL    HW153555   0.097  10.519   9.269
83886SOL    HW253556   0.036  10.515   9.407
83887SOL     OW53557   6.916   0.135   8.282
83887SOL    HW153558   6.855   0.180   8.340
83887SOL    HW253559   6.983   0.200   8.263
83888SOL     OW53560   1.636  13.374  11.399
83888SOL    HW153561   1.620  13.468  11.396
83888SOL    HW253562   1.698  13.362  11.471
83889SOL     OW53563   8.137   1.683  13.867
83889SOL    HW153564   8.091   1.608  13.904
83889SOL    HW253565   8.074   1.723  13.807
83890SOL     OW53566   9.901   6.173   9.941
83890SOL    HW153567   9.874   6.082   9.949
83890SOL    HW253568   9.838   6.212   9.880
83891SOL     OW53569   1.864   4.231   9.517
83891SOL    HW153570   1.950   4.197   9.538
83891SOL    HW253571   1.860   4.316   9.562
83892SOL     OW53572   0.424   8.479   7.601
83892SOL    HW153573   0.439   8.467   7.695
83892SOL    HW253574   0.479   8.413   7.559
83893SOL     OW53575  11.300   3.809  13.226
83893SOL    HW153576  11.294   3.820  13.321
83893SOL    HW253577  11.308   3.899  13.193
83894SOL     OW53578  10.533  11.468  13.205
83894SOL    HW153579  10.530  11.379  13.239
83894SOL    HW253580  10.475  11.468  13.129
83895SOL     OW53581   1.006  13.671   9.568
83895SOL    HW153582   1.094  13.632   9.561
83895SOL    HW253583   1.012  13.728   9.645
83896SOL     OW53584  14.209   2.268   5.073
83896SOL    HW153585  14.267   2.238   5.003
83896SOL    HW253586  14.224   2.207   5.145
83897SOL     OW53587  13.389  13.942  13.598
83897SOL    HW153588  13.444  13.881  13.649
83897SOL    HW253589  13.351  14.000  13.664
83898SOL     OW53590   0.303  14.745   5.769
83898SOL    HW153591   0.281  14.677   5.832
83898SOL    HW253592   0.228  14.748   5.710
83899SOL     OW53593  12.752   2.196   2.110
83899SOL    HW153594  12.690   2.189   2.038
83899SOL    HW253595  12.747   2.287   2.138
83900SOL     OW53596   5.338  10.039  14.249
83900SOL    HW153597   5.401  10.033  14.321
83900SOL    HW253598   5.260   9.995  14.282
83901SOL     OW53599   5.638   8.353  13.394
83901SOL    HW153600   5.691   8.276  13.372
83901SOL    HW253601   5.636   8.355  13.489
83902SOL     OW53602   0.107  11.377  12.179
83902SOL    HW153603   0.061  11.376  12.262
83902SOL    HW253604   0.176  11.443  12.191
83903SOL     OW53605   7.056   6.743  13.744
83903SOL    HW153606   6.980   6.732  13.687
83903SOL    HW253607   7.028   6.806  13.810
83904SOL     OW53608  14.450  12.688   5.360
83904SOL    HW153609  14.421  12.778   5.347
83904SOL    HW253610  14.545  12.691   5.347
83905SOL     OW53611   7.339   0.095  11.939
83905SOL    HW153612   7.320   0.044  11.860
83905SOL    HW253613   7.402   0.042  11.988
83906SOL     OW53614   3.175   0.733   9.479
83906SOL    HW153615   3.260   0.698   9.451
83906SOL    HW253616   3.137   0.770   9.400
83907SOL     OW53617   9.778   9.009   9.366
83907SOL    HW153618   9.703   9.067   9.351
83907SOL    HW253619   9.743   8.939   9.421
83908SOL     OW53620   5.465   8.607   7.184
83908SOL    HW153621   5.492   8.698   7.177
83908SOL    HW253622   5.499   8.566   7.105
83909SOL     OW53623  11.342   6.648  13.024
83909SOL    HW153624  11.249   6.657  13.003
83909SOL    HW253625  11.385   6.714  12.970
83910SOL     OW53626   7.145  14.869   8.023
83910SOL    HW153627   7.158  14.837   8.113
83910SOL    HW253628   7.051  14.857   8.007
83911SOL     OW53629  14.554   3.664   2.343
83911SOL    HW153630  14.501   3.611   2.283
83911SOL    HW253631  14.491   3.726   2.382
83912SOL     OW53632  10.969   9.033   0.288
83912SOL    HW153633  11.006   9.094   0.352
83912SOL    HW253634  10.921   9.088   0.226
83913SOL     OW53635  11.506  12.781  10.769
83913SOL    HW153636  11.449  12.802  10.843
83913SOL    HW253637  11.495  12.686  10.758
83914SOL     OW53638   7.741  13.450  14.564
83914SOL    HW153639   7.781  13.393  14.629
83914SOL    HW253640   7.815  13.494  14.522
83915SOL     OW53641   7.903  14.578   1.558
83915SOL    HW153642   7.841  14.541   1.620
83915SOL    HW253643   7.858  14.654   1.521
83916SOL     OW53644  14.615   2.129   9.178
83916SOL    HW153645  14.522   2.121   9.200
83916SOL    HW253646  14.622   2.094   9.089
83917SOL     OW53647   6.495   6.922   8.319
83917SOL    HW153648   6.516   6.953   8.230
83917SOL    HW253649   6.405   6.889   8.312
83918SOL     OW53650   5.154   9.503   4.988
83918SOL    HW153651   5.144   9.570   4.921
83918SOL    HW253652   5.241   9.466   4.972
83919SOL     OW53653   9.869   3.457   6.392
83919SOL    HW153654   9.891   3.366   6.411
83919SOL    HW253655   9.948   3.507   6.415
83920SOL     OW53656  14.815   8.052   2.523
83920SOL    HW153657   0.021   8.003   2.509
83920SOL    HW253658  14.752   7.986   2.550
83921SOL     OW53659  11.266   0.481  13.006
83921SOL    HW153660  11.292   0.499  12.915
83921SOL    HW253661  11.232   0.565  13.037
83922SOL     OW53662   7.332   3.418  12.636
83922SOL    HW153663   7.427   3.419  12.622
83922SOL    HW253664   7.322   3.399  12.729
83923SOL     OW53665   7.696  14.371  11.049
83923SOL    HW153666   7.775  14.320  11.027
83923SOL    HW253667   7.651  14.383  10.966
83924SOL     OW53668  14.600   8.500   4.935
83924SOL    HW153669  14.602   8.587   4.896
83924SOL    HW253670  14.685   8.492   4.978
83925SOL     OW53671   4.455  12.956   7.469
83925SOL    HW153672   4.417  12.891   7.409
83925SOL    HW253673   4.437  12.921   7.556
83926SOL     OW53674  11.491   4.071   9.027
83926SOL    HW153675  11.450   4.154   9.052
83926SOL    HW253676  11.423   4.006   9.040
83927SOL     OW53677   1.627   5.610  13.270
83927SOL    HW153678   1.697   5.550  13.295
83927SOL    HW253679   1.578   5.563  13.203
83928SOL     OW53680   4.582   0.417   2.381
83928SOL    HW153681   4.644   0.475   2.426
83928SOL    HW253682   4.522   0.388   2.450
83929SOL     OW53683   7.770   6.552   4.107
83929SOL    HW153684   7.736   6.609   4.038
83929SOL    HW253685   7.854   6.591   4.131
83930SOL     OW53686  10.077   1.422  11.286
83930SOL    HW153687  10.005   1.414  11.223
83930SOL    HW253688  10.071   1.343  11.340
83931SOL     OW53689   0.232   2.744   8.314
83931SOL    HW153690   0.265   2.736   8.404
83931SOL    HW253691   0.294   2.694   8.262
83932SOL     OW53692   7.590  12.971   0.332
83932SOL    HW153693   7.553  12.927   0.256
83932SOL    HW253694   7.643  12.905   0.375
83933SOL     OW53695   6.528   9.037   6.406
83933SOL    HW153696   6.457   9.011   6.348
83933SOL    HW253697   6.486   9.084   6.478
83934SOL     OW53698   5.991   1.768   4.008
83934SOL    HW153699   5.944   1.707   4.065
83934SOL    HW253700   5.923   1.804   3.951
83935SOL     OW53701   6.299  10.010   4.275
83935SOL    HW153702   6.349   9.996   4.195
83935SOL    HW253703   6.207  10.005   4.248
83936SOL     OW53704   1.840   8.915   7.165
83936SOL    HW153705   1.752   8.947   7.145
83936SOL    HW253706   1.826   8.825   7.195
83937SOL     OW53707   6.109   5.354   6.144
83937SOL    HW153708   6.163   5.406   6.086
83937SOL    HW253709   6.078   5.281   6.090
83938SOL     OW53710  13.773   1.014   7.897
83938SOL    HW153711  13.755   0.936   7.843
83938SOL    HW253712  13.692   1.027   7.947
83939SOL     OW53713  10.910  10.300  13.364
83939SOL    HW153714  10.937  10.375  13.417
83939SOL    HW253715  10.974  10.232  13.385
83940SOL     OW53716   4.735  11.122   2.547
83940SOL    HW153717   4.642  11.113   2.530
83940SOL    HW253718   4.749  11.079   2.632
83941SOL     OW53719  14.088   9.296   3.532
83941SOL    HW153720  14.053   9.379   3.565
83941SOL    HW253721  14.176   9.290   3.570
83942SOL     OW53722   8.825   7.366   0.642
83942SOL    HW153723   8.808   7.336   0.553
83942SOL    HW253724   8.803   7.291   0.697
83943SOL     OW53725  14.008  13.624  13.023
83943SOL    HW153726  14.103  13.619  13.028
83943SOL    HW253727  13.977  13.536  13.042
83944SOL     OW53728  12.940  13.522   4.160
83944SOL    HW153729  12.896  13.446   4.122
83944SOL    HW253730  12.980  13.566   4.086
83945SOL     OW53731   2.169   6.742  14.173
83945SOL    HW153732   2.117   6.694  14.237
83945SOL    HW253733   2.191   6.676  14.106
83946SOL     OW53734  12.283  12.518  10.146
83946SOL    HW153735  12.372  12.538  10.117
83946SOL    HW253736  12.279  12.552  10.235
83947SOL     OW53737   6.056   8.633   8.005
83947SOL    HW153738   6.011   8.568   8.059
83947SOL    HW253739   6.114   8.582   7.949
83948SOL     OW53740   6.742   2.693   0.983
83948SOL    HW153741   6.698   2.737   0.910
83948SOL    HW253742   6.779   2.763   1.035
83949SOL     OW53743   5.014   3.903   4.183
83949SOL    HW153744   4.953   3.975   4.168
83949SOL    HW253745   4.999   3.879   4.275
83950SOL     OW53746   6.592   2.970  14.249
83950SOL    HW153747   6.657   3.007  14.189
83950SOL    HW253748   6.514   3.024  14.237
83951SOL     OW53749   8.603  13.786   9.525
83951SOL    HW153750   8.515  13.813   9.551
83951SOL    HW253751   8.654  13.786   9.606
83952SOL     OW53752   4.883   3.271   0.879
83952SOL    HW153753   4.913   3.260   0.969
83952SOL    HW253754   4.961   3.255   0.826
83953SOL     OW53755   2.292   1.907  13.672
83953SOL    HW153756   2.278   1.998  13.700
83953SOL    HW253757   2.364   1.913  13.609
83954SOL     OW53758   4.505   1.773   6.003
83954SOL    HW153759   4.546   1.721   6.072
83954SOL    HW253760   4.577   1.798   5.946
83955SOL     OW53761  13.697   3.552   2.740
83955SOL    HW153762  13.680   3.464   2.773
83955SOL    HW253763  13.652   3.556   2.656
83956SOL     OW53764   6.466   5.704   5.505
83956SOL    HW153765   6.455   5.619   5.461
83956SOL    HW253766   6.502   5.682   5.591
83957SOL     OW53767   2.210  14.356  10.184
83957SOL    HW153768   2.291  14.358  10.133
83957SOL    HW253769   2.199  14.265  10.209
83958SOL     OW53770  10.016   2.496   8.819
83958SOL    HW153771  10.018   2.403   8.800
83958SOL    HW253772   9.941   2.530   8.771
83959SOL     OW53773  12.611   4.476   9.709
83959SOL    HW153774  12.558   4.522   9.774
83959SOL    HW253775  12.611   4.534   9.633
83960SOL     OW53776  13.767   8.128   6.115
83960SOL    HW153777  13.704   8.085   6.057
83960SOL    HW253778  13.715   8.155   6.191
83961SOL     OW53779   0.341   8.102   2.024
83961SOL    HW153780   0.321   8.109   2.117
83961SOL    HW253781   0.256   8.106   1.980
83962SOL     OW53782   9.626   4.572  11.673
83962SOL    HW153783   9.716   4.553  11.701
83962SOL    HW253784   9.624   4.667  11.660
83963SOL     OW53785   7.174   0.028  10.091
83963SOL    HW153786   7.184   0.108  10.143
83963SOL    HW253787   7.079   0.011  10.092
83964SOL     OW53788   7.455   4.588   1.498
83964SOL    HW153789   7.462   4.570   1.591
83964SOL    HW253790   7.501   4.515   1.456
83965SOL     OW53791  10.423   6.621   0.351
83965SOL    HW153792  10.480   6.639   0.276
83965SOL    HW253793  10.470   6.659   0.426
83966SOL     OW53794  11.230   2.828  11.889
83966SOL    HW153795  11.254   2.889  11.958
83966SOL    HW253796  11.164   2.874  11.837
83967SOL     OW53797   4.107   1.341   5.289
83967SOL    HW153798   4.152   1.388   5.359
83967SOL    HW253799   4.103   1.404   5.216
83968SOL     OW53800   5.859  10.407  12.493
83968SOL    HW153801   5.945  10.450  12.497
83968SOL    HW253802   5.838  10.405  12.400
83969SOL     OW53803   7.711  10.867  11.261
83969SOL    HW153804   7.769  10.940  11.240
83969SOL    HW253805   7.703  10.868  11.356
83970SOL     OW53806   7.557   7.351   4.194
83970SOL    HW153807   7.532   7.403   4.117
83970SOL    HW253808   7.493   7.280   4.196
83971SOL     OW53809   1.293  13.464   0.693
83971SOL    HW153810   1.338  13.534   0.739
83971SOL    HW253811   1.254  13.410   0.762
83972SOL     OW53812  11.712   5.226  14.289
83972SOL    HW153813  11.719   5.139  14.252
83972SOL    HW253814  11.780   5.277  14.245
83973SOL     OW53815  11.083   8.733   4.735
83973SOL    HW153816  11.081   8.656   4.677
83973SOL    HW253817  11.002   8.780   4.715
83974SOL     OW53818   5.841   8.197   3.691
83974SOL    HW153819   5.784   8.170   3.763
83974SOL    HW253820   5.884   8.276   3.724
83975SOL     OW53821   2.890  10.931  14.504
83975SOL    HW153822   2.840  11.012  14.510
83975SOL    HW253823   2.940  10.927  14.586
83976SOL     OW53824   3.087   4.754   9.200
83976SOL    HW153825   3.126   4.693   9.139
83976SOL    HW253826   3.093   4.710   9.285
83977SOL     OW53827  13.065   6.546  11.275
83977SOL    HW153828  13.151   6.537  11.235
83977SOL    HW253829  13.046   6.640  11.270
83978SOL     OW53830   9.106   2.888  12.695
83978SOL    HW153831   9.196   2.916  12.714
83978SOL    HW253832   9.082   2.831  12.768
83979SOL     OW53833   2.453  12.360  14.363
83979SOL    HW153834   2.546  12.353  14.339
83979SOL    HW253835   2.453  12.405  14.447
83980SOL     OW53836   2.959   5.605   0.318
83980SOL    HW153837   3.033   5.636   0.267
83980SOL    HW253838   2.969   5.509   0.318
83981SOL     OW53839   2.129  13.615   0.411
83981SOL    HW153840   2.165  13.593   0.325
83981SOL    HW253841   2.103  13.530   0.448
83982SOL     OW53842   3.984   7.383   0.845
83982SOL    HW153843   4.056   7.394   0.907
83982SOL    HW253844   3.913   7.347   0.897
83983SOL     OW53845   4.620  14.414   0.032
83983SOL    HW153846   4.680  14.440   0.102
83983SOL    HW253847   4.572  14.494   0.010
83984SOL     OW53848   4.422   3.246   4.641
83984SOL    HW153849   4.420   3.287   4.727
83984SOL    HW253850   4.362   3.298   4.588
83985SOL     OW53851  12.799   8.745  13.655
83985SOL    HW153852  12.858   8.713  13.587
83985SOL    HW253853  12.718   8.696  13.642
83986SOL     OW53854   3.046   3.273   8.656
83986SOL    HW153855   3.042   3.210   8.585
83986SOL    HW253856   3.057   3.220   8.735
83987SOL     OW53857  14.144   6.217  10.341
83987SOL    HW153858  14.225   6.263  10.362
83987SOL    HW253859  14.158   6.128  10.374
83988SOL     OW53860   5.270   0.235   2.795
83988SOL    HW153861   5.284   0.158   2.740
83988SOL    HW253862   5.214   0.203   2.866
83989SOL     OW53863   0.373   1.243   3.859
83989SOL    HW153864   0.378   1.165   3.803
83989SOL    HW253865   0.323   1.215   3.936
83990SOL     OW53866   2.173   3.164   4.324
83990SOL    HW153867   2.126   3.246   4.337
83990SOL    HW253868   2.232   3.157   4.399
83991SOL     OW53869  14.585  14.870   8.724
83991SOL    HW153870  14.562  14.868   8.631
83991SOL    HW253871  14.601   0.087   8.743
83992SOL     OW53872   3.706   4.366  11.383
83992SOL    HW153873   3.641   4.310  11.424
83992SOL    HW253874   3.752   4.407  11.456
83993SOL     OW53875   3.450   2.860   2.343
83993SOL    HW153876   3.478   2.769   2.355
83993SOL    HW253877   3.527   2.906   2.312
83994SOL     OW53878  13.915   7.608  13.485
83994SOL    HW153879  13.910   7.695  13.444
83994SOL    HW253880  13.834   7.601  13.536
83995SOL     OW53881   8.668   8.335   0.695
83995SOL    HW153882   8.612   8.345   0.618
83995SOL    HW253883   8.713   8.418   0.703
83996SOL     OW53884   2.612   1.159   7.591
83996SOL    HW153885   2.651   1.144   7.505
83996SOL    HW253886   2.553   1.086   7.604
83997SOL     OW53887   8.261   2.282  10.727
83997SOL    HW153888   8.166   2.273  10.731
83997SOL    HW253889   8.275   2.362  10.676
83998SOL     OW53890   7.036   2.800   7.573
83998SOL    HW153891   7.074   2.787   7.661
83998SOL    HW253892   7.052   2.893   7.554
83999SOL     OW53893   9.743   3.376  12.752
83999SOL    HW153894   9.789   3.389  12.670
83999SOL    HW253895   9.650   3.373  12.727
84000SOL     OW53896   8.515  14.670  14.288
84000SOL    HW153897   8.550  14.604  14.348
84000SOL    HW253898   8.565  14.658  14.207
84001SOL     OW53899  12.941   6.840  13.452
84001SOL    HW153900  12.870   6.873  13.507
84001SOL    HW253901  12.919   6.872  13.364
84002SOL     OW53902   5.511  14.166  11.284
84002SOL    HW153903   5.586  14.113  11.312
84002SOL    HW253904   5.478  14.205  11.365
84003SOL     OW53905   0.764   3.532  14.563
84003SOL    HW153906   0.774   3.529  14.658
84003SOL    HW253907   0.683   3.582  14.549
84004SOL     OW53908  12.498   7.889   5.507
84004SOL    HW153909  12.433   7.904   5.438
84004SOL    HW253910  12.582   7.912   5.467
84005SOL     OW53911   1.150   1.294   0.215
84005SOL    HW153912   1.139   1.293   0.120
84005SOL    HW253913   1.232   1.341   0.229
84006SOL     OW53914   1.745   1.530  10.922
84006SOL    HW153915   1.796   1.608  10.944
84006SOL    HW253916   1.666   1.537  10.976
84007SOL     OW53917   1.322   6.178   5.710
84007SOL    HW153918   1.385   6.161   5.780
84007SOL    HW253919   1.315   6.273   5.707
84008SOL     OW53920   0.078  13.237   9.295
84008SOL    HW153921   0.123  13.261   9.214
84008SOL    HW253922   0.082  13.316   9.349
84009SOL     OW53923   7.358   8.958   3.615
84009SOL    HW153924   7.289   9.011   3.577
84009SOL    HW253925   7.327   8.868   3.607
84010SOL     OW53926  11.095   8.364  13.214
84010SOL    HW153927  11.039   8.335  13.141
84010SOL    HW253928  11.100   8.459  13.204
84011SOL     OW53929  12.539   0.617  14.181
84011SOL    HW153930  12.478   0.657  14.243
84011SOL    HW253931  12.567   0.536  14.223
84012SOL     OW53932  13.118   6.207  10.468
84012SOL    HW153933  13.155   6.121  10.448
84012SOL    HW253934  13.081   6.237  10.384
84013SOL     OW53935  12.668   2.830   4.874
84013SOL    HW153936  12.646   2.856   4.785
84013SOL    HW253937  12.718   2.904   4.909
84014SOL     OW53938   8.288   5.502   2.122
84014SOL    HW153939   8.249   5.433   2.175
84014SOL    HW253940   8.331   5.560   2.185
84015SOL     OW53941   5.236   1.820   7.129
84015SOL    HW153942   5.195   1.826   7.042
84015SOL    HW253943   5.210   1.735   7.162
84016SOL     OW53944   2.798  12.485   3.398
84016SOL    HW153945   2.809  12.573   3.362
84016SOL    HW253946   2.708  12.484   3.432
84017SOL     OW53947   8.071   5.675   6.904
84017SOL    HW153948   8.045   5.622   6.829
84017SOL    HW253949   8.062   5.616   6.979
84018SOL     OW53950   7.132  10.430   1.609
84018SOL    HW153951   7.136  10.522   1.636
84018SOL    HW253952   7.157  10.432   1.516
84019SOL     OW53953   2.838  12.171  10.197
84019SOL    HW153954   2.771  12.134  10.140
84019SOL    HW253955   2.874  12.096  10.244
84020SOL     OW53956   2.421   6.900   8.622
84020SOL    HW153957   2.370   6.895   8.542
84020SOL    HW253958   2.377   6.840   8.683
84021SOL     OW53959  14.238  13.606   4.483
84021SOL    HW153960  14.224  13.529   4.429
84021SOL    HW253961  14.221  13.577   4.572
84022SOL     OW53962  12.286   2.287  10.240
84022SOL    HW153963  12.269   2.226  10.312
84022SOL    HW253964  12.378   2.314  10.252
84023SOL     OW53965   5.600   2.427  13.510
84023SOL    HW153966   5.694   2.435  13.521
84023SOL    HW253967   5.565   2.429  13.599
84024SOL     OW53968   1.125   1.635   1.317
84024SOL    HW153969   1.195   1.699   1.333
84024SOL    HW253970   1.083   1.624   1.402
84025SOL     OW53971  10.144   6.558  14.752
84025SOL    HW153972  10.230   6.599  14.748
84025SOL    HW253973  10.084   6.624  14.717
84026SOL     OW53974  12.847   1.606   8.454
84026SOL    HW153975  12.928   1.632   8.411
84026SOL    HW253976  12.866   1.612   8.547
84027SOL     OW53977   8.658  10.673   6.942
84027SOL    HW153978   8.747  10.694   6.970
84027SOL    HW253979   8.637  10.590   6.985
84028SOL     OW53980  10.500   4.531   3.858
84028SOL    HW153981  10.548   4.592   3.802
84028SOL    HW253982  10.522   4.557   3.948
84029SOL     OW53983   0.730  13.986   1.011
84029SOL    HW153984   0.793  13.943   0.954
84029SOL    HW253985   0.715  13.924   1.082
84030SOL     OW53986  10.626   5.243  12.868
84030SOL    HW153987  10.690   5.260  12.937
84030SOL    HW253988  10.598   5.152  12.883
84031SOL     OW53989  14.207   0.251   0.241
84031SOL    HW153990  14.127   0.302   0.255
84031SOL    HW253991  14.238   0.230   0.330
84032SOL     OW53992   6.902   6.342  10.710
84032SOL    HW153993   6.966   6.316  10.645
84032SOL    HW253994   6.909   6.438  10.713
84033SOL     OW53995   9.364  10.230   9.557
84033SOL    HW153996   9.352  10.307   9.501
84033SOL    HW253997   9.279  10.219   9.601
84034SOL     OW53998   1.056   7.974   6.409
84034SOL    HW153999   1.041   7.882   6.431
84034SOL    HW254000   1.016   7.984   6.323
84035SOL     OW54001  12.097   9.822  12.798
84035SOL    HW154002  12.043   9.899  12.782
84035SOL    HW254003  12.103   9.779  12.713
84036SOL     OW54004  13.459  13.238   8.105
84036SOL    HW154005  13.378  13.191   8.085
84036SOL    HW254006  13.519  13.170   8.137
84037SOL     OW54007   8.683   2.374   2.644
84037SOL    HW154008   8.616   2.310   2.619
84037SOL    HW254009   8.644   2.422   2.717
84038SOL     OW54010   9.732  14.212   0.489
84038SOL    HW154011   9.716  14.118   0.491
84038SOL    HW254012   9.732  14.238   0.581
84039SOL     OW54013   7.931   6.730  12.814
84039SOL    HW154014   7.988   6.799  12.782
84039SOL    HW254015   7.863   6.776  12.863
84040SOL     OW54016  10.963  12.590  11.998
84040SOL    HW154017  10.999  12.644  12.069
84040SOL    HW254018  11.036  12.533  11.972
84041SOL     OW54019  11.889   1.796   9.450
84041SOL    HW154020  11.803   1.771   9.414
84041SOL    HW254021  11.952   1.757   9.390
84042SOL     OW54022   4.395   9.243   3.097
84042SOL    HW154023   4.421   9.165   3.147
84042SOL    HW254024   4.308   9.222   3.064
84043SOL     OW54025  10.786   2.222   1.675
84043SOL    HW154026  10.836   2.216   1.756
84043SOL    HW254027  10.710   2.165   1.689
84044SOL     OW54028   1.848   8.371   2.321
84044SOL    HW154029   1.848   8.280   2.291
84044SOL    HW254030   1.916   8.374   2.388
84045SOL     OW54031   8.691  13.132   0.454
84045SOL    HW154032   8.748  13.188   0.401
84045SOL    HW254033   8.747  13.098   0.523
84046SOL     OW54034   9.082   3.557   4.118
84046SOL    HW154035   9.040   3.549   4.203
84046SOL    HW254036   9.174   3.532   4.133
84047SOL     OW54037   5.496   5.365   5.501
84047SOL    HW154038   5.443   5.303   5.551
84047SOL    HW254039   5.583   5.361   5.542
84048SOL     OW54040   2.418   3.699  12.923
84048SOL    HW154041   2.486   3.631  12.928
84048SOL    HW254042   2.391   3.699  12.831
84049SOL     OW54043   2.846   6.634   6.298
84049SOL    HW154044   2.910   6.696   6.333
84049SOL    HW254045   2.815   6.674   6.217
84050SOL     OW54046   9.934  13.080   5.827
84050SOL    HW154047   9.959  12.988   5.813
84050SOL    HW254048   9.901  13.083   5.917
84051SOL     OW54049  11.654   6.134   9.034
84051SOL    HW154050  11.610   6.195   9.093
84051SOL    HW254051  11.659   6.052   9.083
84052SOL     OW54052  11.735   3.614   1.169
84052SOL    HW154053  11.803   3.623   1.235
84052SOL    HW254054  11.654   3.637   1.215
84053SOL     OW54055   4.347  14.145  11.921
84053SOL    HW154056   4.346  14.225  11.869
84053SOL    HW254057   4.429  14.102  11.898
84054SOL     OW54058  12.531  10.958   8.831
84054SOL    HW154059  12.487  10.980   8.913
84054SOL    HW254060  12.584  11.035   8.810
84055SOL     OW54061   9.875  11.714   9.945
84055SOL    HW154062   9.911  11.653   9.880
84055SOL    HW254063   9.915  11.798   9.925
84056SOL     OW54064   5.777   7.635  10.253
84056SOL    HW154065   5.703   7.614  10.197
84056SOL    HW254066   5.854   7.615  10.199
84057SOL     OW54067   2.632  13.301   3.335
84057SOL    HW154068   2.655  13.394   3.345
84057SOL    HW254069   2.634  13.286   3.240
84058SOL     OW54070   4.022   4.047  10.960
84058SOL    HW154071   3.927   4.060  10.954
84058SOL    HW254072   4.034   3.953  10.945
84059SOL     OW54073   0.895   3.604   1.775
84059SOL    HW154074   0.876   3.510   1.780
84059SOL    HW254075   0.812   3.644   1.750
84060SOL     OW54076   9.536   3.765  10.250
84060SOL    HW154077   9.541   3.840  10.309
84060SOL    HW254078   9.466   3.711  10.286
84061SOL     OW54079  11.458   1.664   0.388
84061SOL    HW154080  11.540   1.657   0.338
84061SOL    HW254081  11.396   1.702   0.327
84062SOL     OW54082  10.000  12.123   7.881
84062SOL    HW154083  10.068  12.057   7.896
84062SOL    HW254084   9.946  12.121   7.960
84063SOL     OW54085  12.011   8.327  13.361
84063SOL    HW154086  12.022   8.334  13.267
84063SOL    HW254087  11.919   8.301  13.373
84064SOL     OW54088   8.643   7.380  12.615
84064SOL    HW154089   8.591   7.370  12.695
84064SOL    HW254090   8.579   7.389  12.545
84065SOL     OW54091  11.598  13.913   3.384
84065SOL    HW154092  11.635  13.946   3.302
84065SOL    HW254093  11.644  13.830   3.399
84066SOL     OW54094  12.730   7.679   7.458
84066SOL    HW154095  12.818   7.702   7.487
84066SOL    HW254096  12.743   7.605   7.398
84067SOL     OW54097  11.328   0.828   2.389
84067SOL    HW154098  11.403   0.824   2.331
84067SOL    HW254099  11.289   0.740   2.383
84068SOL     OW54100   9.418   0.846   3.859
84068SOL    HW154101   9.426   0.940   3.849
84068SOL    HW254102   9.343   0.834   3.917
84069SOL     OW54103   3.623   5.489  11.048
84069SOL    HW154104   3.560   5.547  11.090
84069SOL    HW254105   3.602   5.495  10.954
84070SOL     OW54106   9.792   0.807   2.210
84070SOL    HW154107   9.729   0.830   2.142
84070SOL    HW254108   9.813   0.715   2.194
84071SOL     OW54109   4.046  10.428   8.313
84071SOL    HW154110   4.123  10.431   8.369
84071SOL    HW254111   4.079  10.450   8.225
84072SOL     OW54112   6.561   9.974  14.822
84072SOL    HW154113   6.618   9.922   0.004
84072SOL    HW254114   6.560  10.061  14.862
84073SOL     OW54115   4.887   8.817   7.446
84073SOL    HW154116   4.974   8.793   7.413
84073SOL    HW254117   4.834   8.829   7.368
84074SOL     OW54118  14.826  11.060  10.557
84074SOL    HW154119  14.866  11.075  10.643
84074SOL    HW254120   0.011  11.103  10.496
84075SOL     OW54121  13.514   8.511  12.336
84075SOL    HW154122  13.434   8.457  12.333
84075SOL    HW254123  13.581   8.456  12.296
84076SOL     OW54124   3.654   6.129   0.018
84076SOL    HW154125   3.644   6.047  14.844
84076SOL    HW254126   3.658   6.197  14.825
84077SOL     OW54127   6.277   3.301   7.616
84077SOL    HW154128   6.363   3.260   7.629
84077SOL    HW254129   6.296   3.394   7.604
84078SOL     OW54130   8.474   9.231  14.368
84078SOL    HW154131   8.477   9.305  14.428
84078SOL    HW254132   8.435   9.160  14.419
84079SOL     OW54133   9.291   7.539   7.687
84079SOL    HW154134   9.381   7.563   7.710
84079SOL    HW254135   9.300   7.466   7.626
84080SOL     OW54136  11.133   5.146  11.406
84080SOL    HW154137  11.103   5.059  11.432
84080SOL    HW254138  11.086   5.163  11.324
84081SOL     OW54139   8.478   6.672   0.466
84081SOL    HW154140   8.444   6.629   0.544
84081SOL    HW254141   8.500   6.761   0.494
84082SOL     OW54142   8.532  10.845   6.512
84082SOL    HW154143   8.502  10.784   6.445
84082SOL    HW254144   8.546  10.928   6.466
84083SOL     OW54145  13.849   0.637  12.802
84083SOL    HW154146  13.813   0.581  12.870
84083SOL    HW254147  13.871   0.719  12.847
84084SOL     OW54148  10.312   1.919   0.265
84084SOL    HW154149  10.382   1.938   0.327
84084SOL    HW254150  10.289   2.004   0.227
84085SOL     OW54151   9.506  10.774   6.585
84085SOL    HW154152   9.457  10.844   6.542
84085SOL    HW254153   9.492  10.788   6.678
84086SOL     OW54154   5.608  10.606  11.555
84086SOL    HW154155   5.644  10.557  11.629
84086SOL    HW254156   5.552  10.543  11.509
84087SOL     OW54157  12.875   9.793  12.271
84087SOL    HW154158  12.938   9.866  12.262
84087SOL    HW254159  12.848   9.796  12.363
84088SOL     OW54160   7.638   6.526   7.283
84088SOL    HW154161   7.619   6.614   7.250
84088SOL    HW254162   7.650   6.473   7.204
84089SOL     OW54163   7.416   1.293   7.303
84089SOL    HW154164   7.401   1.230   7.233
84089SOL    HW254165   7.453   1.241   7.375
84090SOL     OW54166   5.741   6.045   2.656
84090SOL    HW154167   5.806   6.002   2.712
84090SOL    HW254168   5.720   5.980   2.589
84091SOL     OW54169   8.997   7.667  12.826
84091SOL    HW154170   8.908   7.634  12.841
84091SOL    HW254171   9.040   7.596  12.778
84092SOL     OW54172  10.632   0.650   8.424
84092SOL    HW154173  10.643   0.683   8.513
84092SOL    HW254174  10.721   0.639   8.392
84093SOL     OW54175   8.827   0.371   2.279
84093SOL    HW154176   8.833   0.465   2.261
84093SOL    HW254177   8.795   0.367   2.370
84094SOL     OW54178   9.520   7.928   3.403
84094SOL    HW154179   9.439   7.878   3.395
84094SOL    HW254180   9.497   8.002   3.460
84095SOL     OW54181   5.438   8.735   2.122
84095SOL    HW154182   5.386   8.790   2.180
84095SOL    HW254183   5.441   8.650   2.166
84096SOL     OW54184   0.088   6.837   3.782
84096SOL    HW154185   0.044   6.898   3.841
84096SOL    HW254186   0.151   6.891   3.734
84097SOL     OW54187   3.861   8.547   5.648
84097SOL    HW154188   3.839   8.454   5.651
84097SOL    HW254189   3.897   8.560   5.560
84098SOL     OW54190   4.541  14.291   4.323
84098SOL    HW154191   4.506  14.379   4.334
84098SOL    HW254192   4.468  14.233   4.343
84099SOL     OW54193   3.407  10.606   5.429
84099SOL    HW154194   3.408  10.560   5.345
84099SOL    HW254195   3.417  10.536   5.495
84100SOL     OW54196  12.920  13.609  10.016
84100SOL    HW154197  12.851  13.545  10.031
84100SOL    HW254198  12.995  13.557   9.987
84101SOL     OW54199   6.372   2.832   3.307
84101SOL    HW154200   6.365   2.918   3.348
84101SOL    HW254201   6.466   2.813   3.306
84102SOL     OW54202   8.925   8.495  13.911
84102SOL    HW154203   8.893   8.480  14.000
84102SOL    HW254204   9.016   8.466  13.912
84103SOL     OW54205   1.747   9.322   5.040
84103SOL    HW154206   1.759   9.406   4.996
84103SOL    HW254207   1.654   9.302   5.028
84104SOL     OW54208   3.632  12.938  11.507
84104SOL    HW154209   3.676  13.003  11.562
84104SOL    HW254210   3.671  12.855  11.532
84105SOL     OW54211   0.665  12.361  12.140
84105SOL    HW154212   0.714  12.311  12.206
84105SOL    HW254213   0.720  12.358  12.062
84106SOL     OW54214  14.328   6.367   3.936
84106SOL    HW154215  14.365   6.425   4.002
84106SOL    HW254216  14.359   6.279   3.960
84107SOL     OW54217   5.055  13.384   7.894
84107SOL    HW154218   5.081  13.351   7.809
84107SOL    HW254219   5.045  13.479   7.881
84108SOL     OW54220   5.496   8.655   7.738
84108SOL    HW154221   5.401   8.666   7.730
84108SOL    HW254222   5.527   8.646   7.648
84109SOL     OW54223  13.164   5.195  11.621
84109SOL    HW154224  13.097   5.159  11.680
84109SOL    HW254225  13.114   5.237  11.551
84110SOL     OW54226  12.218  14.727   5.222
84110SOL    HW154227  12.257  14.656   5.273
84110SOL    HW254228  12.137  14.690   5.188
84111SOL     OW54229  14.316   4.703  13.294
84111SOL    HW154230  14.310   4.608  13.286
84111SOL    HW254231  14.385   4.728  13.232
84112SOL     OW54232  11.472   1.848  13.838
84112SOL    HW154233  11.390   1.801  13.854
84112SOL    HW254234  11.540   1.781  13.846
84113SOL     OW54235   9.615   4.706  10.299
84113SOL    HW154236   9.689   4.768  10.298
84113SOL    HW254237   9.611   4.672  10.210
84114SOL     OW54238   3.785   9.719   7.436
84114SOL    HW154239   3.838   9.746   7.511
84114SOL    HW254240   3.741   9.639   7.465
84115SOL     OW54241   7.319   1.031   1.923
84115SOL    HW154242   7.317   1.022   2.019
84115SOL    HW254243   7.379   1.103   1.907
84116SOL     OW54244   1.562   3.067  11.793
84116SOL    HW154245   1.533   3.153  11.823
84116SOL    HW254246   1.601   3.026  11.870
84117SOL     OW54247  13.123   2.981   6.456
84117SOL    HW154248  13.188   2.912   6.444
84117SOL    HW254249  13.168   3.047   6.509
84118SOL     OW54250   6.085   4.191   8.359
84118SOL    HW154251   6.124   4.232   8.436
84118SOL    HW254252   6.144   4.213   8.287
84119SOL     OW54253  10.808   9.732  10.679
84119SOL    HW154254  10.796   9.826  10.668
84119SOL    HW254255  10.780   9.695  10.595
84120SOL     OW54256   6.156  11.714  12.552
84120SOL    HW154257   6.106  11.681  12.627
84120SOL    HW254258   6.248  11.704  12.577
84121SOL     OW54259   0.974  11.832  10.372
84121SOL    HW154260   1.005  11.839  10.282
84121SOL    HW254261   0.924  11.913  10.386
84122SOL     OW54262   1.766   1.186   3.205
84122SOL    HW154263   1.720   1.239   3.140
84122SOL    HW254264   1.790   1.249   3.274
84123SOL     OW54265  11.040   4.927   8.240
84123SOL    HW154266  11.016   4.943   8.331
84123SOL    HW254267  10.977   4.977   8.189
84124SOL     OW54268   3.370  10.523   6.545
84124SOL    HW154269   3.395  10.531   6.453
84124SOL    HW254270   3.408  10.440   6.573
84125SOL     OW54271  12.239   6.803   5.181
84125SOL    HW154272  12.299   6.788   5.254
84125SOL    HW254273  12.174   6.733   5.187
84126SOL     OW54274   9.111   6.705  14.067
84126SOL    HW154275   9.104   6.719  14.161
84126SOL    HW254276   9.198   6.738  14.044
84127SOL     OW54277   2.768   3.793  14.573
84127SOL    HW154278   2.701   3.853  14.542
84127SOL    HW254279   2.849   3.823  14.531
84128SOL     OW54280  13.445  13.930  12.453
84128SOL    HW154281  13.437  14.018  12.489
84128SOL    HW254282  13.376  13.925  12.387
84129SOL     OW54283  14.792   0.407   1.614
84129SOL    HW154284  14.827   0.330   1.659
84129SOL    HW254285  14.822   0.481   1.667
84130SOL     OW54286   2.331  12.404   5.490
84130SOL    HW154287   2.359  12.346   5.561
84130SOL    HW254288   2.302  12.344   5.421
84131SOL     OW54289   2.057   5.824  10.203
84131SOL    HW154290   2.079   5.847  10.293
84131SOL    HW254291   2.111   5.747  10.184
84132SOL     OW54292   1.660   7.298   4.625
84132SOL    HW154293   1.598   7.324   4.556
84132SOL    HW254294   1.729   7.251   4.578
84133SOL     OW54295   2.462   9.389  14.362
84133SOL    HW154296   2.380   9.380  14.410
84133SOL    HW254297   2.438   9.430  14.279
84134SOL     OW54298  14.524   0.141  12.808
84134SOL    HW154299  14.573   0.120  12.728
84134SOL    HW254300  14.450   0.194  12.777
84135SOL     OW54301   0.170   6.550   2.299
84135SOL    HW154302   0.264   6.538   2.311
84135SOL    HW254303   0.152   6.513   2.213
84136SOL     OW54304  10.664   8.132   4.286
84136SOL    HW154305  10.599   8.079   4.332
84136SOL    HW254306  10.736   8.140   4.348
84137SOL     OW54307  10.568   8.495   7.860
84137SOL    HW154308  10.658   8.529   7.856
84137SOL    HW254309  10.532   8.511   7.773
84138SOL     OW54310   4.325   3.744  12.328
84138SOL    HW154311   4.257   3.738  12.396
84138SOL    HW254312   4.407   3.733  12.376
84139SOL     OW54313  10.084   3.971  14.348
84139SOL    HW154314  10.095   3.963  14.443
84139SOL    HW254315  10.010   4.031  14.338
84140SOL     OW54316  14.560   5.331  12.891
84140SOL    HW154317  14.616   5.258  12.863
84140SOL    HW254318  14.618   5.407  12.890
84141SOL     OW54319   3.866   6.931   5.610
84141SOL    HW154320   3.892   6.850   5.565
84141SOL    HW254321   3.775   6.945   5.585
84142SOL     OW54322  12.907   9.428   6.581
84142SOL    HW154323  12.824   9.406   6.539
84142SOL    HW254324  12.941   9.502   6.531
84143SOL     OW54325  10.779   1.036   4.396
84143SOL    HW154326  10.693   1.076   4.411
84143SOL    HW254327  10.760   0.943   4.383
84144SOL     OW54328   7.113   0.044  13.687
84144SOL    HW154329   7.094   0.120  13.743
84144SOL    HW254330   7.207   0.033  13.693
84145SOL     OW54331   6.586   9.265  13.428
84145SOL    HW154332   6.648   9.247  13.498
84145SOL    HW254333   6.626   9.225  13.350
84146SOL     OW54334   5.511   0.646   4.578
84146SOL    HW154335   5.589   0.611   4.622
84146SOL    HW254336   5.438   0.597   4.615
84147SOL     OW54337  12.185   0.371  12.720
84147SOL    HW154338  12.151   0.297  12.770
84147SOL    HW254339  12.235   0.422  12.784
84148SOL     OW54340  13.783   5.188   4.748
84148SOL    HW154341  13.720   5.148   4.809
84148SOL    HW254342  13.756   5.155   4.662
84149SOL     OW54343   9.926   7.871   3.353
84149SOL    HW154344  10.010   7.864   3.309
84149SOL    HW254345   9.937   7.822   3.435
84150SOL     OW54346   8.697   5.404   2.688
84150SOL    HW154347   8.647   5.419   2.768
84150SOL    HW254348   8.782   5.445   2.703
84151SOL     OW54349   0.631  11.848  11.929
84151SOL    HW154350   0.719  11.885  11.932
84151SOL    HW254351   0.634  11.776  11.993
84152SOL     OW54352   1.391   7.918   3.040
84152SOL    HW154353   1.419   7.896   2.951
84152SOL    HW254354   1.454   7.875   3.097
84153SOL     OW54355   5.819  13.515   4.676
84153SOL    HW154356   5.834  13.470   4.594
84153SOL    HW254357   5.800  13.606   4.651
84154SOL     OW54358   4.522   4.880  12.725
84154SOL    HW154359   4.463   4.909  12.794
84154SOL    HW254360   4.485   4.797  12.695
84155SOL     OW54361   0.126  13.246   7.698
84155SOL    HW154362   0.116  13.211   7.787
84155SOL    HW254363   0.208  13.210   7.667
84156SOL     OW54364   6.678   0.373   0.402
84156SOL    HW154365   6.756   0.319   0.390
84156SOL    HW254366   6.685   0.440   0.334
84157SOL     OW54367  13.241   7.324   9.416
84157SOL    HW154368  13.292   7.332   9.497
84157SOL    HW254369  13.290   7.375   9.352
84158SOL     OW54370   5.251   3.138   8.585
84158SOL    HW154371   5.338   3.177   8.586
84158SOL    HW254372   5.266   3.045   8.604
84159SOL     OW54373   2.341  12.695   0.969
84159SOL    HW154374   2.323  12.787   0.951
84159SOL    HW254375   2.343  12.654   0.882
84160SOL     OW54376  11.225  14.136   0.488
84160SOL    HW154377  11.175  14.055   0.488
84160SOL    HW254378  11.203  14.178   0.404
84161SOL     OW54379  13.499  11.826  10.164
84161SOL    HW154380  13.537  11.767  10.229
84161SOL    HW254381  13.502  11.776  10.082
84162SOL     OW54382  10.280   8.354   6.840
84162SOL    HW154383  10.351   8.397   6.887
84162SOL    HW254384  10.290   8.383   6.749
84163SOL     OW54385  11.537  10.573   1.565
84163SOL    HW154386  11.486  10.654   1.564
84163SOL    HW254387  11.620  10.596   1.523
84164SOL     OW54388   3.533  13.064   8.176
84164SOL    HW154389   3.498  13.074   8.088
84164SOL    HW254390   3.579  13.145   8.193
84165SOL     OW54391   7.226   5.510   5.555
84165SOL    HW154392   7.187   5.429   5.590
84165SOL    HW254393   7.240   5.491   5.462
84166SOL     OW54394   7.010  11.322   9.012
84166SOL    HW154395   7.051  11.273   9.083
84166SOL    HW254396   6.960  11.391   9.056
84167SOL     OW54397   2.484   2.598   1.514
84167SOL    HW154398   2.512   2.684   1.482
84167SOL    HW254399   2.549   2.537   1.481
84168SOL     OW54400   5.755   5.315   3.510
84168SOL    HW154401   5.827   5.340   3.567
84168SOL    HW254402   5.703   5.396   3.501
84169SOL     OW54403  11.820   0.106   7.350
84169SOL    HW154404  11.890   0.070   7.295
84169SOL    HW254405  11.805   0.194   7.316
84170SOL     OW54406   5.142   9.361   1.193
84170SOL    HW154407   5.183   9.306   1.125
84170SOL    HW254408   5.116   9.299   1.260
84171SOL     OW54409   5.710   7.997   1.734
84171SOL    HW154410   5.806   7.992   1.740
84171SOL    HW254411   5.682   8.017   1.823
84172SOL     OW54412  13.042   5.330   3.971
84172SOL    HW154413  13.016   5.240   3.989
84172SOL    HW254414  13.030   5.340   3.876
84173SOL     OW54415   6.617  14.478   1.412
84173SOL    HW154416   6.532  14.507   1.445
84173SOL    HW254417   6.675  14.484   1.488
84174SOL     OW54418  11.821   6.696  12.070
84174SOL    HW154419  11.908   6.683  12.032
84174SOL    HW254420  11.762   6.700  11.995
84175SOL     OW54421   3.637  12.544   7.503
84175SOL    HW154422   3.606  12.630   7.474
84175SOL    HW254423   3.565  12.509   7.555
84176SOL     OW54424  13.546   7.938   8.333
84176SOL    HW154425  13.517   7.946   8.242
84176SOL    HW254426  13.641   7.928   8.328
84177SOL     OW54427   9.447   6.653   5.179
84177SOL    HW154428   9.366   6.603   5.186
84177SOL    HW254429   9.516   6.587   5.181
84178SOL     OW54430   6.589   0.419  12.799
84178SOL    HW154431   6.495   0.413  12.817
84178SOL    HW254432   6.610   0.337  12.754
84179SOL     OW54433   5.020   0.119   0.012
84179SOL    HW154434   4.967   0.192   0.045
84179SOL    HW254435   4.972   0.087  14.811
84180SOL     OW54436  14.491   8.236   5.320
84180SOL    HW154437  14.417   8.294   5.298
84180SOL    HW254438  14.499   8.179   5.244
84181SOL     OW54439   7.863   6.156   4.424
84181SOL    HW154440   7.858   6.215   4.348
84181SOL    HW254441   7.837   6.211   4.498
84182SOL     OW54442   2.939   6.696   1.501
84182SOL    HW154443   2.860   6.674   1.452
84182SOL    HW254444   2.993   6.745   1.439
84183SOL     OW54445   3.893  14.793   1.514
84183SOL    HW154446   3.944  14.852   1.570
84183SOL    HW254447   3.876  14.716   1.568
84184SOL     OW54448  13.656   7.955   7.843
84184SOL    HW154449  13.718   8.024   7.820
84184SOL    HW254450  13.593   7.955   7.771
84185SOL     OW54451  14.235   0.400  11.574
84185SOL    HW154452  14.300   0.432  11.511
84185SOL    HW254453  14.282   0.394  11.656
84186SOL     OW54454   6.740   9.535  14.817
84186SOL    HW154455   6.786   9.575  14.743
84186SOL    HW254456   6.689   9.464  14.778
84187SOL     OW54457  10.649   0.410  14.231
84187SOL    HW154458  10.583   0.346  14.204
84187SOL    HW254459  10.603   0.468  14.291
84188SOL     OW54460   6.634   5.568   7.925
84188SOL    HW154461   6.722   5.541   7.900
84188SOL    HW254462   6.645   5.608   8.012
84189SOL     OW54463  13.814   9.947   8.150
84189SOL    HW154464  13.801   9.974   8.241
84189SOL    HW254465  13.725   9.941   8.114
84190SOL     OW54466   5.253  12.227   4.579
84190SOL    HW154467   5.319  12.167   4.614
84190SOL    HW254468   5.170  12.196   4.615
84191SOL     OW54469   1.335  12.837  12.794
84191SOL    HW154470   1.360  12.753  12.832
84191SOL    HW254471   1.399  12.851  12.723
84192SOL     OW54472   5.099   5.207  11.662
84192SOL    HW154473   5.042   5.133  11.644
84192SOL    HW254474   5.119   5.244  11.576
84193SOL     OW54475  12.021  11.201   9.307
84193SOL    HW154476  12.013  11.106   9.298
84193SOL    HW254477  11.956  11.225   9.373
84194SOL     OW54478  12.464  11.785   2.184
84194SOL    HW154479  12.458  11.723   2.257
84194SOL    HW254480  12.505  11.863   2.222
84195SOL     OW54481   5.294  11.115   8.812
84195SOL    HW154482   5.303  11.062   8.891
84195SOL    HW254483   5.263  11.053   8.746
84196SOL     OW54484  14.567   3.168   6.148
84196SOL    HW154485  14.580   3.101   6.081
84196SOL    HW254486  14.618   3.242   6.119
84197SOL     OW54487   3.326   6.550   3.948
84197SOL    HW154488   3.382   6.516   4.019
84197SOL    HW254489   3.367   6.518   3.868
84198SOL     OW54490  14.719   4.855   9.111
84198SOL    HW154491  14.701   4.939   9.068
84198SOL    HW254492  14.808   4.832   9.083
84199SOL     OW54493   3.667   5.896  13.959
84199SOL    HW154494   3.655   5.837  14.033
84199SOL    HW254495   3.756   5.930  13.969
84200SOL     OW54496  11.552   5.418   6.245
84200SOL    HW154497  11.616   5.489   6.237
84200SOL    HW254498  11.583   5.351   6.185
84201SOL     OW54499   0.946  12.702   3.828
84201SOL    HW154500   0.917  12.711   3.918
84201SOL    HW254501   0.968  12.792   3.801
84202SOL     OW54502   8.188   5.506   5.669
84202SOL    HW154503   8.164   5.426   5.717
84202SOL    HW254504   8.185   5.480   5.577
84203SOL     OW54505  14.139   3.316   2.274
84203SOL    HW154506  14.074   3.377   2.239
84203SOL    HW254507  14.135   3.328   2.369
84204SOL     OW54508   6.736  14.496   7.641
84204SOL    HW154509   6.813  14.474   7.693
84204SOL    HW254510   6.758  14.579   7.599
84205SOL     OW54511   0.452   9.077   2.976
84205SOL    HW154512   0.441   9.051   2.884
84205SOL    HW254513   0.535   9.037   3.002
84206SOL     OW54514  13.641   8.467   8.321
84206SOL    HW154515  13.714   8.513   8.279
84206SOL    HW254516  13.568   8.478   8.260
84207SOL     OW54517   5.430  12.892  10.099
84207SOL    HW154518   5.389  12.865  10.017
84207SOL    HW254519   5.393  12.833  10.164
84208SOL     OW54520   0.824  10.694  11.135
84208SOL    HW154521   0.817  10.711  11.040
84208SOL    HW254522   0.753  10.745  11.173
84209SOL     OW54523  10.884   7.919  10.665
84209SOL    HW154524  10.976   7.896  10.658
84209SOL    HW254525  10.839   7.850  10.616
84210SOL     OW54526   4.468   5.583   2.019
84210SOL    HW154527   4.553   5.546   2.042
84210SOL    HW254528   4.476   5.608   1.927
84211SOL     OW54529   3.543   9.929   9.275
84211SOL    HW154530   3.632   9.930   9.311
84211SOL    HW254531   3.507  10.015   9.297
84212SOL     OW54532   3.828   8.417  12.948
84212SOL    HW154533   3.766   8.392  12.880
84212SOL    HW254534   3.897   8.464  12.901
84213SOL     OW54535   3.371   8.575   3.867
84213SOL    HW154536   3.412   8.659   3.886
84213SOL    HW254537   3.301   8.568   3.931
84214SOL     OW54538   4.192   5.586  14.379
84214SOL    HW154539   4.273   5.586  14.329
84214SOL    HW254540   4.123   5.585  14.313
84215SOL     OW54541  10.896   3.676   1.805
84215SOL    HW154542  10.848   3.752   1.771
84215SOL    HW254543  10.867   3.603   1.750
84216SOL     OW54544   3.332  13.756  14.689
84216SOL    HW154545   3.413  13.707  14.703
84216SOL    HW254546   3.346  13.806  14.609
84217SOL     OW54547   5.906  14.000   6.320
84217SOL    HW154548   5.848  13.946   6.266
84217SOL    HW254549   5.870  14.088   6.312
84218SOL     OW54550   2.002  11.362   7.120
84218SOL    HW154551   2.000  11.363   7.216
84218SOL    HW254552   1.910  11.359   7.094
84219SOL     OW54553   2.923   5.725   3.191
84219SOL    HW154554   2.946   5.635   3.215
84219SOL    HW254555   2.871   5.715   3.111
84220SOL     OW54556   3.416   0.967   9.660
84220SOL    HW154557   3.392   0.902   9.726
84220SOL    HW254558   3.457   0.916   9.590
84221SOL     OW54559   3.163   2.183   3.291
84221SOL    HW154560   3.110   2.198   3.369
84221SOL    HW254561   3.120   2.234   3.222
84222SOL     OW54562  13.233   4.838  13.492
84222SOL    HW154563  13.194   4.897  13.557
84222SOL    HW254564  13.237   4.891  13.412
84223SOL     OW54565   2.270  14.739   7.024
84223SOL    HW154566   2.344  14.690   7.061
84223SOL    HW254567   2.194  14.682   7.039
84224SOL     OW54568   4.387   2.620   0.458
84224SOL    HW154569   4.438   2.634   0.378
84224SOL    HW254570   4.448   2.576   0.517
84225SOL     OW54571   4.389  13.882   4.956
84225SOL    HW154572   4.442  13.949   4.998
84225SOL    HW254573   4.342  13.839   5.027
84226SOL     OW54574   3.787  12.631   2.803
84226SOL    HW154575   3.871  12.589   2.784
84226SOL    HW254576   3.738  12.624   2.721
84227SOL     OW54577   5.726   3.849   9.858
84227SOL    HW154578   5.807   3.893   9.833
84227SOL    HW254579   5.733   3.761   9.819
84228SOL     OW54580   7.080   4.205  11.082
84228SOL    HW154581   7.050   4.154  11.158
84228SOL    HW254582   7.109   4.139  11.019
84229SOL     OW54583  12.037   2.668  14.467
84229SOL    HW154584  12.057   2.736  14.531
84229SOL    HW254585  11.942   2.664  14.465
84230SOL     OW54586  12.759  12.906  14.690
84230SOL    HW154587  12.854  12.894  14.685
84230SOL    HW254588  12.737  12.957  14.612
84231SOL     OW54589   8.641   7.046   0.299
84231SOL    HW154590   8.609   6.974   0.245
84231SOL    HW254591   8.731   7.060   0.269
84232SOL     OW54592   8.888   7.836   9.060
84232SOL    HW154593   8.903   7.792   9.144
84232SOL    HW254594   8.805   7.801   9.029
84233SOL     OW54595   3.731   0.334   9.500
84233SOL    HW154596   3.719   0.429   9.498
84233SOL    HW254597   3.688   0.304   9.420
84234SOL     OW54598   3.113  10.179   1.916
84234SOL    HW154599   3.145  10.234   1.987
84234SOL    HW254600   3.021  10.204   1.906
84235SOL     OW54601   7.853  11.518   6.745
84235SOL    HW154602   7.873  11.578   6.673
84235SOL    HW254603   7.845  11.574   6.822
84236SOL     OW54604   9.999  11.495   5.441
84236SOL    HW154605  10.005  11.461   5.352
84236SOL    HW254606  10.086  11.480   5.478
84237SOL     OW54607   8.031  14.531  12.917
84237SOL    HW154608   8.080  14.471  12.862
84237SOL    HW254609   7.989  14.475  12.982
84238SOL     OW54610   7.088   9.067  14.008
84238SOL    HW154611   7.160   9.036  13.954
84238SOL    HW254612   7.121   9.148  14.047
84239SOL     OW54613  12.341   4.942   4.531
84239SOL    HW154614  12.340   4.895   4.615
84239SOL    HW254615  12.430   4.976   4.524
84240SOL     OW54616  13.705  11.297   9.081
84240SOL    HW154617  13.697  11.324   8.990
84240SOL    HW254618  13.668  11.370   9.131
84241SOL     OW54619  13.093   5.386  12.344
84241SOL    HW154620  13.063   5.296  12.358
84241SOL    HW254621  13.178   5.376  12.300
84242SOL     OW54622   2.598   5.227   9.785
84242SOL    HW154623   2.681   5.274   9.771
84242SOL    HW254624   2.615   5.172   9.862
84243SOL     OW54625   5.537   4.867   0.919
84243SOL    HW154626   5.576   4.779   0.924
84243SOL    HW254627   5.613   4.926   0.911
84244SOL     OW54628   4.842   9.556  12.522
84244SOL    HW154629   4.777   9.623  12.501
84244SOL    HW254630   4.923   9.605  12.536
84245SOL     OW54631   4.043   2.175   7.772
84245SOL    HW154632   4.115   2.231   7.743
84245SOL    HW254633   4.069   2.145   7.859
84246SOL     OW54634   5.088   5.011  12.515
84246SOL    HW154635   5.068   5.104  12.525
84246SOL    HW254636   5.080   4.975  12.603
84247SOL     OW54637   8.842  13.100   7.165
84247SOL    HW154638   8.905  13.172   7.152
84247SOL    HW254639   8.801  13.120   7.249
84248SOL     OW54640   1.523   9.409  13.324
84248SOL    HW154641   1.437   9.425  13.284
84248SOL    HW254642   1.521   9.462  13.404
84249SOL     OW54643   4.731   6.465  11.980
84249SOL    HW154644   4.782   6.539  11.947
84249SOL    HW254645   4.795   6.394  11.989
84250SOL     OW54646  10.909   0.337  12.783
84250SOL    HW154647  10.948   0.402  12.725
84250SOL    HW254648  10.980   0.311  12.841
84251SOL     OW54649  11.610  12.075  11.625
84251SOL    HW154650  11.589  12.130  11.700
84251SOL    HW254651  11.555  12.108  11.555
84252SOL     OW54652  11.146   8.626  12.505
84252SOL    HW154653  11.185   8.592  12.425
84252SOL    HW254654  11.094   8.553  12.540
84253SOL     OW54655  12.075   2.762   6.341
84253SOL    HW154656  12.131   2.825   6.387
84253SOL    HW254657  12.100   2.771   6.249
84254SOL     OW54658   2.261   5.916   3.845
84254SOL    HW154659   2.199   5.847   3.873
84254SOL    HW254660   2.210   5.997   3.850
84255SOL     OW54661   0.676   7.699   5.272
84255SOL    HW154662   0.655   7.700   5.365
84255SOL    HW254663   0.677   7.606   5.249
84256SOL     OW54664  12.622   0.463  13.478
84256SOL    HW154665  12.702   0.511  13.500
84256SOL    HW254666  12.552   0.529  13.485
84257SOL     OW54667   2.569   5.721   2.507
84257SOL    HW154668   2.576   5.765   2.423
84257SOL    HW254669   2.639   5.759   2.560
84258SOL     OW54670  10.170   4.407   9.022
84258SOL    HW154671  10.151   4.316   8.999
84258SOL    HW254672  10.177   4.452   8.938
84259SOL     OW54673   6.258  14.402   2.407
84259SOL    HW154674   6.305  14.446   2.477
84259SOL    HW254675   6.310  14.324   2.388
84260SOL     OW54676   1.150   3.158  14.092
84260SOL    HW154677   1.245   3.151  14.095
84260SOL    HW254678   1.120   3.107  14.168
84261SOL     OW54679   5.675  12.400   4.772
84261SOL    HW154680   5.635  12.397   4.685
84261SOL    HW254681   5.765  12.370   4.758
84262SOL     OW54682  12.554   6.184  10.466
84262SOL    HW154683  12.528   6.224  10.549
84262SOL    HW254684  12.644   6.155  10.479
84263SOL     OW54685   0.258  10.932   9.693
84263SOL    HW154686   0.243  10.897   9.781
84263SOL    HW254687   0.193  10.889   9.638
84264SOL     OW54688  13.607   4.393  12.402
84264SOL    HW154689  13.581   4.392  12.494
84264SOL    HW254690  13.642   4.305  12.386
84265SOL     OW54691  10.275   0.309   9.002
84265SOL    HW154692  10.298   0.365   9.077
84265SOL    HW254693  10.209   0.359   8.954
84266SOL     OW54694   2.760   4.946  11.615
84266SOL    HW154695   2.774   5.040  11.630
84266SOL    HW254696   2.666   4.933  11.626
84267SOL     OW54697   4.538   0.804   2.798
84267SOL    HW154698   4.521   0.860   2.722
84267SOL    HW254699   4.610   0.747   2.770
84268SOL     OW54700  14.363   3.541   0.238
84268SOL    HW154701  14.365   3.635   0.223
84268SOL    HW254702  14.413   3.528   0.319
84269SOL     OW54703   2.002   1.056  10.079
84269SOL    HW154704   2.063   1.125  10.105
84269SOL    HW254705   1.933   1.058  10.146
84270SOL     OW54706   9.494   3.521  14.381
84270SOL    HW154707   9.422   3.557  14.432
84270SOL    HW254708   9.452   3.466  14.315
84271SOL     OW54709   1.701   2.079   5.361
84271SOL    HW154710   1.737   2.008   5.414
84271SOL    HW254711   1.705   2.156   5.418
84272SOL     OW54712   1.392   4.372  11.765
84272SOL    HW154713   1.465   4.418  11.724
84272SOL    HW254714   1.428   4.338  11.846
84273SOL     OW54715   8.292   9.838   0.378
84273SOL    HW154716   8.284   9.922   0.424
84273SOL    HW254717   8.350   9.786   0.434
84274SOL     OW54718   4.727  12.195   5.652
84274SOL    HW154719   4.751  12.165   5.740
84274SOL    HW254720   4.668  12.128   5.619
84275SOL     OW54721   7.581  14.743  10.197
84275SOL    HW154722   7.493  14.705  10.195
84275SOL    HW254723   7.596  14.765  10.289
84276SOL     OW54724   9.932   4.588  12.363
84276SOL    HW154725  10.017   4.626  12.382
84276SOL    HW254726   9.951   4.501  12.329
84277SOL     OW54727   3.829   7.903   8.913
84277SOL    HW154728   3.868   7.979   8.870
84277SOL    HW254729   3.840   7.921   9.007
84278SOL     OW54730   9.181   3.798  10.607
84278SOL    HW154731   9.248   3.740  10.571
84278SOL    HW254732   9.189   3.787  10.702
84279SOL     OW54733   7.054   4.569  13.095
84279SOL    HW154734   7.126   4.512  13.123
84279SOL    HW254735   7.070   4.584  13.002
84280SOL     OW54736  12.095   2.858   9.527
84280SOL    HW154737  12.151   2.868   9.604
84280SOL    HW254738  12.022   2.804   9.557
84281SOL     OW54739  11.182  13.967   0.127
84281SOL    HW154740  11.266  13.968   0.081
84281SOL    HW254741  11.203  13.935   0.214
84282SOL     OW54742   0.424   1.104  13.146
84282SOL    HW154743   0.499   1.151  13.111
84282SOL    HW254744   0.361   1.101  13.073
84283SOL     OW54745  11.206   0.521   9.453
84283SOL    HW154746  11.281   0.579   9.465
84283SOL    HW254747  11.230   0.441   9.500
84284SOL     OW54748   3.255   7.282   7.825
84284SOL    HW154749   3.329   7.341   7.842
84284SOL    HW254750   3.180   7.326   7.866
84285SOL     OW54751   3.688   8.194   1.616
84285SOL    HW154752   3.668   8.191   1.710
84285SOL    HW254753   3.752   8.123   1.603
84286SOL     OW54754   6.595   1.523  14.352
84286SOL    HW154755   6.566   1.591  14.412
84286SOL    HW254756   6.657   1.567  14.294
84287SOL     OW54757   6.362  11.502  14.824
84287SOL    HW154758   6.371  11.582  14.772
84287SOL    HW254759   6.403  11.434  14.770
84288SOL     OW54760   3.360  13.697  11.430
84288SOL    HW154761   3.295  13.672  11.495
84288SOL    HW254762   3.372  13.619  11.376
84289SOL     OW54763  10.757   6.001   1.784
84289SOL    HW154764  10.770   6.095   1.790
84289SOL    HW254765  10.748   5.972   1.875
84290SOL     OW54766   7.310  13.628   4.585
84290SOL    HW154767   7.228  13.638   4.633
84290SOL    HW254768   7.294  13.671   4.501
84291SOL     OW54769   5.617   5.881   9.026
84291SOL    HW154770   5.650   5.970   9.011
84291SOL    HW254771   5.623   5.869   9.120
84292SOL     OW54772   6.510   5.001   8.694
84292SOL    HW154773   6.483   5.087   8.726
84292SOL    HW254774   6.541   5.016   8.605
84293SOL     OW54775   1.363   2.127   6.578
84293SOL    HW154776   1.357   2.065   6.652
84293SOL    HW254777   1.316   2.205   6.609
84294SOL     OW54778   1.112  12.553  11.943
84294SOL    HW154779   1.052  12.628  11.939
84294SOL    HW254780   1.131  12.534  11.851
84295SOL     OW54781   5.106   7.536  13.206
84295SOL    HW154782   5.067   7.486  13.134
84295SOL    HW254783   5.200   7.527  13.192
84296SOL     OW54784   1.635  11.212   2.113
84296SOL    HW154785   1.719  11.240   2.148
84296SOL    HW254786   1.589  11.173   2.187
84297SOL     OW54787   5.621   5.961  12.768
84297SOL    HW154788   5.670   5.895  12.816
84297SOL    HW254789   5.534   5.959  12.807
84298SOL     OW54790   4.066   6.234  11.283
84298SOL    HW154791   4.053   6.327  11.264
84298SOL    HW254792   4.106   6.199  11.204
84299SOL     OW54793   7.206   0.255   0.790
84299SOL    HW154794   7.125   0.306   0.782
84299SOL    HW254795   7.177   0.170   0.823
84300SOL     OW54796   3.971   9.078   2.396
84300SOL    HW154797   4.019   8.998   2.412
84300SOL    HW254798   3.992   9.134   2.471
84301SOL     OW54799   2.508  11.002   1.005
84301SOL    HW154800   2.504  10.924   0.950
84301SOL    HW254801   2.587  10.990   1.058
84302SOL     OW54802  10.354   4.477  12.887
84302SOL    HW154803  10.365   4.382  12.893
84302SOL    HW254804  10.327   4.492  12.796
84303SOL     OW54805   5.306   8.466   1.116
84303SOL    HW154806   5.303   8.407   1.041
84303SOL    HW254807   5.355   8.542   1.085
84304SOL     OW54808   4.811   7.065   3.575
84304SOL    HW154809   4.837   7.006   3.505
84304SOL    HW254810   4.785   7.145   3.530
84305SOL     OW54811  11.036   9.607   5.467
84305SOL    HW154812  10.947   9.638   5.448
84305SOL    HW254813  11.077   9.680   5.514
84306SOL     OW54814  12.483   4.292  14.051
84306SOL    HW154815  12.458   4.300  14.143
84306SOL    HW254816  12.578   4.298  14.051
84307SOL     OW54817  11.779   4.326   3.430
84307SOL    HW154818  11.723   4.253   3.402
84307SOL    HW254819  11.802   4.371   3.348
84308SOL     OW54820   6.689   5.526   5.173
84308SOL    HW154821   6.763   5.537   5.113
84308SOL    HW254822   6.718   5.458   5.233
84309SOL     OW54823   3.709  10.706   2.935
84309SOL    HW154824   3.650  10.680   3.005
84309SOL    HW254825   3.781  10.751   2.979
84310SOL     OW54826   6.693   4.020   7.730
84310SOL    HW154827   6.615   3.973   7.701
84310SOL    HW254828   6.697   4.005   7.824
84311SOL     OW54829   9.933   5.131   3.698
84311SOL    HW154830  10.004   5.117   3.761
84311SOL    HW254831   9.856   5.093   3.741
84312SOL     OW54832   0.551   7.730   5.832
84312SOL    HW154833   0.504   7.732   5.748
84312SOL    HW254834   0.525   7.811   5.876
84313SOL     OW54835   9.192   4.136   1.232
84313SOL    HW154836   9.096   4.133   1.228
84313SOL    HW254837   9.220   4.119   1.142
84314SOL     OW54838  10.101  10.186   7.135
84314SOL    HW154839  10.069  10.212   7.221
84314SOL    HW254840  10.178  10.241   7.120
84315SOL     OW54841  10.898   3.623   1.002
84315SOL    HW154842  10.960   3.665   0.942
84315SOL    HW254843  10.881   3.688   1.069
84316SOL     OW54844   3.060   6.313   2.239
84316SOL    HW154845   3.138   6.262   2.217
84316SOL    HW254846   3.044   6.293   2.331
84317SOL     OW54847   9.603  10.150  11.532
84317SOL    HW154848   9.690  10.183  11.555
84317SOL    HW254849   9.602  10.151  11.437
84318SOL     OW54850   2.259   9.341   7.847
84318SOL    HW154851   2.257   9.411   7.913
84318SOL    HW254852   2.286   9.385   7.766
84319SOL     OW54853   5.172   1.773  13.574
84319SOL    HW154854   5.120   1.811  13.504
84319SOL    HW254855   5.194   1.847  13.631
84320SOL     OW54856   6.225  11.069   4.895
84320SOL    HW154857   6.320  11.064   4.886
84320SOL    HW254858   6.192  11.004   4.833
84321SOL     OW54859  12.498  14.305   0.784
84321SOL    HW154860  12.424  14.315   0.724
84321SOL    HW254861  12.468  14.242   0.849
84322SOL     OW54862   6.046   0.999   6.137
84322SOL    HW154863   6.093   1.072   6.096
84322SOL    HW254864   6.021   0.943   6.064
84323SOL     OW54865   3.883   1.180   8.751
84323SOL    HW154866   3.888   1.274   8.764
84323SOL    HW254867   3.803   1.153   8.796
84324SOL     OW54868   3.421   2.906  14.848
84324SOL    HW154869   3.488   2.915   0.041
84324SOL    HW254870   3.360   2.842   0.008
84325SOL     OW54871  10.954  10.286  13.094
84325SOL    HW154872  10.971  10.376  13.066
84325SOL    HW254873  10.928  10.294  13.186
84326SOL     OW54874   8.335  14.834  13.034
84326SOL    HW154875   8.325  14.781  13.113
84326SOL    HW254876   8.342  14.771  12.963
84327SOL     OW54877  13.345   8.649   2.185
84327SOL    HW154878  13.281   8.634   2.116
84327SOL    HW254879  13.416   8.696   2.141
84328SOL     OW54880   7.521  10.761   2.754
84328SOL    HW154881   7.512  10.784   2.847
84328SOL    HW254882   7.530  10.666   2.754
84329SOL     OW54883   6.000   7.630   4.756
84329SOL    HW154884   5.964   7.573   4.688
84329SOL    HW254885   5.991   7.580   4.837
84330SOL     OW54886  14.108   6.016   7.440
84330SOL    HW154887  14.039   6.007   7.506
84330SOL    HW254888  14.091   5.945   7.378
84331SOL     OW54889  13.112   3.369   4.003
84331SOL    HW154890  13.059   3.398   3.929
84331SOL    HW254891  13.077   3.416   4.079
84332SOL     OW54892   7.582  13.699  11.390
84332SOL    HW154893   7.616  13.686  11.301
84332SOL    HW254894   7.627  13.778  11.421
84333SOL     OW54895   7.775   6.571   9.439
84333SOL    HW154896   7.711   6.619   9.493
84333SOL    HW254897   7.825   6.520   9.502
84334SOL     OW54898  14.766   0.315   9.718
84334SOL    HW154899  14.749   0.403   9.684
84334SOL    HW254900  14.819   0.330   9.796
84335SOL     OW54901   4.267  11.502   3.432
84335SOL    HW154902   4.362  11.495   3.432
84335SOL    HW254903   4.240  11.475   3.344
84336SOL     OW54904   8.372   6.361  11.580
84336SOL    HW154905   8.330   6.436  11.539
84336SOL    HW254906   8.354   6.371  11.673
84337SOL     OW54907  12.096  10.893   7.477
84337SOL    HW154908  12.025  10.860   7.532
84337SOL    HW254909  12.072  10.866   7.388
84338SOL     OW54910   7.110  14.791  10.455
84338SOL    HW154911   7.068  14.860  10.506
84338SOL    HW254912   7.202  14.817  10.449
84339SOL     OW54913   0.479   2.201  12.308
84339SOL    HW154914   0.403   2.256  12.329
84339SOL    HW254915   0.490   2.210  12.214
84340SOL     OW54916   3.155   5.552   8.979
84340SOL    HW154917   3.091   5.484   9.001
84340SOL    HW254918   3.129   5.583   8.892
84341SOL     OW54919   6.494   0.288   4.586
84341SOL    HW154920   6.440   0.265   4.511
84341SOL    HW254921   6.456   0.240   4.659
84342SOL     OW54922   0.962  12.781  14.142
84342SOL    HW154923   1.037  12.793  14.084
84342SOL    HW254924   0.897  12.735  14.089
84343SOL     OW54925   4.599  11.468   4.295
84343SOL    HW154926   4.594  11.412   4.373
84343SOL    HW254927   4.630  11.409   4.225
84344SOL     OW54928   3.774  13.311  13.091
84344SOL    HW154929   3.805  13.314  13.000
84344SOL    HW254930   3.736  13.397  13.106
84345SOL     OW54931   7.698   3.361   4.775
84345SOL    HW154932   7.681   3.300   4.703
84345SOL    HW254933   7.753   3.313   4.835
84346SOL     OW54934  10.031   9.753  12.486
84346SOL    HW154935  10.115   9.792  12.461
84346SOL    HW254936  10.032   9.665  12.447
84347SOL     OW54937   8.713  12.657   9.292
84347SOL    HW154938   8.808  12.667   9.297
84347SOL    HW254939   8.694  12.654   9.199
84348SOL     OW54940   5.443  11.170   1.149
84348SOL    HW154941   5.463  11.264   1.151
84348SOL    HW254942   5.431  11.151   1.056
84349SOL     OW54943   8.829   0.027   3.964
84349SOL    HW154944   8.918   0.016   3.931
84349SOL    HW254945   8.796   0.104   3.917
84350SOL     OW54946  12.936   1.785  10.175
84350SOL    HW154947  13.027   1.754  10.171
84350SOL    HW254948  12.887   1.719  10.125
84351SOL     OW54949   1.479  11.573  11.359
84351SOL    HW154950   1.409  11.637  11.374
84351SOL    HW254951   1.451  11.494  11.404
84352SOL     OW54952   3.794   6.791   0.281
84352SOL    HW154953   3.772   6.834   0.363
84352SOL    HW254954   3.819   6.862   0.221
84353SOL     OW54955   3.485   4.344   5.942
84353SOL    HW154956   3.463   4.252   5.960
84353SOL    HW254957   3.458   4.358   5.852
84354SOL     OW54958   9.254  12.267   1.910
84354SOL    HW154959   9.212  12.231   1.831
84354SOL    HW254960   9.290  12.191   1.955
84355SOL     OW54961  10.591   2.988   7.334
84355SOL    HW154962  10.655   2.930   7.293
84355SOL    HW254963  10.566   2.943   7.415
84356SOL     OW54964  13.413   1.347   1.706
84356SOL    HW154965  13.503   1.374   1.686
84356SOL    HW254966  13.360   1.422   1.680
84357SOL     OW54967   6.600   7.039   3.702
84357SOL    HW154968   6.593   6.967   3.639
84357SOL    HW254969   6.643   7.109   3.653
84358SOL     OW54970   6.905   9.439   3.834
84358SOL    HW154971   6.925   9.408   3.746
84358SOL    HW254972   6.985   9.483   3.863
84359SOL     OW54973   4.274   9.265   2.058
84359SOL    HW154974   4.350   9.209   2.073
84359SOL    HW254975   4.199   9.205   2.068
84360SOL     OW54976   2.485  10.919   2.630
84360SOL    HW154977   2.391  10.904   2.644
84360SOL    HW254978   2.509  10.854   2.563
84361SOL     OW54979  12.180   6.107  10.902
84361SOL    HW154980  12.147   6.172  10.841
84361SOL    HW254981  12.273   6.125  10.909
84362SOL     OW54982   5.391   8.411   3.452
84362SOL    HW154983   5.385   8.391   3.358
84362SOL    HW254984   5.337   8.489   3.463
84363SOL     OW54985   3.926   8.334   7.046
84363SOL    HW154986   3.916   8.241   7.028
84363SOL    HW254987   3.874   8.377   6.978
84364SOL     OW54988  13.542   7.155   2.986
84364SOL    HW154989  13.619   7.100   2.972
84364SOL    HW254990  13.474   7.095   3.017
84365SOL     OW54991  11.602   6.496   6.120
84365SOL    HW154992  11.595   6.572   6.062
84365SOL    HW254993  11.611   6.421   6.060
84366SOL     OW54994   7.320  14.810  13.985
84366SOL    HW154995   7.383  14.742  13.958
84366SOL    HW254996   7.248  14.761  14.024
84367SOL     OW54997   3.886   3.326   6.253
84367SOL    HW154998   3.902   3.294   6.164
84367SOL    HW254999   3.887   3.421   6.245
84368SOL     OW55000  11.008  13.600  13.459
84368SOL    HW155001  11.086  13.594  13.514
84368SOL    HW255002  11.022  13.678  13.405
84369SOL     OW55003   5.190   4.263  10.310
84369SOL    HW155004   5.281   4.267  10.339
84369SOL    HW255005   5.143   4.224  10.384
84370SOL     OW55006   8.263  14.433   8.724
84370SOL    HW155007   8.225  14.508   8.771
84370SOL    HW255008   8.338  14.470   8.678
84371SOL     OW55009   5.960  10.688   6.217
84371SOL    HW155010   6.029  10.678   6.152
84371SOL    HW255011   5.946  10.783   6.223
84372SOL     OW55012   4.596  13.441  11.583
84372SOL    HW155013   4.582  13.396  11.667
84372SOL    HW255014   4.609  13.370  11.520
84373SOL     OW55015  14.717   4.775   5.555
84373SOL    HW155016  14.644   4.716   5.574
84373SOL    HW255017  14.716   4.783   5.459
84374SOL     OW55018  10.039  12.662   3.575
84374SOL    HW155019  10.034  12.664   3.670
84374SOL    HW255020  10.123  12.703   3.554
84375SOL     OW55021   6.746   6.600  10.465
84375SOL    HW155022   6.662   6.632  10.498
84375SOL    HW255023   6.800   6.678  10.456
84376SOL     OW55024  13.785  10.076  11.953
84376SOL    HW155025  13.763  10.073  11.860
84376SOL    HW255026  13.860  10.135  11.957
84377SOL     OW55027   6.125   2.279  11.945
84377SOL    HW155028   6.108   2.357  11.998
84377SOL    HW255029   6.085   2.207  11.994
84378SOL     OW55030   3.420   4.844  13.285
84378SOL    HW155031   3.435   4.788  13.209
84378SOL    HW255032   3.326   4.859  13.285
84379SOL     OW55033   6.808   2.539   7.945
84379SOL    HW155034   6.827   2.548   7.851
84379SOL    HW255035   6.726   2.490   7.948
84380SOL     OW55036   0.329   2.484   8.765
84380SOL    HW155037   0.351   2.484   8.858
84380SOL    HW255038   0.396   2.428   8.725
84381SOL     OW55039   2.344   7.881   6.444
84381SOL    HW155040   2.338   7.866   6.539
84381SOL    HW255041   2.359   7.793   6.408
84382SOL     OW55042   1.005   9.870   1.562
84382SOL    HW155043   1.044   9.943   1.610
84382SOL    HW255044   0.911   9.880   1.575
84383SOL     OW55045  11.077  12.125   1.379
84383SOL    HW155046  11.027  12.068   1.319
84383SOL    HW255047  11.071  12.212   1.339
84384SOL     OW55048   7.209   1.193   0.989
84384SOL    HW155049   7.155   1.115   0.999
84384SOL    HW255050   7.218   1.205   0.894
84385SOL     OW55051   3.604   2.421   8.886
84385SOL    HW155052   3.557   2.426   8.969
84385SOL    HW255053   3.601   2.510   8.852
84386SOL     OW55054  10.877  10.169   1.311
84386SOL    HW155055  10.973  10.169   1.307
84386SOL    HW255056  10.857  10.176   1.404
84387SOL     OW55057   1.504   3.789   2.673
84387SOL    HW155058   1.416   3.782   2.711
84387SOL    HW255059   1.563   3.777   2.748
84388SOL     OW55060  10.656   0.528   4.167
84388SOL    HW155061  10.732   0.469   4.167
84388SOL    HW255062  10.690   0.612   4.138
84389SOL     OW55063   5.479   2.697  14.324
84389SOL    HW155064   5.566   2.731  14.304
84389SOL    HW255065   5.455   2.739  14.406
84390SOL     OW55066   1.687  10.755   6.037
84390SOL    HW155067   1.720  10.743   6.126
84390SOL    HW255068   1.662  10.668   6.008
84391SOL     OW55069   1.694   7.855   6.367
84391SOL    HW155070   1.625   7.867   6.301
84391SOL    HW255071   1.722   7.944   6.388
84392SOL     OW55072   3.338   9.931   5.251
84392SOL    HW155073   3.261   9.928   5.194
84392SOL    HW255074   3.401   9.872   5.209
84393SOL     OW55075   2.579  13.236  12.763
84393SOL    HW155076   2.673  13.250  12.771
84393SOL    HW255077   2.571  13.159  12.707
84394SOL     OW55078  12.243   2.171   4.893
84394SOL    HW155079  12.233   2.109   4.820
84394SOL    HW255080  12.162   2.221   4.894
84395SOL     OW55081  10.604   5.508  13.187
84395SOL    HW155082  10.680   5.514  13.129
84395SOL    HW255083  10.553   5.586  13.167
84396SOL     OW55084   0.416   1.340   3.450
84396SOL    HW155085   0.321   1.333   3.438
84396SOL    HW255086   0.448   1.251   3.438
84397SOL     OW55087   9.424   6.206   1.279
84397SOL    HW155088   9.361   6.263   1.323
84397SOL    HW255089   9.474   6.264   1.223
84398SOL     OW55090   6.987   9.510  11.562
84398SOL    HW155091   6.932   9.570  11.611
84398SOL    HW255092   6.960   9.423  11.592
84399SOL     OW55093   8.919   1.278   7.970
84399SOL    HW155094   8.870   1.324   7.902
84399SOL    HW255095   8.976   1.345   8.008
84400SOL     OW55096   4.943  13.940   5.900
84400SOL    HW155097   4.908  13.852   5.886
84400SOL    HW255098   4.986  13.961   5.817
84401SOL     OW55099   4.858   8.496   0.928
84401SOL    HW155100   4.802   8.553   0.876
84401SOL    HW255101   4.808   8.478   1.008
84402SOL     OW55102  10.030  10.920   7.619
84402SOL    HW155103  10.096  10.958   7.561
84402SOL    HW255104   9.991  10.996   7.662
84403SOL     OW55105   7.205   5.546  14.133
84403SOL    HW155106   7.233   5.574  14.046
84403SOL    HW255107   7.284   5.552  14.187
84404SOL     OW55108  10.599   5.036  13.702
84404SOL    HW155109  10.690   5.060  13.719
84404SOL    HW255110  10.591   5.041  13.607
84405SOL     OW55111  12.037  12.753   5.084
84405SOL    HW155112  12.032  12.840   5.044
84405SOL    HW255113  12.113  12.713   5.043
84406SOL     OW55114  13.330  14.062  11.164
84406SOL    HW155115  13.270  14.137  11.165
84406SOL    HW255116  13.399  14.088  11.103
84407SOL     OW55117   6.499   1.658   1.718
84407SOL    HW155118   6.460   1.572   1.703
84407SOL    HW255119   6.512   1.662   1.813
84408SOL     OW55120   4.175  12.221  11.433
84408SOL    HW155121   4.094  12.225  11.380
84408SOL    HW255122   4.161  12.147  11.492
84409SOL     OW55123  13.175   4.518   8.173
84409SOL    HW155124  13.094   4.469   8.186
84409SOL    HW255125  13.190   4.563   8.256
84410SOL     OW55126   8.910   0.102   2.802
84410SOL    HW155127   8.935   0.176   2.858
84410SOL    HW255128   8.818   0.086   2.821
84411SOL     OW55129  12.959   3.443   8.773
84411SOL    HW155130  12.931   3.405   8.690
84411SOL    HW255131  12.924   3.384   8.840
84412SOL     OW55132  12.209  10.494   1.337
84412SOL    HW155133  12.212  10.404   1.305
84412SOL    HW255134  12.281  10.538   1.292
84413SOL     OW55135   5.431   6.798   8.627
84413SOL    HW155136   5.439   6.764   8.716
84413SOL    HW255137   5.484   6.878   8.627
84414SOL     OW55138   2.413   0.157   0.725
84414SOL    HW155139   2.464   0.207   0.662
84414SOL    HW255140   2.448   0.068   0.719
84415SOL     OW55141  10.690   0.426  11.802
84415SOL    HW155142  10.740   0.507  11.796
84415SOL    HW255143  10.622   0.444  11.866
84416SOL     OW55144  14.663   7.033  13.098
84416SOL    HW155145  14.591   7.043  13.160
84416SOL    HW255146  14.686   7.123  13.073
84417SOL     OW55147   1.186  14.193   0.128
84417SOL    HW155148   1.241  14.211   0.205
84417SOL    HW255149   1.237  14.228   0.055
84418SOL     OW55150  11.927   2.964   2.265
84418SOL    HW155151  11.835   2.938   2.255
84418SOL    HW255152  11.943   3.024   2.192
84419SOL     OW55153   7.662   7.268   7.317
84419SOL    HW155154   7.575   7.282   7.355
84419SOL    HW255155   7.649   7.279   7.223
84420SOL     OW55156  13.093   3.639   9.243
84420SOL    HW155157  13.010   3.684   9.232
84420SOL    HW255158  13.153   3.708   9.273
84421SOL     OW55159   3.648   5.529   4.394
84421SOL    HW155160   3.643   5.571   4.480
84421SOL    HW255161   3.652   5.435   4.415
84422SOL     OW55162   1.884   5.590  11.521
84422SOL    HW155163   1.805   5.618  11.476
84422SOL    HW255164   1.856   5.571  11.611
84423SOL     OW55165   8.052  11.804   9.319
84423SOL    HW155166   8.060  11.826   9.412
84423SOL    HW255167   8.088  11.716   9.312
84424SOL     OW55168   1.701   1.161  12.676
84424SOL    HW155169   1.652   1.109  12.612
84424SOL    HW255170   1.688   1.115  12.759
84425SOL     OW55171   7.533  12.682   6.457
84425SOL    HW155172   7.509  12.687   6.550
84425SOL    HW255173   7.449  12.670   6.412
84426SOL     OW55174  12.657   0.696  13.244
84426SOL    HW155175  12.565   0.697  13.268
84426SOL    HW255176  12.658   0.667  13.153
84427SOL     OW55177   3.681  13.932   3.837
84427SOL    HW155178   3.629  13.989   3.780
84427SOL    HW255179   3.741  13.991   3.883
84428SOL     OW55180  12.780   3.492  12.693
84428SOL    HW155181  12.776   3.487  12.789
84428SOL    HW255182  12.831   3.415  12.668
84429SOL     OW55183   2.467   5.091   0.725
84429SOL    HW155184   2.559   5.086   0.700
84429SOL    HW255185   2.454   5.183   0.748
84430SOL     OW55186  12.622  10.993   3.462
84430SOL    HW155187  12.568  11.068   3.436
84430SOL    HW255188  12.615  10.932   3.388
84431SOL     OW55189   5.414   3.007  14.008
84431SOL    HW155190   5.430   3.006  14.102
84431SOL    HW255191   5.463   3.082  13.976
84432SOL     OW55192   8.631   3.070   8.662
84432SOL    HW155193   8.600   3.044   8.575
84432SOL    HW255194   8.583   3.151   8.680
84433SOL     OW55195   3.324   6.657   6.582
84433SOL    HW155196   3.337   6.742   6.540
84433SOL    HW255197   3.229   6.645   6.584
84434SOL     OW55198   3.283   8.381  14.816
84434SOL    HW155199   3.303   8.470  14.788
84434SOL    HW255200   3.252   8.390   0.031
84435SOL     OW55201   9.145   6.362   0.426
84435SOL    HW155202   9.114   6.282   0.469
84435SOL    HW255203   9.220   6.390   0.478
84436SOL     OW55204  13.081  10.364   9.241
84436SOL    HW155205  12.997  10.391   9.277
84436SOL    HW255206  13.146  10.411   9.293
84437SOL     OW55207   9.402   1.789   5.691
84437SOL    HW155208   9.359   1.757   5.771
84437SOL    HW255209   9.351   1.751   5.620
84438SOL     OW55210   8.383  11.354   3.538
84438SOL    HW155211   8.421  11.322   3.456
84438SOL    HW255212   8.448  11.331   3.605
84439SOL     OW55213   7.944  13.105   8.952
84439SOL    HW155214   7.854  13.139   8.947
84439SOL    HW255215   7.947  13.035   8.887
84440SOL     OW55216  14.819   2.801  14.606
84440SOL    HW155217  14.803   2.791  14.512
84440SOL    HW255218   0.040   2.798  14.614
84441SOL     OW55219   8.702   8.286   4.365
84441SOL    HW155220   8.620   8.308   4.322
84441SOL    HW255221   8.762   8.357   4.341
84442SOL     OW55222  12.302   5.381   0.496
84442SOL    HW155223  12.322   5.301   0.544
84442SOL    HW255224  12.212   5.368   0.465
84443SOL     OW55225   8.756  13.908   0.625
84443SOL    HW155226   8.688  13.845   0.651
84443SOL    HW255227   8.825  13.896   0.690
84444SOL     OW55228   8.438  11.744   8.772
84444SOL    HW155229   8.416  11.739   8.679
84444SOL    HW255230   8.532  11.727   8.776
84445SOL     OW55231  13.956  13.464   1.724
84445SOL    HW155232  13.863  13.446   1.737
84445SOL    HW255233  13.979  13.417   1.644
84446SOL     OW55234   8.798  11.338   4.106
84446SOL    HW155235   8.732  11.321   4.039
84446SOL    HW255236   8.857  11.402   4.066
84447SOL     OW55237  14.693   2.838   4.811
84447SOL    HW155238  14.763   2.782   4.777
84447SOL    HW255239  14.657   2.789   4.885
84448SOL     OW55240  10.149  12.176   5.517
84448SOL    HW155241  10.077  12.113   5.519
84448SOL    HW255242  10.109  12.259   5.491
84449SOL     OW55243   5.750   9.324  11.058
84449SOL    HW155244   5.700   9.355  10.982
84449SOL    HW255245   5.707   9.365  11.133
84450SOL     OW55246   5.088   5.250  10.644
84450SOL    HW155247   5.001   5.229  10.676
84450SOL    HW255248   5.108   5.180  10.581
84451SOL     OW55249   8.741   4.966   4.916
84451SOL    HW155250   8.734   4.871   4.927
84451SOL    HW255251   8.692   4.985   4.836
84452SOL     OW55252   6.909   7.468  12.743
84452SOL    HW155253   6.826   7.492  12.703
84452SOL    HW255254   6.890   7.464  12.837
84453SOL     OW55255   4.203   4.710   1.181
84453SOL    HW155256   4.108   4.695   1.183
84453SOL    HW255257   4.224   4.719   1.088
84454SOL     OW55258   4.071   1.241   3.356
84454SOL    HW155259   4.040   1.260   3.267
84454SOL    HW255260   4.163   1.266   3.354
84455SOL     OW55261   5.515  12.733  11.061
84455SOL    HW155262   5.483  12.820  11.086
84455SOL    HW255263   5.436  12.683  11.043
84456SOL     OW55264  13.658   3.714  13.044
84456SOL    HW155265  13.663   3.783  12.978
84456SOL    HW255266  13.742   3.669  13.037
84457SOL     OW55267  11.391   9.062  11.199
84457SOL    HW155268  11.338   8.986  11.176
84457SOL    HW255269  11.423   9.096  11.115
84458SOL     OW55270  14.288  11.348   6.908
84458SOL    HW155271  14.293  11.264   6.863
84458SOL    HW255272  14.338  11.335   6.988
84459SOL     OW55273   6.888   5.273  14.642
84459SOL    HW155274   6.914   5.233  14.559
84459SOL    HW255275   6.970   5.305  14.680
84460SOL     OW55276   9.460   6.124   5.718
84460SOL    HW155277   9.426   6.195   5.773
84460SOL    HW255278   9.527   6.165   5.664
84461SOL     OW55279   5.840   0.106   2.011
84461SOL    HW155280   5.755   0.150   2.006
84461SOL    HW255281   5.896   0.153   1.950
84462SOL     OW55282   3.381   9.984   1.352
84462SOL    HW155283   3.316   9.917   1.375
84462SOL    HW255284   3.397   9.971   1.259
84463SOL     OW55285   5.351   8.942  10.515
84463SOL    HW155286   5.275   8.974  10.466
84463SOL    HW255287   5.424   8.994  10.483
84464SOL     OW55288  11.368   5.771   0.492
84464SOL    HW155289  11.306   5.727   0.435
84464SOL    HW255290  11.441   5.709   0.501
84465SOL     OW55291   1.401   3.679   3.993
84465SOL    HW155292   1.428   3.742   3.926
84465SOL    HW255293   1.315   3.710   4.021
84466SOL     OW55294   4.660   1.110   1.750
84466SOL    HW155295   4.653   1.015   1.762
84466SOL    HW255296   4.749   1.131   1.780
84467SOL     OW55297   7.940   1.038   0.640
84467SOL    HW155298   7.866   1.066   0.694
84467SOL    HW255299   7.955   0.947   0.667
84468SOL     OW55300   7.822   2.630   9.688
84468SOL    HW155301   7.847   2.543   9.719
84468SOL    HW255302   7.901   2.664   9.646
84469SOL     OW55303  10.873   1.007   8.227
84469SOL    HW155304  10.951   0.955   8.247
84469SOL    HW255305  10.835   0.966   8.149
84470SOL     OW55306   3.300  14.330   6.991
84470SOL    HW155307   3.396  14.332   6.987
84470SOL    HW255308   3.281  14.310   7.083
84471SOL     OW55309   0.720   2.492   4.032
84471SOL    HW155310   0.795   2.545   4.058
84471SOL    HW255311   0.742   2.404   4.062
84472SOL     OW55312  13.239   7.718   6.184
84472SOL    HW155313  13.202   7.753   6.102
84472SOL    HW255314  13.269   7.795   6.231
84473SOL     OW55315   9.826   3.631   2.306
84473SOL    HW155316   9.858   3.546   2.275
84473SOL    HW255317   9.772   3.664   2.235
84474SOL     OW55318   8.813  14.628   7.162
84474SOL    HW155319   8.855  14.632   7.076
84474SOL    HW255320   8.768  14.712   7.171
84475SOL     OW55321  13.798   8.862  10.231
84475SOL    HW155322  13.747   8.900  10.160
84475SOL    HW255323  13.849   8.793  10.189
84476SOL     OW55324   2.190   0.817   9.454
84476SOL    HW155325   2.256   0.794   9.520
84476SOL    HW255326   2.215   0.904   9.426
84477SOL     OW55327   3.823   2.875   2.388
84477SOL    HW155328   3.795   2.803   2.332
84477SOL    HW255329   3.762   2.946   2.368
84478SOL     OW55330   7.726  12.748   3.326
84478SOL    HW155331   7.718  12.694   3.404
84478SOL    HW255332   7.728  12.686   3.253
84479SOL     OW55333  12.532   0.954   7.062
84479SOL    HW155334  12.486   0.957   7.146
84479SOL    HW255335  12.555   0.862   7.051
84480SOL     OW55336   7.637  14.647   8.323
84480SOL    HW155337   7.554  14.670   8.365
84480SOL    HW255338   7.619  14.566   8.277
84481SOL     OW55339   2.538   8.389   4.741
84481SOL    HW155340   2.628   8.355   4.737
84481SOL    HW255341   2.496   8.338   4.809
84482SOL     OW55342   7.742   8.933   4.302
84482SOL    HW155343   7.717   8.853   4.349
84482SOL    HW255344   7.663   8.958   4.253
84483SOL     OW55345  12.051   9.388  12.048
84483SOL    HW155346  12.107   9.346  11.982
84483SOL    HW255347  12.000   9.316  12.085
84484SOL     OW55348  12.786  13.944   6.921
84484SOL    HW155349  12.743  14.006   6.861
84484SOL    HW255350  12.768  13.980   7.008
84485SOL     OW55351   6.049   7.472   7.434
84485SOL    HW155352   5.993   7.538   7.393
84485SOL    HW255353   6.032   7.392   7.384
84486SOL     OW55354  12.297   4.893   2.894
84486SOL    HW155355  12.338   4.918   2.811
84486SOL    HW255356  12.289   4.798   2.889
84487SOL     OW55357  11.093   3.141   7.831
84487SOL    HW155358  11.045   3.079   7.776
84487SOL    HW255359  11.148   3.087   7.887
84488SOL     OW55360   5.027   7.173  10.346
84488SOL    HW155361   5.011   7.089  10.389
84488SOL    HW255362   5.112   7.163  10.305
84489SOL     OW55363   0.274  14.695  12.778
84489SOL    HW155364   0.363  14.707  12.810
84489SOL    HW255365   0.267  14.753  12.703
84490SOL     OW55366   5.246   2.103   0.864
84490SOL    HW155367   5.171   2.145   0.907
84490SOL    HW255368   5.295   2.175   0.824
84491SOL     OW55369  14.051   0.101   6.668
84491SOL    HW155370  14.030   0.161   6.596
84491SOL    HW255371  14.114   0.039   6.630
84492SOL     OW55372   2.649   4.714  10.178
84492SOL    HW155373   2.714   4.730  10.246
84492SOL    HW255374   2.634   4.620  10.180
84493SOL     OW55375   7.858   7.818  12.516
84493SOL    HW155376   7.862   7.781  12.427
84493SOL    HW255377   7.940   7.790  12.557
84494SOL     OW55378  14.268   3.876   8.253
84494SOL    HW155379  14.243   3.784   8.258
84494SOL    HW255380  14.211   3.920   8.316
84495SOL     OW55381  14.252  13.149   5.191
84495SOL    HW155382  14.289  13.066   5.162
84495SOL    HW255383  14.306  13.215   5.148
84496SOL     OW55384   3.290   8.096   1.689
84496SOL    HW155385   3.220   8.095   1.755
84496SOL    HW255386   3.289   8.185   1.654
84497SOL     OW55387   1.773   3.601   2.355
84497SOL    HW155388   1.717   3.530   2.324
84497SOL    HW255389   1.714   3.676   2.362
84498SOL     OW55390   2.439   3.835   9.347
84498SOL    HW155391   2.475   3.754   9.382
84498SOL    HW255392   2.505   3.867   9.286
84499SOL     OW55393   2.529   6.453   3.102
84499SOL    HW155394   2.569   6.374   3.064
84499SOL    HW255395   2.546   6.521   3.037
84500SOL     OW55396   2.635   9.651   7.017
84500SOL    HW155397   2.639   9.616   7.106
84500SOL    HW255398   2.700   9.722   7.016
84501SOL     OW55399  11.407  13.553   0.180
84501SOL    HW155400  11.343  13.580   0.247
84501SOL    HW255401  11.439  13.635   0.143
84502SOL     OW55402  10.629   9.178   9.058
84502SOL    HW155403  10.619   9.169   8.963
84502SOL    HW255404  10.571   9.249   9.082
84503SOL     OW55405   4.456   9.713  13.668
84503SOL    HW155406   4.384   9.688  13.609
84503SOL    HW255407   4.445   9.654  13.743
84504SOL     OW55408   8.174   1.021   8.051
84504SOL    HW155409   8.241   1.088   8.035
84504SOL    HW255410   8.181   0.962   7.976
84505SOL     OW55411   1.573   0.239  13.757
84505SOL    HW155412   1.587   0.297  13.682
84505SOL    HW255413   1.638   0.268  13.821
84506SOL     OW55414   3.859  10.102   7.180
84506SOL    HW155415   3.817  10.058   7.107
84506SOL    HW255416   3.804  10.177   7.198
84507SOL     OW55417   6.570   4.619   9.767
84507SOL    HW155418   6.611   4.702   9.790
84507SOL    HW255419   6.568   4.619   9.671
84508SOL     OW55420  12.732  11.734   3.028
84508SOL    HW155421  12.732  11.730   2.932
84508SOL    HW255422  12.640  11.746   3.051
84509SOL     OW55423   1.804   9.696   4.672
84509SOL    HW155424   1.881   9.750   4.690
84509SOL    HW255425   1.734   9.736   4.724
84510SOL     OW55426   6.586  10.312  13.804
84510SOL    HW155427   6.600  10.389  13.859
84510SOL    HW255428   6.526  10.257  13.853
84511SOL     OW55429   1.070  14.018   5.861
84511SOL    HW155430   1.090  14.102   5.900
84511SOL    HW255431   0.978  14.026   5.834
84512SOL     OW55432   3.555  10.004  14.817
84512SOL    HW155433   3.578   9.912  14.829
84512SOL    HW255434   3.553  10.017  14.722
84513SOL     OW55435   0.714   0.897  13.969
84513SOL    HW155436   0.755   0.872  14.052
84513SOL    HW255437   0.747   0.832  13.907
84514SOL     OW55438   5.886  14.118   6.016
84514SOL    HW155439   5.834  14.148   6.090
84514SOL    HW255440   5.850  14.164   5.940
84515SOL     OW55441   8.916   9.835   3.744
84515SOL    HW155442   8.961   9.876   3.669
84515SOL    HW255443   8.868   9.907   3.785
84516SOL     OW55444   9.954   8.723  12.097
84516SOL    HW155445   9.967   8.814  12.126
84516SOL    HW255446  10.042   8.693  12.075
84517SOL     OW55447   6.752  10.798  11.448
84517SOL    HW155448   6.804  10.719  11.442
84517SOL    HW255449   6.661  10.767  11.449
84518SOL     OW55450  10.168   3.382   2.216
84518SOL    HW155451  10.194   3.451   2.278
84518SOL    HW255452  10.242   3.323   2.214
84519SOL     OW55453  14.854   8.620   2.564
84519SOL    HW155454  14.866   8.710   2.531
84519SOL    HW255455   0.054   8.605   2.622
84520SOL     OW55456   2.224   7.694  13.540
84520SOL    HW155457   2.204   7.742  13.460
84520SOL    HW255458   2.138   7.679  13.580
84521SOL     OW55459   4.195   8.707   5.423
84521SOL    HW155460   4.266   8.687   5.363
84521SOL    HW255461   4.227   8.677   5.509
84522SOL     OW55462   8.938   8.448   7.655
84522SOL    HW155463   8.967   8.448   7.563
84522SOL    HW255464   9.005   8.398   7.701
84523SOL     OW55465  12.840   2.739   0.210
84523SOL    HW155466  12.910   2.716   0.149
84523SOL    HW255467  12.845   2.835   0.217
84524SOL     OW55468  13.262   9.824  11.327
84524SOL    HW155469  13.294   9.891  11.267
84524SOL    HW255470  13.202   9.771  11.275
84525SOL     OW55471   4.668  11.586  14.819
84525SOL    HW155472   4.625  11.517  14.870
84525SOL    HW255473   4.717  11.636   0.009
84526SOL     OW55474   0.744  11.093   4.052
84526SOL    HW155475   0.782  11.099   3.964
84526SOL    HW255476   0.816  11.114   4.111
84527SOL     OW55477  12.491  13.838  12.105
84527SOL    HW155478  12.573  13.886  12.108
84527SOL    HW255479  12.426  13.902  12.076
84528SOL     OW55480   9.534   5.070  13.396
84528SOL    HW155481   9.469   5.039  13.333
84528SOL    HW255482   9.610   5.093  13.342
84529SOL     OW55483   4.653   4.416   2.639
84529SOL    HW155484   4.726   4.443   2.583
84529SOL    HW255485   4.588   4.382   2.579
84530SOL     OW55486   6.582   4.546   2.432
84530SOL    HW155487   6.509   4.598   2.465
84530SOL    HW255488   6.636   4.528   2.510
84531SOL     OW55489   1.456   2.757   7.730
84531SOL    HW155490   1.442   2.749   7.824
84531SOL    HW255491   1.549   2.735   7.718
84532SOL     OW55492   0.566  11.910  12.848
84532SOL    HW155493   0.549  11.820  12.874
84532SOL    HW255494   0.645  11.905  12.793
84533SOL     OW55495   6.393   0.734  10.332
84533SOL    HW155496   6.366   0.791  10.404
84533SOL    HW255497   6.352   0.773  10.254
84534SOL     OW55498   7.152   4.346   0.208
84534SOL    HW155499   7.074   4.291   0.207
84534SOL    HW255500   7.181   4.348   0.117
84535SOL     OW55501   4.439   4.635  12.671
84535SOL    HW155502   4.344   4.641  12.654
84535SOL    HW255503   4.457   4.541  12.675
84536SOL     OW55504  13.944   9.097   1.628
84536SOL    HW155505  13.864   9.147   1.611
84536SOL    HW255506  13.913   9.011   1.654
84537SOL     OW55507   0.487  10.848   2.210
84537SOL    HW155508   0.528  10.834   2.124
84537SOL    HW255509   0.497  10.941   2.226
84538SOL     OW55510   4.098   9.213  13.719
84538SOL    HW155511   4.061   9.291  13.760
84538SOL    HW255512   4.126   9.158  13.793
84539SOL     OW55513   9.553   5.130   9.415
84539SOL    HW155514   9.613   5.170   9.352
84539SOL    HW255515   9.467   5.135   9.373
84540SOL     OW55516   8.461  11.752  10.704
84540SOL    HW155517   8.436  11.667  10.667
84540SOL    HW255518   8.377  11.797  10.717
84541SOL     OW55519   0.795   6.276   6.164
84541SOL    HW155520   0.700   6.283   6.159
84541SOL    HW255521   0.813   6.183   6.152
84542SOL     OW55522   8.948  10.859  10.017
84542SOL    HW155523   9.030  10.902   9.992
84542SOL    HW255524   8.902  10.924  10.072
84543SOL     OW55525   1.306  12.884   1.387
84543SOL    HW155526   1.226  12.932   1.364
84543SOL    HW255527   1.286  12.843   1.471
84544SOL     OW55528   1.928  13.803   0.393
84544SOL    HW155529   1.896  13.840   0.310
84544SOL    HW255530   2.004  13.751   0.367
84545SOL     OW55531   4.781  12.348   2.853
84545SOL    HW155532   4.802  12.370   2.943
84545SOL    HW255533   4.856  12.297   2.822
84546SOL     OW55534   2.992   0.321  11.684
84546SOL    HW155535   3.087   0.314  11.688
84546SOL    HW255536   2.965   0.249  11.627
84547SOL     OW55537   7.826   6.107   4.884
84547SOL    HW155538   7.844   6.120   4.978
84547SOL    HW255539   7.781   6.187   4.857
84548SOL     OW55540   2.415  11.882   7.083
84548SOL    HW155541   2.362  11.857   7.159
84548SOL    HW255542   2.451  11.800   7.050
84549SOL     OW55543   1.394  12.250   7.885
84549SOL    HW155544   1.385  12.172   7.940
84549SOL    HW255545   1.352  12.320   7.934
84550SOL     OW55546   1.325   7.152  11.378
84550SOL    HW155547   1.352   7.237  11.343
84550SOL    HW255548   1.393   7.129  11.441
84551SOL     OW55549   1.953  12.111  11.362
84551SOL    HW155550   2.030  12.164  11.381
84551SOL    HW255551   1.888  12.173  11.330
84552SOL     OW55552  13.427   0.993   7.036
84552SOL    HW155553  13.502   0.973   6.981
84552SOL    HW255554  13.393   0.907   7.062
84553SOL     OW55555   4.967   0.392  10.934
84553SOL    HW155556   5.058   0.422  10.923
84553SOL    HW255557   4.966   0.306  10.892
84554SOL     OW55558  10.956  11.712   1.065
84554SOL    HW155559  10.962  11.629   1.019
84554SOL    HW255560  11.043  11.751   1.056
84555SOL     OW55561   5.271   6.052   8.971
84555SOL    HW155562   5.231   6.031   8.887
84555SOL    HW255563   5.233   5.989   9.033
84556SOL     OW55564   3.988   2.250  12.175
84556SOL    HW155565   4.071   2.202  12.172
84556SOL    HW255566   3.943   2.224  12.094
84557SOL     OW55567  13.162   2.697   3.870
84557SOL    HW155568  13.122   2.619   3.832
84557SOL    HW255569  13.252   2.697   3.838
84558SOL     OW55570  11.580   0.493   5.345
84558SOL    HW155571  11.605   0.542   5.422
84558SOL    HW255572  11.637   0.416   5.345
84559SOL     OW55573   0.123   5.420  10.260
84559SOL    HW155574   0.108   5.356  10.191
84559SOL    HW255575   0.215   5.407  10.285
84560SOL     OW55576   9.741  14.754   6.761
84560SOL    HW155577   9.699  14.834   6.731
84560SOL    HW255578   9.729  14.692   6.688
84561SOL     OW55579   4.252   0.453   3.693
84561SOL    HW155580   4.174   0.433   3.642
84561SOL    HW255581   4.262   0.548   3.686
84562SOL     OW55582  10.958   1.715   3.336
84562SOL    HW155583  10.922   1.780   3.276
84562SOL    HW255584  10.894   1.708   3.406
84563SOL     OW55585   4.215   6.194   4.637
84563SOL    HW155586   4.151   6.180   4.567
84563SOL    HW255587   4.233   6.288   4.635
84564SOL     OW55588   7.228   6.414   0.213
84564SOL    HW155589   7.146   6.463   0.227
84564SOL    HW255590   7.203   6.343   0.154
84565SOL     OW55591   2.209   4.121   6.975
84565SOL    HW155592   2.220   4.176   7.053
84565SOL    HW255593   2.292   4.129   6.928
84566SOL     OW55594  14.362   8.732   4.581
84566SOL    HW155595  14.446   8.748   4.537
84566SOL    HW255596  14.355   8.637   4.586
84567SOL     OW55597   4.370   6.100  14.832
84567SOL    HW155598   4.360   6.190  14.863
84567SOL    HW255599   4.352   6.105  14.738
84568SOL     OW55600   0.430   1.459  13.095
84568SOL    HW155601   0.335   1.453  13.104
84568SOL    HW255602   0.446   1.444  13.002
84569SOL     OW55603   6.643   4.710  12.231
84569SOL    HW155604   6.730   4.695  12.268
84569SOL    HW255605   6.639   4.804  12.216
84570SOL     OW55606   9.663   2.646  11.273
84570SOL    HW155607   9.609   2.605  11.340
84570SOL    HW255608   9.637   2.738  11.273
84571SOL     OW55609  12.492   2.903   0.039
84571SOL    HW155610  12.560   2.971   0.035
84571SOL    HW255611  12.540   2.821   0.028
84572SOL     OW55612   8.687   2.581  10.644
84572SOL    HW155613   8.687   2.491  10.674
84572SOL    HW255614   8.756   2.624  10.695
84573SOL     OW55615   7.209  12.891   8.172
84573SOL    HW155616   7.201  12.894   8.077
84573SOL    HW255617   7.279  12.827   8.188
84574SOL     OW55618  12.992   1.181   3.577
84574SOL    HW155619  12.962   1.106   3.526
84574SOL    HW255620  12.998   1.253   3.514
84575SOL     OW55621  10.057  14.586   2.418
84575SOL    HW155622  10.085  14.677   2.422
84575SOL    HW255623  10.063  14.555   2.508
84576SOL     OW55624   7.709  10.795  13.645
84576SOL    HW155625   7.629  10.755  13.679
84576SOL    HW255626   7.727  10.747  13.564
84577SOL     OW55627   1.808   7.379   1.231
84577SOL    HW155628   1.893   7.389   1.275
84577SOL    HW255629   1.760   7.459   1.254
84578SOL     OW55630  10.927   3.355  10.470
84578SOL    HW155631  10.839   3.392  10.468
84578SOL    HW255632  10.936   3.311  10.385
84579SOL     OW55633   0.088  13.213   4.898
84579SOL    HW155634   0.028  13.201   4.825
84579SOL    HW255635   0.053  13.287   4.947
84580SOL     OW55636  13.696   8.671   2.990
84580SOL    HW155637  13.667   8.757   3.018
84580SOL    HW255638  13.656   8.659   2.903
84581SOL     OW55639   2.487   3.201   9.445
84581SOL    HW155640   2.564   3.257   9.436
84581SOL    HW255641   2.479   3.158   9.360
84582SOL     OW55642   5.333  12.236  12.742
84582SOL    HW155643   5.333  12.310  12.803
84582SOL    HW255644   5.264  12.256  12.679
84583SOL     OW55645  11.127  12.293   7.004
84583SOL    HW155646  11.035  12.283   6.981
84583SOL    HW255647  11.171  12.312   6.921
84584SOL     OW55648   2.436   8.396   7.452
84584SOL    HW155649   2.367   8.375   7.514
84584SOL    HW255650   2.517   8.383   7.501
84585SOL     OW55651   2.321  10.096   3.177
84585SOL    HW155652   2.266  10.019   3.160
84585SOL    HW255653   2.259  10.168   3.184
84586SOL     OW55654   2.820  13.376   8.993
84586SOL    HW155655   2.915  13.383   8.986
84586SOL    HW255656   2.794  13.316   8.923
84587SOL     OW55657   9.292   6.363   6.570
84587SOL    HW155658   9.301   6.281   6.521
84587SOL    HW255659   9.198   6.371   6.586
84588SOL     OW55660   0.249   5.457   7.288
84588SOL    HW155661   0.231   5.543   7.326
84588SOL    HW255662   0.252   5.398   7.364
84589SOL     OW55663  12.161   9.969  14.495
84589SOL    HW155664  12.184   9.887  14.450
84589SOL    HW255665  12.220  10.034  14.457
84590SOL     OW55666  13.733   5.224  10.845
84590SOL    HW155667  13.740   5.140  10.890
84590SOL    HW255668  13.742   5.289  10.915
84591SOL     OW55669   0.778  12.847   8.755
84591SOL    HW155670   0.768  12.882   8.843
84591SOL    HW255671   0.846  12.902   8.715
84592SOL     OW55672   3.294   8.200  10.205
84592SOL    HW155673   3.217   8.142  10.210
84592SOL    HW255674   3.369   8.140  10.207
84593SOL     OW55675  12.455  13.494  13.711
84593SOL    HW155676  12.398  13.424  13.677
84593SOL    HW255677  12.400  13.541  13.773
84594SOL     OW55678  11.400  12.395   3.004
84594SOL    HW155679  11.403  12.468   2.943
84594SOL    HW255680  11.424  12.319   2.952
84595SOL     OW55681   5.629   6.843   2.801
84595SOL    HW155682   5.690   6.907   2.839
84595SOL    HW255683   5.615   6.780   2.872
84596SOL     OW55684   7.340   3.830   8.050
84596SOL    HW155685   7.316   3.766   8.118
84596SOL    HW255686   7.430   3.855   8.072
84597SOL     OW55687   2.700   4.948   9.280
84597SOL    HW155688   2.693   4.860   9.242
84597SOL    HW255689   2.635   5.000   9.232
84598SOL     OW55690  10.024   3.200   9.928
84598SOL    HW155691   9.956   3.194   9.995
84598SOL    HW255692  10.106   3.206   9.977
84599SOL     OW55693   4.630   0.297  11.253
84599SOL    HW155694   4.659   0.315  11.342
84599SOL    HW255695   4.687   0.350  11.198
84600SOL     OW55696  11.511   5.428   9.925
84600SOL    HW155697  11.444   5.361   9.943
84600SOL    HW255698  11.543   5.406   9.837
84601SOL     OW55699   6.359  11.911   3.532
84601SOL    HW155700   6.411  11.938   3.607
84601SOL    HW255701   6.316  11.830   3.561
84602SOL     OW55702   7.166  11.896   5.620
84602SOL    HW155703   7.120  11.968   5.665
84602SOL    HW255704   7.154  11.915   5.527
84603SOL     OW55705  10.421  11.392   5.969
84603SOL    HW155706  10.379  11.442   6.039
84603SOL    HW255707  10.514  11.413   5.977
84604SOL     OW55708   1.735   5.736   7.703
84604SOL    HW155709   1.761   5.816   7.659
84604SOL    HW255710   1.656   5.759   7.751
84605SOL     OW55711   5.729   3.780   6.888
84605SOL    HW155712   5.693   3.869   6.895
84605SOL    HW255713   5.762   3.761   6.976
84606SOL     OW55714  13.249   6.861   2.078
84606SOL    HW155715  13.163   6.885   2.112
84606SOL    HW255716  13.309   6.927   2.115
84607SOL     OW55717  10.250  12.902   4.111
84607SOL    HW155718  10.185  12.972   4.115
84607SOL    HW255719  10.334  12.946   4.113
84608SOL     OW55720  14.287  11.456  10.757
84608SOL    HW155721  14.316  11.461  10.849
84608SOL    HW255722  14.225  11.528  10.748
84609SOL     OW55723  10.375  11.133  12.538
84609SOL    HW155724  10.311  11.204  12.541
84609SOL    HW255725  10.403  11.130  12.447
84610SOL     OW55726  13.070   6.182  14.496
84610SOL    HW155727  13.135   6.250  14.481
84610SOL    HW255728  13.031   6.204  14.580
84611SOL     OW55729   1.410   8.108  13.451
84611SOL    HW155730   1.318   8.117  13.474
84611SOL    HW255731   1.444   8.043  13.512
84612SOL     OW55732   1.181   0.105   1.368
84612SOL    HW155733   1.272   0.081   1.385
84612SOL    HW255734   1.140   0.024   1.336
84613SOL     OW55735   7.377  12.608   3.015
84613SOL    HW155736   7.385  12.677   3.080
84613SOL    HW255737   7.357  12.529   3.065
84614SOL     OW55738   7.217   3.780  13.458
84614SOL    HW155739   7.285   3.765  13.524
84614SOL    HW255740   7.211   3.698  13.410
84615SOL     OW55741  10.143   1.842   7.836
84615SOL    HW155742  10.154   1.902   7.762
84615SOL    HW255743  10.131   1.898   7.912
84616SOL     OW55744   4.540   8.509   9.679
84616SOL    HW155745   4.597   8.573   9.721
84616SOL    HW255746   4.519   8.547   9.594
84617SOL     OW55747  10.651  14.219  13.161
84617SOL    HW155748  10.725  14.159  13.161
84617SOL    HW255749  10.683  14.298  13.203
84618SOL     OW55750  13.646  14.320   7.795
84618SOL    HW155751  13.636  14.273   7.878
84618SOL    HW255752  13.563  14.308   7.751
84619SOL     OW55753   0.347   2.226  10.754
84619SOL    HW155754   0.302   2.282  10.817
84619SOL    HW255755   0.353   2.141  10.797
84620SOL     OW55756  13.526   7.608  13.380
84620SOL    HW155757  13.473   7.573  13.309
84620SOL    HW255758  13.580   7.675  13.339
84621SOL     OW55759   9.402   1.121   9.084
84621SOL    HW155760   9.412   1.175   9.162
84621SOL    HW255761   9.317   1.079   9.095
84622SOL     OW55762   1.906  10.498   8.254
84622SOL    HW155763   1.997  10.527   8.262
84622SOL    HW255764   1.886  10.458   8.338
84623SOL     OW55765  10.196  10.987  10.147
84623SOL    HW155766  10.127  11.009  10.083
84623SOL    HW255767  10.149  10.978  10.230
84624SOL     OW55768  14.597   6.779   0.453
84624SOL    HW155769  14.583   6.805   0.362
84624SOL    HW255770  14.557   6.692   0.459
84625SOL     OW55771  14.174   5.585   7.800
84625SOL    HW155772  14.254   5.596   7.850
84625SOL    HW255773  14.191   5.630   7.717
84626SOL     OW55774   6.888   5.632   2.883
84626SOL    HW155775   6.881   5.709   2.828
84626SOL    HW255776   6.906   5.560   2.822
84627SOL     OW55777  12.325   8.172   8.971
84627SOL    HW155778  12.323   8.255   8.923
84627SOL    HW255779  12.281   8.192   9.054
84628SOL     OW55780   6.813  12.052  12.879
84628SOL    HW155781   6.858  12.033  12.961
84628SOL    HW255782   6.784  11.967  12.847
84629SOL     OW55783  10.113   8.240  11.531
84629SOL    HW155784  10.093   8.322  11.486
84629SOL    HW255785  10.191   8.207  11.487
84630SOL     OW55786   0.030   0.625   4.329
84630SOL    HW155787   0.083   0.673   4.265
84630SOL    HW255788  14.844   0.691   4.363
84631SOL     OW55789  11.571   5.631   0.287
84631SOL    HW155790  11.594   5.539   0.273
84631SOL    HW255791  11.586   5.645   0.381
84632SOL     OW55792  11.694  10.876  14.693
84632SOL    HW155793  11.723  10.960  14.657
84632SOL    HW255794  11.629  10.844  14.629
84633SOL     OW55795   7.562  10.569   6.689
84633SOL    HW155796   7.654  10.588   6.670
84633SOL    HW255797   7.513  10.635   6.639
84634SOL     OW55798  10.743   1.012   4.987
84634SOL    HW155799  10.696   1.077   4.935
84634SOL    HW255800  10.835   1.022   4.962
84635SOL     OW55801   7.665   4.689   2.138
84635SOL    HW155802   7.596   4.627   2.159
84635SOL    HW255803   7.698   4.718   2.223
84636SOL     OW55804  11.356   8.128   2.377
84636SOL    HW155805  11.300   8.194   2.416
84636SOL    HW255806  11.311   8.045   2.395
84637SOL     OW55807   7.643  13.729   8.005
84637SOL    HW155808   7.721  13.719   8.060
84637SOL    HW255809   7.575  13.760   8.065
84638SOL     OW55810   6.048   0.818  11.900
84638SOL    HW155811   6.110   0.807  11.972
84638SOL    HW255812   5.964   0.791  11.936
84639SOL     OW55813  11.575   8.660   6.801
84639SOL    HW155814  11.492   8.617   6.824
84639SOL    HW255815  11.620   8.670   6.885
84640SOL     OW55816   8.597  13.458   1.513
84640SOL    HW155817   8.557  13.524   1.569
84640SOL    HW255818   8.541  13.455   1.435
84641SOL     OW55819   2.495  10.909   5.174
84641SOL    HW155820   2.508  10.980   5.111
84641SOL    HW255821   2.558  10.928   5.244
84642SOL     OW55822   2.773   4.206   1.285
84642SOL    HW155823   2.845   4.190   1.346
84642SOL    HW255824   2.797   4.158   1.206
84643SOL     OW55825  13.089  13.058   4.426
84643SOL    HW155826  13.152  13.087   4.360
84643SOL    HW255827  13.142  13.043   4.505
84644SOL     OW55828   6.490   9.498   0.139
84644SOL    HW155829   6.538   9.459   0.066
84644SOL    HW255830   6.406   9.524   0.102
84645SOL     OW55831   6.379   9.047  11.949
84645SOL    HW155832   6.313   9.102  11.992
84645SOL    HW255833   6.440   9.024  12.019
84646SOL     OW55834   8.692  11.257   0.368
84646SOL    HW155835   8.616  11.222   0.414
84646SOL    HW255836   8.656  11.327   0.312
84647SOL     OW55837   6.363  13.234  10.703
84647SOL    HW155838   6.426  13.291  10.659
84647SOL    HW255839   6.279  13.279  10.694
84648SOL     OW55840   9.599   4.161   2.199
84648SOL    HW155841   9.622   4.245   2.239
84648SOL    HW255842   9.504   4.165   2.189
84649SOL     OW55843  13.453   7.539   7.526
84649SOL    HW155844  13.398   7.616   7.512
84649SOL    HW255845  13.528   7.551   7.467
84650SOL     OW55846   2.747  13.530  13.889
84650SOL    HW155847   2.772  13.579  13.967
84650SOL    HW255848   2.693  13.591  13.838
84651SOL     OW55849   6.264  13.916   5.791
84651SOL    HW155850   6.315  13.925   5.710
84651SOL    HW255851   6.324  13.945   5.860
84652SOL     OW55852   8.813   0.495  14.527
84652SOL    HW155853   8.746   0.556  14.557
84652SOL    HW255854   8.774   0.408  14.541
84653SOL     OW55855   8.239  10.108  11.464
84653SOL    HW155856   8.216  10.025  11.422
84653SOL    HW255857   8.318  10.137  11.419
84654SOL     OW55858   1.872   6.857  11.289
84654SOL    HW155859   1.783   6.822  11.280
84654SOL    HW255860   1.872   6.901  11.374
84655SOL     OW55861   0.829   1.013   5.014
84655SOL    HW155862   0.795   0.929   4.985
84655SOL    HW255863   0.804   1.075   4.945
84656SOL     OW55864   0.591  12.169   6.423
84656SOL    HW155865   0.658  12.187   6.489
84656SOL    HW255866   0.538  12.099   6.462
84657SOL     OW55867  12.232   1.291  14.203
84657SOL    HW155868  12.232   1.227  14.132
84657SOL    HW255869  12.315   1.277  14.248
84658SOL     OW55870   3.437   4.160   8.523
84658SOL    HW155871   3.455   4.074   8.561
84658SOL    HW255872   3.476   4.156   8.436
84659SOL     OW55873   8.092   2.023   6.672
84659SOL    HW155874   8.138   2.069   6.601
84659SOL    HW255875   8.131   2.059   6.752
84660SOL     OW55876   0.112   5.192   3.441
84660SOL    HW155877   0.200   5.171   3.473
84660SOL    HW255878   0.086   5.269   3.491
84661SOL     OW55879   9.000   9.901   5.695
84661SOL    HW155880   9.009   9.814   5.732
84661SOL    HW255881   9.059   9.956   5.746
84662SOL     OW55882   9.741  10.650  13.923
84662SOL    HW155883   9.754  10.713  13.852
84662SOL    HW255884   9.653  10.669  13.956
84663SOL     OW55885  13.587   6.586   8.913
84663SOL    HW155886  13.569   6.565   9.005
84663SOL    HW255887  13.586   6.501   8.869
84664SOL     OW55888  13.503   7.181  10.815
84664SOL    HW155889  13.550   7.199  10.733
84664SOL    HW255890  13.555   7.114  10.859
84665SOL     OW55891  12.954   0.442  12.931
84665SOL    HW155892  13.016   0.473  12.865
84665SOL    HW255893  12.872   0.431  12.883
84666SOL     OW55894   7.778  10.133   7.190
84666SOL    HW155895   7.819  10.214   7.160
84666SOL    HW255896   7.800  10.069   7.123
84667SOL     OW55897   9.531   2.290  10.290
84667SOL    HW155898   9.616   2.301  10.332
84667SOL    HW255899   9.532   2.200  10.255
84668SOL     OW55900   8.058   3.199  13.656
84668SOL    HW155901   8.021   3.120  13.695
84668SOL    HW255902   8.092   3.249  13.730
84669SOL     OW55903   6.049   5.897   4.981
84669SOL    HW155904   6.119   5.891   5.046
84669SOL    HW255905   6.092   5.932   4.902
84670SOL     OW55906   6.603  13.600  11.028
84670SOL    HW155907   6.631  13.649  11.106
84670SOL    HW255908   6.512  13.576  11.047
84671SOL     OW55909   6.627   6.118  12.652
84671SOL    HW155910   6.632   6.155  12.563
84671SOL    HW255911   6.717   6.095  12.674
84672SOL     OW55912   3.761   8.615   3.607
84672SOL    HW155913   3.758   8.690   3.549
84672SOL    HW255914   3.778   8.540   3.550
84673SOL     OW55915   9.452   9.487   1.530
84673SOL    HW155916   9.463   9.573   1.570
84673SOL    HW255917   9.450   9.505   1.436
84674SOL     OW55918  12.725   9.738   1.349
84674SOL    HW155919  12.750   9.787   1.270
84674SOL    HW255920  12.707   9.650   1.317
84675SOL     OW55921  13.929   1.290  12.525
84675SOL    HW155922  13.973   1.271  12.608
84675SOL    HW255923  13.939   1.385  12.513
84676SOL     OW55924   4.535  11.298  11.863
84676SOL    HW155925   4.574  11.282  11.777
84676SOL    HW255926   4.544  11.393  11.876
84677SOL     OW55927   9.548   3.592  14.740
84677SOL    HW155928   9.603   3.663  14.772
84677SOL    HW255929   9.601   3.548  14.673
84678SOL     OW55930   7.552  10.719   0.644
84678SOL    HW155931   7.503  10.639   0.627
84678SOL    HW255932   7.633  10.690   0.687
84679SOL     OW55933  10.024   3.737   8.127
84679SOL    HW155934   9.977   3.674   8.072
84679SOL    HW255935  10.115   3.732   8.098
84680SOL     OW55936   1.717   9.471   9.799
84680SOL    HW155937   1.681   9.452   9.886
84680SOL    HW255938   1.812   9.465   9.810
84681SOL     OW55939   7.198   8.206  14.169
84681SOL    HW155940   7.244   8.265  14.228
84681SOL    HW255941   7.111   8.245  14.159
84682SOL     OW55942   7.865   3.519  11.581
84682SOL    HW155943   7.891   3.465  11.656
84682SOL    HW255944   7.816   3.459  11.524
84683SOL     OW55945   1.569   2.010  13.337
84683SOL    HW155946   1.514   2.034  13.411
84683SOL    HW255947   1.597   2.094  13.299
84684SOL     OW55948  13.175   8.592   1.957
84684SOL    HW155949  13.081   8.586   1.970
84684SOL    HW255950  13.190   8.562   1.867
84685SOL     OW55951  13.934   9.027   7.828
84685SOL    HW155952  13.895   9.110   7.802
84685SOL    HW255953  13.864   8.963   7.817
84686SOL     OW55954  14.178  11.922   4.859
84686SOL    HW155955  14.145  12.001   4.816
84686SOL    HW255956  14.270  11.918   4.832
84687SOL     OW55957  14.071  10.498   3.674
84687SOL    HW155958  14.072  10.579   3.624
84687SOL    HW255959  14.163  10.470   3.675
84688SOL     OW55960   4.659   7.445   8.325
84688SOL    HW155961   4.565   7.434   8.339
84688SOL    HW255962   4.696   7.358   8.340
84689SOL     OW55963  10.884  12.952   3.388
84689SOL    HW155964  10.914  13.034   3.429
84689SOL    HW255965  10.790  12.948   3.408
84690SOL     OW55966   3.975   2.859   3.880
84690SOL    HW155967   3.924   2.889   3.956
84690SOL    HW255968   3.925   2.890   3.805
84691SOL     OW55969   0.918   8.552  11.630
84691SOL    HW155970   0.952   8.493  11.563
84691SOL    HW255971   0.847   8.503  11.671
84692SOL     OW55972   4.968  14.659  13.130
84692SOL    HW155973   4.976  14.590  13.196
84692SOL    HW255974   4.892  14.632  13.077
84693SOL     OW55975   2.331   9.176   5.993
84693SOL    HW155976   2.315   9.200   5.901
84693SOL    HW255977   2.248   9.193   6.037
84694SOL     OW55978  13.033   9.097   0.886
84694SOL    HW155979  13.091   9.085   0.811
84694SOL    HW255980  13.089   9.134   0.955
84695SOL     OW55981  13.743   4.548   9.989
84695SOL    HW155982  13.819   4.600  10.012
84695SOL    HW255983  13.676   4.612   9.965
84696SOL     OW55984   4.429  10.414  10.446
84696SOL    HW155985   4.333  10.419  10.447
84696SOL    HW255986   4.452  10.412  10.353
84697SOL     OW55987   3.227  13.378  13.325
84697SOL    HW155988   3.313  13.351  13.358
84697SOL    HW255989   3.187  13.425  13.398
84698SOL     OW55990   8.351  14.829   2.767
84698SOL    HW155991   8.433  14.805   2.811
84698SOL    HW255992   8.306   0.010   2.831
84699SOL     OW55993   6.931   0.201  10.488
84699SOL    HW155994   6.931   0.288  10.449
84699SOL    HW255995   6.860   0.154  10.444
84700SOL     OW55996   2.097   4.927   2.647
84700SOL    HW155997   2.133   4.862   2.708
84700SOL    HW255998   2.047   4.987   2.702
84701SOL     OW55999   6.926  13.779   2.551
84701SOL    HW156000   6.982  13.794   2.475
84701SOL    HW256001   6.900  13.867   2.579
84702SOL     OW56002  10.971   1.451  11.210
84702SOL    HW156003  10.891   1.403  11.186
84702SOL    HW256004  10.966   1.461  11.305
84703SOL     OW56005   7.191   7.191   4.654
84703SOL    HW156006   7.257   7.220   4.718
84703SOL    HW256007   7.202   7.096   4.652
84704SOL     OW56008   2.860   4.230  13.201
84704SOL    HW156009   2.803   4.279  13.142
84704SOL    HW256010   2.810   4.152  13.224
84705SOL     OW56011   5.838   1.852   5.952
84705SOL    HW156012   5.787   1.928   5.981
84705SOL    HW256013   5.928   1.874   5.976
84706SOL     OW56014   5.941  10.945  14.573
84706SOL    HW156015   6.010  10.883  14.597
84706SOL    HW256016   5.868  10.924  14.631
84707SOL     OW56017  11.635   5.054  13.325
84707SOL    HW156018  11.654   4.969  13.285
84707SOL    HW256019  11.614   5.034  13.416
84708SOL     OW56020   5.938  11.290  13.548
84708SOL    HW156021   5.903  11.352  13.612
84708SOL    HW256022   5.884  11.303  13.470
84709SOL     OW56023  12.683  11.636   8.830
84709SOL    HW156024  12.694  11.649   8.736
84709SOL    HW256025  12.613  11.570   8.837
84710SOL     OW56026   4.686   3.969   5.333
84710SOL    HW156027   4.686   4.062   5.309
84710SOL    HW256028   4.679   3.970   5.428
84711SOL     OW56029   9.519   8.924   6.708
84711SOL    HW156030   9.508   8.839   6.665
84711SOL    HW256031   9.431   8.949   6.736
84712SOL     OW56032   7.527  11.315  12.974
84712SOL    HW156033   7.444  11.354  13.000
84712SOL    HW256034   7.510  11.221  12.974
84713SOL     OW56035   7.807   2.443  13.842
84713SOL    HW156036   7.877   2.503  13.869
84713SOL    HW256037   7.817   2.437  13.747
84714SOL     OW56038   8.156  11.778  11.082
84714SOL    HW156039   8.154  11.871  11.059
84714SOL    HW256040   8.246  11.763  11.113
84715SOL     OW56041   9.273  14.429   4.610
84715SOL    HW156042   9.324  14.494   4.658
84715SOL    HW256043   9.242  14.476   4.532
84716SOL     OW56044   8.141  10.799   8.491
84716SOL    HW156045   8.131  10.807   8.586
84716SOL    HW256046   8.234  10.816   8.476
84717SOL     OW56047  12.839   0.012   9.872
84717SOL    HW156048  12.923  14.843   9.855
84717SOL    HW256049  12.849   0.047   9.961
84718SOL     OW56050   6.056   6.893   9.095
84718SOL    HW156051   6.082   6.918   9.183
84718SOL    HW256052   6.030   6.801   9.103
84719SOL     OW56053   4.412   3.588   1.847
84719SOL    HW156054   4.393   3.554   1.760
84719SOL    HW256055   4.475   3.527   1.885
84720SOL     OW56056   4.258   7.957  14.056
84720SOL    HW156057   4.296   8.044  14.069
84720SOL    HW256058   4.193   7.969  13.987
84721SOL     OW56059   8.839  14.497   1.025
84721SOL    HW156060   8.869  14.418   1.071
84721SOL    HW256061   8.785  14.543   1.089
84722SOL     OW56062   1.978  10.473   4.244
84722SOL    HW156063   1.924  10.417   4.300
84722SOL    HW256064   2.064  10.430   4.244
84723SOL     OW56065   1.799   3.296   9.060
84723SOL    HW156066   1.895   3.302   9.064
84723SOL    HW256067   1.769   3.356   9.128
84724SOL     OW56068  10.678  10.058   5.472
84724SOL    HW156069  10.719  10.033   5.389
84724SOL    HW256070  10.584  10.054   5.455
84725SOL     OW56071   6.601  13.946   8.399
84725SOL    HW156072   6.612  14.037   8.374
84725SOL    HW256073   6.513  13.941   8.435
84726SOL     OW56074  10.747  11.999   6.722
84726SOL    HW156075  10.740  12.042   6.807
84726SOL    HW256076  10.749  11.905   6.743
84727SOL     OW56077  14.357   0.053   7.230
84727SOL    HW156078  14.446   0.038   7.260
84727SOL    HW256079  14.363   0.129   7.172
84728SOL     OW56080   7.214   5.100   9.999
84728SOL    HW156081   7.274   5.095  10.074
84728SOL    HW256082   7.242   5.178   9.952
84729SOL     OW56083   9.807   6.951   7.528
84729SOL    HW156084   9.815   7.030   7.581
84729SOL    HW256085   9.748   6.976   7.457
84730SOL     OW56086   5.247   2.607  13.529
84730SOL    HW156087   5.271   2.547  13.458
84730SOL    HW256088   5.331   2.634  13.567
84731SOL     OW56089   1.396   7.706   9.096
84731SOL    HW156090   1.328   7.712   9.163
84731SOL    HW256091   1.477   7.691   9.144
84732SOL     OW56092   1.769   9.112   4.840
84732SOL    HW156093   1.775   9.143   4.930
84732SOL    HW256094   1.796   9.021   4.844
84733SOL     OW56095   5.842   5.208  13.253
84733SOL    HW156096   5.831   5.113  13.244
84733SOL    HW256097   5.781   5.244  13.189
84734SOL     OW56098  12.230   7.784   2.451
84734SOL    HW156099  12.149   7.759   2.496
84734SOL    HW256100  12.232   7.880   2.458
84735SOL     OW56101   4.133   6.763  12.485
84735SOL    HW156102   4.073   6.689  12.492
84735SOL    HW256103   4.211   6.735  12.532
84736SOL     OW56104   2.348   6.308  10.576
84736SOL    HW156105   2.341   6.401  10.593
84736SOL    HW256106   2.377   6.303  10.484
84737SOL     OW56107   6.828   4.028   2.962
84737SOL    HW156108   6.820   3.936   2.989
84737SOL    HW256109   6.796   4.078   3.036
84738SOL     OW56110  11.812  13.443   9.413
84738SOL    HW156111  11.868  13.473   9.485
84738SOL    HW256112  11.793  13.352   9.434
84739SOL     OW56113  10.023   3.187  11.051
84739SOL    HW156114  10.032   3.112  11.110
84739SOL    HW256115  10.000   3.260  11.109
84740SOL     OW56116  14.595   6.848  11.030
84740SOL    HW156117  14.624   6.769  11.077
84740SOL    HW256118  14.652   6.852  10.953
84741SOL     OW56119  14.771   1.786   9.572
84741SOL    HW156120  14.862   1.814   9.569
84741SOL    HW256121  14.752   1.774   9.665
84742SOL     OW56122   2.451  13.207   8.734
84742SOL    HW156123   2.484  13.167   8.653
84742SOL    HW256124   2.389  13.142   8.769
84743SOL     OW56125  10.547   1.884   5.536
84743SOL    HW156126  10.501   1.931   5.467
84743SOL    HW256127  10.498   1.903   5.616
84744SOL     OW56128  12.258  13.388  14.469
84744SOL    HW156129  12.268  13.307  14.519
84744SOL    HW256130  12.346  13.425  14.465
84745SOL     OW56131   4.804   1.056   8.125
84745SOL    HW156132   4.791   1.139   8.080
84745SOL    HW256133   4.751   1.062   8.204
84746SOL     OW56134  13.422   7.050   1.863
84746SOL    HW156135  13.404   7.040   1.956
84746SOL    HW256136  13.466   7.135   1.856
84747SOL     OW56137   4.285   9.749   2.847
84747SOL    HW156138   4.327   9.703   2.774
84747SOL    HW256139   4.323   9.836   2.846
84748SOL     OW56140  14.235  13.321  12.641
84748SOL    HW156141  14.184  13.333  12.562
84748SOL    HW256142  14.269  13.232  12.635
84749SOL     OW56143  12.037   8.119   7.556
84749SOL    HW156144  12.016   8.055   7.624
84749SOL    HW256145  11.954   8.161   7.535
84750SOL     OW56146   5.163   1.906   4.179
84750SOL    HW156147   5.149   1.923   4.272
84750SOL    HW256148   5.091   1.952   4.135
84751SOL     OW56149  11.531  14.457   6.352
84751SOL    HW156150  11.496  14.385   6.405
84751SOL    HW256151  11.487  14.535   6.387
84752SOL     OW56152   5.610   0.212   5.054
84752SOL    HW156153   5.554   0.217   5.131
84752SOL    HW256154   5.663   0.134   5.067
84753SOL     OW56155   2.466   6.516   5.146
84753SOL    HW156156   2.380   6.552   5.129
84753SOL    HW256157   2.490   6.470   5.066
84754SOL     OW56158   9.321   4.397   8.229
84754SOL    HW156159   9.274   4.481   8.229
84754SOL    HW256160   9.267   4.340   8.284
84755SOL     OW56161  13.311   2.071   8.191
84755SOL    HW156162  13.281   2.126   8.119
84755SOL    HW256163  13.364   2.003   8.150
84756SOL     OW56164   2.921   6.636  13.873
84756SOL    HW156165   2.960   6.691  13.805
84756SOL    HW256166   2.991   6.626  13.938
84757SOL     OW56167   2.829   2.484   3.585
84757SOL    HW156168   2.879   2.537   3.522
84757SOL    HW256169   2.738   2.492   3.557
84758SOL     OW56170  10.930   0.487   5.019
84758SOL    HW156171  10.910   0.407   4.970
84758SOL    HW256172  10.846   0.514   5.055
84759SOL     OW56173  11.447  11.556   0.503
84759SOL    HW156174  11.485  11.634   0.464
84759SOL    HW256175  11.449  11.490   0.434
84760SOL     OW56176   1.368   1.080   3.189
84760SOL    HW156177   1.406   1.066   3.103
84760SOL    HW256178   1.444   1.080   3.249
84761SOL     OW56179   1.977   1.457   8.960
84761SOL    HW156180   2.056   1.457   9.014
84761SOL    HW256181   1.919   1.392   9.000
84762SOL     OW56182  11.746   5.790  11.382
84762SOL    HW156183  11.698   5.729  11.326
84762SOL    HW256184  11.745   5.873  11.334
84763SOL     OW56185  10.172  14.590  12.307
84763SOL    HW156186  10.259  14.552  12.310
84763SOL    HW256187  10.159  14.614  12.215
84764SOL     OW56188   8.460   2.930   0.504
84764SOL    HW156189   8.379   2.881   0.520
84764SOL    HW256190   8.510   2.922   0.585
84765SOL     OW56191  12.164   5.981   9.702
84765SOL    HW156192  12.128   5.929   9.630
84765SOL    HW256193  12.093   5.985   9.766
84766SOL     OW56194   7.517   0.015   4.181
84766SOL    HW156195   7.453   0.048   4.243
84766SOL    HW256196   7.561  14.819   4.228
84767SOL     OW56197   9.556  12.891   7.806
84767SOL    HW156198   9.577  12.869   7.716
84767SOL    HW256199   9.637  12.928   7.842
84768SOL     OW56200  10.130  12.822   9.635
84768SOL    HW156201  10.048  12.796   9.593
84768SOL    HW256202  10.106  12.892   9.696
84769SOL     OW56203   3.206  11.973   4.141
84769SOL    HW156204   3.237  11.941   4.056
84769SOL    HW256205   3.253  11.921   4.205
84770SOL     OW56206   0.823  10.231   1.320
84770SOL    HW156207   0.831  10.223   1.415
84770SOL    HW256208   0.818  10.140   1.289
84771SOL     OW56209  10.135  14.297  12.263
84771SOL    HW156210  10.162  14.387  12.279
84771SOL    HW256211  10.194  14.266  12.195
84772SOL     OW56212   2.391   3.814  12.113
84772SOL    HW156213   2.389   3.763  12.032
84772SOL    HW256214   2.438   3.894  12.091
84773SOL     OW56215  13.598   6.434  11.054
84773SOL    HW156216  13.579   6.447  10.961
84773SOL    HW256217  13.603   6.339  11.064
84774SOL     OW56218   2.431   8.085   7.618
84774SOL    HW156219   2.384   8.166   7.639
84774SOL    HW256220   2.374   8.041   7.555
84775SOL     OW56221   7.210  12.816   4.610
84775SOL    HW156222   7.295  12.841   4.646
84775SOL    HW256223   7.164  12.899   4.598
84776SOL     OW56224   5.751   2.713   5.621
84776SOL    HW156225   5.684   2.729   5.554
84776SOL    HW256226   5.821   2.668   5.574
84777SOL     OW56227   2.403  13.980   7.312
84777SOL    HW156228   2.438  14.062   7.277
84777SOL    HW256229   2.469  13.914   7.291
84778SOL     OW56230  13.910   9.212   8.991
84778SOL    HW156231  13.828   9.164   9.000
84778SOL    HW256232  13.906   9.251   8.904
84779SOL     OW56233  14.123   3.781   4.266
84779SOL    HW156234  14.055   3.715   4.256
84779SOL    HW256235  14.076   3.864   4.273
84780SOL     OW56236   9.425  14.181  13.898
84780SOL    HW156237   9.406  14.262  13.851
84780SOL    HW256238   9.519  14.166  13.883
84781SOL     OW56239   8.191  13.985   7.723
84781SOL    HW156240   8.260  14.005   7.786
84781SOL    HW256241   8.211  13.896   7.693
84782SOL     OW56242  12.754   7.812   8.310
84782SOL    HW156243  12.745   7.804   8.215
84782SOL    HW256244  12.829   7.871   8.322
84783SOL     OW56245   9.458   0.584  13.731
84783SOL    HW156246   9.396   0.619  13.667
84783SOL    HW256247   9.485   0.661  13.783
84784SOL     OW56248   8.259   7.594   1.271
84784SOL    HW156249   8.241   7.502   1.294
84784SOL    HW256250   8.292   7.632   1.352
84785SOL     OW56251   7.450  12.530  11.827
84785SOL    HW156252   7.513  12.583  11.779
84785SOL    HW256253   7.503  12.474  11.884
84786SOL     OW56254   1.473  13.241   7.863
84786SOL    HW156255   1.499  13.328   7.893
84786SOL    HW256256   1.377  13.245   7.858
84787SOL     OW56257   8.900  12.820   7.056
84787SOL    HW156258   8.985  12.791   7.089
84787SOL    HW256259   8.882  12.901   7.104
84788SOL     OW56260   6.666   7.222   8.503
84788SOL    HW156261   6.691   7.236   8.412
84788SOL    HW256262   6.709   7.293   8.550
84789SOL     OW56263  11.957   7.332  10.754
84789SOL    HW156264  11.887   7.392  10.781
84789SOL    HW256265  12.006   7.314  10.834
84790SOL     OW56266   5.368  13.933   0.851
84790SOL    HW156267   5.421  13.892   0.919
84790SOL    HW256268   5.311  13.862   0.819
84791SOL     OW56269  14.685  11.940  14.004
84791SOL    HW156270  14.757  11.963  14.064
84791SOL    HW256271  14.622  11.894  14.058
84792SOL     OW56272  13.601  12.782   0.063
84792SOL    HW156273  13.540  12.837   0.113
84792SOL    HW256274  13.686  12.798   0.104
84793SOL     OW56275  10.045   9.895   9.702
84793SOL    HW156276  10.022   9.940   9.783
84793SOL    HW256277   9.962   9.885   9.656
84794SOL     OW56278  10.013   9.438  13.206
84794SOL    HW156279   9.919   9.427  13.216
84794SOL    HW256280  10.029   9.530  13.226
84795SOL     OW56281   8.386   0.692   7.866
84795SOL    HW156282   8.472   0.688   7.825
84795SOL    HW256283   8.334   0.746   7.807
84796SOL     OW56284   2.925  12.716  11.686
84796SOL    HW156285   2.875  12.787  11.726
84796SOL    HW256286   2.866  12.641  11.686
84797SOL     OW56287   6.485   1.770   2.951
84797SOL    HW156288   6.567   1.775   3.000
84797SOL    HW256289   6.423   1.824   3.001
84798SOL     OW56290   4.499  10.327   7.061
84798SOL    HW156291   4.588  10.334   7.097
84798SOL    HW256292   4.448  10.290   7.133
84799SOL     OW56293   1.869   9.778  14.678
84799SOL    HW156294   1.904   9.744  14.596
84799SOL    HW256295   1.944   9.819  14.721
84800SOL     OW56296  14.325   4.466   8.544
84800SOL    HW156297  14.419   4.472   8.561
84800SOL    HW256298  14.305   4.373   8.553
84801SOL     OW56299   4.903  14.291   1.703
84801SOL    HW156300   4.857  14.209   1.687
84801SOL    HW256301   4.994  14.273   1.679
84802SOL     OW56302   7.977   7.433  12.908
84802SOL    HW156303   8.067   7.466  12.913
84802SOL    HW256304   7.927   7.503  12.867
84803SOL     OW56305  12.127   9.930   4.616
84803SOL    HW156306  12.186   9.919   4.691
84803SOL    HW256307  12.159  10.009   4.572
84804SOL     OW56308  10.291   6.635   8.486
84804SOL    HW156309  10.333   6.636   8.400
84804SOL    HW256310  10.313   6.549   8.522
84805SOL     OW56311   7.095   6.639  10.828
84805SOL    HW156312   7.132   6.727  10.828
84805SOL    HW256313   7.081   6.619  10.735
84806SOL     OW56314   1.260  12.397   8.062
84806SOL    HW156315   1.187  12.440   8.107
84806SOL    HW256316   1.331  12.399   8.126
84807SOL     OW56317   4.857   1.602  11.312
84807SOL    HW156318   4.914   1.556  11.250
84807SOL    HW256319   4.897   1.687  11.324
84808SOL     OW56320   0.733   8.442   5.783
84808SOL    HW156321   0.640   8.424   5.770
84808SOL    HW256322   0.761   8.477   5.698
84809SOL     OW56323  13.241  13.672  10.716
84809SOL    HW156324  13.237  13.768  10.717
84809SOL    HW256325  13.210  13.647  10.629
84810SOL     OW56326   5.380   9.078   5.965
84810SOL    HW156327   5.336   9.002   5.927
84810SOL    HW256328   5.357   9.150   5.907
84811SOL     OW56329   8.252   8.608   0.416
84811SOL    HW156330   8.304   8.567   0.485
84811SOL    HW256331   8.259   8.702   0.432
84812SOL     OW56332  11.843  12.996  14.143
84812SOL    HW156333  11.875  12.995  14.233
84812SOL    HW256334  11.764  12.942  14.145
84813SOL     OW56335   8.089  14.268  11.990
84813SOL    HW156336   8.185  14.271  11.981
84813SOL    HW256337   8.073  14.301  12.078
84814SOL     OW56338  11.900  14.496  12.184
84814SOL    HW156339  11.907  14.583  12.144
84814SOL    HW256340  11.895  14.435  12.111
84815SOL     OW56341   7.370   6.088   4.282
84815SOL    HW156342   7.330   6.044   4.357
84815SOL    HW256343   7.438   6.028   4.252
84816SOL     OW56344   0.639  14.041   4.064
84816SOL    HW156345   0.569  14.068   4.006
84816SOL    HW256346   0.692  13.980   4.013
84817SOL     OW56347   0.259  14.869   6.734
84817SOL    HW156348   0.180  14.871   6.789
84817SOL    HW256349   0.287   0.086   6.729
84818SOL     OW56350   8.702   1.674   0.445
84818SOL    HW156351   8.776   1.614   0.449
84818SOL    HW256352   8.741   1.761   0.456
84819SOL     OW56353   4.472   3.530   3.788
84819SOL    HW156354   4.499   3.462   3.726
84819SOL    HW256355   4.512   3.611   3.755
84820SOL     OW56356   7.352  12.608   9.295
84820SOL    HW156357   7.427  12.641   9.246
84820SOL    HW256358   7.299  12.685   9.315
84821SOL     OW56359   1.271   7.865  11.931
84821SOL    HW156360   1.240   7.947  11.968
84821SOL    HW256361   1.345   7.890  11.876
84822SOL     OW56362  11.545   2.053   3.879
84822SOL    HW156363  11.603   2.000   3.935
84822SOL    HW256364  11.599   2.127   3.853
84823SOL     OW56365  13.274   5.274   9.684
84823SOL    HW156366  13.254   5.185   9.652
84823SOL    HW256367  13.340   5.307   9.623
84824SOL     OW56368   3.270  10.836   4.611
84824SOL    HW156369   3.243  10.922   4.579
84824SOL    HW256370   3.191  10.799   4.651
84825SOL     OW56371   9.441  13.816   2.430
84825SOL    HW156372   9.475  13.901   2.458
84825SOL    HW256373   9.425  13.768   2.512
84826SOL     OW56374   1.329   5.930  14.862
84826SOL    HW156375   1.383   5.957  14.788
84826SOL    HW256376   1.392   5.895   0.051
84827SOL     OW56377   9.583  13.394  14.735
84827SOL    HW156378   9.655  13.456  14.723
84827SOL    HW256379   9.619  13.310  14.705
84828SOL     OW56380   1.143   8.509   8.781
84828SOL    HW156381   1.217   8.566   8.762
84828SOL    HW256382   1.108   8.486   8.695
84829SOL     OW56383   6.336   4.543   3.306
84829SOL    HW156384   6.380   4.551   3.391
84829SOL    HW256385   6.292   4.626   3.294
84830SOL     OW56386  11.609   9.753   4.126
84830SOL    HW156387  11.649   9.839   4.131
84830SOL    HW256388  11.561   9.753   4.043
84831SOL     OW56389   8.660   3.642   0.364
84831SOL    HW156390   8.572   3.609   0.344
84831SOL    HW256391   8.686   3.690   0.285
84832SOL     OW56392   7.990  14.565   2.414
84832SOL    HW156393   8.049  14.625   2.460
84832SOL    HW256394   8.047  14.497   2.379
84833SOL     OW56395   0.053   5.852   2.476
84833SOL    HW156396   0.028   5.940   2.505
84833SOL    HW256397   0.055   5.800   2.557
84834SOL     OW56398   8.944   7.168   7.227
84834SOL    HW156399   8.930   7.106   7.155
84834SOL    HW256400   8.991   7.241   7.187
84835SOL     OW56401  10.197  11.817   6.606
84835SOL    HW156402  10.134  11.809   6.678
84835SOL    HW256403  10.280  11.835   6.649
84836SOL     OW56404   0.777   8.773  12.146
84836SOL    HW156405   0.723   8.851  12.140
84836SOL    HW256406   0.829   8.786  12.226
84837SOL     OW56407   9.068   4.623   0.571
84837SOL    HW156408   9.020   4.650   0.492
84837SOL    HW256409   9.105   4.538   0.548
84838SOL     OW56410  11.875  11.225   8.004
84838SOL    HW156411  11.931  11.282   8.055
84838SOL    HW256412  11.787  11.262   8.015
84839SOL     OW56413   5.722   9.141   5.252
84839SOL    HW156414   5.689   9.180   5.333
84839SOL    HW256415   5.654   9.157   5.188
84840SOL     OW56416   0.558   6.437   6.073
84840SOL    HW156417   0.644   6.447   6.032
84840SOL    HW256418   0.500   6.494   6.022
84841SOL     OW56419  11.523  14.535   3.278
84841SOL    HW156420  11.473  14.526   3.196
84841SOL    HW256421  11.456  14.535   3.346
84842SOL     OW56422   2.976  12.113   5.157
84842SOL    HW156423   2.940  12.136   5.242
84842SOL    HW256424   2.996  12.197   5.115
84843SOL     OW56425   4.698   0.250   6.832
84843SOL    HW156426   4.711   0.175   6.890
84843SOL    HW256427   4.633   0.304   6.877
84844SOL     OW56428  13.361   8.772   7.923
84844SOL    HW156429  13.293   8.716   7.960
84844SOL    HW256430  13.336   8.785   7.832
84845SOL     OW56431   3.976  12.232  10.109
84845SOL    HW156432   3.982  12.204  10.200
84845SOL    HW256433   3.914  12.171  10.069
84846SOL     OW56434   6.201  12.381   5.130
84846SOL    HW156435   6.218  12.444   5.199
84846SOL    HW256436   6.288  12.355   5.099
84847SOL     OW56437  10.659   6.593  10.968
84847SOL    HW156438  10.632   6.517  11.020
84847SOL    HW256439  10.735   6.562  10.919
84848SOL     OW56440  12.911   6.311   7.826
84848SOL    HW156441  12.922   6.406   7.831
84848SOL    HW256442  12.825   6.295   7.864
84849SOL     OW56443   6.360   9.640   0.564
84849SOL    HW156444   6.290   9.678   0.511
84849SOL    HW256445   6.362   9.694   0.643
84850SOL     OW56446   5.871  14.619   3.630
84850SOL    HW156447   5.854  14.712   3.649
84850SOL    HW256448   5.855  14.611   3.536
84851SOL     OW56449  13.397   4.466   1.413
84851SOL    HW156450  13.320   4.413   1.396
84851SOL    HW256451  13.470   4.415   1.380
84852SOL     OW56452   2.577  11.549  13.607
84852SOL    HW156453   2.640  11.621  13.602
84852SOL    HW256454   2.626  11.476  13.645
84853SOL     OW56455   9.143  11.511   2.010
84853SOL    HW156456   9.063  11.476   1.972
84853SOL    HW256457   9.114  11.557   2.089
84854SOL     OW56458   7.097  10.664   2.167
84854SOL    HW156459   7.048  10.742   2.192
84854SOL    HW256460   7.051  10.630   2.090
84855SOL     OW56461  12.145   6.454   6.589
84855SOL    HW156462  12.196   6.376   6.566
84855SOL    HW256463  12.059   6.420   6.612
84856SOL     OW56464  14.250   7.901  10.951
84856SOL    HW156465  14.255   7.992  10.923
84856SOL    HW256466  14.170   7.867  10.910
84857SOL     OW56467   1.315   6.658   6.270
84857SOL    HW156468   1.346   6.568   6.257
84857SOL    HW256469   1.339   6.703   6.189
84858SOL     OW56470   5.863  12.501   6.278
84858SOL    HW156471   5.812  12.562   6.225
84858SOL    HW256472   5.943  12.485   6.228
84859SOL     OW56473  11.774  10.074   6.022
84859SOL    HW156474  11.698  10.017   6.035
84859SOL    HW256475  11.769  10.099   5.930
84860SOL     OW56476   7.922   4.754  14.376
84860SOL    HW156477   7.981   4.698  14.426
84860SOL    HW256478   7.980   4.820  14.337
84861SOL     OW56479   9.704   8.244  13.756
84861SOL    HW156480   9.738   8.180  13.819
84861SOL    HW256481   9.782   8.273  13.708
84862SOL     OW56482   3.921   4.388  12.947
84862SOL    HW156483   4.007   4.400  12.988
84862SOL    HW256484   3.910   4.465  12.891
84863SOL     OW56485   4.091   4.791  14.288
84863SOL    HW156486   4.119   4.725  14.225
84863SOL    HW256487   3.999   4.771  14.304
84864SOL     OW56488   8.337   5.731   9.374
84864SOL    HW156489   8.388   5.800   9.415
84864SOL    HW256490   8.314   5.672   9.447
84865SOL     OW56491  12.212   3.710   2.604
84865SOL    HW156492  12.144   3.763   2.646
84865SOL    HW256493  12.238   3.762   2.528
84866SOL     OW56494   2.266  11.633  13.295
84866SOL    HW156495   2.311  11.698  13.241
84866SOL    HW256496   2.229  11.571  13.232
84867SOL     OW56497   4.337   3.322  11.130
84867SOL    HW156498   4.406   3.258  11.116
84867SOL    HW256499   4.256   3.271  11.124
84868SOL     OW56500   4.257   5.566   5.089
84868SOL    HW156501   4.324   5.501   5.111
84868SOL    HW256502   4.295   5.650   5.116
84869SOL     OW56503  12.623   7.201   5.328
84869SOL    HW156504  12.543   7.193   5.379
84869SOL    HW256505  12.674   7.123   5.351
84870SOL     OW56506   1.387   1.203   5.971
84870SOL    HW156507   1.325   1.138   5.941
84870SOL    HW256508   1.457   1.153   6.014
84871SOL     OW56509   2.759   8.602   4.693
84871SOL    HW156510   2.792   8.520   4.730
84871SOL    HW256511   2.820   8.669   4.723
84872SOL     OW56512   8.812   7.863   0.309
84872SOL    HW156513   8.742   7.819   0.261
84872SOL    HW256514   8.890   7.813   0.288
84873SOL     OW56515   0.303   9.949   9.082
84873SOL    HW156516   0.383   9.980   9.038
84873SOL    HW256517   0.245  10.025   9.082
84874SOL     OW56518  10.454  12.792  10.502
84874SOL    HW156519  10.549  12.792  10.517
84874SOL    HW256520  10.421  12.865  10.555
84875SOL     OW56521  10.621   1.856  10.006
84875SOL    HW156522  10.682   1.877   9.936
84875SOL    HW256523  10.616   1.761  10.007
84876SOL     OW56524   8.580   4.878   3.498
84876SOL    HW156525   8.609   4.792   3.528
84876SOL    HW256526   8.485   4.876   3.509
84877SOL     OW56527   9.122   9.880   9.882
84877SOL    HW156528   9.142   9.817   9.814
84877SOL    HW256529   9.187   9.863   9.951
84878SOL     OW56530   9.238  13.294   7.848
84878SOL    HW156531   9.251  13.201   7.828
84878SOL    HW256532   9.213  13.295   7.940
84879SOL     OW56533   4.186   5.182   2.054
84879SOL    HW156534   4.138   5.249   2.006
84879SOL    HW256535   4.143   5.178   2.140
84880SOL     OW56536  10.582   1.568   9.664
84880SOL    HW156537  10.661   1.599   9.620
84880SOL    HW256538  10.581   1.474   9.648
84881SOL     OW56539   0.969  10.058   7.272
84881SOL    HW156540   1.002  10.113   7.343
84881SOL    HW256541   1.012  10.092   7.193
84882SOL     OW56542  11.837   3.493   8.981
84882SOL    HW156543  11.864   3.554   8.913
84882SOL    HW256544  11.829   3.546   9.060
84883SOL     OW56545   5.297  12.568   6.961
84883SOL    HW156546   5.370  12.629   6.968
84883SOL    HW256547   5.228  12.607   7.015
84884SOL     OW56548  14.458   0.022  14.866
84884SOL    HW156549  14.390   0.090  14.869
84884SOL    HW256550  14.409  14.815  14.862
84885SOL     OW56551  13.764   4.213  10.958
84885SOL    HW156552  13.754   4.233  10.864
84885SOL    HW256553  13.817   4.133  10.960
84886SOL     OW56554   4.118  10.264   2.723
84886SOL    HW156555   4.045  10.255   2.661
84886SOL    HW256556   4.149  10.353   2.710
84887SOL     OW56557   5.107   3.590   8.593
84887SOL    HW156558   5.094   3.496   8.607
84887SOL    HW256559   5.050   3.612   8.519
84888SOL     OW56560   6.355   0.411  10.196
84888SOL    HW156561   6.377   0.319  10.207
84888SOL    HW256562   6.266   0.411  10.162
84889SOL     OW56563  11.871   0.973  10.071
84889SOL    HW156564  11.892   1.016   9.988
84889SOL    HW256565  11.814   1.035  10.116
84890SOL     OW56566   5.583   4.663  13.251
84890SOL    HW156567   5.489   4.647  13.250
84890SOL    HW256568   5.612   4.643  13.162
84891SOL     OW56569  14.359   8.479   2.680
84891SOL    HW156570  14.416   8.555   2.668
84891SOL    HW256571  14.339   8.480   2.774
84892SOL     OW56572   1.231   8.445  12.285
84892SOL    HW156573   1.227   8.433  12.190
84892SOL    HW256574   1.319   8.481  12.301
84893SOL     OW56575   6.020   5.459  12.198
84893SOL    HW156576   5.974   5.438  12.117
84893SOL    HW256577   6.004   5.552  12.212
84894SOL     OW56578   9.486  11.622   8.533
84894SOL    HW156579   9.484  11.718   8.532
84894SOL    HW256580   9.558  11.599   8.475
84895SOL     OW56581   1.318  11.366   6.441
84895SOL    HW156582   1.411  11.340   6.436
84895SOL    HW256583   1.316  11.433   6.509
84896SOL     OW56584  13.095   0.399   2.700
84896SOL    HW156585  13.025   0.436   2.755
84896SOL    HW256586  13.059   0.402   2.612
84897SOL     OW56587  10.689   2.113   0.843
84897SOL    HW156588  10.661   2.102   0.933
84897SOL    HW256589  10.608   2.115   0.792
84898SOL     OW56590   6.052  10.101  12.382
84898SOL    HW156591   6.058  10.174  12.444
84898SOL    HW256592   6.067  10.024  12.436
84899SOL     OW56593   1.935   1.705   2.945
84899SOL    HW156594   1.978   1.684   2.862
84899SOL    HW256595   2.005   1.742   2.999
84900SOL     OW56596   6.176   5.603   0.170
84900SOL    HW156597   6.180   5.648   0.255
84900SOL    HW256598   6.159   5.673   0.107
84901SOL     OW56599  12.005   0.228   4.610
84901SOL    HW156600  11.958   0.199   4.532
84901SOL    HW256601  11.941   0.218   4.681
84902SOL     OW56602  13.407   6.249  11.357
84902SOL    HW156603  13.372   6.175  11.307
84902SOL    HW256604  13.502   6.238  11.353
84903SOL     OW56605   9.630   0.657  12.428
84903SOL    HW156606   9.633   0.738  12.376
84903SOL    HW256607   9.716   0.617  12.417
84904SOL     OW56608   7.398   9.003   8.056
84904SOL    HW156609   7.484   9.039   8.076
84904SOL    HW256610   7.417   8.918   8.016
84905SOL     OW56611   2.300   4.100  13.192
84905SOL    HW156612   2.216   4.061  13.217
84905SOL    HW256613   2.276   4.174  13.137
84906SOL     OW56614  11.627   7.402   1.909
84906SOL    HW156615  11.705   7.365   1.951
84906SOL    HW256616  11.554   7.350   1.942
84907SOL     OW56617   0.945   0.693   5.069
84907SOL    HW156618   0.872   0.710   5.010
84907SOL    HW256619   1.012   0.757   5.043
84908SOL     OW56620   2.047  12.514  13.793
84908SOL    HW156621   1.964  12.468  13.777
84908SOL    HW256622   2.048  12.583  13.726
84909SOL     OW56623   4.776   1.819   6.813
84909SOL    HW156624   4.796   1.912   6.813
84909SOL    HW256625   4.842   1.780   6.755
84910SOL     OW56626  10.782  14.213   8.649
84910SOL    HW156627  10.728  14.155   8.596
84910SOL    HW256628  10.780  14.175   8.737
84911SOL     OW56629   2.376  11.039   3.319
84911SOL    HW156630   2.321  11.061   3.394
84911SOL    HW256631   2.322  10.979   3.266
84912SOL     OW56632  11.868   7.841   9.291
84912SOL    HW156633  11.832   7.808   9.208
84912SOL    HW256634  11.810   7.805   9.358
84913SOL     OW56635  10.401  10.113  10.471
84913SOL    HW156636  10.381  10.172  10.544
84913SOL    HW256637  10.495  10.123  10.457
84914SOL     OW56638   4.433   8.925  11.377
84914SOL    HW156639   4.339   8.941  11.362
84914SOL    HW256640   4.450   8.964  11.463
84915SOL     OW56641   3.876   8.045  11.232
84915SOL    HW156642   3.803   8.003  11.279
84915SOL    HW256643   3.840   8.064  11.145
84916SOL     OW56644   3.741  14.025  14.026
84916SOL    HW156645   3.805  13.964  13.990
84916SOL    HW256646   3.681  13.970  14.076
84917SOL     OW56647   0.046  12.604   8.999
84917SOL    HW156648   0.077  12.609   8.909
84917SOL    HW256649   0.104  12.661   9.048
84918SOL     OW56650   0.452   0.466  10.980
84918SOL    HW156651   0.358   0.470  10.999
84918SOL    HW256652   0.474   0.374  10.990
84919SOL     OW56653  10.526   4.885   1.234
84919SOL    HW156654  10.521   4.878   1.139
84919SOL    HW256655  10.440   4.857   1.264
84920SOL     OW56656   3.620  12.185   3.289
84920SOL    HW156657   3.617  12.089   3.291
84920SOL    HW256658   3.695  12.205   3.232
84921SOL     OW56659   1.905  12.599  14.730
84921SOL    HW156660   1.908  12.686  14.770
84921SOL    HW256661   1.996  12.569  14.733
84922SOL     OW56662   4.622   6.481  14.111
84922SOL    HW156663   4.668   6.523  14.183
84922SOL    HW256664   4.685   6.418  14.075
84923SOL     OW56665   3.108  11.678   2.208
84923SOL    HW156666   3.073  11.589   2.217
84923SOL    HW256667   3.031  11.735   2.214
84924SOL     OW56668  14.102   2.098   8.674
84924SOL    HW156669  14.016   2.122   8.709
84924SOL    HW256670  14.160   2.168   8.702
84925SOL     OW56671   4.477   1.662   2.708
84925SOL    HW156672   4.462   1.660   2.802
84925SOL    HW256673   4.569   1.637   2.697
84926SOL     OW56674   5.517   5.346   7.015
84926SOL    HW156675   5.588   5.342   7.079
84926SOL    HW256676   5.518   5.437   6.984
84927SOL     OW56677   8.647  11.684   0.020
84927SOL    HW156678   8.552  11.673   0.015
84927SOL    HW256679   8.659  11.769   0.061
84928SOL     OW56680  11.837  14.665  14.095
84928SOL    HW156681  11.854  14.604  14.024
84928SOL    HW256682  11.742  14.672  14.099
84929SOL     OW56683  12.710  11.871   3.923
84929SOL    HW156684  12.660  11.952   3.934
84929SOL    HW256685  12.767  11.868   4.000
84930SOL     OW56686   0.723  11.888   1.921
84930SOL    HW156687   0.741  11.847   1.837
84930SOL    HW256688   0.633  11.862   1.942
84931SOL     OW56689  13.459   5.640   9.755
84931SOL    HW156690  13.481   5.564   9.701
84931SOL    HW256691  13.383   5.611   9.806
84932SOL     OW56692  12.737   2.498  13.937
84932SOL    HW156693  12.809   2.446  13.971
84932SOL    HW256694  12.697   2.442  13.870
84933SOL     OW56695   3.669   0.661   8.506
84933SOL    HW156696   3.748   0.638   8.555
84933SOL    HW256697   3.656   0.589   8.445
84934SOL     OW56698  14.872  10.432   6.468
84934SOL    HW156699   0.022  10.343   6.443
84934SOL    HW256700  14.794  10.450   6.416
84935SOL     OW56701   9.633  11.183   0.807
84935SOL    HW156702   9.692  11.145   0.873
84935SOL    HW256703   9.665  11.272   0.797
84936SOL     OW56704   1.376   1.529  14.007
84936SOL    HW156705   1.298   1.555  14.056
84936SOL    HW256706   1.428   1.610  14.002
84937SOL     OW56707   6.880   6.973  12.608
84937SOL    HW156708   6.950   6.934  12.661
84937SOL    HW256709   6.807   6.911  12.616
84938SOL     OW56710  11.376  12.584   2.792
84938SOL    HW156711  11.329  12.612   2.714
84938SOL    HW256712  11.432  12.659   2.814
84939SOL     OW56713   2.492   9.546  10.672
84939SOL    HW156714   2.418   9.607  10.667
84939SOL    HW256715   2.535   9.555  10.587
84940SOL     OW56716   8.883   5.915  14.365
84940SOL    HW156717   8.847   5.840  14.412
84940SOL    HW256718   8.817   5.984  14.374
84941SOL     OW56719   5.869   8.496   9.823
84941SOL    HW156720   5.839   8.552   9.894
84941SOL    HW256721   5.833   8.535   9.743
84942SOL     OW56722  13.600   0.702   3.886
84942SOL    HW156723  13.572   0.778   3.836
84942SOL    HW256724  13.531   0.689   3.950
84943SOL     OW56725   4.391   1.360   7.625
84943SOL    HW156726   4.309   1.400   7.596
84943SOL    HW256727   4.383   1.268   7.603
84944SOL     OW56728   5.239  10.146  11.911
84944SOL    HW156729   5.271  10.067  11.869
84944SOL    HW256730   5.183  10.188  11.845
84945SOL     OW56731   9.919   0.676   2.581
84945SOL    HW156732   9.906   0.613   2.511
84945SOL    HW256733   9.851   0.657   2.645
84946SOL     OW56734  10.524  10.082   9.650
84946SOL    HW156735  10.516  10.167   9.605
84946SOL    HW256736  10.436  10.065   9.684
84947SOL     OW56737   3.682   3.073   4.763
84947SOL    HW156738   3.721   3.100   4.680
84947SOL    HW256739   3.591   3.051   4.742
84948SOL     OW56740   0.903   0.057   5.812
84948SOL    HW156741   0.918   0.150   5.827
84948SOL    HW256742   0.849   0.054   5.733
84949SOL     OW56743   5.823  12.940   7.402
84949SOL    HW156744   5.908  12.976   7.426
84949SOL    HW256745   5.814  12.861   7.456
84950SOL     OW56746   0.453   6.554   1.998
84950SOL    HW156747   0.419   6.644   2.000
84950SOL    HW256748   0.503   6.550   1.916
84951SOL     OW56749   0.700  12.187   9.650
84951SOL    HW156750   0.651  12.155   9.725
84951SOL    HW256751   0.775  12.233   9.688
84952SOL     OW56752  12.491   3.975  11.381
84952SOL    HW156753  12.565   3.938  11.430
84952SOL    HW256754  12.530   4.005  11.299
84953SOL     OW56755   3.280  10.494   3.941
84953SOL    HW156756   3.206  10.458   3.989
84953SOL    HW256757   3.344  10.517   4.008
84954SOL     OW56758  13.252  12.974   0.393
84954SOL    HW156759  13.196  12.979   0.316
84954SOL    HW256760  13.341  12.976   0.358
84955SOL     OW56761   4.921   4.231  10.423
84955SOL    HW156762   4.853   4.164  10.424
84955SOL    HW256763   4.926   4.261  10.514
84956SOL     OW56764   7.595   8.240   4.646
84956SOL    HW156765   7.608   8.249   4.740
84956SOL    HW256766   7.644   8.312   4.607
84957SOL     OW56767  12.249  13.329  13.646
84957SOL    HW156768  12.211  13.244  13.670
84957SOL    HW256769  12.189  13.364  13.580
84958SOL     OW56770   7.424   5.084   1.842
84958SOL    HW156771   7.490   5.074   1.774
84958SOL    HW256772   7.429   5.004   1.894
84959SOL     OW56773  11.488  11.244   6.136
84959SOL    HW156774  11.427  11.199   6.196
84959SOL    HW256775  11.458  11.220   6.049
84960SOL     OW56776   9.956   7.176  12.277
84960SOL    HW156777   9.951   7.205  12.186
84960SOL    HW256778   9.987   7.086  12.273
84961SOL     OW56779  13.111   7.045   0.562
84961SOL    HW156780  13.047   6.975   0.552
84961SOL    HW256781  13.161   7.022   0.640
84962SOL     OW56782   5.470   2.379   7.108
84962SOL    HW156783   5.503   2.459   7.068
84962SOL    HW256784   5.427   2.408   7.188
84963SOL     OW56785   3.555   4.106  10.469
84963SOL    HW156786   3.599   4.040  10.522
84963SOL    HW256787   3.625   4.150  10.421
84964SOL     OW56788  14.298   8.935   6.644
84964SOL    HW156789  14.309   8.947   6.550
84964SOL    HW256790  14.356   9.000   6.684
84965SOL     OW56791   3.312   9.405  12.920
84965SOL    HW156792   3.250   9.469  12.885
84965SOL    HW256793   3.318   9.338  12.851
84966SOL     OW56794   7.480   5.439   4.775
84966SOL    HW156795   7.506   5.379   4.706
84966SOL    HW256796   7.445   5.515   4.729
84967SOL     OW56797   6.727   7.673  11.396
84967SOL    HW156798   6.752   7.637  11.481
84967SOL    HW256799   6.790   7.743  11.380
84968SOL     OW56800   1.438   7.906   8.653
84968SOL    HW156801   1.368   7.852   8.616
84968SOL    HW256802   1.397   7.951   8.727
84969SOL     OW56803   3.951   0.003   5.418
84969SOL    HW156804   3.958   0.084   5.468
84969SOL    HW256805   3.898  14.820   5.473
84970SOL     OW56806  14.068   8.864  11.673
84970SOL    HW156807  14.154   8.892  11.640
84970SOL    HW256808  14.074   8.768  11.676
84971SOL     OW56809  13.728  12.731   8.177
84971SOL    HW156810  13.734  12.645   8.135
84971SOL    HW256811  13.668  12.717   8.251
84972SOL     OW56812  11.785  14.162  11.638
84972SOL    HW156813  11.809  14.135  11.550
84972SOL    HW256814  11.708  14.217  11.626
84973SOL     OW56815  10.258   9.019   0.364
84973SOL    HW156816  10.297   9.012   0.451
84973SOL    HW256817  10.236   9.112   0.355
84974SOL     OW56818   8.070   3.823   0.750
84974SOL    HW156819   8.117   3.840   0.831
84974SOL    HW256820   8.045   3.909   0.718
84975SOL     OW56821   0.866   5.832  13.103
84975SOL    HW156822   0.817   5.766  13.054
84975SOL    HW256823   0.859   5.911  13.049
84976SOL     OW56824   0.486  13.384   0.470
84976SOL    HW156825   0.431  13.387   0.549
84976SOL    HW256826   0.524  13.297   0.471
84977SOL     OW56827   5.930  13.224   1.896
84977SOL    HW156828   5.850  13.239   1.846
84977SOL    HW256829   5.909  13.252   1.985
84978SOL     OW56830  12.670   4.584  12.894
84978SOL    HW156831  12.608   4.522  12.933
84978SOL    HW256832  12.627   4.669  12.904
84979SOL     OW56833  10.571   7.218   9.885
84979SOL    HW156834  10.487   7.264   9.892
84979SOL    HW256835  10.636   7.285   9.904
84980SOL     OW56836   7.929   8.217   1.371
84980SOL    HW156837   7.927   8.137   1.319
84980SOL    HW256838   7.840   8.226   1.404
84981SOL     OW56839   0.678   4.585   1.361
84981SOL    HW156840   0.766   4.569   1.328
84981SOL    HW256841   0.654   4.504   1.406
84982SOL     OW56842   0.556  11.504   4.961
84982SOL    HW156843   0.598  11.417   4.963
84982SOL    HW256844   0.529  11.519   5.052
84983SOL     OW56845   9.668   4.725   7.257
84983SOL    HW156846   9.638   4.640   7.225
84983SOL    HW256847   9.600   4.787   7.231
84984SOL     OW56848   4.823   6.202  12.205
84984SOL    HW156849   4.883   6.214  12.279
84984SOL    HW256850   4.869   6.241  12.131
84985SOL     OW56851   4.448   7.130  11.046
84985SOL    HW156852   4.530   7.179  11.053
84985SOL    HW256853   4.385   7.180  11.097
84986SOL     OW56854   0.363   0.866  10.132
84986SOL    HW156855   0.307   0.798  10.094
84986SOL    HW256856   0.308   0.945  10.131
84987SOL     OW56857  14.746  10.993   9.717
84987SOL    HW156858  14.660  11.031   9.735
84987SOL    HW256859  14.747  10.979   9.623
84988SOL     OW56860   1.303  13.572  12.982
84988SOL    HW156861   1.322  13.526  12.900
84988SOL    HW256862   1.295  13.664  12.957
84989SOL     OW56863   0.050   3.097   2.997
84989SOL    HW156864   0.064   3.018   2.945
84989SOL    HW256865   0.107   3.162   2.957
84990SOL     OW56866   9.886   4.295   7.825
84990SOL    HW156867   9.856   4.210   7.793
84990SOL    HW256868   9.930   4.276   7.908
84991SOL     OW56869  13.288   4.736   1.180
84991SOL    HW156870  13.269   4.773   1.094
84991SOL    HW256871  13.209   4.752   1.232
84992SOL     OW56872  11.521   3.737   8.677
84992SOL    HW156873  11.496   3.665   8.618
84992SOL    HW256874  11.521   3.698   8.764
84993SOL     OW56875   2.378   7.329   7.476
84993SOL    HW156876   2.442   7.356   7.411
84993SOL    HW256877   2.381   7.233   7.476
84994SOL     OW56878   1.373   4.995   7.233
84994SOL    HW156879   1.459   4.994   7.192
84994SOL    HW256880   1.367   5.081   7.274
84995SOL     OW56881   8.767   9.126   2.308
84995SOL    HW156882   8.838   9.109   2.246
84995SOL    HW256883   8.811   9.150   2.389
84996SOL     OW56884  10.050  10.450   3.488
84996SOL    HW156885  10.103  10.474   3.412
84996SOL    HW256886   9.987  10.386   3.455
84997SOL     OW56887   1.341  14.220   6.293
84997SOL    HW156888   1.255  14.202   6.330
84997SOL    HW256889   1.343  14.314   6.278
84998SOL     OW56890   7.110   5.569  10.004
84998SOL    HW156891   7.026   5.524   9.997
84998SOL    HW256892   7.161   5.515  10.065
84999SOL     OW56893   8.220   7.585   5.177
84999SOL    HW156894   8.231   7.580   5.272
84999SOL    HW256895   8.127   7.604   5.164
85000SOL     OW56896  13.187   7.723  13.003
85000SOL    HW156897  13.156   7.812  13.017
85000SOL    HW256898  13.158   7.701  12.914
85001SOL     OW56899   8.876  10.322   7.847
85001SOL    HW156900   8.924  10.239   7.843
85001SOL    HW256901   8.944  10.389   7.851
85002SOL     OW56902   4.613  11.784   1.295
85002SOL    HW156903   4.680  11.730   1.337
85002SOL    HW256904   4.556  11.812   1.366
85003SOL     OW56905   0.892  11.898   8.948
85003SOL    HW156906   0.956  11.943   9.004
85003SOL    HW256907   0.812  11.948   8.958
85004SOL     OW56908  13.446   5.027   0.448
85004SOL    HW156909  13.388   5.042   0.373
85004SOL    HW256910  13.460   4.932   0.448
85005SOL     OW56911   9.747  13.347   3.623
85005SOL    HW156912   9.694  13.397   3.562
85005SOL    HW256913   9.706  13.360   3.708
85006SOL     OW56914   5.533   2.022   9.238
85006SOL    HW156915   5.611   1.971   9.259
85006SOL    HW256916   5.484   1.967   9.177
85007SOL     OW56917  12.986   2.914   1.178
85007SOL    HW156918  12.899   2.947   1.200
85007SOL    HW256919  12.979   2.885   1.088
85008SOL     OW56920  11.530   4.739   6.680
85008SOL    HW156921  11.565   4.789   6.607
85008SOL    HW256922  11.442   4.774   6.694
85009SOL     OW56923   8.771  13.082  10.856
85009SOL    HW156924   8.843  13.113  10.911
85009SOL    HW256925   8.692  13.114  10.898
85010SOL     OW56926   5.169   8.356   1.317
85010SOL    HW156927   5.217   8.408   1.252
85010SOL    HW256928   5.230   8.286   1.342
85011SOL     OW56929  14.183   1.918  14.152
85011SOL    HW156930  14.166   1.988  14.214
85011SOL    HW256931  14.224   1.849  14.204
85012SOL     OW56932   6.824   3.213   4.629
85012SOL    HW156933   6.875   3.288   4.658
85012SOL    HW256934   6.873   3.137   4.661
85013SOL     OW56935   1.820  13.679   2.145
85013SOL    HW156936   1.914  13.685   2.131
85013SOL    HW256937   1.784  13.656   2.059
85014SOL     OW56938  14.518   7.544   0.220
85014SOL    HW156939  14.570   7.591   0.155
85014SOL    HW256940  14.572   7.469   0.244
85015SOL     OW56941   5.923   4.289  13.767
85015SOL    HW156942   5.965   4.319  13.847
85015SOL    HW256943   5.848   4.348  13.755
85016SOL     OW56944  11.470   2.528   2.209
85016SOL    HW156945  11.550   2.516   2.158
85016SOL    HW256946  11.492   2.498   2.297
85017SOL     OW56947  11.824   4.404   0.831
85017SOL    HW156948  11.914   4.370   0.824
85017SOL    HW256949  11.773   4.328   0.858
85018SOL     OW56950  11.151   4.910   6.385
85018SOL    HW156951  11.071   4.959   6.404
85018SOL    HW256952  11.140   4.879   6.295
85019SOL     OW56953   4.914   8.775   9.481
85019SOL    HW156954   4.936   8.692   9.439
85019SOL    HW256955   4.990   8.797   9.534
85020SOL     OW56956   4.506   8.529   3.060
85020SOL    HW156957   4.442   8.547   2.992
85020SOL    HW256958   4.459   8.473   3.122
85021SOL     OW56959  13.482   7.595  10.740
85021SOL    HW156960  13.454   7.597  10.832
85021SOL    HW256961  13.549   7.527  10.737
85022SOL     OW56962   5.602  14.630   0.633
85022SOL    HW156963   5.544  14.578   0.688
85022SOL    HW256964   5.567  14.719   0.639
85023SOL     OW56965   8.896   1.522   9.705
85023SOL    HW156966   8.813   1.496   9.745
85023SOL    HW256967   8.949   1.555   9.778
85024SOL     OW56968   3.022   1.364  11.516
85024SOL    HW156969   2.972   1.432  11.562
85024SOL    HW256970   2.961   1.330  11.450
85025SOL     OW56971   2.868   8.516   8.054
85025SOL    HW156972   2.855   8.421   8.058
85025SOL    HW256973   2.907   8.532   7.968
85026SOL     OW56974  13.496   2.702   5.214
85026SOL    HW156975  13.573   2.650   5.190
85026SOL    HW256976  13.422   2.643   5.199
85027SOL     OW56977   3.703  10.527  11.615
85027SOL    HW156978   3.694  10.514  11.520
85027SOL    HW256979   3.696  10.622  11.626
85028SOL     OW56980   8.996   7.942   6.475
85028SOL    HW156981   9.088   7.968   6.472
85028SOL    HW256982   8.971   7.931   6.383
85029SOL     OW56983   7.994   7.083   4.968
85029SOL    HW156984   7.946   7.011   5.007
85029SOL    HW256985   7.927   7.148   4.946
85030SOL     OW56986   4.507  14.741   0.821
85030SOL    HW156987   4.502  14.729   0.915
85030SOL    HW256988   4.418  14.762   0.794
85031SOL     OW56989  10.719  14.154   5.835
85031SOL    HW156990  10.806  14.114   5.837
85031SOL    HW256991  10.736  14.248   5.824
85032SOL     OW56992   5.416  11.295   9.007
85032SOL    HW156993   5.397  11.249   8.925
85032SOL    HW256994   5.334  11.340   9.029
85033SOL     OW56995   6.209   4.057   6.006
85033SOL    HW156996   6.200   4.095   5.918
85033SOL    HW256997   6.151   4.110   6.061
85034SOL     OW56998  13.161   6.872   2.365
85034SOL    HW156999  13.066   6.870   2.357
85034SOL    HW257000  13.180   6.961   2.396
85035SOL     OW57001   1.828   6.932   5.370
85035SOL    HW157002   1.796   6.967   5.286
85035SOL    HW257003   1.892   6.996   5.400
85036SOL     OW57004  10.505  10.173  11.301
85036SOL    HW157005  10.519  10.116  11.225
85036SOL    HW257006  10.561  10.136  11.369
85037SOL     OW57007   4.361   0.884   6.617
85037SOL    HW157008   4.452   0.871   6.589
85037SOL    HW257009   4.310   0.875   6.537
85038SOL     OW57010   5.170  13.252  12.156
85038SOL    HW157011   5.151  13.238  12.249
85038SOL    HW257012   5.174  13.347  12.146
85039SOL     OW57013  13.711   4.312   2.287
85039SOL    HW157014  13.716   4.351   2.374
85039SOL    HW257015  13.802   4.310   2.257
85040SOL     OW57016  11.694   0.561  10.102
85040SOL    HW157017  11.646   0.555  10.019
85040SOL    HW257018  11.780   0.596  10.077
85041SOL     OW57019   1.068   2.556   8.438
85041SOL    HW157020   1.052   2.497   8.364
85041SOL    HW257021   1.157   2.535   8.466
85042SOL     OW57022   6.986   9.622  10.192
85042SOL    HW157023   6.910   9.576  10.156
85042SOL    HW257024   7.060   9.566  10.170
85043SOL     OW57025  14.337   4.847   5.493
85043SOL    HW157026  14.257   4.843   5.546
85043SOL    HW257027  14.306   4.853   5.403
85044SOL     OW57028   8.848  13.483  14.627
85044SOL    HW157029   8.782  13.505  14.561
85044SOL    HW257030   8.856  13.562  14.681
85045SOL     OW57031  12.558   0.415   3.865
85045SOL    HW157032  12.513   0.349   3.918
85045SOL    HW257033  12.489   0.453   3.810
85046SOL     OW57034   7.369   3.220   6.177
85046SOL    HW157035   7.385   3.126   6.170
85046SOL    HW257036   7.302   3.239   6.111
85047SOL     OW57037   5.723  12.633   8.857
85047SOL    HW157038   5.630  12.654   8.849
85047SOL    HW257039   5.727  12.566   8.925
85048SOL     OW57040  14.607  11.116   5.494
85048SOL    HW157041  14.561  11.037   5.464
85048SOL    HW257042  14.642  11.154   5.414
85049SOL     OW57043  11.293   1.033   9.975
85049SOL    HW157044  11.252   0.954  10.012
85049SOL    HW257045  11.230   1.065   9.911
85050SOL     OW57046  14.094   8.819  13.749
85050SOL    HW157047  14.037   8.742  13.750
85050SOL    HW257048  14.157   8.802  13.679
85051SOL     OW57049  12.469   3.942   3.706
85051SOL    HW157050  12.446   3.907   3.792
85051SOL    HW257051  12.554   3.985   3.720
85052SOL     OW57052  11.872   7.934  14.147
85052SOL    HW157053  11.823   7.935  14.229
85052SOL    HW257054  11.807   7.910  14.081
85053SOL     OW57055  14.314   2.229   6.570
85053SOL    HW157056  14.241   2.271   6.614
85053SOL    HW257057  14.303   2.135   6.589
85054SOL     OW57058   7.399  11.378   5.006
85054SOL    HW157059   7.335  11.434   5.049
85054SOL    HW257060   7.360  11.290   5.008
85055SOL     OW57061   6.250   9.358  13.763
85055SOL    HW157062   6.283   9.281  13.809
85055SOL    HW257063   6.155   9.347  13.765
85056SOL     OW57064   5.601  11.170   0.372
85056SOL    HW157065   5.531  11.120   0.331
85056SOL    HW257066   5.680  11.119   0.354
85057SOL     OW57067   9.680   7.843   3.196
85057SOL    HW157068   9.751   7.877   3.251
85057SOL    HW257069   9.600   7.868   3.243
85058SOL     OW57070  13.565   7.454   8.731
85058SOL    HW157071  13.556   7.549   8.740
85058SOL    HW257072  13.618   7.428   8.806
85059SOL     OW57073  10.672   5.017   4.557
85059SOL    HW157074  10.629   5.088   4.605
85059SOL    HW257075  10.665   5.043   4.465
85060SOL     OW57076   0.368   8.834   5.146
85060SOL    HW157077   0.326   8.894   5.085
85060SOL    HW257078   0.297   8.805   5.204
85061SOL     OW57079   2.603   7.571   3.297
85061SOL    HW157080   2.530   7.626   3.327
85061SOL    HW257081   2.681   7.614   3.332
85062SOL     OW57082  13.504  12.570   7.724
85062SOL    HW157083  13.499  12.664   7.706
85062SOL    HW257084  13.596  12.548   7.709
85063SOL     OW57085   6.678   5.886  11.722
85063SOL    HW157086   6.664   5.809  11.776
85063SOL    HW257087   6.746   5.935  11.768
85064SOL     OW57088   9.277   5.627  14.412
85064SOL    HW157089   9.337   5.685  14.459
85064SOL    HW257090   9.194   5.635  14.458
85065SOL     OW57091   1.451   2.971  12.067
85065SOL    HW157092   1.485   2.884  12.045
85065SOL    HW257093   1.491   2.991  12.151
85066SOL     OW57094   0.110  11.939   2.834
85066SOL    HW157095   0.087  11.970   2.746
85066SOL    HW257096   0.032  11.959   2.887
85067SOL     OW57097  12.519   3.272   7.769
85067SOL    HW157098  12.556   3.359   7.753
85067SOL    HW257099  12.428   3.279   7.742
85068SOL     OW57100   0.704   3.593  11.315
85068SOL    HW157101   0.719   3.623  11.226
85068SOL    HW257102   0.630   3.533  11.308
85069SOL     OW57103   7.608  13.679   5.484
85069SOL    HW157104   7.648  13.606   5.532
85069SOL    HW257105   7.520  13.648   5.462
85070SOL     OW57106  14.847   3.755  13.162
85070SOL    HW157107  14.815   3.845  13.165
85070SOL    HW257108  14.872   3.735  13.252
85071SOL     OW57109   8.383   2.035  13.409
85071SOL    HW157110   8.316   2.095  13.375
85071SOL    HW257111   8.364   2.029  13.502
85072SOL     OW57112  13.303  13.601   7.588
85072SOL    HW157113  13.395  13.598   7.562
85072SOL    HW257114  13.276  13.690   7.566
85073SOL     OW57115  11.942   6.376   7.400
85073SOL    HW157116  11.849   6.369   7.424
85073SOL    HW257117  11.951   6.466   7.367
85074SOL     OW57118  11.419   8.272  13.100
85074SOL    HW157119  11.343   8.241  13.053
85074SOL    HW257120  11.404   8.366  13.111
85075SOL     OW57121   3.124  12.360   5.931
85075SOL    HW157122   3.055  12.314   5.979
85075SOL    HW257123   3.106  12.452   5.946
85076SOL     OW57124   9.101  12.509   8.479
85076SOL    HW157125   9.165  12.569   8.518
85076SOL    HW257126   9.020  12.526   8.527
85077SOL     OW57127  13.710   7.867   7.016
85077SOL    HW157128  13.654   7.804   7.062
85077SOL    HW257129  13.662   7.950   7.021
85078SOL     OW57130   6.571   7.158   1.147
85078SOL    HW157131   6.602   7.091   1.208
85078SOL    HW257132   6.587   7.241   1.192
85079SOL     OW57133   0.763   8.377  11.781
85079SOL    HW157134   0.769   8.283  11.795
85079SOL    HW257135   0.741   8.412  11.867
85080SOL     OW57136  13.841   6.008   1.033
85080SOL    HW157137  13.885   5.978   0.954
85080SOL    HW257138  13.829   6.102   1.021
85081SOL     OW57139   3.800  13.945   4.507
85081SOL    HW157140   3.740  13.901   4.446
85081SOL    HW257141   3.794  13.894   4.588
85082SOL     OW57142   0.039   7.854   7.834
85082SOL    HW157143   0.107   7.791   7.856
85082SOL    HW257144   0.054   7.874   7.742
85083SOL     OW57145   9.792   3.783  10.159
85083SOL    HW157146   9.786   3.874  10.129
85083SOL    HW257147   9.708   3.767  10.204
85084SOL     OW57148  11.482   6.300   7.391
85084SOL    HW157149  11.455   6.226   7.336
85084SOL    HW257150  11.400   6.332   7.429
85085SOL     OW57151   5.766   3.508   6.781
85085SOL    HW157152   5.797   3.432   6.831
85085SOL    HW257153   5.775   3.582   6.841
85086SOL     OW57154  11.342   9.703   1.178
85086SOL    HW157155  11.289   9.624   1.191
85086SOL    HW257156  11.417   9.691   1.236
85087SOL     OW57157   5.808   9.650   6.876
85087SOL    HW157158   5.856   9.729   6.852
85087SOL    HW257159   5.717   9.671   6.860
85088SOL     OW57160  11.820   0.906   8.211
85088SOL    HW157161  11.793   0.933   8.299
85088SOL    HW257162  11.764   0.956   8.152
85089SOL     OW57163   8.240   0.454  10.488
85089SOL    HW157164   8.271   0.528  10.435
85089SOL    HW257165   8.190   0.400  10.427
85090SOL     OW57166   1.810  14.704   1.668
85090SOL    HW157167   1.720  14.694   1.699
85090SOL    HW257168   1.832  14.795   1.689
85091SOL     OW57169  11.893  12.999   4.002
85091SOL    HW157170  11.797  12.995   4.006
85091SOL    HW257171  11.912  13.021   3.910
85092SOL     OW57172   5.453  12.779   6.907
85092SOL    HW157173   5.442  12.851   6.969
85092SOL    HW257174   5.434  12.818   6.821
85093SOL     OW57175   4.545  13.992  12.714
85093SOL    HW157176   4.589  13.925  12.767
85093SOL    HW257177   4.478  13.944  12.666
85094SOL     OW57178   6.201   7.900   2.638
85094SOL    HW157179   6.213   7.972   2.700
85094SOL    HW257180   6.149   7.835   2.686
85095SOL     OW57181   0.815   0.449   4.613
85095SOL    HW157182   0.867   0.447   4.532
85095SOL    HW257183   0.844   0.528   4.658
85096SOL     OW57184  14.248   6.237   6.562
85096SOL    HW157185  14.293   6.154   6.581
85096SOL    HW257186  14.158   6.211   6.545
85097SOL     OW57187   7.995   8.680   3.100
85097SOL    HW157188   8.005   8.585   3.090
85097SOL    HW257189   7.900   8.693   3.108
85098SOL     OW57190   7.385   0.201  10.723
85098SOL    HW157191   7.423   0.254  10.653
85098SOL    HW257192   7.460   0.159  10.766
85099SOL     OW57193   7.694   3.431   7.402
85099SOL    HW157194   7.633   3.456   7.471
85099SOL    HW257195   7.643   3.434   7.322
85100SOL     OW57196   1.320  12.272   0.523
85100SOL    HW157197   1.358  12.215   0.590
85100SOL    HW257198   1.278  12.343   0.572
85101SOL     OW57199  10.619   7.498  13.279
85101SOL    HW157200  10.614   7.570  13.217
85101SOL    HW257201  10.712   7.487  13.296
85102SOL     OW57202   0.635  10.443   3.129
85102SOL    HW157203   0.546  10.443   3.095
85102SOL    HW257204   0.624  10.453   3.224
85103SOL     OW57205   1.462   8.781   4.665
85103SOL    HW157206   1.466   8.718   4.737
85103SOL    HW257207   1.479   8.866   4.706
85104SOL     OW57208   0.356  14.497   1.976
85104SOL    HW157209   0.407  14.430   2.021
85104SOL    HW257210   0.310  14.543   2.047
85105SOL     OW57211  12.737   5.089  13.592
85105SOL    HW157212  12.772   5.032  13.524
85105SOL    HW257213  12.670   5.141  13.547
85106SOL     OW57214  10.931   2.523  12.792
85106SOL    HW157215  10.868   2.501  12.861
85106SOL    HW257216  10.944   2.617  12.800
85107SOL     OW57217   2.699   9.512  14.677
85107SOL    HW157218   2.702   9.457  14.599
85107SOL    HW257219   2.688   9.450  14.749
85108SOL     OW57220   1.189   1.005   2.210
85108SOL    HW157221   1.119   0.966   2.158
85108SOL    HW257222   1.159   0.997   2.301
85109SOL     OW57223  10.532   6.018  14.794
85109SOL    HW157224  10.457   6.025  14.853
85109SOL    HW257225  10.605   5.996  14.851
85110SOL     OW57226   5.692  10.559   7.846
85110SOL    HW157227   5.738  10.588   7.925
85110SOL    HW257228   5.601  10.588   7.860
85111SOL     OW57229  12.984   8.067   7.737
85111SOL    HW157230  12.995   7.976   7.763
85111SOL    HW257231  12.929   8.105   7.805
85112SOL     OW57232   0.265   7.466   3.890
85112SOL    HW157233   0.232   7.437   3.805
85112SOL    HW257234   0.288   7.385   3.936
85113SOL     OW57235   0.931   5.694  11.158
85113SOL    HW157236   0.885   5.778  11.161
85113SOL    HW257237   0.863   5.629  11.177
85114SOL     OW57238   0.235   2.823   5.979
85114SOL    HW157239   0.321   2.809   5.938
85114SOL    HW257240   0.187   2.877   5.916
85115SOL     OW57241  14.145   0.588   2.572
85115SOL    HW157242  14.098   0.657   2.524
85115SOL    HW257243  14.234   0.621   2.580
85116SOL     OW57244   4.266  11.744  12.437
85116SOL    HW157245   4.344  11.704  12.476
85116SOL    HW257246   4.193  11.700  12.479
85117SOL     OW57247   1.458  12.268  11.017
85117SOL    HW157248   1.448  12.327  11.092
85117SOL    HW257249   1.371  12.262  10.979
85118SOL     OW57250   2.415  10.049   0.143
85118SOL    HW157251   2.402   9.956   0.125
85118SOL    HW257252   2.328  10.088   0.130
85119SOL     OW57253   6.905  13.470   7.645
85119SOL    HW157254   6.866  13.557   7.642
85119SOL    HW257255   6.862  13.427   7.719
85120SOL     OW57256   7.776  13.227  10.175
85120SOL    HW157257   7.795  13.277  10.096
85120SOL    HW257258   7.862  13.204  10.209
85121SOL     OW57259   1.918   8.122   4.045
85121SOL    HW157260   1.824   8.106   4.056
85121SOL    HW257261   1.930   8.213   4.070
85122SOL     OW57262  12.297   7.336   1.314
85122SOL    HW157263  12.365   7.293   1.365
85122SOL    HW257264  12.251   7.392   1.376
85123SOL     OW57265   6.189  11.268  13.624
85123SOL    HW157266   6.178  11.181  13.662
85123SOL    HW257267   6.103  11.291  13.589
85124SOL     OW57268   2.320   2.861  12.668
85124SOL    HW157269   2.304   2.852  12.762
85124SOL    HW257270   2.398   2.915  12.662
85125SOL     OW57271   9.284   3.057   2.269
85125SOL    HW157272   9.340   3.025   2.198
85125SOL    HW257273   9.254   3.143   2.239
85126SOL     OW57274   8.813  10.164   7.567
85126SOL    HW157275   8.908  10.176   7.561
85126SOL    HW257276   8.792  10.103   7.496
85127SOL     OW57277   9.812   6.408   7.487
85127SOL    HW157278   9.767   6.487   7.517
85127SOL    HW257279   9.801   6.346   7.558
85128SOL     OW57280   2.319   2.333  12.030
85128SOL    HW157281   2.241   2.278  12.042
85128SOL    HW257282   2.333   2.336  11.936
85129SOL     OW57283   0.119   1.807   5.664
85129SOL    HW157284   0.203   1.806   5.711
85129SOL    HW257285   0.063   1.749   5.715
85130SOL     OW57286  12.082   1.118   3.297
85130SOL    HW157287  12.044   1.204   3.280
85130SOL    HW257288  12.029   1.057   3.247
85131SOL     OW57289   3.060  12.165   1.485
85131SOL    HW157290   3.147  12.184   1.450
85131SOL    HW257291   3.000  12.216   1.429
85132SOL     OW57292   0.668   1.180   6.971
85132SOL    HW157293   0.694   1.089   6.983
85132SOL    HW257294   0.578   1.176   6.940
85133SOL     OW57295  14.178   7.524   4.710
85133SOL    HW157296  14.163   7.468   4.786
85133SOL    HW257297  14.135   7.607   4.732
85134SOL     OW57298   7.174   3.151   0.673
85134SOL    HW157299   7.184   3.189   0.586
85134SOL    HW257300   7.156   3.058   0.657
85135SOL     OW57301   5.285   2.805  14.564
85135SOL    HW157302   5.349   2.874  14.578
85135SOL    HW257303   5.304   2.740  14.632
85136SOL     OW57304   3.372  11.969   6.111
85136SOL    HW157305   3.439  11.965   6.043
85136SOL    HW257306   3.405  11.911   6.180
85137SOL     OW57307  10.626  11.922   8.326
85137SOL    HW157308  10.653  11.839   8.365
85137SOL    HW257309  10.540  11.904   8.288
85138SOL     OW57310  14.160   8.662   8.181
85138SOL    HW157311  14.216   8.674   8.258
85138SOL    HW257312  14.190   8.728   8.119
85139SOL     OW57313   2.543   0.353   4.796
85139SOL    HW157314   2.456   0.353   4.758
85139SOL    HW257315   2.580   0.438   4.771
85140SOL     OW57316   0.475   0.532   5.246
85140SOL    HW157317   0.557   0.489   5.271
85140SOL    HW257318   0.426   0.466   5.198
85141SOL     OW57319  10.399   7.362  12.251
85141SOL    HW157320  10.399   7.416  12.172
85141SOL    HW257321  10.491   7.358  12.277
85142SOL     OW57322  14.459   8.833   7.694
85142SOL    HW157323  14.420   8.920   7.683
85142SOL    HW257324  14.539   8.848   7.745
85143SOL     OW57325   3.016   1.835   3.004
85143SOL    HW157326   3.085   1.860   2.943
85143SOL    HW257327   3.050   1.861   3.090
85144SOL     OW57328   0.778   9.679  12.253
85144SOL    HW157329   0.793   9.644  12.341
85144SOL    HW257330   0.730   9.761  12.267
85145SOL     OW57331   6.617   3.074  14.532
85145SOL    HW157332   6.589   3.052  14.443
85145SOL    HW257333   6.681   3.144  14.521
85146SOL     OW57334  12.454  10.448   4.982
85146SOL    HW157335  12.514  10.438   5.056
85146SOL    HW257336  12.451  10.542   4.966
85147SOL     OW57337   2.679   2.769   0.380
85147SOL    HW157338   2.611   2.784   0.446
85147SOL    HW257339   2.754   2.736   0.429
85148SOL     OW57340  11.263   3.266   1.517
85148SOL    HW157341  11.199   3.195   1.521
85148SOL    HW257342  11.334   3.232   1.464
85149SOL     OW57343  10.544  10.038  12.643
85149SOL    HW157344  10.607  10.092  12.596
85149SOL    HW257345  10.477  10.099  12.674
85150SOL     OW57346  14.834  12.660  13.529
85150SOL    HW157347   0.004  12.722  13.471
85150SOL    HW257348  14.819  12.582  13.475
85151SOL     OW57349  14.696   5.554   9.494
85151SOL    HW157350  14.782   5.520   9.470
85151SOL    HW257351  14.695   5.551   9.589
85152SOL     OW57352  10.960   2.642  14.549
85152SOL    HW157353  10.942   2.561  14.500
85152SOL    HW257354  10.874   2.685  14.554
85153SOL     OW57355   6.303   1.318   8.742
85153SOL    HW157356   6.243   1.357   8.805
85153SOL    HW257357   6.383   1.371   8.748
85154SOL     OW57358  14.599  12.839  10.094
85154SOL    HW157359  14.621  12.750  10.122
85154SOL    HW257360  14.656  12.856  10.020
85155SOL     OW57361   2.901  12.425   2.424
85155SOL    HW157362   2.900  12.372   2.504
85155SOL    HW257363   2.961  12.497   2.443
85156SOL     OW57364   8.671   7.207   2.501
85156SOL    HW157365   8.593   7.176   2.549
85156SOL    HW257366   8.665   7.164   2.415
85157SOL     OW57367  12.674  14.554   5.563
85157SOL    HW157368  12.723  14.636   5.558
85157SOL    HW257369  12.587  14.580   5.596
85158SOL     OW57370  12.204   9.022   0.164
85158SOL    HW157371  12.146   8.966   0.113
85158SOL    HW257372  12.163   9.108   0.163
85159SOL     OW57373   0.307   4.963   6.740
85159SOL    HW157374   0.393   4.991   6.771
85159SOL    HW257375   0.246   4.995   6.807
85160SOL     OW57376   4.574   4.861   6.921
85160SOL    HW157377   4.532   4.868   7.007
85160SOL    HW257378   4.638   4.790   6.931
85161SOL     OW57379   6.921  10.199   8.493
85161SOL    HW157380   6.877  10.202   8.578
85161SOL    HW257381   7.011  10.177   8.513
85162SOL     OW57382   0.512   4.533  13.570
85162SOL    HW157383   0.458   4.607  13.539
85162SOL    HW257384   0.602   4.565  13.562
85163SOL     OW57385  11.003   2.017  12.264
85163SOL    HW157386  10.953   2.098  12.272
85163SOL    HW257387  11.087   2.037  12.306
85164SOL     OW57388   6.599   9.049   5.548
85164SOL    HW157389   6.652   9.089   5.616
85164SOL    HW257390   6.528   9.005   5.595
85165SOL     OW57391   6.861   4.919   0.862
85165SOL    HW157392   6.931   4.967   0.906
85165SOL    HW257393   6.813   4.986   0.813
85166SOL     OW57394   5.448  13.464  14.675
85166SOL    HW157395   5.372  13.465  14.617
85166SOL    HW257396   5.417  13.417  14.753
85167SOL     OW57397   1.861  12.598  11.994
85167SOL    HW157398   1.820  12.513  12.005
85167SOL    HW257399   1.939  12.596  12.050
85168SOL     OW57400  12.684  14.832   2.143
85168SOL    HW157401  12.639  14.749   2.126
85168SOL    HW257402  12.746  14.812   2.214
85169SOL     OW57403   3.571   2.875   8.605
85169SOL    HW157404   3.598   2.887   8.697
85169SOL    HW257405   3.622   2.800   8.575
85170SOL     OW57406  13.820   6.008   6.354
85170SOL    HW157407  13.910   5.997   6.322
85170SOL    HW257408  13.766   5.965   6.288
85171SOL     OW57409   9.691   6.727  11.093
85171SOL    HW157410   9.689   6.771  11.009
85171SOL    HW257411   9.653   6.640  11.077
85172SOL     OW57412   7.679  10.575  14.386
85172SOL    HW157413   7.769  10.543  14.392
85172SOL    HW257414   7.670  10.605  14.295
85173SOL     OW57415  11.871  13.071   6.664
85173SOL    HW157416  11.946  13.063   6.723
85173SOL    HW257417  11.844  13.162   6.671
85174SOL     OW57418   6.793   1.257   9.093
85174SOL    HW157419   6.780   1.291   9.004
85174SOL    HW257420   6.728   1.188   9.102
85175SOL     OW57421   0.154  10.377   4.359
85175SOL    HW157422   0.120  10.288   4.370
85175SOL    HW257423   0.078  10.427   4.327
85176SOL     OW57424   2.677   8.653   3.742
85176SOL    HW157425   2.695   8.606   3.823
85176SOL    HW257426   2.736   8.614   3.678
85177SOL     OW57427   0.156   9.916   3.683
85177SOL    HW157428   0.131   9.911   3.591
85177SOL    HW257429   0.247   9.885   3.684
85178SOL     OW57430   4.010   5.307   8.015
85178SOL    HW157431   3.967   5.349   8.089
85178SOL    HW257432   3.954   5.327   7.940
85179SOL     OW57433   9.524  10.081   3.831
85179SOL    HW157434   9.607  10.127   3.818
85179SOL    HW257435   9.540   9.992   3.799
85180SOL     OW57436  14.261  11.930   8.149
85180SOL    HW157437  14.218  12.012   8.121
85180SOL    HW257438  14.243  11.869   8.078
85181SOL     OW57439   8.623   7.100   5.817
85181SOL    HW157440   8.630   7.007   5.841
85181SOL    HW257441   8.587   7.099   5.728
85182SOL     OW57442  12.711  10.123   4.036
85182SOL    HW157443  12.660  10.051   4.000
85182SOL    HW257444  12.666  10.202   4.006
85183SOL     OW57445   9.978   5.077   5.557
85183SOL    HW157446  10.031   5.124   5.621
85183SOL    HW257447   9.892   5.117   5.562
85184SOL     OW57448  14.739   5.221   7.957
85184SOL    HW157449  14.678   5.280   8.002
85184SOL    HW257450  14.693   5.138   7.951
85185SOL     OW57451   0.818   1.585   6.981
85185SOL    HW157452   0.811   1.614   7.072
85185SOL    HW257453   0.782   1.497   6.981
85186SOL     OW57454  10.760  11.189   8.075
85186SOL    HW157455  10.724  11.109   8.113
85186SOL    HW257456  10.793  11.162   7.989
85187SOL     OW57457   4.551   2.664   1.547
85187SOL    HW157458   4.581   2.680   1.637
85187SOL    HW257459   4.506   2.580   1.552
85188SOL     OW57460   5.280   8.172   0.636
85188SOL    HW157461   5.249   8.217   0.557
85188SOL    HW257462   5.373   8.157   0.619
85189SOL     OW57463   8.028   1.825   7.656
85189SOL    HW157464   8.086   1.777   7.715
85189SOL    HW257465   7.943   1.823   7.700
85190SOL     OW57466  10.581   3.872   9.058
85190SOL    HW157467  10.652   3.843   9.001
85190SOL    HW257468  10.604   3.839   9.145
85191SOL     OW57469   6.805   8.415   9.085
85191SOL    HW157470   6.859   8.354   9.035
85191SOL    HW257471   6.802   8.494   9.032
85192SOL     OW57472   9.395   7.918   2.716
85192SOL    HW157473   9.384   7.851   2.784
85192SOL    HW257474   9.483   7.953   2.731
85193SOL     OW57475  14.239   0.971   0.387
85193SOL    HW157476  14.295   0.986   0.464
85193SOL    HW257477  14.163   1.027   0.401
85194SOL     OW57478   9.844  10.606   9.007
85194SOL    HW157479   9.867  10.607   9.100
85194SOL    HW257480   9.766  10.551   9.002
85195SOL     OW57481   3.198   2.236   8.716
85195SOL    HW157482   3.293   2.247   8.717
85195SOL    HW257483   3.180   2.192   8.633
85196SOL     OW57484   2.974   5.936   7.958
85196SOL    HW157485   3.052   5.967   7.912
85196SOL    HW257486   2.934   5.872   7.898
85197SOL     OW57487   1.512   0.988   7.063
85197SOL    HW157488   1.564   0.994   7.143
85197SOL    HW257489   1.474   1.076   7.052
85198SOL     OW57490   1.365   6.421   4.818
85198SOL    HW157491   1.326   6.461   4.896
85198SOL    HW257492   1.362   6.327   4.836
85199SOL     OW57493   0.041  10.877  13.058
85199SOL    HW157494   0.004  10.812  12.998
85199SOL    HW257495   0.056  10.828  13.140
85200SOL     OW57496  12.415   8.005   7.025
85200SOL    HW157497  12.470   8.017   6.948
85200SOL    HW257498  12.473   8.022   7.099
85201SOL     OW57499  14.572   5.983   5.786
85201SOL    HW157500  14.510   6.055   5.797
85201SOL    HW257501  14.646   6.022   5.741
85202SOL     OW57502  14.284   8.071   7.364
85202SOL    HW157503  14.272   8.048   7.457
85202SOL    HW257504  14.377   8.089   7.356
85203SOL     OW57505   0.472  10.320  14.715
85203SOL    HW157506   0.433  10.280  14.637
85203SOL    HW257507   0.498  10.407  14.687
85204SOL     OW57508   1.443   7.961   3.751
85204SOL    HW157509   1.398   7.910   3.684
85204SOL    HW257510   1.415   7.921   3.834
85205SOL     OW57511   2.706   3.922  11.223
85205SOL    HW157512   2.619   3.884  11.212
85205SOL    HW257513   2.733   3.896  11.311
85206SOL     OW57514  11.383   7.694   8.737
85206SOL    HW157515  11.376   7.723   8.647
85206SOL    HW257516  11.444   7.756   8.778
85207SOL     OW57517   5.088  11.800   1.597
85207SOL    HW157518   5.139  11.766   1.524
85207SOL    HW257519   5.028  11.863   1.557
85208SOL     OW57520   5.935   2.551   0.682
85208SOL    HW157521   5.951   2.645   0.680
85208SOL    HW257522   5.977   2.518   0.602
85209SOL     OW57523   4.810  14.035   1.659
85209SOL    HW157524   4.822  13.952   1.705
85209SOL    HW257525   4.750  14.015   1.587
85210SOL     OW57526  12.056   9.987  12.350
85210SOL    HW157527  12.004  10.065  12.331
85210SOL    HW257528  11.992   9.924  12.384
85211SOL     OW57529   7.881  10.973  13.535
85211SOL    HW157530   7.826  11.006  13.464
85211SOL    HW257531   7.821  10.929  13.594
85212SOL     OW57532   7.050   4.698  11.808
85212SOL    HW157533   7.053   4.607  11.837
85212SOL    HW257534   7.062   4.750  11.888
85213SOL     OW57535  11.947   9.812   4.014
85213SOL    HW157536  11.884   9.857   4.070
85213SOL    HW257537  12.031   9.826   4.058
85214SOL     OW57538   2.114   4.740   3.882
85214SOL    HW157539   2.102   4.791   3.962
85214SOL    HW257540   2.027   4.709   3.859
85215SOL     OW57541   5.138   3.902   8.425
85215SOL    HW157542   5.091   3.981   8.398
85215SOL    HW257543   5.090   3.871   8.502
85216SOL     OW57544   8.876  10.671   0.303
85216SOL    HW157545   8.810  10.706   0.363
85216SOL    HW257546   8.825  10.632   0.231
85217SOL     OW57547  10.309   3.698   8.157
85217SOL    HW157548  10.283   3.730   8.243
85217SOL    HW257549  10.384   3.752   8.133
85218SOL     OW57550   5.673   8.471   3.040
85218SOL    HW157551   5.705   8.420   2.965
85218SOL    HW257552   5.657   8.406   3.108
85219SOL     OW57553   4.100   7.721   8.044
85219SOL    HW157554   4.050   7.689   7.969
85219SOL    HW257555   4.104   7.816   8.032
85220SOL     OW57556   8.175   2.772   2.711
85220SOL    HW157557   8.118   2.834   2.665
85220SOL    HW257558   8.210   2.821   2.785
85221SOL     OW57559  14.282   9.369  11.257
85221SOL    HW157560  14.222   9.443  11.246
85221SOL    HW257561  14.323   9.384  11.342
85222SOL     OW57562  10.342   9.122   3.478
85222SOL    HW157563  10.391   9.083   3.406
85222SOL    HW257564  10.350   9.217   3.463
85223SOL     OW57565  14.377  13.815   1.136
85223SOL    HW157566  14.341  13.842   1.221
85223SOL    HW257567  14.465  13.782   1.156
85224SOL     OW57568  14.393  13.260  11.625
85224SOL    HW157569  14.299  13.247  11.613
85224SOL    HW257570  14.430  13.247  11.538
85225SOL     OW57571   2.808   5.604   6.330
85225SOL    HW157572   2.894   5.626   6.366
85225SOL    HW257573   2.746   5.657   6.379
85226SOL     OW57574   0.549   8.039   3.908
85226SOL    HW157575   0.617   8.038   3.841
85226SOL    HW257576   0.589   7.995   3.983
85227SOL     OW57577   6.088  13.925   7.657
85227SOL    HW157578   6.129  13.991   7.600
85227SOL    HW257579   5.994  13.940   7.648
85228SOL     OW57580  11.592  14.005   8.125
85228SOL    HW157581  11.518  13.956   8.089
85228SOL    HW257582  11.576  14.095   8.097
85229SOL     OW57583   0.547   4.439   4.723
85229SOL    HW157584   0.518   4.467   4.636
85229SOL    HW257585   0.517   4.509   4.781
85230SOL     OW57586   2.487   4.742   1.323
85230SOL    HW157587   2.432   4.784   1.390
85230SOL    HW257588   2.484   4.802   1.249
85231SOL     OW57589   4.455   8.213  10.573
85231SOL    HW157590   4.463   8.232  10.480
85231SOL    HW257591   4.475   8.120  10.581
85232SOL     OW57592  10.915   5.753   4.968
85232SOL    HW157593  10.895   5.663   4.940
85232SOL    HW257594  10.985   5.743   5.033
85233SOL     OW57595  14.067   1.292   7.511
85233SOL    HW157596  14.028   1.205   7.505
85233SOL    HW257597  14.162   1.276   7.517
85234SOL     OW57598   1.273   0.088  14.470
85234SOL    HW157599   1.368   0.071  14.469
85234SOL    HW257600   1.266   0.183  14.475
85235SOL     OW57601  14.780  12.976   5.738
85235SOL    HW157602  14.725  12.912   5.692
85235SOL    HW257603  14.721  13.019   5.800
85236SOL     OW57604   5.450  13.558  11.722
85236SOL    HW157605   5.538  13.522  11.710
85236SOL    HW257606   5.391  13.489  11.691
85237SOL     OW57607   1.787   9.634   6.812
85237SOL    HW157608   1.865   9.689   6.817
85237SOL    HW257609   1.822   9.544   6.812
85238SOL     OW57610   5.272   3.283  13.845
85238SOL    HW157611   5.262   3.320  13.757
85238SOL    HW257612   5.366   3.263  13.851
85239SOL     OW57613   4.997  13.370   0.328
85239SOL    HW157614   4.927  13.398   0.387
85239SOL    HW257615   4.957  13.300   0.275
85240SOL     OW57616   1.576  11.574   0.952
85240SOL    HW157617   1.523  11.589   0.874
85240SOL    HW257618   1.666  11.570   0.920
85241SOL     OW57619   5.784   6.269   7.521
85241SOL    HW157620   5.751   6.358   7.512
85241SOL    HW257621   5.845   6.259   7.448
85242SOL     OW57622  10.167  11.991  13.642
85242SOL    HW157623  10.247  12.039  13.623
85242SOL    HW257624  10.097  12.045  13.606
85243SOL     OW57625   2.746  11.424   5.035
85243SOL    HW157626   2.834  11.395   5.012
85243SOL    HW257627   2.757  11.477   5.114
85244SOL     OW57628  11.956   0.331   5.871
85244SOL    HW157629  11.902   0.299   5.799
85244SOL    HW257630  12.006   0.404   5.833
85245SOL     OW57631  12.201  14.363   8.285
85245SOL    HW157632  12.223  14.320   8.368
85245SOL    HW257633  12.274  14.422   8.269
85246SOL     OW57634   0.958  13.143  11.450
85246SOL    HW157635   0.982  13.235  11.461
85246SOL    HW257636   0.877  13.145  11.399
85247SOL     OW57637   9.994   1.996  13.567
85247SOL    HW157638   9.967   2.001  13.659
85247SOL    HW257639   9.985   1.903  13.545
85248SOL     OW57640   9.885   6.111   5.495
85248SOL    HW157641   9.799   6.144   5.522
85248SOL    HW257642   9.920   6.179   5.437
85249SOL     OW57643  11.785   0.732  12.266
85249SOL    HW157644  11.743   0.801  12.215
85249SOL    HW257645  11.819   0.776  12.344
85250SOL     OW57646   4.436   4.902   7.161
85250SOL    HW157647   4.470   4.941   7.241
85250SOL    HW257648   4.367   4.842   7.191
85251SOL     OW57649  11.414  11.029   8.175
85251SOL    HW157650  11.416  11.124   8.163
85251SOL    HW257651  11.398  10.994   8.087
85252SOL     OW57652  11.762   2.037   0.638
85252SOL    HW157653  11.846   2.082   0.639
85252SOL    HW257654  11.736   2.033   0.730
85253SOL     OW57655   3.990   0.178  13.923
85253SOL    HW157656   3.912   0.233  13.922
85253SOL    HW257657   4.055   0.229  13.971
85254SOL     OW57658   9.286   3.085   9.505
85254SOL    HW157659   9.217   3.139   9.467
85254SOL    HW257660   9.326   3.141   9.571
85255SOL     OW57661  13.682   6.583   7.007
85255SOL    HW157662  13.591   6.556   7.023
85255SOL    HW257663  13.713   6.613   7.092
85256SOL     OW57664   1.738   3.289   0.542
85256SOL    HW157665   1.651   3.278   0.503
85256SOL    HW257666   1.794   3.230   0.493
85257SOL     OW57667   3.545  12.536  10.841
85257SOL    HW157668   3.639  12.555  10.843
85257SOL    HW257669   3.505  12.619  10.816
85258SOL     OW57670   8.382   5.846   1.202
85258SOL    HW157671   8.440   5.869   1.275
85258SOL    HW257672   8.440   5.823   1.130
85259SOL     OW57673   1.191   0.563   2.730
85259SOL    HW157674   1.177   0.652   2.698
85259SOL    HW257675   1.272   0.534   2.688
85260SOL     OW57676   7.868   6.694   0.714
85260SOL    HW157677   7.886   6.629   0.782
85260SOL    HW257678   7.782   6.669   0.679
85261SOL     OW57679   0.461  11.232   6.426
85261SOL    HW157680   0.534  11.286   6.396
85261SOL    HW257681   0.451  11.165   6.358
85262SOL     OW57682  12.272   5.836   4.942
85262SOL    HW157683  12.210   5.767   4.966
85262SOL    HW257684  12.226   5.918   4.959
85263SOL     OW57685   6.417  11.286  12.709
85263SOL    HW157686   6.439  11.375  12.738
85263SOL    HW257687   6.353  11.255  12.773
85264SOL     OW57688   9.061   8.460   2.942
85264SOL    HW157689   9.145   8.459   2.987
85264SOL    HW257690   9.014   8.535   2.979
85265SOL     OW57691   8.238   3.646   0.622
85265SOL    HW157692   8.191   3.602   0.550
85265SOL    HW257693   8.179   3.717   0.648
85266SOL     OW57694  14.122   8.593   7.316
85266SOL    HW157695  14.093   8.517   7.266
85266SOL    HW257696  14.048   8.614   7.374
85267SOL     OW57697   7.512   2.760  10.505
85267SOL    HW157698   7.423   2.725  10.512
85267SOL    HW257699   7.567   2.696  10.548
85268SOL     OW57700  11.164  10.673   4.646
85268SOL    HW157701  11.147  10.735   4.575
85268SOL    HW257702  11.259  10.679   4.661
85269SOL     OW57703  14.043  13.893  14.814
85269SOL    HW157704  13.983  13.967  14.812
85269SOL    HW257705  13.986  13.816  14.807
85270SOL     OW57706   4.957   8.969   4.456
85270SOL    HW157707   4.925   8.993   4.369
85270SOL    HW257708   4.987   9.052   4.494
85271SOL     OW57709  10.441   2.544   9.329
85271SOL    HW157710  10.526   2.576   9.300
85271SOL    HW257711  10.456   2.453   9.354
85272SOL     OW57712   5.040   9.425  10.603
85272SOL    HW157713   4.992   9.486  10.547
85272SOL    HW257714   5.102   9.480  10.651
85273SOL     OW57715   1.317   3.536  10.965
85273SOL    HW157716   1.383   3.533  11.035
85273SOL    HW257717   1.236   3.559  11.011
85274SOL     OW57718  13.805   4.652   3.866
85274SOL    HW157719  13.876   4.716   3.864
85274SOL    HW257720  13.763   4.660   3.780
85275SOL     OW57721   1.451  11.120   8.799
85275SOL    HW157722   1.371  11.171   8.786
85275SOL    HW257723   1.522  11.181   8.778
85276SOL     OW57724   4.370   4.836   8.282
85276SOL    HW157725   4.443   4.829   8.343
85276SOL    HW257726   4.292   4.830   8.338
85277SOL     OW57727   2.142   7.239   7.877
85277SOL    HW157728   2.202   7.282   7.818
85277SOL    HW257729   2.180   7.251   7.964
85278SOL     OW57730   0.570  10.285  11.565
85278SOL    HW157731   0.567  10.374  11.601
85278SOL    HW257732   0.484  10.248  11.585
85279SOL     OW57733   9.831   5.306   1.897
85279SOL    HW157734   9.763   5.311   1.964
85279SOL    HW257735   9.851   5.397   1.876
85280SOL     OW57736  13.295   2.590   4.626
85280SOL    HW157737  13.367   2.581   4.564
85280SOL    HW257738  13.284   2.684   4.638
85281SOL     OW57739  10.044   1.891   1.587
85281SOL    HW157740  10.067   1.892   1.680
85281SOL    HW257741  10.052   1.799   1.562
85282SOL     OW57742   9.194   0.135   2.962
85282SOL    HW157743   9.235   0.135   2.876
85282SOL    HW257744   9.247   0.074   3.014
85283SOL     OW57745  12.032   4.235  13.083
85283SOL    HW157746  12.015   4.149  13.123
85283SOL    HW257747  12.024   4.297  13.155
85284SOL     OW57748   0.527   3.716   1.274
85284SOL    HW157749   0.463   3.786   1.264
85284SOL    HW257750   0.479   3.645   1.318
85285SOL     OW57751   4.861  13.108  12.776
85285SOL    HW157752   4.786  13.057  12.806
85285SOL    HW257753   4.917  13.044  12.731
85286SOL     OW57754   0.514   6.994  10.646
85286SOL    HW157755   0.460   6.949  10.711
85286SOL    HW257756   0.575   6.927  10.616
85287SOL     OW57757   3.753   3.823   5.934
85287SOL    HW157758   3.811   3.819   5.858
85287SOL    HW257759   3.667   3.796   5.900
85288SOL     OW57760   7.720   8.853   5.764
85288SOL    HW157761   7.712   8.940   5.803
85288SOL    HW257762   7.813   8.833   5.771
85289SOL     OW57763  11.965   3.120  13.606
85289SOL    HW157764  12.003   3.163  13.529
85289SOL    HW257765  11.943   3.032  13.576
85290SOL     OW57766   2.375  14.273   0.152
85290SOL    HW157767   2.389  14.183   0.183
85290SOL    HW257768   2.329  14.316   0.225
85291SOL     OW57769  12.709   8.448   4.856
85291SOL    HW157770  12.779   8.480   4.799
85291SOL    HW257771  12.634   8.434   4.797
85292SOL     OW57772   4.777   5.446   2.937
85292SOL    HW157773   4.795   5.396   3.016
85292SOL    HW257774   4.699   5.498   2.959
85293SOL     OW57775   1.644   5.645   9.014
85293SOL    HW157776   1.733   5.636   9.049
85293SOL    HW257777   1.630   5.565   8.964
85294SOL     OW57778  13.390   6.612   6.492
85294SOL    HW157779  13.448   6.572   6.557
85294SOL    HW257780  13.449   6.646   6.425
85295SOL     OW57781   9.193   6.031   3.265
85295SOL    HW157782   9.144   6.057   3.187
85295SOL    HW257783   9.143   6.067   3.339
85296SOL     OW57784   4.053   9.094  11.817
85296SOL    HW157785   4.028   9.113  11.727
85296SOL    HW257786   3.975   9.111  11.868
85297SOL     OW57787  14.148   7.097   4.014
85297SOL    HW157788  14.203   7.143   4.077
85297SOL    HW257789  14.166   7.141   3.930
85298SOL     OW57790  11.899  11.476   6.238
85298SOL    HW157791  11.871  11.393   6.199
85298SOL    HW257792  11.970  11.506   6.182
85299SOL     OW57793   3.335   4.175  10.906
85299SOL    HW157794   3.356   4.095  10.953
85299SOL    HW257795   3.410   4.232  10.921
85300SOL     OW57796   6.946   4.212  12.903
85300SOL    HW157797   7.027   4.161  12.899
85300SOL    HW257798   6.924   4.229  12.811
85301SOL     OW57799   7.286   9.085   0.891
85301SOL    HW157800   7.369   9.122   0.863
85301SOL    HW257801   7.301   9.060   0.983
85302SOL     OW57802   1.733  14.133  12.557
85302SOL    HW157803   1.778  14.171  12.633
85302SOL    HW257804   1.761  14.188  12.484
85303SOL     OW57805   2.012   7.036   3.360
85303SOL    HW157806   1.992   7.092   3.285
85303SOL    HW257807   1.940   6.973   3.363
85304SOL     OW57808   9.690  10.367   7.935
85304SOL    HW157809   9.757  10.398   7.874
85304SOL    HW257810   9.685  10.273   7.921
85305SOL     OW57811   4.460   7.891   9.758
85305SOL    HW157812   4.482   7.881   9.666
85305SOL    HW257813   4.544   7.886   9.804
85306SOL     OW57814   4.740   3.171  12.764
85306SOL    HW157815   4.787   3.163  12.846
85306SOL    HW257816   4.662   3.115  12.775
85307SOL     OW57817   1.497  10.559  12.672
85307SOL    HW157818   1.547  10.536  12.751
85307SOL    HW257819   1.509  10.653  12.662
85308SOL     OW57820   1.179  11.036   2.722
85308SOL    HW157821   1.156  11.128   2.712
85308SOL    HW257822   1.138  11.009   2.804
85309SOL     OW57823   1.592   1.110   1.924
85309SOL    HW157824   1.677   1.071   1.945
85309SOL    HW257825   1.536   1.087   1.998
85310SOL     OW57826   7.305   9.244   5.614
85310SOL    HW157827   7.268   9.207   5.534
85310SOL    HW257828   7.237   9.304   5.646
85311SOL     OW57829   4.714   5.785   1.162
85311SOL    HW157830   4.773   5.818   1.095
85311SOL    HW257831   4.671   5.709   1.122
85312SOL     OW57832  12.966   5.518  13.934
85312SOL    HW157833  13.012   5.444  13.973
85312SOL    HW257834  12.938   5.485  13.848
85313SOL     OW57835   6.240   2.082  12.814
85313SOL    HW157836   6.173   2.064  12.880
85313SOL    HW257837   6.204   2.153  12.761
85314SOL     OW57838   4.208  13.221   3.805
85314SOL    HW157839   4.184  13.135   3.772
85314SOL    HW257840   4.278  13.250   3.747
85315SOL     OW57841   2.808   8.578   5.335
85315SOL    HW157842   2.889   8.583   5.284
85315SOL    HW257843   2.819   8.501   5.390
85316SOL     OW57844  10.830   3.058  11.599
85316SOL    HW157845  10.822   3.125  11.531
85316SOL    HW257846  10.806   2.977  11.555
85317SOL     OW57847   0.732   1.537  12.654
85317SOL    HW157848   0.768   1.454  12.623
85317SOL    HW257849   0.678   1.568  12.582
85318SOL     OW57850  10.742  10.180   9.776
85318SOL    HW157851  10.767  10.205   9.865
85318SOL    HW257852  10.647  10.189   9.775
85319SOL     OW57853   0.209  14.136   0.122
85319SOL    HW157854   0.179  14.100   0.205
85319SOL    HW257855   0.205  14.231   0.133
85320SOL     OW57856   0.588   0.563   9.407
85320SOL    HW157857   0.571   0.510   9.330
85320SOL    HW257858   0.526   0.531   9.473
85321SOL     OW57859   7.311  14.573   0.280
85321SOL    HW157860   7.221  14.598   0.263
85321SOL    HW257861   7.332  14.615   0.364
85322SOL     OW57862   4.225   8.636   9.628
85322SOL    HW157863   4.167   8.587   9.571
85322SOL    HW257864   4.261   8.571   9.689
85323SOL     OW57865   4.778   7.776  12.289
85323SOL    HW157866   4.711   7.729  12.337
85323SOL    HW257867   4.736   7.803  12.207
85324SOL     OW57868   6.602   1.954  14.369
85324SOL    HW157869   6.574   1.930  14.281
85324SOL    HW257870   6.663   1.885  14.395
85325SOL     OW57871   4.254   8.213   2.333
85325SOL    HW157872   4.190   8.258   2.388
85325SOL    HW257873   4.239   8.247   2.245
85326SOL     OW57874   6.883  12.500   3.531
85326SOL    HW157875   6.801  12.510   3.484
85326SOL    HW257876   6.941  12.456   3.469
85327SOL     OW57877   6.919   2.960  13.480
85327SOL    HW157878   6.945   2.975  13.571
85327SOL    HW257879   6.978   2.891  13.449
85328SOL     OW57880  10.773  10.860   2.930
85328SOL    HW157881  10.727  10.890   2.851
85328SOL    HW257882  10.836  10.796   2.898
85329SOL     OW57883  12.815  14.811   2.410
85329SOL    HW157884  12.752  14.739   2.404
85329SOL    HW257885  12.883  14.789   2.346
85330SOL     OW57886   1.189  12.008   4.552
85330SOL    HW157887   1.240  11.944   4.601
85330SOL    HW257888   1.244  12.086   4.549
85331SOL     OW57889   8.197  10.383   8.135
85331SOL    HW157890   8.200  10.309   8.074
85331SOL    HW257891   8.240  10.454   8.088
85332SOL     OW57892   8.135  13.282   0.671
85332SOL    HW157893   8.077  13.305   0.598
85332SOL    HW257894   8.222  13.308   0.642
85333SOL     OW57895   2.839   7.297  10.763
85333SOL    HW157896   2.766   7.345  10.724
85333SOL    HW257897   2.809   7.275  10.851
85334SOL     OW57898   1.544   9.432   4.842
85334SOL    HW157899   1.456   9.422   4.805
85334SOL    HW257900   1.538   9.507   4.901
85335SOL     OW57901   1.827   4.730   5.973
85335SOL    HW157902   1.787   4.780   5.901
85335SOL    HW257903   1.910   4.699   5.937
85336SOL     OW57904  12.093   0.721   5.554
85336SOL    HW157905  12.096   0.695   5.462
85336SOL    HW257906  12.183   0.746   5.574
85337SOL     OW57907  12.160  14.131  11.883
85337SOL    HW157908  12.094  14.062  11.891
85337SOL    HW257909  12.131  14.183  11.807
85338SOL     OW57910  14.435  13.479   8.830
85338SOL    HW157911  14.466  13.389   8.822
85338SOL    HW257912  14.340  13.473   8.822
85339SOL     OW57913   3.530   6.900   1.011
85339SOL    HW157914   3.539   6.841   0.936
85339SOL    HW257915   3.615   6.897   1.054
85340SOL     OW57916  11.745   3.267   6.475
85340SOL    HW157917  11.717   3.190   6.526
85340SOL    HW257918  11.675   3.279   6.410
85341SOL     OW57919   6.932   5.802   6.329
85341SOL    HW157920   6.890   5.868   6.274
85341SOL    HW257921   6.955   5.731   6.268
85342SOL     OW57922  10.422   3.894  14.538
85342SOL    HW157923  10.505   3.932  14.567
85342SOL    HW257924  10.393   3.953  14.468
85343SOL     OW57925   8.308   6.877  14.426
85343SOL    HW157926   8.230   6.887  14.370
85343SOL    HW257927   8.302   6.949  14.488
85344SOL     OW57928   4.367  12.564   4.819
85344SOL    HW157929   4.335  12.474   4.820
85344SOL    HW257930   4.296  12.614   4.779
85345SOL     OW57931   2.832  14.381  10.569
85345SOL    HW157932   2.887  14.331  10.630
85345SOL    HW257933   2.785  14.443  10.625
85346SOL     OW57934   3.956   6.537   3.362
85346SOL    HW157935   4.043   6.577   3.367
85346SOL    HW257936   3.896   6.612   3.355
85347SOL     OW57937   9.158  12.876   5.168
85347SOL    HW157938   9.186  12.841   5.084
85347SOL    HW257939   9.128  12.965   5.149
85348SOL     OW57940   7.267   0.119  14.642
85348SOL    HW157941   7.339   0.058  14.632
85348SOL    HW257942   7.243   0.113  14.735
85349SOL     OW57943   2.084   1.883   9.441
85349SOL    HW157944   2.173   1.889   9.475
85349SOL    HW257945   2.071   1.966   9.394
85350SOL     OW57946  11.214  14.419  13.624
85350SOL    HW157947  11.171  14.337  13.648
85350SOL    HW257948  11.299  14.416  13.668
85351SOL     OW57949   6.621  13.323  11.684
85351SOL    HW157950   6.595  13.275  11.763
85351SOL    HW257951   6.654  13.406  11.717
85352SOL     OW57952   7.768   8.262   9.371
85352SOL    HW157953   7.732   8.181   9.337
85352SOL    HW257954   7.693   8.307   9.411
85353SOL     OW57955  14.778   5.059  12.718
85353SOL    HW157956  14.785   5.107  12.800
85353SOL    HW257957  14.852   5.089  12.666
85354SOL     OW57958   8.588   5.824   0.970
85354SOL    HW157959   8.530   5.865   0.907
85354SOL    HW257960   8.661   5.790   0.918
85355SOL     OW57961   5.971   3.447   2.035
85355SOL    HW157962   6.000   3.392   2.108
85355SOL    HW257963   6.051   3.479   1.995
85356SOL     OW57964  11.979   3.096  14.218
85356SOL    HW157965  11.956   3.130  14.304
85356SOL    HW257966  11.895   3.075  14.177
85357SOL     OW57967   6.544  14.857   4.731
85357SOL    HW157968   6.539  14.862   4.636
85357SOL    HW257969   6.469  14.801   4.755
85358SOL     OW57970   8.692   1.532  10.116
85358SOL    HW157971   8.610   1.521  10.163
85358SOL    HW257972   8.756   1.556  10.184
85359SOL     OW57973   4.046   6.692   4.614
85359SOL    HW157974   4.124   6.700   4.560
85359SOL    HW257975   3.974   6.679   4.552
85360SOL     OW57976   8.389   7.836   0.803
85360SOL    HW157977   8.331   7.780   0.855
85360SOL    HW257978   8.476   7.824   0.841
85361SOL     OW57979   9.499  13.336   6.237
85361SOL    HW157980   9.514  13.293   6.153
85361SOL    HW257981   9.458  13.269   6.292
85362SOL     OW57982   9.996   6.549  11.797
85362SOL    HW157983   9.994   6.613  11.726
85362SOL    HW257984  10.010   6.465  11.753
85363SOL     OW57985   4.684   9.989   1.634
85363SOL    HW157986   4.653   9.982   1.725
85363SOL    HW257987   4.603   9.996   1.582
85364SOL     OW57988  10.365   3.071   8.749
85364SOL    HW157989  10.304   3.117   8.691
85364SOL    HW257990  10.310   3.041   8.821
85365SOL     OW57991   0.978   2.463   4.751
85365SOL    HW157992   0.990   2.473   4.846
85365SOL    HW257993   1.066   2.473   4.715
85366SOL     OW57994   1.542   6.920   6.497
85366SOL    HW157995   1.581   6.872   6.570
85366SOL    HW257996   1.452   6.937   6.524
85367SOL     OW57997   8.507   0.244  14.479
85367SOL    HW157998   8.465   0.159  14.471
85367SOL    HW257999   8.595   0.225  14.511
85368SOL     OW58000  14.118  13.631  11.869
85368SOL    HW158001  14.209  13.660  11.882
85368SOL    HW258002  14.098  13.656  11.779
85369SOL     OW58003  14.178   3.915   2.186
85369SOL    HW158004  14.104   3.858   2.207
85369SOL    HW258005  14.244   3.894   2.252
85370SOL     OW58006   2.555  10.882   3.929
85370SOL    HW158007   2.544  10.959   3.986
85370SOL    HW258008   2.567  10.919   3.841
85371SOL     OW58009   7.441   5.037  13.480
85371SOL    HW158010   7.454   4.954  13.435
85371SOL    HW258011   7.527   5.059  13.516
85372SOL     OW58012  11.758   4.069  13.996
85372SOL    HW158013  11.809   4.079  14.077
85372SOL    HW258014  11.822   4.039  13.932
85373SOL     OW58015   7.335   9.340   1.049
85373SOL    HW158016   7.419   9.367   1.010
85373SOL    HW258017   7.269   9.371   0.988
85374SOL     OW58018   8.472   9.236   7.397
85374SOL    HW158019   8.528   9.297   7.349
85374SOL    HW258020   8.522   9.154   7.399
85375SOL     OW58021   3.129   7.884   4.036
85375SOL    HW158022   3.220   7.913   4.042
85375SOL    HW258023   3.091   7.907   4.121
85376SOL     OW58024  12.313  14.072  14.128
85376SOL    HW158025  12.243  14.069  14.193
85376SOL    HW258026  12.392  14.095  14.178
85377SOL     OW58027   1.382   8.826   5.434
85377SOL    HW158028   1.353   8.832   5.525
85377SOL    HW258029   1.344   8.904   5.392
85378SOL     OW58030  12.545  14.100   3.740
85378SOL    HW158031  12.452  14.113   3.758
85378SOL    HW258032  12.546  14.035   3.670
85379SOL     OW58033   3.887   3.953   9.915
85379SOL    HW158034   3.864   4.026   9.858
85379SOL    HW258035   3.908   3.994   9.999
85380SOL     OW58036   1.643   7.426  12.358
85380SOL    HW158037   1.617   7.403  12.269
85380SOL    HW258038   1.719   7.483  12.347
85381SOL     OW58039  13.087  10.375  12.690
85381SOL    HW158040  13.012  10.322  12.661
85381SOL    HW258041  13.114  10.334  12.773
85382SOL     OW58042  11.624  13.901  11.273
85382SOL    HW158043  11.593  13.848  11.199
85382SOL    HW258044  11.570  13.872  11.346
85383SOL     OW58045   3.213  10.572  13.117
85383SOL    HW158046   3.158  10.616  13.052
85383SOL    HW258047   3.215  10.480  13.088
85384SOL     OW58048  10.804   9.132   9.454
85384SOL    HW158049  10.805   9.048   9.409
85384SOL    HW258050  10.852   9.192   9.397
85385SOL     OW58051   1.516   3.904   5.341
85385SOL    HW158052   1.593   3.949   5.376
85385SOL    HW258053   1.495   3.839   5.408
85386SOL     OW58054   4.899   9.405  12.982
85386SOL    HW158055   4.955   9.389  12.906
85386SOL    HW258056   4.915   9.331  13.039
85387SOL     OW58057  10.732  13.372   8.334
85387SOL    HW158058  10.717  13.392   8.426
85387SOL    HW258059  10.646  13.348   8.300
85388SOL     OW58060   7.054  14.477   3.526
85388SOL    HW158061   7.109  14.471   3.448
85388SOL    HW258062   7.114  14.507   3.595
85389SOL     OW58063   4.692  14.437  12.710
85389SOL    HW158064   4.703  14.345  12.687
85389SOL    HW258065   4.599  14.454  12.697
85390SOL     OW58066  10.074  12.117   5.924
85390SOL    HW158067  10.076  12.184   5.856
85390SOL    HW258068  10.163  12.081   5.926
85391SOL     OW58069  12.908   7.516  13.123
85391SOL    HW158070  12.892   7.563  13.205
85391SOL    HW258071  12.941   7.583  13.063
85392SOL     OW58072  13.647   3.052   9.211
85392SOL    HW158073  13.688   3.136   9.190
85392SOL    HW258074  13.571   3.048   9.154
85393SOL     OW58075   5.540  13.480   1.853
85393SOL    HW158076   5.488  13.548   1.811
85393SOL    HW258077   5.598  13.527   1.912
85394SOL     OW58078   7.031  13.374  14.554
85394SOL    HW158079   7.067  13.392  14.467
85394SOL    HW258080   7.040  13.457  14.601
85395SOL     OW58081   9.344  14.270   3.688
85395SOL    HW158082   9.363  14.235   3.775
85395SOL    HW258083   9.249  14.276   3.685
85396SOL     OW58084   8.027   1.066  12.779
85396SOL    HW158085   8.066   1.056  12.866
85396SOL    HW258086   7.962   0.996  12.774
85397SOL     OW58087  10.200   3.364   1.507
85397SOL    HW158088  10.172   3.275   1.525
85397SOL    HW258089  10.249   3.359   1.425
85398SOL     OW58090  10.790  10.169  11.494
85398SOL    HW158091  10.865  10.131  11.539
85398SOL    HW258092  10.719  10.106  11.508
85399SOL     OW58093   9.479   7.254   0.706
85399SOL    HW158094   9.525   7.313   0.646
85399SOL    HW258095   9.395   7.238   0.665
85400SOL     OW58096   4.889   3.889   7.873
85400SOL    HW158097   4.904   3.958   7.938
85400SOL    HW258098   4.914   3.808   7.917
85401SOL     OW58099  10.242   5.542   5.841
85401SOL    HW158100  10.258   5.455   5.877
85401SOL    HW258101  10.259   5.602   5.913
85402SOL     OW58102   1.018  13.287   1.833
85402SOL    HW158103   1.008  13.381   1.845
85402SOL    HW258104   1.080  13.260   1.900
85403SOL     OW58105   4.448  12.950   3.922
85403SOL    HW158106   4.380  13.016   3.912
85403SOL    HW258107   4.403  12.874   3.957
85404SOL     OW58108   3.179   6.041   5.235
85404SOL    HW158109   3.259   6.014   5.191
85404SOL    HW258110   3.209   6.085   5.315
85405SOL     OW58111   1.025  13.901   1.043
85405SOL    HW158112   0.966  13.830   1.017
85405SOL    HW258113   1.092  13.858   1.097
85406SOL     OW58114   8.531   3.223  14.087
85406SOL    HW158115   8.582   3.267  14.019
85406SOL    HW258116   8.572   3.137  14.096
85407SOL     OW58117   0.466  13.526  11.900
85407SOL    HW158118   0.488  13.563  11.815
85407SOL    HW258119   0.544  13.539  11.953
85408SOL     OW58120  11.033   8.464   2.362
85408SOL    HW158121  10.958   8.420   2.322
85408SOL    HW258122  11.076   8.509   2.289
85409SOL     OW58123  13.373   1.534   0.232
85409SOL    HW158124  13.281   1.506   0.228
85409SOL    HW258125  13.403   1.503   0.317
85410SOL     OW58126  13.949   4.174   6.608
85410SOL    HW158127  13.915   4.102   6.555
85410SOL    HW258128  13.911   4.161   6.694
85411SOL     OW58129   0.428   6.814  10.027
85411SOL    HW158130   0.453   6.722  10.016
85411SOL    HW258131   0.333   6.811  10.040
85412SOL     OW58132   2.638  14.695   3.009
85412SOL    HW158133   2.622  14.682   3.103
85412SOL    HW258134   2.728  14.664   2.996
85413SOL     OW58135   2.484   0.263   0.249
85413SOL    HW158136   2.537   0.206   0.305
85413SOL    HW258137   2.419   0.301   0.308
85414SOL     OW58138   5.779  13.130  14.557
85414SOL    HW158139   5.735  13.214  14.544
85414SOL    HW258140   5.861  13.137  14.507
85415SOL     OW58141   1.533   5.394  12.414
85415SOL    HW158142   1.442   5.424  12.420
85415SOL    HW258143   1.578   5.440  12.485
85416SOL     OW58144  10.536   3.904  10.915
85416SOL    HW158145  10.612   3.960  10.899
85416SOL    HW258146  10.463   3.950  10.875
85417SOL     OW58147  10.817   6.972   2.728
85417SOL    HW158148  10.836   6.879   2.725
85417SOL    HW258149  10.723   6.978   2.711
85418SOL     OW58150   4.627   3.791   6.018
85418SOL    HW158151   4.653   3.793   5.926
85418SOL    HW258152   4.684   3.854   6.061
85419SOL     OW58153   5.886   8.257   1.214
85419SOL    HW158154   5.852   8.257   1.303
85419SOL    HW258155   5.856   8.174   1.177
85420SOL     OW58156   4.365   6.314   9.289
85420SOL    HW158157   4.302   6.385   9.290
85420SOL    HW258158   4.312   6.234   9.282
85421SOL     OW58159   6.115   0.699   5.766
85421SOL    HW158160   6.124   0.615   5.809
85421SOL    HW258161   6.026   0.727   5.786
85422SOL     OW58162   4.474   9.983   8.874
85422SOL    HW158163   4.567   9.989   8.851
85422SOL    HW258164   4.433   9.940   8.799
85423SOL     OW58165   7.940   1.817   4.696
85423SOL    HW158166   7.949   1.912   4.691
85423SOL    HW258167   7.983   1.793   4.779
85424SOL     OW58168   2.527   4.043  13.327
85424SOL    HW158169   2.518   4.098  13.405
85424SOL    HW258170   2.446   4.057  13.279
85425SOL     OW58171   5.459   8.631  10.770
85425SOL    HW158172   5.448   8.725  10.782
85425SOL    HW258173   5.452   8.594  10.858
85426SOL     OW58174   1.987   4.661  10.959
85426SOL    HW158175   2.040   4.587  10.988
85426SOL    HW258176   1.898   4.639  10.988
85427SOL     OW58177  14.177  13.842   2.458
85427SOL    HW158178  14.212  13.833   2.547
85427SOL    HW258179  14.230  13.913   2.419
85428SOL     OW58180   1.894   3.942   0.287
85428SOL    HW158181   1.888   3.847   0.285
85428SOL    HW258182   1.986   3.960   0.268
85429SOL     OW58183   4.344   5.907   9.922
85429SOL    HW158184   4.415   5.883   9.982
85429SOL    HW258185   4.280   5.836   9.932
85430SOL     OW58186   9.358   2.860   8.644
85430SOL    HW158187   9.408   2.904   8.575
85430SOL    HW258188   9.402   2.776   8.656
85431SOL     OW58189   6.232   5.293   8.031
85431SOL    HW158190   6.162   5.343   8.070
85431SOL    HW258191   6.294   5.359   7.998
85432SOL     OW58192   9.508  10.873   4.923
85432SOL    HW158193   9.462  10.817   4.860
85432SOL    HW258194   9.547  10.812   4.985
85433SOL     OW58195   0.155  10.756  10.701
85433SOL    HW158196   0.229  10.718  10.653
85433SOL    HW258197   0.184  10.755  10.792
85434SOL     OW58198   1.871   5.924   1.710
85434SOL    HW158199   1.913   5.907   1.795
85434SOL    HW258200   1.943   5.944   1.651
85435SOL     OW58201   3.148  12.590  11.588
85435SOL    HW158202   3.094  12.527  11.540
85435SOL    HW258203   3.087  12.634  11.647
85436SOL     OW58204   6.860   8.605   9.797
85436SOL    HW158205   6.953   8.583   9.802
85436SOL    HW258206   6.857   8.685   9.744
85437SOL     OW58207   6.370  13.073   7.996
85437SOL    HW158208   6.280  13.062   7.965
85437SOL    HW258209   6.402  12.983   8.008
85438SOL     OW58210   0.371  13.567  11.357
85438SOL    HW158211   0.282  13.538  11.337
85438SOL    HW258212   0.362  13.661  11.375
85439SOL     OW58213  10.787   8.653   9.256
85439SOL    HW158214  10.744   8.569   9.275
85439SOL    HW258215  10.765   8.671   9.165
85440SOL     OW58216   3.188   1.518   4.277
85440SOL    HW158217   3.104   1.552   4.308
85440SOL    HW258218   3.253   1.560   4.333
85441SOL     OW58219   3.185   1.018   3.314
85441SOL    HW158220   3.280   1.022   3.328
85441SOL    HW258221   3.150   0.997   3.400
85442SOL     OW58222   0.774   1.326   3.833
85442SOL    HW158223   0.719   1.351   3.759
85442SOL    HW258224   0.742   1.239   3.858
85443SOL     OW58225   8.351  13.027   7.034
85443SOL    HW158226   8.413  13.020   6.961
85443SOL    HW258227   8.269  12.994   6.998
85444SOL     OW58228   0.354  10.522   4.410
85444SOL    HW158229   0.411  10.447   4.427
85444SOL    HW258230   0.271  10.483   4.385
85445SOL     OW58231   5.374   7.486  13.158
85445SOL    HW158232   5.443   7.420  13.165
85445SOL    HW258233   5.360   7.495  13.063
85446SOL     OW58234  11.212  12.377   1.580
85446SOL    HW158235  11.203  12.282   1.592
85446SOL    HW258236  11.193  12.391   1.488
85447SOL     OW58237   8.783   7.876  11.495
85447SOL    HW158238   8.694   7.872  11.528
85447SOL    HW258239   8.781   7.942  11.426
85448SOL     OW58240   6.988  10.271  10.896
85448SOL    HW158241   7.052  10.290  10.964
85448SOL    HW258242   6.940  10.195  10.929
85449SOL     OW58243   4.592  13.938  13.923
85449SOL    HW158244   4.576  13.883  13.847
85449SOL    HW258245   4.556  14.023  13.900
85450SOL     OW58246   6.570   4.905   1.525
85450SOL    HW158247   6.652   4.857   1.532
85450SOL    HW258248   6.561   4.949   1.610
85451SOL     OW58249   3.993   3.611  13.955
85451SOL    HW158250   3.915   3.556  13.961
85451SOL    HW258251   4.041   3.576  13.881
85452SOL     OW58252  12.208   2.672   2.832
85452SOL    HW158253  12.289   2.712   2.865
85452SOL    HW258254  12.138   2.725   2.871
85453SOL     OW58255   7.159   5.905  11.970
85453SOL    HW158256   7.073   5.944  11.954
85453SOL    HW258257   7.216   5.944  11.903
85454SOL     OW58258   7.976   7.251   7.387
85454SOL    HW158259   7.897   7.201   7.366
85454SOL    HW258260   8.017   7.202   7.458
85455SOL     OW58261   6.653  10.983  12.745
85455SOL    HW158262   6.686  11.073  12.743
85455SOL    HW258263   6.642  10.960  12.653
85456SOL     OW58264   2.326  11.125   0.433
85456SOL    HW158265   2.370  11.143   0.516
85456SOL    HW258266   2.302  11.211   0.399
85457SOL     OW58267   8.770  11.296   3.476
85457SOL    HW158268   8.733  11.208   3.480
85457SOL    HW258269   8.833  11.292   3.404
85458SOL     OW58270  12.517  10.475  10.491
85458SOL    HW158271  12.547  10.509  10.407
85458SOL    HW258272  12.597  10.451  10.537
85459SOL     OW58273  10.713   4.164   7.747
85459SOL    HW158274  10.673   4.234   7.799
85459SOL    HW258275  10.664   4.086   7.771
85460SOL     OW58276   2.086   4.014   7.889
85460SOL    HW158277   2.153   4.062   7.937
85460SOL    HW258278   2.080   4.060   7.805
85461SOL     OW58279  14.490  12.903   0.359
85461SOL    HW158280  14.421  12.969   0.354
85461SOL    HW258281  14.545  12.920   0.282
85462SOL     OW58282   8.924   7.028   1.115
85462SOL    HW158283   8.943   7.095   1.180
85462SOL    HW258284   8.975   6.951   1.143
85463SOL     OW58285  13.685   0.585   8.640
85463SOL    HW158286  13.638   0.502   8.651
85463SOL    HW258287  13.712   0.586   8.548
85464SOL     OW58288  11.629   7.269  10.417
85464SOL    HW158289  11.716   7.265  10.377
85464SOL    HW258290  11.571   7.299  10.346
85465SOL     OW58291   1.377   0.542   8.753
85465SOL    HW158292   1.317   0.611   8.724
85465SOL    HW258293   1.440   0.588   8.809
85466SOL     OW58294   7.661   2.172   8.784
85466SOL    HW158295   7.746   2.140   8.752
85466SOL    HW258296   7.683   2.220   8.864
85467SOL     OW58297   8.943  10.007  12.823
85467SOL    HW158298   9.037  10.006  12.843
85467SOL    HW258299   8.908  10.075  12.881
85468SOL     OW58300   0.969   9.507   0.803
85468SOL    HW158301   0.901   9.442   0.784
85468SOL    HW258302   0.984   9.498   0.898
85469SOL     OW58303  12.844   3.325   1.925
85469SOL    HW158304  12.803   3.251   1.881
85469SOL    HW258305  12.906   3.360   1.861
85470SOL     OW58306   3.276   4.746  14.646
85470SOL    HW158307   3.270   4.827  14.596
85470SOL    HW258308   3.340   4.764  14.715
85471SOL     OW58309   1.594   6.448   7.006
85471SOL    HW158310   1.543   6.375   6.970
85471SOL    HW258311   1.529   6.514   7.029
85472SOL     OW58312   4.269   1.315  10.306
85472SOL    HW158313   4.307   1.285  10.389
85472SOL    HW258314   4.188   1.265  10.297
85473SOL     OW58315   5.790   0.015   5.087
85473SOL    HW158316   5.851  14.845   5.145
85473SOL    HW258317   5.754  14.820   5.032
85474SOL     OW58318   1.584   4.344   2.976
85474SOL    HW158319   1.511   4.389   3.017
85474SOL    HW258320   1.607   4.398   2.901
85475SOL     OW58321  12.882   0.355  12.452
85475SOL    HW158322  12.857   0.354  12.360
85475SOL    HW258323  12.958   0.298  12.457
85476SOL     OW58324  13.154   2.065   9.590
85476SOL    HW158325  13.111   2.151   9.593
85476SOL    HW258326  13.246   2.084   9.608
85477SOL     OW58327   6.962  10.443   0.558
85477SOL    HW158328   7.010  10.509   0.608
85477SOL    HW258329   6.928  10.490   0.482
85478SOL     OW58330  14.593  12.353   6.958
85478SOL    HW158331  14.511  12.402   6.964
85478SOL    HW258332  14.566  12.262   6.962
85479SOL     OW58333  10.782   9.787  12.096
85479SOL    HW158334  10.758   9.797  12.188
85479SOL    HW258335  10.708   9.742  12.056
85480SOL     OW58336  13.856   2.983  12.780
85480SOL    HW158337  13.862   2.907  12.722
85480SOL    HW258338  13.918   2.963  12.851
85481SOL     OW58339   6.238  12.668   0.869
85481SOL    HW158340   6.282  12.619   0.939
85481SOL    HW258341   6.270  12.628   0.788
85482SOL     OW58342   6.943   7.336   4.270
85482SOL    HW158343   6.944   7.277   4.346
85482SOL    HW258344   7.030   7.327   4.231
85483SOL     OW58345   3.616  11.416  12.083
85483SOL    HW158346   3.672  11.471  12.138
85483SOL    HW258347   3.600  11.468  12.005
85484SOL     OW58348  13.755   9.691   7.068
85484SOL    HW158349  13.822   9.743   7.024
85484SOL    HW258350  13.677   9.704   7.014
85485SOL     OW58351   8.122   6.943   5.448
85485SOL    HW158352   8.183   6.953   5.375
85485SOL    HW258353   8.077   6.860   5.431
85486SOL     OW58354   3.665  14.811   3.769
85486SOL    HW158355   3.702  14.826   3.856
85486SOL    HW258356   3.574  14.788   3.786
85487SOL     OW58357   3.486   5.176   8.652
85487SOL    HW158358   3.477   5.166   8.747
85487SOL    HW258359   3.508   5.088   8.621
85488SOL     OW58360   8.613  11.169  10.858
85488SOL    HW158361   8.584  11.125  10.779
85488SOL    HW258362   8.678  11.109  10.896
85489SOL     OW58363  12.901  10.563  11.587
85489SOL    HW158364  12.812  10.531  11.572
85489SOL    HW258365  12.890  10.651  11.622
85490SOL     OW58366   2.587   5.043   3.035
85490SOL    HW158367   2.609   5.085   2.952
85490SOL    HW258368   2.495   5.017   3.025
85491SOL     OW58369  12.827  11.653  11.226
85491SOL    HW158370  12.870  11.570  11.204
85491SOL    HW258371  12.737  11.628  11.249
85492SOL     OW58372   3.141  11.049   9.558
85492SOL    HW158373   3.195  11.106   9.614
85492SOL    HW258374   3.148  10.963   9.598
85493SOL     OW58375   0.286   9.138  11.034
85493SOL    HW158376   0.380   9.127  11.048
85493SOL    HW258377   0.269   9.230  11.053
85494SOL     OW58378  11.369   0.415  14.186
85494SOL    HW158379  11.422   0.388  14.111
85494SOL    HW258380  11.332   0.333  14.219
85495SOL     OW58381  14.603   2.896   0.113
85495SOL    HW158382  14.529   2.942   0.151
85495SOL    HW258383  14.569   2.855   0.034
85496SOL     OW58384   0.010  11.594   4.202
85496SOL    HW158385  14.817  11.641   4.251
85496SOL    HW258386   0.092  11.619   4.244
85497SOL     OW58387   9.498  14.568  10.806
85497SOL    HW158388   9.580  14.615  10.823
85497SOL    HW258389   9.481  14.519  10.887
85498SOL     OW58390  11.052   7.384   4.067
85498SOL    HW158391  10.988   7.436   4.018
85498SOL    HW258392  11.130   7.386   4.012
85499SOL     OW58393   8.074   9.597   5.211
85499SOL    HW158394   8.046   9.507   5.224
85499SOL    HW258395   8.054   9.641   5.294
85500SOL     OW58396  13.525   2.867  11.621
85500SOL    HW158397  13.480   2.830  11.697
85500SOL    HW258398  13.470   2.845  11.547
85501SOL     OW58399   5.139   9.508   6.026
85501SOL    HW158400   5.219   9.561   6.032
85501SOL    HW258401   5.101   9.532   5.942
85502SOL     OW58402   5.243   3.171   4.232
85502SOL    HW158403   5.230   3.211   4.318
85502SOL    HW258404   5.321   3.214   4.197
85503SOL     OW58405   3.747   6.999   8.161
85503SOL    HW158406   3.817   6.961   8.215
85503SOL    HW258407   3.683   6.928   8.154
85504SOL     OW58408   1.333  14.585   0.855
85504SOL    HW158409   1.408  14.635   0.824
85504SOL    HW258410   1.365  14.495   0.862
85505SOL     OW58411   6.021   9.271  13.382
85505SOL    HW158412   6.023   9.206  13.312
85505SOL    HW258413   6.113   9.293  13.397
85506SOL     OW58414  10.906   2.702   4.910
85506SOL    HW158415  10.951   2.766   4.855
85506SOL    HW258416  10.821   2.690   4.868
85507SOL     OW58417   6.594   2.109   5.447
85507SOL    HW158418   6.632   2.131   5.362
85507SOL    HW258419   6.572   2.194   5.486
85508SOL     OW58420  14.786  11.496  13.368
85508SOL    HW158421  14.769  11.573  13.315
85508SOL    HW258422  14.728  11.506  13.444
85509SOL     OW58423   6.456   4.842   8.263
85509SOL    HW158424   6.527   4.898   8.230
85509SOL    HW258425   6.411   4.812   8.184
85510SOL     OW58426   8.006  14.394   6.152
85510SOL    HW158427   8.100  14.396   6.135
85510SOL    HW258428   7.965  14.399   6.066
85511SOL     OW58429  13.385  11.010   8.885
85511SOL    HW158430  13.340  10.926   8.888
85511SOL    HW258431  13.475  10.990   8.910
85512SOL     OW58432   9.865   9.678  14.393
85512SOL    HW158433   9.788   9.728  14.367
85512SOL    HW258434   9.873   9.610  14.327
85513SOL     OW58435   5.552  12.939   0.541
85513SOL    HW158436   5.633  12.984   0.565
85513SOL    HW258437   5.497  12.946   0.619
85514SOL     OW58438   6.821   5.406   7.671
85514SOL    HW158439   6.871   5.367   7.598
85514SOL    HW258440   6.869   5.487   7.692
85515SOL     OW58441  14.702   3.891   9.955
85515SOL    HW158442  14.663   3.814   9.997
85515SOL    HW258443  14.711   3.866   9.863
85516SOL     OW58444   7.110  14.639   5.681
85516SOL    HW158445   7.161  14.569   5.642
85516SOL    HW258446   7.136  14.639   5.773
85517SOL     OW58447  14.336   6.173   7.507
85517SOL    HW158448  14.350   6.171   7.601
85517SOL    HW258449  14.243   6.154   7.496
85518SOL     OW58450   8.455  10.811   7.525
85518SOL    HW158451   8.538  10.765   7.509
85518SOL    HW258452   8.471  10.899   7.491
85519SOL     OW58453   4.038  10.455   2.999
85519SOL    HW158454   4.061  10.531   3.051
85519SOL    HW258455   3.945  10.440   3.018
85520SOL     OW58456  10.919   4.222   4.627
85520SOL    HW158457  10.890   4.138   4.593
85520SOL    HW258458  10.978   4.201   4.698
85521SOL     OW58459  11.781  10.941   1.197
85521SOL    HW158460  11.745  10.971   1.114
85521SOL    HW258461  11.706  10.936   1.256
85522SOL     OW58462  13.501   2.983   8.964
85522SOL    HW158463  13.430   3.007   8.905
85522SOL    HW258464  13.489   2.890   8.980
85523SOL     OW58465   5.080   6.225  11.769
85523SOL    HW158466   5.048   6.257  11.686
85523SOL    HW258467   5.109   6.136  11.751
85524SOL     OW58468   6.028   8.145   1.991
85524SOL    HW158469   5.959   8.109   1.937
85524SOL    HW258470   6.049   8.074   2.053
85525SOL     OW58471   9.769   2.474   0.611
85525SOL    HW158472   9.814   2.459   0.694
85525SOL    HW258473   9.676   2.468   0.633
85526SOL     OW58474   6.686  13.962   3.930
85526SOL    HW158475   6.702  13.920   4.015
85526SOL    HW258476   6.720  14.051   3.941
85527SOL     OW58477   7.736   3.957  10.260
85527SOL    HW158478   7.702   3.902  10.331
85527SOL    HW258479   7.831   3.948  10.266
85528SOL     OW58480   1.798   4.930  11.042
85528SOL    HW158481   1.815   4.847  11.087
85528SOL    HW258482   1.883   4.973  11.038
85529SOL     OW58483   9.976   4.250  13.360
85529SOL    HW158484  10.027   4.222  13.284
85529SOL    HW258485   9.981   4.176  13.421
85530SOL     OW58486   6.116   1.240  11.399
85530SOL    HW158487   6.057   1.299  11.444
85530SOL    HW258488   6.183   1.297  11.360
85531SOL     OW58489   9.370  10.223  10.694
85531SOL    HW158490   9.356  10.304  10.644
85531SOL    HW258491   9.336  10.243  10.781
85532SOL     OW58492  10.870   9.039   2.685
85532SOL    HW158493  10.866   9.087   2.602
85532SOL    HW258494  10.896   8.951   2.661
85533SOL     OW58495   1.697   3.224   0.146
85533SOL    HW158496   1.753   3.299   0.165
85533SOL    HW258497   1.640   3.254   0.075
85534SOL     OW58498   4.213  14.732  13.634
85534SOL    HW158499   4.144  14.791  13.605
85534SOL    HW258500   4.270  14.723  13.558
85535SOL     OW58501   2.482   8.234  11.408
85535SOL    HW158502   2.568   8.266  11.432
85535SOL    HW258503   2.472   8.258  11.316
85536SOL     OW58504   0.757   5.250  12.966
85536SOL    HW158505   0.839   5.269  13.011
85536SOL    HW258506   0.763   5.158  12.942
85537SOL     OW58507   8.952  13.698   5.206
85537SOL    HW158508   9.042  13.700   5.239
85537SOL    HW258509   8.960  13.676   5.114
85538SOL     OW58510   8.902   8.908   3.739
85538SOL    HW158511   8.827   8.852   3.719
85538SOL    HW258512   8.885   8.938   3.829
85539SOL     OW58513   6.460  13.851   0.403
85539SOL    HW158514   6.482  13.928   0.456
85539SOL    HW258515   6.492  13.777   0.454
85540SOL     OW58516   9.244  12.175   0.492
85540SOL    HW158517   9.335  12.193   0.468
85540SOL    HW258518   9.239  12.199   0.585
85541SOL     OW58519   4.037   0.690   3.088
85541SOL    HW158520   3.965   0.627   3.095
85541SOL    HW258521   4.113   0.643   3.121
85542SOL     OW58522   7.194   5.736  13.023
85542SOL    HW158523   7.242   5.655  13.041
85542SOL    HW258524   7.262   5.803  13.018
85543SOL     OW58525   4.343  10.968   9.886
85543SOL    HW158526   4.430  10.954   9.848
85543SOL    HW258527   4.282  10.945   9.816
85544SOL     OW58528   6.180   3.883  13.704
85544SOL    HW158529   6.222   3.830  13.771
85544SOL    HW258530   6.184   3.973  13.738
85545SOL     OW58531   1.833  11.366   9.674
85545SOL    HW158532   1.779  11.321   9.608
85545SOL    HW258533   1.794  11.341   9.758
85546SOL     OW58534   0.232   1.550   1.283
85546SOL    HW158535   0.187   1.506   1.356
85546SOL    HW258536   0.181   1.630   1.269
85547SOL     OW58537   1.731   7.715   6.833
85547SOL    HW158538   1.696   7.695   6.746
85547SOL    HW258539   1.826   7.709   6.822
85548SOL     OW58540   6.086   3.448   0.130
85548SOL    HW158541   6.169   3.492   0.110
85548SOL    HW258542   6.068   3.395   0.052
85549SOL     OW58543   8.943   7.497  13.416
85549SOL    HW158544   8.856   7.506  13.377
85549SOL    HW258545   8.937   7.542  13.501
85550SOL     OW58546   9.253   1.516   8.542
85550SOL    HW158547   9.217   1.474   8.621
85550SOL    HW258548   9.187   1.500   8.474
85551SOL     OW58549  12.169  14.302   6.540
85551SOL    HW158550  12.194  14.340   6.624
85551SOL    HW258551  12.073  14.298   6.544
85552SOL     OW58552  13.341   3.319  10.832
85552SOL    HW158553  13.369   3.409  10.850
85552SOL    HW258554  13.287   3.326  10.753
85553SOL     OW58555  12.035   4.249   0.890
85553SOL    HW158556  11.992   4.186   0.947
85553SOL    HW258557  12.113   4.275   0.938
85554SOL     OW58558  10.857  12.719   1.399
85554SOL    HW158559  10.767  12.733   1.370
85554SOL    HW258560  10.853  12.635   1.446
85555SOL     OW58561  11.490  13.048   2.260
85555SOL    HW158562  11.480  12.989   2.185
85555SOL    HW258563  11.443  13.004   2.331
85556SOL     OW58564   8.536   1.995   4.341
85556SOL    HW158565   8.584   1.972   4.261
85556SOL    HW258566   8.602   1.991   4.411
85557SOL     OW58567   4.789  13.489  13.648
85557SOL    HW158568   4.842  13.461  13.722
85557SOL    HW258569   4.843  13.472  13.571
85558SOL     OW58570   8.531  10.191   9.933
85558SOL    HW158571   8.618  10.153   9.924
85558SOL    HW258572   8.547  10.283   9.956
85559SOL     OW58573  10.857   2.235   9.704
85559SOL    HW158574  10.781   2.293   9.696
85559SOL    HW258575  10.820   2.147   9.707
85560SOL     OW58576  10.545   0.521   4.429
85560SOL    HW158577  10.554   0.503   4.335
85560SOL    HW258578  10.477   0.588   4.434
85561SOL     OW58579  12.917   2.485   6.292
85561SOL    HW158580  12.917   2.580   6.276
85561SOL    HW258581  12.832   2.468   6.333
85562SOL     OW58582   6.819  14.873  14.711
85562SOL    HW158583   6.848   0.002  14.620
85562SOL    HW258584   6.822  14.780  14.733
85563SOL     OW58585  13.349   2.519   4.351
85563SOL    HW158586  13.257   2.510   4.327
85563SOL    HW258587  13.397   2.500   4.270
85564SOL     OW58588   8.744   2.726   1.122
85564SOL    HW158589   8.809   2.666   1.160
85564SOL    HW258590   8.682   2.741   1.193
85565SOL     OW58591   4.502   3.221  14.392
85565SOL    HW158592   4.529   3.271  14.470
85565SOL    HW258593   4.568   3.241  14.326
85566SOL     OW58594   6.108  14.660   5.623
85566SOL    HW158595   6.181  14.615   5.666
85566SOL    HW258596   6.071  14.595   5.563
85567SOL     OW58597   5.298   1.946  12.470
85567SOL    HW158598   5.202   1.947  12.466
85567SOL    HW258599   5.326   1.960  12.380
85568SOL     OW58600   9.338   4.727   3.138
85568SOL    HW158601   9.396   4.729   3.061
85568SOL    HW258602   9.365   4.802   3.190
85569SOL     OW58603   0.688  12.365   0.706
85569SOL    HW158604   0.600  12.336   0.681
85569SOL    HW258605   0.677  12.404   0.792
85570SOL     OW58606   0.120   2.364   1.462
85570SOL    HW158607   0.193   2.425   1.448
85570SOL    HW258608   0.159   2.277   1.447
85571SOL     OW58609   0.751   3.290   6.829
85571SOL    HW158610   0.770   3.230   6.901
85571SOL    HW258611   0.759   3.236   6.750
85572SOL     OW58612   6.158  14.482  11.120
85572SOL    HW158613   6.232  14.503  11.177
85572SOL    HW258614   6.197  14.464  11.035
85573SOL     OW58615  11.512   7.029   3.754
85573SOL    HW158616  11.553   7.052   3.670
85573SOL    HW258617  11.475   7.111   3.786
85574SOL     OW58618  13.893   8.073  11.404
85574SOL    HW158619  13.853   8.006  11.460
85574SOL    HW258620  13.971   8.100  11.452
85575SOL     OW58621   8.850   7.936  14.332
85575SOL    HW158622   8.838   7.844  14.352
85575SOL    HW258623   8.871   7.938  14.239
85576SOL     OW58624  11.804   8.003  11.586
85576SOL    HW158625  11.809   7.927  11.645
85576SOL    HW258626  11.727   7.985  11.531
85577SOL     OW58627  10.870  12.579   0.374
85577SOL    HW158628  10.786  12.551   0.409
85577SOL    HW258629  10.878  12.671   0.401
85578SOL     OW58630  10.388   6.917  11.786
85578SOL    HW158631  10.370   6.839  11.839
85578SOL    HW258632  10.331   6.908  11.710
85579SOL     OW58633  10.948   8.338   6.405
85579SOL    HW158634  11.020   8.285   6.439
85579SOL    HW258635  10.912   8.286   6.333
85580SOL     OW58636   9.382   9.082   3.400
85580SOL    HW158637   9.413   8.995   3.425
85580SOL    HW258638   9.309   9.065   3.341
85581SOL     OW58639   0.012   5.613   1.022
85581SOL    HW158640   0.073   5.539   1.023
85581SOL    HW258641   0.008   5.639   0.930
85582SOL     OW58642   3.081   4.799   2.038
85582SOL    HW158643   3.047   4.709   2.037
85582SOL    HW258644   3.039   4.841   1.963
85583SOL     OW58645   3.095   2.924   3.453
85583SOL    HW158646   3.087   3.014   3.483
85583SOL    HW258647   3.188   2.903   3.462
85584SOL     OW58648   4.645   8.988   7.786
85584SOL    HW158649   4.670   9.007   7.696
85584SOL    HW258650   4.631   9.074   7.826
85585SOL     OW58651   4.840   7.914   3.582
85585SOL    HW158652   4.880   7.984   3.634
85585SOL    HW258653   4.856   7.940   3.491
85586SOL     OW58654  13.009  12.833  12.475
85586SOL    HW158655  12.993  12.898  12.407
85586SOL    HW258656  12.930  12.779  12.475
85587SOL     OW58657   0.234  14.425   8.795
85587SOL    HW158658   0.143  14.422   8.765
85587SOL    HW258659   0.285  14.392   8.722
85588SOL     OW58660  12.724   9.964   2.240
85588SOL    HW158661  12.811   9.958   2.280
85588SOL    HW258662  12.732   9.915   2.158
85589SOL     OW58663   2.319   7.440  13.526
85589SOL    HW158664   2.284   7.527  13.546
85589SOL    HW258665   2.316   7.434  13.431
85590SOL     OW58666  13.464  14.597   5.223
85590SOL    HW158667  13.430  14.605   5.133
85590SOL    HW258668  13.406  14.652   5.275
85591SOL     OW58669   5.462   5.167  14.556
85591SOL    HW158670   5.494   5.257  14.560
85591SOL    HW258671   5.541   5.113  14.557
85592SOL     OW58672   6.878   5.368   1.638
85592SOL    HW158673   6.917   5.422   1.707
85592SOL    HW258674   6.889   5.278   1.668
85593SOL     OW58675  11.691   6.570  13.676
85593SOL    HW158676  11.733   6.650  13.707
85593SOL    HW258677  11.635   6.543  13.748
85594SOL     OW58678   5.068  11.587   8.351
85594SOL    HW158679   5.095  11.625   8.267
85594SOL    HW258680   5.147  11.545   8.385
85595SOL     OW58681  11.540  10.827  14.476
85595SOL    HW158682  11.459  10.776  14.474
85595SOL    HW258683  11.538  10.878  14.395
85596SOL     OW58684  11.628   6.243  11.088
85596SOL    HW158685  11.681   6.194  11.025
85596SOL    HW258686  11.551   6.272  11.038
85597SOL     OW58687   1.017  13.086   6.704
85597SOL    HW158688   1.070  13.153   6.747
85597SOL    HW258689   0.953  13.135   6.653
85598SOL     OW58690   1.941  14.344   4.905
85598SOL    HW158691   2.021  14.294   4.918
85598SOL    HW258692   1.965  14.434   4.922
85599SOL     OW58693  10.991   9.257   5.231
85599SOL    HW158694  10.945   9.332   5.269
85599SOL    HW258695  10.997   9.278   5.138
85600SOL     OW58696   1.029   5.884  11.930
85600SOL    HW158697   1.017   5.839  11.846
85600SOL    HW258698   0.941   5.903  11.960
85601SOL     OW58699   8.936   2.092   7.465
85601SOL    HW158700   8.967   2.099   7.375
85601SOL    HW258701   9.014   2.105   7.519
85602SOL     OW58702   6.521  14.480  13.349
85602SOL    HW158703   6.495  14.516  13.434
85602SOL    HW258704   6.522  14.556  13.291
85603SOL     OW58705   9.646  13.380  10.060
85603SOL    HW158706   9.732  13.352  10.029
85603SOL    HW258707   9.665  13.449  10.124
85604SOL     OW58708   8.232  10.430   0.776
85604SOL    HW158709   8.288  10.360   0.806
85604SOL    HW258710   8.198  10.400   0.691
85605SOL     OW58711   1.409   1.955  14.576
85605SOL    HW158712   1.371   1.875  14.542
85605SOL    HW258713   1.353   1.978  14.651
85606SOL     OW58714   5.321  13.060   4.538
85606SOL    HW158715   5.286  13.063   4.449
85606SOL    HW258716   5.337  12.967   4.555
85607SOL     OW58717  11.567   7.381   2.609
85607SOL    HW158718  11.585   7.287   2.615
85607SOL    HW258719  11.545   7.406   2.699
85608SOL     OW58720   9.360   9.034   4.566
85608SOL    HW158721   9.421   9.056   4.636
85608SOL    HW258722   9.415   9.003   4.494
85609SOL     OW58723   3.927   0.984  11.929
85609SOL    HW158724   3.946   0.994  11.836
85609SOL    HW258725   3.834   0.961  11.932
85610SOL     OW58726   7.423   0.635   4.364
85610SOL    HW158727   7.474   0.687   4.427
85610SOL    HW258728   7.488   0.581   4.320
85611SOL     OW58729  11.353  14.091   2.939
85611SOL    HW158730  11.443  14.075   2.908
85611SOL    HW258731  11.298  14.057   2.868
85612SOL     OW58732  12.028   3.688   0.339
85612SOL    HW158733  12.094   3.635   0.293
85612SOL    HW258734  12.078   3.736   0.405
85613SOL     OW58735   5.400  13.496   7.351
85613SOL    HW158736   5.408  13.568   7.288
85613SOL    HW258737   5.450  13.425   7.311
85614SOL     OW58738   2.309   3.461  10.298
85614SOL    HW158739   2.399   3.428  10.310
85614SOL    HW258740   2.278   3.479  10.387
85615SOL     OW58741  13.383   4.740  10.127
85615SOL    HW158742  13.426   4.726  10.042
85615SOL    HW258743  13.380   4.835  10.137
85616SOL     OW58744   9.693   7.141   8.643
85616SOL    HW158745   9.778   7.106   8.616
85616SOL    HW258746   9.646   7.157   8.561
85617SOL     OW58747   5.121   0.770   4.815
85617SOL    HW158748   5.108   0.843   4.877
85617SOL    HW258749   5.033   0.751   4.782
85618SOL     OW58750   4.508   6.886  12.928
85618SOL    HW158751   4.581   6.856  12.874
85618SOL    HW258752   4.548   6.946  12.992
85619SOL     OW58753   9.368   1.854   8.153
85619SOL    HW158754   9.341   1.927   8.096
85619SOL    HW258755   9.321   1.778   8.119
85620SOL     OW58756   5.419   0.477   5.444
85620SOL    HW158757   5.416   0.527   5.363
85620SOL    HW258758   5.328   0.458   5.465
85621SOL     OW58759   8.800  10.487  11.128
85621SOL    HW158760   8.854  10.503  11.206
85621SOL    HW258761   8.739  10.418  11.156
85622SOL     OW58762   8.975  10.027   7.223
85622SOL    HW158763   9.051  10.032   7.281
85622SOL    HW258764   8.989  10.097   7.159
85623SOL     OW58765   8.953   1.641   0.883
85623SOL    HW158766   8.887   1.573   0.897
85623SOL    HW258767   9.025   1.597   0.838
85624SOL     OW58768  10.913  10.725   2.176
85624SOL    HW158769  10.907  10.815   2.143
85624SOL    HW258770  10.858  10.725   2.255
85625SOL     OW58771   4.950   6.248   7.675
85625SOL    HW158772   4.964   6.277   7.584
85625SOL    HW258773   4.937   6.329   7.724
85626SOL     OW58774  13.544  13.056   8.456
85626SOL    HW158775  13.615  13.099   8.408
85626SOL    HW258776  13.511  13.124   8.514
85627SOL     OW58777   9.490   6.917  11.924
85627SOL    HW158778   9.578   6.916  11.963
85627SOL    HW258779   9.441   6.852  11.973
85628SOL     OW58780  14.696  13.913  14.470
85628SOL    HW158781  14.698  13.915  14.566
85628SOL    HW258782  14.708  14.005  14.445
85629SOL     OW58783   5.562   9.860  11.380
85629SOL    HW158784   5.540   9.774  11.415
85629SOL    HW258785   5.643   9.846  11.332
85630SOL     OW58786   6.107  13.713   5.998
85630SOL    HW158787   6.196  13.695   5.967
85630SOL    HW258788   6.103  13.808   6.005
85631SOL     OW58789   6.868  10.646   5.584
85631SOL    HW158790   6.898  10.737   5.593
85631SOL    HW258791   6.915  10.613   5.508
85632SOL     OW58792  10.708   1.856   5.078
85632SOL    HW158793  10.673   1.769   5.055
85632SOL    HW258794  10.757   1.841   5.159
85633SOL     OW58795  14.696  11.243   4.736
85633SOL    HW158796  14.679  11.337   4.741
85633SOL    HW258797  14.624  11.203   4.785
85634SOL     OW58798  12.966   1.168  13.364
85634SOL    HW158799  12.952   1.110  13.289
85634SOL    HW258800  12.917   1.247  13.343
85635SOL     OW58801   3.635   7.324   1.201
85635SOL    HW158802   3.650   7.417   1.220
85635SOL    HW258803   3.723   7.289   1.182
85636SOL     OW58804   7.491  13.964   5.395
85636SOL    HW158805   7.458  13.926   5.314
85636SOL    HW258806   7.456  13.908   5.464
85637SOL     OW58807   7.559  10.371  13.555
85637SOL    HW158808   7.630  10.338  13.500
85637SOL    HW258809   7.576  10.332  13.641
85638SOL     OW58810   8.439  11.672   0.724
85638SOL    HW158811   8.447  11.767   0.713
85638SOL    HW258812   8.348  11.653   0.702
85639SOL     OW58813  14.265  13.792   2.695
85639SOL    HW158814  14.261  13.853   2.769
85639SOL    HW258815  14.350  13.812   2.654
85640SOL     OW58816   9.712   1.513  13.649
85640SOL    HW158817   9.723   1.420  13.631
85640SOL    HW258818   9.727   1.521  13.743
85641SOL     OW58819  13.118   8.767   3.161
85641SOL    HW158820  13.094   8.832   3.095
85641SOL    HW258821  13.050   8.774   3.228
85642SOL     OW58822   5.568  12.117   8.878
85642SOL    HW158823   5.511  12.041   8.862
85642SOL    HW258824   5.507  12.191   8.883
85643SOL     OW58825   5.446   4.610   9.919
85643SOL    HW158826   5.514   4.674   9.941
85643SOL    HW258827   5.476   4.528   9.958
85644SOL     OW58828   8.316   2.304   3.431
85644SOL    HW158829   8.360   2.387   3.413
85644SOL    HW258830   8.280   2.315   3.519
85645SOL     OW58831   3.708   6.540  12.874
85645SOL    HW158832   3.770   6.613  12.881
85645SOL    HW258833   3.752   6.468  12.919
85646SOL     OW58834   4.460   5.918   4.876
85646SOL    HW158835   4.477   5.871   4.958
85646SOL    HW258836   4.537   5.975   4.865
85647SOL     OW58837   5.745   1.011   9.229
85647SOL    HW158838   5.742   0.940   9.293
85647SOL    HW258839   5.673   0.992   9.168
85648SOL     OW58840   5.645   0.442   6.272
85648SOL    HW158841   5.650   0.428   6.367
85648SOL    HW258842   5.729   0.482   6.250
85649SOL     OW58843   2.406  13.259  10.388
85649SOL    HW158844   2.331  13.230  10.335
85649SOL    HW258845   2.471  13.190  10.377
85650SOL     OW58846  12.023  12.530   3.019
85650SOL    HW158847  12.084  12.460   3.042
85650SOL    HW258848  11.953  12.485   2.972
85651SOL     OW58849   6.915  12.684   2.864
85651SOL    HW158850   6.893  12.775   2.883
85651SOL    HW258851   6.875  12.666   2.779
85652SOL     OW58852  13.710  10.088  10.456
85652SOL    HW158853  13.643  10.119  10.395
85652SOL    HW258854  13.704   9.992  10.451
85653SOL     OW58855   1.176   0.967  10.531
85653SOL    HW158856   1.267   0.941  10.518
85653SOL    HW258857   1.125   0.894  10.496
85654SOL     OW58858   6.756   2.583  10.354
85654SOL    HW158859   6.688   2.587  10.286
85654SOL    HW258860   6.782   2.674  10.366
85655SOL     OW58861  13.147   9.387   3.398
85655SOL    HW158862  13.148   9.306   3.450
85655SOL    HW258863  13.152   9.457   3.462
85656SOL     OW58864  12.176  13.159   8.376
85656SOL    HW158865  12.239  13.094   8.408
85656SOL    HW258866  12.097  13.107   8.356
85657SOL     OW58867  14.392   2.162   8.848
85657SOL    HW158868  14.409   2.225   8.779
85657SOL    HW258869  14.405   2.077   8.807
85658SOL     OW58870   9.536  10.765   9.299
85658SOL    HW158871   9.551  10.727   9.386
85658SOL    HW258872   9.606  10.830   9.289
85659SOL     OW58873   5.413   9.066   8.614
85659SOL    HW158874   5.478   9.134   8.633
85659SOL    HW258875   5.462   8.984   8.620
85660SOL     OW58876   1.684   6.340   3.016
85660SOL    HW158877   1.677   6.428   2.977
85660SOL    HW258878   1.719   6.356   3.104
85661SOL     OW58879  14.161   6.646   1.454
85661SOL    HW158880  14.094   6.638   1.386
85661SOL    HW258881  14.228   6.701   1.414
85662SOL     OW58882  13.033   6.531   1.533
85662SOL    HW158883  13.107   6.578   1.572
85662SOL    HW258884  12.986   6.494   1.607
85663SOL     OW58885  12.939  14.077   0.418
85663SOL    HW158886  12.933  14.171   0.437
85663SOL    HW258887  13.032  14.057   0.423
85664SOL     OW58888  12.187  11.940  12.319
85664SOL    HW158889  12.138  12.006  12.368
85664SOL    HW258890  12.278  11.969  12.324
85665SOL     OW58891   2.307   0.164   8.442
85665SOL    HW158892   2.268   0.092   8.491
85665SOL    HW258893   2.392   0.178   8.483
85666SOL     OW58894   3.463   4.781   5.821
85666SOL    HW158895   3.416   4.715   5.770
85666SOL    HW258896   3.525   4.730   5.874
85667SOL     OW58897   4.310   8.434   9.763
85667SOL    HW158898   4.397   8.447   9.724
85667SOL    HW258899   4.305   8.339   9.778
85668SOL     OW58900  11.402   1.982   5.433
85668SOL    HW158901  11.490   1.957   5.461
85668SOL    HW258902  11.344   1.921   5.479
85669SOL     OW58903   3.410  12.996   4.233
85669SOL    HW158904   3.375  13.085   4.223
85669SOL    HW258905   3.497  13.000   4.192
85670SOL     OW58906   1.018  13.169   4.814
85670SOL    HW158907   0.953  13.107   4.781
85670SOL    HW258908   0.968  13.249   4.833
85671SOL     OW58909   7.514   7.849  14.071
85671SOL    HW158910   7.508   7.850  13.975
85671SOL    HW258911   7.485   7.936  14.098
85672SOL     OW58912   1.102   4.544   7.959
85672SOL    HW158913   1.048   4.606   8.009
85672SOL    HW258914   1.191   4.578   7.967
85673SOL     OW58915   5.878   5.919  10.610
85673SOL    HW158916   5.923   5.932  10.527
85673SOL    HW258917   5.789   5.892  10.587
85674SOL     OW58918   2.046  12.050   3.375
85674SOL    HW158919   2.081  12.044   3.286
85674SOL    HW258920   2.117  12.019   3.431
85675SOL     OW58921  12.453   2.244   8.204
85675SOL    HW158922  12.422   2.153   8.199
85675SOL    HW258923  12.541   2.242   8.166
85676SOL     OW58924   1.588  11.729  11.704
85676SOL    HW158925   1.495  11.707  11.711
85676SOL    HW258926   1.630  11.646  11.680
85677SOL     OW58927  11.971  11.087   0.444
85677SOL    HW158928  11.962  10.992   0.451
85677SOL    HW258929  12.065  11.101   0.439
85678SOL     OW58930   4.708   0.986   3.424
85678SOL    HW158931   4.779   0.927   3.398
85678SOL    HW258932   4.743   1.074   3.410
85679SOL     OW58933   1.441   3.729   8.882
85679SOL    HW158934   1.398   3.814   8.871
85679SOL    HW258935   1.410   3.677   8.808
85680SOL     OW58936  14.537   5.596  12.401
85680SOL    HW158937  14.557   5.504  12.420
85680SOL    HW258938  14.591   5.616  12.325
85681SOL     OW58939  14.531   1.410   5.945
85681SOL    HW158940  14.462   1.377   6.003
85681SOL    HW258941  14.532   1.349   5.872
85682SOL     OW58942   7.313  14.754   3.991
85682SOL    HW158943   7.334  14.743   4.084
85682SOL    HW258944   7.350  14.677   3.949
85683SOL     OW58945   8.322   0.190   8.903
85683SOL    HW158946   8.376   0.111   8.902
85683SOL    HW258947   8.277   0.187   8.988
85684SOL     OW58948   2.942   8.037  14.693
85684SOL    HW158949   2.875   7.989  14.644
85684SOL    HW258950   3.017   7.978  14.696
85685SOL     OW58951   6.594  11.052  14.615
85685SOL    HW158952   6.526  11.052  14.548
85685SOL    HW258953   6.675  11.070  14.566
85686SOL     OW58954   0.191  14.326   9.694
85686SOL    HW158955   0.174  14.236   9.667
85686SOL    HW258956   0.180  14.325   9.789
85687SOL     OW58957   3.353  11.968   7.343
85687SOL    HW158958   3.375  11.980   7.435
85687SOL    HW258959   3.432  11.930   7.304
85688SOL     OW58960  11.566   4.107  13.523
85688SOL    HW158961  11.578   4.085  13.615
85688SOL    HW258962  11.476   4.137  13.517
85689SOL     OW58963   7.919  10.976   0.755
85689SOL    HW158964   7.887  11.025   0.680
85689SOL    HW258965   7.883  11.022   0.831
85690SOL     OW58966  11.340  13.477   1.755
85690SOL    HW158967  11.299  13.463   1.840
85690SOL    HW258968  11.427  13.510   1.775
85691SOL     OW58969  13.734   0.082  12.666
85691SOL    HW158970  13.763   0.158  12.614
85691SOL    HW258971  13.640   0.093  12.673
85692SOL     OW58972  10.785  11.430  12.229
85692SOL    HW158973  10.849  11.460  12.293
85692SOL    HW258974  10.788  11.334  12.237
85693SOL     OW58975  12.310   4.951   6.495
85693SOL    HW158976  12.385   5.011   6.500
85693SOL    HW258977  12.303   4.914   6.583
85694SOL     OW58978   4.212   6.310   2.707
85694SOL    HW158979   4.226   6.239   2.770
85694SOL    HW258980   4.237   6.273   2.623
85695SOL     OW58981  14.815   9.923   5.849
85695SOL    HW158982  14.817   9.973   5.931
85695SOL    HW258983  14.854   9.839   5.872
85696SOL     OW58984   5.121  13.096  11.595
85696SOL    HW158985   5.026  13.081  11.591
85696SOL    HW258986   5.134  13.152  11.672
85697SOL     OW58987   7.612  13.350   2.827
85697SOL    HW158988   7.657  13.407   2.889
85697SOL    HW258989   7.678  13.329   2.761
85698SOL     OW58990   3.912   1.340   4.486
85698SOL    HW158991   3.967   1.264   4.467
85698SOL    HW258992   3.951   1.378   4.565
85699SOL     OW58993   3.065  10.005  12.408
85699SOL    HW158994   3.056   9.949  12.331
85699SOL    HW258995   3.157   9.995  12.434
85700SOL     OW58996  14.146   5.357   3.399
85700SOL    HW158997  14.095   5.379   3.321
85700SOL    HW258998  14.236   5.382   3.376
85701SOL     OW58999   8.445  10.750   1.898
85701SOL    HW159000   8.529  10.713   1.870
85701SOL    HW259001   8.449  10.842   1.871
85702SOL     OW59002   5.565   9.259  14.024
85702SOL    HW159003   5.615   9.302  14.093
85702SOL    HW259004   5.480   9.240  14.064
85703SOL     OW59005   2.491   9.200  12.596
85703SOL    HW159006   2.411   9.209  12.544
85703SOL    HW259007   2.479   9.262  12.669
85704SOL     OW59008   9.344   2.889  10.425
85704SOL    HW159009   9.249   2.897  10.437
85704SOL    HW259010   9.358   2.909  10.332
85705SOL     OW59011   3.518   6.895  13.189
85705SOL    HW159012   3.581   6.853  13.131
85705SOL    HW259013   3.571   6.939  13.256
85706SOL     OW59014   4.115   3.826   7.403
85706SOL    HW159015   4.077   3.749   7.443
85706SOL    HW259016   4.072   3.900   7.446
85707SOL     OW59017  14.202   2.284  13.983
85707SOL    HW159018  14.112   2.279  14.014
85707SOL    HW259019  14.201   2.351  13.915
85708SOL     OW59020   8.436   6.042   0.458
85708SOL    HW159021   8.517   6.004   0.423
85708SOL    HW259022   8.465   6.123   0.500
85709SOL     OW59023  11.601   4.664   5.829
85709SOL    HW159024  11.617   4.756   5.808
85709SOL    HW259025  11.650   4.649   5.910
85710SOL     OW59026   1.083   7.144   8.299
85710SOL    HW159027   1.122   7.059   8.319
85710SOL    HW259028   1.158   7.201   8.283
85711SOL     OW59029  12.540   1.571   5.793
85711SOL    HW159030  12.514   1.534   5.878
85711SOL    HW259031  12.471   1.543   5.733
85712SOL     OW59032   5.793  13.101   2.419
85712SOL    HW159033   5.865  13.163   2.434
85712SOL    HW259034   5.742  13.139   2.349
85713SOL     OW59035   0.170   6.515   2.939
85713SOL    HW159036   0.129   6.460   2.872
85713SOL    HW259037   0.263   6.493   2.935
85714SOL     OW59038   5.004   2.894   6.005
85714SOL    HW159039   4.958   2.975   5.983
85714SOL    HW259040   4.940   2.842   6.053
85715SOL     OW59041  11.053   2.572   6.855
85715SOL    HW159042  11.026   2.632   6.785
85715SOL    HW259043  11.053   2.626   6.934
85716SOL     OW59044  13.884   2.381  14.554
85716SOL    HW159045  13.828   2.459  14.566
85716SOL    HW259046  13.946   2.406  14.486
85717SOL     OW59047   5.959   3.605  10.830
85717SOL    HW159048   5.882   3.564  10.868
85717SOL    HW259049   6.003   3.647  10.905
85718SOL     OW59050  13.819   4.461  10.301
85718SOL    HW159051  13.752   4.489  10.239
85718SOL    HW259052  13.827   4.367  10.286
85719SOL     OW59053   3.421  14.738   3.847
85719SOL    HW159054   3.401  14.820   3.891
85719SOL    HW259055   3.337  14.694   3.838
85720SOL     OW59056   8.892   0.966  11.830
85720SOL    HW159057   8.854   0.980  11.744
85720SOL    HW259058   8.900   1.054  11.867
85721SOL     OW59059   3.799   1.841   2.193
85721SOL    HW159060   3.786   1.760   2.242
85721SOL    HW259061   3.863   1.890   2.244
85722SOL     OW59062  14.344   0.860   0.169
85722SOL    HW159063  14.306   0.924   0.108
85722SOL    HW259064  14.308   0.883   0.254
85723SOL     OW59065   9.597   8.029  10.805
85723SOL    HW159066   9.617   7.965  10.737
85723SOL    HW259067   9.596   8.113  10.759
85724SOL     OW59068   4.239  13.947   7.354
85724SOL    HW159069   4.217  14.039   7.337
85724SOL    HW259070   4.314  13.951   7.414
85725SOL     OW59071  13.654  12.761   2.038
85725SOL    HW159072  13.739  12.718   2.051
85725SOL    HW259073  13.660  12.798   1.949
85726SOL     OW59074   2.358   9.679  13.149
85726SOL    HW159075   2.440   9.722  13.175
85726SOL    HW259076   2.381   9.629  13.070
85727SOL     OW59077  13.261  11.350   0.799
85727SOL    HW159078  13.206  11.424   0.774
85727SOL    HW259079  13.286  11.368   0.890
85728SOL     OW59080   8.124   5.454   1.645
85728SOL    HW159081   8.052   5.465   1.582
85728SOL    HW259082   8.140   5.360   1.645
85729SOL     OW59083   6.458   6.049  14.778
85729SOL    HW159084   6.423   5.993  14.848
85729SOL    HW259085   6.396   6.122  14.773
85730SOL     OW59086   9.772   3.406  14.833
85730SOL    HW159087   9.702   3.422   0.022
85730SOL    HW259088   9.780   3.311  14.830
85731SOL     OW59089  13.237   8.063   4.670
85731SOL    HW159090  13.198   8.074   4.757
85731SOL    HW259091  13.187   7.992   4.630
85732SOL     OW59092   5.912   0.531  11.653
85732SOL    HW159093   5.912   0.515  11.747
85732SOL    HW259094   5.820   0.525  11.627
85733SOL     OW59095  11.051   1.391   3.017
85733SOL    HW159096  11.144   1.372   3.004
85733SOL    HW259097  11.020   1.319   3.073
85734SOL     OW59098   0.998   1.995   3.315
85734SOL    HW159099   0.980   1.945   3.395
85734SOL    HW259100   1.060   2.063   3.343
85735SOL     OW59101  12.984  13.170   5.893
85735SOL    HW159102  13.068  13.170   5.845
85735SOL    HW259103  12.931  13.104   5.847
85736SOL     OW59104  14.302  11.085   6.833
85736SOL    HW159105  14.340  11.043   6.910
85736SOL    HW259106  14.312  11.021   6.763
85737SOL     OW59107  10.708  12.653   3.293
85737SOL    HW159108  10.631  12.710   3.286
85737SOL    HW259109  10.690  12.598   3.369
85738SOL     OW59110   1.114  12.431   8.745
85738SOL    HW159111   1.112  12.469   8.657
85738SOL    HW259112   1.043  12.475   8.792
85739SOL     OW59113   2.319   7.086  13.921
85739SOL    HW159114   2.289   7.177  13.917
85739SOL    HW259115   2.386   7.085  13.990
85740SOL     OW59116   9.309   5.353   2.677
85740SOL    HW159117   9.214   5.364   2.677
85740SOL    HW259118   9.323   5.259   2.689
85741SOL     OW59119   8.221   0.223   3.130
85741SOL    HW159120   8.193   0.299   3.079
85741SOL    HW259121   8.218   0.150   3.067
85742SOL     OW59122   7.865   0.678  13.099
85742SOL    HW159123   7.863   0.590  13.061
85742SOL    HW259124   7.774   0.699  13.117
85743SOL     OW59125  14.060   1.866   9.442
85743SOL    HW159126  14.123   1.867   9.370
85743SOL    HW259127  14.035   1.774   9.451
85744SOL     OW59128   4.338   0.336   2.491
85744SOL    HW159129   4.356   0.343   2.585
85744SOL    HW259130   4.305   0.247   2.480
85745SOL     OW59131  14.748   2.401   2.711
85745SOL    HW159132  14.708   2.487   2.699
85745SOL    HW259133  14.675   2.343   2.734
85746SOL     OW59134  10.235   8.665   9.675
85746SOL    HW159135  10.251   8.721   9.599
85746SOL    HW259136  10.139   8.666   9.686
85747SOL     OW59137   0.430   0.067   0.125
85747SOL    HW159138   0.525   0.074   0.134
85747SOL    HW259139   0.408   0.129   0.055
85748SOL     OW59140  11.441   9.131   4.146
85748SOL    HW159141  11.474   9.169   4.227
85748SOL    HW259142  11.394   9.203   4.104
85749SOL     OW59143  12.717   7.661   8.819
85749SOL    HW159144  12.735   7.707   8.901
85749SOL    HW259145  12.677   7.727   8.762
85750SOL     OW59146   2.405  10.944   9.298
85750SOL    HW159147   2.468  11.014   9.311
85750SOL    HW259148   2.452  10.864   9.324
85751SOL     OW59149   0.958   8.493   3.185
85751SOL    HW159150   1.027   8.427   3.183
85751SOL    HW259151   0.973   8.546   3.106
85752SOL     OW59152   4.715   6.283  13.231
85752SOL    HW159153   4.776   6.221  13.273
85752SOL    HW259154   4.646   6.228  13.195
85753SOL     OW59155  10.471  10.885  12.106
85753SOL    HW159156  10.506  10.929  12.028
85753SOL    HW259157  10.390  10.932  12.126
85754SOL     OW59158  11.776  10.795   8.823
85754SOL    HW159159  11.741  10.793   8.733
85754SOL    HW259160  11.868  10.815   8.812
85755SOL     OW59161  11.968   3.314   7.115
85755SOL    HW159162  11.932   3.258   7.184
85755SOL    HW259163  12.052   3.273   7.092
85756SOL     OW59164  14.231  10.130   3.592
85756SOL    HW159165  14.174  10.096   3.660
85756SOL    HW259166  14.305  10.069   3.589
85757SOL     OW59167   5.617  11.590   2.457
85757SOL    HW159168   5.652  11.563   2.542
85757SOL    HW259169   5.608  11.508   2.408
85758SOL     OW59170  12.252   2.437   5.510
85758SOL    HW159171  12.315   2.508   5.499
85758SOL    HW259172  12.212   2.454   5.595
85759SOL     OW59173   3.621   5.582   3.093
85759SOL    HW159174   3.676   5.623   3.159
85759SOL    HW259175   3.533   5.582   3.131
85760SOL     OW59176  11.053   8.335   1.281
85760SOL    HW159177  11.119   8.385   1.232
85760SOL    HW259178  11.097   8.253   1.304
85761SOL     OW59179  12.601   6.611   7.184
85761SOL    HW159180  12.692   6.637   7.198
85761SOL    HW259181  12.583   6.633   7.093
85762SOL     OW59182   0.461   5.673  13.455
85762SOL    HW159183   0.503   5.676  13.369
85762SOL    HW259184   0.476   5.761  13.492
85763SOL     OW59185   1.767   1.902   7.180
85763SOL    HW159186   1.705   1.832   7.201
85763SOL    HW259187   1.746   1.972   7.242
85764SOL     OW59188   3.247   1.135  10.253
85764SOL    HW159189   3.247   1.204  10.320
85764SOL    HW259190   3.329   1.149  10.205
85765SOL     OW59191   3.960  14.485   7.296
85765SOL    HW159192   3.952  14.393   7.271
85765SOL    HW259193   3.873  14.509   7.328
85766SOL     OW59194   8.116   4.487  14.178
85766SOL    HW159195   8.183   4.545  14.141
85766SOL    HW259196   8.041   4.545  14.195
85767SOL     OW59197   5.525   3.624  13.320
85767SOL    HW159198   5.444   3.672  13.339
85767SOL    HW259199   5.506   3.575  13.240
85768SOL     OW59200   7.094   5.592  14.422
85768SOL    HW159201   7.174   5.622  14.379
85768SOL    HW259202   7.053   5.534  14.358
85769SOL     OW59203   0.628   6.742  11.443
85769SOL    HW159204   0.574   6.820  11.460
85769SOL    HW259205   0.700   6.774  11.388
85770SOL     OW59206   7.750   2.997  12.527
85770SOL    HW159207   7.811   3.051  12.576
85770SOL    HW259208   7.670   3.050  12.521
85771SOL     OW59209  12.815   0.291   3.005
85771SOL    HW159210  12.719   0.296   3.012
85771SOL    HW259211  12.831   0.276   2.912
85772SOL     OW59212   5.246   7.251   9.000
85772SOL    HW159213   5.311   7.208   8.944
85772SOL    HW259214   5.288   7.333   9.025
85773SOL     OW59215   9.327   5.506   4.937
85773SOL    HW159216   9.387   5.452   4.990
85773SOL    HW259217   9.240   5.478   4.964
85774SOL     OW59218   6.996   5.705   6.828
85774SOL    HW159219   7.019   5.613   6.813
85774SOL    HW259220   6.987   5.742   6.740
85775SOL     OW59221  11.631   7.283   1.070
85775SOL    HW159222  11.588   7.197   1.067
85775SOL    HW259223  11.584   7.336   1.006
85776SOL     OW59224   9.761   4.026  13.677
85776SOL    HW159225   9.727   3.990  13.596
85776SOL    HW259226   9.697   4.092  13.703
85777SOL     OW59227  14.420   7.045   7.465
85777SOL    HW159228  14.432   6.951   7.479
85777SOL    HW259229  14.509   7.080   7.465
85778SOL     OW59230   8.335   9.662   2.205
85778SOL    HW159231   8.375   9.740   2.166
85778SOL    HW259232   8.298   9.614   2.130
85779SOL     OW59233   3.329  14.641   5.783
85779SOL    HW159234   3.313  14.565   5.839
85779SOL    HW259235   3.344  14.603   5.696
85780SOL     OW59236   7.209   5.272   6.932
85780SOL    HW159237   7.293   5.273   6.976
85780SOL    HW259238   7.196   5.180   6.905
85781SOL     OW59239   1.639  11.660  13.358
85781SOL    HW159240   1.586  11.583  13.379
85781SOL    HW259241   1.683  11.636  13.276
85782SOL     OW59242  12.807   3.463  12.981
85782SOL    HW159243  12.770   3.419  13.058
85782SOL    HW259244  12.898   3.480  13.005
85783SOL     OW59245  11.233  12.936   7.035
85783SOL    HW159246  11.325  12.949   7.012
85783SOL    HW259247  11.235  12.873   7.107
85784SOL     OW59248   7.719  10.760   7.805
85784SOL    HW159249   7.776  10.776   7.730
85784SOL    HW259250   7.631  10.772   7.771
85785SOL     OW59251   0.290   7.448   2.401
85785SOL    HW159252   0.198   7.447   2.425
85785SOL    HW259253   0.311   7.541   2.388
85786SOL     OW59254   8.175   1.047  10.168
85786SOL    HW159255   8.084   1.078  10.167
85786SOL    HW259256   8.172   0.964  10.215
85787SOL     OW59257   5.909   5.468  10.576
85787SOL    HW159258   6.003   5.450  10.567
85787SOL    HW259259   5.894   5.543  10.519
85788SOL     OW59260   5.203  11.641  10.533
85788SOL    HW159261   5.133  11.641  10.467
85788SOL    HW259262   5.172  11.581  10.601
85789SOL     OW59263  12.906   4.843   3.444
85789SOL    HW159264  12.814   4.820   3.452
85789SOL    HW259265  12.907   4.926   3.397
85790SOL     OW59266  11.214   6.353  13.484
85790SOL    HW159267  11.287   6.385  13.432
85790SOL    HW259268  11.253   6.321  13.565
85791SOL     OW59269   7.535   1.111   0.417
85791SOL    HW159270   7.574   1.189   0.459
85791SOL    HW259271   7.442   1.132   0.411
85792SOL     OW59272   5.162  12.790   6.738
85792SOL    HW159273   5.144  12.873   6.692
85792SOL    HW259274   5.119  12.800   6.823
85793SOL     OW59275  10.176   0.020   9.958
85793SOL    HW159276  10.250  14.848   9.997
85793SOL    HW259277  10.189   0.013   9.864
85794SOL     OW59278  10.620   8.874   8.846
85794SOL    HW159279  10.647   8.832   8.764
85794SOL    HW259280  10.585   8.802   8.899
85795SOL     OW59281   8.484  13.046   8.556
85795SOL    HW159282   8.531  13.033   8.638
85795SOL    HW259283   8.485  13.141   8.543
85796SOL     OW59284   9.639   8.042   5.402
85796SOL    HW159285   9.670   8.093   5.477
85796SOL    HW259286   9.677   8.086   5.326
85797SOL     OW59287   1.902   4.562   8.311
85797SOL    HW159288   1.822   4.517   8.340
85797SOL    HW259289   1.972   4.498   8.326
85798SOL     OW59290   7.206   1.018  10.021
85798SOL    HW159291   7.119   0.992   9.991
85798SOL    HW259292   7.209   1.113  10.010
85799SOL     OW59293   2.425  11.234   0.058
85799SOL    HW159294   2.352  11.230  14.872
85799SOL    HW259295   2.447  11.142   0.074
85800SOL     OW59296  11.369   4.821   9.965
85800SOL    HW159297  11.338   4.794  10.051
85800SOL    HW259298  11.459   4.790   9.961
85801SOL     OW59299   4.571   6.574   6.123
85801SOL    HW159300   4.581   6.561   6.029
85801SOL    HW259301   4.481   6.604   6.134
85802SOL     OW59302   8.121   1.673  10.457
85802SOL    HW159303   8.190   1.710  10.403
85802SOL    HW259304   8.133   1.714  10.543
85803SOL     OW59305   3.676   7.175  10.800
85803SOL    HW159306   3.760   7.222  10.804
85803SOL    HW259307   3.658   7.167  10.707
85804SOL     OW59308   0.684   2.534   6.613
85804SOL    HW159309   0.638   2.496   6.688
85804SOL    HW259310   0.614   2.562   6.553
85805SOL     OW59311   7.108   3.815   8.456
85805SOL    HW159312   7.190   3.839   8.413
85805SOL    HW259313   7.073   3.744   8.401
85806SOL     OW59314   7.395   2.171  10.611
85806SOL    HW159315   7.334   2.130  10.550
85806SOL    HW259316   7.402   2.262  10.582
85807SOL     OW59317   4.073   9.841   5.228
85807SOL    HW159318   4.155   9.794   5.215
85807SOL    HW259319   4.015   9.777   5.269
85808SOL     OW59320  13.390   2.301   4.506
85808SOL    HW159321  13.468   2.327   4.554
85808SOL    HW259322  13.349   2.384   4.480
85809SOL     OW59323  11.657  12.123   7.661
85809SOL    HW159324  11.569  12.153   7.685
85809SOL    HW259325  11.642  12.058   7.592
85810SOL     OW59326   5.459   2.589  12.011
85810SOL    HW159327   5.503   2.508  11.985
85810SOL    HW259328   5.469   2.646  11.935
85811SOL     OW59329   7.821  12.160   8.042
85811SOL    HW159330   7.813  12.255   8.050
85811SOL    HW259331   7.854  12.146   7.953
85812SOL     OW59332   7.063   4.632   0.294
85812SOL    HW159333   7.070   4.537   0.286
85812SOL    HW259334   7.152   4.663   0.308
85813SOL     OW59335   1.894   8.515  11.475
85813SOL    HW159336   1.859   8.426  11.469
85813SOL    HW259337   1.958   8.511  11.546
85814SOL     OW59338   2.316   5.389   7.666
85814SOL    HW159339   2.406   5.416   7.687
85814SOL    HW259340   2.278   5.464   7.621
85815SOL     OW59341  14.038   7.804   5.542
85815SOL    HW159342  14.006   7.876   5.596
85815SOL    HW259343  13.960   7.752   5.523
85816SOL     OW59344  13.074   8.446   5.111
85816SOL    HW159345  13.115   8.430   5.026
85816SOL    HW259346  12.984   8.418   5.099
85817SOL     OW59347  14.135   2.641   5.823
85817SOL    HW159348  14.121   2.552   5.791
85817SOL    HW259349  14.224   2.640   5.859
85818SOL     OW59350   5.072   0.783  14.739
85818SOL    HW159351   5.001   0.847  14.742
85818SOL    HW259352   5.149   0.834  14.715
85819SOL     OW59353   5.371   0.187   5.997
85819SOL    HW159354   5.438   0.255   5.996
85819SOL    HW259355   5.412   0.112   6.039
85820SOL     OW59356  14.219   0.450   6.317
85820SOL    HW159357  14.277   0.375   6.307
85820SOL    HW259358  14.274   0.519   6.353
85821SOL     OW59359  14.821   3.935   7.937
85821SOL    HW159360   0.033   3.968   7.915
85821SOL    HW259361  14.825   3.841   7.919
85822SOL     OW59362  10.564   6.875   1.255
85822SOL    HW159363  10.539   6.849   1.166
85822SOL    HW259364  10.660   6.880   1.252
85823SOL     OW59365   4.480  12.873   7.078
85823SOL    HW159366   4.465  12.805   7.012
85823SOL    HW259367   4.571  12.900   7.064
85824SOL     OW59368  10.996   0.365  14.049
85824SOL    HW159369  10.976   0.451  14.086
85824SOL    HW259370  10.989   0.305  14.123
85825SOL     OW59371   3.010   8.556   8.282
85825SOL    HW159372   3.002   8.644   8.317
85825SOL    HW259373   2.955   8.556   8.203
85826SOL     OW59374   1.685   1.722  10.658
85826SOL    HW159375   1.641   1.807  10.654
85826SOL    HW259376   1.620   1.664  10.700
85827SOL     OW59377   5.450  11.434   9.825
85827SOL    HW159378   5.482  11.439   9.915
85827SOL    HW259379   5.366  11.480   9.827
85828SOL     OW59380   3.206   0.829   6.094
85828SOL    HW159381   3.277   0.767   6.078
85828SOL    HW259382   3.126   0.777   6.084
85829SOL     OW59383   0.481  10.464  12.339
85829SOL    HW159384   0.551  10.459  12.404
85829SOL    HW259385   0.488  10.553  12.304
85830SOL     OW59386   2.428  14.136   9.982
85830SOL    HW159387   2.472  14.195  10.043
85830SOL    HW259388   2.465  14.049  10.002
85831SOL     OW59389  12.336  11.486   2.871
85831SOL    HW159390  12.307  11.575   2.891
85831SOL    HW259391  12.424  11.497   2.836
85832SOL     OW59392   8.751   7.873  12.695
85832SOL    HW159393   8.682   7.885  12.761
85832SOL    HW259394   8.712   7.813  12.631
85833SOL     OW59395   1.952   6.485  14.871
85833SOL    HW159396   1.914   6.496  14.784
85833SOL    HW259397   2.046   6.472  14.855
85834SOL     OW59398  13.667   8.778   1.660
85834SOL    HW159399  13.624   8.741   1.738
85834SOL    HW259400  13.638   8.722   1.588
85835SOL     OW59401   7.089  11.130   1.218
85835SOL    HW159402   7.126  11.207   1.175
85835SOL    HW259403   7.135  11.125   1.302
85836SOL     OW59404  14.105  11.393   1.637
85836SOL    HW159405  14.033  11.456   1.646
85836SOL    HW259406  14.073  11.330   1.573
85837SOL     OW59407   1.809  12.589   5.078
85837SOL    HW159408   1.745  12.572   5.146
85837SOL    HW259409   1.859  12.507   5.071
85838SOL     OW59410   6.166   6.407   8.764
85838SOL    HW159411   6.158   6.372   8.853
85838SOL    HW259412   6.095   6.472   8.758
85839SOL     OW59413   8.308  14.435   4.453
85839SOL    HW159414   8.326  14.349   4.415
85839SOL    HW259415   8.276  14.415   4.541
85840SOL     OW59416   1.983   0.737   2.616
85840SOL    HW159417   1.899   0.691   2.612
85840SOL    HW259418   1.986   0.775   2.704
85841SOL     OW59419  11.128  10.416   1.550
85841SOL    HW159420  11.167  10.398   1.464
85841SOL    HW259421  11.073  10.340   1.567
85842SOL     OW59422  11.987   6.125  10.522
85842SOL    HW159423  12.079   6.151  10.516
85842SOL    HW259424  11.949   6.156  10.440
85843SOL     OW59425  14.598   4.241   9.060
85843SOL    HW159426  14.651   4.320   9.058
85843SOL    HW259427  14.512   4.270   9.088
85844SOL     OW59428   7.812   2.895   2.400
85844SOL    HW159429   7.779   2.975   2.441
85844SOL    HW259430   7.839   2.839   2.473
85845SOL     OW59431   0.245  14.518   4.967
85845SOL    HW159432   0.188  14.585   5.003
85845SOL    HW259433   0.331  14.560   4.959
85846SOL     OW59434  10.855  12.052  11.909
85846SOL    HW159435  10.854  11.956  11.909
85846SOL    HW259436  10.823  12.077  11.822
85847SOL     OW59437   3.339   6.827  10.775
85847SOL    HW159438   3.377   6.759  10.832
85847SOL    HW259439   3.410   6.849  10.714
85848SOL     OW59440   2.579   3.592   9.942
85848SOL    HW159441   2.575   3.658   9.873
85848SOL    HW259442   2.493   3.549   9.940
85849SOL     OW59443  11.622   9.891   8.692
85849SOL    HW159444  11.578   9.902   8.777
85849SOL    HW259445  11.705   9.847   8.714
85850SOL     OW59446   5.793   3.972   5.940
85850SOL    HW159447   5.722   3.986   5.877
85850SOL    HW259448   5.749   3.960   6.024
85851SOL     OW59449   9.358  14.308  10.647
85851SOL    HW159450   9.451  14.288  10.649
85851SOL    HW259451   9.345  14.366  10.722
85852SOL     OW59452   6.901   3.319  10.971
85852SOL    HW159453   6.979   3.333  10.917
85852SOL    HW259454   6.883   3.225  10.963
85853SOL     OW59455  13.197   8.349   6.948
85853SOL    HW159456  13.235   8.385   6.868
85853SOL    HW259457  13.196   8.423   7.009
85854SOL     OW59458   3.835  12.507   7.282
85854SOL    HW159459   3.831  12.564   7.205
85854SOL    HW259460   3.837  12.567   7.356
85855SOL     OW59461   0.595   6.903  14.353
85855SOL    HW159462   0.581   6.828  14.296
85855SOL    HW259463   0.548   6.882  14.434
85856SOL     OW59464   2.608   4.576   7.377
85856SOL    HW159465   2.693   4.535   7.395
85856SOL    HW259466   2.587   4.623   7.458
85857SOL     OW59467  11.787   5.260   0.643
85857SOL    HW159468  11.698   5.242   0.675
85857SOL    HW259469  11.811   5.343   0.684
85858SOL     OW59470   1.542  12.786  11.230
85858SOL    HW159471   1.479  12.744  11.289
85858SOL    HW259472   1.583  12.853  11.283
85859SOL     OW59473   1.336  10.360   8.861
85859SOL    HW159474   1.409  10.403   8.816
85859SOL    HW259475   1.258  10.402   8.824
85860SOL     OW59476  11.290   4.484   3.864
85860SOL    HW159477  11.288   4.388   3.870
85860SOL    HW259478  11.205   4.511   3.899
85861SOL     OW59479  14.001  12.688  14.373
85861SOL    HW159480  13.957  12.628  14.313
85861SOL    HW259481  14.059  12.631  14.424
85862SOL     OW59482  11.532   8.267  10.807
85862SOL    HW159483  11.486   8.351  10.814
85862SOL    HW259484  11.464   8.201  10.821
85863SOL     OW59485  14.689  10.512  13.192
85863SOL    HW159486  14.696  10.417  13.177
85863SOL    HW259487  14.757  10.531  13.256
85864SOL     OW59488  13.539   7.594   0.709
85864SOL    HW159489  13.594   7.553   0.775
85864SOL    HW259490  13.514   7.521   0.651
85865SOL     OW59491   7.956   0.937   9.424
85865SOL    HW159492   8.024   0.871   9.410
85865SOL    HW259493   7.874   0.888   9.427
85866SOL     OW59494   3.658   9.263   9.708
85866SOL    HW159495   3.697   9.309   9.782
85866SOL    HW259496   3.699   9.176   9.709
85867SOL     OW59497   1.129   4.454  13.747
85867SOL    HW159498   1.147   4.543  13.780
85867SOL    HW259499   1.131   4.399  13.825
85868SOL     OW59500  13.904   5.833   0.106
85868SOL    HW159501  13.828   5.829   0.048
85868SOL    HW259502  13.873   5.882   0.183
85869SOL     OW59503  11.046   2.648   3.075
85869SOL    HW159504  10.960   2.657   3.116
85869SOL    HW259505  11.105   2.698   3.131
85870SOL     OW59506   1.601   9.235   7.493
85870SOL    HW159507   1.576   9.186   7.415
85870SOL    HW259508   1.683   9.278   7.469
85871SOL     OW59509   7.120   6.505   9.495
85871SOL    HW159510   7.047   6.543   9.544
85871SOL    HW259511   7.107   6.410   9.503
85872SOL     OW59512   5.433   4.130  12.615
85872SOL    HW159513   5.416   4.191  12.543
85872SOL    HW259514   5.399   4.174  12.692
85873SOL     OW59515   9.213   7.343   5.905
85873SOL    HW159516   9.197   7.261   5.953
85873SOL    HW259517   9.306   7.340   5.883
85874SOL     OW59518   8.208   2.060   1.987
85874SOL    HW159519   8.168   2.115   2.054
85874SOL    HW259520   8.219   2.119   1.912
85875SOL     OW59521  10.698  10.530   9.757
85875SOL    HW159522  10.746  10.596   9.707
85875SOL    HW259523  10.766  10.468   9.786
85876SOL     OW59524   1.198   4.915   7.453
85876SOL    HW159525   1.254   4.911   7.374
85876SOL    HW259526   1.184   4.824   7.477
85877SOL     OW59527   9.712  11.474   4.387
85877SOL    HW159528   9.706  11.397   4.330
85877SOL    HW259529   9.762  11.443   4.463
85878SOL     OW59530  11.126   2.471  11.939
85878SOL    HW159531  11.055   2.497  11.880
85878SOL    HW259532  11.092   2.492  12.026
85879SOL     OW59533   8.024   9.889  14.759
85879SOL    HW159534   8.050   9.980  14.745
85879SOL    HW259535   7.936   9.894  14.796
85880SOL     OW59536   5.568   6.651  10.989
85880SOL    HW159537   5.530   6.650  11.077
85880SOL    HW259538   5.624   6.729  10.988
85881SOL     OW59539  14.217   3.372   1.687
85881SOL    HW159540  14.211   3.296   1.745
85881SOL    HW259541  14.235   3.335   1.600
85882SOL     OW59542   0.694   1.637   7.216
85882SOL    HW159543   0.618   1.588   7.185
85882SOL    HW259544   0.700   1.616   7.309
85883SOL     OW59545   1.374  13.605  11.104
85883SOL    HW159546   1.343  13.660  11.033
85883SOL    HW259547   1.455  13.566  11.071
85884SOL     OW59548   5.556   4.602   6.437
85884SOL    HW159549   5.536   4.606   6.343
85884SOL    HW259550   5.651   4.587   6.440
85885SOL     OW59551   0.664  11.756  10.647
85885SOL    HW159552   0.727  11.827  10.637
85885SOL    HW259553   0.646  11.726  10.558
85886SOL     OW59554  14.003   9.699  14.457
85886SOL    HW159555  14.073   9.639  14.431
85886SOL    HW259556  13.931   9.680  14.397
85887SOL     OW59557  11.866  14.150   2.389
85887SOL    HW159558  11.955  14.125   2.361
85887SOL    HW259559  11.811  14.076   2.363
85888SOL     OW59560  10.495  10.039   8.079
85888SOL    HW159561  10.450  10.067   7.999
85888SOL    HW259562  10.561   9.977   8.049
85889SOL     OW59563   9.113   5.821   1.097
85889SOL    HW159564   9.091   5.728   1.092
85889SOL    HW259565   9.200   5.823   1.136
85890SOL     OW59566   6.035   5.718   5.245
85890SOL    HW159567   6.059   5.787   5.307
85890SOL    HW259568   6.119   5.679   5.220
85891SOL     OW59569   3.508   1.833  11.921
85891SOL    HW159570   3.421   1.860  11.952
85891SOL    HW259571   3.562   1.832  12.000
85892SOL     OW59572   6.480   7.869  14.439
85892SOL    HW159573   6.511   7.960  14.438
85892SOL    HW259574   6.407   7.868  14.376
85893SOL     OW59575   9.462   0.135  13.369
85893SOL    HW159576   9.424   0.087  13.296
85893SOL    HW259577   9.414   0.103  13.446
85894SOL     OW59578   3.745   0.533   9.115
85894SOL    HW159579   3.788   0.457   9.073
85894SOL    HW259580   3.732   0.595   9.044
85895SOL     OW59581  10.500   4.775  10.459
85895SOL    HW159582  10.531   4.706  10.400
85895SOL    HW259583  10.578   4.803  10.507
85896SOL     OW59584   2.465   7.060  13.152
85896SOL    HW159585   2.400   7.044  13.084
85896SOL    HW259586   2.519   7.132  13.118
85897SOL     OW59587   9.170   9.374   1.370
85897SOL    HW159588   9.232   9.388   1.299
85897SOL    HW259589   9.222   9.381   1.450
85898SOL     OW59590   2.612  11.066  10.857
85898SOL    HW159591   2.571  11.021  10.784
85898SOL    HW259592   2.697  11.095  10.824
85899SOL     OW59593   8.938   7.459   9.403
85899SOL    HW159594   8.940   7.449   9.498
85899SOL    HW259595   8.975   7.378   9.368
85900SOL     OW59596  13.154   3.412  11.968
85900SOL    HW159597  13.097   3.480  12.004
85900SOL    HW259598  13.214   3.459  11.910
85901SOL     OW59599   7.743   2.895   6.409
85901SOL    HW159600   7.753   2.987   6.433
85901SOL    HW259601   7.815   2.850   6.454
85902SOL     OW59602   3.800   2.191  12.446
85902SOL    HW159603   3.823   2.255  12.514
85902SOL    HW259604   3.862   2.209  12.375
85903SOL     OW59605   1.784   0.174  11.529
85903SOL    HW159606   1.764   0.210  11.616
85903SOL    HW259607   1.861   0.223  11.500
85904SOL     OW59608   7.439  12.524  10.908
85904SOL    HW159609   7.389  12.460  10.859
85904SOL    HW259610   7.375  12.591  10.934
85905SOL     OW59611  14.818   2.193   2.939
85905SOL    HW159612  14.855   2.252   2.873
85905SOL    HW259613  14.746   2.149   2.895
85906SOL     OW59614   0.212  14.151  11.599
85906SOL    HW159615   0.210  14.246  11.586
85906SOL    HW259616   0.301  14.126  11.573
85907SOL     OW59617   8.829   7.119  11.644
85907SOL    HW159618   8.918   7.124  11.679
85907SOL    HW259619   8.799   7.031  11.666
85908SOL     OW59620  13.254   7.579   3.118
85908SOL    HW159621  13.297   7.664   3.122
85908SOL    HW259622  13.229   7.569   3.026
85909SOL     OW59623   6.583   9.302   0.757
85909SOL    HW159624   6.576   9.251   0.837
85909SOL    HW259625   6.497   9.294   0.716
85910SOL     OW59626   5.838   4.230  12.156
85910SOL    HW159627   5.898   4.177  12.208
85910SOL    HW259628   5.895   4.288  12.105
85911SOL     OW59629   1.889   8.909   2.114
85911SOL    HW159630   1.951   8.865   2.055
85911SOL    HW259631   1.873   8.845   2.184
85912SOL     OW59632   3.901   7.865  13.696
85912SOL    HW159633   3.817   7.847  13.739
85912SOL    HW259634   3.878   7.919  13.620
85913SOL     OW59635  12.541  12.676   1.827
85913SOL    HW159636  12.608  12.715   1.883
85913SOL    HW259637  12.458  12.704   1.866
85914SOL     OW59638   6.956   5.204   6.683
85914SOL    HW159639   6.913   5.144   6.744
85914SOL    HW259640   7.025   5.151   6.643
85915SOL     OW59641  13.061   3.246  13.222
85915SOL    HW159642  13.054   3.155  13.195
85915SOL    HW259643  12.973   3.270  13.250
85916SOL     OW59644   3.714   5.221  10.419
85916SOL    HW159645   3.623   5.247  10.411
85916SOL    HW259646   3.753   5.287  10.476
85917SOL     OW59647   2.589  11.105   3.461
85917SOL    HW159648   2.527  11.092   3.389
85917SOL    HW259649   2.611  11.198   3.458
85918SOL     OW59650   9.273   4.576   3.752
85918SOL    HW159651   9.307   4.574   3.663
85918SOL    HW259652   9.350   4.587   3.807
85919SOL     OW59653   4.946   4.958   8.441
85919SOL    HW159654   5.031   4.935   8.478
85919SOL    HW259655   4.964   4.973   8.348
85920SOL     OW59656  12.997   7.062  12.049
85920SOL    HW159657  13.019   7.095  11.962
85920SOL    HW259658  12.971   6.971  12.033
85921SOL     OW59659   7.458   8.004  11.122
85921SOL    HW159660   7.441   7.997  11.216
85921SOL    HW259661   7.539   8.055  11.116
85922SOL     OW59662  14.693   5.790  14.620
85922SOL    HW159663  14.655   5.859  14.674
85922SOL    HW259664  14.784   5.818  14.606
85923SOL     OW59665  11.282  11.136   6.293
85923SOL    HW159666  11.284  11.040   6.291
85923SOL    HW259667  11.332  11.160   6.370
85924SOL     OW59668   9.000  13.770   8.354
85924SOL    HW159669   8.941  13.696   8.343
85924SOL    HW259670   8.950  13.835   8.403
85925SOL     OW59671   9.155   1.286   2.748
85925SOL    HW159672   9.075   1.290   2.800
85925SOL    HW259673   9.133   1.334   2.668
85926SOL     OW59674   2.922   9.148   9.398
85926SOL    HW159675   2.982   9.211   9.357
85926SOL    HW259676   2.933   9.162   9.492
85927SOL     OW59677  12.325   7.201   5.935
85927SOL    HW159678  12.387   7.267   5.966
85927SOL    HW259679  12.269   7.183   6.011
85928SOL     OW59680   9.804   1.047   8.415
85928SOL    HW159681   9.802   0.951   8.407
85928SOL    HW259682   9.732   1.067   8.475
85929SOL     OW59683   0.594   8.634   6.896
85929SOL    HW159684   0.540   8.674   6.965
85929SOL    HW259685   0.568   8.678   6.816
85930SOL     OW59686  10.762   9.303  10.489
85930SOL    HW159687  10.837   9.244  10.496
85930SOL    HW259688  10.714   9.291  10.571
85931SOL     OW59689   1.749  14.676   2.775
85931SOL    HW159690   1.790  14.605   2.824
85931SOL    HW259691   1.716  14.635   2.695
85932SOL     OW59692  14.442  13.522   5.517
85932SOL    HW159693  14.455  13.453   5.582
85932SOL    HW259694  14.520  13.578   5.525
85933SOL     OW59695   7.143  10.515  12.748
85933SOL    HW159696   7.050  10.490  12.750
85933SOL    HW259697   7.177  10.486  12.833
85934SOL     OW59698   4.754   6.955   8.931
85934SOL    HW159699   4.755   6.863   8.902
85934SOL    HW259700   4.822   6.959   8.998
85935SOL     OW59701   4.650  13.433   8.611
85935SOL    HW159702   4.626  13.344   8.638
85935SOL    HW259703   4.746  13.436   8.622
85936SOL     OW59704   2.902  11.350  11.038
85936SOL    HW159705   2.991  11.385  11.045
85936SOL    HW259706   2.845  11.423  11.064
85937SOL     OW59707  10.964   7.331   7.884
85937SOL    HW159708  11.001   7.244   7.897
85937SOL    HW259709  10.917   7.350   7.965
85938SOL     OW59710   8.109   0.183   5.733
85938SOL    HW159711   8.131   0.244   5.803
85938SOL    HW259712   8.170   0.204   5.662
85939SOL     OW59713   7.716  13.805   7.426
85939SOL    HW159714   7.651  13.834   7.490
85939SOL    HW259715   7.722  13.711   7.439
85940SOL     OW59716   2.117   6.334  12.979
85940SOL    HW159717   2.180   6.337  12.907
85940SOL    HW259718   2.113   6.424  13.011
85941SOL     OW59719  11.616  10.985  10.438
85941SOL    HW159720  11.527  10.969  10.406
85941SOL    HW259721  11.610  10.968  10.532
85942SOL     OW59722   9.083   2.763   6.872
85942SOL    HW159723   9.107   2.733   6.960
85942SOL    HW259724   9.044   2.849   6.887
85943SOL     OW59725  10.423   8.026   0.188
85943SOL    HW159726  10.392   7.940   0.216
85943SOL    HW259727  10.366   8.088   0.233
85944SOL     OW59728   9.761   3.134   3.968
85944SOL    HW159729   9.700   3.087   3.911
85944SOL    HW259730   9.705   3.178   4.032
85945SOL     OW59731   8.526   6.945  10.501
85945SOL    HW159732   8.617   6.973  10.506
85945SOL    HW259733   8.499   6.936  10.592
85946SOL     OW59734   5.493   7.764   9.741
85946SOL    HW159735   5.542   7.846   9.746
85946SOL    HW259736   5.561   7.696   9.739
85947SOL     OW59737   6.380  14.103  11.603
85947SOL    HW159738   6.361  14.037  11.537
85947SOL    HW259739   6.409  14.053  11.679
85948SOL     OW59740   1.881   4.186   5.974
85948SOL    HW159741   1.834   4.113   5.934
85948SOL    HW259742   1.812   4.240   6.013
85949SOL     OW59743   7.427  14.108   7.376
85949SOL    HW159744   7.373  14.036   7.409
85949SOL    HW259745   7.408  14.181   7.435
85950SOL     OW59746   8.881  14.159   0.286
85950SOL    HW159747   8.909  14.163   0.377
85950SOL    HW259748   8.863  14.250   0.262
85951SOL     OW59749   6.403  10.453  11.182
85951SOL    HW159750   6.414  10.447  11.277
85951SOL    HW259751   6.469  10.394  11.147
85952SOL     OW59752   5.114  12.156  12.082
85952SOL    HW159753   5.187  12.213  12.108
85952SOL    HW259754   5.038  12.194  12.125
85953SOL     OW59755   8.165  14.554   1.837
85953SOL    HW159756   8.086  14.607   1.827
85953SOL    HW259757   8.185  14.560   1.931
85954SOL     OW59758   0.308  12.016   6.318
85954SOL    HW159759   0.316  11.921   6.317
85954SOL    HW259760   0.271  12.036   6.404
85955SOL     OW59761   6.232   3.262   8.633
85955SOL    HW159762   6.192   3.273   8.547
85955SOL    HW259763   6.314   3.311   8.628
85956SOL     OW59764   5.958   4.883  12.849
85956SOL    HW159765   5.993   4.905  12.935
85956SOL    HW259766   5.864   4.902  12.856
85957SOL     OW59767  10.234   6.259   6.875
85957SOL    HW159768  10.169   6.217   6.819
85957SOL    HW259769  10.309   6.200   6.872
85958SOL     OW59770  11.826   9.504   0.577
85958SOL    HW159771  11.783   9.478   0.658
85958SOL    HW259772  11.891   9.568   0.604
85959SOL     OW59773   1.560   4.579   5.526
85959SOL    HW159774   1.631   4.565   5.464
85959SOL    HW259775   1.546   4.493   5.567
85960SOL     OW59776   2.492  12.791   0.097
85960SOL    HW159777   2.464  12.798   0.005
85960SOL    HW259778   2.568  12.734   0.094
85961SOL     OW59779   1.413   4.918   9.400
85961SOL    HW159780   1.483   4.896   9.461
85961SOL    HW259781   1.335   4.923   9.455
85962SOL     OW59782   3.805   6.996   3.473
85962SOL    HW159783   3.776   7.076   3.428
85962SOL    HW259784   3.724   6.954   3.501
85963SOL     OW59785  14.305  13.854   1.818
85963SOL    HW159786  14.305  13.760   1.838
85963SOL    HW259787  14.256  13.894   1.889
85964SOL     OW59788   0.814   5.827   0.149
85964SOL    HW159789   0.895   5.855   0.191
85964SOL    HW259790   0.759   5.798   0.222
85965SOL     OW59791   1.928   8.763   0.293
85965SOL    HW159792   1.934   8.852   0.258
85965SOL    HW259793   1.860   8.768   0.360
85966SOL     OW59794  10.487  11.135   9.755
85966SOL    HW159795  10.403  11.143   9.800
85966SOL    HW259796  10.528  11.057   9.792
85967SOL     OW59797   7.697  14.280  14.862
85967SOL    HW159798   7.724  14.351   0.046
85967SOL    HW259799   7.606  14.299  14.840
85968SOL     OW59800  11.914   6.259   4.991
85968SOL    HW159801  11.850   6.314   4.945
85968SOL    HW259802  11.861   6.203   5.047
85969SOL     OW59803  14.041   8.407   2.057
85969SOL    HW159804  14.100   8.435   1.987
85969SOL    HW259805  14.048   8.475   2.123
85970SOL     OW59806   9.991  14.762  14.047
85970SOL    HW159807  10.013  14.854  14.065
85970SOL    HW259808   9.965  14.727  14.133
85971SOL     OW59809  14.647  11.625  10.185
85971SOL    HW159810  14.711  11.554  10.191
85971SOL    HW259811  14.565  11.585  10.213
85972SOL     OW59812  12.950  13.207   6.170
85972SOL    HW159813  12.993  13.204   6.085
85972SOL    HW259814  12.959  13.298   6.199
85973SOL     OW59815   3.965   4.718   9.185
85973SOL    HW159816   3.874   4.747   9.191
85973SOL    HW259817   4.002   4.736   9.271
85974SOL     OW59818   0.501   1.961   9.600
85974SOL    HW159819   0.518   1.893   9.665
85974SOL    HW259820   0.551   2.037   9.632
85975SOL     OW59821  10.166   1.409   1.090
85975SOL    HW159822  10.073   1.415   1.068
85975SOL    HW259823  10.167   1.371   1.178
85976SOL     OW59824   4.556  13.719   0.860
85976SOL    HW159825   4.491  13.757   0.918
85976SOL    HW259826   4.537  13.757   0.774
85977SOL     OW59827   2.716  13.565   3.326
85977SOL    HW159828   2.631  13.598   3.355
85977SOL    HW259829   2.734  13.614   3.245
85978SOL     OW59830   5.231   5.487   7.704
85978SOL    HW159831   5.203   5.554   7.643
85978SOL    HW259832   5.327   5.486   7.696
85979SOL     OW59833   5.079   6.002  14.691
85979SOL    HW159834   5.073   6.098  14.698
85979SOL    HW259835   4.989   5.972  14.698
85980SOL     OW59836  10.472   4.368   8.173
85980SOL    HW159837  10.422   4.293   8.205
85980SOL    HW259838  10.534   4.387   8.243
85981SOL     OW59839   9.032  14.258  13.359
85981SOL    HW159840   8.990  14.295  13.282
85981SOL    HW259841   9.057  14.170  13.333
85982SOL     OW59842   0.512  12.603  10.326
85982SOL    HW159843   0.417  12.607  10.324
85982SOL    HW259844   0.533  12.511  10.311
85983SOL     OW59845   4.993   5.033   2.010
85983SOL    HW159846   5.025   4.949   2.042
85983SOL    HW259847   5.000   5.027   1.915
85984SOL     OW59848  10.011  10.637  13.408
85984SOL    HW159849  10.070  10.584  13.461
85984SOL    HW259850   9.932  10.645  13.461
85985SOL     OW59851   7.858   6.270   9.950
85985SOL    HW159852   7.828   6.233  10.033
85985SOL    HW259853   7.793   6.239   9.886
85986SOL     OW59854   0.162   9.497  14.131
85986SOL    HW159855   0.143   9.445  14.210
85986SOL    HW259856   0.149   9.436  14.058
85987SOL     OW59857   7.730  11.203   7.804
85987SOL    HW159858   7.755  11.266   7.871
85987SOL    HW259859   7.645  11.234   7.772
85988SOL     OW59860   4.217   9.681  13.558
85988SOL    HW159861   4.146   9.621  13.579
85988SOL    HW259862   4.175   9.751  13.508
85989SOL     OW59863   5.445   1.688  13.585
85989SOL    HW159864   5.453   1.629  13.510
85989SOL    HW259865   5.353   1.714  13.585
85990SOL     OW59866   9.175   9.632   2.185
85990SOL    HW159867   9.080   9.617   2.194
85990SOL    HW259868   9.183   9.726   2.171
85991SOL     OW59869   4.721  10.560   7.922
85991SOL    HW159870   4.810  10.528   7.925
85991SOL    HW259871   4.677  10.518   7.995
85992SOL     OW59872   7.642   8.719   9.292
85992SOL    HW159873   7.589   8.742   9.368
85992SOL    HW259874   7.602   8.638   9.259
85993SOL     OW59875  11.583   2.573   2.807
85993SOL    HW159876  11.539   2.581   2.892
85993SOL    HW259877  11.676   2.588   2.827
85994SOL     OW59878   1.532  13.618  11.341
85994SOL    HW159879   1.473  13.610  11.265
85994SOL    HW259880   1.581  13.699  11.324
85995SOL     OW59881   9.292   8.031   4.463
85995SOL    HW159882   9.285   8.087   4.540
85995SOL    HW259883   9.331   8.087   4.396
85996SOL     OW59884   6.471  13.981   5.484
85996SOL    HW159885   6.411  14.002   5.412
85996SOL    HW259886   6.460  14.054   5.546
85997SOL     OW59887   4.281   5.235   9.816
85997SOL    HW159888   4.295   5.325   9.846
85997SOL    HW259889   4.250   5.189   9.894
85998SOL     OW59890  12.654   3.596   1.142
85998SOL    HW159891  12.728   3.537   1.131
85998SOL    HW259892  12.665   3.661   1.072
85999SOL     OW59893   2.653   6.200  12.789
85999SOL    HW159894   2.574   6.250  12.811
85999SOL    HW259895   2.666   6.216  12.696
86000SOL     OW59896  11.499  12.427  14.328
86000SOL    HW159897  11.475  12.361  14.263
86000SOL    HW259898  11.417  12.472  14.347
86001SOL     OW59899   5.236   2.047   0.554
86001SOL    HW159900   5.149   2.076   0.527
86001SOL    HW259901   5.290   2.127   0.550
86002SOL     OW59902   0.507   5.085  11.446
86002SOL    HW159903   0.436   5.112  11.387
86002SOL    HW259904   0.567   5.035  11.389
86003SOL     OW59905   0.949   4.749   8.085
86003SOL    HW159906   0.940   4.743   8.181
86003SOL    HW259907   0.915   4.836   8.064
86004SOL     OW59908   6.147   1.009   0.839
86004SOL    HW159909   6.176   1.100   0.842
86004SOL    HW259910   6.090   1.004   0.762
86005SOL     OW59911   4.357  10.390   0.831
86005SOL    HW159912   4.326  10.480   0.839
86005SOL    HW259913   4.453  10.398   0.826
86006SOL     OW59914   7.074   2.450  11.695
86006SOL    HW159915   7.136   2.518  11.720
86006SOL    HW259916   6.988   2.485  11.719
86007SOL     OW59917  13.503  14.250  14.351
86007SOL    HW159918  13.543  14.163  14.348
86007SOL    HW259919  13.457  14.259  14.268
86008SOL     OW59920  14.778  10.470   4.315
86008SOL    HW159921  14.777  10.562   4.288
86008SOL    HW259922  14.769  10.473   4.410
86009SOL     OW59923   6.194   8.925   7.331
86009SOL    HW159924   6.241   8.957   7.408
86009SOL    HW259925   6.104   8.956   7.342
86010SOL     OW59926  12.413  10.125   8.015
86010SOL    HW159927  12.494  10.173   7.998
86010SOL    HW259928  12.346  10.193   8.021
86011SOL     OW59929  10.279   3.000   0.479
86011SOL    HW159930  10.299   3.058   0.406
86011SOL    HW259931  10.355   3.007   0.538
86012SOL     OW59932   7.243  11.130   0.880
86012SOL    HW159933   7.217  11.182   0.956
86012SOL    HW259934   7.326  11.089   0.905
86013SOL     OW59935  10.868   1.817   6.400
86013SOL    HW159936  10.959   1.812   6.430
86013SOL    HW259937  10.858   1.741   6.341
86014SOL     OW59938   2.846   2.009   0.578
86014SOL    HW159939   2.860   2.047   0.492
86014SOL    HW259940   2.763   2.046   0.608
86015SOL     OW59941   5.581  11.279   3.653
86015SOL    HW159942   5.544  11.316   3.734
86015SOL    HW259943   5.507  11.238   3.610
86016SOL     OW59944  11.539   9.568   7.666
86016SOL    HW159945  11.479   9.633   7.631
86016SOL    HW259946  11.610   9.619   7.706
86017SOL     OW59947   8.489   1.755  13.029
86017SOL    HW159948   8.439   1.834  13.049
86017SOL    HW259949   8.458   1.728  12.942
86018SOL     OW59950   2.243   4.626  12.280
86018SOL    HW159951   2.163   4.635  12.332
86018SOL    HW259952   2.289   4.709  12.294
86019SOL     OW59953   8.970   8.159   8.056
86019SOL    HW159954   8.928   8.131   7.975
86019SOL    HW259955   8.899   8.199   8.106
86020SOL     OW59956   4.951   6.704   8.661
86020SOL    HW159957   4.862   6.682   8.634
86020SOL    HW259958   4.986   6.755   8.589
86021SOL     OW59959  10.761   0.109  12.753
86021SOL    HW159960  10.809   0.189  12.772
86021SOL    HW259961  10.796   0.079  12.669
86022SOL     OW59962   2.677  11.864  11.569
86022SOL    HW159963   2.594  11.822  11.593
86022SOL    HW259964   2.737  11.839  11.639
86023SOL     OW59965  12.088   2.196   5.450
86023SOL    HW159966  12.060   2.181   5.540
86023SOL    HW259967  12.121   2.286   5.450
86024SOL     OW59968  14.287  10.430   5.738
86024SOL    HW159969  14.248  10.486   5.670
86024SOL    HW259970  14.276  10.341   5.704
86025SOL     OW59971  12.571   5.265   7.211
86025SOL    HW159972  12.619   5.319   7.273
86025SOL    HW259973  12.606   5.289   7.125
86026SOL     OW59974  11.979   2.022   4.225
86026SOL    HW159975  12.069   2.039   4.251
86026SOL    HW259976  11.945   1.963   4.292
86027SOL     OW59977   7.439  14.357  14.822
86027SOL    HW159978   7.423  14.451  14.835
86027SOL    HW259979   7.419  14.318   0.032
86028SOL     OW59980   0.946  11.553   6.840
86028SOL    HW159981   0.853  11.567   6.857
86028SOL    HW259982   0.979  11.639   6.812
86029SOL     OW59983  10.758  13.410   6.759
86029SOL    HW159984  10.692  13.400   6.690
86029SOL    HW259985  10.807  13.327   6.756
86030SOL     OW59986  10.676   2.829   6.125
86030SOL    HW159987  10.586   2.861   6.120
86030SOL    HW259988  10.721   2.871   6.052
86031SOL     OW59989   6.694   4.314  10.175
86031SOL    HW159990   6.697   4.228  10.133
86031SOL    HW259991   6.604   4.344  10.161
86032SOL     OW59992   4.144   6.246  11.935
86032SOL    HW159993   4.049   6.247  11.921
86032SOL    HW259994   4.166   6.338  11.949
86033SOL     OW59995   4.808  10.084   3.549
86033SOL    HW159996   4.823  10.178   3.549
86033SOL    HW259997   4.765  10.066   3.632
86034SOL     OW59998   0.186  14.166  12.909
86034SOL    HW159999   0.273  14.179  12.946
86034SOL    HW260000   0.162  14.252  12.873
86035SOL     OW60001   9.850  13.396   9.836
86035SOL    HW160002   9.798  13.316   9.829
86035SOL    HW260003   9.905  13.396   9.758
86036SOL     OW60004   4.143  12.733   2.391
86036SOL    HW160005   4.144  12.638   2.403
86036SOL    HW260006   4.057  12.751   2.353
86037SOL     OW60007   6.915   9.504   6.127
86037SOL    HW160008   6.999   9.459   6.119
86037SOL    HW260009   6.870   9.487   6.044
86038SOL     OW60010   8.331   5.840   3.998
86038SOL    HW160011   8.312   5.925   4.037
86038SOL    HW260012   8.328   5.778   4.072
86039SOL     OW60013   4.188   5.498   6.719
86039SOL    HW160014   4.234   5.453   6.790
86039SOL    HW260015   4.188   5.435   6.647
86040SOL     OW60016  14.678   5.602   8.253
86040SOL    HW160017  14.601   5.626   8.305
86040SOL    HW260018  14.653   5.522   8.207
86041SOL     OW60019   8.750  14.471  11.430
86041SOL    HW160020   8.832  14.485  11.478
86041SOL    HW260021   8.713  14.559  11.421
86042SOL     OW60022  12.708   8.564  14.811
86042SOL    HW160023  12.735   8.539  14.722
86042SOL    HW260024  12.717   8.659  14.814
86043SOL     OW60025   1.886   2.075   4.661
86043SOL    HW160026   1.953   2.129   4.703
86043SOL    HW260027   1.869   2.004   4.723
86044SOL     OW60028  12.529  13.853  13.148
86044SOL    HW160029  12.585  13.795  13.199
86044SOL    HW260030  12.451  13.866  13.203
86045SOL     OW60031  10.721  10.538   1.689
86045SOL    HW160032  10.671  10.608   1.731
86045SOL    HW260033  10.781  10.507   1.757
86046SOL     OW60034  12.536   6.917   6.802
86046SOL    HW160035  12.587   6.836   6.792
86046SOL    HW260036  12.545   6.940   6.895
86047SOL     OW60037   7.454   3.028  13.817
86047SOL    HW160038   7.448   2.952  13.759
86047SOL    HW260039   7.472   2.991  13.904
86048SOL     OW60040   3.315   7.177  11.926
86048SOL    HW160041   3.331   7.098  11.978
86048SOL    HW260042   3.333   7.150  11.836
86049SOL     OW60043   5.503   6.765  12.760
86049SOL    HW160044   5.522   6.859  12.766
86049SOL    HW260045   5.527   6.742  12.670
86050SOL     OW60046   0.313   4.597   6.217
86050SOL    HW160047   0.314   4.561   6.305
86050SOL    HW260048   0.227   4.570   6.182
86051SOL     OW60049   6.130   5.025   8.056
86051SOL    HW160050   6.209   4.973   8.051
86051SOL    HW260051   6.159   5.115   8.039
86052SOL     OW60052   8.302  13.108   1.399
86052SOL    HW160053   8.236  13.051   1.439
86052SOL    HW260054   8.348  13.148   1.473
86053SOL     OW60055   3.315   6.461   5.173
86053SOL    HW160056   3.326   6.556   5.179
86053SOL    HW260057   3.358   6.426   5.251
86054SOL     OW60058   5.061   5.464  11.769
86054SOL    HW160059   5.092   5.379  11.739
86054SOL    HW260060   4.995   5.490  11.704
86055SOL     OW60061  11.940   7.313   7.136
86055SOL    HW160062  11.931   7.337   7.043
86055SOL    HW260063  11.875   7.243   7.149
86056SOL     OW60064   5.333   6.764  10.358
86056SOL    HW160065   5.311   6.784  10.267
86056SOL    HW260066   5.323   6.669  10.365
86057SOL     OW60067   2.738  13.360   0.568
86057SOL    HW160068   2.661  13.416   0.566
86057SOL    HW260069   2.752  13.335   0.477
86058SOL     OW60070  11.773  10.275   7.675
86058SOL    HW160071  11.701  10.338   7.681
86058SOL    HW260072  11.786  10.245   7.765
86059SOL     OW60073   4.383  11.775   9.798
86059SOL    HW160074   4.330  11.704   9.761
86059SOL    HW260075   4.461  11.730   9.832
86060SOL     OW60076  13.239  11.121   5.711
86060SOL    HW160077  13.212  11.131   5.620
86060SOL    HW260078  13.333  11.139   5.711
86061SOL     OW60079  13.677   1.289   1.102
86061SOL    HW160080  13.644   1.264   1.189
86061SOL    HW260081  13.599   1.287   1.046
86062SOL     OW60082   1.763   1.453   7.589
86062SOL    HW160083   1.696   1.395   7.623
86062SOL    HW260084   1.734   1.541   7.614
86063SOL     OW60085   8.355  12.292   6.244
86063SOL    HW160086   8.434  12.239   6.233
86063SOL    HW260087   8.361  12.327   6.332
86064SOL     OW60088   3.799  10.877   7.876
86064SOL    HW160089   3.779  10.940   7.945
86064SOL    HW260090   3.731  10.893   7.809
86065SOL     OW60091  13.888  10.979   2.726
86065SOL    HW160092  13.870  10.971   2.633
86065SOL    HW260093  13.826  11.045   2.757
86066SOL     OW60094   8.749   9.376   0.984
86066SOL    HW160095   8.744   9.281   0.979
86066SOL    HW260096   8.708   9.407   0.903
86067SOL     OW60097   4.177   2.916   8.442
86067SOL    HW160098   4.116   2.976   8.400
86067SOL    HW260099   4.121   2.850   8.483
86068SOL     OW60100   4.720   4.166  12.711
86068SOL    HW160101   4.789   4.201  12.766
86068SOL    HW260102   4.690   4.087  12.757
86069SOL     OW60103   1.721   5.073   2.519
86069SOL    HW160104   1.716   5.156   2.567
86069SOL    HW260105   1.682   5.092   2.434
86070SOL     OW60106   8.338   8.763   8.674
86070SOL    HW160107   8.248   8.758   8.642
86070SOL    HW260108   8.392   8.755   8.596
86071SOL     OW60109   8.853   2.883   3.136
86071SOL    HW160110   8.786   2.834   3.184
86071SOL    HW260111   8.932   2.830   3.146
86072SOL     OW60112  14.866   7.834   8.908
86072SOL    HW160113  14.821   7.774   8.849
86072SOL    HW260114   0.080   7.840   8.873
86073SOL     OW60115  11.103   8.687  13.762
86073SOL    HW160116  11.038   8.723  13.702
86073SOL    HW260117  11.130   8.604  13.722
86074SOL     OW60118   6.579   5.272  14.261
86074SOL    HW160119   6.590   5.177  14.266
86074SOL    HW260120   6.490   5.285  14.229
86075SOL     OW60121  13.596   3.686   8.005
86075SOL    HW160122  13.613   3.601   8.047
86075SOL    HW260123  13.594   3.666   7.911
86076SOL     OW60124   9.895   8.655   5.690
86076SOL    HW160125   9.964   8.650   5.624
86076SOL    HW260126   9.941   8.650   5.773
86077SOL     OW60127  12.801   2.215   9.621
86077SOL    HW160128  12.716   2.174   9.633
86077SOL    HW260129  12.814   2.215   9.526
86078SOL     OW60130   8.242   1.557   8.529
86078SOL    HW160131   8.177   1.542   8.461
86078SOL    HW260132   8.238   1.651   8.546
86079SOL     OW60133  11.775  12.596   7.047
86079SOL    HW160134  11.810  12.551   7.123
86079SOL    HW260135  11.851  12.614   6.992
86080SOL     OW60136   0.492   5.635   1.323
86080SOL    HW160137   0.536   5.550   1.323
86080SOL    HW260138   0.480   5.655   1.416
86081SOL     OW60139  12.627   5.392  14.617
86081SOL    HW160140  12.669   5.307  14.612
86081SOL    HW260141  12.654   5.428  14.702
86082SOL     OW60142   6.576  10.346   2.839
86082SOL    HW160143   6.485  10.368   2.820
86082SOL    HW260144   6.574  10.309   2.927
86083SOL     OW60145   4.269   7.626  11.892
86083SOL    HW160146   4.331   7.666  11.953
86083SOL    HW260147   4.183   7.644  11.930
86084SOL     OW60148   1.627  14.833  10.939
86084SOL    HW160149   1.536  14.851  10.961
86084SOL    HW260150   1.630  14.840  10.843
86085SOL     OW60151  11.268  11.200   3.136
86085SOL    HW160152  11.254  11.288   3.102
86085SOL    HW260153  11.180  11.165   3.151
86086SOL     OW60154   1.516  12.200   2.083
86086SOL    HW160155   1.554  12.129   2.135
86086SOL    HW260156   1.463  12.156   2.017
86087SOL     OW60157  13.128   8.350   4.660
86087SOL    HW160158  13.179   8.372   4.738
86087SOL    HW260159  13.075   8.275   4.686
86088SOL     OW60160   4.130   0.115   2.841
86088SOL    HW160161   4.144   0.183   2.906
86088SOL    HW260162   4.060   0.149   2.785
86089SOL     OW60163   9.058   3.867  11.101
86089SOL    HW160164   8.967   3.887  11.079
86089SOL    HW260165   9.052   3.793  11.162
86090SOL     OW60166   8.333   3.416   0.279
86090SOL    HW160167   8.341   3.434   0.372
86090SOL    HW260168   8.415   3.372   0.255
86091SOL     OW60169   5.347   6.517   5.979
86091SOL    HW160170   5.310   6.587   6.033
86091SOL    HW260171   5.429   6.555   5.944
86092SOL     OW60172   9.546   7.273   9.289
86092SOL    HW160173   9.461   7.235   9.266
86092SOL    HW260174   9.590   7.203   9.337
86093SOL     OW60175   5.568   7.148   8.214
86093SOL    HW160176   5.519   7.092   8.274
86093SOL    HW260177   5.507   7.165   8.142
86094SOL     OW60178  10.551   5.202   1.012
86094SOL    HW160179  10.460   5.230   1.018
86094SOL    HW260180  10.548   5.107   1.010
86095SOL     OW60181   2.476  12.034  13.902
86095SOL    HW160182   2.512  12.006  13.986
86095SOL    HW260183   2.385  12.005  13.904
86096SOL     OW60184   9.002   8.564   2.607
86096SOL    HW160185   9.047   8.587   2.688
86096SOL    HW260186   9.007   8.469   2.603
86097SOL     OW60187   1.706   0.257   3.688
86097SOL    HW160188   1.791   0.250   3.643
86097SOL    HW260189   1.663   0.331   3.645
86098SOL     OW60190   0.545   9.184   2.669
86098SOL    HW160191   0.459   9.152   2.696
86098SOL    HW260192   0.600   9.106   2.667
86099SOL     OW60193   1.606   2.149  14.612
86099SOL    HW160194   1.585   2.217  14.548
86099SOL    HW260195   1.535   2.085  14.602
86100SOL     OW60196   3.195  10.102   5.010
86100SOL    HW160197   3.232  10.181   4.970
86100SOL    HW260198   3.181  10.126   5.101
86101SOL     OW60199  13.998  10.456  13.715
86101SOL    HW160200  13.934  10.392  13.683
86101SOL    HW260201  14.000  10.524  13.647
86102SOL     OW60202   2.446   7.186   6.142
86102SOL    HW160203   2.428   7.204   6.049
86102SOL    HW260204   2.472   7.270   6.178
86103SOL     OW60205   6.843  10.611   8.916
86103SOL    HW160206   6.764  10.609   8.862
86103SOL    HW260207   6.849  10.524   8.953
86104SOL     OW60208   3.691   8.797   5.391
86104SOL    HW160209   3.719   8.854   5.319
86104SOL    HW260210   3.765   8.737   5.405
86105SOL     OW60211  11.363  13.635   1.516
86105SOL    HW160212  11.412  13.600   1.442
86105SOL    HW260213  11.394  13.585   1.592
86106SOL     OW60214   3.417  14.590   0.891
86106SOL    HW160215   3.381  14.634   0.814
86106SOL    HW260216   3.392  14.499   0.881
86107SOL     OW60217   0.605   5.627   0.676
86107SOL    HW160218   0.592   5.534   0.659
86107SOL    HW260219   0.537   5.649   0.740
86108SOL     OW60220   3.686   9.446  12.026
86108SOL    HW160221   3.649   9.437  12.114
86108SOL    HW260222   3.696   9.540  12.014
86109SOL     OW60223   0.706   1.556  10.048
86109SOL    HW160224   0.710   1.505   9.967
86109SOL    HW260225   0.718   1.492  10.117
86110SOL     OW60226   2.621   5.209   5.482
86110SOL    HW160227   2.614   5.300   5.509
86110SOL    HW260228   2.695   5.174   5.532
86111SOL     OW60229  14.564   5.143   5.239
86111SOL    HW160230  14.607   5.224   5.264
86111SOL    HW260231  14.470   5.163   5.246
86112SOL     OW60232  12.541  14.200  14.220
86112SOL    HW160233  12.586  14.214  14.137
86112SOL    HW260234  12.610  14.173  14.280
86113SOL     OW60235  14.846   9.261   2.131
86113SOL    HW160236  14.862   9.168   2.115
86113SOL    HW260237  14.802   9.291   2.052
86114SOL     OW60238  14.131  10.173  13.536
86114SOL    HW160239  14.073  10.211  13.602
86114SOL    HW260240  14.105  10.081  13.531
86115SOL     OW60241   1.706   6.781   6.685
86115SOL    HW160242   1.668   6.749   6.767
86115SOL    HW260243   1.733   6.702   6.639
86116SOL     OW60244  10.071   2.264   7.294
86116SOL    HW160245  10.140   2.291   7.234
86116SOL    HW260246  10.070   2.168   7.289
86117SOL     OW60247   0.909  13.115   8.674
86117SOL    HW160248   0.836  13.175   8.661
86117SOL    HW260249   0.986  13.171   8.677
86118SOL     OW60250   2.882   9.303   2.364
86118SOL    HW160251   2.910   9.299   2.272
86118SOL    HW260252   2.958   9.337   2.411
86119SOL     OW60253  11.501  14.678   0.500
86119SOL    HW160254  11.426  14.620   0.483
86119SOL    HW260255  11.508  14.731   0.421
86120SOL     OW60256  13.601   3.785   4.881
86120SOL    HW160257  13.603   3.745   4.968
86120SOL    HW260258  13.523   3.839   4.882
86121SOL     OW60259   8.560  10.333   4.271
86121SOL    HW160260   8.537  10.406   4.328
86121SOL    HW260261   8.646  10.305   4.303
86122SOL     OW60262   1.247   1.168   9.799
86122SOL    HW160263   1.283   1.243   9.751
86122SOL    HW260264   1.283   1.091   9.755
86123SOL     OW60265   0.281   9.285   2.206
86123SOL    HW160266   0.204   9.321   2.162
86123SOL    HW260267   0.355   9.334   2.170
86124SOL     OW60268  10.584   7.510   2.305
86124SOL    HW160269  10.520   7.468   2.247
86124SOL    HW260270  10.553   7.489   2.394
86125SOL     OW60271  13.752  11.066   0.606
86125SOL    HW160272  13.795  11.149   0.590
86125SOL    HW260273  13.732  11.067   0.700
86126SOL     OW60274   6.901  12.137   8.753
86126SOL    HW160275   6.944  12.098   8.830
86126SOL    HW260276   6.970  12.140   8.687
86127SOL     OW60277   1.319   3.288   2.066
86127SOL    HW160278   1.361   3.233   2.133
86127SOL    HW260279   1.286   3.225   2.002
86128SOL     OW60280   0.750   8.180  11.031
86128SOL    HW160281   0.729   8.270  11.007
86128SOL    HW260282   0.833   8.162  10.987
86129SOL     OW60283   3.782  14.553  11.060
86129SOL    HW160284   3.705  14.600  11.029
86129SOL    HW260285   3.854  14.615  11.052
86130SOL     OW60286  13.225   8.211   9.256
86130SOL    HW160287  13.164   8.189   9.327
86130SOL    HW260288  13.239   8.305   9.265
86131SOL     OW60289   1.392   0.082   0.983
86131SOL    HW160290   1.297   0.090   0.986
86131SOL    HW260291   1.418   0.062   1.073
86132SOL     OW60292   3.050   6.218  13.322
86132SOL    HW160293   3.139   6.199  13.294
86132SOL    HW260294   3.050   6.311  13.344
86133SOL     OW60295   2.018  11.616   3.240
86133SOL    HW160296   2.113  11.602   3.244
86133SOL    HW260297   2.004  11.660   3.156
86134SOL     OW60298   9.404   4.718   7.508
86134SOL    HW160299   9.466   4.645   7.502
86134SOL    HW260300   9.451   4.792   7.470
86135SOL     OW60301   0.396   3.092   5.930
86135SOL    HW160302   0.440   3.016   5.891
86135SOL    HW260303   0.364   3.142   5.855
86136SOL     OW60304  10.893   9.392  13.029
86136SOL    HW160305  10.959   9.377  12.960
86136SOL    HW260306  10.934   9.457  13.086
86137SOL     OW60307  10.960  14.115   7.687
86137SOL    HW160308  10.870  14.084   7.695
86137SOL    HW260309  10.970  14.133   7.593
86138SOL     OW60310   8.582   1.862  10.198
86138SOL    HW160311   8.617   1.807  10.129
86138SOL    HW260312   8.578   1.950  10.160
86139SOL     OW60313   6.828  13.969   9.181
86139SOL    HW160314   6.761  13.902   9.167
86139SOL    HW260315   6.908  13.930   9.145
86140SOL     OW60316   3.412   7.446  14.330
86140SOL    HW160317   3.409   7.375  14.265
86140SOL    HW260318   3.327   7.490  14.321
86141SOL     OW60319  12.021  14.635   6.386
86141SOL    HW160320  12.116  14.632   6.393
86141SOL    HW260321  11.991  14.659   6.474
86142SOL     OW60322  14.560   2.625   2.666
86142SOL    HW160323  14.538   2.705   2.618
86142SOL    HW260324  14.543   2.555   2.603
86143SOL     OW60325   2.743   3.413  10.871
86143SOL    HW160326   2.687   3.377  10.801
86143SOL    HW260327   2.826   3.367  10.860
86144SOL     OW60328  10.628  13.299   6.330
86144SOL    HW160329  10.631  13.204   6.320
86144SOL    HW260330  10.579  13.330   6.254
86145SOL     OW60331   0.171  14.452   7.573
86145SOL    HW160332   0.231  14.511   7.528
86145SOL    HW260333   0.147  14.387   7.507
86146SOL     OW60334  12.718  11.142   7.579
86146SOL    HW160335  12.739  11.119   7.670
86146SOL    HW260336  12.706  11.237   7.581
86147SOL     OW60337   8.423  13.504   6.004
86147SOL    HW160338   8.433  13.599   6.008
86147SOL    HW260339   8.346  13.485   6.057
86148SOL     OW60340  10.202   0.952   0.210
86148SOL    HW160341  10.137   0.885   0.226
86148SOL    HW260342  10.195   0.972   0.117
86149SOL     OW60343   1.386  10.203   0.503
86149SOL    HW160344   1.398  10.159   0.587
86149SOL    HW260345   1.301  10.247   0.512
86150SOL     OW60346   6.476   7.376   5.462
86150SOL    HW160347   6.519   7.388   5.547
86150SOL    HW260348   6.402   7.437   5.463
86151SOL     OW60349   8.505  14.187   7.713
86151SOL    HW160350   8.579  14.235   7.749
86151SOL    HW260351   8.514  14.196   7.618
86152SOL     OW60352  13.897   3.621  12.957
86152SOL    HW160353  13.988   3.624  12.928
86152SOL    HW260354  13.858   3.549  12.908
86153SOL     OW60355   5.741  13.692   8.884
86153SOL    HW160356   5.803  13.730   8.820
86153SOL    HW260357   5.665  13.669   8.831
86154SOL     OW60358  12.695  13.648   8.448
86154SOL    HW160359  12.685  13.603   8.532
86154SOL    HW260360  12.663  13.737   8.465
86155SOL     OW60361   5.414  12.168  11.286
86155SOL    HW160362   5.397  12.126  11.370
86155SOL    HW260363   5.327  12.189  11.251
86156SOL     OW60364   8.706  11.714   1.904
86156SOL    HW160365   8.719  11.714   1.810
86156SOL    HW260366   8.792  11.734   1.941
86157SOL     OW60367  13.883   6.715   7.515
86157SOL    HW160368  13.968   6.712   7.557
86157SOL    HW260369  13.863   6.623   7.496
86158SOL     OW60370  14.069   7.851   7.782
86158SOL    HW160371  14.075   7.768   7.829
86158SOL    HW260372  14.060   7.826   7.690
86159SOL     OW60373   0.457   6.974   0.416
86159SOL    HW160374   0.432   7.034   0.346
86159SOL    HW260375   0.536   6.930   0.384
86160SOL     OW60376  10.103   6.427   5.028
86160SOL    HW160377  10.016   6.388   5.040
86160SOL    HW260378  10.134   6.446   5.117
86161SOL     OW60379   7.485   4.087  11.276
86161SOL    HW160380   7.540   4.054  11.205
86161SOL    HW260381   7.516   4.041  11.353
86162SOL     OW60382   5.703   4.646   2.978
86162SOL    HW160383   5.764   4.593   2.928
86162SOL    HW260384   5.686   4.596   3.058
86163SOL     OW60385  14.703   8.778   3.323
86163SOL    HW160386  14.748   8.825   3.394
86163SOL    HW260387  14.657   8.847   3.275
86164SOL     OW60388  12.861   1.188   8.170
86164SOL    HW160389  12.831   1.263   8.220
86164SOL    HW260390  12.942   1.160   8.215
86165SOL     OW60391   3.733  13.958   7.144
86165SOL    HW160392   3.719  13.991   7.232
86165SOL    HW260393   3.811  13.902   7.151
86166SOL     OW60394   6.522   6.216   8.945
86166SOL    HW160395   6.617   6.208   8.950
86166SOL    HW260396   6.506   6.310   8.958
86167SOL     OW60397  11.769   0.603   9.421
86167SOL    HW160398  11.822   0.592   9.500
86167SOL    HW260399  11.718   0.522   9.415
86168SOL     OW60400   9.440   8.875  11.530
86168SOL    HW160401   9.440   8.833  11.445
86168SOL    HW260402   9.509   8.832  11.579
86169SOL     OW60403   7.996  13.776   4.598
86169SOL    HW160404   7.966  13.731   4.520
86169SOL    HW260405   8.087  13.800   4.579
86170SOL     OW60406  11.078  12.700  12.518
86170SOL    HW160407  11.097  12.793  12.509
86170SOL    HW260408  11.050  12.690  12.610
86171SOL     OW60409   1.308   0.997   4.525
86171SOL    HW160410   1.254   1.075   4.528
86171SOL    HW260411   1.247   0.925   4.511
86172SOL     OW60412   0.962  10.460   8.113
86172SOL    HW160413   0.945  10.377   8.070
86172SOL    HW260414   0.941  10.444   8.205
86173SOL     OW60415   0.528   7.345   2.174
86173SOL    HW160416   0.446   7.316   2.213
86173SOL    HW260417   0.546   7.429   2.216
86174SOL     OW60418  11.763   7.379   5.605
86174SOL    HW160419  11.787   7.312   5.669
86174SOL    HW260420  11.844   7.395   5.556
86175SOL     OW60421   4.760   4.981   5.333
86175SOL    HW160422   4.710   4.955   5.411
86175SOL    HW260423   4.789   4.898   5.296
86176SOL     OW60424   1.451   8.127   8.247
86176SOL    HW160425   1.424   8.138   8.156
86176SOL    HW260426   1.530   8.180   8.255
86177SOL     OW60427   3.412   2.973  13.275
86177SOL    HW160428   3.478   2.979  13.344
86177SOL    HW260429   3.369   2.889  13.288
86178SOL     OW60430  12.831   9.431   8.682
86178SOL    HW160431  12.870   9.481   8.754
86178SOL    HW260432  12.904   9.383   8.643
86179SOL     OW60433   4.023   2.218   8.275
86179SOL    HW160434   4.107   2.212   8.321
86179SOL    HW260435   4.046   2.254   8.189
86180SOL     OW60436   6.946  13.275  12.466
86180SOL    HW160437   6.914  13.365  12.463
86180SOL    HW260438   6.869  13.222  12.484
86181SOL     OW60439  13.998   9.178  12.107
86181SOL    HW160440  14.000   9.168  12.202
86181SOL    HW260441  14.089   9.172  12.080
86182SOL     OW60442   7.401   0.622  14.318
86182SOL    HW160443   7.496   0.637  14.317
86182SOL    HW260444   7.385   0.577  14.401
86183SOL     OW60445   3.986   9.910  10.134
86183SOL    HW160446   4.051   9.980  10.143
86183SOL    HW260447   3.906   9.946  10.172
86184SOL     OW60448  12.788   3.902   4.853
86184SOL    HW160449  12.711   3.872   4.805
86184SOL    HW260450  12.765   3.989   4.884
86185SOL     OW60451   4.683  10.634  13.494
86185SOL    HW160452   4.731  10.591  13.565
86185SOL    HW260453   4.636  10.705  13.538
86186SOL     OW60454   9.938   4.715   5.664
86186SOL    HW160455   9.972   4.680   5.582
86186SOL    HW260456   9.861   4.766   5.639
86187SOL     OW60457   1.116   1.541   6.894
86187SOL    HW160458   1.045   1.557   6.832
86187SOL    HW260459   1.095   1.457   6.934
86188SOL     OW60460   7.856  11.237   9.710
86188SOL    HW160461   7.876  11.143   9.702
86188SOL    HW260462   7.840  11.266   9.621
86189SOL     OW60463   4.163   3.726   2.726
86189SOL    HW160464   4.243   3.773   2.752
86189SOL    HW260465   4.113   3.718   2.808
86190SOL     OW60466   9.182   2.251   8.654
86190SOL    HW160467   9.265   2.268   8.698
86190SOL    HW260468   9.168   2.157   8.665
86191SOL     OW60469   1.083   5.245  11.925
86191SOL    HW160470   1.076   5.304  12.000
86191SOL    HW260471   0.997   5.249  11.883
86192SOL     OW60472   8.791   6.813   7.020
86192SOL    HW160473   8.796   6.718   7.023
86192SOL    HW260474   8.772   6.839   7.111
86193SOL     OW60475   6.841   2.391   2.021
86193SOL    HW160476   6.866   2.483   2.008
86193SOL    HW260477   6.754   2.385   1.981
86194SOL     OW60478  12.548  13.420   9.463
86194SOL    HW160479  12.531  13.386   9.551
86194SOL    HW260480  12.628  13.375   9.436
86195SOL     OW60481   0.792   1.449  11.099
86195SOL    HW160482   0.862   1.480  11.156
86195SOL    HW260483   0.712   1.485  11.138
86196SOL     OW60484  13.319   0.528  13.661
86196SOL    HW160485  13.318   0.576  13.579
86196SOL    HW260486  13.271   0.583  13.722
86197SOL     OW60487   7.326  12.861   1.495
86197SOL    HW160488   7.260  12.791   1.492
86197SOL    HW260489   7.301  12.914   1.570
86198SOL     OW60490  14.753  11.271   0.321
86198SOL    HW160491  14.693  11.345   0.324
86198SOL    HW260492  14.708  11.201   0.369
86199SOL     OW60493  14.095   7.608   9.321
86199SOL    HW160494  14.053   7.612   9.407
86199SOL    HW260495  14.035   7.654   9.263
86200SOL     OW60496   8.439   1.132   8.085
86200SOL    HW160497   8.436   1.050   8.135
86200SOL    HW260498   8.503   1.116   8.016
86201SOL     OW60499   3.581   5.261   4.387
86201SOL    HW160500   3.551   5.171   4.395
86201SOL    HW260501   3.501   5.313   4.380
86202SOL     OW60502   4.246   8.480   3.660
86202SOL    HW160503   4.276   8.536   3.732
86202SOL    HW260504   4.169   8.525   3.624
86203SOL     OW60505   5.111   4.173   1.848
86203SOL    HW160506   5.086   4.193   1.758
86203SOL    HW260507   5.049   4.107   1.877
86204SOL     OW60508   5.699   0.658   3.329
86204SOL    HW160509   5.621   0.673   3.275
86204SOL    HW260510   5.724   0.745   3.360
86205SOL     OW60511   2.673  13.740   3.123
86205SOL    HW160512   2.663  13.708   3.034
86205SOL    HW260513   2.667  13.835   3.116
86206SOL     OW60514   8.224  10.254  10.377
86206SOL    HW160515   8.213  10.345  10.408
86206SOL    HW260516   8.235  10.262  10.283
86207SOL     OW60517   9.538   9.717  14.472
86207SOL    HW160518   9.456   9.705  14.520
86207SOL    HW260519   9.533   9.653  14.400
86208SOL     OW60520   4.030  10.518   8.831
86208SOL    HW160521   4.112  10.560   8.858
86208SOL    HW260522   3.979  10.589   8.792
86209SOL     OW60523   3.549  10.145   0.688
86209SOL    HW160524   3.540  10.121   0.780
86209SOL    HW260525   3.465  10.186   0.666
86210SOL     OW60526   8.668   8.594  11.286
86210SOL    HW160527   8.727   8.639  11.346
86210SOL    HW260528   8.725   8.557  11.219
86211SOL     OW60529  13.512   2.168  12.187
86211SOL    HW160530  13.539   2.256  12.212
86211SOL    HW260531  13.562   2.110  12.244
86212SOL     OW60532   1.999  11.468  12.842
86212SOL    HW160533   2.076  11.424  12.804
86212SOL    HW260534   2.033  11.550  12.876
86213SOL     OW60535   1.833   3.180  11.372
86213SOL    HW160536   1.779   3.132  11.309
86213SOL    HW260537   1.825   3.272  11.346
86214SOL     OW60538  10.101   2.799  11.309
86214SOL    HW160539  10.030   2.736  11.320
86214SOL    HW260540  10.061   2.872  11.261
86215SOL     OW60541   8.392   0.799  11.376
86215SOL    HW160542   8.356   0.831  11.459
86215SOL    HW260543   8.316   0.780  11.322
86216SOL     OW60544   9.376   6.950  12.982
86216SOL    HW160545   9.425   7.032  12.980
86216SOL    HW260546   9.441   6.883  12.999
86217SOL     OW60547   3.947   4.000   7.537
86217SOL    HW160548   3.877   3.957   7.586
86217SOL    HW260549   3.929   4.094   7.548
86218SOL     OW60550   8.367   9.982   9.986
86218SOL    HW160551   8.309   9.991   9.910
86218SOL    HW260552   8.425  10.058   9.981
86219SOL     OW60553   2.088  12.415  13.194
86219SOL    HW160554   2.177  12.378  13.191
86219SOL    HW260555   2.034  12.342  13.222
86220SOL     OW60556   6.864   3.596   4.403
86220SOL    HW160557   6.884   3.645   4.324
86220SOL    HW260558   6.936   3.617   4.463
86221SOL     OW60559   5.786   5.311   1.524
86221SOL    HW160560   5.750   5.241   1.579
86221SOL    HW260561   5.816   5.267   1.445
86222SOL     OW60562   9.508   0.775   1.283
86222SOL    HW160563   9.502   0.850   1.225
86222SOL    HW260564   9.598   0.745   1.275
86223SOL     OW60565   3.590  10.377  10.861
86223SOL    HW160566   3.534  10.353  10.788
86223SOL    HW260567   3.655  10.437  10.823
86224SOL     OW60568   7.378   1.411  13.034
86224SOL    HW160569   7.391   1.483  12.972
86224SOL    HW260570   7.419   1.336  12.992
86225SOL     OW60571  11.059   7.276  11.829
86225SOL    HW160572  11.016   7.210  11.774
86225SOL    HW260573  11.111   7.328  11.768
86226SOL     OW60574  11.402  10.800   3.333
86226SOL    HW160575  11.436  10.711   3.326
86226SOL    HW260576  11.311  10.794   3.303
86227SOL     OW60577  12.642  13.096   9.799
86227SOL    HW160578  12.618  13.106   9.891
86227SOL    HW260579  12.559  13.102   9.752
86228SOL     OW60580   2.506   8.362  14.534
86228SOL    HW160581   2.443   8.297  14.567
86228SOL    HW260582   2.559   8.314  14.471
86229SOL     OW60583   0.872   3.057  12.874
86229SOL    HW160584   0.884   3.142  12.831
86229SOL    HW260585   0.923   2.996  12.821
86230SOL     OW60586   5.715   6.383   9.318
86230SOL    HW160587   5.718   6.329   9.397
86230SOL    HW260588   5.626   6.372   9.284
86231SOL     OW60589  10.372   2.226   9.002
86231SOL    HW160590  10.420   2.304   8.972
86231SOL    HW260591  10.296   2.222   8.945
86232SOL     OW60592   0.079  12.367  12.628
86232SOL    HW160593   0.151  12.429  12.618
86232SOL    HW260594   0.062  12.336  12.539
86233SOL     OW60595   4.804   0.331  14.434
86233SOL    HW160596   4.823   0.425  14.444
86233SOL    HW260597   4.768   0.324  14.346
86234SOL     OW60598  10.425   6.538  12.517
86234SOL    HW160599  10.385   6.622  12.494
86234SOL    HW260600  10.379   6.475  12.462
86235SOL     OW60601  12.739   0.445   2.744
86235SOL    HW160602  12.792   0.487   2.812
86235SOL    HW260603  12.723   0.514   2.679
86236SOL     OW60604   8.731  13.640  10.247
86236SOL    HW160605   8.715  13.549  10.223
86236SOL    HW260606   8.817  13.639  10.289
86237SOL     OW60607  13.824  14.381   1.590
86237SOL    HW160608  13.752  14.333   1.631
86237SOL    HW260609  13.820  14.354   1.498
86238SOL     OW60610   7.513   6.169   6.216
86238SOL    HW160611   7.595   6.218   6.219
86238SOL    HW260612   7.528   6.092   6.271
86239SOL     OW60613  12.357   9.667   9.349
86239SOL    HW160614  12.298   9.603   9.309
86239SOL    HW260615  12.407   9.703   9.275
86240SOL     OW60616  12.813   1.028   6.011
86240SOL    HW160617  12.816   0.995   6.101
86240SOL    HW260618  12.833   0.951   5.957
86241SOL     OW60619   4.547   7.198  12.799
86241SOL    HW160620   4.565   7.190  12.705
86241SOL    HW260621   4.466   7.249  12.803
86242SOL     OW60622   3.163  14.171  14.704
86242SOL    HW160623   3.078  14.128  14.689
86242SOL    HW260624   3.222  14.099  14.724
86243SOL     OW60625   6.384  10.241   6.890
86243SOL    HW160626   6.301  10.278   6.918
86243SOL    HW260627   6.440  10.317   6.875
86244SOL     OW60628   6.293   5.386  13.720
86244SOL    HW160629   6.250   5.344  13.794
86244SOL    HW260630   6.282   5.324  13.648
86245SOL     OW60631   1.605   0.050   6.154
86245SOL    HW160632   1.696   0.054   6.185
86245SOL    HW260633   1.559   0.115   6.208
86246SOL     OW60634  11.344   5.248   6.329
86246SOL    HW160635  11.389   5.164   6.334
86246SOL    HW260636  11.415   5.313   6.325
86247SOL     OW60637   5.575   4.820  13.478
86247SOL    HW160638   5.644   4.794  13.539
86247SOL    HW260639   5.576   4.752  13.411
86248SOL     OW60640  11.383   4.976   6.729
86248SOL    HW160641  11.355   5.061   6.695
86248SOL    HW260642  11.434   4.996   6.807
86249SOL     OW60643   8.341  11.699  14.490
86249SOL    HW160644   8.279  11.669  14.557
86249SOL    HW260645   8.422  11.651  14.508
86250SOL     OW60646  13.983  11.890   7.492
86250SOL    HW160647  13.960  11.976   7.456
86250SOL    HW260648  13.911  11.869   7.550
86251SOL     OW60649  10.840   0.620   3.965
86251SOL    HW160650  10.896   0.685   4.007
86251SOL    HW260651  10.889   0.539   3.969
86252SOL     OW60652  14.021  13.948   6.929
86252SOL    HW160653  14.053  14.011   6.865
86252SOL    HW260654  14.099  13.900   6.958
86253SOL     OW60655   4.911   3.952  11.018
86253SOL    HW160656   4.833   3.953  11.073
86253SOL    HW260657   4.980   3.917  11.074
86254SOL     OW60658  14.474   7.433   7.235
86254SOL    HW160659  14.400   7.375   7.253
86254SOL    HW260660  14.496   7.471   7.320
86255SOL     OW60661   6.667   7.909   5.620
86255SOL    HW160662   6.710   7.901   5.705
86255SOL    HW260663   6.607   7.835   5.616
86256SOL     OW60664  14.705   8.955  13.864
86256SOL    HW160665  14.628   8.975  13.917
86256SOL    HW260666  14.693   8.863  13.839
86257SOL     OW60667   0.974  13.550   8.687
86257SOL    HW160668   1.009  13.463   8.705
86257SOL    HW260669   1.033  13.610   8.733
86258SOL     OW60670   3.763   1.542   4.409
86258SOL    HW160671   3.817   1.471   4.445
86258SOL    HW260672   3.826   1.610   4.384
86259SOL     OW60673   8.760   6.560   0.134
86259SOL    HW160674   8.697   6.505   0.181
86259SOL    HW260675   8.842   6.548   0.181
86260SOL     OW60676   0.727  11.763   1.141
86260SOL    HW160677   0.769  11.712   1.210
86260SOL    HW260678   0.670  11.700   1.096
86261SOL     OW60679  14.788  13.404   7.097
86261SOL    HW160680  14.862  13.358   7.138
86261SOL    HW260681  14.819  13.424   7.009
86262SOL     OW60682  12.843   7.211  12.698
86262SOL    HW160683  12.803   7.142  12.751
86262SOL    HW260684  12.923   7.235  12.746
86263SOL     OW60685   0.256   4.918   4.607
86263SOL    HW160686   0.267   4.884   4.696
86263SOL    HW260687   0.163   4.940   4.601
86264SOL     OW60688   9.083   9.110  13.679
86264SOL    HW160689   9.106   9.107  13.772
86264SOL    HW260690   8.994   9.145  13.678
86265SOL     OW60691   0.991  12.133  12.967
86265SOL    HW160692   0.919  12.129  12.905
86265SOL    HW260693   0.981  12.054  13.020
86266SOL     OW60694  14.729   2.161   4.002
86266SOL    HW160695  14.777   2.195   3.927
86266SOL    HW260696  14.796   2.139   4.066
86267SOL     OW60697   7.470   2.374   2.810
86267SOL    HW160698   7.477   2.423   2.892
86267SOL    HW260699   7.507   2.288   2.830
86268SOL     OW60700   9.780   9.466   2.775
86268SOL    HW160701   9.741   9.530   2.834
86268SOL    HW260702   9.827   9.406   2.833
86269SOL     OW60703  12.979   7.973   2.446
86269SOL    HW160704  13.056   7.948   2.497
86269SOL    HW260705  12.912   7.993   2.512
86270SOL     OW60706   2.243   2.661   2.377
86270SOL    HW160707   2.244   2.743   2.426
86270SOL    HW260708   2.188   2.603   2.429
86271SOL     OW60709  12.258   5.966   4.666
86271SOL    HW160710  12.342   5.955   4.709
86271SOL    HW260711  12.230   5.877   4.644
86272SOL     OW60712  13.236   4.818   0.935
86272SOL    HW160713  13.292   4.785   0.865
86272SOL    HW260714  13.149   4.786   0.912
86273SOL     OW60715  11.092   1.766   2.003
86273SOL    HW160716  11.076   1.692   2.062
86273SOL    HW260717  11.098   1.841   2.062
86274SOL     OW60718   5.210   1.466   3.533
86274SOL    HW160719   5.121   1.434   3.546
86274SOL    HW260720   5.250   1.461   3.620
86275SOL     OW60721   8.907   7.965   8.319
86275SOL    HW160722   8.987   7.955   8.267
86275SOL    HW260723   8.843   8.003   8.259
86276SOL     OW60724   6.238   8.546   5.884
86276SOL    HW160725   6.226   8.494   5.804
86276SOL    HW260726   6.297   8.493   5.937
86277SOL     OW60727   1.076   4.097  10.634
86277SOL    HW160728   1.167   4.109  10.606
86277SOL    HW260729   1.039   4.036  10.569
86278SOL     OW60730   7.589   8.395   2.543
86278SOL    HW160731   7.658   8.427   2.601
86278SOL    HW260732   7.611   8.431   2.457
86279SOL     OW60733   8.781   5.180  10.745
86279SOL    HW160734   8.739   5.096  10.727
86279SOL    HW260735   8.708   5.241  10.756
86280SOL     OW60736   1.217  12.164   4.138
86280SOL    HW160737   1.260  12.103   4.077
86280SOL    HW260738   1.177  12.230   4.081
86281SOL     OW60739   1.851   0.817  10.477
86281SOL    HW160740   1.768   0.787  10.514
86281SOL    HW260741   1.902   0.737  10.462
86282SOL     OW60742  12.867   0.949   6.918
86282SOL    HW160743  12.848   1.033   6.959
86282SOL    HW260744  12.949   0.963   6.871
86283SOL     OW60745   5.787  11.164   5.139
86283SOL    HW160746   5.861  11.118   5.099
86283SOL    HW260747   5.815  11.256   5.142
86284SOL     OW60748  11.870  11.712   9.382
86284SOL    HW160749  11.948  11.671   9.419
86284SOL    HW260750  11.873  11.803   9.413
86285SOL     OW60751  10.362   8.843   3.341
86285SOL    HW160752  10.381   8.822   3.432
86285SOL    HW260753  10.437   8.809   3.292
86286SOL     OW60754  11.363   6.276  10.434
86286SOL    HW160755  11.436   6.249  10.490
86286SOL    HW260756  11.361   6.210  10.364
86287SOL     OW60757  13.687   1.917   8.207
86287SOL    HW160758  13.698   2.001   8.163
86287SOL    HW260759  13.669   1.855   8.137
86288SOL     OW60760   4.586   0.581   5.138
86288SOL    HW160761   4.548   0.662   5.172
86288SOL    HW260762   4.534   0.512   5.179
86289SOL     OW60763   9.145  10.249   5.019
86289SOL    HW160764   9.165  10.207   4.935
86289SOL    HW260765   9.195  10.199   5.084
86290SOL     OW60766   3.755   4.819   9.582
86290SOL    HW160767   3.750   4.880   9.656
86290SOL    HW260768   3.721   4.736   9.616
86291SOL     OW60769   4.504   0.050  11.531
86291SOL    HW160770   4.470   0.013  11.449
86291SOL    HW260771   4.566  14.860  11.563
86292SOL     OW60772  13.293   3.734   2.565
86292SOL    HW160773  13.281   3.747   2.471
86292SOL    HW260774  13.208   3.753   2.603
86293SOL     OW60775   9.751   9.268   9.834
86293SOL    HW160776   9.807   9.207   9.881
86293SOL    HW260777   9.722   9.220   9.757
86294SOL     OW60778   6.729   8.757  14.100
86294SOL    HW160779   6.708   8.825  14.037
86294SOL    HW260780   6.818   8.777  14.129
86295SOL     OW60781   9.911   7.105   6.317
86295SOL    HW160782   9.849   7.167   6.279
86295SOL    HW260783   9.865   7.021   6.317
86296SOL     OW60784  12.524   2.150   9.612
86296SOL    HW160785  12.438   2.141   9.655
86296SOL    HW260786  12.520   2.089   9.538
86297SOL     OW60787   9.314  14.657  10.610
86297SOL    HW160788   9.390  14.647  10.666
86297SOL    HW260789   9.240  14.666  10.670
86298SOL     OW60790   7.341   7.407   8.848
86298SOL    HW160791   7.303   7.375   8.930
86298SOL    HW260792   7.281   7.376   8.780
86299SOL     OW60793   5.844   2.716   6.391
86299SOL    HW160794   5.862   2.700   6.298
86299SOL    HW260795   5.786   2.792   6.391
86300SOL     OW60796  11.456   6.483   1.197
86300SOL    HW160797  11.406   6.554   1.157
86300SOL    HW260798  11.504   6.525   1.268
86301SOL     OW60799   5.705   5.216   6.804
86301SOL    HW160800   5.635   5.219   6.870
86301SOL    HW260801   5.739   5.305   6.800
86302SOL     OW60802   4.922   5.151   8.020
86302SOL    HW160803   4.965   5.211   7.959
86302SOL    HW260804   4.935   5.191   8.106
86303SOL     OW60805   2.835  10.506   0.534
86303SOL    HW160806   2.804  10.416   0.540
86303SOL    HW260807   2.786  10.553   0.602
86304SOL     OW60808   3.562   8.623   8.220
86304SOL    HW160809   3.539   8.699   8.274
86304SOL    HW260810   3.491   8.561   8.236
86305SOL     OW60811   8.163   2.692   7.289
86305SOL    HW160812   8.103   2.739   7.347
86305SOL    HW260813   8.108   2.660   7.218
86306SOL     OW60814   5.429   8.790  14.541
86306SOL    HW160815   5.446   8.699  14.566
86306SOL    HW260816   5.349   8.786  14.489
86307SOL     OW60817  10.114  10.633   0.073
86307SOL    HW160818  10.049  10.659   0.008
86307SOL    HW260819  10.106  10.699   0.143
86308SOL     OW60820  12.363   1.572   6.726
86308SOL    HW160821  12.302   1.642   6.748
86308SOL    HW260822  12.445   1.617   6.705
86309SOL     OW60823  12.979  10.882  12.576
86309SOL    HW160824  13.030  10.874  12.657
86309SOL    HW260825  12.959  10.975  12.570
86310SOL     OW60826   2.403   9.199   6.614
86310SOL    HW160827   2.411   9.127   6.551
86310SOL    HW260828   2.371   9.158   6.694
86311SOL     OW60829   7.885  13.948   5.285
86311SOL    HW160830   7.850  13.860   5.271
86311SOL    HW260831   7.952  13.937   5.353
86312SOL     OW60832  12.109  10.871   1.024
86312SOL    HW160833  12.024  10.914   1.011
86312SOL    HW260834  12.099  10.785   0.983
86313SOL     OW60835   7.278  14.462   9.352
86313SOL    HW160836   7.305  14.526   9.417
86313SOL    HW260837   7.333  14.386   9.368
86314SOL     OW60838  10.867   9.660   8.942
86314SOL    HW160839  10.838   9.582   8.895
86314SOL    HW260840  10.942   9.692   8.892
86315SOL     OW60841   8.662   7.231   1.933
86315SOL    HW160842   8.698   7.264   1.851
86315SOL    HW260843   8.600   7.299   1.961
86316SOL     OW60844   0.463   5.207   9.495
86316SOL    HW160845   0.557   5.208   9.477
86316SOL    HW260846   0.445   5.291   9.538
86317SOL     OW60847   8.328   9.738   7.200
86317SOL    HW160848   8.284   9.816   7.233
86317SOL    HW260849   8.421   9.754   7.215
86318SOL     OW60850   7.656   4.144   4.675
86318SOL    HW160851   7.610   4.138   4.591
86318SOL    HW260852   7.589   4.170   4.738
86319SOL     OW60853   8.684   0.660   6.904
86319SOL    HW160854   8.741   0.592   6.939
86319SOL    HW260855   8.690   0.731   6.968
86320SOL     OW60856   4.398   5.529   8.049
86320SOL    HW160857   4.417   5.482   8.130
86320SOL    HW260858   4.476   5.517   7.995
86321SOL     OW60859  14.812   9.571  10.570
86321SOL    HW160860  14.814   9.625  10.650
86321SOL    HW260861  14.719   9.555  10.556
86322SOL     OW60862   8.297  14.237   4.643
86322SOL    HW160863   8.323  14.226   4.734
86322SOL    HW260864   8.202  14.224   4.643
86323SOL     OW60865   6.036   5.759  12.225
86323SOL    HW160866   6.079   5.843  12.244
86323SOL    HW260867   6.088   5.722  12.154
86324SOL     OW60868  10.331   7.614   6.895
86324SOL    HW160869  10.390   7.623   6.820
86324SOL    HW260870  10.349   7.691   6.949
86325SOL     OW60871   2.318   7.553   4.271
86325SOL    HW160872   2.236   7.543   4.320
86325SOL    HW260873   2.344   7.644   4.287
86326SOL     OW60874   5.764  10.546  12.900
86326SOL    HW160875   5.728  10.476  12.846
86326SOL    HW260876   5.804  10.606  12.838
86327SOL     OW60877   3.922  13.164   8.412
86327SOL    HW160878   3.931  13.192   8.503
86327SOL    HW260879   3.945  13.071   8.414
86328SOL     OW60880  13.212   7.429   1.176
86328SOL    HW160881  13.135   7.384   1.210
86328SOL    HW260882  13.197   7.434   1.081
86329SOL     OW60883  12.747   8.614  14.188
86329SOL    HW160884  12.760   8.615  14.094
86329SOL    HW260885  12.792   8.534  14.218
86330SOL     OW60886   6.921   6.418  12.152
86330SOL    HW160887   6.975   6.475  12.207
86330SOL    HW260888   6.928   6.332  12.193
86331SOL     OW60889   9.263   4.796   6.512
86331SOL    HW160890   9.194   4.862   6.500
86331SOL    HW260891   9.225   4.733   6.573
86332SOL     OW60892  12.441   4.295   9.011
86332SOL    HW160893  12.461   4.373   8.959
86332SOL    HW260894  12.387   4.328   9.083
86333SOL     OW60895  12.611  13.730  10.912
86333SOL    HW160896  12.550  13.750  10.841
86333SOL    HW260897  12.583  13.786  10.985
86334SOL     OW60898   3.015   7.650  14.543
86334SOL    HW160899   3.014   7.653  14.639
86334SOL    HW260900   2.964   7.726  14.516
86335SOL     OW60901   8.604   8.656   5.608
86335SOL    HW160902   8.686   8.703   5.597
86335SOL    HW260903   8.587   8.660   5.703
86336SOL     OW60904  14.717   5.979   7.214
86336SOL    HW160905  14.643   5.983   7.274
86336SOL    HW260906  14.690   6.032   7.139
86337SOL     OW60907   3.969   7.010  12.844
86337SOL    HW160908   4.062   6.990  12.848
86337SOL    HW260909   3.951   7.025  12.751
86338SOL     OW60910   0.852  12.884  14.776
86338SOL    HW160911   0.821  12.956  14.721
86338SOL    HW260912   0.830  12.911  14.866
86339SOL     OW60913   7.224  12.874   8.618
86339SOL    HW160914   7.312  12.904   8.639
86339SOL    HW260915   7.211  12.798   8.674
86340SOL     OW60916   0.104  13.792  10.464
86340SOL    HW160917   0.069  13.708  10.493
86340SOL    HW260918   0.079  13.798  10.372
86341SOL     OW60919   5.481   9.183  11.240
86341SOL    HW160920   5.404   9.214  11.193
86341SOL    HW260921   5.512   9.108  11.188
86342SOL     OW60922   1.287  10.135   7.631
86342SOL    HW160923   1.243  10.062   7.674
86342SOL    HW260924   1.217  10.179   7.582
86343SOL     OW60925   5.270  11.364   9.344
86343SOL    HW160926   5.234  11.421   9.276
86343SOL    HW260927   5.354  11.404   9.368
86344SOL     OW60928   2.436  12.470  11.422
86344SOL    HW160929   2.471  12.541  11.476
86344SOL    HW260930   2.349  12.453  11.459
86345SOL     OW60931   0.693   4.160   0.823
86345SOL    HW160932   0.607   4.139   0.787
86345SOL    HW260933   0.739   4.204   0.751
86346SOL     OW60934   5.232  12.072  10.152
86346SOL    HW160935   5.213  12.034  10.065
86346SOL    HW260936   5.326  12.089  10.151
86347SOL     OW60937   9.302   4.141   3.716
86347SOL    HW160938   9.334   4.050   3.718
86347SOL    HW260939   9.315   4.172   3.805
86348SOL     OW60940  12.410   4.311   1.532
86348SOL    HW160941  12.325   4.283   1.568
86348SOL    HW260942  12.456   4.350   1.607
86349SOL     OW60943  10.097   3.488   0.960
86349SOL    HW160944  10.142   3.410   0.926
86349SOL    HW260945  10.146   3.562   0.922
86350SOL     OW60946   8.736  13.684   8.953
86350SOL    HW160947   8.745  13.668   9.047
86350SOL    HW260948   8.728  13.780   8.946
86351SOL     OW60949  13.025  11.039  12.127
86351SOL    HW160950  13.100  11.087  12.092
86351SOL    HW260951  12.958  11.046  12.059
86352SOL     OW60952  13.212   5.856   0.893
86352SOL    HW160953  13.204   5.762   0.874
86352SOL    HW260954  13.261   5.859   0.975
86353SOL     OW60955   2.569   3.477  12.934
86353SOL    HW160956   2.659   3.468  12.903
86353SOL    HW260957   2.527   3.394  12.911
86354SOL     OW60958   5.986   7.104   1.519
86354SOL    HW160959   5.910   7.050   1.538
86354SOL    HW260960   6.061   7.049   1.543
86355SOL     OW60961  13.757  14.691   1.315
86355SOL    HW160962  13.695  14.618   1.315
86355SOL    HW260963  13.827  14.662   1.374
86356SOL     OW60964   9.250  11.437   0.832
86356SOL    HW160965   9.240  11.490   0.753
86356SOL    HW260966   9.334  11.392   0.821
86357SOL     OW60967   2.519   2.752   5.044
86357SOL    HW160968   2.451   2.710   5.097
86357SOL    HW260969   2.475   2.830   5.008
86358SOL     OW60970   2.599  11.209  12.006
86358SOL    HW160971   2.602  11.113  12.004
86358SOL    HW260972   2.509  11.230  11.981
86359SOL     OW60973   4.280   0.237  14.736
86359SOL    HW160974   4.355   0.257  14.793
86359SOL    HW260975   4.319   0.228  14.649
86360SOL     OW60976   7.747   1.499   2.208
86360SOL    HW160977   7.676   1.458   2.157
86360SOL    HW260978   7.701   1.555   2.271
86361SOL     OW60979   0.537  11.921   5.851
86361SOL    HW160980   0.459  11.869   5.831
86361SOL    HW260981   0.510  11.975   5.926
86362SOL     OW60982  13.266   5.682   8.323
86362SOL    HW160983  13.202   5.729   8.378
86362SOL    HW260984  13.244   5.709   8.234
86363SOL     OW60985   0.408   3.456   4.660
86363SOL    HW160986   0.401   3.542   4.619
86363SOL    HW260987   0.499   3.449   4.688
86364SOL     OW60988   9.246  13.763   3.714
86364SOL    HW160989   9.261  13.742   3.621
86364SOL    HW260990   9.170  13.711   3.738
86365SOL     OW60991  14.460   1.852  14.528
86365SOL    HW160992  14.534   1.884  14.476
86365SOL    HW260993  14.391   1.835  14.463
86366SOL     OW60994   5.034   2.038  12.409
86366SOL    HW160995   5.012   2.128  12.433
86366SOL    HW260996   4.953   2.002  12.374
86367SOL     OW60997   1.511   8.266   5.831
86367SOL    HW160998   1.605   8.284   5.827
86367SOL    HW260999   1.473   8.318   5.760
86368SOL     OW61000  13.234  14.177   7.793
86368SOL    HW161001  13.321  14.138   7.806
86368SOL    HW261002  13.222  14.176   7.698
86369SOL     OW61003  14.000   6.712   0.003
86369SOL    HW161004  13.968   6.627   0.032
86369SOL    HW261005  13.922   6.767   0.000
86370SOL     OW61006   0.476   7.795   5.574
86370SOL    HW161007   0.440   7.714   5.539
86370SOL    HW261008   0.431   7.864   5.524
86371SOL     OW61009   1.292   2.551   9.699
86371SOL    HW161010   1.265   2.463   9.673
86371SOL    HW261011   1.324   2.541   9.789
86372SOL     OW61012  12.532   2.221   6.130
86372SOL    HW161013  12.573   2.197   6.213
86372SOL    HW261014  12.566   2.157   6.067
86373SOL     OW61015  14.606   1.156   4.654
86373SOL    HW161016  14.581   1.138   4.744
86373SOL    HW261017  14.689   1.204   4.661
86374SOL     OW61018  12.597  11.336  11.327
86374SOL    HW161019  12.509  11.314  11.296
86374SOL    HW261020  12.604  11.430  11.313
86375SOL     OW61021   3.622   6.277   8.205
86375SOL    HW161022   3.544   6.224   8.192
86375SOL    HW261023   3.693   6.213   8.213
86376SOL     OW61024   9.501   1.491   8.203
86376SOL    HW161025   9.510   1.460   8.113
86376SOL    HW261026   9.551   1.573   8.206
86377SOL     OW61027   7.872   5.457   4.328
86377SOL    HW161028   7.841   5.367   4.334
86377SOL    HW261029   7.871   5.489   4.418
86378SOL     OW61030   1.088   7.179   2.413
86378SOL    HW161031   1.108   7.272   2.400
86378SOL    HW261032   1.057   7.149   2.328
86379SOL     OW61033   6.758  13.039   8.910
86379SOL    HW161034   6.803  12.995   8.837
86379SOL    HW261035   6.744  12.970   8.974
86380SOL     OW61036  11.988   3.536  10.435
86380SOL    HW161037  11.927   3.572  10.370
86380SOL    HW261038  11.964   3.579  10.517
86381SOL     OW61039  12.350   1.236  12.928
86381SOL    HW161040  12.376   1.144  12.927
86381SOL    HW261041  12.254   1.234  12.934
86382SOL     OW61042   7.494   1.919   4.433
86382SOL    HW161043   7.520   1.827   4.438
86382SOL    HW261044   7.572   1.968   4.458
86383SOL     OW61045  13.684   7.438   1.134
86383SOL    HW161046  13.614   7.504   1.142
86383SOL    HW261047  13.762   7.482   1.167
86384SOL     OW61048   0.483   0.704  12.596
86384SOL    HW161049   0.443   0.708  12.682
86384SOL    HW261050   0.409   0.701  12.535
86385SOL     OW61051   6.246   6.286   3.382
86385SOL    HW161052   6.276   6.246   3.463
86385SOL    HW261053   6.283   6.231   3.313
86386SOL     OW61054  12.900   9.687   7.757
86386SOL    HW161055  12.872   9.752   7.821
86386SOL    HW261056  12.871   9.603   7.793
86387SOL     OW61057   0.226   0.611   4.545
86387SOL    HW161058   0.205   0.694   4.590
86387SOL    HW261059   0.174   0.614   4.465
86388SOL     OW61060  10.825   1.888  12.768
86388SOL    HW161061  10.850   1.811  12.819
86388SOL    HW261062  10.840   1.962  12.828
86389SOL     OW61063   1.677  14.596   6.405
86389SOL    HW161064   1.757  14.607   6.457
86389SOL    HW261065   1.607  14.625   6.462
86390SOL     OW61066   0.584  14.601   7.239
86390SOL    HW161067   0.668  14.648   7.237
86390SOL    HW261068   0.547  14.614   7.152
86391SOL     OW61069  12.735   6.998   9.226
86391SOL    HW161070  12.772   6.956   9.303
86391SOL    HW261071  12.753   6.937   9.154
86392SOL     OW61072   4.372   0.715  13.229
86392SOL    HW161073   4.382   0.667  13.147
86392SOL    HW261074   4.322   0.793  13.205
86393SOL     OW61075   1.021   9.574  11.804
86393SOL    HW161076   0.984   9.535  11.725
86393SOL    HW261077   0.967   9.540  11.875
86394SOL     OW61078  11.469  12.881   6.523
86394SOL    HW161079  11.490  12.959   6.473
86394SOL    HW261080  11.387  12.902   6.569
86395SOL     OW61081   7.043   6.856  12.774
86395SOL    HW161082   7.122   6.848  12.828
86395SOL    HW261083   6.979   6.799  12.818
86396SOL     OW61084  14.407  10.486  10.601
86396SOL    HW161085  14.430  10.574  10.573
86396SOL    HW261086  14.312  10.482  10.593
86397SOL     OW61087  13.514  10.493   8.484
86397SOL    HW161088  13.602  10.524   8.464
86397SOL    HW261089  13.504  10.505   8.578
86398SOL     OW61090  13.157  13.770  13.912
86398SOL    HW161091  13.105  13.851  13.917
86398SOL    HW261092  13.181  13.752  14.002
86399SOL     OW61093   4.537   8.086  10.130
86399SOL    HW161094   4.510   7.995  10.142
86399SOL    HW261095   4.633   8.083  10.131
86400SOL     OW61096   5.912  11.734   4.342
86400SOL    HW161097   5.950  11.731   4.254
86400SOL    HW261098   5.882  11.825   4.351
86401SOL     OW61099   3.912   6.673   2.554
86401SOL    HW161100   3.982   6.735   2.533
86401SOL    HW261101   3.939   6.635   2.638
86402SOL     OW61102  14.847  11.232   0.074
86402SOL    HW161103  14.869  11.325   0.066
86402SOL    HW261104  14.824  11.222   0.166
86403SOL     OW61105   3.748   3.328  14.277
86403SOL    HW161106   3.782   3.286  14.356
86403SOL    HW261107   3.825   3.340  14.222
86404SOL     OW61108   6.758   8.685   1.985
86404SOL    HW161109   6.670   8.716   1.964
86404SOL    HW261110   6.775   8.718   2.073
86405SOL     OW61111   7.006   9.425   2.491
86405SOL    HW161112   7.063   9.497   2.463
86405SOL    HW261113   7.006   9.364   2.418
86406SOL     OW61114  10.684   5.142   6.512
86406SOL    HW161115  10.623   5.153   6.438
86406SOL    HW261116  10.758   5.094   6.475
86407SOL     OW61117  14.102   0.440   5.187
86407SOL    HW161118  14.102   0.530   5.219
86407SOL    HW261119  14.191   0.409   5.200
86408SOL     OW61120   3.486   7.189   6.611
86408SOL    HW161121   3.534   7.270   6.631
86408SOL    HW261122   3.496   7.178   6.517
86409SOL     OW61123   9.688   5.370   2.877
86409SOL    HW161124   9.743   5.444   2.901
86409SOL    HW261125   9.622   5.366   2.946
86410SOL     OW61126  11.657   6.342   8.417
86410SOL    HW161127  11.635   6.375   8.504
86410SOL    HW261128  11.618   6.254   8.414
86411SOL     OW61129  13.363   0.078  13.484
86411SOL    HW161130  13.402   0.011  13.428
86411SOL    HW261131  13.405   0.160  13.456
86412SOL     OW61132  12.904   5.382   3.751
86412SOL    HW161133  12.815   5.406   3.778
86412SOL    HW261134  12.915   5.424   3.665
86413SOL     OW61135   0.963   4.744  10.093
86413SOL    HW161136   0.883   4.693  10.082
86413SOL    HW261137   0.955   4.815  10.030
86414SOL     OW61138   8.715   5.297   5.693
86414SOL    HW161139   8.689   5.280   5.783
86414SOL    HW261140   8.807   5.274   5.689
86415SOL     OW61141   3.927   6.516  14.383
86415SOL    HW161142   3.907   6.586  14.446
86415SOL    HW261143   3.913   6.557  14.297
86416SOL     OW61144  11.735  14.642   0.966
86416SOL    HW161145  11.707  14.644   0.875
86416SOL    HW261146  11.671  14.586   1.010
86417SOL     OW61147   1.425   5.723  14.316
86417SOL    HW161148   1.468   5.657  14.261
86417SOL    HW261149   1.411   5.797  14.258
86418SOL     OW61150   9.184   4.095   3.101
86418SOL    HW161151   9.153   4.017   3.055
86418SOL    HW261152   9.178   4.072   3.194
86419SOL     OW61153   2.395  11.734  12.228
86419SOL    HW161154   2.361  11.711  12.314
86419SOL    HW261155   2.480  11.691  12.223
86420SOL     OW61156   7.437   3.668  14.006
86420SOL    HW161157   7.364   3.720  14.038
86420SOL    HW261158   7.512   3.728  14.009
86421SOL     OW61159  12.512  11.565   6.753
86421SOL    HW161160  12.465  11.645   6.733
86421SOL    HW261161  12.555  11.582   6.837
86422SOL     OW61162   6.960  12.758   3.371
86422SOL    HW161163   6.996  12.753   3.282
86422SOL    HW261164   6.870  12.787   3.359
86423SOL     OW61165   2.810   2.094   4.921
86423SOL    HW161166   2.863   2.170   4.897
86423SOL    HW261167   2.722   2.115   4.890
86424SOL     OW61168   0.377   5.529   9.861
86424SOL    HW161169   0.286   5.555   9.879
86424SOL    HW261170   0.371   5.474   9.783
86425SOL     OW61171   3.368  12.103   8.121
86425SOL    HW161172   3.449  12.057   8.099
86425SOL    HW261173   3.311  12.090   8.045
86426SOL     OW61174  14.730   1.826   6.287
86426SOL    HW161175  14.768   1.857   6.369
86426SOL    HW261176  14.638   1.854   6.290
86427SOL     OW61177   5.345   7.009   0.572
86427SOL    HW161178   5.410   7.075   0.596
86427SOL    HW261179   5.394   6.926   0.574
86428SOL     OW61180   3.580   5.101  11.112
86428SOL    HW161181   3.630   5.034  11.065
86428SOL    HW261182   3.647   5.155  11.154
86429SOL     OW61183   7.212  11.988  12.014
86429SOL    HW161184   7.258  11.940  11.945
86429SOL    HW261185   7.209  12.078  11.983
86430SOL     OW61186   7.535   3.385  14.367
86430SOL    HW161187   7.595   3.356  14.298
86430SOL    HW261188   7.497   3.305  14.402
86431SOL     OW61189  10.151  14.408   7.249
86431SOL    HW161190  10.126  14.492   7.287
86431SOL    HW261191  10.149  14.422   7.155
86432SOL     OW61192   7.561   4.832   2.605
86432SOL    HW161193   7.613   4.912   2.595
86432SOL    HW261194   7.473   4.863   2.625
86433SOL     OW61195  12.620  12.128   3.924
86433SOL    HW161196  12.593  12.152   3.835
86433SOL    HW261197  12.715  12.139   3.924
86434SOL     OW61198   8.949  13.106   4.198
86434SOL    HW161199   8.861  13.112   4.236
86434SOL    HW261200   9.003  13.070   4.268
86435SOL     OW61201   0.100   5.762   1.666
86435SOL    HW161202   0.170   5.813   1.627
86435SOL    HW261203   0.021   5.789   1.619
86436SOL     OW61204   4.945   4.365   6.417
86436SOL    HW161205   5.003   4.296   6.382
86436SOL    HW261206   4.975   4.378   6.507
86437SOL     OW61207   4.012  14.568   5.500
86437SOL    HW161208   4.016  14.527   5.586
86437SOL    HW261209   3.921  14.596   5.491
86438SOL     OW61210   1.813   2.679   2.020
86438SOL    HW161211   1.898   2.718   2.041
86438SOL    HW261212   1.798   2.703   1.929
86439SOL     OW61213   6.760   6.039   4.586
86439SOL    HW161214   6.838   5.995   4.553
86439SOL    HW261215   6.792   6.125   4.614
86440SOL     OW61216   5.992   0.544   0.418
86440SOL    HW161217   5.955   0.539   0.330
86440SOL    HW261218   6.066   0.604   0.409
86441SOL     OW61219   5.524   4.670  14.874
86441SOL    HW161220   5.430   4.663  14.856
86441SOL    HW261221   5.529   4.726   0.077
86442SOL     OW61222   9.739   6.779   2.838
86442SOL    HW161223   9.670   6.843   2.821
86442SOL    HW261224   9.693   6.696   2.851
86443SOL     OW61225  11.060   6.143   7.428
86443SOL    HW161226  11.077   6.066   7.373
86443SOL    HW261227  11.028   6.106   7.510
86444SOL     OW61228   8.285  11.316   7.952
86444SOL    HW161229   8.245  11.317   7.865
86444SOL    HW261230   8.312  11.225   7.964
86445SOL     OW61231   9.369  12.605   3.562
86445SOL    HW161232   9.322  12.672   3.611
86445SOL    HW261233   9.429  12.654   3.506
86446SOL     OW61234  12.778   3.890  13.898
86446SOL    HW161235  12.771   3.952  13.825
86446SOL    HW261236  12.757   3.805  13.859
86447SOL     OW61237   0.452   7.989   0.760
86447SOL    HW161238   0.476   8.063   0.815
86447SOL    HW261239   0.428   8.028   0.676
86448SOL     OW61240   1.479   1.645   6.052
86448SOL    HW161241   1.535   1.574   6.022
86448SOL    HW261242   1.509   1.722   6.003
86449SOL     OW61243   4.626  14.359  11.123
86449SOL    HW161244   4.616  14.332  11.214
86449SOL    HW261245   4.694  14.427  11.126
86450SOL     OW61246   9.215   2.544  12.548
86450SOL    HW161247   9.137   2.541  12.493
86450SOL    HW261248   9.236   2.637  12.555
86451SOL     OW61249   3.779   4.185   2.346
86451SOL    HW161250   3.720   4.140   2.407
86451SOL    HW261251   3.734   4.267   2.325
86452SOL     OW61252   3.890   3.648  11.181
86452SOL    HW161253   3.949   3.658  11.106
86452SOL    HW261254   3.881   3.554  11.192
86453SOL     OW61255  10.709   0.466   1.948
86453SOL    HW161256  10.693   0.494   1.858
86453SOL    HW261257  10.639   0.507   1.999
86454SOL     OW61258   0.515  14.475   6.109
86454SOL    HW161259   0.457  14.449   6.180
86454SOL    HW261260   0.594  14.422   6.120
86455SOL     OW61261   6.282   3.260   4.608
86455SOL    HW161262   6.376   3.274   4.614
86455SOL    HW261263   6.272   3.185   4.549
86456SOL     OW61264  11.823   5.004   0.816
86456SOL    HW161265  11.880   5.069   0.774
86456SOL    HW261266  11.744   5.002   0.760
86457SOL     OW61267  10.215   7.568  10.009
86457SOL    HW161268  10.269   7.499   9.971
86457SOL    HW261269  10.261   7.593  10.089
86458SOL     OW61270  11.797   2.509   0.663
86458SOL    HW161271  11.765   2.472   0.745
86458SOL    HW261272  11.869   2.452   0.637
86459SOL     OW61273  14.750   2.882   0.559
86459SOL    HW161274  14.756   2.947   0.489
86459SOL    HW261275  14.839   2.880   0.596
86460SOL     OW61276   9.336   5.591   6.524
86460SOL    HW161277   9.251   5.566   6.562
86460SOL    HW261278   9.360   5.671   6.571
86461SOL     OW61279   5.169   5.138   6.229
86461SOL    HW161280   5.136   5.171   6.146
86461SOL    HW261281   5.243   5.082   6.204
86462SOL     OW61282   0.193   4.415   7.740
86462SOL    HW161283   0.118   4.433   7.683
86462SOL    HW261284   0.198   4.492   7.797
86463SOL     OW61285   6.766   0.779   3.941
86463SOL    HW161286   6.795   0.767   4.032
86463SOL    HW261287   6.816   0.715   3.891
86464SOL     OW61288   4.112   8.121   6.129
86464SOL    HW161289   4.074   8.192   6.181
86464SOL    HW261290   4.080   8.041   6.171
86465SOL     OW61291   7.692   3.725  13.879
86465SOL    HW161292   7.684   3.819  13.866
86465SOL    HW261293   7.731   3.692  13.798
86466SOL     OW61294   2.290   3.546   4.456
86466SOL    HW161295   2.239   3.607   4.509
86466SOL    HW261296   2.224   3.500   4.403
86467SOL     OW61297  10.579   1.284   0.069
86467SOL    HW161298  10.509   1.327   0.019
86467SOL    HW261299  10.627   1.357   0.110
86468SOL     OW61300   0.825   1.677   3.518
86468SOL    HW161301   0.865   1.613   3.576
86468SOL    HW261302   0.890   1.747   3.511
86469SOL     OW61303  11.416   4.670   7.728
86469SOL    HW161304  11.448   4.583   7.753
86469SOL    HW261305  11.493   4.714   7.692
86470SOL     OW61306  13.458   7.326   1.813
86470SOL    HW161307  13.444   7.393   1.745
86470SOL    HW261308  13.521   7.366   1.873
86471SOL     OW61309   3.530   1.878  12.440
86471SOL    HW161310   3.592   1.812  12.470
86471SOL    HW261311   3.584   1.948  12.404
86472SOL     OW61312  14.025   2.288   7.943
86472SOL    HW161313  14.107   2.238   7.943
86472SOL    HW261314  13.958   2.223   7.921
86473SOL     OW61315   5.156   2.297   6.344
86473SOL    HW161316   5.194   2.210   6.330
86473SOL    HW261317   5.191   2.350   6.273
86474SOL     OW61318   2.338  13.423   3.579
86474SOL    HW161319   2.421  13.468   3.559
86474SOL    HW261320   2.361  13.330   3.580
86475SOL     OW61321   3.603   9.566  14.550
86475SOL    HW161322   3.680   9.618  14.572
86475SOL    HW261323   3.627   9.518  14.471
86476SOL     OW61324  13.990   4.549  14.131
86476SOL    HW161325  13.925   4.584  14.192
86476SOL    HW261326  14.067   4.531  14.185
86477SOL     OW61327  11.170  13.629   2.953
86477SOL    HW161328  11.101  13.695   2.946
86477SOL    HW261329  11.156  13.572   2.877
86478SOL     OW61330   6.205   8.624   7.301
86478SOL    HW161331   6.223   8.716   7.282
86478SOL    HW261332   6.185   8.622   7.395
86479SOL     OW61333  11.242   6.616  12.704
86479SOL    HW161334  11.153   6.612  12.741
86479SOL    HW261335  11.229   6.627  12.610
86480SOL     OW61336  13.887   8.655   5.234
86480SOL    HW161337  13.869   8.742   5.270
86480SOL    HW261338  13.815   8.601   5.266
86481SOL     OW61339   9.473   8.784  10.511
86481SOL    HW161340   9.533   8.714  10.537
86481SOL    HW261341   9.492   8.799  10.418
86482SOL     OW61342  13.276  12.767   9.738
86482SOL    HW161343  13.256  12.674   9.749
86482SOL    HW261344  13.361  12.778   9.780
86483SOL     OW61345  13.849   0.238  11.209
86483SOL    HW161346  13.909   0.306  11.241
86483SOL    HW261347  13.820   0.270  11.124
86484SOL     OW61348  10.226   7.989   2.987
86484SOL    HW161349  10.207   8.077   2.953
86484SOL    HW261350  10.299   7.958   2.933
86485SOL     OW61351  11.571  13.452   9.030
86485SOL    HW161352  11.524  13.425   8.951
86485SOL    HW261353  11.583  13.546   9.020
86486SOL     OW61354   2.011  11.222  10.035
86486SOL    HW161355   2.068  11.194  10.107
86486SOL    HW261356   1.984  11.310  10.059
86487SOL     OW61357  13.593   4.959   6.284
86487SOL    HW161358  13.572   4.880   6.234
86487SOL    HW261359  13.543   4.949   6.365
86488SOL     OW61360   7.340   0.139   3.893
86488SOL    HW161361   7.427   0.143   3.853
86488SOL    HW261362   7.329   0.047   3.917
86489SOL     OW61363   5.272  13.707  14.081
86489SOL    HW161364   5.309  13.787  14.119
86489SOL    HW261365   5.304  13.636  14.136
86490SOL     OW61366  13.090   0.075   9.200
86490SOL    HW161367  13.145   0.029   9.264
86490SOL    HW261368  13.001   0.051   9.224
86491SOL     OW61369   7.422   2.770   1.392
86491SOL    HW161370   7.363   2.844   1.409
86491SOL    HW261371   7.416   2.716   1.471
86492SOL     OW61372  11.689   5.106   1.841
86492SOL    HW161373  11.711   5.150   1.759
86492SOL    HW261374  11.635   5.169   1.889
86493SOL     OW61375   6.237   8.121   4.629
86493SOL    HW161376   6.218   8.204   4.584
86493SOL    HW261377   6.233   8.055   4.560
86494SOL     OW61378   3.124   0.999   4.547
86494SOL    HW161379   3.138   0.909   4.520
86494SOL    HW261380   3.146   1.051   4.469
86495SOL     OW61381   6.304  14.308   7.702
86495SOL    HW161382   6.294  14.379   7.764
86495SOL    HW261383   6.256  14.235   7.741
86496SOL     OW61384   3.971   2.485  14.799
86496SOL    HW161385   3.921   2.512  14.722
86496SOL    HW261386   3.973   2.563  14.855
86497SOL     OW61387   7.705   9.898  11.957
86497SOL    HW161388   7.635   9.879  12.019
86497SOL    HW261389   7.785   9.896  12.009
86498SOL     OW61390   1.483   4.692   3.609
86498SOL    HW161391   1.446   4.733   3.688
86498SOL    HW261392   1.502   4.765   3.551
86499SOL     OW61393   3.254   4.732   8.122
86499SOL    HW161394   3.323   4.743   8.057
86499SOL    HW261395   3.299   4.701   8.201
86500SOL     OW61396   5.982  14.104   4.072
86500SOL    HW161397   6.066  14.063   4.050
86500SOL    HW261398   5.995  14.139   4.160
86501SOL     OW61399   3.202   6.897   8.420
86501SOL    HW161400   3.183   6.907   8.514
86501SOL    HW261401   3.117   6.906   8.378
86502SOL     OW61402  14.400  14.443   0.536
86502SOL    HW161403  14.349  14.482   0.607
86502SOL    HW261404  14.335  14.425   0.467
86503SOL     OW61405   8.409   7.132   2.107
86503SOL    HW161406   8.351   7.184   2.052
86503SOL    HW261407   8.351   7.096   2.174
86504SOL     OW61408   9.303  12.162  14.093
86504SOL    HW161409   9.346  12.233  14.141
86504SOL    HW261410   9.209  12.180  14.104
86505SOL     OW61411   4.614   5.135   4.856
86505SOL    HW161412   4.686   5.104   4.910
86505SOL    HW261413   4.605   5.070   4.787
86506SOL     OW61414  12.468   3.227   9.716
86506SOL    HW161415  12.560   3.204   9.727
86506SOL    HW261416  12.437   3.245   9.805
86507SOL     OW61417   0.917   0.020  14.280
86507SOL    HW161418   0.841  14.867  14.227
86507SOL    HW261419   0.988  14.837  14.252
86508SOL     OW61420   7.789   7.478   2.584
86508SOL    HW161421   7.753   7.537   2.650
86508SOL    HW261422   7.856   7.530   2.540
86509SOL     OW61423  14.039   8.733  14.169
86509SOL    HW161424  14.030   8.662  14.106
86509SOL    HW261425  14.052   8.811  14.114
86510SOL     OW61426   3.085  10.633  12.566
86510SOL    HW161427   3.177  10.656  12.550
86510SOL    HW261428   3.089  10.562  12.629
86511SOL     OW61429   3.342   8.591   5.106
86511SOL    HW161430   3.407   8.648   5.145
86511SOL    HW261431   3.295   8.553   5.180
86512SOL     OW61432   5.061  12.039   1.804
86512SOL    HW161433   5.089  12.033   1.895
86512SOL    HW261434   5.074  11.951   1.769
86513SOL     OW61435   6.932   1.428   2.483
86513SOL    HW161436   6.927   1.334   2.497
86513SOL    HW261437   7.009   1.455   2.533
86514SOL     OW61438  14.079   6.251  10.067
86514SOL    HW161439  14.109   6.259  10.158
86514SOL    HW261440  13.997   6.204  10.073
86515SOL     OW61441   4.126  13.342   5.695
86515SOL    HW161442   4.042  13.381   5.717
86515SOL    HW261443   4.159  13.308   5.779
86516SOL     OW61444  12.547   9.201   2.257
86516SOL    HW161445  12.516   9.254   2.183
86516SOL    HW261446  12.639   9.228   2.267
86517SOL     OW61447  13.330   1.467  12.910
86517SOL    HW161448  13.313   1.385  12.864
86517SOL    HW261449  13.278   1.532  12.863
86518SOL     OW61450  14.119   0.527   4.689
86518SOL    HW161451  14.026   0.508   4.673
86518SOL    HW261452  14.141   0.596   4.626
86519SOL     OW61453  10.715   7.435   0.395
86519SOL    HW161454  10.743   7.396   0.478
86519SOL    HW261455  10.676   7.519   0.420
86520SOL     OW61456   4.406   9.030   7.093
86520SOL    HW161457   4.473   9.094   7.069
86520SOL    HW261458   4.398   8.974   7.015
86521SOL     OW61459  12.630   6.443   6.231
86521SOL    HW161460  12.650   6.388   6.155
86521SOL    HW261461  12.551   6.490   6.207
86522SOL     OW61462   2.404   7.441   5.548
86522SOL    HW161463   2.461   7.456   5.473
86522SOL    HW261464   2.367   7.527   5.567
86523SOL     OW61465   1.685   8.888   0.013
86523SOL    HW161466   1.645   8.806   0.042
86523SOL    HW261467   1.615   8.954   0.023
86524SOL     OW61468   8.416  13.499  13.180
86524SOL    HW161469   8.320  13.500  13.175
86524SOL    HW261470   8.437  13.415  13.220
86525SOL     OW61471  11.811  12.130   2.721
86525SOL    HW161472  11.797  12.128   2.815
86525SOL    HW261473  11.745  12.191   2.688
86526SOL     OW61474   3.692   3.036   1.522
86526SOL    HW161475   3.786   3.049   1.537
86526SOL    HW261476   3.682   3.039   1.427
86527SOL     OW61477   1.256  10.848   9.075
86527SOL    HW161478   1.345  10.881   9.076
86527SOL    HW261479   1.265  10.753   9.065
86528SOL     OW61480  13.913   9.305   4.454
86528SOL    HW161481  13.880   9.243   4.388
86528SOL    HW261482  13.995   9.337   4.417
86529SOL     OW61483  13.239   6.021   2.722
86529SOL    HW161484  13.242   6.033   2.816
86529SOL    HW261485  13.149   6.041   2.697
86530SOL     OW61486   3.271  13.754   0.442
86530SOL    HW161487   3.322  13.827   0.476
86530SOL    HW261488   3.322  13.720   0.370
86531SOL     OW61489  14.277   4.296   6.150
86531SOL    HW161490  14.213   4.342   6.205
86531SOL    HW261491  14.315   4.230   6.208
86532SOL     OW61492  11.464  13.508   1.278
86532SOL    HW161493  11.518  13.431   1.294
86532SOL    HW261494  11.523  13.572   1.239
86533SOL     OW61495   0.864   9.583  13.698
86533SOL    HW161496   0.808   9.634  13.757
86533SOL    HW261497   0.926   9.647  13.663
86534SOL     OW61498   1.902   7.759   8.272
86534SOL    HW161499   1.992   7.729   8.259
86534SOL    HW261500   1.911   7.840   8.322
86535SOL     OW61501  11.577   4.068  13.799
86535SOL    HW161502  11.633   4.125  13.852
86535SOL    HW261503  11.556   3.994  13.855
86536SOL     OW61504   5.272   7.304  14.410
86536SOL    HW161505   5.293   7.365  14.339
86536SOL    HW261506   5.192   7.260  14.380
86537SOL     OW61507  13.961   6.894   6.292
86537SOL    HW161508  14.017   6.947   6.235
86537SOL    HW261509  14.021   6.849   6.350
86538SOL     OW61510  11.291   1.227  10.944
86538SOL    HW161511  11.333   1.314  10.943
86538SOL    HW261512  11.332   1.183  11.018
86539SOL     OW61513   3.079   3.967   0.875
86539SOL    HW161514   3.166   3.978   0.836
86539SOL    HW261515   3.020   3.957   0.801
86540SOL     OW61516   4.976   5.259   8.296
86540SOL    HW161517   5.062   5.299   8.312
86540SOL    HW261518   4.913   5.322   8.331
86541SOL     OW61519  10.926   8.775   5.770
86541SOL    HW161520  10.970   8.772   5.685
86541SOL    HW261521  10.848   8.829   5.754
86542SOL     OW61522  10.795   2.679  12.404
86542SOL    HW161523  10.767   2.597  12.362
86542SOL    HW261524  10.728   2.695  12.471
86543SOL     OW61525   7.592   6.420   9.225
86543SOL    HW161526   7.546   6.484   9.279
86543SOL    HW261527   7.685   6.441   9.237
86544SOL     OW61528   9.796   8.177   5.582
86544SOL    HW161529   9.809   8.178   5.676
86544SOL    HW261530   9.883   8.156   5.546
86545SOL     OW61531   1.353   4.847   6.376
86545SOL    HW161532   1.307   4.903   6.314
86545SOL    HW261533   1.304   4.858   6.458
86546SOL     OW61534  14.616   5.314   5.602
86546SOL    HW161535  14.587   5.224   5.586
86546SOL    HW261536  14.646   5.346   5.517
86547SOL     OW61537   0.650  13.265   6.770
86547SOL    HW161538   0.708  13.285   6.843
86547SOL    HW261539   0.710  13.236   6.700
86548SOL     OW61540   0.901   1.499   6.679
86548SOL    HW161541   0.846   1.494   6.600
86548SOL    HW261542   0.864   1.435   6.739
86549SOL     OW61543   3.855   0.709   8.714
86549SOL    HW161544   3.899   0.790   8.687
86549SOL    HW261545   3.790   0.737   8.778
86550SOL     OW61546  13.604   8.577   3.976
86550SOL    HW161547  13.566   8.494   3.946
86550SOL    HW261548  13.677   8.551   4.032
86551SOL     OW61549   4.978   1.081   0.438
86551SOL    HW161550   5.055   1.027   0.456
86551SOL    HW261551   4.959   1.066   0.345
86552SOL     OW61552   9.253  10.780   8.248
86552SOL    HW161553   9.246  10.822   8.333
86552SOL    HW261554   9.163  10.776   8.215
86553SOL     OW61555   2.570   3.864   3.448
86553SOL    HW161556   2.658   3.845   3.479
86553SOL    HW261557   2.583   3.923   3.373
86554SOL     OW61558  12.159   2.952  10.859
86554SOL    HW161559  12.203   2.963  10.774
86554SOL    HW261560  12.111   3.034  10.872
86555SOL     OW61561   8.381  11.036   6.956
86555SOL    HW161562   8.442  10.965   6.939
86555SOL    HW261563   8.296  11.001   6.930
86556SOL     OW61564  14.874  13.694   4.046
86556SOL    HW161565  14.860  13.654   4.132
86556SOL    HW261566  14.793  13.742   4.028
86557SOL     OW61567  12.245   1.508  10.683
86557SOL    HW161568  12.287   1.514  10.597
86557SOL    HW261569  12.225   1.415  10.693
86558SOL     OW61570   7.102  13.194   9.439
86558SOL    HW161571   7.186  13.226   9.472
86558SOL    HW261572   7.082  13.119   9.495
86559SOL     OW61573   9.704   3.682   3.628
86559SOL    HW161574   9.749   3.613   3.677
86559SOL    HW261575   9.619   3.643   3.606
86560SOL     OW61576  10.646   4.286   1.707
86560SOL    HW161577  10.615   4.197   1.723
86560SOL    HW261578  10.583   4.342   1.753
86561SOL     OW61579  11.869   3.853   7.677
86561SOL    HW161580  11.885   3.786   7.743
86561SOL    HW261581  11.850   3.804   7.597
86562SOL     OW61582  12.544   9.689   8.807
86562SOL    HW161583  12.463   9.672   8.758
86562SOL    HW261584  12.536   9.635   8.885
86563SOL     OW61585  13.026   6.814   7.351
86563SOL    HW161586  13.096   6.868   7.314
86563SOL    HW261587  12.981   6.777   7.275
86564SOL     OW61588   7.788   4.401  13.622
86564SOL    HW161589   7.803   4.479  13.676
86564SOL    HW261590   7.716   4.425  13.563
86565SOL     OW61591  10.136  10.484   6.388
86565SOL    HW161592  10.190  10.405   6.390
86565SOL    HW261593  10.196  10.554   6.362
86566SOL     OW61594   8.247   4.381   1.696
86566SOL    HW161595   8.222   4.405   1.606
86566SOL    HW261596   8.193   4.305   1.716
86567SOL     OW61597   9.143  13.223   9.835
86567SOL    HW161598   9.150  13.147   9.893
86567SOL    HW261599   9.218  13.277   9.857
86568SOL     OW61600  13.399   5.654   6.984
86568SOL    HW161601  13.340   5.599   6.933
86568SOL    HW261602  13.485   5.615   6.972
86569SOL     OW61603   8.548   3.521   3.579
86569SOL    HW161604   8.632   3.490   3.545
86569SOL    HW261605   8.541   3.611   3.548
86570SOL     OW61606   8.461   1.345   7.538
86570SOL    HW161607   8.378   1.390   7.519
86570SOL    HW261608   8.506   1.340   7.454
86571SOL     OW61609   4.751  12.272  10.722
86571SOL    HW161610   4.719  12.200  10.777
86571SOL    HW261611   4.745  12.238  10.633
86572SOL     OW61612   2.707   6.434   9.766
86572SOL    HW161613   2.665   6.365   9.714
86572SOL    HW261614   2.783   6.391   9.806
86573SOL     OW61615   4.600   4.891   4.063
86573SOL    HW161616   4.657   4.815   4.071
86573SOL    HW261617   4.615   4.941   4.144
86574SOL     OW61618  12.145   7.915   1.300
86574SOL    HW161619  12.107   7.829   1.286
86574SOL    HW261620  12.073   7.967   1.337
86575SOL     OW61621   3.877   5.228   8.769
86575SOL    HW161622   3.804   5.276   8.809
86575SOL    HW261623   3.847   5.138   8.763
86576SOL     OW61624  11.719   4.655   6.163
86576SOL    HW161625  11.662   4.579   6.156
86576SOL    HW261626  11.800   4.622   6.202
86577SOL     OW61627   5.498  12.190  14.623
86577SOL    HW161628   5.576  12.246  14.620
86577SOL    HW261629   5.510  12.128  14.551
86578SOL     OW61630   3.070   1.011   8.610
86578SOL    HW161631   2.981   1.024   8.578
86578SOL    HW261632   3.126   1.032   8.535
86579SOL     OW61633   8.446  14.217   4.902
86579SOL    HW161634   8.394  14.203   4.981
86579SOL    HW261635   8.529  14.252   4.934
86580SOL     OW61636   1.922  14.693   6.694
86580SOL    HW161637   1.879  14.655   6.771
86580SOL    HW261638   1.850  14.726   6.640
86581SOL     OW61639   1.666   6.701   4.679
86581SOL    HW161640   1.745   6.721   4.729
86581SOL    HW261641   1.685   6.734   4.591
86582SOL     OW61642   2.020   9.084   6.203
86582SOL    HW161643   1.939   9.129   6.179
86582SOL    HW261644   2.077   9.096   6.127
86583SOL     OW61645   2.647   6.532  14.094
86583SOL    HW161646   2.568   6.583  14.108
86583SOL    HW261647   2.640   6.503  14.003
86584SOL     OW61648   1.689   8.488  12.330
86584SOL    HW161649   1.642   8.439  12.397
86584SOL    HW261650   1.770   8.440  12.316
86585SOL     OW61651  12.804   7.463   3.411
86585SOL    HW161652  12.723   7.448   3.363
86585SOL    HW261653  12.873   7.458   3.345
86586SOL     OW61654   4.050   4.999  13.948
86586SOL    HW161655   4.023   4.913  13.980
86586SOL    HW261656   3.973   5.055  13.961
86587SOL     OW61657   5.632  11.347   2.339
86587SOL    HW161658   5.715  11.392   2.325
86587SOL    HW261659   5.649  11.286   2.410
86588SOL     OW61660   2.703   1.627   5.855
86588SOL    HW161661   2.622   1.619   5.905
86588SOL    HW261662   2.747   1.543   5.867
86589SOL     OW61663   3.959  11.596  14.089
86589SOL    HW161664   4.031  11.535  14.070
86589SOL    HW261665   3.999  11.662  14.146
86590SOL     OW61666   2.190   0.946   8.135
86590SOL    HW161667   2.103   0.918   8.161
86590SOL    HW261668   2.178   0.983   8.047
86591SOL     OW61669   7.798  10.830   4.945
86591SOL    HW161670   7.813  10.923   4.925
86591SOL    HW261671   7.870  10.785   4.900
86592SOL     OW61672   1.143   3.757   9.783
86592SOL    HW161673   1.169   3.722   9.698
86592SOL    HW261674   1.185   3.699   9.847
86593SOL     OW61675   8.733  12.975   9.329
86593SOL    HW161676   8.752  13.068   9.312
86593SOL    HW261677   8.818  12.937   9.350
86594SOL     OW61678   2.093  11.694   5.295
86594SOL    HW161679   2.004  11.659   5.302
86594SOL    HW261680   2.092  11.744   5.213
86595SOL     OW61681   2.126  11.880   0.918
86595SOL    HW161682   2.092  11.803   0.963
86595SOL    HW261683   2.087  11.954   0.964
86596SOL     OW61684   5.274   3.472   4.984
86596SOL    HW161685   5.278   3.567   4.978
86596SOL    HW261686   5.215   3.455   5.057
86597SOL     OW61687   9.861   2.229   2.229
86597SOL    HW161688   9.834   2.196   2.144
86597SOL    HW261689   9.785   2.278   2.261
86598SOL     OW61690  10.831  12.022   1.680
86598SOL    HW161691  10.783  11.960   1.735
86598SOL    HW261692  10.865  11.969   1.608
86599SOL     OW61693  10.148   8.491   4.490
86599SOL    HW161694  10.222   8.466   4.434
86599SOL    HW261695  10.177   8.470   4.579
86600SOL     OW61696   5.376  11.160   3.527
86600SOL    HW161697   5.283  11.182   3.529
86600SOL    HW261698   5.379  11.075   3.483
86601SOL     OW61699  13.256   7.797   8.074
86601SOL    HW161700  13.347   7.812   8.099
86601SOL    HW261701  13.219   7.885   8.065
86602SOL     OW61702   0.285  10.025   2.193
86602SOL    HW161703   0.214  10.034   2.129
86602SOL    HW261704   0.278  10.102   2.249
86603SOL     OW61705   1.572   5.724   7.325
86603SOL    HW161706   1.631   5.790   7.361
86603SOL    HW261707   1.494   5.774   7.298
86604SOL     OW61708   3.915   0.486  10.168
86604SOL    HW161709   3.825   0.459  10.152
86604SOL    HW261710   3.942   0.437  10.246
86605SOL     OW61711   1.489   9.534   8.905
86605SOL    HW161712   1.509   9.620   8.942
86605SOL    HW261713   1.527   9.472   8.966
86606SOL     OW61714   9.593  13.895  12.369
86606SOL    HW161715   9.639  13.842  12.434
86606SOL    HW261716   9.597  13.843  12.288
86607SOL     OW61717  12.357   2.187   0.658
86607SOL    HW161718  12.295   2.164   0.588
86607SOL    HW261719  12.305   2.237   0.721
86608SOL     OW61720   6.813   4.632   3.251
86608SOL    HW161721   6.829   4.718   3.211
86608SOL    HW261722   6.897   4.609   3.291
86609SOL     OW61723   8.377  11.565   6.285
86609SOL    HW161724   8.360  11.580   6.378
86609SOL    HW261725   8.459  11.611   6.268
86610SOL     OW61726   1.976   1.676   7.999
86610SOL    HW161727   1.997   1.748   8.059
86610SOL    HW261728   1.880   1.676   7.994
86611SOL     OW61729   8.765   1.183   4.263
86611SOL    HW161730   8.809   1.098   4.264
86611SOL    HW261731   8.758   1.207   4.356
86612SOL     OW61732  10.002   2.118   4.223
86612SOL    HW161733  10.011   2.180   4.296
86612SOL    HW261734  10.086   2.123   4.177
86613SOL     OW61735  13.795  10.675  11.875
86613SOL    HW161736  13.727  10.608  11.877
86613SOL    HW261737  13.775  10.728  11.798
86614SOL     OW61738   2.688   2.553   3.068
86614SOL    HW161739   2.688   2.649   3.072
86614SOL    HW261740   2.769   2.531   3.020
86615SOL     OW61741   0.819   6.486   5.963
86615SOL    HW161742   0.906   6.489   6.004
86615SOL    HW261743   0.817   6.562   5.906
86616SOL     OW61744   1.261   0.495  10.143
86616SOL    HW161745   1.222   0.520  10.060
86616SOL    HW261746   1.187   0.467  10.197
86617SOL     OW61747  11.378  14.636   1.889
86617SOL    HW161748  11.334  14.564   1.935
86617SOL    HW261749  11.427  14.681   1.958
86618SOL     OW61750   4.965   0.186  11.846
86618SOL    HW161751   4.930   0.102  11.816
86618SOL    HW261752   4.987   0.171  11.938
86619SOL     OW61753  10.328   3.819  10.290
86619SOL    HW161754  10.351   3.777  10.373
86619SOL    HW261755  10.408   3.812  10.237
86620SOL     OW61756  12.695  12.149   7.856
86620SOL    HW161757  12.731  12.169   7.943
86620SOL    HW261758  12.689  12.053   7.854
86621SOL     OW61759   0.299  10.326  14.075
86621SOL    HW161760   0.308  10.298  13.984
86621SOL    HW261761   0.205  10.338  14.087
86622SOL     OW61762  13.860  12.112  12.065
86622SOL    HW161763  13.819  12.087  12.147
86622SOL    HW261764  13.879  12.205  12.075
86623SOL     OW61765   0.938   8.481   7.866
86623SOL    HW161766   0.950   8.396   7.824
86623SOL    HW261767   0.867   8.467   7.929
86624SOL     OW61768   2.070  12.751  10.141
86624SOL    HW161769   2.126  12.755  10.064
86624SOL    HW261770   1.986  12.787  10.111
86625SOL     OW61771   7.637  14.341   5.673
86625SOL    HW161772   7.613  14.249   5.672
86625SOL    HW261773   7.649  14.364   5.581
86626SOL     OW61774  11.445  11.074   4.742
86626SOL    HW161775  11.425  11.116   4.659
86626SOL    HW261776  11.540  11.062   4.741
86627SOL     OW61777  10.152   9.722   9.991
86627SOL    HW161778  10.156   9.654   9.923
86627SOL    HW261779  10.218   9.695  10.055
86628SOL     OW61780  14.800   1.990   1.837
86628SOL    HW161781  14.793   2.073   1.790
86628SOL    HW261782  14.799   1.924   1.768
86629SOL     OW61783   4.129   6.611   7.826
86629SOL    HW161784   4.077   6.534   7.848
86629SOL    HW261785   4.195   6.579   7.765
86630SOL     OW61786   0.544   9.520  14.780
86630SOL    HW161787   0.587   9.488  14.700
86630SOL    HW261788   0.543   9.444  14.838
86631SOL     OW61789   2.103  11.884  11.664
86631SOL    HW161790   2.073  11.841  11.584
86631SOL    HW261791   2.052  11.965  11.668
86632SOL     OW61792   9.933  10.275   0.095
86632SOL    HW161793   9.991  10.302   0.166
86632SOL    HW261794   9.962  10.328   0.020
86633SOL     OW61795   5.255   3.095  13.234
86633SOL    HW161796   5.278   3.125  13.146
86633SOL    HW261797   5.313   3.144  13.292
86634SOL     OW61798   7.609   7.277   7.044
86634SOL    HW161799   7.545   7.236   6.985
86634SOL    HW261800   7.658   7.338   6.988
86635SOL     OW61801   5.529  13.572   2.432
86635SOL    HW161802   5.609  13.574   2.379
86635SOL    HW261803   5.477  13.501   2.394
86636SOL     OW61804  12.322   4.147   9.950
86636SOL    HW161805  12.298   4.129  10.040
86636SOL    HW261806  12.315   4.062   9.906
86637SOL     OW61807   8.723   0.481   4.400
86637SOL    HW161808   8.708   0.534   4.479
86637SOL    HW261809   8.763   0.542   4.338
86638SOL     OW61810   0.523   3.127  14.462
86638SOL    HW161811   0.519   3.106  14.369
86638SOL    HW261812   0.616   3.138  14.480
86639SOL     OW61813   8.463   2.902   7.339
86639SOL    HW161814   8.437   2.882   7.249
86639SOL    HW261815   8.546   2.949   7.330
86640SOL     OW61816   5.255   7.364   8.477
86640SOL    HW161817   5.180   7.384   8.533
86640SOL    HW261818   5.330   7.365   8.536
86641SOL     OW61819   6.789  12.577  14.316
86641SOL    HW161820   6.732  12.502  14.298
86641SOL    HW261821   6.806  12.614  14.229
86642SOL     OW61822  12.657  10.524   7.371
86642SOL    HW161823  12.665  10.467   7.447
86642SOL    HW261824  12.564  10.526   7.352
86643SOL     OW61825   4.446  12.803   0.278
86643SOL    HW161826   4.371  12.784   0.334
86643SOL    HW261827   4.440  12.898   0.262
86644SOL     OW61828   6.223   7.182  14.353
86644SOL    HW161829   6.249   7.092  14.336
86644SOL    HW261830   6.305   7.230  14.361
86645SOL     OW61831   2.747  12.243   3.864
86645SOL    HW161832   2.686  12.284   3.925
86645SOL    HW261833   2.804  12.314   3.835
86646SOL     OW61834   8.305   0.135   2.441
86646SOL    HW161835   8.367   0.103   2.377
86646SOL    HW261836   8.342   0.110   2.526
86647SOL     OW61837  11.224  14.003   2.719
86647SOL    HW161838  11.137  13.966   2.706
86647SOL    HW261839  11.277  13.966   2.648
86648SOL     OW61840   3.248  14.807   7.606
86648SOL    HW161841   3.274   0.001   7.668
86648SOL    HW261842   3.181  14.757   7.652
86649SOL     OW61843  10.468   6.688   2.738
86649SOL    HW161844  10.468   6.593   2.750
86649SOL    HW261845  10.379   6.714   2.760
86650SOL     OW61846   7.027   0.686   7.388
86650SOL    HW161847   6.985   0.676   7.302
86650SOL    HW261848   7.121   0.685   7.370
86651SOL     OW61849   4.472  14.631  14.852
86651SOL    HW161850   4.386  14.621  14.812
86651SOL    HW261851   4.453  14.665   0.065
86652SOL     OW61852  12.822   2.321   4.553
86652SOL    HW161853  12.753   2.327   4.486
86652SOL    HW261854  12.854   2.411   4.562
86653SOL     OW61855   4.382   5.910   5.412
86653SOL    HW161856   4.394   5.988   5.466
86653SOL    HW261857   4.315   5.860   5.458
86654SOL     OW61858   6.003  13.389  10.142
86654SOL    HW161859   6.020  13.415  10.233
86654SOL    HW261860   6.025  13.296  10.139
86655SOL     OW61861   4.537   4.575  10.037
86655SOL    HW161862   4.461   4.578   9.979
86655SOL    HW261863   4.596   4.510   9.998
86656SOL     OW61864   3.551  12.056  11.509
86656SOL    HW161865   3.551  12.126  11.575
86656SOL    HW261866   3.480  11.997  11.537
86657SOL     OW61867   9.479   2.590   5.964
86657SOL    HW161868   9.412   2.630   5.909
86657SOL    HW261869   9.468   2.631   6.050
86658SOL     OW61870   1.675   1.316   0.480
86658SOL    HW161871   1.620   1.270   0.417
86658SOL    HW261872   1.615   1.345   0.548
86659SOL     OW61873   9.127  13.929   2.066
86659SOL    HW161874   9.045  13.909   2.111
86659SOL    HW261875   9.106  14.004   2.011
86660SOL     OW61876   7.195  11.623  10.282
86660SOL    HW161877   7.156  11.562  10.219
86660SOL    HW261878   7.152  11.706  10.265
86661SOL     OW61879   8.304   2.853   3.456
86661SOL    HW161880   8.254   2.847   3.375
86661SOL    HW261881   8.382   2.902   3.433
86662SOL     OW61882   9.670   0.053   2.976
86662SOL    HW161883   9.590   0.022   3.019
86662SOL    HW261884   9.705   0.119   3.036
86663SOL     OW61885   5.679   3.374   7.317
86663SOL    HW161886   5.700   3.381   7.410
86663SOL    HW261887   5.609   3.438   7.304
86664SOL     OW61888  13.533   7.824   3.302
86664SOL    HW161889  13.616   7.832   3.255
86664SOL    HW261890  13.525   7.905   3.352
86665SOL     OW61891   9.420  13.035  14.193
86665SOL    HW161892   9.455  13.080  14.270
86665SOL    HW261893   9.493  13.031  14.131
86666SOL     OW61894   7.413   6.947  11.712
86666SOL    HW161895   7.330   6.963  11.755
86666SOL    HW261896   7.396   6.875  11.651
86667SOL     OW61897  10.842  10.024   5.690
86667SOL    HW161898  10.868  10.114   5.709
86667SOL    HW261899  10.787  10.031   5.612
86668SOL     OW61900   2.773   0.717  12.360
86668SOL    HW161901   2.746   0.798  12.318
86668SOL    HW261902   2.807   0.663  12.288
86669SOL     OW61903   8.280  14.708   3.633
86669SOL    HW161904   8.284  14.695   3.728
86669SOL    HW261905   8.192  14.677   3.609
86670SOL     OW61906   6.605  12.118   4.011
86670SOL    HW161907   6.632  12.195   3.962
86670SOL    HW261908   6.680  12.058   4.005
86671SOL     OW61909  11.293  13.495  11.864
86671SOL    HW161910  11.364  13.560  11.867
86671SOL    HW261911  11.322  13.431  11.799
86672SOL     OW61912   8.212  10.520   5.532
86672SOL    HW161913   8.241  10.458   5.465
86672SOL    HW261914   8.118  10.526   5.521
86673SOL     OW61915  13.344   6.470   8.226
86673SOL    HW161916  13.429   6.479   8.184
86673SOL    HW261917  13.363   6.432   8.312
86674SOL     OW61918   0.830   1.905   8.053
86674SOL    HW161919   0.900   1.840   8.045
86674SOL    HW261920   0.795   1.914   7.964
86675SOL     OW61921   9.968   5.409   6.136
86675SOL    HW161922   9.890   5.436   6.184
86675SOL    HW261923   9.964   5.458   6.054
86676SOL     OW61924   5.446  11.733   7.322
86676SOL    HW161925   5.499  11.709   7.246
86676SOL    HW261926   5.367  11.679   7.313
86677SOL     OW61927   9.370   5.520  10.998
86677SOL    HW161928   9.399   5.536  10.908
86677SOL    HW261929   9.308   5.448  10.991
86678SOL     OW61930   4.537  11.012  14.649
86678SOL    HW161931   4.598  11.025  14.577
86678SOL    HW261932   4.593  11.006  14.727
86679SOL     OW61933  13.396   0.653   9.639
86679SOL    HW161934  13.488   0.626   9.635
86679SOL    HW261935  13.366   0.625   9.725
86680SOL     OW61936  14.670   9.161   1.064
86680SOL    HW161937  14.576   9.143   1.056
86680SOL    HW261938  14.682   9.191   1.154
86681SOL     OW61939  12.558  10.679   5.631
86681SOL    HW161940  12.568  10.761   5.680
86681SOL    HW261941  12.647  10.646   5.620
86682SOL     OW61942   1.440   7.739   5.412
86682SOL    HW161943   1.385   7.812   5.384
86682SOL    HW261944   1.427   7.671   5.346
86683SOL     OW61945   2.234  13.113   2.060
86683SOL    HW161946   2.140  13.130   2.061
86683SOL    HW261947   2.269  13.173   1.995
86684SOL     OW61948   5.593  14.413   1.766
86684SOL    HW161949   5.603  14.466   1.845
86684SOL    HW261950   5.522  14.455   1.718
86685SOL     OW61951   7.178  12.066   4.204
86685SOL    HW161952   7.231  12.002   4.252
86685SOL    HW261953   7.225  12.149   4.216
86686SOL     OW61954   5.824   1.772   2.890
86686SOL    HW161955   5.918   1.755   2.893
86686SOL    HW261956   5.813   1.855   2.937
86687SOL     OW61957  14.447  11.858   4.809
86687SOL    HW161958  14.531  11.847   4.764
86687SOL    HW261959  14.432  11.774   4.852
86688SOL     OW61960   7.178  10.246   6.874
86688SOL    HW161961   7.120  10.290   6.937
86688SOL    HW261962   7.246  10.205   6.928
86689SOL     OW61963   6.164  14.661   2.243
86689SOL    HW161964   6.192  14.603   2.314
86689SOL    HW261965   6.140  14.742   2.286
86690SOL     OW61966   7.341  13.209   7.142
86690SOL    HW161967   7.360  13.116   7.149
86690SOL    HW261968   7.245  13.214   7.147
86691SOL     OW61969   1.942   3.790  11.700
86691SOL    HW161970   1.905   3.876  11.720
86691SOL    HW261971   1.986   3.763  11.781
86692SOL     OW61972  12.321   0.424   9.149
86692SOL    HW161973  12.304   0.417   9.055
86692SOL    HW261974  12.356   0.338   9.174
86693SOL     OW61975   7.450   5.369   5.159
86693SOL    HW161976   7.526   5.325   5.121
86693SOL    HW261977   7.433   5.322   5.241
86694SOL     OW61978   4.516   9.957   3.603
86694SOL    HW161979   4.609   9.962   3.626
86694SOL    HW261980   4.502   9.865   3.579
86695SOL     OW61981   3.143   2.546  14.530
86695SOL    HW161982   3.161   2.454  14.546
86695SOL    HW261983   3.082   2.572  14.599
86696SOL     OW61984   1.722   1.550  10.388
86696SOL    HW161985   1.702   1.578  10.477
86696SOL    HW261986   1.639   1.561  10.341
86697SOL     OW61987  10.858   2.808   2.100
86697SOL    HW161988  10.790   2.822   2.167
86697SOL    HW261989  10.928   2.869   2.124
86698SOL     OW61990   3.919   2.875   3.144
86698SOL    HW161991   3.964   2.885   3.060
86698SOL    HW261992   3.985   2.897   3.209
86699SOL     OW61993   0.545  14.849   9.810
86699SOL    HW161994   0.584   0.054   9.775
86699SOL    HW261995   0.513  14.874   9.897
86700SOL     OW61996   4.875   9.463   9.853
86700SOL    HW161997   4.880   9.381   9.803
86700SOL    HW261998   4.829   9.438   9.933
86701SOL     OW61999   5.548  14.534   7.790
86701SOL    HW162000   5.461  14.560   7.760
86701SOL    HW262001   5.607  14.598   7.750
86702SOL     OW62002  12.671   7.105   7.654
86702SOL    HW162003  12.727   7.064   7.720
86702SOL    HW262004  12.701   7.196   7.651
86703SOL     OW62005  10.340   6.679   5.888
86703SOL    HW162006  10.356   6.685   5.794
86703SOL    HW262007  10.285   6.601   5.898
86704SOL     OW62008   3.067   6.041   7.368
86704SOL    HW162009   3.070   5.962   7.422
86704SOL    HW262010   3.155   6.077   7.372
86705SOL     OW62011  13.757   0.600   4.423
86705SOL    HW162012  13.805   0.539   4.478
86705SOL    HW262013  13.705   0.545   4.365
86706SOL     OW62014   9.613   5.303   3.245
86706SOL    HW162015   9.623   5.207   3.243
86706SOL    HW262016   9.556   5.323   3.171
86707SOL     OW62017   0.019  12.405   4.088
86707SOL    HW162018   0.066  12.475   4.042
86707SOL    HW262019   0.070  12.392   4.168
86708SOL     OW62020  12.645   4.194   4.039
86708SOL    HW162021  12.731   4.196   4.080
86708SOL    HW262022  12.651   4.124   3.974
86709SOL     OW62023  12.002   4.230   4.917
86709SOL    HW162024  12.081   4.215   4.969
86709SOL    HW262025  11.995   4.326   4.911
86710SOL     OW62026   1.240   4.950   8.797
86710SOL    HW162027   1.279   4.909   8.719
86710SOL    HW262028   1.158   4.988   8.765
86711SOL     OW62029   9.213  11.351   8.298
86711SOL    HW162030   9.158  11.429   8.312
86711SOL    HW262031   9.298  11.386   8.270
86712SOL     OW62032   5.998   5.487  12.591
86712SOL    HW162033   5.989   5.553  12.659
86712SOL    HW262034   5.917   5.492  12.541
86713SOL     OW62035   6.922  12.550  11.702
86713SOL    HW162036   6.908  12.617  11.635
86713SOL    HW262037   7.015  12.530  11.697
86714SOL     OW62038   0.690   1.164   5.490
86714SOL    HW162039   0.680   1.155   5.396
86714SOL    HW262040   0.662   1.253   5.509
86715SOL     OW62041  14.103  11.007   7.956
86715SOL    HW162042  14.016  10.968   7.960
86715SOL    HW262043  14.159  10.947   8.007
86716SOL     OW62044   6.192   5.799  14.327
86716SOL    HW162045   6.170   5.760  14.242
86716SOL    HW262046   6.246   5.875  14.306
86717SOL     OW62047   9.266   9.044   4.139
86717SOL    HW162048   9.264   9.118   4.078
86717SOL    HW262049   9.174   9.025   4.157
86718SOL     OW62050   0.105   8.105   5.758
86718SOL    HW162051   0.089   8.174   5.823
86718SOL    HW262052   0.023   8.097   5.710
86719SOL     OW62053   8.603  10.570   8.651
86719SOL    HW162054   8.581  10.662   8.664
86719SOL    HW262055   8.528  10.522   8.687
86720SOL     OW62056   8.471   0.609  12.211
86720SOL    HW162057   8.497   0.685  12.158
86720SOL    HW262058   8.424   0.647  12.285
86721SOL     OW62059   8.341   7.160  14.291
86721SOL    HW162060   8.283   7.228  14.325
86721SOL    HW262061   8.285   7.083  14.283
86722SOL     OW62062   3.186   9.624   8.273
86722SOL    HW162063   3.217   9.614   8.183
86722SOL    HW262064   3.264   9.647   8.324
86723SOL     OW62065  12.310   6.719  11.692
86723SOL    HW162066  12.273   6.654  11.751
86723SOL    HW262067  12.266   6.704  11.609
86724SOL     OW62068  11.997   3.381  14.419
86724SOL    HW162069  12.061   3.335  14.364
86724SOL    HW262070  12.044   3.396  14.502
86725SOL     OW62071   4.910   0.942   2.871
86725SOL    HW162072   4.942   1.030   2.856
86725SOL    HW262073   4.988   0.886   2.864
86726SOL     OW62074  13.184   8.811  10.573
86726SOL    HW162075  13.246   8.805  10.500
86726SOL    HW262076  13.195   8.729  10.620
86727SOL     OW62077  14.566  12.527  10.077
86727SOL    HW162078  14.567  12.474   9.997
86727SOL    HW262079  14.658  12.539  10.100
86728SOL     OW62080  12.248  13.224   8.098
86728SOL    HW162081  12.243  13.207   8.192
86728SOL    HW262082  12.330  13.273   8.087
86729SOL     OW62083   2.711   5.736   2.992
86729SOL    HW162084   2.714   5.775   2.905
86729SOL    HW262085   2.647   5.666   2.985
86730SOL     OW62086   7.521  10.179  14.551
86730SOL    HW162087   7.516  10.270  14.521
86730SOL    HW262088   7.536  10.186  14.646
86731SOL     OW62089  13.057  10.145   2.131
86731SOL    HW162090  13.029  10.146   2.223
86731SOL    HW262091  13.144  10.185   2.133
86732SOL     OW62092  10.330  13.257   9.944
86732SOL    HW162093  10.267  13.186   9.933
86732SOL    HW262094  10.276  13.336   9.941
86733SOL     OW62095   1.699   0.799   2.042
86733SOL    HW162096   1.609   0.765   2.043
86733SOL    HW262097   1.739   0.763   2.121
86734SOL     OW62098   0.717   0.045  13.421
86734SOL    HW162099   0.659   0.102  13.471
86734SOL    HW262100   0.709   0.076  13.331
86735SOL     OW62101   8.752   2.146   2.949
86735SOL    HW162102   8.741   2.239   2.932
86735SOL    HW262103   8.686   2.126   3.015
86736SOL     OW62104   7.009   3.753   4.862
86736SOL    HW162105   7.097   3.748   4.900
86736SOL    HW262106   6.965   3.822   4.911
86737SOL     OW62107   9.899   2.797   7.835
86737SOL    HW162108   9.918   2.728   7.771
86737SOL    HW262109   9.850   2.863   7.785
86738SOL     OW62110  11.763   4.367   8.766
86738SOL    HW162111  11.812   4.289   8.795
86738SOL    HW262112  11.672   4.340   8.769
86739SOL     OW62113  12.956  13.729  11.676
86739SOL    HW162114  12.903  13.651  11.663
86739SOL    HW262115  12.901  13.801  11.647
86740SOL     OW62116   9.160  11.075   8.251
86740SOL    HW162117   9.170  11.008   8.318
86740SOL    HW262118   9.209  11.150   8.283
86741SOL     OW62119   9.479   8.643   4.024
86741SOL    HW162120   9.396   8.681   3.996
86741SOL    HW262121   9.540   8.717   4.026
86742SOL     OW62122  14.809   6.034  10.161
86742SOL    HW162123  14.740   5.977  10.127
86742SOL    HW262124   0.013   5.981  10.159
86743SOL     OW62125   0.173   1.821  10.266
86743SOL    HW162126   0.241   1.790  10.206
86743SOL    HW262127   0.091   1.794  10.225
86744SOL     OW62128   1.988  11.424   8.300
86744SOL    HW162129   1.910  11.368   8.303
86744SOL    HW262130   2.061  11.364   8.288
86745SOL     OW62131   3.132  13.111   4.632
86745SOL    HW162132   3.066  13.084   4.568
86745SOL    HW262133   3.092  13.186   4.677
86746SOL     OW62134  13.634   5.980  14.431
86746SOL    HW162135  13.659   5.904  14.484
86746SOL    HW262136  13.642   6.055  14.490
86747SOL     OW62137   8.250  14.364   7.727
86747SOL    HW162138   8.324  14.306   7.707
86747SOL    HW262139   8.248  14.426   7.654
86748SOL     OW62140   0.910   3.955  13.950
86748SOL    HW162141   0.890   3.913  14.034
86748SOL    HW262142   0.878   4.045  13.960
86749SOL     OW62143  14.414  13.933   8.788
86749SOL    HW162144  14.331  13.885   8.786
86749SOL    HW262145  14.395  14.015   8.743
86750SOL     OW62146  14.077  11.665   4.936
86750SOL    HW162147  13.983  11.678   4.923
86750SOL    HW262148  14.116  11.751   4.920
86751SOL     OW62149   4.531  10.411   2.856
86751SOL    HW162150   4.597  10.447   2.797
86751SOL    HW262151   4.567  10.327   2.884
86752SOL     OW62152   0.630   7.664   9.313
86752SOL    HW162153   0.679   7.590   9.350
86752SOL    HW262154   0.549   7.625   9.280
86753SOL     OW62155  12.460  14.487   8.445
86753SOL    HW162156  12.450  14.515   8.354
86753SOL    HW262157  12.385  14.527   8.490
86754SOL     OW62158   4.046   0.645   3.600
86754SOL    HW162159   3.968   0.680   3.558
86754SOL    HW262160   4.046   0.552   3.577
86755SOL     OW62161   7.227   5.879   3.994
86755SOL    HW162162   7.190   5.909   3.911
86755SOL    HW262163   7.318   5.907   3.992
86756SOL     OW62164   3.279   4.767   1.733
86756SOL    HW162165   3.199   4.820   1.736
86756SOL    HW262166   3.307   4.772   1.641
86757SOL     OW62167  14.638   7.087   0.049
86757SOL    HW162168  14.548   7.111   0.031
86757SOL    HW262169  14.687   7.113  14.846
86758SOL     OW62170  14.757  11.579  10.673
86758SOL    HW162171  14.805  11.662  10.672
86758SOL    HW262172  14.823  11.512  10.690
86759SOL     OW62173  11.812   2.714   0.373
86759SOL    HW162174  11.907   2.720   0.384
86759SOL    HW262175  11.800   2.697   0.280
86760SOL     OW62176   2.342  12.414   2.655
86760SOL    HW162177   2.367  12.384   2.743
86760SOL    HW262178   2.246  12.411   2.656
86761SOL     OW62179  11.302   4.038   2.848
86761SOL    HW162180  11.242   4.067   2.778
86761SOL    HW262181  11.349   4.118   2.873
86762SOL     OW62182   9.949   4.875   4.440
86762SOL    HW162183  10.035   4.903   4.470
86762SOL    HW262184   9.910   4.830   4.515
86763SOL     OW62185  11.647   3.327   7.804
86763SOL    HW162186  11.656   3.238   7.769
86763SOL    HW262187  11.649   3.315   7.899
86764SOL     OW62188   5.310  13.689   6.864
86764SOL    HW162189   5.233  13.640   6.838
86764SOL    HW262190   5.379  13.623   6.871
86765SOL     OW62191   6.668   3.539   6.496
86765SOL    HW162192   6.736   3.493   6.446
86765SOL    HW262193   6.714   3.615   6.532
86766SOL     OW62194   9.808   2.488   8.619
86766SOL    HW162195   9.804   2.486   8.523
86766SOL    HW262196   9.813   2.396   8.645
86767SOL     OW62197  13.542  12.855   7.640
86767SOL    HW162198  13.471  12.827   7.584
86767SOL    HW262199  13.548  12.950   7.627
86768SOL     OW62200  12.300   1.814  12.029
86768SOL    HW162201  12.328   1.834  11.939
86768SOL    HW262202  12.211   1.778  12.019
86769SOL     OW62203   1.118   4.679   7.550
86769SOL    HW162204   1.029   4.685   7.515
86769SOL    HW262205   1.106   4.678   7.645
86770SOL     OW62206   3.899  10.245   7.603
86770SOL    HW162207   3.917  10.172   7.544
86770SOL    HW262208   3.805  10.242   7.618
86771SOL     OW62209  11.545  11.748  12.294
86771SOL    HW162210  11.560  11.821  12.235
86771SOL    HW262211  11.632  11.713  12.312
86772SOL     OW62212   3.974  11.426   2.876
86772SOL    HW162213   3.889  11.467   2.865
86772SOL    HW262214   4.036  11.499   2.885
86773SOL     OW62215   9.687  14.814  11.694
86773SOL    HW162216   9.721  14.751  11.629
86773SOL    HW262217   9.603  14.778  11.720
86774SOL     OW62218   0.078  11.832   7.474
86774SOL    HW162219   0.031  11.882   7.408
86774SOL    HW262220   0.136  11.774   7.425
86775SOL     OW62221   6.476  13.197  13.817
86775SOL    HW162222   6.405  13.254  13.845
86775SOL    HW262223   6.556  13.244  13.842
86776SOL     OW62224  11.038   8.337   1.700
86776SOL    HW162225  11.087   8.263   1.662
86776SOL    HW262226  10.950   8.329   1.662
86777SOL     OW62227  10.499   7.915   8.564
86777SOL    HW162228  10.591   7.940   8.574
86777SOL    HW262229  10.478   7.936   8.473
86778SOL     OW62230   1.602  10.636   2.963
86778SOL    HW162231   1.567  10.725   2.955
86778SOL    HW262232   1.528  10.579   2.940
86779SOL     OW62233   3.251   1.900   4.494
86779SOL    HW162234   3.200   1.952   4.431
86779SOL    HW262235   3.322   1.862   4.441
86780SOL     OW62236   1.132   4.030  12.439
86780SOL    HW162237   1.083   3.974  12.499
86780SOL    HW262238   1.193   3.970  12.395
86781SOL     OW62239  10.661  12.630   7.721
86781SOL    HW162240  10.641  12.623   7.627
86781SOL    HW262241  10.712  12.711   7.728
86782SOL     OW62242   0.129   0.644  10.444
86782SOL    HW162243   0.130   0.647  10.348
86782SOL    HW262244   0.076   0.720  10.469
86783SOL     OW62245   5.862  11.144  10.128
86783SOL    HW162246   5.905  11.105  10.052
86783SOL    HW262247   5.840  11.069  10.184
86784SOL     OW62248   3.323  12.343  13.155
86784SOL    HW162249   3.280  12.270  13.199
86784SOL    HW262250   3.401  12.361  13.208
86785SOL     OW62251  10.551   1.772   4.450
86785SOL    HW162252  10.581   1.848   4.501
86785SOL    HW262253  10.476   1.805   4.402
86786SOL     OW62254   1.237   5.532   4.433
86786SOL    HW162255   1.301   5.462   4.423
86786SOL    HW262256   1.289   5.612   4.442
86787SOL     OW62257   2.062   3.876   4.857
86787SOL    HW162258   2.004   3.932   4.908
86787SOL    HW262259   2.119   3.835   4.923
86788SOL     OW62260  14.870   4.537  14.262
86788SOL    HW162261  14.837   4.464  14.210
86788SOL    HW262262   0.008   4.608  14.199
86789SOL     OW62263   2.474   4.239   1.098
86789SOL    HW162264   2.378   4.234   1.100
86789SOL    HW262265   2.494   4.324   1.138
86790SOL     OW62266  11.488   8.175  13.358
86790SOL    HW162267  11.490   8.264  13.391
86790SOL    HW262268  11.450   8.182  13.270
86791SOL     OW62269   5.107  13.517   7.410
86791SOL    HW162270   5.067  13.535   7.325
86791SOL    HW262271   5.201  13.512   7.393
86792SOL     OW62272   8.770  13.935   6.919
86792SOL    HW162273   8.720  13.854   6.905
86792SOL    HW262274   8.712  14.004   6.887
86793SOL     OW62275   4.157   3.976   3.598
86793SOL    HW162276   4.083   3.938   3.552
86793SOL    HW262277   4.138   4.070   3.600
86794SOL     OW62278   9.293   0.766  11.833
86794SOL    HW162279   9.263   0.823  11.904
86794SOL    HW262280   9.218   0.709  11.815
86795SOL     OW62281   3.438   1.496  12.162
86795SOL    HW162282   3.435   1.568  12.224
86795SOL    HW262283   3.487   1.427  12.207
86796SOL     OW62284   6.229   7.243  11.255
86796SOL    HW162285   6.188   7.232  11.341
86796SOL    HW262286   6.299   7.306  11.271
86797SOL     OW62287  13.512   8.631  10.722
86797SOL    HW162288  13.602   8.601  10.734
86797SOL    HW262289  13.513   8.722  10.753
86798SOL     OW62290   3.808   6.771   6.545
86798SOL    HW162291   3.767   6.688   6.571
86798SOL    HW262292   3.880   6.745   6.489
86799SOL     OW62293   6.524   1.971  12.950
86799SOL    HW162294   6.545   1.981  13.043
86799SOL    HW262295   6.449   1.911  12.948
86800SOL     OW62296   8.769   0.120   1.545
86800SOL    HW162297   8.765   0.033   1.506
86800SOL    HW262298   8.733   0.110   1.633
86801SOL     OW62299   4.874  11.176   9.506
86801SOL    HW162300   4.788  11.217   9.500
86801SOL    HW262301   4.922  11.209   9.430
86802SOL     OW62302   2.333   6.960   5.722
86802SOL    HW162303   2.285   6.945   5.641
86802SOL    HW262304   2.422   6.930   5.704
86803SOL     OW62305   0.296  10.280  10.955
86803SOL    HW162306   0.265  10.194  10.984
86803SOL    HW262307   0.217  10.325  10.926
86804SOL     OW62308  12.082   8.174   5.028
86804SOL    HW162309  11.993   8.195   5.058
86804SOL    HW262310  12.115   8.255   4.990
86805SOL     OW62311  10.661  11.527  11.805
86805SOL    HW162312  10.570  11.508  11.780
86805SOL    HW262313  10.659  11.532  11.900
86806SOL     OW62314   7.760   9.524  11.886
86806SOL    HW162315   7.808   9.464  11.830
86806SOL    HW262316   7.826   9.588  11.914
86807SOL     OW62317  13.532   0.699   3.541
86807SOL    HW162318  13.580   0.781   3.527
86807SOL    HW262319  13.461   0.722   3.601
86808SOL     OW62320   5.417   7.428   9.559
86808SOL    HW162321   5.472   7.484   9.504
86808SOL    HW262322   5.474   7.354   9.581
86809SOL     OW62323   7.275  12.539   4.541
86809SOL    HW162324   7.272  12.634   4.531
86809SOL    HW262325   7.197  12.508   4.495
86810SOL     OW62326  12.352   5.548   0.059
86810SOL    HW162327  12.328   5.641   0.056
86810SOL    HW262328  12.428   5.544   0.115
86811SOL     OW62329   1.482   0.190   2.992
86811SOL    HW162330   1.425   0.162   3.064
86811SOL    HW262331   1.424   0.240   2.935
86812SOL     OW62332   7.118   0.470  11.380
86812SOL    HW162333   7.037   0.435  11.341
86812SOL    HW262334   7.184   0.404  11.360
86813SOL     OW62335   4.087   2.819   5.091
86813SOL    HW162336   4.080   2.724   5.102
86813SOL    HW262337   4.020   2.840   5.026
86814SOL     OW62338   3.083  13.431   8.990
86814SOL    HW162339   3.145  13.488   9.034
86814SOL    HW262340   3.135  13.383   8.926
86815SOL     OW62341   0.309   6.195  12.796
86815SOL    HW162342   0.267   6.194  12.710
86815SOL    HW262343   0.367   6.270  12.794
86816SOL     OW62344  11.693   7.929   2.224
86816SOL    HW162345  11.696   8.024   2.231
86816SOL    HW262346  11.652   7.899   2.305
86817SOL     OW62347   3.791   2.880  14.320
86817SOL    HW162348   3.869   2.927  14.292
86817SOL    HW262349   3.807   2.789  14.294
86818SOL     OW62350  14.556  11.298   2.616
86818SOL    HW162351  14.509  11.361   2.561
86818SOL    HW262352  14.577  11.226   2.557
86819SOL     OW62353   9.844   1.113  10.581
86819SOL    HW162354   9.906   1.180  10.552
86819SOL    HW262355   9.860   1.104  10.675
86820SOL     OW62356   2.107   5.946   4.768
86820SOL    HW162357   2.096   5.918   4.677
86820SOL    HW262358   2.139   5.868   4.813
86821SOL     OW62359   6.870  14.777   0.951
86821SOL    HW162360   6.829  14.840   1.011
86821SOL    HW262361   6.844  14.692   0.986
86822SOL     OW62362   8.242   4.016  14.026
86822SOL    HW162363   8.210   4.090  14.077
86822SOL    HW262364   8.320   3.986  14.073
86823SOL     OW62365  11.593   3.279   3.876
86823SOL    HW162366  11.528   3.255   3.941
86823SOL    HW262367  11.569   3.231   3.797
86824SOL     OW62368   5.414   1.645  12.454
86824SOL    HW162369   5.462   1.703  12.512
86824SOL    HW262370   5.475   1.572  12.437
86825SOL     OW62371   5.148   3.127  14.038
86825SOL    HW162372   5.179   3.175  13.961
86825SOL    HW262373   5.205   3.050  14.042
86826SOL     OW62374   9.035   2.464   5.017
86826SOL    HW162375   9.004   2.543   4.973
86826SOL    HW262376   9.126   2.455   4.987
86827SOL     OW62377   7.684   3.876  12.326
86827SOL    HW162378   7.706   3.876  12.233
86827SOL    HW262379   7.745   3.813  12.365
86828SOL     OW62380  13.701  10.159  13.248
86828SOL    HW162381  13.785  10.114  13.255
86828SOL    HW262382  13.697  10.188  13.157
86829SOL     OW62383   9.098   8.914   2.321
86829SOL    HW162384   9.047   8.976   2.269
86829SOL    HW262385   9.098   8.951   2.409
86830SOL     OW62386   3.614  11.872   6.038
86830SOL    HW162387   3.606  11.822   5.957
86830SOL    HW262388   3.702  11.910   6.035
86831SOL     OW62389   8.976   4.295   5.199
86831SOL    HW162390   9.063   4.334   5.198
86831SOL    HW262391   8.929   4.342   5.268
86832SOL     OW62392  14.809  12.816   6.213
86832SOL    HW162393  14.855  12.740   6.248
86832SOL    HW262394  14.744  12.838   6.279
86833SOL     OW62395   8.926   6.620   5.086
86833SOL    HW162396   8.955   6.539   5.126
86833SOL    HW262397   8.895   6.674   5.159
86834SOL     OW62398   2.130  14.709  12.290
86834SOL    HW162399   2.201  14.653  12.321
86834SOL    HW262400   2.058  14.694  12.352
86835SOL     OW62401   5.356   8.094   0.073
86835SOL    HW162402   5.412   8.018   0.092
86835SOL    HW262403   5.410   8.149   0.015
86836SOL     OW62404  10.449  10.395   9.834
86836SOL    HW162405  10.470  10.344   9.912
86836SOL    HW262406  10.515  10.464   9.832
86837SOL     OW62407   3.343   4.124   2.395
86837SOL    HW162408   3.368   4.193   2.456
86837SOL    HW262409   3.395   4.048   2.422
86838SOL     OW62410  11.987   4.921   8.664
86838SOL    HW162411  11.934   4.846   8.691
86838SOL    HW262412  12.006   4.968   8.745
86839SOL     OW62413   6.003   7.154   6.156
86839SOL    HW162414   6.012   7.089   6.087
86839SOL    HW262415   6.078   7.213   6.143
86840SOL     OW62416   6.184  13.012   3.606
86840SOL    HW162417   6.148  12.969   3.529
86840SOL    HW262418   6.215  12.941   3.662
86841SOL     OW62419  13.701   4.343   7.010
86841SOL    HW162420  13.788   4.341   7.051
86841SOL    HW262421  13.665   4.428   7.036
86842SOL     OW62422  12.279   3.038  11.092
86842SOL    HW162423  12.192   3.013  11.061
86842SOL    HW262424  12.339   3.008  11.024
86843SOL     OW62425   0.419  11.174   7.636
86843SOL    HW162426   0.417  11.229   7.715
86843SOL    HW262427   0.474  11.100   7.661
86844SOL     OW62428   5.122   5.540   9.558
86844SOL    HW162429   5.093   5.540   9.467
86844SOL    HW262430   5.070   5.472   9.600
86845SOL     OW62431   5.573   3.171   4.423
86845SOL    HW162432   5.665   3.158   4.444
86845SOL    HW262433   5.570   3.259   4.385
86846SOL     OW62434   7.383  10.584   6.956
86846SOL    HW162435   7.329  10.657   6.987
86846SOL    HW262436   7.324  10.530   6.905
86847SOL     OW62437  14.775   5.718   8.027
86847SOL    HW162438  14.775   5.710   8.122
86847SOL    HW262439  14.752   5.630   7.996
86848SOL     OW62440   8.072  13.438   3.083
86848SOL    HW162441   8.005  13.472   3.141
86848SOL    HW262442   8.038  13.353   3.054
86849SOL     OW62443   4.749   0.032   1.370
86849SOL    HW162444   4.743   0.020   1.275
86849SOL    HW262445   4.706  14.830   1.407
86850SOL     OW62446   7.081   4.753   7.666
86850SOL    HW162447   7.174   4.772   7.679
86850SOL    HW262448   7.074   4.658   7.674
86851SOL     OW62449  12.095   3.616   4.907
86851SOL    HW162450  12.140   3.601   4.824
86851SOL    HW262451  12.002   3.621   4.883
86852SOL     OW62452   5.781   9.212  11.850
86852SOL    HW162453   5.798   9.289  11.905
86852SOL    HW262454   5.866   9.194  11.808
86853SOL     OW62455   2.597   5.502   0.060
86853SOL    HW162456   2.627   5.483  14.846
86853SOL    HW262457   2.507   5.533   0.049
86854SOL     OW62458   5.834   0.306  13.539
86854SOL    HW162459   5.870   0.338  13.621
86854SOL    HW262460   5.792   0.382  13.500
86855SOL     OW62461   1.170  10.769  11.610
86855SOL    HW162462   1.200  10.678  11.618
86855SOL    HW262463   1.250  10.818  11.592
86856SOL     OW62464   8.204  10.793   3.496
86856SOL    HW162465   8.215  10.717   3.439
86856SOL    HW262466   8.119  10.781   3.537
86857SOL     OW62467   7.790   0.939  12.385
86857SOL    HW162468   7.862   0.995  12.414
86857SOL    HW262469   7.779   0.962  12.292
86858SOL     OW62470   2.361   6.358   7.505
86858SOL    HW162471   2.347   6.267   7.531
86858SOL    HW262472   2.434   6.354   7.444
86859SOL     OW62473  11.552  10.889   6.104
86859SOL    HW162474  11.555  10.801   6.066
86859SOL    HW262475  11.593  10.945   6.038
86860SOL     OW62476   1.135   9.392   9.616
86860SOL    HW162477   1.175   9.479   9.623
86860SOL    HW262478   1.068   9.402   9.548
86861SOL     OW62479   2.769   9.454  12.706
86861SOL    HW162480   2.726   9.521  12.652
86861SOL    HW262481   2.809   9.395  12.642
86862SOL     OW62482   5.391   8.686  12.795
86862SOL    HW162483   5.347   8.766  12.825
86862SOL    HW262484   5.476   8.715  12.763
86863SOL     OW62485   9.185  12.047   9.050
86863SOL    HW162486   9.122  12.080   8.985
86863SOL    HW262487   9.178  11.952   9.043
86864SOL     OW62488   0.603  13.081   9.414
86864SOL    HW162489   0.562  13.045   9.493
86864SOL    HW262490   0.539  13.066   9.345
86865SOL     OW62491  14.875   2.003   5.968
86865SOL    HW162492   0.011   2.032   5.877
86865SOL    HW262493   0.088   2.009   6.006
86866SOL     OW62494   4.126   2.721  10.921
86866SOL    HW162495   4.154   2.795  10.973
86866SOL    HW262496   4.068   2.758  10.854
86867SOL     OW62497  12.644  11.344  14.405
86867SOL    HW162498  12.720  11.390  14.440
86867SOL    HW262499  12.637  11.265  14.457
86868SOL     OW62500   5.734  13.769   3.228
86868SOL    HW162501   5.755  13.814   3.309
86868SOL    HW262502   5.758  13.831   3.159
86869SOL     OW62503  12.917   8.621   8.268
86869SOL    HW162504  12.933   8.714   8.283
86869SOL    HW262505  12.832   8.605   8.309
86870SOL     OW62506   1.992   9.038   0.272
86870SOL    HW162507   2.063   9.075   0.323
86870SOL    HW262508   1.913   9.078   0.307
86871SOL     OW62509  10.791  12.332   7.455
86871SOL    HW162510  10.719  12.344   7.516
86871SOL    HW262511  10.867  12.369   7.500
86872SOL     OW62512  10.464   3.299  12.691
86872SOL    HW162513  10.522   3.350  12.634
86872SOL    HW262514  10.417   3.365  12.742
86873SOL     OW62515  13.268   2.591  14.862
86873SOL    HW162516  13.302   2.613  14.776
86873SOL    HW262517  13.309   2.654   0.046
86874SOL     OW62518  14.518   0.613   6.077
86874SOL    HW162519  14.594   0.668   6.059
86874SOL    HW262520  14.554   0.526   6.091
86875SOL     OW62521   0.676   3.904   3.797
86875SOL    HW162522   0.698   3.861   3.714
86875SOL    HW262523   0.601   3.959   3.776
86876SOL     OW62524   6.310   2.979   8.442
86876SOL    HW162525   6.325   2.885   8.431
86876SOL    HW262526   6.380   3.008   8.500
86877SOL     OW62527   5.758   1.350   7.050
86877SOL    HW162528   5.798   1.348   6.963
86877SOL    HW262529   5.668   1.379   7.034
86878SOL     OW62530   8.869  14.592  14.432
86878SOL    HW162531   8.846  14.527  14.498
86878SOL    HW262532   8.935  14.549  14.378
86879SOL     OW62533  12.668  12.909  12.625
86879SOL    HW162534  12.667  12.871  12.537
86879SOL    HW262535  12.618  12.846  12.678
86880SOL     OW62536   9.720   5.925   0.720
86880SOL    HW162537   9.683   5.856   0.665
86880SOL    HW262538   9.762   5.878   0.792
86881SOL     OW62539  12.196   5.391  11.808
86881SOL    HW162540  12.270   5.431  11.852
86881SOL    HW262541  12.127   5.457  11.812
86882SOL     OW62542   7.104   3.384   9.245
86882SOL    HW162543   7.010   3.378   9.264
86882SOL    HW262544   7.144   3.411   9.327
86883SOL     OW62545   2.376   0.046   5.810
86883SOL    HW162546   2.334   0.031   5.895
86883SOL    HW262547   2.460   0.086   5.832
86884SOL     OW62548  14.068   1.416   6.297
86884SOL    HW162549  14.105   1.413   6.209
86884SOL    HW262550  14.128   1.473   6.346
86885SOL     OW62551   0.305   5.106  12.941
86885SOL    HW162552   0.380   5.165  12.948
86885SOL    HW262553   0.237   5.159  12.899
86886SOL     OW62554   9.797   3.677   3.357
86886SOL    HW162555   9.766   3.758   3.316
86886SOL    HW262556   9.748   3.671   3.439
86887SOL     OW62557   1.475   3.396   4.048
86887SOL    HW162558   1.468   3.489   4.027
86887SOL    HW262559   1.458   3.351   3.965
86888SOL     OW62560   0.406   5.226   8.217
86888SOL    HW162561   0.427   5.137   8.246
86888SOL    HW262562   0.383   5.216   8.124
86889SOL     OW62563   4.212   5.698  13.068
86889SOL    HW162564   4.190   5.608  13.089
86889SOL    HW262565   4.305   5.706  13.091
86890SOL     OW62566  10.399   6.465  14.117
86890SOL    HW162567  10.397   6.428  14.206
86890SOL    HW262568  10.376   6.557  14.130
86891SOL     OW62569   6.131   2.161  10.439
86891SOL    HW162570   6.197   2.221  10.404
86891SOL    HW262571   6.102   2.201  10.520
86892SOL     OW62572  13.974   8.686   4.004
86892SOL    HW162573  14.029   8.712   4.079
86892SOL    HW262574  13.933   8.604   4.032
86893SOL     OW62575  12.888   4.307  13.534
86893SOL    HW162576  12.840   4.390  13.536
86893SOL    HW262577  12.851   4.256  13.606
86894SOL     OW62578   7.157   5.371   8.359
86894SOL    HW162579   7.231   5.396   8.415
86894SOL    HW262580   7.137   5.281   8.385
86895SOL     OW62581  13.447   9.979  13.304
86895SOL    HW162582  13.501   9.936  13.371
86895SOL    HW262583  13.428  10.065  13.341
86896SOL     OW62584  12.325  12.409   9.321
86896SOL    HW162585  12.276  12.491   9.328
86896SOL    HW262586  12.258  12.342   9.310
86897SOL     OW62587   6.887   1.426   5.465
86897SOL    HW162588   6.856   1.501   5.516
86897SOL    HW262589   6.822   1.416   5.396
86898SOL     OW62590   3.332  12.853  12.005
86898SOL    HW162591   3.319  12.857  11.910
86898SOL    HW262592   3.332  12.945  12.033
86899SOL     OW62593   8.446   6.145   4.534
86899SOL    HW162594   8.456   6.152   4.439
86899SOL    HW262595   8.393   6.066   4.547
86900SOL     OW62596   9.605   7.265  13.218
86900SOL    HW162597   9.589   7.308  13.302
86900SOL    HW262598   9.600   7.171  13.238
86901SOL     OW62599   2.196   0.129  13.960
86901SOL    HW162600   2.218   0.148  14.052
86901SOL    HW262601   2.237   0.045  13.943
86902SOL     OW62602  10.442  11.355   2.976
86902SOL    HW162603  10.457  11.288   2.909
86902SOL    HW262604  10.400  11.308   3.048
86903SOL     OW62605  12.575   9.192   9.361
86903SOL    HW162606  12.607   9.111   9.402
86903SOL    HW262607  12.591   9.260   9.426
86904SOL     OW62608   4.995   1.543  11.957
86904SOL    HW162609   5.004   1.453  11.927
86904SOL    HW262610   4.962   1.591  11.881
86905SOL     OW62611  10.428  12.821   8.851
86905SOL    HW162612  10.367  12.868   8.793
86905SOL    HW262613  10.381  12.741   8.875
86906SOL     OW62614   7.022  11.241   5.445
86906SOL    HW162615   7.038  11.321   5.394
86906SOL    HW262616   7.074  11.252   5.525
86907SOL     OW62617  12.571   2.860  13.582
86907SOL    HW162618  12.624   2.932  13.616
86907SOL    HW262619  12.567   2.797  13.654
86908SOL     OW62620   7.690   3.566  10.006
86908SOL    HW162621   7.692   3.471   9.990
86908SOL    HW262622   7.767   3.600   9.960
86909SOL     OW62623   5.463   3.915   4.129
86909SOL    HW162624   5.507   3.923   4.213
86909SOL    HW262625   5.383   3.968   4.139
86910SOL     OW62626   0.287  14.069   8.704
86910SOL    HW162627   0.220  14.137   8.710
86910SOL    HW262628   0.247  14.001   8.649
86911SOL     OW62629  11.801  11.957   9.754
86911SOL    HW162630  11.853  11.932   9.831
86911SOL    HW262631  11.772  12.046   9.773
86912SOL     OW62632  12.858   2.167   3.483
86912SOL    HW162633  12.942   2.208   3.504
86912SOL    HW262634  12.793   2.219   3.531
86913SOL     OW62635   6.899   9.615  11.338
86913SOL    HW162636   6.899   9.541  11.277
86913SOL    HW262637   6.901   9.574  11.425
86914SOL     OW62638   9.483   6.289   7.547
86914SOL    HW162639   9.554   6.282   7.611
86914SOL    HW262640   9.472   6.200   7.513
86915SOL     OW62641   9.728  13.405   9.397
86915SOL    HW162642   9.700  13.376   9.310
86915SOL    HW262643   9.649  13.442   9.437
86916SOL     OW62644   3.913   8.609   4.847
86916SOL    HW162645   3.821   8.614   4.872
86916SOL    HW262646   3.916   8.545   4.776
86917SOL     OW62647   6.976   4.896  11.152
86917SOL    HW162648   7.028   4.946  11.214
86917SOL    HW262649   6.888   4.933  11.158
86918SOL     OW62650  11.390  13.354  10.088
86918SOL    HW162651  11.341  13.430  10.056
86918SOL    HW262652  11.390  13.293  10.014
86919SOL     OW62653  13.297   2.577   1.412
86919SOL    HW162654  13.262   2.623   1.335
86919SOL    HW262655  13.391   2.595   1.409
86920SOL     OW62656   7.366  12.099   5.920
86920SOL    HW162657   7.461  12.107   5.929
86920SOL    HW262658   7.345  12.012   5.954
86921SOL     OW62659   8.225  14.099   3.061
86921SOL    HW162660   8.203  14.125   3.151
86921SOL    HW262661   8.271  14.016   3.072
86922SOL     OW62662  12.871   8.774  11.109
86922SOL    HW162663  12.790   8.822  11.088
86922SOL    HW262664  12.938   8.842  11.115
86923SOL     OW62665   9.133   2.258   0.457
86923SOL    HW162666   9.193   2.241   0.384
86923SOL    HW262667   9.189   2.292   0.527
86924SOL     OW62668   2.142   8.019   2.864
86924SOL    HW162669   2.054   8.056   2.861
86924SOL    HW262670   2.177   8.046   2.949
86925SOL     OW62671  14.202  14.637   6.336
86925SOL    HW162672  14.232  14.551   6.306
86925SOL    HW262673  14.264  14.699   6.297
86926SOL     OW62674   0.951  11.275   4.838
86926SOL    HW162675   1.011  11.200   4.843
86926SOL    HW262676   0.992  11.334   4.775
86927SOL     OW62677  14.827  10.261   2.542
86927SOL    HW162678  14.873  10.343   2.528
86927SOL    HW262679  14.751  10.286   2.596
86928SOL     OW62680   9.423   3.276   2.667
86928SOL    HW162681   9.474   3.269   2.587
86928SOL    HW262682   9.450   3.358   2.707
86929SOL     OW62683   4.885  13.961  12.677
86929SOL    HW162684   4.827  13.906  12.729
86929SOL    HW262685   4.901  13.911  12.597
86930SOL     OW62686  10.297   9.138   7.990
86930SOL    HW162687  10.373   9.153   8.047
86930SOL    HW262688  10.243   9.216   8.000
86931SOL     OW62689   8.176   4.069   7.373
86931SOL    HW162690   8.261   4.111   7.381
86931SOL    HW262691   8.153   4.079   7.280
86932SOL     OW62692   2.919   6.135   4.464
86932SOL    HW162693   2.908   6.221   4.505
86932SOL    HW262694   2.842   6.085   4.493
86933SOL     OW62695   8.714   2.863   0.406
86933SOL    HW162696   8.685   2.779   0.371
86933SOL    HW262697   8.633   2.907   0.433
86934SOL     OW62698  12.420  14.051   9.025
86934SOL    HW162699  12.367  13.992   8.972
86934SOL    HW262700  12.450  13.998   9.098
86935SOL     OW62701   6.198   5.636  11.724
86935SOL    HW162702   6.106   5.612  11.736
86935SOL    HW262703   6.226   5.586  11.648
86936SOL     OW62704   9.854   1.189   5.946
86936SOL    HW162705   9.929   1.131   5.933
86936SOL    HW262706   9.867   1.260   5.884
86937SOL     OW62707   4.484  12.432  13.716
86937SOL    HW162708   4.403  12.412  13.670
86937SOL    HW262709   4.458  12.494  13.784
86938SOL     OW62710   7.811   1.534   7.304
86938SOL    HW162711   7.853   1.493   7.379
86938SOL    HW262712   7.878   1.593   7.268
86939SOL     OW62713  12.619   0.460   8.419
86939SOL    HW162714  12.611   0.555   8.408
86939SOL    HW262715  12.683   0.450   8.490
86940SOL     OW62716   7.325  11.774  14.009
86940SOL    HW162717   7.248  11.798  13.958
86940SOL    HW262718   7.382  11.851  14.005
86941SOL     OW62719   6.544   7.715  10.846
86941SOL    HW162720   6.454   7.683  10.850
86941SOL    HW262721   6.541   7.791  10.787
86942SOL     OW62722  10.715   9.148  14.537
86942SOL    HW162723  10.793   9.171  14.588
86942SOL    HW262724  10.701   9.055  14.555
86943SOL     OW62725   6.657   9.618   4.186
86943SOL    HW162726   6.737   9.565   4.180
86943SOL    HW262727   6.684   9.704   4.152
86944SOL     OW62728   9.967   6.590   7.233
86944SOL    HW162729   9.906   6.520   7.255
86944SOL    HW262730  10.052   6.547   7.229
86945SOL     OW62731  11.514   0.212  10.153
86945SOL    HW162732  11.462   0.132  10.164
86945SOL    HW262733  11.449   0.280  10.134
86946SOL     OW62734  13.897  11.652   7.867
86946SOL    HW162735  13.879  11.640   7.774
86946SOL    HW262736  13.894  11.564   7.904
86947SOL     OW62737   4.545  12.216  11.804
86947SOL    HW162738   4.497  12.138  11.776
86947SOL    HW262739   4.476  12.281  11.821
86948SOL     OW62740  10.240   1.353   8.182
86948SOL    HW162741  10.209   1.269   8.148
86948SOL    HW262742  10.195   1.364   8.265
86949SOL     OW62743   1.694  12.001   6.488
86949SOL    HW162744   1.646  12.078   6.516
86949SOL    HW262745   1.656  11.978   6.403
86950SOL     OW62746   4.329  13.180  11.423
86950SOL    HW162747   4.277  13.208  11.348
86950SOL    HW262748   4.287  13.222  11.498
86951SOL     OW62749   3.992  12.884  11.158
86951SOL    HW162750   3.937  12.954  11.124
86951SOL    HW262751   3.969  12.878  11.251
86952SOL     OW62752   3.655   7.397  12.337
86952SOL    HW162753   3.680   7.445  12.416
86952SOL    HW262754   3.580   7.444  12.302
86953SOL     OW62755   8.548  14.726   5.130
86953SOL    HW162756   8.640  14.745   5.112
86953SOL    HW262757   8.525  14.658   5.066
86954SOL     OW62758  13.449   6.846   9.106
86954SOL    HW162759  13.361   6.823   9.075
86954SOL    HW262760  13.457   6.802   9.190
86955SOL     OW62761  12.463  10.135   2.265
86955SOL    HW162762  12.549  10.093   2.262
86955SOL    HW262763  12.410  10.083   2.205
86956SOL     OW62764  12.105  13.007   5.624
86956SOL    HW162765  12.156  12.945   5.676
86956SOL    HW262766  12.018  12.966   5.617
86957SOL     OW62767   1.487  14.300   9.549
86957SOL    HW162768   1.569  14.343   9.525
86957SOL    HW262769   1.468  14.241   9.476
86958SOL     OW62770   9.330   7.151   9.559
86958SOL    HW162771   9.318   7.124   9.468
86958SOL    HW262772   9.316   7.246   9.558
86959SOL     OW62773   1.997   2.406  13.472
86959SOL    HW162774   2.087   2.440  13.471
86959SOL    HW262775   2.009   2.311  13.463
86960SOL     OW62776  11.783  14.048   0.232
86960SOL    HW162777  11.730  14.119   0.268
86960SOL    HW262778  11.841  14.022   0.304
86961SOL     OW62779   4.221   9.288  13.124
86961SOL    HW162780   4.249   9.356  13.185
86961SOL    HW262781   4.225   9.330  13.038
86962SOL     OW62782   1.799  13.657  14.480
86962SOL    HW162783   1.881  13.608  14.480
86962SOL    HW262784   1.826  13.747  14.502
86963SOL     OW62785   0.480   4.500  11.034
86963SOL    HW162786   0.571   4.505  11.005
86963SOL    HW262787   0.430   4.491  10.953
86964SOL     OW62788   7.846   7.932   6.395
86964SOL    HW162789   7.933   7.957   6.363
86964SOL    HW262790   7.859   7.844   6.431
86965SOL     OW62791   5.183   2.551  10.643
86965SOL    HW162792   5.247   2.621  10.658
86965SOL    HW262793   5.099   2.592  10.663
86966SOL     OW62794  10.674   4.232   0.607
86966SOL    HW162795  10.672   4.172   0.532
86966SOL    HW262796  10.621   4.188   0.673
86967SOL     OW62797   1.706   3.410   9.916
86967SOL    HW162798   1.723   3.496   9.953
86967SOL    HW262799   1.786   3.360   9.935
86968SOL     OW62800  11.650   1.521  11.764
86968SOL    HW162801  11.661   1.509  11.858
86968SOL    HW262802  11.726   1.478  11.725
86969SOL     OW62803   0.153   1.431   5.864
86969SOL    HW162804   0.195   1.474   5.939
86969SOL    HW262805   0.128   1.345   5.897
86970SOL     OW62806   5.591  14.633   5.152
86970SOL    HW162807   5.636  14.549   5.141
86970SOL    HW262808   5.577  14.665   5.063
86971SOL     OW62809  13.790   5.753  11.846
86971SOL    HW162810  13.827   5.812  11.910
86971SOL    HW262811  13.857   5.746  11.778
86972SOL     OW62812  14.264   8.797  13.453
86972SOL    HW162813  14.344   8.827  13.498
86972SOL    HW262814  14.273   8.832  13.364
86973SOL     OW62815   5.340   3.687  11.122
86973SOL    HW162816   5.401   3.760  11.111
86973SOL    HW262817   5.359   3.652  11.208
86974SOL     OW62818  12.939  14.397   1.271
86974SOL    HW162819  12.942  14.493   1.270
86974SOL    HW262820  12.890  14.376   1.351
86975SOL     OW62821  13.876   0.788   2.124
86975SOL    HW162822  13.958   0.739   2.125
86975SOL    HW262823  13.821   0.742   2.061
86976SOL     OW62824   8.779   3.353   9.468
86976SOL    HW162825   8.842   3.281   9.463
86976SOL    HW262826   8.749   3.353   9.558
86977SOL     OW62827   8.536   0.297   8.236
86977SOL    HW162828   8.501   0.215   8.200
86977SOL    HW262829   8.547   0.280   8.329
86978SOL     OW62830   4.729   9.245   3.015
86978SOL    HW162831   4.779   9.169   3.044
86978SOL    HW262832   4.642   9.233   3.052
86979SOL     OW62833   4.642   2.987  13.165
86979SOL    HW162834   4.562   3.008  13.116
86979SOL    HW262835   4.713   3.016  13.108
86980SOL     OW62836   4.388   3.952   7.680
86980SOL    HW162837   4.478   3.945   7.713
86980SOL    HW262838   4.399   3.982   7.590
86981SOL     OW62839   7.273   8.414  10.622
86981SOL    HW162840   7.226   8.472  10.561
86981SOL    HW262841   7.304   8.342  10.568
86982SOL     OW62842   7.842   3.805   3.116
86982SOL    HW162843   7.756   3.801   3.157
86982SOL    HW262844   7.900   3.760   3.177
86983SOL     OW62845   0.588  11.436   2.128
86983SOL    HW162846   0.597  11.363   2.066
86983SOL    HW262847   0.500  11.471   2.113
86984SOL     OW62848   4.171  11.133   9.517
86984SOL    HW162849   4.123  11.051   9.524
86984SOL    HW262850   4.122  11.184   9.452
86985SOL     OW62851   6.744   8.427   7.758
86985SOL    HW162852   6.689   8.376   7.818
86985SOL    HW262853   6.682   8.463   7.695
86986SOL     OW62854   4.550   1.419   6.913
86986SOL    HW162855   4.552   1.337   6.863
86986SOL    HW262856   4.484   1.472   6.869
86987SOL     OW62857   5.940   3.273   5.470
86987SOL    HW162858   5.938   3.294   5.563
86987SOL    HW262859   6.005   3.203   5.463
86988SOL     OW62860   9.693   6.111   7.227
86988SOL    HW162861   9.603   6.097   7.257
86988SOL    HW262862   9.747   6.081   7.300
86989SOL     OW62863   6.273   7.113   6.142
86989SOL    HW162864   6.261   7.018   6.136
86989SOL    HW262865   6.267   7.144   6.052
86990SOL     OW62866  12.778  10.413   2.431
86990SOL    HW162867  12.826  10.356   2.492
86990SOL    HW262868  12.791  10.373   2.345
86991SOL     OW62869   1.611   9.826   9.287
86991SOL    HW162870   1.610   9.791   9.376
86991SOL    HW262871   1.520   9.819   9.257
86992SOL     OW62872  13.535   0.270   8.905
86992SOL    HW162873  13.467   0.270   8.972
86992SOL    HW262874  13.572   0.182   8.909
86993SOL     OW62875   3.039   8.140  12.141
86993SOL    HW162876   3.053   8.233  12.160
86993SOL    HW262877   3.099   8.121  12.070
86994SOL     OW62878  13.698   0.418  14.834
86994SOL    HW162879  13.737   0.501  14.861
86994SOL    HW262880  13.747   0.352   0.009
86995SOL     OW62881   5.910   7.840  13.554
86995SOL    HW162882   6.004   7.859  13.551
86995SOL    HW262883   5.888   7.846  13.647
86996SOL     OW62884   2.935   7.417   2.227
86996SOL    HW162885   2.966   7.475   2.296
86996SOL    HW262886   2.974   7.332   2.247
86997SOL     OW62887  14.422  14.440   2.078
86997SOL    HW162888  14.343  14.486   2.108
86997SOL    HW262889  14.477  14.435   2.156
86998SOL     OW62890   9.253   1.185   0.529
86998SOL    HW162891   9.238   1.255   0.466
86998SOL    HW262892   9.218   1.106   0.486
86999SOL     OW62893  12.466   8.650   2.969
86999SOL    HW162894  12.506   8.734   2.947
86999SOL    HW262895  12.482   8.640   3.063
87000SOL     OW62896  11.924   1.216  14.740
87000SOL    HW162897  11.933   1.121  14.745
87000SOL    HW262898  11.964   1.241  14.657
87001SOL     OW62899   9.628  13.798   5.594
87001SOL    HW162900   9.666  13.871   5.545
87001SOL    HW262901   9.570  13.840   5.658
87002SOL     OW62902   7.389   6.693  14.047
87002SOL    HW162903   7.433   6.662  14.127
87002SOL    HW262904   7.375   6.786  14.062
87003SOL     OW62905  12.905   9.858   9.590
87003SOL    HW162906  12.866   9.836   9.506
87003SOL    HW262907  12.921   9.953   9.585
87004SOL     OW62908   3.159   6.027   2.344
87004SOL    HW162909   3.223   6.096   2.359
87004SOL    HW262910   3.208   5.958   2.299
87005SOL     OW62911   4.668   4.001   3.472
87005SOL    HW162912   4.586   4.050   3.480
87005SOL    HW262913   4.642   3.917   3.435
87006SOL     OW62914  10.219  11.389   9.644
87006SOL    HW162915  10.153  11.325   9.618
87006SOL    HW262916  10.275  11.399   9.567
87007SOL     OW62917   1.636  10.306   2.370
87007SOL    HW162918   1.621  10.345   2.456
87007SOL    HW262919   1.555  10.259   2.351
87008SOL     OW62920  13.896   9.587  12.690
87008SOL    HW162921  13.991   9.579  12.688
87008SOL    HW262922  13.866   9.541  12.612
87009SOL     OW62923   1.596   2.967   6.333
87009SOL    HW162924   1.637   3.050   6.309
87009SOL    HW262925   1.576   2.925   6.249
87010SOL     OW62926   3.178   2.016   7.193
87010SOL    HW162927   3.138   2.046   7.112
87010SOL    HW262928   3.225   1.937   7.169
87011SOL     OW62929  11.700   2.396   0.900
87011SOL    HW162930  11.711   2.301   0.906
87011SOL    HW262931  11.760   2.431   0.966
87012SOL     OW62932  13.388   5.455   3.186
87012SOL    HW162933  13.305   5.438   3.230
87012SOL    HW262934  13.437   5.374   3.196
87013SOL     OW62935  14.340  12.131   7.777
87013SOL    HW162936  14.390  12.051   7.762
87013SOL    HW262937  14.385  12.174   7.850
87014SOL     OW62938  10.875   2.902   5.285
87014SOL    HW162939  10.870   2.931   5.376
87014SOL    HW262940  10.797   2.847   5.273
87015SOL     OW62941  13.583   4.834   3.149
87015SOL    HW162942  13.614   4.834   3.059
87015SOL    HW262943  13.488   4.824   3.142
87016SOL     OW62944  13.479  11.051  11.435
87016SOL    HW162945  13.465  11.010  11.520
87016SOL    HW262946  13.391  11.076  11.406
87017SOL     OW62947   2.021  12.960  14.219
87017SOL    HW162948   2.024  12.868  14.245
87017SOL    HW262949   2.109  12.993  14.240
87018SOL     OW62950   6.840   7.550  11.607
87018SOL    HW162951   6.918   7.570  11.659
87018SOL    HW262952   6.856   7.462  11.573
87019SOL     OW62953   4.947   2.341  13.229
87019SOL    HW162954   4.908   2.306  13.149
87019SOL    HW262955   4.875   2.346  13.291
87020SOL     OW62956  11.905  10.837   8.094
87020SOL    HW162957  11.999  10.843   8.110
87020SOL    HW262958  11.868  10.914   8.138
87021SOL     OW62959   8.730   1.250   0.117
87021SOL    HW162960   8.727   1.340   0.084
87021SOL    HW262961   8.823   1.229   0.123
87022SOL     OW62962   4.066  11.436   1.041
87022SOL    HW162963   4.010  11.361   1.061
87022SOL    HW262964   4.135  11.400   0.985
87023SOL     OW62965  12.335   7.182   0.995
87023SOL    HW162966  12.359   7.091   1.013
87023SOL    HW262967  12.399   7.234   1.044
87024SOL     OW62968  10.309   0.932   9.657
87024SOL    HW162969  10.390   0.918   9.706
87024SOL    HW262970  10.338   0.964   9.571
87025SOL     OW62971  11.438   3.999  10.497
87025SOL    HW162972  11.452   4.020  10.405
87025SOL    HW262973  11.371   3.932  10.497
87026SOL     OW62974   7.911   9.544  14.228
87026SOL    HW162975   7.951   9.459  14.244
87026SOL    HW262976   7.832   9.526  14.177
87027SOL     OW62977   9.848   1.237   2.360
87027SOL    HW162978   9.819   1.273   2.444
87027SOL    HW262979   9.941   1.260   2.355
87028SOL     OW62980  11.875  11.552  10.305
87028SOL    HW162981  11.837  11.635  10.333
87028SOL    HW262982  11.940  11.531  10.373
87029SOL     OW62983   2.662   3.365   5.235
87029SOL    HW162984   2.712   3.428   5.287
87029SOL    HW262985   2.677   3.391   5.144
87030SOL     OW62986   5.383   1.205   3.436
87030SOL    HW162987   5.425   1.127   3.399
87030SOL    HW262988   5.352   1.176   3.523
87031SOL     OW62989   8.867   5.679   5.846
87031SOL    HW162990   8.928   5.612   5.879
87031SOL    HW262991   8.822   5.711   5.925
87032SOL     OW62992   4.274   5.961   2.025
87032SOL    HW162993   4.187   5.957   1.985
87032SOL    HW262994   4.257   5.955   2.119
87033SOL     OW62995   7.740  14.626   0.027
87033SOL    HW162996   7.796  14.700   0.052
87033SOL    HW262997   7.777  14.551   0.075
87034SOL     OW62998  10.258   6.812  13.822
87034SOL    HW162999  10.266   6.853  13.909
87034SOL    HW263000  10.216   6.878  13.768
87035SOL     OW63001  11.392   9.070   6.410
87035SOL    HW163002  11.344   8.988   6.420
87035SOL    HW263003  11.348   9.130   6.472
87036SOL     OW63004   8.525   8.435   8.656
87036SOL    HW163005   8.447   8.393   8.693
87036SOL    HW263006   8.597   8.407   8.712
87037SOL     OW63007   2.478  10.690   6.608
87037SOL    HW163008   2.386  10.664   6.605
87037SOL    HW263009   2.477  10.785   6.593
87038SOL     OW63010  10.348  14.859   6.451
87038SOL    HW163011  10.346  14.763   6.448
87038SOL    HW263012  10.319   0.006   6.539
87039SOL     OW63013  13.457  10.270   1.734
87039SOL    HW163014  13.412  10.351   1.710
87039SOL    HW263015  13.548  10.284   1.708
87040SOL     OW63016   8.459   7.297   9.099
87040SOL    HW163017   8.529   7.270   9.040
87040SOL    HW263018   8.379   7.269   9.055
87041SOL     OW63019   6.961  11.572   2.307
87041SOL    HW163020   6.926  11.585   2.396
87041SOL    HW263021   6.886  11.540   2.257
87042SOL     OW63022  13.834   9.367   2.154
87042SOL    HW163023  13.916   9.408   2.180
87042SOL    HW263024  13.811   9.310   2.228
87043SOL     OW63025  14.657  14.602   8.828
87043SOL    HW163026  14.589  14.668   8.818
87043SOL    HW263027  14.705  14.629   8.907
87044SOL     OW63028   0.231   5.263   9.692
87044SOL    HW163029   0.239   5.332   9.627
87044SOL    HW263030   0.142   5.228   9.680
87045SOL     OW63031   0.049   7.498   4.167
87045SOL    HW163032   0.103   7.573   4.191
87045SOL    HW263033   0.061   7.489   4.072
87046SOL     OW63034  10.851   8.392   4.296
87046SOL    HW163035  10.902   8.320   4.333
87046SOL    HW263036  10.763   8.356   4.284
87047SOL     OW63037   5.311   6.094   3.501
87047SOL    HW163038   5.261   6.175   3.494
87047SOL    HW263039   5.374   6.099   3.430
87048SOL     OW63040  11.779  11.590   6.439
87048SOL    HW163041  11.688  11.571   6.416
87048SOL    HW263042  11.831  11.538   6.377
87049SOL     OW63043  11.156   4.758   7.829
87049SOL    HW163044  11.154   4.847   7.792
87049SOL    HW263045  11.244   4.726   7.810
87050SOL     OW63046  10.862   4.383  14.708
87050SOL    HW163047  10.882   4.298  14.748
87050SOL    HW263048  10.768   4.394  14.723
87051SOL     OW63049  14.078   2.402   0.448
87051SOL    HW163050  14.135   2.384   0.374
87051SOL    HW263051  14.028   2.479   0.422
87052SOL     OW63052   7.515   3.143   6.980
87052SOL    HW163053   7.512   3.062   7.031
87052SOL    HW263054   7.592   3.190   7.013
87053SOL     OW63055  12.014   8.343  13.630
87053SOL    HW163056  12.026   8.253  13.660
87053SOL    HW263057  12.006   8.336  13.535
87054SOL     OW63058   1.163  12.477   0.905
87054SOL    HW163059   1.143  12.537   0.833
87054SOL    HW263060   1.182  12.394   0.861
87055SOL     OW63061   4.651   9.366   1.590
87055SOL    HW163062   4.585   9.307   1.553
87055SOL    HW263063   4.661   9.338   1.681
87056SOL     OW63064   0.701  12.483   4.241
87056SOL    HW163065   0.794  12.464   4.230
87056SOL    HW263066   0.684  12.466   4.334
87057SOL     OW63067   3.515   7.019   5.225
87057SOL    HW163068   3.438   7.076   5.216
87057SOL    HW263069   3.540   6.998   5.135
87058SOL     OW63070   6.270  14.029  14.265
87058SOL    HW163071   6.187  14.002  14.226
87058SOL    HW263072   6.256  14.121  14.291
87059SOL     OW63073   9.703  14.819   5.147
87059SOL    HW163074   9.702   0.034   5.181
87059SOL    HW263075   9.796  14.797   5.142
87060SOL     OW63076  11.412   2.564   3.025
87060SOL    HW163077  11.474   2.546   3.096
87060SOL    HW263078  11.332   2.521   3.052
87061SOL     OW63079   1.208   0.578   0.642
87061SOL    HW163080   1.197   0.502   0.700
87061SOL    HW263081   1.185   0.653   0.697
87062SOL     OW63082   0.944   2.006   4.274
87062SOL    HW163083   0.987   2.090   4.257
87062SOL    HW263084   0.922   2.010   4.368
87063SOL     OW63085   8.868   7.669   2.727
87063SOL    HW163086   8.835   7.624   2.805
87063SOL    HW263087   8.963   7.662   2.735
87064SOL     OW63088   1.205   3.773   9.116
87064SOL    HW163089   1.184   3.768   9.023
87064SOL    HW263090   1.288   3.820   9.120
87065SOL     OW63091   6.407  10.484   4.494
87065SOL    HW163092   6.451  10.436   4.423
87065SOL    HW263093   6.314  10.480   4.471
87066SOL     OW63094  13.957  13.655   7.089
87066SOL    HW163095  13.881  13.617   7.046
87066SOL    HW263096  13.972  13.738   7.043
87067SOL     OW63097   0.584   6.602  13.770
87067SOL    HW163098   0.655   6.613  13.706
87067SOL    HW263099   0.559   6.692  13.792
87068SOL     OW63100  10.527   8.045   8.085
87068SOL    HW163101  10.446   8.091   8.065
87068SOL    HW263102  10.586   8.067   8.013
87069SOL     OW63103   3.072   1.255   9.689
87069SOL    HW163104   3.004   1.210   9.740
87069SOL    HW263105   3.079   1.342   9.730
87070SOL     OW63106   8.198   5.648   7.349
87070SOL    HW163107   8.209   5.737   7.316
87070SOL    HW263108   8.281   5.629   7.393
87071SOL     OW63109   7.563   9.103  14.727
87071SOL    HW163110   7.540   9.028  14.780
87071SOL    HW263111   7.561   9.177  14.787
87072SOL     OW63112   9.965   0.703   9.903
87072SOL    HW163113   9.959   0.798   9.888
87072SOL    HW263114   9.885   0.667   9.866
87073SOL     OW63115   3.752  14.582   3.689
87073SOL    HW163116   3.829  14.558   3.741
87073SOL    HW263117   3.736  14.674   3.709
87074SOL     OW63118   1.870   4.017   6.201
87074SOL    HW163119   1.924   3.939   6.215
87074SOL    HW263120   1.923   4.073   6.143
87075SOL     OW63121  13.366   9.589   3.324
87075SOL    HW163122  13.302   9.536   3.370
87075SOL    HW263123  13.447   9.578   3.374
87076SOL     OW63124   5.735   5.686   1.134
87076SOL    HW163125   5.686   5.708   1.213
87076SOL    HW263126   5.811   5.636   1.165
87077SOL     OW63127   4.958  12.154   4.217
87077SOL    HW163128   4.889  12.107   4.263
87077SOL    HW263129   5.030  12.092   4.212
87078SOL     OW63130   8.337  11.716   3.519
87078SOL    HW163131   8.311  11.667   3.441
87078SOL    HW263132   8.261  11.771   3.538
87079SOL     OW63133   7.834  14.432   0.181
87079SOL    HW163134   7.923  14.465   0.192
87079SOL    HW263135   7.820  14.375   0.257
87080SOL     OW63136   7.649   9.276  11.374
87080SOL    HW163137   7.740   9.284  11.345
87080SOL    HW263138   7.632   9.182  11.376
87081SOL     OW63139   3.703  12.414   4.963
87081SOL    HW163140   3.673  12.502   4.941
87081SOL    HW263141   3.784  12.403   4.912
87082SOL     OW63142   0.726   4.326   8.230
87082SOL    HW163143   0.696   4.255   8.173
87082SOL    HW263144   0.752   4.396   8.170
87083SOL     OW63145  14.131  11.559   2.388
87083SOL    HW163146  14.078  11.479   2.392
87083SOL    HW263147  14.145  11.573   2.294
87084SOL     OW63148   5.770  11.343  13.939
87084SOL    HW163149   5.773  11.431  13.901
87084SOL    HW263150   5.734  11.288  13.870
87085SOL     OW63151  12.550  12.087  12.674
87085SOL    HW163152  12.570  12.165  12.726
87085SOL    HW263153  12.461  12.102  12.643
87086SOL     OW63154   3.136   9.849   2.205
87086SOL    HW163155   3.219   9.849   2.158
87086SOL    HW263156   3.157   9.814   2.291
87087SOL     OW63157   6.618   8.949  12.108
87087SOL    HW163158   6.638   9.041  12.129
87087SOL    HW263159   6.687   8.899  12.152
87088SOL     OW63160   9.784  10.509   8.181
87088SOL    HW163161   9.849  10.440   8.187
87088SOL    HW263162   9.732  10.487   8.104
87089SOL     OW63163   1.132  13.464  11.114
87089SOL    HW163164   1.111  13.470  11.021
87089SOL    HW263165   1.218  13.504  11.122
87090SOL     OW63166   1.124   4.355  12.481
87090SOL    HW163167   1.208   4.315  12.503
87090SOL    HW263168   1.069   4.282  12.455
87091SOL     OW63169  13.905   9.563   6.503
87091SOL    HW163170  13.834   9.600   6.555
87091SOL    HW263171  13.899   9.607   6.418
87092SOL     OW63172   9.707   4.124  10.401
87092SOL    HW163173   9.627   4.072  10.386
87092SOL    HW263174   9.681   4.190  10.465
87093SOL     OW63175   6.700  11.657   7.548
87093SOL    HW163176   6.683  11.634   7.456
87093SOL    HW263177   6.615  11.685   7.581
87094SOL     OW63178  11.258   5.628  13.108
87094SOL    HW163179  11.300   5.625  13.194
87094SOL    HW263180  11.244   5.535  13.086
87095SOL     OW63181   9.408  14.399   2.746
87095SOL    HW163182   9.491  14.396   2.794
87095SOL    HW263183   9.391  14.492   2.734
87096SOL     OW63184   7.292   0.327  13.973
87096SOL    HW163185   7.288   0.405  14.029
87096SOL    HW263186   7.209   0.282  13.990
87097SOL     OW63187   6.693  14.180  10.672
87097SOL    HW163188   6.758  14.167  10.741
87097SOL    HW263189   6.660  14.092  10.652
87098SOL     OW63190  12.998   9.660  14.095
87098SOL    HW163191  12.998   9.688  14.003
87098SOL    HW263192  12.952   9.730  14.141
87099SOL     OW63193   0.397   4.787  11.373
87099SOL    HW163194   0.323   4.813  11.318
87099SOL    HW263195   0.450   4.732  11.316
87100SOL     OW63196  13.150   9.487  14.769
87100SOL    HW163197  13.199   9.570  14.774
87100SOL    HW263198  13.070   9.510  14.721
87101SOL     OW63199   5.375   8.469  10.529
87101SOL    HW163200   5.412   8.514  10.606
87101SOL    HW263201   5.319   8.401  10.566
87102SOL     OW63202  14.292  12.743   8.295
87102SOL    HW163203  14.268  12.763   8.386
87102SOL    HW263204  14.375  12.790   8.282
87103SOL     OW63205   1.245   3.044  14.454
87103SOL    HW163206   1.285   2.994  14.525
87103SOL    HW263207   1.298   3.124  14.448
87104SOL     OW63208  13.054   7.835  11.011
87104SOL    HW163209  13.090   7.760  11.058
87104SOL    HW263210  13.000   7.797  10.942
87105SOL     OW63211   0.941   8.759   2.010
87105SOL    HW163212   0.856   8.714   2.012
87105SOL    HW263213   0.988   8.717   1.938
87106SOL     OW63214   2.463   2.649   0.828
87106SOL    HW163215   2.525   2.693   0.885
87106SOL    HW263216   2.457   2.560   0.864
87107SOL     OW63217  11.604   2.652   8.015
87107SOL    HW163218  11.627   2.625   8.104
87107SOL    HW263219  11.517   2.616   8.001
87108SOL     OW63220   4.806  13.762   3.405
87108SOL    HW163221   4.715  13.732   3.404
87108SOL    HW263222   4.802  13.851   3.371
87109SOL     OW63223   7.457   6.201   8.572
87109SOL    HW163224   7.477   6.280   8.521
87109SOL    HW263225   7.364   6.187   8.558
87110SOL     OW63226   9.165   9.233   3.546
87110SOL    HW163227   9.236   9.296   3.563
87110SOL    HW263228   9.164   9.222   3.451
87111SOL     OW63229  11.527   3.972   5.575
87111SOL    HW163230  11.522   3.915   5.498
87111SOL    HW263231  11.550   3.913   5.646
87112SOL     OW63232   0.048   0.623   7.219
87112SOL    HW163233   0.015   0.674   7.294
87112SOL    HW263234   0.123   0.575   7.254
87113SOL     OW63235  12.575  12.667   0.862
87113SOL    HW163236  12.485  12.644   0.841
87113SOL    HW263237  12.579  12.762   0.854
87114SOL     OW63238   6.086   4.452  13.392
87114SOL    HW163239   6.046   4.524  13.440
87114SOL    HW263240   6.037   4.375  13.418
87115SOL     OW63241  12.541  12.175  10.492
87115SOL    HW163242  12.606  12.132  10.436
87115SOL    HW263243  12.512  12.250  10.441
87116SOL     OW63244   3.742   8.416   3.420
87116SOL    HW163245   3.653   8.413   3.383
87116SOL    HW263246   3.799   8.394   3.347
87117SOL     OW63247   4.348   5.596   4.178
87117SOL    HW163248   4.276   5.619   4.118
87117SOL    HW263249   4.337   5.502   4.193
87118SOL     OW63250  12.404   7.010   5.094
87118SOL    HW163251  12.475   6.964   5.050
87118SOL    HW263252  12.349   6.940   5.130
87119SOL     OW63253   6.686  13.521  12.299
87119SOL    HW163254   6.745  13.513  12.374
87119SOL    HW263255   6.619  13.583  12.327
87120SOL     OW63256   9.822   3.792   0.783
87120SOL    HW163257   9.846   3.782   0.875
87120SOL    HW263258   9.803   3.885   0.773
87121SOL     OW63259   4.521  14.233   8.880
87121SOL    HW163260   4.511  14.208   8.788
87121SOL    HW263261   4.612  14.210   8.901
87122SOL     OW63262   4.866  10.352  13.267
87122SOL    HW163263   4.832  10.385  13.184
87122SOL    HW263264   4.938  10.411  13.288
87123SOL     OW63265   0.245  11.096   1.030
87123SOL    HW163266   0.247  11.002   1.048
87123SOL    HW263267   0.209  11.102   0.941
87124SOL     OW63268   6.789  10.666  12.558
87124SOL    HW163269   6.785  10.581  12.602
87124SOL    HW263270   6.847  10.650  12.482
87125SOL     OW63271   7.330  10.210   1.478
87125SOL    HW163272   7.271  10.215   1.403
87125SOL    HW263273   7.385  10.134   1.460
87126SOL     OW63274   1.015   8.823  10.154
87126SOL    HW163275   0.977   8.806  10.068
87126SOL    HW263276   1.057   8.909  10.146
87127SOL     OW63277   6.529  14.776  10.498
87127SOL    HW163278   6.451  14.788  10.444
87127SOL    HW263279   6.498  14.788  10.588
87128SOL     OW63280  14.411   9.102   2.423
87128SOL    HW163281  14.393   9.008   2.419
87128SOL    HW263282  14.394   9.126   2.514
87129SOL     OW63283   5.919   5.846   7.464
87129SOL    HW163284   5.865   5.901   7.407
87129SOL    HW263285   5.900   5.877   7.552
87130SOL     OW63286   8.822   8.653   4.176
87130SOL    HW163287   8.755   8.654   4.244
87130SOL    HW263288   8.878   8.579   4.199
87131SOL     OW63289  14.431  11.123  10.209
87131SOL    HW163290  14.352  11.136  10.157
87131SOL    HW263291  14.446  11.028  10.208
87132SOL     OW63292   8.184   5.251  14.320
87132SOL    HW163293   8.242   5.321  14.288
87132SOL    HW263294   8.105   5.297  14.349
87133SOL     OW63295   7.740   7.514   7.035
87133SOL    HW163296   7.787   7.579   6.983
87133SOL    HW263297   7.772   7.527   7.124
87134SOL     OW63298   0.720   7.163   0.341
87134SOL    HW163299   0.771   7.121   0.411
87134SOL    HW263300   0.736   7.109   0.264
87135SOL     OW63301  11.283  13.330   3.080
87135SOL    HW163302  11.367  13.302   3.115
87135SOL    HW263303  11.266  13.414   3.123
87136SOL     OW63304   8.708   1.766  12.300
87136SOL    HW163305   8.718   1.778  12.394
87136SOL    HW263306   8.695   1.672  12.288
87137SOL     OW63307   0.856   6.580   6.536
87137SOL    HW163308   0.803   6.592   6.615
87137SOL    HW263309   0.870   6.669   6.504
87138SOL     OW63310   2.540  11.495   7.386
87138SOL    HW163311   2.538  11.429   7.316
87138SOL    HW263312   2.593  11.455   7.455
87139SOL     OW63313   5.727   7.281   9.706
87139SOL    HW163314   5.807   7.253   9.751
87139SOL    HW263315   5.668   7.307   9.776
87140SOL     OW63316   6.776   9.468  13.669
87140SOL    HW163317   6.832   9.451  13.593
87140SOL    HW263318   6.814   9.545  13.711
87141SOL     OW63319   5.362   7.062  13.233
87141SOL    HW163320   5.311   7.101  13.162
87141SOL    HW263321   5.299   7.047  13.303
87142SOL     OW63322  13.059   3.505   2.207
87142SOL    HW163323  13.039   3.411   2.209
87142SOL    HW263324  13.026   3.535   2.123
87143SOL     OW63325  11.289  13.518  12.959
87143SOL    HW163326  11.217  13.539  13.018
87143SOL    HW263327  11.367  13.549  13.004
87144SOL     OW63328   5.095  11.174   3.518
87144SOL    HW163329   5.079  11.268   3.532
87144SOL    HW263330   5.012  11.141   3.484
87145SOL     OW63331  14.613   8.524  12.759
87145SOL    HW163332  14.636   8.617  12.761
87145SOL    HW263333  14.694   8.479  12.783
87146SOL     OW63334   5.421   7.610   3.199
87146SOL    HW163335   5.480   7.570   3.136
87146SOL    HW263336   5.390   7.537   3.253
87147SOL     OW63337  13.262   1.558  11.467
87147SOL    HW163338  13.243   1.647  11.496
87147SOL    HW263339  13.318   1.523  11.536
87148SOL     OW63340   4.027  12.124   7.065
87148SOL    HW163341   4.027  12.037   7.105
87148SOL    HW263342   3.973  12.177   7.124
87149SOL     OW63343  11.554   8.911   0.776
87149SOL    HW163344  11.538   8.854   0.851
87149SOL    HW263345  11.642   8.889   0.746
87150SOL     OW63346   4.525   5.206  14.026
87150SOL    HW163347   4.596   5.145  14.005
87150SOL    HW263348   4.446   5.152  14.024
87151SOL     OW63349   4.910   1.295  12.664
87151SOL    HW163350   4.820   1.327  12.658
87151SOL    HW263351   4.908   1.208  12.624
87152SOL     OW63352   6.641   2.500  12.087
87152SOL    HW163353   6.606   2.450  12.013
87152SOL    HW263354   6.722   2.539  12.053
87153SOL     OW63355   9.817  12.555   7.153
87153SOL    HW163356   9.874  12.609   7.099
87153SOL    HW263357   9.864  12.472   7.163
87154SOL     OW63358   0.472  13.500   8.230
87154SOL    HW163359   0.395  13.541   8.271
87154SOL    HW263360   0.495  13.560   8.159
87155SOL     OW63361   0.774   4.323  10.111
87155SOL    HW163362   0.865   4.336  10.086
87155SOL    HW263363   0.723   4.367  10.043
87156SOL     OW63364   9.199  10.846   1.685
87156SOL    HW163365   9.138  10.783   1.724
87156SOL    HW263366   9.189  10.832   1.591
87157SOL     OW63367   3.753   7.003  11.419
87157SOL    HW163368   3.758   7.064  11.345
87157SOL    HW263369   3.788   6.921  11.385
87158SOL     OW63370   7.289  13.046   5.479
87158SOL    HW163371   7.245  13.130   5.467
87158SOL    HW263372   7.382  13.065   5.463
87159SOL     OW63373   8.551  11.885   3.503
87159SOL    HW163374   8.484  11.817   3.516
87159SOL    HW263375   8.585  11.869   3.415
87160SOL     OW63376  13.817   5.983   0.323
87160SOL    HW163377  13.805   5.994   0.418
87160SOL    HW263378  13.728   5.977   0.289
87161SOL     OW63379   6.723   1.968  12.470
87161SOL    HW163380   6.675   2.023  12.408
87161SOL    HW263381   6.765   2.030  12.529
87162SOL     OW63382   0.276   0.161   5.650
87162SOL    HW163383   0.353   0.116   5.616
87162SOL    HW263384   0.214   0.091   5.670
87163SOL     OW63385  12.234   4.846   6.727
87163SOL    HW163386  12.144   4.814   6.721
87163SOL    HW263387  12.247   4.866   6.820
87164SOL     OW63388   1.770   3.217   4.946
87164SOL    HW163389   1.823   3.294   4.928
87164SOL    HW263390   1.781   3.200   5.040
87165SOL     OW63391  10.793  11.229   1.133
87165SOL    HW163392  10.797  11.324   1.132
87165SOL    HW263393  10.869  11.201   1.083
87166SOL     OW63394   0.384   4.037   6.670
87166SOL    HW163395   0.354   3.961   6.719
87166SOL    HW263396   0.402   4.004   6.582
87167SOL     OW63397   8.720   9.914   0.873
87167SOL    HW163398   8.796   9.857   0.866
87167SOL    HW263399   8.745   9.994   0.827
87168SOL     OW63400   2.931  11.806   6.933
87168SOL    HW163401   3.019  11.800   6.971
87168SOL    HW263402   2.917  11.721   6.893
87169SOL     OW63403  13.484   1.206   3.159
87169SOL    HW163404  13.465   1.270   3.091
87169SOL    HW263405  13.430   1.130   3.137
87170SOL     OW63406  11.629   9.738   1.611
87170SOL    HW163407  11.643   9.813   1.667
87170SOL    HW263408  11.715   9.718   1.574
87171SOL     OW63409   6.605   8.665  14.699
87171SOL    HW163410   6.580   8.689  14.788
87171SOL    HW263411   6.544   8.713  14.643
87172SOL     OW63412   1.974  11.479  11.284
87172SOL    HW163413   2.014  11.411  11.230
87172SOL    HW263414   1.899  11.510  11.233
87173SOL     OW63415  13.969  14.417  14.421
87173SOL    HW163416  13.881  14.380  14.429
87173SOL    HW263417  13.965  14.471  14.342
87174SOL     OW63418   5.732   5.904  11.240
87174SOL    HW163419   5.821   5.899  11.275
87174SOL    HW263420   5.712   5.814  11.213
87175SOL     OW63421   4.498   0.354   5.314
87175SOL    HW163422   4.573   0.391   5.361
87175SOL    HW263423   4.506   0.260   5.327
87176SOL     OW63424   4.436  13.513   8.459
87176SOL    HW163425   4.490  13.502   8.537
87176SOL    HW263426   4.495  13.552   8.394
87177SOL     OW63427   1.535   9.157  13.690
87177SOL    HW163428   1.521   9.158  13.595
87177SOL    HW263429   1.458   9.202  13.726
87178SOL     OW63430   4.390  10.601  14.397
87178SOL    HW163431   4.352  10.546  14.465
87178SOL    HW263432   4.364  10.690  14.420
87179SOL     OW63433   4.322   0.409  10.521
87179SOL    HW163434   4.319   0.492  10.474
87179SOL    HW263435   4.349   0.345  10.455
87180SOL     OW63436  11.246  12.139   2.108
87180SOL    HW163437  11.282  12.138   2.197
87180SOL    HW263438  11.206  12.053   2.098
87181SOL     OW63439   3.290  14.771   0.680
87181SOL    HW163440   3.240  14.811   0.751
87181SOL    HW263441   3.324  14.845   0.630
87182SOL     OW63442  12.183   6.004  13.814
87182SOL    HW163443  12.140   5.922  13.840
87182SOL    HW263444  12.249   6.019  13.882
87183SOL     OW63445   6.693  12.654  11.864
87183SOL    HW163446   6.744  12.727  11.900
87183SOL    HW263447   6.755  12.609  11.806
87184SOL     OW63448   8.811   2.384   6.487
87184SOL    HW163449   8.795   2.388   6.393
87184SOL    HW263450   8.733   2.342   6.523
87185SOL     OW63451   9.814   4.803  13.206
87185SOL    HW163452   9.815   4.713  13.172
87185SOL    HW263453   9.849   4.856  13.134
87186SOL     OW63454   3.605   0.145   4.437
87186SOL    HW163455   3.612   0.136   4.342
87186SOL    HW263456   3.689   0.114   4.471
87187SOL     OW63457   5.876  11.969  12.041
87187SOL    HW163458   5.840  12.029  12.107
87187SOL    HW263459   5.945  12.020  11.998
87188SOL     OW63460  12.801   5.655  14.123
87188SOL    HW163461  12.733   5.613  14.175
87188SOL    HW263462  12.825   5.590  14.057
87189SOL     OW63463   1.782   7.505   9.708
87189SOL    HW163464   1.831   7.504   9.626
87189SOL    HW263465   1.803   7.590   9.747
87190SOL     OW63466  13.935   6.319  11.246
87190SOL    HW163467  13.942   6.377  11.322
87190SOL    HW263468  13.936   6.231  11.283
87191SOL     OW63469  10.154   0.739   8.731
87191SOL    HW163470  10.069   0.732   8.686
87191SOL    HW263471  10.211   0.783   8.668
87192SOL     OW63472   9.866   2.509   2.412
87192SOL    HW163473   9.896   2.420   2.426
87192SOL    HW263474   9.811   2.504   2.333
87193SOL     OW63475   3.609   2.155   7.730
87193SOL    HW163476   3.682   2.095   7.744
87193SOL    HW263477   3.648   2.230   7.685
87194SOL     OW63478   7.818   8.919   6.928
87194SOL    HW163479   7.757   8.944   6.997
87194SOL    HW263480   7.859   9.001   6.901
87195SOL     OW63481  11.699   5.482  14.595
87195SOL    HW163482  11.623   5.467  14.651
87195SOL    HW263483  11.687   5.422  14.521
87196SOL     OW63484   8.939   6.020   7.328
87196SOL    HW163485   8.977   5.969   7.399
87196SOL    HW263486   8.900   5.954   7.270
87197SOL     OW63487   9.024  14.744   4.587
87197SOL    HW163488   9.030  14.817   4.525
87197SOL    HW263489   9.088  14.681   4.555
87198SOL     OW63490  14.292  10.073  12.403
87198SOL    HW163491  14.233  10.028  12.464
87198SOL    HW263492  14.304  10.160  12.441
87199SOL     OW63493   4.658   9.605   0.649
87199SOL    HW163494   4.733   9.553   0.617
87199SOL    HW263495   4.602   9.541   0.693
87200SOL     OW63496   4.168  10.077  11.426
87200SOL    HW163497   4.212   9.993  11.442
87200SOL    HW263498   4.189  10.130  11.503
87201SOL     OW63499   2.707   5.898   0.588
87201SOL    HW163500   2.708   5.844   0.509
87201SOL    HW263501   2.782   5.957   0.578
87202SOL     OW63502   5.235  14.862   7.918
87202SOL    HW163503   5.310   0.025   7.964
87202SOL    HW263504   5.273  14.801   7.856
87203SOL     OW63505   0.997   5.933   9.696
87203SOL    HW163506   1.062   5.867   9.672
87203SOL    HW263507   0.936   5.935   9.623
87204SOL     OW63508   0.493   3.028   6.775
87204SOL    HW163509   0.563   3.093   6.775
87204SOL    HW263510   0.537   2.945   6.793
87205SOL     OW63511   2.378  11.976   9.733
87205SOL    HW163512   2.312  11.931   9.786
87205SOL    HW263513   2.328  12.019   9.664
87206SOL     OW63514  14.173   6.033   8.407
87206SOL    HW163515  14.187   5.960   8.468
87206SOL    HW263516  14.247   6.092   8.423
87207SOL     OW63517   2.780   6.307   1.406
87207SOL    HW163518   2.731   6.254   1.344
87207SOL    HW263519   2.826   6.244   1.461
87208SOL     OW63520  14.036   6.546   7.033
87208SOL    HW163521  13.971   6.500   6.980
87208SOL    HW263522  13.987   6.583   7.106
87209SOL     OW63523   4.695   1.654   9.532
87209SOL    HW163524   4.772   1.694   9.492
87209SOL    HW263525   4.729   1.584   9.586
87210SOL     OW63526  11.479  14.379   6.105
87210SOL    HW163527  11.430  14.444   6.055
87210SOL    HW263528  11.498  14.422   6.188
87211SOL     OW63529  10.331  11.735   7.744
87211SOL    HW163530  10.333  11.641   7.728
87211SOL    HW263531  10.419  11.756   7.776
87212SOL     OW63532  14.349  14.859   0.799
87212SOL    HW163533  14.269   0.000   0.748
87212SOL    HW263534  14.402   0.062   0.787
87213SOL     OW63535  12.308   2.071   1.521
87213SOL    HW163536  12.373   2.115   1.468
87213SOL    HW263537  12.348   2.065   1.608
87214SOL     OW63538   7.255   3.312   5.853
87214SOL    HW163539   7.328   3.314   5.790
87214SOL    HW263540   7.236   3.219   5.864
87215SOL     OW63541   5.124  13.261  12.430
87215SOL    HW163542   5.182  13.187  12.450
87215SOL    HW263543   5.172  13.337  12.463
87216SOL     OW63544   0.632   3.395  10.877
87216SOL    HW163545   0.625   3.490  10.865
87216SOL    HW263546   0.553   3.361  10.835
87217SOL     OW63547   4.432  14.768   5.231
87217SOL    HW163548   4.344  14.751   5.264
87217SOL    HW263549   4.419  14.830   5.159
87218SOL     OW63550   8.046  10.572  13.019
87218SOL    HW163551   7.976  10.636  13.030
87218SOL    HW263552   8.001  10.489  13.008
87219SOL     OW63553   3.227   4.622  13.120
87219SOL    HW163554   3.300   4.576  13.161
87219SOL    HW263555   3.152   4.566  13.135
87220SOL     OW63556   7.853   6.876  11.560
87220SOL    HW163557   7.948   6.870  11.569
87220SOL    HW263558   7.829   6.956  11.607
87221SOL     OW63559   9.223   0.517   6.288
87221SOL    HW163560   9.198   0.520   6.380
87221SOL    HW263561   9.238   0.425   6.269
87222SOL     OW63562   3.137   4.407   0.472
87222SOL    HW163563   3.056   4.446   0.439
87222SOL    HW263564   3.198   4.480   0.478
87223SOL     OW63565   1.948   8.447   7.856
87223SOL    HW163566   1.881   8.379   7.848
87223SOL    HW263567   1.989   8.430   7.940
87224SOL     OW63568  11.703   6.694   4.969
87224SOL    HW163569  11.683   6.782   4.937
87224SOL    HW263570  11.635   6.677   5.035
87225SOL     OW63571  11.995   6.418   2.049
87225SOL    HW163572  11.932   6.488   2.064
87225SOL    HW263573  12.066   6.435   2.112
87226SOL     OW63574   1.046  12.937  14.389
87226SOL    HW163575   1.070  12.896  14.306
87226SOL    HW263576   1.004  12.868  14.439
87227SOL     OW63577  10.711   0.862   5.416
87227SOL    HW163578  10.784   0.829   5.467
87227SOL    HW263579  10.664   0.921   5.475
87228SOL     OW63580  11.757   8.728   2.941
87228SOL    HW163581  11.846   8.705   2.970
87228SOL    HW263582  11.741   8.670   2.867
87229SOL     OW63583  10.228   8.053   6.467
87229SOL    HW163584  10.321   8.069   6.453
87229SOL    HW263585  10.187   8.079   6.385
87230SOL     OW63586   0.690  14.072   2.205
87230SOL    HW163587   0.688  14.063   2.301
87230SOL    HW263588   0.759  14.136   2.188
87231SOL     OW63589   1.329   3.026  11.659
87231SOL    HW163590   1.335   3.026  11.563
87231SOL    HW263591   1.417   3.053  11.687
87232SOL     OW63592  10.251  12.555   2.246
87232SOL    HW163593  10.345  12.553   2.225
87232SOL    HW263594  10.230  12.648   2.250
87233SOL     OW63595   1.580  13.789   6.981
87233SOL    HW163596   1.652  13.738   7.018
87233SOL    HW263597   1.507  13.728   6.978
87234SOL     OW63598   2.585   4.440  14.619
87234SOL    HW163599   2.505   4.408  14.577
87234SOL    HW263600   2.570   4.426  14.712
87235SOL     OW63601   9.426   6.477   7.857
87235SOL    HW163602   9.366   6.528   7.802
87235SOL    HW263603   9.505   6.468   7.803
87236SOL     OW63604  11.050  13.734   1.045
87236SOL    HW163605  11.033  13.640   1.046
87236SOL    HW263606  11.126  13.745   1.103
87237SOL     OW63607  13.482  13.248  12.582
87237SOL    HW163608  13.398  13.210  12.606
87237SOL    HW263609  13.544  13.209  12.645
87238SOL     OW63610  14.390   9.799   6.172
87238SOL    HW163611  14.329   9.736   6.211
87238SOL    HW263612  14.469   9.748   6.153
87239SOL     OW63613   2.623  14.221   9.448
87239SOL    HW163614   2.614  14.304   9.402
87239SOL    HW263615   2.615  14.245   9.541
87240SOL     OW63616  12.728  12.837  10.138
87240SOL    HW163617  12.823  12.825  10.132
87240SOL    HW263618  12.694  12.748  10.150
87241SOL     OW63619   3.543   7.831  14.254
87241SOL    HW163620   3.482   7.868  14.190
87241SOL    HW263621   3.589   7.906  14.290
87242SOL     OW63622   4.505   6.199  10.445
87242SOL    HW163623   4.459   6.233  10.521
87242SOL    HW263624   4.437   6.161  10.390
87243SOL     OW63625  14.225  14.490   7.066
87243SOL    HW163626  14.161  14.540   7.115
87243SOL    HW263627  14.254  14.549   6.997
87244SOL     OW63628   9.622  13.087   2.202
87244SOL    HW163629   9.646  13.180   2.199
87244SOL    HW263630   9.567  13.074   2.125
87245SOL     OW63631   6.069   2.094   1.950
87245SOL    HW163632   6.119   2.132   2.022
87245SOL    HW263633   6.121   2.019   1.922
87246SOL     OW63634   6.532  14.860  12.390
87246SOL    HW163635   6.626  14.866  12.406
87246SOL    HW263636   6.521  14.780  12.339
87247SOL     OW63637   3.570   3.174  14.093
87247SOL    HW163638   3.499   3.235  14.072
87247SOL    HW263639   3.628   3.223  14.151
87248SOL     OW63640  12.626   6.301   4.638
87248SOL    HW163641  12.639   6.209   4.663
87248SOL    HW263642  12.653   6.305   4.547
87249SOL     OW63643   3.031   2.605   5.029
87249SOL    HW163644   3.100   2.659   5.068
87249SOL    HW263645   2.950   2.643   5.062
87250SOL     OW63646   3.900   2.180   6.495
87250SOL    HW163647   3.944   2.143   6.419
87250SOL    HW263648   3.939   2.266   6.506
87251SOL     OW63649  10.991   7.065  13.446
87251SOL    HW163650  11.014   7.146  13.401
87251SOL    HW263651  10.895   7.062  13.442
87252SOL     OW63652   4.989   2.571   3.594
87252SOL    HW163653   5.084   2.580   3.606
87252SOL    HW263654   4.977   2.569   3.499
87253SOL     OW63655   3.932   5.904  10.048
87253SOL    HW163656   4.018   5.929  10.013
87253SOL    HW263657   3.921   5.813  10.022
87254SOL     OW63658  12.589   7.650   6.892
87254SOL    HW163659  12.623   7.569   6.930
87254SOL    HW263660  12.638   7.719   6.937
87255SOL     OW63661  12.904  12.022   3.023
87255SOL    HW163662  12.931  11.971   3.099
87255SOL    HW263663  12.984  12.030   2.970
87256SOL     OW63664   2.650   6.349   0.763
87256SOL    HW163665   2.647   6.398   0.681
87256SOL    HW263666   2.725   6.384   0.810
87257SOL     OW63667   1.991  12.246   7.580
87257SOL    HW163668   2.013  12.330   7.621
87257SOL    HW263669   1.907  12.221   7.620
87258SOL     OW63670   0.092  13.484   1.593
87258SOL    HW163671   0.104  13.445   1.506
87258SOL    HW263672   0.151  13.560   1.593
87259SOL     OW63673  12.948  12.478   0.087
87259SOL    HW163674  12.982  12.539   0.153
87259SOL    HW263675  12.909  12.535   0.020
87260SOL     OW63676   9.114  14.150  12.771
87260SOL    HW163677   9.064  14.148  12.853
87260SOL    HW263678   9.205  14.161  12.799
87261SOL     OW63679   8.561   6.208   7.176
87261SOL    HW163680   8.573   6.185   7.084
87261SOL    HW263681   8.551   6.123   7.221
87262SOL     OW63682   1.530  13.277   5.209
87262SOL    HW163683   1.442  13.314   5.198
87262SOL    HW263684   1.574  13.294   5.126
87263SOL     OW63685   0.089   9.547  14.438
87263SOL    HW163686   0.077   9.596  14.520
87263SOL    HW263687   0.111   9.458  14.466
87264SOL     OW63688  14.029   2.174   6.580
87264SOL    HW163689  14.003   2.239   6.645
87264SOL    HW263690  14.017   2.218   6.496
87265SOL     OW63691   6.777   4.536   9.061
87265SOL    HW163692   6.709   4.590   9.103
87265SOL    HW263693   6.853   4.594   9.055
87266SOL     OW63694   7.751   1.696  12.215
87266SOL    HW163695   7.728   1.713  12.124
87266SOL    HW263696   7.778   1.604  12.216
87267SOL     OW63697   3.385  14.489  12.364
87267SOL    HW163698   3.453  14.544  12.323
87267SOL    HW263699   3.433  14.416  12.402
87268SOL     OW63700   4.429   7.538  11.124
87268SOL    HW163701   4.390   7.488  11.196
87268SOL    HW263702   4.391   7.625  11.132
87269SOL     OW63703   9.247  10.240  11.380
87269SOL    HW163704   9.171  10.249  11.323
87269SOL    HW263705   9.296  10.166  11.343
87270SOL     OW63706   2.836   8.913   6.861
87270SOL    HW163707   2.926   8.941   6.845
87270SOL    HW263708   2.802   8.888   6.775
87271SOL     OW63709   0.712   7.272  12.809
87271SOL    HW163710   0.753   7.219  12.741
87271SOL    HW263711   0.657   7.211  12.857
87272SOL     OW63712   3.109   1.973   6.167
87272SOL    HW163713   3.047   1.962   6.096
87272SOL    HW263714   3.176   1.906   6.151
87273SOL     OW63715   9.528   9.629   7.602
87273SOL    HW163716   9.588   9.600   7.670
87273SOL    HW263717   9.446   9.583   7.621
87274SOL     OW63718   2.082  14.366   2.284
87274SOL    HW163719   2.086  14.458   2.311
87274SOL    HW263720   2.165  14.329   2.316
87275SOL     OW63721  12.522   9.483   9.120
87275SOL    HW163722  12.591   9.504   9.183
87275SOL    HW263723  12.463   9.558   9.122
87276SOL     OW63724  10.556   5.493   4.737
87276SOL    HW163725  10.494   5.450   4.795
87276SOL    HW263726  10.510   5.498   4.653
87277SOL     OW63727   5.151   1.150  14.008
87277SOL    HW163728   5.187   1.076  13.959
87277SOL    HW263729   5.161   1.224  13.949
87278SOL     OW63730   4.506   7.421  10.862
87278SOL    HW163731   4.534   7.372  10.940
87278SOL    HW263732   4.464   7.499  10.897
87279SOL     OW63733  14.454  14.564  14.684
87279SOL    HW163734  14.419  14.476  14.676
87279SOL    HW263735  14.509  14.561  14.762
87280SOL     OW63736  14.822  10.794   8.320
87280SOL    HW163737  14.746  10.801   8.262
87280SOL    HW263738   0.000  10.871   8.298
87281SOL     OW63739   7.687   3.635   4.799
87281SOL    HW163740   7.686   3.541   4.779
87281SOL    HW263741   7.717   3.640   4.889
87282SOL     OW63742   6.057  14.207   7.808
87282SOL    HW163743   6.003  14.173   7.737
87282SOL    HW263744   6.008  14.283   7.841
87283SOL     OW63745  13.311  11.699   1.103
87283SOL    HW163746  13.358  11.769   1.149
87283SOL    HW263747  13.309  11.728   1.012
87284SOL     OW63748  10.828   0.820  10.269
87284SOL    HW163749  10.902   0.880  10.266
87284SOL    HW263750  10.861   0.738  10.231
87285SOL     OW63751   3.820   2.773   9.891
87285SOL    HW163752   3.748   2.766   9.828
87285SOL    HW263753   3.834   2.684   9.922
87286SOL     OW63754   2.210   4.363  10.259
87286SOL    HW163755   2.207   4.450  10.298
87286SOL    HW263756   2.149   4.368  10.185
87287SOL     OW63757  12.327  11.790   8.145
87287SOL    HW163758  12.265  11.784   8.072
87287SOL    HW263759  12.349  11.699   8.165
87288SOL     OW63760   3.888  11.655   3.414
87288SOL    HW163761   3.981  11.676   3.427
87288SOL    HW263762   3.886  11.609   3.330
87289SOL     OW63763   8.485   3.809   4.976
87289SOL    HW163764   8.465   3.800   4.883
87289SOL    HW263765   8.400   3.804   5.020
87290SOL     OW63766   5.451   5.330  10.038
87290SOL    HW163767   5.512   5.398  10.008
87290SOL    HW263768   5.409   5.299   9.958
87291SOL     OW63769   1.039  14.228   6.358
87291SOL    HW163770   0.964  14.278   6.392
87291SOL    HW263771   1.019  14.137   6.382
87292SOL     OW63772   2.840  13.980   0.665
87292SOL    HW163773   2.867  14.061   0.621
87292SOL    HW263774   2.747  13.993   0.684
87293SOL     OW63775   2.621   3.482   0.843
87293SOL    HW163776   2.658   3.563   0.878
87293SOL    HW263777   2.554   3.457   0.906
87294SOL     OW63778   9.053   0.582   6.108
87294SOL    HW163779   9.093   0.557   6.191
87294SOL    HW263780   8.960   0.594   6.128
87295SOL     OW63781   4.486   7.085  10.055
87295SOL    HW163782   4.460   7.077  10.147
87295SOL    HW263783   4.521   7.175  10.048
87296SOL     OW63784  14.635   9.937   2.087
87296SOL    HW163785  14.706   9.878   2.113
87296SOL    HW263786  14.612   9.983   2.168
87297SOL     OW63787   5.588  10.078   0.150
87297SOL    HW163788   5.554  10.157   0.108
87297SOL    HW263789   5.640  10.036   0.082
87298SOL     OW63790  11.771   4.742  11.429
87298SOL    HW163791  11.707   4.690  11.379
87298SOL    HW263792  11.856   4.708  11.401
87299SOL     OW63793  14.782   7.170   4.082
87299SOL    HW163794  14.796   7.256   4.042
87299SOL    HW263795  14.690   7.149   4.064
87300SOL     OW63796  10.973   8.451  11.767
87300SOL    HW163797  10.975   8.525  11.707
87300SOL    HW263798  10.952   8.488  11.852
87301SOL     OW63799   9.603  12.348   4.267
87301SOL    HW163800   9.645  12.276   4.219
87301SOL    HW263801   9.668  12.374   4.332
87302SOL     OW63802   5.820   8.288   6.218
87302SOL    HW163803   5.746   8.234   6.187
87302SOL    HW263804   5.851   8.334   6.140
87303SOL     OW63805   0.112   4.643   1.123
87303SOL    HW163806   0.129   4.601   1.208
87303SOL    HW263807   0.199   4.662   1.088
87304SOL     OW63808   6.297   7.014  12.008
87304SOL    HW163809   6.272   6.945  12.069
87304SOL    HW263810   6.244   7.089  12.033
87305SOL     OW63811  12.765  10.152   9.153
87305SOL    HW163812  12.838  10.099   9.184
87305SOL    HW263813  12.764  10.227   9.211
87306SOL     OW63814   9.181   3.511  14.691
87306SOL    HW163815   9.198   3.593  14.738
87306SOL    HW263816   9.214   3.526  14.603
87307SOL     OW63817  14.814   8.900   4.529
87307SOL    HW163818   0.013   8.867   4.478
87307SOL    HW263819  14.803   8.991   4.500
87308SOL     OW63820   4.302   7.845   4.905
87308SOL    HW163821   4.397   7.845   4.893
87308SOL    HW263822   4.273   7.765   4.862
87309SOL     OW63823  12.194   7.579   6.486
87309SOL    HW163824  12.284   7.607   6.468
87309SOL    HW263825  12.177   7.609   6.575
87310SOL     OW63826   1.685   7.452  11.824
87310SOL    HW163827   1.668   7.373  11.772
87310SOL    HW263828   1.773   7.479  11.798
87311SOL     OW63829  13.379   5.382   4.116
87311SOL    HW163830  13.297   5.378   4.165
87311SOL    HW263831  13.360   5.337   4.034
87312SOL     OW63832   3.681   6.921   0.516
87312SOL    HW163833   3.675   7.011   0.548
87312SOL    HW263834   3.590   6.894   0.500
87313SOL     OW63835   0.362   4.699   8.820
87313SOL    HW163836   0.380   4.760   8.892
87313SOL    HW263837   0.441   4.646   8.814
87314SOL     OW63838  10.202  11.259  14.363
87314SOL    HW163839  10.285  11.281  14.319
87314SOL    HW263840  10.145  11.334  14.345
87315SOL     OW63841   1.010   2.360  10.188
87315SOL    HW163842   0.917   2.338  10.178
87315SOL    HW263843   1.056   2.289  10.144
87316SOL     OW63844   5.028   1.340   8.594
87316SOL    HW163845   5.072   1.416   8.631
87316SOL    HW263846   4.985   1.297   8.668
87317SOL     OW63847   7.739  14.238   6.673
87317SOL    HW163848   7.818  14.257   6.723
87317SOL    HW263849   7.667  14.264   6.731
87318SOL     OW63850   1.652   9.406  12.603
87318SOL    HW163851   1.705   9.441  12.531
87318SOL    HW263852   1.708   9.418  12.680
87319SOL     OW63853  13.935  14.150  11.577
87319SOL    HW163854  13.854  14.138  11.626
87319SOL    HW263855  14.003  14.116  11.635
87320SOL     OW63856  12.197   6.617   4.422
87320SOL    HW163857  12.117   6.588   4.378
87320SOL    HW263858  12.267   6.569   4.378
87321SOL     OW63859  13.912   7.479   1.363
87321SOL    HW163860  13.922   7.531   1.284
87321SOL    HW263861  13.924   7.388   1.334
87322SOL     OW63862  14.763  10.109   8.189
87322SOL    HW163863  14.793  10.130   8.277
87322SOL    HW263864  14.694  10.044   8.203
87323SOL     OW63865   6.295   7.062   0.600
87323SOL    HW163866   6.324   7.153   0.591
87323SOL    HW263867   6.369   7.017   0.640
87324SOL     OW63868  13.741  10.241  10.969
87324SOL    HW163869  13.743  10.333  10.942
87324SOL    HW263870  13.743  10.192  10.887
87325SOL     OW63871  14.865  12.200  14.117
87325SOL    HW163872  14.869  12.122  14.172
87325SOL    HW263873  14.803  12.178  14.048
87326SOL     OW63874   1.922   2.743   7.212
87326SOL    HW163875   1.962   2.823   7.177
87326SOL    HW263876   1.846   2.729   7.156
87327SOL     OW63877  12.177   2.258  10.873
87327SOL    HW163878  12.187   2.192  10.804
87327SOL    HW263879  12.085   2.252  10.898
87328SOL     OW63880  14.211   3.648   3.634
87328SOL    HW163881  14.164   3.564   3.637
87328SOL    HW263882  14.226   3.664   3.541
87329SOL     OW63883   3.232  10.764   1.135
87329SOL    HW163884   3.217  10.798   1.223
87329SOL    HW263885   3.291  10.827   1.095
87330SOL     OW63886   3.630  12.884   6.794
87330SOL    HW163887   3.666  12.837   6.719
87330SOL    HW263888   3.707  12.915   6.842
87331SOL     OW63889  14.628   7.939   8.196
87331SOL    HW163890  14.693   7.880   8.156
87331SOL    HW263891  14.669   8.025   8.192
87332SOL     OW63892   5.498   0.159   6.338
87332SOL    HW163893   5.473   0.087   6.279
87332SOL    HW263894   5.591   0.171   6.322
87333SOL     OW63895  11.500  10.416  13.819
87333SOL    HW163896  11.519  10.354  13.890
87333SOL    HW263897  11.522  10.502  13.857
87334SOL     OW63898  13.761  10.286  11.313
87334SOL    HW163899  13.835  10.280  11.375
87334SOL    HW263900  13.802  10.309  11.230
87335SOL     OW63901  14.135   4.575  13.477
87335SOL    HW163902  14.184   4.514  13.421
87335SOL    HW263903  14.047   4.537  13.482
87336SOL     OW63904  11.081  14.592   9.519
87336SOL    HW163905  11.041  14.583   9.433
87336SOL    HW263906  11.164  14.636   9.502
87337SOL     OW63907  10.320   6.132   6.546
87337SOL    HW163908  10.403   6.105   6.585
87337SOL    HW263909  10.343   6.203   6.486
87338SOL     OW63910   1.701   5.276   2.695
87338SOL    HW163911   1.609   5.273   2.669
87338SOL    HW263912   1.705   5.343   2.763
87339SOL     OW63913   8.317   3.841  11.313
87339SOL    HW163914   8.276   3.925  11.292
87339SOL    HW263915   8.379   3.862  11.382
87340SOL     OW63916   2.575  10.782  14.092
87340SOL    HW163917   2.622  10.817  14.168
87340SOL    HW263918   2.638  10.724  14.049
87341SOL     OW63919   5.079   5.783   4.014
87341SOL    HW163920   4.986   5.803   4.024
87341SOL    HW263921   5.108   5.758   4.102
87342SOL     OW63922   9.553   1.640   7.087
87342SOL    HW163923   9.501   1.643   7.167
87342SOL    HW263924   9.570   1.547   7.073
87343SOL     OW63925   6.989   0.936  10.760
87343SOL    HW163926   6.915   0.897  10.713
87343SOL    HW263927   7.066   0.902  10.715
87344SOL     OW63928   1.693  10.758   6.335
87344SOL    HW163929   1.729  10.841   6.365
87344SOL    HW263930   1.705  10.698   6.409
87345SOL     OW63931   8.970   7.113  11.400
87345SOL    HW163932   9.030   7.065  11.458
87345SOL    HW263933   8.895   7.134  11.456
87346SOL     OW63934   5.407  11.743  12.651
87346SOL    HW163935   5.482  11.689  12.630
87346SOL    HW263936   5.370  11.704  12.730
87347SOL     OW63937   8.076   8.465   9.894
87347SOL    HW163938   8.159   8.512   9.896
87347SOL    HW263939   8.082   8.402   9.966
87348SOL     OW63940   9.690   7.045   9.489
87348SOL    HW163941   9.716   6.953   9.490
87348SOL    HW263942   9.662   7.063   9.579
87349SOL     OW63943   6.956   9.867   5.617
87349SOL    HW163944   6.873   9.889   5.576
87349SOL    HW263945   6.953   9.773   5.631
87350SOL     OW63946   9.185   8.628   1.191
87350SOL    HW163947   9.139   8.560   1.241
87350SOL    HW263948   9.278   8.606   1.200
87351SOL     OW63949   9.603   9.552  11.382
87351SOL    HW163950   9.575   9.601  11.460
87351SOL    HW263951   9.565   9.465  11.393
87352SOL     OW63952   3.808  11.341   1.118
87352SOL    HW163953   3.829  11.279   1.049
87352SOL    HW263954   3.845  11.302   1.197
87353SOL     OW63955   3.694   8.389   0.111
87353SOL    HW163956   3.785   8.399   0.139
87353SOL    HW263957   3.648   8.462   0.152
87354SOL     OW63958   3.446   7.905   1.986
87354SOL    HW163959   3.508   7.849   2.032
87354SOL    HW263960   3.382   7.931   2.052
87355SOL     OW63961   1.087   0.531   3.605
87355SOL    HW163962   1.034   0.496   3.533
87355SOL    HW263963   1.135   0.604   3.566
87356SOL     OW63964   0.871   1.098   7.638
87356SOL    HW163965   0.843   1.009   7.617
87356SOL    HW263966   0.840   1.113   7.727
87357SOL     OW63967   2.499  11.057  12.913
87357SOL    HW163968   2.551  11.077  12.835
87357SOL    HW263969   2.431  11.124  12.915
87358SOL     OW63970   8.257   8.595  14.219
87358SOL    HW163971   8.269   8.666  14.156
87358SOL    HW263972   8.174   8.553  14.193
87359SOL     OW63973   0.418   4.893   2.063
87359SOL    HW163974   0.412   4.821   1.999
87359SOL    HW263975   0.441   4.969   2.011
87360SOL     OW63976   0.962   3.449   6.927
87360SOL    HW163977   0.897   3.411   6.869
87360SOL    HW263978   1.025   3.379   6.942
87361SOL     OW63979   3.320   5.510   2.383
87361SOL    HW163980   3.267   5.588   2.395
87361SOL    HW263981   3.286   5.470   2.303
87362SOL     OW63982   6.602  11.069   8.212
87362SOL    HW163983   6.518  11.067   8.259
87362SOL    HW263984   6.615  10.979   8.182
87363SOL     OW63985   0.667  13.321  14.286
87363SOL    HW163986   0.616  13.300  14.365
87363SOL    HW263987   0.629  13.264  14.218
87364SOL     OW63988   4.923   3.637   9.029
87364SOL    HW163989   4.985   3.648   9.101
87364SOL    HW263990   4.946   3.552   8.991
87365SOL     OW63991  11.092   6.779   3.917
87365SOL    HW163992  11.093   6.705   3.856
87365SOL    HW263993  11.178   6.776   3.960
87366SOL     OW63994   6.505   4.389   8.308
87366SOL    HW163995   6.435   4.416   8.368
87366SOL    HW263996   6.576   4.451   8.326
87367SOL     OW63997   3.367   7.870   7.426
87367SOL    HW163998   3.459   7.851   7.445
87367SOL    HW263999   3.321   7.790   7.451
87368SOL     OW64000  12.224   4.218   2.730
87368SOL    HW164001  12.266   4.137   2.700
87368SOL    HW264002  12.216   4.207   2.825
87369SOL     OW64003   0.653   9.358   7.896
87369SOL    HW164004   0.722   9.331   7.835
87369SOL    HW264005   0.598   9.280   7.905
87370SOL     OW64006  11.711   8.810   2.165
87370SOL    HW164007  11.718   8.903   2.191
87370SOL    HW264008  11.654   8.771   2.232
87371SOL     OW64009  13.069  11.749   7.853
87371SOL    HW164010  13.035  11.816   7.792
87371SOL    HW264011  13.148  11.716   7.810
87372SOL     OW64012   2.990  12.244   0.185
87372SOL    HW164013   2.920  12.272   0.125
87372SOL    HW264014   2.958  12.270   0.271
87373SOL     OW64015  14.026   0.638   1.804
87373SOL    HW164016  14.070   0.685   1.875
87373SOL    HW264017  14.058   0.679   1.724
87374SOL     OW64018   8.320   2.492  10.561
87374SOL    HW164019   8.365   2.575  10.577
87374SOL    HW264020   8.229   2.517  10.546
87375SOL     OW64021  11.076   5.951   2.324
87375SOL    HW164022  11.041   5.990   2.244
87375SOL    HW264023  11.106   5.864   2.297
87376SOL     OW64024  10.733   9.491   7.690
87376SOL    HW164025  10.828   9.486   7.701
87376SOL    HW264026  10.700   9.512   7.777
87377SOL     OW64027   1.656   6.605   3.039
87377SOL    HW164028   1.660   6.616   3.134
87377SOL    HW264029   1.629   6.691   3.006
87378SOL     OW64030   3.774   4.159   9.782
87378SOL    HW164031   3.828   4.144   9.705
87378SOL    HW264032   3.779   4.253   9.798
87379SOL     OW64033  13.343  10.062  13.994
87379SOL    HW164034  13.267  10.089  13.942
87379SOL    HW264035  13.309   9.992  14.051
87380SOL     OW64036   9.292   5.087  11.672
87380SOL    HW164037   9.335   5.022  11.727
87380SOL    HW264038   9.312   5.171  11.714
87381SOL     OW64039   5.165  14.633  12.845
87381SOL    HW164040   5.152  14.724  12.817
87381SOL    HW264041   5.099  14.619  12.913
87382SOL     OW64042   1.368   4.111   3.950
87382SOL    HW164043   1.422   4.183   3.919
87382SOL    HW264044   1.389   4.102   4.043
87383SOL     OW64045   7.878  11.443   0.982
87383SOL    HW164046   7.890  11.478   0.893
87383SOL    HW264047   7.862  11.350   0.969
87384SOL     OW64048  14.857   5.975  12.177
87384SOL    HW164049  14.799   5.954  12.104
87384SOL    HW264050   0.008   5.889  12.212
87385SOL     OW64051   4.656  14.638  13.417
87385SOL    HW164052   4.674  14.544  13.414
87385SOL    HW264053   4.737  14.679  13.390
87386SOL     OW64054   6.594  11.033   7.277
87386SOL    HW164055   6.612  11.008   7.186
87386SOL    HW264056   6.678  11.066   7.309
87387SOL     OW64057   5.190  10.040   4.757
87387SOL    HW164058   5.238  10.024   4.838
87387SOL    HW264059   5.106   9.996   4.769
87388SOL     OW64060   9.885  12.285   3.162
87388SOL    HW164061   9.847  12.244   3.084
87388SOL    HW264062   9.902  12.213   3.222
87389SOL     OW64063   3.727   4.559   0.749
87389SOL    HW164064   3.786   4.527   0.818
87389SOL    HW264065   3.640   4.549   0.786
87390SOL     OW64066  14.232   1.701   4.507
87390SOL    HW164067  14.217   1.638   4.436
87390SOL    HW264068  14.224   1.787   4.464
87391SOL     OW64069   9.191   3.450   2.154
87391SOL    HW164070   9.173   3.428   2.245
87391SOL    HW264071   9.105   3.451   2.112
87392SOL     OW64072  14.260   5.529  11.431
87392SOL    HW164073  14.315   5.593  11.477
87392SOL    HW264074  14.251   5.457  11.493
87393SOL     OW64075  11.636  11.774   0.701
87393SOL    HW164076  11.659  11.685   0.728
87393SOL    HW264077  11.646  11.826   0.781
87394SOL     OW64078   8.562   8.634   0.711
87394SOL    HW164079   8.507   8.701   0.753
87394SOL    HW264080   8.633   8.684   0.670
87395SOL     OW64081   4.210   8.496  13.343
87395SOL    HW164082   4.288   8.482  13.290
87395SOL    HW264083   4.230   8.454  13.427
87396SOL     OW64084   0.877  13.512   6.946
87396SOL    HW164085   0.831  13.585   6.988
87396SOL    HW264086   0.822  13.436   6.964
87397SOL     OW64087   5.948   3.805  11.916
87397SOL    HW164088   5.923   3.882  11.966
87397SOL    HW264089   5.881   3.797  11.849
87398SOL     OW64090   2.231   4.567   6.894
87398SOL    HW164091   2.146   4.524   6.899
87398SOL    HW264092   2.280   4.516   6.829
87399SOL     OW64093  11.367  11.660   8.471
87399SOL    HW164094  11.361  11.575   8.515
87399SOL    HW264095  11.460  11.674   8.457
87400SOL     OW64096   1.255   3.417   0.314
87400SOL    HW164097   1.228   3.456   0.231
87400SOL    HW264098   1.196   3.456   0.379
87401SOL     OW64099   5.005   4.299  14.731
87401SOL    HW164100   4.988   4.375  14.675
87401SOL    HW264101   5.081   4.323  14.783
87402SOL     OW64102   7.674   0.273   5.243
87402SOL    HW164103   7.663   0.347   5.303
87402SOL    HW264104   7.643   0.306   5.158
87403SOL     OW64105   9.761   7.525   1.525
87403SOL    HW164106   9.709   7.564   1.596
87403SOL    HW264107   9.840   7.579   1.522
87404SOL     OW64108   5.063   8.157   9.028
87404SOL    HW164109   5.046   8.209   9.106
87404SOL    HW264110   5.058   8.220   8.956
87405SOL     OW64111   5.674  11.783  13.812
87405SOL    HW164112   5.750  11.750  13.862
87405SOL    HW264113   5.644  11.859  13.861
87406SOL     OW64114   9.992   9.366  10.004
87406SOL    HW164115   9.918   9.305  10.004
87406SOL    HW264116   9.954   9.451  10.022
87407SOL     OW64117   5.083   0.844  11.083
87407SOL    HW164118   5.157   0.785  11.093
87407SOL    HW264119   5.054   0.861  11.173
87408SOL     OW64120   5.255   9.320   2.164
87408SOL    HW164121   5.177   9.331   2.110
87408SOL    HW264122   5.309   9.258   2.115
87409SOL     OW64123  10.326   0.527   6.265
87409SOL    HW164124  10.317   0.558   6.355
87409SOL    HW264125  10.258   0.575   6.217
87410SOL     OW64126  12.496  11.561   2.351
87410SOL    HW164127  12.549  11.517   2.417
87410SOL    HW264128  12.553  11.567   2.275
87411SOL     OW64129   4.348   7.866   6.338
87411SOL    HW164130   4.366   7.945   6.287
87411SOL    HW264131   4.396   7.797   6.292
87412SOL     OW64132  14.183   8.246   2.291
87412SOL    HW164133  14.170   8.155   2.318
87412SOL    HW264134  14.096   8.285   2.298
87413SOL     OW64135  10.806   7.145   3.909
87413SOL    HW164136  10.861   7.199   3.852
87413SOL    HW264137  10.785   7.202   3.983
87414SOL     OW64138  11.864   3.356   7.600
87414SOL    HW164139  11.915   3.276   7.614
87414SOL    HW264140  11.865   3.400   7.685
87415SOL     OW64141  13.931  12.366   1.077
87415SOL    HW164142  13.939  12.285   1.127
87415SOL    HW264143  13.937  12.435   1.144
87416SOL     OW64144   0.268   4.569  13.284
87416SOL    HW164145   0.306   4.605  13.204
87416SOL    HW264146   0.174   4.562  13.265
87417SOL     OW64147   6.329   3.960   7.234
87417SOL    HW164148   6.322   3.890   7.169
87417SOL    HW264149   6.338   4.040   7.182
87418SOL     OW64150   9.941  12.136  13.615
87418SOL    HW164151   9.939  12.135  13.519
87418SOL    HW264152   9.860  12.092  13.641
87419SOL     OW64153   3.072   1.119  12.777
87419SOL    HW164154   3.071   1.033  12.819
87419SOL    HW264155   3.048   1.102  12.686
87420SOL     OW64156  11.322   5.516  11.230
87420SOL    HW164157  11.304   5.462  11.307
87420SOL    HW264158  11.275   5.598  11.247
87421SOL     OW64159   9.794  11.692   0.626
87421SOL    HW164160   9.819  11.703   0.534
87421SOL    HW264161   9.877  11.691   0.674
87422SOL     OW64162  11.745   2.519  14.376
87422SOL    HW164163  11.827   2.520  14.328
87422SOL    HW264164  11.757   2.452  14.443
87423SOL     OW64165   0.317   6.808   0.164
87423SOL    HW164166   0.389   6.768   0.116
87423SOL    HW264167   0.268   6.857   0.098
87424SOL     OW64168   5.774   9.281   4.755
87424SOL    HW164169   5.775   9.317   4.843
87424SOL    HW264170   5.864   9.254   4.738
87425SOL     OW64171   6.215   2.995  14.140
87425SOL    HW164172   6.289   3.055  14.128
87425SOL    HW264173   6.139   3.052  14.149
87426SOL     OW64174  14.032   0.298   7.984
87426SOL    HW164175  13.955   0.353   7.996
87426SOL    HW264176  14.100   0.340   8.036
87427SOL     OW64177  10.620  12.773  14.753
87427SOL    HW164178  10.670  12.827  14.815
87427SOL    HW264179  10.529  12.794  14.772
87428SOL     OW64180   6.282  11.750   7.395
87428SOL    HW164181   6.196  11.791   7.386
87428SOL    HW264182   6.267  11.657   7.375
87429SOL     OW64183  13.971  13.993  10.733
87429SOL    HW164184  13.916  13.942  10.792
87429SOL    HW264185  13.992  13.933  10.661
87430SOL     OW64186   5.285   0.585  13.262
87430SOL    HW164187   5.297   0.568  13.169
87430SOL    HW264188   5.308   0.502  13.304
87431SOL     OW64189   4.293   6.844   2.892
87431SOL    HW164190   4.340   6.776   2.940
87431SOL    HW264191   4.220   6.867   2.949
87432SOL     OW64192  14.279   9.589   1.631
87432SOL    HW164193  14.310   9.506   1.596
87432SOL    HW264194  14.358   9.631   1.666
87433SOL     OW64195  12.940   5.853  12.052
87433SOL    HW164196  12.939   5.764  12.088
87433SOL    HW264197  12.857   5.860  12.004
87434SOL     OW64198   0.447   9.649  13.700
87434SOL    HW164199   0.352   9.635  13.693
87434SOL    HW264200   0.468   9.623  13.789
87435SOL     OW64201   9.696   5.771   3.219
87435SOL    HW164202   9.619   5.765   3.162
87435SOL    HW264203   9.687   5.696   3.279
87436SOL     OW64204  13.612  13.399   0.075
87436SOL    HW164205  13.656  13.478   0.043
87436SOL    HW264206  13.632  13.332   0.009
87437SOL     OW64207   2.742   7.843   5.535
87437SOL    HW164208   2.693   7.789   5.597
87437SOL    HW264209   2.833   7.837   5.564
87438SOL     OW64210  13.625   5.363   0.296
87438SOL    HW164211  13.671   5.446   0.283
87438SOL    HW264212  13.570   5.377   0.373
87439SOL     OW64213   1.796  14.214  10.697
87439SOL    HW164214   1.880  14.169  10.685
87439SOL    HW264215   1.774  14.245  10.609
87440SOL     OW64216  12.942   0.888   9.106
87440SOL    HW164217  12.918   0.825   9.175
87440SOL    HW264218  13.007   0.842   9.054
87441SOL     OW64219  14.330  11.883   8.774
87441SOL    HW164220  14.281  11.858   8.852
87441SOL    HW264221  14.355  11.974   8.789
87442SOL     OW64222  13.386   5.248   6.460
87442SOL    HW164223  13.337   5.328   6.480
87442SOL    HW264224  13.473   5.263   6.496
87443SOL     OW64225   9.287   0.496   8.965
87443SOL    HW164226   9.226   0.483   9.038
87443SOL    HW264227   9.231   0.492   8.887
87444SOL     OW64228  14.525  11.699   3.286
87444SOL    HW164229  14.486  11.760   3.348
87444SOL    HW264230  14.480  11.616   3.302
87445SOL     OW64231   8.968   4.581   3.707
87445SOL    HW164232   8.939   4.540   3.626
87445SOL    HW264233   9.063   4.575   3.705
87446SOL     OW64234  10.933   1.746  12.252
87446SOL    HW164235  10.936   1.840  12.266
87446SOL    HW264236  11.011   1.727  12.199
87447SOL     OW64237   4.335   2.737   0.108
87447SOL    HW164238   4.292   2.822   0.111
87447SOL    HW264239   4.384   2.738   0.025
87448SOL     OW64240   7.820   9.981  12.937
87448SOL    HW164241   7.852  10.014  12.852
87448SOL    HW264242   7.848  10.048  13.000
87449SOL     OW64243   5.176  14.811   3.690
87449SOL    HW164244   5.184  14.783   3.782
87449SOL    HW264245   5.135   0.022   3.694
87450SOL     OW64246   0.226   7.473  11.261
87450SOL    HW164247   0.215   7.512  11.174
87450SOL    HW264248   0.153   7.507  11.312
87451SOL     OW64249   4.843   8.019   1.401
87451SOL    HW164250   4.862   8.111   1.383
87451SOL    HW264251   4.897   7.971   1.339
87452SOL     OW64252   8.887   3.722   8.235
87452SOL    HW164253   8.797   3.753   8.247
87452SOL    HW264254   8.925   3.724   8.322
87453SOL     OW64255   7.947   7.165  14.514
87453SOL    HW164256   7.927   7.198  14.601
87453SOL    HW264257   7.949   7.070  14.524
87454SOL     OW64258   1.035   9.124   6.595
87454SOL    HW164259   1.019   9.203   6.542
87454SOL    HW264260   1.095   9.072   6.542
87455SOL     OW64261  10.033   9.453   9.736
87455SOL    HW164262  10.046   9.395   9.811
87455SOL    HW264263   9.938   9.455   9.725
87456SOL     OW64264  13.551  14.597   8.955
87456SOL    HW164265  13.510  14.515   8.984
87456SOL    HW264266  13.525  14.606   8.864
87457SOL     OW64267   0.930  13.081  12.927
87457SOL    HW164268   0.966  13.153  12.978
87457SOL    HW264269   0.848  13.059  12.972
87458SOL     OW64270   3.136   1.335   4.010
87458SOL    HW164271   3.115   1.392   4.084
87458SOL    HW264272   3.176   1.394   3.945
87459SOL     OW64273   8.687   4.224  10.186
87459SOL    HW164274   8.624   4.284  10.145
87459SOL    HW264275   8.647   4.201  10.270
87460SOL     OW64276  13.247   1.349   8.936
87460SOL    HW164277  13.205   1.409   8.998
87460SOL    HW264278  13.220   1.261   8.965
87461SOL     OW64279  13.995   7.576  12.909
87461SOL    HW164280  14.084   7.612  12.915
87461SOL    HW264281  14.004   7.501  12.850
87462SOL     OW64282   1.426   5.265  11.310
87462SOL    HW164283   1.448   5.265  11.217
87462SOL    HW264284   1.499   5.310  11.352
87463SOL     OW64285  11.318   0.359   0.312
87463SOL    HW164286  11.323   0.267   0.285
87463SOL    HW264287  11.228   0.385   0.293
87464SOL     OW64288   4.290   1.856  14.149
87464SOL    HW164289   4.375   1.837  14.189
87464SOL    HW264290   4.291   1.951  14.135
87465SOL     OW64291   5.233  10.018   1.219
87465SOL    HW164292   5.192   9.950   1.272
87465SOL    HW264293   5.216  10.099   1.267
87466SOL     OW64294   9.123   0.587   8.552
87466SOL    HW164295   9.111   0.681   8.561
87466SOL    HW264296   9.217   0.575   8.540
87467SOL     OW64297  14.217   1.042   0.837
87467SOL    HW164298  14.125   1.028   0.817
87467SOL    HW264299  14.263   1.028   0.754
87468SOL     OW64300  11.703   8.789   4.693
87468SOL    HW164301  11.678   8.873   4.732
87468SOL    HW264302  11.662   8.790   4.606
87469SOL     OW64303   0.448   3.003  11.256
87469SOL    HW164304   0.533   3.047  11.255
87469SOL    HW264305   0.431   2.986  11.348
87470SOL     OW64306   7.142  10.512  14.476
87470SOL    HW164307   7.055  10.540  14.504
87470SOL    HW264308   7.162  10.435  14.528
87471SOL     OW64309   1.444   5.271   0.528
87471SOL    HW164310   1.383   5.242   0.596
87471SOL    HW264311   1.396   5.338   0.480
87472SOL     OW64312  14.515  13.897   2.662
87472SOL    HW164313  14.541  13.953   2.590
87472SOL    HW264314  14.565  13.928   2.737
87473SOL     OW64315   9.600   3.028  10.443
87473SOL    HW164316   9.525   3.011  10.500
87473SOL    HW264317   9.626   2.942  10.411
87474SOL     OW64318   6.388   4.277   5.576
87474SOL    HW164319   6.359   4.204   5.522
87474SOL    HW264320   6.375   4.354   5.522
87475SOL     OW64321   4.510   0.843   5.190
87475SOL    HW164322   4.559   0.891   5.257
87475SOL    HW264323   4.420   0.842   5.223
87476SOL     OW64324  13.685  13.432   1.777
87476SOL    HW164325  13.632  13.446   1.699
87476SOL    HW264326  13.622  13.426   1.849
87477SOL     OW64327  12.700  14.782   6.388
87477SOL    HW164328  12.717  14.859   6.443
87477SOL    HW264329  12.623  14.806   6.337
87478SOL     OW64330   8.466  13.603   6.364
87478SOL    HW164331   8.424  13.521   6.338
87478SOL    HW264332   8.439  13.617   6.455
87479SOL     OW64333   4.479  11.417  11.373
87479SOL    HW164334   4.387  11.432  11.394
87479SOL    HW264335   4.479  11.387  11.283
87480SOL     OW64336   0.302  14.161   0.979
87480SOL    HW164337   0.216  14.202   0.969
87480SOL    HW264338   0.290  14.073   0.942
87481SOL     OW64339  13.195   0.779   9.494
87481SOL    HW164340  13.190   0.720   9.419
87481SOL    HW264341  13.255   0.734   9.555
87482SOL     OW64342   7.897   8.388   9.679
87482SOL    HW164343   7.953   8.405   9.755
87482SOL    HW264344   7.918   8.298   9.654
87483SOL     OW64345   3.626   6.533   7.692
87483SOL    HW164346   3.692   6.598   7.670
87483SOL    HW264347   3.644   6.460   7.634
87484SOL     OW64348   6.527  10.240   4.401
87484SOL    HW164349   6.593  10.251   4.332
87484SOL    HW264350   6.536  10.149   4.428
87485SOL     OW64351   5.519  13.347  13.547
87485SOL    HW164352   5.514  13.440  13.570
87485SOL    HW264353   5.598  13.316  13.592
87486SOL     OW64354   4.920   9.576  11.485
87486SOL    HW164355   4.936   9.568  11.579
87486SOL    HW264356   5.001   9.544  11.444
87487SOL     OW64357   8.892   0.727   3.093
87487SOL    HW164358   8.828   0.670   3.136
87487SOL    HW264359   8.977   0.696   3.125
87488SOL     OW64360   8.185  13.311   7.260
87488SOL    HW164361   8.181  13.303   7.164
87488SOL    HW264362   8.273  13.344   7.277
87489SOL     OW64363   2.982  10.599   7.905
87489SOL    HW164364   2.934  10.576   7.985
87489SOL    HW264365   2.934  10.673   7.869
87490SOL     OW64366  14.697   1.362  10.109
87490SOL    HW164367  14.688   1.352  10.204
87490SOL    HW264368  14.649   1.442  10.089
87491SOL     OW64369  13.256  12.449  14.422
87491SOL    HW164370  13.163  12.451  14.398
87491SOL    HW264371  13.285  12.539  14.410
87492SOL     OW64372   5.300   4.794  14.609
87492SOL    HW164373   5.391   4.766  14.621
87492SOL    HW264374   5.263   4.729  14.549
87493SOL     OW64375  11.419   7.711   6.767
87493SOL    HW164376  11.436   7.782   6.705
87493SOL    HW264377  11.384   7.640   6.713
87494SOL     OW64378   6.992  14.406   7.715
87494SOL    HW164379   7.033  14.470   7.658
87494SOL    HW264380   7.051  14.399   7.790
87495SOL     OW64381  11.035  13.274   1.211
87495SOL    HW164382  11.127  13.247   1.209
87495SOL    HW264383  10.998  13.231   1.288
87496SOL     OW64384   5.762  12.528   4.346
87496SOL    HW164385   5.707  12.510   4.270
87496SOL    HW264386   5.796  12.617   4.331
87497SOL     OW64387   0.185   8.516   2.700
87497SOL    HW164388   0.145   8.451   2.758
87497SOL    HW264389   0.238   8.570   2.757
87498SOL     OW64390   2.012   6.716   6.838
87498SOL    HW164391   1.976   6.661   6.768
87498SOL    HW264392   1.983   6.673   6.919
87499SOL     OW64393  13.252  10.125   5.919
87499SOL    HW164394  13.172  10.163   5.884
87499SOL    HW264395  13.322  10.184   5.890
87500SOL     OW64396   4.573  13.741   4.799
87500SOL    HW164397   4.521  13.802   4.852
87500SOL    HW264398   4.564  13.657   4.844
87501SOL     OW64399   7.586   9.583  12.982
87501SOL    HW164400   7.605   9.523  13.055
87501SOL    HW264401   7.625   9.666  13.008
87502SOL     OW64402  11.986  11.895   5.334
87502SOL    HW164403  11.998  11.925   5.244
87502SOL    HW264404  12.028  11.962   5.388
87503SOL     OW64405  11.977  14.050   3.959
87503SOL    HW164406  11.976  14.055   3.863
87503SOL    HW264407  11.929  14.127   3.988
87504SOL     OW64408   7.129  11.918   3.085
87504SOL    HW164409   7.076  11.864   3.143
87504SOL    HW264410   7.092  12.006   3.094
87505SOL     OW64411   7.525  12.581   2.312
87505SOL    HW164412   7.510  12.532   2.231
87505SOL    HW264413   7.531  12.514   2.380
87506SOL     OW64414  10.047   1.926  14.033
87506SOL    HW164415  10.052   1.976  14.115
87506SOL    HW264416  10.036   1.835  14.061
87507SOL     OW64417   9.150   9.763  14.350
87507SOL    HW164418   9.207   9.731  14.280
87507SOL    HW264419   9.200   9.748  14.430
87508SOL     OW64420   0.827  11.577  14.513
87508SOL    HW164421   0.871  11.534  14.586
87508SOL    HW264422   0.895  11.587  14.447
87509SOL     OW64423  14.327   5.018  14.816
87509SOL    HW164424  14.383   5.082  14.773
87509SOL    HW264425  14.380   4.986   0.015
87510SOL     OW64426   6.020  13.159  14.111
87510SOL    HW164427   5.977  13.075  14.130
87510SOL    HW264428   6.086  13.137  14.045
87511SOL     OW64429   5.974  13.876   9.806
87511SOL    HW164430   6.023  13.957   9.821
87511SOL    HW264431   6.041  13.808   9.796
87512SOL     OW64432   1.594   6.114  11.129
87512SOL    HW164433   1.564   6.204  11.129
87512SOL    HW264434   1.591   6.087  11.221
87513SOL     OW64435  12.777  12.009   5.039
87513SOL    HW164436  12.805  12.025   4.949
87513SOL    HW264437  12.817  12.080   5.090
87514SOL     OW64438  14.402  13.195   6.617
87514SOL    HW164439  14.402  13.099   6.616
87514SOL    HW264440  14.339  13.218   6.685
87515SOL     OW64441  12.894   2.745   4.674
87515SOL    HW164442  12.833   2.685   4.718
87515SOL    HW264443  12.931   2.693   4.602
87516SOL     OW64444  14.852  11.929  14.223
87516SOL    HW164445  14.791  11.885  14.281
87516SOL    HW264446   0.010  11.859  14.166
87517SOL     OW64447   7.205   9.646   9.474
87517SOL    HW164448   7.123   9.655   9.426
87517SOL    HW264449   7.257   9.722   9.448
87518SOL     OW64450   0.990  11.227   9.600
87518SOL    HW164451   1.064  11.187   9.554
87518SOL    HW264452   1.021  11.242   9.689
87519SOL     OW64453  11.934   6.875   5.400
87519SOL    HW164454  11.945   6.811   5.470
87519SOL    HW264455  11.892   6.826   5.329
87520SOL     OW64456   9.568   0.974   4.595
87520SOL    HW164457   9.498   0.912   4.614
87520SOL    HW264458   9.525   1.060   4.593
87521SOL     OW64459   4.059   8.113   6.612
87521SOL    HW164460   4.042   8.205   6.632
87521SOL    HW264461   4.000   8.092   6.540
87522SOL     OW64462  11.719  12.799   4.634
87522SOL    HW164463  11.721  12.740   4.709
87522SOL    HW264464  11.687  12.882   4.670
87523SOL     OW64465   5.449   5.086  13.467
87523SOL    HW164466   5.490   5.006  13.499
87523SOL    HW264467   5.397   5.058  13.392
87524SOL     OW64468  14.824   8.968  10.222
87524SOL    HW164469   0.041   8.995  10.222
87524SOL    HW264470  14.797   8.975  10.131
87525SOL     OW64471   2.628   7.449   4.555
87525SOL    HW164472   2.581   7.505   4.617
87525SOL    HW264473   2.580   7.366   4.557
87526SOL     OW64474   6.055   8.725  13.752
87526SOL    HW164475   6.135   8.736  13.803
87526SOL    HW264476   5.984   8.748  13.812
87527SOL     OW64477   8.221   8.989   9.803
87527SOL    HW164478   8.295   9.008   9.744
87527SOL    HW264479   8.224   8.895   9.816
87528SOL     OW64480   5.235   1.597   2.887
87528SOL    HW164481   5.324   1.630   2.873
87528SOL    HW264482   5.212   1.628   2.975
87529SOL     OW64483  10.556  11.753   8.973
87529SOL    HW164484  10.606  11.679   9.008
87529SOL    HW264485  10.571  11.824   9.036
87530SOL     OW64486   3.063  14.837  13.613
87530SOL    HW164487   3.049  14.817  13.520
87530SOL    HW264488   2.975  14.836  13.651
87531SOL     OW64489   9.763   6.545   1.684
87531SOL    HW164490   9.849   6.506   1.670
87531SOL    HW264491   9.732   6.567   1.596
87532SOL     OW64492  13.327   8.383  12.747
87532SOL    HW164493  13.290   8.306  12.705
87532SOL    HW264494  13.415   8.392  12.710
87533SOL     OW64495  11.894   3.774   0.060
87533SOL    HW164496  11.942   3.756   0.140
87533SOL    HW264497  11.935   3.853   0.024
87534SOL     OW64498   8.538   3.284  11.004
87534SOL    HW164499   8.465   3.247  11.054
87534SOL    HW264500   8.538   3.234  10.922
87535SOL     OW64501  10.658   4.120   3.218
87535SOL    HW164502  10.682   4.167   3.139
87535SOL    HW264503  10.564   4.136   3.228
87536SOL     OW64504   5.636  10.204   7.326
87536SOL    HW164505   5.654  10.154   7.246
87536SOL    HW264506   5.689  10.162   7.393
87537SOL     OW64507   4.725  13.891   7.902
87537SOL    HW164508   4.651  13.909   7.960
87537SOL    HW264509   4.691  13.826   7.840
87538SOL     OW64510   6.847   6.484  14.012
87538SOL    HW164511   6.838   6.420  14.083
87538SOL    HW264512   6.941   6.502  14.009
87539SOL     OW64513   9.690   6.866   8.808
87539SOL    HW164514   9.709   6.817   8.888
87539SOL    HW264515   9.613   6.822   8.771
87540SOL     OW64516   3.877   3.576   1.043
87540SOL    HW164517   3.818   3.536   1.107
87540SOL    HW264518   3.898   3.505   0.982
87541SOL     OW64519   4.063   9.220  14.590
87541SOL    HW164520   4.101   9.186  14.509
87541SOL    HW264521   4.004   9.150  14.619
87542SOL     OW64522  14.340   1.949   9.851
87542SOL    HW164523  14.321   1.943   9.758
87542SOL    HW264524  14.263   1.911   9.894
87543SOL     OW64525   2.432   6.872   7.711
87543SOL    HW164526   2.381   6.792   7.723
87543SOL    HW264527   2.491   6.851   7.638
87544SOL     OW64528  12.757  12.429   8.250
87544SOL    HW164529  12.825  12.396   8.191
87544SOL    HW264530  12.747  12.522   8.226
87545SOL     OW64531   7.648  11.957  12.167
87545SOL    HW164532   7.707  11.922  12.233
87545SOL    HW264533   7.595  12.021  12.214
87546SOL     OW64534   7.153   5.205   4.785
87546SOL    HW164535   7.206   5.256   4.846
87546SOL    HW264536   7.143   5.263   4.709
87547SOL     OW64537   4.310  14.373  14.789
87547SOL    HW164538   4.312  14.294  14.735
87547SOL    HW264539   4.301  14.445  14.727
87548SOL     OW64540  13.793   3.241   4.264
87548SOL    HW164541  13.722   3.304   4.271
87548SOL    HW264542  13.750   3.156   4.274
87549SOL     OW64543   5.652   4.334   6.242
87549SOL    HW164544   5.745   4.330   6.267
87549SOL    HW264545   5.644   4.416   6.193
87550SOL     OW64546   6.899   1.014   0.799
87550SOL    HW164547   6.975   1.021   0.857
87550SOL    HW264548   6.936   1.009   0.711
87551SOL     OW64549   0.174   0.756  12.649
87551SOL    HW164550   0.099   0.698  12.662
87551SOL    HW264551   0.155   0.804  12.569
87552SOL     OW64552   0.045   0.470   2.640
87552SOL    HW164553   0.089   0.440   2.719
87552SOL    HW264554   0.010   0.391   2.600
87553SOL     OW64555   6.546   6.710   5.275
87553SOL    HW164556   6.464   6.694   5.228
87553SOL    HW264557   6.569   6.626   5.313
87554SOL     OW64558  12.214   8.256   7.876
87554SOL    HW164559  12.229   8.180   7.820
87554SOL    HW264560  12.137   8.299   7.838
87555SOL     OW64561  13.477  12.479   1.743
87555SOL    HW164562  13.499  12.492   1.836
87555SOL    HW264563  13.453  12.387   1.737
87556SOL     OW64564   0.327   7.937   0.254
87556SOL    HW164565   0.393   7.902   0.314
87556SOL    HW264566   0.260   7.974   0.312
87557SOL     OW64567  11.423  11.664  14.240
87557SOL    HW164568  11.460  11.583  14.205
87557SOL    HW264569  11.477  11.684  14.316
87558SOL     OW64570   5.377   2.992  10.070
87558SOL    HW164571   5.330   3.063  10.112
87558SOL    HW264572   5.334   2.982   9.985
87559SOL     OW64573   6.269   5.798   6.473
87559SOL    HW164574   6.321   5.792   6.392
87559SOL    HW264575   6.181   5.819   6.444
87560SOL     OW64576   3.636  13.470   2.191
87560SOL    HW164577   3.609  13.510   2.273
87560SOL    HW264578   3.730  13.488   2.185
87561SOL     OW64579   0.391  14.021  10.176
87561SOL    HW164580   0.444  14.046  10.252
87561SOL    HW264581   0.310  14.070  10.187
87562SOL     OW64582   0.595   6.643  11.968
87562SOL    HW164583   0.626   6.552  11.972
87562SOL    HW264584   0.631   6.677  11.886
87563SOL     OW64585  14.468   9.005   0.637
87563SOL    HW164586  14.427   8.976   0.556
87563SOL    HW264587  14.458   9.100   0.637
87564SOL     OW64588   4.443  14.022  10.210
87564SOL    HW164589   4.402  14.017  10.123
87564SOL    HW264590   4.422  14.110  10.241
87565SOL     OW64591   4.458   5.307   4.335
87565SOL    HW164592   4.375   5.296   4.289
87565SOL    HW264593   4.444   5.263   4.419
87566SOL     OW64594   8.108   0.971  10.711
87566SOL    HW164595   8.063   0.904  10.763
87566SOL    HW264596   8.101   0.939  10.621
87567SOL     OW64597   6.907   6.098  12.726
87567SOL    HW164598   6.965   6.059  12.661
87567SOL    HW264599   6.936   6.060  12.809
87568SOL     OW64600  11.104  12.624   6.412
87568SOL    HW164601  11.200  12.616   6.416
87568SOL    HW264602  11.072  12.536   6.431
87569SOL     OW64603   4.953   2.947  12.328
87569SOL    HW164604   4.978   2.973  12.417
87569SOL    HW264605   4.858   2.939  12.331
87570SOL     OW64606   6.107   0.203  11.312
87570SOL    HW164607   6.044   0.275  11.311
87570SOL    HW264608   6.146   0.207  11.399
87571SOL     OW64609  12.197  14.613  10.344
87571SOL    HW164610  12.145  14.674  10.291
87571SOL    HW264611  12.234  14.668  10.414
87572SOL     OW64612   9.739   5.117   6.894
87572SOL    HW164613   9.765   5.029   6.867
87572SOL    HW264614   9.646   5.110   6.914
87573SOL     OW64615  10.380   8.552  10.565
87573SOL    HW164616  10.327   8.586  10.638
87573SOL    HW264617  10.319   8.501  10.512
87574SOL     OW64618  13.393   4.136   5.478
87574SOL    HW164619  13.301   4.139   5.504
87574SOL    HW264620  13.441   4.130   5.561
87575SOL     OW64621  14.596   0.687  13.909
87575SOL    HW164622  14.635   0.717  13.991
87575SOL    HW264623  14.628   0.598  13.897
87576SOL     OW64624   7.988  12.313   9.197
87576SOL    HW164625   7.900  12.338   9.168
87576SOL    HW264626   7.986  12.325   9.292
87577SOL     OW64627   9.512   0.185   2.496
87577SOL    HW164628   9.440   0.243   2.471
87577SOL    HW264629   9.535   0.212   2.584
87578SOL     OW64630  13.288   8.706  14.386
87578SOL    HW164631  13.331   8.775  14.436
87578SOL    HW264632  13.273   8.744  14.300
87579SOL     OW64633  13.672   3.763   2.943
87579SOL    HW164634  13.675   3.689   2.882
87579SOL    HW264635  13.760   3.800   2.940
87580SOL     OW64636  10.194   2.297   5.359
87580SOL    HW164637  10.141   2.371   5.387
87580SOL    HW264638  10.135   2.244   5.305
87581SOL     OW64639   3.966   2.707   8.672
87581SOL    HW164640   3.928   2.793   8.653
87581SOL    HW264641   3.890   2.648   8.676
87582SOL     OW64642  10.192   5.714   8.209
87582SOL    HW164643  10.181   5.806   8.189
87582SOL    HW264644  10.141   5.701   8.290
87583SOL     OW64645  14.054  14.794   7.520
87583SOL    HW164646  14.018  14.815   7.607
87583SOL    HW264647  14.111  14.868   7.499
87584SOL     OW64648   5.504  13.812   8.500
87584SOL    HW164649   5.556  13.889   8.476
87584SOL    HW264650   5.493  13.820   8.595
87585SOL     OW64651   2.959   2.275   1.482
87585SOL    HW164652   2.950   2.359   1.526
87585SOL    HW264653   3.045   2.279   1.439
87586SOL     OW64654   5.562   3.099   2.183
87586SOL    HW164655   5.533   3.059   2.102
87586SOL    HW264656   5.614   3.031   2.226
87587SOL     OW64657  11.797   6.187  14.071
87587SOL    HW164658  11.850   6.139  14.007
87587SOL    HW264659  11.711   6.194  14.030
87588SOL     OW64660  13.176   2.608   9.718
87588SOL    HW164661  13.264   2.637   9.743
87588SOL    HW264662  13.190   2.557   9.638
87589SOL     OW64663   7.362   3.895   0.390
87589SOL    HW164664   7.454   3.909   0.370
87589SOL    HW264665   7.324   3.983   0.389
87590SOL     OW64666  12.685   2.021   6.015
87590SOL    HW164667  12.632   1.953   5.973
87590SOL    HW264668  12.748   2.047   5.948
87591SOL     OW64669   3.538  11.988   0.518
87591SOL    HW164670   3.467  12.048   0.494
87591SOL    HW264671   3.494  11.919   0.567
87592SOL     OW64672   6.475   8.970  13.223
87592SOL    HW164673   6.409   8.921  13.272
87592SOL    HW264674   6.429   9.048  13.193
87593SOL     OW64675   8.117   3.055  13.241
87593SOL    HW164676   8.185   3.042  13.175
87593SOL    HW264677   8.136   3.141  13.279
87594SOL     OW64678   6.414  10.714   4.649
87594SOL    HW164679   6.455  10.689   4.732
87594SOL    HW264680   6.414  10.633   4.598
87595SOL     OW64681   6.594   7.700  13.150
87595SOL    HW164682   6.573   7.661  13.065
87595SOL    HW264683   6.648   7.776  13.129
87596SOL     OW64684   4.010   8.856   7.155
87596SOL    HW164685   4.043   8.767   7.146
87596SOL    HW264686   3.924   8.846   7.198
87597SOL     OW64687   9.347  10.346   8.936
87597SOL    HW164688   9.260  10.338   8.896
87597SOL    HW264689   9.408  10.339   8.862
87598SOL     OW64690  13.317  13.509   9.133
87598SOL    HW164691  13.297  13.510   9.227
87598SOL    HW264692  13.313  13.417   9.109
87599SOL     OW64693  12.963   8.004   4.096
87599SOL    HW164694  12.940   7.992   4.004
87599SOL    HW264695  12.977   7.915   4.129
87600SOL     OW64696   1.230   6.451   5.374
87600SOL    HW164697   1.293   6.384   5.347
87600SOL    HW264698   1.284   6.524   5.403
87601SOL     OW64699  14.726   1.995   5.513
87601SOL    HW164700  14.793   1.958   5.455
87601SOL    HW264701  14.775   2.041   5.580
87602SOL     OW64702   4.159   4.516  14.188
87602SOL    HW164703   4.100   4.491  14.117
87602SOL    HW264704   4.129   4.464  14.263
87603SOL     OW64705   0.506  13.356   5.558
87603SOL    HW164706   0.574  13.368   5.625
87603SOL    HW264707   0.524  13.423   5.493
87604SOL     OW64708  10.496   6.400   0.992
87604SOL    HW164709  10.554   6.450   1.050
87604SOL    HW264710  10.415   6.392   1.041
87605SOL     OW64711   0.351  13.428   6.189
87605SOL    HW164712   0.291  13.397   6.257
87605SOL    HW264713   0.300  13.492   6.139
87606SOL     OW64714   9.898  10.974   0.256
87606SOL    HW164715   9.979  10.924   0.253
87606SOL    HW264716   9.861  10.954   0.342
87607SOL     OW64717   3.545   8.991   4.213
87607SOL    HW164718   3.621   8.951   4.170
87607SOL    HW264719   3.509   9.050   4.147
87608SOL     OW64720   9.941   2.991  11.223
87608SOL    HW164721   9.857   2.987  11.178
87608SOL    HW264722   9.920   2.979  11.316
87609SOL     OW64723   0.028  13.819   4.862
87609SOL    HW164724   0.122  13.801   4.873
87609SOL    HW264725   0.025  13.909   4.829
87610SOL     OW64726   5.513   2.005   1.122
87610SOL    HW164727   5.459   1.973   1.195
87610SOL    HW264728   5.477   2.092   1.102
87611SOL     OW64729   8.567   7.099  12.108
87611SOL    HW164730   8.591   7.070  12.196
87611SOL    HW264731   8.651   7.111  12.063
87612SOL     OW64732   0.868   3.199   2.553
87612SOL    HW164733   0.904   3.125   2.603
87612SOL    HW264734   0.920   3.274   2.582
87613SOL     OW64735  14.029   9.029   4.285
87613SOL    HW164736  14.113   9.071   4.299
87613SOL    HW264737  14.027   9.008   4.192
87614SOL     OW64738  14.007  11.137  11.827
87614SOL    HW164739  13.924  11.169  11.864
87614SOL    HW264740  13.981  11.088  11.749
87615SOL     OW64741  13.607   6.598   2.098
87615SOL    HW164742  13.685   6.582   2.044
87615SOL    HW264743  13.634   6.664   2.161
87616SOL     OW64744   2.310   3.486  11.409
87616SOL    HW164745   2.400   3.487  11.377
87616SOL    HW264746   2.294   3.575  11.439
87617SOL     OW64747  12.008  12.471   8.594
87617SOL    HW164748  11.949  12.396   8.587
87617SOL    HW264749  12.080  12.439   8.649
87618SOL     OW64750   7.364   9.900   9.442
87618SOL    HW164751   7.416   9.885   9.363
87618SOL    HW264752   7.429   9.915   9.511
87619SOL     OW64753  10.682   1.157  12.158
87619SOL    HW164754  10.713   1.117  12.077
87619SOL    HW264755  10.604   1.207  12.133
87620SOL     OW64756   6.025   8.141   9.398
87620SOL    HW164757   6.096   8.077   9.387
87620SOL    HW264758   5.959   8.114   9.334
87621SOL     OW64759   1.355   9.220  14.694
87621SOL    HW164760   1.319   9.309  14.692
87621SOL    HW264761   1.280   9.163  14.681
87622SOL     OW64762   0.550  13.002   2.904
87622SOL    HW164763   0.570  12.978   2.995
87622SOL    HW264764   0.460  13.035   2.908
87623SOL     OW64765   4.379   8.940   2.554
87623SOL    HW164766   4.409   8.860   2.597
87623SOL    HW264767   4.402   9.010   2.615
87624SOL     OW64768  14.192   8.747   4.164
87624SOL    HW164769  14.207   8.804   4.239
87624SOL    HW264770  14.235   8.664   4.187
87625SOL     OW64771  13.828  14.766   6.690
87625SOL    HW164772  13.803  14.805   6.774
87625SOL    HW264773  13.777  14.816   6.626
87626SOL     OW64774   3.313   3.704   6.306
87626SOL    HW164775   3.369   3.685   6.230
87626SOL    HW264776   3.355   3.657   6.378
87627SOL     OW64777  10.896   0.012   9.023
87627SOL    HW164778  10.809   0.047   9.005
87627SOL    HW264779  10.913  14.825   8.952
87628SOL     OW64780  10.253   8.606  12.887
87628SOL    HW164781  10.175   8.660  12.877
87628SOL    HW264782  10.320   8.649  12.833
87629SOL     OW64783   4.406  12.293   9.492
87629SOL    HW164784   4.402  12.388   9.494
87629SOL    HW264785   4.419  12.271   9.399
87630SOL     OW64786  10.905   4.509   5.021
87630SOL    HW164787  10.950   4.440   4.973
87630SOL    HW264788  10.949   4.589   4.995
87631SOL     OW64789   0.915   5.009   4.702
87631SOL    HW164790   0.874   4.995   4.787
87631SOL    HW264791   0.996   5.055   4.722
87632SOL     OW64792   6.466   2.484  13.595
87632SOL    HW164793   6.537   2.472  13.658
87632SOL    HW264794   6.390   2.443  13.637
87633SOL     OW64795   8.324   1.365   8.719
87633SOL    HW164796   8.311   1.293   8.658
87633SOL    HW264797   8.276   1.439   8.679
87634SOL     OW64798  11.256  10.302  13.392
87634SOL    HW164799  11.216  10.218  13.415
87634SOL    HW264800  11.311  10.283  13.316
87635SOL     OW64801   7.390  13.320  11.974
87635SOL    HW164802   7.332  13.315  11.898
87635SOL    HW264803   7.347  13.264  12.040
87636SOL     OW64804   3.284   7.831   2.771
87636SOL    HW164805   3.240   7.791   2.846
87636SOL    HW264806   3.220   7.824   2.700
87637SOL     OW64807  12.823  14.351   2.344
87637SOL    HW164808  12.786  14.328   2.259
87637SOL    HW264809  12.754  14.332   2.406
87638SOL     OW64810   0.711   5.540   6.379
87638SOL    HW164811   0.702   5.625   6.421
87638SOL    HW264812   0.644   5.485   6.421
87639SOL     OW64813  10.151   5.189  13.835
87639SOL    HW164814  10.166   5.282  13.821
87639SOL    HW264815  10.203   5.145  13.768
87640SOL     OW64816   5.083  12.857   6.985
87640SOL    HW164817   5.142  12.903   7.044
87640SOL    HW264818   4.999  12.856   7.030
87641SOL     OW64819  12.527  14.116  12.307
87641SOL    HW164820  12.588  14.060  12.259
87641SOL    HW264821  12.564  14.204  12.298
87642SOL     OW64822   6.966  12.170   2.625
87642SOL    HW164823   6.931  12.221   2.552
87642SOL    HW264824   7.027  12.109   2.584
87643SOL     OW64825   9.946   7.786   1.903
87643SOL    HW164826   9.893   7.707   1.914
87643SOL    HW264827   9.997   7.769   1.823
87644SOL     OW64828  13.855  13.521  14.776
87644SOL    HW164829  13.902  13.446  14.739
87644SOL    HW264830  13.885  13.526  14.867
87645SOL     OW64831   8.591  10.171   3.053
87645SOL    HW164832   8.684  10.187   3.041
87645SOL    HW264833   8.584  10.075   3.059
87646SOL     OW64834  11.046  13.193   3.063
87646SOL    HW164835  10.998  13.190   3.146
87646SOL    HW264836  11.128  13.236   3.084
87647SOL     OW64837   5.208   4.243  13.833
87647SOL    HW164838   5.203   4.332  13.868
87647SOL    HW264839   5.250   4.192  13.902
87648SOL     OW64840  12.290   0.144   5.568
87648SOL    HW164841  12.369   0.134   5.622
87648SOL    HW264842  12.319   0.125   5.479
87649SOL     OW64843  10.590  13.272   5.514
87649SOL    HW164844  10.515  13.319   5.476
87649SOL    HW264845  10.550  13.200   5.564
87650SOL     OW64846  12.196   7.371   8.115
87650SOL    HW164847  12.164   7.330   8.196
87650SOL    HW264848  12.275   7.417   8.141
87651SOL     OW64849   6.712   0.924   0.005
87651SOL    HW164850   6.687   1.012  14.854
87651SOL    HW264851   6.801   0.913  14.846
87652SOL     OW64852  10.626   5.030   1.506
87652SOL    HW164853  10.661   4.967   1.443
87652SOL    HW264854  10.534   5.041   1.480
87653SOL     OW64855   0.925   7.199  10.047
87653SOL    HW164856   1.017   7.191  10.074
87653SOL    HW264857   0.907   7.293  10.052
87654SOL     OW64858  10.871  12.423   6.235
87654SOL    HW164859  10.939  12.420   6.302
87654SOL    HW264860  10.789  12.414   6.285
87655SOL     OW64861   3.494  10.368   1.574
87655SOL    HW164862   3.567  10.362   1.636
87655SOL    HW264863   3.531  10.413   1.498
87656SOL     OW64864  13.941   4.817   7.476
87656SOL    HW164865  13.851   4.798   7.501
87656SOL    HW264866  13.959   4.903   7.515
87657SOL     OW64867   7.463   2.968   6.096
87657SOL    HW164868   7.549   2.927   6.106
87657SOL    HW264869   7.454   2.982   6.002
87658SOL     OW64870   1.356   9.919   9.223
87658SOL    HW164871   1.325   9.976   9.294
87658SOL    HW264872   1.418   9.974   9.174
87659SOL     OW64873   7.442  14.230   9.412
87659SOL    HW164874   7.422  14.144   9.373
87659SOL    HW264875   7.519  14.260   9.364
87660SOL     OW64876   9.863   0.765  10.646
87660SOL    HW164877   9.818   0.777  10.563
87660SOL    HW264878   9.798   0.790  10.712
87661SOL     OW64879   0.100   1.062   7.682
87661SOL    HW164880   0.103   1.132   7.617
87661SOL    HW264881   0.023   1.081   7.735
87662SOL     OW64882   8.948   2.241   5.250
87662SOL    HW164883   8.934   2.298   5.174
87662SOL    HW264884   8.937   2.152   5.216
87663SOL     OW64885   9.540   3.321  11.027
87663SOL    HW164886   9.597   3.394  11.051
87663SOL    HW264887   9.495   3.298  11.108
87664SOL     OW64888  12.166   1.423   6.848
87664SOL    HW164889  12.080   1.443   6.884
87664SOL    HW264890  12.201   1.508   6.820
87665SOL     OW64891   4.969   2.422   2.837
87665SOL    HW164892   4.952   2.342   2.886
87665SOL    HW264893   5.062   2.418   2.816
87666SOL     OW64894   0.134   4.702   7.242
87666SOL    HW164895   0.161   4.745   7.323
87666SOL    HW264896   0.079   4.767   7.198
87667SOL     OW64897  12.446   0.966  10.839
87667SOL    HW164898  12.517   0.988  10.900
87667SOL    HW264899  12.418   0.879  10.865
87668SOL     OW64900   2.115   2.968   0.908
87668SOL    HW164901   2.119   2.959   0.813
87668SOL    HW264902   2.022   2.981   0.927
87669SOL     OW64903   7.628   8.562   6.177
87669SOL    HW164904   7.566   8.616   6.128
87669SOL    HW264905   7.576   8.527   6.249
87670SOL     OW64906   9.149   0.359  11.296
87670SOL    HW164907   9.233   0.352  11.343
87670SOL    HW264908   9.104   0.277  11.315
87671SOL     OW64909   7.096   5.248  11.914
87671SOL    HW164910   7.040   5.259  11.837
87671SOL    HW264911   7.185   5.239  11.878
87672SOL     OW64912  12.198  13.030   2.198
87672SOL    HW164913  12.131  12.981   2.149
87672SOL    HW264914  12.188  12.999   2.288
87673SOL     OW64915   6.264   9.821   0.290
87673SOL    HW164916   6.357   9.816   0.266
87673SOL    HW264917   6.253   9.910   0.324
87674SOL     OW64918  12.677   9.865   6.107
87674SOL    HW164919  12.742   9.930   6.078
87674SOL    HW264920  12.626   9.911   6.174
87675SOL     OW64921   8.014   6.543  14.335
87675SOL    HW164922   8.015   6.582  14.248
87675SOL    HW264923   7.931   6.571  14.373
87676SOL     OW64924   4.635  12.879   5.327
87676SOL    HW164925   4.651  12.931   5.249
87676SOL    HW264926   4.600  12.796   5.294
87677SOL     OW64927  10.552   1.814   0.939
87677SOL    HW164928  10.648   1.809   0.941
87677SOL    HW264929  10.528   1.778   0.854
87678SOL     OW64930   9.517   1.147  12.808
87678SOL    HW164931   9.476   1.226  12.843
87678SOL    HW264932   9.563   1.109  12.883
87679SOL     OW64933  12.558  13.067   3.234
87679SOL    HW164934  12.508  13.148   3.242
87679SOL    HW264935  12.567  13.054   3.139
87680SOL     OW64936   0.715   2.938  13.077
87680SOL    HW164937   0.743   2.977  12.995
87680SOL    HW264938   0.764   2.855  13.082
87681SOL     OW64939  11.076   5.706  11.839
87681SOL    HW164940  11.051   5.798  11.827
87681SOL    HW264941  11.172   5.708  11.841
87682SOL     OW64942  14.806   8.932   2.713
87682SOL    HW164943  14.814   9.027   2.721
87682SOL    HW264944  14.765   8.919   2.627
87683SOL     OW64945   4.147   6.239   1.091
87683SOL    HW164946   4.157   6.201   1.004
87683SOL    HW264947   4.056   6.222   1.115
87684SOL     OW64948   1.303   9.653   4.029
87684SOL    HW164949   1.337   9.743   4.025
87684SOL    HW264950   1.299   9.625   3.938
87685SOL     OW64951   2.580   6.942  11.737
87685SOL    HW164952   2.630   6.984  11.667
87685SOL    HW264953   2.614   6.981  11.818
87686SOL     OW64954  12.741  10.950  13.383
87686SOL    HW164955  12.748  11.038  13.347
87686SOL    HW264956  12.805  10.947  13.454
87687SOL     OW64957   2.975   5.540   2.920
87687SOL    HW164958   2.978   5.463   2.977
87687SOL    HW264959   2.889   5.578   2.936
87688SOL     OW64960  10.933  12.379  11.374
87688SOL    HW164961  10.973  12.400  11.458
87688SOL    HW264962  10.849  12.340  11.395
87689SOL     OW64963  10.846  10.564   8.231
87689SOL    HW164964  10.788  10.491   8.254
87689SOL    HW264965  10.824  10.584   8.140
87690SOL     OW64966   6.315  14.545  11.340
87690SOL    HW164967   6.375  14.621  11.340
87690SOL    HW264968   6.236  14.577  11.383
87691SOL     OW64969  11.808  13.110   9.731
87691SOL    HW164970  11.815  13.116   9.636
87691SOL    HW264971  11.820  13.200   9.761
87692SOL     OW64972  12.096   5.355   3.460
87692SOL    HW164973  12.153   5.300   3.405
87692SOL    HW264974  12.122   5.332   3.550
87693SOL     OW64975   0.529   1.120   0.342
87693SOL    HW164976   0.495   1.210   0.336
87693SOL    HW264977   0.599   1.118   0.277
87694SOL     OW64978   4.297   5.412   9.539
87694SOL    HW164979   4.375   5.419   9.594
87694SOL    HW264980   4.225   5.436   9.597
87695SOL     OW64981   8.313   9.976  13.034
87695SOL    HW164982   8.225   9.965  13.071
87695SOL    HW264983   8.310  10.059  12.988
87696SOL     OW64984   1.770   6.205   4.281
87696SOL    HW164985   1.696   6.232   4.336
87696SOL    HW264986   1.730   6.186   4.196
87697SOL     OW64987   8.787   0.215  11.351
87697SOL    HW164988   8.875   0.184  11.331
87697SOL    HW264989   8.730   0.140  11.333
87698SOL     OW64990   3.384  12.722   4.226
87698SOL    HW164991   3.380  12.816   4.240
87698SOL    HW264992   3.338  12.707   4.144
87699SOL     OW64993   0.275   7.218   6.109
87699SOL    HW164994   0.219   7.141   6.101
87699SOL    HW264995   0.219   7.284   6.149
87700SOL     OW64996   9.396   7.106   9.881
87700SOL    HW164997   9.348   7.185   9.856
87700SOL    HW264998   9.346   7.035   9.841
87701SOL     OW64999   1.160   6.393   1.931
87701SOL    HW165000   1.246   6.398   1.889
87701SOL    HW265001   1.113   6.470   1.898
87702SOL     OW65002   9.684  10.722   7.026
87702SOL    HW165003   9.708  10.796   6.969
87702SOL    HW265004   9.681  10.647   6.968
87703SOL     OW65005   1.022   7.387  12.207
87703SOL    HW165006   1.038   7.311  12.152
87703SOL    HW265007   0.948   7.363  12.262
87704SOL     OW65008  12.795   0.712   6.417
87704SOL    HW165009  12.798   0.799   6.378
87704SOL    HW265010  12.749   0.658   6.352
87705SOL     OW65011   9.243  10.508   6.692
87705SOL    HW165012   9.199  10.592   6.710
87705SOL    HW265013   9.198  10.475   6.614
87706SOL     OW65014   6.561   6.679   9.327
87706SOL    HW165015   6.521   6.641   9.405
87706SOL    HW265016   6.600   6.604   9.281
87707SOL     OW65017  12.591   9.970   5.017
87707SOL    HW165018  12.557  10.023   4.945
87707SOL    HW265019  12.568  10.019   5.096
87708SOL     OW65020  10.613  13.149   9.154
87708SOL    HW165021  10.657  13.064   9.146
87708SOL    HW265022  10.521  13.127   9.170
87709SOL     OW65023   7.144   7.413  13.492
87709SOL    HW165024   7.141   7.487  13.552
87709SOL    HW265025   7.120   7.450  13.407
87710SOL     OW65026   0.944   6.205  13.444
87710SOL    HW165027   1.026   6.251  13.428
87710SOL    HW265028   0.953   6.170  13.533
87711SOL     OW65029   9.977   7.762  13.833
87711SOL    HW165030   9.967   7.763  13.928
87711SOL    HW265031   9.888   7.754  13.800
87712SOL     OW65032  12.432   9.720   8.451
87712SOL    HW165033  12.518   9.716   8.492
87712SOL    HW265034  12.402   9.629   8.446
87713SOL     OW65035  12.238   2.273   7.281
87713SOL    HW165036  12.144   2.262   7.293
87713SOL    HW265037  12.273   2.276   7.370
87714SOL     OW65038   7.796   6.314  10.624
87714SOL    HW165039   7.853   6.247  10.663
87714SOL    HW265040   7.807   6.391  10.680
87715SOL     OW65041  10.946  14.747  12.865
87715SOL    HW165042  10.856  14.758  12.895
87715SOL    HW265043  10.937  14.717  12.774
87716SOL     OW65044   8.806   6.281  10.373
87716SOL    HW165045   8.749   6.228  10.318
87716SOL    HW265046   8.834   6.222  10.444
87717SOL     OW65047   0.955   3.170  10.729
87717SOL    HW165048   0.960   3.258  10.692
87717SOL    HW265049   0.889   3.176  10.798
87718SOL     OW65050   7.289   8.596   3.848
87718SOL    HW165051   7.380   8.609   3.874
87718SOL    HW265052   7.254   8.536   3.914
87719SOL     OW65053  12.329  10.539   4.048
87719SOL    HW165054  12.358  10.591   4.123
87719SOL    HW265055  12.287  10.602   3.989
87720SOL     OW65056   6.122  10.785   8.225
87720SOL    HW165057   6.182  10.807   8.154
87720SOL    HW265058   6.108  10.690   8.215
87721SOL     OW65059   0.706   6.899   1.031
87721SOL    HW165060   0.771   6.956   0.992
87721SOL    HW265061   0.649   6.873   0.958
87722SOL     OW65062   4.639   8.482   1.101
87722SOL    HW165063   4.624   8.456   1.192
87722SOL    HW265064   4.666   8.574   1.107
87723SOL     OW65065   0.522  11.289   7.020
87723SOL    HW165066   0.576  11.212   7.038
87723SOL    HW265067   0.515  11.291   6.924
87724SOL     OW65068   0.937   5.743   6.618
87724SOL    HW165069   0.902   5.747   6.707
87724SOL    HW265070   0.859   5.732   6.563
87725SOL     OW65071  10.023   3.909   7.686
87725SOL    HW165072  10.056   3.998   7.674
87725SOL    HW265073  10.066   3.858   7.618
87726SOL     OW65074   4.420  13.549  13.488
87726SOL    HW165075   4.366  13.623  13.460
87726SOL    HW265076   4.484  13.588  13.547
87727SOL     OW65077  12.345   6.433   4.303
87727SOL    HW165078  12.291   6.380   4.243
87727SOL    HW265079  12.358   6.377   4.379
87728SOL     OW65080   6.763  14.163   3.343
87728SOL    HW165081   6.746  14.148   3.436
87728SOL    HW265082   6.763  14.259   3.333
87729SOL     OW65083   6.136  12.275   5.999
87729SOL    HW165084   6.181  12.190   5.995
87729SOL    HW265085   6.159  12.319   5.918
87730SOL     OW65086   1.234   2.609   7.334
87730SOL    HW165087   1.237   2.589   7.428
87730SOL    HW265088   1.231   2.704   7.330
87731SOL     OW65089   1.655   5.398   0.192
87731SOL    HW165090   1.625   5.307   0.185
87731SOL    HW265091   1.688   5.405   0.282
87732SOL     OW65092   5.960  10.117   7.185
87732SOL    HW165093   5.995  10.066   7.259
87732SOL    HW265094   5.973  10.208   7.212
87733SOL     OW65095   6.574   6.617   0.363
87733SOL    HW165096   6.626   6.696   0.349
87733SOL    HW265097   6.519   6.637   0.438
87734SOL     OW65098   4.424  11.343  10.853
87734SOL    HW165099   4.499  11.316  10.799
87734SOL    HW265100   4.368  11.392  10.793
87735SOL     OW65101   7.734   8.173  11.103
87735SOL    HW165102   7.802   8.240  11.101
87735SOL    HW265103   7.780   8.094  11.132
87736SOL     OW65104   8.870   1.751   1.130
87736SOL    HW165105   8.903   1.718   1.047
87736SOL    HW265106   8.893   1.844   1.131
87737SOL     OW65107   6.957   7.165   8.949
87737SOL    HW165108   6.876   7.169   9.000
87737SOL    HW265109   6.994   7.079   8.969
87738SOL     OW65110   8.822  10.263   6.920
87738SOL    HW165111   8.854  10.346   6.886
87738SOL    HW265112   8.811  10.278   7.014
87739SOL     OW65113   0.207   3.962  13.609
87739SOL    HW165114   0.219   3.927  13.521
87739SOL    HW265115   0.227   3.889  13.667
87740SOL     OW65116   6.716   0.053   2.484
87740SOL    HW165117   6.782  14.871   2.445
87740SOL    HW265118   6.650   0.065   2.415
87741SOL     OW65119   0.027   9.185   4.463
87741SOL    HW165120   0.089   9.165   4.533
87741SOL    HW265121   0.082   9.195   4.385
87742SOL     OW65122   1.589   5.223   6.601
87742SOL    HW165123   1.608   5.196   6.511
87742SOL    HW265124   1.496   5.242   6.602
87743SOL     OW65125   6.728  11.993   5.976
87743SOL    HW165126   6.641  11.994   6.017
87743SOL    HW265127   6.738  12.080   5.938
87744SOL     OW65128   9.412  12.625  14.337
87744SOL    HW165129   9.472  12.700  14.326
87744SOL    HW265130   9.406  12.614  14.432
87745SOL     OW65131  12.530   6.234   9.634
87745SOL    HW165132  12.436   6.218   9.638
87745SOL    HW265133  12.559   6.229   9.725
87746SOL     OW65134   1.628  12.283   5.017
87746SOL    HW165135   1.715  12.245   5.005
87746SOL    HW265136   1.638  12.347   5.087
87747SOL     OW65137   3.974   5.625   9.838
87747SOL    HW165138   3.983   5.550   9.780
87747SOL    HW265139   4.060   5.667   9.837
87748SOL     OW65140   2.742  14.140  10.473
87748SOL    HW165141   2.647  14.148  10.468
87748SOL    HW265142   2.770  14.217  10.521
87749SOL     OW65143   4.367  13.688   7.848
87749SOL    HW165144   4.320  13.608   7.823
87749SOL    HW265145   4.402  13.722   7.765
87750SOL     OW65146   5.763   4.009   5.429
87750SOL    HW165147   5.842   4.030   5.379
87750SOL    HW265148   5.781   3.922   5.466
87751SOL     OW65149   0.533  12.762   7.213
87751SOL    HW165150   0.483  12.681   7.203
87751SOL    HW265151   0.497  12.821   7.147
87752SOL     OW65152   5.823   8.406  11.509
87752SOL    HW165153   5.773   8.478  11.472
87752SOL    HW265154   5.826   8.424  11.603
87753SOL     OW65155  10.842   1.341   7.754
87753SOL    HW165156  10.933   1.313   7.757
87753SOL    HW265157  10.795   1.264   7.723
87754SOL     OW65158   2.322   1.708   1.062
87754SOL    HW165159   2.313   1.698   1.157
87754SOL    HW265160   2.232   1.715   1.030
87755SOL     OW65161   8.116   8.632  13.608
87755SOL    HW165162   8.116   8.657  13.515
87755SOL    HW265163   8.156   8.707  13.653
87756SOL     OW65164  10.324   0.865   0.442
87756SOL    HW165165  10.242   0.829   0.475
87756SOL    HW265166  10.298   0.916   0.365
87757SOL     OW65167   1.943   6.329   8.660
87757SOL    HW165168   1.960   6.256   8.601
87757SOL    HW265169   1.849   6.345   8.650
87758SOL     OW65170   2.374   2.761   8.358
87758SOL    HW165171   2.434   2.689   8.381
87758SOL    HW265172   2.323   2.776   8.437
87759SOL     OW65173   8.512   8.704  13.924
87759SOL    HW165174   8.418   8.723  13.918
87759SOL    HW265175   8.534   8.664  13.840
87760SOL     OW65176   8.998  14.392  10.196
87760SOL    HW165177   9.069  14.387  10.132
87760SOL    HW265178   8.918  14.380  10.144
87761SOL     OW65179   2.326   4.819  12.948
87761SOL    HW165180   2.406   4.787  12.990
87761SOL    HW265181   2.272   4.741  12.935
87762SOL     OW65182   7.924   6.371  10.383
87762SOL    HW165183   7.877   6.370  10.467
87762SOL    HW265184   7.873   6.313  10.327
87763SOL     OW65185   0.070   7.857  12.434
87763SOL    HW165186   0.111   7.877  12.350
87763SOL    HW265187   0.144   7.843  12.494
87764SOL     OW65188  12.520   0.809  11.451
87764SOL    HW165189  12.609   0.836  11.472
87764SOL    HW265190  12.480   0.886  11.411
87765SOL     OW65191  13.833   7.693   1.519
87765SOL    HW165192  13.867   7.622   1.465
87765SOL    HW265193  13.906   7.717   1.576
87766SOL     OW65194   0.615   8.519  11.284
87766SOL    HW165195   0.540   8.486  11.235
87766SOL    HW265196   0.591   8.508  11.376
87767SOL     OW65197   4.091  12.846  10.446
87767SOL    HW165198   4.103  12.861  10.540
87767SOL    HW265199   4.180  12.834  10.412
87768SOL     OW65200   3.601   7.511   5.581
87768SOL    HW165201   3.532   7.449   5.558
87768SOL    HW265202   3.661   7.461   5.636
87769SOL     OW65203  14.749  13.254   2.308
87769SOL    HW165204  14.774  13.169   2.346
87769SOL    HW265205  14.654  13.247   2.296
87770SOL     OW65206   4.346   9.174   7.872
87770SOL    HW165207   4.439   9.196   7.872
87770SOL    HW265208   4.307   9.236   7.933
87771SOL     OW65209  10.953   1.073   4.010
87771SOL    HW165210  10.948   0.979   4.029
87771SOL    HW265211  10.863   1.104   4.017
87772SOL     OW65212   6.427  10.340   9.175
87772SOL    HW165213   6.341  10.299   9.171
87772SOL    HW265214   6.474  10.290   9.243
87773SOL     OW65215   5.980  12.548   8.299
87773SOL    HW165216   5.921  12.497   8.353
87773SOL    HW265217   6.067  12.529   8.333
87774SOL     OW65218   3.182   2.491  10.405
87774SOL    HW165219   3.225   2.567  10.364
87774SOL    HW265220   3.183   2.424  10.337
87775SOL     OW65221  14.096  14.501  12.102
87775SOL    HW165222  14.170  14.468  12.050
87775SOL    HW265223  14.131  14.505  12.191
87776SOL     OW65224   5.486   6.088  12.228
87776SOL    HW165225   5.565   6.067  12.277
87776SOL    HW265226   5.447   6.162  12.275
87777SOL     OW65227   2.148   0.043   4.558
87777SOL    HW165228   2.195   0.125   4.576
87777SOL    HW265229   2.210  14.865   4.508
87778SOL     OW65230  11.637   0.790  11.459
87778SOL    HW165231  11.682   0.712  11.490
87778SOL    HW265232  11.699   0.832  11.400
87779SOL     OW65233   2.104  14.756  13.657
87779SOL    HW165234   2.041  14.770  13.728
87779SOL    HW265235   2.079  14.671  13.620
87780SOL     OW65236   0.433   3.199   1.458
87780SOL    HW165237   0.364   3.260   1.433
87780SOL    HW265238   0.423   3.125   1.397
87781SOL     OW65239   9.383  13.736   9.029
87781SOL    HW165240   9.395  13.800   8.958
87781SOL    HW265241   9.377  13.789   9.108
87782SOL     OW65242   5.448   6.885   4.351
87782SOL    HW165243   5.453   6.834   4.432
87782SOL    HW265244   5.506   6.838   4.290
87783SOL     OW65245   0.688   8.893  12.659
87783SOL    HW165246   0.648   8.943  12.588
87783SOL    HW265247   0.615   8.874  12.719
87784SOL     OW65248   2.074   9.076  13.983
87784SOL    HW165249   2.000   9.016  13.976
87784SOL    HW265250   2.034   9.163  13.986
87785SOL     OW65251   8.396   5.405   0.310
87785SOL    HW165252   8.469   5.442   0.259
87785SOL    HW265253   8.330   5.475   0.310
87786SOL     OW65254   6.585   9.805   0.893
87786SOL    HW165255   6.628   9.866   0.954
87786SOL    HW265256   6.557   9.860   0.820
87787SOL     OW65257  11.497  13.442  10.898
87787SOL    HW165258  11.428  13.379  10.920
87787SOL    HW265259  11.453  13.526  10.892
87788SOL     OW65260   0.190  11.174   6.447
87788SOL    HW165261   0.176  11.082   6.469
87788SOL    HW265262   0.285  11.184   6.441
87789SOL     OW65263  10.408   0.865   1.782
87789SOL    HW165264  10.353   0.937   1.812
87789SOL    HW265265  10.458   0.839   1.859
87790SOL     OW65266   3.085  12.330  10.115
87790SOL    HW165267   2.993  12.337  10.143
87790SOL    HW265268   3.091  12.245  10.073
87791SOL     OW65269   4.686   0.404   3.642
87791SOL    HW165270   4.649   0.492   3.639
87791SOL    HW265271   4.777   0.416   3.615
87792SOL     OW65272   2.867   7.474   8.846
87792SOL    HW165273   2.894   7.488   8.937
87792SOL    HW265274   2.948   7.480   8.796
87793SOL     OW65275   2.979   3.656  11.380
87793SOL    HW165276   3.025   3.667  11.296
87793SOL    HW265277   3.039   3.605  11.434
87794SOL     OW65278   0.342   2.786  13.371
87794SOL    HW165279   0.366   2.846  13.442
87794SOL    HW265280   0.376   2.829  13.292
87795SOL     OW65281   3.945   9.002  13.419
87795SOL    HW165282   4.035   9.035  13.430
87795SOL    HW265283   3.894   9.048  13.486
87796SOL     OW65284  11.394   5.112  11.945
87796SOL    HW165285  11.417   5.183  12.006
87796SOL    HW265286  11.345   5.156  11.876
87797SOL     OW65287   5.942  11.435   6.290
87797SOL    HW165288   6.018  11.489   6.268
87797SOL    HW265289   5.888  11.491   6.345
87798SOL     OW65290   9.953   6.356   1.532
87798SOL    HW165291  10.016   6.415   1.573
87798SOL    HW265292  10.004   6.278   1.511
87799SOL     OW65293   1.158  10.225  11.628
87799SOL    HW165294   1.152  10.219  11.532
87799SOL    HW265295   1.088  10.168  11.660
87800SOL     OW65296   0.200  10.314   1.350
87800SOL    HW165297   0.164  10.403   1.352
87800SOL    HW265298   0.174  10.280   1.265
87801SOL     OW65299   0.611   5.689  12.076
87801SOL    HW165300   0.564   5.717  11.997
87801SOL    HW265301   0.544   5.688  12.145
87802SOL     OW65302   6.677   0.504  10.670
87802SOL    HW165303   6.629   0.470  10.595
87802SOL    HW265304   6.723   0.427  10.705
87803SOL     OW65305   8.395   3.667   0.995
87803SOL    HW165306   8.460   3.675   1.065
87803SOL    HW265307   8.387   3.756   0.960
87804SOL     OW65308   4.665   3.134   4.571
87804SOL    HW165309   4.742   3.162   4.620
87804SOL    HW265310   4.596   3.130   4.637
87805SOL     OW65311   4.597   7.344   5.468
87805SOL    HW165312   4.568   7.254   5.454
87805SOL    HW265313   4.621   7.376   5.381
87806SOL     OW65314   7.659   6.156   5.930
87806SOL    HW165315   7.686   6.206   6.007
87806SOL    HW265316   7.576   6.196   5.903
87807SOL     OW65317   9.203  11.257   7.881
87807SOL    HW165318   9.128  11.294   7.834
87807SOL    HW265319   9.176  11.168   7.903
87808SOL     OW65320   6.790   8.567   3.720
87808SOL    HW165321   6.748   8.483   3.703
87808SOL    HW265322   6.878   8.558   3.683
87809SOL     OW65323   0.336  11.327   3.039
87809SOL    HW165324   0.356  11.419   3.057
87809SOL    HW265325   0.409  11.279   3.079
87810SOL     OW65326   4.610   3.460   7.512
87810SOL    HW165327   4.594   3.369   7.538
87810SOL    HW265328   4.522   3.497   7.502
87811SOL     OW65329   9.660   4.203   3.205
87811SOL    HW165330   9.601   4.164   3.140
87811SOL    HW265331   9.726   4.135   3.221
87812SOL     OW65332  12.187  10.258   4.219
87812SOL    HW165333  12.279  10.272   4.195
87812SOL    HW265334  12.185  10.267   4.314
87813SOL     OW65335   2.611   5.466   8.058
87813SOL    HW165336   2.682   5.437   8.116
87813SOL    HW265337   2.535   5.474   8.116
87814SOL     OW65338   8.534   8.887   6.890
87814SOL    HW165339   8.465   8.831   6.855
87814SOL    HW265340   8.589   8.907   6.815
87815SOL     OW65341  10.456  14.134   2.735
87815SOL    HW165342  10.367  14.121   2.703
87815SOL    HW265343  10.454  14.100   2.824
87816SOL     OW65344   3.962  14.486   9.444
87816SOL    HW165345   4.050  14.459   9.469
87816SOL    HW265346   3.972  14.577   9.416
87817SOL     OW65347   9.560   5.357   0.959
87817SOL    HW165348   9.569   5.445   0.994
87817SOL    HW265349   9.484   5.363   0.900
87818SOL     OW65350   4.681   6.609  12.584
87818SOL    HW165351   4.665   6.691  12.539
87818SOL    HW265352   4.690   6.544  12.514
87819SOL     OW65353  13.152   0.912   3.520
87819SOL    HW165354  13.168   0.828   3.477
87819SOL    HW265355  13.230   0.964   3.500
87820SOL     OW65356  14.815   3.814   6.848
87820SOL    HW165357  14.774   3.850   6.927
87820SOL    HW265358  14.753   3.748   6.817
87821SOL     OW65359   1.684  13.401  14.233
87821SOL    HW165360   1.768  13.357  14.220
87821SOL    HW265361   1.620  13.330  14.235
87822SOL     OW65362   8.834  10.255  14.708
87822SOL    HW165363   8.851  10.213  14.623
87822SOL    HW265364   8.739  10.254  14.716
87823SOL     OW65365  14.424   6.979  10.168
87823SOL    HW165366  14.342   6.942  10.198
87823SOL    HW265367  14.481   6.903  10.154
87824SOL     OW65368   0.050  13.926   5.871
87824SOL    HW165369  14.843  13.936   5.919
87824SOL    HW265370   0.112  13.983   5.917
87825SOL     OW65371   5.176   0.811   0.678
87825SOL    HW165372   5.199   0.836   0.588
87825SOL    HW265373   5.206   0.720   0.685
87826SOL     OW65374  11.230  12.058  13.798
87826SOL    HW165375  11.321  12.047  13.771
87826SOL    HW265376  11.233  12.125  13.866
87827SOL     OW65377   2.581   5.564  12.425
87827SOL    HW165378   2.639   5.570  12.501
87827SOL    HW265379   2.639   5.542  12.352
87828SOL     OW65380   7.005   2.110  11.379
87828SOL    HW165381   7.091   2.150  11.372
87828SOL    HW265382   6.985   2.109  11.472
87829SOL     OW65383   2.125  10.874   3.893
87829SOL    HW165384   2.036  10.849   3.868
87829SOL    HW265385   2.169  10.790   3.907
87830SOL     OW65386   2.566  12.239   9.695
87830SOL    HW165387   2.502  12.305   9.668
87830SOL    HW265388   2.518  12.156   9.695
87831SOL     OW65389   9.313   2.106   8.070
87831SOL    HW165390   9.375   2.152   8.013
87831SOL    HW265391   9.305   2.162   8.147
87832SOL     OW65392   6.896   5.294   1.056
87832SOL    HW165393   6.817   5.250   1.087
87832SOL    HW265394   6.898   5.377   1.104
87833SOL     OW65395  14.263   1.356   1.621
87833SOL    HW165396  14.284   1.369   1.714
87833SOL    HW265397  14.281   1.441   1.581
87834SOL     OW65398   1.281   6.216  11.621
87834SOL    HW165399   1.195   6.236  11.658
87834SOL    HW265400   1.294   6.123  11.641
87835SOL     OW65401  11.216  14.059   4.827
87835SOL    HW165402  11.136  14.064   4.774
87835SOL    HW265403  11.272  14.128   4.791
87836SOL     OW65404   4.170   9.842   5.718
87836SOL    HW165405   4.074   9.834   5.711
87836SOL    HW265406   4.189   9.927   5.679
87837SOL     OW65407   9.932  13.723   1.638
87837SOL    HW165408   9.892  13.661   1.577
87837SOL    HW265409   9.944  13.673   1.719
87838SOL     OW65410  14.655  13.231   2.595
87838SOL    HW165411  14.728  13.290   2.576
87838SOL    HW265412  14.586  13.257   2.534
87839SOL     OW65413   9.893   5.428   4.615
87839SOL    HW165414   9.965   5.479   4.650
87839SOL    HW265415   9.836   5.492   4.572
87840SOL     OW65416  12.820   4.067   6.411
87840SOL    HW165417  12.912   4.069   6.385
87840SOL    HW265418  12.820   4.099   6.501
87841SOL     OW65419   8.132   2.879   4.848
87841SOL    HW165420   8.160   2.937   4.777
87841SOL    HW265421   8.204   2.817   4.857
87842SOL     OW65422   1.734  10.282  14.464
87842SOL    HW165423   1.683  10.260  14.386
87842SOL    HW265424   1.783  10.361  14.439
87843SOL     OW65425   9.219  11.816  11.766
87843SOL    HW165426   9.261  11.853  11.689
87843SOL    HW265427   9.170  11.740  11.733
87844SOL     OW65428   6.476   4.396  13.351
87844SOL    HW165429   6.572   4.390  13.350
87844SOL    HW265430   6.446   4.306  13.346
87845SOL     OW65431   3.655  14.739   6.840
87845SOL    HW165432   3.694  14.688   6.769
87845SOL    HW265433   3.710  14.817   6.847
87846SOL     OW65434   2.881  12.601  12.836
87846SOL    HW165435   2.962  12.603  12.785
87846SOL    HW265436   2.839  12.685  12.818
87847SOL     OW65437  12.791  12.522   4.033
87847SOL    HW165438  12.827  12.454   3.975
87847SOL    HW265439  12.810  12.604   3.989
87848SOL     OW65440  12.975   0.362   6.296
87848SOL    HW165441  13.058   0.405   6.316
87848SOL    HW265442  12.978   0.280   6.346
87849SOL     OW65443   6.347   6.038   3.233
87849SOL    HW165444   6.311   6.037   3.144
87849SOL    HW265445   6.343   5.947   3.262
87850SOL     OW65446   3.908   2.787   5.746
87850SOL    HW165447   3.838   2.728   5.720
87850SOL    HW265448   3.977   2.772   5.681
87851SOL     OW65449  13.143   4.634   4.291
87851SOL    HW165450  13.121   4.552   4.247
87851SOL    HW265451  13.082   4.698   4.255
87852SOL     OW65452   8.989   8.448   7.385
87852SOL    HW165453   9.044   8.418   7.313
87852SOL    HW265454   8.903   8.410   7.366
87853SOL     OW65455   5.646  13.306   0.620
87853SOL    HW165456   5.703  13.380   0.639
87853SOL    HW265457   5.696  13.229   0.645
87854SOL     OW65458  12.311  14.669   2.549
87854SOL    HW165459  12.312  14.613   2.627
87854SOL    HW265460  12.303  14.608   2.476
87855SOL     OW65461  12.638   9.034   7.145
87855SOL    HW165462  12.723   9.077   7.154
87855SOL    HW265463  12.606   9.026   7.235
87856SOL     OW65464  12.715   3.400   4.040
87856SOL    HW165465  12.724   3.334   4.108
87856SOL    HW265466  12.630   3.382   4.000
87857SOL     OW65467  13.027   4.028   3.853
87857SOL    HW165468  12.975   4.105   3.830
87857SOL    HW265469  12.962   3.960   3.872
87858SOL     OW65470   1.828   4.611  13.198
87858SOL    HW165471   1.773   4.545  13.155
87858SOL    HW265472   1.867   4.660  13.126
87859SOL     OW65473   8.081  10.292   0.575
87859SOL    HW165474   8.051  10.352   0.506
87859SOL    HW265475   8.001  10.262   0.617
87860SOL     OW65476   7.337   4.017   1.321
87860SOL    HW165477   7.387   4.044   1.398
87860SOL    HW265478   7.300   3.933   1.345
87861SOL     OW65479   3.233   1.201   6.719
87861SOL    HW165480   3.154   1.223   6.769
87861SOL    HW265481   3.207   1.128   6.664
87862SOL     OW65482   4.101  12.957  14.559
87862SOL    HW165483   4.021  13.006  14.576
87862SOL    HW265484   4.166  12.996  14.618
87863SOL     OW65485  14.636   3.646  11.711
87863SOL    HW165486  14.704   3.606  11.655
87863SOL    HW265487  14.566   3.668  11.650
87864SOL     OW65488  11.734  11.681   7.771
87864SOL    HW165489  11.825  11.651   7.776
87864SOL    HW265490  11.691  11.638   7.844
87865SOL     OW65491   1.672   4.633   9.357
87865SOL    HW165492   1.767   4.625   9.364
87865SOL    HW265493   1.657   4.669   9.270
87866SOL     OW65494  11.102   2.969   2.143
87866SOL    HW165495  11.112   3.047   2.089
87866SOL    HW265496  11.170   2.910   2.113
87867SOL     OW65497   2.967   2.577   7.055
87867SOL    HW165498   3.053   2.563   7.016
87867SOL    HW265499   2.938   2.661   7.020
87868SOL     OW65500   8.297  14.787   7.916
87868SOL    HW165501   8.372  14.736   7.887
87868SOL    HW265502   8.336  14.863   7.961
87869SOL     OW65503  13.220   4.254  13.944
87869SOL    HW165504  13.245   4.346  13.946
87869SOL    HW265505  13.299   4.207  13.970
87870SOL     OW65506   6.765  13.548  12.797
87870SOL    HW165507   6.789  13.640  12.795
87870SOL    HW265508   6.710  13.538  12.874
87871SOL     OW65509   0.785   5.068  10.119
87871SOL    HW165510   0.725   5.042  10.050
87871SOL    HW265511   0.752   5.024  10.197
87872SOL     OW65512  10.488   2.041  13.823
87872SOL    HW165513  10.448   2.072  13.741
87872SOL    HW265514  10.423   1.983  13.861
87873SOL     OW65515  11.319   1.480   1.882
87873SOL    HW165516  11.280   1.397   1.910
87873SOL    HW265517  11.283   1.495   1.795
87874SOL     OW65518  14.194  13.953   9.433
87874SOL    HW165519  14.193  13.872   9.382
87874SOL    HW265520  14.117  14.002   9.404
87875SOL     OW65521  14.871   2.557   7.982
87875SOL    HW165522   0.068   2.615   8.008
87875SOL    HW265523  14.844   2.590   7.897
87876SOL     OW65524   0.523   8.103   1.538
87876SOL    HW165525   0.475   8.177   1.574
87876SOL    HW265526   0.474   8.078   1.460
87877SOL     OW65527   3.627  12.046   7.180
87877SOL    HW165528   3.669  11.963   7.156
87877SOL    HW265529   3.701  12.103   7.203
87878SOL     OW65530   7.233  13.297   4.979
87878SOL    HW165531   7.170  13.354   5.022
87878SOL    HW265532   7.296  13.274   5.048
87879SOL     OW65533  10.426  14.005   4.492
87879SOL    HW165534  10.377  13.923   4.502
87879SOL    HW265535  10.508  13.978   4.449
87880SOL     OW65536  13.261   3.037   8.281
87880SOL    HW165537  13.328   2.971   8.296
87880SOL    HW265538  13.239   3.069   8.369
87881SOL     OW65539   2.687  10.023   8.455
87881SOL    HW165540   2.764  10.022   8.512
87881SOL    HW265541   2.613  10.013   8.515
87882SOL     OW65542   4.963  11.525  14.423
87882SOL    HW165543   4.955  11.611  14.464
87882SOL    HW265544   4.971  11.544  14.329
87883SOL     OW65545  14.447   5.657  13.101
87883SOL    HW165546  14.486   5.706  13.173
87883SOL    HW265547  14.389   5.720  13.057
87884SOL     OW65548   1.331   2.462  13.223
87884SOL    HW165549   1.277   2.383  13.230
87884SOL    HW265550   1.404   2.445  13.282
87885SOL     OW65551   6.422   1.916   4.234
87885SOL    HW165552   6.369   1.899   4.311
87885SOL    HW265553   6.510   1.890   4.259
87886SOL     OW65554   7.465   1.692   3.156
87886SOL    HW165555   7.454   1.783   3.182
87886SOL    HW265556   7.552   1.689   3.115
87887SOL     OW65557  11.980  10.683  11.934
87887SOL    HW165558  12.074  10.691  11.915
87887SOL    HW265559  11.977  10.659  12.027
87888SOL     OW65560   0.577   1.986  14.471
87888SOL    HW165561   0.610   1.931  14.542
87888SOL    HW265562   0.649   2.047  14.453
87889SOL     OW65563  12.542   8.489  14.294
87889SOL    HW165564  12.592   8.540  14.230
87889SOL    HW265565  12.486   8.433  14.241
87890SOL     OW65566  12.244   8.928   5.548
87890SOL    HW165567  12.162   8.923   5.598
87890SOL    HW265568  12.234   8.861   5.480
87891SOL     OW65569  10.842   7.632  13.452
87891SOL    HW165570  10.767   7.574  13.469
87891SOL    HW265571  10.872   7.658  13.539
87892SOL     OW65572   3.482  11.428   6.805
87892SOL    HW165573   3.415  11.494   6.824
87892SOL    HW265574   3.444  11.345   6.833
87893SOL     OW65575   3.011   3.341   9.756
87893SOL    HW165576   2.926   3.321   9.795
87893SOL    HW265577   3.021   3.435   9.768
87894SOL     OW65578  11.090  12.701   1.232
87894SOL    HW165579  11.018  12.749   1.273
87894SOL    HW265580  11.088  12.728   1.140
87895SOL     OW65581  11.757  13.698   7.158
87895SOL    HW165582  11.813  13.622   7.170
87895SOL    HW265583  11.817  13.767   7.129
87896SOL     OW65584   7.869   3.682  10.914
87896SOL    HW165585   7.905   3.720  10.834
87896SOL    HW265586   7.787   3.641  10.886
87897SOL     OW65587  14.252   0.922   7.585
87897SOL    HW165588  14.169   0.909   7.539
87897SOL    HW265589  14.313   0.864   7.540
87898SOL     OW65590  11.246   7.810   3.339
87898SOL    HW165591  11.235   7.862   3.419
87898SOL    HW265592  11.322   7.755   3.356
87899SOL     OW65593  10.775   2.933   4.359
87899SOL    HW165594  10.753   2.929   4.266
87899SOL    HW265595  10.871   2.940   4.361
87900SOL     OW65596   0.733  11.034   3.743
87900SOL    HW165597   0.694  11.022   3.656
87900SOL    HW265598   0.758  11.126   3.745
87901SOL     OW65599   5.282   2.115   9.240
87901SOL    HW165600   5.249   2.128   9.329
87901SOL    HW265601   5.375   2.097   9.252
87902SOL     OW65602   2.984   4.628   1.411
87902SOL    HW165603   2.926   4.699   1.439
87902SOL    HW265604   2.927   4.568   1.363
87903SOL     OW65605  12.431   0.931   8.083
87903SOL    HW165606  12.353   0.878   8.072
87903SOL    HW265607  12.495   0.872   8.123
87904SOL     OW65608  11.659  12.735   4.388
87904SOL    HW165609  11.696  12.744   4.476
87904SOL    HW265610  11.647  12.641   4.377
87905SOL     OW65611  10.084  14.068   5.472
87905SOL    HW165612  10.111  14.160   5.467
87905SOL    HW265613  10.139  14.023   5.407
87906SOL     OW65614  12.383  14.222   1.855
87906SOL    HW165615  12.390  14.150   1.918
87906SOL    HW265616  12.355  14.180   1.774
87907SOL     OW65617  13.118   4.515  12.116
87907SOL    HW165618  13.037   4.480  12.154
87907SOL    HW265619  13.113   4.610  12.132
87908SOL     OW65620   3.813   5.154  13.912
87908SOL    HW165621   3.803   5.185  13.822
87908SOL    HW265622   3.755   5.078  13.918
87909SOL     OW65623   6.515   4.340   6.676
87909SOL    HW165624   6.494   4.370   6.765
87909SOL    HW265625   6.555   4.416   6.635
87910SOL     OW65626   6.498  14.279   2.066
87910SOL    HW165627   6.416  14.318   2.036
87910SOL    HW265628   6.557  14.353   2.080
87911SOL     OW65629  12.938   0.666   3.385
87911SOL    HW165630  12.972   0.712   3.309
87911SOL    HW265631  12.899   0.586   3.350
87912SOL     OW65632   0.233   2.744  13.012
87912SOL    HW165633   0.239   2.661  13.059
87912SOL    HW265634   0.304   2.797  13.048
87913SOL     OW65635   1.902   4.993   7.528
87913SOL    HW165636   1.882   4.940   7.451
87913SOL    HW265637   1.997   5.001   7.529
87914SOL     OW65638   7.041   4.827  13.435
87914SOL    HW165639   6.984   4.849  13.360
87914SOL    HW265640   6.980   4.798  13.503
87915SOL     OW65641   7.426  14.847  10.966
87915SOL    HW165642   7.483  14.788  11.014
87915SOL    HW265643   7.483   0.044  10.939
87916SOL     OW65644   7.796   1.229   7.388
87916SOL    HW165645   7.855   1.157   7.409
87916SOL    HW265646   7.824   1.300   7.445
87917SOL     OW65647   5.219   1.479   3.259
87917SOL    HW165648   5.236   1.493   3.352
87917SOL    HW265649   5.125   1.496   3.249
87918SOL     OW65650   4.241   0.260   1.943
87918SOL    HW165651   4.315   0.320   1.934
87918SOL    HW265652   4.258   0.191   1.878
87919SOL     OW65653   9.705   1.265  13.107
87919SOL    HW165654   9.706   1.192  13.168
87919SOL    HW265655   9.741   1.229  13.026
87920SOL     OW65656  12.672   9.915  12.768
87920SOL    HW165657  12.654   9.991  12.824
87920SOL    HW265658  12.587   9.894  12.729
87921SOL     OW65659  14.400   0.802   9.854
87921SOL    HW165660  14.469   0.866   9.870
87921SOL    HW265661  14.355   0.834   9.776
87922SOL     OW65662   4.028   9.139   7.132
87922SOL    HW165663   3.940   9.171   7.151
87922SOL    HW265664   4.025   9.047   7.158
87923SOL     OW65665  13.246   2.428   4.833
87923SOL    HW165666  13.277   2.339   4.824
87923SOL    HW265667  13.263   2.469   4.748
87924SOL     OW65668   4.241   4.655  12.347
87924SOL    HW165669   4.286   4.734  12.375
87924SOL    HW265670   4.152   4.684  12.328
87925SOL     OW65671   1.244   4.865  14.105
87925SOL    HW165672   1.151   4.885  14.113
87925SOL    HW265673   1.266   4.887  14.015
87926SOL     OW65674  10.387   6.096   0.509
87926SOL    HW165675  10.446   6.166   0.536
87926SOL    HW265676  10.425   6.062   0.428
87927SOL     OW65677  11.797   6.917  11.072
87927SOL    HW165678  11.715   6.937  11.118
87927SOL    HW265679  11.826   7.001  11.037
87928SOL     OW65680  12.652   8.726   9.943
87928SOL    HW165681  12.628   8.645   9.897
87928SOL    HW265682  12.674   8.697  10.032
87929SOL     OW65683   8.952  12.185   1.757
87929SOL    HW165684   8.995  12.104   1.783
87929SOL    HW265685   9.001  12.214   1.679
87930SOL     OW65686   6.003   1.740   0.204
87930SOL    HW165687   6.021   1.787   0.285
87930SOL    HW265688   5.989   1.649   0.231
87931SOL     OW65689  11.572   0.684   9.758
87931SOL    HW165690  11.655   0.731   9.760
87931SOL    HW265691  11.558   0.663   9.665
87932SOL     OW65692   9.082   8.888  14.722
87932SOL    HW165693   9.025   8.856  14.791
87932SOL    HW265694   9.045   8.973  14.698
87933SOL     OW65695   1.467  11.025   2.218
87933SOL    HW165696   1.452  11.081   2.294
87933SOL    HW265697   1.395  10.962   2.219
87934SOL     OW65698   6.294  13.446   2.499
87934SOL    HW165699   6.333  13.443   2.412
87934SOL    HW265700   6.200  13.445   2.484
87935SOL     OW65701  12.799   3.003  14.371
87935SOL    HW165702  12.892   3.012  14.387
87935SOL    HW265703  12.787   2.910  14.352
87936SOL     OW65704  11.331  12.601   0.783
87936SOL    HW165705  11.298  12.641   0.702
87936SOL    HW265706  11.318  12.507   0.769
87937SOL     OW65707   8.169   5.867   1.814
87937SOL    HW165708   8.112   5.859   1.737
87937SOL    HW265709   8.185   5.777   1.841
87938SOL     OW65710  13.391   2.250  13.750
87938SOL    HW165711  13.375   2.328  13.803
87938SOL    HW265712  13.304   2.212  13.737
87939SOL     OW65713   5.771   1.325   3.332
87939SOL    HW165714   5.739   1.253   3.277
87939SOL    HW265715   5.707   1.332   3.403
87940SOL     OW65716  10.674   9.980   2.394
87940SOL    HW165717  10.711  10.060   2.432
87940SOL    HW265718  10.690   9.913   2.460
87941SOL     OW65719   4.827   5.220   6.299
87941SOL    HW165720   4.745   5.234   6.345
87941SOL    HW265721   4.842   5.301   6.251
87942SOL     OW65722   3.075   3.955   7.296
87942SOL    HW165723   2.982   3.950   7.274
87942SOL    HW265724   3.114   3.879   7.253
87943SOL     OW65725   2.811   5.672  13.122
87943SOL    HW165726   2.855   5.622  13.190
87943SOL    HW265727   2.749   5.728  13.169
87944SOL     OW65728   4.656   0.086   9.997
87944SOL    HW165729   4.648   0.029   9.921
87944SOL    HW265730   4.574   0.134  10.001
87945SOL     OW65731   7.297   0.777   9.407
87945SOL    HW165732   7.315   0.794   9.315
87945SOL    HW265733   7.382   0.790   9.450
87946SOL     OW65734   3.142   2.337   0.514
87946SOL    HW165735   3.123   2.283   0.591
87946SOL    HW265736   3.085   2.303   0.446
87947SOL     OW65737   1.802  12.800   3.873
87947SOL    HW165738   1.809  12.709   3.900
87947SOL    HW265739   1.882  12.817   3.823
87948SOL     OW65740   1.116  11.663   4.980
87948SOL    HW165741   1.176  11.692   4.911
87948SOL    HW265742   1.147  11.709   5.059
87949SOL     OW65743   7.001  12.784   0.677
87949SOL    HW165744   7.033  12.874   0.681
87949SOL    HW265745   6.967  12.767   0.765
87950SOL     OW65746   7.470   4.414   8.464
87950SOL    HW165747   7.434   4.495   8.500
87950SOL    HW265748   7.509   4.370   8.540
87951SOL     OW65749   0.518   0.871  14.307
87951SOL    HW165750   0.584   0.903  14.246
87951SOL    HW265751   0.512   0.777  14.287
87952SOL     OW65752   2.361   7.123   3.231
87952SOL    HW165753   2.399   7.127   3.143
87952SOL    HW265754   2.268   7.143   3.217
87953SOL     OW65755   9.030  10.455   6.490
87953SOL    HW165756   8.972  10.529   6.474
87953SOL    HW265757   9.039  10.413   6.404
87954SOL     OW65758  10.677  14.079  14.260
87954SOL    HW165759  10.648  14.015  14.195
87954SOL    HW265760  10.686  14.028  14.341
87955SOL     OW65761   2.155   3.781   0.013
87955SOL    HW165762   2.149   3.857   0.072
87955SOL    HW265763   2.172   3.707   0.071
87956SOL     OW65764  10.379   0.045   0.606
87956SOL    HW165765  10.380  14.854   0.536
87956SOL    HW265766  10.468   0.044   0.642
87957SOL     OW65767   9.436   7.775  12.902
87957SOL    HW165768   9.360   7.809  12.948
87957SOL    HW265769   9.510   7.822  12.941
87958SOL     OW65770   9.639  11.890   5.206
87958SOL    HW165771   9.676  11.822   5.150
87958SOL    HW265772   9.699  11.964   5.197
87959SOL     OW65773  12.615   7.453   0.011
87959SOL    HW165774  12.521   7.458  14.869
87959SOL    HW265775  12.639   7.364  14.861
87960SOL     OW65776   8.944   7.061   4.813
87960SOL    HW165777   9.009   7.124   4.781
87960SOL    HW265778   8.988   6.977   4.808
87961SOL     OW65779   2.635  13.282   7.114
87961SOL    HW165780   2.605  13.205   7.067
87961SOL    HW265781   2.588  13.355   7.073
87962SOL     OW65782   2.768   7.905   0.076
87962SOL    HW165783   2.858   7.905   0.109
87962SOL    HW265784   2.753   7.816   0.045
87963SOL     OW65785  12.326  14.569   0.252
87963SOL    HW165786  12.351  14.537   0.166
87963SOL    HW265787  12.233  14.592   0.243
87964SOL     OW65788   8.516   2.670   2.244
87964SOL    HW165789   8.456   2.741   2.220
87964SOL    HW265790   8.562   2.649   2.162
87965SOL     OW65791  13.278   1.909   6.285
87965SOL    HW165792  13.293   1.846   6.355
87965SOL    HW265793  13.363   1.918   6.241
87966SOL     OW65794   6.259  12.022   5.963
87966SOL    HW165795   6.285  11.992   6.050
87966SOL    HW265796   6.294  11.955   5.904
87967SOL     OW65797   2.213  11.835   6.133
87967SOL    HW165798   2.285  11.833   6.196
87967SOL    HW265799   2.199  11.928   6.115
87968SOL     OW65800   1.556  11.834   3.957
87968SOL    HW165801   1.638  11.820   4.004
87968SOL    HW265802   1.577  11.813   3.866
87969SOL     OW65803   4.824  11.735   0.093
87969SOL    HW165804   4.752  11.753   0.153
87969SOL    HW265805   4.891  11.799   0.116
87970SOL     OW65806   4.434   9.857  10.152
87970SOL    HW165807   4.498   9.846  10.082
87970SOL    HW265808   4.400   9.769  10.167
87971SOL     OW65809   3.557   3.312  11.325
87971SOL    HW165810   3.535   3.242  11.264
87971SOL    HW265811   3.580   3.267  11.406
87972SOL     OW65812   1.704   5.304   0.862
87972SOL    HW165813   1.772   5.341   0.806
87972SOL    HW265814   1.631   5.365   0.855
87973SOL     OW65815  13.679   2.297   4.640
87973SOL    HW165816  13.687   2.209   4.677
87973SOL    HW265817  13.652   2.352   4.714
87974SOL     OW65818  14.499   0.326   1.416
87974SOL    HW165819  14.531   0.241   1.446
87974SOL    HW265820  14.457   0.307   1.332
87975SOL     OW65821   7.148  11.188   9.208
87975SOL    HW165822   7.193  11.172   9.125
87975SOL    HW265823   7.217  11.183   9.274
87976SOL     OW65824   6.180   3.749   5.862
87976SOL    HW165825   6.239   3.688   5.906
87976SOL    HW265826   6.110   3.765   5.925
87977SOL     OW65827   9.838  11.056   5.025
87977SOL    HW165828   9.776  11.011   5.083
87977SOL    HW265829   9.922  11.047   5.069
87978SOL     OW65830  13.089   3.300   6.673
87978SOL    HW165831  13.149   3.270   6.606
87978SOL    HW265832  13.062   3.221   6.719
87979SOL     OW65833   2.968   4.533  13.119
87979SOL    HW165834   2.922   4.610  13.086
87979SOL    HW265835   2.905   4.462  13.108
87980SOL     OW65836   8.799   4.201  14.012
87980SOL    HW165837   8.768   4.227  14.099
87980SOL    HW265838   8.882   4.156  14.030
87981SOL     OW65839   6.266   0.635   9.595
87981SOL    HW165840   6.261   0.598   9.683
87981SOL    HW265841   6.238   0.726   9.605
87982SOL     OW65842  11.644   3.492  13.915
87982SOL    HW165843  11.734   3.478  13.887
87982SOL    HW265844  11.630   3.427  13.984
87983SOL     OW65845  12.221   5.574  12.761
87983SOL    HW165846  12.303   5.620  12.742
87983SOL    HW265847  12.177   5.569  12.676
87984SOL     OW65848  12.536  10.315  14.793
87984SOL    HW165849  12.548  10.350  14.705
87984SOL    HW265850  12.444  10.288  14.797
87985SOL     OW65851  14.091  14.828   8.496
87985SOL    HW165852  14.138  14.874   8.566
87985SOL    HW265853  14.043  14.759   8.541
87986SOL     OW65854   7.364   2.519   4.166
87986SOL    HW165855   7.337   2.517   4.075
87986SOL    HW265856   7.430   2.450   4.173
87987SOL     OW65857  11.362   6.978   4.527
87987SOL    HW165858  11.387   6.926   4.450
87987SOL    HW265859  11.414   6.941   4.598
87988SOL     OW65860  12.365   8.204   8.608
87988SOL    HW165861  12.408   8.276   8.653
87988SOL    HW265862  12.336   8.241   8.525
87989SOL     OW65863  11.204  11.715  11.196
87989SOL    HW165864  11.145  11.643  11.221
87989SOL    HW265865  11.215  11.765  11.277
87990SOL     OW65866   9.055   0.518   2.650
87990SOL    HW165867   9.081   0.521   2.742
87990SOL    HW265868   9.096   0.438   2.616
87991SOL     OW65869  14.347   4.333   2.039
87991SOL    HW165870  14.365   4.424   2.017
87991SOL    HW265871  14.428   4.286   2.018
87992SOL     OW65872   1.458   2.811   8.004
87992SOL    HW165873   1.406   2.881   7.965
87992SOL    HW265874   1.422   2.800   8.092
87993SOL     OW65875   4.067   8.565   7.162
87993SOL    HW165876   4.085   8.545   7.253
87993SOL    HW265877   4.039   8.481   7.125
87994SOL     OW65878   1.179  13.514  13.739
87994SOL    HW165879   1.226  13.477  13.664
87994SOL    HW265880   1.201  13.455  13.811
87995SOL     OW65881   7.575   1.096  12.546
87995SOL    HW165882   7.632   1.055  12.481
87995SOL    HW265883   7.498   1.124  12.497
87996SOL     OW65884   8.355   0.644   3.756
87996SOL    HW165885   8.319   0.690   3.680
87996SOL    HW265886   8.436   0.690   3.775
87997SOL     OW65887   9.699  13.811   8.162
87997SOL    HW165888   9.733  13.807   8.251
87997SOL    HW265889   9.777  13.809   8.106
87998SOL     OW65890  13.351  13.498  12.565
87998SOL    HW165891  13.402  13.417  12.562
87998SOL    HW265892  13.417  13.567  12.568
87999SOL     OW65893   6.800  13.224  11.453
87999SOL    HW165894   6.792  13.129  11.462
87999SOL    HW265895   6.731  13.260  11.508
88000SOL     OW65896   8.145   0.452   6.341
88000SOL    HW165897   8.113   0.376   6.292
88000SOL    HW265898   8.068   0.507   6.353
88001SOL     OW65899   6.585  14.550   2.104
88001SOL    HW165900   6.513  14.613   2.103
88001SOL    HW265901   6.658  14.596   2.146
88002SOL     OW65902  12.079   1.359   1.180
88002SOL    HW165903  12.013   1.428   1.179
88002SOL    HW265904  12.103   1.351   1.273
88003SOL     OW65905   3.767   0.941   3.308
88003SOL    HW165906   3.753   0.937   3.213
88003SOL    HW265907   3.860   0.961   3.317
88004SOL     OW65908  13.021  12.593   5.858
88004SOL    HW165909  12.936  12.612   5.817
88004SOL    HW265910  13.004  12.600   5.952
88005SOL     OW65911   4.642   0.829   1.099
88005SOL    HW165912   4.562   0.881   1.095
88005SOL    HW265913   4.617   0.744   1.062
88006SOL     OW65914   9.035  10.922   3.012
88006SOL    HW165915   9.019  10.872   3.092
88006SOL    HW265916   9.078  11.002   3.041
88007SOL     OW65917   7.055   9.737   4.820
88007SOL    HW165918   7.141   9.773   4.798
88007SOL    HW265919   7.034   9.678   4.748
88008SOL     OW65920   4.133  14.197   9.730
88008SOL    HW165921   4.071  14.125   9.740
88008SOL    HW265922   4.147  14.230   9.819
88009SOL     OW65923  14.522  12.356   1.382
88009SOL    HW165924  14.561  12.372   1.468
88009SOL    HW265925  14.593  12.373   1.320
88010SOL     OW65926   1.480  10.815   5.854
88010SOL    HW165927   1.531  10.772   5.922
88010SOL    HW265928   1.390  10.787   5.872
88011SOL     OW65929   4.495  10.415   1.108
88011SOL    HW165930   4.550  10.435   1.032
88011SOL    HW265931   4.477  10.500   1.148
88012SOL     OW65932   9.964   5.954  13.009
88012SOL    HW165933   9.888   6.013  13.014
88012SOL    HW265934   9.935   5.882  12.953
88013SOL     OW65935  10.621   4.493   1.382
88013SOL    HW165936  10.602   4.502   1.475
88013SOL    HW265937  10.539   4.460   1.344
88014SOL     OW65938  11.718   8.166  14.051
88014SOL    HW165939  11.636   8.120  14.069
88014SOL    HW265940  11.772   8.102  14.006
88015SOL     OW65941   0.988   6.072   6.676
88015SOL    HW165942   1.025   6.053   6.762
88015SOL    HW265943   1.025   6.005   6.618
88016SOL     OW65944   5.882   5.408   3.731
88016SOL    HW165945   5.886   5.497   3.766
88016SOL    HW265946   5.853   5.354   3.805
88017SOL     OW65947   9.543  11.981  14.051
88017SOL    HW165948   9.469  12.041  14.036
88017SOL    HW265949   9.620  12.031  14.025
88018SOL     OW65950   8.973   8.434   1.923
88018SOL    HW165951   8.949   8.379   1.997
88018SOL    HW265952   8.903   8.499   1.918
88019SOL     OW65953  11.125   7.710   3.095
88019SOL    HW165954  11.132   7.770   3.170
88019SOL    HW265955  11.067   7.640   3.126
88020SOL     OW65956   2.434   2.593   7.953
88020SOL    HW165957   2.498   2.525   7.976
88020SOL    HW265958   2.487   2.670   7.931
88021SOL     OW65959  10.369   6.957   8.938
88021SOL    HW165960  10.382   7.045   8.975
88021SOL    HW265961  10.277   6.958   8.909
88022SOL     OW65962   4.288  14.610   3.058
88022SOL    HW165963   4.262  14.653   3.139
88022SOL    HW265964   4.324  14.680   3.004
88023SOL     OW65965  12.370   8.781  12.476
88023SOL    HW165966  12.365   8.726  12.555
88023SOL    HW265967  12.362   8.720  12.403
88024SOL     OW65968   2.143   6.132  13.949
88024SOL    HW165969   2.187   6.047  13.952
88024SOL    HW265970   2.168   6.175  14.031
88025SOL     OW65971   0.969   6.689   0.104
88025SOL    HW165972   0.977   6.665   0.197
88025SOL    HW265973   1.007   6.777   0.099
88026SOL     OW65974   3.712   4.931  14.857
88026SOL    HW165975   3.650   4.996   0.015
88026SOL    HW265976   3.795   4.955   0.023
88027SOL     OW65977  10.487  14.121   9.040
88027SOL    HW165978  10.428  14.086   8.973
88027SOL    HW265979  10.463  14.213   9.048
88028SOL     OW65980   1.455  14.324   2.614
88028SOL    HW165981   1.417  14.243   2.579
88028SOL    HW265982   1.399  14.346   2.688
88029SOL     OW65983  11.043  14.711  11.558
88029SOL    HW165984  11.125  14.677  11.523
88029SOL    HW265985  11.046  14.690  11.651
88030SOL     OW65986   4.753  10.716   3.254
88030SOL    HW165987   4.684  10.675   3.306
88030SOL    HW265988   4.707  10.780   3.200
88031SOL     OW65989   4.266  14.629  14.675
88031SOL    HW165990   4.326  14.610  14.602
88031SOL    HW265991   4.225  14.712  14.651
88032SOL     OW65992   0.584   9.140   2.351
88032SOL    HW165993   0.588   9.169   2.442
88032SOL    HW265994   0.533   9.060   2.353
88033SOL     OW65995  13.392   9.792   7.084
88033SOL    HW165996  13.418   9.711   7.127
88033SOL    HW265997  13.313   9.820   7.132
88034SOL     OW65998  11.893   2.062  10.970
88034SOL    HW165999  11.882   2.025  11.058
88034SOL    HW266000  11.953   2.002  10.927
88035SOL     OW66001   5.682   0.664  13.627
88035SOL    HW166002   5.771   0.632  13.612
88035SOL    HW266003   5.656   0.704  13.544
88036SOL     OW66004  12.768   8.952   3.631
88036SOL    HW166005  12.679   8.919   3.616
88036SOL    HW266006  12.777   9.024   3.568
88037SOL     OW66007  11.001   0.573   1.468
88037SOL    HW166008  11.048   0.513   1.526
88037SOL    HW266009  10.954   0.516   1.407
88038SOL     OW66010   1.734   3.976   1.783
88038SOL    HW166011   1.780   3.990   1.700
88038SOL    HW266012   1.643   3.999   1.765
88039SOL     OW66013  12.746   5.119  10.425
88039SOL    HW166014  12.786   5.124  10.338
88039SOL    HW266015  12.817   5.088  10.482
88040SOL     OW66016   1.617   2.242   6.724
88040SOL    HW166017   1.587   2.183   6.655
88040SOL    HW266018   1.600   2.330   6.690
88041SOL     OW66019   4.427   6.102   6.227
88041SOL    HW166020   4.482   6.035   6.269
88041SOL    HW266021   4.489   6.158   6.180
88042SOL     OW66022  10.139   3.876   0.648
88042SOL    HW166023  10.222   3.896   0.692
88042SOL    HW266024  10.093   3.960   0.645
88043SOL     OW66025   2.454  13.609   8.523
88043SOL    HW166026   2.380  13.584   8.578
88043SOL    HW266027   2.518  13.645   8.583
88044SOL     OW66028   3.790  13.930   1.899
88044SOL    HW166029   3.807  13.868   1.969
88044SOL    HW266030   3.873  13.939   1.853
88045SOL     OW66031   2.130  11.987  12.970
88045SOL    HW166032   2.220  12.020  12.974
88045SOL    HW266033   2.076  12.066  12.964
88046SOL     OW66034   3.030   7.310  10.483
88046SOL    HW166035   3.103   7.356  10.526
88046SOL    HW266036   2.969   7.289  10.554
88047SOL     OW66037   5.269  12.781  11.377
88047SOL    HW166038   5.349  12.820  11.413
88047SOL    HW266039   5.219  12.856  11.345
88048SOL     OW66040   3.454   5.806   9.190
88048SOL    HW166041   3.411   5.884   9.224
88048SOL    HW266042   3.546   5.829   9.187
88049SOL     OW66043   5.646  12.570   0.339
88049SOL    HW166044   5.696  12.650   0.319
88049SOL    HW266045   5.670  12.508   0.271
88050SOL     OW66046   4.440  11.986   5.630
88050SOL    HW166047   4.516  11.929   5.627
88050SOL    HW266048   4.385  11.957   5.557
88051SOL     OW66049  12.220  14.771   8.106
88051SOL    HW166050  12.166  14.844   8.075
88051SOL    HW266051  12.302  14.813   8.133
88052SOL     OW66052   6.049   2.417  14.034
88052SOL    HW166053   5.975   2.424  14.093
88052SOL    HW266054   6.011   2.429  13.947
88053SOL     OW66055   3.103   1.386   1.787
88053SOL    HW166056   3.170   1.335   1.743
88053SOL    HW266057   3.095   1.346   1.874
88054SOL     OW66058   1.117   6.604  11.564
88054SOL    HW166059   1.159   6.605  11.650
88054SOL    HW266060   1.185   6.572  11.504
88055SOL     OW66061  10.586   1.477   4.439
88055SOL    HW166062  10.501   1.452   4.404
88055SOL    HW266063  10.571   1.562   4.480
88056SOL     OW66064   3.088   5.680   0.662
88056SOL    HW166065   3.059   5.729   0.586
88056SOL    HW266066   3.011   5.673   0.718
88057SOL     OW66067   2.961   1.460  13.578
88057SOL    HW166068   2.922   1.444  13.492
88057SOL    HW266069   2.896   1.513  13.624
88058SOL     OW66070   8.545   5.673   0.459
88058SOL    HW166071   8.620   5.726   0.487
88058SOL    HW266072   8.540   5.685   0.365
88059SOL     OW66073   5.465  14.525  12.849
88059SOL    HW166074   5.426  14.523  12.761
88059SOL    HW266075   5.467  14.618  12.872
88060SOL     OW66076   1.820   3.426  10.460
88060SOL    HW166077   1.914   3.410  10.474
88060SOL    HW266078   1.791   3.472  10.538
88061SOL     OW66079   4.993   4.943  13.525
88061SOL    HW166080   4.981   4.860  13.572
88061SOL    HW266081   4.988   5.010  13.592
88062SOL     OW66082  11.280   8.259  14.245
88062SOL    HW166083  11.324   8.338  14.211
88062SOL    HW266084  11.265   8.205  14.168
88063SOL     OW66085   2.011   6.680   9.442
88063SOL    HW166086   2.080   6.679   9.375
88063SOL    HW266087   2.055   6.652   9.522
88064SOL     OW66088   2.103   4.917   3.659
88064SOL    HW166089   2.156   4.877   3.591
88064SOL    HW266090   2.102   4.853   3.730
88065SOL     OW66091   5.672   3.846  10.314
88065SOL    HW166092   5.753   3.886  10.283
88065SOL    HW266093   5.699   3.763  10.354
88066SOL     OW66094   3.854   8.138  14.630
88066SOL    HW166095   3.943   8.167  14.609
88066SOL    HW266096   3.865   8.080  14.705
88067SOL     OW66097  12.021   6.164   5.662
88067SOL    HW166098  12.101   6.112   5.674
88067SOL    HW266099  11.959   6.102   5.622
88068SOL     OW66100   9.369  10.019  13.130
88068SOL    HW166101   9.435  10.046  13.193
88068SOL    HW266102   9.364  10.092  13.067
88069SOL     OW66103  13.762  13.178   9.946
88069SOL    HW166104  13.851  13.178   9.981
88069SOL    HW266105  13.754  13.093   9.902
88070SOL     OW66106   3.839   7.210   7.535
88070SOL    HW166107   3.855   7.202   7.629
88070SOL    HW266108   3.847   7.304   7.518
88071SOL     OW66109  10.787   6.960   9.009
88071SOL    HW166110  10.716   6.963   9.074
88071SOL    HW266111  10.754   6.902   8.941
88072SOL     OW66112  11.652  13.137   5.066
88072SOL    HW166113  11.641  13.179   5.151
88072SOL    HW266114  11.574  13.161   5.016
88073SOL     OW66115   6.200   9.709  11.158
88073SOL    HW166116   6.155   9.632  11.193
88073SOL    HW266117   6.275   9.721  11.216
88074SOL     OW66118  10.706   0.780   4.337
88074SOL    HW166119  10.781   0.727   4.366
88074SOL    HW266120  10.639   0.716   4.312
88075SOL     OW66121  13.657   5.630   6.573
88075SOL    HW166122  13.594   5.566   6.607
88075SOL    HW266123  13.623   5.655   6.488
88076SOL     OW66124   3.229   9.493   3.120
88076SOL    HW166125   3.183   9.413   3.145
88076SOL    HW266126   3.319   9.465   3.102
88077SOL     OW66127   7.164  10.297  10.425
88077SOL    HW166128   7.107  10.240  10.374
88077SOL    HW266129   7.125  10.384  10.417
88078SOL     OW66130   6.931   5.057   2.454
88078SOL    HW166131   6.940   5.099   2.368
88078SOL    HW266132   7.020   5.031   2.477
88079SOL     OW66133   3.614   1.338  12.302
88079SOL    HW166134   3.649   1.250  12.296
88079SOL    HW266135   3.550   1.334  12.373
88080SOL     OW66136   8.046   0.419   8.156
88080SOL    HW166137   7.966   0.471   8.155
88080SOL    HW266138   8.032   0.356   8.227
88081SOL     OW66139   5.985   4.186   8.906
88081SOL    HW166140   5.941   4.231   8.979
88081SOL    HW266141   5.971   4.244   8.831
88082SOL     OW66142   2.686   8.493   6.950
88082SOL    HW166143   2.665   8.501   6.856
88082SOL    HW266144   2.772   8.534   6.959
88083SOL     OW66145   9.250   7.207   9.026
88083SOL    HW166146   9.317   7.221   8.959
88083SOL    HW266147   9.183   7.156   8.981
88084SOL     OW66148   8.458  12.742  11.523
88084SOL    HW166149   8.400  12.788  11.584
88084SOL    HW266150   8.407  12.734  11.442
88085SOL     OW66151  14.614   9.924   3.072
88085SOL    HW166152  14.628   9.885   3.158
88085SOL    HW266153  14.543   9.872   3.033
88086SOL     OW66154   4.825   1.003   1.424
88086SOL    HW166155   4.746   0.948   1.424
88086SOL    HW266156   4.897   0.941   1.415
88087SOL     OW66157   0.173  10.718  13.286
88087SOL    HW166158   0.216  10.802  13.275
88087SOL    HW266159   0.127  10.725  13.369
88088SOL     OW66160   0.827   0.784  13.020
88088SOL    HW166161   0.787   0.740  12.945
88088SOL    HW266162   0.845   0.872  12.989
88089SOL     OW66163   7.617  12.146   2.721
88089SOL    HW166164   7.532  12.190   2.721
88089SOL    HW266165   7.672  12.199   2.778
88090SOL     OW66166   4.227  14.138   0.319
88090SOL    HW166167   4.210  14.170   0.408
88090SOL    HW266168   4.238  14.217   0.267
88091SOL     OW66169   5.652  10.822   9.738
88091SOL    HW166170   5.702  10.899   9.711
88091SOL    HW266171   5.618  10.786   9.656
88092SOL     OW66172   6.458  12.463   5.981
88092SOL    HW166173   6.525  12.451   6.048
88092SOL    HW266174   6.413  12.543   6.006
88093SOL     OW66175   6.011   1.465   1.924
88093SOL    HW166176   5.968   1.438   2.005
88093SOL    HW266177   5.989   1.558   1.916
88094SOL     OW66178   6.164   4.361   4.237
88094SOL    HW166179   6.218   4.384   4.312
88094SOL    HW266180   6.203   4.280   4.204
88095SOL     OW66181   4.440  10.160   3.796
88095SOL    HW166182   4.454  10.105   3.719
88095SOL    HW266183   4.520  10.210   3.806
88096SOL     OW66184   6.215  10.407   5.328
88096SOL    HW166185   6.136  10.459   5.341
88096SOL    HW266186   6.285  10.471   5.316
88097SOL     OW66187   4.583   0.695  10.379
88097SOL    HW166188   4.535   0.772  10.410
88097SOL    HW266189   4.632   0.665  10.456
88098SOL     OW66190   0.553   1.183   7.811
88098SOL    HW166191   0.588   1.122   7.875
88098SOL    HW266192   0.556   1.269   7.854
88099SOL     OW66193   7.964  12.286   9.485
88099SOL    HW166194   7.981  12.197   9.516
88099SOL    HW266195   7.886  12.314   9.533
88100SOL     OW66196   4.189   3.095   5.704
88100SOL    HW166197   4.215   3.012   5.746
88100SOL    HW266198   4.265   3.118   5.649
88101SOL     OW66199   3.819   3.225   1.925
88101SOL    HW166200   3.755   3.198   1.859
88101SOL    HW266201   3.771   3.219   2.008
88102SOL     OW66202   9.853   3.131   5.883
88102SOL    HW166203   9.798   3.198   5.924
88102SOL    HW266204   9.931   3.179   5.855
88103SOL     OW66205   8.235  10.224  13.260
88103SOL    HW166206   8.205  10.170  13.333
88103SOL    HW266207   8.226  10.314  13.292
88104SOL     OW66208   1.535  14.200   0.259
88104SOL    HW166209   1.456  14.248   0.284
88104SOL    HW266210   1.542  14.129   0.323
88105SOL     OW66211  10.372  10.063   5.419
88105SOL    HW166212  10.295  10.044   5.472
88105SOL    HW266213  10.350  10.032   5.332
88106SOL     OW66214   7.820  12.968  13.480
88106SOL    HW166215   7.886  13.034  13.500
88106SOL    HW266216   7.810  12.972  13.385
88107SOL     OW66217  14.028  13.915  12.607
88107SOL    HW166218  14.045  13.828  12.644
88107SOL    HW266219  13.984  13.898  12.524
88108SOL     OW66220   1.582  10.652  12.159
88108SOL    HW166221   1.669  10.679  12.128
88108SOL    HW266222   1.590  10.558  12.174
88109SOL     OW66223  14.703   6.513   7.200
88109SOL    HW166224  14.778   6.471   7.157
88109SOL    HW266225  14.652   6.439   7.234
88110SOL     OW66226  13.255   0.897  14.536
88110SOL    HW166227  13.197   0.938  14.600
88110SOL    HW266228  13.333   0.872  14.585
88111SOL     OW66229  10.406  11.152  10.803
88111SOL    HW166230  10.487  11.104  10.818
88111SOL    HW266231  10.337  11.087  10.817
88112SOL     OW66232   4.008   0.222   8.259
88112SOL    HW166233   4.077   0.156   8.251
88112SOL    HW266234   3.988   0.246   8.169
88113SOL     OW66235   2.297   7.256   5.184
88113SOL    HW166236   2.255   7.301   5.258
88113SOL    HW266237   2.226   7.204   5.145
88114SOL     OW66238   9.705   8.213   1.290
88114SOL    HW166239   9.763   8.241   1.362
88114SOL    HW266240   9.624   8.187   1.334
88115SOL     OW66241  12.653   0.104  13.477
88115SOL    HW166242  12.684   0.182  13.431
88115SOL    HW266243  12.691   0.111  13.565
88116SOL     OW66244   3.900  13.814  13.923
88116SOL    HW166245   3.947  13.796  14.004
88116SOL    HW266246   3.969  13.823  13.857
88117SOL     OW66247  14.227  12.260   8.682
88117SOL    HW166248  14.182  12.194   8.734
88117SOL    HW266249  14.191  12.250   8.594
88118SOL     OW66250   1.906   8.118   1.161
88118SOL    HW166251   1.816   8.147   1.175
88118SOL    HW266252   1.898   8.026   1.135
88119SOL     OW66253   6.314   2.544  11.340
88119SOL    HW166254   6.358   2.556  11.256
88119SOL    HW266255   6.385   2.543  11.404
88120SOL     OW66256   1.769  13.379   6.297
88120SOL    HW166257   1.846  13.378   6.354
88120SOL    HW266258   1.734  13.290   6.303
88121SOL     OW66259   9.363   9.568  11.001
88121SOL    HW166260   9.366   9.477  11.028
88121SOL    HW266261   9.445   9.582  10.954
88122SOL     OW66262   5.978   6.041   6.611
88122SOL    HW166263   6.071   6.034   6.634
88122SOL    HW266264   5.963   6.135   6.600
88123SOL     OW66265   8.319   3.562   2.745
88123SOL    HW166266   8.403   3.528   2.777
88123SOL    HW266267   8.258   3.490   2.759
88124SOL     OW66268  12.827  13.932  14.567
88124SOL    HW166269  12.794  13.907  14.653
88124SOL    HW266270  12.881  13.857  14.540
88125SOL     OW66271   6.040   0.838   1.028
88125SOL    HW166272   6.085   0.893   0.965
88125SOL    HW266273   5.947   0.849   1.007
88126SOL     OW66274   1.877   4.938   7.105
88126SOL    HW166275   1.894   4.914   7.196
88126SOL    HW266276   1.873   4.855   7.058
88127SOL     OW66277   5.475   9.886   2.249
88127SOL    HW166278   5.399   9.844   2.210
88127SOL    HW266279   5.465   9.872   2.343
88128SOL     OW66280  13.675  11.468   1.184
88128SOL    HW166281  13.686  11.562   1.170
88128SOL    HW266282  13.764  11.436   1.200
88129SOL     OW66283   6.843   4.456   0.001
88129SOL    HW166284   6.792   4.480   0.078
88129SOL    HW266285   6.891   4.377   0.027
88130SOL     OW66286   0.906  10.521  12.525
88130SOL    HW166287   0.876  10.612  12.515
88130SOL    HW266288   1.000  10.529  12.536
88131SOL     OW66289   9.374   9.368   2.862
88131SOL    HW166290   9.423   9.345   2.783
88131SOL    HW266291   9.432   9.346   2.934
88132SOL     OW66292   1.520   5.174   8.334
88132SOL    HW166293   1.607   5.152   8.367
88132SOL    HW266294   1.510   5.268   8.354
88133SOL     OW66295   8.915  11.806   5.389
88133SOL    HW166296   8.848  11.750   5.428
88133SOL    HW266297   8.977  11.746   5.349
88134SOL     OW66298   3.228   7.661   5.532
88134SOL    HW166299   3.261   7.742   5.571
88134SOL    HW266300   3.166   7.627   5.596
88135SOL     OW66301   1.069   0.365   8.748
88135SOL    HW166302   1.002   0.433   8.745
88135SOL    HW266303   1.069   0.335   8.839
88136SOL     OW66304   2.917   0.402  10.688
88136SOL    HW166305   2.923   0.461  10.763
88136SOL    HW266306   2.991   0.426  10.633
88137SOL     OW66307  12.220   8.649  10.560
88137SOL    HW166308  12.208   8.733  10.605
88137SOL    HW266309  12.139   8.637  10.510
88138SOL     OW66310  11.746   9.377   1.215
88138SOL    HW166311  11.696   9.301   1.245
88138SOL    HW266312  11.837   9.348   1.215
88139SOL     OW66313  10.051  14.125   9.236
88139SOL    HW166314  10.027  14.184   9.164
88139SOL    HW266315   9.968  14.104   9.279
88140SOL     OW66316  13.969   8.718  10.074
88140SOL    HW166317  14.060   8.743  10.091
88140SOL    HW266318  13.962   8.719   9.978
88141SOL     OW66319   7.215   4.432  12.327
88141SOL    HW166320   7.301   4.389  12.327
88141SOL    HW266321   7.153   4.362  12.343
88142SOL     OW66322   0.346  12.972   2.035
88142SOL    HW166323   0.402  12.914   2.089
88142SOL    HW266324   0.323  13.044   2.094
88143SOL     OW66325  12.555   2.501   0.664
88143SOL    HW166326  12.551   2.501   0.569
88143SOL    HW266327  12.632   2.449   0.686
88144SOL     OW66328  11.858   7.775   3.058
88144SOL    HW166329  11.943   7.759   3.100
88144SOL    HW266330  11.827   7.856   3.098
88145SOL     OW66331  12.093   9.604   6.018
88145SOL    HW166332  12.042   9.655   5.955
88145SOL    HW266333  12.041   9.526   6.033
88146SOL     OW66334   2.744   1.326   9.660
88146SOL    HW166335   2.680   1.369   9.603
88146SOL    HW266336   2.808   1.288   9.599
88147SOL     OW66337   1.369  12.410   7.638
88147SOL    HW166338   1.390  12.319   7.659
88147SOL    HW266339   1.286  12.405   7.590
88148SOL     OW66340   6.300  14.570   4.404
88148SOL    HW166341   6.244  14.598   4.332
88148SOL    HW266342   6.386  14.558   4.364
88149SOL     OW66343   9.666   0.828  11.782
88149SOL    HW166344   9.604   0.754  11.779
88149SOL    HW266345   9.729   0.804  11.849
88150SOL     OW66346   7.549   6.555   3.797
88150SOL    HW166347   7.478   6.618   3.785
88150SOL    HW266348   7.629   6.607   3.797
88151SOL     OW66349   6.863   2.946   0.575
88151SOL    HW166350   6.808   2.923   0.500
88151SOL    HW266351   6.821   3.023   0.612
88152SOL     OW66352   6.318   1.451  10.854
88152SOL    HW166353   6.326   1.546  10.843
88152SOL    HW266354   6.401   1.425  10.894
88153SOL     OW66355   4.014   1.673   2.632
88153SOL    HW166356   3.989   1.582   2.640
88153SOL    HW266357   4.090   1.672   2.573
88154SOL     OW66358   4.693   3.581   7.009
88154SOL    HW166359   4.654   3.523   6.945
88154SOL    HW266360   4.630   3.585   7.081
88155SOL     OW66361   3.364  10.369   2.356
88155SOL    HW166362   3.450  10.411   2.356
88155SOL    HW266363   3.302  10.442   2.360
88156SOL     OW66364  13.541   6.718   9.343
88156SOL    HW166365  13.605   6.670   9.395
88156SOL    HW266366  13.467   6.731   9.402
88157SOL     OW66367   3.282   8.553   9.182
88157SOL    HW166368   3.220   8.607   9.133
88157SOL    HW266369   3.237   8.533   9.264
88158SOL     OW66370   7.328   2.998  12.026
88158SOL    HW166371   7.274   2.926  12.060
88158SOL    HW266372   7.265   3.061  11.991
88159SOL     OW66373  14.308   8.831   2.450
88159SOL    HW166374  14.220   8.867   2.444
88159SOL    HW266375  14.309   8.761   2.384
88160SOL     OW66376   9.740   6.031   3.625
88160SOL    HW166377   9.780   6.097   3.682
88160SOL    HW266378   9.756   5.948   3.668
88161SOL     OW66379   0.624   5.711   9.357
88161SOL    HW166380   0.553   5.769   9.384
88161SOL    HW266381   0.635   5.651   9.431
88162SOL     OW66382  10.075  12.045  11.230
88162SOL    HW166383  10.070  11.991  11.152
88162SOL    HW266384  10.127  12.121  11.203
88163SOL     OW66385   7.294   4.844   4.728
88163SOL    HW166386   7.377   4.846   4.679
88163SOL    HW266387   7.226   4.852   4.661
88164SOL     OW66388   8.758   4.792  14.370
88164SOL    HW166389   8.685   4.773  14.429
88164SOL    HW266390   8.766   4.888  14.374
88165SOL     OW66391   5.202  10.314   5.109
88165SOL    HW166392   5.110  10.339   5.109
88165SOL    HW266393   5.222  10.295   5.018
88166SOL     OW66394   8.335   3.468   6.993
88166SOL    HW166395   8.302   3.553   7.022
88166SOL    HW266396   8.430   3.476   7.002
88167SOL     OW66397  10.711   9.421   7.016
88167SOL    HW166398  10.669   9.348   7.061
88167SOL    HW266399  10.642   9.488   7.008
88168SOL     OW66400  12.219   1.132   4.934
88168SOL    HW166401  12.203   1.226   4.941
88168SOL    HW266402  12.208   1.112   4.841
88169SOL     OW66403   6.742   0.534  14.145
88169SOL    HW166404   6.738   0.626  14.170
88169SOL    HW266405   6.828   0.504  14.175
88170SOL     OW66406  13.035   0.127   0.330
88170SOL    HW166407  12.999   0.052   0.283
88170SOL    HW266408  12.981   0.136   0.408
88171SOL     OW66409   1.801  14.734  11.308
88171SOL    HW166410   1.753  14.714  11.227
88171SOL    HW266411   1.893  14.737  11.281
88172SOL     OW66412   5.810  10.621   9.803
88172SOL    HW166413   5.750  10.695   9.795
88172SOL    HW266414   5.816  10.605   9.897
88173SOL     OW66415   9.050   4.007   4.961
88173SOL    HW166416   8.973   4.059   4.984
88173SOL    HW266417   9.094   3.991   5.045
88174SOL     OW66418   3.176   7.563  12.686
88174SOL    HW166419   3.099   7.620  12.691
88174SOL    HW266420   3.142   7.475  12.705
88175SOL     OW66421   9.411  14.495  12.233
88175SOL    HW166422   9.477  14.455  12.289
88175SOL    HW266423   9.446  14.487  12.145
88176SOL     OW66424  12.068   4.429  12.332
88176SOL    HW166425  12.073   4.524  12.328
88176SOL    HW266426  12.104   4.407  12.418
88177SOL     OW66427   3.273   3.168  13.691
88177SOL    HW166428   3.250   3.079  13.718
88177SOL    HW266429   3.200   3.196  13.636
88178SOL     OW66430   0.099   7.078   0.581
88178SOL    HW166431   0.005   7.069   0.601
88178SOL    HW266432   0.113   7.019   0.507
88179SOL     OW66433  10.087  11.942   0.143
88179SOL    HW166434  10.144  11.892   0.085
88179SOL    HW266435  10.000  11.935   0.104
88180SOL     OW66436   1.609  10.431   2.619
88180SOL    HW166437   1.676  10.378   2.663
88180SOL    HW266438   1.535  10.432   2.681
88181SOL     OW66439  12.563  13.063   8.335
88181SOL    HW166440  12.614  13.033   8.260
88181SOL    HW266441  12.563  13.159   8.328
88182SOL     OW66442   3.395   1.513   0.155
88182SOL    HW166443   3.318   1.560   0.188
88182SOL    HW266444   3.376   1.499   0.062
88183SOL     OW66445  13.917   4.623  13.692
88183SOL    HW166446  13.929   4.566  13.616
88183SOL    HW266447  13.908   4.563  13.766
88184SOL     OW66448  14.232  10.121   7.919
88184SOL    HW166449  14.139  10.123   7.943
88184SOL    HW266450  14.238  10.053   7.852
88185SOL     OW66451   5.330   2.405   9.227
88185SOL    HW166452   5.335   2.316   9.263
88185SOL    HW266453   5.400   2.408   9.162
88186SOL     OW66454   2.545   2.136   6.866
88186SOL    HW166455   2.591   2.220   6.871
88186SOL    HW266456   2.562   2.094   6.951
88187SOL     OW66457   9.092   4.210  13.574
88187SOL    HW166458   9.018   4.179  13.628
88187SOL    HW266459   9.128   4.283  13.624
88188SOL     OW66460  11.622  11.215  10.765
88188SOL    HW166461  11.668  11.208  10.848
88188SOL    HW266462  11.689  11.244  10.703
88189SOL     OW66463  12.839  11.152   2.132
88189SOL    HW166464  12.837  11.065   2.093
88189SOL    HW266465  12.887  11.206   2.069
88190SOL     OW66466  13.040  14.032   6.297
88190SOL    HW166467  13.034  14.110   6.242
88190SOL    HW266468  12.948  14.009   6.315
88191SOL     OW66469  11.931  10.485   7.206
88191SOL    HW166470  11.869  10.417   7.233
88191SOL    HW266471  12.000  10.482   7.272
88192SOL     OW66472   6.470  11.684   5.976
88192SOL    HW166473   6.383  11.668   5.939
88192SOL    HW266474   6.524  11.709   5.900
88193SOL     OW66475   6.187   0.403  12.006
88193SOL    HW166476   6.214   0.322  12.050
88193SOL    HW266477   6.241   0.407  11.928
88194SOL     OW66478   1.804  10.175   3.138
88194SOL    HW166479   1.833  10.088   3.165
88194SOL    HW266480   1.878  10.232   3.157
88195SOL     OW66481   3.836   5.597  12.247
88195SOL    HW166482   3.902   5.571  12.182
88195SOL    HW266483   3.835   5.693  12.242
88196SOL     OW66484   6.696   8.333   6.848
88196SOL    HW166485   6.616   8.376   6.877
88196SOL    HW266486   6.713   8.265   6.913
88197SOL     OW66487   1.574   1.233   8.564
88197SOL    HW166488   1.649   1.177   8.544
88197SOL    HW266489   1.546   1.269   8.480
88198SOL     OW66490   7.151   7.649   8.175
88198SOL    HW166491   7.163   7.561   8.211
88198SOL    HW266492   7.192   7.644   8.088
88199SOL     OW66493  14.228   0.862  11.287
88199SOL    HW166494  14.267   0.774  11.292
88199SOL    HW266495  14.163   0.864  11.357
88200SOL     OW66496  10.015   5.478   5.236
88200SOL    HW166497   9.998   5.388   5.265
88200SOL    HW266498  10.074   5.468   5.161
88201SOL     OW66499  10.156  13.635  13.625
88201SOL    HW166500  10.175  13.616  13.717
88201SOL    HW266501  10.118  13.723  13.626
88202SOL     OW66502  10.813   5.856   4.744
88202SOL    HW166503  10.797   5.946   4.715
88202SOL    HW266504  10.811   5.861   4.840
88203SOL     OW66505   1.542  12.530  11.907
88203SOL    HW166506   1.618  12.473  11.899
88203SOL    HW266507   1.536  12.574  11.822
88204SOL     OW66508   9.655   7.970  12.371
88204SOL    HW166509   9.648   7.906  12.301
88204SOL    HW266510   9.566   8.005  12.380
88205SOL     OW66511   9.383   3.364  11.891
88205SOL    HW166512   9.394   3.301  11.820
88205SOL    HW266513   9.360   3.310  11.967
88206SOL     OW66514  11.187   1.496   3.841
88206SOL    HW166515  11.145   1.412   3.824
88206SOL    HW266516  11.120   1.561   3.821
88207SOL     OW66517   2.509   4.040   4.501
88207SOL    HW166518   2.500   4.123   4.549
88207SOL    HW266519   2.602   4.035   4.479
88208SOL     OW66520   3.160   5.267   7.829
88208SOL    HW166521   3.191   5.343   7.878
88208SOL    HW266522   3.185   5.191   7.882
88209SOL     OW66523  14.664   8.823   2.205
88209SOL    HW166524  14.729   8.798   2.141
88209SOL    HW266525  14.651   8.917   2.191
88210SOL     OW66526   9.046   7.337  13.751
88210SOL    HW166527   8.959   7.301  13.764
88210SOL    HW266528   9.045   7.373  13.662
88211SOL     OW66529   2.874   3.716  14.818
88211SOL    HW166530   2.870   3.770   0.022
88211SOL    HW266531   2.826   3.767  14.752
88212SOL     OW66532   5.745  14.477  14.668
88212SOL    HW166533   5.721  14.551  14.724
88212SOL    HW266534   5.838  14.491  14.649
88213SOL     OW66535  11.424   8.387   9.399
88213SOL    HW166536  11.372   8.393   9.479
88213SOL    HW266537  11.409   8.469   9.353
88214SOL     OW66538   4.499  12.008   8.881
88214SOL    HW166539   4.472  12.080   8.938
88214SOL    HW266540   4.424  11.948   8.881
88215SOL     OW66541   2.688   0.428   9.141
88215SOL    HW166542   2.666   0.403   9.051
88215SOL    HW266543   2.610   0.406   9.191
88216SOL     OW66544   5.365   6.001   6.243
88216SOL    HW166545   5.279   6.010   6.200
88216SOL    HW266546   5.361   5.916   6.286
88217SOL     OW66547   3.400  12.991   5.182
88217SOL    HW166548   3.382  13.028   5.269
88217SOL    HW266549   3.467  12.924   5.199
88218SOL     OW66550  13.975  14.524   4.768
88218SOL    HW166551  13.976  14.618   4.789
88218SOL    HW266552  13.956  14.481   4.851
88219SOL     OW66553  10.041   3.589   3.407
88219SOL    HW166554  10.039   3.511   3.463
88219SOL    HW266555   9.949   3.612   3.396
88220SOL     OW66556   2.589  12.671  11.259
88220SOL    HW166557   2.560  12.582  11.277
88220SOL    HW266558   2.635  12.697  11.339
88221SOL     OW66559   1.185   3.510   6.664
88221SOL    HW166560   1.166   3.515   6.757
88221SOL    HW266561   1.256   3.572   6.650
88222SOL     OW66562   5.832  12.280  14.384
88222SOL    HW166563   5.924  12.276  14.413
88222SOL    HW266564   5.782  12.258  14.462
88223SOL     OW66565  11.940   1.912   2.380
88223SOL    HW166566  11.889   1.841   2.418
88223SOL    HW266567  11.877   1.984   2.369
88224SOL     OW66568  13.618  13.327   4.173
88224SOL    HW166569  13.554  13.370   4.230
88224SOL    HW266570  13.703  13.356   4.206
88225SOL     OW66571   0.834   6.022   6.382
88225SOL    HW166572   0.850   5.934   6.417
88225SOL    HW266573   0.800   6.007   6.294
88226SOL     OW66574  11.655  14.067   7.727
88226SOL    HW166575  11.607  14.129   7.782
88226SOL    HW266576  11.745  14.102   7.725
88227SOL     OW66577   4.518   8.918   0.063
88227SOL    HW166578   4.473   8.930   0.147
88227SOL    HW266579   4.489   8.832   0.033
88228SOL     OW66580   6.700  11.692   6.857
88228SOL    HW166581   6.613  11.652   6.852
88228SOL    HW266582   6.722  11.689   6.950
88229SOL     OW66583  14.303   1.384  12.487
88229SOL    HW166584  14.292   1.305  12.540
88229SOL    HW266585  14.224   1.435  12.505
88230SOL     OW66586  10.320   2.948  11.972
88230SOL    HW166587  10.248   3.009  11.988
88230SOL    HW266588  10.294   2.902  11.892
88231SOL     OW66589   7.585   4.950   0.198
88231SOL    HW166590   7.533   4.952   0.118
88231SOL    HW266591   7.522   4.940   0.268
88232SOL     OW66592  13.692  13.248   5.547
88232SOL    HW166593  13.759  13.211   5.605
88232SOL    HW266594  13.697  13.342   5.561
88233SOL     OW66595   4.756  12.821   4.722
88233SOL    HW166596   4.694  12.865   4.664
88233SOL    HW266597   4.765  12.733   4.686
88234SOL     OW66598   5.380   8.215   1.434
88234SOL    HW166599   5.437   8.282   1.396
88234SOL    HW266600   5.432   8.178   1.506
88235SOL     OW66601   8.392   7.812   4.488
88235SOL    HW166602   8.442   7.731   4.494
88235SOL    HW266603   8.457   7.881   4.496
88236SOL     OW66604   9.835  10.033   5.335
88236SOL    HW166605   9.906  10.062   5.277
88236SOL    HW266606   9.780  10.110   5.346
88237SOL     OW66607  13.779  13.771  14.725
88237SOL    HW166608  13.806  13.679  14.735
88237SOL    HW266609  13.740  13.793  14.810
88238SOL     OW66610   1.483   8.058  11.375
88238SOL    HW166611   1.420   8.071  11.304
88238SOL    HW266612   1.559   8.018  11.333
88239SOL     OW66613  12.753   0.751  12.281
88239SOL    HW166614  12.660   0.736  12.263
88239SOL    HW266615  12.771   0.698  12.359
88240SOL     OW66616   8.874   2.020   0.058
88240SOL    HW166617   8.958   1.997   0.020
88240SOL    HW266618   8.810   2.000  14.864
88241SOL     OW66619   6.194  12.202  12.984
88241SOL    HW166620   6.220  12.263  12.915
88241SOL    HW266621   6.113  12.162  12.952
88242SOL     OW66622   4.454   4.213   4.320
88242SOL    HW166623   4.504   4.132   4.331
88242SOL    HW266624   4.510   4.269   4.265
88243SOL     OW66625   1.685  11.975  11.764
88243SOL    HW166626   1.618  12.044  11.769
88243SOL    HW266627   1.637  11.897  11.737
88244SOL     OW66628  14.251  12.662   0.894
88244SOL    HW166629  14.284  12.577   0.922
88244SOL    HW266630  14.216  12.646   0.806
88245SOL     OW66631   0.859  10.833   9.770
88245SOL    HW166632   0.772  10.799   9.751
88245SOL    HW266633   0.919  10.765   9.739
88246SOL     OW66634  14.440  10.449   0.759
88246SOL    HW166635  14.401  10.364   0.782
88246SOL    HW266636  14.475  10.482   0.842
88247SOL     OW66637  12.516   2.635  10.018
88247SOL    HW166638  12.485   2.664  10.103
88247SOL    HW266639  12.491   2.705   9.958
88248SOL     OW66640  11.437   2.271   6.973
88248SOL    HW166641  11.412   2.224   6.893
88248SOL    HW266642  11.429   2.363   6.951
88249SOL     OW66643   5.060   4.725   7.392
88249SOL    HW166644   5.096   4.778   7.320
88249SOL    HW266645   4.997   4.667   7.350
88250SOL     OW66646  14.461   0.965   8.045
88250SOL    HW166647  14.410   1.015   7.982
88250SOL    HW266648  14.516   0.907   7.991
88251SOL     OW66649   3.425  10.347   0.965
88251SOL    HW166650   3.472  10.427   0.991
88251SOL    HW266651   3.423  10.351   0.869
88252SOL     OW66652  14.252  11.973  11.342
88252SOL    HW166653  14.248  12.008  11.432
88252SOL    HW266654  14.283  11.884  11.353
88253SOL     OW66655   6.057   1.110   2.705
88253SOL    HW166656   6.069   1.098   2.610
88253SOL    HW266657   6.055   1.205   2.717
88254SOL     OW66658   7.496   7.939   7.368
88254SOL    HW166659   7.451   7.905   7.290
88254SOL    HW266660   7.580   7.971   7.334
88255SOL     OW66661   6.897   7.530   9.475
88255SOL    HW166662   6.892   7.449   9.424
88255SOL    HW266663   6.833   7.588   9.435
88256SOL     OW66664   5.477  12.635  13.680
88256SOL    HW166665   5.404  12.681  13.639
88256SOL    HW266666   5.452  12.627  13.772
88257SOL     OW66667   5.854  12.050  11.037
88257SOL    HW166668   5.797  12.111  11.085
88257SOL    HW266669   5.940  12.061  11.076
88258SOL     OW66670  14.447  12.110   1.215
88258SOL    HW166671  14.522  12.073   1.260
88258SOL    HW266672  14.455  12.205   1.229
88259SOL     OW66673  12.961   7.721   5.318
88259SOL    HW166674  12.945   7.629   5.340
88259SOL    HW266675  12.987   7.761   5.401
88260SOL     OW66676   2.185   1.029   1.328
88260SOL    HW166677   2.128   1.095   1.289
88260SOL    HW266678   2.258   1.021   1.266
88261SOL     OW66679  10.307  12.863  13.773
88261SOL    HW166680  10.368  12.795  13.744
88261SOL    HW266681  10.363  12.931  13.811
88262SOL     OW66682   4.045   4.214   0.636
88262SOL    HW166683   4.005   4.196   0.552
88262SOL    HW266684   4.051   4.128   0.679
88263SOL     OW66685   7.596   7.555   6.258
88263SOL    HW166686   7.545   7.634   6.277
88263SOL    HW266687   7.678   7.588   6.220
88264SOL     OW66688   9.350   5.087   6.758
88264SOL    HW166689   9.383   5.108   6.845
88264SOL    HW266690   9.280   5.151   6.743
88265SOL     OW66691  11.275  10.822  12.250
88265SOL    HW166692  11.244  10.890  12.309
88265SOL    HW266693  11.363  10.801  12.281
88266SOL     OW66694   5.448  11.831   3.356
88266SOL    HW166695   5.410  11.881   3.284
88266SOL    HW266696   5.460  11.743   3.321
88267SOL     OW66697   7.052   1.193   9.756
88267SOL    HW166698   7.056   1.104   9.792
88267SOL    HW266699   7.123   1.195   9.691
88268SOL     OW66700  11.924   7.438  14.525
88268SOL    HW166701  11.946   7.530  14.510
88268SOL    HW266702  11.832   7.440  14.553
88269SOL     OW66703  13.227  13.387  12.298
88269SOL    HW166704  13.285  13.442  12.350
88269SOL    HW266705  13.275  13.372  12.216
88270SOL     OW66706  12.924   2.570  12.729
88270SOL    HW166707  12.905   2.533  12.643
88270SOL    HW266708  12.907   2.499  12.791
88271SOL     OW66709   8.241  11.696  10.189
88271SOL    HW166710   8.265  11.765  10.251
88271SOL    HW266711   8.153  11.670  10.215
88272SOL     OW66712   1.074   0.490  12.015
88272SOL    HW166713   1.137   0.507  11.945
88272SOL    HW266714   1.046   0.577  12.044
88273SOL     OW66715   1.845   4.495   6.730
88273SOL    HW166716   1.930   4.457   6.750
88273SOL    HW266717   1.841   4.496   6.634
88274SOL     OW66718   9.111   2.219  12.772
88274SOL    HW166719   9.117   2.174  12.688
88274SOL    HW266720   9.198   2.209  12.811
88275SOL     OW66721   5.860  12.072   8.341
88275SOL    HW166722   5.839  12.089   8.249
88275SOL    HW266723   5.781  12.031   8.376
88276SOL     OW66724   7.418   3.750   5.707
88276SOL    HW166725   7.489   3.687   5.701
88276SOL    HW266726   7.338   3.698   5.707
88277SOL     OW66727   0.878  11.624   1.319
88277SOL    HW166728   0.956  11.579   1.286
88277SOL    HW266729   0.833  11.558   1.372
88278SOL     OW66730   1.472   2.487   9.334
88278SOL    HW166731   1.381   2.467   9.355
88278SOL    HW266732   1.522   2.449   9.406
88279SOL     OW66733  13.980   1.057  13.451
88279SOL    HW166734  14.024   1.090  13.530
88279SOL    HW266735  13.903   1.011  13.485
88280SOL     OW66736   3.105   3.863   4.108
88280SOL    HW166737   3.096   3.941   4.163
88280SOL    HW266738   3.112   3.791   4.171
88281SOL     OW66739  14.514  14.598   4.617
88281SOL    HW166740  14.422  14.578   4.599
88281SOL    HW266741  14.562  14.558   4.544
88282SOL     OW66742  10.375  12.422   0.048
88282SOL    HW166743  10.289  12.432   0.090
88282SOL    HW266744  10.357  12.428  14.829
88283SOL     OW66745  14.347  14.449   4.226
88283SOL    HW166746  14.396  14.530   4.213
88283SOL    HW266747  14.340  14.441   4.321
88284SOL     OW66748   8.701  10.276   7.179
88284SOL    HW166749   8.669  10.216   7.246
88284SOL    HW266750   8.778  10.317   7.219
88285SOL     OW66751  13.149  12.198   2.428
88285SOL    HW166752  13.058  12.167   2.421
88285SOL    HW266753  13.187  12.179   2.343
88286SOL     OW66754   2.083  11.644   2.260
88286SOL    HW166755   2.054  11.731   2.235
88286SOL    HW266756   2.043  11.628   2.345
88287SOL     OW66757  12.949  14.207   9.408
88287SOL    HW166758  13.004  14.235   9.335
88287SOL    HW266759  12.998  14.137   9.450
88288SOL     OW66760  14.564   7.018  14.555
88288SOL    HW166761  14.495   7.064  14.602
88288SOL    HW266762  14.539   7.023  14.463
88289SOL     OW66763  13.326  14.131   1.959
88289SOL    HW166764  13.316  14.097   1.870
88289SOL    HW266765  13.298  14.222   1.953
88290SOL     OW66766  14.725   8.981   7.544
88290SOL    HW166767  14.691   8.951   7.460
88290SOL    HW266768  14.656   9.036   7.580
88291SOL     OW66769   5.821   1.017  13.409
88291SOL    HW166770   5.765   0.939  13.411
88291SOL    HW266771   5.802   1.058  13.324
88292SOL     OW66772  10.571  12.674   3.774
88292SOL    HW166773  10.638  12.740   3.758
88292SOL    HW266774  10.618  12.603   3.818
88293SOL     OW66775   6.310   2.068   5.140
88293SOL    HW166776   6.357   1.990   5.170
88293SOL    HW266777   6.368   2.141   5.162
88294SOL     OW66778  11.686  10.495   5.636
88294SOL    HW166779  11.635  10.528   5.562
88294SOL    HW266780  11.635  10.519   5.713
88295SOL     OW66781  11.719   1.499   0.505
88295SOL    HW166782  11.810   1.531   0.504
88295SOL    HW266783  11.667   1.575   0.478
88296SOL     OW66784   0.678   6.690   5.243
88296SOL    HW166785   0.716   6.731   5.320
88296SOL    HW266786   0.747   6.692   5.177
88297SOL     OW66787  13.004  14.598  13.311
88297SOL    HW166788  12.955  14.554  13.380
88297SOL    HW266789  13.036  14.679  13.352
88298SOL     OW66790   9.076   2.595   7.393
88298SOL    HW166791   8.990   2.612   7.432
88298SOL    HW266792   9.068   2.508   7.355
88299SOL     OW66793  12.092   5.673   3.641
88299SOL    HW166794  12.017   5.724   3.609
88299SOL    HW266795  12.139   5.648   3.562
88300SOL     OW66796   8.132   0.355   6.628
88300SOL    HW166797   8.196   0.424   6.645
88300SOL    HW266798   8.123   0.353   6.532
88301SOL     OW66799  13.971  12.664  11.808
88301SOL    HW166800  14.014  12.719  11.873
88301SOL    HW266801  13.987  12.708  11.724
88302SOL     OW66802   5.046  12.735   6.104
88302SOL    HW166803   5.103  12.680   6.050
88302SOL    HW266804   4.966  12.683   6.114
88303SOL     OW66805   2.279  14.008   0.571
88303SOL    HW166806   2.254  13.915   0.566
88303SOL    HW266807   2.220  14.051   0.509
88304SOL     OW66808   9.276   6.685   7.610
88304SOL    HW166809   9.253   6.759   7.666
88304SOL    HW266810   9.200   6.673   7.553
88305SOL     OW66811   0.005   5.313   0.376
88305SOL    HW166812   0.029   5.375   0.307
88305SOL    HW266813   0.087   5.296   0.422
88306SOL     OW66814   1.865   6.538   6.687
88306SOL    HW166815   1.882   6.516   6.596
88306SOL    HW266816   1.850   6.453   6.729
88307SOL     OW66817   7.685   9.805   5.252
88307SOL    HW166818   7.594   9.834   5.250
88307SOL    HW266819   7.682   9.718   5.292
88308SOL     OW66820  11.146   9.600   8.177
88308SOL    HW166821  11.141   9.668   8.245
88308SOL    HW266822  11.212   9.632   8.116
88309SOL     OW66823  10.856   0.983  13.433
88309SOL    HW166824  10.795   0.952  13.367
88309SOL    HW266825  10.915   0.909  13.448
88310SOL     OW66826   3.249  11.696   4.919
88310SOL    HW166827   3.299  11.772   4.889
88310SOL    HW266828   3.298  11.663   4.995
88311SOL     OW66829  11.588   7.519   8.017
88311SOL    HW166830  11.591   7.507   8.112
88311SOL    HW266831  11.658   7.462   7.983
88312SOL     OW66832   9.342   9.280  11.003
88312SOL    HW166833   9.248   9.263  11.013
88312SOL    HW266834   9.365   9.241  10.919
88313SOL     OW66835   8.588   6.646  10.053
88313SOL    HW166836   8.534   6.569  10.034
88313SOL    HW266837   8.678   6.613  10.048
88314SOL     OW66838   4.312   0.113  12.728
88314SOL    HW166839   4.328   0.188  12.670
88314SOL    HW266840   4.311   0.038  12.669
88315SOL     OW66841   8.469   3.817  13.343
88315SOL    HW166842   8.483   3.732  13.303
88315SOL    HW266843   8.557   3.856  13.347
88316SOL     OW66844   4.635   3.926   0.780
88316SOL    HW166845   4.672   3.951   0.695
88316SOL    HW266846   4.586   3.846   0.762
88317SOL     OW66847   3.915   4.040  10.179
88317SOL    HW166848   3.837   4.074  10.223
88317SOL    HW266849   3.987   4.061  10.237
88318SOL     OW66850   2.084  14.037   7.705
88318SOL    HW166851   2.030  13.973   7.752
88318SOL    HW266852   2.089  14.112   7.764
88319SOL     OW66853   9.063   5.696  11.181
88319SOL    HW166854   9.018   5.723  11.102
88319SOL    HW266855   9.000   5.642  11.228
88320SOL     OW66856  11.313   1.376   0.682
88320SOL    HW166857  11.345   1.296   0.642
88320SOL    HW266858  11.299   1.353   0.774
88321SOL     OW66859   2.801   6.672   9.242
88321SOL    HW166860   2.747   6.707   9.171
88321SOL    HW266861   2.871   6.624   9.199
88322SOL     OW66862  13.548   8.957   8.000
88322SOL    HW166863  13.560   9.015   7.925
88322SOL    HW266864  13.493   8.886   7.967
88323SOL     OW66865   2.431   8.670   1.592
88323SOL    HW166866   2.450   8.731   1.663
88323SOL    HW266867   2.427   8.725   1.514
88324SOL     OW66868  14.210  14.146   5.190
88324SOL    HW166869  14.292  14.188   5.215
88324SOL    HW266870  14.221  14.054   5.216
88325SOL     OW66871   3.657   0.393  12.948
88325SOL    HW166872   3.591   0.350  13.001
88325SOL    HW266873   3.655   0.347  12.864
88326SOL     OW66874   8.638   3.543  10.060
88326SOL    HW166875   8.617   3.450  10.067
88326SOL    HW266876   8.685   3.564  10.140
88327SOL     OW66877   2.418   6.627   7.532
88327SOL    HW166878   2.434   6.619   7.438
88327SOL    HW266879   2.371   6.547   7.555
88328SOL     OW66880   0.066  14.783  12.113
88328SOL    HW166881   0.157  14.779  12.141
88328SOL    HW266882   0.069  14.825  12.027
88329SOL     OW66883   2.050   6.248   9.714
88329SOL    HW166884   2.037   6.270   9.622
88329SOL    HW266885   1.961   6.243   9.750
88330SOL     OW66886  14.612   1.549   2.275
88330SOL    HW166887  14.693   1.519   2.233
88330SOL    HW266888  14.557   1.471   2.279
88331SOL     OW66889   6.301   5.709   8.431
88331SOL    HW166890   6.207   5.705   8.410
88331SOL    HW266891   6.310   5.656   8.510
88332SOL     OW66892  13.734   4.564   7.394
88332SOL    HW166893  13.676   4.574   7.470
88332SOL    HW266894  13.724   4.472   7.369
88333SOL     OW66895   5.941   4.556   9.978
88333SOL    HW166896   5.937   4.634  10.033
88333SOL    HW266897   5.884   4.576   9.904
88334SOL     OW66898   6.115   4.402   1.519
88334SOL    HW166899   6.068   4.485   1.510
88334SOL    HW266900   6.051   4.342   1.556
88335SOL     OW66901   3.266   7.114  12.849
88335SOL    HW166902   3.265   7.102  12.754
88335SOL    HW266903   3.289   7.027  12.883
88336SOL     OW66904   3.956   7.643  12.490
88336SOL    HW166905   3.991   7.637  12.401
88336SOL    HW266906   3.972   7.733  12.517
88337SOL     OW66907   2.694   4.255   6.307
88337SOL    HW166908   2.707   4.328   6.368
88337SOL    HW266909   2.622   4.285   6.250
88338SOL     OW66910  11.767  13.685   6.789
88338SOL    HW166911  11.712  13.755   6.824
88338SOL    HW266912  11.736  13.673   6.699
88339SOL     OW66913  12.339  10.317  11.924
88339SOL    HW166914  12.318  10.254  11.993
88339SOL    HW266915  12.254  10.356  11.901
88340SOL     OW66916   7.747  12.335   4.188
88340SOL    HW166917   7.680  12.298   4.246
88340SOL    HW266918   7.709  12.329   4.101
88341SOL     OW66919  13.527   8.446   6.214
88341SOL    HW166920  13.531   8.362   6.261
88341SOL    HW266921  13.616   8.481   6.221
88342SOL     OW66922   2.559   7.364  13.340
88342SOL    HW166923   2.623   7.430  13.313
88342SOL    HW266924   2.607   7.306  13.398
88343SOL     OW66925   8.121   5.170   1.921
88343SOL    HW166926   8.216   5.176   1.933
88343SOL    HW266927   8.108   5.087   1.875
88344SOL     OW66928   1.978   4.934  12.102
88344SOL    HW166929   1.892   4.941  12.145
88344SOL    HW266930   1.959   4.943  12.009
88345SOL     OW66931   5.417   7.424   1.824
88345SOL    HW166932   5.328   7.439   1.793
88345SOL    HW266933   5.429   7.329   1.818
88346SOL     OW66934   2.414  12.450   7.194
88346SOL    HW166935   2.411  12.366   7.150
88346SOL    HW266936   2.506  12.462   7.217
88347SOL     OW66937   0.971   1.250   8.845
88347SOL    HW166938   0.946   1.234   8.754
88347SOL    HW266939   0.908   1.199   8.896
88348SOL     OW66940   4.028   0.516   1.365
88348SOL    HW166941   4.057   0.540   1.454
88348SOL    HW266942   4.096   0.458   1.332
88349SOL     OW66943   5.316  13.225   5.307
88349SOL    HW166944   5.250  13.207   5.241
88349SOL    HW266945   5.371  13.294   5.269
88350SOL     OW66946   5.717  12.338  10.194
88350SOL    HW166947   5.680  12.265  10.244
88350SOL    HW266948   5.678  12.416  10.233
88351SOL     OW66949   0.421   8.110  12.955
88351SOL    HW166950   0.499   8.158  12.927
88351SOL    HW266951   0.419   8.033  12.899
88352SOL     OW66952   4.886   5.718  14.319
88352SOL    HW166953   4.858   5.791  14.375
88352SOL    HW266954   4.879   5.751  14.230
88353SOL     OW66955  14.639   2.970  12.431
88353SOL    HW166956  14.633   3.065  12.438
88353SOL    HW266957  14.706   2.946  12.495
88354SOL     OW66958  14.253   1.558  14.003
88354SOL    HW166959  14.330   1.502  14.015
88354SOL    HW266960  14.279   1.620  13.935
88355SOL     OW66961  12.462   8.018   4.496
88355SOL    HW166962  12.499   8.033   4.582
88355SOL    HW266963  12.488   8.094   4.444
88356SOL     OW66964   0.900   9.601   9.613
88356SOL    HW166965   0.831   9.584   9.549
88356SOL    HW266966   0.928   9.514   9.641
88357SOL     OW66967   7.367   3.715   9.080
88357SOL    HW166968   7.382   3.773   9.006
88357SOL    HW266969   7.276   3.688   9.072
88358SOL     OW66970  12.172   9.741  13.214
88358SOL    HW166971  12.214   9.725  13.299
88358SOL    HW266972  12.113   9.667  13.203
88359SOL     OW66973   4.285  10.704   3.830
88359SOL    HW166974   4.298  10.615   3.798
88359SOL    HW266975   4.239  10.749   3.759
88360SOL     OW66976   0.695   9.068  12.959
88360SOL    HW166977   0.765   9.119  12.918
88360SOL    HW266978   0.733   9.038  13.041
88361SOL     OW66979  12.776   5.362   7.699
88361SOL    HW166980  12.705   5.427   7.697
88361SOL    HW266981  12.731   5.278   7.691
88362SOL     OW66982  13.245  12.847  14.836
88362SOL    HW166983  13.200  12.864  14.753
88362SOL    HW266984  13.201  12.903   0.024
88363SOL     OW66985   4.692   7.982  13.142
88363SOL    HW166986   4.622   8.003  13.079
88363SOL    HW266987   4.770   8.026  13.106
88364SOL     OW66988   3.931   5.049  10.634
88364SOL    HW166989   3.984   4.970  10.646
88364SOL    HW266990   3.904   5.073  10.722
88365SOL     OW66991   9.352   3.939   5.604
88365SOL    HW166992   9.286   3.990   5.651
88365SOL    HW266993   9.431   3.994   5.607
88366SOL     OW66994  13.214   5.594   2.813
88366SOL    HW166995  13.262   5.646   2.749
88366SOL    HW266996  13.211   5.506   2.775
88367SOL     OW66997  11.104   4.418   4.436
88367SOL    HW166998  11.137   4.412   4.346
88367SOL    HW266999  11.076   4.329   4.458
88368SOL     OW67000  10.298  13.784   9.198
88368SOL    HW167001  10.215  13.739   9.215
88368SOL    HW267002  10.304  13.849   9.267
88369SOL     OW67003   2.339   2.677   4.283
88369SOL    HW167004   2.255   2.654   4.243
88369SOL    HW267005   2.403   2.669   4.212
88370SOL     OW67006   3.538   8.147   6.121
88370SOL    HW167007   3.447   8.118   6.115
88370SOL    HW267008   3.541   8.230   6.074
88371SOL     OW67009   1.129   8.359   4.431
88371SOL    HW167010   1.205   8.376   4.376
88371SOL    HW267011   1.148   8.404   4.513
88372SOL     OW67012  13.454   4.678   8.869
88372SOL    HW167013  13.487   4.760   8.906
88372SOL    HW267014  13.424   4.628   8.945
88373SOL     OW67015   8.412  14.280   2.938
88373SOL    HW167016   8.346  14.227   2.984
88373SOL    HW267017   8.445  14.340   3.004
88374SOL     OW67018   5.875   5.426   1.032
88374SOL    HW167019   5.891   5.340   0.994
88374SOL    HW267020   5.827   5.474   0.964
88375SOL     OW67021  14.124  12.904   0.936
88375SOL    HW167022  14.177  12.824   0.938
88375SOL    HW267023  14.154  12.950   0.858
88376SOL     OW67024   0.383   2.198   1.730
88376SOL    HW167025   0.434   2.128   1.689
88376SOL    HW267026   0.378   2.173   1.822
88377SOL     OW67027   0.654  14.307  10.458
88377SOL    HW167028   0.743  14.287  10.486
88377SOL    HW267029   0.662  14.383  10.401
88378SOL     OW67030   7.792   6.109   5.186
88378SOL    HW167031   7.873   6.125   5.233
88378SOL    HW267032   7.723   6.123   5.251
88379SOL     OW67033   2.975   6.901   2.597
88379SOL    HW167034   3.063   6.883   2.566
88379SOL    HW267035   2.919   6.880   2.523
88380SOL     OW67036  10.690   3.996   7.346
88380SOL    HW167037  10.661   4.028   7.261
88380SOL    HW267038  10.743   4.068   7.381
88381SOL     OW67039   6.873   1.058   4.041
88381SOL    HW167040   6.835   0.993   3.982
88381SOL    HW267041   6.838   1.035   4.127
88382SOL     OW67042  13.665   5.822  10.703
88382SOL    HW167043  13.618   5.843  10.784
88382SOL    HW267044  13.747   5.871  10.710
88383SOL     OW67045   9.730   1.483   1.709
88383SOL    HW167046   9.718   1.555   1.771
88383SOL    HW267047   9.645   1.475   1.665
88384SOL     OW67048   9.651  14.619   3.233
88384SOL    HW167049   9.569  14.655   3.269
88384SOL    HW267050   9.719  14.675   3.269
88385SOL     OW67051  11.152   8.519   7.392
88385SOL    HW167052  11.182   8.433   7.362
88385SOL    HW267053  11.093   8.501   7.464
88386SOL     OW67054  14.695   5.035   4.633
88386SOL    HW167055  14.669   5.121   4.598
88386SOL    HW267056  14.630   5.016   4.700
88387SOL     OW67057   3.473   2.163  11.930
88387SOL    HW167058   3.518   2.243  11.903
88387SOL    HW267059   3.485   2.103  11.857
88388SOL     OW67060   8.025   8.921   7.961
88388SOL    HW167061   8.008   8.864   8.036
88388SOL    HW267062   8.087   8.871   7.907
88389SOL     OW67063   7.536   5.429   8.127
88389SOL    HW167064   7.621   5.471   8.118
88389SOL    HW267065   7.528   5.411   8.221
88390SOL     OW67066   8.751   1.713   4.976
88390SOL    HW167067   8.803   1.657   4.919
88390SOL    HW267068   8.679   1.744   4.920
88391SOL     OW67069   1.648   7.546   4.371
88391SOL    HW167070   1.726   7.564   4.320
88391SOL    HW267071   1.637   7.451   4.365
88392SOL     OW67072  11.407  14.087   4.139
88392SOL    HW167073  11.409  14.163   4.196
88392SOL    HW267074  11.453  14.018   4.188
88393SOL     OW67075  14.613   8.665   1.286
88393SOL    HW167076  14.669   8.657   1.209
88393SOL    HW267077  14.673   8.658   1.360
88394SOL     OW67078  11.406   6.770   9.776
88394SOL    HW167079  11.490   6.776   9.822
88394SOL    HW267080  11.393   6.676   9.762
88395SOL     OW67081  14.125   0.745   1.319
88395SOL    HW167082  14.202   0.753   1.262
88395SOL    HW267083  14.076   0.671   1.283
88396SOL     OW67084   0.474  12.760   2.165
88396SOL    HW167085   0.398  12.707   2.138
88396SOL    HW267086   0.545  12.730   2.109
88397SOL     OW67087   9.363   2.069  11.756
88397SOL    HW167088   9.317   2.031  11.831
88397SOL    HW267089   9.412   1.996  11.719
88398SOL     OW67090   5.034   4.113   5.800
88398SOL    HW167091   5.056   4.088   5.890
88398SOL    HW267092   5.087   4.190   5.783
88399SOL     OW67093   0.101   3.509   7.456
88399SOL    HW167094   0.082   3.495   7.363
88399SOL    HW267095   0.161   3.438   7.479
88400SOL     OW67096  13.057   3.566   7.574
88400SOL    HW167097  13.075   3.641   7.630
88400SOL    HW267098  13.022   3.500   7.634
88401SOL     OW67099   1.807   1.542   7.016
88401SOL    HW167100   1.728   1.503   6.979
88401SOL    HW267101   1.776   1.615   7.069
88402SOL     OW67102  13.107   5.905  10.437
88402SOL    HW167103  13.090   5.875  10.526
88402SOL    HW267104  13.020   5.912  10.397
88403SOL     OW67105   6.393  13.753  10.097
88403SOL    HW167106   6.330  13.717  10.034
88403SOL    HW267107   6.459  13.796  10.043
88404SOL     OW67108  12.883   7.243   6.698
88404SOL    HW167109  12.904   7.234   6.791
88404SOL    HW267110  12.800   7.197   6.687
88405SOL     OW67111   7.485   2.760   2.723
88405SOL    HW167112   7.478   2.714   2.806
88405SOL    HW267113   7.449   2.847   2.741
88406SOL     OW67114   7.724   6.498  12.893
88406SOL    HW167115   7.668   6.426  12.921
88406SOL    HW267116   7.808   6.480  12.936
88407SOL     OW67117   1.819  13.868   8.728
88407SOL    HW167118   1.812  13.773   8.717
88407SOL    HW267119   1.730  13.896   8.750
88408SOL     OW67120  14.868  14.446  13.044
88408SOL    HW167121  14.830  14.358  13.053
88408SOL    HW267122   0.079  14.431  13.005
88409SOL     OW67123  11.998   0.408   0.745
88409SOL    HW167124  11.977   0.385   0.654
88409SOL    HW267125  11.921   0.381   0.795
88410SOL     OW67126   0.567   6.457   9.937
88410SOL    HW167127   0.506   6.462  10.011
88410SOL    HW267128   0.615   6.375   9.952
88411SOL     OW67129  12.708  10.802   0.326
88411SOL    HW167130  12.788  10.847   0.299
88411SOL    HW267131  12.712  10.717   0.284
88412SOL     OW67132   7.867   1.750   2.745
88412SOL    HW167133   7.959   1.742   2.720
88412SOL    HW267134   7.821   1.686   2.691
88413SOL     OW67135   4.295   5.875   2.560
88413SOL    HW167136   4.296   5.779   2.560
88413SOL    HW267137   4.372   5.900   2.610
88414SOL     OW67138  11.715   2.855   6.001
88414SOL    HW167139  11.641   2.795   6.010
88414SOL    HW267140  11.754   2.859   6.088
88415SOL     OW67141  11.031   8.404  10.461
88415SOL    HW167142  11.042   8.325  10.513
88415SOL    HW267143  10.969   8.380  10.392
88416SOL     OW67144  10.163  13.119  10.836
88416SOL    HW167145  10.147  13.212  10.821
88416SOL    HW267146  10.194  13.114  10.926
88417SOL     OW67147   3.968  14.859   1.985
88417SOL    HW167148   3.910  14.797   2.030
88417SOL    HW267149   3.909   0.041   1.937
88418SOL     OW67150   4.714  13.665   1.319
88418SOL    HW167151   4.798  13.707   1.301
88418SOL    HW267152   4.667  13.728   1.374
88419SOL     OW67153  11.929   1.685   4.102
88419SOL    HW167154  11.923   1.591   4.085
88419SOL    HW267155  11.863   1.724   4.045
88420SOL     OW67156   4.029  14.512   4.389
88420SOL    HW167157   4.007  14.541   4.477
88420SOL    HW267158   4.119  14.542   4.376
88421SOL     OW67159   2.108   9.442  10.055
88421SOL    HW167160   2.029   9.444  10.109
88421SOL    HW267161   2.097   9.366   9.999
88422SOL     OW67162  13.770   0.474   2.150
88422SOL    HW167163  13.845   0.416   2.165
88422SOL    HW267164  13.804   0.541   2.091
88423SOL     OW67165   7.489   9.024   4.225
88423SOL    HW167166   7.398   9.046   4.245
88423SOL    HW267167   7.484   8.970   4.146
88424SOL     OW67168  10.878   4.124   8.684
88424SOL    HW167169  10.790   4.115   8.649
88424SOL    HW267170  10.908   4.209   8.652
88425SOL     OW67171  12.216   2.885  14.555
88425SOL    HW167172  12.301   2.881  14.599
88425SOL    HW267173  12.222   2.819  14.485
88426SOL     OW67174   0.076   6.112   2.549
88426SOL    HW167175   0.033   6.143   2.469
88426SOL    HW267176   0.151   6.171   2.559
88427SOL     OW67177  11.207  12.793  13.477
88427SOL    HW167178  11.148  12.813  13.549
88427SOL    HW267179  11.155  12.810  13.398
88428SOL     OW67180   1.250   2.800  14.312
88428SOL    HW167181   1.265   2.887  14.351
88428SOL    HW267182   1.166   2.772  14.349
88429SOL     OW67183   6.516  10.826   2.591
88429SOL    HW167184   6.463  10.767   2.645
88429SOL    HW267185   6.487  10.914   2.615
88430SOL     OW67186   8.777   9.897   7.064
88430SOL    HW167187   8.826   9.952   7.125
88430SOL    HW267188   8.789   9.940   6.979
88431SOL     OW67189  10.020   6.949  13.500
88431SOL    HW167190   9.940   6.992  13.531
88431SOL    HW267191  10.014   6.860  13.535
88432SOL     OW67192  13.062  13.259   0.960
88432SOL    HW167193  13.051  13.177   0.912
88432SOL    HW267194  13.045  13.236   1.051
88433SOL     OW67195   0.505  10.124   2.843
88433SOL    HW167196   0.437  10.170   2.793
88433SOL    HW267197   0.572  10.191   2.860
88434SOL     OW67198   5.939   6.961  13.650
88434SOL    HW167199   6.032   6.945  13.663
88434SOL    HW267200   5.929   6.969  13.555
88435SOL     OW67201   5.468   7.450   4.741
88435SOL    HW167202   5.488   7.504   4.665
88435SOL    HW267203   5.407   7.384   4.709
88436SOL     OW67204   4.627   8.071   2.262
88436SOL    HW167205   4.574   7.998   2.292
88436SOL    HW267206   4.678   8.036   2.189
88437SOL     OW67207   3.921  14.381   7.856
88437SOL    HW167208   3.872  14.420   7.784
88437SOL    HW267209   3.991  14.445   7.875
88438SOL     OW67210  13.933  12.309  13.635
88438SOL    HW167211  13.862  12.284  13.575
88438SOL    HW267212  13.895  12.378  13.689
88439SOL     OW67213   8.439   7.954   4.150
88439SOL    HW167214   8.507   7.970   4.216
88439SOL    HW267215   8.403   7.868   4.174
88440SOL     OW67216  11.840  12.198   1.473
88440SOL    HW167217  11.925  12.211   1.516
88440SOL    HW267218  11.783  12.164   1.541
88441SOL     OW67219  14.105   7.388   1.834
88441SOL    HW167220  14.200   7.393   1.836
88441SOL    HW267221  14.081   7.409   1.743
88442SOL     OW67222  11.718  13.674   2.501
88442SOL    HW167223  11.658  13.600   2.493
88442SOL    HW267224  11.774  13.668   2.423
88443SOL     OW67225  13.022   1.117   3.145
88443SOL    HW167226  12.974   1.133   3.064
88443SOL    HW267227  12.955   1.087   3.207
88444SOL     OW67228   9.008   1.887   6.894
88444SOL    HW167229   9.087   1.932   6.925
88444SOL    HW267230   9.039   1.827   6.827
88445SOL     OW67231   4.680   6.732  10.239
88445SOL    HW167232   4.706   6.712  10.329
88445SOL    HW267233   4.590   6.764  10.247
88446SOL     OW67234   0.447   4.023   0.702
88446SOL    HW167235   0.366   3.972   0.690
88446SOL    HW267236   0.454   4.073   0.621
88447SOL     OW67237   5.633   0.285   8.314
88447SOL    HW167238   5.716   0.243   8.337
88447SOL    HW267239   5.623   0.267   8.220
88448SOL     OW67240  11.674   1.358   6.390
88448SOL    HW167241  11.767   1.342   6.407
88448SOL    HW267242  11.670   1.372   6.295
88449SOL     OW67243   8.024  11.462  10.719
88449SOL    HW167244   8.056  11.378  10.754
88449SOL    HW267245   7.937  11.442  10.685
88450SOL     OW67246   2.867   5.321   1.652
88450SOL    HW167247   2.921   5.243   1.668
88450SOL    HW267248   2.817   5.332   1.733
88451SOL     OW67249   6.123   4.558   8.278
88451SOL    HW167250   6.193   4.532   8.336
88451SOL    HW267251   6.111   4.484   8.218
88452SOL     OW67252   2.446   1.293  13.764
88452SOL    HW167253   2.484   1.293  13.852
88452SOL    HW267254   2.393   1.213  13.760
88453SOL     OW67255  14.255   0.681  13.652
88453SOL    HW167256  14.159   0.680  13.646
88453SOL    HW267257  14.279   0.589  13.664
88454SOL     OW67258   1.322   1.311   3.592
88454SOL    HW167259   1.334   1.405   3.575
88454SOL    HW267260   1.290   1.307   3.683
88455SOL     OW67261  10.610   8.968   6.627
88455SOL    HW167262  10.661   9.016   6.692
88455SOL    HW267263  10.598   9.030   6.555
88456SOL     OW67264  12.320   1.026   2.695
88456SOL    HW167265  12.310   0.952   2.636
88456SOL    HW267266  12.325   1.103   2.638
88457SOL     OW67267   0.070   2.058   4.128
88457SOL    HW167268   0.066   1.967   4.100
88457SOL    HW267269   0.121   2.056   4.209
88458SOL     OW67270   9.821  12.794   7.713
88458SOL    HW167271   9.864  12.850   7.649
88458SOL    HW267272   9.865  12.814   7.796
88459SOL     OW67273  13.539   8.876   4.862
88459SOL    HW167274  13.573   8.937   4.797
88459SOL    HW267275  13.611   8.861   4.923
88460SOL     OW67276  10.016  11.745   6.781
88460SOL    HW167277  10.070  11.689   6.837
88460SOL    HW267278   9.993  11.819   6.837
88461SOL     OW67279  10.175   4.417   1.963
88461SOL    HW167280  10.131   4.332   1.966
88461SOL    HW267281  10.156   4.457   2.048
88462SOL     OW67282   9.257   5.268   1.830
88462SOL    HW167283   9.235   5.359   1.850
88462SOL    HW267284   9.353   5.268   1.823
88463SOL     OW67285   1.101   0.842   2.701
88463SOL    HW167286   1.168   0.830   2.768
88463SOL    HW267287   1.022   0.866   2.750
88464SOL     OW67288   0.361   0.410  13.164
88464SOL    HW167289   0.405   0.348  13.106
88464SOL    HW267290   0.338   0.484  13.108
88465SOL     OW67291   2.026  11.611   1.057
88465SOL    HW167292   2.010  11.578   1.146
88465SOL    HW267293   2.115  11.583   1.037
88466SOL     OW67294   1.799   2.660  12.672
88466SOL    HW167295   1.731   2.599  12.645
88466SOL    HW267296   1.760   2.712  12.741
88467SOL     OW67297  13.303   3.177   5.427
88467SOL    HW167298  13.345   3.092   5.442
88467SOL    HW267299  13.316   3.193   5.333
88468SOL     OW67300  13.360   8.046   1.913
88468SOL    HW167301  13.297   8.028   1.843
88468SOL    HW267302  13.311   8.097   1.977
88469SOL     OW67303   8.077   5.982  12.930
88469SOL    HW167304   8.088   6.020  12.843
88469SOL    HW267305   8.165   5.956  12.957
88470SOL     OW67306   3.672   0.572   9.773
88470SOL    HW167307   3.590   0.553   9.726
88470SOL    HW267308   3.653   0.651   9.823
88471SOL     OW67309   5.347   2.877   6.320
88471SOL    HW167310   5.335   2.901   6.228
88471SOL    HW267311   5.361   2.783   6.319
88472SOL     OW67312  14.858   9.949   3.894
88472SOL    HW167313  14.854  10.043   3.913
88472SOL    HW267314   0.053   9.941   3.829
88473SOL     OW67315   6.062  11.530   9.540
88473SOL    HW167316   5.997  11.466   9.572
88473SOL    HW267317   6.029  11.614   9.570
88474SOL     OW67318   6.178   0.352  13.173
88474SOL    HW167319   6.090   0.363  13.136
88474SOL    HW267320   6.196   0.434  13.217
88475SOL     OW67321  13.568   7.711  14.110
88475SOL    HW167322  13.658   7.743  14.107
88475SOL    HW267323  13.517   7.785  14.143
88476SOL     OW67324   3.225   4.388  12.925
88476SOL    HW167325   3.168   4.412  12.852
88476SOL    HW267326   3.260   4.471  12.956
88477SOL     OW67327  12.951  12.063   6.122
88477SOL    HW167328  12.873  12.010   6.143
88477SOL    HW267329  12.934  12.147   6.164
88478SOL     OW67330   8.240   8.337   6.099
88478SOL    HW167331   8.212   8.280   6.028
88478SOL    HW267332   8.279   8.279   6.163
88479SOL     OW67333   6.963  12.516  12.874
88479SOL    HW167334   6.994  12.607  12.870
88479SOL    HW267335   7.009  12.479  12.950
88480SOL     OW67336  12.491   3.303   8.413
88480SOL    HW167337  12.403   3.337   8.432
88480SOL    HW267338  12.525   3.362   8.345
88481SOL     OW67339   9.484   8.491  10.997
88481SOL    HW167340   9.395   8.507  11.026
88481SOL    HW267341   9.538   8.509  11.074
88482SOL     OW67342  12.561   8.405   1.728
88482SOL    HW167343  12.529   8.457   1.802
88482SOL    HW267344  12.586   8.470   1.663
88483SOL     OW67345  13.626  13.977   0.497
88483SOL    HW167346  13.720  13.980   0.478
88483SOL    HW267347  13.600  14.069   0.502
88484SOL     OW67348  11.594   4.601  11.930
88484SOL    HW167349  11.588   4.601  11.834
88484SOL    HW267350  11.578   4.692  11.954
88485SOL     OW67351   8.777  12.083  11.542
88485SOL    HW167352   8.720  12.020  11.497
88485SOL    HW267353   8.834  12.117  11.473
88486SOL     OW67354   3.913  11.208  13.132
88486SOL    HW167355   3.922  11.126  13.084
88486SOL    HW267356   3.946  11.189  13.219
88487SOL     OW67357   3.652  13.847   4.279
88487SOL    HW167358   3.730  13.835   4.226
88487SOL    HW267359   3.621  13.935   4.257
88488SOL     OW67360  12.718   4.119  10.873
88488SOL    HW167361  12.720   4.040  10.819
88488SOL    HW267362  12.696   4.189  10.812
88489SOL     OW67363   5.933  14.221   5.058
88489SOL    HW167364   5.901  14.287   4.996
88489SOL    HW267365   5.866  14.216   5.125
88490SOL     OW67366  12.995  12.456   2.396
88490SOL    HW167367  12.902  12.476   2.397
88490SOL    HW267368  13.001  12.365   2.422
88491SOL     OW67369  11.658  13.341   7.918
88491SOL    HW167370  11.676  13.435   7.910
88491SOL    HW267371  11.564  13.335   7.936
88492SOL     OW67372   3.886  11.648   3.113
88492SOL    HW167373   3.790  11.640   3.117
88492SOL    HW267374   3.902  11.703   3.036
88493SOL     OW67375   0.742   0.757   4.921
88493SOL    HW167376   0.776   0.736   4.834
88493SOL    HW267377   0.652   0.726   4.920
88494SOL     OW67378   0.088   6.618   2.011
88494SOL    HW167379   0.103   6.620   1.917
88494SOL    HW267380   0.064   6.527   2.029
88495SOL     OW67381  11.783  11.613  12.546
88495SOL    HW167382  11.794  11.567  12.463
88495SOL    HW267383  11.872  11.644  12.567
88496SOL     OW67384   4.593   8.397   4.237
88496SOL    HW167385   4.548   8.350   4.307
88496SOL    HW267386   4.598   8.333   4.166
88497SOL     OW67387   1.580   3.073  14.165
88497SOL    HW167388   1.639   3.062  14.090
88497SOL    HW267389   1.575   3.168  14.178
88498SOL     OW67390  11.896  10.995  14.256
88498SOL    HW167391  11.868  11.047  14.181
88498SOL    HW267392  11.921  11.059  14.322
88499SOL     OW67393   6.666   8.963   5.209
88499SOL    HW167394   6.610   8.910   5.153
88499SOL    HW267395   6.725   8.900   5.251
88500SOL     OW67396   6.795   9.695   3.923
88500SOL    HW167397   6.844   9.722   4.001
88500SOL    HW267398   6.854   9.636   3.877
88501SOL     OW67399   5.373   8.060   7.480
88501SOL    HW167400   5.323   8.133   7.444
88501SOL    HW267401   5.316   7.984   7.468
88502SOL     OW67402   8.470  10.455   2.313
88502SOL    HW167403   8.489  10.547   2.327
88502SOL    HW267404   8.515  10.433   2.231
88503SOL     OW67405   2.458  12.971   0.997
88503SOL    HW167406   2.480  12.907   1.064
88503SOL    HW267407   2.372  13.006   1.023
88504SOL     OW67408  11.867   8.803   1.923
88504SOL    HW167409  11.811   8.823   1.998
88504SOL    HW267410  11.945   8.858   1.935
88505SOL     OW67411   1.856   2.454  12.175
88505SOL    HW167412   1.944   2.472  12.142
88505SOL    HW267413   1.865   2.457  12.270
88506SOL     OW67414  12.186   4.045  10.427
88506SOL    HW167415  12.248   3.988  10.382
88506SOL    HW267416  12.168   4.001  10.510
88507SOL     OW67417   1.318   4.482   8.660
88507SOL    HW167418   1.354   4.440   8.738
88507SOL    HW267419   1.256   4.417   8.625
88508SOL     OW67420  14.199   3.324   0.188
88508SOL    HW167421  14.270   3.288   0.135
88508SOL    HW267422  14.236   3.403   0.227
88509SOL     OW67423   0.025   6.830   7.487
88509SOL    HW167424   0.014   6.795   7.399
88509SOL    HW267425  14.836   6.782   7.540
88510SOL     OW67426  13.050   7.638  10.023
88510SOL    HW167427  13.011   7.709   9.972
88510SOL    HW267428  12.975   7.598  10.068
88511SOL     OW67429   3.934   5.929  11.939
88511SOL    HW167430   3.954   5.981  11.861
88511SOL    HW267431   3.994   5.855  11.934
88512SOL     OW67432   3.246  11.200   7.660
88512SOL    HW167433   3.229  11.180   7.568
88512SOL    HW267434   3.194  11.136   7.708
88513SOL     OW67435  10.444   1.394   5.144
88513SOL    HW167436  10.483   1.308   5.159
88513SOL    HW267437  10.351   1.376   5.127
88514SOL     OW67438  10.460   6.459  10.790
88514SOL    HW167439  10.479   6.549  10.765
88514SOL    HW267440  10.496   6.449  10.878
88515SOL     OW67441   2.731  12.664   8.982
88515SOL    HW167442   2.730  12.751   9.020
88515SOL    HW267443   2.649  12.624   9.010
88516SOL     OW67444   9.761   9.041   0.176
88516SOL    HW167445   9.820   9.107   0.212
88516SOL    HW267446   9.689   9.092   0.137
88517SOL     OW67447   1.383  12.079   9.531
88517SOL    HW167448   1.370  12.017   9.603
88517SOL    HW267449   1.403  12.163   9.575
88518SOL     OW67450  10.368   6.062   3.524
88518SOL    HW167451  10.323   6.081   3.441
88518SOL    HW267452  10.364   5.966   3.532
88519SOL     OW67453  13.709  12.081   0.297
88519SOL    HW167454  13.652  12.158   0.302
88519SOL    HW267455  13.796  12.115   0.317
88520SOL     OW67456   8.716  14.707   0.191
88520SOL    HW167457   8.687  14.798   0.199
88520SOL    HW267458   8.644  14.655   0.225
88521SOL     OW67459  11.796   5.328  11.662
88521SOL    HW167460  11.725   5.299  11.720
88521SOL    HW267461  11.759   5.323  11.574
88522SOL     OW67462   8.953   2.674   9.389
88522SOL    HW167463   8.972   2.673   9.295
88522SOL    HW267464   8.983   2.759   9.419
88523SOL     OW67465  14.316   8.745   7.153
88523SOL    HW167466  14.268   8.827   7.158
88523SOL    HW267467  14.254   8.679   7.184
88524SOL     OW67468   8.022   1.980   3.927
88524SOL    HW167469   8.059   2.049   3.983
88524SOL    HW267470   8.048   2.004   3.839
88525SOL     OW67471   1.455   7.130   8.435
88525SOL    HW167472   1.465   7.216   8.475
88525SOL    HW267473   1.388   7.086   8.488
88526SOL     OW67474   1.933  11.140   1.710
88526SOL    HW167475   1.948  11.161   1.802
88526SOL    HW267476   1.857  11.081   1.711
88527SOL     OW67477  10.571   8.503  13.061
88527SOL    HW167478  10.559   8.589  13.021
88527SOL    HW267479  10.482   8.473  13.080
88528SOL     OW67480   7.367  10.812   1.870
88528SOL    HW167481   7.360  10.814   1.965
88528SOL    HW267482   7.396  10.723   1.850
88529SOL     OW67483   1.879   2.557   4.563
88529SOL    HW167484   1.853   2.614   4.635
88529SOL    HW267485   1.837   2.594   4.486
88530SOL     OW67486   9.862  10.424   6.339
88530SOL    HW167487   9.878  10.338   6.299
88530SOL    HW267488   9.949  10.456   6.363
88531SOL     OW67489  13.161  10.938   2.356
88531SOL    HW167490  13.241  10.924   2.408
88531SOL    HW267491  13.098  10.876   2.393
88532SOL     OW67492   2.425   8.953   4.689
88532SOL    HW167493   2.377   9.029   4.723
88532SOL    HW267494   2.377   8.927   4.610
88533SOL     OW67495  12.802   3.136   9.001
88533SOL    HW167496  12.713   3.172   9.003
88533SOL    HW267497  12.792   3.045   9.028
88534SOL     OW67498   1.308   5.643  11.647
88534SOL    HW167499   1.375   5.676  11.707
88534SOL    HW267500   1.337   5.671  11.561
88535SOL     OW67501   5.040  13.031   5.743
88535SOL    HW167502   5.114  13.091   5.751
88535SOL    HW267503   4.983  13.053   5.817
88536SOL     OW67504   9.742  10.577   7.663
88536SOL    HW167505   9.699  10.659   7.687
88536SOL    HW267506   9.813  10.602   7.605
88537SOL     OW67507   6.981   8.624   2.814
88537SOL    HW167508   6.896   8.669   2.818
88537SOL    HW267509   7.040   8.680   2.864
88538SOL     OW67510   6.877   6.998   8.122
88538SOL    HW167511   6.909   7.087   8.109
88538SOL    HW267512   6.950   6.942   8.094
88539SOL     OW67513   6.376   2.984  12.412
88539SOL    HW167514   6.381   3.034  12.331
88539SOL    HW267515   6.460   3.001  12.456
88540SOL     OW67516  13.340   8.952   3.894
88540SOL    HW167517  13.413   8.939   3.953
88540SOL    HW267518  13.263   8.953   3.951
88541SOL     OW67519   9.600  11.019  14.207
88541SOL    HW167520   9.672  11.046  14.264
88541SOL    HW267521   9.565  10.941  14.249
88542SOL     OW67522   7.493  14.290   9.783
88542SOL    HW167523   7.522  14.295   9.874
88542SOL    HW267524   7.398  14.301   9.787
88543SOL     OW67525  13.035   0.132   6.043
88543SOL    HW167526  13.068   0.079   6.116
88543SOL    HW267527  13.092   0.209   6.042
88544SOL     OW67528  12.699  10.762   8.916
88544SOL    HW167529  12.773  10.755   8.855
88544SOL    HW267530  12.662  10.848   8.900
88545SOL     OW67531   2.493  11.001  10.248
88545SOL    HW167532   2.504  10.915  10.208
88545SOL    HW267533   2.581  11.038  10.249
88546SOL     OW67534   8.673   3.149   6.290
88546SOL    HW167535   8.692   3.147   6.197
88546SOL    HW267536   8.662   3.242   6.311
88547SOL     OW67537   5.993   9.806   9.706
88547SOL    HW167538   6.048   9.882   9.687
88547SOL    HW267539   5.920   9.842   9.757
88548SOL     OW67540  11.076   1.798  11.788
88548SOL    HW167541  11.024   1.863  11.742
88548SOL    HW267542  11.130   1.849  11.849
88549SOL     OW67543   8.910  12.415  11.578
88549SOL    HW167544   8.875  12.495  11.618
88549SOL    HW267545   8.941  12.363  11.651
88550SOL     OW67546   0.913   0.205   0.824
88550SOL    HW167547   0.839   0.243   0.873
88550SOL    HW267548   0.885   0.207   0.733
88551SOL     OW67549  11.967  12.144  12.260
88551SOL    HW167550  11.893  12.204  12.254
88551SOL    HW267551  11.971  12.120  12.353
88552SOL     OW67552  12.058   8.622   5.615
88552SOL    HW167553  12.048   8.716   5.606
88552SOL    HW267554  12.152   8.607   5.611
88553SOL     OW67555   4.796   4.057   4.101
88553SOL    HW167556   4.785   3.980   4.045
88553SOL    HW267557   4.707   4.091   4.112
88554SOL     OW67558   4.782   3.101   5.126
88554SOL    HW167559   4.714   3.040   5.098
88554SOL    HW267560   4.737   3.185   5.134
88555SOL     OW67561  12.156   2.212   5.896
88555SOL    HW167562  12.100   2.252   5.830
88555SOL    HW267563  12.179   2.127   5.860
88556SOL     OW67564  11.186   5.107   7.979
88556SOL    HW167565  11.109   5.116   8.035
88556SOL    HW267566  11.258   5.092   8.039
88557SOL     OW67567   6.041   6.607   2.413
88557SOL    HW167568   6.005   6.615   2.325
88557SOL    HW267569   5.973   6.563   2.463
88558SOL     OW67570   8.302   5.850  14.062
88558SOL    HW167571   8.279   5.933  14.104
88558SOL    HW267572   8.388   5.828  14.098
88559SOL     OW67573  12.708   6.326  14.214
88559SOL    HW167574  12.746   6.239  14.217
88559SOL    HW267575  12.768   6.376  14.157
88560SOL     OW67576   0.670   1.722   5.322
88560SOL    HW167577   0.583   1.735   5.359
88560SOL    HW267578   0.706   1.810   5.313
88561SOL     OW67579   5.265   2.559   0.087
88561SOL    HW167580   5.324   2.544   0.162
88561SOL    HW267581   5.324   2.586   0.016
88562SOL     OW67582   1.828  13.426   3.171
88562SOL    HW167583   1.876  13.449   3.091
88562SOL    HW267584   1.760  13.494   3.178
88563SOL     OW67585  10.040   2.241   8.048
88563SOL    HW167586  10.044   2.146   8.035
88563SOL    HW267587  10.053   2.254   8.142
88564SOL     OW67588   2.353   7.091  11.678
88564SOL    HW167589   2.407   7.168  11.662
88564SOL    HW267590   2.416   7.022  11.698
88565SOL     OW67591  12.963   3.903   9.903
88565SOL    HW167592  13.038   3.885   9.847
88565SOL    HW267593  12.897   3.838   9.877
88566SOL     OW67594  14.010   4.039   9.755
88566SOL    HW167595  13.933   4.052   9.700
88566SOL    HW267596  14.084   4.055   9.697
88567SOL     OW67597   7.309   7.929   2.885
88567SOL    HW167598   7.343   8.016   2.863
88567SOL    HW267599   7.365   7.869   2.836
88568SOL     OW67600   0.752   9.301   3.888
88568SOL    HW167601   0.666   9.342   3.900
88568SOL    HW267602   0.815   9.370   3.909
88569SOL     OW67603  13.826   8.171   3.340
88569SOL    HW167604  13.892   8.239   3.348
88569SOL    HW267605  13.859   8.099   3.394
88570SOL     OW67606   3.974   6.891   7.402
88570SOL    HW167607   4.018   6.824   7.455
88570SOL    HW267608   4.044   6.954   7.381
88571SOL     OW67609   5.384  13.258  13.210
88571SOL    HW167610   5.370  13.165  13.223
88571SOL    HW267611   5.389  13.268  13.115
88572SOL     OW67612   8.702   4.877  14.803
88572SOL    HW167613   8.671   4.956  14.847
88572SOL    HW267614   8.754   4.832  14.869
88573SOL     OW67615   0.763   6.874   4.638
88573SOL    HW167616   0.818   6.797   4.624
88573SOL    HW267617   0.818   6.935   4.687
88574SOL     OW67618   3.274   7.303   3.021
88574SOL    HW167619   3.246   7.263   3.103
88574SOL    HW267620   3.200   7.291   2.961
88575SOL     OW67621   8.241   0.983  12.991
88575SOL    HW167622   8.327   1.024  12.997
88575SOL    HW267623   8.250   0.920  12.920
88576SOL     OW67624   2.051   5.390  14.731
88576SOL    HW167625   1.988   5.409  14.662
88576SOL    HW267626   2.001   5.397  14.813
88577SOL     OW67627   0.717   9.554   4.346
88577SOL    HW167628   0.649   9.610   4.383
88577SOL    HW267629   0.669   9.483   4.304
88578SOL     OW67630  11.865   4.143  10.322
88578SOL    HW167631  11.876   4.112  10.412
88578SOL    HW267632  11.951   4.176  10.297
88579SOL     OW67633  12.758   1.457   3.131
88579SOL    HW167634  12.845   1.488   3.156
88579SOL    HW267635  12.745   1.377   3.181
88580SOL     OW67636  14.828   8.988  14.758
88580SOL    HW167637  14.743   8.949  14.776
88580SOL    HW267638   0.016   8.924  14.791
88581SOL     OW67639   5.352   6.695   1.541
88581SOL    HW167640   5.270   6.688   1.590
88581SOL    HW267641   5.344   6.629   1.472
88582SOL     OW67642   8.459   1.527   0.107
88582SOL    HW167643   8.444   1.467   0.180
88582SOL    HW267644   8.553   1.523   0.091
88583SOL     OW67645  13.333   6.780  10.729
88583SOL    HW167646  13.413   6.760  10.680
88583SOL    HW267647  13.265   6.786  10.662
88584SOL     OW67648   6.807  13.623   9.734
88584SOL    HW167649   6.875  13.588   9.676
88584SOL    HW267650   6.740  13.657   9.675
88585SOL     OW67651  10.416   7.133  13.243
88585SOL    HW167652  10.427   7.222  13.208
88585SOL    HW267653  10.466   7.078  13.182
88586SOL     OW67654   1.575   2.511   7.932
88586SOL    HW167655   1.665   2.479   7.929
88586SOL    HW267656   1.583   2.603   7.959
88587SOL     OW67657   7.825   2.570   8.295
88587SOL    HW167658   7.817   2.664   8.278
88587SOL    HW267659   7.737   2.536   8.286
88588SOL     OW67660   7.199  10.733   7.692
88588SOL    HW167661   7.119  10.783   7.708
88588SOL    HW267662   7.189  10.653   7.744
88589SOL     OW67663  13.072   0.502   7.184
88589SOL    HW167664  13.147   0.445   7.168
88589SOL    HW267665  13.005   0.473   7.123
88590SOL     OW67666   0.865   0.880   6.476
88590SOL    HW167667   0.931   0.928   6.426
88590SOL    HW267668   0.881   0.905   6.567
88591SOL     OW67669   4.139   4.117   4.711
88591SOL    HW167670   4.087   4.134   4.789
88591SOL    HW267671   4.151   4.022   4.710
88592SOL     OW67672  13.182   2.692  14.446
88592SOL    HW167673  13.172   2.721  14.355
88592SOL    HW267674  13.103   2.642  14.465
88593SOL     OW67675   5.835   2.823   2.939
88593SOL    HW167676   5.793   2.741   2.914
88593SOL    HW267677   5.925   2.815   2.909
88594SOL     OW67678  11.312   5.921   8.382
88594SOL    HW167679  11.359   5.841   8.358
88594SOL    HW267680  11.314   5.974   8.302
88595SOL     OW67681  13.666   9.187  10.305
88595SOL    HW167682  13.585   9.186  10.253
88595SOL    HW267683  13.736   9.178  10.240
88596SOL     OW67684  11.353  11.306  10.109
88596SOL    HW167685  11.291  11.271  10.173
88596SOL    HW267686  11.435  11.318  10.159
88597SOL     OW67687  13.609  14.096   3.054
88597SOL    HW167688  13.628  14.185   3.026
88597SOL    HW267689  13.527  14.103   3.103
88598SOL     OW67690   0.350  13.266  14.246
88598SOL    HW167691   0.329  13.180  14.283
88598SOL    HW267692   0.433  13.253  14.199
88599SOL     OW67693  13.637  11.288   8.213
88599SOL    HW167694  13.606  11.249   8.294
88599SOL    HW267695  13.557  11.315   8.167
88600SOL     OW67696  10.515   4.742  13.697
88600SOL    HW167697  10.589   4.773  13.749
88600SOL    HW267698  10.485   4.819  13.649
88601SOL     OW67699  11.401  11.723  10.975
88601SOL    HW167700  11.377  11.656  10.911
88601SOL    HW267701  11.332  11.718  11.042
88602SOL     OW67702   5.833   3.821  12.589
88602SOL    HW167703   5.778   3.868  12.527
88602SOL    HW267704   5.834   3.731  12.557
88603SOL     OW67705   5.418   0.190  14.203
88603SOL    HW167706   5.423   0.181  14.298
88603SOL    HW267707   5.481   0.259  14.182
88604SOL     OW67708  14.647   6.336  13.271
88604SOL    HW167709  14.728   6.358  13.317
88604SOL    HW267710  14.596   6.418  13.273
88605SOL     OW67711   3.063   8.548   7.506
88605SOL    HW167712   3.099   8.540   7.594
88605SOL    HW267713   3.114   8.486   7.453
88606SOL     OW67714   0.468  12.588   9.019
88606SOL    HW167715   0.496  12.645   9.091
88606SOL    HW267716   0.462  12.501   9.059
88607SOL     OW67717  13.129   5.465   7.440
88607SOL    HW167718  13.110   5.549   7.481
88607SOL    HW267719  13.224   5.468   7.425
88608SOL     OW67720   1.486   7.878  11.608
88608SOL    HW167721   1.419   7.812  11.588
88608SOL    HW267722   1.495   7.928  11.527
88609SOL     OW67723   2.195   0.690   0.916
88609SOL    HW167724   2.244   0.771   0.931
88609SOL    HW267725   2.157   0.701   0.829
88610SOL     OW67726  13.922   9.525   5.718
88610SOL    HW167727  13.849   9.499   5.661
88610SOL    HW267728  13.915   9.468   5.794
88611SOL     OW67729   3.073  11.970  14.432
88611SOL    HW167730   3.148  11.922  14.396
88611SOL    HW267731   3.064  11.937  14.521
88612SOL     OW67732   7.252   4.683  13.324
88612SOL    HW167733   7.176   4.699  13.381
88612SOL    HW267734   7.228   4.721  13.240
88613SOL     OW67735   9.820   7.751   9.600
88613SOL    HW167736   9.906   7.710   9.609
88613SOL    HW267737   9.789   7.763   9.690
88614SOL     OW67738   4.033   5.279  14.311
88614SOL    HW167739   4.096   5.211  14.289
88614SOL    HW267740   3.990   5.300  14.228
88615SOL     OW67741  14.163   2.137  10.985
88615SOL    HW167742  14.257   2.120  10.997
88615SOL    HW267743  14.151   2.139  10.890
88616SOL     OW67744   1.016  13.266   7.661
88616SOL    HW167745   0.922  13.268   7.678
88616SOL    HW267746   1.030  13.188   7.608
88617SOL     OW67747   3.895   5.416   4.877
88617SOL    HW167748   3.842   5.381   4.805
88617SOL    HW267749   3.964   5.466   4.835
88618SOL     OW67750   7.337   3.626   8.623
88618SOL    HW167751   7.348   3.531   8.619
88618SOL    HW267752   7.387   3.659   8.548
88619SOL     OW67753   1.721  12.230   0.012
88619SOL    HW167754   1.739  12.229  14.794
88619SOL    HW267755   1.746  12.142   0.042
88620SOL     OW67756  14.322  12.232   0.590
88620SOL    HW167757  14.325  12.158   0.651
88620SOL    HW267758  14.358  12.197   0.509
88621SOL     OW67759   4.006  10.853   1.891
88621SOL    HW167760   3.925  10.806   1.874
88621SOL    HW267761   4.018  10.909   1.815
88622SOL     OW67762   3.461  13.421   3.183
88622SOL    HW167763   3.395  13.354   3.162
88622SOL    HW267764   3.528  13.412   3.116
88623SOL     OW67765   1.071   0.934   1.183
88623SOL    HW167766   1.064   0.839   1.178
88623SOL    HW267767   1.105   0.952   1.270
88624SOL     OW67768  10.300   9.370   2.401
88624SOL    HW167769  10.369   9.382   2.335
88624SOL    HW267770  10.327   9.427   2.473
88625SOL     OW67771   3.645   7.646   0.160
88625SOL    HW167772   3.716   7.592   0.126
88625SOL    HW267773   3.610   7.597   0.234
88626SOL     OW67774  10.371   6.349   8.502
88626SOL    HW167775  10.294   6.321   8.552
88626SOL    HW267776  10.370   6.293   8.424
88627SOL     OW67777  12.611   4.598   0.700
88627SOL    HW167778  12.561   4.576   0.621
88627SOL    HW267779  12.634   4.690   0.688
88628SOL     OW67780  10.978   3.810  14.631
88628SOL    HW167781  10.969   3.727  14.583
88628SOL    HW267782  10.924   3.872  14.581
88629SOL     OW67783  11.985  10.625   5.873
88629SOL    HW167784  11.928  10.612   5.949
88629SOL    HW267785  11.926  10.655   5.804
88630SOL     OW67786   2.897   3.819   1.027
88630SOL    HW167787   2.978   3.782   1.062
88630SOL    HW267788   2.926   3.879   0.958
88631SOL     OW67789  12.673   5.894  11.950
88631SOL    HW167790  12.646   5.903  11.859
88631SOL    HW267791  12.592   5.880  11.999
88632SOL     OW67792   4.797  11.340   5.651
88632SOL    HW167793   4.807  11.314   5.560
88632SOL    HW267794   4.705  11.321   5.672
88633SOL     OW67795   0.337   3.309  14.088
88633SOL    HW167796   0.336   3.312  14.184
88633SOL    HW267797   0.248   3.335  14.063
88634SOL     OW67798   8.306   6.847   3.886
88634SOL    HW167799   8.347   6.841   3.972
88634SOL    HW267800   8.295   6.941   3.871
88635SOL     OW67801   4.684   0.987  12.196
88635SOL    HW167802   4.611   1.005  12.137
88635SOL    HW267803   4.762   1.000  12.143
88636SOL     OW67804   4.604   2.935  11.978
88636SOL    HW167805   4.669   2.865  11.973
88636SOL    HW267806   4.597   2.955  12.071
88637SOL     OW67807  13.159  13.047   9.731
88637SOL    HW167808  13.182  12.956   9.749
88637SOL    HW267809  13.063  13.048   9.730
88638SOL     OW67810   0.419   9.289   0.927
88638SOL    HW167811   0.415   9.312   0.834
88638SOL    HW267812   0.444   9.196   0.927
88639SOL     OW67813   0.479   7.949   8.208
88639SOL    HW167814   0.410   7.910   8.262
88639SOL    HW267815   0.558   7.901   8.232
88640SOL     OW67816   5.679  11.159   3.424
88640SOL    HW167817   5.600  11.181   3.375
88640SOL    HW267818   5.672  11.209   3.505
88641SOL     OW67819   2.851  11.915   5.001
88641SOL    HW167820   2.918  11.862   4.959
88641SOL    HW267821   2.897  11.992   5.034
88642SOL     OW67822   6.766   7.893  13.063
88642SOL    HW167823   6.842   7.922  13.115
88642SOL    HW267824   6.767   7.950  12.986
88643SOL     OW67825   4.495  11.125  14.174
88643SOL    HW167826   4.515  11.051  14.116
88643SOL    HW267827   4.416  11.099  14.220
88644SOL     OW67828   3.111  11.683   8.709
88644SOL    HW167829   3.071  11.751   8.655
88644SOL    HW267830   3.191  11.659   8.663
88645SOL     OW67831   6.302   6.130  11.388
88645SOL    HW167832   6.269   6.062  11.447
88645SOL    HW267833   6.316   6.084  11.305
88646SOL     OW67834  12.591  11.215  13.247
88646SOL    HW167835  12.525  11.284  13.247
88646SOL    HW267836  12.549  11.141  13.202
88647SOL     OW67837  11.926   9.342   4.484
88647SOL    HW167838  11.971   9.259   4.502
88647SOL    HW267839  11.931   9.390   4.567
88648SOL     OW67840   3.058  11.172   4.881
88648SOL    HW167841   3.052  11.268   4.887
88648SOL    HW267842   3.107  11.146   4.959
88649SOL     OW67843  11.547   3.558  12.918
88649SOL    HW167844  11.620   3.583  12.861
88649SOL    HW267845  11.470   3.599  12.879
88650SOL     OW67846   7.863   0.159   7.528
88650SOL    HW167847   7.898   0.232   7.578
88650SOL    HW267848   7.779   0.191   7.494
88651SOL     OW67849   6.900   2.250   7.456
88651SOL    HW167850   6.933   2.162   7.477
88651SOL    HW267851   6.956   2.280   7.385
88652SOL     OW67852   6.069  10.899   9.626
88652SOL    HW167853   6.010  10.891   9.552
88652SOL    HW267854   6.157  10.888   9.589
88653SOL     OW67855   4.474  12.845   6.632
88653SOL    HW167856   4.531  12.915   6.603
88653SOL    HW267857   4.532  12.782   6.673
88654SOL     OW67858  12.720   2.097  14.788
88654SOL    HW167859  12.762   2.047  14.717
88654SOL    HW267860  12.748   2.052  14.868
88655SOL     OW67861   8.845  13.913   6.388
88655SOL    HW167862   8.916  13.859   6.424
88655SOL    HW267863   8.856  13.998   6.430
88656SOL     OW67864  11.865   5.480   3.524
88656SOL    HW167865  11.919   5.431   3.461
88656SOL    HW267866  11.868   5.570   3.493
88657SOL     OW67867   1.829   0.528   7.540
88657SOL    HW167868   1.773   0.452   7.523
88657SOL    HW267869   1.834   0.533   7.635
88658SOL     OW67870   7.492   1.185   2.364
88658SOL    HW167871   7.566   1.199   2.424
88658SOL    HW267872   7.517   1.110   2.311
88659SOL     OW67873   1.615  14.044   4.998
88659SOL    HW167874   1.549  14.063   4.932
88659SOL    HW267875   1.697  14.076   4.961
88660SOL     OW67876  10.809   0.665  11.763
88660SOL    HW167877  10.762   0.720  11.700
88660SOL    HW267878  10.901   0.687  11.751
88661SOL     OW67879   0.831  13.798  13.872
88661SOL    HW167880   0.850  13.841  13.955
88661SOL    HW267881   0.843  13.704  13.890
88662SOL     OW67882  11.736   7.856   9.742
88662SOL    HW167883  11.695   7.794   9.803
88662SOL    HW267884  11.825   7.823   9.732
88663SOL     OW67885  11.525   1.195   5.323
88663SOL    HW167886  11.577   1.176   5.245
88663SOL    HW267887  11.586   1.185   5.396
88664SOL     OW67888   8.918   8.708   7.320
88664SOL    HW167889   8.952   8.672   7.238
88664SOL    HW267890   8.931   8.638   7.384
88665SOL     OW67891   6.492   4.287   5.829
88665SOL    HW167892   6.459   4.320   5.745
88665SOL    HW267893   6.472   4.194   5.828
88666SOL     OW67894   7.354  10.513   2.108
88666SOL    HW167895   7.286  10.580   2.100
88666SOL    HW267896   7.420  10.538   2.043
88667SOL     OW67897   0.394   2.545  11.534
88667SOL    HW167898   0.383   2.461  11.491
88667SOL    HW267899   0.450   2.596  11.475
88668SOL     OW67900   1.635  14.255  10.005
88668SOL    HW167901   1.607  14.347   9.995
88668SOL    HW267902   1.729  14.261  10.020
88669SOL     OW67903  13.500   2.752  10.424
88669SOL    HW167904  13.552   2.753  10.344
88669SOL    HW267905  13.561   2.729  10.493
88670SOL     OW67906  14.782   7.297   3.370
88670SOL    HW167907  14.859   7.320   3.422
88670SOL    HW267908  14.707   7.325   3.424
88671SOL     OW67909   7.262  14.204   8.608
88671SOL    HW167910   7.237  14.219   8.699
88671SOL    HW267911   7.181  14.214   8.558
88672SOL     OW67912   6.379   3.086   3.439
88672SOL    HW167913   6.293   3.126   3.425
88672SOL    HW267914   6.441   3.159   3.433
88673SOL     OW67915   0.504  10.330   8.165
88673SOL    HW167916   0.471  10.389   8.097
88673SOL    HW267917   0.583  10.292   8.128
88674SOL     OW67918  10.102   3.472  13.568
88674SOL    HW167919  10.086   3.491  13.475
88674SOL    HW267920  10.115   3.377  13.571
88675SOL     OW67921  12.255   8.591   1.689
88675SOL    HW167922  12.177   8.547   1.721
88675SOL    HW267923  12.288   8.534   1.620
88676SOL     OW67924   2.462   3.297   9.732
88676SOL    HW167925   2.472   3.269   9.640
88676SOL    HW267926   2.446   3.391   9.727
88677SOL     OW67927  12.841  13.452   1.189
88677SOL    HW167928  12.920  13.502   1.207
88677SOL    HW267929  12.846  13.377   1.247
88678SOL     OW67930  12.401  13.599   1.014
88678SOL    HW167931  12.427  13.690   1.030
88678SOL    HW267932  12.484  13.553   1.001
88679SOL     OW67933   8.403   3.248  11.393
88679SOL    HW167934   8.397   3.291  11.478
88679SOL    HW267935   8.465   3.177  11.405
88680SOL     OW67936   6.629   8.426   3.961
88680SOL    HW167937   6.717   8.390   3.972
88680SOL    HW267938   6.644   8.519   3.942
88681SOL     OW67939   1.788   9.232   2.814
88681SOL    HW167940   1.875   9.203   2.839
88681SOL    HW267941   1.797   9.325   2.795
88682SOL     OW67942  12.136   1.918   5.808
88682SOL    HW167943  12.152   1.913   5.902
88682SOL    HW267944  12.157   1.830   5.776
88683SOL     OW67945   9.955   2.022   6.548
88683SOL    HW167946  10.003   1.968   6.611
88683SOL    HW267947  10.012   2.096   6.531
88684SOL     OW67948   9.374  13.831  14.677
88684SOL    HW167949   9.377  13.808  14.770
88684SOL    HW267950   9.286  13.804  14.649
88685SOL     OW67951  12.282   3.307   1.681
88685SOL    HW167952  12.200   3.295   1.729
88685SOL    HW267953  12.261   3.286   1.590
88686SOL     OW67954  12.000   5.992   3.588
88686SOL    HW167955  11.995   6.082   3.557
88686SOL    HW267956  12.060   5.996   3.663
88687SOL     OW67957   5.284   1.247  10.685
88687SOL    HW167958   5.322   1.319  10.635
88687SOL    HW267959   5.360   1.193  10.711
88688SOL     OW67960  11.341   1.420   3.532
88688SOL    HW167961  11.399   1.437   3.458
88688SOL    HW267962  11.400   1.416   3.608
88689SOL     OW67963  12.677   9.774   6.430
88689SOL    HW167964  12.756   9.819   6.400
88689SOL    HW267965  12.605   9.832   6.404
88690SOL     OW67966  11.761   7.387   3.527
88690SOL    HW167967  11.707   7.461   3.555
88690SOL    HW267968  11.723   7.360   3.444
88691SOL     OW67969   3.726   7.661   7.032
88691SOL    HW167970   3.735   7.589   6.970
88691SOL    HW267971   3.807   7.659   7.084
88692SOL     OW67972   8.969   1.802   5.588
88692SOL    HW167973   8.974   1.891   5.623
88692SOL    HW267974   8.924   1.751   5.657
88693SOL     OW67975   9.652   9.239   3.837
88693SOL    HW167976   9.679   9.155   3.872
88693SOL    HW267977   9.714   9.302   3.874
88694SOL     OW67978   8.932  10.578  10.112
88694SOL    HW167979   8.949  10.665  10.078
88694SOL    HW267980   8.949  10.519  10.038
88695SOL     OW67981  10.570   9.973   0.954
88695SOL    HW167982  10.527   9.893   0.984
88695SOL    HW267983  10.629   9.997   1.025
88696SOL     OW67984   2.339   4.887  11.056
88696SOL    HW167985   2.402   4.910  10.989
88696SOL    HW267986   2.392   4.848  11.126
88697SOL     OW67987   1.202   7.085   9.858
88697SOL    HW167988   1.184   7.142   9.784
88697SOL    HW267989   1.127   7.025   9.861
88698SOL     OW67990   2.486   1.403  10.721
88698SOL    HW167991   2.580   1.385  10.711
88698SOL    HW267992   2.444   1.319  10.701
88699SOL     OW67993   9.860  13.141  14.081
88699SOL    HW167994   9.935  13.089  14.053
88699SOL    HW267995   9.873  13.226  14.039
88700SOL     OW67996   0.350   3.465   8.022
88700SOL    HW167997   0.417   3.531   8.038
88700SOL    HW267998   0.307   3.453   8.107
88701SOL     OW67999   4.588  11.837   9.223
88701SOL    HW168000   4.662  11.846   9.162
88701SOL    HW268001   4.600  11.908   9.286
88702SOL     OW68002   7.023   7.990   2.270
88702SOL    HW168003   6.999   7.901   2.245
88702SOL    HW268004   6.962   8.046   2.222
88703SOL     OW68005   8.003  12.487  14.687
88703SOL    HW168006   8.007  12.471  14.592
88703SOL    HW268007   8.015  12.582  14.695
88704SOL     OW68008   9.705   6.259   1.129
88704SOL    HW168009   9.685   6.306   1.209
88704SOL    HW268010   9.749   6.179   1.158
88705SOL     OW68011   3.155   5.710   7.277
88705SOL    HW168012   3.059   5.712   7.279
88705SOL    HW268013   3.180   5.650   7.347
88706SOL     OW68014   8.500  14.527   3.848
88706SOL    HW168015   8.541  14.443   3.869
88706SOL    HW268016   8.574  14.587   3.836
88707SOL     OW68017   6.443   7.839  10.255
88707SOL    HW168018   6.499   7.771  10.216
88707SOL    HW268019   6.381   7.861  10.186
88708SOL     OW68020  13.567   0.298   7.988
88708SOL    HW168021  13.511   0.339   8.054
88708SOL    HW268022  13.513   0.296   7.909
88709SOL     OW68023   0.737  14.389   7.377
88709SOL    HW168024   0.685  14.310   7.390
88709SOL    HW268025   0.672  14.459   7.366
88710SOL     OW68026   0.134   1.946   9.278
88710SOL    HW168027   0.076   1.887   9.230
88710SOL    HW268028   0.106   2.034   9.253
88711SOL     OW68029  10.342   9.471   1.043
88711SOL    HW168030  10.363   9.379   1.030
88711SOL    HW268031  10.337   9.481   1.138
88712SOL     OW68032   9.989   2.872  13.910
88712SOL    HW168033   9.982   2.960  13.947
88712SOL    HW268034  10.062   2.877  13.849
88713SOL     OW68035   3.636   2.980  10.929
88713SOL    HW168036   3.601   3.052  10.877
88713SOL    HW268037   3.576   2.908  10.915
88714SOL     OW68038  10.774   9.849   8.575
88714SOL    HW168039  10.866   9.837   8.596
88714SOL    HW268040  10.764   9.814   8.487
88715SOL     OW68041  13.858   0.242   8.743
88715SOL    HW168042  13.923   0.265   8.676
88715SOL    HW268043  13.800   0.179   8.700
88716SOL     OW68044  10.246   1.144  14.864
88716SOL    HW168045  10.298   1.224  14.856
88716SOL    HW268046  10.167   1.171   0.036
88717SOL     OW68047   3.284  12.465   3.085
88717SOL    HW168048   3.317  12.429   3.003
88717SOL    HW268049   3.311  12.402   3.152
88718SOL     OW68050   5.256   1.493   7.568
88718SOL    HW168051   5.351   1.486   7.577
88718SOL    HW268052   5.242   1.581   7.533
88719SOL     OW68053   0.136   5.678   7.371
88719SOL    HW168054   0.183   5.660   7.453
88719SOL    HW268055   0.158   5.769   7.351
88720SOL     OW68056   7.357  11.934   4.331
88720SOL    HW168057   7.435  11.960   4.281
88720SOL    HW268058   7.383  11.946   4.423
88721SOL     OW68059  10.891   0.722   3.147
88721SOL    HW168060  10.819   0.773   3.185
88721SOL    HW268061  10.965   0.736   3.205
88722SOL     OW68062   2.671   7.016  13.656
88722SOL    HW168063   2.591   7.058  13.626
88722SOL    HW268064   2.718   6.993  13.576
88723SOL     OW68065   9.221   9.129   2.814
88723SOL    HW168066   9.227   9.195   2.745
88723SOL    HW268067   9.312   9.109   2.836
88724SOL     OW68068   1.619   7.699  11.977
88724SOL    HW168069   1.635   7.631  11.912
88724SOL    HW268070   1.628   7.781  11.930
88725SOL     OW68071  11.856   3.110  13.252
88725SOL    HW168072  11.896   3.141  13.170
88725SOL    HW268073  11.921   3.131  13.319
88726SOL     OW68074   1.368   1.864   3.000
88726SOL    HW168075   1.394   1.773   3.013
88726SOL    HW268076   1.415   1.912   3.068
88727SOL     OW68077  10.454   6.848   2.120
88727SOL    HW168078  10.530   6.904   2.109
88727SOL    HW268079  10.490   6.759   2.126
88728SOL     OW68080   7.410   8.332   6.062
88728SOL    HW168081   7.405   8.386   6.142
88728SOL    HW268082   7.399   8.395   5.991
88729SOL     OW68083  12.606   5.919   3.467
88729SOL    HW168084  12.542   5.937   3.398
88729SOL    HW268085  12.554   5.881   3.539
88730SOL     OW68086   3.126   8.851  11.960
88730SOL    HW168087   3.084   8.883  11.880
88730SOL    HW268088   3.101   8.759  11.965
88731SOL     OW68089   4.099   3.189  13.086
88731SOL    HW168090   4.010   3.167  13.059
88731SOL    HW268091   4.138   3.228  13.007
88732SOL     OW68092  11.611   2.998  12.414
88732SOL    HW168093  11.632   2.914  12.455
88732SOL    HW268094  11.593   2.977  12.322
88733SOL     OW68095  10.507   0.593   9.524
88733SOL    HW168096  10.421   0.596   9.482
88733SOL    HW268097  10.491   0.551   9.608
88734SOL     OW68098   3.886  14.061   3.601
88734SOL    HW168099   3.913  14.153   3.597
88734SOL    HW268100   3.802  14.059   3.556
88735SOL     OW68101  12.569   3.217  13.450
88735SOL    HW168102  12.642   3.235  13.509
88735SOL    HW268103  12.606   3.160  13.382
88736SOL     OW68104  11.422  12.621   9.247
88736SOL    HW168105  11.448  12.681   9.177
88736SOL    HW268106  11.503  12.607   9.298
88737SOL     OW68107   9.652   7.064   4.099
88737SOL    HW168108   9.562   7.043   4.077
88737SOL    HW268109   9.653   7.068   4.195
88738SOL     OW68110  13.053  14.706   2.262
88738SOL    HW168111  13.052  14.617   2.228
88738SOL    HW268112  13.042  14.762   2.185
88739SOL     OW68113   0.006  12.125   7.469
88739SOL    HW168114   0.052  12.206   7.445
88739SOL    HW268115   0.032  12.108   7.559
88740SOL     OW68116  14.494  11.085   4.033
88740SOL    HW168117  14.519  11.170   4.069
88740SOL    HW268118  14.577  11.042   4.013
88741SOL     OW68119   2.251  13.901   1.617
88741SOL    HW168120   2.272  13.961   1.546
88741SOL    HW268121   2.322  13.912   1.680
88742SOL     OW68122  11.029   7.107   5.783
88742SOL    HW168123  10.961   7.075   5.843
88742SOL    HW268124  11.086   7.159   5.839
88743SOL     OW68125  10.585   4.027   4.438
88743SOL    HW168126  10.537   4.099   4.478
88743SOL    HW268127  10.525   3.991   4.373
88744SOL     OW68128   5.525   5.615   3.943
88744SOL    HW168129   5.552   5.586   4.030
88744SOL    HW268130   5.474   5.694   3.960
88745SOL     OW68131   0.204   3.618  12.100
88745SOL    HW168132   0.236   3.527  12.100
88745SOL    HW268133   0.192   3.638  12.008
88746SOL     OW68134  11.609  11.942   4.085
88746SOL    HW168135  11.548  11.987   4.026
88746SOL    HW268136  11.684  11.921   4.030
88747SOL     OW68137   3.881   4.729   8.770
88747SOL    HW168138   3.967   4.754   8.735
88747SOL    HW268139   3.870   4.637   8.743
88748SOL     OW68140  10.780   5.629  13.897
88748SOL    HW168141  10.795   5.548  13.848
88748SOL    HW268142  10.686   5.630  13.913
88749SOL     OW68143   7.700   5.213   4.784
88749SOL    HW168144   7.682   5.122   4.764
88749SOL    HW268145   7.788   5.229   4.749
88750SOL     OW68146   1.167  14.319   2.272
88750SOL    HW168147   1.242  14.334   2.329
88750SOL    HW268148   1.100  14.281   2.328
88751SOL     OW68149  14.602   2.857  11.708
88751SOL    HW168150  14.663   2.815  11.647
88751SOL    HW268151  14.515   2.837  11.673
88752SOL     OW68152   6.562   1.070  11.283
88752SOL    HW168153   6.600   1.073  11.371
88752SOL    HW268154   6.608   1.139  11.235
88753SOL     OW68155   1.415   8.478  10.505
88753SOL    HW168156   1.451   8.565  10.491
88753SOL    HW268157   1.322   8.487  10.484
88754SOL     OW68158   5.423   1.660   1.057
88754SOL    HW168159   5.354   1.708   1.011
88754SOL    HW268160   5.505   1.700   1.026
88755SOL     OW68161   7.542   7.576  10.220
88755SOL    HW168162   7.474   7.535  10.167
88755SOL    HW268163   7.579   7.644  10.164
88756SOL     OW68164  12.159  10.501   9.141
88756SOL    HW168165  12.177  10.588   9.106
88756SOL    HW268166  12.119  10.516   9.226
88757SOL     OW68167  13.226  14.479  14.064
88757SOL    HW168168  13.166  14.437  14.124
88757SOL    HW268169  13.195  14.569  14.057
88758SOL     OW68170  13.162   8.471  14.864
88758SOL    HW168171  13.192   8.384  14.837
88758SOL    HW268172  13.241   8.514   0.022
88759SOL     OW68173   3.217   8.197  12.932
88759SOL    HW168174   3.227   8.102  12.940
88759SOL    HW268175   3.293   8.233  12.979
88760SOL     OW68176   3.933   7.319  11.882
88760SOL    HW168177   3.914   7.334  11.790
88760SOL    HW268178   3.851   7.283  11.918
88761SOL     OW68179   3.231   4.927   4.873
88761SOL    HW168180   3.202   4.994   4.935
88761SOL    HW268181   3.233   4.972   4.788
88762SOL     OW68182   5.891  13.178  14.818
88762SOL    HW168183   5.806  13.222  14.826
88762SOL    HW268184   5.908  13.177  14.724
88763SOL     OW68185   8.801  14.712   0.544
88763SOL    HW168186   8.871  14.648   0.560
88763SOL    HW268187   8.773  14.739   0.631
88764SOL     OW68188   8.305  10.530   3.754
88764SOL    HW168189   8.284  10.444   3.718
88764SOL    HW268190   8.382  10.514   3.809
88765SOL     OW68191   4.570   4.075   4.641
88765SOL    HW168192   4.564   4.111   4.552
88765SOL    HW268193   4.513   3.999   4.639
88766SOL     OW68194  10.501  14.398  11.202
88766SOL    HW168195  10.475  14.465  11.265
88766SOL    HW268196  10.591  14.420  11.179
88767SOL     OW68197   3.085  14.167   1.044
88767SOL    HW168198   3.164  14.159   0.990
88767SOL    HW268199   3.105  14.116   1.122
88768SOL     OW68200   1.771   4.400   5.710
88768SOL    HW168201   1.708   4.393   5.782
88768SOL    HW268202   1.749   4.327   5.652
88769SOL     OW68203   2.944   2.200   2.942
88769SOL    HW168204   2.874   2.255   2.907
88769SOL    HW268205   2.898   2.129   2.987
88770SOL     OW68206   1.401  11.729   4.153
88770SOL    HW168207   1.426  11.754   4.064
88770SOL    HW268208   1.309  11.757   4.160
88771SOL     OW68209   5.287   3.906   1.031
88771SOL    HW168210   5.311   3.930   1.121
88771SOL    HW268211   5.309   3.813   1.024
88772SOL     OW68212   5.707   6.350  12.168
88772SOL    HW168213   5.637   6.344  12.232
88772SOL    HW268214   5.779   6.299  12.205
88773SOL     OW68215   4.859  12.864  14.326
88773SOL    HW168216   4.953  12.865  14.339
88773SOL    HW268217   4.832  12.955  14.339
88774SOL     OW68218   6.453   6.614   9.918
88774SOL    HW168219   6.396   6.648   9.848
88774SOL    HW268220   6.537   6.600   9.875
88775SOL     OW68221   6.965   4.619   5.436
88775SOL    HW168222   7.020   4.626   5.358
88775SOL    HW268223   7.027   4.626   5.509
88776SOL     OW68224   4.922  11.285  12.926
88776SOL    HW168225   4.883  11.372  12.933
88776SOL    HW268226   5.012  11.297  12.958
88777SOL     OW68227  10.648   2.348   9.014
88777SOL    HW168228  10.640   2.293   9.092
88777SOL    HW268229  10.686   2.290   8.947
88778SOL     OW68230   2.011  10.148  14.173
88778SOL    HW168231   2.037  10.057  14.156
88778SOL    HW268232   1.995  10.185  14.086
88779SOL     OW68233   3.320  14.629   1.374
88779SOL    HW168234   3.266  14.707   1.361
88779SOL    HW268235   3.260  14.564   1.410
88780SOL     OW68236   1.006  10.625   2.019
88780SOL    HW168237   1.102  10.622   2.018
88780SOL    HW268238   0.980  10.588   1.935
88781SOL     OW68239   9.327   1.172   1.175
88781SOL    HW168240   9.359   1.246   1.226
88781SOL    HW268241   9.231   1.178   1.181
88782SOL     OW68242   8.681  10.106   6.608
88782SOL    HW168243   8.667  10.087   6.516
88782SOL    HW268244   8.734  10.185   6.610
88783SOL     OW68245   3.856   8.024  12.758
88783SOL    HW168246   3.925   8.057  12.815
88783SOL    HW268247   3.827   7.943  12.800
88784SOL     OW68248   2.324   6.751  12.165
88784SOL    HW168249   2.374   6.719  12.239
88784SOL    HW268250   2.379   6.817  12.124
88785SOL     OW68251   3.461   2.394   1.049
88785SOL    HW168252   3.458   2.490   1.049
88785SOL    HW268253   3.529   2.372   0.986
88786SOL     OW68254  12.500   7.810   3.111
88786SOL    HW168255  12.509   7.897   3.072
88786SOL    HW268256  12.590   7.777   3.118
88787SOL     OW68257   4.194   4.541   8.872
88787SOL    HW168258   4.230   4.627   8.894
88787SOL    HW268259   4.270   4.482   8.873
88788SOL     OW68260   7.880  12.054   7.425
88788SOL    HW168261   7.785  12.056   7.433
88788SOL    HW268262   7.903  12.141   7.392
88789SOL     OW68263   9.537   2.015  10.235
88789SOL    HW168264   9.568   1.925  10.226
88789SOL    HW268265   9.508   2.022  10.327
88790SOL     OW68266  13.659   4.267  14.322
88790SOL    HW168267  13.568   4.236  14.315
88790SOL    HW268268  13.677   4.266  14.416
88791SOL     OW68269  11.155   1.781   6.143
88791SOL    HW168270  11.108   1.745   6.068
88791SOL    HW268271  11.129   1.873   6.146
88792SOL     OW68272   4.432   5.017   5.191
88792SOL    HW168273   4.399   4.993   5.278
88792SOL    HW268274   4.420   4.937   5.139
88793SOL     OW68275   1.052  12.640   7.475
88793SOL    HW168276   1.135  12.593   7.461
88793SOL    HW268277   1.041  12.692   7.396
88794SOL     OW68278  12.168  10.061  12.129
88794SOL    HW168279  12.138  10.023  12.047
88794SOL    HW268280  12.139  10.000  12.196
88795SOL     OW68281  12.375  14.770   2.108
88795SOL    HW168282  12.388  14.835   2.177
88795SOL    HW268283  12.285  14.740   2.120
88796SOL     OW68284  14.082  11.738   0.587
88796SOL    HW168285  14.019  11.696   0.528
88796SOL    HW268286  14.031  11.761   0.665
88797SOL     OW68287  12.703   0.215  10.848
88797SOL    HW168288  12.754   0.140  10.819
88797SOL    HW268289  12.720   0.283  10.783
88798SOL     OW68290   6.476   8.797   6.614
88798SOL    HW168291   6.504   8.709   6.586
88798SOL    HW268292   6.515   8.856   6.549
88799SOL     OW68293  14.656   1.383   7.428
88799SOL    HW168294  14.589   1.403   7.363
88799SOL    HW268295  14.672   1.289   7.419
88800SOL     OW68296   7.020  14.333   8.535
88800SOL    HW168297   6.990  14.422   8.518
88800SOL    HW268298   7.035  14.296   8.448
88801SOL     OW68299   7.583  12.091   4.685
88801SOL    HW168300   7.597  12.066   4.777
88801SOL    HW268301   7.514  12.158   4.689
88802SOL     OW68302   5.412   1.563   1.600
88802SOL    HW168303   5.503   1.579   1.572
88802SOL    HW268304   5.398   1.470   1.582
88803SOL     OW68305   0.659   4.272   1.419
88803SOL    HW168306   0.570   4.242   1.397
88803SOL    HW268307   0.681   4.225   1.499
88804SOL     OW68308   6.491   2.864   2.060
88804SOL    HW168309   6.563   2.850   2.122
88804SOL    HW268310   6.534   2.902   1.983
88805SOL     OW68311   1.038   0.134   6.474
88805SOL    HW168312   0.987   0.215   6.479
88805SOL    HW268313   0.978   0.069   6.439
88806SOL     OW68314   0.663   6.198   9.194
88806SOL    HW168315   0.741   6.192   9.139
88806SOL    HW268316   0.695   6.187   9.283
88807SOL     OW68317  12.533  13.651   2.299
88807SOL    HW168318  12.546  13.669   2.206
88807SOL    HW268319  12.622  13.653   2.336
88808SOL     OW68320   7.828   7.222   0.889
88808SOL    HW168321   7.828   7.126   0.885
88808SOL    HW268322   7.900   7.249   0.831
88809SOL     OW68323   9.535  12.348   2.966
88809SOL    HW168324   9.614  12.400   2.952
88809SOL    HW268325   9.558  12.260   2.934
88810SOL     OW68326   6.449   0.772   7.082
88810SOL    HW168327   6.376   0.719   7.051
88810SOL    HW268328   6.511   0.772   7.009
88811SOL     OW68329   0.178   1.731   4.572
88811SOL    HW168330   0.251   1.763   4.518
88811SOL    HW268331   0.205   1.750   4.662
88812SOL     OW68332   7.303   5.120   8.170
88812SOL    HW168333   7.338   5.172   8.098
88812SOL    HW268334   7.246   5.180   8.218
88813SOL     OW68335  12.879   3.065   8.412
88813SOL    HW168336  12.874   3.066   8.316
88813SOL    HW268337  12.831   2.987   8.438
88814SOL     OW68338   1.890  11.258   6.144
88814SOL    HW168339   1.929  11.172   6.159
88814SOL    HW268340   1.823  11.243   6.077
88815SOL     OW68341   9.288   9.521   7.696
88815SOL    HW168342   9.308   9.429   7.715
88815SOL    HW268343   9.264   9.558   7.780
88816SOL     OW68344  10.375   0.274   3.772
88816SOL    HW168345  10.317   0.207   3.735
88816SOL    HW268346  10.368   0.348   3.711
88817SOL     OW68347  12.018   9.192   2.602
88817SOL    HW168348  11.957   9.224   2.536
88817SOL    HW268349  11.967   9.130   2.654
88818SOL     OW68350   0.003   7.973  11.640
88818SOL    HW168351  14.853   7.881  11.628
88818SOL    HW268352   0.098   7.971  11.651
88819SOL     OW68353   9.977   4.996   9.148
88819SOL    HW168354  10.072   5.001   9.162
88819SOL    HW268355   9.955   5.081   9.109
88820SOL     OW68356   7.438  11.073   3.672
88820SOL    HW168357   7.458  11.035   3.586
88820SOL    HW268358   7.374  11.014   3.710
88821SOL     OW68359  10.718  11.436  10.539
88821SOL    HW168360  10.642  11.489  10.514
88821SOL    HW268361  10.793  11.494  10.528
88822SOL     OW68362   9.337   1.231   2.415
88822SOL    HW168363   9.430   1.209   2.423
88822SOL    HW268364   9.292   1.147   2.421
88823SOL     OW68365  12.998   0.829  14.104
88823SOL    HW168366  12.945   0.750  14.114
88823SOL    HW268367  13.006   0.864  14.193
88824SOL     OW68368  12.863   4.127  10.025
88824SOL    HW168369  12.770   4.112  10.010
88824SOL    HW268370  12.908   4.061   9.972
88825SOL     OW68371   7.635   4.908   3.113
88825SOL    HW168372   7.564   4.963   3.147
88825SOL    HW268373   7.604   4.878   3.027
88826SOL     OW68374   1.927   9.460   4.535
88826SOL    HW168375   1.899   9.551   4.551
88826SOL    HW268376   1.855   9.407   4.570
88827SOL     OW68377   2.329   9.527  12.739
88827SOL    HW168378   2.292   9.549  12.654
88827SOL    HW268379   2.264   9.471  12.781
88828SOL     OW68380   3.557  13.197   2.454
88828SOL    HW168381   3.644  13.187   2.417
88828SOL    HW268382   3.498  13.178   2.381
88829SOL     OW68383  13.325   8.228  12.519
88829SOL    HW168384  13.410   8.192  12.544
88829SOL    HW268385  13.265   8.153  12.522
88830SOL     OW68386  14.420   9.094   6.123
88830SOL    HW168387  14.372   9.044   6.056
88830SOL    HW268388  14.352   9.130   6.179
88831SOL     OW68389   8.658   2.308   8.373
88831SOL    HW168390   8.710   2.375   8.328
88831SOL    HW268391   8.656   2.234   8.313
88832SOL     OW68392   2.443   5.685   7.775
88832SOL    HW168393   2.485   5.629   7.709
88832SOL    HW268394   2.455   5.774   7.741
88833SOL     OW68395  11.442   4.670   3.990
88833SOL    HW168396  11.509   4.678   3.922
88833SOL    HW268397  11.370   4.624   3.948
88834SOL     OW68398   4.656  10.370  12.189
88834SOL    HW168399   4.629  10.299  12.248
88834SOL    HW268400   4.616  10.449  12.227
88835SOL     OW68401  10.633   1.503   5.435
88835SOL    HW168402  10.544   1.533   5.413
88835SOL    HW268403  10.619   1.430   5.495
88836SOL     OW68404  14.100  12.264   8.458
88836SOL    HW168405  14.073  12.207   8.385
88836SOL    HW268406  14.120  12.347   8.416
88837SOL     OW68407   9.397   9.208   6.417
88837SOL    HW168408   9.490   9.185   6.419
88837SOL    HW268409   9.371   9.212   6.509
88838SOL     OW68410   0.215   1.132  12.205
88838SOL    HW168411   0.161   1.185  12.146
88838SOL    HW268412   0.152   1.076  12.250
88839SOL     OW68413   5.432  11.375  14.820
88839SOL    HW168414   5.339  11.355  14.824
88839SOL    HW268415   5.460  11.384   0.036
88840SOL     OW68416  14.481   4.346  10.332
88840SOL    HW168417  14.483   4.401  10.410
88840SOL    HW268418  14.546   4.278  10.348
88841SOL     OW68419  11.218  11.815   6.364
88841SOL    HW168420  11.196  11.874   6.436
88841SOL    HW268421  11.256  11.872   6.297
88842SOL     OW68422   4.969   5.924   7.818
88842SOL    HW168423   5.045   5.982   7.809
88842SOL    HW268424   4.995   5.861   7.885
88843SOL     OW68425   0.024   2.137  11.765
88843SOL    HW168426   0.075   2.085  11.827
88843SOL    HW268427  14.808   2.123  11.791
88844SOL     OW68428   4.556   7.786   4.641
88844SOL    HW168429   4.604   7.844   4.582
88844SOL    HW268430   4.578   7.818   4.729
88845SOL     OW68431   6.449   0.346  14.118
88845SOL    HW168432   6.425   0.319  14.030
88845SOL    HW268433   6.383   0.411  14.143
88846SOL     OW68434   3.165   1.876   3.243
88846SOL    HW168435   3.194   1.836   3.325
88846SOL    HW268436   3.162   1.970   3.262
88847SOL     OW68437  13.897   2.876   1.279
88847SOL    HW168438  13.835   2.830   1.222
88847SOL    HW268439  13.983   2.855   1.242
88848SOL     OW68440   2.919   8.498   4.903
88848SOL    HW168441   3.001   8.453   4.925
88848SOL    HW268442   2.851   8.445   4.944
88849SOL     OW68443   6.767  12.411   7.665
88849SOL    HW168444   6.806  12.493   7.636
88849SOL    HW268445   6.727  12.374   7.586
88850SOL     OW68446  12.918   0.359  14.252
88850SOL    HW168447  12.930   0.340  14.159
88850SOL    HW268448  12.957   0.284  14.297
88851SOL     OW68449   3.873   5.162   1.873
88851SOL    HW168450   3.813   5.197   1.808
88851SOL    HW268451   3.818   5.110   1.932
88852SOL     OW68452  14.624   0.060   1.125
88852SOL    HW168453  14.624   0.098   1.037
88852SOL    HW268454  14.531   0.045   1.144
88853SOL     OW68455   3.857  13.695   0.553
88853SOL    HW168456   3.763  13.712   0.566
88853SOL    HW268457   3.897  13.782   0.551
88854SOL     OW68458   0.966   4.074   6.226
88854SOL    HW168459   0.964   3.979   6.216
88854SOL    HW268460   0.895   4.093   6.288
88855SOL     OW68461  12.542  13.349  13.005
88855SOL    HW168462  12.542  13.264  12.961
88855SOL    HW268463  12.635  13.370  13.016
88856SOL     OW68464  12.727   5.607   8.610
88856SOL    HW168465  12.663   5.566   8.552
88856SOL    HW268466  12.784   5.535   8.637
88857SOL     OW68467  10.179   5.988   8.906
88857SOL    HW168468  10.086   5.990   8.926
88857SOL    HW268469  10.186   5.937   8.826
88858SOL     OW68470  10.036   5.686   9.982
88858SOL    HW168471  10.013   5.610  10.036
88858SOL    HW268472  10.084   5.649   9.908
88859SOL     OW68473   4.214   9.906   1.102
88859SOL    HW168474   4.199   9.818   1.135
88859SOL    HW268475   4.131   9.932   1.062
88860SOL     OW68476   9.417   6.904   0.424
88860SOL    HW168477   9.350   6.858   0.374
88860SOL    HW268478   9.419   6.992   0.385
88861SOL     OW68479   6.158  10.940   3.291
88861SOL    HW168480   6.188  10.916   3.203
88861SOL    HW268481   6.075  10.985   3.277
88862SOL     OW68482   9.977  11.095   2.481
88862SOL    HW168483  10.057  11.115   2.529
88862SOL    HW268484   9.967  11.168   2.420
88863SOL     OW68485   3.557   8.881   8.553
88863SOL    HW168486   3.585   8.894   8.462
88863SOL    HW268487   3.574   8.788   8.570
88864SOL     OW68488  13.145   0.248   1.554
88864SOL    HW168489  13.060   0.278   1.587
88864SOL    HW268490  13.206   0.318   1.577
88865SOL     OW68491  12.983   6.412   7.272
88865SOL    HW168492  12.954   6.323   7.250
88865SOL    HW268493  13.078   6.409   7.263
88866SOL     OW68494  11.161   7.827   0.907
88866SOL    HW168495  11.249   7.864   0.912
88866SOL    HW268496  11.142   7.820   0.813
88867SOL     OW68497  11.355   6.331   0.207
88867SOL    HW168498  11.377   6.255   0.154
88867SOL    HW268499  11.276   6.306   0.254
88868SOL     OW68500   1.176   9.632   4.338
88868SOL    HW168501   1.265   9.664   4.323
88868SOL    HW268502   1.123   9.676   4.271
88869SOL     OW68503  10.082  10.900   2.170
88869SOL    HW168504  10.093  10.822   2.225
88869SOL    HW268505  10.170  10.921   2.140
88870SOL     OW68506   0.223  13.538  14.185
88870SOL    HW168507   0.265  13.467  14.233
88870SOL    HW268508   0.292  13.603  14.171
88871SOL     OW68509   4.624   2.058   0.401
88871SOL    HW168510   4.645   2.063   0.494
88871SOL    HW268511   4.534   2.026   0.398
88872SOL     OW68512  11.738   1.751  11.937
88872SOL    HW168513  11.674   1.791  11.996
88872SOL    HW268514  11.750   1.663  11.971
88873SOL     OW68515  10.229   3.336  10.865
88873SOL    HW168516  10.169   3.410  10.876
88873SOL    HW268517  10.239   3.328  10.770
88874SOL     OW68518  10.905  13.165   4.490
88874SOL    HW168519  10.826  13.111   4.495
88874SOL    HW268520  10.899  13.224   4.565
88875SOL     OW68521  14.626   1.102  11.142
88875SOL    HW168522  14.568   1.136  11.210
88875SOL    HW268523  14.596   1.013  11.127
88876SOL     OW68524  10.413  12.134  11.506
88876SOL    HW168525  10.460  12.201  11.456
88876SOL    HW268526  10.398  12.063  11.444
88877SOL     OW68527   0.845   6.467   0.641
88877SOL    HW168528   0.849   6.423   0.726
88877SOL    HW268529   0.877   6.403   0.579
88878SOL     OW68530   4.724   2.497  12.980
88878SOL    HW168531   4.668   2.554  13.032
88878SOL    HW268532   4.686   2.499  12.892
88879SOL     OW68533   4.642   4.911  14.539
88879SOL    HW168534   4.692   4.889  14.618
88879SOL    HW268535   4.552   4.887  14.560
88880SOL     OW68536   6.814   1.277  14.198
88880SOL    HW168537   6.867   1.217  14.147
88880SOL    HW268538   6.830   1.252  14.289
88881SOL     OW68539   6.436  14.244   0.096
88881SOL    HW168540   6.351  14.284   0.079
88881SOL    HW268541   6.451  14.257   0.189
88882SOL     OW68542  14.045   5.064   7.576
88882SOL    HW168543  14.132   5.027   7.561
88882SOL    HW268544  14.060   5.134   7.640
88883SOL     OW68545   3.690  14.112   9.358
88883SOL    HW168546   3.783  14.132   9.355
88883SOL    HW268547   3.653  14.162   9.285
88884SOL     OW68548   4.460   0.782   4.937
88884SOL    HW168549   4.479   0.808   5.027
88884SOL    HW268550   4.377   0.826   4.916
88885SOL     OW68551   5.118  14.720   2.122
88885SOL    HW168552   5.054  14.678   2.180
88885SOL    HW268553   5.106  14.814   2.138
88886SOL     OW68554   6.750  14.717   7.482
88886SOL    HW168555   6.699  14.730   7.403
88886SOL    HW268556   6.841  14.714   7.452
88887SOL     OW68557   0.981   5.546   6.333
88887SOL    HW168558   1.013   5.635   6.314
88887SOL    HW268559   0.886   5.556   6.338
88888SOL     OW68560  12.887   0.343   7.865
88888SOL    HW168561  12.862   0.435   7.853
88888SOL    HW268562  12.825   0.310   7.929
88889SOL     OW68563  14.807  13.847   8.185
88889SOL    HW168564  14.780  13.797   8.263
88889SOL    HW268565  14.859  13.919   8.219
88890SOL     OW68566   2.514  13.181   0.470
88890SOL    HW168567   2.549  13.096   0.498
88890SOL    HW268568   2.441  13.198   0.529
88891SOL     OW68569   2.765  14.259   6.854
88891SOL    HW168570   2.728  14.308   6.781
88891SOL    HW268571   2.690  14.226   6.902
88892SOL     OW68572  11.877  14.270   5.382
88892SOL    HW168573  11.919  14.331   5.444
88892SOL    HW268574  11.787  14.262   5.414
88893SOL     OW68575   3.307   2.299  12.423
88893SOL    HW168576   3.235   2.243  12.451
88893SOL    HW268577   3.334   2.263  12.338
88894SOL     OW68578   5.970   8.789   4.477
88894SOL    HW168579   5.889   8.815   4.520
88894SOL    HW268580   6.031   8.861   4.495
88895SOL     OW68581  13.615   8.756   2.055
88895SOL    HW168582  13.649   8.833   2.010
88895SOL    HW268583  13.677   8.686   2.032
88896SOL     OW68584   4.166   3.501  12.690
88896SOL    HW168585   4.207   3.582  12.659
88896SOL    HW268586   4.191   3.435  12.626
88897SOL     OW68587   2.378   3.553   3.027
88897SOL    HW168588   2.471   3.540   3.010
88897SOL    HW268589   2.334   3.493   2.967
88898SOL     OW68590   1.650   5.676   2.601
88898SOL    HW168591   1.558   5.660   2.582
88898SOL    HW268592   1.677   5.740   2.535
88899SOL     OW68593   6.295  14.579   1.785
88899SOL    HW168594   6.200  14.588   1.774
88899SOL    HW268595   6.306  14.504   1.843
88900SOL     OW68596  14.496   3.840  14.800
88900SOL    HW168597  14.445   3.824  14.721
88900SOL    HW268598  14.584   3.809  14.778
88901SOL     OW68599   6.174   8.292   3.583
88901SOL    HW168600   6.199   8.331   3.666
88901SOL    HW268601   6.101   8.345   3.552
88902SOL     OW68602   8.301   5.235   9.678
88902SOL    HW168603   8.372   5.276   9.728
88902SOL    HW268604   8.321   5.256   9.587
88903SOL     OW68605  13.886   1.801   4.577
88903SOL    HW168606  13.929   1.855   4.511
88903SOL    HW268607  13.923   1.714   4.564
88904SOL     OW68608   0.581  11.044   8.026
88904SOL    HW168609   0.623  11.104   8.089
88904SOL    HW268610   0.560  10.966   8.078
88905SOL     OW68611   4.054   5.902   3.196
88905SOL    HW168612   3.959   5.909   3.204
88905SOL    HW268613   4.086   5.920   3.285
88906SOL     OW68614   7.922   7.232   1.517
88906SOL    HW168615   7.867   7.184   1.579
88906SOL    HW268616   7.892   7.323   1.525
88907SOL     OW68617   1.222  10.453   7.995
88907SOL    HW168618   1.199  10.440   7.903
88907SOL    HW268619   1.138  10.459   8.040
88908SOL     OW68620  12.893   8.752   8.996
88908SOL    HW168621  12.868   8.829   9.047
88908SOL    HW268622  12.872   8.774   8.906
88909SOL     OW68623  11.802  11.258  12.951
88909SOL    HW168624  11.846  11.189  13.001
88909SOL    HW268625  11.789  11.329  13.014
88910SOL     OW68626   8.444  13.603  13.776
88910SOL    HW168627   8.371  13.643  13.729
88910SOL    HW268628   8.435  13.509  13.761
88911SOL     OW68629   8.050  11.188   0.917
88911SOL    HW168630   8.046  11.239   0.836
88911SOL    HW268631   8.114  11.119   0.898
88912SOL     OW68632   7.078   7.201  12.301
88912SOL    HW168633   7.137   7.248  12.360
88912SOL    HW268634   7.108   7.225  12.213
88913SOL     OW68635   6.288   1.021  11.047
88913SOL    HW168636   6.221   1.015  11.115
88913SOL    HW268637   6.355   0.958  11.074
88914SOL     OW68638   3.016  14.231  12.527
88914SOL    HW168639   2.998  14.284  12.449
88914SOL    HW268640   2.986  14.285  12.600
88915SOL     OW68641  12.152   0.142  11.567
88915SOL    HW168642  12.066   0.185  11.558
88915SOL    HW268643  12.213   0.214  11.578
88916SOL     OW68644   0.901   1.249   8.342
88916SOL    HW168645   0.888   1.158   8.316
88916SOL    HW268646   0.974   1.279   8.288
88917SOL     OW68647  12.211   1.436  12.599
88917SOL    HW168648  12.239   1.511  12.651
88917SOL    HW268649  12.240   1.359  12.649
88918SOL     OW68650   5.212   9.629   6.805
88918SOL    HW168651   5.238   9.718   6.783
88918SOL    HW268652   5.186   9.633   6.897
88919SOL     OW68653   1.493   5.719  12.286
88919SOL    HW168654   1.497   5.718  12.382
88919SOL    HW268655   1.517   5.808  12.262
88920SOL     OW68656  11.183   0.395  14.674
88920SOL    HW168657  11.237   0.332  14.625
88920SOL    HW268658  11.145   0.343  14.745
88921SOL     OW68659  12.458  11.135   2.192
88921SOL    HW168660  12.493  11.129   2.103
88921SOL    HW268661  12.432  11.046   2.214
88922SOL     OW68662   4.013   9.978  10.545
88922SOL    HW168663   4.098  10.020  10.529
88922SOL    HW268664   4.006   9.973  10.640
88923SOL     OW68665  10.475  13.549   3.149
88923SOL    HW168666  10.506  13.637   3.168
88923SOL    HW268667  10.434  13.556   3.063
88924SOL     OW68668   5.907  12.090   0.254
88924SOL    HW168669   5.823  12.114   0.293
88924SOL    HW268670   5.890  12.088   0.160
88925SOL     OW68671  10.121  14.184  13.879
88925SOL    HW168672  10.081  14.099  13.863
88925SOL    HW268673  10.083  14.242  13.813
88926SOL     OW68674   0.459   1.734   6.053
88926SOL    HW168675   0.524   1.669   6.028
88926SOL    HW268676   0.406   1.691   6.120
88927SOL     OW68677   0.654   3.575   0.590
88927SOL    HW168678   0.662   3.658   0.637
88927SOL    HW268679   0.620   3.514   0.655
88928SOL     OW68680   2.176   7.116  10.099
88928SOL    HW168681   2.121   7.118  10.020
88928SOL    HW268682   2.262   7.146  10.068
88929SOL     OW68683  13.842   0.999   8.874
88929SOL    HW168684  13.920   1.050   8.894
88929SOL    HW268685  13.850   0.977   8.781
88930SOL     OW68686   7.261   1.880   1.964
88930SOL    HW168687   7.286   1.802   2.014
88930SOL    HW268688   7.323   1.947   1.993
88931SOL     OW68689   5.969   1.013  14.568
88931SOL    HW168690   5.926   0.965  14.640
88931SOL    HW268691   5.897   1.051  14.518
88932SOL     OW68692  14.280   4.442   5.393
88932SOL    HW168693  14.217   4.371   5.380
88932SOL    HW268694  14.364   4.403   5.370
88933SOL     OW68695   9.653   4.928   5.091
88933SOL    HW168696   9.627   5.018   5.113
88933SOL    HW268697   9.599   4.905   5.016
88934SOL     OW68698  11.055   9.303  10.691
88934SOL    HW168699  11.007   9.343  10.763
88934SOL    HW268700  11.095   9.377  10.645
88935SOL     OW68701   7.977  14.126  13.213
88935SOL    HW168702   8.064  14.088  13.224
88935SOL    HW268703   7.950  14.151  13.301
88936SOL     OW68704   8.773   9.421  10.102
88936SOL    HW168705   8.802   9.506  10.134
88936SOL    HW268706   8.809   9.415  10.013
88937SOL     OW68707   4.899   7.381  11.456
88937SOL    HW168708   4.847   7.374  11.376
88937SOL    HW268709   4.934   7.293  11.470
88938SOL     OW68710   6.825   1.126   6.973
88938SOL    HW168711   6.732   1.107   6.979
88938SOL    HW268712   6.868   1.040   6.981
88939SOL     OW68713  14.346   8.693   6.169
88939SOL    HW168714  14.367   8.728   6.082
88939SOL    HW268715  14.366   8.600   6.163
88940SOL     OW68716   9.833  10.524   5.435
88940SOL    HW168717   9.921  10.500   5.407
88940SOL    HW268718   9.846  10.570   5.518
88941SOL     OW68719   7.591   1.225   3.667
88941SOL    HW168720   7.529   1.181   3.724
88941SOL    HW268721   7.670   1.233   3.720
88942SOL     OW68722  11.203   8.554   1.669
88942SOL    HW168723  11.131   8.491   1.677
88942SOL    HW268724  11.282   8.500   1.674
88943SOL     OW68725   8.558   1.656   8.140
88943SOL    HW168726   8.545   1.569   8.177
88943SOL    HW268727   8.615   1.643   8.065
88944SOL     OW68728   2.200   6.029   7.156
88944SOL    HW168729   2.111   6.049   7.127
88944SOL    HW268730   2.249   6.012   7.076
88945SOL     OW68731   9.397   5.351  13.835
88945SOL    HW168732   9.301   5.348  13.839
88945SOL    HW268733   9.418   5.331  13.744
88946SOL     OW68734  10.581   7.509   2.653
88946SOL    HW168735  10.542   7.422   2.646
88946SOL    HW268736  10.631   7.506   2.735
88947SOL     OW68737  11.431  14.400   6.846
88947SOL    HW168738  11.426  14.358   6.760
88947SOL    HW268739  11.379  14.480   6.836
88948SOL     OW68740  14.823  11.377   2.425
88948SOL    HW168741  14.776  11.447   2.470
88948SOL    HW268742  14.828  11.306   2.489
88949SOL     OW68743   5.973  13.948  14.737
88949SOL    HW168744   6.047  14.007  14.744
88949SOL    HW268745   5.957  13.918  14.826
88950SOL     OW68746   1.851   9.336  11.054
88950SOL    HW168747   1.778   9.383  11.014
88950SOL    HW268748   1.818   9.247  11.067
88951SOL     OW68749  12.072   0.116  10.629
88951SOL    HW168750  12.145   0.103  10.570
88951SOL    HW268751  11.997   0.075  10.585
88952SOL     OW68752   8.188  14.532   5.633
88952SOL    HW168753   8.189  14.455   5.576
88952SOL    HW268754   8.233  14.503   5.712
88953SOL     OW68755   0.704  12.350   6.627
88953SOL    HW168756   0.739  12.423   6.577
88953SOL    HW268757   0.613  12.375   6.644
88954SOL     OW68758   0.830  14.452   8.250
88954SOL    HW168759   0.868  14.392   8.185
88954SOL    HW268760   0.897  14.519   8.261
88955SOL     OW68761  11.096   0.603   4.847
88955SOL    HW168762  11.178   0.555   4.838
88955SOL    HW268763  11.039   0.544   4.896
88956SOL     OW68764   8.506  14.838  10.700
88956SOL    HW168765   8.549   0.023  10.762
88956SOL    HW268766   8.421   0.004  10.683
88957SOL     OW68767  14.261   3.185   5.763
88957SOL    HW168768  14.241   3.094   5.783
88957SOL    HW268769  14.338   3.205   5.816
88958SOL     OW68770  10.229  12.033  14.695
88958SOL    HW168771  10.300  12.001  14.639
88958SOL    HW268772  10.177  11.955  14.714
88959SOL     OW68773  14.431  12.729   7.211
88959SOL    HW168774  14.440  12.819   7.180
88959SOL    HW268775  14.399  12.737   7.301
88960SOL     OW68776   3.727   1.822   5.314
88960SOL    HW168777   3.753   1.790   5.400
88960SOL    HW268778   3.809   1.838   5.268
88961SOL     OW68779   0.569   9.094   8.301
88961SOL    HW168780   0.501   9.079   8.367
88961SOL    HW268781   0.539   9.045   8.225
88962SOL     OW68782   2.574   5.121  12.737
88962SOL    HW168783   2.670   5.119  12.732
88962SOL    HW268784   2.553   5.213  12.750
88963SOL     OW68785   3.148  13.419   8.559
88963SOL    HW168786   3.187  13.385   8.640
88963SOL    HW268787   3.054  13.418   8.576
88964SOL     OW68788   6.654  10.266  12.911
88964SOL    HW168789   6.580  10.205  12.916
88964SOL    HW268790   6.719  10.229  12.970
88965SOL     OW68791   9.837   0.278  13.511
88965SOL    HW168792   9.762   0.314  13.558
88965SOL    HW268793   9.897   0.248  13.579
88966SOL     OW68794   5.785   8.696  12.456
88966SOL    HW168795   5.767   8.695  12.550
88966SOL    HW268796   5.707   8.737  12.417
88967SOL     OW68797   2.266  12.365   7.849
88967SOL    HW168798   2.294  12.292   7.904
88967SOL    HW268799   2.347  12.405   7.819
88968SOL     OW68800   8.728   3.119   9.834
88968SOL    HW168801   8.701   3.074   9.754
88968SOL    HW268802   8.765   3.049   9.889
88969SOL     OW68803   2.112   8.164   1.408
88969SOL    HW168804   2.096   8.167   1.313
88969SOL    HW268805   2.202   8.134   1.416
88970SOL     OW68806   9.733   5.281   1.430
88970SOL    HW168807   9.645   5.244   1.419
88970SOL    HW268808   9.763   5.246   1.514
88971SOL     OW68809   2.012  12.233   0.679
88971SOL    HW168810   1.977  12.218   0.767
88971SOL    HW268811   1.946  12.195   0.621
88972SOL     OW68812   5.475   4.523   1.138
88972SOL    HW168813   5.549   4.545   1.081
88972SOL    HW268814   5.516   4.493   1.219
88973SOL     OW68815   2.374   3.404   5.206
88973SOL    HW168816   2.446   3.371   5.260
88973SOL    HW268817   2.338   3.326   5.164
88974SOL     OW68818  10.542   1.464  11.259
88974SOL    HW168819  10.524   1.373  11.282
88974SOL    HW268820  10.458   1.509  11.271
88975SOL     OW68821  14.094   7.321  10.740
88975SOL    HW168822  14.175   7.302  10.694
88975SOL    HW268823  14.039   7.366  10.676
88976SOL     OW68824   3.057  10.017   2.573
88976SOL    HW168825   3.102  10.098   2.596
88976SOL    HW268826   2.994  10.004   2.643
88977SOL     OW68827  12.363   4.812  13.509
88977SOL    HW168828  12.345   4.884  13.448
88977SOL    HW268829  12.441   4.840  13.557
88978SOL     OW68830  11.637  12.836   5.650
88978SOL    HW168831  11.686  12.784   5.587
88978SOL    HW268832  11.559  12.783   5.668
88979SOL     OW68833  12.384  12.730   0.611
88979SOL    HW168834  12.470  12.725   0.570
88979SOL    HW268835  12.325  12.685   0.550
88980SOL     OW68836   2.681  10.190  12.969
88980SOL    HW168837   2.674  10.279  12.935
88980SOL    HW268838   2.699  10.136  12.892
88981SOL     OW68839  14.263   7.256   2.896
88981SOL    HW168840  14.185   7.201   2.900
88981SOL    HW268841  14.335   7.196   2.918
88982SOL     OW68842  10.767   9.711  14.279
88982SOL    HW168843  10.819   9.791  14.270
88982SOL    HW268844  10.678   9.743  14.295
88983SOL     OW68845  13.444   9.099  12.022
88983SOL    HW168846  13.359   9.114  11.980
88983SOL    HW268847  13.501   9.071  11.950
88984SOL     OW68848   4.483   1.163  12.668
88984SOL    HW168849   4.410   1.195  12.722
88984SOL    HW268850   4.480   1.068  12.679
88985SOL     OW68851  10.770   6.827   3.731
88985SOL    HW168852  10.701   6.856   3.790
88985SOL    HW268853  10.725   6.771   3.667
88986SOL     OW68854   0.873   5.177  11.268
88986SOL    HW168855   0.967   5.194  11.279
88986SOL    HW268856   0.868   5.084  11.246
88987SOL     OW68857  14.743   0.352   8.443
88987SOL    HW168858  14.817   0.385   8.494
88987SOL    HW268859  14.756   0.257   8.439
88988SOL     OW68860  13.263   1.296   7.734
88988SOL    HW168861  13.236   1.254   7.816
88988SOL    HW268862  13.182   1.300   7.682
88989SOL     OW68863   2.317  10.023   6.387
88989SOL    HW168864   2.277  10.081   6.452
88989SOL    HW268865   2.406  10.056   6.377
88990SOL     OW68866  12.522   2.180  13.397
88990SOL    HW168867  12.577   2.102  13.391
88990SOL    HW268868  12.577   2.252  13.365
88991SOL     OW68869   5.092  14.132  13.672
88991SOL    HW168870   5.102  14.120  13.577
88991SOL    HW268871   5.108  14.046  13.709
88992SOL     OW68872  10.284   9.573   2.680
88992SOL    HW168873  10.311   9.665   2.677
88992SOL    HW268874  10.197   9.574   2.719
88993SOL     OW68875  10.331   7.442   1.994
88993SOL    HW168876  10.270   7.497   2.043
88993SOL    HW268877  10.310   7.353   2.021
88994SOL     OW68878   1.613   2.358   7.249
88994SOL    HW168879   1.602   2.295   7.178
88994SOL    HW268880   1.705   2.384   7.246
88995SOL     OW68881  12.898   5.190  11.211
88995SOL    HW168882  12.887   5.096  11.230
88995SOL    HW268883  12.854   5.234  11.283
88996SOL     OW68884   9.414  12.922   4.954
88996SOL    HW168885   9.333  12.961   4.921
88996SOL    HW268886   9.479  12.943   4.886
88997SOL     OW68887   0.456   7.198   0.217
88997SOL    HW168888   0.431   7.152   0.137
88997SOL    HW268889   0.551   7.192   0.220
88998SOL     OW68890   6.003   9.701   5.979
88998SOL    HW168891   6.010   9.727   6.071
88998SOL    HW268892   5.939   9.630   5.978
88999SOL     OW68893  11.803   8.665   6.669
88999SOL    HW168894  11.864   8.651   6.742
88999SOL    HW268895  11.716   8.660   6.708
89000SOL     OW68896   1.573   9.533   3.721
89000SOL    HW168897   1.654   9.584   3.717
89000SOL    HW268898   1.601   9.445   3.744
89001SOL     OW68899  13.900   1.221   5.452
89001SOL    HW168900  13.854   1.178   5.523
89001SOL    HW268901  13.917   1.151   5.388
89002SOL     OW68902  12.120   1.621  10.370
89002SOL    HW168903  12.100   1.618  10.277
89002SOL    HW268904  12.072   1.697  10.403
89003SOL     OW68905  14.594   7.703   4.257
89003SOL    HW168906  14.567   7.678   4.345
89003SOL    HW268907  14.674   7.754   4.269
89004SOL     OW68908  14.361   9.512   7.275
89004SOL    HW168909  14.346   9.495   7.182
89004SOL    HW268910  14.332   9.432   7.318
89005SOL     OW68911  13.565   3.858   5.442
89005SOL    HW168912  13.491   3.872   5.502
89005SOL    HW268913  13.618   3.791   5.486
89006SOL     OW68914   7.815   7.761   1.599
89006SOL    HW168915   7.739   7.746   1.655
89006SOL    HW268916   7.869   7.824   1.647
89007SOL     OW68917  11.361  11.079   3.362
89007SOL    HW168918  11.349  11.141   3.290
89007SOL    HW268919  11.381  10.996   3.320
89008SOL     OW68920  11.668   1.299  11.331
89008SOL    HW168921  11.615   1.372  11.300
89008SOL    HW268922  11.627   1.272  11.413
89009SOL     OW68923   3.445   0.428   1.109
89009SOL    HW168924   3.409   0.500   1.161
89009SOL    HW268925   3.452   0.464   1.020
89010SOL     OW68926  13.932   7.445  10.551
89010SOL    HW168927  14.010   7.491  10.520
89010SOL    HW268928  13.864   7.468  10.488
89011SOL     OW68929   7.592  11.618  11.351
89011SOL    HW168930   7.539  11.695  11.374
89011SOL    HW268931   7.664  11.653  11.299
89012SOL     OW68932   9.472   4.393  11.805
89012SOL    HW168933   9.517   4.459  11.752
89012SOL    HW268934   9.425   4.443  11.871
89013SOL     OW68935   9.503   5.023   0.582
89013SOL    HW168936   9.478   4.931   0.594
89013SOL    HW268937   9.482   5.065   0.665
89014SOL     OW68938   5.942   5.618   9.256
89014SOL    HW168939   5.977   5.661   9.178
89014SOL    HW268940   5.927   5.527   9.229
89015SOL     OW68941   2.086  12.640   0.306
89015SOL    HW168942   2.112  12.669   0.219
89015SOL    HW268943   2.013  12.579   0.291
89016SOL     OW68944   9.050   1.673   1.539
89016SOL    HW168945   9.072   1.754   1.493
89016SOL    HW268946   8.963   1.649   1.507
89017SOL     OW68947   8.787   7.358   0.380
89017SOL    HW168948   8.828   7.338   0.295
89017SOL    HW268949   8.706   7.403   0.357
89018SOL     OW68950  10.168   8.514   1.941
89018SOL    HW168951  10.115   8.570   1.998
89018SOL    HW268952  10.162   8.556   1.855
89019SOL     OW68953   1.893  14.757   9.303
89019SOL    HW168954   1.902  14.851   9.289
89019SOL    HW268955   1.799  14.744   9.321
89020SOL     OW68956  13.607   2.792   7.599
89020SOL    HW168957  13.511   2.790   7.599
89020SOL    HW268958  13.632   2.722   7.659
89021SOL     OW68959  14.368   7.324   1.880
89021SOL    HW168960  14.428   7.342   1.953
89021SOL    HW268961  14.425   7.308   1.805
89022SOL     OW68962   4.764   3.448   5.827
89022SOL    HW168963   4.744   3.371   5.775
89022SOL    HW268964   4.711   3.439   5.906
89023SOL     OW68965   2.014   8.543  13.380
89023SOL    HW168966   1.919   8.533  13.375
89023SOL    HW268967   2.028   8.610  13.446
89024SOL     OW68968   6.198  11.984  13.578
89024SOL    HW168969   6.191  12.077  13.559
89024SOL    HW268970   6.286  11.960  13.549
89025SOL     OW68971  14.225   9.705   7.022
89025SOL    HW168972  14.307   9.753   7.008
89025SOL    HW268973  14.236   9.624   6.973
89026SOL     OW68974   6.605   3.038  12.548
89026SOL    HW168975   6.646   2.960  12.587
89026SOL    HW268976   6.631   3.110  12.606
89027SOL     OW68977  12.729   7.443   6.987
89027SOL    HW168978  12.704   7.411   7.074
89027SOL    HW268979  12.788   7.376   6.953
89028SOL     OW68980   0.213  13.579  14.497
89028SOL    HW168981   0.122  13.597  14.472
89028SOL    HW268982   0.240  13.656  14.546
89029SOL     OW68983  10.106   5.966   0.712
89029SOL    HW168984  10.131   6.012   0.632
89029SOL    HW268985  10.071   6.034   0.770
89030SOL     OW68986   1.677   3.622   7.222
89030SOL    HW168987   1.719   3.550   7.268
89030SOL    HW268988   1.750   3.677   7.193
89031SOL     OW68989   0.161   0.500   5.357
89031SOL    HW168990   0.221   0.525   5.427
89031SOL    HW268991   0.216   0.492   5.279
89032SOL     OW68992  11.351   7.243   4.651
89032SOL    HW168993  11.275   7.261   4.706
89032SOL    HW268994  11.332   7.160   4.608
89033SOL     OW68995   6.580   3.840   8.832
89033SOL    HW168996   6.568   3.934   8.819
89033SOL    HW268997   6.578   3.829   8.928
89034SOL     OW68998  12.972   1.665   5.221
89034SOL    HW168999  12.908   1.689   5.288
89034SOL    HW269000  12.930   1.595   5.171
89035SOL     OW69001   7.041   8.063   8.369
89035SOL    HW169002   7.011   8.023   8.451
89035SOL    HW269003   7.123   8.017   8.349
89036SOL     OW69004   3.512   7.958  10.819
89036SOL    HW169005   3.425   7.918  10.817
89036SOL    HW269006   3.531   7.969  10.912
89037SOL     OW69007   1.496   4.732   7.768
89037SOL    HW169008   1.588   4.757   7.759
89037SOL    HW269009   1.447   4.804   7.729
89038SOL     OW69010  13.163   3.515   9.009
89038SOL    HW169011  13.134   3.560   9.089
89038SOL    HW269012  13.082   3.486   8.967
89039SOL     OW69013   1.814   1.436  11.426
89039SOL    HW169014   1.836   1.512  11.372
89039SOL    HW269015   1.796   1.473  11.513
89040SOL     OW69016   6.426   3.799  11.870
89040SOL    HW169017   6.353   3.742  11.845
89040SOL    HW269018   6.471   3.818  11.787
89041SOL     OW69019   6.903  12.263   9.840
89041SOL    HW169020   6.872  12.290   9.753
89041SOL    HW269021   6.871  12.174   9.850
89042SOL     OW69022   8.925   2.612   5.439
89042SOL    HW169023   8.989   2.678   5.413
89042SOL    HW269024   8.875   2.654   5.509
89043SOL     OW69025   8.055   9.322   5.234
89043SOL    HW169026   8.033   9.311   5.327
89043SOL    HW269027   8.147   9.295   5.229
89044SOL     OW69028   9.583   1.488  13.393
89044SOL    HW169029   9.583   1.515  13.485
89044SOL    HW269030   9.645   1.415  13.389
89045SOL     OW69031   5.048   0.259   1.170
89045SOL    HW169032   5.023   0.171   1.199
89045SOL    HW269033   5.114   0.287   1.233
89046SOL     OW69034  14.828  12.444   6.879
89046SOL    HW169035  14.799  12.420   6.791
89046SOL    HW269036  14.750  12.431   6.934
89047SOL     OW69037   8.552  12.787   5.863
89047SOL    HW169038   8.498  12.850   5.816
89047SOL    HW269039   8.613  12.754   5.798
89048SOL     OW69040  10.184   5.330  11.430
89048SOL    HW169041  10.169   5.421  11.456
89048SOL    HW269042  10.123   5.315  11.358
89049SOL     OW69043   4.267   2.938   6.911
89049SOL    HW169044   4.173   2.919   6.912
89049SOL    HW269045   4.287   2.959   6.820
89050SOL     OW69046   6.782  11.257   0.747
89050SOL    HW169047   6.724  11.200   0.696
89050SOL    HW269048   6.833  11.304   0.681
89051SOL     OW69049  12.912   7.107   9.523
89051SOL    HW169050  12.898   7.111   9.618
89051SOL    HW269051  12.917   7.199   9.496
89052SOL     OW69052   3.715   1.815  14.568
89052SOL    HW169053   3.658   1.875  14.616
89052SOL    HW269054   3.689   1.825  14.477
89053SOL     OW69055  12.645   4.492   2.094
89053SOL    HW169056  12.708   4.564   2.091
89053SOL    HW269057  12.664   4.447   2.176
89054SOL     OW69058   0.588  13.393  14.688
89054SOL    HW169059   0.542  13.338  14.752
89054SOL    HW269060   0.540  13.379  14.606
89055SOL     OW69061   4.750   1.874   1.263
89055SOL    HW169062   4.736   1.807   1.330
89055SOL    HW269063   4.706   1.840   1.185
89056SOL     OW69064   6.896  14.478  13.131
89056SOL    HW169065   6.923  14.563  13.095
89056SOL    HW269066   6.800  14.481  13.130
89057SOL     OW69067   6.341   1.749  11.977
89057SOL    HW169068   6.259   1.726  11.933
89057SOL    HW269069   6.321   1.830  12.025
89058SOL     OW69070   4.511  10.736   9.039
89058SOL    HW169071   4.457  10.778   9.106
89058SOL    HW269072   4.576  10.686   9.088
89059SOL     OW69073   5.678  10.077   8.025
89059SOL    HW169074   5.708  10.164   8.051
89059SOL    HW269075   5.664  10.030   8.107
89060SOL     OW69076   6.848   6.692  13.604
89060SOL    HW169077   6.852   6.636  13.526
89060SOL    HW269078   6.758   6.683  13.635
89061SOL     OW69079   1.243   3.760  13.084
89061SOL    HW169080   1.244   3.675  13.041
89061SOL    HW269081   1.228   3.823  13.013
89062SOL     OW69082   2.988  13.429   7.101
89062SOL    HW169083   2.911  13.410   7.047
89062SOL    HW269084   2.994  13.355   7.161
89063SOL     OW69085   8.809   1.326  10.372
89063SOL    HW169086   8.749   1.255  10.390
89063SOL    HW269087   8.888   1.305  10.421
89064SOL     OW69088   6.771   6.318   4.325
89064SOL    HW169089   6.765   6.386   4.258
89064SOL    HW269090   6.712   6.347   4.395
89065SOL     OW69091   3.765   0.031   9.377
89065SOL    HW169092   3.749   0.090   9.451
89065SOL    HW269093   3.858   0.013   9.380
89066SOL     OW69094   0.181  12.551   1.475
89066SOL    HW169095   0.175  12.645   1.461
89066SOL    HW269096   0.184  12.513   1.387
89067SOL     OW69097   4.020  10.478   7.770
89067SOL    HW169098   4.000  10.398   7.723
89067SOL    HW269099   4.116  10.484   7.768
89068SOL     OW69100   0.729   0.951   9.697
89068SOL    HW169101   0.642   0.930   9.729
89068SOL    HW269102   0.764   1.013   9.761
89069SOL     OW69103   5.900   4.224  12.794
89069SOL    HW169104   5.876   4.263  12.710
89069SOL    HW269105   5.844   4.268  12.858
89070SOL     OW69106   0.062   3.027  10.567
89070SOL    HW169107   0.157   3.038  10.574
89070SOL    HW269108   0.034   3.093  10.503
89071SOL     OW69109   9.676  13.375  12.433
89071SOL    HW169110   9.760  13.419  12.445
89071SOL    HW269111   9.640  13.367  12.521
89072SOL     OW69112  14.260   2.131   2.198
89072SOL    HW169113  14.178   2.179   2.189
89072SOL    HW269114  14.319   2.171   2.134
89073SOL     OW69115  14.802  14.768  14.289
89073SOL    HW169116  14.763  14.706  14.352
89073SOL    HW269117  14.861  14.822  14.342
89074SOL     OW69118   4.961   7.175   6.048
89074SOL    HW169119   5.024   7.181   5.977
89074SOL    HW269120   4.879   7.207   6.010
89075SOL     OW69121   2.563   3.699  11.587
89075SOL    HW169122   2.486   3.719  11.534
89075SOL    HW269123   2.542   3.616  11.629
89076SOL     OW69124  10.164  10.135  11.630
89076SOL    HW169125  10.243  10.106  11.676
89076SOL    HW269126  10.098  10.144  11.699
89077SOL     OW69127   1.265   2.117  11.213
89077SOL    HW169128   1.196   2.056  11.188
89077SOL    HW269129   1.225   2.173  11.280
89078SOL     OW69130   7.573   0.522   8.515
89078SOL    HW169131   7.659   0.564   8.516
89078SOL    HW269132   7.590   0.431   8.538
89079SOL     OW69133   4.089   4.724   0.327
89079SOL    HW169134   4.031   4.717   0.252
89079SOL    HW269135   4.115   4.816   0.330
89080SOL     OW69136   3.495   5.892  10.280
89080SOL    HW169137   3.495   5.928  10.192
89080SOL    HW269138   3.500   5.797  10.267
89081SOL     OW69139   8.826  11.322  11.682
89081SOL    HW169140   8.855  11.376  11.756
89081SOL    HW269141   8.734  11.346  11.670
89082SOL     OW69142  12.151  13.605   6.843
89082SOL    HW169143  12.135  13.697   6.866
89082SOL    HW269144  12.157  13.560   6.926
89083SOL     OW69145  12.361   5.769   1.903
89083SOL    HW169146  12.363   5.843   1.843
89083SOL    HW269147  12.382   5.807   1.989
89084SOL     OW69148   8.704   7.136   8.740
89084SOL    HW169149   8.799   7.129   8.749
89084SOL    HW269150   8.691   7.186   8.659
89085SOL     OW69151   0.805  10.493  12.794
89085SOL    HW169152   0.783  10.408  12.832
89085SOL    HW269153   0.837  10.472  12.706
89086SOL     OW69154   0.411  13.595   4.332
89086SOL    HW169155   0.454  13.680   4.323
89086SOL    HW269156   0.480  13.535   4.358
89087SOL     OW69157   3.829  13.562   2.360
89087SOL    HW169158   3.797  13.647   2.392
89087SOL    HW269159   3.846  13.512   2.440
89088SOL     OW69160   6.402  11.957  12.269
89088SOL    HW169161   6.339  11.997  12.330
89088SOL    HW269162   6.482  12.008  12.281
89089SOL     OW69163   0.846   9.166  10.083
89089SOL    HW169164   0.898   9.149  10.004
89089SOL    HW269165   0.808   9.252  10.067
89090SOL     OW69166   6.494   0.843  11.146
89090SOL    HW169167   6.550   0.915  11.174
89090SOL    HW269168   6.544   0.799  11.078
89091SOL     OW69169   6.281   7.747  11.464
89091SOL    HW169170   6.217   7.737  11.394
89091SOL    HW269171   6.339   7.818  11.434
89092SOL     OW69172  12.631  12.359  12.485
89092SOL    HW169173  12.536  12.370  12.475
89092SOL    HW269174  12.666  12.383  12.399
89093SOL     OW69175   0.536   5.109   7.429
89093SOL    HW169176   0.561   5.018   7.448
89093SOL    HW269177   0.441   5.109   7.433
89094SOL     OW69178   9.801   7.086   4.879
89094SOL    HW169179   9.771   7.009   4.926
89094SOL    HW269180   9.821   7.054   4.791
89095SOL     OW69181   3.177   2.545   4.154
89095SOL    HW169182   3.152   2.492   4.078
89095SOL    HW269183   3.250   2.599   4.122
89096SOL     OW69184  11.747   9.350  13.282
89096SOL    HW169185  11.747   9.442  13.306
89096SOL    HW269186  11.657   9.331  13.256
89097SOL     OW69187   8.220   4.928   0.563
89097SOL    HW169188   8.172   4.996   0.516
89097SOL    HW269189   8.193   4.846   0.522
89098SOL     OW69190   4.111   1.854   1.686
89098SOL    HW169191   4.062   1.782   1.725
89098SOL    HW269192   4.203   1.834   1.706
89099SOL     OW69193   8.259   5.731   8.248
89099SOL    HW169194   8.190   5.698   8.192
89099SOL    HW269195   8.234   5.705   8.336
89100SOL     OW69196   2.853   2.650  12.019
89100SOL    HW169197   2.770   2.612  11.990
89100SOL    HW269198   2.875   2.715  11.952
89101SOL     OW69199  11.100   9.640   7.119
89101SOL    HW169200  11.074   9.705   7.054
89101SOL    HW269201  11.191   9.659   7.139
89102SOL     OW69202   8.032  12.206  14.440
89102SOL    HW169203   8.089  12.139  14.477
89102SOL    HW269204   7.975  12.158  14.380
89103SOL     OW69205   7.181  12.964   9.084
89103SOL    HW169206   7.086  12.964   9.095
89103SOL    HW269207   7.198  12.899   9.016
89104SOL     OW69208   2.538   2.784   7.435
89104SOL    HW169209   2.622   2.801   7.394
89104SOL    HW269210   2.534   2.843   7.510
89105SOL     OW69211   7.737   4.932   4.199
89105SOL    HW169212   7.657   4.926   4.147
89105SOL    HW269213   7.808   4.930   4.135
89106SOL     OW69214   3.533   5.719  12.452
89106SOL    HW169215   3.486   5.802  12.444
89106SOL    HW269216   3.616   5.742  12.493
89107SOL     OW69217   8.882   6.751   8.181
89107SOL    HW169218   8.881   6.752   8.086
89107SOL    HW269219   8.928   6.670   8.204
89108SOL     OW69220   3.529   0.446  10.701
89108SOL    HW169221   3.582   0.405  10.769
89108SOL    HW269222   3.444   0.461  10.743
89109SOL     OW69223   3.541  10.139   6.134
89109SOL    HW169224   3.591  10.159   6.055
89109SOL    HW269225   3.608  10.118   6.199
89110SOL     OW69226   1.768   0.607   3.806
89110SOL    HW169227   1.850   0.558   3.806
89110SOL    HW269228   1.721   0.575   3.729
89111SOL     OW69229   4.020  13.551   6.975
89111SOL    HW169230   3.986  13.614   6.911
89111SOL    HW269231   3.976  13.574   7.057
89112SOL     OW69232   2.302   1.801   2.868
89112SOL    HW169233   2.263   1.851   2.940
89112SOL    HW269234   2.369   1.746   2.910
89113SOL     OW69235   7.393   5.673  12.688
89113SOL    HW169236   7.487   5.688  12.685
89113SOL    HW269237   7.376   5.611  12.617
89114SOL     OW69238   2.650   6.532  10.539
89114SOL    HW169239   2.668   6.453  10.590
89114SOL    HW269240   2.737   6.563  10.512
89115SOL     OW69241   7.987   5.060   5.020
89115SOL    HW169242   8.029   5.145   5.010
89115SOL    HW269243   8.038   5.016   5.089
89116SOL     OW69244   0.848   7.264   6.303
89116SOL    HW169245   0.927   7.319   6.301
89116SOL    HW269246   0.790   7.307   6.365
89117SOL     OW69247   0.898   8.436   5.412
89117SOL    HW169248   0.940   8.516   5.445
89117SOL    HW269249   0.942   8.365   5.458
89118SOL     OW69250   9.993   4.274  14.692
89118SOL    HW169251   9.942   4.211  14.744
89118SOL    HW269252   9.950   4.358  14.707
89119SOL     OW69253   4.146   2.932  12.876
89119SOL    HW169254   4.193   2.849  12.871
89119SOL    HW269255   4.149   2.967  12.787
89120SOL     OW69256   0.182   0.173   4.771
89120SOL    HW169257   0.123   0.211   4.706
89120SOL    HW269258   0.137   0.186   4.855
89121SOL     OW69259   6.387   1.002   1.037
89121SOL    HW169260   6.411   1.064   0.969
89121SOL    HW269261   6.376   0.918   0.991
89122SOL     OW69262   6.584  13.979   0.627
89122SOL    HW169263   6.566  13.913   0.694
89122SOL    HW269264   6.679  13.987   0.625
89123SOL     OW69265   4.775   4.286   3.311
89123SOL    HW169266   4.793   4.239   3.229
89123SOL    HW269267   4.806   4.227   3.379
89124SOL     OW69268   8.932  11.494   8.086
89124SOL    HW169269   8.990  11.562   8.052
89124SOL    HW269270   8.989  11.418   8.098
89125SOL     OW69271  12.574  10.381   2.091
89125SOL    HW169272  12.613  10.357   2.007
89125SOL    HW269273  12.638  10.354   2.156
89126SOL     OW69274   9.868  10.353   6.688
89126SOL    HW169275   9.954  10.316   6.710
89126SOL    HW269276   9.806  10.296   6.734
89127SOL     OW69277  10.163   5.088   9.707
89127SOL    HW169278  10.134   4.998   9.694
89127SOL    HW269279  10.103   5.123   9.773
89128SOL     OW69280   1.497  12.729   4.487
89128SOL    HW169281   1.420  12.740   4.432
89128SOL    HW269282   1.478  12.779   4.567
89129SOL     OW69283   4.844   9.313   5.884
89129SOL    HW169284   4.879   9.267   5.960
89129SOL    HW269285   4.812   9.243   5.826
89130SOL     OW69286  12.952  10.341   9.931
89130SOL    HW169287  12.961  10.393  10.011
89130SOL    HW269288  12.872  10.291   9.943
89131SOL     OW69289   1.131   7.678   0.554
89131SOL    HW169290   1.119   7.584   0.538
89131SOL    HW269291   1.052   7.703   0.602
89132SOL     OW69292   4.748  13.460   0.457
89132SOL    HW169293   4.697  13.529   0.415
89132SOL    HW269294   4.682  13.398   0.489
89133SOL     OW69295  10.858  13.339  13.758
89133SOL    HW169296  10.805  13.394  13.701
89133SOL    HW269297  10.924  13.398  13.794
89134SOL     OW69298  13.160   3.249  14.585
89134SOL    HW169299  13.197   3.333  14.612
89134SOL    HW269300  13.068   3.268  14.568
89135SOL     OW69301   5.730   1.076   0.762
89135SOL    HW169302   5.634   1.077   0.764
89135SOL    HW269303   5.754   1.168   0.753
89136SOL     OW69304   0.744  11.996  14.073
89136SOL    HW169305   0.725  12.077  14.119
89136SOL    HW269306   0.691  11.999  13.993
89137SOL     OW69307   0.205  11.970  10.194
89137SOL    HW169308   0.192  11.939  10.104
89137SOL    HW269309   0.155  12.052  10.198
89138SOL     OW69310  11.797  10.221   4.975
89138SOL    HW169311  11.869  10.216   5.037
89138SOL    HW269312  11.826  10.169   4.900
89139SOL     OW69313  11.033   1.589   8.029
89139SOL    HW169314  10.953   1.540   8.010
89139SOL    HW269315  11.102   1.539   7.985
89140SOL     OW69316   7.101   7.874   5.881
89140SOL    HW169317   7.166   7.878   5.811
89140SOL    HW269318   7.146   7.912   5.957
89141SOL     OW69319   3.310   4.056  14.510
89141SOL    HW169320   3.286   4.149  14.519
89141SOL    HW269321   3.271   4.029  14.427
89142SOL     OW69322   2.484  14.173  10.448
89142SOL    HW169323   2.415  14.236  10.470
89142SOL    HW269324   2.441  14.088  10.450
89143SOL     OW69325  12.509   3.201  11.639
89143SOL    HW169326  12.448   3.274  11.626
89143SOL    HW269327  12.594   3.242  11.651
89144SOL     OW69328   3.354  13.545   0.928
89144SOL    HW169329   3.332  13.611   0.994
89144SOL    HW269330   3.275  13.538   0.875
89145SOL     OW69331   7.080  14.623   7.498
89145SOL    HW169332   7.108  14.688   7.563
89145SOL    HW269333   7.147  14.626   7.430
89146SOL     OW69334   5.572   7.268  13.404
89146SOL    HW169335   5.508   7.200  13.382
89146SOL    HW269336   5.596   7.305  13.319
89147SOL     OW69337  13.876   6.697   9.276
89147SOL    HW169338  13.871   6.787   9.308
89147SOL    HW269339  13.872   6.642   9.354
89148SOL     OW69340  12.791   1.281  14.148
89148SOL    HW169341  12.836   1.212  14.099
89148SOL    HW269342  12.794   1.358  14.090
89149SOL     OW69343  14.808   3.253   1.192
89149SOL    HW169344  14.721   3.216   1.183
89149SOL    HW269345  14.794   3.340   1.228
89150SOL     OW69346   3.700   1.941   2.960
89150SOL    HW169347   3.665   1.961   2.873
89150SOL    HW269348   3.651   1.998   3.019
89151SOL     OW69349   5.359  14.864   1.415
89151SOL    HW169350   5.267   0.010   1.432
89151SOL    HW269351   5.398   0.073   1.388
89152SOL     OW69352   4.074   8.537  13.723
89152SOL    HW169353   4.104   8.590  13.649
89152SOL    HW269354   4.125   8.456  13.716
89153SOL     OW69355   5.472   5.729   3.274
89153SOL    HW169356   5.408   5.777   3.327
89153SOL    HW269357   5.548   5.787   3.271
89154SOL     OW69358  12.095   0.238   8.503
89154SOL    HW169359  12.012   0.219   8.460
89154SOL    HW269360  12.111   0.331   8.485
89155SOL     OW69361   0.885   0.246   2.480
89155SOL    HW169362   0.823   0.273   2.548
89155SOL    HW269363   0.901   0.326   2.430
89156SOL     OW69364   7.527   7.379   1.383
89156SOL    HW169365   7.450   7.429   1.355
89156SOL    HW269366   7.495   7.327   1.458
89157SOL     OW69367   2.808   7.453  12.787
89157SOL    HW169368   2.895   7.432  12.753
89157SOL    HW269369   2.749   7.391  12.744
89158SOL     OW69370   6.994   0.202   6.678
89158SOL    HW169371   7.007   0.211   6.584
89158SOL    HW269372   6.913   0.152   6.686
89159SOL     OW69373   2.588  12.316  10.815
89159SOL    HW169374   2.604  12.371  10.739
89159SOL    HW269375   2.502  12.276  10.799
89160SOL     OW69376   9.991   2.969  12.082
89160SOL    HW169377  10.038   2.900  12.128
89160SOL    HW269378  10.044   3.048  12.097
89161SOL     OW69379  13.171  13.877   3.805
89161SOL    HW169380  13.127  13.962   3.804
89161SOL    HW269381  13.240  13.887   3.870
89162SOL     OW69382   5.346   9.078  11.525
89162SOL    HW169383   5.397   9.159  11.523
89162SOL    HW269384   5.401   9.015  11.478
89163SOL     OW69385   6.932  14.094   5.713
89163SOL    HW169386   6.936  14.144   5.795
89163SOL    HW269387   6.933  14.160   5.644
89164SOL     OW69388   4.061   9.504   7.079
89164SOL    HW169389   3.976   9.512   7.124
89164SOL    HW269390   4.043   9.449   7.003
89165SOL     OW69391  10.368   4.998   4.858
89165SOL    HW169392  10.306   4.945   4.907
89165SOL    HW269393  10.407   4.936   4.795
89166SOL     OW69394   7.388  12.507   5.648
89166SOL    HW169395   7.361  12.421   5.680
89166SOL    HW269396   7.322  12.567   5.683
89167SOL     OW69397  13.386   9.489   0.972
89167SOL    HW169398  13.390   9.479   1.067
89167SOL    HW269399  13.293   9.488   0.952
89168SOL     OW69400   0.001  11.315   1.294
89168SOL    HW169401   0.032  11.336   1.206
89168SOL    HW269402   0.081  11.298   1.344
89169SOL     OW69403   0.095   2.508   3.744
89169SOL    HW169404   0.087   2.525   3.650
89169SOL    HW269405   0.060   2.587   3.786
89170SOL     OW69406   5.333  11.022   9.985
89170SOL    HW169407   5.332  10.933   9.951
89170SOL    HW269408   5.422  11.054   9.968
89171SOL     OW69409   9.769  11.863   2.077
89171SOL    HW169410   9.782  11.946   2.123
89171SOL    HW269411   9.814  11.875   1.994
89172SOL     OW69412   7.483   2.907   3.454
89172SOL    HW169413   7.430   2.828   3.466
89172SOL    HW269414   7.434   2.976   3.499
89173SOL     OW69415   1.852  10.858   1.298
89173SOL    HW169416   1.927  10.802   1.317
89173SOL    HW269417   1.836  10.847   1.204
89174SOL     OW69418   4.041  13.166  13.368
89174SOL    HW169419   4.114  13.225  13.389
89174SOL    HW269420   4.024  13.182  13.275
89175SOL     OW69421   4.033   4.926  12.558
89175SOL    HW169422   3.955   4.981  12.564
89175SOL    HW269423   4.086   4.952  12.634
89176SOL     OW69424   5.163   1.981   5.101
89176SOL    HW169425   5.210   1.901   5.078
89176SOL    HW269426   5.231   2.041   5.130
89177SOL     OW69427   3.962  14.554   9.798
89177SOL    HW169428   3.907  14.491   9.845
89177SOL    HW269429   4.050  14.516   9.801
89178SOL     OW69430  11.454   3.699   6.011
89178SOL    HW169431  11.379   3.655   5.972
89178SOL    HW269432  11.530   3.653   5.976
89179SOL     OW69433   6.069   3.602  10.144
89179SOL    HW169434   6.037   3.511  10.141
89179SOL    HW269435   6.163   3.593  10.159
89180SOL     OW69436   3.801  10.473   6.933
89180SOL    HW169437   3.878  10.469   6.990
89180SOL    HW269438   3.833  10.514   6.853
89181SOL     OW69439  10.161   7.811   3.211
89181SOL    HW169440  10.162   7.846   3.122
89181SOL    HW269441  10.234   7.749   3.214
89182SOL     OW69442   9.581   8.445  12.681
89182SOL    HW169443   9.506   8.505  12.678
89182SOL    HW269444   9.557   8.374  12.621
89183SOL     OW69445   4.683  14.035   5.689
89183SOL    HW169446   4.592  14.060   5.708
89183SOL    HW269447   4.732  14.117   5.695
89184SOL     OW69448   1.797  10.629  13.854
89184SOL    HW169449   1.879  10.581  13.842
89184SOL    HW269450   1.814  10.688  13.927
89185SOL     OW69451   0.213  14.486  12.319
89185SOL    HW169452   0.253  14.545  12.255
89185SOL    HW269453   0.154  14.541  12.369
89186SOL     OW69454   1.711  11.420   0.102
89186SOL    HW169455   1.757  11.504   0.109
89186SOL    HW269456   1.625  11.436   0.140
89187SOL     OW69457  11.211  11.594  13.718
89187SOL    HW169458  11.168  11.543  13.787
89187SOL    HW269459  11.256  11.664  13.765
89188SOL     OW69460   1.934   0.086   7.444
89188SOL    HW169461   1.986   0.157   7.406
89188SOL    HW269462   1.952   0.010   7.388
89189SOL     OW69463   0.545   0.219   1.509
89189SOL    HW169464   0.553   0.171   1.426
89189SOL    HW269465   0.488   0.164   1.563
89190SOL     OW69466  12.252   7.061   2.550
89190SOL    HW169467  12.235   7.114   2.628
89190SOL    HW269468  12.330   7.101   2.511
89191SOL     OW69469   3.750  13.225   6.137
89191SOL    HW169470   3.763  13.136   6.103
89191SOL    HW269471   3.832  13.270   6.117
89192SOL     OW69472   8.145   8.638   9.484
89192SOL    HW169473   8.151   8.549   9.449
89192SOL    HW269474   8.090   8.685   9.421
89193SOL     OW69475  13.425  14.500   6.583
89193SOL    HW169476  13.334  14.496   6.557
89193SOL    HW269477  13.434  14.584   6.627
89194SOL     OW69478   4.917   8.250  11.690
89194SOL    HW169479   4.986   8.190  11.719
89194SOL    HW269480   4.952   8.289  11.610
89195SOL     OW69481  13.136   6.826   9.016
89195SOL    HW169482  13.094   6.899   9.062
89195SOL    HW269483  13.137   6.853   8.924
89196SOL     OW69484   7.342   8.412  14.574
89196SOL    HW169485   7.387   8.488  14.612
89196SOL    HW269486   7.384   8.337  14.614
89197SOL     OW69487  11.657   4.968   1.547
89197SOL    HW169488  11.580   5.010   1.508
89197SOL    HW269489  11.725   4.977   1.481
89198SOL     OW69490   9.054   6.922   9.967
89198SOL    HW169491   9.097   6.921   9.881
89198SOL    HW269492   9.042   6.829   9.988
89199SOL     OW69493   7.247  11.920  10.642
89199SOL    HW169494   7.181  11.865  10.600
89199SOL    HW269495   7.235  12.007  10.603
89200SOL     OW69496   9.939   6.412   5.444
89200SOL    HW169497   9.994   6.468   5.389
89200SOL    HW269498   9.985   6.408   5.527
89201SOL     OW69499   4.515   1.688   3.657
89201SOL    HW169500   4.525   1.707   3.564
89201SOL    HW269501   4.603   1.664   3.686
89202SOL     OW69502   0.975   6.568   1.314
89202SOL    HW169503   0.928   6.607   1.388
89202SOL    HW269504   0.956   6.475   1.320
89203SOL     OW69505   5.048  13.776   9.710
89203SOL    HW169506   5.069  13.863   9.677
89203SOL    HW269507   4.976  13.745   9.655
89204SOL     OW69508   6.461  13.865   3.851
89204SOL    HW169509   6.400  13.935   3.878
89204SOL    HW269510   6.548  13.902   3.867
89205SOL     OW69511  11.596   6.968   9.094
89205SOL    HW169512  11.611   6.985   9.187
89205SOL    HW269513  11.511   6.924   9.092
89206SOL     OW69514  10.506   2.393   3.279
89206SOL    HW169515  10.599   2.400   3.304
89206SOL    HW269516  10.462   2.365   3.360
89207SOL     OW69517   4.197  11.123   1.476
89207SOL    HW169518   4.264  11.054   1.477
89207SOL    HW269519   4.247  11.204   1.470
89208SOL     OW69520  12.947   5.843   4.357
89208SOL    HW169521  12.876   5.780   4.345
89208SOL    HW269522  13.008   5.798   4.416
89209SOL     OW69523  13.941   7.753   2.759
89209SOL    HW169524  13.895   7.837   2.759
89209SOL    HW269525  13.882   7.694   2.805
89210SOL     OW69526   2.499  10.377   3.957
89210SOL    HW169527   2.520  10.323   4.033
89210SOL    HW269528   2.479  10.463   3.994
89211SOL     OW69529   8.579   6.421   0.343
89211SOL    HW169530   8.535   6.492   0.388
89211SOL    HW269531   8.528   6.406   0.264
89212SOL     OW69532   3.218   2.573  12.493
89212SOL    HW169533   3.247   2.483  12.479
89212SOL    HW269534   3.264   2.623  12.425
89213SOL     OW69535   9.682   0.024   2.334
89213SOL    HW169536   9.618   0.092   2.355
89213SOL    HW269537   9.665  14.829   2.397
89214SOL     OW69538  11.618   9.278   2.446
89214SOL    HW169539  11.555   9.224   2.398
89214SOL    HW269540  11.565   9.347   2.485
89215SOL     OW69541  10.556  12.602  10.990
89215SOL    HW169542  10.636  12.580  10.943
89215SOL    HW269543  10.505  12.654  10.928
89216SOL     OW69544   0.952   5.791   7.080
89216SOL    HW169545   0.920   5.858   7.140
89216SOL    HW269546   1.011   5.737   7.132
89217SOL     OW69547   2.293   3.382   8.757
89217SOL    HW169548   2.295   3.437   8.835
89217SOL    HW269549   2.306   3.444   8.684
89218SOL     OW69550   5.396   8.934   1.729
89218SOL    HW169551   5.380   9.023   1.699
89218SOL    HW269552   5.329   8.918   1.796
89219SOL     OW69553   0.190   3.186   1.132
89219SOL    HW169554   0.098   3.211   1.142
89219SOL    HW269555   0.209   3.205   1.040
89220SOL     OW69556  12.066  11.435   1.569
89220SOL    HW169557  11.974  11.455   1.584
89220SOL    HW269558  12.114  11.499   1.622
89221SOL     OW69559  12.305  10.852   9.559
89221SOL    HW169560  12.385  10.901   9.540
89221SOL    HW269561  12.250  10.913   9.607
89222SOL     OW69562   8.662   6.875  11.265
89222SOL    HW169563   8.723   6.825  11.211
89222SOL    HW269564   8.631   6.813  11.330
89223SOL     OW69565  14.381   5.524   8.033
89223SOL    HW169566  14.399   5.503   7.942
89223SOL    HW269567  14.418   5.612   8.045
89224SOL     OW69568  13.568   1.753   7.620
89224SOL    HW169569  13.615   1.684   7.574
89224SOL    HW269570  13.499   1.707   7.668
89225SOL     OW69571  14.518  10.951   7.474
89225SOL    HW169572  14.522  11.047   7.468
89225SOL    HW269573  14.605  10.926   7.503
89226SOL     OW69574  10.759  12.072   0.896
89226SOL    HW169575  10.721  12.143   0.947
89226SOL    HW269576  10.852  12.073   0.918
89227SOL     OW69577   4.678   1.762   8.315
89227SOL    HW169578   4.728   1.814   8.377
89227SOL    HW269579   4.738   1.749   8.241
89228SOL     OW69580   7.617   2.013   2.518
89228SOL    HW169581   7.568   1.962   2.453
89228SOL    HW269582   7.586   2.103   2.507
89229SOL     OW69583   0.869   2.157   5.006
89229SOL    HW169584   0.775   2.144   5.022
89229SOL    HW269585   0.898   2.211   5.080
89230SOL     OW69586   3.153   4.621   3.241
89230SOL    HW169587   3.238   4.578   3.232
89230SOL    HW269588   3.168   4.692   3.304
89231SOL     OW69589   7.888   6.138  12.556
89231SOL    HW169590   7.809   6.190  12.572
89231SOL    HW269591   7.861   6.073  12.491
89232SOL     OW69592   6.898   6.679   9.582
89232SOL    HW169593   6.966   6.705   9.645
89232SOL    HW269594   6.852   6.761   9.563
89233SOL     OW69595   3.112  12.287   5.681
89233SOL    HW169596   3.127  12.298   5.775
89233SOL    HW269597   3.017  12.282   5.673
89234SOL     OW69598   2.489   0.526  12.837
89234SOL    HW169599   2.398   0.555  12.845
89234SOL    HW269600   2.484   0.449  12.780
89235SOL     OW69601  12.824   4.125   3.335
89235SOL    HW169602  12.872   4.205   3.313
89235SOL    HW269603  12.764   4.152   3.405
89236SOL     OW69604   7.997   4.139   3.984
89236SOL    HW169605   8.041   4.081   4.047
89236SOL    HW269606   8.046   4.127   3.903
89237SOL     OW69607   9.355  14.807   9.119
89237SOL    HW169608   9.320  14.764   9.041
89237SOL    HW269609   9.338   0.025   9.105
89238SOL     OW69610   2.724   3.466   4.958
89238SOL    HW169611   2.672   3.528   4.908
89238SOL    HW269612   2.783   3.521   5.009
89239SOL     OW69613   7.394  11.805  11.396
89239SOL    HW169614   7.353  11.777  11.478
89239SOL    HW269615   7.333  11.776  11.328
89240SOL     OW69616   1.523   0.065  10.452
89240SOL    HW169617   1.504   0.006  10.379
89240SOL    HW269618   1.618   0.075  10.450
89241SOL     OW69619   5.758   7.346   3.360
89241SOL    HW169620   5.718   7.318   3.278
89241SOL    HW269621   5.843   7.303   3.362
89242SOL     OW69622   5.891   9.560   2.159
89242SOL    HW169623   5.976   9.564   2.116
89242SOL    HW269624   5.899   9.620   2.234
89243SOL     OW69625  10.822   7.899   9.714
89243SOL    HW169626  10.854   7.922   9.627
89243SOL    HW269627  10.746   7.957   9.728
89244SOL     OW69628   8.353  12.138   9.626
89244SOL    HW169629   8.330  12.051   9.593
89244SOL    HW269630   8.271  12.187   9.625
89245SOL     OW69631  14.510   6.652   9.833
89245SOL    HW169632  14.499   6.614   9.746
89245SOL    HW269633  14.445   6.722   9.837
89246SOL     OW69634   9.035  13.140   4.573
89246SOL    HW169635   9.026  13.048   4.600
89246SOL    HW269636   9.066  13.135   4.483
89247SOL     OW69637   0.502   5.119   8.828
89247SOL    HW169638   0.507   5.211   8.851
89247SOL    HW269639   0.523   5.073   8.909
89248SOL     OW69640  13.290   5.988   8.333
89248SOL    HW169641  13.196   5.969   8.333
89248SOL    HW269642  13.300   6.061   8.393
89249SOL     OW69643   9.723   7.717   3.847
89249SOL    HW169644   9.681   7.705   3.761
89249SOL    HW269645   9.665   7.778   3.893
89250SOL     OW69646  11.241   6.307  12.813
89250SOL    HW169647  11.276   6.251  12.744
89250SOL    HW269648  11.244   6.395  12.776
89251SOL     OW69649   1.984   5.874   1.953
89251SOL    HW169650   2.064   5.828   1.928
89251SOL    HW269651   1.946   5.821   2.023
89252SOL     OW69652   4.817   6.819   4.605
89252SOL    HW169653   4.831   6.776   4.520
89252SOL    HW269654   4.758   6.892   4.585
89253SOL     OW69655  14.552  12.693   2.611
89253SOL    HW169656  14.511  12.779   2.608
89253SOL    HW269657  14.615  12.693   2.539
89254SOL     OW69658   0.331   4.675  14.558
89254SOL    HW169659   0.343   4.652  14.466
89254SOL    HW269660   0.306   4.767  14.557
89255SOL     OW69661  12.144   8.068   8.663
89255SOL    HW169662  12.107   8.126   8.729
89255SOL    HW269663  12.230   8.105   8.644
89256SOL     OW69664   1.883  12.645  11.690
89256SOL    HW169665   1.839  12.729  11.697
89256SOL    HW269666   1.893  12.616  11.781
89257SOL     OW69667   6.053   9.536   8.691
89257SOL    HW169668   6.098   9.454   8.712
89257SOL    HW269669   6.109   9.604   8.727
89258SOL     OW69670  10.262  11.956   4.773
89258SOL    HW169671  10.308  11.885   4.728
89258SOL    HW269672  10.174  11.954   4.736
89259SOL     OW69673  13.426  11.424  10.126
89259SOL    HW169674  13.507  11.475  10.137
89259SOL    HW269675  13.444  11.341  10.170
89260SOL     OW69676   6.078   4.556  10.353
89260SOL    HW169677   6.138   4.530  10.423
89260SOL    HW269678   6.073   4.479  10.296
89261SOL     OW69679   7.755  10.023   3.752
89261SOL    HW169680   7.844  10.044   3.779
89261SOL    HW269681   7.705  10.104   3.766
89262SOL     OW69682  11.536   3.403   1.753
89262SOL    HW169683  11.613   3.378   1.702
89262SOL    HW269684  11.567   3.406   1.843
89263SOL     OW69685   0.980   7.460   0.759
89263SOL    HW169686   0.914   7.452   0.828
89263SOL    HW269687   1.062   7.437   0.802
89264SOL     OW69688   9.696  11.530   6.604
89264SOL    HW169689   9.780  11.572   6.583
89264SOL    HW269690   9.716  11.473   6.678
89265SOL     OW69691  13.053  11.166  11.486
89265SOL    HW169692  13.081  11.257  11.478
89265SOL    HW269693  12.959  11.169  11.468
89266SOL     OW69694  13.143  10.475   0.927
89266SOL    HW169695  13.239  10.479   0.924
89266SOL    HW269696  13.116  10.562   0.956
89267SOL     OW69697   3.133   0.834   2.991
89267SOL    HW169698   3.207   0.798   3.040
89267SOL    HW269699   3.075   0.870   3.059
89268SOL     OW69700   3.350   5.782   1.572
89268SOL    HW169701   3.325   5.696   1.539
89268SOL    HW269702   3.267   5.829   1.579
89269SOL     OW69703  12.079  11.827  10.692
89269SOL    HW169704  12.001  11.772  10.702
89269SOL    HW269705  12.099  11.824  10.598
89270SOL     OW69706   4.763  13.337   4.381
89270SOL    HW169707   4.854  13.329   4.350
89270SOL    HW269708   4.760  13.284   4.461
89271SOL     OW69709   3.099   2.291  11.408
89271SOL    HW169710   3.194   2.288  11.402
89271SOL    HW269711   3.081   2.357  11.475
89272SOL     OW69712  11.148   6.329   4.596
89272SOL    HW169713  11.061   6.342   4.635
89272SOL    HW269714  11.130   6.314   4.503
89273SOL     OW69715   0.816   5.542  11.961
89273SOL    HW169716   0.755   5.500  11.901
89273SOL    HW269717   0.763   5.608  12.007
89274SOL     OW69718   0.776   0.851   7.622
89274SOL    HW169719   0.777   0.756   7.635
89274SOL    HW269720   0.690   0.868   7.584
89275SOL     OW69721   3.304   5.077   6.991
89275SOL    HW169722   3.237   5.117   7.047
89275SOL    HW269723   3.377   5.139   6.994
89276SOL     OW69724   4.773   2.291   0.451
89276SOL    HW169725   4.760   2.369   0.397
89276SOL    HW269726   4.717   2.225   0.410
89277SOL     OW69727   3.182   6.554  13.092
89277SOL    HW169728   3.205   6.637  13.048
89277SOL    HW269729   3.257   6.535  13.148
89278SOL     OW69730   0.900  12.804   1.063
89278SOL    HW169731   0.922  12.896   1.078
89278SOL    HW269732   0.839  12.805   0.989
89279SOL     OW69733   7.305  13.413  14.395
89279SOL    HW169734   7.327  13.381  14.483
89279SOL    HW269735   7.328  13.340  14.337
89280SOL     OW69736   7.938   0.446   9.630
89280SOL    HW169737   7.964   0.427   9.541
89280SOL    HW269738   8.012   0.420   9.684
89281SOL     OW69739   1.565   2.058   4.955
89281SOL    HW169740   1.612   1.997   5.012
89281SOL    HW269741   1.533   2.003   4.883
89282SOL     OW69742   0.751   2.755   3.094
89282SOL    HW169743   0.761   2.837   3.046
89282SOL    HW269744   0.774   2.687   3.031
89283SOL     OW69745   1.526  10.218   4.287
89283SOL    HW169746   1.433  10.201   4.306
89283SOL    HW269747   1.546  10.162   4.212
89284SOL     OW69748   6.927   8.954   8.885
89284SOL    HW169749   6.965   8.867   8.893
89284SOL    HW269750   6.928   8.973   8.791
89285SOL     OW69751   7.413  14.655  12.813
89285SOL    HW169752   7.393  14.732  12.865
89285SOL    HW269753   7.395  14.682  12.723
89286SOL     OW69754   9.145   6.900   0.580
89286SOL    HW169755   9.062   6.930   0.617
89286SOL    HW269756   9.177   6.974   0.530
89287SOL     OW69757  12.877   6.079  13.028
89287SOL    HW169758  12.854   5.987  13.043
89287SOL    HW269759  12.823   6.106  12.954
89288SOL     OW69760   9.591   5.962   4.014
89288SOL    HW169761   9.686   5.947   4.012
89288SOL    HW269762   9.582   6.057   4.011
89289SOL     OW69763  12.540   6.020   6.790
89289SOL    HW169764  12.511   5.992   6.877
89289SOL    HW269765  12.626   6.059   6.805
89290SOL     OW69766  13.721   7.931   9.028
89290SOL    HW169767  13.715   7.992   8.955
89290SOL    HW269768  13.717   7.987   9.106
89291SOL     OW69769   7.641   5.035   4.427
89291SOL    HW169770   7.615   4.974   4.497
89291SOL    HW269771   7.687   4.979   4.363
89292SOL     OW69772   0.667  10.381  13.245
89292SOL    HW169773   0.601  10.325  13.286
89292SOL    HW269774   0.743  10.323  13.232
89293SOL     OW69775  13.148   1.806  13.343
89293SOL    HW169776  13.223   1.789  13.286
89293SOL    HW269777  13.072   1.805  13.285
89294SOL     OW69778   7.207   7.262   2.562
89294SOL    HW169779   7.180   7.195   2.625
89294SOL    HW269780   7.247   7.330   2.616
89295SOL     OW69781  12.061   3.183   1.807
89295SOL    HW169782  12.064   3.121   1.734
89295SOL    HW269783  11.968   3.196   1.824
89296SOL     OW69784   5.497   3.025   3.811
89296SOL    HW169785   5.405   3.039   3.833
89296SOL    HW269786   5.528   3.111   3.781
89297SOL     OW69787   7.813   5.293   1.640
89297SOL    HW169788   7.748   5.298   1.710
89297SOL    HW269789   7.856   5.208   1.653
89298SOL     OW69790   4.998   3.828   1.927
89298SOL    HW169791   4.951   3.775   1.991
89298SOL    HW269792   5.005   3.773   1.850
89299SOL     OW69793  11.780  10.340   6.198
89299SOL    HW169794  11.820  10.321   6.283
89299SOL    HW269795  11.765  10.254   6.159
89300SOL     OW69796   0.356   0.969   7.646
89300SOL    HW169797   0.268   1.003   7.665
89300SOL    HW269798   0.415   1.035   7.681
89301SOL     OW69799  13.126   6.171   5.787
89301SOL    HW169800  13.034   6.197   5.780
89301SOL    HW269801  13.137   6.148   5.880
89302SOL     OW69802   0.551   3.378  11.135
89302SOL    HW169803   0.562   3.396  11.041
89302SOL    HW269804   0.459   3.397  11.152
89303SOL     OW69805  11.569   2.224   4.139
89303SOL    HW169806  11.663   2.221   4.119
89303SOL    HW269807  11.565   2.259   4.228
89304SOL     OW69808   1.331  13.020   6.064
89304SOL    HW169809   1.269  13.093   6.063
89304SOL    HW269810   1.305  12.967   6.139
89305SOL     OW69811   0.994  13.163  12.132
89305SOL    HW169812   0.900  13.150  12.142
89305SOL    HW269813   1.011  13.249  12.171
89306SOL     OW69814  10.372  13.889  12.087
89306SOL    HW169815  10.413  13.971  12.115
89306SOL    HW269816  10.317  13.913  12.013
89307SOL     OW69817   5.594   0.629  10.807
89307SOL    HW169818   5.677   0.673  10.826
89307SOL    HW269819   5.618   0.536  10.798
89308SOL     OW69820   2.847  11.872   3.202
89308SOL    HW169821   2.894  11.926   3.139
89308SOL    HW269822   2.834  11.928   3.278
89309SOL     OW69823   4.673   8.513   6.476
89309SOL    HW169824   4.579   8.531   6.485
89309SOL    HW269825   4.681   8.419   6.491
89310SOL     OW69826   9.200   7.080  14.446
89310SOL    HW169827   9.178   7.104  14.536
89310SOL    HW269828   9.118   7.047  14.410
89311SOL     OW69829   3.481  14.066   6.738
89311SOL    HW169830   3.422  13.999   6.703
89311SOL    HW269831   3.518  14.026   6.817
89312SOL     OW69832   1.667   9.046   8.459
89312SOL    HW169833   1.593   9.107   8.452
89312SOL    HW269834   1.743   9.102   8.475
89313SOL     OW69835  13.203   4.174   9.532
89313SOL    HW169836  13.193   4.266   9.506
89313SOL    HW269837  13.113   4.141   9.537
89314SOL     OW69838  12.482  14.006   2.658
89314SOL    HW169839  12.545  14.000   2.730
89314SOL    HW269840  12.534  13.990   2.579
89315SOL     OW69841   5.060   0.811   7.742
89315SOL    HW169842   5.148   0.775   7.735
89315SOL    HW269843   5.041   0.810   7.836
89316SOL     OW69844  12.609  13.414  11.887
89316SOL    HW169845  12.611  13.371  11.802
89316SOL    HW269846  12.590  13.506  11.868
89317SOL     OW69847  12.843   6.506  14.711
89317SOL    HW169848  12.932   6.513  14.678
89317SOL    HW269849  12.794   6.465  14.639
89318SOL     OW69850   3.325   7.996  13.539
89318SOL    HW169851   3.356   8.061  13.475
89318SOL    HW269852   3.385   7.922  13.528
89319SOL     OW69853   9.024   9.798   6.858
89319SOL    HW169854   8.966   9.874   6.851
89319SOL    HW269855   8.995   9.752   6.936
89320SOL     OW69856   8.379   1.266  10.196
89320SOL    HW169857   8.422   1.216  10.265
89320SOL    HW269858   8.297   1.219  10.180
89321SOL     OW69859  11.592   2.546   4.923
89321SOL    HW169860  11.532   2.605   4.968
89321SOL    HW269861  11.674   2.553   4.972
89322SOL     OW69862   5.908   0.888   3.115
89322SOL    HW169863   5.898   0.869   3.022
89322SOL    HW269864   5.982   0.833   3.143
89323SOL     OW69865   6.282  13.944   0.889
89323SOL    HW169866   6.359  13.911   0.843
89323SOL    HW269867   6.213  13.880   0.871
89324SOL     OW69868  10.582   5.850   0.756
89324SOL    HW169869  10.492   5.830   0.729
89324SOL    HW269870  10.635   5.779   0.719
89325SOL     OW69871   1.827   9.786   1.094
89325SOL    HW169872   1.771   9.711   1.074
89325SOL    HW269873   1.873   9.804   1.012
89326SOL     OW69874   1.606   2.409   9.540
89326SOL    HW169875   1.646   2.342   9.595
89326SOL    HW269876   1.585   2.481   9.600
89327SOL     OW69877   9.749   2.939   9.757
89327SOL    HW169878   9.803   2.872   9.799
89327SOL    HW269879   9.796   2.961   9.677
89328SOL     OW69880   4.192   8.294  12.037
89328SOL    HW169881   4.229   8.248  11.962
89328SOL    HW269882   4.248   8.371  12.048
89329SOL     OW69883  13.140  14.813  12.588
89329SOL    HW169884  13.126  14.870  12.663
89329SOL    HW269885  13.234  14.817  12.572
89330SOL     OW69886  13.987   7.752   6.427
89330SOL    HW169887  14.052   7.742   6.496
89330SOL    HW269888  13.916   7.693   6.453
89331SOL     OW69889   8.644  14.008   3.735
89331SOL    HW169890   8.551  14.008   3.754
89331SOL    HW269891   8.686  14.004   3.821
89332SOL     OW69892   9.236  10.976   4.850
89332SOL    HW169893   9.153  11.009   4.884
89332SOL    HW269894   9.281  10.941   4.927
89333SOL     OW69895  12.927   2.130  12.477
89333SOL    HW169896  12.962   2.208  12.519
89333SOL    HW269897  12.839   2.155  12.449
89334SOL     OW69898   6.545   5.802   1.767
89334SOL    HW169899   6.494   5.755   1.701
89334SOL    HW269900   6.619   5.839   1.718
89335SOL     OW69901  13.648   6.463   9.680
89335SOL    HW169902  13.581   6.395   9.673
89335SOL    HW269903  13.724   6.418   9.717
89336SOL     OW69904   4.078  13.244   4.186
89336SOL    HW169905   3.998  13.191   4.182
89336SOL    HW269906   4.050  13.331   4.157
89337SOL     OW69907   4.424  10.439   1.842
89337SOL    HW169908   4.387  10.470   1.759
89337SOL    HW269909   4.351  10.393   1.884
89338SOL     OW69910   0.638   3.626  14.141
89338SOL    HW169911   0.722   3.583  14.129
89338SOL    HW269912   0.593   3.615  14.057
89339SOL     OW69913   3.931  14.628  10.785
89339SOL    HW169914   3.927  14.670  10.871
89339SOL    HW269915   3.879  14.685  10.728
89340SOL     OW69916  12.599   2.088   3.920
89340SOL    HW169917  12.691   2.061   3.924
89340SOL    HW269918  12.550   2.012   3.951
89341SOL     OW69919  11.128  13.378   8.060
89341SOL    HW169920  11.162  13.325   8.132
89341SOL    HW269921  11.140  13.468   8.088
89342SOL     OW69922  10.999   6.333   0.533
89342SOL    HW169923  10.941   6.266   0.569
89342SOL    HW269924  11.087   6.297   0.546
89343SOL     OW69925   5.074   1.228  11.859
89343SOL    HW169926   5.068   1.153  11.799
89343SOL    HW269927   4.987   1.267  11.858
89344SOL     OW69928  12.372   3.961   3.270
89344SOL    HW169929  12.403   3.916   3.192
89344SOL    HW269930  12.414   4.047   3.267
89345SOL     OW69931   4.469   9.437   8.533
89345SOL    HW169932   4.378   9.409   8.531
89345SOL    HW269933   4.519   9.355   8.527
89346SOL     OW69934  14.506   0.898  14.397
89346SOL    HW169935  14.465   0.883  14.482
89346SOL    HW269936  14.540   0.812  14.371
89347SOL     OW69937  11.865   2.390   2.525
89347SOL    HW169938  11.884   2.296   2.524
89347SOL    HW269939  11.928   2.426   2.587
89348SOL     OW69940  13.704   2.821   6.016
89348SOL    HW169941  13.781   2.843   6.070
89348SOL    HW269942  13.741   2.796   5.932
89349SOL     OW69943   1.621   4.928   2.104
89349SOL    HW169944   1.603   4.943   2.011
89349SOL    HW269945   1.716   4.930   2.111
89350SOL     OW69946   3.087  13.736   5.586
89350SOL    HW169947   3.136  13.664   5.625
89350SOL    HW269948   2.997  13.724   5.618
89351SOL     OW69949   1.135  14.757   9.505
89351SOL    HW169950   1.045  14.781   9.483
89351SOL    HW269951   1.128  14.667   9.537
89352SOL     OW69952   9.789  14.060   2.398
89352SOL    HW169953   9.803  14.146   2.359
89352SOL    HW269954   9.813  13.998   2.329
89353SOL     OW69955  13.925  10.921  11.638
89353SOL    HW169956  13.835  10.897  11.660
89353SOL    HW269957  13.927  10.919  11.542
89354SOL     OW69958  10.759   6.887   5.142
89354SOL    HW169959  10.814   6.932   5.078
89354SOL    HW269960  10.788   6.796   5.140
89355SOL     OW69961  12.750   3.282   2.929
89355SOL    HW169962  12.802   3.262   3.007
89355SOL    HW269963  12.755   3.203   2.876
89356SOL     OW69964  13.670   8.924   0.112
89356SOL    HW169965  13.606   8.995   0.111
89356SOL    HW269966  13.686   8.907   0.204
89357SOL     OW69967   6.012   4.657   7.313
89357SOL    HW169968   5.960   4.600   7.256
89357SOL    HW269969   6.065   4.597   7.365
89358SOL     OW69970   1.076   4.707  11.610
89358SOL    HW169971   1.071   4.803  11.608
89358SOL    HW269972   1.156   4.689  11.659
89359SOL     OW69973   1.395  13.522   6.078
89359SOL    HW169974   1.451  13.525   6.156
89359SOL    HW269975   1.366  13.613   6.066
89360SOL     OW69976   6.890   0.711  11.829
89360SOL    HW169977   6.945   0.699  11.752
89360SOL    HW269978   6.801   0.722  11.794
89361SOL     OW69979   1.416   9.287   6.128
89361SOL    HW169980   1.475   9.290   6.204
89361SOL    HW269981   1.432   9.202   6.089
89362SOL     OW69982  14.152   2.773   1.129
89362SOL    HW169983  14.171   2.843   1.066
89362SOL    HW269984  14.094   2.714   1.082
89363SOL     OW69985   1.903  12.636  12.412
89363SOL    HW169986   1.859  12.718  12.434
89363SOL    HW269987   1.849  12.597  12.344
89364SOL     OW69988   7.086  13.363   3.031
89364SOL    HW169989   7.059  13.400   3.115
89364SOL    HW269990   7.167  13.409   3.010
89365SOL     OW69991   4.598   6.671   2.941
89365SOL    HW169992   4.662   6.601   2.955
89365SOL    HW269993   4.574   6.664   2.849
89366SOL     OW69994   6.158   1.391   7.273
89366SOL    HW169995   6.221   1.382   7.202
89366SOL    HW269996   6.107   1.469   7.250
89367SOL     OW69997   5.182  12.531  11.512
89367SOL    HW169998   5.118  12.500  11.448
89367SOL    HW269999   5.199  12.622  11.487
89368SOL     OW70000   1.268  11.468  11.151
89368SOL    HW170001   1.208  11.401  11.183
89368SOL    HW270002   1.263  11.538  11.217
89369SOL     OW70003   2.905   6.705   2.988
89369SOL    HW170004   2.888   6.647   2.914
89369SOL    HW270005   2.955   6.652   3.050
89370SOL     OW70006  11.786   8.519   1.941
89370SOL    HW170007  11.806   8.610   1.963
89370SOL    HW270008  11.705   8.524   1.891
89371SOL     OW70009  14.700   4.487   7.418
89371SOL    HW170010  14.630   4.445   7.468
89371SOL    HW270011  14.656   4.558   7.371
89372SOL     OW70012   9.445  10.866   3.515
89372SOL    HW170013   9.429  10.795   3.454
89372SOL    HW270014   9.538  10.885   3.507
89373SOL     OW70015   1.195  11.331  10.666
89373SOL    HW170016   1.213  11.404  10.724
89373SOL    HW270017   1.274  11.277  10.670
89374SOL     OW70018   2.951  14.436  10.149
89374SOL    HW170019   3.015  14.373  10.182
89374SOL    HW270020   3.001  14.516  10.136
89375SOL     OW70021   9.710   5.248  10.982
89375SOL    HW170022   9.654   5.204  10.918
89375SOL    HW270023   9.680   5.339  10.983
89376SOL     OW70024  14.317   5.515  14.426
89376SOL    HW170025  14.377   5.444  14.447
89376SOL    HW270026  14.351   5.591  14.474
89377SOL     OW70027  13.047   8.677   6.552
89377SOL    HW170028  12.984   8.695   6.621
89377SOL    HW270029  12.993   8.650   6.477
89378SOL     OW70030   6.442   2.733   0.604
89378SOL    HW170031   6.442   2.642   0.634
89378SOL    HW270032   6.362   2.770   0.641
89379SOL     OW70033   9.355   1.290  14.173
89379SOL    HW170034   9.440   1.256  14.142
89379SOL    HW270035   9.355   1.273  14.267
89380SOL     OW70036  13.845  14.266   8.681
89380SOL    HW170037  13.772  14.279   8.742
89380SOL    HW270038  13.822  14.319   8.604
89381SOL     OW70039   4.067   2.171  14.508
89381SOL    HW170040   4.128   2.232  14.467
89381SOL    HW270041   4.072   2.092  14.454
89382SOL     OW70042   6.018  10.868   8.466
89382SOL    HW170043   6.076  10.835   8.397
89382SOL    HW270044   6.077  10.907   8.531
89383SOL     OW70045   5.584   1.743   4.930
89383SOL    HW170046   5.643   1.740   5.005
89383SOL    HW270047   5.551   1.833   4.928
89384SOL     OW70048   7.343   7.797  12.516
89384SOL    HW170049   7.432   7.782  12.484
89384SOL    HW270050   7.340   7.891  12.533
89385SOL     OW70051   2.839  10.564  13.322
89385SOL    HW170052   2.853  10.529  13.234
89385SOL    HW270053   2.878  10.499  13.380
89386SOL     OW70054   1.649   8.069   8.996
89386SOL    HW170055   1.676   8.116   8.917
89386SOL    HW270056   1.580   8.122   9.034
89387SOL     OW70057  11.761   3.690   7.419
89387SOL    HW170058  11.773   3.689   7.324
89387SOL    HW270059  11.762   3.597   7.445
89388SOL     OW70060   7.342  10.998   8.356
89388SOL    HW170061   7.290  11.068   8.394
89388SOL    HW270062   7.319  10.997   8.263
89389SOL     OW70063   2.408   6.998   9.482
89389SOL    HW170064   2.455   7.078   9.456
89389SOL    HW270065   2.351   7.026   9.554
89390SOL     OW70066   6.698  14.213  11.431
89390SOL    HW170067   6.671  14.172  11.349
89390SOL    HW270068   6.623  14.265  11.459
89391SOL     OW70069   8.316   7.898   1.674
89391SOL    HW170070   8.312   7.900   1.770
89391SOL    HW270071   8.360   7.816   1.653
89392SOL     OW70072  14.288   5.966   9.251
89392SOL    HW170073  14.275   6.017   9.171
89392SOL    HW270074  14.230   5.890   9.240
89393SOL     OW70075   0.049  12.612  12.849
89393SOL    HW170076   0.131  12.626  12.896
89393SOL    HW270077   0.073  12.619  12.756
89394SOL     OW70078   1.424   3.870   5.810
89394SOL    HW170079   1.369   3.876   5.732
89394SOL    HW270080   1.367   3.832   5.877
89395SOL     OW70081   0.228   5.806   6.460
89395SOL    HW170082   0.148   5.761   6.485
89395SOL    HW270083   0.206   5.851   6.379
89396SOL     OW70084   7.350   9.271   7.180
89396SOL    HW170085   7.303   9.232   7.106
89396SOL    HW270086   7.443   9.256   7.160
89397SOL     OW70087   2.926   3.990  11.605
89397SOL    HW170088   3.014   3.960  11.583
89397SOL    HW270089   2.869   3.942  11.545
89398SOL     OW70090   2.815   5.376  11.441
89398SOL    HW170091   2.782   5.466  11.442
89398SOL    HW270092   2.782   5.339  11.359
89399SOL     OW70093  12.301   1.866   0.891
89399SOL    HW170094  12.244   1.882   0.966
89399SOL    HW270095  12.371   1.931   0.900
89400SOL     OW70096   9.200   4.351   1.939
89400SOL    HW170097   9.153   4.349   1.856
89400SOL    HW270098   9.168   4.431   1.982
89401SOL     OW70099   2.347  14.799   0.884
89401SOL    HW170100   2.255  14.827   0.886
89401SOL    HW270101   2.376  14.807   0.974
89402SOL     OW70102   1.014   1.981  10.959
89402SOL    HW170103   1.018   2.076  10.947
89402SOL    HW270104   0.936   1.954  10.911
89403SOL     OW70105  13.660   0.548   2.404
89403SOL    HW170106  13.701   0.542   2.318
89403SOL    HW270107  13.679   0.464   2.446
89404SOL     OW70108   6.296   5.459   1.839
89404SOL    HW170109   6.317   5.367   1.855
89404SOL    HW270110   6.229   5.480   1.904
89405SOL     OW70111   6.872  13.966   4.654
89405SOL    HW170112   6.788  13.985   4.697
89405SOL    HW270113   6.912  14.052   4.640
89406SOL     OW70114  13.265   5.783   6.147
89406SOL    HW170115  13.207   5.822   6.212
89406SOL    HW270116  13.228   5.808   6.063
89407SOL     OW70117  14.831  13.213   5.238
89407SOL    HW170118  14.823  13.127   5.196
89407SOL    HW270119  14.838  13.274   5.165
89408SOL     OW70120   8.329   0.754  10.765
89408SOL    HW170121   8.424   0.761  10.752
89408SOL    HW270122   8.305   0.835  10.809
89409SOL     OW70123   8.233   8.539   6.523
89409SOL    HW170124   8.323   8.563   6.544
89409SOL    HW270125   8.185   8.551   6.605
89410SOL     OW70126  10.219   2.640   6.758
89410SOL    HW170127  10.126   2.660   6.764
89410SOL    HW270128  10.246   2.677   6.674
89411SOL     OW70129   0.558   2.370  11.212
89411SOL    HW170130   0.617   2.311  11.261
89411SOL    HW270131   0.616   2.436  11.174
89412SOL     OW70132   1.992  11.428  12.140
89412SOL    HW170133   2.077  11.472  12.135
89412SOL    HW270134   1.928  11.498  12.146
89413SOL     OW70135  12.556   5.760   6.095
89413SOL    HW170136  12.575   5.670   6.123
89413SOL    HW270137  12.633   5.809   6.120
89414SOL     OW70138  11.131   9.846   1.822
89414SOL    HW170139  11.036   9.861   1.816
89414SOL    HW270140  11.150   9.852   1.915
89415SOL     OW70141  14.012  14.622   1.040
89415SOL    HW170142  14.017  14.546   1.098
89415SOL    HW270143  14.031  14.697   1.097
89416SOL     OW70144   2.423  13.938   2.374
89416SOL    HW170145   2.346  13.983   2.338
89416SOL    HW270146   2.468  14.005   2.425
89417SOL     OW70147  14.221   2.801   4.530
89417SOL    HW170148  14.262   2.827   4.613
89417SOL    HW270149  14.295   2.776   4.474
89418SOL     OW70150   9.694   9.813   0.202
89418SOL    HW170151   9.605   9.841   0.181
89418SOL    HW270152   9.750   9.857   0.138
89419SOL     OW70153   0.847  12.502   5.081
89419SOL    HW170154   0.919  12.525   5.140
89419SOL    HW270155   0.778  12.565   5.103
89420SOL     OW70156  13.456  11.910  12.337
89420SOL    HW170157  13.386  11.855  12.372
89420SOL    HW270158  13.423  11.940  12.252
89421SOL     OW70159  12.578   9.912   9.158
89421SOL    HW170160  12.616   9.973   9.095
89421SOL    HW270161  12.508   9.961   9.201
89422SOL     OW70162   9.670   8.894   1.026
89422SOL    HW170163   9.746   8.928   0.978
89422SOL    HW270164   9.704   8.818   1.072
89423SOL     OW70165   6.847  13.824   3.098
89423SOL    HW170166   6.916  13.810   3.034
89423SOL    HW270167   6.796  13.897   3.063
89424SOL     OW70168   4.202   0.319   0.990
89424SOL    HW170169   4.168   0.408   0.998
89424SOL    HW270170   4.133   0.271   0.944
89425SOL     OW70171   7.943   0.295  10.831
89425SOL    HW170172   7.876   0.362  10.846
89425SOL    HW270173   8.025   0.337  10.855
89426SOL     OW70174  12.598   6.037  11.708
89426SOL    HW170175  12.539   5.983  11.654
89426SOL    HW270176  12.686   6.008  11.683
89427SOL     OW70177   5.684  12.842   3.624
89427SOL    HW170178   5.671  12.882   3.710
89427SOL    HW270179   5.716  12.914   3.569
89428SOL     OW70180   6.990   6.815  11.433
89428SOL    HW170181   6.962   6.871  11.361
89428SOL    HW270182   6.986   6.871  11.510
89429SOL     OW70183   7.875   6.507   6.235
89429SOL    HW170184   7.913   6.547   6.313
89429SOL    HW270185   7.885   6.572   6.167
89430SOL     OW70186   2.202   9.898  13.003
89430SOL    HW170187   2.291   9.916  12.971
89430SOL    HW270188   2.215   9.837  13.076
89431SOL     OW70189  13.718  12.596   3.610
89431SOL    HW170190  13.675  12.528   3.662
89431SOL    HW270191  13.648  12.657   3.587
89432SOL     OW70192  11.461   5.667   4.541
89432SOL    HW170193  11.403   5.657   4.466
89432SOL    HW270194  11.515   5.744   4.520
89433SOL     OW70195   6.854  14.016  14.831
89433SOL    HW170196   6.761  14.030  14.810
89433SOL    HW270197   6.890  14.104  14.839
89434SOL     OW70198  14.754   5.917   1.544
89434SOL    HW170199  14.752   6.010   1.568
89434SOL    HW270200  14.766   5.916   1.449
89435SOL     OW70201  14.296   4.950   0.353
89435SOL    HW170202  14.292   4.900   0.435
89435SOL    HW270203  14.208   4.942   0.316
89436SOL     OW70204   5.370   3.373  12.386
89436SOL    HW170205   5.332   3.294  12.348
89436SOL    HW270206   5.295   3.418  12.426
89437SOL     OW70207   7.544   0.047   7.682
89437SOL    HW170208   7.482   0.027   7.752
89437SOL    HW270209   7.626   0.008   7.712
89438SOL     OW70210   2.908   8.643   4.197
89438SOL    HW170211   2.887   8.581   4.267
89438SOL    HW270212   2.881   8.728   4.232
89439SOL     OW70213   4.872   1.819  11.039
89439SOL    HW170214   4.858   1.909  11.070
89439SOL    HW270215   4.953   1.824  10.989
89440SOL     OW70216  13.751  12.755   5.093
89440SOL    HW170217  13.660  12.746   5.064
89440SOL    HW270218  13.753  12.712   5.179
89441SOL     OW70219   3.281   8.203   5.682
89441SOL    HW170220   3.342   8.263   5.724
89441SOL    HW270221   3.206   8.200   5.740
89442SOL     OW70222   6.245  14.149   8.591
89442SOL    HW170223   6.335  14.181   8.585
89442SOL    HW270224   6.238  14.113   8.679
89443SOL     OW70225   4.926  13.487   8.654
89443SOL    HW170226   4.984  13.563   8.662
89443SOL    HW270227   4.970  13.418   8.704
89444SOL     OW70228  12.727  12.314   3.671
89444SOL    HW170229  12.781  12.315   3.750
89444SOL    HW270230  12.695  12.404   3.663
89445SOL     OW70231   5.032   9.001  12.542
89445SOL    HW170232   4.968   9.071  12.554
89445SOL    HW270233   5.070   8.988  12.629
89446SOL     OW70234  14.266  13.365   9.817
89446SOL    HW170235  14.209  13.421   9.764
89446SOL    HW270236  14.214  13.286   9.832
89447SOL     OW70237   6.302   5.411   5.982
89447SOL    HW170238   6.379   5.467   5.986
89447SOL    HW270239   6.284   5.402   5.888
89448SOL     OW70240  12.167   5.761  12.547
89448SOL    HW170241  12.114   5.708  12.488
89448SOL    HW270242  12.106   5.823  12.586
89449SOL     OW70243   4.755   6.212   8.029
89449SOL    HW170244   4.757   6.163   7.947
89449SOL    HW270245   4.847   6.216   8.057
89450SOL     OW70246   7.536   1.514  13.586
89450SOL    HW170247   7.521   1.545  13.496
89450SOL    HW270248   7.452   1.526  13.630
89451SOL     OW70249   2.578   2.590  11.031
89451SOL    HW170250   2.577   2.685  11.022
89451SOL    HW270251   2.493   2.561  10.997
89452SOL     OW70252   1.729   7.137   1.257
89452SOL    HW170253   1.739   7.109   1.348
89452SOL    HW270254   1.773   7.222   1.253
89453SOL     OW70255  10.529   6.000  14.510
89453SOL    HW170256  10.489   6.079  14.473
89453SOL    HW270257  10.522   6.013  14.605
89454SOL     OW70258  11.368   5.959  14.115
89454SOL    HW170259  11.384   5.865  14.124
89454SOL    HW270260  11.273   5.967  14.120
89455SOL     OW70261  13.900   0.766   0.117
89455SOL    HW170262  13.961   0.789   0.187
89455SOL    HW270263  13.934   0.684   0.082
89456SOL     OW70264   3.020   0.451   4.783
89456SOL    HW170265   2.960   0.516   4.746
89456SOL    HW270266   3.032   0.387   4.712
89457SOL     OW70267  12.061   4.674  11.062
89457SOL    HW170268  12.067   4.768  11.079
89457SOL    HW270269  12.020   4.637  11.140
89458SOL     OW70270   2.689  10.701   9.759
89458SOL    HW170271   2.707  10.781   9.810
89458SOL    HW270272   2.593  10.694   9.760
89459SOL     OW70273  13.861   7.735  13.989
89459SOL    HW170274  13.900   7.806  14.039
89459SOL    HW270275  13.807   7.779  13.923
89460SOL     OW70276   1.915   5.386   0.096
89460SOL    HW170277   1.820   5.374   0.095
89460SOL    HW270278   1.946   5.330   0.168
89461SOL     OW70279  14.070   6.742   4.609
89461SOL    HW170280  14.166   6.742   4.611
89461SOL    HW270281  14.045   6.797   4.683
89462SOL     OW70282   9.393   1.050   5.100
89462SOL    HW170283   9.304   1.084   5.097
89462SOL    HW270284   9.437   1.102   5.168
89463SOL     OW70285   6.574  11.591   2.529
89463SOL    HW170286   6.664  11.608   2.557
89463SOL    HW270287   6.520  11.635   2.594
89464SOL     OW70288  14.700   1.605   9.356
89464SOL    HW170289  14.627   1.564   9.401
89464SOL    HW270290  14.720   1.683   9.409
89465SOL     OW70291   0.694   9.342  13.671
89465SOL    HW170292   0.748   9.410  13.710
89465SOL    HW270293   0.638   9.388  13.608
89466SOL     OW70294  13.961  11.691   9.419
89466SOL    HW170295  13.961  11.595   9.419
89466SOL    HW270296  13.988  11.715   9.330
89467SOL     OW70297  13.216   8.106   0.689
89467SOL    HW170298  13.259   8.153   0.617
89467SOL    HW270299  13.283   8.101   0.757
89468SOL     OW70300   9.264   1.141   1.489
89468SOL    HW170301   9.253   1.110   1.399
89468SOL    HW270302   9.260   1.061   1.542
89469SOL     OW70303  10.551   7.859  11.498
89469SOL    HW170304  10.531   7.883  11.408
89469SOL    HW270305  10.630   7.909  11.520
89470SOL     OW70306  12.474   5.170   4.822
89470SOL    HW170307  12.432   5.254   4.801
89470SOL    HW270308  12.416   5.104   4.783
89471SOL     OW70309   5.791   5.471   9.517
89471SOL    HW170310   5.756   5.435   9.435
89471SOL    HW270311   5.875   5.427   9.529
89472SOL     OW70312  10.275  11.856  11.679
89472SOL    HW170313  10.232  11.799  11.742
89472SOL    HW270314  10.276  11.942  11.722
89473SOL     OW70315   2.182   1.240   5.862
89473SOL    HW170316   2.186   1.217   5.955
89473SOL    HW270317   2.095   1.212   5.834
89474SOL     OW70318   5.951   6.008   9.953
89474SOL    HW170319   5.920   6.060  10.028
89474SOL    HW270320   6.045   6.025   9.950
89475SOL     OW70321  12.382  12.939   3.721
89475SOL    HW170322  12.315  12.910   3.783
89475SOL    HW270323  12.451  12.977   3.777
89476SOL     OW70324   9.443  14.212   1.574
89476SOL    HW170325   9.404  14.246   1.654
89476SOL    HW270326   9.420  14.276   1.507
89477SOL     OW70327   0.413  11.958   2.211
89477SOL    HW170328   0.378  12.024   2.151
89477SOL    HW270329   0.466  11.901   2.156
89478SOL     OW70330  13.767   8.140   3.838
89478SOL    HW170331  13.695   8.085   3.808
89478SOL    HW270332  13.769   8.213   3.776
89479SOL     OW70333   1.479  12.658   8.989
89479SOL    HW170334   1.475  12.585   8.927
89479SOL    HW270335   1.572  12.675   9.000
89480SOL     OW70336   5.051   1.264   7.541
89480SOL    HW170337   5.143   1.272   7.568
89480SOL    HW270338   5.031   1.349   7.501
89481SOL     OW70339  10.654  14.568   4.637
89481SOL    HW170340  10.599  14.502   4.679
89481SOL    HW270341  10.640  14.647   4.689
89482SOL     OW70342   6.374   1.148  10.555
89482SOL    HW170343   6.312   1.211  10.591
89482SOL    HW270344   6.325   1.066  10.550
89483SOL     OW70345   6.661   2.084  11.758
89483SOL    HW170346   6.675   2.072  11.665
89483SOL    HW270347   6.612   2.007  11.786
89484SOL     OW70348   1.983   4.948   8.837
89484SOL    HW170349   2.016   4.991   8.758
89484SOL    HW270350   1.888   4.950   8.827
89485SOL     OW70351   0.444  12.016   1.626
89485SOL    HW170352   0.495  11.965   1.563
89485SOL    HW270353   0.362  12.035   1.581
89486SOL     OW70354   8.373  13.845   0.698
89486SOL    HW170355   8.445  13.828   0.637
89486SOL    HW270356   8.335  13.759   0.715
89487SOL     OW70357   6.436   2.052   8.923
89487SOL    HW170358   6.490   1.986   8.965
89487SOL    HW270359   6.456   2.044   8.829
89488SOL     OW70360   7.671   0.782   0.862
89488SOL    HW170361   7.670   0.743   0.774
89488SOL    HW270362   7.733   0.727   0.911
89489SOL     OW70363   8.477   2.974  11.216
89489SOL    HW170364   8.539   3.002  11.149
89489SOL    HW270365   8.505   3.020  11.295
89490SOL     OW70366  14.785   5.204   1.882
89490SOL    HW170367  14.770   5.243   1.797
89490SOL    HW270368  14.822   5.274   1.935
89491SOL     OW70369   4.519  13.032   3.287
89491SOL    HW170370   4.552  12.967   3.349
89491SOL    HW270371   4.571  13.111   3.304
89492SOL     OW70372   1.881   6.815   7.647
89492SOL    HW170373   1.823   6.889   7.664
89492SOL    HW270374   1.962   6.854   7.614
89493SOL     OW70375   2.338   2.273  11.757
89493SOL    HW170376   2.422   2.237  11.729
89493SOL    HW270377   2.287   2.196  11.784
89494SOL     OW70378   4.905   7.337   4.199
89494SOL    HW170379   4.894   7.405   4.265
89494SOL    HW270380   5.000   7.333   4.183
89495SOL     OW70381   6.415  11.848  13.289
89495SOL    HW170382   6.363  11.779  13.247
89495SOL    HW270383   6.360  11.926  13.282
89496SOL     OW70384  12.589   2.335   7.156
89496SOL    HW170385  12.635   2.418   7.141
89496SOL    HW270386  12.544   2.348   7.240
89497SOL     OW70387  11.769  11.294  11.697
89497SOL    HW170388  11.686  11.325  11.661
89497SOL    HW270389  11.823  11.373  11.704
89498SOL     OW70390   9.048   6.811   4.875
89498SOL    HW170391   9.032   6.723   4.842
89498SOL    HW270392   9.088   6.798   4.961
89499SOL     OW70393  11.679  13.465  12.830
89499SOL    HW170394  11.662  13.443  12.739
89499SOL    HW270395  11.767  13.502  12.830
89500SOL     OW70396   4.113   6.783   0.284
89500SOL    HW170397   4.038   6.741   0.242
89500SOL    HW270398   4.183   6.718   0.280
89501SOL     OW70399   1.995  11.140  13.665
89501SOL    HW170400   1.918  11.147  13.608
89501SOL    HW270401   1.959  11.149  13.753
89502SOL     OW70402   2.995   8.971  10.764
89502SOL    HW170403   2.933   9.018  10.820
89502SOL    HW270404   2.946   8.895  10.732
89503SOL     OW70405   5.715  13.428   8.171
89503SOL    HW170406   5.718  13.337   8.202
89503SOL    HW270407   5.690  13.478   8.249
89504SOL     OW70408   3.389   0.526   8.361
89504SOL    HW170409   3.466   0.476   8.391
89504SOL    HW270410   3.408   0.616   8.389
89505SOL     OW70411   4.085  12.204   8.073
89505SOL    HW170412   4.072  12.175   7.983
89505SOL    HW270413   4.169  12.251   8.072
89506SOL     OW70414   5.066  14.444   3.805
89506SOL    HW170415   5.160  14.462   3.794
89506SOL    HW270416   5.029  14.527   3.834
89507SOL     OW70417   0.172   6.617   9.880
89507SOL    HW170418   0.185   6.549   9.946
89507SOL    HW270419   0.084   6.600   9.846
89508SOL     OW70420   1.694   9.083  13.240
89508SOL    HW170421   1.764   9.018  13.245
89508SOL    HW270422   1.640   9.066  13.318
89509SOL     OW70423   9.947   3.008   7.471
89509SOL    HW170424   9.932   2.914   7.460
89509SOL    HW270425  10.022   3.014   7.530
89510SOL     OW70426  14.030   1.794   8.466
89510SOL    HW170427  14.023   1.710   8.419
89510SOL    HW270428  13.965   1.787   8.536
89511SOL     OW70429   3.863  10.492  12.316
89511SOL    HW170430   3.909  10.569  12.282
89511SOL    HW270431   3.927  10.421  12.310
89512SOL     OW70432   7.902  13.214  10.790
89512SOL    HW170433   7.842  13.261  10.849
89512SOL    HW270434   7.989  13.228  10.828
89513SOL     OW70435   5.336  12.497   6.688
89513SOL    HW170436   5.269  12.565   6.681
89513SOL    HW270437   5.338  12.474   6.781
89514SOL     OW70438  14.002   9.059   2.782
89514SOL    HW170439  13.911   9.044   2.756
89514SOL    HW270440  14.034   8.974   2.809
89515SOL     OW70441   4.585   1.170   6.799
89515SOL    HW170442   4.636   1.146   6.876
89515SOL    HW270443   4.630   1.130   6.726
89516SOL     OW70444  13.046  13.908   4.312
89516SOL    HW170445  13.041  13.992   4.265
89516SOL    HW270446  13.136  13.906   4.347
89517SOL     OW70447   6.045  13.501   9.453
89517SOL    HW170448   5.987  13.504   9.529
89517SOL    HW270449   6.006  13.435   9.396
89518SOL     OW70450   2.821   0.741  10.363
89518SOL    HW170451   2.783   0.715  10.448
89518SOL    HW270452   2.867   0.822  10.382
89519SOL     OW70453  14.702   3.371   9.953
89519SOL    HW170454  14.691   3.282   9.985
89519SOL    HW270455  14.619   3.391   9.909
89520SOL     OW70456   5.951  12.226   0.674
89520SOL    HW170457   6.020  12.181   0.625
89520SOL    HW270458   5.961  12.195   0.764
89521SOL     OW70459  13.251   4.588   5.169
89521SOL    HW170460  13.287   4.653   5.229
89521SOL    HW270461  13.174   4.630   5.131
89522SOL     OW70462   8.086  14.435   9.544
89522SOL    HW170463   8.157  14.466   9.489
89522SOL    HW270464   8.026  14.510   9.551
89523SOL     OW70465   1.135   3.346  11.903
89523SOL    HW170466   1.169   3.406  11.970
89523SOL    HW270467   1.200   3.276  11.897
89524SOL     OW70468  12.788  10.106   4.284
89524SOL    HW170469  12.767  10.127   4.193
89524SOL    HW270470  12.859  10.041   4.278
89525SOL     OW70471  12.025  13.035  11.213
89525SOL    HW170472  11.994  13.124  11.232
89525SOL    HW270473  12.037  13.034  11.118
89526SOL     OW70474   5.606   7.060   7.286
89526SOL    HW170475   5.547   7.131   7.312
89526SOL    HW270476   5.680   7.105   7.244
89527SOL     OW70477   4.348   0.130   6.262
89527SOL    HW170478   4.280   0.194   6.239
89527SOL    HW270479   4.390   0.109   6.178
89528SOL     OW70480  11.199  14.368   0.906
89528SOL    HW170481  11.295  14.370   0.899
89528SOL    HW270482  11.170  14.337   0.821
89529SOL     OW70483  11.301  11.322   3.556
89529SOL    HW170484  11.275  11.388   3.491
89529SOL    HW270485  11.270  11.239   3.519
89530SOL     OW70486  11.146  14.356  11.608
89530SOL    HW170487  11.170  14.277  11.559
89530SOL    HW270488  11.050  14.357  11.604
89531SOL     OW70489   1.287   4.090   2.973
89531SOL    HW170490   1.292   4.003   2.935
89531SOL    HW270491   1.202   4.092   3.017
89532SOL     OW70492   1.672   3.997   5.917
89532SOL    HW170493   1.642   4.053   5.988
89532SOL    HW270494   1.595   3.947   5.891
89533SOL     OW70495   5.476   0.069   8.039
89533SOL    HW170496   5.532   0.145   8.020
89533SOL    HW270497   5.533   0.009   8.088
89534SOL     OW70498  12.513   7.921  13.537
89534SOL    HW170499  12.421   7.895  13.535
89534SOL    HW270500  12.555   7.868  13.469
89535SOL     OW70501  14.839   7.610  14.266
89535SOL    HW170502   0.055   7.589  14.290
89535SOL    HW270503  14.837   7.601  14.170
89536SOL     OW70504   1.266   1.729   8.859
89536SOL    HW170505   1.348   1.680   8.864
89536SOL    HW270506   1.262   1.758   8.768
89537SOL     OW70507   0.348  11.922  10.456
89537SOL    HW170508   0.313  11.880  10.535
89537SOL    HW270509   0.274  11.922  10.395
89538SOL     OW70510   2.230   4.078   3.562
89538SOL    HW170511   2.243   4.012   3.494
89538SOL    HW270512   2.237   4.161   3.516
89539SOL     OW70513   2.452   5.234   9.039
89539SOL    HW170514   2.411   5.152   9.066
89539SOL    HW270515   2.380   5.296   9.028
89540SOL     OW70516   5.069   9.192   6.757
89540SOL    HW170517   5.001   9.211   6.692
89540SOL    HW270518   5.042   9.109   6.796
89541SOL     OW70519   9.468   0.708   9.050
89541SOL    HW170520   9.422   0.624   9.047
89541SOL    HW270521   9.437   0.755   8.973
89542SOL     OW70522   5.883  12.088  12.633
89542SOL    HW170523   5.929  12.170  12.613
89542SOL    HW270524   5.919  12.025  12.571
89543SOL     OW70525   4.139   8.739  10.488
89543SOL    HW170526   4.213   8.748  10.548
89543SOL    HW270527   4.063   8.771  10.538
89544SOL     OW70528   7.983   6.150  10.741
89544SOL    HW170529   7.938   6.172  10.823
89544SOL    HW270530   8.041   6.078  10.763
89545SOL     OW70531   8.305  13.821   3.240
89545SOL    HW170532   8.260  13.777   3.167
89545SOL    HW270533   8.360  13.753   3.279
89546SOL     OW70534   6.141   1.742   1.408
89546SOL    HW170535   6.105   1.810   1.351
89546SOL    HW270536   6.191   1.685   1.350
89547SOL     OW70537   6.141   0.341   4.326
89547SOL    HW170538   6.059   0.323   4.372
89547SOL    HW270539   6.204   0.278   4.363
89548SOL     OW70540   2.167   5.744   0.117
89548SOL    HW170541   2.082   5.728   0.159
89548SOL    HW270542   2.193   5.831   0.147
89549SOL     OW70543   4.835   6.853   5.137
89549SOL    HW170544   4.931   6.845   5.135
89549SOL    HW270545   4.810   6.864   5.046
89550SOL     OW70546   2.449   8.206   9.451
89550SOL    HW170547   2.395   8.141   9.407
89550SOL    HW270548   2.387   8.272   9.482
89551SOL     OW70549   1.436   1.065   4.980
89551SOL    HW170550   1.412   1.149   4.941
89551SOL    HW270551   1.529   1.054   4.959
89552SOL     OW70552   5.952   2.800   0.528
89552SOL    HW170553   5.988   2.888   0.537
89552SOL    HW270554   6.028   2.743   0.523
89553SOL     OW70555  11.550   0.595   6.422
89553SOL    HW170556  11.538   0.585   6.517
89553SOL    HW270557  11.515   0.682   6.403
89554SOL     OW70558   8.450   0.801  13.429
89554SOL    HW170559   8.478   0.881  13.384
89554SOL    HW270560   8.509   0.794  13.504
89555SOL     OW70561  13.308   9.612  13.277
89555SOL    HW170562  13.378   9.604  13.342
89555SOL    HW270563  13.230   9.630  13.329
89556SOL     OW70564  10.050   8.325  13.320
89556SOL    HW170565  10.031   8.237  13.352
89556SOL    HW270566  10.101   8.366  13.390
89557SOL     OW70567   4.294   3.169   3.646
89557SOL    HW170568   4.358   3.161   3.717
89557SOL    HW270569   4.266   3.261   3.650
89558SOL     OW70570   5.120   7.272  12.115
89558SOL    HW170571   5.193   7.321  12.078
89558SOL    HW270572   5.090   7.326  12.189
89559SOL     OW70573   1.998   2.899   8.152
89559SOL    HW170574   1.936   2.887   8.080
89559SOL    HW270575   2.077   2.852   8.124
89560SOL     OW70576  13.266   6.181   6.751
89560SOL    HW170577  13.198   6.210   6.690
89560SOL    HW270578  13.332   6.139   6.697
89561SOL     OW70579   6.529   9.607   7.869
89561SOL    HW170580   6.588   9.676   7.837
89561SOL    HW270581   6.571   9.525   7.842
89562SOL     OW70582   3.066  13.480   2.513
89562SOL    HW170583   3.001  13.485   2.443
89562SOL    HW270584   3.118  13.403   2.491
89563SOL     OW70585   5.729   7.760   3.478
89563SOL    HW170586   5.789   7.829   3.504
89563SOL    HW270587   5.673   7.800   3.411
89564SOL     OW70588   9.312  10.601   9.138
89564SOL    HW170589   9.339  10.525   9.086
89564SOL    HW270590   9.223  10.620   9.108
89565SOL     OW70591   4.564   5.363   2.251
89565SOL    HW170592   4.523   5.287   2.208
89565SOL    HW270593   4.621   5.400   2.184
89566SOL     OW70594   8.413   5.154   0.248
89566SOL    HW170595   8.411   5.244   0.280
89566SOL    HW270596   8.392   5.161   0.155
89567SOL     OW70597  13.760   9.052   0.960
89567SOL    HW170598  13.693   9.111   0.996
89567SOL    HW270599  13.840   9.103   0.960
89568SOL     OW70600  11.348  13.998  13.578
89568SOL    HW170601  11.422  13.960  13.626
89568SOL    HW270602  11.272  13.983  13.634
89569SOL     OW70603   9.621   6.647  10.770
89569SOL    HW170604   9.715   6.633  10.778
89569SOL    HW270605   9.585   6.561  10.748
89570SOL     OW70606  13.217   5.668   8.035
89570SOL    HW170607  13.207   5.578   8.065
89570SOL    HW270608  13.131   5.692   8.000
89571SOL     OW70609   4.800  13.797   1.772
89571SOL    HW170610   4.844  13.719   1.807
89571SOL    HW270611   4.709  13.788   1.801
89572SOL     OW70612  14.163   9.860  13.634
89572SOL    HW170613  14.129   9.826  13.551
89572SOL    HW270614  14.092   9.914  13.668
89573SOL     OW70615   0.063  12.613   6.326
89573SOL    HW170616   0.153  12.610   6.294
89573SOL    HW270617   0.041  12.522   6.344
89574SOL     OW70618   7.333   5.515   1.228
89574SOL    HW170619   7.312   5.423   1.243
89574SOL    HW270620   7.258   5.548   1.179
89575SOL     OW70621   9.784  12.865   1.988
89575SOL    HW170622   9.847  12.892   1.921
89575SOL    HW270623   9.830  12.877   2.071
89576SOL     OW70624   8.638   8.397  11.498
89576SOL    HW170625   8.592   8.449  11.432
89576SOL    HW270626   8.567   8.352  11.545
89577SOL     OW70627   1.403   2.620   9.945
89577SOL    HW170628   1.359   2.695   9.985
89577SOL    HW270629   1.453   2.581  10.016
89578SOL     OW70630   9.122  13.055   8.479
89578SOL    HW170631   9.157  13.087   8.563
89578SOL    HW270632   9.059  12.987   8.504
89579SOL     OW70633  14.311   0.442  13.737
89579SOL    HW170634  14.227   0.449  13.782
89579SOL    HW270635  14.332   0.349  13.741
89580SOL     OW70636  12.775  11.028   1.445
89580SOL    HW170637  12.870  11.035   1.458
89580SOL    HW270638  12.760  11.065   1.359
89581SOL     OW70639   7.512  10.120   6.226
89581SOL    HW170640   7.458  10.044   6.205
89581SOL    HW270641   7.457  10.195   6.205
89582SOL     OW70642   3.022   3.062   7.336
89582SOL    HW170643   2.979   3.009   7.269
89582SOL    HW270644   2.971   3.045   7.416
89583SOL     OW70645   9.870  10.758  12.546
89583SOL    HW170646   9.791  10.733  12.499
89583SOL    HW270647   9.841  10.823  12.609
89584SOL     OW70648  14.682  12.758   4.219
89584SOL    HW170649  14.655  12.714   4.138
89584SOL    HW270650  14.603  12.803   4.249
89585SOL     OW70651   7.828   6.981   8.120
89585SOL    HW170652   7.895   6.922   8.087
89585SOL    HW270653   7.793   6.936   8.197
89586SOL     OW70654   7.625   0.571   3.372
89586SOL    HW170655   7.632   0.526   3.456
89586SOL    HW270656   7.531   0.587   3.362
89587SOL     OW70657   3.983  12.726   8.091
89587SOL    HW170658   4.049  12.775   8.141
89587SOL    HW270659   3.900  12.748   8.133
89588SOL     OW70660  10.114  14.621   5.602
89588SOL    HW170661  10.161  14.637   5.684
89588SOL    HW270662  10.023  14.605   5.629
89589SOL     OW70663   7.159   6.753   1.819
89589SOL    HW170664   7.191   6.821   1.760
89589SOL    HW270665   7.174   6.788   1.907
89590SOL     OW70666   5.746   2.717  11.468
89590SOL    HW170667   5.654   2.744  11.473
89590SOL    HW270668   5.770   2.733  11.376
89591SOL     OW70669   9.088   7.653   8.223
89591SOL    HW170670   9.077   7.744   8.195
89591SOL    HW270671   9.079   7.655   8.318
89592SOL     OW70672   7.779  10.161   1.662
89592SOL    HW170673   7.814  10.074   1.646
89592SOL    HW270674   7.717  10.150   1.734
89593SOL     OW70675   1.131   2.180  12.324
89593SOL    HW170676   1.074   2.213  12.254
89593SOL    HW270677   1.098   2.222  12.403
89594SOL     OW70678   9.074   2.052  12.189
89594SOL    HW170679   9.018   2.113  12.237
89594SOL    HW270680   9.092   1.982  12.251
89595SOL     OW70681   5.696  13.959  11.639
89595SOL    HW170682   5.702  13.941  11.546
89595SOL    HW270683   5.685  14.054  11.645
89596SOL     OW70684   8.535  12.883   0.208
89596SOL    HW170685   8.607  12.944   0.194
89596SOL    HW270686   8.530  12.832   0.128
89597SOL     OW70687   9.516   0.484   8.819
89597SOL    HW170688   9.564   0.401   8.823
89597SOL    HW270689   9.451   0.478   8.888
89598SOL     OW70690   7.707   8.417   5.598
89598SOL    HW170691   7.690   8.357   5.670
89598SOL    HW270692   7.629   8.473   5.595
89599SOL     OW70693  13.693  11.134  14.206
89599SOL    HW170694  13.615  11.099  14.163
89599SOL    HW270695  13.741  11.178  14.136
89600SOL     OW70696   4.243   1.109   4.690
89600SOL    HW170697   4.312   1.100   4.625
89600SOL    HW270698   4.275   1.175   4.751
89601SOL     OW70699   3.240   6.670  12.681
89601SOL    HW170700   3.217   6.577  12.681
89601SOL    HW270701   3.298   6.680  12.757
89602SOL     OW70702   2.451   8.401   2.696
89602SOL    HW170703   2.431   8.399   2.790
89602SOL    HW270704   2.540   8.366   2.690
89603SOL     OW70705   4.997  14.306   8.108
89603SOL    HW170706   4.960  14.235   8.160
89603SOL    HW270707   5.019  14.265   8.024
89604SOL     OW70708  12.781   6.242   6.730
89604SOL    HW170709  12.718   6.289   6.675
89604SOL    HW270710  12.864   6.248   6.683
89605SOL     OW70711   6.570   3.756   9.128
89605SOL    HW170712   6.583   3.841   9.171
89605SOL    HW270713   6.477   3.737   9.139
89606SOL     OW70714  12.356   5.944  12.459
89606SOL    HW170715  12.295   5.880  12.494
89606SOL    HW270716  12.327   6.028  12.495
89607SOL     OW70717   1.351  10.993   6.365
89607SOL    HW170718   1.374  11.085   6.352
89607SOL    HW270719   1.432  10.953   6.398
89608SOL     OW70720   2.083  11.586   4.967
89608SOL    HW170721   2.164  11.630   4.991
89608SOL    HW270722   2.110  11.513   4.912
89609SOL     OW70723   2.516   1.754  11.079
89609SOL    HW170724   2.522   1.667  11.040
89609SOL    HW270725   2.472   1.741  11.162
89610SOL     OW70726   9.999  11.756   2.173
89610SOL    HW170727  10.064  11.813   2.131
89610SOL    HW270728   9.918  11.773   2.125
89611SOL     OW70729   1.551  12.305  14.401
89611SOL    HW170730   1.610  12.274  14.470
89611SOL    HW270731   1.599  12.377  14.359
89612SOL     OW70732   9.082  10.272  11.871
89612SOL    HW170733   9.104  10.180  11.883
89612SOL    HW270734   9.125  10.297  11.789
89613SOL     OW70735  13.035   3.529   2.965
89613SOL    HW170736  13.083   3.459   2.919
89613SOL    HW270737  13.049   3.510   3.058
89614SOL     OW70738  12.643   4.775  10.737
89614SOL    HW170739  12.547   4.768  10.739
89614SOL    HW270740  12.664   4.828  10.814
89615SOL     OW70741   7.248   4.553  14.738
89615SOL    HW170742   7.284   4.627  14.690
89615SOL    HW270743   7.320   4.523  14.794
89616SOL     OW70744  11.294   6.557   3.393
89616SOL    HW170745  11.340   6.544   3.310
89616SOL    HW270746  11.222   6.494   3.390
89617SOL     OW70747   9.200   5.277  14.208
89617SOL    HW170748   9.128   5.283  14.271
89617SOL    HW270749   9.226   5.185  14.210
89618SOL     OW70750   0.889   5.926  14.240
89618SOL    HW170751   0.892   6.021  14.238
89618SOL    HW270752   0.857   5.901  14.153
89619SOL     OW70753   2.931   5.414  10.126
89619SOL    HW170754   2.875   5.424  10.204
89619SOL    HW270755   2.957   5.322  10.126
89620SOL     OW70756  13.595  14.199  13.026
89620SOL    HW170757  13.624  14.256  13.097
89620SOL    HW270758  13.503  14.222  13.012
89621SOL     OW70759  10.088  11.906  10.529
89621SOL    HW170760  10.077  11.992  10.487
89621SOL    HW270761  10.127  11.851  10.461
89622SOL     OW70762   6.209   4.608  11.327
89622SOL    HW170763   6.129   4.636  11.284
89622SOL    HW270764   6.271   4.680  11.312
89623SOL     OW70765  12.303   2.522   4.475
89623SOL    HW170766  12.291   2.510   4.569
89623SOL    HW270767  12.398   2.529   4.463
89624SOL     OW70768   8.892   5.501   2.108
89624SOL    HW170769   8.974   5.550   2.116
89624SOL    HW270770   8.827   5.555   2.153
89625SOL     OW70771   4.003   2.134   7.492
89625SOL    HW170772   3.912   2.108   7.474
89625SOL    HW270773   4.003   2.152   7.586
89626SOL     OW70774   3.633   9.395   1.238
89626SOL    HW170775   3.595   9.335   1.174
89626SOL    HW270776   3.583   9.476   1.228
89627SOL     OW70777  11.503  10.522   7.935
89627SOL    HW170778  11.528  10.606   7.974
89627SOL    HW270779  11.407  10.521   7.941
89628SOL     OW70780   3.165  13.122  10.813
89628SOL    HW170781   3.217  13.137  10.892
89628SOL    HW270782   3.075  13.115  10.843
89629SOL     OW70783   2.073  12.794  11.498
89629SOL    HW170784   2.103  12.708  11.469
89629SOL    HW270785   2.032  12.778  11.584
89630SOL     OW70786  13.207   8.647   7.468
89630SOL    HW170787  13.211   8.739   7.492
89630SOL    HW270788  13.138   8.644   7.401
89631SOL     OW70789   0.716  11.447   1.083
89631SOL    HW170790   0.795  11.459   1.030
89631SOL    HW270791   0.668  11.377   1.039
89632SOL     OW70792  13.719   0.051  10.057
89632SOL    HW170793  13.798   0.054  10.004
89632SOL    HW270794  13.705   0.142  10.084
89633SOL     OW70795  12.031  10.761   3.289
89633SOL    HW170796  12.084  10.802   3.221
89633SOL    HW270797  12.076  10.782   3.370
89634SOL     OW70798   0.587   9.753   9.211
89634SOL    HW170799   0.562   9.716   9.126
89634SOL    HW270800   0.670   9.797   9.195
89635SOL     OW70801   4.268   7.748   1.858
89635SOL    HW170802   4.210   7.806   1.810
89635SOL    HW270803   4.266   7.779   1.948
89636SOL     OW70804   1.961  13.259   8.153
89636SOL    HW170805   1.955  13.223   8.065
89636SOL    HW270806   2.040  13.220   8.190
89637SOL     OW70807   6.968  11.311  12.902
89637SOL    HW170808   6.972  11.354  12.817
89637SOL    HW270809   7.033  11.241  12.897
89638SOL     OW70810   0.967   9.587  14.255
89638SOL    HW170811   0.881   9.546  14.247
89638SOL    HW270812   0.974   9.644  14.178
89639SOL     OW70813  10.314  11.290   2.531
89639SOL    HW170814  10.310  11.269   2.624
89639SOL    HW270815  10.249  11.360   2.520
89640SOL     OW70816  12.510   0.830   4.748
89640SOL    HW170817  12.514   0.736   4.734
89640SOL    HW270818  12.569   0.867   4.682
89641SOL     OW70819   1.618   5.510  11.107
89641SOL    HW170820   1.652   5.480  11.191
89641SOL    HW270821   1.523   5.504  11.116
89642SOL     OW70822   6.021   2.116  12.113
89642SOL    HW170823   5.994   2.144  12.201
89642SOL    HW270824   5.960   2.047  12.090
89643SOL     OW70825  11.067   4.955  10.681
89643SOL    HW170826  10.991   5.006  10.654
89643SOL    HW270827  11.038   4.864  10.675
89644SOL     OW70828  10.288   4.232  13.995
89644SOL    HW170829  10.249   4.264  14.077
89644SOL    HW270830  10.315   4.311  13.948
89645SOL     OW70831   0.276   2.335   2.858
89645SOL    HW170832   0.317   2.250   2.845
89645SOL    HW270833   0.222   2.348   2.780
89646SOL     OW70834   5.116   1.926   2.810
89646SOL    HW170835   5.203   1.904   2.775
89646SOL    HW270836   5.060   1.929   2.733
89647SOL     OW70837  12.491  12.603   3.387
89647SOL    HW170838  12.442  12.685   3.395
89647SOL    HW270839  12.485  12.563   3.474
89648SOL     OW70840   0.347   8.278   0.152
89648SOL    HW170841   0.252   8.278   0.166
89648SOL    HW270842   0.358   8.236   0.067
89649SOL     OW70843  14.825  10.674   3.185
89649SOL    HW170844  14.870  10.759   3.175
89649SOL    HW270845  14.764  10.671   3.112
89650SOL     OW70846   1.089  14.832   5.292
89650SOL    HW170847   1.104  14.739   5.272
89650SOL    HW270848   1.068  14.871   5.208
89651SOL     OW70849  12.368   7.063  11.605
89651SOL    HW170850  12.414   6.983  11.632
89651SOL    HW270851  12.399   7.130  11.667
89652SOL     OW70852  11.969  10.832   7.170
89652SOL    HW170853  11.914  10.755   7.172
89652SOL    HW270854  12.058  10.798   7.162
89653SOL     OW70855  14.570   8.306  11.645
89653SOL    HW170856  14.578   8.214  11.619
89653SOL    HW270857  14.476   8.322  11.647
89654SOL     OW70858   2.059   8.792  13.512
89654SOL    HW170859   2.147   8.812  13.481
89654SOL    HW270860   2.020   8.877  13.530
89655SOL     OW70861  11.239  10.488   6.101
89655SOL    HW170862  11.242  10.519   6.192
89655SOL    HW270863  11.240  10.568   6.049
89656SOL     OW70864   4.532   8.269  12.005
89656SOL    HW170865   4.539   8.364  12.004
89656SOL    HW270866   4.557   8.241  11.917
89657SOL     OW70867   4.827  11.121   1.260
89657SOL    HW170868   4.862  11.047   1.311
89657SOL    HW270869   4.894  11.138   1.194
89658SOL     OW70870   5.182  13.139  14.535
89658SOL    HW170871   5.232  13.219  14.518
89658SOL    HW270872   5.245  13.069  14.523
89659SOL     OW70873  14.567   8.922   7.349
89659SOL    HW170874  14.519   8.844   7.378
89659SOL    HW270875  14.500   8.981   7.315
89660SOL     OW70876   8.109   4.656  13.656
89660SOL    HW170877   8.125   4.563  13.646
89660SOL    HW270878   8.195   4.694  13.674
89661SOL     OW70879   8.130   6.893   3.035
89661SOL    HW170880   8.138   6.864   2.944
89661SOL    HW270881   8.081   6.823   3.078
89662SOL     OW70882  14.726   5.140  14.357
89662SOL    HW170883  14.736   5.231  14.386
89662SOL    HW270884  14.642   5.139  14.310
89663SOL     OW70885  10.517   6.056  11.209
89663SOL    HW170886  10.462   6.037  11.133
89663SOL    HW270887  10.459   6.100  11.271
89664SOL     OW70888   0.256   5.306   7.490
89664SOL    HW170889   0.189   5.342   7.548
89664SOL    HW270890   0.240   5.211   7.492
89665SOL     OW70891  10.252   9.299   3.728
89665SOL    HW170892  10.295   9.235   3.671
89665SOL    HW270893  10.255   9.381   3.678
89666SOL     OW70894   8.143   6.947  11.136
89666SOL    HW170895   8.201   6.870  11.139
89666SOL    HW270896   8.193   7.017  11.178
89667SOL     OW70897   4.944   6.481   9.868
89667SOL    HW170898   4.968   6.521   9.785
89667SOL    HW270899   4.862   6.524   9.893
89668SOL     OW70900  14.466   2.222   1.395
89668SOL    HW170901  14.381   2.248   1.431
89668SOL    HW270902  14.502   2.161   1.460
89669SOL     OW70903  12.895   2.314   9.092
89669SOL    HW170904  12.951   2.389   9.069
89669SOL    HW270905  12.808   2.352   9.104
89670SOL     OW70906  12.144  13.531   7.325
89670SOL    HW170907  12.187  13.460   7.277
89670SOL    HW270908  12.175  13.611   7.283
89671SOL     OW70909   5.835  12.371   1.992
89671SOL    HW170910   5.865  12.399   1.905
89671SOL    HW270911   5.769  12.437   2.016
89672SOL     OW70912  14.451   7.000   1.377
89672SOL    HW170913  14.418   7.086   1.401
89672SOL    HW270914  14.476   7.008   1.285
89673SOL     OW70915   7.660   1.338   0.933
89673SOL    HW170916   7.586   1.279   0.922
89673SOL    HW270917   7.726   1.286   0.978
89674SOL     OW70918   2.039   2.984   7.564
89674SOL    HW170919   2.055   3.070   7.525
89674SOL    HW270920   2.057   2.996   7.657
89675SOL     OW70921   7.072   9.384   8.023
89675SOL    HW170922   7.019   9.463   8.012
89675SOL    HW270923   7.104   9.364   7.935
89676SOL     OW70924   0.915   9.925  13.876
89676SOL    HW170925   0.929   9.900  13.785
89676SOL    HW270926   0.873  10.011  13.872
89677SOL     OW70927  11.368   4.431  12.913
89677SOL    HW170928  11.321   4.513  12.932
89677SOL    HW270929  11.321   4.393  12.839
89678SOL     OW70930   0.953  14.035  12.609
89678SOL    HW170931   0.960  14.027  12.704
89678SOL    HW270932   0.993  13.955  12.575
89679SOL     OW70933   0.390  13.163  11.644
89679SOL    HW170934   0.323  13.221  11.610
89679SOL    HW270935   0.368  13.076  11.610
89680SOL     OW70936   5.953  12.765   6.816
89680SOL    HW170937   5.956  12.858   6.836
89680SOL    HW270938   5.865  12.738   6.840
89681SOL     OW70939   0.765   2.006  12.916
89681SOL    HW170940   0.813   1.948  12.976
89681SOL    HW270941   0.682   2.023  12.960
89682SOL     OW70942   7.988   9.047   7.699
89682SOL    HW170943   8.002   9.033   7.792
89682SOL    HW270944   7.924   9.118   7.694
89683SOL     OW70945   1.921   0.627   5.573
89683SOL    HW170946   2.010   0.603   5.600
89683SOL    HW270947   1.930   0.649   5.480
89684SOL     OW70948  12.918  13.027  13.350
89684SOL    HW170949  12.945  12.950  13.399
89684SOL    HW270950  12.892  12.994  13.264
89685SOL     OW70951  12.477  14.279   0.394
89685SOL    HW170952  12.496  14.220   0.320
89685SOL    HW270953  12.385  14.262   0.414
89686SOL     OW70954   8.414   2.949   8.851
89686SOL    HW170955   8.320   2.965   8.859
89686SOL    HW270956   8.455   3.033   8.872
89687SOL     OW70957  11.089   5.198   4.324
89687SOL    HW170958  11.052   5.127   4.377
89687SOL    HW270959  11.180   5.171   4.310
89688SOL     OW70960   3.780  14.102  14.355
89688SOL    HW170961   3.817  14.171  14.300
89688SOL    HW270962   3.795  14.131  14.445
89689SOL     OW70963   7.072   6.219   7.417
89689SOL    HW170964   7.016   6.263   7.353
89689SOL    HW270965   7.130   6.164   7.364
89690SOL     OW70966   3.519  10.659  11.880
89690SOL    HW170967   3.474  10.576  11.866
89690SOL    HW270968   3.612  10.638  11.878
89691SOL     OW70969  11.694   6.641   8.419
89691SOL    HW170970  11.763   6.581   8.449
89691SOL    HW270971  11.685   6.622   8.326
89692SOL     OW70972   1.416  13.432  14.499
89692SOL    HW170973   1.398  13.493  14.427
89692SOL    HW270974   1.510  13.441  14.514
89693SOL     OW70975  13.374  12.789   8.127
89693SOL    HW170976  13.287  12.768   8.093
89693SOL    HW270977  13.430  12.793   8.049
89694SOL     OW70978  11.579  13.859   8.623
89694SOL    HW170979  11.587  13.766   8.602
89694SOL    HW270980  11.635  13.903   8.560
89695SOL     OW70981   6.271   8.321   0.254
89695SOL    HW170982   6.195   8.375   0.276
89695SOL    HW270983   6.253   8.289   0.166
89696SOL     OW70984   8.928  11.515  12.250
89696SOL    HW170985   8.956  11.567  12.174
89696SOL    HW270986   8.956  11.566  12.326
89697SOL     OW70987   1.262  12.911   8.417
89697SOL    HW170988   1.223  12.987   8.373
89697SOL    HW270989   1.272  12.940   8.508
89698SOL     OW70990  13.020   2.313   8.641
89698SOL    HW170991  12.946   2.263   8.675
89698SOL    HW270992  12.987   2.402   8.632
89699SOL     OW70993   8.035   8.876   0.360
89699SOL    HW170994   8.130   8.880   0.375
89699SOL    HW270995   7.998   8.863   0.447
89700SOL     OW70996  11.145  13.742   2.089
89700SOL    HW170997  11.222  13.797   2.074
89700SOL    HW270998  11.092  13.754   2.010
89701SOL     OW70999   8.852   6.493  11.678
89701SOL    HW171000   8.916   6.455  11.617
89701SOL    HW271001   8.889   6.578  11.702
89702SOL     OW71002  14.491   8.405   9.219
89702SOL    HW171003  14.400   8.425   9.198
89702SOL    HW271004  14.489   8.376   9.310
89703SOL     OW71005   9.462   5.994   0.236
89703SOL    HW171006   9.398   5.990   0.307
89703SOL    HW271007   9.525   6.061   0.264
89704SOL     OW71008   9.490  13.919  13.395
89704SOL    HW171009   9.417  13.898  13.454
89704SOL    HW271010   9.504  14.013  13.407
89705SOL     OW71011   1.573   4.499   2.737
89705SOL    HW171012   1.663   4.471   2.723
89705SOL    HW271013   1.563   4.578   2.684
89706SOL     OW71014   9.817   6.393   0.320
89706SOL    HW171015   9.910   6.375   0.302
89706SOL    HW271016   9.819   6.466   0.382
89707SOL     OW71017   6.049   1.919   0.691
89707SOL    HW171018   6.017   1.914   0.781
89707SOL    HW271019   6.141   1.945   0.700
89708SOL     OW71020   8.445   4.062   9.131
89708SOL    HW171021   8.369   4.110   9.164
89708SOL    HW271022   8.456   4.093   9.041
89709SOL     OW71023  13.689   5.564  12.030
89709SOL    HW171024  13.669   5.611  12.111
89709SOL    HW271025  13.737   5.628  11.977
89710SOL     OW71026  12.401  12.540  14.032
89710SOL    HW171027  12.307  12.554  14.019
89710SOL    HW271028  12.415  12.448  14.009
89711SOL     OW71029  14.005  12.024   0.099
89711SOL    HW171030  14.035  12.114   0.111
89711SOL    HW271031  14.041  11.977   0.175
89712SOL     OW71032  12.673   1.838   0.082
89712SOL    HW171033  12.756   1.869   0.117
89712SOL    HW271034  12.615   1.832   0.158
89713SOL     OW71035   6.145   2.840  13.380
89713SOL    HW171036   6.173   2.923  13.419
89713SOL    HW271037   6.208   2.776  13.412
89714SOL     OW71038   0.248   5.065   8.750
89714SOL    HW171039   0.334   5.100   8.774
89714SOL    HW271040   0.245   5.072   8.655
89715SOL     OW71041   9.886   8.312   3.402
89715SOL    HW171042   9.817   8.377   3.418
89715SOL    HW271043   9.955   8.336   3.464
89716SOL     OW71044  14.017  12.124  10.812
89716SOL    HW171045  14.091  12.173  10.848
89716SOL    HW271046  13.941  12.158  10.858
89717SOL     OW71047   8.523   9.531   7.669
89717SOL    HW171048   8.472   9.450   7.664
89717SOL    HW271049   8.466   9.592   7.716
89718SOL     OW71050  12.898   1.467  14.836
89718SOL    HW171051  12.955   1.392  14.855
89718SOL    HW271052  12.875   1.501   0.047
89719SOL     OW71053  12.286   6.879   0.013
89719SOL    HW171054  12.339   6.939   0.065
89719SOL    HW271055  12.321   6.887  14.799
89720SOL     OW71056  14.400   4.277  14.697
89720SOL    HW171057  14.434   4.214  14.760
89720SOL    HW271058  14.336   4.328  14.746
89721SOL     OW71059   6.149   8.637  10.283
89721SOL    HW171060   6.071   8.663  10.332
89721SOL    HW271061   6.131   8.547  10.255
89722SOL     OW71062   6.872  13.665   9.426
89722SOL    HW171063   6.783  13.655   9.390
89722SOL    HW271064   6.921  13.591   9.389
89723SOL     OW71065   7.984   7.563   3.771
89723SOL    HW171066   8.068   7.584   3.729
89723SOL    HW271067   7.922   7.557   3.699
89724SOL     OW71068   9.959   4.418   0.940
89724SOL    HW171069   9.931   4.490   0.997
89724SOL    HW271070  10.055   4.422   0.941
89725SOL     OW71071   0.403  10.444   5.948
89725SOL    HW171072   0.380  10.362   5.991
89725SOL    HW271073   0.403  10.509   6.018
89726SOL     OW71074  11.151   7.760  12.648
89726SOL    HW171075  11.073   7.814  12.638
89726SOL    HW271076  11.219   7.807  12.599
89727SOL     OW71077  11.783   6.756   1.524
89727SOL    HW171078  11.815   6.846   1.525
89727SOL    HW271079  11.847   6.707   1.576
89728SOL     OW71080   8.854  10.768  14.162
89728SOL    HW171081   8.833  10.771  14.069
89728SOL    HW271082   8.783  10.816  14.205
89729SOL     OW71083  10.946   3.809  11.001
89729SOL    HW171084  11.038   3.780  11.005
89729SOL    HW271085  10.941   3.881  11.064
89730SOL     OW71086  13.100   5.467  11.355
89730SOL    HW171087  13.069   5.552  11.388
89730SOL    HW271088  13.041   5.403  11.394
89731SOL     OW71089  13.226  12.298   9.381
89731SOL    HW171090  13.147  12.323   9.332
89731SOL    HW271091  13.223  12.351   9.460
89732SOL     OW71092   2.576   4.723   0.891
89732SOL    HW171093   2.608   4.634   0.907
89732SOL    HW271094   2.637   4.760   0.828
89733SOL     OW71095  14.131   0.938  10.701
89733SOL    HW171096  14.132   0.976  10.613
89733SOL    HW271097  14.058   0.876  10.699
89734SOL     OW71098   8.917   8.768   1.711
89734SOL    HW171099   8.998   8.740   1.755
89734SOL    HW271100   8.853   8.701   1.735
89735SOL     OW71101   1.710   7.927   8.623
89735SOL    HW171102   1.714   8.003   8.681
89735SOL    HW271103   1.617   7.902   8.624
89736SOL     OW71104   2.664  10.879  14.771
89736SOL    HW171105   2.619  10.828  14.839
89736SOL    HW271106   2.753  10.890  14.803
89737SOL     OW71107   1.026   0.189  12.545
89737SOL    HW171108   1.044   0.231  12.628
89737SOL    HW271109   1.003   0.099  12.568
89738SOL     OW71110   4.285   8.138  11.829
89738SOL    HW171111   4.289   8.062  11.770
89738SOL    HW271112   4.355   8.196  11.799
89739SOL     OW71113   1.295   2.518   2.868
89739SOL    HW171114   1.275   2.600   2.914
89739SOL    HW271115   1.264   2.532   2.778
89740SOL     OW71116  14.176  10.821   9.082
89740SOL    HW171117  14.269  10.805   9.096
89740SOL    HW271118  14.155  10.897   9.137
89741SOL     OW71119   6.140  14.304   0.079
89741SOL    HW171120   6.124  14.250   0.002
89741SOL    HW271121   6.123  14.245   0.153
89742SOL     OW71122   6.969   7.174   0.230
89742SOL    HW171123   6.910   7.187   0.157
89742SOL    HW271124   7.010   7.260   0.244
89743SOL     OW71125  12.458  12.971   1.999
89743SOL    HW171126  12.412  13.051   2.026
89743SOL    HW271127  12.484  12.989   1.909
89744SOL     OW71128   5.855  11.890   0.643
89744SOL    HW171129   5.906  11.824   0.690
89744SOL    HW271130   5.836  11.957   0.708
89745SOL     OW71131   1.762   9.038   1.089
89745SOL    HW171132   1.688   9.098   1.078
89745SOL    HW271133   1.812   9.045   1.008
89746SOL     OW71134   7.124  13.701   6.370
89746SOL    HW171135   7.097  13.791   6.383
89746SOL    HW271136   7.052  13.648   6.404
89747SOL     OW71137   3.378   8.485   5.762
89747SOL    HW171138   3.422   8.544   5.700
89747SOL    HW271139   3.296   8.529   5.782
89748SOL     OW71140  13.969   4.569   4.761
89748SOL    HW171141  13.923   4.643   4.723
89748SOL    HW271142  13.900   4.507   4.784
89749SOL     OW71143   5.949   1.501  12.524
89749SOL    HW171144   6.035   1.529  12.492
89749SOL    HW271145   5.894   1.579  12.519
89750SOL     OW71146   2.270   9.140   3.863
89750SOL    HW171147   2.298   9.193   3.789
89750SOL    HW271148   2.336   9.156   3.931
89751SOL     OW71149   6.401   6.966   5.449
89751SOL    HW171150   6.484   6.926   5.422
89751SOL    HW271151   6.364   7.001   5.368
89752SOL     OW71152   6.438  12.919   5.139
89752SOL    HW171153   6.443  12.856   5.210
89752SOL    HW271154   6.490  12.880   5.068
89753SOL     OW71155   4.219   8.594  13.937
89753SOL    HW171156   4.164   8.658  13.982
89753SOL    HW271157   4.180   8.586  13.850
89754SOL     OW71158  12.331   9.020   7.419
89754SOL    HW171159  12.307   9.024   7.326
89754SOL    HW271160  12.316   9.109   7.451
89755SOL     OW71161   5.083   4.786   0.341
89755SOL    HW171162   5.112   4.792   0.432
89755SOL    HW271163   5.018   4.715   0.342
89756SOL     OW71164   0.869   9.722   4.499
89756SOL    HW171165   0.903   9.673   4.574
89756SOL    HW271166   0.813   9.659   4.453
89757SOL     OW71167   9.486  13.123   2.449
89757SOL    HW171168   9.512  13.069   2.374
89757SOL    HW271169   9.440  13.198   2.410
89758SOL     OW71170  12.683   8.106  12.769
89758SOL    HW171171  12.621   8.132  12.700
89758SOL    HW271172  12.752   8.172  12.767
89759SOL     OW71173  10.725  10.833   1.767
89759SOL    HW171174  10.813  10.865   1.782
89759SOL    HW271175  10.688  10.892   1.701
89760SOL     OW71176   1.724   1.884   1.513
89760SOL    HW171177   1.667   1.834   1.571
89760SOL    HW271178   1.781   1.934   1.572
89761SOL     OW71179   4.047   9.436   4.150
89761SOL    HW171180   3.968   9.462   4.198
89761SOL    HW271181   4.029   9.346   4.121
89762SOL     OW71182   8.015   6.682   3.938
89762SOL    HW171183   8.031   6.650   4.027
89762SOL    HW271184   8.089   6.647   3.887
89763SOL     OW71185   6.687  11.266  14.049
89763SOL    HW171186   6.681  11.245  13.956
89763SOL    HW271187   6.737  11.194  14.087
89764SOL     OW71188   9.255  11.605   0.610
89764SOL    HW171189   9.224  11.696   0.610
89764SOL    HW271190   9.247  11.577   0.519
89765SOL     OW71191  10.179  12.252   4.443
89765SOL    HW171192  10.244  12.296   4.389
89765SOL    HW271193  10.198  12.282   4.532
89766SOL     OW71194   1.357   6.046  13.232
89766SOL    HW171195   1.389   5.956  13.226
89766SOL    HW271196   1.389   6.078  13.316
89767SOL     OW71197  14.687   0.461  14.627
89767SOL    HW171198  14.619   0.409  14.671
89767SOL    HW271199  14.678   0.549  14.663
89768SOL     OW71200   2.644   2.260   0.014
89768SOL    HW171201   2.568   2.287  14.838
89768SOL    HW271202   2.714   2.250  14.824
89769SOL     OW71203   3.182   4.202   8.370
89769SOL    HW171204   3.269   4.171   8.396
89769SOL    HW271205   3.185   4.297   8.382
89770SOL     OW71206  13.714   7.734   4.715
89770SOL    HW171207  13.620   7.752   4.703
89770SOL    HW271208  13.741   7.794   4.785
89771SOL     OW71209   3.805   2.242  10.281
89771SOL    HW171210   3.890   2.278  10.257
89771SOL    HW271211   3.783   2.183  10.210
89772SOL     OW71212   2.231   3.747  12.735
89772SOL    HW171213   2.166   3.680  12.713
89772SOL    HW271214   2.219   3.815  12.669
89773SOL     OW71215   2.409   9.769   0.098
89773SOL    HW171216   2.428   9.745   0.007
89773SOL    HW271217   2.476   9.724   0.149
89774SOL     OW71218  13.648   5.418   0.714
89774SOL    HW171219  13.617   5.382   0.631
89774SOL    HW271220  13.569   5.423   0.768
89775SOL     OW71221  12.702   3.065  13.766
89775SOL    HW171222  12.615   3.106  13.763
89775SOL    HW271223  12.727   3.070  13.858
89776SOL     OW71224   3.128   1.258  11.977
89776SOL    HW171225   3.196   1.221  12.032
89776SOL    HW271226   3.130   1.206  11.897
89777SOL     OW71227  11.223   1.043   3.723
89777SOL    HW171228  11.249   1.010   3.637
89777SOL    HW271229  11.306   1.050   3.771
89778SOL     OW71230   8.881   6.410  14.062
89778SOL    HW171231   8.926   6.338  14.106
89778SOL    HW271232   8.852   6.467  14.133
89779SOL     OW71233  13.421   2.613   7.147
89779SOL    HW171234  13.484   2.636   7.079
89779SOL    HW271235  13.459   2.538   7.192
89780SOL     OW71236   2.607   4.222   5.530
89780SOL    HW171237   2.555   4.148   5.559
89780SOL    HW271238   2.582   4.235   5.439
89781SOL     OW71239   7.951  11.898   4.074
89781SOL    HW171240   7.936  11.980   4.026
89781SOL    HW271241   7.914  11.913   4.160
89782SOL     OW71242   1.459   0.476   3.243
89782SOL    HW171243   1.402   0.549   3.266
89782SOL    HW271244   1.421   0.441   3.162
89783SOL     OW71245   5.901  12.149   6.693
89783SOL    HW171246   5.994  12.173   6.698
89783SOL    HW271247   5.872  12.185   6.609
89784SOL     OW71248   7.741   5.120   7.855
89784SOL    HW171249   7.823   5.082   7.886
89784SOL    HW271250   7.767   5.181   7.786
89785SOL     OW71251  11.767   2.341   5.946
89785SOL    HW171252  11.772   2.363   5.853
89785SOL    HW271253  11.673   2.330   5.963
89786SOL     OW71254  12.778   8.010   9.263
89786SOL    HW171255  12.841   8.082   9.274
89786SOL    HW271256  12.716   8.022   9.334
89787SOL     OW71257  12.856   7.647  13.343
89787SOL    HW171258  12.927   7.649  13.408
89787SOL    HW271259  12.795   7.582  13.378
89788SOL     OW71260   2.835  14.405   3.895
89788SOL    HW171261   2.904  14.342   3.913
89788SOL    HW271262   2.865  14.486   3.938
89789SOL     OW71263  10.654   2.473   1.647
89789SOL    HW171264  10.721   2.405   1.663
89789SOL    HW271265  10.597   2.469   1.723
89790SOL     OW71266   9.647  10.596   5.649
89790SOL    HW171267   9.728  10.609   5.699
89790SOL    HW271268   9.632  10.679   5.604
89791SOL     OW71269  10.957  11.809  14.333
89791SOL    HW171270  11.031  11.768  14.288
89791SOL    HW271271  10.983  11.812  14.425
89792SOL     OW71272   8.183  10.392  12.689
89792SOL    HW171273   8.232  10.471  12.711
89792SOL    HW271274   8.234  10.351  12.619
89793SOL     OW71275   0.862  12.554  10.836
89793SOL    HW171276   0.933  12.548  10.900
89793SOL    HW271277   0.883  12.632  10.785
89794SOL     OW71278  13.538  13.185   6.257
89794SOL    HW171279  13.594  13.252   6.217
89794SOL    HW271280  13.590  13.105   6.252
89795SOL     OW71281  12.670  12.024  12.424
89795SOL    HW171282  12.649  12.048  12.515
89795SOL    HW271283  12.755  12.066  12.407
89796SOL     OW71284   4.570   5.017   8.049
89796SOL    HW171285   4.566   5.082   8.119
89796SOL    HW271286   4.661   5.021   8.017
89797SOL     OW71287   4.947  11.195  10.946
89797SOL    HW171288   4.917  11.155  11.028
89797SOL    HW271289   5.035  11.229  10.967
89798SOL     OW71290   4.990   0.223   3.002
89798SOL    HW171291   4.961   0.134   3.021
89798SOL    HW271292   5.076   0.230   3.045
89799SOL     OW71293   1.907  14.710  13.368
89799SOL    HW171294   1.987  14.697  13.317
89799SOL    HW271295   1.902  14.805  13.380
89800SOL     OW71296   3.984   8.038  14.256
89800SOL    HW171297   3.967   7.976  14.186
89800SOL    HW271298   3.906   8.034  14.311
89801SOL     OW71299   9.796   4.362   1.485
89801SOL    HW171300   9.842   4.443   1.461
89801SOL    HW271301   9.791   4.365   1.581
89802SOL     OW71302   0.266  14.108  10.978
89802SOL    HW171303   0.308  14.063  11.051
89802SOL    HW271304   0.173  14.089  10.988
89803SOL     OW71305   8.245   7.855   5.773
89803SOL    HW171306   8.230   7.835   5.680
89803SOL    HW271307   8.292   7.778   5.807
89804SOL     OW71308   6.326   0.777   3.772
89804SOL    HW171309   6.300   0.740   3.688
89804SOL    HW271310   6.418   0.754   3.781
89805SOL     OW71311  11.518   3.274   4.663
89805SOL    HW171312  11.546   3.269   4.754
89805SOL    HW271313  11.424   3.289   4.667
89806SOL     OW71314   9.207   4.222  10.503
89806SOL    HW171315   9.273   4.167  10.547
89806SOL    HW271316   9.164   4.163  10.441
89807SOL     OW71317   6.626  12.824  11.075
89807SOL    HW171318   6.597  12.745  11.120
89807SOL    HW271319   6.546  12.861  11.038
89808SOL     OW71320  12.427   2.171   6.697
89808SOL    HW171321  12.402   2.231   6.627
89808SOL    HW271322  12.463   2.227   6.766
89809SOL     OW71323   4.279   5.279   3.760
89809SOL    HW171324   4.320   5.204   3.717
89809SOL    HW271325   4.353   5.328   3.797
89810SOL     OW71326   4.429   9.895   4.146
89810SOL    HW171327   4.347   9.940   4.126
89810SOL    HW271328   4.497   9.949   4.105
89811SOL     OW71329  10.425   9.147  10.247
89811SOL    HW171330  10.349   9.204  10.261
89811SOL    HW271331  10.392   9.075  10.195
89812SOL     OW71332   8.061  10.614  11.158
89812SOL    HW171333   7.981  10.665  11.142
89812SOL    HW271334   8.089  10.586  11.071
89813SOL     OW71335   6.384  14.781   2.466
89813SOL    HW171336   6.379  14.857   2.408
89813SOL    HW271337   6.448  14.723   2.424
89814SOL     OW71338   3.895   8.211   4.157
89814SOL    HW171339   3.932   8.298   4.143
89814SOL    HW271340   3.805   8.218   4.124
89815SOL     OW71341   5.989   7.957  14.500
89815SOL    HW171342   6.066   7.989  14.453
89815SOL    HW271343   5.978   8.018  14.573
89816SOL     OW71344   9.396   3.873   3.788
89816SOL    HW171345   9.434   3.874   3.876
89816SOL    HW271346   9.311   3.831   3.800
89817SOL     OW71347   3.655   0.256   2.439
89817SOL    HW171348   3.605   0.245   2.519
89817SOL    HW271349   3.625   0.186   2.382
89818SOL     OW71350   3.999   6.120   8.440
89818SOL    HW171351   4.077   6.097   8.490
89818SOL    HW271352   3.972   6.204   8.476
89819SOL     OW71353   6.762  12.150  11.021
89819SOL    HW171354   6.822  12.095  11.070
89819SOL    HW271355   6.677  12.107  11.028
89820SOL     OW71356  14.864  13.788   0.596
89820SOL    HW171357   0.079  13.773   0.565
89820SOL    HW271358  14.812  13.794   0.516
89821SOL     OW71359   5.835   3.492   0.264
89821SOL    HW171360   5.792   3.440   0.196
89821SOL    HW271361   5.928   3.487   0.243
89822SOL     OW71362   2.852   4.793  12.843
89822SOL    HW171363   2.815   4.882  12.841
89822SOL    HW271364   2.930   4.798  12.787
89823SOL     OW71365   3.533   9.874   3.612
89823SOL    HW171366   3.461   9.825   3.651
89823SOL    HW271367   3.603   9.810   3.599
89824SOL     OW71368   8.843  13.299   0.807
89824SOL    HW171369   8.790  13.285   0.728
89824SOL    HW271370   8.811  13.234   0.869
89825SOL     OW71371   5.528   9.287   1.652
89825SOL    HW171372   5.446   9.319   1.616
89825SOL    HW271373   5.579   9.366   1.671
89826SOL     OW71374   9.552   7.906  11.491
89826SOL    HW171375   9.512   7.849  11.425
89826SOL    HW271376   9.580   7.846  11.560
89827SOL     OW71377   7.522   3.039  12.987
89827SOL    HW171378   7.530   3.074  13.076
89827SOL    HW271379   7.434   3.063  12.960
89828SOL     OW71380   9.846   3.036   2.975
89828SOL    HW171381   9.817   3.102   2.913
89828SOL    HW271382   9.821   3.071   3.061
89829SOL     OW71383   2.746   0.296   2.597
89829SOL    HW171384   2.792   0.369   2.556
89829SOL    HW271385   2.707   0.248   2.524
89830SOL     OW71386   6.137   7.686   3.670
89830SOL    HW171387   6.068   7.706   3.733
89830SOL    HW271388   6.095   7.630   3.605
89831SOL     OW71389  13.484  12.585   6.948
89831SOL    HW171390  13.544  12.648   6.908
89831SOL    HW271391  13.542  12.518   6.986
89832SOL     OW71392  14.432   6.166   4.732
89832SOL    HW171393  14.410   6.075   4.712
89832SOL    HW271394  14.357   6.199   4.781
89833SOL     OW71395   2.281   5.077  11.797
89833SOL    HW171396   2.230   5.024  11.736
89833SOL    HW271397   2.305   5.018  11.867
89834SOL     OW71398   0.909  10.487   7.077
89834SOL    HW171399   0.931  10.442   6.995
89834SOL    HW271400   0.919  10.419   7.144
89835SOL     OW71401  10.659   8.055   3.210
89835SOL    HW171402  10.738   8.005   3.190
89835SOL    HW271403  10.688   8.122   3.272
89836SOL     OW71404   9.481  10.061   2.640
89836SOL    HW171405   9.399  10.042   2.686
89836SOL    HW271406   9.548  10.059   2.707
89837SOL     OW71407  14.554  10.365  14.229
89837SOL    HW171408  14.555  10.292  14.167
89837SOL    HW271409  14.510  10.436  14.181
89838SOL     OW71410   0.472   3.559  10.420
89838SOL    HW171411   0.518   3.627  10.372
89838SOL    HW271412   0.471   3.484  10.360
89839SOL     OW71413   9.890   1.925   2.045
89839SOL    HW171414   9.873   1.996   1.984
89839SOL    HW271415   9.805   1.884   2.060
89840SOL     OW71416  12.734   7.353   7.588
89840SOL    HW171417  12.673   7.415   7.628
89840SOL    HW271418  12.739   7.379   7.496
89841SOL     OW71419   0.632  11.127   2.228
89841SOL    HW171420   0.587  11.159   2.306
89841SOL    HW271421   0.725  11.131   2.250
89842SOL     OW71422   6.253   9.573   1.201
89842SOL    HW171423   6.299   9.656   1.210
89842SOL    HW271424   6.246   9.559   1.107
89843SOL     OW71425  13.207   4.212  11.740
89843SOL    HW171426  13.155   4.169  11.808
89843SOL    HW271427  13.169   4.299  11.732
89844SOL     OW71428   6.209   5.150   6.367
89844SOL    HW171429   6.261   5.166   6.446
89844SOL    HW271430   6.234   5.219   6.307
89845SOL     OW71431   9.140   2.943   0.366
89845SOL    HW171432   9.187   2.996   0.301
89845SOL    HW271433   9.127   2.858   0.323
89846SOL     OW71434   0.056  14.840   4.327
89846SOL    HW171435   0.034  14.814   4.417
89846SOL    HW271436  14.864   0.029   4.304
89847SOL     OW71437   1.690   6.473   2.603
89847SOL    HW171438   1.718   6.473   2.695
89847SOL    HW271439   1.735   6.398   2.565
89848SOL     OW71440  13.867   8.395   7.646
89848SOL    HW171441  13.918   8.412   7.726
89848SOL    HW271442  13.882   8.472   7.591
89849SOL     OW71443   7.702   0.597   9.626
89849SOL    HW171444   7.719   0.658   9.698
89849SOL    HW271445   7.779   0.539   9.625
89850SOL     OW71446   9.451   9.117   5.966
89850SOL    HW171447   9.511   9.052   6.002
89850SOL    HW271448   9.391   9.067   5.911
89851SOL     OW71449  10.220  14.766   2.709
89851SOL    HW171450  10.278  14.702   2.668
89851SOL    HW271451  10.243  14.763   2.802
89852SOL     OW71452  13.148   0.472   2.401
89852SOL    HW171453  13.238   0.440   2.413
89852SOL    HW271454  13.130   0.456   2.308
89853SOL     OW71455  12.343   4.238   0.595
89853SOL    HW171456  12.404   4.197   0.655
89853SOL    HW271457  12.266   4.181   0.595
89854SOL     OW71458   9.884   3.789   1.050
89854SOL    HW171459   9.872   3.841   1.130
89854SOL    HW271460   9.968   3.819   1.016
89855SOL     OW71461  12.202  13.419  12.506
89855SOL    HW171462  12.282  13.440  12.458
89855SOL    HW271463  12.232  13.397  12.594
89856SOL     OW71464  14.711   0.294   0.120
89856SOL    HW171465  14.773   0.366   0.106
89856SOL    HW271466  14.661   0.320   0.197
89857SOL     OW71467   3.128   3.572   6.709
89857SOL    HW171468   3.201   3.511   6.718
89857SOL    HW271469   3.135   3.630   6.786
89858SOL     OW71470   7.213  14.620   8.597
89858SOL    HW171471   7.205  14.636   8.691
89858SOL    HW271472   7.251  14.533   8.590
89859SOL     OW71473   5.802  11.167   2.144
89859SOL    HW171474   5.890  11.167   2.108
89859SOL    HW271475   5.813  11.189   2.236
89860SOL     OW71476   4.602   0.257   4.555
89860SOL    HW171477   4.587   0.296   4.469
89860SOL    HW271478   4.553   0.313   4.616
89861SOL     OW71479   8.225   3.855   1.976
89861SOL    HW171480   8.280   3.901   1.912
89861SOL    HW271481   8.201   3.774   1.933
89862SOL     OW71482  14.062   5.803   4.961
89862SOL    HW171483  14.088   5.887   4.923
89862SOL    HW271484  13.977   5.820   5.001
89863SOL     OW71485  12.934  12.155  13.502
89863SOL    HW171486  12.937  12.067  13.464
89863SOL    HW271487  12.958  12.214  13.431
89864SOL     OW71488   3.842   1.154   9.273
89864SOL    HW171489   3.909   1.194   9.218
89864SOL    HW271490   3.890   1.116   9.346
89865SOL     OW71491   9.041   3.280  10.372
89865SOL    HW171492   9.061   3.232  10.452
89865SOL    HW271493   9.090   3.234  10.303
89866SOL     OW71494   0.487   4.289  14.043
89866SOL    HW171495   0.394   4.268  14.055
89866SOL    HW271496   0.490   4.340  13.962
89867SOL     OW71497   0.103   4.962   3.009
89867SOL    HW171498   0.117   4.910   2.930
89867SOL    HW271499   0.166   4.927   3.072
89868SOL     OW71500   6.856  13.947   8.538
89868SOL    HW171501   6.818  14.035   8.534
89868SOL    HW271502   6.782  13.888   8.523
89869SOL     OW71503  14.035   1.644  14.120
89869SOL    HW171504  14.120   1.608  14.093
89869SOL    HW271505  14.038   1.736  14.094
89870SOL     OW71506   5.633  10.951  11.987
89870SOL    HW171507   5.644  10.857  11.969
89870SOL    HW271508   5.665  10.962  12.076
89871SOL     OW71509   7.108   8.835  10.742
89871SOL    HW171510   7.186   8.833  10.687
89871SOL    HW271511   7.052   8.901  10.702
89872SOL     OW71512   5.543   6.505   4.203
89872SOL    HW171513   5.464   6.456   4.224
89872SOL    HW271514   5.606   6.478   4.270
89873SOL     OW71515   2.121   5.650   7.481
89873SOL    HW171516   2.216   5.649   7.467
89873SOL    HW271517   2.111   5.668   7.574
89874SOL     OW71518   7.865  14.260   2.789
89874SOL    HW171519   7.832  14.218   2.710
89874SOL    HW271520   7.958  14.274   2.773
89875SOL     OW71521  13.490   4.688   9.629
89875SOL    HW171522  13.455   4.614   9.579
89875SOL    HW271523  13.419   4.751   9.633
89876SOL     OW71524  13.257  12.100  13.143
89876SOL    HW171525  13.228  12.135  13.059
89876SOL    HW271526  13.218  12.013  13.147
89877SOL     OW71527   8.455   3.555   3.262
89877SOL    HW171528   8.369   3.574   3.302
89877SOL    HW271529   8.515   3.614   3.307
89878SOL     OW71530   5.238   2.946   7.247
89878SOL    HW171531   5.159   2.925   7.197
89878SOL    HW271532   5.224   2.903   7.332
89879SOL     OW71533   0.168  11.197  14.582
89879SOL    HW171534   0.219  11.170  14.658
89879SOL    HW271535   0.119  11.119  14.556
89880SOL     OW71536   1.263   8.018   1.006
89880SOL    HW171537   1.292   8.027   1.096
89880SOL    HW271538   1.279   8.104   0.967
89881SOL     OW71539   4.963   0.867   1.713
89881SOL    HW171540   4.870   0.855   1.730
89881SOL    HW271541   4.994   0.781   1.685
89882SOL     OW71542   0.047   8.640   9.928
89882SOL    HW171543   0.108   8.688   9.985
89882SOL    HW271544  14.842   8.633   9.980
89883SOL     OW71545   2.037   8.515   7.591
89883SOL    HW171546   1.975   8.548   7.525
89883SOL    HW271547   1.983   8.503   7.670
89884SOL     OW71548   6.337  12.827   6.886
89884SOL    HW171549   6.384  12.743   6.887
89884SOL    HW271550   6.406  12.892   6.901
89885SOL     OW71551  12.078  13.321   9.371
89885SOL    HW171552  12.126  13.379   9.313
89885SOL    HW271553  12.017  13.274   9.314
89886SOL     OW71554  10.799  13.455   0.339
89886SOL    HW171555  10.749  13.450   0.257
89886SOL    HW271556  10.870  13.516   0.320
89887SOL     OW71557   5.837  13.862   8.426
89887SOL    HW171558   5.771  13.930   8.434
89887SOL    HW271559   5.884  13.883   8.345
89888SOL     OW71560   9.888   4.640   1.829
89888SOL    HW171561   9.833   4.575   1.786
89888SOL    HW271562   9.906   4.603   1.915
89889SOL     OW71563   3.518   1.184  10.189
89889SOL    HW171564   3.549   1.269  10.159
89889SOL    HW271565   3.563   1.120  10.134
89890SOL     OW71566  14.838   8.467  14.285
89890SOL    HW171567   0.002   8.386  14.318
89890SOL    HW271568  14.749   8.441  14.259
89891SOL     OW71569   4.225   9.815   7.766
89891SOL    HW171570   4.283   9.799   7.840
89891SOL    HW271571   4.283   9.838   7.693
89892SOL     OW71572   0.258   4.161   4.977
89892SOL    HW171573   0.319   4.092   5.005
89892SOL    HW271574   0.175   4.115   4.965
89893SOL     OW71575   7.570   9.928   9.821
89893SOL    HW171576   7.612   9.945   9.736
89893SOL    HW271577   7.496   9.872   9.801
89894SOL     OW71578   8.823   1.065  14.709
89894SOL    HW171579   8.880   1.067  14.785
89894SOL    HW271580   8.765   1.140  14.719
89895SOL     OW71581  12.987   5.442   1.473
89895SOL    HW171582  12.933   5.366   1.456
89895SOL    HW271583  13.041   5.453   1.395
89896SOL     OW71584   7.916   2.336  10.367
89896SOL    HW171585   7.957   2.420  10.349
89896SOL    HW271586   7.938   2.281  10.292
89897SOL     OW71587   2.897   1.569   0.069
89897SOL    HW171588   2.837   1.552   0.141
89897SOL    HW271589   2.849   1.628   0.011
89898SOL     OW71590  11.942  14.114   1.818
89898SOL    HW171591  11.923  14.183   1.881
89898SOL    HW271592  11.937  14.156   1.733
89899SOL     OW71593   2.756   9.839   5.748
89899SOL    HW171594   2.706   9.757   5.751
89899SOL    HW271595   2.757   9.864   5.656
89900SOL     OW71596   0.175  11.889   4.201
89900SOL    HW171597   0.160  11.800   4.233
89900SOL    HW271598   0.117  11.897   4.125
89901SOL     OW71599  10.499   5.386   0.343
89901SOL    HW171600  10.477   5.444   0.270
89901SOL    HW271601  10.456   5.426   0.419
89902SOL     OW71602  10.487  12.519   7.302
89902SOL    HW171603  10.567  12.506   7.251
89902SOL    HW271604  10.417  12.517   7.236
89903SOL     OW71605  10.782   6.666   7.354
89903SOL    HW171606  10.722   6.660   7.279
89903SOL    HW271607  10.787   6.576   7.387
89904SOL     OW71608  12.476   6.805   5.999
89904SOL    HW171609  12.511   6.893   6.012
89904SOL    HW271610  12.487   6.762   6.083
89905SOL     OW71611  14.088   4.502   8.040
89905SOL    HW171612  14.104   4.573   8.102
89905SOL    HW271613  14.012   4.456   8.075
89906SOL     OW71614   0.090  10.836  11.844
89906SOL    HW171615   0.031  10.802  11.911
89906SOL    HW271616   0.048  10.813  11.761
89907SOL     OW71617   6.513   6.753  14.510
89907SOL    HW171618   6.419   6.772  14.502
89907SOL    HW271619   6.521   6.712  14.597
89908SOL     OW71620  14.130   3.372   9.050
89908SOL    HW171621  14.072   3.423   8.995
89908SOL    HW271622  14.179   3.317   8.989
89909SOL     OW71623   2.352   1.055  10.124
89909SOL    HW171624   2.308   1.094  10.200
89909SOL    HW271625   2.360   1.128  10.062
89910SOL     OW71626   3.125   9.402   8.416
89910SOL    HW171627   3.180   9.463   8.366
89910SOL    HW271628   3.140   9.317   8.375
89911SOL     OW71629   4.380   1.965   5.853
89911SOL    HW171630   4.402   1.880   5.891
89911SOL    HW271631   4.344   2.016   5.926
89912SOL     OW71632   9.709  11.560   8.384
89912SOL    HW171633   9.665  11.549   8.300
89912SOL    HW271634   9.803  11.556   8.363
89913SOL     OW71635   9.180  13.633  14.625
89913SOL    HW171636   9.196  13.559  14.683
89913SOL    HW271637   9.168  13.594  14.538
89914SOL     OW71638  11.113  10.574   9.504
89914SOL    HW171639  11.120  10.483   9.533
89914SOL    HW271640  11.061  10.569   9.424
89915SOL     OW71641   7.759   8.960   4.719
89915SOL    HW171642   7.711   9.026   4.669
89915SOL    HW271643   7.691   8.899   4.749
89916SOL     OW71644  14.684   0.347  12.908
89916SOL    HW171645  14.630   0.290  12.854
89916SOL    HW271646  14.650   0.435  12.891
89917SOL     OW71647   9.425   4.101   3.046
89917SOL    HW171648   9.339   4.107   3.087
89917SOL    HW271649   9.424   4.169   2.979
89918SOL     OW71650   5.346  10.524  13.434
89918SOL    HW171651   5.421  10.540  13.376
89918SOL    HW271652   5.285  10.474  13.380
89919SOL     OW71653   4.509   2.097   0.838
89919SOL    HW171654   4.605   2.100   0.836
89919SOL    HW271655   4.484   2.168   0.897
89920SOL     OW71656  10.509  10.766   8.530
89920SOL    HW171657  10.516  10.678   8.492
89920SOL    HW271658  10.534  10.755   8.622
89921SOL     OW71659   7.240  10.530   5.764
89921SOL    HW171660   7.271  10.609   5.720
89921SOL    HW271661   7.204  10.476   5.694
89922SOL     OW71662   2.759   2.084   2.304
89922SOL    HW171663   2.719   2.000   2.323
89922SOL    HW271664   2.790   2.077   2.214
89923SOL     OW71665  13.738   2.964   6.676
89923SOL    HW171666  13.710   3.042   6.724
89923SOL    HW271667  13.816   2.934   6.722
89924SOL     OW71668  10.797  12.676   2.322
89924SOL    HW171669  10.730  12.662   2.389
89924SOL    HW271670  10.778  12.762   2.286
89925SOL     OW71671   2.118   9.702  14.831
89925SOL    HW171672   2.117   9.727   0.048
89925SOL    HW271673   2.131   9.785  14.784
89926SOL     OW71674  14.386   9.010   1.541
89926SOL    HW171675  14.413   9.026   1.632
89926SOL    HW271676  14.468   8.998   1.494
89927SOL     OW71677   7.596  13.812   0.658
89927SOL    HW171678   7.661  13.857   0.711
89927SOL    HW271679   7.563  13.742   0.714
89928SOL     OW71680  14.593   7.546   9.040
89928SOL    HW171681  14.601   7.588   8.954
89928SOL    HW271682  14.623   7.456   9.026
89929SOL     OW71683   7.123   4.881   8.625
89929SOL    HW171684   7.133   4.791   8.657
89929SOL    HW271685   7.213   4.912   8.614
89930SOL     OW71686  13.783  13.571  13.982
89930SOL    HW171687  13.856  13.604  14.034
89930SOL    HW271688  13.705  13.596  14.032
89931SOL     OW71689   6.393   6.315   8.678
89931SOL    HW171690   6.426   6.267   8.754
89931SOL    HW271691   6.311   6.354   8.708
89932SOL     OW71692   4.602   3.262  11.904
89932SOL    HW171693   4.524   3.236  11.953
89932SOL    HW271694   4.612   3.355  11.922
89933SOL     OW71695  12.694   1.985  11.775
89933SOL    HW171696  12.781   1.988  11.814
89933SOL    HW271697  12.710   1.972  11.681
89934SOL     OW71698  11.380  11.231  12.911
89934SOL    HW171699  11.308  11.175  12.883
89934SOL    HW271700  11.413  11.269  12.830
89935SOL     OW71701   6.410   7.234   6.594
89935SOL    HW171702   6.406   7.325   6.623
89935SOL    HW271703   6.379   7.237   6.503
89936SOL     OW71704   0.377   9.561   8.337
89936SOL    HW171705   0.456   9.591   8.383
89936SOL    HW271706   0.408   9.540   8.248
89937SOL     OW71707   3.202   1.851  13.630
89937SOL    HW171708   3.114   1.877  13.603
89937SOL    HW271709   3.187   1.786  13.699
89938SOL     OW71710  12.319   3.633   7.906
89938SOL    HW171711  12.391   3.571   7.921
89938SOL    HW271712  12.331   3.699   7.974
89939SOL     OW71713  14.433   2.740   0.859
89939SOL    HW171714  14.373   2.791   0.806
89939SOL    HW271715  14.469   2.802   0.923
89940SOL     OW71716  12.794   9.706   0.806
89940SOL    HW171717  12.780   9.742   0.894
89940SOL    HW271718  12.759   9.774   0.747
89941SOL     OW71719   2.346   8.979   8.741
89941SOL    HW171720   2.375   9.051   8.797
89941SOL    HW271721   2.374   9.004   8.653
89942SOL     OW71722   6.364   4.791   6.924
89942SOL    HW171723   6.442   4.773   6.977
89942SOL    HW271724   6.299   4.822   6.988
89943SOL     OW71725   9.176   2.872   9.206
89943SOL    HW171726   9.164   2.785   9.167
89943SOL    HW271727   9.150   2.933   9.138
89944SOL     OW71728   3.153  11.764  13.319
89944SOL    HW171729   3.211  11.839  13.313
89944SOL    HW271730   3.212  11.688  13.323
89945SOL     OW71731   6.570   9.641   3.653
89945SOL    HW171732   6.528   9.555   3.644
89945SOL    HW271733   6.512   9.701   3.605
89946SOL     OW71734   3.526  11.084  11.535
89946SOL    HW171735   3.440  11.113  11.505
89946SOL    HW271736   3.508  11.030  11.613
89947SOL     OW71737  10.807   7.454   5.883
89947SOL    HW171738  10.759   7.526   5.924
89947SOL    HW271739  10.818   7.390   5.952
89948SOL     OW71740   3.047   7.888  12.901
89948SOL    HW171741   3.004   7.903  12.985
89948SOL    HW271742   2.994   7.820  12.859
89949SOL     OW71743   1.390  11.190   2.988
89949SOL    HW171744   1.410  11.276   2.952
89949SOL    HW271745   1.466  11.136   2.965
89950SOL     OW71746  10.555  12.689  13.143
89950SOL    HW171747  10.579  12.758  13.203
89950SOL    HW271748  10.506  12.733  13.074
89951SOL     OW71749  14.861   4.087   3.119
89951SOL    HW171750  14.866   4.160   3.057
89951SOL    HW271751   0.066   4.095   3.172
89952SOL     OW71752   6.536   3.822   2.591
89952SOL    HW171753   6.446   3.815   2.621
89952SOL    HW271754   6.543   3.756   2.522
89953SOL     OW71755  11.763   5.529   8.950
89953SOL    HW171756  11.728   5.614   8.977
89953SOL    HW271757  11.791   5.542   8.859
89954SOL     OW71758  10.373   6.614   8.237
89954SOL    HW171759  10.336   6.691   8.194
89954SOL    HW271760  10.366   6.544   8.172
89955SOL     OW71761  12.339   7.441   7.025
89955SOL    HW171762  12.356   7.346   7.029
89955SOL    HW271763  12.413   7.480   7.070
89956SOL     OW71764  11.065  10.815  13.121
89956SOL    HW171765  11.109  10.860  13.049
89956SOL    HW271766  10.985  10.866  13.136
89957SOL     OW71767   1.319  13.100  14.460
89957SOL    HW171768   1.227  13.078  14.451
89957SOL    HW271769   1.366  13.020  14.437
89958SOL     OW71770  12.826  13.190   2.095
89958SOL    HW171771  12.829  13.152   2.183
89958SOL    HW271772  12.880  13.268   2.101
89959SOL     OW71773   1.971  10.290  12.529
89959SOL    HW171774   2.014  10.307  12.446
89959SOL    HW271775   2.023  10.220  12.569
89960SOL     OW71776   8.753   7.644  13.186
89960SOL    HW171777   8.697   7.577  13.224
89960SOL    HW271778   8.734   7.723  13.235
89961SOL     OW71779  10.487   1.727  12.552
89961SOL    HW171780  10.514   1.635  12.548
89961SOL    HW271781  10.423   1.730  12.623
89962SOL     OW71782   7.001   2.420   6.560
89962SOL    HW171783   7.077   2.476   6.579
89962SOL    HW271784   6.966   2.398   6.647
89963SOL     OW71785   0.438   5.313  10.042
89963SOL    HW171786   0.433   5.398   9.999
89963SOL    HW271787   0.347   5.282  10.045
89964SOL     OW71788   8.556   1.204   4.684
89964SOL    HW171789   8.640   1.205   4.639
89964SOL    HW271790   8.514   1.286   4.659
89965SOL     OW71791   7.091   2.332  14.663
89965SOL    HW171792   7.013   2.278  14.677
89965SOL    HW271793   7.057   2.420  14.649
89966SOL     OW71794   4.011   3.635   2.204
89966SOL    HW171795   4.069   3.578   2.154
89966SOL    HW271796   3.968   3.577   2.267
89967SOL     OW71797   2.190   6.289  14.199
89967SOL    HW171798   2.130   6.359  14.224
89967SOL    HW271799   2.211   6.245  14.282
89968SOL     OW71800   7.235  12.961   4.087
89968SOL    HW171801   7.262  12.929   4.173
89968SOL    HW271802   7.278  12.902   4.024
89969SOL     OW71803   2.798  11.229  11.300
89969SOL    HW171804   2.750  11.312  11.296
89969SOL    HW271805   2.840  11.221  11.214
89970SOL     OW71806   5.413  13.525   9.732
89970SOL    HW171807   5.409  13.620   9.743
89970SOL    HW271808   5.364  13.490   9.807
89971SOL     OW71809  12.995   8.026   2.177
89971SOL    HW171810  12.959   8.011   2.265
89971SOL    HW271811  13.010   8.121   2.174
89972SOL     OW71812  13.486   0.795   7.841
89972SOL    HW171813  13.558   0.772   7.783
89972SOL    HW271814  13.420   0.833   7.784
89973SOL     OW71815   4.877   3.161   6.053
89973SOL    HW171816   4.883   3.241   6.106
89973SOL    HW271817   4.829   3.099   6.108
89974SOL     OW71818   3.049  10.801   1.343
89974SOL    HW171819   3.038  10.748   1.264
89974SOL    HW271820   2.986  10.765   1.405
89975SOL     OW71821   3.231   7.513   3.556
89975SOL    HW171822   3.192   7.436   3.516
89975SOL    HW271823   3.299   7.479   3.614
89976SOL     OW71824  12.798   8.280   1.797
89976SOL    HW171825  12.752   8.226   1.861
89976SOL    HW271826  12.733   8.344   1.768
89977SOL     OW71827   7.003   1.696   2.872
89977SOL    HW171828   6.946   1.622   2.896
89977SOL    HW271829   7.010   1.689   2.776
89978SOL     OW71830  11.465   0.176   3.963
89978SOL    HW171831  11.467   0.123   3.884
89978SOL    HW271832  11.372   0.183   3.985
89979SOL     OW71833   2.094   3.385  10.564
89979SOL    HW171834   2.176   3.421  10.599
89979SOL    HW271835   2.107   3.291  10.564
89980SOL     OW71836   6.473   2.345   5.536
89980SOL    HW171837   6.398   2.301   5.496
89980SOL    HW271838   6.442   2.371   5.623
89981SOL     OW71839   3.473  14.549   9.723
89981SOL    HW171840   3.558  14.591   9.736
89981SOL    HW271841   3.438  14.590   9.643
89982SOL     OW71842   5.188  14.759   4.860
89982SOL    HW171843   5.242  14.791   4.788
89982SOL    HW271844   5.213  14.814   4.935
89983SOL     OW71845   5.358   1.713  10.026
89983SOL    HW171846   5.266   1.731  10.008
89983SOL    HW271847   5.401   1.799  10.022
89984SOL     OW71848  14.612   7.937  12.360
89984SOL    HW171849  14.568   7.854  12.379
89984SOL    HW271850  14.633   7.933  12.267
89985SOL     OW71851   6.796   1.033   2.236
89985SOL    HW171852   6.889   1.027   2.257
89985SOL    HW271853   6.766   1.112   2.283
89986SOL     OW71854   7.721   7.222   3.925
89986SOL    HW171855   7.811   7.254   3.929
89986SOL    HW271856   7.695   7.235   3.834
89987SOL     OW71857   4.752   1.299   7.973
89987SOL    HW171858   4.836   1.305   7.929
89987SOL    HW271859   4.710   1.384   7.956
89988SOL     OW71860  14.309   6.826   8.882
89988SOL    HW171861  14.338   6.749   8.834
89988SOL    HW271862  14.305   6.896   8.816
89989SOL     OW71863  10.977  13.834   2.812
89989SOL    HW171864  10.932  13.890   2.748
89989SOL    HW271865  10.911  13.771   2.839
89990SOL     OW71866   1.688  12.340   9.405
89990SOL    HW171867   1.673  12.404   9.475
89990SOL    HW271868   1.613  12.350   9.346
89991SOL     OW71869   0.211   3.211   9.146
89991SOL    HW171870   0.232   3.197   9.238
89991SOL    HW271871   0.273   3.154   9.099
89992SOL     OW71872   1.458   6.341  11.481
89992SOL    HW171873   1.403   6.298  11.547
89992SOL    HW271874   1.547   6.316  11.505
89993SOL     OW71875   1.557   6.804   7.760
89993SOL    HW171876   1.610   6.762   7.693
89993SOL    HW271877   1.594   6.891   7.770
89994SOL     OW71878   6.290   8.644  12.605
89994SOL    HW171879   6.231   8.570  12.619
89994SOL    HW271880   6.233   8.721  12.610
89995SOL     OW71881   7.993  13.085  11.142
89995SOL    HW171882   7.983  13.130  11.226
89995SOL    HW271883   7.914  13.033  11.133
89996SOL     OW71884   5.437  11.549   8.241
89996SOL    HW171885   5.458  11.460   8.211
89996SOL    HW271886   5.381  11.585   8.172
89997SOL     OW71887   8.932   7.328   6.913
89997SOL    HW171888   8.950   7.234   6.904
89997SOL    HW271889   9.017   7.367   6.933
89998SOL     OW71890   8.428  10.230  11.841
89998SOL    HW171891   8.353  10.242  11.781
89998SOL    HW271892   8.402  10.275  11.921
89999SOL     OW71893  10.551   2.784  11.397
89999SOL    HW171894  10.467   2.823  11.422
89999SOL    HW271895  10.539   2.759  11.305
90000SOL     OW71896  12.735  10.992  11.663
90000SOL    HW171897  12.805  10.927  11.663
90000SOL    HW271898  12.672  10.960  11.598
90001SOL     OW71899   6.397  10.834   7.731
90001SOL    HW171900   6.457  10.760   7.738
90001SOL    HW271901   6.403  10.861   7.639
90002SOL     OW71902   7.330  13.301   6.483
90002SOL    HW171903   7.284  13.301   6.567
90002SOL    HW271904   7.280  13.362   6.429
90003SOL     OW71905  13.433   0.207   3.871
90003SOL    HW171906  13.489   0.278   3.904
90003SOL    HW271907  13.346   0.246   3.865
90004SOL     OW71908   1.298   4.846  10.523
90004SOL    HW171909   1.246   4.832  10.443
90004SOL    HW271910   1.324   4.938  10.520
90005SOL     OW71911   7.453   8.089   4.470
90005SOL    HW171912   7.496   8.112   4.388
90005SOL    HW271913   7.492   8.147   4.535
90006SOL     OW71914   7.578   7.817   6.435
90006SOL    HW171915   7.537   7.821   6.349
90006SOL    HW271916   7.666   7.852   6.422
90007SOL     OW71917  12.719  11.130   1.700
90007SOL    HW171918  12.709  11.096   1.611
90007SOL    HW271919  12.747  11.221   1.687
90008SOL     OW71920   0.998   1.305  10.201
90008SOL    HW171921   1.019   1.250  10.276
90008SOL    HW271922   0.905   1.290  10.186
90009SOL     OW71923   0.795   6.623  14.574
90009SOL    HW171924   0.850   6.701  14.568
90009SOL    HW271925   0.803   6.582  14.488
90010SOL     OW71926  10.681  13.959  12.209
90010SOL    HW171927  10.695  13.896  12.139
90010SOL    HW271928  10.604  14.008  12.183
90011SOL     OW71929  14.159   3.629   4.666
90011SOL    HW171930  14.076   3.643   4.621
90011SOL    HW271931  14.225   3.663   4.605
90012SOL     OW71932   0.763  10.554   6.138
90012SOL    HW171933   0.858  10.560   6.151
90012SOL    HW271934   0.752  10.545   6.043
90013SOL     OW71935   1.523   4.889   8.021
90013SOL    HW171936   1.437   4.915   8.054
90013SOL    HW271937   1.504   4.846   7.937
90014SOL     OW71938   9.422   0.196  12.908
90014SOL    HW171939   9.445   0.125  12.967
90014SOL    HW271940   9.330   0.215  12.927
90015SOL     OW71941  12.085   3.325   3.369
90015SOL    HW171942  12.087   3.404   3.315
90015SOL    HW271943  12.169   3.324   3.414
90016SOL     OW71944   5.784   6.115  13.453
90016SOL    HW171945   5.722   6.116  13.380
90016SOL    HW271946   5.866   6.146  13.415
90017SOL     OW71947   2.296  10.225   5.140
90017SOL    HW171948   2.263  10.251   5.226
90017SOL    HW271949   2.367  10.163   5.160
90018SOL     OW71950   1.877   6.898  10.407
90018SOL    HW171951   1.913   6.945  10.333
90018SOL    HW271952   1.797   6.857  10.373
90019SOL     OW71953   5.445   8.470   0.655
90019SOL    HW171954   5.353   8.490   0.634
90019SOL    HW271955   5.449   8.375   0.658
90020SOL     OW71956   2.237  14.754   7.616
90020SOL    HW171957   2.282  14.691   7.673
90020SOL    HW271958   2.206  14.822   7.675
90021SOL     OW71959   6.261   7.916   7.219
90021SOL    HW171960   6.341   7.924   7.167
90021SOL    HW271961   6.257   7.823   7.241
90022SOL     OW71962   1.327  10.884   1.602
90022SOL    HW171963   1.362  10.964   1.640
90022SOL    HW271964   1.235  10.883   1.630
90023SOL     OW71965   1.073  13.735  12.263
90023SOL    HW171966   1.163  13.768  12.260
90023SOL    HW271967   1.036  13.759  12.178
90024SOL     OW71968  14.854   7.612  13.593
90024SOL    HW171969  14.771   7.568  13.609
90024SOL    HW271970   0.006   7.583  13.506
90025SOL     OW71971   3.496  14.567   0.121
90025SOL    HW171972   3.419  14.620   0.144
90025SOL    HW271973   3.537  14.547   0.205
90026SOL     OW71974   1.665   4.152   3.830
90026SOL    HW171975   1.687   4.061   3.850
90026SOL    HW271976   1.725   4.204   3.885
90027SOL     OW71977   2.960  13.325  13.261
90027SOL    HW171978   3.053  13.345  13.256
90027SOL    HW271979   2.932  13.319  13.169
90028SOL     OW71980  14.265  14.101   3.190
90028SOL    HW171981  14.345  14.105   3.242
90028SOL    HW271982  14.230  14.191   3.192
90029SOL     OW71983   1.039   0.851   9.846
90029SOL    HW171984   1.042   0.937   9.887
90029SOL    HW271985   0.988   0.797   9.906
90030SOL     OW71986  14.065   5.524   9.467
90030SOL    HW171987  14.137   5.579   9.434
90030SOL    HW271988  14.083   5.516   9.561
90031SOL     OW71989   5.723   1.336   1.422
90031SOL    HW171990   5.682   1.420   1.442
90031SOL    HW271991   5.660   1.271   1.451
90032SOL     OW71992  14.048  12.993   8.299
90032SOL    HW171993  13.988  12.926   8.332
90032SOL    HW271994  14.058  12.971   8.206
90033SOL     OW71995  11.174  14.724   5.285
90033SOL    HW171996  11.200  14.802   5.335
90033SOL    HW271997  11.233  14.725   5.209
90034SOL     OW71998   8.877   4.159  11.630
90034SOL    HW171999   8.830   4.199  11.556
90034SOL    HW272000   8.937   4.227  11.660
90035SOL     OW72001  12.146   6.256   4.185
90035SOL    HW172002  12.177   6.184   4.130
90035SOL    HW272003  12.053   6.235   4.201
90036SOL     OW72004   2.375   6.574  10.635
90036SOL    HW172005   2.382   6.660  10.676
90036SOL    HW272006   2.462   6.558  10.597
90037SOL     OW72007  12.207  11.138   7.728
90037SOL    HW172008  12.184  11.080   7.656
90037SOL    HW272009  12.123  11.171   7.759
90038SOL     OW72010   1.993   5.122   9.558
90038SOL    HW172011   1.957   5.034   9.568
90038SOL    HW272012   2.064   5.126   9.622
90039SOL     OW72013   2.814   9.192   0.579
90039SOL    HW172014   2.847   9.222   0.664
90039SOL    HW272015   2.730   9.150   0.599
90040SOL     OW72016   0.974  11.878   0.629
90040SOL    HW172017   0.964  11.821   0.705
90040SOL    HW272018   0.916  11.952   0.647
90041SOL     OW72019  10.695  12.219   0.300
90041SOL    HW172020  10.781  12.246   0.269
90041SOL    HW272021  10.711  12.133   0.341
90042SOL     OW72022   2.503  14.530  12.013
90042SOL    HW172023   2.434  14.590  12.042
90042SOL    HW272024   2.487  14.449  12.061
90043SOL     OW72025   1.270  14.195  10.039
90043SOL    HW172026   1.320  14.128  10.086
90043SOL    HW272027   1.310  14.197   9.952
90044SOL     OW72028  10.139   7.066   6.150
90044SOL    HW172029  10.070   7.076   6.216
90044SOL    HW272030  10.204   7.009   6.192
90045SOL     OW72031   8.450  10.864   0.294
90045SOL    HW172032   8.389  10.925   0.336
90045SOL    HW272033   8.502  10.828   0.367
90046SOL     OW72034   1.104   8.152  14.370
90046SOL    HW172035   1.093   8.226  14.430
90046SOL    HW272036   1.198   8.144  14.357
90047SOL     OW72037  11.349  14.177   6.518
90047SOL    HW172038  11.320  14.243   6.455
90047SOL    HW272039  11.330  14.093   6.475
90048SOL     OW72040   9.162   1.891   8.971
90048SOL    HW172041   9.240   1.932   8.934
90048SOL    HW272042   9.102   1.964   8.989
90049SOL     OW72043   5.104  12.849  11.083
90049SOL    HW172044   5.054  12.926  11.110
90049SOL    HW272045   5.082  12.782  11.148
90050SOL     OW72046   4.036   8.569   3.109
90050SOL    HW172047   3.976   8.643   3.115
90050SOL    HW272048   4.119   8.602   3.145
90051SOL     OW72049   9.371  10.251  12.931
90051SOL    HW172050   9.462  10.245  12.905
90051SOL    HW272051   9.328  10.294  12.856
90052SOL     OW72052   1.986  14.427   4.333
90052SOL    HW172053   1.982  14.426   4.429
90052SOL    HW272054   1.897  14.404   4.306
90053SOL     OW72055   3.715   6.478   9.504
90053SOL    HW172056   3.641   6.509   9.452
90053SOL    HW272057   3.675   6.429   9.576
90054SOL     OW72058  10.188   8.718   9.406
90054SOL    HW172059  10.158   8.778   9.337
90054SOL    HW272060  10.131   8.642   9.399
90055SOL     OW72061   5.373   9.754  13.844
90055SOL    HW172062   5.466   9.772  13.828
90055SOL    HW272063   5.336   9.743  13.756
90056SOL     OW72064  11.779  13.233  13.975
90056SOL    HW172065  11.745  13.197  13.894
90056SOL    HW272066  11.793  13.157  14.032
90057SOL     OW72067   4.675  12.893   5.734
90057SOL    HW172068   4.684  12.806   5.696
90057SOL    HW272069   4.752  12.941   5.704
90058SOL     OW72070   3.427   6.088  13.984
90058SOL    HW172071   3.520   6.093  13.960
90058SOL    HW272072   3.385   6.157  13.932
90059SOL     OW72073  13.869   8.181   4.132
90059SOL    HW172074  13.835   8.097   4.163
90059SOL    HW272075  13.892   8.166   4.041
90060SOL     OW72076   0.471   3.268   2.495
90060SOL    HW172077   0.533   3.221   2.439
90060SOL    HW272078   0.521   3.290   2.574
90061SOL     OW72079  12.269  12.961   6.772
90061SOL    HW172080  12.260  13.018   6.696
90061SOL    HW272081  12.267  12.872   6.736
90062SOL     OW72082   0.030   5.819   4.276
90062SOL    HW172083  14.863   5.855   4.355
90062SOL    HW272084  14.835   5.815   4.211
90063SOL     OW72085  10.720   8.659   6.846
90063SOL    HW172086  10.800   8.687   6.801
90063SOL    HW272087  10.650   8.675   6.784
90064SOL     OW72088   2.864   2.410   0.120
90064SOL    HW172089   2.839   2.368   0.037
90064SOL    HW272090   2.800   2.480   0.131
90065SOL     OW72091   8.573   7.604   7.319
90065SOL    HW172092   8.598   7.545   7.390
90065SOL    HW272093   8.649   7.661   7.308
90066SOL     OW72094   9.646  13.985  10.158
90066SOL    HW172095   9.653  13.976  10.253
90066SOL    HW272096   9.598  14.067  10.145
90067SOL     OW72097   6.409   9.289   1.880
90067SOL    HW172098   6.317   9.272   1.901
90067SOL    HW272099   6.417   9.267   1.787
90068SOL     OW72100   2.627   2.236   7.172
90068SOL    HW172101   2.621   2.322   7.213
90068SOL    HW272102   2.710   2.238   7.124
90069SOL     OW72103  14.278  13.962   9.068
90069SOL    HW172104  14.347  13.897   9.057
90069SOL    HW272105  14.218  13.945   8.995
90070SOL     OW72106  12.412   4.495   0.541
90070SOL    HW172107  12.344   4.561   0.550
90070SOL    HW272108  12.367   4.411   0.552
90071SOL     OW72109   4.003   0.507   3.292
90071SOL    HW172110   4.086   0.503   3.339
90071SOL    HW272111   3.960   0.424   3.310
90072SOL     OW72112  10.440   5.480  10.896
90072SOL    HW172113  10.416   5.406  10.840
90072SOL    HW272114  10.363   5.538  10.893
90073SOL     OW72115   6.261   7.574  10.050
90073SOL    HW172116   6.312   7.512   9.998
90073SOL    HW272117   6.221   7.632   9.986
90074SOL     OW72118   2.056   8.117   9.206
90074SOL    HW172119   1.969   8.156   9.211
90074SOL    HW272120   2.113   8.188   9.176
90075SOL     OW72121  10.118   2.531   9.054
90075SOL    HW172122  10.100   2.528   8.960
90075SOL    HW272123  10.104   2.441   9.083
90076SOL     OW72124  11.453   7.292  11.238
90076SOL    HW172125  11.466   7.373  11.190
90076SOL    HW272126  11.466   7.316  11.330
90077SOL     OW72127   7.649   7.494   4.399
90077SOL    HW172128   7.562   7.487   4.438
90077SOL    HW272129   7.643   7.444   4.317
90078SOL     OW72130   0.413   4.021   3.809
90078SOL    HW172131   0.385   3.952   3.749
90078SOL    HW272132   0.380   4.102   3.771
90079SOL     OW72133  14.235  12.180  11.023
90079SOL    HW172134  14.191  12.105  11.064
90079SOL    HW272135  14.232  12.248  11.090
90080SOL     OW72136   1.209   9.407   4.110
90080SOL    HW172137   1.231   9.358   4.189
90080SOL    HW272138   1.258   9.489   4.117
90081SOL     OW72139   2.813   3.563   7.286
90081SOL    HW172140   2.850   3.481   7.252
90081SOL    HW272141   2.817   3.623   7.213
90082SOL     OW72142  11.076  13.624  14.586
90082SOL    HW172143  11.102  13.649  14.497
90082SOL    HW272144  11.122  13.541  14.602
90083SOL     OW72145   7.414   2.927   2.253
90083SOL    HW172146   7.330   2.950   2.292
90083SOL    HW272147   7.479   2.961   2.314
90084SOL     OW72148   2.437   7.201   8.401
90084SOL    HW172149   2.357   7.150   8.385
90084SOL    HW272150   2.499   7.168   8.337
90085SOL     OW72151  14.277   8.136   2.857
90085SOL    HW172152  14.275   8.067   2.790
90085SOL    HW272153  14.362   8.125   2.899
90086SOL     OW72154  13.514  14.638   6.267
90086SOL    HW172155  13.427  14.603   6.289
90086SOL    HW272156  13.518  14.633   6.172
90087SOL     OW72157   1.311  11.717   6.981
90087SOL    HW172158   1.359  11.637   6.961
90087SOL    HW272159   1.230  11.688   7.023
90088SOL     OW72160   3.890   2.018   6.913
90088SOL    HW172161   3.888   1.937   6.963
90088SOL    HW272162   3.848   1.996   6.830
90089SOL     OW72163   6.085   2.020   2.592
90089SOL    HW172164   5.991   2.004   2.603
90089SOL    HW272165   6.091   2.113   2.570
90090SOL     OW72166   3.712   6.434   4.154
90090SOL    HW172167   3.770   6.433   4.230
90090SOL    HW272168   3.767   6.469   4.083
90091SOL     OW72169   9.709  10.627   2.334
90091SOL    HW172170   9.770  10.697   2.359
90091SOL    HW272171   9.622  10.666   2.343
90092SOL     OW72172   0.874  11.388   2.554
90092SOL    HW172173   0.852  11.430   2.471
90092SOL    HW272174   0.831  11.442   2.620
90093SOL     OW72175  11.341  13.922   8.035
90093SOL    HW172176  11.361  13.903   7.943
90093SOL    HW272177  11.336  14.018   8.040
90094SOL     OW72178   9.299  14.804   5.976
90094SOL    HW172179   9.227  14.866   5.987
90094SOL    HW272180   9.358  14.846   5.914
90095SOL     OW72181   7.506  11.199  11.207
90095SOL    HW172182   7.543  11.178  11.293
90095SOL    HW272183   7.465  11.118  11.178
90096SOL     OW72184   0.258  11.427   6.129
90096SOL    HW172185   0.182  11.425   6.072
90096SOL    HW272186   0.223  11.455   6.214
90097SOL     OW72187   3.576   0.870   0.211
90097SOL    HW172188   3.483   0.854   0.193
90097SOL    HW272189   3.583   0.867   0.306
90098SOL     OW72190   6.592   4.050  11.348
90098SOL    HW172191   6.631   4.109  11.283
90098SOL    HW272192   6.523   4.103  11.389
90099SOL     OW72193   4.976  10.116   8.983
90099SOL    HW172194   5.016  10.112   8.896
90099SOL    HW272195   4.891  10.074   8.972
90100SOL     OW72196  13.610   8.247  14.437
90100SOL    HW172197  13.570   8.170  14.396
90100SOL    HW272198  13.683   8.212  14.488
90101SOL     OW72199   0.046   4.757   6.907
90101SOL    HW172200   0.136   4.746   6.939
90101SOL    HW272201   0.049   4.727   6.816
90102SOL     OW72202  11.508   4.472  12.155
90102SOL    HW172203  11.587   4.479  12.208
90102SOL    HW272204  11.531   4.515  12.073
90103SOL     OW72205  11.080   7.940  12.985
90103SOL    HW172206  11.100   7.849  12.964
90103SOL    HW272207  11.011   7.936  13.050
90104SOL     OW72208   2.413  14.588   6.651
90104SOL    HW172209   2.398  14.669   6.601
90104SOL    HW272210   2.347  14.590   6.721
90105SOL     OW72211  12.384   3.898   0.234
90105SOL    HW172212  12.363   3.855   0.151
90105SOL    HW272213  12.447   3.966   0.211
90106SOL     OW72214   2.287   3.102   4.106
90106SOL    HW172215   2.231   3.135   4.036
90106SOL    HW272216   2.239   3.121   4.186
90107SOL     OW72217   0.044   6.088   7.037
90107SOL    HW172218  14.866   6.008   7.036
90107SOL    HW272219   0.133   6.057   7.016
90108SOL     OW72220   6.529  12.120  10.535
90108SOL    HW172221   6.439  12.087  10.537
90108SOL    HW272222   6.540  12.164  10.619
90109SOL     OW72223   4.361  11.822   2.254
90109SOL    HW172224   4.315  11.750   2.297
90109SOL    HW272225   4.294  11.890   2.244
90110SOL     OW72226  11.344  14.555  11.158
90110SOL    HW172227  11.420  14.516  11.200
90110SOL    HW272228  11.379  14.604  11.084
90111SOL     OW72229   2.865   7.522   9.627
90111SOL    HW172230   2.866   7.466   9.705
90111SOL    HW272231   2.785   7.497   9.581
90112SOL     OW72232   7.453   1.173  13.420
90112SOL    HW172233   7.447   1.245  13.482
90112SOL    HW272234   7.416   1.097  13.466
90113SOL     OW72235  13.265   3.436   0.664
90113SOL    HW172236  13.356   3.421   0.690
90113SOL    HW272237  13.213   3.396   0.734
90114SOL     OW72238  11.418  12.662   2.319
90114SOL    HW172239  11.514  12.667   2.311
90114SOL    HW272240  11.385  12.714   2.246
90115SOL     OW72241   7.250   7.675  10.347
90115SOL    HW172242   7.206   7.756  10.372
90115SOL    HW272243   7.339   7.685  10.379
90116SOL     OW72244  12.169   1.003   0.841
90116SOL    HW172245  12.170   1.063   0.766
90116SOL    HW272246  12.210   0.923   0.808
90117SOL     OW72247   1.743  14.260   7.649
90117SOL    HW172248   1.818  14.285   7.595
90117SOL    HW272249   1.734  14.330   7.714
90118SOL     OW72250   7.959   0.055   4.392
90118SOL    HW172251   8.040   0.017   4.359
90118SOL    HW272252   7.907  14.855   4.421
90119SOL     OW72253   4.088  12.257   7.546
90119SOL    HW172254   3.996  12.246   7.522
90119SOL    HW272255   4.107  12.349   7.529
90120SOL     OW72256  14.687   1.772   1.238
90120SOL    HW172257  14.779   1.800   1.231
90120SOL    HW272258  14.687   1.683   1.202
90121SOL     OW72259   0.463   9.377   8.549
90121SOL    HW172260   0.520   9.375   8.472
90121SOL    HW272261   0.483   9.460   8.592
90122SOL     OW72262  10.897   5.590  11.195
90122SOL    HW172263  10.807   5.564  11.178
90122SOL    HW272264  10.946   5.508  11.199
90123SOL     OW72265   0.655   9.943  11.293
90123SOL    HW172266   0.608   9.929  11.375
90123SOL    HW272267   0.591   9.986  11.236
90124SOL     OW72268   1.858   4.443   2.695
90124SOL    HW172269   1.863   4.469   2.603
90124SOL    HW272270   1.925   4.374   2.704
90125SOL     OW72271   7.140   8.931   7.697
90125SOL    HW172272   7.176   9.003   7.748
90125SOL    HW272273   7.089   8.880   7.760
90126SOL     OW72274   5.940   0.402   4.882
90126SOL    HW172275   5.986   0.387   4.965
90126SOL    HW272276   5.879   0.329   4.874
90127SOL     OW72277   5.530   0.324  14.676
90127SOL    HW172278   5.447   0.301  14.717
90127SOL    HW272279   5.522   0.292  14.586
90128SOL     OW72280   5.917   1.392  14.680
90128SOL    HW172281   5.890   1.312  14.725
90128SOL    HW272282   5.936   1.454  14.751
90129SOL     OW72283   6.012   5.175  10.853
90129SOL    HW172284   6.068   5.198  10.927
90129SOL    HW272285   5.935   5.231  10.864
90130SOL     OW72286   1.548  12.137   8.245
90130SOL    HW172287   1.570  12.146   8.338
90130SOL    HW272288   1.501  12.218   8.224
90131SOL     OW72289  13.212   3.220   9.329
90131SOL    HW172290  13.251   3.140   9.363
90131SOL    HW272291  13.164   3.257   9.403
90132SOL     OW72292  14.459  12.390   9.464
90132SOL    HW172293  14.383  12.386   9.521
90132SOL    HW272294  14.423  12.405   9.377
90133SOL     OW72295   0.814  11.446   5.769
90133SOL    HW172296   0.883  11.396   5.814
90133SOL    HW272297   0.733  11.417   5.811
90134SOL     OW72298   5.362   1.236  12.480
90134SOL    HW172299   5.274   1.273  12.482
90134SOL    HW272300   5.388   1.239  12.388
90135SOL     OW72301   5.022   8.409   6.383
90135SOL    HW172302   4.945   8.416   6.326
90135SOL    HW272303   4.987   8.403   6.471
90136SOL     OW72304   6.886   2.414  10.068
90136SOL    HW172305   6.951   2.396  10.136
90136SOL    HW272306   6.914   2.496  10.028
90137SOL     OW72307   6.873  11.665   5.732
90137SOL    HW172308   6.865  11.651   5.638
90137SOL    HW272309   6.784  11.654   5.765
90138SOL     OW72310   0.855   0.936   0.109
90138SOL    HW172311   0.796   1.009   0.126
90138SOL    HW272312   0.805   0.878   0.052
90139SOL     OW72313   5.264  14.527  10.839
90139SOL    HW172314   5.227  14.441  10.858
90139SOL    HW272315   5.211  14.560  10.765
90140SOL     OW72316  14.732   6.215   1.926
90140SOL    HW172317  14.644   6.251   1.939
90140SOL    HW272318  14.718   6.123   1.906
90141SOL     OW72319   3.645   2.587   5.310
90141SOL    HW172320   3.707   2.654   5.341
90141SOL    HW272321   3.653   2.517   5.375
90142SOL     OW72322  13.276   6.313   6.371
90142SOL    HW172323  13.357   6.271   6.344
90142SOL    HW272324  13.302   6.399   6.403
90143SOL     OW72325   3.956   1.000   7.557
90143SOL    HW172326   3.927   1.082   7.598
90143SOL    HW272327   4.038   1.023   7.514
90144SOL     OW72328   0.964  11.238   1.259
90144SOL    HW172329   0.912  11.318   1.256
90144SOL    HW272330   0.950  11.203   1.347
90145SOL     OW72331  14.312   7.422   2.236
90145SOL    HW172332  14.351   7.498   2.279
90145SOL    HW272333  14.282   7.456   2.151
90146SOL     OW72334  10.424   3.580  12.011
90146SOL    HW172335  10.465   3.664  12.032
90146SOL    HW272336  10.387   3.549  12.093
90147SOL     OW72337  11.521   6.733  12.281
90147SOL    HW172338  11.547   6.688  12.201
90147SOL    HW272339  11.556   6.679  12.352
90148SOL     OW72340   7.950  10.855   4.533
90148SOL    HW172341   7.953  10.821   4.623
90148SOL    HW272342   8.008  10.931   4.534
90149SOL     OW72343   7.659   8.314   0.674
90149SOL    HW172344   7.652   8.221   0.694
90149SOL    HW272345   7.612   8.357   0.745
90150SOL     OW72346   5.136   7.562   3.946
90150SOL    HW172347   5.138   7.508   3.867
90150SOL    HW272348   5.180   7.509   4.012
90151SOL     OW72349   7.216   8.394   8.527
90151SOL    HW172350   7.307   8.371   8.509
90151SOL    HW272351   7.220   8.485   8.557
90152SOL     OW72352   8.818  10.698   2.521
90152SOL    HW172353   8.780  10.766   2.576
90152SOL    HW272354   8.881  10.654   2.577
90153SOL     OW72355   4.157  10.459   9.111
90153SOL    HW172356   4.205  10.495   9.036
90153SOL    HW272357   4.215  10.476   9.186
90154SOL     OW72358  14.752   7.151  14.682
90154SOL    HW172359  14.831   7.128  14.633
90154SOL    HW272360  14.682   7.101  14.640
90155SOL     OW72361   1.907   6.419   9.463
90155SOL    HW172362   1.949   6.380   9.386
90155SOL    HW272363   1.919   6.514   9.452
90156SOL     OW72364   5.389   1.280   1.544
90156SOL    HW172365   5.449   1.223   1.591
90156SOL    HW272366   5.333   1.220   1.494
90157SOL     OW72367   9.663  14.414   5.954
90157SOL    HW172368   9.570  14.434   5.953
90157SOL    HW272369   9.705  14.496   5.981
90158SOL     OW72370  12.987   9.778  11.698
90158SOL    HW172371  13.000   9.871  11.712
90158SOL    HW272372  13.076   9.741  11.696
90159SOL     OW72373  12.691  12.355   5.416
90159SOL    HW172374  12.742  12.303   5.479
90159SOL    HW272375  12.662  12.431   5.467
90160SOL     OW72376  10.029   8.025   5.098
90160SOL    HW172377  10.099   8.083   5.068
90160SOL    HW272378  10.074   7.945   5.125
90161SOL     OW72379  11.289   4.104   8.239
90161SOL    HW172380  11.290   4.025   8.186
90161SOL    HW272381  11.233   4.165   8.190
90162SOL     OW72382   0.479   1.986  11.844
90162SOL    HW172383   0.461   1.967  11.752
90162SOL    HW272384   0.553   1.930  11.866
90163SOL     OW72385   6.535   8.094   2.699
90163SOL    HW172386   6.628   8.100   2.718
90163SOL    HW272387   6.517   8.169   2.642
90164SOL     OW72388   6.768   6.132   7.163
90164SOL    HW172389   6.789   6.067   7.097
90164SOL    HW272390   6.721   6.084   7.231
90165SOL     OW72391   9.784  12.680   4.089
90165SOL    HW172392   9.744  12.721   4.013
90165SOL    HW272393   9.878  12.687   4.074
90166SOL     OW72394   9.414   0.336  11.449
90166SOL    HW172395   9.471   0.260  11.452
90166SOL    HW272396   9.439   0.388  11.525
90167SOL     OW72397  13.650   3.277   2.821
90167SOL    HW172398  13.729   3.283   2.768
90167SOL    HW272399  13.674   3.220   2.893
90168SOL     OW72400   7.078  13.184   0.134
90168SOL    HW172401   7.148  13.123   0.113
90168SOL    HW272402   6.999  13.130   0.143
90169SOL     OW72403  14.471   1.316   9.227
90169SOL    HW172404  14.397   1.262   9.255
90169SOL    HW272405  14.546   1.255   9.225
90170SOL     OW72406  11.786   4.361   9.789
90170SOL    HW172407  11.695   4.341   9.767
90170SOL    HW272408  11.827   4.276   9.805
90171SOL     OW72409  10.049   7.456   1.034
90171SOL    HW172410  10.116   7.436   1.100
90171SOL    HW272411  10.081   7.534   0.990
90172SOL     OW72412   3.440   3.390  13.384
90172SOL    HW172413   3.444   3.322  13.452
90172SOL    HW272414   3.385   3.458  13.422
90173SOL     OW72415   7.666   1.844   1.173
90173SOL    HW172416   7.709   1.928   1.191
90173SOL    HW272417   7.677   1.794   1.253
90174SOL     OW72418  12.430   2.482   8.886
90174SOL    HW172419  12.342   2.520   8.880
90174SOL    HW272420  12.431   2.414   8.819
90175SOL     OW72421  13.829   5.553   1.275
90175SOL    HW172422  13.899   5.497   1.309
90175SOL    HW272423  13.761   5.491   1.247
90176SOL     OW72424   0.770   0.129   1.613
90176SOL    HW172425   0.751   0.124   1.707
90176SOL    HW272426   0.698   0.179   1.576
90177SOL     OW72427   1.736  13.342   2.172
90177SOL    HW172428   1.740  13.362   2.078
90177SOL    HW272429   1.664  13.395   2.205
90178SOL     OW72430  14.268   0.290   1.207
90178SOL    HW172431  14.291   0.332   1.123
90178SOL    HW272432  14.211   0.217   1.182
90179SOL     OW72433   3.559  14.333   8.752
90179SOL    HW172434   3.606  14.252   8.769
90179SOL    HW272435   3.614  14.381   8.690
90180SOL     OW72436   5.886   9.385   4.080
90180SOL    HW172437   5.838   9.468   4.076
90180SOL    HW272438   5.880   9.359   4.172
90181SOL     OW72439  11.399   4.117  11.884
90181SOL    HW172440  11.490   4.100  11.907
90181SOL    HW272441  11.366   4.033  11.852
90182SOL     OW72442   7.799   7.818   5.483
90182SOL    HW172443   7.781   7.906   5.516
90182SOL    HW272444   7.886   7.824   5.445
90183SOL     OW72445  11.861   2.822   4.385
90183SOL    HW172446  11.805   2.837   4.308
90183SOL    HW272447  11.873   2.727   4.388
90184SOL     OW72448   1.494  14.240   7.479
90184SOL    HW172449   1.571  14.183   7.489
90184SOL    HW272450   1.530  14.323   7.449
90185SOL     OW72451   3.581   7.908   6.336
90185SOL    HW172452   3.543   7.954   6.410
90185SOL    HW272453   3.542   7.950   6.259
90186SOL     OW72454  13.238  12.502  10.358
90186SOL    HW172455  13.281  12.540  10.435
90186SOL    HW272456  13.286  12.420  10.342
90187SOL     OW72457   6.800   5.664   8.628
90187SOL    HW172458   6.745   5.597   8.669
90187SOL    HW272459   6.867   5.614   8.581
90188SOL     OW72460   1.382   8.358   8.008
90188SOL    HW172461   1.419   8.429   8.062
90188SOL    HW272462   1.424   8.369   7.923
90189SOL     OW72463   9.989   7.423  11.395
90189SOL    HW172464  10.052   7.428  11.323
90189SOL    HW272465   9.952   7.511  11.401
90190SOL     OW72466  12.374   6.019   7.381
90190SOL    HW172467  12.454   5.988   7.424
90190SOL    HW272468  12.338   5.942   7.338
90191SOL     OW72469  11.438   9.360   9.387
90191SOL    HW172470  11.439   9.327   9.476
90191SOL    HW272471  11.431   9.455   9.397
90192SOL     OW72472   4.582  12.486   6.219
90192SOL    HW172473   4.521  12.495   6.146
90192SOL    HW272474   4.580  12.571   6.262
90193SOL     OW72475   6.114  12.379   7.254
90193SOL    HW172476   6.079  12.462   7.223
90193SOL    HW272477   6.200  12.372   7.212
90194SOL     OW72478   3.617  13.916  14.240
90194SOL    HW172479   3.677  13.981  14.278
90194SOL    HW272480   3.542  13.916  14.298
90195SOL     OW72481  13.374  11.686  12.703
90195SOL    HW172482  13.309  11.617  12.701
90195SOL    HW272483  13.404  11.688  12.794
90196SOL     OW72484   5.508   4.702   3.518
90196SOL    HW172485   5.545   4.619   3.549
90196SOL    HW272486   5.432   4.677   3.465
90197SOL     OW72487  13.248   4.682   5.620
90197SOL    HW172488  13.227   4.610   5.561
90197SOL    HW272489  13.167   4.699   5.667
90198SOL     OW72490   9.020  12.335   6.098
90198SOL    HW172491   8.936  12.347   6.142
90198SOL    HW272492   9.060  12.260   6.141
90199SOL     OW72493  13.266   8.693  13.716
90199SOL    HW172494  13.354   8.679  13.748
90199SOL    HW272495  13.267   8.658  13.627
90200SOL     OW72496   2.115  13.421  10.453
90200SOL    HW172497   2.136  13.372  10.373
90200SOL    HW272498   2.129  13.513  10.429
90201SOL     OW72499  11.896   7.617   1.650
90201SOL    HW172500  11.962   7.673   1.609
90201SOL    HW272501  11.899   7.642   1.743
90202SOL     OW72502  11.044  14.140   2.969
90202SOL    HW172503  10.952  14.118   2.983
90202SOL    HW272504  11.084  14.058   2.941
90203SOL     OW72505  12.638   2.979  10.401
90203SOL    HW172506  12.727   3.004  10.426
90203SOL    HW272507  12.626   2.892  10.438
90204SOL     OW72508  13.686  13.446  11.199
90204SOL    HW172509  13.689  13.512  11.130
90204SOL    HW272510  13.593  13.420  11.204
90205SOL     OW72511   3.789   2.273  14.464
90205SOL    HW172512   3.748   2.189  14.442
90205SOL    HW272513   3.846   2.252  14.538
90206SOL     OW72514  13.665   8.844   4.401
90206SOL    HW172515  13.753   8.862   4.434
90206SOL    HW272516  13.675   8.768   4.344
90207SOL     OW72517   2.139   7.278   8.848
90207SOL    HW172518   2.126   7.183   8.857
90207SOL    HW272519   2.215   7.287   8.791
90208SOL     OW72520  10.974   7.433  11.152
90208SOL    HW172521  10.936   7.356  11.108
90208SOL    HW272522  10.994   7.493  11.081
90209SOL     OW72523   7.213   6.062  12.246
90209SOL    HW172524   7.281   6.124  12.221
90209SOL    HW272525   7.231   5.984  12.195
90210SOL     OW72526  11.449   2.658  10.815
90210SOL    HW172527  11.419   2.575  10.779
90210SOL    HW272528  11.369   2.708  10.834
90211SOL     OW72529   3.114   5.077  11.369
90211SOL    HW172530   3.190   5.033  11.330
90211SOL    HW272531   3.125   5.066  11.463
90212SOL     OW72532   3.532   2.031   9.449
90212SOL    HW172533   3.457   2.013   9.391
90212SOL    HW272534   3.602   2.059   9.390
90213SOL     OW72535   6.852   9.873  10.278
90213SOL    HW172536   6.924   9.814  10.298
90213SOL    HW272537   6.797   9.824  10.217
90214SOL     OW72538   5.450   1.185  14.413
90214SOL    HW172539   5.360   1.219  14.412
90214SOL    HW272540   5.478   1.188  14.322
90215SOL     OW72541   8.349   7.078   6.113
90215SOL    HW172542   8.290   7.122   6.175
90215SOL    HW272543   8.329   6.985   6.123
90216SOL     OW72544   3.108   4.689  14.309
90216SOL    HW172545   3.183   4.631  14.295
90216SOL    HW272546   3.057   4.647  14.378
90217SOL     OW72547   2.903   5.863   4.975
90217SOL    HW172548   2.958   5.787   4.995
90217SOL    HW272549   2.836   5.828   4.915
90218SOL     OW72550   9.553   8.703   5.183
90218SOL    HW172551   9.566   8.615   5.218
90218SOL    HW272552   9.606   8.706   5.104
90219SOL     OW72553   0.922   1.882   3.956
90219SOL    HW172554   0.977   1.829   4.013
90219SOL    HW272555   0.834   1.846   3.968
90220SOL     OW72556   8.939   1.282   1.406
90220SOL    HW172557   8.848   1.301   1.381
90220SOL    HW272558   8.936   1.191   1.436
90221SOL     OW72559   7.392   4.886   8.668
90221SOL    HW172560   7.463   4.945   8.644
90221SOL    HW272561   7.366   4.914   8.756
90222SOL     OW72562  14.057   5.851  12.886
90222SOL    HW172563  14.145   5.846  12.849
90222SOL    HW272564  14.045   5.943  12.908
90223SOL     OW72565   6.251   2.332   2.872
90223SOL    HW172566   6.184   2.314   2.806
90223SOL    HW272567   6.318   2.266   2.858
90224SOL     OW72568   3.729  11.946   2.694
90224SOL    HW172569   3.672  12.016   2.661
90224SOL    HW272570   3.817  11.972   2.666
90225SOL     OW72571   6.137  10.475  10.581
90225SOL    HW172572   6.176  10.433  10.658
90225SOL    HW272573   6.068  10.414  10.554
90226SOL     OW72574   7.466   5.248  10.106
90226SOL    HW172575   7.544   5.215  10.062
90226SOL    HW272576   7.448   5.183  10.175
90227SOL     OW72577   8.531  14.470   1.714
90227SOL    HW172578   8.526  14.429   1.800
90227SOL    HW272579   8.557  14.560   1.731
90228SOL     OW72580  13.079   0.003   7.992
90228SOL    HW172581  13.149  14.812   7.997
90228SOL    HW272582  13.120   0.084   8.022
90229SOL     OW72583   7.879   9.494   7.501
90229SOL    HW172584   7.804   9.506   7.443
90229SOL    HW272585   7.865   9.408   7.541
90230SOL     OW72586   0.411  13.727   7.713
90230SOL    HW172587   0.448  13.669   7.647
90230SOL    HW272588   0.319  13.701   7.721
90231SOL     OW72589  12.190  10.453   5.767
90231SOL    HW172590  12.141  10.532   5.790
90231SOL    HW272591  12.213  10.414   5.852
90232SOL     OW72592   5.423   4.925   3.009
90232SOL    HW172593   5.422   4.874   2.928
90232SOL    HW272594   5.493   4.887   3.061
90233SOL     OW72595  13.861   2.184  12.123
90233SOL    HW172596  13.776   2.217  12.151
90233SOL    HW272597  13.860   2.091  12.148
90234SOL     OW72598  10.445   9.870  14.026
90234SOL    HW172599  10.519   9.816  13.998
90234SOL    HW272600  10.383   9.866  13.954
90235SOL     OW72601   1.854   3.681   3.025
90235SOL    HW172602   1.858   3.608   3.087
90235SOL    HW272603   1.872   3.758   3.078
90236SOL     OW72604   9.975   2.549   6.869
90236SOL    HW172605   9.881   2.541   6.854
90236SOL    HW272606   9.991   2.496   6.947
90237SOL     OW72607  13.832   6.692   8.376
90237SOL    HW172608  13.791   6.616   8.334
90237SOL    HW272609  13.761   6.755   8.387
90238SOL     OW72610  13.940   3.452  10.744
90238SOL    HW172611  13.939   3.424  10.653
90238SOL    HW272612  13.900   3.379  10.792
90239SOL     OW72613   0.787  12.900   9.300
90239SOL    HW172614   0.720  12.945   9.351
90239SOL    HW272615   0.830  12.969   9.250
90240SOL     OW72616   7.132   0.624   7.781
90240SOL    HW172617   7.056   0.601   7.834
90240SOL    HW272618   7.168   0.702   7.824
90241SOL     OW72619   3.287  10.063  10.726
90241SOL    HW172620   3.339  10.037  10.802
90241SOL    HW272621   3.316  10.005  10.656
90242SOL     OW72622   1.524   2.512   3.279
90242SOL    HW172623   1.467   2.586   3.298
90242SOL    HW272624   1.593   2.517   3.346
90243SOL     OW72625   9.172   7.928   0.762
90243SOL    HW172626   9.118   7.975   0.826
90243SOL    HW272627   9.109   7.880   0.708
90244SOL     OW72628   8.631   0.159  10.870
90244SOL    HW172629   8.699   0.125  10.811
90244SOL    HW272630   8.610   0.246  10.835
90245SOL     OW72631   3.942  11.214   8.660
90245SOL    HW172632   4.019  11.242   8.711
90245SOL    HW272633   3.976  11.145   8.603
90246SOL     OW72634   3.675   2.251   0.037
90246SOL    HW172635   3.579   2.253   0.028
90246SOL    HW272636   3.706   2.316  14.849
90247SOL     OW72637   7.853  10.645   4.056
90247SOL    HW172638   7.902  10.667   4.135
90247SOL    HW272639   7.920  10.630   3.989
90248SOL     OW72640   1.982  14.331   1.791
90248SOL    HW172641   2.051  14.295   1.736
90248SOL    HW272642   1.902  14.320   1.740
90249SOL     OW72643  11.110   2.244  14.336
90249SOL    HW172644  11.187   2.215  14.287
90249SOL    HW272645  11.065   2.304  14.277
90250SOL     OW72646   9.476  13.475  12.265
90250SOL    HW172647   9.525  13.445  12.341
90250SOL    HW272648   9.473  13.398  12.207
90251SOL     OW72649  14.360   1.051  14.227
90251SOL    HW172650  14.423   1.081  14.163
90251SOL    HW272651  14.411   0.994  14.285
90252SOL     OW72652   3.125   0.884   3.811
90252SOL    HW172653   3.154   0.938   3.885
90252SOL    HW272654   3.072   0.816   3.851
90253SOL     OW72655  10.855   3.923   3.138
90253SOL    HW172656  10.863   4.000   3.082
90253SOL    HW272657  10.761   3.915   3.154
90254SOL     OW72658  10.651   6.262   7.220
90254SOL    HW172659  10.669   6.196   7.153
90254SOL    HW272660  10.558   6.281   7.210
90255SOL     OW72661   6.765  11.526   0.248
90255SOL    HW172662   6.684  11.486   0.216
90255SOL    HW272663   6.822  11.528   0.171
90256SOL     OW72664   7.127  11.261   8.198
90256SOL    HW172665   7.184  11.307   8.137
90256SOL    HW272666   7.063  11.217   8.141
90257SOL     OW72667  10.112   3.629   5.800
90257SOL    HW172668  10.084   3.720   5.812
90257SOL    HW272669  10.190   3.634   5.745
90258SOL     OW72670   7.818   0.890  11.637
90258SOL    HW172671   7.856   0.959  11.693
90258SOL    HW272672   7.742   0.931  11.597
90259SOL     OW72673   6.353   7.985   5.795
90259SOL    HW172674   6.333   8.027   5.711
90259SOL    HW272675   6.360   8.057   5.857
90260SOL     OW72676   4.814  13.395   5.724
90260SOL    HW172677   4.804  13.468   5.786
90260SOL    HW272678   4.739  13.403   5.665
90261SOL     OW72679  11.980   4.968  14.450
90261SOL    HW172680  11.967   5.061  14.471
90261SOL    HW272681  12.022   4.931  14.527
90262SOL     OW72682   5.558   9.161   0.126
90262SOL    HW172683   5.556   9.233   0.188
90262SOL    HW272684   5.643   9.119   0.141
90263SOL     OW72685  10.213   0.082  12.635
90263SOL    HW172686  10.155   0.135  12.689
90263SOL    HW272687  10.300   0.119  12.649
90264SOL     OW72688   6.207   8.904   7.036
90264SOL    HW172689   6.285   8.944   6.997
90264SOL    HW272690   6.207   8.935   7.126
90265SOL     OW72691  13.770   9.343  11.826
90265SOL    HW172692  13.712   9.381  11.760
90265SOL    HW272693  13.806   9.417  11.873
90266SOL     OW72694   5.455   3.797  13.629
90266SOL    HW172695   5.525   3.836  13.577
90266SOL    HW272696   5.384   3.861  13.626
90267SOL     OW72697   8.212   0.331   5.954
90267SOL    HW172698   8.299   0.291   5.952
90267SOL    HW272699   8.171   0.297   6.033
90268SOL     OW72700   5.864   6.633  14.465
90268SOL    HW172701   5.857   6.590  14.380
90268SOL    HW272702   5.909   6.568  14.520
90269SOL     OW72703  10.263  11.528   6.153
90269SOL    HW172704  10.178  11.541   6.195
90269SOL    HW272705  10.269  11.599   6.089
90270SOL     OW72706   3.255  11.155  13.246
90270SOL    HW172707   3.296  11.136  13.162
90270SOL    HW272708   3.201  11.079  13.266
90271SOL     OW72709   7.509   5.546   0.335
90271SOL    HW172710   7.441   5.488   0.370
90271SOL    HW272711   7.572   5.556   0.406
90272SOL     OW72712   8.737   8.592   1.845
90272SOL    HW172713   8.688   8.606   1.926
90272SOL    HW272714   8.683   8.531   1.795
90273SOL     OW72715   2.868   9.148  10.914
90273SOL    HW172716   2.784   9.162  10.958
90273SOL    HW272717   2.896   9.235  10.887
90274SOL     OW72718  11.199   5.118  14.721
90274SOL    HW172719  11.200   5.177  14.646
90274SOL    HW272720  11.106   5.103  14.739
90275SOL     OW72721  14.727   0.481   6.645
90275SOL    HW172722  14.779   0.402   6.629
90275SOL    HW272723  14.776   0.551   6.601
90276SOL     OW72724   5.678   4.035  13.794
90276SOL    HW172725   5.616   3.968  13.823
90276SOL    HW272726   5.762   4.009  13.832
90277SOL     OW72727   1.146   0.479   8.177
90277SOL    HW172728   1.131   0.386   8.159
90277SOL    HW272729   1.239   0.492   8.161
90278SOL     OW72730   0.634   6.534   5.681
90278SOL    HW172731   0.677   6.451   5.698
90278SOL    HW272732   0.647   6.549   5.587
90279SOL     OW72733   9.787  10.110  10.581
90279SOL    HW172734   9.721  10.174  10.555
90279SOL    HW272735   9.779  10.040  10.517
90280SOL     OW72736  13.424   8.323   5.316
90280SOL    HW172737  13.329   8.338   5.310
90280SOL    HW272738  13.443   8.323   5.410
90281SOL     OW72739   2.500  14.825   1.870
90281SOL    HW172740   2.588  14.856   1.891
90281SOL    HW272741   2.479  14.866   1.786
90282SOL     OW72742  12.180   0.559   6.562
90282SOL    HW172743  12.157   0.632   6.504
90282SOL    HW272744  12.230   0.599   6.632
90283SOL     OW72745  11.740   1.180   5.488
90283SOL    HW172746  11.775   1.269   5.483
90283SOL    HW272747  11.802   1.127   5.439
90284SOL     OW72748   5.191   5.512   7.144
90284SOL    HW172749   5.183   5.601   7.179
90284SOL    HW272750   5.253   5.519   7.071
90285SOL     OW72751   4.468  10.510   0.166
90285SOL    HW172752   4.465  10.509   0.070
90285SOL    HW272753   4.559  10.494   0.188
90286SOL     OW72754   4.863   3.604   4.544
90286SOL    HW172755   4.833   3.516   4.520
90286SOL    HW272756   4.926   3.589   4.615
90287SOL     OW72757   4.817   1.870   3.790
90287SOL    HW172758   4.725   1.895   3.794
90287SOL    HW272759   4.846   1.895   3.702
90288SOL     OW72760   8.107   6.549   1.579
90288SOL    HW172761   8.198   6.576   1.589
90288SOL    HW272762   8.063   6.628   1.545
90289SOL     OW72763  13.656   5.770   1.373
90289SOL    HW172764  13.704   5.689   1.354
90289SOL    HW272765  13.648   5.813   1.288
90290SOL     OW72766   1.499  12.923   0.727
90290SOL    HW172767   1.510  12.908   0.633
90290SOL    HW272768   1.589  12.923   0.762
90291SOL     OW72769  10.963  13.023   3.883
90291SOL    HW172770  11.036  13.012   3.945
90291SOL    HW272771  10.997  13.083   3.817
90292SOL     OW72772   4.701  14.195  12.607
90292SOL    HW172773   4.761  14.160  12.540
90292SOL    HW272774   4.643  14.121  12.627
90293SOL     OW72775   4.183  13.773   3.407
90293SOL    HW172776   4.176  13.832   3.482
90293SOL    HW272777   4.195  13.831   3.332
90294SOL     OW72778   4.270  14.764   8.449
90294SOL    HW172779   4.318  14.846   8.445
90294SOL    HW272780   4.220  14.770   8.531
90295SOL     OW72781   4.770   1.900   5.605
90295SOL    HW172782   4.725   1.982   5.587
90295SOL    HW272783   4.716   1.833   5.562
90296SOL     OW72784  11.376   7.778  14.038
90296SOL    HW172785  11.326   7.830  13.974
90296SOL    HW272786  11.366   7.688  14.008
90297SOL     OW72787   4.626  11.321   9.420
90297SOL    HW172788   4.596  11.338   9.510
90297SOL    HW272789   4.634  11.408   9.381
90298SOL     OW72790   6.844   2.927   5.531
90298SOL    HW172791   6.897   2.856   5.495
90298SOL    HW272792   6.786   2.953   5.460
90299SOL     OW72793   1.391  11.720   9.873
90299SOL    HW172794   1.479  11.751   9.852
90299SOL    HW272795   1.334  11.793   9.850
90300SOL     OW72796   1.594   2.254   6.365
90300SOL    HW172797   1.661   2.320   6.382
90300SOL    HW272798   1.519   2.304   6.332
90301SOL     OW72799  13.963  12.595   1.232
90301SOL    HW172800  13.986  12.688   1.233
90301SOL    HW272801  14.034  12.553   1.280
90302SOL     OW72802   6.159   6.692   3.997
90302SOL    HW172803   6.125   6.728   4.079
90302SOL    HW272804   6.219   6.759   3.964
90303SOL     OW72805  12.260   9.965   6.141
90303SOL    HW172806  12.174   9.951   6.181
90303SOL    HW272807  12.266  10.059   6.129
90304SOL     OW72808  10.480   0.542  14.442
90304SOL    HW172809  10.541   0.591  14.498
90304SOL    HW272810  10.418   0.608  14.413
90305SOL     OW72811  11.723   5.709   5.470
90305SOL    HW172812  11.671   5.745   5.398
90305SOL    HW272813  11.737   5.617   5.446
90306SOL     OW72814   2.822   6.919  14.458
90306SOL    HW172815   2.846   6.855  14.526
90306SOL    HW272816   2.770   6.869  14.396
90307SOL     OW72817  13.345   3.480  10.440
90307SOL    HW172818  13.329   3.551  10.502
90307SOL    HW272819  13.265   3.475  10.388
90308SOL     OW72820  10.086  13.066   4.924
90308SOL    HW172821  10.037  13.089   5.004
90308SOL    HW272822  10.078  13.143   4.868
90309SOL     OW72823   8.714   9.306  12.220
90309SOL    HW172824   8.664   9.274  12.295
90309SOL    HW272825   8.682   9.395  12.205
90310SOL     OW72826   0.605   4.523  13.272
90310SOL    HW172827   0.571   4.500  13.186
90310SOL    HW272828   0.597   4.618  13.277
90311SOL     OW72829   0.699   3.037  12.500
90311SOL    HW172830   0.705   3.123  12.543
90311SOL    HW272831   0.660   2.980  12.566
90312SOL     OW72832   5.367  11.139   6.586
90312SOL    HW172833   5.391  11.070   6.648
90312SOL    HW272834   5.396  11.106   6.501
90313SOL     OW72835   4.450   8.646   3.971
90313SOL    HW172836   4.356   8.663   3.978
90313SOL    HW272837   4.486   8.729   3.939
90314SOL     OW72838   8.212   5.184  13.265
90314SOL    HW172839   8.191   5.169  13.357
90314SOL    HW272840   8.130   5.172  13.218
90315SOL     OW72841   3.199   0.899   6.736
90315SOL    HW172842   3.163   0.810   6.746
90315SOL    HW272843   3.121   0.954   6.725
90316SOL     OW72844  11.865   0.166   8.910
90316SOL    HW172845  11.894   0.115   8.985
90316SOL    HW272846  11.896   0.118   8.834
90317SOL     OW72847   8.506   7.246  13.770
90317SOL    HW172848   8.474   7.223  13.857
90317SOL    HW272849   8.536   7.163  13.733
90318SOL     OW72850   4.477  13.737   9.812
90318SOL    HW172851   4.422  13.700   9.744
90318SOL    HW272852   4.490  13.828   9.786
90319SOL     OW72853   1.221   2.639   5.117
90319SOL    HW172854   1.225   2.670   5.208
90319SOL    HW272855   1.291   2.574   5.111
90320SOL     OW72856   0.909   6.295  14.516
90320SOL    HW172857   1.001   6.274  14.496
90320SOL    HW272858   0.905   6.298  14.611
90321SOL     OW72859  12.204   2.923  13.305
90321SOL    HW172860  12.265   2.967  13.364
90321SOL    HW272861  12.127   2.906  13.359
90322SOL     OW72862   3.017   5.660  12.212
90322SOL    HW172863   3.100   5.699  12.185
90322SOL    HW272864   2.969   5.731  12.254
90323SOL     OW72865  14.527  10.924   4.994
90323SOL    HW172866  14.621  10.919   5.013
90323SOL    HW272867  14.514  10.860   4.923
90324SOL     OW72868  10.618  11.987  10.823
90324SOL    HW172869  10.712  11.976  10.834
90324SOL    HW272870  10.592  12.044  10.896
90325SOL     OW72871  12.915   2.947  11.223
90325SOL    HW172872  12.898   2.855  11.245
90325SOL    HW272873  12.926   2.948  11.128
90326SOL     OW72874  14.645   7.288   1.435
90326SOL    HW172875  14.600   7.309   1.354
90326SOL    HW272876  14.714   7.227   1.410
90327SOL     OW72877   5.702   8.169   4.507
90327SOL    HW172878   5.778   8.207   4.550
90327SOL    HW272879   5.738   8.103   4.448
90328SOL     OW72880   7.790  13.458   5.593
90328SOL    HW172881   7.880  13.456   5.560
90328SOL    HW272882   7.766  13.366   5.605
90329SOL     OW72883  11.394   6.470   9.705
90329SOL    HW172884  11.309   6.435   9.676
90329SOL    HW272885  11.414   6.421   9.784
90330SOL     OW72886   6.384   1.616   0.046
90330SOL    HW172887   6.356   1.696   0.090
90330SOL    HW272888   6.468   1.639   0.005
90331SOL     OW72889   5.023   4.245   8.430
90331SOL    HW172890   5.018   4.190   8.508
90331SOL    HW272891   5.076   4.320   8.458
90332SOL     OW72892  12.840   4.733  14.224
90332SOL    HW172893  12.823   4.758  14.133
90332SOL    HW272894  12.766   4.770  14.273
90333SOL     OW72895   6.187  12.760   9.819
90333SOL    HW172896   6.092  12.772   9.820
90333SOL    HW272897   6.222  12.838   9.862
90334SOL     OW72898   5.000  10.481   0.506
90334SOL    HW172899   5.027  10.470   0.415
90334SOL    HW272900   5.071  10.442   0.557
90335SOL     OW72901   8.439   3.683   9.885
90335SOL    HW172902   8.509   3.634   9.929
90335SOL    HW272903   8.481   3.764   9.856
90336SOL     OW72904   4.829   0.814   7.041
90336SOL    HW172905   4.809   0.721   7.030
90336SOL    HW272906   4.880   0.817   7.122
90337SOL     OW72907  12.252   9.907   0.715
90337SOL    HW172908  12.316   9.965   0.756
90337SOL    HW272909  12.249   9.935   0.623
90338SOL     OW72910  10.870   0.499   8.359
90338SOL    HW172911  10.826   0.416   8.345
90338SOL    HW272912  10.959   0.474   8.385
90339SOL     OW72913  11.857   0.140   4.369
90339SOL    HW172914  11.783   0.195   4.394
90339SOL    HW272915  11.882   0.171   4.282
90340SOL     OW72916   9.730  11.853  10.327
90340SOL    HW172917   9.685  11.937  10.332
90340SOL    HW272918   9.820  11.875  10.301
90341SOL     OW72919  11.335   4.470  14.728
90341SOL    HW172920  11.310   4.381  14.701
90341SOL    HW272921  11.252   4.516  14.738
90342SOL     OW72922  12.653  10.397   0.317
90342SOL    HW172923  12.700  10.470   0.277
90342SOL    HW272924  12.667  10.324   0.258
90343SOL     OW72925   7.859   7.701  11.561
90343SOL    HW172926   7.834   7.739  11.645
90343SOL    HW272927   7.951   7.679  11.571
90344SOL     OW72928   7.711  10.435  13.076
90344SOL    HW172929   7.632  10.472  13.036
90344SOL    HW272930   7.764  10.404  13.002
90345SOL     OW72931   7.950  11.830   1.524
90345SOL    HW172932   8.014  11.864   1.462
90345SOL    HW272933   7.979  11.741   1.542
90346SOL     OW72934   4.759  14.071  14.233
90346SOL    HW172935   4.725  14.149  14.189
90346SOL    HW272936   4.837  14.103  14.279
90347SOL     OW72937   5.176   1.523   9.735
90347SOL    HW172938   5.253   1.503   9.788
90347SOL    HW272939   5.176   1.619   9.729
90348SOL     OW72940   9.260   7.993   1.596
90348SOL    HW172941   9.203   8.004   1.672
90348SOL    HW272942   9.201   7.979   1.523
90349SOL     OW72943  13.830   8.901   0.738
90349SOL    HW172944  13.790   8.964   0.797
90349SOL    HW272945  13.771   8.825   0.741
90350SOL     OW72946   8.189   8.052   5.989
90350SOL    HW172947   8.165   8.035   5.898
90350SOL    HW272948   8.119   8.012   6.040
90351SOL     OW72949   1.535   4.115   8.928
90351SOL    HW172950   1.553   4.072   8.845
90351SOL    HW272951   1.620   4.122   8.971
90352SOL     OW72952   3.026   8.091   2.882
90352SOL    HW172953   3.096   8.055   2.935
90352SOL    HW272954   2.975   8.014   2.854
90353SOL     OW72955   3.824  13.611   8.096
90353SOL    HW172956   3.796  13.641   8.009
90353SOL    HW272957   3.743  13.594   8.143
90354SOL     OW72958   8.065   5.661   4.958
90354SOL    HW172959   8.082   5.604   5.034
90354SOL    HW272960   8.020   5.737   4.995
90355SOL     OW72961  10.200  12.147   0.296
90355SOL    HW172962  10.288  12.122   0.271
90355SOL    HW272963  10.145  12.075   0.266
90356SOL     OW72964   1.383  12.209   4.631
90356SOL    HW172965   1.371  12.254   4.548
90356SOL    HW272966   1.478  12.206   4.643
90357SOL     OW72967   6.424   7.536   8.109
90357SOL    HW172968   6.441   7.599   8.039
90357SOL    HW272969   6.361   7.475   8.072
90358SOL     OW72970  11.917  14.767  12.067
90358SOL    HW172971  11.843  14.828  12.075
90358SOL    HW272972  11.981  14.799  12.131
90359SOL     OW72973   8.576   0.743   0.845
90359SOL    HW172974   8.576   0.741   0.749
90359SOL    HW272975   8.531   0.663   0.871
90360SOL     OW72976   3.375  10.975   3.285
90360SOL    HW172977   3.294  10.948   3.242
90360SOL    HW272978   3.427  11.016   3.215
90361SOL     OW72979   5.308   0.511  12.255
90361SOL    HW172980   5.333   0.436  12.309
90361SOL    HW272981   5.236   0.478  12.201
90362SOL     OW72982  12.055  10.510   9.402
90362SOL    HW172983  11.998  10.583   9.424
90362SOL    HW272984  12.001  10.432   9.414
90363SOL     OW72985   9.133   0.334   4.934
90363SOL    HW172986   9.039   0.320   4.947
90363SOL    HW272987   9.168   0.247   4.916
90364SOL     OW72988   0.265  11.200   8.473
90364SOL    HW172989   0.187  11.208   8.527
90364SOL    HW272990   0.271  11.284   8.426
90365SOL     OW72991  13.052   6.834  11.191
90365SOL    HW172992  13.140   6.870  11.177
90365SOL    HW272993  13.001   6.868  11.118
90366SOL     OW72994   8.081   5.140   2.213
90366SOL    HW172995   8.161   5.091   2.191
90366SOL    HW272996   8.051   5.175   2.129
90367SOL     OW72997   4.724   5.678   4.549
90367SOL    HW172998   4.723   5.623   4.627
90367SOL    HW272999   4.771   5.757   4.577
90368SOL     OW73000   5.492   2.649   1.988
90368SOL    HW173001   5.460   2.609   1.907
90368SOL    HW273002   5.420   2.639   2.050
90369SOL     OW73003  13.576   2.343  10.682
90369SOL    HW173004  13.648   2.393  10.645
90369SOL    HW273005  13.607   2.315  10.768
90370SOL     OW73006   2.741   1.828   0.236
90370SOL    HW173007   2.664   1.880   0.212
90370SOL    HW273008   2.814   1.869   0.188
90371SOL     OW73009   1.466   0.396   0.906
90371SOL    HW173010   1.379   0.366   0.879
90371SOL    HW273011   1.457   0.414   1.000
90372SOL     OW73012  13.063   4.666   6.644
90372SOL    HW173013  13.132   4.608   6.614
90372SOL    HW273014  13.081   4.750   6.601
90373SOL     OW73015  13.631  11.943   6.628
90373SOL    HW173016  13.558  11.976   6.576
90373SOL    HW273017  13.705  11.944   6.568
90374SOL     OW73018  10.686   5.120   6.854
90374SOL    HW173019  10.736   5.056   6.905
90374SOL    HW273020  10.747   5.150   6.786
90375SOL     OW73021   1.241   5.413   1.294
90375SOL    HW173022   1.164   5.469   1.285
90375SOL    HW273023   1.313   5.466   1.259
90376SOL     OW73024  10.557   5.422  11.877
90376SOL    HW173025  10.587   5.392  11.791
90376SOL    HW273026  10.627   5.478  11.909
90377SOL     OW73027   8.115   1.658  11.759
90377SOL    HW173028   8.196   1.707  11.766
90377SOL    HW273029   8.046   1.723  11.767
90378SOL     OW73030  11.989   4.235   4.147
90378SOL    HW173031  12.033   4.187   4.217
90378SOL    HW273032  11.941   4.305   4.192
90379SOL     OW73033  10.273  10.063   9.743
90379SOL    HW173034  10.238  10.126   9.805
90379SOL    HW273035  10.205   9.996   9.735
90380SOL     OW73036  10.873   0.215   2.688
90380SOL    HW173037  10.865   0.175   2.774
90380SOL    HW273038  10.954   0.265   2.692
90381SOL     OW73039  14.332  10.798   3.899
90381SOL    HW173040  14.379  10.826   3.978
90381SOL    HW273041  14.314  10.705   3.914
90382SOL     OW73042   4.963   8.686   6.085
90382SOL    HW173043   5.003   8.708   6.001
90382SOL    HW273044   5.022   8.724   6.150
90383SOL     OW73045   7.864  13.330   2.634
90383SOL    HW173046   7.904  13.247   2.609
90383SOL    HW273047   7.889  13.391   2.564
90384SOL     OW73048   8.575   5.519  14.531
90384SOL    HW173049   8.640   5.490  14.468
90384SOL    HW273050   8.613   5.597  14.572
90385SOL     OW73051   4.396  14.296   9.684
90385SOL    HW173052   4.349  14.379   9.679
90385SOL    HW273053   4.338  14.239   9.734
90386SOL     OW73054   3.508   0.830   2.260
90386SOL    HW173055   3.574   0.854   2.326
90386SOL    HW273056   3.491   0.911   2.213
90387SOL     OW73057   0.223  14.172   1.974
90387SOL    HW173058   0.303  14.208   2.011
90387SOL    HW273059   0.207  14.092   2.025
90388SOL     OW73060  10.005   3.488   7.635
90388SOL    HW173061  10.094   3.479   7.599
90388SOL    HW273062   9.959   3.542   7.570
90389SOL     OW73063  14.514   2.158   6.862
90389SOL    HW173064  14.436   2.191   6.818
90389SOL    HW273065  14.569   2.124   6.791
90390SOL     OW73066   6.929  10.732  10.955
90390SOL    HW173067   6.988  10.678  10.902
90390SOL    HW273068   6.866  10.768  10.892
90391SOL     OW73069   0.404   7.417   6.628
90391SOL    HW173070   0.324   7.380   6.590
90391SOL    HW273071   0.385   7.421   6.722
90392SOL     OW73072   5.902  13.056   4.427
90392SOL    HW173073   5.818  13.040   4.470
90392SOL    HW273074   5.880  13.113   4.353
90393SOL     OW73075   0.847  10.974   5.762
90393SOL    HW173076   0.941  10.961   5.750
90393SOL    HW273077   0.814  10.997   5.675
90394SOL     OW73078   9.903  11.663   3.071
90394SOL    HW173079   9.870  11.652   3.160
90394SOL    HW273080   9.835  11.625   3.015
90395SOL     OW73081  14.747  11.758   6.246
90395SOL    HW173082  14.782  11.825   6.305
90395SOL    HW273083  14.704  11.807   6.176
90396SOL     OW73084   4.602   5.163   6.409
90396SOL    HW173085   4.597   5.223   6.484
90396SOL    HW273086   4.523   5.110   6.416
90397SOL     OW73087   5.379   7.006  11.806
90397SOL    HW173088   5.295   7.028  11.848
90397SOL    HW273089   5.369   7.035  11.716
90398SOL     OW73090   0.161  14.054   0.736
90398SOL    HW173091   0.093  13.990   0.716
90398SOL    HW273092   0.112  14.133   0.761
90399SOL     OW73093   0.210  14.187   3.297
90399SOL    HW173094   0.180  14.152   3.381
90399SOL    HW273095   0.289  14.237   3.320
90400SOL     OW73096   7.354  12.750   3.954
90400SOL    HW173097   7.284  12.707   3.905
90400SOL    HW273098   7.419  12.773   3.889
90401SOL     OW73099   4.091   4.051  11.746
90401SOL    HW173100   4.093   4.132  11.797
90401SOL    HW273101   4.017   4.062  11.686
90402SOL     OW73102   8.069   6.496  12.747
90402SOL    HW173103   8.046   6.478  12.656
90402SOL    HW273104   8.015   6.571  12.771
90403SOL     OW73105   3.381   6.290  13.450
90403SOL    HW173106   3.382   6.383  13.469
90403SOL    HW273107   3.447   6.252  13.509
90404SOL     OW73108   0.829  14.520  14.069
90404SOL    HW173109   0.814  14.483  13.982
90404SOL    HW273110   0.903  14.579  14.057
90405SOL     OW73111  14.074  13.232   4.136
90405SOL    HW173112  14.009  13.179   4.182
90405SOL    HW273113  14.067  13.204   4.045
90406SOL     OW73114   2.641   7.400   0.512
90406SOL    HW173115   2.614   7.327   0.568
90406SOL    HW273116   2.560   7.447   0.493
90407SOL     OW73117   7.966  10.787  13.869
90407SOL    HW173118   8.043  10.808  13.922
90407SOL    HW273119   7.903  10.856  13.890
90408SOL     OW73120  10.007   8.362   9.592
90408SOL    HW173121  10.005   8.266   9.585
90408SOL    HW273122   9.915   8.388   9.595
90409SOL     OW73123   8.566  14.235   0.937
90409SOL    HW173124   8.632  14.243   1.006
90409SOL    HW273125   8.543  14.143   0.936
90410SOL     OW73126   8.655  11.913   7.564
90410SOL    HW173127   8.582  11.881   7.618
90410SOL    HW273128   8.629  11.894   7.474
90411SOL     OW73129   3.188   8.611   4.327
90411SOL    HW173130   3.104   8.657   4.329
90411SOL    HW273131   3.165   8.518   4.323
90412SOL     OW73132   6.966   4.729   9.028
90412SOL    HW173133   7.030   4.746   8.959
90412SOL    HW273134   7.015   4.683   9.096
90413SOL     OW73135  11.443   1.468  12.435
90413SOL    HW173136  11.353   1.463  12.402
90413SOL    HW273137  11.472   1.377  12.439
90414SOL     OW73138  11.949   1.347   6.050
90414SOL    HW173139  11.862   1.313   6.068
90414SOL    HW273140  12.008   1.276   6.075
90415SOL     OW73141   1.695   8.338   0.084
90415SOL    HW173142   1.729   8.299   0.165
90415SOL    HW273143   1.769   8.387   0.049
90416SOL     OW73144   5.677  11.203  13.734
90416SOL    HW173145   5.643  11.127  13.781
90416SOL    HW273146   5.599  11.243  13.693
90417SOL     OW73147   8.328   4.838  13.105
90417SOL    HW173148   8.254   4.892  13.134
90417SOL    HW273149   8.356   4.878  13.023
90418SOL     OW73150  10.225   6.390   3.420
90418SOL    HW173151  10.242   6.476   3.457
90418SOL    HW273152  10.130   6.377   3.432
90419SOL     OW73153   4.793   2.359   8.914
90419SOL    HW173154   4.740   2.283   8.890
90419SOL    HW273155   4.869   2.356   8.856
90420SOL     OW73156   3.994  11.818   7.124
90420SOL    HW173157   4.048  11.831   7.046
90420SOL    HW273158   4.056  11.789   7.191
90421SOL     OW73159   4.202   9.728   7.329
90421SOL    HW173160   4.174   9.791   7.395
90421SOL    HW273161   4.163   9.645   7.357
90422SOL     OW73162  11.683   3.469   0.673
90422SOL    HW173163  11.608   3.423   0.636
90422SOL    HW273164  11.747   3.400   0.693
90423SOL     OW73165   1.718  12.896   6.289
90423SOL    HW173166   1.806  12.900   6.251
90423SOL    HW273167   1.676  12.822   6.245
90424SOL     OW73168   3.433   2.709   8.253
90424SOL    HW173169   3.398   2.639   8.308
90424SOL    HW273170   3.500   2.666   8.199
90425SOL     OW73171   3.898  12.452  14.653
90425SOL    HW173172   3.913  12.390  14.582
90425SOL    HW273173   3.896  12.538  14.610
90426SOL     OW73174  12.313   7.878   7.958
90426SOL    HW173175  12.225   7.872   7.996
90426SOL    HW273176  12.344   7.788   7.953
90427SOL     OW73177   8.853  12.786   8.859
90427SOL    HW173178   8.928  12.802   8.917
90427SOL    HW273179   8.776  12.801   8.914
90428SOL     OW73180   0.260   9.136   7.411
90428SOL    HW173181   0.190   9.084   7.373
90428SOL    HW273182   0.282   9.200   7.344
90429SOL     OW73183   2.320  11.791   4.533
90429SOL    HW173184   2.330  11.732   4.608
90429SOL    HW273185   2.334  11.736   4.456
90430SOL     OW73186  12.991   2.059   2.086
90430SOL    HW173187  12.896   2.070   2.089
90430SOL    HW273188  13.024   2.144   2.058
90431SOL     OW73189   5.890  12.506   9.534
90431SOL    HW173190   5.879  12.445   9.462
90431SOL    HW273191   5.946  12.575   9.500
90432SOL     OW73192   7.279   7.251   3.734
90432SOL    HW173193   7.257   7.158   3.729
90432SOL    HW273194   7.196   7.296   3.721
90433SOL     OW73195  14.405   4.073  13.744
90433SOL    HW173196  14.439   4.162  13.742
90433SOL    HW273197  14.321   4.078  13.699
90434SOL     OW73198   9.320  12.535  10.416
90434SOL    HW173199   9.370  12.517  10.496
90434SOL    HW273200   9.232  12.503  10.434
90435SOL     OW73201   4.728   5.458   9.486
90435SOL    HW173202   4.747   5.402   9.410
90435SOL    HW273203   4.808   5.453   9.539
90436SOL     OW73204  11.330   1.843   3.088
90436SOL    HW173205  11.261   1.777   3.083
90436SOL    HW273206  11.406   1.797   3.125
90437SOL     OW73207  10.553   5.500  12.839
90437SOL    HW173208  10.459   5.503  12.854
90437SOL    HW273209  10.579   5.411  12.864
90438SOL     OW73210   1.642   1.532   0.914
90438SOL    HW173211   1.682   1.511   0.999
90438SOL    HW273212   1.558   1.572   0.936
90439SOL     OW73213   7.981  10.865  12.219
90439SOL    HW173214   7.907  10.902  12.268
90439SOL    HW273215   7.945  10.788  12.175
90440SOL     OW73216   6.185  10.818  10.229
90440SOL    HW173217   6.095  10.787  10.240
90440SOL    HW273218   6.229  10.796  10.311
90441SOL     OW73219   5.403   0.524   9.282
90441SOL    HW173220   5.497   0.543   9.291
90441SOL    HW273221   5.373   0.509   9.372
90442SOL     OW73222   2.349  12.412   9.743
90442SOL    HW173223   2.298  12.351   9.796
90442SOL    HW273224   2.290  12.439   9.673
90443SOL     OW73225   6.065   7.378  11.733
90443SOL    HW173226   5.986   7.341  11.695
90443SOL    HW273227   6.037   7.414  11.817
90444SOL     OW73228   4.739   8.158   5.071
90444SOL    HW173229   4.696   8.151   4.986
90444SOL    HW273230   4.833   8.159   5.051
90445SOL     OW73231   0.935   6.833   4.093
90445SOL    HW173232   0.883   6.760   4.061
90445SOL    HW273233   0.915   6.837   4.187
90446SOL     OW73234   2.750  14.786   4.811
90446SOL    HW173235   2.760  14.825   4.898
90446SOL    HW273236   2.681  14.721   4.822
90447SOL     OW73237   6.614   5.196   9.194
90447SOL    HW173238   6.652   5.203   9.107
90447SOL    HW273239   6.521   5.217   9.182
90448SOL     OW73240   3.715   6.881   2.886
90448SOL    HW173241   3.633   6.918   2.855
90448SOL    HW273242   3.733   6.809   2.826
90449SOL     OW73243  10.880  14.386   8.370
90449SOL    HW173244  10.970  14.410   8.348
90449SOL    HW273245  10.888  14.305   8.421
90450SOL     OW73246  11.901   2.403   6.207
90450SOL    HW173247  11.842   2.458   6.259
90450SOL    HW273248  11.859   2.398   6.121
90451SOL     OW73249  13.964  11.313   5.343
90451SOL    HW173250  13.917  11.253   5.402
90451SOL    HW273251  14.040  11.342   5.393
90452SOL     OW73252  14.257   1.323   3.714
90452SOL    HW173253  14.311   1.371   3.778
90452SOL    HW273254  14.312   1.318   3.636
90453SOL     OW73255   6.486   9.014  14.869
90453SOL    HW173256   6.434   9.021   0.074
90453SOL    HW273257   6.570   9.052   0.017
90454SOL     OW73258   1.723   3.527   9.209
90454SOL    HW173259   1.737   3.574   9.291
90454SOL    HW273260   1.729   3.594   9.141
90455SOL     OW73261   2.876   2.859   8.675
90455SOL    HW173262   2.900   2.903   8.594
90455SOL    HW273263   2.791   2.898   8.699
90456SOL     OW73264   5.450   1.362   0.932
90456SOL    HW173265   5.450   1.307   0.854
90456SOL    HW273266   5.390   1.434   0.910
90457SOL     OW73267   7.114   7.309   1.357
90457SOL    HW173268   7.196   7.286   1.312
90457SOL    HW273269   7.077   7.224   1.381
90458SOL     OW73270   9.712   4.329  10.131
90458SOL    HW173271   9.661   4.394  10.083
90458SOL    HW273272   9.724   4.368  10.218
90459SOL     OW73273  11.160   1.169  11.790
90459SOL    HW173274  11.188   1.111  11.719
90459SOL    HW273275  11.098   1.117  11.840
90460SOL     OW73276   3.073  11.833  10.770
90460SOL    HW173277   3.085  11.896  10.699
90460SOL    HW273278   3.082  11.747  10.728
90461SOL     OW73279   3.223   8.011   9.262
90461SOL    HW173280   3.166   8.072   9.308
90461SOL    HW273281   3.213   8.033   9.169
90462SOL     OW73282   1.640  10.124  12.004
90462SOL    HW173283   1.718  10.105  12.056
90462SOL    HW273284   1.673  10.175  11.930
90463SOL     OW73285   5.273   4.342   0.293
90463SOL    HW173286   5.209   4.395   0.340
90463SOL    HW273287   5.300   4.275   0.356
90464SOL     OW73288  14.663   2.346   9.819
90464SOL    HW173289  14.667   2.342   9.724
90464SOL    HW273290  14.589   2.289   9.842
90465SOL     OW73291   7.066   2.301  11.964
90465SOL    HW173292   7.063   2.341  11.877
90465SOL    HW273293   7.001   2.231  11.960
90466SOL     OW73294  12.710  13.620   0.459
90466SOL    HW173295  12.681  13.591   0.373
90466SOL    HW273296  12.793  13.666   0.442
90467SOL     OW73297  12.916   3.738   5.496
90467SOL    HW173298  12.925   3.714   5.404
90467SOL    HW273299  12.964   3.671   5.544
90468SOL     OW73300   2.966   9.150   7.691
90468SOL    HW173301   2.922   9.169   7.774
90468SOL    HW273302   2.900   9.106   7.639
90469SOL     OW73303  13.826   2.956  10.540
90469SOL    HW173304  13.908   3.000  10.561
90469SOL    HW273305  13.760   3.026  10.539
90470SOL     OW73306  12.952   3.936  14.162
90470SOL    HW173307  12.968   3.925  14.068
90470SOL    HW273308  13.020   3.884  14.205
90471SOL     OW73309   2.261   4.438  10.622
90471SOL    HW173310   2.325   4.493  10.577
90471SOL    HW273311   2.297   4.427  10.710
90472SOL     OW73312  11.062  11.255   4.166
90472SOL    HW173313  11.151  11.229   4.143
90472SOL    HW273314  11.029  11.298   4.087
90473SOL     OW73315   4.029   1.498   7.793
90473SOL    HW173316   4.108   1.494   7.847
90473SOL    HW273317   3.966   1.547   7.846
90474SOL     OW73318  11.341   2.060   8.119
90474SOL    HW173319  11.336   1.990   8.054
90474SOL    HW273320  11.405   2.121   8.084
90475SOL     OW73321   5.746   0.535   4.384
90475SOL    HW173322   5.800   0.600   4.430
90475SOL    HW273323   5.725   0.470   4.451
90476SOL     OW73324   4.944  14.172   9.926
90476SOL    HW173325   5.033  14.136   9.932
90476SOL    HW273326   4.892  14.117   9.985
90477SOL     OW73327   0.614  11.389  13.696
90477SOL    HW173328   0.658  11.418  13.775
90477SOL    HW273329   0.638  11.454  13.629
90478SOL     OW73330   2.611   2.754  10.454
90478SOL    HW173331   2.528   2.788  10.488
90478SOL    HW273332   2.654   2.716  10.531
90479SOL     OW73333   2.464   1.219  14.873
90479SOL    HW173334   2.429   1.218  14.784
90479SOL    HW273335   2.529   1.290  14.872
90480SOL     OW73336   8.883   9.430  11.667
90480SOL    HW173337   8.910   9.519  11.689
90480SOL    HW273338   8.789   9.428  11.684
90481SOL     OW73339   2.256   4.025   4.365
90481SOL    HW173340   2.177   3.993   4.408
90481SOL    HW273341   2.322   4.031   4.434
90482SOL     OW73342  13.831  12.973   0.375
90482SOL    HW173343  13.743  12.987   0.410
90482SOL    HW273344  13.818  12.922   0.296
90483SOL     OW73345   2.193  10.510   2.577
90483SOL    HW173346   2.150  10.595   2.564
90483SOL    HW273347   2.136  10.447   2.534
90484SOL     OW73348   1.892   7.719  11.348
90484SOL    HW173349   1.973   7.766  11.366
90484SOL    HW273350   1.895   7.643  11.407
90485SOL     OW73351   7.541   2.451  14.147
90485SOL    HW173352   7.558   2.485  14.059
90485SOL    HW273353   7.627   2.450  14.190
90486SOL     OW73354   5.877   0.645   7.083
90486SOL    HW173355   5.811   0.709   7.058
90486SOL    HW273356   5.884   0.587   7.007
90487SOL     OW73357  10.371   9.561  10.908
90487SOL    HW173358  10.378   9.633  10.845
90487SOL    HW273359  10.292   9.581  10.958
90488SOL     OW73360   2.394   1.385   5.770
90488SOL    HW173361   2.456   1.333   5.719
90488SOL    HW273362   2.334   1.320   5.806
90489SOL     OW73363   6.020  11.918   7.764
90489SOL    HW173364   6.076  11.991   7.791
90489SOL    HW273365   6.000  11.872   7.845
90490SOL     OW73366   9.095   8.447   5.143
90490SOL    HW173367   9.067   8.367   5.186
90490SOL    HW273368   9.140   8.496   5.211
90491SOL     OW73369  13.936   9.990  13.752
90491SOL    HW173370  13.937   9.938  13.832
90491SOL    HW273371  13.858  10.044  13.759
90492SOL     OW73372   4.486  12.299   3.958
90492SOL    HW173373   4.415  12.238   3.938
90492SOL    HW273374   4.541  12.251   4.020
90493SOL     OW73375   1.072   5.385   3.046
90493SOL    HW173376   1.070   5.315   3.111
90493SOL    HW273377   1.037   5.462   3.092
90494SOL     OW73378   7.122   4.029   5.383
90494SOL    HW173379   7.105   4.023   5.477
90494SOL    HW273380   7.053   4.086   5.349
90495SOL     OW73381   1.754   6.157  12.183
90495SOL    HW173382   1.671   6.172  12.228
90495SOL    HW273383   1.789   6.077  12.223
90496SOL     OW73384  10.704  11.881   4.892
90496SOL    HW173385  10.772  11.851   4.952
90496SOL    HW273386  10.641  11.927   4.948
90497SOL     OW73387   6.213   2.208   5.826
90497SOL    HW173388   6.258   2.152   5.763
90497SOL    HW273389   6.163   2.147   5.880
90498SOL     OW73390   3.938  12.551   5.568
90498SOL    HW173391   3.983  12.483   5.518
90498SOL    HW273392   3.986  12.554   5.651
90499SOL     OW73393  14.173  11.424   3.964
90499SOL    HW173394  14.121  11.359   3.917
90499SOL    HW273395  14.110  11.472   4.017
90500SOL     OW73396  13.771   4.546   3.061
90500SOL    HW173397  13.826   4.585   2.993
90500SOL    HW273398  13.684   4.538   3.021
90501SOL     OW73399   2.234   3.829   5.708
90501SOL    HW173400   2.280   3.748   5.729
90501SOL    HW273401   2.267   3.892   5.772
90502SOL     OW73402  12.039  13.534   6.174
90502SOL    HW173403  12.055  13.606   6.236
90502SOL    HW273404  12.113  13.476   6.186
90503SOL     OW73405  14.394   1.833   3.153
90503SOL    HW173406  14.441   1.832   3.237
90503SOL    HW273407  14.400   1.742   3.122
90504SOL     OW73408   8.330   8.869  12.782
90504SOL    HW173409   8.311   8.935  12.849
90504SOL    HW273410   8.259   8.877  12.719
90505SOL     OW73411  14.627   4.855   0.568
90505SOL    HW173412  14.570   4.778   0.560
90505SOL    HW273413  14.711   4.819   0.597
90506SOL     OW73414  13.719   0.667   8.309
90506SOL    HW173415  13.655   0.678   8.239
90506SOL    HW273416  13.724   0.753   8.351
90507SOL     OW73417  10.975  10.971   1.816
90507SOL    HW173418  11.029  11.012   1.748
90507SOL    HW273419  11.033  10.909   1.859
90508SOL     OW73420   1.752   9.938   5.907
90508SOL    HW173421   1.827   9.932   5.849
90508SOL    HW273422   1.778  10.002   5.974
90509SOL     OW73423   6.888  14.817  14.429
90509SOL    HW173424   6.847   0.028  14.426
90509SOL    HW273425   6.900  14.792  14.337
90510SOL     OW73426   9.218  14.520   5.242
90510SOL    HW173427   9.243  14.490   5.329
90510SOL    HW273428   9.295  14.567   5.210
90511SOL     OW73429  13.697  12.298  10.238
90511SOL    HW173430  13.672  12.217  10.194
90511SOL    HW273431  13.747  12.270  10.315
90512SOL     OW73432  10.591   0.191   1.165
90512SOL    HW173433  10.570   0.134   1.238
90512SOL    HW273434  10.686   0.199   1.166
90513SOL     OW73435   2.628   7.351  14.238
90513SOL    HW173436   2.602   7.371  14.328
90513SOL    HW273437   2.646   7.257  14.239
90514SOL     OW73438   7.301   5.497  12.500
90514SOL    HW173439   7.219   5.454  12.522
90514SOL    HW273440   7.277   5.560  12.431
90515SOL     OW73441   1.450   9.594   2.097
90515SOL    HW173442   1.355   9.593   2.083
90515SOL    HW273443   1.487   9.593   2.008
90516SOL     OW73444   6.237   3.240  10.207
90516SOL    HW173445   6.320   3.286  10.215
90516SOL    HW273446   6.171   3.310  10.204
90517SOL     OW73447  13.160  13.770  13.285
90517SOL    HW173448  13.244  13.803  13.253
90517SOL    HW273449  13.168  13.770  13.380
90518SOL     OW73450   5.363  11.033  10.438
90518SOL    HW173451   5.293  10.977  10.474
90518SOL    HW273452   5.402  11.075  10.514
90519SOL     OW73453   3.463  12.502   2.754
90519SOL    HW173454   3.477  12.415   2.789
90519SOL    HW273455   3.373  12.502   2.724
90520SOL     OW73456  12.156   4.202   5.295
90520SOL    HW173457  12.099   4.167   5.364
90520SOL    HW273458  12.242   4.164   5.314
90521SOL     OW73459   4.838   0.729  12.198
90521SOL    HW173460   4.795   0.812  12.216
90521SOL    HW273461   4.767   0.672  12.169
90522SOL     OW73462  14.549   1.997   9.579
90522SOL    HW173463  14.490   1.967   9.649
90522SOL    HW273464  14.600   1.919   9.557
90523SOL     OW73465   0.465  11.159   5.592
90523SOL    HW173466   0.539  11.192   5.542
90523SOL    HW273467   0.423  11.238   5.628
90524SOL     OW73468   4.450   8.572   0.349
90524SOL    HW173469   4.481   8.484   0.369
90524SOL    HW273470   4.515   8.630   0.389
90525SOL     OW73471  10.748  10.905   5.326
90525SOL    HW173472  10.759  10.981   5.270
90525SOL    HW273473  10.654  10.887   5.324
90526SOL     OW73474   2.573   5.439   7.450
90526SOL    HW173475   2.587   5.449   7.544
90526SOL    HW273476   2.660   5.447   7.411
90527SOL     OW73477   9.296   1.394   2.209
90527SOL    HW173478   9.205   1.369   2.222
90527SOL    HW273479   9.345   1.339   2.270
90528SOL     OW73480   4.149   9.578   5.840
90528SOL    HW173481   4.087   9.573   5.913
90528SOL    HW273482   4.189   9.665   5.849
90529SOL     OW73483   0.849   2.068  12.651
90529SOL    HW173484   0.815   2.040  12.736
90529SOL    HW273485   0.783   2.037  12.588
90530SOL     OW73486  10.964   6.648  12.715
90530SOL    HW173487  10.901   6.686  12.775
90530SOL    HW273488  10.911   6.606  12.647
90531SOL     OW73489   2.886  12.203   1.269
90531SOL    HW173490   2.845  12.117   1.274
90531SOL    HW273491   2.825  12.261   1.315
90532SOL     OW73492   9.031  10.650  12.993
90532SOL    HW173493   9.126  10.659  12.999
90532SOL    HW273494   9.013  10.634  12.900
90533SOL     OW73495   5.587  12.246  11.715
90533SOL    HW173496   5.608  12.152  11.718
90533SOL    HW273497   5.641  12.279  11.643
90534SOL     OW73498   1.523   9.020  13.443
90534SOL    HW173499   1.565   8.956  13.500
90534SOL    HW273500   1.433   9.023  13.473
90535SOL     OW73501   7.359   5.338   0.940
90535SOL    HW173502   7.322   5.424   0.960
90535SOL    HW273503   7.440   5.334   0.990
90536SOL     OW73504   8.307   4.695   3.727
90536SOL    HW173505   8.274   4.608   3.749
90536SOL    HW273506   8.297   4.745   3.808
90537SOL     OW73507  10.114   5.175   1.991
90537SOL    HW173508  10.083   5.265   1.978
90537SOL    HW273509  10.121   5.139   1.903
90538SOL     OW73510   1.186   0.413  13.631
90538SOL    HW173511   1.094   0.388  13.643
90538SOL    HW273512   1.220   0.422  13.720
90539SOL     OW73513  11.966   8.515   1.345
90539SOL    HW173514  11.910   8.572   1.399
90539SOL    HW273515  11.907   8.474   1.283
90540SOL     OW73516  14.711   5.777   5.618
90540SOL    HW173517  14.726   5.847   5.554
90540SOL    HW273518  14.620   5.790   5.647
90541SOL     OW73519   6.366   5.315   1.066
90541SOL    HW173520   6.339   5.295   1.156
90541SOL    HW273521   6.305   5.266   1.011
90542SOL     OW73522   3.677  14.664  10.559
90542SOL    HW173523   3.709  14.583  10.518
90542SOL    HW273524   3.589  14.641  10.590
90543SOL     OW73525   5.633  14.167   3.478
90543SOL    HW173526   5.697  14.208   3.536
90543SOL    HW273527   5.550  14.172   3.527
90544SOL     OW73528  10.017   8.822  14.347
90544SOL    HW173529  10.012   8.766  14.424
90544SOL    HW273530   9.927   8.827  14.315
90545SOL     OW73531   8.908   4.121   1.255
90545SOL    HW173532   8.884   4.193   1.314
90545SOL    HW273533   8.885   4.042   1.303
90546SOL     OW73534   0.049  11.682  10.043
90546SOL    HW173535   0.088  11.755   9.994
90546SOL    HW273536  14.845  11.659   9.994
90547SOL     OW73537   8.494   4.926   0.505
90547SOL    HW173538   8.477   4.986   0.577
90547SOL    HW273539   8.432   4.854   0.518
90548SOL     OW73540  14.651   7.506  14.439
90548SOL    HW173541  14.693   7.533  14.357
90548SOL    HW273542  14.595   7.579  14.462
90549SOL     OW73543   3.024   7.535   5.703
90549SOL    HW173544   2.959   7.497   5.645
90549SOL    HW273545   2.975   7.593   5.761
90550SOL     OW73546   7.679   2.642  12.421
90550SOL    HW173547   7.765   2.681  12.438
90550SOL    HW273548   7.637   2.702  12.360
90551SOL     OW73549  13.536   3.167   4.805
90551SOL    HW173550  13.622   3.132   4.827
90551SOL    HW273551  13.538   3.258   4.835
90552SOL     OW73552   7.423   4.115   8.065
90552SOL    HW173553   7.469   4.191   8.103
90552SOL    HW273554   7.478   4.089   7.991
90553SOL     OW73555   7.384   0.513  14.601
90553SOL    HW173556   7.339   0.435  14.631
90553SOL    HW273557   7.459   0.523  14.660
90554SOL     OW73558  11.966  12.212   2.504
90554SOL    HW173559  11.918  12.283   2.462
90554SOL    HW273560  11.906  12.178   2.570
90555SOL     OW73561   1.445   0.317   8.921
90555SOL    HW173562   1.537   0.345   8.924
90555SOL    HW273563   1.408   0.365   8.847
90556SOL     OW73564   6.388  10.168   1.643
90556SOL    HW173565   6.464  10.225   1.637
90556SOL    HW273566   6.316  10.222   1.610
90557SOL     OW73567   2.802   2.283  12.993
90557SOL    HW173568   2.839   2.362  12.954
90557SOL    HW273569   2.708   2.299  12.994
90558SOL     OW73570  13.485   1.345   4.870
90558SOL    HW173571  13.473   1.405   4.943
90558SOL    HW273572  13.556   1.384   4.818
90559SOL     OW73573   2.469   7.542   8.597
90559SOL    HW173574   2.440   7.575   8.512
90559SOL    HW273575   2.554   7.585   8.611
90560SOL     OW73576   1.495   8.460   2.046
90560SOL    HW173577   1.452   8.468   2.131
90560SOL    HW273578   1.513   8.550   2.020
90561SOL     OW73579  13.388  11.660   6.620
90561SOL    HW173580  13.309  11.653   6.673
90561SOL    HW273581  13.448  11.713   6.673
90562SOL     OW73582   3.492   7.815  10.378
90562SOL    HW173583   3.549   7.854  10.444
90562SOL    HW273584   3.496   7.721  10.396
90563SOL     OW73585  11.111   0.519   5.241
90563SOL    HW173586  11.046   0.513   5.172
90563SOL    HW273587  11.129   0.613   5.249
90564SOL     OW73588   1.715  12.152   7.689
90564SOL    HW173589   1.728  12.079   7.628
90564SOL    HW273590   1.655  12.211   7.643
90565SOL     OW73591   8.250  14.427   3.840
90565SOL    HW173592   8.239  14.387   3.926
90565SOL    HW273593   8.336  14.469   3.845
90566SOL     OW73594   6.208   6.951   2.249
90566SOL    HW173595   6.131   7.005   2.265
90566SOL    HW273596   6.205   6.934   2.155
90567SOL     OW73597   1.135   6.897  11.200
90567SOL    HW173598   1.188   6.953  11.143
90567SOL    HW273599   1.119   6.819  11.147
90568SOL     OW73600  13.251   9.530  13.022
90568SOL    HW173601  13.285   9.555  13.108
90568SOL    HW273602  13.242   9.435  13.026
90569SOL     OW73603   4.826  10.866   2.437
90569SOL    HW173604   4.823  10.934   2.503
90569SOL    HW273605   4.856  10.788   2.484
90570SOL     OW73606   3.892  13.743   8.661
90570SOL    HW173607   3.802  13.773   8.677
90570SOL    HW273608   3.922  13.795   8.586
90571SOL     OW73609   0.178  11.909  12.418
90571SOL    HW173610   0.235  11.840  12.385
90571SOL    HW273611   0.231  11.989  12.412
90572SOL     OW73612   9.443  14.095   6.077
90572SOL    HW173613   9.529  14.109   6.037
90572SOL    HW273614   9.428  14.001   6.070
90573SOL     OW73615   8.070   6.200   3.250
90573SOL    HW173616   8.148   6.255   3.241
90573SOL    HW273617   8.101   6.112   3.228
90574SOL     OW73618   2.320   4.959   4.394
90574SOL    HW173619   2.357   5.023   4.455
90574SOL    HW273620   2.234   4.937   4.431
90575SOL     OW73621   5.590   2.183   3.382
90575SOL    HW173622   5.658   2.116   3.390
90575SOL    HW273623   5.556   2.193   3.471
90576SOL     OW73624   5.540   3.643   8.485
90576SOL    HW173625   5.491   3.719   8.516
90576SOL    HW273626   5.586   3.674   8.407
90577SOL     OW73627  11.772   7.925   7.400
90577SOL    HW173628  11.822   7.999   7.367
90577SOL    HW273629  11.768   7.939   7.495
90578SOL     OW73630   2.286  12.378  12.812
90578SOL    HW173631   2.217  12.404  12.750
90578SOL    HW273632   2.348  12.450  12.810
90579SOL     OW73633   6.427   9.186   1.594
90579SOL    HW173634   6.480   9.265   1.582
90579SOL    HW273635   6.350   9.200   1.539
90580SOL     OW73636  14.607  13.426   2.855
90580SOL    HW173637  14.654  13.343   2.847
90580SOL    HW273638  14.622  13.454   2.945
90581SOL     OW73639  14.134   3.227  13.596
90581SOL    HW173640  14.071   3.296  13.616
90581SOL    HW273641  14.158   3.242  13.505
90582SOL     OW73642  13.344  13.085  12.173
90582SOL    HW173643  13.424  13.032  12.171
90582SOL    HW273644  13.362  13.154  12.237
90583SOL     OW73645   4.901   2.627  14.845
90583SOL    HW173646   4.893   2.538   0.006
90583SOL    HW273647   4.986   2.658  14.874
90584SOL     OW73648  11.058  11.280   5.566
90584SOL    HW173649  11.084  11.370   5.546
90584SOL    HW273650  11.059  11.276   5.662
90585SOL     OW73651  12.397  13.544   6.430
90585SOL    HW173652  12.428  13.523   6.341
90585SOL    HW273653  12.344  13.622   6.418
90586SOL     OW73654  13.407  13.985   5.557
90586SOL    HW173655  13.451  13.920   5.611
90586SOL    HW273656  13.422  13.955   5.467
90587SOL     OW73657   1.226   8.983   1.213
90587SOL    HW173658   1.163   9.021   1.274
90587SOL    HW273659   1.245   9.053   1.151
90588SOL     OW73660   1.769   4.001  11.782
90588SOL    HW173661   1.747   3.987  11.874
90588SOL    HW273662   1.777   4.096  11.773
90589SOL     OW73663   0.241   0.743  14.242
90589SOL    HW173664   0.321   0.794  14.254
90589SOL    HW273665   0.268   0.652  14.253
90590SOL     OW73666  11.030  12.865   2.954
90590SOL    HW173667  11.006  12.957   2.971
90590SOL    HW273668  10.950  12.816   2.973
90591SOL     OW73669   5.797   9.496  14.432
90591SOL    HW173670   5.877   9.448  14.409
90591SOL    HW273671   5.798   9.501  14.527
90592SOL     OW73672   4.178   4.657   1.989
90592SOL    HW173673   4.145   4.617   2.070
90592SOL    HW273674   4.112   4.721   1.965
90593SOL     OW73675  12.956  11.933   5.508
90593SOL    HW173676  12.881  11.874   5.505
90593SOL    HW273677  13.029  11.877   5.535
90594SOL     OW73678   7.974  11.758   4.547
90594SOL    HW173679   7.913  11.816   4.592
90594SOL    HW273680   8.012  11.811   4.478
90595SOL     OW73681   9.012  10.236   0.283
90595SOL    HW173682   9.087  10.284   0.247
90595SOL    HW273683   8.986  10.176   0.213
90596SOL     OW73684   1.669  10.093   2.760
90596SOL    HW173685   1.742  10.152   2.743
90596SOL    HW273686   1.710  10.009   2.779
90597SOL     OW73687   5.523   7.424   5.016
90597SOL    HW173688   5.542   7.434   4.922
90597SOL    HW273689   5.465   7.497   5.036
90598SOL     OW73690   1.925   9.498   3.211
90598SOL    HW173691   1.976   9.422   3.185
90598SOL    HW273692   1.834   9.470   3.204
90599SOL     OW73693   8.270   6.540   4.940
90599SOL    HW173694   8.320   6.622   4.936
90599SOL    HW273695   8.335   6.473   4.961
90600SOL     OW73696   5.430   7.285  12.233
90600SOL    HW173697   5.447   7.218  12.166
90600SOL    HW273698   5.410   7.364  12.182
90601SOL     OW73699   0.275   0.231   9.746
90601SOL    HW173700   0.201   0.273   9.790
90601SOL    HW273701   0.317   0.180   9.815
90602SOL     OW73702   0.322   3.370   9.544
90602SOL    HW173703   0.318   3.425   9.466
90602SOL    HW273704   0.400   3.401   9.590
90603SOL     OW73705   4.338  10.549   8.908
90603SOL    HW173706   4.399  10.475   8.908
90603SOL    HW273707   4.385  10.618   8.955
90604SOL     OW73708   0.003  10.687   8.940
90604SOL    HW173709   0.077  10.744   8.918
90604SOL    HW273710  14.802  10.729   8.901
90605SOL     OW73711  12.659  12.959   2.285
90605SOL    HW173712  12.750  12.938   2.261
90605SOL    HW273713  12.667  13.026   2.352
90606SOL     OW73714   5.118   7.026  10.662
90606SOL    HW173715   5.049   7.025  10.596
90606SOL    HW273716   5.174   6.952  10.639
90607SOL     OW73717  14.515  10.917   7.933
90607SOL    HW173718  14.509  10.945   8.024
90607SOL    HW273719  14.600  10.875   7.926
90608SOL     OW73720  12.107   3.027   0.825
90608SOL    HW173721  12.103   3.120   0.850
90608SOL    HW273722  12.026   3.012   0.776
90609SOL     OW73723  14.501   5.908   0.317
90609SOL    HW173724  14.490   5.963   0.239
90609SOL    HW273725  14.445   5.833   0.301
90610SOL     OW73726   6.640  13.076  14.575
90610SOL    HW173727   6.675  13.002  14.525
90610SOL    HW273728   6.662  13.153  14.523
90611SOL     OW73729   7.829   0.123  10.635
90611SOL    HW173730   7.875   0.197  10.674
90611SOL    HW273731   7.859   0.047  10.685
90612SOL     OW73732   8.935   8.106  10.898
90612SOL    HW173733   8.927   8.201  10.896
90612SOL    HW273734   8.965   8.083  10.810
90613SOL     OW73735  13.584   7.567   3.219
90613SOL    HW173736  13.526   7.517   3.277
90613SOL    HW273737  13.575   7.658   3.248
90614SOL     OW73738  11.613  14.059  10.925
90614SOL    HW173739  11.641  14.111  10.850
90614SOL    HW273740  11.577  13.979  10.886
90615SOL     OW73741   8.342  14.595   3.306
90615SOL    HW173742   8.371  14.523   3.251
90615SOL    HW273743   8.404  14.597   3.379
90616SOL     OW73744   6.916  10.873   0.180
90616SOL    HW173745   6.883  10.944   0.234
90616SOL    HW273746   6.995  10.842   0.225
90617SOL     OW73747   9.365   0.446   2.669
90617SOL    HW173748   9.460   0.447   2.658
90617SOL    HW273749   9.331   0.453   2.580
90618SOL     OW73750   3.042   7.643  10.219
90618SOL    HW173751   2.976   7.627  10.151
90618SOL    HW273752   3.002   7.610  10.299
90619SOL     OW73753   7.750   0.464   7.941
90619SOL    HW173754   7.773   0.553   7.916
90619SOL    HW273755   7.669   0.445   7.893
90620SOL     OW73756   1.969   0.380  11.838
90620SOL    HW173757   1.965   0.473  11.862
90620SOL    HW273758   1.878   0.353  11.835
90621SOL     OW73759  13.256   1.455  11.197
90621SOL    HW173760  13.252   1.432  11.289
90621SOL    HW273761  13.165   1.473  11.172
90622SOL     OW73762   6.288  10.340   4.197
90622SOL    HW173763   6.210  10.286   4.201
90622SOL    HW273764   6.334  10.322   4.280
90623SOL     OW73765  12.439   6.555  10.717
90623SOL    HW173766  12.368   6.605  10.676
90623SOL    HW273767  12.490   6.621  10.763
90624SOL     OW73768  12.752  13.795   3.316
90624SOL    HW173769  12.845  13.780   3.333
90624SOL    HW273770  12.730  13.872   3.369
90625SOL     OW73771   4.172   8.849   3.498
90625SOL    HW173772   4.097   8.826   3.553
90625SOL    HW273773   4.152   8.809   3.413
90626SOL     OW73774  13.166   0.204  10.142
90626SOL    HW173775  13.203   0.255  10.069
90626SOL    HW273776  13.240   0.154  10.176
90627SOL     OW73777   6.847   9.412  12.289
90627SOL    HW173778   6.783   9.378  12.352
90627SOL    HW273779   6.886   9.333  12.250
90628SOL     OW73780   2.325   3.611   1.414
90628SOL    HW173781   2.357   3.564   1.491
90628SOL    HW273782   2.334   3.548   1.342
90629SOL     OW73783   6.595   9.375  13.863
90629SOL    HW173784   6.651   9.410  13.793
90629SOL    HW273785   6.652   9.315  13.911
90630SOL     OW73786  12.093  14.100   3.259
90630SOL    HW173787  12.148  14.036   3.305
90630SOL    HW273788  12.108  14.082   3.167
90631SOL     OW73789  10.094   2.956   3.117
90631SOL    HW173790  10.011   2.987   3.083
90631SOL    HW273791  10.131   2.903   3.046
90632SOL     OW73792   1.946   5.174   0.968
90632SOL    HW173793   1.862   5.219   0.955
90632SOL    HW273794   1.931   5.087   0.931
90633SOL     OW73795   2.877  11.656   6.078
90633SOL    HW173796   2.800  11.629   6.027
90633SOL    HW273797   2.934  11.700   6.015
90634SOL     OW73798  10.667   4.466   6.219
90634SOL    HW173799  10.598   4.401   6.204
90634SOL    HW273800  10.695   4.452   6.309
90635SOL     OW73801   5.181   7.722  12.701
90635SOL    HW173802   5.129   7.729  12.621
90635SOL    HW273803   5.123   7.752  12.771
90636SOL     OW73804  11.758  14.692  14.874
90636SOL    HW173805  11.716  14.741  14.803
90636SOL    HW273806  11.829  14.749   0.029
90637SOL     OW73807   4.149   0.635   8.082
90637SOL    HW173808   4.167   0.564   8.143
90637SOL    HW273809   4.234   0.676   8.068
90638SOL     OW73810  11.745   8.437   0.440
90638SOL    HW173811  11.808   8.403   0.376
90638SOL    HW273812  11.759   8.383   0.518
90639SOL     OW73813   4.946  10.761   0.450
90639SOL    HW173814   4.881  10.806   0.505
90639SOL    HW273815   4.952  10.673   0.487
90640SOL     OW73816   8.059  10.271   4.020
90640SOL    HW173817   8.125  10.340   4.026
90640SOL    HW273818   8.061  10.228   4.106
90641SOL     OW73819   1.680  14.676   5.039
90641SOL    HW173820   1.600  14.630   5.015
90641SOL    HW273821   1.668  14.701   5.130
90642SOL     OW73822   1.618  12.865   1.504
90642SOL    HW173823   1.658  12.849   1.590
90642SOL    HW273824   1.524  12.869   1.523
90643SOL     OW73825   6.312   1.120   4.244
90643SOL    HW173826   6.219   1.095   4.242
90643SOL    HW273827   6.312   1.214   4.227
90644SOL     OW73828  10.530  10.706   3.416
90644SOL    HW173829  10.560  10.705   3.507
90644SOL    HW273830  10.598  10.660   3.367
90645SOL     OW73831   3.884   5.449  13.190
90645SOL    HW173832   3.828   5.398  13.132
90645SOL    HW273833   3.832   5.527  13.209
90646SOL     OW73834  11.420   2.680   5.705
90646SOL    HW173835  11.392   2.733   5.780
90646SOL    HW273836  11.451   2.598   5.744
90647SOL     OW73837   4.718   2.519  12.511
90647SOL    HW173838   4.635   2.475  12.492
90647SOL    HW273839   4.710   2.547  12.602
90648SOL     OW73840   2.008   0.439   8.099
90648SOL    HW173841   2.022   0.459   8.006
90648SOL    HW273842   2.077   0.487   8.145
90649SOL     OW73843   6.555   7.599   7.466
90649SOL    HW173844   6.629   7.591   7.526
90649SOL    HW273845   6.478   7.604   7.523
90650SOL     OW73846   1.287  10.765   6.715
90650SOL    HW173847   1.271  10.685   6.765
90650SOL    HW273848   1.200  10.803   6.702
90651SOL     OW73849   0.719   5.630  10.128
90651SOL    HW173850   0.727   5.555  10.187
90651SOL    HW273851   0.657   5.688  10.173
90652SOL     OW73852   1.318   8.730   4.919
90652SOL    HW173853   1.240   8.778   4.894
90652SOL    HW273854   1.295   8.638   4.907
90653SOL     OW73855   1.565  13.157  12.301
90653SOL    HW173856   1.525  13.069  12.299
90653SOL    HW273857   1.537  13.198  12.219
90654SOL     OW73858   1.094  10.095   1.688
90654SOL    HW173859   1.154  10.100   1.613
90654SOL    HW273860   1.139  10.142   1.758
90655SOL     OW73861   1.712   1.519   1.191
90655SOL    HW173862   1.773   1.457   1.230
90655SOL    HW273863   1.752   1.605   1.206
90656SOL     OW73864   0.124   6.607   3.205
90656SOL    HW173865   0.141   6.579   3.115
90656SOL    HW273866   0.169   6.691   3.213
90657SOL     OW73867   0.214  14.736  13.677
90657SOL    HW173868   0.172  14.655  13.704
90657SOL    HW273869   0.222  14.787  13.758
90658SOL     OW73870   2.310   7.130   0.205
90658SOL    HW173871   2.251   7.201   0.229
90658SOL    HW273872   2.395   7.173   0.192
90659SOL     OW73873   9.712   8.167   7.966
90659SOL    HW173874   9.708   8.224   8.043
90659SOL    HW273875   9.647   8.100   7.983
90660SOL     OW73876  10.586  12.091   2.312
90660SOL    HW173877  10.593  12.139   2.395
90660SOL    HW273878  10.630  12.147   2.248
90661SOL     OW73879   9.659   2.085   1.225
90661SOL    HW173880   9.685   2.148   1.157
90661SOL    HW273881   9.714   2.008   1.208
90662SOL     OW73882   5.159   1.475  14.509
90662SOL    HW173883   5.161   1.491  14.415
90662SOL    HW273884   5.159   1.563  14.548
90663SOL     OW73885  10.833  13.808   3.766
90663SOL    HW173886  10.785  13.823   3.848
90663SOL    HW273887  10.860  13.895   3.738
90664SOL     OW73888   3.040  14.077  12.878
90664SOL    HW173889   2.972  14.139  12.905
90664SOL    HW273890   3.008  13.991  12.907
90665SOL     OW73891   3.067   2.163  12.502
90665SOL    HW173892   3.008   2.181  12.429
90665SOL    HW273893   3.027   2.206  12.577
90666SOL     OW73894  11.433   6.660   2.139
90666SOL    HW173895  11.465   6.664   2.049
90666SOL    HW273896  11.507   6.628   2.190
90667SOL     OW73897   8.123   3.334   6.862
90667SOL    HW173898   8.190   3.378   6.915
90667SOL    HW273899   8.162   3.248   6.842
90668SOL     OW73900  11.524   9.129   9.858
90668SOL    HW173901  11.512   9.122   9.953
90668SOL    HW273902  11.568   9.047   9.834
90669SOL     OW73903  14.598  13.879  13.125
90669SOL    HW173904  14.524  13.909  13.072
90669SOL    HW273905  14.571  13.793  13.157
90670SOL     OW73906   9.892   6.389   4.012
90670SOL    HW173907   9.929   6.338   3.940
90670SOL    HW273908   9.968   6.411   4.067
90671SOL     OW73909   8.849  11.620  14.727
90671SOL    HW173910   8.770  11.633  14.780
90671SOL    HW273911   8.921  11.627  14.790
90672SOL     OW73912   8.221  10.529   6.134
90672SOL    HW173913   8.279  10.489   6.069
90672SOL    HW273914   8.258  10.502   6.218
90673SOL     OW73915  10.668   3.591  12.287
90673SOL    HW173916  10.675   3.681  12.254
90673SOL    HW273917  10.757   3.569  12.315
90674SOL     OW73918   5.887   0.406   2.898
90674SOL    HW173919   5.817   0.354   2.938
90674SOL    HW273920   5.841   0.469   2.842
90675SOL     OW73921   2.493   0.977   5.661
90675SOL    HW173922   2.421   0.975   5.598
90675SOL    HW273923   2.450   0.982   5.746
90676SOL     OW73924  13.009   5.798  10.708
90676SOL    HW173925  12.930   5.837  10.746
90676SOL    HW273926  12.977   5.728  10.651
90677SOL     OW73927  12.928   0.113  10.506
90677SOL    HW173928  12.933   0.201  10.545
90677SOL    HW273929  13.016   0.077  10.517
90678SOL     OW73930   7.432  12.641  10.223
90678SOL    HW173931   7.457  12.658  10.314
90678SOL    HW273932   7.363  12.704  10.205
90679SOL     OW73933  10.417   2.965  11.023
90679SOL    HW173934  10.475   3.031  10.985
90679SOL    HW273935  10.336   2.973  10.972
90680SOL     OW73936   6.215  12.730  11.827
90680SOL    HW173937   6.309  12.751  11.828
90680SOL    HW273938   6.210  12.643  11.788
90681SOL     OW73939  14.365   9.691   8.680
90681SOL    HW173940  14.433   9.629   8.654
90681SOL    HW273941  14.322   9.716   8.599
90682SOL     OW73942  10.451   6.464   4.328
90682SOL    HW173943  10.405   6.536   4.371
90682SOL    HW273944  10.541   6.471   4.361
90683SOL     OW73945  10.576   6.890   6.772
90683SOL    HW173946  10.614   6.927   6.852
90683SOL    HW273947  10.559   6.798   6.795
90684SOL     OW73948   9.926  12.120   7.387
90684SOL    HW173949   9.933  12.071   7.469
90684SOL    HW273950   9.864  12.069   7.334
90685SOL     OW73951  10.423   9.755   6.464
90685SOL    HW173952  10.382   9.738   6.379
90685SOL    HW273953  10.483   9.682   6.477
90686SOL     OW73954   3.752  12.251   1.853
90686SOL    HW173955   3.676  12.205   1.819
90686SOL    HW273956   3.747  12.239   1.948
90687SOL     OW73957  11.636  10.983   8.330
90687SOL    HW173958  11.551  10.999   8.288
90687SOL    HW273959  11.674  11.070   8.342
90688SOL     OW73960   5.086  13.131   5.190
90688SOL    HW173961   5.020  13.194   5.163
90688SOL    HW273962   5.089  13.066   5.119
90689SOL     OW73963   9.398  13.508   7.728
90689SOL    HW173964   9.350  13.442   7.778
90689SOL    HW273965   9.460  13.546   7.791
90690SOL     OW73966   1.206  10.442  10.317
90690SOL    HW173967   1.165  10.485  10.392
90690SOL    HW273968   1.139  10.381  10.285
90691SOL     OW73969   0.380  10.858   7.487
90691SOL    HW173970   0.471  10.883   7.506
90691SOL    HW273971   0.387  10.795   7.416
90692SOL     OW73972   3.671  12.899  11.232
90692SOL    HW173973   3.667  12.927  11.323
90692SOL    HW273974   3.580  12.895  11.203
90693SOL     OW73975  12.290   4.576   8.119
90693SOL    HW173976  12.324   4.574   8.208
90693SOL    HW273977  12.233   4.653   8.117
90694SOL     OW73978  12.197  11.381  12.737
90694SOL    HW173979  12.204  11.304  12.793
90694SOL    HW273980  12.196  11.455  12.797
90695SOL     OW73981   9.992  13.666   9.565
90695SOL    HW173982   9.911  13.653   9.614
90695SOL    HW273983  10.014  13.758   9.578
90696SOL     OW73984   2.742   6.959  12.386
90696SOL    HW173985   2.834   6.972  12.364
90696SOL    HW273986   2.694   6.989  12.309
90697SOL     OW73987   8.197   7.054  10.104
90697SOL    HW173988   8.265   7.121  10.111
90697SOL    HW273989   8.244   6.971  10.102
90698SOL     OW73990   5.557   1.026   9.861
90698SOL    HW173991   5.481   1.083   9.874
90698SOL    HW273992   5.567   0.979   9.944
90699SOL     OW73993   9.728  10.952   9.264
90699SOL    HW173994   9.755  11.027   9.317
90699SOL    HW273995   9.762  10.970   9.177
90700SOL     OW73996   7.002  11.138   5.997
90700SOL    HW173997   7.066  11.209   6.003
90700SOL    HW273998   6.952  11.157   5.918
90701SOL     OW73999   6.912   3.287  12.326
90701SOL    HW174000   6.996   3.290  12.280
90701SOL    HW274001   6.916   3.361  12.387
90702SOL     OW74002   2.497   2.323  12.538
90702SOL    HW174003   2.499   2.302  12.444
90702SOL    HW274004   2.549   2.255  12.579
90703SOL     OW74005   5.322   3.221  14.652
90703SOL    HW174006   5.230   3.196  14.654
90703SOL    HW274007   5.333   3.267  14.569
90704SOL     OW74008  13.384   4.797   7.333
90704SOL    HW174009  13.418   4.788   7.244
90704SOL    HW274010  13.303   4.848   7.322
90705SOL     OW74011   8.799  11.820   2.398
90705SOL    HW174012   8.769  11.730   2.386
90705SOL    HW274013   8.779  11.863   2.315
90706SOL     OW74014  13.346   7.545  13.132
90706SOL    HW174015  13.293   7.601  13.075
90706SOL    HW274016  13.398   7.492  13.071
90707SOL     OW74017   6.003   0.277   1.894
90707SOL    HW174018   6.055   0.357   1.893
90707SOL    HW274019   6.041   0.222   1.825
90708SOL     OW74020   2.483  10.069   3.387
90708SOL    HW174021   2.426  10.079   3.311
90708SOL    HW274022   2.458   9.985   3.425
90709SOL     OW74023   9.832   7.002   9.890
90709SOL    HW174024   9.856   7.041   9.974
90709SOL    HW274025   9.783   7.071   9.845
90710SOL     OW74026   2.636   7.214  13.012
90710SOL    HW174027   2.594   7.153  12.951
90710SOL    HW274028   2.651   7.293  12.960
90711SOL     OW74029   3.585  11.278   0.736
90711SOL    HW174030   3.678  11.297   0.723
90711SOL    HW274031   3.584  11.190   0.774
90712SOL     OW74032   6.377   2.034   2.819
90712SOL    HW174033   6.284   2.045   2.842
90712SOL    HW274034   6.419   2.012   2.902
90713SOL     OW74035   6.754   3.160   5.383
90713SOL    HW174036   6.735   3.199   5.468
90713SOL    HW274037   6.849   3.151   5.380
90714SOL     OW74038   2.150  11.358   1.444
90714SOL    HW174039   2.210  11.332   1.514
90714SOL    HW274040   2.108  11.276   1.418
90715SOL     OW74041   9.754  14.203   8.840
90715SOL    HW174042   9.733  14.272   8.778
90715SOL    HW274043   9.686  14.138   8.828
90716SOL     OW74044   5.642   9.947  13.430
90716SOL    HW174045   5.637  10.040  13.451
90716SOL    HW274046   5.586   9.936  13.354
90717SOL     OW74047  12.349   3.504   2.717
90717SOL    HW174048  12.307   3.583   2.683
90717SOL    HW274049  12.400   3.534   2.792
90718SOL     OW74050   9.984  13.372  10.235
90718SOL    HW174051   9.923  13.309  10.274
90718SOL    HW274052   9.992  13.441  10.300
90719SOL     OW74053   0.422  11.632   3.735
90719SOL    HW174054   0.444  11.589   3.652
90719SOL    HW274055   0.504  11.635   3.783
90720SOL     OW74056   4.247   8.797   4.743
90720SOL    HW174057   4.266   8.748   4.824
90720SOL    HW274058   4.333   8.824   4.711
90721SOL     OW74059   0.022   2.591  11.917
90721SOL    HW174060  14.826   2.597  11.980
90721SOL    HW274061   0.029   2.680  11.880
90722SOL     OW74062   3.834  14.690   4.270
90722SOL    HW174063   3.876  14.606   4.292
90722SOL    HW274064   3.778  14.710   4.345
90723SOL     OW74065   2.910   3.260   9.181
90723SOL    HW174066   2.877   3.172   9.201
90723SOL    HW274067   2.987   3.244   9.126
90724SOL     OW74068  14.160  13.409  10.577
90724SOL    HW174069  14.096  13.450  10.519
90724SOL    HW274070  14.219  13.362  10.517
90725SOL     OW74071   4.239   6.859   8.337
90725SOL    HW174072   4.333   6.866   8.356
90725SOL    HW274073   4.216   6.769   8.360
90726SOL     OW74074   9.829   3.887   8.838
90726SOL    HW174075   9.894   3.824   8.869
90726SOL    HW274076   9.785   3.918   8.917
90727SOL     OW74077  12.086   5.978   0.208
90727SOL    HW174078  12.104   5.994   0.301
90727SOL    HW274079  12.020   5.909   0.208
90728SOL     OW74080   2.446   3.989   0.363
90728SOL    HW174081   2.434   4.059   0.427
90728SOL    HW274082   2.453   3.909   0.415
90729SOL     OW74083   2.546  11.412   9.681
90729SOL    HW174084   2.543  11.328   9.635
90729SOL    HW274085   2.483  11.402   9.753
90730SOL     OW74086   6.451  11.537  12.813
90730SOL    HW174087   6.512  11.569  12.879
90730SOL    HW274088   6.414  11.616  12.774
90731SOL     OW74089   1.231   0.608   0.099
90731SOL    HW174090   1.239   0.524   0.055
90731SOL    HW274091   1.146   0.604   0.143
90732SOL     OW74092   9.811   3.491   3.794
90732SOL    HW174093   9.831   3.400   3.776
90732SOL    HW274094   9.739   3.489   3.857
90733SOL     OW74095   0.279   3.555   6.255
90733SOL    HW174096   0.218   3.482   6.252
90733SOL    HW274097   0.252   3.612   6.183
90734SOL     OW74098   9.327   6.202  11.802
90734SOL    HW174099   9.343   6.265  11.732
90734SOL    HW274100   9.309   6.120  11.757
90735SOL     OW74101   1.205   7.144  12.685
90735SOL    HW174102   1.164   7.225  12.716
90735SOL    HW274103   1.197   7.148  12.590
90736SOL     OW74104   9.482  12.522   5.574
90736SOL    HW174105   9.395  12.532   5.613
90736SOL    HW274106   9.467  12.525   5.480
90737SOL     OW74107  13.397  12.213   9.915
90737SOL    HW174108  13.353  12.174   9.839
90737SOL    HW274109  13.396  12.307   9.898
90738SOL     OW74110   7.720   1.771   2.117
90738SOL    HW174111   7.775   1.732   2.185
90738SOL    HW274112   7.765   1.749   2.035
90739SOL     OW74113   4.192  14.384   8.187
90739SOL    HW174114   4.128  14.453   8.170
90739SOL    HW274115   4.193  14.376   8.283
90740SOL     OW74116   6.616   1.140  10.384
90740SOL    HW174117   6.530   1.165  10.418
90740SOL    HW274118   6.678   1.189  10.437
90741SOL     OW74119  10.062   3.754   1.313
90741SOL    HW174120   9.976   3.795   1.321
90741SOL    HW274121  10.074   3.705   1.395
90742SOL     OW74122   7.501   6.932   5.155
90742SOL    HW174123   7.546   6.999   5.206
90742SOL    HW274124   7.550   6.852   5.173
90743SOL     OW74125  11.252   5.799  10.323
90743SOL    HW174126  11.195   5.722  10.315
90743SOL    HW274127  11.209   5.865  10.268
90744SOL     OW74128   6.510   3.929   5.128
90744SOL    HW174129   6.454   3.994   5.085
90744SOL    HW274130   6.500   3.850   5.075
90745SOL     OW74131   5.710  12.215   3.506
90745SOL    HW174132   5.701  12.300   3.464
90745SOL    HW274133   5.737  12.235   3.596
90746SOL     OW74134   0.217   4.863  11.158
90746SOL    HW174135   0.294   4.892  11.109
90746SOL    HW274136   0.151   4.846  11.090
90747SOL     OW74137   3.554   8.396  14.495
90747SOL    HW174138   3.562   8.340  14.571
90747SOL    HW274139   3.612   8.358  14.429
90748SOL     OW74140   7.170   2.901   1.469
90748SOL    HW174141   7.106   2.841   1.432
90748SOL    HW274142   7.150   2.985   1.429
90749SOL     OW74143  11.963   6.604   6.801
90749SOL    HW174144  12.001   6.520   6.828
90749SOL    HW274145  11.928   6.642   6.882
90750SOL     OW74146   6.550   5.718   2.377
90750SOL    HW174147   6.509   5.633   2.390
90750SOL    HW274148   6.632   5.698   2.330
90751SOL     OW74149  14.266  11.686  12.365
90751SOL    HW174150  14.277  11.592  12.349
90751SOL    HW274151  14.241  11.692  12.457
90752SOL     OW74152   0.134   1.553   9.506
90752SOL    HW174153   0.113   1.519   9.593
90752SOL    HW274154   0.053   1.545   9.457
90753SOL     OW74155   0.939   3.058   8.416
90753SOL    HW174156   0.871   3.124   8.410
90753SOL    HW274157   0.958   3.051   8.509
90754SOL     OW74158   6.363   0.432   2.048
90754SOL    HW174159   6.412   0.486   2.110
90754SOL    HW274160   6.424   0.363   2.022
90755SOL     OW74161  13.391  11.389   4.780
90755SOL    HW174162  13.452  11.339   4.727
90755SOL    HW274163  13.397  11.478   4.746
90756SOL     OW74164   1.378   9.941   2.165
90756SOL    HW174165   1.411   9.996   2.094
90756SOL    HW274166   1.299   9.900   2.128
90757SOL     OW74167  13.785   1.748   2.276
90757SOL    HW174168  13.811   1.692   2.349
90757SOL    HW274169  13.703   1.789   2.305
90758SOL     OW74170   3.476  10.917   8.129
90758SOL    HW174171   3.464  10.987   8.192
90758SOL    HW274172   3.566  10.889   8.140
90759SOL     OW74173  10.489   9.615  13.279
90759SOL    HW174174  10.467   9.525  13.259
90759SOL    HW274175  10.428   9.640  13.349
90760SOL     OW74176   1.930   7.568  14.131
90760SOL    HW174177   1.885   7.569  14.047
90760SOL    HW274178   2.000   7.504  14.120
90761SOL     OW74179  13.769   3.752   9.103
90761SOL    HW174180  13.776   3.798   9.187
90761SOL    HW274181  13.767   3.821   9.038
90762SOL     OW74182  12.461   7.985   5.061
90762SOL    HW174183  12.485   7.995   5.153
90762SOL    HW274184  12.544   7.979   5.014
90763SOL     OW74185   6.758  11.416   5.584
90763SOL    HW174186   6.830  11.449   5.531
90763SOL    HW274187   6.688  11.398   5.521
90764SOL     OW74188   4.891   1.393   2.507
90764SOL    HW174189   4.976   1.398   2.552
90764SOL    HW274190   4.903   1.327   2.439
90765SOL     OW74191   3.828   0.970   3.002
90765SOL    HW174192   3.811   1.064   3.006
90765SOL    HW274193   3.921   0.962   3.026
90766SOL     OW74194  14.051  12.316   3.628
90766SOL    HW174195  14.134  12.316   3.675
90766SOL    HW274196  14.047  12.402   3.587
90767SOL     OW74197  12.764  11.672  14.650
90767SOL    HW174198  12.789  11.696  14.739
90767SOL    HW274199  12.745  11.756  14.608
90768SOL     OW74200  10.325  14.069  14.589
90768SOL    HW174201  10.261  14.010  14.549
90768SOL    HW274202  10.402  14.014  14.604
90769SOL     OW74203   0.581   8.717   8.184
90769SOL    HW174204   0.600   8.745   8.274
90769SOL    HW274205   0.505   8.660   8.192
90770SOL     OW74206   9.998  13.596   6.311
90770SOL    HW174207  10.038  13.669   6.262
90770SOL    HW274208   9.965  13.538   6.243
90771SOL     OW74209   4.584   4.459  14.728
90771SOL    HW174210   4.576   4.497  14.815
90771SOL    HW274211   4.565   4.366  14.740
90772SOL     OW74212  13.322   6.246   9.094
90772SOL    HW174213  13.375   6.222   9.170
90772SOL    HW274214  13.381   6.237   9.020
90773SOL     OW74215  10.130  12.289  10.493
90773SOL    HW174216  10.211  12.318  10.452
90773SOL    HW274217  10.127  12.336  10.577
90774SOL     OW74218   7.014   3.964   5.639
90774SOL    HW174219   6.922   3.969   5.615
90774SOL    HW274220   7.015   3.977   5.734
90775SOL     OW74221  10.378   3.967   7.820
90775SOL    HW174222  10.472   3.968   7.838
90775SOL    HW274223  10.358   3.875   7.802
90776SOL     OW74224  11.897   1.412   7.012
90776SOL    HW174225  11.815   1.363   7.020
90776SOL    HW274226  11.880   1.496   7.053
90777SOL     OW74227  12.494   0.651   0.985
90777SOL    HW174228  12.412   0.700   0.990
90777SOL    HW274229  12.473   0.574   0.932
90778SOL     OW74230   7.475   3.788   7.797
90778SOL    HW174231   7.408   3.824   7.856
90778SOL    HW274232   7.541   3.858   7.792
90779SOL     OW74233   0.683  11.012  12.071
90779SOL    HW174234   0.683  10.972  11.984
90779SOL    HW274235   0.769  11.053  12.079
90780SOL     OW74236   5.692  11.696   9.051
90780SOL    HW174237   5.643  11.685   9.133
90780SOL    HW274238   5.783  11.678   9.076
90781SOL     OW74239  11.040   3.304   7.509
90781SOL    HW174240  11.010   3.378   7.562
90781SOL    HW274241  10.959   3.262   7.480
90782SOL     OW74242   8.663   5.781   2.831
90782SOL    HW174243   8.673   5.849   2.764
90782SOL    HW274244   8.751   5.772   2.868
90783SOL     OW74245  14.302  10.854  14.853
90783SOL    HW174246  14.379  10.851   0.034
90783SOL    HW274247  14.298  10.767  14.813
90784SOL     OW74248   6.468   0.446   3.553
90784SOL    HW174249   6.460   0.445   3.648
90784SOL    HW274250   6.393   0.498   3.523
90785SOL     OW74251  10.478  10.145   1.269
90785SOL    HW174252  10.486  10.147   1.364
90785SOL    HW274253  10.566  10.167   1.237
90786SOL     OW74254   3.356  13.058  13.910
90786SOL    HW174255   3.289  13.063  13.979
90786SOL    HW274256   3.415  12.989  13.939
90787SOL     OW74257   4.108   1.126  12.063
90787SOL    HW174258   4.108   1.073  12.143
90787SOL    HW274259   4.051   1.079  12.003
90788SOL     OW74260  14.673   7.658   5.519
90788SOL    HW174261  14.752   7.628   5.473
90788SOL    HW274262  14.658   7.592   5.586
90789SOL     OW74263  11.818  11.776   9.997
90789SOL    HW174264  11.893  11.770  10.055
90789SOL    HW274265  11.750  11.819  10.049
90790SOL     OW74266  10.425   9.332   1.450
90790SOL    HW174267  10.341   9.376   1.463
90790SOL    HW274268  10.491   9.396   1.478
90791SOL     OW74269   8.763   3.340  13.433
90791SOL    HW174270   8.847   3.350  13.477
90791SOL    HW274271   8.762   3.250  13.403
90792SOL     OW74272   3.788  12.114  10.481
90792SOL    HW174273   3.777  12.032  10.432
90792SOL    HW274274   3.714  12.168  10.454
90793SOL     OW74275   6.999   2.040   7.606
90793SOL    HW174276   7.058   2.108   7.576
90793SOL    HW274277   7.047   1.958   7.595
90794SOL     OW74278  12.681  10.499   1.789
90794SOL    HW174279  12.588  10.516   1.773
90794SOL    HW274280  12.684  10.407   1.816
90795SOL     OW74281  14.740   4.592   4.691
90795SOL    HW174282  14.777   4.515   4.649
90795SOL    HW274283  14.663   4.559   4.738
90796SOL     OW74284   0.427  13.660  13.908
90796SOL    HW174285   0.464  13.621  13.829
90796SOL    HW274286   0.494  13.645  13.976
90797SOL     OW74287   0.629   5.122   0.047
90797SOL    HW174288   0.598   5.197  14.871
90797SOL    HW274289   0.550   5.082   0.083
90798SOL     OW74290   3.265   3.834   3.202
90798SOL    HW174291   3.321   3.774   3.252
90798SOL    HW274292   3.284   3.814   3.111
90799SOL     OW74293  13.266  14.627  12.319
90799SOL    HW174294  13.179  14.586  12.320
90799SOL    HW274295  13.255  14.706  12.267
90800SOL     OW74296  14.374   2.920   1.370
90800SOL    HW174297  14.322   2.879   1.439
90800SOL    HW274298  14.397   2.848   1.311
90801SOL     OW74299   0.385  13.010  10.207
90801SOL    HW174300   0.332  13.080  10.169
90801SOL    HW274301   0.418  13.047  10.289
90802SOL     OW74302   9.810   8.972  11.027
90802SOL    HW174303   9.905   8.979  11.025
90802SOL    HW274304   9.779   9.063  11.019
90803SOL     OW74305   9.799  13.784   2.586
90803SOL    HW174306   9.771  13.849   2.651
90803SOL    HW274307   9.743  13.708   2.603
90804SOL     OW74308   2.135  14.836  10.222
90804SOL    HW174309   2.143   0.029  10.156
90804SOL    HW274310   2.068  14.777  10.187
90805SOL     OW74311   6.605   9.847   9.431
90805SOL    HW174312   6.670   9.840   9.501
90805SOL    HW274313   6.646   9.905   9.367
90806SOL     OW74314   7.872  10.221  11.510
90806SOL    HW174315   7.922  10.263  11.439
90806SOL    HW274316   7.906  10.132  11.514
90807SOL     OW74317   4.703   4.413   2.032
90807SOL    HW174318   4.626   4.466   2.013
90807SOL    HW274319   4.675   4.352   2.100
90808SOL     OW74320  14.653  11.361   8.163
90808SOL    HW174321  14.611  11.310   8.094
90808SOL    HW274322  14.718  11.414   8.118
90809SOL     OW74323   8.866  12.340   2.282
90809SOL    HW174324   8.800  12.294   2.332
90809SOL    HW274325   8.932  12.366   2.346
90810SOL     OW74326   3.686   5.503   0.563
90810SOL    HW174327   3.631   5.500   0.485
90810SOL    HW274328   3.624   5.517   0.635
90811SOL     OW74329  10.399  13.913   6.275
90811SOL    HW174330  10.432  13.996   6.241
90811SOL    HW274331  10.388  13.928   6.369
90812SOL     OW74332   5.909   9.280  10.310
90812SOL    HW174333   5.863   9.209  10.265
90812SOL    HW274334   5.968   9.316  10.244
90813SOL     OW74335  12.132  12.352   2.643
90813SOL    HW174336  12.076  12.284   2.607
90813SOL    HW274337  12.207  12.356   2.584
90814SOL     OW74338   8.485  13.984   0.910
90814SOL    HW174339   8.446  13.920   0.851
90814SOL    HW274340   8.570  13.946   0.934
90815SOL     OW74341   4.388   1.859   4.392
90815SOL    HW174342   4.465   1.866   4.336
90815SOL    HW274343   4.317   1.898   4.341
90816SOL     OW74344   8.398   7.980   2.610
90816SOL    HW174345   8.488   8.008   2.626
90816SOL    HW274346   8.360   7.969   2.697
90817SOL     OW74347  12.994  10.847   9.416
90817SOL    HW174348  12.940  10.922   9.441
90817SOL    HW274349  12.934  10.790   9.367
90818SOL     OW74350   9.268   1.250  13.778
90818SOL    HW174351   9.174   1.248  13.762
90818SOL    HW274352   9.281   1.320  13.841
90819SOL     OW74353   8.731   9.803  13.904
90819SOL    HW174354   8.642   9.822  13.874
90819SOL    HW274355   8.780   9.884  13.888
90820SOL     OW74356   6.802   6.843   2.074
90820SOL    HW174357   6.877   6.859   2.017
90820SOL    HW274358   6.817   6.755   2.109
90821SOL     OW74359   3.041   5.477   4.148
90821SOL    HW174360   3.043   5.393   4.195
90821SOL    HW274361   3.106   5.466   4.078
90822SOL     OW74362   3.447   4.436  10.702
90822SOL    HW174363   3.507   4.498  10.660
90822SOL    HW274364   3.421   4.479  10.783
90823SOL     OW74365  11.429  14.097   1.752
90823SOL    HW174366  11.378  14.027   1.792
90823SOL    HW274367  11.365  14.165   1.733
90824SOL     OW74368   8.881   9.790  14.283
90824SOL    HW174369   8.860   9.883  14.297
90824SOL    HW274370   8.973   9.782  14.311
90825SOL     OW74371   3.429   6.582  10.901
90825SOL    HW174372   3.458   6.493  10.880
90825SOL    HW274373   3.494   6.614  10.963
90826SOL     OW74374   7.787  13.605   4.132
90826SOL    HW174375   7.752  13.582   4.045
90826SOL    HW274376   7.731  13.676   4.162
90827SOL     OW74377   1.247   2.594   7.607
90827SOL    HW174378   1.333   2.617   7.643
90827SOL    HW274379   1.225   2.510   7.648
90828SOL     OW74380  13.470   8.558  11.944
90828SOL    HW174381  13.543   8.508  11.980
90828SOL    HW274382  13.508   8.643  11.921
90829SOL     OW74383   4.676   2.962   5.840
90829SOL    HW174384   4.698   2.873   5.815
90829SOL    HW274385   4.654   2.956   5.933
90830SOL     OW74386  11.654  14.308  13.581
90830SOL    HW174387  11.565  14.320  13.612
90830SOL    HW274388  11.661  14.363  13.503
90831SOL     OW74389  10.398  11.210   3.720
90831SOL    HW174390  10.467  11.275   3.735
90831SOL    HW274391  10.322  11.245   3.766
90832SOL     OW74392   7.972   1.119   4.157
90832SOL    HW174393   8.011   1.179   4.221
90832SOL    HW274394   7.929   1.177   4.094
90833SOL     OW74395   1.455   3.653   9.598
90833SOL    HW174396   1.419   3.568   9.624
90833SOL    HW274397   1.412   3.716   9.655
90834SOL     OW74398   1.219   0.578   2.143
90834SOL    HW174399   1.157   0.560   2.072
90834SOL    HW274400   1.169   0.630   2.206
90835SOL     OW74401  10.103   1.330   2.376
90835SOL    HW174402  10.143   1.406   2.418
90835SOL    HW274403  10.126   1.256   2.434
90836SOL     OW74404  13.502   1.028   7.995
90836SOL    HW174405  13.485   1.099   7.933
90836SOL    HW274406  13.485   0.948   7.946
90837SOL     OW74407  14.850   1.114   3.423
90837SOL    HW174408  14.802   1.183   3.377
90837SOL    HW274409   0.049   1.159   3.463
90838SOL     OW74410   5.340   3.664   8.074
90838SOL    HW174411   5.384   3.725   8.133
90838SOL    HW274412   5.403   3.593   8.062
90839SOL     OW74413  12.974  14.849   1.458
90839SOL    HW174414  12.992   0.011   1.545
90839SOL    HW274415  12.948   0.049   1.405
90840SOL     OW74416  11.910   6.038   3.143
90840SOL    HW174417  11.894   5.964   3.084
90840SOL    HW274418  11.983   6.084   3.103
90841SOL     OW74419  11.130   2.962  12.460
90841SOL    HW174420  11.126   3.037  12.400
90841SOL    HW274421  11.053   2.972  12.516
90842SOL     OW74422   4.847   6.223   6.101
90842SOL    HW174423   4.912   6.183   6.159
90842SOL    HW274424   4.898   6.282   6.045
90843SOL     OW74425  13.188   9.218  10.268
90843SOL    HW174426  13.276   9.216  10.229
90843SOL    HW274427  13.169   9.311  10.279
90844SOL     OW74428  13.256   1.158   7.352
90844SOL    HW174429  13.191   1.144   7.421
90844SOL    HW274430  13.204   1.167   7.272
90845SOL     OW74431  11.120   9.842  14.580
90845SOL    HW174432  11.038   9.838  14.531
90845SOL    HW274433  11.097   9.885  14.662
90846SOL     OW74434   7.233  12.580   3.489
90846SOL    HW174435   7.144  12.548   3.505
90846SOL    HW274436   7.221  12.674   3.473
90847SOL     OW74437  11.080   8.626  14.297
90847SOL    HW174438  11.054   8.583  14.216
90847SOL    HW274439  11.037   8.576  14.366
90848SOL     OW74440   9.924  11.611   6.469
90848SOL    HW174441   9.934  11.579   6.379
90848SOL    HW274442   9.995  11.569   6.518
90849SOL     OW74443   8.761   1.656  10.883
90849SOL    HW174444   8.702   1.586  10.854
90849SOL    HW274445   8.707   1.735  10.878
90850SOL     OW74446   0.721   3.202   5.993
90850SOL    HW174447   0.801   3.167   5.955
90850SOL    HW274448   0.707   3.286   5.948
90851SOL     OW74449   2.634   0.579   3.443
90851SOL    HW174450   2.691   0.509   3.411
90851SOL    HW274451   2.590   0.542   3.519
90852SOL     OW74452   7.910  10.398   5.071
90852SOL    HW174453   7.934  10.471   5.128
90852SOL    HW274454   7.925  10.320   5.123
90853SOL     OW74455   8.206   6.661  11.396
90853SOL    HW174456   8.137   6.714  11.435
90853SOL    HW274457   8.169   6.573  11.392
90854SOL     OW74458   6.623  14.170   1.852
90854SOL    HW174459   6.577  14.179   1.935
90854SOL    HW274460   6.617  14.076   1.832
90855SOL     OW74461   3.319   4.040   2.143
90855SOL    HW174462   3.342   4.075   2.230
90855SOL    HW274463   3.387   4.074   2.085
90856SOL     OW74464  14.497  11.051   1.894
90856SOL    HW174465  14.403  11.035   1.898
90856SOL    HW274466  14.533  10.997   1.965
90857SOL     OW74467   2.963  10.244   5.718
90857SOL    HW174468   2.977  10.150   5.726
90857SOL    HW274469   3.051  10.282   5.723
90858SOL     OW74470   2.533   1.085   8.985
90858SOL    HW174471   2.587   1.110   9.060
90858SOL    HW274472   2.473   1.159   8.973
90859SOL     OW74473  14.280   7.253  11.208
90859SOL    HW174474  14.320   7.213  11.130
90859SOL    HW274475  14.342   7.235  11.278
90860SOL     OW74476   7.123   0.180   5.754
90860SOL    HW174477   7.207   0.223   5.744
90860SOL    HW274478   7.111   0.131   5.672
90861SOL     OW74479   3.744   9.499   8.341
90861SOL    HW174480   3.721   9.513   8.432
90861SOL    HW274481   3.682   9.553   8.292
90862SOL     OW74482   4.903   1.392   4.926
90862SOL    HW174483   4.826   1.379   4.871
90862SOL    HW274484   4.914   1.487   4.928
90863SOL     OW74485   7.186   9.886   1.112
90863SOL    HW174486   7.103   9.923   1.083
90863SOL    HW274487   7.172   9.791   1.109
90864SOL     OW74488   4.479   5.495   3.552
90864SOL    HW174489   4.532   5.436   3.498
90864SOL    HW274490   4.543   5.547   3.601
90865SOL     OW74491   0.585   5.028  13.763
90865SOL    HW174492   0.589   4.958  13.828
90865SOL    HW274493   0.627   5.103  13.807
90866SOL     OW74494  11.375   3.850   9.707
90866SOL    HW174495  11.378   3.883   9.797
90866SOL    HW274496  11.318   3.911   9.661
90867SOL     OW74497   4.745  12.031  10.891
90867SOL    HW174498   4.788  11.951  10.919
90867SOL    HW274499   4.745  12.087  10.969
90868SOL     OW74500   6.434   0.935   5.503
90868SOL    HW174501   6.366   1.002   5.496
90868SOL    HW274502   6.403   0.876   5.571
90869SOL     OW74503   1.318  13.941  10.147
90869SOL    HW174504   1.392  13.897  10.105
90869SOL    HW274505   1.301  13.890  10.226
90870SOL     OW74506   7.213   3.841   6.702
90870SOL    HW174507   7.171   3.927   6.707
90870SOL    HW274508   7.260   3.841   6.619
90871SOL     OW74509  13.998   0.022  10.299
90871SOL    HW174510  13.934   0.087  10.328
90871SOL    HW274511  13.996  14.830  10.366
90872SOL     OW74512   4.055   9.404   9.228
90872SOL    HW174513   3.961   9.404   9.211
90872SOL    HW274514   4.091   9.470   9.169
90873SOL     OW74515   6.125  14.607   9.467
90873SOL    HW174516   6.178  14.588   9.389
90873SOL    HW274517   6.180  14.665   9.520
90874SOL     OW74518   4.757  10.173   6.859
90874SOL    HW174519   4.681  10.147   6.911
90874SOL    HW274520   4.819  10.101   6.871
90875SOL     OW74521   7.150  11.680   4.812
90875SOL    HW174522   7.116  11.613   4.871
90875SOL    HW274523   7.153  11.636   4.726
90876SOL     OW74524   5.111  11.709   4.489
90876SOL    HW174525   5.049  11.780   4.473
90876SOL    HW274526   5.148  11.728   4.575
90877SOL     OW74527  11.496   1.187  11.513
90877SOL    HW174528  11.471   1.262  11.567
90877SOL    HW274529  11.538   1.126  11.573
90878SOL     OW74530  13.324  11.804  13.757
90878SOL    HW174531  13.369  11.873  13.805
90878SOL    HW274532  13.392  11.761  13.705
90879SOL     OW74533  10.621   6.773   0.145
90879SOL    HW174534  10.543   6.820   0.116
90879SOL    HW274535  10.676   6.841   0.185
90880SOL     OW74536   3.534   8.911   3.276
90880SOL    HW174537   3.456   8.945   3.319
90880SOL    HW274538   3.501   8.857   3.204
90881SOL     OW74539   5.337  11.484  13.925
90881SOL    HW174540   5.385  11.531  13.993
90881SOL    HW274541   5.258  11.453  13.969
90882SOL     OW74542  13.688   3.504   9.202
90882SOL    HW174543  13.675   3.520   9.295
90882SOL    HW274544  13.726   3.585   9.169
90883SOL     OW74545   2.033   6.842   5.157
90883SOL    HW174546   2.116   6.808   5.124
90883SOL    HW274547   1.985   6.764   5.187
90884SOL     OW74548   3.103   8.233  13.436
90884SOL    HW174549   3.178   8.259  13.383
90884SOL    HW274550   3.027   8.271  13.393
90885SOL     OW74551   5.098   1.724  12.379
90885SOL    HW174552   5.179   1.752  12.423
90885SOL    HW274553   5.119   1.729  12.286
90886SOL     OW74554   1.360   3.942   7.674
90886SOL    HW174555   1.316   3.952   7.758
90886SOL    HW274556   1.337   4.020   7.624
90887SOL     OW74557   3.125  12.861   0.046
90887SOL    HW174558   3.172  12.919   0.106
90887SOL    HW274559   3.192  12.802   0.012
90888SOL     OW74560   8.870   9.024   8.962
90888SOL    HW174561   8.776   9.005   8.956
90888SOL    HW274562   8.912   8.956   8.909
90889SOL     OW74563   6.398   0.949  14.555
90889SOL    HW174564   6.343   1.025  14.536
90889SOL    HW274565   6.397   0.941  14.650
90890SOL     OW74566  11.657   2.334  10.402
90890SOL    HW174567  11.679   2.373  10.317
90890SOL    HW274568  11.568   2.366  10.420
90891SOL     OW74569   7.946   4.424   5.283
90891SOL    HW174570   8.018   4.363   5.264
90891SOL    HW274571   7.872   4.390   5.231
90892SOL     OW74572  13.081   1.183   4.677
90892SOL    HW174573  12.999   1.211   4.717
90892SOL    HW274574  13.056   1.114   4.616
90893SOL     OW74575  13.847   2.438   5.919
90893SOL    HW174576  13.860   2.380   5.844
90893SOL    HW274577  13.900   2.399   5.989
90894SOL     OW74578   6.533   5.530   6.838
90894SOL    HW174579   6.462   5.582   6.801
90894SOL    HW274580   6.494   5.486   6.913
90895SOL     OW74581  13.087   9.896  12.557
90895SOL    HW174582  13.000   9.858  12.546
90895SOL    HW274583  13.078   9.957  12.630
90896SOL     OW74584   7.139   9.161   5.403
90896SOL    HW174585   7.086   9.207   5.339
90896SOL    HW274586   7.087   9.084   5.426
90897SOL     OW74587   3.265   4.589   4.140
90897SOL    HW174588   3.300   4.647   4.208
90897SOL    HW274589   3.293   4.502   4.168
90898SOL     OW74590   0.574   7.736   0.912
90898SOL    HW174591   0.503   7.787   0.874
90898SOL    HW274592   0.633   7.802   0.950
90899SOL     OW74593   0.335  12.075   8.933
90899SOL    HW174594   0.270  12.057   8.865
90899SOL    HW274595   0.299  12.149   8.982
90900SOL     OW74596   2.405   1.849   3.790
90900SOL    HW174597   2.483   1.799   3.815
90900SOL    HW274598   2.408   1.853   3.695
90901SOL     OW74599   0.610   2.903  14.751
90901SOL    HW174600   0.608   2.972  14.817
90901SOL    HW274601   0.520   2.898  14.718
90902SOL     OW74602  14.578  13.415  10.646
90902SOL    HW174603  14.524  13.398  10.723
90902SOL    HW274604  14.632  13.336  10.636
90903SOL     OW74605   5.906   2.864  12.708
90903SOL    HW174606   5.852   2.869  12.630
90903SOL    HW274607   5.985   2.914  12.686
90904SOL     OW74608  13.129   6.038  13.132
90904SOL    HW174609  13.121   5.968  13.068
90904SOL    HW274610  13.061   6.101  13.107
90905SOL     OW74611   8.619  12.792  13.601
90905SOL    HW174612   8.667  12.805  13.683
90905SOL    HW274613   8.575  12.708  13.612
90906SOL     OW74614  11.031   1.490   6.330
90906SOL    HW174615  10.972   1.478   6.404
90906SOL    HW274616  11.069   1.403   6.316
90907SOL     OW74617   9.256   5.761  12.139
90907SOL    HW174618   9.323   5.693  12.127
90907SOL    HW274619   9.261   5.813  12.059
90908SOL     OW74620  13.203   1.723  10.201
90908SOL    HW174621  13.188   1.682  10.286
90908SOL    HW274622  13.276   1.784  10.216
90909SOL     OW74623   0.642   5.920   9.718
90909SOL    HW174624   0.670   6.010   9.702
90909SOL    HW274625   0.724   5.871   9.724
90910SOL     OW74626   9.824   0.156   2.134
90910SOL    HW174627   9.771   0.228   2.102
90910SOL    HW274628   9.779   0.127   2.214
90911SOL     OW74629   1.379   4.953   5.584
90911SOL    HW174630   1.322   5.030   5.590
90911SOL    HW274631   1.417   4.957   5.496
90912SOL     OW74632   1.414   2.068   2.218
90912SOL    HW174633   1.420   2.155   2.257
90912SOL    HW274634   1.488   2.020   2.256
90913SOL     OW74635   1.989   1.539   6.392
90913SOL    HW174636   2.065   1.596   6.380
90913SOL    HW274637   1.923   1.573   6.332
90914SOL     OW74638   0.600   7.706  11.174
90914SOL    HW174639   0.516   7.746  11.150
90914SOL    HW274640   0.585   7.669  11.261
90915SOL     OW74641  12.687   2.084  12.067
90915SOL    HW174642  12.696   2.086  11.972
90915SOL    HW274643  12.690   2.175  12.094
90916SOL     OW74644  14.827   3.601   3.806
90916SOL    HW174645  14.745   3.586   3.851
90916SOL    HW274646   0.016   3.615   3.876
90917SOL     OW74647   9.414  14.126  11.731
90917SOL    HW174648   9.473  14.112  11.805
90917SOL    HW274649   9.412  14.221  11.719
90918SOL     OW74650   9.286   7.936   3.122
90918SOL    HW174651   9.308   7.945   3.029
90918SOL    HW274652   9.281   8.026   3.155
90919SOL     OW74653   9.211   1.786  14.582
90919SOL    HW174654   9.186   1.702  14.544
90919SOL    HW274655   9.299   1.771  14.617
90920SOL     OW74656  13.527  14.739  14.011
90920SOL    HW174657  13.570  14.658  14.039
90920SOL    HW274658  13.496  14.720  13.922
90921SOL     OW74659  10.765   8.201   5.277
90921SOL    HW174660  10.727   8.288   5.293
90921SOL    HW274661  10.803   8.176   5.361
90922SOL     OW74662  10.317   8.670  11.772
90922SOL    HW174663  10.284   8.718  11.696
90922SOL    HW274664  10.396   8.718  11.797
90923SOL     OW74665   4.333   2.817   9.682
90923SOL    HW174666   4.272   2.745   9.696
90923SOL    HW274667   4.281   2.896   9.700
90924SOL     OW74668   9.842   6.579  12.283
90924SOL    HW174669   9.796   6.614  12.207
90924SOL    HW274670   9.815   6.635  12.355
90925SOL     OW74671   7.688  14.569  10.000
90925SOL    HW174672   7.661  14.647  10.048
90925SOL    HW274673   7.656  14.583   9.911
90926SOL     OW74674   6.820  12.997   1.013
90926SOL    HW174675   6.749  13.046   0.972
90926SOL    HW274676   6.782  12.959   1.091
90927SOL     OW74677   6.124   3.397  10.937
90927SOL    HW174678   6.109   3.355  11.021
90927SOL    HW274679   6.181   3.471  10.956
90928SOL     OW74680  14.137   7.293   4.905
90928SOL    HW174681  14.143   7.284   5.000
90928SOL    HW274682  14.097   7.211   4.875
90929SOL     OW74683   8.815   1.438   6.191
90929SOL    HW174684   8.746   1.420   6.255
90929SOL    HW274685   8.772   1.491   6.123
90930SOL     OW74686  13.845   8.899   5.347
90930SOL    HW174687  13.810   8.973   5.298
90930SOL    HW274688  13.931   8.929   5.377
90931SOL     OW74689   5.362   4.494   7.100
90931SOL    HW174690   5.358   4.545   7.019
90931SOL    HW274691   5.414   4.547   7.160
90932SOL     OW74692  14.738   3.246  12.541
90932SOL    HW174693  14.794   3.282  12.473
90932SOL    HW274694  14.650   3.276  12.518
90933SOL     OW74695   5.419   6.516   7.409
90933SOL    HW174696   5.413   6.438   7.463
90933SOL    HW274697   5.455   6.583   7.466
90934SOL     OW74698  11.299   7.224   7.620
90934SOL    HW174699  11.227   7.180   7.666
90934SOL    HW274700  11.348   7.270   7.688
90935SOL     OW74701   4.220   3.506   2.024
90935SOL    HW174702   4.299   3.538   1.981
90935SOL    HW274703   4.167   3.469   1.953
90936SOL     OW74704   8.789  13.651  11.019
90936SOL    HW174705   8.813  13.563  11.048
90936SOL    HW274706   8.870  13.701  11.027
90937SOL     OW74707   1.750   2.185  11.834
90937SOL    HW174708   1.821   2.192  11.898
90937SOL    HW274709   1.733   2.276  11.807
90938SOL     OW74710   6.864   2.227  14.773
90938SOL    HW174711   6.814   2.285  14.829
90938SOL    HW274712   6.798   2.178  14.724
90939SOL     OW74713  12.399  10.078   9.230
90939SOL    HW174714  12.398  10.172   9.213
90939SOL    HW274715  12.307  10.054   9.239
90940SOL     OW74716  11.558   5.901   6.221
90940SOL    HW174717  11.622   5.968   6.196
90940SOL    HW274718  11.504   5.888   6.143
90941SOL     OW74719   6.276  10.403   2.827
90941SOL    HW174720   6.275  10.363   2.740
90941SOL    HW274721   6.235  10.337   2.884
90942SOL     OW74722  13.535   1.120   8.245
90942SOL    HW174723  13.505   1.040   8.288
90942SOL    HW274724  13.550   1.094   8.154
90943SOL     OW74725   9.542   8.472  10.336
90943SOL    HW174726   9.511   8.401  10.279
90943SOL    HW274727   9.628   8.444  10.366
90944SOL     OW74728   7.212  10.689   3.078
90944SOL    HW174729   7.124  10.682   3.116
90944SOL    HW274730   7.198  10.734   2.994
90945SOL     OW74731  13.123  12.701   9.118
90945SOL    HW174732  13.150  12.756   9.192
90945SOL    HW274733  13.032  12.727   9.102
90946SOL     OW74734  10.452   1.528   8.455
90946SOL    HW174735  10.436   1.620   8.477
90946SOL    HW274736  10.492   1.532   8.368
90947SOL     OW74737   9.526   3.443   8.237
90947SOL    HW174738   9.600   3.497   8.208
90947SOL    HW274739   9.474   3.431   8.158
90948SOL     OW74740   7.923   4.181   9.257
90948SOL    HW174741   7.968   4.214   9.335
90948SOL    HW274742   7.936   4.086   9.261
90949SOL     OW74743   7.372   8.008   1.904
90949SOL    HW174744   7.355   8.088   1.854
90949SOL    HW274745   7.288   7.963   1.907
90950SOL     OW74746   6.242   6.824   8.323
90950SOL    HW174747   6.183   6.850   8.252
90950SOL    HW274748   6.235   6.729   8.327
90951SOL     OW74749   0.870   5.557   5.192
90951SOL    HW174750   0.939   5.494   5.216
90951SOL    HW274751   0.820   5.513   5.124
90952SOL     OW74752  12.834  10.299   2.188
90952SOL    HW174753  12.851  10.217   2.143
90952SOL    HW274754  12.906  10.356   2.164
90953SOL     OW74755  14.428   5.928   8.072
90953SOL    HW174756  14.459   5.994   8.134
90953SOL    HW274757  14.470   5.952   7.989
90954SOL     OW74758   2.821   3.163  10.569
90954SOL    HW174759   2.782   3.100  10.508
90954SOL    HW274760   2.842   3.110  10.646
90955SOL     OW74761   6.743   1.412  12.200
90955SOL    HW174762   6.774   1.441  12.115
90955SOL    HW274763   6.674   1.475  12.224
90956SOL     OW74764  10.741   7.441   9.939
90956SOL    HW174765  10.827   7.447   9.897
90956SOL    HW274766  10.699   7.525   9.921
90957SOL     OW74767   7.257  10.814  10.194
90957SOL    HW174768   7.249  10.727  10.235
90957SOL    HW274769   7.271  10.873  10.268
90958SOL     OW74770   7.313   7.131  14.725
90958SOL    HW174771   7.326   7.063  14.658
90958SOL    HW274772   7.260   7.198  14.681
90959SOL     OW74773   8.374   0.504   8.830
90959SOL    HW174774   8.457   0.541   8.858
90959SOL    HW274775   8.347   0.447   8.903
90960SOL     OW74776  10.623   1.722  13.034
90960SOL    HW174777  10.596   1.657  12.969
90960SOL    HW274778  10.718   1.724  13.029
90961SOL     OW74779   7.317   3.538   2.937
90961SOL    HW174780   7.277   3.586   3.009
90961SOL    HW274781   7.327   3.603   2.867
90962SOL     OW74782   1.386  10.311   9.595
90962SOL    HW174783   1.374  10.368   9.671
90962SOL    HW274784   1.417  10.370   9.526
90963SOL     OW74785  14.689   9.705  10.823
90963SOL    HW174786  14.596   9.730  10.827
90963SOL    HW274787  14.688   9.611  10.841
90964SOL     OW74788   3.795   7.350   0.537
90964SOL    HW174789   3.820   7.438   0.565
90964SOL    HW274790   3.878   7.302   0.533
90965SOL     OW74791   7.818  11.626   8.513
90965SOL    HW174792   7.850  11.715   8.492
90965SOL    HW274793   7.832  11.577   8.432
90966SOL     OW74794   2.446   0.968   3.409
90966SOL    HW174795   2.406   0.896   3.360
90966SOL    HW274796   2.506   1.008   3.347
90967SOL     OW74797   3.822   6.739   9.754
90967SOL    HW174798   3.738   6.695   9.751
90967SOL    HW274799   3.833   6.775   9.666
90968SOL     OW74800   9.672   1.302   2.145
90968SOL    HW174801   9.733   1.323   2.216
90968SOL    HW274802   9.630   1.221   2.172
90969SOL     OW74803   1.464  11.592   6.118
90969SOL    HW174804   1.473  11.646   6.040
90969SOL    HW274805   1.419  11.512   6.088
90970SOL     OW74806   4.220  14.464   6.278
90970SOL    HW174807   4.200  14.371   6.291
90970SOL    HW274808   4.173  14.508   6.349
90971SOL     OW74809   4.802   4.379  10.238
90971SOL    HW174810   4.862   4.453  10.231
90971SOL    HW274811   4.838   4.325  10.308
90972SOL     OW74812   5.265  11.032  10.839
90972SOL    HW174813   5.330  11.081  10.889
90972SOL    HW274814   5.315  10.991  10.769
90973SOL     OW74815   0.793  11.658   9.698
90973SOL    HW174816   0.716  11.688   9.649
90973SOL    HW274817   0.838  11.599   9.637
90974SOL     OW74818   0.711   5.717   3.667
90974SOL    HW174819   0.795   5.729   3.622
90974SOL    HW274820   0.675   5.805   3.676
90975SOL     OW74821   2.023   0.339   1.928
90975SOL    HW174822   2.011   0.431   1.951
90975SOL    HW274823   2.104   0.337   1.877
90976SOL     OW74824  12.307   7.404  10.332
90976SOL    HW174825  12.245   7.412  10.404
90976SOL    HW274826  12.315   7.493  10.297
90977SOL     OW74827   5.518  13.245   7.252
90977SOL    HW174828   5.535  13.159   7.289
90977SOL    HW274829   5.491  13.227   7.162
90978SOL     OW74830   7.378  11.119   4.814
90978SOL    HW174831   7.471  11.120   4.794
90978SOL    HW274832   7.340  11.057   4.752
90979SOL     OW74833  14.728   8.839   0.529
90979SOL    HW174834  14.785   8.806   0.598
90979SOL    HW274835  14.661   8.890   0.576
90980SOL     OW74836   2.418  10.776   8.445
90980SOL    HW174837   2.464  10.855   8.418
90980SOL    HW274838   2.431  10.715   8.372
90981SOL     OW74839   2.506  12.216   6.621
90981SOL    HW174840   2.431  12.172   6.580
90981SOL    HW274841   2.516  12.172   6.705
90982SOL     OW74842   0.043   7.090  11.434
90982SOL    HW174843   0.083   7.041  11.506
90982SOL    HW274844  14.835   7.046  11.417
90983SOL     OW74845   5.033   7.780  12.925
90983SOL    HW174846   5.072   7.748  13.007
90983SOL    HW274847   4.939   7.765  12.936
90984SOL     OW74848   5.002  12.399   4.275
90984SOL    HW174849   4.997  12.310   4.239
90984SOL    HW274850   4.988  12.456   4.200
90985SOL     OW74851  12.724  12.516   2.424
90985SOL    HW174852  12.691  12.438   2.470
90985SOL    HW274853  12.673  12.588   2.460
90986SOL     OW74854   2.550  12.803  10.983
90986SOL    HW174855   2.571  12.796  11.076
90986SOL    HW274856   2.589  12.886  10.956
90987SOL     OW74857  14.867   4.360   4.592
90987SOL    HW174858   0.030   4.295   4.533
90987SOL    HW274859   0.059   4.373   4.660
90988SOL     OW74860  13.795   0.449   8.023
90988SOL    HW174861  13.761   0.523   7.973
90988SOL    HW274862  13.733   0.378   8.006
90989SOL     OW74863   2.768   7.136  11.680
90989SOL    HW174864   2.709   7.193  11.729
90989SOL    HW274865   2.793   7.188  11.604
90990SOL     OW74866   2.035   9.209   5.946
90990SOL    HW174867   2.011   9.299   5.928
90990SOL    HW274868   2.025   9.164   5.862
90991SOL     OW74869  12.086  12.809   3.436
90991SOL    HW174870  12.142  12.759   3.495
90991SOL    HW274871  12.042  12.743   3.382
90992SOL     OW74872  14.666   7.906   1.341
90992SOL    HW174873  14.752   7.929   1.377
90992SOL    HW274874  14.686   7.863   1.258
90993SOL     OW74875  10.071   4.912   6.634
90993SOL    HW174876  10.097   5.002   6.614
90993SOL    HW274877   9.976   4.916   6.643
90994SOL     OW74878   1.037  12.733   6.446
90994SOL    HW174879   1.106  12.793   6.475
90994SOL    HW274880   1.043  12.734   6.350
90995SOL     OW74881   3.912   8.080   3.806
90995SOL    HW174882   4.002   8.112   3.806
90995SOL    HW274883   3.920   7.985   3.806
90996SOL     OW74884   7.312   6.935  10.359
90996SOL    HW174885   7.268   6.851  10.362
90996SOL    HW274886   7.405   6.913  10.357
90997SOL     OW74887  10.055   0.235   0.274
90997SOL    HW174888  10.078   0.168   0.209
90997SOL    HW274889  10.104   0.210   0.352
90998SOL     OW74890   6.177   3.920   6.746
90998SOL    HW174891   6.090   3.958   6.738
90998SOL    HW274892   6.185   3.897   6.839
90999SOL     OW74893   8.462   1.085   4.357
90999SOL    HW174894   8.519   1.076   4.432
90999SOL    HW274895   8.508   1.041   4.286
91000SOL     OW74896   4.279   8.263   8.128
91000SOL    HW174897   4.253   8.183   8.175
91000SOL    HW274898   4.276   8.238   8.035
91001SOL     OW74899   2.754  12.289   4.738
91001SOL    HW174900   2.743  12.338   4.657
91001SOL    HW274901   2.708  12.207   4.723
91002SOL     OW74902   1.038   1.951  11.430
91002SOL    HW174903   1.045   1.944  11.335
91002SOL    HW274904   1.082   1.872  11.463
91003SOL     OW74905   7.921   8.467   3.341
91003SOL    HW174906   7.999   8.420   3.370
91003SOL    HW274907   7.920   8.456   3.246
91004SOL     OW74908   6.249   3.355   1.392
91004SOL    HW174909   6.156   3.380   1.397
91004SOL    HW274910   6.251   3.265   1.424
91005SOL     OW74911   2.833   3.148  13.412
91005SOL    HW174912   2.900   3.210  13.385
91005SOL    HW274913   2.838   3.146  13.507
91006SOL     OW74914   2.127   5.996   2.176
91006SOL    HW174915   2.083   6.027   2.097
91006SOL    HW274916   2.112   6.065   2.241
91007SOL     OW74917   3.455  10.264  13.540
91007SOL    HW174918   3.526  10.200  13.541
91007SOL    HW274919   3.411  10.252  13.624
91008SOL     OW74920  11.545   5.453  14.341
91008SOL    HW174921  11.582   5.367  14.317
91008SOL    HW274922  11.455   5.450  14.308
91009SOL     OW74923  11.639   0.741   7.217
91009SOL    HW174924  11.701   0.714   7.149
91009SOL    HW274925  11.676   0.822   7.252
91010SOL     OW74926   4.548   7.767   7.131
91010SOL    HW174927   4.459   7.802   7.129
91010SOL    HW274928   4.562   7.741   7.222
91011SOL     OW74929  10.224   2.668   4.852
91011SOL    HW174930  10.175   2.685   4.933
91011SOL    HW274931  10.307   2.714   4.865
91012SOL     OW74932  11.846  12.200   3.522
91012SOL    HW174933  11.800  12.283   3.537
91012SOL    HW274934  11.786  12.133   3.556
91013SOL     OW74935   4.135   7.527   2.723
91013SOL    HW174936   4.133   7.604   2.781
91013SOL    HW274937   4.224   7.528   2.686
91014SOL     OW74938   3.262   4.636   7.430
91014SOL    HW174939   3.239   4.703   7.364
91014SOL    HW274940   3.279   4.557   7.379
91015SOL     OW74941   9.715   6.199   2.140
91015SOL    HW174942   9.796   6.154   2.116
91015SOL    HW274943   9.705   6.268   2.074
91016SOL     OW74944   0.023   5.591   0.760
91016SOL    HW174945   0.013   5.496   0.759
91016SOL    HW274946  14.839   5.622   0.691
91017SOL     OW74947  12.324  12.143   5.039
91017SOL    HW174948  12.397  12.097   4.998
91017SOL    HW274949  12.362  12.184   5.116
91018SOL     OW74950   3.953  11.896   4.418
91018SOL    HW174951   3.893  11.921   4.349
91018SOL    HW274952   4.040  11.916   4.383
91019SOL     OW74953   2.860   5.701  10.581
91019SOL    HW174954   2.869   5.648  10.502
91019SOL    HW274955   2.766   5.719  10.586
91020SOL     OW74956   2.350   8.289  11.693
91020SOL    HW174957   2.393   8.275  11.609
91020SOL    HW274958   2.363   8.382  11.712
91021SOL     OW74959   1.419   2.098  12.707
91021SOL    HW174960   1.366   2.153  12.650
91021SOL    HW274961   1.395   2.008  12.685
91022SOL     OW74962   4.020   7.169   1.554
91022SOL    HW174963   4.071   7.144   1.632
91022SOL    HW274964   3.929   7.169   1.584
91023SOL     OW74965  10.902   1.126   0.147
91023SOL    HW174966  10.807   1.113   0.153
91023SOL    HW274967  10.935   1.044   0.110
91024SOL     OW74968   8.117   6.725  13.622
91024SOL    HW174969   8.047   6.752  13.682
91024SOL    HW274970   8.113   6.787  13.550
91025SOL     OW74971   0.282   8.264   9.959
91025SOL    HW174972   0.250   8.329  10.021
91025SOL    HW274973   0.343   8.211  10.009
91026SOL     OW74974   9.198   5.243   3.604
91026SOL    HW174975   9.115   5.287   3.591
91026SOL    HW274976   9.185   5.191   3.684
91027SOL     OW74977  12.518  11.313   5.699
91027SOL    HW174978  12.480  11.239   5.747
91027SOL    HW274979  12.460  11.386   5.718
91028SOL     OW74980   8.632  13.233   4.229
91028SOL    HW174981   8.623  13.306   4.167
91028SOL    HW274982   8.598  13.268   4.312
91029SOL     OW74983   9.211   2.780  13.620
91029SOL    HW174984   9.192   2.820  13.535
91029SOL    HW274985   9.152   2.824  13.681
91030SOL     OW74986  12.764  10.351   3.869
91030SOL    HW174987  12.846  10.397   3.852
91030SOL    HW274988  12.779  10.262   3.837
91031SOL     OW74989   6.546   9.839   7.263
91031SOL    HW174990   6.631   9.843   7.306
91031SOL    HW274991   6.544   9.915   7.204
91032SOL     OW74992  11.834  13.003  13.542
91032SOL    HW174993  11.882  12.921  13.553
91032SOL    HW274994  11.767  12.984  13.476
91033SOL     OW74995   2.072   2.659   0.851
91033SOL    HW174996   2.099   2.652   0.759
91033SOL    HW274997   2.106   2.743   0.879
91034SOL     OW74998  14.101   8.641   9.211
91034SOL    HW174999  14.135   8.552   9.198
91034SOL    HW275000  14.174   8.698   9.190
91035SOL     OW75001   8.145  11.356   9.705
91035SOL    HW175002   8.058  11.395   9.714
91035SOL    HW275003   8.169  11.329   9.793
91036SOL     OW75004  12.763   0.194   3.452
91036SOL    HW175005  12.726   0.188   3.364
91036SOL    HW275006  12.687   0.205   3.510
91037SOL     OW75007   3.379   0.652   1.247
91037SOL    HW175008   3.352   0.710   1.318
91037SOL    HW275009   3.415   0.711   1.180
91038SOL     OW75010   0.276  14.790  14.203
91038SOL    HW175011   0.186  14.762  14.188
91038SOL    HW275012   0.310  14.729  14.268
91039SOL     OW75013   1.985   0.633   9.645
91039SOL    HW175014   2.079   0.625   9.661
91039SOL    HW275015   1.960   0.715   9.688
91040SOL     OW75016  13.783   5.941   3.749
91040SOL    HW175017  13.860   5.943   3.693
91040SOL    HW275018  13.779   5.851   3.780
91041SOL     OW75019   9.930   8.033  14.383
91041SOL    HW175020  10.009   7.985  14.407
91041SOL    HW275021   9.962   8.113  14.341
91042SOL     OW75022  14.590   6.583  13.388
91042SOL    HW175023  14.495   6.572  13.400
91042SOL    HW275024  14.599   6.668  13.344
91043SOL     OW75025   8.253  12.856   1.671
91043SOL    HW175026   8.338  12.892   1.695
91043SOL    HW275027   8.265  12.761   1.674
91044SOL     OW75028   4.365   0.015  12.978
91044SOL    HW175029   4.310   0.038  13.053
91044SOL    HW275030   4.309   0.030  12.902
91045SOL     OW75031  10.584   6.681   0.542
91045SOL    HW175032  10.650   6.616   0.567
91045SOL    HW275033  10.633   6.762   0.530
91046SOL     OW75034   6.337  14.291   5.552
91046SOL    HW175035   6.342  14.238   5.631
91046SOL    HW275036   6.381  14.373   5.574
91047SOL     OW75037   3.487  13.548  13.340
91047SOL    HW175038   3.394  13.534  13.324
91047SOL    HW275039   3.517  13.467  13.382
91048SOL     OW75040   0.811   1.105   7.353
91048SOL    HW175041   0.720   1.111   7.322
91048SOL    HW275042   0.806   1.131   7.445
91049SOL     OW75043   2.888  14.833   0.080
91049SOL    HW175044   2.944  14.764   0.115
91049SOL    HW275045   2.799  14.802   0.094
91050SOL     OW75046   7.888  13.800   8.885
91050SOL    HW175047   7.810  13.745   8.879
91050SOL    HW275048   7.861  13.883   8.847
91051SOL     OW75049   0.962  10.408  13.954
91051SOL    HW175050   1.052  10.404  13.984
91051SOL    HW275051   0.928  10.490  13.990
91052SOL     OW75052   9.460   6.749   6.754
91052SOL    HW175053   9.385   6.710   6.709
91052SOL    HW275054   9.517   6.675   6.774
91053SOL     OW75055   8.034  10.059   3.469
91053SOL    HW175056   7.949  10.020   3.489
91053SOL    HW275057   8.018  10.111   3.390
91054SOL     OW75058  11.376  13.374   0.616
91054SOL    HW175059  11.456  13.421   0.639
91054SOL    HW275060  11.321  13.439   0.573
91055SOL     OW75061   2.973   0.984   1.231
91055SOL    HW175062   2.956   0.936   1.312
91055SOL    HW275063   2.979   1.076   1.259
91056SOL     OW75064   0.877  12.926   7.671
91056SOL    HW175065   0.787  12.931   7.703
91056SOL    HW275066   0.870  12.946   7.577
91057SOL     OW75067  14.410   4.388  14.425
91057SOL    HW175068  14.494   4.364  14.385
91057SOL    HW275069  14.409   4.342  14.509
91058SOL     OW75070   0.389  10.485   8.415
91058SOL    HW175071   0.348  10.399   8.421
91058SOL    HW275072   0.367  10.517   8.328
91059SOL     OW75073   0.580  11.690   1.705
91059SOL    HW175074   0.493  11.719   1.734
91059SOL    HW275075   0.583  11.597   1.727
91060SOL     OW75076   5.818  12.971  12.893
91060SOL    HW175077   5.867  13.015  12.962
91060SOL    HW275078   5.741  12.935  12.938
91061SOL     OW75079  13.449   0.970  12.767
91061SOL    HW175080  13.494   0.894  12.803
91061SOL    HW275081  13.461   0.962  12.672
91062SOL     OW75082   3.229   6.867  13.167
91062SOL    HW175083   3.210   6.960  13.173
91062SOL    HW275084   3.317   6.858  13.203
91063SOL     OW75085   0.338  14.101  12.574
91063SOL    HW175086   0.310  14.186  12.609
91063SOL    HW275087   0.429  14.114  12.550
91064SOL     OW75088  12.887  11.042   3.730
91064SOL    HW175089  12.900  11.084   3.815
91064SOL    HW275090  12.925  11.104   3.667
91065SOL     OW75091   4.242   2.050  14.741
91065SOL    HW175092   4.177   2.047  14.671
91065SOL    HW275093   4.302   1.978  14.722
91066SOL     OW75094   9.976   8.432   7.565
91066SOL    HW175095  10.066   8.448   7.536
91066SOL    HW275096   9.950   8.511   7.612
91067SOL     OW75097   0.254   6.429   3.384
91067SOL    HW175098   0.342   6.430   3.345
91067SOL    HW275099   0.206   6.495   3.334
91068SOL     OW75100  10.424   0.352   6.072
91068SOL    HW175101  10.399   0.407   6.147
91068SOL    HW275102  10.369   0.274   6.081
91069SOL     OW75103   8.877  13.991   4.375
91069SOL    HW175104   8.967  13.981   4.346
91069SOL    HW275105   8.831  14.028   4.300
91070SOL     OW75106  13.255  13.472   5.304
91070SOL    HW175107  13.195  13.533   5.346
91070SOL    HW275108  13.198  13.403   5.270
91071SOL     OW75109  12.992   5.245   5.972
91071SOL    HW175110  12.999   5.252   6.068
91071SOL    HW275111  13.055   5.178   5.948
91072SOL     OW75112   9.126  12.199   3.097
91072SOL    HW175113   9.038  12.184   3.133
91072SOL    HW275114   9.169  12.255   3.162
91073SOL     OW75115   3.055   6.571   3.197
91073SOL    HW175116   3.134   6.517   3.192
91073SOL    HW275117   3.000   6.526   3.261
91074SOL     OW75118   5.129   8.763   7.336
91074SOL    HW175119   5.180   8.682   7.350
91074SOL    HW275120   5.146   8.786   7.245
91075SOL     OW75121   7.900   8.893   4.075
91075SOL    HW175122   7.970   8.958   4.063
91075SOL    HW275123   7.859   8.918   4.158
91076SOL     OW75124   7.565   9.753  12.609
91076SOL    HW175125   7.480   9.774  12.646
91076SOL    HW275126   7.583   9.664  12.639
91077SOL     OW75127   9.741   1.326   3.114
91077SOL    HW175128   9.656   1.341   3.072
91077SOL    HW275129   9.793   1.402   3.091
91078SOL     OW75130   7.727   0.226  14.777
91078SOL    HW175131   7.703   0.135  14.764
91078SOL    HW275132   7.806   0.238  14.724
91079SOL     OW75133  11.782   4.865   4.450
91079SOL    HW175134  11.818   4.912   4.374
91079SOL    HW275135  11.769   4.775   4.418
91080SOL     OW75136   4.489  10.496   4.913
91080SOL    HW175137   4.471  10.584   4.947
91080SOL    HW275138   4.472  10.503   4.819
91081SOL     OW75139  13.141   1.731   6.742
91081SOL    HW175140  13.163   1.824   6.744
91081SOL    HW275141  13.136   1.710   6.649
91082SOL     OW75142  12.889   6.187   5.931
91082SOL    HW175143  12.813   6.131   5.946
91082SOL    HW275144  12.852   6.274   5.918
91083SOL     OW75145  11.475   3.328   6.323
91083SOL    HW175146  11.389   3.370   6.326
91083SOL    HW275147  11.456   3.237   6.299
91084SOL     OW75148   8.995  13.559  10.608
91084SOL    HW175149   8.994  13.585  10.516
91084SOL    HW275150   8.921  13.606  10.647
91085SOL     OW75151  10.329   5.069   5.753
91085SOL    HW175152  10.311   5.049   5.845
91085SOL    HW275153  10.419   5.103   5.753
91086SOL     OW75154   3.164  10.468   5.604
91086SOL    HW175155   3.177  10.550   5.556
91086SOL    HW275156   3.079  10.477   5.646
91087SOL     OW75157  11.319   1.327   3.010
91087SOL    HW175158  11.318   1.284   3.095
91087SOL    HW275159  11.330   1.256   2.947
91088SOL     OW75160   6.360  14.331   7.276
91088SOL    HW175161   6.270  14.364   7.274
91088SOL    HW275162   6.400  14.378   7.349
91089SOL     OW75163  14.544  12.922  14.172
91089SOL    HW175164  14.452  12.943  14.151
91089SOL    HW275165  14.579  12.886  14.090
91090SOL     OW75166   7.475  12.972   4.726
91090SOL    HW175167   7.518  12.935   4.803
91090SOL    HW275168   7.547  12.999   4.668
91091SOL     OW75169   4.415   6.318   0.741
91091SOL    HW175170   4.455   6.303   0.827
91091SOL    HW275171   4.323   6.338   0.762
91092SOL     OW75172   4.909  11.764  10.920
91092SOL    HW175173   4.931  11.672  10.935
91092SOL    HW275174   4.917  11.805  11.007
91093SOL     OW75175  11.495   7.650   1.354
91093SOL    HW175176  11.567   7.654   1.291
91093SOL    HW275177  11.418   7.677   1.304
91094SOL     OW75178   5.789   9.179   3.901
91094SOL    HW175179   5.714   9.220   3.857
91094SOL    HW275180   5.844   9.252   3.928
91095SOL     OW75181   1.098   9.571   3.636
91095SOL    HW175182   1.172   9.603   3.687
91095SOL    HW275183   1.136   9.506   3.577
91096SOL     OW75184   0.293   1.376   3.122
91096SOL    HW175185   0.361   1.369   3.055
91096SOL    HW275186   0.327   1.440   3.185
91097SOL     OW75187   0.945   1.007   7.012
91097SOL    HW175188   0.861   0.967   7.032
91097SOL    HW275189   0.989   0.943   6.956
91098SOL     OW75190   9.299  14.422   0.963
91098SOL    HW175191   9.236  14.372   1.015
91098SOL    HW275192   9.272  14.408   0.872
91099SOL     OW75193   3.885   1.785   5.508
91099SOL    HW175194   3.955   1.745   5.560
91099SOL    HW275195   3.931   1.838   5.443
91100SOL     OW75196   1.727  11.383   2.770
91100SOL    HW175197   1.688  11.471   2.764
91100SOL    HW275198   1.812  11.398   2.810
91101SOL     OW75199   2.268  13.058  14.273
91101SOL    HW175200   2.276  13.136  14.328
91101SOL    HW275201   2.339  13.001  14.302
91102SOL     OW75202  12.688   1.918   5.305
91102SOL    HW175203  12.768   1.925   5.253
91102SOL    HW275204  12.712   1.861   5.378
91103SOL     OW75205   1.623   1.073  11.123
91103SOL    HW175206   1.659   1.132  11.056
91103SOL    HW275207   1.700   1.044  11.172
91104SOL     OW75208   4.774  12.194   6.273
91104SOL    HW175209   4.756  12.251   6.347
91104SOL    HW275210   4.868  12.178   6.276
91105SOL     OW75211  14.245  14.849  10.196
91105SOL    HW175212  14.209  14.768  10.159
91105SOL    HW275213  14.172   0.012  10.245
91106SOL     OW75214   0.747   3.811   9.321
91106SOL    HW175215   0.722   3.827   9.412
91106SOL    HW275216   0.842   3.827   9.319
91107SOL     OW75217   3.318   8.785   0.260
91107SOL    HW175218   3.299   8.866   0.306
91107SOL    HW275219   3.234   8.739   0.258
91108SOL     OW75220  10.147   1.115   8.660
91108SOL    HW175221  10.176   1.118   8.568
91108SOL    HW275222  10.228   1.111   8.710
91109SOL     OW75223   8.344  11.051   7.925
91109SOL    HW175224   8.289  11.011   7.992
91109SOL    HW275225   8.302  11.028   7.842
91110SOL     OW75226   6.552   6.688   4.572
91110SOL    HW175227   6.461   6.671   4.547
91110SOL    HW275228   6.567   6.779   4.547
91111SOL     OW75229   9.566  11.724   2.212
91111SOL    HW175230   9.638  11.765   2.163
91111SOL    HW275231   9.606  11.694   2.294
91112SOL     OW75232  10.150   2.025   7.632
91112SOL    HW175233  10.121   2.116   7.644
91112SOL    HW275234  10.209   2.029   7.557
91113SOL     OW75235   6.627  14.246   6.487
91113SOL    HW175236   6.714  14.218   6.457
91113SOL    HW275237   6.643  14.290   6.570
91114SOL     OW75238   7.953   1.921   3.027
91114SOL    HW175239   7.999   1.887   3.103
91114SOL    HW275240   7.977   1.861   2.956
91115SOL     OW75241  11.953   8.392   6.556
91115SOL    HW175242  11.887   8.358   6.496
91115SOL    HW275243  11.967   8.482   6.528
91116SOL     OW75244   8.651   1.894   4.117
91116SOL    HW175245   8.620   1.865   4.031
91116SOL    HW275246   8.711   1.966   4.097
91117SOL     OW75247   8.359   7.317   5.716
91117SOL    HW175248   8.275   7.290   5.753
91117SOL    HW275249   8.351   7.297   5.623
91118SOL     OW75250   3.973  14.817   7.740
91118SOL    HW175251   3.878  14.809   7.730
91118SOL    HW275252   3.986   0.027   7.781
91119SOL     OW75253   2.713  13.142  11.230
91119SOL    HW175254   2.633  13.098  11.201
91119SOL    HW275255   2.691  13.235  11.227
91120SOL     OW75256  10.679   1.245  12.423
91120SOL    HW175257  10.679   1.224  12.330
91120SOL    HW275258  10.599   1.203  12.457
91121SOL     OW75259   5.640   2.583   1.087
91121SOL    HW175260   5.714   2.533   1.120
91121SOL    HW275261   5.570   2.567   1.151
91122SOL     OW75262   6.768  10.502   0.336
91122SOL    HW175263   6.712  10.538   0.404
91122SOL    HW275264   6.744  10.409   0.331
91123SOL     OW75265  10.047   4.211   8.064
91123SOL    HW175266  10.052   4.306   8.078
91123SOL    HW275267  10.053   4.174   8.152
91124SOL     OW75268   1.904  12.489   6.164
91124SOL    HW175269   1.873  12.525   6.081
91124SOL    HW275270   1.900  12.394   6.152
91125SOL     OW75271  13.760  11.850   2.597
91125SOL    HW175272  13.776  11.837   2.504
91125SOL    HW275273  13.685  11.794   2.617
91126SOL     OW75274   4.492   2.074   1.234
91126SOL    HW175275   4.494   2.004   1.169
91126SOL    HW275276   4.477   2.029   1.318
91127SOL     OW75277   9.087   6.148   7.710
91127SOL    HW175278   9.180   6.127   7.700
91127SOL    HW275279   9.086   6.239   7.738
91128SOL     OW75280   5.573   1.099   2.241
91128SOL    HW175281   5.522   1.028   2.279
91128SOL    HW275282   5.663   1.066   2.241
91129SOL     OW75283   9.127   0.457   2.150
91129SOL    HW175284   9.061   0.483   2.086
91129SOL    HW275285   9.187   0.400   2.101
91130SOL     OW75286   8.505   9.972  14.795
91130SOL    HW175287   8.579   9.991  14.853
91130SOL    HW275288   8.456   9.903  14.840
91131SOL     OW75289   7.843   9.259   3.256
91131SOL    HW175290   7.879   9.177   3.290
91131SOL    HW275291   7.792   9.232   3.179
91132SOL     OW75292   2.332  11.749   5.015
91132SOL    HW175293   2.280  11.829   5.008
91132SOL    HW275294   2.420  11.779   5.038
91133SOL     OW75295  14.606  11.328   8.999
91133SOL    HW175296  14.683  11.313   9.054
91133SOL    HW275297  14.540  11.267   9.033
91134SOL     OW75298   1.323  14.118   1.975
91134SOL    HW175299   1.313  14.206   1.938
91134SOL    HW275300   1.278  14.061   1.913
91135SOL     OW75301   9.340   4.160  13.990
91135SOL    HW175302   9.252   4.197  13.990
91135SOL    HW275303   9.382   4.198  13.912
91136SOL     OW75304  14.784   8.196   0.241
91136SOL    HW175305  14.761   8.111   0.203
91136SOL    HW275306  14.757   8.190   0.332
91137SOL     OW75307   8.182  12.500   4.953
91137SOL    HW175308   8.136  12.436   4.898
91137SOL    HW275309   8.201  12.452   5.034
91138SOL     OW75310  13.365   1.483   5.062
91138SOL    HW175311  13.312   1.535   5.001
91138SOL    HW275312  13.308   1.409   5.085
91139SOL     OW75313   3.569  14.302  12.441
91139SOL    HW175314   3.558  14.247  12.363
91139SOL    HW275315   3.619  14.247  12.501
91140SOL     OW75316   5.703   0.259   1.363
91140SOL    HW175317   5.734   0.276   1.452
91140SOL    HW275318   5.608   0.266   1.369
91141SOL     OW75319  12.824   6.069   6.440
91141SOL    HW175320  12.836   6.060   6.345
91141SOL    HW275321  12.772   5.993   6.465
91142SOL     OW75322   9.742   6.403   7.243
91142SOL    HW175323   9.749   6.416   7.337
91142SOL    HW275324   9.768   6.312   7.228
91143SOL     OW75325   5.652  11.538   0.426
91143SOL    HW175326   5.609  11.544   0.340
91143SOL    HW275327   5.595  11.588   0.484
91144SOL     OW75328   7.702   1.469   8.286
91144SOL    HW175329   7.767   1.405   8.256
91144SOL    HW275330   7.751   1.530   8.340
91145SOL     OW75331   3.973   0.911   4.897
91145SOL    HW175332   3.967   0.973   4.970
91145SOL    HW275333   3.934   0.958   4.823
91146SOL     OW75334   7.660  11.241  12.456
91146SOL    HW175335   7.604  11.235  12.534
91146SOL    HW275336   7.734  11.295  12.484
91147SOL     OW75337  12.679  11.765   4.293
91147SOL    HW175338  12.628  11.845   4.288
91147SOL    HW275339  12.669  11.736   4.384
91148SOL     OW75340   3.641  14.230  12.163
91148SOL    HW175341   3.575  14.167  12.190
91148SOL    HW275342   3.671  14.197  12.078
91149SOL     OW75343  14.615   6.677   5.842
91149SOL    HW175344  14.652   6.662   5.755
91149SOL    HW275345  14.665   6.620   5.900
91150SOL     OW75346   2.704   4.725   0.638
91150SOL    HW175347   2.689   4.635   0.610
91150SOL    HW275348   2.674   4.778   0.564
91151SOL     OW75349   1.107   1.948  10.351
91151SOL    HW175350   1.146   1.866  10.378
91151SOL    HW275351   1.133   1.958  10.259
91152SOL     OW75352   7.292  14.613   3.622
91152SOL    HW175353   7.374  14.662   3.610
91152SOL    HW275354   7.224  14.675   3.597
91153SOL     OW75355  10.640   0.557   1.228
91153SOL    HW175356  10.674   0.646   1.238
91153SOL    HW275357  10.609   0.553   1.138
91154SOL     OW75358  10.309   5.129  13.389
91154SOL    HW175359  10.245   5.117  13.320
91154SOL    HW275360  10.394   5.123  13.345
91155SOL     OW75361  12.309   6.197   3.348
91155SOL    HW175362  12.245   6.129   3.371
91155SOL    HW275363  12.369   6.153   3.289
91156SOL     OW75364   5.332   7.836   4.216
91156SOL    HW175365   5.378   7.755   4.238
91156SOL    HW275366   5.239   7.815   4.226
91157SOL     OW75367   9.262   2.899   1.663
91157SOL    HW175368   9.242   2.923   1.753
91157SOL    HW275369   9.327   2.963   1.635
91158SOL     OW75370  14.453   7.141   6.993
91158SOL    HW175371  14.547   7.124   6.985
91158SOL    HW275372  14.413   7.055   7.003
91159SOL     OW75373   7.553   0.664   2.062
91159SOL    HW175374   7.621   0.604   2.092
91159SOL    HW275375   7.490   0.608   2.017
91160SOL     OW75376   6.566   7.016  11.877
91160SOL    HW175377   6.585   7.108  11.893
91160SOL    HW275378   6.480   7.002  11.918
91161SOL     OW75379   8.588  14.228  11.716
91161SOL    HW175380   8.501  14.267  11.713
91161SOL    HW275381   8.643  14.288  11.666
91162SOL     OW75382   7.984   4.417   0.492
91162SOL    HW175383   7.968   4.506   0.459
91162SOL    HW275384   7.994   4.428   0.586
91163SOL     OW75385  13.189   3.904   4.536
91163SOL    HW175386  13.134   3.894   4.614
91163SOL    HW275387  13.130   3.938   4.470
91164SOL     OW75388   1.322  12.851   3.350
91164SOL    HW175389   1.278  12.922   3.396
91164SOL    HW275390   1.367  12.801   3.418
91165SOL     OW75391   6.736   4.595  12.771
91165SOL    HW175392   6.656   4.554  12.741
91165SOL    HW275393   6.732   4.590  12.866
91166SOL     OW75394   1.185   0.999   8.442
91166SOL    HW175395   1.098   1.002   8.482
91166SOL    HW275396   1.236   0.942   8.499
91167SOL     OW75397   4.493  14.431   3.009
91167SOL    HW175398   4.544  14.484   2.948
91167SOL    HW275399   4.412  14.481   3.024
91168SOL     OW75400   7.601   6.424   3.167
91168SOL    HW175401   7.540   6.473   3.223
91168SOL    HW275402   7.546   6.357   3.125
91169SOL     OW75403   8.027  11.737   6.487
91169SOL    HW175404   8.113  11.747   6.529
91169SOL    HW275405   8.040  11.775   6.400
91170SOL     OW75406  10.774   0.218   2.976
91170SOL    HW175407  10.682   0.238   2.960
91170SOL    HW275408  10.773   0.131   3.016
91171SOL     OW75409  13.658  10.203   8.808
91171SOL    HW175410  13.612  10.284   8.789
91171SOL    HW275411  13.608  10.135   8.762
91172SOL     OW75412   7.136   8.234   6.083
91172SOL    HW175413   7.223   8.264   6.056
91172SOL    HW275414   7.142   8.138   6.079
91173SOL     OW75415   9.775   2.839   4.103
91173SOL    HW175416   9.725   2.912   4.067
91173SOL    HW275417   9.815   2.874   4.183
91174SOL     OW75418   2.426   1.903   7.949
91174SOL    HW175419   2.432   1.883   8.042
91174SOL    HW275420   2.446   1.997   7.943
91175SOL     OW75421   9.160   0.606   6.575
91175SOL    HW175422   9.196   0.688   6.543
91175SOL    HW275423   9.065   0.615   6.564
91176SOL     OW75424   2.120   1.282   4.100
91176SOL    HW175425   2.073   1.306   4.020
91176SOL    HW275426   2.169   1.203   4.077
91177SOL     OW75427  12.989  13.735   9.299
91177SOL    HW175428  13.075  13.693   9.303
91177SOL    HW275429  12.928  13.668   9.330
91178SOL     OW75430   4.937   0.392   6.882
91178SOL    HW175431   4.942   0.488   6.879
91178SOL    HW275432   4.844   0.372   6.873
91179SOL     OW75433   3.162   1.134  13.191
91179SOL    HW175434   3.180   1.078  13.266
91179SOL    HW275435   3.149   1.073  13.118
91180SOL     OW75436  14.178   3.284   9.923
91180SOL    HW175437  14.099   3.286   9.869
91180SOL    HW275438  14.147   3.259  10.010
91181SOL     OW75439   7.567   8.648   7.791
91181SOL    HW175440   7.600   8.726   7.747
91181SOL    HW275441   7.472   8.662   7.795
91182SOL     OW75442  10.247   0.002  14.265
91182SOL    HW175443  10.186   0.076  14.269
91182SOL    HW275444  10.271  14.861  14.356
91183SOL     OW75445  13.267   4.737  12.411
91183SOL    HW175446  13.260   4.641  12.413
91183SOL    HW275447  13.310   4.760  12.493
91184SOL     OW75448  11.935   1.430  11.648
91184SOL    HW175449  11.990   1.502  11.679
91184SOL    HW275450  11.940   1.435  11.552
91185SOL     OW75451   3.799   5.067   7.972
91185SOL    HW175452   3.822   5.096   7.884
91185SOL    HW275453   3.811   4.972   7.969
91186SOL     OW75454   1.850   6.143   0.482
91186SOL    HW175455   1.935   6.112   0.514
91186SOL    HW275456   1.845   6.234   0.514
91187SOL     OW75457   0.912   7.685  12.220
91187SOL    HW175458   0.962   7.616  12.175
91187SOL    HW275459   0.880   7.643  12.300
91188SOL     OW75460   5.512   0.164   4.633
91188SOL    HW175461   5.512   0.191   4.541
91188SOL    HW275462   5.541   0.072   4.631
91189SOL     OW75463   5.920  10.735  10.318
91189SOL    HW175464   5.977  10.760  10.390
91189SOL    HW275465   5.910  10.640  10.327
91190SOL     OW75466   0.120  12.886  11.907
91190SOL    HW175467   0.083  12.966  11.870
91190SOL    HW275468   0.202  12.915  11.948
91191SOL     OW75469   4.740  13.310   7.736
91191SOL    HW175470   4.772  13.374   7.673
91191SOL    HW275471   4.690  13.247   7.683
91192SOL     OW75472   0.046  12.266  12.345
91192SOL    HW175473   0.087  12.285  12.261
91192SOL    HW275474  14.872  12.185  12.330
91193SOL     OW75475   4.833   5.921  12.095
91193SOL    HW175476   4.798   5.990  12.037
91193SOL    HW275477   4.868   5.968  12.170
91194SOL     OW75478   5.297   7.074   3.358
91194SOL    HW175479   5.283   7.115   3.273
91194SOL    HW275480   5.392   7.061   3.364
91195SOL     OW75481   3.222  10.577   8.021
91195SOL    HW175482   3.239  10.490   8.057
91195SOL    HW275483   3.133  10.572   7.987
91196SOL     OW75484   8.750   8.351  13.742
91196SOL    HW175485   8.804   8.402  13.802
91196SOL    HW275486   8.796   8.354  13.658
91197SOL     OW75487   0.775   7.162   7.257
91197SOL    HW175488   0.763   7.067   7.251
91197SOL    HW275489   0.686   7.197   7.248
91198SOL     OW75490   9.119   9.686   4.347
91198SOL    HW175491   9.030   9.661   4.371
91198SOL    HW275492   9.117   9.696   4.252
91199SOL     OW75493  10.419  14.520   2.612
91199SOL    HW175494  10.500  14.566   2.591
91199SOL    HW275495  10.404  14.463   2.536
91200SOL     OW75496   0.515   8.646   1.902
91200SOL    HW175497   0.555   8.568   1.864
91200SOL    HW275498   0.511   8.628   1.996
91201SOL     OW75499   4.290  10.371   6.887
91201SOL    HW175500   4.275  10.460   6.919
91201SOL    HW275501   4.366  10.340   6.937
91202SOL     OW75502   5.189   8.837  10.225
91202SOL    HW175503   5.098   8.864  10.241
91202SOL    HW275504   5.183   8.772  10.155
91203SOL     OW75505  12.647   6.191   9.898
91203SOL    HW175506  12.592   6.114   9.914
91203SOL    HW275507  12.700   6.168   9.822
91204SOL     OW75508  13.422   8.957   5.391
91204SOL    HW175509  13.420   8.947   5.487
91204SOL    HW275510  13.331   8.969   5.367
91205SOL     OW75511  14.370   2.506   0.968
91205SOL    HW175512  14.459   2.472   0.957
91205SOL    HW275513  14.373   2.592   0.928
91206SOL     OW75514  10.379  14.662   3.823
91206SOL    HW175515  10.454  14.717   3.799
91206SOL    HW275516  10.337  14.710   3.895
91207SOL     OW75517   8.788   7.632   5.929
91207SOL    HW175518   8.704   7.590   5.915
91207SOL    HW275519   8.841   7.566   5.974
91208SOL     OW75520   4.459   3.363   8.545
91208SOL    HW175521   4.525   3.373   8.476
91208SOL    HW275522   4.453   3.450   8.585
91209SOL     OW75523   4.153  14.102   1.351
91209SOL    HW175524   4.106  14.173   1.308
91209SOL    HW275525   4.152  14.126   1.444
91210SOL     OW75526   7.593   9.920   4.801
91210SOL    HW175527   7.537   9.929   4.878
91210SOL    HW275528   7.663   9.861   4.828
91211SOL     OW75529  13.670  10.802   6.021
91211SOL    HW175530  13.749  10.855   6.031
91211SOL    HW275531  13.623  10.843   5.948
91212SOL     OW75532  14.510   3.065   2.272
91212SOL    HW175533  14.467   3.090   2.353
91212SOL    HW275534  14.568   3.139   2.252
91213SOL     OW75535   8.854   5.745   2.446
91213SOL    HW175536   8.804   5.780   2.372
91213SOL    HW275537   8.914   5.816   2.469
91214SOL     OW75538  10.033  11.728   1.227
91214SOL    HW175539  10.123  11.750   1.249
91214SOL    HW275540  10.039  11.651   1.171
91215SOL     OW75541   4.587   7.468   0.356
91215SOL    HW175542   4.511   7.526   0.359
91215SOL    HW275543   4.572   7.407   0.429
91216SOL     OW75544   1.101   7.539   8.415
91216SOL    HW175545   1.188   7.499   8.413
91216SOL    HW275546   1.047   7.477   8.464
91217SOL     OW75547  12.919   2.435  11.077
91217SOL    HW175548  12.836   2.434  11.031
91217SOL    HW275549  12.972   2.369  11.034
91218SOL     OW75550   9.503   2.739   9.537
91218SOL    HW175551   9.469   2.789   9.463
91218SOL    HW275552   9.598   2.737   9.523
91219SOL     OW75553   3.647  10.440  13.755
91219SOL    HW175554   3.596  10.369  13.792
91219SOL    HW275555   3.717  10.397  13.705
91220SOL     OW75556   6.720   5.851  10.229
91220SOL    HW175557   6.652   5.801  10.184
91220SOL    HW275558   6.672   5.914  10.283
91221SOL     OW75559  11.676  13.365   3.710
91221SOL    HW175560  11.694  13.371   3.616
91221SOL    HW275561  11.589  13.403   3.720
91222SOL     OW75562  11.434  13.263  14.019
91222SOL    HW175563  11.478  13.301  13.944
91222SOL    HW275564  11.384  13.190  13.983
91223SOL     OW75565  10.049   8.051   8.234
91223SOL    HW175566   9.973   8.055   8.292
91223SOL    HW275567  10.029   7.981   8.172
91224SOL     OW75568   4.692  13.071   7.597
91224SOL    HW175569   4.654  13.033   7.518
91224SOL    HW275570   4.654  13.021   7.669
91225SOL     OW75571   7.158  14.831   3.540
91225SOL    HW175572   7.147   0.051   3.542
91225SOL    HW275573   7.124  14.804   3.455
91226SOL     OW75574   6.538   0.628   9.778
91226SOL    HW175575   6.538   0.647   9.684
91226SOL    HW275576   6.489   0.546   9.784
91227SOL     OW75577   3.165   6.693  10.586
91227SOL    HW175578   3.175   6.605  10.621
91227SOL    HW275579   3.210   6.750  10.649
91228SOL     OW75580   1.625   8.186   8.750
91228SOL    HW175581   1.602   8.200   8.658
91228SOL    HW275582   1.547   8.213   8.799
91229SOL     OW75583  14.136   5.388   9.952
91229SOL    HW175584  14.153   5.353  10.040
91229SOL    HW275585  14.129   5.311   9.897
91230SOL     OW75586   8.424   6.848   9.564
91230SOL    HW175587   8.351   6.904   9.591
91230SOL    HW275588   8.479   6.841   9.642
91231SOL     OW75589  14.474   9.735   7.623
91231SOL    HW175590  14.511   9.775   7.701
91231SOL    HW275591  14.471   9.641   7.644
91232SOL     OW75592   5.423  11.396   1.872
91232SOL    HW175593   5.509  11.374   1.910
91232SOL    HW275594   5.372  11.316   1.880
91233SOL     OW75595  11.098   6.269  14.638
91233SOL    HW175596  11.115   6.180  14.668
91233SOL    HW275597  11.134   6.324  14.708
91234SOL     OW75598  13.107   7.350   0.051
91234SOL    HW175599  13.050   7.333   0.126
91234SOL    HW275600  13.077   7.434   0.017
91235SOL     OW75601   7.121  11.379   4.115
91235SOL    HW175602   7.073  11.299   4.135
91235SOL    HW275603   7.197  11.377   4.174
91236SOL     OW75604   1.856   5.537   6.066
91236SOL    HW175605   1.835   5.595   5.993
91236SOL    HW275606   1.943   5.565   6.095
91237SOL     OW75607   0.641  14.174   7.994
91237SOL    HW175608   0.726  14.132   8.007
91237SOL    HW275609   0.577  14.103   8.004
91238SOL     OW75610   7.374   5.750   8.360
91238SOL    HW175611   7.352   5.698   8.283
91238SOL    HW275612   7.337   5.836   8.343
91239SOL     OW75613   4.446   7.823   5.924
91239SOL    HW175614   4.526   7.814   5.975
91239SOL    HW275615   4.376   7.802   5.985
91240SOL     OW75616   5.624   9.455  14.214
91240SOL    HW175617   5.642   9.483  14.304
91240SOL    HW275618   5.685   9.508  14.161
91241SOL     OW75619   1.601  10.025   1.049
91241SOL    HW175620   1.594  10.085   1.123
91241SOL    HW275621   1.670   9.963   1.075
91242SOL     OW75622   8.943  14.621  13.668
91242SOL    HW175623   8.886  14.666  13.605
91242SOL    HW275624   9.006  14.573  13.614
91243SOL     OW75625   0.902  11.156  14.601
91243SOL    HW175626   0.984  11.111  14.621
91243SOL    HW275627   0.893  11.149  14.506
91244SOL     OW75628  11.666  11.897   2.442
91244SOL    HW175629  11.595  11.834   2.453
91244SOL    HW275630  11.746  11.845   2.447
91245SOL     OW75631  12.183  11.325  10.752
91245SOL    HW175632  12.252  11.347  10.689
91245SOL    HW275633  12.225  11.263  10.812
91246SOL     OW75634  10.887   1.170   5.842
91246SOL    HW175635  10.979   1.196   5.838
91246SOL    HW275636  10.870   1.154   5.934
91247SOL     OW75637  10.176   5.559  11.098
91247SOL    HW175638  10.146   5.470  11.119
91247SOL    HW275639  10.110   5.594  11.039
91248SOL     OW75640   8.985  14.248   6.689
91248SOL    HW175641   9.077  14.226   6.705
91248SOL    HW275642   8.941  14.229   6.771
91249SOL     OW75643   5.022  13.744  12.985
91249SOL    HW175644   5.055  13.741  13.075
91249SOL    HW275645   4.935  13.704  12.990
91250SOL     OW75646   2.430  11.158   9.588
91250SOL    HW175647   2.352  11.120   9.545
91250SOL    HW275648   2.420  11.135   9.680
91251SOL     OW75649   3.420   2.139   3.407
91251SOL    HW175650   3.336   2.166   3.370
91251SOL    HW275651   3.472   2.111   3.331
91252SOL     OW75652   3.182   6.621  14.586
91252SOL    HW175653   3.129   6.542  14.595
91252SOL    HW275654   3.272   6.590  14.581
91253SOL     OW75655   0.283   7.765   0.844
91253SOL    HW175656   0.260   7.713   0.767
91253SOL    HW275657   0.305   7.851   0.809
91254SOL     OW75658   0.707   1.333   7.219
91254SOL    HW175659   0.628   1.381   7.192
91254SOL    HW275660   0.715   1.262   7.155
91255SOL     OW75661  13.267  13.703   7.294
91255SOL    HW175662  13.306  13.618   7.276
91255SOL    HW275663  13.174  13.686   7.303
91256SOL     OW75664  10.921   3.962   7.658
91256SOL    HW175665  10.846   3.919   7.617
91256SOL    HW275666  10.997   3.914   7.625
91257SOL     OW75667   9.821  13.576  14.839
91257SOL    HW175668   9.864  13.523   0.031
91257SOL    HW275669   9.758  13.629   0.012
91258SOL     OW75670  10.347   9.049  14.683
91258SOL    HW175671  10.256   9.021  14.680
91258SOL    HW275672  10.348   9.134  14.638
91259SOL     OW75673  11.225  10.762  13.594
91259SOL    HW175674  11.259  10.703  13.527
91259SOL    HW275675  11.223  10.848  13.551
91260SOL     OW75676   7.632   3.501   7.110
91260SOL    HW175677   7.649   3.412   7.078
91260SOL    HW275678   7.537   3.508   7.113
91261SOL     OW75679   9.635  12.611   7.749
91261SOL    HW175680   9.589  12.660   7.817
91261SOL    HW275681   9.703  12.672   7.719
91262SOL     OW75682   3.976   6.957  13.811
91262SOL    HW175683   3.969   7.052  13.810
91262SOL    HW275684   4.067   6.939  13.831
91263SOL     OW75685   3.733  14.636   5.006
91263SOL    HW175686   3.677  14.602   4.936
91263SOL    HW275687   3.732  14.731   4.995
91264SOL     OW75688   3.573  10.172   4.720
91264SOL    HW175689   3.645  10.114   4.748
91264SOL    HW275690   3.617  10.245   4.676
91265SOL     OW75691   1.250  11.218  13.268
91265SOL    HW175692   1.284  11.296  13.224
91265SOL    HW275693   1.301  11.146  13.233
91266SOL     OW75694   5.884   8.521   3.872
91266SOL    HW175695   5.813   8.563   3.921
91266SOL    HW275696   5.936   8.476   3.938
91267SOL     OW75697   7.422  10.585   0.423
91267SOL    HW175698   7.455  10.495   0.425
91267SOL    HW275699   7.429  10.611   0.331
91268SOL     OW75700   9.085   9.606   2.477
91268SOL    HW175701   9.176   9.635   2.477
91268SOL    HW275702   9.035   9.683   2.506
91269SOL     OW75703   5.641   9.984   2.730
91269SOL    HW175704   5.603  10.043   2.665
91269SOL    HW275705   5.568   9.929   2.758
91270SOL     OW75706  12.025   6.811   6.590
91270SOL    HW175707  12.115   6.780   6.603
91270SOL    HW275708  11.973   6.760   6.652
91271SOL     OW75709   7.940  12.188  12.896
91271SOL    HW175710   7.900  12.101  12.896
91271SOL    HW275711   7.888  12.239  12.834
91272SOL     OW75712   3.433   8.695   5.553
91272SOL    HW175713   3.373   8.748   5.606
91272SOL    HW275714   3.492   8.759   5.513
91273SOL     OW75715   0.197   1.614   6.677
91273SOL    HW175716   0.163   1.558   6.608
91273SOL    HW275717   0.269   1.662   6.636
91274SOL     OW75718   2.511   8.654   9.133
91274SOL    HW175719   2.444   8.624   9.071
91274SOL    HW275720   2.529   8.577   9.187
91275SOL     OW75721   0.090  12.960   4.596
91275SOL    HW175722   0.140  12.922   4.524
91275SOL    HW275723   0.139  12.934   4.675
91276SOL     OW75724  10.341   9.285  10.956
91276SOL    HW175725  10.422   9.274  11.006
91276SOL    HW275726  10.354   9.366  10.907
91277SOL     OW75727   1.008  12.735  14.580
91277SOL    HW175728   0.947  12.740  14.654
91277SOL    HW275729   0.981  12.658  14.532
91278SOL     OW75730   7.259  13.511   6.251
91278SOL    HW175731   7.341  13.535   6.208
91278SOL    HW275732   7.228  13.593   6.289
91279SOL     OW75733   7.644   1.512  13.085
91279SOL    HW175734   7.648   1.423  13.050
91279SOL    HW275735   7.552   1.524  13.110
91280SOL     OW75736   4.682   6.198   2.707
91280SOL    HW175737   4.773   6.222   2.724
91280SOL    HW275738   4.633   6.232   2.782
91281SOL     OW75739   0.497   0.748   2.298
91281SOL    HW175740   0.589   0.722   2.294
91281SOL    HW275741   0.469   0.726   2.386
91282SOL     OW75742  10.398   7.718   2.579
91282SOL    HW175743  10.461   7.648   2.599
91282SOL    HW275744  10.453   7.795   2.564
91283SOL     OW75745   4.264   9.528   1.621
91283SOL    HW175746   4.239   9.445   1.580
91283SOL    HW275747   4.222   9.525   1.707
91284SOL     OW75748  11.442  13.834  14.650
91284SOL    HW175749  11.434  13.740  14.638
91284SOL    HW275750  11.536  13.851  14.639
91285SOL     OW75751  10.359   4.028   5.523
91285SOL    HW175752  10.275   4.017   5.479
91285SOL    HW275753  10.424   4.008   5.455
91286SOL     OW75754   2.179  10.387  10.842
91286SOL    HW175755   2.240  10.333  10.792
91286SOL    HW275756   2.227  10.413  10.920
91287SOL     OW75757  11.913   4.405   1.748
91287SOL    HW175758  11.939   4.404   1.840
91287SOL    HW275759  11.818   4.399   1.750
91288SOL     OW75760   5.937  14.167   1.064
91288SOL    HW175761   5.881  14.239   1.035
91288SOL    HW275762   5.915  14.095   1.005
91289SOL     OW75763  12.176  13.373   0.304
91289SOL    HW175764  12.228  13.429   0.362
91289SOL    HW275765  12.095  13.356   0.353
91290SOL     OW75766  12.669  11.324   2.260
91290SOL    HW175767  12.577  11.304   2.241
91290SOL    HW275768  12.718  11.256   2.213
91291SOL     OW75769   0.171  10.279   7.829
91291SOL    HW175770   0.092  10.251   7.875
91291SOL    HW275771   0.148  10.276   7.736
91292SOL     OW75772   0.148  10.045   6.885
91292SOL    HW175773   0.214  10.046   6.955
91292SOL    HW275774   0.197  10.062   6.805
91293SOL     OW75775   1.829   4.657   6.953
91293SOL    HW175776   1.865   4.615   7.031
91293SOL    HW275777   1.819   4.586   6.890
91294SOL     OW75778  11.491   4.451  13.513
91294SOL    HW175779  11.560   4.393  13.547
91294SOL    HW275780  11.418   4.437  13.573
91295SOL     OW75781   5.028  14.690   8.625
91295SOL    HW175782   5.106  14.737   8.656
91295SOL    HW275783   5.025  14.706   8.531
91296SOL     OW75784   8.214  10.061  14.125
91296SOL    HW175785   8.136  10.061  14.180
91296SOL    HW275786   8.285  10.036  14.184
91297SOL     OW75787   2.024   7.436   1.622
91297SOL    HW175788   2.014   7.397   1.709
91297SOL    HW275789   2.111   7.476   1.625
91298SOL     OW75790   0.470   6.785   5.090
91298SOL    HW175791   0.483   6.877   5.111
91298SOL    HW275792   0.547   6.741   5.127
91299SOL     OW75793   7.291   0.345   5.338
91299SOL    HW175794   7.263   0.313   5.253
91299SOL    HW275795   7.339   0.426   5.319
91300SOL     OW75796   4.693   8.085   6.057
91300SOL    HW175797   4.717   7.993   6.068
91300SOL    HW275798   4.598   8.088   6.073
91301SOL     OW75799   2.552   8.970   2.304
91301SOL    HW175800   2.497   8.891   2.297
91301SOL    HW275801   2.501   9.029   2.360
91302SOL     OW75802  11.244   8.800   7.621
91302SOL    HW175803  11.153   8.777   7.639
91302SOL    HW275804  11.283   8.815   7.707
91303SOL     OW75805   9.907   0.083   6.715
91303SOL    HW175806   9.868  14.871   6.707
91303SOL    HW275807   9.997   0.072   6.686
91304SOL     OW75808  13.329   8.887  14.164
91304SOL    HW175809  13.358   8.947  14.095
91304SOL    HW275810  13.380   8.912  14.241
91305SOL     OW75811  13.133   6.728  11.757
91305SOL    HW175812  13.169   6.660  11.700
91305SOL    HW275813  13.152   6.810  11.711
91306SOL     OW75814   3.528  13.826   6.187
91306SOL    HW175815   3.590  13.867   6.127
91306SOL    HW275816   3.518  13.737   6.154
91307SOL     OW75817  12.897  13.938  11.255
91307SOL    HW175818  12.860  14.026  11.244
91307SOL    HW275819  12.858  13.886  11.185
91308SOL     OW75820   4.579   1.328   1.970
91308SOL    HW175821   4.523   1.279   1.909
91308SOL    HW275822   4.556   1.419   1.955
91309SOL     OW75823   5.802  10.679   3.849
91309SOL    HW175824   5.710  10.701   3.864
91309SOL    HW275825   5.800  10.616   3.776
91310SOL     OW75826  11.504   1.477   8.683
91310SOL    HW175827  11.416   1.506   8.709
91310SOL    HW275828  11.563   1.516   8.748
91311SOL     OW75829   1.615   9.521   4.176
91311SOL    HW175830   1.599   9.451   4.240
91311SOL    HW275831   1.565   9.595   4.208
91312SOL     OW75832   9.328  10.231  14.769
91312SOL    HW175833   9.298  10.221  14.678
91312SOL    HW275834   9.419  10.260  14.760
91313SOL     OW75835   8.948   8.834   7.844
91313SOL    HW175836   8.983   8.748   7.866
91313SOL    HW275837   8.859   8.817   7.815
91314SOL     OW75838   4.421   6.647   9.002
91314SOL    HW175839   4.383   6.734   8.993
91314SOL    HW275840   4.466   6.648   9.086
91315SOL     OW75841   6.859  13.550  10.018
91315SOL    HW175842   6.842  13.577   9.928
91315SOL    HW275843   6.837  13.628  10.070
91316SOL     OW75844   7.655   5.682  12.603
91316SOL    HW175845   7.658   5.625  12.526
91316SOL    HW275846   7.742   5.722  12.606
91317SOL     OW75847   0.629   0.150  11.636
91317SOL    HW175848   0.662   0.132  11.724
91317SOL    HW275849   0.534   0.152  11.646
91318SOL     OW75850   6.777   4.061   1.937
91318SOL    HW175851   6.684   4.056   1.961
91318SOL    HW275852   6.777   4.089   1.845
91319SOL     OW75853   6.491   2.048   3.718
91319SOL    HW175854   6.469   2.077   3.807
91319SOL    HW275855   6.492   1.952   3.724
91320SOL     OW75856  10.949  10.322   8.014
91320SOL    HW175857  10.865  10.292   8.048
91320SOL    HW275858  10.935  10.414   7.991
91321SOL     OW75859   2.755   2.359  11.548
91321SOL    HW175860   2.688   2.407  11.498
91321SOL    HW275861   2.834   2.412  11.538
91322SOL     OW75862   3.401   4.559  14.282
91322SOL    HW175863   3.468   4.615  14.321
91322SOL    HW275864   3.418   4.473  14.319
91323SOL     OW75865  10.087  14.106   5.971
91323SOL    HW175866  10.174  14.090   5.933
91323SOL    HW275867  10.038  14.150   5.902
91324SOL     OW75868   8.138  11.583   7.327
91324SOL    HW175869   8.178  11.553   7.245
91324SOL    HW275870   8.139  11.679   7.321
91325SOL     OW75871   7.781  12.397   0.808
91325SOL    HW175872   7.722  12.469   0.828
91325SOL    HW275873   7.724  12.328   0.774
91326SOL     OW75874   3.259  13.245   8.117
91326SOL    HW175875   3.183  13.274   8.068
91326SOL    HW275876   3.329  13.237   8.052
91327SOL     OW75877   1.539   7.758  12.243
91327SOL    HW175878   1.447   7.734  12.247
91327SOL    HW275879   1.569   7.724  12.159
91328SOL     OW75880  14.280   8.091  10.221
91328SOL    HW175881  14.353   8.147  10.248
91328SOL    HW275882  14.251   8.129  10.138
91329SOL     OW75883   7.201   6.841   3.100
91329SOL    HW175884   7.135   6.837   3.168
91329SOL    HW275885   7.221   6.934   3.091
91330SOL     OW75886   3.665  14.120   6.085
91330SOL    HW175887   3.675  14.214   6.073
91330SOL    HW275888   3.731  14.081   6.028
91331SOL     OW75889  13.722   6.796  10.766
91331SOL    HW175890  13.671   6.774  10.843
91331SOL    HW275891  13.813   6.792  10.795
91332SOL     OW75892   4.570   6.745   3.994
91332SOL    HW175893   4.541   6.664   3.951
91332SOL    HW275894   4.593   6.804   3.922
91333SOL     OW75895   5.685  11.132   7.989
91333SOL    HW175896   5.639  11.196   7.934
91333SOL    HW275897   5.739  11.082   7.927
91334SOL     OW75898  11.152  13.892  12.457
91334SOL    HW175899  11.069  13.850  12.435
91334SOL    HW275900  11.151  13.974  12.407
91335SOL     OW75901   0.153  11.432  10.080
91335SOL    HW175902   0.154  11.523  10.053
91335SOL    HW275903   0.209  11.429  10.157
91336SOL     OW75904  12.167   3.203   6.299
91336SOL    HW175905  12.165   3.111   6.324
91336SOL    HW275906  12.221   3.205   6.220
91337SOL     OW75907   4.988   6.304  11.502
91337SOL    HW175908   4.910   6.343  11.542
91337SOL    HW275909   4.955   6.226  11.458
91338SOL     OW75910   6.328   5.492   3.396
91338SOL    HW175911   6.279   5.515   3.475
91338SOL    HW275912   6.298   5.404   3.374
91339SOL     OW75913   4.587  10.678  10.938
91339SOL    HW175914   4.555  10.760  10.976
91339SOL    HW275915   4.528  10.611  10.972
91340SOL     OW75916   1.986  12.956  11.762
91340SOL    HW175917   1.965  13.011  11.837
91340SOL    HW275918   1.912  12.966  11.703
91341SOL     OW75919  13.795  14.723   7.432
91341SOL    HW175920  13.789  14.736   7.337
91341SOL    HW275921  13.859  14.788   7.461
91342SOL     OW75922  11.530   9.456   1.045
91342SOL    HW175923  11.458   9.393   1.051
91342SOL    HW275924  11.599   9.417   1.098
91343SOL     OW75925   2.213  11.498   5.926
91343SOL    HW175926   2.130  11.474   5.965
91343SOL    HW275927   2.190  11.560   5.857
91344SOL     OW75928   4.298  14.702  12.452
91344SOL    HW175929   4.312  14.637  12.383
91344SOL    HW275930   4.307  14.653  12.534
91345SOL     OW75931   4.986  10.604   0.834
91345SOL    HW175932   5.059  10.639   0.782
91345SOL    HW275933   5.018  10.518   0.863
91346SOL     OW75934  13.069   5.838   7.838
91346SOL    HW175935  13.118   5.920   7.837
91346SOL    HW275936  12.991   5.857   7.890
91347SOL     OW75937   5.414   5.619  10.973
91347SOL    HW175938   5.352   5.683  10.937
91347SOL    HW275939   5.358   5.546  11.001
91348SOL     OW75940  13.267  14.262  12.312
91348SOL    HW175941  13.229  14.316  12.243
91348SOL    HW275942  13.195  14.242  12.371
91349SOL     OW75943   0.164   9.411  10.531
91349SOL    HW175944   0.154   9.317  10.541
91349SOL    HW275945   0.078   9.447  10.556
91350SOL     OW75946   0.333   3.221   5.682
91350SOL    HW175947   0.255   3.272   5.659
91350SOL    HW275948   0.385   3.281   5.735
91351SOL     OW75949  11.405  14.666  10.921
91351SOL    HW175950  11.465  14.600  10.886
91351SOL    HW275951  11.367  14.707  10.844
91352SOL     OW75952   3.216  12.124   9.646
91352SOL    HW175953   3.154  12.054   9.627
91352SOL    HW275954   3.162  12.201   9.665
91353SOL     OW75955   1.789   1.973   5.592
91353SOL    HW175956   1.739   1.892   5.597
91353SOL    HW275957   1.723   2.043   5.598
91354SOL     OW75958   0.968   1.517   3.722
91354SOL    HW175959   0.889   1.496   3.771
91354SOL    HW275960   1.037   1.523   3.789
91355SOL     OW75961  13.429   5.712   3.267
91355SOL    HW175962  13.337   5.733   3.283
91355SOL    HW275963  13.427   5.628   3.221
91356SOL     OW75964   8.095  12.187   2.433
91356SOL    HW175965   8.135  12.183   2.346
91356SOL    HW275966   8.168  12.181   2.494
91357SOL     OW75967   0.069   6.490  12.432
91357SOL    HW175968   0.060   6.397  12.453
91357SOL    HW275969   0.085   6.493  12.338
91358SOL     OW75970  11.416   1.788   6.719
91358SOL    HW175971  11.400   1.710   6.667
91358SOL    HW275972  11.407   1.861   6.658
91359SOL     OW75973   7.544   5.967  10.084
91359SOL    HW175974   7.639   5.971  10.087
91359SOL    HW275975   7.520   6.018  10.006
91360SOL     OW75976   4.275   3.066   4.354
91360SOL    HW175977   4.355   3.015   4.362
91360SOL    HW275978   4.303   3.148   4.314
91361SOL     OW75979   6.057  10.972   1.421
91361SOL    HW175980   6.059  10.879   1.397
91361SOL    HW275981   6.147  11.002   1.407
91362SOL     OW75982  11.787   9.665   1.308
91362SOL    HW175983  11.693   9.651   1.322
91362SOL    HW275984  11.807   9.619   1.226
91363SOL     OW75985   4.596   7.541   0.097
91363SOL    HW175986   4.578   7.522   0.190
91363SOL    HW275987   4.669   7.603   0.099
91364SOL     OW75988  11.671   7.293   0.224
91364SOL    HW175989  11.740   7.343   0.179
91364SOL    HW275990  11.592   7.346   0.212
91365SOL     OW75991   5.160   6.892   4.291
91365SOL    HW175992   5.241   6.859   4.329
91365SOL    HW275993   5.090   6.846   4.339
91366SOL     OW75994   5.720   3.169   7.147
91366SOL    HW175995   5.647   3.165   7.085
91366SOL    HW275996   5.687   3.225   7.218
91367SOL     OW75997   9.550  14.616  11.154
91367SOL    HW175998   9.631  14.642  11.199
91367SOL    HW275999   9.580  14.561  11.081
91368SOL     OW76000   0.853   4.209   7.094
91368SOL    HW176001   0.912   4.137   7.072
91368SOL    HW276002   0.849   4.209   7.190
91369SOL     OW76003  10.619  13.795   3.178
91369SOL    HW176004  10.583  13.875   3.138
91369SOL    HW276005  10.686  13.827   3.238
91370SOL     OW76006  11.512  14.310   2.591
91370SOL    HW176007  11.494  14.404   2.596
91370SOL    HW276008  11.593  14.299   2.641
91371SOL     OW76009   7.482   9.734   6.211
91371SOL    HW176010   7.446   9.791   6.142
91371SOL    HW276011   7.530   9.794   6.268
91372SOL     OW76012  12.443   1.764   2.868
91372SOL    HW176013  12.488   1.765   2.784
91372SOL    HW276014  12.484   1.834   2.919
91373SOL     OW76015  10.270   8.999   4.803
91373SOL    HW176016  10.215   8.951   4.741
91373SOL    HW276017  10.324   9.056   4.749
91374SOL     OW76018   6.471  11.941  11.846
91374SOL    HW176019   6.516  11.989  11.777
91374SOL    HW276020   6.541  11.898  11.895
91375SOL     OW76021  10.177  14.804   3.355
91375SOL    HW176022  10.169  14.766   3.442
91375SOL    HW276023  10.214   0.016   3.370
91376SOL     OW76024   0.223  11.037   7.289
91376SOL    HW176025   0.266  10.964   7.244
91376SOL    HW276026   0.218  11.009   7.381
91377SOL     OW76027  10.023  10.321   1.360
91377SOL    HW176028   9.984  10.239   1.391
91377SOL    HW276029  10.023  10.379   1.437
91378SOL     OW76030   1.233   5.198   3.231
91378SOL    HW176031   1.238   5.194   3.135
91378SOL    HW276032   1.324   5.194   3.260
91379SOL     OW76033   2.549   6.369   4.936
91379SOL    HW176034   2.560   6.299   4.872
91379SOL    HW276035   2.637   6.404   4.948
91380SOL     OW76036   6.477  12.040   9.944
91380SOL    HW176037   6.467  12.091   9.863
91380SOL    HW276038   6.446  11.953   9.921
91381SOL     OW76039   9.847  13.238   8.118
91381SOL    HW176040   9.896  13.305   8.166
91381SOL    HW276041   9.760  13.239   8.158
91382SOL     OW76042  12.211  12.829   9.150
91382SOL    HW176043  12.195  12.868   9.064
91382SOL    HW276044  12.126  12.793   9.176
91383SOL     OW76045  12.847   3.610   4.250
91383SOL    HW176046  12.768   3.573   4.209
91383SOL    HW276047  12.813   3.660   4.325
91384SOL     OW76048  13.702   1.374   7.938
91384SOL    HW176049  13.783   1.390   7.891
91384SOL    HW276050  13.659   1.304   7.888
91385SOL     OW76051   6.969   6.223   4.891
91385SOL    HW176052   6.998   6.134   4.869
91385SOL    HW276053   6.968   6.270   4.808
91386SOL     OW76054  13.178   4.704   0.164
91386SOL    HW176055  13.084   4.720   0.168
91386SOL    HW276056  13.203   4.729   0.075
91387SOL     OW76057   1.258  14.000  14.257
91387SOL    HW176058   1.177  14.040  14.224
91387SOL    HW276059   1.267  13.919  14.207
91388SOL     OW76060   1.229   0.342  14.510
91388SOL    HW176061   1.138   0.314  14.498
91388SOL    HW276062   1.249   0.393  14.432
91389SOL     OW76063   1.569  11.193  12.569
91389SOL    HW176064   1.614  11.120  12.526
91389SOL    HW276065   1.595  11.271  12.519
91390SOL     OW76066  12.546  10.382   8.292
91390SOL    HW176067  12.564  10.468   8.330
91390SOL    HW276068  12.527  10.399   8.200
91391SOL     OW76069  13.569   9.820  13.080
91391SOL    HW176070  13.641   9.772  13.121
91391SOL    HW276071  13.542   9.883  13.147
91392SOL     OW76072  13.342   8.218  11.069
91392SOL    HW176073  13.248   8.238  11.062
91392SOL    HW276074  13.362   8.170  10.989
91393SOL     OW76075  11.642  11.053  14.006
91393SOL    HW176076  11.725  11.100  14.003
91393SOL    HW276077  11.589  11.093  13.937
91394SOL     OW76078  13.616  13.732  10.491
91394SOL    HW176079  13.599  13.666  10.558
91394SOL    HW276080  13.614  13.683  10.408
91395SOL     OW76081   6.601  14.477   3.316
91395SOL    HW176082   6.547  14.552   3.342
91395SOL    HW276083   6.687  14.514   3.298
91396SOL     OW76084  10.725  11.962   4.360
91396SOL    HW176085  10.759  11.930   4.443
91396SOL    HW276086  10.633  11.935   4.359
91397SOL     OW76087   8.073   9.448  14.516
91397SOL    HW176088   8.069   9.544  14.514
91397SOL    HW276089   8.128   9.428  14.592
91398SOL     OW76090   2.282  13.974   8.985
91398SOL    HW176091   2.286  14.018   9.070
91398SOL    HW276092   2.240  14.038   8.927
91399SOL     OW76093   4.744   1.836  14.598
91399SOL    HW176094   4.757   1.803  14.687
91399SOL    HW276095   4.692   1.769  14.554
91400SOL     OW76096   9.220  12.577   5.639
91400SOL    HW176097   9.161  12.630   5.694
91400SOL    HW276098   9.168  12.501   5.614
91401SOL     OW76099  14.775   4.542   4.388
91401SOL    HW176100  14.847   4.598   4.416
91401SOL    HW276101  14.784   4.463   4.441
91402SOL     OW76102  11.539  11.595  10.642
91402SOL    HW176103  11.583  11.556  10.718
91402SOL    HW276104  11.446  11.572  10.654
91403SOL     OW76105  10.610   5.619   7.753
91403SOL    HW176106  10.528   5.657   7.721
91403SOL    HW276107  10.603   5.622   7.849
91404SOL     OW76108   2.689   0.089  14.375
91404SOL    HW176109   2.711   0.075  14.467
91404SOL    HW276110   2.695   0.184  14.363
91405SOL     OW76111   0.594   2.668  11.373
91405SOL    HW176112   0.655   2.631  11.309
91405SOL    HW276113   0.637   2.746  11.406
91406SOL     OW76114   1.400   7.727   2.652
91406SOL    HW176115   1.434   7.684   2.573
91406SOL    HW276116   1.447   7.810   2.657
91407SOL     OW76117   0.622   8.042  13.879
91407SOL    HW176118   0.618   8.086  13.795
91407SOL    HW276119   0.660   7.956  13.860
91408SOL     OW76120   5.509   8.827   4.764
91408SOL    HW176121   5.538   8.913   4.736
91408SOL    HW276122   5.535   8.821   4.856
91409SOL     OW76123   1.303   3.698  12.135
91409SOL    HW176124   1.267   3.611  12.150
91409SOL    HW276125   1.342   3.693  12.047
91410SOL     OW76126  10.171  12.921   5.164
91410SOL    HW176127  10.259  12.894   5.139
91410SOL    HW276128  10.182  13.012   5.193
91411SOL     OW76129   4.709   4.922   1.269
91411SOL    HW176130   4.629   4.870   1.257
91411SOL    HW276131   4.687   4.984   1.338
91412SOL     OW76132   3.858   4.405   1.197
91412SOL    HW176133   3.936   4.356   1.173
91412SOL    HW276134   3.863   4.412   1.293
91413SOL     OW76135  14.389   7.971   5.933
91413SOL    HW176136  14.483   7.983   5.924
91413SOL    HW276137  14.372   7.883   5.899
91414SOL     OW76138   4.329   3.148   1.825
91414SOL    HW176139   4.248   3.131   1.777
91414SOL    HW276140   4.385   3.073   1.805
91415SOL     OW76141  10.816   6.161   3.614
91415SOL    HW176142  10.728   6.190   3.591
91415SOL    HW276143  10.803   6.098   3.685
91416SOL     OW76144   3.944   9.323  13.420
91416SOL    HW176145   3.924   9.263  13.491
91416SOL    HW276146   3.922   9.410  13.455
91417SOL     OW76147   4.835   0.394   7.782
91417SOL    HW176148   4.861   0.475   7.737
91417SOL    HW276149   4.851   0.326   7.717
91418SOL     OW76150  10.151   2.143  10.743
91418SOL    HW176151  10.094   2.216  10.718
91418SOL    HW276152  10.103   2.065  10.715
91419SOL     OW76153  12.475   2.419  11.188
91419SOL    HW176154  12.549   2.441  11.245
91419SOL    HW276155  12.422   2.358  11.240
91420SOL     OW76156   0.147   7.425  12.703
91420SOL    HW176157   0.060   7.392  12.725
91420SOL    HW276158   0.183   7.457  12.786
91421SOL     OW76159   3.722   8.582   9.023
91421SOL    HW176160   3.775   8.661   9.013
91421SOL    HW276161   3.654   8.606   9.086
91422SOL     OW76162  13.370   7.367   3.240
91422SOL    HW176163  13.338   7.296   3.184
91422SOL    HW276164  13.343   7.447   3.195
91423SOL     OW76165   8.986  13.534  10.283
91423SOL    HW176166   9.078  13.559  10.285
91423SOL    HW276167   8.986  13.443  10.254
91424SOL     OW76168   4.504   5.499  14.568
91424SOL    HW176169   4.528   5.446  14.644
91424SOL    HW276170   4.491   5.435  14.498
91425SOL     OW76171  13.690   7.601  12.488
91425SOL    HW176172  13.719   7.687  12.520
91425SOL    HW276173  13.654   7.619  12.401
91426SOL     OW76174   9.274   7.190   3.897
91426SOL    HW176175   9.220   7.246   3.842
91426SOL    HW276176   9.352   7.172   3.844
91427SOL     OW76177  13.245   1.145   6.007
91427SOL    HW176178  13.150   1.147   5.996
91427SOL    HW276179  13.258   1.128   6.100
91428SOL     OW76180   2.597   8.085   2.756
91428SOL    HW176181   2.600   8.064   2.850
91428SOL    HW276182   2.683   8.122   2.736
91429SOL     OW76183  10.398   6.412   9.687
91429SOL    HW176184  10.313   6.454   9.683
91429SOL    HW276185  10.461   6.484   9.688
91430SOL     OW76186  13.543   6.391  10.004
91430SOL    HW176187  13.633   6.403  10.036
91430SOL    HW276188  13.554   6.358   9.915
91431SOL     OW76189   5.932   6.006   0.697
91431SOL    HW176190   5.912   5.959   0.616
91431SOL    HW276191   5.847   6.029   0.733
91432SOL     OW76192  13.632   8.777  11.895
91432SOL    HW176193  13.630   8.862  11.851
91432SOL    HW276194  13.714   8.778  11.945
91433SOL     OW76195  11.907   3.105   7.275
91433SOL    HW176196  11.885   3.093   7.367
91433SOL    HW276197  12.002   3.092   7.272
91434SOL     OW76198   5.947   6.299   2.341
91434SOL    HW176199   6.043   6.291   2.339
91434SOL    HW276200   5.916   6.210   2.321
91435SOL     OW76201   6.060   9.394  14.324
91435SOL    HW176202   6.065   9.345  14.406
91435SOL    HW276203   6.129   9.356  14.270
91436SOL     OW76204   9.517   3.524   2.734
91436SOL    HW176205   9.507   3.608   2.690
91436SOL    HW276206   9.604   3.493   2.707
91437SOL     OW76207   7.996   4.714   9.587
91437SOL    HW176208   8.071   4.669   9.549
91437SOL    HW276209   7.939   4.644   9.618
91438SOL     OW76210   8.410  10.331   7.951
91438SOL    HW176211   8.482  10.347   8.011
91438SOL    HW276212   8.440  10.365   7.867
91439SOL     OW76213  10.539   4.944   0.965
91439SOL    HW176214  10.466   4.937   0.903
91439SOL    HW276215  10.616   4.953   0.910
91440SOL     OW76216   0.536  11.261   2.444
91440SOL    HW176217   0.450  11.288   2.413
91440SOL    HW276218   0.586  11.343   2.451
91441SOL     OW76219   0.909  10.926   9.049
91441SOL    HW176220   0.999  10.958   9.054
91441SOL    HW276221   0.896  10.877   9.130
91442SOL     OW76222   3.052  11.319   0.961
91442SOL    HW176223   3.111  11.261   1.009
91442SOL    HW276224   3.019  11.380   1.027
91443SOL     OW76225   5.093   3.883  13.553
91443SOL    HW176226   5.065   3.871  13.644
91443SOL    HW276227   5.179   3.926  13.560
91444SOL     OW76228   6.782   8.340   0.680
91444SOL    HW176229   6.712   8.397   0.647
91444SOL    HW276230   6.796   8.369   0.770
91445SOL     OW76231  12.521   4.961   3.686
91445SOL    HW176232  12.604   4.948   3.732
91445SOL    HW276233  12.486   4.872   3.675
91446SOL     OW76234   7.776   0.699  11.841
91446SOL    HW176235   7.831   0.771  11.812
91446SOL    HW276236   7.797   0.627  11.781
91447SOL     OW76237   7.157   1.542   2.576
91447SOL    HW176238   7.167   1.635   2.594
91447SOL    HW276239   7.180   1.498   2.658
91448SOL     OW76240   0.581  14.436   5.102
91448SOL    HW176241   0.522  14.448   5.177
91448SOL    HW276242   0.527  14.392   5.037
91449SOL     OW76243   7.161  14.772   9.453
91449SOL    HW176244   7.119  14.789   9.538
91449SOL    HW276245   7.096  14.724   9.402
91450SOL     OW76246   9.814   5.340  12.470
91450SOL    HW176247   9.898   5.312  12.506
91450SOL    HW276248   9.830   5.350  12.376
91451SOL     OW76249   6.502   1.467   8.384
91451SOL    HW176250   6.423   1.421   8.356
91451SOL    HW276251   6.490   1.557   8.356
91452SOL     OW76252  14.832   0.556   3.017
91452SOL    HW176253  14.856   0.465   3.037
91452SOL    HW276254  14.736   0.557   3.020
91453SOL     OW76255   2.025  10.607   1.376
91453SOL    HW176256   1.951  10.549   1.356
91453SOL    HW276257   2.094  10.580   1.314
91454SOL     OW76258   4.421   1.592  10.977
91454SOL    HW176259   4.506   1.601  11.020
91454SOL    HW276260   4.442   1.586  10.884
91455SOL     OW76261   2.831   0.411  13.219
91455SOL    HW176262   2.748   0.413  13.266
91455SOL    HW276263   2.809   0.441  13.131
91456SOL     OW76264   6.912   1.432   3.834
91456SOL    HW176265   6.877   1.431   3.745
91456SOL    HW276266   6.858   1.495   3.881
91457SOL     OW76267  11.291   5.748   2.126
91457SOL    HW176268  11.209   5.702   2.111
91457SOL    HW276269  11.279   5.833   2.084
91458SOL     OW76270   7.177  10.858   9.355
91458SOL    HW176271   7.175  10.906   9.438
91458SOL    HW276272   7.239  10.906   9.301
91459SOL     OW76273   4.902   4.771  13.717
91459SOL    HW176274   4.940   4.779  13.804
91459SOL    HW276275   4.818   4.727  13.732
91460SOL     OW76276   1.165  14.606   3.837
91460SOL    HW176277   1.255  14.634   3.855
91460SOL    HW276278   1.169  14.511   3.837
91461SOL     OW76279   6.380   2.426   0.327
91461SOL    HW176280   6.468   2.462   0.314
91461SOL    HW276281   6.333   2.449   0.246
91462SOL     OW76282   6.009  11.917  12.450
91462SOL    HW176283   5.978  11.882  12.366
91462SOL    HW276284   6.055  11.845  12.492
91463SOL     OW76285   8.321   5.187  14.839
91463SOL    HW176286   8.338   5.267  14.789
91463SOL    HW276287   8.225   5.185  14.848
91464SOL     OW76288   9.135   2.603   2.388
91464SOL    HW176289   9.179   2.684   2.414
91464SOL    HW276290   9.043   2.616   2.413
91465SOL     OW76291   5.627   5.935   4.390
91465SOL    HW176292   5.702   5.875   4.382
91465SOL    HW276293   5.553   5.877   4.409
91466SOL     OW76294   9.859  13.940   4.051
91466SOL    HW176295   9.841  13.881   3.977
91466SOL    HW276296   9.936  13.990   4.024
91467SOL     OW76297   1.803  12.332  13.891
91467SOL    HW176298   1.823  12.312  13.982
91467SOL    HW276299   1.720  12.380  13.894
91468SOL     OW76300   3.683  14.486  14.654
91468SOL    HW176301   3.661  14.570  14.612
91468SOL    HW276302   3.772  14.468  14.625
91469SOL     OW76303   8.391   4.723   0.817
91469SOL    HW176304   8.354   4.724   0.729
91469SOL    HW276305   8.325   4.767   0.871
91470SOL     OW76306   8.736   3.019  10.229
91470SOL    HW176307   8.743   3.113  10.243
91470SOL    HW276308   8.680   2.988  10.300
91471SOL     OW76309   3.242   9.966   5.876
91471SOL    HW176310   3.322   9.918   5.854
91471SOL    HW276311   3.196   9.911   5.939
91472SOL     OW76312   0.570   1.134  14.785
91472SOL    HW176313   0.568   1.056  14.729
91472SOL    HW276314   0.589   1.206  14.725
91473SOL     OW76315  13.022   0.477  14.634
91473SOL    HW176316  13.081   0.443  14.567
91473SOL    HW276317  13.052   0.435  14.715
91474SOL     OW76318   7.383   0.636   2.689
91474SOL    HW176319   7.464   0.686   2.697
91474SOL    HW276320   7.353   0.624   2.780
91475SOL     OW76321   3.224  13.594  13.110
91475SOL    HW176322   3.173  13.513  13.115
91475SOL    HW276323   3.173  13.657  13.160
91476SOL     OW76324   7.666   4.056   5.027
91476SOL    HW176325   7.732   4.070   4.959
91476SOL    HW276326   7.593   4.113   5.001
91477SOL     OW76327   4.759   1.977   1.523
91477SOL    HW176328   4.681   2.020   1.558
91477SOL    HW276329   4.751   1.984   1.428
91478SOL     OW76330   7.999   1.521  14.024
91478SOL    HW176331   8.053   1.488  14.096
91478SOL    HW276332   7.921   1.557  14.067
91479SOL     OW76333   6.235  10.546   4.917
91479SOL    HW176334   6.154  10.517   4.962
91479SOL    HW276335   6.282  10.464   4.899
91480SOL     OW76336  11.722  14.066   3.198
91480SOL    HW176337  11.789  14.006   3.164
91480SOL    HW276338  11.702  14.123   3.124
91481SOL     OW76339   2.592   1.275   7.849
91481SOL    HW176340   2.589   1.262   7.755
91481SOL    HW276341   2.625   1.364   7.861
91482SOL     OW76342  10.224  13.694   8.715
91482SOL    HW176343  10.300  13.687   8.773
91482SOL    HW276344  10.175  13.769   8.749
91483SOL     OW76345   6.761  10.886   6.064
91483SOL    HW176346   6.735  10.949   5.996
91483SOL    HW276347   6.736  10.929   6.147
91484SOL     OW76348  13.155  11.838   5.905
91484SOL    HW176349  13.139  11.807   5.994
91484SOL    HW276350  13.069  11.839   5.863
91485SOL     OW76351   5.514   4.238   4.877
91485SOL    HW176352   5.600   4.261   4.911
91485SOL    HW276353   5.488   4.161   4.926
91486SOL     OW76354   7.964   5.856  11.042
91486SOL    HW176355   8.032   5.843  11.108
91486SOL    HW276356   8.013   5.881  10.963
91487SOL     OW76357   3.806   2.105  10.504
91487SOL    HW176358   3.881   2.048  10.486
91487SOL    HW276359   3.798   2.160  10.426
91488SOL     OW76360   7.380   3.485  13.805
91488SOL    HW176361   7.308   3.543  13.780
91488SOL    HW276362   7.417   3.526  13.883
91489SOL     OW76363   2.343   8.007   8.025
91489SOL    HW176364   2.262   7.960   8.007
91489SOL    HW276365   2.409   7.963   7.971
91490SOL     OW76366  11.130   4.795  12.068
91490SOL    HW176367  11.135   4.699  12.062
91490SOL    HW276368  11.171   4.826  11.987
91491SOL     OW76369   9.122   0.271   6.638
91491SOL    HW176370   9.192   0.290   6.575
91491SOL    HW276371   9.041   0.293   6.591
91492SOL     OW76372  12.191   3.479   9.904
91492SOL    HW176373  12.102   3.504   9.928
91492SOL    HW276374  12.204   3.515   9.816
91493SOL     OW76375   8.137   7.561   5.828
91493SOL    HW176376   8.133   7.474   5.790
91493SOL    HW276377   8.231   7.577   5.842
91494SOL     OW76378   3.059   8.930  13.296
91494SOL    HW176379   3.006   8.938  13.217
91494SOL    HW276380   3.116   9.007  13.296
91495SOL     OW76381  11.869   4.575   0.100
91495SOL    HW176382  11.877   4.670   0.110
91495SOL    HW276383  11.953   4.540   0.132
91496SOL     OW76384  11.712   8.033   4.322
91496SOL    HW176385  11.655   7.959   4.342
91496SOL    HW276386  11.749   8.013   4.237
91497SOL     OW76387   7.215  14.497   6.898
91497SOL    HW176388   7.290  14.448   6.932
91497SOL    HW276389   7.251  14.547   6.824
91498SOL     OW76390   4.357  13.474   8.969
91498SOL    HW176391   4.315  13.519   8.895
91498SOL    HW276392   4.435  13.433   8.931
91499SOL     OW76393  14.322   2.442  12.897
91499SOL    HW176394  14.304   2.404  12.983
91499SOL    HW276395  14.414   2.467  12.900
91500SOL     OW76396   5.420   8.860   0.394
91500SOL    HW176397   5.351   8.813   0.441
91500SOL    HW276398   5.385   8.948   0.380
91501SOL     OW76399  11.511   0.801   2.140
91501SOL    HW176400  11.523   0.782   2.047
91501SOL    HW276401  11.567   0.877   2.157
91502SOL     OW76402  13.383   9.556   1.765
91502SOL    HW176403  13.390   9.647   1.794
91502SOL    HW276404  13.293   9.531   1.785
91503SOL     OW76405   3.482   0.895   3.607
91503SOL    HW176406   3.554   0.917   3.665
91503SOL    HW276407   3.405   0.935   3.647
91504SOL     OW76408   3.565   4.618   2.796
91504SOL    HW176409   3.623   4.668   2.738
91504SOL    HW276410   3.624   4.568   2.852
91505SOL     OW76411   5.207  11.078   0.535
91505SOL    HW176412   5.131  11.095   0.591
91505SOL    HW276413   5.269  11.148   0.557
91506SOL     OW76414   5.537  11.756   4.186
91506SOL    HW176415   5.509  11.757   4.277
91506SOL    HW276416   5.496  11.833   4.147
91507SOL     OW76417  10.066  13.917  13.875
91507SOL    HW176418  10.065  13.927  13.779
91507SOL    HW276419  10.141  13.860  13.892
91508SOL     OW76420   8.899  14.002   7.344
91508SOL    HW176421   8.860  14.078   7.387
91508SOL    HW276422   8.825  13.959   7.300
91509SOL     OW76423   9.402  10.509  10.122
91509SOL    HW176424   9.436  10.587  10.078
91509SOL    HW276425   9.414  10.528  10.216
91510SOL     OW76426   0.069   8.540   1.164
91510SOL    HW176427   0.097   8.458   1.204
91510SOL    HW276428   0.114   8.608   1.213
91511SOL     OW76429   5.317  10.184   0.425
91511SOL    HW176430   5.352  10.116   0.368
91511SOL    HW276431   5.223  10.185   0.406
91512SOL     OW76432   5.940   1.693  10.305
91512SOL    HW176433   5.851   1.695  10.340
91512SOL    HW276434   5.991   1.744  10.367
91513SOL     OW76435   6.401   7.183   7.018
91513SOL    HW176436   6.489   7.214   7.037
91513SOL    HW276437   6.346   7.261   7.027
91514SOL     OW76438   6.930  11.125  13.134
91514SOL    HW176439   7.025  11.133  13.140
91514SOL    HW276440   6.902  11.199  13.080
91515SOL     OW76441  11.969  12.284   9.632
91515SOL    HW176442  12.052  12.237   9.626
91515SOL    HW276443  11.969  12.322   9.720
91516SOL     OW76444  13.368  10.150  12.242
91516SOL    HW176445  13.340  10.225  12.189
91516SOL    HW276446  13.317  10.157  12.322
91517SOL     OW76447   0.886   7.094   2.601
91517SOL    HW176448   0.951   7.118   2.536
91517SOL    HW276449   0.802   7.105   2.556
91518SOL     OW76450   2.018   3.469   9.413
91518SOL    HW176451   1.996   3.435   9.499
91518SOL    HW276452   2.048   3.392   9.364
91519SOL     OW76453   1.781   2.953  10.140
91519SOL    HW176454   1.808   3.041  10.166
91519SOL    HW276455   1.814   2.896  10.210
91520SOL     OW76456  10.449   2.980   7.098
91520SOL    HW176457  10.480   2.999   7.186
91520SOL    HW276458  10.355   2.995   7.102
91521SOL     OW76459  12.213   4.485  10.516
91521SOL    HW176460  12.142   4.494  10.452
91521SOL    HW276461  12.264   4.410  10.484
91522SOL     OW76462   9.135   6.553  12.065
91522SOL    HW176463   9.151   6.459  12.073
91522SOL    HW276464   9.072   6.572  12.135
91523SOL     OW76465   8.353   5.771   2.620
91523SOL    HW176466   8.278   5.712   2.628
91523SOL    HW276467   8.418   5.720   2.571
91524SOL     OW76468  13.090  10.423   0.471
91524SOL    HW176469  13.111  10.329   0.477
91524SOL    HW276470  13.166  10.462   0.429
91525SOL     OW76471   8.035   5.908   3.538
91525SOL    HW176472   8.048   5.826   3.491
91525SOL    HW276473   8.012   5.882   3.627
91526SOL     OW76474   8.213   7.531   5.427
91526SOL    HW176475   8.129   7.515   5.472
91526SOL    HW276476   8.255   7.445   5.426
91527SOL     OW76477   1.771   1.423   4.091
91527SOL    HW176478   1.749   1.350   4.148
91527SOL    HW276479   1.708   1.491   4.115
91528SOL     OW76480   9.939   1.626  12.685
91528SOL    HW176481   9.932   1.544  12.637
91528SOL    HW276482   9.871   1.620  12.753
91529SOL     OW76483   2.006  11.881  12.125
91529SOL    HW176484   1.917  11.871  12.091
91529SOL    HW276485   2.007  11.829  12.205
91530SOL     OW76486  13.278   8.322  10.251
91530SOL    HW176487  13.233   8.317  10.167
91530SOL    HW276488  13.213   8.290  10.314
91531SOL     OW76489   9.613   7.944  12.022
91531SOL    HW176490   9.523   7.913  12.010
91531SOL    HW276491   9.662   7.865  12.045
91532SOL     OW76492   8.460   6.951   8.377
91532SOL    HW176493   8.422   6.884   8.320
91532SOL    HW276494   8.554   6.935   8.373
91533SOL     OW76495   6.097  11.546   1.791
91533SOL    HW176496   6.113  11.633   1.754
91533SOL    HW276497   6.003  11.531   1.778
91534SOL     OW76498   2.631   5.284   7.117
91534SOL    HW176499   2.673   5.302   7.033
91534SOL    HW276500   2.542   5.258   7.094
91535SOL     OW76501  12.000  11.502  10.814
91535SOL    HW176502  11.982  11.461  10.899
91535SOL    HW276503  12.078  11.457  10.782
91536SOL     OW76504   9.620   5.291   7.320
91536SOL    HW176505   9.666   5.242   7.387
91536SOL    HW276506   9.531   5.255   7.320
91537SOL     OW76507   8.347   9.023   1.013
91537SOL    HW176508   8.378   9.035   1.103
91537SOL    HW276509   8.283   8.953   1.020
91538SOL     OW76510   0.176   3.654  10.950
91538SOL    HW176511   0.142   3.672  10.863
91538SOL    HW276512   0.155   3.563  10.966
91539SOL     OW76513   7.283  11.496   8.460
91539SOL    HW176514   7.188  11.509   8.457
91539SOL    HW276515   7.318  11.559   8.397
91540SOL     OW76516   6.476   0.169   1.508
91540SOL    HW176517   6.519   0.100   1.559
91540SOL    HW276518   6.469   0.243   1.569
91541SOL     OW76519   1.174   3.851  14.400
91541SOL    HW176520   1.121   3.774  14.421
91541SOL    HW276521   1.181   3.899  14.483
91542SOL     OW76522   5.901  11.961  11.631
91542SOL    HW176523   5.926  11.907  11.706
91542SOL    HW276524   5.824  12.009  11.661
91543SOL     OW76525   0.213  14.006   3.771
91543SOL    HW176526   0.249  13.932   3.821
91543SOL    HW276527   0.135  14.032   3.820
91544SOL     OW76528  10.724   1.345   4.628
91544SOL    HW176529  10.797   1.404   4.645
91544SOL    HW276530  10.668   1.393   4.567
91545SOL     OW76531   4.223  11.368   8.023
91545SOL    HW176532   4.270  11.422   7.959
91545SOL    HW276533   4.175  11.304   7.969
91546SOL     OW76534   2.620   0.760   9.774
91546SOL    HW176535   2.638   0.838   9.828
91546SOL    HW276536   2.677   0.770   9.698
91547SOL     OW76537   6.426   9.993   2.860
91547SOL    HW176538   6.472  10.048   2.923
91547SOL    HW276539   6.395   9.918   2.911
91548SOL     OW76540   2.050  10.774  12.385
91548SOL    HW176541   2.115  10.839  12.359
91548SOL    HW276542   2.039  10.719  12.308
91549SOL     OW76543  12.997  10.031  12.761
91549SOL    HW176544  12.925  10.095  12.763
91549SOL    HW276545  13.017  10.015  12.853
91550SOL     OW76546  11.160   2.599   8.469
91550SOL    HW176547  11.121   2.556   8.545
91550SOL    HW276548  11.242   2.636   8.502
91551SOL     OW76549   5.035   9.258  13.846
91551SOL    HW176550   5.002   9.302  13.768
91551SOL    HW276551   5.008   9.166  13.834
91552SOL     OW76552   3.761  10.944   1.186
91552SOL    HW176553   3.818  11.014   1.217
91552SOL    HW276554   3.739  10.894   1.265
91553SOL     OW76555   4.208  14.221   9.445
91553SOL    HW176556   4.236  14.309   9.419
91553SOL    HW276557   4.190  14.229   9.539
91554SOL     OW76558  14.808   8.714   6.021
91554SOL    HW176559  14.747   8.785   6.000
91554SOL    HW276560  14.834   8.731   6.112
91555SOL     OW76561   7.620  10.913   7.137
91555SOL    HW176562   7.572  10.867   7.206
91555SOL    HW276563   7.565  10.989   7.117
91556SOL     OW76564  11.194  14.783   5.783
91556SOL    HW176565  11.264  14.820   5.836
91556SOL    HW276566  11.235  14.712   5.733
91557SOL     OW76567   2.830   3.022  14.318
91557SOL    HW176568   2.852   2.989  14.405
91557SOL    HW276569   2.914   3.030  14.273
91558SOL     OW76570   7.585   4.674   6.871
91558SOL    HW176571   7.561   4.747   6.929
91558SOL    HW276572   7.624   4.716   6.794
91559SOL     OW76573  13.666   3.063   0.911
91559SOL    HW176574  13.640   2.971   0.905
91559SOL    HW276575  13.653   3.085   1.003
91560SOL     OW76576   7.105   8.294   3.099
91560SOL    HW176577   7.080   8.322   3.187
91560SOL    HW276578   7.061   8.210   3.087
91561SOL     OW76579   5.446   2.093   7.515
91561SOL    HW176580   5.444   2.057   7.603
91561SOL    HW276581   5.377   2.159   7.514
91562SOL     OW76582   7.805   3.877   0.978
91562SOL    HW176583   7.766   3.948   1.030
91562SOL    HW276584   7.789   3.902   0.887
91563SOL     OW76585   1.118   2.457   0.810
91563SOL    HW176586   1.182   2.386   0.807
91563SOL    HW276587   1.169   2.537   0.798
91564SOL     OW76588   4.733   3.477  14.507
91564SOL    HW176589   4.678   3.450  14.581
91564SOL    HW276590   4.690   3.555  14.472
91565SOL     OW76591   9.046  14.606   6.275
91565SOL    HW176592   9.126  14.554   6.273
91565SOL    HW276593   8.982  14.552   6.321
91566SOL     OW76594  12.291   4.475   5.082
91566SOL    HW176595  12.205   4.457   5.118
91566SOL    HW276596  12.336   4.391   5.084
91567SOL     OW76597   9.521   0.836  14.504
91567SOL    HW176598   9.458   0.792  14.561
91567SOL    HW276599   9.545   0.771  14.439
91568SOL     OW76600  10.279   2.695  13.938
91568SOL    HW176601  10.373   2.688  13.925
91568SOL    HW276602  10.268   2.760  14.008
91569SOL     OW76603   8.428   6.369   4.676
91569SOL    HW176604   8.336   6.371   4.702
91569SOL    HW276605   8.438   6.287   4.628
91570SOL     OW76606  14.663  11.831  14.431
91570SOL    HW176607  14.658  11.738  14.452
91570SOL    HW276608  14.675  11.875  14.515
91571SOL     OW76609  13.978   2.129   9.903
91571SOL    HW176610  13.951   2.200   9.844
91571SOL    HW276611  14.069   2.149   9.925
91572SOL     OW76612   9.657  11.301   1.887
91572SOL    HW176613   9.678  11.286   1.979
91572SOL    HW276614   9.596  11.374   1.888
91573SOL     OW76615   3.650   2.704   6.589
91573SOL    HW176616   3.640   2.680   6.681
91573SOL    HW276617   3.742   2.729   6.580
91574SOL     OW76618   6.717   2.013  10.312
91574SOL    HW176619   6.722   2.102  10.346
91574SOL    HW276620   6.754   1.958  10.382
91575SOL     OW76621   1.136   8.362   0.635
91575SOL    HW176622   1.174   8.382   0.550
91575SOL    HW276623   1.077   8.436   0.652
91576SOL     OW76624   8.626   7.268   3.419
91576SOL    HW176625   8.576   7.344   3.388
91576SOL    HW276626   8.695   7.306   3.474
91577SOL     OW76627   0.817  14.413   4.068
91577SOL    HW176628   0.879  14.351   4.107
91577SOL    HW276629   0.755  14.433   4.139
91578SOL     OW76630   0.564   6.592  13.060
91578SOL    HW176631   0.620   6.564  12.988
91578SOL    HW276632   0.562   6.518  13.120
91579SOL     OW76633  14.487  10.192  10.954
91579SOL    HW176634  14.492  10.201  11.049
91579SOL    HW276635  14.408  10.239  10.929
91580SOL     OW76636   9.727   6.679   9.002
91580SOL    HW176637   9.800   6.632   9.043
91580SOL    HW276638   9.667   6.610   8.974
91581SOL     OW76639   0.654   3.293   9.158
91581SOL    HW176640   0.700   3.282   9.242
91581SOL    HW276641   0.725   3.304   9.094
91582SOL     OW76642  13.629   4.887   6.644
91582SOL    HW176643  13.547   4.919   6.606
91582SOL    HW276644  13.604   4.806   6.689
91583SOL     OW76645  10.756  14.810  13.050
91583SOL    HW176646  10.683  14.864  13.081
91583SOL    HW276647  10.820  14.813  13.121
91584SOL     OW76648  11.202  10.294   2.558
91584SOL    HW176649  11.275  10.352   2.536
91584SOL    HW276650  11.187  10.309   2.652
91585SOL     OW76651   6.164   2.191   1.372
91585SOL    HW176652   6.130   2.127   1.309
91585SOL    HW276653   6.235   2.235   1.326
91586SOL     OW76654  13.171   1.809   5.295
91586SOL    HW176655  13.141   1.899   5.303
91586SOL    HW276656  13.099   1.763   5.252
91587SOL     OW76657   6.399   9.682   4.306
91587SOL    HW176658   6.427   9.763   4.349
91587SOL    HW276659   6.479   9.645   4.269
91588SOL     OW76660   7.032   0.252  12.983
91588SOL    HW176661   7.106   0.229  13.040
91588SOL    HW276662   6.956   0.210  13.024
91589SOL     OW76663  14.799   1.612   5.690
91589SOL    HW176664  14.816   1.537   5.747
91589SOL    HW276665  14.725   1.585   5.635
91590SOL     OW76666  10.046   4.810   0.279
91590SOL    HW176667  10.043   4.777   0.190
91590SOL    HW276668   9.976   4.875   0.284
91591SOL     OW76669   6.980  10.101   4.151
91591SOL    HW176670   7.040  10.044   4.199
91591SOL    HW276671   6.990  10.075   4.059
91592SOL     OW76672  10.146   6.201   1.389
91592SOL    HW176673  10.201   6.231   1.462
91592SOL    HW276674  10.205   6.195   1.315
91593SOL     OW76675   6.351   8.555   9.194
91593SOL    HW176676   6.428   8.531   9.246
91593SOL    HW276677   6.314   8.471   9.167
91594SOL     OW76678   4.975   3.103   7.986
91594SOL    HW176679   4.964   3.178   7.928
91594SOL    HW276680   5.050   3.126   8.041
91595SOL     OW76681   5.236   7.985  13.863
91595SOL    HW176682   5.222   7.997  13.769
91595SOL    HW276683   5.226   7.891  13.878
91596SOL     OW76684  13.036   1.082   7.773
91596SOL    HW176685  12.948   1.070   7.807
91596SOL    HW276686  13.089   1.102   7.850
91597SOL     OW76687   3.762   7.119   6.060
91597SOL    HW176688   3.811   7.181   6.115
91597SOL    HW276689   3.819   7.104   5.984
91598SOL     OW76690  12.926  14.864   3.921
91598SOL    HW176691  12.910   0.052   3.991
91598SOL    HW276692  13.000  14.812   3.953
91599SOL     OW76693  14.186   1.803   9.205
91599SOL    HW176694  14.142   1.740   9.147
91599SOL    HW276695  14.261   1.755   9.239
91600SOL     OW76696   3.168   0.379   8.571
91600SOL    HW176697   3.186   0.313   8.505
91600SOL    HW276698   3.151   0.330   8.651
91601SOL     OW76699   6.884  10.226   9.430
91601SOL    HW176700   6.892  10.157   9.496
91601SOL    HW276701   6.954  10.207   9.367
91602SOL     OW76702   5.298   6.626   0.553
91602SOL    HW176703   5.369   6.623   0.618
91602SOL    HW276704   5.234   6.563   0.586
91603SOL     OW76705  10.975  11.313   6.603
91603SOL    HW176706  10.927  11.387   6.566
91603SOL    HW276707  11.014  11.348   6.683
91604SOL     OW76708   9.119  13.048  14.585
91604SOL    HW176709   9.191  13.110  14.578
91604SOL    HW276710   9.050  13.097  14.631
91605SOL     OW76711   4.100   1.751   5.661
91605SOL    HW176712   4.122   1.760   5.753
91605SOL    HW276713   4.184   1.735   5.617
91606SOL     OW76714   5.884   6.419   9.115
91606SOL    HW176715   5.846   6.497   9.075
91606SOL    HW276716   5.821   6.393   9.182
91607SOL     OW76717   5.427  13.092   2.496
91607SOL    HW176718   5.449  13.184   2.510
91607SOL    HW276719   5.396  13.061   2.581
91608SOL     OW76720   3.198   8.381   0.620
91608SOL    HW176721   3.270   8.382   0.557
91608SOL    HW276722   3.180   8.288   0.633
91609SOL     OW76723   0.941   0.667   4.749
91609SOL    HW176724   1.027   0.626   4.760
91609SOL    HW276725   0.959   0.760   4.740
91610SOL     OW76726   7.368   8.882   0.691
91610SOL    HW176727   7.410   8.967   0.703
91610SOL    HW276728   7.274   8.900   0.703
91611SOL     OW76729   6.298   8.377  10.808
91611SOL    HW176730   6.305   8.312  10.878
91611SOL    HW276731   6.382   8.373  10.763
91612SOL     OW76732   1.861   9.454  12.077
91612SOL    HW176733   1.859   9.394  12.152
91612SOL    HW276734   1.770   9.483  12.068
91613SOL     OW76735  12.541  12.976   9.453
91613SOL    HW176736  12.514  12.893   9.493
91613SOL    HW276737  12.470  12.998   9.392
91614SOL     OW76738   7.087   3.978  10.905
91614SOL    HW176739   7.106   3.906  10.845
91614SOL    HW276740   6.997   4.004  10.884
91615SOL     OW76741   8.152  10.531   4.054
91615SOL    HW176742   8.208  10.591   4.104
91615SOL    HW276743   8.166  10.555   3.963
91616SOL     OW76744  14.827   3.177  11.353
91616SOL    HW176745  14.831   3.252  11.294
91616SOL    HW276746  14.792   3.106  11.298
91617SOL     OW76747  11.695  11.029   5.908
91617SOL    HW176748  11.724  11.113   5.944
91617SOL    HW276749  11.752  11.015   5.833
91618SOL     OW76750   0.790   0.957   6.163
91618SOL    HW176751   0.724   0.988   6.224
91618SOL    HW276752   0.745   0.948   6.079
91619SOL     OW76753   2.913  14.294   5.056
91619SOL    HW176754   2.884  14.362   4.995
91619SOL    HW276755   2.833  14.266   5.101
91620SOL     OW76756   1.840   6.317   4.920
91620SOL    HW176757   1.910   6.270   4.874
91620SOL    HW276758   1.840   6.280   5.008
91621SOL     OW76759  11.780   0.882  13.617
91621SOL    HW176760  11.806   0.820  13.548
91621SOL    HW276761  11.685   0.892  13.604
91622SOL     OW76762   8.061   9.548   3.840
91622SOL    HW176763   8.023   9.635   3.849
91622SOL    HW276764   8.025   9.514   3.758
91623SOL     OW76765   0.938   2.442   7.318
91623SOL    HW176766   0.954   2.531   7.350
91623SOL    HW276767   0.850   2.445   7.282
91624SOL     OW76768  10.312   6.345   9.181
91624SOL    HW176769  10.312   6.256   9.146
91624SOL    HW276770  10.365   6.395   9.118
91625SOL     OW76771   6.251   4.586   6.635
91625SOL    HW176772   6.339   4.624   6.633
91625SOL    HW276773   6.244   4.536   6.554
91626SOL     OW76774   5.758   3.950   9.493
91626SOL    HW176775   5.819   3.953   9.567
91626SOL    HW276776   5.813   3.965   9.416
91627SOL     OW76777  11.710  14.325   8.363
91627SOL    HW176778  11.713  14.397   8.426
91627SOL    HW276779  11.785  14.340   8.306
91628SOL     OW76780   1.879   9.153  12.571
91628SOL    HW176781   1.878   9.216  12.643
91628SOL    HW276782   1.825   9.081  12.601
91629SOL     OW76783   4.455   4.001  10.943
91629SOL    HW176784   4.387   4.032  11.003
91629SOL    HW276785   4.533   3.991  10.998
91630SOL     OW76786   3.539  10.434   9.669
91630SOL    HW176787   3.502  10.521   9.659
91630SOL    HW276788   3.632  10.449   9.684
91631SOL     OW76789   5.757   0.102   6.616
91631SOL    HW176790   5.747   0.018   6.571
91631SOL    HW276791   5.836   0.091   6.669
91632SOL     OW76792  14.777   4.734   1.281
91632SOL    HW176793  14.846   4.723   1.216
91632SOL    HW276794  14.707   4.675   1.253
91633SOL     OW76795   8.642   7.777   6.389
91633SOL    HW176796   8.708   7.834   6.348
91633SOL    HW276797   8.574   7.768   6.322
91634SOL     OW76798  14.670  11.847   2.723
91634SOL    HW176799  14.667  11.893   2.807
91634SOL    HW276800  14.591  11.792   2.724
91635SOL     OW76801  14.070   0.158  14.499
91635SOL    HW176802  14.029   0.212  14.431
91635SOL    HW276803  14.025   0.074  14.494
91636SOL     OW76804   5.802  13.766  12.161
91636SOL    HW176805   5.889  13.726  12.153
91636SOL    HW276806   5.782  13.797  12.072
91637SOL     OW76807   8.601   0.307   1.429
91637SOL    HW176808   8.607   0.384   1.485
91637SOL    HW276809   8.671   0.249   1.462
91638SOL     OW76810  13.759   4.194  11.560
91638SOL    HW176811  13.785   4.103  11.575
91638SOL    HW276812  13.713   4.192  11.476
91639SOL     OW76813  14.108   9.246   3.982
91639SOL    HW176814  14.189   9.233   4.031
91639SOL    HW276815  14.070   9.158   3.974
91640SOL     OW76816   6.098   4.818   2.022
91640SOL    HW176817   6.112   4.729   1.988
91640SOL    HW276818   6.068   4.804   2.112
91641SOL     OW76819  10.360   6.272  10.081
91641SOL    HW176820  10.289   6.219  10.117
91641SOL    HW276821  10.315   6.338  10.027
91642SOL     OW76822   4.845   3.592   3.789
91642SOL    HW176823   4.883   3.522   3.842
91642SOL    HW276824   4.897   3.591   3.709
91643SOL     OW76825   1.956   9.408  10.421
91643SOL    HW176826   1.887   9.345  10.443
91643SOL    HW276827   2.002   9.423  10.503
91644SOL     OW76828   9.823   8.193   0.135
91644SOL    HW176829   9.814   8.239   0.052
91644SOL    HW276830   9.910   8.218   0.167
91645SOL     OW76831   5.110  12.563   4.440
91645SOL    HW176832   5.083  12.477   4.408
91645SOL    HW276833   5.032  12.597   4.486
91646SOL     OW76834   2.983  10.996   7.782
91646SOL    HW176835   3.001  10.914   7.735
91646SOL    HW276836   2.955  10.968   7.869
91647SOL     OW76837  11.378   1.736  11.331
91647SOL    HW176838  11.389   1.829  11.313
91647SOL    HW276839  11.399   1.726  11.423
91648SOL     OW76840   9.194  13.986  11.657
91648SOL    HW176841   9.121  14.025  11.705
91648SOL    HW276842   9.271  14.037  11.686
91649SOL     OW76843  14.055   5.330   2.218
91649SOL    HW176844  13.976   5.356   2.170
91649SOL    HW276845  14.022   5.296   2.301
91650SOL     OW76846   4.428   5.701  14.243
91650SOL    HW176847   4.414   5.776  14.185
91650SOL    HW276848   4.458   5.631  14.184
91651SOL     OW76849   9.733  13.875  12.006
91651SOL    HW176850   9.752  13.833  12.090
91651SOL    HW276851   9.695  13.805  11.953
91652SOL     OW76852   6.888  10.699   7.371
91652SOL    HW176853   6.909  10.788   7.401
91652SOL    HW276854   6.932  10.691   7.287
91653SOL     OW76855   0.332  13.588  13.509
91653SOL    HW176856   0.282  13.664  13.540
91653SOL    HW276857   0.273  13.546  13.446
91654SOL     OW76858  12.915   2.762  11.807
91654SOL    HW176859  12.956   2.849  11.804
91654SOL    HW276860  12.835   2.775  11.858
91655SOL     OW76861   3.624  11.162   9.653
91655SOL    HW176862   3.612  11.227   9.584
91655SOL    HW276863   3.709  11.183   9.692
91656SOL     OW76864   6.603   7.927  12.382
91656SOL    HW176865   6.609   7.892  12.293
91656SOL    HW276866   6.678   7.986  12.389
91657SOL     OW76867   2.262   5.428   6.923
91657SOL    HW176868   2.286   5.336   6.913
91657SOL    HW276869   2.273   5.446   7.016
91658SOL     OW76870  14.012   6.162   9.419
91658SOL    HW176871  13.940   6.123   9.369
91658SOL    HW276872  14.026   6.101   9.492
91659SOL     OW76873  12.554   2.176   1.391
91659SOL    HW176874  12.565   2.134   1.306
91659SOL    HW276875  12.638   2.163   1.435
91660SOL     OW76876   9.563   7.531   8.383
91660SOL    HW176877   9.635   7.491   8.334
91660SOL    HW276878   9.486   7.481   8.356
91661SOL     OW76879  10.159   7.579  14.364
91661SOL    HW176880  10.200   7.598  14.448
91661SOL    HW276881  10.228   7.537  14.313
91662SOL     OW76882   3.053  13.796   0.693
91662SOL    HW176883   2.975  13.851   0.697
91662SOL    HW276884   3.083  13.805   0.602
91663SOL     OW76885   9.228   1.950   1.655
91663SOL    HW176886   9.298   1.950   1.589
91663SOL    HW276887   9.147   1.948   1.603
91664SOL     OW76888   5.369   6.224   5.957
91664SOL    HW176889   5.457   6.188   5.967
91664SOL    HW276890   5.381   6.319   5.960
91665SOL     OW76891  10.949   8.659  10.391
91665SOL    HW176892  10.960   8.564  10.403
91665SOL    HW276893  10.935   8.669  10.297
91666SOL     OW76894   0.239  12.788   4.225
91666SOL    HW176895   0.173  12.826   4.167
91666SOL    HW276896   0.301  12.859   4.241
91667SOL     OW76897  13.168  11.669   6.777
91667SOL    HW176898  13.177  11.758   6.810
91667SOL    HW276899  13.139  11.618   6.853
91668SOL     OW76900   1.772  13.872   0.160
91668SOL    HW176901   1.807  13.792   0.120
91668SOL    HW276902   1.678  13.857   0.166
91669SOL     OW76903   4.049  14.311   3.594
91669SOL    HW176904   4.017  14.343   3.678
91669SOL    HW276905   4.145  14.315   3.602
91670SOL     OW76906  11.562   7.086   8.433
91670SOL    HW176907  11.547   7.054   8.522
91670SOL    HW276908  11.652   7.060   8.413
91671SOL     OW76909   6.346   2.357   1.236
91671SOL    HW176910   6.392   2.441   1.244
91671SOL    HW276911   6.409   2.292   1.265
91672SOL     OW76912   5.482   6.093   2.467
91672SOL    HW176913   5.511   6.136   2.387
91672SOL    HW276914   5.505   6.001   2.455
91673SOL     OW76915  11.143  12.631   0.534
91673SOL    HW176916  11.077  12.562   0.538
91673SOL    HW276917  11.098  12.708   0.569
91674SOL     OW76918  13.355   3.660   4.090
91674SOL    HW176919  13.347   3.642   3.996
91674SOL    HW276920  13.274   3.624   4.128
91675SOL     OW76921   7.793  14.042   9.106
91675SOL    HW176922   7.747  13.960   9.121
91675SOL    HW276923   7.881  14.027   9.141
91676SOL     OW76924   3.879   5.159  11.856
91676SOL    HW176925   3.952   5.176  11.915
91676SOL    HW276926   3.850   5.246  11.827
91677SOL     OW76927   4.373  10.854  13.008
91677SOL    HW176928   4.321  10.808  12.943
91677SOL    HW276929   4.405  10.932  12.963
91678SOL     OW76930   8.261   0.843   2.299
91678SOL    HW176931   8.184   0.899   2.288
91678SOL    HW276932   8.321   0.871   2.230
91679SOL     OW76933  12.038   5.604   4.996
91679SOL    HW176934  12.059   5.511   4.984
91679SOL    HW276935  12.074   5.625   5.082
91680SOL     OW76936   2.583   1.452  14.341
91680SOL    HW176937   2.601   1.531  14.289
91680SOL    HW276938   2.515   1.406  14.293
91681SOL     OW76939  12.366  10.313   9.639
91681SOL    HW176940  12.356  10.406   9.660
91681SOL    HW276941  12.343  10.307   9.546
91682SOL     OW76942   2.782   9.089   1.358
91682SOL    HW176943   2.707   9.148   1.358
91682SOL    HW276944   2.752   9.011   1.405
91683SOL     OW76945   8.600   0.557   0.231
91683SOL    HW176946   8.672   0.615   0.255
91683SOL    HW276947   8.581   0.510   0.312
91684SOL     OW76948   8.694  14.253  12.650
91684SOL    HW176949   8.764  14.288  12.596
91684SOL    HW276950   8.690  14.160  12.627
91685SOL     OW76951   7.989   5.816   1.606
91685SOL    HW176952   7.996   5.742   1.545
91685SOL    HW276953   7.906   5.802   1.651
91686SOL     OW76954  10.630   6.127   6.986
91686SOL    HW176955  10.552   6.073   6.971
91686SOL    HW276956  10.678   6.123   6.903
91687SOL     OW76957  10.231   9.890   0.003
91687SOL    HW176958  10.269   9.829  14.816
91687SOL    HW276959  10.253   9.977  14.843
91688SOL     OW76960  13.745   5.825  11.194
91688SOL    HW176961  13.665   5.785  11.160
91688SOL    HW276962  13.735   5.820  11.289
91689SOL     OW76963   3.752   8.375   7.879
91689SOL    HW176964   3.718   8.383   7.968
91689SOL    HW276965   3.778   8.283   7.872
91690SOL     OW76966   1.402   7.581   4.001
91690SOL    HW176967   1.310   7.604   4.006
91690SOL    HW276968   1.402   7.489   3.974
91691SOL     OW76969  10.527   8.928   3.836
91691SOL    HW176970  10.464   8.991   3.872
91691SOL    HW276971  10.561   8.971   3.758
91692SOL     OW76972   6.595   6.150  14.562
91692SOL    HW176973   6.604   6.233  14.609
91692SOL    HW276974   6.553   6.091  14.625
91693SOL     OW76975  12.796   7.107   8.555
91693SOL    HW176976  12.818   7.139   8.642
91693SOL    HW276977  12.851   7.030   8.544
91694SOL     OW76978   3.271  10.311   8.647
91694SOL    HW176979   3.262  10.230   8.699
91694SOL    HW276980   3.362  10.337   8.659
91695SOL     OW76981  13.407  14.771  13.071
91695SOL    HW176982  13.466  14.711  13.025
91695SOL    HW276983  13.465  14.825  13.125
91696SOL     OW76984   0.012   6.063  14.791
91696SOL    HW176985   0.020   6.072  14.697
91696SOL    HW276986   0.038   6.148  14.826
91697SOL     OW76987  14.838   5.415   3.620
91697SOL    HW176988   0.025   5.468   3.670
91697SOL    HW276989  14.793   5.478   3.564
91698SOL     OW76990  13.394   9.732   1.162
91698SOL    HW176991  13.385   9.795   1.234
91698SOL    HW276992  13.398   9.647   1.205
91699SOL     OW76993   7.819   8.281   5.395
91699SOL    HW176994   7.777   8.336   5.460
91699SOL    HW276995   7.859   8.210   5.446
91700SOL     OW76996  10.936   5.301  14.393
91700SOL    HW176997  10.971   5.214  14.414
91700SOL    HW276998  10.843   5.295  14.415
91701SOL     OW76999  13.228  14.263   7.543
91701SOL    HW177000  13.265  14.214   7.470
91701SOL    HW277001  13.138  14.280   7.517
91702SOL     OW77002  13.224  11.595   9.123
91702SOL    HW177003  13.208  11.624   9.033
91702SOL    HW277004  13.142  11.613   9.169
91703SOL     OW77005   9.915   0.807   5.117
91703SOL    HW177006   9.824   0.836   5.112
91703SOL    HW277007   9.911   0.713   5.103
91704SOL     OW77008   1.736   6.008   3.193
91704SOL    HW177009   1.662   6.060   3.223
91704SOL    HW277010   1.813   6.051   3.232
91705SOL     OW77011   4.161   4.385   7.526
91705SOL    HW177012   4.065   4.384   7.518
91705SOL    HW277013   4.186   4.293   7.519
91706SOL     OW77014  11.114   6.142   5.138
91706SOL    HW177015  11.114   6.164   5.045
91706SOL    HW277016  11.024   6.114   5.156
91707SOL     OW77017   0.446   6.782   2.683
91707SOL    HW177018   0.452   6.716   2.613
91707SOL    HW277019   0.355   6.812   2.678
91708SOL     OW77020  11.034  14.322   7.846
91708SOL    HW177021  10.943  14.349   7.840
91708SOL    HW277022  11.042  14.249   7.785
91709SOL     OW77023   2.908  12.886   7.241
91709SOL    HW177024   2.977  12.927   7.188
91709SOL    HW277025   2.955  12.822   7.295
91710SOL     OW77026  11.597   5.728   3.177
91710SOL    HW177027  11.532   5.789   3.141
91710SOL    HW277028  11.646   5.781   3.240
91711SOL     OW77029   7.441  14.824   2.630
91711SOL    HW177030   7.414   0.024   2.684
91711SOL    HW277031   7.443  14.750   2.692
91712SOL     OW77032  11.405  12.209   6.282
91712SOL    HW177033  11.464  12.193   6.208
91712SOL    HW277034  11.452  12.269   6.339
91713SOL     OW77035  12.898   8.702  14.482
91713SOL    HW177036  12.868   8.645  14.411
91713SOL    HW277037  12.922   8.642  14.553
91714SOL     OW77038  12.500   3.788  12.167
91714SOL    HW177039  12.442   3.821  12.098
91714SOL    HW277040  12.528   3.702  12.136
91715SOL     OW77041  10.234   1.900   9.045
91715SOL    HW177042  10.272   1.874   8.961
91715SOL    HW277043  10.142   1.878   9.038
91716SOL     OW77044  10.827   9.352   9.982
91716SOL    HW177045  10.836   9.331  10.075
91716SOL    HW277046  10.813   9.268   9.939
91717SOL     OW77047   6.376   8.214   4.857
91717SOL    HW177048   6.454   8.160   4.869
91717SOL    HW277049   6.328   8.173   4.785
91718SOL     OW77050  13.114   1.629   0.637
91718SOL    HW177051  13.197   1.644   0.682
91718SOL    HW277052  13.139   1.593   0.552
91719SOL     OW77053  12.828  13.105  13.929
91719SOL    HW177054  12.899  13.116  13.865
91719SOL    HW277055  12.757  13.159  13.896
91720SOL     OW77056   4.196   3.571   6.829
91720SOL    HW177057   4.130   3.592   6.762
91720SOL    HW277058   4.161   3.609   6.910
91721SOL     OW77059   4.613  13.578   5.556
91721SOL    HW177060   4.599  13.673   5.554
91721SOL    HW277061   4.525  13.541   5.555
91722SOL     OW77062   8.330  11.635   2.515
91722SOL    HW177063   8.315  11.573   2.586
91722SOL    HW277064   8.300  11.589   2.436
91723SOL     OW77065   5.238   7.151   1.667
91723SOL    HW177066   5.212   7.243   1.673
91723SOL    HW277067   5.285   7.145   1.584
91724SOL     OW77068   6.237  11.292  10.064
91724SOL    HW177069   6.173  11.322   9.999
91724SOL    HW277070   6.304  11.247  10.012
91725SOL     OW77071  10.971  11.640  10.190
91725SOL    HW177072  10.977  11.703  10.262
91725SOL    HW277073  11.043  11.663  10.131
91726SOL     OW77074   3.107   6.108   8.576
91726SOL    HW177075   3.156   6.123   8.657
91726SOL    HW277076   3.026   6.066   8.604
91727SOL     OW77077  12.318   1.010   1.774
91727SOL    HW177078  12.231   1.022   1.737
91727SOL    HW277079  12.352   1.099   1.784
91728SOL     OW77080   8.902  14.685   3.687
91728SOL    HW177081   8.807  14.685   3.703
91728SOL    HW277082   8.927  14.777   3.691
91729SOL     OW77083   4.468  12.480   7.574
91729SOL    HW177084   4.504  12.393   7.559
91729SOL    HW277085   4.519  12.538   7.517
91730SOL     OW77086   7.837   2.122   7.115
91730SOL    HW177087   7.795   2.188   7.061
91730SOL    HW277088   7.848   2.164   7.201
91731SOL     OW77089   0.406  11.581   0.654
91731SOL    HW177090   0.466  11.613   0.586
91731SOL    HW277091   0.356  11.658   0.681
91732SOL     OW77092   4.556   9.670   6.460
91732SOL    HW177093   4.488   9.623   6.411
91732SOL    HW277094   4.573   9.749   6.408
91733SOL     OW77095   7.019   2.680   8.038
91733SOL    HW177096   7.062   2.710   7.959
91733SOL    HW277097   6.953   2.618   8.008
91734SOL     OW77098   0.571   6.017   2.643
91734SOL    HW177099   0.519   5.942   2.614
91734SOL    HW277100   0.650   6.013   2.589
91735SOL     OW77101   7.573  11.755   0.911
91735SOL    HW177102   7.656  11.734   0.868
91735SOL    HW277103   7.581  11.715   0.998
91736SOL     OW77104   9.748  12.178   1.694
91736SOL    HW177105   9.787  12.158   1.779
91736SOL    HW277106   9.786  12.262   1.670
91737SOL     OW77107   2.500   8.164   5.824
91737SOL    HW177108   2.422   8.154   5.770
91737SOL    HW277109   2.545   8.241   5.787
91738SOL     OW77110   8.690  11.021   0.699
91738SOL    HW177111   8.676  11.091   0.763
91738SOL    HW277112   8.785  11.023   0.682
91739SOL     OW77113   7.442  10.326   0.486
91739SOL    HW177114   7.532  10.352   0.504
91739SOL    HW277115   7.449  10.240   0.445
91740SOL     OW77116  10.537   3.980   9.707
91740SOL    HW177117  10.601   3.985   9.778
91740SOL    HW277118  10.482   4.058   9.718
91741SOL     OW77119   5.862   0.683  12.281
91741SOL    HW177120   5.925   0.753  12.295
91741SOL    HW277121   5.800   0.719  12.218
91742SOL     OW77122  12.880  12.788   6.862
91742SOL    HW177123  12.890  12.782   6.767
91742SOL    HW277124  12.797  12.833   6.874
91743SOL     OW77125  11.477   0.748   1.870
91743SOL    HW177126  11.442   0.727   1.783
91743SOL    HW277127  11.510   0.837   1.861
91744SOL     OW77128  12.419   2.156   7.875
91744SOL    HW177129  12.382   2.068   7.867
91744SOL    HW277130  12.419   2.173   7.969
91745SOL     OW77131   9.839   4.255   4.511
91745SOL    HW177132   9.905   4.304   4.561
91745SOL    HW277133   9.890   4.200   4.451
91746SOL     OW77134  13.608   8.664   1.364
91746SOL    HW177135  13.514   8.682   1.372
91746SOL    HW277136  13.616   8.571   1.386
91747SOL     OW77137   5.996   6.247   3.515
91747SOL    HW177138   6.035   6.264   3.601
91747SOL    HW277139   6.054   6.291   3.453
91748SOL     OW77140   8.537  11.009   1.829
91748SOL    HW177141   8.531  11.102   1.847
91748SOL    HW277142   8.616  11.000   1.774
91749SOL     OW77143   8.120   2.312   9.696
91749SOL    HW177144   8.159   2.289   9.612
91749SOL    HW277145   8.180   2.376   9.734
91750SOL     OW77146   3.260  11.365   2.198
91750SOL    HW177147   3.310  11.307   2.257
91750SOL    HW277148   3.316  11.442   2.188
91751SOL     OW77149  14.486   7.401  13.058
91751SOL    HW177150  14.427   7.394  12.983
91751SOL    HW277151  14.437   7.365  13.131
91752SOL     OW77152  10.966  11.110  12.220
91752SOL    HW177153  11.041  11.125  12.162
91752SOL    HW277154  11.002  11.111  12.308
91753SOL     OW77155  12.119   8.957   8.032
91753SOL    HW177156  12.137   8.865   8.016
91753SOL    HW277157  12.163   8.976   8.115
91754SOL     OW77158   4.059   0.170   7.034
91754SOL    HW177159   4.087   0.213   7.115
91754SOL    HW277160   4.015   0.239   6.984
91755SOL     OW77161  13.017   9.408   4.366
91755SOL    HW177162  13.028   9.418   4.461
91755SOL    HW277163  13.030   9.496   4.331
91756SOL     OW77164   2.637   1.644   4.840
91756SOL    HW177165   2.693   1.715   4.808
91756SOL    HW277166   2.617   1.668   4.930
91757SOL     OW77167   6.002   4.782  13.333
91757SOL    HW177168   6.006   4.860  13.390
91757SOL    HW277169   6.002   4.708  13.394
91758SOL     OW77170  14.347   5.193   1.583
91758SOL    HW177171  14.336   5.118   1.641
91758SOL    HW277172  14.259   5.228   1.571
91759SOL     OW77173   2.676  14.447   9.677
91759SOL    HW177174   2.721  14.465   9.760
91759SOL    HW277175   2.626  14.367   9.695
91760SOL     OW77176   9.266   9.729   8.527
91760SOL    HW177177   9.186   9.676   8.522
91760SOL    HW277178   9.260   9.788   8.452
91761SOL     OW77179   6.131  13.209   4.415
91761SOL    HW177180   6.064  13.146   4.442
91761SOL    HW277181   6.154  13.183   4.326
91762SOL     OW77182   4.446   2.078   6.390
91762SOL    HW177183   4.418   2.044   6.305
91762SOL    HW277184   4.422   2.008   6.452
91763SOL     OW77185   5.818   5.433  14.753
91763SOL    HW177186   5.849   5.421  14.843
91763SOL    HW277187   5.814   5.527  14.741
91764SOL     OW77188   9.267  13.377  10.469
91764SOL    HW177189   9.359  13.393  10.449
91764SOL    HW277190   9.219  13.434  10.409
91765SOL     OW77191  14.227   9.620   0.398
91765SOL    HW177192  14.184   9.536   0.415
91765SOL    HW277193  14.168   9.686   0.435
91766SOL     OW77194   4.669   3.261  14.178
91766SOL    HW177195   4.635   3.224  14.096
91766SOL    HW277196   4.762   3.240  14.177
91767SOL     OW77197  10.944  14.541   4.297
91767SOL    HW177198  10.849  14.538   4.305
91767SOL    HW277199  10.964  14.484   4.223
91768SOL     OW77200   1.062   8.770  14.504
91768SOL    HW177201   1.045   8.864  14.498
91768SOL    HW277202   0.979   8.729  14.479
91769SOL     OW77203   6.966   2.884  13.859
91769SOL    HW177204   7.025   2.812  13.884
91769SOL    HW277205   7.025   2.958  13.843
91770SOL     OW77206   6.155   1.481   8.565
91770SOL    HW177207   6.063   1.456   8.559
91770SOL    HW277208   6.197   1.407   8.608
91771SOL     OW77209   4.595   5.736   4.159
91771SOL    HW177210   4.597   5.794   4.236
91771SOL    HW277211   4.510   5.694   4.163
91772SOL     OW77212   6.065   5.021  14.868
91772SOL    HW177213   6.126   5.042   0.064
91772SOL    HW277214   6.016   4.945   0.025
91773SOL     OW77215  14.294   6.527   2.535
91773SOL    HW177216  14.280   6.562   2.447
91773SOL    HW277217  14.237   6.451   2.540
91774SOL     OW77218   1.524  10.990   3.661
91774SOL    HW177219   1.439  10.949   3.676
91774SOL    HW277220   1.582  10.948   3.724
91775SOL     OW77221   9.719   9.564  11.141
91775SOL    HW177222   9.650   9.596  11.082
91775SOL    HW277223   9.672   9.540  11.221
91776SOL     OW77224   2.396   3.576   5.726
91776SOL    HW177225   2.380   3.526   5.646
91776SOL    HW277226   2.492   3.583   5.731
91777SOL     OW77227   8.125  11.923   5.877
91777SOL    HW177228   8.122  12.016   5.898
91777SOL    HW277229   8.151  11.920   5.784
91778SOL     OW77230   8.507  10.530  11.751
91778SOL    HW177231   8.543  10.609  11.792
91778SOL    HW277232   8.579  10.495  11.699
91779SOL     OW77233  12.140  14.408  13.687
91779SOL    HW177234  12.181  14.336  13.735
91779SOL    HW277235  12.192  14.485  13.710
91780SOL     OW77236   3.492   7.965   7.961
91780SOL    HW177237   3.418   7.928   8.008
91780SOL    HW277238   3.454   8.002   7.882
91781SOL     OW77239   3.687   8.692  10.690
91781SOL    HW177240   3.700   8.786  10.704
91781SOL    HW277241   3.677   8.683  10.595
91782SOL     OW77242   5.798  12.909   7.776
91782SOL    HW177243   5.887  12.883   7.750
91782SOL    HW277244   5.812  12.986   7.832
91783SOL     OW77245   3.494   9.082   7.375
91783SOL    HW177246   3.416   9.116   7.420
91783SOL    HW277247   3.537   9.026   7.441
91784SOL     OW77248  12.804   9.666   4.508
91784SOL    HW177249  12.882   9.646   4.456
91784SOL    HW277250  12.738   9.604   4.477
91785SOL     OW77251   4.348   1.222   0.050
91785SOL    HW177252   4.411   1.277   0.097
91785SOL    HW277253   4.402   1.171  14.865
91786SOL     OW77254   2.870  14.579   7.503
91786SOL    HW177255   2.946  14.547   7.455
91786SOL    HW277256   2.805  14.509   7.495
91787SOL     OW77257  12.586   9.489   4.454
91787SOL    HW177258  12.501   9.533   4.461
91787SOL    HW277259  12.577   9.433   4.376
91788SOL     OW77260   6.361  10.690   2.796
91788SOL    HW177261   6.299  10.618   2.806
91788SOL    HW277262   6.406  10.696   2.880
91789SOL     OW77263   1.315   1.947   4.310
91789SOL    HW177264   1.261   1.883   4.264
91789SOL    HW277265   1.268   2.030   4.299
91790SOL     OW77266   9.311   5.847  11.159
91790SOL    HW177267   9.225   5.805  11.164
91790SOL    HW277268   9.296   5.925  11.105
91791SOL     OW77269   5.081   9.666   1.692
91791SOL    HW177270   5.041   9.732   1.634
91791SOL    HW277271   5.174   9.667   1.667
91792SOL     OW77272   3.357   7.298   6.085
91792SOL    HW177273   3.418   7.264   6.020
91792SOL    HW277274   3.404   7.370   6.128
91793SOL     OW77275  13.707  12.637  13.578
91793SOL    HW177276  13.688  12.708  13.517
91793SOL    HW277277  13.797  12.610  13.557
91794SOL     OW77278   3.169  12.067   7.085
91794SOL    HW177279   3.173  12.163   7.085
91794SOL    HW277280   3.179  12.043   7.177
91795SOL     OW77281   1.704   0.302   9.255
91795SOL    HW177282   1.677   0.300   9.163
91795SOL    HW277283   1.698   0.394   9.281
91796SOL     OW77284  13.441   1.770   3.832
91796SOL    HW177285  13.392   1.798   3.755
91796SOL    HW277286  13.513   1.718   3.797
91797SOL     OW77287  14.766  12.129   1.718
91797SOL    HW177288  14.746  12.166   1.633
91797SOL    HW277289  14.816  12.049   1.699
91798SOL     OW77290  11.020   4.269   1.911
91798SOL    HW177291  11.050   4.360   1.910
91798SOL    HW277292  10.931   4.274   1.947
91799SOL     OW77293   7.978   9.463  10.788
91799SOL    HW177294   7.943   9.549  10.765
91799SOL    HW277295   8.061   9.457  10.742
91800SOL     OW77296   4.553   2.963  14.568
91800SOL    HW177297   4.592   2.905  14.502
91800SOL    HW277298   4.503   3.027  14.516
91801SOL     OW77299   1.475  11.405  13.881
91801SOL    HW177300   1.521  11.483  13.910
91801SOL    HW277301   1.541  11.335  13.886
91802SOL     OW77302   8.998   4.381   1.749
91802SOL    HW177303   8.912   4.409   1.779
91802SOL    HW277304   9.040   4.461   1.717
91803SOL     OW77305   5.126   0.239  11.635
91803SOL    HW177306   5.054   0.216  11.693
91803SOL    HW277307   5.084   0.251  11.549
91804SOL     OW77308  14.096   1.746  14.673
91804SOL    HW177309  14.061   1.691  14.602
91804SOL    HW277310  14.105   1.833  14.634
91805SOL     OW77311   8.121   4.315   6.872
91805SOL    HW177312   8.207   4.343   6.842
91805SOL    HW277313   8.087   4.390   6.921
91806SOL     OW77314  11.533  14.340  11.589
91806SOL    HW177315  11.479  14.366  11.664
91806SOL    HW277316  11.516  14.407  11.523
91807SOL     OW77317   0.045  11.605   9.459
91807SOL    HW177318   0.045  11.692   9.498
91807SOL    HW277319  14.863  11.553   9.515
91808SOL     OW77320   8.182  13.219  13.931
91808SOL    HW177321   8.182  13.147  13.994
91808SOL    HW277322   8.114  13.279  13.963
91809SOL     OW77323   0.195   1.829  14.172
91809SOL    HW177324   0.212   1.917  14.139
91809SOL    HW277325   0.267   1.812  14.232
91810SOL     OW77326   0.205  10.025  10.967
91810SOL    HW177327   0.244   9.956  11.021
91810SOL    HW277328   0.134   9.981  10.920
91811SOL     OW77329   4.455   7.307   4.009
91811SOL    HW177330   4.380   7.363   4.028
91811SOL    HW277331   4.522   7.366   3.975
91812SOL     OW77332  13.297   2.685   1.659
91812SOL    HW177333  13.345   2.761   1.625
91812SOL    HW277334  13.280   2.631   1.581
91813SOL     OW77335  12.738  10.613  12.176
91813SOL    HW177336  12.686  10.662  12.112
91813SOL    HW277337  12.674  10.559  12.223
91814SOL     OW77338   9.741   8.923   1.387
91814SOL    HW177339   9.702   8.864   1.451
91814SOL    HW277340   9.684   9.000   1.386
91815SOL     OW77341   5.336   6.753  12.965
91815SOL    HW177342   5.392   6.761  13.042
91815SOL    HW277343   5.396   6.751  12.891
91816SOL     OW77344   6.855   8.157   4.803
91816SOL    HW177345   6.906   8.227   4.845
91816SOL    HW277346   6.908   8.132   4.727
91817SOL     OW77347   6.973  14.802   3.315
91817SOL    HW177348   6.967  14.852   3.234
91817SOL    HW277349   6.900  14.835   3.368
91818SOL     OW77350  11.912   5.611  14.688
91818SOL    HW177351  11.867   5.557  14.623
91818SOL    HW277352  11.853   5.614  14.763
91819SOL     OW77353   4.765   1.499  10.507
91819SOL    HW177354   4.816   1.481  10.586
91819SOL    HW277355   4.794   1.432  10.445
91820SOL     OW77356  11.095  13.610  13.113
91820SOL    HW177357  11.051  13.554  13.176
91820SOL    HW277358  11.024  13.652  13.065
91821SOL     OW77359   9.607  10.789   3.255
91821SOL    HW177360   9.672  10.722   3.277
91821SOL    HW277361   9.654  10.872   3.266
91822SOL     OW77362  12.799  10.577   2.690
91822SOL    HW177363  12.860  10.565   2.617
91822SOL    HW277364  12.841  10.533   2.764
91823SOL     OW77365  13.747  11.712   0.158
91823SOL    HW177366  13.762  11.806   0.145
91823SOL    HW277367  13.803  11.688   0.231
91824SOL     OW77368   3.365   8.323   1.279
91824SOL    HW177369   3.385   8.244   1.330
91824SOL    HW277370   3.438   8.330   1.217
91825SOL     OW77371   5.103  11.032   6.453
91825SOL    HW177372   5.040  10.959   6.450
91825SOL    HW277373   5.189  10.989   6.447
91826SOL     OW77374   4.529   0.279   5.032
91826SOL    HW177375   4.451   0.291   5.087
91826SOL    HW277376   4.599   0.320   5.082
91827SOL     OW77377  11.227   7.507  10.153
91827SOL    HW177378  11.144   7.554  10.142
91827SOL    HW277379  11.201   7.423  10.192
91828SOL     OW77380  14.290  12.421   0.984
91828SOL    HW177381  14.362  12.359   0.974
91828SOL    HW277382  14.219  12.383   0.932
91829SOL     OW77383  12.707   1.665  13.046
91829SOL    HW177384  12.637   1.610  13.009
91829SOL    HW277385  12.669   1.752  13.052
91830SOL     OW77386   7.283   0.971  14.230
91830SOL    HW177387   7.275   1.063  14.256
91830SOL    HW277388   7.374   0.963  14.200
91831SOL     OW77389   3.162  10.632   8.991
91831SOL    HW177390   3.115  10.670   8.917
91831SOL    HW277391   3.102  10.566   9.026
91832SOL     OW77392  14.313  14.277  11.566
91832SOL    HW177393  14.280  14.224  11.493
91832SOL    HW277394  14.358  14.215  11.623
91833SOL     OW77395   6.605   0.135   2.723
91833SOL    HW177396   6.640   0.090   2.646
91833SOL    HW277397   6.643   0.223   2.720
91834SOL     OW77398   4.095   5.022   5.865
91834SOL    HW177399   4.073   5.060   5.950
91834SOL    HW277400   4.190   5.012   5.867
91835SOL     OW77401   6.090   1.906   6.391
91835SOL    HW177402   6.048   1.822   6.413
91835SOL    HW277403   6.042   1.971   6.441
91836SOL     OW77404   8.458  11.633  11.371
91836SOL    HW177405   8.363  11.642  11.382
91836SOL    HW277406   8.477  11.677  11.288
91837SOL     OW77407   4.025   9.156   5.497
91837SOL    HW177408   3.934   9.171   5.523
91837SOL    HW277409   4.065   9.116   5.574
91838SOL     OW77410  10.310   1.490   0.276
91838SOL    HW177411  10.376   1.519   0.213
91838SOL    HW277412  10.338   1.402   0.302
91839SOL     OW77413   4.502   8.871   4.681
91839SOL    HW177414   4.488   8.930   4.755
91839SOL    HW277415   4.549   8.797   4.718
91840SOL     OW77416   0.758   6.733   5.855
91840SOL    HW177417   0.674   6.713   5.813
91840SOL    HW277418   0.757   6.829   5.865
91841SOL     OW77419  11.971   9.640   6.820
91841SOL    HW177420  12.038   9.623   6.885
91841SOL    HW277421  11.937   9.726   6.842
91842SOL     OW77422   3.150  13.541   5.816
91842SOL    HW177423   3.243  13.522   5.829
91842SOL    HW277424   3.105  13.466   5.856
91843SOL     OW77425   7.975   2.236  10.099
91843SOL    HW177426   7.949   2.165  10.041
91843SOL    HW277427   8.057   2.205  10.139
91844SOL     OW77428   7.219  14.269   4.460
91844SOL    HW177429   7.217  14.263   4.364
91844SOL    HW277430   7.140  14.317   4.483
91845SOL     OW77431  14.689  11.587  12.544
91845SOL    HW177432  14.621  11.531  12.506
91845SOL    HW277433  14.700  11.555  12.633
91846SOL     OW77434   6.824   3.464  12.722
91846SOL    HW177435   6.750   3.414  12.688
91846SOL    HW277436   6.895   3.449  12.660
91847SOL     OW77437  12.834  11.130   8.081
91847SOL    HW177438  12.759  11.105   8.027
91847SOL    HW277439  12.814  11.095   8.167
91848SOL     OW77440   1.241   8.853   3.855
91848SOL    HW177441   1.231   8.934   3.806
91848SOL    HW277442   1.336   8.843   3.865
91849SOL     OW77443   5.165   1.807   1.930
91849SOL    HW177444   5.095   1.758   1.887
91849SOL    HW277445   5.245   1.763   1.904
91850SOL     OW77446   3.964   2.838   6.926
91850SOL    HW177447   4.002   2.750   6.932
91850SOL    HW277448   3.921   2.851   7.011
91851SOL     OW77449   6.299  11.505   3.298
91851SOL    HW177450   6.242  11.445   3.250
91851SOL    HW277451   6.379  11.455   3.313
91852SOL     OW77452  10.404   6.496  11.585
91852SOL    HW177453  10.423   6.408  11.615
91852SOL    HW277454  10.445   6.502  11.499
91853SOL     OW77455   4.185   9.156  13.473
91853SOL    HW177456   4.160   9.238  13.429
91853SOL    HW277457   4.156   9.168  13.563
91854SOL     OW77458   8.504   1.820   0.882
91854SOL    HW177459   8.535   1.868   0.805
91854SOL    HW277460   8.548   1.735   0.877
91855SOL     OW77461  11.497   0.604  13.753
91855SOL    HW177462  11.431   0.595  13.684
91855SOL    HW277463  11.578   0.571  13.713
91856SOL     OW77464   4.212   8.517   1.835
91856SOL    HW177465   4.282   8.525   1.770
91856SOL    HW277466   4.138   8.479   1.787
91857SOL     OW77467  14.844  10.982  14.842
91857SOL    HW177468  14.769  10.974  14.783
91857SOL    HW277469  14.842  11.074  14.870
91858SOL     OW77470  14.062   8.217   7.227
91858SOL    HW177471  14.121   8.226   7.302
91858SOL    HW277472  14.093   8.139   7.181
91859SOL     OW77473   7.935   0.497   2.872
91859SOL    HW177474   7.907   0.587   2.854
91859SOL    HW277475   8.000   0.505   2.942
91860SOL     OW77476  12.894  12.537   2.884
91860SOL    HW177477  12.833  12.473   2.921
91860SOL    HW277478  12.850  12.569   2.805
91861SOL     OW77479   5.728   2.299  12.502
91861SOL    HW177480   5.657   2.272  12.559
91861SOL    HW277481   5.749   2.221  12.451
91862SOL     OW77482   9.381   3.106   7.230
91862SOL    HW177483   9.417   3.174   7.287
91862SOL    HW277484   9.411   3.024   7.267
91863SOL     OW77485   1.197  11.214   8.764
91863SOL    HW177486   1.211  11.246   8.854
91863SOL    HW277487   1.138  11.278   8.725
91864SOL     OW77488  11.663   3.158   2.531
91864SOL    HW177489  11.744   3.136   2.485
91864SOL    HW277490  11.605   3.192   2.462
91865SOL     OW77491  10.239  13.382   8.728
91865SOL    HW177492  10.198  13.457   8.771
91865SOL    HW277493  10.204  13.383   8.639
91866SOL     OW77494   2.549  13.105   6.928
91866SOL    HW177495   2.568  13.021   6.971
91866SOL    HW277496   2.481  13.083   6.864
91867SOL     OW77497   8.331   9.488   1.776
91867SOL    HW177498   8.303   9.516   1.863
91867SOL    HW277499   8.388   9.559   1.745
91868SOL     OW77500   5.041   8.525  14.375
91868SOL    HW177501   5.051   8.585  14.449
91868SOL    HW277502   4.948   8.530  14.353
91869SOL     OW77503   4.280   5.485   5.817
91869SOL    HW177504   4.287   5.390   5.811
91869SOL    HW277505   4.343   5.519   5.754
91870SOL     OW77506  10.711   0.028   9.621
91870SOL    HW177507  10.709   0.117   9.585
91870SOL    HW277508  10.779  14.858   9.571
91871SOL     OW77509   7.610   4.669  14.088
91871SOL    HW177510   7.578   4.660  13.998
91871SOL    HW277511   7.539   4.634  14.142
91872SOL     OW77512  12.375  12.487   0.825
91872SOL    HW177513  12.297  12.502   0.878
91872SOL    HW277514  12.342  12.478   0.736
91873SOL     OW77515   9.799   2.975  13.371
91873SOL    HW177516   9.850   2.976  13.290
91873SOL    HW277517   9.729   3.039  13.356
91874SOL     OW77518  11.884   7.059   3.380
91874SOL    HW177519  11.791   7.035   3.387
91874SOL    HW277520  11.917   7.005   3.308
91875SOL     OW77521   2.846   7.471  13.652
91875SOL    HW177522   2.908   7.461  13.725
91875SOL    HW277523   2.776   7.409  13.672
91876SOL     OW77524   9.707  13.060   5.458
91876SOL    HW177525   9.713  13.075   5.553
91876SOL    HW277526   9.652  13.131   5.425
91877SOL     OW77527   2.999   5.672   9.702
91877SOL    HW177528   2.932   5.712   9.757
91877SOL    HW277529   2.957   5.664   9.616
91878SOL     OW77530   5.160   9.353   1.648
91878SOL    HW177531   5.204   9.436   1.664
91878SOL    HW277532   5.078   9.376   1.605
91879SOL     OW77533   5.314   5.020  10.864
91879SOL    HW177534   5.280   4.968  10.792
91879SOL    HW277535   5.357   5.094  10.822
91880SOL     OW77536   0.039  11.162   4.550
91880SOL    HW177537  14.838  11.123   4.595
91880SOL    HW277538   0.062  11.098   4.483
91881SOL     OW77539  14.659   1.110   9.166
91881SOL    HW177540  14.691   1.041   9.107
91881SOL    HW277541  14.724   1.113   9.236
91882SOL     OW77542  12.265   9.842   4.056
91882SOL    HW177543  12.259   9.794   4.138
91882SOL    HW277544  12.233   9.930   4.077
91883SOL     OW77545   2.066   7.545  12.871
91883SOL    HW177546   1.976   7.534  12.840
91883SOL    HW277547   2.059   7.544  12.966
91884SOL     OW77548  14.218   5.743   2.888
91884SOL    HW177549  14.149   5.677   2.876
91884SOL    HW277550  14.230   5.747   2.983
91885SOL     OW77551  13.256  10.361   8.410
91885SOL    HW177552  13.315  10.424   8.370
91885SOL    HW277553  13.271  10.371   8.504
91886SOL     OW77554  10.614   9.714   0.037
91886SOL    HW177555  10.631   9.778   0.107
91886SOL    HW277556  10.679   9.733  14.845
91887SOL     OW77557   3.360  14.735   1.111
91887SOL    HW177558   3.426  14.722   1.180
91887SOL    HW277559   3.380  14.668   1.046
91888SOL     OW77560   6.522  12.279  13.877
91888SOL    HW177561   6.467  12.201  13.872
91888SOL    HW277562   6.520  12.315  13.789
91889SOL     OW77563  11.868   8.121   8.171
91889SOL    HW177564  11.830   8.082   8.249
91889SOL    HW277565  11.852   8.215   8.181
91890SOL     OW77566   8.353   5.376  13.017
91890SOL    HW177567   8.411   5.435  12.969
91890SOL    HW277568   8.411   5.330  13.078
91891SOL     OW77569   3.132   5.037  12.858
91891SOL    HW177570   3.189   5.110  12.835
91891SOL    HW277571   3.132   5.037  12.954
91892SOL     OW77572   0.414   8.472  11.077
91892SOL    HW177573   0.454   8.492  10.992
91892SOL    HW277574   0.331   8.520  11.076
91893SOL     OW77575   4.300   8.316  12.928
91893SOL    HW177576   4.212   8.329  12.962
91893SOL    HW277577   4.341   8.254  12.988
91894SOL     OW77578   5.372   0.115   9.356
91894SOL    HW177579   5.352   0.117   9.262
91894SOL    HW277580   5.290   0.137   9.399
91895SOL     OW77581   6.271   0.347   0.075
91895SOL    HW177582   6.273   0.316  14.860
91895SOL    HW277583   6.244   0.271   0.126
91896SOL     OW77584   6.756   9.127   4.173
91896SOL    HW177585   6.785   9.139   4.083
91896SOL    HW277586   6.676   9.179   4.180
91897SOL     OW77587  14.016   0.567   6.189
91897SOL    HW177588  13.946   0.572   6.254
91897SOL    HW277589  14.087   0.522   6.235
91898SOL     OW77590   8.448  11.675  14.010
91898SOL    HW177591   8.519  11.711  13.957
91898SOL    HW277592   8.459  11.716  14.096
91899SOL     OW77593  14.458  13.870  10.104
91899SOL    HW177594  14.495  13.895  10.019
91899SOL    HW277595  14.503  13.788  10.127
91900SOL     OW77596   6.463   5.018   2.876
91900SOL    HW177597   6.519   5.089   2.907
91900SOL    HW277598   6.452   4.960   2.952
91901SOL     OW77599   2.526  11.276   8.551
91901SOL    HW177600   2.482  11.342   8.604
91901SOL    HW277601   2.456  11.236   8.499
91902SOL     OW77602   1.557   8.450  13.591
91902SOL    HW177603   1.504   8.423  13.666
91902SOL    HW277604   1.587   8.539  13.614
91903SOL     OW77605  11.603   0.396   6.838
91903SOL    HW177606  11.699   0.392   6.847
91903SOL    HW277607  11.579   0.311   6.802
91904SOL     OW77608   5.744   7.360   1.175
91904SOL    HW177609   5.781   7.382   1.089
91904SOL    HW277610   5.653   7.334   1.155
91905SOL     OW77611   8.448  12.475   9.440
91905SOL    HW177612   8.478  12.408   9.501
91905SOL    HW277613   8.504  12.464   9.363
91906SOL     OW77614   7.561   0.659  10.932
91906SOL    HW177615   7.589   0.741  10.971
91906SOL    HW277616   7.469   0.650  10.958
91907SOL     OW77617   0.172  14.621   0.957
91907SOL    HW177618   0.092  14.662   0.989
91907SOL    HW277619   0.176  14.645   0.865
91908SOL     OW77620   7.484   7.775   9.554
91908SOL    HW177621   7.402   7.825   9.564
91908SOL    HW277622   7.539   7.832   9.500
91909SOL     OW77623   3.390  10.583   6.279
91909SOL    HW177624   3.358  10.546   6.196
91909SOL    HW277625   3.414  10.673   6.257
91910SOL     OW77626  13.579   4.265  11.792
91910SOL    HW177627  13.518   4.290  11.723
91910SOL    HW277628  13.647   4.215  11.747
91911SOL     OW77629  12.948   3.021   0.156
91911SOL    HW177630  12.983   3.085   0.095
91911SOL    HW277631  13.022   3.001   0.214
91912SOL     OW77632   0.774   3.267  14.556
91912SOL    HW177633   0.796   3.236  14.644
91912SOL    HW277634   0.756   3.360  14.567
91913SOL     OW77635   5.503  11.982  12.317
91913SOL    HW177636   5.478  11.891  12.299
91913SOL    HW277637   5.497  11.990  12.412
91914SOL     OW77638   2.042  12.980  10.287
91914SOL    HW177639   1.956  12.939  10.284
91914SOL    HW277640   2.099  12.922  10.236
91915SOL     OW77641  13.814   6.552  10.569
91915SOL    HW177642  13.840   6.628  10.621
91915SOL    HW277643  13.718   6.550  10.575
91916SOL     OW77644   1.748  14.712  13.586
91916SOL    HW177645   1.668  14.715  13.534
91916SOL    HW277646   1.819  14.709  13.521
91917SOL     OW77647   3.231  12.190   4.300
91917SOL    HW177648   3.293  12.251   4.261
91917SOL    HW277649   3.234  12.113   4.243
91918SOL     OW77650  13.158   3.186   4.481
91918SOL    HW177651  13.202   3.231   4.553
91918SOL    HW277652  13.222   3.185   4.410
91919SOL     OW77653   9.129   7.496   1.110
91919SOL    HW177654   9.117   7.427   1.044
91919SOL    HW277655   9.142   7.449   1.192
91920SOL     OW77656   8.439  11.436   4.856
91920SOL    HW177657   8.472  11.356   4.814
91920SOL    HW277658   8.441  11.416   4.949
91921SOL     OW77659   0.699  10.344   2.854
91921SOL    HW177660   0.624  10.398   2.828
91921SOL    HW277661   0.740  10.392   2.926
91922SOL     OW77662   9.620   4.528   5.467
91922SOL    HW177663   9.549   4.479   5.508
91922SOL    HW277664   9.698   4.474   5.480
91923SOL     OW77665   2.850   7.417   5.541
91923SOL    HW177666   2.815   7.413   5.452
91923SOL    HW277667   2.776   7.392   5.597
91924SOL     OW77668  10.818  11.200   3.902
91924SOL    HW177669  10.743  11.199   3.842
91924SOL    HW277670  10.810  11.119   3.952
91925SOL     OW77671   5.680   6.677   7.119
91925SOL    HW177672   5.642   6.636   7.041
91925SOL    HW277673   5.607   6.726   7.157
91926SOL     OW77674   0.526  11.776   7.749
91926SOL    HW177675   0.477  11.744   7.674
91926SOL    HW277676   0.484  11.735   7.825
91927SOL     OW77677   2.897  13.124   4.485
91927SOL    HW177678   2.877  13.088   4.399
91927SOL    HW277679   2.895  13.219   4.473
91928SOL     OW77680   0.046  12.979   5.067
91928SOL    HW177681   0.113  12.957   5.132
91928SOL    HW277682   0.078  13.059   5.026
91929SOL     OW77683  10.794  14.219  13.428
91929SOL    HW177684  10.828  14.294  13.379
91929SOL    HW277685  10.709  14.248  13.459
91930SOL     OW77686   5.710   0.175   7.611
91930SOL    HW177687   5.625   0.144   7.581
91930SOL    HW277688   5.711   0.268   7.589
91931SOL     OW77689   4.155  11.872   7.893
91931SOL    HW177690   4.250  11.883   7.885
91931SOL    HW277691   4.141  11.854   7.986
91932SOL     OW77692   5.697  11.045  14.803
91932SOL    HW177693   5.610  11.021  14.835
91932SOL    HW277694   5.683  11.066  14.711
91933SOL     OW77695   3.723   4.307   9.470
91933SOL    HW177696   3.755   4.325   9.382
91933SOL    HW277697   3.790   4.251   9.509
91934SOL     OW77698   7.877  13.579   2.501
91934SOL    HW177699   7.826  13.659   2.491
91934SOL    HW277700   7.949  13.604   2.559
91935SOL     OW77701   2.359   6.595   6.512
91935SOL    HW177702   2.328   6.657   6.445
91935SOL    HW277703   2.340   6.639   6.595
91936SOL     OW77704  12.087   0.075   9.448
91936SOL    HW177705  12.009   0.110   9.405
91936SOL    HW277706  12.120   0.010   9.387
91937SOL     OW77707  14.822   3.718  13.424
91937SOL    HW177708  14.842   3.624  13.424
91937SOL    HW277709  14.824   3.742  13.517
91938SOL     OW77710   2.579   0.043  14.074
91938SOL    HW177711   2.527   0.036  13.994
91938SOL    HW277712   2.517   0.024  14.145
91939SOL     OW77713   9.701  11.751  11.937
91939SOL    HW177714   9.694  11.699  11.857
91939SOL    HW277715   9.620  11.732  11.985
91940SOL     OW77716   8.762   6.876   7.274
91940SOL    HW177717   8.825   6.935   7.315
91940SOL    HW277718   8.697   6.859   7.341
91941SOL     OW77719   0.684   4.741   7.783
91941SOL    HW177720   0.706   4.661   7.735
91941SOL    HW277721   0.749   4.805   7.754
91942SOL     OW77722   7.801  11.350   0.629
91942SOL    HW177723   7.771  11.274   0.579
91942SOL    HW277724   7.896  11.338   0.635
91943SOL     OW77725   7.743  13.853   2.478
91943SOL    HW177726   7.738  13.866   2.384
91943SOL    HW277727   7.673  13.791   2.498
91944SOL     OW77728   6.963   6.064  14.694
91944SOL    HW177729   6.896   6.068  14.763
91944SOL    HW277730   7.019   5.991  14.720
91945SOL     OW77731  12.459   5.237   0.919
91945SOL    HW177732  12.451   5.311   0.858
91945SOL    HW277733  12.373   5.194   0.915
91946SOL     OW77734  12.853   6.373   8.388
91946SOL    HW177735  12.772   6.354   8.435
91946SOL    HW277736  12.881   6.458   8.421
91947SOL     OW77737   3.889  11.182   7.003
91947SOL    HW177738   3.918  11.264   7.044
91947SOL    HW277739   3.846  11.134   7.074
91948SOL     OW77740   9.641   3.863   5.310
91948SOL    HW177741   9.696   3.825   5.379
91948SOL    HW277742   9.561   3.812   5.313
91949SOL     OW77743   2.815   0.775   6.694
91949SOL    HW177744   2.723   0.781   6.669
91949SOL    HW277745   2.843   0.689   6.663
91950SOL     OW77746   3.574   8.768  11.535
91950SOL    HW177747   3.561   8.855  11.497
91950SOL    HW277748   3.509   8.713  11.492
91951SOL     OW77749  10.492  11.469  11.502
91951SOL    HW177750  10.444  11.423  11.433
91951SOL    HW277751  10.449  11.554  11.509
91952SOL     OW77752  13.036   5.980   3.514
91952SOL    HW177753  13.084   6.007   3.592
91952SOL    HW277754  12.949   6.020   3.525
91953SOL     OW77755   3.230   8.820   7.966
91953SOL    HW177756   3.141   8.832   7.934
91953SOL    HW277757   3.234   8.872   8.046
91954SOL     OW77758   2.153   1.276  11.127
91954SOL    HW177759   2.141   1.198  11.074
91954SOL    HW277760   2.212   1.249  11.197
91955SOL     OW77761   9.908   2.906   8.508
91955SOL    HW177762   9.871   2.943   8.589
91955SOL    HW277763   9.910   2.980   8.447
91956SOL     OW77764   9.815   8.444   8.679
91956SOL    HW177765   9.905   8.474   8.695
91956SOL    HW277766   9.820   8.348   8.686
91957SOL     OW77767   3.070  14.167   4.817
91957SOL    HW177768   3.146  14.117   4.786
91957SOL    HW277769   3.076  14.250   4.770
91958SOL     OW77770   1.298   4.490   7.499
91958SOL    HW177771   1.243   4.565   7.520
91958SOL    HW277772   1.328   4.506   7.410
91959SOL     OW77773  14.681  11.347  12.714
91959SOL    HW177774  14.618  11.308  12.653
91959SOL    HW277775  14.712  11.273  12.766
91960SOL     OW77776   0.836   7.092  12.660
91960SOL    HW177777   0.867   7.087  12.569
91960SOL    HW277778   0.891   7.029  12.707
91961SOL     OW77779   4.505   5.932   0.118
91961SOL    HW177780   4.581   5.989   0.130
91961SOL    HW277781   4.452   5.978   0.053
91962SOL     OW77782   9.974   1.568   8.921
91962SOL    HW177783  10.026   1.556   8.842
91962SOL    HW277784  10.005   1.501   8.981
91963SOL     OW77785   2.658  10.333  12.189
91963SOL    HW177786   2.665  10.425  12.212
91963SOL    HW277787   2.749  10.302  12.185
91964SOL     OW77788   4.058   7.379  13.296
91964SOL    HW177789   4.037   7.308  13.356
91964SOL    HW277790   4.153   7.375  13.286
91965SOL     OW77791   9.480   7.357   3.100
91965SOL    HW177792   9.399   7.306   3.100
91965SOL    HW277793   9.453   7.447   3.120
91966SOL     OW77794   5.957   4.952  10.353
91966SOL    HW177795   5.938   4.879  10.413
91966SOL    HW277796   5.922   5.029  10.397
91967SOL     OW77797   9.565   1.768   1.790
91967SOL    HW177798   9.481   1.733   1.760
91967SOL    HW277799   9.542   1.824   1.864
91968SOL     OW77800  12.267   8.305  11.842
91968SOL    HW177801  12.185   8.283  11.886
91968SOL    HW277802  12.278   8.399  11.856
91969SOL     OW77803   1.650  10.248  10.429
91969SOL    HW177804   1.556  10.236  10.439
91969SOL    HW277805   1.688  10.199  10.502
91970SOL     OW77806   8.115  11.188   6.576
91970SOL    HW177807   8.036  11.203   6.629
91970SOL    HW277808   8.162  11.119   6.623
91971SOL     OW77809   3.796   1.757   1.631
91971SOL    HW177810   3.866   1.692   1.632
91971SOL    HW277811   3.834   1.833   1.674
91972SOL     OW77812   6.224   0.433   7.135
91972SOL    HW177813   6.249   0.425   7.043
91972SOL    HW277814   6.306   0.448   7.181
91973SOL     OW77815  10.579   9.869  10.090
91973SOL    HW177816  10.579   9.958  10.055
91973SOL    HW277817  10.576   9.812  10.013
91974SOL     OW77818   8.426  12.255  10.877
91974SOL    HW177819   8.369  12.328  10.901
91974SOL    HW277820   8.447  12.270  10.784
91975SOL     OW77821   3.941  11.697   9.338
91975SOL    HW177822   3.929  11.775   9.393
91975SOL    HW277823   3.854  11.680   9.302
91976SOL     OW77824   0.525   6.771  13.243
91976SOL    HW177825   0.540   6.703  13.178
91976SOL    HW277826   0.579   6.745  13.318
91977SOL     OW77827   7.872  11.299   5.588
91977SOL    HW177828   7.960  11.312   5.554
91977SOL    HW277829   7.836  11.227   5.537
91978SOL     OW77830   6.524   1.832  11.769
91978SOL    HW177831   6.460   1.802  11.834
91978SOL    HW277832   6.568   1.752  11.739
91979SOL     OW77833  11.596   0.325  11.920
91979SOL    HW177834  11.645   0.340  11.840
91979SOL    HW277835  11.510   0.363  11.904
91980SOL     OW77836   1.592   9.228   6.332
91980SOL    HW177837   1.582   9.156   6.395
91980SOL    HW277838   1.594   9.307   6.387
91981SOL     OW77839   7.043  13.438   9.292
91981SOL    HW177840   7.066  13.359   9.339
91981SOL    HW277841   6.952  13.424   9.263
91982SOL     OW77842  14.863   9.627   9.147
91982SOL    HW177843  14.809   9.672   9.212
91982SOL    HW277844   0.069   9.606   9.193
91983SOL     OW77845   8.393  12.189   7.071
91983SOL    HW177846   8.368  12.264   7.125
91983SOL    HW277847   8.310  12.143   7.053
91984SOL     OW77848   9.632  14.013   7.538
91984SOL    HW177849   9.685  13.965   7.474
91984SOL    HW277850   9.605  13.947   7.601
91985SOL     OW77851   2.519   7.399   6.287
91985SOL    HW177852   2.526   7.444   6.371
91985SOL    HW277853   2.587   7.332   6.290
91986SOL     OW77854   4.492   7.030   8.978
91986SOL    HW177855   4.581   7.018   8.945
91986SOL    HW277856   4.502   7.089   9.053
91987SOL     OW77857   4.996   6.710  13.162
91987SOL    HW177858   4.992   6.753  13.076
91987SOL    HW277859   4.905   6.704  13.190
91988SOL     OW77860   0.177   2.639   4.191
91988SOL    HW177861   0.255   2.625   4.137
91988SOL    HW277862   0.146   2.726   4.167
91989SOL     OW77863   3.202   6.223   0.305
91989SOL    HW177864   3.188   6.298   0.247
91989SOL    HW277865   3.149   6.153   0.266
91990SOL     OW77866  13.084   1.653   3.499
91990SOL    HW177867  12.990   1.639   3.513
91990SOL    HW277868  13.091   1.744   3.473
91991SOL     OW77869   9.120   7.540   4.736
91991SOL    HW177870   9.138   7.632   4.752
91991SOL    HW277871   9.115   7.532   4.641
91992SOL     OW77872   1.919  13.985   0.606
91992SOL    HW177873   1.914  13.916   0.540
91992SOL    HW277874   1.965  14.056   0.562
91993SOL     OW77875  11.125  14.567  14.360
91993SOL    HW177876  11.070  14.508  14.412
91993SOL    HW277877  11.214  14.535  14.374
91994SOL     OW77878  14.325   9.789  12.059
91994SOL    HW177879  14.322   9.728  12.133
91994SOL    HW277880  14.276   9.866  12.088
91995SOL     OW77881   1.531  10.565   4.308
91995SOL    HW177882   1.463  10.579   4.242
91995SOL    HW277883   1.504  10.487   4.355
91996SOL     OW77884   8.373   9.194  14.657
91996SOL    HW177885   8.419   9.278  14.654
91996SOL    HW277886   8.285   9.216  14.687
91997SOL     OW77887  11.107   0.102  12.933
91997SOL    HW177888  11.161   0.109  12.854
91997SOL    HW277889  11.060   0.019  12.922
91998SOL     OW77890  13.866  11.134   6.582
91998SOL    HW177891  13.826  11.211   6.621
91998SOL    HW277892  13.923  11.099   6.650
91999SOL     OW77893   6.891   7.928   0.431
91999SOL    HW177894   6.876   7.882   0.348
91999SOL    HW277895   6.808   7.971   0.450
92000SOL     OW77896   9.543   7.593   7.783
92000SOL    HW177897   9.611   7.660   7.790
92000SOL    HW277898   9.591   7.510   7.778
92001SOL     OW77899   6.157   7.811   1.224
92001SOL    HW177900   6.134   7.894   1.265
92001SOL    HW277901   6.198   7.760   1.294
92002SOL     OW77902   6.279   6.060   9.012
92002SOL    HW177903   6.341   6.048   9.084
92002SOL    HW277904   6.320   6.126   8.956
92003SOL     OW77905   7.573   2.868  12.321
92003SOL    HW177906   7.599   2.944  12.373
92003SOL    HW277907   7.486   2.890  12.286
92004SOL     OW77908   0.083   1.110   5.344
92004SOL    HW177909   0.159   1.062   5.313
92004SOL    HW277910   0.028   1.043   5.385
92005SOL     OW77911  12.148   7.492   1.540
92005SOL    HW177912  12.221   7.551   1.556
92005SOL    HW277913  12.173   7.410   1.583
92006SOL     OW77914   7.157   1.129  10.290
92006SOL    HW177915   7.234   1.137  10.233
92006SOL    HW277916   7.090   1.181  10.247
92007SOL     OW77917   8.130  12.000   0.514
92007SOL    HW177918   8.122  12.033   0.603
92007SOL    HW277919   8.207  12.044   0.479
92008SOL     OW77920   6.341  13.065  10.454
92008SOL    HW177921   6.296  13.050  10.537
92008SOL    HW277922   6.274  13.053  10.387
92009SOL     OW77923  11.448   9.993   7.748
92009SOL    HW177924  11.370  10.035   7.784
92009SOL    HW277925  11.520  10.027   7.801
92010SOL     OW77926   1.020   8.366   8.459
92010SOL    HW177927   0.954   8.428   8.426
92010SOL    HW277928   1.100   8.388   8.412
92011SOL     OW77929   2.617   9.008  11.864
92011SOL    HW177930   2.706   9.042  11.861
92011SOL    HW277931   2.565   9.068  11.811
92012SOL     OW77932  11.972   6.500   1.042
92012SOL    HW177933  12.057   6.461   1.063
92012SOL    HW277934  11.964   6.492   0.947
92013SOL     OW77935  14.227  11.095  10.895
92013SOL    HW177936  14.237  11.066  10.985
92013SOL    HW277937  14.140  11.135  10.892
92014SOL     OW77938   2.228   6.994  12.728
92014SOL    HW177939   2.188   6.910  12.705
92014SOL    HW277940   2.179   7.059  12.677
92015SOL     OW77941   4.023  13.831   4.277
92015SOL    HW177942   3.973  13.796   4.351
92015SOL    HW277943   4.114  13.814   4.300
92016SOL     OW77944   7.834   7.432  11.707
92016SOL    HW177945   7.898   7.458  11.641
92016SOL    HW277946   7.845   7.495  11.777
92017SOL     OW77947  12.053   3.095   1.528
92017SOL    HW177948  11.989   3.074   1.460
92017SOL    HW277949  12.127   3.133   1.480
92018SOL     OW77950  10.695   7.556   4.197
92018SOL    HW177951  10.789   7.574   4.204
92018SOL    HW277952  10.660   7.632   4.150
92019SOL     OW77953   9.134   3.969  10.388
92019SOL    HW177954   9.173   3.942  10.306
92019SOL    HW277955   9.157   3.900  10.450
92020SOL     OW77956  10.806  11.640   4.236
92020SOL    HW177957  10.795  11.578   4.164
92020SOL    HW277958  10.815  11.725   4.192
92021SOL     OW77959  13.642   1.477   8.467
92021SOL    HW177960  13.675   1.566   8.455
92021SOL    HW277961  13.616   1.449   8.379
92022SOL     OW77962   1.179   4.445   9.742
92022SOL    HW177963   1.182   4.503   9.818
92022SOL    HW277964   1.243   4.376   9.763
92023SOL     OW77965   1.582   0.944  12.548
92023SOL    HW177966   1.530   0.880  12.498
92023SOL    HW277967   1.632   0.891  12.610
92024SOL     OW77968  14.798   4.933   6.093
92024SOL    HW177969  14.751   4.976   6.022
92024SOL    HW277970  14.816   4.845   6.060
92025SOL     OW77971   5.181  10.918   2.310
92025SOL    HW177972   5.148  10.948   2.395
92025SOL    HW277973   5.197  10.998   2.261
92026SOL     OW77974   0.756  10.200  13.532
92026SOL    HW177975   0.769  10.290  13.562
92026SOL    HW277976   0.803  10.195  13.448
92027SOL     OW77977  13.739   7.372   3.570
92027SOL    HW177978  13.654   7.368   3.613
92027SOL    HW277979  13.797   7.321   3.627
92028SOL     OW77980   4.223   5.870   4.223
92028SOL    HW177981   4.259   5.937   4.166
92028SOL    HW277982   4.265   5.789   4.194
92029SOL     OW77983   8.284   6.100  14.198
92029SOL    HW177984   8.322   6.095  14.286
92029SOL    HW277985   8.348   6.149  14.146
92030SOL     OW77986   2.997   9.953   0.297
92030SOL    HW177987   2.994   9.865   0.260
92030SOL    HW277988   2.907   9.986   0.286
92031SOL     OW77989   6.466   9.505  12.365
92031SOL    HW177990   6.452   9.596  12.391
92031SOL    HW277991   6.378   9.467  12.362
92032SOL     OW77992   5.305   8.634   1.903
92032SOL    HW177993   5.296   8.539   1.914
92032SOL    HW277994   5.386   8.655   1.950
92033SOL     OW77995   8.490   0.095  11.578
92033SOL    HW177996   8.558   0.048  11.529
92033SOL    HW277997   8.524   0.184  11.585
92034SOL     OW77998   0.543   4.275   9.476
92034SOL    HW177999   0.455   4.266   9.437
92034SOL    HW278000   0.535   4.233   9.562
92035SOL     OW78001   2.087   0.583   4.736
92035SOL    HW178002   2.057   0.674   4.737
92035SOL    HW278003   2.084   0.556   4.828
92036SOL     OW78004  11.066   1.275   0.315
92036SOL    HW178005  11.016   1.234   0.244
92036SOL    HW278006  11.156   1.250   0.297
92037SOL     OW78007   4.991   3.627   8.028
92037SOL    HW178008   5.045   3.644   8.105
92037SOL    HW278009   5.055   3.609   7.958
92038SOL     OW78010   8.186   5.716  14.400
92038SOL    HW178011   8.248   5.666  14.346
92038SOL    HW278012   8.195   5.806  14.369
92039SOL     OW78013   7.576   9.874  11.132
92039SOL    HW178014   7.665   9.844  11.149
92039SOL    HW278015   7.580   9.915  11.045
92040SOL     OW78016  10.247  10.829   5.121
92040SOL    HW178017  10.289  10.831   5.034
92040SOL    HW278018  10.193  10.750   5.119
92041SOL     OW78019   2.651  13.983   6.610
92041SOL    HW178020   2.592  14.054   6.637
92041SOL    HW278021   2.738  14.012   6.637
92042SOL     OW78022  13.393  12.918   7.240
92042SOL    HW178023  13.461  12.985   7.251
92042SOL    HW278024  13.337  12.952   7.170
92043SOL     OW78025   7.030   2.717   0.844
92043SOL    HW178026   6.945   2.682   0.870
92043SOL    HW278027   7.084   2.712   0.923
92044SOL     OW78028  13.088   2.333  12.585
92044SOL    HW178029  13.174   2.320  12.625
92044SOL    HW278030  13.102   2.401  12.519
92045SOL     OW78031   7.469   4.814  11.514
92045SOL    HW178032   7.489   4.797  11.606
92045SOL    HW278033   7.424   4.734  11.485
92046SOL     OW78034   4.547  10.889  14.015
92046SOL    HW178035   4.626  10.889  13.961
92046SOL    HW278036   4.486  10.832  13.968
92047SOL     OW78037   5.708   8.899   4.539
92047SOL    HW178038   5.708   8.832   4.607
92047SOL    HW278039   5.728   8.980   4.586
92048SOL     OW78040   8.187  13.986   4.918
92048SOL    HW178041   8.172  14.021   5.005
92048SOL    HW278042   8.119  14.027   4.863
92049SOL     OW78043   4.228   3.024   9.448
92049SOL    HW178044   4.203   2.946   9.398
92049SOL    HW278045   4.306   3.057   9.403
92050SOL     OW78046   0.349   0.019   8.160
92050SOL    HW178047   0.412  14.845   8.213
92050SOL    HW278048   0.317  14.831   8.096
92051SOL     OW78049   2.240   3.304   3.197
92051SOL    HW178050   2.223   3.344   3.112
92051SOL    HW278051   2.246   3.210   3.179
92052SOL     OW78052  11.534  12.097   5.422
92052SOL    HW178053  11.562  12.113   5.332
92052SOL    HW278054  11.468  12.165   5.439
92053SOL     OW78055   9.454   5.407   7.983
92053SOL    HW178056   9.375   5.367   8.019
92053SOL    HW278057   9.514   5.333   7.969
92054SOL     OW78058   7.479   4.578   8.033
92054SOL    HW178059   7.558   4.632   8.031
92054SOL    HW278060   7.450   4.572   7.942
92055SOL     OW78061  14.043   6.158   8.736
92055SOL    HW178062  14.131   6.168   8.699
92055SOL    HW278063  13.988   6.217   8.684
92056SOL     OW78064   0.379   8.802  13.685
92056SOL    HW178065   0.462   8.803  13.638
92056SOL    HW278066   0.385   8.726  13.743
92057SOL     OW78067  13.970   3.659  11.682
92057SOL    HW178068  13.889   3.705  11.663
92057SOL    HW278069  14.007   3.704  11.758
92058SOL     OW78070   5.332  11.564   1.691
92058SOL    HW178071   5.323  11.635   1.755
92058SOL    HW278072   5.351  11.487   1.743
92059SOL     OW78073   9.205   1.658   5.509
92059SOL    HW178074   9.140   1.719   5.542
92059SOL    HW278075   9.183   1.644   5.417
92060SOL     OW78076  12.103   3.599   1.057
92060SOL    HW178077  12.154   3.638   0.985
92060SOL    HW278078  12.094   3.670   1.120
92061SOL     OW78079   7.892   7.309  13.812
92061SOL    HW178080   7.913   7.216  13.824
92061SOL    HW278081   7.975   7.350  13.788
92062SOL     OW78082   9.743   3.168   6.260
92062SOL    HW178083   9.688   3.098   6.226
92062SOL    HW278084   9.682   3.234   6.292
92063SOL     OW78085   6.668   2.067   1.742
92063SOL    HW178086   6.710   2.018   1.671
92063SOL    HW278087   6.741   2.095   1.798
92064SOL     OW78088   4.450   5.199   2.530
92064SOL    HW178089   4.479   5.290   2.520
92064SOL    HW278090   4.438   5.168   2.440
92065SOL     OW78091  14.682   6.427   0.579
92065SOL    HW178092  14.696   6.499   0.640
92065SOL    HW278093  14.769   6.391   0.564
92066SOL     OW78094   4.136   8.995   2.720
92066SOL    HW178095   4.224   9.002   2.683
92066SOL    HW278096   4.088   9.069   2.684
92067SOL     OW78097  11.270   6.934   2.806
92067SOL    HW178098  11.296   6.869   2.741
92067SOL    HW278099  11.220   6.999   2.756
92068SOL     OW78100   0.257  10.243   0.291
92068SOL    HW178101   0.181  10.190   0.265
92068SOL    HW278102   0.325  10.219   0.228
92069SOL     OW78103   1.185   9.023   4.864
92069SOL    HW178104   1.185   9.076   4.943
92069SOL    HW278105   1.121   9.065   4.807
92070SOL     OW78106   0.798  14.502   7.613
92070SOL    HW178107   0.788  14.429   7.674
92070SOL    HW278108   0.793  14.462   7.526
92071SOL     OW78109   1.820  14.605   5.960
92071SOL    HW178110   1.832  14.540   6.029
92071SOL    HW278111   1.748  14.570   5.907
92072SOL     OW78112   9.401   9.936  10.276
92072SOL    HW178113   9.357   9.863  10.232
92072SOL    HW278114   9.469   9.964  10.215
92073SOL     OW78115   1.423   5.245   6.313
92073SOL    HW178116   1.514   5.213   6.314
92073SOL    HW278117   1.419   5.304   6.238
92074SOL     OW78118   9.867   7.298  13.001
92074SOL    HW178119   9.821   7.234  12.947
92074SOL    HW278120   9.941   7.327  12.948
92075SOL     OW78121  10.991   4.280   9.465
92075SOL    HW178122  10.981   4.372   9.489
92075SOL    HW278123  11.083   4.260   9.484
92076SOL     OW78124   6.400   9.024   4.353
92076SOL    HW178125   6.434   8.977   4.277
92076SOL    HW278126   6.470   9.085   4.377
92077SOL     OW78127  10.769  14.386   7.891
92077SOL    HW178128  10.745  14.451   7.825
92077SOL    HW278129  10.699  14.321   7.887
92078SOL     OW78130  10.621  11.963   7.583
92078SOL    HW178131  10.594  11.944   7.493
92078SOL    HW278132  10.556  12.026   7.614
92079SOL     OW78133   8.532   1.761  10.750
92079SOL    HW178134   8.472   1.834  10.766
92079SOL    HW278135   8.576   1.785  10.668
92080SOL     OW78136   8.555   1.570   1.558
92080SOL    HW178137   8.461   1.566   1.542
92080SOL    HW278138   8.578   1.662   1.541
92081SOL     OW78139   8.745  11.601   6.622
92081SOL    HW178140   8.749  11.591   6.717
92081SOL    HW278141   8.720  11.693   6.608
92082SOL     OW78142   7.041  14.701   2.939
92082SOL    HW178143   6.984  14.695   2.862
92082SOL    HW278144   7.028  14.791   2.971
92083SOL     OW78145   8.052  11.464   1.224
92083SOL    HW178146   8.089  11.552   1.221
92083SOL    HW278147   8.013  11.451   1.137
92084SOL     OW78148  11.611   3.762  13.956
92084SOL    HW178149  11.637   3.681  13.912
92084SOL    HW278150  11.524   3.744  13.991
92085SOL     OW78151   3.221  12.957  13.137
92085SOL    HW178152   3.244  12.970  13.229
92085SOL    HW278153   3.191  12.866  13.132
92086SOL     OW78154  13.520   2.674   9.013
92086SOL    HW178155  13.562   2.698   9.095
92086SOL    HW278156  13.568   2.598   8.981
92087SOL     OW78157   2.096   4.243   0.371
92087SOL    HW178158   2.120   4.231   0.463
92087SOL    HW278159   2.021   4.303   0.374
92088SOL     OW78160   5.147  13.233  11.830
92088SOL    HW178161   5.223  13.203  11.880
92088SOL    HW278162   5.101  13.292  11.890
92089SOL     OW78163  10.487   9.379   9.137
92089SOL    HW178164  10.424   9.365   9.208
92089SOL    HW278165  10.521   9.468   9.152
92090SOL     OW78166  14.626   1.399  14.689
92090SOL    HW178167  14.649   1.447  14.610
92090SOL    HW278168  14.532   1.414  14.699
92091SOL     OW78169  13.390   3.345   2.808
92091SOL    HW178170  13.483   3.324   2.806
92091SOL    HW278171  13.358   3.321   2.721
92092SOL     OW78172   7.020  12.845   3.938
92092SOL    HW178173   7.055  12.872   3.853
92092SOL    HW278174   7.069  12.897   4.002
92093SOL     OW78175   0.509  10.769   4.727
92093SOL    HW178176   0.518  10.720   4.809
92093SOL    HW278177   0.458  10.711   4.670
92094SOL     OW78178   9.577  13.249   8.711
92094SOL    HW178179   9.631  13.286   8.780
92094SOL    HW278180   9.562  13.321   8.650
92095SOL     OW78181   2.324  12.070   6.392
92095SOL    HW178182   2.334  11.979   6.420
92095SOL    HW278183   2.270  12.110   6.461
92096SOL     OW78184  10.020  10.480  10.189
92096SOL    HW178185  10.048  10.389  10.199
92096SOL    HW278186  10.024  10.517  10.277
92097SOL     OW78187  13.052  14.557  10.979
92097SOL    HW178188  13.119  14.498  10.944
92097SOL    HW278189  13.028  14.517  11.063
92098SOL     OW78190   1.719  12.375   2.387
92098SOL    HW178191   1.748  12.459   2.423
92098SOL    HW278192   1.626  12.387   2.371
92099SOL     OW78193   8.066  14.233   8.720
92099SOL    HW178194   7.989  14.264   8.673
92099SOL    HW278195   8.132  14.302   8.707
92100SOL     OW78196  10.923   7.066  14.483
92100SOL    HW178197  10.964   7.045  14.399
92100SOL    HW278198  10.835   7.028  14.478
92101SOL     OW78199  14.751  10.262  13.142
92101SOL    HW178200  14.826  10.289  13.196
92101SOL    HW278201  14.784  10.190  13.089
92102SOL     OW78202   5.523   2.503   5.510
92102SOL    HW178203   5.477   2.582   5.480
92102SOL    HW278204   5.535   2.518   5.604
92103SOL     OW78205   3.619  12.255   8.005
92103SOL    HW178206   3.683  12.324   7.990
92103SOL    HW278207   3.647  12.213   8.087
92104SOL     OW78208   6.388   8.540   5.228
92104SOL    HW178209   6.348   8.475   5.170
92104SOL    HW278210   6.479   8.545   5.199
92105SOL     OW78211   0.050   7.986   1.230
92105SOL    HW178212   0.090   7.916   1.179
92105SOL    HW278213   0.011   8.044   1.164
92106SOL     OW78214   0.991  12.049   0.127
92106SOL    HW178215   0.963  12.047   0.219
92106SOL    HW278216   1.031  12.135   0.116
92107SOL     OW78217   7.686   4.584   2.988
92107SOL    HW178218   7.712   4.622   2.904
92107SOL    HW278219   7.759   4.526   3.010
92108SOL     OW78220   1.476   3.885  12.697
92108SOL    HW178221   1.384   3.869  12.676
92108SOL    HW278222   1.491   3.837  12.778
92109SOL     OW78223  11.682   9.001   6.740
92109SOL    HW178224  11.758   9.059   6.748
92109SOL    HW278225  11.716   8.922   6.698
92110SOL     OW78226   7.766   9.956  10.309
92110SOL    HW178227   7.841  10.006  10.276
92110SOL    HW278228   7.691  10.015  10.297
92111SOL     OW78229   1.097   2.246   2.774
92111SOL    HW178230   1.181   2.244   2.820
92111SOL    HW278231   1.094   2.334   2.735
92112SOL     OW78232   5.747   5.247  10.626
92112SOL    HW178233   5.818   5.310  10.634
92112SOL    HW278234   5.779   5.168  10.670
92113SOL     OW78235  12.199  10.590  13.019
92113SOL    HW178236  12.114  10.545  13.014
92113SOL    HW278237  12.200  10.648  12.944
92114SOL     OW78238  10.959   9.939   3.165
92114SOL    HW178239  11.051   9.926   3.190
92114SOL    HW278240  10.909   9.904   3.239
92115SOL     OW78241   1.537   5.842   8.842
92115SOL    HW178242   1.552   5.785   8.766
92115SOL    HW278243   1.578   5.795   8.915
92116SOL     OW78244   3.098   3.938   7.814
92116SOL    HW178245   3.134   3.942   7.902
92116SOL    HW278246   3.175   3.937   7.757
92117SOL     OW78247   3.177  12.454  11.193
92117SOL    HW178248   3.170  12.368  11.233
92117SOL    HW278249   3.091  12.494  11.204
92118SOL     OW78250  13.672   4.355  14.054
92118SOL    HW178251  13.645   4.446  14.064
92118SOL    HW278252  13.656   4.315  14.140
92119SOL     OW78253   7.209   2.449   4.380
92119SOL    HW178254   7.279   2.419   4.438
92119SOL    HW278255   7.255   2.494   4.309
92120SOL     OW78256   8.404   1.734   3.554
92120SOL    HW178257   8.460   1.812   3.551
92120SOL    HW278258   8.438   1.683   3.627
92121SOL     OW78259  11.472  10.918   7.415
92121SOL    HW178260  11.439  10.828   7.405
92121SOL    HW278261  11.534  10.929   7.344
92122SOL     OW78262   9.712   7.570   5.875
92122SOL    HW178263   9.773   7.500   5.854
92122SOL    HW278264   9.730   7.638   5.810
92123SOL     OW78265   0.070   3.069   7.735
92123SOL    HW178266  14.849   3.070   7.731
92123SOL    HW278267   0.091   3.122   7.811
92124SOL     OW78268   9.729   8.927  14.360
92124SOL    HW178269   9.727   8.895  14.269
92124SOL    HW278270   9.690   8.856  14.411
92125SOL     OW78271   4.689   8.242   3.582
92125SOL    HW178272   4.630   8.294   3.527
92125SOL    HW278273   4.634   8.216   3.656
92126SOL     OW78274   4.709   1.784   9.235
92126SOL    HW178275   4.674   1.820   9.152
92126SOL    HW278276   4.742   1.861   9.281
92127SOL     OW78277  14.521   6.400  11.881
92127SOL    HW178278  14.468   6.450  11.944
92127SOL    HW278279  14.469   6.400  11.801
92128SOL     OW78280   4.681  11.040  14.866
92128SOL    HW178281   4.701  10.953   0.027
92128SOL    HW278282   4.589  11.055   0.016
92129SOL     OW78283  11.095   4.775  14.226
92129SOL    HW178284  11.074   4.736  14.142
92129SOL    HW278285  11.176   4.732  14.254
92130SOL     OW78286   8.181  14.473   6.390
92130SOL    HW178287   8.097  14.481   6.343
92130SOL    HW278288   8.182  14.383   6.422
92131SOL     OW78289   4.320   6.157   3.689
92131SOL    HW178290   4.391   6.159   3.624
92131SOL    HW278291   4.243   6.187   3.641
92132SOL     OW78292   3.854  13.426   5.711
92132SOL    HW178293   3.815  13.509   5.740
92132SOL    HW278294   3.815  13.410   5.625
92133SOL     OW78295   2.013   4.476   9.071
92133SOL    HW178296   1.947   4.406   9.064
92133SOL    HW278297   1.984   4.541   9.007
92134SOL     OW78298   9.384   1.853  13.146
92134SOL    HW178299   9.332   1.892  13.076
92134SOL    HW278300   9.459   1.911  13.155
92135SOL     OW78301   7.240   5.981   5.007
92135SOL    HW178302   7.178   5.975   4.933
92135SOL    HW278303   7.287   5.898   5.005
92136SOL     OW78304  12.465   6.947   3.863
92136SOL    HW178305  12.490   6.863   3.902
92136SOL    HW278306  12.547   6.995   3.855
92137SOL     OW78307  14.429  12.117  13.924
92137SOL    HW178308  14.481  12.099  14.002
92137SOL    HW278309  14.345  12.075  13.941
92138SOL     OW78310   2.457  11.095   3.074
92138SOL    HW178311   2.414  11.105   3.159
92138SOL    HW278312   2.550  11.105   3.094
92139SOL     OW78313  14.421   7.510   8.155
92139SOL    HW178314  14.418   7.602   8.182
92139SOL    HW278315  14.360   7.504   8.082
92140SOL     OW78316   1.997   4.615  12.837
92140SOL    HW178317   2.055   4.629  12.761
92140SOL    HW278318   1.910   4.610  12.799
92141SOL     OW78319   3.878   1.999   1.726
92141SOL    HW178320   3.971   1.976   1.729
92141SOL    HW278321   3.873   2.085   1.769
92142SOL     OW78322   0.571   2.593   5.018
92142SOL    HW178323   0.663   2.618   5.014
92142SOL    HW278324   0.549   2.595   5.111
92143SOL     OW78325   4.660   1.360  11.507
92143SOL    HW178326   4.710   1.284  11.536
92143SOL    HW278327   4.683   1.371  11.415
92144SOL     OW78328   8.292   2.833   4.558
92144SOL    HW178329   8.217   2.878   4.519
92144SOL    HW278330   8.264   2.741   4.566
92145SOL     OW78331   8.066   0.814  11.889
92145SOL    HW178332   8.051   0.755  11.963
92145SOL    HW278333   8.144   0.864  11.914
92146SOL     OW78334   3.328   1.906  14.598
92146SOL    HW178335   3.401   1.967  14.599
92146SOL    HW278336   3.321   1.874  14.688
92147SOL     OW78337  11.555  13.595   4.461
92147SOL    HW178338  11.636  13.566   4.419
92147SOL    HW278339  11.496  13.521   4.453
92148SOL     OW78340  13.997  14.015   3.800
92148SOL    HW178341  14.027  14.105   3.791
92148SOL    HW278342  14.064  13.973   3.853
92149SOL     OW78343   3.675   5.829   6.526
92149SOL    HW178344   3.697   5.892   6.456
92149SOL    HW278345   3.628   5.759   6.481
92150SOL     OW78346   7.698  10.508   7.953
92150SOL    HW178347   7.671  10.593   7.918
92150SOL    HW278348   7.784  10.525   7.992
92151SOL     OW78349   8.915  14.394  10.728
92151SOL    HW178350   8.831  14.368  10.690
92151SOL    HW278351   8.981  14.363  10.666
92152SOL     OW78352  10.221  11.104   8.378
92152SOL    HW178353  10.130  11.091   8.350
92152SOL    HW278354  10.240  11.195   8.357
92153SOL     OW78355   5.020  12.949   0.827
92153SOL    HW178356   5.078  12.932   0.753
92153SOL    HW278357   5.052  12.892   0.896
92154SOL     OW78358   3.337   6.937  10.237
92154SOL    HW178359   3.380   6.872  10.292
92154SOL    HW278360   3.248   6.944  10.273
92155SOL     OW78361   6.826   2.861   6.769
92155SOL    HW178362   6.779   2.787   6.731
92155SOL    HW278363   6.917   2.831   6.774
92156SOL     OW78364  14.314   6.787   5.695
92156SOL    HW178365  14.273   6.831   5.769
92156SOL    HW278366  14.266   6.818   5.618
92157SOL     OW78367   6.799  12.611  11.231
92157SOL    HW178368   6.810  12.666  11.154
92157SOL    HW278369   6.756  12.532  11.198
92158SOL     OW78370   4.959   3.366  11.930
92158SOL    HW178371   4.932   3.448  11.888
92158SOL    HW278372   4.943   3.380  12.023
92159SOL     OW78373   9.126   2.274   5.732
92159SOL    HW178374   9.149   2.186   5.702
92159SOL    HW278375   9.080   2.313   5.658
92160SOL     OW78376  10.413  14.577   7.314
92160SOL    HW178377  10.481  14.511   7.320
92160SOL    HW278378  10.353  14.545   7.248
92161SOL     OW78379   8.642   7.143   6.892
92161SOL    HW178380   8.726   7.178   6.922
92161SOL    HW278381   8.585   7.220   6.885
92162SOL     OW78382   5.335  14.299   1.938
92162SOL    HW178383   5.394  14.255   1.877
92162SOL    HW278384   5.251  14.254   1.926
92163SOL     OW78385   3.392   7.176   4.495
92163SOL    HW178386   3.363   7.203   4.407
92163SOL    HW278387   3.362   7.086   4.503
92164SOL     OW78388  14.790   0.256  11.990
92164SOL    HW178389  14.773   0.265  11.897
92164SOL    HW278390  14.859   0.190  11.996
92165SOL     OW78391   5.099  14.733  14.481
92165SOL    HW178392   5.033  14.801  14.469
92165SOL    HW278393   5.068  14.660  14.428
92166SOL     OW78394   1.393   7.176   3.358
92166SOL    HW178395   1.386   7.156   3.265
92166SOL    HW278396   1.458   7.115   3.391
92167SOL     OW78397   1.703   2.191   2.047
92167SOL    HW178398   1.752   2.117   2.012
92167SOL    HW278399   1.756   2.267   2.026
92168SOL     OW78400   7.116   3.838  14.522
92168SOL    HW178401   7.057   3.894  14.573
92168SOL    HW278402   7.171   3.796  14.588
92169SOL     OW78403   4.316  11.716   4.183
92169SOL    HW178404   4.307  11.668   4.101
92169SOL    HW278405   4.306  11.808   4.157
92170SOL     OW78406   8.184   0.826   3.237
92170SOL    HW178407   8.103   0.791   3.200
92170SOL    HW278408   8.243   0.833   3.162
92171SOL     OW78409  13.462   6.218   9.337
92171SOL    HW178410  13.457   6.143   9.395
92171SOL    HW278411  13.405   6.284   9.377
92172SOL     OW78412   8.456   8.893  14.184
92172SOL    HW178413   8.530   8.847  14.144
92172SOL    HW278414   8.456   8.980  14.142
92173SOL     OW78415   0.586   0.294   3.639
92173SOL    HW178416   0.493   0.305   3.661
92173SOL    HW278417   0.633   0.327   3.716
92174SOL     OW78418   6.309   5.604   8.959
92174SOL    HW178419   6.357   5.681   8.990
92174SOL    HW278420   6.217   5.623   8.980
92175SOL     OW78421   3.358   5.723   8.949
92175SOL    HW178422   3.284   5.663   8.957
92175SOL    HW278423   3.375   5.752   9.039
92176SOL     OW78424   0.765   6.940   5.027
92176SOL    HW178425   0.846   6.933   5.077
92176SOL    HW278426   0.756   7.034   5.010
92177SOL     OW78427   9.945   1.306   8.019
92177SOL    HW178428   9.944   1.278   7.927
92177SOL    HW278429   9.964   1.399   8.015
92178SOL     OW78430   9.617   3.782  11.599
92178SOL    HW178431   9.559   3.835  11.544
92178SOL    HW278432   9.560   3.716  11.638
92179SOL     OW78433   5.375   9.646  13.168
92179SOL    HW178434   5.442   9.660  13.101
92179SOL    HW278435   5.314   9.720  13.157
92180SOL     OW78436   9.202   3.006   8.380
92180SOL    HW178437   9.170   3.044   8.462
92180SOL    HW278438   9.187   3.074   8.314
92181SOL     OW78439  13.418  14.514   2.679
92181SOL    HW178440  13.382  14.533   2.765
92181SOL    HW278441  13.356  14.452   2.640
92182SOL     OW78442   5.679   5.977   1.036
92182SOL    HW178443   5.721   5.891   1.043
92182SOL    HW278444   5.693   6.004   0.946
92183SOL     OW78445  12.871   8.495   6.309
92183SOL    HW178446  12.843   8.415   6.355
92183SOL    HW278447  12.966   8.491   6.310
92184SOL     OW78448   2.282   3.546  13.138
92184SOL    HW178449   2.294   3.613  13.071
92184SOL    HW278450   2.314   3.587  13.218
92185SOL     OW78451  11.664   6.255  12.209
92185SOL    HW178452  11.620   6.179  12.169
92185SOL    HW278453  11.741   6.270  12.154
92186SOL     OW78454   6.136   3.015  12.604
92186SOL    HW178455   6.227   3.020  12.572
92186SOL    HW278456   6.085   3.056  12.535
92187SOL     OW78457  10.180   5.086  12.264
92187SOL    HW178458  10.206   4.994  12.276
92187SOL    HW278459  10.228   5.133  12.333
92188SOL     OW78460   8.540   4.282  10.816
92188SOL    HW178461   8.501   4.225  10.882
92188SOL    HW278462   8.569   4.359  10.865
92189SOL     OW78463   0.477   7.066   5.114
92189SOL    HW178464   0.465   7.161   5.118
92189SOL    HW278465   0.504   7.042   5.203
92190SOL     OW78466   1.964   7.716   8.855
92190SOL    HW178467   1.952   7.689   8.764
92190SOL    HW278468   1.958   7.811   8.853
92191SOL     OW78469  10.139  13.283   6.355
92191SOL    HW178470  10.147  13.348   6.424
92191SOL    HW278471  10.162  13.330   6.275
92192SOL     OW78472   0.619   5.975   8.560
92192SOL    HW178473   0.605   5.982   8.466
92192SOL    HW278474   0.624   6.065   8.591
92193SOL     OW78475   4.582   0.442  12.776
92193SOL    HW178476   4.649   0.490  12.727
92193SOL    HW278477   4.592   0.473  12.866
92194SOL     OW78478   8.703   0.734   9.505
92194SOL    HW178479   8.666   0.702   9.587
92194SOL    HW278480   8.672   0.672   9.439
92195SOL     OW78481   4.075  10.174   4.948
92195SOL    HW178482   4.126  10.254   4.935
92195SOL    HW278483   3.996  10.203   4.994
92196SOL     OW78484  12.077   3.700   4.125
92196SOL    HW178485  12.037   3.616   4.145
92196SOL    HW278486  12.103   3.693   4.033
92197SOL     OW78487   2.104  12.480  11.415
92197SOL    HW178488   2.015  12.466  11.446
92197SOL    HW278489   2.100  12.467  11.321
92198SOL     OW78490  14.238   3.984   9.954
92198SOL    HW178491  14.165   4.044   9.938
92198SOL    HW278492  14.309   4.040   9.985
92199SOL     OW78493  13.744   1.807  11.705
92199SOL    HW178494  13.820   1.852  11.666
92199SOL    HW278495  13.705   1.873  11.763
92200SOL     OW78496   7.091  10.370   7.103
92200SOL    HW178497   7.008  10.398   7.141
92200SOL    HW278498   7.107  10.433   7.032
92201SOL     OW78499   8.303   8.336   4.064
92201SOL    HW178500   8.259   8.252   4.078
92201SOL    HW278501   8.236   8.391   4.023
92202SOL     OW78502  14.582   2.683   9.791
92202SOL    HW178503  14.671   2.662   9.761
92202SOL    HW278504  14.526   2.662   9.717
92203SOL     OW78505   3.970  12.075   4.110
92203SOL    HW178506   3.937  11.986   4.124
92203SOL    HW278507   3.932  12.127   4.180
92204SOL     OW78508   0.407   0.757   7.258
92204SOL    HW178509   0.358   0.839   7.256
92204SOL    HW278510   0.474   0.770   7.325
92205SOL     OW78511   3.091  13.187   7.588
92205SOL    HW178512   3.173  13.161   7.629
92205SOL    HW278513   3.041  13.106   7.580
92206SOL     OW78514   4.436   2.504  13.875
92206SOL    HW178515   4.383   2.565  13.822
92206SOL    HW278516   4.372   2.463  13.933
92207SOL     OW78517  12.255   8.519   0.461
92207SOL    HW178518  12.336   8.468   0.463
92207SOL    HW278519  12.236   8.529   0.368
92208SOL     OW78520  10.780   7.566   0.951
92208SOL    HW178521  10.783   7.647   0.899
92208SOL    HW278522  10.722   7.508   0.902
92209SOL     OW78523  11.970   6.949  13.881
92209SOL    HW178524  11.920   7.021  13.843
92209SOL    HW278525  11.990   6.977  13.970
92210SOL     OW78526   4.004  14.102   6.697
92210SOL    HW178527   3.933  14.053   6.655
92210SOL    HW278528   4.053  14.140   6.624
92211SOL     OW78529   6.551   6.429   0.834
92211SOL    HW178530   6.594   6.366   0.892
92211SOL    HW278531   6.480   6.380   0.793
92212SOL     OW78532   5.162   1.454   2.126
92212SOL    HW178533   5.070   1.469   2.150
92212SOL    HW278534   5.203   1.421   2.206
92213SOL     OW78535  10.734   1.536   8.225
92213SOL    HW178536  10.740   1.451   8.266
92213SOL    HW278537  10.748   1.519   8.132
92214SOL     OW78538  11.953   7.524  13.224
92214SOL    HW178539  12.034   7.574  13.225
92214SOL    HW278540  11.887   7.585  13.257
92215SOL     OW78541  12.823   5.427  11.013
92215SOL    HW178542  12.885   5.494  11.040
92215SOL    HW278543  12.774   5.406  11.092
92216SOL     OW78544   0.020   0.661   6.527
92216SOL    HW178545   0.010   0.678   6.434
92216SOL    HW278546   0.114   0.654   6.541
92217SOL     OW78547   8.061   2.774  13.341
92217SOL    HW178548   8.108   2.836  13.285
92217SOL    HW278549   8.009   2.722  13.280
92218SOL     OW78550   3.726  10.631   2.688
92218SOL    HW178551   3.715  10.660   2.778
92218SOL    HW278552   3.643  10.589   2.666
92219SOL     OW78553   5.415  11.736  11.405
92219SOL    HW178554   5.341  11.676  11.416
92219SOL    HW278555   5.475  11.690  11.346
92220SOL     OW78556  10.360  12.099   6.354
92220SOL    HW178557  10.300  12.025   6.339
92220SOL    HW278558  10.417  12.099   6.277
92221SOL     OW78559  12.790  14.311  12.545
92221SOL    HW178560  12.733  14.235  12.558
92221SOL    HW278561  12.730  14.384  12.533
92222SOL     OW78562  14.848   2.957   0.236
92222SOL    HW178563  14.776   2.932   0.178
92222SOL    HW278564   0.041   2.892   0.219
92223SOL     OW78565   4.736   6.612   2.500
92223SOL    HW178566   4.750   6.703   2.524
92223SOL    HW278567   4.642   6.599   2.505
92224SOL     OW78568   2.319   3.262   4.538
92224SOL    HW178569   2.414   3.254   4.525
92224SOL    HW278570   2.302   3.356   4.530
92225SOL     OW78571  12.399   0.600   6.739
92225SOL    HW178572  12.488   0.625   6.764
92225SOL    HW278573  12.384   0.516   6.783
92226SOL     OW78574   2.002  13.305   1.810
92226SOL    HW178575   1.962  13.222   1.835
92226SOL    HW278576   2.091  13.281   1.784
92227SOL     OW78577   8.114   7.743  12.574
92227SOL    HW178578   8.175   7.793  12.521
92227SOL    HW278579   8.170   7.687  12.628
92228SOL     OW78580   2.808   1.398   5.547
92228SOL    HW178581   2.809   1.425   5.455
92228SOL    HW278582   2.833   1.477   5.595
92229SOL     OW78583  10.639  14.525   2.795
92229SOL    HW178584  10.572  14.499   2.858
92229SOL    HW278585  10.665  14.444   2.751
92230SOL     OW78586   2.418   1.231   7.099
92230SOL    HW178587   2.462   1.254   7.018
92230SOL    HW278588   2.441   1.139   7.114
92231SOL     OW78589   4.380  13.690   1.511
92231SOL    HW178590   4.293  13.701   1.549
92231SOL    HW278591   4.381  13.749   1.436
92232SOL     OW78592  14.828   6.382   8.617
92232SOL    HW178593  14.806   6.333   8.538
92232SOL    HW278594   0.047   6.372   8.626
92233SOL     OW78595   4.766  11.272  14.069
92233SOL    HW178596   4.829  11.237  14.132
92233SOL    HW278597   4.681  11.239  14.100
92234SOL     OW78598  12.008  14.483   1.361
92234SOL    HW178599  11.971  14.475   1.449
92234SOL    HW278600  12.033  14.576   1.355
92235SOL     OW78601  12.525   3.736   9.734
92235SOL    HW178602  12.619   3.726   9.749
92235SOL    HW278603  12.504   3.668   9.669
92236SOL     OW78604   8.884   0.457  10.161
92236SOL    HW178605   8.917   0.368  10.176
92236SOL    HW278606   8.961   0.513  10.172
92237SOL     OW78607   4.539   4.678   3.007
92237SOL    HW178608   4.532   4.755   3.064
92237SOL    HW278609   4.599   4.619   3.053
92238SOL     OW78610   9.323   8.995  10.430
92238SOL    HW178611   9.327   9.083  10.468
92238SOL    HW278612   9.346   8.937  10.502
92239SOL     OW78613   1.038  14.736  11.450
92239SOL    HW178614   1.075  14.765  11.534
92239SOL    HW278615   0.944  14.749  11.460
92240SOL     OW78616   0.372   7.708   3.611
92240SOL    HW178617   0.449   7.659   3.583
92240SOL    HW278618   0.387   7.728   3.703
92241SOL     OW78619  11.895  13.605   0.591
92241SOL    HW178620  11.855  13.519   0.583
92241SOL    HW278621  11.874  13.649   0.509
92242SOL     OW78622   7.700   4.049   4.021
92242SOL    HW178623   7.777   4.099   4.047
92242SOL    HW278624   7.734   3.965   3.990
92243SOL     OW78625   0.071  11.434   3.635
92243SOL    HW178626   0.150  11.404   3.681
92243SOL    HW278627   0.062  11.526   3.661
92244SOL     OW78628   1.385   4.608   6.231
92244SOL    HW178629   1.393   4.694   6.273
92244SOL    HW278630   1.429   4.549   6.291
92245SOL     OW78631   9.851   7.263   1.526
92245SOL    HW178632   9.942   7.265   1.556
92245SOL    HW278633   9.822   7.354   1.529
92246SOL     OW78634   6.811   4.685  14.000
92246SOL    HW178635   6.806   4.745  13.925
92246SOL    HW278636   6.752   4.614  13.978
92247SOL     OW78637   9.130   3.056  12.411
92247SOL    HW178638   9.082   2.975  12.395
92247SOL    HW278639   9.084   3.097  12.484
92248SOL     OW78640  11.898   3.818   4.735
92248SOL    HW178641  11.844   3.766   4.676
92248SOL    HW278642  11.839   3.844   4.805
92249SOL     OW78643  11.656  10.040   7.912
92249SOL    HW178644  11.690   9.966   7.863
92249SOL    HW278645  11.731  10.099   7.923
92250SOL     OW78646  13.676   4.920   9.620
92250SOL    HW178647  13.761   4.889   9.651
92250SOL    HW278648  13.630   4.841   9.591
92251SOL     OW78649   3.843   6.480   2.344
92251SOL    HW178650   3.908   6.542   2.377
92251SOL    HW278651   3.797   6.450   2.421
92252SOL     OW78652   1.586  12.488   5.215
92252SOL    HW178653   1.598  12.423   5.284
92252SOL    HW278654   1.586  12.572   5.260
92253SOL     OW78655   4.036  12.886   9.009
92253SOL    HW178656   4.065  12.835   9.085
92253SOL    HW278657   3.982  12.825   8.959
92254SOL     OW78658   9.850   6.493   3.135
92254SOL    HW178659   9.819   6.440   3.061
92254SOL    HW278660   9.883   6.429   3.198
92255SOL     OW78661   4.848   5.502  12.452
92255SOL    HW178662   4.764   5.548  12.451
92255SOL    HW278663   4.902   5.550  12.389
92256SOL     OW78664  10.691   6.082   2.083
92256SOL    HW178665  10.686   6.164   2.033
92256SOL    HW278666  10.602   6.045   2.077
92257SOL     OW78667   4.183   4.674  10.429
92257SOL    HW178668   4.124   4.734  10.474
92257SOL    HW278669   4.247   4.732  10.386
92258SOL     OW78670  12.965   3.423   9.306
92258SOL    HW178671  13.006   3.389   9.385
92258SOL    HW278672  13.010   3.506   9.289
92259SOL     OW78673   4.230   3.492   7.764
92259SOL    HW178674   4.225   3.430   7.836
92259SOL    HW278675   4.317   3.532   7.772
92260SOL     OW78676   7.371   1.741   8.852
92260SOL    HW178677   7.403   1.679   8.787
92260SOL    HW278678   7.447   1.796   8.872
92261SOL     OW78679   7.233   1.042   8.299
92261SOL    HW178680   7.140   1.062   8.289
92261SOL    HW278681   7.241   1.012   8.389
92262SOL     OW78682   7.926   7.633  13.821
92262SOL    HW178683   7.907   7.683  13.900
92262SOL    HW278684   7.863   7.561  13.822
92263SOL     OW78685   5.683   1.293   9.601
92263SOL    HW178686   5.748   1.311   9.533
92263SOL    HW278687   5.610   1.350   9.579
92264SOL     OW78688   9.339   6.187   0.964
92264SOL    HW178689   9.363   6.274   0.995
92264SOL    HW278690   9.347   6.131   1.041
92265SOL     OW78691   1.691   7.207   4.016
92265SOL    HW178692   1.749   7.219   4.091
92265SOL    HW278693   1.689   7.292   3.973
92266SOL     OW78694   1.627   1.867   4.428
92266SOL    HW178695   1.634   1.962   4.431
92266SOL    HW278696   1.542   1.850   4.388
92267SOL     OW78697   1.742  14.530  12.465
92267SOL    HW178698   1.685  14.587  12.413
92267SOL    HW278699   1.704  14.531  12.553
92268SOL     OW78700   3.363  13.604   6.113
92268SOL    HW178701   3.309  13.559   6.179
92268SOL    HW278702   3.360  13.546   6.037
92269SOL     OW78703   1.874   3.829   8.818
92269SOL    HW178704   1.846   3.908   8.771
92269SOL    HW278705   1.947   3.858   8.872
92270SOL     OW78706   0.582   8.018   5.222
92270SOL    HW178707   0.638   7.942   5.205
92270SOL    HW278708   0.611   8.050   5.308
92271SOL     OW78709   8.702   5.762   2.179
92271SOL    HW178710   8.671   5.846   2.213
92271SOL    HW278711   8.714   5.778   2.085
92272SOL     OW78712   0.351  14.190   6.476
92272SOL    HW178713   0.342  14.245   6.554
92272SOL    HW278714   0.445  14.189   6.459
92273SOL     OW78715   0.876  14.140   3.212
92273SOL    HW178716   0.846  14.231   3.216
92273SOL    HW278717   0.799  14.091   3.184
92274SOL     OW78718   1.186   7.557  11.229
92274SOL    HW178719   1.100   7.596  11.246
92274SOL    HW278720   1.166   7.476  11.181
92275SOL     OW78721   9.928   8.678   4.092
92275SOL    HW178722   9.951   8.596   4.135
92275SOL    HW278723   9.953   8.746   4.156
92276SOL     OW78724   2.297   6.408   6.113
92276SOL    HW178725   2.280   6.499   6.089
92276SOL    HW278726   2.387   6.392   6.084
92277SOL     OW78727   3.990   7.529   6.921
92277SOL    HW178728   3.943   7.446   6.922
92277SOL    HW278729   4.062   7.516   6.982
92278SOL     OW78730   2.857  11.652  10.098
92278SOL    HW178731   2.847  11.668  10.005
92278SOL    HW278732   2.911  11.724  10.130
92279SOL     OW78733   7.018   9.476   4.684
92279SOL    HW178734   7.032   9.539   4.614
92279SOL    HW278735   6.936   9.431   4.660
92280SOL     OW78736   3.982   7.831   3.745
92280SOL    HW178737   3.931   7.749   3.752
92280SOL    HW278738   4.055   7.808   3.688
92281SOL     OW78739   8.164   2.636   6.491
92281SOL    HW178740   8.182   2.638   6.397
92281SOL    HW278741   8.248   2.612   6.532
92282SOL     OW78742  14.842  13.573   4.301
92282SOL    HW178743   0.014  13.544   4.379
92282SOL    HW278744  14.781  13.639   4.332
92283SOL     OW78745   3.275   6.045   8.017
92283SOL    HW178746   3.302   6.063   7.927
92283SOL    HW278747   3.328   6.104   8.071
92284SOL     OW78748   9.914   8.072   2.899
92284SOL    HW178749   9.950   8.029   2.822
92284SOL    HW278750   9.930   8.165   2.886
92285SOL     OW78751   9.042   5.227   8.554
92285SOL    HW178752   9.032   5.143   8.599
92285SOL    HW278753   9.136   5.233   8.536
92286SOL     OW78754   0.894   5.306   3.689
92286SOL    HW178755   0.981   5.307   3.649
92286SOL    HW278756   0.875   5.213   3.703
92287SOL     OW78757   6.186   6.874   4.961
92287SOL    HW178758   6.275   6.839   4.960
92287SOL    HW278759   6.157   6.871   4.870
92288SOL     OW78760  13.473   1.960   3.049
92288SOL    HW178761  13.404   1.930   2.990
92288SOL    HW278762  13.554   1.923   3.013
92289SOL     OW78763   5.130  10.233   1.990
92289SOL    HW178764   5.206  10.290   2.006
92289SOL    HW278765   5.166  10.155   1.948
92290SOL     OW78766  14.492   7.180   5.277
92290SOL    HW178767  14.551   7.195   5.203
92290SOL    HW278768  14.419   7.130   5.241
92291SOL     OW78769   2.579  13.929   9.755
92291SOL    HW178770   2.560  13.846   9.712
92291SOL    HW278771   2.559  13.914   9.847
92292SOL     OW78772   9.186   1.541  11.037
92292SOL    HW178773   9.200   1.542  11.132
92292SOL    HW278774   9.155   1.629  11.017
92293SOL     OW78775   9.594  11.112   5.473
92293SOL    HW178776   9.594  11.165   5.394
92293SOL    HW278777   9.530  11.156   5.530
92294SOL     OW78778   8.303  10.995   1.528
92294SOL    HW178779   8.350  10.912   1.536
92294SOL    HW278780   8.354  11.046   1.465
92295SOL     OW78781  11.991  13.143   3.070
92295SOL    HW178782  12.082  13.143   3.040
92295SOL    HW278783  11.996  13.111   3.160
92296SOL     OW78784   4.448   4.907  10.955
92296SOL    HW178785   4.397   4.879  10.878
92296SOL    HW278786   4.438   5.002  10.957
92297SOL     OW78787   7.241   9.391  12.674
92297SOL    HW178788   7.267   9.413  12.585
92297SOL    HW278789   7.319   9.352  12.713
92298SOL     OW78790  13.132  14.389  13.167
92298SOL    HW178791  13.091  14.454  13.224
92298SOL    HW278792  13.119  14.423  13.078
92299SOL     OW78793   2.905   7.842   8.920
92299SOL    HW178794   2.817   7.806   8.913
92299SOL    HW278795   2.899   7.911   8.985
92300SOL     OW78796  13.834  11.096   5.417
92300SOL    HW178797  13.741  11.111   5.400
92300SOL    HW278798  13.836  11.062   5.507
92301SOL     OW78799   5.006  14.348   4.735
92301SOL    HW178800   4.997  14.443   4.728
92301SOL    HW278801   4.933  14.312   4.683
92302SOL     OW78802   3.851   5.172   9.480
92302SOL    HW178803   3.914   5.237   9.449
92302SOL    HW278804   3.900   5.120   9.544
92303SOL     OW78805  10.167   4.917  10.725
92303SOL    HW178806  10.091   4.972  10.701
92303SOL    HW278807  10.151   4.834  10.680
92304SOL     OW78808  14.335  10.390   3.652
92304SOL    HW178809  14.313  10.297   3.653
92304SOL    HW278810  14.425  10.393   3.619
92305SOL     OW78811   0.543  12.502   8.764
92305SOL    HW178812   0.506  12.542   8.843
92305SOL    HW278813   0.544  12.408   8.783
92306SOL     OW78814  10.440  10.186  13.337
92306SOL    HW178815  10.477  10.163  13.422
92306SOL    HW278816  10.420  10.279  13.344
92307SOL     OW78817   8.700   4.707  10.379
92307SOL    HW178818   8.641   4.783  10.378
92307SOL    HW278819   8.688   4.667  10.292
92308SOL     OW78820  11.255   7.551   0.244
92308SOL    HW178821  11.325   7.490   0.219
92308SOL    HW278822  11.235   7.599   0.164
92309SOL     OW78823  12.284  14.480   1.802
92309SOL    HW178824  12.286  14.397   1.849
92309SOL    HW278825  12.339  14.466   1.725
92310SOL     OW78826   2.124  12.963   9.008
92310SOL    HW178827   2.126  13.059   9.011
92310SOL    HW278828   2.136  12.936   9.099
92311SOL     OW78829  12.739  11.300   9.593
92311SOL    HW178830  12.667  11.325   9.535
92311SOL    HW278831  12.757  11.378   9.644
92312SOL     OW78832   8.219  13.521   4.925
92312SOL    HW178833   8.267  13.603   4.934
92312SOL    HW278834   8.285  13.457   4.898
92313SOL     OW78835   2.575  13.276  13.440
92313SOL    HW178836   2.631  13.198  13.432
92313SOL    HW278837   2.619  13.331  13.505
92314SOL     OW78838   0.138   1.281   7.529
92314SOL    HW178839   0.222   1.311   7.495
92314SOL    HW278840   0.075   1.302   7.461
92315SOL     OW78841   6.753  13.860   5.780
92315SOL    HW178842   6.766  13.805   5.857
92315SOL    HW278843   6.785  13.947   5.806
92316SOL     OW78844   2.045   2.151   2.069
92316SOL    HW178845   1.960   2.113   2.050
92316SOL    HW278846   2.108   2.094   2.025
92317SOL     OW78847   3.760   1.672   4.657
92317SOL    HW178848   3.751   1.630   4.571
92317SOL    HW278849   3.670   1.679   4.689
92318SOL     OW78850   5.783  11.838   6.678
92318SOL    HW178851   5.872  11.873   6.669
92318SOL    HW278852   5.742  11.897   6.742
92319SOL     OW78853   4.467   2.236   0.622
92319SOL    HW178854   4.387   2.189   0.599
92319SOL    HW278855   4.492   2.202   0.708
92320SOL     OW78856   5.456  12.189   3.286
92320SOL    HW178857   5.384  12.222   3.340
92320SOL    HW278858   5.532  12.238   3.315
92321SOL     OW78859   1.519   7.349  14.648
92321SOL    HW178860   1.546   7.420  14.706
92321SOL    HW278861   1.469   7.391  14.578
92322SOL     OW78862   6.715  10.523  10.262
92322SOL    HW178863   6.656  10.582  10.216
92322SOL    HW278864   6.700  10.438  10.222
92323SOL     OW78865   4.612   2.279  13.636
92323SOL    HW178866   4.536   2.298  13.691
92323SOL    HW278867   4.589   2.199  13.589
92324SOL     OW78868   9.256  10.865   9.272
92324SOL    HW178869   9.221  10.853   9.360
92324SOL    HW278870   9.318  10.793   9.261
92325SOL     OW78871   7.930   5.564   5.901
92325SOL    HW178872   7.877   5.526   5.831
92325SOL    HW278873   7.943   5.655   5.875
92326SOL     OW78874  12.510   2.027   9.359
92326SOL    HW178875  12.422   2.063   9.344
92326SOL    HW278876  12.538   1.994   9.274
92327SOL     OW78877   2.386   4.886   4.905
92327SOL    HW178878   2.411   4.794   4.899
92327SOL    HW278879   2.350   4.906   4.818
92328SOL     OW78880   3.949   3.439   2.387
92328SOL    HW178881   3.963   3.353   2.346
92328SOL    HW278882   3.995   3.433   2.471
92329SOL     OW78883  11.514   3.021  14.552
92329SOL    HW178884  11.427   3.051  14.576
92329SOL    HW278885  11.526   3.049  14.461
92330SOL     OW78886   8.530   3.121   7.087
92330SOL    HW178887   8.455   3.133   7.145
92330SOL    HW278888   8.493   3.115   6.999
92331SOL     OW78889   0.767   4.857  10.835
92331SOL    HW178890   0.764   4.798  10.760
92331SOL    HW278891   0.800   4.939  10.801
92332SOL     OW78892   2.618  10.228  10.283
92332SOL    HW178893   2.554  10.171  10.240
92332SOL    HW278894   2.700  10.209  10.239
92333SOL     OW78895  11.547   3.644   0.366
92333SOL    HW178896  11.454   3.651   0.389
92333SOL    HW278897  11.558   3.553   0.340
92334SOL     OW78898  14.146  12.038  13.428
92334SOL    HW178899  14.124  12.017  13.519
92334SOL    HW278900  14.235  12.004  13.417
92335SOL     OW78901   2.711   7.376   0.015
92335SOL    HW178902   2.701   7.460   0.061
92335SOL    HW278903   2.661   7.314   0.068
92336SOL     OW78904   7.079  14.276  13.088
92336SOL    HW178905   7.018  14.349  13.102
92336SOL    HW278906   7.099  14.244  13.176
92337SOL     OW78907  10.101   7.276  13.494
92337SOL    HW178908  10.089   7.191  13.535
92337SOL    HW278909  10.026   7.285  13.435
92338SOL     OW78910   0.070   2.612   8.724
92338SOL    HW178911   0.059   2.572   8.638
92338SOL    HW278912   0.140   2.560   8.765
92339SOL     OW78913   3.224   4.070   7.603
92339SOL    HW178914   3.184   4.108   7.526
92339SOL    HW278915   3.317   4.089   7.594
92340SOL     OW78916   0.395  14.721   4.084
92340SOL    HW178917   0.433  14.681   4.006
92340SOL    HW278918   0.308  14.684   4.090
92341SOL     OW78919   8.794  12.726   1.862
92341SOL    HW178920   8.732  12.658   1.889
92341SOL    HW278921   8.744  12.807   1.868
92342SOL     OW78922   0.435  13.432   6.900
92342SOL    HW178923   0.521  13.393   6.883
92342SOL    HW278924   0.416  13.483   6.821
92343SOL     OW78925   9.629   2.598   5.634
92343SOL    HW178926   9.679   2.520   5.607
92343SOL    HW278927   9.538   2.572   5.623
92344SOL     OW78928   3.274   9.687   5.553
92344SOL    HW178929   3.227   9.770   5.551
92344SOL    HW278930   3.344   9.700   5.618
92345SOL     OW78931   6.771   7.644   7.678
92345SOL    HW178932   6.740   7.650   7.768
92345SOL    HW278933   6.867   7.638   7.686
92346SOL     OW78934  11.908   1.801   7.507
92346SOL    HW178935  11.957   1.828   7.429
92346SOL    HW278936  11.893   1.707   7.495
92347SOL     OW78937   8.117   5.244   5.470
92347SOL    HW178938   8.083   5.188   5.539
92347SOL    HW278939   8.130   5.186   5.395
92348SOL     OW78940  10.953   2.178   4.395
92348SOL    HW178941  10.872   2.197   4.443
92348SOL    HW278942  10.973   2.259   4.348
92349SOL     OW78943   3.748   7.385   4.213
92349SOL    HW178944   3.743   7.410   4.306
92349SOL    HW278945   3.666   7.416   4.176
92350SOL     OW78946   3.466  14.434  13.834
92350SOL    HW178947   3.536  14.475  13.783
92350SOL    HW278948   3.511  14.386  13.904
92351SOL     OW78949   4.120   3.832  11.585
92351SOL    HW178950   4.072   3.766  11.636
92351SOL    HW278951   4.121   3.910  11.640
92352SOL     OW78952   9.384   6.593   1.310
92352SOL    HW178953   9.378   6.687   1.329
92352SOL    HW278954   9.463   6.565   1.355
92353SOL     OW78955  13.555   5.407  12.434
92353SOL    HW178956  13.507   5.325  12.423
92353SOL    HW278957  13.494   5.465  12.479
92354SOL     OW78958   0.295   1.001   2.901
92354SOL    HW178959   0.362   0.937   2.924
92354SOL    HW278960   0.246   0.960   2.830
92355SOL     OW78961   7.972   9.604   8.273
92355SOL    HW178962   7.923   9.622   8.193
92355SOL    HW278963   8.042   9.670   8.273
92356SOL     OW78964   5.015  10.605   5.611
92356SOL    HW178965   5.057  10.633   5.692
92356SOL    HW278966   5.083  10.615   5.544
92357SOL     OW78967   2.965   8.913   4.372
92357SOL    HW178968   3.040   8.968   4.395
92357SOL    HW278969   2.918   8.901   4.455
92358SOL     OW78970   0.978   1.162   4.324
92358SOL    HW178971   1.018   1.094   4.269
92358SOL    HW278972   0.932   1.219   4.262
92359SOL     OW78973  11.699  13.843   0.067
92359SOL    HW178974  11.730  13.906   0.132
92359SOL    HW278975  11.773  13.782   0.057
92360SOL     OW78976  10.735  10.953  12.707
92360SOL    HW178977  10.683  10.873  12.713
92360SOL    HW278978  10.681  11.021  12.747
92361SOL     OW78979   9.254  12.310  13.479
92361SOL    HW178980   9.218  12.398  13.468
92361SOL    HW278981   9.345  12.324  13.505
92362SOL     OW78982   1.064   6.384  10.298
92362SOL    HW178983   1.042   6.460  10.351
92362SOL    HW278984   1.078   6.313  10.361
92363SOL     OW78985   1.275  14.473  11.465
92363SOL    HW178986   1.345  14.441  11.521
92363SOL    HW278987   1.289  14.567  11.460
92364SOL     OW78988   6.023   9.428   1.684
92364SOL    HW178989   5.934   9.411   1.714
92364SOL    HW278990   6.013   9.460   1.594
92365SOL     OW78991   4.964  12.778  14.650
92365SOL    HW178992   5.004  12.826  14.722
92365SOL    HW278993   5.008  12.811  14.572
92366SOL     OW78994  12.464   2.500   7.375
92366SOL    HW178995  12.413   2.453   7.440
92366SOL    HW278996  12.525   2.554   7.426
92367SOL     OW78997   6.342  10.363   0.938
92367SOL    HW178998   6.418  10.420   0.954
92367SOL    HW278999   6.267  10.418   0.958
92368SOL     OW79000  11.814   2.731   2.502
92368SOL    HW179001  11.903   2.766   2.497
92368SOL    HW279002  11.824   2.639   2.480
92369SOL     OW79003   5.874   4.783   6.078
92369SOL    HW179004   5.840   4.857   6.028
92369SOL    HW279005   5.847   4.800   6.168
92370SOL     OW79006   4.522  11.274  10.499
92370SOL    HW179007   4.608  11.236  10.516
92370SOL    HW279008   4.461  11.201  10.514
92371SOL     OW79009   6.115   0.991  13.102
92371SOL    HW179010   6.021   1.003  13.088
92371SOL    HW279011   6.142   0.931  13.032
92372SOL     OW79012   2.161  11.506   3.759
92372SOL    HW179013   2.210  11.502   3.841
92372SOL    HW279014   2.216  11.457   3.697
92373SOL     OW79015   7.318  12.397   5.008
92373SOL    HW179016   7.393  12.343   5.032
92373SOL    HW279017   7.294  12.441   5.090
92374SOL     OW79018   1.802  13.134   3.066
92374SOL    HW179019   1.814  13.208   3.125
92374SOL    HW279020   1.727  13.158   3.012
92375SOL     OW79021   5.620  11.892   6.354
92375SOL    HW179022   5.668  11.887   6.271
92375SOL    HW279023   5.593  11.984   6.360
92376SOL     OW79024   1.129   6.680   3.301
92376SOL    HW179025   1.080   6.648   3.376
92376SOL    HW279026   1.106   6.621   3.230
92377SOL     OW79027  13.523   0.969   2.715
92377SOL    HW179028  13.556   1.028   2.783
92377SOL    HW279029  13.552   1.010   2.633
92378SOL     OW79030   1.161   7.289  13.321
92378SOL    HW179031   1.254   7.312  13.324
92378SOL    HW279032   1.154   7.212  13.376
92379SOL     OW79033   4.171   3.330   7.548
92379SOL    HW179034   4.256   3.292   7.525
92379SOL    HW279035   4.190   3.396   7.613
92380SOL     OW79036  13.900   9.665   7.746
92380SOL    HW179037  13.922   9.714   7.825
92380SOL    HW279038  13.941   9.713   7.674
92381SOL     OW79039   6.749  10.266   0.885
92381SOL    HW179040   6.672  10.323   0.880
92381SOL    HW279041   6.724  10.196   0.945
92382SOL     OW79042   0.486   6.078  12.547
92382SOL    HW179043   0.525   6.076  12.459
92382SOL    HW279044   0.398   6.043  12.536
92383SOL     OW79045   9.761   1.342  14.517
92383SOL    HW179046   9.827   1.272  14.509
92383SOL    HW279047   9.793   1.411  14.459
92384SOL     OW79048  12.507  11.127   0.441
92384SOL    HW179049  12.566  11.136   0.366
92384SOL    HW279050  12.507  11.033   0.460
92385SOL     OW79051   1.363  12.028   8.041
92385SOL    HW179052   1.434  12.051   8.101
92385SOL    HW279053   1.394  11.950   7.995
92386SOL     OW79054  14.025   0.311  13.749
92386SOL    HW179055  14.042   0.349  13.663
92386SOL    HW279056  13.932   0.325  13.764
92387SOL     OW79057  10.782   9.087   2.139
92387SOL    HW179058  10.726   9.135   2.078
92387SOL    HW279059  10.731   9.009   2.161
92388SOL     OW79060   5.663   6.087   3.798
92388SOL    HW179061   5.744   6.128   3.829
92388SOL    HW279062   5.670   5.996   3.825
92389SOL     OW79063  12.657   9.774   2.470
92389SOL    HW179064  12.679   9.863   2.442
92389SOL    HW279065  12.651   9.780   2.566
92390SOL     OW79066   0.614  14.635  12.406
92390SOL    HW179067   0.583  14.576  12.337
92390SOL    HW279068   0.622  14.720  12.363
92391SOL     OW79069   2.572   2.157   4.001
92391SOL    HW179070   2.564   2.251   4.018
92391SOL    HW279071   2.491   2.134   3.955
92392SOL     OW79072  14.869  11.255   9.096
92392SOL    HW179073   0.036  11.202   9.163
92392SOL    HW279074   0.067  11.286   9.041
92393SOL     OW79075   2.567   3.466  12.625
92393SOL    HW179076   2.602   3.393  12.576
92393SOL    HW279077   2.485   3.434  12.662
92394SOL     OW79078   6.691   1.024  10.674
92394SOL    HW179079   6.669   1.011  10.582
92394SOL    HW279080   6.612   1.063  10.713
92395SOL     OW79081  12.576   3.266  14.788
92395SOL    HW179082  12.619   3.222  14.861
92395SOL    HW279083  12.531   3.341  14.828
92396SOL     OW79084  11.535  13.890  13.779
92396SOL    HW179085  11.458  13.835  13.793
92396SOL    HW279086  11.604  13.829  13.753
92397SOL     OW79087  13.210   8.095  12.185
92397SOL    HW179088  13.223   8.002  12.201
92397SOL    HW279089  13.265   8.115  12.110
92398SOL     OW79090   3.997  10.817   9.793
92398SOL    HW179091   3.995  10.725   9.819
92398SOL    HW279092   4.029  10.816   9.703
92399SOL     OW79093   6.416  11.902   6.608
92399SOL    HW179094   6.388  11.945   6.689
92399SOL    HW279095   6.397  11.965   6.539
92400SOL     OW79096  14.691   2.104  12.322
92400SOL    HW179097  14.763   2.042  12.310
92400SOL    HW279098  14.645   2.103  12.238
92401SOL     OW79099   6.887   8.610   1.506
92401SOL    HW179100   6.886   8.514   1.509
92401SOL    HW279101   6.952   8.631   1.439
92402SOL     OW79102  12.511   5.356  13.862
92402SOL    HW179103  12.471   5.279  13.820
92402SOL    HW279104  12.436   5.406  13.895
92403SOL     OW79105   5.090  13.631  13.254
92403SOL    HW179106   5.060  13.647  13.344
92403SOL    HW279107   5.028  13.567  13.220
92404SOL     OW79108   0.942   2.344   3.007
92404SOL    HW179109   0.866   2.285   3.003
92404SOL    HW279110   1.014   2.293   2.969
92405SOL     OW79111   9.829  13.930   7.119
92405SOL    HW179112   9.809  13.939   7.026
92405SOL    HW279113   9.904  13.989   7.133
92406SOL     OW79114   3.921  11.730   6.716
92406SOL    HW179115   3.960  11.673   6.649
92406SOL    HW279116   3.914  11.675   6.794
92407SOL     OW79117   7.869   8.136   5.007
92407SOL    HW179118   7.913   8.062   4.965
92407SOL    HW279119   7.934   8.172   5.067
92408SOL     OW79120   6.651   1.946   0.095
92408SOL    HW179121   6.559   1.966   0.076
92408SOL    HW279122   6.684   1.907   0.015
92409SOL     OW79123   9.789  12.203   8.640
92409SOL    HW179124   9.873  12.159   8.631
92409SOL    HW279125   9.730  12.135   8.675
92410SOL     OW79126  10.649   6.592   9.686
92410SOL    HW179127  10.728   6.634   9.721
92410SOL    HW279128  10.583   6.661   9.685
92411SOL     OW79129  12.991  14.401  10.485
92411SOL    HW179130  13.031  14.314  10.476
92411SOL    HW279131  12.903  14.382  10.519
92412SOL     OW79132   6.913  11.979  11.163
92412SOL    HW179133   6.923  11.902  11.106
92412SOL    HW279134   6.959  11.956  11.244
92413SOL     OW79135   1.753  10.988   8.996
92413SOL    HW179136   1.791  10.942   8.921
92413SOL    HW279137   1.660  10.965   8.993
92414SOL     OW79138   4.471  12.523   1.623
92414SOL    HW179139   4.446  12.570   1.543
92414SOL    HW279140   4.394  12.471   1.645
92415SOL     OW79141   0.336   7.204  14.483
92415SOL    HW179142   0.413   7.152  14.506
92415SOL    HW279143   0.351   7.230  14.392
92416SOL     OW79144   8.872  12.068   1.473
92416SOL    HW179145   8.798  12.059   1.532
92416SOL    HW279146   8.877  12.162   1.455
92417SOL     OW79147  13.064  14.662   0.882
92417SOL    HW179148  13.069  14.590   0.818
92417SOL    HW279149  12.986  14.643   0.933
92418SOL     OW79150   2.996  10.098  14.820
92418SOL    HW179151   2.962  10.008  14.819
92418SOL    HW279152   3.073  10.094   0.003
92419SOL     OW79153  12.837  11.364  12.302
92419SOL    HW179154  12.811  11.362  12.210
92419SOL    HW279155  12.892  11.442  12.310
92420SOL     OW79156   0.876  13.934  14.127
92420SOL    HW179157   0.905  14.020  14.097
92420SOL    HW279158   0.901  13.931  14.220
92421SOL     OW79159   6.841   7.382   2.452
92421SOL    HW179160   6.830   7.302   2.504
92421SOL    HW279161   6.900   7.356   2.381
92422SOL     OW79162  13.591  14.838  14.410
92422SOL    HW179163  13.660  14.780  14.379
92422SOL    HW279164  13.551  14.791  14.483
92423SOL     OW79165  11.583   0.163   0.899
92423SOL    HW179166  11.537   0.214   0.832
92423SOL    HW279167  11.531   0.082   0.907
92424SOL     OW79168  11.662   2.204  14.206
92424SOL    HW179169  11.662   2.166  14.119
92424SOL    HW279170  11.686   2.296  14.192
92425SOL     OW79171  12.272   9.654   7.589
92425SOL    HW179172  12.355   9.611   7.569
92425SOL    HW279173  12.213   9.628   7.519
92426SOL     OW79174   2.933   1.473   3.220
92426SOL    HW179175   2.962   1.507   3.135
92426SOL    HW279176   2.997   1.405   3.241
92427SOL     OW79177   3.976   0.323   2.703
92427SOL    HW179178   3.889   0.349   2.733
92427SOL    HW279179   4.036   0.378   2.753
92428SOL     OW79180   0.662   3.828   5.677
92428SOL    HW179181   0.752   3.849   5.702
92428SOL    HW279182   0.630   3.908   5.634
92429SOL     OW79183  12.603  10.202   4.605
92429SOL    HW179184  12.609  10.250   4.523
92429SOL    HW279185  12.686  10.221   4.650
92430SOL     OW79186   4.810   8.911  12.001
92430SOL    HW179187   4.887   8.926  11.946
92430SOL    HW279188   4.843   8.859  12.074
92431SOL     OW79189  11.708  11.020  13.456
92431SOL    HW179190  11.723  11.040  13.548
92431SOL    HW279191  11.796  11.013  13.418
92432SOL     OW79192   1.057   5.309  14.725
92432SOL    HW179193   1.064   5.394  14.680
92432SOL    HW279194   1.135   5.305  14.779
92433SOL     OW79195   3.325   4.148   4.487
92433SOL    HW179196   3.326   4.240   4.460
92433SOL    HW279197   3.416   4.127   4.502
92434SOL     OW79198   1.452   2.087   8.921
92434SOL    HW179199   1.398   2.114   8.847
92434SOL    HW279200   1.454   2.163   8.979
92435SOL     OW79201   7.782   6.643   1.409
92435SOL    HW179202   7.697   6.677   1.437
92435SOL    HW279203   7.840   6.720   1.410
92436SOL     OW79204   6.254   3.704   7.404
92436SOL    HW179205   6.310   3.781   7.400
92436SOL    HW279206   6.195   3.723   7.478
92437SOL     OW79207  11.069   0.801   3.712
92437SOL    HW179208  11.156   0.839   3.697
92437SOL    HW279209  11.008   0.869   3.681
92438SOL     OW79210   7.594   5.308  13.408
92438SOL    HW179211   7.551   5.343  13.329
92438SOL    HW279212   7.522   5.291  13.468
92439SOL     OW79213   0.392  12.164   9.445
92439SOL    HW179214   0.362  12.153   9.355
92439SOL    HW279215   0.459  12.232   9.440
92440SOL     OW79216  14.489  10.302   0.289
92440SOL    HW179217  14.471  10.315   0.382
92440SOL    HW279218  14.420  10.244   0.259
92441SOL     OW79219   4.319  14.316   3.618
92441SOL    HW179220   4.412  14.314   3.595
92441SOL    HW279221   4.318  14.310   3.714
92442SOL     OW79222   9.597   9.629   8.540
92442SOL    HW179223   9.536   9.663   8.606
92442SOL    HW279224   9.678   9.676   8.555
92443SOL     OW79225  11.898   7.847  12.603
92443SOL    HW179226  11.897   7.751  12.605
92443SOL    HW279227  11.987   7.870  12.631
92444SOL     OW79228   6.521  10.760  12.795
92444SOL    HW179229   6.575  10.703  12.849
92444SOL    HW279230   6.559  10.847  12.806
92445SOL     OW79231  11.625   2.096  10.568
92445SOL    HW179232  11.668   2.161  10.512
92445SOL    HW279233  11.579   2.148  10.634
92446SOL     OW79234   7.169   0.225   5.088
92446SOL    HW179235   7.209   0.264   5.011
92446SOL    HW279236   7.089   0.183   5.057
92447SOL     OW79237   3.557   6.687   6.270
92447SOL    HW179238   3.478   6.632   6.270
92447SOL    HW279239   3.629   6.624   6.264
92448SOL     OW79240   6.009   8.413   6.753
92448SOL    HW179241   6.091   8.370   6.728
92448SOL    HW279242   5.977   8.453   6.672
92449SOL     OW79243   0.841   7.893   7.382
92449SOL    HW179244   0.812   7.959   7.444
92449SOL    HW279245   0.804   7.921   7.298
92450SOL     OW79246   8.376  13.243   3.173
92450SOL    HW179247   8.286  13.215   3.191
92450SOL    HW279248   8.430  13.181   3.221
92451SOL     OW79249   8.987   5.193  14.868
92451SOL    HW179250   9.014   5.101   0.000
92451SOL    HW279251   8.927   5.195  14.794
92452SOL     OW79252   5.343   7.488   0.617
92452SOL    HW179253   5.387   7.458   0.697
92452SOL    HW279254   5.273   7.425   0.603
92453SOL     OW79255   4.597   1.448   1.052
92453SOL    HW179256   4.626   1.518   0.995
92453SOL    HW279257   4.603   1.484   1.141
92454SOL     OW79258   2.167  12.166   0.298
92454SOL    HW179259   2.199  12.122   0.377
92454SOL    HW279260   2.081  12.200   0.323
92455SOL     OW79261  13.704   5.319   3.332
92455SOL    HW179262  13.754   5.261   3.390
92455SOL    HW279263  13.768   5.385   3.305
92456SOL     OW79264  10.886   8.838   5.195
92456SOL    HW179265  10.914   8.747   5.205
92456SOL    HW279266  10.967   8.889   5.200
92457SOL     OW79267   3.714   5.365   9.234
92457SOL    HW179268   3.650   5.437   9.235
92457SOL    HW279269   3.747   5.362   9.324
92458SOL     OW79270   5.775  11.399   9.889
92458SOL    HW179271   5.708  11.372   9.951
92458SOL    HW279272   5.773  11.495   9.892
92459SOL     OW79273   7.839   0.612   8.208
92459SOL    HW179274   7.775   0.542   8.217
92459SOL    HW279275   7.813   0.659   8.129
92460SOL     OW79276   6.177   9.221   7.575
92460SOL    HW179277   6.245   9.161   7.545
92460SOL    HW279278   6.176   9.212   7.670
92461SOL     OW79279   0.222   0.177   2.455
92461SOL    HW179280   0.131   0.204   2.472
92461SOL    HW279281   0.272   0.258   2.458
92462SOL     OW79282  10.161  13.028   0.501
92462SOL    HW179283  10.128  12.961   0.440
92462SOL    HW279284  10.082  13.070   0.535
92463SOL     OW79285   0.736   6.858   8.099
92463SOL    HW179286   0.687   6.915   8.159
92463SOL    HW279287   0.684   6.859   8.018
92464SOL     OW79288   3.835   5.585   7.431
92464SOL    HW179289   3.811   5.662   7.380
92464SOL    HW279290   3.803   5.604   7.519
92465SOL     OW79291  11.734   7.038   5.787
92465SOL    HW179292  11.752   7.056   5.695
92465SOL    HW279293  11.641   7.019   5.790
92466SOL     OW79294   5.636  10.536   2.352
92466SOL    HW179295   5.724  10.551   2.386
92466SOL    HW279296   5.647  10.466   2.288
92467SOL     OW79297  14.575  13.222   7.111
92467SOL    HW179298  14.665  13.256   7.108
92467SOL    HW279299  14.570  13.162   7.037
92468SOL     OW79300  11.005  13.128  13.844
92468SOL    HW179301  10.989  13.211  13.798
92468SOL    HW279302  10.919  13.105  13.881
92469SOL     OW79303   7.008   5.150  14.434
92469SOL    HW179304   7.063   5.181  14.362
92469SOL    HW279305   6.972   5.067  14.403
92470SOL     OW79306   4.854   8.466   3.455
92470SOL    HW179307   4.792   8.404   3.493
92470SOL    HW279308   4.802   8.518   3.394
92471SOL     OW79309   0.848  13.343   7.323
92471SOL    HW179310   0.817  13.289   7.396
92471SOL    HW279311   0.910  13.287   7.277
92472SOL     OW79312   3.090   0.062   9.838
92472SOL    HW179313   3.022   0.062   9.770
92472SOL    HW279314   3.060   0.127   9.902
92473SOL     OW79315  12.756   9.116   4.508
92473SOL    HW179316  12.768   9.175   4.434
92473SOL    HW279317  12.662   9.114   4.523
92474SOL     OW79318  11.656   7.575   5.911
92474SOL    HW179319  11.630   7.619   5.992
92474SOL    HW279320  11.592   7.604   5.846
92475SOL     OW79321   5.622   6.544  10.469
92475SOL    HW179322   5.587   6.588  10.547
92475SOL    HW279323   5.636   6.615  10.406
92476SOL     OW79324  10.658   0.196  12.987
92476SOL    HW179325  10.695   0.148  12.913
92476SOL    HW279326  10.566   0.171  12.989
92477SOL     OW79327   5.341  11.296   0.611
92477SOL    HW179328   5.293  11.375   0.585
92477SOL    HW279329   5.428  11.327   0.633
92478SOL     OW79330   2.758   9.733   0.416
92478SOL    HW179331   2.850   9.708   0.426
92478SOL    HW279332   2.730   9.690   0.335
92479SOL     OW79333   1.163   8.308   3.148
92479SOL    HW179334   1.158   8.340   3.057
92479SOL    HW279335   1.252   8.331   3.176
92480SOL     OW79336   2.829   5.584   1.910
92480SOL    HW179337   2.910   5.634   1.919
92480SOL    HW279338   2.784   5.624   1.836
92481SOL     OW79339   4.908  10.485   6.202
92481SOL    HW179340   4.991  10.450   6.235
92481SOL    HW279341   4.887  10.429   6.127
92482SOL     OW79342   5.753  13.505   7.557
92482SOL    HW179343   5.746  13.509   7.652
92482SOL    HW279344   5.704  13.426   7.533
92483SOL     OW79345  11.099  12.743  14.394
92483SOL    HW179346  11.033  12.751  14.326
92483SOL    HW279347  11.067  12.801  14.464
92484SOL     OW79348   2.173   9.906   7.407
92484SOL    HW179349   2.143   9.979   7.461
92484SOL    HW279350   2.163   9.829   7.462
92485SOL     OW79351   0.086   8.353   7.365
92485SOL    HW179352   0.049   8.266   7.380
92485SOL    HW279353   0.024   8.413   7.407
92486SOL     OW79354   5.452  10.919   1.304
92486SOL    HW179355   5.461  10.888   1.394
92486SOL    HW279356   5.418  11.008   1.312
92487SOL     OW79357   5.078   6.239  13.157
92487SOL    HW179358   5.140   6.199  13.096
92487SOL    HW279359   5.130   6.258  13.235
92488SOL     OW79360   5.404   4.180   8.294
92488SOL    HW179361   5.495   4.155   8.280
92488SOL    HW279362   5.400   4.208   8.386
92489SOL     OW79363   8.235   3.408   1.047
92489SOL    HW179364   8.322   3.377   1.073
92489SOL    HW279365   8.248   3.500   1.024
92490SOL     OW79366   2.790   2.459  11.156
92490SOL    HW179367   2.710   2.470  11.105
92490SOL    HW279368   2.799   2.541  11.205
92491SOL     OW79369  14.851  14.544   1.668
92491SOL    HW179370   0.014  14.459   1.691
92491SOL    HW279371  14.863  14.550   1.573
92492SOL     OW79372   7.831   1.695  11.054
92492SOL    HW179373   7.852   1.627  10.990
92492SOL    HW279374   7.866   1.662  11.137
92493SOL     OW79375  12.952   6.930   0.916
92493SOL    HW179376  13.045   6.916   0.895
92493SOL    HW279377  12.933   7.019   0.885
92494SOL     OW79378   2.496   7.472  10.971
92494SOL    HW179379   2.404   7.458  10.953
92494SOL    HW279380   2.507   7.567  10.969
92495SOL     OW79381   8.811   5.983  12.043
92495SOL    HW179382   8.730   5.939  12.069
92495SOL    HW279383   8.815   6.061  12.099
92496SOL     OW79384  13.727   6.394   1.810
92496SOL    HW179385  13.772   6.375   1.728
92496SOL    HW279386  13.797   6.423   1.869
92497SOL     OW79387   9.198   0.802  12.349
92497SOL    HW179388   9.208   0.897  12.345
92497SOL    HW279389   9.231   0.778  12.435
92498SOL     OW79390  14.483   7.716  14.525
92498SOL    HW179391  14.547   7.785  14.511
92498SOL    HW279392  14.422   7.725  14.452
92499SOL     OW79393   8.553   7.557   3.601
92499SOL    HW179394   8.553   7.653   3.594
92499SOL    HW279395   8.511   7.527   3.521
92500SOL     OW79396  10.639  10.987  10.847
92500SOL    HW179397  10.680  10.910  10.887
92500SOL    HW279398  10.667  11.060  10.901
92501SOL     OW79399  11.690  14.577  13.792
92501SOL    HW179400  11.756  14.624  13.742
92501SOL    HW279401  11.741  14.518  13.849
92502SOL     OW79402   4.406   3.636  14.798
92502SOL    HW179403   4.328   3.691  14.811
92502SOL    HW279404   4.388   3.557  14.849
92503SOL     OW79405   1.080   1.088   3.836
92503SOL    HW179406   0.985   1.087   3.821
92503SOL    HW279407   1.103   1.181   3.833
92504SOL     OW79408   2.637   1.861   2.385
92504SOL    HW179409   2.571   1.807   2.341
92504SOL    HW279410   2.647   1.821   2.471
92505SOL     OW79411   2.640   9.004   8.677
92505SOL    HW179412   2.644   8.910   8.694
92505SOL    HW279413   2.556   9.017   8.632
92506SOL     OW79414   7.475   8.372   1.281
92506SOL    HW179415   7.465   8.282   1.314
92506SOL    HW279416   7.531   8.363   1.204
92507SOL     OW79417   7.439   5.944  12.551
92507SOL    HW179418   7.460   5.864  12.503
92507SOL    HW279419   7.505   5.949  12.620
92508SOL     OW79420  12.363   2.301   6.470
92508SOL    HW179421  12.295   2.363   6.495
92508SOL    HW279422  12.322   2.245   6.404
92509SOL     OW79423   8.780   4.069   4.140
92509SOL    HW179424   8.714   4.085   4.206
92509SOL    HW279425   8.835   4.000   4.177
92510SOL     OW79426   7.190   6.666   5.404
92510SOL    HW179427   7.209   6.603   5.474
92510SOL    HW279428   7.101   6.695   5.422
92511SOL     OW79429   0.928   2.606   5.902
92511SOL    HW179430   0.894   2.568   5.821
92511SOL    HW279431   0.878   2.686   5.914
92512SOL     OW79432  14.733  13.616   8.422
92512SOL    HW179433  14.816  13.583   8.457
92512SOL    HW279434  14.691  13.539   8.383
92513SOL     OW79435  10.322   5.002   1.854
92513SOL    HW179436  10.382   5.048   1.913
92513SOL    HW279437  10.317   4.913   1.888
92514SOL     OW79438  14.799   6.279   1.268
92514SOL    HW179439  14.790   6.214   1.198
92514SOL    HW279440   0.004   6.253   1.315
92515SOL     OW79441   5.550  13.654  11.955
92515SOL    HW179442   5.502  13.632  11.875
92515SOL    HW279443   5.494  13.717  12.000
92516SOL     OW79444  12.581   9.522   7.552
92516SOL    HW179445  12.645   9.580   7.594
92516SOL    HW279446  12.557   9.460   7.621
92517SOL     OW79447   6.961   7.865   1.972
92517SOL    HW179448   6.882   7.852   1.918
92517SOL    HW279449   7.033   7.865   1.909
92518SOL     OW79450   4.335   0.949  13.530
92518SOL    HW179451   4.250   0.965  13.489
92518SOL    HW279452   4.339   1.010  13.603
92519SOL     OW79453   8.232   2.129   9.215
92519SOL    HW179454   8.278   2.209   9.189
92519SOL    HW279455   8.207   2.088   9.132
92520SOL     OW79456   9.449   0.003   4.516
92520SOL    HW179457   9.485   0.068   4.577
92520SOL    HW279458   9.379   0.048   4.471
92521SOL     OW79459  14.446  13.546   8.579
92521SOL    HW179460  14.427  13.562   8.671
92521SOL    HW279461  14.516  13.607   8.557
92522SOL     OW79462   4.082   4.387  14.580
92522SOL    HW179463   4.048   4.477  14.576
92522SOL    HW279464   4.038   4.342  14.508
92523SOL     OW79465   3.761   4.582   1.679
92523SOL    HW179466   3.675   4.617   1.655
92523SOL    HW279467   3.744   4.523   1.752
92524SOL     OW79468   2.446   5.054   7.618
92524SOL    HW179469   2.536   5.071   7.645
92524SOL    HW279470   2.440   5.090   7.530
92525SOL     OW79471   9.889   7.071   5.646
92525SOL    HW179472   9.870   6.979   5.629
92525SOL    HW279473   9.984   7.075   5.657
92526SOL     OW79474   6.029   3.597  13.424
92526SOL    HW179475   6.019   3.550  13.341
92526SOL    HW279476   5.939   3.608  13.456
92527SOL     OW79477  12.593   2.397   9.100
92527SOL    HW179478  12.551   2.414   9.015
92527SOL    HW279479  12.527   2.348   9.150
92528SOL     OW79480   7.027  10.562   5.932
92528SOL    HW179481   7.093  10.577   5.999
92528SOL    HW279482   7.077  10.539   5.854
92529SOL     OW79483   0.100   5.746   3.339
92529SOL    HW179484   0.038   5.747   3.413
92529SOL    HW279485   0.143   5.661   3.344
92530SOL     OW79486   1.450  11.409   7.910
92530SOL    HW179487   1.428  11.358   7.988
92530SOL    HW279488   1.400  11.368   7.840
92531SOL     OW79489   8.393   2.424  12.250
92531SOL    HW179490   8.459   2.488  12.222
92531SOL    HW279491   8.438   2.369  12.314
92532SOL     OW79492  14.094  13.258  11.605
92532SOL    HW179493  14.037  13.182  11.595
92532SOL    HW279494  14.071  13.293  11.691
92533SOL     OW79495   3.577   3.200   2.550
92533SOL    HW179496   3.513   3.136   2.581
92533SOL    HW279497   3.653   3.187   2.606
92534SOL     OW79498  13.479  10.450   8.768
92534SOL    HW179499  13.521  10.531   8.797
92534SOL    HW279500  13.394  10.449   8.812
92535SOL     OW79501  14.144  14.176  11.392
92535SOL    HW179502  14.122  14.146  11.304
92535SOL    HW279503  14.062  14.209  11.428
92536SOL     OW79504  12.862   9.569   4.786
92536SOL    HW179505  12.836   9.635   4.849
92536SOL    HW279506  12.779   9.533   4.753
92537SOL     OW79507  13.203  12.910   4.709
92537SOL    HW179508  13.264  12.902   4.636
92537SOL    HW279509  13.254  12.885   4.786
92538SOL     OW79510   3.478  11.274   6.160
92538SOL    HW179511   3.454  11.284   6.252
92538SOL    HW279512   3.573  11.286   6.159
92539SOL     OW79513  12.563   4.289   7.863
92539SOL    HW179514  12.525   4.296   7.775
92539SOL    HW279515  12.539   4.371   7.906
92540SOL     OW79516  11.679   7.278   2.362
92540SOL    HW179517  11.609   7.247   2.304
92540SOL    HW279518  11.633   7.327   2.431
92541SOL     OW79519   5.653   9.910  12.586
92541SOL    HW179520   5.577   9.954  12.623
92541SOL    HW279521   5.718   9.910  12.657
92542SOL     OW79522   1.027   2.364   8.819
92542SOL    HW179523   1.097   2.339   8.879
92542SOL    HW279524   1.036   2.303   8.746
92543SOL     OW79525  13.553   9.943   5.439
92543SOL    HW179526  13.571   9.870   5.498
92543SOL    HW279527  13.601  10.017   5.478
92544SOL     OW79528   0.986  11.468   7.703
92544SOL    HW179529   0.901  11.502   7.729
92544SOL    HW279530   0.967  11.407   7.632
92545SOL     OW79531   2.523   2.402   4.555
92545SOL    HW179532   2.441   2.355   4.570
92545SOL    HW279533   2.529   2.409   4.460
92546SOL     OW79534   3.570   6.556   8.990
92546SOL    HW179535   3.590   6.594   8.905
92546SOL    HW279536   3.507   6.616   9.030
92547SOL     OW79537  13.208   7.838   5.200
92547SOL    HW179538  13.131   7.789   5.226
92547SOL    HW279539  13.193   7.927   5.234
92548SOL     OW79540   5.044   7.092  14.619
92548SOL    HW179541   5.037   7.157  14.689
92548SOL    HW279542   5.130   7.052  14.632
92549SOL     OW79543   1.674   3.058  14.434
92549SOL    HW179544   1.761   3.096  14.440
92549SOL    HW279545   1.639   3.088  14.351
92550SOL     OW79546   2.602  12.380   5.669
92550SOL    HW179547   2.530  12.368   5.730
92550SOL    HW279548   2.592  12.470   5.637
92551SOL     OW79549   8.112  10.638   1.603
92551SOL    HW179550   8.172  10.597   1.666
92551SOL    HW279551   8.092  10.568   1.540
92552SOL     OW79552   0.582   2.756   9.534
92552SOL    HW179553   0.520   2.688   9.559
92552SOL    HW279554   0.668   2.714   9.539
92553SOL     OW79555   3.789  14.836   3.395
92553SOL    HW179556   3.774   0.018   3.470
92553SOL    HW279557   3.884  14.839   3.381
92554SOL     OW79558   7.692   9.679  10.140
92554SOL    HW179559   7.662   9.589  10.145
92554SOL    HW279560   7.765   9.684  10.202
92555SOL     OW79561  12.973  13.303  14.680
92555SOL    HW179562  12.960  13.287  14.586
92555SOL    HW279563  12.916  13.377  14.699
92556SOL     OW79564  14.522   1.569  10.326
92556SOL    HW179565  14.555   1.484  10.357
92556SOL    HW279566  14.432   1.552  10.301
92557SOL     OW79567  13.903   1.382   7.726
92557SOL    HW179568  13.938   1.312   7.671
92557SOL    HW279569  13.973   1.446   7.731
92558SOL     OW79570   2.908  13.930   6.763
92558SOL    HW179571   2.909  13.843   6.804
92558SOL    HW279572   2.998  13.961   6.772
92559SOL     OW79573   6.367   0.875  12.930
92559SOL    HW179574   6.383   0.818  12.855
92559SOL    HW279575   6.369   0.816  13.005
92560SOL     OW79576   2.138   5.113  12.236
92560SOL    HW179577   2.126   5.029  12.192
92560SOL    HW279578   2.054   5.158  12.226
92561SOL     OW79579  14.497  12.359  12.433
92561SOL    HW179580  14.451  12.384  12.514
92561SOL    HW279581  14.544  12.279  12.456
92562SOL     OW79582  11.098   8.544   8.248
92562SOL    HW179583  11.015   8.498   8.257
92562SOL    HW279584  11.093   8.587   8.163
92563SOL     OW79585   6.100   4.811   1.097
92563SOL    HW179586   6.153   4.757   1.156
92563SOL    HW279587   6.071   4.884   1.151
92564SOL     OW79588  14.342   5.467   3.051
92564SOL    HW179589  14.409   5.523   3.091
92564SOL    HW279590  14.381   5.380   3.049
92565SOL     OW79591   8.030   8.473   1.903
92565SOL    HW179592   8.110   8.526   1.898
92565SOL    HW279593   7.984   8.490   1.821
92566SOL     OW79594  12.962  10.344  10.939
92566SOL    HW179595  13.018  10.271  10.914
92566SOL    HW279596  12.973  10.407  10.869
92567SOL     OW79597   3.832   1.547   0.726
92567SOL    HW179598   3.925   1.556   0.746
92567SOL    HW279599   3.825   1.466   0.675
92568SOL     OW79600   6.150  10.888   2.711
92568SOL    HW179601   6.077  10.875   2.651
92568SOL    HW279602   6.188  10.801   2.722
92569SOL     OW79603   0.572   3.209  10.606
92569SOL    HW179604   0.616   3.272  10.550
92569SOL    HW279605   0.493   3.253  10.636
92570SOL     OW79606   5.832  12.145   6.116
92570SOL    HW179607   5.742  12.152   6.084
92570SOL    HW279608   5.887  12.167   6.040
92571SOL     OW79609  10.538  13.794   1.535
92571SOL    HW179610  10.588  13.861   1.491
92571SOL    HW279611  10.551  13.811   1.629
92572SOL     OW79612   7.458  11.127   2.891
92572SOL    HW179613   7.488  11.051   2.940
92572SOL    HW279614   7.394  11.092   2.829
92573SOL     OW79615   6.018   4.213  12.458
92573SOL    HW179616   6.052   4.144  12.515
92573SOL    HW279617   6.088   4.231  12.396
92574SOL     OW79618   2.772  11.296   1.105
92574SOL    HW179619   2.839  11.364   1.109
92574SOL    HW279620   2.821  11.214   1.092
92575SOL     OW79621  13.362   9.811   4.036
92575SOL    HW179622  13.362   9.770   3.949
92575SOL    HW279623  13.373   9.738   4.097
92576SOL     OW79624   9.859   9.915   8.089
92576SOL    HW179625   9.848   9.820   8.087
92576SOL    HW279626   9.799   9.945   8.157
92577SOL     OW79627   5.323  12.989  13.255
92577SOL    HW179628   5.241  12.951  13.222
92577SOL    HW279629   5.386  12.974  13.185
92578SOL     OW79630  13.459  10.570   5.123
92578SOL    HW179631  13.400  10.638   5.155
92578SOL    HW279632  13.469  10.588   5.030
92579SOL     OW79633   6.886  10.446   1.441
92579SOL    HW179634   6.970  10.431   1.482
92579SOL    HW279635   6.864  10.537   1.464
92580SOL     OW79636   4.361   5.797   1.109
92580SOL    HW179637   4.404   5.877   1.079
92580SOL    HW279638   4.422   5.727   1.085
92581SOL     OW79639  12.002   5.336  12.838
92581SOL    HW179640  12.058   5.403  12.878
92581SOL    HW279641  11.972   5.377  12.757
92582SOL     OW79642   8.363  12.934   9.793
92582SOL    HW179643   8.328  12.845   9.788
92582SOL    HW279644   8.424  12.940   9.719
92583SOL     OW79645   3.222  14.742   2.575
92583SOL    HW179646   3.288  14.749   2.644
92583SOL    HW279647   3.182  14.829   2.571
92584SOL     OW79648   6.448  14.288   3.487
92584SOL    HW179649   6.396  14.363   3.515
92584SOL    HW279650   6.515  14.326   3.429
92585SOL     OW79651   5.360  13.815   0.527
92585SOL    HW179652   5.289  13.817   0.592
92585SOL    HW279653   5.319  13.846   0.447
92586SOL     OW79654  13.706   7.012   9.379
92586SOL    HW179655  13.647   7.055   9.317
92586SOL    HW279656  13.653   7.003   9.459
92587SOL     OW79657  11.678   7.355   8.688
92587SOL    HW179658  11.687   7.293   8.760
92587SOL    HW279659  11.756   7.342   8.634
92588SOL     OW79660   5.241  10.320  13.877
92588SOL    HW179661   5.302  10.325  13.803
92588SOL    HW279662   5.155  10.317  13.836
92589SOL     OW79663   9.648   3.857   4.585
92589SOL    HW179664   9.676   3.838   4.495
92589SOL    HW279665   9.625   3.949   4.584
92590SOL     OW79666   1.517   7.914   6.632
92590SOL    HW179667   1.433   7.931   6.590
92590SOL    HW279668   1.519   7.820   6.646
92591SOL     OW79669  13.917   3.688   7.006
92591SOL    HW179670  13.924   3.611   7.063
92591SOL    HW279671  13.826   3.689   6.978
92592SOL     OW79672   9.314  12.497  11.310
92592SOL    HW179673   9.242  12.435  11.298
92592SOL    HW279674   9.353  12.505  11.223
92593SOL     OW79675   5.053   1.291   0.591
92593SOL    HW179676   5.017   1.235   0.522
92593SOL    HW279677   4.976   1.324   0.637
92594SOL     OW79678   0.692   5.621  11.249
92594SOL    HW179679   0.675   5.663  11.333
92594SOL    HW279680   0.675   5.528  11.264
92595SOL     OW79681   2.516   4.498   3.154
92595SOL    HW179682   2.528   4.436   3.081
92595SOL    HW279683   2.421   4.503   3.167
92596SOL     OW79684   5.077  12.424   3.819
92596SOL    HW179685   5.007  12.484   3.848
92596SOL    HW279686   5.043  12.385   3.738
92597SOL     OW79687  12.179  14.751   4.229
92597SOL    HW179688  12.238  14.721   4.299
92597SOL    HW279689  12.221  14.721   4.148
92598SOL     OW79690  10.479   5.602   8.992
92598SOL    HW179691  10.498   5.578   8.901
92598SOL    HW279692  10.549   5.561   9.043
92599SOL     OW79693   7.532   2.480   7.898
92599SOL    HW179694   7.594   2.415   7.930
92599SOL    HW279695   7.557   2.562   7.941
92600SOL     OW79696  11.706   5.780  13.463
92600SOL    HW179697  11.629   5.795  13.409
92600SOL    HW279698  11.697   5.689  13.494
92601SOL     OW79699   7.176   1.673   0.942
92601SOL    HW179700   7.166   1.724   1.022
92601SOL    HW279701   7.148   1.585   0.966
92602SOL     OW79702   9.877   3.920   3.033
92602SOL    HW179703   9.946   3.853   3.028
92602SOL    HW279704   9.839   3.908   3.120
92603SOL     OW79705   9.748  14.872   1.838
92603SOL    HW179706   9.816   0.045   1.885
92603SOL    HW279707   9.754   0.030   1.748
92604SOL     OW79708  13.612   2.404   9.800
92604SOL    HW179709  13.671   2.340   9.761
92604SOL    HW279710  13.533   2.355   9.821
92605SOL     OW79711  12.322   2.588  11.639
92605SOL    HW179712  12.262   2.522  11.605
92605SOL    HW279713  12.376   2.613  11.563
92606SOL     OW79714  14.096   2.352   8.363
92606SOL    HW179715  14.001   2.347   8.374
92606SOL    HW279716  14.111   2.340   8.269
92607SOL     OW79717   4.678   8.869  13.275
92607SOL    HW179718   4.699   8.927  13.202
92607SOL    HW279719   4.583   8.856  13.269
92608SOL     OW79720   7.609   2.798   1.200
92608SOL    HW179721   7.636   2.889   1.201
92608SOL    HW279722   7.552   2.789   1.276
92609SOL     OW79723  13.251  11.776   5.211
92609SOL    HW179724  13.305  11.762   5.134
92609SOL    HW279725  13.211  11.691   5.229
92610SOL     OW79726   4.551   2.936   5.098
92610SOL    HW179727   4.537   2.858   5.151
92610SOL    HW279728   4.475   2.938   5.039
92611SOL     OW79729  14.007   0.345  10.301
92611SOL    HW179730  13.929   0.292  10.310
92611SOL    HW279731  14.009   0.370  10.209
92612SOL     OW79732   6.950   1.166  12.256
92612SOL    HW179733   6.894   1.242  12.271
92612SOL    HW279734   6.968   1.131  12.344
92613SOL     OW79735   6.219   1.159   6.027
92613SOL    HW179736   6.277   1.205   6.088
92613SOL    HW279737   6.208   1.219   5.954
92614SOL     OW79738   3.980  12.801   3.114
92614SOL    HW179739   4.040  12.767   3.047
92614SOL    HW279740   3.914  12.733   3.123
92615SOL     OW79741  10.754  14.591   0.826
92615SOL    HW179742  10.746  14.686   0.818
92615SOL    HW279743  10.781  14.577   0.917
92616SOL     OW79744  13.771   6.342   9.053
92616SOL    HW179745  13.842   6.406   9.049
92616SOL    HW279746  13.706   6.382   9.111
92617SOL     OW79747   1.935   0.891   9.755
92617SOL    HW179748   2.019   0.933   9.741
92617SOL    HW279749   1.871   0.963   9.753
92618SOL     OW79750  12.458   1.162  11.532
92618SOL    HW179751  12.391   1.230  11.537
92618SOL    HW279752  12.454   1.131  11.442
92619SOL     OW79753   9.230   7.984  10.758
92619SOL    HW179754   9.159   7.994  10.695
92619SOL    HW279755   9.209   7.904  10.806
92620SOL     OW79756   7.938  14.319   9.268
92620SOL    HW179757   7.999  14.299   9.198
92620SOL    HW279758   7.989  14.372   9.330
92621SOL     OW79759  12.064   6.468   3.011
92621SOL    HW179760  12.067   6.447   3.104
92621SOL    HW279761  12.155   6.463   2.982
92622SOL     OW79762   1.388   0.339   4.890
92622SOL    HW179763   1.389   0.339   4.986
92622SOL    HW279764   1.480   0.332   4.865
92623SOL     OW79765  10.692   1.228   0.730
92623SOL    HW179766  10.729   1.172   0.798
92623SOL    HW279767  10.758   1.296   0.716
92624SOL     OW79768   8.078   1.428  13.658
92624SOL    HW179769   8.161   1.459  13.695
92624SOL    HW279770   8.069   1.339  13.691
92625SOL     OW79771  14.097  13.624   4.126
92625SOL    HW179772  14.185  13.610   4.160
92625SOL    HW279773  14.097  13.715   4.096
92626SOL     OW79774  14.435   8.803  12.528
92626SOL    HW179775  14.366   8.757  12.577
92626SOL    HW279776  14.411   8.790  12.436
92627SOL     OW79777   3.161   6.786   9.316
92627SOL    HW179778   3.208   6.855   9.363
92627SOL    HW279779   3.088   6.831   9.273
92628SOL     OW79780   8.991  12.420   2.874
92628SOL    HW179781   9.069  12.382   2.836
92628SOL    HW279782   9.023  12.472   2.948
92629SOL     OW79783  11.643   3.877   6.164
92629SOL    HW179784  11.591   3.899   6.241
92629SOL    HW279785  11.585   3.822   6.111
92630SOL     OW79786   5.010   2.631   9.557
92630SOL    HW179787   4.954   2.708   9.567
92630SOL    HW279788   5.046   2.639   9.468
92631SOL     OW79789   8.695   2.557   6.923
92631SOL    HW179790   8.743   2.574   7.004
92631SOL    HW279791   8.606   2.538   6.951
92632SOL     OW79792  12.538  10.370   1.140
92632SOL    HW179793  12.456  10.406   1.105
92632SOL    HW279794  12.604  10.394   1.076
92633SOL     OW79795  12.783  12.914   8.496
92633SOL    HW179796  12.749  12.862   8.424
92633SOL    HW279797  12.766  13.005   8.471
92634SOL     OW79798   3.486  13.213   9.995
92634SOL    HW179799   3.504  13.129  10.037
92634SOL    HW279800   3.472  13.191   9.902
92635SOL     OW79801   8.180  12.332  14.231
92635SOL    HW179802   8.131  12.273  14.288
92635SOL    HW279803   8.132  12.415  14.235
92636SOL     OW79804   5.183  10.237   1.391
92636SOL    HW179805   5.230  10.319   1.411
92636SOL    HW279806   5.125  10.224   1.466
92637SOL     OW79807   1.286   7.617  10.266
92637SOL    HW179808   1.310   7.549  10.203
92637SOL    HW279809   1.192   7.603  10.281
92638SOL     OW79810   9.505   7.428   8.990
92638SOL    HW179811   9.433   7.434   9.053
92638SOL    HW279812   9.511   7.516   8.952
92639SOL     OW79813   8.676  10.087  11.891
92639SOL    HW179814   8.598  10.142  11.884
92639SOL    HW279815   8.665  10.039  11.973
92640SOL     OW79816   2.146  12.280  10.720
92640SOL    HW179817   2.215  12.244  10.777
92640SOL    HW279818   2.139  12.372  10.745
92641SOL     OW79819   3.907   4.103   1.454
92641SOL    HW179820   3.870   4.191   1.463
92641SOL    HW279821   3.959   4.107   1.373
92642SOL     OW79822   2.572   1.406   7.550
92642SOL    HW179823   2.585   1.311   7.556
92642SOL    HW279824   2.503   1.417   7.485
92643SOL     OW79825   0.154   7.101   5.011
92643SOL    HW179826   0.186   7.092   4.921
92643SOL    HW279827   0.062   7.123   5.001
92644SOL     OW79828  11.105  13.197   2.786
92644SOL    HW179829  11.086  13.206   2.879
92644SOL    HW279830  11.071  13.111   2.762
92645SOL     OW79831   4.522   3.763   3.381
92645SOL    HW179832   4.515   3.684   3.327
92645SOL    HW279833   4.443   3.761   3.436
92646SOL     OW79834  10.179   4.148   7.793
92646SOL    HW179835  10.244   4.081   7.816
92646SOL    HW279836  10.113   4.142   7.862
92647SOL     OW79837  12.540  14.789   4.603
92647SOL    HW179838  12.603  14.739   4.654
92647SOL    HW279839  12.464  14.798   4.660
92648SOL     OW79840  11.316   7.304   1.621
92648SOL    HW179841  11.384   7.263   1.675
92648SOL    HW279842  11.330   7.398   1.630
92649SOL     OW79843   0.403   5.967   3.625
92649SOL    HW179844   0.358   5.992   3.544
92649SOL    HW279845   0.332   5.951   3.687
92650SOL     OW79846   5.369  10.426  12.638
92650SOL    HW179847   5.396  10.416  12.547
92650SOL    HW279848   5.436  10.380  12.689
92651SOL     OW79849  11.011   9.373   3.847
92651SOL    HW179850  11.061   9.299   3.881
92651SOL    HW279851  10.977   9.417   3.925
92652SOL     OW79852   5.375   4.580   1.898
92652SOL    HW179853   5.300   4.561   1.954
92652SOL    HW279854   5.343   4.570   1.809
92653SOL     OW79855  10.931  13.770  13.896
92653SOL    HW179856  10.902  13.782  13.806
92653SOL    HW279857  10.916  13.855  13.937
92654SOL     OW79858  10.141   9.351   3.084
92654SOL    HW179859  10.207   9.404   3.040
92654SOL    HW279860  10.104   9.297   3.015
92655SOL     OW79861   2.564  13.768   0.440
92655SOL    HW179862   2.544  13.706   0.369
92655SOL    HW279863   2.649  13.738   0.474
92656SOL     OW79864  11.220   1.521   2.275
92656SOL    HW179865  11.238   1.435   2.314
92656SOL    HW279866  11.153   1.559   2.332
92657SOL     OW79867   3.275   9.100   8.942
92657SOL    HW179868   3.287   9.101   8.848
92657SOL    HW279869   3.194   9.051   8.955
92658SOL     OW79870   2.881   8.753  10.665
92658SOL    HW179871   2.802   8.701  10.679
92658SOL    HW279872   2.903   8.740  10.573
92659SOL     OW79873   3.086  10.152  13.943
92659SOL    HW179874   3.088  10.103  14.025
92659SOL    HW279875   3.115  10.089  13.876
92660SOL     OW79876   6.015   2.720   2.171
92660SOL    HW179877   6.060   2.648   2.214
92660SOL    HW279878   5.968   2.678   2.098
92661SOL     OW79879   4.864   3.303   5.543
92661SOL    HW179880   4.910   3.238   5.596
92661SOL    HW279881   4.777   3.265   5.528
92662SOL     OW79882   2.203  10.778  13.399
92662SOL    HW179883   2.292  10.750  13.377
92662SOL    HW279884   2.216  10.852  13.459
92663SOL     OW79885  11.388   0.693   7.113
92663SOL    HW179886  11.464   0.720   7.164
92663SOL    HW279887  11.332   0.771   7.111
92664SOL     OW79888   8.416   5.580   9.160
92664SOL    HW179889   8.398   5.646   9.227
92664SOL    HW279890   8.437   5.501   9.208
92665SOL     OW79891  12.879   1.603   8.075
92665SOL    HW179892  12.946   1.650   8.125
92665SOL    HW279893  12.927   1.535   8.028
92666SOL     OW79894   1.765   1.871  12.216
92666SOL    HW179895   1.782   1.803  12.280
92666SOL    HW279896   1.700   1.928  12.257
92667SOL     OW79897   6.645  10.077   1.343
92667SOL    HW179898   6.696  10.039   1.414
92667SOL    HW279899   6.678  10.166   1.335
92668SOL     OW79900   9.819  11.544   0.987
92668SOL    HW179901   9.907  11.508   0.979
92668SOL    HW279902   9.766  11.493   0.926
92669SOL     OW79903   6.400  11.641   7.633
92669SOL    HW179904   6.330  11.700   7.605
92669SOL    HW279905   6.355  11.561   7.659
92670SOL     OW79906   3.010  10.091   1.326
92670SOL    HW179907   3.096  10.133   1.330
92670SOL    HW279908   2.949  10.160   1.353
92671SOL     OW79909   7.798   9.793   1.034
92671SOL    HW179910   7.725   9.803   1.095
92671SOL    HW279911   7.829   9.882   1.020
92672SOL     OW79912  13.689   5.144  13.385
92672SOL    HW179913  13.758   5.103  13.436
92672SOL    HW279914  13.729   5.221  13.347
92673SOL     OW79915   4.952   9.407  12.119
92673SOL    HW179916   4.885   9.343  12.092
92673SOL    HW279917   4.917   9.491  12.090
92674SOL     OW79918   9.550   6.989   1.701
92674SOL    HW179919   9.524   6.908   1.656
92674SOL    HW279920   9.644   6.996   1.686
92675SOL     OW79921   6.283  10.161   1.973
92675SOL    HW179922   6.359  10.160   1.915
92675SOL    HW279923   6.293  10.084   2.028
92676SOL     OW79924  10.136   2.703   7.249
92676SOL    HW179925  10.085   2.747   7.181
92676SOL    HW279926  10.123   2.755   7.328
92677SOL     OW79927   0.164   5.388   8.209
92677SOL    HW179928   0.224   5.314   8.217
92677SOL    HW279929   0.084   5.358   8.251
92678SOL     OW79930  11.087   0.288  11.639
92678SOL    HW179931  11.087   0.227  11.565
92678SOL    HW279932  11.010   0.265  11.690
92679SOL     OW79933   8.409  11.318   0.165
92679SOL    HW179934   8.355  11.243   0.191
92679SOL    HW279935   8.349  11.392   0.161
92680SOL     OW79936   0.930   3.701  14.414
92680SOL    HW179937   0.868   3.649  14.465
92680SOL    HW279938   0.941   3.651  14.333
92681SOL     OW79939  12.438   8.650   2.220
92681SOL    HW179940  12.461   8.719   2.282
92681SOL    HW279941  12.361   8.607   2.258
92682SOL     OW79942   3.739   6.599   7.306
92682SOL    HW179943   3.709   6.688   7.325
92682SOL    HW279944   3.665   6.559   7.261
92683SOL     OW79945  12.428   4.524   4.397
92683SOL    HW179946  12.393   4.593   4.342
92683SOL    HW279947  12.477   4.468   4.337
92684SOL     OW79948   5.541   0.388  12.637
92684SOL    HW179949   5.629   0.353  12.625
92684SOL    HW279950   5.545   0.477  12.601
92685SOL     OW79951   4.421   8.503   6.453
92685SOL    HW179952   4.378   8.419   6.465
92685SOL    HW279953   4.387   8.558   6.524
92686SOL     OW79954   7.624  12.430   3.151
92686SOL    HW179955   7.615  12.427   3.246
92686SOL    HW279956   7.541  12.395   3.118
92687SOL     OW79957   1.759  10.519   8.599
92687SOL    HW179958   1.729  10.539   8.687
92687SOL    HW279959   1.853  10.540   8.599
92688SOL     OW79960   0.736   1.255   1.707
92688SOL    HW179961   0.645   1.276   1.727
92688SOL    HW279962   0.779   1.251   1.792
92689SOL     OW79963  11.773   7.314  12.715
92689SOL    HW179964  11.809   7.226  12.701
92689SOL    HW279965  11.681   7.306  12.693
92690SOL     OW79966  13.188   8.211   6.394
92690SOL    HW179967  13.196   8.219   6.489
92690SOL    HW279968  13.179   8.301   6.363
92691SOL     OW79969   5.821   1.241   9.337
92691SOL    HW179970   5.785   1.156   9.314
92691SOL    HW279971   5.847   1.280   9.253
92692SOL     OW79972  12.593   8.794   6.106
92692SOL    HW179973  12.616   8.858   6.039
92692SOL    HW279974  12.499   8.781   6.095
92693SOL     OW79975   9.025  13.839  11.293
92693SOL    HW179976   8.956  13.781  11.323
92693SOL    HW279977   9.011  13.920  11.342
92694SOL     OW79978   6.932  10.190  12.717
92694SOL    HW179979   6.882  10.114  12.687
92694SOL    HW279980   6.907  10.199  12.809
92695SOL     OW79981  13.499   1.405   4.329
92695SOL    HW179982  13.546   1.443   4.256
92695SOL    HW279983  13.410   1.441   4.323
92696SOL     OW79984   8.334   2.938   2.428
92696SOL    HW179985   8.301   2.964   2.342
92696SOL    HW279986   8.261   2.955   2.487
92697SOL     OW79987   1.910   0.195   3.483
92697SOL    HW179988   1.846   0.192   3.412
92697SOL    HW279989   1.972   0.263   3.456
92698SOL     OW79990   6.087   9.471   2.581
92698SOL    HW179991   6.120   9.505   2.498
92698SOL    HW279992   6.164   9.469   2.638
92699SOL     OW79993   8.278   0.503   4.484
92699SOL    HW179994   8.286   0.557   4.563
92699SOL    HW279995   8.329   0.549   4.418
92700SOL     OW79996  11.719   6.941  10.273
92700SOL    HW179997  11.660   6.992  10.329
92700SOL    HW279998  11.661   6.898  10.210
92701SOL     OW79999   8.241   2.989  11.090
92701SOL    HW180000   8.203   2.902  11.096
92701SOL    HW280001   8.315   2.987  11.151
92702SOL     OW80002  14.329   4.091   2.805
92702SOL    HW180003  14.360   4.164   2.752
92702SOL    HW280004  14.388   4.089   2.881
92703SOL     OW80005   4.980   3.130   4.106
92703SOL    HW180006   4.995   3.114   4.013
92703SOL    HW280007   5.064   3.163   4.139
92704SOL     OW80008   4.308  10.579   2.785
92704SOL    HW180009   4.389  10.531   2.801
92704SOL    HW280010   4.315  10.657   2.840
92705SOL     OW80011   9.107  13.898  12.654
92705SOL    HW180012   9.126  13.847  12.732
92705SOL    HW280013   9.108  13.989  12.684
92706SOL     OW80014  12.881   7.659   1.618
92706SOL    HW180015  12.954   7.707   1.579
92706SOL    HW280016  12.922   7.587   1.666
92707SOL     OW80017  13.772   8.137   5.016
92707SOL    HW180018  13.801   8.226   5.034
92707SOL    HW280019  13.709   8.118   5.085
92708SOL     OW80020   9.361   6.141   9.222
92708SOL    HW180021   9.344   6.212   9.284
92708SOL    HW280022   9.437   6.096   9.258
92709SOL     OW80023  10.371   2.867  12.567
92709SOL    HW180024  10.401   2.846  12.478
92709SOL    HW280025  10.435   2.930  12.600
92710SOL     OW80026   8.252   5.451   6.282
92710SOL    HW180027   8.327   5.458   6.223
92710SOL    HW280028   8.289   5.469   6.369
92711SOL     OW80029  12.579  10.928   5.884
92711SOL    HW180030  12.605  10.931   5.976
92711SOL    HW280031  12.529  11.009   5.871
92712SOL     OW80032   4.609  13.881   1.472
92712SOL    HW180033   4.551  13.837   1.534
92712SOL    HW280034   4.581  13.973   1.473
92713SOL     OW80035  13.275   6.418  11.824
92713SOL    HW180036  13.344   6.429  11.759
92713SOL    HW280037  13.303   6.342  11.876
92714SOL     OW80038   8.218   4.693  10.322
92714SOL    HW180039   8.248   4.770  10.370
92714SOL    HW280040   8.288   4.673  10.261
92715SOL     OW80041   5.929  10.926   7.034
92715SOL    HW180042   5.867  10.863   7.070
92715SOL    HW280043   5.950  10.893   6.947
92716SOL     OW80044   7.545   6.864   0.888
92716SOL    HW180045   7.571   6.784   0.934
92716SOL    HW280046   7.524   6.835   0.800
92717SOL     OW80047   0.802   9.314   9.662
92717SOL    HW180048   0.820   9.237   9.716
92717SOL    HW280049   0.715   9.343   9.691
92718SOL     OW80050   2.198  14.576   9.901
92718SOL    HW180051   2.283  14.560   9.859
92718SOL    HW280052   2.200  14.670   9.921
92719SOL     OW80053   8.980  13.394   8.986
92719SOL    HW180054   8.906  13.400   8.925
92719SOL    HW280055   8.987  13.300   9.005
92720SOL     OW80056   5.337   3.257   0.229
92720SOL    HW180057   5.300   3.262   0.317
92720SOL    HW280058   5.318   3.342   0.189
92721SOL     OW80059   0.067   3.019   5.879
92721SOL    HW180060   0.088   3.112   5.870
92721SOL    HW280061   0.056   2.988   5.789
92722SOL     OW80062   2.142   0.855   3.433
92722SOL    HW180063   2.147   0.835   3.340
92722SOL    HW280064   2.082   0.928   3.439
92723SOL     OW80065   3.816   4.758   3.528
92723SOL    HW180066   3.856   4.810   3.458
92723SOL    HW280067   3.738   4.720   3.489
92724SOL     OW80068   5.274   4.086  11.579
92724SOL    HW180069   5.340   4.045  11.523
92724SOL    HW280070   5.213   4.128  11.519
92725SOL     OW80071   5.817  14.025   9.329
92725SOL    HW180072   5.749  14.090   9.346
92725SOL    HW280073   5.790  13.981   9.248
92726SOL     OW80074   7.436  12.229  11.644
92726SOL    HW180075   7.394  12.194  11.565
92726SOL    HW280076   7.530  12.213  11.630
92727SOL     OW80077  13.592   2.717  11.068
92727SOL    HW180078  13.603   2.630  11.029
92727SOL    HW280079  13.624   2.777  11.000
92728SOL     OW80080   1.986   0.215   6.006
92728SOL    HW180081   2.026   0.134   6.039
92728SOL    HW280082   1.910   0.185   5.955
92729SOL     OW80083  11.823   3.230   0.763
92729SOL    HW180084  11.862   3.286   0.830
92729SOL    HW280085  11.729   3.234   0.780
92730SOL     OW80086   6.804  10.953  11.182
92730SOL    HW180087   6.900  10.952  11.182
92730SOL    HW280088   6.780  11.016  11.249
92731SOL     OW80089   0.233  10.336   3.941
92731SOL    HW180090   0.264  10.384   3.864
92731SOL    HW280091   0.271  10.249   3.931
92732SOL     OW80092   7.837   9.579   1.319
92732SOL    HW180093   7.854   9.550   1.229
92732SOL    HW280094   7.907   9.538   1.370
92733SOL     OW80095  12.836   5.560   1.209
92733SOL    HW180096  12.826   5.471   1.242
92733SOL    HW280097  12.768   5.568   1.141
92734SOL     OW80098   2.294  12.727   4.595
92734SOL    HW180099   2.229  12.749   4.662
92734SOL    HW280100   2.250  12.660   4.541
92735SOL     OW80101   3.307   9.880   7.405
92735SOL    HW180102   3.394   9.864   7.368
92735SOL    HW280103   3.246   9.852   7.337
92736SOL     OW80104   2.113  14.207  10.732
92736SOL    HW180105   2.097  14.285  10.786
92736SOL    HW280106   2.183  14.160  10.777
92737SOL     OW80107   4.293   9.458  13.334
92737SOL    HW180108   4.343   9.447  13.414
92737SOL    HW280109   4.232   9.530  13.352
92738SOL     OW80110   7.005  11.738  12.857
92738SOL    HW180111   6.999  11.785  12.940
92738SOL    HW280112   6.936  11.776  12.803
92739SOL     OW80113   6.436  14.450   4.713
92739SOL    HW180114   6.396  14.363   4.712
92739SOL    HW280115   6.448  14.470   4.806
92740SOL     OW80116  13.438   6.197   8.853
92740SOL    HW180117  13.524   6.223   8.820
92740SOL    HW280118  13.379   6.207   8.778
92741SOL     OW80119  14.360   2.350   5.690
92741SOL    HW180120  14.394   2.270   5.731
92741SOL    HW280121  14.274   2.363   5.730
92742SOL     OW80122   5.879   1.994   7.069
92742SOL    HW180123   5.952   1.963   7.015
92742SOL    HW280124   5.849   2.074   7.026
92743SOL     OW80125   7.219   4.245   8.332
92743SOL    HW180126   7.191   4.248   8.424
92743SOL    HW280127   7.313   4.261   8.336
92744SOL     OW80128   2.749  10.514   8.072
92744SOL    HW180129   2.746  10.418   8.063
92744SOL    HW280130   2.694  10.545   8.000
92745SOL     OW80131   7.228   4.230   4.878
92745SOL    HW180132   7.201   4.177   4.953
92745SOL    HW280133   7.149   4.238   4.825
92746SOL     OW80134  10.601  11.020  13.605
92746SOL    HW180135  10.619  10.969  13.526
92746SOL    HW280136  10.516  10.988  13.634
92747SOL     OW80137   9.338   0.067   6.606
92747SOL    HW180138   9.318  14.848   6.605
92747SOL    HW280139   9.254   0.110   6.618
92748SOL     OW80140   5.524   7.945   6.880
92748SOL    HW180141   5.559   7.936   6.791
92748SOL    HW280142   5.451   7.882   6.883
92749SOL     OW80143   2.359  10.281  11.420
92749SOL    HW180144   2.319  10.359  11.459
92749SOL    HW280145   2.437  10.314  11.376
92750SOL     OW80146  14.811  11.462   6.029
92750SOL    HW180147  14.868  11.400   5.984
92750SOL    HW280148  14.739  11.408   6.061
92751SOL     OW80149  12.151   4.247   1.673
92751SOL    HW180150  12.062   4.282   1.680
92751SOL    HW280151  12.181   4.238   1.764
92752SOL     OW80152   4.287   6.233   9.608
92752SOL    HW180153   4.241   6.296   9.662
92752SOL    HW280154   4.219   6.174   9.576
92753SOL     OW80155   8.669   3.523   8.051
92753SOL    HW180156   8.754   3.563   8.069
92753SOL    HW280157   8.606   3.580   8.096
92754SOL     OW80158   3.833   7.697   6.747
92754SOL    HW180159   3.824   7.605   6.772
92754SOL    HW280160   3.895   7.696   6.674
92755SOL     OW80161   1.333  11.382   5.314
92755SOL    HW180162   1.274  11.330   5.259
92755SOL    HW280163   1.399  11.415   5.254
92756SOL     OW80164   4.713  10.492   0.275
92756SOL    HW180165   4.708  10.525   0.365
92756SOL    HW280166   4.805  10.473   0.261
92757SOL     OW80167  13.740   8.242   3.085
92757SOL    HW180168  13.764   8.196   3.165
92757SOL    HW280169  13.801   8.210   3.019
92758SOL     OW80170  12.142  11.478   0.499
92758SOL    HW180171  12.111  11.398   0.456
92758SOL    HW280172  12.119  11.466   0.591
92759SOL     OW80173   0.328   9.866  12.937
92759SOL    HW180174   0.373   9.814  12.870
92759SOL    HW280175   0.266   9.805  12.977
92760SOL     OW80176  14.222  14.289  13.989
92760SOL    HW180177  14.316  14.303  13.979
92760SOL    HW280178  14.184  14.377  13.993
92761SOL     OW80179   7.256   0.797   0.003
92761SOL    HW180180   7.337   0.807   0.052
92761SOL    HW280181   7.240   0.702   0.003
92762SOL     OW80182   2.104  10.606   9.642
92762SOL    HW180183   2.176  10.625   9.582
92762SOL    HW280184   2.072  10.692   9.669
92763SOL     OW80185  13.910  12.145   8.227
92763SOL    HW180186  13.864  12.119   8.148
92763SOL    HW280187  13.858  12.215   8.264
92764SOL     OW80188  11.799   2.631   0.099
92764SOL    HW180189  11.887   2.615   0.065
92764SOL    HW280190  11.748   2.658   0.022
92765SOL     OW80191   9.527  10.337   2.711
92765SOL    HW180192   9.475  10.310   2.635
92765SOL    HW280193   9.481  10.299   2.786
92766SOL     OW80194   0.846   4.658  11.791
92766SOL    HW180195   0.902   4.619  11.858
92766SOL    HW280196   0.880   4.624  11.708
92767SOL     OW80197  14.669   4.711  11.388
92767SOL    HW180198  14.609   4.718  11.463
92767SOL    HW280199  14.753   4.741  11.422
92768SOL     OW80200   6.137  13.704  10.592
92768SOL    HW180201   6.225  13.667  10.587
92768SOL    HW280202   6.140  13.781  10.535
92769SOL     OW80203  13.745  12.217   0.712
92769SOL    HW180204  13.815  12.180   0.658
92769SOL    HW280205  13.764  12.311   0.715
92770SOL     OW80206   9.947   5.398   2.179
92770SOL    HW180207   9.917   5.320   2.225
92770SOL    HW280208  10.035   5.376   2.150
92771SOL     OW80209   5.796  10.568  13.655
92771SOL    HW180210   5.869  10.627  13.673
92771SOL    HW280211   5.729  10.623  13.615
92772SOL     OW80212   1.331  14.122   9.380
92772SOL    HW180213   1.246  14.081   9.396
92772SOL    HW280214   1.311  14.215   9.367
92773SOL     OW80215  11.803  12.338   6.511
92773SOL    HW180216  11.862  12.335   6.436
92773SOL    HW280217  11.716  12.337   6.473
92774SOL     OW80218   9.006   1.880   2.123
92774SOL    HW180219   9.053   1.912   2.046
92774SOL    HW280220   8.946   1.951   2.145
92775SOL     OW80221  14.073   9.738  11.852
92775SOL    HW180222  14.150   9.688  11.826
92775SOL    HW280223  14.093   9.829  11.827
92776SOL     OW80224   0.725   8.771  11.266
92776SOL    HW180225   0.682   8.689  11.241
92776SOL    HW280226   0.761   8.754  11.353
92777SOL     OW80227   9.686  11.778   4.078
92777SOL    HW180228   9.700  11.826   3.997
92777SOL    HW280229   9.666  11.688   4.050
92778SOL     OW80230   0.290  10.035   5.521
92778SOL    HW180231   0.313  10.103   5.458
92778SOL    HW280232   0.298   9.953   5.473
92779SOL     OW80233   3.914   7.291   6.247
92779SOL    HW180234   3.857   7.295   6.323
92779SOL    HW280235   4.003   7.294   6.283
92780SOL     OW80236   7.871   6.567  10.701
92780SOL    HW180237   7.864   6.640  10.762
92780SOL    HW280238   7.963   6.566  10.674
92781SOL     OW80239  10.119   3.522  10.508
92781SOL    HW180240  10.150   3.441  10.548
92781SOL    HW280241  10.029   3.532  10.541
92782SOL     OW80242   5.281  14.759   1.120
92782SOL    HW180243   5.314  14.685   1.170
92782SOL    HW280244   5.201  14.785   1.166
92783SOL     OW80245   9.578   8.492   7.683
92783SOL    HW180246   9.576   8.516   7.776
92783SOL    HW280247   9.523   8.414   7.677
92784SOL     OW80248   1.890   2.372   4.889
92784SOL    HW180249   1.971   2.424   4.887
92784SOL    HW280250   1.912   2.297   4.945
92785SOL     OW80251   7.304   0.662   7.372
92785SOL    HW180252   7.328   0.579   7.331
92785SOL    HW280253   7.336   0.655   7.462
92786SOL     OW80254   5.085   7.728   3.515
92786SOL    HW180255   5.080   7.823   3.511
92786SOL    HW280256   5.009   7.703   3.568
92787SOL     OW80257   1.173  11.788  14.279
92787SOL    HW180258   1.197  11.779  14.187
92787SOL    HW280259   1.128  11.872  14.284
92788SOL     OW80260   2.179   3.597   7.195
92788SOL    HW180261   2.243   3.576   7.263
92788SOL    HW280262   2.160   3.690   7.208
92789SOL     OW80263  12.932   0.269   9.069
92789SOL    HW180264  12.957   0.359   9.088
92789SOL    HW280265  13.000   0.216   9.111
92790SOL     OW80266   2.729   0.051   6.578
92790SOL    HW180267   2.643   0.036   6.617
92790SOL    HW280268   2.786   0.071   6.652
92791SOL     OW80269  11.232   4.110   1.326
92791SOL    HW180270  11.262   4.185   1.377
92791SOL    HW280271  11.270   4.034   1.370
92792SOL     OW80272   2.682  10.677   5.525
92792SOL    HW180273   2.690  10.711   5.614
92792SOL    HW280274   2.589  10.660   5.514
92793SOL     OW80275  13.686  13.999   4.595
92793SOL    HW180276  13.745  13.945   4.543
92793SOL    HW280277  13.607  13.945   4.606
92794SOL     OW80278   0.887  11.448   6.496
92794SOL    HW180279   0.980  11.467   6.482
92794SOL    HW280280   0.879  11.355   6.473
92795SOL     OW80281   6.872  13.122  14.144
92795SOL    HW180282   6.912  13.207  14.125
92795SOL    HW280283   6.782  13.130  14.110
92796SOL     OW80284   1.112   1.346   8.195
92796SOL    HW180285   1.207   1.341   8.201
92796SOL    HW280286   1.089   1.423   8.247
92797SOL     OW80287   8.123   7.468  10.599
92797SOL    HW180288   8.119   7.506  10.511
92797SOL    HW280289   8.117   7.374  10.584
92798SOL     OW80290  12.202  11.322  13.270
92798SOL    HW180291  12.205  11.273  13.352
92798SOL    HW280292  12.292  11.355  13.258
92799SOL     OW80293   5.006   6.721   6.578
92799SOL    HW180294   4.932   6.663   6.595
92799SOL    HW280295   5.053   6.725   6.662
92800SOL     OW80296  10.383   9.003   6.906
92800SOL    HW180297  10.403   8.975   6.816
92800SOL    HW280298  10.377   9.098   6.901
92801SOL     OW80299  12.331  14.775  10.517
92801SOL    HW180300  12.311  14.848  10.459
92801SOL    HW280301  12.402  14.806  10.572
92802SOL     OW80302  14.586  10.406  13.615
92802SOL    HW180303  14.604  10.316  13.643
92802SOL    HW280304  14.652  10.459  13.660
92803SOL     OW80305  11.411   7.880   4.563
92803SOL    HW180306  11.496   7.922   4.548
92803SOL    HW280307  11.352   7.953   4.581
92804SOL     OW80308   5.841   6.471   2.509
92804SOL    HW180309   5.887   6.408   2.453
92804SOL    HW280310   5.778   6.419   2.557
92805SOL     OW80311  14.113   8.326   8.195
92805SOL    HW180312  14.054   8.260   8.158
92805SOL    HW280313  14.096   8.406   8.145
92806SOL     OW80314  11.325  12.934  12.882
92806SOL    HW180315  11.255  12.930  12.817
92806SOL    HW280316  11.325  13.026  12.911
92807SOL     OW80317   6.527   7.122   4.906
92807SOL    HW180318   6.561   7.160   4.987
92807SOL    HW280319   6.489   7.038   4.934
92808SOL     OW80320  12.936   3.033   7.549
92808SOL    HW180321  12.903   3.090   7.479
92808SOL    HW280322  12.859   3.015   7.602
92809SOL     OW80323  14.783   4.435   9.050
92809SOL    HW180324  14.767   4.493   8.975
92809SOL    HW280325  14.788   4.494   9.125
92810SOL     OW80326   1.619   2.241   3.722
92810SOL    HW180327   1.660   2.229   3.636
92810SOL    HW280328   1.688   2.280   3.776
92811SOL     OW80329  11.555  12.022   7.066
92811SOL    HW180330  11.504  11.947   7.096
92811SOL    HW280331  11.497  12.097   7.083
92812SOL     OW80332   3.522   5.171  13.345
92812SOL    HW180333   3.482   5.187  13.260
92812SOL    HW280334   3.510   5.077  13.360
92813SOL     OW80335   3.877  13.626   9.631
92813SOL    HW180336   3.953  13.681   9.614
92813SOL    HW280337   3.899  13.581   9.713
92814SOL     OW80338   4.305   4.389   3.484
92814SOL    HW180339   4.301   4.458   3.418
92814SOL    HW280340   4.379   4.414   3.540
92815SOL     OW80341  13.356   2.842  13.807
92815SOL    HW180342  13.263   2.845  13.829
92815SOL    HW280343  13.380   2.934  13.790
92816SOL     OW80344   1.264   9.655   5.653
92816SOL    HW180345   1.344   9.696   5.686
92816SOL    HW280346   1.262   9.569   5.694
92817SOL     OW80347  11.948  14.140   6.129
92817SOL    HW180348  11.960  14.234   6.143
92817SOL    HW280349  11.985  14.099   6.207
92818SOL     OW80350   6.881   5.483  12.957
92818SOL    HW180351   6.850   5.556  13.011
92818SOL    HW280352   6.819   5.412  12.974
92819SOL     OW80353  13.177   0.736  11.916
92819SOL    HW180354  13.131   0.704  11.993
92819SOL    HW280355  13.178   0.831  11.926
92820SOL     OW80356   8.056   5.270  11.397
92820SOL    HW180357   7.972   5.227  11.386
92820SOL    HW280358   8.077   5.306  11.311
92821SOL     OW80359   5.945  11.870   9.241
92821SOL    HW180360   5.886  11.917   9.181
92821SOL    HW280361   5.925  11.906   9.327
92822SOL     OW80362   8.404   0.904   1.641
92822SOL    HW180363   8.476   0.958   1.671
92822SOL    HW280364   8.430   0.814   1.662
92823SOL     OW80365   1.370   0.554  11.541
92823SOL    HW180366   1.361   0.649  11.546
92823SOL    HW280367   1.461   0.540  11.515
92824SOL     OW80368   8.601   1.527  13.844
92824SOL    HW180369   8.674   1.590  13.847
92824SOL    HW280370   8.548   1.549  13.920
92825SOL     OW80371   0.984  10.944  11.667
92825SOL    HW180372   1.046  10.879  11.634
92825SOL    HW280373   1.031  10.988  11.737
92826SOL     OW80374   6.039   1.959  12.403
92826SOL    HW180375   6.102   1.899  12.362
92826SOL    HW280376   6.085   2.043  12.407
92827SOL     OW80377  12.856  13.810   8.787
92827SOL    HW180378  12.942  13.769   8.777
92827SOL    HW280379  12.864  13.866   8.864
92828SOL     OW80380  11.834   2.998  11.809
92828SOL    HW180381  11.900   3.020  11.745
92828SOL    HW280382  11.854   2.907  11.834
92829SOL     OW80383   7.662   7.205   1.217
92829SOL    HW180384   7.640   7.269   1.285
92829SOL    HW280385   7.578   7.183   1.177
92830SOL     OW80386   4.530  11.637   6.158
92830SOL    HW180387   4.598  11.609   6.219
92830SOL    HW280388   4.505  11.557   6.111
92831SOL     OW80389   4.251   3.279  12.859
92831SOL    HW180390   4.246   3.214  12.790
92831SOL    HW280391   4.222   3.361  12.818
92832SOL     OW80392  13.436  10.581   2.249
92832SOL    HW180393  13.500  10.568   2.319
92832SOL    HW280394  13.354  10.599   2.294
92833SOL     OW80395   2.004   3.082  13.739
92833SOL    HW180396   2.050   3.138  13.676
92833SOL    HW280397   1.963   3.144  13.800
92834SOL     OW80398  13.464   3.967  13.485
92834SOL    HW180399  13.375   3.972  13.450
92834SOL    HW280400  13.519   4.003  13.415
92835SOL     OW80401  13.068   6.368  12.794
92835SOL    HW180402  12.979   6.374  12.829
92835SOL    HW280403  13.056   6.356  12.700
92836SOL     OW80404   3.588   9.713  12.014
92836SOL    HW180405   3.525   9.654  11.973
92836SOL    HW280406   3.624   9.763  11.941
92837SOL     OW80407   0.626   2.619   8.629
92837SOL    HW180408   0.691   2.620   8.558
92837SOL    HW280409   0.585   2.533   8.623
92838SOL     OW80410   7.662   9.652  13.666
92838SOL    HW180411   7.704   9.679  13.584
92838SOL    HW280412   7.584   9.707  13.672
92839SOL     OW80413   5.169   5.797  13.645
92839SOL    HW180414   5.230   5.767  13.712
92839SOL    HW280415   5.141   5.717  13.600
92840SOL     OW80416  11.552   4.080   3.572
92840SOL    HW180417  11.489   4.009   3.571
92840SOL    HW280418  11.565   4.101   3.479
92841SOL     OW80419  10.284   7.995   8.716
92841SOL    HW180420  10.351   7.955   8.661
92841SOL    HW280421  10.258   7.925   8.776
92842SOL     OW80422   4.739   4.605   8.987
92842SOL    HW180423   4.800   4.664   9.033
92842SOL    HW280424   4.794   4.557   8.925
92843SOL     OW80425   8.762   3.561   2.853
92843SOL    HW180426   8.818   3.484   2.867
92843SOL    HW280427   8.675   3.532   2.879
92844SOL     OW80428   3.458  12.554  12.786
92844SOL    HW180429   3.410  12.481  12.826
92844SOL    HW280430   3.545  12.550  12.825
92845SOL     OW80431   3.648   1.179   1.545
92845SOL    HW180432   3.740   1.178   1.571
92845SOL    HW280433   3.635   1.265   1.505
92846SOL     OW80434  11.126  11.014   2.227
92846SOL    HW180435  11.148  10.954   2.298
92846SOL    HW280436  11.186  10.990   2.156
92847SOL     OW80437   4.604   5.739   5.913
92847SOL    HW180438   4.597   5.791   5.834
92847SOL    HW280439   4.593   5.648   5.883
92848SOL     OW80440  10.942   4.137  12.249
92848SOL    HW180441  10.944   4.166  12.340
92848SOL    HW280442  10.851   4.147  12.222
92849SOL     OW80443  12.590   2.629  12.210
92849SOL    HW180444  12.499   2.651  12.230
92849SOL    HW280445  12.626   2.710  12.174
92850SOL     OW80446   7.083   9.262  10.324
92850SOL    HW180447   7.081   9.236  10.231
92850SOL    HW280448   7.173   9.293  10.338
92851SOL     OW80449   7.976   6.278  12.335
92851SOL    HW180450   7.993   6.352  12.392
92851SOL    HW280451   7.929   6.215  12.390
92852SOL     OW80452   9.430  13.827   6.659
92852SOL    HW180453   9.398  13.906   6.617
92852SOL    HW280454   9.354  13.792   6.705
92853SOL     OW80455   7.555   8.782   9.551
92853SOL    HW180456   7.605   8.861   9.532
92853SOL    HW280457   7.516   8.798   9.637
92854SOL     OW80458   0.098  10.021  12.270
92854SOL    HW180459   0.182   9.979  12.250
92854SOL    HW280460   0.118  10.082  12.341
92855SOL     OW80461   4.949   8.634   9.787
92855SOL    HW180462   5.004   8.559   9.765
92855SOL    HW280463   4.997   8.710   9.753
92856SOL     OW80464  13.552   9.805   3.760
92856SOL    HW180465  13.537   9.773   3.670
92856SOL    HW280466  13.620   9.748   3.794
92857SOL     OW80467  12.030  10.475   4.104
92857SOL    HW180468  12.061  10.551   4.153
92857SOL    HW280469  12.063  10.399   4.153
92858SOL     OW80470  12.431   3.759   5.691
92858SOL    HW180471  12.349   3.781   5.734
92858SOL    HW280472  12.472   3.695   5.748
92859SOL     OW80473   0.778  12.474   1.182
92859SOL    HW180474   0.741  12.493   1.095
92859SOL    HW280475   0.868  12.505   1.177
92860SOL     OW80476   3.339  13.975  10.123
92860SOL    HW180477   3.346  13.915  10.198
92860SOL    HW280478   3.422  13.966  10.077
92861SOL     OW80479   9.464   3.560   3.571
92861SOL    HW180480   9.413   3.542   3.649
92861SOL    HW280481   9.426   3.503   3.504
92862SOL     OW80482   2.974  12.074   0.454
92862SOL    HW180483   2.963  12.042   0.365
92862SOL    HW280484   2.947  12.166   0.450
92863SOL     OW80485  10.654  14.474   5.932
92863SOL    HW180486  10.631  14.446   5.843
92863SOL    HW280487  10.749  14.481   5.932
92864SOL     OW80488   2.413   5.363   2.791
92864SOL    HW180489   2.336   5.368   2.734
92864SOL    HW280490   2.398   5.285   2.845
92865SOL     OW80491   2.686   0.800   6.179
92865SOL    HW180492   2.668   0.707   6.167
92865SOL    HW280493   2.672   0.816   6.272
92866SOL     OW80494  12.957   1.512  11.396
92866SOL    HW180495  13.024   1.577  11.417
92866SOL    HW280496  12.949   1.516  11.301
92867SOL     OW80497   3.455  11.004   5.529
92867SOL    HW180498   3.427  10.981   5.441
92867SOL    HW280499   3.374  11.031   5.573
92868SOL     OW80500  11.624   3.336  14.142
92868SOL    HW180501  11.670   3.309  14.221
92868SOL    HW280502  11.635   3.262  14.082
92869SOL     OW80503   7.645   5.764   5.348
92869SOL    HW180504   7.619   5.722   5.431
92869SOL    HW280505   7.562   5.782   5.304
92870SOL     OW80506   0.611   9.595   2.630
92870SOL    HW180507   0.674   9.538   2.673
92870SOL    HW280508   0.578   9.542   2.556
92871SOL     OW80509   5.950  10.503   5.451
92871SOL    HW180510   5.988  10.493   5.539
92871SOL    HW280511   5.942  10.597   5.439
92872SOL     OW80512   7.894   1.004   0.293
92872SOL    HW180513   7.875   1.008   0.387
92872SOL    HW280514   7.984   1.036   0.285
92873SOL     OW80515   2.396   4.699   3.896
92873SOL    HW180516   2.306   4.697   3.865
92873SOL    HW280517   2.432   4.781   3.861
92874SOL     OW80518   9.976   2.802   0.967
92874SOL    HW180519   9.999   2.846   0.885
92874SOL    HW280520  10.049   2.820   1.025
92875SOL     OW80521   4.000  12.742  14.250
92875SOL    HW180522   3.906  12.728  14.239
92875SOL    HW280523   4.009  12.837  14.254
92876SOL     OW80524   4.094   9.568   0.459
92876SOL    HW180525   4.076   9.563   0.553
92876SOL    HW280526   4.188   9.579   0.453
92877SOL     OW80527   0.275   1.972   6.403
92877SOL    HW180528   0.308   2.057   6.433
92877SOL    HW280529   0.354   1.919   6.393
92878SOL     OW80530   2.450  13.749  11.658
92878SOL    HW180531   2.394  13.817  11.621
92878SOL    HW280532   2.394  13.672  11.662
92879SOL     OW80533   2.664  11.644  13.306
92879SOL    HW180534   2.714  11.708  13.255
92879SOL    HW280535   2.642  11.690  13.387
92880SOL     OW80536   7.158   3.081  13.798
92880SOL    HW180537   7.149   3.136  13.720
92880SOL    HW280538   7.250   3.054  13.798
92881SOL     OW80539   6.554   2.413  12.538
92881SOL    HW180540   6.611   2.475  12.584
92881SOL    HW280541   6.519   2.357  12.607
92882SOL     OW80542  13.463  13.655   8.687
92882SOL    HW180543  13.536  13.673   8.628
92882SOL    HW280544  13.393  13.622   8.630
92883SOL     OW80545  11.237   0.966   2.955
92883SOL    HW180546  11.273   1.017   2.882
92883SOL    HW280547  11.170   0.911   2.914
92884SOL     OW80548  14.710   3.241   7.771
92884SOL    HW180549  14.636   3.266   7.827
92884SOL    HW280550  14.679   3.257   7.682
92885SOL     OW80551   3.034  12.277   1.925
92885SOL    HW180552   3.014  12.364   1.890
92885SOL    HW280553   3.044  12.291   2.019
92886SOL     OW80554   0.943   9.089   4.641
92886SOL    HW180555   1.001   9.120   4.572
92886SOL    HW280556   0.903   9.010   4.605
92887SOL     OW80557  10.057   7.153   7.053
92887SOL    HW180558   9.991   7.084   7.038
92887SOL    HW280559  10.079   7.183   6.965
92888SOL     OW80560   5.958   3.733  13.985
92888SOL    HW180561   5.897   3.730  13.912
92888SOL    HW280562   5.975   3.826  13.999
92889SOL     OW80563  11.225   0.168  11.219
92889SOL    HW180564  11.223   0.073  11.222
92889SOL    HW280565  11.142   0.193  11.177
92890SOL     OW80566  10.078  10.511   0.648
92890SOL    HW180567  10.031  10.433   0.676
92890SOL    HW280568  10.170  10.491   0.666
92891SOL     OW80569   6.660   9.963   5.588
92891SOL    HW180570   6.579   9.987   5.542
92891SOL    HW280571   6.637   9.966   5.681
92892SOL     OW80572   8.998   8.234   3.314
92892SOL    HW180573   8.932   8.272   3.372
92892SOL    HW280574   9.079   8.279   3.337
92893SOL     OW80575   7.207   4.808   5.312
92893SOL    HW180576   7.177   4.728   5.269
92893SOL    HW280577   7.182   4.797   5.404
92894SOL     OW80578  14.585  12.568   1.022
92894SOL    HW180579  14.635  12.549   1.102
92894SOL    HW280580  14.494  12.550   1.046
92895SOL     OW80581  13.967   5.942   6.932
92895SOL    HW180582  13.931   5.890   6.860
92895SOL    HW280583  13.961   6.032   6.902
92896SOL     OW80584  14.098   8.870   0.622
92896SOL    HW180585  14.006   8.890   0.634
92896SOL    HW280586  14.098   8.785   0.578
92897SOL     OW80587   0.315  11.297   8.895
92897SOL    HW180588   0.400  11.336   8.873
92897SOL    HW280589   0.251  11.365   8.875
92898SOL     OW80590   1.564   9.614   8.652
92898SOL    HW180591   1.657   9.596   8.667
92898SOL    HW280592   1.521   9.585   8.733
92899SOL     OW80593  10.733   7.702   8.274
92899SOL    HW180594  10.812   7.756   8.281
92899SOL    HW280595  10.667   7.760   8.237
92900SOL     OW80596  11.087   9.481   9.378
92900SOL    HW180597  11.079   9.575   9.365
92900SOL    HW280598  11.155   9.454   9.316
92901SOL     OW80599   5.708   7.234  10.605
92901SOL    HW180600   5.754   7.312  10.574
92901SOL    HW280601   5.771   7.163  10.591
92902SOL     OW80602   4.574   5.882   8.075
92902SOL    HW180603   4.654   5.878   8.128
92902SOL    HW280604   4.601   5.848   7.990
92903SOL     OW80605   5.767   4.320  13.001
92903SOL    HW180606   5.764   4.367  13.084
92903SOL    HW280607   5.697   4.255  13.007
92904SOL     OW80608   2.331   3.703   4.944
92904SOL    HW180609   2.317   3.709   4.850
92904SOL    HW280610   2.422   3.729   4.957
92905SOL     OW80611   0.572   4.504   9.188
92905SOL    HW180612   0.643   4.541   9.135
92905SOL    HW280613   0.573   4.556   9.268
92906SOL     OW80614   7.549   6.720   6.943
92906SOL    HW180615   7.562   6.640   6.892
92906SOL    HW280616   7.455   6.721   6.962
92907SOL     OW80617   8.911   2.213   2.594
92907SOL    HW180618   8.883   2.182   2.508
92907SOL    HW280619   8.836   2.264   2.627
92908SOL     OW80620   6.580   3.322   4.679
92908SOL    HW180621   6.667   3.301   4.646
92908SOL    HW280622   6.585   3.305   4.773
92909SOL     OW80623   6.502   7.111   0.308
92909SOL    HW180624   6.464   7.033   0.268
92909SOL    HW280625   6.530   7.165   0.233
92910SOL     OW80626   9.188   8.026   6.162
92910SOL    HW180627   9.099   8.061   6.158
92910SOL    HW280628   9.243   8.101   6.185
92911SOL     OW80629   8.959   3.330   2.046
92911SOL    HW180630   9.011   3.288   1.977
92911SOL    HW280631   8.880   3.276   2.053
92912SOL     OW80632   9.827   5.507  12.224
92912SOL    HW180633   9.905   5.452  12.212
92912SOL    HW280634   9.764   5.474  12.161
92913SOL     OW80635   9.920   3.555   9.361
92913SOL    HW180636   9.908   3.615   9.288
92913SOL    HW280637   9.877   3.598   9.435
92914SOL     OW80638   3.100   0.965   3.555
92914SOL    HW180639   3.015   0.923   3.558
92914SOL    HW280640   3.144   0.939   3.636
92915SOL     OW80641   6.684   9.923   4.215
92915SOL    HW180642   6.771   9.889   4.236
92915SOL    HW280643   6.699   9.983   4.142
92916SOL     OW80644  14.079   3.446   6.069
92916SOL    HW180645  14.165   3.488   6.061
92916SOL    HW280646  14.019   3.505   6.023
92917SOL     OW80647  13.427  12.330   2.852
92917SOL    HW180648  13.407  12.406   2.907
92917SOL    HW280649  13.345  12.311   2.807
92918SOL     OW80650  10.858  12.298   2.969
92918SOL    HW180651  10.791  12.315   2.903
92918SOL    HW280652  10.901  12.218   2.941
92919SOL     OW80653   7.993  10.530   5.831
92919SOL    HW180654   7.935  10.602   5.810
92919SOL    HW280655   7.954  10.454   5.788
92920SOL     OW80656   2.958   9.832   6.305
92920SOL    HW180657   2.899   9.901   6.335
92920SOL    HW280658   2.968   9.775   6.382
92921SOL     OW80659   5.396   1.327   5.738
92921SOL    HW180660   5.389   1.364   5.651
92921SOL    HW280661   5.487   1.297   5.745
92922SOL     OW80662   5.502   2.120  12.286
92922SOL    HW180663   5.485   2.212  12.306
92922SOL    HW280664   5.550   2.087  12.363
92923SOL     OW80665  12.894   1.734  12.809
92923SOL    HW180666  12.860   1.764  12.725
92923SOL    HW280667  12.820   1.691  12.851
92924SOL     OW80668   4.049  13.155   4.638
92924SOL    HW180669   4.067  13.237   4.592
92924SOL    HW280670   4.005  13.100   4.573
92925SOL     OW80671  12.956  14.602  12.577
92925SOL    HW180672  13.021  14.672  12.564
92925SOL    HW280673  12.961  14.550  12.497
92926SOL     OW80674   9.054   1.216  10.270
92926SOL    HW180675   8.965   1.244  10.250
92926SOL    HW280676   9.048   1.177  10.357
92927SOL     OW80677   8.522   0.471   9.600
92927SOL    HW180678   8.596   0.433   9.552
92927SOL    HW280679   8.447   0.418   9.575
92928SOL     OW80680   4.034   8.383   6.595
92928SOL    HW180681   4.048   8.446   6.525
92928SOL    HW280682   3.939   8.366   6.594
92929SOL     OW80683   5.952  13.272   9.820
92929SOL    HW180684   5.991  13.337   9.762
92929SOL    HW280685   6.004  13.193   9.806
92930SOL     OW80686   1.444  14.615   4.589
92930SOL    HW180687   1.446  14.577   4.676
92930SOL    HW280688   1.536  14.616   4.561
92931SOL     OW80689  12.471  12.831  11.387
92931SOL    HW180690  12.438  12.875  11.309
92931SOL    HW280691  12.532  12.893  11.426
92932SOL     OW80692   2.905  11.577  12.863
92932SOL    HW180693   2.953  11.616  12.936
92932SOL    HW280694   2.849  11.647  12.830
92933SOL     OW80695   0.759  14.408   0.730
92933SOL    HW180696   0.717  14.335   0.778
92933SOL    HW280697   0.818  14.365   0.668
92934SOL     OW80698   1.465  14.729   9.108
92934SOL    HW180699   1.458  14.792   9.037
92934SOL    HW280700   1.415  14.767   9.180
92935SOL     OW80701   4.797  11.715  11.897
92935SOL    HW180702   4.794  11.800  11.941
92935SOL    HW280703   4.890  11.699  11.882
92936SOL     OW80704   5.786   9.485  14.747
92936SOL    HW180705   5.820   9.396  14.748
92936SOL    HW280706   5.782   9.511  14.839
92937SOL     OW80707  14.376  13.584   2.901
92937SOL    HW180708  14.339  13.631   2.827
92937SOL    HW280709  14.451  13.536   2.865
92938SOL     OW80710   2.029  11.739  12.925
92938SOL    HW180711   1.979  11.712  13.002
92938SOL    HW280712   2.072  11.820  12.951
92939SOL     OW80713  13.137   5.990  11.960
92939SOL    HW180714  13.052   5.951  11.979
92939SOL    HW280715  13.194   5.914  11.942
92940SOL     OW80716   4.892   9.809   8.356
92940SOL    HW180717   4.945   9.835   8.280
92940SOL    HW280718   4.857   9.891   8.391
92941SOL     OW80719   7.551   5.803  10.351
92941SOL    HW180720   7.497   5.860  10.405
92941SOL    HW280721   7.571   5.728  10.406
92942SOL     OW80722  10.316  10.764  13.695
92942SOL    HW180723  10.243  10.818  13.723
92942SOL    HW280724  10.378  10.766  13.768
92943SOL     OW80725   4.732   4.395  13.963
92943SOL    HW180726   4.747   4.377  13.871
92943SOL    HW280727   4.699   4.485  13.965
92944SOL     OW80728  11.748   3.706   2.030
92944SOL    HW180729  11.771   3.671   2.115
92944SOL    HW280730  11.798   3.787   2.022
92945SOL     OW80731   6.022   0.530  13.964
92945SOL    HW180732   6.053   0.611  14.004
92945SOL    HW280733   5.947   0.503  14.018
92946SOL     OW80734   9.393   7.643   9.486
92946SOL    HW180735   9.466   7.585   9.462
92946SOL    HW280736   9.321   7.583   9.505
92947SOL     OW80737  11.425   8.470   7.668
92947SOL    HW180738  11.369   8.398   7.699
92947SOL    HW280739  11.488   8.428   7.610
92948SOL     OW80740   9.953  10.088   2.086
92948SOL    HW180741   9.861  10.114   2.096
92948SOL    HW280742  10.002  10.162   2.121
92949SOL     OW80743  11.348   2.337  11.588
92949SOL    HW180744  11.255   2.330  11.566
92949SOL    HW280745  11.349   2.345  11.684
92950SOL     OW80746  11.946   6.884   0.389
92950SOL    HW180747  11.868   6.935   0.370
92950SOL    HW280748  11.946   6.874   0.484
92951SOL     OW80749   9.621   2.759   2.290
92951SOL    HW180750   9.594   2.716   2.371
92951SOL    HW280751   9.574   2.713   2.221
92952SOL     OW80752   8.887   6.014   7.893
92952SOL    HW180753   8.816   6.076   7.910
92952SOL    HW280754   8.944   6.060   7.831
92953SOL     OW80755  13.435  11.138   9.715
92953SOL    HW180756  13.458  11.214   9.662
92953SOL    HW280757  13.434  11.065   9.654
92954SOL     OW80758   1.190   3.966  12.916
92954SOL    HW180759   1.116   4.028  12.912
92954SOL    HW280760   1.268   4.022  12.919
92955SOL     OW80761   4.956  13.075   7.231
92955SOL    HW180762   4.930  12.983   7.223
92955SOL    HW280763   4.874  13.124   7.228
92956SOL     OW80764  12.423   6.922   4.484
92956SOL    HW180765  12.471   6.946   4.404
92956SOL    HW280766  12.331   6.937   4.462
92957SOL     OW80767  11.866   5.865   3.823
92957SOL    HW180768  11.854   5.885   3.916
92957SOL    HW280769  11.862   5.950   3.780
92958SOL     OW80770   1.377   7.622   8.853
92958SOL    HW180771   1.393   7.660   8.939
92958SOL    HW280772   1.294   7.576   8.862
92959SOL     OW80773  10.283   2.452  10.919
92959SOL    HW180774  10.284   2.369  10.968
92959SOL    HW280775  10.370   2.458  10.880
92960SOL     OW80776  11.734   0.979   0.695
92960SOL    HW180777  11.707   1.062   0.734
92960SOL    HW280778  11.794   0.941   0.759
92961SOL     OW80779   4.022   7.341   8.583
92961SOL    HW180780   3.929   7.351   8.564
92961SOL    HW280781   4.065   7.411   8.534
92962SOL     OW80782   4.843   8.123   4.689
92962SOL    HW180783   4.932   8.124   4.726
92962SOL    HW280784   4.829   8.032   4.663
92963SOL     OW80785   3.125   9.946  13.736
92963SOL    HW180786   3.101   9.874  13.795
92963SOL    HW280787   3.189   9.907  13.676
92964SOL     OW80788   4.787   9.672   2.986
92964SOL    HW180789   4.724   9.631   2.927
92964SOL    HW280790   4.858   9.609   2.993
92965SOL     OW80791   2.096   2.880   4.435
92965SOL    HW180792   2.128   2.796   4.465
92965SOL    HW280793   2.174   2.926   4.404
92966SOL     OW80794   1.300   3.997  12.152
92966SOL    HW180795   1.382   4.010  12.200
92966SOL    HW280796   1.309   3.910  12.112
92967SOL     OW80797   5.349   1.438   5.502
92967SOL    HW180798   5.308   1.371   5.447
92967SOL    HW280799   5.330   1.521   5.458
92968SOL     OW80800   6.050  13.987   1.967
92968SOL    HW180801   6.017  13.982   2.057
92968SOL    HW280802   6.013  14.068   1.932
92969SOL     OW80803  13.923  14.313  11.998
92969SOL    HW180804  13.961  14.388  12.045
92969SOL    HW280805  13.991  14.245  12.003
92970SOL     OW80806  14.617   6.562   2.959
92970SOL    HW180807  14.575   6.538   2.876
92970SOL    HW280808  14.682   6.493   2.973
92971SOL     OW80809   9.357  14.795   1.806
92971SOL    HW180810   9.411  14.860   1.761
92971SOL    HW280811   9.405  14.713   1.796
92972SOL     OW80812   8.225   1.555  14.219
92972SOL    HW180813   8.247   1.492  14.288
92972SOL    HW280814   8.289   1.537  14.149
92973SOL     OW80815   9.792   8.202   1.857
92973SOL    HW180816   9.697   8.211   1.868
92973SOL    HW280817   9.826   8.206   1.946
92974SOL     OW80818  13.926   3.044   0.002
92974SOL    HW180819  13.875   3.112  14.833
92974SOL    HW280820  14.013   3.082   0.012
92975SOL     OW80821   2.863  11.573   4.660
92975SOL    HW180822   2.890  11.644   4.719
92975SOL    HW280823   2.833  11.618   4.581
92976SOL     OW80824   7.277  11.423  12.755
92976SOL    HW180825   7.322  11.476  12.821
92976SOL    HW280826   7.186  11.451  12.759
92977SOL     OW80827   7.799  11.917   9.966
92977SOL    HW180828   7.770  11.827   9.978
92977SOL    HW280829   7.806  11.953  10.054
92978SOL     OW80830   7.555   3.368  14.086
92978SOL    HW180831   7.565   3.335  13.997
92978SOL    HW280832   7.511   3.452  14.075
92979SOL     OW80833  12.294   1.783  12.360
92979SOL    HW180834  12.378   1.821  12.335
92979SOL    HW280835  12.301   1.691  12.337
92980SOL     OW80836   9.408  12.293   9.377
92980SOL    HW180837   9.360  12.290   9.294
92980SOL    HW280838   9.450  12.379   9.377
92981SOL     OW80839   1.578  14.380   6.053
92981SOL    HW180840   1.624  14.371   6.136
92981SOL    HW280841   1.578  14.475   6.036
92982SOL     OW80842   8.147   9.374   4.033
92982SOL    HW180843   8.192   9.429   4.096
92982SOL    HW280844   8.116   9.434   3.965
92983SOL     OW80845  14.807  10.018   9.650
92983SOL    HW180846  14.874  10.077   9.616
92983SOL    HW280847  14.777  10.060   9.731
92984SOL     OW80848  14.783  14.785   9.100
92984SOL    HW180849  14.873  14.816   9.110
92984SOL    HW280850  14.762  14.744   9.184
92985SOL     OW80851  11.255   5.133   1.953
92985SOL    HW180852  11.298   5.057   1.993
92985SOL    HW280853  11.297   5.142   1.867
92986SOL     OW80854  13.078   1.067   8.328
92986SOL    HW180855  13.096   1.128   8.398
92986SOL    HW280856  13.086   0.980   8.368
92987SOL     OW80857  12.320   8.012   2.169
92987SOL    HW180858  12.251   8.014   2.236
92987SOL    HW280859  12.397   8.050   2.213
92988SOL     OW80860   1.244   6.313   8.252
92988SOL    HW180861   1.318   6.321   8.193
92988SOL    HW280862   1.169   6.343   8.201
92989SOL     OW80863   1.425   8.750   6.194
92989SOL    HW180864   1.476   8.712   6.122
92989SOL    HW280865   1.354   8.687   6.209
92990SOL     OW80866   2.015   6.117   4.223
92990SOL    HW180867   2.011   6.118   4.127
92990SOL    HW280868   1.939   6.167   4.251
92991SOL     OW80869  13.735   5.032   8.330
92991SOL    HW180870  13.655   5.000   8.288
92991SOL    HW280871  13.758   4.962   8.392
92992SOL     OW80872   0.142   3.158   7.977
92992SOL    HW180873   0.083   3.153   8.052
92992SOL    HW280874   0.229   3.146   8.015
92993SOL     OW80875  12.760   4.935   5.309
92993SOL    HW180876  12.762   4.988   5.389
92993SOL    HW280877  12.819   4.862   5.327
92994SOL     OW80878   5.912   9.770   8.643
92994SOL    HW180879   5.933   9.688   8.599
92994SOL    HW280880   5.981   9.780   8.708
92995SOL     OW80881   6.063   0.253  12.682
92995SOL    HW180882   6.134   0.299  12.727
92995SOL    HW280883   6.088   0.253  12.590
92996SOL     OW80884   9.716   4.373  11.207
92996SOL    HW180885   9.726   4.426  11.286
92996SOL    HW280886   9.691   4.436  11.139
92997SOL     OW80887   4.769  10.112   9.511
92997SOL    HW180888   4.677  10.092   9.494
92997SOL    HW280889   4.767  10.188   9.568
92998SOL     OW80890  14.855   9.050   5.009
92998SOL    HW180891  14.812   9.006   5.082
92998SOL    HW280892  14.784   9.094   4.963
92999SOL     OW80893   7.223   4.297   6.787
92999SOL    HW180894   7.276   4.265   6.715
92999SOL    HW280895   7.279   4.359   6.833
93000SOL     OW80896   1.270   7.380  12.389
93000SOL    HW180897   1.256   7.287  12.403
93000SOL    HW280898   1.221   7.400  12.309
93001SOL     OW80899   9.614  14.711   4.071
93001SOL    HW180900   9.571  14.659   4.004
93001SOL    HW280901   9.557  14.787   4.083
93002SOL     OW80902  12.876   4.087   1.476
93002SOL    HW180903  12.807   4.026   1.499
93002SOL    HW280904  12.885   4.079   1.381
93003SOL     OW80905   4.382   1.056   4.440
93003SOL    HW180906   4.424   1.120   4.383
93003SOL    HW280907   4.407   0.971   4.403
93004SOL     OW80908  11.150  14.716   2.112
93004SOL    HW180909  11.164  14.783   2.044
93004SOL    HW280910  11.182  14.757   2.192
93005SOL     OW80911  13.429   2.301   5.969
93005SOL    HW180912  13.355   2.332   6.022
93005SOL    HW280913  13.400   2.310   5.879
93006SOL     OW80914   5.128  14.424   1.068
93006SOL    HW180915   5.064  14.493   1.087
93006SOL    HW280916   5.110  14.399   0.978
93007SOL     OW80917  10.688  10.059   7.445
93007SOL    HW180918  10.642  10.125   7.497
93007SOL    HW280919  10.774  10.052   7.487
93008SOL     OW80920   6.483   2.140   1.385
93008SOL    HW180921   6.515   2.052   1.406
93008SOL    HW280922   6.424   2.162   1.457
93009SOL     OW80923   0.052  11.675   0.376
93009SOL    HW180924   0.140  11.707   0.359
93009SOL    HW280925   0.065  11.591   0.420
93010SOL     OW80926   0.256   7.360   6.912
93010SOL    HW180927   0.204   7.289   6.950
93010SOL    HW280928   0.214   7.440   6.944
93011SOL     OW80929   5.977   3.984   7.804
93011SOL    HW180930   5.893   3.973   7.760
93011SOL    HW280931   6.004   3.895   7.826
93012SOL     OW80932   0.766   8.834  14.708
93012SOL    HW180933   0.764   8.927  14.732
93012SOL    HW280934   0.782   8.834  14.614
93013SOL     OW80935   1.929  14.363   0.756
93013SOL    HW180936   1.976  14.301   0.812
93013SOL    HW280937   1.997  14.418   0.719
93014SOL     OW80938   9.913   4.170   9.667
93014SOL    HW180939   9.923   4.237   9.735
93014SOL    HW280940   9.875   4.217   9.593
93015SOL     OW80941   8.355   3.353   1.389
93015SOL    HW180942   8.263   3.363   1.363
93015SOL    HW280943   8.372   3.259   1.379
93016SOL     OW80944  10.640  11.814  11.473
93016SOL    HW180945  10.674  11.771  11.395
93016SOL    HW280946  10.556  11.770  11.490
93017SOL     OW80947   1.525   7.570  12.785
93017SOL    HW180948   1.507   7.574  12.691
93017SOL    HW280949   1.606   7.519  12.791
93018SOL     OW80950   7.577   7.220   9.077
93018SOL    HW180951   7.664   7.220   9.119
93018SOL    HW280952   7.546   7.310   9.088
93019SOL     OW80953   1.624   7.514  10.853
93019SOL    HW180954   1.641   7.426  10.821
93019SOL    HW280955   1.706   7.541  10.894
93020SOL     OW80956   3.567   7.565  10.482
93020SOL    HW180957   3.492   7.517  10.446
93020SOL    HW280958   3.554   7.561  10.577
93021SOL     OW80959   1.651  10.772   0.848
93021SOL    HW180960   1.690  10.859   0.836
93021SOL    HW280961   1.559  10.790   0.867
93022SOL     OW80962   7.347   1.151   9.144
93022SOL    HW180963   7.335   1.178   9.235
93022SOL    HW280964   7.265   1.105   9.122
93023SOL     OW80965   9.959   8.407   5.993
93023SOL    HW180966  10.036   8.386   6.045
93023SOL    HW280967   9.978   8.492   5.953
93024SOL     OW80968  11.998  11.817   7.968
93024SOL    HW180969  11.965  11.744   7.915
93024SOL    HW280970  12.004  11.890   7.907
93025SOL     OW80971  14.201  14.248  11.910
93025SOL    HW180972  14.267  14.204  11.857
93025SOL    HW280973  14.214  14.215  11.998
93026SOL     OW80974   9.598   9.436   0.680
93026SOL    HW180975   9.589   9.510   0.741
93026SOL    HW280976   9.664   9.464   0.617
93027SOL     OW80977   9.230   2.196   2.297
93027SOL    HW180978   9.141   2.219   2.272
93027SOL    HW280979   9.220   2.147   2.379
93028SOL     OW80980  11.955  14.834  13.192
93028SOL    HW180981  12.028   0.010  13.155
93028SOL    HW280982  11.968  14.841  13.287
93029SOL     OW80983   6.711   9.802   6.203
93029SOL    HW180984   6.660   9.821   6.282
93029SOL    HW280985   6.789   9.858   6.212
93030SOL     OW80986   6.946   8.090   3.008
93030SOL    HW180987   6.860   8.126   3.030
93030SOL    HW280988   6.928   8.014   2.953
93031SOL     OW80989  10.164   8.543  10.147
93031SOL    HW180990  10.116   8.537  10.064
93031SOL    HW280991  10.160   8.635  10.170
93032SOL     OW80992  10.366   0.525   6.795
93032SOL    HW180993  10.411   0.578   6.861
93032SOL    HW280994  10.280   0.565   6.786
93033SOL     OW80995   1.460   8.463   3.820
93033SOL    HW180996   1.517   8.530   3.782
93033SOL    HW280997   1.505   8.381   3.803
93034SOL     OW80998   2.373  12.350   7.448
93034SOL    HW180999   2.367  12.337   7.353
93034SOL    HW281000   2.359  12.262   7.485
93035SOL     OW81001   8.641   9.198   4.652
93035SOL    HW181002   8.670   9.148   4.728
93035SOL    HW281003   8.577   9.141   4.609
93036SOL     OW81004   9.161   9.182  11.432
93036SOL    HW181005   9.083   9.230  11.401
93036SOL    HW281006   9.130   9.092  11.444
93037SOL     OW81007   9.170   7.174  12.400
93037SOL    HW181008   9.097   7.225  12.433
93037SOL    HW281009   9.159   7.175  12.304
93038SOL     OW81010   6.145   9.017  10.815
93038SOL    HW181011   6.093   8.968  10.878
93038SOL    HW281012   6.193   9.081  10.867
93039SOL     OW81013   0.530   6.751   1.438
93039SOL    HW181014   0.551   6.785   1.351
93039SOL    HW281015   0.539   6.656   1.431
93040SOL     OW81016   6.028  13.420   0.911
93040SOL    HW181017   6.014  13.372   0.992
93040SOL    HW281018   6.123  13.435   0.908
93041SOL     OW81019   9.677   6.347   1.388
93041SOL    HW181020   9.627   6.286   1.442
93041SOL    HW281021   9.755   6.367   1.441
93042SOL     OW81022   1.858  12.939   7.028
93042SOL    HW181023   1.771  12.977   7.040
93042SOL    HW281024   1.852  12.852   7.069
93043SOL     OW81025   7.808   0.618  13.914
93043SOL    HW181026   7.713   0.605  13.908
93043SOL    HW281027   7.836   0.631  13.824
93044SOL     OW81028   3.035   2.361   5.995
93044SOL    HW181029   3.081   2.331   6.074
93044SOL    HW281030   2.957   2.306   5.991
93045SOL     OW81031   2.939   3.903   2.443
93045SOL    HW181032   2.965   3.814   2.420
93045SOL    HW281033   2.963   3.955   2.367
93046SOL     OW81034   5.684  10.817   2.752
93046SOL    HW181035   5.608  10.874   2.747
93046SOL    HW281036   5.752  10.872   2.791
93047SOL     OW81037   4.940   7.395  14.480
93047SOL    HW181038   4.909   7.308  14.506
93047SOL    HW281039   4.925   7.398  14.385
93048SOL     OW81040   3.374   8.668   2.792
93048SOL    HW181041   3.381   8.728   2.718
93048SOL    HW281042   3.370   8.581   2.752
93049SOL     OW81043   3.063  10.419   4.554
93049SOL    HW181044   3.122  10.352   4.586
93049SOL    HW281045   3.099  10.446   4.470
93050SOL     OW81046  11.376   3.116   2.660
93050SOL    HW181047  11.366   3.160   2.576
93050SOL    HW281048  11.392   3.186   2.723
93051SOL     OW81049   5.496   1.967   7.743
93051SOL    HW181050   5.433   1.937   7.809
93051SOL    HW281051   5.570   1.907   7.752
93052SOL     OW81052   6.354   0.038   0.584
93052SOL    HW181053   6.345   0.055   0.677
93052SOL    HW281054   6.321   0.117   0.541
93053SOL     OW81055   0.304   3.217   4.077
93053SOL    HW181056   0.358   3.287   4.116
93053SOL    HW281057   0.358   3.182   4.007
93054SOL     OW81058  10.399  11.701   7.457
93054SOL    HW181059  10.388  11.742   7.543
93054SOL    HW281060  10.398  11.607   7.475
93055SOL     OW81061  12.947  12.585  13.056
93055SOL    HW181062  13.040  12.572  13.072
93055SOL    HW281063  12.924  12.661  13.108
93056SOL     OW81064   9.130  11.635   5.281
93056SOL    HW181065   9.181  11.607   5.205
93056SOL    HW281066   9.194  11.639   5.353
93057SOL     OW81067   5.415   9.871   6.041
93057SOL    HW181068   5.483   9.927   6.078
93057SOL    HW281069   5.357   9.851   6.114
93058SOL     OW81070   9.473  12.278   1.580
93058SOL    HW181071   9.497  12.357   1.629
93058SOL    HW281072   9.557  12.243   1.550
93059SOL     OW81073   3.046  14.050  10.102
93059SOL    HW181074   2.999  14.019  10.025
93059SOL    HW281075   3.123  13.994  10.108
93060SOL     OW81076  14.480   1.637   8.871
93060SOL    HW181077  14.547   1.581   8.832
93060SOL    HW281078  14.399   1.611   8.828
93061SOL     OW81079   4.669  14.146   0.481
93061SOL    HW181080   4.604  14.076   0.487
93061SOL    HW281081   4.618  14.225   0.460
93062SOL     OW81082  12.825   0.881   0.644
93062SOL    HW181083  12.845   0.974   0.633
93062SOL    HW281084  12.768   0.878   0.720
93063SOL     OW81085   6.814  13.386  13.243
93063SOL    HW181086   6.855  13.463  13.203
93063SOL    HW281087   6.759  13.349  13.174
93064SOL     OW81088  11.885  10.744  11.682
93064SOL    HW181089  11.919  10.717  11.767
93064SOL    HW281090  11.921  10.832  11.669
93065SOL     OW81091   3.624  11.261  12.965
93065SOL    HW181092   3.717  11.263  12.941
93065SOL    HW281093   3.608  11.169  12.989
93066SOL     OW81094   1.697   9.927   0.405
93066SOL    HW181095   1.753   9.866   0.357
93066SOL    HW281096   1.631   9.872   0.445
93067SOL     OW81097   5.599  10.608   6.789
93067SOL    HW181098   5.534  10.652   6.843
93067SOL    HW281099   5.553  10.530   6.757
93068SOL     OW81100   4.432   3.704   6.672
93068SOL    HW181101   4.383   3.698   6.754
93068SOL    HW281102   4.364   3.710   6.604
93069SOL     OW81103   5.485   0.283   8.717
93069SOL    HW181104   5.452   0.312   8.632
93069SOL    HW281105   5.413   0.231   8.753
93070SOL     OW81106  12.953  11.195  13.557
93070SOL    HW181107  12.931  11.259  13.625
93070SOL    HW281108  12.995  11.248  13.489
93071SOL     OW81109   2.226   9.282  12.466
93071SOL    HW181110   2.160   9.316  12.526
93071SOL    HW281111   2.198   9.192  12.448
93072SOL     OW81112  10.465   6.672  13.109
93072SOL    HW181113  10.386   6.626  13.083
93072SOL    HW281114  10.535   6.630  13.059
93073SOL     OW81115   0.179   9.726   8.437
93073SOL    HW181116   0.219   9.651   8.393
93073SOL    HW281117   0.116   9.760   8.373
93074SOL     OW81118   5.223   0.530   0.729
93074SOL    HW181119   5.202   0.485   0.647
93074SOL    HW281120   5.139   0.538   0.774
93075SOL     OW81121   0.973   4.406   9.285
93075SOL    HW181122   1.027   4.349   9.229
93075SOL    HW281123   0.894   4.354   9.302
93076SOL     OW81124   1.972   9.321  14.029
93076SOL    HW181125   1.909   9.323  13.957
93076SOL    HW281126   1.995   9.413  14.043
93077SOL     OW81127  10.054   0.847   8.983
93077SOL    HW181128   9.991   0.811   8.921
93077SOL    HW281129  10.137   0.845   8.937
93078SOL     OW81130   6.476  13.730   3.390
93078SOL    HW181131   6.437  13.667   3.330
93078SOL    HW281132   6.520  13.794   3.334
93079SOL     OW81133  11.586   5.917   4.539
93079SOL    HW181134  11.652   5.916   4.608
93079SOL    HW281135  11.564   6.010   4.530
93080SOL     OW81136   3.839  11.065   8.357
93080SOL    HW181137   3.924  11.054   8.399
93080SOL    HW281138   3.841  11.155   8.323
93081SOL     OW81139   5.121   7.075   4.780
93081SOL    HW181140   5.113   7.059   4.874
93081SOL    HW281141   5.097   6.992   4.739
93082SOL     OW81142  12.762  12.209   8.406
93082SOL    HW181143  12.736  12.281   8.349
93082SOL    HW281144  12.787  12.252   8.488
93083SOL     OW81145   1.115   7.112   7.130
93083SOL    HW181146   1.074   7.185   7.085
93083SOL    HW281147   1.121   7.140   7.221
93084SOL     OW81148   0.469  12.734   7.505
93084SOL    HW181149   0.377  12.757   7.491
93084SOL    HW281150   0.513  12.758   7.423
93085SOL     OW81151  10.625  13.580  12.863
93085SOL    HW181152  10.622  13.524  12.786
93085SOL    HW281153  10.535  13.577  12.898
93086SOL     OW81154   2.125  10.100  13.313
93086SOL    HW181155   2.034  10.092  13.341
93086SOL    HW281156   2.120  10.125  13.221
93087SOL     OW81157  13.733  13.181   8.316
93087SOL    HW181158  13.750  13.234   8.238
93087SOL    HW281159  13.799  13.209   8.379
93088SOL     OW81160   7.687   3.562   1.513
93088SOL    HW181161   7.646   3.476   1.505
93088SOL    HW281162   7.714   3.583   1.423
93089SOL     OW81163   8.296  13.178  12.919
93089SOL    HW181164   8.345  13.156  12.998
93089SOL    HW281165   8.204  13.167  12.944
93090SOL     OW81166   3.851   2.666   4.135
93090SOL    HW181167   3.801   2.748   4.130
93090SOL    HW281168   3.935   2.691   4.171
93091SOL     OW81169   0.822   7.529   4.356
93091SOL    HW181170   0.838   7.490   4.270
93091SOL    HW281171   0.845   7.460   4.419
93092SOL     OW81172   2.743  10.267   0.470
93092SOL    HW181173   2.664  10.213   0.460
93092SOL    HW281174   2.814  10.204   0.476
93093SOL     OW81175  14.343   0.807  13.916
93093SOL    HW181176  14.415   0.744  13.924
93093SOL    HW281177  14.336   0.824  13.822
93094SOL     OW81178   3.554  12.189   6.946
93094SOL    HW181179   3.518  12.119   6.892
93094SOL    HW281180   3.579  12.146   7.028
93095SOL     OW81181   1.617  14.709  12.263
93095SOL    HW181182   1.556  14.670  12.201
93095SOL    HW281183   1.599  14.803  12.259
93096SOL     OW81184   1.400   2.248   1.303
93096SOL    HW181185   1.413   2.165   1.349
93096SOL    HW281186   1.333   2.294   1.353
93097SOL     OW81187   3.933   1.339   1.723
93097SOL    HW181188   3.957   1.251   1.694
93097SOL    HW281189   4.012   1.391   1.711
93098SOL     OW81190  11.361  12.557  11.264
93098SOL    HW181191  11.357  12.509  11.181
93098SOL    HW281192  11.319  12.500  11.328
93099SOL     OW81193   8.294   9.854   5.052
93099SOL    HW181194   8.261   9.777   5.099
93099SOL    HW281195   8.287   9.926   5.114
93100SOL     OW81196   2.912   0.540  13.966
93100SOL    HW181197   2.851   0.604  13.929
93100SOL    HW281198   2.945   0.582  14.046
93101SOL     OW81199  10.110   9.457  11.631
93101SOL    HW181200  10.111   9.387  11.566
93101SOL    HW281201  10.191   9.446  11.680
93102SOL     OW81202  14.805  13.995  12.235
93102SOL    HW181203  14.723  13.947  12.231
93102SOL    HW281204  14.783  14.077  12.280
93103SOL     OW81205  11.956  13.584  13.677
93103SOL    HW181206  11.995  13.586  13.764
93103SOL    HW281207  11.955  13.675  13.649
93104SOL     OW81208   7.084   0.959   1.006
93104SOL    HW181209   7.165   0.943   1.055
93104SOL    HW281210   7.017   0.910   1.055
93105SOL     OW81211   1.407   0.922   9.956
93105SOL    HW181212   1.462   0.846   9.939
93105SOL    HW281213   1.399   0.966   9.871
93106SOL     OW81214  12.055  10.156  14.235
93106SOL    HW181215  12.042  10.118  14.148
93106SOL    HW281216  12.010  10.096  14.294
93107SOL     OW81217  10.971   6.907  13.181
93107SOL    HW181218  10.943   6.818  13.204
93107SOL    HW281219  10.892   6.961  13.194
93108SOL     OW81220  10.575   1.531   6.965
93108SOL    HW181221  10.666   1.506   6.948
93108SOL    HW281222  10.565   1.524   7.060
93109SOL     OW81223  10.874   2.748   5.596
93109SOL    HW181224  10.826   2.676   5.637
93109SOL    HW281225  10.936   2.704   5.537
93110SOL     OW81226   4.309   5.785   5.818
93110SOL    HW181227   4.307   5.813   5.727
93110SOL    HW281228   4.336   5.693   5.814
93111SOL     OW81229   2.822   8.384  12.623
93111SOL    HW181230   2.853   8.294  12.631
93111SOL    HW281231   2.881   8.423  12.558
93112SOL     OW81232   5.183   5.870   9.162
93112SOL    HW181233   5.094   5.835   9.155
93112SOL    HW281234   5.231   5.804   9.211
93113SOL     OW81235   5.050   9.019  11.243
93113SOL    HW181236   5.069   9.062  11.327
93113SOL    HW281237   4.954   9.011  11.242
93114SOL     OW81238  14.056   0.839   3.548
93114SOL    HW181239  14.076   0.859   3.639
93114SOL    HW281240  14.119   0.891   3.498
93115SOL     OW81241  14.091   5.079  12.143
93115SOL    HW181242  14.175   5.095  12.099
93115SOL    HW281243  14.112   5.088  12.236
93116SOL     OW81244   9.090   1.494   2.544
93116SOL    HW181245   9.184   1.502   2.526
93116SOL    HW281246   9.058   1.584   2.543
93117SOL     OW81247   5.278   2.471   8.307
93117SOL    HW181248   5.304   2.536   8.373
93117SOL    HW281249   5.347   2.404   8.312
93118SOL     OW81250  13.697   0.900   8.434
93118SOL    HW181251  13.635   0.964   8.469
93118SOL    HW281252  13.770   0.953   8.401
93119SOL     OW81253   1.658   7.317  10.017
93119SOL    HW181254   1.659   7.393  10.075
93119SOL    HW281255   1.579   7.328   9.964
93120SOL     OW81256  11.176   4.895   0.019
93120SOL    HW181257  11.116   4.866  14.825
93120SOL    HW281258  11.212   4.978  14.861
93121SOL     OW81259   3.143   4.512   7.134
93121SOL    HW181260   3.167   4.504   7.041
93121SOL    HW281261   3.197   4.446   7.178
93122SOL     OW81262   5.824   3.306   5.825
93122SOL    HW181263   5.863   3.227   5.863
93122SOL    HW281264   5.776   3.275   5.749
93123SOL     OW81265   8.816  11.581   3.787
93123SOL    HW181266   8.822  11.621   3.874
93123SOL    HW281267   8.900  11.600   3.746
93124SOL     OW81268  14.537  10.061   7.837
93124SOL    HW181269  14.559  10.151   7.859
93124SOL    HW281270  14.453  10.045   7.880
93125SOL     OW81271   3.321  11.665  13.926
93125SOL    HW181272   3.341  11.575  13.902
93125SOL    HW281273   3.225  11.667  13.932
93126SOL     OW81274  12.601   6.624   2.835
93126SOL    HW181275  12.599   6.548   2.893
93126SOL    HW281276  12.688   6.621   2.795
93127SOL     OW81277   8.092   7.291  11.432
93127SOL    HW181278   8.107   7.212  11.484
93127SOL    HW281279   8.021   7.267  11.372
93128SOL     OW81280  11.680   3.811   2.386
93128SOL    HW181281  11.646   3.849   2.305
93128SOL    HW281282  11.735   3.739   2.358
93129SOL     OW81283   4.441  13.086  12.232
93129SOL    HW181284   4.382  13.052  12.300
93129SOL    HW281285   4.438  13.181  12.244
93130SOL     OW81286   0.054  10.805   2.766
93130SOL    HW181287   0.020  10.719   2.793
93130SOL    HW281288   0.048  10.804   2.671
93131SOL     OW81289   9.536   7.344  12.124
93131SOL    HW181290   9.454   7.393  12.131
93131SOL    HW281291   9.601   7.410  12.098
93132SOL     OW81292   1.529   8.328   1.380
93132SOL    HW181293   1.439   8.346   1.350
93132SOL    HW281294   1.533   8.367   1.467
93133SOL     OW81295  14.103   5.648  13.746
93133SOL    HW181296  14.071   5.735  13.770
93133SOL    HW281297  14.113   5.603  13.830
93134SOL     OW81298  13.911   4.787   4.300
93134SOL    HW181299  13.835   4.757   4.251
93134SOL    HW281300  13.977   4.719   4.287
93135SOL     OW81301   5.866   3.630  14.648
93135SOL    HW181302   5.823   3.647  14.731
93135SOL    HW281303   5.955   3.664  14.659
93136SOL     OW81304   4.344  13.305   5.219
93136SOL    HW181305   4.264  13.274   5.262
93136SOL    HW281306   4.399  13.227   5.213
93137SOL     OW81307   9.729   9.835   4.345
93137SOL    HW181308   9.799   9.845   4.281
93137SOL    HW281309   9.722   9.921   4.386
93138SOL     OW81310  10.869  12.925   5.903
93138SOL    HW181311  10.951  12.939   5.855
93138SOL    HW281312  10.820  12.864   5.849
93139SOL     OW81313   5.733  12.734   9.383
93139SOL    HW181314   5.732  12.764   9.292
93139SOL    HW281315   5.715  12.640   9.378
93140SOL     OW81316   6.296   5.041   4.651
93140SOL    HW181317   6.257   5.128   4.640
93140SOL    HW281318   6.224   4.986   4.683
93141SOL     OW81319   8.865   2.954   4.045
93141SOL    HW181320   8.907   2.969   3.960
93141SOL    HW281321   8.935   2.920   4.100
93142SOL     OW81322   2.671   8.855   1.472
93142SOL    HW181323   2.701   8.778   1.521
93142SOL    HW281324   2.585   8.831   1.438
93143SOL     OW81325   6.611   0.460  14.642
93143SOL    HW181326   6.705   0.452  14.628
93143SOL    HW281327   6.577   0.499  14.562
93144SOL     OW81328  14.418   0.798   3.385
93144SOL    HW181329  14.464   0.765   3.462
93144SOL    HW281330  14.478   0.781   3.312
93145SOL     OW81331  13.637   3.574  14.106
93145SOL    HW181332  13.691   3.513  14.156
93145SOL    HW281333  13.696   3.643  14.079
93146SOL     OW81334   7.266   0.216   9.136
93146SOL    HW181335   7.249   0.191   9.227
93146SOL    HW281336   7.291   0.308   9.141
93147SOL     OW81337  13.827   5.033   9.201
93147SOL    HW181338  13.897   5.032   9.136
93147SOL    HW281339  13.869   5.064   9.282
93148SOL     OW81340   5.642   2.188   7.147
93148SOL    HW181341   5.578   2.256   7.124
93148SOL    HW281342   5.591   2.107   7.149
93149SOL     OW81343   1.117   9.668  14.478
93149SOL    HW181344   1.063   9.671  14.556
93149SOL    HW281345   1.056   9.650  14.407
93150SOL     OW81346   2.204  11.293   2.440
93150SOL    HW181347   2.216  11.204   2.408
93150SOL    HW281348   2.110  11.300   2.457
93151SOL     OW81349  13.306   3.804  10.089
93151SOL    HW181350  13.314   3.709  10.096
93151SOL    HW281351  13.232   3.827  10.145
93152SOL     OW81352   1.072   7.484  13.837
93152SOL    HW181353   0.990   7.454  13.798
93152SOL    HW281354   1.079   7.576  13.812
93153SOL     OW81355  12.568   3.945   9.227
93153SOL    HW181356  12.551   3.864   9.179
93153SOL    HW281357  12.613   3.917   9.307
93154SOL     OW81358   4.365   4.322   6.769
93154SOL    HW181359   4.374   4.241   6.820
93154SOL    HW281360   4.442   4.374   6.794
93155SOL     OW81361   1.560   9.130   8.742
93155SOL    HW181362   1.568   9.224   8.754
93155SOL    HW281363   1.597   9.113   8.655
93156SOL     OW81364   7.470   4.966   9.894
93156SOL    HW181365   7.502   4.993   9.980
93156SOL    HW281366   7.376   4.980   9.898
93157SOL     OW81367  10.067   2.430   2.711
93157SOL    HW181368  10.094   2.389   2.793
93157SOL    HW281369  10.032   2.358   2.658
93158SOL     OW81370   7.361   2.933   7.716
93158SOL    HW181371   7.441   2.924   7.767
93158SOL    HW281372   7.387   2.912   7.627
93159SOL     OW81373   7.109   5.474   0.392
93159SOL    HW181374   7.150   5.436   0.315
93159SOL    HW281375   7.163   5.444   0.465
93160SOL     OW81376   6.777   3.265   3.378
93160SOL    HW181377   6.729   3.215   3.444
93160SOL    HW281378   6.866   3.272   3.412
93161SOL     OW81379  13.673   1.046  10.373
93161SOL    HW181380  13.588   1.018  10.340
93161SOL    HW281381  13.693   1.126  10.325
93162SOL     OW81382   0.305   6.618  14.459
93162SOL    HW181383   0.386   6.637  14.506
93162SOL    HW281384   0.266   6.545  14.507
93163SOL     OW81385  13.863  13.302   3.313
93163SOL    HW181386  13.867  13.327   3.221
93163SOL    HW281387  13.923  13.363   3.357
93164SOL     OW81388  13.278   9.703   8.433
93164SOL    HW181389  13.211   9.729   8.371
93164SOL    HW281390  13.341   9.775   8.432
93165SOL     OW81391   5.671   0.159  10.748
93165SOL    HW181392   5.593   0.178  10.800
93165SOL    HW281393   5.640   0.153  10.658
93166SOL     OW81394   9.703   7.196   6.175
93166SOL    HW181395   9.690   7.101   6.172
93166SOL    HW281396   9.624   7.229   6.217
93167SOL     OW81397   4.537  11.717  11.732
93167SOL    HW181398   4.605  11.716  11.800
93167SOL    HW281399   4.567  11.653  11.668
93168SOL     OW81400  14.426   5.270   2.119
93168SOL    HW181401  14.408   5.209   2.190
93168SOL    HW281402  14.415   5.356   2.158
93169SOL     OW81403   9.938  12.755   7.001
93169SOL    HW181404  10.026  12.790   7.017
93169SOL    HW281405   9.879  12.823   7.031
93170SOL     OW81406   9.118  10.040   5.251
93170SOL    HW181407   9.156  10.013   5.335
93170SOL    HW281408   9.098   9.958   5.206
93171SOL     OW81409   5.287  11.965   2.811
93171SOL    HW181410   5.367  11.949   2.762
93171SOL    HW281411   5.251  11.878   2.827
93172SOL     OW81412   7.972  11.171   2.000
93172SOL    HW181413   8.010  11.242   1.949
93172SOL    HW281414   7.916  11.124   1.939
93173SOL     OW81415   1.182   5.803   6.541
93173SOL    HW181416   1.089   5.781   6.546
93173SOL    HW281417   1.221   5.756   6.615
93174SOL     OW81418  12.565  13.442   9.764
93174SOL    HW181419  12.491  13.404   9.811
93174SOL    HW281420  12.642  13.393   9.795
93175SOL     OW81421   3.043   9.773   3.799
93175SOL    HW181422   3.005   9.716   3.731
93175SOL    HW281423   2.968   9.817   3.838
93176SOL     OW81424   7.901   3.899  11.848
93176SOL    HW181425   7.924   3.948  11.769
93176SOL    HW281426   7.983   3.892  11.897
93177SOL     OW81427   4.159   0.551  13.678
93177SOL    HW181428   4.212   0.611  13.730
93177SOL    HW281429   4.191   0.562  13.588
93178SOL     OW81430  10.704   3.379  10.070
93178SOL    HW181431  10.751   3.456  10.103
93178SOL    HW281432  10.621   3.380  10.118
93179SOL     OW81433   9.045   6.436  14.866
93179SOL    HW181434   9.034   6.341  14.861
93179SOL    HW281435   9.036   6.456   0.085
93180SOL     OW81436   5.917   3.998  13.922
93180SOL    HW181437   5.966   4.052  13.860
93180SOL    HW281438   5.958   4.015  14.006
93181SOL     OW81439   2.532  13.389   5.184
93181SOL    HW181440   2.455  13.349   5.142
93181SOL    HW281441   2.569  13.319   5.238
93182SOL     OW81442   5.724  14.281   4.696
93182SOL    HW181443   5.754  14.257   4.609
93182SOL    HW281444   5.783  14.351   4.723
93183SOL     OW81445   1.797  10.268   5.190
93183SOL    HW181446   1.865  10.254   5.124
93183SOL    HW281447   1.759  10.181   5.204
93184SOL     OW81448   2.125   3.321   0.341
93184SOL    HW181449   2.202   3.265   0.349
93184SOL    HW281450   2.115   3.361   0.428
93185SOL     OW81451  13.882   7.177   4.726
93185SOL    HW181452  13.817   7.149   4.662
93185SOL    HW281453  13.947   7.225   4.674
93186SOL     OW81454  14.588  10.172   5.605
93186SOL    HW181455  14.606  10.194   5.696
93186SOL    HW281456  14.655  10.108   5.581
93187SOL     OW81457   2.830  12.786   9.834
93187SOL    HW181458   2.893  12.737   9.781
93187SOL    HW281459   2.746  12.772   9.790
93188SOL     OW81460   9.224   9.133   5.463
93188SOL    HW181461   9.170   9.200   5.504
93188SOL    HW281462   9.178   9.109   5.383
93189SOL     OW81463   6.931   1.984   6.483
93189SOL    HW181464   6.838   2.005   6.496
93189SOL    HW281465   6.978   2.060   6.518
93190SOL     OW81466  13.739   3.168  14.248
93190SOL    HW181467  13.716   3.169  14.155
93190SOL    HW281468  13.654   3.163  14.293
93191SOL     OW81469   4.693   2.168   7.328
93191SOL    HW181470   4.767   2.211   7.372
93191SOL    HW281471   4.734   2.109   7.264
93192SOL     OW81472   1.768   5.044   3.406
93192SOL    HW181473   1.804   5.128   3.375
93192SOL    HW281474   1.839   5.006   3.458
93193SOL     OW81475  13.496   9.825   7.442
93193SOL    HW181476  13.555   9.901   7.444
93193SOL    HW281477  13.548   9.756   7.401
93194SOL     OW81478   5.711   1.800   7.746
93194SOL    HW181479   5.806   1.808   7.731
93194SOL    HW281480   5.702   1.808   7.841
93195SOL     OW81481  11.357   0.810   8.090
93195SOL    HW181482  11.430   0.864   8.062
93195SOL    HW281483  11.395   0.724   8.105
93196SOL     OW81484   4.276   1.339   5.588
93196SOL    HW181485   4.354   1.364   5.638
93196SOL    HW281486   4.307   1.271   5.527
93197SOL     OW81487   8.880   7.136   0.870
93197SOL    HW181488   8.905   7.109   0.958
93197SOL    HW281489   8.888   7.056   0.818
93198SOL     OW81490   1.535   4.188   3.585
93198SOL    HW181491   1.565   4.195   3.676
93198SOL    HW281492   1.606   4.142   3.540
93199SOL     OW81493   8.610   2.232   1.569
93199SOL    HW181494   8.585   2.209   1.479
93199SOL    HW281495   8.538   2.198   1.623
93200SOL     OW81496   3.193  11.971   5.254
93200SOL    HW181497   3.251  12.043   5.275
93200SOL    HW281498   3.118  12.012   5.211
93201SOL     OW81499  12.027  12.312  11.648
93201SOL    HW181500  12.069  12.372  11.710
93201SOL    HW281501  12.010  12.233  11.700
93202SOL     OW81502   1.617   7.439   2.275
93202SOL    HW181503   1.681   7.380   2.316
93202SOL    HW281504   1.615   7.412   2.183
93203SOL     OW81505  10.739   9.378   5.835
93203SOL    HW181506  10.752   9.352   5.743
93203SOL    HW281507  10.823   9.417   5.860
93204SOL     OW81508  12.645  12.041   2.900
93204SOL    HW181509  12.728  12.003   2.926
93204SOL    HW281510  12.594  12.046   2.980
93205SOL     OW81511   6.218  10.758  12.999
93205SOL    HW181512   6.269  10.830  12.963
93205SOL    HW281513   6.206  10.697  12.926
93206SOL     OW81514   0.448   4.046  10.147
93206SOL    HW181515   0.444   4.129  10.100
93206SOL    HW281516   0.477   3.983  10.082
93207SOL     OW81517   2.805  10.031  13.977
93207SOL    HW181518   2.895  10.060  13.988
93207SOL    HW281519   2.796   9.955  14.035
93208SOL     OW81520   3.333   6.220   2.379
93208SOL    HW181521   3.414   6.216   2.430
93208SOL    HW281522   3.359   6.261   2.297
93209SOL     OW81523   2.289   2.474   5.868
93209SOL    HW181524   2.284   2.379   5.857
93209SOL    HW281525   2.228   2.509   5.803
93210SOL     OW81526   2.558   3.991   5.795
93210SOL    HW181527   2.646   3.960   5.816
93210SOL    HW281528   2.518   3.920   5.745
93211SOL     OW81529   6.153   2.135   5.372
93211SOL    HW181530   6.168   2.079   5.296
93211SOL    HW281531   6.158   2.224   5.337
93212SOL     OW81532   5.755   5.565   6.748
93212SOL    HW181533   5.810   5.547   6.825
93212SOL    HW281534   5.817   5.570   6.675
93213SOL     OW81535   0.236   4.017   9.908
93213SOL    HW181536   0.247   3.931   9.947
93213SOL    HW281537   0.321   4.060   9.918
93214SOL     OW81538  11.888   7.247   2.037
93214SOL    HW181539  11.929   7.235   2.123
93214SOL    HW281540  11.960   7.275   1.981
93215SOL     OW81541   2.133   7.884  13.341
93215SOL    HW181542   2.046   7.883  13.300
93215SOL    HW281543   2.126   7.950  13.410
93216SOL     OW81544  13.741   1.987  10.532
93216SOL    HW181545  13.784   2.001  10.448
93216SOL    HW281546  13.667   1.930  10.512
93217SOL     OW81547  14.390  11.643   8.235
93217SOL    HW181548  14.473  11.642   8.282
93217SOL    HW281549  14.415  11.640   8.142
93218SOL     OW81550   9.138  13.972   7.762
93218SOL    HW181551   9.063  14.019   7.726
93218SOL    HW281552   9.120  13.964   7.855
93219SOL     OW81553   0.942   6.908   1.792
93219SOL    HW181554   0.860   6.943   1.756
93219SOL    HW281555   0.922   6.817   1.812
93220SOL     OW81556   8.239  13.599  11.830
93220SOL    HW181557   8.216  13.521  11.779
93220SOL    HW281558   8.160  13.653  11.828
93221SOL     OW81559   4.992   4.631   6.385
93221SOL    HW181560   4.945   4.673   6.312
93221SOL    HW281561   4.970   4.538   6.377
93222SOL     OW81562   0.252   1.554   4.848
93222SOL    HW181563   0.161   1.536   4.870
93222SOL    HW281564   0.303   1.498   4.907
93223SOL     OW81565   4.768   4.730   3.618
93223SOL    HW181566   4.811   4.790   3.679
93223SOL    HW281567   4.800   4.644   3.644
93224SOL     OW81568   4.870  10.778  11.033
93224SOL    HW181569   4.873  10.697  11.084
93224SOL    HW281570   4.803  10.762  10.967
93225SOL     OW81571  10.272   2.049  12.710
93225SOL    HW181572  10.324   2.116  12.665
93225SOL    HW281573  10.192   2.042  12.658
93226SOL     OW81574   6.666   7.609   6.993
93226SOL    HW181575   6.689   7.691   6.948
93226SOL    HW281576   6.615   7.637   7.070
93227SOL     OW81577  11.154  14.777   4.767
93227SOL    HW181578  11.063  14.770   4.796
93227SOL    HW281579  11.183  14.862   4.799
93228SOL     OW81580   9.304  12.960   5.964
93228SOL    HW181581   9.272  12.926   5.881
93228SOL    HW281582   9.342  12.884   6.008
93229SOL     OW81583  12.514   5.957  13.819
93229SOL    HW181584  12.568   5.938  13.895
93229SOL    HW281585  12.455   6.027  13.848
93230SOL     OW81586   9.931   3.199   0.905
93230SOL    HW181587   9.880   3.150   0.970
93230SOL    HW281588   9.894   3.172   0.821
93231SOL     OW81589  14.542   7.983  11.626
93231SOL    HW181590  14.559   7.903  11.677
93231SOL    HW281591  14.478   7.956  11.560
93232SOL     OW81592  10.859   4.002   8.916
93232SOL    HW181593  10.865   4.036   8.827
93232SOL    HW281594  10.773   4.030   8.946
93233SOL     OW81595   9.661   4.568   7.503
93233SOL    HW181596   9.677   4.609   7.588
93233SOL    HW281597   9.682   4.636   7.439
93234SOL     OW81598  10.782  12.787   1.045
93234SOL    HW181599  10.871  12.822   1.046
93234SOL    HW281600  10.749  12.800   1.134
93235SOL     OW81601   9.221  12.818  14.636
93235SOL    HW181602   9.206  12.911  14.619
93235SOL    HW281603   9.147  12.791  14.690
93236SOL     OW81604   0.660   1.550   7.500
93236SOL    HW181605   0.623   1.518   7.583
93236SOL    HW281606   0.734   1.492   7.484
93237SOL     OW81607  13.771   7.107   2.702
93237SOL    HW181608  13.758   7.012   2.704
93237SOL    HW281609  13.852   7.119   2.652
93238SOL     OW81610   3.407  10.765   8.908
93238SOL    HW181611   3.418  10.843   8.962
93238SOL    HW281612   3.346  10.710   8.957
93239SOL     OW81613   0.961   3.254   1.040
93239SOL    HW181614   0.954   3.163   1.009
93239SOL    HW281615   0.911   3.305   0.976
93240SOL     OW81616   5.145   3.613   5.248
93240SOL    HW181617   5.180   3.582   5.332
93240SOL    HW281618   5.060   3.569   5.240
93241SOL     OW81619  10.247   2.508   1.670
93241SOL    HW181620  10.253   2.571   1.598
93241SOL    HW281621  10.329   2.519   1.719
93242SOL     OW81622   5.180   7.521   1.359
93242SOL    HW181623   5.274   7.541   1.368
93242SOL    HW281624   5.136   7.592   1.406
93243SOL     OW81625   2.433   6.818  13.059
93243SOL    HW181626   2.449   6.738  13.110
93243SOL    HW281627   2.452   6.889  13.120
93244SOL     OW81628   3.412   6.717   0.713
93244SOL    HW181629   3.381   6.635   0.752
93244SOL    HW281630   3.506   6.717   0.728
93245SOL     OW81631  10.677  11.720  12.539
93245SOL    HW181632  10.718  11.806  12.535
93245SOL    HW281633  10.747  11.662  12.571
93246SOL     OW81634   1.949  11.874   2.675
93246SOL    HW181635   1.903  11.914   2.749
93246SOL    HW281636   2.040  11.901   2.687
93247SOL     OW81637  10.974  13.453  10.324
93247SOL    HW181638  10.912  13.522  10.349
93247SOL    HW281639  10.973  13.455  10.228
93248SOL     OW81640   3.249   0.469   1.595
93248SOL    HW181641   3.342   0.492   1.589
93248SOL    HW281642   3.207   0.548   1.630
93249SOL     OW81643   9.852  11.885   0.986
93249SOL    HW181644   9.816  11.917   1.069
93249SOL    HW281645   9.842  11.790   0.991
93250SOL     OW81646  11.681   2.138   7.118
93250SOL    HW181647  11.658   2.204   7.184
93250SOL    HW281648  11.600   2.125   7.068
93251SOL     OW81649   6.174   5.421   6.747
93251SOL    HW181650   6.189   5.327   6.736
93251SOL    HW281651   6.163   5.453   6.657
93252SOL     OW81652   0.087   3.103   6.651
93252SOL    HW181653   0.106   3.020   6.608
93252SOL    HW281654   0.149   3.165   6.612
93253SOL     OW81655   2.045  10.702  14.613
93253SOL    HW181656   2.130  10.716  14.656
93253SOL    HW281657   1.985  10.683  14.685
93254SOL     OW81658   4.802   5.823   4.983
93254SOL    HW181659   4.802   5.879   5.060
93254SOL    HW281660   4.884   5.843   4.938
93255SOL     OW81661   5.588   7.150   0.137
93255SOL    HW181662   5.663   7.092   0.149
93255SOL    HW281663   5.523   7.096   0.092
93256SOL     OW81664   7.953   0.506  10.330
93256SOL    HW181665   7.913   0.557  10.400
93256SOL    HW281666   7.968   0.420  10.369
93257SOL     OW81667  12.302   7.606  14.614
93257SOL    HW181668  12.385   7.622  14.570
93257SOL    HW281669  12.240   7.665  14.571
93258SOL     OW81670   6.868   4.435   8.101
93258SOL    HW181671   6.916   4.362   8.062
93258SOL    HW281672   6.900   4.439   8.191
93259SOL     OW81673   1.890  11.222  12.316
93259SOL    HW181674   1.922  11.276  12.244
93259SOL    HW281675   1.843  11.150  12.273
93260SOL     OW81676   5.476  10.685   7.301
93260SOL    HW181677   5.550  10.735   7.335
93260SOL    HW281678   5.484  10.599   7.344
93261SOL     OW81679  12.890   6.093   0.957
93261SOL    HW181680  12.873   6.164   0.894
93261SOL    HW281681  12.959   6.041   0.916
93262SOL     OW81682   4.068  14.790  12.957
93262SOL    HW181683   4.045  14.748  12.874
93262SOL    HW281684   4.081  14.718  13.018
93263SOL     OW81685  10.760   6.359  10.526
93263SOL    HW181686  10.735   6.364  10.434
93263SOL    HW281687  10.850   6.391  10.529
93264SOL     OW81688   9.485   1.378   1.600
93264SOL    HW181689   9.389   1.369   1.605
93264SOL    HW281690   9.517   1.288   1.608
93265SOL     OW81691   7.836   0.453   6.688
93265SOL    HW181692   7.910   0.409   6.648
93265SOL    HW281693   7.856   0.546   6.679
93266SOL     OW81694  13.074  13.628  10.970
93266SOL    HW181695  13.137  13.649  10.901
93266SOL    HW281696  13.128  13.601  11.044
93267SOL     OW81697  12.512  12.780  12.823
93267SOL    HW181698  12.429  12.787  12.869
93267SOL    HW281699  12.574  12.750  12.889
93268SOL     OW81700  13.312  13.547  11.767
93268SOL    HW181701  13.327  13.481  11.699
93268SOL    HW281702  13.266  13.500  11.836
93269SOL     OW81703   8.383   8.162   6.312
93269SOL    HW181704   8.469   8.172   6.271
93269SOL    HW281705   8.383   8.074   6.348
93270SOL     OW81706   0.484   3.916   7.180
93270SOL    HW181707   0.401   3.885   7.216
93270SOL    HW281708   0.460   3.992   7.127
93271SOL     OW81709   4.393   1.957  11.304
93271SOL    HW181710   4.447   1.881  11.327
93271SOL    HW281711   4.454   2.031  11.307
93272SOL     OW81712  12.976   9.692   5.604
93272SOL    HW181713  13.040   9.746   5.558
93272SOL    HW281714  12.947   9.628   5.538
93273SOL     OW81715   1.262  14.476   5.959
93273SOL    HW181716   1.292  14.385   5.965
93273SOL    HW281717   1.304  14.510   5.880
93274SOL     OW81718   2.507   2.268  11.301
93274SOL    HW181719   2.544   2.354  11.315
93274SOL    HW281720   2.494   2.262  11.206
93275SOL     OW81721   3.409   2.771   7.326
93275SOL    HW181722   3.316   2.749   7.323
93275SOL    HW281723   3.412   2.865   7.307
93276SOL     OW81724   1.547   4.913   9.862
93276SOL    HW181725   1.607   4.987   9.874
93276SOL    HW281726   1.463   4.953   9.842
93277SOL     OW81727   5.506  14.844   3.741
93277SOL    HW181728   5.598  14.849   3.713
93277SOL    HW281729   5.490  14.751   3.755
93278SOL     OW81730  12.590  13.959  10.660
93278SOL    HW181731  12.633  13.939  10.576
93278SOL    HW281732  12.662  13.982  10.718
93279SOL     OW81733  10.623   8.483  10.355
93279SOL    HW181734  10.534   8.492  10.322
93279SOL    HW281735  10.628   8.393  10.386
93280SOL     OW81736   9.260   5.521  12.362
93280SOL    HW181737   9.245   5.607  12.400
93280SOL    HW281738   9.293   5.467  12.435
93281SOL     OW81739   4.845  14.709   4.292
93281SOL    HW181740   4.864  14.634   4.348
93281SOL    HW281741   4.800  14.771   4.349
93282SOL     OW81742   6.584   0.409   9.536
93282SOL    HW181743   6.537   0.488   9.509
93282SOL    HW281744   6.514   0.348   9.561
93283SOL     OW81745   0.412   6.221  13.492
93283SOL    HW181746   0.470   6.266  13.553
93283SOL    HW281747   0.324   6.236  13.526
93284SOL     OW81748  13.265   3.264   9.062
93284SOL    HW181749  13.231   3.240   9.148
93284SOL    HW281750  13.220   3.346   9.040
93285SOL     OW81751  10.911   6.643   3.344
93285SOL    HW181752  10.964   6.700   3.400
93285SOL    HW281753  10.973   6.577   3.312
93286SOL     OW81754   7.388   1.923   6.292
93286SOL    HW181755   7.335   1.866   6.237
93286SOL    HW281756   7.467   1.938   6.241
93287SOL     OW81757   4.272   0.158  11.647
93287SOL    HW181758   4.361   0.132  11.623
93287SOL    HW281759   4.239   0.085  11.698
93288SOL     OW81760   9.312  13.476   0.416
93288SOL    HW181761   9.369  13.476   0.493
93288SOL    HW281762   9.248  13.406   0.434
93289SOL     OW81763  13.193  12.430  14.703
93289SOL    HW181764  13.220  12.403  14.616
93289SOL    HW281765  13.154  12.352  14.742
93290SOL     OW81766   0.963   7.616   6.313
93290SOL    HW181767   0.919   7.592   6.395
93290SOL    HW281768   1.052   7.582   6.323
93291SOL     OW81769   3.398  10.995  12.421
93291SOL    HW181770   3.412  11.036  12.506
93291SOL    HW281771   3.385  11.068  12.360
93292SOL     OW81772   8.431   5.188   9.988
93292SOL    HW181773   8.421   5.101   9.950
93292SOL    HW281774   8.471   5.240   9.918
93293SOL     OW81775   9.286   1.060   2.146
93293SOL    HW181776   9.213   1.005   2.175
93293SOL    HW281777   9.253   1.104   2.068
93294SOL     OW81778  11.581  11.790   0.433
93294SOL    HW181779  11.588  11.798   0.528
93294SOL    HW281780  11.492  11.819   0.412
93295SOL     OW81781   0.459   0.553   3.166
93295SOL    HW181782   0.396   0.623   3.180
93295SOL    HW281783   0.533   0.575   3.223
93296SOL     OW81784   3.637  14.540   5.887
93296SOL    HW181785   3.545  14.517   5.879
93296SOL    HW281786   3.678  14.463   5.927
93297SOL     OW81787   1.621  14.364   4.589
93297SOL    HW181788   1.692  14.316   4.545
93297SOL    HW281789   1.640  14.456   4.571
93298SOL     OW81790   8.058   6.272   7.894
93298SOL    HW181791   8.120   6.235   7.831
93298SOL    HW281792   8.041   6.201   7.956
93299SOL     OW81793  13.464   7.636   9.721
93299SOL    HW181794  13.543   7.592   9.688
93299SOL    HW281795  13.497   7.716   9.761
93300SOL     OW81796   2.572  10.102   6.360
93300SOL    HW181797   2.624  10.146   6.427
93300SOL    HW281798   2.636  10.068   6.298
93301SOL     OW81799   7.559  14.502   1.049
93301SOL    HW181800   7.574  14.416   1.088
93301SOL    HW281801   7.491  14.486   0.983
93302SOL     OW81802   2.213  13.783   7.708
93302SOL    HW181803   2.192  13.748   7.795
93302SOL    HW281804   2.180  13.873   7.710
93303SOL     OW81805   3.620   3.970   8.844
93303SOL    HW181806   3.528   3.980   8.823
93303SOL    HW281807   3.620   3.936   8.934
93304SOL     OW81808   7.505  12.396   7.956
93304SOL    HW181809   7.447  12.463   7.921
93304SOL    HW281810   7.471  12.378   8.044
93305SOL     OW81811   3.055  13.773  12.502
93305SOL    HW181812   3.067  13.696  12.559
93305SOL    HW281813   2.985  13.823  12.544
93306SOL     OW81814  11.395  11.318   8.892
93306SOL    HW181815  11.412  11.254   8.823
93306SOL    HW281816  11.306  11.299   8.922
93307SOL     OW81817  13.290   4.143  14.872
93307SOL    HW181818  13.201   4.109   0.007
93307SOL    HW281819  13.346   4.074   0.031
93308SOL     OW81820  11.231  13.340   2.565
93308SOL    HW181821  11.237  13.436   2.566
93308SOL    HW281822  11.241  13.315   2.657
93309SOL     OW81823  12.830  11.546   3.411
93309SOL    HW181824  12.900  11.582   3.467
93309SOL    HW281825  12.752  11.597   3.435
93310SOL     OW81826   0.178   3.867   2.722
93310SOL    HW181827   0.244   3.872   2.790
93310SOL    HW281828   0.173   3.955   2.686
93311SOL     OW81829   7.841  13.556  11.779
93311SOL    HW181830   7.907  13.517  11.835
93311SOL    HW281831   7.884  13.633  11.741
93312SOL     OW81832   0.876  12.335  13.138
93312SOL    HW181833   0.947  12.358  13.198
93312SOL    HW281834   0.909  12.260  13.089
93313SOL     OW81835   1.015   0.521   7.501
93313SOL    HW181836   1.017   0.450   7.566
93313SOL    HW281837   1.072   0.588   7.538
93314SOL     OW81838  13.424  12.463  11.911
93314SOL    HW181839  13.367  12.389  11.929
93314SOL    HW281840  13.513  12.429  11.925
93315SOL     OW81841   2.368  12.065   9.345
93315SOL    HW181842   2.273  12.057   9.355
93315SOL    HW281843   2.404  11.994   9.398
93316SOL     OW81844   0.491   0.389   1.760
93316SOL    HW181845   0.543   0.418   1.685
93316SOL    HW281846   0.400   0.392   1.729
93317SOL     OW81847   2.275   0.650  14.387
93317SOL    HW181848   2.183   0.678  14.383
93317SOL    HW281849   2.274   0.572  14.443
93318SOL     OW81850   0.898   2.755   3.335
93318SOL    HW181851   0.842   2.746   3.258
93318SOL    HW281852   0.960   2.682   3.328
93319SOL     OW81853   5.505   7.531   6.801
93319SOL    HW181854   5.455   7.537   6.883
93319SOL    HW281855   5.596   7.522   6.829
93320SOL     OW81856   9.782   6.205   4.256
93320SOL    HW181857   9.708   6.220   4.198
93320SOL    HW281858   9.832   6.135   4.214
93321SOL     OW81859   2.739  11.000   6.632
93321SOL    HW181860   2.835  11.002   6.634
93321SOL    HW281861   2.713  11.036   6.717
93322SOL     OW81862  11.772  14.641   8.846
93322SOL    HW181863  11.812  14.591   8.918
93322SOL    HW281864  11.689  14.671   8.882
93323SOL     OW81865   8.002   6.707   2.231
93323SOL    HW181866   7.910   6.696   2.208
93323SOL    HW281867   8.006   6.792   2.274
93324SOL     OW81868   4.686  14.529   9.389
93324SOL    HW181869   4.776  14.560   9.401
93324SOL    HW281870   4.672  14.467   9.460
93325SOL     OW81871   5.545   4.387   6.755
93325SOL    HW181872   5.500   4.434   6.684
93325SOL    HW281873   5.496   4.306   6.765
93326SOL     OW81874   8.080   8.017   3.034
93326SOL    HW181875   8.075   7.974   3.119
93326SOL    HW281876   8.001   8.070   3.029
93327SOL     OW81877   7.051   3.068   4.447
93327SOL    HW181878   7.029   3.042   4.537
93327SOL    HW281879   7.016   2.998   4.393
93328SOL     OW81880  14.149   8.661   3.794
93328SOL    HW181881  14.223   8.720   3.809
93328SOL    HW281882  14.089   8.679   3.866
93329SOL     OW81883   8.062  14.829   6.329
93329SOL    HW181884   8.002  14.774   6.379
93329SOL    HW281885   8.099  14.771   6.263
93330SOL     OW81886   6.802   1.907  13.440
93330SOL    HW181887   6.821   1.840  13.374
93330SOL    HW281888   6.869   1.896  13.507
93331SOL     OW81889  11.628  11.208   5.324
93331SOL    HW181890  11.678  11.134   5.289
93331SOL    HW281891  11.691  11.279   5.329
93332SOL     OW81892   9.952   5.766   3.460
93332SOL    HW181893   9.885   5.784   3.526
93332SOL    HW281894   9.963   5.671   3.462
93333SOL     OW81895   7.623   8.057   5.071
93333SOL    HW181896   7.593   8.119   5.137
93333SOL    HW281897   7.709   8.090   5.043
93334SOL     OW81898  14.370  10.868   6.998
93334SOL    HW181899  14.435  10.849   7.066
93334SOL    HW281900  14.345  10.782   6.965
93335SOL     OW81901   0.131   9.797   6.493
93335SOL    HW181902   0.156   9.710   6.462
93335SOL    HW281903   0.110   9.784   6.586
93336SOL     OW81904   3.312   8.882   4.368
93336SOL    HW181905   3.380   8.896   4.301
93336SOL    HW281906   3.294   8.788   4.363
93337SOL     OW81907   1.418   7.875  12.516
93337SOL    HW181908   1.445   7.784  12.506
93337SOL    HW281909   1.497   7.920  12.547
93338SOL     OW81910   4.453   7.599   1.221
93338SOL    HW181911   4.463   7.652   1.300
93338SOL    HW281912   4.530   7.542   1.219
93339SOL     OW81913  14.357   3.032   0.206
93339SOL    HW181914  14.330   3.059   0.118
93339SOL    HW281915  14.276   3.022   0.255
93340SOL     OW81916   8.523   6.425  12.668
93340SOL    HW181917   8.453   6.417  12.733
93340SOL    HW281918   8.501   6.503  12.618
93341SOL     OW81919  11.484  12.506  10.788
93341SOL    HW181920  11.521  12.436  10.842
93341SOL    HW281921  11.403  12.469  10.753
93342SOL     OW81922   4.871   5.560  11.072
93342SOL    HW181923   4.901   5.538  10.984
93342SOL    HW281924   4.801   5.497  11.090
93343SOL     OW81925  11.641   0.222   8.207
93343SOL    HW181926  11.580   0.149   8.216
93343SOL    HW281927  11.590   0.300   8.231
93344SOL     OW81928   5.975   7.306   5.822
93344SOL    HW181929   5.931   7.292   5.738
93344SOL    HW281930   6.027   7.227   5.836
93345SOL     OW81931   4.908   4.949   6.257
93345SOL    HW181932   4.896   5.042   6.279
93345SOL    HW281933   4.828   4.907   6.288
93346SOL     OW81934  10.979   2.295   7.851
93346SOL    HW181935  11.010   2.238   7.921
93346SOL    HW281936  11.058   2.325   7.807
93347SOL     OW81937   8.894   1.015   3.038
93347SOL    HW181938   8.954   0.941   3.045
93347SOL    HW281939   8.874   1.038   3.129
93348SOL     OW81940   9.935   8.438   4.194
93348SOL    HW181941   9.888   8.454   4.276
93348SOL    HW281942   9.965   8.348   4.200
93349SOL     OW81943   1.368  11.043  13.074
93349SOL    HW181944   1.342  10.952  13.064
93349SOL    HW281945   1.312  11.092  13.014
93350SOL     OW81946   3.015   7.687   1.410
93350SOL    HW181947   3.002   7.781   1.397
93350SOL    HW281948   2.957   7.645   1.347
93351SOL     OW81949   5.321   6.998   8.868
93351SOL    HW181950   5.311   6.910   8.832
93351SOL    HW281951   5.271   7.054   8.807
93352SOL     OW81952   7.251   0.838   7.907
93352SOL    HW181953   7.209   0.922   7.922
93352SOL    HW281954   7.343   0.852   7.928
93353SOL     OW81955   9.834   7.210  11.322
93353SOL    HW181956   9.894   7.174  11.258
93353SOL    HW281957   9.887   7.271  11.374
93354SOL     OW81958   6.039   9.215  14.553
93354SOL    HW181959   6.106   9.250  14.612
93354SOL    HW281960   6.078   9.137  14.515
93355SOL     OW81961   5.839   9.876  10.634
93355SOL    HW181962   5.790   9.839  10.708
93355SOL    HW281963   5.787   9.852  10.557
93356SOL     OW81964   2.497  14.609   8.475
93356SOL    HW181965   2.462  14.631   8.388
93356SOL    HW281966   2.464  14.520   8.492
93357SOL     OW81967  12.776   7.395   7.303
93357SOL    HW181968  12.855   7.436   7.268
93357SOL    HW281969  12.806   7.311   7.338
93358SOL     OW81970   4.065   2.045   3.229
93358SOL    HW181971   4.089   2.038   3.136
93358SOL    HW281972   4.093   2.133   3.255
93359SOL     OW81973  14.465   1.597   3.732
93359SOL    HW181974  14.442   1.540   3.659
93359SOL    HW281975  14.391   1.657   3.741
93360SOL     OW81976   7.448  14.414   5.869
93360SOL    HW181977   7.503  14.378   5.800
93360SOL    HW281978   7.444  14.508   5.851
93361SOL     OW81979  12.397   5.897  11.615
93361SOL    HW181980  12.313   5.941  11.629
93361SOL    HW281981  12.397   5.825  11.678
93362SOL     OW81982  12.120   4.511   0.174
93362SOL    HW181983  12.213   4.509   0.150
93362SOL    HW281984  12.108   4.432   0.227
93363SOL     OW81985   9.156  11.262  10.768
93363SOL    HW181986   9.200  11.177  10.776
93363SOL    HW281987   9.224  11.320  10.733
93364SOL     OW81988   8.452   5.957   9.505
93364SOL    HW181989   8.439   6.017   9.578
93364SOL    HW281990   8.481   6.012   9.432
93365SOL     OW81991  11.230   4.360   4.211
93365SOL    HW181992  11.221   4.265   4.200
93365SOL    HW281993  11.324   4.376   4.203
93366SOL     OW81994   8.688  12.544   0.199
93366SOL    HW181995   8.770  12.575   0.160
93366SOL    HW281996   8.707  12.540   0.293
93367SOL     OW81997   1.007  13.474   4.602
93367SOL    HW181998   0.996  13.478   4.697
93367SOL    HW281999   1.090  13.428   4.590
93368SOL     OW82000   9.551   5.329   6.210
93368SOL    HW182001   9.558   5.346   6.304
93368SOL    HW282002   9.569   5.236   6.202
93369SOL     OW82003  12.985   6.920   5.535
93369SOL    HW182004  13.080   6.915   5.521
93369SOL    HW282005  12.975   6.973   5.614
93370SOL     OW82006   6.060   6.463   8.106
93370SOL    HW182007   6.050   6.372   8.134
93370SOL    HW282008   6.070   6.512   8.187
93371SOL     OW82009  13.520  11.910   4.372
93371SOL    HW182010  13.485  11.822   4.384
93371SOL    HW282011  13.579  11.922   4.446
93372SOL     OW82012  10.549  10.154   6.353
93372SOL    HW182013  10.499  10.085   6.311
93372SOL    HW282014  10.636  10.115   6.367
93373SOL     OW82015   2.407   9.964   6.718
93373SOL    HW182016   2.493  10.005   6.720
93373SOL    HW282017   2.411   9.903   6.644
93374SOL     OW82018   5.443   7.524   3.941
93374SOL    HW182019   5.462   7.474   4.021
93374SOL    HW282020   5.416   7.458   3.877
93375SOL     OW82021   3.043  14.407  12.749
93375SOL    HW182022   3.132  14.426  12.720
93375SOL    HW282023   3.042  14.432  12.841
93376SOL     OW82024   4.717  10.649   0.850
93376SOL    HW182025   4.811  10.635   0.855
93376SOL    HW282026   4.702  10.682   0.761
93377SOL     OW82027   4.407   2.716  14.094
93377SOL    HW182028   4.464   2.781  14.052
93377SOL    HW282029   4.345   2.691  14.026
93378SOL     OW82030   1.114  12.578   0.022
93378SOL    HW182031   1.085  12.642  14.832
93378SOL    HW282032   1.090  12.616   0.106
93379SOL     OW82033   8.613   5.355   6.318
93379SOL    HW182034   8.550   5.292   6.284
93379SOL    HW282035   8.616   5.337   6.412
93380SOL     OW82036  13.163  14.638   1.491
93380SOL    HW182037  13.243  14.666   1.535
93380SOL    HW282038  13.115  14.719   1.476
93381SOL     OW82039  12.578   7.610   4.692
93381SOL    HW182040  12.495   7.564   4.674
93381SOL    HW282041  12.644   7.557   4.648
93382SOL     OW82042   9.417   3.710   5.467
93382SOL    HW182043   9.350   3.658   5.422
93382SOL    HW282044   9.367   3.774   5.518
93383SOL     OW82045   2.491   9.466   6.496
93383SOL    HW182046   2.453   9.420   6.421
93383SOL    HW282047   2.485   9.402   6.568
93384SOL     OW82048  12.280   0.798   4.925
93384SOL    HW182049  12.362   0.832   4.889
93384SOL    HW282050  12.234   0.875   4.958
93385SOL     OW82051   5.404  11.926   9.234
93385SOL    HW182052   5.326  11.976   9.211
93385SOL    HW282053   5.465  11.942   9.162
93386SOL     OW82054  10.198  10.353   5.773
93386SOL    HW182055  10.181  10.446   5.760
93386SOL    HW282056  10.213  10.344   5.867
93387SOL     OW82057   6.502   9.010  14.282
93387SOL    HW182058   6.597   9.016  14.287
93387SOL    HW282059   6.484   8.970  14.197
93388SOL     OW82060  13.630  12.680   6.623
93388SOL    HW182061  13.597  12.602   6.578
93388SOL    HW282062  13.677  12.728   6.555
93389SOL     OW82063   3.497   4.549   7.039
93389SOL    HW182064   3.516   4.541   7.133
93389SOL    HW282065   3.443   4.473   7.019
93390SOL     OW82066   6.362   1.336   3.063
93390SOL    HW182067   6.446   1.313   3.102
93390SOL    HW282068   6.301   1.271   3.097
93391SOL     OW82069   7.889   7.862  13.006
93391SOL    HW182070   7.809   7.874  12.954
93391SOL    HW282071   7.955   7.914  12.961
93392SOL     OW82072   4.305  10.979   2.184
93392SOL    HW182073   4.298  10.904   2.125
93392SOL    HW282074   4.225  11.030   2.167
93393SOL     OW82075   9.594   6.988  13.244
93393SOL    HW182076   9.622   6.951  13.161
93393SOL    HW282077   9.544   6.918  13.286
93394SOL     OW82078  10.744   4.469   2.733
93394SOL    HW182079  10.796   4.390   2.718
93394SOL    HW282080  10.809   4.537   2.750
93395SOL     OW82081   3.934   7.042   0.179
93395SOL    HW182082   4.014   7.044   0.231
93395SOL    HW282083   3.963   7.014   0.092
93396SOL     OW82084   5.849  14.314   8.437
93396SOL    HW182085   5.856  14.384   8.373
93396SOL    HW282086   5.925  14.258   8.422
93397SOL     OW82087   6.850  13.683   5.960
93397SOL    HW182088   6.920  13.620   5.942
93397SOL    HW282089   6.772  13.629   5.974
93398SOL     OW82090  13.026   3.733   0.680
93398SOL    HW182091  12.982   3.652   0.707
93398SOL    HW282092  13.114   3.706   0.654
93399SOL     OW82093  12.119  14.761   1.411
93399SOL    HW182094  12.142  14.727   1.498
93399SOL    HW282095  12.030  14.793   1.421
93400SOL     OW82096   4.764   7.861  10.159
93400SOL    HW182097   4.694   7.850  10.223
93400SOL    HW282098   4.837   7.809  10.194
93401SOL     OW82099  13.860  11.201   4.348
93401SOL    HW182100  13.769  11.230   4.359
93401SOL    HW282101  13.874  11.204   4.253
93402SOL     OW82102   8.665   5.603   5.647
93402SOL    HW182103   8.740   5.628   5.701
93402SOL    HW282104   8.679   5.511   5.627
93403SOL     OW82105   2.317  10.460   7.391
93403SOL    HW182106   2.320  10.365   7.380
93403SOL    HW282107   2.329  10.495   7.302
93404SOL     OW82108   4.854   4.704   3.285
93404SOL    HW182109   4.781   4.695   3.346
93404SOL    HW282110   4.875   4.797   3.287
93405SOL     OW82111  11.618  10.879  11.044
93405SOL    HW182112  11.589  10.839  10.962
93405SOL    HW282113  11.545  10.934  11.072
93406SOL     OW82114   2.427  12.968  10.670
93406SOL    HW182115   2.436  12.873  10.674
93406SOL    HW282116   2.485  12.995  10.599
93407SOL     OW82117  14.689   6.958   7.205
93407SOL    HW182118  14.716   6.875   7.244
93407SOL    HW282119  14.757   6.978   7.141
93408SOL     OW82120   5.407  12.015  12.571
93408SOL    HW182121   5.375  12.078  12.636
93408SOL    HW282122   5.421  11.935  12.621
93409SOL     OW82123  14.586   2.785  10.231
93409SOL    HW182124  14.502   2.739  10.237
93409SOL    HW282125  14.637   2.734  10.168
93410SOL     OW82126   5.923   2.608   3.416
93410SOL    HW182127   5.964   2.545   3.476
93410SOL    HW282128   5.980   2.609   3.339
93411SOL     OW82129   1.438   6.913  10.688
93411SOL    HW182130   1.462   6.896  10.597
93411SOL    HW282131   1.397   6.999  10.687
93412SOL     OW82132   4.164   9.957   7.480
93412SOL    HW182133   4.200  10.024   7.538
93412SOL    HW282134   4.073   9.983   7.467
93413SOL     OW82135   0.943   9.076   2.210
93413SOL    HW182136   0.925   9.119   2.293
93413SOL    HW282137   1.031   9.040   2.220
93414SOL     OW82138  12.490  11.055   5.509
93414SOL    HW182139  12.416  11.080   5.453
93414SOL    HW282140  12.481  11.110   5.587
93415SOL     OW82141   7.167   7.926  11.575
93415SOL    HW182142   7.211   7.849  11.541
93415SOL    HW282143   7.145   7.978  11.498
93416SOL     OW82144   6.152   6.925   7.173
93416SOL    HW182145   6.063   6.939   7.142
93416SOL    HW282146   6.188   6.859   7.113
93417SOL     OW82147   5.326   7.057   1.212
93417SOL    HW182148   5.267   7.120   1.170
93417SOL    HW282149   5.353   7.101   1.293
93418SOL     OW82150  10.681   6.555  13.023
93418SOL    HW182151  10.739   6.487  13.057
93418SOL    HW282152  10.683   6.542  12.928
93419SOL     OW82153   4.039   7.895   0.483
93419SOL    HW182154   4.017   7.887   0.576
93419SOL    HW282155   3.954   7.898   0.438
93420SOL     OW82156  10.828   9.181   7.973
93420SOL    HW182157  10.797   9.194   8.063
93420SOL    HW282158  10.915   9.219   7.972
93421SOL     OW82159   0.844  14.603   7.915
93421SOL    HW182160   0.779  14.611   7.846
93421SOL    HW282161   0.919  14.561   7.873
93422SOL     OW82162   3.577   0.811   4.624
93422SOL    HW182163   3.580   0.863   4.543
93422SOL    HW282164   3.626   0.863   4.688
93423SOL     OW82165   0.785   1.572  10.682
93423SOL    HW182166   0.786   1.653  10.734
93423SOL    HW282167   0.819   1.505  10.741
93424SOL     OW82168   9.537   2.560   5.063
93424SOL    HW182169   9.466   2.514   5.017
93424SOL    HW282170   9.523   2.539   5.155
93425SOL     OW82171   0.336   1.718   9.668
93425SOL    HW182172   0.301   1.806   9.651
93425SOL    HW282173   0.290   1.661   9.607
93426SOL     OW82174   2.329  10.285   7.690
93426SOL    HW182175   2.246  10.246   7.716
93426SOL    HW282176   2.304  10.368   7.649
93427SOL     OW82177   3.149  12.774   2.137
93427SOL    HW182178   3.097  12.755   2.059
93427SOL    HW282179   3.149  12.869   2.143
93428SOL     OW82180  14.638   8.359   8.691
93428SOL    HW182181  14.704   8.407   8.741
93428SOL    HW282182  14.675   8.273   8.677
93429SOL     OW82183   0.072  13.915   9.193
93429SOL    HW182184   0.119  13.998   9.193
93429SOL    HW282185  14.869  13.932   9.247
93430SOL     OW82186  11.818   1.079  13.023
93430SOL    HW182187  11.913   1.088  13.033
93430SOL    HW282188  11.807   1.000  12.970
93431SOL     OW82189   3.816   3.053   8.121
93431SOL    HW182190   3.758   2.977   8.117
93431SOL    HW282191   3.762   3.126   8.089
93432SOL     OW82192  13.426  12.671  10.853
93432SOL    HW182193  13.380  12.587  10.848
93432SOL    HW282194  13.513  12.649  10.887
93433SOL     OW82195   9.683  10.487  10.682
93433SOL    HW182196   9.657  10.553  10.617
93433SOL    HW282197   9.669  10.403  10.637
93434SOL     OW82198  10.428  10.475   6.570
93434SOL    HW182199  10.517  10.451   6.595
93434SOL    HW282200  10.372  10.420   6.626
93435SOL     OW82201   8.116   6.400   3.566
93435SOL    HW182202   8.076   6.392   3.653
93435SOL    HW282203   8.161   6.317   3.553
93436SOL     OW82204  13.345  12.592   0.888
93436SOL    HW182205  13.344  12.687   0.898
93436SOL    HW282206  13.401  12.575   0.813
93437SOL     OW82207   5.880   4.343   4.273
93437SOL    HW182208   5.840   4.312   4.191
93437SOL    HW282209   5.971   4.360   4.250
93438SOL     OW82210   4.693   1.080   5.777
93438SOL    HW182211   4.638   1.120   5.709
93438SOL    HW282212   4.777   1.126   5.771
93439SOL     OW82213   8.679  14.071  13.292
93439SOL    HW182214   8.610  14.007  13.307
93439SOL    HW282215   8.666  14.101  13.203
93440SOL     OW82216  13.869   6.033  11.739
93440SOL    HW182217  13.864   6.075  11.653
93440SOL    HW282218  13.921   6.094  11.791
93441SOL     OW82219   2.906  10.982   2.930
93441SOL    HW182220   2.831  10.955   2.876
93441SOL    HW282221   2.880  10.959   3.019
93442SOL     OW82222   7.346   1.603  12.219
93442SOL    HW182223   7.257   1.572  12.235
93442SOL    HW282224   7.375   1.637  12.303
93443SOL     OW82225  10.176  11.040   8.820
93443SOL    HW182226  10.122  11.100   8.768
93443SOL    HW282227  10.131  10.955   8.813
93444SOL     OW82228   6.741  10.167   2.713
93444SOL    HW182229   6.674  10.204   2.771
93444SOL    HW282230   6.816  10.226   2.723
93445SOL     OW82231   5.546   7.173  14.549
93445SOL    HW182232   5.464   7.224  14.547
93445SOL    HW282233   5.529   7.105  14.614
93446SOL     OW82234  10.393   8.483   1.226
93446SOL    HW182235  10.427   8.568   1.198
93446SOL    HW282236  10.303   8.501   1.252
93447SOL     OW82237   8.323   1.888   1.486
93447SOL    HW182238   8.344   1.918   1.397
93447SOL    HW282239   8.297   1.797   1.475
93448SOL     OW82240   9.121   7.646   9.606
93448SOL    HW182241   9.156   7.726   9.568
93448SOL    HW282242   9.050   7.675   9.663
93449SOL     OW82243   8.579   4.958  13.239
93449SOL    HW182244   8.522   4.899  13.190
93449SOL    HW282245   8.574   4.927  13.329
93450SOL     OW82246   0.308  12.693  13.666
93450SOL    HW182247   0.368  12.752  13.713
93450SOL    HW282248   0.221  12.723  13.691
93451SOL     OW82249  10.178   3.093   1.557
93451SOL    HW182250  10.094   3.082   1.513
93451SOL    HW282251  10.240   3.044   1.502
93452SOL     OW82252   3.281   2.014   1.671
93452SOL    HW182253   3.239   1.978   1.749
93452SOL    HW282254   3.351   1.951   1.651
93453SOL     OW82255  11.107   7.026   4.185
93453SOL    HW182256  11.030   7.004   4.133
93453SOL    HW282257  11.179   6.982   4.140
93454SOL     OW82258   5.634   1.888   8.029
93454SOL    HW182259   5.641   1.898   8.124
93454SOL    HW282260   5.544   1.860   8.014
93455SOL     OW82261   3.619   2.090  12.278
93455SOL    HW182262   3.686   2.137  12.328
93455SOL    HW282263   3.546   2.152  12.272
93456SOL     OW82264   1.523   3.913   3.326
93456SOL    HW182265   1.543   3.855   3.253
93456SOL    HW282266   1.595   3.977   3.326
93457SOL     OW82267   5.633  10.488   3.384
93457SOL    HW182268   5.676  10.572   3.369
93457SOL    HW282269   5.608  10.457   3.297
93458SOL     OW82270  13.062   9.882  14.846
93458SOL    HW182271  13.097   9.964  14.811
93458SOL    HW282272  13.081   9.886   0.065
93459SOL     OW82273   8.788   7.186   8.240
93459SOL    HW182274   8.879   7.171   8.215
93459SOL    HW282275   8.764   7.109   8.291
93460SOL     OW82276   9.257   4.850  10.489
93460SOL    HW182277   9.340   4.886  10.521
93460SOL    HW282278   9.282   4.793  10.417
93461SOL     OW82279  10.819   7.550   9.516
93461SOL    HW182280  10.851   7.484   9.577
93461SOL    HW282281  10.879   7.624   9.527
93462SOL     OW82282   0.859   4.084   4.785
93462SOL    HW182283   0.919   4.010   4.791
93462SOL    HW282284   0.915   4.161   4.795
93463SOL     OW82285   6.890   5.467   5.841
93463SOL    HW182286   6.875   5.395   5.902
93463SOL    HW282287   6.902   5.544   5.897
93464SOL     OW82288   2.902   0.960   7.845
93464SOL    HW182289   2.834   0.920   7.900
93464SOL    HW282290   2.974   0.897   7.846
93465SOL     OW82291   5.711   0.790   6.137
93465SOL    HW182292   5.620   0.815   6.155
93465SOL    HW282293   5.751   0.782   6.223
93466SOL     OW82294   4.253   4.092   1.429
93466SOL    HW182295   4.225   4.183   1.439
93466SOL    HW282296   4.265   4.061   1.518
93467SOL     OW82297   3.311   4.612   5.083
93467SOL    HW182298   3.287   4.675   5.151
93467SOL    HW282299   3.254   4.636   5.009
93468SOL     OW82300   7.686  13.603  12.037
93468SOL    HW182301   7.747  13.589  12.109
93468SOL    HW282302   7.717  13.546  11.967
93469SOL     OW82303   2.152   8.802   6.001
93469SOL    HW182304   2.139   8.847   5.917
93469SOL    HW282305   2.246   8.782   6.003
93470SOL     OW82306   6.784  11.295   8.836
93470SOL    HW182307   6.799  11.302   8.742
93470SOL    HW282308   6.872  11.296   8.874
93471SOL     OW82309   2.401   6.876   0.251
93471SOL    HW182310   2.328   6.816   0.233
93471SOL    HW282311   2.370   6.961   0.222
93472SOL     OW82312   5.592   0.877   6.569
93472SOL    HW182313   5.575   0.783   6.561
93472SOL    HW282314   5.540   0.917   6.499
93473SOL     OW82315   6.862  13.527  12.521
93473SOL    HW182316   6.910  13.603  12.491
93473SOL    HW282317   6.831  13.551  12.608
93474SOL     OW82318   0.873   4.073   5.441
93474SOL    HW182319   0.959   4.043   5.410
93474SOL    HW282320   0.817   4.069   5.364
93475SOL     OW82321   4.759   6.998   2.832
93475SOL    HW182322   4.665   6.985   2.840
93475SOL    HW282323   4.770   7.043   2.749
93476SOL     OW82324   1.229   5.406  13.810
93476SOL    HW182325   1.222   5.344  13.883
93476SOL    HW282326   1.223   5.351  13.732
93477SOL     OW82327  13.019   9.679   5.089
93477SOL    HW182328  13.092   9.691   5.028
93477SOL    HW282329  12.963   9.755   5.074
93478SOL     OW82330   6.519   3.709   1.407
93478SOL    HW182331   6.560   3.655   1.340
93478SOL    HW282332   6.425   3.703   1.389
93479SOL     OW82333   8.576   7.051  14.448
93479SOL    HW182334   8.553   7.136  14.486
93479SOL    HW282335   8.494   7.020  14.409
93480SOL     OW82336  11.646  13.938   2.202
93480SOL    HW182337  11.685  13.961   2.118
93480SOL    HW282338  11.692  13.860   2.230
93481SOL     OW82339  14.325   3.575   5.860
93481SOL    HW182340  14.372   3.496   5.832
93481SOL    HW282341  14.271   3.598   5.784
93482SOL     OW82342  14.070  12.082   8.829
93482SOL    HW182343  14.014  12.030   8.772
93482SOL    HW282344  14.095  12.023   8.900
93483SOL     OW82345   4.446   8.499  13.161
93483SOL    HW182346   4.469   8.426  13.219
93483SOL    HW282347   4.486   8.476  13.077
93484SOL     OW82348   0.899   6.768   9.272
93484SOL    HW182349   0.815   6.788   9.313
93484SOL    HW282350   0.879   6.697   9.211
93485SOL     OW82351   5.295   8.137  12.708
93485SOL    HW182352   5.377   8.185  12.721
93485SOL    HW282353   5.280   8.140  12.613
93486SOL     OW82354   8.514   1.060   4.900
93486SOL    HW182355   8.534   1.121   4.970
93486SOL    HW282356   8.519   1.112   4.820
93487SOL     OW82357   2.682   0.218   7.739
93487SOL    HW182358   2.723   0.296   7.703
93487SOL    HW282359   2.753   0.171   7.783
93488SOL     OW82360   8.894   8.763   0.033
93488SOL    HW182361   8.869   8.697   0.098
93488SOL    HW282362   8.865   8.726  14.825
93489SOL     OW82363  14.062  10.617  13.480
93489SOL    HW182364  14.047  10.612  13.386
93489SOL    HW282365  14.152  10.585  13.492
93490SOL     OW82366   7.355   2.711   6.933
93490SOL    HW182367   7.412   2.690   6.860
93490SOL    HW282368   7.314   2.628   6.957
93491SOL     OW82369   0.567   6.161  14.870
93491SOL    HW182370   0.573   6.083   0.050
93491SOL    HW282371   0.498   6.213   0.035
93492SOL     OW82372   0.855   5.040  14.039
93492SOL    HW182373   0.763   5.065  14.052
93492SOL    HW282374   0.899   5.121  14.015
93493SOL     OW82375   4.067   4.250  12.382
93493SOL    HW182376   4.022   4.177  12.340
93493SOL    HW282377   4.021   4.328  12.352
93494SOL     OW82378   9.837   4.866  10.281
93494SOL    HW182379   9.923   4.897  10.311
93494SOL    HW282380   9.778   4.940  10.294
93495SOL     OW82381  10.651  13.498   0.938
93495SOL    HW182382  10.723  13.436   0.925
93495SOL    HW282383  10.593  13.484   0.863
93496SOL     OW82384   2.917   8.873   0.429
93496SOL    HW182385   2.826   8.867   0.459
93496SOL    HW282386   2.968   8.885   0.510
93497SOL     OW82387   0.803   2.436   0.471
93497SOL    HW182388   0.815   2.368   0.536
93497SOL    HW282389   0.892   2.456   0.441
93498SOL     OW82390   9.785  14.485   3.027
93498SOL    HW182391   9.769  14.521   3.114
93498SOL    HW282392   9.863  14.531   2.996
93499SOL     OW82393   6.463   4.683   8.484
93499SOL    HW182394   6.519   4.736   8.541
93499SOL    HW282395   6.459   4.733   8.402
93500SOL     OW82396   1.748   0.362   1.308
93500SOL    HW182397   1.814   0.367   1.239
93500SOL    HW282398   1.787   0.306   1.374
93501SOL     OW82399  14.648   9.403  14.006
93501SOL    HW182400  14.586   9.395  13.934
93501SOL    HW282401  14.732   9.416  13.964
93502SOL     OW82402   2.508  11.323   1.202
93502SOL    HW182403   2.506  11.269   1.281
93502SOL    HW282404   2.589  11.298   1.158
93503SOL     OW82405   8.732   1.503  12.216
93503SOL    HW182406   8.680   1.429  12.248
93503SOL    HW282407   8.795   1.464  12.156
93504SOL     OW82408  13.885  14.485  13.704
93504SOL    HW182409  13.831  14.433  13.764
93504SOL    HW282410  13.961  14.511  13.757
93505SOL     OW82411   4.407   0.241   6.722
93505SOL    HW182412   4.353   0.217   6.647
93505SOL    HW282413   4.432   0.158   6.762
93506SOL     OW82414  13.307   5.950  10.252
93506SOL    HW182415  13.243   5.931  10.321
93506SOL    HW282416  13.286   5.889  10.182
93507SOL     OW82417   8.090   1.068   2.255
93507SOL    HW182418   8.038   1.052   2.176
93507SOL    HW282419   8.041   1.133   2.304
93508SOL     OW82420  14.290   2.650  13.526
93508SOL    HW182421  14.311   2.736  13.491
93508SOL    HW282422  14.195   2.648  13.532
93509SOL     OW82423  11.221  12.286  11.338
93509SOL    HW182424  11.126  12.289  11.352
93509SOL    HW282425  11.234  12.215  11.275
93510SOL     OW82426   0.986   7.973   8.995
93510SOL    HW182427   0.996   7.983   9.089
93510SOL    HW282428   0.958   7.882   8.983
93511SOL     OW82429  12.647   4.844   4.937
93511SOL    HW182430  12.668   4.751   4.944
93511SOL    HW282431  12.591   4.862   5.012
93512SOL     OW82432   8.738   4.565   1.352
93512SOL    HW182433   8.655   4.539   1.312
93512SOL    HW282434   8.805   4.528   1.294
93513SOL     OW82435   8.357   7.671   6.621
93513SOL    HW182436   8.391   7.601   6.565
93513SOL    HW282437   8.430   7.731   6.633
93514SOL     OW82438  14.418   4.318   0.474
93514SOL    HW182439  14.445   4.277   0.391
93514SOL    HW282440  14.400   4.244   0.532
93515SOL     OW82441   4.873  14.044   7.331
93515SOL    HW182442   4.961  14.026   7.364
93515SOL    HW282443   4.846  13.962   7.290
93516SOL     OW82444   6.795  11.654   7.140
93516SOL    HW182445   6.869  11.614   7.094
93516SOL    HW282446   6.769  11.589   7.205
93517SOL     OW82447  13.111   3.957   5.875
93517SOL    HW182448  13.108   3.976   5.781
93517SOL    HW282449  13.045   3.889   5.888
93518SOL     OW82450   7.898   0.654   8.497
93518SOL    HW182451   7.901   0.645   8.402
93518SOL    HW282452   7.971   0.601   8.529
93519SOL     OW82453  10.527  13.390   8.571
93519SOL    HW182454  10.562  13.455   8.631
93519SOL    HW282455  10.460  13.344   8.622
93520SOL     OW82456  12.647  14.393   8.072
93520SOL    HW182457  12.568  14.340   8.080
93520SOL    HW282458  12.656  14.408   7.977
93521SOL     OW82459  11.112   4.629  10.350
93521SOL    HW182460  11.182   4.690  10.371
93521SOL    HW282461  11.085   4.654  10.261
93522SOL     OW82462   6.413  12.696   9.267
93522SOL    HW182463   6.446  12.756   9.333
93522SOL    HW282464   6.376  12.623   9.317
93523SOL     OW82465  11.387  10.124  11.970
93523SOL    HW182466  11.397  10.029  11.967
93523SOL    HW282467  11.298  10.139  11.939
93524SOL     OW82468   8.621  11.402   3.180
93524SOL    HW182469   8.529  11.377   3.172
93524SOL    HW282470   8.625  11.448   3.264
93525SOL     OW82471  13.730   3.176   5.909
93525SOL    HW182472  13.715   3.179   6.004
93525SOL    HW282473  13.757   3.265   5.887
93526SOL     OW82474  11.054  13.703  10.083
93526SOL    HW182475  11.124  13.765  10.098
93526SOL    HW282476  11.094  13.633  10.032
93527SOL     OW82477   7.987  13.204   6.111
93527SOL    HW182478   7.905  13.203   6.161
93527SOL    HW282479   7.960  13.228   6.022
93528SOL     OW82480   0.317   5.003   7.199
93528SOL    HW182481   0.302   4.947   7.122
93528SOL    HW282482   0.409   5.028   7.193
93529SOL     OW82483   0.268   1.307   9.893
93529SOL    HW182484   0.186   1.259   9.908
93529SOL    HW282485   0.239   1.391   9.856
93530SOL     OW82486  10.329   8.742   2.136
93530SOL    HW182487  10.236   8.740   2.157
93530SOL    HW282488  10.339   8.682   2.062
93531SOL     OW82489  13.605  13.213   6.550
93531SOL    HW182490  13.627  13.306   6.544
93531SOL    HW282491  13.560  13.193   6.468
93532SOL     OW82492   3.475   1.903   6.866
93532SOL    HW182493   3.395   1.933   6.823
93532SOL    HW282494   3.539   1.895   6.795
93533SOL     OW82495   7.295   9.815  14.188
93533SOL    HW182496   7.303   9.893  14.132
93533SOL    HW282497   7.309   9.848  14.277
93534SOL     OW82498   7.205   0.182   6.232
93534SOL    HW182499   7.287   0.175   6.183
93534SOL    HW282500   7.149   0.237   6.177
93535SOL     OW82501  11.862  12.931   1.576
93535SOL    HW182502  11.865  12.855   1.635
93535SOL    HW282503  11.846  12.893   1.490
93536SOL     OW82504  11.746  13.190   7.032
93536SOL    HW182505  11.811  13.171   7.099
93536SOL    HW282506  11.726  13.105   6.993
93537SOL     OW82507   1.145   2.615  10.629
93537SOL    HW182508   1.152   2.657  10.543
93537SOL    HW282509   1.068   2.558  10.621
93538SOL     OW82510   6.567   6.059  10.365
93538SOL    HW182511   6.523   5.998  10.424
93538SOL    HW282512   6.619   6.114  10.423
93539SOL     OW82513   8.053  14.602   3.538
93539SOL    HW182514   8.083  14.511   3.540
93539SOL    HW282515   7.978  14.603   3.597
93540SOL     OW82516   4.184   9.104   3.410
93540SOL    HW182517   4.175   9.015   3.446
93540SOL    HW282518   4.264   9.100   3.357
93541SOL     OW82519   6.000   2.798  12.186
93541SOL    HW182520   5.949   2.746  12.124
93541SOL    HW282521   5.992   2.888  12.154
93542SOL     OW82522   5.331   6.980  13.989
93542SOL    HW182523   5.366   7.054  14.037
93542SOL    HW282524   5.359   6.994  13.898
93543SOL     OW82525   0.958  10.390   6.812
93543SOL    HW182526   0.871  10.409   6.777
93543SOL    HW282527   0.954  10.298   6.838
93544SOL     OW82528   2.065   6.726  13.676
93544SOL    HW182529   2.113   6.766  13.748
93544SOL    HW282530   2.017   6.799  13.636
93545SOL     OW82531   2.248  11.844   7.302
93545SOL    HW182532   2.179  11.842   7.369
93545SOL    HW282533   2.325  11.809   7.346
93546SOL     OW82534  13.418  14.347   9.009
93546SOL    HW182535  13.418  14.308   9.096
93546SOL    HW282536  13.369  14.285   8.954
93547SOL     OW82537   9.306  10.587   1.322
93547SOL    HW182538   9.386  10.563   1.370
93547SOL    HW282539   9.336  10.610   1.234
93548SOL     OW82540   7.530   8.503   0.849
93548SOL    HW182541   7.442   8.481   0.819
93548SOL    HW282542   7.520   8.584   0.898
93549SOL     OW82543   7.458  13.444   2.418
93549SOL    HW182544   7.547  13.468   2.391
93549SOL    HW282545   7.402  13.482   2.350
93550SOL     OW82546  13.310   6.099   2.215
93550SOL    HW182547  13.331   6.171   2.156
93550SOL    HW282548  13.283   6.141   2.296
93551SOL     OW82549   6.888   0.129   5.271
93551SOL    HW182550   6.858   0.046   5.308
93551SOL    HW282551   6.908   0.109   5.180
93552SOL     OW82552   1.136   6.707  10.972
93552SOL    HW182553   1.104   6.752  10.894
93552SOL    HW282554   1.133   6.614  10.950
93553SOL     OW82555   8.091  10.287  10.070
93553SOL    HW182556   8.059  10.338   9.996
93553SOL    HW282557   8.186  10.301  10.069
93554SOL     OW82558   4.716  13.123  13.523
93554SOL    HW182559   4.744  13.053  13.583
93554SOL    HW282560   4.751  13.203  13.562
93555SOL     OW82561  11.747  11.811  14.268
93555SOL    HW182562  11.789  11.786  14.350
93555SOL    HW282563  11.696  11.735  14.242
93556SOL     OW82564   4.700   4.391  10.835
93556SOL    HW182565   4.643   4.388  10.912
93556SOL    HW282566   4.781   4.348  10.863
93557SOL     OW82567   1.212   3.266   8.263
93557SOL    HW182568   1.247   3.184   8.298
93557SOL    HW282569   1.142   3.290   8.323
93558SOL     OW82570   3.947  13.894   8.192
93558SOL    HW182571   3.947  13.798   8.194
93558SOL    HW282572   3.935  13.916   8.100
93559SOL     OW82573   2.880   9.776   7.491
93559SOL    HW182574   2.822   9.700   7.488
93559SOL    HW282575   2.838   9.837   7.551
93560SOL     OW82576   6.242   6.530  11.530
93560SOL    HW182577   6.289   6.577  11.461
93560SOL    HW282578   6.200   6.457  11.485
93561SOL     OW82579  10.342  12.239   4.716
93561SOL    HW182580  10.310  12.152   4.737
93561SOL    HW282581  10.437  12.230   4.712
93562SOL     OW82582  14.111   6.924  13.719
93562SOL    HW182583  14.151   7.003  13.756
93562SOL    HW282584  14.029   6.914  13.768
93563SOL     OW82585  14.702   1.551   3.445
93563SOL    HW182586  14.722   1.606   3.520
93563SOL    HW282587  14.686   1.464   3.482
93564SOL     OW82588   1.025   0.053   5.032
93564SOL    HW182589   1.028   0.144   5.060
93564SOL    HW282590   1.093   0.046   4.965
93565SOL     OW82591  14.589   4.674   7.219
93565SOL    HW182592  14.597   4.687   7.124
93565SOL    HW282593  14.579   4.763   7.254
93566SOL     OW82594   5.368   7.500  12.582
93566SOL    HW182595   5.320   7.573  12.622
93566SOL    HW282596   5.442   7.542  12.539
93567SOL     OW82597   0.672   5.749   4.087
93567SOL    HW182598   0.712   5.673   4.130
93567SOL    HW282599   0.741   5.784   4.031
93568SOL     OW82600  14.543  14.256  10.459
93568SOL    HW182601  14.627  14.212  10.472
93568SOL    HW282602  14.524  14.245  10.366
93569SOL     OW82603   5.603  12.478   9.370
93569SOL    HW182604   5.604  12.387   9.398
93569SOL    HW282605   5.559  12.525   9.441
93570SOL     OW82606   1.652   4.507  14.109
93570SOL    HW182607   1.578   4.568  14.107
93570SOL    HW282608   1.729   4.562  14.099
93571SOL     OW82609  14.181   7.382  11.725
93571SOL    HW182610  14.238   7.306  11.713
93571SOL    HW282611  14.105   7.347  11.773
93572SOL     OW82612   6.224   9.598   1.748
93572SOL    HW182613   6.156   9.541   1.712
93572SOL    HW282614   6.245   9.658   1.676
93573SOL     OW82615  11.250  13.041  11.987
93573SOL    HW182616  11.203  13.082  12.059
93573SOL    HW282617  11.197  13.060  11.910
93574SOL     OW82618   8.014  10.648   2.216
93574SOL    HW182619   8.050  10.732   2.186
93574SOL    HW282620   8.047  10.584   2.153
93575SOL     OW82621   3.188   7.531   4.586
93575SOL    HW182622   3.129   7.599   4.620
93575SOL    HW282623   3.244   7.577   4.523
93576SOL     OW82624   8.097   8.205   8.079
93576SOL    HW182625   8.010   8.242   8.095
93576SOL    HW282626   8.079   8.114   8.054
93577SOL     OW82627  14.651   9.204   1.340
93577SOL    HW182628  14.625   9.121   1.381
93577SOL    HW282629  14.738   9.221   1.376
93578SOL     OW82630   9.735   4.182  12.368
93578SOL    HW182631   9.690   4.169  12.452
93578SOL    HW282632   9.705   4.268  12.338
93579SOL     OW82633   0.108   0.937  14.429
93579SOL    HW182634   0.130   1.019  14.384
93579SOL    HW282635   0.122   0.869  14.363
93580SOL     OW82636  11.182   8.285  12.399
93580SOL    HW182637  11.220   8.336  12.328
93580SOL    HW282638  11.257   8.252  12.449
93581SOL     OW82639   7.433   3.886   4.967
93581SOL    HW182640   7.400   3.909   4.881
93581SOL    HW282641   7.356   3.884   5.023
93582SOL     OW82642   3.715   9.453   4.616
93582SOL    HW182643   3.799   9.411   4.595
93582SOL    HW282644   3.723   9.541   4.580
93583SOL     OW82645   2.699  12.704   2.951
93583SOL    HW182646   2.678  12.679   2.861
93583SOL    HW282647   2.660  12.634   3.004
93584SOL     OW82648   1.787  13.221   3.385
93584SOL    HW182649   1.788  13.293   3.322
93584SOL    HW282650   1.735  13.152   3.343
93585SOL     OW82651   1.962   5.513   1.460
93585SOL    HW182652   1.929   5.603   1.457
93585SOL    HW282653   1.934   5.475   1.376
93586SOL     OW82654   5.481  10.412  11.375
93586SOL    HW182655   5.393  10.389  11.405
93586SOL    HW282656   5.467  10.477  11.307
93587SOL     OW82657   3.270   5.964   0.890
93587SOL    HW182658   3.251   5.892   0.830
93587SOL    HW282659   3.205   5.956   0.960
93588SOL     OW82660  14.071   2.823  13.843
93588SOL    HW182661  14.164   2.844  13.851
93588SOL    HW282662  14.059   2.801  13.750
93589SOL     OW82663   2.774   5.629   8.966
93589SOL    HW182664   2.775   5.534   8.958
93589SOL    HW282665   2.689   5.655   8.934
93590SOL     OW82666   5.590  14.155   9.419
93590SOL    HW182667   5.518  14.218   9.410
93590SOL    HW282668   5.547  14.072   9.436
93591SOL     OW82669  13.374  11.347   5.050
93591SOL    HW182670  13.467  11.326   5.057
93591SOL    HW282671  13.357  11.353   4.956
93592SOL     OW82672  14.223  10.941  11.154
93592SOL    HW182673  14.277  10.863  11.140
93592SOL    HW282674  14.286  11.011  11.172
93593SOL     OW82675   1.566   0.993   4.281
93593SOL    HW182676   1.565   0.922   4.217
93593SOL    HW282677   1.486   0.980   4.333
93594SOL     OW82678   9.344   6.381  14.506
93594SOL    HW182679   9.281   6.448  14.532
93594SOL    HW282680   9.305   6.299  14.533
93595SOL     OW82681  12.449  10.124   1.274
93595SOL    HW182682  12.501  10.197   1.240
93595SOL    HW282683  12.360  10.159   1.280
93596SOL     OW82684   3.972  12.083   8.468
93596SOL    HW182685   3.931  12.128   8.394
93596SOL    HW282686   3.950  12.137   8.544
93597SOL     OW82687  12.620   6.323  13.591
93597SOL    HW182688  12.625   6.306  13.685
93597SOL    HW282689  12.599   6.416  13.585
93598SOL     OW82690   6.702   1.838   7.844
93598SOL    HW182691   6.682   1.894   7.769
93598SOL    HW282692   6.788   1.801   7.824
93599SOL     OW82693   6.030   9.478  12.940
93599SOL    HW182694   5.978   9.509  13.013
93599SOL    HW282695   6.077   9.556  12.909
93600SOL     OW82696  13.325   0.477  10.930
93600SOL    HW182697  13.281   0.502  11.012
93600SOL    HW282698  13.276   0.522  10.862
93601SOL     OW82699  13.503  10.896  13.408
93601SOL    HW182700  13.519  10.848  13.327
93601SOL    HW282701  13.578  10.956  13.415
93602SOL     OW82702  10.577   5.367  10.509
93602SOL    HW182703  10.661   5.354  10.465
93602SOL    HW282704  10.513   5.367  10.438
93603SOL     OW82705   5.706   3.336  10.130
93603SOL    HW182706   5.650   3.314  10.205
93603SOL    HW282707   5.671   3.283  10.058
93604SOL     OW82708   2.207   7.935   6.206
93604SOL    HW182709   2.166   7.854   6.178
93604SOL    HW282710   2.240   7.916   6.294
93605SOL     OW82711   8.178  12.892   3.503
93605SOL    HW182712   8.100  12.884   3.448
93605SOL    HW282713   8.144  12.904   3.591
93606SOL     OW82714   4.627  11.617  11.051
93606SOL    HW182715   4.637  11.682  10.981
93606SOL    HW282716   4.664  11.537  11.016
93607SOL     OW82717   6.744   2.190   7.106
93607SOL    HW182718   6.836   2.215   7.113
93607SOL    HW282719   6.696   2.272   7.105
93608SOL     OW82720   9.928   2.121  10.177
93608SOL    HW182721   9.911   2.048  10.118
93608SOL    HW282722  10.023   2.129  10.179
93609SOL     OW82723   2.631  10.156   7.141
93609SOL    HW182724   2.709  10.177   7.089
93609SOL    HW282725   2.585  10.090   7.089
93610SOL     OW82726   6.683  13.016   3.796
93610SOL    HW182727   6.610  13.075   3.776
93610SOL    HW282728   6.739  13.021   3.719
93611SOL     OW82729   5.160   8.850   6.103
93611SOL    HW182730   5.172   8.871   6.010
93611SOL    HW282731   5.249   8.845   6.138
93612SOL     OW82732  11.779   9.772   4.386
93612SOL    HW182733  11.829   9.722   4.321
93612SOL    HW282734  11.718   9.825   4.334
93613SOL     OW82735  12.887  10.931   6.961
93613SOL    HW182736  12.887  10.958   7.053
93613SOL    HW282737  12.825  10.859   6.957
93614SOL     OW82738   0.675   0.850   1.735
93614SOL    HW182739   0.652   0.877   1.824
93614SOL    HW282740   0.727   0.923   1.701
93615SOL     OW82741   1.875   6.031   0.066
93615SOL    HW182742   1.880   6.119   0.104
93615SOL    HW282743   1.799   6.035   0.008
93616SOL     OW82744   9.299   4.331   0.163
93616SOL    HW182745   9.388   4.317   0.194
93616SOL    HW282746   9.300   4.303   0.071
93617SOL     OW82747   9.205   8.800  13.634
93617SOL    HW182748   9.284   8.752  13.610
93617SOL    HW282749   9.216   8.819  13.727
93618SOL     OW82750   9.104   5.417   7.611
93618SOL    HW182751   9.099   5.390   7.703
93618SOL    HW282752   9.064   5.504   7.610
93619SOL     OW82753   6.069   4.375   2.679
93619SOL    HW182754   6.153   4.400   2.640
93619SOL    HW282755   6.012   4.356   2.605
93620SOL     OW82756  14.004   3.337   9.730
93620SOL    HW182757  13.955   3.300   9.657
93620SOL    HW282758  14.031   3.423   9.699
93621SOL     OW82759   2.767   7.868   5.998
93621SOL    HW182760   2.718   7.838   5.921
93621SOL    HW282761   2.703   7.864   6.070
93622SOL     OW82762   7.381   2.514   5.721
93622SOL    HW182763   7.303   2.466   5.750
93622SOL    HW282764   7.410   2.468   5.643
93623SOL     OW82765   4.341   9.498   2.709
93623SOL    HW182766   4.255   9.510   2.667
93623SOL    HW282767   4.398   9.470   2.637
93624SOL     OW82768   9.472   5.716   7.437
93624SOL    HW182769   9.435   5.709   7.349
93624SOL    HW282770   9.483   5.625   7.465
93625SOL     OW82771   8.276   4.629   0.520
93625SOL    HW182772   8.361   4.589   0.506
93625SOL    HW282773   8.224   4.603   0.444
93626SOL     OW82774   1.779  13.767  10.930
93626SOL    HW182775   1.751  13.856  10.907
93626SOL    HW282776   1.865  13.758  10.889
93627SOL     OW82777  12.276   8.558   3.187
93627SOL    HW182778  12.290   8.493   3.118
93627SOL    HW282779  12.364   8.585   3.213
93628SOL     OW82780   5.572   6.773  12.287
93628SOL    HW182781   5.634   6.835  12.325
93628SOL    HW282782   5.624   6.725  12.222
93629SOL     OW82783   8.237   6.836   6.196
93629SOL    HW182784   8.267   6.746   6.180
93629SOL    HW282785   8.167   6.827   6.261
93630SOL     OW82786   0.301   7.721  14.268
93630SOL    HW182787   0.250   7.770  14.203
93630SOL    HW282788   0.370   7.678  14.218
93631SOL     OW82789  14.805  11.669   9.193
93631SOL    HW182790  14.849  11.647   9.275
93631SOL    HW282791  14.712  11.660   9.212
93632SOL     OW82792  13.490  13.636  14.042
93632SOL    HW182793  13.470  13.704  13.978
93632SOL    HW282794  13.486  13.554  13.993
93633SOL     OW82795  10.098  10.685  11.673
93633SOL    HW182796  10.114  10.597  11.639
93633SOL    HW282797  10.007  10.682  11.704
93634SOL     OW82798   9.294   4.616   0.798
93634SOL    HW182799   9.333   4.545   0.746
93634SOL    HW282800   9.289   4.690   0.737
93635SOL     OW82801   6.646   1.390   7.995
93635SOL    HW182802   6.647   1.484   8.007
93635SOL    HW282803   6.554   1.367   7.987
93636SOL     OW82804  12.423   0.129   1.904
93636SOL    HW182805  12.427   0.059   1.969
93636SOL    HW282806  12.330   0.133   1.880
93637SOL     OW82807  10.599  13.958  12.803
93637SOL    HW182808  10.587  14.027  12.868
93637SOL    HW282809  10.691  13.933  12.812
93638SOL     OW82810  14.667   4.453   5.702
93638SOL    HW182811  14.743   4.505   5.726
93638SOL    HW282812  14.616   4.511   5.644
93639SOL     OW82813  11.124  11.037   5.455
93639SOL    HW182814  11.054  11.086   5.496
93639SOL    HW282815  11.151  11.091   5.380
93640SOL     OW82816   8.006   1.386  10.985
93640SOL    HW182817   8.039   1.316  10.929
93640SOL    HW282818   7.921   1.408  10.948
93641SOL     OW82819   8.682  14.799   7.798
93641SOL    HW182820   8.618  14.839   7.738
93641SOL    HW282821   8.636  14.724   7.836
93642SOL     OW82822   6.168  14.412  13.450
93642SOL    HW182823   6.150  14.396  13.357
93642SOL    HW282824   6.161  14.507  13.461
93643SOL     OW82825   4.399  12.829   7.714
93643SOL    HW182826   4.409  12.909   7.767
93643SOL    HW282827   4.416  12.758   7.776
93644SOL     OW82828   9.059  13.896  14.356
93644SOL    HW182829   9.138  13.948  14.371
93644SOL    HW282830   9.092  13.810  14.330
93645SOL     OW82831   8.125  10.768   6.034
93645SOL    HW182832   8.169  10.687   6.058
93645SOL    HW282833   8.130  10.771   5.939
93646SOL     OW82834   5.885   4.910   7.292
93646SOL    HW182835   5.867   4.912   7.387
93646SOL    HW282836   5.939   4.832   7.280
93647SOL     OW82837   4.777  13.185   1.643
93647SOL    HW182838   4.732  13.100   1.643
93647SOL    HW282839   4.753  13.225   1.560
93648SOL     OW82840  14.002  14.262   7.321
93648SOL    HW182841  13.926  14.218   7.358
93648SOL    HW282842  13.991  14.354   7.347
93649SOL     OW82843   5.337   0.894   3.570
93649SOL    HW182844   5.374   0.826   3.625
93649SOL    HW282845   5.316   0.966   3.630
93650SOL     OW82846  11.804   0.105  14.443
93650SOL    HW182847  11.853   0.186  14.455
93650SOL    HW282848  11.867   0.044  14.405
93651SOL     OW82849  12.757   8.839   6.972
93651SOL    HW182850  12.731   8.894   7.046
93651SOL    HW282851  12.773   8.900   6.900
93652SOL     OW82852   2.808   4.296   6.589
93652SOL    HW182853   2.795   4.297   6.684
93652SOL    HW282854   2.780   4.209   6.562
93653SOL     OW82855   2.155  13.885   5.631
93653SOL    HW182856   2.084  13.835   5.670
93653SOL    HW282857   2.128  13.899   5.540
93654SOL     OW82858  12.226   4.130  12.051
93654SOL    HW182859  12.133   4.148  12.043
93654SOL    HW282860  12.267   4.182  11.982
93655SOL     OW82861  11.369  11.764   4.744
93655SOL    HW182862  11.304  11.780   4.812
93655SOL    HW282863  11.430  11.702   4.783
93656SOL     OW82864  13.689   3.874  14.341
93656SOL    HW182865  13.637   3.803  14.378
93656SOL    HW282866  13.741   3.832  14.272
93657SOL     OW82867  11.988   8.560  12.471
93657SOL    HW182868  12.051   8.599  12.532
93657SOL    HW282869  11.902   8.578  12.510
93658SOL     OW82870   4.380   2.531   3.371
93658SOL    HW182871   4.319   2.498   3.438
93658SOL    HW282872   4.371   2.626   3.377
93659SOL     OW82873   3.328  14.124   9.883
93659SOL    HW182874   3.360  14.089   9.966
93659SOL    HW282875   3.318  14.218   9.899
93660SOL     OW82876   9.943   5.312   7.705
93660SOL    HW182877   9.894   5.336   7.626
93660SOL    HW282878  10.012   5.378   7.711
93661SOL     OW82879   6.982  12.941  11.838
93661SOL    HW182880   7.036  13.019  11.847
93661SOL    HW282881   7.037  12.879  11.791
93662SOL     OW82882  12.339  13.039   9.288
93662SOL    HW182883  12.307  12.959   9.248
93662SOL    HW282884  12.301  13.110   9.235
93663SOL     OW82885  13.851  11.977   6.196
93663SOL    HW182886  13.937  11.936   6.210
93663SOL    HW282887  13.868  12.047   6.133
93664SOL     OW82888   8.472  11.230  12.645
93664SOL    HW182889   8.530  11.303  12.624
93664SOL    HW282890   8.415  11.263  12.714
93665SOL     OW82891  12.908   3.858   4.100
93665SOL    HW182892  12.831   3.858   4.043
93665SOL    HW282893  12.904   3.775   4.146
93666SOL     OW82894   6.012   6.616   5.783
93666SOL    HW182895   6.036   6.526   5.805
93666SOL    HW282896   5.972   6.651   5.863
93667SOL     OW82897   0.226   4.668  13.733
93667SOL    HW182898   0.272   4.723  13.797
93667SOL    HW282899   0.253   4.703  13.648
93668SOL     OW82900   0.904  11.980   4.493
93668SOL    HW182901   0.973  12.001   4.555
93668SOL    HW282902   0.881  12.064   4.453
93669SOL     OW82903   9.983   4.620  11.055
93669SOL    HW182904  10.072   4.655  11.045
93669SOL    HW282905   9.993   4.525  11.040
93670SOL     OW82906   7.919  13.191  13.601
93670SOL    HW182907   7.983  13.134  13.644
93670SOL    HW282908   7.850  13.203  13.666
93671SOL     OW82909   1.387  10.087  12.107
93671SOL    HW182910   1.382  10.118  12.197
93671SOL    HW282911   1.458  10.137  12.068
93672SOL     OW82912   7.129  11.895   6.902
93672SOL    HW182913   7.150  11.966   6.962
93672SOL    HW282914   7.174  11.917   6.821
93673SOL     OW82915   1.033  11.575  14.327
93673SOL    HW182916   1.097  11.509  14.352
93673SOL    HW282917   1.083  11.657  14.322
93674SOL     OW82918   0.764   0.684   2.236
93674SOL    HW182919   0.764   0.778   2.256
93674SOL    HW282920   0.763   0.679   2.141
93675SOL     OW82921   3.274   5.780   7.960
93675SOL    HW182922   3.225   5.756   8.038
93675SOL    HW282923   3.314   5.865   7.982
93676SOL     OW82924   5.813   6.534   6.508
93676SOL    HW182925   5.845   6.445   6.523
93676SOL    HW282926   5.746   6.525   6.440
93677SOL     OW82927   8.771   5.021   5.328
93677SOL    HW182928   8.719   5.015   5.408
93677SOL    HW282929   8.833   4.948   5.334
93678SOL     OW82930  14.631  11.055   8.987
93678SOL    HW182931  14.665  10.983   8.933
93678SOL    HW282932  14.709  11.096   9.025
93679SOL     OW82933   0.116   3.847   8.548
93679SOL    HW182934   0.086   3.845   8.457
93679SOL    HW282935   0.102   3.938   8.575
93680SOL     OW82936  12.474  11.738   8.436
93680SOL    HW182937  12.546  11.693   8.480
93680SOL    HW282938  12.509  11.824   8.413
93681SOL     OW82939  11.515   8.777   8.242
93681SOL    HW182940  11.588   8.832   8.212
93681SOL    HW282941  11.454   8.775   8.169
93682SOL     OW82942   0.699   3.855   6.858
93682SOL    HW182943   0.671   3.790   6.793
93682SOL    HW282944   0.683   3.813   6.943
93683SOL     OW82945  10.959   3.548   3.572
93683SOL    HW182946  10.925   3.568   3.485
93683SOL    HW282947  10.926   3.459   3.591
93684SOL     OW82948  13.555   9.751  11.174
93684SOL    HW182949  13.573   9.748  11.268
93684SOL    HW282950  13.536   9.660  11.150
93685SOL     OW82951   3.713   4.499  13.989
93685SOL    HW182952   3.626   4.506  13.949
93685SOL    HW282953   3.773   4.490  13.914
93686SOL     OW82954  10.736   9.347   5.531
93686SOL    HW182955  10.813   9.349   5.589
93686SOL    HW282956  10.730   9.256   5.503
93687SOL     OW82957   9.172   0.163  12.395
93687SOL    HW182958   9.263   0.165  12.363
93687SOL    HW282959   9.120   0.182  12.317
93688SOL     OW82960   6.407   7.803   7.963
93688SOL    HW182961   6.436   7.860   8.034
93688SOL    HW282962   6.311   7.807   7.967
93689SOL     OW82963  13.535   8.435  14.137
93689SOL    HW182964  13.457   8.485  14.113
93689SOL    HW282965  13.573   8.484  14.209
93690SOL     OW82966  10.645   8.657  13.480
93690SOL    HW182967  10.558   8.690  13.502
93690SOL    HW282968  10.684   8.727  13.427
93691SOL     OW82969  10.449   5.112   2.211
93691SOL    HW182970  10.359   5.110   2.246
93691SOL    HW282971  10.500   5.064   2.276
93692SOL     OW82972  12.330   5.109   9.863
93692SOL    HW182973  12.294   5.192   9.831
93692SOL    HW282974  12.299   5.103   9.954
93693SOL     OW82975   6.365   7.525  12.678
93693SOL    HW182976   6.316   7.574  12.612
93693SOL    HW282977   6.393   7.446  12.633
93694SOL     OW82978  12.528   1.242   0.572
93694SOL    HW182979  12.592   1.309   0.597
93694SOL    HW282980  12.447   1.290   0.556
93695SOL     OW82981  12.552  14.819   0.592
93695SOL    HW182982  12.588  14.742   0.549
93695SOL    HW282983  12.492  14.857   0.527
93696SOL     OW82984   9.341   6.128   4.861
93696SOL    HW182985   9.428   6.089   4.875
93696SOL    HW282986   9.359   6.210   4.816
93697SOL     OW82987  11.924   6.313   6.592
93697SOL    HW182988  11.874   6.280   6.667
93697SOL    HW282989  11.965   6.236   6.554
93698SOL     OW82990   0.907   3.551   5.864
93698SOL    HW182991   0.909   3.626   5.804
93698SOL    HW282992   0.999   3.531   5.880
93699SOL     OW82993   0.359  13.593   6.651
93699SOL    HW182994   0.280  13.641   6.625
93699SOL    HW282995   0.422  13.612   6.581
93700SOL     OW82996   8.720   0.622  13.449
93700SOL    HW182997   8.739   0.588  13.362
93700SOL    HW282998   8.785   0.580  13.506
93701SOL     OW82999   0.064   0.340   5.610
93701SOL    HW183000   0.153   0.304   5.612
93701SOL    HW283001   0.074   0.424   5.565
93702SOL     OW83002   5.773   6.283   4.166
93702SOL    HW183003   5.689   6.258   4.130
93702SOL    HW283004   5.765   6.266   4.260
93703SOL     OW83005  10.465  11.678  14.676
93703SOL    HW183006  10.532  11.615  14.703
93703SOL    HW283007  10.391  11.623  14.648
93704SOL     OW83008   6.896   2.384   5.521
93704SOL    HW183009   6.864   2.402   5.610
93704SOL    HW283010   6.850   2.449   5.467
93705SOL     OW83011   5.638   1.923   6.860
93705SOL    HW183012   5.669   1.845   6.906
93705SOL    HW283013   5.690   1.995   6.897
93706SOL     OW83014  13.049   7.351  12.818
93706SOL    HW183015  13.140   7.356  12.788
93706SOL    HW283016  13.051   7.390  12.905
93707SOL     OW83017   0.277   2.205   3.539
93707SOL    HW183018   0.290   2.283   3.486
93707SOL    HW283019   0.365   2.181   3.568
93708SOL     OW83020  10.052  12.410   0.343
93708SOL    HW183021  10.092  12.325   0.357
93708SOL    HW283022  10.044  12.418   0.247
93709SOL     OW83023   3.182   1.855   2.327
93709SOL    HW183024   3.096   1.817   2.345
93709SOL    HW283025   3.166   1.949   2.319
93710SOL     OW83026   7.644  10.957  12.043
93710SOL    HW183027   7.614  10.938  12.132
93710SOL    HW283028   7.675  10.873  12.009
93711SOL     OW83029  12.093  12.366   4.388
93711SOL    HW183030  12.119  12.308   4.459
93711SOL    HW283031  12.176  12.393   4.348
93712SOL     OW83032   1.024   1.641  10.966
93712SOL    HW183033   0.935   1.676  10.961
93712SOL    HW283034   1.037   1.620  11.059
93713SOL     OW83035   8.324   1.808   5.327
93713SOL    HW183036   8.380   1.793   5.404
93713SOL    HW283037   8.259   1.738   5.330
93714SOL     OW83038  12.020   5.451   2.854
93714SOL    HW183039  11.994   5.360   2.846
93714SOL    HW283040  11.984   5.479   2.938
93715SOL     OW83041   9.400   6.963   4.051
93715SOL    HW183042   9.382   6.892   3.989
93715SOL    HW283043   9.323   7.019   4.047
93716SOL     OW83044   0.084   3.490   3.037
93716SOL    HW183045   0.158   3.453   2.989
93716SOL    HW283046   0.104   3.473   3.129
93717SOL     OW83047   9.430  10.683   7.133
93717SOL    HW183048   9.464  10.606   7.179
93717SOL    HW283049   9.507  10.724   7.094
93718SOL     OW83050   8.088  14.798  13.992
93718SOL    HW183051   8.183  14.806  13.980
93718SOL    HW283052   8.073  14.703  13.997
93719SOL     OW83053   7.178   4.170   5.864
93719SOL    HW183054   7.210   4.151   5.952
93719SOL    HW283055   7.128   4.093   5.839
93720SOL     OW83056   5.940   7.533  12.261
93720SOL    HW183057   6.009   7.483  12.303
93720SOL    HW283058   5.862   7.517  12.315
93721SOL     OW83059  14.104   9.425   2.226
93721SOL    HW183060  14.181   9.450   2.175
93721SOL    HW283061  14.127   9.340   2.264
93722SOL     OW83062   7.719   0.848  10.543
93722SOL    HW183063   7.635   0.818  10.579
93722SOL    HW283064   7.711   0.944  10.542
93723SOL     OW83065  11.237   2.612   1.519
93723SOL    HW183066  11.215   2.640   1.608
93723SOL    HW283067  11.262   2.520   1.529
93724SOL     OW83068   4.098   1.248   8.414
93724SOL    HW183069   4.140   1.295   8.342
93724SOL    HW283070   4.164   1.247   8.483
93725SOL     OW83071   3.167  11.504  12.722
93725SOL    HW183072   3.207  11.574  12.773
93725SOL    HW283073   3.127  11.446  12.787
93726SOL     OW83074   6.878   2.004  14.412
93726SOL    HW183075   6.892   2.070  14.344
93726SOL    HW283076   6.815   2.045  14.472
93727SOL     OW83077  10.537  12.489   0.507
93727SOL    HW183078  10.551  12.422   0.574
93727SOL    HW283079  10.525  12.440   0.426
93728SOL     OW83080  10.389   7.974   4.202
93728SOL    HW183081  10.332   7.974   4.125
93728SOL    HW283082  10.354   8.045   4.257
93729SOL     OW83083  14.757   3.187  10.734
93729SOL    HW183084  14.824   3.144  10.681
93729SOL    HW283085  14.748   3.274  10.694
93730SOL     OW83086   1.946  11.685  11.037
93730SOL    HW183087   1.889  11.759  11.018
93730SOL    HW283088   2.034  11.723  11.045
93731SOL     OW83089   4.251  10.397   5.970
93731SOL    HW183090   4.274  10.316   5.925
93731SOL    HW283091   4.302  10.394   6.051
93732SOL     OW83092   2.438  10.331   9.531
93732SOL    HW183093   2.524  10.291   9.514
93732SOL    HW283094   2.439  10.350   9.625
93733SOL     OW83095  10.435  10.433  13.861
93733SOL    HW183096  10.461  10.435  13.769
93733SOL    HW283097  10.472  10.513  13.898
93734SOL     OW83098   0.434   6.048   0.719
93734SOL    HW183099   0.435   6.119   0.784
93734SOL    HW283100   0.342   6.039   0.695
93735SOL     OW83101   1.219  11.371  14.373
93735SOL    HW183102   1.206  11.407  14.461
93735SOL    HW283103   1.235  11.278  14.387
93736SOL     OW83104   7.032   3.190  11.277
93736SOL    HW183105   7.068   3.232  11.355
93736SOL    HW283106   7.034   3.258  11.210
93737SOL     OW83107   3.058  13.418   1.133
93737SOL    HW183108   3.087  13.487   1.073
93737SOL    HW283109   3.113  13.343   1.113
93738SOL     OW83110   9.824   9.798  14.651
93738SOL    HW183111   9.897   9.859  14.656
93738SOL    HW283112   9.802   9.793  14.558
93739SOL     OW83113  10.548   8.574   5.676
93739SOL    HW183114  10.623   8.521   5.651
93739SOL    HW283115  10.552   8.578   5.772
93740SOL     OW83116   1.462  11.425   8.905
93740SOL    HW183117   1.543  11.407   8.858
93740SOL    HW283118   1.485  11.494   8.967
93741SOL     OW83119   0.020   1.930   6.515
93741SOL    HW183120   0.023   2.025   6.507
93741SOL    HW283121   0.107   1.901   6.487
93742SOL     OW83122  11.370   5.700  14.131
93742SOL    HW183123  11.394   5.627  14.075
93742SOL    HW283124  11.327   5.660  14.207
93743SOL     OW83125  11.693  10.870   2.022
93743SOL    HW183126  11.713  10.896   2.112
93743SOL    HW283127  11.618  10.811   2.030
93744SOL     OW83128  14.847   8.160   6.165
93744SOL    HW183129  14.854   8.241   6.216
93744SOL    HW283130   0.045   8.164   6.103
93745SOL     OW83131   6.554   7.910   9.877
93745SOL    HW183132   6.612   7.890   9.950
93745SOL    HW283133   6.467   7.919   9.917
93746SOL     OW83134   7.900   3.285  13.424
93746SOL    HW183135   7.951   3.242  13.493
93746SOL    HW283136   7.812   3.294  13.460
93747SOL     OW83137   1.839   0.556   5.037
93747SOL    HW183138   1.930   0.542   5.063
93747SOL    HW283139   1.800   0.604   5.110
93748SOL     OW83140  14.424   3.287   3.937
93748SOL    HW183141  14.333   3.309   3.957
93748SOL    HW283142  14.430   3.296   3.842
93749SOL     OW83143   6.833  10.489  12.766
93749SOL    HW183144   6.782  10.508  12.844
93749SOL    HW283145   6.858  10.397  12.775
93750SOL     OW83146  12.639   8.129  13.132
93750SOL    HW183147  12.595   8.205  13.094
93750SOL    HW283148  12.660   8.073  13.057
93751SOL     OW83149  12.845  14.245   6.242
93751SOL    HW183150  12.803  14.179   6.187
93751SOL    HW283151  12.772  14.288   6.287
93752SOL     OW83152  12.001   1.429   8.439
93752SOL    HW183153  12.010   1.366   8.510
93752SOL    HW283154  11.928   1.396   8.386
93753SOL     OW83155   8.634  12.917   8.115
93753SOL    HW183156   8.608  12.924   8.206
93753SOL    HW283157   8.721  12.878   8.118
93754SOL     OW83158   5.392  11.923   8.967
93754SOL    HW183159   5.402  11.832   8.993
93754SOL    HW283160   5.298  11.939   8.970
93755SOL     OW83161   6.017  14.323   5.825
93755SOL    HW183162   5.928  14.307   5.796
93755SOL    HW283163   6.072  14.299   5.750
93756SOL     OW83164   5.376  11.840  10.618
93756SOL    HW183165   5.295  11.811  10.575
93756SOL    HW283166   5.398  11.921  10.573
93757SOL     OW83167  14.800  14.782   3.616
93757SOL    HW183168  14.777  14.749   3.529
93757SOL    HW283169  14.717  14.817   3.651
93758SOL     OW83170   6.248  13.378   0.286
93758SOL    HW183171   6.171  13.336   0.247
93758SOL    HW283172   6.291  13.422   0.213
93759SOL     OW83173   3.595   5.487   9.540
93759SOL    HW183174   3.597   5.485   9.636
93759SOL    HW283175   3.504   5.509   9.519
93760SOL     OW83176   5.212   3.944  12.539
93760SOL    HW183177   5.160   3.933  12.459
93760SOL    HW283178   5.192   4.032  12.569
93761SOL     OW83179  11.407   8.259   6.472
93761SOL    HW183180  11.496   8.241   6.440
93761SOL    HW283181  11.421   8.313   6.550
93762SOL     OW83182   7.212  13.554  12.532
93762SOL    HW183183   7.191  13.599  12.450
93762SOL    HW283184   7.184  13.464  12.518
93763SOL     OW83185   5.358   3.025   0.662
93763SOL    HW183186   5.311   2.975   0.595
93763SOL    HW283187   5.390   3.103   0.617
93764SOL     OW83188   2.280  10.710  14.742
93764SOL    HW183189   2.364  10.690  14.702
93764SOL    HW283190   2.297  10.709  14.836
93765SOL     OW83191  14.398  11.538  10.225
93765SOL    HW183192  14.339  11.495  10.287
93765SOL    HW283193  14.345  11.607  10.185
93766SOL     OW83194  12.578  11.743   0.162
93766SOL    HW183195  12.616  11.799   0.230
93766SOL    HW283196  12.649  11.729   0.101
93767SOL     OW83197   0.954   0.372  10.803
93767SOL    HW183198   0.979   0.313  10.874
93767SOL    HW283199   0.974   0.324  10.723
93768SOL     OW83200   0.426   9.520  14.363
93768SOL    HW183201   0.355   9.569  14.320
93768SOL    HW283202   0.422   9.549  14.455
93769SOL     OW83203   3.062   3.297  13.274
93769SOL    HW183204   3.105   3.244  13.207
93769SOL    HW283205   2.978   3.321  13.235
93770SOL     OW83206   0.816   9.176  12.746
93770SOL    HW183207   0.750   9.242  12.725
93770SOL    HW283208   0.834   9.133  12.663
93771SOL     OW83209   5.513   8.671   0.263
93771SOL    HW183210   5.507   8.736   0.333
93771SOL    HW283211   5.575   8.606   0.297
93772SOL     OW83212  10.227  11.491   5.033
93772SOL    HW183213  10.240  11.560   5.098
93772SOL    HW283214  10.172  11.530   4.966
93773SOL     OW83215   8.592  12.741  12.351
93773SOL    HW183216   8.596  12.661  12.403
93773SOL    HW283217   8.683  12.771  12.346
93774SOL     OW83218  11.162   6.331   9.641
93774SOL    HW183219  11.107   6.358   9.568
93774SOL    HW283220  11.125   6.247   9.670
93775SOL     OW83221  12.670   1.800   2.169
93775SOL    HW183222  12.764   1.809   2.152
93775SOL    HW283223  12.656   1.706   2.179
93776SOL     OW83224   1.423   4.402  14.229
93776SOL    HW183225   1.503   4.363  14.195
93776SOL    HW283226   1.427   4.493  14.200
93777SOL     OW83227   7.884   5.215   3.564
93777SOL    HW183228   7.950   5.152   3.535
93777SOL    HW283229   7.827   5.227   3.488
93778SOL     OW83230  12.325   4.149  12.736
93778SOL    HW183231  12.265   4.174  12.666
93778SOL    HW283232  12.308   4.056  12.751
93779SOL     OW83233  14.488  11.927   4.334
93779SOL    HW183234  14.476  12.001   4.393
93779SOL    HW283235  14.403  11.914   4.293
93780SOL     OW83236   6.600  10.862   1.730
93780SOL    HW183237   6.661  10.907   1.671
93780SOL    HW283238   6.646  10.859   1.814
93781SOL     OW83239   8.057   7.472   9.218
93781SOL    HW183240   8.153   7.482   9.220
93781SOL    HW283241   8.027   7.515   9.298
93782SOL     OW83242  14.568   0.927   7.039
93782SOL    HW183243  14.546   0.880   6.959
93782SOL    HW283244  14.664   0.933   7.037
93783SOL     OW83245   9.723  11.170   4.506
93783SOL    HW183246   9.768  11.144   4.426
93783SOL    HW283247   9.781  11.234   4.547
93784SOL     OW83248   6.039  13.757   2.190
93784SOL    HW183249   6.023  13.731   2.100
93784SOL    HW283250   6.134  13.750   2.201
93785SOL     OW83251   1.383   7.747   0.892
93785SOL    HW183252   1.448   7.793   0.945
93785SOL    HW283253   1.300   7.788   0.915
93786SOL     OW83254   7.865   1.984   2.458
93786SOL    HW183255   7.874   1.890   2.442
93786SOL    HW283256   7.773   1.996   2.481
93787SOL     OW83257  11.637   6.575   3.054
93787SOL    HW183258  11.670   6.609   2.970
93787SOL    HW283259  11.678   6.631   3.120
93788SOL     OW83260  13.922   2.690   2.849
93788SOL    HW183261  13.948   2.774   2.888
93788SOL    HW283262  13.941   2.625   2.916
93789SOL     OW83263   9.411  13.823  10.478
93789SOL    HW183264   9.395  13.831  10.572
93789SOL    HW283265   9.505  13.803  10.472
93790SOL     OW83266   7.962   3.926  10.015
93790SOL    HW183267   7.948   3.842  10.059
93790SOL    HW283268   8.040   3.912   9.961
93791SOL     OW83269  10.638   5.492   3.694
93791SOL    HW183270  10.652   5.486   3.789
93791SOL    HW283271  10.564   5.552   3.685
93792SOL     OW83272  12.197  12.031   4.177
93792SOL    HW183273  12.121  12.085   4.155
93792SOL    HW283274  12.192  12.021   4.272
93793SOL     OW83275   6.949   0.182  12.701
93793SOL    HW183276   6.937   0.275  12.721
93793SOL    HW283277   7.022   0.179  12.640
93794SOL     OW83278   7.624   7.490  12.760
93794SOL    HW183279   7.697   7.526  12.811
93794SOL    HW283280   7.568   7.566  12.742
93795SOL     OW83281   3.448   2.898   4.487
93795SOL    HW183282   3.428   2.958   4.558
93795SOL    HW283283   3.364   2.858   4.465
93796SOL     OW83284   3.917  11.439   0.674
93796SOL    HW183285   3.909  11.345   0.687
93796SOL    HW283286   3.828  11.470   0.658
93797SOL     OW83287   9.023   9.314   4.476
93797SOL    HW183288   9.087   9.365   4.426
93797SOL    HW283289   9.064   9.301   4.561
93798SOL     OW83290   3.082  11.187  12.877
93798SOL    HW183291   3.130  11.233  12.946
93798SOL    HW283292   2.995  11.173  12.914
93799SOL     OW83293  12.467   5.675  11.822
93799SOL    HW183294  12.436   5.737  11.888
93799SOL    HW283295  12.442   5.589  11.855
93800SOL     OW83296   4.246  11.906  14.836
93800SOL    HW183297   4.253  11.812  14.853
93800SOL    HW283298   4.262  11.947   0.046
93801SOL     OW83299  12.297   1.974   7.281
93801SOL    HW183300  12.241   2.037   7.234
93801SOL    HW283301  12.345   2.027   7.344
93802SOL     OW83302  14.579  11.333   4.126
93802SOL    HW183303  14.557  11.356   4.217
93802SOL    HW283304  14.674  11.344   4.121
93803SOL     OW83305  11.030   0.441   3.932
93803SOL    HW183306  11.066   0.480   3.852
93803SOL    HW283307  11.097   0.453   3.998
93804SOL     OW83308  10.974  13.964   2.476
93804SOL    HW183309  10.981  13.878   2.434
93804SOL    HW283310  11.050  14.013   2.442
93805SOL     OW83311  10.812   6.099   0.645
93805SOL    HW183312  10.789   6.162   0.713
93805SOL    HW283313  10.738   6.038   0.643
93806SOL     OW83314   3.507   7.448  10.085
93806SOL    HW183315   3.562   7.410  10.017
93806SOL    HW283316   3.505   7.541  10.065
93807SOL     OW83317  12.858   7.846   1.830
93807SOL    HW183318  12.833   7.769   1.780
93807SOL    HW283319  12.777   7.897   1.838
93808SOL     OW83320   4.873   0.975   9.865
93808SOL    HW183321   4.865   0.881   9.882
93808SOL    HW283322   4.785   1.003   9.839
93809SOL     OW83323   9.254   1.715   7.637
93809SOL    HW183324   9.275   1.797   7.592
93809SOL    HW283325   9.337   1.687   7.676
93810SOL     OW83326  13.526  12.671   7.216
93810SOL    HW183327  13.525  12.642   7.125
93810SOL    HW283328  13.465  12.745   7.219
93811SOL     OW83329   8.360   4.135   6.017
93811SOL    HW183330   8.368   4.065   5.952
93811SOL    HW283331   8.423   4.202   5.988
93812SOL     OW83332  12.953  11.647   9.286
93812SOL    HW183333  12.908  11.627   9.204
93812SOL    HW283334  12.932  11.573   9.342
93813SOL     OW83335  13.841   8.484  10.153
93813SOL    HW183336  13.747   8.493  10.144
93813SOL    HW283337  13.876   8.568  10.123
93814SOL     OW83338   1.183  14.515   6.945
93814SOL    HW183339   1.140  14.593   6.978
93814SOL    HW283340   1.276  14.533   6.953
93815SOL     OW83341   9.294   3.930   1.060
93815SOL    HW183342   9.357   3.858   1.064
93815SOL    HW283343   9.211   3.892   1.088
93816SOL     OW83344   1.262   1.507  10.888
93816SOL    HW183345   1.185   1.554  10.920
93816SOL    HW283346   1.232   1.418  10.872
93817SOL     OW83347   3.411  11.683  10.771
93817SOL    HW183348   3.446  11.599  10.740
93817SOL    HW283349   3.393  11.669  10.863
93818SOL     OW83350  13.110   3.248   3.221
93818SOL    HW183351  13.087   3.184   3.154
93818SOL    HW283352  13.081   3.209   3.304
93819SOL     OW83353   3.053  12.643   2.418
93819SOL    HW183354   3.010  12.711   2.471
93819SOL    HW283355   3.031  12.667   2.328
93820SOL     OW83356   9.217   7.606   0.866
93820SOL    HW183357   9.247   7.518   0.889
93820SOL    HW283358   9.144   7.622   0.926
93821SOL     OW83359   5.274   9.958   4.314
93821SOL    HW183360   5.183   9.935   4.295
93821SOL    HW283361   5.308   9.993   4.232
93822SOL     OW83362  12.577   9.342   1.647
93822SOL    HW183363  12.490   9.382   1.648
93822SOL    HW283364  12.637   9.416   1.637
93823SOL     OW83365  11.946   7.581   0.561
93823SOL    HW183366  12.027   7.614   0.599
93823SOL    HW283367  11.897   7.545   0.635
93824SOL     OW83368   5.767   9.327  11.551
93824SOL    HW183369   5.740   9.338  11.642
93824SOL    HW283370   5.734   9.240  11.526
93825SOL     OW83371  11.599   4.036   6.567
93825SOL    HW183372  11.629   4.012   6.655
93825SOL    HW283373  11.587   3.953   6.522
93826SOL     OW83374  13.016   0.431   4.075
93826SOL    HW183375  13.086   0.491   4.048
93826SOL    HW283376  12.936   0.484   4.068
93827SOL     OW83377   4.013  13.345   4.441
93827SOL    HW183378   4.042  13.314   4.355
93827SOL    HW283379   3.927  13.384   4.425
93828SOL     OW83380   6.694   3.100  11.374
93828SOL    HW183381   6.754   3.103  11.300
93828SOL    HW283382   6.687   3.191  11.404
93829SOL     OW83383   7.090   9.840   6.570
93829SOL    HW183384   7.126   9.751   6.578
93829SOL    HW283385   7.111   9.866   6.481
93830SOL     OW83386   0.861   2.008   4.554
93830SOL    HW183387   0.797   1.980   4.619
93830SOL    HW283388   0.926   2.057   4.605
93831SOL     OW83389  14.543   7.365  12.638
93831SOL    HW183390  14.495   7.435  12.593
93831SOL    HW283391  14.541   7.292  12.576
93832SOL     OW83392   7.298  10.893   0.030
93832SOL    HW183393   7.221  10.874   0.084
93832SOL    HW283394   7.275  10.858  14.818
93833SOL     OW83395   5.703   5.110   5.401
93833SOL    HW183396   5.717   5.159   5.320
93833SOL    HW283397   5.778   5.133   5.456
93834SOL     OW83398  14.758  13.330   5.479
93834SOL    HW183399  14.762  13.289   5.392
93834SOL    HW283400  14.686  13.286   5.522
93835SOL     OW83401   3.646   7.943   7.519
93835SOL    HW183402   3.668   7.879   7.451
93835SOL    HW283403   3.646   8.027   7.474
93836SOL     OW83404   1.376   3.238  13.542
93836SOL    HW183405   1.405   3.273  13.458
93836SOL    HW283406   1.434   3.162  13.557
93837SOL     OW83407   2.837   3.429   1.232
93837SOL    HW183408   2.932   3.438   1.237
93837SOL    HW283409   2.812   3.478   1.154
93838SOL     OW83410   4.273  13.682   3.849
93838SOL    HW183411   4.334  13.634   3.906
93838SOL    HW283412   4.316  13.683   3.764
93839SOL     OW83413  13.022   1.618   7.488
93839SOL    HW183414  12.977   1.568   7.420
93839SOL    HW283415  12.965   1.692   7.506
93840SOL     OW83416   2.473  14.833   5.252
93840SOL    HW183417   2.407  14.763   5.253
93840SOL    HW283418   2.505  14.838   5.342
93841SOL     OW83419  14.759  10.094   6.856
93841SOL    HW183420  14.833  10.096   6.917
93841SOL    HW283421  14.728  10.184   6.853
93842SOL     OW83422   6.252   1.890   1.955
93842SOL    HW183423   6.231   1.814   1.902
93842SOL    HW283424   6.323   1.860   2.013
93843SOL     OW83425   0.235   3.725   4.870
93843SOL    HW183426   0.147   3.695   4.891
93843SOL    HW283427   0.292   3.678   4.931
93844SOL     OW83428   5.379   7.950  10.553
93844SOL    HW183429   5.378   7.944  10.648
93844SOL    HW283430   5.330   7.873  10.524
93845SOL     OW83431   7.354   5.538  11.830
93845SOL    HW183432   7.390   5.449  11.836
93845SOL    HW283433   7.417   5.585  11.776
93846SOL     OW83434  14.865   1.354   5.382
93846SOL    HW183435   0.057   1.382   5.445
93846SOL    HW283436   0.014   1.263   5.361
93847SOL     OW83437  11.756  13.933  12.840
93847SOL    HW183438  11.843  13.971  12.843
93847SOL    HW283439  11.698  14.006  12.818
93848SOL     OW83440   8.729   8.773  10.456
93848SOL    HW183441   8.766   8.792  10.542
93848SOL    HW283442   8.804   8.745  10.404
93849SOL     OW83443  12.064   0.461   7.129
93849SOL    HW183444  12.116   0.541   7.114
93849SOL    HW283445  12.129   0.391   7.129
93850SOL     OW83446   3.374   5.960  11.501
93850SOL    HW183447   3.342   5.872  11.482
93850SOL    HW283448   3.468   5.956  11.483
93851SOL     OW83449  11.092   2.301   2.357
93851SOL    HW183450  11.027   2.370   2.372
93851SOL    HW283451  11.173   2.336   2.395
93852SOL     OW83452   6.926   0.814   6.418
93852SOL    HW183453   7.007   0.775   6.451
93852SOL    HW283454   6.923   0.901   6.458
93853SOL     OW83455  11.552   9.456  10.009
93853SOL    HW183456  11.539   9.551  10.016
93853SOL    HW283457  11.470   9.423   9.972
93854SOL     OW83458   6.429   1.428   1.632
93854SOL    HW183459   6.341   1.447   1.600
93854SOL    HW283460   6.479   1.407   1.553
93855SOL     OW83461   7.910   9.840   6.452
93855SOL    HW183462   7.964   9.768   6.419
93855SOL    HW283463   7.968   9.916   6.453
93856SOL     OW83464  14.589   6.806   0.748
93856SOL    HW183465  14.646   6.731   0.767
93856SOL    HW283466  14.592   6.814   0.653
93857SOL     OW83467   3.920  10.020  12.758
93857SOL    HW183468   3.934  10.031  12.852
93857SOL    HW283469   3.936   9.927  12.742
93858SOL     OW83470   0.895  14.218  11.725
93858SOL    HW183471   0.898  14.139  11.671
93858SOL    HW283472   0.978  14.262  11.706
93859SOL     OW83473  10.851   0.049   1.995
93859SOL    HW183474  10.813   0.013   2.076
93859SOL    HW283475  10.946   0.045   2.010
93860SOL     OW83476   6.483  12.439  12.122
93860SOL    HW183477   6.485  12.422  12.216
93860SOL    HW283478   6.436  12.364  12.085
93861SOL     OW83479   7.667   6.345   0.918
93861SOL    HW183480   7.595   6.343   0.855
93861SOL    HW283481   7.674   6.255   0.949
93862SOL     OW83482  11.599  14.264   7.900
93862SOL    HW183483  11.612  14.354   7.871
93862SOL    HW283484  11.588  14.270   7.995
93863SOL     OW83485   2.642   2.696  13.585
93863SOL    HW183486   2.724   2.654  13.559
93863SOL    HW283487   2.618   2.751  13.510
93864SOL     OW83488   5.850   1.687   6.765
93864SOL    HW183489   5.924   1.744   6.746
93864SOL    HW283490   5.826   1.709   6.856
93865SOL     OW83491   2.316  11.015  11.360
93865SOL    HW183492   2.340  11.061  11.280
93865SOL    HW283493   2.220  11.016  11.360
93866SOL     OW83494   2.222   9.157   6.816
93866SOL    HW183495   2.195   9.201   6.897
93866SOL    HW283496   2.166   9.079   6.812
93867SOL     OW83497   5.608  12.374  13.944
93867SOL    HW183498   5.571  12.461  13.928
93867SOL    HW283499   5.549  12.335  14.009
93868SOL     OW83500   3.176   1.400   4.916
93868SOL    HW183501   3.153   1.311   4.890
93868SOL    HW283502   3.169   1.399   5.011
93869SOL     OW83503  10.497   3.033   6.400
93869SOL    HW183504  10.588   3.033   6.430
93869SOL    HW283505  10.503   3.029   6.305
93870SOL     OW83506  10.939  14.145  10.513
93870SOL    HW183507  11.023  14.177  10.480
93870SOL    HW283508  10.876  14.213  10.489
93871SOL     OW83509  10.940   7.448   7.432
93871SOL    HW183510  11.013   7.510   7.427
93871SOL    HW283511  10.971   7.371   7.384
93872SOL     OW83512  13.860  13.843  12.996
93872SOL    HW183513  13.930  13.778  12.993
93872SOL    HW283514  13.779  13.791  12.998
93873SOL     OW83515  14.208   9.098  14.434
93873SOL    HW183516  14.159   9.051  14.502
93873SOL    HW283517  14.235   9.029  14.373
93874SOL     OW83518   2.384   7.688   7.482
93874SOL    HW183519   2.331   7.767   7.493
93874SOL    HW283520   2.320   7.618   7.467
93875SOL     OW83521   2.139   0.783  13.816
93875SOL    HW183522   2.147   0.761  13.909
93875SOL    HW283523   2.044   0.786  13.800
93876SOL     OW83524   9.736  14.307   8.238
93876SOL    HW183525   9.691  14.385   8.271
93876SOL    HW283526   9.688  14.283   8.159
93877SOL     OW83527   6.048   6.590   6.878
93877SOL    HW183528   6.077   6.681   6.890
93877SOL    HW283529   6.105   6.557   6.809
93878SOL     OW83530  11.173  13.225  13.309
93878SOL    HW183531  11.141  13.151  13.257
93878SOL    HW283532  11.234  13.271  13.251
93879SOL     OW83533   7.969   7.238   7.031
93879SOL    HW183534   7.903   7.285   6.980
93879SOL    HW283535   7.920   7.170   7.077
93880SOL     OW83536   8.831   6.793   2.932
93880SOL    HW183537   8.923   6.784   2.906
93880SOL    HW283538   8.783   6.739   2.870
93881SOL     OW83539  14.687   5.764  11.202
93881SOL    HW183540  14.716   5.679  11.236
93881SOL    HW283541  14.611   5.743  11.148
93882SOL     OW83542   3.494   0.616   5.065
93882SOL    HW183543   3.421   0.672   5.038
93882SOL    HW283544   3.572   0.672   5.055
93883SOL     OW83545   5.834   6.367   7.052
93883SOL    HW183546   5.878   6.299   7.001
93883SOL    HW283547   5.814   6.435   6.988
93884SOL     OW83548   7.244   5.154   2.447
93884SOL    HW183549   7.215   5.191   2.363
93884SOL    HW283550   7.338   5.142   2.437
93885SOL     OW83551   9.019   5.601   1.665
93885SOL    HW183552   9.065   5.603   1.581
93885SOL    HW283553   8.944   5.544   1.651
93886SOL     OW83554   0.162   7.919   4.475
93886SOL    HW183555   0.216   7.841   4.490
93886SOL    HW283556   0.225   7.987   4.450
93887SOL     OW83557  13.241   5.168   8.777
93887SOL    HW183558  13.301   5.220   8.724
93887SOL    HW283559  13.297   5.101   8.817
93888SOL     OW83560   2.901  13.475  13.015
93888SOL    HW183561   2.899  13.537  13.089
93888SOL    HW283562   2.944  13.523  12.945
93889SOL     OW83563   3.604   5.725   5.526
93889SOL    HW183564   3.512   5.752   5.531
93889SOL    HW283565   3.624   5.729   5.432
93890SOL     OW83566   5.555   8.078  12.858
93890SOL    HW183567   5.501   8.156  12.876
93890SOL    HW283568   5.563   8.035  12.943
93891SOL     OW83569  12.885   1.664   2.780
93891SOL    HW183570  12.980   1.668   2.793
93891SOL    HW283571  12.855   1.755   2.792
93892SOL     OW83572   1.733   7.280   7.476
93892SOL    HW183573   1.750   7.186   7.486
93892SOL    HW283574   1.747   7.298   7.383
93893SOL     OW83575  13.261  11.793   6.382
93893SOL    HW183576  13.301  11.739   6.450
93893SOL    HW283577  13.322  11.865   6.369
93894SOL     OW83578   8.516  13.860   0.052
93894SOL    HW183579   8.595  13.895   0.093
93894SOL    HW283580   8.492  13.926  14.862
93895SOL     OW83581   8.267   7.878  11.328
93895SOL    HW183582   8.231   7.805  11.279
93895SOL    HW283583   8.205   7.893  11.399
93896SOL     OW83584   9.143   0.629   5.510
93896SOL    HW183585   9.127   0.543   5.471
93896SOL    HW283586   9.187   0.610   5.593
93897SOL     OW83587  11.051   0.270   9.273
93897SOL    HW183588  11.105   0.313   9.339
93897SOL    HW283589  10.992   0.214   9.323
93898SOL     OW83590  11.699   2.404  12.696
93898SOL    HW183591  11.775   2.350  12.672
93898SOL    HW283592  11.716   2.430  12.786
93899SOL     OW83593  10.486   4.022   1.782
93899SOL    HW183594  10.419   3.955   1.799
93899SOL    HW283595  10.464   4.094   1.842
93900SOL     OW83596   0.603   9.541  11.707
93900SOL    HW183597   0.649   9.520  11.788
93900SOL    HW283598   0.554   9.462  11.686
93901SOL     OW83599  14.122   4.982   8.426
93901SOL    HW183600  14.138   4.898   8.470
93901SOL    HW283601  14.075   5.035   8.491
93902SOL     OW83602   9.114  13.056  12.192
93902SOL    HW183603   9.039  13.101  12.232
93902SOL    HW283604   9.093  13.053  12.099
93903SOL     OW83605   4.995  13.474   1.252
93903SOL    HW183606   5.054  13.510   1.185
93903SOL    HW283607   4.972  13.387   1.219
93904SOL     OW83608  11.119  13.147   7.370
93904SOL    HW183609  11.203  13.192   7.379
93904SOL    HW283610  11.056  13.217   7.354
93905SOL     OW83611   3.815  13.889  11.415
93905SOL    HW183612   3.782  13.954  11.477
93905SOL    HW283613   3.869  13.939  11.354
93906SOL     OW83614  12.687  14.576   0.650
93906SOL    HW183615  12.649  14.632   0.717
93906SOL    HW283616  12.611  14.538   0.605
93907SOL     OW83617  10.093  12.225   1.767
93907SOL    HW183618  10.098  12.147   1.713
93907SOL    HW283619  10.043  12.288   1.715
93908SOL     OW83620   4.536   5.589   8.961
93908SOL    HW183621   4.484   5.654   9.008
93908SOL    HW283622   4.472   5.535   8.915
93909SOL     OW83623  12.090  10.004   1.473
93909SOL    HW183624  12.186   9.994   1.473
93909SOL    HW283625  12.066  10.002   1.380
93910SOL     OW83626   9.313   0.754  12.580
93910SOL    HW183627   9.268   0.789  12.656
93910SOL    HW283628   9.404   0.780  12.592
93911SOL     OW83629   9.966   2.426   9.527
93911SOL    HW183630   9.887   2.372   9.523
93911SOL    HW283631   9.942   2.507   9.482
93912SOL     OW83632   9.426   4.106   8.942
93912SOL    HW183633   9.332   4.098   8.930
93912SOL    HW283634   9.462   4.027   8.902
93913SOL     OW83635   8.902  14.384   0.099
93913SOL    HW183636   8.965  14.450   0.072
93913SOL    HW283637   8.856  14.423   0.174
93914SOL     OW83638   0.962   0.494  14.687
93914SOL    HW183639   0.936   0.498  14.595
93914SOL    HW283640   1.043   0.545  14.691
93915SOL     OW83641  11.114  10.089  12.966
93915SOL    HW183642  11.093  10.014  13.022
93915SOL    HW283643  11.087  10.165  13.017
93916SOL     OW83644   8.257   3.727  10.744
93916SOL    HW183645   8.328   3.789  10.730
93916SOL    HW283646   8.249   3.722  10.840
93917SOL     OW83647  13.965   5.257   1.201
93917SOL    HW183648  14.010   5.221   1.124
93917SOL    HW283649  14.019   5.331   1.228
93918SOL     OW83650  11.095   1.822   8.506
93918SOL    HW183651  11.151   1.870   8.445
93918SOL    HW283652  11.026   1.784   8.450
93919SOL     OW83653  10.504  10.405   3.710
93919SOL    HW183654  10.528  10.483   3.760
93919SOL    HW283655  10.485  10.339   3.777
93920SOL     OW83656   6.677   7.022   7.873
93920SOL    HW183657   6.634   6.941   7.844
93920SOL    HW283658   6.753   6.992   7.922
93921SOL     OW83659  14.408   7.797   8.223
93921SOL    HW183660  14.344   7.854   8.182
93921SOL    HW283661  14.492   7.842   8.210
93922SOL     OW83662   9.599   8.492   9.880
93922SOL    HW183663   9.659   8.457   9.946
93922SOL    HW283664   9.549   8.560   9.926
93923SOL     OW83665   3.030   5.470  12.858
93923SOL    HW183666   3.093   5.506  12.920
93923SOL    HW283667   3.005   5.544  12.803
93924SOL     OW83668   9.031  13.112  13.227
93924SOL    HW183669   8.972  13.042  13.256
93924SOL    HW283670   9.039  13.099  13.133
93925SOL     OW83671   1.084  12.465   0.562
93925SOL    HW183672   1.082  12.497   0.471
93925SOL    HW283673   1.059  12.373   0.556
93926SOL     OW83674   2.568   7.847   8.505
93926SOL    HW183675   2.509   7.922   8.522
93926SOL    HW283676   2.652   7.887   8.484
93927SOL     OW83677   5.147   6.553   2.817
93927SOL    HW183678   5.053   6.542   2.830
93927SOL    HW283679   5.178   6.595   2.897
93928SOL     OW83680   9.074   6.102  12.729
93928SOL    HW183681   9.051   6.193  12.748
93928SOL    HW283682   9.005   6.051  12.771
93929SOL     OW83683  11.962   3.759  12.934
93929SOL    HW183684  11.902   3.798  12.998
93929SOL    HW283685  11.927   3.672  12.917
93930SOL     OW83686  12.767   4.206   4.708
93930SOL    HW183687  12.725   4.241   4.630
93930SOL    HW283688  12.802   4.283   4.753
93931SOL     OW83689   6.239  10.889   6.693
93931SOL    HW183690   6.300  10.954   6.727
93931SOL    HW283691   6.237  10.819   6.759
93932SOL     OW83692   0.032   5.979   5.135
93932SOL    HW183693  14.850   6.050   5.108
93932SOL    HW283694   0.076   5.951   5.055
93933SOL     OW83695   3.475   7.699   4.919
93933SOL    HW183696   3.477   7.682   4.825
93933SOL    HW283697   3.530   7.776   4.931
93934SOL     OW83698   1.983   8.311   1.002
93934SOL    HW183699   1.988   8.230   1.054
93934SOL    HW283700   1.904   8.355   1.035
93935SOL     OW83701  10.863   3.605  13.665
93935SOL    HW183702  10.785   3.565  13.627
93935SOL    HW283703  10.904   3.653  13.593
93936SOL     OW83704  14.828  12.001   4.552
93936SOL    HW183705  14.838  12.068   4.484
93936SOL    HW283706   0.043  11.977   4.575
93937SOL     OW83707   5.206   6.471   0.209
93937SOL    HW183708   5.244   6.504   0.127
93937SOL    HW283709   5.281   6.455   0.266
93938SOL     OW83710   5.882   8.745  13.966
93938SOL    HW183711   5.922   8.663  13.993
93938SOL    HW283712   5.789   8.734  13.984
93939SOL     OW83713   7.505   8.888   8.477
93939SOL    HW183714   7.517   8.796   8.454
93939SOL    HW283715   7.470   8.928   8.397
93940SOL     OW83716   8.992   7.962  12.865
93940SOL    HW183717   8.921   7.982  12.925
93940SOL    HW283718   8.981   7.869  12.845
93941SOL     OW83719   2.925  10.401   4.787
93941SOL    HW183720   3.001  10.393   4.845
93941SOL    HW283721   2.961  10.396   4.699
93942SOL     OW83722   4.702   8.856   5.823
93942SOL    HW183723   4.611   8.836   5.800
93942SOL    HW283724   4.695   8.903   5.907
93943SOL     OW83725   2.336   2.715   0.347
93943SOL    HW183726   2.382   2.717   0.263
93943SOL    HW283727   2.243   2.715   0.323
93944SOL     OW83728   8.251  14.629  13.760
93944SOL    HW183729   8.219  14.602  13.846
93944SOL    HW283730   8.244  14.550  13.706
93945SOL     OW83731  12.358  10.410   0.685
93945SOL    HW183732  12.375  10.398   0.592
93945SOL    HW283733  12.341  10.504   0.695
93946SOL     OW83734  12.359  11.515   8.245
93946SOL    HW183735  12.307  11.469   8.310
93946SOL    HW283736  12.409  11.580   8.295
93947SOL     OW83737   4.535  11.814   2.472
93947SOL    HW183738   4.481  11.796   2.395
93947SOL    HW283739   4.583  11.894   2.450
93948SOL     OW83740   4.258   9.169   3.675
93948SOL    HW183741   4.191   9.119   3.721
93948SOL    HW283742   4.230   9.170   3.584
93949SOL     OW83743   9.861   2.712   3.660
93949SOL    HW183744   9.852   2.617   3.655
93949SOL    HW283745   9.897   2.728   3.748
93950SOL     OW83746   4.751  12.539   9.355
93950SOL    HW183747   4.839  12.532   9.390
93950SOL    HW283748   4.734  12.454   9.314
93951SOL     OW83749   1.437   5.681   9.175
93951SOL    HW183750   1.475   5.628   9.245
93951SOL    HW283751   1.501   5.676   9.104
93952SOL     OW83752   0.157  12.853   2.219
93952SOL    HW183753   0.188  12.931   2.264
93952SOL    HW283754   0.193  12.861   2.131
93953SOL     OW83755   0.801   5.364   5.779
93953SOL    HW183756   0.854   5.391   5.704
93953SOL    HW283757   0.737   5.303   5.743
93954SOL     OW83758   6.477  12.505   0.421
93954SOL    HW183759   6.496  12.412   0.411
93954SOL    HW283760   6.536  12.548   0.358
93955SOL     OW83761  10.716   4.661   8.195
93955SOL    HW183762  10.666   4.586   8.162
93955SOL    HW283763  10.764   4.693   8.119
93956SOL     OW83764   7.175   8.263  10.240
93956SOL    HW183765   7.108   8.291  10.178
93956SOL    HW283766   7.183   8.336  10.302
93957SOL     OW83767   2.729   0.177   4.628
93957SOL    HW183768   2.685   0.251   4.668
93957SOL    HW283769   2.678   0.101   4.656
93958SOL     OW83770  12.924  14.018  12.812
93958SOL    HW183771  12.923  13.925  12.838
93958SOL    HW283772  12.833  14.039  12.794
93959SOL     OW83773   6.974  14.650   4.078
93959SOL    HW183774   6.989  14.735   4.036
93959SOL    HW283775   7.008  14.586   4.015
93960SOL     OW83776   6.245   4.588   2.378
93960SOL    HW183777   6.298   4.569   2.456
93960SOL    HW283778   6.160   4.547   2.397
93961SOL     OW83779   4.791   9.113   5.681
93961SOL    HW183780   4.710   9.062   5.674
93961SOL    HW283781   4.858   9.054   5.648
93962SOL     OW83782   9.606   5.063   6.395
93962SOL    HW183783   9.553   5.003   6.446
93962SOL    HW283784   9.690   5.017   6.384
93963SOL     OW83785  11.960   0.544   9.613
93963SOL    HW183786  12.042   0.497   9.630
93963SOL    HW283787  11.979   0.635   9.637
93964SOL     OW83788   9.255   1.962   6.092
93964SOL    HW183789   9.226   2.043   6.135
93964SOL    HW283790   9.178   1.905   6.094
93965SOL     OW83791   3.840  10.793   3.591
93965SOL    HW183792   3.790  10.799   3.673
93965SOL    HW283793   3.854  10.884   3.565
93966SOL     OW83794  12.744   1.413   8.290
93966SOL    HW183795  12.711   1.457   8.212
93966SOL    HW283796  12.792   1.481   8.337
93967SOL     OW83797  13.153   9.219  12.617
93967SOL    HW183798  13.162   9.164  12.695
93967SOL    HW283799  13.132   9.306  12.651
93968SOL     OW83800   0.178  14.073   6.317
93968SOL    HW183801   0.232  14.006   6.274
93968SOL    HW283802   0.241  14.129   6.362
93969SOL     OW83803   0.807   5.374  13.304
93969SOL    HW183804   0.753   5.389  13.382
93969SOL    HW283805   0.794   5.281  13.285
93970SOL     OW83806   0.385  10.106  13.904
93970SOL    HW183807   0.328  10.030  13.892
93970SOL    HW283808   0.430  10.116  13.821
93971SOL     OW83809   3.809   6.795  12.985
93971SOL    HW183810   3.886   6.759  12.941
93971SOL    HW283811   3.789   6.875  12.937
93972SOL     OW83812  11.750  12.895   0.802
93972SOL    HW183813  11.758  12.836   0.727
93972SOL    HW283814  11.766  12.839   0.878
93973SOL     OW83815   1.276   3.832  10.614
93973SOL    HW183816   1.298   3.917  10.574
93973SOL    HW283817   1.289   3.769  10.543
93974SOL     OW83818  11.613   2.897  11.681
93974SOL    HW183819  11.573   2.954  11.615
93974SOL    HW283820  11.657   2.957  11.741
93975SOL     OW83821  13.897   0.585   7.003
93975SOL    HW183822  13.842   0.506   7.006
93975SOL    HW283823  13.835   0.657   6.997
93976SOL     OW83824   9.455  11.619   6.706
93976SOL    HW183825   9.546  11.590   6.693
93976SOL    HW283826   9.460  11.714   6.704
93977SOL     OW83827   8.710   1.143   7.037
93977SOL    HW183828   8.734   1.235   7.030
93977SOL    HW283829   8.785   1.102   7.081
93978SOL     OW83830   6.814   1.334  10.464
93978SOL    HW183831   6.899   1.307  10.499
93978SOL    HW283832   6.816   1.309  10.372
93979SOL     OW83833   0.097   0.814  11.667
93979SOL    HW183834   0.017   0.762  11.669
93979SOL    HW283835   0.118   0.831  11.759
93980SOL     OW83836   1.474   1.960   0.881
93980SOL    HW183837   1.474   1.884   0.940
93980SOL    HW283838   1.440   1.926   0.798
93981SOL     OW83839   6.091  10.867  12.553
93981SOL    HW183840   6.022  10.933  12.545
93981SOL    HW283841   6.160  10.897  12.494
93982SOL     OW83842  11.875  10.066   8.376
93982SOL    HW183843  11.804  10.002   8.375
93982SOL    HW283844  11.925  10.045   8.455
93983SOL     OW83845   6.128   3.672   0.410
93983SOL    HW183846   6.178   3.591   0.419
93983SOL    HW283847   6.056   3.663   0.472
93984SOL     OW83848   2.020  11.644   9.187
93984SOL    HW183849   2.056  11.642   9.275
93984SOL    HW283850   2.096  11.648   9.129
93985SOL     OW83851   4.245   8.078   0.386
93985SOL    HW183852   4.325   8.096   0.435
93985SOL    HW283853   4.188   8.033   0.449
93986SOL     OW83854  11.012   4.557   8.210
93986SOL    HW183855  11.087   4.601   8.171
93986SOL    HW283856  10.998   4.602   8.293
93987SOL     OW83857  14.258   2.355   7.642
93987SOL    HW183858  14.284   2.441   7.609
93987SOL    HW283859  14.165   2.348   7.619
93988SOL     OW83860   5.509   3.215   8.498
93988SOL    HW183861   5.520   3.188   8.407
93988SOL    HW283862   5.573   3.285   8.511
93989SOL     OW83863   3.903  12.306  12.414
93989SOL    HW183864   3.953  12.296  12.495
93989SOL    HW283865   3.837  12.237  12.418
93990SOL     OW83866  11.039   9.751   8.603
93990SOL    HW183867  11.018   9.659   8.590
93990SOL    HW283868  11.066   9.758   8.695
93991SOL     OW83869  14.500  11.522   6.436
93991SOL    HW183870  14.565  11.452   6.429
93991SOL    HW283871  14.511  11.555   6.525
93992SOL     OW83872  10.191   6.560  13.754
93992SOL    HW183873  10.244   6.635  13.779
93992SOL    HW283874  10.231   6.485  13.798
93993SOL     OW83875  12.008   1.612  10.790
93993SOL    HW183876  12.082   1.571  10.745
93993SOL    HW283877  11.943   1.626  10.721
93994SOL     OW83878   3.528  13.964   3.228
93994SOL    HW183879   3.492  14.007   3.150
93994SOL    HW283880   3.538  13.872   3.201
93995SOL     OW83881  10.849   2.451  11.356
93995SOL    HW183882  10.762   2.478  11.386
93995SOL    HW283883  10.833   2.375  11.300
93996SOL     OW83884   8.296  10.922   2.834
93996SOL    HW183885   8.343  10.977   2.896
93996SOL    HW283886   8.204  10.944   2.846
93997SOL     OW83887   5.607   3.374   9.192
93997SOL    HW183888   5.652   3.304   9.238
93997SOL    HW283889   5.647   3.374   9.105
93998SOL     OW83890   7.190  12.632   7.407
93998SOL    HW183891   7.207  12.721   7.438
93998SOL    HW283892   7.185  12.640   7.312
93999SOL     OW83893   2.861  11.339  10.759
93999SOL    HW183894   2.951  11.317  10.781
93999SOL    HW283895   2.817  11.347  10.844
94000SOL     OW83896  12.652   3.904  10.423
94000SOL    HW183897  12.667   3.891  10.517
94000SOL    HW283898  12.709   3.839  10.381
94001SOL     OW83899   0.913   5.501   8.185
94001SOL    HW183900   0.934   5.495   8.092
94001SOL    HW283901   0.832   5.450   8.195
94002SOL     OW83902  13.150   6.476   9.844
94002SOL    HW183903  13.181   6.389   9.817
94002SOL    HW283904  13.230   6.524   9.866
94003SOL     OW83905  10.275  10.163   0.356
94003SOL    HW183906  10.316  10.212   0.427
94003SOL    HW283907  10.190  10.206   0.343
94004SOL     OW83908   3.704   7.422  12.933
94004SOL    HW183909   3.613   7.393  12.945
94004SOL    HW283910   3.744   7.409  13.019
94005SOL     OW83911   4.298   1.371   4.442
94005SOL    HW183912   4.220   1.319   4.421
94005SOL    HW283913   4.360   1.350   4.372
94006SOL     OW83914   7.446   9.337   5.373
94006SOL    HW183915   7.363   9.362   5.413
94006SOL    HW283916   7.476   9.262   5.425
94007SOL     OW83917   6.058   2.086  11.370
94007SOL    HW183918   6.086   2.014  11.428
94007SOL    HW283919   6.024   2.152  11.430
94008SOL     OW83920  10.874   5.779   1.437
94008SOL    HW183921  10.956   5.783   1.485
94008SOL    HW283922  10.806   5.784   1.505
94009SOL     OW83923   4.419  13.072   2.159
94009SOL    HW183924   4.445  12.982   2.139
94009SOL    HW283925   4.323  13.069   2.163
94010SOL     OW83926  10.480   2.027  11.788
94010SOL    HW183927  10.533   1.995  11.862
94010SOL    HW283928  10.530   2.100  11.753
94011SOL     OW83929  12.515   8.341   3.411
94011SOL    HW183930  12.578   8.286   3.456
94011SOL    HW283931  12.530   8.323   3.318
94012SOL     OW83932  11.367  14.241   9.069
94012SOL    HW183933  11.369  14.148   9.090
94012SOL    HW283934  11.433  14.252   9.000
94013SOL     OW83935  14.324   8.533   2.388
94013SOL    HW183936  14.417   8.517   2.403
94013SOL    HW283937  14.279   8.478   2.452
94014SOL     OW83938   0.141   4.466  13.980
94014SOL    HW183939   0.080   4.469  13.906
94014SOL    HW283940   0.160   4.373  13.993
94015SOL     OW83941  13.207   8.373  13.209
94015SOL    HW183942  13.300   8.396  13.213
94015SOL    HW283943  13.206   8.279  13.193
94016SOL     OW83944  12.341   0.484   3.126
94016SOL    HW183945  12.339   0.528   3.211
94016SOL    HW283946  12.269   0.422   3.129
94017SOL     OW83947   4.696   0.549  14.774
94017SOL    HW183948   4.780   0.568  14.816
94017SOL    HW283949   4.714   0.475  14.716
94018SOL     OW83950   7.942   4.884  13.735
94018SOL    HW183951   7.947   4.793  13.706
94018SOL    HW283952   7.897   4.930  13.664
94019SOL     OW83953   1.205   2.464   5.710
94019SOL    HW183954   1.186   2.555   5.689
94019SOL    HW283955   1.124   2.430   5.748
94020SOL     OW83956   4.918   0.549   2.227
94020SOL    HW183957   4.863   0.600   2.287
94020SOL    HW283958   4.916   0.460   2.262
94021SOL     OW83959   1.383  13.092   5.027
94021SOL    HW183960   1.340  13.088   5.113
94021SOL    HW283961   1.448  13.161   5.037
94022SOL     OW83962  14.549   9.337  11.924
94022SOL    HW183963  14.578   9.346  11.833
94022SOL    HW283964  14.602   9.401  11.972
94023SOL     OW83965  10.480   0.786   8.229
94023SOL    HW183966  10.450   0.869   8.267
94023SOL    HW283967  10.542   0.752   8.294
94024SOL     OW83968   1.853   1.045   1.692
94024SOL    HW183969   1.845   0.951   1.680
94024SOL    HW283970   1.893   1.055   1.779
94025SOL     OW83971   8.548   0.641   3.442
94025SOL    HW183972   8.550   0.565   3.500
94025SOL    HW283973   8.585   0.712   3.493
94026SOL     OW83974  10.858   0.437   7.633
94026SOL    HW183975  10.918   0.454   7.560
94026SOL    HW283976  10.773   0.468   7.601
94027SOL     OW83977   5.681  14.770   0.355
94027SOL    HW183978   5.590  14.777   0.381
94027SOL    HW283979   5.689  14.824   0.276
94028SOL     OW83980   8.386   8.982  13.079
94028SOL    HW183981   8.479   8.977  13.058
94028SOL    HW283982   8.357   9.065  13.039
94029SOL     OW83983   2.456  10.653   4.004
94029SOL    HW183984   2.395  10.671   4.074
94029SOL    HW283985   2.483  10.739   3.971
94030SOL     OW83986   1.851   3.994   0.630
94030SOL    HW183987   1.800   3.916   0.651
94030SOL    HW283988   1.922   3.962   0.574
94031SOL     OW83989   8.447   8.082   1.482
94031SOL    HW183990   8.370   8.133   1.503
94031SOL    HW283991   8.422   8.028   1.407
94032SOL     OW83992  11.287  12.431   3.738
94032SOL    HW183993  11.207  12.464   3.698
94032SOL    HW283994  11.356  12.452   3.675
94033SOL     OW83995   3.245   4.017  12.829
94033SOL    HW183996   3.235   3.923  12.844
94033SOL    HW283997   3.222   4.057  12.913
94034SOL     OW83998  13.517  12.620   4.927
94034SOL    HW183999  13.534  12.558   4.998
94034SOL    HW284000  13.439  12.668   4.954
94035SOL     OW84001   3.087   5.960   0.233
94035SOL    HW184002   3.048   5.943   0.147
94035SOL    HW284003   3.133   5.879   0.255
94036SOL     OW84004  11.270   7.620  14.617
94036SOL    HW184005  11.277   7.667  14.534
94036SOL    HW284006  11.179   7.631  14.644
94037SOL     OW84007   8.486  10.906   9.339
94037SOL    HW184008   8.473  11.000   9.348
94037SOL    HW284009   8.579  10.893   9.354
94038SOL     OW84010   6.766  13.315   7.899
94038SOL    HW184011   6.712  13.280   7.970
94038SOL    HW284012   6.752  13.254   7.826
94039SOL     OW84013   1.633   9.363  10.051
94039SOL    HW184014   1.548   9.318  10.057
94039SOL    HW284015   1.697   9.293  10.047
94040SOL     OW84016   6.940   4.607  11.116
94040SOL    HW184017   6.952   4.698  11.144
94040SOL    HW284018   6.982   4.602  11.030
94041SOL     OW84019   9.123   1.434   5.878
94041SOL    HW184020   9.116   1.348   5.836
94041SOL    HW284021   9.184   1.420   5.950
94042SOL     OW84022   5.736   6.780   2.349
94042SOL    HW184023   5.657   6.742   2.388
94042SOL    HW284024   5.783   6.705   2.313
94043SOL     OW84025  10.756   3.419   3.982
94043SOL    HW184026  10.832   3.361   3.978
94043SOL    HW284027  10.785   3.500   3.939
94044SOL     OW84028   3.223   1.969  10.805
94044SOL    HW184029   3.250   2.023  10.730
94044SOL    HW284030   3.142   2.009  10.835
94045SOL     OW84031  14.691   8.200   2.066
94045SOL    HW184032  14.616   8.149   2.034
94045SOL    HW284033  14.680   8.202   2.161
94046SOL     OW84034   1.571  12.308   0.420
94046SOL    HW184035   1.564  12.334   0.328
94046SOL    HW284036   1.483  12.279   0.443
94047SOL     OW84037   5.722   9.128   6.292
94047SOL    HW184038   5.700   9.043   6.329
94047SOL    HW284039   5.707   9.118   6.198
94048SOL     OW84040  14.166   6.332   6.002
94048SOL    HW184041  14.171   6.399   5.933
94048SOL    HW284042  14.249   6.339   6.049
94049SOL     OW84043   0.390  12.961  11.960
94049SOL    HW184044   0.435  12.925  11.883
94049SOL    HW284045   0.459  13.000  12.013
94050SOL     OW84046   6.622   1.669   1.152
94050SOL    HW184047   6.712   1.648   1.175
94050SOL    HW284048   6.613   1.640   1.061
94051SOL     OW84049   5.554  11.403   9.410
94051SOL    HW184050   5.585  11.482   9.453
94051SOL    HW284051   5.613  11.392   9.335
94052SOL     OW84052   1.026  12.487   6.136
94052SOL    HW184053   0.989  12.427   6.071
94052SOL    HW284054   1.049  12.565   6.087
94053SOL     OW84055   7.919  11.069   4.849
94053SOL    HW184056   8.004  11.029   4.829
94053SOL    HW284057   7.911  11.141   4.787
94054SOL     OW84058  13.986  12.670  13.552
94054SOL    HW184059  14.070  12.660  13.508
94054SOL    HW284060  14.004  12.730  13.624
94055SOL     OW84061   2.620  13.715   6.988
94055SOL    HW184062   2.595  13.646   6.926
94055SOL    HW284063   2.587  13.795   6.949
94056SOL     OW84064  13.669   5.982   8.833
94056SOL    HW184065  13.667   6.078   8.829
94056SOL    HW284066  13.586   5.955   8.794
94057SOL     OW84067   0.481   8.863   8.832
94057SOL    HW184068   0.548   8.795   8.822
94057SOL    HW284069   0.398   8.816   8.823
94058SOL     OW84070  13.322   1.450   3.961
94058SOL    HW184071  13.269   1.370   3.961
94058SOL    HW284072  13.315   1.483   4.050
94059SOL     OW84073   3.125   0.635   3.953
94059SOL    HW184074   3.176   0.580   4.013
94059SOL    HW284075   3.119   0.582   3.873
94060SOL     OW84076  12.988  12.354  13.341
94060SOL    HW184077  13.070  12.385  13.303
94060SOL    HW284078  12.926  12.425  13.325
94061SOL     OW84079   6.881   9.063   6.862
94061SOL    HW184080   6.933   8.982   6.870
94061SOL    HW284081   6.932   9.117   6.802
94062SOL     OW84082   8.319   5.563  13.731
94062SOL    HW184083   8.258   5.490  13.718
94062SOL    HW284084   8.354   5.581  13.644
94063SOL     OW84085  11.273   1.210  14.493
94063SOL    HW184086  11.253   1.301  14.475
94063SOL    HW284087  11.342   1.213  14.560
94064SOL     OW84088   7.067  13.450   2.769
94064SOL    HW184089   7.160  13.426   2.772
94064SOL    HW284090   7.028  13.398   2.840
94065SOL     OW84091  13.832  14.730  14.335
94065SOL    HW184092  13.883  14.741  14.415
94065SOL    HW284093  13.882  14.777  14.268
94066SOL     OW84094   6.345   7.948   6.852
94066SOL    HW184095   6.374   7.875   6.907
94066SOL    HW284096   6.406   8.019   6.873
94067SOL     OW84097  11.034   2.011  10.473
94067SOL    HW184098  11.018   1.931  10.423
94067SOL    HW284099  10.963   2.070  10.448
94068SOL     OW84100   0.880  11.639   8.275
94068SOL    HW184101   0.815  11.658   8.343
94068SOL    HW284102   0.962  11.629   8.323
94069SOL     OW84103   2.724  10.228   8.030
94069SOL    HW184104   2.655  10.199   7.971
94069SOL    HW284105   2.687  10.220   8.117
94070SOL     OW84106   5.668   9.634   8.280
94070SOL    HW184107   5.683   9.606   8.190
94070SOL    HW284108   5.751   9.619   8.325
94071SOL     OW84109   7.768  12.020  10.254
94071SOL    HW184110   7.796  12.111  10.261
94071SOL    HW284111   7.673  12.023  10.268
94072SOL     OW84112   3.872  11.354  13.455
94072SOL    HW184113   3.850  11.440  13.490
94072SOL    HW284114   3.900  11.303  13.531
94073SOL     OW84115   7.684  11.291  10.770
94073SOL    HW184116   7.643  11.288  10.684
94073SOL    HW284117   7.754  11.226  10.766
94074SOL     OW84118   3.654   1.850  10.267
94074SOL    HW184119   3.717   1.814  10.206
94074SOL    HW284120   3.707   1.878  10.342
94075SOL     OW84121  14.266   2.964   3.675
94075SOL    HW184122  14.231   2.878   3.699
94075SOL    HW284123  14.236   3.023   3.744
94076SOL     OW84124   0.591   4.684   7.167
94076SOL    HW184125   0.648   4.624   7.118
94076SOL    HW284126   0.586   4.646   7.254
94077SOL     OW84127  13.118   2.529  10.525
94077SOL    HW184128  13.086   2.506  10.438
94077SOL    HW284129  13.058   2.486  10.585
94078SOL     OW84130   5.830   4.628   9.719
94078SOL    HW184131   5.736   4.614   9.708
94078SOL    HW284132   5.871   4.574   9.652
94079SOL     OW84133   4.619   4.517   5.410
94079SOL    HW184134   4.667   4.452   5.461
94079SOL    HW284135   4.663   4.517   5.324
94080SOL     OW84136   7.842  12.561  10.010
94080SOL    HW184137   7.800  12.646  10.020
94080SOL    HW284138   7.770  12.498  10.021
94081SOL     OW84139  12.576  11.459   6.495
94081SOL    HW184140  12.568  11.367   6.519
94081SOL    HW284141  12.567  11.506   6.577
94082SOL     OW84142  10.881   1.719   0.077
94082SOL    HW184143  10.852   1.759  14.870
94082SOL    HW284144  10.937   1.646   0.050
94083SOL     OW84145   2.606   0.352   3.617
94083SOL    HW184146   2.547   0.314   3.681
94083SOL    HW284147   2.558   0.347   3.534
94084SOL     OW84148   4.590  10.481   9.817
94084SOL    HW184149   4.633  10.422   9.880
94084SOL    HW284150   4.658  10.544   9.792
94085SOL     OW84151   0.595   5.398   1.247
94085SOL    HW184152   0.594   5.468   1.182
94085SOL    HW284153   0.507   5.360   1.244
94086SOL     OW84154   6.266  14.679   6.064
94086SOL    HW184155   6.174  14.659   6.077
94086SOL    HW284156   6.309  14.594   6.057
94087SOL     OW84157   4.258   7.782   6.847
94087SOL    HW184158   4.295   7.695   6.835
94087SOL    HW284159   4.285   7.831   6.770
94088SOL     OW84160   8.376  10.582   5.257
94088SOL    HW184161   8.318  10.631   5.315
94088SOL    HW284162   8.356  10.490   5.275
94089SOL     OW84163   9.343   6.519   9.345
94089SOL    HW184164   9.305   6.601   9.377
94089SOL    HW284165   9.435   6.539   9.329
94090SOL     OW84166   6.549   9.483   4.991
94090SOL    HW184167   6.564   9.467   4.898
94090SOL    HW284168   6.599   9.562   5.010
94091SOL     OW84169   0.830   4.451   8.654
94091SOL    HW184170   0.917   4.444   8.693
94091SOL    HW284171   0.793   4.363   8.661
94092SOL     OW84172  13.080   2.075   6.017
94092SOL    HW184173  13.164   2.096   5.976
94092SOL    HW284174  13.073   2.134   6.092
94093SOL     OW84175   3.557  13.493   0.284
94093SOL    HW184176   3.567  13.487   0.379
94093SOL    HW284177   3.468  13.463   0.267
94094SOL     OW84178   7.524  13.742   8.612
94094SOL    HW184179   7.462  13.801   8.655
94094SOL    HW284180   7.597  13.798   8.586
94095SOL     OW84181   4.655   3.388   5.349
94095SOL    HW184182   4.642   3.329   5.424
94095SOL    HW284183   4.622   3.339   5.274
94096SOL     OW84184   7.468  10.431   8.990
94096SOL    HW184185   7.432  10.421   8.902
94096SOL    HW284186   7.479  10.526   9.000
94097SOL     OW84187   7.921   7.228   6.002
94097SOL    HW184188   7.968   7.246   6.083
94097SOL    HW284189   7.928   7.133   5.991
94098SOL     OW84190  13.476  12.841   0.897
94098SOL    HW184191  13.549  12.841   0.836
94098SOL    HW284192  13.508  12.792   0.972
94099SOL     OW84193  11.354   5.221   9.235
94099SOL    HW184194  11.442   5.218   9.272
94099SOL    HW284195  11.368   5.242   9.143
94100SOL     OW84196   9.061  14.257   3.710
94100SOL    HW184197   9.044  14.347   3.739
94100SOL    HW284198   8.980  14.230   3.667
94101SOL     OW84199  12.425   9.230   2.866
94101SOL    HW184200  12.411   9.229   2.960
94101SOL    HW284201  12.355   9.285   2.831
94102SOL     OW84202   1.846   7.869   9.959
94102SOL    HW184203   1.840   7.791  10.013
94102SOL    HW284204   1.901   7.929  10.010
94103SOL     OW84205  12.023   8.302  10.706
94103SOL    HW184206  12.018   8.215  10.666
94103SOL    HW284207  12.111   8.332  10.687
94104SOL     OW84208   7.086   8.114   7.894
94104SOL    HW184209   7.071   8.202   7.930
94104SOL    HW284210   7.156   8.078   7.948
94105SOL     OW84211   6.043  11.774   9.645
94105SOL    HW184212   6.094  11.822   9.710
94105SOL    HW284213   6.101  11.765   9.570
94106SOL     OW84214  13.532   6.724  10.502
94106SOL    HW184215  13.507   6.800  10.449
94106SOL    HW284216  13.613   6.751  10.545
94107SOL     OW84217  13.231  13.102  14.012
94107SOL    HW184218  13.165  13.036  13.991
94107SOL    HW284219  13.263  13.132  13.926
94108SOL     OW84220   1.520   1.818   6.277
94108SOL    HW184221   1.529   1.754   6.207
94108SOL    HW284222   1.437   1.862   6.260
94109SOL     OW84223   3.342   8.061   5.328
94109SOL    HW184224   3.394   8.023   5.397
94109SOL    HW284225   3.312   8.145   5.363
94110SOL     OW84226   1.340  14.466   6.230
94110SOL    HW184227   1.421  14.517   6.230
94110SOL    HW284228   1.311  14.468   6.139
94111SOL     OW84229   3.205   3.099   7.616
94111SOL    HW184230   3.141   3.102   7.546
94111SOL    HW284231   3.279   3.150   7.584
94112SOL     OW84232   9.602   1.622   8.976
94112SOL    HW184233   9.517   1.622   9.020
94112SOL    HW284234   9.665   1.603   9.045
94113SOL     OW84235   9.379  10.499  11.861
94113SOL    HW184236   9.452  10.543  11.903
94113SOL    HW284237   9.414  10.414  11.835
94114SOL     OW84238   1.315   4.654  13.533
94114SOL    HW184239   1.328   4.589  13.464
94114SOL    HW284240   1.343   4.609  13.613
94115SOL     OW84241  14.625   3.603   4.445
94115SOL    HW184242  14.538   3.583   4.412
94115SOL    HW284243  14.640   3.539   4.514
94116SOL     OW84244  12.814   6.149  12.589
94116SOL    HW184245  12.832   6.058  12.614
94116SOL    HW284246  12.748   6.178  12.653
94117SOL     OW84247   0.216  14.555   3.384
94117SOL    HW184248   0.307  14.576   3.361
94117SOL    HW284249   0.220  14.535   3.478
94118SOL     OW84250   5.261  13.294   6.806
94118SOL    HW184251   5.227  13.249   6.883
94118SOL    HW284252   5.346  13.328   6.834
94119SOL     OW84253   0.699   3.816  14.479
94119SOL    HW184254   0.675   3.824  14.387
94119SOL    HW284255   0.794   3.830  14.480
94120SOL     OW84256   0.222   4.590   5.623
94120SOL    HW184257   0.204   4.497   5.605
94120SOL    HW284258   0.313   4.592   5.650
94121SOL     OW84259  14.027  12.037  14.035
94121SOL    HW184260  14.044  12.114  14.089
94121SOL    HW284261  14.054  12.064  13.947
94122SOL     OW84262  14.315  12.526   1.813
94122SOL    HW184263  14.273  12.447   1.849
94122SOL    HW284264  14.396  12.533   1.862
94123SOL     OW84265   7.723  12.376   9.139
94123SOL    HW184266   7.638  12.397   9.101
94123SOL    HW284267   7.731  12.433   9.215
94124SOL     OW84268   7.011   0.473   4.663
94124SOL    HW184269   7.034   0.385   4.696
94124SOL    HW284270   6.916   0.469   4.651
94125SOL     OW84271   0.774  13.817   8.209
94125SOL    HW184272   0.705  13.791   8.149
94125SOL    HW284273   0.855  13.804   8.159
94126SOL     OW84274   0.346   7.795  13.899
94126SOL    HW184275   0.389   7.723  13.853
94126SOL    HW284276   0.257   7.796  13.864
94127SOL     OW84277   8.037   2.032   8.251
94127SOL    HW184278   8.113   2.065   8.299
94127SOL    HW284279   7.976   2.105   8.249
94128SOL     OW84280   9.860   7.662   9.154
94128SOL    HW184281   9.851   7.567   9.142
94128SOL    HW284282   9.932   7.671   9.216
94129SOL     OW84283  12.444   8.776   7.189
94129SOL    HW184284  12.520   8.815   7.147
94129SOL    HW284285  12.383   8.849   7.200
94130SOL     OW84286   9.014   7.910   3.832
94130SOL    HW184287   9.014   7.999   3.796
94130SOL    HW284288   8.922   7.888   3.843
94131SOL     OW84289   9.004   8.733   1.044
94131SOL    HW184290   8.980   8.669   0.976
94131SOL    HW284291   9.070   8.689   1.096
94132SOL     OW84292   0.737   4.145  14.330
94132SOL    HW184293   0.744   4.054  14.303
94132SOL    HW284294   0.800   4.153  14.402
94133SOL     OW84295   9.075  12.993  11.018
94133SOL    HW184296   9.027  12.914  10.992
94133SOL    HW284297   9.153  12.961  11.063
94134SOL     OW84298   6.437   3.306   4.207
94134SOL    HW184299   6.422   3.347   4.292
94134SOL    HW284300   6.354   3.315   4.161
94135SOL     OW84301  13.539   3.398   3.936
94135SOL    HW184302  13.479   3.334   3.975
94135SOL    HW284303  13.481   3.466   3.901
94136SOL     OW84304   9.148   7.771   9.039
94136SOL    HW184305   9.173   7.798   9.127
94136SOL    HW284306   9.060   7.807   9.027
94137SOL     OW84307  13.771  14.280  10.042
94137SOL    HW184308  13.797  14.299   9.952
94137SOL    HW284309  13.774  14.364  10.086
94138SOL     OW84310   4.659   7.867  10.758
94138SOL    HW184311   4.755   7.872  10.751
94138SOL    HW284312   4.641   7.872  10.852
94139SOL     OW84313   9.012   7.559   6.469
94139SOL    HW184314   9.052   7.612   6.400
94139SOL    HW284315   9.045   7.598   6.550
94140SOL     OW84316   0.533   0.128  13.647
94140SOL    HW184317   0.527   0.191  13.719
94140SOL    HW284318   0.442   0.099  13.632
94141SOL     OW84319   1.559  10.769   6.668
94141SOL    HW184320   1.548  10.772   6.573
94141SOL    HW284321   1.470  10.774   6.703
94142SOL     OW84322   2.596  14.223   2.134
94142SOL    HW184323   2.597  14.316   2.112
94142SOL    HW284324   2.672  14.211   2.190
94143SOL     OW84325   2.090   3.527  11.985
94143SOL    HW184326   2.068   3.490  11.899
94143SOL    HW284327   2.030   3.600  11.996
94144SOL     OW84328   6.327   7.463   0.726
94144SOL    HW184329   6.352   7.432   0.639
94144SOL    HW284330   6.238   7.497   0.714
94145SOL     OW84331   6.676  10.222   2.261
94145SOL    HW184332   6.750  10.269   2.224
94145SOL    HW284333   6.716  10.153   2.315
94146SOL     OW84334  11.351   9.736   7.168
94146SOL    HW184335  11.416   9.727   7.237
94146SOL    HW284336  11.324   9.828   7.171
94147SOL     OW84337  10.279   8.264   2.891
94147SOL    HW184338  10.357   8.252   2.837
94147SOL    HW284339  10.312   8.269   2.980
94148SOL     OW84340  12.267  10.216  13.107
94148SOL    HW184341  12.185  10.241  13.065
94148SOL    HW284342  12.306  10.152  13.047
94149SOL     OW84343   6.347  10.180  13.466
94149SOL    HW184344   6.254  10.196  13.456
94149SOL    HW284345   6.355  10.130  13.547
94150SOL     OW84346   6.246   4.640  12.020
94150SOL    HW184347   6.280   4.561  11.978
94150SOL    HW284348   6.275   4.632  12.111
94151SOL     OW84349   5.273   2.097  11.571
94151SOL    HW184350   5.205   2.042  11.534
94151SOL    HW284351   5.343   2.036  11.595
94152SOL     OW84352  14.280   2.226  11.955
94152SOL    HW184353  14.362   2.257  11.918
94152SOL    HW284354  14.215   2.292  11.929
94153SOL     OW84355   4.322   8.228   1.591
94153SOL    HW184356   4.253   8.283   1.552
94153SOL    HW284357   4.343   8.272   1.673
94154SOL     OW84358  11.806  10.265  11.988
94154SOL    HW184359  11.859  10.340  12.014
94154SOL    HW284360  11.720  10.301  11.967
94155SOL     OW84361   9.531   4.583   6.360
94155SOL    HW184362   9.479   4.648   6.312
94155SOL    HW284363   9.599   4.635   6.404
94156SOL     OW84364   6.451   8.657   5.459
94156SOL    HW184365   6.422   8.604   5.384
94156SOL    HW284366   6.518   8.603   5.501
94157SOL     OW84367   5.464   0.407  13.396
94157SOL    HW184368   5.521   0.341  13.356
94157SOL    HW284369   5.516   0.487  13.395
94158SOL     OW84370   0.558   0.370   8.335
94158SOL    HW184371   0.629   0.427   8.307
94158SOL    HW284372   0.601   0.295   8.376
94159SOL     OW84373   8.844   5.723   8.224
94159SOL    HW184374   8.792   5.802   8.237
94159SOL    HW284375   8.855   5.717   8.129
94160SOL     OW84376   2.589   5.987  11.955
94160SOL    HW184377   2.651   5.958  12.022
94160SOL    HW284378   2.619   6.075  11.932
94161SOL     OW84379   6.441   5.737   0.454
94161SOL    HW184380   6.452   5.829   0.428
94161SOL    HW284381   6.348   5.719   0.436
94162SOL     OW84382   8.580   8.829   4.623
94162SOL    HW184383   8.658   8.781   4.596
94162SOL    HW284384   8.545   8.865   4.542
94163SOL     OW84385  12.654  14.165   8.909
94163SOL    HW184386  12.626  14.234   8.850
94163SOL    HW284387  12.576  14.109   8.919
94164SOL     OW84388   0.304   6.153   5.705
94164SOL    HW184389   0.391   6.141   5.666
94164SOL    HW284390   0.252   6.081   5.670
94165SOL     OW84391   0.108   6.553   6.037
94165SOL    HW184392   0.173   6.517   5.977
94165SOL    HW284393   0.097   6.485   6.103
94166SOL     OW84394  13.330  10.111   1.515
94166SOL    HW184395  13.244  10.150   1.533
94166SOL    HW284396  13.368  10.095   1.601
94167SOL     OW84397   5.898  13.775  13.509
94167SOL    HW184398   5.920  13.691  13.469
94167SOL    HW284399   5.968  13.834  13.478
94168SOL     OW84400  11.012  12.262   5.656
94168SOL    HW184401  10.974  12.299   5.735
94168SOL    HW284402  11.088  12.318   5.638
94169SOL     OW84403   2.351  14.386   2.334
94169SOL    HW184404   2.399  14.465   2.310
94169SOL    HW284405   2.417  14.330   2.376
94170SOL     OW84406   0.797   8.226   6.200
94170SOL    HW184407   0.842   8.286   6.140
94170SOL    HW284408   0.790   8.144   6.151
94171SOL     OW84409  12.782   0.468  11.386
94171SOL    HW184410  12.876   0.473  11.373
94171SOL    HW284411  12.762   0.375  11.377
94172SOL     OW84412   2.372   0.061  12.837
94172SOL    HW184413   2.308   0.003  12.878
94172SOL    HW284414   2.365   0.143  12.885
94173SOL     OW84415   7.632   2.166  13.504
94173SOL    HW184416   7.664   2.138  13.590
94173SOL    HW284417   7.708   2.158  13.446
94174SOL     OW84418  13.282  11.806   0.864
94174SOL    HW184419  13.246  11.895   0.868
94174SOL    HW284420  13.376  11.819   0.846
94175SOL     OW84421   0.181  10.508  12.818
94175SOL    HW184422   0.264  10.541  12.785
94175SOL    HW284423   0.181  10.531  12.911
94176SOL     OW84424   1.197   8.791  12.653
94176SOL    HW184425   1.216   8.834  12.570
94176SOL    HW284426   1.267   8.820  12.712
94177SOL     OW84427   6.512   5.573  12.171
94177SOL    HW184428   6.587   5.516  12.191
94177SOL    HW284429   6.542   5.660  12.195
94178SOL     OW84430   2.166  10.069  11.703
94178SOL    HW184431   2.139  10.025  11.784
94178SOL    HW284432   2.130  10.014  11.633
94179SOL     OW84433  12.017  11.480   4.812
94179SOL    HW184434  11.998  11.411   4.748
94179SOL    HW284435  12.075  11.541   4.766
94180SOL     OW84436   6.821  11.607   8.836
94180SOL    HW184437   6.844  11.590   8.745
94180SOL    HW284438   6.785  11.524   8.867
94181SOL     OW84439  14.403  10.941  14.502
94181SOL    HW184440  14.311  10.914  14.510
94181SOL    HW284441  14.399  11.031  14.470
94182SOL     OW84442  12.043   0.582  10.367
94182SOL    HW184443  12.021   0.528  10.291
94182SOL    HW284444  12.010   0.669  10.344
94183SOL     OW84445   4.978  13.481  12.329
94183SOL    HW184446   4.889  13.462  12.297
94183SOL    HW284447   5.012  13.396  12.356
94184SOL     OW84448   2.014   4.505   5.670
94184SOL    HW184449   2.083   4.455   5.713
94184SOL    HW284450   1.933   4.459   5.692
94185SOL     OW84451  10.884  10.738   3.741
94185SOL    HW184452  10.980  10.740   3.739
94185SOL    HW284453  10.862  10.745   3.834
94186SOL     OW84454   3.621  13.137   8.641
94186SOL    HW184455   3.706  13.168   8.673
94186SOL    HW284456   3.632  13.042   8.631
94187SOL     OW84457   6.465   8.932   4.091
94187SOL    HW184458   6.521   8.967   4.022
94187SOL    HW284459   6.394   8.887   4.045
94188SOL     OW84460   5.075   8.187  12.124
94188SOL    HW184461   5.013   8.226  12.063
94188SOL    HW284462   5.036   8.199  12.210
94189SOL     OW84463  13.796   5.262   3.002
94189SOL    HW184464  13.813   5.353   3.027
94189SOL    HW284465  13.708   5.244   3.036
94190SOL     OW84466  14.661  12.622   9.673
94190SOL    HW184467  14.678  12.632   9.580
94190SOL    HW284468  14.716  12.688   9.715
94191SOL     OW84469  10.705  12.614  11.953
94191SOL    HW184470  10.704  12.709  11.941
94191SOL    HW284471  10.797  12.590  11.951
94192SOL     OW84472   4.602  13.310  10.706
94192SOL    HW184473   4.523  13.288  10.755
94192SOL    HW284474   4.637  13.387  10.751
94193SOL     OW84475   0.014   1.160   8.887
94193SOL    HW184476   0.024   1.254   8.871
94193SOL    HW284477   0.074   1.119   8.825
94194SOL     OW84478  12.443   3.356  12.793
94194SOL    HW184479  12.463   3.444  12.823
94194SOL    HW284480  12.386   3.368  12.718
94195SOL     OW84481   2.772  10.352   5.887
94195SOL    HW184482   2.841  10.313   5.940
94195SOL    HW284483   2.818  10.393   5.814
94196SOL     OW84484  10.965   9.892  14.303
94196SOL    HW184485  11.001   9.854  14.223
94196SOL    HW284486  11.035   9.948  14.336
94197SOL     OW84487   0.837  13.558   3.545
94197SOL    HW184488   0.896  13.486   3.567
94197SOL    HW284489   0.757  13.539   3.595
94198SOL     OW84490   0.037   2.214   6.221
94198SOL    HW184491   0.130   2.227   6.204
94198SOL    HW284492   0.016   2.131   6.178
94199SOL     OW84493   0.796   7.899  12.052
94199SOL    HW184494   0.798   7.819  12.104
94199SOL    HW284495   0.836   7.965  12.108
94200SOL     OW84496  14.332   6.093  13.548
94200SOL    HW184497  14.381   6.173  13.529
94200SOL    HW284498  14.339   6.081  13.642
94201SOL     OW84499   4.200  14.335   8.465
94201SOL    HW184500   4.119  14.385   8.479
94201SOL    HW284501   4.199  14.269   8.534
94202SOL     OW84502  11.818   6.883   7.500
94202SOL    HW184503  11.866   6.839   7.570
94202SOL    HW284504  11.884   6.933   7.452
94203SOL     OW84505   6.727  11.713  11.168
94203SOL    HW184506   6.725  11.625  11.206
94203SOL    HW284507   6.794  11.709  11.100
94204SOL     OW84508   5.362  12.320   8.912
94204SOL    HW184509   5.284  12.364   8.947
94204SOL    HW284510   5.403  12.385   8.856
94205SOL     OW84511   6.096   8.239  12.774
94205SOL    HW184512   6.161   8.239  12.844
94205SOL    HW284513   6.094   8.148  12.743
94206SOL     OW84514   3.714   2.921  10.103
94206SOL    HW184515   3.771   2.976  10.156
94206SOL    HW284516   3.773   2.874  10.044
94207SOL     OW84517  13.271  12.456  10.865
94207SOL    HW184518  13.264  12.383  10.803
94207SOL    HW284519  13.201  12.441  10.928
94208SOL     OW84520   9.388  13.776  11.567
94208SOL    HW184521   9.398  13.755  11.660
94208SOL    HW284522   9.316  13.839  11.565
94209SOL     OW84523   6.603   3.511   1.189
94209SOL    HW184524   6.573   3.539   1.103
94209SOL    HW284525   6.537   3.448   1.218
94210SOL     OW84526  11.629   3.991  10.279
94210SOL    HW184527  11.646   3.897  10.274
94210SOL    HW284528  11.715   4.032  10.273
94211SOL     OW84529   5.379   7.236  12.883
94211SOL    HW184530   5.293   7.205  12.855
94211SOL    HW284531   5.365   7.328  12.905
94212SOL     OW84532   6.172   0.419  10.486
94212SOL    HW184533   6.153   0.507  10.453
94212SOL    HW284534   6.243   0.432  10.549
94213SOL     OW84535   2.160   3.993   0.270
94213SOL    HW184536   2.255   4.009   0.266
94213SOL    HW284537   2.124   4.075   0.304
94214SOL     OW84538   0.282  13.975   7.648
94214SOL    HW184539   0.265  13.933   7.733
94214SOL    HW284540   0.372  13.949   7.627
94215SOL     OW84541  14.503   7.644  12.298
94215SOL    HW184542  14.586   7.608  12.268
94215SOL    HW284543  14.440   7.572  12.286
94216SOL     OW84544   5.722   7.916   4.902
94216SOL    HW184545   5.799   7.917   4.845
94216SOL    HW284546   5.729   7.833   4.950
94217SOL     OW84547   7.131  13.595  14.706
94217SOL    HW184548   7.106  13.675  14.660
94217SOL    HW284549   7.073  13.592  14.783
94218SOL     OW84550   5.727   2.494   9.792
94218SOL    HW184551   5.702   2.552   9.720
94218SOL    HW284552   5.822   2.489   9.788
94219SOL     OW84553  12.296   9.923  11.618
94219SOL    HW184554  12.357   9.969  11.559
94219SOL    HW284555  12.223   9.984  11.629
94220SOL     OW84556   4.192  13.852   0.627
94220SOL    HW184557   4.192  13.837   0.721
94220SOL    HW284558   4.119  13.911   0.611
94221SOL     OW84559   9.256  11.010  10.719
94221SOL    HW184560   9.237  10.918  10.698
94221SOL    HW284561   9.344  11.024  10.684
94222SOL     OW84562  10.793  13.891   0.364
94222SOL    HW184563  10.737  13.932   0.297
94222SOL    HW284564  10.751  13.912   0.447
94223SOL     OW84565   0.177   4.171  11.457
94223SOL    HW184566   0.107   4.191  11.520
94223SOL    HW284567   0.222   4.254  11.444
94224SOL     OW84568   4.280  10.022   2.257
94224SOL    HW184569   4.338  10.097   2.269
94224SOL    HW284570   4.211  10.053   2.200
94225SOL     OW84571   2.109   3.898   6.228
94225SOL    HW184572   2.093   3.808   6.199
94225SOL    HW284573   2.177   3.891   6.294
94226SOL     OW84574   6.724  14.470   8.356
94226SOL    HW184575   6.721  14.523   8.277
94226SOL    HW284576   6.799  14.503   8.405
94227SOL     OW84577  12.570   0.481  11.940
94227SOL    HW184578  12.478   0.501  11.924
94227SOL    HW284579  12.599   0.435  11.861
94228SOL     OW84580  13.748   2.997  11.724
94228SOL    HW184581  13.672   2.964  11.676
94228SOL    HW284582  13.710   3.040  11.801
94229SOL     OW84583   8.738   5.502   1.123
94229SOL    HW184584   8.707   5.502   1.032
94229SOL    HW284585   8.730   5.593   1.151
94230SOL     OW84586  11.197  10.636   1.311
94230SOL    HW184587  11.180  10.552   1.268
94230SOL    HW284588  11.135  10.638   1.384
94231SOL     OW84589   9.486  11.282  14.184
94231SOL    HW184590   9.554  11.328  14.135
94231SOL    HW284591   9.524  11.197  14.205
94232SOL     OW84592   0.001   5.262  12.118
94232SOL    HW184593   0.028   5.299  12.034
94232SOL    HW284594   0.066   5.194  12.136
94233SOL     OW84595   0.860  11.303   7.506
94233SOL    HW184596   0.778  11.257   7.490
94233SOL    HW284597   0.915  11.280   7.431
94234SOL     OW84598   0.415  13.490  12.970
94234SOL    HW184599   0.376  13.403  12.986
94234SOL    HW284600   0.340  13.548  12.961
94235SOL     OW84601  12.472  14.695   2.821
94235SOL    HW184602  12.519  14.620   2.784
94235SOL    HW284603  12.529  14.770   2.803
94236SOL     OW84604  14.738  10.366  10.387
94236SOL    HW184605  14.674  10.433  10.362
94236SOL    HW284606  14.820  10.414  10.399
94237SOL     OW84607   5.838   1.907   2.121
94237SOL    HW184608   5.836   2.001   2.108
94237SOL    HW284609   5.920   1.879   2.080
94238SOL     OW84610  10.212   2.494  14.299
94238SOL    HW184611  10.282   2.497  14.364
94238SOL    HW284612  10.181   2.585  14.295
94239SOL     OW84613  10.600   1.626   5.028
94239SOL    HW184614  10.528   1.583   5.073
94239SOL    HW284615  10.589   1.602   4.936
94240SOL     OW84616  10.611   0.554  13.493
94240SOL    HW184617  10.668   0.615  13.540
94240SOL    HW284618  10.526   0.560  13.538
94241SOL     OW84619  14.372  10.086   9.301
94241SOL    HW184620  14.319  10.141   9.359
94241SOL    HW284621  14.436  10.045   9.359
94242SOL     OW84622   8.344   1.866   7.893
94242SOL    HW184623   8.283   1.792   7.891
94242SOL    HW284624   8.290   1.940   7.920
94243SOL     OW84625   5.139   2.849   1.347
94243SOL    HW184626   5.122   2.837   1.440
94243SOL    HW284627   5.085   2.782   1.305
94244SOL     OW84628   8.040   9.190   3.650
94244SOL    HW184629   8.041   9.284   3.669
94244SOL    HW284630   8.123   9.173   3.606
94245SOL     OW84631   1.163  14.065  13.462
94245SOL    HW184632   1.153  13.970  13.452
94245SOL    HW284633   1.078  14.100  13.434
94246SOL     OW84634  11.621  12.361   7.288
94246SOL    HW184635  11.622  12.311   7.369
94246SOL    HW284636  11.686  12.429   7.300
94247SOL     OW84637   2.387   1.781   7.360
94247SOL    HW184638   2.476   1.816   7.366
94247SOL    HW284639   2.335   1.837   7.418
94248SOL     OW84640   4.255   0.104   4.430
94248SOL    HW184641   4.186   0.109   4.364
94248SOL    HW284642   4.278   0.195   4.448
94249SOL     OW84643   2.527  11.272   7.684
94249SOL    HW184644   2.494  11.231   7.604
94249SOL    HW284645   2.567  11.200   7.733
94250SOL     OW84646   0.625  10.314   2.267
94250SOL    HW184647   0.696  10.255   2.292
94250SOL    HW284648   0.668  10.397   2.248
94251SOL     OW84649   1.549   1.956   3.168
94251SOL    HW184650   1.632   1.908   3.172
94251SOL    HW284651   1.571   2.037   3.123
94252SOL     OW84652   6.268   1.477   2.051
94252SOL    HW184653   6.295   1.386   2.038
94252SOL    HW284654   6.188   1.486   1.999
94253SOL     OW84655  11.814   8.652   9.858
94253SOL    HW184656  11.824   8.747   9.844
94253SOL    HW284657  11.728   8.632   9.821
94254SOL     OW84658   9.425   0.720   4.969
94254SOL    HW184659   9.397   0.696   4.881
94254SOL    HW284660   9.363   0.789   4.996
94255SOL     OW84661  10.280  13.274  12.791
94255SOL    HW184662  10.263  13.292  12.698
94255SOL    HW284663  10.372  13.248  12.794
94256SOL     OW84664   0.488  10.359   7.219
94256SOL    HW184665   0.555  10.404   7.271
94256SOL    HW284666   0.442  10.303   7.281
94257SOL     OW84667  13.225  14.194   2.400
94257SOL    HW184668  13.199  14.252   2.471
94257SOL    HW284669  13.251  14.113   2.443
94258SOL     OW84670   8.547   7.837   5.748
94258SOL    HW184671   8.633   7.804   5.722
94258SOL    HW284672   8.522   7.896   5.676
94259SOL     OW84673   4.386  12.169   1.739
94259SOL    HW184674   4.357  12.078   1.734
94259SOL    HW284675   4.425  12.187   1.654
94260SOL     OW84676   5.750   4.091   8.535
94260SOL    HW184677   5.782   4.022   8.593
94260SOL    HW284678   5.799   4.079   8.454
94261SOL     OW84679   9.258  12.176   7.710
94261SOL    HW184680   9.342  12.221   7.713
94261SOL    HW284681   9.208  12.213   7.783
94262SOL     OW84682  11.090   6.441   0.018
94262SOL    HW184683  11.085   6.427   0.112
94262SOL    HW284684  11.178   6.475   0.004
94263SOL     OW84685   8.201  10.798  14.032
94263SOL    HW184686   8.248  10.721  13.999
94263SOL    HW284687   8.259  10.834  14.099
94264SOL     OW84688   3.977  13.362   0.361
94264SOL    HW184689   3.905  13.332   0.416
94264SOL    HW284690   4.050  13.303   0.382
94265SOL     OW84691   3.584  14.378   7.027
94265SOL    HW184692   3.662  14.348   6.981
94265SOL    HW284693   3.612  14.387   7.118
94266SOL     OW84694   3.466   6.015  14.258
94266SOL    HW184695   3.444   6.044  14.169
94266SOL    HW284696   3.461   6.094  14.311
94267SOL     OW84697   1.040   2.204   1.294
94267SOL    HW184698   1.101   2.224   1.365
94267SOL    HW284699   1.091   2.151   1.232
94268SOL     OW84700   7.760  14.810   7.845
94268SOL    HW184701   7.855  14.804   7.837
94268SOL    HW284702   7.745  14.874   7.915
94269SOL     OW84703   9.050   4.254  14.375
94269SOL    HW184704   9.060   4.280  14.466
94269SOL    HW284705   9.114   4.184  14.363
94270SOL     OW84706  13.901   7.338   5.617
94270SOL    HW184707  13.816   7.297   5.637
94270SOL    HW284708  13.899   7.420   5.665
94271SOL     OW84709  11.999  12.832  13.226
94271SOL    HW184710  11.922  12.799  13.179
94271SOL    HW284711  12.003  12.925  13.201
94272SOL     OW84712  13.526   6.537   1.716
94272SOL    HW184713  13.595   6.475   1.740
94272SOL    HW284714  13.491   6.567   1.800
94273SOL     OW84715   0.371  13.739   2.274
94273SOL    HW184716   0.406  13.651   2.266
94273SOL    HW284717   0.339  13.744   2.364
94274SOL     OW84718  10.097   4.904   6.250
94274SOL    HW184719  10.011   4.945   6.249
94274SOL    HW284720  10.082   4.815   6.218
94275SOL     OW84721   0.312   8.289  10.353
94275SOL    HW184722   0.345   8.355  10.413
94275SOL    HW284723   0.317   8.329  10.267
94276SOL     OW84724   2.646  10.594  11.115
94276SOL    HW184725   2.556  10.596  11.084
94276SOL    HW284726   2.691  10.659  11.061
94277SOL     OW84727  10.908   0.367   9.577
94277SOL    HW184728  10.949   0.282   9.593
94277SOL    HW284729  10.981   0.428   9.569
94278SOL     OW84730   9.591  10.536   9.123
94278SOL    HW184731   9.511  10.571   9.085
94278SOL    HW284732   9.605  10.588   9.203
94279SOL     OW84733   9.672   2.333   7.089
94279SOL    HW184734   9.749   2.292   7.049
94279SOL    HW284735   9.599   2.277   7.065
94280SOL     OW84736   2.540  13.816  14.503
94280SOL    HW184737   2.455  13.834  14.544
94280SOL    HW284738   2.527  13.736  14.453
94281SOL     OW84739   4.037  12.453   5.908
94281SOL    HW184740   4.109  12.390   5.908
94281SOL    HW284741   4.050  12.505   5.988
94282SOL     OW84742   8.460   8.322  13.782
94282SOL    HW184743   8.541   8.364  13.752
94282SOL    HW284744   8.487   8.271  13.858
94283SOL     OW84745   2.700   1.315   0.808
94283SOL    HW184746   2.754   1.385   0.772
94283SOL    HW284747   2.757   1.270   0.870
94284SOL     OW84748   9.490   4.537   1.709
94284SOL    HW184749   9.573   4.569   1.673
94284SOL    HW284750   9.426   4.556   1.640
94285SOL     OW84751   3.768   0.726  14.801
94285SOL    HW184752   3.689   0.778  14.784
94285SOL    HW284753   3.735   0.639  14.822
94286SOL     OW84754   1.019  14.412   7.333
94286SOL    HW184755   0.928  14.405   7.364
94286SOL    HW284756   1.020  14.363   7.251
94287SOL     OW84757   1.811   8.479  10.896
94287SOL    HW184758   1.796   8.387  10.873
94287SOL    HW284759   1.737   8.525  10.857
94288SOL     OW84760   2.742  10.633  13.940
94288SOL    HW184761   2.731  10.568  13.870
94288SOL    HW284762   2.816  10.601  13.990
94289SOL     OW84763   3.743   8.735   9.620
94289SOL    HW184764   3.711   8.798   9.555
94289SOL    HW284765   3.823   8.700   9.580
94290SOL     OW84766  12.165   8.108   3.204
94290SOL    HW184767  12.159   8.023   3.161
94290SOL    HW284768  12.076   8.144   3.200
94291SOL     OW84769  10.096  11.675  14.075
94291SOL    HW184770  10.078  11.693  13.982
94291SOL    HW284771  10.034  11.730  14.122
94292SOL     OW84772  12.296   3.292   3.596
94292SOL    HW184773  12.264   3.370   3.643
94292SOL    HW284774  12.257   3.218   3.643
94293SOL     OW84775  12.801   2.159   8.710
94293SOL    HW184776  12.764   2.247   8.705
94293SOL    HW284777  12.764   2.113   8.634
94294SOL     OW84778  12.027   0.121  11.818
94294SOL    HW184779  12.060   0.090  11.734
94294SOL    HW284780  11.932   0.105  11.814
94295SOL     OW84781   8.433   4.585   4.868
94295SOL    HW184782   8.435   4.518   4.935
94295SOL    HW284783   8.344   4.582   4.832
94296SOL     OW84784   1.710  11.538  11.111
94296SOL    HW184785   1.630  11.590  11.101
94296SOL    HW284786   1.780  11.603  11.116
94297SOL     OW84787   7.165  13.927  14.362
94297SOL    HW184788   7.072  13.912  14.378
94297SOL    HW284789   7.203  13.839  14.361
94298SOL     OW84790   9.790   1.673   5.017
94298SOL    HW184791   9.833   1.616   4.953
94298SOL    HW284792   9.768   1.752   4.967
94299SOL     OW84793   0.976   7.904   6.902
94299SOL    HW184794   0.979   7.923   6.808
94299SOL    HW284795   1.017   7.981   6.943
94300SOL     OW84796   4.962  11.179  14.239
94300SOL    HW184797   4.985  11.220  14.322
94300SOL    HW284798   5.003  11.092  14.243
94301SOL     OW84799   1.704   7.866   7.074
94301SOL    HW184800   1.727   7.799   7.009
94301SOL    HW284801   1.681   7.943   7.022
94302SOL     OW84802   3.497   9.137   7.851
94302SOL    HW184803   3.520   9.220   7.894
94302SOL    HW284804   3.432   9.161   7.785
94303SOL     OW84805   0.971   4.608   5.109
94303SOL    HW184806   1.017   4.531   5.075
94303SOL    HW284807   0.886   4.607   5.065
94304SOL     OW84808   7.225  14.252   0.594
94304SOL    HW184809   7.195  14.164   0.618
94304SOL    HW284810   7.320  14.243   0.584
94305SOL     OW84811   9.079   3.402   1.524
94305SOL    HW184812   9.075   3.308   1.540
94305SOL    HW284813   9.085   3.410   1.428
94306SOL     OW84814   6.204   8.415   3.814
94306SOL    HW184815   6.257   8.393   3.890
94306SOL    HW284816   6.162   8.498   3.836
94307SOL     OW84817  13.455   9.832  14.589
94307SOL    HW184818  13.540   9.870  14.612
94307SOL    HW284819  13.409   9.902  14.543
94308SOL     OW84820   0.683  10.263   0.000
94308SOL    HW184821   0.605  10.269  14.821
94308SOL    HW284822   0.744  10.326  14.836
94309SOL     OW84823  11.931  11.310   6.001
94309SOL    HW184824  11.868  11.268   6.061
94309SOL    HW284825  11.876  11.349   5.933
94310SOL     OW84826   8.285   1.486  14.768
94310SOL    HW184827   8.329   1.503  14.852
94310SOL    HW284828   8.341   1.527  14.703
94311SOL     OW84829   1.521  13.612   8.751
94311SOL    HW184830   1.560  13.698   8.769
94311SOL    HW284831   1.597  13.555   8.740
94312SOL     OW84832   9.780   9.500   1.774
94312SOL    HW184833   9.800   9.500   1.680
94312SOL    HW284834   9.836   9.432   1.810
94313SOL     OW84835   2.632   3.348   7.414
94313SOL    HW184836   2.696   3.416   7.394
94313SOL    HW284837   2.588   3.331   7.331
94314SOL     OW84838   6.029  13.042   4.790
94314SOL    HW184839   5.997  13.053   4.700
94314SOL    HW284840   6.116  13.083   4.789
94315SOL     OW84841   1.189  14.520   4.504
94315SOL    HW184842   1.148  14.524   4.418
94315SOL    HW284843   1.279  14.550   4.489
94316SOL     OW84844   0.193   3.168   2.643
94316SOL    HW184845   0.229   3.160   2.555
94316SOL    HW284846   0.117   3.226   2.632
94317SOL     OW84847   7.211   4.823   0.631
94317SOL    HW184848   7.242   4.737   0.657
94317SOL    HW284849   7.217   4.876   0.711
94318SOL     OW84850  10.800   4.380   9.214
94318SOL    HW184851  10.856   4.430   9.274
94318SOL    HW284852  10.806   4.427   9.131
94319SOL     OW84853  13.970  10.868   1.087
94319SOL    HW184854  14.030  10.811   1.134
94319SOL    HW284855  13.909  10.807   1.044
94320SOL     OW84856  12.141  13.679   2.881
94320SOL    HW184857  12.201  13.717   2.817
94320SOL    HW284858  12.062  13.658   2.830
94321SOL     OW84859  14.744   5.783  10.326
94321SOL    HW184860  14.677   5.848  10.308
94321SOL    HW284861  14.697   5.709  10.363
94322SOL     OW84862   6.175   8.995   3.670
94322SOL    HW184863   6.153   8.904   3.655
94322SOL    HW284864   6.268   9.002   3.648
94323SOL     OW84865  11.217  10.369   3.842
94323SOL    HW184866  11.180  10.333   3.922
94323SOL    HW284867  11.222  10.463   3.858
94324SOL     OW84868  11.089   7.267   5.554
94324SOL    HW184869  11.070   7.218   5.634
94324SOL    HW284870  11.068   7.207   5.483
94325SOL     OW84871   9.269  12.163   3.501
94325SOL    HW184872   9.280  12.164   3.596
94325SOL    HW284873   9.243  12.252   3.479
94326SOL     OW84874   9.026   8.207  10.375
94326SOL    HW184875   9.028   8.178  10.284
94326SOL    HW284876   8.996   8.298  10.371
94327SOL     OW84877   6.319   2.612  10.345
94327SOL    HW184878   6.354   2.664  10.272
94327SOL    HW284879   6.226   2.601  10.323
94328SOL     OW84880   3.384   9.168   2.651
94328SOL    HW184881   3.367   9.208   2.736
94328SOL    HW284882   3.469   9.125   2.661
94329SOL     OW84883   3.699   8.108  13.130
94329SOL    HW184884   3.691   8.137  13.039
94329SOL    HW284885   3.645   8.029  13.135
94330SOL     OW84886   7.699   4.915  10.394
94330SOL    HW184887   7.700   5.010  10.396
94330SOL    HW284888   7.739   4.888  10.476
94331SOL     OW84889   0.607   8.003   9.702
94331SOL    HW184890   0.661   7.971   9.630
94331SOL    HW284891   0.560   8.079   9.665
94332SOL     OW84892   4.944   4.636   2.059
94332SOL    HW184893   4.868   4.578   2.070
94332SOL    HW284894   4.911   4.709   2.005
94333SOL     OW84895  14.689   6.928  14.141
94333SOL    HW184896  14.723   7.015  14.123
94333SOL    HW284897  14.604   6.943  14.182
94334SOL     OW84898   2.866  12.759   0.283
94334SOL    HW184899   2.812  12.765   0.362
94334SOL    HW284900   2.834  12.680   0.238
94335SOL     OW84901   7.899   9.107   1.713
94335SOL    HW184902   7.845   9.072   1.641
94335SOL    HW284903   7.970   9.153   1.669
94336SOL     OW84904   7.351   0.876  13.495
94336SOL    HW184905   7.264   0.879  13.536
94336SOL    HW284906   7.408   0.840  13.562
94337SOL     OW84907   3.084   1.245   6.959
94337SOL    HW184908   3.084   1.324   7.013
94337SOL    HW284909   3.108   1.175   7.020
94338SOL     OW84910   3.935   8.149   2.986
94338SOL    HW184911   3.980   8.084   2.931
94338SOL    HW284912   3.875   8.098   3.040
94339SOL     OW84913  13.361   7.274  13.885
94339SOL    HW184914  13.312   7.239  13.810
94339SOL    HW284915  13.313   7.353  13.910
94340SOL     OW84916   5.633   2.897   6.469
94340SOL    HW184917   5.544   2.871   6.445
94340SOL    HW284918   5.623   2.940   6.554
94341SOL     OW84919  11.789  11.192   1.421
94341SOL    HW184920  11.806  11.174   1.328
94341SOL    HW284921  11.868  11.163   1.466
94342SOL     OW84922  11.621   0.141  13.347
94342SOL    HW184923  11.608   0.060  13.396
94342SOL    HW284924  11.548   0.197  13.373
94343SOL     OW84925   4.325  12.304   7.975
94343SOL    HW184926   4.372  12.245   7.917
94343SOL    HW284927   4.300  12.378   7.920
94344SOL     OW84928   8.081   9.662  12.300
94344SOL    HW184929   8.089   9.747  12.257
94344SOL    HW284930   8.054   9.682  12.389
94345SOL     OW84931   1.880   3.683  13.721
94345SOL    HW184932   1.927   3.763  13.747
94345SOL    HW284933   1.942   3.637  13.665
94346SOL     OW84934   7.282  10.964   9.921
94346SOL    HW184935   7.299  10.895   9.985
94346SOL    HW284936   7.367  11.005   9.906
94347SOL     OW84937   3.550  11.020   8.368
94347SOL    HW184938   3.585  10.944   8.322
94347SOL    HW284939   3.623  11.051   8.423
94348SOL     OW84940   2.739   3.114  12.812
94348SOL    HW184941   2.785   3.173  12.751
94348SOL    HW284942   2.793   3.035  12.813
94349SOL     OW84943   0.264   6.786  12.779
94349SOL    HW184944   0.355   6.814  12.792
94349SOL    HW284945   0.240   6.743  12.862
94350SOL     OW84946   4.135   5.020   3.278
94350SOL    HW184947   4.139   5.041   3.185
94350SOL    HW284948   4.069   4.951   3.284
94351SOL     OW84949   7.056   9.786   8.955
94351SOL    HW184950   6.979   9.827   8.916
94351SOL    HW284951   7.021   9.725   9.020
94352SOL     OW84952   6.661   2.830   4.390
94352SOL    HW184953   6.692   2.917   4.364
94352SOL    HW284954   6.708   2.770   4.333
94353SOL     OW84955   0.486  11.361   4.392
94353SOL    HW184956   0.440  11.307   4.457
94353SOL    HW284957   0.456  11.451   4.410
94354SOL     OW84958   7.575   3.901   6.676
94354SOL    HW184959   7.527   3.955   6.740
94354SOL    HW284960   7.611   3.964   6.614
94355SOL     OW84961   0.279   2.112  11.611
94355SOL    HW184962   0.305   2.189  11.560
94355SOL    HW284963   0.204   2.141  11.662
94356SOL     OW84964  11.165   2.341  13.942
94356SOL    HW184965  11.143   2.395  14.018
94356SOL    HW284966  11.243   2.291  13.969
94357SOL     OW84967   9.717   9.993  13.088
94357SOL    HW184968   9.662   9.986  13.166
94357SOL    HW284969   9.776   9.918  13.094
94358SOL     OW84970  13.211  11.045   4.696
94358SOL    HW184971  13.197  11.130   4.655
94358SOL    HW284972  13.306  11.033   4.698
94359SOL     OW84973  12.962   5.785   5.119
94359SOL    HW184974  12.975   5.692   5.099
94359SOL    HW284975  12.871   5.802   5.093
94360SOL     OW84976   2.479  10.288   4.217
94360SOL    HW184977   2.571  10.267   4.207
94360SOL    HW284978   2.456  10.258   4.305
94361SOL     OW84979   7.277   9.345   6.782
94361SOL    HW184980   7.327   9.294   6.718
94361SOL    HW284981   7.341   9.400   6.826
94362SOL     OW84982   6.116   5.217   9.370
94362SOL    HW184983   6.157   5.189   9.288
94362SOL    HW284984   6.169   5.290   9.401
94363SOL     OW84985   6.907   5.390   3.530
94363SOL    HW184986   6.995   5.391   3.493
94363SOL    HW284987   6.851   5.428   3.462
94364SOL     OW84988   9.424  10.137   0.968
94364SOL    HW184989   9.338  10.100   0.950
94364SOL    HW284990   9.411  10.196   1.041
94365SOL     OW84991   9.369   8.867   1.946
94365SOL    HW184992   9.371   8.866   2.042
94365SOL    HW284993   9.373   8.775   1.921
94366SOL     OW84994   4.550  14.575   8.083
94366SOL    HW184995   4.549  14.507   8.150
94366SOL    HW284996   4.558  14.527   8.000
94367SOL     OW84997  10.287  14.654  13.578
94367SOL    HW184998  10.272  14.686  13.667
94367SOL    HW284999  10.255  14.563  13.580
94368SOL     OW85000   3.846   3.953   8.657
94368SOL    HW185001   3.844   3.860   8.635
94368SOL    HW285002   3.769   3.966   8.712
94369SOL     OW85003   2.374  12.539  10.998
94369SOL    HW185004   2.397  12.623  11.038
94369SOL    HW285005   2.440  12.478  11.030
94370SOL     OW85006   9.216   4.616   4.303
94370SOL    HW185007   9.146   4.658   4.354
94370SOL    HW285008   9.173   4.588   4.222
94371SOL     OW85009  12.289   4.550  10.971
94371SOL    HW185010  12.208   4.594  10.996
94371SOL    HW285011  12.270   4.507  10.888
94372SOL     OW85012  14.427   9.744   2.948
94372SOL    HW185013  14.468   9.682   2.888
94372SOL    HW285014  14.333   9.736   2.930
94373SOL     OW85015   8.482   6.674   0.927
94373SOL    HW185016   8.477   6.731   1.004
94373SOL    HW285017   8.413   6.706   0.868
94374SOL     OW85018  14.337   3.128  10.863
94374SOL    HW185019  14.403   3.172  10.810
94374SOL    HW285020  14.346   3.167  10.950
94375SOL     OW85021  13.298   6.940  14.718
94375SOL    HW185022  13.276   6.993  14.641
94375SOL    HW285023  13.286   7.000  14.792
94376SOL     OW85024   3.209   9.765  10.402
94376SOL    HW185025   3.237   9.687  10.355
94376SOL    HW285026   3.113   9.759  10.404
94377SOL     OW85027  10.915  10.868   8.039
94377SOL    HW185028  10.869  10.866   8.122
94377SOL    HW285029  10.847  10.855   7.973
94378SOL     OW85030   7.860   1.077  14.134
94378SOL    HW185031   7.801   1.111  14.202
94378SOL    HW285032   7.817   0.998  14.103
94379SOL     OW85033  13.324   8.270  13.536
94379SOL    HW185034  13.267   8.193  13.540
94379SOL    HW285035  13.296   8.325  13.609
94380SOL     OW85036   6.918   0.068   0.171
94380SOL    HW185037   6.878  14.867   0.213
94380SOL    HW285038   6.863   0.086   0.095
94381SOL     OW85039   3.202   4.239   0.251
94381SOL    HW185040   3.295   4.220   0.241
94381SOL    HW285041   3.199   4.305   0.320
94382SOL     OW85042   3.550   2.934  13.520
94382SOL    HW185043   3.631   2.883  13.515
94382SOL    HW285044   3.498   2.890  13.587
94383SOL     OW85045   5.479   7.724  12.446
94383SOL    HW185046   5.458   7.769  12.528
94383SOL    HW285047   5.531   7.788  12.396
94384SOL     OW85048   4.556  11.538   1.961
94384SOL    HW185049   4.636  11.578   1.928
94384SOL    HW285050   4.582  11.499   2.045
94385SOL     OW85051  12.373   8.367  10.100
94385SOL    HW185052  12.369   8.440  10.163
94385SOL    HW285053  12.319   8.395  10.027
94386SOL     OW85054   7.326  13.473   2.937
94386SOL    HW185055   7.366  13.557   2.963
94386SOL    HW285056   7.400  13.418   2.911
94387SOL     OW85057  10.791   0.682   7.197
94387SOL    HW185058  10.842   0.755   7.230
94387SOL    HW285059  10.705   0.692   7.238
94388SOL     OW85060  12.424   1.260   9.456
94388SOL    HW185061  12.467   1.175   9.457
94388SOL    HW285062  12.434   1.291   9.366
94389SOL     OW85063   6.917  10.969  11.592
94389SOL    HW185064   6.844  10.927  11.547
94389SOL    HW285065   6.880  11.051  11.626
94390SOL     OW85066  10.823   7.595   3.823
94390SOL    HW185067  10.824   7.534   3.749
94390SOL    HW285068  10.730   7.615   3.837
94391SOL     OW85069   2.287   5.616  14.007
94391SOL    HW185070   2.333   5.607  14.090
94391SOL    HW285071   2.208   5.564  14.017
94392SOL     OW85072   2.569  13.541   3.598
94392SOL    HW185073   2.649  13.576   3.560
94392SOL    HW285074   2.568  13.573   3.688
94393SOL     OW85075   5.438   7.872   0.622
94393SOL    HW185076   5.492   7.934   0.572
94393SOL    HW285077   5.371   7.843   0.560
94394SOL     OW85078   6.692   2.352   2.693
94394SOL    HW185079   6.644   2.269   2.683
94394SOL    HW285080   6.783   2.325   2.707
94395SOL     OW85081  12.830  13.855   6.009
94395SOL    HW185082  12.792  13.801   6.079
94395SOL    HW285083  12.816  13.803   5.929
94396SOL     OW85084   7.866   9.894  13.995
94396SOL    HW185085   7.791   9.895  14.055
94396SOL    HW285086   7.872   9.803  13.966
94397SOL     OW85087   2.275  11.587  12.905
94397SOL    HW185088   2.238  11.625  12.825
94397SOL    HW285089   2.299  11.662  12.959
94398SOL     OW85090  13.542   6.467   6.675
94398SOL    HW185091  13.535   6.427   6.762
94398SOL    HW285092  13.590   6.402   6.623
94399SOL     OW85093   7.370   6.713   2.190
94399SOL    HW185094   7.439   6.677   2.246
94399SOL    HW285095   7.415   6.777   2.134
94400SOL     OW85096  14.040   7.761   5.148
94400SOL    HW185097  14.044   7.722   5.061
94400SOL    HW285098  14.092   7.702   5.203
94401SOL     OW85099   9.082  11.338   8.775
94401SOL    HW185100   9.105  11.261   8.722
94401SOL    HW285101   9.111  11.412   8.723
94402SOL     OW85102  13.920   7.672   4.496
94402SOL    HW185103  13.875   7.601   4.451
94402SOL    HW285104  13.859   7.746   4.491
94403SOL     OW85105  12.940   6.020   0.381
94403SOL    HW185106  13.015   6.077   0.366
94403SOL    HW285107  12.943   5.957   0.309
94404SOL     OW85108   3.031   1.988   9.727
94404SOL    HW185109   3.102   1.950   9.779
94404SOL    HW285110   2.952   1.971   9.779
94405SOL     OW85111   9.654  12.271   2.699
94405SOL    HW185112   9.605  12.195   2.667
94405SOL    HW285113   9.705  12.300   2.623
94406SOL     OW85114  10.392  13.410   9.422
94406SOL    HW185115  10.398  13.417   9.327
94406SOL    HW285116  10.334  13.482   9.448
94407SOL     OW85117   8.398  11.554   6.771
94407SOL    HW185118   8.348  11.614   6.715
94407SOL    HW285119   8.336  11.525   6.837
94408SOL     OW85120  14.677   9.140   9.542
94408SOL    HW185121  14.709   9.187   9.465
94408SOL    HW285122  14.749   9.147   9.606
94409SOL     OW85123  10.170   5.559   6.392
94409SOL    HW185124  10.140   5.498   6.459
94409SOL    HW285125  10.130   5.528   6.311
94410SOL     OW85126   2.898   1.293   4.324
94410SOL    HW185127   2.912   1.307   4.418
94410SOL    HW285128   2.819   1.344   4.304
94411SOL     OW85129   1.037   8.259   3.384
94411SOL    HW185130   1.068   8.348   3.398
94411SOL    HW285131   1.027   8.251   3.289
94412SOL     OW85132   4.711   5.699   5.340
94412SOL    HW185133   4.675   5.614   5.317
94412SOL    HW285134   4.805   5.689   5.329
94413SOL     OW85135   5.074   1.531   1.441
94413SOL    HW185136   5.077   1.446   1.396
94413SOL    HW285137   5.152   1.577   1.410
94414SOL     OW85138   9.805   7.045   2.461
94414SOL    HW185139   9.799   6.958   2.500
94414SOL    HW285140   9.731   7.093   2.498
94415SOL     OW85141   9.250  11.793   5.731
94415SOL    HW185142   9.155  11.803   5.743
94415SOL    HW285143   9.286  11.877   5.758
94416SOL     OW85144   1.911   8.539   9.756
94416SOL    HW185145   1.898   8.448   9.780
94416SOL    HW285146   1.860   8.589   9.820
94417SOL     OW85147  14.443   3.452   8.780
94417SOL    HW185148  14.489   3.521   8.827
94417SOL    HW285149  14.506   3.421   8.715
94418SOL     OW85150   4.848  13.950  10.054
94418SOL    HW185151   4.888  13.864  10.042
94418SOL    HW285152   4.762  13.942  10.014
94419SOL     OW85153  10.968   2.232   0.856
94419SOL    HW185154  11.025   2.156   0.854
94419SOL    HW285155  10.880   2.196   0.848
94420SOL     OW85156   1.439   7.294   9.857
94420SOL    HW185157   1.390   7.217   9.827
94420SOL    HW285158   1.486   7.324   9.779
94421SOL     OW85159  14.230   5.213  11.253
94421SOL    HW185160  14.222   5.217  11.348
94421SOL    HW285161  14.212   5.121  11.231
94422SOL     OW85162   2.331   9.399  10.211
94422SOL    HW185163   2.279   9.444  10.277
94422SOL    HW285164   2.268   9.372  10.144
94423SOL     OW85165  14.664  10.933   6.204
94423SOL    HW185166  14.754  10.919   6.233
94423SOL    HW285167  14.672  10.980   6.121
94424SOL     OW85168   1.647   3.981   0.999
94424SOL    HW185169   1.681   4.033   1.072
94424SOL    HW285170   1.703   4.003   0.925
94425SOL     OW85171   0.472   1.182  12.125
94425SOL    HW185172   0.426   1.253  12.081
94425SOL    HW285173   0.403   1.127  12.163
94426SOL     OW85174   0.834  13.756   4.261
94426SOL    HW185175   0.896  13.823   4.292
94426SOL    HW285176   0.872  13.673   4.292
94427SOL     OW85177   9.330  14.174  13.523
94427SOL    HW185178   9.272  14.153  13.450
94427SOL    HW285179   9.271  14.203  13.592
94428SOL     OW85180   6.078   6.297  14.261
94428SOL    HW185181   6.017   6.267  14.193
94428SOL    HW285182   6.122   6.373  14.222
94429SOL     OW85183  10.851  12.772  14.247
94429SOL    HW185184  10.804  12.854  14.262
94429SOL    HW285185  10.789  12.703  14.268
94430SOL     OW85186   1.232   1.284   6.205
94430SOL    HW185187   1.322   1.274   6.236
94430SOL    HW285188   1.241   1.315   6.115
94431SOL     OW85189   6.286   1.793   2.658
94431SOL    HW185190   6.232   1.872   2.664
94431SOL    HW285191   6.342   1.797   2.735
94432SOL     OW85192   5.577   3.964   1.664
94432SOL    HW185193   5.511   4.033   1.676
94432SOL    HW285194   5.540   3.907   1.596
94433SOL     OW85195   6.290   8.270   4.279
94433SOL    HW185196   6.275   8.222   4.198
94433SOL    HW285197   6.381   8.299   4.273
94434SOL     OW85198   3.618   5.311   3.173
94434SOL    HW185199   3.632   5.385   3.114
94434SOL    HW285200   3.525   5.290   3.164
94435SOL     OW85201   5.171   0.064   6.306
94435SOL    HW185202   5.189  14.845   6.299
94435SOL    HW285203   5.085   0.068   6.349
94436SOL     OW85204   6.701   5.665   6.632
94436SOL    HW185205   6.743   5.592   6.586
94436SOL    HW285206   6.644   5.623   6.697
94437SOL     OW85207   5.368   3.963   7.903
94437SOL    HW185208   5.437   4.025   7.879
94437SOL    HW285209   5.366   3.964   7.998
94438SOL     OW85210   4.213   4.714   4.978
94438SOL    HW185211   4.186   4.624   5.000
94438SOL    HW285212   4.132   4.756   4.947
94439SOL     OW85213   2.496   1.065   1.702
94439SOL    HW185214   2.505   1.020   1.618
94439SOL    HW285215   2.536   1.151   1.688
94440SOL     OW85216   8.140   6.702   7.500
94440SOL    HW185217   8.203   6.673   7.434
94440SOL    HW285218   8.057   6.667   7.470
94441SOL     OW85219  10.166  14.548  14.599
94441SOL    HW185220  10.108  14.622  14.583
94441SOL    HW285221  10.147  14.523  14.690
94442SOL     OW85222   5.644   9.919   8.266
94442SOL    HW185223   5.719   9.956   8.313
94442SOL    HW285224   5.657   9.824   8.271
94443SOL     OW85225  13.661  14.577   3.039
94443SOL    HW185226  13.711  14.649   3.001
94443SOL    HW285227  13.582  14.618   3.075
94444SOL     OW85228   5.631  12.643   2.465
94444SOL    HW185229   5.723  12.620   2.452
94444SOL    HW285230   5.632  12.739   2.474
94445SOL     OW85231   5.730  13.289  12.876
94445SOL    HW185232   5.774  13.372  12.894
94445SOL    HW285233   5.676  13.273  12.953
94446SOL     OW85234   5.392  10.043  12.765
94446SOL    HW185235   5.307  10.043  12.809
94446SOL    HW285236   5.372  10.032  12.672
94447SOL     OW85237   0.019  11.039   9.344
94447SOL    HW185238  14.802  11.049   9.369
94447SOL    HW285239   0.068  11.084   9.412
94448SOL     OW85240  11.563  10.876   1.586
94448SOL    HW185241  11.637  10.905   1.640
94448SOL    HW285242  11.493  10.861   1.649
94449SOL     OW85243   9.463   0.554  10.667
94449SOL    HW185244   9.518   0.527  10.741
94449SOL    HW285245   9.503   0.510  10.591
94450SOL     OW85246   2.060   9.496   0.367
94450SOL    HW185247   2.147   9.462   0.382
94450SOL    HW285248   2.025   9.444   0.294
94451SOL     OW85249   4.661   6.946   6.916
94451SOL    HW185250   4.755   6.943   6.935
94451SOL    HW285251   4.640   6.857   6.887
94452SOL     OW85252  12.370   5.122  11.196
94452SOL    HW185253  12.369   5.056  11.126
94452SOL    HW285254  12.306   5.090  11.259
94453SOL     OW85255   4.642   9.657  10.125
94453SOL    HW185256   4.674   9.747  10.124
94453SOL    HW285257   4.619   9.640  10.216
94454SOL     OW85258   8.664   1.664   6.068
94454SOL    HW185259   8.571   1.683   6.081
94454SOL    HW285260   8.709   1.745   6.093
94455SOL     OW85261   1.997   7.182   3.079
94455SOL    HW185262   1.913   7.203   3.038
94455SOL    HW285263   2.037   7.119   3.019
94456SOL     OW85264  12.256   9.404   5.647
94456SOL    HW185265  12.318   9.419   5.719
94456SOL    HW285266  12.281   9.319   5.611
94457SOL     OW85267  14.236   0.264  13.436
94457SOL    HW185268  14.320   0.287  13.475
94457SOL    HW285269  14.213   0.180  13.477
94458SOL     OW85270   0.918   2.268  12.175
94458SOL    HW185271   0.984   2.296  12.111
94458SOL    HW285272   0.845   2.328  12.162
94459SOL     OW85273   1.901  10.318   1.149
94459SOL    HW185274   1.967  10.387   1.156
94459SOL    HW285275   1.931  10.262   1.078
94460SOL     OW85276  13.689  11.131  13.870
94460SOL    HW185277  13.655  11.063  13.928
94460SOL    HW285278  13.636  11.209  13.890
94461SOL     OW85279   4.616   6.421  14.549
94461SOL    HW185280   4.647   6.454  14.465
94461SOL    HW285281   4.522   6.409  14.538
94462SOL     OW85282  14.306   6.817   9.863
94462SOL    HW185283  14.212   6.800   9.868
94462SOL    HW285284  14.313   6.906   9.830
94463SOL     OW85285  13.772   7.781   8.518
94463SOL    HW185286  13.812   7.860   8.554
94463SOL    HW285287  13.687   7.775   8.561
94464SOL     OW85288   3.364   4.228   1.668
94464SOL    HW185289   3.450   4.221   1.627
94464SOL    HW285290   3.317   4.292   1.614
94465SOL     OW85291   0.402  10.549   7.586
94465SOL    HW185292   0.339  10.594   7.644
94465SOL    HW285293   0.452  10.620   7.546
94466SOL     OW85294   8.515   1.523   7.757
94466SOL    HW185295   8.484   1.438   7.723
94466SOL    HW285296   8.513   1.581   7.681
94467SOL     OW85297   4.633   7.987   1.880
94467SOL    HW185298   4.597   8.003   1.793
94467SOL    HW285299   4.585   7.911   1.913
94468SOL     OW85300   3.358   5.438  11.841
94468SOL    HW185301   3.390   5.465  11.755
94468SOL    HW285302   3.414   5.364  11.865
94469SOL     OW85303   0.137  11.398   7.505
94469SOL    HW185304   0.054  11.442   7.485
94469SOL    HW285305   0.176  11.381   7.419
94470SOL     OW85306   1.801   7.558   1.576
94470SOL    HW185307   1.820   7.589   1.488
94470SOL    HW285308   1.874   7.501   1.598
94471SOL     OW85309   9.709   4.047   2.435
94471SOL    HW185310   9.644   4.041   2.365
94471SOL    HW285311   9.735   3.957   2.451
94472SOL     OW85312   3.952  12.187   5.445
94472SOL    HW185313   3.959  12.111   5.388
94472SOL    HW285314   3.858  12.197   5.462
94473SOL     OW85315   5.241   2.350  10.843
94473SOL    HW185316   5.273   2.390  10.762
94473SOL    HW285317   5.280   2.403  10.912
94474SOL     OW85318   6.481   2.133   5.994
94474SOL    HW185319   6.557   2.135   5.936
94474SOL    HW285320   6.415   2.186   5.949
94475SOL     OW85321   8.584  10.351   2.070
94475SOL    HW185322   8.632  10.270   2.081
94475SOL    HW285323   8.651  10.416   2.050
94476SOL     OW85324  11.342   4.567  11.678
94476SOL    HW185325  11.312   4.488  11.723
94476SOL    HW285326  11.367   4.536  11.591
94477SOL     OW85327  11.811  14.652  10.680
94477SOL    HW185328  11.840  14.611  10.762
94477SOL    HW285329  11.715  14.652  10.687
94478SOL     OW85330   8.105  14.274   6.974
94478SOL    HW185331   8.126  14.295   6.884
94478SOL    HW285332   8.183  14.230   7.008
94479SOL     OW85333   4.982   9.371  10.881
94479SOL    HW185334   5.000   9.383  10.788
94479SOL    HW285335   4.993   9.458  10.920
94480SOL     OW85336  14.743   7.008   1.322
94480SOL    HW185337  14.693   7.037   1.245
94480SOL    HW285338  14.743   6.913   1.315
94481SOL     OW85339  10.180   3.031   7.126
94481SOL    HW185340  10.200   3.107   7.182
94481SOL    HW285341  10.097   2.998   7.159
94482SOL     OW85342   6.563   1.454   6.515
94482SOL    HW185343   6.538   1.485   6.602
94482SOL    HW285344   6.604   1.529   6.473
94483SOL     OW85345   3.379   5.308   4.673
94483SOL    HW185346   3.354   5.387   4.625
94483SOL    HW285347   3.349   5.324   4.762
94484SOL     OW85348   6.295   0.264   8.081
94484SOL    HW185349   6.251   0.200   8.136
94484SOL    HW285350   6.353   0.312   8.140
94485SOL     OW85351   4.022   6.738   4.153
94485SOL    HW185352   3.935   6.751   4.116
94485SOL    HW285353   4.067   6.821   4.141
94486SOL     OW85354   0.205   7.546  12.957
94486SOL    HW185355   0.140   7.525  13.025
94486SOL    HW285356   0.282   7.574  13.006
94487SOL     OW85357   1.419   3.547   2.839
94487SOL    HW185358   1.351   3.479   2.838
94487SOL    HW285359   1.487   3.514   2.780
94488SOL     OW85360  11.994  11.767   4.221
94488SOL    HW185361  12.054  11.774   4.147
94488SOL    HW285362  12.050  11.744   4.296
94489SOL     OW85363   7.050   6.137  13.303
94489SOL    HW185364   7.123   6.136  13.365
94489SOL    HW285365   7.039   6.230  13.281
94490SOL     OW85366  13.694   9.385  14.314
94490SOL    HW185367  13.782   9.414  14.290
94490SOL    HW285368  13.653   9.462  14.353
94491SOL     OW85369   3.434  12.317   1.097
94491SOL    HW185370   3.522  12.347   1.075
94491SOL    HW285371   3.405  12.267   1.021
94492SOL     OW85372  13.217   8.530  10.655
94492SOL    HW185373  13.236   8.440  10.683
94492SOL    HW285374  13.300   8.576  10.667
94493SOL     OW85375  11.537  11.431  14.150
94493SOL    HW185376  11.626  11.465  14.144
94493SOL    HW285377  11.501  11.442  14.062
94494SOL     OW85378   9.144  10.181   6.850
94494SOL    HW185379   9.137  10.161   6.757
94494SOL    HW285380   9.060  10.221   6.873
94495SOL     OW85381   3.549  13.901  12.638
94495SOL    HW185382   3.579  13.970  12.578
94495SOL    HW285383   3.628  13.875  12.686
94496SOL     OW85384   5.124  14.699  11.685
94496SOL    HW185385   5.030  14.718  11.695
94496SOL    HW285386   5.156  14.693  11.775
94497SOL     OW85387   7.361   2.121   1.308
94497SOL    HW185388   7.440   2.118   1.362
94497SOL    HW285389   7.297   2.169   1.361
94498SOL     OW85390   3.504  12.804  14.064
94498SOL    HW185391   3.413  12.787  14.090
94498SOL    HW285392   3.506  12.781  13.971
94499SOL     OW85393   9.190   1.976  14.862
94499SOL    HW185394   9.284   1.961  14.852
94499SOL    HW285395   9.168   2.040  14.795
94500SOL     OW85396   9.874   3.020   4.654
94500SOL    HW185397   9.952   3.066   4.624
94500SOL    HW285398   9.901   2.928   4.657
94501SOL     OW85399   3.569   9.861   1.943
94501SOL    HW185400   3.590   9.952   1.923
94501SOL    HW285401   3.585   9.814   1.861
94502SOL     OW85402   9.747   6.650   3.981
94502SOL    HW185403   9.822   6.597   4.006
94502SOL    HW285404   9.720   6.614   3.896
94503SOL     OW85405   1.947  12.570   4.317
94503SOL    HW185406   1.971  12.504   4.252
94503SOL    HW285407   1.987  12.651   4.284
94504SOL     OW85408  13.613  12.151   5.061
94504SOL    HW185409  13.571  12.142   4.976
94504SOL    HW285410  13.662  12.070   5.073
94505SOL     OW85411   3.486   7.982  12.818
94505SOL    HW185412   3.418   7.939  12.766
94505SOL    HW285413   3.567   7.938  12.792
94506SOL     OW85414   2.914   8.673  11.103
94506SOL    HW185415   2.826   8.670  11.141
94506SOL    HW285416   2.903   8.638  11.015
94507SOL     OW85417   9.382  13.420  11.902
94507SOL    HW185418   9.441  13.374  11.961
94507SOL    HW285419   9.305  13.362  11.896
94508SOL     OW85420   9.425   1.788   2.615
94508SOL    HW185421   9.446   1.856   2.551
94508SOL    HW285422   9.402   1.711   2.563
94509SOL     OW85423   5.707   4.695  11.067
94509SOL    HW185424   5.677   4.687  11.157
94509SOL    HW285425   5.703   4.789  11.049
94510SOL     OW85426   1.429   6.619   8.645
94510SOL    HW185427   1.508   6.602   8.594
94510SOL    HW285428   1.363   6.561   8.606
94511SOL     OW85429   9.814   8.608  10.363
94511SOL    HW185430   9.765   8.677  10.408
94511SOL    HW285431   9.802   8.626  10.270
94512SOL     OW85432   1.168   8.169   3.643
94512SOL    HW185433   1.209   8.253   3.662
94512SOL    HW285434   1.127   8.181   3.557
94513SOL     OW85435  14.055  10.768   2.763
94513SOL    HW185436  14.007  10.850   2.755
94513SOL    HW285437  14.116  10.783   2.835
94514SOL     OW85438   4.800  12.692   9.073
94514SOL    HW185439   4.785  12.704   9.167
94514SOL    HW285440   4.895  12.686   9.065
94515SOL     OW85441  12.408   0.118   0.415
94515SOL    HW185442  12.441   0.201   0.379
94515SOL    HW285443  12.378   0.141   0.503
94516SOL     OW85444  14.036   7.938   2.167
94516SOL    HW185445  14.116   7.937   2.219
94516SOL    HW285446  14.061   7.979   2.084
94517SOL     OW85447   4.384  13.287   3.571
94517SOL    HW185448   4.379  13.378   3.542
94517SOL    HW285449   4.330  13.239   3.508
94518SOL     OW85450   6.866  12.064  11.513
94518SOL    HW185451   6.789  12.017  11.480
94518SOL    HW285452   6.831  12.147  11.546
94519SOL     OW85453  10.153   5.118   2.264
94519SOL    HW185454  10.101   5.147   2.189
94519SOL    HW285455  10.122   5.171   2.337
94520SOL     OW85456   0.342   5.709   0.026
94520SOL    HW185457   0.344   5.778  14.835
94520SOL    HW285458   0.355   5.628  14.852
94521SOL     OW85459   7.529   3.331   1.398
94521SOL    HW185460   7.507   3.283   1.319
94521SOL    HW285461   7.445   3.355   1.437
94522SOL     OW85462   1.946   3.493   7.108
94522SOL    HW185463   1.946   3.536   7.022
94522SOL    HW285464   2.033   3.513   7.144
94523SOL     OW85465  11.403  12.075  11.222
94523SOL    HW185466  11.497  12.061  11.218
94523SOL    HW285467  11.366  11.987  11.215
94524SOL     OW85468  12.265  10.337  11.155
94524SOL    HW185469  12.212  10.407  11.194
94524SOL    HW285470  12.246  10.260  11.207
94525SOL     OW85471   9.066   2.213   1.288
94525SOL    HW185472   9.162   2.212   1.296
94525SOL    HW285473   9.047   2.154   1.215
94526SOL     OW85474  11.518  14.033   5.738
94526SOL    HW185475  11.480  14.108   5.693
94526SOL    HW285476  11.446  13.998   5.791
94527SOL     OW85477   3.940  12.800   2.229
94527SOL    HW185478   3.901  12.848   2.155
94527SOL    HW285479   3.967  12.717   2.191
94528SOL     OW85480   0.355   5.237   2.302
94528SOL    HW185481   0.325   5.284   2.380
94528SOL    HW285482   0.284   5.249   2.238
94529SOL     OW85483   9.800   5.296   9.312
94529SOL    HW185484   9.801   5.387   9.341
94529SOL    HW285485   9.776   5.301   9.219
94530SOL     OW85486   0.765   5.066  12.152
94530SOL    HW185487   0.722   5.120  12.086
94530SOL    HW285488   0.822   5.008  12.102
94531SOL     OW85489   0.730  10.449   1.165
94531SOL    HW185490   0.740  10.367   1.213
94531SOL    HW285491   0.788  10.439   1.089
94532SOL     OW85492   1.168  11.556   1.547
94532SOL    HW185493   1.159  11.651   1.540
94532SOL    HW285494   1.106  11.531   1.615
94533SOL     OW85495   3.439   2.903  12.595
94533SOL    HW185496   3.466   2.827  12.544
94533SOL    HW285497   3.407   2.965  12.529
94534SOL     OW85498  12.678  11.159   8.751
94534SOL    HW185499  12.716  11.247   8.753
94534SOL    HW285500  12.637  11.154   8.664
94535SOL     OW85501   5.644  10.670  12.072
94535SOL    HW185502   5.664  10.597  12.014
94535SOL    HW285503   5.712  10.666  12.140
94536SOL     OW85504  12.387  11.384  11.122
94536SOL    HW185505  12.351  11.473  11.114
94536SOL    HW285506  12.471  11.389  11.076
94537SOL     OW85507  11.301  10.064  10.793
94537SOL    HW185508  11.318  10.058  10.887
94537SOL    HW285509  11.303   9.974  10.762
94538SOL     OW85510  14.817   3.582  14.864
94538SOL    HW185511  14.792   3.509  14.808
94538SOL    HW285512  14.807   3.549   0.079
94539SOL     OW85513   5.990   0.727  12.608
94539SOL    HW185514   6.033   0.675  12.540
94539SOL    HW285515   6.024   0.816  12.595
94540SOL     OW85516   8.854   3.098   8.343
94540SOL    HW185517   8.917   3.075   8.411
94540SOL    HW285518   8.769   3.097   8.387
94541SOL     OW85519  12.823  12.118   4.716
94541SOL    HW185520  12.782  12.193   4.671
94541SOL    HW285521  12.911  12.149   4.739
94542SOL     OW85522   6.270  11.273   7.468
94542SOL    HW185523   6.365  11.264   7.465
94542SOL    HW285524   6.253  11.327   7.545
94543SOL     OW85525   9.096   7.666  10.633
94543SOL    HW185526   9.028   7.615  10.676
94543SOL    HW285527   9.051   7.741  10.596
94544SOL     OW85528   4.678   8.246  11.555
94544SOL    HW185529   4.760   8.260  11.601
94544SOL    HW285530   4.694   8.170  11.499
94545SOL     OW85531  10.368   1.280   8.501
94545SOL    HW185532  10.393   1.231   8.423
94545SOL    HW285533  10.388   1.371   8.478
94546SOL     OW85534  10.694   7.072   6.604
94546SOL    HW185535  10.636   7.008   6.645
94546SOL    HW285536  10.779   7.029   6.601
94547SOL     OW85537   1.648   8.240  12.809
94547SOL    HW185538   1.702   8.298  12.862
94547SOL    HW285539   1.580   8.209  12.868
94548SOL     OW85540   2.413  13.045  11.930
94548SOL    HW185541   2.476  13.035  12.001
94548SOL    HW285542   2.423  12.965  11.878
94549SOL     OW85543   0.404  10.989   5.107
94549SOL    HW185544   0.373  11.038   5.183
94549SOL    HW285545   0.357  10.906   5.111
94550SOL     OW85546   9.212   9.413  14.611
94550SOL    HW185547   9.264   9.385  14.536
94550SOL    HW285548   9.122   9.418  14.577
94551SOL     OW85549  13.208   0.583  10.187
94551SOL    HW185550  13.274   0.553  10.250
94551SOL    HW285551  13.129   0.535  10.211
94552SOL     OW85552   7.731   3.776  11.295
94552SOL    HW185553   7.819   3.743  11.277
94552SOL    HW285554   7.709   3.739  11.380
94553SOL     OW85555  10.838   0.811  14.434
94553SOL    HW185556  10.893   0.887  14.452
94553SOL    HW285557  10.775   0.842  14.369
94554SOL     OW85558  13.951  13.995   8.674
94554SOL    HW185559  13.974  13.973   8.584
94554SOL    HW285560  13.933  14.089   8.672
94555SOL     OW85561   1.225  10.530   7.459
94555SOL    HW185562   1.160  10.516   7.390
94555SOL    HW285563   1.178  10.576   7.529
94556SOL     OW85564   2.849   1.004   0.447
94556SOL    HW185565   2.906   1.015   0.371
94556SOL    HW285566   2.884   1.065   0.512
94557SOL     OW85567   8.216   4.216  12.805
94557SOL    HW185568   8.308   4.192  12.821
94557SOL    HW285569   8.219   4.310  12.787
94558SOL     OW85570   3.108   3.550   1.249
94558SOL    HW185571   3.099   3.600   1.168
94558SOL    HW285572   3.200   3.522   1.250
94559SOL     OW85573  14.479   7.097  12.199
94559SOL    HW185574  14.406   7.046  12.164
94559SOL    HW285575  14.447   7.130  12.283
94560SOL     OW85576  11.150  13.837   4.595
94560SOL    HW185577  11.122  13.835   4.503
94560SOL    HW285578  11.087  13.896   4.637
94561SOL     OW85579  10.446   0.634   0.436
94561SOL    HW185580  10.422   0.726   0.442
94561SOL    HW285581  10.382   0.596   0.375
94562SOL     OW85582   6.468   5.828   0.088
94562SOL    HW185583   6.513   5.804   0.169
94562SOL    HW285584   6.507   5.773   0.021
94563SOL     OW85585  12.754   0.969  10.623
94563SOL    HW185586  12.702   0.923  10.557
94563SOL    HW285587  12.844   0.965  10.590
94564SOL     OW85588  14.730   1.623   4.735
94564SOL    HW185589  14.742   1.714   4.762
94564SOL    HW285590  14.641   1.620   4.701
94565SOL     OW85591   2.871   5.319  13.823
94565SOL    HW185592   2.867   5.393  13.884
94565SOL    HW285593   2.793   5.267  13.843
94566SOL     OW85594   9.599   9.386   1.973
94566SOL    HW185595   9.638   9.421   1.892
94566SOL    HW285596   9.522   9.440   1.988
94567SOL     OW85597  10.087   6.584   4.135
94567SOL    HW185598  10.140   6.640   4.192
94567SOL    HW285599  10.062   6.511   4.191
94568SOL     OW85600   5.567   3.368  12.602
94568SOL    HW185601   5.527   3.351  12.517
94568SOL    HW285602   5.560   3.463  12.612
94569SOL     OW85603   3.943   6.891   0.757
94569SOL    HW185604   4.031   6.889   0.794
94569SOL    HW285605   3.957   6.889   0.662
94570SOL     OW85606   1.906  12.622   5.402
94570SOL    HW185607   1.925  12.695   5.344
94570SOL    HW285608   1.991  12.593   5.434
94571SOL     OW85609   6.841   7.323   7.190
94571SOL    HW185610   6.860   7.413   7.163
94571SOL    HW285611   6.843   7.273   7.109
94572SOL     OW85612   1.590  13.502   8.008
94572SOL    HW185613   1.544  13.492   8.092
94572SOL    HW285614   1.680  13.521   8.032
94573SOL     OW85615   6.475   7.362   5.173
94573SOL    HW185616   6.493   7.347   5.266
94573SOL    HW285617   6.519   7.444   5.152
94574SOL     OW85618  14.555   6.914   5.620
94574SOL    HW185619  14.574   6.854   5.548
94574SOL    HW285620  14.483   6.871   5.668
94575SOL     OW85621   8.246  13.804   1.191
94575SOL    HW185622   8.207  13.731   1.238
94575SOL    HW285623   8.187  13.822   1.119
94576SOL     OW85624  10.457   9.960   6.184
94576SOL    HW185625  10.470   9.866   6.187
94576SOL    HW285626  10.381   9.972   6.127
94577SOL     OW85627   9.468   1.301   4.021
94577SOL    HW185628   9.540   1.306   4.084
94577SOL    HW285629   9.389   1.314   4.073
94578SOL     OW85630  12.699   4.960  10.948
94578SOL    HW185631  12.784   4.997  10.970
94578SOL    HW285632  12.650   4.960  11.030
94579SOL     OW85633  13.251   9.431   9.582
94579SOL    HW185634  13.337   9.393   9.601
94579SOL    HW285635  13.198   9.411   9.658
94580SOL     OW85636   8.539  14.199   5.569
94580SOL    HW185637   8.612  14.177   5.626
94580SOL    HW285638   8.463  14.205   5.628
94581SOL     OW85639   0.171  10.081   2.565
94581SOL    HW185640   0.230  10.076   2.490
94581SOL    HW285641   0.107  10.148   2.541
94582SOL     OW85642   9.537   9.962  11.945
94582SOL    HW185643   9.603   9.963  12.015
94582SOL    HW285644   9.517   9.870  11.932
94583SOL     OW85645  13.068   8.319  11.048
94583SOL    HW185646  12.991   8.262  11.044
94583SOL    HW285647  13.063   8.360  11.134
94584SOL     OW85648   1.556   7.275   1.487
94584SOL    HW185649   1.529   7.340   1.553
94584SOL    HW285650   1.644   7.249   1.515
94585SOL     OW85651   3.464   5.615   4.668
94585SOL    HW185652   3.524   5.628   4.741
94585SOL    HW285653   3.404   5.689   4.672
94586SOL     OW85654   4.707   9.834   9.140
94586SOL    HW185655   4.765   9.761   9.118
94586SOL    HW285656   4.740   9.866   9.224
94587SOL     OW85657   1.075  10.640   5.239
94587SOL    HW185658   1.013  10.704   5.206
94587SOL    HW285659   1.046  10.556   5.202
94588SOL     OW85660   0.303   0.986   3.414
94588SOL    HW185661   0.283   1.045   3.341
94588SOL    HW285662   0.223   0.935   3.426
94589SOL     OW85663  12.507   0.476   3.363
94589SOL    HW185664  12.595   0.493   3.397
94589SOL    HW285665  12.466   0.420   3.429
94590SOL     OW85666  14.271   0.803   9.155
94590SOL    HW185667  14.272   0.863   9.081
94590SOL    HW285668  14.241   0.720   9.119
94591SOL     OW85669   6.375   3.156   2.234
94591SOL    HW185670   6.468   3.149   2.208
94591SOL    HW285671   6.337   3.073   2.206
94592SOL     OW85672   3.256  11.820   5.531
94592SOL    HW185673   3.341  11.856   5.557
94592SOL    HW285674   3.256  11.826   5.436
94593SOL     OW85675   6.163   5.228  11.623
94593SOL    HW185676   6.214   5.240  11.703
94593SOL    HW285677   6.084   5.183  11.652
94594SOL     OW85678   9.626   4.947   4.315
94594SOL    HW185679   9.674   5.028   4.303
94594SOL    HW285680   9.691   4.878   4.301
94595SOL     OW85681   3.126   1.247   2.514
94595SOL    HW185682   3.162   1.236   2.426
94595SOL    HW285683   3.176   1.320   2.551
94596SOL     OW85684  14.544  13.308   9.735
94596SOL    HW185685  14.467  13.347   9.777
94596SOL    HW285686  14.508  13.245   9.673
94597SOL     OW85687   4.158  13.704   5.132
94597SOL    HW185688   4.220  13.683   5.202
94597SOL    HW285689   4.146  13.622   5.085
94598SOL     OW85690   8.654  13.431   9.849
94598SOL    HW185691   8.749  13.438   9.858
94598SOL    HW285692   8.640  13.347   9.805
94599SOL     OW85693   1.944  14.221   5.988
94599SOL    HW185694   1.854  14.198   5.964
94599SOL    HW285695   1.963  14.299   5.936
94600SOL     OW85696   5.896   1.062   8.446
94600SOL    HW185697   5.849   1.092   8.524
94600SOL    HW285698   5.907   0.968   8.460
94601SOL     OW85699   5.815  11.888   5.839
94601SOL    HW185700   5.819  11.983   5.836
94601SOL    HW285701   5.899  11.860   5.803
94602SOL     OW85702  11.409   0.023   9.907
94602SOL    HW185703  11.384   0.024   9.999
94602SOL    HW285704  11.467   0.099   9.897
94603SOL     OW85705  11.013   6.709   5.684
94603SOL    HW185706  11.057   6.760   5.615
94603SOL    HW285707  11.057   6.735   5.765
94604SOL     OW85708  10.862   7.744  14.162
94604SOL    HW185709  10.883   7.651  14.168
94604SOL    HW285710  10.853   7.773  14.253
94605SOL     OW85711   6.079   1.156  10.215
94605SOL    HW185712   6.007   1.099  10.189
94605SOL    HW285713   6.159   1.108  10.191
94606SOL     OW85714  14.742   9.237  10.691
94606SOL    HW185715  14.739   9.171  10.761
94606SOL    HW285716  14.766   9.187  10.613
94607SOL     OW85717   3.663   5.808   6.809
94607SOL    HW185718   3.671   5.893   6.853
94607SOL    HW285719   3.655   5.830   6.716
94608SOL     OW85720   6.549   2.451   9.451
94608SOL    HW185721   6.515   2.535   9.421
94608SOL    HW285722   6.540   2.393   9.376
94609SOL     OW85723  13.408   9.116   2.727
94609SOL    HW185724  13.371   9.055   2.663
94609SOL    HW285725  13.413   9.199   2.681
94610SOL     OW85726  12.168  12.859  10.443
94610SOL    HW185727  12.089  12.826  10.486
94610SOL    HW285728  12.136  12.925  10.382
94611SOL     OW85729  12.306  14.521   5.366
94611SOL    HW185730  12.325  14.537   5.459
94611SOL    HW285731  12.342  14.434   5.349
94612SOL     OW85732   9.680   8.856  12.171
94612SOL    HW185733   9.772   8.829  12.162
94612SOL    HW285734   9.684   8.946  12.204
94613SOL     OW85735  14.866   1.880   2.412
94613SOL    HW185736   0.041   1.801   2.392
94613SOL    HW285737  14.775   1.857   2.392
94614SOL     OW85738   2.770  12.763  13.311
94614SOL    HW185739   2.793  12.789  13.221
94614SOL    HW285740   2.850  12.777  13.361
94615SOL     OW85741   2.633  11.724   8.036
94615SOL    HW185742   2.662  11.652   8.092
94615SOL    HW285743   2.713  11.771   8.013
94616SOL     OW85744  13.971  13.273   2.053
94616SOL    HW185745  13.945  13.237   2.139
94616SOL    HW285746  13.931  13.360   2.050
94617SOL     OW85747  13.846  11.454   8.255
94617SOL    HW185748  13.790  11.378   8.240
94617SOL    HW285749  13.889  11.469   8.170
94618SOL     OW85750   8.072  11.741   0.286
94618SOL    HW185751   7.982  11.734   0.318
94618SOL    HW285752   8.081  11.831   0.257
94619SOL     OW85753   5.695  10.642   8.858
94619SOL    HW185754   5.736  10.720   8.820
94619SOL    HW285755   5.692  10.579   8.786
94620SOL     OW85756  10.918  10.275   3.648
94620SOL    HW185757  10.886  10.244   3.733
94620SOL    HW285758  10.856  10.344   3.624
94621SOL     OW85759   0.581   1.432  10.362
94621SOL    HW185760   0.536   1.467  10.285
94621SOL    HW285761   0.519   1.368  10.398
94622SOL     OW85762   9.385   2.810   5.413
94622SOL    HW185763   9.299   2.816   5.455
94622SOL    HW285764   9.365   2.788   5.322
94623SOL     OW85765   4.870   5.706   5.722
94623SOL    HW185766   4.793   5.723   5.669
94623SOL    HW285767   4.934   5.670   5.660
94624SOL     OW85768   9.491  12.039   4.490
94624SOL    HW185769   9.557  12.035   4.420
94624SOL    HW285770   9.459  11.949   4.499
94625SOL     OW85771   2.509   6.779   5.365
94625SOL    HW185772   2.595   6.753   5.332
94625SOL    HW285773   2.458   6.798   5.286
94626SOL     OW85774   2.143  10.601   3.836
94626SOL    HW185775   2.051  10.585   3.811
94626SOL    HW285776   2.180  10.513   3.847
94627SOL     OW85777   2.154   1.157   5.593
94627SOL    HW185778   2.089   1.223   5.570
94627SOL    HW285779   2.187   1.183   5.679
94628SOL     OW85780  11.712   1.895  10.004
94628SOL    HW185781  11.654   1.940  10.066
94628SOL    HW285782  11.744   1.964   9.947
94629SOL     OW85783   5.956   4.779   7.048
94629SOL    HW185784   5.950   4.687   7.074
94629SOL    HW285785   5.994   4.777   6.960
94630SOL     OW85786  14.030  13.507   5.664
94630SOL    HW185787  14.034  13.455   5.584
94630SOL    HW285788  13.991  13.449   5.729
94631SOL     OW85789   1.424   5.961  10.386
94631SOL    HW185790   1.394   5.968  10.295
94631SOL    HW285791   1.475   6.041  10.401
94632SOL     OW85792  13.871   6.555   0.177
94632SOL    HW185793  13.861   6.608   0.257
94632SOL    HW285794  13.843   6.467   0.203
94633SOL     OW85795   6.221  12.084  14.580
94633SOL    HW185796   6.143  12.102  14.633
94633SOL    HW285797   6.289  12.140  14.618
94634SOL     OW85798  13.878  12.967   7.503
94634SOL    HW185799  13.817  13.024   7.456
94634SOL    HW285800  13.831  12.884   7.511
94635SOL     OW85801  14.387   3.364  13.634
94635SOL    HW185802  14.325   3.308  13.588
94635SOL    HW285803  14.407   3.434  13.571
94636SOL     OW85804   7.328   1.434   3.149
94636SOL    HW185805   7.343   1.529   3.154
94636SOL    HW285806   7.416   1.397   3.139
94637SOL     OW85807   9.647  10.979  11.900
94637SOL    HW185808   9.740  10.980  11.878
94637SOL    HW285809   9.636  10.900  11.954
94638SOL     OW85810   8.538  10.726  13.432
94638SOL    HW185811   8.480  10.728  13.357
94638SOL    HW285812   8.607  10.789  13.411
94639SOL     OW85813   8.387   2.299   6.827
94639SOL    HW185814   8.405   2.380   6.874
94639SOL    HW285815   8.449   2.236   6.864
94640SOL     OW85816   3.112   7.673  10.882
94640SOL    HW185817   3.077   7.585  10.897
94640SOL    HW285818   3.207   7.663  10.885
94641SOL     OW85819  14.284   4.603   9.280
94641SOL    HW185820  14.250   4.531   9.333
94641SOL    HW285821  14.359   4.637   9.329
94642SOL     OW85822   4.260   5.392   1.384
94642SOL    HW185823   4.323   5.464   1.385
94642SOL    HW285824   4.247   5.370   1.476
94643SOL     OW85825   0.060   9.790   6.744
94643SOL    HW185826   0.058   9.724   6.814
94643SOL    HW285827   0.038   9.872   6.789
94644SOL     OW85828  11.983   9.287   4.877
94644SOL    HW185829  12.051   9.289   4.944
94644SOL    HW285830  11.924   9.359   4.901
94645SOL     OW85831   1.562   8.386   4.669
94645SOL    HW185832   1.551   8.328   4.594
94645SOL    HW285833   1.586   8.327   4.741
94646SOL     OW85834   5.579  14.222   0.262
94646SOL    HW185835   5.549  14.267   0.341
94646SOL    HW285836   5.583  14.290   0.195
94647SOL     OW85837   8.295  10.304  14.604
94647SOL    HW185838   8.323  10.259  14.524
94647SOL    HW285839   8.217  10.354  14.578
94648SOL     OW85840  14.371  12.493   2.273
94648SOL    HW185841  14.355  12.478   2.180
94648SOL    HW285842  14.285  12.508   2.310
94649SOL     OW85843  14.493   2.845  12.936
94649SOL    HW185844  14.521   2.764  12.894
94649SOL    HW285845  14.508   2.912  12.870
94650SOL     OW85846  12.920   3.864   8.885
94650SOL    HW185847  13.006   3.855   8.843
94650SOL    HW285848  12.899   3.957   8.876
94651SOL     OW85849   6.117  11.468   8.682
94651SOL    HW185850   6.058  11.523   8.732
94651SOL    HW285851   6.202  11.478   8.724
94652SOL     OW85852   5.314   1.561   0.795
94652SOL    HW185853   5.368   1.532   0.721
94652SOL    HW285854   5.317   1.656   0.791
94653SOL     OW85855   5.494  10.653   9.534
94653SOL    HW185856   5.508  10.578   9.592
94653SOL    HW285857   5.399  10.657   9.522
94654SOL     OW85858  13.529  11.609   8.531
94654SOL    HW185859  13.465  11.549   8.493
94654SOL    HW285860  13.526  11.686   8.474
94655SOL     OW85861   3.939   9.718   9.765
94655SOL    HW185862   3.863   9.662   9.747
94655SOL    HW285863   3.991   9.667   9.827
94656SOL     OW85864   5.197  10.230   3.828
94656SOL    HW185865   5.148  10.308   3.854
94656SOL    HW285866   5.177  10.219   3.735
94657SOL     OW85867  11.913   1.875  13.540
94657SOL    HW185868  11.913   1.789  13.497
94657SOL    HW285869  11.970   1.929  13.486
94658SOL     OW85870   1.880   6.739  12.988
94658SOL    HW185871   1.972   6.717  12.998
94658SOL    HW285872   1.835   6.655  12.981
94659SOL     OW85873   4.373  12.266   1.018
94659SOL    HW185874   4.308  12.304   0.958
94659SOL    HW285875   4.381  12.330   1.089
94660SOL     OW85876   7.840  14.860  14.506
94660SOL    HW185877   7.828  14.788  14.444
94660SOL    HW285878   7.791   0.058  14.468
94661SOL     OW85879  11.548   2.475   9.312
94661SOL    HW185880  11.499   2.513   9.385
94661SOL    HW285881  11.532   2.534   9.239
94662SOL     OW85882   3.218   0.587  11.396
94662SOL    HW185883   3.155   0.632  11.453
94662SOL    HW285884   3.168   0.561  11.319
94663SOL     OW85885   7.427  11.778   9.921
94663SOL    HW185886   7.436  11.814   9.833
94663SOL    HW285887   7.413  11.685   9.908
94664SOL     OW85888  13.900   9.719   0.540
94664SOL    HW185889  13.812   9.752   0.520
94664SOL    HW285890  13.958   9.793   0.520
94665SOL     OW85891   7.536   1.428   4.521
94665SOL    HW185892   7.570   1.510   4.485
94665SOL    HW285893   7.477   1.394   4.454
94666SOL     OW85894   1.722   9.770  12.101
94666SOL    HW185895   1.739   9.751  12.009
94666SOL    HW285896   1.649   9.713  12.124
94667SOL     OW85897  12.060  10.540   4.817
94667SOL    HW185898  12.087  10.628   4.841
94667SOL    HW285899  12.081  10.487   4.894
94668SOL     OW85900  14.203   4.990   4.670
94668SOL    HW185901  14.124   4.990   4.616
94668SOL    HW285902  14.207   5.078   4.707
94669SOL     OW85903  12.578  12.572   5.540
94669SOL    HW185904  12.484  12.591   5.533
94669SOL    HW285905  12.588  12.539   5.629
94670SOL     OW85906   4.082  13.055   0.225
94670SOL    HW185907   3.994  13.086   0.203
94670SOL    HW285908   4.077  12.960   0.216
94671SOL     OW85909   0.309  14.680   9.873
94671SOL    HW185910   0.340  14.689   9.964
94671SOL    HW285911   0.389  14.684   9.820
94672SOL     OW85912   9.026   2.200   6.622
94672SOL    HW185913   8.967   2.213   6.548
94672SOL    HW285914   9.087   2.132   6.593
94673SOL     OW85915   6.345   6.851   2.750
94673SOL    HW185916   6.310   6.874   2.664
94673SOL    HW285917   6.309   6.763   2.767
94674SOL     OW85918   7.536   7.853   7.609
94674SOL    HW185919   7.514   7.877   7.519
94674SOL    HW285920   7.622   7.811   7.603
94675SOL     OW85921  11.116  11.476  11.514
94675SOL    HW185922  11.033  11.485  11.562
94675SOL    HW285923  11.173  11.428  11.575
94676SOL     OW85924  11.751   8.450   7.399
94676SOL    HW185925  11.698   8.529   7.411
94676SOL    HW285926  11.841   8.483   7.396
94677SOL     OW85927  11.839   8.063  10.772
94677SOL    HW185928  11.897   8.131  10.807
94677SOL    HW285929  11.858   7.986  10.825
94678SOL     OW85930   1.889   2.776  12.193
94678SOL    HW185931   1.902   2.743  12.282
94678SOL    HW285932   1.834   2.709  12.151
94679SOL     OW85933  12.217   3.069  12.154
94679SOL    HW185934  12.259   3.086  12.070
94679SOL    HW285935  12.139   3.017  12.132
94680SOL     OW85936   5.598  14.355   4.387
94680SOL    HW185937   5.620  14.268   4.353
94680SOL    HW285938   5.601  14.345   4.482
94681SOL     OW85939   6.124   9.495  11.278
94681SOL    HW185940   6.103   9.449  11.197
94681SOL    HW285941   6.185   9.436  11.323
94682SOL     OW85942   0.079   0.885   4.449
94682SOL    HW185943   0.008   0.944   4.473
94682SOL    HW285944   0.119   0.861   4.533
94683SOL     OW85945  11.025  13.137   0.178
94683SOL    HW185946  11.066  13.148   0.092
94683SOL    HW285947  11.063  13.055   0.212
94684SOL     OW85948  11.211   8.267   7.382
94684SOL    HW185949  11.159   8.211   7.440
94684SOL    HW285950  11.286   8.213   7.357
94685SOL     OW85951   1.041   3.402   9.674
94685SOL    HW185952   0.973   3.338   9.654
94685SOL    HW285953   1.060   3.445   9.591
94686SOL     OW85954  13.113   9.875  11.990
94686SOL    HW185955  13.044   9.916  11.937
94686SOL    HW285956  13.085   9.784  11.999
94687SOL     OW85957   4.106   1.737   8.872
94687SOL    HW185958   4.185   1.787   8.851
94687SOL    HW285959   4.123   1.698   8.958
94688SOL     OW85960  12.573   2.064   1.163
94688SOL    HW185961  12.645   2.037   1.106
94688SOL    HW285962  12.495   2.050   1.110
94689SOL     OW85963   3.225   7.997  11.957
94689SOL    HW185964   3.186   7.912  11.978
94689SOL    HW285965   3.264   8.027  12.040
94690SOL     OW85966  10.227   9.902   5.985
94690SOL    HW185967  10.298   9.908   5.921
94690SOL    HW285968  10.156   9.859   5.938
94691SOL     OW85969   0.823  13.008   4.699
94691SOL    HW185970   0.756  13.067   4.733
94691SOL    HW285971   0.796  12.921   4.728
94692SOL     OW85972   8.428  13.033  13.117
94692SOL    HW185973   8.386  12.949  13.099
94692SOL    HW285974   8.522  13.013  13.117
94693SOL     OW85975  14.216   8.908  13.196
94693SOL    HW185976  14.165   8.989  13.193
94693SOL    HW285977  14.280   8.918  13.125
94694SOL     OW85978   9.007   4.023   2.340
94694SOL    HW185979   9.093   4.024   2.381
94694SOL    HW285980   9.020   4.065   2.255
94695SOL     OW85981  10.986   7.248  10.007
94695SOL    HW185982  10.928   7.174  10.026
94695SOL    HW285983  11.042   7.255  10.085
94696SOL     OW85984  10.652   8.364   8.091
94696SOL    HW185985  10.621   8.422   8.022
94696SOL    HW285986  10.576   8.311   8.114
94697SOL     OW85987  10.209   5.033  13.615
94697SOL    HW185988  10.261   5.068  13.543
94697SOL    HW285989  10.120   5.028  13.580
94698SOL     OW85990  12.489  13.391   4.756
94698SOL    HW185991  12.544  13.465   4.729
94698SOL    HW285992  12.426  13.381   4.685
94699SOL     OW85993   7.831   6.770  14.265
94699SOL    HW185994   7.816   6.684  14.226
94699SOL    HW285995   7.791   6.832  14.204
94700SOL     OW85996   6.517  11.289   7.747
94700SOL    HW185997   6.601  11.298   7.793
94700SOL    HW285998   6.478  11.210   7.785
94701SOL     OW85999   4.550   2.983  13.511
94701SOL    HW186000   4.486   3.003  13.443
94701SOL    HW286001   4.632   3.023  13.480
94702SOL     OW86002   9.475   4.521  13.443
94702SOL    HW186003   9.456   4.431  13.471
94702SOL    HW286004   9.525   4.510  13.362
94703SOL     OW86005   6.571   8.078   0.493
94703SOL    HW186006   6.569   8.168   0.463
94703SOL    HW286007   6.490   8.039   0.459
94704SOL     OW86008   4.402   9.944   0.916
94704SOL    HW186009   4.429  10.034   0.930
94704SOL    HW286010   4.329   9.931   0.977
94705SOL     OW86011   6.324  11.132  11.441
94705SOL    HW186012   6.380  11.056  11.422
94705SOL    HW286013   6.236  11.103  11.418
94706SOL     OW86014  14.109   8.260  12.653
94706SOL    HW186015  14.019   8.271  12.624
94706SOL    HW286016  14.157   8.331  12.610
94707SOL     OW86017  12.065   9.319   1.880
94707SOL    HW186018  12.064   9.398   1.934
94707SOL    HW286019  11.991   9.331   1.820
94708SOL     OW86020   9.818  10.854   2.459
94708SOL    HW186021   9.766  10.875   2.536
94708SOL    HW286022   9.868  10.933   2.441
94709SOL     OW86023  14.244  10.995   5.103
94709SOL    HW186024  14.301  10.925   5.073
94709SOL    HW286025  14.214  11.038   5.023
94710SOL     OW86026   3.508   0.733   8.716
94710SOL    HW186027   3.540   0.713   8.628
94710SOL    HW286028   3.417   0.703   8.716
94711SOL     OW86029  14.304   5.627   6.263
94711SOL    HW186030  14.393   5.657   6.283
94711SOL    HW286031  14.279   5.574   6.338
94712SOL     OW86032   0.829   0.556   3.681
94712SOL    HW186033   0.824   0.652   3.677
94712SOL    HW286034   0.923   0.538   3.673
94713SOL     OW86035   6.419   2.783  12.894
94713SOL    HW186036   6.496   2.813  12.846
94713SOL    HW286037   6.360   2.858  12.896
94714SOL     OW86038   0.655   4.523   3.711
94714SOL    HW186039   0.733   4.538   3.658
94714SOL    HW286040   0.582   4.539   3.652
94715SOL     OW86041   3.044   4.405  11.355
94715SOL    HW186042   2.967   4.430  11.407
94715SOL    HW286043   3.063   4.316  11.384
94716SOL     OW86044   2.387  10.427   9.290
94716SOL    HW186045   2.384  10.392   9.379
94716SOL    HW286046   2.466  10.388   9.252
94717SOL     OW86047  11.890   0.155   7.868
94717SOL    HW186048  11.813   0.207   7.895
94717SOL    HW286049  11.893   0.164   7.773
94718SOL     OW86050   6.595  11.060  10.035
94718SOL    HW186051   6.554  10.974  10.022
94718SOL    HW286052   6.587  11.076  10.129
94719SOL     OW86053   4.475   8.743   2.714
94719SOL    HW186054   4.514   8.806   2.775
94719SOL    HW286055   4.409   8.697   2.767
94720SOL     OW86056  14.476   3.766   8.367
94720SOL    HW186057  14.544   3.731   8.309
94720SOL    HW286058  14.417   3.814   8.308
94721SOL     OW86059   4.974   8.723   6.884
94721SOL    HW186060   5.055   8.682   6.914
94721SOL    HW286061   4.927   8.653   6.840
94722SOL     OW86062   8.781   4.197  12.334
94722SOL    HW186063   8.688   4.181  12.314
94722SOL    HW286064   8.811   4.255  12.264
94723SOL     OW86065  12.163  11.245  11.190
94723SOL    HW186066  12.223  11.290  11.130
94723SOL    HW286067  12.171  11.293  11.272
94724SOL     OW86068   4.133   9.514   5.566
94724SOL    HW186069   4.122   9.578   5.636
94724SOL    HW286070   4.189   9.446   5.603
94725SOL     OW86071   4.821   7.216   3.804
94725SOL    HW186072   4.905   7.247   3.838
94725SOL    HW286073   4.845   7.163   3.728
94726SOL     OW86074   8.053   6.284  11.649
94726SOL    HW186075   7.957   6.287  11.645
94726SOL    HW286076   8.081   6.322  11.566
94727SOL     OW86077   3.207  13.830   3.261
94727SOL    HW186078   3.290  13.789   3.287
94727SOL    HW286079   3.150  13.819   3.337
94728SOL     OW86080   9.589   6.071   4.932
94728SOL    HW186081   9.672   6.034   4.905
94728SOL    HW286082   9.582   6.050   5.025
94729SOL     OW86083   3.286   8.558  12.640
94729SOL    HW186084   3.275   8.465  12.662
94729SOL    HW286085   3.199   8.596  12.651
94730SOL     OW86086   7.349   7.202  14.000
94730SOL    HW186087   7.294   7.277  13.980
94730SOL    HW286088   7.414   7.200  13.930
94731SOL     OW86089   0.846   7.671   3.061
94731SOL    HW186090   0.887   7.592   3.029
94731SOL    HW286091   0.910   7.740   3.046
94732SOL     OW86092   8.098   6.199   6.299
94732SOL    HW186093   8.174   6.245   6.333
94732SOL    HW286094   8.100   6.215   6.204
94733SOL     OW86095  11.138  13.952  13.741
94733SOL    HW186096  11.074  14.010  13.700
94733SOL    HW286097  11.094  13.921  13.821
94734SOL     OW86098   4.680   7.669   7.636
94734SOL    HW186099   4.732   7.641   7.711
94734SOL    HW286100   4.594   7.628   7.650
94735SOL     OW86101   9.028   0.498   1.795
94735SOL    HW186102   9.081   0.505   1.716
94735SOL    HW286103   9.026   0.404   1.815
94736SOL     OW86104   2.008   5.007  13.926
94736SOL    HW186105   1.977   4.926  13.887
94736SOL    HW286106   1.993   4.996  14.020
94737SOL     OW86107   3.344   3.136   6.802
94737SOL    HW186108   3.413   3.075   6.778
94737SOL    HW286109   3.390   3.218   6.819
94738SOL     OW86110   2.104   5.729  12.931
94738SOL    HW186111   2.127   5.736  13.024
94738SOL    HW286112   2.012   5.704  12.930
94739SOL     OW86113  10.306  11.887   8.227
94739SOL    HW186114  10.260  11.940   8.161
94739SOL    HW286115  10.293  11.936   8.308
94740SOL     OW86116   4.112  10.931   9.213
94740SOL    HW186117   4.086  10.963   9.126
94740SOL    HW286118   4.066  10.848   9.222
94741SOL     OW86119   7.460   5.560   1.779
94741SOL    HW186120   7.548   5.579   1.746
94741SOL    HW286121   7.406   5.633   1.748
94742SOL     OW86122   5.232   7.313   8.204
94742SOL    HW186123   5.251   7.322   8.298
94742SOL    HW286124   5.165   7.246   8.199
94743SOL     OW86125   9.839  10.006   5.656
94743SOL    HW186126   9.862  10.057   5.578
94743SOL    HW286127   9.879   9.920   5.640
94744SOL     OW86128   1.620   6.932   2.730
94744SOL    HW186129   1.624   6.870   2.656
94744SOL    HW286130   1.572   6.884   2.798
94745SOL     OW86131   9.377   3.313  14.799
94745SOL    HW186132   9.384   3.404  14.772
94745SOL    HW286133   9.298   3.308  14.851
94746SOL     OW86134   7.787   0.232   4.213
94746SOL    HW186135   7.712   0.219   4.271
94746SOL    HW286136   7.860   0.189   4.258
94747SOL     OW86137  10.255   7.208   0.929
94747SOL    HW186138  10.162   7.225   0.942
94747SOL    HW286139  10.277   7.255   0.848
94748SOL     OW86140   4.851   4.231   7.805
94748SOL    HW186141   4.935   4.214   7.763
94748SOL    HW286142   4.856   4.185   7.889
94749SOL     OW86143   3.787   4.958   9.821
94749SOL    HW186144   3.719   4.973   9.887
94749SOL    HW286145   3.819   5.046   9.800
94750SOL     OW86146  14.235  13.009  12.851
94750SOL    HW186147  14.320  12.965  12.843
94750SOL    HW286148  14.197  12.973  12.932
94751SOL     OW86149   9.412   4.962   1.776
94751SOL    HW186150   9.435   5.050   1.746
94751SOL    HW286151   9.496   4.916   1.783
94752SOL     OW86152   5.366   5.132  12.704
94752SOL    HW186153   5.376   5.053  12.652
94752SOL    HW286154   5.273   5.137  12.723
94753SOL     OW86155  14.323   1.606  13.150
94753SOL    HW186156  14.297   1.663  13.223
94753SOL    HW286157  14.389   1.656  13.102
94754SOL     OW86158  11.980   6.564  14.019
94754SOL    HW186159  11.969   6.561  14.114
94754SOL    HW286160  12.035   6.488  13.999
94755SOL     OW86161  12.718   6.934   9.691
94755SOL    HW186162  12.658   6.926   9.617
94755SOL    HW286163  12.793   6.878   9.668
94756SOL     OW86164   5.708  11.062   3.866
94756SOL    HW186165   5.755  11.134   3.910
94756SOL    HW286166   5.674  11.101   3.786
94757SOL     OW86167   3.473   2.233   6.142
94757SOL    HW186168   3.512   2.160   6.095
94757SOL    HW286169   3.513   2.229   6.229
94758SOL     OW86170   5.517  11.846   5.102
94758SOL    HW186171   5.493  11.778   5.164
94758SOL    HW286172   5.446  11.910   5.108
94759SOL     OW86173  13.882   0.230   4.582
94759SOL    HW186174  13.888   0.136   4.567
94759SOL    HW286175  13.876   0.268   4.494
94760SOL     OW86176  14.072   0.570   3.485
94760SOL    HW186177  14.048   0.663   3.491
94760SOL    HW286178  14.159   0.565   3.523
94761SOL     OW86179  13.529   6.430  13.811
94761SOL    HW186180  13.537   6.456  13.903
94761SOL    HW286181  13.595   6.481  13.765
94762SOL     OW86182  12.066   7.401   9.812
94762SOL    HW186183  12.113   7.364   9.887
94762SOL    HW286184  12.049   7.492   9.837
94763SOL     OW86185   7.549   5.246  12.257
94763SOL    HW186186   7.551   5.285  12.170
94763SOL    HW286187   7.500   5.164  12.246
94764SOL     OW86188   0.797   2.014  13.416
94764SOL    HW186189   0.764   1.924  13.412
94764SOL    HW286190   0.726   2.064  13.457
94765SOL     OW86191   8.897   2.782  12.550
94765SOL    HW186192   8.978   2.815  12.588
94765SOL    HW286193   8.863   2.856  12.499
94766SOL     OW86194   8.313   9.462   7.940
94766SOL    HW186195   8.316   9.439   7.848
94766SOL    HW286196   8.219   9.473   7.959
94767SOL     OW86197   9.100   9.683  11.980
94767SOL    HW186198   9.178   9.635  11.953
94767SOL    HW286199   9.040   9.676  11.905
94768SOL     OW86200   8.212   9.911   2.451
94768SOL    HW186201   8.142   9.954   2.499
94768SOL    HW286202   8.269   9.982   2.422
94769SOL     OW86203   9.271   7.392   9.596
94769SOL    HW186204   9.193   7.449   9.598
94769SOL    HW286205   9.273   7.352   9.682
94770SOL     OW86206   9.173   8.805   0.596
94770SOL    HW186207   9.209   8.836   0.678
94770SOL    HW286208   9.214   8.719   0.582
94771SOL     OW86209   4.196   5.749   5.555
94771SOL    HW186210   4.137   5.747   5.480
94771SOL    HW286211   4.140   5.727   5.630
94772SOL     OW86212   2.744   5.429  12.645
94772SOL    HW186213   2.829   5.425  12.601
94772SOL    HW286214   2.757   5.494  12.715
94773SOL     OW86215   0.265  10.784   4.408
94773SOL    HW186216   0.323  10.799   4.333
94773SOL    HW286217   0.303  10.710   4.455
94774SOL     OW86218   5.242   4.116   2.735
94774SOL    HW186219   5.252   4.050   2.667
94774SOL    HW286220   5.305   4.184   2.713
94775SOL     OW86221   6.469   4.216  12.333
94775SOL    HW186222   6.462   4.153  12.406
94775SOL    HW286223   6.461   4.162  12.254
94776SOL     OW86224   6.466   7.389  12.230
94776SOL    HW186225   6.386   7.388  12.176
94776SOL    HW286226   6.515   7.312  12.200
94777SOL     OW86227   0.595   9.235   8.901
94777SOL    HW186228   0.658   9.243   8.830
94777SOL    HW286229   0.640   9.183   8.968
94778SOL     OW86230   4.682   7.166   9.633
94778SOL    HW186231   4.727   7.228   9.691
94778SOL    HW286232   4.599   7.148   9.677
94779SOL     OW86233   5.324  12.943   7.615
94779SOL    HW186234   5.415  12.971   7.600
94779SOL    HW286235   5.279  12.968   7.534
94780SOL     OW86236  11.314   5.729   4.828
94780SOL    HW186237  11.403   5.756   4.806
94780SOL    HW286238  11.322   5.684   4.912
94781SOL     OW86239  12.411  13.726   6.152
94781SOL    HW186240  12.361  13.755   6.228
94781SOL    HW286241  12.356  13.749   6.077
94782SOL     OW86242  13.465   4.552   5.914
94782SOL    HW186243  13.550   4.509   5.926
94782SOL    HW286244  13.486   4.643   5.898
94783SOL     OW86245  13.868   6.595   2.533
94783SOL    HW186246  13.802   6.527   2.545
94783SOL    HW286247  13.872   6.640   2.617
94784SOL     OW86248   7.185   7.574   0.880
94784SOL    HW186249   7.121   7.622   0.933
94784SOL    HW286250   7.167   7.482   0.900
94785SOL     OW86251   7.068  14.438   9.017
94785SOL    HW186252   7.091  14.350   8.986
94785SOL    HW286253   7.152  14.476   9.046
94786SOL     OW86254   1.139   1.270  10.918
94786SOL    HW186255   1.119   1.237  11.006
94786SOL    HW286256   1.160   1.192  10.867
94787SOL     OW86257   9.945  12.334  11.059
94787SOL    HW186258   9.959  12.421  11.022
94787SOL    HW286259  10.025  12.317  11.109
94788SOL     OW86260  12.720  14.524   8.381
94788SOL    HW186261  12.638  14.522   8.429
94788SOL    HW286262  12.733  14.434   8.351
94789SOL     OW86263  10.050  10.330   0.364
94789SOL    HW186264   9.967  10.314   0.408
94789SOL    HW286265  10.060  10.425   0.366
94790SOL     OW86266   6.167   6.483   5.588
94790SOL    HW186267   6.107   6.542   5.633
94790SOL    HW286268   6.246   6.482   5.642
94791SOL     OW86269   1.579   5.208   4.390
94791SOL    HW186270   1.525   5.167   4.458
94791SOL    HW286271   1.519   5.268   4.345
94792SOL     OW86272   8.320   7.931   1.253
94792SOL    HW186273   8.353   7.851   1.212
94792SOL    HW286274   8.297   7.987   1.179
94793SOL     OW86275  12.630   5.477   6.138
94793SOL    HW186276  12.649   5.424   6.215
94793SOL    HW286277  12.715   5.510   6.109
94794SOL     OW86278  12.932   8.647   2.923
94794SOL    HW186279  12.949   8.732   2.964
94794SOL    HW286280  12.924   8.666   2.829
94795SOL     OW86281  11.238   8.382  12.035
94795SOL    HW186282  11.311   8.431  11.996
94795SOL    HW286283  11.177   8.449  12.064
94796SOL     OW86284   0.182   2.031   7.836
94796SOL    HW186285   0.094   2.067   7.852
94796SOL    HW286286   0.170   1.936   7.839
94797SOL     OW86287   8.396   6.121   7.463
94797SOL    HW186288   8.482   6.087   7.439
94797SOL    HW286289   8.355   6.050   7.512
94798SOL     OW86290  13.935   8.819  10.756
94798SOL    HW186291  13.955   8.736  10.714
94798SOL    HW286292  13.855   8.803  10.805
94799SOL     OW86293   9.116   9.677   7.310
94799SOL    HW186294   9.202   9.640   7.290
94799SOL    HW286295   9.100   9.653   7.401
94800SOL     OW86296   1.522   6.824   9.784
94800SOL    HW186297   1.481   6.868   9.859
94800SOL    HW286298   1.508   6.731   9.802
94801SOL     OW86299  13.897   3.185  11.264
94801SOL    HW186300  13.844   3.218  11.191
94801SOL    HW286301  13.895   3.090  11.254
94802SOL     OW86302  14.842   6.929   0.829
94802SOL    HW186303  14.768   6.987   0.842
94802SOL    HW286304  14.805   6.850   0.789
94803SOL     OW86305   5.475  10.094  10.125
94803SOL    HW186306   5.499  10.021  10.068
94803SOL    HW286307   5.551  10.105  10.182
94804SOL     OW86308   1.566   5.010   9.187
94804SOL    HW186309   1.505   4.958   9.239
94804SOL    HW286310   1.518   5.028   9.106
94805SOL     OW86311   3.020   8.178  13.696
94805SOL    HW186312   3.037   8.196  13.603
94805SOL    HW286313   3.016   8.265  13.737
94806SOL     OW86314   5.529   1.998  11.712
94806SOL    HW186315   5.507   2.044  11.793
94806SOL    HW286316   5.530   1.905  11.737
94807SOL     OW86317   4.984   8.438   5.123
94807SOL    HW186318   5.030   8.506   5.172
94807SOL    HW286319   5.028   8.357   5.147
94808SOL     OW86320   6.461   0.537  13.127
94808SOL    HW186321   6.515   0.616  13.128
94808SOL    HW286322   6.524   0.465  13.133
94809SOL     OW86323  11.268   4.370  13.152
94809SOL    HW186324  11.320   4.396  13.076
94809SOL    HW286325  11.252   4.452  13.199
94810SOL     OW86326  14.527   3.340  12.415
94810SOL    HW186327  14.450   3.323  12.469
94810SOL    HW286328  14.531   3.266  12.355
94811SOL     OW86329   0.108  10.749   7.842
94811SOL    HW186330   0.110  10.827   7.898
94811SOL    HW286331   0.077  10.782   7.757
94812SOL     OW86332  10.219   7.151   1.419
94812SOL    HW186333  10.196   7.203   1.496
94812SOL    HW286334  10.299   7.105   1.444
94813SOL     OW86335  13.178   7.969  11.806
94813SOL    HW186336  13.083   7.960  11.803
94813SOL    HW286337  13.211   7.881  11.825
94814SOL     OW86338   4.514   2.194   3.616
94814SOL    HW186339   4.603   2.215   3.586
94814SOL    HW286340   4.515   2.213   3.710
94815SOL     OW86341   2.904   2.069   6.324
94815SOL    HW186342   2.851   1.990   6.338
94815SOL    HW286343   2.989   2.035   6.295
94816SOL     OW86344   8.352   8.284   6.555
94816SOL    HW186345   8.356   8.259   6.463
94816SOL    HW286346   8.353   8.380   6.554
94817SOL     OW86347   6.779  12.870  13.539
94817SOL    HW186348   6.848  12.935  13.524
94817SOL    HW286349   6.713  12.917  13.591
94818SOL     OW86350   8.610   6.472   1.152
94818SOL    HW186351   8.685   6.532   1.148
94818SOL    HW286352   8.643   6.390   1.114
94819SOL     OW86353  11.187   7.004  13.687
94819SOL    HW186354  11.117   7.035  13.629
94819SOL    HW286355  11.268   7.031  13.644
94820SOL     OW86356   6.110   7.590   0.650
94820SOL    HW186357   6.098   7.643   0.571
94820SOL    HW286358   6.065   7.639   0.719
94821SOL     OW86359   4.239  14.501   9.489
94821SOL    HW186360   4.216  14.577   9.543
94821SOL    HW286361   4.284  14.538   9.413
94822SOL     OW86362  13.054   3.164   9.920
94822SOL    HW186363  13.001   3.197   9.848
94822SOL    HW286364  13.032   3.071   9.925
94823SOL     OW86365   6.280   5.960  10.362
94823SOL    HW186366   6.303   5.998  10.447
94823SOL    HW286367   6.188   5.985  10.349
94824SOL     OW86368   3.772  13.679  10.350
94824SOL    HW186369   3.837  13.702  10.417
94824SOL    HW286370   3.742  13.592  10.376
94825SOL     OW86371   0.101   8.125   7.087
94825SOL    HW186372   0.080   8.212   7.054
94825SOL    HW286373   0.109   8.070   7.009
94826SOL     OW86374   0.840  10.476   9.945
94826SOL    HW186375   0.921  10.526   9.934
94826SOL    HW286376   0.817  10.449   9.856
94827SOL     OW86377  13.288   8.894  10.924
94827SOL    HW186378  13.290   8.925  11.015
94827SOL    HW286379  13.247   8.808  10.929
94828SOL     OW86380  10.660  10.662  13.379
94828SOL    HW186381  10.647  10.590  13.317
94828SOL    HW286382  10.746  10.644  13.418
94829SOL     OW86383   1.440  10.838   4.131
94829SOL    HW186384   1.531  10.835   4.159
94829SOL    HW286385   1.413  10.929   4.147
94830SOL     OW86386   5.907   8.690  10.667
94830SOL    HW186387   5.847   8.658  10.734
94830SOL    HW286388   5.983   8.633  10.674
94831SOL     OW86389  11.981  10.236   5.764
94831SOL    HW186390  12.043  10.163   5.759
94831SOL    HW286391  12.034  10.314   5.753
94832SOL     OW86392   3.332   9.226   1.313
94832SOL    HW186393   3.353   9.249   1.222
94832SOL    HW286394   3.417   9.208   1.354
94833SOL     OW86395   5.183   7.902   1.634
94833SOL    HW186396   5.228   7.873   1.713
94833SOL    HW286397   5.250   7.946   1.582
94834SOL     OW86398  13.545   5.060   5.693
94834SOL    HW186399  13.601   5.006   5.638
94834SOL    HW286400  13.459   5.058   5.650
94835SOL     OW86401   5.189  12.724   7.729
94835SOL    HW186402   5.247  12.650   7.742
94835SOL    HW286403   5.245  12.793   7.693
94836SOL     OW86404   4.050  11.549  12.591
94836SOL    HW186405   4.079  11.601  12.666
94836SOL    HW286406   3.956  11.534  12.607
94837SOL     OW86407   5.738   7.713   6.137
94837SOL    HW186408   5.720   7.764   6.058
94837SOL    HW286409   5.695   7.629   6.122
94838SOL     OW86410  10.209   4.082   3.576
94838SOL    HW186411  10.201   3.988   3.596
94838SOL    HW286412  10.167   4.092   3.491
94839SOL     OW86413  10.877   1.149   6.117
94839SOL    HW186414  10.908   1.217   6.177
94839SOL    HW286415  10.872   1.071   6.172
94840SOL     OW86416   2.752  12.713  10.533
94840SOL    HW186417   2.751  12.739  10.441
94840SOL    HW286418   2.831  12.661  10.543
94841SOL     OW86419  13.923   8.453   8.483
94841SOL    HW186420  13.917   8.504   8.402
94841SOL    HW286421  13.935   8.519   8.551
94842SOL     OW86422   1.443   9.838   8.885
94842SOL    HW186423   1.482   9.913   8.931
94842SOL    HW286424   1.418   9.873   8.799
94843SOL     OW86425   1.390  13.032   3.680
94843SOL    HW186426   1.412  13.074   3.763
94843SOL    HW286427   1.469  13.040   3.627
94844SOL     OW86428  12.564   3.896   7.543
94844SOL    HW186429  12.485   3.861   7.585
94844SOL    HW286430  12.565   3.988   7.569
94845SOL     OW86431  13.040   4.862   4.146
94845SOL    HW186432  13.035   4.869   4.051
94845SOL    HW286433  13.066   4.949   4.175
94846SOL     OW86434   2.137   1.757  11.709
94846SOL    HW186435   2.080   1.758  11.785
94846SOL    HW286436   2.102   1.824  11.650
94847SOL     OW86437  12.342   5.112  11.886
94847SOL    HW186438  12.414   5.090  11.827
94847SOL    HW286439  12.360   5.203  11.912
94848SOL     OW86440   1.087   8.823   3.589
94848SOL    HW186441   1.100   8.745   3.643
94848SOL    HW286442   1.176   8.853   3.568
94849SOL     OW86443   7.388   5.243   5.387
94849SOL    HW186444   7.414   5.153   5.409
94849SOL    HW286445   7.431   5.296   5.454
94850SOL     OW86446   7.944   3.516   6.770
94850SOL    HW186447   8.015   3.456   6.792
94850SOL    HW286448   7.981   3.603   6.788
94851SOL     OW86449   2.912  13.543   2.289
94851SOL    HW186450   2.834  13.526   2.236
94851SOL    HW286451   2.937  13.633   2.267
94852SOL     OW86452  11.547  11.840   4.545
94852SOL    HW186453  11.505  11.785   4.610
94852SOL    HW286454  11.641  11.825   4.557
94853SOL     OW86455   8.150  13.926   3.462
94853SOL    HW186456   8.065  13.898   3.429
94853SOL    HW286457   8.213  13.870   3.417
94854SOL     OW86458   5.697   3.704  14.436
94854SOL    HW186459   5.665   3.785  14.475
94854SOL    HW286460   5.759   3.669  14.500
94855SOL     OW86461   8.784  12.245  14.127
94855SOL    HW186462   8.700  12.202  14.111
94855SOL    HW286463   8.790  12.252  14.222
94856SOL     OW86464  12.777  11.195   6.443
94856SOL    HW186465  12.853  11.140   6.461
94856SOL    HW286466  12.757  11.238   6.526
94857SOL     OW86467  11.894  14.187   1.545
94857SOL    HW186468  11.893  14.279   1.518
94857SOL    HW286469  11.956  14.145   1.485
94858SOL     OW86470  13.182   3.950   9.164
94858SOL    HW186471  13.232   3.934   9.244
94858SOL    HW286472  13.222   4.029   9.126
94859SOL     OW86473   4.847   4.039   1.030
94859SOL    HW186474   4.898   3.969   0.989
94859SOL    HW286475   4.774   3.994   1.071
94860SOL     OW86476   7.516   3.882   4.086
94860SOL    HW186477   7.577   3.808   4.091
94860SOL    HW286478   7.572   3.958   4.073
94861SOL     OW86479  12.435  12.034  10.232
94861SOL    HW186480  12.375  12.100  10.266
94861SOL    HW286481  12.379  11.960  10.209
94862SOL     OW86482   1.984  13.779   5.066
94862SOL    HW186483   1.897  13.752   5.092
94862SOL    HW286484   2.041  13.706   5.091
94863SOL     OW86485  11.812   3.617   6.860
94863SOL    HW186486  11.879   3.663   6.810
94863SOL    HW286487  11.729   3.647   6.823
94864SOL     OW86488  11.874   4.871   9.476
94864SOL    HW186489  11.811   4.817   9.428
94864SOL    HW286490  11.928   4.911   9.409
94865SOL     OW86491   5.025   1.908   2.411
94865SOL    HW186492   5.069   1.900   2.326
94865SOL    HW286493   5.013   2.003   2.422
94866SOL     OW86494   6.987   3.610  10.523
94866SOL    HW186495   6.965   3.690  10.570
94866SOL    HW286496   7.082   3.602  10.533
94867SOL     OW86497   2.034   9.879   3.612
94867SOL    HW186498   1.992   9.941   3.672
94867SOL    HW286499   1.989   9.796   3.628
94868SOL     OW86500  13.521  10.370   6.215
94868SOL    HW186501  13.594  10.360   6.276
94868SOL    HW286502  13.499  10.280   6.190
94869SOL     OW86503   9.925   8.638   8.152
94869SOL    HW186504   9.872   8.568   8.113
94869SOL    HW286505  10.010   8.597   8.167
94870SOL     OW86506   2.357   4.336  14.546
94870SOL    HW186507   2.336   4.273  14.477
94870SOL    HW286508   2.278   4.339  14.600
94871SOL     OW86509   5.155   0.127  14.590
94871SOL    HW186510   5.104   0.046  14.591
94871SOL    HW286511   5.090   0.197  14.599
94872SOL     OW86512   0.033  14.422  11.377
94872SOL    HW186513  14.850  14.497  11.390
94872SOL    HW286514   0.100  14.431  11.445
94873SOL     OW86515   5.903  11.227  11.885
94873SOL    HW186516   5.939  11.139  11.896
94873SOL    HW286517   5.968  11.284  11.926
94874SOL     OW86518   0.254   5.497  10.674
94874SOL    HW186519   0.231   5.536  10.589
94874SOL    HW286520   0.304   5.565  10.719
94875SOL     OW86521   6.623  13.916  11.993
94875SOL    HW186522   6.713  13.943  11.974
94875SOL    HW286523   6.578  13.922  11.909
94876SOL     OW86524   9.691   5.804   1.056
94876SOL    HW186525   9.600   5.830   1.045
94876SOL    HW286526   9.704   5.734   0.992
94877SOL     OW86527  10.868   7.581   2.360
94877SOL    HW186528  10.775   7.557   2.359
94877SOL    HW286529  10.905   7.538   2.283
94878SOL     OW86530   1.653   7.955   2.837
94878SOL    HW186531   1.565   7.984   2.814
94878SOL    HW286532   1.698   7.946   2.753
94879SOL     OW86533   8.777   7.514  12.923
94879SOL    HW186534   8.773   7.420  12.938
94879SOL    HW286535   8.751   7.553  13.007
94880SOL     OW86536  13.489   3.508   0.880
94880SOL    HW186537  13.395   3.489   0.885
94880SOL    HW286538  13.493   3.603   0.872
94881SOL     OW86539   5.472  11.292  12.994
94881SOL    HW186540   5.501  11.249  13.074
94881SOL    HW286541   5.546  11.284  12.934
94882SOL     OW86542   9.132   1.531   1.863
94882SOL    HW186543   9.156   1.447   1.823
94882SOL    HW286544   9.118   1.590   1.789
94883SOL     OW86545  12.093   5.063  12.867
94883SOL    HW186546  12.101   5.158  12.864
94883SOL    HW286547  11.999   5.046  12.866
94884SOL     OW86548  12.475   0.724   3.531
94884SOL    HW186549  12.547   0.665   3.510
94884SOL    HW286550  12.396   0.673   3.511
94885SOL     OW86551   0.058   7.906   9.839
94885SOL    HW186552   0.005   7.981   9.812
94885SOL    HW286553   0.045   7.901   9.934
94886SOL     OW86554  13.674   3.813  11.142
94886SOL    HW186555  13.610   3.848  11.080
94886SOL    HW286556  13.712   3.737  11.098
94887SOL     OW86557   0.513  12.834  13.107
94887SOL    HW186558   0.504  12.929  13.108
94887SOL    HW286559   0.606  12.818  13.123
94888SOL     OW86560   9.498   8.849  12.908
94888SOL    HW186561   9.415   8.884  12.939
94888SOL    HW286562   9.554   8.926  12.899
94889SOL     OW86563  12.337  10.892  13.424
94889SOL    HW186564  12.243  10.878  13.433
94889SOL    HW286565  12.358  10.863  13.335
94890SOL     OW86566   7.040  13.074  11.199
94890SOL    HW186567   6.994  13.017  11.137
94890SOL    HW286568   6.980  13.147  11.215
94891SOL     OW86569   8.758   2.482   2.902
94891SOL    HW186570   8.760   2.575   2.923
94891SOL    HW286571   8.850   2.459   2.884
94892SOL     OW86572   8.558  12.160   9.345
94892SOL    HW186573   8.584  12.225   9.411
94892SOL    HW286574   8.476  12.124   9.379
94893SOL     OW86575  14.602   1.922   0.733
94893SOL    HW186576  14.689   1.932   0.771
94893SOL    HW286577  14.618   1.885   0.646
94894SOL     OW86578   8.447   8.758  10.028
94894SOL    HW186579   8.440   8.698   9.953
94894SOL    HW286580   8.419   8.705  10.102
94895SOL     OW86581  13.542  11.282   4.587
94895SOL    HW186582  13.489  11.317   4.516
94895SOL    HW286583  13.555  11.190   4.564
94896SOL     OW86584   2.760  13.935   6.076
94896SOL    HW186585   2.852  13.939   6.103
94896SOL    HW286586   2.761  13.893   5.991
94897SOL     OW86587  11.234  10.926   1.389
94897SOL    HW186588  11.151  10.925   1.436
94897SOL    HW286589  11.239  10.841   1.346
94898SOL     OW86590  14.066  13.598   2.673
94898SOL    HW186591  14.133  13.664   2.693
94898SOL    HW286592  14.016  13.589   2.754
94899SOL     OW86593  12.165   0.129  12.852
94899SOL    HW186594  12.165   0.038  12.822
94899SOL    HW286595  12.180   0.123  12.946
94900SOL     OW86596   6.504   4.479   1.210
94900SOL    HW186597   6.574   4.461   1.273
94900SOL    HW286598   6.478   4.392   1.178
94901SOL     OW86599   8.570  11.804   5.035
94901SOL    HW186600   8.665  11.813   5.027
94901SOL    HW286601   8.548  11.851   5.115
94902SOL     OW86602  13.257   3.008  13.385
94902SOL    HW186603  13.277   3.095  13.349
94902SOL    HW286604  13.176   2.982  13.341
94903SOL     OW86605   0.954   4.006   1.786
94903SOL    HW186606   0.983   3.932   1.839
94903SOL    HW286607   1.023   4.018   1.720
94904SOL     OW86608  13.861   8.399   6.743
94904SOL    HW186609  13.795   8.466   6.728
94904SOL    HW286610  13.904   8.425   6.824
94905SOL     OW86611   8.436   9.061   1.252
94905SOL    HW186612   8.527   9.088   1.242
94905SOL    HW286613   8.441   8.976   1.294
94906SOL     OW86614   7.201   4.961  13.617
94906SOL    HW186615   7.155   4.932  13.538
94906SOL    HW286616   7.273   5.016  13.584
94907SOL     OW86617   9.318  14.193   4.502
94907SOL    HW186618   9.339  14.283   4.528
94907SOL    HW286619   9.230  14.199   4.464
94908SOL     OW86620   1.310   6.088   4.285
94908SOL    HW186621   1.343   6.175   4.265
94908SOL    HW286622   1.226   6.103   4.329
94909SOL     OW86623  11.834   5.942   8.131
94909SOL    HW186624  11.814   5.848   8.131
94909SOL    HW286625  11.925   5.947   8.158
94910SOL     OW86626  14.213  10.731   5.290
94910SOL    HW186627  14.227  10.761   5.200
94910SOL    HW286628  14.120  10.713   5.295
94911SOL     OW86629  14.405   5.715  13.740
94911SOL    HW186630  14.320   5.676  13.719
94911SOL    HW286631  14.403   5.729  13.834
94912SOL     OW86632   8.791   3.967  11.786
94912SOL    HW186633   8.830   4.025  11.721
94912SOL    HW286634   8.779   4.023  11.863
94913SOL     OW86635  13.785   0.640   2.820
94913SOL    HW186636  13.701   0.599   2.839
94913SOL    HW286637  13.773   0.682   2.735
94914SOL     OW86638  13.804   7.900   2.422
94914SOL    HW186639  13.793   7.975   2.364
94914SOL    HW286640  13.715   7.875   2.447
94915SOL     OW86641   1.983   4.972   4.973
94915SOL    HW186642   2.065   5.003   5.012
94915SOL    HW286643   2.010   4.900   4.916
94916SOL     OW86644   7.317   4.562   6.442
94916SOL    HW186645   7.304   4.600   6.529
94916SOL    HW286646   7.266   4.617   6.384
94917SOL     OW86647   8.373  14.726   1.376
94917SOL    HW186648   8.468  14.737   1.381
94917SOL    HW286649   8.354  14.652   1.434
94918SOL     OW86650  14.167   1.142   9.435
94918SOL    HW186651  14.160   1.237   9.425
94918SOL    HW286652  14.246   1.119   9.388
94919SOL     OW86653   4.703  14.762   5.852
94919SOL    HW186654   4.794  14.740   5.828
94919SOL    HW286655   4.671  14.815   5.779
94920SOL     OW86656   2.593   5.078   6.478
94920SOL    HW186657   2.628   5.024   6.549
94920SOL    HW286658   2.666   5.136   6.454
94921SOL     OW86659  14.264  13.947   6.646
94921SOL    HW186660  14.286  14.005   6.719
94921SOL    HW286661  14.196  13.995   6.599
94922SOL     OW86662   7.684  11.390   9.861
94922SOL    HW186663   7.750  11.343   9.810
94922SOL    HW286664   7.678  11.340   9.943
94923SOL     OW86665   5.733  10.163   9.982
94923SOL    HW186666   5.811  10.200   9.941
94923SOL    HW286667   5.667  10.232   9.973
94924SOL     OW86668   3.656  13.668  14.127
94924SOL    HW186669   3.633  13.713  14.046
94924SOL    HW286670   3.621  13.724  14.196
94925SOL     OW86671   6.070   0.108   5.860
94925SOL    HW186672   6.094   0.135   5.771
94925SOL    HW286673   6.134   0.152   5.916
94926SOL     OW86674   2.617   5.582   3.731
94926SOL    HW186675   2.565   5.661   3.718
94926SOL    HW286676   2.560   5.511   3.703
94927SOL     OW86677  10.591   4.884  11.938
94927SOL    HW186678  10.513   4.832  11.955
94927SOL    HW286679  10.661   4.819  11.928
94928SOL     OW86680  10.130   9.527   8.637
94928SOL    HW186681  10.170   9.511   8.551
94928SOL    HW286682  10.144   9.621   8.652
94929SOL     OW86683  10.008   5.351   0.829
94929SOL    HW186684   9.961   5.307   0.758
94929SOL    HW286685  10.099   5.327   0.815
94930SOL     OW86686   0.739   6.042   7.729
94930SOL    HW186687   0.666   5.983   7.748
94930SOL    HW286688   0.714   6.085   7.647
94931SOL     OW86689   6.892   0.502  14.648
94931SOL    HW186690   6.883   0.524  14.741
94931SOL    HW286691   6.899   0.406  14.648
94932SOL     OW86692  10.814  11.727  12.163
94932SOL    HW186693  10.794  11.762  12.251
94932SOL    HW286694  10.818  11.632  12.176
94933SOL     OW86695   4.445   9.950   1.514
94933SOL    HW186696   4.381   9.882   1.536
94933SOL    HW286697   4.439   9.959   1.419
94934SOL     OW86698   8.571   1.839   5.587
94934SOL    HW186699   8.490   1.885   5.608
94934SOL    HW286700   8.541   1.755   5.550
94935SOL     OW86701   9.468   8.336   1.515
94935SOL    HW186702   9.381   8.376   1.509
94935SOL    HW286703   9.472   8.299   1.603
94936SOL     OW86704  11.315  14.572  11.710
94936SOL    HW186705  11.263  14.584  11.790
94936SOL    HW286706  11.263  14.512  11.657
94937SOL     OW86707   9.887   2.653  11.114
94937SOL    HW186708   9.806   2.655  11.166
94937SOL    HW286709   9.864   2.698  11.033
94938SOL     OW86710   4.699   8.692   9.844
94938SOL    HW186711   4.712   8.770   9.897
94938SOL    HW286712   4.788   8.663   9.822
94939SOL     OW86713  11.885  11.803  11.863
94939SOL    HW186714  11.882  11.708  11.849
94939SOL    HW286715  11.961  11.816  11.919
94940SOL     OW86716   8.138  12.924  12.134
94940SOL    HW186717   8.220  12.894  12.173
94940SOL    HW286718   8.126  13.013  12.169
94941SOL     OW86719  12.084   1.777  13.100
94941SOL    HW186720  12.020   1.788  13.170
94941SOL    HW286721  12.031   1.775  13.020
94942SOL     OW86722  14.425   7.618  12.556
94942SOL    HW186723  14.344   7.669  12.549
94942SOL    HW286724  14.461   7.621  12.467
94943SOL     OW86725   7.419   4.453   4.271
94943SOL    HW186726   7.476   4.432   4.197
94943SOL    HW286727   7.398   4.546   4.259
94944SOL     OW86728   9.762  14.233   7.297
94944SOL    HW186729   9.753  14.312   7.350
94944SOL    HW286730   9.682  14.229   7.245
94945SOL     OW86731   8.221   4.052   8.786
94945SOL    HW186732   8.133   4.074   8.818
94945SOL    HW286733   8.208   3.970   8.737
94946SOL     OW86734   8.317  13.284   4.501
94946SOL    HW186735   8.271  13.329   4.571
94946SOL    HW286736   8.350  13.204   4.541
94947SOL     OW86737  14.218  10.431   7.586
94947SOL    HW186738  14.171  10.511   7.564
94947SOL    HW286739  14.221  10.431   7.682
94948SOL     OW86740   0.624  14.144   7.423
94948SOL    HW186741   0.551  14.163   7.482
94948SOL    HW286742   0.590  14.076   7.365
94949SOL     OW86743   3.311  11.001   9.292
94949SOL    HW186744   3.398  11.029   9.318
94949SOL    HW286745   3.266  10.983   9.374
94950SOL     OW86746   1.014  12.545  10.204
94950SOL    HW186747   0.920  12.536  10.189
94950SOL    HW286748   1.026  12.636  10.230
94951SOL     OW86749   4.781   9.951   5.900
94951SOL    HW186750   4.707   9.985   5.851
94951SOL    HW286751   4.856   9.960   5.842
94952SOL     OW86752   1.975   0.814   2.871
94952SOL    HW186753   1.885   0.836   2.897
94952SOL    HW286754   2.028   0.840   2.946
94953SOL     OW86755   6.221   5.925   0.705
94953SOL    HW186756   6.128   5.949   0.708
94953SOL    HW286757   6.239   5.885   0.789
94954SOL     OW86758   8.546  10.874   4.919
94954SOL    HW186759   8.625  10.926   4.912
94954SOL    HW286760   8.519  10.858   4.829
94955SOL     OW86761   9.801   2.282   7.337
94955SOL    HW186762   9.888   2.264   7.302
94955SOL    HW286763   9.752   2.316   7.262
94956SOL     OW86764  13.318  12.390   8.571
94956SOL    HW186765  13.294  12.305   8.607
94956SOL    HW286766  13.234  12.432   8.553
94957SOL     OW86767   4.310   2.335   7.995
94957SOL    HW186768   4.391   2.285   8.001
94957SOL    HW286769   4.256   2.302   8.067
94958SOL     OW86770  11.873  14.658   6.174
94958SOL    HW186771  11.925  14.660   6.254
94958SOL    HW286772  11.783  14.671   6.203
94959SOL     OW86773   1.015   2.165   8.642
94959SOL    HW186774   0.931   2.119   8.648
94959SOL    HW286775   1.022   2.190   8.550
94960SOL     OW86776   6.951   1.374   1.911
94960SOL    HW186777   7.021   1.368   1.847
94960SOL    HW286778   6.905   1.290   1.905
94961SOL     OW86779   8.961  11.251   3.273
94961SOL    HW186780   8.991  11.160   3.270
94961SOL    HW286781   8.949  11.274   3.181
94962SOL     OW86782   4.987   3.945   2.323
94962SOL    HW186783   4.909   3.955   2.378
94962SOL    HW286784   5.019   3.857   2.342
94963SOL     OW86785   7.637   7.951  10.363
94963SOL    HW186786   7.543   7.930  10.368
94963SOL    HW286787   7.655   8.000  10.443
94964SOL     OW86788  14.497  10.732   5.825
94964SOL    HW186789  14.541  10.747   5.742
94964SOL    HW286790  14.404  10.744   5.805
94965SOL     OW86791   8.289   2.061   2.333
94965SOL    HW186792   8.373   2.036   2.373
94965SOL    HW286793   8.240   1.979   2.326
94966SOL     OW86794  14.668  14.369  11.595
94966SOL    HW186795  14.591  14.361  11.650
94966SOL    HW286796  14.724  14.432  11.640
94967SOL     OW86797  10.819   6.686  10.680
94967SOL    HW186798  10.863   6.672  10.764
94967SOL    HW286799  10.878   6.646  10.616
94968SOL     OW86800  14.828   0.341  11.731
94968SOL    HW186801  14.775   0.384  11.664
94968SOL    HW286802   0.037   0.388  11.728
94969SOL     OW86803   5.920  10.020   6.104
94969SOL    HW186804   5.897  10.107   6.136
94969SOL    HW286805   5.912  10.027   6.008
94970SOL     OW86806   6.271  11.403   5.729
94970SOL    HW186807   6.313  11.323   5.698
94970SOL    HW286808   6.302  11.413   5.819
94971SOL     OW86809  11.299  12.717   7.806
94971SOL    HW186810  11.236  12.694   7.874
94971SOL    HW286811  11.261  12.682   7.725
94972SOL     OW86812  10.024   9.536   7.089
94972SOL    HW186813   9.979   9.517   7.172
94972SOL    HW286814  10.112   9.500   7.102
94973SOL     OW86815  12.972   5.753   2.152
94973SOL    HW186816  12.973   5.735   2.058
94973SOL    HW286817  13.040   5.696   2.189
94974SOL     OW86818   6.632   1.855   8.653
94974SOL    HW186819   6.698   1.823   8.592
94974SOL    HW286820   6.675   1.854   8.738
94975SOL     OW86821   4.810   9.278  11.057
94975SOL    HW186822   4.866   9.320  10.992
94975SOL    HW286823   4.783   9.349  11.115
94976SOL     OW86824  12.173  11.885   2.937
94976SOL    HW186825  12.116  11.960   2.923
94976SOL    HW286826  12.131  11.813   2.889
94977SOL     OW86827   0.392   5.441  11.806
94977SOL    HW186828   0.486   5.430  11.789
94977SOL    HW286829   0.356   5.474  11.724
94978SOL     OW86830   2.477   6.061   0.539
94978SOL    HW186831   2.432   6.013   0.608
94978SOL    HW286832   2.568   6.030   0.544
94979SOL     OW86833   6.591   5.540   5.990
94979SOL    HW186834   6.610   5.544   6.084
94979SOL    HW286835   6.642   5.465   5.959
94980SOL     OW86836   6.636  13.518   5.701
94980SOL    HW186837   6.608  13.606   5.680
94980SOL    HW286838   6.598  13.463   5.632
94981SOL     OW86839   4.885  14.560   8.076
94981SOL    HW186840   4.879  14.595   7.987
94981SOL    HW286841   4.903  14.467   8.063
94982SOL     OW86842   1.468  12.913  11.749
94982SOL    HW186843   1.481  13.008  11.755
94982SOL    HW286844   1.415  12.892  11.826
94983SOL     OW86845   0.602   2.051  11.540
94983SOL    HW186846   0.614   1.957  11.537
94983SOL    HW286847   0.587   2.077  11.449
94984SOL     OW86848   2.473   4.826  11.283
94984SOL    HW186849   2.553   4.848  11.330
94984SOL    HW286850   2.406   4.881  11.324
94985SOL     OW86851   7.889  10.794  14.236
94985SOL    HW186852   7.945  10.718  14.252
94985SOL    HW286853   7.809  10.758  14.197
94986SOL     OW86854  11.346   1.291   0.240
94986SOL    HW186855  11.413   1.322   0.178
94986SOL    HW286856  11.361   1.197   0.245
94987SOL     OW86857   9.059   3.348   7.973
94987SOL    HW186858   9.000   3.353   8.049
94987SOL    HW286859   9.009   3.390   7.902
94988SOL     OW86860   3.191   2.566   6.889
94988SOL    HW186861   3.277   2.559   6.931
94988SOL    HW286862   3.206   2.617   6.810
94989SOL     OW86863  12.900   9.177  12.080
94989SOL    HW186864  12.867   9.226  12.155
94989SOL    HW286865  12.836   9.106  12.069
94990SOL     OW86866   8.529   9.240   3.113
94990SOL    HW186867   8.495   9.328   3.128
94990SOL    HW286868   8.595   9.251   3.045
94991SOL     OW86869  13.987   7.524  13.873
94991SOL    HW186870  13.918   7.586  13.895
94991SOL    HW286871  14.030   7.504  13.956
94992SOL     OW86872   7.812  10.917  11.541
94992SOL    HW186873   7.898  10.945  11.510
94992SOL    HW286874   7.830  10.851  11.607
94993SOL     OW86875   6.175   3.373  12.401
94993SOL    HW186876   6.180   3.278  12.395
94993SOL    HW286877   6.266   3.401  12.411
94994SOL     OW86878   6.534  12.329  10.373
94994SOL    HW186879   6.517  12.395  10.441
94994SOL    HW286880   6.533  12.245  10.420
94995SOL     OW86881   9.040  10.455   9.728
94995SOL    HW186882   9.100  10.493   9.791
94995SOL    HW286883   9.083  10.374   9.699
94996SOL     OW86884   0.451   4.882   0.882
94996SOL    HW186885   0.495   4.798   0.870
94996SOL    HW286886   0.484   4.937   0.812
94997SOL     OW86887   4.788  11.505   1.835
94997SOL    HW186888   4.750  11.558   1.765
94997SOL    HW286889   4.866  11.554   1.862
94998SOL     OW86890   2.751   9.587  13.687
94998SOL    HW186891   2.784   9.660  13.635
94998SOL    HW286892   2.813   9.578  13.759
94999SOL     OW86893   6.080   4.420   6.807
94999SOL    HW186894   6.125   4.463   6.735
94999SOL    HW286895   5.987   4.423   6.783
95000SOL     OW86896   3.584   3.476   5.349
95000SOL    HW186897   3.526   3.531   5.297
95000SOL    HW286898   3.666   3.473   5.299
95001SOL     OW86899   3.095   3.910   5.789
95001SOL    HW186900   3.036   3.979   5.819
95001SOL    HW286901   3.079   3.905   5.694
95002SOL     OW86902   6.928  14.561  11.735
95002SOL    HW186903   6.987  14.593  11.667
95002SOL    HW286904   6.953  14.609  11.814
95003SOL     OW86905   9.328   3.621   4.767
95003SOL    HW186906   9.245   3.668   4.773
95003SOL    HW286907   9.305   3.535   4.733
95004SOL     OW86908  14.624  10.251  10.608
95004SOL    HW186909  14.667  10.271  10.525
95004SOL    HW286910  14.631  10.331  10.660
95005SOL     OW86911  12.927   0.820   2.986
95005SOL    HW186912  12.976   0.815   3.068
95005SOL    HW286913  12.960   0.899   2.943
95006SOL     OW86914  13.982  13.989   0.424
95006SOL    HW186915  14.051  14.056   0.426
95006SOL    HW286916  13.919  14.021   0.360
95007SOL     OW86917   8.106  11.355   4.560
95007SOL    HW186918   8.201  11.364   4.551
95007SOL    HW286919   8.090  11.356   4.655
95008SOL     OW86920   2.234   7.623   4.641
95008SOL    HW186921   2.193   7.626   4.554
95008SOL    HW286922   2.207   7.705   4.683
95009SOL     OW86923   0.268   3.784  10.011
95009SOL    HW186924   0.219   3.749  10.085
95009SOL    HW286925   0.346   3.729  10.005
95010SOL     OW86926   9.062  10.385   8.093
95010SOL    HW186927   9.095  10.367   8.005
95010SOL    HW286928   8.974  10.348   8.094
95011SOL     OW86929   4.626  11.392  12.892
95011SOL    HW186930   4.640  11.389  12.798
95011SOL    HW286931   4.668  11.474  12.919
95012SOL     OW86932   1.499  11.338  10.653
95012SOL    HW186933   1.448  11.328  10.572
95012SOL    HW286934   1.554  11.415  10.637
95013SOL     OW86935   9.445   8.178  14.370
95013SOL    HW186936   9.358   8.139  14.378
95013SOL    HW286937   9.433   8.250  14.309
95014SOL     OW86938   8.367  10.681  13.651
95014SOL    HW186939   8.448  10.701  13.604
95014SOL    HW286940   8.301  10.736  13.610
95015SOL     OW86941  10.660   9.416   5.069
95015SOL    HW186942  10.735   9.405   5.127
95015SOL    HW286943  10.636   9.326   5.044
95016SOL     OW86944   9.348   7.309   5.065
95016SOL    HW186945   9.343   7.397   5.103
95016SOL    HW286946   9.428   7.272   5.103
95017SOL     OW86947  11.039  13.234   5.421
95017SOL    HW186948  11.010  13.239   5.512
95017SOL    HW286949  11.066  13.143   5.410
95018SOL     OW86950   0.229   6.367   8.984
95018SOL    HW186951   0.252   6.387   9.075
95018SOL    HW286952   0.313   6.348   8.942
95019SOL     OW86953   3.999   3.362   8.303
95019SOL    HW186954   3.957   3.372   8.217
95019SOL    HW286955   3.953   3.423   8.360
95020SOL     OW86956   4.796   6.829   4.101
95020SOL    HW186957   4.771   6.920   4.118
95020SOL    HW286958   4.730   6.797   4.039
95021SOL     OW86959   1.173   0.944   5.049
95021SOL    HW186960   1.268   0.957   5.042
95021SOL    HW286961   1.146   0.913   4.963
95022SOL     OW86962   2.220   7.249   7.250
95022SOL    HW186963   2.276   7.171   7.249
95022SOL    HW286964   2.190   7.255   7.341
95023SOL     OW86965  11.918   1.893   2.977
95023SOL    HW186966  11.985   1.911   3.042
95023SOL    HW286967  11.893   1.803   2.993
95024SOL     OW86968   2.245   5.507   7.176
95024SOL    HW186969   2.257   5.529   7.268
95024SOL    HW286970   2.185   5.574   7.143
95025SOL     OW86971   5.715   5.702  11.852
95025SOL    HW186972   5.619   5.694  11.849
95025SOL    HW286973   5.736   5.692  11.945
95026SOL     OW86974   4.973   8.181   7.229
95026SOL    HW186975   4.941   8.104   7.277
95026SOL    HW286976   4.976   8.153   7.138
95027SOL     OW86977   3.618  14.322   6.450
95027SOL    HW186978   3.554  14.306   6.519
95027SOL    HW286979   3.685  14.377   6.491
95028SOL     OW86980   6.348   5.991   9.321
95028SOL    HW186981   6.260   6.029   9.320
95028SOL    HW286982   6.346   5.927   9.392
95029SOL     OW86983   6.472   1.089   4.855
95029SOL    HW186984   6.408   1.068   4.923
95029SOL    HW286985   6.557   1.069   4.895
95030SOL     OW86986   5.397   8.161   6.549
95030SOL    HW186987   5.443   8.182   6.469
95030SOL    HW286988   5.354   8.077   6.531
95031SOL     OW86989   3.358   5.231  10.971
95031SOL    HW186990   3.385   5.299  10.909
95031SOL    HW286991   3.420   5.159  10.956
95032SOL     OW86992   6.196   0.460   8.811
95032SOL    HW186993   6.119   0.459   8.868
95032SOL    HW286994   6.163   0.496   8.728
95033SOL     OW86995   4.142   6.369   3.918
95033SOL    HW186996   4.156   6.454   3.960
95033SOL    HW286997   4.229   6.341   3.890
95034SOL     OW86998  11.232   7.646   6.412
95034SOL    HW186999  11.266   7.557   6.422
95034SOL    HW287000  11.251   7.669   6.321
95035SOL     OW87001  11.716   2.787   2.228
95035SOL    HW187002  11.734   2.696   2.205
95035SOL    HW287003  11.709   2.787   2.324
95036SOL     OW87004  12.279   2.195  12.507
95036SOL    HW187005  12.309   2.171  12.419
95036SOL    HW287006  12.216   2.127  12.530
95037SOL     OW87007   6.453  11.255  12.166
95037SOL    HW187008   6.480  11.262  12.074
95037SOL    HW287009   6.519  11.199  12.206
95038SOL     OW87010   5.127  13.796   0.688
95038SOL    HW187011   5.086  13.812   0.773
95038SOL    HW287012   5.054  13.790   0.626
95039SOL     OW87013   7.337   8.853   0.231
95039SOL    HW187014   7.383   8.800   0.296
95039SOL    HW287015   7.251   8.870   0.269
95040SOL     OW87016   9.629   4.036   0.765
95040SOL    HW187017   9.574   4.020   0.689
95040SOL    HW287018   9.661   4.125   0.753
95041SOL     OW87019   0.838  13.613   7.314
95041SOL    HW187020   0.849  13.520   7.332
95041SOL    HW287021   0.927  13.648   7.315
95042SOL     OW87022   3.254   7.317   9.391
95042SOL    HW187023   3.294   7.346   9.309
95042SOL    HW287024   3.161   7.337   9.381
95043SOL     OW87025  13.365   7.819   3.095
95043SOL    HW187026  13.427   7.840   3.026
95043SOL    HW287027  13.417   7.823   3.176
95044SOL     OW87028  14.148  11.724  12.922
95044SOL    HW187029  14.095  11.803  12.933
95044SOL    HW287030  14.108  11.660  12.981
95045SOL     OW87031   1.755  14.408   1.655
95045SOL    HW187032   1.660  14.402   1.644
95045SOL    HW287033   1.771  14.501   1.667
95046SOL     OW87034   3.516   2.135   1.849
95046SOL    HW187035   3.541   2.068   1.913
95046SOL    HW287036   3.521   2.090   1.764
95047SOL     OW87037   3.063   5.177   9.920
95047SOL    HW187038   3.155   5.175   9.895
95047SOL    HW287039   3.023   5.243   9.863
95048SOL     OW87040  10.536   8.064   6.946
95048SOL    HW187041  10.485   8.019   7.013
95048SOL    HW287042  10.595   8.121   6.995
95049SOL     OW87043   1.625  12.820   2.657
95049SOL    HW187044   1.537  12.822   2.619
95049SOL    HW287045   1.636  12.729   2.685
95050SOL     OW87046  10.275   5.535  12.864
95050SOL    HW187047  10.217   5.507  12.794
95050SOL    HW287048  10.267   5.630  12.865
95051SOL     OW87049   4.271   6.718   6.463
95051SOL    HW187050   4.218   6.738   6.386
95051SOL    HW287051   4.280   6.623   6.462
95052SOL     OW87052   2.849   3.775   3.780
95052SOL    HW187053   2.771   3.831   3.785
95052SOL    HW287054   2.919   3.833   3.751
95053SOL     OW87055  13.642  11.870   5.365
95053SOL    HW187056  13.557  11.914   5.365
95053SOL    HW287057  13.623  11.780   5.393
95054SOL     OW87058   7.346   4.108   9.483
95054SOL    HW187059   7.404   4.042   9.519
95054SOL    HW287060   7.403   4.182   9.461
95055SOL     OW87061   3.577  11.516  12.874
95055SOL    HW187062   3.579  11.432  12.918
95055SOL    HW287063   3.493  11.517  12.828
95056SOL     OW87064  14.242   9.547  10.267
95056SOL    HW187065  14.194   9.571  10.188
95056SOL    HW287066  14.288   9.626  10.293
95057SOL     OW87067   3.400  14.750   2.767
95057SOL    HW187068   3.352  14.776   2.846
95057SOL    HW287069   3.492  14.761   2.791
95058SOL     OW87070   2.143  12.446  14.342
95058SOL    HW187071   2.235  12.429  14.361
95058SOL    HW287072   2.134  12.429  14.249
95059SOL     OW87073   3.896   2.716  12.434
95059SOL    HW187074   3.965   2.658  12.467
95059SOL    HW287075   3.854   2.666  12.364
95060SOL     OW87076   9.134   3.048   8.646
95060SOL    HW187077   9.225   3.071   8.631
95060SOL    HW287078   9.108   3.099   8.722
95061SOL     OW87079  13.813  13.454   9.658
95061SOL    HW187080  13.897  13.438   9.614
95061SOL    HW287081  13.752  13.473   9.588
95062SOL     OW87082  10.569  13.441   4.288
95062SOL    HW187083  10.653  13.486   4.296
95062SOL    HW287084  10.591  13.348   4.298
95063SOL     OW87085   5.016  11.545   7.348
95063SOL    HW187086   4.939  11.590   7.313
95063SOL    HW287087   5.015  11.459   7.306
95064SOL     OW87088   6.466   9.814   2.404
95064SOL    HW187089   6.550   9.799   2.361
95064SOL    HW287090   6.488   9.860   2.485
95065SOL     OW87091   5.169  12.429   0.490
95065SOL    HW187092   5.108  12.363   0.458
95065SOL    HW287093   5.244  12.423   0.431
95066SOL     OW87094  12.392  11.062  13.128
95066SOL    HW187095  12.358  10.976  13.154
95066SOL    HW287096  12.466  11.042  13.071
95067SOL     OW87097  11.534   6.543   9.978
95067SOL    HW187098  11.599   6.586  10.034
95067SOL    HW287099  11.572   6.457   9.959
95068SOL     OW87100   2.571   3.978   0.137
95068SOL    HW187101   2.529   3.979   0.223
95068SOL    HW287102   2.508   3.933   0.080
95069SOL     OW87103   0.974  10.370  11.885
95069SOL    HW187104   1.053  10.353  11.937
95069SOL    HW287105   0.974  10.465  11.872
95070SOL     OW87106   6.115   8.821   8.225
95070SOL    HW187107   6.087   8.768   8.151
95070SOL    HW287108   6.157   8.759   8.285
95071SOL     OW87109   3.346  13.896   9.439
95071SOL    HW187110   3.423  13.853   9.402
95071SOL    HW287111   3.362  13.896   9.534
95072SOL     OW87112   6.013   6.786   3.250
95072SOL    HW187113   5.999   6.692   3.262
95072SOL    HW287114   6.099   6.803   3.289
95073SOL     OW87115   5.009   3.863  14.372
95073SOL    HW187116   4.995   3.923  14.299
95073SOL    HW287117   4.923   3.854  14.413
95074SOL     OW87118  13.020   1.264   2.562
95074SOL    HW187119  12.944   1.246   2.617
95074SOL    HW287120  13.034   1.358   2.568
95075SOL     OW87121   4.882   2.865   2.953
95075SOL    HW187122   4.918   2.926   3.018
95075SOL    HW287123   4.787   2.879   2.958
95076SOL     OW87124   8.432  13.536   9.142
95076SOL    HW187125   8.391  13.616   9.109
95076SOL    HW287126   8.391  13.522   9.228
95077SOL     OW87127  13.258  11.567   2.711
95077SOL    HW187128  13.288  11.525   2.791
95077SOL    HW287129  13.302  11.519   2.640
95078SOL     OW87130   6.002  14.454  10.273
95078SOL    HW187131   6.058  14.397  10.325
95078SOL    HW287132   6.032  14.441  10.183
95079SOL     OW87133  11.811   3.567   8.388
95079SOL    HW187134  11.733   3.527   8.348
95079SOL    HW287135  11.858   3.493   8.426
95080SOL     OW87136   9.668   1.005  14.776
95080SOL    HW187137   9.592   0.949  14.793
95080SOL    HW287138   9.641   1.059  14.702
95081SOL     OW87139  14.823  14.607   4.206
95081SOL    HW187140  14.842  14.689   4.252
95081SOL    HW287141   0.033  14.578   4.173
95082SOL     OW87142   7.700   3.290   6.696
95082SOL    HW187143   7.641   3.233   6.746
95082SOL    HW287144   7.722   3.240   6.618
95083SOL     OW87145  11.170   3.318   9.105
95083SOL    HW187146  11.084   3.359   9.113
95083SOL    HW287147  11.190   3.318   9.012
95084SOL     OW87148   8.358   1.006   3.961
95084SOL    HW187149   8.391   0.995   3.872
95084SOL    HW287150   8.276   0.957   3.963
95085SOL     OW87151  10.435   2.450   3.688
95085SOL    HW187152  10.526   2.425   3.705
95085SOL    HW287153  10.414   2.409   3.605
95086SOL     OW87154   7.281  10.814  14.632
95086SOL    HW187155   7.373  10.795  14.615
95086SOL    HW287156   7.235  10.733  14.610
95087SOL     OW87157   2.908  13.847   2.252
95087SOL    HW187158   2.867  13.865   2.168
95087SOL    HW287159   2.943  13.931   2.280
95088SOL     OW87160   4.317   9.219   0.593
95088SOL    HW187161   4.385   9.243   0.530
95088SOL    HW287162   4.243   9.191   0.540
95089SOL     OW87163   5.371   0.575   1.137
95089SOL    HW187164   5.318   0.648   1.107
95089SOL    HW287165   5.461   0.610   1.139
95090SOL     OW87166  10.111   5.297  10.095
95090SOL    HW187167  10.021   5.274  10.116
95090SOL    HW287168  10.113   5.297   9.999
95091SOL     OW87169   8.592   1.697   3.326
95091SOL    HW187170   8.530   1.757   3.367
95091SOL    HW287171   8.646   1.665   3.398
95092SOL     OW87172   6.441   9.877  13.372
95092SOL    HW187173   6.396   9.935  13.433
95092SOL    HW287174   6.405   9.790  13.390
95093SOL     OW87175  10.180   4.813  12.326
95093SOL    HW187176  10.162   4.826  12.419
95093SOL    HW287177  10.238   4.738  12.323
95094SOL     OW87178   3.813   4.830  11.335
95094SOL    HW187179   3.846   4.816  11.423
95094SOL    HW287180   3.735   4.775  11.329
95095SOL     OW87181  12.995  13.825   5.706
95095SOL    HW187182  12.929  13.889   5.733
95095SOL    HW287183  13.036  13.865   5.629
95096SOL     OW87184  13.508   8.545   1.892
95096SOL    HW187185  13.543   8.525   1.979
95096SOL    HW287186  13.418   8.571   1.908
95097SOL     OW87187   1.473   0.099   5.127
95097SOL    HW187188   1.534   0.159   5.171
95097SOL    HW287189   1.387   0.140   5.137
95098SOL     OW87190  13.228   7.111   0.149
95098SOL    HW187191  13.279   7.187   0.176
95098SOL    HW287192  13.284   7.036   0.170
95099SOL     OW87193  14.814   8.208   4.084
95099SOL    HW187194  14.731   8.165   4.104
95099SOL    HW287195  14.830   8.188   3.991
95100SOL     OW87196   2.714  13.881   2.052
95100SOL    HW187197   2.645  13.945   2.036
95100SOL    HW287198   2.682  13.800   2.011
95101SOL     OW87199   6.702   6.472   5.633
95101SOL    HW187200   6.729   6.514   5.551
95101SOL    HW287201   6.774   6.413   5.654
95102SOL     OW87202  10.363  11.533   8.454
95102SOL    HW187203  10.378  11.627   8.455
95102SOL    HW287204  10.412  11.500   8.529
95103SOL     OW87205   3.609  11.895   3.260
95103SOL    HW187206   3.697  11.871   3.288
95103SOL    HW287207   3.596  11.848   3.178
95104SOL     OW87208   6.761  12.999   2.449
95104SOL    HW187209   6.783  12.916   2.408
95104SOL    HW287210   6.803  13.065   2.394
95105SOL     OW87211   9.818   4.026  10.877
95105SOL    HW187212   9.745   4.063  10.926
95105SOL    HW287213   9.879   3.995  10.944
95106SOL     OW87214   1.944   4.451  12.340
95106SOL    HW187215   2.010   4.414  12.281
95106SOL    HW287216   1.953   4.546  12.330
95107SOL     OW87217   1.775   9.328  11.768
95107SOL    HW187218   1.680   9.331  11.781
95107SOL    HW287219   1.802   9.420  11.770
95108SOL     OW87220   1.531  14.770   2.509
95108SOL    HW187221   1.450  14.766   2.459
95108SOL    HW287222   1.549  14.679   2.532
95109SOL     OW87223   1.163  14.341   3.896
95109SOL    HW187224   1.103  14.318   3.967
95109SOL    HW287225   1.251  14.330   3.934
95110SOL     OW87226   0.097  14.185   9.468
95110SOL    HW187227   0.102  14.252   9.399
95110SOL    HW287228   0.185  14.148   9.470
95111SOL     OW87229  14.604   6.346   4.297
95111SOL    HW187230  14.664   6.350   4.223
95111SOL    HW287231  14.596   6.253   4.317
95112SOL     OW87232  10.799   8.117   9.518
95112SOL    HW187233  10.714   8.111   9.561
95112SOL    HW287234  10.819   8.210   9.515
95113SOL     OW87235   5.820   0.976  13.953
95113SOL    HW187236   5.735   1.020  13.962
95113SOL    HW287237   5.799   0.889  13.921
95114SOL     OW87238   9.376   6.505   0.427
95114SOL    HW187239   9.423   6.462   0.355
95114SOL    HW287240   9.424   6.479   0.505
95115SOL     OW87241  14.786   5.204  12.943
95115SOL    HW187242  14.757   5.223  13.032
95115SOL    HW287243  14.873   5.243  12.937
95116SOL     OW87244   5.702   8.538   1.716
95116SOL    HW187245   5.746   8.534   1.632
95116SOL    HW287246   5.610   8.556   1.694
95117SOL     OW87247  10.026   0.506   4.080
95117SOL    HW187248  10.012   0.500   4.175
95117SOL    HW287249  10.062   0.421   4.056
95118SOL     OW87250   5.265   4.294   3.636
95118SOL    HW187251   5.339   4.349   3.661
95118SOL    HW287252   5.302   4.234   3.570
95119SOL     OW87253   8.920  14.747   6.047
95119SOL    HW187254   8.966  14.696   6.113
95119SOL    HW287255   8.933  14.838   6.073
95120SOL     OW87256  14.447  14.629  11.443
95120SOL    HW187257  14.463  14.587  11.528
95120SOL    HW287258  14.412  14.560  11.388
95121SOL     OW87259  10.873  11.530  13.436
95121SOL    HW187260  10.891  11.553  13.345
95121SOL    HW287261  10.920  11.597  13.486
95122SOL     OW87262   9.241  10.998   0.712
95122SOL    HW187263   9.228  10.905   0.691
95122SOL    HW287264   9.222  11.004   0.805
95123SOL     OW87265   8.086  10.601  14.263
95123SOL    HW187266   8.126  10.563  14.342
95123SOL    HW287267   8.160  10.630  14.211
95124SOL     OW87268  11.921   5.227   7.323
95124SOL    HW187269  11.957   5.139   7.335
95124SOL    HW287270  11.828   5.217   7.340
95125SOL     OW87271   2.271   6.531  14.031
95125SOL    HW187272   2.301   6.457  14.084
95125SOL    HW287273   2.338   6.541  13.963
95126SOL     OW87274   8.323   3.690  13.838
95126SOL    HW187275   8.249   3.645  13.798
95126SOL    HW287276   8.370   3.729  13.764
95127SOL     OW87277   3.130   2.899   0.226
95127SOL    HW187278   3.132   2.975   0.285
95127SOL    HW287279   3.098   2.935   0.143
95128SOL     OW87280  11.165  14.715  14.127
95128SOL    HW187281  11.145  14.807  14.146
95128SOL    HW287282  11.145  14.668  14.208
95129SOL     OW87283  11.585   9.265   6.569
95129SOL    HW187284  11.548   9.200   6.509
95129SOL    HW287285  11.544   9.246   6.653
95130SOL     OW87286   9.103  11.929   7.744
95130SOL    HW187287   9.156  12.004   7.719
95130SOL    HW287288   9.165  11.855   7.746
95131SOL     OW87289   4.857   5.972   5.198
95131SOL    HW187290   4.769   6.002   5.217
95131SOL    HW287291   4.915   6.030   5.247
95132SOL     OW87292   0.911  13.146   9.209
95132SOL    HW187293   0.880  13.180   9.125
95132SOL    HW287294   1.005  13.135   9.197
95133SOL     OW87295   6.830   5.650  14.245
95133SOL    HW187296   6.839   5.556  14.231
95133SOL    HW287297   6.773   5.680  14.173
95134SOL     OW87298  10.636   3.426   1.614
95134SOL    HW187299  10.724   3.457   1.634
95134SOL    HW287300  10.631   3.427   1.518
95135SOL     OW87301  10.122  10.758  14.539
95135SOL    HW187302  10.207  10.715  14.536
95135SOL    HW287303  10.091  10.747  14.629
95136SOL     OW87304   8.339   1.771  10.313
95136SOL    HW187305   8.418   1.822  10.292
95136SOL    HW287306   8.366   1.680  10.302
95137SOL     OW87307   1.245   9.455   0.227
95137SOL    HW187308   1.289   9.511   0.291
95137SOL    HW287309   1.160   9.498   0.213
95138SOL     OW87310   9.550   3.640   9.698
95138SOL    HW187311   9.465   3.682   9.709
95138SOL    HW287312   9.559   3.583   9.775
95139SOL     OW87313   1.059  12.096  14.721
95139SOL    HW187314   1.046  12.190  14.727
95139SOL    HW287315   1.091  12.070  14.808
95140SOL     OW87316   9.661   9.598  13.879
95140SOL    HW187317   9.725   9.549  13.827
95140SOL    HW287318   9.577   9.560  13.854
95141SOL     OW87319   5.394   1.243   9.376
95141SOL    HW187320   5.410   1.310   9.443
95141SOL    HW287321   5.313   1.200   9.403
95142SOL     OW87322   9.695   8.779   5.827
95142SOL    HW187323   9.674   8.852   5.768
95142SOL    HW287324   9.747   8.719   5.773
95143SOL     OW87325   6.102   3.774   3.359
95143SOL    HW187326   6.081   3.699   3.414
95143SOL    HW287327   6.186   3.751   3.319
95144SOL     OW87328   6.326   1.558   6.321
95144SOL    HW187329   6.244   1.514   6.298
95144SOL    HW287330   6.391   1.487   6.325
95145SOL     OW87331  12.494   5.611   0.455
95145SOL    HW187332  12.475   5.649   0.541
95145SOL    HW287333  12.467   5.520   0.464
95146SOL     OW87334   7.260   2.421  14.449
95146SOL    HW187335   7.177   2.396  14.491
95146SOL    HW287336   7.303   2.476  14.514
95147SOL     OW87337  10.530   0.523  11.989
95147SOL    HW187338  10.474   0.545  12.064
95147SOL    HW287339  10.497   0.576  11.917
95148SOL     OW87340  10.997  10.208   7.772
95148SOL    HW187341  10.964  10.237   7.858
95148SOL    HW287342  11.026  10.289   7.730
95149SOL     OW87343   6.048  13.258   0.166
95149SOL    HW187344   5.981  13.280   0.230
95149SOL    HW287345   5.999  13.236   0.087
95150SOL     OW87346  11.620  14.658   5.525
95150SOL    HW187347  11.615  14.624   5.436
95150SOL    HW287348  11.702  14.706   5.528
95151SOL     OW87349  11.824   5.155   6.226
95151SOL    HW187350  11.835   5.227   6.288
95151SOL    HW287351  11.858   5.078   6.273
95152SOL     OW87352   5.260   4.490  13.924
95152SOL    HW187353   5.345   4.507  13.884
95152SOL    HW287354   5.267   4.527  14.012
95153SOL     OW87355  13.480   7.917   5.333
95153SOL    HW187356  13.473   7.844   5.271
95153SOL    HW287357  13.390   7.935   5.359
95154SOL     OW87358   9.804   1.118  12.020
95154SOL    HW187359   9.846   1.142  11.938
95154SOL    HW287360   9.842   1.033  12.043
95155SOL     OW87361   8.610  14.248  14.322
95155SOL    HW187362   8.555  14.205  14.257
95155SOL    HW287363   8.650  14.322  14.275
95156SOL     OW87364   3.690   5.418   3.636
95156SOL    HW187365   3.734   5.391   3.555
95156SOL    HW287366   3.638   5.341   3.662
95157SOL     OW87367   2.828   0.353   3.330
95157SOL    HW187368   2.897   0.417   3.316
95157SOL    HW287369   2.811   0.317   3.243
95158SOL     OW87370   6.507   0.918   9.280
95158SOL    HW187371   6.416   0.944   9.267
95158SOL    HW287372   6.525   0.859   9.206
95159SOL     OW87373  14.639   5.532   0.129
95159SOL    HW187374  14.624   5.616   0.085
95159SOL    HW287375  14.724   5.542   0.172
95160SOL     OW87376   1.734  13.464   2.890
95160SOL    HW187377   1.655  13.498   2.933
95160SOL    HW287378   1.706  13.449   2.799
95161SOL     OW87379   0.476  12.019   6.091
95161SOL    HW187380   0.496  12.107   6.121
95161SOL    HW287381   0.424  11.980   6.161
95162SOL     OW87382   7.554   6.988   2.802
95162SOL    HW187383   7.517   7.040   2.874
95162SOL    HW287384   7.544   6.897   2.830
95163SOL     OW87385   4.348   7.418  13.214
95163SOL    HW187386   4.407   7.387  13.283
95163SOL    HW287387   4.377   7.507  13.196
95164SOL     OW87388  10.635   2.091   4.320
95164SOL    HW187389  10.649   2.055   4.408
95164SOL    HW287390  10.572   2.162   4.333
95165SOL     OW87391  10.058  12.263   9.555
95165SOL    HW187392  10.120  12.310   9.499
95165SOL    HW287393   9.976  12.264   9.506
95166SOL     OW87394   1.314   3.035   8.352
95166SOL    HW187395   1.347   2.948   8.330
95166SOL    HW287396   1.381   3.073   8.408
95167SOL     OW87397   0.217   7.527   2.903
95167SOL    HW187398   0.136   7.578   2.900
95167SOL    HW287399   0.193   7.442   2.865
95168SOL     OW87400   7.899  12.575  13.042
95168SOL    HW187401   7.882  12.565  12.949
95168SOL    HW287402   7.947  12.658  13.049
95169SOL     OW87403   5.904   9.493   5.515
95169SOL    HW187404   5.872   9.428   5.577
95169SOL    HW287405   5.998   9.501   5.534
95170SOL     OW87406  14.268   2.142   7.938
95170SOL    HW187407  14.351   2.176   7.904
95170SOL    HW287408  14.286   2.121   8.030
95171SOL     OW87409   4.609  12.920   3.521
95171SOL    HW187410   4.571  12.978   3.587
95171SOL    HW287411   4.654  12.852   3.571
95172SOL     OW87412  11.971  13.716   4.568
95172SOL    HW187413  12.065  13.729   4.582
95172SOL    HW287414  11.933  13.803   4.577
95173SOL     OW87415  11.969  10.815   2.005
95173SOL    HW187416  11.976  10.721   1.990
95173SOL    HW287417  11.875  10.831   2.013
95174SOL     OW87418   0.342  12.562   2.915
95174SOL    HW187419   0.282  12.629   2.880
95174SOL    HW287420   0.428  12.589   2.885
95175SOL     OW87421  10.271   3.085   8.336
95175SOL    HW187422  10.340   3.086   8.269
95175SOL    HW287423  10.254   2.992   8.351
95176SOL     OW87424   8.968   9.306   5.505
95176SOL    HW187425   8.949   9.279   5.595
95176SOL    HW287426   8.962   9.401   5.507
95177SOL     OW87427   0.161   5.522   1.355
95177SOL    HW187428   0.113   5.605   1.359
95177SOL    HW287429   0.232   5.539   1.293
95178SOL     OW87430  11.084   0.605   9.937
95178SOL    HW187431  11.076   0.612   9.842
95178SOL    HW287432  11.014   0.545   9.962
95179SOL     OW87433  12.548  12.432   9.161
95179SOL    HW187434  12.468  12.432   9.213
95179SOL    HW287435  12.518  12.451   9.072
95180SOL     OW87436   1.566  12.134   3.552
95180SOL    HW187437   1.561  12.048   3.511
95180SOL    HW287438   1.511  12.190   3.497
95181SOL     OW87439   8.888   2.116   8.574
95181SOL    HW187440   8.893   2.187   8.510
95181SOL    HW287441   8.862   2.039   8.524
95182SOL     OW87442  13.584   0.946   6.785
95182SOL    HW187443  13.498   0.926   6.750
95182SOL    HW287444  13.636   0.973   6.709
95183SOL     OW87445  12.809  11.243   3.921
95183SOL    HW187446  12.836  11.330   3.950
95183SOL    HW287447  12.729  11.258   3.870
95184SOL     OW87448   7.803   1.866  13.485
95184SOL    HW187449   7.765   1.781  13.464
95184SOL    HW287450   7.812   1.909  13.400
95185SOL     OW87451  10.940   0.713   0.150
95185SOL    HW187452  10.862   0.744   0.195
95185SOL    HW287453  10.964   0.785   0.091
95186SOL     OW87454   1.098   2.449   1.970
95186SOL    HW187455   1.029   2.420   2.029
95186SOL    HW287456   1.178   2.447   2.023
95187SOL     OW87457   3.402   1.171   7.259
95187SOL    HW187458   3.474   1.123   7.216
95187SOL    HW287459   3.390   1.249   7.205
95188SOL     OW87460   1.900   2.482   7.380
95188SOL    HW187461   1.926   2.452   7.292
95188SOL    HW287462   1.899   2.577   7.373
95189SOL     OW87463  14.628   4.563   0.833
95189SOL    HW187464  14.697   4.541   0.896
95189SOL    HW287465  14.647   4.654   0.807
95190SOL     OW87466   6.716   5.603  13.353
95190SOL    HW187467   6.645   5.591  13.416
95190SOL    HW287468   6.796   5.601  13.406
95191SOL     OW87469   1.021   5.723  12.185
95191SOL    HW187470   1.078   5.796  12.208
95191SOL    HW287471   1.046   5.700  12.095
95192SOL     OW87472  11.039   2.650  11.404
95192SOL    HW187473  10.977   2.578  11.387
95192SOL    HW287474  11.046   2.652  11.500
95193SOL     OW87475  11.076  10.416   1.131
95193SOL    HW187476  11.091  10.385   1.042
95193SOL    HW287477  11.100  10.343   1.187
95194SOL     OW87478  12.017   0.058   7.135
95194SOL    HW187479  12.067   0.120   7.082
95194SOL    HW287480  12.016  14.852   7.084
95195SOL     OW87481   3.460   6.029  11.845
95195SOL    HW187482   3.379   6.075  11.863
95195SOL    HW287483   3.520   6.096  11.814
95196SOL     OW87484   7.474   5.768  13.928
95196SOL    HW187485   7.387   5.729  13.913
95196SOL    HW287486   7.526   5.740  13.853
95197SOL     OW87487   1.368   6.064   8.977
95197SOL    HW187488   1.435   6.084   9.043
95197SOL    HW287489   1.404   5.991   8.928
95198SOL     OW87490  11.257   9.299   2.186
95198SOL    HW187491  11.164   9.318   2.177
95198SOL    HW287492  11.289   9.364   2.250
95199SOL     OW87493   5.620  11.166  14.532
95199SOL    HW187494   5.535  11.128  14.512
95199SOL    HW287495   5.604  11.261  14.531
95200SOL     OW87496  12.287   5.118   3.849
95200SOL    HW187497  12.226   5.097   3.919
95200SOL    HW287498  12.248   5.192   3.803
95201SOL     OW87499   7.814   2.440   9.220
95201SOL    HW187500   7.760   2.464   9.296
95201SOL    HW287501   7.873   2.515   9.208
95202SOL     OW87502   6.680   1.685   9.637
95202SOL    HW187503   6.593   1.717   9.661
95202SOL    HW287504   6.721   1.758   9.591
95203SOL     OW87505  14.380   0.376   5.197
95203SOL    HW187506  14.379   0.408   5.107
95203SOL    HW287507  14.473   0.362   5.216
95204SOL     OW87508   6.921   3.227  10.035
95204SOL    HW187509   6.990   3.281   9.998
95204SOL    HW287510   6.887   3.278  10.108
95205SOL     OW87511   7.528   2.893   1.644
95205SOL    HW187512   7.573   2.953   1.585
95205SOL    HW287513   7.575   2.810   1.633
95206SOL     OW87514  12.426   1.546  14.801
95206SOL    HW187515  12.485   1.504  14.863
95206SOL    HW287516  12.478   1.617  14.763
95207SOL     OW87517   5.758   5.817  10.162
95207SOL    HW187518   5.694   5.780  10.101
95207SOL    HW287519   5.772   5.906  10.130
95208SOL     OW87520   7.259  11.024   2.753
95208SOL    HW187521   7.261  10.945   2.699
95208SOL    HW287522   7.208  11.087   2.701
95209SOL     OW87523   6.088   4.367  14.787
95209SOL    HW187524   6.154   4.399  14.848
95209SOL    HW287525   6.137   4.321  14.719
95210SOL     OW87526   6.158   9.114   2.807
95210SOL    HW187527   6.141   9.051   2.736
95210SOL    HW287528   6.077   9.163   2.815
95211SOL     OW87529  10.064   6.936  12.210
95211SOL    HW187530  10.031   6.928  12.120
95211SOL    HW287531  10.150   6.976  12.200
95212SOL     OW87532   5.566   3.838   2.039
95212SOL    HW187533   5.506   3.854   1.966
95212SOL    HW287534   5.651   3.869   2.007
95213SOL     OW87535  12.827   8.358  13.160
95213SOL    HW187536  12.770   8.363  13.083
95213SOL    HW287537  12.784   8.294  13.217
95214SOL     OW87538   0.629   2.847   6.421
95214SOL    HW187539   0.677   2.866   6.501
95214SOL    HW287540   0.562   2.784   6.447
95215SOL     OW87541   8.916   7.358   8.677
95215SOL    HW187542   8.826   7.340   8.651
95215SOL    HW287543   8.932   7.448   8.648
95216SOL     OW87544  14.223   5.123   5.924
95216SOL    HW187545  14.152   5.166   5.971
95216SOL    HW287546  14.264   5.067   5.989
95217SOL     OW87547   1.020  14.290   6.087
95217SOL    HW187548   1.013  14.249   6.173
95217SOL    HW287549   1.113  14.284   6.065
95218SOL     OW87550   5.931   4.541   2.414
95218SOL    HW187551   5.909   4.597   2.339
95218SOL    HW287552   5.879   4.577   2.486
95219SOL     OW87553  13.893   8.156  11.990
95219SOL    HW187554  13.890   8.194  11.902
95219SOL    HW287555  13.955   8.212  12.037
95220SOL     OW87556   3.631   1.004   9.950
95220SOL    HW187557   3.724   0.996   9.971
95220SOL    HW287558   3.600   0.913   9.948
95221SOL     OW87559   6.913  13.984  11.893
95221SOL    HW187560   6.895  14.013  11.804
95221SOL    HW287561   7.008  13.994  11.903
95222SOL     OW87562   6.263   6.834  14.444
95222SOL    HW187563   6.204   6.898  14.484
95222SOL    HW287564   6.214   6.799  14.370
95223SOL     OW87565  11.341  12.531   1.168
95223SOL    HW187566  11.278  12.602   1.155
95223SOL    HW287567  11.426  12.570   1.145
95224SOL     OW87568  11.521  12.129   0.568
95224SOL    HW187569  11.449  12.116   0.506
95224SOL    HW287570  11.583  12.185   0.521
95225SOL     OW87571   2.048  14.800  14.465
95225SOL    HW187572   1.987  14.868  14.494
95225SOL    HW287573   1.998  14.748  14.401
95226SOL     OW87574   2.928   3.643  10.115
95226SOL    HW187575   2.834   3.624  10.118
95226SOL    HW287576   2.934   3.729  10.076
95227SOL     OW87577   2.264   6.545  14.875
95227SOL    HW187578   2.215   6.609  14.823
95227SOL    HW287579   2.308   6.490  14.810
95228SOL     OW87580   8.071   5.903   4.560
95228SOL    HW187581   7.978   5.890   4.540
95228SOL    HW287582   8.099   5.822   4.601
95229SOL     OW87583  13.289   8.370  14.005
95229SOL    HW187584  13.219   8.317  14.044
95229SOL    HW287585  13.251   8.405  13.924
95230SOL     OW87586  11.785   0.948   3.373
95230SOL    HW187587  11.797   0.857   3.398
95230SOL    HW287588  11.838   0.959   3.293
95231SOL     OW87589   1.271  13.784  14.085
95231SOL    HW187590   1.312  13.745  14.008
95231SOL    HW287591   1.182  13.804  14.058
95232SOL     OW87592   4.004  14.831  14.074
95232SOL    HW187593   4.029   0.033  14.022
95232SOL    HW287594   3.912  14.846  14.094
95233SOL     OW87595   0.737   3.385  11.596
95233SOL    HW187596   0.656   3.392  11.545
95233SOL    HW287597   0.749   3.291  11.609
95234SOL     OW87598  14.408   5.754  11.571
95234SOL    HW187599  14.414   5.848  11.554
95234SOL    HW287600  14.484   5.736  11.627
95235SOL     OW87601  10.120   9.035   5.605
95235SOL    HW187602  10.208   9.004   5.628
95235SOL    HW287603  10.114   9.023   5.511
95236SOL     OW87604  11.766   3.505  11.280
95236SOL    HW187605  11.843   3.495  11.224
95236SOL    HW287606  11.798   3.558  11.354
95237SOL     OW87607   9.348   8.173   7.271
95237SOL    HW187608   9.364   8.099   7.211
95237SOL    HW287609   9.397   8.151   7.350
95238SOL     OW87610   7.027  10.517  10.315
95238SOL    HW187611   6.933  10.504  10.321
95238SOL    HW287612   7.044  10.596  10.367
95239SOL     OW87613  14.223   5.978  11.802
95239SOL    HW187614  14.268   5.974  11.718
95239SOL    HW287615  14.160   5.906  11.800
95240SOL     OW87616  12.305  13.077   5.964
95240SOL    HW187617  12.278  12.987   5.978
95240SOL    HW287618  12.226  13.129   5.982
95241SOL     OW87619   0.476  11.536   0.306
95241SOL    HW187620   0.425  11.611   0.334
95241SOL    HW287621   0.503  11.493   0.387
95242SOL     OW87622   3.335   8.444  11.174
95242SOL    HW187623   3.402   8.438  11.242
95242SOL    HW287624   3.355   8.371  11.115
95243SOL     OW87625  11.912  12.161   1.020
95243SOL    HW187626  11.906  12.071   1.051
95243SOL    HW287627  11.870  12.213   1.089
95244SOL     OW87628   3.076  10.374  10.394
95244SOL    HW187629   3.019  10.442  10.357
95244SOL    HW287630   3.074  10.390  10.489
95245SOL     OW87631   1.640  12.817   5.940
95245SOL    HW187632   1.561  12.800   5.889
95245SOL    HW287633   1.635  12.910   5.961
95246SOL     OW87634  11.427  10.909   6.343
95246SOL    HW187635  11.488  10.850   6.387
95246SOL    HW287636  11.457  10.909   6.251
95247SOL     OW87637   7.255   7.107   3.168
95247SOL    HW187638   7.190   7.172   3.194
95247SOL    HW287639   7.306   7.091   3.247
95248SOL     OW87640   6.872   9.885   4.971
95248SOL    HW187641   6.906   9.888   5.060
95248SOL    HW287642   6.946   9.856   4.917
95249SOL     OW87643  12.762  11.088   4.178
95249SOL    HW187644  12.708  11.012   4.159
95249SOL    HW287645  12.773  11.132   4.094
95250SOL     OW87646   9.174   6.749   9.530
95250SOL    HW187647   9.179   6.783   9.440
95250SOL    HW287648   9.131   6.665   9.522
95251SOL     OW87649   4.940   1.217   6.809
95251SOL    HW187650   4.859   1.243   6.853
95251SOL    HW287651   4.950   1.280   6.738
95252SOL     OW87652   1.393   4.828   4.093
95252SOL    HW187653   1.406   4.840   3.999
95252SOL    HW287654   1.391   4.733   4.105
95253SOL     OW87655   9.014  14.598   6.956
95253SOL    HW187656   8.998  14.579   6.864
95253SOL    HW287657   9.086  14.540   6.980
95254SOL     OW87658   9.429   7.438   1.852
95254SOL    HW187659   9.439   7.400   1.938
95254SOL    HW287660   9.423   7.364   1.792
95255SOL     OW87661   0.593   3.771   3.347
95255SOL    HW187662   0.584   3.676   3.358
95255SOL    HW287663   0.517   3.797   3.295
95256SOL     OW87664  11.514   5.269  10.604
95256SOL    HW187665  11.543   5.184  10.636
95256SOL    HW287666  11.433   5.251  10.558
95257SOL     OW87667  13.670   5.171   9.530
95257SOL    HW187668  13.584   5.187   9.491
95257SOL    HW287669  13.670   5.078   9.552
95258SOL     OW87670   1.437   1.507  14.733
95258SOL    HW187671   1.495   1.567  14.687
95258SOL    HW287672   1.398   1.454  14.664
95259SOL     OW87673  14.739  11.042   0.937
95259SOL    HW187674  14.780  10.960   0.964
95259SOL    HW287675  14.697  11.022   0.854
95260SOL     OW87676   7.676  11.084  13.355
95260SOL    HW187677   7.587  11.049  13.361
95260SOL    HW287678   7.664  11.176  13.334
95261SOL     OW87679  10.509  11.068  14.262
95261SOL    HW187680  10.472  11.156  14.251
95261SOL    HW287681  10.500  11.028  14.176
95262SOL     OW87682   8.758   4.634  12.982
95262SOL    HW187683   8.676   4.661  12.941
95262SOL    HW287684   8.808   4.715  12.992
95263SOL     OW87685  13.775  13.618   4.670
95263SOL    HW187686  13.785  13.585   4.580
95263SOL    HW287687  13.696  13.576   4.703
95264SOL     OW87688  13.733  11.292   0.130
95264SOL    HW187689  13.753  11.315   0.039
95264SOL    HW287690  13.815  11.307   0.177
95265SOL     OW87691   0.993  14.306   9.195
95265SOL    HW187692   1.027  14.284   9.109
95265SOL    HW287693   1.071  14.325   9.248
95266SOL     OW87694   6.752   2.560   7.668
95266SOL    HW187695   6.709   2.497   7.611
95266SOL    HW287696   6.687   2.628   7.683
95267SOL     OW87697   7.732   8.015   9.757
95267SOL    HW187698   7.794   7.957   9.711
95267SOL    HW287699   7.669   7.956   9.798
95268SOL     OW87700   2.374   0.401  11.969
95268SOL    HW187701   2.455   0.351  11.961
95268SOL    HW287702   2.327   0.359  12.041
95269SOL     OW87703   1.070  12.332   3.930
95269SOL    HW187704   1.128  12.338   3.855
95269SOL    HW287705   0.990  12.378   3.904
95270SOL     OW87706   4.527  10.251   7.474
95270SOL    HW187707   4.538  10.311   7.548
95270SOL    HW287708   4.588  10.179   7.492
95271SOL     OW87709   1.335   8.669   8.708
95271SOL    HW187710   1.280   8.737   8.668
95271SOL    HW287711   1.424   8.697   8.690
95272SOL     OW87712   4.330   8.763   8.301
95272SOL    HW187713   4.252   8.788   8.252
95272SOL    HW287714   4.302   8.692   8.359
95273SOL     OW87715   3.275  13.706  14.052
95273SOL    HW187716   3.279  13.662  13.967
95273SOL    HW287717   3.268  13.799  14.031
95274SOL     OW87718  14.462   7.672   7.423
95274SOL    HW187719  14.437   7.664   7.515
95274SOL    HW287720  14.390   7.720   7.382
95275SOL     OW87721   0.919  10.098   3.764
95275SOL    HW187722   0.899  10.183   3.806
95275SOL    HW287723   0.899  10.111   3.672
95276SOL     OW87724  13.317  14.224   7.126
95276SOL    HW187725  13.266  14.297   7.091
95276SOL    HW287726  13.379  14.203   7.056
95277SOL     OW87727   1.736  13.379   1.907
95277SOL    HW187728   1.772  13.336   1.829
95277SOL    HW287729   1.737  13.472   1.885
95278SOL     OW87730  12.298   5.360   4.636
95278SOL    HW187731  12.261   5.283   4.593
95278SOL    HW287732  12.332   5.414   4.565
95279SOL     OW87733   0.549   0.278   5.599
95279SOL    HW187734   0.488   0.331   5.547
95279SOL    HW287735   0.548   0.319   5.686
95280SOL     OW87736   1.688   8.239   8.219
95280SOL    HW187737   1.764   8.265   8.271
95280SOL    HW287738   1.709   8.269   8.130
95281SOL     OW87739   9.740  11.092  12.503
95281SOL    HW187740   9.796  11.169  12.495
95281SOL    HW287741   9.768  11.034  12.431
95282SOL     OW87742   1.017   3.844  12.181
95282SOL    HW187743   0.960   3.815  12.110
95282SOL    HW287744   1.085   3.895  12.138
95283SOL     OW87745   1.881  11.934   3.138
95283SOL    HW187746   1.930  11.858   3.107
95283SOL    HW287747   1.911  11.946   3.228
95284SOL     OW87748   2.260   0.836   7.101
95284SOL    HW187749   2.332   0.863   7.044
95284SOL    HW287750   2.196   0.907   7.095
95285SOL     OW87751   1.356   3.778  12.391
95285SOL    HW187752   1.290   3.775  12.460
95285SOL    HW287753   1.306   3.768  12.310
95286SOL     OW87754   1.335   1.193   9.271
95286SOL    HW187755   1.335   1.147   9.187
95286SOL    HW287756   1.419   1.239   9.272
95287SOL     OW87757  10.159   7.633   0.491
95287SOL    HW187758  10.251   7.630   0.464
95287SOL    HW287759  10.161   7.653   0.584
95288SOL     OW87760   8.742   3.026  13.633
95288SOL    HW187761   8.648   3.021  13.653
95288SOL    HW287762   8.745   3.028  13.537
95289SOL     OW87763  13.617   8.678   8.635
95289SOL    HW187764  13.691   8.732   8.664
95289SOL    HW287765  13.658   8.606   8.587
95290SOL     OW87766   9.357   4.848  10.762
95290SOL    HW187767   9.320   4.788  10.827
95290SOL    HW287768   9.285   4.870  10.704
95291SOL     OW87769  12.620  10.907   5.343
95291SOL    HW187770  12.573  10.941   5.419
95291SOL    HW287771  12.574  10.943   5.267
95292SOL     OW87772   3.993   5.094   4.270
95292SOL    HW187773   3.971   5.141   4.350
95292SOL    HW287774   4.077   5.052   4.287
95293SOL     OW87775   0.958  12.137   2.660
95293SOL    HW187776   0.891  12.072   2.639
95293SOL    HW287777   0.919  12.221   2.633
95294SOL     OW87778   1.854   6.574   7.011
95294SOL    HW187779   1.904   6.492   7.018
95294SOL    HW287780   1.765   6.545   6.992
95295SOL     OW87781   5.098  11.651   4.949
95295SOL    HW187782   5.025  11.675   5.005
95295SOL    HW287783   5.076  11.564   4.915
95296SOL     OW87784   8.971  10.468   6.805
95296SOL    HW187785   9.028  10.539   6.833
95296SOL    HW287786   8.921  10.504   6.732
95297SOL     OW87787   0.462  11.655   4.414
95297SOL    HW187788   0.530  11.673   4.349
95297SOL    HW287789   0.509  11.648   4.497
95298SOL     OW87790   4.459  10.537   6.510
95298SOL    HW187791   4.505  10.517   6.429
95298SOL    HW287792   4.366  10.527   6.488
95299SOL     OW87793  11.113  13.069  11.003
95299SOL    HW187794  11.162  13.023  11.071
95299SOL    HW287795  11.059  13.131  11.052
95300SOL     OW87796  13.782   5.951   9.736
95300SOL    HW187797  13.702   5.967   9.686
95300SOL    HW287798  13.779   5.858   9.758
95301SOL     OW87799  10.001  13.862   2.972
95301SOL    HW187800   9.945  13.798   3.016
95301SOL    HW287801   9.945  13.940   2.964
95302SOL     OW87802   4.244   8.581   8.509
95302SOL    HW187803   4.250   8.663   8.558
95302SOL    HW287804   4.327   8.537   8.527
95303SOL     OW87805   3.527   0.435   6.779
95303SOL    HW187806   3.556   0.518   6.816
95303SOL    HW287807   3.607   0.392   6.750
95304SOL     OW87808  13.093   6.611   9.178
95304SOL    HW187809  13.091   6.672   9.104
95304SOL    HW287810  13.140   6.659   9.246
95305SOL     OW87811  14.454   9.799   4.121
95305SOL    HW187812  14.460   9.878   4.175
95305SOL    HW287813  14.395   9.824   4.049
95306SOL     OW87814   3.479   6.812   2.544
95306SOL    HW187815   3.509   6.765   2.621
95306SOL    HW287816   3.548   6.800   2.479
95307SOL     OW87817   5.107   0.056   6.966
95307SOL    HW187818   5.154   0.066   6.884
95307SOL    HW287819   5.110  14.837   6.984
95308SOL     OW87820   3.271   4.714   6.801
95308SOL    HW187821   3.250   4.740   6.891
95308SOL    HW287822   3.279   4.619   6.805
95309SOL     OW87823   4.671  12.462   8.881
95309SOL    HW187824   4.701  12.490   8.967
95309SOL    HW287825   4.585  12.501   8.871
95310SOL     OW87826   0.801   8.558  11.984
95310SOL    HW187827   0.894   8.553  11.960
95310SOL    HW287828   0.796   8.630  12.046
95311SOL     OW87829   3.945   7.861   2.858
95311SOL    HW187830   3.880   7.860   2.929
95311SOL    HW287831   3.894   7.841   2.779
95312SOL     OW87832  13.192  11.896  10.678
95312SOL    HW187833  13.206  11.851  10.761
95312SOL    HW287834  13.248  11.849  10.616
95313SOL     OW87835   5.236   1.295   3.054
95313SOL    HW187836   5.328   1.313   3.033
95313SOL    HW287837   5.216   1.353   3.127
95314SOL     OW87838   8.998   1.281  10.594
95314SOL    HW187839   9.055   1.239  10.659
95314SOL    HW287840   8.909   1.262  10.625
95315SOL     OW87841  10.937   0.341  11.369
95315SOL    HW187842  10.991   0.416  11.345
95315SOL    HW287843  10.998   0.267  11.370
95316SOL     OW87844   5.410  13.319  10.280
95316SOL    HW187845   5.384  13.312  10.188
95316SOL    HW287846   5.432  13.230  10.306
95317SOL     OW87847   4.196   5.933  14.582
95317SOL    HW187848   4.268   5.994  14.566
95317SOL    HW287849   4.126   5.961  14.523
95318SOL     OW87850  13.494   2.212  11.916
95318SOL    HW187851  13.498   2.166  11.999
95318SOL    HW287852  13.451   2.296  11.937
95319SOL     OW87853  10.913  12.271   5.947
95319SOL    HW187854  10.915  12.271   6.042
95319SOL    HW287855  10.857  12.344   5.924
95320SOL     OW87856  11.658   4.509   0.294
95320SOL    HW187857  11.581   4.538   0.246
95320SOL    HW287858  11.731   4.559   0.255
95321SOL     OW87859   8.461   2.040   7.010
95321SOL    HW187860   8.499   1.953   7.023
95321SOL    HW287861   8.522   2.099   7.053
95322SOL     OW87862   4.707  11.124  13.852
95322SOL    HW187863   4.729  11.166  13.936
95322SOL    HW287864   4.635  11.176  13.817
95323SOL     OW87865   2.949   8.228   4.426
95323SOL    HW187866   2.959   8.134   4.440
95323SOL    HW287867   2.899   8.258   4.502
95324SOL     OW87868   4.480  11.013   4.895
95324SOL    HW187869   4.430  11.037   4.973
95324SOL    HW287870   4.446  11.071   4.826
95325SOL     OW87871   0.242   6.390   4.674
95325SOL    HW187872   0.230   6.423   4.585
95325SOL    HW287873   0.186   6.445   4.729
95326SOL     OW87874   7.441  10.208  14.826
95326SOL    HW187875   7.420  10.117  14.850
95326SOL    HW287876   7.421  10.258   0.030
95327SOL     OW87877   3.485   9.695   2.726
95327SOL    HW187878   3.464   9.604   2.747
95327SOL    HW287879   3.577   9.692   2.697
95328SOL     OW87880  13.722   2.855   9.716
95328SOL    HW187881  13.789   2.912   9.678
95328SOL    HW287882  13.728   2.775   9.664
95329SOL     OW87883   9.330   1.229   7.191
95329SOL    HW187884   9.338   1.317   7.154
95329SOL    HW287885   9.420   1.200   7.205
95330SOL     OW87886  10.365   7.075   6.695
95330SOL    HW187887  10.317   7.070   6.612
95330SOL    HW287888  10.442   7.020   6.680
95331SOL     OW87889   0.264   4.888  13.924
95331SOL    HW187890   0.169   4.881  13.913
95331SOL    HW287891   0.284   4.978  13.898
95332SOL     OW87892  12.755  11.783   2.463
95332SOL    HW187893  12.721  11.867   2.431
95332SOL    HW287894  12.774  11.734   2.383
95333SOL     OW87895  11.447  10.122   3.587
95333SOL    HW187896  11.381  10.164   3.531
95333SOL    HW287897  11.397  10.060   3.640
95334SOL     OW87898   7.079   3.346   7.095
95334SOL    HW187899   7.020   3.297   7.038
95334SOL    HW287900   7.024   3.413   7.136
95335SOL     OW87901  13.330   3.610   1.143
95335SOL    HW187902  13.391   3.676   1.176
95335SOL    HW287903  13.267   3.659   1.091
95336SOL     OW87904  11.824   4.084   6.060
95336SOL    HW187905  11.772   4.022   6.111
95336SOL    HW287906  11.802   4.065   5.969
95337SOL     OW87907  11.870   3.559   7.826
95337SOL    HW187908  11.910   3.639   7.862
95337SOL    HW287909  11.777   3.567   7.848
95338SOL     OW87910   0.454   0.989  14.564
95338SOL    HW187911   0.470   0.974  14.471
95338SOL    HW287912   0.456   0.901  14.603
95339SOL     OW87913   0.979  13.504  10.883
95339SOL    HW187914   0.993  13.574  10.819
95339SOL    HW287915   0.886  13.508  10.903
95340SOL     OW87916   1.398   2.098   2.499
95340SOL    HW187917   1.391   2.114   2.593
95340SOL    HW287918   1.334   2.029   2.482
95341SOL     OW87919   0.305   5.533   8.031
95341SOL    HW187920   0.248   5.477   8.084
95341SOL    HW287921   0.256   5.615   8.024
95342SOL     OW87922  10.329  10.785  11.206
95342SOL    HW187923  10.415  10.755  11.176
95342SOL    HW287924  10.285  10.817  11.127
95343SOL     OW87925   4.019  13.040   6.770
95343SOL    HW187926   3.988  13.128   6.788
95343SOL    HW287927   3.976  13.015   6.689
95344SOL     OW87928   1.115   3.299   5.965
95344SOL    HW187929   1.161   3.221   5.996
95344SOL    HW287930   1.032   3.266   5.931
95345SOL     OW87931  14.578  11.202  10.669
95345SOL    HW187932  14.661  11.198  10.620
95345SOL    HW287933  14.529  11.125  10.638
95346SOL     OW87934  11.556  12.784  12.242
95346SOL    HW187935  11.572  12.876  12.221
95346SOL    HW287936  11.502  12.786  12.321
95347SOL     OW87937  14.336   6.527  14.630
95347SOL    HW187938  14.257   6.580  14.619
95347SOL    HW287939  14.408   6.589  14.620
95348SOL     OW87940   8.680   4.761   1.562
95348SOL    HW187941   8.719   4.724   1.483
95348SOL    HW287942   8.593   4.723   1.566
95349SOL     OW87943  13.680   4.629  14.075
95349SOL    HW187944  13.731   4.655  14.152
95349SOL    HW287945  13.614   4.698  14.067
95350SOL     OW87946   1.533  10.785   9.423
95350SOL    HW187947   1.622  10.762   9.399
95350SOL    HW287948   1.523  10.875   9.392
95351SOL     OW87949   2.925  14.715   5.055
95351SOL    HW187950   2.956  14.784   4.995
95351SOL    HW287951   2.959  14.634   5.017
95352SOL     OW87952   4.879   9.123   1.977
95352SOL    HW187953   4.882   9.031   1.951
95352SOL    HW287954   4.883   9.121   2.072
95353SOL     OW87955   4.168   8.985  11.350
95353SOL    HW187956   4.179   9.055  11.285
95353SOL    HW287957   4.123   8.915  11.302
95354SOL     OW87958   2.676   4.874   8.836
95354SOL    HW187959   2.745   4.813   8.811
95354SOL    HW287960   2.599   4.818   8.851
95355SOL     OW87961   0.753   1.501  14.000
95355SOL    HW187962   0.703   1.558  14.059
95355SOL    HW287963   0.723   1.413  14.021
95356SOL     OW87964  12.664  10.881  11.130
95356SOL    HW187965  12.665  10.787  11.112
95356SOL    HW287966  12.616  10.920  11.056
95357SOL     OW87967  12.847  14.733   9.084
95357SOL    HW187968  12.778  14.797   9.094
95357SOL    HW287969  12.856  14.693   9.171
95358SOL     OW87970  10.596   0.623   4.707
95358SOL    HW187971  10.563   0.590   4.623
95358SOL    HW287972  10.681   0.661   4.685
95359SOL     OW87973   4.960  14.023   9.538
95359SOL    HW187974   4.892  14.075   9.494
95359SOL    HW287975   4.998  14.084   9.602
95360SOL     OW87976  14.496  13.450   3.684
95360SOL    HW187977  14.430  13.441   3.615
95360SOL    HW287978  14.512  13.360   3.713
95361SOL     OW87979   4.057  10.758   1.103
95361SOL    HW187980   4.011  10.750   1.187
95361SOL    HW287981   4.084  10.669   1.082
95362SOL     OW87982   0.624  10.379   4.026
95362SOL    HW187983   0.680  10.450   4.057
95362SOL    HW287984   0.537  10.399   4.063
95363SOL     OW87985   5.424  10.184   8.770
95363SOL    HW187986   5.359  10.119   8.744
95363SOL    HW287987   5.476  10.199   8.691
95364SOL     OW87988   8.957  10.020   4.999
95364SOL    HW187989   9.006  10.078   5.057
95364SOL    HW287990   8.869  10.018   5.035
95365SOL     OW87991  10.751  10.992  13.951
95365SOL    HW187992  10.720  11.082  13.955
95365SOL    HW287993  10.757  10.972  13.858
95366SOL     OW87994   1.690  10.437  12.868
95366SOL    HW187995   1.768  10.399  12.909
95366SOL    HW287996   1.628  10.448  12.940
95367SOL     OW87997   6.012  13.959  14.468
95367SOL    HW187998   6.000  13.923  14.556
95367SOL    HW287999   5.995  13.885  14.409
95368SOL     OW88000   0.060   3.870  14.260
95368SOL    HW188001   0.136   3.893  14.206
95368SOL    HW288002   0.094   3.808  14.324
95369SOL     OW88003   3.882   6.754  10.033
95369SOL    HW188004   3.859   6.747   9.940
95369SOL    HW288005   3.958   6.697  10.042
95370SOL     OW88006   3.204  14.672   2.322
95370SOL    HW188007   3.204  14.711   2.409
95370SOL    HW288008   3.221  14.746   2.263
95371SOL     OW88009   9.794   5.659   6.099
95371SOL    HW188010   9.837   5.623   6.022
95371SOL    HW288011   9.843   5.739   6.119
95372SOL     OW88012  10.852  12.318  12.304
95372SOL    HW188013  10.920  12.346  12.365
95372SOL    HW288014  10.897  12.314  12.219
95373SOL     OW88015  13.746  12.004   5.755
95373SOL    HW188016  13.697  11.926   5.780
95373SOL    HW288017  13.679  12.071   5.739
95374SOL     OW88018   5.783  14.817   4.101
95374SOL    HW188019   5.736  14.734   4.099
95374SOL    HW288020   5.831  14.820   4.018
95375SOL     OW88021   3.892   3.884   9.226
95375SOL    HW188022   3.987   3.888   9.210
95375SOL    HW288023   3.883   3.888   9.321
95376SOL     OW88024  13.205  12.532   6.953
95376SOL    HW188025  13.293  12.566   6.971
95376SOL    HW288026  13.146  12.602   6.981
95377SOL     OW88027   3.836  10.378   2.736
95377SOL    HW188028   3.812  10.470   2.725
95377SOL    HW288029   3.881  10.375   2.820
95378SOL     OW88030  10.885   1.515   7.548
95378SOL    HW188031  10.830   1.456   7.600
95378SOL    HW288032  10.958   1.536   7.606
95379SOL     OW88033  14.048   1.584   8.746
95379SOL    HW188034  14.134   1.559   8.712
95379SOL    HW288035  13.993   1.594   8.668
95380SOL     OW88036   5.584   9.445  12.710
95380SOL    HW188037   5.664   9.470  12.664
95380SOL    HW288038   5.613   9.420  12.797
95381SOL     OW88039   4.272   4.616   6.322
95381SOL    HW188040   4.300   4.626   6.231
95381SOL    HW288041   4.353   4.615   6.373
95382SOL     OW88042  13.731   1.845   4.166
95382SOL    HW188043  13.646   1.885   4.148
95382SOL    HW288044  13.734   1.836   4.261
95383SOL     OW88045  12.328   4.538   4.658
95383SOL    HW188046  12.334   4.520   4.565
95383SOL    HW288047  12.234   4.537   4.677
95384SOL     OW88048   7.481   6.537  11.529
95384SOL    HW188049   7.541   6.569  11.596
95384SOL    HW288050   7.537   6.492  11.466
95385SOL     OW88051   4.342  14.842   9.859
95385SOL    HW188052   4.353   0.062   9.864
95385SOL    HW288053   4.338  14.815   9.951
95386SOL     OW88054   2.971  14.069   0.190
95386SOL    HW188055   2.930  14.134   0.133
95386SOL    HW288056   2.937  13.985   0.160
95387SOL     OW88057   6.094   1.605  14.396
95387SOL    HW188058   6.110   1.560  14.313
95387SOL    HW288059   6.080   1.696  14.371
95388SOL     OW88060   0.594   9.856   8.815
95388SOL    HW188061   0.539   9.893   8.884
95388SOL    HW288062   0.599   9.926   8.749
95389SOL     OW88063  14.081   7.291  11.433
95389SOL    HW188064  14.094   7.327  11.345
95389SOL    HW288065  14.168   7.288  11.471
95390SOL     OW88066   3.185  10.064  10.107
95390SOL    HW188067   3.188   9.970  10.087
95390SOL    HW288068   3.144  10.068  10.193
95391SOL     OW88069   2.828  14.085  13.506
95391SOL    HW188070   2.776  14.136  13.567
95391SOL    HW288071   2.893  14.146  13.471
95392SOL     OW88072   8.832  14.154   3.618
95392SOL    HW188073   8.765  14.096   3.654
95392SOL    HW288074   8.796  14.242   3.629
95393SOL     OW88075   1.882   0.794  14.081
95393SOL    HW188076   1.880   0.702  14.106
95393SOL    HW288077   1.870   0.842  14.164
95394SOL     OW88078   1.474  13.922   9.252
95394SOL    HW188079   1.426  13.995   9.291
95394SOL    HW288080   1.565  13.937   9.278
95395SOL     OW88081   9.043   8.644   8.346
95395SOL    HW188082   9.003   8.563   8.315
95395SOL    HW288083   9.119   8.657   8.288
95396SOL     OW88084   9.882  10.769   5.291
95396SOL    HW188085   9.917  10.715   5.219
95396SOL    HW288086   9.828  10.710   5.342
95397SOL     OW88087   5.265   0.609   3.430
95397SOL    HW188088   5.239   0.604   3.338
95397SOL    HW288089   5.280   0.702   3.446
95398SOL     OW88090  10.291   6.729  14.561
95398SOL    HW188091  10.204   6.735  14.522
95398SOL    HW288092  10.282   6.772  14.646
95399SOL     OW88093  11.911   9.062  14.199
95399SOL    HW188094  11.873   9.077  14.286
95399SOL    HW288095  11.923   9.150  14.162
95400SOL     OW88096  11.953   2.060   3.259
95400SOL    HW188097  11.877   2.011   3.290
95400SOL    HW288098  11.917   2.137   3.217
95401SOL     OW88099   3.599   4.352  13.628
95401SOL    HW188100   3.538   4.295  13.583
95401SOL    HW288101   3.633   4.411  13.561
95402SOL     OW88102   8.167  13.720   8.341
95402SOL    HW188103   8.169  13.625   8.329
95402SOL    HW288104   8.226  13.736   8.415
95403SOL     OW88105   0.578   9.963   4.551
95403SOL    HW188106   0.640  10.034   4.536
95403SOL    HW288107   0.519   9.997   4.618
95404SOL     OW88108   4.463  11.133   1.427
95404SOL    HW188109   4.492  11.138   1.336
95404SOL    HW288110   4.530  11.181   1.476
95405SOL     OW88111   9.220   3.185   0.517
95405SOL    HW188112   9.159   3.121   0.478
95405SOL    HW288113   9.166   3.235   0.577
95406SOL     OW88114  14.235   6.166  10.878
95406SOL    HW188115  14.257   6.252  10.916
95406SOL    HW288116  14.317   6.134  10.842
95407SOL     OW88117  11.566   5.168   2.542
95407SOL    HW188118  11.611   5.249   2.519
95407SOL    HW288119  11.509   5.192   2.615
95408SOL     OW88120  13.304  11.347  13.620
95408SOL    HW188121  13.229  11.389  13.577
95408SOL    HW288122  13.275  11.334  13.711
95409SOL     OW88123   5.433  10.645   7.878
95409SOL    HW188124   5.338  10.649   7.879
95409SOL    HW288125   5.460  10.726   7.835
95410SOL     OW88126   8.023   2.252  12.443
95410SOL    HW188127   8.015   2.159  12.425
95410SOL    HW288128   8.068   2.256  12.528
95411SOL     OW88129   2.284   4.615   8.472
95411SOL    HW188130   2.352   4.636   8.409
95411SOL    HW288131   2.230   4.695   8.477
95412SOL     OW88132   3.356   8.292   9.134
95412SOL    HW188133   3.339   8.247   9.217
95412SOL    HW288134   3.310   8.375   9.142
95413SOL     OW88135   0.621   3.923   1.602
95413SOL    HW188136   0.657   4.006   1.633
95413SOL    HW288137   0.588   3.881   1.681
95414SOL     OW88138  10.863   7.314  14.377
95414SOL    HW188139  10.786   7.343  14.425
95414SOL    HW288140  10.908   7.254  14.436
95415SOL     OW88141  13.673   3.772  11.404
95415SOL    HW188142  13.647   3.795  11.315
95415SOL    HW288143  13.718   3.688  11.395
95416SOL     OW88144   6.804   9.841   8.251
95416SOL    HW188145   6.782   9.930   8.223
95416SOL    HW288146   6.836   9.851   8.341
95417SOL     OW88147   3.088   3.465   4.963
95417SOL    HW188148   3.060   3.373   4.962
95417SOL    HW288149   3.072   3.494   5.053
95418SOL     OW88150   5.050  12.800   3.864
95418SOL    HW188151   5.023  12.844   3.944
95418SOL    HW288152   5.015  12.855   3.794
95419SOL     OW88153  10.255   6.419   5.872
95419SOL    HW188154  10.325   6.363   5.839
95419SOL    HW288155  10.217   6.369   5.945
95420SOL     OW88156   6.123  10.944   7.889
95420SOL    HW188157   6.180  10.977   7.958
95420SOL    HW288158   6.182  10.897   7.829
95421SOL     OW88159   4.268   6.278  12.900
95421SOL    HW188160   4.294   6.348  12.960
95421SOL    HW288161   4.192   6.237  12.942
95422SOL     OW88162   7.254   9.177   2.157
95422SOL    HW188163   7.162   9.202   2.152
95422SOL    HW288164   7.299   9.255   2.190
95423SOL     OW88165   3.605   3.686  10.172
95423SOL    HW188166   3.653   3.698  10.090
95423SOL    HW288167   3.523   3.644  10.145
95424SOL     OW88168   3.948  11.106  10.263
95424SOL    HW188169   3.860  11.119  10.228
95424SOL    HW288170   4.002  11.087  10.186
95425SOL     OW88171  11.934  11.735   3.674
95425SOL    HW188172  11.967  11.809   3.725
95425SOL    HW288173  12.000  11.667   3.687
95426SOL     OW88174   4.367   7.563   8.513
95426SOL    HW188175   4.440   7.550   8.573
95426SOL    HW288176   4.383   7.501   8.442
95427SOL     OW88177   1.103  13.444  12.242
95427SOL    HW188178   1.128  13.536  12.239
95427SOL    HW288179   1.174  13.402  12.291
95428SOL     OW88180   4.102  10.105   6.838
95428SOL    HW188181   4.118  10.053   6.916
95428SOL    HW288182   4.022  10.068   6.801
95429SOL     OW88183   7.786   6.254   8.802
95429SOL    HW188184   7.792   6.169   8.758
95429SOL    HW288185   7.859   6.254   8.864
95430SOL     OW88186   6.122   2.252   9.496
95430SOL    HW188187   6.165   2.302   9.566
95430SOL    HW288188   6.142   2.300   9.416
95431SOL     OW88189  13.038   8.542  11.225
95431SOL    HW188190  12.984   8.620  11.212
95431SOL    HW288191  13.080   8.555  11.310
95432SOL     OW88192   2.495  11.785   3.349
95432SOL    HW188193   2.431  11.782   3.420
95432SOL    HW288194   2.522  11.876   3.345
95433SOL     OW88195   7.016   3.400   5.984
95433SOL    HW188196   7.048   3.490   5.974
95433SOL    HW288197   7.069   3.349   5.923
95434SOL     OW88198   7.497   6.583   5.387
95434SOL    HW188199   7.448   6.565   5.307
95434SOL    HW288200   7.429   6.602   5.452
95435SOL     OW88201   7.573   1.516  14.595
95435SOL    HW188202   7.626   1.446  14.635
95435SOL    HW288203   7.490   1.513  14.642
95436SOL     OW88204   4.320   1.105   6.794
95436SOL    HW188205   4.311   1.025   6.743
95436SOL    HW288206   4.407   1.138   6.772
95437SOL     OW88207  12.247   6.849   6.973
95437SOL    HW188208  12.161   6.887   6.953
95437SOL    HW288209  12.250   6.847   7.069
95438SOL     OW88210  14.203  11.850   7.672
95438SOL    HW188211  14.291  11.861   7.636
95438SOL    HW288212  14.144  11.869   7.598
95439SOL     OW88213   6.845   5.062   5.420
95439SOL    HW188214   6.814   4.974   5.438
95439SOL    HW288215   6.883   5.056   5.332
95440SOL     OW88216   9.823   6.647   4.392
95440SOL    HW188217   9.901   6.592   4.398
95440SOL    HW288218   9.764   6.599   4.334
95441SOL     OW88219   0.131   6.449   3.940
95441SOL    HW188220   0.123   6.362   3.902
95441SOL    HW288221   0.157   6.433   4.031
95442SOL     OW88222   7.150   7.938  14.128
95442SOL    HW188223   7.205   7.893  14.192
95442SOL    HW288224   7.137   8.026  14.164
95443SOL     OW88225   5.208  10.695  10.185
95443SOL    HW188226   5.159  10.618  10.214
95443SOL    HW288227   5.163  10.723  10.105
95444SOL     OW88228   6.676   6.852  12.074
95444SOL    HW188229   6.719   6.914  12.133
95444SOL    HW288230   6.648   6.905  12.000
95445SOL     OW88231   4.693   1.812  13.395
95445SOL    HW188232   4.640   1.835  13.319
95445SOL    HW288233   4.680   1.717  13.405
95446SOL     OW88234  14.348   0.799   2.937
95446SOL    HW188235  14.388   0.764   2.857
95446SOL    HW288236  14.422   0.825   2.992
95447SOL     OW88237   9.512   3.280  12.580
95447SOL    HW188238   9.474   3.239  12.502
95447SOL    HW288239   9.496   3.373  12.568
95448SOL     OW88240   2.490  14.738   0.635
95448SOL    HW188241   2.468  14.755   0.726
95448SOL    HW288242   2.574  14.782   0.622
95449SOL     OW88243   7.339   8.474  12.979
95449SOL    HW188244   7.272   8.469  13.047
95449SOL    HW288245   7.381   8.388  12.980
95450SOL     OW88246   8.586   3.760   3.460
95450SOL    HW188247   8.579   3.843   3.506
95450SOL    HW288248   8.678   3.755   3.434
95451SOL     OW88249  12.920  14.141   9.974
95451SOL    HW188250  12.921  14.067  10.035
95451SOL    HW288251  12.947  14.104   9.890
95452SOL     OW88252  12.063   7.607   6.793
95452SOL    HW188253  12.060   7.692   6.749
95452SOL    HW288254  12.137   7.562   6.753
95453SOL     OW88255  12.309   7.804   9.283
95453SOL    HW188256  12.259   7.726   9.259
95453SOL    HW288257  12.260   7.842   9.356
95454SOL     OW88258   0.486   7.088  11.722
95454SOL    HW188259   0.408   7.033  11.733
95454SOL    HW288260   0.499   7.129  11.807
95455SOL     OW88261   8.086   4.837   2.307
95455SOL    HW188262   8.079   4.750   2.268
95455SOL    HW288263   8.180   4.854   2.311
95456SOL     OW88264   5.735   8.059  14.449
95456SOL    HW188265   5.818   8.015  14.464
95456SOL    HW288266   5.671   7.988  14.440
95457SOL     OW88267   2.428  12.264   9.168
95457SOL    HW188268   2.399  12.218   9.089
95457SOL    HW288269   2.414  12.201   9.238
95458SOL     OW88270   1.659  12.731   7.500
95458SOL    HW188271   1.745  12.690   7.486
95458SOL    HW288272   1.678  12.824   7.503
95459SOL     OW88273  13.244  13.626  14.176
95459SOL    HW188274  13.329  13.609  14.135
95459SOL    HW288275  13.229  13.550  14.232
95460SOL     OW88276  11.754   7.125  13.785
95460SOL    HW188277  11.768   7.211  13.745
95460SOL    HW288278  11.763   7.063  13.713
95461SOL     OW88279  14.293   6.972   1.795
95461SOL    HW188280  14.371   6.919   1.777
95461SOL    HW288281  14.259   6.994   1.708
95462SOL     OW88282  14.837   5.223   9.723
95462SOL    HW188283  14.790   5.170   9.659
95462SOL    HW288284  14.768   5.266   9.774
95463SOL     OW88285   8.104   8.837  14.838
95463SOL    HW188286   8.032   8.869   0.018
95463SOL    HW288287   8.068   8.759  14.795
95464SOL     OW88288   4.298  13.704  11.054
95464SOL    HW188289   4.251  13.728  11.134
95464SOL    HW288290   4.254  13.625  11.024
95465SOL     OW88291   9.958   3.933   8.469
95465SOL    HW188292   9.984   3.999   8.533
95465SOL    HW288293   9.995   3.851   8.503
95466SOL     OW88294   7.105   2.034   6.253
95466SOL    HW188295   7.195   2.065   6.253
95466SOL    HW288296   7.076   2.044   6.344
95467SOL     OW88297   4.522  12.898   9.676
95467SOL    HW188298   4.520  12.963   9.747
95467SOL    HW288299   4.585  12.833   9.705
95468SOL     OW88300   6.627  10.665   9.565
95468SOL    HW188301   6.712  10.705   9.584
95468SOL    HW288302   6.603  10.699   9.479
95469SOL     OW88303   1.355  11.811   8.252
95469SOL    HW188304   1.440  11.831   8.212
95469SOL    HW288305   1.310  11.756   8.187
95470SOL     OW88306   5.350   4.070  10.104
95470SOL    HW188307   5.281   4.041  10.044
95470SOL    HW288308   5.432   4.047  10.059
95471SOL     OW88309   5.984   9.728   4.633
95471SOL    HW188310   6.051   9.668   4.665
95471SOL    HW288311   6.030   9.810   4.616
95472SOL     OW88312   3.521   2.399  14.285
95472SOL    HW188313   3.469   2.445  14.350
95472SOL    HW288314   3.601   2.451  14.276
95473SOL     OW88315   0.466  12.827   1.260
95473SOL    HW188316   0.528  12.774   1.310
95473SOL    HW288317   0.403  12.857   1.325
95474SOL     OW88318  13.601   7.714  11.173
95474SOL    HW188319  13.597   7.755  11.087
95474SOL    HW288320  13.536   7.762  11.225
95475SOL     OW88321   7.906   6.347   3.768
95475SOL    HW188322   7.892   6.285   3.697
95475SOL    HW288323   7.823   6.348   3.816
95476SOL     OW88324   1.638  11.163   5.510
95476SOL    HW188325   1.641  11.104   5.435
95476SOL    HW288326   1.586  11.237   5.480
95477SOL     OW88327  12.993   1.785   4.771
95477SOL    HW188328  12.961   1.860   4.723
95477SOL    HW288329  12.915   1.742   4.805
95478SOL     OW88330   3.067   9.946   4.683
95478SOL    HW188331   2.978   9.953   4.719
95478SOL    HW288332   3.114   9.891   4.746
95479SOL     OW88333   9.779   7.916   7.010
95479SOL    HW188334   9.787   7.832   6.964
95479SOL    HW288335   9.802   7.896   7.100
95480SOL     OW88336   9.141   5.351  10.977
95480SOL    HW188337   9.074   5.355  11.045
95480SOL    HW288338   9.096   5.314  10.901
95481SOL     OW88339   7.597   4.500   7.323
95481SOL    HW188340   7.629   4.492   7.413
95481SOL    HW288341   7.662   4.454   7.270
95482SOL     OW88342   7.592   2.718  14.639
95482SOL    HW188343   7.647   2.662  14.585
95482SOL    HW288344   7.503   2.681  14.630
95483SOL     OW88345   0.834   7.380   1.667
95483SOL    HW188346   0.773   7.325   1.617
95483SOL    HW288347   0.826   7.348   1.757
95484SOL     OW88348  11.751  11.427   9.038
95484SOL    HW188349  11.801  11.495   8.993
95484SOL    HW288350  11.741  11.459   9.128
95485SOL     OW88351  11.370   1.446   4.832
95485SOL    HW188352  11.305   1.378   4.816
95485SOL    HW288353  11.357   1.470   4.924
95486SOL     OW88354  10.800   2.293  12.539
95486SOL    HW188355  10.783   2.200  12.525
95486SOL    HW288356  10.761   2.313  12.624
95487SOL     OW88357  10.734   9.205   0.438
95487SOL    HW188358  10.705   9.191   0.348
95487SOL    HW288359  10.688   9.284   0.467
95488SOL     OW88360   6.431  11.225   1.612
95488SOL    HW188361   6.480  11.235   1.693
95488SOL    HW288362   6.369  11.298   1.611
95489SOL     OW88363   0.687   9.792  11.904
95489SOL    HW188364   0.651   9.825  11.986
95489SOL    HW288365   0.751   9.727  11.930
95490SOL     OW88366   1.869   5.786   3.371
95490SOL    HW188367   1.803   5.835   3.323
95490SOL    HW288368   1.939   5.849   3.388
95491SOL     OW88369  12.538   1.193   1.474
95491SOL    HW188370  12.485   1.253   1.422
95491SOL    HW288371  12.539   1.231   1.562
95492SOL     OW88372   6.313   9.056   3.239
95492SOL    HW188373   6.396   9.098   3.261
95492SOL    HW288374   6.316   9.043   3.145
95493SOL     OW88375   5.981  12.786   2.463
95493SOL    HW188376   6.011  12.793   2.372
95493SOL    HW288377   5.996  12.873   2.500
95494SOL     OW88378  11.623   1.214  10.256
95494SOL    HW188379  11.539   1.254  10.278
95494SOL    HW288380  11.603   1.151  10.188
95495SOL     OW88381   7.158   5.332   6.297
95495SOL    HW188382   7.228   5.306   6.357
95495SOL    HW288383   7.203   5.345   6.213
95496SOL     OW88384  13.013   2.070   7.339
95496SOL    HW188385  12.925   2.056   7.303
95496SOL    HW288386  13.015   2.164   7.358
95497SOL     OW88387   0.741   7.983   8.746
95497SOL    HW188388   0.726   8.039   8.669
95497SOL    HW288389   0.755   7.896   8.710
95498SOL     OW88390  14.481   6.439   5.190
95498SOL    HW188391  14.570   6.406   5.180
95498SOL    HW288392  14.463   6.434   5.284
95499SOL     OW88393   8.279   4.913   1.636
95499SOL    HW188394   8.332   4.841   1.601
95499SOL    HW288395   8.317   4.930   1.722
95500SOL     OW88396   3.597   4.876  13.493
95500SOL    HW188397   3.523   4.877  13.432
95500SOL    HW288398   3.557   4.857  13.578
95501SOL     OW88399   2.128  10.232   0.706
95501SOL    HW188400   2.167  10.183   0.634
95501SOL    HW288401   2.041  10.256   0.674
95502SOL     OW88402   2.995   1.587   2.952
95502SOL    HW188403   3.076   1.571   2.903
95502SOL    HW288404   2.999   1.680   2.973
95503SOL     OW88405  11.682   1.075  10.734
95503SOL    HW188406  11.643   1.072  10.647
95503SOL    HW288407  11.701   0.984  10.756
95504SOL     OW88408   3.749   0.796  14.346
95504SOL    HW188409   3.734   0.865  14.280
95504SOL    HW288410   3.693   0.821  14.419
95505SOL     OW88411   9.291   2.917   3.257
95505SOL    HW188412   9.308   2.852   3.325
95505SOL    HW288413   9.367   2.911   3.199
95506SOL     OW88414   3.346   2.567  11.788
95506SOL    HW188415   3.293   2.617  11.726
95506SOL    HW288416   3.373   2.631  11.854
95507SOL     OW88417  12.637   9.060  10.200
95507SOL    HW188418  12.731   9.071  10.187
95507SOL    HW288419  12.624   9.065  10.295
95508SOL     OW88420   0.773   7.405  10.547
95508SOL    HW188421   0.728   7.487  10.566
95508SOL    HW288422   0.726   7.339  10.598
95509SOL     OW88423   8.653   8.799   6.371
95509SOL    HW188424   8.714   8.844   6.312
95509SOL    HW288425   8.591   8.867   6.397
95510SOL     OW88426  13.839   5.866   9.169
95510SOL    HW188427  13.794   5.950   9.160
95510SOL    HW288428  13.801   5.811   9.100
95511SOL     OW88429   7.466   3.757  12.407
95511SOL    HW188430   7.559   3.780  12.396
95511SOL    HW288431   7.419   3.828  12.364
95512SOL     OW88432   0.779   2.074   9.409
95512SOL    HW188433   0.690   2.051   9.438
95512SOL    HW288434   0.807   2.142   9.470
95513SOL     OW88435   9.329   2.700  10.014
95513SOL    HW188436   9.305   2.758  10.087
95513SOL    HW288437   9.371   2.625  10.056
95514SOL     OW88438   1.539   1.699   2.203
95514SOL    HW188439   1.580   1.740   2.279
95514SOL    HW288440   1.611   1.658   2.156
95515SOL     OW88441  12.357   7.940   7.476
95515SOL    HW188442  12.324   8.014   7.424
95515SOL    HW288443  12.342   7.864   7.421
95516SOL     OW88444   0.223   6.063   7.969
95516SOL    HW188445   0.273   6.012   8.031
95516SOL    HW288446   0.160   6.001   7.932
95517SOL     OW88447   6.169  12.619   1.375
95517SOL    HW188448   6.222  12.680   1.324
95517SOL    HW288449   6.226  12.543   1.387
95518SOL     OW88450   5.261   2.625   5.395
95518SOL    HW188451   5.230   2.709   5.429
95518SOL    HW288452   5.284   2.643   5.304
95519SOL     OW88453  10.067   6.707  12.872
95519SOL    HW188454  10.125   6.678  12.942
95519SOL    HW288455  10.069   6.636  12.808
95520SOL     OW88456   6.163   8.497   8.867
95520SOL    HW188457   6.239   8.439   8.868
95520SOL    HW288458   6.095   8.448   8.913
95521SOL     OW88459   3.768   2.987   6.515
95521SOL    HW188460   3.693   2.951   6.468
95521SOL    HW288461   3.834   2.917   6.513
95522SOL     OW88462   6.716   5.676  14.495
95522SOL    HW188463   6.784   5.676  14.428
95522SOL    HW288464   6.672   5.591  14.485
95523SOL     OW88465  14.845   6.688   4.356
95523SOL    HW188466   0.047   6.741   4.337
95523SOL    HW288467  14.855   6.611   4.300
95524SOL     OW88468   6.192   4.821  12.429
95524SOL    HW188469   6.231   4.776  12.354
95524SOL    HW288470   6.177   4.752  12.493
95525SOL     OW88471  11.209  14.710  13.339
95525SOL    HW188472  11.182  14.716  13.431
95525SOL    HW288473  11.232  14.618  13.327
95526SOL     OW88474  13.424   5.243  11.988
95526SOL    HW188475  13.383   5.193  11.917
95526SOL    HW288476  13.488   5.183  12.026
95527SOL     OW88477   7.557   2.375   4.897
95527SOL    HW188478   7.465   2.386   4.873
95527SOL    HW288479   7.582   2.291   4.859
95528SOL     OW88480   2.177   7.692   8.337
95528SOL    HW188481   2.233   7.724   8.267
95528SOL    HW288482   2.210   7.605   8.357
95529SOL     OW88483   6.605   5.026   0.680
95529SOL    HW188484   6.644   5.108   0.710
95529SOL    HW288485   6.587   4.977   0.759
95530SOL     OW88486   2.919   2.203   7.724
95530SOL    HW188487   2.894   2.190   7.816
95530SOL    HW288488   2.961   2.121   7.699
95531SOL     OW88489   6.665   5.632   6.270
95531SOL    HW188490   6.736   5.571   6.286
95531SOL    HW288491   6.684   5.707   6.327
95532SOL     OW88492   2.842  14.226   2.763
95532SOL    HW188493   2.791  14.163   2.712
95532SOL    HW288494   2.928  14.227   2.721
95533SOL     OW88495  13.460   2.204   2.841
95533SOL    HW188496  13.400   2.272   2.871
95533SOL    HW288497  13.545   2.231   2.874
95534SOL     OW88498  10.164   8.994   2.512
95534SOL    HW188499  10.259   8.987   2.511
95534SOL    HW288500  10.147   9.088   2.520
95535SOL     OW88501   0.174   7.112   4.063
95535SOL    HW188502   0.086   7.143   4.084
95535SOL    HW288503   0.182   7.126   3.968
95536SOL     OW88504  10.454   8.681  14.142
95536SOL    HW188505  10.532   8.634  14.113
95536SOL    HW288506  10.484   8.734  14.216
95537SOL     OW88507   8.465   2.998  13.668
95537SOL    HW188508   8.413   2.927  13.705
95537SOL    HW288509   8.457   2.987  13.573
95538SOL     OW88510  12.978   0.544   9.083
95538SOL    HW188511  12.914   0.531   9.014
95538SOL    HW288512  12.938   0.608   9.141
95539SOL     OW88513   6.444   2.470   1.531
95539SOL    HW188514   6.530   2.462   1.572
95539SOL    HW288515   6.446   2.555   1.486
95540SOL     OW88516   3.766   7.173   1.695
95540SOL    HW188517   3.776   7.211   1.782
95540SOL    HW288518   3.694   7.222   1.655
95541SOL     OW88519   4.025   2.323  10.125
95541SOL    HW188520   4.010   2.285  10.038
95541SOL    HW288521   4.064   2.252  10.176
95542SOL     OW88522   0.278   4.125  12.253
95542SOL    HW188523   0.310   4.035  12.261
95542SOL    HW288524   0.198   4.118  12.202
95543SOL     OW88525   8.769  10.020   9.885
95543SOL    HW188526   8.818  10.041   9.964
95543SOL    HW288527   8.756   9.926   9.889
95544SOL     OW88528   3.752  11.854  12.345
95544SOL    HW188529   3.674  11.802  12.327
95544SOL    HW288530   3.824  11.803  12.307
95545SOL     OW88531   4.266  12.704  14.116
95545SOL    HW188532   4.197  12.722  14.180
95545SOL    HW288533   4.324  12.642  14.161
95546SOL     OW88534  14.775   0.937   9.003
95546SOL    HW188535  14.837   0.865   9.018
95546SOL    HW288536  14.829   1.008   8.968
95547SOL     OW88537  11.480   0.711   8.434
95547SOL    HW188538  11.460   0.705   8.527
95547SOL    HW288539  11.563   0.758   8.430
95548SOL     OW88540   8.106   6.143  12.140
95548SOL    HW188541   8.066   6.175  12.059
95548SOL    HW288542   8.078   6.205  12.207
95549SOL     OW88543   0.053  12.167   6.989
95549SOL    HW188544   0.015  12.144   7.074
95549SOL    HW288545   0.081  12.258   6.999
95550SOL     OW88546   5.268  10.403   2.289
95550SOL    HW188547   5.292  10.413   2.197
95550SOL    HW288548   5.304  10.318   2.315
95551SOL     OW88549   3.768   0.074   4.997
95551SOL    HW188550   3.812   0.105   5.076
95551SOL    HW288551   3.681   0.049   5.027
95552SOL     OW88552   9.875  13.054   6.640
95552SOL    HW188553   9.966  13.085   6.638
95552SOL    HW288554   9.881  12.964   6.673
95553SOL     OW88555  12.580   3.403   7.333
95553SOL    HW188556  12.615   3.454   7.260
95553SOL    HW288557  12.632   3.430   7.408
95554SOL     OW88558   2.636   0.834   7.709
95554SOL    HW188559   2.681   0.895   7.768
95554SOL    HW288560   2.553   0.877   7.689
95555SOL     OW88561   9.592   8.193  12.995
95555SOL    HW188562   9.618   8.227  12.909
95555SOL    HW288563   9.627   8.104  12.997
95556SOL     OW88564  14.477  10.344   2.411
95556SOL    HW188565  14.498  10.378   2.324
95556SOL    HW288566  14.406  10.401   2.442
95557SOL     OW88567   4.087   0.895  14.851
95557SOL    HW188568   4.011   0.921  14.799
95557SOL    HW288569   4.135   0.835  14.795
95558SOL     OW88570   8.340   3.032   3.129
95558SOL    HW188571   8.413   3.080   3.168
95558SOL    HW288572   8.285   3.009   3.203
95559SOL     OW88573  11.878  12.302   8.326
95559SOL    HW188574  11.896  12.302   8.232
95559SOL    HW288575  11.915  12.219   8.357
95560SOL     OW88576   4.617   9.565  11.922
95560SOL    HW188577   4.523   9.582  11.923
95560SOL    HW288578   4.625   9.471  11.934
95561SOL     OW88579  13.445   2.632  11.771
95561SOL    HW188580  13.474   2.580  11.696
95561SOL    HW288581  13.350   2.635  11.764
95562SOL     OW88582  10.130  13.437   1.457
95562SOL    HW188583  10.105  13.390   1.537
95562SOL    HW288584  10.188  13.507   1.487
95563SOL     OW88585   5.216   0.511   7.553
95563SOL    HW188586   5.151   0.554   7.497
95563SOL    HW288587   5.165   0.449   7.605
95564SOL     OW88588   7.563   1.699   8.199
95564SOL    HW188589   7.610   1.618   8.215
95564SOL    HW288590   7.493   1.675   8.138
95565SOL     OW88591   9.356  14.869   2.335
95565SOL    HW188592   9.280  14.857   2.392
95565SOL    HW288593   9.422   0.035   2.390
95566SOL     OW88594  12.427  11.441   5.162
95566SOL    HW188595  12.504  11.388   5.144
95566SOL    HW288596  12.429  11.455   5.256
95567SOL     OW88597   3.860   5.931   8.043
95567SOL    HW188598   3.906   5.847   8.050
95567SOL    HW288599   3.768   5.907   8.033
95568SOL     OW88600   8.612   8.432  14.659
95568SOL    HW188601   8.566   8.486  14.594
95568SOL    HW288602   8.696   8.412  14.618
95569SOL     OW88603  14.349  11.042  13.935
95569SOL    HW188604  14.315  11.127  13.960
95569SOL    HW288605  14.311  10.981  13.999
95570SOL     OW88606   1.815   4.725   3.873
95570SOL    HW188607   1.780   4.656   3.817
95570SOL    HW288608   1.810   4.688   3.962
95571SOL     OW88609  10.541   1.752   8.246
95571SOL    HW188610  10.540   1.820   8.178
95571SOL    HW288611  10.596   1.683   8.210
95572SOL     OW88612   8.190   5.171  12.757
95572SOL    HW188613   8.105   5.128  12.752
95572SOL    HW288614   8.182   5.246  12.698
95573SOL     OW88615  11.437  12.049   4.771
95573SOL    HW188616  11.438  12.061   4.676
95573SOL    HW288617  11.419  11.956   4.784
95574SOL     OW88618   9.753   7.585   5.224
95574SOL    HW188619   9.801   7.608   5.146
95574SOL    HW288620   9.788   7.500   5.250
95575SOL     OW88621  14.398   4.493  11.044
95575SOL    HW188622  14.342   4.543  11.103
95575SOL    HW288623  14.480   4.483  11.093
95576SOL     OW88624  13.718   6.961   2.394
95576SOL    HW188625  13.647   7.025   2.396
95576SOL    HW288626  13.797   7.012   2.410
95577SOL     OW88627  11.603  12.288   8.012
95577SOL    HW188628  11.559  12.373   8.019
95577SOL    HW288629  11.658  12.296   7.934
95578SOL     OW88630  13.630   8.528   5.268
95578SOL    HW188631  13.569   8.601   5.258
95578SOL    HW288632  13.576   8.454   5.294
95579SOL     OW88633   9.673  13.101  14.726
95579SOL    HW188634   9.764  13.127  14.738
95579SOL    HW288635   9.635  13.104  14.813
95580SOL     OW88636  11.934   9.141   5.506
95580SOL    HW188637  11.846   9.104   5.515
95580SOL    HW288638  11.945   9.196   5.584
95581SOL     OW88639  11.917  12.100   5.939
95581SOL    HW188640  12.004  12.137   5.921
95581SOL    HW288641  11.859  12.176   5.936
95582SOL     OW88642  11.288   1.191   9.632
95582SOL    HW188643  11.353   1.232   9.574
95582SOL    HW288644  11.204   1.210   9.590
95583SOL     OW88645  12.238   7.031  13.868
95583SOL    HW188646  12.165   6.988  13.825
95583SOL    HW288647  12.202   7.061  13.952
95584SOL     OW88648   1.036   9.696   0.109
95584SOL    HW188649   1.078   9.771   0.065
95584SOL    HW288650   1.024   9.632   0.039
95585SOL     OW88651   5.754   7.764  12.118
95585SOL    HW188652   5.734   7.671  12.108
95585SOL    HW288653   5.739   7.801  12.031
95586SOL     OW88654   1.275   8.794   3.258
95586SOL    HW188655   1.189   8.835   3.243
95586SOL    HW288656   1.328   8.864   3.296
95587SOL     OW88657   0.024   3.860   6.586
95587SOL    HW188658   0.020   3.853   6.681
95587SOL    HW288659   0.042   3.770   6.556
95588SOL     OW88660   0.532  12.745   1.021
95588SOL    HW188661   0.454  12.753   0.966
95588SOL    HW288662   0.498  12.746   1.111
95589SOL     OW88663  10.705   8.988   2.997
95589SOL    HW188664  10.623   9.020   3.035
95589SOL    HW288665  10.682   8.962   2.908
95590SOL     OW88666   7.716   8.615  10.177
95590SOL    HW188667   7.635   8.615  10.229
95590SOL    HW288668   7.774   8.675  10.224
95591SOL     OW88669  10.595   7.451  14.408
95591SOL    HW188670  10.543   7.375  14.382
95591SOL    HW288671  10.547   7.526  14.373
95592SOL     OW88672   9.740  14.264  12.782
95592SOL    HW188673   9.830  14.290  12.801
95592SOL    HW288674   9.747  14.187  12.727
95593SOL     OW88675   7.360   9.392  11.653
95593SOL    HW188676   7.376   9.475  11.698
95593SOL    HW288677   7.387   9.408  11.563
95594SOL     OW88678   5.225   0.533  10.938
95594SOL    HW188679   5.311   0.505  10.970
95594SOL    HW288680   5.239   0.623  10.907
95595SOL     OW88681   2.841  10.243   1.959
95595SOL    HW188682   2.789  10.196   2.024
95595SOL    HW288683   2.777  10.272   1.894
95596SOL     OW88684   9.615   3.638   7.454
95596SOL    HW188685   9.602   3.729   7.479
95596SOL    HW288686   9.619   3.639   7.358
95597SOL     OW88687   3.603  13.431   9.672
95597SOL    HW188688   3.662  13.484   9.726
95597SOL    HW288689   3.640  13.343   9.674
95598SOL     OW88690   8.442  13.311   8.509
95598SOL    HW188691   8.457  13.375   8.439
95598SOL    HW288692   8.346  13.303   8.514
95599SOL     OW88693   8.649   2.198  13.033
95599SOL    HW188694   8.736   2.224  13.005
95599SOL    HW288695   8.649   2.209  13.128
95600SOL     OW88696  11.518   4.954   5.959
95600SOL    HW188697  11.432   4.957   5.916
95600SOL    HW288698  11.580   4.967   5.887
95601SOL     OW88699   2.011   8.016   8.596
95601SOL    HW188700   1.924   8.049   8.573
95601SOL    HW288701   2.071   8.067   8.542
95602SOL     OW88702   8.822   8.392  14.454
95602SOL    HW188703   8.859   8.305  14.440
95602SOL    HW288704   8.760   8.403  14.382
95603SOL     OW88705   4.440   2.763   7.070
95603SOL    HW188706   4.411   2.788   7.158
95603SOL    HW288707   4.390   2.819   7.011
95604SOL     OW88708   1.608   2.621   1.314
95604SOL    HW188709   1.623   2.550   1.252
95604SOL    HW288710   1.517   2.610   1.342
95605SOL     OW88711   5.384  11.618   4.999
95605SOL    HW188712   5.366  11.622   5.092
95605SOL    HW288713   5.299  11.601   4.958
95606SOL     OW88714  10.114  10.669   8.001
95606SOL    HW188715  10.061  10.733   7.954
95606SOL    HW288716  10.074  10.663   8.088
95607SOL     OW88717  14.814   5.089   0.069
95607SOL    HW188718  14.803   5.084   0.164
95607SOL    HW288719  14.843   5.002   0.044
95608SOL     OW88720   2.441  12.771   5.351
95608SOL    HW188721   2.458  12.676   5.350
95608SOL    HW288722   2.518  12.809   5.309
95609SOL     OW88723  14.772  11.649   5.012
95609SOL    HW188724  14.865  11.632   5.024
95609SOL    HW288725  14.764  11.678   4.921
95610SOL     OW88726   5.608  12.780   4.088
95610SOL    HW188727   5.593  12.785   4.183
95610SOL    HW288728   5.545  12.842   4.051
95611SOL     OW88729   6.866   6.123  13.510
95611SOL    HW188730   6.895   6.199  13.561
95611SOL    HW288731   6.930   6.114  13.440
95612SOL     OW88732  11.384   2.872   6.850
95612SOL    HW188733  11.400   2.898   6.941
95612SOL    HW288734  11.294   2.899   6.833
95613SOL     OW88735   4.283  11.582   9.589
95613SOL    HW188736   4.306  11.490   9.602
95613SOL    HW288737   4.233  11.583   9.508
95614SOL     OW88738   4.175  12.740   6.573
95614SOL    HW188739   4.147  12.653   6.601
95614SOL    HW288740   4.271  12.737   6.577
95615SOL     OW88741  14.475   4.774   9.006
95615SOL    HW188742  14.414   4.787   9.079
95615SOL    HW288743  14.562   4.783   9.045
95616SOL     OW88744  12.006   0.805   7.486
95616SOL    HW188745  12.015   0.873   7.420
95616SOL    HW288746  11.918   0.770   7.473
95617SOL     OW88747  13.144   7.621   6.448
95617SOL    HW188748  13.157   7.657   6.360
95617SOL    HW288749  13.133   7.527   6.433
95618SOL     OW88750   7.958   3.527  11.840
95618SOL    HW188751   7.984   3.613  11.875
95618SOL    HW288752   7.954   3.470  11.918
95619SOL     OW88753   4.820   2.763   3.647
95619SOL    HW188754   4.878   2.687   3.642
95619SOL    HW288755   4.741   2.737   3.599
95620SOL     OW88756   5.803   7.687   7.526
95620SOL    HW188757   5.722   7.726   7.559
95620SOL    HW288758   5.793   7.689   7.430
95621SOL     OW88759  12.772   8.555   1.322
95621SOL    HW188760  12.852   8.606   1.311
95621SOL    HW288761  12.743   8.537   1.232
95622SOL     OW88762   8.402   5.742  12.364
95622SOL    HW188763   8.476   5.727  12.423
95622SOL    HW288764   8.404   5.836  12.346
95623SOL     OW88765  14.340  11.404  13.349
95623SOL    HW188766  14.371  11.479  13.399
95623SOL    HW288767  14.322  11.337  13.415
95624SOL     OW88768  12.967   2.264   5.801
95624SOL    HW188769  12.937   2.317   5.876
95624SOL    HW288770  12.891   2.259   5.743
95625SOL     OW88771  14.857   1.002   0.358
95625SOL    HW188772  14.772   0.975   0.322
95625SOL    HW288773  14.839   1.084   0.402
95626SOL     OW88774   7.428   7.621   1.914
95626SOL    HW188775   7.359   7.681   1.889
95626SOL    HW288776   7.475   7.666   1.984
95627SOL     OW88777   8.118   8.504   7.714
95627SOL    HW188778   8.150   8.497   7.804
95627SOL    HW288779   8.179   8.564   7.671
95628SOL     OW88780   5.573   3.789   7.904
95628SOL    HW188781   5.489   3.831   7.919
95628SOL    HW288782   5.598   3.815   7.816
95629SOL     OW88783   8.610   1.268  14.691
95629SOL    HW188784   8.563   1.243  14.771
95629SOL    HW288785   8.552   1.330  14.648
95630SOL     OW88786   0.874   9.529   0.399
95630SOL    HW188787   0.841   9.508   0.311
95630SOL    HW288788   0.893   9.623   0.395
95631SOL     OW88789   2.967   7.813   5.664
95631SOL    HW188790   2.979   7.766   5.747
95631SOL    HW288791   3.054   7.849   5.644
95632SOL     OW88792   0.121   9.148  12.505
95632SOL    HW188793   0.182   9.157  12.578
95632SOL    HW288794   0.039   9.122  12.546
95633SOL     OW88795   5.811   6.387   5.004
95633SOL    HW188796   5.888   6.354   5.050
95633SOL    HW288797   5.795   6.473   5.043
95634SOL     OW88798   6.367   2.458   6.523
95634SOL    HW188799   6.288   2.452   6.577
95634SOL    HW288800   6.403   2.369   6.524
95635SOL     OW88801   3.391  13.139   6.505
95635SOL    HW188802   3.386  13.116   6.598
95635SOL    HW288803   3.481  13.166   6.492
95636SOL     OW88804   9.129  14.488   5.740
95636SOL    HW188805   9.202  14.517   5.796
95636SOL    HW288806   9.051  14.502   5.794
95637SOL     OW88807  11.142   0.409   8.274
95637SOL    HW188808  11.143   0.383   8.182
95637SOL    HW288809  11.164   0.503   8.272
95638SOL     OW88810   2.398   9.489   0.807
95638SOL    HW188811   2.457   9.420   0.775
95638SOL    HW288812   2.374   9.538   0.729
95639SOL     OW88813  13.026   8.003  13.029
95639SOL    HW188814  13.011   8.008  13.123
95639SOL    HW288815  12.939   7.988  12.992
95640SOL     OW88816  14.279  10.648   3.013
95640SOL    HW188817  14.310  10.738   3.014
95640SOL    HW288818  14.199  10.648   3.064
95641SOL     OW88819  11.515  13.634  13.556
95641SOL    HW188820  11.547  13.643  13.466
95641SOL    HW288821  11.568  13.564  13.594
95642SOL     OW88822   7.306  12.371  10.658
95642SOL    HW188823   7.394  12.380  10.621
95642SOL    HW288824   7.262  12.307  10.602
95643SOL     OW88825   0.805   3.212  10.941
95643SOL    HW188826   0.739   3.280  10.951
95643SOL    HW288827   0.854   3.214  11.023
95644SOL     OW88828   1.238   7.119   0.380
95644SOL    HW188829   1.321   7.154   0.346
95644SOL    HW288830   1.263   7.077   0.463
95645SOL     OW88831   3.021   6.817  13.302
95645SOL    HW188832   3.100   6.803  13.250
95645SOL    HW288833   3.023   6.910  13.323
95646SOL     OW88834   1.471   0.355   1.265
95646SOL    HW188835   1.566   0.359   1.258
95646SOL    HW288836   1.455   0.282   1.326
95647SOL     OW88837   3.741   7.223  14.871
95647SOL    HW188838   3.713   7.205   0.085
95647SOL    HW288839   3.704   7.152  14.819
95648SOL     OW88840   3.376  12.646   7.939
95648SOL    HW188841   3.365  12.555   7.964
95648SOL    HW288842   3.302  12.691   7.980
95649SOL     OW88843  10.294  12.914   7.282
95649SOL    HW188844  10.304  12.998   7.327
95649SOL    HW288845  10.219  12.873   7.323
95650SOL     OW88846  13.613  10.670   8.870
95650SOL    HW188847  13.587  10.734   8.935
95650SOL    HW288848  13.709  10.673   8.871
95651SOL     OW88849   0.755   8.541   0.551
95651SOL    HW188850   0.754   8.474   0.483
95651SOL    HW288851   0.724   8.621   0.507
95652SOL     OW88852  12.949  10.555  11.982
95652SOL    HW188853  12.873  10.575  12.036
95652SOL    HW288854  13.000  10.637  11.981
95653SOL     OW88855   5.271   7.221   9.761
95653SOL    HW188856   5.277   7.299   9.706
95653SOL    HW288857   5.208   7.165   9.715
95654SOL     OW88858   5.842   9.268   8.813
95654SOL    HW188859   5.825   9.294   8.722
95654SOL    HW288860   5.923   9.217   8.809
95655SOL     OW88861  13.564   7.832  10.862
95655SOL    HW188862  13.523   7.781  10.792
95655SOL    HW288863  13.647   7.862  10.824
95656SOL     OW88864   9.919   5.126  12.100
95656SOL    HW188865   9.932   5.170  12.017
95656SOL    HW288866   9.979   5.051  12.098
95657SOL     OW88867  13.763   7.084   8.879
95657SOL    HW188868  13.820   7.024   8.831
95657SOL    HW288869  13.709   7.027   8.934
95658SOL     OW88870   2.092  14.354   9.790
95658SOL    HW188871   2.148  14.277   9.785
95658SOL    HW288872   2.148  14.423   9.826
95659SOL     OW88873  13.671   3.154   9.886
95659SOL    HW188874  13.756   3.111   9.897
95659SOL    HW288875  13.690   3.228   9.827
95660SOL     OW88876   6.573  10.980  12.055
95660SOL    HW188877   6.622  11.012  12.131
95660SOL    HW288878   6.638  10.935  12.001
95661SOL     OW88879  13.098   6.169   9.452
95661SOL    HW188880  13.020   6.125   9.487
95661SOL    HW288881  13.084   6.169   9.357
95662SOL     OW88882   3.797   3.414  10.379
95662SOL    HW188883   3.837   3.499  10.397
95662SOL    HW288884   3.837   3.355  10.443
95663SOL     OW88885   6.606   0.522  10.127
95663SOL    HW188886   6.640   0.529  10.216
95663SOL    HW288887   6.516   0.491  10.138
95664SOL     OW88888  11.867   2.912   8.207
95664SOL    HW188889  11.831   2.904   8.295
95664SOL    HW288890  11.945   2.857   8.207
95665SOL     OW88891  10.410   7.448  11.993
95665SOL    HW188892  10.483   7.386  11.984
95665SOL    HW288893  10.434   7.520  11.934
95666SOL     OW88894   0.656   4.509   3.207
95666SOL    HW188895   0.629   4.442   3.270
95666SOL    HW288896   0.727   4.555   3.250
95667SOL     OW88897  14.171   6.276   5.166
95667SOL    HW188898  14.096   6.255   5.221
95667SOL    HW288899  14.193   6.366   5.187
95668SOL     OW88900   1.961   1.760   7.643
95668SOL    HW188901   1.957   1.836   7.586
95668SOL    HW288902   2.031   1.780   7.706
95669SOL     OW88903   0.054   7.123   2.275
95669SOL    HW188904   0.089   7.034   2.270
95669SOL    HW288905  14.863   7.126   2.206
95670SOL     OW88906   4.241  13.972   9.360
95670SOL    HW188907   4.195  13.984   9.277
95670SOL    HW288908   4.257  14.061   9.391
95671SOL     OW88909   2.363   4.915   1.491
95671SOL    HW188910   2.381   4.878   1.577
95671SOL    HW288911   2.308   4.991   1.509
95672SOL     OW88912   7.251   3.277   2.962
95672SOL    HW188913   7.276   3.365   2.935
95672SOL    HW288914   7.246   3.281   3.057
95673SOL     OW88915  14.306   7.986  12.238
95673SOL    HW188916  14.287   7.921  12.171
95673SOL    HW288917  14.400   8.001  12.232
95674SOL     OW88918  14.841   5.219   4.967
95674SOL    HW188919  14.838   5.305   4.926
95674SOL    HW288920  14.752   5.185   4.959
95675SOL     OW88921   0.653   3.374   4.895
95675SOL    HW188922   0.568   3.330   4.887
95675SOL    HW288923   0.631   3.467   4.896
95676SOL     OW88924   4.951   4.535  13.456
95676SOL    HW188925   4.946   4.626  13.486
95676SOL    HW288926   5.030   4.501  13.497
95677SOL     OW88927   0.020  11.897   3.976
95677SOL    HW188928   0.083  11.959   3.940
95677SOL    HW288929   0.052  11.811   3.948
95678SOL     OW88930  10.179   9.827   3.536
95678SOL    HW188931  10.234   9.751   3.516
95678SOL    HW288932  10.096   9.808   3.493
95679SOL     OW88933   7.460   3.050   2.003
95679SOL    HW188934   7.473   3.008   2.088
95679SOL    HW288935   7.522   3.006   1.945
95680SOL     OW88936   4.796  11.864   1.743
95680SOL    HW188937   4.735  11.889   1.813
95680SOL    HW288938   4.881  11.855   1.788
95681SOL     OW88939   6.346   8.044   8.859
95681SOL    HW188940   6.374   8.105   8.790
95681SOL    HW288941   6.398   7.965   8.844
95682SOL     OW88942   6.082   9.732  10.657
95682SOL    HW188943   6.093   9.680  10.736
95682SOL    HW288944   5.996   9.773  10.667
95683SOL     OW88945   3.012   4.107   4.237
95683SOL    HW188946   3.059   4.188   4.220
95683SOL    HW288947   3.037   4.083   4.326
95684SOL     OW88948   4.707  11.467   2.189
95684SOL    HW188949   4.677  11.479   2.280
95684SOL    HW288950   4.734  11.376   2.185
95685SOL     OW88951   3.422   5.918   5.132
95685SOL    HW188952   3.407   5.823   5.135
95685SOL    HW288953   3.492   5.933   5.195
95686SOL     OW88954   6.464   7.458   7.826
95686SOL    HW188955   6.544   7.475   7.775
95686SOL    HW288956   6.479   7.371   7.864
95687SOL     OW88957   8.700   6.196   7.903
95687SOL    HW188958   8.718   6.283   7.870
95687SOL    HW288959   8.622   6.168   7.856
95688SOL     OW88960  14.720   4.239   5.490
95688SOL    HW188961  14.694   4.207   5.403
95688SOL    HW288962  14.681   4.326   5.497
95689SOL     OW88963  14.015   2.668  13.503
95689SOL    HW188964  13.954   2.649  13.575
95689SOL    HW288965  13.966   2.649  13.424
95690SOL     OW88966   9.718   2.215   0.980
95690SOL    HW188967   9.770   2.290   0.951
95690SOL    HW288968   9.631   2.229   0.941
95691SOL     OW88969   9.208  13.798   4.924
95691SOL    HW188970   9.132  13.823   4.870
95691SOL    HW288971   9.200  13.853   5.002
95692SOL     OW88972  10.851   9.109   1.776
95692SOL    HW188973  10.799   9.064   1.710
95692SOL    HW288974  10.791   9.170   1.818
95693SOL     OW88975  12.545   8.220  10.472
95693SOL    HW188976  12.568   8.308  10.442
95693SOL    HW288977  12.450   8.217  10.469
95694SOL     OW88978  11.288   5.201  10.450
95694SOL    HW188979  11.205   5.160  10.423
95694SOL    HW288980  11.350   5.174  10.383
95695SOL     OW88981   0.942   7.698   9.302
95695SOL    HW188982   0.917   7.633   9.369
95695SOL    HW288983   0.890   7.674   9.225
95696SOL     OW88984  11.974  14.140   9.564
95696SOL    HW188985  11.910  14.154   9.634
95696SOL    HW288986  11.921  14.122   9.487
95697SOL     OW88987  14.212   5.836   7.061
95697SOL    HW188988  14.121   5.839   7.032
95697SOL    HW288989  14.241   5.747   7.038
95698SOL     OW88990   9.086  12.462   7.201
95698SOL    HW188991   9.044  12.493   7.121
95698SOL    HW288992   9.048  12.516   7.270
95699SOL     OW88993   0.342  13.664   4.587
95699SOL    HW188994   0.347  13.602   4.514
95699SOL    HW288995   0.384  13.743   4.554
95700SOL     OW88996   5.781   5.078  11.103
95700SOL    HW188997   5.764   5.170  11.083
95700SOL    HW288998   5.770   5.071  11.198
95701SOL     OW88999   9.889   1.102  14.505
95701SOL    HW189000   9.870   1.012  14.478
95701SOL    HW289001   9.933   1.092  14.590
95702SOL     OW89002  14.844   6.422   0.974
95702SOL    HW189003  14.830   6.332   1.004
95702SOL    HW289004   0.042   6.453   1.026
95703SOL     OW89005   3.722  10.441   1.767
95703SOL    HW189006   3.793  10.379   1.752
95703SOL    HW289007   3.743  10.481   1.851
95704SOL     OW89008   2.551  11.313   2.698
95704SOL    HW189009   2.644  11.308   2.717
95704SOL    HW289010   2.544  11.291   2.605
95705SOL     OW89011  12.740   2.829   8.172
95705SOL    HW189012  12.737   2.780   8.254
95705SOL    HW289013  12.708   2.767   8.106
95706SOL     OW89014   3.588   4.939  12.493
95706SOL    HW189015   3.637   5.011  12.453
95706SOL    HW289016   3.555   4.976  12.575
95707SOL     OW89017   7.386   9.834  13.646
95707SOL    HW189018   7.403   9.911  13.701
95707SOL    HW289019   7.360   9.871  13.561
95708SOL     OW89020   4.798   9.635  12.114
95708SOL    HW189021   4.745   9.603  12.040
95708SOL    HW289022   4.742   9.699  12.157
95709SOL     OW89023   6.304   2.340   9.670
95709SOL    HW189024   6.307   2.432   9.696
95709SOL    HW289025   6.382   2.302   9.709
95710SOL     OW89026  13.243   0.381   5.380
95710SOL    HW189027  13.287   0.386   5.295
95710SOL    HW289028  13.179   0.453   5.377
95711SOL     OW89029  14.260  14.568   7.646
95711SOL    HW189030  14.295  14.491   7.601
95711SOL    HW289031  14.195  14.603   7.585
95712SOL     OW89032   2.537   7.175  14.798
95712SOL    HW189033   2.550   7.136   0.010
95712SOL    HW289034   2.560   7.104  14.738
95713SOL     OW89035   4.391   4.373   8.831
95713SOL    HW189036   4.450   4.378   8.756
95713SOL    HW289037   4.438   4.419   8.901
95714SOL     OW89038  14.432   8.685   7.452
95714SOL    HW189039  14.345   8.713   7.425
95714SOL    HW289040  14.438   8.710   7.544
95715SOL     OW89041   3.722  14.059   6.600
95715SOL    HW189042   3.659  14.087   6.666
95715SOL    HW289043   3.678  14.074   6.516
95716SOL     OW89044   6.783   0.178  11.309
95716SOL    HW189045   6.778   0.249  11.374
95716SOL    HW289046   6.717   0.200  11.244
95717SOL     OW89047   1.258   0.802   4.173
95717SOL    HW189048   1.198   0.862   4.129
95717SOL    HW289049   1.341   0.811   4.127
95718SOL     OW89050   2.539  14.604  10.870
95718SOL    HW189051   2.511  14.564  10.787
95718SOL    HW289052   2.542  14.698  10.851
95719SOL     OW89053  10.921  10.567  13.057
95719SOL    HW189054  10.836  10.557  13.100
95719SOL    HW289055  10.965  10.636  13.107
95720SOL     OW89056   6.782   2.673   1.343
95720SOL    HW189057   6.866   2.719   1.330
95720SOL    HW289058   6.799   2.614   1.417
95721SOL     OW89059   5.350   9.576   1.599
95721SOL    HW189060   5.409   9.567   1.524
95721SOL    HW289061   5.405   9.615   1.668
95722SOL     OW89062  13.036   5.862   8.380
95722SOL    HW189063  12.986   5.937   8.410
95722SOL    HW289064  12.970   5.796   8.358
95723SOL     OW89065   9.987  12.462   1.378
95723SOL    HW189066   9.944  12.484   1.295
95723SOL    HW289067  10.001  12.368   1.374
95724SOL     OW89068  10.476   4.786   7.925
95724SOL    HW189069  10.484   4.780   7.829
95724SOL    HW289070  10.555   4.744   7.959
95725SOL     OW89071   0.973   7.175   3.574
95725SOL    HW189072   0.945   7.106   3.513
95725SOL    HW289073   0.901   7.238   3.573
95726SOL     OW89074   0.542   5.062   3.035
95726SOL    HW189075   0.636   5.047   3.027
95726SOL    HW289076   0.513   5.077   2.945
95727SOL     OW89077   5.057   9.940   2.145
95727SOL    HW189078   5.077   9.991   2.223
95727SOL    HW289079   5.103   9.984   2.074
95728SOL     OW89080   5.288  10.571   4.349
95728SOL    HW189081   5.315  10.648   4.300
95728SOL    HW289082   5.371  10.527   4.372
95729SOL     OW89083   9.992  13.382   5.905
95729SOL    HW189084   9.975  13.418   5.818
95729SOL    HW289085   9.905  13.371   5.944
95730SOL     OW89086  10.884  10.975  13.697
95730SOL    HW189087  10.934  10.925  13.633
95730SOL    HW289088  10.808  11.007  13.649
95731SOL     OW89089   4.894   3.495   5.192
95731SOL    HW189090   4.834   3.455   5.254
95731SOL    HW289091   4.843   3.503   5.111
95732SOL     OW89092   5.018   3.274  13.306
95732SOL    HW189093   5.094   3.276  13.248
95732SOL    HW289094   5.001   3.181  13.321
95733SOL     OW89095   2.201  10.336   4.277
95733SOL    HW189096   2.188  10.369   4.365
95733SOL    HW289097   2.288  10.368   4.251
95734SOL     OW89098  13.693   8.023   5.475
95734SOL    HW189099  13.624   7.974   5.430
95734SOL    HW289100  13.772   8.005   5.425
95735SOL     OW89101   6.238   1.178   8.268
95735SOL    HW189102   6.297   1.138   8.332
95735SOL    HW289103   6.175   1.109   8.247
95736SOL     OW89104   9.352   6.746   2.886
95736SOL    HW189105   9.376   6.751   2.979
95736SOL    HW289106   9.413   6.806   2.843
95737SOL     OW89107  11.327  12.514   3.263
95737SOL    HW189108  11.342  12.608   3.253
95737SOL    HW289109  11.374  12.474   3.189
95738SOL     OW89110   4.557  10.864   2.370
95738SOL    HW189111   4.652  10.853   2.368
95738SOL    HW289112   4.528  10.809   2.443
95739SOL     OW89113   6.615  12.385  13.367
95739SOL    HW189114   6.707  12.374  13.343
95739SOL    HW289115   6.566  12.367  13.287
95740SOL     OW89116  10.096  11.776   7.072
95740SOL    HW189117  10.094  11.693   7.024
95740SOL    HW289118  10.053  11.756   7.155
95741SOL     OW89119   6.829  10.089  10.034
95741SOL    HW189120   6.912  10.068  10.077
95741SOL    HW289121   6.827  10.185  10.032
95742SOL     OW89122   8.445   8.209  10.665
95742SOL    HW189123   8.441   8.269  10.740
95742SOL    HW289124   8.497   8.135  10.696
95743SOL     OW89125  12.927   5.763   5.388
95743SOL    HW189126  12.860   5.826   5.414
95743SOL    HW289127  12.939   5.778   5.294
95744SOL     OW89128  13.173   9.387   6.470
95744SOL    HW189129  13.085   9.394   6.507
95744SOL    HW289130  13.191   9.293   6.470
95745SOL     OW89131   3.705  10.075   1.005
95745SOL    HW189132   3.637  10.086   1.072
95745SOL    HW289133   3.736  10.164   0.988
95746SOL     OW89134   4.582  14.504   6.320
95746SOL    HW189135   4.591  14.492   6.225
95746SOL    HW289136   4.512  14.567   6.330
95747SOL     OW89137   9.660   4.796   1.807
95747SOL    HW189138   9.604   4.769   1.880
95747SOL    HW289139   9.749   4.774   1.836
95748SOL     OW89140   4.934  10.914  11.708
95748SOL    HW189141   4.951  10.910  11.802
95748SOL    HW289142   5.003  10.860  11.669
95749SOL     OW89143   9.740   9.015   6.619
95749SOL    HW189144   9.651   8.980   6.623
95749SOL    HW289145   9.729   9.107   6.596
95750SOL     OW89146   1.481  11.045   9.059
95750SOL    HW189147   1.481  11.093   8.976
95750SOL    HW289148   1.506  11.109   9.124
95751SOL     OW89149  11.894   7.826  14.794
95751SOL    HW189150  11.830   7.768  14.835
95751SOL    HW289151  11.867   7.914  14.819
95752SOL     OW89152  13.181  10.662   4.272
95752SOL    HW189153  13.258  10.609   4.294
95752SOL    HW289154  13.138  10.614   4.201
95753SOL     OW89155   2.890   6.127   5.926
95753SOL    HW189156   2.850   6.093   6.006
95753SOL    HW289157   2.836   6.203   5.903
95754SOL     OW89158  10.701   1.388  13.434
95754SOL    HW189159  10.731   1.347  13.353
95754SOL    HW289160  10.623   1.338  13.459
95755SOL     OW89161   4.511  14.803   6.722
95755SOL    HW189162   4.442  14.743   6.694
95755SOL    HW289163   4.542  14.844   6.641
95756SOL     OW89164   1.641  11.788   1.988
95756SOL    HW189165   1.591  11.810   2.067
95756SOL    HW289166   1.581  11.808   1.916
95757SOL     OW89167   8.587   6.188   1.234
95757SOL    HW189168   8.681   6.190   1.214
95757SOL    HW289169   8.580   6.132   1.311
95758SOL     OW89170   0.743   5.278   7.349
95758SOL    HW189171   0.719   5.186   7.355
95758SOL    HW289172   0.665   5.325   7.378
95759SOL     OW89173   8.001   9.391   6.236
95759SOL    HW189174   7.970   9.356   6.319
95759SOL    HW289175   7.974   9.483   6.237
95760SOL     OW89176   7.688   8.540   1.448
95760SOL    HW189177   7.626   8.467   1.443
95760SOL    HW289178   7.773   8.502   1.427
95761SOL     OW89179   4.585   8.321   5.886
95761SOL    HW189180   4.535   8.384   5.939
95761SOL    HW289181   4.632   8.268   5.950
95762SOL     OW89182  11.879  12.328   9.386
95762SOL    HW189183  11.902  12.322   9.478
95762SOL    HW289184  11.962  12.323   9.339
95763SOL     OW89185   1.525  14.072  11.015
95763SOL    HW189186   1.448  14.059  11.069
95763SOL    HW289187   1.527  14.167  10.999
95764SOL     OW89188  13.368  14.153   3.212
95764SOL    HW189189  13.410  14.238   3.199
95764SOL    HW289190  13.332  14.157   3.301
95765SOL     OW89191  13.842   0.376   3.466
95765SOL    HW189192  13.905   0.447   3.454
95765SOL    HW289193  13.891   0.296   3.446
95766SOL     OW89194   3.438   8.401  12.398
95766SOL    HW189195   3.393   8.462  12.456
95766SOL    HW289196   3.459   8.326  12.454
95767SOL     OW89197   7.634  12.697  14.857
95767SOL    HW189198   7.541  12.691   0.005
95767SOL    HW289199   7.642  12.782  14.813
95768SOL     OW89200   7.107   3.092   8.647
95768SOL    HW189201   7.128   3.034   8.573
95768SOL    HW289202   7.167   3.064   8.717
95769SOL     OW89203   8.793   4.318   3.666
95769SOL    HW189204   8.853   4.277   3.728
95769SOL    HW289205   8.750   4.387   3.717
95770SOL     OW89206  11.101  12.711   5.374
95770SOL    HW189207  11.190  12.687   5.398
95770SOL    HW289208  11.046  12.645   5.417
95771SOL     OW89209   3.640  14.187  13.360
95771SOL    HW189210   3.650  14.217  13.450
95771SOL    HW289211   3.721  14.211  13.317
95772SOL     OW89212  14.431  10.772  14.111
95772SOL    HW189213  14.471  10.825  14.180
95772SOL    HW289214  14.352  10.736  14.151
95773SOL     OW89215   4.129  14.497  13.707
95773SOL    HW189216   4.169  14.579  13.679
95773SOL    HW289217   4.196  14.454  13.760
95774SOL     OW89218   2.806  12.597   8.514
95774SOL    HW189219   2.762  12.651   8.449
95774SOL    HW289220   2.791  12.642   8.597
95775SOL     OW89221   5.892   7.492   1.694
95775SOL    HW189222   5.821   7.429   1.706
95775SOL    HW289223   5.895   7.542   1.776
95776SOL     OW89224  12.652  13.947  10.262
95776SOL    HW189225  12.660  14.030  10.308
95776SOL    HW289226  12.592  13.964  10.190
95777SOL     OW89227  11.299  12.562   1.770
95777SOL    HW189228  11.300  12.479   1.819
95777SOL    HW289229  11.272  12.537   1.682
95778SOL     OW89230   7.851   7.015  13.614
95778SOL    HW189231   7.758   6.991  13.604
95778SOL    HW289232   7.852   7.110  13.601
95779SOL     OW89233  12.168  13.969   9.163
95779SOL    HW189234  12.209  14.012   9.238
95779SOL    HW289235  12.164  14.036   9.095
95780SOL     OW89236  14.239  10.902   9.906
95780SOL    HW189237  14.198  10.939   9.985
95780SOL    HW289238  14.183  10.932   9.834
95781SOL     OW89239   3.605   5.195   0.519
95781SOL    HW189240   3.570   5.207   0.430
95781SOL    HW289241   3.528   5.197   0.575
95782SOL     OW89242  14.699   1.121  14.471
95782SOL    HW189243  14.762   1.094  14.537
95782SOL    HW289244  14.750   1.124  14.390
95783SOL     OW89245   0.524   6.506  11.522
95783SOL    HW189246   0.600   6.460  11.557
95783SOL    HW289247   0.560   6.573  11.465
95784SOL     OW89248  13.632   3.446   8.129
95784SOL    HW189249  13.559   3.386   8.146
95784SOL    HW289250  13.668   3.464   8.216
95785SOL     OW89251   5.782  11.947   7.638
95785SOL    HW189252   5.873  11.962   7.665
95785SOL    HW289253   5.731  11.954   7.718
95786SOL     OW89254  10.294   3.928  13.017
95786SOL    HW189255  10.204   3.906  13.042
95786SOL    HW289256  10.346   3.854  13.050
95787SOL     OW89257   4.046   1.451   8.196
95787SOL    HW189258   4.089   1.529   8.230
95787SOL    HW289259   4.118   1.397   8.163
95788SOL     OW89260   2.239   2.950  11.074
95788SOL    HW189261   2.311   3.012  11.064
95788SOL    HW289262   2.161   2.998  11.046
95789SOL     OW89263   7.515   7.225  12.908
95789SOL    HW189264   7.445   7.290  12.922
95789SOL    HW289265   7.595   7.271  12.935
95790SOL     OW89266   3.404   6.341  10.148
95790SOL    HW189267   3.349   6.417  10.168
95790SOL    HW289268   3.350   6.286  10.091
95791SOL     OW89269  13.606   3.038  12.671
95791SOL    HW189270  13.699   3.063  12.669
95791SOL    HW289271  13.605   2.958  12.723
95792SOL     OW89272   5.390   4.015   9.275
95792SOL    HW189273   5.416   4.100   9.312
95792SOL    HW289274   5.424   3.951   9.337
95793SOL     OW89275   0.995   1.629   7.801
95793SOL    HW189276   1.019   1.693   7.868
95793SOL    HW289277   1.023   1.545   7.837
95794SOL     OW89278   6.227   5.899   7.681
95794SOL    HW189279   6.262   5.959   7.747
95794SOL    HW289280   6.148   5.863   7.721
95795SOL     OW89281   1.823  10.470   1.800
95795SOL    HW189282   1.807  10.479   1.706
95795SOL    HW289283   1.878  10.392   1.807
95796SOL     OW89284   9.779  12.982   7.041
95796SOL    HW189285   9.811  12.978   7.131
95796SOL    HW289286   9.791  13.073   7.015
95797SOL     OW89287   6.409   7.712  14.682
95797SOL    HW189288   6.320   7.689  14.706
95797SOL    HW289289   6.400   7.785  14.620
95798SOL     OW89290   9.458   8.602   4.295
95798SOL    HW189291   9.471   8.608   4.201
95798SOL    HW289292   9.487   8.514   4.318
95799SOL     OW89293   5.058  11.613  13.775
95799SOL    HW189294   5.125  11.678  13.755
95799SOL    HW289295   5.097  11.530  13.748
95800SOL     OW89296   0.351  12.932   7.024
95800SOL    HW189297   0.371  13.000   6.960
95800SOL    HW289298   0.341  12.979   7.107
95801SOL     OW89299   8.972  14.717  13.933
95801SOL    HW189300   8.974  14.682  13.844
95801SOL    HW289301   9.025  14.656  13.984
95802SOL     OW89302  14.598   4.813  12.877
95802SOL    HW189303  14.636   4.759  12.807
95802SOL    HW289304  14.539   4.872  12.831
95803SOL     OW89305  14.821   1.758   9.154
95803SOL    HW189306  14.756   1.801   9.098
95803SOL    HW289307  14.770   1.699   9.209
95804SOL     OW89308   4.416   6.960  14.069
95804SOL    HW189309   4.497   6.914  14.093
95804SOL    HW289310   4.424   7.045  14.112
95805SOL     OW89311   3.735   3.499   5.713
95805SOL    HW189312   3.730   3.587   5.678
95805SOL    HW289313   3.707   3.508   5.805
95806SOL     OW89314   2.466  13.843   6.788
95806SOL    HW189315   2.531  13.855   6.719
95806SOL    HW289316   2.419  13.926   6.791
95807SOL     OW89317   1.729  11.885   7.974
95807SOL    HW189318   1.713  11.900   8.068
95807SOL    HW289319   1.643  11.861   7.939
95808SOL     OW89320  10.601   4.559   7.469
95808SOL    HW189321  10.678   4.503   7.474
95808SOL    HW289322  10.533   4.504   7.429
95809SOL     OW89323   8.334  12.568  12.621
95809SOL    HW189324   8.407  12.566  12.682
95809SOL    HW289325   8.306  12.659  12.621
95810SOL     OW89326   4.543   2.319   6.161
95810SOL    HW189327   4.560   2.338   6.253
95810SOL    HW289328   4.523   2.226   6.158
95811SOL     OW89329  10.807   4.785   6.396
95811SOL    HW189330  10.783   4.759   6.485
95811SOL    HW289331  10.732   4.835   6.365
95812SOL     OW89332   7.362  13.843  12.353
95812SOL    HW189333   7.336  13.760  12.392
95812SOL    HW289334   7.458  13.838  12.348
95813SOL     OW89335  12.855   9.505  11.838
95813SOL    HW189336  12.886   9.553  11.761
95813SOL    HW289337  12.897   9.548  11.912
95814SOL     OW89338   2.502  10.642   8.219
95814SOL    HW189339   2.539  10.696   8.149
95814SOL    HW289340   2.462  10.568   8.172
95815SOL     OW89341   7.735   8.385  13.036
95815SOL    HW189342   7.765   8.473  13.062
95815SOL    HW289343   7.813   8.344  12.998
95816SOL     OW89344   4.373  14.587   2.711
95816SOL    HW189345   4.375  14.649   2.784
95816SOL    HW289346   4.447  14.613   2.656
95817SOL     OW89347   2.988  10.826   2.201
95817SOL    HW189348   3.035  10.799   2.280
95817SOL    HW289349   2.972  10.919   2.213
95818SOL     OW89350   6.924   7.286  13.214
95818SOL    HW189351   6.842   7.326  13.185
95818SOL    HW289352   6.910   7.192  13.203
95819SOL     OW89353   2.328  10.415  10.050
95819SOL    HW189354   2.281  10.490  10.014
95819SOL    HW289355   2.259  10.354  10.076
95820SOL     OW89356   0.744  11.395   0.126
95820SOL    HW189357   0.764  11.302   0.139
95820SOL    HW289358   0.717  11.401   0.034
95821SOL     OW89359  11.558  12.186   0.840
95821SOL    HW189360  11.502  12.201   0.764
95821SOL    HW289361  11.589  12.096   0.829
95822SOL     OW89362   1.331   4.046  10.446
95822SOL    HW189363   1.405   4.098  10.477
95822SOL    HW289364   1.316   4.076  10.356
95823SOL     OW89365  10.459  13.813  14.638
95823SOL    HW189366  10.503  13.781  14.717
95823SOL    HW289367  10.406  13.739  14.608
95824SOL     OW89368   8.353  11.910   6.129
95824SOL    HW189369   8.411  11.840   6.098
95824SOL    HW289370   8.306  11.938   6.050
95825SOL     OW89371   9.689   9.687   4.579
95825SOL    HW189372   9.693   9.744   4.656
95825SOL    HW289373   9.683   9.747   4.505
95826SOL     OW89374   9.240   9.437   9.581
95826SOL    HW189375   9.155   9.403   9.551
95826SOL    HW289376   9.291   9.359   9.600
95827SOL     OW89377   0.721   8.942  10.542
95827SOL    HW189378   0.775   9.010  10.583
95827SOL    HW289379   0.719   8.965  10.449
95828SOL     OW89380   9.250   7.266   0.553
95828SOL    HW189381   9.212   7.348   0.583
95828SOL    HW289382   9.236   7.265   0.458
95829SOL     OW89383  12.995   4.889   7.197
95829SOL    HW189384  13.071   4.936   7.232
95829SOL    HW289385  13.013   4.880   7.104
95830SOL     OW89386   8.307   3.771  14.835
95830SOL    HW189387   8.375   3.703  14.841
95830SOL    HW289388   8.309   3.815   0.044
95831SOL     OW89389   4.103   2.619  13.276
95831SOL    HW189390   4.100   2.582  13.188
95831SOL    HW289391   4.079   2.710  13.265
95832SOL     OW89392   1.317  13.378   5.030
95832SOL    HW189393   1.277  13.460   5.002
95832SOL    HW289394   1.247  13.332   5.076
95833SOL     OW89395   7.996   8.803   8.995
95833SOL    HW189396   8.025   8.863   8.926
95833SOL    HW289397   8.055   8.820   9.069
95834SOL     OW89398   3.247   3.119   0.713
95834SOL    HW189399   3.328   3.138   0.758
95834SOL    HW289400   3.193   3.197   0.725
95835SOL     OW89401   0.177   0.155  13.245
95835SOL    HW189402   0.227   0.092  13.194
95835SOL    HW289403   0.093   0.160  13.200
95836SOL     OW89404   2.609   3.453   4.058
95836SOL    HW189405   2.526   3.470   4.104
95836SOL    HW289406   2.614   3.522   3.992
95837SOL     OW89407  10.447  11.978  11.271
95837SOL    HW189408  10.510  11.951  11.338
95837SOL    HW289409  10.382  11.908  11.270
95838SOL     OW89410  11.563   2.048  10.192
95838SOL    HW189411  11.520   2.133  10.193
95838SOL    HW289412  11.511   1.994  10.251
95839SOL     OW89413   5.719   7.677   0.596
95839SOL    HW189414   5.649   7.654   0.535
95839SOL    HW289415   5.793   7.701   0.539
95840SOL     OW89416   6.790  14.337  10.220
95840SOL    HW189417   6.814  14.296  10.137
95840SOL    HW289418   6.744  14.268  10.268
95841SOL     OW89419  13.755   4.008   5.322
95841SOL    HW189420  13.742   4.082   5.264
95841SOL    HW289421  13.672   3.961   5.320
95842SOL     OW89422   1.621   9.433   6.508
95842SOL    HW189423   1.628   9.420   6.603
95842SOL    HW289424   1.639   9.526   6.495
95843SOL     OW89425   6.090   8.466   0.410
95843SOL    HW189426   6.144   8.493   0.484
95843SOL    HW289427   6.024   8.535   0.402
95844SOL     OW89428   1.351  11.559   6.633
95844SOL    HW189429   1.421  11.624   6.638
95844SOL    HW289430   1.328  11.542   6.725
95845SOL     OW89431   0.795   1.092   6.706
95845SOL    HW189432   0.777   1.126   6.793
95845SOL    HW289433   0.890   1.100   6.696
95846SOL     OW89434   7.223   6.542   5.935
95846SOL    HW189435   7.210   6.514   5.845
95846SOL    HW289436   7.135   6.549   5.972
95847SOL     OW89437   9.544  11.997   1.410
95847SOL    HW189438   9.577  11.992   1.500
95847SOL    HW289439   9.451  11.973   1.418
95848SOL     OW89440   4.936  14.550   6.161
95848SOL    HW189441   5.006  14.574   6.100
95848SOL    HW289442   4.949  14.608   6.236
95849SOL     OW89443   5.472   0.073   3.017
95849SOL    HW189444   5.511  14.864   3.043
95849SOL    HW289445   5.458   0.065   2.923
95850SOL     OW89446  12.994  10.842   2.056
95850SOL    HW189447  13.086  10.831   2.031
95850SOL    HW289448  12.960  10.903   1.991
95851SOL     OW89449   0.656   0.600   7.615
95851SOL    HW189450   0.565   0.613   7.639
95851SOL    HW289451   0.653   0.553   7.532
95852SOL     OW89452   9.245   0.990  10.584
95852SOL    HW189453   9.280   1.064  10.534
95852SOL    HW289454   9.311   0.972  10.651
95853SOL     OW89455   3.712   6.781   2.425
95853SOL    HW189456   3.738   6.862   2.383
95853SOL    HW289457   3.791   6.750   2.470
95854SOL     OW89458  10.032   4.689   7.728
95854SOL    HW189459  10.110   4.669   7.676
95854SOL    HW289460  10.065   4.708   7.816
95855SOL     OW89461   6.754  11.943   3.614
95855SOL    HW189462   6.690  11.873   3.601
95855SOL    HW289463   6.839  11.900   3.604
95856SOL     OW89464   2.015  12.789   8.054
95856SOL    HW189465   1.935  12.741   8.033
95856SOL    HW289466   1.997  12.829   8.139
95857SOL     OW89467   7.320  10.340   9.232
95857SOL    HW189468   7.255  10.406   9.258
95857SOL    HW289469   7.363  10.377   9.155
95858SOL     OW89470  10.360  12.453   3.143
95858SOL    HW189471  10.313  12.469   3.224
95858SOL    HW289472  10.421  12.382   3.164
95859SOL     OW89473   7.245   7.412   7.293
95859SOL    HW189474   7.231   7.500   7.258
95859SOL    HW289475   7.271   7.360   7.217
95860SOL     OW89476  11.614   5.380  10.854
95860SOL    HW189477  11.707   5.377  10.876
95860SOL    HW289478  11.611   5.404  10.762
95861SOL     OW89479   8.717  10.224   9.441
95861SOL    HW189480   8.765  10.302   9.469
95861SOL    HW289481   8.753  10.153   9.495
95862SOL     OW89482  12.616  14.426  12.755
95862SOL    HW189483  12.599  14.427  12.849
95862SOL    HW289484  12.678  14.498  12.742
95863SOL     OW89485   3.080   9.435   2.136
95863SOL    HW189486   3.159   9.435   2.083
95863SOL    HW289487   3.015   9.391   2.081
95864SOL     OW89488   0.575   0.460   2.009
95864SOL    HW189489   0.549   0.434   1.920
95864SOL    HW289490   0.653   0.513   1.996
95865SOL     OW89491   6.386   1.350   4.444
95865SOL    HW189492   6.455   1.286   4.462
95865SOL    HW289493   6.431   1.435   4.447
95866SOL     OW89494   2.442  10.024  14.621
95866SOL    HW189495   2.509   9.958  14.604
95866SOL    HW289496   2.445  10.039  14.715
95867SOL     OW89497   8.244   1.834   9.383
95867SOL    HW189498   8.220   1.819   9.475
95867SOL    HW289499   8.160   1.840   9.337
95868SOL     OW89500   5.436   4.225   6.978
95868SOL    HW189501   5.427   4.298   7.039
95868SOL    HW289502   5.358   4.230   6.922
95869SOL     OW89503   4.092   4.892   2.288
95869SOL    HW189504   4.067   4.983   2.270
95869SOL    HW289505   4.187   4.895   2.301
95870SOL     OW89506   7.258   4.715   3.855
95870SOL    HW189507   7.303   4.800   3.857
95870SOL    HW289508   7.329   4.651   3.858
95871SOL     OW89509  14.074   0.808   7.397
95871SOL    HW189510  14.111   0.801   7.309
95871SOL    HW289511  14.006   0.741   7.400
95872SOL     OW89512  12.984   0.025  13.718
95872SOL    HW189513  12.990   0.073  13.635
95872SOL    HW289514  13.039   0.074  13.779
95873SOL     OW89515  11.986   2.312   5.717
95873SOL    HW189516  11.915   2.344   5.661
95873SOL    HW289517  12.030   2.392   5.747
95874SOL     OW89518  14.797  12.446   8.403
95874SOL    HW189519  14.864  12.499   8.446
95874SOL    HW289520  14.729  12.435   8.469
95875SOL     OW89521   7.181   6.392   8.686
95875SOL    HW189522   7.177   6.446   8.765
95875SOL    HW289523   7.240   6.440   8.628
95876SOL     OW89524   2.865   9.991   9.624
95876SOL    HW189525   2.827  10.029   9.704
95876SOL    HW289526   2.789   9.969   9.570
95877SOL     OW89527   0.165   6.381  10.990
95877SOL    HW189528   0.150   6.426  10.907
95877SOL    HW289529   0.260   6.380  11.000
95878SOL     OW89530   7.192  13.932   0.347
95878SOL    HW189531   7.279  13.925   0.387
95878SOL    HW289532   7.204  13.901   0.257
95879SOL     OW89533   4.584   0.785   9.355
95879SOL    HW189534   4.620   0.837   9.428
95879SOL    HW289535   4.548   0.707   9.397
95880SOL     OW89536   5.918   0.544  13.669
95880SOL    HW189537   6.005   0.585  13.663
95880SOL    HW289538   5.917   0.501  13.754
95881SOL     OW89539  12.287   2.839   1.605
95881SOL    HW189540  12.219   2.775   1.580
95881SOL    HW289541  12.364   2.785   1.623
95882SOL     OW89542   7.228   2.011   2.450
95882SOL    HW189543   7.185   2.089   2.415
95882SOL    HW289544   7.266   2.040   2.533
95883SOL     OW89545   2.118   7.059   6.438
95883SOL    HW189546   2.101   6.988   6.500
95883SOL    HW289547   2.115   7.139   6.491
95884SOL     OW89548   9.480   1.169   8.184
95884SOL    HW189549   9.458   1.124   8.266
95884SOL    HW289550   9.502   1.258   8.211
95885SOL     OW89551   8.001   7.814   1.022
95885SOL    HW189552   7.975   7.787   1.110
95885SOL    HW289553   7.921   7.804   0.969
95886SOL     OW89554   7.170  12.028  14.076
95886SOL    HW189555   7.164  12.021  13.981
95886SOL    HW289556   7.234  11.962  14.101
95887SOL     OW89557   7.172   3.522   5.675
95887SOL    HW189558   7.089   3.555   5.708
95887SOL    HW289559   7.201   3.460   5.742
95888SOL     OW89560   6.624   6.147   2.290
95888SOL    HW189561   6.617   6.101   2.373
95888SOL    HW289562   6.605   6.081   2.224
95889SOL     OW89563  12.738  12.219  13.927
95889SOL    HW189564  12.702  12.168  13.999
95889SOL    HW289565  12.807  12.164  13.890
95890SOL     OW89566   6.591  13.067   2.965
95890SOL    HW189567   6.622  13.074   2.874
95890SOL    HW289568   6.496  13.067   2.958
95891SOL     OW89569   0.600   1.460   0.040
95891SOL    HW189570   0.555   1.545   0.041
95891SOL    HW289571   0.661   1.464   0.114
95892SOL     OW89572   7.662   6.430  14.145
95892SOL    HW189573   7.706   6.350  14.174
95892SOL    HW289574   7.568   6.409  14.149
95893SOL     OW89575  12.154   7.843   9.499
95893SOL    HW189576  12.126   7.900   9.570
95893SOL    HW289577  12.091   7.770   9.501
95894SOL     OW89578   1.670   1.051  13.811
95894SOL    HW189579   1.706   1.124  13.759
95894SOL    HW289580   1.706   1.065  13.899
95895SOL     OW89581   9.313   8.597   9.542
95895SOL    HW189582   9.217   8.592   9.538
95895SOL    HW289583   9.331   8.690   9.557
95896SOL     OW89584   7.752   1.928   1.654
95896SOL    HW189585   7.815   1.880   1.708
95896SOL    HW289586   7.791   2.014   1.642
95897SOL     OW89587   9.440   0.347  13.997
95897SOL    HW189588   9.368   0.409  13.982
95897SOL    HW289589   9.458   0.311  13.910
95898SOL     OW89590   5.752  10.426  13.421
95898SOL    HW189591   5.806  10.450  13.497
95898SOL    HW289592   5.695  10.502  13.408
95899SOL     OW89593   3.399   8.571   7.024
95899SOL    HW189594   3.406   8.566   7.120
95899SOL    HW289595   3.434   8.658   7.003
95900SOL     OW89596   7.427   8.774   2.553
95900SOL    HW189597   7.423   8.689   2.596
95900SOL    HW289598   7.336   8.802   2.545
95901SOL     OW89599  10.703   4.032   5.320
95901SOL    HW189600  10.700   3.958   5.260
95901SOL    HW289601  10.738   3.996   5.402
95902SOL     OW89602  13.469  11.193   3.102
95902SOL    HW189603  13.492  11.286   3.114
95902SOL    HW289604  13.406  11.175   3.172
95903SOL     OW89605  14.404   8.125   4.390
95903SOL    HW189606  14.384   8.131   4.483
95903SOL    HW289607  14.321   8.101   4.349
95904SOL     OW89608  10.052   6.297   9.219
95904SOL    HW189609  10.144   6.323   9.226
95904SOL    HW289610  10.044   6.222   9.278
95905SOL     OW89611   1.448   2.467   5.101
95905SOL    HW189612   1.526   2.520   5.085
95905SOL    HW289613   1.478   2.397   5.160
95906SOL     OW89614   1.882   2.509  11.737
95906SOL    HW189615   1.953   2.506  11.672
95906SOL    HW289616   1.861   2.602  11.744
95907SOL     OW89617  12.993   9.115  11.406
95907SOL    HW189618  13.046   9.123  11.485
95907SOL    HW289619  12.914   9.167  11.424
95908SOL     OW89620   1.606   6.881  11.235
95908SOL    HW189621   1.555   6.804  11.208
95908SOL    HW289622   1.621   6.929  11.153
95909SOL     OW89623   9.507  13.021   6.257
95909SOL    HW189624   9.517  12.926   6.266
95909SOL    HW289625   9.583  13.057   6.303
95910SOL     OW89626   5.546  13.447  11.177
95910SOL    HW189627   5.576  13.429  11.266
95910SOL    HW289628   5.494  13.527  11.185
95911SOL     OW89629   0.096   1.392   7.202
95911SOL    HW189630   0.061   1.452   7.137
95911SOL    HW289631   0.047   1.311   7.189
95912SOL     OW89632   3.268  14.618   8.045
95912SOL    HW189633   3.357  14.619   8.080
95912SOL    HW289634   3.213  14.596   8.121
95913SOL     OW89635   4.014  14.797   9.441
95913SOL    HW189636   4.059  14.839   9.368
95913SOL    HW289637   4.081  14.790   9.510
95914SOL     OW89638  10.978   0.311   0.425
95914SOL    HW189639  10.900   0.363   0.407
95914SOL    HW289640  10.976   0.242   0.358
95915SOL     OW89641   2.211   3.245   8.306
95915SOL    HW189642   2.262   3.177   8.262
95915SOL    HW289643   2.162   3.199   8.374
95916SOL     OW89644  13.005   6.103  12.230
95916SOL    HW189645  13.022   6.063  12.145
95916SOL    HW289646  13.081   6.080  12.283
95917SOL     OW89647   6.617   9.165   0.410
95917SOL    HW189648   6.584   9.255   0.411
95917SOL    HW289649   6.552   9.116   0.361
95918SOL     OW89650   1.132   7.058  13.053
95918SOL    HW189651   1.203   7.080  13.112
95918SOL    HW289652   1.161   6.979  13.007
95919SOL     OW89653   3.144  11.302  13.682
95919SOL    HW189654   3.056  11.298  13.719
95919SOL    HW289655   3.131  11.328  13.590
95920SOL     OW89656   6.896  12.570  12.338
95920SOL    HW189657   6.857  12.519  12.410
95920SOL    HW289658   6.830  12.566  12.268
95921SOL     OW89659   7.341  14.580   4.597
95921SOL    HW189660   7.370  14.671   4.588
95921SOL    HW289661   7.294  14.561   4.516
95922SOL     OW89662   2.506   2.164  11.046
95922SOL    HW189663   2.429   2.108  11.055
95922SOL    HW289664   2.575   2.115  11.091
95923SOL     OW89665   0.236  14.124   9.160
95923SOL    HW189666   0.272  14.151   9.244
95923SOL    HW289667   0.300  14.153   9.095
95924SOL     OW89668   7.081   2.219   4.034
95924SOL    HW189669   6.987   2.233   4.025
95924SOL    HW289670   7.103   2.257   4.119
95925SOL     OW89671   2.043  14.735   6.187
95925SOL    HW189672   2.095  14.767   6.261
95925SOL    HW289673   1.955  14.768   6.204
95926SOL     OW89674   2.457   5.770   9.917
95926SOL    HW189675   2.390   5.825   9.957
95926SOL    HW289676   2.454   5.688   9.967
95927SOL     OW89677   1.507  11.753  10.317
95927SOL    HW189678   1.440  11.698  10.277
95927SOL    HW289679   1.554  11.792  10.243
95928SOL     OW89680   6.507  13.916  11.751
95928SOL    HW189681   6.464  13.831  11.757
95928SOL    HW289682   6.568  13.907  11.678
95929SOL     OW89683  10.901   6.361   8.939
95929SOL    HW189684  10.817   6.332   8.903
95929SOL    HW289685  10.877   6.426   9.005
95930SOL     OW89686   2.740  13.986  11.055
95930SOL    HW189687   2.802  14.047  11.017
95930SOL    HW289688   2.680  14.041  11.106
95931SOL     OW89689   6.888   5.694   3.802
95931SOL    HW189690   6.801   5.660   3.781
95931SOL    HW289691   6.947   5.620   3.791
95932SOL     OW89692   5.960   4.563   7.768
95932SOL    HW189693   5.976   4.546   7.861
95932SOL    HW289694   5.865   4.557   7.758
95933SOL     OW89695  11.192   2.731  10.797
95933SOL    HW189696  11.125   2.786  10.755
95933SOL    HW289697  11.154   2.643  10.794
95934SOL     OW89698  13.500  14.650  13.762
95934SOL    HW189699  13.432  14.585  13.745
95934SOL    HW289700  13.557  14.646  13.685
95935SOL     OW89701   2.390   0.148   9.953
95935SOL    HW189702   2.431   0.078   9.902
95935SOL    HW289703   2.297   0.138   9.938
95936SOL     OW89704  11.448   2.970  13.446
95936SOL    HW189705  11.444   2.928  13.360
95936SOL    HW289706  11.395   2.914  13.502
95937SOL     OW89707  13.752   3.415   3.071
95937SOL    HW189708  13.794   3.350   3.014
95937SOL    HW289709  13.745   3.370   3.155
95938SOL     OW89710   1.983   7.447   2.264
95938SOL    HW189711   2.059   7.487   2.306
95938SOL    HW289712   1.986   7.356   2.294
95939SOL     OW89713   4.192   4.641  11.853
95939SOL    HW189714   4.124   4.647  11.920
95939SOL    HW289715   4.151   4.673  11.773
95940SOL     OW89716   5.004  10.192  11.442
95940SOL    HW189717   4.910  10.211  11.440
95940SOL    HW289718   5.016  10.144  11.524
95941SOL     OW89719  11.332   1.004   0.993
95941SOL    HW189720  11.331   0.909   0.979
95941SOL    HW289721  11.311   1.014   1.086
95942SOL     OW89722   4.083   9.818   2.578
95942SOL    HW189723   4.035   9.894   2.609
95942SOL    HW289724   4.175   9.840   2.590
95943SOL     OW89725   1.995  11.397   2.877
95943SOL    HW189726   2.031  11.384   2.964
95943SOL    HW289727   2.058  11.455   2.834
95944SOL     OW89728  12.333   8.959   1.217
95944SOL    HW189729  12.358   8.883   1.165
95944SOL    HW289730  12.353   9.034   1.161
95945SOL     OW89731   8.749  13.265  10.425
95945SOL    HW189732   8.722  13.317  10.501
95945SOL    HW289733   8.843  13.281  10.417
95946SOL     OW89734  11.460   5.796  10.125
95946SOL    HW189735  11.399   5.819  10.195
95946SOL    HW289736  11.483   5.705  10.143
95947SOL     OW89737  10.184  14.029   2.624
95947SOL    HW189738  10.146  13.950   2.663
95947SOL    HW289739  10.245  13.997   2.558
95948SOL     OW89740  10.655   8.424   9.323
95948SOL    HW189741  10.562   8.444   9.336
95948SOL    HW289742  10.656   8.333   9.291
95949SOL     OW89743  11.165  14.768   2.736
95949SOL    HW189744  11.133  14.707   2.670
95949SOL    HW289745  11.088  14.788   2.789
95950SOL     OW89746   8.998   5.965   2.897
95950SOL    HW189747   8.963   5.952   2.985
95950SOL    HW289748   8.926   6.005   2.848
95951SOL     OW89749   6.448   5.467   2.924
95951SOL    HW189750   6.521   5.514   2.964
95951SOL    HW289751   6.370   5.513   2.955
95952SOL     OW89752   2.684  12.753   8.309
95952SOL    HW189753   2.721  12.835   8.276
95952SOL    HW289754   2.590  12.763   8.295
95953SOL     OW89755   2.148  13.510   4.165
95953SOL    HW189756   2.127  13.575   4.098
95953SOL    HW289757   2.084  13.525   4.234
95954SOL     OW89758   6.794   3.576  14.507
95954SOL    HW189759   6.758   3.629  14.436
95954SOL    HW289760   6.733   3.589  14.580
95955SOL     OW89761   2.349   8.067   7.000
95955SOL    HW189762   2.286   8.083   6.930
95955SOL    HW289763   2.380   8.154   7.025
95956SOL     OW89764   4.627   2.111   5.570
95956SOL    HW189765   4.629   2.107   5.666
95956SOL    HW289766   4.535   2.123   5.548
95957SOL     OW89767   9.968   7.957   2.670
95957SOL    HW189768  10.064   7.957   2.664
95957SOL    HW289769   9.939   7.980   2.581
95958SOL     OW89770   5.294   5.419  13.909
95958SOL    HW189771   5.211   5.467  13.910
95958SOL    HW289772   5.285   5.356  13.837
95959SOL     OW89773   1.295  11.344   1.427
95959SOL    HW189774   1.367  11.316   1.484
95959SOL    HW289775   1.230  11.380   1.486
95960SOL     OW89776   3.129  14.643  14.794
95960SOL    HW189777   3.045  14.596  14.795
95960SOL    HW289778   3.174  14.609  14.717
95961SOL     OW89779   7.664  10.264   6.435
95961SOL    HW189780   7.624  10.228   6.355
95961SOL    HW289781   7.686  10.354   6.413
95962SOL     OW89782  10.446  14.706  11.218
95962SOL    HW189783  10.513  14.682  11.154
95962SOL    HW289784  10.494  14.741  11.293
95963SOL     OW89785   3.241   7.799   6.746
95963SOL    HW189786   3.154   7.826   6.718
95963SOL    HW289787   3.241   7.812   6.841
95964SOL     OW89788   5.438   7.210   7.020
95964SOL    HW189789   5.428   7.116   7.035
95964SOL    HW289790   5.415   7.222   6.928
95965SOL     OW89791   2.312   5.234   7.926
95965SOL    HW189792   2.401   5.265   7.909
95965SOL    HW289793   2.271   5.230   7.840
95966SOL     OW89794  14.229   2.583   4.887
95966SOL    HW189795  14.307   2.575   4.832
95966SOL    HW289796  14.170   2.514   4.855
95967SOL     OW89797   1.102   8.251   7.053
95967SOL    HW189798   1.095   8.336   7.009
95967SOL    HW289799   1.021   8.244   7.104
95968SOL     OW89800   7.452  10.820   7.740
95968SOL    HW189801   7.466  10.841   7.648
95968SOL    HW289802   7.358  10.803   7.747
95969SOL     OW89803   7.855   7.450   5.287
95969SOL    HW189804   7.884   7.359   5.286
95969SOL    HW289805   7.782   7.453   5.225
95970SOL     OW89806   1.803  11.345   6.434
95970SOL    HW189807   1.809  11.432   6.474
95970SOL    HW289808   1.855  11.352   6.353
95971SOL     OW89809  10.989   0.044   4.963
95971SOL    HW189810  11.053   0.078   5.026
95971SOL    HW289811  10.941   0.121   4.933
95972SOL     OW89812   0.329  12.023  13.710
95972SOL    HW189813   0.259  11.958  13.709
95972SOL    HW289814   0.294  12.094  13.763
95973SOL     OW89815  13.984  10.120   8.012
95973SOL    HW189816  13.946  10.062   8.078
95973SOL    HW289817  13.946  10.091   7.929
95974SOL     OW89818   4.347   1.300   6.014
95974SOL    HW189819   4.317   1.219   5.973
95974SOL    HW289820   4.328   1.290   6.107
95975SOL     OW89821   7.548   6.777   7.903
95975SOL    HW189822   7.464   6.731   7.898
95975SOL    HW289823   7.611   6.710   7.929
95976SOL     OW89824  14.510   1.219   8.916
95976SOL    HW189825  14.531   1.295   8.862
95976SOL    HW289826  14.589   1.203   8.968
95977SOL     OW89827   3.285  12.354   4.766
95977SOL    HW189828   3.195  12.370   4.740
95977SOL    HW289829   3.336  12.366   4.686
95978SOL     OW89830   8.636   4.780   2.080
95978SOL    HW189831   8.725   4.780   2.045
95978SOL    HW289832   8.639   4.842   2.153
95979SOL     OW89833   1.780   2.934  11.969
95979SOL    HW189834   1.782   3.029  11.968
95979SOL    HW289835   1.813   2.910  12.055
95980SOL     OW89836   0.921   8.439  14.647
95980SOL    HW189837   0.825   8.438  14.643
95980SOL    HW289838   0.943   8.527  14.678
95981SOL     OW89839  12.194  11.193  13.750
95981SOL    HW189840  12.119  11.137  13.772
95981SOL    HW289841  12.226  11.225  13.834
95982SOL     OW89842  10.990   8.728   7.026
95982SOL    HW189843  10.935   8.795   6.986
95982SOL    HW289844  10.976   8.738   7.120
95983SOL     OW89845   2.794   9.087   1.050
95983SOL    HW189846   2.757   9.174   1.068
95983SOL    HW289847   2.802   9.046   1.135
95984SOL     OW89848   5.796   3.039  11.456
95984SOL    HW189849   5.826   3.010  11.542
95984SOL    HW289850   5.701   3.043  11.464
95985SOL     OW89851  12.937   0.777  12.807
95985SOL    HW189852  12.982   0.833  12.870
95985SOL    HW289853  12.872   0.834  12.766
95986SOL     OW89854  13.720   9.734  10.073
95986SOL    HW189855  13.785   9.726  10.143
95986SOL    HW289856  13.748   9.671  10.007
95987SOL     OW89857   7.562   7.273   8.049
95987SOL    HW189858   7.600   7.197   8.004
95987SOL    HW289859   7.557   7.247   8.140
95988SOL     OW89860   4.784  12.157   1.861
95988SOL    HW189861   4.869  12.135   1.823
95988SOL    HW289862   4.771  12.249   1.837
95989SOL     OW89863   3.422  12.838   8.683
95989SOL    HW189864   3.482  12.763   8.687
95989SOL    HW289865   3.335  12.799   8.676
95990SOL     OW89866   0.246   7.778   8.800
95990SOL    HW189867   0.280   7.814   8.718
95990SOL    HW289868   0.256   7.684   8.791
95991SOL     OW89869   2.589  11.238   2.443
95991SOL    HW189870   2.556  11.305   2.383
95991SOL    HW289871   2.607  11.163   2.387
95992SOL     OW89872   4.239  10.345  14.142
95992SOL    HW189873   4.234  10.256  14.108
95992SOL    HW289874   4.206  10.337  14.232
95993SOL     OW89875  12.935   7.242  14.384
95993SOL    HW189876  12.878   7.292  14.442
95993SOL    HW289877  12.950   7.160  14.431
95994SOL     OW89878   7.798  10.451  11.950
95994SOL    HW189879   7.816  10.367  11.992
95994SOL    HW289880   7.765  10.428  11.863
95995SOL     OW89881   0.689   3.375  12.185
95995SOL    HW189882   0.642   3.366  12.268
95995SOL    HW289883   0.737   3.293  12.176
95996SOL     OW89884   9.030   2.099   9.123
95996SOL    HW189885   8.961   2.096   9.189
95996SOL    HW289886   9.081   2.177   9.144
95997SOL     OW89887   7.890  10.422  14.417
95997SOL    HW189888   7.889  10.410  14.322
95997SOL    HW289889   7.858  10.339  14.452
95998SOL     OW89890   6.628   3.792  11.249
95998SOL    HW189891   6.666   3.762  11.331
95998SOL    HW289892   6.595   3.880  11.269
95999SOL     OW89893   8.133  12.303  11.585
95999SOL    HW189894   8.132  12.366  11.656
95999SOL    HW289895   8.223  12.271  11.582
96000SOL     OW89896  10.995  12.698   7.482
96000SOL    HW189897  10.906  12.675   7.457
96000SOL    HW289898  11.025  12.760   7.416
96001SOL     OW89899   8.613  10.106  14.587
96001SOL    HW189900   8.606  10.197  14.617
96001SOL    HW289901   8.574  10.055  14.658
96002SOL     OW89902   1.871   1.327   1.296
96002SOL    HW189903   1.933   1.371   1.354
96002SOL    HW289904   1.813   1.280   1.355
96003SOL     OW89905  11.885   1.977   7.744
96003SOL    HW189906  11.893   1.903   7.684
96003SOL    HW289907  11.872   1.938   7.830
96004SOL     OW89908  12.219   3.033   7.763
96004SOL    HW189909  12.261   3.113   7.731
96004SOL    HW289910  12.134   3.062   7.794
96005SOL     OW89911   0.978  12.151   6.509
96005SOL    HW189912   0.978  12.080   6.445
96005SOL    HW289913   0.929  12.222   6.466
96006SOL     OW89914   9.760   8.498  11.734
96006SOL    HW189915   9.741   8.404  11.736
96006SOL    HW289916   9.855   8.503  11.744
96007SOL     OW89917  11.657   1.984   2.682
96007SOL    HW189918  11.606   2.050   2.634
96007SOL    HW289919  11.645   1.904   2.632
96008SOL     OW89920  13.911  13.343   5.856
96008SOL    HW189921  13.945  13.303   5.936
96008SOL    HW289922  13.884  13.269   5.802
96009SOL     OW89923   7.689   9.308   2.164
96009SOL    HW189924   7.720   9.274   2.080
96009SOL    HW289925   7.706   9.237   2.226
96010SOL     OW89926   8.551  12.101   6.183
96010SOL    HW189927   8.615  12.050   6.134
96010SOL    HW289928   8.479  12.040   6.200
96011SOL     OW89929  14.582   0.984   9.906
96011SOL    HW189930  14.658   0.959   9.854
96011SOL    HW289931  14.567   1.076   9.883
96012SOL     OW89932   5.898   1.777  12.709
96012SOL    HW189933   5.884   1.861  12.753
96012SOL    HW289934   5.993   1.770  12.701
96013SOL     OW89935  13.513   7.866   5.674
96013SOL    HW189936  13.513   7.798   5.606
96013SOL    HW289937  13.544   7.944   5.629
96014SOL     OW89938   9.901  10.769  10.177
96014SOL    HW189939   9.952  10.746  10.100
96014SOL    HW289940   9.964  10.807  10.238
96015SOL     OW89941  13.931   3.358  10.359
96015SOL    HW189942  13.857   3.319  10.314
96015SOL    HW289943  13.992   3.382  10.289
96016SOL     OW89944  14.199   6.340  12.589
96016SOL    HW189945  14.172   6.253  12.557
96016SOL    HW289946  14.117   6.387  12.603
96017SOL     OW89947  11.162   4.020   0.319
96017SOL    HW189948  11.099   4.057   0.259
96017SOL    HW289949  11.115   3.950   0.365
96018SOL     OW89950   6.695  14.561   3.023
96018SOL    HW189951   6.662  14.563   3.113
96018SOL    HW289952   6.698  14.653   2.997
96019SOL     OW89953  10.362   7.649   7.373
96019SOL    HW189954  10.424   7.670   7.443
96019SOL    HW289955  10.374   7.719   7.308
96020SOL     OW89956  12.142  10.250   0.620
96020SOL    HW189957  12.219  10.293   0.658
96020SOL    HW289958  12.082  10.240   0.694
96021SOL     OW89959  13.795   4.818   5.816
96021SOL    HW189960  13.705   4.797   5.788
96021SOL    HW289961  13.823   4.887   5.756
96022SOL     OW89962   7.452   6.118   4.688
96022SOL    HW189963   7.492   6.074   4.764
96022SOL    HW289964   7.522   6.124   4.624
96023SOL     OW89965   7.748   6.710   2.134
96023SOL    HW189966   7.697   6.668   2.064
96023SOL    HW289967   7.710   6.674   2.215
96024SOL     OW89968   8.170  10.770   7.511
96024SOL    HW189969   8.266  10.766   7.513
96024SOL    HW289970   8.142  10.679   7.507
96025SOL     OW89971  11.657  12.943  11.118
96025SOL    HW189972  11.583  12.896  11.157
96025SOL    HW289973  11.733  12.911  11.167
96026SOL     OW89974   0.948  13.677   6.405
96026SOL    HW189975   0.904  13.626   6.472
96026SOL    HW289976   1.001  13.614   6.356
96027SOL     OW89977  12.224   1.409   7.242
96027SOL    HW189978  12.180   1.479   7.290
96027SOL    HW289979  12.160   1.337   7.240
96028SOL     OW89980   5.165  11.833   6.260
96028SOL    HW189981   5.232  11.792   6.316
96028SOL    HW289982   5.121  11.759   6.218
96029SOL     OW89983  10.437  11.382   6.619
96029SOL    HW189984  10.410  11.413   6.532
96029SOL    HW289985  10.457  11.289   6.605
96030SOL     OW89986   0.888   0.963   5.838
96030SOL    HW189987   0.808   1.004   5.873
96030SOL    HW289988   0.927   1.030   5.783
96031SOL     OW89989  11.055   6.682   8.553
96031SOL    HW189990  11.009   6.624   8.492
96031SOL    HW289991  10.990   6.747   8.578
96032SOL     OW89992   4.647   8.010   0.150
96032SOL    HW189993   4.663   7.942   0.215
96032SOL    HW289994   4.555   7.999   0.125
96033SOL     OW89995  14.254   1.070  13.852
96033SOL    HW189996  14.265   0.999  13.915
96033SOL    HW289997  14.324   1.132  13.874
96034SOL     OW89998   2.819  12.652  14.199
96034SOL    HW189999   2.912  12.637  14.218
96034SOL    HW290000   2.814  12.659  14.104
96035SOL     OW90001  10.350  14.344   4.261
96035SOL    HW190002  10.382  14.335   4.351
96035SOL    HW290003  10.425  14.381   4.214
96036SOL     OW90004   0.161   5.234   7.152
96036SOL    HW190005   0.218   5.157   7.159
96036SOL    HW290006   0.214   5.306   7.185
96037SOL     OW90007   1.936   0.637   7.184
96037SOL    HW190008   2.004   0.607   7.124
96037SOL    HW290009   1.967   0.608   7.270
96038SOL     OW90010   1.263   7.935   8.305
96038SOL    HW190011   1.329   8.004   8.299
96038SOL    HW290012   1.199   7.967   8.368
96039SOL     OW90013   0.981   2.171  10.438
96039SOL    HW190014   1.031   2.096  10.408
96039SOL    HW290015   0.894   2.158  10.400
96040SOL     OW90016  13.328   6.479   0.823
96040SOL    HW190017  13.287   6.507   0.904
96040SOL    HW290018  13.420   6.507   0.831
96041SOL     OW90019  14.272   2.629  10.997
96041SOL    HW190020  14.297   2.702  11.053
96041SOL    HW290021  14.265   2.667  10.909
96042SOL     OW90022   2.682   3.132   3.013
96042SOL    HW190023   2.698   3.187   3.089
96042SOL    HW290024   2.603   3.082   3.036
96043SOL     OW90025   3.691   4.893   7.413
96043SOL    HW190026   3.640   4.869   7.336
96043SOL    HW290027   3.636   4.956   7.459
96044SOL     OW90028  10.861  12.075   7.625
96044SOL    HW190029  10.788  12.013   7.614
96044SOL    HW290030  10.820  12.154   7.661
96045SOL     OW90031   0.027   1.490   9.776
96045SOL    HW190032  14.852   1.570   9.791
96045SOL    HW290033  14.836   1.422   9.763
96046SOL     OW90034   5.567   7.098   9.539
96046SOL    HW190035   5.550   7.145   9.457
96046SOL    HW290036   5.623   7.157   9.589
96047SOL     OW90037   6.007  10.275   2.575
96047SOL    HW190038   5.958  10.211   2.524
96047SOL    HW290039   6.095  10.275   2.536
96048SOL     OW90040   7.294   8.003   2.232
96048SOL    HW190041   7.202   8.014   2.258
96048SOL    HW290042   7.337   8.083   2.261
96049SOL     OW90043   5.808   0.064   8.045
96049SOL    HW190044   5.839   0.027   7.962
96049SOL    HW290045   5.785   0.155   8.024
96050SOL     OW90046   3.482  13.504   6.733
96050SOL    HW190047   3.394  13.470   6.720
96050SOL    HW290048   3.539  13.427   6.727
96051SOL     OW90049  13.752  12.008   4.237
96051SOL    HW190050  13.662  11.985   4.257
96051SOL    HW290051  13.804  11.954   4.296
96052SOL     OW90052   1.270  11.540  13.947
96052SOL    HW190053   1.329  11.473  13.912
96052SOL    HW290054   1.286  11.539  14.042
96053SOL     OW90055  10.977   0.785   4.367
96053SOL    HW190056  11.048   0.767   4.428
96053SOL    HW290057  10.992   0.875   4.339
96054SOL     OW90058   0.055  14.809   5.651
96054SOL    HW190059  14.864  14.751   5.691
96054SOL    HW290060   0.038  14.803   5.557
96055SOL     OW90061  11.167   0.025   3.625
96055SOL    HW190062  11.108  14.865   3.559
96055SOL    HW290063  11.110   0.058   3.694
96056SOL     OW90064  13.974   1.551   7.463
96056SOL    HW190065  13.880   1.568   7.462
96056SOL    HW290066  13.981   1.457   7.481
96057SOL     OW90067   6.627   3.818   7.156
96057SOL    HW190068   6.572   3.757   7.107
96057SOL    HW290069   6.681   3.763   7.212
96058SOL     OW90070   3.588  11.286   1.723
96058SOL    HW190071   3.513  11.333   1.687
96058SOL    HW290072   3.651  11.354   1.746
96059SOL     OW90073  14.079  11.901   5.209
96059SOL    HW190074  14.016  11.870   5.274
96059SOL    HW290075  14.134  11.825   5.190
96060SOL     OW90076  11.958   2.262   1.856
96060SOL    HW190077  11.979   2.306   1.774
96060SOL    HW290078  11.937   2.172   1.831
96061SOL     OW90079   7.691  12.131   3.107
96061SOL    HW190080   7.612  12.181   3.127
96061SOL    HW290081   7.729  12.174   3.031
96062SOL     OW90082   1.398   3.349  12.778
96062SOL    HW190083   1.386   3.405  12.701
96062SOL    HW290084   1.401   3.260  12.744
96063SOL     OW90085   3.447   8.813  13.037
96063SOL    HW190086   3.430   8.722  13.060
96063SOL    HW290087   3.372   8.838  12.983
96064SOL     OW90088   8.279   9.361   8.180
96064SOL    HW190089   8.297   9.398   8.094
96064SOL    HW290090   8.319   9.274   8.177
96065SOL     OW90091  11.416   8.791   7.151
96065SOL    HW190092  11.388   8.772   7.240
96065SOL    HW290093  11.373   8.873   7.129
96066SOL     OW90094  12.452  12.307   6.569
96066SOL    HW190095  12.444  12.240   6.501
96066SOL    HW290096  12.402  12.272   6.642
96067SOL     OW90097   1.845  13.808   9.530
96067SOL    HW190098   1.923  13.857   9.554
96067SOL    HW290099   1.786  13.872   9.491
96068SOL     OW90100   0.543   5.619   5.661
96068SOL    HW190101   0.600   5.548   5.632
96068SOL    HW290102   0.458   5.600   5.622
96069SOL     OW90103  12.617   6.874   4.222
96069SOL    HW190104  12.600   6.789   4.182
96069SOL    HW290105  12.561   6.935   4.172
96070SOL     OW90106  10.351   1.479   3.428
96070SOL    HW190107  10.386   1.480   3.517
96070SOL    HW290108  10.269   1.528   3.434
96071SOL     OW90109  13.740  12.482   6.324
96071SOL    HW190110  13.666  12.422   6.332
96071SOL    HW290111  13.808  12.430   6.280
96072SOL     OW90112   5.741   8.485  14.430
96072SOL    HW190113   5.716   8.432  14.506
96072SOL    HW290114   5.718   8.574  14.455
96073SOL     OW90115  13.433  10.619  13.469
96073SOL    HW190116  13.432  10.712  13.444
96073SOL    HW290117  13.517  10.608  13.513
96074SOL     OW90118  14.451  12.504   8.234
96074SOL    HW190119  14.533  12.478   8.190
96074SOL    HW290120  14.421  12.580   8.184
96075SOL     OW90121   8.275   9.508  14.740
96075SOL    HW190122   8.352   9.488  14.793
96075SOL    HW290123   8.211   9.542  14.803
96076SOL     OW90124   1.667   7.454   1.986
96076SOL    HW190125   1.677   7.362   1.963
96076SOL    HW290126   1.757   7.485   2.002
96077SOL     OW90127  10.790  13.792  11.564
96077SOL    HW190128  10.858  13.857  11.581
96077SOL    HW290129  10.721  13.841  11.520
96078SOL     OW90130   9.509   6.795   3.445
96078SOL    HW190131   9.579   6.779   3.382
96078SOL    HW290132   9.460   6.869   3.408
96079SOL     OW90133  13.859   0.281   5.089
96079SOL    HW190134  13.769   0.309   5.073
96079SOL    HW290135  13.902   0.357   5.128
96080SOL     OW90136  13.699  13.553  10.779
96080SOL    HW190137  13.643  13.513  10.712
96080SOL    HW290138  13.785  13.514  10.766
96081SOL     OW90139   5.011   9.392  13.348
96081SOL    HW190140   5.102   9.421  13.357
96081SOL    HW290141   4.965   9.468  13.312
96082SOL     OW90142   7.694  10.410   0.533
96082SOL    HW190143   7.744  10.343   0.579
96082SOL    HW290144   7.753  10.486   0.531
96083SOL     OW90145   6.748   3.012  12.154
96083SOL    HW190146   6.792   2.998  12.238
96083SOL    HW290147   6.666   2.963  12.161
96084SOL     OW90148   0.006   1.200  11.155
96084SOL    HW190149  14.792   1.163  11.153
96084SOL    HW290150   0.017   1.230  11.245
96085SOL     OW90151   2.795  10.619   3.026
96085SOL    HW190152   2.753  10.564   3.092
96085SOL    HW290153   2.880  10.579   3.012
96086SOL     OW90154   4.876   2.215   8.359
96086SOL    HW190155   4.851   2.305   8.338
96086SOL    HW290156   4.966   2.208   8.327
96087SOL     OW90157  13.333   9.026   6.764
96087SOL    HW190158  13.332   8.948   6.709
96087SOL    HW290159  13.269   9.007   6.833
96088SOL     OW90160  13.433   3.795   0.849
96088SOL    HW190161  13.524   3.792   0.820
96088SOL    HW290162  13.395   3.867   0.798
96089SOL     OW90163  10.264   9.313  13.529
96089SOL    HW190164  10.251   9.407  13.516
96089SOL    HW290165  10.265   9.303  13.625
96090SOL     OW90166  14.097   2.900   6.454
96090SOL    HW190167  14.169   2.874   6.397
96090SOL    HW290168  14.133   2.969   6.509
96091SOL     OW90169   7.440   7.235   8.293
96091SOL    HW190170   7.445   7.151   8.340
96091SOL    HW290171   7.477   7.299   8.354
96092SOL     OW90172   7.555   9.506   6.373
96092SOL    HW190173   7.499   9.430   6.357
96092SOL    HW290174   7.527   9.569   6.307
96093SOL     OW90175  14.369   1.832   1.902
96093SOL    HW190176  14.362   1.922   1.871
96093SOL    HW290177  14.397   1.840   1.993
96094SOL     OW90178  11.905  12.581   9.260
96094SOL    HW190179  11.863  12.509   9.308
96094SOL    HW290180  11.873  12.572   9.170
96095SOL     OW90181   0.378   1.711   8.938
96095SOL    HW190182   0.332   1.649   8.882
96095SOL    HW290183   0.346   1.692   9.026
96096SOL     OW90184   5.383  12.680  12.306
96096SOL    HW190185   5.461  12.730  12.328
96096SOL    HW290186   5.338  12.733  12.240
96097SOL     OW90187  10.512   6.421   6.959
96097SOL    HW190188  10.469   6.407   7.043
96097SOL    HW290189  10.514   6.335   6.918
96098SOL     OW90190  11.226   6.207   0.591
96098SOL    HW190191  11.224   6.117   0.560
96098SOL    HW290192  11.268   6.203   0.677
96099SOL     OW90193  11.811   8.289  14.298
96099SOL    HW190194  11.786   8.264  14.209
96099SOL    HW290195  11.903   8.264  14.306
96100SOL     OW90196   0.969   3.083   2.262
96100SOL    HW190197   0.955   3.176   2.279
96100SOL    HW290198   0.890   3.040   2.295
96101SOL     OW90199   3.073   7.699   6.360
96101SOL    HW190200   3.034   7.627   6.409
96101SOL    HW290201   3.167   7.683   6.364
96102SOL     OW90202   4.867   2.424   5.137
96102SOL    HW190203   4.929   2.361   5.172
96102SOL    HW290204   4.782   2.397   5.173
96103SOL     OW90205  12.942  11.000   6.545
96103SOL    HW190206  12.947  11.034   6.635
96103SOL    HW290207  13.022  10.950   6.534
96104SOL     OW90208   8.367  10.451   1.422
96104SOL    HW190209   8.410  10.374   1.384
96104SOL    HW290210   8.273  10.434   1.412
96105SOL     OW90211   6.691   7.579   2.187
96105SOL    HW190212   6.724   7.534   2.109
96105SOL    HW290213   6.769   7.595   2.240
96106SOL     OW90214   1.870   3.072   1.810
96106SOL    HW190215   1.833   3.069   1.722
96106SOL    HW290216   1.918   2.990   1.820
96107SOL     OW90217   6.334   9.130   4.877
96107SOL    HW190218   6.349   9.145   4.971
96107SOL    HW290219   6.413   9.165   4.835
96108SOL     OW90220   6.902   4.518   3.886
96108SOL    HW190221   6.938   4.476   3.965
96108SOL    HW290222   6.856   4.595   3.919
96109SOL     OW90223   4.778   5.665   0.473
96109SOL    HW190224   4.687   5.644   0.451
96109SOL    HW290225   4.810   5.713   0.396
96110SOL     OW90226   5.204   9.662   4.552
96110SOL    HW190227   5.168   9.574   4.563
96110SOL    HW290228   5.236   9.686   4.639
96111SOL     OW90229   8.662   9.319   6.481
96111SOL    HW190230   8.677   9.234   6.440
96111SOL    HW290231   8.598   9.301   6.550
96112SOL     OW90232   7.197  11.945   1.060
96112SOL    HW190233   7.248  11.996   1.123
96112SOL    HW290234   7.188  11.859   1.101
96113SOL     OW90235   1.639   5.034   0.900
96113SOL    HW190236   1.658   5.127   0.888
96113SOL    HW290237   1.647   4.996   0.812
96114SOL     OW90238  10.966  10.932  10.807
96114SOL    HW190239  10.965  11.025  10.782
96114SOL    HW290240  11.039  10.895  10.757
96115SOL     OW90241   2.250  12.649   7.959
96115SOL    HW190242   2.218  12.576   7.906
96115SOL    HW290243   2.172  12.696   7.987
96116SOL     OW90244  12.236  12.746   5.668
96116SOL    HW190245  12.147  12.712   5.663
96116SOL    HW290246  12.287  12.675   5.707
96117SOL     OW90247   0.749   4.145   6.414
96117SOL    HW190248   0.736   4.095   6.495
96117SOL    HW290249   0.665   4.140   6.369
96118SOL     OW90250  12.559   9.447  13.628
96118SOL    HW190251  12.583   9.355  13.616
96118SOL    HW290252  12.599   9.492  13.553
96119SOL     OW90253   5.784  10.245  12.714
96119SOL    HW190254   5.788  10.297  12.634
96119SOL    HW290255   5.866  10.266  12.759
96120SOL     OW90256  13.751  12.531  14.854
96120SOL    HW190257  13.783  12.512   0.066
96120SOL    HW290258  13.717  12.621  14.859
96121SOL     OW90259   4.397   9.412   6.079
96121SOL    HW190260   4.349   9.461   6.012
96121SOL    HW290261   4.391   9.466   6.157
96122SOL     OW90262  12.111  10.564   7.762
96122SOL    HW190263  12.029  10.602   7.730
96122SOL    HW290264  12.141  10.508   7.690
96123SOL     OW90265   4.277  12.442   7.014
96123SOL    HW190266   4.290  12.359   6.968
96123SOL    HW290267   4.229  12.419   7.093
96124SOL     OW90268   9.089   6.241  14.124
96124SOL    HW190269   9.094   6.188  14.204
96124SOL    HW290270   9.100   6.178  14.053
96125SOL     OW90271   8.476   8.384   7.895
96125SOL    HW190272   8.533   8.313   7.865
96125SOL    HW290273   8.536   8.445   7.938
96126SOL     OW90274  12.185   5.598  11.512
96126SOL    HW190275  12.272   5.604  11.472
96126SOL    HW290276  12.157   5.689  11.520
96127SOL     OW90277   1.456   8.578   8.962
96127SOL    HW190278   1.444   8.649   9.025
96127SOL    HW290279   1.411   8.609   8.883
96128SOL     OW90280   8.483  10.891   0.802
96128SOL    HW190281   8.566  10.913   0.760
96128SOL    HW290282   8.428  10.857   0.731
96129SOL     OW90283   2.308   2.074   7.385
96129SOL    HW190284   2.280   2.098   7.297
96129SOL    HW290285   2.401   2.054   7.376
96130SOL     OW90286   9.836   7.430   4.294
96130SOL    HW190287   9.844   7.351   4.348
96130SOL    HW290288   9.744   7.431   4.268
96131SOL     OW90289   0.456   4.994  14.452
96131SOL    HW190290   0.405   4.989  14.371
96131SOL    HW290291   0.541   4.955  14.430
96132SOL     OW90292  13.175  13.392  14.441
96132SOL    HW190293  13.257  13.395  14.392
96132SOL    HW290294  13.117  13.338  14.388
96133SOL     OW90295  12.040   7.337  12.057
96133SOL    HW190296  12.125   7.364  12.023
96133SOL    HW290297  12.008   7.413  12.105
96134SOL     OW90298   5.845  13.415  11.461
96134SOL    HW190299   5.861  13.358  11.536
96134SOL    HW290300   5.750  13.427  11.460
96135SOL     OW90301   0.609   7.612   6.160
96135SOL    HW190302   0.574   7.559   6.231
96135SOL    HW290303   0.562   7.583   6.082
96136SOL     OW90304   8.204   8.709   1.543
96136SOL    HW190305   8.258   8.654   1.600
96136SOL    HW290306   8.119   8.712   1.587
96137SOL     OW90307   0.456  14.374  14.463
96137SOL    HW190308   0.458  14.295  14.517
96137SOL    HW290309   0.476  14.344  14.375
96138SOL     OW90310   3.822   3.359   9.089
96138SOL    HW190311   3.821   3.453   9.103
96138SOL    HW290312   3.882   3.346   9.015
96139SOL     OW90313   1.173   3.156   1.848
96139SOL    HW190314   1.184   3.080   1.791
96139SOL    HW290315   1.186   3.231   1.791
96140SOL     OW90316  13.403   9.441   1.222
96140SOL    HW190317  13.419   9.347   1.217
96140SOL    HW290318  13.355   9.453   1.304
96141SOL     OW90319   2.856   1.178   0.971
96141SOL    HW190320   2.847   1.180   1.066
96141SOL    HW290321   2.918   1.248   0.951
96142SOL     OW90322   3.793   9.160   4.350
96142SOL    HW190323   3.752   9.182   4.434
96142SOL    HW290324   3.743   9.086   4.317
96143SOL     OW90325   3.382   0.393   6.001
96143SOL    HW190326   3.395   0.482   6.033
96143SOL    HW290327   3.335   0.348   6.071
96144SOL     OW90328   1.979  11.833  14.122
96144SOL    HW190329   2.010  11.912  14.168
96144SOL    HW290330   1.886  11.829  14.143
96145SOL     OW90331   4.504  12.880   2.765
96145SOL    HW190332   4.555  12.941   2.818
96145SOL    HW290333   4.564  12.852   2.696
96146SOL     OW90334   4.850   1.739   2.765
96146SOL    HW190335   4.822   1.824   2.733
96146SOL    HW290336   4.903   1.702   2.694
96147SOL     OW90337   1.412   2.498   6.230
96147SOL    HW190338   1.329   2.454   6.248
96147SOL    HW290339   1.421   2.563   6.300
96148SOL     OW90340   7.370  11.248   5.340
96148SOL    HW190341   7.415  11.168   5.368
96148SOL    HW290342   7.281  11.220   5.320
96149SOL     OW90343   3.858  12.984   1.507
96149SOL    HW190344   3.813  13.042   1.569
96149SOL    HW290345   3.789  12.953   1.449
96150SOL     OW90346   5.863   8.205   6.849
96150SOL    HW190347   5.941   8.261   6.849
96150SOL    HW290348   5.826   8.216   6.936
96151SOL     OW90349  13.583   1.473  12.585
96151SOL    HW190350  13.609   1.413  12.514
96151SOL    HW290351  13.648   1.458  12.654
96152SOL     OW90352   1.470  13.831   1.871
96152SOL    HW190353   1.479  13.867   1.959
96152SOL    HW290354   1.492  13.739   1.881
96153SOL     OW90355  12.320   2.024   8.129
96153SOL    HW190356  12.336   1.948   8.073
96153SOL    HW290357  12.236   2.004   8.172
96154SOL     OW90358   0.422   5.054   5.419
96154SOL    HW190359   0.474   4.997   5.477
96154SOL    HW290360   0.420   5.007   5.336
96155SOL     OW90361   3.218   2.581   9.308
96155SOL    HW190362   3.264   2.655   9.347
96155SOL    HW290363   3.227   2.511   9.372
96156SOL     OW90364   1.935  13.921  14.531
96156SOL    HW190365   1.981  13.984  14.475
96156SOL    HW290366   1.954  13.951  14.620
96157SOL     OW90367  11.531  10.733   1.060
96157SOL    HW190368  11.436  10.745   1.066
96157SOL    HW290369  11.565  10.770   1.141
96158SOL     OW90370   3.857   1.312   8.344
96158SOL    HW190371   3.934   1.277   8.388
96158SOL    HW290372   3.892   1.367   8.274
96159SOL     OW90373  11.429   3.798   2.823
96159SOL    HW190374  11.369   3.872   2.833
96159SOL    HW290375  11.444   3.792   2.729
96160SOL     OW90376  10.701  11.474  14.196
96160SOL    HW190377  10.679  11.562  14.227
96160SOL    HW290378  10.767  11.443  14.257
96161SOL     OW90379   5.799   7.781   9.875
96161SOL    HW190380   5.774   7.851   9.815
96161SOL    HW290381   5.763   7.702   9.834
96162SOL     OW90382   1.006   7.072   2.205
96162SOL    HW190383   0.927   7.019   2.195
96162SOL    HW290384   1.048   7.068   2.119
96163SOL     OW90385   7.455  11.439   1.306
96163SOL    HW190386   7.485  11.380   1.237
96163SOL    HW290387   7.492  11.404   1.387
96164SOL     OW90388   7.501  13.842   0.099
96164SOL    HW190389   7.566  13.865   0.032
96164SOL    HW290390   7.417  13.867   0.060
96165SOL     OW90391   4.579   5.490   5.244
96165SOL    HW190392   4.566   5.422   5.178
96165SOL    HW290393   4.576   5.443   5.327
96166SOL     OW90394   9.089   4.727   6.713
96166SOL    HW190395   9.041   4.659   6.760
96166SOL    HW290396   9.151   4.762   6.778
96167SOL     OW90397   5.765   4.557  12.242
96167SOL    HW190398   5.707   4.609  12.186
96167SOL    HW290399   5.801   4.619  12.305
96168SOL     OW90400   4.017   3.346   9.322
96168SOL    HW190401   3.941   3.337   9.265
96168SOL    HW290402   4.089   3.371   9.264
96169SOL     OW90403   3.822   6.679   3.030
96169SOL    HW190404   3.776   6.739   2.972
96169SOL    HW290405   3.802   6.710   3.118
96170SOL     OW90406  11.040   1.642  12.849
96170SOL    HW190407  11.129   1.673  12.834
96170SOL    HW290408  11.019   1.592  12.771
96171SOL     OW90409   5.904   7.822  11.841
96171SOL    HW190410   5.839   7.892  11.834
96171SOL    HW290411   5.974   7.848  11.781
96172SOL     OW90412   2.984   9.987   5.762
96172SOL    HW190413   2.903   9.937   5.770
96172SOL    HW290414   3.053   9.923   5.785
96173SOL     OW90415   2.395   4.424   1.813
96173SOL    HW190416   2.321   4.477   1.841
96173SOL    HW290417   2.361   4.371   1.741
96174SOL     OW90418   0.371  14.485  14.020
96174SOL    HW190419   0.426  14.551  13.977
96174SOL    HW290420   0.431  14.433  14.073
96175SOL     OW90421   1.325   9.920   4.074
96175SOL    HW190422   1.406   9.971   4.069
96175SOL    HW290423   1.269   9.958   4.006
96176SOL     OW90424   1.850   0.405   0.225
96176SOL    HW190425   1.891   0.368   0.303
96176SOL    HW290426   1.763   0.433   0.255
96177SOL     OW90427  11.370  12.044  10.654
96177SOL    HW190428  11.375  12.043  10.750
96177SOL    HW290429  11.422  11.969  10.626
96178SOL     OW90430  13.661   5.778   4.018
96178SOL    HW190431  13.606   5.709   3.982
96178SOL    HW290432  13.746   5.765   3.975
96179SOL     OW90433   7.471   5.284  12.840
96179SOL    HW190434   7.504   5.302  12.752
96179SOL    HW290435   7.477   5.189  12.849
96180SOL     OW90436   7.493   4.424  10.430
96180SOL    HW190437   7.572   4.466  10.396
96180SOL    HW290438   7.520   4.335  10.452
96181SOL     OW90439  14.592   8.513   1.886
96181SOL    HW190440  14.669   8.497   1.941
96181SOL    HW290441  14.530   8.444   1.912
96182SOL     OW90442   5.797   2.896  10.059
96182SOL    HW190443   5.767   2.811  10.028
96182SOL    HW290444   5.748   2.959  10.005
96183SOL     OW90445  10.306   9.995   7.209
96183SOL    HW190446  10.334   9.903   7.207
96183SOL    HW290447  10.221   9.995   7.166
96184SOL     OW90448  10.020  12.158   2.354
96184SOL    HW190449   9.977  12.099   2.417
96184SOL    HW290450   9.972  12.144   2.272
96185SOL     OW90451   5.661  10.231  11.305
96185SOL    HW190452   5.661  10.254  11.212
96185SOL    HW290453   5.606  10.297  11.346
96186SOL     OW90454   4.672  11.521  12.041
96186SOL    HW190455   4.716  11.590  11.992
96186SOL    HW290456   4.742  11.476  12.087
96187SOL     OW90457  12.060   5.776  13.872
96187SOL    HW190458  12.037   5.726  13.794
96187SOL    HW290459  11.991   5.755  13.935
96188SOL     OW90460   3.443   1.637  11.734
96188SOL    HW190461   3.353   1.661  11.710
96188SOL    HW290462   3.453   1.668  11.824
96189SOL     OW90463   9.156   4.185  12.492
96189SOL    HW190464   9.104   4.266  12.491
96189SOL    HW290465   9.115   4.130  12.426
96190SOL     OW90466   5.333   3.467   2.313
96190SOL    HW190467   5.343   3.448   2.220
96190SOL    HW290468   5.341   3.382   2.356
96191SOL     OW90469   5.003  14.835   1.872
96191SOL    HW190470   5.093  14.811   1.897
96191SOL    HW290471   4.969   0.007   1.948
96192SOL     OW90472  10.034   9.701  13.278
96192SOL    HW190473  10.086   9.769  13.235
96192SOL    HW290474   9.944   9.734  13.274
96193SOL     OW90475   1.110  14.684   0.978
96193SOL    HW190476   1.194  14.648   0.951
96193SOL    HW290477   1.127  14.778   0.991
96194SOL     OW90478  13.769   1.497   1.239
96194SOL    HW190479  13.863   1.488   1.255
96194SOL    HW290480  13.747   1.421   1.185
96195SOL     OW90481  10.700  14.824   3.917
96195SOL    HW190482  10.608  14.851   3.917
96195SOL    HW290483  10.749   0.031   3.930
96196SOL     OW90484   5.547  11.062   2.059
96196SOL    HW190485   5.558  11.015   2.142
96196SOL    HW290486   5.623  11.121   2.055
96197SOL     OW90487   8.712  10.027  14.343
96197SOL    HW190488   8.641  10.059  14.287
96197SOL    HW290489   8.676  10.030  14.432
96198SOL     OW90490   1.149  14.860   9.053
96198SOL    HW190491   1.223  14.872   8.993
96198SOL    HW290492   1.175  14.788   9.110
96199SOL     OW90493   2.705  13.608   0.978
96199SOL    HW190494   2.682  13.689   0.932
96199SOL    HW290495   2.759  13.637   1.051
96200SOL     OW90496   6.910   5.775   8.326
96200SOL    HW190497   6.911   5.690   8.369
96200SOL    HW290498   6.879   5.836   8.393
96201SOL     OW90499   9.705   0.821  10.868
96201SOL    HW190500   9.615   0.799  10.894
96201SOL    HW290501   9.759   0.791  10.941
96202SOL     OW90502  11.068   1.454  10.953
96202SOL    HW190503  11.040   1.450  11.044
96202SOL    HW290504  11.101   1.366  10.934
96203SOL     OW90505   3.682   0.450   5.181
96203SOL    HW190506   3.611   0.502   5.144
96203SOL    HW290507   3.738   0.429   5.106
96204SOL     OW90508   8.203  11.905   4.232
96204SOL    HW190509   8.133  11.932   4.173
96204SOL    HW290510   8.223  11.815   4.205
96205SOL     OW90511   2.676   3.623   8.809
96205SOL    HW190512   2.762   3.664   8.814
96205SOL    HW290513   2.688   3.537   8.850
96206SOL     OW90514   6.420   3.731   6.162
96206SOL    HW190515   6.458   3.818   6.149
96206SOL    HW290516   6.336   3.748   6.205
96207SOL     OW90517   8.154  13.863   6.632
96207SOL    HW190518   8.119  13.790   6.682
96207SOL    HW290519   8.079  13.899   6.585
96208SOL     OW90520   3.414  10.420  11.423
96208SOL    HW190521   3.495  10.455  11.385
96208SOL    HW290522   3.378  10.492  11.475
96209SOL     OW90523   2.002   4.514  10.704
96209SOL    HW190524   1.993   4.558  10.789
96209SOL    HW290525   2.096   4.497  10.695
96210SOL     OW90526   1.047   2.701  14.447
96210SOL    HW190527   1.054   2.691  14.542
96210SOL    HW290528   0.959   2.737  14.433
96211SOL     OW90529   5.582  10.621   5.204
96211SOL    HW190530   5.614  10.597   5.291
96211SOL    HW290531   5.496  10.661   5.221
96212SOL     OW90532   5.190  11.937  13.818
96212SOL    HW190533   5.227  11.934  13.730
96212SOL    HW290534   5.095  11.946  13.804
96213SOL     OW90535   9.013   3.648   3.609
96213SOL    HW190536   9.043   3.668   3.698
96213SOL    HW290537   9.033   3.555   3.597
96214SOL     OW90538   8.072  14.764   4.744
96214SOL    HW190539   7.977  14.760   4.742
96214SOL    HW290540   8.099  14.690   4.798
96215SOL     OW90541  11.428  11.992  13.579
96215SOL    HW190542  11.439  11.910  13.530
96215SOL    HW290543  11.484  11.983  13.655
96216SOL     OW90544  12.791   2.258   3.750
96216SOL    HW190545  12.732   2.291   3.682
96216SOL    HW290546  12.780   2.320   3.822
96217SOL     OW90547  10.162   8.319   2.123
96217SOL    HW190548  10.190   8.392   2.067
96217SOL    HW290549  10.227   8.315   2.192
96218SOL     OW90550  11.107   2.026   2.182
96218SOL    HW190551  11.174   2.063   2.240
96218SOL    HW290552  11.029   2.079   2.198
96219SOL     OW90553   7.793  10.855   0.188
96219SOL    HW190554   7.761  10.770   0.157
96219SOL    HW290555   7.732  10.879   0.258
96220SOL     OW90556  12.576   3.297   3.546
96220SOL    HW190557  12.482   3.294   3.567
96220SOL    HW290558  12.607   3.378   3.587
96221SOL     OW90559   7.677   3.695   1.786
96221SOL    HW190560   7.727   3.771   1.755
96221SOL    HW290561   7.657   3.645   1.707
96222SOL     OW90562   1.515  13.092   9.180
96222SOL    HW190563   1.442  13.055   9.131
96222SOL    HW290564   1.475  13.126   9.260
96223SOL     OW90565   6.469   9.450  13.170
96223SOL    HW190566   6.552   9.491  13.192
96223SOL    HW290567   6.445   9.401  13.249
96224SOL     OW90568  10.262   6.366  12.382
96224SOL    HW190569  10.272   6.274  12.409
96224SOL    HW290570  10.171   6.373  12.353
96225SOL     OW90571   2.910   0.489   1.597
96225SOL    HW190572   2.936   0.425   1.530
96225SOL    HW290573   2.859   0.554   1.549
96226SOL     OW90574   4.850  14.752  12.428
96226SOL    HW190575   4.807  14.790  12.504
96226SOL    HW290576   4.818  14.803  12.354
96227SOL     OW90577  11.047  11.216  13.771
96227SOL    HW190578  11.040  11.232  13.677
96227SOL    HW290579  10.998  11.135  13.785
96228SOL     OW90580   8.443   4.045   4.634
96228SOL    HW190581   8.530   4.046   4.675
96228SOL    HW290582   8.402   3.965   4.666
96229SOL     OW90583   1.714   4.904   7.731
96229SOL    HW190584   1.663   4.985   7.719
96229SOL    HW290585   1.789   4.914   7.672
96230SOL     OW90586   1.750   7.337   8.379
96230SOL    HW190587   1.725   7.430   8.386
96230SOL    HW290588   1.710   7.296   8.455
96231SOL     OW90589   5.506   4.539   5.198
96231SOL    HW190590   5.596   4.568   5.182
96231SOL    HW290591   5.484   4.574   5.284
96232SOL     OW90592  13.064   5.096   8.575
96232SOL    HW190593  13.114   5.093   8.657
96232SOL    HW290594  13.042   5.188   8.563
96233SOL     OW90595   0.076  13.477  11.635
96233SOL    HW190596   0.122  13.561  11.640
96233SOL    HW290597   0.091  13.436  11.720
96234SOL     OW90598   0.030  11.775  14.649
96234SOL    HW190599  14.835  11.716  14.622
96234SOL    HW290600   0.009  11.858  14.606
96235SOL     OW90601   6.362  10.736  13.619
96235SOL    HW190602   6.271  10.714  13.596
96235SOL    HW290603   6.369  10.712  13.712
96236SOL     OW90604   0.649  10.117   3.970
96236SOL    HW190605   0.618  10.205   3.991
96236SOL    HW290606   0.622  10.103   3.879
96237SOL     OW90607   1.072   2.359  10.935
96237SOL    HW190608   0.998   2.419  10.923
96237SOL    HW290609   1.095   2.367  11.027
96238SOL     OW90610   1.647  12.986  14.725
96238SOL    HW190611   1.608  13.064  14.685
96238SOL    HW290612   1.715  13.021  14.784
96239SOL     OW90613   3.451   2.215   2.378
96239SOL    HW190614   3.544   2.228   2.359
96239SOL    HW290615   3.415   2.178   2.297
96240SOL     OW90616  12.540   9.930   9.785
96240SOL    HW190617  12.530   9.906   9.693
96240SOL    HW290618  12.619   9.984   9.788
96241SOL     OW90619  14.009  13.379  13.421
96241SOL    HW190620  14.044  13.463  13.450
96241SOL    HW290621  14.084  13.335  13.379
96242SOL     OW90622  10.382   1.107   5.835
96242SOL    HW190623  10.430   1.184   5.865
96242SOL    HW290624  10.420   1.035   5.885
96243SOL     OW90625   0.039   2.694   1.516
96243SOL    HW190626   0.130   2.722   1.522
96243SOL    HW290627   0.035   2.644   1.434
96244SOL     OW90628   0.837  13.369   0.809
96244SOL    HW190629   0.776  13.441   0.793
96244SOL    HW290630   0.916  13.412   0.842
96245SOL     OW90631  11.586   2.119   8.679
96245SOL    HW190632  11.599   2.039   8.730
96245SOL    HW290633  11.494   2.116   8.652
96246SOL     OW90634   9.248   8.466   7.536
96246SOL    HW190635   9.305   8.446   7.462
96246SOL    HW290636   9.165   8.423   7.516
96247SOL     OW90637  13.172   4.486   5.461
96247SOL    HW190638  13.196   4.400   5.495
96247SOL    HW290639  13.184   4.479   5.367
96248SOL     OW90640  12.306   4.186  11.073
96248SOL    HW190641  12.371   4.133  11.119
96248SOL    HW290642  12.353   4.264  11.045
96249SOL     OW90643  14.097   9.358  13.029
96249SOL    HW190644  14.091   9.453  13.015
96249SOL    HW290645  14.033   9.340  13.097
96250SOL     OW90646   5.693   5.505  14.248
96250SOL    HW190647   5.776   5.534  14.211
96250SOL    HW290648   5.674   5.567  14.318
96251SOL     OW90649   6.962  13.279   5.256
96251SOL    HW190650   7.005  13.353   5.213
96251SOL    HW290651   7.000  13.277   5.344
96252SOL     OW90652   7.305   3.042   8.807
96252SOL    HW190653   7.344   3.112   8.859
96252SOL    HW290654   7.356   3.042   8.726
96253SOL     OW90655   1.127   9.102   5.726
96253SOL    HW190656   1.193   9.100   5.796
96253SOL    HW290657   1.094   9.192   5.727
96254SOL     OW90658   1.793  13.832   3.733
96254SOL    HW190659   1.814  13.924   3.746
96254SOL    HW290660   1.876  13.786   3.744
96255SOL     OW90661  11.009   4.851   0.208
96255SOL    HW190662  11.040   4.833   0.120
96255SOL    HW290663  10.986   4.765   0.244
96256SOL     OW90664   8.357  12.412   6.500
96256SOL    HW190665   8.322  12.369   6.578
96256SOL    HW290666   8.402  12.489   6.534
96257SOL     OW90667  11.497  11.145   8.580
96257SOL    HW190668  11.460  11.060   8.557
96257SOL    HW290669  11.554  11.167   8.506
96258SOL     OW90670   8.814   6.083  13.828
96258SOL    HW190671   8.772   6.053  13.909
96258SOL    HW290672   8.762   6.158  13.801
96259SOL     OW90673   7.607   4.117   7.564
96259SOL    HW190674   7.702   4.122   7.568
96259SOL    HW290675   7.578   4.207   7.580
96260SOL     OW90676   0.927  10.750   4.296
96260SOL    HW190677   0.854  10.772   4.355
96260SOL    HW290678   0.999  10.804   4.327
96261SOL     OW90679  12.794   6.342   2.204
96261SOL    HW190680  12.851   6.290   2.260
96261SOL    HW290681  12.757   6.280   2.142
96262SOL     OW90682   1.916   6.914  11.036
96262SOL    HW190683   1.893   6.882  11.124
96262SOL    HW290684   2.011   6.926  11.039
96263SOL     OW90685   6.890   5.763   3.510
96263SOL    HW190686   6.934   5.847   3.500
96263SOL    HW290687   6.883   5.751   3.605
96264SOL     OW90688   2.412  10.105  12.214
96264SOL    HW190689   2.420  10.044  12.141
96264SOL    HW290690   2.437  10.190  12.177
96265SOL     OW90691  11.921   1.317   3.176
96265SOL    HW190692  12.002   1.321   3.125
96265SOL    HW290693  11.851   1.328   3.111
96266SOL     OW90694   9.425  10.063  11.137
96266SOL    HW190695   9.516  10.044  11.159
96266SOL    HW290696   9.419  10.159  11.139
96267SOL     OW90697   5.782   5.715   8.272
96267SOL    HW190698   5.696   5.707   8.314
96267SOL    HW290699   5.796   5.629   8.232
96268SOL     OW90700   7.659   2.045  12.570
96268SOL    HW190701   7.722   1.995  12.518
96268SOL    HW290702   7.621   1.980  12.629
96269SOL     OW90703  12.737   6.628  10.483
96269SOL    HW190704  12.684   6.563  10.438
96269SOL    HW290705  12.763   6.585  10.565
96270SOL     OW90706   7.151   6.970   7.303
96270SOL    HW190707   7.073   7.025   7.311
96270SOL    HW290708   7.180   6.956   7.393
96271SOL     OW90709   3.243   0.216   8.108
96271SOL    HW190710   3.283   0.254   8.030
96271SOL    HW290711   3.301   0.143   8.131
96272SOL     OW90712   5.237   9.049  14.615
96272SOL    HW190713   5.214   9.141  14.628
96272SOL    HW290714   5.316   9.036  14.668
96273SOL     OW90715   0.295   1.400  10.308
96273SOL    HW190716   0.255   1.406  10.394
96273SOL    HW290717   0.234   1.347  10.256
96274SOL     OW90718   1.597  14.585   0.162
96274SOL    HW190719   1.572  14.671   0.195
96274SOL    HW290720   1.514  14.536   0.159
96275SOL     OW90721   2.626   8.187   6.096
96275SOL    HW190722   2.544   8.169   6.142
96275SOL    HW290723   2.604   8.184   6.004
96276SOL     OW90724  10.830  11.962  11.140
96276SOL    HW190725  10.793  11.997  11.222
96276SOL    HW290726  10.793  11.874  11.133
96277SOL     OW90727   5.462   5.695   6.506
96277SOL    HW190728   5.479   5.684   6.600
96277SOL    HW290729   5.545   5.724   6.470
96278SOL     OW90730   6.131   9.813  12.447
96278SOL    HW190731   6.053   9.802  12.391
96278SOL    HW290732   6.100   9.793  12.535
96279SOL     OW90733   0.101   3.241   7.218
96279SOL    HW190734   0.148   3.301   7.160
96279SOL    HW290735   0.028   3.293   7.252
96280SOL     OW90736  10.771  14.455  11.187
96280SOL    HW190737  10.864  14.435  11.181
96280SOL    HW290738  10.762  14.503  11.270
96281SOL     OW90739   6.706   5.360   4.581
96281SOL    HW190740   6.794   5.322   4.585
96281SOL    HW290741   6.662   5.326   4.658
96282SOL     OW90742  11.564   1.094   1.624
96282SOL    HW190743  11.602   1.122   1.541
96282SOL    HW290744  11.539   1.175   1.668
96283SOL     OW90745   8.763   8.071   5.765
96283SOL    HW190746   8.857   8.086   5.752
96283SOL    HW290747   8.757   7.978   5.786
96284SOL     OW90748   9.664  12.480   9.433
96284SOL    HW190749   9.682  12.573   9.431
96284SOL    HW290750   9.656  12.459   9.527
96285SOL     OW90751  12.309   2.561   0.254
96285SOL    HW190752  12.331   2.469   0.240
96285SOL    HW290753  12.390   2.601   0.286
96286SOL     OW90754   2.424   7.411   1.791
96286SOL    HW190755   2.404   7.396   1.699
96286SOL    HW290756   2.484   7.486   1.791
96287SOL     OW90757  14.114  14.539   3.766
96287SOL    HW190758  14.181  14.599   3.799
96287SOL    HW290759  14.074  14.586   3.693
96288SOL     OW90760   3.755  11.536   5.867
96288SOL    HW190761   3.815  11.589   5.813
96288SOL    HW290762   3.671  11.582   5.862
96289SOL     OW90763   7.344  13.945   6.247
96289SOL    HW190764   7.350  13.953   6.342
96289SOL    HW290765   7.251  13.929   6.230
96290SOL     OW90766  13.437  12.320  11.612
96290SOL    HW190767  13.354  12.349  11.651
96290SOL    HW290768  13.489  12.400  11.603
96291SOL     OW90769   2.098  10.748   2.453
96291SOL    HW190770   2.020  10.706   2.417
96291SOL    HW290771   2.081  10.842   2.443
96292SOL     OW90772   4.882  13.093  14.084
96292SOL    HW190773   4.839  13.101  14.169
96292SOL    HW290774   4.961  13.147  14.093
96293SOL     OW90775   2.799  13.312   6.891
96293SOL    HW190776   2.826  13.239   6.835
96293SOL    HW290777   2.758  13.270   6.966
96294SOL     OW90778   5.004   1.861  11.350
96294SOL    HW190779   5.070   1.910  11.301
96294SOL    HW290780   4.969   1.925  11.412
96295SOL     OW90781   1.157   1.313   5.485
96295SOL    HW190782   1.218   1.284   5.552
96295SOL    HW290783   1.136   1.233   5.435
96296SOL     OW90784   7.252   2.693   8.988
96296SOL    HW190785   7.195   2.769   8.978
96296SOL    HW290786   7.198   2.628   9.033
96297SOL     OW90787   3.081  12.606   8.400
96297SOL    HW190788   3.083  12.554   8.319
96297SOL    HW290789   2.996  12.585   8.439
96298SOL     OW90790  11.794   5.583   6.368
96298SOL    HW190791  11.759   5.623   6.288
96298SOL    HW290792  11.884   5.558   6.344
96299SOL     OW90793   6.837   2.125   1.118
96299SOL    HW190794   6.793   2.048   1.154
96299SOL    HW290795   6.787   2.200   1.149
96300SOL     OW90796   5.224   4.359  10.973
96300SOL    HW190797   5.289   4.421  10.939
96300SOL    HW290798   5.162   4.347  10.901
96301SOL     OW90799   4.029   8.296   1.739
96301SOL    HW190800   3.965   8.333   1.800
96301SOL    HW290801   3.981   8.285   1.657
96302SOL     OW90802   9.904  13.936  12.921
96302SOL    HW190803   9.971  13.881  12.962
96302SOL    HW290804   9.926  13.934  12.828
96303SOL     OW90805  11.948   1.033  10.514
96303SOL    HW190806  11.968   1.102  10.451
96303SOL    HW290807  11.863   1.058  10.551
96304SOL     OW90808  10.684   8.637   0.852
96304SOL    HW190809  10.687   8.690   0.932
96304SOL    HW290810  10.676   8.547   0.884
96305SOL     OW90811  13.034   0.903   9.689
96305SOL    HW190812  12.993   0.826   9.727
96305SOL    HW290813  13.081   0.870   9.612
96306SOL     OW90814   8.154  11.335   5.504
96306SOL    HW190815   8.194  11.346   5.418
96306SOL    HW290816   8.228  11.333   5.565
96307SOL     OW90817   9.403   1.180   2.738
96307SOL    HW190818   9.319   1.225   2.744
96307SOL    HW290819   9.381   1.091   2.709
96308SOL     OW90820   5.783   1.612   3.822
96308SOL    HW190821   5.783   1.707   3.806
96308SOL    HW290822   5.794   1.573   3.735
96309SOL     OW90823   5.011   4.209  13.594
96309SOL    HW190824   5.035   4.139  13.655
96309SOL    HW290825   5.091   4.261  13.585
96310SOL     OW90826  13.587  11.361  10.895
96310SOL    HW190827  13.677  11.394  10.896
96310SOL    HW290828  13.537  11.429  10.850
96311SOL     OW90829   8.937   4.955  14.624
96311SOL    HW190830   8.885   4.963  14.543
96311SOL    HW290831   8.878   4.912  14.686
96312SOL     OW90832  12.642  14.827   4.222
96312SOL    HW190833  12.706  14.865   4.161
96312SOL    HW290834  12.565   0.007   4.213
96313SOL     OW90835   2.093   6.081   0.589
96313SOL    HW190836   2.059   6.073   0.678
96313SOL    HW290837   2.168   6.141   0.596
96314SOL     OW90838  12.977   7.762  12.374
96314SOL    HW190839  12.889   7.761  12.337
96314SOL    HW290840  13.000   7.670  12.384
96315SOL     OW90841  13.287   1.769   4.073
96315SOL    HW190842  13.335   1.805   3.998
96315SOL    HW290843  13.196   1.791   4.056
96316SOL     OW90844   9.668  11.381   9.369
96316SOL    HW190845   9.595  11.385   9.308
96316SOL    HW290846   9.633  11.418   9.451
96317SOL     OW90847   0.245  13.263   5.540
96317SOL    HW190848   0.213  13.344   5.501
96317SOL    HW290849   0.338  13.278   5.556
96318SOL     OW90850  14.512  13.682   9.458
96318SOL    HW190851  14.486  13.677   9.550
96318SOL    HW290852  14.442  13.731   9.415
96319SOL     OW90853  14.056   8.712  12.040
96319SOL    HW190854  13.991   8.782  12.030
96319SOL    HW290855  14.091   8.700  11.952
96320SOL     OW90856  14.056   3.358  13.036
96320SOL    HW190857  14.035   3.351  13.129
96320SOL    HW290858  14.134   3.414  13.033
96321SOL     OW90859  13.156   0.938  13.575
96321SOL    HW190860  13.135   0.874  13.508
96321SOL    HW290861  13.071   0.965  13.610
96322SOL     OW90862  12.012   6.854  14.629
96322SOL    HW190863  12.054   6.791  14.688
96322SOL    HW290864  12.014   6.937  14.678
96323SOL     OW90865   9.863   7.569   7.729
96323SOL    HW190866   9.825   7.606   7.650
96323SOL    HW290867   9.955   7.596   7.726
96324SOL     OW90868   1.067  10.273  13.673
96324SOL    HW190869   1.067  10.304  13.763
96324SOL    HW290870   1.048  10.351  13.621
96325SOL     OW90871  14.391   8.654   6.616
96325SOL    HW190872  14.479   8.644   6.654
96325SOL    HW290873  14.380   8.749   6.606
96326SOL     OW90874   7.785  11.589   9.625
96326SOL    HW190875   7.782  11.582   9.529
96326SOL    HW290876   7.713  11.534   9.655
96327SOL     OW90877   6.333   8.819  10.239
96327SOL    HW190878   6.261   8.757  10.245
96327SOL    HW290879   6.293   8.899  10.206
96328SOL     OW90880  11.297   5.035   5.602
96328SOL    HW190881  11.356   4.991   5.541
96328SOL    HW290882  11.264   5.111   5.554
96329SOL     OW90883   9.835   0.096   4.380
96329SOL    HW190884   9.803   0.179   4.415
96329SOL    HW290885   9.909   0.073   4.436
96330SOL     OW90886   8.393  13.009   3.349
96330SOL    HW190887   8.410  13.008   3.443
96330SOL    HW290888   8.301  12.985   3.341
96331SOL     OW90889  10.125   9.067  10.584
96331SOL    HW190890  10.037   9.082  10.620
96331SOL    HW290891  10.168   9.013  10.651
96332SOL     OW90892   9.101   9.608  13.306
96332SOL    HW190893   9.094   9.518  13.274
96332SOL    HW290894   9.154   9.601  13.385
96333SOL     OW90895   4.345  11.738   3.055
96333SOL    HW190896   4.263  11.731   3.005
96333SOL    HW290897   4.321  11.707   3.143
96334SOL     OW90898   1.772   4.381  12.749
96334SOL    HW190899   1.864   4.374  12.772
96334SOL    HW290900   1.734   4.298  12.778
96335SOL     OW90901   7.837  13.221  11.966
96335SOL    HW190902   7.751  13.180  11.968
96335SOL    HW290903   7.895  13.154  11.929
96336SOL     OW90904   6.494  13.137   6.210
96336SOL    HW190905   6.501  13.108   6.301
96336SOL    HW290906   6.456  13.061   6.165
96337SOL     OW90907  12.356   3.799   6.719
96337SOL    HW190908  12.273   3.837   6.688
96337SOL    HW290909  12.334   3.761   6.804
96338SOL     OW90910   2.109  12.575   3.396
96338SOL    HW190911   2.159  12.625   3.331
96338SOL    HW290912   2.018  12.579   3.364
96339SOL     OW90913   4.037   7.995   2.386
96339SOL    HW190914   3.942   7.984   2.375
96339SOL    HW290915   4.056   8.080   2.346
96340SOL     OW90916   2.696   4.746   2.445
96340SOL    HW190917   2.769   4.725   2.502
96340SOL    HW290918   2.618   4.727   2.498
96341SOL     OW90919  14.487   1.193   3.425
96341SOL    HW190920  14.567   1.187   3.478
96341SOL    HW290921  14.459   1.284   3.434
96342SOL     OW90922   0.201   3.954   7.864
96342SOL    HW190923   0.250   3.882   7.824
96342SOL    HW290924   0.235   4.033   7.821
96343SOL     OW90925  11.256  12.360   0.698
96343SOL    HW190926  11.270  12.347   0.604
96343SOL    HW290927  11.259  12.272   0.735
96344SOL     OW90928  10.839   8.502   8.255
96344SOL    HW190929  10.776   8.476   8.188
96344SOL    HW290930  10.790   8.564   8.310
96345SOL     OW90931   1.255   9.468  12.937
96345SOL    HW190932   1.205   9.474  13.019
96345SOL    HW290933   1.263   9.559  12.908
96346SOL     OW90934   0.520  13.766   3.969
96346SOL    HW190935   0.535  13.780   4.062
96346SOL    HW290936   0.425  13.754   3.961
96347SOL     OW90937   7.868   7.610   6.265
96347SOL    HW190938   7.958   7.592   6.238
96347SOL    HW290939   7.869   7.601   6.360
96348SOL     OW90940   6.572   9.722  11.073
96348SOL    HW190941   6.622   9.641  11.082
96348SOL    HW290942   6.526   9.731  11.156
96349SOL     OW90943  11.345  14.077   1.015
96349SOL    HW190944  11.322  14.077   1.108
96349SOL    HW290945  11.261  14.068   0.971
96350SOL     OW90946  10.843   0.140   0.224
96350SOL    HW190947  10.851   0.048   0.197
96350SOL    HW290948  10.763   0.144   0.275
96351SOL     OW90949   8.348  10.931  11.723
96351SOL    HW190950   8.261  10.951  11.688
96351SOL    HW290951   8.401  11.008  11.702
96352SOL     OW90952   6.467  14.339  11.651
96352SOL    HW190953   6.442  14.248  11.634
96352SOL    HW290954   6.425  14.360  11.735
96353SOL     OW90955   2.021   1.421  14.556
96353SOL    HW190956   2.028   1.462  14.643
96353SOL    HW290957   2.104   1.376  14.544
96354SOL     OW90958  13.391  11.369   6.699
96354SOL    HW190959  13.299  11.389   6.681
96354SOL    HW290960  13.404  11.394   6.791
96355SOL     OW90961  14.579   1.460  10.770
96355SOL    HW190962  14.498   1.446  10.723
96355SOL    HW290963  14.576   1.397  10.843
96356SOL     OW90964   9.142   5.074  10.553
96356SOL    HW190965   9.181   4.988  10.538
96356SOL    HW290966   9.101   5.097  10.470
96357SOL     OW90967   5.989  11.239   2.723
96357SOL    HW190968   5.965  11.323   2.761
96357SOL    HW290969   6.072  11.256   2.678
96358SOL     OW90970   5.892  13.112   3.818
96358SOL    HW190971   5.817  13.146   3.866
96358SOL    HW290972   5.906  13.024   3.853
96359SOL     OW90973   5.344  13.399   4.354
96359SOL    HW190974   5.327  13.475   4.298
96359SOL    HW290975   5.289  13.414   4.432
96360SOL     OW90976  13.313   1.746   5.554
96360SOL    HW190977  13.296   1.652   5.566
96360SOL    HW290978  13.281   1.765   5.466
96361SOL     OW90979  11.425   6.767   8.078
96361SOL    HW190980  11.376   6.771   8.159
96361SOL    HW290981  11.483   6.843   8.080
96362SOL     OW90982   8.297  11.457   2.734
96362SOL    HW190983   8.363  11.400   2.773
96362SOL    HW290984   8.228  11.397   2.706
96363SOL     OW90985  10.352   5.654   1.171
96363SOL    HW190986  10.350   5.749   1.166
96363SOL    HW290987  10.273   5.631   1.221
96364SOL     OW90988  13.627  11.392   6.530
96364SOL    HW190989  13.698  11.383   6.594
96364SOL    HW290990  13.547  11.396   6.583
96365SOL     OW90991  10.475   1.178   9.138
96365SOL    HW190992  10.408   1.112   9.122
96365SOL    HW290993  10.499   1.166   9.230
96366SOL     OW90994  12.479   2.413  14.407
96366SOL    HW190995  12.529   2.382  14.482
96366SOL    HW290996  12.529   2.487  14.373
96367SOL     OW90997   2.014   0.683   5.320
96367SOL    HW190998   2.019   0.720   5.232
96367SOL    HW290999   2.106   0.674   5.347
96368SOL     OW91000  12.242   2.183  13.420
96368SOL    HW191001  12.337   2.191  13.421
96368SOL    HW291002  12.226   2.091  13.444
96369SOL     OW91003   7.769   2.568  14.504
96369SOL    HW191004   7.718   2.513  14.445
96369SOL    HW291005   7.860   2.543  14.489
96370SOL     OW91006   2.503   1.953   6.651
96370SOL    HW191007   2.499   1.876   6.708
96370SOL    HW291008   2.500   2.027   6.711
96371SOL     OW91009  14.647   5.722   3.779
96371SOL    HW191010  14.575   5.723   3.716
96371SOL    HW291011  14.640   5.638   3.823
96372SOL     OW91012   8.454   6.838   4.144
96372SOL    HW191013   8.468   6.793   4.227
96372SOL    HW291014   8.536   6.886   4.128
96373SOL     OW91015   3.944   0.952   1.349
96373SOL    HW191016   3.881   0.945   1.421
96373SOL    HW291017   3.901   0.908   1.275
96374SOL     OW91018   6.369   0.297   0.856
96374SOL    HW191019   6.368   0.212   0.899
96374SOL    HW291020   6.461   0.312   0.833
96375SOL     OW91021   5.613  10.202   8.548
96375SOL    HW191022   5.682  10.138   8.532
96375SOL    HW291023   5.536  10.166   8.504
96376SOL     OW91024   9.952   4.764  13.465
96376SOL    HW191025   9.972   4.676  13.496
96376SOL    HW291026   9.946   4.755  13.370
96377SOL     OW91027  12.401  13.430   7.474
96377SOL    HW191028  12.450  13.465   7.548
96377SOL    HW291029  12.319  13.400   7.511
96378SOL     OW91030   5.642  11.141   9.280
96378SOL    HW191031   5.658  11.217   9.336
96378SOL    HW291032   5.696  11.157   9.203
96379SOL     OW91033   8.574   5.297   1.914
96379SOL    HW191034   8.527   5.249   1.983
96379SOL    HW291035   8.515   5.298   1.840
96380SOL     OW91036   7.758   4.467   3.671
96380SOL    HW191037   7.804   4.385   3.653
96380SOL    HW291038   7.827   4.530   3.691
96381SOL     OW91039   5.170   4.817   3.803
96381SOL    HW191040   5.119   4.893   3.776
96381SOL    HW291041   5.261   4.842   3.789
96382SOL     OW91042   5.347   6.749   5.745
96382SOL    HW191043   5.334   6.705   5.662
96382SOL    HW291044   5.259   6.759   5.782
96383SOL     OW91045  14.390   5.296  10.740
96383SOL    HW191046  14.459   5.299  10.806
96383SOL    HW291047  14.309   5.282  10.789
96384SOL     OW91048  14.408  13.844  14.689
96384SOL    HW191049  14.492  13.882  14.714
96384SOL    HW291050  14.348  13.869  14.759
96385SOL     OW91051  13.638  14.748   9.673
96385SOL    HW191052  13.701  14.682   9.644
96385SOL    HW291053  13.580  14.761   9.598
96386SOL     OW91054   5.743   8.025  11.109
96386SOL    HW191055   5.735   8.008  11.015
96386SOL    HW291056   5.814   7.967  11.138
96387SOL     OW91057  13.674  14.852   4.705
96387SOL    HW191058  13.753  14.873   4.654
96387SOL    HW291059  13.646   0.062   4.741
96388SOL     OW91060   2.357  10.360  12.451
96388SOL    HW191061   2.377  10.429  12.388
96388SOL    HW291062   2.277  10.389  12.494
96389SOL     OW91063   7.829  11.966   9.266
96389SOL    HW191064   7.920  11.949   9.244
96389SOL    HW291065   7.779  11.931   9.193
96390SOL     OW91066   5.723   5.751   6.403
96390SOL    HW191067   5.810   5.735   6.441
96390SOL    HW291068   5.723   5.699   6.322
96391SOL     OW91069  11.569  14.511   7.485
96391SOL    HW191070  11.620  14.589   7.462
96391SOL    HW291071  11.608  14.441   7.432
96392SOL     OW91072  10.444  14.342   8.824
96392SOL    HW191073  10.533  14.377   8.829
96392SOL    HW291074  10.451  14.263   8.770
96393SOL     OW91075   2.956  11.769   8.080
96393SOL    HW191076   2.906  11.826   8.139
96393SOL    HW291077   3.008  11.714   8.139
96394SOL     OW91078   0.642   1.170   0.775
96394SOL    HW191079   0.569   1.229   0.792
96394SOL    HW291080   0.608   1.109   0.708
96395SOL     OW91081   5.460   0.256   3.607
96395SOL    HW191082   5.477   0.165   3.632
96395SOL    HW291083   5.534   0.279   3.551
96396SOL     OW91084   4.807   9.231   9.654
96396SOL    HW191085   4.868   9.173   9.610
96396SOL    HW291086   4.721   9.205   9.622
96397SOL     OW91087  13.994   0.447   7.485
96397SOL    HW191088  13.985   0.353   7.468
96397SOL    HW291089  14.078   0.470   7.446
96398SOL     OW91090  12.270   8.881   0.423
96398SOL    HW191091  12.262   8.786   0.419
96398SOL    HW291092  12.186   8.914   0.391
96399SOL     OW91093   8.812   0.568   1.971
96399SOL    HW191094   8.901   0.580   1.937
96399SOL    HW291095   8.773   0.501   1.914
96400SOL     OW91096  12.197  10.312  11.576
96400SOL    HW191097  12.158  10.245  11.632
96400SOL    HW291098  12.163  10.292  11.488
96401SOL     OW91099   5.592   6.683  13.495
96401SOL    HW191100   5.548   6.604  13.461
96401SOL    HW291101   5.520   6.745  13.509
96402SOL     OW91102  12.306   3.531  10.151
96402SOL    HW191103  12.270   3.468  10.213
96402SOL    HW291104  12.283   3.496  10.065
96403SOL     OW91105   0.330   8.917   1.444
96403SOL    HW191106   0.297   8.954   1.526
96403SOL    HW291107   0.280   8.836   1.432
96404SOL     OW91108   6.714   2.576   2.489
96404SOL    HW191109   6.678   2.497   2.530
96404SOL    HW291110   6.776   2.543   2.424
96405SOL     OW91111   0.046   2.844  10.040
96405SOL    HW191112   0.094   2.776   9.993
96405SOL    HW291113   0.076   2.926  10.000
96406SOL     OW91114   1.810  12.585   5.930
96406SOL    HW191115   1.872  12.625   5.869
96406SOL    HW291116   1.743  12.653   5.944
96407SOL     OW91117   4.992  12.855  11.483
96407SOL    HW191118   4.915  12.912  11.478
96407SOL    HW291119   5.066  12.914  11.467
96408SOL     OW91120  10.739   3.458   7.278
96408SOL    HW191121  10.823   3.496   7.250
96408SOL    HW291122  10.724   3.494   7.365
96409SOL     OW91123   1.822   7.586  13.079
96409SOL    HW191124   1.821   7.675  13.045
96409SOL    HW291125   1.864   7.593  13.165
96410SOL     OW91126   7.830   1.945   6.648
96410SOL    HW191127   7.922   1.963   6.667
96410SOL    HW291128   7.811   1.999   6.570
96411SOL     OW91129   8.119  13.899   6.221
96411SOL    HW191130   8.111  13.938   6.307
96411SOL    HW291131   8.194  13.943   6.181
96412SOL     OW91132  13.744   4.102   9.520
96412SOL    HW191133  13.827   4.147   9.507
96412SOL    HW291134  13.678   4.163   9.488
96413SOL     OW91135   8.201   0.268   1.542
96413SOL    HW191136   8.214   0.206   1.471
96413SOL    HW291137   8.239   0.226   1.618
96414SOL     OW91138   5.944  11.182   0.512
96414SOL    HW191139   5.918  11.249   0.449
96414SOL    HW291140   6.008  11.129   0.466
96415SOL     OW91141   6.867   1.601   9.295
96415SOL    HW191142   6.816   1.522   9.313
96415SOL    HW291143   6.898   1.590   9.205
96416SOL     OW91144   2.098  11.589   7.855
96416SOL    HW191145   2.144  11.671   7.873
96416SOL    HW291146   2.089  11.587   7.759
96417SOL     OW91147  13.419   2.090   2.121
96417SOL    HW191148  13.435   2.024   2.054
96417SOL    HW291149  13.370   2.159   2.075
96418SOL     OW91150  14.382   7.028  11.021
96418SOL    HW191151  14.305   6.975  11.038
96418SOL    HW291152  14.456   6.970  11.037
96419SOL     OW91153   0.914  12.237   4.696
96419SOL    HW191154   0.876  12.235   4.784
96419SOL    HW291155   0.952  12.325   4.689
96420SOL     OW91156   5.248   1.160   8.766
96420SOL    HW191157   5.280   1.096   8.701
96420SOL    HW291158   5.156   1.171   8.745
96421SOL     OW91159   7.499   2.751   8.778
96421SOL    HW191160   7.456   2.835   8.762
96421SOL    HW291161   7.486   2.734   8.871
96422SOL     OW91162  13.414   3.129  10.007
96422SOL    HW191163  13.502   3.136   9.971
96422SOL    HW291164  13.387   3.039   9.987
96423SOL     OW91165  11.391  13.830   4.796
96423SOL    HW191166  11.335  13.812   4.721
96423SOL    HW291167  11.331  13.862   4.864
96424SOL     OW91168   0.602   4.991   7.131
96424SOL    HW191169   0.599   4.896   7.145
96424SOL    HW291170   0.690   5.016   7.157
96425SOL     OW91171   2.810   5.420  11.967
96425SOL    HW191172   2.752   5.494  11.953
96425SOL    HW291173   2.898   5.455  11.951
96426SOL     OW91174  11.569   1.108  10.502
96426SOL    HW191175  11.569   1.052  10.424
96426SOL    HW291176  11.491   1.162  10.494
96427SOL     OW91177  13.602   8.343  11.400
96427SOL    HW191178  13.584   8.296  11.481
96427SOL    HW291179  13.553   8.425  11.408
96428SOL     OW91180   1.655   2.518  14.752
96428SOL    HW191181   1.691   2.603  14.729
96428SOL    HW291182   1.690   2.500  14.839
96429SOL     OW91183   2.997   1.250   6.359
96429SOL    HW191184   2.929   1.286   6.415
96429SOL    HW291185   3.079   1.281   6.398
96430SOL     OW91186   5.072  11.906   8.074
96430SOL    HW191187   5.030  11.950   8.000
96430SOL    HW291188   5.001  11.885   8.133
96431SOL     OW91189   4.405   0.184   0.908
96431SOL    HW191190   4.345   0.255   0.930
96431SOL    HW291191   4.482   0.228   0.872
96432SOL     OW91192   1.242  11.345   4.090
96432SOL    HW191193   1.291  11.365   4.011
96432SOL    HW291194   1.166  11.403   4.087
96433SOL     OW91195   2.495  12.382   0.486
96433SOL    HW191196   2.404  12.405   0.506
96433SOL    HW291197   2.526  12.337   0.565
96434SOL     OW91198   9.004  14.479   4.235
96434SOL    HW191199   8.954  14.459   4.156
96434SOL    HW291200   8.989  14.405   4.293
96435SOL     OW91201  12.869   2.239   6.972
96435SOL    HW191202  12.859   2.168   6.908
96435SOL    HW291203  12.849   2.318   6.923
96436SOL     OW91204   3.844  13.845  14.803
96436SOL    HW191205   3.819  13.926  14.847
96436SOL    HW291206   3.844  13.778  14.872
96437SOL     OW91207   2.658  10.247   6.573
96437SOL    HW191208   2.620  10.301   6.642
96437SOL    HW291209   2.720  10.189   6.618
96438SOL     OW91210   3.786   4.908  12.784
96438SOL    HW191211   3.801   4.892  12.877
96438SOL    HW291212   3.692   4.895  12.772
96439SOL     OW91213  12.911   1.514   9.049
96439SOL    HW191214  12.997   1.532   9.086
96439SOL    HW291215  12.853   1.511   9.125
96440SOL     OW91216   1.927  12.844   8.812
96440SOL    HW191217   2.014  12.860   8.849
96440SOL    HW291218   1.939  12.770   8.753
96441SOL     OW91219  13.382   4.484   6.284
96441SOL    HW191220  13.330   4.532   6.220
96441SOL    HW291221  13.399   4.399   6.244
96442SOL     OW91222  11.035  13.988   4.377
96442SOL    HW191223  11.101  14.048   4.342
96442SOL    HW291224  11.003  13.940   4.301
96443SOL     OW91225  12.341   7.673  10.283
96443SOL    HW191226  12.351   7.715  10.198
96443SOL    HW291227  12.431   7.660  10.314
96444SOL     OW91228  12.120   3.574   3.287
96444SOL    HW191229  12.080   3.601   3.370
96444SOL    HW291230  12.099   3.645   3.226
96445SOL     OW91231  12.128   8.520   5.232
96445SOL    HW191232  12.194   8.547   5.168
96445SOL    HW291233  12.045   8.524   5.184
96446SOL     OW91234   7.174   9.870   8.258
96446SOL    HW191235   7.125   9.952   8.249
96446SOL    HW291236   7.261   9.891   8.223
96447SOL     OW91237   4.461   0.531  13.971
96447SOL    HW191238   4.374   0.570  13.984
96447SOL    HW291239   4.521   0.590  14.016
96448SOL     OW91240  10.736   5.838  11.643
96448SOL    HW191241  10.673   5.855  11.713
96448SOL    HW291242  10.718   5.905  11.577
96449SOL     OW91243   8.445   1.218   5.121
96449SOL    HW191244   8.486   1.215   5.207
96449SOL    HW291245   8.351   1.214   5.138
96450SOL     OW91246   3.328   0.453   6.981
96450SOL    HW191247   3.369   0.441   6.895
96450SOL    HW291248   3.319   0.365   7.016
96451SOL     OW91249  12.594   5.584  11.092
96451SOL    HW191250  12.633   5.537  11.165
96451SOL    HW291251  12.659   5.579  11.022
96452SOL     OW91252  10.958   3.496   9.249
96452SOL    HW191253  10.864   3.495   9.233
96452SOL    HW291254  10.985   3.585   9.227
96453SOL     OW91255   9.173   4.586   9.114
96453SOL    HW191256   9.131   4.661   9.071
96453SOL    HW291257   9.100   4.527   9.134
96454SOL     OW91258   9.362  14.126   3.264
96454SOL    HW191259   9.292  14.081   3.217
96454SOL    HW291260   9.432  14.135   3.199
96455SOL     OW91261   5.052   0.708   6.883
96455SOL    HW191262   5.145   0.717   6.862
96455SOL    HW291263   5.035   0.777   6.947
96456SOL     OW91264  12.870   0.975  12.144
96456SOL    HW191265  12.820   1.043  12.189
96456SOL    HW291266  12.842   0.893  12.185
96457SOL     OW91267  10.053   5.121  14.071
96457SOL    HW191268  10.079   5.029  14.068
96457SOL    HW291269  10.091   5.160  13.993
96458SOL     OW91270  13.192   7.202  13.259
96458SOL    HW191271  13.279   7.217  13.222
96458SOL    HW291272  13.189   7.107  13.274
96459SOL     OW91273  14.098  13.662  12.739
96459SOL    HW191274  14.189  13.633  12.749
96459SOL    HW291275  14.059  13.645  12.824
96460SOL     OW91276  11.395   2.392  10.770
96460SOL    HW191277  11.456   2.362  10.838
96460SOL    HW291278  11.323   2.329  10.773
96461SOL     OW91279  14.086   1.980  14.549
96461SOL    HW191280  14.082   2.008  14.457
96461SOL    HW291281  14.075   2.061  14.599
96462SOL     OW91282  12.949  13.448   7.705
96462SOL    HW191283  13.038  13.438   7.738
96462SOL    HW291284  12.908  13.510   7.765
96463SOL     OW91285   6.166   4.940   7.131
96463SOL    HW191286   6.182   4.930   7.225
96463SOL    HW291287   6.085   4.891   7.116
96464SOL     OW91288  12.183   8.702   7.953
96464SOL    HW191289  12.254   8.640   7.938
96464SOL    HW291290  12.122   8.656   8.011
96465SOL     OW91291   4.217   7.415  12.210
96465SOL    HW191292   4.154   7.429  12.139
96465SOL    HW291293   4.202   7.489  12.269
96466SOL     OW91294  11.019  12.832   1.604
96466SOL    HW191295  11.038  12.926   1.599
96466SOL    HW291296  10.948  12.818   1.542
96467SOL     OW91297  14.819   1.157   4.920
96467SOL    HW191298   0.014   1.215   4.890
96467SOL    HW291299  14.754   1.215   4.959
96468SOL     OW91300   3.902   6.260   0.725
96468SOL    HW191301   3.870   6.337   0.772
96468SOL    HW291302   3.834   6.195   0.735
96469SOL     OW91303   0.059  14.696  12.387
96469SOL    HW191304  14.843  14.726  12.394
96469SOL    HW291305   0.087  14.724  12.300
96470SOL     OW91306   9.204  13.096   1.523
96470SOL    HW191307   9.110  13.085   1.539
96470SOL    HW291308   9.243  13.014   1.553
96471SOL     OW91309   8.131   5.772   1.288
96471SOL    HW191310   8.221   5.799   1.269
96471SOL    HW291311   8.132   5.677   1.279
96472SOL     OW91312  10.825   4.605  12.927
96472SOL    HW191313  10.872   4.542  12.981
96472SOL    HW291314  10.880   4.684  12.927
96473SOL     OW91315   3.787  10.583   5.484
96473SOL    HW191316   3.715  10.634   5.521
96473SOL    HW291317   3.766  10.492   5.509
96474SOL     OW91318  11.436  10.472   9.340
96474SOL    HW191319  11.418  10.546   9.399
96474SOL    HW291320  11.514  10.498   9.291
96475SOL     OW91321  11.877   5.868   2.910
96475SOL    HW191322  11.783   5.852   2.917
96475SOL    HW291323  11.917   5.782   2.924
96476SOL     OW91324   5.844   0.650  14.768
96476SOL    HW191325   5.848   0.554  14.761
96476SOL    HW291326   5.751   0.670  14.752
96477SOL     OW91327   6.667   2.363  13.834
96477SOL    HW191328   6.644   2.425  13.903
96477SOL    HW291329   6.724   2.412  13.775
96478SOL     OW91330   1.045   9.559   9.153
96478SOL    HW191331   1.108   9.581   9.222
96478SOL    HW291332   1.086   9.591   9.072
96479SOL     OW91333   0.852  14.743   7.476
96479SOL    HW191334   0.942  14.726   7.448
96479SOL    HW291335   0.830  14.670   7.534
96480SOL     OW91336  12.330   4.527   9.352
96480SOL    HW191337  12.308   4.616   9.381
96480SOL    HW291338  12.424   4.531   9.334
96481SOL     OW91339   5.277  14.268   3.972
96481SOL    HW191340   5.221  14.197   3.941
96481SOL    HW291341   5.218  14.324   4.022
96482SOL     OW91342   0.730  13.685   7.088
96482SOL    HW191343   0.690  13.772   7.078
96482SOL    HW291344   0.780  13.691   7.169
96483SOL     OW91345   7.885   6.774  10.869
96483SOL    HW191346   7.837   6.841  10.821
96483SOL    HW291347   7.859   6.786  10.960
96484SOL     OW91348   5.463   6.182   8.728
96484SOL    HW191349   5.555   6.164   8.745
96484SOL    HW291350   5.415   6.115   8.778
96485SOL     OW91351   0.330   1.678   7.023
96485SOL    HW191352   0.269   1.688   6.951
96485SOL    HW291353   0.282   1.708   7.100
96486SOL     OW91354   3.922   7.879  10.245
96486SOL    HW191355   3.862   7.944  10.207
96486SOL    HW291356   3.867   7.803  10.261
96487SOL     OW91357   9.547  12.703   0.272
96487SOL    HW191358   9.559  12.740   0.184
96487SOL    HW291359   9.597  12.621   0.270
96488SOL     OW91360   2.237   5.932   8.070
96488SOL    HW191361   2.318   5.981   8.054
96488SOL    HW291362   2.243   5.856   8.013
96489SOL     OW91363  10.619   3.667   7.092
96489SOL    HW191364  10.557   3.727   7.133
96489SOL    HW291365  10.614   3.588   7.145
96490SOL     OW91366   4.438  14.800   3.842
96490SOL    HW191367   4.435  14.830   3.933
96490SOL    HW291368   4.531  14.805   3.818
96491SOL     OW91369  14.179   1.762  10.020
96491SOL    HW191370  14.193   1.805  10.104
96491SOL    HW291371  14.092   1.723  10.026
96492SOL     OW91372  14.631   4.535  11.189
96492SOL    HW191373  14.627   4.608  11.250
96492SOL    HW291374  14.679   4.467  11.236
96493SOL     OW91375  14.202   5.892   6.135
96493SOL    HW191376  14.179   5.808   6.176
96493SOL    HW291377  14.227   5.948   6.209
96494SOL     OW91378  13.778   9.774  13.688
96494SOL    HW191379  13.686   9.792  13.669
96494SOL    HW291380  13.824   9.856  13.669
96495SOL     OW91381   4.230   6.939   8.680
96495SOL    HW191382   4.288   6.863   8.678
96495SOL    HW291383   4.288   7.014   8.667
96496SOL     OW91384   6.099   3.868   1.021
96496SOL    HW191385   6.096   3.963   1.015
96496SOL    HW291386   6.043   3.838   0.949
96497SOL     OW91387   8.022   2.517   2.662
96497SOL    HW191388   8.027   2.458   2.737
96497SOL    HW291389   8.088   2.585   2.681
96498SOL     OW91390  10.507   6.294   5.804
96498SOL    HW191391  10.490   6.218   5.748
96498SOL    HW291392  10.559   6.259   5.877
96499SOL     OW91393   2.360  14.604   5.816
96499SOL    HW191394   2.311  14.640   5.889
96499SOL    HW291395   2.442  14.654   5.815
96500SOL     OW91396  11.022  12.926  10.794
96500SOL    HW191397  10.936  12.905  10.831
96500SOL    HW291398  11.053  12.999  10.847
96501SOL     OW91399   9.973   9.978  12.205
96501SOL    HW191400   9.951   9.954  12.294
96501SOL    HW291401  10.012   9.898  12.168
96502SOL     OW91402  12.107  14.168   1.066
96502SOL    HW191403  12.019  14.201   1.085
96502SOL    HW291404  12.165  14.221   1.120
96503SOL     OW91405   7.144   9.685   3.196
96503SOL    HW191406   7.167   9.596   3.224
96503SOL    HW291407   7.079   9.672   3.127
96504SOL     OW91408   9.625   0.150  10.849
96504SOL    HW191409   9.533   0.170  10.829
96504SOL    HW291410   9.631   0.157  10.944
96505SOL     OW91411  12.340   2.601   4.199
96505SOL    HW191412  12.340   2.574   4.291
96505SOL    HW291413  12.285   2.679   4.196
96506SOL     OW91414   9.083  12.171   4.718
96506SOL    HW191415   9.054  12.114   4.647
96506SOL    HW291416   9.017  12.241   4.722
96507SOL     OW91417   8.803   6.258  11.396
96507SOL    HW191418   8.761   6.314  11.331
96507SOL    HW291419   8.734   6.240  11.460
96508SOL     OW91420  11.069   5.657   4.119
96508SOL    HW191421  11.050   5.574   4.163
96508SOL    HW291422  11.084   5.720   4.190
96509SOL     OW91423   1.519  11.673   1.342
96509SOL    HW191424   1.524  11.674   1.437
96509SOL    HW291425   1.569  11.750   1.315
96510SOL     OW91426  11.642  12.975   4.065
96510SOL    HW191427  11.564  13.022   4.094
96510SOL    HW291428  11.608  12.907   4.006
96511SOL     OW91429   0.030  11.724  12.954
96511SOL    HW191430  14.821  11.713  12.911
96511SOL    HW291431   0.011  11.714  13.047
96512SOL     OW91432  11.223   1.064   8.706
96512SOL    HW191433  11.185   1.100   8.626
96512SOL    HW291434  11.255   0.978   8.681
96513SOL     OW91435   8.816  10.927   8.180
96513SOL    HW191436   8.816  10.910   8.274
96513SOL    HW291437   8.761  11.005   8.170
96514SOL     OW91438   1.487  12.792   8.378
96514SOL    HW191439   1.404  12.835   8.399
96514SOL    HW291440   1.496  12.801   8.283
96515SOL     OW91441   5.010  14.441   5.563
96515SOL    HW191442   5.067  14.378   5.519
96515SOL    HW291443   4.950  14.472   5.496
96516SOL     OW91444   2.778   0.700   8.221
96516SOL    HW191445   2.710   0.641   8.253
96516SOL    HW291446   2.785   0.680   8.128
96517SOL     OW91447  10.210   7.091  13.760
96517SOL    HW191448  10.231   7.078  13.667
96517SOL    HW291449  10.114   7.098  13.762
96518SOL     OW91450   4.108   5.590   0.024
96518SOL    HW191451   4.109   5.665   0.084
96518SOL    HW291452   4.139   5.626  14.816
96519SOL     OW91453   1.404   7.447   0.690
96519SOL    HW191454   1.323   7.461   0.640
96519SOL    HW291455   1.472   7.439   0.624
96520SOL     OW91456   3.231  10.236   7.294
96520SOL    HW191457   3.323  10.230   7.321
96520SOL    HW291458   3.183  10.191   7.363
96521SOL     OW91459   8.824   2.167   9.557
96521SOL    HW191460   8.795   2.258   9.556
96521SOL    HW291461   8.896   2.165   9.494
96522SOL     OW91462   2.807  13.635   8.408
96522SOL    HW191463   2.783  13.550   8.446
96522SOL    HW291464   2.879  13.666   8.462
96523SOL     OW91465  13.077  11.225   2.919
96523SOL    HW191466  13.002  11.250   2.865
96523SOL    HW291467  13.096  11.134   2.895
96524SOL     OW91468  13.681  14.554  13.543
96524SOL    HW191469  13.672  14.459  13.536
96524SOL    HW291470  13.748  14.566  13.612
96525SOL     OW91471   3.944   9.515   7.759
96525SOL    HW191472   3.897   9.564   7.827
96525SOL    HW291473   3.914   9.425   7.770
96526SOL     OW91474   8.695  10.671   9.871
96526SOL    HW191475   8.655  10.750   9.834
96526SOL    HW291476   8.691  10.607   9.799
96527SOL     OW91477   4.433  11.381  14.399
96527SOL    HW191478   4.403  11.331  14.476
96527SOL    HW291479   4.387  11.464  14.405
96528SOL     OW91480   8.473  10.831   6.785
96528SOL    HW191481   8.545  10.784   6.827
96528SOL    HW291482   8.497  10.834   6.692
96529SOL     OW91483  10.669   1.826   8.503
96529SOL    HW191484  10.663   1.913   8.542
96529SOL    HW291485  10.578   1.802   8.484
96530SOL     OW91486   6.143   0.131  10.217
96530SOL    HW191487   6.066   0.096  10.172
96530SOL    HW291488   6.108   0.202  10.272
96531SOL     OW91489   2.800  11.008   6.067
96531SOL    HW191490   2.842  10.948   6.004
96531SOL    HW291491   2.873  11.044   6.118
96532SOL     OW91492   6.186  11.722  14.275
96532SOL    HW191493   6.208  11.754  14.187
96532SOL    HW291494   6.147  11.636  14.260
96533SOL     OW91495   2.023   7.094  12.425
96533SOL    HW191496   2.042   7.188  12.428
96533SOL    HW291497   1.955   7.081  12.491
96534SOL     OW91498   6.892   9.221   7.064
96534SOL    HW191499   6.874   9.171   6.984
96534SOL    HW291500   6.827   9.291   7.063
96535SOL     OW91501   1.727   0.548  12.367
96535SOL    HW191502   1.765   0.608  12.430
96535SOL    HW291503   1.801   0.515  12.317
96536SOL     OW91504   0.532  10.428  12.788
96536SOL    HW191505   0.601  10.418  12.721
96536SOL    HW291506   0.536  10.521  12.811
96537SOL     OW91507   2.555   0.045   3.458
96537SOL    HW191508   2.534   0.081   3.371
96537SOL    HW291509   2.648   0.066   3.470
96538SOL     OW91510   7.728  11.227   9.171
96538SOL    HW191511   7.765  11.306   9.131
96538SOL    HW291512   7.641  11.220   9.133
96539SOL     OW91513   3.145  14.419   3.178
96539SOL    HW191514   3.077  14.422   3.110
96539SOL    HW291515   3.110  14.472   3.249
96540SOL     OW91516  11.512   3.410  11.102
96540SOL    HW191517  11.436   3.368  11.141
96540SOL    HW291518  11.577   3.410  11.172
96541SOL     OW91519   9.167   9.227  14.871
96541SOL    HW191520   9.239   9.175   0.033
96541SOL    HW291521   9.210   9.306  14.838
96542SOL     OW91522   1.762  10.982   5.291
96542SOL    HW191523   1.780  10.895   5.255
96542SOL    HW291524   1.849  11.022   5.299
96543SOL     OW91525   0.762   8.065  11.795
96543SOL    HW191526   0.710   8.002  11.746
96543SOL    HW291527   0.766   8.029  11.884
96544SOL     OW91528   8.941  11.841  14.044
96544SOL    HW191529   8.914  11.821  13.954
96544SOL    HW291530   8.893  11.778  14.098
96545SOL     OW91531  13.706   6.906   9.103
96545SOL    HW191532  13.733   6.834   9.159
96545SOL    HW291533  13.610   6.900   9.100
96546SOL     OW91534   4.549   7.315  13.372
96546SOL    HW191535   4.630   7.287  13.329
96546SOL    HW291536   4.521   7.238  13.421
96547SOL     OW91537   6.535   6.227   3.172
96547SOL    HW191538   6.540   6.230   3.076
96547SOL    HW291539   6.500   6.140   3.191
96548SOL     OW91540   0.358   3.963  10.694
96548SOL    HW191541   0.428   3.935  10.635
96548SOL    HW291542   0.399   4.029  10.750
96549SOL     OW91543   3.169  13.784   9.272
96549SOL    HW191544   3.094  13.835   9.302
96549SOL    HW291545   3.240  13.809   9.331
96550SOL     OW91546   0.605  10.660   4.954
96550SOL    HW191547   0.599  10.707   5.038
96550SOL    HW291548   0.595  10.568   4.978
96551SOL     OW91549   9.512   5.560   1.142
96551SOL    HW191550   9.447   5.495   1.170
96551SOL    HW291551   9.548   5.593   1.224
96552SOL     OW91552   9.920  12.677   8.934
96552SOL    HW191553   9.917  12.598   8.988
96552SOL    HW291554   9.935  12.645   8.845
96553SOL     OW91555   0.604  13.822   4.892
96553SOL    HW191556   0.597  13.905   4.939
96553SOL    HW291557   0.650  13.844   4.811
96554SOL     OW91558   3.905   4.421   1.472
96554SOL    HW191559   4.000   4.408   1.480
96554SOL    HW291560   3.887   4.494   1.530
96555SOL     OW91561   9.868  14.672  14.314
96555SOL    HW191562   9.910  14.593  14.347
96555SOL    HW291563   9.903  14.743  14.368
96556SOL     OW91564   1.272   7.311   8.202
96556SOL    HW191565   1.315   7.359   8.273
96556SOL    HW291566   1.300   7.356   8.122
96557SOL     OW91567   4.761  12.465  12.003
96557SOL    HW191568   4.853  12.447  12.023
96557SOL    HW291569   4.760  12.480  11.908
96558SOL     OW91570   7.841   6.409  13.731
96558SOL    HW191571   7.888   6.484  13.767
96558SOL    HW291572   7.758   6.445  13.699
96559SOL     OW91573   2.671   8.235  14.329
96559SOL    HW191574   2.707   8.251  14.242
96559SOL    HW291575   2.594   8.180  14.313
96560SOL     OW91576   7.383   8.324   3.190
96560SOL    HW191577   7.394   8.330   3.285
96560SOL    HW291578   7.291   8.346   3.175
96561SOL     OW91579  13.119   2.232  14.607
96561SOL    HW191580  13.201   2.279  14.600
96561SOL    HW291581  13.137   2.159  14.666
96562SOL     OW91582   9.562   3.467  13.770
96562SOL    HW191583   9.631   3.532  13.784
96562SOL    HW291584   9.491   3.517  13.729
96563SOL     OW91585   3.759  14.205   7.546
96563SOL    HW191586   3.731  14.197   7.637
96563SOL    HW291587   3.840  14.155   7.541
96564SOL     OW91588   5.535   1.975   4.443
96564SOL    HW191589   5.450   1.934   4.453
96564SOL    HW291590   5.581   1.920   4.380
96565SOL     OW91591   4.730  14.827   2.127
96565SOL    HW191592   4.679  14.862   2.200
96565SOL    HW291593   4.815  14.870   2.134
96566SOL     OW91594  13.236   9.151   8.236
96566SOL    HW191595  13.278   9.129   8.319
96566SOL    HW291596  13.202   9.240   8.250
96567SOL     OW91597   1.843   6.574  11.044
96567SOL    HW191598   1.915   6.511  11.032
96567SOL    HW291599   1.855   6.637  10.972
96568SOL     OW91600  12.296   1.090  13.480
96568SOL    HW191601  12.310   1.163  13.541
96568SOL    HW291602  12.206   1.100  13.451
96569SOL     OW91603   8.386  10.930  14.221
96569SOL    HW191604   8.380  10.953  14.314
96569SOL    HW291605   8.388  11.014  14.175
96570SOL     OW91606   4.153  10.187   9.320
96570SOL    HW191607   4.083  10.241   9.284
96570SOL    HW291608   4.160  10.114   9.258
96571SOL     OW91609  14.683   2.987   0.845
96571SOL    HW191610  14.773   2.986   0.879
96571SOL    HW291611  14.691   2.961   0.753
96572SOL     OW91612   7.221  10.792  13.229
96572SOL    HW191613   7.222  10.850  13.306
96572SOL    HW291614   7.174  10.842  13.162
96573SOL     OW91615   0.069   0.606   9.764
96573SOL    HW191616   0.107   0.622   9.678
96573SOL    HW291617  14.856   0.642   9.758
96574SOL     OW91618  10.994  11.591   4.635
96574SOL    HW191619  11.039  11.661   4.587
96574SOL    HW291620  11.058  11.520   4.639
96575SOL     OW91621   9.304   5.019  13.208
96575SOL    HW191622   9.239   4.963  13.250
96575SOL    HW291623   9.277   5.022  13.116
96576SOL     OW91624   5.244   5.263   7.268
96576SOL    HW191625   5.280   5.221   7.190
96576SOL    HW291626   5.201   5.342   7.235
96577SOL     OW91627  10.010   6.799   7.484
96577SOL    HW191628   9.980   6.745   7.411
96577SOL    HW291629   9.946   6.869   7.491
96578SOL     OW91630  13.714   6.024   3.359
96578SOL    HW191631  13.795   5.997   3.316
96578SOL    HW291632  13.672   5.943   3.386
96579SOL     OW91633   2.464   9.956  13.012
96579SOL    HW191634   2.517   9.958  13.092
96579SOL    HW291635   2.489  10.035  12.965
96580SOL     OW91636   4.869  12.710   8.159
96580SOL    HW191637   4.809  12.778   8.128
96580SOL    HW291638   4.939  12.708   8.094
96581SOL     OW91639   7.478   7.729   1.299
96581SOL    HW191640   7.548   7.667   1.322
96581SOL    HW291641   7.398   7.685   1.329
96582SOL     OW91642   7.851   5.412  12.600
96582SOL    HW191643   7.814   5.336  12.645
96582SOL    HW291644   7.774   5.465  12.578
96583SOL     OW91645   8.493   1.537  14.574
96583SOL    HW191646   8.459   1.623  14.598
96583SOL    HW291647   8.554   1.554  14.502
96584SOL     OW91648   9.877  12.379   3.518
96584SOL    HW191649   9.868  12.438   3.593
96584SOL    HW291650   9.820  12.417   3.451
96585SOL     OW91651  10.021  11.403  13.813
96585SOL    HW191652  10.109  11.372  13.792
96585SOL    HW291653  10.008  11.375  13.904
96586SOL     OW91654   1.474   4.766  11.558
96586SOL    HW191655   1.403   4.829  11.547
96586SOL    HW291656   1.543   4.796  11.499
96587SOL     OW91657   9.310   8.775   4.893
96587SOL    HW191658   9.299   8.725   4.974
96587SOL    HW291659   9.223   8.777   4.854
96588SOL     OW91660   1.058   8.990   9.541
96588SOL    HW191661   1.093   9.049   9.608
96588SOL    HW291662   1.127   8.987   9.474
96589SOL     OW91663   2.195   6.079   8.580
96589SOL    HW191664   2.101   6.080   8.559
96589SOL    HW291665   2.235   6.035   8.505
96590SOL     OW91666   1.882   2.614  13.217
96590SOL    HW191667   1.852   2.601  13.307
96590SOL    HW291668   1.835   2.691  13.187
96591SOL     OW91669   4.327   6.793   7.975
96591SOL    HW191670   4.406   6.829   7.934
96591SOL    HW291671   4.303   6.719   7.919
96592SOL     OW91672   8.202  12.357   9.580
96592SOL    HW191673   8.219  12.449   9.563
96592SOL    HW291674   8.119  12.339   9.534
96593SOL     OW91675  11.122   7.365   9.409
96593SOL    HW191676  11.110   7.275   9.439
96593SOL    HW291677  11.046   7.412   9.445
96594SOL     OW91678   5.279   4.504   6.050
96594SOL    HW191679   5.188   4.475   6.049
96594SOL    HW291680   5.290   4.550   5.967
96595SOL     OW91681   3.699   0.772   8.951
96595SOL    HW191682   3.626   0.736   8.901
96595SOL    HW291683   3.690   0.867   8.943
96596SOL     OW91684  10.946   4.764   9.692
96596SOL    HW191685  10.864   4.757   9.643
96596SOL    HW291686  10.924   4.818   9.768
96597SOL     OW91687  10.927  12.020   5.575
96597SOL    HW191688  10.853  12.033   5.634
96597SOL    HW291689  10.982  12.097   5.589
96598SOL     OW91690   4.622   7.218   1.194
96598SOL    HW191691   4.713   7.212   1.226
96598SOL    HW291692   4.573   7.251   1.269
96599SOL     OW91693   7.644  13.427  12.338
96599SOL    HW191694   7.571  13.489  12.341
96599SOL    HW291695   7.608  13.346  12.373
96600SOL     OW91696   3.820   5.684   2.558
96600SOL    HW191697   3.834   5.596   2.521
96600SOL    HW291698   3.851   5.743   2.489
96601SOL     OW91699   5.751  10.595   1.687
96601SOL    HW191700   5.665  10.592   1.729
96601SOL    HW291701   5.734  10.634   1.601
96602SOL     OW91702   2.858   0.215   2.820
96602SOL    HW191703   2.922   0.285   2.835
96602SOL    HW291704   2.804   0.246   2.748
96603SOL     OW91705   6.711   8.263   6.186
96603SOL    HW191706   6.629   8.247   6.139
96603SOL    HW291707   6.779   8.248   6.120
96604SOL     OW91708  14.693   2.830   8.029
96604SOL    HW191709  14.785   2.805   8.041
96604SOL    HW291710  14.647   2.748   8.015
96605SOL     OW91711   2.995  11.749   2.935
96605SOL    HW191712   3.050  11.826   2.922
96605SOL    HW291713   3.005  11.727   3.028
96606SOL     OW91714   2.284  11.944   2.555
96606SOL    HW191715   2.292  11.857   2.516
96606SOL    HW291716   2.373  11.968   2.579
96607SOL     OW91717   3.282   1.571   1.223
96607SOL    HW191718   3.307   1.650   1.175
96607SOL    HW291719   3.313   1.499   1.167
96608SOL     OW91720   2.245   4.837  14.672
96608SOL    HW191721   2.283   4.778  14.607
96608SOL    HW291722   2.156   4.805  14.685
96609SOL     OW91723   3.517  13.081   9.145
96609SOL    HW191724   3.549  13.085   9.055
96609SOL    HW291725   3.458  13.156   9.153
96610SOL     OW91726   3.763   8.883   4.053
96610SOL    HW191727   3.845   8.933   4.045
96610SOL    HW291728   3.740   8.862   3.962
96611SOL     OW91729   8.252  10.478   5.814
96611SOL    HW191730   8.159  10.490   5.835
96611SOL    HW291731   8.258  10.501   5.721
96612SOL     OW91732  12.765   5.183  10.694
96612SOL    HW191733  12.801   5.167  10.781
96612SOL    HW291734  12.676   5.149  10.698
96613SOL     OW91735   7.831   3.126  11.776
96613SOL    HW191736   7.926   3.130  11.789
96613SOL    HW291737   7.797   3.079  11.852
96614SOL     OW91738   8.900   9.660   4.534
96614SOL    HW191739   8.969   9.628   4.592
96614SOL    HW291740   8.831   9.594   4.539
96615SOL     OW91741  11.293   2.104   1.943
96615SOL    HW191742  11.358   2.162   1.984
96615SOL    HW291743  11.237   2.077   2.016
96616SOL     OW91744  10.200   2.018  13.146
96616SOL    HW191745  10.210   1.995  13.054
96616SOL    HW291746  10.187   1.934  13.191
96617SOL     OW91747   3.732   2.376   5.453
96617SOL    HW191748   3.748   2.336   5.539
96617SOL    HW291749   3.704   2.303   5.398
96618SOL     OW91750   6.670   9.699   2.252
96618SOL    HW191751   6.698   9.624   2.200
96618SOL    HW291752   6.751   9.745   2.274
96619SOL     OW91753   6.935   4.435   8.614
96619SOL    HW191754   6.972   4.453   8.527
96619SOL    HW291755   6.995   4.371   8.652
96620SOL     OW91756  10.265  12.135   5.152
96620SOL    HW191757  10.199  12.075   5.185
96620SOL    HW291758  10.218  12.192   5.091
96621SOL     OW91759  13.099   6.413  14.225
96621SOL    HW191760  13.028   6.353  14.250
96621SOL    HW291761  13.118   6.390  14.134
96622SOL     OW91762   4.121   6.254   2.287
96622SOL    HW191763   4.067   6.175   2.283
96622SOL    HW291764   4.193   6.231   2.346
96623SOL     OW91765  11.291   7.496   4.923
96623SOL    HW191766  11.240   7.506   4.843
96623SOL    HW291767  11.380   7.520   4.898
96624SOL     OW91768   4.014   1.618   3.623
96624SOL    HW191769   4.101   1.649   3.601
96624SOL    HW291770   4.013   1.526   3.598
96625SOL     OW91771   7.665   5.870   1.115
96625SOL    HW191772   7.606   5.801   1.085
96625SOL    HW291773   7.733   5.824   1.164
96626SOL     OW91774   4.875   3.707   9.319
96626SOL    HW191775   4.944   3.772   9.324
96626SOL    HW291776   4.812   3.744   9.256
96627SOL     OW91777   1.968   7.950  12.551
96627SOL    HW191778   1.985   7.989  12.637
96627SOL    HW291779   1.917   7.871  12.571
96628SOL     OW91780   2.295  12.048   1.159
96628SOL    HW191781   2.344  11.997   1.224
96628SOL    HW291782   2.356  12.116   1.131
96629SOL     OW91783   0.831   9.808   9.125
96629SOL    HW191784   0.853   9.851   9.043
96629SOL    HW291785   0.896   9.739   9.134
96630SOL     OW91786   4.729   2.476  11.130
96630SOL    HW191787   4.716   2.549  11.192
96630SOL    HW291788   4.812   2.496  11.087
96631SOL     OW91789   7.753   4.021   1.953
96631SOL    HW191790   7.676   4.033   1.898
96631SOL    HW291791   7.730   3.950   2.012
96632SOL     OW91792  10.406  10.762   5.669
96632SOL    HW191793  10.419  10.844   5.621
96632SOL    HW291794  10.481  10.756   5.728
96633SOL     OW91795  12.713  12.430  11.293
96633SOL    HW191796  12.733  12.508  11.242
96633SOL    HW291797  12.724  12.458  11.384
96634SOL     OW91798   2.048   3.929   9.531
96634SOL    HW191799   2.028   3.872   9.457
96634SOL    HW291800   1.969   3.927   9.585
96635SOL     OW91801   5.285   6.377   4.282
96635SOL    HW191802   5.224   6.442   4.318
96635SOL    HW291803   5.267   6.376   4.188
96636SOL     OW91804  11.209  10.309   3.206
96636SOL    HW191805  11.193  10.221   3.171
96636SOL    HW291806  11.292  10.302   3.252
96637SOL     OW91807  14.523  14.760  10.238
96637SOL    HW191808  14.521  14.751  10.334
96637SOL    HW291809  14.441  14.805  10.217
96638SOL     OW91810   6.246  11.673   6.651
96638SOL    HW191811   6.273  11.657   6.741
96638SOL    HW291812   6.327  11.699   6.606
96639SOL     OW91813   6.222  14.093   5.284
96639SOL    HW191814   6.179  14.040   5.351
96639SOL    HW291815   6.240  14.176   5.328
96640SOL     OW91816  11.573   1.650  13.393
96640SOL    HW191817  11.596   1.573  13.341
96640SOL    HW291818  11.485   1.673  13.363
96641SOL     OW91819   7.111  12.186   1.608
96641SOL    HW191820   7.204  12.181   1.587
96641SOL    HW291821   7.089  12.098   1.640
96642SOL     OW91822  13.864  12.283   3.850
96642SOL    HW191823  13.915  12.311   3.774
96642SOL    HW291824  13.905  12.327   3.925
96643SOL     OW91825   3.670   3.822   6.193
96643SOL    HW191826   3.702   3.826   6.103
96643SOL    HW291827   3.578   3.848   6.187
96644SOL     OW91828   0.842   4.825   4.018
96644SOL    HW191829   0.808   4.845   4.105
96644SOL    HW291830   0.925   4.780   4.035
96645SOL     OW91831   5.526   6.207   3.341
96645SOL    HW191832   5.478   6.284   3.311
96645SOL    HW291833   5.600   6.241   3.391
96646SOL     OW91834   7.676  14.523  14.612
96646SOL    HW191835   7.672  14.515  14.707
96646SOL    HW291836   7.588  14.550  14.587
96647SOL     OW91837   1.770  13.131   9.084
96647SOL    HW191838   1.680  13.112   9.112
96647SOL    HW291839   1.825  13.074   9.139
96648SOL     OW91840   2.250   7.741   9.831
96648SOL    HW191841   2.252   7.650   9.801
96648SOL    HW291842   2.269   7.793   9.753
96649SOL     OW91843  10.926  13.849   0.719
96649SOL    HW191844  10.928  13.753   0.729
96649SOL    HW291845  10.842  13.875   0.758
96650SOL     OW91846   3.745   7.205  10.222
96650SOL    HW191847   3.793   7.281  10.189
96650SOL    HW291848   3.812   7.148  10.260
96651SOL     OW91849   7.539   6.074   2.700
96651SOL    HW191850   7.586   6.077   2.784
96651SOL    HW291851   7.460   6.023   2.719
96652SOL     OW91852  10.433   0.646  12.222
96652SOL    HW191853  10.377   0.584  12.268
96652SOL    HW291854  10.509   0.658  12.280
96653SOL     OW91855   5.295   9.854   5.777
96653SOL    HW191856   5.304   9.880   5.868
96653SOL    HW291857   5.218   9.797   5.775
96654SOL     OW91858   6.217  12.831   4.936
96654SOL    HW191859   6.279  12.902   4.954
96654SOL    HW291860   6.193  12.799   5.023
96655SOL     OW91861   9.643   8.299  13.364
96655SOL    HW191862   9.619   8.333  13.278
96655SOL    HW291863   9.659   8.205  13.349
96656SOL     OW91864   7.750   6.808  14.758
96656SOL    HW191865   7.693   6.843  14.690
96656SOL    HW291866   7.691   6.759  14.816
96657SOL     OW91867  10.154  11.487   2.958
96657SOL    HW191868  10.223  11.542   2.922
96657SOL    HW291869  10.158  11.502   3.053
96658SOL     OW91870  10.926   1.218   1.211
96658SOL    HW191871  10.903   1.183   1.125
96658SOL    HW291872  10.841   1.233   1.253
96659SOL     OW91873  12.774   0.372  14.610
96659SOL    HW191874  12.848   0.432  14.623
96659SOL    HW291875  12.815   0.287  14.595
96660SOL     OW91876   5.216  14.085  10.667
96660SOL    HW191877   5.177  14.008  10.626
96660SOL    HW291878   5.233  14.145  10.593
96661SOL     OW91879  13.465   4.781   7.900
96661SOL    HW191880  13.443   4.727   7.824
96661SOL    HW291881  13.382   4.825   7.922
96662SOL     OW91882   2.729   5.210  14.779
96662SOL    HW191883   2.656   5.211  14.841
96662SOL    HW291884   2.749   5.117  14.767
96663SOL     OW91885   8.656   3.987   3.611
96663SOL    HW191886   8.698   3.964   3.694
96663SOL    HW291887   8.726   4.024   3.558
96664SOL     OW91888   3.358   7.368  11.564
96664SOL    HW191889   3.348   7.280  11.599
96664SOL    HW291890   3.299   7.422  11.618
96665SOL     OW91891   5.620   2.448   3.523
96665SOL    HW191892   5.641   2.541   3.525
96665SOL    HW291893   5.664   2.411   3.599
96666SOL     OW91894   1.795   1.921  12.727
96666SOL    HW191895   1.756   1.968  12.654
96666SOL    HW291896   1.721   1.887  12.776
96667SOL     OW91897   4.713   3.209   7.629
96667SOL    HW191898   4.777   3.140   7.610
96667SOL    HW291899   4.754   3.260   7.700
96668SOL     OW91900   4.764   6.833   0.044
96668SOL    HW191901   4.751   6.834   0.139
96668SOL    HW291902   4.850   6.793   0.032
96669SOL     OW91903   0.120   0.894   0.552
96669SOL    HW191904   0.066   0.946   0.493
96669SOL    HW291905   0.206   0.890   0.509
96670SOL     OW91906   9.344   7.828  12.014
96670SOL    HW191907   9.309   7.866  12.095
96670SOL    HW291908   9.276   7.843  11.949
96671SOL     OW91909   6.291  11.468   3.821
96671SOL    HW191910   6.215  11.420   3.853
96671SOL    HW291911   6.260  11.510   3.740
96672SOL     OW91912   3.564   1.292   2.481
96672SOL    HW191913   3.478   1.279   2.439
96672SOL    HW291914   3.553   1.259   2.570
96673SOL     OW91915   7.112  12.283   9.170
96673SOL    HW191916   7.202  12.263   9.147
96673SOL    HW291917   7.072  12.313   9.088
96674SOL     OW91918  11.160  12.492   2.062
96674SOL    HW191919  11.122  12.467   1.978
96674SOL    HW291920  11.102  12.560   2.095
96675SOL     OW91921   4.986   8.273   8.114
96675SOL    HW191922   4.950   8.237   8.032
96675SOL    HW291923   5.053   8.210   8.139
96676SOL     OW91924   9.231   6.528  10.133
96676SOL    HW191925   9.245   6.443  10.092
96676SOL    HW291926   9.236   6.511  10.227
96677SOL     OW91927  10.977  14.466   0.501
96677SOL    HW191928  10.895  14.465   0.550
96677SOL    HW291929  11.039  14.508   0.560
96678SOL     OW91930  10.196   2.593   2.533
96678SOL    HW191931  10.135   2.533   2.577
96678SOL    HW291932  10.210   2.554   2.447
96679SOL     OW91933   5.706   6.283   3.532
96679SOL    HW191934   5.660   6.219   3.587
96679SOL    HW291935   5.798   6.257   3.537
96680SOL     OW91936  12.654   4.770  12.224
96680SOL    HW191937  12.624   4.824  12.297
96680SOL    HW291938  12.749   4.763  12.238
96681SOL     OW91939   1.280   7.584   9.804
96681SOL    HW191940   1.266   7.627   9.719
96681SOL    HW291941   1.375   7.571   9.809
96682SOL     OW91942   0.143   0.021   4.054
96682SOL    HW191943   0.146  14.844   4.134
96682SOL    HW291944   0.165   0.110   4.083
96683SOL     OW91945   4.135  10.559  11.808
96683SOL    HW191946   4.100  10.560  11.719
96683SOL    HW291947   4.189  10.481  11.812
96684SOL     OW91948   6.303   3.451   0.539
96684SOL    HW191949   6.337   3.450   0.629
96684SOL    HW291950   6.380   3.436   0.485
96685SOL     OW91951  13.440   5.919   9.031
96685SOL    HW191952  13.385   5.992   9.058
96685SOL    HW291953  13.474   5.944   8.945
96686SOL     OW91954   9.557  11.722   9.632
96686SOL    HW191955   9.564  11.645   9.689
96686SOL    HW291956   9.643  11.729   9.590
96687SOL     OW91957   6.747  10.972   3.093
96687SOL    HW191958   6.830  10.929   3.114
96687SOL    HW291959   6.702  10.910   3.035
96688SOL     OW91960   5.790   4.805   0.644
96688SOL    HW191961   5.733   4.738   0.682
96688SOL    HW291962   5.865   4.809   0.704
96689SOL     OW91963   5.271   1.715   3.444
96689SOL    HW191964   5.227   1.654   3.503
96689SOL    HW291965   5.200   1.760   3.398
96690SOL     OW91966   2.984  13.481   0.525
96690SOL    HW191967   2.901  13.455   0.564
96690SOL    HW291968   3.004  13.411   0.463
96691SOL     OW91969  12.864   6.671   4.008
96691SOL    HW191970  12.911   6.753   4.024
96691SOL    HW291971  12.867   6.625   4.092
96692SOL     OW91972   6.101  11.169   6.189
96692SOL    HW191973   6.143  11.241   6.235
96692SOL    HW291974   6.153  11.156   6.110
96693SOL     OW91975   9.836   3.169  10.426
96693SOL    HW191976   9.756   3.123  10.453
96693SOL    HW291977   9.906   3.105  10.438
96694SOL     OW91978  13.817   0.421   8.943
96694SOL    HW191979  13.724   0.444   8.943
96694SOL    HW291980  13.833   0.384   8.856
96695SOL     OW91981   2.257  11.526   4.088
96695SOL    HW191982   2.295  11.608   4.058
96695SOL    HW291983   2.313  11.458   4.051
96696SOL     OW91984  10.375   5.563  13.454
96696SOL    HW191985  10.336   5.595  13.535
96696SOL    HW291986  10.331   5.612  13.385
96697SOL     OW91987   7.467   9.232  12.768
96697SOL    HW191988   7.514   9.184  12.699
96697SOL    HW291989   7.455   9.167  12.837
96698SOL     OW91990   6.528   9.283   4.150
96698SOL    HW191991   6.558   9.324   4.068
96698SOL    HW291992   6.434   9.271   4.137
96699SOL     OW91993   5.767  10.305  11.659
96699SOL    HW191994   5.857  10.288  11.632
96699SOL    HW291995   5.715  10.243  11.609
96700SOL     OW91996   1.479  10.513   7.986
96700SOL    HW191997   1.395  10.468   7.998
96700SOL    HW291998   1.471  10.592   8.039
96701SOL     OW91999  14.097  10.639   7.867
96701SOL    HW192000  14.164  10.684   7.918
96701SOL    HW292001  14.080  10.559   7.916
96702SOL     OW92002   9.019   1.916  10.188
96702SOL    HW192003   8.979   1.992  10.146
96702SOL    HW292004   9.092   1.953  10.238
96703SOL     OW92005   5.821  14.763   6.185
96703SOL    HW192006   5.831  14.745   6.278
96703SOL    HW292007   5.764  14.840   6.181
96704SOL     OW92008  11.730   7.804   0.882
96704SOL    HW192009  11.743   7.869   0.951
96704SOL    HW292010  11.772   7.840   0.805
96705SOL     OW92011   6.447  10.734   8.467
96705SOL    HW192012   6.476  10.758   8.379
96705SOL    HW292013   6.388  10.805   8.493
96706SOL     OW92014   7.914   6.863   3.375
96706SOL    HW192015   7.860   6.890   3.450
96706SOL    HW292016   7.866   6.790   3.336
96707SOL     OW92017  13.957  13.891   0.956
96707SOL    HW192018  13.940  13.798   0.942
96707SOL    HW292019  14.041  13.907   0.912
96708SOL     OW92020   3.405   7.343  13.855
96708SOL    HW192021   3.486   7.324  13.808
96708SOL    HW292022   3.337   7.337  13.788
96709SOL     OW92023   1.936   3.735  13.044
96709SOL    HW192024   1.855   3.765  13.086
96709SOL    HW292025   1.924   3.640  13.036
96710SOL     OW92026   3.727   9.298  12.470
96710SOL    HW192027   3.769   9.226  12.517
96710SOL    HW292028   3.637   9.269  12.455
96711SOL     OW92029  13.012   1.974   4.227
96711SOL    HW192030  13.032   1.931   4.143
96711SOL    HW292031  13.083   2.036   4.239
96712SOL     OW92032   2.133   6.373   6.397
96712SOL    HW192033   2.160   6.305   6.335
96712SOL    HW292034   2.211   6.429   6.407
96713SOL     OW92035   2.998  14.250  11.208
96713SOL    HW192036   2.979  14.326  11.264
96713SOL    HW292037   3.035  14.185  11.267
96714SOL     OW92038   3.725  10.347   5.570
96714SOL    HW192039   3.731  10.336   5.475
96714SOL    HW292040   3.653  10.289   5.596
96715SOL     OW92041   1.209  11.405  12.910
96715SOL    HW192042   1.193  11.312  12.919
96715SOL    HW292043   1.255  11.414  12.826
96716SOL     OW92044  14.815   9.701  12.288
96716SOL    HW192045  14.795   9.773  12.229
96716SOL    HW292046   0.033   9.682  12.272
96717SOL     OW92047   7.388  12.171  12.457
96717SOL    HW192048   7.415  12.189  12.547
96717SOL    HW292049   7.432  12.238  12.405
96718SOL     OW92050  12.594   7.759  11.790
96718SOL    HW192051  12.603   7.795  11.879
96718SOL    HW292052  12.583   7.836  11.734
96719SOL     OW92053   2.416   0.444   9.793
96719SOL    HW192054   2.399   0.514   9.856
96719SOL    HW292055   2.469   0.381   9.842
96720SOL     OW92056   1.445   5.943   3.516
96720SOL    HW192057   1.365   5.899   3.489
96720SOL    HW292058   1.458   6.012   3.451
96721SOL     OW92059   9.410  12.991  11.940
96721SOL    HW192060   9.372  12.949  12.017
96721SOL    HW292061   9.335  13.022  11.890
96722SOL     OW92062  13.235  14.518   8.745
96722SOL    HW192063  13.193  14.467   8.675
96722SOL    HW292064  13.328  14.513   8.726
96723SOL     OW92065   0.203   3.374   3.273
96723SOL    HW192066   0.197   3.405   3.363
96723SOL    HW292067   0.144   3.298   3.270
96724SOL     OW92068   5.752   3.334   9.676
96724SOL    HW192069   5.802   3.276   9.734
96724SOL    HW292070   5.701   3.274   9.621
96725SOL     OW92071   2.837   0.182   6.796
96725SOL    HW192072   2.901   0.159   6.864
96725SOL    HW292073   2.759   0.206   6.845
96726SOL     OW92074   7.706  12.167  11.587
96726SOL    HW192075   7.693  12.107  11.513
96726SOL    HW292076   7.754  12.115  11.651
96727SOL     OW92077  14.248   9.901   9.536
96727SOL    HW192078  14.317   9.851   9.580
96727SOL    HW292079  14.171   9.844   9.543
96728SOL     OW92080  13.650   1.391  13.360
96728SOL    HW192081  13.680   1.338  13.433
96728SOL    HW292082  13.557   1.404  13.375
96729SOL     OW92083   8.181  10.042   6.832
96729SOL    HW192084   8.164  10.135   6.849
96729SOL    HW292085   8.266  10.025   6.872
96730SOL     OW92086  10.332   9.290  11.536
96730SOL    HW192087  10.369   9.237  11.606
96730SOL    HW292088  10.265   9.234  11.496
96731SOL     OW92089   4.537   9.443   9.819
96731SOL    HW192090   4.525   9.453   9.913
96731SOL    HW292091   4.581   9.358   9.809
96732SOL     OW92092   7.951  11.821   8.194
96732SOL    HW192093   7.881  11.825   8.128
96732SOL    HW292094   7.919  11.876   8.266
96733SOL     OW92095   3.567   2.214  12.858
96733SOL    HW192096   3.476   2.226  12.829
96733SOL    HW292097   3.620   2.250  12.787
96734SOL     OW92098  10.369   6.751   0.729
96734SOL    HW192099  10.433   6.722   0.664
96734SOL    HW292100  10.309   6.808   0.680
96735SOL     OW92101   2.315   8.656  10.118
96735SOL    HW192102   2.385   8.714  10.088
96735SOL    HW292103   2.348   8.617  10.199
96736SOL     OW92104   4.848   3.375   9.626
96736SOL    HW192105   4.925   3.410   9.673
96736SOL    HW292106   4.774   3.423   9.663
96737SOL     OW92107   1.097   5.708   2.400
96737SOL    HW192108   1.150   5.784   2.376
96737SOL    HW292109   1.061   5.730   2.486
96738SOL     OW92110   7.145   8.641   4.606
96738SOL    HW192111   7.172   8.720   4.559
96738SOL    HW292112   7.216   8.579   4.590
96739SOL     OW92113  12.713   1.207   6.296
96739SOL    HW192114  12.691   1.221   6.388
96739SOL    HW292115  12.805   1.233   6.289
96740SOL     OW92116   9.528   1.572   4.099
96740SOL    HW192117   9.484   1.623   4.168
96740SOL    HW292118   9.461   1.557   4.033
96741SOL     OW92119  10.126   1.752  13.228
96741SOL    HW192120  10.043   1.730  13.271
96741SOL    HW292121  10.191   1.696  13.271
96742SOL     OW92122   1.310   1.751   4.997
96742SOL    HW192123   1.318   1.846   4.990
96742SOL    HW292124   1.216   1.735   5.003
96743SOL     OW92125   3.712   0.923  13.506
96743SOL    HW192126   3.732   0.977  13.430
96743SOL    HW292127   3.619   0.936  13.522
96744SOL     OW92128   5.144  14.753   3.957
96744SOL    HW192129   5.203  14.678   3.969
96744SOL    HW292130   5.123  14.781   4.046
96745SOL     OW92131   3.547   7.448   4.036
96745SOL    HW192132   3.577   7.467   3.947
96745SOL    HW292133   3.478   7.511   4.053
96746SOL     OW92134   6.576  14.482  11.452
96746SOL    HW192135   6.520  14.450  11.523
96746SOL    HW292136   6.522  14.473  11.373
96747SOL     OW92137   8.624   5.978   7.288
96747SOL    HW192138   8.704   5.977   7.235
96747SOL    HW292139   8.654   5.970   7.378
96748SOL     OW92140   5.523  10.392   0.300
96748SOL    HW192141   5.450  10.340   0.335
96748SOL    HW292142   5.523  10.372   0.206
96749SOL     OW92143  14.499  13.953   8.471
96749SOL    HW192144  14.419  14.001   8.491
96749SOL    HW292145  14.470  13.873   8.429
96750SOL     OW92146   6.324  11.359   0.600
96750SOL    HW192147   6.259  11.403   0.546
96750SOL    HW292148   6.374  11.304   0.539
96751SOL     OW92149  13.267   8.069   1.233
96751SOL    HW192150  13.224   8.132   1.290
96751SOL    HW292151  13.197   8.033   1.179
96752SOL     OW92152  14.171  13.547   6.103
96752SOL    HW192153  14.192  13.638   6.124
96752SOL    HW292154  14.076  13.543   6.108
96753SOL     OW92155   2.726   6.702   9.818
96753SOL    HW192156   2.790   6.708   9.890
96753SOL    HW292157   2.720   6.608   9.800
96754SOL     OW92158   2.510   6.165   0.290
96754SOL    HW192159   2.465   6.113   0.357
96754SOL    HW292160   2.451   6.238   0.272
96755SOL     OW92161   9.449  10.474  14.180
96755SOL    HW192162   9.463  10.381  14.168
96755SOL    HW292163   9.354  10.484  14.188
96756SOL     OW92164   7.518  11.715  14.807
96756SOL    HW192165   7.505  11.703  14.713
96756SOL    HW292166   7.536  11.808  14.818
96757SOL     OW92167   9.482   0.969   6.176
96757SOL    HW192168   9.553   0.942   6.117
96757SOL    HW292169   9.448   0.888   6.212
96758SOL     OW92170  10.055  10.360   5.414
96758SOL    HW192171   9.995  10.315   5.354
96758SOL    HW292172  10.075  10.295   5.481
96759SOL     OW92173   1.096   4.796   3.198
96759SOL    HW192174   1.175   4.849   3.207
96759SOL    HW292175   1.092   4.776   3.104
96760SOL     OW92176  14.553  14.800   8.035
96760SOL    HW192177  14.487  14.869   8.027
96760SOL    HW292178  14.631  14.845   8.067
96761SOL     OW92179   0.142   1.728   2.925
96761SOL    HW192180   0.056   1.702   2.890
96761SOL    HW292181   0.127   1.814   2.965
96762SOL     OW92182  13.076   4.644   0.439
96762SOL    HW192183  13.001   4.585   0.429
96762SOL    HW292184  13.096   4.672   0.350
96763SOL     OW92185   1.891   5.778   1.346
96763SOL    HW192186   1.819   5.817   1.297
96763SOL    HW292187   1.960   5.765   1.281
96764SOL     OW92188  12.276  13.871   8.913
96764SOL    HW192189  12.277  13.904   8.823
96764SOL    HW292190  12.197  13.910   8.951
96765SOL     OW92191   4.247   1.274   6.273
96765SOL    HW192192   4.310   1.250   6.341
96765SOL    HW292193   4.225   1.365   6.291
96766SOL     OW92194  10.372   8.292   8.000
96766SOL    HW192195  10.367   8.385   7.979
96766SOL    HW292196  10.379   8.249   7.915
96767SOL     OW92197   1.557   2.725  11.473
96767SOL    HW192198   1.616   2.752  11.402
96767SOL    HW292199   1.482   2.686  11.429
96768SOL     OW92200   2.790   4.648   8.711
96768SOL    HW192201   2.728   4.580   8.737
96768SOL    HW292202   2.841   4.608   8.640
96769SOL     OW92203  13.533   2.377  10.245
96769SOL    HW192204  13.612   2.431  10.247
96769SOL    HW292205  13.477   2.414  10.314
96770SOL     OW92206   6.770  10.789   8.462
96770SOL    HW192207   6.676  10.787   8.444
96770SOL    HW292208   6.780  10.861   8.524
96771SOL     OW92209   7.322   5.618   8.117
96771SOL    HW192210   7.391   5.551   8.116
96771SOL    HW292211   7.358   5.690   8.065
96772SOL     OW92212   0.499   6.637   7.689
96772SOL    HW192213   0.438   6.644   7.763
96772SOL    HW292214   0.579   6.601   7.727
96773SOL     OW92215   4.365  12.301   8.938
96773SOL    HW192216   4.380  12.254   8.856
96773SOL    HW292217   4.381  12.393   8.916
96774SOL     OW92218  12.045   2.544   5.217
96774SOL    HW192219  12.077   2.460   5.186
96774SOL    HW292220  11.996   2.580   5.144
96775SOL     OW92221  12.241   6.011   6.323
96775SOL    HW192222  12.304   6.014   6.395
96775SOL    HW292223  12.240   6.101   6.288
96776SOL     OW92224  10.008  14.351   0.484
96776SOL    HW192225  10.073  14.315   0.545
96776SOL    HW292226   9.926  14.308   0.510
96777SOL     OW92227   1.263   9.891   6.301
96777SOL    HW192228   1.306   9.964   6.258
96777SOL    HW292229   1.191   9.867   6.243
96778SOL     OW92230   4.893   4.109   6.673
96778SOL    HW192231   4.910   4.201   6.656
96778SOL    HW292232   4.797   4.101   6.670
96779SOL     OW92233  14.251  11.723  10.084
96779SOL    HW192234  14.278  11.803  10.128
96779SOL    HW292235  14.214  11.753  10.001
96780SOL     OW92236   3.858   2.096   6.227
96780SOL    HW192237   3.939   2.051   6.254
96780SOL    HW292238   3.887   2.161   6.163
96781SOL     OW92239   7.043   9.061   0.982
96781SOL    HW192240   6.998   9.145   0.977
96781SOL    HW292241   7.129   9.078   0.945
96782SOL     OW92242   7.089   2.740   6.806
96782SOL    HW192243   7.140   2.734   6.725
96782SOL    HW292244   7.130   2.811   6.855
96783SOL     OW92245   1.262   1.882   3.563
96783SOL    HW192246   1.327   1.922   3.620
96783SOL    HW292247   1.288   1.909   3.475
96784SOL     OW92248   3.992   6.634  12.868
96784SOL    HW192249   4.001   6.575  12.793
96784SOL    HW292250   4.080   6.669  12.882
96785SOL     OW92251   1.452   7.971   1.603
96785SOL    HW192252   1.495   7.930   1.679
96785SOL    HW292253   1.397   8.039   1.641
96786SOL     OW92254  12.285  14.516  14.224
96786SOL    HW192255  12.209  14.474  14.263
96786SOL    HW292256  12.313  14.457  14.154
96787SOL     OW92257   0.803  10.762  10.878
96787SOL    HW192258   0.758  10.771  10.794
96787SOL    HW292259   0.875  10.701  10.860
96788SOL     OW92260   1.147   6.487   2.857
96788SOL    HW192261   1.073   6.523   2.808
96788SOL    HW292262   1.110   6.464   2.942
96789SOL     OW92263  10.841  12.410   4.334
96789SOL    HW192264  10.914  12.469   4.354
96789SOL    HW292265  10.865  12.328   4.377
96790SOL     OW92266   8.360   4.485  10.453
96790SOL    HW192267   8.393   4.426  10.385
96790SOL    HW292268   8.298   4.542  10.407
96791SOL     OW92269   9.008  11.727   1.588
96791SOL    HW192270   9.063  11.734   1.510
96791SOL    HW292271   8.926  11.771   1.564
96792SOL     OW92272   8.766  12.110  11.218
96792SOL    HW192273   8.825  12.171  11.262
96792SOL    HW292274   8.768  12.136  11.126
96793SOL     OW92275   6.471  13.494  13.523
96793SOL    HW192276   6.524  13.435  13.576
96793SOL    HW292277   6.518  13.577  13.525
96794SOL     OW92278   0.082   0.549   1.869
96794SOL    HW192279   0.065   0.466   1.914
96794SOL    HW292280   0.012   0.607   1.899
96795SOL     OW92281   7.560  10.983   8.930
96795SOL    HW192282   7.557  10.916   8.998
96795SOL    HW292283   7.495  10.955   8.865
96796SOL     OW92284  12.650   3.039  13.226
96796SOL    HW192285  12.610   3.109  13.174
96796SOL    HW292286  12.681   2.975  13.162
96797SOL     OW92287   6.514  11.803  13.527
96797SOL    HW192288   6.474  11.719  13.550
96797SOL    HW292289   6.472  11.828  13.445
96798SOL     OW92290  13.578   6.925   8.674
96798SOL    HW192291  13.657   6.905   8.624
96798SOL    HW292292  13.590   7.016   8.703
96799SOL     OW92293   9.807   3.077  10.083
96799SOL    HW192294   9.720   3.101  10.116
96799SOL    HW292295   9.794   2.993  10.038
96800SOL     OW92296   9.086  11.126  14.614
96800SOL    HW192297   9.044  11.212  14.610
96800SOL    HW292298   9.154  11.136  14.681
96801SOL     OW92299   3.207   4.670   1.257
96801SOL    HW192300   3.223   4.759   1.286
96801SOL    HW292301   3.123   4.646   1.296
96802SOL     OW92302  10.242   4.728   0.474
96802SOL    HW192303  10.200   4.778   0.404
96802SOL    HW292304  10.252   4.791   0.546
96803SOL     OW92305  10.069   1.797   0.303
96803SOL    HW192306  10.048   1.782   0.211
96803SOL    HW292307  10.159   1.828   0.303
96804SOL     OW92308   0.981   2.340   5.829
96804SOL    HW192309   0.953   2.369   5.916
96804SOL    HW292310   0.984   2.245   5.836
96805SOL     OW92311   1.340  14.367   5.129
96805SOL    HW192312   1.397  14.422   5.183
96805SOL    HW292313   1.395  14.341   5.055
96806SOL     OW92314   1.308  12.825  11.950
96806SOL    HW192315   1.249  12.851  12.021
96806SOL    HW292316   1.268  12.746  11.913
96807SOL     OW92317   5.379   4.113   1.798
96807SOL    HW192318   5.372   4.022   1.824
96807SOL    HW292319   5.288   4.144   1.792
96808SOL     OW92320   6.630   4.534   7.791
96808SOL    HW192321   6.617   4.453   7.742
96808SOL    HW292322   6.613   4.510   7.882
96809SOL     OW92323   4.613   2.246  12.218
96809SOL    HW192324   4.590   2.181  12.151
96809SOL    HW292325   4.612   2.330  12.172
96810SOL     OW92326   8.749  13.197  10.005
96810SOL    HW192327   8.697  13.234  10.077
96810SOL    HW292328   8.800  13.271   9.972
96811SOL     OW92329   6.997   1.943   9.994
96811SOL    HW192330   7.005   1.896   9.910
96811SOL    HW292331   6.903   1.958  10.003
96812SOL     OW92332  13.262  13.172   5.838
96812SOL    HW192333  13.349  13.175   5.800
96812SOL    HW292334  13.263  13.093   5.893
96813SOL     OW92335   7.190   2.733   1.045
96813SOL    HW192336   7.270   2.716   0.995
96813SOL    HW292337   7.172   2.826   1.031
96814SOL     OW92338  14.546   3.425  13.935
96814SOL    HW192339  14.505   3.346  13.902
96814SOL    HW292340  14.476   3.491  13.933
96815SOL     OW92341   5.838  14.167  11.170
96815SOL    HW192342   5.909  14.110  11.139
96815SOL    HW292343   5.880  14.224  11.234
96816SOL     OW92344  12.366   3.978   1.554
96816SOL    HW192345  12.381   3.903   1.611
96816SOL    HW292346  12.299   4.029   1.599
96817SOL     OW92347   4.132   0.843   2.567
96817SOL    HW192348   4.121   0.762   2.517
96817SOL    HW292349   4.131   0.816   2.658
96818SOL     OW92350   7.333   9.236  13.769
96818SOL    HW192351   7.311   9.299  13.700
96818SOL    HW292352   7.288   9.269  13.847
96819SOL     OW92353  10.594   4.620   9.718
96819SOL    HW192354  10.574   4.615   9.624
96819SOL    HW292355  10.590   4.714   9.738
96820SOL     OW92356   8.721   7.955   1.705
96820SOL    HW192357   8.661   8.029   1.695
96820SOL    HW292358   8.773   7.977   1.783
96821SOL     OW92359  10.397   9.792  10.762
96821SOL    HW192360  10.475   9.807  10.709
96821SOL    HW292361  10.325   9.832  10.713
96822SOL     OW92362   2.841   4.946   3.115
96822SOL    HW192363   2.821   4.921   3.205
96822SOL    HW292364   2.763   4.993   3.085
96823SOL     OW92365   8.282   3.301   7.974
96823SOL    HW192366   8.311   3.385   8.009
96823SOL    HW292367   8.190   3.314   7.953
96824SOL     OW92368   9.494   4.669  11.368
96824SOL    HW192369   9.449   4.664  11.284
96824SOL    HW292370   9.424   4.664  11.433
96825SOL     OW92371  12.826  12.592   8.556
96825SOL    HW192372  12.790  12.618   8.641
96825SOL    HW292373  12.765  12.628   8.492
96826SOL     OW92374   8.261   2.077  13.659
96826SOL    HW192375   8.267   2.168  13.687
96826SOL    HW292376   8.168   2.056  13.665
96827SOL     OW92377   1.067  11.511   2.221
96827SOL    HW192378   0.973  11.527   2.223
96827SOL    HW292379   1.078  11.426   2.264
96828SOL     OW92380  14.647  10.146   2.915
96828SOL    HW192381  14.660  10.066   2.966
96828SOL    HW292382  14.611  10.209   2.977
96829SOL     OW92383   8.773  11.492   5.654
96829SOL    HW192384   8.839  11.437   5.697
96829SOL    HW292385   8.691  11.469   5.697
96830SOL     OW92386   8.611  12.036  11.950
96830SOL    HW192387   8.578  11.951  11.919
96830SOL    HW292388   8.659  12.015  12.029
96831SOL     OW92389   0.534  11.655  14.579
96831SOL    HW192390   0.621  11.646  14.541
96831SOL    HW292391   0.498  11.734  14.538
96832SOL     OW92392  12.620   3.161   2.680
96832SOL    HW192393  12.644   3.225   2.614
96832SOL    HW292394  12.549   3.202   2.730
96833SOL     OW92395   6.704   6.876   6.731
96833SOL    HW192396   6.629   6.900   6.784
96833SOL    HW292397   6.690   6.921   6.647
96834SOL     OW92398   5.433   2.539   1.266
96834SOL    HW192399   5.368   2.603   1.236
96834SOL    HW292400   5.439   2.552   1.361
96835SOL     OW92401   3.304  10.006   3.516
96835SOL    HW192402   3.268   9.980   3.601
96835SOL    HW292403   3.392   9.968   3.515
96836SOL     OW92404  12.939   1.465   3.882
96836SOL    HW192405  12.888   1.422   3.813
96836SOL    HW292406  13.005   1.515   3.834
96837SOL     OW92407   9.119  12.241  14.455
96837SOL    HW192408   9.193  12.184  14.475
96837SOL    HW292409   9.149  12.329  14.478
96838SOL     OW92410  13.180   0.191   6.905
96838SOL    HW192411  13.209   0.136   6.977
96838SOL    HW292412  13.145   0.130   6.840
96839SOL     OW92413  10.730  10.653  12.597
96839SOL    HW192414  10.679  10.625  12.672
96839SOL    HW292415  10.819  10.665  12.631
96840SOL     OW92416   0.774  13.795  10.673
96840SOL    HW192417   0.822  13.789  10.756
96840SOL    HW292418   0.747  13.705  10.655
96841SOL     OW92419   6.405   7.116   8.611
96841SOL    HW192420   6.397   7.206   8.641
96841SOL    HW292421   6.486   7.114   8.561
96842SOL     OW92422   5.829   6.680  11.451
96842SOL    HW192423   5.868   6.594  11.440
96842SOL    HW292424   5.814   6.688  11.546
96843SOL     OW92425  10.710  10.582  11.311
96843SOL    HW192426  10.727  10.637  11.387
96843SOL    HW292427  10.765  10.505  11.325
96844SOL     OW92428   9.640   9.889   9.271
96844SOL    HW192429   9.550   9.858   9.286
96844SOL    HW292430   9.694   9.812   9.283
96845SOL     OW92431  12.648  12.310   4.167
96845SOL    HW192432  12.570  12.277   4.122
96845SOL    HW292433  12.679  12.381   4.111
96846SOL     OW92434   1.050  11.415  10.447
96846SOL    HW192435   1.093  11.388  10.528
96846SOL    HW292436   0.996  11.490  10.471
96847SOL     OW92437   1.130  11.456   8.250
96847SOL    HW192438   1.147  11.494   8.336
96847SOL    HW292439   1.049  11.406   8.262
96848SOL     OW92440   7.724  11.062   3.127
96848SOL    HW192441   7.703  11.149   3.093
96848SOL    HW292442   7.773  11.078   3.208
96849SOL     OW92443  11.421   6.855   5.928
96849SOL    HW192444  11.433   6.885   5.838
96849SOL    HW292445  11.499   6.803   5.946
96850SOL     OW92446   2.380  11.812   1.992
96850SOL    HW192447   2.334  11.731   2.017
96850SOL    HW292448   2.403  11.853   2.075
96851SOL     OW92449   4.261   8.563   0.152
96851SOL    HW192450   4.335   8.588   0.207
96851SOL    HW292451   4.286   8.478   0.115
96852SOL     OW92452  13.144   0.882   8.781
96852SOL    HW192453  13.235   0.870   8.810
96852SOL    HW292454  13.151   0.914   8.691
96853SOL     OW92455  12.511   5.791   5.647
96853SOL    HW192456  12.548   5.731   5.581
96853SOL    HW292457  12.504   5.738   5.726
96854SOL     OW92458   6.039  11.075   2.451
96854SOL    HW192459   6.110  11.084   2.514
96854SOL    HW292460   6.062  11.136   2.380
96855SOL     OW92461   4.914   6.081  12.640
96855SOL    HW192462   4.854   6.089  12.715
96855SOL    HW292463   4.899   5.992  12.608
96856SOL     OW92464  10.069   2.964   2.215
96856SOL    HW192465  10.124   2.996   2.143
96856SOL    HW292466  10.126   2.904   2.263
96857SOL     OW92467   2.533   5.319  13.678
96857SOL    HW192468   2.614   5.337  13.725
96857SOL    HW292469   2.472   5.386  13.708
96858SOL     OW92470   3.938   2.831   7.824
96858SOL    HW192471   4.012   2.787   7.783
96858SOL    HW292472   3.974   2.911   7.861
96859SOL     OW92473   4.030   9.558   0.781
96859SOL    HW192474   4.000   9.534   0.869
96859SOL    HW292475   4.048   9.652   0.788
96860SOL     OW92476   0.466  12.707   3.914
96860SOL    HW192477   0.540  12.706   3.975
96860SOL    HW292478   0.391  12.684   3.968
96861SOL     OW92479   8.170   0.538  12.686
96861SOL    HW192480   8.083   0.556  12.723
96861SOL    HW292481   8.221   0.504  12.760
96862SOL     OW92482   8.620   7.325   8.092
96862SOL    HW192483   8.535   7.304   8.129
96862SOL    HW292484   8.681   7.269   8.140
96863SOL     OW92485  11.745  10.881   3.196
96863SOL    HW192486  11.814  10.839   3.145
96863SOL    HW292487  11.752  10.843   3.283
96864SOL     OW92488   3.848   5.776   1.580
96864SOL    HW192489   3.809   5.821   1.654
96864SOL    HW292490   3.812   5.688   1.583
96865SOL     OW92491  12.328  11.185   3.348
96865SOL    HW192492  12.344  11.117   3.283
96865SOL    HW292493  12.342  11.267   3.301
96866SOL     OW92494   1.178   8.233   8.121
96866SOL    HW192495   1.258   8.278   8.094
96866SOL    HW292496   1.123   8.302   8.159
96867SOL     OW92497  12.784  13.743  12.443
96867SOL    HW192498  12.872  13.713  12.422
96867SOL    HW292499  12.726  13.684  12.394
96868SOL     OW92500   6.299  10.831  14.095
96868SOL    HW192501   6.219  10.876  14.123
96868SOL    HW292502   6.325  10.779  14.170
96869SOL     OW92503   1.344  12.886   5.617
96869SOL    HW192504   1.344  12.871   5.712
96869SOL    HW292505   1.436  12.890   5.593
96870SOL     OW92506   3.941   4.583   5.958
96870SOL    HW192507   3.935   4.577   6.053
96870SOL    HW292508   3.850   4.585   5.928
96871SOL     OW92509   7.694   8.184  11.779
96871SOL    HW192510   7.705   8.149  11.868
96871SOL    HW292511   7.599   8.189  11.768
96872SOL     OW92512  14.296  12.145   4.314
96872SOL    HW192513  14.277  12.198   4.391
96872SOL    HW292514  14.381  12.177   4.282
96873SOL     OW92515   8.117  14.401  10.268
96873SOL    HW192516   8.197  14.397  10.321
96873SOL    HW292517   8.079  14.486  10.287
96874SOL     OW92518   1.508   2.360   9.034
96874SOL    HW192519   1.563   2.342   9.111
96874SOL    HW292520   1.419   2.340   9.063
96875SOL     OW92521   9.885   0.095   3.427
96875SOL    HW192522   9.965   0.111   3.377
96875SOL    HW292523   9.833   0.174   3.413
96876SOL     OW92524   8.980   1.499  13.999
96876SOL    HW192525   8.973   1.494  14.094
96876SOL    HW292526   8.957   1.590  13.978
96877SOL     OW92527   8.653   7.990   4.631
96877SOL    HW192528   8.676   8.083   4.635
96877SOL    HW292529   8.619   7.970   4.719
96878SOL     OW92530   7.337   9.957   7.654
96878SOL    HW192531   7.341  10.013   7.576
96878SOL    HW292532   7.278   9.887   7.630
96879SOL     OW92533  10.565   5.537  14.604
96879SOL    HW192534  10.650   5.511  14.640
96879SOL    HW292535  10.571   5.512  14.511
96880SOL     OW92536   2.217  11.873   2.871
96880SOL    HW192537   2.202  11.784   2.840
96880SOL    HW292538   2.308  11.874   2.900
96881SOL     OW92539   3.516   1.591   3.394
96881SOL    HW192540   3.550   1.678   3.373
96881SOL    HW292541   3.587   1.550   3.444
96882SOL     OW92542   1.926   1.558   4.961
96882SOL    HW192543   2.017   1.529   4.955
96882SOL    HW292544   1.900   1.537   5.050
96883SOL     OW92545  14.402   6.014   3.722
96883SOL    HW192546  14.480   6.068   3.735
96883SOL    HW292547  14.384   5.978   3.809
96884SOL     OW92548   2.273   4.463   4.363
96884SOL    HW192549   2.208   4.394   4.351
96884SOL    HW292550   2.260   4.521   4.287
96885SOL     OW92551   7.747   1.907  14.106
96885SOL    HW192552   7.666   1.952  14.083
96885SOL    HW292553   7.750   1.908  14.201
96886SOL     OW92554   5.916   7.196   0.229
96886SOL    HW192555   5.973   7.140   0.282
96886SOL    HW292556   5.860   7.135   0.182
96887SOL     OW92557   9.153   1.102   5.582
96887SOL    HW192558   9.140   1.188   5.542
96887SOL    HW292559   9.068   1.059   5.576
96888SOL     OW92560   0.813  11.461  13.138
96888SOL    HW192561   0.763  11.392  13.095
96888SOL    HW292562   0.875  11.415  13.194
96889SOL     OW92563   5.018   9.653   4.016
96889SOL    HW192564   5.106   9.688   3.997
96889SOL    HW292565   5.027   9.616   4.104
96890SOL     OW92566   4.814   5.677   1.850
96890SOL    HW192567   4.817   5.733   1.928
96890SOL    HW292568   4.813   5.588   1.884
96891SOL     OW92569  12.121   4.059   7.480
96891SOL    HW192570  12.035   4.071   7.521
96891SOL    HW292571  12.108   3.989   7.417
96892SOL     OW92572  10.386   6.312   7.204
96892SOL    HW192573  10.344   6.366   7.270
96892SOL    HW292574  10.314   6.277   7.151
96893SOL     OW92575   7.117  10.939   0.755
96893SOL    HW192576   7.044  10.989   0.791
96893SOL    HW292577   7.195  10.979   0.793
96894SOL     OW92578  14.540  13.858   7.202
96894SOL    HW192579  14.497  13.773   7.201
96894SOL    HW292580  14.621  13.845   7.251
96895SOL     OW92581   4.416   5.448  11.731
96895SOL    HW192582   4.463   5.412  11.806
96895SOL    HW292583   4.330   5.405  11.734
96896SOL     OW92584   9.709  10.454   1.087
96896SOL    HW192585   9.650  10.489   1.020
96896SOL    HW292586   9.760  10.387   1.040
96897SOL     OW92587  10.462  12.842   5.092
96897SOL    HW192588  10.491  12.876   5.007
96897SOL    HW292589  10.511  12.761   5.104
96898SOL     OW92590   3.319  10.370  11.100
96898SOL    HW192591   3.409  10.340  11.104
96898SOL    HW292592   3.309  10.429  11.175
96899SOL     OW92593  10.608   0.149  13.253
96899SOL    HW192594  10.638   0.185  13.169
96899SOL    HW292595  10.620   0.221  13.315
96900SOL     OW92596   6.897   4.521   7.352
96900SOL    HW192597   6.989   4.497   7.359
96900SOL    HW292598   6.850   4.437   7.350
96901SOL     OW92599   7.554   1.384  13.945
96901SOL    HW192600   7.548   1.291  13.966
96901SOL    HW292601   7.642   1.394  13.908
96902SOL     OW92602   6.516   8.795   5.033
96902SOL    HW192603   6.432   8.807   4.990
96902SOL    HW292604   6.530   8.700   5.033
96903SOL     OW92605   6.159   5.262  10.637
96903SOL    HW192606   6.187   5.344  10.677
96903SOL    HW292607   6.096   5.225  10.700
96904SOL     OW92608   3.189   0.341   0.414
96904SOL    HW192609   3.114   0.335   0.474
96904SOL    HW292610   3.258   0.291   0.457
96905SOL     OW92611   3.586   2.810  14.143
96905SOL    HW192612   3.634   2.853  14.213
96905SOL    HW292613   3.607   2.861  14.064
96906SOL     OW92614  10.772   1.934   3.915
96906SOL    HW192615  10.726   1.999   3.967
96906SOL    HW292616  10.844   1.904   3.971
96907SOL     OW92617   5.729   1.594   8.464
96907SOL    HW192618   5.718   1.688   8.451
96907SOL    HW292619   5.730   1.558   8.375
96908SOL     OW92620   3.433   8.197  12.640
96908SOL    HW192621   3.505   8.239  12.686
96908SOL    HW292622   3.408   8.123  12.696
96909SOL     OW92623  12.467   9.084  13.644
96909SOL    HW192624  12.395   9.041  13.688
96909SOL    HW292625  12.526   9.111  13.715
96910SOL     OW92626   7.959   7.255   7.813
96910SOL    HW192627   7.960   7.164   7.784
96910SOL    HW292628   7.929   7.251   7.904
96911SOL     OW92629   6.399   6.036   1.368
96911SOL    HW192630   6.305   6.057   1.367
96911SOL    HW292631   6.426   6.057   1.458
96912SOL     OW92632  13.002  12.444   5.576
96912SOL    HW192633  13.062  12.417   5.645
96912SOL    HW292634  12.961  12.363   5.547
96913SOL     OW92635   0.594   0.281   9.967
96913SOL    HW192636   0.518   0.235  10.002
96913SOL    HW292637   0.591   0.367  10.009
96914SOL     OW92638  14.422   6.001   9.744
96914SOL    HW192639  14.501   5.978   9.793
96914SOL    HW292640  14.435   6.093   9.720
96915SOL     OW92641  13.929   4.607  10.813
96915SOL    HW192642  13.966   4.542  10.753
96915SOL    HW292643  13.930   4.564  10.898
96916SOL     OW92644   7.929  12.634  11.704
96916SOL    HW192645   7.960  12.681  11.626
96916SOL    HW292646   8.005  12.583  11.733
96917SOL     OW92647   0.689   1.757   0.427
96917SOL    HW192648   0.662   1.849   0.418
96917SOL    HW292649   0.713   1.748   0.519
96918SOL     OW92650   6.282   5.570   4.940
96918SOL    HW192651   6.237   5.628   5.002
96918SOL    HW292652   6.374   5.573   4.968
96919SOL     OW92653   1.684  13.358   0.239
96919SOL    HW192654   1.699  13.403   0.322
96919SOL    HW292655   1.620  13.413   0.193
96920SOL     OW92656  13.744   4.056   7.935
96920SOL    HW192657  13.759   3.994   7.863
96920SOL    HW292658  13.811   4.035   7.999
96921SOL     OW92659  11.718   5.459   3.758
96921SOL    HW192660  11.791   5.462   3.820
96921SOL    HW292661  11.758   5.476   3.673
96922SOL     OW92662  13.413  11.739   9.235
96922SOL    HW192663  13.344  11.688   9.194
96922SOL    HW292664  13.368  11.791   9.302
96923SOL     OW92665   6.765   6.518  14.349
96923SOL    HW192666   6.835   6.524  14.284
96923SOL    HW292667   6.722   6.435  14.329
96924SOL     OW92668  10.756   9.755   4.038
96924SOL    HW192669  10.779   9.672   4.080
96924SOL    HW292670  10.824   9.816   4.065
96925SOL     OW92671   5.442  12.679   7.304
96925SOL    HW192672   5.349  12.657   7.304
96925SOL    HW292673   5.487  12.595   7.308
96926SOL     OW92674  13.856  13.315   2.520
96926SOL    HW192675  13.806  13.315   2.602
96926SOL    HW292676  13.872  13.408   2.502
96927SOL     OW92677   4.761   4.939   0.607
96927SOL    HW192678   4.757   4.851   0.571
96927SOL    HW292679   4.670   4.971   0.604
96928SOL     OW92680  12.379   4.793  10.791
96928SOL    HW192681  12.388   4.704  10.825
96928SOL    HW292682  12.360   4.847  10.867
96929SOL     OW92683   5.203  12.614  14.085
96929SOL    HW192684   5.134  12.550  14.100
96929SOL    HW292685   5.158  12.688  14.044
96930SOL     OW92686  10.491   6.355   4.854
96930SOL    HW192687  10.579   6.361   4.892
96930SOL    HW292688  10.434   6.332   4.928
96931SOL     OW92689   4.136  11.859   9.072
96931SOL    HW192690   4.173  11.820   9.151
96931SOL    HW292691   4.075  11.925   9.104
96932SOL     OW92692   9.172  12.548   6.105
96932SOL    HW192693   9.121  12.597   6.041
96932SOL    HW292694   9.144  12.457   6.093
96933SOL     OW92695   8.620   1.540   1.145
96933SOL    HW192696   8.604   1.615   1.087
96933SOL    HW292697   8.696   1.496   1.107
96934SOL     OW92698  11.239   8.731   3.888
96934SOL    HW192699  11.147   8.735   3.914
96934SOL    HW292700  11.257   8.637   3.879
96935SOL     OW92701   6.790   5.635  13.847
96935SOL    HW192702   6.725   5.680  13.902
96935SOL    HW292703   6.788   5.682  13.764
96936SOL     OW92704   3.523   0.094   4.676
96936SOL    HW192705   3.538   0.001   4.693
96936SOL    HW292706   3.531   0.103   4.581
96937SOL     OW92707  13.901  11.179   8.795
96937SOL    HW192708  13.938  11.175   8.883
96937SOL    HW292709  13.977  11.183   8.737
96938SOL     OW92710  12.385   2.153  12.256
96938SOL    HW192711  12.396   2.234  12.207
96938SOL    HW292712  12.308   2.112  12.218
96939SOL     OW92713  14.440   0.386   3.323
96939SOL    HW192714  14.460   0.340   3.404
96939SOL    HW292715  14.469   0.326   3.254
96940SOL     OW92716  14.078   9.731   5.699
96940SOL    HW192717  14.032   9.810   5.727
96940SOL    HW292718  14.010   9.663   5.698
96941SOL     OW92719  12.589   7.073   5.620
96941SOL    HW192720  12.644   7.034   5.552
96941SOL    HW292721  12.523   7.123   5.572
96942SOL     OW92722   9.769   9.079   1.701
96942SOL    HW192723   9.807   9.008   1.649
96942SOL    HW292724   9.736   9.141   1.635
96943SOL     OW92725   7.728   6.321  11.639
96943SOL    HW192726   7.706   6.310  11.546
96943SOL    HW292727   7.729   6.416  11.653
96944SOL     OW92728  12.019  12.628   0.691
96944SOL    HW192729  12.064  12.656   0.611
96944SOL    HW292730  12.031  12.533   0.693
96945SOL     OW92731   8.005  10.081   3.825
96945SOL    HW192732   8.019  10.132   3.905
96945SOL    HW292733   8.092  10.071   3.787
96946SOL     OW92734  14.872   4.118   6.983
96946SOL    HW192735   0.063   4.144   6.918
96946SOL    HW292736  14.789   4.146   6.945
96947SOL     OW92737  14.775  12.946   1.676
96947SOL    HW192738  14.815  12.875   1.726
96947SOL    HW292739  14.839  13.018   1.681
96948SOL     OW92740   4.009   3.708   4.174
96948SOL    HW192741   3.921   3.725   4.142
96948SOL    HW292742   4.001   3.715   4.270
96949SOL     OW92743   6.820   9.397   5.704
96949SOL    HW192744   6.749   9.333   5.693
96949SOL    HW292745   6.782   9.467   5.756
96950SOL     OW92746  11.338   3.587   9.112
96950SOL    HW192747  11.390   3.523   9.065
96950SOL    HW292748  11.251   3.580   9.074
96951SOL     OW92749  11.431  14.787   7.614
96951SOL    HW192750  11.368  14.720   7.588
96951SOL    HW292751  11.514  14.759   7.574
96952SOL     OW92752   9.731   0.504   3.607
96952SOL    HW192753   9.783   0.473   3.681
96952SOL    HW292754   9.683   0.580   3.641
96953SOL     OW92755   0.748   6.552   7.848
96953SOL    HW192756   0.760   6.590   7.935
96953SOL    HW292757   0.753   6.457   7.864
96954SOL     OW92758  14.010   8.463   7.001
96954SOL    HW192759  14.097   8.481   6.966
96954SOL    HW292760  14.019   8.380   7.047
96955SOL     OW92761  12.173   2.549   8.812
96955SOL    HW192762  12.101   2.487   8.804
96955SOL    HW292763  12.167   2.602   8.733
96956SOL     OW92764   5.774   2.803  13.439
96956SOL    HW192765   5.787   2.764  13.353
96956SOL    HW292766   5.738   2.890  13.421
96957SOL     OW92767  12.717   6.870  11.316
96957SOL    HW192768  12.704   6.776  11.301
96957SOL    HW292769  12.805   6.877  11.354
96958SOL     OW92770  13.356   8.008  14.576
96958SOL    HW192771  13.298   7.959  14.634
96958SOL    HW292772  13.444   7.988  14.609
96959SOL     OW92773   5.212   6.266   6.489
96959SOL    HW192774   5.218   6.174   6.516
96959SOL    HW292775   5.194   6.313   6.570
96960SOL     OW92776   7.655   0.937   5.989
96960SOL    HW192777   7.735   0.990   5.986
96960SOL    HW292778   7.594   0.982   5.932
96961SOL     OW92779   6.581   0.171  11.063
96961SOL    HW192780   6.491   0.140  11.069
96961SOL    HW292781   6.593   0.194  10.971
96962SOL     OW92782   2.133  12.317   9.994
96962SOL    HW192783   2.147  12.365  10.075
96962SOL    HW292784   2.193  12.242  10.000
96963SOL     OW92785   7.739   5.711   7.173
96963SOL    HW192786   7.659   5.736   7.128
96963SOL    HW292787   7.802   5.780   7.151
96964SOL     OW92788  14.069  11.150  11.207
96964SOL    HW192789  14.026  11.171  11.124
96964SOL    HW292790  14.108  11.064  11.192
96965SOL     OW92791   6.794   7.152  10.749
96965SOL    HW192792   6.889   7.143  10.742
96965SOL    HW292793   6.782   7.222  10.814
96966SOL     OW92794   1.129   2.862  12.852
96966SOL    HW192795   1.213   2.820  12.834
96966SOL    HW292796   1.153   2.947  12.891
96967SOL     OW92797   7.597   9.157   8.696
96967SOL    HW192798   7.526   9.170   8.759
96967SOL    HW292799   7.660   9.101   8.742
96968SOL     OW92800   5.434   3.068   3.379
96968SOL    HW192801   5.435   3.164   3.376
96968SOL    HW292802   5.523   3.044   3.405
96969SOL     OW92803   6.581  12.005   2.937
96969SOL    HW192804   6.671  12.036   2.937
96969SOL    HW292805   6.539  12.052   3.010
96970SOL     OW92806   4.662   4.291  11.141
96970SOL    HW192807   4.573   4.257  11.149
96970SOL    HW292808   4.654   4.384  11.164
96971SOL     OW92809  12.460   5.283   8.421
96971SOL    HW192810  12.513   5.231   8.361
96971SOL    HW292811  12.478   5.246   8.507
96972SOL     OW92812   2.079  14.544  13.029
96972SOL    HW192813   2.117  14.466  12.989
96972SOL    HW292814   2.127  14.617  12.989
96973SOL     OW92815   9.206  14.407   6.987
96973SOL    HW192816   9.275  14.460   7.027
96973SOL    HW292817   9.215  14.321   7.027
96974SOL     OW92818   9.205  12.018   2.912
96974SOL    HW192819   9.172  12.077   2.979
96974SOL    HW292820   9.139  11.949   2.905
96975SOL     OW92821  13.622  12.871  13.762
96975SOL    HW192822  13.602  12.781  13.787
96975SOL    HW292823  13.626  12.869  13.666
96976SOL     OW92824   5.625   3.719   0.716
96976SOL    HW192825   5.650   3.629   0.697
96976SOL    HW292826   5.531   3.714   0.734
96977SOL     OW92827  12.762  14.444   0.367
96977SOL    HW192828  12.733  14.392   0.442
96977SOL    HW292829  12.699  14.515   0.362
96978SOL     OW92830  10.419   0.671  10.104
96978SOL    HW192831  10.351   0.670  10.036
96978SOL    HW292832  10.501   0.665  10.055
96979SOL     OW92833   6.381   0.720   7.818
96979SOL    HW192834   6.310   0.662   7.789
96979SOL    HW292835   6.424   0.748   7.737
96980SOL     OW92836   6.884   6.697   4.565
96980SOL    HW192837   6.789   6.684   4.573
96980SOL    HW292838   6.893   6.778   4.515
96981SOL     OW92839   7.398   5.685   2.416
96981SOL    HW192840   7.476   5.738   2.402
96981SOL    HW292841   7.422   5.599   2.382
96982SOL     OW92842  13.184   7.349   6.802
96982SOL    HW192843  13.225   7.277   6.851
96982SOL    HW292844  13.176   7.316   6.713
96983SOL     OW92845   7.199   8.595  10.362
96983SOL    HW192846   7.201   8.684  10.397
96983SOL    HW292847   7.138   8.599  10.288
96984SOL     OW92848  14.607   2.100   4.670
96984SOL    HW192849  14.598   2.134   4.581
96984SOL    HW292850  14.518   2.075   4.695
96985SOL     OW92851   2.805   0.008  13.713
96985SOL    HW192852   2.861   0.057  13.773
96985SOL    HW292853   2.760   0.074  13.661
96986SOL     OW92854  11.783  11.386   5.550
96986SOL    HW192855  11.754  11.459   5.495
96986SOL    HW292856  11.878  11.382   5.535
96987SOL     OW92857  12.564  12.272  11.122
96987SOL    HW192858  12.540  12.197  11.177
96987SOL    HW292859  12.623  12.324  11.175
96988SOL     OW92860   0.378  13.722  10.473
96988SOL    HW192861   0.430  13.789  10.517
96988SOL    HW292862   0.293  13.727  10.516
96989SOL     OW92863   7.152   8.922  10.185
96989SOL    HW192864   7.149   8.956  10.096
96989SOL    HW292865   7.066   8.942  10.222
96990SOL     OW92866  12.655   9.019   8.285
96990SOL    HW192867  12.702   9.046   8.206
96990SOL    HW292868  12.589   8.957   8.254
96991SOL     OW92869  10.212   3.393   9.428
96991SOL    HW192870  10.138   3.332   9.420
96991SOL    HW292871  10.184   3.454   9.496
96992SOL     OW92872  12.674   0.836   5.283
96992SOL    HW192873  12.704   0.912   5.233
96992SOL    HW292874  12.582   0.856   5.304
96993SOL     OW92875  14.248   4.449   3.465
96993SOL    HW192876  14.342   4.444   3.446
96993SOL    HW292877  14.217   4.522   3.411
96994SOL     OW92878   3.958  10.587  13.500
96994SOL    HW192879   4.031  10.616  13.554
96994SOL    HW292880   3.886  10.574  13.562
96995SOL     OW92881   0.059  14.444   1.167
96995SOL    HW192882   0.102  14.509   1.112
96995SOL    HW292883  14.844  14.441   1.135
96996SOL     OW92884   4.815   3.867   0.550
96996SOL    HW192885   4.889   3.850   0.492
96996SOL    HW292886   4.793   3.959   0.533
96997SOL     OW92887   0.820  11.903  12.719
96997SOL    HW192888   0.896  11.956  12.697
96997SOL    HW292889   0.837  11.818  12.679
96998SOL     OW92890  10.409   1.836   1.206
96998SOL    HW192891  10.461   1.872   1.134
96998SOL    HW292892  10.318   1.853   1.181
96999SOL     OW92893   9.423   1.888   2.877
96999SOL    HW192894   9.432   1.837   2.796
96999SOL    HW292895   9.376   1.830   2.936
97000SOL     OW92896   8.065   0.444   2.080
97000SOL    HW192897   8.058   0.475   2.171
97000SOL    HW292898   8.058   0.523   2.027
97001SOL     OW92899   3.775  11.865   4.621
97001SOL    HW192900   3.857  11.860   4.572
97001SOL    HW292901   3.755  11.959   4.624
97002SOL     OW92902  11.723   1.208   6.123
97002SOL    HW192903  11.635   1.213   6.086
97002SOL    HW292904  11.714   1.155   6.202
97003SOL     OW92905   3.442  10.960   2.193
97003SOL    HW192906   3.455  11.026   2.125
97003SOL    HW292907   3.452  10.876   2.148
97004SOL     OW92908  12.379   3.534   5.865
97004SOL    HW192909  12.435   3.543   5.942
97004SOL    HW292910  12.399   3.447   5.830
97005SOL     OW92911  10.582   2.480  12.346
97005SOL    HW192912  10.552   2.391  12.332
97005SOL    HW292913  10.556   2.527  12.267
97006SOL     OW92914  10.816  12.489   3.875
97006SOL    HW192915  10.812  12.425   3.946
97006SOL    HW292916  10.841  12.437   3.798
97007SOL     OW92917   1.932   1.145  10.570
97007SOL    HW192918   1.946   1.078  10.637
97007SOL    HW292919   1.837   1.157  10.568
97008SOL     OW92920  12.506   2.047   4.818
97008SOL    HW192921  12.504   2.143   4.809
97008SOL    HW292922  12.449   2.030   4.893
97009SOL     OW92923   3.295   1.758   2.093
97009SOL    HW192924   3.356   1.697   2.135
97009SOL    HW292925   3.265   1.815   2.163
97010SOL     OW92926  11.811  10.306   1.533
97010SOL    HW192927  11.820  10.224   1.483
97010SOL    HW292928  11.852  10.372   1.478
97011SOL     OW92929   4.439   5.407   8.300
97011SOL    HW192930   4.495   5.330   8.293
97011SOL    HW292931   4.350   5.373   8.289
97012SOL     OW92932   8.268   3.064  12.359
97012SOL    HW192933   8.251   3.076  12.452
97012SOL    HW292934   8.287   3.152  12.326
97013SOL     OW92935  13.307   5.609  10.306
97013SOL    HW192936  13.401   5.594  10.299
97013SOL    HW292937  13.293   5.628  10.399
97014SOL     OW92938  13.407   1.061   9.221
97014SOL    HW192939  13.445   1.059   9.133
97014SOL    HW292940  13.468   1.112   9.273
97015SOL     OW92941  13.619  10.621  11.248
97015SOL    HW192942  13.682  10.610  11.320
97015SOL    HW292943  13.641  10.705  11.209
97016SOL     OW92944   7.688   8.332   1.904
97016SOL    HW192945   7.599   8.357   1.929
97016SOL    HW292946   7.734   8.415   1.892
97017SOL     OW92947  12.107   9.764   6.543
97017SOL    HW192948  12.071   9.679   6.515
97017SOL    HW292949  12.031   9.822   6.545
97018SOL     OW92950   7.144  13.998   0.722
97018SOL    HW192951   7.054  13.992   0.689
97018SOL    HW292952   7.190  13.926   0.680
97019SOL     OW92953   7.633  10.120  14.077
97019SOL    HW192954   7.602  10.176  14.148
97019SOL    HW292955   7.632  10.032  14.114
97020SOL     OW92956   1.775   3.162   9.396
97020SOL    HW192957   1.864   3.173   9.362
97020SOL    HW292958   1.722   3.226   9.348
97021SOL     OW92959  11.277   1.824   3.750
97021SOL    HW192960  11.249   1.778   3.671
97021SOL    HW292961  11.323   1.902   3.717
97022SOL     OW92962   6.755   3.685  10.310
97022SOL    HW192963   6.797   3.655  10.391
97022SOL    HW292964   6.676   3.729  10.339
97023SOL     OW92965   9.850  12.818  13.696
97023SOL    HW192966   9.877  12.806  13.605
97023SOL    HW292967   9.805  12.903  13.696
97024SOL     OW92968   9.484   0.540   0.446
97024SOL    HW192969   9.536   0.466   0.477
97024SOL    HW292970   9.440   0.573   0.524
97025SOL     OW92971   0.143   7.009   9.904
97025SOL    HW192972   0.077   7.074   9.930
97025SOL    HW292973   0.132   6.937   9.966
97026SOL     OW92974   5.523   3.218   0.554
97026SOL    HW192975   5.569   3.271   0.620
97026SOL    HW292976   5.593   3.180   0.501
97027SOL     OW92977   9.843   7.334   5.257
97027SOL    HW192978   9.851   7.241   5.238
97027SOL    HW292979   9.845   7.339   5.353
97028SOL     OW92980   8.580   9.723   1.955
97028SOL    HW192981   8.631   9.754   2.029
97028SOL    HW292982   8.629   9.646   1.923
97029SOL     OW92983   2.178  10.310   6.109
97029SOL    HW192984   2.161  10.221   6.079
97029SOL    HW292985   2.256  10.303   6.163
97030SOL     OW92986   3.794   0.422   7.687
97030SOL    HW192987   3.713   0.391   7.646
97030SOL    HW292988   3.770   0.504   7.728
97031SOL     OW92989  10.593   3.656   2.995
97031SOL    HW192990  10.515   3.621   2.950
97031SOL    HW292991  10.562   3.737   3.036
97032SOL     OW92992   2.552   3.802   4.322
97032SOL    HW192993   2.536   3.893   4.348
97032SOL    HW292994   2.624   3.807   4.260
97033SOL     OW92995  13.255   0.824   5.734
97033SOL    HW192996  13.186   0.823   5.668
97033SOL    HW292997  13.312   0.750   5.709
97034SOL     OW92998   3.066   6.826   6.337
97034SOL    HW192999   3.078   6.912   6.378
97034SOL    HW293000   3.151   6.806   6.298
97035SOL     OW93001  14.386  13.582   6.356
97035SOL    HW193002  14.301  13.601   6.395
97035SOL    HW293003  14.391  13.486   6.354
97036SOL     OW93004  14.378  14.639   8.818
97036SOL    HW193005  14.300  14.614   8.768
97036SOL    HW293006  14.375  14.585   8.897
97037SOL     OW93007  11.261   0.889   3.206
97037SOL    HW193008  11.259   0.794   3.199
97037SOL    HW293009  11.263   0.920   3.115
97038SOL     OW93010   1.859  10.880  10.141
97038SOL    HW193011   1.935  10.893  10.085
97038SOL    HW293012   1.785  10.873  10.080
97039SOL     OW93013   6.263  14.009  14.603
97039SOL    HW193014   6.315  13.930  14.616
97039SOL    HW293015   6.205  13.988  14.530
97040SOL     OW93016  12.383   4.192   1.273
97040SOL    HW193017  12.395   4.232   1.360
97040SOL    HW293018  12.425   4.106   1.281
97041SOL     OW93019   6.298   0.878   8.426
97041SOL    HW193020   6.322   0.969   8.446
97041SOL    HW293021   6.360   0.852   8.358
97042SOL     OW93022   5.922  11.860  10.019
97042SOL    HW193023   5.989  11.893   9.960
97042SOL    HW293024   5.970  11.834  10.098
97043SOL     OW93025   1.529  10.268  11.317
97043SOL    HW193026   1.495  10.271  11.228
97043SOL    HW293027   1.569  10.181  11.324
97044SOL     OW93028   1.956   8.370   4.093
97044SOL    HW193029   1.995   8.445   4.047
97044SOL    HW293030   1.923   8.407   4.175
97045SOL     OW93031   8.244   1.291   2.174
97045SOL    HW193032   8.206   1.207   2.198
97045SOL    HW293033   8.170   1.344   2.146
97046SOL     OW93034   5.817   0.311  13.834
97046SOL    HW193035   5.849   0.290  13.922
97046SOL    HW293036   5.780   0.229  13.802
97047SOL     OW93037   0.516   9.564   8.993
97047SOL    HW193038   0.441   9.507   9.009
97047SOL    HW293039   0.589   9.504   8.980
97048SOL     OW93040   5.070   9.596   9.514
97048SOL    HW193041   5.093   9.511   9.476
97048SOL    HW293042   4.978   9.587   9.540
97049SOL     OW93043   3.763  12.898   8.667
97049SOL    HW193044   3.769  12.920   8.759
97049SOL    HW293045   3.709  12.819   8.664
97050SOL     OW93046   5.580  14.551   0.186
97050SOL    HW193047   5.628  14.530   0.266
97050SOL    HW293048   5.488  14.552   0.213
97051SOL     OW93049   2.139  13.905   7.062
97051SOL    HW193050   2.197  13.831   7.042
97051SOL    HW293051   2.121  13.945   6.977
97052SOL     OW93052   2.790  13.191   8.727
97052SOL    HW193053   2.784  13.141   8.646
97052SOL    HW293054   2.732  13.266   8.713
97053SOL     OW93055  12.708   0.238  13.730
97053SOL    HW193056  12.799   0.261  13.748
97053SOL    HW293057  12.657   0.315  13.756
97054SOL     OW93058   0.157   3.458   2.734
97054SOL    HW193059   0.072   3.454   2.777
97054SOL    HW293060   0.151   3.534   2.676
97055SOL     OW93061   6.445  14.228   0.650
97055SOL    HW193062   6.496  14.147   0.652
97055SOL    HW293063   6.368  14.209   0.705
97056SOL     OW93064   8.094   1.265  13.912
97056SOL    HW193065   8.137   1.232  13.991
97056SOL    HW293066   8.077   1.357  13.931
97057SOL     OW93067   3.398  12.110  11.295
97057SOL    HW193068   3.479  12.076  11.333
97057SOL    HW293069   3.417  12.202  11.277
97058SOL     OW93070   0.565  13.413   1.110
97058SOL    HW193071   0.614  13.365   1.177
97058SOL    HW293072   0.528  13.345   1.053
97059SOL     OW93073   4.198   6.998  14.371
97059SOL    HW193074   4.237   7.005  14.458
97059SOL    HW293075   4.257   7.047  14.314
97060SOL     OW93076   0.103  12.236   8.396
97060SOL    HW193077   0.050  12.160   8.373
97060SOL    HW293078   0.041  12.299   8.432
97061SOL     OW93079   7.462   8.570  10.258
97061SOL    HW193080   7.367   8.574  10.269
97061SOL    HW293081   7.481   8.477  10.248
97062SOL     OW93082  10.205  13.189   7.157
97062SOL    HW193083  10.288  13.230   7.134
97062SOL    HW293084  10.160  13.253   7.212
97063SOL     OW93085  11.921   3.332   8.473
97063SOL    HW193086  11.995   3.313   8.530
97063SOL    HW293087  11.937   3.278   8.395
97064SOL     OW93088  11.190  10.498   1.989
97064SOL    HW193089  11.204  10.572   2.048
97064SOL    HW293090  11.175  10.424   2.048
97065SOL     OW93091   4.504  14.302   5.714
97065SOL    HW193092   4.595  14.326   5.730
97065SOL    HW293093   4.471  14.273   5.799
97066SOL     OW93094  14.480  10.160   3.892
97066SOL    HW193095  14.439  10.195   3.971
97066SOL    HW293096  14.445  10.072   3.884
97067SOL     OW93097   8.671   6.988   4.133
97067SOL    HW193098   8.719   6.979   4.215
97067SOL    HW293099   8.728   7.041   4.077
97068SOL     OW93100  13.274   2.829   7.623
97068SOL    HW193101  13.277   2.767   7.551
97068SOL    HW293102  13.199   2.801   7.676
97069SOL     OW93103   7.661   2.365   1.585
97069SOL    HW193104   7.646   2.290   1.527
97069SOL    HW293105   7.577   2.377   1.630
97070SOL     OW93106  12.730   2.601  10.354
97070SOL    HW193107  12.791   2.665  10.390
97070SOL    HW293108  12.643   2.636  10.374
97071SOL     OW93109  14.740   1.821   7.009
97071SOL    HW193110  14.767   1.787   6.923
97071SOL    HW293111  14.740   1.916   6.998
97072SOL     OW93112  12.180   2.572   1.891
97072SOL    HW193113  12.224   2.525   1.820
97072SOL    HW293114  12.250   2.600   1.949
97073SOL     OW93115   3.373  11.165   8.541
97073SOL    HW193116   3.384  11.169   8.446
97073SOL    HW293117   3.443  11.108   8.571
97074SOL     OW93118   0.343  10.422  13.803
97074SOL    HW193119   0.367  10.336  13.770
97074SOL    HW293120   0.357  10.481  13.729
97075SOL     OW93121  10.597  12.947  13.228
97075SOL    HW193122  10.595  13.003  13.150
97075SOL    HW293123  10.634  13.003  13.297
97076SOL     OW93124   3.146   9.543   7.957
97076SOL    HW193125   3.112   9.616   8.009
97076SOL    HW293126   3.070   9.507   7.912
97077SOL     OW93127  12.177   9.695  12.538
97077SOL    HW193128  12.154   9.721  12.449
97077SOL    HW293129  12.204   9.604  12.530
97078SOL     OW93130   2.724   4.778  10.765
97078SOL    HW193131   2.739   4.868  10.736
97078SOL    HW293132   2.671   4.786  10.844
97079SOL     OW93133  14.128  13.884   8.856
97079SOL    HW193134  14.066  13.841   8.915
97079SOL    HW293135  14.073  13.933   8.794
97080SOL     OW93136  11.176   3.314   8.570
97080SOL    HW193137  11.108   3.253   8.540
97080SOL    HW293138  11.215   3.348   8.490
97081SOL     OW93139  10.003  10.341   8.242
97081SOL    HW193140  10.057  10.331   8.321
97081SOL    HW293141  10.046  10.286   8.177
97082SOL     OW93142   0.408   4.171  12.533
97082SOL    HW193143   0.493   4.146  12.571
97082SOL    HW293144   0.399   4.117  12.455
97083SOL     OW93145  14.243   1.536  12.259
97083SOL    HW193146  14.153   1.508  12.243
97083SOL    HW293147  14.276   1.473  12.324
97084SOL     OW93148  10.974   9.760   9.355
97084SOL    HW193149  10.885   9.761   9.390
97084SOL    HW293150  11.028   9.731   9.429
97085SOL     OW93151  10.189   3.985  13.905
97085SOL    HW193152  10.241   4.011  13.828
97085SOL    HW293153  10.215   4.047  13.973
97086SOL     OW93154   6.860   4.253   6.301
97086SOL    HW193155   6.956   4.255   6.307
97086SOL    HW293156   6.835   4.170   6.340
97087SOL     OW93157   2.514  14.179   2.505
97087SOL    HW193158   2.599  14.196   2.465
97087SOL    HW293159   2.505  14.246   2.573
97088SOL     OW93160  12.200   4.138   8.539
97088SOL    HW193161  12.259   4.210   8.562
97088SOL    HW293162  12.214   4.073   8.608
97089SOL     OW93163   0.214   5.704   9.242
97089SOL    HW193164   0.235   5.784   9.193
97089SOL    HW293165   0.153   5.732   9.310
97090SOL     OW93166  14.667  12.773   5.974
97090SOL    HW193167  14.734  12.795   6.039
97090SOL    HW293168  14.709  12.708   5.918
97091SOL     OW93169   0.439  13.466   1.622
97091SOL    HW193170   0.403  13.546   1.662
97091SOL    HW293171   0.439  13.484   1.528
97092SOL     OW93172  12.803  11.112   1.195
97092SOL    HW193173  12.737  11.151   1.137
97092SOL    HW293174  12.836  11.037   1.146
97093SOL     OW93175  10.198  14.805   3.980
97093SOL    HW193176  10.174   0.000   3.920
97093SOL    HW293177  10.187  14.842   4.067
97094SOL     OW93178   3.518   6.715   6.789
97094SOL    HW193179   3.458   6.681   6.723
97094SOL    HW293180   3.593   6.656   6.786
97095SOL     OW93181  12.521  13.936   9.274
97095SOL    HW193182  12.514  13.846   9.307
97095SOL    HW293183  12.491  13.990   9.347
97096SOL     OW93184  11.759   5.920   9.327
97096SOL    HW193185  11.781   5.966   9.408
97096SOL    HW293186  11.836   5.933   9.271
97097SOL     OW93187  12.915  13.152   0.326
97097SOL    HW193188  12.980  13.204   0.372
97097SOL    HW293189  12.964  13.107   0.257
97098SOL     OW93190  10.347  11.410  10.314
97098SOL    HW193191  10.385  11.375  10.395
97098SOL    HW293192  10.363  11.341  10.249
97099SOL     OW93193   2.576   6.503  11.734
97099SOL    HW193194   2.622   6.537  11.657
97099SOL    HW293195   2.530   6.579  11.770
97100SOL     OW93196   0.844   8.326   9.645
97100SOL    HW193197   0.915   8.390   9.649
97100SOL    HW293198   0.779   8.365   9.588
97101SOL     OW93199   1.022   2.788   2.440
97101SOL    HW193200   1.004   2.844   2.516
97101SOL    HW293201   0.946   2.731   2.434
97102SOL     OW93202  12.696  12.398  14.527
97102SOL    HW193203  12.765  12.362  14.584
97102SOL    HW293204  12.705  12.493  14.537
97103SOL     OW93205   2.085  11.967   2.205
97103SOL    HW193206   2.040  12.045   2.237
97103SOL    HW293207   2.033  11.939   2.130
97104SOL     OW93208   4.444  10.246   2.120
97104SOL    HW193209   4.392  10.227   2.043
97104SOL    HW293210   4.500  10.320   2.094
97105SOL     OW93211   3.888  12.527   5.193
97105SOL    HW193212   3.868  12.620   5.182
97105SOL    HW293213   3.969  12.526   5.245
97106SOL     OW93214   8.847   6.384   5.558
97106SOL    HW193215   8.923   6.435   5.529
97106SOL    HW293216   8.786   6.388   5.485
97107SOL     OW93217  13.447  12.738   4.694
97107SOL    HW193218  13.482  12.696   4.772
97107SOL    HW293219  13.525  12.768   4.646
97108SOL     OW93220   8.599   2.935  10.460
97108SOL    HW193221   8.560   2.857  10.499
97108SOL    HW293222   8.529   3.000  10.460
97109SOL     OW93223   1.532   5.860  12.846
97109SOL    HW193224   1.455   5.916  12.849
97109SOL    HW293225   1.604   5.919  12.823
97110SOL     OW93226   8.853   2.578  10.375
97110SOL    HW193227   8.776   2.593  10.430
97110SOL    HW293228   8.852   2.651  10.313
97111SOL     OW93229  10.399   7.894  14.499
97111SOL    HW193230  10.408   7.977  14.452
97111SOL    HW293231  10.391   7.919  14.591
97112SOL     OW93232   9.583   8.395   5.036
97112SOL    HW193233   9.588   8.407   5.130
97112SOL    HW293234   9.576   8.300   5.025
97113SOL     OW93235  12.372   4.898   0.514
97113SOL    HW193236  12.376   4.879   0.420
97113SOL    HW293237  12.282   4.876   0.539
97114SOL     OW93238   5.015  10.392   6.698
97114SOL    HW193239   5.027  10.485   6.680
97114SOL    HW293240   4.924  10.384   6.726
97115SOL     OW93241   2.676   0.920   8.019
97115SOL    HW193242   2.634   1.006   8.026
97115SOL    HW293243   2.603   0.858   8.014
97116SOL     OW93244   5.523   1.872  10.594
97116SOL    HW193245   5.602   1.920  10.616
97116SOL    HW293246   5.497   1.829  10.676
97117SOL     OW93247  10.384   7.430   4.014
97117SOL    HW193248  10.443   7.479   3.957
97117SOL    HW293249  10.305   7.485   4.020
97118SOL     OW93250   2.930   3.376   8.309
97118SOL    HW193251   2.938   3.347   8.399
97118SOL    HW293252   2.996   3.325   8.262
97119SOL     OW93253   0.001   4.809   3.396
97119SOL    HW193254  14.832   4.809   3.311
97119SOL    HW293255  14.839   4.884   3.442
97120SOL     OW93256   5.916  12.903   5.311
97120SOL    HW193257   6.000  12.857   5.306
97120SOL    HW293258   5.860  12.858   5.248
97121SOL     OW93259   5.570   7.216   2.878
97121SOL    HW193260   5.508   7.155   2.838
97121SOL    HW293261   5.523   7.298   2.884
97122SOL     OW93262   3.511  11.700   7.234
97122SOL    HW193263   3.544  11.682   7.322
97122SOL    HW293264   3.589  11.714   7.181
97123SOL     OW93265   9.993   8.363   5.246
97123SOL    HW193266   9.971   8.438   5.301
97123SOL    HW293267  10.086   8.349   5.262
97124SOL     OW93268  10.254  10.534   6.870
97124SOL    HW193269  10.261  10.444   6.837
97124SOL    HW293270  10.314  10.584   6.815
97125SOL     OW93271   7.637   9.944   7.335
97125SOL    HW193272   7.701  10.011   7.312
97125SOL    HW293273   7.661   9.868   7.281
97126SOL     OW93274  10.200  14.535   6.340
97126SOL    HW193275  10.106  14.545   6.327
97126SOL    HW293276  10.237  14.546   6.252
97127SOL     OW93277  11.761   7.768  13.159
97127SOL    HW193278  11.835   7.722  13.120
97127SOL    HW293279  11.685   7.713  13.139
97128SOL     OW93280   0.066   2.084   6.834
97128SOL    HW193281   0.160   2.081   6.819
97128SOL    HW293282   0.050   2.171   6.869
97129SOL     OW93283   2.462   7.406   9.234
97129SOL    HW193284   2.407   7.354   9.174
97129SOL    HW293285   2.466   7.493   9.193
97130SOL     OW93286  10.212  11.336   7.375
97130SOL    HW193287  10.184  11.407   7.432
97130SOL    HW293288  10.304  11.321   7.398
97131SOL     OW93289   0.113   0.058  11.885
97131SOL    HW193290   0.084   0.075  11.795
97131SOL    HW293291   0.209   0.061  11.880
97132SOL     OW93292   9.605   7.170   4.613
97132SOL    HW193293   9.559   7.201   4.691
97132SOL    HW293294   9.698   7.184   4.632
97133SOL     OW93295  10.375   1.916   5.764
97133SOL    HW193296  10.439   1.921   5.835
97133SOL    HW293297  10.291   1.902   5.809
97134SOL     OW93298  12.750  10.205   1.520
97134SOL    HW193299  12.689  10.274   1.494
97134SOL    HW293300  12.787  10.173   1.438
97135SOL     OW93301   1.029   0.176   0.325
97135SOL    HW193302   1.091   0.239   0.359
97135SOL    HW293303   0.978   0.225   0.260
97136SOL     OW93304   7.273   9.470   5.102
97136SOL    HW193305   7.192   9.477   5.051
97136SOL    HW293306   7.337   9.518   5.050
97137SOL     OW93307   4.085  13.868   5.492
97137SOL    HW193308   4.102  13.936   5.426
97137SOL    HW293309   4.045  13.916   5.565
97138SOL     OW93310   2.554   3.411   1.814
97138SOL    HW193311   2.470   3.424   1.859
97138SOL    HW293312   2.559   3.316   1.801
97139SOL     OW93313   6.582   2.068   3.095
97139SOL    HW193314   6.652   2.134   3.087
97139SOL    HW293315   6.625   1.985   3.074
97140SOL     OW93316   2.775   4.008   4.388
97140SOL    HW193317   2.867   4.025   4.407
97140SOL    HW293318   2.774   3.925   4.340
97141SOL     OW93319   2.790   0.459   1.215
97141SOL    HW193320   2.785   0.545   1.173
97141SOL    HW293321   2.883   0.450   1.239
97142SOL     OW93322   1.394   1.130   1.655
97142SOL    HW193323   1.388   1.055   1.596
97142SOL    HW293324   1.473   1.114   1.707
97143SOL     OW93325   0.928   8.401  13.496
97143SOL    HW193326   0.966   8.319  13.465
97143SOL    HW293327   0.885   8.377  13.579
97144SOL     OW93328  14.245   9.621   7.804
97144SOL    HW193329  14.224   9.547   7.862
97144SOL    HW293330  14.254   9.582   7.717
97145SOL     OW93331   3.098  12.923   8.580
97145SOL    HW193332   3.095  12.875   8.497
97145SOL    HW293333   3.114  13.014   8.554
97146SOL     OW93334   3.089   6.382   8.494
97146SOL    HW193335   3.084   6.313   8.561
97146SOL    HW293336   3.085   6.335   8.411
97147SOL     OW93337   1.186  13.748   3.426
97147SOL    HW193338   1.193  13.797   3.344
97147SOL    HW293339   1.247  13.675   3.416
97148SOL     OW93340   3.503   0.038  12.342
97148SOL    HW193341   3.526   0.005  12.256
97148SOL    HW293342   3.581   0.086  12.372
97149SOL     OW93343  12.471   4.150  13.462
97149SOL    HW193344  12.507   4.238  13.474
97149SOL    HW293345  12.380   4.159  13.491
97150SOL     OW93346   0.719   4.683   0.116
97150SOL    HW193347   0.668   4.608   0.144
97150SOL    HW293348   0.800   4.646   0.079
97151SOL     OW93349   9.625   8.881  13.488
97151SOL    HW193350   9.687   8.944  13.451
97151SOL    HW293351   9.661   8.795  13.465
97152SOL     OW93352   0.124  14.788   7.433
97152SOL    HW193353   0.171  14.843   7.370
97152SOL    HW293354   0.102  14.709   7.383
97153SOL     OW93355   0.746   3.140  13.556
97153SOL    HW193356   0.660   3.156  13.518
97153SOL    HW293357   0.729   3.124  13.648
97154SOL     OW93358   2.410   1.340   1.550
97154SOL    HW193359   2.438   1.311   1.463
97154SOL    HW293360   2.326   1.295   1.565
97155SOL     OW93361   8.513  14.448   8.894
97155SOL    HW193362   8.426  14.418   8.917
97155SOL    HW293363   8.560  14.369   8.868
97156SOL     OW93364   2.222   4.274  12.779
97156SOL    HW193365   2.208   4.270  12.873
97156SOL    HW293366   2.138   4.248  12.741
97157SOL     OW93367   7.516   7.708   5.762
97157SOL    HW193368   7.479   7.656   5.834
97157SOL    HW293369   7.440   7.750   5.721
97158SOL     OW93370   5.957  13.484   3.419
97158SOL    HW193371   5.864  13.502   3.431
97158SOL    HW293372   5.987  13.550   3.357
97159SOL     OW93373  11.106   9.680   2.251
97159SOL    HW193374  11.088   9.587   2.238
97159SOL    HW293375  11.125   9.687   2.344
97160SOL     OW93376   6.697   8.209   6.603
97160SOL    HW193377   6.702   8.114   6.611
97160SOL    HW293378   6.705   8.242   6.693
97161SOL     OW93379   4.613  11.448   2.464
97161SOL    HW193380   4.558  11.382   2.507
97161SOL    HW293381   4.677  11.473   2.530
97162SOL     OW93382  10.719   9.094   0.941
97162SOL    HW193383  10.731   9.135   1.026
97162SOL    HW293384  10.740   9.163   0.878
97163SOL     OW93385  10.337   4.023   2.298
97163SOL    HW193386  10.332   3.940   2.346
97163SOL    HW293387  10.429   4.029   2.271
97164SOL     OW93388   3.059   8.816   7.397
97164SOL    HW193389   3.109   8.869   7.459
97164SOL    HW293390   3.081   8.725   7.419
97165SOL     OW93391   5.230   4.021  14.039
97165SOL    HW193392   5.151   4.015  14.092
97165SOL    HW293393   5.250   3.931  14.016
97166SOL     OW93394  10.049   9.730  12.077
97166SOL    HW193395  10.034   9.708  11.986
97166SOL    HW293396   9.985   9.678  12.126
97167SOL     OW93397   4.481  12.026   8.191
97167SOL    HW193398   4.513  12.077   8.265
97167SOL    HW293399   4.389  12.052   8.182
97168SOL     OW93400   3.619   3.372   6.240
97168SOL    HW193401   3.594   3.287   6.205
97168SOL    HW293402   3.705   3.357   6.280
97169SOL     OW93403   0.721   4.087   4.003
97169SOL    HW193404   0.758   4.034   3.933
97169SOL    HW293405   0.706   4.173   3.963
97170SOL     OW93406  14.567  10.941   0.737
97170SOL    HW193407  14.507  10.965   0.808
97170SOL    HW293408  14.586  10.848   0.753
97171SOL     OW93409   6.537   0.192   5.634
97171SOL    HW193410   6.605   0.201   5.566
97171SOL    HW293411   6.467   0.144   5.591
97172SOL     OW93412  13.663   6.295   6.519
97172SOL    HW193413  13.631   6.254   6.439
97172SOL    HW293414  13.692   6.222   6.574
97173SOL     OW93415  12.412   8.086  10.188
97173SOL    HW193416  12.401   8.172  10.147
97173SOL    HW293417  12.326   8.067  10.225
97174SOL     OW93418  14.157   2.681   0.727
97174SOL    HW193419  14.140   2.720   0.642
97174SOL    HW293420  14.220   2.611   0.710
97175SOL     OW93421  10.772   7.389  11.335
97175SOL    HW193422  10.828   7.405  11.259
97175SOL    HW293423  10.714   7.318  11.307
97176SOL     OW93424  12.063  10.097   4.034
97176SOL    HW193425  12.119  10.161   4.078
97176SOL    HW293426  11.975  10.113   4.069
97177SOL     OW93427  13.781  14.639  13.265
97177SOL    HW193428  13.798  14.651  13.358
97177SOL    HW293429  13.793  14.726  13.227
97178SOL     OW93430  13.006   3.500   1.721
97178SOL    HW193431  12.985   3.546   1.640
97178SOL    HW293432  13.099   3.477   1.712
97179SOL     OW93433   5.146  13.359   9.304
97179SOL    HW193434   5.240  13.373   9.318
97179SOL    HW293435   5.104  13.430   9.352
97180SOL     OW93436   6.513   4.702   0.327
97180SOL    HW193437   6.425   4.680   0.358
97180SOL    HW293438   6.563   4.719   0.407
97181SOL     OW93439  11.262   3.233   0.871
97181SOL    HW193440  11.203   3.250   0.944
97181SOL    HW293441  11.266   3.138   0.864
97182SOL     OW93442  11.899   9.730   3.747
97182SOL    HW193443  11.927   9.774   3.828
97182SOL    HW293444  11.806   9.714   3.760
97183SOL     OW93445   6.087   8.765  14.241
97183SOL    HW193446   6.131   8.846  14.214
97183SOL    HW293447   6.147   8.695  14.216
97184SOL     OW93448   6.080  10.061   5.541
97184SOL    HW193449   6.080   9.983   5.596
97184SOL    HW293450   6.124  10.034   5.460
97185SOL     OW93451   5.235   3.142  14.300
97185SOL    HW193452   5.206   3.154  14.209
97185SOL    HW293453   5.324   3.108  14.292
97186SOL     OW93454   6.233   3.768   2.289
97186SOL    HW193455   6.245   3.769   2.384
97186SOL    HW293456   6.287   3.842   2.258
97187SOL     OW93457   2.450  11.440   3.672
97187SOL    HW193458   2.481  11.530   3.684
97187SOL    HW293459   2.435  11.432   3.578
97188SOL     OW93460  11.699   5.897  10.026
97188SOL    HW193461  11.635   5.848  10.077
97188SOL    HW293462  11.772   5.912  10.087
97189SOL     OW93463   8.565   9.467   8.692
97189SOL    HW193464   8.509   9.541   8.716
97189SOL    HW293465   8.507   9.406   8.647
97190SOL     OW93466   3.957   3.286   0.140
97190SOL    HW193467   3.877   3.237   0.120
97190SOL    HW293468   4.015   3.269   0.065
97191SOL     OW93469   9.430  10.329   5.705
97191SOL    HW193470   9.416  10.395   5.637
97191SOL    HW293471   9.524  10.310   5.700
97192SOL     OW93472   9.409   8.856   1.643
97192SOL    HW193473   9.409   8.921   1.714
97192SOL    HW293474   9.325   8.871   1.598
97193SOL     OW93475  10.720   4.021  11.804
97193SOL    HW193476  10.773   4.074  11.864
97193SOL    HW293477  10.683   3.952  11.859
97194SOL     OW93478   7.970   9.881   2.731
97194SOL    HW193479   7.970   9.935   2.652
97194SOL    HW293480   8.041   9.917   2.784
97195SOL     OW93481   4.918   7.435   2.923
97195SOL    HW193482   4.963   7.468   3.000
97195SOL    HW293483   4.909   7.341   2.938
97196SOL     OW93484   4.062   3.206   2.329
97196SOL    HW193485   4.064   3.112   2.346
97196SOL    HW293486   4.145   3.224   2.284
97197SOL     OW93487  14.688   0.060  12.611
97197SOL    HW193488  14.714  14.843  12.623
97197SOL    HW293489  14.702   0.077  12.517
97198SOL     OW93490   5.706   7.189   2.614
97198SOL    HW193491   5.755   7.107   2.606
97198SOL    HW293492   5.685   7.196   2.707
97199SOL     OW93493   1.994  14.190   2.876
97199SOL    HW193494   2.018  14.100   2.850
97199SOL    HW293495   2.039  14.246   2.813
97200SOL     OW93496   8.412   3.734  12.492
97200SOL    HW193497   8.491   3.689  12.524
97200SOL    HW293498   8.425   3.825  12.516
97201SOL     OW93499  14.744   6.866   2.338
97201SOL    HW193500  14.814   6.853   2.274
97201SOL    HW293501  14.688   6.933   2.299
97202SOL     OW93502   6.923  14.411   5.583
97202SOL    HW193503   6.983  14.473   5.625
97202SOL    HW293504   6.949  14.410   5.491
97203SOL     OW93505  12.616   2.475  13.352
97203SOL    HW193506  12.693   2.526  13.375
97203SOL    HW293507  12.557   2.538  13.310
97204SOL     OW93508   7.938   8.368   2.154
97204SOL    HW193509   7.969   8.411   2.075
97204SOL    HW293510   7.956   8.430   2.224
97205SOL     OW93511   3.855   9.087   3.692
97205SOL    HW193512   3.859   9.088   3.597
97205SOL    HW293513   3.798   9.161   3.714
97206SOL     OW93514  14.599   9.443   7.637
97206SOL    HW193515  14.651   9.482   7.708
97206SOL    HW293516  14.647   9.467   7.557
97207SOL     OW93517  12.338   0.360  11.629
97207SOL    HW193518  12.404   0.384  11.564
97207SOL    HW293519  12.281   0.436  11.635
97208SOL     OW93520   1.844   5.569   5.578
97208SOL    HW193521   1.813   5.647   5.531
97208SOL    HW293522   1.771   5.507   5.571
97209SOL     OW93523  10.017   6.525   7.965
97209SOL    HW193524  10.039   6.582   7.891
97209SOL    HW293525   9.944   6.569   8.009
97210SOL     OW93526   1.954   2.174   2.867
97210SOL    HW193527   2.035   2.187   2.818
97210SOL    HW293528   1.888   2.155   2.799
97211SOL     OW93529   0.186  12.654  12.620
97211SOL    HW193530   0.189  12.619  12.531
97211SOL    HW293531   0.277  12.657  12.648
97212SOL     OW93532  11.478  11.780  13.423
97212SOL    HW193533  11.465  11.779  13.328
97212SOL    HW293534  11.515  11.694  13.442
97213SOL     OW93535   9.888   1.975   7.673
97213SOL    HW193536   9.905   2.007   7.762
97213SOL    HW293537   9.973   1.979   7.629
97214SOL     OW93538   8.490   9.130   9.196
97214SOL    HW193539   8.461   9.219   9.175
97214SOL    HW293540   8.409   9.078   9.194
97215SOL     OW93541   0.807  10.669   8.048
97215SOL    HW193542   0.873  10.600   8.052
97215SOL    HW293543   0.773  10.674   8.137
97216SOL     OW93544   0.655   1.246  13.048
97216SOL    HW193545   0.634   1.293  12.968
97216SOL    HW293546   0.682   1.313  13.110
97217SOL     OW93547   9.731  12.372  14.311
97217SOL    HW193548   9.775  12.293  14.281
97217SOL    HW293549   9.640  12.361  14.285
97218SOL     OW93550  14.449   5.057   7.621
97218SOL    HW193551  14.514   5.109   7.574
97218SOL    HW293552  14.386   5.031   7.554
97219SOL     OW93553  12.667   3.194   9.484
97219SOL    HW193554  12.592   3.170   9.429
97219SOL    HW293555  12.730   3.124   9.469
97220SOL     OW93556  14.249  13.799  13.323
97220SOL    HW193557  14.286  13.839  13.402
97220SOL    HW293558  14.257  13.867  13.256
97221SOL     OW93559   3.298   4.806   4.294
97221SOL    HW193560   3.354   4.883   4.293
97221SOL    HW293561   3.228   4.827   4.355
97222SOL     OW93562   2.664   7.205   7.521
97222SOL    HW193563   2.651   7.235   7.431
97222SOL    HW293564   2.758   7.193   7.530
97223SOL     OW93565   4.167  11.600   6.867
97223SOL    HW193566   4.183  11.692   6.887
97223SOL    HW293567   4.229  11.580   6.797
97224SOL     OW93568   2.984   3.238   7.926
97224SOL    HW193569   3.032   3.156   7.912
97224SOL    HW293570   2.904   3.229   7.874
97225SOL     OW93571  13.304  12.240  13.520
97225SOL    HW193572  13.216  12.278  13.523
97225SOL    HW293573  13.361  12.314  13.499
97226SOL     OW93574  13.702  10.747   7.183
97226SOL    HW193575  13.710  10.703   7.098
97226SOL    HW293576  13.792  10.749   7.216
97227SOL     OW93577  11.580   6.711   0.872
97227SOL    HW193578  11.513   6.706   0.941
97227SOL    HW293579  11.541   6.767   0.805
97228SOL     OW93580   0.899   8.116   2.966
97228SOL    HW193581   0.926   8.207   2.955
97228SOL    HW293582   0.980   8.068   2.982
97229SOL     OW93583   7.487  12.967   8.693
97229SOL    HW193584   7.465  13.024   8.766
97229SOL    HW293585   7.518  12.886   8.733
97230SOL     OW93586   5.079  10.695   1.961
97230SOL    HW193587   5.047  10.607   1.940
97230SOL    HW293588   5.002  10.751   1.951
97231SOL     OW93589  12.010   1.601   2.902
97231SOL    HW193590  12.068   1.647   2.963
97231SOL    HW293591  11.922   1.634   2.923
97232SOL     OW93592   7.386  14.266   3.515
97232SOL    HW193593   7.461  14.215   3.486
97232SOL    HW293594   7.412  14.357   3.503
97233SOL     OW93595  14.200  10.925  13.706
97233SOL    HW193596  14.210  10.833  13.731
97233SOL    HW293597  14.274  10.969  13.749
97234SOL     OW93598   8.955  11.445   0.083
97234SOL    HW193599   8.915  11.417   0.000
97234SOL    HW293600   8.889  11.425   0.149
97235SOL     OW93601   0.244   6.714   7.161
97235SOL    HW193602   0.210   6.782   7.102
97235SOL    HW293603   0.334   6.700   7.130
97236SOL     OW93604   3.621   9.948   8.662
97236SOL    HW193605   3.653   9.957   8.572
97236SOL    HW293606   3.646   9.860   8.687
97237SOL     OW93607  10.210   9.222  10.068
97237SOL    HW193608  10.204   9.194  10.160
97237SOL    HW293609  10.130   9.270  10.052
97238SOL     OW93610   3.399   9.086  13.495
97238SOL    HW193611   3.345   9.128  13.562
97238SOL    HW293612   3.340   9.074  13.421
97239SOL     OW93613   7.860   4.912   6.366
97239SOL    HW193614   7.872   4.984   6.304
97239SOL    HW293615   7.892   4.946   6.449
97240SOL     OW93616   5.731  10.156   5.055
97240SOL    HW193617   5.722  10.238   5.103
97240SOL    HW293618   5.743  10.182   4.964
97241SOL     OW93619   7.168  12.155  10.486
97241SOL    HW193620   7.082  12.190  10.506
97241SOL    HW293621   7.206  12.218  10.424
97242SOL     OW93622   3.231  13.078  12.495
97242SOL    HW193623   3.174  13.111  12.425
97242SOL    HW293624   3.279  13.006  12.455
97243SOL     OW93625   2.188   6.664   8.358
97243SOL    HW193626   2.178   6.651   8.264
97243SOL    HW293627   2.199   6.576   8.394
97244SOL     OW93628   1.600  11.539   4.159
97244SOL    HW193629   1.609  11.537   4.255
97244SOL    HW293630   1.541  11.613   4.143
97245SOL     OW93631  11.243   2.562   6.141
97245SOL    HW193632  11.153   2.553   6.110
97245SOL    HW293633  11.242   2.640   6.196
97246SOL     OW93634   6.673   9.737  10.635
97246SOL    HW193635   6.696   9.793  10.710
97246SOL    HW293636   6.660   9.799  10.562
97247SOL     OW93637  10.163  10.404   3.713
97247SOL    HW193638  10.253  10.376   3.696
97247SOL    HW293639  10.123  10.409   3.626
97248SOL     OW93640   0.550  14.217  10.704
97248SOL    HW193641   0.483  14.284  10.717
97248SOL    HW293642   0.595  14.243  10.624
97249SOL     OW93643   0.574   7.306   3.940
97249SOL    HW193644   0.579   7.216   3.970
97249SOL    HW293645   0.619   7.357   4.007
97250SOL     OW93646  13.792  13.688   7.357
97250SOL    HW193647  13.874  13.682   7.406
97250SOL    HW293648  13.813  13.743   7.281
97251SOL     OW93649   2.045   6.234   7.375
97251SOL    HW193650   2.003   6.266   7.295
97251SOL    HW293651   2.098   6.160   7.345
97252SOL     OW93652   9.590  12.674   2.016
97252SOL    HW193653   9.673  12.720   2.003
97252SOL    HW293654   9.596  12.637   2.104
97253SOL     OW93655  11.948   5.138   1.211
97253SOL    HW193656  11.976   5.090   1.289
97253SOL    HW293657  12.015   5.118   1.145
97254SOL     OW93658  10.790   6.979  14.229
97254SOL    HW193659  10.770   6.923  14.154
97254SOL    HW293660  10.845   7.048  14.193
97255SOL     OW93661  14.481   2.693   5.350
97255SOL    HW193662  14.417   2.763   5.362
97255SOL    HW293663  14.430   2.621   5.312
97256SOL     OW93664   4.816  10.896   0.641
97256SOL    HW193665   4.857  10.908   0.727
97256SOL    HW293666   4.779  10.982   0.620
97257SOL     OW93667   9.972   0.059   8.042
97257SOL    HW193668   9.886   0.064   8.002
97257SOL    HW293669  10.029   0.025   7.972
97258SOL     OW93670  13.301   6.973   3.537
97258SOL    HW193671  13.313   7.065   3.517
97258SOL    HW293672  13.220   6.969   3.589
97259SOL     OW93673   4.932  11.377  10.058
97259SOL    HW193674   4.939  11.346   9.968
97259SOL    HW293675   5.023  11.388  10.087
97260SOL     OW93676   2.609   4.164  10.254
97260SOL    HW193677   2.688   4.213  10.229
97260SOL    HW293678   2.608   4.168  10.350
97261SOL     OW93679  12.164   3.718  12.666
97261SOL    HW193680  12.111   3.738  12.589
97261SOL    HW293681  12.117   3.758  12.739
97262SOL     OW93682   6.514   3.891   9.431
97262SOL    HW193683   6.526   3.966   9.374
97262SOL    HW293684   6.588   3.894   9.491
97263SOL     OW93685   7.032   5.439  13.232
97263SOL    HW193686   7.010   5.522  13.189
97263SOL    HW293687   7.086   5.465  13.307
97264SOL     OW93688  10.726   9.759  12.422
97264SOL    HW193689  10.675   9.692  12.377
97264SOL    HW293690  10.696   9.758  12.512
97265SOL     OW93691   1.570   9.924   4.488
97265SOL    HW193692   1.656   9.956   4.516
97265SOL    HW293693   1.508   9.982   4.532
97266SOL     OW93694  10.075  12.627   9.320
97266SOL    HW193695  10.011  12.568   9.278
97266SOL    HW293696  10.031  12.655   9.400
97267SOL     OW93697   8.519   4.455   1.220
97267SOL    HW193698   8.555   4.402   1.149
97267SOL    HW293699   8.477   4.529   1.176
97268SOL     OW93700   8.034   3.029   2.633
97268SOL    HW193701   7.980   3.080   2.693
97268SOL    HW293702   8.047   3.087   2.558
97269SOL     OW93703   6.083  13.662  10.090
97269SOL    HW193704   6.058  13.570  10.098
97269SOL    HW293705   6.132  13.666  10.007
97270SOL     OW93706  13.123   6.060   8.997
97270SOL    HW193707  13.175   6.128   9.039
97270SOL    HW293708  13.035   6.071   9.034
97271SOL     OW93709   1.339  14.088   8.682
97271SOL    HW193710   1.255  14.045   8.664
97271SOL    HW293711   1.337  14.167   8.627
97272SOL     OW93712   4.846   8.611  12.123
97272SOL    HW193713   4.884   8.581  12.041
97272SOL    HW293714   4.921   8.640  12.175
97273SOL     OW93715   6.035   3.548  13.708
97273SOL    HW193716   5.984   3.467  13.716
97273SOL    HW293717   6.032   3.569  13.615
97274SOL     OW93718   1.673   6.929   8.448
97274SOL    HW193719   1.599   6.979   8.412
97274SOL    HW293720   1.717   6.893   8.372
97275SOL     OW93721   0.502   4.047   9.675
97275SOL    HW193722   0.511   4.027   9.582
97275SOL    HW293723   0.427   3.996   9.704
97276SOL     OW93724   3.702   8.401  11.523
97276SOL    HW193725   3.762   8.327  11.529
97276SOL    HW293726   3.756   8.478  11.544
97277SOL     OW93727  13.437  11.251  12.534
97277SOL    HW193728  13.483  11.286  12.457
97277SOL    HW293729  13.378  11.321  12.560
97278SOL     OW93730  14.547   0.443   1.702
97278SOL    HW193731  14.579   0.417   1.616
97278SOL    HW293732  14.596   0.390   1.764
97279SOL     OW93733   6.803  12.125  13.551
97279SOL    HW193734   6.717  12.158  13.577
97279SOL    HW293735   6.829  12.067  13.623
97280SOL     OW93736  14.083  12.844   3.995
97280SOL    HW193737  14.070  12.907   3.924
97280SOL    HW293738  14.171  12.809   3.980
97281SOL     OW93739  12.126   3.482   5.156
97281SOL    HW193740  12.095   3.502   5.068
97281SOL    HW293741  12.214   3.518   5.160
97282SOL     OW93742   2.792   4.321   6.898
97282SOL    HW193743   2.829   4.332   6.986
97282SOL    HW293744   2.743   4.239   6.902
97283SOL     OW93745   4.165  11.315  12.454
97283SOL    HW193746   4.143  11.254  12.524
97283SOL    HW293747   4.101  11.386  12.463
97284SOL     OW93748   3.497  10.249   3.426
97284SOL    HW193749   3.530  10.230   3.514
97284SOL    HW293750   3.403  10.266   3.439
97285SOL     OW93751   2.215   1.494   2.846
97285SOL    HW193752   2.209   1.590   2.853
97285SOL    HW293753   2.213   1.464   2.937
97286SOL     OW93754  11.143  14.759  10.268
97286SOL    HW193755  11.048  14.758  10.271
97286SOL    HW293756  11.169  14.667  10.274
97287SOL     OW93757   7.453  12.258  11.909
97287SOL    HW193758   7.477  12.262  11.817
97287SOL    HW293759   7.359  12.276  11.911
97288SOL     OW93760   3.240   4.530  11.593
97288SOL    HW193761   3.205   4.501  11.677
97288SOL    HW293762   3.226   4.625  11.591
97289SOL     OW93763  10.039   3.656   7.863
97289SOL    HW193764  10.059   3.727   7.802
97289SOL    HW293765  10.020   3.581   7.808
97290SOL     OW93766  10.225   5.014   7.675
97290SOL    HW193767  10.206   5.006   7.582
97290SOL    HW293768  10.253   4.927   7.702
97291SOL     OW93769   8.408  11.347   9.055
97291SOL    HW193770   8.470  11.359   8.983
97291SOL    HW293771   8.330  11.395   9.027
97292SOL     OW93772   6.632   7.170   6.023
97292SOL    HW193773   6.596   7.081   6.023
97292SOL    HW293774   6.561   7.225   6.056
97293SOL     OW93775   8.174  13.976   0.577
97293SOL    HW193776   8.115  13.901   0.587
97293SOL    HW293777   8.258  13.945   0.609
97294SOL     OW93778  12.850   2.062   1.825
97294SOL    HW193779  12.795   1.985   1.836
97294SOL    HW293780  12.846   2.082   1.731
97295SOL     OW93781  10.407   6.945   6.139
97295SOL    HW193782  10.425   6.865   6.090
97295SOL    HW293783  10.461   6.937   6.218
97296SOL     OW93784  11.870   8.787   9.163
97296SOL    HW193785  11.797   8.784   9.101
97296SOL    HW293786  11.926   8.857   9.130
97297SOL     OW93787   8.245  10.529   6.656
97297SOL    HW193788   8.341  10.531   6.660
97297SOL    HW293789   8.217  10.606   6.705
97298SOL     OW93790   1.606  12.131   8.517
97298SOL    HW193791   1.672  12.088   8.571
97298SOL    HW293792   1.543  12.166   8.580
97299SOL     OW93793  10.525   2.852  10.612
97299SOL    HW193794  10.601   2.827  10.664
97299SOL    HW293795  10.497   2.771  10.570
97300SOL     OW93796  11.389   9.868  13.829
97300SOL    HW193797  11.424   9.944  13.875
97300SOL    HW293798  11.350   9.814  13.898
97301SOL     OW93799   3.720  14.084   9.728
97301SOL    HW193800   3.792  14.021   9.725
97301SOL    HW293801   3.682  14.081   9.641
97302SOL     OW93802  13.383  11.326   8.098
97302SOL    HW193803  13.319  11.385   8.057
97302SOL    HW293804  13.330  11.258   8.139
97303SOL     OW93805  14.643  14.005   6.609
97303SOL    HW193806  14.738  14.008   6.596
97303SOL    HW293807  14.633  13.982   6.702
97304SOL     OW93808  11.306  14.143   3.668
97304SOL    HW193809  11.398  14.122   3.682
97304SOL    HW293810  11.305  14.191   3.584
97305SOL     OW93811   0.313  11.166   5.293
97305SOL    HW193812   0.264  11.246   5.273
97305SOL    HW293813   0.397  11.197   5.326
97306SOL     OW93814  12.680   9.183   6.061
97306SOL    HW193815  12.773   9.182   6.082
97306SOL    HW293816  12.666   9.103   6.010
97307SOL     OW93817   9.211   7.521   3.644
97307SOL    HW193818   9.165   7.596   3.607
97307SOL    HW293819   9.141   7.462   3.672
97308SOL     OW93820   1.345  13.284  14.815
97308SOL    HW193821   1.342  13.379  14.800
97308SOL    HW293822   1.425  13.256  14.770
97309SOL     OW93823  10.154  13.197   8.282
97309SOL    HW193824  10.071  13.151   8.271
97309SOL    HW293825  10.187  13.208   8.193
97310SOL     OW93826   2.422   2.589   9.364
97310SOL    HW193827   2.388   2.646   9.433
97310SOL    HW293828   2.509   2.624   9.345
97311SOL     OW93829   3.962   4.236   2.029
97311SOL    HW193830   4.035   4.207   2.083
97311SOL    HW293831   3.929   4.315   2.072
97312SOL     OW93832  13.790  10.839  12.076
97312SOL    HW193833  13.769  10.912  12.019
97312SOL    HW293834  13.806  10.765  12.017
97313SOL     OW93835   7.374  11.088   6.174
97313SOL    HW193836   7.419  11.119   6.096
97313SOL    HW293837   7.286  11.064   6.143
97314SOL     OW93838   3.085   9.587   2.681
97314SOL    HW193839   3.135   9.625   2.754
97314SOL    HW293840   2.995   9.584   2.713
97315SOL     OW93841   5.106   2.198   8.213
97315SOL    HW193842   5.159   2.267   8.252
97315SOL    HW293843   5.169   2.134   8.179
97316SOL     OW93844   0.039   4.796   7.889
97316SOL    HW193845   0.134   4.780   7.891
97316SOL    HW293846   0.009   4.768   7.975
97317SOL     OW93847   4.689   3.556   0.497
97317SOL    HW193848   4.660   3.590   0.412
97317SOL    HW293849   4.755   3.490   0.475
97318SOL     OW93850   5.206   4.114  11.127
97318SOL    HW193851   5.202   4.054  11.052
97318SOL    HW293852   5.219   4.201  11.088
97319SOL     OW93853  13.093  10.008   5.644
97319SOL    HW193854  13.113  10.018   5.551
97319SOL    HW293855  13.177  10.016   5.688
97320SOL     OW93856   6.190   5.540   0.738
97320SOL    HW193857   6.175   5.456   0.694
97320SOL    HW293858   6.135   5.603   0.691
97321SOL     OW93859   9.124   6.527  12.649
97321SOL    HW193860   9.215   6.503  12.632
97321SOL    HW293861   9.115   6.520  12.744
97322SOL     OW93862   2.453  11.469   6.060
97322SOL    HW193863   2.502  11.391   6.034
97322SOL    HW293864   2.369  11.461   6.015
97323SOL     OW93865  14.105   4.890   1.023
97323SOL    HW193866  14.133   4.981   1.034
97323SOL    HW293867  14.032   4.894   0.961
97324SOL     OW93868   6.348  10.999  11.905
97324SOL    HW193869   6.433  11.006  11.948
97324SOL    HW293870   6.296  11.070  11.943
97325SOL     OW93871   7.418   4.020   8.350
97325SOL    HW193872   7.401   4.060   8.265
97325SOL    HW293873   7.513   4.029   8.362
97326SOL     OW93874  13.172  11.612   2.270
97326SOL    HW193875  13.133  11.572   2.348
97326SOL    HW293876  13.119  11.690   2.254
97327SOL     OW93877   7.325   3.572   0.490
97327SOL    HW193878   7.292   3.610   0.571
97327SOL    HW293879   7.415   3.546   0.510
97328SOL     OW93880   5.944   7.373   0.602
97328SOL    HW193881   6.015   7.437   0.607
97328SOL    HW293882   5.868   7.422   0.572
97329SOL     OW93883   9.863  11.351   6.009
97329SOL    HW193884   9.788  11.292   6.007
97329SOL    HW293885   9.935  11.298   6.042
97330SOL     OW93886   2.713   0.483   9.893
97330SOL    HW193887   2.709   0.543   9.818
97330SOL    HW293888   2.643   0.513   9.951
97331SOL     OW93889  12.276  11.798  10.888
97331SOL    HW193890  12.328  11.727  10.850
97331SOL    HW293891  12.198  11.803  10.833
97332SOL     OW93892  14.154   5.588   8.363
97332SOL    HW193893  14.061   5.577   8.343
97332SOL    HW293894  14.199   5.550   8.288
97333SOL     OW93895   6.000   1.343   0.111
97333SOL    HW193896   6.056   1.398   0.056
97333SOL    HW293897   5.949   1.291   0.049
97334SOL     OW93898   8.067   4.781   1.464
97334SOL    HW193899   8.144   4.837   1.451
97334SOL    HW293900   8.047   4.790   1.557
97335SOL     OW93901   6.173  11.287   3.126
97335SOL    HW193902   6.118  11.336   3.065
97335SOL    HW293903   6.258  11.281   3.082
97336SOL     OW93904   0.442   8.950   5.835
97336SOL    HW193905   0.375   8.914   5.893
97336SOL    HW293906   0.423   8.911   5.750
97337SOL     OW93907   8.735  11.889   8.538
97337SOL    HW193908   8.737  11.979   8.505
97337SOL    HW293909   8.726  11.899   8.633
97338SOL     OW93910  10.520   7.123   4.315
97338SOL    HW193911  10.430   7.120   4.281
97338SOL    HW293912  10.520   7.060   4.387
97339SOL     OW93913   7.455   6.673  13.161
97339SOL    HW193914   7.396   6.723  13.218
97339SOL    HW293915   7.398   6.640  13.091
97340SOL     OW93916   9.911   6.870   1.486
97340SOL    HW193917   9.850   6.933   1.524
97340SOL    HW293918   9.884   6.863   1.394
97341SOL     OW93919   4.333  11.958   5.890
97341SOL    HW193920   4.402  11.938   5.953
97341SOL    HW293921   4.380  11.982   5.810
97342SOL     OW93922   5.390  12.289   1.838
97342SOL    HW193923   5.476  12.270   1.801
97342SOL    HW293924   5.408  12.325   1.925
97343SOL     OW93925   4.014  13.397   7.788
97343SOL    HW193926   3.927  13.436   7.801
97343SOL    HW293927   4.034  13.358   7.874
97344SOL     OW93928   2.196  11.007   9.576
97344SOL    HW193929   2.105  10.976   9.576
97344SOL    HW293930   2.218  11.019   9.668
97345SOL     OW93931   9.096   7.758   3.594
97345SOL    HW193932   9.065   7.793   3.678
97345SOL    HW293933   9.052   7.812   3.528
97346SOL     OW93934  10.048  12.617   0.548
97346SOL    HW193935  10.137  12.612   0.581
97346SOL    HW293936  10.048  12.562   0.469
97347SOL     OW93937  13.476   5.130   7.729
97347SOL    HW193938  13.528   5.130   7.649
97347SOL    HW293939  13.389   5.159   7.701
97348SOL     OW93940   4.015  13.631   0.339
97348SOL    HW193941   3.966  13.657   0.417
97348SOL    HW293942   3.997  13.538   0.328
97349SOL     OW93943  14.758   5.410   0.609
97349SOL    HW193944  14.771   5.380   0.519
97349SOL    HW293945  14.678   5.463   0.605
97350SOL     OW93946   1.956   6.669   5.807
97350SOL    HW193947   1.966   6.735   5.875
97350SOL    HW293948   2.012   6.700   5.735
97351SOL     OW93949   0.906   5.420   1.244
97351SOL    HW193950   0.927   5.513   1.237
97351SOL    HW293951   0.811   5.416   1.237
97352SOL     OW93952  14.425   9.374  10.376
97352SOL    HW193953  14.375   9.450  10.347
97352SOL    HW293954  14.481   9.408  10.446
97353SOL     OW93955  10.881   7.983   7.076
97353SOL    HW193956  10.834   8.055   7.119
97353SOL    HW293957  10.877   8.004   6.983
97354SOL     OW93958   8.741   6.873   3.684
97354SOL    HW193959   8.678   6.945   3.693
97354SOL    HW293960   8.817   6.902   3.736
97355SOL     OW93961  14.079   2.978   7.407
97355SOL    HW193962  14.052   2.926   7.483
97355SOL    HW293963  14.084   3.068   7.441
97356SOL     OW93964   4.414   3.241   9.249
97356SOL    HW193965   4.448   3.222   9.336
97356SOL    HW293966   4.405   3.337   9.247
97357SOL     OW93967   0.375  14.261   8.948
97357SOL    HW193968   0.325  14.311   8.884
97357SOL    HW293969   0.464  14.294   8.941
97358SOL     OW93970   9.348   4.320   6.493
97358SOL    HW193971   9.292   4.242   6.498
97358SOL    HW293972   9.294   4.390   6.531
97359SOL     OW93973   9.654  11.971  14.525
97359SOL    HW193974   9.568  11.982  14.487
97359SOL    HW293975   9.707  11.931  14.456
97360SOL     OW93976   3.685   5.479   7.031
97360SOL    HW193977   3.756   5.493   6.968
97360SOL    HW293978   3.716   5.408   7.087
97361SOL     OW93979   8.235   9.534  11.302
97361SOL    HW193980   8.158   9.572  11.259
97361SOL    HW293981   8.267   9.604  11.359
97362SOL     OW93982   4.768   9.440   6.943
97362SOL    HW193983   4.724   9.468   6.863
97362SOL    HW293984   4.847   9.493   6.947
97363SOL     OW93985   9.511   6.382  13.552
97363SOL    HW193986   9.588   6.436  13.536
97363SOL    HW293987   9.460   6.432  13.617
97364SOL     OW93988  13.567   8.124  11.792
97364SOL    HW193989  13.647   8.173  11.771
97364SOL    HW293990  13.596   8.034  11.803
97365SOL     OW93991  11.460   6.124   8.748
97365SOL    HW193992  11.446   6.201   8.803
97365SOL    HW293993  11.539   6.144   8.698
97366SOL     OW93994   3.390   3.162   9.832
97366SOL    HW193995   3.420   3.243   9.790
97366SOL    HW293996   3.444   3.154   9.910
97367SOL     OW93997   0.941  11.504   7.152
97367SOL    HW193998   0.937  11.511   7.056
97367SOL    HW293999   1.003  11.433   7.168
97368SOL     OW94000   4.347  10.171   5.855
97368SOL    HW194001   4.383  10.103   5.913
97368SOL    HW294002   4.290  10.122   5.795
97369SOL     OW94003  10.566   1.909  14.190
97369SOL    HW194004  10.590   1.831  14.141
97369SOL    HW294005  10.532   1.970  14.124
97370SOL     OW94006   8.603   4.470  10.995
97370SOL    HW194007   8.541   4.540  11.012
97370SOL    HW294008   8.687   4.506  11.024
97371SOL     OW94009   8.346   7.561   8.789
97371SOL    HW194010   8.293   7.492   8.750
97371SOL    HW294011   8.292   7.595   8.861
97372SOL     OW94012  14.223  14.067  14.371
97372SOL    HW194013  14.232  13.980  14.409
97372SOL    HW294014  14.302  14.113  14.400
97373SOL     OW94015   1.760   3.427  14.643
97373SOL    HW194016   1.782   3.511  14.684
97373SOL    HW294017   1.665   3.421  14.648
97374SOL     OW94018   1.527  14.548   2.164
97374SOL    HW194019   1.507  14.498   2.085
97374SOL    HW294020   1.450  14.602   2.178
97375SOL     OW94021   5.839   6.497   1.431
97375SOL    HW194022   5.744   6.504   1.439
97375SOL    HW294023   5.868   6.583   1.400
97376SOL     OW94024  12.222   9.145  11.540
97376SOL    HW194025  12.166   9.217  11.510
97376SOL    HW294026  12.179   9.066  11.507
97377SOL     OW94027   1.649  10.883   9.949
97377SOL    HW194028   1.698  10.823   9.893
97377SOL    HW294029   1.560  10.846   9.952
97378SOL     OW94030   0.685   8.065   0.482
97378SOL    HW194031   0.665   8.152   0.517
97378SOL    HW294032   0.767   8.040   0.524
97379SOL     OW94033  13.985  12.997  12.397
97379SOL    HW194034  13.891  12.984  12.390
97379SOL    HW294035  13.997  13.091  12.403
97380SOL     OW94036   5.418  11.761   1.536
97380SOL    HW194037   5.346  11.815   1.569
97380SOL    HW294038   5.421  11.687   1.596
97381SOL     OW94039   7.344   5.757   5.518
97381SOL    HW194040   7.268   5.799   5.477
97381SOL    HW294041   7.310   5.675   5.554
97382SOL     OW94042   1.929   7.556  13.354
97382SOL    HW194043   1.891   7.471  13.377
97382SOL    HW294044   1.957   7.594  13.438
97383SOL     OW94045   4.261   5.748   3.059
97383SOL    HW194046   4.195   5.774   3.123
97383SOL    HW294047   4.214   5.692   2.997
97384SOL     OW94048  13.360  10.580   4.826
97384SOL    HW194049  13.283  10.615   4.871
97384SOL    HW294050  13.372  10.492   4.864
97385SOL     OW94051  12.398  12.717   2.711
97385SOL    HW194052  12.304  12.703   2.708
97385SOL    HW294053  12.421  12.707   2.804
97386SOL     OW94054   7.667   9.986  11.697
97386SOL    HW194055   7.748  10.018  11.658
97386SOL    HW294056   7.692   9.955  11.784
97387SOL     OW94057  11.110   8.858   1.125
97387SOL    HW194058  11.127   8.776   1.078
97387SOL    HW294059  11.194   8.881   1.165
97388SOL     OW94060   5.525   5.949  11.469
97388SOL    HW194061   5.579   5.931  11.392
97388SOL    HW294062   5.578   5.918  11.543
97389SOL     OW94063   2.388   6.335   3.306
97389SOL    HW194064   2.451   6.387   3.256
97389SOL    HW294065   2.357   6.269   3.244
97390SOL     OW94066   0.067  14.465  10.253
97390SOL    HW194067   0.077  14.399  10.184
97390SOL    HW294068   0.152  14.469  10.296
97391SOL     OW94069   5.337  12.054   0.833
97391SOL    HW194070   5.246  12.039   0.857
97391SOL    HW294071   5.335  12.061   0.738
97392SOL     OW94072   9.058   5.442   5.055
97392SOL    HW194073   9.031   5.379   5.122
97392SOL    HW294074   9.008   5.521   5.074
97393SOL     OW94075   9.536   8.494   2.440
97393SOL    HW194076   9.461   8.435   2.448
97393SOL    HW294077   9.601   8.443   2.393
97394SOL     OW94078   4.781   3.625  13.555
97394SOL    HW194079   4.814   3.552  13.503
97394SOL    HW294080   4.709   3.661  13.504
97395SOL     OW94081  12.148  14.698   1.726
97395SOL    HW194082  12.093  14.741   1.792
97395SOL    HW294083  12.191  14.627   1.774
97396SOL     OW94084   1.460   2.827   9.549
97396SOL    HW194085   1.432   2.877   9.626
97396SOL    HW294086   1.538   2.874   9.517
97397SOL     OW94087   7.130   6.502   7.261
97397SOL    HW194088   7.044   6.468   7.284
97397SOL    HW294089   7.115   6.594   7.236
97398SOL     OW94090   4.478   8.763   5.679
97398SOL    HW194091   4.417   8.692   5.700
97398SOL    HW294092   4.484   8.763   5.584
97399SOL     OW94093   5.650  12.720   3.239
97399SOL    HW194094   5.728  12.673   3.268
97399SOL    HW294095   5.673  12.813   3.248
97400SOL     OW94096   6.458  13.630  14.444
97400SOL    HW194097   6.488  13.542  14.465
97400SOL    HW294098   6.378  13.641  14.496
97401SOL     OW94099   3.576   6.646   5.072
97401SOL    HW194100   3.585   6.604   4.987
97401SOL    HW294101   3.612   6.584   5.135
97402SOL     OW94102   2.251   5.614   9.283
97402SOL    HW194103   2.170   5.575   9.316
97402SOL    HW294104   2.290   5.545   9.229
97403SOL     OW94105  13.930  12.310   9.967
97403SOL    HW194106  13.845  12.348   9.945
97403SOL    HW294107  13.954  12.353  10.050
97404SOL     OW94108  13.459   1.295   0.456
97404SOL    HW194109  13.455   1.210   0.412
97404SOL    HW294110  13.379   1.299   0.508
97405SOL     OW94111   0.300  14.216   2.338
97405SOL    HW194112   0.266  14.128   2.320
97405SOL    HW294113   0.283  14.230   2.431
97406SOL     OW94114   1.695  14.290   0.641
97406SOL    HW194115   1.778  14.307   0.686
97406SOL    HW294116   1.698  14.347   0.564
97407SOL     OW94117   1.052   7.993  13.080
97407SOL    HW194118   0.971   7.977  13.128
97407SOL    HW294119   1.080   8.080  13.108
97408SOL     OW94120   9.144   5.887   8.684
97408SOL    HW194121   9.136   5.910   8.777
97408SOL    HW294122   9.178   5.966   8.642
97409SOL     OW94123   6.814  14.041   6.633
97409SOL    HW194124   6.769  13.991   6.565
97409SOL    HW294125   6.745  14.069   6.693
97410SOL     OW94126   5.394   3.719  10.793
97410SOL    HW194127   5.372   3.732  10.700
97410SOL    HW294128   5.323   3.665  10.827
97411SOL     OW94129   9.985  10.004  14.667
97411SOL    HW194130  10.054  10.068  14.648
97411SOL    HW294131   9.941  10.038  14.745
97412SOL     OW94132  13.911  10.926   9.193
97412SOL    HW194133  13.883  10.910   9.283
97412SOL    HW294134  13.985  10.867   9.180
97413SOL     OW94135   4.234   8.769  11.616
97413SOL    HW194136   4.273   8.695  11.570
97413SOL    HW294137   4.274   8.846  11.576
97414SOL     OW94138  11.420   1.486   7.751
97414SOL    HW194139  11.459   1.409   7.711
97414SOL    HW294140  11.386   1.537   7.678
97415SOL     OW94141   7.952   8.059  14.744
97415SOL    HW194142   7.997   8.092  14.666
97415SOL    HW294143   7.948   8.134  14.804
97416SOL     OW94144   8.989   6.810   9.044
97416SOL    HW194145   8.933   6.773   9.113
97416SOL    HW294146   9.062   6.748   9.037
97417SOL     OW94147   0.121  13.720   7.688
97417SOL    HW194148   0.123  13.682   7.601
97417SOL    HW294149   0.052  13.671   7.733
97418SOL     OW94150   6.591  11.768   3.863
97418SOL    HW194151   6.583  11.678   3.830
97418SOL    HW294152   6.681  11.773   3.897
97419SOL     OW94153   9.042  14.012  12.193
97419SOL    HW194154   9.119  14.042  12.240
97419SOL    HW294155   8.976  14.079  12.210
97420SOL     OW94156  10.523  13.575  13.866
97420SOL    HW194157  10.547  13.629  13.791
97420SOL    HW294158  10.591  13.593  13.931
97421SOL     OW94159   8.855  11.629  14.454
97421SOL    HW194160   8.939  11.669  14.431
97421SOL    HW294161   8.862  11.613  14.548
97422SOL     OW94162  14.106   8.119  14.756
97422SOL    HW194163  14.095   8.199  14.808
97422SOL    HW294164  14.157   8.147  14.680
97423SOL     OW94165   6.933  12.133  10.276
97423SOL    HW194166   6.928  12.205  10.338
97423SOL    HW294167   6.866  12.153  10.211
97424SOL     OW94168   7.879   8.183   3.857
97424SOL    HW194169   7.808   8.185   3.921
97424SOL    HW294170   7.898   8.275   3.839
97425SOL     OW94171   9.455   0.733  12.983
97425SOL    HW194172   9.488   0.705  12.898
97425SOL    HW294173   9.360   0.737  12.972
97426SOL     OW94174  11.988   2.172  14.709
97426SOL    HW194175  12.054   2.208  14.768
97426SOL    HW294176  12.029   2.094  14.672
97427SOL     OW94177   6.421   5.212   8.236
97427SOL    HW194178   6.492   5.202   8.173
97427SOL    HW294179   6.428   5.303   8.266
97428SOL     OW94180   7.620   1.337   0.560
97428SOL    HW194181   7.703   1.368   0.524
97428SOL    HW294182   7.585   1.412   0.609
97429SOL     OW94183   3.843   9.027  12.489
97429SOL    HW194184   3.815   8.941  12.457
97429SOL    HW294185   3.938   9.025  12.484
97430SOL     OW94186   0.914   8.144  10.556
97430SOL    HW194187   0.911   8.155  10.461
97430SOL    HW294188   0.851   8.206  10.590
97431SOL     OW94189  14.016   9.391   9.608
97431SOL    HW194190  13.927   9.365   9.584
97431SOL    HW294191  14.067   9.382   9.527
97432SOL     OW94192   9.889  12.854  12.777
97432SOL    HW194193   9.961  12.895  12.730
97432SOL    HW294194   9.903  12.760  12.765
97433SOL     OW94195   3.760  11.070   2.137
97433SOL    HW194196   3.750  11.075   2.042
97433SOL    HW294197   3.738  10.980   2.158
97434SOL     OW94198  13.153   9.703   8.066
97434SOL    HW194199  13.119   9.793   8.066
97434SOL    HW294200  13.108   9.660   8.138
97435SOL     OW94201   0.968   6.283   1.307
97435SOL    HW194202   0.920   6.208   1.343
97435SOL    HW294203   1.054   6.278   1.348
97436SOL     OW94204   0.347  12.993  13.872
97436SOL    HW194205   0.264  12.979  13.918
97436SOL    HW294206   0.412  12.944  13.923
97437SOL     OW94207   1.176   7.711  13.520
97437SOL    HW194208   1.189   7.772  13.448
97437SOL    HW294209   1.090   7.672  13.504
97438SOL     OW94210   1.333  11.668  12.971
97438SOL    HW194211   1.424  11.670  12.999
97438SOL    HW294212   1.305  11.578  12.986
97439SOL     OW94213   2.554   6.705  12.386
97439SOL    HW194214   2.588   6.792  12.405
97439SOL    HW294215   2.631   6.648  12.391
97440SOL     OW94216  10.582  10.119   2.682
97440SOL    HW194217  10.492  10.099   2.657
97440SOL    HW294218  10.589  10.088   2.772
97441SOL     OW94219   9.254  13.567   4.133
97441SOL    HW194220   9.346  13.586   4.111
97441SOL    HW294221   9.231  13.494   4.075
97442SOL     OW94222  13.289   9.402   6.116
97442SOL    HW194223  13.221   9.349   6.158
97442SOL    HW294224  13.265   9.492   6.138
97443SOL     OW94225   9.297   8.797   0.116
97443SOL    HW194226   9.322   8.877   0.069
97443SOL    HW294227   9.211   8.817   0.153
97444SOL     OW94228   8.505   9.722   9.977
97444SOL    HW194229   8.489   9.654   9.911
97444SOL    HW294230   8.430   9.782   9.968
97445SOL     OW94231   9.142   2.509   5.888
97445SOL    HW194232   9.067   2.496   5.946
97445SOL    HW294233   9.160   2.422   5.852
97446SOL     OW94234   7.225  10.749   9.021
97446SOL    HW194235   7.141  10.795   9.022
97446SOL    HW294236   7.281  10.800   8.963
97447SOL     OW94237  11.329   4.324   1.024
97447SOL    HW194238  11.323   4.317   1.119
97447SOL    HW294239  11.389   4.397   1.009
97448SOL     OW94240  12.834   7.364  14.150
97448SOL    HW194241  12.848   7.298  14.217
97448SOL    HW294242  12.868   7.325  14.070
97449SOL     OW94243   7.931  12.288   1.773
97449SOL    HW194244   7.922  12.200   1.736
97449SOL    HW294245   7.875  12.287   1.851
97450SOL     OW94246   2.910  14.370   7.039
97450SOL    HW194247   2.986  14.418   7.007
97450SOL    HW294248   2.864  14.342   6.960
97451SOL     OW94249   7.599  12.571   2.794
97451SOL    HW194250   7.527  12.585   2.854
97451SOL    HW294251   7.557  12.542   2.713
97452SOL     OW94252   6.708   9.958   5.291
97452SOL    HW194253   6.656   9.892   5.245
97452SOL    HW294254   6.705   9.931   5.382
97453SOL     OW94255  13.105   5.657   4.122
97453SOL    HW194256  13.082   5.720   4.190
97453SOL    HW294257  13.193   5.629   4.143
97454SOL     OW94258  14.138   9.375   4.335
97454SOL    HW194259  14.220   9.329   4.355
97454SOL    HW294260  14.165   9.448   4.279
97455SOL     OW94261   6.934  10.885   4.438
97455SOL    HW194262   6.864  10.893   4.503
97455SOL    HW294263   6.894  10.842   4.363
97456SOL     OW94264   2.635   8.092   5.496
97456SOL    HW194265   2.541   8.076   5.505
97456SOL    HW294266   2.676   8.009   5.520
97457SOL     OW94267   3.774  14.078   0.037
97457SOL    HW194268   3.785  14.111   0.126
97457SOL    HW294269   3.696  14.124   0.004
97458SOL     OW94270  11.182   1.754   6.415
97458SOL    HW194271  11.191   1.759   6.320
97458SOL    HW294272  11.153   1.664   6.432
97459SOL     OW94273   3.289  12.833  11.737
97459SOL    HW194274   3.202  12.851  11.702
97459SOL    HW294275   3.307  12.743  11.711
97460SOL     OW94276   6.995   2.776  10.545
97460SOL    HW194277   6.936   2.815  10.480
97460SOL    HW294278   6.940   2.715  10.594
97461SOL     OW94279   1.101  10.265   9.370
97461SOL    HW194280   1.162  10.250   9.441
97461SOL    HW294281   1.114  10.190   9.311
97462SOL     OW94282  12.107   9.727   2.496
97462SOL    HW194283  12.083   9.636   2.515
97462SOL    HW294284  12.042   9.755   2.431
97463SOL     OW94285  12.814  10.336   4.738
97463SOL    HW194286  12.910  10.336   4.747
97463SOL    HW294287  12.786  10.420   4.773
97464SOL     OW94288   4.670   9.682   5.164
97464SOL    HW194289   4.606   9.700   5.095
97464SOL    HW294290   4.617   9.674   5.244
97465SOL     OW94291   5.379   4.272   9.412
97465SOL    HW194292   5.425   4.258   9.494
97465SOL    HW294293   5.294   4.306   9.437
97466SOL     OW94294   8.335   6.140   5.548
97466SOL    HW194295   8.286   6.094   5.616
97466SOL    HW294296   8.387   6.072   5.505
97467SOL     OW94297   3.793   4.668   9.904
97467SOL    HW194298   3.873   4.617   9.912
97467SOL    HW294299   3.820   4.749   9.860
97468SOL     OW94300  13.506   7.542   6.703
97468SOL    HW194301  13.452   7.617   6.724
97468SOL    HW294302  13.585   7.553   6.756
97469SOL     OW94303  12.452  14.301   9.227
97469SOL    HW194304  12.455  14.209   9.201
97469SOL    HW294305  12.479  14.302   9.319
97470SOL     OW94306  14.702  13.659  10.820
97470SOL    HW194307  14.666  13.743  10.790
97470SOL    HW294308  14.639  13.594  10.788
97471SOL     OW94309  12.919  14.329   8.010
97471SOL    HW194310  12.850  14.366   8.065
97471SOL    HW294311  12.973  14.404   7.987
97472SOL     OW94312   1.921   4.107  10.419
97472SOL    HW194313   1.863   4.176  10.453
97472SOL    HW294314   2.007   4.128  10.455
97473SOL     OW94315   4.502   5.575  13.553
97473SOL    HW194316   4.431   5.635  13.529
97473SOL    HW294317   4.459   5.508  13.607
97474SOL     OW94318   5.226   9.369   6.368
97474SOL    HW194319   5.207   9.297   6.309
97474SOL    HW294320   5.253   9.327   6.450
97475SOL     OW94321   9.952   7.768  13.008
97475SOL    HW194322   9.929   7.743  12.919
97475SOL    HW294323  10.046   7.750  13.015
97476SOL     OW94324  13.889   9.951   8.656
97476SOL    HW194325  13.817  10.005   8.624
97476SOL    HW294326  13.873   9.942   8.750
97477SOL     OW94327  10.182   0.907   1.973
97477SOL    HW194328  10.095   0.917   1.934
97477SOL    HW294329  10.165   0.895   2.067
97478SOL     OW94330  11.961   8.895   5.645
97478SOL    HW194331  11.891   8.868   5.586
97478SOL    HW294332  11.963   8.991   5.637
97479SOL     OW94333   1.862  13.369   5.556
97479SOL    HW194334   1.813  13.410   5.486
97479SOL    HW294335   1.815  13.392   5.636
97480SOL     OW94336   2.948   9.916  13.332
97480SOL    HW194337   2.891   9.977  13.285
97480SOL    HW294338   3.035   9.931  13.296
97481SOL     OW94339  13.180   1.096   9.817
97481SOL    HW194340  13.128   1.164   9.774
97481SOL    HW294341  13.127   1.016   9.808
97482SOL     OW94342  11.021   4.392   6.555
97482SOL    HW194343  11.071   4.364   6.631
97482SOL    HW294344  11.079   4.454   6.510
97483SOL     OW94345   9.393   9.930   1.493
97483SOL    HW194346   9.455   9.935   1.421
97483SOL    HW294347   9.313   9.894   1.454
97484SOL     OW94348   9.229  10.714  10.774
97484SOL    HW194349   9.309  10.666  10.794
97484SOL    HW294350   9.188  10.665  10.703
97485SOL     OW94351   2.487   6.890   6.269
97485SOL    HW194352   2.522   6.975   6.243
97485SOL    HW294353   2.409   6.879   6.214
97486SOL     OW94354   3.260   5.849   3.230
97486SOL    HW194355   3.182   5.836   3.285
97486SOL    HW294356   3.246   5.934   3.188
97487SOL     OW94357   2.165   2.943   2.824
97487SOL    HW194358   2.202   2.862   2.860
97487SOL    HW294359   2.240   3.000   2.810
97488SOL     OW94360   9.616   2.835   8.475
97488SOL    HW194361   9.709   2.816   8.461
97488SOL    HW294362   9.570   2.773   8.418
97489SOL     OW94363   5.022   1.684   2.562
97489SOL    HW194364   5.076   1.617   2.518
97489SOL    HW294365   5.020   1.757   2.500
97490SOL     OW94366   3.009   7.200  10.240
97490SOL    HW194367   3.070   7.237  10.176
97490SOL    HW294368   3.024   7.251  10.320
97491SOL     OW94369  10.990   6.764  10.387
97491SOL    HW194370  10.951   6.735  10.305
97491SOL    HW294371  11.044   6.839  10.362
97492SOL     OW94372  12.083   6.196   0.058
97492SOL    HW194373  12.092   6.111   0.102
97492SOL    HW294374  11.989   6.212   0.055
97493SOL     OW94375  14.572  12.338   9.105
97493SOL    HW194376  14.571  12.425   9.065
97493SOL    HW294377  14.516  12.346   9.182
97494SOL     OW94378   7.045   7.006  12.025
97494SOL    HW194379   7.137   7.021  12.046
97494SOL    HW294380   7.044   6.919  11.984
97495SOL     OW94381   9.866   7.474   0.148
97495SOL    HW194382   9.829   7.534   0.082
97495SOL    HW294383   9.797   7.408   0.161
97496SOL     OW94384   9.383   7.867   2.005
97496SOL    HW194385   9.373   7.927   2.079
97496SOL    HW294386   9.462   7.816   2.026
97497SOL     OW94387  11.678   4.622   0.553
97497SOL    HW194388  11.635   4.701   0.523
97497SOL    HW294389  11.660   4.557   0.485
97498SOL     OW94390  11.598  10.542   9.739
97498SOL    HW194391  11.585  10.479   9.668
97498SOL    HW294392  11.636  10.619   9.696
97499SOL     OW94393   3.401   3.540   9.513
97499SOL    HW194394   3.328   3.510   9.460
97499SOL    HW294395   3.459   3.464   9.519
97500SOL     OW94396   1.469   7.830   6.202
97500SOL    HW194397   1.419   7.829   6.121
97500SOL    HW294398   1.420   7.891   6.259
97501SOL     OW94399  10.416  11.154  13.347
97501SOL    HW194400  10.426  11.197  13.432
97501SOL    HW294401  10.491  11.094  13.342
97502SOL     OW94402   7.170   1.111   6.748
97502SOL    HW194403   7.177   1.150   6.834
97502SOL    HW294404   7.228   1.164   6.693
97503SOL     OW94405  14.538  12.043   1.849
97503SOL    HW194406  14.620  12.090   1.834
97503SOL    HW294407  14.492  12.095   1.915
97504SOL     OW94408   0.841   5.123   3.956
97504SOL    HW194409   0.873   5.094   3.871
97504SOL    HW294410   0.806   5.044   3.997
97505SOL     OW94411   2.142   4.679   9.748
97505SOL    HW194412   2.177   4.632   9.825
97505SOL    HW294413   2.088   4.614   9.703
97506SOL     OW94414   9.269   0.502   5.708
97506SOL    HW194415   9.209   0.439   5.748
97506SOL    HW294416   9.349   0.496   5.760
97507SOL     OW94417   2.591  12.767  12.535
97507SOL    HW194418   2.633  12.768  12.449
97507SOL    HW294419   2.501  12.742  12.517
97508SOL     OW94420   1.791   7.129  11.769
97508SOL    HW194421   1.696   7.124  11.755
97508SOL    HW294422   1.808   7.066  11.839
97509SOL     OW94423   6.936   6.471   7.853
97509SOL    HW194424   7.010   6.487   7.793
97509SOL    HW294425   6.917   6.378   7.844
97510SOL     OW94426   8.695  13.836   0.323
97510SOL    HW194427   8.768  13.785   0.288
97510SOL    HW294428   8.731  13.880   0.400
97511SOL     OW94429  13.315   1.593   4.651
97511SOL    HW194430  13.288   1.619   4.739
97511SOL    HW294431  13.254   1.522   4.628
97512SOL     OW94432   6.115  13.623   4.075
97512SOL    HW194433   6.166  13.653   4.000
97512SOL    HW294434   6.045  13.687   4.085
97513SOL     OW94435  14.080  13.864  10.510
97513SOL    HW194436  14.045  13.833  10.427
97513SOL    HW294437  14.172  13.839  10.508
97514SOL     OW94438   0.687   4.105   6.033
97514SOL    HW194439   0.670   4.011   6.045
97514SOL    HW294440   0.734   4.131   6.112
97515SOL     OW94441   4.864  11.797  14.688
97515SOL    HW194442   4.777  11.778  14.655
97515SOL    HW294443   4.867  11.752  14.773
97516SOL     OW94444   9.669  13.003   5.077
97516SOL    HW194445   9.579  12.992   5.106
97516SOL    HW294446   9.720  12.944   5.133
97517SOL     OW94447  13.817  11.071   3.640
97517SOL    HW194448  13.885  11.005   3.629
97517SOL    HW294449  13.777  11.079   3.553
97518SOL     OW94450   6.138  11.939   6.396
97518SOL    HW194451   6.068  11.929   6.330
97518SOL    HW294452   6.188  12.015   6.366
97519SOL     OW94453   1.542  13.165   1.989
97519SOL    HW194454   1.594  13.232   1.946
97519SOL    HW294455   1.564  13.172   2.081
97520SOL     OW94456  11.969   7.846  10.345
97520SOL    HW194457  11.906   7.860  10.416
97520SOL    HW294458  11.929   7.888  10.269
97521SOL     OW94459   5.447   5.432   7.334
97521SOL    HW194460   5.517   5.403   7.393
97521SOL    HW294461   5.382   5.362   7.337
97522SOL     OW94462  12.723  11.903   3.467
97522SOL    HW194463  12.689  11.992   3.471
97522SOL    HW294464  12.779  11.902   3.389
97523SOL     OW94465   6.566  10.212   0.054
97523SOL    HW194466   6.642  10.267   0.033
97523SOL    HW294467   6.506  10.271   0.099
97524SOL     OW94468   6.032  13.030   0.880
97524SOL    HW194469   6.004  13.117   0.910
97524SOL    HW294470   6.085  13.048   0.802
97525SOL     OW94471  10.087   9.061  14.834
97525SOL    HW194472  10.083   9.152  14.864
97525SOL    HW294473  10.051   9.064  14.745
97526SOL     OW94474   0.464  13.045  12.406
97526SOL    HW194475   0.403  13.075  12.338
97526SOL    HW294476   0.550  13.069  12.372
97527SOL     OW94477   4.962   4.073   1.353
97527SOL    HW194478   4.942   4.120   1.272
97527SOL    HW294479   4.902   3.998   1.352
97528SOL     OW94480   2.822   3.419  11.340
97528SOL    HW194481   2.862   3.359  11.277
97528SOL    HW294482   2.886   3.489  11.349
97529SOL     OW94483   4.928  13.973   3.648
97529SOL    HW194484   4.869  14.014   3.712
97529SOL    HW294485   4.906  14.014   3.565
97530SOL     OW94486   3.722  10.024   8.065
97530SOL    HW194487   3.773  10.081   8.122
97530SOL    HW294488   3.703  10.078   7.988
97531SOL     OW94489  11.612  14.300   1.365
97531SOL    HW194490  11.685  14.264   1.314
97531SOL    HW294491  11.581  14.226   1.418
97532SOL     OW94492   4.934   9.773  14.596
97532SOL    HW194493   4.853   9.786  14.644
97532SOL    HW294494   5.001   9.758  14.663
97533SOL     OW94495   1.153   8.364  14.528
97533SOL    HW194496   1.171   8.425  14.457
97533SOL    HW294497   1.068   8.391  14.563
97534SOL     OW94498   5.945   5.699   5.586
97534SOL    HW194499   5.948   5.620   5.532
97534SOL    HW294500   6.023   5.694   5.642
97535SOL     OW94501   9.253   6.779   3.805
97535SOL    HW194502   9.204   6.858   3.782
97535SOL    HW294503   9.205   6.743   3.880
97536SOL     OW94504   2.937   2.949   5.153
97536SOL    HW194505   3.026   2.957   5.119
97536SOL    HW294506   2.907   3.040   5.163
97537SOL     OW94507   3.823  13.209   2.319
97537SOL    HW194508   3.857  13.125   2.352
97537SOL    HW294509   3.901  13.263   2.305
97538SOL     OW94510   4.375  13.546  11.796
97538SOL    HW194511   4.373  13.611  11.866
97538SOL    HW294512   4.456  13.496  11.811
97539SOL     OW94513   4.681   7.317   1.594
97539SOL    HW194514   4.714   7.406   1.578
97539SOL    HW294515   4.607   7.329   1.653
97540SOL     OW94516   6.884   5.317   8.241
97540SOL    HW194517   6.925   5.315   8.155
97540SOL    HW294518   6.801   5.269   8.230
97541SOL     OW94519  11.925   9.404   6.092
97541SOL    HW194520  11.852   9.442   6.141
97541SOL    HW294521  11.885   9.333   6.042
97542SOL     OW94522   0.203   6.287   7.588
97542SOL    HW194523   0.199   6.196   7.556
97542SOL    HW294524   0.218   6.278   7.682
97543SOL     OW94525   1.536   2.165   3.430
97543SOL    HW194526   1.501   2.093   3.483
97543SOL    HW294527   1.631   2.152   3.432
97544SOL     OW94528   1.267   6.213   4.551
97544SOL    HW194529   1.178   6.181   4.534
97544SOL    HW294530   1.254   6.297   4.594
97545SOL     OW94531  12.781  11.331  14.176
97545SOL    HW194532  12.713  11.356  14.239
97545SOL    HW294533  12.798  11.239  14.195
97546SOL     OW94534  13.966   9.601  14.022
97546SOL    HW194535  13.927   9.688  14.019
97546SOL    HW294536  13.934   9.558  13.942
97547SOL     OW94537  11.621   3.461  13.348
97547SOL    HW194538  11.590   3.477  13.438
97547SOL    HW294539  11.585   3.534  13.297
97548SOL     OW94540   8.708   8.676  11.860
97548SOL    HW194541   8.769   8.741  11.894
97548SOL    HW294542   8.637   8.673  11.924
97549SOL     OW94543  12.058   4.895   5.135
97549SOL    HW194544  12.013   4.973   5.168
97549SOL    HW294545  12.134   4.885   5.192
97550SOL     OW94546   9.747   1.471   6.536
97550SOL    HW194547   9.830   1.462   6.490
97550SOL    HW294548   9.768   1.453   6.628
97551SOL     OW94549   4.428  12.072   9.689
97551SOL    HW194550   4.350  12.058   9.744
97551SOL    HW294551   4.418  12.161   9.655
97552SOL     OW94552   6.326   4.896  11.315
97552SOL    HW194553   6.265   4.933  11.251
97552SOL    HW294554   6.362   4.971  11.361
97553SOL     OW94555   3.554   9.275   4.482
97553SOL    HW194556   3.471   9.263   4.529
97553SOL    HW294557   3.609   9.325   4.542
97554SOL     OW94558   5.649   4.072   6.192
97554SOL    HW194559   5.652   4.167   6.199
97554SOL    HW294560   5.731   4.043   6.230
97555SOL     OW94561   6.770  14.352   2.193
97555SOL    HW194562   6.695  14.411   2.181
97555SOL    HW294563   6.826  14.397   2.255
97556SOL     OW94564  14.177   7.198   8.776
97556SOL    HW194565  14.222   7.126   8.733
97556SOL    HW294566  14.099   7.213   8.724
97557SOL     OW94567   3.904  10.700   1.325
97557SOL    HW194568   3.830  10.744   1.366
97557SOL    HW294569   3.974  10.705   1.389
97558SOL     OW94570  13.184   0.911   4.397
97558SOL    HW194571  13.113   0.936   4.457
97558SOL    HW294572  13.159   0.948   4.313
97559SOL     OW94573   2.710   4.831   5.333
97559SOL    HW194574   2.758   4.848   5.414
97559SOL    HW294575   2.750   4.751   5.297
97560SOL     OW94576   1.180   3.639   5.800
97560SOL    HW194577   1.177   3.714   5.740
97560SOL    HW294578   1.211   3.676   5.883
97561SOL     OW94579   2.206  14.355   9.448
97561SOL    HW194580   2.202  14.432   9.506
97561SOL    HW294581   2.127  14.361   9.394
97562SOL     OW94582   8.494   6.771   8.959
97562SOL    HW194583   8.545   6.772   9.040
97562SOL    HW294584   8.532   6.701   8.907
97563SOL     OW94585   8.288   6.438  14.098
97563SOL    HW194586   8.358   6.378  14.073
97563SOL    HW294587   8.208   6.395  14.067
97564SOL     OW94588  14.048   8.934   2.419
97564SOL    HW194589  13.962   8.917   2.379
97564SOL    HW294590  14.027   8.974   2.503
97565SOL     OW94591  13.713   5.627   0.296
97565SOL    HW194592  13.758   5.632   0.380
97565SOL    HW294593  13.761   5.687   0.239
97566SOL     OW94594   6.617   6.432   1.752
97566SOL    HW194595   6.640   6.350   1.708
97566SOL    HW294596   6.701   6.467   1.783
97567SOL     OW94597   5.037   4.820   7.822
97567SOL    HW194598   5.110   4.760   7.809
97567SOL    HW294599   5.078   4.904   7.842
97568SOL     OW94600  11.630  10.664  11.573
97568SOL    HW194601  11.696  10.729  11.597
97568SOL    HW294602  11.599  10.630  11.657
97569SOL     OW94603   9.323  12.827  13.909
97569SOL    HW194604   9.376  12.904  13.926
97569SOL    HW294605   9.271  12.815  13.989
97570SOL     OW94606   1.170   0.149   5.453
97570SOL    HW194607   1.131   0.064   5.435
97570SOL    HW294608   1.109   0.192   5.512
97571SOL     OW94609   4.243   8.471   2.561
97571SOL    HW194610   4.195   8.538   2.611
97571SOL    HW294611   4.240   8.502   2.471
97572SOL     OW94612   1.517   3.078   2.637
97572SOL    HW194613   1.543   3.144   2.701
97572SOL    HW294614   1.596   3.024   2.625
97573SOL     OW94615  13.682  11.597   4.759
97573SOL    HW194616  13.643  11.616   4.844
97573SOL    HW294617  13.628  11.526   4.723
97574SOL     OW94618  14.762   7.050  11.843
97574SOL    HW194619  14.748   7.061  11.937
97574SOL    HW294620  14.846   7.092  11.826
97575SOL     OW94621  13.172  13.462   5.867
97575SOL    HW194622  13.187  13.368   5.853
97575SOL    HW294623  13.104  13.485   5.803
97576SOL     OW94624   0.740   7.116   4.217
97576SOL    HW194625   0.656   7.141   4.255
97576SOL    HW294626   0.718   7.058   4.144
97577SOL     OW94627  11.308   0.017   2.317
97577SOL    HW194628  11.369  14.839   2.266
97577SOL    HW294629  11.335   0.003   2.408
97578SOL     OW94630  13.717  13.623   6.927
97578SOL    HW194631  13.626  13.650   6.916
97578SOL    HW294632  13.713  13.527   6.927
97579SOL     OW94633   1.813   5.897   4.069
97579SOL    HW194634   1.874   5.857   4.131
97579SOL    HW294635   1.771   5.823   4.025
97580SOL     OW94636   4.626   7.307   4.685
97580SOL    HW194637   4.592   7.314   4.775
97580SOL    HW294638   4.585   7.381   4.639
97581SOL     OW94639   3.427   0.155   8.607
97581SOL    HW194640   3.367   0.120   8.542
97581SOL    HW294641   3.398   0.117   8.690
97582SOL     OW94642   0.114  12.786  14.463
97582SOL    HW194643   0.053  12.746  14.400
97582SOL    HW294644   0.068  12.862  14.497
97583SOL     OW94645   0.408  11.056   8.838
97583SOL    HW194646   0.385  11.149   8.838
97583SOL    HW294647   0.498  11.054   8.808
97584SOL     OW94648  13.773  13.689   5.257
97584SOL    HW194649  13.759  13.757   5.323
97584SOL    HW294650  13.808  13.736   5.181
97585SOL     OW94651   2.079   9.277   0.133
97585SOL    HW194652   2.008   9.224   0.170
97585SOL    HW294653   2.051   9.294   0.043
97586SOL     OW94654   7.201  14.363   1.657
97586SOL    HW194655   7.294  14.349   1.638
97586SOL    HW294656   7.156  14.332   1.578
97587SOL     OW94657   8.957  14.044   9.579
97587SOL    HW194658   9.003  14.105   9.637
97587SOL    HW294659   8.970  13.958   9.619
97588SOL     OW94660   6.205   5.684  12.491
97588SOL    HW194661   6.134   5.747  12.507
97588SOL    HW294662   6.161   5.599  12.487
97589SOL     OW94663   3.893  11.349  10.478
97589SOL    HW194664   3.821  11.288  10.465
97589SOL    HW294665   3.850  11.433  10.496
97590SOL     OW94666   5.947   5.476   6.902
97590SOL    HW194667   5.999   5.398   6.883
97590SOL    HW294668   5.944   5.481   6.998
97591SOL     OW94669  14.275   4.494  14.849
97591SOL    HW194670  14.246   4.449   0.053
97591SOL    HW294671  14.260   4.587  14.868
97592SOL     OW94672  14.426   2.702   2.333
97592SOL    HW194673  14.334   2.728   2.338
97592SOL    HW294674  14.474   2.776   2.371
97593SOL     OW94675   0.120   3.549   4.006
97593SOL    HW194676   0.199   3.538   4.058
97593SOL    HW294677   0.051   3.567   4.071
97594SOL     OW94678  13.684   5.653   3.366
97594SOL    HW194679  13.601   5.675   3.324
97594SOL    HW294680  13.658   5.620   3.453
97595SOL     OW94681  14.019   2.947   8.910
97595SOL    HW194682  13.941   2.999   8.925
97595SOL    HW294683  14.087   2.992   8.961
97596SOL     OW94684  14.713   6.433   7.572
97596SOL    HW194685  14.738   6.349   7.533
97596SOL    HW294686  14.692   6.412   7.663
97597SOL     OW94687   5.367   4.025   1.265
97597SOL    HW194688   5.385   4.119   1.278
97597SOL    HW294689   5.441   3.981   1.308
97598SOL     OW94690  14.105  10.883   6.530
97598SOL    HW194691  14.197  10.886   6.554
97598SOL    HW294692  14.066  10.959   6.573
97599SOL     OW94693   0.415   1.745   0.560
97599SOL    HW194694   0.467   1.755   0.639
97599SOL    HW294695   0.476   1.763   0.488
97600SOL     OW94696  14.359   9.755  10.063
97600SOL    HW194697  14.310   9.726   9.986
97600SOL    HW294698  14.367   9.849  10.052
97601SOL     OW94699   9.133   6.205   8.403
97601SOL    HW194700   9.116   6.226   8.311
97601SOL    HW294701   9.070   6.136   8.424
97602SOL     OW94702   9.989  13.708  11.695
97602SOL    HW194703   9.957  13.619  11.680
97602SOL    HW294704  10.076  13.696  11.734
97603SOL     OW94705   3.342   8.677  11.400
97603SOL    HW194706   3.258   8.691  11.355
97603SOL    HW294707   3.406   8.673  11.330
97604SOL     OW94708   9.618  14.292   7.678
97604SOL    HW194709   9.548  14.228   7.675
97604SOL    HW294710   9.696  14.245   7.647
97605SOL     OW94711   8.187   9.169   6.521
97605SOL    HW194712   8.189   9.252   6.567
97605SOL    HW294713   8.180   9.103   6.589
97606SOL     OW94714  10.098   9.248   2.553
97606SOL    HW194715  10.166   9.294   2.504
97606SOL    HW294716  10.025   9.310   2.559
97607SOL     OW94717   6.627  12.204   6.552
97607SOL    HW194718   6.696  12.212   6.486
97607SOL    HW294719   6.556  12.159   6.507
97608SOL     OW94720   9.697   9.219  12.657
97608SOL    HW194721   9.671   9.142  12.606
97608SOL    HW294722   9.742   9.276  12.594
97609SOL     OW94723   3.603  13.607   8.255
97609SOL    HW194724   3.561  13.689   8.283
97609SOL    HW294725   3.531  13.544   8.249
97610SOL     OW94726   6.688   5.536   1.378
97610SOL    HW194727   6.716   5.446   1.393
97610SOL    HW294728   6.641   5.560   1.458
97611SOL     OW94729   2.430   4.497  10.874
97611SOL    HW194730   2.447   4.543  10.956
97611SOL    HW294731   2.457   4.407  10.892
97612SOL     OW94732   2.280  10.886  11.754
97612SOL    HW194733   2.292  10.816  11.689
97612SOL    HW294734   2.329  10.960  11.718
97613SOL     OW94735   1.827   0.937  14.316
97613SOL    HW194736   1.803   0.944  14.409
97613SOL    HW294737   1.786   1.012  14.274
97614SOL     OW94738   0.154   0.879   5.835
97614SOL    HW194739   0.132   0.799   5.788
97614SOL    HW294740   0.080   0.937   5.818
97615SOL     OW94741   4.462   9.868  12.432
97615SOL    HW194742   4.466   9.959  12.463
97615SOL    HW294743   4.457   9.875  12.337
97616SOL     OW94744   3.324   0.419  14.490
97616SOL    HW194745   3.411   0.378  14.497
97616SOL    HW294746   3.274   0.379  14.561
97617SOL     OW94747   2.004   5.330   6.682
97617SOL    HW194748   1.940   5.401   6.683
97617SOL    HW294749   2.030   5.320   6.773
97618SOL     OW94750  10.875  11.276   0.685
97618SOL    HW194751  10.924  11.217   0.628
97618SOL    HW294752  10.808  11.220   0.726
97619SOL     OW94753   5.783   0.541   5.636
97619SOL    HW194754   5.719   0.543   5.707
97619SOL    HW294755   5.738   0.495   5.565
97620SOL     OW94756   9.679   5.616   0.299
97620SOL    HW194757   9.639   5.542   0.253
97620SOL    HW294758   9.773   5.602   0.290
97621SOL     OW94759  14.034   7.112   5.683
97621SOL    HW194760  14.014   7.200   5.652
97621SOL    HW294761  14.032   7.119   5.779
97622SOL     OW94762   5.589   6.892   5.522
97622SOL    HW194763   5.594   6.907   5.616
97622SOL    HW294764   5.507   6.933   5.495
97623SOL     OW94765   3.233   9.556  11.834
97623SOL    HW194766   3.236   9.527  11.743
97623SOL    HW294767   3.169   9.628  11.834
97624SOL     OW94768   3.964   7.248  13.781
97624SOL    HW194769   3.929   7.300  13.853
97624SOL    HW294770   3.992   7.313  13.716
97625SOL     OW94771  11.580   0.139  10.776
97625SOL    HW194772  11.671   0.168  10.772
97625SOL    HW294773  11.578   0.073  10.845
97626SOL     OW94774  13.651   7.013  10.065
97626SOL    HW194775  13.666   7.014   9.970
97626SOL    HW294776  13.664   7.104  10.092
97627SOL     OW94777  11.755   6.395   0.467
97627SOL    HW194778  11.668   6.356   0.456
97627SOL    HW294779  11.772   6.388   0.561
97628SOL     OW94780   9.506  10.526   1.907
97628SOL    HW194781   9.433  10.479   1.947
97628SOL    HW294782   9.506  10.611   1.951
97629SOL     OW94783   3.833   2.000  12.794
97629SOL    HW194784   3.880   1.999  12.711
97629SOL    HW294785   3.854   2.085  12.833
97630SOL     OW94786   5.481  11.586   3.150
97630SOL    HW194787   5.574  11.573   3.170
97630SOL    HW294788   5.435  11.554   3.228
97631SOL     OW94789  13.653   5.256  11.788
97631SOL    HW194790  13.633   5.208  11.868
97631SOL    HW294791  13.574   5.246  11.734
97632SOL     OW94792  14.272  10.139   0.229
97632SOL    HW194793  14.333  10.068   0.250
97632SOL    HW294794  14.202  10.129   0.294
97633SOL     OW94795   0.883   0.317   3.045
97633SOL    HW194796   0.831   0.289   2.970
97633SOL    HW294797   0.908   0.408   3.025
97634SOL     OW94798   0.462   8.556   8.443
97634SOL    HW194799   0.523   8.630   8.442
97634SOL    HW294800   0.376   8.596   8.458
97635SOL     OW94801   6.992   4.756   2.001
97635SOL    HW194802   7.050   4.814   1.950
97635SOL    HW294803   6.996   4.790   2.090
97636SOL     OW94804   4.228   2.811   7.955
97636SOL    HW194805   4.182   2.894   7.971
97636SOL    HW294806   4.247   2.777   8.043
97637SOL     OW94807  12.018   6.810   0.142
97637SOL    HW194808  11.999   6.815   0.235
97637SOL    HW294809  12.108   6.843   0.133
97638SOL     OW94810   9.370  10.223   9.204
97638SOL    HW194811   9.330  10.220   9.117
97638SOL    HW294812   9.454  10.178   9.193
97639SOL     OW94813  12.216   4.231  13.354
97639SOL    HW194814  12.233   4.197  13.266
97639SOL    HW294815  12.167   4.161  13.398
97640SOL     OW94816   3.269   4.993  14.514
97640SOL    HW194817   3.305   5.081  14.512
97640SOL    HW294818   3.253   4.972  14.422
97641SOL     OW94819   4.718  13.939   6.109
97641SOL    HW194820   4.778  13.864   6.106
97641SOL    HW294821   4.770  14.013   6.077
97642SOL     OW94822   6.829   7.374   0.499
97642SOL    HW194823   6.916   7.411   0.513
97642SOL    HW294824   6.808   7.395   0.408
97643SOL     OW94825   2.491   0.637   3.744
97643SOL    HW194826   2.433   0.566   3.772
97643SOL    HW294827   2.579   0.599   3.747
97644SOL     OW94828  13.712   8.762   3.805
97644SOL    HW194829  13.676   8.726   3.886
97644SOL    HW294830  13.691   8.695   3.739
97645SOL     OW94831   9.496  13.440  11.279
97645SOL    HW194832   9.540  13.410  11.200
97645SOL    HW294833   9.512  13.371  11.344
97646SOL     OW94834   6.520   5.864   1.165
97646SOL    HW194835   6.607   5.894   1.138
97646SOL    HW294836   6.488   5.931   1.225
97647SOL     OW94837  12.126   5.488   9.187
97647SOL    HW194838  12.069   5.554   9.227
97647SOL    HW294839  12.104   5.489   9.094
97648SOL     OW94840   6.805  11.010   3.715
97648SOL    HW194841   6.893  10.991   3.683
97648SOL    HW294842   6.747  10.978   3.646
97649SOL     OW94843   4.764   4.587  14.574
97649SOL    HW194844   4.684   4.566  14.622
97649SOL    HW294845   4.833   4.586  14.640
97650SOL     OW94846   7.769   5.428  14.530
97650SOL    HW194847   7.682   5.398  14.502
97650SOL    HW294848   7.752   5.477  14.611
97651SOL     OW94849  10.480   9.155   4.654
97651SOL    HW194850  10.467   9.218   4.724
97651SOL    HW294851  10.492   9.208   4.575
97652SOL     OW94852   7.840   6.309   0.451
97652SOL    HW194853   7.849   6.214   0.452
97652SOL    HW294854   7.918   6.340   0.405
97653SOL     OW94855  11.801   1.646  10.605
97653SOL    HW194856  11.721   1.695  10.591
97653SOL    HW294857  11.819   1.604  10.521
97654SOL     OW94858  12.401   7.490   8.785
97654SOL    HW194859  12.411   7.532   8.870
97654SOL    HW294860  12.352   7.410   8.803
97655SOL     OW94861   7.573   5.400   9.554
97655SOL    HW194862   7.621   5.369   9.631
97655SOL    HW294863   7.575   5.327   9.493
97656SOL     OW94864  12.041  12.650   4.304
97656SOL    HW194865  12.034  12.557   4.285
97656SOL    HW294866  11.965  12.690   4.262
97657SOL     OW94867   8.830   0.047   6.558
97657SOL    HW194868   8.783   0.014   6.635
97657SOL    HW294869   8.796   0.135   6.546
97658SOL     OW94870  11.694  11.078   3.578
97658SOL    HW194871  11.670  11.170   3.577
97658SOL    HW294872  11.700  11.055   3.671
97659SOL     OW94873  10.130   8.918   7.901
97659SOL    HW194874  10.163   9.003   7.930
97659SOL    HW294875  10.121   8.927   7.806
97660SOL     OW94876   4.350   1.667  12.478
97660SOL    HW194877   4.274   1.620  12.443
97660SOL    HW294878   4.381   1.612  12.550
97661SOL     OW94879   8.256  12.778  11.695
97661SOL    HW194880   8.248  12.792  11.789
97661SOL    HW294881   8.186  12.716  11.674
97662SOL     OW94882   3.789  13.081   6.964
97662SOL    HW194883   3.810  13.007   7.021
97662SOL    HW294884   3.842  13.153   6.997
97663SOL     OW94885   4.297  11.126  12.854
97663SOL    HW194886   4.220  11.146  12.801
97663SOL    HW294887   4.351  11.071  12.797
97664SOL     OW94888  10.407   9.588  13.741
97664SOL    HW194889  10.441   9.664  13.695
97664SOL    HW294890  10.322   9.616  13.774
97665SOL     OW94891   1.302   8.413   4.223
97665SOL    HW194892   1.227   8.435   4.169
97665SOL    HW294893   1.369   8.477   4.198
97666SOL     OW94894   9.327   3.664  10.376
97666SOL    HW194895   9.303   3.577  10.408
97666SOL    HW294896   9.257   3.687  10.315
97667SOL     OW94897   0.352   1.582   2.029
97667SOL    HW194898   0.345   1.490   2.055
97667SOL    HW294899   0.443   1.593   2.003
97668SOL     OW94900   2.222  10.376   2.050
97668SOL    HW194901   2.239  10.308   1.985
97668SOL    HW294902   2.305  10.387   2.096
97669SOL     OW94903   1.296   2.026  14.859
97669SOL    HW194904   1.308   2.121  14.863
97669SOL    HW294905   1.296   1.998   0.076
97670SOL     OW94906   7.992   8.885  12.139
97670SOL    HW194907   8.007   8.813  12.078
97670SOL    HW294908   7.934   8.944  12.092
97671SOL     OW94909   8.293  13.316  13.509
97671SOL    HW194910   8.288  13.221  13.508
97671SOL    HW294911   8.341  13.339  13.429
97672SOL     OW94912  13.757  11.914   3.119
97672SOL    HW194913  13.807  11.942   3.042
97672SOL    HW294914  13.754  11.991   3.175
97673SOL     OW94915   4.312  14.659   1.769
97673SOL    HW194916   4.391  14.659   1.824
97673SOL    HW294917   4.309  14.570   1.733
97674SOL     OW94918   4.238  12.831   9.829
97674SOL    HW194919   4.307  12.896   9.846
97674SOL    HW294920   4.160  12.867   9.872
97675SOL     OW94921   0.422   5.982   7.719
97675SOL    HW194922   0.336   5.966   7.680
97675SOL    HW294923   0.457   6.057   7.670
97676SOL     OW94924   0.699   1.156   9.171
97676SOL    HW194925   0.763   1.212   9.215
97676SOL    HW294926   0.629   1.145   9.235
97677SOL     OW94927   7.665   2.277   7.709
97677SOL    HW194928   7.678   2.365   7.674
97677SOL    HW294929   7.685   2.286   7.803
97678SOL     OW94930   3.599   3.229  11.574
97678SOL    HW194931   3.674   3.170  11.564
97678SOL    HW294932   3.549   3.193  11.647
97679SOL     OW94933   9.553  12.014  10.810
97679SOL    HW194934   9.592  12.094  10.777
97679SOL    HW294935   9.559  11.952  10.737
97680SOL     OW94936  12.880   7.622   4.857
97680SOL    HW194937  12.859   7.528   4.854
97680SOL    HW294938  12.976   7.625   4.853
97681SOL     OW94939   3.663   7.496   0.884
97681SOL    HW194940   3.619   7.413   0.900
97681SOL    HW294941   3.630   7.525   0.799
97682SOL     OW94942   6.434   4.242   4.133
97682SOL    HW194943   6.414   4.171   4.072
97682SOL    HW294944   6.509   4.211   4.182
97683SOL     OW94945  10.156   8.555   8.227
97683SOL    HW194946  10.240   8.564   8.181
97683SOL    HW294947  10.164   8.473   8.276
97684SOL     OW94948  10.383  13.195   1.596
97684SOL    HW194949  10.459  13.140   1.578
97684SOL    HW294950  10.329  13.187   1.518
97685SOL     OW94951   7.546   7.228   9.881
97685SOL    HW194952   7.632   7.186   9.876
97685SOL    HW294953   7.560   7.306   9.934
97686SOL     OW94954   5.899   8.072   7.709
97686SOL    HW194955   5.806   8.068   7.690
97686SOL    HW294956   5.940   8.019   7.640
97687SOL     OW94957  12.084   2.662   1.543
97687SOL    HW194958  12.157   2.602   1.561
97687SOL    HW294959  12.021   2.644   1.613
97688SOL     OW94960   8.035   9.356  13.616
97688SOL    HW194961   8.076   9.355  13.703
97688SOL    HW294962   8.059   9.272  13.577
97689SOL     OW94963   6.014  13.222   5.607
97689SOL    HW194964   6.014  13.304   5.558
97689SOL    HW294965   6.019  13.154   5.540
97690SOL     OW94966   9.559   1.032  11.963
97690SOL    HW194967   9.636   1.062  12.012
97690SOL    HW294968   9.596   0.978  11.893
97691SOL     OW94969   0.380   0.807   7.955
97691SOL    HW194970   0.306   0.758   7.920
97691SOL    HW294971   0.439   0.740   7.989
97692SOL     OW94972  11.046  14.532   4.959
97692SOL    HW194973  11.036  14.588   4.883
97692SOL    HW294974  11.019  14.586   5.033
97693SOL     OW94975   2.890   9.059  14.626
97693SOL    HW194976   2.849   8.983  14.667
97693SOL    HW294977   2.963   9.023  14.575
97694SOL     OW94978  12.785   4.995   4.769
97694SOL    HW194979  12.784   5.090   4.782
97694SOL    HW294980  12.724   4.961   4.834
97695SOL     OW94981   6.974   8.071  13.316
97695SOL    HW194982   6.978   8.074  13.412
97695SOL    HW294983   7.050   8.122  13.288
97696SOL     OW94984  10.104   9.159   9.049
97696SOL    HW194985  10.070   9.072   9.030
97696SOL    HW294986  10.196   9.144   9.074
97697SOL     OW94987   2.051  14.161   6.235
97697SOL    HW194988   2.004  14.177   6.153
97697SOL    HW294989   2.137  14.129   6.207
97698SOL     OW94990   2.990   8.114  10.550
97698SOL    HW194991   2.928   8.124  10.478
97698SOL    HW294992   2.953   8.044  10.604
97699SOL     OW94993  10.637   5.075   5.882
97699SOL    HW194994  10.629   4.983   5.856
97699SOL    HW294995  10.717   5.078   5.935
97700SOL     OW94996   2.914   7.554   1.191
97700SOL    HW194997   2.881   7.548   1.102
97700SOL    HW294998   2.836   7.547   1.247
97701SOL     OW94999   8.310   1.994   5.644
97701SOL    HW195000   8.312   2.056   5.717
97701SOL    HW295001   8.249   2.033   5.581
97702SOL     OW95002   6.281  10.172   7.340
97702SOL    HW195003   6.287  10.139   7.251
97702SOL    HW295004   6.329  10.108   7.393
97703SOL     OW95005   5.876  14.392  11.956
97703SOL    HW195006   5.881  14.308  11.911
97703SOL    HW295007   5.966  14.424  11.958
97704SOL     OW95008  13.018   6.432  10.125
97704SOL    HW195009  13.012   6.433  10.029
97704SOL    HW295010  12.978   6.350  10.151
97705SOL     OW95011  11.937   8.393  11.314
97705SOL    HW195012  11.854   8.349  11.296
97705SOL    HW295013  11.967   8.426  11.230
97706SOL     OW95014   6.914   4.281  12.660
97706SOL    HW195015   7.004   4.275  12.627
97706SOL    HW295016   6.899   4.375  12.673
97707SOL     OW95017   6.304   4.006  12.990
97707SOL    HW195018   6.313   3.914  12.965
97707SOL    HW295019   6.222   4.010  13.039
97708SOL     OW95020  11.315  12.387   4.218
97708SOL    HW195021  11.238  12.443   4.225
97708SOL    HW295022  11.377  12.423   4.281
97709SOL     OW95023  10.637   6.265   4.503
97709SOL    HW195024  10.654   6.261   4.409
97709SOL    HW295025  10.695   6.200   4.541
97710SOL     OW95026   0.976  14.788   8.070
97710SOL    HW195027   0.948  14.723   8.006
97710SOL    HW295028   0.895  14.824   8.106
97711SOL     OW95029   2.287   3.581   8.585
97711SOL    HW195030   2.226   3.652   8.605
97711SOL    HW295031   2.280   3.570   8.490
97712SOL     OW95032  13.883   4.830   4.759
97712SOL    HW195033  13.960   4.850   4.812
97712SOL    HW295034  13.870   4.908   4.705
97713SOL     OW95035   7.545   8.188   4.214
97713SOL    HW195036   7.541   8.143   4.129
97713SOL    HW295037   7.636   8.179   4.242
97714SOL     OW95038   7.725   5.181   5.695
97714SOL    HW195039   7.715   5.187   5.790
97714SOL    HW295040   7.663   5.113   5.669
97715SOL     OW95041   1.400   4.295   0.741
97715SOL    HW195042   1.411   4.370   0.799
97715SOL    HW295043   1.484   4.287   0.695
97716SOL     OW95044  13.162  11.467   3.809
97716SOL    HW195045  13.234  11.530   3.802
97716SOL    HW295046  13.127  11.461   3.720
97717SOL     OW95047  11.011   9.835   6.935
97717SOL    HW195048  11.044   9.809   6.848
97717SOL    HW295049  10.916   9.837   6.925
97718SOL     OW95050   0.926  10.050   4.168
97718SOL    HW195051   0.837  10.082   4.180
97718SOL    HW295052   0.954  10.089   4.084
97719SOL     OW95053   8.649  12.572   5.706
97719SOL    HW195054   8.594  12.502   5.671
97719SOL    HW295055   8.706  12.596   5.633
97720SOL     OW95056   1.369   7.160  14.790
97720SOL    HW195057   1.432   7.220  14.751
97720SOL    HW295058   1.317   7.214  14.850
97721SOL     OW95059   8.609  14.334   8.492
97721SOL    HW195060   8.635  14.358   8.403
97721SOL    HW295061   8.685  14.288   8.527
97722SOL     OW95062  13.310   4.210   1.045
97722SOL    HW195063  13.299   4.305   1.048
97722SOL    HW295064  13.383   4.196   0.986
97723SOL     OW95065  12.171  11.041  12.117
97723SOL    HW195066  12.177  11.089  12.200
97723SOL    HW295067  12.163  10.949  12.143
97724SOL     OW95068   6.113   8.169   8.303
97724SOL    HW195069   6.058   8.102   8.345
97724SOL    HW295070   6.130   8.134   8.215
97725SOL     OW95071   1.819   4.570  11.474
97725SOL    HW195072   1.898   4.620  11.494
97725SOL    HW295073   1.850   4.494  11.426
97726SOL     OW95074   7.672  14.078  12.161
97726SOL    HW195075   7.738  14.082  12.092
97726SOL    HW295076   7.629  13.994  12.148
97727SOL     OW95077   1.828   2.224   8.478
97727SOL    HW195078   1.872   2.147   8.515
97727SOL    HW295079   1.735   2.209   8.496
97728SOL     OW95080   2.263   7.092   9.704
97728SOL    HW195081   2.184   7.043   9.728
97728SOL    HW295082   2.298   7.124   9.787
97729SOL     OW95083   8.216   6.543   3.355
97729SOL    HW195084   8.247   6.627   3.389
97729SOL    HW295085   8.191   6.493   3.433
97730SOL     OW95086   1.796   5.863   6.577
97730SOL    HW195087   1.804   5.867   6.481
97730SOL    HW295088   1.882   5.833   6.606
97731SOL     OW95089  10.031  13.251   6.910
97731SOL    HW195090  10.084  13.234   6.988
97731SOL    HW295091  10.066  13.192   6.843
97732SOL     OW95092  14.874   3.736   6.202
97732SOL    HW195093  14.859   3.822   6.163
97732SOL    HW295094   0.055   3.754   6.278
97733SOL     OW95095   2.980   9.414   0.908
97733SOL    HW195096   3.007   9.436   0.997
97733SOL    HW295097   2.909   9.474   0.888
97734SOL     OW95098   0.228   0.346   4.377
97734SOL    HW195099   0.323   0.361   4.377
97734SOL    HW295100   0.204   0.346   4.284
97735SOL     OW95101   4.073  11.671   5.480
97735SOL    HW195102   4.149  11.621   5.508
97735SOL    HW295103   4.036  11.621   5.407
97736SOL     OW95104   3.002   1.767   0.410
97736SOL    HW195105   2.967   1.678   0.405
97736SOL    HW295106   2.928   1.820   0.439
97737SOL     OW95107   7.736   3.653   8.308
97737SOL    HW195108   7.777   3.681   8.390
97737SOL    HW295109   7.803   3.601   8.265
97738SOL     OW95110   5.924  10.378   2.837
97738SOL    HW195111   5.941  10.339   2.752
97738SOL    HW295112   5.866  10.315   2.881
97739SOL     OW95113   2.528  13.128  14.587
97739SOL    HW195114   2.617  13.120  14.552
97739SOL    HW295115   2.492  13.205  14.543
97740SOL     OW95116   9.167  14.167  10.220
97740SOL    HW195117   9.139  14.256  10.241
97740SOL    HW295118   9.245  14.153  10.274
97741SOL     OW95119  14.399   3.499   6.867
97741SOL    HW195120  14.346   3.579   6.867
97741SOL    HW295121  14.486   3.528   6.840
97742SOL     OW95122   7.347  10.886   8.810
97742SOL    HW195123   7.320  10.873   8.720
97742SOL    HW295124   7.272  10.928   8.852
97743SOL     OW95125  13.289   2.340   7.196
97743SOL    HW195126  13.237   2.350   7.276
97743SOL    HW295127  13.327   2.252   7.203
97744SOL     OW95128  14.586  10.838   3.332
97744SOL    HW195129  14.531  10.877   3.263
97744SOL    HW295130  14.667  10.815   3.288
97745SOL     OW95131  11.603  11.652   2.043
97745SOL    HW195132  11.622  11.593   2.115
97745SOL    HW295133  11.657  11.620   1.970
97746SOL     OW95134  11.228   3.013   0.040
97746SOL    HW195135  11.143   3.054   0.028
97746SOL    HW295136  11.217   2.955   0.115
97747SOL     OW95137  11.521  11.148   1.507
97747SOL    HW195138  11.521  11.070   1.562
97747SOL    HW295139  11.613  11.161   1.484
97748SOL     OW95140   8.299   3.470  13.461
97748SOL    HW195141   8.250   3.552  13.469
97748SOL    HW295142   8.384   3.496  13.427
97749SOL     OW95143  14.794   2.888   3.625
97749SOL    HW195144  14.718   2.945   3.615
97749SOL    HW295145  14.825   2.873   3.536
97750SOL     OW95146  12.384   5.825   0.312
97750SOL    HW195147  12.427   5.754   0.360
97750SOL    HW295148  12.340   5.781   0.239
97751SOL     OW95149   7.845   1.829  10.373
97751SOL    HW195150   7.925   1.777  10.373
97751SOL    HW295151   7.784   1.780  10.318
97752SOL     OW95152   8.564  10.572   5.002
97752SOL    HW195153   8.534  10.573   5.093
97752SOL    HW295154   8.621  10.649   4.995
97753SOL     OW95155   7.797  11.418  12.607
97753SOL    HW195156   7.892  11.402  12.610
97753SOL    HW295157   7.774  11.444  12.696
97754SOL     OW95158  11.797  10.947  13.753
97754SOL    HW195159  11.725  10.985  13.803
97754SOL    HW295160  11.873  11.000  13.776
97755SOL     OW95161   3.615   4.285  14.656
97755SOL    HW195162   3.541   4.297  14.716
97755SOL    HW295163   3.639   4.193  14.666
97756SOL     OW95164   5.146   0.618  14.316
97756SOL    HW195165   5.088   0.617  14.240
97756SOL    HW295166   5.214   0.681  14.294
97757SOL     OW95167  11.418   4.329   8.027
97757SOL    HW195168  11.434   4.417   8.061
97757SOL    HW295169  11.331   4.307   8.060
97758SOL     OW95170   6.158   8.029   3.731
97758SOL    HW195171   6.214   8.060   3.659
97758SOL    HW295172   6.118   8.109   3.765
97759SOL     OW95173   3.711   3.371  13.717
97759SOL    HW195174   3.631   3.348  13.670
97759SOL    HW295175   3.780   3.370  13.650
97760SOL     OW95176  14.534  14.490  12.909
97760SOL    HW195177  14.551  14.572  12.864
97760SOL    HW295178  14.586  14.495  12.989
97761SOL     OW95179   0.824   8.354  13.741
97761SOL    HW195180   0.854   8.316  13.824
97761SOL    HW295181   0.755   8.294  13.711
97762SOL     OW95182   5.318   2.379   8.793
97762SOL    HW195183   5.355   2.434   8.725
97762SOL    HW295184   5.385   2.379   8.862
97763SOL     OW95185   0.833   7.198   0.732
97763SOL    HW195186   0.881   7.236   0.805
97763SOL    HW295187   0.757   7.156   0.772
97764SOL     OW95188   6.424  10.209   3.969
97764SOL    HW195189   6.408  10.118   3.994
97764SOL    HW295190   6.399  10.260   4.046
97765SOL     OW95191   3.417   6.931   6.631
97765SOL    HW195192   3.457   6.876   6.698
97765SOL    HW295193   3.447   7.020   6.652
97766SOL     OW95194   8.633  13.844  13.835
97766SOL    HW195195   8.589  13.765  13.804
97766SOL    HW295196   8.693  13.868  13.764
97767SOL     OW95197  11.855  13.955   4.626
97767SOL    HW195198  11.870  14.006   4.546
97767SOL    HW295199  11.774  13.908   4.609
97768SOL     OW95200   0.682   3.963  10.813
97768SOL    HW195201   0.633   4.043  10.832
97768SOL    HW295202   0.738   3.950  10.890
97769SOL     OW95203   6.392  13.266   6.640
97769SOL    HW195204   6.423  13.268   6.731
97769SOL    HW295205   6.306  13.224   6.646
97770SOL     OW95206  13.773   7.099   5.562
97770SOL    HW195207  13.727   7.024   5.599
97770SOL    HW295208  13.864   7.088   5.589
97771SOL     OW95209   8.426   6.355   8.416
97771SOL    HW195210   8.455   6.295   8.485
97771SOL    HW295211   8.375   6.300   8.356
97772SOL     OW95212  13.051  13.148  13.755
97772SOL    HW195213  13.142  13.118  13.749
97772SOL    HW295214  13.057  13.236  13.790
97773SOL     OW95215   2.847   5.067  12.797
97773SOL    HW195216   2.903   5.096  12.869
97773SOL    HW295217   2.885   5.108  12.719
97774SOL     OW95218   0.390   9.770   3.953
97774SOL    HW195219   0.333   9.765   3.876
97774SOL    HW295220   0.479   9.770   3.917
97775SOL     OW95221   0.751   2.098  10.315
97775SOL    HW195222   0.672   2.151  10.329
97775SOL    HW295223   0.780   2.121  10.227
97776SOL     OW95224   5.304  12.935   0.227
97776SOL    HW195225   5.307  12.936   0.132
97776SOL    HW295226   5.373  12.874   0.253
97777SOL     OW95227  14.427   9.150  13.329
97777SOL    HW195228  14.347   9.157  13.277
97777SOL    HW295229  14.411   9.076  13.388
97778SOL     OW95230  10.850   9.997   7.671
97778SOL    HW195231  10.889  10.083   7.684
97778SOL    HW295232  10.915   9.936   7.705
97779SOL     OW95233   7.330  11.675   6.290
97779SOL    HW195234   7.371  11.615   6.227
97779SOL    HW295235   7.336  11.629   6.374
97780SOL     OW95236   5.546   0.843  11.879
97780SOL    HW195237   5.474   0.790  11.911
97780SOL    HW295238   5.523   0.863  11.788
97781SOL     OW95239   7.663   3.884   1.301
97781SOL    HW195240   7.635   3.792   1.297
97781SOL    HW295241   7.623   3.917   1.381
97782SOL     OW95242   9.998   8.660  14.599
97782SOL    HW195243   9.932   8.637  14.664
97782SOL    HW295244  10.080   8.626  14.635
97783SOL     OW95245   9.751   0.111  11.172
97783SOL    HW195246   9.813   0.063  11.227
97783SOL    HW295247   9.805   0.148  11.102
97784SOL     OW95248   2.598  11.806   5.053
97784SOL    HW195249   2.687  11.830   5.027
97784SOL    HW295250   2.587  11.847   5.139
97785SOL     OW95251   6.892  14.788   3.647
97785SOL    HW195252   6.922  14.823   3.731
97785SOL    HW295253   6.971  14.753   3.605
97786SOL     OW95254  11.087   2.693   7.704
97786SOL    HW195255  11.074   2.691   7.798
97786SOL    HW295256  11.038   2.617   7.671
97787SOL     OW95257   4.540   6.204   3.518
97787SOL    HW195258   4.610   6.267   3.500
97787SOL    HW295259   4.476   6.218   3.449
97788SOL     OW95260   0.970  14.156  14.015
97788SOL    HW195261   0.933  14.189  13.934
97788SOL    HW295262   1.061  14.186  14.013
97789SOL     OW95263  10.108   0.641  10.412
97789SOL    HW195264  10.093   0.734  10.432
97789SOL    HW295265  10.044   0.621  10.344
97790SOL     OW95266   1.591   2.966   1.987
97790SOL    HW195267   1.609   3.035   2.051
97790SOL    HW295268   1.675   2.951   1.945
97791SOL     OW95269  10.490   6.191  10.384
97791SOL    HW195270  10.545   6.150  10.452
97791SOL    HW295271  10.403   6.154  10.399
97792SOL     OW95272   5.972   3.826   2.457
97792SOL    HW195273   5.985   3.878   2.378
97792SOL    HW295274   5.966   3.736   2.426
97793SOL     OW95275   0.759   6.618   1.075
97793SOL    HW195276   0.837   6.607   1.129
97793SOL    HW295277   0.755   6.712   1.058
97794SOL     OW95278  11.603  11.883  10.891
97794SOL    HW195279  11.601  11.926  10.976
97794SOL    HW295280  11.523  11.830  10.889
97795SOL     OW95281  11.211   8.507  10.645
97795SOL    HW195282  11.161   8.456  10.709
97795SOL    HW295283  11.168   8.489  10.561
97796SOL     OW95284  12.408  12.488   9.577
97796SOL    HW195285  12.405  12.424   9.506
97796SOL    HW295286  12.323  12.481   9.620
97797SOL     OW95287   2.147   8.471   1.311
97797SOL    HW195288   2.214   8.499   1.249
97797SOL    HW295289   2.192   8.464   1.395
97798SOL     OW95290   1.782   3.049   9.773
97798SOL    HW195291   1.844   3.113   9.807
97798SOL    HW295292   1.785   3.059   9.678
97799SOL     OW95293   9.400  11.384   7.256
97799SOL    HW195294   9.359  11.370   7.170
97799SOL    HW295295   9.390  11.478   7.271
97800SOL     OW95296   2.393  12.631   0.672
97800SOL    HW195297   2.368  12.601   0.585
97800SOL    HW295298   2.468  12.688   0.658
97801SOL     OW95299   7.719   4.565   6.516
97801SOL    HW195300   7.678   4.637   6.565
97801SOL    HW295301   7.752   4.605   6.436
97802SOL     OW95302   3.444   7.671   3.259
97802SOL    HW195303   3.354   7.700   3.277
97802SOL    HW295304   3.439   7.631   3.172
97803SOL     OW95305   9.702  11.635   2.519
97803SOL    HW195306   9.786  11.635   2.566
97803SOL    HW295307   9.638  11.666   2.583
97804SOL     OW95308   4.198   5.950   3.452
97804SOL    HW195309   4.293   5.949   3.449
97804SOL    HW295310   4.177   5.962   3.544
97805SOL     OW95311  13.292   3.753   0.561
97805SOL    HW195312  13.299   3.847   0.544
97805SOL    HW295313  13.383   3.723   0.567
97806SOL     OW95314   6.060   2.358   5.039
97806SOL    HW195315   6.113   2.364   5.119
97806SOL    HW295316   6.062   2.265   5.016
97807SOL     OW95317  12.638   4.873  10.077
97807SOL    HW195318  12.580   4.860  10.001
97807SOL    HW295319  12.651   4.968  10.081
97808SOL     OW95320  12.063  10.978   9.640
97808SOL    HW195321  12.006  10.910   9.603
97808SOL    HW295322  12.024  11.060   9.609
97809SOL     OW95323   9.550   2.868  10.008
97809SOL    HW195324   9.540   2.933   9.938
97809SOL    HW295325   9.479   2.805   9.992
97810SOL     OW95326   8.290   1.365   8.109
97810SOL    HW195327   8.286   1.391   8.201
97810SOL    HW295328   8.360   1.300   8.105
97811SOL     OW95329   8.433   1.939  14.771
97811SOL    HW195330   8.363   1.943  14.837
97811SOL    HW295331   8.422   2.020  14.721
97812SOL     OW95332   8.107  13.560   3.933
97812SOL    HW195333   8.059  13.482   3.960
97812SOL    HW295334   8.048  13.604   3.872
97813SOL     OW95335   9.604   1.569   2.053
97813SOL    HW195336   9.511   1.588   2.037
97813SOL    HW295337   9.609   1.474   2.062
97814SOL     OW95338   8.660  12.094   1.685
97814SOL    HW195339   8.614  12.173   1.657
97814SOL    HW295340   8.734  12.126   1.736
97815SOL     OW95341   2.852   0.962   7.378
97815SOL    HW195342   2.906   0.895   7.335
97815SOL    HW295343   2.835   1.027   7.310
97816SOL     OW95344   5.393   8.694   5.219
97816SOL    HW195345   5.396   8.631   5.147
97816SOL    HW295346   5.400   8.640   5.298
97817SOL     OW95347   8.720   1.508   0.062
97817SOL    HW195348   8.730   1.514  14.842
97817SOL    HW295349   8.781   1.573   0.097
97818SOL     OW95350   3.285   8.572  14.400
97818SOL    HW195351   3.263   8.651  14.350
97818SOL    HW295352   3.360   8.598  14.454
97819SOL     OW95353   5.708  14.110  10.223
97819SOL    HW195354   5.788  14.063  10.246
97819SOL    HW295355   5.652  14.099  10.299
97820SOL     OW95356   0.453   4.267  14.817
97820SOL    HW195357   0.439   4.278  14.723
97820SOL    HW295358   0.366   4.251  14.852
97821SOL     OW95359  10.719   9.413   4.197
97821SOL    HW195360  10.738   9.337   4.251
97821SOL    HW295361  10.736   9.384   4.108
97822SOL     OW95362   9.585   9.693   6.831
97822SOL    HW195363   9.574   9.692   6.736
97822SOL    HW295364   9.633   9.613   6.850
97823SOL     OW95365  12.379   9.120   0.536
97823SOL    HW195366  12.339   9.036   0.513
97823SOL    HW295367  12.462   9.121   0.489
97824SOL     OW95368   9.744   7.738   8.766
97824SOL    HW195369   9.681   7.702   8.829
97824SOL    HW295370   9.827   7.737   8.813
97825SOL     OW95371   5.575  14.585   2.530
97825SOL    HW195372   5.547  14.493   2.532
97825SOL    HW295373   5.630  14.592   2.452
97826SOL     OW95374   2.427   0.933   2.204
97826SOL    HW195375   2.364   0.871   2.242
97826SOL    HW295376   2.484   0.878   2.150
97827SOL     OW95377   6.113  12.269   8.695
97827SOL    HW195378   6.095  12.277   8.789
97827SOL    HW295379   6.061  12.195   8.666
97828SOL     OW95380   4.676   9.697   5.727
97828SOL    HW195381   4.721   9.738   5.654
97828SOL    HW295382   4.586   9.685   5.696
97829SOL     OW95383   3.016   2.739  12.231
97829SOL    HW195384   2.951   2.729  12.162
97829SOL    HW295385   3.096   2.701  12.194
97830SOL     OW95386   3.791   4.912  13.053
97830SOL    HW195387   3.871   4.864  13.077
97830SOL    HW295388   3.775   4.970  13.128
97831SOL     OW95389  11.047   0.165   9.599
97831SOL    HW195390  11.086   0.158   9.686
97831SOL    HW295391  11.067   0.081   9.557
97832SOL     OW95392   6.917  11.400  14.811
97832SOL    HW195393   6.832  11.411  14.768
97832SOL    HW295394   6.973  11.363  14.744
97833SOL     OW95395   0.723  11.321  14.744
97833SOL    HW195396   0.754  11.236  14.711
97833SOL    HW295397   0.681  11.362  14.668
97834SOL     OW95398  11.683   0.783   8.780
97834SOL    HW195399  11.756   0.726   8.803
97834SOL    HW295400  11.626   0.728   8.726
97835SOL     OW95401   9.524  11.421  12.503
97835SOL    HW195402   9.503  11.336  12.540
97835SOL    HW295403   9.471  11.426  12.424
97836SOL     OW95404   9.095   6.175  13.238
97836SOL    HW195405   9.000   6.185  13.229
97836SOL    HW295406   9.130   6.260  13.209
97837SOL     OW95407   8.571   3.320   0.191
97837SOL    HW195408   8.627   3.343   0.266
97837SOL    HW295409   8.597   3.231   0.168
97838SOL     OW95410  14.540  10.679   5.228
97838SOL    HW195411  14.485  10.601   5.216
97838SOL    HW295412  14.610  10.669   5.164
97839SOL     OW95413  11.217  14.183   6.776
97839SOL    HW195414  11.168  14.262   6.798
97839SOL    HW295415  11.263  14.204   6.696
97840SOL     OW95416   6.752   3.909   4.073
97840SOL    HW195417   6.677   3.911   4.131
97840SOL    HW295418   6.784   3.819   4.077
97841SOL     OW95419   9.565   4.187   2.611
97841SOL    HW195420   9.543   4.122   2.679
97841SOL    HW295421   9.610   4.136   2.544
97842SOL     OW95422  12.524  12.220   9.402
97842SOL    HW195423  12.458  12.158   9.373
97842SOL    HW295424  12.510  12.298   9.348
97843SOL     OW95425  13.059   2.627   5.590
97843SOL    HW195426  13.005   2.549   5.574
97843SOL    HW295427  13.046   2.681   5.512
97844SOL     OW95428   6.237   7.813   2.061
97844SOL    HW195429   6.329   7.792   2.075
97844SOL    HW295430   6.194   7.787   2.142
97845SOL     OW95431  10.467   6.421   2.789
97845SOL    HW195432  10.484   6.376   2.706
97845SOL    HW295433  10.380   6.390   2.815
97846SOL     OW95434   1.122   9.681  11.173
97846SOL    HW195435   1.079   9.620  11.232
97846SOL    HW295436   1.052   9.739  11.142
97847SOL     OW95437   3.783   0.122   3.608
97847SOL    HW195438   3.746   0.048   3.657
97847SOL    HW295439   3.798   0.189   3.675
97848SOL     OW95440   0.528  13.595  10.866
97848SOL    HW195441   0.440  13.633  10.861
97848SOL    HW295442   0.550  13.574  10.775
97849SOL     OW95443   0.976   3.777   4.461
97849SOL    HW195444   0.916   3.759   4.389
97849SOL    HW295445   1.054   3.726   4.440
97850SOL     OW95446  14.096  14.793   1.873
97850SOL    HW195447  14.029  14.763   1.812
97850SOL    HW295448  14.055  14.784   1.959
97851SOL     OW95449   5.341  11.508   1.245
97851SOL    HW195450   5.414  11.536   1.189
97851SOL    HW295451   5.383  11.475   1.325
97852SOL     OW95452   8.113  12.133  13.931
97852SOL    HW195453   8.133  12.081  14.009
97852SOL    HW295454   8.017  12.136  13.928
97853SOL     OW95455   5.517   4.235   4.061
97853SOL    HW195456   5.601   4.281   4.058
97853SOL    HW295457   5.493   4.235   4.154
97854SOL     OW95458  12.741  14.237   8.272
97854SOL    HW195459  12.719  14.301   8.204
97854SOL    HW295460  12.759  14.156   8.224
97855SOL     OW95461   6.779   7.046  13.293
97855SOL    HW195462   6.760   7.071  13.383
97855SOL    HW295463   6.729   6.965  13.279
97856SOL     OW95464   8.668   7.573   1.929
97856SOL    HW195465   8.744   7.593   1.984
97856SOL    HW295466   8.599   7.551   1.991
97857SOL     OW95467  14.251   9.212   7.679
97857SOL    HW195468  14.287   9.142   7.734
97857SOL    HW295469  14.226   9.281   7.740
97858SOL     OW95470  11.952  13.446   2.973
97858SOL    HW195471  11.925  13.508   2.904
97858SOL    HW295472  11.973  13.366   2.926
97859SOL     OW95473   3.083   6.117   1.296
97859SOL    HW195474   3.173   6.142   1.278
97859SOL    HW295475   3.034   6.199   1.295
97860SOL     OW95476   9.626   2.701  14.822
97860SOL    HW195477   9.667   2.737   0.026
97860SOL    HW295478   9.592   2.616  14.849
97861SOL     OW95479   1.065  11.513   2.861
97861SOL    HW195480   0.982  11.560   2.852
97861SOL    HW295481   1.058  11.468   2.945
97862SOL     OW95482   3.276   3.583  13.488
97862SOL    HW195483   3.299   3.577  13.581
97862SOL    HW295484   3.230   3.666  13.480
97863SOL     OW95485   3.619   8.580   8.754
97863SOL    HW195486   3.646   8.581   8.846
97863SOL    HW295487   3.691   8.537   8.708
97864SOL     OW95488   3.300   7.459   2.278
97864SOL    HW195489   3.292   7.381   2.332
97864SOL    HW295490   3.335   7.526   2.337
97865SOL     OW95491   5.027  13.227  13.730
97865SOL    HW195492   5.023  13.314  13.770
97865SOL    HW295493   4.944  13.186  13.754
97866SOL     OW95494  13.295   3.164   6.560
97866SOL    HW195495  13.349   3.235   6.593
97866SOL    HW295496  13.337   3.139   6.477
97867SOL     OW95497   0.386   0.421   9.565
97867SOL    HW195498   0.368   0.353   9.630
97867SOL    HW295499   0.338   0.498   9.598
97868SOL     OW95500   4.095   0.700   6.331
97868SOL    HW195501   4.142   0.782   6.317
97868SOL    HW295502   4.029   0.722   6.397
97869SOL     OW95503  10.865   1.496   2.844
97869SOL    HW195504  10.925   1.469   2.913
97869SOL    HW295505  10.779   1.496   2.885
97870SOL     OW95506  14.132  13.413   8.238
97870SOL    HW195507  14.171  13.463   8.167
97870SOL    HW295508  14.171  13.450   8.317
97871SOL     OW95509   4.806  14.573  14.075
97871SOL    HW195510   4.891  14.570  14.118
97871SOL    HW295511   4.825  14.607  13.987
97872SOL     OW95512  13.634   6.028   2.854
97872SOL    HW195513  13.601   6.116   2.872
97872SOL    HW295514  13.613   6.013   2.762
97873SOL     OW95515   2.532   5.628  14.620
97873SOL    HW195516   2.492   5.541  14.625
97873SOL    HW295517   2.606   5.617  14.560
97874SOL     OW95518   8.507   5.343  14.190
97874SOL    HW195519   8.452   5.307  14.121
97874SOL    HW295520   8.552   5.268  14.228
97875SOL     OW95521  10.194   8.995   7.089
97875SOL    HW195522  10.265   9.003   7.026
97875SOL    HW295523  10.124   9.050   7.054
97876SOL     OW95524  13.989   7.351   5.350
97876SOL    HW195525  13.912   7.301   5.324
97876SOL    HW295526  13.979   7.363   5.444
97877SOL     OW95527   7.013   8.338   6.824
97877SOL    HW195528   6.924   8.373   6.831
97877SOL    HW295529   7.022   8.282   6.901
97878SOL     OW95530  10.878   7.175   5.999
97878SOL    HW195531  10.795   7.157   5.954
97878SOL    HW295532  10.870   7.129   6.083
97879SOL     OW95533  14.624   4.117   1.202
97879SOL    HW195534  14.539   4.118   1.247
97879SOL    HW295535  14.667   4.197   1.232
97880SOL     OW95536   0.286  11.170  14.826
97880SOL    HW195537   0.338  11.250  14.832
97880SOL    HW295538   0.235  11.169   0.032
97881SOL     OW95539   0.043   7.887  10.424
97881SOL    HW195540   0.036   7.872  10.518
97881SOL    HW295541   0.111   7.825  10.395
97882SOL     OW95542   6.574  12.903  13.321
97882SOL    HW195543   6.592  12.902  13.415
97882SOL    HW295544   6.627  12.832  13.285
97883SOL     OW95545  11.416   8.921   8.781
97883SOL    HW195546  11.398   8.847   8.723
97883SOL    HW295547  11.349   8.915   8.849
97884SOL     OW95548   3.943   3.525   7.806
97884SOL    HW195549   3.886   3.562   7.739
97884SOL    HW295550   4.005   3.470   7.757
97885SOL     OW95551   8.145   1.435   0.262
97885SOL    HW195552   8.086   1.405   0.331
97885SOL    HW295553   8.228   1.450   0.306
97886SOL     OW95554   1.407  13.525   1.308
97886SOL    HW195555   1.389  13.594   1.245
97886SOL    HW295556   1.439  13.452   1.255
97887SOL     OW95557   4.779  13.292  12.955
97887SOL    HW195558   4.784  13.248  13.040
97887SOL    HW295559   4.820  13.230  12.894
97888SOL     OW95560   3.585   1.839   7.569
97888SOL    HW195561   3.600   1.765   7.509
97888SOL    HW295562   3.659   1.898   7.553
97889SOL     OW95563   6.731   8.910   0.117
97889SOL    HW195564   6.660   8.872   0.169
97889SOL    HW295565   6.787   8.952   0.182
97890SOL     OW95566   8.710   3.187   2.025
97890SOL    HW195567   8.688   3.128   2.097
97890SOL    HW295568   8.657   3.265   2.041
97891SOL     OW95569   7.645  11.731   5.824
97891SOL    HW195570   7.551  11.717   5.817
97891SOL    HW295571   7.684  11.649   5.792
97892SOL     OW95572  14.354   5.379  12.536
97892SOL    HW195573  14.283   5.406  12.479
97892SOL    HW295574  14.343   5.432  12.615
97893SOL     OW95575   8.062  14.355   2.088
97893SOL    HW195576   8.133  14.292   2.076
97893SOL    HW295577   8.102  14.440   2.072
97894SOL     OW95578  10.490   7.558  10.539
97894SOL    HW195579  10.518   7.597  10.456
97894SOL    HW295580  10.399   7.531  10.523
97895SOL     OW95581  10.063   5.089   4.251
97895SOL    HW195582  10.039   4.998   4.266
97895SOL    HW295583  10.159   5.089   4.257
97896SOL     OW95584  11.550   9.485   4.214
97896SOL    HW195585  11.565   9.571   4.175
97896SOL    HW295586  11.600   9.425   4.160
97897SOL     OW95587  11.465   1.204   5.937
97897SOL    HW195588  11.463   1.217   5.842
97897SOL    HW295589  11.392   1.257   5.969
97898SOL     OW95590  13.296  14.176   8.855
97898SOL    HW195591  13.338  14.093   8.832
97898SOL    HW295592  13.206  14.167   8.824
97899SOL     OW95593   5.471  14.652   6.451
97899SOL    HW195594   5.563  14.626   6.463
97899SOL    HW295595   5.443  14.681   6.537
97900SOL     OW95596   1.927  12.952   5.241
97900SOL    HW195597   2.011  12.915   5.266
97900SOL    HW295598   1.939  13.047   5.249
97901SOL     OW95599  10.041  12.793  13.881
97901SOL    HW195600  10.111  12.820  13.821
97901SOL    HW295601   9.962  12.797  13.827
97902SOL     OW95602   9.194  13.921   3.944
97902SOL    HW195603   9.219  13.865   3.871
97902SOL    HW295604   9.252  13.895   4.015
97903SOL     OW95605   9.408   7.231   1.689
97903SOL    HW195606   9.467   7.258   1.618
97903SOL    HW295607   9.439   7.145   1.715
97904SOL     OW95608  12.709   3.047  14.055
97904SOL    HW195609  12.714   3.139  14.081
97904SOL    HW295610  12.618   3.035  14.026
97905SOL     OW95611   6.245  14.106   6.554
97905SOL    HW195612   6.248  14.012   6.571
97905SOL    HW295613   6.202  14.142   6.632
97906SOL     OW95614   2.643   6.846   8.356
97906SOL    HW195615   2.616   6.760   8.323
97906SOL    HW295616   2.616   6.845   8.448
97907SOL     OW95617   8.960   9.123   2.110
97907SOL    HW195618   9.050   9.149   2.089
97907SOL    HW295619   8.916   9.118   2.025
97908SOL     OW95620  11.132   2.361  12.876
97908SOL    HW195621  11.219   2.396  12.896
97908SOL    HW295622  11.078   2.439  12.863
97909SOL     OW95623   9.390   1.008  13.879
97909SOL    HW195624   9.480   1.037  13.868
97909SOL    HW295625   9.340   1.090  13.886
97910SOL     OW95626   3.077   7.454   6.547
97910SOL    HW195627   3.149   7.400   6.516
97910SOL    HW295628   3.043   7.407   6.624
97911SOL     OW95629  12.893   4.475   0.314
97911SOL    HW195630  12.923   4.391   0.280
97911SOL    HW295631  12.802   4.460   0.337
97912SOL     OW95632   6.585  12.213   2.738
97912SOL    HW195633   6.580  12.152   2.811
97912SOL    HW295634   6.646  12.281   2.768
97913SOL     OW95635   5.045   4.511   3.351
97913SOL    HW195636   5.055   4.509   3.446
97913SOL    HW295637   4.972   4.571   3.336
97914SOL     OW95638  10.915   2.068   0.550
97914SOL    HW195639  10.999   2.049   0.510
97914SOL    HW295640  10.931   2.063   0.644
97915SOL     OW95641   0.267  12.918   2.624
97915SOL    HW195642   0.275  13.009   2.595
97915SOL    HW295643   0.344  12.874   2.588
97916SOL     OW95644   1.896   5.719   7.083
97916SOL    HW195645   1.830   5.651   7.069
97916SOL    HW295646   1.865   5.794   7.032
97917SOL     OW95647   8.810  10.868  10.735
97917SOL    HW195648   8.816  10.918  10.816
97917SOL    HW295649   8.775  10.783  10.762
97918SOL     OW95650   7.916   8.315  14.864
97918SOL    HW195651   7.969   8.391  14.839
97918SOL    HW295652   7.855   8.349   0.054
97919SOL     OW95653   0.030   2.603  10.923
97919SOL    HW195654   0.043   2.683  10.872
97919SOL    HW295655  14.812   2.585  10.918
97920SOL     OW95656   3.241  13.782  10.365
97920SOL    HW195657   3.237  13.710  10.302
97920SOL    HW295658   3.288  13.745  10.440
97921SOL     OW95659   4.813   5.731   4.011
97921SOL    HW195660   4.831   5.638   3.997
97921SOL    HW295661   4.744   5.733   4.077
97922SOL     OW95662  14.300  14.169   1.024
97922SOL    HW195663  14.284  14.262   1.013
97922SOL    HW295664  14.260  14.147   1.109
97923SOL     OW95665   6.091  11.650   8.457
97923SOL    HW195666   6.081  11.610   8.543
97923SOL    HW295667   6.163  11.713   8.468
97924SOL     OW95668  12.085   8.036  10.602
97924SOL    HW195669  12.002   7.992  10.589
97924SOL    HW295670  12.100   8.032  10.697
97925SOL     OW95671  11.018   8.652  12.941
97925SOL    HW195672  11.063   8.570  12.919
97925SOL    HW295673  10.948   8.659  12.877
97926SOL     OW95674   6.606   2.345  14.853
97926SOL    HW195675   6.528   2.316   0.024
97926SOL    HW295676   6.579   2.349  14.761
97927SOL     OW95677  12.393  11.534   1.312
97927SOL    HW195678  12.427  11.615   1.275
97927SOL    HW295679  12.406  11.543   1.406
97928SOL     OW95680   5.107   7.510  10.900
97928SOL    HW195681   5.132   7.557  10.820
97928SOL    HW295682   5.187   7.510  10.953
97929SOL     OW95683   3.315   1.917   8.664
97929SOL    HW195684   3.379   1.988   8.669
97929SOL    HW295685   3.367   1.838   8.656
97930SOL     OW95686  10.545   0.241   5.169
97930SOL    HW195687  10.598   0.320   5.181
97930SOL    HW295688  10.561   0.215   5.079
97931SOL     OW95689   3.803   3.675   8.682
97931SOL    HW195690   3.856   3.712   8.753
97931SOL    HW295691   3.712   3.689   8.711
97932SOL     OW95692  10.784   4.459   5.744
97932SOL    HW195693  10.800   4.549   5.715
97932SOL    HW295694  10.813   4.405   5.671
97933SOL     OW95695   3.114  13.779   8.845
97933SOL    HW195696   3.096  13.692   8.880
97933SOL    HW295697   3.056  13.837   8.896
97934SOL     OW95698   2.991   3.364  12.054
97934SOL    HW195699   3.029   3.448  12.080
97934SOL    HW295700   2.897   3.382  12.045
97935SOL     OW95701   1.687  13.299   4.620
97935SOL    HW195702   1.677  13.209   4.588
97935SOL    HW295703   1.778  13.304   4.649
97936SOL     OW95704   9.231  11.405   1.476
97936SOL    HW195705   9.236  11.309   1.478
97936SOL    HW295706   9.144  11.425   1.512
97937SOL     OW95707  12.791  12.754   9.045
97937SOL    HW195708  12.738  12.813   9.099
97937SOL    HW295709  12.800  12.800   8.961
97938SOL     OW95710   6.466   8.047  13.936
97938SOL    HW195711   6.499   8.092  13.858
97938SOL    HW295712   6.493   7.956  13.924
97939SOL     OW95713  12.732   2.711   4.266
97939SOL    HW195714  12.709   2.761   4.188
97939SOL    HW295715  12.752   2.777   4.332
97940SOL     OW95716  11.159   9.413   2.698
97940SOL    HW195717  11.223   9.359   2.651
97940SOL    HW295718  11.143   9.366   2.780
97941SOL     OW95719   4.253  12.552   9.878
97941SOL    HW195720   4.169  12.529   9.919
97941SOL    HW295721   4.247  12.646   9.863
97942SOL     OW95722   9.191   2.673   7.658
97942SOL    HW195723   9.245   2.749   7.634
97942SOL    HW295724   9.102   2.700   7.639
97943SOL     OW95725  14.719   5.101   1.561
97943SOL    HW195726  14.669   5.046   1.622
97943SOL    HW295727  14.675   5.089   1.477
97944SOL     OW95728  12.262   9.528   1.221
97944SOL    HW195729  12.265   9.552   1.129
97944SOL    HW295730  12.185   9.472   1.230
97945SOL     OW95731   6.454  14.714  10.117
97945SOL    HW195732   6.414  14.760  10.191
97945SOL    HW295733   6.473  14.626  10.151
97946SOL     OW95734  14.111   8.619   5.648
97946SOL    HW195735  14.065   8.698   5.679
97946SOL    HW295736  14.042   8.566   5.607
97947SOL     OW95737   1.380  10.985   4.820
97947SOL    HW195738   1.449  11.043   4.788
97947SOL    HW295739   1.407  10.963   4.909
97948SOL     OW95740   5.927  12.675   1.484
97948SOL    HW195741   5.864  12.678   1.411
97948SOL    HW295742   6.009  12.646   1.444
97949SOL     OW95743   9.471   5.615   7.032
97949SOL    HW195744   9.505   5.527   7.050
97949SOL    HW295745   9.414   5.635   7.107
97950SOL     OW95746   1.919   5.208   9.322
97950SOL    HW195747   1.935   5.227   9.414
97950SOL    HW295748   1.946   5.116   9.312
97951SOL     OW95749   6.397   5.857  11.766
97951SOL    HW195750   6.332   5.787  11.769
97951SOL    HW295751   6.447   5.839  11.686
97952SOL     OW95752   3.674   4.316   5.467
97952SOL    HW195753   3.628   4.395   5.437
97952SOL    HW295754   3.754   4.349   5.507
97953SOL     OW95755   2.157   4.560   7.569
97953SOL    HW195756   2.225   4.500   7.536
97953SOL    HW295757   2.199   4.606   7.642
97954SOL     OW95758   5.933   6.017   1.228
97954SOL    HW195759   5.936   5.963   1.149
97954SOL    HW295760   5.878   6.092   1.204
97955SOL     OW95761   5.288   4.382  11.681
97955SOL    HW195762   5.224   4.413  11.744
97955SOL    HW295763   5.321   4.299  11.718
97956SOL     OW95764   1.144  12.548  12.399
97956SOL    HW195765   1.212  12.513  12.456
97956SOL    HW295766   1.064  12.543  12.451
97957SOL     OW95767   9.181   6.590  12.906
97957SOL    HW195768   9.138   6.672  12.931
97957SOL    HW295769   9.207   6.551  12.990
97958SOL     OW95770   4.558   6.234  12.120
97958SOL    HW195771   4.581   6.301  12.056
97958SOL    HW295772   4.642   6.200  12.150
97959SOL     OW95773   8.789   8.504   6.799
97959SOL    HW195774   8.871   8.456   6.789
97959SOL    HW295775   8.787   8.566   6.726
97960SOL     OW95776   6.387   4.022   2.190
97960SOL    HW195777   6.364   4.104   2.232
97960SOL    HW295778   6.402   4.045   2.098
97961SOL     OW95779   4.633   0.559  13.032
97961SOL    HW195780   4.707   0.516  13.075
97961SOL    HW295781   4.556   0.522  13.074
97962SOL     OW95782   7.942   8.547   6.396
97962SOL    HW195783   7.942   8.634   6.357
97962SOL    HW295784   7.877   8.551   6.466
97963SOL     OW95785   2.487   6.523  10.962
97963SOL    HW195786   2.400   6.529  10.922
97963SOL    HW295787   2.525   6.609  10.949
97964SOL     OW95788  11.477  10.396   7.408
97964SOL    HW195789  11.494  10.341   7.332
97964SOL    HW295790  11.436  10.337   7.472
97965SOL     OW95791   7.303   6.104   3.152
97965SOL    HW195792   7.358   6.120   3.076
97965SOL    HW295793   7.270   6.015   3.140
97966SOL     OW95794   2.113   2.899   9.098
97966SOL    HW195795   2.026   2.902   9.136
97966SOL    HW295796   2.110   2.961   9.026
97967SOL     OW95797  11.892   1.604   3.710
97967SOL    HW195798  11.976   1.650   3.714
97967SOL    HW295799  11.914   1.513   3.734
97968SOL     OW95800  14.125  14.000   7.734
97968SOL    HW195801  14.213  13.974   7.760
97968SOL    HW295802  14.138  14.068   7.668
97969SOL     OW95803   3.570   9.980   4.998
97969SOL    HW195804   3.527   9.909   4.951
97969SOL    HW295805   3.501  10.046   5.009
97970SOL     OW95806   0.256   5.389   4.025
97970SOL    HW195807   0.205   5.351   3.954
97970SOL    HW295808   0.318   5.448   3.982
97971SOL     OW95809   7.504   6.824   7.529
97971SOL    HW195810   7.478   6.781   7.448
97971SOL    HW295811   7.495   6.756   7.596
97972SOL     OW95812   2.472   4.597   2.297
97972SOL    HW195813   2.455   4.610   2.390
97972SOL    HW295814   2.552   4.544   2.295
97973SOL     OW95815   5.393  14.775   5.293
97973SOL    HW195816   5.435  14.852   5.332
97973SOL    HW295817   5.464  14.730   5.247
97974SOL     OW95818   6.157  13.427  10.725
97974SOL    HW195819   6.189  13.505  10.680
97974SOL    HW295820   6.119  13.461  10.806
97975SOL     OW95821  12.073   2.338   2.115
97975SOL    HW195822  12.016   2.338   2.038
97975SOL    HW295823  12.151   2.290   2.087
97976SOL     OW95824   1.176   3.337   3.470
97976SOL    HW195825   1.151   3.409   3.528
97976SOL    HW295826   1.101   3.278   3.470
97977SOL     OW95827   9.742   9.326   9.453
97977SOL    HW195828   9.808   9.316   9.385
97977SOL    HW295829   9.658   9.316   9.408
97978SOL     OW95830   9.749   2.284   6.215
97978SOL    HW195831   9.765   2.362   6.268
97978SOL    HW295832   9.800   2.298   6.135
97979SOL     OW95833   2.660   7.079   2.491
97979SOL    HW195834   2.725   7.021   2.452
97979SOL    HW295835   2.605   7.106   2.418
97980SOL     OW95836  10.764   5.119   8.720
97980SOL    HW195837  10.764   5.173   8.641
97980SOL    HW295838  10.686   5.148   8.768
97981SOL     OW95839  11.760   3.658   7.126
97981SOL    HW195840  11.784   3.650   7.034
97981SOL    HW295841  11.667   3.637   7.128
97982SOL     OW95842   3.023   4.437   9.387
97982SOL    HW195843   3.002   4.394   9.469
97982SOL    HW295844   3.116   4.419   9.372
97983SOL     OW95845  11.623   1.877   7.447
97983SOL    HW195846  11.611   1.862   7.541
97983SOL    HW295847  11.715   1.859   7.431
97984SOL     OW95848   8.914   9.479   0.609
97984SOL    HW195849   8.977   9.548   0.587
97984SOL    HW295850   8.936   9.407   0.550
97985SOL     OW95851   8.196   5.359   2.345
97985SOL    HW195852   8.185   5.360   2.441
97985SOL    HW295853   8.175   5.269   2.319
97986SOL     OW95854   4.693   1.111  10.102
97986SOL    HW195855   4.783   1.098  10.072
97986SOL    HW295856   4.639   1.079  10.029
97987SOL     OW95857   7.456   2.646  11.448
97987SOL    HW195858   7.500   2.569  11.412
97987SOL    HW295859   7.526   2.695  11.491
97988SOL     OW95860  14.622   4.985   7.822
97988SOL    HW195861  14.550   5.022   7.770
97988SOL    HW295862  14.646   4.905   7.776
97989SOL     OW95863  14.084   3.704   0.705
97989SOL    HW195864  14.125   3.671   0.785
97989SOL    HW295865  14.110   3.641   0.638
97990SOL     OW95866  14.062   6.175   3.203
97990SOL    HW195867  14.062   6.238   3.131
97990SOL    HW295868  14.008   6.102   3.172
97991SOL     OW95869   2.848   6.370  11.729
97991SOL    HW195870   2.804   6.437  11.677
97991SOL    HW295871   2.875   6.415  11.808
97992SOL     OW95872   7.123   6.072   8.486
97992SOL    HW195873   7.058   6.139   8.508
97992SOL    HW295874   7.072   5.995   8.462
97993SOL     OW95875   6.930   1.679   6.611
97993SOL    HW195876   6.881   1.728   6.545
97993SOL    HW295877   7.007   1.734   6.629
97994SOL     OW95878   9.599  13.317   9.181
97994SOL    HW195879   9.620  13.365   9.101
97994SOL    HW295880   9.503  13.319   9.186
97995SOL     OW95881   7.786   5.976   1.889
97995SOL    HW195882   7.767   5.926   1.968
97995SOL    HW295883   7.721   5.946   1.825
97996SOL     OW95884  10.236   8.948   8.874
97996SOL    HW195885  10.280   8.950   8.959
97996SOL    HW295886  10.254   8.861   8.839
97997SOL     OW95887   2.302   0.874  14.663
97997SOL    HW195888   2.366   0.857  14.732
97997SOL    HW295889   2.252   0.794  14.656
97998SOL     OW95890   8.794  12.495   7.774
97998SOL    HW195891   8.733  12.521   7.843
97998SOL    HW295892   8.817  12.578   7.731
97999SOL     OW95893   6.449   9.194   6.104
97999SOL    HW195894   6.521   9.133   6.118
97999SOL    HW295895   6.375   9.154   6.150
98000SOL     OW95896   4.363  14.195   3.236
98000SOL    HW195897   4.318  14.238   3.164
98000SOL    HW295898   4.292  14.154   3.286
98001SOL     OW95899   7.984   2.291   3.321
98001SOL    HW195900   7.943   2.366   3.278
98001SOL    HW295901   7.979   2.310   3.414
98002SOL     OW95902  11.209  10.392   6.778
98002SOL    HW195903  11.214  10.309   6.730
98002SOL    HW295904  11.294  10.400   6.821
98003SOL     OW95905   5.492   1.188   5.394
98003SOL    HW195906   5.548   1.173   5.318
98003SOL    HW295907   5.403   1.188   5.359
98004SOL     OW95908   9.252   2.205  13.396
98004SOL    HW195909   9.250   2.111  13.380
98004SOL    HW295910   9.255   2.213  13.492
98005SOL     OW95911   3.991   3.496   5.262
98005SOL    HW195912   3.964   3.459   5.347
98005SOL    HW295913   4.082   3.520   5.274
98006SOL     OW95914   6.989  12.803   2.075
98006SOL    HW195915   6.986  12.728   2.016
98006SOL    HW295916   7.076  12.801   2.114
98007SOL     OW95917   2.738  11.826  14.327
98007SOL    HW195918   2.724  11.797  14.237
98007SOL    HW295919   2.815  11.883  14.322
98008SOL     OW95920  14.241  14.253   7.202
98008SOL    HW195921  14.157  14.249   7.248
98008SOL    HW295922  14.236  14.334   7.150
98009SOL     OW95923   1.888   5.495   9.046
98009SOL    HW195924   1.917   5.442   8.972
98009SOL    HW295925   1.941   5.574   9.042
98010SOL     OW95926   0.533   2.375  14.052
98010SOL    HW195927   0.561   2.440  13.989
98010SOL    HW295928   0.484   2.311  14.000
98011SOL     OW95929  10.575  10.048   7.156
98011SOL    HW195930  10.585  10.057   7.251
98011SOL    HW295931  10.483  10.071   7.139
98012SOL     OW95932   1.863   3.565   0.649
98012SOL    HW195933   1.771   3.544   0.661
98012SOL    HW295934   1.870   3.657   0.672
98013SOL     OW95935   1.783   9.738  12.829
98013SOL    HW195936   1.874   9.736  12.799
98013SOL    HW295937   1.783   9.691  12.912
98014SOL     OW95938  12.521   8.910   2.918
98014SOL    HW195939  12.426   8.910   2.910
98014SOL    HW295940  12.551   8.981   2.862
98015SOL     OW95941  12.888  10.865   5.343
98015SOL    HW195942  12.794  10.872   5.358
98015SOL    HW295943  12.925  10.942   5.385
98016SOL     OW95944  11.642   5.019  11.812
98016SOL    HW195945  11.666   4.993  11.901
98016SOL    HW295946  11.581   5.091  11.823
98017SOL     OW95947  14.092   1.371   2.437
98017SOL    HW195948  14.128   1.455   2.468
98017SOL    HW295949  14.111   1.310   2.509
98018SOL     OW95950   4.532   4.741   8.888
98018SOL    HW195951   4.495   4.771   8.971
98018SOL    HW295952   4.610   4.691   8.912
98019SOL     OW95953   9.283   5.932   5.523
98019SOL    HW195954   9.361   5.917   5.470
98019SOL    HW295955   9.315   5.981   5.599
98020SOL     OW95956   1.333   3.318   0.752
98020SOL    HW195957   1.360   3.398   0.797
98020SOL    HW295958   1.379   3.321   0.668
98021SOL     OW95959  14.186   7.823   4.660
98021SOL    HW195960  14.160   7.886   4.593
98021SOL    HW295961  14.123   7.836   4.731
98022SOL     OW95962   8.922  13.203   2.277
98022SOL    HW195963   8.950  13.112   2.265
98022SOL    HW295964   8.831  13.205   2.247
98023SOL     OW95965  11.060   1.461   2.656
98023SOL    HW195966  11.073   1.551   2.629
98023SOL    HW295967  10.984   1.464   2.715
98024SOL     OW95968   6.162   5.768   4.375
98024SOL    HW195969   6.111   5.686   4.375
98024SOL    HW295970   6.200   5.772   4.288
98025SOL     OW95971   3.802   0.739  13.751
98025SOL    HW195972   3.783   0.752  13.658
98025SOL    HW295973   3.719   0.757  13.795
98026SOL     OW95974  10.457  12.075   4.951
98026SOL    HW195975  10.409  12.034   4.879
98026SOL    HW295976  10.389  12.111   5.008
98027SOL     OW95977  13.994   5.932  10.453
98027SOL    HW195978  13.972   5.847  10.489
98027SOL    HW295979  13.916   5.958  10.403
98028SOL     OW95980   6.358  13.756  11.498
98028SOL    HW195981   6.400  13.674  11.473
98028SOL    HW295982   6.308  13.735  11.577
98029SOL     OW95983  11.485   6.529  11.175
98029SOL    HW195984  11.540   6.461  11.213
98029SOL    HW295985  11.406   6.483  11.147
98030SOL     OW95986   8.179   7.301   2.029
98030SOL    HW195987   8.204   7.390   2.052
98030SOL    HW295988   8.094   7.289   2.072
98031SOL     OW95989  10.384  13.324  11.877
98031SOL    HW195990  10.292  13.305  11.862
98031SOL    HW295991  10.412  13.259  11.942
98032SOL     OW95992  12.989   9.543  13.193
98032SOL    HW195993  13.047   9.521  13.120
98032SOL    HW295994  13.033   9.617  13.236
98033SOL     OW95995   3.360   7.124  10.502
98033SOL    HW195996   3.316   7.063  10.442
98033SOL    HW295997   3.312   7.114  10.585
98034SOL     OW95998   3.422   1.795  13.003
98034SOL    HW195999   3.480   1.870  12.993
98034SOL    HW296000   3.390   1.801  13.093
98035SOL     OW96001  14.381   7.400  12.283
98035SOL    HW196002  14.294   7.369  12.306
98035SOL    HW296003  14.416   7.334  12.224
98036SOL     OW96004   1.825   9.526   6.059
98036SOL    HW196005   1.791   9.613   6.079
98036SOL    HW296006   1.905   9.519   6.112
98037SOL     OW96007   9.508   6.486   5.453
98037SOL    HW196008   9.575   6.551   5.476
98037SOL    HW296009   9.524   6.466   5.361
98038SOL     OW96010   3.445   7.157   1.301
98038SOL    HW196011   3.483   7.070   1.308
98038SOL    HW296012   3.518   7.214   1.277
98039SOL     OW96013   9.624   8.019  13.298
98039SOL    HW196014   9.687   7.947  13.302
98039SOL    HW296015   9.539   7.977  13.316
98040SOL     OW96016  11.140   8.994   3.378
98040SOL    HW196017  11.135   9.089   3.388
98040SOL    HW296018  11.054   8.963   3.406
98041SOL     OW96019  13.224   2.809   7.129
98041SOL    HW196020  13.189   2.836   7.214
98041SOL    HW296021  13.296   2.751   7.151
98042SOL     OW96022   2.581   7.788  13.492
98042SOL    HW196023   2.533   7.750  13.566
98042SOL    HW296024   2.673   7.771  13.512
98043SOL     OW96025   4.032  13.832  14.589
98043SOL    HW196026   4.111  13.834  14.644
98043SOL    HW296027   3.960  13.840  14.652
98044SOL     OW96028   5.929  10.958  13.252
98044SOL    HW196029   5.880  10.908  13.187
98044SOL    HW296030   5.872  10.961  13.328
98045SOL     OW96031  13.662  10.465  14.794
98045SOL    HW196032  13.703  10.551  14.794
98045SOL    HW296033  13.677  10.432   0.008
98046SOL     OW96034  12.017   3.780   9.146
98046SOL    HW196035  11.973   3.785   9.061
98046SOL    HW296036  11.951   3.741   9.204
98047SOL     OW96037   9.009   0.724   6.849
98047SOL    HW196038   8.969   0.721   6.762
98047SOL    HW296039   8.936   0.746   6.908
98048SOL     OW96040  11.408   9.172  13.423
98048SOL    HW196041  11.400   9.082  13.455
98048SOL    HW296042  11.333   9.218  13.460
98049SOL     OW96043   9.573  13.132   6.675
98049SOL    HW196044   9.582  13.225   6.654
98049SOL    HW296045   9.658  13.106   6.710
98050SOL     OW96046   1.221  13.521   0.419
98050SOL    HW196047   1.235  13.544   0.511
98050SOL    HW296048   1.222  13.605   0.374
98051SOL     OW96049   4.968   1.417   3.677
98051SOL    HW196050   4.909   1.488   3.701
98051SOL    HW296051   5.025   1.407   3.754
98052SOL     OW96052   5.124   7.057   0.819
98052SOL    HW196053   5.079   6.983   0.859
98052SOL    HW296054   5.203   7.019   0.780
98053SOL     OW96055  11.319  13.781   6.910
98053SOL    HW196056  11.324  13.787   7.005
98053SOL    HW296057  11.407  13.801   6.879
98054SOL     OW96058   3.981  12.717  14.531
98054SOL    HW196059   4.035  12.795  14.548
98054SOL    HW296060   3.963  12.719  14.438
98055SOL     OW96061   4.276   8.416  10.962
98055SOL    HW196062   4.195   8.365  10.951
98055SOL    HW296063   4.281   8.468  10.882
98056SOL     OW96064   4.616   6.530   4.718
98056SOL    HW196065   4.578   6.602   4.668
98056SOL    HW296066   4.654   6.473   4.652
98057SOL     OW96067   7.147   3.125   9.647
98057SOL    HW196068   7.073   3.185   9.635
98057SOL    HW296069   7.224   3.177   9.626
98058SOL     OW96070   5.183  11.497   9.060
98058SOL    HW196071   5.152  11.582   9.089
98058SOL    HW296072   5.138  11.482   8.977
98059SOL     OW96073  13.890   6.772  11.350
98059SOL    HW196074  13.983   6.750  11.343
98059SOL    HW296075  13.854   6.753  11.264
98060SOL     OW96076   5.587   5.435  13.949
98060SOL    HW196077   5.639   5.361  13.980
98060SOL    HW296078   5.496   5.407  13.962
98061SOL     OW96079   9.541   6.099   8.839
98061SOL    HW196080   9.524   6.007   8.814
98061SOL    HW296081   9.548   6.145   8.755
98062SOL     OW96082   1.563   1.300   7.716
98062SOL    HW196083   1.528   1.294   7.805
98062SOL    HW296084   1.550   1.213   7.679
98063SOL     OW96085   8.567  10.167   6.338
98063SOL    HW196086   8.480  10.162   6.299
98063SOL    HW296087   8.569  10.251   6.383
98064SOL     OW96088  11.072   0.943   0.452
98064SOL    HW196089  11.041   0.954   0.542
98064SOL    HW296090  10.991   0.941   0.400
98065SOL     OW96091   3.966   0.376   6.894
98065SOL    HW196092   3.907   0.410   6.962
98065SOL    HW296093   3.934   0.415   6.813
98066SOL     OW96094   4.571   1.294   3.757
98066SOL    HW196095   4.614   1.274   3.674
98066SOL    HW296096   4.561   1.210   3.800
98067SOL     OW96097   3.744   7.473  13.718
98067SOL    HW196098   3.765   7.456  13.810
98067SOL    HW296099   3.828   7.489  13.676
98068SOL     OW96100   9.771   5.386   9.757
98068SOL    HW196101   9.782   5.298   9.720
98068SOL    HW296102   9.804   5.445   9.690
98069SOL     OW96103   7.602  12.152  12.731
98069SOL    HW196104   7.571  12.062  12.722
98069SOL    HW296105   7.638  12.156  12.820
98070SOL     OW96106  12.076   4.015   6.131
98070SOL    HW196107  12.110   4.013   6.041
98070SOL    HW296108  11.989   4.053   6.123
98071SOL     OW96109   9.832   2.007   6.246
98071SOL    HW196110   9.774   2.080   6.268
98071SOL    HW296111   9.787   1.963   6.173
98072SOL     OW96112   9.703   9.035   3.285
98072SOL    HW196113   9.767   8.965   3.280
98072SOL    HW296114   9.741   9.106   3.233
98073SOL     OW96115  12.860  12.093   6.816
98073SOL    HW196116  12.793  12.050   6.868
98073SOL    HW296117  12.903  12.153   6.877
98074SOL     OW96118   3.122  13.393   2.092
98074SOL    HW196119   3.103  13.468   2.148
98074SOL    HW296120   3.212  13.369   2.114
98075SOL     OW96121  11.212   9.358  13.521
98075SOL    HW196122  11.245   9.444  13.547
98075SOL    HW296123  11.126   9.352  13.561
98076SOL     OW96124   8.306   7.069  12.042
98076SOL    HW196125   8.395   7.086  12.072
98076SOL    HW296126   8.279   7.150  11.999
98077SOL     OW96127  13.082   3.121  12.382
98077SOL    HW196128  13.050   3.139  12.293
98077SOL    HW296129  13.112   3.030  12.378
98078SOL     OW96130   0.383   2.527  12.896
98078SOL    HW196131   0.373   2.618  12.867
98078SOL    HW296132   0.413   2.481  12.817
98079SOL     OW96133   2.060   8.135  10.066
98079SOL    HW196134   2.123   8.193  10.021
98079SOL    HW296135   2.092   8.047  10.048
98080SOL     OW96136  13.992  10.527  11.661
98080SOL    HW196137  14.045  10.602  11.686
98080SOL    HW296138  13.951  10.498  11.743
98081SOL     OW96139  13.060  10.278   8.732
98081SOL    HW196140  13.101  10.209   8.680
98081SOL    HW296141  13.001  10.231   8.791
98082SOL     OW96142   9.784   9.864  13.407
98082SOL    HW196143   9.827   9.945  13.433
98082SOL    HW296144   9.738   9.834  13.485
98083SOL     OW96145   9.192   5.941  14.569
98083SOL    HW196146   9.273   5.891  14.562
98083SOL    HW296147   9.129   5.880  14.608
98084SOL     OW96148   2.404   7.628  12.230
98084SOL    HW196149   2.391   7.624  12.135
98084SOL    HW296150   2.449   7.712  12.244
98085SOL     OW96151  13.725   5.216  13.988
98085SOL    HW196152  13.790   5.148  14.002
98085SOL    HW296153  13.675   5.187  13.912
98086SOL     OW96154  14.372   6.453   3.049
98086SOL    HW196155  14.465   6.433   3.056
98086SOL    HW296156  14.336   6.379   2.999
98087SOL     OW96157   4.954   9.045  14.362
98087SOL    HW196158   4.879   8.989  14.379
98087SOL    HW296159   4.977   9.082  14.447
98088SOL     OW96160   4.199  13.090  14.817
98088SOL    HW196161   4.141  13.105   0.017
98088SOL    HW296162   4.246  13.010  14.838
98089SOL     OW96163  14.239   4.556   7.561
98089SOL    HW196164  14.218   4.521   7.648
98089SOL    HW296165  14.159   4.544   7.511
98090SOL     OW96166  13.444  10.275   4.889
98090SOL    HW196167  13.352  10.247   4.889
98090SOL    HW296168  13.494  10.194   4.886
98091SOL     OW96169   0.804   3.852  14.787
98091SOL    HW196170   0.829   3.827  14.698
98091SOL    HW296171   0.843   3.939  14.799
98092SOL     OW96172  11.026   5.213  11.168
98092SOL    HW196173  10.947   5.182  11.124
98092SOL    HW296174  11.053   5.290  11.118
98093SOL     OW96175  12.201  13.032   1.517
98093SOL    HW196176  12.267  13.020   1.449
98093SOL    HW296177  12.183  12.943   1.549
98094SOL     OW96178   1.169  10.562  13.325
98094SOL    HW196179   1.173  10.604  13.411
98094SOL    HW296180   1.260  10.542  13.304
98095SOL     OW96181   6.058   4.740   6.783
98095SOL    HW196182   6.112   4.802   6.734
98095SOL    HW296183   6.108   4.658   6.782
98096SOL     OW96184  13.333   9.533   1.475
98096SOL    HW196185  13.365   9.480   1.548
98096SOL    HW296186  13.395   9.606   1.470
98097SOL     OW96187   0.552  12.495   5.385
98097SOL    HW196188   0.553  12.410   5.429
98097SOL    HW296189   0.498  12.551   5.441
98098SOL     OW96190  14.590   9.230   3.698
98098SOL    HW196191  14.560   9.174   3.627
98098SOL    HW296192  14.664   9.183   3.737
98099SOL     OW96193   3.702  12.908   3.229
98099SOL    HW196194   3.706  12.827   3.282
98099SOL    HW296195   3.613  12.940   3.241
98100SOL     OW96196  13.018   6.900   4.071
98100SOL    HW196197  13.025   6.980   4.124
98100SOL    HW296198  13.091   6.906   4.009
98101SOL     OW96199  13.916   9.956   2.568
98101SOL    HW196200  13.857   9.887   2.599
98101SOL    HW296201  14.002   9.915   2.564
98102SOL     OW96202   0.601   7.498   4.163
98102SOL    HW196203   0.680   7.505   4.218
98102SOL    HW296204   0.544   7.568   4.193
98103SOL     OW96205   2.164   9.550   5.312
98103SOL    HW196206   2.172   9.485   5.242
98103SOL    HW296207   2.100   9.613   5.278
98104SOL     OW96208   8.112  11.874   7.341
98104SOL    HW196209   8.062  11.955   7.338
98104SOL    HW296210   8.177  11.887   7.409
98105SOL     OW96211   4.765  10.715   4.236
98105SOL    HW196212   4.691  10.751   4.187
98105SOL    HW296213   4.730  10.636   4.278
98106SOL     OW96214  11.900   4.935  11.717
98106SOL    HW196215  11.961   5.005  11.741
98106SOL    HW296216  11.816   4.962  11.755
98107SOL     OW96217   3.785   5.459  12.464
98107SOL    HW196218   3.831   5.517  12.525
98107SOL    HW296219   3.812   5.489  12.377
98108SOL     OW96220   6.408  11.918   1.646
98108SOL    HW196221   6.383  11.911   1.554
98108SOL    HW296222   6.335  11.964   1.688
98109SOL     OW96223   4.933  10.249   2.538
98109SOL    HW196224   5.022  10.255   2.571
98109SOL    HW296225   4.940  10.274   2.445
98110SOL     OW96226   0.118  12.300   4.615
98110SOL    HW196227   0.144  12.226   4.561
98110SOL    HW296228   0.031  12.277   4.647
98111SOL     OW96229   9.035   4.071   0.069
98111SOL    HW196230   9.086   3.996   0.099
98111SOL    HW296231   9.055   4.140   0.132
98112SOL     OW96232  10.116   8.707   9.062
98112SOL    HW196233  10.157   8.705   8.976
98112SOL    HW296234  10.187   8.691   9.124
98113SOL     OW96235   0.562   2.466   6.851
98113SOL    HW196236   0.567   2.542   6.910
98113SOL    HW296237   0.646   2.422   6.862
98114SOL     OW96238   5.130   1.266   1.701
98114SOL    HW196239   5.183   1.335   1.739
98114SOL    HW296240   5.167   1.251   1.614
98115SOL     OW96241   1.502  10.457  11.520
98115SOL    HW196242   1.519  10.530  11.461
98115SOL    HW296243   1.505  10.379  11.465
98116SOL     OW96244  14.825   6.575  12.959
98116SOL    HW196245  14.742   6.576  12.911
98116SOL    HW296246  14.864   6.660  12.940
98117SOL     OW96247   4.402   2.992   8.567
98117SOL    HW196248   4.320   2.983   8.519
98117SOL    HW296249   4.404   3.084   8.594
98118SOL     OW96250   0.619  14.215   0.880
98118SOL    HW196251   0.591  14.255   0.962
98118SOL    HW296252   0.639  14.124   0.903
98119SOL     OW96253   1.893  11.299  12.596
98119SOL    HW196254   1.981  11.274  12.625
98119SOL    HW296255   1.886  11.265  12.507
98120SOL     OW96256  12.058  10.298   3.706
98120SOL    HW196257  12.037  10.388   3.735
98120SOL    HW296258  12.023  10.293   3.617
98121SOL     OW96259   9.607  14.392  10.569
98121SOL    HW196260   9.666  14.460  10.601
98121SOL    HW296261   9.653  14.310  10.585
98122SOL     OW96262   1.822   6.581  10.719
98122SOL    HW196263   1.753   6.590  10.784
98122SOL    HW296264   1.896   6.630  10.755
98123SOL     OW96265   1.573   7.536  13.138
98123SOL    HW196266   1.663   7.558  13.115
98123SOL    HW296267   1.520   7.606  13.099
98124SOL     OW96268   7.913   9.964  11.569
98124SOL    HW196269   7.961   9.944  11.649
98124SOL    HW296270   7.967   9.927  11.499
98125SOL     OW96271  12.256  12.609  10.404
98125SOL    HW196272  12.229  12.696  10.433
98125SOL    HW296273  12.271  12.560  10.486
98126SOL     OW96274   9.189   3.312   9.053
98126SOL    HW196275   9.127   3.371   9.095
98126SOL    HW296276   9.262   3.307   9.115
98127SOL     OW96277   4.030   3.084  14.605
98127SOL    HW196278   4.084   3.157  14.634
98127SOL    HW296279   4.092   3.018  14.574
98128SOL     OW96280   6.981   2.484  11.179
98128SOL    HW196281   6.959   2.478  11.272
98128SOL    HW296282   7.074   2.507  11.177
98129SOL     OW96283   6.945   9.859   2.822
98129SOL    HW196284   7.023   9.909   2.797
98129SOL    HW296285   6.898   9.917   2.883
98130SOL     OW96286  11.230   3.546   6.517
98130SOL    HW196287  11.208   3.459   6.482
98130SOL    HW296288  11.257   3.529   6.607
98131SOL     OW96289   3.437   1.191   6.855
98131SOL    HW196290   3.465   1.100   6.848
98131SOL    HW296291   3.349   1.192   6.816
98132SOL     OW96292   7.144   8.688   9.829
98132SOL    HW196293   7.186   8.694   9.743
98132SOL    HW296294   7.214   8.658   9.888
98133SOL     OW96295   4.473  12.331   5.702
98133SOL    HW196296   4.471  12.395   5.774
98133SOL    HW296297   4.539  12.268   5.729
98134SOL     OW96298   3.686  10.840   6.990
98134SOL    HW196299   3.645  10.788   7.060
98134SOL    HW296300   3.765  10.792   6.968
98135SOL     OW96301   8.060  11.115  13.784
98135SOL    HW196302   8.116  11.141  13.857
98135SOL    HW296303   8.111  11.135  13.706
98136SOL     OW96304   8.088   2.102   0.377
98136SOL    HW196305   8.129   2.021   0.347
98136SOL    HW296306   8.051   2.079   0.463
98137SOL     OW96307   5.504   2.246   7.823
98137SOL    HW196308   5.505   2.162   7.777
98137SOL    HW296309   5.594   2.258   7.854
98138SOL     OW96310  13.526  13.111  14.461
98138SOL    HW196311  13.510  13.017  14.454
98138SOL    HW296312  13.604  13.118  14.516
98139SOL     OW96313   2.771   6.038   1.818
98139SOL    HW196314   2.740   6.065   1.904
98139SOL    HW296315   2.725   5.956   1.801
98140SOL     OW96316   3.130  14.813   4.742
98140SOL    HW196317   3.080   0.001   4.795
98140SOL    HW296318   3.068  14.783   4.676
98141SOL     OW96319   6.023   1.079  10.820
98141SOL    HW196320   6.036   1.128  10.901
98141SOL    HW296321   6.037   1.143  10.750
98142SOL     OW96322   8.282  10.708  12.658
98142SOL    HW196323   8.314  10.797  12.644
98142SOL    HW296324   8.238  10.685  12.576
98143SOL     OW96325  14.829  14.298   8.095
98143SOL    HW196326  14.841  14.379   8.144
98143SOL    HW296327  14.792  14.326   8.011
98144SOL     OW96328  14.136  12.804   6.084
98144SOL    HW196329  14.070  12.827   6.018
98144SOL    HW296330  14.211  12.772   6.034
98145SOL     OW96331  12.514  13.884   3.563
98145SOL    HW196332  12.540  13.938   3.489
98145SOL    HW296333  12.466  13.810   3.523
98146SOL     OW96334   8.086   8.537  11.122
98146SOL    HW196335   8.159   8.523  11.183
98146SOL    HW296336   8.010   8.500  11.167
98147SOL     OW96337   9.274   9.614   3.781
98147SOL    HW196338   9.295   9.538   3.728
98147SOL    HW296339   9.192   9.592   3.824
98148SOL     OW96340  13.067  13.448   0.767
98148SOL    HW196341  13.020  13.417   0.690
98148SOL    HW296342  13.050  13.382   0.834
98149SOL     OW96343  10.404  10.160   8.594
98149SOL    HW196344  10.313  10.133   8.603
98149SOL    HW296345  10.423  10.210   8.673
98150SOL     OW96346   0.375   0.919   8.758
98150SOL    HW196347   0.429   0.885   8.829
98150SOL    HW296348   0.432   0.981   8.712
98151SOL     OW96349  12.318   5.150   8.666
98151SOL    HW196350  12.315   5.095   8.744
98151SOL    HW296351  12.332   5.089   8.593
98152SOL     OW96352   4.749   0.235   8.440
98152SOL    HW196353   4.733   0.291   8.364
98152SOL    HW296354   4.692   0.270   8.508
98153SOL     OW96355  10.218   8.114   0.776
98153SOL    HW196356  10.208   8.110   0.871
98153SOL    HW296357  10.306   8.081   0.760
98154SOL     OW96358  13.482  10.822   5.027
98154SOL    HW196359  13.529  10.776   4.957
98154SOL    HW296360  13.432  10.889   4.981
98155SOL     OW96361   9.000   4.494  10.855
98155SOL    HW196362   8.925   4.548  10.830
98155SOL    HW296363   8.998   4.421  10.793
98156SOL     OW96364   5.698   3.898   8.905
98156SOL    HW196365   5.759   3.911   8.833
98156SOL    HW296366   5.647   3.821   8.880
98157SOL     OW96367   3.450   7.482   8.940
98157SOL    HW196368   3.414   7.394   8.941
98157SOL    HW296369   3.374   7.540   8.943
98158SOL     OW96370  13.019   7.232   1.375
98158SOL    HW196371  12.952   7.171   1.406
98158SOL    HW296372  12.970   7.299   1.327
98159SOL     OW96373  14.715   9.479  12.106
98159SOL    HW196374  14.769   9.557  12.112
98159SOL    HW296375  14.682   9.466  12.195
98160SOL     OW96376  12.460  11.475   3.379
98160SOL    HW196377  12.504  11.391   3.394
98160SOL    HW296378  12.493  11.531   3.449
98161SOL     OW96379   0.459  11.633   6.547
98161SOL    HW196380   0.388  11.572   6.569
98161SOL    HW296381   0.536  11.598   6.592
98162SOL     OW96382   8.102   9.714   8.622
98162SOL    HW196383   8.122   9.769   8.547
98162SOL    HW296384   8.008   9.729   8.638
98163SOL     OW96385  10.698   6.766  14.051
98163SOL    HW196386  10.767   6.700  14.061
98163SOL    HW296387  10.645   6.734  13.979
98164SOL     OW96388   0.635   0.694   9.130
98164SOL    HW196389   0.702   0.629   9.113
98164SOL    HW296390   0.677   0.758   9.188
98165SOL     OW96391  11.899   9.988   0.197
98165SOL    HW196392  11.963  10.039   0.248
98165SOL    HW296393  11.903   9.900   0.235
98166SOL     OW96394  12.683   7.088  12.983
98166SOL    HW196395  12.602   7.090  13.034
98166SOL    HW296396  12.667   7.023  12.914
98167SOL     OW96397   4.971   8.443   7.330
98167SOL    HW196398   4.953   8.351   7.311
98167SOL    HW296399   4.932   8.458   7.416
98168SOL     OW96400  12.246  13.099   7.459
98168SOL    HW196401  12.226  13.124   7.549
98168SOL    HW296402  12.333  13.134   7.442
98169SOL     OW96403  14.658   5.971   5.341
98169SOL    HW196404  14.711   5.923   5.277
98169SOL    HW296405  14.568   5.941   5.324
98170SOL     OW96406   7.362   4.510   4.656
98170SOL    HW196407   7.342   4.499   4.749
98170SOL    HW296408   7.357   4.422   4.620
98171SOL     OW96409   8.790   6.921  12.875
98171SOL    HW196410   8.752   6.883  12.797
98171SOL    HW296411   8.733   6.996  12.895
98172SOL     OW96412   6.091  13.407   2.716
98172SOL    HW196413   6.086  13.336   2.781
98172SOL    HW296414   6.184  13.431   2.714
98173SOL     OW96415   7.158   9.363   6.375
98173SOL    HW196416   7.251   9.365   6.397
98173SOL    HW296417   7.127   9.452   6.392
98174SOL     OW96418   7.516   7.588   4.006
98174SOL    HW196419   7.448   7.581   3.939
98174SOL    HW296420   7.478   7.644   4.073
98175SOL     OW96421   6.345   6.273   0.742
98175SOL    HW196422   6.260   6.240   0.772
98175SOL    HW296423   6.380   6.203   0.687
98176SOL     OW96424  13.448  12.444   7.977
98176SOL    HW196425  13.357  12.470   7.967
98176SOL    HW296426  13.493  12.486   7.903
98177SOL     OW96427  12.299   3.235  10.401
98177SOL    HW196428  12.392   3.256  10.409
98177SOL    HW296429  12.296   3.154  10.351
98178SOL     OW96430  14.285   6.765  10.221
98178SOL    HW196431  14.225   6.693  10.238
98178SOL    HW296432  14.352   6.728  10.164
98179SOL     OW96433  14.055   2.262   2.015
98179SOL    HW196434  14.118   2.328   1.985
98179SOL    HW296435  13.977   2.312   2.037
98180SOL     OW96436  14.756   8.608   0.383
98180SOL    HW196437  14.740   8.700   0.406
98180SOL    HW296438  14.850   8.603   0.366
98181SOL     OW96439   8.891  12.888  13.317
98181SOL    HW196440   8.836  12.810  13.327
98181SOL    HW296441   8.947  12.888  13.396
98182SOL     OW96442   8.066  11.754   7.010
98182SOL    HW196443   8.045  11.823   7.072
98182SOL    HW296444   8.027  11.783   6.927
98183SOL     OW96445  12.624  14.475   9.071
98183SOL    HW196446  12.689  14.499   9.137
98183SOL    HW296447  12.577  14.401   9.110
98184SOL     OW96448   0.692  13.851   2.782
98184SOL    HW196449   0.598  13.835   2.795
98184SOL    HW296450   0.707  13.831   2.690
98185SOL     OW96451   2.729   8.173   0.233
98185SOL    HW196452   2.797   8.228   0.192
98185SOL    HW296453   2.730   8.092   0.182
98186SOL     OW96454  11.591  13.533   3.125
98186SOL    HW196455  11.632  13.454   3.092
98186SOL    HW296456  11.573  13.515   3.217
98187SOL     OW96457   2.710  12.648   0.056
98187SOL    HW196458   2.775  12.692   0.002
98187SOL    HW296459   2.739  12.556   0.059
98188SOL     OW96460   4.519  10.829   1.003
98188SOL    HW196461   4.578  10.764   0.964
98188SOL    HW296462   4.453  10.777   1.049
98189SOL     OW96463   0.729   4.199  10.532
98189SOL    HW196464   0.729   4.103  10.523
98189SOL    HW296465   0.822   4.222  10.537
98190SOL     OW96466  10.408  12.675   3.016
98190SOL    HW196467  10.463  12.726   3.075
98190SOL    HW296468  10.385  12.597   3.066
98191SOL     OW96469   8.524   0.343   2.254
98191SOL    HW196470   8.524   0.254   2.290
98191SOL    HW296471   8.601   0.384   2.294
98192SOL     OW96472   2.464   9.828  14.310
98192SOL    HW196473   2.390   9.878  14.343
98192SOL    HW296474   2.541   9.874  14.345
98193SOL     OW96475   5.988   2.910   0.040
98193SOL    HW196476   5.968   2.881   0.130
98193SOL    HW296477   5.969   2.833  14.861
98194SOL     OW96478  12.576   8.548  12.763
98194SOL    HW196479  12.646   8.609  12.783
98194SOL    HW296480  12.497   8.602  12.757
98195SOL     OW96481  13.796   3.272   9.114
98195SOL    HW196482  13.752   3.351   9.144
98195SOL    HW296483  13.887   3.282   9.143
98196SOL     OW96484   3.659  10.709  12.153
98196SOL    HW196485   3.614  10.773  12.097
98196SOL    HW296486   3.740  10.690  12.106
98197SOL     OW96487  13.674   6.246   3.604
98197SOL    HW196488  13.729   6.324   3.612
98197SOL    HW296489  13.716   6.193   3.537
98198SOL     OW96490  11.033  12.551  12.797
98198SOL    HW196491  11.079  12.595  12.869
98198SOL    HW296492  10.980  12.484  12.839
98199SOL     OW96493   7.789  11.118   1.802
98199SOL    HW196494   7.821  11.178   1.735
98199SOL    HW296495   7.695  11.133   1.805
98200SOL     OW96496   0.682  12.201   3.049
98200SOL    HW196497   0.636  12.148   2.985
98200SOL    HW296498   0.774  12.196   3.024
98201SOL     OW96499  14.591   7.102   9.106
98201SOL    HW196500  14.566   7.088   9.014
98201SOL    HW296501  14.513   7.138   9.147
98202SOL     OW96502   1.516   4.006  13.617
98202SOL    HW196503   1.582   3.955  13.571
98202SOL    HW296504   1.432   3.976  13.582
98203SOL     OW96505  10.233   2.718  10.440
98203SOL    HW196506  10.267   2.726  10.351
98203SOL    HW296507  10.298   2.663  10.485
98204SOL     OW96508   5.216   8.655   8.897
98204SOL    HW196509   5.306   8.678   8.918
98204SOL    HW296510   5.163   8.715   8.950
98205SOL     OW96511   7.182   4.939   9.099
98205SOL    HW196512   7.111   4.891   9.142
98205SOL    HW296513   7.255   4.934   9.161
98206SOL     OW96514   1.123  11.968   5.566
98206SOL    HW196515   1.164  11.915   5.635
98206SOL    HW296516   1.175  11.949   5.488
98207SOL     OW96517   5.992   3.632   7.677
98207SOL    HW196518   5.971   3.673   7.761
98207SOL    HW296519   6.085   3.608   7.685
98208SOL     OW96520   5.113  13.004   1.772
98208SOL    HW196521   5.091  13.062   1.699
98208SOL    HW296522   5.039  13.014   1.833
98209SOL     OW96523   5.245   4.942   5.051
98209SOL    HW196524   5.179   4.958   4.983
98209SOL    HW296525   5.262   4.848   5.046
98210SOL     OW96526   7.445   8.921   5.464
98210SOL    HW196527   7.406   8.968   5.391
98210SOL    HW296528   7.534   8.955   5.470
98211SOL     OW96529   2.511   1.826  12.251
98211SOL    HW196530   2.591   1.788  12.213
98211SOL    HW296531   2.439   1.780  12.207
98212SOL     OW96532  11.533   9.721   3.563
98212SOL    HW196533  11.585   9.691   3.638
98212SOL    HW296534  11.461   9.657   3.557
98213SOL     OW96535   8.665  10.076   5.051
98213SOL    HW196536   8.667   9.980   5.053
98213SOL    HW296537   8.573  10.098   5.034
98214SOL     OW96538   2.811  13.279   0.316
98214SOL    HW196539   2.758  13.325   0.251
98214SOL    HW296540   2.851  13.207   0.267
98215SOL     OW96541   5.082   2.912  13.853
98215SOL    HW196542   5.051   2.995  13.819
98215SOL    HW296543   5.134   2.874  13.782
98216SOL     OW96544   3.808   9.541   6.516
98216SOL    HW196545   3.734   9.591   6.552
98216SOL    HW296546   3.870   9.536   6.589
98217SOL     OW96547   1.300   5.997   8.397
98217SOL    HW196548   1.294   5.946   8.478
98217SOL    HW296549   1.209   6.017   8.375
98218SOL     OW96550  12.681  14.858  13.885
98218SOL    HW196551  12.720   0.021  13.806
98218SOL    HW296552  12.654  14.770  13.859
98219SOL     OW96553  12.361   0.779   7.269
98219SOL    HW196554  12.327   0.728   7.342
98219SOL    HW296555  12.287   0.788   7.209
98220SOL     OW96556   2.346  14.787  13.897
98220SOL    HW196557   2.426  14.778  13.844
98220SOL    HW296558   2.306  14.701  13.894
98221SOL     OW96559   4.533   5.959  11.654
98221SOL    HW196560   4.491   6.015  11.719
98221SOL    HW296561   4.461   5.913  11.612
98222SOL     OW96562   2.953   1.956   0.176
98222SOL    HW196563   2.944   2.041   0.220
98222SOL    HW296564   3.046   1.936   0.182
98223SOL     OW96565  11.459   6.039   2.719
98223SOL    HW196566  11.400   6.037   2.644
98223SOL    HW296567  11.486   5.948   2.731
98224SOL     OW96568  10.812   1.910   9.490
98224SOL    HW196569  10.869   1.931   9.416
98224SOL    HW296570  10.806   1.814   9.489
98225SOL     OW96571   2.481   6.464   3.523
98225SOL    HW196572   2.475   6.386   3.468
98225SOL    HW296573   2.496   6.536   3.462
98226SOL     OW96574   8.577   5.754   0.027
98226SOL    HW196575   8.654   5.811   0.032
98226SOL    HW296576   8.518   5.787   0.095
98227SOL     OW96577  14.735   9.094  11.624
98227SOL    HW196578  14.724   9.058  11.712
98227SOL    HW296579  14.826   9.076  11.601
98228SOL     OW96580  12.599   2.854   1.995
98228SOL    HW196581  12.577   2.909   2.070
98228SOL    HW296582  12.535   2.878   1.928
98229SOL     OW96583   0.818   8.751  14.390
98229SOL    HW196584   0.733   8.710  14.406
98229SOL    HW296585   0.809   8.792  14.304
98230SOL     OW96586   8.309   9.415  10.779
98230SOL    HW196587   8.331   9.456  10.696
98230SOL    HW296588   8.309   9.321  10.761
98231SOL     OW96589   1.173  11.027   8.234
98231SOL    HW196590   1.186  11.070   8.319
98231SOL    HW296591   1.131  10.944   8.255
98232SOL     OW96592  10.258   2.478   2.310
98232SOL    HW196593  10.222   2.401   2.266
98232SOL    HW296594  10.351   2.478   2.288
98233SOL     OW96595   2.926  11.287  14.399
98233SOL    HW196596   2.881  11.361  14.440
98233SOL    HW296597   2.914  11.301  14.305
98234SOL     OW96598   9.690   6.907   6.181
98234SOL    HW196599   9.672   6.895   6.087
98234SOL    HW296600   9.618   6.862   6.225
98235SOL     OW96601  12.034   0.727  13.825
98235SOL    HW196602  12.008   0.818  13.835
98235SOL    HW296603  12.048   0.716  13.731
98236SOL     OW96604   0.645  11.934  11.636
98236SOL    HW196605   0.629  12.028  11.634
98236SOL    HW296606   0.613  11.906  11.721
98237SOL     OW96607   0.675  10.538   5.877
98237SOL    HW196608   0.705  10.512   5.790
98237SOL    HW296609   0.598  10.482   5.893
98238SOL     OW96610  12.439   5.778   1.504
98238SOL    HW196611  12.383   5.856   1.513
98238SOL    HW296612  12.512   5.795   1.564
98239SOL     OW96613   4.295   2.432   9.779
98239SOL    HW196614   4.256   2.354   9.740
98239SOL    HW296615   4.306   2.493   9.705
98240SOL     OW96616  11.091  11.015  11.469
98240SOL    HW196617  11.057  10.990  11.384
98240SOL    HW296618  11.099  10.933  11.517
98241SOL     OW96619   5.404  13.720  10.988
98241SOL    HW196620   5.369  13.652  10.930
98241SOL    HW296621   5.329  13.776  11.007
98242SOL     OW96622   9.202   8.329   3.783
98242SOL    HW196623   9.162   8.249   3.748
98242SOL    HW296624   9.140   8.399   3.759
98243SOL     OW96625   0.987   2.703   9.017
98243SOL    HW196626   1.074   2.744   9.017
98243SOL    HW296627   0.977   2.669   8.928
98244SOL     OW96628  13.568   2.022   9.874
98244SOL    HW196629  13.498   2.058   9.819
98244SOL    HW296630  13.551   1.927   9.874
98245SOL     OW96631   1.972   2.490   8.568
98245SOL    HW196632   2.029   2.453   8.500
98245SOL    HW296633   1.987   2.584   8.562
98246SOL     OW96634  13.041   8.799   1.602
98246SOL    HW196635  13.072   8.825   1.515
98246SOL    HW296636  12.977   8.867   1.625
98247SOL     OW96637   5.901   1.972   9.014
98247SOL    HW196638   5.978   1.922   9.043
98247SOL    HW296639   5.878   2.026   9.090
98248SOL     OW96640  10.311  12.230  10.957
98248SOL    HW196641  10.274  12.243  11.044
98248SOL    HW296642  10.384  12.169  10.971
98249SOL     OW96643   3.345   8.321  14.252
98249SOL    HW196644   3.381   8.249  14.304
98249SOL    HW296645   3.349   8.397  14.309
98250SOL     OW96646  10.950   3.030   9.565
98250SOL    HW196647  11.005   2.995   9.635
98250SOL    HW296648  11.011   3.053   9.495
98251SOL     OW96649   5.495   5.324   0.064
98251SOL    HW196650   5.458   5.383  14.873
98251SOL    HW296651   5.419   5.284   0.107
98252SOL     OW96652   8.846   5.001  12.569
98252SOL    HW196653   8.777   5.065  12.553
98252SOL    HW296654   8.915   5.022  12.506
98253SOL     OW96655   5.680   2.261   7.426
98253SOL    HW196656   5.706   2.207   7.351
98253SOL    HW296657   5.612   2.210   7.470
98254SOL     OW96658  11.155   9.896   4.657
98254SOL    HW196659  11.179   9.978   4.614
98254SOL    HW296660  11.214   9.830   4.618
98255SOL     OW96661   4.633   7.874   9.516
98255SOL    HW196662   4.688   7.805   9.479
98255SOL    HW296663   4.687   7.953   9.510
98256SOL     OW96664   5.798   9.390   0.631
98256SOL    HW196665   5.861   9.337   0.582
98256SOL    HW296666   5.841   9.405   0.715
98257SOL     OW96667  13.682  14.845   6.923
98257SOL    HW196668  13.607   0.016   6.886
98257SOL    HW296669  13.654  14.753   6.927
98258SOL     OW96670   7.058   1.120   6.058
98258SOL    HW196671   7.098   1.036   6.080
98258SOL    HW296672   6.979   1.123   6.113
98259SOL     OW96673   9.588   4.305   9.050
98259SOL    HW196674   9.534   4.248   8.996
98259SOL    HW296675   9.620   4.372   8.990
98260SOL     OW96676   0.681   6.235   8.661
98260SOL    HW196677   0.730   6.252   8.581
98260SOL    HW296678   0.749   6.224   8.729
98261SOL     OW96679   2.436   3.575   9.687
98261SOL    HW196680   2.521   3.561   9.645
98261SOL    HW296681   2.394   3.643   9.634
98262SOL     OW96682   5.824   3.272   2.513
98262SOL    HW196683   5.817   3.344   2.577
98262SOL    HW296684   5.902   3.224   2.540
98263SOL     OW96685   0.401   2.994  10.092
98263SOL    HW196686   0.343   2.937  10.041
98263SOL    HW296687   0.405   2.953  10.178
98264SOL     OW96688   3.483   3.635  13.255
98264SOL    HW196689   3.483   3.551  13.301
98264SOL    HW296690   3.391   3.651  13.235
98265SOL     OW96691   3.699   1.374   3.297
98265SOL    HW196692   3.790   1.406   3.300
98265SOL    HW296693   3.665   1.390   3.385
98266SOL     OW96694  12.647   9.155   2.702
98266SOL    HW196695  12.695   9.234   2.724
98266SOL    HW296696  12.562   9.166   2.745
98267SOL     OW96697  14.320   3.977   5.056
98267SOL    HW196698  14.375   3.981   5.135
98267SOL    HW296699  14.369   4.026   4.991
98268SOL     OW96700  10.501   2.187   6.427
98268SOL    HW196701  10.592   2.210   6.407
98268SOL    HW296702  10.489   2.215   6.517
98269SOL     OW96703  11.492   1.576  13.913
98269SOL    HW196704  11.460   1.499  13.866
98269SOL    HW296705  11.466   1.562  14.004
98270SOL     OW96706   9.091   4.972  10.960
98270SOL    HW196707   9.128   4.965  11.048
98270SOL    HW296708   9.118   5.059  10.930
98271SOL     OW96709  14.840  13.491   1.824
98271SOL    HW196710   0.011  13.496   1.740
98271SOL    HW296711  14.858  13.403   1.856
98272SOL     OW96712   4.288  12.900   4.788
98272SOL    HW196713   4.195  12.890   4.808
98272SOL    HW296714   4.332  12.879   4.870
98273SOL     OW96715   7.038  14.825   9.716
98273SOL    HW196716   7.115  14.808   9.770
98273SOL    HW296717   6.986   0.012   9.767
98274SOL     OW96718   0.544  12.859   4.531
98274SOL    HW196719   0.523  12.881   4.440
98274SOL    HW296720   0.634  12.827   4.528
98275SOL     OW96721   7.483  11.044   1.301
98275SOL    HW196722   7.544  11.086   1.362
98275SOL    HW296723   7.468  10.957   1.338
98276SOL     OW96724   5.106   6.703   8.885
98276SOL    HW196725   5.047   6.714   8.959
98276SOL    HW296726   5.048   6.700   8.809
98277SOL     OW96727  10.675   0.072  14.334
98277SOL    HW196728  10.678  14.863  14.380
98277SOL    HW296729  10.748   0.122  14.371
98278SOL     OW96730   4.297   7.216  12.620
98278SOL    HW196731   4.242   7.138  12.615
98278SOL    HW296732   4.256   7.270  12.688
98279SOL     OW96733   9.355   5.784  11.420
98279SOL    HW196734   9.333   5.807  11.330
98279SOL    HW296735   9.441   5.743  11.413
98280SOL     OW96736   0.510   4.849   1.363
98280SOL    HW196737   0.498   4.924   1.304
98280SOL    HW296738   0.604   4.848   1.381
98281SOL     OW96739  14.766   7.706   6.612
98281SOL    HW196740  14.836   7.729   6.551
98281SOL    HW296741  14.723   7.629   6.573
98282SOL     OW96742   2.286   3.511   7.633
98282SOL    HW196743   2.204   3.465   7.614
98282SOL    HW296744   2.262   3.573   7.703
98283SOL     OW96745   1.636   0.300  12.732
98283SOL    HW196746   1.559   0.316  12.787
98283SOL    HW296747   1.710   0.308  12.792
98284SOL     OW96748  10.614   4.216   9.393
98284SOL    HW196749  10.603   4.141   9.334
98284SOL    HW296750  10.682   4.269   9.351
98285SOL     OW96751   1.334  11.375  14.783
98285SOL    HW196752   1.401  11.418  14.835
98285SOL    HW296753   1.309  11.298  14.835
98286SOL     OW96754   4.936   1.197   2.310
98286SOL    HW196755   4.903   1.222   2.224
98286SOL    HW296756   5.016   1.148   2.292
98287SOL     OW96757  11.469   0.423   5.910
98287SOL    HW196758  11.429   0.496   5.956
98287SOL    HW296759  11.563   0.431   5.928
98288SOL     OW96760   7.115   0.101   0.361
98288SOL    HW196761   7.059   0.099   0.284
98288SOL    HW296762   7.074   0.166   0.419
98289SOL     OW96763   3.044  12.993   3.877
98289SOL    HW196764   2.974  13.038   3.830
98289SOL    HW296765   3.027  12.900   3.863
98290SOL     OW96766  12.219  12.277   2.188
98290SOL    HW196767  12.221  12.367   2.156
98290SOL    HW296768  12.143  12.237   2.145
98291SOL     OW96769   8.010   0.695  12.153
98291SOL    HW196770   8.081   0.640  12.119
98291SOL    HW296771   7.953   0.634  12.199
98292SOL     OW96772   8.674  10.958   2.114
98292SOL    HW196773   8.599  10.983   2.060
98292SOL    HW296774   8.731  10.910   2.054
98293SOL     OW96775   7.341   2.260   5.514
98293SOL    HW196776   7.333   2.184   5.456
98293SOL    HW296777   7.312   2.334   5.460
98294SOL     OW96778   4.385   2.014  12.962
98294SOL    HW196779   4.296   1.980  12.972
98294SOL    HW296780   4.426   1.956  12.897
98295SOL     OW96781   8.510  14.004   4.081
98295SOL    HW196782   8.424  13.988   4.042
98295SOL    HW296783   8.508  13.956   4.164
98296SOL     OW96784   7.432   0.520   4.696
98296SOL    HW196785   7.383   0.596   4.665
98296SOL    HW296786   7.523   0.548   4.696
98297SOL     OW96787   4.119  13.773   9.548
98297SOL    HW196788   4.154  13.851   9.506
98297SOL    HW296789   4.195  13.730   9.586
98298SOL     OW96790  14.212   2.933  12.176
98298SOL    HW196791  14.266   2.985  12.115
98298SOL    HW296792  14.242   2.960  12.263
98299SOL     OW96793   2.420   5.964  13.425
98299SOL    HW196794   2.416   6.042  13.480
98299SOL    HW296795   2.443   5.998  13.338
98300SOL     OW96796   1.197   2.160   4.161
98300SOL    HW196797   1.261   2.159   4.090
98300SOL    HW296798   1.129   2.220   4.130
98301SOL     OW96799   7.631  14.325  14.447
98301SOL    HW196800   7.668  14.390  14.508
98301SOL    HW296801   7.537  14.344  14.446
98302SOL     OW96802   1.231   5.891   4.777
98302SOL    HW196803   1.206   5.805   4.809
98302SOL    HW296804   1.249   5.877   4.684
98303SOL     OW96805   3.121   8.648   1.982
98303SOL    HW196806   3.112   8.700   2.062
98303SOL    HW296807   3.079   8.700   1.914
98304SOL     OW96808  14.639   5.105   6.766
98304SOL    HW196809  14.583   5.039   6.724
98304SOL    HW296810  14.647   5.076   6.857
98305SOL     OW96811  11.729   8.306   5.596
98305SOL    HW196812  11.727   8.211   5.579
98305SOL    HW296813  11.806   8.336   5.547
98306SOL     OW96814   3.804   8.716   0.265
98306SOL    HW196815   3.869   8.669   0.213
98306SOL    HW296816   3.720   8.689   0.229
98307SOL     OW96817  10.505   2.726   3.529
98307SOL    HW196818  10.474   2.695   3.444
98307SOL    HW296819  10.425   2.732   3.582
98308SOL     OW96820   5.272   9.933  10.622
98308SOL    HW196821   5.195   9.971  10.581
98308SOL    HW296822   5.320  10.008  10.657
98309SOL     OW96823  10.721  12.858   8.079
98309SOL    HW196824  10.816  12.864   8.069
98309SOL    HW296825  10.687  12.914   8.010
98310SOL     OW96826   3.420   0.550   9.649
98310SOL    HW196827   3.417   0.540   9.554
98310SOL    HW296828   3.340   0.598   9.671
98311SOL     OW96829   5.752  11.966   9.086
98311SOL    HW196830   5.735  11.885   9.038
98311SOL    HW296831   5.720  12.035   9.029
98312SOL     OW96832   2.134  11.984   9.908
98312SOL    HW196833   2.126  11.900   9.953
98312SOL    HW296834   2.099  11.968   9.820
98313SOL     OW96835  11.233   1.331   0.940
98313SOL    HW196836  11.194   1.407   0.983
98313SOL    HW296837  11.212   1.257   0.996
98314SOL     OW96838   0.457  13.958  14.571
98314SOL    HW196839   0.364  13.934  14.568
98314SOL    HW296840   0.485  13.935  14.660
98315SOL     OW96841  14.349  11.629   4.973
98315SOL    HW196842  14.327  11.619   5.066
98315SOL    HW296843  14.266  11.616   4.927
98316SOL     OW96844   2.012   9.870   4.487
98316SOL    HW196845   2.091   9.924   4.486
98316SOL    HW296846   2.033   9.798   4.548
98317SOL     OW96847   4.480   0.371   4.771
98317SOL    HW196848   4.498   0.333   4.857
98317SOL    HW296849   4.391   0.342   4.749
98318SOL     OW96850  12.864  14.423  12.065
98318SOL    HW196851  12.945  14.380  12.038
98318SOL    HW296852  12.859  14.501  12.010
98319SOL     OW96853   6.691   6.924  14.057
98319SOL    HW196854   6.661   6.850  14.005
98319SOL    HW296855   6.681   6.894  14.148
98320SOL     OW96856  10.670   0.816  10.946
98320SOL    HW196857  10.633   0.732  10.972
98320SOL    HW296858  10.652   0.822  10.852
98321SOL     OW96859   8.198   1.890  10.915
98321SOL    HW196860   8.191   1.901  10.820
98321SOL    HW296861   8.167   1.801  10.931
98322SOL     OW96862  10.355  11.669   5.274
98322SOL    HW196863  10.331  11.595   5.330
98322SOL    HW296864  10.420  11.718   5.324
98323SOL     OW96865   0.016  10.515   9.581
98323SOL    HW196866  14.799  10.540   9.587
98323SOL    HW296867   0.018  10.424   9.609
98324SOL     OW96868  13.078   7.320   8.782
98324SOL    HW196869  13.087   7.363   8.697
98324SOL    HW296870  13.100   7.228   8.764
98325SOL     OW96871  14.168   8.175   6.866
98325SOL    HW196872  14.204   8.110   6.926
98325SOL    HW296873  14.083   8.138   6.840
98326SOL     OW96874   7.809   9.528   2.317
98326SOL    HW196875   7.804   9.458   2.252
98326SOL    HW296876   7.789   9.484   2.400
98327SOL     OW96877   1.287  13.096   3.100
98327SOL    HW196878   1.195  13.072   3.085
98327SOL    HW296879   1.287  13.134   3.188
98328SOL     OW96880   1.116   3.173  13.606
98328SOL    HW196881   1.091   3.263  13.627
98328SOL    HW296882   1.198   3.182  13.558
98329SOL     OW96883   1.375   4.280  14.770
98329SOL    HW196884   1.434   4.351  14.794
98329SOL    HW296885   1.339   4.307  14.685
98330SOL     OW96886   8.612   7.788   0.134
98330SOL    HW196887   8.522   7.820   0.140
98330SOL    HW296888   8.603   7.693   0.121
98331SOL     OW96889  14.173   5.259   1.955
98331SOL    HW196890  14.226   5.337   1.970
98331SOL    HW296891  14.142   5.234   2.043
98332SOL     OW96892  14.719   1.924  12.788
98332SOL    HW196893  14.628   1.907  12.814
98332SOL    HW296894  14.718   1.918  12.693
98333SOL     OW96895   7.164   2.852   9.967
98333SOL    HW196896   7.073   2.868   9.941
98333SOL    HW296897   7.215   2.917   9.918
98334SOL     OW96898   2.595   2.603   8.435
98334SOL    HW196899   2.567   2.522   8.394
98334SOL    HW296900   2.658   2.576   8.502
98335SOL     OW96901   0.947   7.900  10.717
98335SOL    HW196902   0.900   7.951  10.651
98335SOL    HW296903   0.925   7.809  10.699
98336SOL     OW96904   7.715   7.765   2.582
98336SOL    HW196905   7.666   7.795   2.658
98336SOL    HW296906   7.649   7.721   2.527
98337SOL     OW96907  13.922   7.875   1.231
98337SOL    HW196908  13.839   7.884   1.184
98337SOL    HW296909  13.984   7.929   1.181
98338SOL     OW96910   2.555  13.227  14.242
98338SOL    HW196911   2.561  13.137  14.274
98338SOL    HW296912   2.581  13.280  14.317
98339SOL     OW96913  14.769   8.872  14.145
98339SOL    HW196914  14.697   8.925  14.180
98339SOL    HW296915  14.765   8.885  14.050
98340SOL     OW96916  11.209   7.491  12.719
98340SOL    HW196917  11.300   7.503  12.693
98340SOL    HW296918  11.165   7.572  12.693
98341SOL     OW96919   1.941   0.400   2.516
98341SOL    HW196920   1.951   0.467   2.449
98341SOL    HW296921   2.004   0.332   2.490
98342SOL     OW96922  12.062  11.329   5.402
98342SOL    HW196923  12.074  11.359   5.312
98342SOL    HW296924  12.108  11.394   5.455
98343SOL     OW96925   8.487  10.496   6.011
98343SOL    HW196926   8.526  10.583   5.998
98343SOL    HW296927   8.436  10.480   5.932
98344SOL     OW96928  12.899   4.759  13.202
98344SOL    HW196929  12.850   4.794  13.277
98344SOL    HW296930  12.950   4.687  13.238
98345SOL     OW96931  13.802   4.402   4.887
98345SOL    HW196932  13.819   4.313   4.918
98345SOL    HW296933  13.786   4.453   4.967
98346SOL     OW96934  11.960  11.559   7.817
98346SOL    HW196935  11.979  11.489   7.754
98346SOL    HW296936  12.001  11.530   7.898
98347SOL     OW96937   2.535   8.588   0.246
98347SOL    HW196938   2.608   8.569   0.306
98347SOL    HW296939   2.481   8.509   0.248
98348SOL     OW96940   9.399   5.124  14.727
98348SOL    HW196941   9.416   5.215  14.751
98348SOL    HW296942   9.456   5.107  14.652
98349SOL     OW96943  11.177   0.730   2.156
98349SOL    HW196944  11.267   0.759   2.145
98349SOL    HW296945  11.182   0.634   2.154
98350SOL     OW96946   0.298   4.749   1.850
98350SOL    HW196947   0.227   4.686   1.836
98350SOL    HW296948   0.346   4.748   1.767
98351SOL     OW96949   4.496   7.131   5.197
98351SOL    HW196950   4.560   7.107   5.264
98351SOL    HW296951   4.471   7.221   5.219
98352SOL     OW96952   2.024   2.845   1.863
98352SOL    HW196953   2.058   2.814   1.947
98352SOL    HW296954   2.069   2.792   1.797
98353SOL     OW96955  13.866   9.914   8.938
98353SOL    HW196956  13.824   9.924   9.023
98353SOL    HW296957  13.925   9.839   8.949
98354SOL     OW96958   5.812   4.054  11.609
98354SOL    HW196959   5.869   4.105  11.551
98354SOL    HW296960   5.750   4.011  11.550
98355SOL     OW96961   1.681  10.003  12.256
98355SOL    HW196962   1.589  10.006  12.229
98355SOL    HW296963   1.720   9.935  12.201
98356SOL     OW96964   2.648   8.007   1.066
98356SOL    HW196965   2.655   8.100   1.088
98356SOL    HW296966   2.733   7.986   1.026
98357SOL     OW96967   3.361   3.168   4.238
98357SOL    HW196968   3.282   3.160   4.290
98357SOL    HW296969   3.410   3.240   4.278
98358SOL     OW96970   4.273   9.140  10.477
98358SOL    HW196971   4.266   9.056  10.431
98358SOL    HW296972   4.251   9.119  10.568
98359SOL     OW96973  13.987  10.687   6.845
98359SOL    HW196974  14.049  10.691   6.918
98359SOL    HW296975  14.036  10.645   6.774
98360SOL     OW96976   3.014   9.900   4.413
98360SOL    HW196977   3.025   9.939   4.500
98360SOL    HW296978   2.984   9.811   4.430
98361SOL     OW96979   6.484   1.019   2.710
98361SOL    HW196980   6.399   0.987   2.679
98361SOL    HW296981   6.475   1.022   2.806
98362SOL     OW96982  13.853  10.247   8.608
98362SOL    HW196983  13.798  10.275   8.681
98362SOL    HW296984  13.923  10.312   8.605
98363SOL     OW96985  10.815  11.831   2.319
98363SOL    HW196986  10.723  11.806   2.310
98363SOL    HW296987  10.864  11.758   2.282
98364SOL     OW96988  12.145  11.157   7.408
98364SOL    HW196989  12.139  11.062   7.422
98364SOL    HW296990  12.211  11.166   7.339
98365SOL     OW96991   1.522   4.022   4.580
98365SOL    HW196992   1.455   3.973   4.533
98365SOL    HW296993   1.507   4.003   4.672
98366SOL     OW96994  10.296   4.389   9.836
98366SOL    HW196995  10.352   4.418   9.908
98366SOL    HW296996  10.305   4.294   9.836
98367SOL     OW96997   5.726   6.943  11.989
98367SOL    HW196998   5.791   7.013  11.985
98367SOL    HW296999   5.762   6.879  12.049
98368SOL     OW97000   0.260   0.216  13.847
98368SOL    HW197001   0.200   0.228  13.774
98368SOL    HW297002   0.235   0.132  13.886
98369SOL     OW97003   4.154  13.526   4.124
98369SOL    HW197004   4.234  13.523   4.073
98369SOL    HW297005   4.177  13.575   4.202
98370SOL     OW97006   5.870   3.790   6.646
98370SOL    HW197007   5.805   3.786   6.716
98370SOL    HW297008   5.924   3.712   6.658
98371SOL     OW97009   2.961   3.796   9.583
98371SOL    HW197010   2.869   3.778   9.566
98371SOL    HW297011   2.997   3.820   9.497
98372SOL     OW97012   3.344   0.630  11.766
98372SOL    HW197013   3.273   0.659  11.709
98372SOL    HW297014   3.391   0.711  11.787
98373SOL     OW97015   0.681  13.274   7.863
98373SOL    HW197016   0.680  13.274   7.767
98373SOL    HW297017   0.722  13.357   7.886
98374SOL     OW97018   5.346   5.308   4.636
98374SOL    HW197019   5.326   5.264   4.718
98374SOL    HW297020   5.267   5.358   4.615
98375SOL     OW97021  14.114   6.707   4.100
98375SOL    HW197022  14.062   6.751   4.168
98375SOL    HW297023  14.099   6.758   4.021
98376SOL     OW97024   5.400  12.743   1.254
98376SOL    HW197025   5.462  12.773   1.320
98376SOL    HW297026   5.417  12.650   1.245
98377SOL     OW97027   5.856   1.144  10.501
98377SOL    HW197028   5.890   1.174  10.417
98377SOL    HW297029   5.773   1.102  10.480
98378SOL     OW97030   4.123   0.323  14.147
98378SOL    HW197031   4.150   0.391  14.085
98378SOL    HW297032   4.038   0.353  14.180
98379SOL     OW97033   0.935   3.495  12.266
98379SOL    HW197034   0.976   3.529  12.186
98379SOL    HW297035   0.843   3.482  12.241
98380SOL     OW97036   8.998  14.563   8.652
98380SOL    HW197037   9.018  14.595   8.740
98380SOL    HW297038   8.934  14.626   8.618
98381SOL     OW97039  13.787   4.835  13.587
98381SOL    HW197040  13.848   4.790  13.645
98381SOL    HW297041  13.813   4.927  13.591
98382SOL     OW97042   9.443   2.943   2.011
98382SOL    HW197043   9.459   2.860   2.055
98382SOL    HW297044   9.528   2.987   2.012
98383SOL     OW97045  10.807   3.650   2.813
98383SOL    HW197046  10.726   3.644   2.864
98383SOL    HW297047  10.805   3.572   2.757
98384SOL     OW97048  10.657  14.684  11.072
98384SOL    HW197049  10.703  14.606  11.101
98384SOL    HW297050  10.717  14.727  11.011
98385SOL     OW97051  12.746   1.990   4.299
98385SOL    HW197052  12.838   1.965   4.289
98385SOL    HW297053  12.724   1.965   4.389
98386SOL     OW97054   6.560   9.691   9.740
98386SOL    HW197055   6.581   9.769   9.688
98386SOL    HW297056   6.469   9.672   9.718
98387SOL     OW97057   0.856  14.462  13.801
98387SOL    HW197058   0.818  14.482  13.715
98387SOL    HW297059   0.908  14.539  13.823
98388SOL     OW97060   5.649   5.592  10.835
98388SOL    HW197061   5.562   5.609  10.870
98388SOL    HW297062   5.637   5.588  10.740
98389SOL     OW97063   2.571   8.905  11.203
98389SOL    HW197064   2.618   8.927  11.284
98389SOL    HW297065   2.574   8.985  11.151
98390SOL     OW97066   5.349   4.659  13.642
98390SOL    HW197067   5.344   4.708  13.560
98390SOL    HW297068   5.430   4.690  13.683
98391SOL     OW97069  13.630   5.159   7.518
98391SOL    HW197070  13.680   5.240   7.530
98391SOL    HW297071  13.624   5.149   7.423
98392SOL     OW97072   9.992   1.155   9.026
98392SOL    HW197073   9.956   1.069   9.006
98392SOL    HW297074   9.930   1.195   9.087
98393SOL     OW97075  12.522  10.082   2.789
98393SOL    HW197076  12.582  10.151   2.760
98393SOL    HW297077  12.572  10.001   2.779
98394SOL     OW97078  10.396   7.360  10.259
98394SOL    HW197079  10.435   7.274  10.276
98394SOL    HW297080  10.469   7.414  10.229
98395SOL     OW97081   7.004   6.902   7.634
98395SOL    HW197082   7.098   6.907   7.623
98395SOL    HW297083   6.976   6.833   7.573
98396SOL     OW97084   4.936   5.830  12.365
98396SOL    HW197085   5.023   5.871  12.366
98396SOL    HW297086   4.950   5.746  12.322
98397SOL     OW97087   7.606   9.459  11.047
98397SOL    HW197088   7.530   9.511  11.073
98397SOL    HW297089   7.598   9.378  11.097
98398SOL     OW97090  10.056   0.611  14.215
98398SOL    HW197091   9.995   0.612  14.140
98398SOL    HW297092  10.067   0.704  14.237
98399SOL     OW97093   7.642   5.313   1.835
98399SOL    HW197094   7.654   5.393   1.886
98399SOL    HW297095   7.561   5.275   1.870
98400SOL     OW97096   6.226   9.595   9.311
98400SOL    HW197097   6.231   9.523   9.373
98400SOL    HW297098   6.152   9.573   9.255
98401SOL     OW97099  11.304   6.631   4.302
98401SOL    HW197100  11.218   6.613   4.264
98401SOL    HW297101  11.302   6.585   4.387
98402SOL     OW97102  11.561   7.943   3.028
98402SOL    HW197103  11.537   8.035   3.030
98402SOL    HW297104  11.613   7.930   3.108
98403SOL     OW97105   8.034   8.626   2.831
98403SOL    HW197106   8.125   8.601   2.816
98403SOL    HW297107   8.037   8.683   2.908
98404SOL     OW97108   0.392   8.980   8.135
98404SOL    HW197109   0.365   8.889   8.127
98404SOL    HW297110   0.311   9.030   8.127
98405SOL     OW97111  13.954   1.910   8.013
98405SOL    HW197112  13.977   1.931   8.104
98405SOL    HW297113  13.887   1.841   8.021
98406SOL     OW97114  11.727   1.269   0.990
98406SOL    HW197115  11.778   1.215   1.051
98406SOL    HW297116  11.750   1.359   1.013
98407SOL     OW97117  10.632   3.174  13.688
98407SOL    HW197118  10.565   3.116  13.726
98407SOL    HW297119  10.679   3.119  13.626
98408SOL     OW97120   6.636   3.539   0.534
98408SOL    HW197121   6.678   3.502   0.612
98408SOL    HW297122   6.593   3.618   0.566
98409SOL     OW97123   5.986   7.794  12.907
98409SOL    HW197124   5.949   7.775  12.821
98409SOL    HW297125   6.074   7.756  12.904
98410SOL     OW97126   3.212   0.210  13.553
98410SOL    HW197127   3.147   0.140  13.548
98410SOL    HW297128   3.184   0.274  13.488
98411SOL     OW97129   7.031   1.458   0.959
98411SOL    HW197130   7.091   1.384   0.969
98411SOL    HW297131   6.949   1.429   0.998
98412SOL     OW97132   5.828   5.351   5.867
98412SOL    HW197133   5.918   5.376   5.886
98412SOL    HW297134   5.783   5.434   5.851
98413SOL     OW97135   4.402  14.719   7.224
98413SOL    HW197136   4.413  14.803   7.180
98413SOL    HW297137   4.308  14.712   7.241
98414SOL     OW97138   8.896  12.367   4.820
98414SOL    HW197139   8.904  12.319   4.903
98414SOL    HW297140   8.808  12.347   4.789
98415SOL     OW97141   5.669   6.732   0.039
98415SOL    HW197142   5.623   6.731   0.122
98415SOL    HW297143   5.648   6.648  14.873
98416SOL     OW97144   8.544   1.905  13.991
98416SOL    HW197145   8.531   1.974  13.926
98416SOL    HW297146   8.573   1.951  14.069
98417SOL     OW97147  14.021   4.955  11.843
98417SOL    HW197148  13.980   4.880  11.887
98417SOL    HW297149  14.002   5.029  11.901
98418SOL     OW97150  14.064   8.032   1.037
98418SOL    HW197151  14.071   8.008   0.945
98418SOL    HW297152  14.153   8.022   1.072
98419SOL     OW97153   8.692   6.993   3.085
98419SOL    HW197154   8.726   6.904   3.075
98419SOL    HW297155   8.621   6.985   3.148
98420SOL     OW97156   3.099   8.974   6.393
98420SOL    HW197157   3.161   9.020   6.336
98420SOL    HW297158   3.059   9.044   6.445
98421SOL     OW97159   4.668  11.596   7.025
98421SOL    HW197160   4.673  11.500   7.022
98421SOL    HW297161   4.693  11.624   6.937
98422SOL     OW97162  10.160   4.034   9.576
98422SOL    HW197163  10.238   4.082   9.547
98422SOL    HW297164  10.100   4.102   9.608
98423SOL     OW97165   7.455  11.997   5.538
98423SOL    HW197166   7.368  11.984   5.575
98423SOL    HW297167   7.472  11.918   5.487
98424SOL     OW97168   4.291  11.061  11.134
98424SOL    HW197169   4.228  11.104  11.077
98424SOL    HW297170   4.241  11.035  11.211
98425SOL     OW97171   3.281   0.112   1.108
98425SOL    HW197172   3.372   0.132   1.088
98425SOL    HW297173   3.279   0.018   1.122
98426SOL     OW97174   6.335   2.767   6.069
98426SOL    HW197175   6.360   2.810   6.151
98426SOL    HW297176   6.250   2.804   6.046
98427SOL     OW97177   6.919  13.583   0.010
98427SOL    HW197178   6.913  13.641   0.086
98427SOL    HW297179   6.892  13.497   0.042
98428SOL     OW97180  14.397  10.195  10.426
98428SOL    HW197181  14.353  10.122  10.470
98428SOL    HW297182  14.435  10.247  10.496
98429SOL     OW97183   2.521   1.682   5.110
98429SOL    HW197184   2.431   1.708   5.094
98429SOL    HW297185   2.552   1.742   5.178
98430SOL     OW97186   2.479   2.319   4.284
98430SOL    HW197187   2.388   2.305   4.257
98430SOL    HW297188   2.509   2.391   4.228
98431SOL     OW97189  12.158   6.489  11.256
98431SOL    HW197190  12.215   6.436  11.200
98431SOL    HW297191  12.092   6.524  11.197
98432SOL     OW97192  11.744   2.351   8.623
98432SOL    HW197193  11.726   2.258   8.608
98432SOL    HW297194  11.818   2.353   8.683
98433SOL     OW97195   6.474   9.554   4.668
98433SOL    HW197196   6.555   9.504   4.664
98433SOL    HW297197   6.502   9.644   4.686
98434SOL     OW97198   1.594   4.985   7.059
98434SOL    HW197199   1.682   4.953   7.078
98434SOL    HW297200   1.608   5.074   7.026
98435SOL     OW97201   9.342   4.136  13.300
98435SOL    HW197202   9.410   4.152  13.234
98435SOL    HW297203   9.260   4.161  13.257
98436SOL     OW97204  11.374   4.860   1.314
98436SOL    HW197205  11.444   4.853   1.249
98436SOL    HW297206  11.298   4.887   1.264
98437SOL     OW97207  11.974   7.537   3.936
98437SOL    HW197208  11.986   7.471   4.004
98437SOL    HW297209  12.047   7.598   3.948
98438SOL     OW97210   5.433   1.834   9.604
98438SOL    HW197211   5.455   1.909   9.659
98438SOL    HW297212   5.516   1.809   9.563
98439SOL     OW97213   2.561   1.713   8.887
98439SOL    HW197214   2.564   1.795   8.838
98439SOL    HW297215   2.476   1.713   8.930
98440SOL     OW97216   5.297   6.790  13.551
98440SOL    HW197217   5.270   6.808  13.641
98440SOL    HW297218   5.215   6.774  13.504
98441SOL     OW97219  11.494   5.859  13.329
98441SOL    HW197220  11.471   5.912  13.406
98441SOL    HW297221  11.410   5.844  13.285
98442SOL     OW97222   9.758  11.847   3.831
98442SOL    HW197223   9.736  11.930   3.788
98442SOL    HW297224   9.854  11.847   3.832
98443SOL     OW97225   8.109   6.313   5.836
98443SOL    HW197226   8.116   6.225   5.798
98443SOL    HW297227   8.172   6.312   5.908
98444SOL     OW97228  10.637   8.649  11.986
98444SOL    HW197229  10.552   8.655  12.030
98444SOL    HW297230  10.637   8.564  11.944
98445SOL     OW97231   0.321   2.897  11.888
98445SOL    HW197232   0.238   2.900  11.842
98445SOL    HW297233   0.310   2.829  11.955
98446SOL     OW97234   1.036  14.049  10.143
98446SOL    HW197235   1.125  14.059  10.110
98446SOL    HW297236   1.044  14.059  10.238
98447SOL     OW97237   8.104   7.847   6.891
98447SOL    HW197238   8.199   7.843   6.892
98447SOL    HW297239   8.084   7.939   6.871
98448SOL     OW97240   5.544   4.042   5.835
98448SOL    HW197241   5.555   4.132   5.866
98448SOL    HW297242   5.461   4.043   5.787
98449SOL     OW97243   3.090   7.122  13.180
98449SOL    HW197244   3.051   7.208  13.194
98449SOL    HW297245   3.021   7.070  13.138
98450SOL     OW97246  13.374   3.129   4.317
98450SOL    HW197247  13.444   3.080   4.274
98450SOL    HW297248  13.416   3.172   4.391
98451SOL     OW97249  13.591   7.688   3.854
98451SOL    HW197250  13.677   7.650   3.868
98451SOL    HW297251  13.532   7.613   3.849
98452SOL     OW97252   4.545   9.307   7.478
98452SOL    HW197253   4.518   9.335   7.391
98452SOL    HW297254   4.543   9.386   7.532
98453SOL     OW97255  13.049   2.486   0.671
98453SOL    HW197256  12.979   2.470   0.608
98453SOL    HW297257  13.008   2.537   0.740
98454SOL     OW97258   1.557  10.934  11.799
98454SOL    HW197259   1.487  10.980  11.753
98454SOL    HW297260   1.615  11.003  11.830
98455SOL     OW97261  14.173   9.467   1.232
98455SOL    HW197262  14.142   9.414   1.158
98455SOL    HW297263  14.237   9.411   1.275
98456SOL     OW97264   7.156   3.879  12.568
98456SOL    HW197265   7.159   3.827  12.648
98456SOL    HW297266   7.072   3.856  12.527
98457SOL     OW97267  11.949   4.205  11.891
98457SOL    HW197268  12.002   4.213  11.812
98457SOL    HW297269  11.866   4.247  11.868
98458SOL     OW97270   5.534   2.855   1.682
98458SOL    HW197271   5.538   2.933   1.627
98458SOL    HW297272   5.625   2.829   1.694
98459SOL     OW97273  10.366   8.671   0.107
98459SOL    HW197274  10.380   8.587   0.064
98459SOL    HW297275  10.280   8.700   0.077
98460SOL     OW97276   4.370   0.231   2.177
98460SOL    HW197277   4.294   0.232   2.119
98460SOL    HW297278   4.333   0.242   2.265
98461SOL     OW97279   4.086  11.565   0.035
98461SOL    HW197280   3.998  11.584   0.004
98461SOL    HW297281   4.076  11.491   0.094
98462SOL     OW97282   1.845   4.995  11.481
98462SOL    HW197283   1.933   4.967  11.456
98462SOL    HW297284   1.792   4.916  11.478
98463SOL     OW97285   1.405   3.199   4.433
98463SOL    HW197286   1.452   3.116   4.445
98463SOL    HW297287   1.345   3.203   4.508
98464SOL     OW97288   9.873   2.697   9.842
98464SOL    HW197289   9.804   2.633   9.826
98464SOL    HW297290   9.924   2.660   9.914
98465SOL     OW97291  14.451   8.790  10.771
98465SOL    HW197292  14.435   8.698  10.749
98465SOL    HW297293  14.364   8.825  10.791
98466SOL     OW97294   9.805   9.931   6.842
98466SOL    HW197295   9.858   9.853   6.827
98466SOL    HW297296   9.867  10.003   6.847
98467SOL     OW97297   7.171  12.260   4.624
98467SOL    HW197298   7.156  12.167   4.609
98467SOL    HW297299   7.107  12.304   4.568
98468SOL     OW97300   9.368   4.159   5.347
98468SOL    HW197301   9.316   4.190   5.421
98468SOL    HW297302   9.457   4.152   5.381
98469SOL     OW97303   6.620  10.669  10.050
98469SOL    HW197304   6.601  10.637   9.962
98469SOL    HW297305   6.555  10.738  10.065
98470SOL     OW97306  10.292   7.437   9.347
98470SOL    HW197307  10.223   7.478   9.297
98470SOL    HW297308  10.314   7.500   9.416
98471SOL     OW97309   1.225  13.606   7.813
98471SOL    HW197310   1.181  13.536   7.860
98471SOL    HW297311   1.162  13.636   7.748
98472SOL     OW97312   4.089  12.571  11.810
98472SOL    HW197313   4.015  12.573  11.871
98472SOL    HW297314   4.072  12.644  11.750
98473SOL     OW97315   7.559   1.211   5.218
98473SOL    HW197316   7.566   1.306   5.206
98473SOL    HW297317   7.555   1.199   5.313
98474SOL     OW97318   1.036   6.189   2.058
98474SOL    HW197319   1.065   6.278   2.037
98474SOL    HW297320   0.940   6.195   2.059
98475SOL     OW97321   2.922   6.113  13.888
98475SOL    HW197322   2.939   6.124  13.794
98475SOL    HW297323   2.916   6.202  13.922
98476SOL     OW97324   5.972   6.026   8.370
98476SOL    HW197325   6.007   6.075   8.445
98476SOL    HW297326   6.012   5.939   8.379
98477SOL     OW97327   0.785   9.737   2.369
98477SOL    HW197328   0.797   9.781   2.453
98477SOL    HW297329   0.776   9.645   2.391
98478SOL     OW97330   5.790  12.720   7.556
98478SOL    HW197331   5.868  12.673   7.585
98478SOL    HW297332   5.731  12.652   7.523
98479SOL     OW97333   7.632   2.833   7.772
98479SOL    HW197334   7.672   2.891   7.707
98479SOL    HW297335   7.705   2.802   7.826
98480SOL     OW97336  11.673   9.268  10.752
98480SOL    HW197337  11.658   9.174  10.743
98480SOL    HW297338  11.585   9.306  10.753
98481SOL     OW97339  10.029  14.803  14.545
98481SOL    HW197340  10.081   0.004  14.572
98481SOL    HW297341   9.941  14.820  14.580
98482SOL     OW97342  13.252   0.342   6.058
98482SOL    HW197343  13.258   0.323   6.152
98482SOL    HW297344  13.338   0.319   6.023
98483SOL     OW97345   4.020   2.859   0.632
98483SOL    HW197346   3.993   2.951   0.641
98483SOL    HW297347   3.988   2.834   0.545
98484SOL     OW97348  10.569   2.271   8.283
98484SOL    HW197349  10.610   2.186   8.265
98484SOL    HW297350  10.590   2.324   8.206
98485SOL     OW97351   9.645  14.469  13.280
98485SOL    HW197352   9.718  14.530  13.289
98485SOL    HW297353   9.596  14.502  13.205
98486SOL     OW97354  14.767   4.364   9.440
98486SOL    HW197355  14.696   4.375   9.502
98486SOL    HW297356  14.760   4.440   9.382
98487SOL     OW97357   6.465  12.361   9.303
98487SOL    HW197358   6.484  12.282   9.354
98487SOL    HW297359   6.380  12.390   9.335
98488SOL     OW97360   0.794   2.730  14.669
98488SOL    HW197361   0.724   2.793  14.687
98488SOL    HW297362   0.813   2.691  14.755
98489SOL     OW97363  12.085  11.835  12.058
98489SOL    HW197364  12.111  11.878  12.139
98489SOL    HW297365  12.168  11.816  12.013
98490SOL     OW97366   6.425  11.055  10.354
98490SOL    HW197367   6.342  11.078  10.314
98490SOL    HW297368   6.469  11.139  10.368
98491SOL     OW97369   1.122   3.114  11.048
98491SOL    HW197370   1.186   3.172  11.008
98491SOL    HW297371   1.063   3.172  11.096
98492SOL     OW97372  14.833  10.766   2.153
98492SOL    HW197373  14.852  10.690   2.099
98492SOL    HW297374   0.044  10.799   2.180
98493SOL     OW97375  10.197   4.384   4.858
98493SOL    HW197376  10.256   4.387   4.934
98493SOL    HW297377  10.176   4.476   4.842
98494SOL     OW97378   6.043   6.331   1.094
98494SOL    HW197379   6.084   6.279   1.025
98494SOL    HW297380   6.043   6.420   1.060
98495SOL     OW97381  10.200  14.372   3.729
98495SOL    HW197382  10.161  14.324   3.802
98495SOL    HW297383  10.129  14.382   3.666
98496SOL     OW97384   9.066   0.241   2.383
98496SOL    HW197385   9.059   0.180   2.310
98496SOL    HW297386   8.999   0.307   2.367
98497SOL     OW97387  12.375  12.454   7.443
98497SOL    HW197388  12.448  12.423   7.390
98497SOL    HW297389  12.401  12.541   7.472
98498SOL     OW97390  11.455   3.492   2.280
98498SOL    HW197391  11.460   3.400   2.305
98498SOL    HW297392  11.507   3.538   2.346
98499SOL     OW97393  13.317   8.002  13.907
98499SOL    HW197394  13.246   8.057  13.942
98499SOL    HW297395  13.396   8.039  13.945
98500SOL     OW97396   8.751  10.525   1.921
98500SOL    HW197397   8.809  10.600   1.920
98500SOL    HW297398   8.681  10.548   1.859
98501SOL     OW97399   6.923   2.551  14.614
98501SOL    HW197400   6.855   2.562  14.681
98501SOL    HW297401   6.989   2.617  14.635
98502SOL     OW97402  13.741   3.806   7.374
98502SOL    HW197403  13.658   3.828   7.331
98502SOL    HW297404  13.716   3.761   7.454
98503SOL     OW97405   3.522  13.114   3.688
98503SOL    HW197406   3.431  13.108   3.718
98503SOL    HW297407   3.517  13.098   3.593
98504SOL     OW97408   9.384   8.899  11.807
98504SOL    HW197409   9.396   8.928  11.717
98504SOL    HW297410   9.296   8.861  11.808
98505SOL     OW97411  13.493   6.830   4.504
98505SOL    HW197412  13.578   6.791   4.523
98505SOL    HW297413  13.509   6.888   4.429
98506SOL     OW97414  11.147  10.717  11.368
98506SOL    HW197415  11.128  10.717  11.462
98506SOL    HW297416  11.129  10.627  11.341
98507SOL     OW97417  13.697   8.074   8.804
98507SOL    HW197418  13.625   8.053   8.743
98507SOL    HW297419  13.760   8.122   8.751
98508SOL     OW97420   4.857   7.698  14.305
98508SOL    HW197421   4.808   7.777  14.284
98508SOL    HW297422   4.799   7.648  14.364
98509SOL     OW97423   4.366  12.510   3.839
98509SOL    HW197424   4.385  12.426   3.880
98509SOL    HW297425   4.389  12.575   3.905
98510SOL     OW97426  14.625   9.168  12.142
98510SOL    HW197427  14.565   9.182  12.215
98510SOL    HW297428  14.597   9.230  12.075
98511SOL     OW97429   1.566   3.750   3.101
98511SOL    HW197430   1.652   3.728   3.065
98511SOL    HW297431   1.523   3.666   3.113
98512SOL     OW97432   1.987   7.050  10.734
98512SOL    HW197433   2.046   7.065  10.660
98512SOL    HW297434   1.906   7.019  10.694
98513SOL     OW97435   7.283   7.422   5.628
98513SOL    HW197436   7.377   7.427   5.650
98513SOL    HW297437   7.258   7.332   5.648
98514SOL     OW97438  14.586  13.941   8.997
98514SOL    HW197439  14.577  13.847   9.015
98514SOL    HW297440  14.523  13.957   8.926
98515SOL     OW97441  12.083   2.291   0.959
98515SOL    HW197442  12.134   2.369   0.979
98515SOL    HW297443  12.016   2.288   1.027
98516SOL     OW97444   6.514   2.356  14.609
98516SOL    HW197445   6.420   2.365  14.628
98516SOL    HW297446   6.534   2.431  14.553
98517SOL     OW97447  14.099   2.558   2.171
98517SOL    HW197448  14.144   2.641   2.189
98517SOL    HW297449  14.130   2.499   2.240
98518SOL     OW97450  12.776   8.309  13.520
98518SOL    HW197451  12.694   8.354  13.542
98518SOL    HW297452  12.749   8.222  13.491
98519SOL     OW97453   0.096   6.323  11.286
98519SOL    HW197454   0.179   6.278  11.303
98519SOL    HW297455   0.095   6.338  11.192
98520SOL     OW97456   1.515   4.047   5.120
98520SOL    HW197457   1.492   4.006   5.203
98520SOL    HW297458   1.598   4.091   5.136
98521SOL     OW97459   8.704  13.776   5.944
98521SOL    HW197460   8.636  13.826   5.900
98521SOL    HW297461   8.671  13.764   6.033
98522SOL     OW97462   4.695   1.266   4.008
98522SOL    HW197463   4.720   1.265   3.916
98522SOL    HW297464   4.777   1.252   4.055
98523SOL     OW97465   1.007   3.315  12.850
98523SOL    HW197466   0.990   3.401  12.812
98523SOL    HW297467   1.004   3.329  12.945
98524SOL     OW97468   2.050  13.953   1.967
98524SOL    HW197469   2.036  14.047   1.967
98524SOL    HW297470   1.994  13.920   1.896
98525SOL     OW97471   7.252  10.922   5.115
98525SOL    HW197472   7.220  11.011   5.132
98525SOL    HW297473   7.196  10.866   5.168
98526SOL     OW97474   7.164   1.778  10.212
98526SOL    HW197475   7.108   1.811  10.142
98526SOL    HW297476   7.233   1.730  10.166
98527SOL     OW97477   1.440   0.880  13.040
98527SOL    HW197478   1.433   0.913  12.950
98527SOL    HW297479   1.462   0.958  13.091
98528SOL     OW97480   0.441   9.826   2.646
98528SOL    HW197481   0.494   9.754   2.679
98528SOL    HW297482   0.419   9.801   2.556
98529SOL     OW97483   7.854   1.942   0.091
98529SOL    HW197484   7.860   2.037   0.103
98529SOL    HW297485   7.800   1.912   0.165
98530SOL     OW97486  13.220   5.882   5.858
98530SOL    HW197487  13.236   5.819   5.788
98530SOL    HW297488  13.197   5.963   5.813
98531SOL     OW97489   5.712   9.889   5.857
98531SOL    HW197490   5.624   9.916   5.832
98531SOL    HW297491   5.769   9.925   5.789
98532SOL     OW97492   7.225   8.902  13.851
98532SOL    HW197493   7.279   8.874  13.778
98532SOL    HW297494   7.145   8.851  13.843
98533SOL     OW97495  14.265   4.709   2.184
98533SOL    HW197496  14.205   4.659   2.130
98533SOL    HW297497  14.265   4.797   2.146
98534SOL     OW97498  11.570   6.421   4.387
98534SOL    HW197499  11.588   6.478   4.312
98534SOL    HW297500  11.514   6.474   4.444
98535SOL     OW97501  10.473   0.080   3.958
98535SOL    HW197502  10.418   0.078   4.036
98535SOL    HW297503  10.448   0.160   3.913
98536SOL     OW97504   9.405   5.786   0.800
98536SOL    HW197505   9.326   5.737   0.826
98536SOL    HW297506   9.477   5.727   0.819
98537SOL     OW97507  10.941   4.861   5.255
98537SOL    HW197508  10.957   4.828   5.166
98537SOL    HW297509  10.848   4.843   5.270
98538SOL     OW97510   8.260   2.991   3.699
98538SOL    HW197511   8.280   2.925   3.632
98538SOL    HW297512   8.328   3.057   3.690
98539SOL     OW97513   2.150   6.350  12.145
98539SOL    HW197514   2.240   6.370  12.174
98539SOL    HW297515   2.096   6.416  12.188
98540SOL     OW97516  11.981  11.083  12.801
98540SOL    HW197517  11.935  11.150  12.851
98540SOL    HW297518  12.073  11.096  12.822
98541SOL     OW97519  10.046   7.553  13.582
98541SOL    HW197520  10.042   7.567  13.677
98541SOL    HW297521  10.073   7.462  13.572
98542SOL     OW97522   5.579   5.716   6.018
98542SOL    HW197523   5.612   5.655   6.084
98542SOL    HW297524   5.484   5.708   6.023
98543SOL     OW97525  12.622   8.913   9.696
98543SOL    HW197526  12.600   8.837   9.750
98543SOL    HW297527  12.624   8.986   9.757
98544SOL     OW97528   7.664   5.256   9.076
98544SOL    HW197529   7.674   5.250   9.171
98544SOL    HW297530   7.602   5.328   9.063
98545SOL     OW97531   9.195   8.212   8.833
98545SOL    HW197532   9.265   8.223   8.769
98545SOL    HW297533   9.234   8.161   8.904
98546SOL     OW97534   2.024   2.227   7.797
98546SOL    HW197535   2.100   2.201   7.744
98546SOL    HW297536   2.037   2.183   7.881
98547SOL     OW97537  12.950   2.763   9.660
98547SOL    HW197538  12.880   2.699   9.652
98547SOL    HW297539  13.021   2.717   9.705
98548SOL     OW97540   4.196  10.765   4.786
98548SOL    HW197541   4.162  10.797   4.870
98548SOL    HW297542   4.122  10.720   4.746
98549SOL     OW97543  10.094   8.878   7.610
98549SOL    HW197544  10.004   8.850   7.626
98549SOL    HW297545  10.102   8.880   7.515
98550SOL     OW97546  11.766   9.964   4.159
98550SOL    HW197547  11.732  10.047   4.127
98550SOL    HW297548  11.818   9.988   4.236
98551SOL     OW97549  11.910   9.634   7.576
98551SOL    HW197550  11.859   9.577   7.633
98551SOL    HW297551  11.943   9.702   7.634
98552SOL     OW97552   3.553   8.467   9.585
98552SOL    HW197553   3.571   8.488   9.494
98552SOL    HW297554   3.560   8.372   9.591
98553SOL     OW97555   4.728   6.103   9.675
98553SOL    HW197556   4.632   6.106   9.678
98553SOL    HW297557   4.751   6.154   9.598
98554SOL     OW97558   3.229   0.605   8.911
98554SOL    HW197559   3.258   0.681   8.962
98554SOL    HW297560   3.257   0.623   8.822
98555SOL     OW97561  13.728  13.724  12.025
98555SOL    HW197562  13.646  13.766  12.051
98555SOL    HW297563  13.786  13.735  12.100
98556SOL     OW97564  14.572  14.301   6.567
98556SOL    HW197565  14.598  14.209   6.564
98556SOL    HW297566  14.489  14.304   6.520
98557SOL     OW97567  13.631  11.361  13.121
98557SOL    HW197568  13.580  11.285  13.147
98557SOL    HW297569  13.703  11.364  13.184
98558SOL     OW97570   5.937   0.981   9.045
98558SOL    HW197571   5.880   1.021   9.110
98558SOL    HW297572   6.014   1.038   9.042
98559SOL     OW97573  14.494   0.899  11.939
98559SOL    HW197574  14.563   0.950  11.980
98559SOL    HW297575  14.485   0.821  11.994
98560SOL     OW97576  10.314   7.312   4.261
98560SOL    HW197577  10.374   7.370   4.214
98560SOL    HW297578  10.255   7.279   4.192
98561SOL     OW97579   8.293   5.528  14.236
98561SOL    HW197580   8.236   5.505  14.163
98561SOL    HW297581   8.360   5.460  14.237
98562SOL     OW97582  12.840  12.438  10.755
98562SOL    HW197583  12.804  12.378  10.821
98562SOL    HW297584  12.839  12.387  10.674
98563SOL     OW97585   5.422  11.937  13.280
98563SOL    HW197586   5.502  11.901  13.318
98563SOL    HW297587   5.423  11.907  13.189
98564SOL     OW97588   0.996  11.842   6.809
98564SOL    HW197589   0.937  11.909   6.844
98564SOL    HW297590   1.083  11.869   6.837
98565SOL     OW97591  10.448   0.640   8.745
98565SOL    HW197592  10.426   0.729   8.718
98565SOL    HW297593  10.393   0.584   8.690
98566SOL     OW97594   8.169   1.236   4.863
98566SOL    HW197595   8.138   1.255   4.952
98566SOL    HW297596   8.090   1.214   4.815
98567SOL     OW97597  12.877   9.043   3.850
98567SOL    HW197598  12.800   9.043   3.907
98567SOL    HW297599  12.841   9.029   3.762
98568SOL     OW97600  10.032   7.401   6.449
98568SOL    HW197601  10.114   7.407   6.497
98568SOL    HW297602   9.992   7.319   6.480
98569SOL     OW97603  14.100   3.459  10.161
98569SOL    HW197604  14.035   3.495  10.101
98569SOL    HW297605  14.184   3.479  10.119
98570SOL     OW97606   5.965   2.713  13.220
98570SOL    HW197607   6.013   2.774  13.276
98570SOL    HW297608   5.948   2.762  13.140
98571SOL     OW97609   0.313   8.270  14.016
98571SOL    HW197610   0.301   8.352  13.968
98571SOL    HW297611   0.358   8.213  13.954
98572SOL     OW97612  10.909   7.908  13.191
98572SOL    HW197613  10.830   7.855  13.184
98572SOL    HW297614  10.899   7.956  13.273
98573SOL     OW97615  12.079  10.821   1.736
98573SOL    HW197616  12.077  10.735   1.694
98573SOL    HW297617  12.027  10.810   1.816
98574SOL     OW97618   5.847   4.001   3.748
98574SOL    HW197619   5.760   3.998   3.788
98574SOL    HW297620   5.846   4.080   3.695
98575SOL     OW97621  11.437  13.256   3.942
98575SOL    HW197622  11.449  13.166   3.913
98575SOL    HW297623  11.366  13.290   3.887
98576SOL     OW97624   5.595   1.711   0.352
98576SOL    HW197625   5.593   1.801   0.319
98576SOL    HW297626   5.667   1.670   0.303
98577SOL     OW97627   1.324   7.298   3.986
98577SOL    HW197628   1.263   7.261   4.050
98577SOL    HW297629   1.330   7.232   3.917
98578SOL     OW97630   8.115   3.213   9.900
98578SOL    HW197631   8.116   3.228   9.994
98578SOL    HW297632   8.203   3.178   9.880
98579SOL     OW97633   9.878   2.924   1.754
98579SOL    HW197634   9.924   2.887   1.678
98579SOL    HW297635   9.947   2.945   1.816
98580SOL     OW97636   8.101  10.826   5.183
98580SOL    HW197637   8.133  10.863   5.101
98580SOL    HW297638   8.162  10.859   5.249
98581SOL     OW97639   0.312   2.224   4.049
98581SOL    HW197640   0.342   2.296   4.105
98581SOL    HW297641   0.217   2.239   4.041
98582SOL     OW97642  12.554   9.578   7.971
98582SOL    HW197643  12.479   9.549   8.024
98582SOL    HW297644  12.523   9.572   7.880
98583SOL     OW97645   8.251   0.175   0.345
98583SOL    HW197646   8.218   0.100   0.296
98583SOL    HW297647   8.309   0.220   0.283
98584SOL     OW97648   5.838  10.614   4.415
98584SOL    HW197649   5.774  10.680   4.391
98584SOL    HW297650   5.882  10.649   4.492
98585SOL     OW97651  14.392  10.696   3.498
98585SOL    HW197652  14.470  10.740   3.465
98585SOL    HW297653  14.403  10.695   3.593
98586SOL     OW97654   1.688  13.653  14.170
98586SOL    HW197655   1.698  13.562  14.200
98586SOL    HW297656   1.671  13.645  14.077
98587SOL     OW97657   4.589  14.175   7.305
98587SOL    HW197658   4.559  14.180   7.214
98587SOL    HW297659   4.683  14.159   7.299
98588SOL     OW97660   4.586   3.694   2.406
98588SOL    HW197661   4.527   3.718   2.478
98588SOL    HW297662   4.630   3.776   2.383
98589SOL     OW97663   2.982   5.365   3.132
98589SOL    HW197664   3.039   5.289   3.148
98589SOL    HW297665   2.987   5.415   3.213
98590SOL     OW97666   0.115   0.210   3.301
98590SOL    HW197667   0.181   0.277   3.319
98590SOL    HW297668   0.089   0.179   3.388
98591SOL     OW97669   2.712   9.694   1.461
98591SOL    HW197670   2.786   9.749   1.488
98591SOL    HW297671   2.752   9.628   1.405
98592SOL     OW97672   5.769  14.115  13.489
98592SOL    HW197673   5.743  14.187  13.431
98592SOL    HW297674   5.688  14.088  13.532
98593SOL     OW97675  13.082  12.528  13.834
98593SOL    HW197676  13.150  12.595  13.844
98593SOL    HW297677  13.070  12.520  13.740
98594SOL     OW97678   3.675   7.797   1.676
98594SOL    HW197679   3.586   7.827   1.661
98594SOL    HW297680   3.729   7.855   1.621
98595SOL     OW97681   4.285  10.327   3.029
98595SOL    HW197682   4.339  10.354   2.955
98595SOL    HW297683   4.203  10.375   3.018
98596SOL     OW97684   8.016   5.834   3.808
98596SOL    HW197685   8.001   5.871   3.895
98596SOL    HW297686   8.039   5.743   3.824
98597SOL     OW97687  14.291   2.604   7.533
98597SOL    HW197688  14.288   2.683   7.587
98597SOL    HW297689  14.222   2.617   7.467
98598SOL     OW97690   5.945  10.955   4.512
98598SOL    HW197691   5.995  11.037   4.511
98598SOL    HW297692   5.947  10.926   4.603
98599SOL     OW97693   0.780   8.797  13.237
98599SOL    HW197694   0.847   8.842  13.186
98599SOL    HW297695   0.824   8.722  13.275
98600SOL     OW97696  14.298   9.042   7.300
98600SOL    HW197697  14.249   9.054   7.218
98600SOL    HW297698  14.295   9.129   7.341
98601SOL     OW97699   1.409   9.018   3.057
98601SOL    HW197700   1.388   9.074   3.133
98601SOL    HW297701   1.351   8.943   3.066
98602SOL     OW97702   4.901  11.404  12.153
98602SOL    HW197703   4.988  11.384  12.118
98602SOL    HW297704   4.915  11.479  12.210
98603SOL     OW97705  14.860   8.311  10.403
98603SOL    HW197706   0.080   8.312  10.416
98603SOL    HW297707  14.848   8.329  10.310
98604SOL     OW97708  13.536   6.442  14.122
98604SOL    HW197709  13.620   6.476  14.152
98604SOL    HW297710  13.524   6.361  14.171
98605SOL     OW97711   3.276   6.538   8.199
98605SOL    HW197712   3.234   6.543   8.114
98605SOL    HW297713   3.318   6.624   8.211
98606SOL     OW97714   3.694   9.374  11.754
98606SOL    HW197715   3.622   9.330  11.708
98606SOL    HW297716   3.654   9.452  11.792
98607SOL     OW97717   9.201  10.336   0.116
98607SOL    HW197718   9.123  10.383   0.087
98607SOL    HW297719   9.254  10.326   0.037
98608SOL     OW97720   9.817   3.562  10.701
98608SOL    HW197721   9.824   3.639  10.758
98608SOL    HW297722   9.757   3.589  10.631
98609SOL     OW97723   4.802  10.487  13.691
98609SOL    HW197724   4.812  10.445  13.777
98609SOL    HW297725   4.881  10.461  13.643
98610SOL     OW97726  10.572   9.724   9.845
98610SOL    HW197727  10.642   9.699   9.785
98610SOL    HW297728  10.492   9.709   9.796
98611SOL     OW97729   6.598   1.381   1.332
98611SOL    HW197730   6.553   1.400   1.250
98611SOL    HW297731   6.675   1.438   1.331
98612SOL     OW97732   0.477   4.829   4.481
98612SOL    HW197733   0.445   4.860   4.397
98612SOL    HW297734   0.406   4.846   4.542
98613SOL     OW97735   1.016   9.716  10.610
98613SOL    HW197736   0.974   9.635  10.582
98613SOL    HW297737   1.105   9.691  10.633
98614SOL     OW97738   3.328   6.071   6.341
98614SOL    HW197739   3.275   6.114   6.274
98614SOL    HW297740   3.382   6.009   6.292
98615SOL     OW97741   3.467  11.123  12.645
98615SOL    HW197742   3.546  11.104  12.696
98615SOL    HW297743   3.462  11.219  12.644
98616SOL     OW97744   9.506   4.527  14.765
98616SOL    HW197745   9.583   4.493  14.810
98616SOL    HW297746   9.540   4.599  14.712
98617SOL     OW97747   4.846   1.563   8.749
98617SOL    HW197748   4.789   1.518   8.811
98617SOL    HW297749   4.895   1.625   8.802
98618SOL     OW97750   0.814   1.628  14.373
98618SOL    HW197751   0.887   1.671  14.328
98618SOL    HW297752   0.800   1.681  14.451
98619SOL     OW97753   4.243   3.455   8.209
98619SOL    HW197754   4.181   3.411   8.267
98619SOL    HW297755   4.200   3.538   8.186
98620SOL     OW97756   6.552  11.030   3.894
98620SOL    HW197757   6.584  10.940   3.888
98620SOL    HW297758   6.492  11.039   3.820
98621SOL     OW97759  12.171  12.147   0.443
98621SOL    HW197760  12.098  12.145   0.505
98621SOL    HW297761  12.237  12.090   0.482
98622SOL     OW97762  12.583   2.329   1.938
98622SOL    HW197763  12.599   2.418   1.971
98622SOL    HW297764  12.584   2.338   1.843
98623SOL     OW97765  14.856  10.546   2.852
98623SOL    HW197766   0.040  10.490   2.902
98623SOL    HW297767  14.771  10.502   2.856
98624SOL     OW97768  14.024   3.054   5.984
98624SOL    HW197769  14.094   3.116   6.002
98624SOL    HW297770  13.969   3.098   5.920
98625SOL     OW97771   4.501   9.386   4.508
98625SOL    HW197772   4.511   9.375   4.414
98625SOL    HW297773   4.562   9.324   4.546
98626SOL     OW97774  14.470  12.019   9.902
98626SOL    HW197775  14.537  11.951   9.907
98626SOL    HW297776  14.481  12.070   9.982
98627SOL     OW97777  10.868  11.478  11.618
98627SOL    HW197778  10.868  11.400  11.674
98627SOL    HW297779  10.799  11.533  11.654
98628SOL     OW97780   6.280   9.079  14.700
98628SOL    HW197781   6.303   9.171  14.705
98628SOL    HW297782   6.348   9.034  14.750
98629SOL     OW97783  12.982   0.202   3.223
98629SOL    HW197784  12.901   0.174   3.181
98629SOL    HW297785  12.986   0.296   3.206
98630SOL     OW97786   1.397  13.477   5.800
98630SOL    HW197787   1.310  13.513   5.784
98630SOL    HW297788   1.424  13.516   5.883
98631SOL     OW97789  10.467   1.163   7.282
98631SOL    HW197790  10.461   1.109   7.361
98631SOL    HW297791  10.419   1.243   7.304
98632SOL     OW97792   6.744  13.041  12.234
98632SOL    HW197793   6.714  13.059  12.323
98632SOL    HW297794   6.770  13.127  12.200
98633SOL     OW97795   5.577  11.688   7.092
98633SOL    HW197796   5.657  11.699   7.040
98633SOL    HW297797   5.508  11.675   7.027
98634SOL     OW97798  12.909   0.809   0.100
98634SOL    HW197799  12.907   0.724   0.056
98634SOL    HW297800  12.928   0.871   0.031
98635SOL     OW97801  14.249  10.467   4.742
98635SOL    HW197802  14.175  10.523   4.763
98635SOL    HW297803  14.217  10.378   4.755
98636SOL     OW97804   9.147  12.559   1.026
98636SOL    HW197805   9.164  12.650   1.048
98636SOL    HW297806   9.105  12.523   1.105
98637SOL     OW97807  14.422   7.056  13.254
98637SOL    HW197808  14.465   7.035  13.336
98637SOL    HW297809  14.375   7.138  13.271
98638SOL     OW97810  14.341   7.784  11.181
98638SOL    HW197811  14.314   7.846  11.113
98638SOL    HW297812  14.324   7.698  11.143
98639SOL     OW97813   9.092   9.990   0.388
98639SOL    HW197814   9.179  10.026   0.372
98639SOL    HW297815   9.033  10.064   0.375
98640SOL     OW97816   9.042  12.679   2.590
98640SOL    HW197817   9.004  12.767   2.591
98640SOL    HW297818   9.087  12.671   2.674
98641SOL     OW97819  13.443   4.304   8.298
98641SOL    HW197820  13.388   4.241   8.345
98641SOL    HW297821  13.407   4.306   8.209
98642SOL     OW97822   9.060   2.989   8.993
98642SOL    HW197823   9.020   3.076   8.996
98642SOL    HW297824   9.007   2.940   8.930
98643SOL     OW97825  12.101   2.946   0.259
98643SOL    HW197826  12.036   2.963   0.192
98643SOL    HW297827  12.102   3.025   0.313
98644SOL     OW97828   4.371  14.125  10.787
98644SOL    HW197829   4.387  14.049  10.844
98644SOL    HW297830   4.455  14.171  10.786
98645SOL     OW97831   2.468   9.926   0.826
98645SOL    HW197832   2.531   9.854   0.831
98645SOL    HW297833   2.481   9.962   0.738
98646SOL     OW97834   2.943   5.076  14.344
98646SOL    HW197835   2.974   5.143  14.283
98646SOL    HW297836   2.913   5.125  14.420
98647SOL     OW97837   7.727   4.066   3.233
98647SOL    HW197838   7.679   4.011   3.295
98647SOL    HW297839   7.750   4.144   3.284
98648SOL     OW97840   5.429   3.760   2.788
98648SOL    HW197841   5.501   3.792   2.734
98648SOL    HW297842   5.393   3.686   2.739
98649SOL     OW97843  13.009   8.196   6.654
98649SOL    HW197844  12.999   8.284   6.689
98649SOL    HW297845  12.940   8.187   6.589
98650SOL     OW97846   1.156   4.340  10.262
98650SOL    HW197847   1.246   4.366  10.281
98650SOL    HW297848   1.102   4.405  10.308
98651SOL     OW97849  10.687   3.038   9.530
98651SOL    HW197850  10.682   2.958   9.582
98651SOL    HW297851  10.781   3.059   9.528
98652SOL     OW97852   3.682   7.148  12.214
98652SOL    HW197853   3.777   7.162  12.206
98652SOL    HW297854   3.649   7.230  12.250
98653SOL     OW97855  11.656  12.473   7.637
98653SOL    HW197856  11.752  12.470   7.643
98653SOL    HW297857  11.629  12.517   7.718
98654SOL     OW97858   7.168  11.022  14.483
98654SOL    HW197859   7.173  10.950  14.420
98654SOL    HW297860   7.195  10.984  14.566
98655SOL     OW97861   8.162   3.380   2.311
98655SOL    HW197862   8.221   3.426   2.370
98655SOL    HW297863   8.178   3.419   2.225
98656SOL     OW97864  12.595   8.889   7.868
98656SOL    HW197865  12.672   8.837   7.848
98656SOL    HW297866  12.525   8.850   7.816
98657SOL     OW97867  11.274  12.603  11.606
98657SOL    HW197868  11.362  12.595  11.568
98657SOL    HW297869  11.285  12.664  11.679
98658SOL     OW97870   8.291   4.469  12.151
98658SOL    HW197871   8.303   4.381  12.115
98658SOL    HW297872   8.334   4.527  12.089
98659SOL     OW97873  11.193  11.556   8.214
98659SOL    HW197874  11.267  11.572   8.272
98659SOL    HW297875  11.170  11.642   8.179
98660SOL     OW97876  14.861   6.281  13.418
98660SOL    HW197877   0.071   6.246  13.389
98660SOL    HW297878  14.864   6.275  13.513
98661SOL     OW97879  13.262  14.137   0.751
98661SOL    HW197880  13.352  14.113   0.771
98661SOL    HW297881  13.263  14.232   0.745
98662SOL     OW97882  13.585   0.548  13.686
98662SOL    HW197883  13.601   0.621  13.626
98662SOL    HW297884  13.491   0.534  13.681
98663SOL     OW97885  11.187   0.806  11.042
98663SOL    HW197886  11.279   0.801  11.068
98663SOL    HW297887  11.177   0.738  10.976
98664SOL     OW97888   2.661   0.602   4.703
98664SOL    HW197889   2.578   0.649   4.717
98664SOL    HW297890   2.714   0.624   4.779
98665SOL     OW97891  12.044   5.514   5.275
98665SOL    HW197892  12.051   5.596   5.324
98665SOL    HW297893  12.133   5.494   5.248
98666SOL     OW97894   8.536  12.705   0.002
98666SOL    HW197895   8.584  12.653   0.066
98666SOL    HW297896   8.463  12.649  14.850
98667SOL     OW97897   6.835   1.839  11.090
98667SOL    HW197898   6.904   1.903  11.072
98667SOL    HW297899   6.824   1.843  11.185
98668SOL     OW97900   3.741   8.707   2.044
98668SOL    HW197901   3.686   8.643   1.999
98668SOL    HW297902   3.828   8.695   2.006
98669SOL     OW97903   7.729   1.409   9.449
98669SOL    HW197904   7.636   1.392   9.439
98669SOL    HW297905   7.764   1.329   9.488
98670SOL     OW97906   6.667   2.315   1.651
98670SOL    HW197907   6.672   2.219   1.654
98670SOL    HW297908   6.623   2.339   1.731
98671SOL     OW97909   4.858   9.594   5.892
98671SOL    HW197910   4.785   9.631   5.843
98671SOL    HW297911   4.831   9.504   5.910
98672SOL     OW97912  11.895  14.412   1.862
98672SOL    HW197913  11.972  14.407   1.918
98672SOL    HW297914  11.821  14.403   1.922
98673SOL     OW97915   3.200   4.616   8.968
98673SOL    HW197916   3.160   4.529   8.971
98673SOL    HW297917   3.220   4.629   8.875
98674SOL     OW97918   8.652   4.677   4.234
98674SOL    HW197919   8.583   4.646   4.292
98674SOL    HW297920   8.729   4.627   4.258
98675SOL     OW97921  10.094   0.674   6.126
98675SOL    HW197922  10.147   0.724   6.063
98675SOL    HW297923  10.051   0.607   6.073
98676SOL     OW97924   9.906   4.269   2.492
98676SOL    HW197925   9.822   4.232   2.464
98676SOL    HW297926   9.882   4.340   2.551
98677SOL     OW97927  12.387   5.372  12.261
98677SOL    HW197928  12.414   5.463  12.246
98677SOL    HW297929  12.310   5.379  12.317
98678SOL     OW97930  13.484   5.331  12.974
98678SOL    HW197931  13.538   5.409  12.985
98678SOL    HW297932  13.524   5.265  13.031
98679SOL     OW97933  12.187  11.317  10.072
98679SOL    HW197934  12.113  11.376  10.054
98679SOL    HW297935  12.157  11.263  10.145
98680SOL     OW97936   4.474   6.777   5.653
98680SOL    HW197937   4.453   6.684   5.661
98680SOL    HW297938   4.569   6.781   5.661
98681SOL     OW97939  13.977  12.222  12.510
98681SOL    HW197940  14.009  12.132  12.507
98681SOL    HW297941  13.888  12.217  12.475
98682SOL     OW97942   1.190   7.629   3.736
98682SOL    HW197943   1.215   7.648   3.826
98682SOL    HW297944   1.162   7.713   3.701
98683SOL     OW97945   4.997   7.910   0.622
98683SOL    HW197946   4.928   7.911   0.689
98683SOL    HW297947   4.963   7.853   0.553
98684SOL     OW97948   7.432   2.877  14.103
98684SOL    HW197949   7.488   2.950  14.130
98684SOL    HW297950   7.481   2.799  14.128
98685SOL     OW97951  13.640  12.366   3.767
98685SOL    HW197952  13.715  12.316   3.801
98685SOL    HW297953  13.609  12.315   3.692
98686SOL     OW97954   8.834  13.550   0.895
98686SOL    HW197955   8.754  13.574   0.848
98686SOL    HW297956   8.864  13.471   0.852
98687SOL     OW97957   1.084   6.165  10.069
98687SOL    HW197958   1.175   6.187  10.088
98687SOL    HW297959   1.036   6.197  10.145
98688SOL     OW97960   6.946  12.973   7.320
98688SOL    HW197961   6.891  12.976   7.398
98688SOL    HW297962   6.945  12.882   7.292
98689SOL     OW97963  14.066   1.953  10.451
98689SOL    HW197964  13.998   1.891  10.476
98689SOL    HW297965  14.019   2.028  10.416
98690SOL     OW97966   7.853   6.260   3.109
98690SOL    HW197967   7.926   6.240   3.168
98690SOL    HW297968   7.776   6.229   3.156
98691SOL     OW97969   8.245   0.084  10.378
98691SOL    HW197970   8.252   0.003  10.328
98691SOL    HW297971   8.260   0.153  10.314
98692SOL     OW97972   1.338   5.328   6.583
98692SOL    HW197973   1.263   5.386   6.597
98692SOL    HW297974   1.333   5.303   6.491
98693SOL     OW97975   5.243   4.610   0.061
98693SOL    HW197976   5.256   4.581   0.151
98693SOL    HW297977   5.217   4.702   0.068
98694SOL     OW97978   6.510   1.170   0.823
98694SOL    HW197979   6.496   1.148   0.731
98694SOL    HW297980   6.585   1.230   0.823
98695SOL     OW97981  11.823   8.339   3.507
98695SOL    HW197982  11.731   8.365   3.503
98695SOL    HW297983  11.833   8.298   3.593
98696SOL     OW97984   1.102   4.554  13.075
98696SOL    HW197985   1.183   4.577  13.030
98696SOL    HW297986   1.054   4.501  13.012
98697SOL     OW97987   9.482   7.121   8.452
98697SOL    HW197988   9.458   7.065   8.526
98697SOL    HW297989   9.542   7.067   8.399
98698SOL     OW97990   5.748   0.193   7.148
98698SOL    HW197991   5.779   0.232   7.066
98698SOL    HW297992   5.826   0.192   7.204
98699SOL     OW97993   7.612   0.827   0.438
98699SOL    HW197994   7.578   0.917   0.442
98699SOL    HW297995   7.669   0.827   0.361
98700SOL     OW97996  14.389   6.727   8.478
98700SOL    HW197997  14.400   6.659   8.412
98700SOL    HW297998  14.305   6.707   8.519
98701SOL     OW97999  13.992   6.983   1.970
98701SOL    HW198000  14.018   6.956   1.882
98701SOL    HW298001  14.043   7.063   1.986
98702SOL     OW98002   5.699  13.305   4.796
98702SOL    HW198003   5.625  13.304   4.735
98702SOL    HW298004   5.762  13.365   4.757
98703SOL     OW98005  13.169   9.599   3.583
98703SOL    HW198006  13.240   9.577   3.643
98703SOL    HW298007  13.169   9.695   3.580
98704SOL     OW98008  11.046  13.256   2.367
98704SOL    HW198009  11.092  13.298   2.439
98704SOL    HW298010  11.010  13.176   2.404
98705SOL     OW98011   8.457   7.905  11.746
98705SOL    HW198012   8.464   7.935  11.836
98705SOL    HW298013   8.425   7.815  11.753
98706SOL     OW98014   5.876   1.251   2.900
98706SOL    HW198015   5.921   1.314   2.844
98706SOL    HW298016   5.929   1.172   2.895
98707SOL     OW98017  10.663   4.773   8.439
98707SOL    HW198018  10.725   4.832   8.396
98707SOL    HW298019  10.655   4.698   8.380
98708SOL     OW98020   5.162  10.954   1.807
98708SOL    HW198021   5.150  10.860   1.796
98708SOL    HW298022   5.104  10.993   1.742
98709SOL     OW98023  14.454   0.334   8.213
98709SOL    HW198024  14.450   0.317   8.308
98709SOL    HW298025  14.547   0.354   8.197
98710SOL     OW98026   2.376   7.196  14.203
98710SOL    HW198027   2.369   7.279  14.156
98710SOL    HW298028   2.428   7.217  14.281
98711SOL     OW98029   6.972   2.997  13.181
98711SOL    HW198030   6.933   3.009  13.268
98711SOL    HW298031   6.899   2.965  13.127
98712SOL     OW98032   0.259  14.631   1.511
98712SOL    HW198033   0.176  14.663   1.476
98712SOL    HW298034   0.257  14.655   1.603
98713SOL     OW98035   2.461   1.536   6.002
98713SOL    HW198036   2.481   1.468   5.938
98713SOL    HW298037   2.398   1.593   5.956
98714SOL     OW98038   4.013   2.628   5.534
98714SOL    HW198039   4.016   2.535   5.556
98714SOL    HW298040   4.105   2.654   5.529
98715SOL     OW98041  12.930   6.117   4.356
98715SOL    HW198042  12.964   6.151   4.439
98715SOL    HW298043  12.938   6.022   4.363
98716SOL     OW98044   5.532   4.406   3.448
98716SOL    HW198045   5.527   4.416   3.543
98716SOL    HW298046   5.468   4.338   3.428
98717SOL     OW98047   3.730  14.110  11.922
98717SOL    HW198048   3.693  14.046  11.861
98717SOL    HW298049   3.728  14.193  11.874
98718SOL     OW98050   1.556  11.281   9.209
98718SOL    HW198051   1.501  11.355   9.183
98718SOL    HW298052   1.620  11.319   9.269
98719SOL     OW98053  11.352   4.342   3.596
98719SOL    HW198054  11.333   4.267   3.539
98719SOL    HW298055  11.290   4.333   3.669
98720SOL     OW98056   2.462   9.781  10.215
98720SOL    HW198057   2.538   9.829  10.249
98720SOL    HW298058   2.426   9.838  10.147
98721SOL     OW98059   6.540   1.375  11.000
98721SOL    HW198060   6.592   1.394  11.078
98721SOL    HW298061   6.604   1.354  10.933
98722SOL     OW98062  13.195   9.668   6.708
98722SOL    HW198063  13.242   9.666   6.791
98722SOL    HW298064  13.206   9.580   6.672
98723SOL     OW98065  14.021  11.436   1.949
98723SOL    HW198066  13.968  11.381   2.007
98723SOL    HW298067  14.014  11.393   1.863
98724SOL     OW98068  12.674  11.260  10.802
98724SOL    HW198069  12.724  11.178  10.810
98724SOL    HW298070  12.594  11.235  10.756
98725SOL     OW98071   9.453   6.555   5.944
98725SOL    HW198072   9.534   6.506   5.960
98725SOL    HW298073   9.437   6.543   5.850
98726SOL     OW98074   7.092   3.828   8.926
98726SOL    HW198075   7.042   3.903   8.958
98726SOL    HW298076   7.086   3.764   8.996
98727SOL     OW98077   2.104   5.505  13.249
98727SOL    HW198078   2.101   5.598  13.224
98727SOL    HW298079   2.144   5.462  13.174
98728SOL     OW98080   0.049   6.414   2.710
98728SOL    HW198081   0.107   6.339   2.701
98728SOL    HW298082   0.024   6.436   2.620
98729SOL     OW98083   8.047  12.030   9.593
98729SOL    HW198084   7.974  11.978   9.627
98729SOL    HW298085   8.125  11.976   9.609
98730SOL     OW98086   5.376   3.177  13.008
98730SOL    HW198087   5.460   3.210  13.043
98730SOL    HW298088   5.393   3.163  12.915
98731SOL     OW98089   7.284   6.689   4.065
98731SOL    HW198090   7.369   6.731   4.077
98731SOL    HW298091   7.260   6.658   4.152
98732SOL     OW98092  12.515   8.637   5.388
98732SOL    HW198093  12.564   8.714   5.358
98732SOL    HW298094  12.537   8.568   5.325
98733SOL     OW98095   5.120   5.089   4.282
98733SOL    HW198096   5.078   5.041   4.211
98733SOL    HW298097   5.056   5.157   4.306
98734SOL     OW98098   9.761   1.241   9.549
98734SOL    HW198099   9.743   1.147   9.548
98734SOL    HW298100   9.794   1.258   9.637
98735SOL     OW98101   7.934   2.499  10.042
98735SOL    HW198102   7.957   2.410  10.070
98735SOL    HW298103   7.839   2.497  10.031
98736SOL     OW98104  14.099  11.932   3.893
98736SOL    HW198105  14.084  11.947   3.800
98736SOL    HW298106  14.146  12.009   3.924
98737SOL     OW98107  12.314   7.936   5.321
98737SOL    HW198108  12.286   7.935   5.229
98737SOL    HW298109  12.255   7.999   5.363
98738SOL     OW98110   7.388   0.481   1.953
98738SOL    HW198111   7.451   0.415   1.924
98738SOL    HW298112   7.349   0.514   1.873
98739SOL     OW98113   6.109  10.425  13.665
98739SOL    HW198114   6.058  10.392  13.740
98739SOL    HW298115   6.197  10.438  13.700
98740SOL     OW98116  14.387   4.301   2.341
98740SOL    HW198117  14.405   4.395   2.336
98740SOL    HW298118  14.359   4.278   2.252
98741SOL     OW98119  11.415   7.839  12.897
98741SOL    HW198120  11.352   7.867  12.963
98741SOL    HW298121  11.424   7.745  12.912
98742SOL     OW98122  11.799   3.138   1.771
98742SOL    HW198123  11.738   3.065   1.753
98742SOL    HW298124  11.780   3.202   1.703
98743SOL     OW98125   3.292   5.534  13.310
98743SOL    HW198126   3.220   5.477  13.335
98743SOL    HW298127   3.288   5.606  13.373
98744SOL     OW98128   5.041  10.537  11.998
98744SOL    HW198129   4.984  10.536  12.075
98744SOL    HW298130   4.982  10.518  11.925
98745SOL     OW98131   3.769   0.757  12.698
98745SOL    HW198132   3.702   0.717  12.643
98745SOL    HW298133   3.850   0.712  12.675
98746SOL     OW98134   6.978  12.397   7.074
98746SOL    HW198135   6.894  12.375   7.115
98746SOL    HW298136   7.000  12.320   7.022
98747SOL     OW98137   5.600   1.135   5.792
98747SOL    HW198138   5.627   1.067   5.731
98747SOL    HW298139   5.540   1.091   5.852
98748SOL     OW98140  10.037  10.746   3.294
98748SOL    HW198141  10.088  10.740   3.375
98748SOL    HW298142   9.955  10.701   3.315
98749SOL     OW98143  11.158  12.007   8.831
98749SOL    HW198144  11.073  11.978   8.866
98749SOL    HW298145  11.171  11.955   8.752
98750SOL     OW98146  10.053   9.058  11.013
98750SOL    HW198147  10.105   9.098  11.082
98750SOL    HW298148  10.032   9.130  10.954
98751SOL     OW98149   8.178   1.170   5.192
98751SOL    HW198150   8.107   1.129   5.240
98751SOL    HW298151   8.212   1.237   5.252
98752SOL     OW98152   1.116   3.706  13.323
98752SOL    HW198153   1.189   3.714  13.261
98752SOL    HW298154   1.061   3.782  13.304
98753SOL     OW98155   5.945   1.785   4.903
98753SOL    HW198156   5.953   1.698   4.943
98753SOL    HW298157   5.934   1.845   4.977
98754SOL     OW98158   1.689   8.469   4.275
98754SOL    HW198159   1.637   8.530   4.223
98754SOL    HW298160   1.626   8.402   4.303
98755SOL     OW98161   7.615   5.743   9.917
98755SOL    HW198162   7.696   5.704   9.885
98755SOL    HW298163   7.580   5.791   9.842
98756SOL     OW98164  11.289   0.376  10.141
98756SOL    HW198165  11.205   0.384  10.095
98756SOL    HW298166  11.316   0.467  10.157
98757SOL     OW98167  13.979   0.906   6.969
98757SOL    HW198168  13.997   0.929   6.878
98757SOL    HW298169  13.899   0.854   6.966
98758SOL     OW98170   0.082   0.894  12.994
98758SOL    HW198171   0.104   0.912  13.086
98758SOL    HW298172   0.100   0.800  12.984
98759SOL     OW98173  11.557  12.228   2.099
98759SOL    HW198174  11.577  12.148   2.147
98759SOL    HW298175  11.462  12.236   2.104
98760SOL     OW98176  12.876   3.440   6.756
98760SOL    HW198177  12.825   3.364   6.782
98760SOL    HW298178  12.954   3.404   6.714
98761SOL     OW98179   2.622   9.318   9.707
98761SOL    HW198180   2.555   9.384   9.690
98761SOL    HW298181   2.639   9.278   9.621
98762SOL     OW98182   3.722   0.818  11.933
98762SOL    HW198183   3.769   0.734  11.937
98762SOL    HW298184   3.655   0.811  12.000
98763SOL     OW98185   5.349   6.271   8.207
98763SOL    HW198186   5.316   6.220   8.133
98763SOL    HW298187   5.395   6.345   8.167
98764SOL     OW98188   8.093   2.175   7.459
98764SOL    HW198189   8.144   2.155   7.538
98764SOL    HW298190   8.074   2.089   7.421
98765SOL     OW98191  14.059   2.743   5.253
98765SOL    HW198192  14.089   2.655   5.229
98765SOL    HW298193  14.122   2.773   5.318
98766SOL     OW98194   0.334   2.699   3.629
98766SOL    HW198195   0.326   2.665   3.718
98766SOL    HW298196   0.268   2.767   3.623
98767SOL     OW98197  11.287   2.401  13.267
98767SOL    HW198198  11.271   2.350  13.347
98767SOL    HW298199  11.331   2.339  13.208
98768SOL     OW98200   4.992   8.059   5.059
98768SOL    HW198201   5.006   8.095   5.146
98768SOL    HW298202   5.062   8.096   5.005
98769SOL     OW98203   4.803  14.043   5.284
98769SOL    HW198204   4.772  14.134   5.283
98769SOL    HW298205   4.885  14.045   5.235
98770SOL     OW98206  12.013   4.495   6.535
98770SOL    HW198207  11.928   4.485   6.492
98770SOL    HW298208  12.072   4.436   6.487
98771SOL     OW98209   0.626   9.357   1.140
98771SOL    HW198210   0.575   9.327   1.216
98771SOL    HW298211   0.577   9.324   1.065
98772SOL     OW98212   5.950  14.735  14.677
98772SOL    HW198213   5.960  14.666  14.742
98772SOL    HW298214   6.039  14.752  14.646
98773SOL     OW98215   2.091  14.395   5.353
98773SOL    HW198216   2.146  14.317   5.343
98773SOL    HW298217   2.127  14.440   5.429
98774SOL     OW98218  12.762   0.311   2.494
98774SOL    HW198219  12.853   0.324   2.469
98774SOL    HW298220  12.751   0.363   2.574
98775SOL     OW98221   6.916   9.644   7.651
98775SOL    HW198222   7.008   9.629   7.628
98775SOL    HW298223   6.867   9.582   7.597
98776SOL     OW98224   1.246   3.161   4.698
98776SOL    HW198225   1.316   3.097   4.689
98776SOL    HW298226   1.165   3.110   4.692
98777SOL     OW98227  11.036   6.701   3.046
98777SOL    HW198228  10.946   6.670   3.036
98777SOL    HW298229  11.090   6.627   3.021
98778SOL     OW98230  14.366   5.344   2.495
98778SOL    HW198231  14.335   5.374   2.410
98778SOL    HW298232  14.309   5.388   2.558
98779SOL     OW98233   9.259   1.707   5.902
98779SOL    HW198234   9.167   1.697   5.876
98779SOL    HW298235   9.267   1.656   5.983
98780SOL     OW98236   6.554   2.284   9.769
98780SOL    HW198237   6.576   2.297   9.861
98780SOL    HW298238   6.599   2.203   9.744
98781SOL     OW98239   0.505   2.649   5.269
98781SOL    HW198240   0.502   2.598   5.350
98781SOL    HW298241   0.529   2.737   5.297
98782SOL     OW98242   2.763   1.470  11.997
98782SOL    HW198243   2.851   1.474  12.035
98782SOL    HW298244   2.737   1.378  12.007
98783SOL     OW98245  11.958   0.627   6.108
98783SOL    HW198246  12.021   0.556   6.119
98783SOL    HW298247  11.891   0.611   6.175
98784SOL     OW98248   0.951   4.844   0.869
98784SOL    HW198249   1.035   4.812   0.836
98784SOL    HW298250   0.958   4.939   0.863
98785SOL     OW98251  11.407   7.890  12.613
98785SOL    HW198252  11.453   7.810  12.586
98785SOL    HW298253  11.418   7.892  12.708
98786SOL     OW98254  12.260   5.818   0.043
98786SOL    HW198255  12.231   5.771  14.840
98786SOL    HW298256  12.189   5.879   0.063
98787SOL     OW98257   9.096   5.830   0.565
98787SOL    HW198258   9.032   5.796   0.503
98787SOL    HW298259   9.051   5.831   0.650
98788SOL     OW98260  10.851   8.850   4.693
98788SOL    HW198261  10.755   8.846   4.689
98788SOL    HW298262  10.876   8.902   4.616
98789SOL     OW98263  11.541   7.598   5.169
98789SOL    HW198264  11.621   7.604   5.221
98789SOL    HW298265  11.571   7.571   5.082
98790SOL     OW98266  12.037   9.146   1.397
98790SOL    HW198267  12.101   9.185   1.456
98790SOL    HW298268  12.006   9.068   1.443
98791SOL     OW98269  10.465   0.422  10.798
98791SOL    HW198270  10.469   0.331  10.770
98791SOL    HW298271  10.374   0.448  10.784
98792SOL     OW98272  10.668   7.798   9.065
98792SOL    HW198273  10.682   7.704   9.073
98792SOL    HW298274  10.684   7.817   8.973
98793SOL     OW98275   7.452   7.452   1.000
98793SOL    HW198276   7.494   7.448   0.914
98793SOL    HW298277   7.426   7.544   1.009
98794SOL     OW98278  10.783   2.221  10.549
98794SOL    HW198279  10.772   2.131  10.581
98794SOL    HW298280  10.785   2.213  10.454
98795SOL     OW98281   4.693   2.575   8.670
98795SOL    HW198282   4.604   2.539   8.662
98795SOL    HW298283   4.682   2.669   8.660
98796SOL     OW98284  12.645   1.805   8.308
98796SOL    HW198285  12.702   1.729   8.320
98796SOL    HW298286  12.556   1.769   8.313
98797SOL     OW98287   1.061   3.964   5.912
98797SOL    HW198288   1.124   4.036   5.915
98797SOL    HW298289   0.978   4.005   5.887
98798SOL     OW98290   7.972  11.442  13.596
98798SOL    HW198291   7.951  11.442  13.689
98798SOL    HW298292   8.054  11.491  13.589
98799SOL     OW98293   8.214  10.692   2.689
98799SOL    HW198294   8.273  10.665   2.759
98799SOL    HW298295   8.131  10.710   2.734
98800SOL     OW98296   9.632  10.723  10.485
98800SOL    HW198297   9.541  10.752  10.491
98800SOL    HW298298   9.672  10.750  10.568
98801SOL     OW98299   1.461   0.742   0.092
98801SOL    HW198300   1.373   0.705   0.093
98801SOL    HW298301   1.463   0.800   0.169
98802SOL     OW98302  11.704   8.153  11.011
98802SOL    HW198303  11.746   8.225  10.964
98802SOL    HW298304  11.668   8.097  10.942
98803SOL     OW98305  10.360   7.899  12.155
98803SOL    HW198306  10.331   7.808  12.169
98803SOL    HW298307  10.448   7.902  12.192
98804SOL     OW98308   5.840  11.074  12.532
98804SOL    HW198309   5.786  11.011  12.580
98804SOL    HW298310   5.870  11.135  12.599
98805SOL     OW98311   3.772   7.975   2.318
98805SOL    HW198312   3.706   7.909   2.293
98805SOL    HW298313   3.728   8.029   2.384
98806SOL     OW98314   6.601   4.293   7.662
98806SOL    HW198315   6.643   4.211   7.687
98806SOL    HW298316   6.561   4.275   7.577
98807SOL     OW98317   3.974  13.298   5.947
98807SOL    HW198318   3.997  13.391   5.938
98807SOL    HW298319   3.921  13.279   5.869
98808SOL     OW98320  11.292   4.060  12.562
98808SOL    HW198321  11.358   4.106  12.510
98808SOL    HW298322  11.212   4.065  12.509
98809SOL     OW98323   5.381   5.778   4.319
98809SOL    HW198324   5.343   5.860   4.350
98809SOL    HW298325   5.417   5.800   4.233
98810SOL     OW98326   9.757   4.291   0.761
98810SOL    HW198327   9.681   4.319   0.812
98810SOL    HW298328   9.825   4.356   0.783
98811SOL     OW98329   6.030  13.546   2.413
98811SOL    HW198330   6.046  13.621   2.355
98811SOL    HW298331   6.015  13.585   2.499
98812SOL     OW98332   2.630   1.019  12.743
98812SOL    HW198333   2.635   0.926  12.724
98812SOL    HW298334   2.642   1.062  12.659
98813SOL     OW98335   6.104  12.955   5.521
98813SOL    HW198336   6.031  12.935   5.463
98813SOL    HW298337   6.071  12.938   5.609
98814SOL     OW98338  11.871  12.414   0.259
98814SOL    HW198339  11.805  12.461   0.208
98814SOL    HW298340  11.954  12.447   0.227
98815SOL     OW98341   6.912   3.125   9.024
98815SOL    HW198342   6.947   3.209   9.051
98815SOL    HW298343   6.867   3.143   8.941
98816SOL     OW98344   3.716  11.268   7.830
98816SOL    HW198345   3.633  11.251   7.786
98816SOL    HW298346   3.693  11.272   7.923
98817SOL     OW98347  14.008   6.847   1.222
98817SOL    HW198348  13.992   6.761   1.183
98817SOL    HW298349  13.922   6.877   1.251
98818SOL     OW98350  12.048   0.694  12.521
98818SOL    HW198351  12.028   0.606  12.490
98818SOL    HW298352  12.128   0.684  12.572
98819SOL     OW98353   3.177   7.475   9.657
98819SOL    HW198354   3.242   7.424   9.609
98819SOL    HW298355   3.126   7.519   9.589
98820SOL     OW98356   1.985   9.487   9.739
98820SOL    HW198357   1.926   9.474   9.665
98820SOL    HW298358   2.070   9.455   9.708
98821SOL     OW98359  12.966   8.428  11.499
98821SOL    HW198360  12.940   8.379  11.577
98821SOL    HW298361  12.954   8.519  11.523
98822SOL     OW98362   6.414   2.508   7.270
98822SOL    HW198363   6.484   2.571   7.290
98822SOL    HW298364   6.451   2.423   7.294
98823SOL     OW98365   5.102  12.557  12.380
98823SOL    HW198366   5.062  12.628  12.431
98823SOL    HW298367   5.127  12.599  12.298
98824SOL     OW98368   3.315   0.071   4.003
98824SOL    HW198369   3.292   0.082   3.911
98824SOL    HW298370   3.402   0.109   4.010
98825SOL     OW98371   9.611   7.060  11.660
98825SOL    HW198372   9.655   7.025  11.583
98825SOL    HW298373   9.520   7.035  11.649
98826SOL     OW98374  12.153   6.214  11.423
98826SOL    HW198375  12.237   6.220  11.378
98826SOL    HW298376  12.093   6.181  11.356
98827SOL     OW98377   7.396   4.182  11.567
98827SOL    HW198378   7.456   4.229  11.625
98827SOL    HW298379   7.384   4.097  11.608
98828SOL     OW98380  12.088  10.082   8.920
98828SOL    HW198381  12.166  10.101   8.868
98828SOL    HW298382  12.032  10.159   8.909
98829SOL     OW98383  12.001   4.738   9.958
98829SOL    HW198384  11.940   4.664   9.967
98829SOL    HW298385  11.991   4.766   9.867
98830SOL     OW98386   9.827   0.024   0.025
98830SOL    HW198387   9.803  14.809   0.003
98830SOL    HW298388   9.922   0.028   0.011
98831SOL     OW98389  10.680   5.006   5.301
98831SOL    HW198390  10.677   5.090   5.256
98831SOL    HW298391  10.592   4.969   5.289
98832SOL     OW98392   2.370   9.683   4.384
98832SOL    HW198393   2.307   9.612   4.400
98832SOL    HW298394   2.329   9.737   4.317
98833SOL     OW98395   2.004   6.114  10.243
98833SOL    HW198396   2.054   6.170  10.301
98833SOL    HW298397   2.067   6.047  10.214
98834SOL     OW98398   6.415   0.217  10.522
98834SOL    HW198399   6.393   0.272  10.597
98834SOL    HW298400   6.341   0.157  10.513
98835SOL     OW98401   8.404  13.262  10.115
98835SOL    HW198402   8.364  13.335  10.162
98835SOL    HW298403   8.335  13.232  10.055
98836SOL     OW98404  14.716   0.392   6.333
98836SOL    HW198405  14.688   0.316   6.385
98836SOL    HW298406  14.687   0.373   6.244
98837SOL     OW98407   7.025   9.169  14.437
98837SOL    HW198408   7.102   9.141  14.389
98837SOL    HW298409   6.953   9.115  14.403
98838SOL     OW98410   7.671   7.162   6.515
98838SOL    HW198411   7.669   7.075   6.474
98838SOL    HW298412   7.696   7.222   6.445
98839SOL     OW98413  10.518   1.832   6.124
98839SOL    HW198414  10.571   1.804   6.050
98839SOL    HW298415  10.550   1.920   6.144
98840SOL     OW98416   2.279   3.581   1.686
98840SOL    HW198417   2.301   3.570   1.778
98840SOL    HW298418   2.264   3.492   1.654
98841SOL     OW98419  10.095   6.528   1.709
98841SOL    HW198420  10.092   6.606   1.654
98841SOL    HW298421  10.104   6.562   1.798
98842SOL     OW98422  12.724   6.827   3.639
98842SOL    HW198423  12.787   6.845   3.709
98842SOL    HW298424  12.640   6.818   3.685
98843SOL     OW98425  12.595   5.513   9.113
98843SOL    HW198426  12.590   5.521   9.208
98843SOL    HW298427  12.555   5.594   9.080
98844SOL     OW98428   3.393   0.757   7.387
98844SOL    HW198429   3.361   0.846   7.404
98844SOL    HW298430   3.412   0.755   7.294
98845SOL     OW98431   9.746  11.433  13.376
98845SOL    HW198432   9.823  11.430  13.433
98845SOL    HW298433   9.694  11.357  13.402
98846SOL     OW98434  10.420  10.810  10.750
98846SOL    HW198435  10.417  10.760  10.832
98846SOL    HW298436  10.481  10.881  10.768
98847SOL     OW98437   6.583  10.440   6.584
98847SOL    HW198438   6.628  10.508   6.533
98847SOL    HW298439   6.557  10.375   6.519
98848SOL     OW98440  12.154   6.749   7.752
98848SOL    HW198441  12.155   6.837   7.713
98848SOL    HW298442  12.152   6.766   7.846
98849SOL     OW98443   7.120   8.138  11.771
98849SOL    HW198444   7.117   8.088  11.689
98849SOL    HW298445   7.213   8.156  11.784
98850SOL     OW98446   4.884   9.362  13.617
98850SOL    HW198447   4.950   9.393  13.554
98850SOL    HW298448   4.859   9.440  13.666
98851SOL     OW98449  12.009   9.166   8.311
98851SOL    HW198450  12.092   9.126   8.283
98851SOL    HW298451  11.976   9.211   8.233
98852SOL     OW98452  12.781   8.006  12.389
98852SOL    HW198453  12.789   8.097  12.361
98852SOL    HW298454  12.838   7.957  12.330
98853SOL     OW98455   7.600   2.623  12.972
98853SOL    HW198456   7.656   2.575  13.033
98853SOL    HW298457   7.639   2.608  12.886
98854SOL     OW98458   0.845   3.669  12.495
98854SOL    HW198459   0.840   3.757  12.456
98854SOL    HW298460   0.865   3.612  12.421
98855SOL     OW98461   4.102  10.422   5.464
98855SOL    HW198462   4.075  10.493   5.523
98855SOL    HW298463   4.182  10.387   5.504
98856SOL     OW98464  10.236   7.115   2.738
98856SOL    HW198465  10.164   7.070   2.783
98856SOL    HW298466  10.192   7.181   2.684
98857SOL     OW98467   6.304   4.726   2.854
98857SOL    HW198468   6.360   4.766   2.921
98857SOL    HW298469   6.227   4.783   2.851
98858SOL     OW98470   5.556  10.119  11.573
98858SOL    HW198471   5.580  10.155  11.487
98858SOL    HW298472   5.496  10.047  11.553
98859SOL     OW98473  11.324   2.410   1.836
98859SOL    HW198474  11.241   2.364   1.825
98859SOL    HW298475  11.319   2.484   1.775
98860SOL     OW98476   4.659  13.348   2.949
98860SOL    HW198477   4.565  13.360   2.935
98860SOL    HW298478   4.670  13.253   2.956
98861SOL     OW98479   6.692   0.376   4.227
98861SOL    HW198480   6.690   0.404   4.135
98861SOL    HW298481   6.699   0.457   4.277
98862SOL     OW98482  11.922  10.049   2.202
98862SOL    HW198483  11.839  10.019   2.165
98862SOL    HW298484  11.911  10.038   2.297
98863SOL     OW98485   3.326  10.816  12.844
98863SOL    HW198486   3.302  10.843  12.933
98863SOL    HW298487   3.279  10.878  12.788
98864SOL     OW98488   9.401  12.007   0.849
98864SOL    HW198489   9.428  12.092   0.814
98864SOL    HW298490   9.468  11.946   0.818
98865SOL     OW98491  11.433   8.802  13.405
98865SOL    HW198492  11.427   8.799  13.501
98865SOL    HW298493  11.525   8.785  13.387
98866SOL     OW98494   1.136   9.647  12.279
98866SOL    HW198495   1.049   9.611  12.296
98866SOL    HW298496   1.138   9.730  12.326
98867SOL     OW98497   2.805  13.434   9.666
98867SOL    HW198498   2.801  13.352   9.715
98867SOL    HW298499   2.893  13.468   9.685
98868SOL     OW98500  10.796   6.699   4.139
98868SOL    HW198501  10.809   6.764   4.070
98868SOL    HW298502  10.794   6.615   4.092
98869SOL     OW98503   6.649   0.822  10.896
98869SOL    HW198504   6.716   0.762  10.864
98869SOL    HW298505   6.649   0.894  10.833
98870SOL     OW98506  10.630   3.591  12.888
98870SOL    HW198507  10.550   3.539  12.879
98870SOL    HW298508  10.599   3.680  12.906
98871SOL     OW98509   9.938   7.412   7.095
98871SOL    HW198510   9.985   7.329   7.083
98871SOL    HW298511   9.953   7.460   7.014
98872SOL     OW98512  12.740  10.004  14.696
98872SOL    HW198513  12.751   9.920  14.740
98872SOL    HW298514  12.821  10.051  14.712
98873SOL     OW98515  10.129   2.273   3.209
98873SOL    HW198516  10.209   2.321   3.233
98873SOL    HW298517  10.147   2.182   3.234
98874SOL     OW98518   8.401   7.400   2.675
98874SOL    HW198519   8.358   7.438   2.599
98874SOL    HW298520   8.386   7.306   2.667
98875SOL     OW98521  12.449   7.293   7.416
98875SOL    HW198522  12.480   7.208   7.449
98875SOL    HW298523  12.357   7.296   7.442
98876SOL     OW98524  12.980  12.504   0.690
98876SOL    HW198525  13.041  12.577   0.699
98876SOL    HW298526  12.900  12.534   0.733
98877SOL     OW98527   5.938  12.743  10.799
98877SOL    HW198528   5.954  12.814  10.860
98877SOL    HW298529   5.893  12.784  10.725
98878SOL     OW98530   1.694  10.528   7.364
98878SOL    HW198531   1.609  10.487   7.380
98878SOL    HW298532   1.703  10.595   7.432
98879SOL     OW98533  10.777   8.283  11.082
98879SOL    HW198534  10.760   8.189  11.074
98879SOL    HW298535  10.723   8.310  11.157
98880SOL     OW98536   6.108   8.261   7.706
98880SOL    HW198537   6.075   8.321   7.639
98880SOL    HW298538   6.040   8.193   7.712
98881SOL     OW98539   0.048   9.371   2.511
98881SOL    HW198540  14.873   9.407   2.438
98881SOL    HW298541   0.091   9.447   2.550
98882SOL     OW98542  11.245  12.172  11.683
98882SOL    HW198543  11.307  12.201  11.617
98882SOL    HW298544  11.298  12.128  11.749
98883SOL     OW98545   0.985   9.447  10.492
98883SOL    HW198546   0.899   9.459  10.451
98883SOL    HW298547   1.042   9.420  10.420
98884SOL     OW98548  12.657  12.754   8.290
98884SOL    HW198549  12.561  12.752   8.296
98884SOL    HW298550  12.675  12.808   8.213
98885SOL     OW98551  12.160  11.559  11.123
98885SOL    HW198552  12.163  11.604  11.208
98885SOL    HW298553  12.143  11.630  11.060
98886SOL     OW98554   1.532  10.461  11.040
98886SOL    HW198555   1.492  10.381  11.073
98886SOL    HW298556   1.461  10.526  11.042
98887SOL     OW98557   5.950   1.476  10.887
98887SOL    HW198558   5.971   1.504  10.797
98887SOL    HW298559   6.020   1.513  10.940
98888SOL     OW98560  12.796   5.096   5.539
98888SOL    HW198561  12.744   5.085   5.618
98888SOL    HW298562  12.886   5.076   5.565
98889SOL     OW98563   7.407   8.333  11.005
98889SOL    HW198564   7.359   8.394  10.949
98889SOL    HW298565   7.354   8.253  11.003
98890SOL     OW98566   3.592   1.659  13.799
98890SOL    HW198567   3.675   1.678  13.757
98890SOL    HW298568   3.536   1.626  13.729
98891SOL     OW98569   4.829   2.812   6.186
98891SOL    HW198570   4.733   2.807   6.191
98891SOL    HW298571   4.855   2.857   6.266
98892SOL     OW98572   6.228   0.335   2.368
98892SOL    HW198573   6.322   0.331   2.349
98892SOL    HW298574   6.223   0.367   2.458
98893SOL     OW98575  14.085   2.318   3.762
98893SOL    HW198576  14.135   2.245   3.726
98893SOL    HW298577  14.128   2.338   3.845
98894SOL     OW98578  13.493  14.540   5.562
98894SOL    HW198579  13.462  14.569   5.477
98894SOL    HW298580  13.537  14.617   5.599
98895SOL     OW98581   9.047  11.557   0.966
98895SOL    HW198582   9.083  11.578   1.052
98895SOL    HW298583   9.124  11.540   0.911
98896SOL     OW98584  12.558   4.580  13.762
98896SOL    HW198585  12.540   4.673  13.752
98896SOL    HW298586  12.474   4.543  13.791
98897SOL     OW98587  13.694   7.400   3.030
98897SOL    HW198588  13.665   7.462   3.097
98897SOL    HW298589  13.625   7.334   3.026
98898SOL     OW98590   8.999   1.532  12.655
98898SOL    HW198591   8.993   1.468  12.726
98898SOL    HW298592   9.049   1.604  12.692
98899SOL     OW98593   1.049  11.622   0.304
98899SOL    HW198594   1.087  11.674   0.374
98899SOL    HW298595   1.056  11.677   0.226
98900SOL     OW98596   3.724   4.778   2.641
98900SOL    HW198597   3.815   4.792   2.665
98900SOL    HW298598   3.728   4.734   2.557
98901SOL     OW98599   4.290   8.022  14.606
98901SOL    HW198600   4.253   7.934  14.597
98901SOL    HW298601   4.359   8.026  14.539
98902SOL     OW98602  11.565   4.664   7.447
98902SOL    HW198603  11.586   4.711   7.528
98902SOL    HW298604  11.489   4.710   7.412
98903SOL     OW98605   9.854  11.749  13.721
98903SOL    HW198606   9.792  11.679  13.697
98903SOL    HW298607   9.805  11.830  13.708
98904SOL     OW98608  14.350   9.126  13.756
98904SOL    HW198609  14.394   9.184  13.693
98904SOL    HW298610  14.282   9.182  13.795
98905SOL     OW98611  12.433   9.758   3.209
98905SOL    HW198612  12.339   9.768   3.195
98905SOL    HW298613  12.455   9.824   3.274
98906SOL     OW98614   2.729   2.897   1.815
98906SOL    HW198615   2.815   2.927   1.845
98906SOL    HW298616   2.713   2.816   1.863
98907SOL     OW98617  11.527   0.062  14.425
98907SOL    HW198618  11.483   0.146  14.432
98907SOL    HW298619  11.620   0.084  14.422
98908SOL     OW98620   7.597  10.803  10.964
98908SOL    HW198621   7.616  10.885  10.917
98908SOL    HW298622   7.581  10.831  11.054
98909SOL     OW98623   8.859  12.107  14.731
98909SOL    HW198624   8.939  12.068  14.766
98909SOL    HW298625   8.829  12.046  14.664
98910SOL     OW98626  10.138   2.553   3.814
98910SOL    HW198627  10.060   2.584   3.861
98910SOL    HW298628  10.103   2.512   3.734
98911SOL     OW98629   7.695  12.538   5.428
98911SOL    HW198630   7.787  12.562   5.425
98911SOL    HW298631   7.683  12.479   5.354
98912SOL     OW98632  10.171   9.573   0.161
98912SOL    HW198633  10.082   9.598   0.186
98912SOL    HW298634  10.177   9.592   0.068
98913SOL     OW98635   6.429   1.599   3.451
98913SOL    HW198636   6.482   1.523   3.424
98913SOL    HW298637   6.470   1.673   3.406
98914SOL     OW98638  12.238   1.905  13.495
98914SOL    HW198639  12.298   1.831  13.484
98914SOL    HW298640  12.175   1.876  13.560
98915SOL     OW98641  12.911  12.963   1.923
98915SOL    HW198642  12.953  12.880   1.899
98915SOL    HW298643  12.823  12.938   1.951
98916SOL     OW98644   3.625  12.209  10.003
98916SOL    HW198645   3.534  12.181   9.990
98916SOL    HW298646   3.667  12.134  10.044
98917SOL     OW98647   5.160   5.692   0.426
98917SOL    HW198648   5.127   5.630   0.360
98917SOL    HW298649   5.127   5.777   0.398
98918SOL     OW98650  12.930  14.380   8.636
98918SOL    HW198651  12.985  14.397   8.560
98918SOL    HW298652  12.893  14.465   8.658
98919SOL     OW98653   1.582   3.276   2.834
98919SOL    HW198654   1.579   3.256   2.928
98919SOL    HW298655   1.657   3.335   2.825
98920SOL     OW98656   8.804   3.455   8.754
98920SOL    HW198657   8.867   3.432   8.686
98920SOL    HW298658   8.791   3.550   8.743
98921SOL     OW98659   1.936   1.549  12.234
98921SOL    HW198660   1.933   1.594  12.318
98921SOL    HW298661   1.845   1.537  12.209
98922SOL     OW98662  14.779  12.162   6.523
98922SOL    HW198663  14.788  12.147   6.617
98922SOL    HW298664  14.766  12.075   6.485
98923SOL     OW98665   2.836   4.494   6.402
98923SOL    HW198666   2.759   4.548   6.423
98923SOL    HW298667   2.842   4.432   6.475
98924SOL     OW98668   7.083   5.421  10.817
98924SOL    HW198669   7.158   5.385  10.769
98924SOL    HW298670   7.033   5.344  10.843
98925SOL     OW98671  14.800  10.472  12.632
98925SOL    HW198672  14.758  10.525  12.701
98925SOL    HW298673   0.012  10.453  12.667
98926SOL     OW98674  13.988   6.334  10.588
98926SOL    HW198675  13.934   6.407  10.557
98926SOL    HW298676  14.051   6.319  10.518
98927SOL     OW98677  10.706  14.081   4.738
98927SOL    HW198678  10.702  14.165   4.784
98927SOL    HW298679  10.693  14.016   4.807
98928SOL     OW98680   5.378   1.629   5.718
98928SOL    HW198681   5.368   1.558   5.654
98928SOL    HW298682   5.433   1.693   5.674
98929SOL     OW98683  12.663  14.418  14.640
98929SOL    HW198684  12.591  14.470  14.604
98929SOL    HW298685  12.656  14.430  14.735
98930SOL     OW98686  11.516  12.776  12.932
98930SOL    HW198687  11.572  12.788  12.856
98930SOL    HW298688  11.456  12.850  12.929
98931SOL     OW98689  13.335   1.808  12.329
98931SOL    HW198690  13.298   1.786  12.414
98931SOL    HW298691  13.261   1.844  12.279
98932SOL     OW98692   9.693   1.820   7.471
98932SOL    HW198693   9.760   1.874   7.513
98932SOL    HW298694   9.741   1.766   7.408
98933SOL     OW98695  14.611   1.368   1.785
98933SOL    HW198696  14.539   1.420   1.751
98933SOL    HW298697  14.623   1.298   1.721
98934SOL     OW98698   4.026   9.933   1.350
98934SOL    HW198699   4.045   9.842   1.327
98934SOL    HW298700   3.943   9.928   1.398
98935SOL     OW98701   9.908   9.649   7.613
98935SOL    HW198702   9.916   9.743   7.630
98935SOL    HW298703   9.920   9.607   7.698
98936SOL     OW98704   0.930   8.961   8.735
98936SOL    HW198705   0.854   8.903   8.744
98936SOL    HW298706   0.894   9.041   8.696
98937SOL     OW98707   3.090   5.865   7.595
98937SOL    HW198708   3.075   5.804   7.667
98937SOL    HW298709   3.159   5.826   7.543
98938SOL     OW98710  11.275   9.424  12.478
98938SOL    HW198711  11.328   9.345  12.489
98938SOL    HW298712  11.194   9.393  12.436
98939SOL     OW98713  14.278   7.121   5.608
98939SOL    HW198714  14.185   7.104   5.624
98939SOL    HW298715  14.319   7.104   5.693
98940SOL     OW98716   8.328  14.862  14.367
98940SOL    HW198717   8.288  14.793  14.420
98940SOL    HW298718   8.397  14.818  14.318
98941SOL     OW98719  13.584  12.919   5.738
98941SOL    HW198720  13.659  12.875   5.699
98941SOL    HW298721  13.554  12.980   5.671
98942SOL     OW98722  12.658   5.867  10.627
98942SOL    HW198723  12.692   5.955  10.608
98942SOL    HW298724  12.676   5.817  10.548
98943SOL     OW98725   2.170  11.372  11.500
98943SOL    HW198726   2.232  11.365  11.428
98943SOL    HW298727   2.108  11.440  11.472
98944SOL     OW98728  13.350   0.504   4.538
98944SOL    HW198729  13.301   0.441   4.590
98944SOL    HW298730  13.386   0.566   4.602
98945SOL     OW98731   0.495   6.095   2.162
98945SOL    HW198732   0.425   6.112   2.225
98945SOL    HW298733   0.455   6.039   2.096
98946SOL     OW98734   5.287   9.822  10.879
98946SOL    HW198735   5.216   9.850  10.937
98946SOL    HW298736   5.254   9.840  10.791
98947SOL     OW98737  11.722   9.312  14.639
98947SOL    HW198738  11.776   9.244  14.599
98947SOL    HW298739  11.698   9.275  14.724
98948SOL     OW98740   3.939   6.228   8.961
98948SOL    HW198741   4.022   6.257   8.923
98948SOL    HW298742   3.909   6.158   8.905
98949SOL     OW98743  13.160   0.314   6.567
98949SOL    HW198744  13.076   0.328   6.609
98949SOL    HW298745  13.222   0.304   6.639
98950SOL     OW98746   5.474  11.486  11.691
98950SOL    HW198747   5.451  11.540  11.615
98950SOL    HW298748   5.515  11.408  11.653
98951SOL     OW98749   4.628  14.797  14.503
98951SOL    HW198750   4.661  14.720  14.549
98951SOL    HW298751   4.575  14.762  14.431
98952SOL     OW98752   3.733   2.644   8.513
98952SOL    HW198753   3.734   2.615   8.422
98952SOL    HW298754   3.702   2.567   8.562
98953SOL     OW98755   9.497   9.351   8.157
98953SOL    HW198756   9.499   9.405   8.236
98953SOL    HW298757   9.423   9.291   8.171
98954SOL     OW98758   6.275  14.110  12.180
98954SOL    HW198759   6.225  14.117  12.099
98954SOL    HW298760   6.290  14.200  12.208
98955SOL     OW98761   3.474  13.755  10.634
98955SOL    HW198762   3.494  13.780  10.725
98955SOL    HW298763   3.512  13.826  10.582
98956SOL     OW98764  12.301   1.551  10.960
98956SOL    HW198765  12.300   1.518  10.870
98956SOL    HW298766  12.219   1.519  10.998
98957SOL     OW98767   1.497   7.818  11.256
98957SOL    HW198768   1.447   7.775  11.325
98957SOL    HW298769   1.449   7.797  11.176
98958SOL     OW98770  13.860   3.772   0.043
98958SOL    HW198771  13.823   3.744  14.834
98958SOL    HW298772  13.796   3.742   0.108
98959SOL     OW98773   9.205   9.117   1.144
98959SOL    HW198774   9.298   9.101   1.131
98959SOL    HW298775   9.197   9.213   1.141
98960SOL     OW98776   3.916   3.610  14.387
98960SOL    HW198777   4.002   3.614  14.345
98960SOL    HW298778   3.865   3.679  14.344
98961SOL     OW98779   3.016   8.818   2.194
98961SOL    HW198780   3.002   8.884   2.262
98961SOL    HW298781   2.957   8.747   2.218
98962SOL     OW98782   7.621  10.503   3.998
98962SOL    HW198783   7.554  10.528   4.062
98962SOL    HW298784   7.700  10.546   4.029
98963SOL     OW98785   7.276   6.905  14.550
98963SOL    HW198786   7.342   6.837  14.540
98963SOL    HW298787   7.195   6.857  14.567
98964SOL     OW98788  12.236   4.634   8.945
98964SOL    HW198789  12.199   4.567   9.003
98964SOL    HW298790  12.218   4.717   8.990
98965SOL     OW98791   8.951   3.953  13.947
98965SOL    HW198792   8.916   3.969  14.034
98965SOL    HW298793   8.934   3.860  13.930
98966SOL     OW98794  14.165  11.762   4.367
98966SOL    HW198795  14.129  11.815   4.296
98966SOL    HW298796  14.142  11.811   4.447
98967SOL     OW98797   5.683  14.047   4.510
98967SOL    HW198798   5.599  14.039   4.555
98967SOL    HW298799   5.745  14.002   4.566
98968SOL     OW98800   8.187   9.651   9.090
98968SOL    HW198801   8.243   9.715   9.047
98968SOL    HW298802   8.099   9.670   9.056
98969SOL     OW98803   7.069   9.693   4.536
98969SOL    HW198804   7.072   9.674   4.442
98969SOL    HW298805   7.057   9.787   4.542
98970SOL     OW98806   2.978   3.037   8.485
98970SOL    HW198807   2.984   2.998   8.398
98970SOL    HW298808   2.896   3.085   8.485
98971SOL     OW98809   5.905   2.593   1.814
98971SOL    HW198810   5.993   2.587   1.850
98971SOL    HW298811   5.847   2.584   1.890
98972SOL     OW98812  10.007   7.581   5.464
98972SOL    HW198813  10.030   7.565   5.556
98972SOL    HW298814   9.932   7.524   5.448
98973SOL     OW98815   6.131   7.601   8.404
98973SOL    HW198816   6.094   7.616   8.317
98973SOL    HW298817   6.188   7.525   8.393
98974SOL     OW98818  10.586  10.999   2.281
98974SOL    HW198819  10.657  11.050   2.242
98974SOL    HW298820  10.584  10.918   2.230
98975SOL     OW98821   9.736   0.246  13.207
98975SOL    HW198822   9.769   0.334  13.220
98975SOL    HW298823   9.660   0.239  13.265
98976SOL     OW98824   2.774   9.049  14.188
98976SOL    HW198825   2.825   9.006  14.258
98976SOL    HW298826   2.694   9.077  14.231
98977SOL     OW98827  13.254  14.824   7.095
98977SOL    HW198828  13.296  14.838   7.180
98977SOL    HW298829  13.198  14.748   7.109
98978SOL     OW98830   6.893   4.221   5.325
98978SOL    HW198831   6.822   4.271   5.364
98978SOL    HW298832   6.850   4.153   5.274
98979SOL     OW98833   5.886   6.188   6.850
98979SOL    HW198834   5.910   6.234   6.770
98979SOL    HW298835   5.854   6.103   6.820
98980SOL     OW98836   3.410  13.067   2.202
98980SOL    HW198837   3.443  13.066   2.112
98980SOL    HW298838   3.443  12.986   2.241
98981SOL     OW98839  10.676   3.060   6.945
98981SOL    HW198840  10.721   3.109   7.014
98981SOL    HW298841  10.608   3.010   6.992
98982SOL     OW98842  12.289   3.858   9.067
98982SOL    HW198843  12.207   3.828   9.107
98982SOL    HW298844  12.349   3.784   9.079
98983SOL     OW98845   0.155   1.979  13.856
98983SOL    HW198846   0.247   1.957  13.842
98983SOL    HW298847   0.134   2.039  13.785
98984SOL     OW98848   8.506   8.512   7.375
98984SOL    HW198849   8.424   8.519   7.326
98984SOL    HW298850   8.484   8.542   7.463
98985SOL     OW98851   0.075   5.620   3.784
98985SOL    HW198852   0.135   5.679   3.830
98985SOL    HW298853   0.008   5.677   3.747
98986SOL     OW98854  14.729  12.980  13.161
98986SOL    HW198855  14.639  12.967  13.132
98986SOL    HW298856  14.722  12.992  13.256
98987SOL     OW98857  11.791   0.661   2.113
98987SOL    HW198858  11.757   0.717   2.183
98987SOL    HW298859  11.865   0.710   2.078
98988SOL     OW98860   1.210  10.479   4.691
98988SOL    HW198861   1.303  10.486   4.714
98988SOL    HW298862   1.165  10.471   4.775
98989SOL     OW98863  14.527  12.884   1.605
98989SOL    HW198864  14.618  12.910   1.621
98989SOL    HW298865  14.509  12.911   1.515
98990SOL     OW98866   3.194   7.185   4.041
98990SOL    HW198867   3.181   7.119   4.109
98990SOL    HW298868   3.106   7.211   4.015
98991SOL     OW98869   8.142   5.821  12.509
98991SOL    HW198870   8.097   5.745  12.546
98991SOL    HW298871   8.091   5.842  12.430
98992SOL     OW98872   5.043   2.232   0.535
98992SOL    HW198873   4.951   2.255   0.544
98992SOL    HW298874   5.073   2.279   0.457
98993SOL     OW98875   6.391  14.743   6.952
98993SOL    HW198876   6.369  14.654   6.982
98993SOL    HW298877   6.486  14.743   6.946
98994SOL     OW98878   3.546   0.065   0.223
98994SOL    HW198879   3.513   0.101   0.141
98994SOL    HW298880   3.626   0.018   0.198
98995SOL     OW98881   1.645   5.334   5.451
98995SOL    HW198882   1.626   5.267   5.385
98995SOL    HW298883   1.596   5.305   5.528
98996SOL     OW98884  10.300   0.654   1.452
98996SOL    HW198885  10.226   0.602   1.422
98996SOL    HW298886  10.287   0.740   1.411
98997SOL     OW98887   0.506  11.632   7.477
98997SOL    HW198888   0.481  11.544   7.448
98997SOL    HW298889   0.572  11.660   7.413
98998SOL     OW98890   8.520   0.468  14.799
98998SOL    HW198891   8.525   0.383  14.756
98998SOL    HW298892   8.607   0.481  14.836
98999SOL     OW98893   5.264  11.226   7.238
98999SOL    HW198894   5.271  11.258   7.328
98999SOL    HW298895   5.175  11.191   7.232
99000SOL     OW98896   1.141  10.695   1.357
99000SOL    HW198897   1.193  10.774   1.371
99000SOL    HW298898   1.204  10.624   1.368
99001SOL     OW98899   6.621  11.031  13.618
99001SOL    HW198900   6.681  11.013  13.546
99001SOL    HW298901   6.543  11.069  13.576
99002SOL     OW98902   9.188   9.852   7.927
99002SOL    HW198903   9.152   9.764   7.933
99002SOL    HW298904   9.260   9.853   7.990
99003SOL     OW98905   8.578   5.002   3.255
99003SOL    HW198906   8.484   4.993   3.238
99003SOL    HW298907   8.596   4.944   3.329
99004SOL     OW98908   0.768  10.862  13.100
99004SOL    HW198909   0.741  10.886  13.011
99004SOL    HW298910   0.854  10.821  13.089
99005SOL     OW98911   8.886   6.279   6.145
99005SOL    HW198912   8.950   6.342   6.176
99005SOL    HW298913   8.809   6.294   6.201
99006SOL     OW98914  13.443   0.687  14.712
99006SOL    HW198915  13.441   0.756  14.778
99006SOL    HW298916  13.535   0.662  14.706
99007SOL     OW98917   7.110  11.883  10.883
99007SOL    HW198918   7.073  11.971  10.890
99007SOL    HW298919   7.171  11.888  10.809
99008SOL     OW98920   2.451   8.110  10.035
99008SOL    HW198921   2.539   8.146  10.039
99008SOL    HW298922   2.405   8.151  10.108
99009SOL     OW98923   8.606  12.031  10.533
99009SOL    HW198924   8.661  12.007  10.607
99009SOL    HW298925   8.649  11.994  10.457
99010SOL     OW98926   7.250  10.614   7.442
99010SOL    HW198927   7.312  10.545   7.466
99010SOL    HW298928   7.237  10.664   7.523
99011SOL     OW98929   8.686   0.001  11.222
99011SOL    HW198930   8.634  14.824  11.284
99011SOL    HW298931   8.741  14.812  11.177
99012SOL     OW98932   2.677  10.017   6.817
99012SOL    HW198933   2.640   9.977   6.896
99012SOL    HW298934   2.728  10.091   6.849
99013SOL     OW98935  14.051   1.503   9.140
99013SOL    HW198936  13.965   1.496   9.180
99013SOL    HW298937  14.034   1.534   9.052
99014SOL     OW98938   8.792   9.230   8.099
99014SOL    HW198939   8.750   9.187   8.174
99014SOL    HW298940   8.721   9.275   8.054
99015SOL     OW98941  11.989   7.868   3.386
99015SOL    HW198942  12.042   7.818   3.324
99015SOL    HW298943  12.033   7.857   3.470
99016SOL     OW98944  11.223  14.158  14.648
99016SOL    HW198945  11.277  14.138  14.724
99016SOL    HW298946  11.261  14.105  14.577
99017SOL     OW98947   1.114   0.679   3.956
99017SOL    HW198948   1.049   0.609   3.949
99017SOL    HW298949   1.140   0.677   4.048
99018SOL     OW98950   0.947   6.024   4.157
99018SOL    HW198951   1.005   6.054   4.087
99018SOL    HW298952   0.969   5.931   4.168
99019SOL     OW98953  13.378   8.812  10.371
99019SOL    HW198954  13.454   8.867  10.386
99019SOL    HW298955  13.399   8.762  10.292
99020SOL     OW98956  11.757   9.394   4.015
99020SOL    HW198957  11.797   9.308   3.999
99020SOL    HW298958  11.786   9.417   4.103
99021SOL     OW98959   5.319  11.107  14.338
99021SOL    HW198960   5.350  11.137  14.252
99021SOL    HW298961   5.277  11.183  14.376
99022SOL     OW98962   4.441  10.340  13.946
99022SOL    HW198963   4.445  10.246  13.967
99022SOL    HW298964   4.375  10.375  14.006
99023SOL     OW98965   6.169   8.686   5.276
99023SOL    HW198966   6.237   8.622   5.253
99023SOL    HW298967   6.108   8.684   5.202
99024SOL     OW98968  12.309   1.679   6.438
99024SOL    HW198969  12.298   1.693   6.532
99024SOL    HW298970  12.223   1.699   6.401
99025SOL     OW98971  11.793   2.769   0.814
99025SOL    HW198972  11.844   2.737   0.888
99025SOL    HW298973  11.788   2.694   0.754
99026SOL     OW98974  14.478   6.487   1.438
99026SOL    HW198975  14.443   6.574   1.414
99026SOL    HW298976  14.463   6.480   1.532
99027SOL     OW98977  14.652   6.006  11.970
99027SOL    HW198978  14.568   5.993  12.013
99027SOL    HW298979  14.662   6.101  11.965
99028SOL     OW98980   0.475   9.612   8.698
99028SOL    HW198981   0.469   9.705   8.674
99028SOL    HW298982   0.499   9.613   8.790
99029SOL     OW98983   5.042  13.913   4.645
99029SOL    HW198984   4.984  13.842   4.619
99029SOL    HW298985   4.990  13.966   4.706
99030SOL     OW98986  10.309   9.538   2.992
99030SOL    HW198987  10.321   9.518   2.899
99030SOL    HW298988  10.368   9.611   3.009
99031SOL     OW98989   1.684   5.610   2.190
99031SOL    HW198990   1.762   5.648   2.231
99031SOL    HW298991   1.710   5.594   2.099
99032SOL     OW98992  10.996  10.531   4.049
99032SOL    HW198993  10.908  10.560   4.023
99032SOL    HW298994  11.055  10.595   4.009
99033SOL     OW98995  11.797  10.285  12.756
99033SOL    HW198996  11.789  10.353  12.689
99033SOL    HW298997  11.872  10.312  12.809
99034SOL     OW98998   9.285   8.644   5.235
99034SOL    HW198999   9.378   8.664   5.230
99034SOL    HW299000   9.260   8.668   5.325
99035SOL     OW99001   3.240   2.785   6.745
99035SOL    HW199002   3.261   2.811   6.835
99035SOL    HW299003   3.277   2.854   6.691
99036SOL     OW99004  14.342   2.099   1.811
99036SOL    HW199005  14.327   2.168   1.877
99036SOL    HW299006  14.254   2.072   1.785
99037SOL     OW99007  11.783   2.886   8.455
99037SOL    HW199008  11.804   2.976   8.480
99037SOL    HW299009  11.798   2.835   8.535
99038SOL     OW99010   2.804   1.894   2.675
99038SOL    HW199011   2.900   1.903   2.672
99038SOL    HW299012   2.789   1.799   2.674
99039SOL     OW99013   0.784   4.856   9.657
99039SOL    HW199014   0.871   4.888   9.682
99039SOL    HW299015   0.798   4.811   9.574
99040SOL     OW99016   4.385  12.157  10.770
99040SOL    HW199017   4.397  12.105  10.849
99040SOL    HW299018   4.358  12.093  10.704
99041SOL     OW99019   8.524   2.454   3.022
99041SOL    HW199020   8.596   2.456   2.958
99041SOL    HW299021   8.563   2.416   3.100
99042SOL     OW99022  13.606   7.918   4.296
99042SOL    HW199023  13.580   7.995   4.346
99042SOL    HW299024  13.662   7.951   4.226
99043SOL     OW99025  12.720   3.316  14.096
99043SOL    HW199026  12.812   3.342  14.093
99043SOL    HW299027  12.685   3.359  14.175
99044SOL     OW99028  11.554  14.701   9.008
99044SOL    HW199029  11.572  14.611   9.035
99044SOL    HW299030  11.460  14.702   8.989
99045SOL     OW99031  11.288   8.733   1.879
99045SOL    HW199032  11.197   8.752   1.900
99045SOL    HW299033  11.283   8.682   1.798
99046SOL     OW99034   5.954   8.006   0.705
99046SOL    HW199035   5.960   7.914   0.732
99046SOL    HW299036   5.909   8.003   0.621
99047SOL     OW99037   3.870  13.677   2.712
99047SOL    HW199038   3.936  13.621   2.751
99047SOL    HW299039   3.790  13.625   2.713
99048SOL     OW99040   4.590  13.813   4.067
99048SOL    HW199041   4.673  13.849   4.099
99048SOL    HW299042   4.529  13.887   4.069
99049SOL     OW99043   5.383   7.737   6.177
99049SOL    HW199044   5.455   7.799   6.169
99049SOL    HW299045   5.357   7.742   6.269
99050SOL     OW99046   0.508   4.154   7.528
99050SOL    HW199047   0.482   4.073   7.571
99050SOL    HW299048   0.431   4.181   7.477
99051SOL     OW99049   3.181  10.268   3.514
99051SOL    HW199050   3.206  10.179   3.539
99051SOL    HW299051   3.184  10.317   3.596
99052SOL     OW99052  11.999   7.732   2.249
99052SOL    HW199053  12.037   7.646   2.267
99052SOL    HW299054  12.074   7.786   2.223
99053SOL     OW99055   1.959  10.674  10.869
99053SOL    HW199056   2.034  10.669  10.811
99053SOL    HW299057   1.992  10.644  10.954
99054SOL     OW99058  14.135   8.100   3.181
99054SOL    HW199059  14.191   8.173   3.155
99054SOL    HW299060  14.164   8.078   3.270
99055SOL     OW99061  10.330   8.627   0.388
99055SOL    HW199062  10.423   8.606   0.389
99055SOL    HW299063  10.317   8.675   0.306
99056SOL     OW99064   7.159  12.688  12.371
99056SOL    HW199065   7.218  12.692  12.296
99056SOL    HW299066   7.074  12.664  12.333
99057SOL     OW99067  13.475   0.706  10.906
99057SOL    HW199068  13.432   0.621  10.902
99057SOL    HW299069  13.407   0.766  10.936
99058SOL     OW99070  13.081   3.564   5.972
99058SOL    HW199071  13.150   3.544   6.034
99058SOL    HW299072  13.052   3.478   5.940
99059SOL     OW99073   1.609   9.486   7.837
99059SOL    HW199074   1.697   9.457   7.814
99059SOL    HW299075   1.608   9.579   7.815
99060SOL     OW99076   5.930  11.292   0.993
99060SOL    HW199077   5.985  11.272   0.918
99060SOL    HW299078   5.933  11.213   1.047
99061SOL     OW99079  11.524   7.732   6.100
99061SOL    HW199080  11.438   7.690   6.100
99061SOL    HW299081  11.509   7.816   6.054
99062SOL     OW99082  10.157  13.573   1.216
99062SOL    HW199083  10.139  13.514   1.290
99062SOL    HW299084  10.246  13.551   1.188
99063SOL     OW99085   6.158   1.410   4.581
99063SOL    HW199086   6.227   1.378   4.523
99063SOL    HW299087   6.095   1.452   4.522
99064SOL     OW99088   2.900  14.439   0.823
99064SOL    HW199089   2.857  14.373   0.769
99064SOL    HW299090   2.899  14.402   0.912
99065SOL     OW99091   3.765  11.440  13.720
99065SOL    HW199092   3.717  11.464  13.800
99065SOL    HW299093   3.759  11.345  13.716
99066SOL     OW99094  10.923   0.130   6.541
99066SOL    HW199095  10.916   0.153   6.449
99066SOL    HW299096  10.842   0.082   6.560
99067SOL     OW99097  11.867   5.886  10.248
99067SOL    HW199098  11.798   5.857  10.307
99067SOL    HW299099  11.891   5.972  10.281
99068SOL     OW99100   2.466   2.582  13.104
99068SOL    HW199101   2.445   2.497  13.065
99068SOL    HW299102   2.385   2.609  13.147
99069SOL     OW99103   0.339   3.242   8.636
99069SOL    HW199104   0.331   3.149   8.654
99069SOL    HW299105   0.253   3.267   8.600
99070SOL     OW99106   5.542  13.528  10.351
99070SOL    HW199107   5.631  13.492  10.347
99070SOL    HW299108   5.486  13.452  10.335
99071SOL     OW99109   6.948  13.766   1.299
99071SOL    HW199110   6.884  13.750   1.368
99071SOL    HW299111   6.910  13.838   1.248
99072SOL     OW99112   4.930   5.087   0.450
99072SOL    HW199113   4.996   5.107   0.517
99072SOL    HW299114   4.860   5.044   0.498
99073SOL     OW99115   9.544  14.471   2.058
99073SOL    HW199116   9.586  14.556   2.047
99073SOL    HW299117   9.495  14.478   2.140
99074SOL     OW99118   9.631   8.252   6.236
99074SOL    HW199119   9.604   8.253   6.327
99074SOL    HW299120   9.553   8.223   6.188
99075SOL     OW99121   8.255  11.855   2.026
99075SOL    HW199122   8.329  11.901   2.066
99075SOL    HW299123   8.180  11.881   2.080
99076SOL     OW99124   3.154   5.350  12.014
99076SOL    HW199125   3.229   5.388  11.968
99076SOL    HW299126   3.091   5.331  11.945
99077SOL     OW99127   4.580   3.415  13.601
99077SOL    HW199128   4.667   3.385  13.576
99077SOL    HW299129   4.539   3.442  13.519
99078SOL     OW99130   8.641   0.816  10.480
99078SOL    HW199131   8.630   0.726  10.448
99078SOL    HW299132   8.573   0.825  10.548
99079SOL     OW99133   1.935  14.486   7.945
99079SOL    HW199134   1.990  14.417   7.908
99079SOL    HW299135   1.855  14.483   7.893
99080SOL     OW99136   3.391   4.392   8.312
99080SOL    HW199137   3.460   4.390   8.378
99080SOL    HW299138   3.417   4.326   8.248
99081SOL     OW99139   1.051   5.572   3.447
99081SOL    HW199140   1.121   5.507   3.437
99081SOL    HW299141   0.991   5.554   3.374
99082SOL     OW99142   6.019  14.650   6.667
99082SOL    HW199143   5.995  14.599   6.590
99082SOL    HW299144   6.079  14.594   6.716
99083SOL     OW99145   6.280   9.786  12.183
99083SOL    HW199146   6.284   9.856  12.118
99083SOL    HW299147   6.246   9.829  12.262
99084SOL     OW99148   4.563   1.072  14.462
99084SOL    HW199149   4.525   0.993  14.423
99084SOL    HW299150   4.640   1.091  14.409
99085SOL     OW99151  14.467   9.375  11.061
99085SOL    HW199152  14.488   9.468  11.070
99085SOL    HW299153  14.395   9.360  11.121
99086SOL     OW99154   7.856   0.336   5.860
99086SOL    HW199155   7.767   0.308   5.835
99086SOL    HW299156   7.885   0.392   5.789
99087SOL     OW99157   4.003   2.672   8.941
99087SOL    HW199158   4.098   2.676   8.949
99087SOL    HW299159   3.986   2.682   8.847
99088SOL     OW99160   3.961   7.273  14.677
99088SOL    HW199161   4.027   7.244  14.740
99088SOL    HW299162   3.879   7.275  14.728
99089SOL     OW99163   5.648  11.708   7.850
99089SOL    HW199164   5.577  11.757   7.892
99089SOL    HW299165   5.631  11.718   7.756
99090SOL     OW99166  12.276   6.743  12.247
99090SOL    HW199167  12.270   6.830  12.208
99090SOL    HW299168  12.188   6.725  12.279
99091SOL     OW99169   7.753  14.191   1.058
99091SOL    HW199170   7.658  14.203   1.064
99091SOL    HW299171   7.768  14.099   1.079
99092SOL     OW99172   1.563   5.850   1.360
99092SOL    HW199173   1.620   5.787   1.403
99092SOL    HW299174   1.621   5.922   1.336
99093SOL     OW99175   9.865   6.349   0.651
99093SOL    HW199176   9.837   6.414   0.586
99093SOL    HW299177   9.868   6.266   0.603
99094SOL     OW99178   5.736  13.784   5.536
99094SOL    HW199179   5.645  13.768   5.560
99094SOL    HW299180   5.744  13.747   5.448
99095SOL     OW99181   6.363   5.481   6.371
99095SOL    HW199182   6.411   5.425   6.309
99095SOL    HW299183   6.371   5.435   6.455
99096SOL     OW99184   5.995   6.038   0.295
99096SOL    HW199185   5.964   6.124   0.265
99096SOL    HW299186   6.016   5.991   0.214
99097SOL     OW99187   7.254   6.979   5.279
99097SOL    HW199188   7.341   6.982   5.241
99097SOL    HW299189   7.201   6.932   5.215
99098SOL     OW99190  12.558   4.338  12.484
99098SOL    HW199191  12.598   4.346  12.570
99098SOL    HW299192  12.623   4.375  12.424
99099SOL     OW99193   7.150   6.248   7.149
99099SOL    HW199194   7.117   6.282   7.066
99099SOL    HW299195   7.159   6.326   7.204
99100SOL     OW99196  11.550  14.129   3.857
99100SOL    HW199197  11.587  14.108   3.772
99100SOL    HW299198  11.511  14.046   3.887
99101SOL     OW99199  14.206   9.787  12.684
99101SOL    HW199200  14.168   9.701  12.665
99101SOL    HW299201  14.130   9.844  12.695
99102SOL     OW99202   5.133   8.292  14.450
99102SOL    HW199203   5.091   8.365  14.404
99102SOL    HW299204   5.118   8.311  14.542
99103SOL     OW99205  13.446  13.888  10.250
99103SOL    HW199206  13.476  13.979  10.240
99103SOL    HW299207  13.379  13.891  10.318
99104SOL     OW99208  14.620   6.945   2.785
99104SOL    HW199209  14.570   7.018   2.821
99104SOL    HW299210  14.633   6.886   2.859
99105SOL     OW99211  11.229   5.682   6.388
99105SOL    HW199212  11.289   5.756   6.394
99105SOL    HW299213  11.277   5.608   6.424
99106SOL     OW99214   5.149   9.192   4.678
99106SOL    HW199215   5.149   9.278   4.634
99106SOL    HW299216   5.240   9.162   4.669
99107SOL     OW99217   4.300   5.483   8.864
99107SOL    HW199218   4.275   5.545   8.795
99107SOL    HW299219   4.217   5.440   8.888
99108SOL     OW99220   0.321   9.569  12.995
99108SOL    HW199221   0.246   9.597  12.942
99108SOL    HW299222   0.282   9.531  13.074
99109SOL     OW99223   9.383   2.955   1.294
99109SOL    HW199224   9.377   3.049   1.315
99109SOL    HW299225   9.463   2.947   1.243
99110SOL     OW99226   7.576  14.757   2.937
99110SOL    HW199227   7.482  14.766   2.926
99110SOL    HW299228   7.592  14.662   2.931
99111SOL     OW99229   7.508   5.318  12.535
99111SOL    HW199230   7.530   5.287  12.448
99111SOL    HW299231   7.444   5.388  12.520
99112SOL     OW99232   8.972  10.981   4.936
99112SOL    HW199233   8.981  10.886   4.942
99112SOL    HW299234   8.915  11.005   5.009
99113SOL     OW99235  14.460   4.863   1.434
99113SOL    HW199236  14.488   4.893   1.521
99113SOL    HW299237  14.410   4.783   1.451
99114SOL     OW99238   4.293   0.864   9.759
99114SOL    HW199239   4.322   0.902   9.676
99114SOL    HW299240   4.197   0.861   9.752
99115SOL     OW99241   2.828   6.550  11.254
99115SOL    HW199242   2.774   6.526  11.330
99115SOL    HW299243   2.907   6.495  11.263
99116SOL     OW99244  11.424   6.690   1.744
99116SOL    HW199245  11.363   6.619   1.723
99116SOL    HW299246  11.430   6.741   1.663
99117SOL     OW99247   8.819   7.851   3.286
99117SOL    HW199248   8.762   7.893   3.350
99117SOL    HW299249   8.805   7.900   3.205
99118SOL     OW99250   3.901   3.308   5.978
99118SOL    HW199251   3.991   3.288   5.953
99118SOL    HW299252   3.897   3.403   5.981
99119SOL     OW99253  12.261  12.773  13.167
99119SOL    HW199254  12.173  12.777  13.206
99119SOL    HW299255  12.319  12.759  13.242
99120SOL     OW99256   5.677   2.374   5.921
99120SOL    HW199257   5.624   2.397   5.998
99120SOL    HW299258   5.634   2.419   5.849
99121SOL     OW99259   0.035  10.605   8.146
99121SOL    HW199260   0.002  10.655   8.221
99121SOL    HW299261   0.033  10.667   8.073
99122SOL     OW99262  10.226   1.220  10.412
99122SOL    HW199263  10.302   1.193  10.463
99122SOL    HW299264  10.250   1.202  10.321
99123SOL     OW99265   5.442   1.110  14.846
99123SOL    HW199266   5.453   1.205  14.841
99123SOL    HW299267   5.503   1.083   0.040
99124SOL     OW99268   3.241   2.509   3.824
99124SOL    HW199269   3.162   2.481   3.870
99124SOL    HW299270   3.239   2.604   3.828
99125SOL     OW99271  10.462   0.296  10.308
99125SOL    HW199272  10.465   0.392  10.305
99125SOL    HW299273  10.371   0.274  10.286
99126SOL     OW99274   4.848  12.400   6.594
99126SOL    HW199275   4.914  12.431   6.532
99126SOL    HW299276   4.883  12.317   6.626
99127SOL     OW99277  10.306   4.150   4.780
99127SOL    HW199278  10.360   4.143   4.859
99127SOL    HW299279  10.251   4.226   4.795
99128SOL     OW99280   4.941   1.613   1.857
99128SOL    HW199281   4.880   1.558   1.807
99128SOL    HW299282   5.027   1.576   1.837
99129SOL     OW99283  14.346   9.334   1.559
99129SOL    HW199284  14.435   9.309   1.584
99129SOL    HW299285  14.335   9.299   1.471
99130SOL     OW99286  11.374   3.304   2.855
99130SOL    HW199287  11.289   3.344   2.835
99130SOL    HW299288  11.379   3.305   2.951
99131SOL     OW99289   4.040   3.380   1.862
99131SOL    HW199290   3.968   3.336   1.907
99131SOL    HW299291   4.017   3.375   1.769
99132SOL     OW99292  14.843  14.080   5.528
99132SOL    HW199293  14.770  14.064   5.589
99132SOL    HW299294   0.021  14.000   5.533
99133SOL     OW99295  11.204  11.150   2.825
99133SOL    HW199296  11.174  11.210   2.894
99133SOL    HW299297  11.276  11.198   2.782
99134SOL     OW99298  14.623  10.464   0.528
99134SOL    HW199299  14.555  10.459   0.595
99134SOL    HW299300  14.683  10.531   0.560
99135SOL     OW99301   9.278   0.330  10.072
99135SOL    HW199302   9.214   0.262  10.048
99135SOL    HW299303   9.224   0.404  10.100
99136SOL     OW99304   5.061   5.597  10.274
99136SOL    HW199305   5.045   5.644  10.356
99136SOL    HW299306   5.151   5.564  10.283
99137SOL     OW99307   1.347   1.826   1.347
99137SOL    HW199308   1.385   1.759   1.405
99137SOL    HW299309   1.374   1.909   1.385
99138SOL     OW99310   2.573   6.106   5.226
99138SOL    HW199311   2.650   6.126   5.173
99138SOL    HW299312   2.513   6.063   5.165
99139SOL     OW99313   9.223   6.885  11.005
99139SOL    HW199314   9.290   6.842  10.951
99139SOL    HW299315   9.216   6.830  11.083
99140SOL     OW99316   2.465   6.779   9.954
99140SOL    HW199317   2.498   6.841   9.888
99140SOL    HW299318   2.465   6.829  10.036
99141SOL     OW99319   0.422   1.324   5.330
99141SOL    HW199320   0.373   1.242   5.332
99141SOL    HW299321   0.355   1.392   5.335
99142SOL     OW99322   1.978  11.464   7.364
99142SOL    HW199323   2.047  11.512   7.408
99142SOL    HW299324   1.900  11.520   7.373
99143SOL     OW99325   9.751  12.445   7.954
99143SOL    HW199326   9.733  12.354   7.930
99143SOL    HW299327   9.739  12.494   7.873
99144SOL     OW99328  12.182  12.840   7.420
99144SOL    HW199329  12.210  12.932   7.410
99144SOL    HW299330  12.106  12.831   7.363
99145SOL     OW99331   5.646   4.293   1.782
99145SOL    HW199332   5.590   4.220   1.759
99145SOL    HW299333   5.603   4.335   1.856
99146SOL     OW99334   0.236   4.388   9.920
99146SOL    HW199335   0.274   4.300   9.913
99146SOL    HW299336   0.271   4.435   9.844
99147SOL     OW99337  13.839   7.467   0.311
99147SOL    HW199338  13.857   7.475   0.217
99147SOL    HW299339  13.882   7.543   0.349
99148SOL     OW99340   8.144  13.007   6.834
99148SOL    HW199341   8.156  12.967   6.748
99148SOL    HW299342   8.109  13.094   6.815
99149SOL     OW99343   0.533  13.211   8.570
99149SOL    HW199344   0.606  13.273   8.571
99149SOL    HW299345   0.460  13.258   8.611
99150SOL     OW99346  12.852   1.651   4.328
99150SOL    HW199347  12.792   1.671   4.400
99150SOL    HW299348  12.934   1.694   4.351
99151SOL     OW99349  13.524  11.406  12.025
99151SOL    HW199350  13.563  11.332  12.071
99151SOL    HW299351  13.458  11.440  12.085
99152SOL     OW99352   8.871   8.651   3.403
99152SOL    HW199353   8.873   8.601   3.485
99152SOL    HW299354   8.824   8.594   3.342
99153SOL     OW99355   4.808  10.191   2.090
99153SOL    HW199356   4.749  10.198   2.015
99153SOL    HW299357   4.829  10.098   2.095
99154SOL     OW99358   5.862  11.400   0.367
99154SOL    HW199359   5.843  11.387   0.274
99154SOL    HW299360   5.790  11.456   0.398
99155SOL     OW99361   6.754   3.962   6.782
99155SOL    HW199362   6.724   4.030   6.723
99155SOL    HW299363   6.722   3.988   6.868
99156SOL     OW99364   6.927  12.149   6.962
99156SOL    HW199365   6.933  12.088   6.889
99156SOL    HW299366   6.844  12.128   7.005
99157SOL     OW99367  11.455   3.135   0.238
99157SOL    HW199368  11.510   3.069   0.195
99157SOL    HW299369  11.376   3.138   0.184
99158SOL     OW99370   7.629   2.868  13.241
99158SOL    HW199371   7.550   2.827  13.206
99158SOL    HW299372   7.599   2.951  13.278
99159SOL     OW99373  11.096   4.642  10.021
99159SOL    HW199374  11.142   4.604   9.946
99159SOL    HW299375  11.007   4.606  10.014
99160SOL     OW99376   6.167   9.752   8.838
99160SOL    HW199377   6.240   9.759   8.899
99160SOL    HW299378   6.138   9.843   8.825
99161SOL     OW99379   7.221   0.471   6.425
99161SOL    HW199380   7.256   0.434   6.344
99161SOL    HW299381   7.281   0.441   6.493
99162SOL     OW99382  12.352   6.352  10.120
99162SOL    HW199383  12.309   6.433  10.146
99162SOL    HW299384  12.440   6.378  10.095
99163SOL     OW99385   6.398  12.359  11.342
99163SOL    HW199386   6.318  12.312  11.319
99163SOL    HW299387   6.401  12.358  11.438
99164SOL     OW99388  13.960   2.700   8.602
99164SOL    HW199389  14.000   2.782   8.631
99164SOL    HW299390  14.028   2.658   8.549
99165SOL     OW99391  10.770   2.467   3.384
99165SOL    HW199392  10.860   2.438   3.369
99165SOL    HW299393  10.752   2.443   3.475
99166SOL     OW99394   6.248   2.781  12.294
99166SOL    HW199395   6.154   2.782  12.279
99166SOL    HW299396   6.262   2.851  12.359
99167SOL     OW99397  14.142   6.335   4.572
99167SOL    HW199398  14.204   6.274   4.534
99167SOL    HW299399  14.142   6.315   4.666
99168SOL     OW99400  12.850  11.155   2.754
99168SOL    HW199401  12.869  11.242   2.717
99168SOL    HW299402  12.820  11.103   2.680
99169SOL     OW99403   8.643   1.140  13.547
99169SOL    HW199404   8.650   1.199  13.623
99169SOL    HW299405   8.732   1.135  13.512
99170SOL     OW99406  11.451  13.115   9.937
99170SOL    HW199407  11.484  13.149   9.854
99170SOL    HW299408  11.365  13.080   9.917
99171SOL     OW99409   6.436   8.309  14.379
99171SOL    HW199410   6.346   8.322  14.409
99171SOL    HW299411   6.490   8.349  14.447
99172SOL     OW99412  11.617  13.382  12.116
99172SOL    HW199413  11.588  13.330  12.041
99172SOL    HW299414  11.693  13.431  12.083
99173SOL     OW99415   1.615  11.974   2.680
99173SOL    HW199416   1.586  11.914   2.611
99173SOL    HW299417   1.654  12.047   2.634
99174SOL     OW99418   0.904   3.403  13.515
99174SOL    HW199419   0.868   3.315  13.529
99174SOL    HW299420   0.927   3.434  13.602
99175SOL     OW99421   9.081   1.334   5.438
99175SOL    HW199422   9.047   1.420   5.466
99175SOL    HW299423   9.070   1.335   5.343
99176SOL     OW99424  13.897  11.166  10.581
99176SOL    HW199425  13.876  11.228  10.650
99176SOL    HW299426  13.833  11.095  10.592
99177SOL     OW99427   8.259   4.932  10.438
99177SOL    HW199428   8.198   4.917  10.510
99177SOL    HW299429   8.282   5.025  10.445
99178SOL     OW99430   0.706  12.095  12.535
99178SOL    HW199431   0.688  12.169  12.592
99178SOL    HW299432   0.734  12.025  12.595
99179SOL     OW99433   7.612   2.452  11.343
99179SOL    HW199434   7.587   2.510  11.271
99179SOL    HW299435   7.687   2.496  11.384
99180SOL     OW99436   8.276  11.582   8.931
99180SOL    HW199437   8.229  11.637   8.993
99180SOL    HW299438   8.335  11.642   8.886
99181SOL     OW99439   8.735  14.670  12.790
99181SOL    HW199440   8.675  14.739  12.820
99181SOL    HW299441   8.777  14.639  12.870
99182SOL     OW99442   7.115  10.308   0.007
99182SOL    HW199443   7.128  10.313  14.787
99182SOL    HW299444   7.160  10.386   0.041
99183SOL     OW99445   9.670  13.734   1.098
99183SOL    HW199446   9.734  13.777   1.154
99183SOL    HW299447   9.711  13.651   1.073
99184SOL     OW99448   1.797   2.135  10.452
99184SOL    HW199449   1.829   2.052  10.417
99184SOL    HW299450   1.876   2.184  10.473
99185SOL     OW99451   7.913  14.565   5.696
99185SOL    HW199452   8.001  14.556   5.660
99185SOL    HW299453   7.856  14.576   5.620
99186SOL     OW99454   3.404  13.906   1.511
99186SOL    HW199455   3.322  13.856   1.517
99186SOL    HW299456   3.429  13.920   1.602
99187SOL     OW99457   6.766  12.545   4.901
99187SOL    HW199458   6.846  12.559   4.850
99187SOL    HW299459   6.791  12.568   4.991
99188SOL     OW99460   6.576   6.357  10.219
99188SOL    HW199461   6.567   6.451  10.202
99188SOL    HW299462   6.626   6.351  10.300
99189SOL     OW99463  12.965   6.250   4.885
99189SOL    HW199464  13.015   6.187   4.936
99189SOL    HW299465  12.976   6.223   4.794
99190SOL     OW99466  10.501   1.765   8.817
99190SOL    HW199467  10.464   1.707   8.884
99190SOL    HW299468  10.544   1.835   8.867
99191SOL     OW99469   7.052   3.402   3.150
99191SOL    HW199470   7.072   3.496   3.152
99191SOL    HW299471   7.043   3.377   3.242
99192SOL     OW99472   4.449   0.054   7.785
99192SOL    HW199473   4.507   0.116   7.829
99192SOL    HW299474   4.362   0.093   7.793
99193SOL     OW99475   4.344  13.220  14.298
99193SOL    HW199476   4.328  13.256  14.385
99193SOL    HW299477   4.394  13.287  14.253
99194SOL     OW99478  10.217   0.405  14.093
99194SOL    HW199479  10.272   0.379  14.166
99194SOL    HW299480  10.148   0.458  14.133
99195SOL     OW99481  14.245   4.640   5.846
99195SOL    HW199482  14.310   4.629   5.915
99195SOL    HW299483  14.176   4.577   5.867
99196SOL     OW99484   6.209   3.083   4.403
99196SOL    HW199485   6.116   3.087   4.380
99196SOL    HW299486   6.254   3.065   4.320
99197SOL     OW99487   4.159   0.518   8.652
99197SOL    HW199488   4.154   0.552   8.741
99197SOL    HW299489   4.245   0.544   8.621
99198SOL     OW99490   2.653   2.220   5.544
99198SOL    HW199491   2.740   2.244   5.511
99198SOL    HW299492   2.593   2.280   5.499
99199SOL     OW99493   8.543  14.762  12.331
99199SOL    HW199494   8.472  14.718  12.284
99199SOL    HW299495   8.560  14.707  12.407
99200SOL     OW99496   0.763  13.091   9.759
99200SOL    HW199497   0.803  13.119   9.677
99200SOL    HW299498   0.692  13.154   9.773
99201SOL     OW99499   3.163   4.853   7.007
99201SOL    HW199500   3.216   4.931   7.024
99201SOL    HW299501   3.139   4.820   7.094
99202SOL     OW99502   1.169   8.129  10.486
99202SOL    HW199503   1.241   8.162  10.539
99202SOL    HW299504   1.095   8.123  10.546
99203SOL     OW99505  13.116   3.273   1.419
99203SOL    HW199506  13.209   3.282   1.439
99203SOL    HW299507  13.088   3.361   1.395
99204SOL     OW99508   4.679   9.666  10.813
99204SOL    HW199509   4.632   9.586  10.837
99204SOL    HW299510   4.770   9.648  10.840
99205SOL     OW99511   2.699   7.063   7.116
99205SOL    HW199512   2.698   6.969   7.095
99205SOL    HW299513   2.769   7.072   7.181
99206SOL     OW99514   8.904  11.638   7.779
99206SOL    HW199515   8.953  11.684   7.710
99206SOL    HW299516   8.960  11.642   7.856
99207SOL     OW99517   1.834  12.693   7.179
99207SOL    HW199518   1.866  12.706   7.268
99207SOL    HW299519   1.784  12.611   7.183
99208SOL     OW99520   2.606  12.221   4.104
99208SOL    HW199521   2.552  12.300   4.110
99208SOL    HW299522   2.685  12.242   4.154
99209SOL     OW99523  14.828  13.399   8.179
99209SOL    HW199524   0.029  13.452   8.155
99209SOL    HW299525  14.864  13.313   8.198
99210SOL     OW99526   2.238   8.700   8.176
99210SOL    HW199527   2.234   8.654   8.092
99210SOL    HW299528   2.178   8.652   8.233
99211SOL     OW99529   6.567  14.788   1.559
99211SOL    HW199530   6.503  14.718   1.551
99211SOL    HW299531   6.614  14.788   1.475
99212SOL     OW99532   7.535   7.150   0.793
99212SOL    HW199533   7.604   7.161   0.858
99212SOL    HW299534   7.456   7.132   0.844
99213SOL     OW99535   9.355   4.862   9.576
99213SOL    HW199536   9.424   4.904   9.626
99213SOL    HW299537   9.274   4.902   9.608
99214SOL     OW99538   8.348   8.567   2.380
99214SOL    HW199539   8.295   8.612   2.315
99214SOL    HW299540   8.424   8.623   2.394
99215SOL     OW99541  11.557   5.121   0.709
99215SOL    HW199542  11.496   5.048   0.720
99215SOL    HW299543  11.544   5.175   0.787
99216SOL     OW99544   1.566   9.733   8.134
99216SOL    HW199545   1.531   9.816   8.165
99216SOL    HW299546   1.567   9.741   8.039
99217SOL     OW99547  13.207   9.017  13.577
99217SOL    HW199548  13.157   8.938  13.598
99217SOL    HW299549  13.296   8.997  13.607
99218SOL     OW99550   7.427  12.663  14.520
99218SOL    HW199551   7.337  12.648  14.547
99218SOL    HW299552   7.422  12.737  14.459
99219SOL     OW99553  12.543   7.333   2.090
99219SOL    HW199554  12.471   7.274   2.113
99219SOL    HW299555  12.499   7.414   2.065
99220SOL     OW99556  10.835   2.170  10.298
99220SOL    HW199557  10.867   2.101  10.240
99220SOL    HW299558  10.866   2.251  10.258
99221SOL     OW99559   2.061   2.381   6.878
99221SOL    HW199560   2.099   2.428   6.952
99221SOL    HW299561   2.075   2.439   6.803
99222SOL     OW99562  12.456   2.067   1.767
99222SOL    HW199563  12.368   2.034   1.786
99222SOL    HW299564  12.482   2.114   1.846
99223SOL     OW99565   4.338  11.255   4.540
99223SOL    HW199566   4.334  11.214   4.627
99223SOL    HW299567   4.362  11.346   4.557
99224SOL     OW99568   3.567   5.070   6.799
99224SOL    HW199569   3.619   5.137   6.753
99224SOL    HW299570   3.601   5.070   6.888
99225SOL     OW99571   7.114   0.863   5.825
99225SOL    HW199572   7.100   0.848   5.919
99225SOL    HW299573   7.150   0.951   5.820
99226SOL     OW99574  14.607   5.937   5.006
99226SOL    HW199575  14.620   6.030   4.985
99226SOL    HW299576  14.519   5.932   5.043
99227SOL     OW99577  14.581   5.508  13.682
99227SOL    HW199578  14.518   5.557  13.736
99227SOL    HW299579  14.568   5.417  13.708
99228SOL     OW99580   4.139  13.759   9.935
99228SOL    HW199581   4.132  13.724  10.024
99228SOL    HW299582   4.166  13.685   9.882
99229SOL     OW99583   6.531  10.836  10.790
99229SOL    HW199584   6.568  10.924  10.798
99229SOL    HW299585   6.602  10.783  10.754
99230SOL     OW99586  13.609   5.202  14.444
99230SOL    HW199587  13.617   5.292  14.412
99230SOL    HW299588  13.674   5.153  14.395
99231SOL     OW99589  12.662   0.240   5.103
99231SOL    HW199590  12.661   0.331   5.072
99231SOL    HW299591  12.604   0.241   5.179
99232SOL     OW99592  12.660   9.881  11.350
99232SOL    HW199593  12.623   9.934  11.421
99232SOL    HW299594  12.753   9.875  11.371
99233SOL     OW99595   6.431   3.985   5.849
99233SOL    HW199596   6.362   4.000   5.914
99233SOL    HW299597   6.398   3.913   5.795
99234SOL     OW99598   7.969   7.013   7.663
99234SOL    HW199599   7.975   6.920   7.685
99234SOL    HW299600   7.882   7.022   7.624
99235SOL     OW99601   7.039   7.793  13.308
99235SOL    HW199602   7.002   7.881  13.307
99235SOL    HW299603   6.972   7.739  13.351
99236SOL     OW99604   5.554   7.124   6.570
99236SOL    HW199605   5.559   7.029   6.573
99236SOL    HW299606   5.513   7.149   6.653
99237SOL     OW99607   7.412   1.538  12.575
99237SOL    HW199608   7.377   1.471  12.517
99237SOL    HW299609   7.472   1.589  12.520
99238SOL     OW99610   3.553  12.893   1.817
99238SOL    HW199611   3.625  12.831   1.833
99238SOL    HW299612   3.474  12.839   1.818
99239SOL     OW99613   1.245   5.548   0.960
99239SOL    HW199614   1.219   5.623   1.012
99239SOL    HW299615   1.178   5.539   0.893
99240SOL     OW99616  11.426  14.151  13.376
99240SOL    HW199617  11.500  14.182  13.426
99240SOL    HW299618  11.387  14.083  13.431
99241SOL     OW99619  14.175  12.493   1.379
99241SOL    HW199620  14.218  12.547   1.445
99241SOL    HW299621  14.179  12.404   1.414
99242SOL     OW99622   1.084  14.535   8.754
99242SOL    HW199623   1.131  14.525   8.837
99242SOL    HW299624   1.011  14.593   8.774
99243SOL     OW99625   7.173   2.694  13.010
99243SOL    HW199626   7.126   2.750  12.949
99243SOL    HW299627   7.239   2.649  12.957
99244SOL     OW99628  11.962  13.973  14.039
99244SOL    HW199629  11.911  13.919  14.100
99244SOL    HW299630  11.967  14.059  14.082
99245SOL     OW99631  11.904   9.132   1.135
99245SOL    HW199632  11.908   9.041   1.103
99245SOL    HW299633  11.949   9.129   1.219
99246SOL     OW99634  11.967  11.995   6.465
99246SOL    HW199635  11.963  11.977   6.371
99246SOL    HW299636  11.983  12.090   6.470
99247SOL     OW99637   9.063  13.083  14.314
99247SOL    HW199638   9.092  13.073  14.404
99247SOL    HW299639   8.978  13.126  14.320
99248SOL     OW99640   1.370   9.937   3.640
99248SOL    HW199641   1.379   9.960   3.547
99248SOL    HW299642   1.371  10.021   3.685
99249SOL     OW99643   3.327   2.801   7.008
99249SOL    HW199644   3.349   2.878   7.059
99249SOL    HW299645   3.396   2.737   7.028
99250SOL     OW99646   2.853   7.569   5.103
99250SOL    HW199647   2.891   7.486   5.131
99250SOL    HW299648   2.783   7.544   5.043
99251SOL     OW99649   7.414   9.149   2.516
99251SOL    HW199650   7.492   9.098   2.535
99251SOL    HW299651   7.435   9.196   2.436
99252SOL     OW99652   5.801   9.490   6.337
99252SOL    HW199653   5.766   9.502   6.249
99252SOL    HW299654   5.730   9.449   6.386
99253SOL     OW99655   8.183   2.684   2.295
99253SOL    HW199656   8.136   2.605   2.323
99253SOL    HW299657   8.244   2.702   2.367
99254SOL     OW99658   7.811  13.647   5.981
99254SOL    HW199659   7.845  13.731   6.010
99254SOL    HW299660   7.752  13.669   5.909
99255SOL     OW99661  13.194   0.809  13.825
99255SOL    HW199662  13.175   0.870  13.754
99255SOL    HW299663  13.122   0.822  13.888
99256SOL     OW99664   9.275  12.078   2.534
99256SOL    HW199665   9.279  11.986   2.508
99256SOL    HW299666   9.208  12.116   2.478
99257SOL     OW99667   4.583   2.333   6.433
99257SOL    HW199668   4.656   2.332   6.495
99257SOL    HW299669   4.552   2.243   6.431
99258SOL     OW99670  10.482   9.263   0.742
99258SOL    HW199671  10.576   9.281   0.740
99258SOL    HW299672  10.444   9.328   0.683
99259SOL     OW99673   6.252   2.151   2.180
99259SOL    HW199674   6.217   2.233   2.215
99259SOL    HW299675   6.347   2.158   2.193
99260SOL     OW99676   8.116  13.943  10.977
99260SOL    HW199677   8.064  13.957  10.898
99260SOL    HW299678   8.092  13.855  11.006
99261SOL     OW99679  10.683   7.011   6.996
99261SOL    HW199680  10.628   7.068   7.050
99261SOL    HW299681  10.704   6.937   7.054
99262SOL     OW99682   7.380   3.569   0.809
99262SOL    HW199683   7.411   3.616   0.887
99262SOL    HW299684   7.458   3.527   0.774
99263SOL     OW99685  14.080  13.083   4.665
99263SOL    HW199686  14.051  13.018   4.728
99263SOL    HW299687  14.112  13.033   4.591
99264SOL     OW99688   8.208  10.982   7.690
99264SOL    HW199689   8.205  10.889   7.670
99264SOL    HW299690   8.120  11.014   7.667
99265SOL     OW99691  12.477   9.295   1.309
99265SOL    HW199692  12.413   9.241   1.264
99265SOL    HW299693  12.433   9.379   1.323
99266SOL     OW99694   8.645   9.988  10.740
99266SOL    HW199695   8.608  10.059  10.687
99266SOL    HW299696   8.569   9.939  10.771
99267SOL     OW99697   3.539   6.584   9.330
99267SOL    HW199698   3.513   6.667   9.370
99267SOL    HW299699   3.503   6.588   9.241
99268SOL     OW99700  12.813  14.784   5.867
99268SOL    HW199701  12.751  14.717   5.896
99268SOL    HW299702  12.781  14.865   5.906
99269SOL     OW99703   9.891  13.395   4.584
99269SOL    HW199704   9.847  13.451   4.521
99269SOL    HW299705   9.907  13.313   4.537
99270SOL     OW99706  14.005   4.182   1.126
99270SOL    HW199707  14.056   4.238   1.184
99270SOL    HW299708  13.942   4.242   1.085
99271SOL     OW99709  10.067  11.221   8.634
99271SOL    HW199710   9.976  11.244   8.651
99271SOL    HW299711  10.064  11.168   8.554
99272SOL     OW99712   3.381   8.251   9.965
99272SOL    HW199713   3.387   8.165   9.924
99272SOL    HW299714   3.347   8.233  10.053
99273SOL     OW99715   8.217   1.035   1.466
99273SOL    HW199716   8.258   1.036   1.380
99273SOL    HW299717   8.287   1.008   1.526
99274SOL     OW99718   5.685   2.690   4.647
99274SOL    HW199719   5.686   2.765   4.706
99274SOL    HW299720   5.718   2.617   4.700
99275SOL     OW99721   3.799  12.573  10.946
99275SOL    HW199722   3.858  12.530  11.008
99275SOL    HW299723   3.853  12.641  10.905
99276SOL     OW99724   1.057  13.806   9.201
99276SOL    HW199725   0.964  13.816   9.180
99276SOL    HW299726   1.075  13.877   9.263
99277SOL     OW99727  12.189   6.748   6.243
99277SOL    HW199728  12.181   6.695   6.322
99277SOL    HW299729  12.127   6.819   6.255
99278SOL     OW99730   1.127   8.974  10.805
99278SOL    HW199731   1.096   9.026  10.730
99278SOL    HW299732   1.156   8.892  10.766
99279SOL     OW99733  10.098   1.717  14.211
99279SOL    HW199734  10.025   1.749  14.265
99279SOL    HW299735  10.176   1.757  14.250
99280SOL     OW99736   6.651  10.938   1.087
99280SOL    HW199737   6.578  10.964   1.031
99280SOL    HW299738   6.710  11.013   1.086
99281SOL     OW99739   1.068  11.742  14.705
99281SOL    HW199740   1.082  11.742  14.800
99281SOL    HW299741   0.992  11.799  14.693
99282SOL     OW99742  13.575   5.962   0.709
99282SOL    HW199743  13.564   5.872   0.738
99282SOL    HW299744  13.584   6.013   0.789
99283SOL     OW99745   9.148  13.700   0.431
99283SOL    HW199746   9.118  13.725   0.518
99283SOL    HW299747   9.210  13.629   0.446
99284SOL     OW99748   7.880   5.128   6.192
99284SOL    HW199749   7.823   5.180   6.249
99284SOL    HW299750   7.952   5.187   6.170
99285SOL     OW99751   3.395   8.705  10.588
99285SOL    HW199752   3.310   8.676  10.621
99285SOL    HW299753   3.421   8.636  10.527
99286SOL     OW99754   8.935   0.699   7.713
99286SOL    HW199755   8.875   0.689   7.639
99286SOL    HW299756   8.919   0.622   7.768
99287SOL     OW99757  14.288   7.728   4.902
99287SOL    HW199758  14.244   7.695   4.824
99287SOL    HW299759  14.336   7.652   4.936
99288SOL     OW99760  12.945   1.700  12.456
99288SOL    HW199761  12.974   1.685  12.367
99288SOL    HW299762  12.937   1.613  12.495
99289SOL     OW99763  10.714  11.085   0.792
99289SOL    HW199764  10.621  11.072   0.773
99289SOL    HW299765  10.734  11.018   0.858
99290SOL     OW99766   4.940   0.828  13.180
99290SOL    HW199767   4.911   0.741  13.154
99290SOL    HW299768   4.969   0.869  13.098
99291SOL     OW99769   6.349   1.421   5.844
99291SOL    HW199770   6.404   1.344   5.851
99291SOL    HW299771   6.259   1.387   5.843
99292SOL     OW99772  10.278   1.762  12.733
99292SOL    HW199773  10.279   1.853  12.704
99292SOL    HW299774  10.206   1.757  12.795
99293SOL     OW99775   4.046  12.932  11.969
99293SOL    HW199776   4.074  12.862  12.027
99293SOL    HW299777   4.117  12.940  11.905
99294SOL     OW99778   0.711  11.611   4.250
99294SOL    HW199779   0.765  11.597   4.327
99294SOL    HW299780   0.678  11.524   4.227
99295SOL     OW99781   9.844   7.957   2.432
99295SOL    HW199782   9.861   7.916   2.348
99295SOL    HW299783   9.750   7.946   2.447
99296SOL     OW99784  12.457  11.694   4.850
99296SOL    HW199785  12.430  11.636   4.779
99296SOL    HW299786  12.549  11.672   4.865
99297SOL     OW99787   5.600   2.238  13.133
99297SOL    HW199788   5.646   2.299  13.191
99297SOL    HW299789   5.551   2.182  13.192
99298SOL     OW99790   5.835   8.528  14.194
99298SOL    HW199791   5.827   8.527  14.289
99298SOL    HW299792   5.788   8.607  14.167
99299SOL     OW99793   8.532  11.253   4.264
99299SOL    HW199794   8.611  11.301   4.241
99299SOL    HW299795   8.475  11.263   4.188
99300SOL     OW99796   6.881   4.531  13.553
99300SOL    HW199797   6.915   4.582  13.626
99300SOL    HW299798   6.816   4.588  13.511
99301SOL     OW99799   5.398   6.479  13.414
99301SOL    HW199800   5.335   6.544  13.382
99301SOL    HW299801   5.404   6.415  13.343
99302SOL     OW99802   0.374   9.030   4.485
99302SOL    HW199803   0.318   9.045   4.561
99302SOL    HW299804   0.463   9.029   4.522
99303SOL     OW99805   4.195   0.550   4.985
99303SOL    HW199806   4.142   0.542   4.905
99303SOL    HW299807   4.245   0.631   4.972
99304SOL     OW99808   6.165   6.011   5.711
99304SOL    HW199809   6.193   5.947   5.645
99304SOL    HW299810   6.092   5.968   5.756
99305SOL     OW99811   6.683  14.677  13.829
99305SOL    HW199812   6.717  14.624  13.756
99305SOL    HW299813   6.714  14.631  13.907
99306SOL     OW99814   1.207  14.325   8.942
99306SOL    HW199815   1.287  14.275   8.928
99306SOL    HW299816   1.137  14.266   8.913
99307SOL     OW99817   4.489  10.390   5.319
99307SOL    HW199818   4.440  10.351   5.246
99307SOL    HW299819   4.457  10.480   5.325
99308SOL     OW99820   6.435   4.698   2.195
99308SOL    HW199821   6.352   4.686   2.241
99308SOL    HW299822   6.471   4.610   2.187
99309SOL     OW99823   6.942   4.603   2.458
99309SOL    HW199824   6.912   4.617   2.548
99309SOL    HW299825   6.905   4.519   2.433
99310SOL     OW99826   1.421  13.748  10.313
99310SOL    HW199827   1.467  13.735  10.396
99310SOL    HW299828   1.392  13.660  10.287
99311SOL     OW99829   2.240   6.469   2.080
99311SOL    HW199830   2.260   6.561   2.062
99311SOL    HW299831   2.300   6.446   2.151
99312SOL     OW99832   0.459  13.451  12.618
99312SOL    HW199833   0.481  13.540  12.646
99312SOL    HW299834   0.501  13.394  12.683
99313SOL     OW99835   4.978   0.031  14.129
99313SOL    HW199836   4.907   0.012  14.190
99313SOL    HW299837   5.012  14.820  14.104
99314SOL     OW99838  11.770   3.474   3.791
99314SOL    HW199839  11.862   3.454   3.776
99314SOL    HW299840  11.731   3.389   3.812
99315SOL     OW99841   1.673   4.281  14.486
99315SOL    HW199842   1.650   4.209  14.428
99315SOL    HW299843   1.768   4.288  14.481
99316SOL     OW99844   5.447   9.298  13.479
99316SOL    HW199845   5.425   9.309  13.571
99316SOL    HW299846   5.373   9.250  13.442
99317SOL     OW99847  11.987  12.106  10.150
99317SOL    HW199848  12.067  12.056  10.135
99317SOL    HW299849  11.949  12.066  10.228
99318SOL     OW99850   4.489   1.263   8.029
99318SOL    HW199851   4.484   1.327   8.100
99318SOL    HW299852   4.582   1.261   8.005
99319SOL     OW99853  10.766   9.932   9.580
99319SOL    HW199854  10.733   9.842   9.573
99319SOL    HW299855  10.695   9.980   9.622
99320SOL     OW99856   6.640  10.169   7.522
99320SOL    HW199857   6.735  10.173   7.521
99320SOL    HW299858   6.620  10.076   7.511
99321SOL     OW99859   2.572   3.366   0.580
99321SOL    HW199860   2.582   3.409   0.665
99321SOL    HW299861   2.491   3.316   0.588
99322SOL     OW99862   1.980  11.609  11.677
99322SOL    HW199863   1.922  11.564  11.616
99322SOL    HW299864   1.986  11.698  11.642
99323SOL     OW99865  11.290   9.405   9.907
99323SOL    HW199866  11.239   9.328   9.932
99323SOL    HW299867  11.267   9.472   9.971
99324SOL     OW99868   4.217   1.784   4.030
99324SOL    HW199869   4.261   1.738   4.102
99324SOL    HW299870   4.161   1.718   3.990
99325SOL     OW99871  11.237   9.938   5.706
99325SOL    HW199872  11.180   9.928   5.782
99325SOL    HW299873  11.259  10.031   5.704
99326SOL     OW99874  11.430   4.458   3.324
99326SOL    HW199875  11.425   4.424   3.413
99326SOL    HW299876  11.379   4.539   3.325
99327SOL     OW99877   3.826   2.243   0.997
99327SOL    HW199878   3.918   2.250   0.972
99327SOL    HW299879   3.777   2.261   0.916
99328SOL     OW99880   0.589   9.506   3.666
99328SOL    HW199881   0.579   9.519   3.571
99328SOL    HW299882   0.680   9.479   3.676
99329SOL     OW99883   4.853  13.227   7.993
99329SOL    HW199884   4.794  13.235   7.918
99329SOL    HW299885   4.933  13.271   7.965
99330SOL     OW99886   5.782  14.207   7.077
99330SOL    HW199887   5.872  14.234   7.062
99330SOL    HW299888   5.730  14.263   7.020
99331SOL     OW99889   8.760   1.765  14.399
99331SOL    HW199890   8.704   1.841  14.413
99331SOL    HW299891   8.711   1.710  14.337
99332SOL     OW99892   1.676   1.233  10.483
99332SOL    HW199893   1.627   1.219  10.401
99332SOL    HW299894   1.661   1.325  10.504
99333SOL     OW99895   4.746  10.234  11.515
99333SOL    HW199896   4.688  10.167  11.479
99333SOL    HW299897   4.692  10.313  11.520
99334SOL     OW99898   8.447   6.969  10.761
99334SOL    HW199899   8.355   6.995  10.766
99334SOL    HW299900   8.468   6.940  10.849
99335SOL     OW99901  13.067   9.259   7.476
99335SOL    HW199902  12.981   9.282   7.439
99335SOL    HW299903  13.051   9.177   7.523
99336SOL     OW99904  10.042   6.626  10.474
99336SOL    HW199905   9.977   6.666  10.417
99336SOL    HW299906  10.001   6.544  10.504
99337SOL     OW99907  14.144   0.880  14.635
99337SOL    HW199908  14.156   0.896  14.542
99337SOL    HW299909  14.115   0.964  14.671
99338SOL     OW99910  11.997   2.893   4.916
99338SOL    HW199911  12.064   2.833   4.884
99338SOL    HW299912  12.036   2.980   4.906
99339SOL     OW99913   1.844  11.447   5.087
99339SOL    HW199914   1.788  11.426   5.013
99339SOL    HW299915   1.925  11.480   5.048
99340SOL     OW99916  10.898   2.273  12.282
99340SOL    HW199917  10.976   2.328  12.276
99340SOL    HW299918  10.855   2.301  12.363
99341SOL     OW99919   9.511   7.891   0.036
99341SOL    HW199920   9.606   7.887   0.029
99341SOL    HW299921   9.491   7.984   0.036
99342SOL     OW99922   5.315  13.484   8.589
99342SOL    HW199923   5.330  13.431   8.511
99342SOL    HW299924   5.247  13.546   8.564
99343SOL     OW99925   4.677   0.998   5.367
99343SOL    HW199926   4.746   1.039   5.314
99343SOL    HW299927   4.724   0.940   5.427
99344SOL     OW99928   2.192   5.826  11.679
99344SOL    HW199929   2.220   5.737  11.660
99344SOL    HW299930   2.112   5.838  11.626
99345SOL     OW99931  14.588   7.850   0.393
99345SOL    HW199932  14.537   7.906   0.335
99345SOL    HW299933  14.524   7.810   0.451
99346SOL     OW99934   3.720   7.797  14.677
99346SOL    HW199935   3.633   7.829  14.697
99346SOL    HW299936   3.761   7.783  14.762
99347SOL     OW99937  11.811   7.625   8.647
99347SOL    HW199938  11.801   7.689   8.576
99347SOL    HW299939  11.776   7.544   8.610
99348SOL     OW99940  10.961   6.545   2.502
99348SOL    HW199941  11.051   6.530   2.533
99348SOL    HW299942  10.968   6.622   2.446
99349SOL     OW99943   6.553   9.745  13.955
99349SOL    HW199944   6.483   9.683  13.931
99349SOL    HW299945   6.527   9.778  14.041
99350SOL     OW99946  10.112  12.947   9.201
99350SOL    HW199947  10.171  13.019   9.182
99350SOL    HW299948  10.165  12.868   9.191
99351SOL     OW99949   2.241   3.030   3.560
99351SOL    HW199950   2.250   2.955   3.619
99351SOL    HW299951   2.148   3.050   3.560
99352SOL     OW99952  10.599   2.629  14.834
99352SOL    HW199953  10.678   2.594   0.001
99352SOL    HW299954  10.545   2.552  14.816
99353SOL     OW99955  10.748  14.459   8.142
99353SOL    HW199956  10.778  14.412   8.220
99353SOL    HW299957  10.770  14.403   8.069
99354SOL     OW99958  11.925   8.604  13.714
99354SOL    HW199959  11.935   8.528  13.657
99354SOL    HW299960  11.958   8.677  13.662
99355SOL     OW99961  11.237   0.985   7.493
99355SOL    HW199962  11.190   1.069   7.489
99355SOL    HW299963  11.214   0.949   7.579
99356SOL     OW99964  13.622  13.624  11.768
99356SOL    HW199965  13.585  13.554  11.822
99356SOL    HW299966  13.656  13.687  11.831
99357SOL     OW99967  10.221   4.597  10.095
99357SOL    HW199968  10.265   4.512  10.088
99357SOL    HW299969  10.135   4.577  10.130
99358SOL     OW99970   9.614   1.313   5.610
99358SOL    HW199971   9.686   1.367   5.577
99358SOL    HW299972   9.535   1.361   5.586
99359SOL     OW99973   2.496   9.948   2.317
99359SOL    HW199974   2.553   9.889   2.268
99359SOL    HW299975   2.556  10.004   2.366
99360SOL     OW99976  11.496   1.775   3.903
99360SOL    HW199977  11.415   1.815   3.873
99360SOL    HW299978  11.493   1.685   3.870
99361SOL     OW99979   0.674   9.815  13.688
99361SOL    HW199980   0.636   9.769  13.763
99361SOL    HW299981   0.599   9.842  13.635
99362SOL     OW99982   7.694   9.937   4.222
99362SOL    HW199983   7.706  10.029   4.243
99362SOL    HW299984   7.641   9.937   4.143
99363SOL     OW99985  12.890   3.949  11.107
99363SOL    HW199986  12.938   4.030  11.089
99363SOL    HW299987  12.817   3.977  11.163
99364SOL     OW99988  13.331  14.683   1.775
99364SOL    HW199989  13.256  14.742   1.764
99364SOL    HW299990  13.347  14.682   1.869
99365SOL     OW99991   2.978   5.841  12.425
99365SOL    HW199992   2.929   5.781  12.481
99365SOL    HW299993   2.977   5.924  12.473
99366SOL     OW99994   6.616  14.036   3.579
99366SOL    HW199995   6.603  14.118   3.626
99366SOL    HW299996   6.561  13.973   3.626
99367SOL     OW99997   1.119   7.032   1.941
99367SOL    HW199998   1.062   6.995   1.872
99367SOL    HW299999   1.160   7.108   1.900
99368SOL     OW    0   3.206  10.086   1.676
99368SOL    HW1    1   3.239  10.169   1.643
99368SOL    HW2    2   3.170  10.107   1.762
99369SOL     OW    3   3.052   3.995  10.683
99369SOL    HW1    4   3.145   3.975  10.687
99369SOL    HW2    5   3.045   4.059  10.612
99370SOL     OW    6   0.250   6.923   1.202
99370SOL    HW1    7   0.343   6.941   1.191
99370SOL    HW2    8   0.246   6.841   1.252
99371SOL     OW    9   6.348   8.465  12.872
99371SOL    HW1   10   6.410   8.537  12.867
99371SOL    HW2   11   6.316   8.455  12.782
99372SOL     OW   12   2.769   2.508   1.300
99372SOL    HW1   13   2.801   2.596   1.280
99372SOL    HW2   14   2.826   2.450   1.249
99373SOL     OW   15  12.477  10.256  10.698
99373SOL    HW1   16  12.393  10.265  10.741
99373SOL    HW2   17  12.487  10.337  10.648
99374SOL     OW   18   3.170   7.907   7.716
99374SOL    HW1   19   3.226   7.835   7.687
99374SOL    HW2   20   3.225   7.984   7.710
99375SOL     OW   21   0.430   2.798   0.689
99375SOL    HW1   22   0.469   2.750   0.616
99375SOL    HW2   23   0.498   2.859   0.717
99376SOL     OW   24  10.814   4.740   5.663
99376SOL    HW1   25  10.761   4.763   5.586
99376SOL    HW2   26  10.904   4.763   5.638
99377SOL     OW   27   0.919  11.151  12.061
99377SOL    HW1   28   0.983  11.127  12.128
99377SOL    HW2   29   0.880  11.233  12.091
99378SOL     OW   30   2.418   5.669  13.138
99378SOL    HW1   31   2.416   5.665  13.043
99378SOL    HW2   32   2.469   5.593  13.164
99379SOL     OW   33   4.553   0.842   8.640
99379SOL    HW1   34   4.482   0.791   8.602
99379SOL    HW2   35   4.626   0.781   8.647
99380SOL     OW   36  14.047   2.755   9.765
99380SOL    HW1   37  14.081   2.667   9.780
99380SOL    HW2   38  14.009   2.781   9.849
99381SOL     OW   39  10.797  14.315   9.670
99381SOL    HW1   40  10.836  14.247   9.615
99381SOL    HW2   41  10.872  14.357   9.713
99382SOL     OW   42   3.774   0.042  12.330
99382SOL    HW1   43   3.823   0.032  12.411
99382SOL    HW2   44   3.832   0.006  12.262
99383SOL     OW   45   0.042  12.616   0.693
99383SOL    HW1   46  14.870  12.699   0.695
99383SOL    HW2   47   0.128  12.638   0.656
99384SOL     OW   48   7.864   5.834   2.697
99384SOL    HW1   49   7.845   5.916   2.650
99384SOL    HW2   50   7.932   5.858   2.760
99385SOL     OW   51   0.230  12.599  10.372
99385SOL    HW1   52   0.238  12.676  10.315
99385SOL    HW2   53   0.189  12.632  10.452
99386SOL     OW   54   6.719   6.909   5.376
99386SOL    HW1   55   6.676   6.839   5.327
99386SOL    HW2   56   6.724   6.982   5.314
99387SOL     OW   57   6.234   4.764   8.594
99387SOL    HW1   58   6.171   4.808   8.538
99387SOL    HW2   59   6.316   4.767   8.545
99388SOL     OW   60   8.071  13.058   1.847
99388SOL    HW1   61   7.987  13.013   1.841
99388SOL    HW2   62   8.124  13.020   1.776
99389SOL     OW   63  12.733  13.513   6.097
99389SOL    HW1   64  12.766  13.497   6.008
99389SOL    HW2   65  12.647  13.470   6.098
99390SOL     OW   66   2.996   9.981   8.836
99390SOL    HW1   67   2.969   9.894   8.867
99390SOL    HW2   68   3.086   9.968   8.805
99391SOL     OW   69   4.158   8.239   4.785
99391SOL    HW1   70   4.214   8.317   4.795
99391SOL    HW2   71   4.182   8.183   4.858
99392SOL     OW   72   2.137   8.813  14.614
99392SOL    HW1   73   2.148   8.900  14.653
99392SOL    HW2   74   2.178   8.753  14.677
99393SOL     OW   75   1.139   9.056  14.655
99393SOL    HW1   76   1.092   9.039  14.573
99393SOL    HW2   77   1.177   8.971  14.678
99394SOL     OW   78  10.350   9.403   0.547
99394SOL    HW1   79  10.320   9.363   0.466
99394SOL    HW2   80  10.274   9.450   0.580
99395SOL     OW   81   3.457   6.461   0.789
99395SOL    HW1   82   3.501   6.474   0.873
99395SOL    HW2   83   3.424   6.371   0.793
99396SOL     OW   84  13.156   1.167  13.008
99396SOL    HW1   85  13.135   1.087  12.961
99396SOL    HW2   86  13.251   1.176  13.000
99397SOL     OW   87   8.925  14.106  14.731
99397SOL    HW1   88   8.962  14.019  14.724
99397SOL    HW2   89   8.977  14.160  14.671
99398SOL     OW   90   1.349   1.316   6.734
99398SOL    HW1   91   1.435   1.328   6.774
99398SOL    HW2   92   1.287   1.330   6.806
99399SOL     OW   93  11.221  13.565   3.427
99399SOL    HW1   94  11.183  13.519   3.352
99399SOL    HW2   95  11.265  13.641   3.389
99400SOL     OW   96  13.962   5.771  14.061
99400SOL    HW1   97  14.027   5.839  14.082
99400SOL    HW2   98  13.928   5.797  13.975
99401SOL     OW   99   2.165  12.857   9.723
99401SOL    HW1  100   2.191  12.775   9.765
99401SOL    HW2  101   2.080  12.837   9.683
99402SOL     OW  102  13.430   7.698   4.281
99402SOL    HW1  103  13.384   7.680   4.362
99402SOL    HW2  104  13.477   7.780   4.298
99403SOL     OW  105   7.011   8.337   1.755
99403SOL    HW1  106   6.975   8.363   1.670
99403SOL    HW2  107   6.960   8.387   1.819
99404SOL     OW  108   7.435   0.643   9.021
99404SOL    HW1  109   7.519   0.611   9.053
99404SOL    HW2  110   7.370   0.604   9.080
99405SOL     OW  111   3.803   3.616   0.705
99405SOL    HW1  112   3.828   3.641   0.616
99405SOL    HW2  113   3.870   3.554   0.732
99406SOL     OW  114  12.865   1.739   5.462
99406SOL    HW1  115  12.929   1.809   5.463
99406SOL    HW2  116  12.883   1.688   5.541
99407SOL     OW  117   0.368  13.576   0.290
99407SOL    HW1  118   0.439  13.626   0.249
99407SOL    HW2  119   0.411  13.498   0.325
99408SOL     OW  120  12.666  11.283   5.193
99408SOL    HW1  121  12.697  11.361   5.239
99408SOL    HW2  122  12.736  11.219   5.205
99409SOL     OW  123  13.838   0.647   0.792
99409SOL    HW1  124  13.866   0.699   0.868
99409SOL    HW2  125  13.857   0.557   0.817
99410SOL     OW  126  12.382   9.392  11.277
99410SOL    HW1  127  12.374   9.344  11.195
99410SOL    HW2  128  12.469   9.430  11.275
99411SOL     OW  129  12.209  13.421   5.968
99411SOL    HW1  130  12.164  13.387   5.891
99411SOL    HW2  131  12.174  13.371   6.041
99412SOL     OW  132  11.018  11.625   2.194
99412SOL    HW1  133  11.063  11.542   2.179
99412SOL    HW2  134  10.930  11.611   2.162
99413SOL     OW  135  11.298   3.858   6.583
99413SOL    HW1  136  11.274   3.773   6.547
99413SOL    HW2  137  11.226   3.916   6.558
99414SOL     OW  138  12.794   0.648   4.900
99414SOL    HW1  139  12.852   0.572   4.888
99414SOL    HW2  140  12.821   0.709   4.831
99415SOL     OW  141   3.402  14.077   8.556
99415SOL    HW1  142   3.374  14.085   8.648
99415SOL    HW2  143   3.344  14.137   8.508
99416SOL     OW  144   0.842  13.297   1.150
99416SOL    HW1  145   0.838  13.294   1.245
99416SOL    HW2  146   0.902  13.369   1.130
99417SOL     OW  147  14.626  12.434  10.904
99417SOL    HW1  148  14.691  12.429  10.834
99417SOL    HW2  149  14.649  12.363  10.964
99418SOL     OW  150  10.043  12.069  14.388
99418SOL    HW1  151  10.123  12.033  14.349
99418SOL    HW2  152   9.992  11.992  14.412
99419SOL     OW  153   4.147   2.819   7.643
99419SOL    HW1  154   4.231   2.839   7.684
99419SOL    HW2  155   4.144   2.724   7.638
99420SOL     OW  156  10.894   4.335  10.052
99420SOL    HW1  157  10.899   4.252  10.005
99420SOL    HW2  158  10.895   4.402   9.984
99421SOL     OW  159   2.998   6.059  11.031
99421SOL    HW1  160   2.965   5.972  11.009
99421SOL    HW2  161   2.918   6.111  11.045
99422SOL     OW  162  10.875   5.943  13.933
99422SOL    HW1  163  10.793   5.980  13.967
99422SOL    HW2  164  10.849   5.856  13.901
99423SOL     OW  165  10.299   2.890  14.099
99423SOL    HW1  166  10.388   2.904  14.131
99423SOL    HW2  167  10.254   2.973  14.118
99424SOL     OW  168   1.896   4.709   0.853
99424SOL    HW1  169   1.980   4.700   0.897
99424SOL    HW2  170   1.895   4.799   0.821
99425SOL     OW  171   1.563   9.575   1.865
99425SOL    HW1  172   1.550   9.668   1.846
99425SOL    HW2  173   1.658   9.565   1.871
99426SOL     OW  174   1.852  12.764  10.960
99426SOL    HW1  175   1.886  12.847  10.995
99426SOL    HW2  176   1.876  12.766  10.867
99427SOL     OW  177  11.512   9.098  10.954
99427SOL    HW1  178  11.524   9.043  10.876
99427SOL    HW2  179  11.499   9.186  10.919
99428SOL     OW  180  14.679   4.637   8.415
99428SOL    HW1  181  14.637   4.591   8.342
99428SOL    HW2  182  14.623   4.713   8.432
99429SOL     OW  183   8.173   4.134   1.598
99429SOL    HW1  184   8.120   4.094   1.529
99429SOL    HW2  185   8.263   4.127   1.567
99430SOL     OW  186   3.031   0.215  11.380
99430SOL    HW1  187   2.982   0.287  11.420
99430SOL    HW2  188   2.980   0.191  11.303
99431SOL     OW  189  10.462   5.807  10.754
99431SOL    HW1  190  10.382   5.778  10.711
99431SOL    HW2  191  10.532   5.763  10.706
99432SOL     OW  192   8.037  12.363   8.003
99432SOL    HW1  193   8.077  12.419   7.936
99432SOL    HW2  194   7.943  12.367   7.984
99433SOL     OW  195  11.037   2.859  11.670
99433SOL    HW1  196  11.127   2.887  11.654
99433SOL    HW2  197  10.983   2.933  11.641
99434SOL     OW  198   9.371  12.529   3.154
99434SOL    HW1  199   9.332  12.475   3.223
99434SOL    HW2  200   9.403  12.467   3.090
99435SOL     OW  201  14.128   8.474   7.942
99435SOL    HW1  202  14.183   8.484   7.864
99435SOL    HW2  203  14.145   8.552   7.994
99436SOL     OW  204   5.537   8.715  12.323
99436SOL    HW1  205   5.480   8.720  12.247
99436SOL    HW2  206   5.486   8.752  12.395
99437SOL     OW  207  13.839   1.025   0.023
99437SOL    HW1  208  13.841   0.930   0.011
99437SOL    HW2  209  13.823   1.037   0.117
99438SOL     OW  210   5.582   5.148   0.719
99438SOL    HW1  211   5.546   5.210   0.783
99438SOL    HW2  212   5.637   5.089   0.770
99439SOL     OW  213   0.974   6.339   9.618
99439SOL    HW1  214   1.045   6.403   9.612
99439SOL    HW2  215   0.971   6.315   9.711
99440SOL     OW  216  13.340   3.346   2.040
99440SOL    HW1  217  13.285   3.327   2.116
99440SOL    HW2  218  13.399   3.271   2.034
99441SOL     OW  219  12.420  10.135   5.895
99441SOL    HW1  220  12.450  10.211   5.846
99441SOL    HW2  221  12.407  10.067   5.829
99442SOL     OW  222   4.185   1.865  12.616
99442SOL    HW1  223   4.111   1.887  12.559
99442SOL    HW2  224   4.248   1.823  12.558
99443SOL     OW  225   6.756  12.326   3.888
99443SOL    HW1  226   6.718  12.414   3.885
99443SOL    HW2  227   6.765  12.301   3.796
99444SOL     OW  228   9.212   9.901   2.048
99444SOL    HW1  229   9.265   9.971   2.009
99444SOL    HW2  230   9.210   9.832   1.981
99445SOL     OW  231  13.876   2.493   9.413
99445SOL    HW1  232  13.931   2.417   9.430
99445SOL    HW2  233  13.875   2.501   9.318
99446SOL     OW  234   1.711   8.527  10.588
99446SOL    HW1  235   1.627   8.529  10.635
99446SOL    HW2  236   1.740   8.618  10.589
99447SOL     OW  237   9.989   2.514   5.441
99447SOL    HW1  238   9.904   2.473   5.424
99447SOL    HW2  239   9.973   2.608   5.433
99448SOL     OW  240   7.467   7.665  14.705
99448SOL    HW1  241   7.529   7.655  14.778
99448SOL    HW2  242   7.445   7.758  14.705
99449SOL     OW  243   3.621  11.205  11.900
99449SOL    HW1  244   3.620  11.257  11.980
99449SOL    HW2  245   3.529  11.180  11.887
99450SOL     OW  246  10.710   2.943   5.057
99450SOL    HW1  247  10.774   2.934   5.127
99450SOL    HW2  248  10.648   2.872   5.073
99451SOL     OW  249  11.077  12.959   7.581
99451SOL    HW1  250  11.069  13.006   7.498
99451SOL    HW2  251  11.012  12.889   7.576
99452SOL     OW  252   5.256   4.437   2.814
99452SOL    HW1  253   5.167   4.451   2.849
99452SOL    HW2  254   5.314   4.472   2.881
99453SOL     OW  255  12.128   5.100   4.565
99453SOL    HW1  256  12.061   5.042   4.601
99453SOL    HW2  257  12.209   5.048   4.570
99454SOL     OW  258  10.447   4.395   2.162
99454SOL    HW1  259  10.409   4.363   2.244
99454SOL    HW2  260  10.468   4.487   2.179
99455SOL     OW  261   2.160   2.066   4.392
99455SOL    HW1  262   2.177   2.136   4.455
99455SOL    HW2  263   2.181   1.985   4.439
99456SOL     OW  264   9.612   4.247  13.751
99456SOL    HW1  265   9.543   4.235  13.686
99456SOL    HW2  266   9.628   4.342  13.751
99457SOL     OW  267  12.481   4.923   5.870
99457SOL    HW1  268  12.551   4.918   5.936
99457SOL    HW2  269  12.470   5.016   5.854
99458SOL     OW  270  11.840   0.205   9.366
99458SOL    HW1  271  11.801   0.262   9.432
99458SOL    HW2  272  11.792   0.224   9.285
99459SOL     OW  273  12.856   9.084   8.119
99459SOL    HW1  274  12.905   9.156   8.080
99459SOL    HW2  275  12.921   9.033   8.167
99460SOL     OW  276  13.403  11.364   9.553
99460SOL    HW1  277  13.385  11.398   9.641
99460SOL    HW2  278  13.425  11.441   9.502
99461SOL     OW  279  13.145   6.096   4.013
99461SOL    HW1  280  13.186   6.181   4.027
99461SOL    HW2  281  13.052   6.111   4.030
99462SOL     OW  282   5.981   9.565   3.879
99462SOL    HW1  283   5.903   9.518   3.909
99462SOL    HW2  284   6.051   9.536   3.938
99463SOL     OW  285   5.895   7.987   3.531
99463SOL    HW1  286   5.887   8.064   3.587
99463SOL    HW2  287   5.978   7.998   3.486
99464SOL     OW  288   1.334   8.556   5.454
99464SOL    HW1  289   1.359   8.646   5.435
99464SOL    HW2  290   1.354   8.508   5.375
99465SOL     OW  291   5.586   9.010   6.694
99465SOL    HW1  292   5.567   9.056   6.776
99465SOL    HW2  293   5.616   8.923   6.722
99466SOL     OW  294  11.846   2.102   2.825
99466SOL    HW1  295  11.877   2.038   2.890
99466SOL    HW2  296  11.771   2.059   2.784
99467SOL     OW  297   3.265   1.720   1.559
99467SOL    HW1  298   3.352   1.761   1.559
99467SOL    HW2  299   3.236   1.727   1.650
99468SOL     OW  300  11.724   6.702   6.281
99468SOL    HW1  301  11.746   6.615   6.314
99468SOL    HW2  302  11.712   6.690   6.187
99469SOL     OW  303  12.481   2.481   2.695
99469SOL    HW1  304  12.419   2.515   2.631
99469SOL    HW2  305  12.475   2.386   2.688
99470SOL     OW  306   2.300  11.950   5.468
99470SOL    HW1  307   2.216  11.995   5.477
99470SOL    HW2  308   2.297  11.911   5.381
99471SOL     OW  309   3.433  10.065   2.112
99471SOL    HW1  310   3.509  10.103   2.156
99471SOL    HW2  311   3.465   9.980   2.079
99472SOL     OW  312   3.457   5.541   4.091
99472SOL    HW1  313   3.547   5.515   4.072
99472SOL    HW2  314   3.461   5.634   4.109
99473SOL     OW  315  11.545   5.907  10.681
99473SOL    HW1  316  11.629   5.886  10.639
99473SOL    HW2  317  11.482   5.849  10.638
99474SOL     OW  318  11.898   8.073   3.563
99474SOL    HW1  319  11.902   8.162   3.527
99474SOL    HW2  320  11.949   8.020   3.502
99475SOL     OW  321  10.765   2.000  12.498
99475SOL    HW1  322  10.766   1.938  12.570
99475SOL    HW2  323  10.699   1.966  12.438
99476SOL     OW  324   6.212   0.061   7.023
99476SOL    HW1  325   6.263   0.113   7.085
99476SOL    HW2  326   6.257  14.852   7.019
99477SOL     OW  327   9.852   6.472   9.744
99477SOL    HW1  328   9.804   6.390   9.749
99477SOL    HW2  329   9.815   6.516   9.667
99478SOL     OW  330   6.577   3.087   6.230
99478SOL    HW1  331   6.556   3.035   6.152
99478SOL    HW2  332   6.620   3.166   6.195
99479SOL     OW  333   5.477   8.277   9.969
99479SOL    HW1  334   5.477   8.371   9.989
99479SOL    HW2  335   5.569   8.251   9.974
99480SOL     OW  336   4.315  12.882   5.861
99480SOL    HW1  337   4.340  12.846   5.946
99480SOL    HW2  338   4.304  12.976   5.876
99481SOL     OW  339   0.816  11.476   0.372
99481SOL    HW1  340   0.783  11.427   0.297
99481SOL    HW2  341   0.885  11.532   0.337
99482SOL     OW  342  10.754   5.467  10.183
99482SOL    HW1  343  10.756   5.534  10.115
99482SOL    HW2  344  10.704   5.395  10.145
99483SOL     OW  345   2.025   9.732   7.578
99483SOL    HW1  346   2.003   9.796   7.646
99483SOL    HW2  347   1.974   9.760   7.501
99484SOL     OW  348   2.175   7.648   6.880
99484SOL    HW1  349   2.105   7.697   6.923
99484SOL    HW2  350   2.244   7.641   6.947
99485SOL     OW  351  11.292  11.554   6.426
99485SOL    HW1  352  11.348  11.557   6.504
99485SOL    HW2  353  11.289  11.645   6.396
99486SOL     OW  354   9.368  10.278   4.523
99486SOL    HW1  355   9.365  10.196   4.474
99486SOL    HW2  356   9.441  10.327   4.485
99487SOL     OW  357  14.265  14.307   9.604
99487SOL    HW1  358  14.212  14.386   9.591
99487SOL    HW2  359  14.355  14.335   9.589
99488SOL     OW  360   7.048   6.453   2.338
99488SOL    HW1  361   7.083   6.531   2.382
99488SOL    HW2  362   6.973   6.484   2.289
99489SOL     OW  363   3.029   9.330  13.100
99489SOL    HW1  364   2.940   9.367  13.099
99489SOL    HW2  365   3.063   9.346  13.012
99490SOL     OW  366   8.347  13.119  12.643
99490SOL    HW1  367   8.335  13.147  12.734
99490SOL    HW2  368   8.437  13.146  12.622
99491SOL     OW  369  14.549   1.612   8.560
99491SOL    HW1  370  14.605   1.551   8.607
99491SOL    HW2  371  14.555   1.586   8.468
99492SOL     OW  372   9.513   6.566   7.196
99492SOL    HW1  373   9.581   6.499   7.199
99492SOL    HW2  374   9.462   6.552   7.276
99493SOL     OW  375   3.331   1.509   9.888
99493SOL    HW1  376   3.281   1.433   9.856
99493SOL    HW2  377   3.275   1.546   9.956
99494SOL     OW  378   4.732   0.645  13.742
99494SOL    HW1  379   4.636   0.651  13.746
99494SOL    HW2  380   4.754   0.681  13.656
99495SOL     OW  381   8.954  10.974  12.777
99495SOL    HW1  382   8.858  10.977  12.786
99495SOL    HW2  383   8.986  10.990  12.866
99496SOL     OW  384   6.109   9.932   8.170
99496SOL    HW1  385   6.054   9.871   8.120
99496SOL    HW2  386   6.182   9.878   8.201
99497SOL     OW  387  13.005   7.121   3.008
99497SOL    HW1  388  12.959   7.093   2.928
99497SOL    HW2  389  12.967   7.067   3.077
99498SOL     OW  390   1.708   5.194  12.063
99498SOL    HW1  391   1.620   5.187  12.100
99498SOL    HW2  392   1.693   5.210  11.970
99499SOL     OW  393   2.898  14.830  14.259
99499SOL    HW1  394   2.823  14.872  14.301
99499SOL    HW2  395   2.892  14.856  14.167
99500SOL     OW  396   1.040   9.720   3.974
99500SOL    HW1  397   1.004   9.753   4.056
99500SOL    HW2  398   1.134   9.725   3.985
99501SOL     OW  399  13.673  13.014  11.623
99501SOL    HW1  400  13.610  13.039  11.690
99501SOL    HW2  401  13.642  13.056  11.543
99502SOL     OW  402  13.471   0.181  12.334
99502SOL    HW1  403  13.559   0.154  12.309
99502SOL    HW2  404  13.413   0.126  12.281
99503SOL     OW  405  12.309   9.458   5.907
99503SOL    HW1  406  12.349   9.387   5.958
99503SOL    HW2  407  12.238   9.490   5.962
99504SOL     OW  408   8.422  10.721   1.511
99504SOL    HW1  409   8.516  10.705   1.507
99504SOL    HW2  410   8.382  10.645   1.468
99505SOL     OW  411   6.475   0.125   8.353
99505SOL    HW1  412   6.468   0.056   8.420
99505SOL    HW2  413   6.468   0.207   8.402
99506SOL     OW  414   8.531  12.741   6.791
99506SOL    HW1  415   8.540  12.835   6.809
99506SOL    HW2  416   8.541  12.699   6.876
99507SOL     OW  417   5.999  12.773   0.982
99507SOL    HW1  418   6.079  12.724   0.964
99507SOL    HW2  419   6.019  12.862   0.952
99508SOL     OW  420   5.669   8.793  11.206
99508SOL    HW1  421   5.682   8.861  11.141
99508SOL    HW2  422   5.689   8.711  11.161
99509SOL     OW  423  12.331   6.639  13.408
99509SOL    HW1  424  12.244   6.679  13.411
99509SOL    HW2  425  12.321   6.556  13.454
99510SOL     OW  426  10.973   9.946   2.575
99510SOL    HW1  427  10.996   9.998   2.653
99510SOL    HW2  428  11.010   9.996   2.502
99511SOL     OW  429   7.963   1.113   1.422
99511SOL    HW1  430   7.947   1.171   1.347
99511SOL    HW2  431   8.058   1.118   1.436
99512SOL     OW  432  14.844   0.998   0.755
99512SOL    HW1  433   0.019   1.079   0.766
99512SOL    HW2  434   0.030   0.939   0.711
99513SOL     OW  435   6.312  10.938   1.732
99513SOL    HW1  436   6.383  10.884   1.697
99513SOL    HW2  437   6.350  10.982   1.808
99514SOL     OW  438   2.024  14.805   8.360
99514SOL    HW1  439   2.054  14.854   8.283
99514SOL    HW2  440   1.930  14.826   8.365
99515SOL     OW  441  11.091   1.982   5.563
99515SOL    HW1  442  11.023   1.946   5.619
99515SOL    HW2  443  11.130   1.906   5.520
99516SOL     OW  444  13.966  10.440   5.498
99516SOL    HW1  445  14.058  10.466   5.487
99516SOL    HW2  446  13.968  10.345   5.504
99517SOL     OW  447   3.968  10.748   2.638
99517SOL    HW1  448   4.026  10.680   2.604
99517SOL    HW2  449   3.887  10.702   2.661
99518SOL     OW  450   6.590   9.249   5.330
99518SOL    HW1  451   6.561   9.175   5.384
99518SOL    HW2  452   6.669   9.218   5.286
99519SOL     OW  453   5.143  10.423  11.434
99519SOL    HW1  454   5.078  10.493  11.424
99519SOL    HW2  455   5.094  10.342  11.418
99520SOL     OW  456   5.759   7.070   3.803
99520SOL    HW1  457   5.709   7.151   3.809
99520SOL    HW2  458   5.828   7.088   3.740
99521SOL     OW  459   1.379   8.372   5.634
99521SOL    HW1  460   1.353   8.432   5.564
99521SOL    HW2  461   1.320   8.297   5.623
99522SOL     OW  462  13.509  11.446   3.203
99522SOL    HW1  463  13.585  11.471   3.255
99522SOL    HW2  464  13.474  11.528   3.170
99523SOL     OW  465  13.583   1.003   4.572
99523SOL    HW1  466  13.551   0.938   4.509
99523SOL    HW2  467  13.620   0.952   4.643
99524SOL     OW  468   0.882   7.040   3.350
99524SOL    HW1  469   0.862   7.132   3.334
99524SOL    HW2  470   0.922   7.010   3.269
99525SOL     OW  471  13.322   5.858   0.547
99525SOL    HW1  472  13.367   5.936   0.579
99525SOL    HW2  473  13.391   5.807   0.504
99526SOL     OW  474   0.146   4.996   4.894
99526SOL    HW1  475   0.093   4.930   4.849
99526SOL    HW2  476   0.085   5.068   4.912
99527SOL     OW  477  14.850  11.882   7.714
99527SOL    HW1  478   0.021  11.873   7.631
99527SOL    HW2  479  14.857  11.975   7.735
99528SOL     OW  480   5.707  13.839  14.557
99528SOL    HW1  481   5.727  13.931  14.578
99528SOL    HW2  482   5.781  13.811  14.503
99529SOL     OW  483   3.902   0.408   5.804
99529SOL    HW1  484   3.809   0.425   5.822
99529SOL    HW2  485   3.901   0.337   5.739
99530SOL     OW  486   1.444   8.316   8.914
99530SOL    HW1  487   1.425   8.289   9.004
99530SOL    HW2  488   1.447   8.412   8.918
99531SOL     OW  489  14.150  11.825  14.175
99531SOL    HW1  490  14.092  11.881  14.124
99531SOL    HW2  491  14.233  11.872  14.178
99532SOL     OW  492   2.523  14.247   8.707
99532SOL    HW1  493   2.544  14.170   8.758
99532SOL    HW2  494   2.522  14.319   8.770
99533SOL     OW  495   6.245  14.725   9.931
99533SOL    HW1  496   6.326  14.697   9.973
99533SOL    HW2  497   6.243  14.820   9.943
99534SOL     OW  498   6.450   8.121  12.182
99534SOL    HW1  499   6.377   8.075  12.224
99534SOL    HW2  500   6.462   8.201  12.234
99535SOL     OW  501  10.812   7.109  12.918
99535SOL    HW1  502  10.815   7.027  12.967
99535SOL    HW2  503  10.839   7.086  12.830
99536SOL     OW  504   1.307  14.820   8.133
99536SOL    HW1  505   1.333  14.864   8.052
99536SOL    HW2  506   1.280   0.015   8.191
99537SOL     OW  507   9.551   4.029   6.467
99537SOL    HW1  508   9.484   3.976   6.510
99537SOL    HW2  509   9.594   3.968   6.406
99538SOL     OW  510   0.794  12.355  13.873
99538SOL    HW1  511   0.728  12.362  13.804
99538SOL    HW2  512   0.746  12.323  13.949
99539SOL     OW  513   7.556   5.290   4.475
99539SOL    HW1  514   7.578   5.197   4.481
99539SOL    HW2  515   7.563   5.311   4.382
99540SOL     OW  516   0.045   4.080  13.863
99540SOL    HW1  517  14.833   4.051  13.836
99540SOL    HW2  518   0.066   4.151  13.803
99541SOL     OW  519   0.572   7.251  11.339
99541SOL    HW1  520   0.645   7.260  11.400
99541SOL    HW2  521   0.531   7.337  11.338
99542SOL     OW  522   2.770   8.017  13.862
99542SOL    HW1  523   2.758   7.932  13.820
99542SOL    HW2  524   2.861   8.040  13.843
99543SOL     OW  525  14.474   2.962   5.184
99543SOL    HW1  526  14.420   2.948   5.106
99543SOL    HW2  527  14.411   2.966   5.256
99544SOL     OW  528   6.239   0.815   4.025
99544SOL    HW1  529   6.286   0.807   3.942
99544SOL    HW2  530   6.201   0.903   4.023
99545SOL     OW  531  12.735   6.629   7.673
99545SOL    HW1  532  12.771   6.592   7.753
99545SOL    HW2  533  12.774   6.576   7.603
99546SOL     OW  534   0.773   1.763  10.916
99546SOL    HW1  535   0.714   1.831  10.885
99546SOL    HW2  536   0.737   1.736  11.000
99547SOL     OW  537   8.912   6.916   6.156
99547SOL    HW1  538   8.966   6.888   6.082
99547SOL    HW2  539   8.859   6.840   6.177
99548SOL     OW  540  12.066   3.911   9.735
99548SOL    HW1  541  12.022   3.995   9.723
99548SOL    HW2  542  12.154   3.934   9.764
99549SOL     OW  543  12.732   7.798   9.072
99549SOL    HW1  544  12.746   7.879   9.121
99549SOL    HW2  545  12.638   7.783   9.075
99550SOL     OW  546   9.910   6.554   0.850
99550SOL    HW1  547   9.816   6.569   0.843
99550SOL    HW2  548   9.926   6.473   0.800
99551SOL     OW  549  12.516   3.236   1.281
99551SOL    HW1  550  12.565   3.287   1.345
99551SOL    HW2  551  12.471   3.169   1.332
99552SOL     OW  552   4.829   5.307   4.807
99552SOL    HW1  553   4.809   5.394   4.773
99552SOL    HW2  554   4.745   5.272   4.836
99553SOL     OW  555   5.296   4.195   4.444
99553SOL    HW1  556   5.213   4.242   4.443
99553SOL    HW2  557   5.272   4.103   4.433
99554SOL     OW  558  10.581   2.215   9.261
99554SOL    HW1  559  10.642   2.148   9.291
99554SOL    HW2  560  10.536   2.244   9.340
99555SOL     OW  561   4.720  14.473   2.669
99555SOL    HW1  562   4.777  14.482   2.592
99555SOL    HW2  563   4.639  14.435   2.634
99556SOL     OW  564   4.988   2.513  13.596
99556SOL    HW1  565   5.002   2.419  13.609
99556SOL    HW2  566   5.075   2.551  13.600
99557SOL     OW  567  11.502   1.944  14.392
99557SOL    HW1  568  11.598   1.947  14.397
99557SOL    HW2  569  11.484   1.893  14.313
99558SOL     OW  570  10.167   4.445   0.314
99558SOL    HW1  571  10.126   4.517   0.362
99558SOL    HW2  572  10.238   4.487   0.265
99559SOL     OW  573   1.898  11.804   2.029
99559SOL    HW1  574   1.803  11.793   2.038
99559SOL    HW2  575   1.913  11.803   1.935
99560SOL     OW  576   3.866   1.198   9.691
99560SOL    HW1  577   3.770   1.201   9.695
99560SOL    HW2  578   3.894   1.221   9.780
99561SOL     OW  579   3.182  12.983  10.128
99561SOL    HW1  580   3.161  13.059  10.181
99561SOL    HW2  581   3.222  12.921  10.189
99562SOL     OW  582   2.934   7.496   1.706
99562SOL    HW1  583   2.971   7.507   1.618
99562SOL    HW2  584   2.940   7.402   1.723
99563SOL     OW  585   0.186   0.988  13.258
99563SOL    HW1  586   0.160   0.941  13.338
99563SOL    HW2  587   0.263   1.039  13.284
99564SOL     OW  588   2.718   1.055  10.561
99564SOL    HW1  589   2.713   0.962  10.583
99564SOL    HW2  590   2.628   1.079  10.540
99565SOL     OW  591   8.198   1.740   2.283
99565SOL    HW1  592   8.221   1.717   2.373
99565SOL    HW2  593   8.281   1.745   2.237
99566SOL     OW  594  12.419   2.476   5.736
99566SOL    HW1  595  12.438   2.479   5.830
99566SOL    HW2  596  12.502   2.451   5.695
99567SOL     OW  597   3.832   6.286   3.702
99567SOL    HW1  598   3.781   6.352   3.655
99567SOL    HW2  599   3.791   6.281   3.788
99568SOL     OW  600   8.265   6.345   2.493
99568SOL    HW1  601   8.276   6.331   2.399
99568SOL    HW2  602   8.175   6.319   2.510
99569SOL     OW  603   3.453   5.686   7.404
99569SOL    HW1  604   3.524   5.751   7.404
99569SOL    HW2  605   3.424   5.682   7.313
99570SOL     OW  606   5.685  14.541   4.130
99570SOL    HW1  607   5.774  14.512   4.114
99570SOL    HW2  608   5.647  14.472   4.185
99571SOL     OW  609   2.190  12.735   2.393
99571SOL    HW1  610   2.155  12.790   2.322
99571SOL    HW2  611   2.147  12.768   2.472
99572SOL     OW  612   6.821   3.661   7.972
99572SOL    HW1  613   6.901   3.710   7.990
99572SOL    HW2  614   6.838   3.574   8.008
99573SOL     OW  615   5.392   4.261   1.372
99573SOL    HW1  616   5.435   4.275   1.456
99573SOL    HW2  617   5.345   4.343   1.355
99574SOL     OW  618   5.154  12.901   6.458
99574SOL    HW1  619   5.179  12.981   6.504
99574SOL    HW2  620   5.137  12.928   6.368
99575SOL     OW  621  13.250   9.171   0.236
99575SOL    HW1  622  13.280   9.223   0.311
99575SOL    HW2  623  13.232   9.085   0.273
99576SOL     OW  624   8.952   9.637   8.754
99576SOL    HW1  625   8.954   9.732   8.752
99576SOL    HW2  626   8.990   9.610   8.670
99577SOL     OW  627  11.227   5.191   0.866
99577SOL    HW1  628  11.143   5.237   0.868
99577SOL    HW2  629  11.292   5.258   0.891
99578SOL     OW  630   3.027   6.890   9.583
99578SOL    HW1  631   3.104   6.928   9.626
99578SOL    HW2  632   3.060   6.811   9.540
99579SOL     OW  633   3.355   8.882   6.809
99579SOL    HW1  634   3.295   8.837   6.751
99579SOL    HW2  635   3.440   8.840   6.795
99580SOL     OW  636   7.359   8.438  13.314
99580SOL    HW1  637   7.353   8.346  13.288
99580SOL    HW2  638   7.314   8.485  13.244
99581SOL     OW  639  11.610   4.734  10.628
99581SOL    HW1  640  11.704   4.718  10.622
99581SOL    HW2  641  11.594   4.743  10.722
99582SOL     OW  642   2.428   6.729  13.557
99582SOL    HW1  643   2.368   6.667  13.599
99582SOL    HW2  644   2.370   6.795  13.519
99583SOL     OW  645   5.721  13.865  11.909
99583SOL    HW1  646   5.718  13.894  11.818
99583SOL    HW2  647   5.657  13.794  11.913
99584SOL     OW  648  12.932   9.722   7.155
99584SOL    HW1  649  12.969   9.671   7.083
99584SOL    HW2  650  12.889   9.796   7.113
99585SOL     OW  651  12.029  13.023   6.904
99585SOL    HW1  652  12.116  13.017   6.863
99585SOL    HW2  653  12.011  12.934   6.935
99586SOL     OW  654  14.250   5.600   1.068
99586SOL    HW1  655  14.296   5.683   1.057
99586SOL    HW2  656  14.175   5.605   1.008
99587SOL     OW  657  11.544   8.559  13.680
99587SOL    HW1  658  11.513   8.649  13.687
99587SOL    HW2  659  11.567   8.535  13.770
99588SOL     OW  660   8.795   5.232   5.959
99588SOL    HW1  661   8.825   5.305   6.012
99588SOL    HW2  662   8.708   5.211   5.994
99589SOL     OW  663   0.034  10.000   7.213
99589SOL    HW1  664  14.862   9.957   7.285
99589SOL    HW2  665   0.114   9.950   7.203
99590SOL     OW  666   4.226   4.731   3.729
99590SOL    HW1  667   4.260   4.716   3.818
99590SOL    HW2  668   4.167   4.658   3.714
99591SOL     OW  669   1.260   8.470   6.624
99591SOL    HW1  670   1.235   8.554   6.661
99591SOL    HW2  671   1.182   8.415   6.634
99592SOL     OW  672   1.394   3.017   3.217
99592SOL    HW1  673   1.314   2.976   3.250
99592SOL    HW2  674   1.452   2.944   3.197
99593SOL     OW  675  14.488  12.200   5.468
99593SOL    HW1  676  14.539  12.122   5.448
99593SOL    HW2  677  14.401  12.183   5.433
99594SOL     OW  678   4.325   6.245  11.440
99594SOL    HW1  679   4.418   6.226  11.448
99594SOL    HW2  680   4.284   6.159  11.427
99595SOL     OW  681   3.908   9.806   5.650
99595SOL    HW1  682   3.847   9.741   5.685
99595SOL    HW2  683   3.852   9.879   5.622
99596SOL     OW  684   3.110  12.335   7.141
99596SOL    HW1  685   3.108  12.420   7.097
99596SOL    HW2  686   3.119  12.356   7.234
99597SOL     OW  687   2.255   2.627  10.009
99597SOL    HW1  688   2.194   2.699  10.028
99597SOL    HW2  689   2.229   2.596   9.923
99598SOL     OW  690   6.625  11.418  14.387
99598SOL    HW1  691   6.576  11.401  14.307
99598SOL    HW2  692   6.717  11.406  14.362
99599SOL     OW  693   4.305   2.711  14.337
99599SOL    HW1  694   4.219   2.670  14.327
99599SOL    HW2  695   4.338   2.720  14.247
99600SOL     OW  696  12.274   3.700  11.777
99600SOL    HW1  697  12.209   3.739  11.719
99600SOL    HW2  698  12.238   3.614  11.799
99601SOL     OW  699   8.933   7.427  11.872
99601SOL    HW1  700   9.019   7.427  11.915
99601SOL    HW2  701   8.883   7.359  11.918
99602SOL     OW  702   1.196   3.599   9.510
99602SOL    HW1  703   1.127   3.619   9.447
99602SOL    HW2  704   1.277   3.599   9.458
99603SOL     OW  705   0.210   2.388   1.823
99603SOL    HW1  706   0.252   2.307   1.791
99603SOL    HW2  707   0.278   2.431   1.874
99604SOL     OW  708  12.428   5.472  10.798
99604SOL    HW1  709  12.393   5.540  10.741
99604SOL    HW2  710  12.523   5.481  10.791
99605SOL     OW  711   8.605   9.039   8.883
99605SOL    HW1  712   8.542   8.968   8.885
99605SOL    HW2  713   8.578   9.097   8.955
99606SOL     OW  714   3.956   3.496  11.505
99606SOL    HW1  715   4.015   3.489  11.430
99606SOL    HW2  716   4.000   3.558  11.564
99607SOL     OW  717   4.470   2.119   2.992
99607SOL    HW1  718   4.385   2.128   2.950
99607SOL    HW2  719   4.461   2.165   3.075
99608SOL     OW  720   6.209   9.597   4.110
99608SOL    HW1  721   6.243   9.508   4.106
99608SOL    HW2  722   6.269   9.644   4.168
99609SOL     OW  723   9.401   9.045   9.704
99609SOL    HW1  724   9.370   8.959   9.734
99609SOL    HW2  725   9.350   9.062   9.624
99610SOL     OW  726   4.966  11.880   9.316
99610SOL    HW1  727   4.979  11.849   9.405
99610SOL    HW2  728   4.930  11.968   9.326
99611SOL     OW  729   6.245   2.351   1.693
99611SOL    HW1  730   6.248   2.262   1.658
99611SOL    HW2  731   6.304   2.402   1.637
99612SOL     OW  732   7.499   0.317   6.936
99612SOL    HW1  733   7.425   0.287   6.989
99612SOL    HW2  734   7.556   0.240   6.929
99613SOL     OW  735   5.307  12.766   9.816
99613SOL    HW1  736   5.227  12.713   9.808
99613SOL    HW2  737   5.283  12.851   9.779
99614SOL     OW  738   7.427  12.720   4.882
99614SOL    HW1  739   7.496  12.700   4.819
99614SOL    HW2  740   7.445  12.663   4.956
99615SOL     OW  741  13.582   5.852  11.471
99615SOL    HW1  742  13.543   5.854  11.558
99615SOL    HW2  743  13.580   5.760  11.446
99616SOL     OW  744   4.908   0.680   4.623
99616SOL    HW1  745   4.827   0.714   4.660
99616SOL    HW2  746   4.905   0.586   4.641
99617SOL     OW  747   4.596  12.125  14.547
99617SOL    HW1  748   4.574  12.056  14.609
99617SOL    HW2  749   4.525  12.188  14.555
99618SOL     OW  750  10.953   6.249   3.010
99618SOL    HW1  751  10.879   6.278   2.957
99618SOL    HW2  752  10.912   6.209   3.087
99619SOL     OW  753   0.308   8.560   8.932
99619SOL    HW1  754   0.305   8.624   8.861
99619SOL    HW2  755   0.233   8.582   8.987
99620SOL     OW  756   9.849   2.994   1.148
99620SOL    HW1  757   9.869   2.917   1.094
99620SOL    HW2  758   9.766   2.973   1.190
99621SOL     OW  759   0.690  11.829   4.013
99621SOL    HW1  760   0.694  11.792   4.101
99621SOL    HW2  761   0.598  11.855   4.002
99622SOL     OW  762   6.296   2.981  13.751
99622SOL    HW1  763   6.345   3.063  13.743
99622SOL    HW2  764   6.223   2.990  13.689
99623SOL     OW  765   1.396  13.483  10.267
99623SOL    HW1  766   1.434  13.425  10.333
99623SOL    HW2  767   1.450  13.470  10.189
99624SOL     OW  768  10.494   5.233  12.069
99624SOL    HW1  769  10.560   5.173  12.102
99624SOL    HW2  770  10.539   5.285  12.002
99625SOL     OW  771   4.876  13.575   4.203
99625SOL    HW1  772   4.869  13.532   4.118
99625SOL    HW2  773   4.794  13.554   4.247
99626SOL     OW  774  14.332  14.156   1.781
99626SOL    HW1  775  14.338  14.062   1.767
99626SOL    HW2  776  14.394  14.194   1.719
99627SOL     OW  777  11.383   0.659   0.861
99627SOL    HW1  778  11.292   0.667   0.890
99627SOL    HW2  779  11.388   0.713   0.782
99628SOL     OW  780   9.125  11.583   9.416
99628SOL    HW1  781   9.160  11.522   9.481
99628SOL    HW2  782   9.188  11.579   9.344
99629SOL     OW  783   4.836   7.384  10.294
99629SOL    HW1  784   4.796   7.360  10.210
99629SOL    HW2  785   4.895   7.311  10.314
99630SOL     OW  786  11.624   6.828   3.417
99630SOL    HW1  787  11.673   6.750   3.443
99630SOL    HW2  788  11.569   6.799   3.345
99631SOL     OW  789   8.328   4.880   3.198
99631SOL    HW1  790   8.351   4.872   3.105
99631SOL    HW2  791   8.250   4.936   3.199
99632SOL     OW  792   1.726  13.834   8.159
99632SOL    HW1  793   1.704  13.778   8.084
99632SOL    HW2  794   1.781  13.779   8.215
99633SOL     OW  795  14.261  12.608   3.439
99633SOL    HW1  796  14.166  12.593   3.438
99633SOL    HW2  797  14.296  12.545   3.376
99634SOL     OW  798  11.326   1.419  10.136
99634SOL    HW1  799  11.245   1.371  10.119
99634SOL    HW2  800  11.348   1.398  10.227
99635SOL     OW  801   6.271   7.622  10.728
99635SOL    HW1  802   6.315   7.553  10.679
99635SOL    HW2  803   6.240   7.683  10.661
99636SOL     OW  804   9.525   0.897  11.382
99636SOL    HW1  805   9.504   0.989  11.397
99636SOL    HW2  806   9.485   0.851  11.456
99637SOL     OW  807  10.003   8.089   5.376
99637SOL    HW1  808   9.959   8.050   5.301
99637SOL    HW2  809  10.090   8.112   5.344
99638SOL     OW  810  14.101   1.156  14.311
99638SOL    HW1  811  14.147   1.169  14.394
99638SOL    HW2  812  14.169   1.131  14.249
99639SOL     OW  813  13.542   5.555  11.403
99639SOL    HW1  814  13.461   5.505  11.412
99639SOL    HW2  815  13.582   5.553  11.490
99640SOL     OW  816   5.737   3.353  11.929
99640SOL    HW1  817   5.770   3.416  11.993
99640SOL    HW2  818   5.659   3.315  11.970
99641SOL     OW  819  10.369   7.729   6.038
99641SOL    HW1  820  10.318   7.667   5.986
99641SOL    HW2  821  10.309   7.754   6.109
99642SOL     OW  822   7.545   7.221  13.784
99642SOL    HW1  823   7.562   7.128  13.769
99642SOL    HW2  824   7.528   7.257  13.697
99643SOL     OW  825   4.981   8.292   9.233
99643SOL    HW1  826   4.892   8.262   9.217
99643SOL    HW2  827   4.972   8.365   9.294
99644SOL     OW  828   5.657   4.487  10.570
99644SOL    HW1  829   5.673   4.578  10.543
99644SOL    HW2  830   5.743   4.452  10.592
99645SOL     OW  831   1.066   8.979   1.895
99645SOL    HW1  832   1.021   8.910   1.944
99645SOL    HW2  833   1.031   9.060   1.932
99646SOL     OW  834   2.877  10.306  14.389
99646SOL    HW1  835   2.842  10.247  14.323
99646SOL    HW2  836   2.972  10.306  14.373
99647SOL     OW  837   9.970  13.426  14.639
99647SOL    HW1  838   9.966  13.491  14.709
99647SOL    HW2  839  10.025  13.466  14.572
99648SOL     OW  840  10.401  13.629   0.782
99648SOL    HW1  841  10.421  13.709   0.733
99648SOL    HW2  842  10.365  13.661   0.865
99649SOL     OW  843   5.320  13.611  10.510
99649SOL    HW1  844   5.385  13.651  10.452
99649SOL    HW2  845   5.302  13.525  10.471
99650SOL     OW  846  12.913  10.604   3.311
99650SOL    HW1  847  12.829  10.594   3.265
99650SOL    HW2  848  12.978  10.612   3.242
99651SOL     OW  849  11.582   0.469   3.947
99651SOL    HW1  850  11.559   0.376   3.958
99651SOL    HW2  851  11.509   0.506   3.897
99652SOL     OW  852  10.868  12.515   1.552
99652SOL    HW1  853  10.864  12.455   1.626
99652SOL    HW2  854  10.926  12.471   1.489
99653SOL     OW  855  14.004   1.408  10.520
99653SOL    HW1  856  13.972   1.326  10.556
99653SOL    HW2  857  14.036   1.458  10.595
99654SOL     OW  858   1.687   0.720   9.684
99654SOL    HW1  859   1.714   0.780   9.615
99654SOL    HW2  860   1.727   0.636   9.660
99655SOL     OW  861  13.029   9.169   9.478
99655SOL    HW1  862  12.976   9.167   9.399
99655SOL    HW2  863  12.987   9.234   9.534
99656SOL     OW  864   2.652  11.087   2.214
99656SOL    HW1  865   2.574  11.035   2.237
99656SOL    HW2  866   2.682  11.050   2.131
99657SOL     OW  867  12.089   1.573  13.709
99657SOL    HW1  868  12.129   1.513  13.773
99657SOL    HW2  869  12.131   1.658  13.727
99658SOL     OW  870   9.563   7.064   7.929
99658SOL    HW1  871   9.539   7.140   7.982
99658SOL    HW2  872   9.538   7.088   7.839
99659SOL     OW  873   9.921   1.001  13.788
99659SOL    HW1  874   9.861   0.997  13.713
99659SOL    HW2  875   9.865   1.024  13.862
99660SOL     OW  876   1.717   0.270  13.178
99660SOL    HW1  877   1.793   0.328  13.177
99660SOL    HW2  878   1.682   0.274  13.089
99661SOL     OW  879   6.857  10.679  13.197
99661SOL    HW1  880   6.822  10.749  13.142
99661SOL    HW2  881   6.783  10.619  13.208
99662SOL     OW  882  10.904   4.359   0.727
99662SOL    HW1  883  10.961   4.384   0.654
99662SOL    HW2  884  10.828   4.318   0.686
99663SOL     OW  885   3.452   3.531  14.736
99663SOL    HW1  886   3.392   3.603  14.720
99663SOL    HW2  887   3.437   3.470  14.664
99664SOL     OW  888   8.096   0.933  13.235
99664SOL    HW1  889   8.130   0.845  13.251
99664SOL    HW2  890   8.134   0.959  13.151
99665SOL     OW  891  13.182   8.199   3.149
99665SOL    HW1  892  13.133   8.281   3.141
99665SOL    HW2  893  13.158   8.149   3.071
99666SOL     OW  894  12.532   5.210   3.878
99666SOL    HW1  895  12.447   5.181   3.847
99666SOL    HW2  896  12.548   5.293   3.833
99667SOL     OW  897  10.871   7.054   0.590
99667SOL    HW1  898  10.963   7.079   0.596
99667SOL    HW2  899  10.865   6.973   0.641
99668SOL     OW  900   3.812   7.728   5.981
99668SOL    HW1  901   3.791   7.635   5.984
99668SOL    HW2  902   3.729   7.772   5.996
99669SOL     OW  903   6.569  13.690   7.189
99669SOL    HW1  904   6.619  13.757   7.237
99669SOL    HW2  905   6.594  13.702   7.098
99670SOL     OW  906  14.403   3.190  10.150
99670SOL    HW1  907  14.410   3.194  10.054
99670SOL    HW2  908  14.312   3.165  10.167
99671SOL     OW  909   5.443   6.787   3.670
99671SOL    HW1  910   5.442   6.739   3.587
99671SOL    HW2  911   5.493   6.731   3.730
99672SOL     OW  912   2.289   2.612  11.390
99672SOL    HW1  913   2.250   2.589  11.474
99672SOL    HW2  914   2.266   2.704  11.378
99673SOL     OW  915   9.958  10.269  10.957
99673SOL    HW1  916  10.009  10.342  10.992
99673SOL    HW2  917   9.994  10.254  10.870
99674SOL     OW  918  10.111   7.328   1.632
99674SOL    HW1  919  10.077   7.301   1.718
99674SOL    HW2  920  10.093   7.421   1.627
99675SOL     OW  921   1.331  13.601   3.154
99675SOL    HW1  922   1.312  13.695   3.155
99675SOL    HW2  923   1.253  13.561   3.116
99676SOL     OW  924   8.504  11.505   0.925
99676SOL    HW1  925   8.587  11.538   0.958
99676SOL    HW2  926   8.482  11.563   0.853
99677SOL     OW  927   4.579   0.018  12.464
99677SOL    HW1  928   4.565   0.107  12.497
99677SOL    HW2  929   4.587  14.839  12.543
99678SOL     OW  930  12.973   5.683   1.871
99678SOL    HW1  931  12.882   5.657   1.855
99678SOL    HW2  932  13.022   5.644   1.798
99679SOL     OW  933  14.541   2.268   8.462
99679SOL    HW1  934  14.584   2.265   8.377
99679SOL    HW2  935  14.483   2.344   8.457
99680SOL     OW  936   2.864  13.819   2.915
99680SOL    HW1  937   2.894  13.758   2.983
99680SOL    HW2  938   2.792  13.772   2.871
99681SOL     OW  939   2.289   2.255   4.612
99681SOL    HW1  940   2.208   2.303   4.592
99681SOL    HW2  941   2.291   2.252   4.708
99682SOL     OW  942   0.207  10.518   9.962
99682SOL    HW1  943   0.215  10.425   9.941
99682SOL    HW2  944   0.115  10.529   9.987
99683SOL     OW  945   4.970  11.563  13.409
99683SOL    HW1  946   4.948  11.477  13.374
99683SOL    HW2  947   4.906  11.623  13.370
99684SOL     OW  948   3.222   1.076   1.443
99684SOL    HW1  949   3.141   1.068   1.493
99684SOL    HW2  950   3.205   1.147   1.381
99685SOL     OW  951   8.525   4.993   0.774
99685SOL    HW1  952   8.456   5.053   0.803
99685SOL    HW2  953   8.528   4.926   0.842
99686SOL     OW  954  13.195  12.472  13.180
99686SOL    HW1  955  13.252  12.452  13.105
99686SOL    HW2  956  13.206  12.566  13.193
99687SOL     OW  957   3.582   4.924  12.099
99687SOL    HW1  958   3.543   4.994  12.151
99687SOL    HW2  959   3.507   4.880  12.057
99688SOL     OW  960   3.312   7.135  11.314
99688SOL    HW1  961   3.398   7.164  11.284
99688SOL    HW2  962   3.302   7.048  11.276
99689SOL     OW  963  12.517   6.187   7.176
99689SOL    HW1  964  12.586   6.169   7.112
99689SOL    HW2  965  12.511   6.107   7.228
99690SOL     OW  966   5.079  14.309  14.083
99690SOL    HW1  967   4.993  14.333  14.048
99690SOL    HW2  968   5.135  14.301  14.006
99691SOL     OW  969   0.931   0.218   9.738
99691SOL    HW1  970   0.948   0.285   9.671
99691SOL    HW2  971   0.916   0.268   9.818
99692SOL     OW  972  12.378  10.467   3.760
99692SOL    HW1  973  12.325  10.515   3.824
99692SOL    HW2  974  12.467  10.500   3.773
99693SOL     OW  975  12.254  12.602  12.963
99693SOL    HW1  976  12.253  12.666  13.035
99693SOL    HW2  977  12.163  12.571  12.958
99694SOL     OW  978   1.380   2.348   0.866
99694SOL    HW1  979   1.450   2.303   0.819
99694SOL    HW2  980   1.354   2.287   0.935
99695SOL     OW  981   7.110   6.297   3.224
99695SOL    HW1  982   7.177   6.248   3.176
99695SOL    HW2  983   7.116   6.386   3.190
99696SOL     OW  984  10.094  14.378   0.243
99696SOL    HW1  985  10.059  14.379   0.332
99696SOL    HW2  986  10.052  14.303   0.202
99697SOL     OW  987   4.193   9.501  10.654
99697SOL    HW1  988   4.124   9.557  10.619
99697SOL    HW2  989   4.242   9.473  10.577
99698SOL     OW  990   6.858   2.236  14.260
99698SOL    HW1  991   6.941   2.223  14.215
99698SOL    HW2  992   6.858   2.329  14.284
99699SOL     OW  993   2.328   4.366   7.569
99699SOL    HW1  994   2.421   4.356   7.592
99699SOL    HW2  995   2.304   4.282   7.530
99700SOL     OW  996   1.947   8.707   8.769
99700SOL    HW1  997   1.994   8.788   8.792
99700SOL    HW2  998   1.930   8.665   8.853
99701SOL     OW  999   4.887  12.890   6.513
99701SOL    HW1 1000   4.981  12.882   6.496
99701SOL    HW2 1001   4.846  12.869   6.429
99702SOL     OW 1002   1.948   3.693   6.194
99702SOL    HW1 1003   1.962   3.599   6.185
99702SOL    HW2 1004   1.926   3.705   6.286
99703SOL     OW 1005  14.734  13.420   1.369
99703SOL    HW1 1006  14.674  13.359   1.327
99703SOL    HW2 1007  14.687  13.449   1.448
99704SOL     OW 1008   9.633   2.569   6.264
99704SOL    HW1 1009   9.679   2.573   6.180
99704SOL    HW2 1010   9.559   2.628   6.254
99705SOL     OW 1011  10.112   5.869  11.639
99705SOL    HW1 1012  10.090   5.866  11.546
99705SOL    HW2 1013  10.095   5.959  11.665
99706SOL     OW 1014   3.413   1.013   1.686
99706SOL    HW1 1015   3.444   0.923   1.679
99706SOL    HW2 1016   3.465   1.061   1.621
99707SOL     OW 1017   5.815   5.043   8.390
99707SOL    HW1 1018   5.736   5.050   8.335
99707SOL    HW2 1019   5.790   5.084   8.473
99708SOL     OW 1020   6.047   7.171  13.425
99708SOL    HW1 1021   6.038   7.167  13.329
99708SOL    HW2 1022   5.956   7.176  13.456
99709SOL     OW 1023   6.403  11.143  13.452
99709SOL    HW1 1024   6.340  11.186  13.510
99709SOL    HW2 1025   6.360  11.062  13.426
99710SOL     OW 1026   1.902   2.620  14.768
99710SOL    HW1 1027   1.930   2.701  14.725
99710SOL    HW2 1028   1.983   2.569  14.776
99711SOL     OW 1029  11.661   3.669   4.595
99711SOL    HW1 1030  11.571   3.636   4.585
99711SOL    HW2 1031  11.665   3.745   4.538
99712SOL     OW 1032   3.335   0.292   9.109
99712SOL    HW1 1033   3.353   0.294   9.203
99712SOL    HW2 1034   3.324   0.199   9.089
99713SOL     OW 1035   5.120   0.016   5.984
99713SOL    HW1 1036   5.159   0.099   6.012
99713SOL    HW2 1037   5.089  14.851   6.065
99714SOL     OW 1038  13.131   3.807   1.348
99714SOL    HW1 1039  13.139   3.888   1.299
99714SOL    HW2 1040  13.185   3.821   1.426
99715SOL     OW 1041   9.707   1.976   2.931
99715SOL    HW1 1042   9.615   1.954   2.915
99715SOL    HW2 1043   9.756   1.901   2.895
99716SOL     OW 1044   8.109   0.071  12.893
99716SOL    HW1 1045   8.034   0.012  12.904
99716SOL    HW2 1046   8.185   0.016  12.910
99717SOL     OW 1047  10.970   5.944  13.600
99717SOL    HW1 1048  11.037   6.000  13.562
99717SOL    HW2 1049  11.012   5.904  13.676
99718SOL     OW 1050   2.496  12.314  11.196
99718SOL    HW1 1051   2.586  12.313  11.162
99718SOL    HW2 1052   2.496  12.386  11.259
99719SOL     OW 1053   2.232   7.963   9.974
99719SOL    HW1 1054   2.238   7.883   9.922
99719SOL    HW2 1055   2.321   7.998   9.975
99720SOL     OW 1056   1.161  13.846  12.968
99720SOL    HW1 1057   1.233  13.886  13.016
99720SOL    HW2 1058   1.098  13.820  13.035
99721SOL     OW 1059   0.638   4.250   4.885
99721SOL    HW1 1060   0.630   4.309   4.810
99721SOL    HW2 1061   0.678   4.171   4.849
99722SOL     OW 1062  13.713   6.274   5.833
99722SOL    HW1 1063  13.722   6.181   5.810
99722SOL    HW2 1064  13.732   6.277   5.927
99723SOL     OW 1065   1.881   3.114  11.683
99723SOL    HW1 1066   1.919   3.067  11.609
99723SOL    HW2 1067   1.787   3.117  11.664
99724SOL     OW 1068   6.347   2.302   8.997
99724SOL    HW1 1069   6.399   2.225   8.973
99724SOL    HW2 1070   6.273   2.301   8.937
99725SOL     OW 1071   0.949   8.299   1.599
99725SOL    HW1 1072   1.012   8.329   1.534
99725SOL    HW2 1073   0.887   8.244   1.550
99726SOL     OW 1074   5.907   4.724   8.332
99726SOL    HW1 1075   5.974   4.784   8.362
99726SOL    HW2 1076   5.955   4.654   8.288
99727SOL     OW 1077   4.560  11.428   0.209
99727SOL    HW1 1078   4.645  11.386   0.216
99727SOL    HW2 1079   4.532  11.442   0.299
99728SOL     OW 1080  14.069   6.679  13.594
99728SOL    HW1 1081  14.115   6.759  13.619
99728SOL    HW2 1082  13.978   6.694  13.621
99729SOL     OW 1083  10.973  10.478  10.026
99729SOL    HW1 1084  10.997  10.563   9.991
99729SOL    HW2 1085  11.053  10.445  10.066
99730SOL     OW 1086   6.256  10.146   2.456
99730SOL    HW1 1087   6.281  10.137   2.364
99730SOL    HW2 1088   6.231  10.058   2.483
99731SOL     OW 1089   9.333   4.284   4.143
99731SOL    HW1 1090   9.321   4.378   4.146
99731SOL    HW2 1091   9.401   4.266   4.208
99732SOL     OW 1092  10.273  13.841   3.010
99732SOL    HW1 1093  10.195  13.891   2.985
99732SOL    HW2 1094  10.257  13.753   2.977
99733SOL     OW 1095   8.859   3.502  14.449
99733SOL    HW1 1096   8.820   3.426  14.405
99733SOL    HW2 1097   8.822   3.499  14.538
99734SOL     OW 1098   2.301   8.289   5.471
99734SOL    HW1 1099   2.274   8.298   5.379
99734SOL    HW2 1100   2.247   8.352   5.518
99735SOL     OW 1101   4.417   4.444   0.899
99735SOL    HW1 1102   4.337   4.397   0.875
99735SOL    HW2 1103   4.386   4.519   0.950
99736SOL     OW 1104  11.197  13.225   7.002
99736SOL    HW1 1105  11.283  13.255   6.974
99736SOL    HW2 1106  11.202  13.129   6.997
99737SOL     OW 1107   8.311   7.949   2.024
99737SOL    HW1 1108   8.283   8.033   2.061
99737SOL    HW2 1109   8.230   7.909   1.992
99738SOL     OW 1110   8.718   0.708  11.947
99738SOL    HW1 1111   8.776   0.752  12.010
99738SOL    HW2 1112   8.630   0.728  11.977
99739SOL     OW 1113   5.449   8.526  10.023
99739SOL    HW1 1114   5.397   8.598   9.987
99739SOL    HW2 1115   5.405   8.504  10.105
99740SOL     OW 1116  13.163   1.659   7.216
99740SOL    HW1 1117  13.089   1.659   7.277
99740SOL    HW2 1118  13.235   1.621   7.266
99741SOL     OW 1119  13.388  11.863   4.134
99741SOL    HW1 1120  13.435  11.909   4.064
99741SOL    HW2 1121  13.437  11.883   4.214
99742SOL     OW 1122   1.081   0.995   4.094
99742SOL    HW1 1123   1.065   1.027   4.005
99742SOL    HW2 1124   1.003   0.943   4.116
99743SOL     OW 1125  13.932   0.598   3.833
99743SOL    HW1 1126  13.890   0.603   3.919
99743SOL    HW2 1127  13.872   0.546   3.780
99744SOL     OW 1128  10.383   5.018  10.571
99744SOL    HW1 1129  10.318   4.968  10.620
99744SOL    HW2 1130  10.390   4.972  10.487
99745SOL     OW 1131   1.722   7.008   3.284
99745SOL    HW1 1132   1.701   6.997   3.192
99745SOL    HW2 1133   1.753   6.922   3.312
99746SOL     OW 1134   4.325   1.541  12.026
99746SOL    HW1 1135   4.369   1.456  12.028
99746SOL    HW2 1136   4.232   1.520  12.022
99747SOL     OW 1137  13.527   1.777   6.985
99747SOL    HW1 1138  13.481   1.698   7.016
99747SOL    HW2 1139  13.572   1.749   6.906
99748SOL     OW 1140  12.409   9.892  13.162
99748SOL    HW1 1141  12.342   9.824  13.155
99748SOL    HW2 1142  12.400   9.942  13.081
99749SOL     OW 1143   0.703   7.711   4.985
99749SOL    HW1 1144   0.711   7.620   4.954
99749SOL    HW2 1145   0.738   7.708   5.074
99750SOL     OW 1146   4.735   4.690   1.039
99750SOL    HW1 1147   4.672   4.620   1.052
99750SOL    HW2 1148   4.819   4.645   1.030
99751SOL     OW 1149   4.919   9.847  12.919
99751SOL    HW1 1150   4.843   9.791  12.938
99751SOL    HW2 1151   4.983   9.788  12.880
99752SOL     OW 1152   2.019   2.000   7.175
99752SOL    HW1 1153   1.927   1.974   7.166
99752SOL    HW2 1154   2.066   1.918   7.188
99753SOL     OW 1155  11.341   2.518   7.888
99753SOL    HW1 1156  11.302   2.444   7.842
99753SOL    HW2 1157  11.421   2.537   7.839
99754SOL     OW 1158  12.484   6.033   5.994
99754SOL    HW1 1159  12.469   5.953   6.044
99754SOL    HW2 1160  12.550   6.008   5.929
99755SOL     OW 1161  14.605  14.010   2.136
99755SOL    HW1 1162  14.649  14.064   2.070
99755SOL    HW2 1163  14.526  13.979   2.093
99756SOL     OW 1164   4.101  11.222  10.653
99756SOL    HW1 1165   4.063  11.139  10.625
99756SOL    HW2 1166   4.049  11.289  10.608
99757SOL     OW 1167   8.036  13.876  12.178
99757SOL    HW1 1168   8.123  13.917  12.173
99757SOL    HW2 1169   7.979  13.935  12.129
99758SOL     OW 1170   6.435  14.581   4.985
99758SOL    HW1 1171   6.341  14.596   4.968
99758SOL    HW2 1172   6.471  14.669   4.995
99759SOL     OW 1173   0.000  12.279   9.894
99759SOL    HW1 1174   0.055  12.357   9.898
99759SOL    HW2 1175  14.787  12.313   9.880
99760SOL     OW 1176   5.617  11.015   6.003
99760SOL    HW1 1177   5.527  11.010   6.036
99760SOL    HW2 1178   5.652  11.095   6.043
99761SOL     OW 1179   9.582   1.306   0.780
99761SOL    HW1 1180   9.582   1.262   0.864
99761SOL    HW2 1181   9.671   1.341   0.771
99762SOL     OW 1182  10.040   6.922   4.164
99762SOL    HW1 1183  10.027   7.017   4.159
99762SOL    HW2 1184   9.991   6.887   4.090
99763SOL     OW 1185  10.164  10.679   1.030
99763SOL    HW1 1186  10.113  10.600   1.047
99763SOL    HW2 1187  10.253  10.657   1.059
99764SOL     OW 1188   2.925   1.133   0.002
99764SOL    HW1 1189   2.965   1.218   0.021
99764SOL    HW2 1190   2.853   1.127   0.065
99765SOL     OW 1191   1.534   7.842   4.887
99765SOL    HW1 1192   1.531   7.767   4.828
99765SOL    HW2 1193   1.563   7.914   4.832
99766SOL     OW 1194   7.722   8.211   7.306
99766SOL    HW1 1195   7.788   8.259   7.256
99766SOL    HW2 1196   7.772   8.149   7.358
99767SOL     OW 1197   8.874   1.455   0.513
99767SOL    HW1 1198   8.959   1.437   0.552
99767SOL    HW2 1199   8.811   1.419   0.576
99768SOL     OW 1200   2.208   1.060   6.361
99768SOL    HW1 1201   2.166   0.994   6.416
99768SOL    HW2 1202   2.301   1.035   6.362
99769SOL     OW 1203   2.062   7.586   4.371
99769SOL    HW1 1204   2.054   7.681   4.367
99769SOL    HW2 1205   1.985   7.554   4.323
99770SOL     OW 1206  12.786   3.330  13.266
99770SOL    HW1 1207  12.745   3.413  13.291
99770SOL    HW2 1208  12.716   3.266  13.273
99771SOL     OW 1209   1.111   5.976   1.429
99771SOL    HW1 1210   1.104   5.921   1.507
99771SOL    HW2 1211   1.203   6.002   1.426
99772SOL     OW 1212  10.397   6.250  14.555
99772SOL    HW1 1213  10.427   6.316  14.493
99772SOL    HW2 1214  10.444   6.269  14.636
99773SOL     OW 1215  12.910   4.458  14.291
99773SOL    HW1 1216  12.919   4.383  14.233
99773SOL    HW2 1217  12.880   4.529  14.234
99774SOL     OW 1218   7.927  12.255  11.428
99774SOL    HW1 1219   8.010  12.266  11.476
99774SOL    HW2 1220   7.865  12.223  11.493
99775SOL     OW 1221  10.362  11.307  10.571
99775SOL    HW1 1222  10.355  11.255  10.651
99775SOL    HW2 1223  10.381  11.396  10.602
99776SOL     OW 1224   3.103   8.671  12.289
99776SOL    HW1 1225   3.161   8.744  12.267
99776SOL    HW2 1226   3.072   8.639  12.204
99777SOL     OW 1227   0.427  13.953   7.314
99777SOL    HW1 1228   0.342  13.939   7.356
99777SOL    HW2 1229   0.472  13.869   7.321
99778SOL     OW 1230  10.975   5.976  11.298
99778SOL    HW1 1231  11.007   5.924  11.224
99778SOL    HW2 1232  10.885   6.000  11.273
99779SOL     OW 1233  11.341  13.678  12.329
99779SOL    HW1 1234  11.423  13.634  12.303
99779SOL    HW2 1235  11.367  13.736  12.400
99780SOL     OW 1236   2.594   2.395   9.134
99780SOL    HW1 1237   2.499   2.399   9.120
99780SOL    HW2 1238   2.605   2.405   9.229
99781SOL     OW 1239   4.587   7.564   9.978
99781SOL    HW1 1240   4.623   7.650   9.957
99781SOL    HW2 1241   4.515   7.582  10.039
99782SOL     OW 1242   0.527  14.758   5.992
99782SOL    HW1 1243   0.541  14.759   5.897
99782SOL    HW2 1244   0.534  14.666   6.016
99783SOL     OW 1245   8.326   1.554   6.444
99783SOL    HW1 1246   8.408   1.529   6.487
99783SOL    HW2 1247   8.261   1.554   6.515
99784SOL     OW 1248   7.301   7.270   1.169
99784SOL    HW1 1249   7.329   7.185   1.136
99784SOL    HW2 1250   7.330   7.332   1.103
99785SOL     OW 1251   6.460   2.060  10.268
99785SOL    HW1 1252   6.552   2.032  10.269
99785SOL    HW2 1253   6.417   1.996  10.212
99786SOL     OW 1254   0.627  10.139   6.428
99786SOL    HW1 1255   0.647  10.074   6.360
99786SOL    HW2 1256   0.557  10.192   6.391
99787SOL     OW 1257  13.119  10.305   1.590
99787SOL    HW1 1258  13.175  10.373   1.553
99787SOL    HW2 1259  13.115  10.325   1.683
99788SOL     OW 1260   1.822   5.344   2.156
99788SOL    HW1 1261   1.879   5.368   2.083
99788SOL    HW2 1262   1.836   5.413   2.222
99789SOL     OW 1263   5.864  10.276   5.301
99789SOL    HW1 1264   5.904  10.357   5.333
99789SOL    HW2 1265   5.771  10.286   5.322
99790SOL     OW 1266  12.631   6.944  13.229
99790SOL    HW1 1267  12.712   6.902  13.257
99790SOL    HW2 1268  12.615   6.909  13.141
99791SOL     OW 1269   6.583  10.430   0.740
99791SOL    HW1 1270   6.538  10.350   0.714
99791SOL    HW2 1271   6.521  10.500   0.717
99792SOL     OW 1272  12.138   4.681  13.801
99792SOL    HW1 1273  12.179   4.607  13.757
99792SOL    HW2 1274  12.097   4.644  13.879
99793SOL     OW 1275   8.644  13.383  13.859
99793SOL    HW1 1276   8.550  13.399  13.858
99793SOL    HW2 1277   8.657  13.308  13.801
99794SOL     OW 1278   2.126   6.958  13.223
99794SOL    HW1 1279   2.192   6.936  13.289
99794SOL    HW2 1280   2.052   6.900  13.243
99795SOL     OW 1281   7.950   1.608   9.134
99795SOL    HW1 1282   7.859   1.623   9.109
99795SOL    HW2 1283   7.963   1.664   9.210
99796SOL     OW 1284  13.411  11.470   7.467
99796SOL    HW1 1285  13.472  11.432   7.403
99796SOL    HW2 1286  13.328  11.426   7.449
99797SOL     OW 1287   6.698   0.456  11.845
99797SOL    HW1 1288   6.635   0.422  11.908
99797SOL    HW2 1289   6.738   0.531  11.890
99798SOL     OW 1290  14.727   5.735   5.139
99798SOL    HW1 1291  14.681   5.792   5.077
99798SOL    HW2 1292  14.665   5.664   5.157
99799SOL     OW 1293   6.373   0.340   2.642
99799SOL    HW1 1294   6.407   0.319   2.555
99799SOL    HW2 1295   6.414   0.423   2.665
99800SOL     OW 1296   3.911  10.666   0.798
99800SOL    HW1 1297   3.900  10.586   0.746
99800SOL    HW2 1298   3.995  10.654   0.842
99801SOL     OW 1299  13.482   0.491   8.382
99801SOL    HW1 1300  13.489   0.461   8.473
99801SOL    HW2 1301  13.399   0.537   8.377
99802SOL     OW 1302   1.829   0.115  10.973
99802SOL    HW1 1303   1.882   0.125  11.052
99802SOL    HW2 1304   1.756   0.059  10.999
99803SOL     OW 1305   4.257  13.796   5.883
99803SOL    HW1 1306   4.335  13.767   5.835
99803SOL    HW2 1307   4.290  13.821   5.969
99804SOL     OW 1308  11.460   0.523  14.416
99804SOL    HW1 1309  11.464   0.618  14.411
99804SOL    HW2 1310  11.436   0.495  14.328
99805SOL     OW 1311   2.930   2.106   8.506
99805SOL    HW1 1312   2.895   2.059   8.431
99805SOL    HW2 1313   2.854   2.150   8.544
99806SOL     OW 1314  10.956   9.596  10.247
99806SOL    HW1 1315  10.968   9.504  10.225
99806SOL    HW2 1316  11.043   9.635  10.233
99807SOL     OW 1317   3.192   3.792   6.012
99807SOL    HW1 1318   3.265   3.845   6.045
99807SOL    HW2 1319   3.157   3.842   5.939
99808SOL     OW 1320   8.580   0.135   5.189
99808SOL    HW1 1321   8.667   0.097   5.202
99808SOL    HW2 1322   8.522   0.059   5.177
99809SOL     OW 1323  11.707   8.195   8.601
99809SOL    HW1 1324  11.681   8.150   8.682
99809SOL    HW2 1325  11.773   8.137   8.562
99810SOL     OW 1326  11.096   6.754   9.927
99810SOL    HW1 1327  11.032   6.721   9.990
99810SOL    HW2 1328  11.178   6.711   9.952
99811SOL     OW 1329   1.926  11.248   0.123
99811SOL    HW1 1330   1.964  11.230   0.037
99811SOL    HW2 1331   1.851  11.305   0.105
99812SOL     OW 1332   4.671   3.420  12.748
99812SOL    HW1 1333   4.699   3.329  12.742
99812SOL    HW2 1334   4.752   3.471  12.741
99813SOL     OW 1335   5.174  13.309   2.169
99813SOL    HW1 1336   5.093  13.267   2.198
99813SOL    HW2 1337   5.166  13.400   2.199
99814SOL     OW 1338   0.327   3.040  10.622
99814SOL    HW1 1339   0.383   2.963  10.626
99814SOL    HW2 1340   0.380   3.110  10.658
99815SOL     OW 1341   1.897   5.421   0.691
99815SOL    HW1 1342   1.931   5.510   0.676
99815SOL    HW2 1343   1.972   5.373   0.727
99816SOL     OW 1344   7.165   4.573  10.685
99816SOL    HW1 1345   7.223   4.529  10.622
99816SOL    HW2 1346   7.213   4.569  10.768
99817SOL     OW 1347   5.466   4.341   7.343
99817SOL    HW1 1348   5.402   4.411   7.358
99817SOL    HW2 1349   5.540   4.365   7.399
99818SOL     OW 1350   5.564   1.958   0.194
99818SOL    HW1 1351   5.548   1.899   0.120
99818SOL    HW2 1352   5.520   2.039   0.169
99819SOL     OW 1353   5.969   9.460  13.625
99819SOL    HW1 1354   5.946   9.391  13.563
99819SOL    HW2 1355   5.905   9.450  13.695
99820SOL     OW 1356  10.200   3.042  10.886
99820SOL    HW1 1357  10.233   3.096  10.814
99820SOL    HW2 1358  10.146   3.101  10.938
99821SOL     OW 1359   3.688   8.914   8.242
99821SOL    HW1 1360   3.755   8.926   8.309
99821SOL    HW2 1361   3.736   8.897   8.161
99822SOL     OW 1362   1.757   7.395   7.835
99822SOL    HW1 1363   1.670   7.363   7.860
99822SOL    HW2 1364   1.761   7.483   7.872
99823SOL     OW 1365   6.787   1.404   5.009
99823SOL    HW1 1366   6.878   1.435   5.006
99823SOL    HW2 1367   6.743   1.453   4.940
99824SOL     OW 1368   8.908  10.864   8.878
99824SOL    HW1 1369   8.891  10.782   8.832
99824SOL    HW2 1370   8.908  10.931   8.809
99825SOL     OW 1371   2.881   3.433   5.449
99825SOL    HW1 1372   2.812   3.493   5.476
99825SOL    HW2 1373   2.850   3.346   5.475
99826SOL     OW 1374   1.557   6.406   1.996
99826SOL    HW1 1375   1.534   6.404   2.089
99826SOL    HW2 1376   1.518   6.326   1.960
99827SOL     OW 1377   0.805  14.562   9.913
99827SOL    HW1 1378   0.817  14.623   9.986
99827SOL    HW2 1379   0.841  14.608   9.837
99828SOL     OW 1380  12.378   3.752  13.370
99828SOL    HW1 1381  12.365   3.664  13.335
99828SOL    HW2 1382  12.305   3.764  13.431
99829SOL     OW 1383  11.176   9.948   7.161
99829SOL    HW1 1384  11.086   9.945   7.129
99829SOL    HW2 1385  11.170   9.983   7.250
99830SOL     OW 1386  10.990  11.509   9.192
99830SOL    HW1 1387  11.066  11.453   9.206
99830SOL    HW2 1388  10.994  11.574   9.261
99831SOL     OW 1389   7.812   5.011  13.047
99831SOL    HW1 1390   7.789   5.039  12.958
99831SOL    HW2 1391   7.751   4.939  13.066
99832SOL     OW 1392   7.594  12.682   9.171
99832SOL    HW1 1393   7.630  12.768   9.147
99832SOL    HW2 1394   7.641  12.659   9.251
99833SOL     OW 1395  10.210  14.646  11.802
99833SOL    HW1 1396  10.145  14.586  11.765
99833SOL    HW2 1397  10.205  14.724  11.746
99834SOL     OW 1398   3.647   1.527   8.172
99834SOL    HW1 1399   3.563   1.518   8.217
99834SOL    HW2 1400   3.713   1.505   8.238
99835SOL     OW 1401   3.080  12.049  10.012
99835SOL    HW1 1402   3.009  12.057   9.948
99835SOL    HW2 1403   3.052  11.978  10.070
99836SOL     OW 1404   3.300   1.266  12.799
99836SOL    HW1 1405   3.223   1.212  12.819
99836SOL    HW2 1406   3.272   1.355  12.819
99837SOL     OW 1407  13.390   6.524   2.730
99837SOL    HW1 1408  13.378   6.430   2.730
99837SOL    HW2 1409  13.353   6.554   2.647
99838SOL     OW 1410   2.784  13.846  13.880
99838SOL    HW1 1411   2.856  13.835  13.817
99838SOL    HW2 1412   2.794  13.935  13.913
99839SOL     OW 1413   8.551   0.022   6.607
99839SOL    HW1 1414   8.466   0.003   6.566
99839SOL    HW2 1415   8.611   0.033   6.533
99840SOL     OW 1416  11.237  11.527   6.741
99840SOL    HW1 1417  11.244  11.621   6.753
99840SOL    HW2 1418  11.219  11.492   6.828
99841SOL     OW 1419  13.020  11.474   1.762
99841SOL    HW1 1420  13.106  11.457   1.724
99841SOL    HW2 1421  12.958  11.439   1.697
99842SOL     OW 1422   4.116  13.162  10.266
99842SOL    HW1 1423   4.069  13.085  10.298
99842SOL    HW2 1424   4.191  13.170  10.326
99843SOL     OW 1425   4.598  13.701  13.257
99843SOL    HW1 1426   4.628  13.614  13.282
99843SOL    HW2 1427   4.503  13.697  13.267
99844SOL     OW 1428   9.411   7.856  13.270
99844SOL    HW1 1429   9.451   7.777  13.235
99844SOL    HW2 1430   9.317   7.836  13.273
99845SOL     OW 1431  10.396   2.570   6.121
99845SOL    HW1 1432  10.431   2.516   6.192
99845SOL    HW2 1433  10.372   2.652   6.164
99846SOL     OW 1434   2.854  11.565   3.963
99846SOL    HW1 1435   2.811  11.514   4.032
99846SOL    HW2 1436   2.843  11.514   3.883
99847SOL     OW 1437   6.845   9.570   5.518
99847SOL    HW1 1438   6.861   9.492   5.572
99847SOL    HW2 1439   6.761   9.552   5.476
99848SOL     OW 1440   6.254  11.166   9.648
99848SOL    HW1 1441   6.296  11.167   9.734
99848SOL    HW2 1442   6.299  11.097   9.600
99849SOL     OW 1443   4.684  10.139   5.710
99849SOL    HW1 1444   4.704  10.164   5.620
99849SOL    HW2 1445   4.652  10.219   5.751
99850SOL     OW 1446  13.144   5.740   3.040
99850SOL    HW1 1447  13.052   5.715   3.030
99850SOL    HW2 1448  13.192   5.674   2.990
99851SOL     OW 1449   4.852   7.455   4.476
99851SOL    HW1 1450   4.771   7.415   4.445
99851SOL    HW2 1451   4.878   7.401   4.551
99852SOL     OW 1452  14.819  13.736   2.100
99852SOL    HW1 1453  14.735  13.782   2.100
99852SOL    HW2 1454  14.823  13.695   2.013
99853SOL     OW 1455   7.634  10.672   8.818
99853SOL    HW1 1456   7.544  10.641   8.814
99853SOL    HW2 1457   7.641  10.715   8.903
99854SOL     OW 1458  12.647  10.926  12.492
99854SOL    HW1 1459  12.718  10.974  12.450
99854SOL    HW2 1460  12.586  10.905  12.420
99855SOL     OW 1461   8.889   3.503   0.469
99855SOL    HW1 1462   8.806   3.548   0.453
99855SOL    HW2 1463   8.881   3.421   0.421
99856SOL     OW 1464   9.244   8.069   6.469
99856SOL    HW1 1465   9.273   8.104   6.553
99856SOL    HW2 1466   9.209   8.145   6.423
99857SOL     OW 1467   8.410   7.475  14.176
99857SOL    HW1 1468   8.441   7.534  14.244
99857SOL    HW2 1469   8.454   7.392  14.194
99858SOL     OW 1470  11.239   6.536   5.747
99858SOL    HW1 1471  11.218   6.595   5.820
99858SOL    HW2 1472  11.171   6.553   5.683
99859SOL     OW 1473   0.102   4.373  12.062
99859SOL    HW1 1474   0.024   4.331  12.097
99859SOL    HW2 1475   0.075   4.463  12.043
99860SOL     OW 1476   6.361   1.154   8.518
99860SOL    HW1 1477   6.322   1.192   8.597
99860SOL    HW2 1478   6.455   1.166   8.530
99861SOL     OW 1479  10.718   3.279   7.674
99861SOL    HW1 1480  10.682   3.356   7.630
99861SOL    HW2 1481  10.644   3.245   7.725
99862SOL     OW 1482   1.457   6.884   3.576
99862SOL    HW1 1483   1.378   6.869   3.627
99862SOL    HW2 1484   1.437   6.846   3.490
99863SOL     OW 1485   5.683   9.984   8.767
99863SOL    HW1 1486   5.711   9.985   8.676
99863SOL    HW2 1487   5.693   9.893   8.794
99864SOL     OW 1488   3.604  14.225  14.739
99864SOL    HW1 1489   3.515  14.258  14.749
99864SOL    HW2 1490   3.656  14.302  14.715
99865SOL     OW 1491  12.147   2.611   9.337
99865SOL    HW1 1492  12.145   2.671   9.412
99865SOL    HW2 1493  12.098   2.534   9.367
99866SOL     OW 1494   9.587   3.897   8.696
99866SOL    HW1 1495   9.673   3.885   8.736
99866SOL    HW2 1496   9.576   3.991   8.689
99867SOL     OW 1497  12.083  13.156   5.206
99867SOL    HW1 1498  12.007  13.190   5.253
99867SOL    HW2 1499  12.049  13.135   5.119
99868SOL     OW 1500   5.017   3.846   5.402
99868SOL    HW1 1501   5.037   3.807   5.487
99868SOL    HW2 1502   4.992   3.771   5.347
99869SOL     OW 1503  10.232  11.784  11.297
99869SOL    HW1 1504  10.192  11.710  11.251
99869SOL    HW2 1505  10.161  11.847  11.306
99870SOL     OW 1506   3.147  11.339  10.794
99870SOL    HW1 1507   3.163  11.387  10.876
99870SOL    HW2 1508   3.209  11.378  10.732
99871SOL     OW 1509  12.003  11.420   2.643
99871SOL    HW1 1510  11.963  11.419   2.730
99871SOL    HW2 1511  11.952  11.356   2.593
99872SOL     OW 1512   7.001   8.434  13.391
99872SOL    HW1 1513   7.066   8.401  13.453
99872SOL    HW2 1514   6.924   8.379  13.407
99873SOL     OW 1515   4.320   5.905  12.559
99873SOL    HW1 1516   4.385   5.956  12.607
99873SOL    HW2 1517   4.296   5.835  12.620
99874SOL     OW 1518   4.632   6.193   7.544
99874SOL    HW1 1519   4.608   6.265   7.486
99874SOL    HW2 1520   4.632   6.232   7.632
99875SOL     OW 1521   8.601  13.625  14.870
99875SOL    HW1 1522   8.561  13.692   0.050
99875SOL    HW2 1523   8.553  13.632  14.787
99876SOL     OW 1524   2.084   4.206   5.398
99876SOL    HW1 1525   2.176   4.193   5.423
99876SOL    HW2 1526   2.035   4.185   5.478
99877SOL     OW 1527  11.647   1.351   2.222
99877SOL    HW1 1528  11.575   1.398   2.179
99877SOL    HW2 1529  11.629   1.361   2.315
99878SOL     OW 1530  13.947   3.431  13.596
99878SOL    HW1 1531  13.961   3.525  13.603
99878SOL    HW2 1532  13.852   3.420  13.594
99879SOL     OW 1533   4.065   0.481  13.933
99879SOL    HW1 1534   3.985   0.517  13.971
99879SOL    HW2 1535   4.091   0.544  13.866
99880SOL     OW 1536   4.889   5.779   9.531
99880SOL    HW1 1537   4.932   5.843   9.474
99880SOL    HW2 1538   4.943   5.701   9.524
99881SOL     OW 1539   1.495  10.232   3.382
99881SOL    HW1 1540   1.426  10.254   3.445
99881SOL    HW2 1541   1.473  10.283   3.304
99882SOL     OW 1542   6.277   7.275   5.894
99882SOL    HW1 1543   6.333   7.236   5.827
99882SOL    HW2 1544   6.248   7.358   5.855
99883SOL     OW 1545  14.839   2.504   8.385
99883SOL    HW1 1546  14.794   2.519   8.301
99883SOL    HW2 1547  14.840   2.589   8.428
99884SOL     OW 1548   1.353   3.098   5.970
99884SOL    HW1 1549   1.418   3.043   5.926
99884SOL    HW2 1550   1.354   3.180   5.921
99885SOL     OW 1551  13.497   9.338  11.337
99885SOL    HW1 1552  13.422   9.381  11.378
99885SOL    HW2 1553  13.573   9.391  11.364
99886SOL     OW 1554   2.467  11.645  11.376
99886SOL    HW1 1555   2.475  11.677  11.466
99886SOL    HW2 1556   2.373  11.640  11.361
99887SOL     OW 1557   0.277   9.897  11.976
99887SOL    HW1 1558   0.214   9.864  11.912
99887SOL    HW2 1559   0.261   9.992  11.977
99888SOL     OW 1560  12.203   3.637  12.125
99888SOL    HW1 1561  12.189   3.732  12.127
99888SOL    HW2 1562  12.210   3.612  12.217
99889SOL     OW 1563   5.458   2.523   0.292
99889SOL    HW1 1564   5.507   2.441   0.281
99889SOL    HW2 1565   5.464   2.541   0.386
99890SOL     OW 1566  14.685  10.181   7.282
99890SOL    HW1 1567  14.630  10.164   7.206
99890SOL    HW2 1568  14.774  10.160   7.254
99891SOL     OW 1569   2.744   1.450  14.072
99891SOL    HW1 1570   2.731   1.429  14.165
99891SOL    HW2 1571   2.684   1.392  14.026
99892SOL     OW 1572  10.441   6.112  10.734
99892SOL    HW1 1573  10.454   6.027  10.692
99892SOL    HW2 1574  10.529   6.141  10.758
99893SOL     OW 1575   8.739   2.206   0.201
99893SOL    HW1 1576   8.699   2.228   0.117
99893SOL    HW2 1577   8.791   2.128   0.183
99894SOL     OW 1578   5.203  11.150   9.774
99894SOL    HW1 1579   5.281  11.129   9.826
99894SOL    HW2 1580   5.129  11.135   9.833
99895SOL     OW 1581   5.696   0.257   2.987
99895SOL    HW1 1582   5.613   0.288   3.022
99895SOL    HW2 1583   5.688   0.162   2.985
99896SOL     OW 1584  13.769   6.435   3.072
99896SOL    HW1 1585  13.690   6.388   3.098
99896SOL    HW2 1586  13.792   6.487   3.149
99897SOL     OW 1587   4.477   7.975   1.623
99897SOL    HW1 1588   4.424   8.055   1.618
99897SOL    HW2 1589   4.434   7.915   1.562
99898SOL     OW 1590  10.368   5.792   7.653
99898SOL    HW1 1591  10.436   5.859   7.656
99898SOL    HW2 1592  10.292   5.833   7.695
99899SOL     OW 1593   0.881   0.839  12.073
99899SOL    HW1 1594   0.811   0.900  12.094
99899SOL    HW2 1595   0.863   0.762  12.127
99900SOL     OW 1596   8.167  14.290  11.287
99900SOL    HW1 1597   8.237  14.299  11.352
99900SOL    HW2 1598   8.154  14.195  11.280
99901SOL     OW 1599   1.700   9.139   2.429
99901SOL    HW1 1600   1.751   9.200   2.482
99901SOL    HW2 1601   1.609   9.167   2.441
99902SOL     OW 1602   4.138  13.053  14.287
99902SOL    HW1 1603   4.138  13.024  14.378
99902SOL    HW2 1604   4.214  13.111  14.280
99903SOL     OW 1605  14.708   2.106  10.204
99903SOL    HW1 1606  14.784   2.095  10.146
99903SOL    HW2 1607  14.739   2.168  10.271
99904SOL     OW 1608   1.610   9.783   0.896
99904SOL    HW1 1609   1.595   9.871   0.932
99904SOL    HW2 1610   1.613   9.796   0.802
99905SOL     OW 1611   9.136  14.846   4.308
99905SOL    HW1 1612   9.050   0.006   4.288
99905SOL    HW2 1613   9.192   0.049   4.315
99906SOL     OW 1614   4.360  12.477   5.974
99906SOL    HW1 1615   4.309  12.558   5.982
99906SOL    HW2 1616   4.447  12.506   5.944
99907SOL     OW 1617   6.352  10.435  10.214
99907SOL    HW1 1618   6.431  10.421  10.162
99907SOL    HW2 1619   6.315  10.348  10.225
99908SOL     OW 1620  13.592   4.905   8.657
99908SOL    HW1 1621  13.546   4.931   8.578
99908SOL    HW2 1622  13.668   4.855   8.626
99909SOL     OW 1623   3.881   8.064   8.247
99909SOL    HW1 1624   3.868   7.972   8.272
99909SOL    HW2 1625   3.886   8.111   8.331
99910SOL     OW 1626  12.381   9.905   2.102
99910SOL    HW1 1627  12.332   9.915   2.021
99910SOL    HW2 1628  12.373   9.812   2.123
99911SOL     OW 1629  14.405   2.976   8.417
99911SOL    HW1 1630  14.403   2.956   8.510
99911SOL    HW2 1631  14.477   2.924   8.383
99912SOL     OW 1632   2.211  13.876  13.825
99912SOL    HW1 1633   2.259  13.793  13.833
99912SOL    HW2 1634   2.279  13.942  13.813
99913SOL     OW 1635   1.112   0.477   6.380
99913SOL    HW1 1636   1.120   0.546   6.314
99913SOL    HW2 1637   1.203   0.454   6.401
99914SOL     OW 1638   5.406   9.406   6.846
99914SOL    HW1 1639   5.422   9.339   6.913
99914SOL    HW2 1640   5.331   9.455   6.879
99915SOL     OW 1641  14.462   3.904  12.906
99915SOL    HW1 1642  14.458   3.942  12.994
99915SOL    HW2 1643  14.410   3.963  12.852
99916SOL     OW 1644   0.847   1.320   6.266
99916SOL    HW1 1645   0.797   1.239   6.250
99916SOL    HW2 1646   0.893   1.335   6.183
99917SOL     OW 1647   9.792   8.156   6.613
99917SOL    HW1 1648   9.887   8.140   6.615
99917SOL    HW2 1649   9.781   8.225   6.546
99918SOL     OW 1650   4.517   2.618  10.378
99918SOL    HW1 1651   4.594   2.662  10.342
99918SOL    HW2 1652   4.466   2.593  10.301
99919SOL     OW 1653   6.836  11.538   7.920
99919SOL    HW1 1654   6.836  11.581   8.006
99919SOL    HW2 1655   6.787  11.598   7.863
99920SOL     OW 1656  13.403   7.502   3.882
99920SOL    HW1 1657  13.343   7.575   3.868
99920SOL    HW2 1658  13.416   7.499   3.977
99921SOL     OW 1659   7.815  11.027  12.351
99921SOL    HW1 1660   7.750  11.097  12.346
99921SOL    HW2 1661   7.773  10.959  12.404
99922SOL     OW 1662   2.491   8.481  11.171
99922SOL    HW1 1663   2.500   8.515  11.082
99922SOL    HW2 1664   2.403   8.445  11.175
99923SOL     OW 1665   6.748   1.067   7.267
99923SOL    HW1 1666   6.803   1.067   7.189
99923SOL    HW2 1667   6.802   1.025   7.334
99924SOL     OW 1668   2.922  11.469   3.553
99924SOL    HW1 1669   2.893  11.558   3.570
99924SOL    HW2 1670   3.018  11.476   3.550
99925SOL     OW 1671  12.001  12.784  13.506
99925SOL    HW1 1672  12.017  12.816  13.417
99925SOL    HW2 1673  12.080  12.807  13.554
99926SOL     OW 1674  13.376  12.364   8.275
99926SOL    HW1 1675  13.377  12.449   8.231
99926SOL    HW2 1676  13.406  12.382   8.364
99927SOL     OW 1677  13.110   8.292   5.320
99927SOL    HW1 1678  13.135   8.342   5.398
99927SOL    HW2 1679  13.096   8.358   5.252
99928SOL     OW 1680  10.452  13.285  14.875
99928SOL    HW1 1681  10.439  13.333  14.792
99928SOL    HW2 1682  10.367  13.245   0.017
99929SOL     OW 1683  10.689  12.292   4.991
99929SOL    HW1 1684  10.769  12.261   4.949
99929SOL    HW2 1685  10.621  12.232   4.959
99930SOL     OW 1686  13.144   2.047   3.785
99930SOL    HW1 1687  13.179   2.133   3.810
99930SOL    HW2 1688  13.216   2.005   3.737
99931SOL     OW 1689   3.062   2.449  10.863
99931SOL    HW1 1690   3.116   2.475  10.788
99931SOL    HW2 1691   3.068   2.354  10.866
99932SOL     OW 1692   7.847  10.504  11.444
99932SOL    HW1 1693   7.886  10.588  11.419
99932SOL    HW2 1694   7.916  10.440  11.428
99933SOL     OW 1695   0.887   3.406   7.683
99933SOL    HW1 1696   0.875   3.318   7.719
99933SOL    HW2 1697   0.946   3.393   7.609
99934SOL     OW 1698   0.330  11.519   2.035
99934SOL    HW1 1699   0.328  11.471   1.953
99934SOL    HW2 1700   0.241  11.553   2.045
99935SOL     OW 1701   2.758   2.584   7.696
99935SOL    HW1 1702   2.836   2.529   7.688
99935SOL    HW2 1703   2.769   2.652   7.630
99936SOL     OW 1704  13.493  12.989   3.006
99936SOL    HW1 1705  13.564  12.954   3.061
99936SOL    HW2 1706  13.508  13.083   3.004
99937SOL     OW 1707   8.432   9.581   8.310
99937SOL    HW1 1708   8.413   9.497   8.351
99937SOL    HW2 1709   8.347   9.625   8.304
99938SOL     OW 1710   6.209   8.947   2.499
99938SOL    HW1 1711   6.203   8.902   2.583
99938SOL    HW2 1712   6.278   8.901   2.452
99939SOL     OW 1713   2.680   5.585   0.714
99939SOL    HW1 1714   2.695   5.597   0.620
99939SOL    HW2 1715   2.746   5.641   0.756
99940SOL     OW 1716   8.702   1.107   1.010
99940SOL    HW1 1717   8.612   1.076   1.025
99940SOL    HW2 1718   8.748   1.030   0.974
99941SOL     OW 1719  12.568  10.522   2.331
99941SOL    HW1 1720  12.558  10.486   2.243
99941SOL    HW2 1721  12.635  10.467   2.371
99942SOL     OW 1722   4.036   7.869   3.217
99942SOL    HW1 1723   4.029   7.781   3.253
99942SOL    HW2 1724   4.129   7.879   3.196
99943SOL     OW 1725   2.932   8.024   4.814
99943SOL    HW1 1726   2.909   7.932   4.796
99943SOL    HW2 1727   2.879   8.048   4.890
99944SOL     OW 1728   2.463   4.390   9.497
99944SOL    HW1 1729   2.497   4.386   9.586
99944SOL    HW2 1730   2.397   4.460   9.499
99945SOL     OW 1731   5.449  14.658   3.380
99945SOL    HW1 1732   5.517  14.612   3.429
99945SOL    HW2 1733   5.375  14.661   3.440
99946SOL     OW 1734  12.776  12.455  11.548
99946SOL    HW1 1735  12.788  12.388  11.616
99946SOL    HW2 1736  12.708  12.513  11.583
99947SOL     OW 1737  10.198   9.068   6.212
99947SOL    HW1 1738  10.107   9.071   6.183
99947SOL    HW2 1739  10.214   8.976   6.233
99948SOL     OW 1740   8.612  14.243  12.011
99948SOL    HW1 1741   8.623  14.157  12.051
99948SOL    HW2 1742   8.616  14.227  11.917
99949SOL     OW 1743   3.116  12.748   8.030
99949SOL    HW1 1744   3.027  12.735   8.000
99949SOL    HW2 1745   3.108  12.756   8.126
99950SOL     OW 1746  13.184   8.999   8.021
99950SOL    HW1 1747  13.254   8.933   8.016
99950SOL    HW2 1748  13.212   9.057   8.092
99951SOL     OW 1749  14.488   2.209   4.956
99951SOL    HW1 1750  14.505   2.138   5.018
99951SOL    HW2 1751  14.450   2.167   4.880
99952SOL     OW 1752  11.144  13.695   5.516
99952SOL    HW1 1753  11.138  13.778   5.469
99952SOL    HW2 1754  11.231  13.696   5.555
99953SOL     OW 1755  11.971   3.830   6.774
99953SOL    HW1 1756  12.041   3.784   6.821
99953SOL    HW2 1757  11.940   3.896   6.836
99954SOL     OW 1758  10.333   1.208  10.769
99954SOL    HW1 1759  10.376   1.155  10.836
99954SOL    HW2 1760  10.239   1.199  10.788
99955SOL     OW 1761   9.087   4.619   2.073
99955SOL    HW1 1762   9.087   4.648   2.164
99955SOL    HW2 1763   9.141   4.683   2.027
99956SOL     OW 1764   9.320   7.550   8.676
99956SOL    HW1 1765   9.283   7.611   8.612
99956SOL    HW2 1766   9.280   7.576   8.759
99957SOL     OW 1767   4.327   4.427   1.718
99957SOL    HW1 1768   4.237   4.394   1.724
99957SOL    HW2 1769   4.356   4.433   1.809
99958SOL     OW 1770   5.426   9.053   1.087
99958SOL    HW1 1771   5.440   9.058   1.181
99958SOL    HW2 1772   5.363   8.982   1.076
99959SOL     OW 1773   0.736  11.510   2.761
99959SOL    HW1 1774   0.652  11.469   2.778
99959SOL    HW2 1775   0.745  11.575   2.830
99960SOL     OW 1776  12.708   6.729  14.803
99960SOL    HW1 1777  12.778   6.666  14.791
99960SOL    HW2 1778  12.718   6.791  14.730
99961SOL     OW 1779   1.589   1.115   3.393
99961SOL    HW1 1780   1.647   1.125   3.318
99961SOL    HW2 1781   1.604   1.194   3.445
99962SOL     OW 1782  10.005   6.782  14.065
99962SOL    HW1 1783   9.967   6.866  14.039
99962SOL    HW2 1784  10.099   6.800  14.074
99963SOL     OW 1785  13.530   0.605   3.248
99963SOL    HW1 1786  13.541   0.642   3.335
99963SOL    HW2 1787  13.543   0.679   3.188
99964SOL     OW 1788  12.091  14.536   8.017
99964SOL    HW1 1789  12.148  14.514   7.943
99964SOL    HW2 1790  12.110  14.628   8.035
99965SOL     OW 1791   2.695   9.100   2.114
99965SOL    HW1 1792   2.690   9.068   2.204
99965SOL    HW2 1793   2.604   9.108   2.086
99966SOL     OW 1794  14.063   3.287   6.513
99966SOL    HW1 1795  14.055   3.274   6.419
99966SOL    HW2 1796  14.090   3.379   6.523
99967SOL     OW 1797   4.734  12.771  10.833
99967SOL    HW1 1798   4.783  12.730  10.905
99967SOL    HW2 1799   4.703  12.854  10.870
99968SOL     OW 1800  11.610   8.985   2.966
99968SOL    HW1 1801  11.653   9.035   3.035
99968SOL    HW2 1802  11.620   8.894   2.993
99969SOL     OW 1803   5.737   5.412  13.394
99969SOL    HW1 1804   5.689   5.412  13.477
99969SOL    HW2 1805   5.779   5.326  13.390
99970SOL     OW 1806  11.169  12.958   4.099
99970SOL    HW1 1807  11.248  13.003   4.127
99970SOL    HW2 1808  11.198  12.870   4.075
99971SOL     OW 1809   6.952   9.186   3.392
99971SOL    HW1 1810   6.910   9.172   3.307
99971SOL    HW2 1811   6.926   9.111   3.445
99972SOL     OW 1812  11.328   7.778   4.103
99972SOL    HW1 1813  11.260   7.840   4.130
99972SOL    HW2 1814  11.398   7.790   4.166
99973SOL     OW 1815   7.263  12.790  10.917
99973SOL    HW1 1816   7.269  12.789  10.821
99973SOL    HW2 1817   7.271  12.882  10.940
99974SOL     OW 1818  14.278   8.917   2.961
99974SOL    HW1 1819  14.350   8.929   2.899
99974SOL    HW2 1820  14.256   8.824   2.954
99975SOL     OW 1821  12.234  11.779   1.461
99975SOL    HW1 1822  12.265  11.725   1.388
99975SOL    HW2 1823  12.273  11.865   1.445
99976SOL     OW 1824   5.412   5.809  12.359
99976SOL    HW1 1825   5.393   5.718  12.383
99976SOL    HW2 1826   5.483   5.835  12.419
99977SOL     OW 1827   1.373  12.780   4.205
99977SOL    HW1 1828   1.442  12.825   4.254
99977SOL    HW2 1829   1.325  12.849   4.161
99978SOL     OW 1830   8.694   7.141  10.780
99978SOL    HW1 1831   8.758   7.089  10.829
99978SOL    HW2 1832   8.610   7.102  10.801
99979SOL     OW 1833   5.986   4.270   7.585
99979SOL    HW1 1834   6.040   4.344   7.559
99979SOL    HW2 1835   5.939   4.246   7.506
99980SOL     OW 1836   1.998   0.679   1.540
99980SOL    HW1 1837   1.923   0.693   1.482
99980SOL    HW2 1838   1.962   0.688   1.629
99981SOL     OW 1839   6.098   2.646   4.496
99981SOL    HW1 1840   6.029   2.669   4.434
99981SOL    HW2 1841   6.130   2.729   4.529
99982SOL     OW 1842   0.377   5.567   6.424
99982SOL    HW1 1843   0.325   5.644   6.447
99982SOL    HW2 1844   0.413   5.536   6.507
99983SOL     OW 1845   0.421  13.252   3.871
99983SOL    HW1 1846   0.404  13.308   3.947
99983SOL    HW2 1847   0.337  13.211   3.851
99984SOL     OW 1848   3.588   5.386   8.515
99984SOL    HW1 1849   3.553   5.316   8.571
99984SOL    HW2 1850   3.512   5.442   8.498
99985SOL     OW 1851  12.489  11.501   5.430
99985SOL    HW1 1852  12.425  11.571   5.442
99985SOL    HW2 1853  12.524  11.486   5.517
99986SOL     OW 1854   3.708  14.542   7.397
99986SOL    HW1 1855   3.626  14.493   7.394
99986SOL    HW2 1856   3.700  14.607   7.327
99987SOL     OW 1857  12.301   9.971   8.467
99987SOL    HW1 1858  12.348   9.888   8.462
99987SOL    HW2 1859  12.320  10.005   8.554
99988SOL     OW 1860   2.543   7.996  10.940
99988SOL    HW1 1861   2.490   7.972  10.864
99988SOL    HW2 1862   2.594   8.071  10.911
99989SOL     OW 1863   5.036   6.724   1.217
99989SOL    HW1 1864   4.943   6.738   1.238
99989SOL    HW2 1865   5.049   6.630   1.228
99990SOL     OW 1866  11.722  13.890  13.110
99990SOL    HW1 1867  11.712  13.875  13.016
99990SOL    HW2 1868  11.723  13.985  13.119
99991SOL     OW 1869   0.898   5.276   6.477
99991SOL    HW1 1870   0.890   5.322   6.393
99991SOL    HW2 1871   0.992   5.279   6.496
99992SOL     OW 1872  14.770   0.465   5.022
99992SOL    HW1 1873  14.788   0.504   4.936
99992SOL    HW2 1874  14.840   0.401   5.034
99993SOL     OW 1875   4.878   6.890   1.597
99993SOL    HW1 1876   4.864   6.801   1.563
99993SOL    HW2 1877   4.956   6.921   1.552
99994SOL     OW 1878   6.331   1.185   2.049
99994SOL    HW1 1879   6.322   1.131   2.128
99994SOL    HW2 1880   6.254   1.164   1.997
99995SOL     OW 1881  14.546   7.726  11.729
99995SOL    HW1 1882  14.565   7.682  11.812
99995SOL    HW2 1883  14.468   7.682  11.697
99996SOL     OW 1884  14.318   3.060   3.376
99996SOL    HW1 1885  14.383   3.128   3.396
99996SOL    HW2 1886  14.238   3.090   3.420
99997SOL     OW 1887   5.459  14.420  13.106
99997SOL    HW1 1888   5.404  14.466  13.043
99997SOL    HW2 1889   5.535  14.477  13.119
99998SOL     OW 1890   3.410   4.530  10.974
99998SOL    HW1 1891   3.422   4.471  11.048
99998SOL    HW2 1892   3.320   4.563  10.982
99999SOL     OW 1893   0.080   0.516   8.195
99999SOL    HW1 1894   0.088   0.579   8.267
99999SOL    HW2 1895   0.111   0.433   8.232
    0SOL     OW 1896  14.335   9.368   3.687
    0SOL    HW1 1897  14.368   9.457   3.700
    0SOL    HW2 1898  14.409   9.312   3.712
    1SOL     OW 1899  13.317   4.190   4.189
    1SOL    HW1 1900  13.378   4.143   4.246
    1SOL    HW2 1901  13.267   4.122   4.145
    2SOL     OW 1902   2.186  13.105  13.236
    2SOL    HW1 1903   2.250  13.104  13.165
    2SOL    HW2 1904   2.238  13.087  13.315
    3SOL     OW 1905  10.985   7.526   3.197
    3SOL    HW1 1906  10.958   7.434   3.202
    3SOL    HW2 1907  10.937   7.569   3.268
    4SOL     OW 1908   6.750   2.703   6.369
    4SOL    HW1 1909   6.767   2.615   6.336
    4SOL    HW2 1910   6.665   2.697   6.413
    5SOL     OW 1911   6.616  11.868   1.881
    5SOL    HW1 1912   6.560  11.898   1.809
    5SOL    HW2 1913   6.575  11.905   1.959
    6SOL     OW 1914  13.947  14.208   0.716
    6SOL    HW1 1915  13.899  14.228   0.797
    6SOL    HW2 1916  13.927  14.282   0.659
    7SOL     OW 1917  11.669   3.268   8.890
    7SOL    HW1 1918  11.624   3.238   8.969
    7SOL    HW2 1919  11.727   3.338   8.920
    8SOL     OW 1920   1.958  12.032   8.463
    8SOL    HW1 1921   1.883  11.978   8.437
    8SOL    HW2 1922   2.032  11.995   8.413
    9SOL     OW 1923   6.631   8.267  10.281
    9SOL    HW1 1924   6.562   8.322  10.317
    9SOL    HW2 1925   6.677   8.323  10.219
   10SOL     OW 1926  10.789   0.883   0.350
   10SOL    HW1 1927  10.748   0.870   0.435
   10SOL    HW2 1928  10.720   0.921   0.296
   11SOL     OW 1929  12.459   8.563   9.391
   11SOL    HW1 1930  12.539   8.591   9.436
   11SOL    HW2 1931  12.396   8.634   9.408
   12SOL     OW 1932   3.959  13.902   5.136
   12SOL    HW1 1933   4.010  13.983   5.123
   12SOL    HW2 1934   4.024  13.839   5.168
   13SOL     OW 1935  14.753  10.763  10.719
   13SOL    HW1 1936  14.730  10.826  10.786
   13SOL    HW2 1937  14.847  10.776  10.704
   14SOL     OW 1938   6.127   4.244   3.605
   14SOL    HW1 1939   6.193   4.284   3.662
   14SOL    HW2 1940   6.173   4.173   3.561
   15SOL     OW 1941   2.994  14.752  13.381
   15SOL    HW1 1942   2.903  14.726  13.362
   15SOL    HW2 1943   3.027  14.785  13.297
   16SOL     OW 1944   4.554  14.152   9.287
   16SOL    HW1 1945   4.535  14.102   9.208
   16SOL    HW2 1946   4.483  14.216   9.292
   17SOL     OW 1947  12.719   0.225  11.694
   17SOL    HW1 1948  12.802   0.183  11.718
   17SOL    HW2 1949  12.739   0.318  11.691
   18SOL     OW 1950   0.543   5.429   7.504
   18SOL    HW1 1951   0.609   5.465   7.564
   18SOL    HW2 1952   0.517   5.346   7.544
   19SOL     OW 1953  12.645  12.647   1.342
   19SOL    HW1 1954  12.649  12.707   1.268
   19SOL    HW2 1955  12.660  12.703   1.419
   20SOL     OW 1956   1.968   5.295   0.354
   20SOL    HW1 1957   2.022   5.359   0.400
   20SOL    HW2 1958   1.889   5.287   0.408
   21SOL     OW 1959  10.158   3.288   9.053
   21SOL    HW1 1960  10.140   3.280   8.959
   21SOL    HW2 1961  10.252   3.273   9.060
   22SOL     OW 1962   1.519   7.098   2.386
   22SOL    HW1 1963   1.601   7.146   2.400
   22SOL    HW2 1964   1.547   7.008   2.368
   23SOL     OW 1965   8.818   1.647  11.989
   23SOL    HW1 1966   8.909   1.619  12.003
   23SOL    HW2 1967   8.769   1.602  12.058
   24SOL     OW 1968   7.948   4.505   1.822
   24SOL    HW1 1969   7.999   4.464   1.892
   24SOL    HW2 1970   7.935   4.435   1.758
   25SOL     OW 1971  12.754  10.139   0.573
   25SOL    HW1 1972  12.787  10.116   0.486
   25SOL    HW2 1973  12.830  10.178   0.617
   26SOL     OW 1974   2.934   1.933   8.728
   26SOL    HW1 1975   2.942   2.009   8.669
   26SOL    HW2 1976   3.021   1.893   8.727
   27SOL     OW 1977   0.781   9.906   1.003
   27SOL    HW1 1978   0.804   9.924   1.094
   27SOL    HW2 1979   0.687   9.886   1.005
   28SOL     OW 1980   9.753  11.781   0.345
   28SOL    HW1 1981   9.693  11.844   0.304
   28SOL    HW2 1982   9.840  11.816   0.327
   29SOL     OW 1983   9.571   5.441   6.485
   29SOL    HW1 1984   9.560   5.383   6.561
   29SOL    HW2 1985   9.504   5.509   6.499
   30SOL     OW 1986   8.128  10.792  10.328
   30SOL    HW1 1987   8.068  10.728  10.366
   30SOL    HW2 1988   8.184  10.819  10.401
   31SOL     OW 1989  13.854  14.520   3.858
   31SOL    HW1 1990  13.833  14.427   3.856
   31SOL    HW2 1991  13.948  14.524   3.840
   32SOL     OW 1992   2.563  11.985   2.541
   32SOL    HW1 1993   2.567  12.061   2.482
   32SOL    HW2 1994   2.649  11.983   2.584
   33SOL     OW 1995   6.248   3.670   5.123
   33SOL    HW1 1996   6.157   3.697   5.131
   33SOL    HW2 1997   6.280   3.665   5.213
   34SOL     OW 1998   8.115  10.690  11.449
   34SOL    HW1 1999   8.204  10.669  11.479
   34SOL    HW2 2000   8.121  10.689  11.354
   35SOL     OW 2001   8.239   8.544   2.653
   35SOL    HW1 2002   8.276   8.630   2.635
   35SOL    HW2 2003   8.165   8.537   2.593
   36SOL     OW 2004  12.017   1.346   2.093
   36SOL    HW1 2005  12.079   1.376   2.027
   36SOL    HW2 2006  12.033   1.403   2.169
   37SOL     OW 2007   8.725   4.584  10.147
   37SOL    HW1 2008   8.813   4.558  10.171
   37SOL    HW2 2009   8.713   4.548  10.058
   38SOL     OW 2010   3.962  14.397  14.546
   38SOL    HW1 2011   3.967  14.327  14.611
   38SOL    HW2 2012   4.046  14.393  14.499
   39SOL     OW 2013   2.050   8.993  12.727
   39SOL    HW1 2014   2.048   9.031  12.639
   39SOL    HW2 2015   1.966   9.018  12.765
   40SOL     OW 2016   3.924   8.939   6.153
   40SOL    HW1 2017   3.938   8.887   6.074
   40SOL    HW2 2018   4.000   8.997   6.157
   41SOL     OW 2019  10.762   5.531   2.045
   41SOL    HW1 2020  10.722   5.514   1.959
   41SOL    HW2 2021  10.779   5.444   2.081
   42SOL     OW 2022   0.369  13.245   4.781
   42SOL    HW1 2023   0.279  13.229   4.809
   42SOL    HW2 2024   0.401  13.312   4.843
   43SOL     OW 2025   5.446  12.540   8.787
   43SOL    HW1 2026   5.432  12.570   8.697
   43SOL    HW2 2027   5.397  12.602   8.840
   44SOL     OW 2028   1.868  12.307   9.944
   44SOL    HW1 2029   1.961  12.307   9.965
   44SOL    HW2 2030   1.857  12.379   9.883
   45SOL     OW 2031   6.894   1.532   8.268
   45SOL    HW1 2032   6.935   1.581   8.196
   45SOL    HW2 2033   6.944   1.450   8.273
   46SOL     OW 2034   0.612   8.011  11.184
   46SOL    HW1 2035   0.634   7.921  11.158
   46SOL    HW2 2036   0.671   8.066  11.134
   47SOL     OW 2037   4.118   4.296  11.062
   47SOL    HW1 2038   4.078   4.218  11.022
   47SOL    HW2 2039   4.060   4.316  11.136
   48SOL     OW 2040   4.532   1.967   8.192
   48SOL    HW1 2041   4.609   2.021   8.206
   48SOL    HW2 2042   4.561   1.878   8.213
   49SOL     OW 2043   5.865   5.497   8.151
   49SOL    HW1 2044   5.903   5.410   8.162
   49SOL    HW2 2045   5.938   5.552   8.123
   50SOL     OW 2046  14.051  12.257  10.565
   50SOL    HW1 2047  14.047  12.240  10.659
   50SOL    HW2 2048  14.143  12.276  10.548
   51SOL     OW 2049  13.483   1.114   4.272
   51SOL    HW1 2050  13.531   1.196   4.255
   51SOL    HW2 2051  13.438   1.130   4.355
   52SOL     OW 2052  14.731  14.504   7.472
   52SOL    HW1 2053  14.826  14.506   7.475
   52SOL    HW2 2054  14.709  14.492   7.379
   53SOL     OW 2055   6.073   9.739   7.223
   53SOL    HW1 2056   6.111   9.731   7.135
   53SOL    HW2 2057   5.979   9.750   7.207
   54SOL     OW 2058   4.005  14.852   8.938
   54SOL    HW1 2059   4.092  14.851   8.979
   54SOL    HW2 2060   3.954   0.037   8.992
   55SOL     OW 2061   0.898  12.515  12.545
   55SOL    HW1 2062   0.849  12.597  12.556
   55SOL    HW2 2063   0.887  12.470  12.628
   56SOL     OW 2064   5.833  12.744   0.311
   56SOL    HW1 2065   5.836  12.766   0.404
   56SOL    HW2 2066   5.869  12.821   0.266
   57SOL     OW 2067   6.964  10.822   7.126
   57SOL    HW1 2068   6.908  10.764   7.075
   57SOL    HW2 2069   6.928  10.910   7.111
   58SOL     OW 2070  13.481  12.461   6.517
   58SOL    HW1 2071  13.439  12.409   6.586
   58SOL    HW2 2072  13.530  12.396   6.466
   59SOL     OW 2073  14.569  13.142   5.529
   59SOL    HW1 2074  14.474  13.139   5.545
   59SOL    HW2 2075  14.598  13.052   5.544
   60SOL     OW 2076  11.663   3.728   9.416
   60SOL    HW1 2077  11.731   3.773   9.467
   60SOL    HW2 2078  11.623   3.797   9.363
   61SOL     OW 2079   6.183  12.476  14.543
   61SOL    HW1 2080   6.160  12.475  14.635
   61SOL    HW2 2081   6.129  12.545  14.504
   62SOL     OW 2082   6.332   5.002  10.499
   62SOL    HW1 2083   6.268   5.044  10.555
   62SOL    HW2 2084   6.355   5.069  10.434
   63SOL     OW 2085   9.057  12.253  14.156
   63SOL    HW1 2086   9.064  12.224  14.247
   63SOL    HW2 2087   8.962  12.253  14.139
   64SOL     OW 2088  10.590   7.156   6.045
   64SOL    HW1 2089  10.609   7.150   5.951
   64SOL    HW2 2090  10.515   7.098   6.058
   65SOL     OW 2091   3.101   0.313  10.210
   65SOL    HW1 2092   3.022   0.334  10.260
   65SOL    HW2 2093   3.076   0.325  10.118
   66SOL     OW 2094  13.979  13.038   9.080
   66SOL    HW1 2095  13.905  13.052   9.020
   66SOL    HW2 2096  13.954  12.961   9.131
   67SOL     OW 2097  14.622  11.026   6.925
   67SOL    HW1 2098  14.580  10.944   6.951
   67SOL    HW2 2099  14.636  11.018   6.831
   68SOL     OW 2100   6.512   2.380   6.254
   68SOL    HW1 2101   6.467   2.412   6.332
   68SOL    HW2 2102   6.516   2.285   6.265
   69SOL     OW 2103   4.051  14.643   6.443
   69SOL    HW1 2104   4.010  14.563   6.411
   69SOL    HW2 2105   4.003  14.714   6.399
   70SOL     OW 2106   8.181   0.651   9.939
   70SOL    HW1 2107   8.162   0.675  10.030
   70SOL    HW2 2108   8.219   0.731   9.902
   71SOL     OW 2109  11.891  11.582   6.705
   71SOL    HW1 2110  11.855  11.571   6.617
   71SOL    HW2 2111  11.845  11.657   6.741
   72SOL     OW 2112  13.821  12.475   0.734
   72SOL    HW1 2113  13.766  12.495   0.810
   72SOL    HW2 2114  13.793  12.537   0.667
   73SOL     OW 2115   2.977   4.772   5.162
   73SOL    HW1 2116   2.934   4.789   5.078
   73SOL    HW2 2117   2.957   4.681   5.181
   74SOL     OW 2118  14.475   4.737   9.460
   74SOL    HW1 2119  14.496   4.825   9.431
   74SOL    HW2 2120  14.455   4.747   9.553
   75SOL     OW 2121  13.105   1.108   2.061
   75SOL    HW1 2122  13.055   1.169   2.116
   75SOL    HW2 2123  13.067   1.022   2.079
   76SOL     OW 2124   3.149   9.635  12.554
   76SOL    HW1 2125   3.222   9.655  12.495
   76SOL    HW2 2126   3.104   9.719  12.565
   77SOL     OW 2127   6.943   7.645  14.631
   77SOL    HW1 2128   6.853   7.616  14.646
   77SOL    HW2 2129   6.939   7.694  14.549
   78SOL     OW 2130   1.208   7.242  13.745
   78SOL    HW1 2131   1.162   7.326  13.744
   78SOL    HW2 2132   1.201   7.210  13.655
   79SOL     OW 2133   2.725   3.883   8.603
   79SOL    HW1 2134   2.793   3.831   8.559
   79SOL    HW2 2135   2.646   3.830   8.596
   80SOL     OW 2136   4.626   3.305  12.233
   80SOL    HW1 2137   4.625   3.391  12.190
   80SOL    HW2 2138   4.657   3.245  12.164
   81SOL     OW 2139   8.936   5.135  10.396
   81SOL    HW1 2140   8.976   5.181  10.322
   81SOL    HW2 2141   8.843   5.160  10.392
   82SOL     OW 2142   9.873   3.148  11.744
   82SOL    HW1 2143   9.908   3.226  11.701
   82SOL    HW2 2144   9.949   3.093  11.759
   83SOL     OW 2145   0.892   1.366  10.864
   83SOL    HW1 2146   0.851   1.392  10.946
   83SOL    HW2 2147   0.984   1.350  10.887
   84SOL     OW 2148   8.260   0.054   4.556
   84SOL    HW1 2149   8.329  14.869   4.527
   84SOL    HW2 2150   8.199  14.874   4.604
   85SOL     OW 2151   1.100   5.230   4.299
   85SOL    HW1 2152   1.058   5.298   4.352
   85SOL    HW2 2153   1.087   5.258   4.209
   86SOL     OW 2154   0.960   4.392   6.772
   86SOL    HW1 2155   0.967   4.358   6.684
   86SOL    HW2 2156   1.022   4.340   6.823
   87SOL     OW 2157  13.167   1.258   3.381
   87SOL    HW1 2158  13.204   1.186   3.432
   87SOL    HW2 2159  13.132   1.217   3.303
   88SOL     OW 2160   6.385  11.115   6.808
   88SOL    HW1 2161   6.370  11.068   6.891
   88SOL    HW2 2162   6.480  11.123   6.803
   89SOL     OW 2163   3.478  13.620   4.025
   89SOL    HW1 2164   3.526  13.563   4.085
   89SOL    HW2 2165   3.534  13.697   4.016
   90SOL     OW 2166   0.539  12.769   8.658
   90SOL    HW1 2167   0.539  12.683   8.701
   90SOL    HW2 2168   0.621  12.810   8.686
   91SOL     OW 2169   1.722  11.024   8.180
   91SOL    HW1 2170   1.722  10.937   8.219
   91SOL    HW2 2171   1.653  11.021   8.113
   92SOL     OW 2172   6.408  13.512   4.376
   92SOL    HW1 2173   6.401  13.454   4.452
   92SOL    HW2 2174   6.320  13.513   4.338
   93SOL     OW 2175  12.374   9.158   3.621
   93SOL    HW1 2176  12.431   9.087   3.590
   93SOL    HW2 2177  12.332   9.191   3.541
   94SOL     OW 2178   3.529   6.439   4.535
   94SOL    HW1 2179   3.516   6.372   4.469
   94SOL    HW2 2180   3.446   6.486   4.540
   95SOL     OW 2181   4.725   8.837  13.697
   95SOL    HW1 2182   4.716   8.931  13.687
   95SOL    HW2 2183   4.680   8.800  13.621
   96SOL     OW 2184   6.575  10.775   3.823
   96SOL    HW1 2185   6.570  10.713   3.751
   96SOL    HW2 2186   6.655  10.751   3.870
   97SOL     OW 2187  14.855   4.882   8.280
   97SOL    HW1 2188  14.826   4.874   8.189
   97SOL    HW2 2189  14.858   4.792   8.312
   98SOL     OW 2190  10.312   9.771   4.404
   98SOL    HW1 2191  10.391   9.825   4.395
   98SOL    HW2 2192  10.248   9.813   4.346
   99SOL     OW 2193   0.070   4.718  10.995
   99SOL    HW1 2194   0.026   4.666  10.928
   99SOL    HW2 2195   0.138   4.660  11.029
  100SOL     OW 2196   6.163  12.402  10.039
  100SOL    HW1 2197   6.250  12.409  10.079
  100SOL    HW2 2198   6.103  12.396  10.113
  101SOL     OW 2199   6.718   1.394   7.056
  101SOL    HW1 2200   6.695   1.421   6.967
  101SOL    HW2 2201   6.799   1.343   7.045
  102SOL     OW 2202   2.381  10.344   0.754
  102SOL    HW1 2203   2.293  10.316   0.728
  102SOL    HW2 2204   2.400  10.293   0.832
  103SOL     OW 2205   0.313  11.072  12.895
  103SOL    HW1 2206   0.342  10.992  12.940
  103SOL    HW2 2207   0.306  11.137  12.964
  104SOL     OW 2208   9.101  13.138   5.150
  104SOL    HW1 2209   9.146  13.136   5.235
  104SOL    HW2 2210   9.154  13.196   5.096
  105SOL     OW 2211   9.344   4.903   3.590
  105SOL    HW1 2212   9.357   4.856   3.673
  105SOL    HW2 2213   9.250   4.917   3.586
  106SOL     OW 2214   9.744   5.947   8.217
  106SOL    HW1 2215   9.714   5.957   8.308
  106SOL    HW2 2216   9.712   6.025   8.173
  107SOL     OW 2217   1.435   3.893   3.793
  107SOL    HW1 2218   1.527   3.893   3.767
  107SOL    HW2 2219   1.428   3.966   3.855
  108SOL     OW 2220   6.420  10.211   0.736
  108SOL    HW1 2221   6.384  10.272   0.800
  108SOL    HW2 2222   6.354  10.206   0.667
  109SOL     OW 2223   5.477  13.211   9.804
  109SOL    HW1 2224   5.504  13.266   9.731
  109SOL    HW2 2225   5.559  13.184   9.846
  110SOL     OW 2226   5.167   3.632   2.920
  110SOL    HW1 2227   5.232   3.690   2.961
  110SOL    HW2 2228   5.216   3.589   2.850
  111SOL     OW 2229  12.218  14.443   6.908
  111SOL    HW1 2230  12.252  14.521   6.865
  111SOL    HW2 2231  12.271  14.371   6.874
  112SOL     OW 2232  11.776   2.466  13.953
  112SOL    HW1 2233  11.812   2.553  13.969
  112SOL    HW2 2234  11.779   2.456  13.858
  113SOL     OW 2235   7.578  13.917  13.269
  113SOL    HW1 2236   7.603  13.970  13.194
  113SOL    HW2 2237   7.608  13.967  13.345
  114SOL     OW 2238   7.876   3.440   2.979
  114SOL    HW1 2239   7.856   3.350   3.005
  114SOL    HW2 2240   7.793   3.474   2.945
  115SOL     OW 2241   6.280   8.298   9.812
  115SOL    HW1 2242   6.237   8.370   9.858
  115SOL    HW2 2243   6.225   8.281   9.736
  116SOL     OW 2244   6.570   3.152   0.409
  116SOL    HW1 2245   6.535   3.118   0.491
  116SOL    HW2 2246   6.534   3.095   0.341
  117SOL     OW 2247  12.209  11.386  12.208
  117SOL    HW1 2248  12.291  11.430  12.230
  117SOL    HW2 2249  12.154  11.397  12.286
  118SOL     OW 2250   4.356   7.795   3.112
  118SOL    HW1 2251   4.449   7.775   3.099
  118SOL    HW2 2252   4.355   7.866   3.176
  119SOL     OW 2253  13.320   1.733   9.281
  119SOL    HW1 2254  13.269   1.814   9.284
  119SOL    HW2 2255  13.397   1.755   9.229
  120SOL     OW 2256   6.634   2.224  10.846
  120SOL    HW1 2257   6.651   2.253  10.757
  120SOL    HW2 2258   6.709   2.254  10.897
  121SOL     OW 2259   6.078  14.174   4.314
  121SOL    HW1 2260   6.078  14.238   4.385
  121SOL    HW2 2261   6.170  14.164   4.290
  122SOL     OW 2262   7.360   8.205  11.841
  122SOL    HW1 2263   7.391   8.270  11.778
  122SOL    HW2 2264   7.320   8.257  11.911
  123SOL     OW 2265  12.929   6.340   8.924
  123SOL    HW1 2266  12.989   6.310   8.992
  123SOL    HW2 2267  12.938   6.435   8.924
  124SOL     OW 2268   0.295  12.990  11.414
  124SOL    HW1 2269   0.239  12.936  11.358
  124SOL    HW2 2270   0.304  13.072  11.366
  125SOL     OW 2271   8.046   7.927  14.341
  125SOL    HW1 2272   8.021   7.842  14.304
  125SOL    HW2 2273   8.047   7.986  14.265
  126SOL     OW 2274  10.358   6.142   8.082
  126SOL    HW1 2275  10.449   6.173   8.084
  126SOL    HW2 2276  10.342   6.120   7.991
  127SOL     OW 2277   3.579   0.085   6.319
  127SOL    HW1 2278   3.515   0.111   6.252
  127SOL    HW2 2279   3.534   0.099   6.402
  128SOL     OW 2280  11.086  14.705   0.929
  128SOL    HW1 2281  11.030  14.782   0.940
  128SOL    HW2 2282  11.101  14.674   1.018
  129SOL     OW 2283  12.301  11.553   9.247
  129SOL    HW1 2284  12.360  11.623   9.274
  129SOL    HW2 2285  12.358  11.482   9.219
  130SOL     OW 2286  10.208  10.473  11.894
  130SOL    HW1 2287  10.231  10.390  11.936
  130SOL    HW2 2288  10.268  10.537  11.934
  131SOL     OW 2289  14.339  10.649   4.548
  131SOL    HW1 2290  14.316  10.585   4.615
  131SOL    HW2 2291  14.295  10.730   4.576
  132SOL     OW 2292  12.193  13.675   7.558
  132SOL    HW1 2293  12.106  13.699   7.589
  132SOL    HW2 2294  12.180  13.592   7.512
  133SOL     OW 2295   0.878   6.959   9.023
  133SOL    HW1 2296   0.867   6.977   9.117
  133SOL    HW2 2297   0.800   6.909   8.999
  134SOL     OW 2298   3.124  14.753  13.142
  134SOL    HW1 2299   3.196  14.806  13.177
  134SOL    HW2 2300   3.163  14.667  13.125
  135SOL     OW 2301  14.151  13.360   2.510
  135SOL    HW1 2302  14.134  13.288   2.570
  135SOL    HW2 2303  14.131  13.439   2.560
  136SOL     OW 2304   2.156  13.680   3.181
  136SOL    HW1 2305   2.116  13.640   3.104
  136SOL    HW2 2306   2.083  13.724   3.226
  137SOL     OW 2307   7.465   5.799  13.567
  137SOL    HW1 2308   7.439   5.826  13.480
  137SOL    HW2 2309   7.543   5.851  13.586
  138SOL     OW 2310  12.426   2.265   8.723
  138SOL    HW1 2311  12.489   2.290   8.655
  138SOL    HW2 2312  12.373   2.197   8.682
  139SOL     OW 2313  11.805   9.255   0.921
  139SOL    HW1 2314  11.866   9.209   0.864
  139SOL    HW2 2315  11.838   9.240   1.009
  140SOL     OW 2316   5.688   1.083   1.921
  140SOL    HW1 2317   5.689   1.170   1.961
  140SOL    HW2 2318   5.706   1.023   1.992
  141SOL     OW 2319  11.609   3.506   6.209
  141SOL    HW1 2320  11.592   3.584   6.262
  141SOL    HW2 2321  11.558   3.437   6.251
  142SOL     OW 2322   0.827   2.379  11.880
  142SOL    HW1 2323   0.764   2.323  11.834
  142SOL    HW2 2324   0.775   2.452  11.912
  143SOL     OW 2325   7.200  14.210   4.146
  143SOL    HW1 2326   7.130  14.259   4.190
  143SOL    HW2 2327   7.252  14.276   4.101
  144SOL     OW 2328  13.784   8.097  10.981
  144SOL    HW1 2329  13.724   8.116  11.053
  144SOL    HW2 2330  13.867   8.075  11.023
  145SOL     OW 2331   9.901   9.547   0.255
  145SOL    HW1 2332   9.891   9.641   0.237
  145SOL    HW2 2333   9.848   9.504   0.188
  146SOL     OW 2334  13.408  14.835   5.730
  146SOL    HW1 2335  13.369   0.025   5.789
  146SOL    HW2 2336  13.448   0.012   5.660
  147SOL     OW 2337  14.482   7.426   9.961
  147SOL    HW1 2338  14.553   7.364   9.981
  147SOL    HW2 2339  14.527   7.502   9.924
  148SOL     OW 2340  14.524   7.055   1.124
  148SOL    HW1 2341  14.468   7.132   1.111
  148SOL    HW2 2342  14.500   6.995   1.054
  149SOL     OW 2343  14.424   5.676   3.989
  149SOL    HW1 2344  14.366   5.644   3.920
  149SOL    HW2 2345  14.395   5.766   4.005
  150SOL     OW 2346  10.417  11.188  10.183
  150SOL    HW1 2347  10.339  11.134  10.174
  150SOL    HW2 2348  10.475  11.138  10.241
  151SOL     OW 2349   0.373  14.114  13.528
  151SOL    HW1 2350   0.392  14.042  13.469
  151SOL    HW2 2351   0.277  14.121  13.528
  152SOL     OW 2352  12.277   1.843   6.638
  152SOL    HW1 2353  12.236   1.902   6.701
  152SOL    HW2 2354  12.294   1.897   6.561
  153SOL     OW 2355  12.120   1.551  14.217
  153SOL    HW1 2356  12.076   1.573  14.135
  153SOL    HW2 2357  12.151   1.461  14.205
  154SOL     OW 2358   3.936   9.809   7.658
  154SOL    HW1 2359   4.013   9.753   7.658
  154SOL    HW2 2360   3.922   9.832   7.750
  155SOL     OW 2361   5.009   7.507   0.554
  155SOL    HW1 2362   4.927   7.481   0.597
  155SOL    HW2 2363   5.076   7.452   0.594
  156SOL     OW 2364   5.062  13.177   1.551
  156SOL    HW1 2365   5.090  13.266   1.534
  156SOL    HW2 2366   4.973  13.186   1.585
  157SOL     OW 2367  13.903   1.058  11.281
  157SOL    HW1 2368  13.881   1.002  11.355
  157SOL    HW2 2369  13.999   1.063  11.282
  158SOL     OW 2370   2.278   9.353   7.220
  158SOL    HW1 2371   2.216   9.345   7.147
  158SOL    HW2 2372   2.364   9.356   7.179
  159SOL     OW 2373   4.844   7.660   0.033
  159SOL    HW1 2374   4.852   7.611   0.115
  159SOL    HW2 2375   4.903   7.615  14.848
  160SOL     OW 2376  11.455   8.533  10.703
  160SOL    HW1 2377  11.365   8.532  10.670
  160SOL    HW2 2378  11.450   8.580  10.786
  161SOL     OW 2379   3.702   5.265   0.997
  161SOL    HW1 2380   3.688   5.208   0.922
  161SOL    HW2 2381   3.796   5.262   1.013
  162SOL     OW 2382   0.620   0.329   5.910
  162SOL    HW1 2383   0.696   0.279   5.940
  162SOL    HW2 2384   0.648   0.420   5.914
  163SOL     OW 2385   2.094   3.447   0.594
  163SOL    HW1 2386   2.006   3.464   0.627
  163SOL    HW2 2387   2.150   3.508   0.641
  164SOL     OW 2388   8.073  13.055  14.754
  164SOL    HW1 2389   7.979  13.038  14.744
  164SOL    HW2 2390   8.078  13.120  14.825
  165SOL     OW 2391  12.752  10.232   5.161
  165SOL    HW1 2392  12.667  10.201   5.193
  165SOL    HW2 2393  12.744  10.328   5.163
  166SOL     OW 2394  13.864   5.628   0.986
  166SOL    HW1 2395  13.844   5.615   1.079
  166SOL    HW2 2396  13.889   5.541   0.955
  167SOL     OW 2397  12.345   1.391   5.345
  167SOL    HW1 2398  12.347   1.483   5.372
  167SOL    HW2 2399  12.409   1.386   5.274
  168SOL     OW 2400  13.422   7.405   1.333
  168SOL    HW1 2401  13.344   7.425   1.281
  168SOL    HW2 2402  13.401   7.325   1.380
  169SOL     OW 2403  11.456   1.547   9.232
  169SOL    HW1 2404  11.465   1.456   9.204
  169SOL    HW2 2405  11.362   1.558   9.245
  170SOL     OW 2406   1.311   0.050  12.655
  170SOL    HW1 2407   1.268   0.123  12.610
  170SOL    HW2 2408   1.316  14.856  12.588
  171SOL     OW 2409   2.543   9.088   0.464
  171SOL    HW1 2410   2.483   9.025   0.424
  171SOL    HW2 2411   2.586   9.130   0.390
  172SOL     OW 2412   7.395   8.245   0.130
  172SOL    HW1 2413   7.353   8.306   0.191
  172SOL    HW2 2414   7.489   8.253   0.147
  173SOL     OW 2415   0.667   1.756  13.493
  173SOL    HW1 2416   0.676   1.682  13.554
  173SOL    HW2 2417   0.580   1.791  13.512
  174SOL     OW 2418   6.717  12.090  12.413
  174SOL    HW1 2419   6.628  12.096  12.447
  174SOL    HW2 2420   6.708  12.109  12.320
  175SOL     OW 2421  11.534   6.073   4.913
  175SOL    HW1 2422  11.470   6.043   4.848
  175SOL    HW2 2423  11.495   6.049   4.997
  176SOL     OW 2424   2.820   3.138   2.800
  176SOL    HW1 2425   2.891   3.193   2.834
  176SOL    HW2 2426   2.761   3.127   2.874
  177SOL     OW 2427   4.816   2.247   3.686
  177SOL    HW1 2428   4.772   2.229   3.769
  177SOL    HW2 2429   4.909   2.237   3.706
  178SOL     OW 2430  13.506  14.094   6.887
  178SOL    HW1 2431  13.576  14.035   6.860
  178SOL    HW2 2432  13.518  14.172   6.833
  179SOL     OW 2433   8.747   3.954  14.639
  179SOL    HW1 2434   8.756   3.994  14.725
  179SOL    HW2 2435   8.674   3.893  14.649
  180SOL     OW 2436   3.835  13.307   3.972
  180SOL    HW1 2437   3.781  13.300   3.893
  180SOL    HW2 2438   3.915  13.349   3.943
  181SOL     OW 2439   5.874   1.651  10.043
  181SOL    HW1 2440   5.907   1.684  10.127
  181SOL    HW2 2441   5.843   1.563  10.062
  182SOL     OW 2442   3.585  13.571   7.541
  182SOL    HW1 2443   3.529  13.498   7.516
  182SOL    HW2 2444   3.526  13.647   7.544
  183SOL     OW 2445  13.860   6.396   6.910
  183SOL    HW1 2446  13.802   6.322   6.890
  183SOL    HW2 2447  13.802   6.462   6.949
  184SOL     OW 2448   1.480  14.341   1.617
  184SOL    HW1 2449   1.405  14.282   1.626
  184SOL    HW2 2450   1.473  14.375   1.528
  185SOL     OW 2451   5.203   4.713  11.157
  185SOL    HW1 2452   5.228   4.635  11.206
  185SOL    HW2 2453   5.117   4.737  11.193
  186SOL     OW 2454  10.072   1.750   8.518
  186SOL    HW1 2455  10.108   1.768   8.431
  186SOL    HW2 2456  10.082   1.656   8.530
  187SOL     OW 2457   7.920   2.092   6.048
  187SOL    HW1 2458   7.982   2.142   5.995
  187SOL    HW2 2459   7.971   2.017   6.079
  188SOL     OW 2460   2.419  13.566   0.877
  188SOL    HW1 2461   2.427  13.619   0.956
  188SOL    HW2 2462   2.436  13.476   0.905
  189SOL     OW 2463   2.128   4.858   1.254
  189SOL    HW1 2464   2.096   4.900   1.334
  189SOL    HW2 2465   2.223   4.864   1.260
  190SOL     OW 2466   7.355   9.566  10.704
  190SOL    HW1 2467   7.286   9.592  10.644
  190SOL    HW2 2468   7.418   9.639  10.702
  191SOL     OW 2469   3.404  13.112   4.570
  191SOL    HW1 2470   3.437  13.029   4.534
  191SOL    HW2 2471   3.312  13.094   4.591
  192SOL     OW 2472   7.321  14.249  12.947
  192SOL    HW1 2473   7.238  14.244  12.995
  192SOL    HW2 2474   7.355  14.336  12.965
  193SOL     OW 2475   4.049  12.583   3.840
  193SOL    HW1 2476   4.020  12.663   3.884
  193SOL    HW2 2477   4.144  12.582   3.851
  194SOL     OW 2478   1.294   4.622   5.398
  194SOL    HW1 2479   1.321   4.609   5.307
  194SOL    HW2 2480   1.375   4.615   5.448
  195SOL     OW 2481  11.252   0.604   8.773
  195SOL    HW1 2482  11.248   0.551   8.693
  195SOL    HW2 2483  11.306   0.552   8.834
  196SOL     OW 2484   5.653  11.422   2.703
  196SOL    HW1 2485   5.599  11.348   2.729
  196SOL    HW2 2486   5.720  11.428   2.772
  197SOL     OW 2487   4.516   1.142   1.487
  197SOL    HW1 2488   4.569   1.160   1.565
  197SOL    HW2 2489   4.562   1.071   1.442
  198SOL     OW 2490   6.306  11.421  10.501
  198SOL    HW1 2491   6.247  11.440  10.428
  198SOL    HW2 2492   6.385  11.473  10.483
  199SOL     OW 2493   7.435   9.640  11.167
  199SOL    HW1 2494   7.493   9.716  11.158
  199SOL    HW2 2495   7.348   9.673  11.144
  200SOL     OW 2496   2.586  13.782   4.837
  200SOL    HW1 2497   2.636  13.704   4.814
  200SOL    HW2 2498   2.634  13.821   4.909
  201SOL     OW 2499  10.070   7.172   4.881
  201SOL    HW1 2500  10.109   7.085   4.877
  201SOL    HW2 2501   9.979   7.157   4.906
  202SOL     OW 2502   1.300   2.096   8.624
  202SOL    HW1 2503   1.266   2.008   8.605
  202SOL    HW2 2504   1.230   2.155   8.598
  203SOL     OW 2505   7.296   0.565   8.789
  203SOL    HW1 2506   7.353   0.606   8.854
  203SOL    HW2 2507   7.207   0.585   8.820
  204SOL     OW 2508  11.545  12.544   8.087
  204SOL    HW1 2509  11.560  12.582   8.001
  204SOL    HW2 2510  11.631  12.545   8.130
  205SOL     OW 2511  11.654   3.554   0.056
  205SOL    HW1 2512  11.580   3.615   0.057
  205SOL    HW2 2513  11.710   3.586  14.859
  206SOL     OW 2514  14.728   4.007   9.079
  206SOL    HW1 2515  14.672   3.971   9.148
  206SOL    HW2 2516  14.706   4.100   9.076
  207SOL     OW 2517   8.083  12.089   9.065
  207SOL    HW1 2518   7.998  12.070   9.027
  207SOL    HW2 2519   8.067  12.161   9.125
  208SOL     OW 2520  10.650   1.880  10.277
  208SOL    HW1 2521  10.739   1.915  10.277
  208SOL    HW2 2522  10.628   1.870  10.184
  209SOL     OW 2523   6.235   0.595   3.451
  209SOL    HW1 2524   6.167   0.529   3.460
  209SOL    HW2 2525   6.190   0.678   3.465
  210SOL     OW 2526   5.760  13.392   8.728
  210SOL    HW1 2527   5.854  13.406   8.716
  210SOL    HW2 2528   5.724  13.480   8.738
  211SOL     OW 2529  10.398   2.327   7.320
  211SOL    HW1 2530  10.332   2.397   7.326
  211SOL    HW2 2531  10.440   2.327   7.406
  212SOL     OW 2532   3.564  11.143  10.973
  212SOL    HW1 2533   3.505  11.175  11.041
  212SOL    HW2 2534   3.533  11.055  10.954
  213SOL     OW 2535  11.103  12.652   7.999
  213SOL    HW1 2536  11.010  12.648   8.023
  213SOL    HW2 2537  11.143  12.578   8.043
  214SOL     OW 2538   6.624   9.768   5.091
  214SOL    HW1 2539   6.694   9.711   5.124
  214SOL    HW2 2540   6.670   9.833   5.038
  215SOL     OW 2541  11.256   6.394   4.952
  215SOL    HW1 2542  11.227   6.325   4.892
  215SOL    HW2 2543  11.250   6.474   4.901
  216SOL     OW 2544   3.481   9.820   4.668
  216SOL    HW1 2545   3.418   9.761   4.627
  216SOL    HW2 2546   3.433   9.858   4.742
  217SOL     OW 2547   8.962  13.241  10.936
  217SOL    HW1 2548   9.021  13.165  10.931
  217SOL    HW2 2549   8.959  13.275  10.847
  218SOL     OW 2550  12.872  14.179   4.919
  218SOL    HW1 2551  12.826  14.250   4.874
  218SOL    HW2 2552  12.937  14.224   4.973
  219SOL     OW 2553   2.017   0.087   1.167
  219SOL    HW1 2554   1.947   0.024   1.145
  219SOL    HW2 2555   1.973   0.172   1.167
  220SOL     OW 2556  12.531  11.877   9.535
  220SOL    HW1 2557  12.609  11.926   9.508
  220SOL    HW2 2558  12.458  11.930   9.505
  221SOL     OW 2559   1.667   4.490   8.479
  221SOL    HW1 2560   1.620   4.428   8.534
  221SOL    HW2 2561   1.600   4.528   8.422
  222SOL     OW 2562  12.411  11.584   0.016
  222SOL    HW1 2563  12.458  11.632   0.084
  222SOL    HW2 2564  12.479  11.561  14.827
  223SOL     OW 2565   8.859   0.746   2.261
  223SOL    HW1 2566   8.857   0.701   2.345
  223SOL    HW2 2567   8.767   0.750   2.233
  224SOL     OW 2568   1.094   8.832  13.316
  224SOL    HW1 2569   1.181   8.792  13.325
  224SOL    HW2 2570   1.035   8.770  13.360
  225SOL     OW 2571   4.626  10.398   0.833
  225SOL    HW1 2572   4.662  10.485   0.844
  225SOL    HW2 2573   4.688  10.353   0.776
  226SOL     OW 2574   8.389   9.626  10.958
  226SOL    HW1 2575   8.372   9.615  11.051
  226SOL    HW2 2576   8.350   9.549  10.917
  227SOL     OW 2577  10.575   7.372  14.701
  227SOL    HW1 2578  10.575   7.281  14.670
  227SOL    HW2 2579  10.643   7.373  14.769
  228SOL     OW 2580   5.298   8.017   1.297
  228SOL    HW1 2581   5.370   8.009   1.235
  228SOL    HW2 2582   5.322   8.092   1.351
  229SOL     OW 2583   1.285  11.232  12.379
  229SOL    HW1 2584   1.191  11.249  12.385
  229SOL    HW2 2585   1.326  11.319  12.384
  230SOL     OW 2586   5.178   8.112  11.658
  230SOL    HW1 2587   5.265   8.131  11.692
  230SOL    HW2 2588   5.192   8.090  11.566
  231SOL     OW 2589   3.768   0.471   4.082
  231SOL    HW1 2590   3.690   0.503   4.035
  231SOL    HW2 2591   3.839   0.479   4.018
  232SOL     OW 2592   2.573   8.284   8.627
  232SOL    HW1 2593   2.644   8.332   8.668
  232SOL    HW2 2594   2.591   8.290   8.533
  233SOL     OW 2595   4.659  11.395   9.119
  233SOL    HW1 2596   4.612  11.327   9.071
  233SOL    HW2 2597   4.712  11.348   9.183
  234SOL     OW 2598   6.585  12.753   3.581
  234SOL    HW1 2599   6.583  12.666   3.621
  234SOL    HW2 2600   6.606  12.813   3.653
  235SOL     OW 2601  12.039   4.976   6.371
  235SOL    HW1 2602  12.128   5.005   6.390
  235SOL    HW2 2603  12.025   4.902   6.429
  236SOL     OW 2604   3.806   2.978   4.081
  236SOL    HW1 2605   3.783   2.982   4.174
  236SOL    HW2 2606   3.741   3.034   4.038
  237SOL     OW 2607  13.948  10.627   1.841
  237SOL    HW1 2608  13.914  10.542   1.811
  237SOL    HW2 2609  14.037  10.607   1.872
  238SOL     OW 2610  13.661   3.015   3.314
  238SOL    HW1 2611  13.608   3.091   3.290
  238SOL    HW2 2612  13.652   3.008   3.409
  239SOL     OW 2613   5.124   2.806   3.353
  239SOL    HW1 2614   5.081   2.720   3.346
  239SOL    HW2 2615   5.217   2.787   3.353
  240SOL     OW 2616   1.855   6.527  12.640
  240SOL    HW1 2617   1.876   6.520  12.733
  240SOL    HW2 2618   1.838   6.437  12.612
  241SOL     OW 2619   1.684   4.546   3.720
  241SOL    HW1 2620   1.627   4.509   3.788
  241SOL    HW2 2621   1.624   4.590   3.660
  242SOL     OW 2622   0.308   0.356   5.126
  242SOL    HW1 2623   0.258   0.280   5.154
  242SOL    HW2 2624   0.330   0.339   5.035
  243SOL     OW 2625   6.707  14.177  12.820
  243SOL    HW1 2626   6.621  14.158  12.784
  243SOL    HW2 2627   6.717  14.272  12.811
  244SOL     OW 2628   2.283  13.427   8.635
  244SOL    HW1 2629   2.361  13.378   8.659
  244SOL    HW2 2630   2.213  13.389   8.688
  245SOL     OW 2631  12.561   3.569  12.953
  245SOL    HW1 2632  12.650   3.535  12.947
  245SOL    HW2 2633  12.570   3.664  12.947
  246SOL     OW 2634  10.565   3.771   7.389
  246SOL    HW1 2635  10.604   3.859   7.391
  246SOL    HW2 2636  10.477   3.786   7.355
  247SOL     OW 2637  12.619   7.534  13.979
  247SOL    HW1 2638  12.656   7.482  14.051
  247SOL    HW2 2639  12.538   7.488  13.956
  248SOL     OW 2640   6.260   9.563  10.069
  248SOL    HW1 2641   6.316   9.558  10.147
  248SOL    HW2 2642   6.244   9.656  10.057
  249SOL     OW 2643  14.254   7.738  13.949
  249SOL    HW1 2644  14.267   7.774  13.861
  249SOL    HW2 2645  14.296   7.652  13.945
  250SOL     OW 2646   7.686   3.972  12.028
  250SOL    HW1 2647   7.747   3.963  11.954
  250SOL    HW2 2648   7.631   4.047  12.005
  251SOL     OW 2649   2.728  10.617   4.729
  251SOL    HW1 2650   2.642  10.649   4.754
  251SOL    HW2 2651   2.750  10.552   4.796
  252SOL     OW 2652   0.626   6.446   9.656
  252SOL    HW1 2653   0.577   6.468   9.735
  252SOL    HW2 2654   0.633   6.529   9.609
  253SOL     OW 2655  10.073  12.714   6.484
  253SOL    HW1 2656  10.022  12.760   6.551
  253SOL    HW2 2657  10.093  12.629   6.525
  254SOL     OW 2658  14.810   4.743  14.653
  254SOL    HW1 2659  14.787   4.667  14.601
  254SOL    HW2 2660  14.736   4.756  14.713
  255SOL     OW 2661   8.308  11.656   5.912
  255SOL    HW1 2662   8.269  11.702   5.838
  255SOL    HW2 2663   8.236  11.643   5.974
  256SOL     OW 2664   1.125  10.420   8.647
  256SOL    HW1 2665   1.046  10.366   8.646
  256SOL    HW2 2666   1.099  10.499   8.695
  257SOL     OW 2667   3.180  11.474   3.509
  257SOL    HW1 2668   3.210  11.443   3.423
  257SOL    HW2 2669   3.237  11.429   3.572
  258SOL     OW 2670   2.465   1.777   9.397
  258SOL    HW1 2671   2.459   1.816   9.484
  258SOL    HW2 2672   2.502   1.846   9.342
  259SOL     OW 2673   2.823   8.884   3.495
  259SOL    HW1 2674   2.893   8.917   3.551
  259SOL    HW2 2675   2.743   8.904   3.543
  260SOL     OW 2676   0.125  14.328  12.566
  260SOL    HW1 2677   0.069  14.378  12.624
  260SOL    HW2 2678   0.214  14.351  12.592
  261SOL     OW 2679   2.661   8.199  11.783
  261SOL    HW1 2680   2.650   8.120  11.730
  261SOL    HW2 2681   2.695   8.265  11.722
  262SOL     OW 2682   1.762   9.519   9.184
  262SOL    HW1 2683   1.819   9.568   9.126
  262SOL    HW2 2684   1.772   9.428   9.156
  263SOL     OW 2685   4.336   0.593  10.883
  263SOL    HW1 2686   4.339   0.506  10.843
  263SOL    HW2 2687   4.428   0.614  10.902
  264SOL     OW 2688   6.007   2.430   5.709
  264SOL    HW1 2689   5.930   2.394   5.666
  264SOL    HW2 2690   6.020   2.375   5.787
  265SOL     OW 2691  14.109   3.215   2.591
  265SOL    HW1 2692  14.181   3.254   2.640
  265SOL    HW2 2693  14.126   3.121   2.592
  266SOL     OW 2694   0.027  14.347   3.618
  266SOL    HW1 2695  14.825  14.361   3.673
  266SOL    HW2 2696   0.052  14.256   3.635
  267SOL     OW 2697   9.120  12.175   2.327
  267SOL    HW1 2698   9.041  12.167   2.274
  267SOL    HW2 2699   9.099  12.241   2.393
  268SOL     OW 2700   1.253   0.232   5.885
  268SOL    HW1 2701   1.269   0.138   5.896
  268SOL    HW2 2702   1.325   0.262   5.829
  269SOL     OW 2703   1.965  11.753  12.360
  269SOL    HW1 2704   1.987  11.699  12.436
  269SOL    HW2 2705   1.939  11.837  12.398
  270SOL     OW 2706   0.868  14.316  11.160
  270SOL    HW1 2707   0.905  14.236  11.123
  270SOL    HW2 2708   0.885  14.309  11.254
  271SOL     OW 2709   4.173   7.501   1.741
  271SOL    HW1 2710   4.189   7.591   1.769
  271SOL    HW2 2711   4.153   7.454   1.822
  272SOL     OW 2712   9.769  12.261   6.149
  272SOL    HW1 2713   9.760  12.208   6.070
  272SOL    HW2 2714   9.822  12.208   6.208
  273SOL     OW 2715   2.235   0.931  11.966
  273SOL    HW1 2716   2.277   0.845  11.968
  273SOL    HW2 2717   2.147   0.913  11.932
  274SOL     OW 2718  13.694  11.694   5.619
  274SOL    HW1 2719  13.672  11.673   5.710
  274SOL    HW2 2720  13.609  11.706   5.576
  275SOL     OW 2721   7.130   5.030   4.250
  275SOL    HW1 2722   7.187   5.000   4.321
  275SOL    HW2 2723   7.191   5.060   4.182
  276SOL     OW 2724   2.584  12.385  12.599
  276SOL    HW1 2725   2.636  12.313  12.560
  276SOL    HW2 2726   2.625  12.464  12.565
  277SOL     OW 2727   9.296  10.227   4.228
  277SOL    HW1 2728   9.307  10.152   4.287
  277SOL    HW2 2729   9.287  10.188   4.141
  278SOL     OW 2730  10.705   7.718  14.859
  278SOL    HW1 2731  10.638   7.777  14.826
  278SOL    HW2 2732  10.711   7.648  14.794
  279SOL     OW 2733  12.884  14.768  10.292
  279SOL    HW1 2734  12.968  14.743  10.331
  279SOL    HW2 2735  12.830  14.795  10.367
  280SOL     OW 2736  13.668  10.803   0.780
  280SOL    HW1 2737  13.705  10.890   0.794
  280SOL    HW2 2738  13.642  10.803   0.688
  281SOL     OW 2739   1.460   2.389   0.380
  281SOL    HW1 2740   1.370   2.375   0.412
  281SOL    HW2 2741   1.458   2.361   0.289
  282SOL     OW 2742  10.529   7.000   3.026
  282SOL    HW1 2743  10.605   6.968   3.074
  282SOL    HW2 2744  10.564   7.065   2.965
  283SOL     OW 2745   8.962   4.715   0.817
  283SOL    HW1 2746   9.024   4.688   0.750
  283SOL    HW2 2747   8.943   4.807   0.798
  284SOL     OW 2748   4.292  12.458  11.466
  284SOL    HW1 2749   4.320  12.482  11.378
  284SOL    HW2 2750   4.247  12.374  11.455
  285SOL     OW 2751  13.796  14.369   3.548
  285SOL    HW1 2752  13.892  14.371   3.548
  285SOL    HW2 2753  13.773  14.349   3.457
  286SOL     OW 2754   9.892   8.302  14.520
  286SOL    HW1 2755   9.983   8.331  14.517
  286SOL    HW2 2756   9.843   8.374  14.479
  287SOL     OW 2757  11.707   8.380   6.831
  287SOL    HW1 2758  11.789   8.391   6.782
  287SOL    HW2 2759  11.724   8.305   6.888
  288SOL     OW 2760  14.242  14.800   6.558
  288SOL    HW1 2761  14.175  14.774   6.495
  288SOL    HW2 2762  14.299  14.723   6.567
  289SOL     OW 2763   6.175   5.280  11.040
  289SOL    HW1 2764   6.249   5.301  10.984
  289SOL    HW2 2765   6.212   5.270  11.128
  290SOL     OW 2766   8.142   5.745   4.308
  290SOL    HW1 2767   8.139   5.662   4.356
  290SOL    HW2 2768   8.052   5.762   4.283
  291SOL     OW 2769  13.483   6.149  11.650
  291SOL    HW1 2770  13.517   6.226  11.605
  291SOL    HW2 2771  13.543   6.078  11.625
  292SOL     OW 2772  14.244   7.081   3.509
  292SOL    HW1 2773  14.149   7.066   3.504
  292SOL    HW2 2774  14.282   6.994   3.511
  293SOL     OW 2775   0.596  12.974   1.597
  293SOL    HW1 2776   0.629  12.897   1.644
  293SOL    HW2 2777   0.611  13.047   1.658
  294SOL     OW 2778   9.002   9.170   9.958
  294SOL    HW1 2779   8.966   9.116  10.028
  294SOL    HW2 2780   8.998   9.259   9.993
  295SOL     OW 2781  10.942   7.847   4.469
  295SOL    HW1 2782  11.014   7.785   4.474
  295SOL    HW2 2783  10.886   7.814   4.399
  296SOL     OW 2784   6.045  14.636  13.059
  296SOL    HW1 2785   5.993  14.705  13.100
  296SOL    HW2 2786   6.096  14.682  12.992
  297SOL     OW 2787   5.426   4.920   3.689
  297SOL    HW1 2788   5.464   4.849   3.637
  297SOL    HW2 2789   5.498   4.982   3.701
  298SOL     OW 2790   9.725  10.804  13.692
  298SOL    HW1 2791   9.735  10.729  13.633
  298SOL    HW2 2792   9.633  10.829  13.683
  299SOL     OW 2793   1.734   1.990  14.356
  299SOL    HW1 2794   1.666   2.031  14.410
  299SOL    HW2 2795   1.801   1.963  14.418
  300SOL     OW 2796   8.920   1.160   8.931
  300SOL    HW1 2797   8.937   1.247   8.895
  300SOL    HW2 2798   8.824   1.154   8.935
  301SOL     OW 2799   1.218  10.456   6.882
  301SOL    HW1 2800   1.131  10.449   6.842
  301SOL    HW2 2801   1.239  10.367   6.910
  302SOL     OW 2802   0.990  11.878   6.390
  302SOL    HW1 2803   0.912  11.831   6.360
  302SOL    HW2 2804   1.058  11.810   6.393
  303SOL     OW 2805  13.927   8.705   8.699
  303SOL    HW1 2806  13.885   8.661   8.773
  303SOL    HW2 2807  13.930   8.797   8.725
  304SOL     OW 2808   1.015  12.690   0.710
  304SOL    HW1 2809   1.041  12.603   0.678
  304SOL    HW2 2810   0.926  12.702   0.678
  305SOL     OW 2811  11.590   8.114   1.888
  305SOL    HW1 2812  11.540   8.038   1.861
  305SOL    HW2 2813  11.538   8.153   1.959
  306SOL     OW 2814   4.830  13.614   9.625
  306SOL    HW1 2815   4.809  13.539   9.569
  306SOL    HW2 2816   4.830  13.578   9.714
  307SOL     OW 2817   3.525   6.715   4.409
  307SOL    HW1 2818   3.597   6.739   4.468
  307SOL    HW2 2819   3.447   6.722   4.462
  308SOL     OW 2820   7.479  10.807   3.037
  308SOL    HW1 2821   7.402  10.757   3.064
  308SOL    HW2 2822   7.545  10.789   3.104
  309SOL     OW 2823  10.748   1.291   0.324
  309SOL    HW1 2824  10.840   1.314   0.339
  309SOL    HW2 2825  10.708   1.371   0.291
  310SOL     OW 2826   8.165   9.396  13.209
  310SOL    HW1 2827   8.236   9.362  13.263
  310SOL    HW2 2828   8.209   9.432  13.131
  311SOL     OW 2829  13.739   7.306  13.990
  311SOL    HW1 2830  13.814   7.352  14.027
  311SOL    HW2 2831  13.742   7.219  14.031
  312SOL     OW 2832   4.783  14.215   9.400
  312SOL    HW1 2833   4.730  14.255   9.469
  312SOL    HW2 2834   4.720  14.197   9.330
  313SOL     OW 2835  14.812  11.877   3.559
  313SOL    HW1 2836  14.741  11.850   3.617
  313SOL    HW2 2837  14.846  11.958   3.599
  314SOL     OW 2838   8.513   4.322   5.914
  314SOL    HW1 2839   8.540   4.414   5.911
  314SOL    HW2 2840   8.577   4.279   5.969
  315SOL     OW 2841  10.892   4.169  13.821
  315SOL    HW1 2842  10.871   4.114  13.746
  315SOL    HW2 2843  10.971   4.130  13.858
  316SOL     OW 2844   0.716   4.372  14.154
  316SOL    HW1 2845   0.629   4.351  14.122
  316SOL    HW2 2846   0.716   4.345  14.246
  317SOL     OW 2847  12.657  10.833   9.404
  317SOL    HW1 2848  12.718  10.887   9.455
  317SOL    HW2 2849  12.646  10.754   9.457
  318SOL     OW 2850   5.027   6.812   4.811
  318SOL    HW1 2851   5.053   6.722   4.791
  318SOL    HW2 2852   4.938   6.820   4.777
  319SOL     OW 2853  10.347   4.998   6.023
  319SOL    HW1 2854  10.413   4.931   6.005
  319SOL    HW2 2855  10.276   4.951   6.068
  320SOL     OW 2856  10.360   8.359   2.340
  320SOL    HW1 2857  10.339   8.445   2.378
  320SOL    HW2 2858  10.349   8.298   2.413
  321SOL     OW 2859  13.371   2.107   5.365
  321SOL    HW1 2860  13.396   2.052   5.439
  321SOL    HW2 2861  13.427   2.078   5.293
  322SOL     OW 2862  10.327  12.224   7.289
  322SOL    HW1 2863  10.410  12.177   7.290
  322SOL    HW2 2864  10.333  12.285   7.362
  323SOL     OW 2865   4.727   8.628   2.171
  323SOL    HW1 2866   4.716   8.570   2.246
  323SOL    HW2 2867   4.775   8.704   2.207
  324SOL     OW 2868   1.103   1.308  14.825
  324SOL    HW1 2869   1.016   1.346  14.810
  324SOL    HW2 2870   1.163   1.363  14.775
  325SOL     OW 2871  12.790   5.200  14.280
  325SOL    HW1 2872  12.762   5.207  14.188
  325SOL    HW2 2873  12.846   5.276  14.294
  326SOL     OW 2874  11.482  11.716   6.579
  326SOL    HW1 2875  11.443  11.803   6.583
  326SOL    HW2 2876  11.490  11.689   6.670
  327SOL     OW 2877   2.103   5.134   7.156
  327SOL    HW1 2878   2.054   5.152   7.236
  327SOL    HW2 2879   2.096   5.039   7.144
  328SOL     OW 2880   0.855   6.461  10.071
  328SOL    HW1 2881   0.788   6.395  10.053
  328SOL    HW2 2882   0.930   6.412  10.103
  329SOL     OW 2883  10.800   6.768   5.525
  329SOL    HW1 2884  10.868   6.790   5.590
  329SOL    HW2 2885  10.846   6.716   5.459
  330SOL     OW 2886   2.623   7.040   1.180
  330SOL    HW1 2887   2.660   7.096   1.111
  330SOL    HW2 2888   2.537   7.078   1.198
  331SOL     OW 2889   8.059   1.074  13.499
  331SOL    HW1 2890   8.073   1.030  13.416
  331SOL    HW2 2891   7.966   1.060  13.518
  332SOL     OW 2892   7.784  14.751   2.266
  332SOL    HW1 2893   7.846  14.701   2.318
  332SOL    HW2 2894   7.831  14.830   2.240
  333SOL     OW 2895   8.785  13.863  14.360
  333SOL    HW1 2896   8.873  13.901  14.360
  333SOL    HW2 2897   8.735  13.917  14.420
  334SOL     OW 2898   6.242   4.250  14.595
  334SOL    HW1 2899   6.243   4.155  14.608
  334SOL    HW2 2900   6.330   4.278  14.621
  335SOL     OW 2901  11.442   1.567   2.957
  335SOL    HW1 2902  11.432   1.568   2.862
  335SOL    HW2 2903  11.375   1.504   2.987
  336SOL     OW 2904   6.157   2.784   9.546
  336SOL    HW1 2905   6.120   2.823   9.625
  336SOL    HW2 2906   6.112   2.700   9.537
  337SOL     OW 2907  12.596   9.572  11.301
  337SOL    HW1 2908  12.583   9.654  11.349
  337SOL    HW2 2909  12.601   9.598  11.209
  338SOL     OW 2910   1.358  11.809  12.724
  338SOL    HW1 2911   1.343  11.762  12.806
  338SOL    HW2 2912   1.411  11.885  12.750
  339SOL     OW 2913   9.068   7.611   4.115
  339SOL    HW1 2914   9.004   7.587   4.182
  339SOL    HW2 2915   9.150   7.571   4.145
  340SOL     OW 2916   6.094   3.747  11.078
  340SOL    HW1 2917   6.086   3.730  11.171
  340SOL    HW2 2918   6.071   3.840  11.069
  341SOL     OW 2919   0.772   1.060   8.924
  341SOL    HW1 2920   0.710   1.090   8.990
  341SOL    HW2 2921   0.833   1.004   8.971
  342SOL     OW 2922   3.756   2.479   2.795
  342SOL    HW1 2923   3.784   2.529   2.872
  342SOL    HW2 2924   3.792   2.526   2.721
  343SOL     OW 2925  10.453   6.445  10.325
  343SOL    HW1 2926  10.463   6.353  10.347
  343SOL    HW2 2927  10.437   6.446  10.231
  344SOL     OW 2928   8.021   7.922  10.158
  344SOL    HW1 2929   8.108   7.962  10.151
  344SOL    HW2 2930   8.001   7.925  10.251
  345SOL     OW 2931   7.335   1.203   9.547
  345SOL    HW1 2932   7.367   1.278   9.497
  345SOL    HW2 2933   7.341   1.231   9.639
  346SOL     OW 2934   7.087   3.503  14.506
  346SOL    HW1 2935   7.112   3.519  14.415
  346SOL    HW2 2936   6.994   3.529  14.509
  347SOL     OW 2937   4.269   6.665   3.969
  347SOL    HW1 2938   4.335   6.650   4.037
  347SOL    HW2 2939   4.283   6.755   3.940
  348SOL     OW 2940   4.266   3.975   6.276
  348SOL    HW1 2941   4.182   3.963   6.233
  348SOL    HW2 2942   4.299   4.059   6.243
  349SOL     OW 2943   1.274   6.445  14.366
  349SOL    HW1 2944   1.294   6.538  14.359
  349SOL    HW2 2945   1.358   6.404  14.388
  350SOL     OW 2946   7.306   4.742   0.242
  350SOL    HW1 2947   7.274   4.820   0.197
  350SOL    HW2 2948   7.367   4.702   0.180
  351SOL     OW 2949   7.092  13.655   0.358
  351SOL    HW1 2950   7.107  13.614   0.274
  351SOL    HW2 2951   7.115  13.747   0.345
  352SOL     OW 2952   3.393  12.466   8.294
  352SOL    HW1 2953   3.460  12.406   8.261
  352SOL    HW2 2954   3.312  12.436   8.253
  353SOL     OW 2955   3.095   0.971   0.269
  353SOL    HW1 2956   3.099   1.066   0.276
  353SOL    HW2 2957   3.186   0.942   0.273
  354SOL     OW 2958  11.047   1.072  14.424
  354SOL    HW1 2959  11.071   1.027  14.343
  354SOL    HW2 2960  11.128   1.111  14.455
  355SOL     OW 2961   1.427   3.805   8.503
  355SOL    HW1 2962   1.421   3.813   8.408
  355SOL    HW2 2963   1.494   3.738   8.517
  356SOL     OW 2964   1.318  14.767   5.829
  356SOL    HW1 2965   1.253  14.779   5.897
  356SOL    HW2 2966   1.268  14.736   5.753
  357SOL     OW 2967   5.825   5.584  13.902
  357SOL    HW1 2968   5.732   5.562  13.899
  357SOL    HW2 2969   5.864   5.532  13.831
  358SOL     OW 2970   1.260   4.564  14.796
  358SOL    HW1 2971   1.345   4.606  14.804
  358SOL    HW2 2972   1.263   4.518  14.712
  359SOL     OW 2973   9.869  12.950   3.389
  359SOL    HW1 2974   9.830  12.900   3.461
  359SOL    HW2 2975   9.804  12.944   3.318
  360SOL     OW 2976   2.562   7.185   5.166
  360SOL    HW1 2977   2.474   7.199   5.200
  360SOL    HW2 2978   2.550   7.136   5.084
  361SOL     OW 2979  13.993   0.034   5.171
  361SOL    HW1 2980  14.072   0.052   5.121
  361SOL    HW2 2981  13.942   0.116   5.167
  362SOL     OW 2982   8.392   1.372   4.905
  362SOL    HW1 2983   8.412   1.319   4.982
  362SOL    HW2 2984   8.314   1.331   4.867
  363SOL     OW 2985   0.960   1.471   1.837
  363SOL    HW1 2986   0.981   1.393   1.785
  363SOL    HW2 2987   0.974   1.444   1.928
  364SOL     OW 2988   1.026   3.357   8.710
  364SOL    HW1 2989   1.042   3.332   8.619
  364SOL    HW2 2990   1.096   3.315   8.760
  365SOL     OW 2991   4.808  11.687   5.451
  365SOL    HW1 2992   4.749  11.647   5.387
  365SOL    HW2 2993   4.840  11.614   5.503
  366SOL     OW 2994   3.357   2.860  14.517
  366SOL    HW1 2995   3.391   2.933  14.466
  366SOL    HW2 2996   3.291   2.900  14.575
  367SOL     OW 2997   6.495   1.495   8.824
  367SOL    HW1 2998   6.478   1.580   8.783
  367SOL    HW2 2999   6.581   1.470   8.792
  368SOL     OW 3000   2.868   9.666  10.114
  368SOL    HW1 3001   2.954   9.625  10.121
  368SOL    HW2 3002   2.836   9.671  10.205
  369SOL     OW 3003   4.773   0.916   0.523
  369SOL    HW1 3004   4.840   0.948   0.463
  369SOL    HW2 3005   4.727   0.996   0.552
  370SOL     OW 3006   1.317   9.930  12.586
  370SOL    HW1 3007   1.331   9.998  12.652
  370SOL    HW2 3008   1.403   9.917  12.546
  371SOL     OW 3009  10.747   6.317   4.922
  371SOL    HW1 3010  10.818   6.380   4.915
  371SOL    HW2 3011  10.750   6.287   5.013
  372SOL     OW 3012   8.124  13.225  10.946
  372SOL    HW1 3013   8.090  13.174  11.020
  372SOL    HW2 3014   8.211  13.189  10.931
  373SOL     OW 3015   1.050  13.985   3.053
  373SOL    HW1 3016   1.059  14.064   3.106
  373SOL    HW2 3017   0.960  13.956   3.067
  374SOL     OW 3018   5.721  13.342   6.617
  374SOL    HW1 3019   5.773  13.310   6.691
  374SOL    HW2 3020   5.762  13.304   6.540
  375SOL     OW 3021   2.302   6.887  10.736
  375SOL    HW1 3022   2.375   6.926  10.687
  375SOL    HW2 3023   2.224   6.908  10.684
  376SOL     OW 3024  12.436   0.991  12.963
  376SOL    HW1 3025  12.402   0.913  13.008
  376SOL    HW2 3026  12.446   0.964  12.872
  377SOL     OW 3027   0.948   5.609  12.808
  377SOL    HW1 3028   0.988   5.522  12.804
  377SOL    HW2 3029   1.022   5.670  12.816
  378SOL     OW 3030   1.958  10.766   3.301
  378SOL    HW1 3031   1.891  10.719   3.351
  378SOL    HW2 3032   1.942  10.740   3.210
  379SOL     OW 3033  13.725  11.049  13.285
  379SOL    HW1 3034  13.749  10.988  13.215
  379SOL    HW2 3035  13.646  11.092  13.252
  380SOL     OW 3036  14.645  14.568   0.001
  380SOL    HW1 3037  14.716  14.581  14.813
  380SOL    HW2 3038  14.658  14.637   0.066
  381SOL     OW 3039   9.438   6.764  11.659
  381SOL    HW1 3040   9.458   6.799  11.746
  381SOL    HW2 3041   9.382   6.688  11.677
  382SOL     OW 3042   3.837   7.359  12.704
  382SOL    HW1 3043   3.925   7.326  12.722
  382SOL    HW2 3044   3.794   7.363  12.789
  383SOL     OW 3045   0.891  13.100   4.458
  383SOL    HW1 3046   0.850  13.186   4.455
  383SOL    HW2 3047   0.877  13.069   4.547
  384SOL     OW 3048  14.718   3.102  10.087
  384SOL    HW1 3049  14.665   3.124  10.163
  384SOL    HW2 3050  14.794   3.055  10.124
  385SOL     OW 3051   2.556  13.250   3.587
  385SOL    HW1 3052   2.584  13.250   3.495
  385SOL    HW2 3053   2.581  13.337   3.620
  386SOL     OW 3054   1.290  12.651  10.903
  386SOL    HW1 3055   1.376  12.646  10.944
  386SOL    HW2 3056   1.303  12.709  10.827
  387SOL     OW 3057   3.563  12.024  13.261
  387SOL    HW1 3058   3.571  12.116  13.287
  387SOL    HW2 3059   3.652  11.998  13.237
  388SOL     OW 3060   1.991  11.773  14.504
  388SOL    HW1 3061   1.956  11.862  14.498
  388SOL    HW2 3062   1.958  11.729  14.426
  389SOL     OW 3063  10.482   5.025  14.588
  389SOL    HW1 3064  10.555   4.993  14.534
  389SOL    HW2 3065  10.513   5.018  14.678
  390SOL     OW 3066  14.087   2.021   3.694
  390SOL    HW1 3067  14.118   1.966   3.621
  390SOL    HW2 3068  14.162   2.028   3.752
  391SOL     OW 3069  13.968  11.146   3.025
  391SOL    HW1 3070  13.877  11.117   3.024
  391SOL    HW2 3071  13.980  11.189   2.940
  392SOL     OW 3072  10.622   5.137  14.799
  392SOL    HW1 3073  10.576   5.207  14.753
  392SOL    HW2 3074  10.655   5.178   0.004
  393SOL     OW 3075   1.671   3.911   6.349
  393SOL    HW1 3076   1.629   3.960   6.420
  393SOL    HW2 3077   1.734   3.972   6.311
  394SOL     OW 3078  13.025   9.721   9.192
  394SOL    HW1 3079  12.953   9.746   9.250
  394SOL    HW2 3080  13.043   9.630   9.213
  395SOL     OW 3081   0.324   3.546  12.769
  395SOL    HW1 3082   0.408   3.586  12.748
  395SOL    HW2 3083   0.346   3.456  12.795
  396SOL     OW 3084   0.052   8.405   0.106
  396SOL    HW1 3085   0.070   8.455   0.186
  396SOL    HW2 3086  14.872   8.333   0.135
  397SOL     OW 3087   4.891  13.960   4.000
  397SOL    HW1 3088   4.817  13.996   3.950
  397SOL    HW2 3089   4.944  14.037   4.022
  398SOL     OW 3090  10.236   8.152   4.988
  398SOL    HW1 3091  10.323   8.113   4.986
  398SOL    HW2 3092  10.250   8.238   5.029
  399SOL     OW 3093  14.201   5.740   5.574
  399SOL    HW1 3094  14.151   5.798   5.631
  399SOL    HW2 3095  14.208   5.658   5.624
  400SOL     OW 3096   1.318   2.653   1.076
  400SOL    HW1 3097   1.381   2.617   1.014
  400SOL    HW2 3098   1.370   2.713   1.131
  401SOL     OW 3099  14.541   8.343   8.184
  401SOL    HW1 3100  14.458   8.296   8.186
  401SOL    HW2 3101  14.604   8.280   8.149
  402SOL     OW 3102  11.605   0.067   5.054
  402SOL    HW1 3103  11.520   0.028   5.075
  402SOL    HW2 3104  11.625   0.122   5.129
  403SOL     OW 3105   7.513   4.041   1.528
  403SOL    HW1 3106   7.504   3.980   1.601
  403SOL    HW2 3107   7.512   4.128   1.568
  404SOL     OW 3108   4.798   1.442   0.603
  404SOL    HW1 3109   4.856   1.489   0.663
  404SOL    HW2 3110   4.713   1.484   0.614
  405SOL     OW 3111  12.542   2.810  13.330
  405SOL    HW1 3112  12.573   2.897  13.304
  405SOL    HW2 3113  12.518   2.820  13.422
  406SOL     OW 3114   8.522   8.959  13.486
  406SOL    HW1 3115   8.559   8.963  13.575
  406SOL    HW2 3116   8.573   8.891  13.442
  407SOL     OW 3117  11.951  11.972  10.410
  407SOL    HW1 3118  11.919  11.885  10.433
  407SOL    HW2 3119  11.885  12.032  10.444
  408SOL     OW 3120   1.117   7.421   6.440
  408SOL    HW1 3121   1.094   7.462   6.523
  408SOL    HW2 3122   1.136   7.330   6.462
  409SOL     OW 3123   0.365   6.579   9.694
  409SOL    HW1 3124   0.319   6.567   9.611
  409SOL    HW2 3125   0.296   6.581   9.760
  410SOL     OW 3126   7.034   9.620   6.339
  410SOL    HW1 3127   7.000   9.587   6.255
  410SOL    HW2 3128   6.956   9.640   6.390
  411SOL     OW 3129   0.717   4.607  12.209
  411SOL    HW1 3130   0.668   4.583  12.130
  411SOL    HW2 3131   0.693   4.540  12.273
  412SOL     OW 3132  14.316   8.135   8.232
  412SOL    HW1 3133  14.354   8.159   8.317
  412SOL    HW2 3134  14.244   8.197   8.220
  413SOL     OW 3135   3.087   2.298   2.093
  413SOL    HW1 3136   3.132   2.296   2.009
  413SOL    HW2 3137   3.043   2.383   2.095
  414SOL     OW 3138   9.527  12.989  14.471
  414SOL    HW1 3139   9.561  12.916  14.418
  414SOL    HW2 3140   9.604  13.044  14.487
  415SOL     OW 3141  14.796   1.966   1.461
  415SOL    HW1 3142  14.700   1.959   1.468
  415SOL    HW2 3143  14.811   2.056   1.430
  416SOL     OW 3144   7.990  11.057   4.171
  416SOL    HW1 3145   8.032  11.141   4.152
  416SOL    HW2 3146   7.901  11.081   4.197
  417SOL     OW 3147   9.255   6.659   8.701
  417SOL    HW1 3148   9.224   6.645   8.612
  417SOL    HW2 3149   9.214   6.590   8.752
  418SOL     OW 3150   4.302   5.355   0.836
  418SOL    HW1 3151   4.385   5.390   0.803
  418SOL    HW2 3152   4.253   5.432   0.864
  419SOL     OW 3153   3.236  11.213  14.466
  419SOL    HW1 3154   3.218  11.234  14.558
  419SOL    HW2 3155   3.161  11.161  14.438
  420SOL     OW 3156   7.908   7.642   3.258
  420SOL    HW1 3157   7.899   7.701   3.183
  420SOL    HW2 3158   7.940   7.560   3.221
  421SOL     OW 3159   6.770  13.092   3.545
  421SOL    HW1 3160   6.730  13.041   3.474
  421SOL    HW2 3161   6.856  13.116   3.512
  422SOL     OW 3162   5.862  13.186   7.068
  422SOL    HW1 3163   5.830  13.136   6.993
  422SOL    HW2 3164   5.955  13.201   7.048
  423SOL     OW 3165  10.556   9.648  12.002
  423SOL    HW1 3166  10.566   9.594  11.924
  423SOL    HW2 3167  10.582   9.590  12.074
  424SOL     OW 3168   0.741  12.556   9.272
  424SOL    HW1 3169   0.749  12.637   9.222
  424SOL    HW2 3170   0.830  12.523   9.279
  425SOL     OW 3171   8.253  13.782   3.783
  425SOL    HW1 3172   8.244  13.770   3.878
  425SOL    HW2 3173   8.167  13.762   3.748
  426SOL     OW 3174   3.629   2.782   9.598
  426SOL    HW1 3175   3.713   2.826   9.584
  426SOL    HW2 3176   3.653   2.691   9.617
  427SOL     OW 3177   7.770  13.944   3.019
  427SOL    HW1 3178   7.768  13.949   2.924
  427SOL    HW2 3179   7.691  13.989   3.048
  428SOL     OW 3180  10.854  10.306   2.900
  428SOL    HW1 3181  10.769  10.340   2.873
  428SOL    HW2 3182  10.881  10.363   2.972
  429SOL     OW 3183   4.017  11.744  10.437
  429SOL    HW1 3184   3.926  11.774  10.441
  429SOL    HW2 3185   4.061  11.794  10.505
  430SOL     OW 3186   7.914   6.933   2.389
  430SOL    HW1 3187   7.980   6.997   2.416
  430SOL    HW2 3188   7.834   6.985   2.377
  431SOL     OW 3189  12.098   1.689   5.401
  431SOL    HW1 3190  12.028   1.711   5.340
  431SOL    HW2 3191  12.061   1.708   5.488
  432SOL     OW 3192  13.888   0.731  11.180
  432SOL    HW1 3193  13.797   0.740  11.154
  432SOL    HW2 3194  13.895   0.783  11.260
  433SOL     OW 3195  10.742   9.769   4.401
  433SOL    HW1 3196  10.684   9.845   4.394
  433SOL    HW2 3197  10.683   9.694   4.412
  434SOL     OW 3198  13.842  10.627   0.271
  434SOL    HW1 3199  13.929  10.667   0.264
  434SOL    HW2 3200  13.785  10.685   0.220
  435SOL     OW 3201   7.399  11.949  13.715
  435SOL    HW1 3202   7.466  11.881  13.703
  435SOL    HW2 3203   7.417  12.014  13.647
  436SOL     OW 3204  10.431  12.027   9.417
  436SOL    HW1 3205  10.400  11.965   9.483
  436SOL    HW2 3206  10.477  12.095   9.466
  437SOL     OW 3207  13.939   0.014   7.929
  437SOL    HW1 3208  14.018  14.850   7.891
  437SOL    HW2 3209  13.966   0.102   7.953
  438SOL     OW 3210   7.644   2.077   4.992
  438SOL    HW1 3211   7.641   2.117   5.079
  438SOL    HW2 3212   7.733   2.043   4.984
  439SOL     OW 3213   6.931   8.966   5.025
  439SOL    HW1 3214   6.970   9.053   5.020
  439SOL    HW2 3215   6.950   8.936   5.114
  440SOL     OW 3216  14.623  11.333   7.623
  440SOL    HW1 3217  14.536  11.334   7.663
  440SOL    HW2 3218  14.635  11.421   7.588
  441SOL     OW 3219   7.946  10.999  10.289
  441SOL    HW1 3220   7.923  10.973  10.200
  441SOL    HW2 3221   8.012  10.935  10.316
  442SOL     OW 3222   0.467   9.924   9.822
  442SOL    HW1 3223   0.499   9.945   9.735
  442SOL    HW2 3224   0.539   9.948   9.881
  443SOL     OW 3225  10.847  11.035  14.567
  443SOL    HW1 3226  10.791  10.960  14.586
  443SOL    HW2 3227  10.818  11.102  14.629
  444SOL     OW 3228   0.951  11.070   1.985
  444SOL    HW1 3229   0.930  10.986   2.027
  444SOL    HW2 3230   1.044  11.063   1.963
  445SOL     OW 3231   2.534   8.506  14.758
  445SOL    HW1 3232   2.543   8.442  14.687
  445SOL    HW2 3233   2.623   8.536  14.774
  446SOL     OW 3234   3.801   8.292   5.551
  446SOL    HW1 3235   3.887   8.280   5.513
  446SOL    HW2 3236   3.743   8.236   5.500
  447SOL     OW 3237   5.357   5.636   3.597
  447SOL    HW1 3238   5.300   5.683   3.659
  447SOL    HW2 3239   5.436   5.689   3.592
  448SOL     OW 3240   6.965   9.013  13.376
  448SOL    HW1 3241   7.047   8.963  13.374
  448SOL    HW2 3242   6.897   8.948  13.391
  449SOL     OW 3243   4.264   5.162   0.641
  449SOL    HW1 3244   4.273   5.239   0.696
  449SOL    HW2 3245   4.348   5.117   0.649
  450SOL     OW 3246   0.309   4.493   3.742
  450SOL    HW1 3247   0.326   4.402   3.716
  450SOL    HW2 3248   0.321   4.494   3.836
  451SOL     OW 3249   2.273  11.813   5.839
  451SOL    HW1 3250   2.195  11.766   5.808
  451SOL    HW2 3251   2.271  11.803   5.934
  452SOL     OW 3252   0.238   3.612  14.329
  452SOL    HW1 3253   0.282   3.668  14.265
  452SOL    HW2 3254   0.276   3.525  14.316
  453SOL     OW 3255   4.233  14.502   8.831
  453SOL    HW1 3256   4.288  14.497   8.754
  453SOL    HW2 3257   4.245  14.417   8.875
  454SOL     OW 3258  13.972   6.979   9.358
  454SOL    HW1 3259  13.995   7.015   9.272
  454SOL    HW2 3260  13.891   7.025   9.382
  455SOL     OW 3261   7.120   1.495   7.208
  455SOL    HW1 3262   7.113   1.404   7.182
  455SOL    HW2 3263   7.043   1.510   7.263
  456SOL     OW 3264  12.140   5.933  13.013
  456SOL    HW1 3265  12.068   5.879  13.048
  456SOL    HW2 3266  12.096   6.005  12.968
  457SOL     OW 3267   7.421  11.963   1.262
  457SOL    HW1 3268   7.380  11.879   1.284
  457SOL    HW2 3269   7.514  11.950   1.282
  458SOL     OW 3270   9.392   1.952   2.376
  458SOL    HW1 3271   9.387   1.932   2.283
  458SOL    HW2 3272   9.398   2.047   2.380
  459SOL     OW 3273  12.849  14.738  12.264
  459SOL    HW1 3274  12.827  14.734  12.171
  459SOL    HW2 3275  12.855  14.646  12.291
  460SOL     OW 3276   4.811   1.521   9.185
  460SOL    HW1 3277   4.883   1.561   9.136
  460SOL    HW2 3278   4.749   1.593   9.200
  461SOL     OW 3279   8.140   1.718   4.368
  461SOL    HW1 3280   8.102   1.802   4.394
  461SOL    HW2 3281   8.231   1.739   4.344
  462SOL     OW 3282   0.083  14.107   4.843
  462SOL    HW1 3283   0.138  14.090   4.919
  462SOL    HW2 3284   0.103  14.196   4.817
  463SOL     OW 3285   8.257   6.611   2.210
  463SOL    HW1 3286   8.294   6.661   2.137
  463SOL    HW2 3287   8.171   6.650   2.224
  464SOL     OW 3288  10.670   4.860   3.950
  464SOL    HW1 3289  10.722   4.916   4.008
  464SOL    HW2 3290  10.728   4.786   3.931
  465SOL     OW 3291   8.288  14.238   1.221
  465SOL    HW1 3292   8.248  14.317   1.185
  465SOL    HW2 3293   8.216  14.192   1.265
  466SOL     OW 3294   2.971   3.868  13.599
  466SOL    HW1 3295   3.065   3.878  13.585
  466SOL    HW2 3296   2.941   3.816  13.524
  467SOL     OW 3297   3.814   9.082   1.033
  467SOL    HW1 3298   3.733   9.037   1.055
  467SOL    HW2 3299   3.856   9.025   0.968
  468SOL     OW 3300   9.329   3.632   7.967
  468SOL    HW1 3301   9.382   3.553   7.981
  468SOL    HW2 3302   9.317   3.637   7.873
  469SOL     OW 3303   2.467  14.369   4.917
  469SOL    HW1 3304   2.526  14.303   4.953
  469SOL    HW2 3305   2.516  14.451   4.923
  470SOL     OW 3306   5.270  10.921   2.923
  470SOL    HW1 3307   5.323  10.959   2.994
  470SOL    HW2 3308   5.329  10.921   2.847
  471SOL     OW 3309   4.017  14.792   3.860
  471SOL    HW1 3310   4.063  14.848   3.797
  471SOL    HW2 3311   4.082  14.774   3.928
  472SOL     OW 3312   6.525   7.857  11.363
  472SOL    HW1 3313   6.496   7.900  11.443
  472SOL    HW2 3314   6.577   7.783  11.394
  473SOL     OW 3315  14.034   4.846   0.469
  473SOL    HW1 3316  13.974   4.828   0.396
  473SOL    HW2 3317  13.995   4.921   0.514
  474SOL     OW 3318   6.651  13.830  14.527
  474SOL    HW1 3319   6.600  13.754  14.500
  474SOL    HW2 3320   6.641  13.833  14.623
  475SOL     OW 3321   9.038  13.567   2.697
  475SOL    HW1 3322   8.996  13.484   2.719
  475SOL    HW2 3323   8.976  13.612   2.641
  476SOL     OW 3324   0.755   1.214  10.694
  476SOL    HW1 3325   0.820   1.265  10.742
  476SOL    HW2 3326   0.807   1.150  10.645
  477SOL     OW 3327  10.825   3.025   7.729
  477SOL    HW1 3328  10.802   3.057   7.816
  477SOL    HW2 3329  10.802   3.096   7.670
  478SOL     OW 3330   3.335  10.149  14.834
  478SOL    HW1 3331   3.278  10.112   0.027
  478SOL    HW2 3332   3.411  10.091  14.833
  479SOL     OW 3333   6.606   3.937  10.544
  479SOL    HW1 3334   6.541   3.939  10.614
  479SOL    HW2 3335   6.574   3.869  10.484
  480SOL     OW 3336   0.788   3.399   3.709
  480SOL    HW1 3337   0.760   3.404   3.800
  480SOL    HW2 3338   0.733   3.331   3.670
  481SOL     OW 3339  13.827  12.265  13.929
  481SOL    HW1 3340  13.822  12.351  13.889
  481SOL    HW2 3341  13.741  12.252  13.970
  482SOL     OW 3342  10.015   9.543   8.190
  482SOL    HW1 3343   9.949   9.563   8.123
  482SOL    HW2 3344   9.968   9.487   8.252
  483SOL     OW 3345  13.689   2.061   1.941
  483SOL    HW1 3346  13.616   1.999   1.938
  483SOL    HW2 3347  13.763   2.014   1.902
  484SOL     OW 3348   2.106   0.919   8.828
  484SOL    HW1 3349   2.028   0.864   8.835
  484SOL    HW2 3350   2.084   0.982   8.759
  485SOL     OW 3351   8.428   9.220   1.821
  485SOL    HW1 3352   8.522   9.238   1.818
  485SOL    HW2 3353   8.389   9.291   1.769
  486SOL     OW 3354  13.058   4.353   6.194
  486SOL    HW1 3355  13.051   4.437   6.149
  486SOL    HW2 3356  13.054   4.288   6.123
  487SOL     OW 3357   8.923  10.392   5.049
  487SOL    HW1 3358   9.010  10.365   5.021
  487SOL    HW2 3359   8.921  10.486   5.034
  488SOL     OW 3360   1.106  14.283   8.575
  488SOL    HW1 3361   1.099  14.341   8.650
  488SOL    HW2 3362   1.020  14.288   8.532
  489SOL     OW 3363  13.079   6.723   3.201
  489SOL    HW1 3364  13.034   6.805   3.221
  489SOL    HW2 3365  13.172   6.746   3.202
  490SOL     OW 3366  13.593   7.844   2.965
  490SOL    HW1 3367  13.645   7.832   3.044
  490SOL    HW2 3368  13.657   7.865   2.897
  491SOL     OW 3369   3.131  13.644   4.662
  491SOL    HW1 3370   3.226  13.642   4.673
  491SOL    HW2 3371   3.116  13.706   4.590
  492SOL     OW 3372   5.088   6.713   5.404
  492SOL    HW1 3373   5.057   6.676   5.321
  492SOL    HW2 3374   5.162   6.658   5.429
  493SOL     OW 3375  12.790  12.547   9.253
  493SOL    HW1 3376  12.817  12.624   9.202
  493SOL    HW2 3377  12.698  12.534   9.230
  494SOL     OW 3378   5.534  14.381   4.977
  494SOL    HW1 3379   5.442  14.359   4.968
  494SOL    HW2 3380   5.580  14.323   4.916
  495SOL     OW 3381  13.607   5.010   7.202
  495SOL    HW1 3382  13.584   4.918   7.215
  495SOL    HW2 3383  13.631   5.017   7.110
  496SOL     OW 3384   1.693  12.860   3.455
  496SOL    HW1 3385   1.665  12.917   3.383
  496SOL    HW2 3386   1.622  12.798   3.466
  497SOL     OW 3387  12.747  13.064   0.981
  497SOL    HW1 3388  12.711  13.025   0.901
  497SOL    HW2 3389  12.837  13.032   0.985
  498SOL     OW 3390   9.512   1.413   8.458
  498SOL    HW1 3391   9.443   1.444   8.516
  498SOL    HW2 3392   9.484   1.439   8.370
  499SOL     OW 3393   3.136  12.693   0.287
  499SOL    HW1 3394   3.058  12.733   0.326
  499SOL    HW2 3395   3.137  12.725   0.197
  500SOL     OW 3396   1.048   8.612   0.354
  500SOL    HW1 3397   0.996   8.666   0.414
  500SOL    HW2 3398   0.986   8.582   0.288
  501SOL     OW 3399   9.848   1.692  11.517
  501SOL    HW1 3400   9.862   1.678  11.423
  501SOL    HW2 3401   9.936   1.691  11.555
  502SOL     OW 3402   0.457   1.269   2.782
  502SOL    HW1 3403   0.488   1.183   2.811
  502SOL    HW2 3404   0.473   1.327   2.857
  503SOL     OW 3405   6.758   3.478   4.869
  503SOL    HW1 3406   6.700   3.553   4.854
  503SOL    HW2 3407   6.833   3.494   4.811
  504SOL     OW 3408   9.855   6.394  11.142
  504SOL    HW1 3409   9.840   6.483  11.173
  504SOL    HW2 3410   9.865   6.342  11.222
  505SOL     OW 3411  10.388   3.399  12.991
  505SOL    HW1 3412  10.301   3.369  13.016
  505SOL    HW2 3413  10.447   3.329  13.019
  506SOL     OW 3414   9.974   4.515   9.340
  506SOL    HW1 3415   9.931   4.439   9.379
  506SOL    HW2 3416   9.943   4.589   9.392
  507SOL     OW 3417   3.750   0.074  11.150
  507SOL    HW1 3418   3.751   0.101  11.242
  507SOL    HW2 3419   3.666   0.106  11.117
  508SOL     OW 3420   7.147   9.583   7.271
  508SOL    HW1 3421   7.078   9.642   7.242
  508SOL    HW2 3422   7.213   9.641   7.309
  509SOL     OW 3423   4.659  11.660  10.486
  509SOL    HW1 3424   4.617  11.732  10.439
  509SOL    HW2 3425   4.617  11.581  10.452
  510SOL     OW 3426  12.003   5.655   1.408
  510SOL    HW1 3427  12.044   5.570   1.390
  510SOL    HW2 3428  12.039   5.681   1.493
  511SOL     OW 3429   8.392   3.217   7.449
  511SOL    HW1 3430   8.383   3.123   7.466
  511SOL    HW2 3431   8.347   3.231   7.366
  512SOL     OW 3432  12.853   6.590   2.732
  512SOL    HW1 3433  12.896   6.551   2.808
  512SOL    HW2 3434  12.902   6.670   2.714
  513SOL     OW 3435  14.051  14.778   4.833
  513SOL    HW1 3436  14.028  14.870   4.847
  513SOL    HW2 3437  14.096  14.752   4.914
  514SOL     OW 3438   6.084  14.694  10.402
  514SOL    HW1 3439   6.056  14.618  10.352
  514SOL    HW2 3440   6.005  14.746  10.414
  515SOL     OW 3441   9.747   1.845   1.183
  515SOL    HW1 3442   9.734   1.799   1.101
  515SOL    HW2 3443   9.824   1.804   1.222
  516SOL     OW 3444   7.484   4.183   6.738
  516SOL    HW1 3445   7.475   4.270   6.776
  516SOL    HW2 3446   7.452   4.191   6.649
  517SOL     OW 3447   3.480  13.054   1.600
  517SOL    HW1 3448   3.491  12.987   1.666
  517SOL    HW2 3449   3.539  13.028   1.529
  518SOL     OW 3450   2.581   8.709  14.533
  518SOL    HW1 3451   2.553   8.623  14.564
  518SOL    HW2 3452   2.518   8.731  14.463
  519SOL     OW 3453  12.423   6.255  11.847
  519SOL    HW1 3454  12.484   6.292  11.911
  519SOL    HW2 3455  12.474   6.189  11.800
  520SOL     OW 3456  13.434   4.998  14.496
  520SOL    HW1 3457  13.461   5.088  14.510
  520SOL    HW2 3458  13.497   4.963  14.434
  521SOL     OW 3459  12.002   0.842   4.774
  521SOL    HW1 3460  11.924   0.885   4.809
  521SOL    HW2 3461  12.052   0.815   4.851
  522SOL     OW 3462   8.370   3.831   2.222
  522SOL    HW1 3463   8.438   3.766   2.205
  522SOL    HW2 3464   8.337   3.854   2.136
  523SOL     OW 3465   7.860  11.851   8.894
  523SOL    HW1 3466   7.861  11.946   8.882
  523SOL    HW2 3467   7.795  11.820   8.832
  524SOL     OW 3468  10.349   5.802   0.568
  524SOL    HW1 3469  10.393   5.807   0.483
  524SOL    HW2 3470  10.295   5.881   0.572
  525SOL     OW 3471   6.336   2.975  10.926
  525SOL    HW1 3472   6.241   2.978  10.937
  525SOL    HW2 3473   6.371   3.029  10.998
  526SOL     OW 3474   9.084  10.365   2.642
  526SOL    HW1 3475   9.086  10.285   2.695
  526SOL    HW2 3476   9.103  10.335   2.553
  527SOL     OW 3477   1.872   8.333   9.202
  527SOL    HW1 3478   1.788   8.355   9.241
  527SOL    HW2 3479   1.929   8.406   9.226
  528SOL     OW 3480   0.961   5.693   1.177
  528SOL    HW1 3481   0.912   5.747   1.239
  528SOL    HW2 3482   1.030   5.750   1.144
  529SOL     OW 3483   8.985   6.969   3.788
  529SOL    HW1 3484   9.037   6.956   3.708
  529SOL    HW2 3485   9.035   7.034   3.838
  530SOL     OW 3486   4.901  14.315   3.633
  530SOL    HW1 3487   4.959  14.345   3.703
  530SOL    HW2 3488   4.935  14.358   3.554
  531SOL     OW 3489   2.008  12.375   4.121
  531SOL    HW1 3490   1.970  12.291   4.093
  531SOL    HW2 3491   2.024  12.422   4.040
  532SOL     OW 3492  13.867   5.686   3.848
  532SOL    HW1 3493  13.961   5.685   3.867
  532SOL    HW2 3494  13.839   5.596   3.862
  533SOL     OW 3495  11.602  14.145   0.991
  533SOL    HW1 3496  11.639  14.086   1.057
  533SOL    HW2 3497  11.507  14.141   1.005
  534SOL     OW 3498   9.649   1.773  10.222
  534SOL    HW1 3499   9.739   1.755  10.250
  534SOL    HW2 3500   9.597   1.705  10.265
  535SOL     OW 3501   5.949   7.176   2.289
  535SOL    HW1 3502   5.883   7.129   2.239
  535SOL    HW2 3503   5.909   7.190   2.375
  536SOL     OW 3504   0.406   8.430   0.364
  536SOL    HW1 3505   0.445   8.378   0.434
  536SOL    HW2 3506   0.396   8.369   0.291
  537SOL     OW 3507   4.956   6.512   5.817
  537SOL    HW1 3508   4.989   6.495   5.729
  537SOL    HW2 3509   5.019   6.469   5.874
  538SOL     OW 3510   4.285   3.765   5.352
  538SOL    HW1 3511   4.251   3.830   5.414
  538SOL    HW2 3512   4.259   3.681   5.390
  539SOL     OW 3513   0.819   7.490  14.377
  539SOL    HW1 3514   0.799   7.461  14.288
  539SOL    HW2 3515   0.741   7.469  14.428
  540SOL     OW 3516   2.664   1.536   3.259
  540SOL    HW1 3517   2.683   1.570   3.172
  540SOL    HW2 3518   2.749   1.508   3.293
  541SOL     OW 3519   5.491   1.177  11.460
  541SOL    HW1 3520   5.556   1.178  11.390
  541SOL    HW2 3521   5.481   1.269  11.485
  542SOL     OW 3522   7.759  13.813  10.072
  542SOL    HW1 3523   7.766  13.736  10.015
  542SOL    HW2 3524   7.827  13.873  10.040
  543SOL     OW 3525  12.366   2.621   2.134
  543SOL    HW1 3526  12.279   2.600   2.169
  543SOL    HW2 3527  12.422   2.630   2.211
  544SOL     OW 3528   2.198  11.624   8.999
  544SOL    HW1 3529   2.280  11.582   9.026
  544SOL    HW2 3530   2.225  11.707   8.960
  545SOL     OW 3531   6.397   3.236  13.788
  545SOL    HW1 3532   6.366   3.327  13.792
  545SOL    HW2 3533   6.492   3.242  13.800
  546SOL     OW 3534  13.660   6.775   6.597
  546SOL    HW1 3535  13.702   6.821   6.669
  546SOL    HW2 3536  13.669   6.834   6.522
  547SOL     OW 3537  12.943  11.891  10.256
  547SOL    HW1 3538  13.028  11.909  10.295
  547SOL    HW2 3539  12.880  11.918  10.323
  548SOL     OW 3540   2.832   2.752   2.761
  548SOL    HW1 3541   2.883   2.677   2.731
  548SOL    HW2 3542   2.892   2.800   2.817
  549SOL     OW 3543   0.575   4.746   3.093
  549SOL    HW1 3544   0.655   4.797   3.082
  549SOL    HW2 3545   0.605   4.658   3.118
  550SOL     OW 3546   4.206   0.323   5.353
  550SOL    HW1 3547   4.200   0.269   5.274
  550SOL    HW2 3548   4.284   0.377   5.339
  551SOL     OW 3549  13.872  13.445  13.774
  551SOL    HW1 3550  13.826  13.485  13.847
  551SOL    HW2 3551  13.940  13.507  13.751
  552SOL     OW 3552   6.600   7.787   7.226
  552SOL    HW1 3553   6.567   7.736   7.301
  552SOL    HW2 3554   6.695   7.782   7.233
  553SOL     OW 3555   0.115  12.240  10.156
  553SOL    HW1 3556   0.077  12.249  10.069
  553SOL    HW2 3557   0.049  12.277  10.215
  554SOL     OW 3558  12.565   2.665  14.347
  554SOL    HW1 3559  12.554   2.685  14.440
  554SOL    HW2 3560  12.507   2.726  14.302
  555SOL     OW 3561  14.088   9.454   9.066
  555SOL    HW1 3562  14.168   9.465   9.015
  555SOL    HW2 3563  14.071   9.359   9.065
  556SOL     OW 3564   7.012   4.961  12.777
  556SOL    HW1 3565   7.037   5.003  12.859
  556SOL    HW2 3566   6.973   5.032  12.725
  557SOL     OW 3567  11.688  11.749   9.639
  557SOL    HW1 3568  11.634  11.783   9.568
  557SOL    HW2 3569  11.725  11.826   9.680
  558SOL     OW 3570   1.837   0.378   3.293
  558SOL    HW1 3571   1.744   0.361   3.275
  558SOL    HW2 3572   1.838   0.467   3.329
  559SOL     OW 3573   8.498   1.452   3.371
  559SOL    HW1 3574   8.448   1.469   3.450
  559SOL    HW2 3575   8.547   1.533   3.356
  560SOL     OW 3576   1.963  12.048  10.346
  560SOL    HW1 3577   1.968  12.079  10.437
  560SOL    HW2 3578   1.885  12.089  10.310
  561SOL     OW 3579  13.213   6.101   3.701
  561SOL    HW1 3580  13.185   6.178   3.750
  561SOL    HW2 3581  13.268   6.136   3.630
  562SOL     OW 3582  10.150  12.012   8.809
  562SOL    HW1 3583  10.242  12.039   8.814
  562SOL    HW2 3584  10.109  12.051   8.886
  563SOL     OW 3585   9.327   1.955  13.505
  563SOL    HW1 3586   9.344   1.861  13.509
  563SOL    HW2 3587   9.370   1.991  13.583
  564SOL     OW 3588  12.697   8.018   6.576
  564SOL    HW1 3589  12.649   7.987   6.499
  564SOL    HW2 3590  12.789   7.998   6.556
  565SOL     OW 3591  10.384  14.090  13.880
  565SOL    HW1 3592  10.409  14.135  13.961
  565SOL    HW2 3593  10.294  14.119  13.863
  566SOL     OW 3594  13.855   1.006   5.273
  566SOL    HW1 3595  13.932   1.020   5.219
  566SOL    HW2 3596  13.788   1.063   5.235
  567SOL     OW 3597   7.126  10.561   5.049
  567SOL    HW1 3598   7.145  10.496   4.982
  567SOL    HW2 3599   7.213  10.594   5.075
  568SOL     OW 3600   9.790   1.576  14.322
  568SOL    HW1 3601   9.840   1.647  14.363
  568SOL    HW2 3602   9.712   1.619  14.287
  569SOL     OW 3603  10.094  13.384   7.353
  569SOL    HW1 3604  10.030  13.435   7.402
  569SOL    HW2 3605  10.148  13.449   7.308
  570SOL     OW 3606   2.140   8.049   6.526
  570SOL    HW1 3607   2.211   8.000   6.486
  570SOL    HW2 3608   2.079   7.982   6.558
  571SOL     OW 3609   0.707  13.940   3.397
  571SOL    HW1 3610   0.772  13.873   3.418
  571SOL    HW2 3611   0.733  14.016   3.450
  572SOL     OW 3612  11.256  13.148   9.361
  572SOL    HW1 3613  11.251  13.053   9.360
  572SOL    HW2 3614  11.165  13.177   9.354
  573SOL     OW 3615   0.422   0.390   6.134
  573SOL    HW1 3616   0.473   0.339   6.072
  573SOL    HW2 3617   0.478   0.399   6.211
  574SOL     OW 3618  14.372   7.521  10.593
  574SOL    HW1 3619  14.430   7.538  10.667
  574SOL    HW2 3620  14.431   7.503  10.520
  575SOL     OW 3621  13.907  11.878   9.664
  575SOL    HW1 3622  13.935  11.823   9.591
  575SOL    HW2 3623  13.948  11.838   9.741
  576SOL     OW 3624  13.043   8.699   7.258
  576SOL    HW1 3625  13.035   8.773   7.198
  576SOL    HW2 3626  12.961   8.698   7.307
  577SOL     OW 3627  13.106   4.834   2.676
  577SOL    HW1 3628  13.167   4.813   2.605
  577SOL    HW2 3629  13.022   4.846   2.633
  578SOL     OW 3630   4.702  12.772   4.069
  578SOL    HW1 3631   4.716  12.787   4.163
  578SOL    HW2 3632   4.791  12.763   4.033
  579SOL     OW 3633   6.283   5.060   1.545
  579SOL    HW1 3634   6.226   5.125   1.587
  579SOL    HW2 3635   6.371   5.086   1.570
  580SOL     OW 3636  12.591   4.109   0.198
  580SOL    HW1 3637  12.518   4.155   0.239
  580SOL    HW2 3638  12.669   4.145   0.239
  581SOL     OW 3639   5.124   5.135  14.085
  581SOL    HW1 3640   5.058   5.154  14.018
  581SOL    HW2 3641   5.201   5.108  14.035
  582SOL     OW 3642  13.312   1.484   3.480
  582SOL    HW1 3643  13.266   1.565   3.456
  582SOL    HW2 3644  13.254   1.414   3.452
  583SOL     OW 3645   9.308   1.686  13.799
  583SOL    HW1 3646   9.282   1.633  13.874
  583SOL    HW2 3647   9.386   1.643  13.764
  584SOL     OW 3648  12.276   1.630   9.127
  584SOL    HW1 3649  12.302   1.665   9.213
  584SOL    HW2 3650  12.358   1.622   9.079
  585SOL     OW 3651  10.465   9.458   5.629
  585SOL    HW1 3652  10.486   9.392   5.695
  585SOL    HW2 3653  10.434   9.408   5.554
  586SOL     OW 3654   8.513   7.852   9.675
  586SOL    HW1 3655   8.473   7.895   9.751
  586SOL    HW2 3656   8.606   7.871   9.683
  587SOL     OW 3657   3.057   9.169   6.855
  587SOL    HW1 3658   3.078   9.196   6.944
  587SOL    HW2 3659   2.992   9.233   6.825
  588SOL     OW 3660   6.311   3.608   8.725
  588SOL    HW1 3661   6.376   3.663   8.770
  588SOL    HW2 3662   6.361   3.536   8.688
  589SOL     OW 3663   5.213   2.940   8.997
  589SOL    HW1 3664   5.174   2.883   9.065
  589SOL    HW2 3665   5.155   2.930   8.922
  590SOL     OW 3666  13.129   2.613  11.685
  590SOL    HW1 3667  13.054   2.627  11.743
  590SOL    HW2 3668  13.104   2.655  11.602
  591SOL     OW 3669  11.402   3.578  10.424
  591SOL    HW1 3670  11.315   3.551  10.453
  591SOL    HW2 3671  11.435   3.631  10.497
  592SOL     OW 3672   8.091  10.164   9.690
  592SOL    HW1 3673   8.026  10.232   9.707
  592SOL    HW2 3674   8.083  10.104   9.764
  593SOL     OW 3675  10.183   8.264  14.815
  593SOL    HW1 3676  10.114   8.213  14.771
  593SOL    HW2 3677  10.146   8.286   0.025
  594SOL     OW 3678   9.849  13.083   6.079
  594SOL    HW1 3679   9.909  13.010   6.095
  594SOL    HW2 3680   9.811  13.102   6.165
  595SOL     OW 3681  14.713   9.390   9.830
  595SOL    HW1 3682  14.650   9.418   9.897
  595SOL    HW2 3683  14.681   9.305   9.802
  596SOL     OW 3684   8.730   4.439   9.122
  596SOL    HW1 3685   8.657   4.501   9.129
  596SOL    HW2 3686   8.701   4.376   9.056
  597SOL     OW 3687   1.698   3.279  10.816
  597SOL    HW1 3688   1.665   3.316  10.897
  597SOL    HW2 3689   1.708   3.354  10.757
  598SOL     OW 3690   6.946   0.361  11.768
  598SOL    HW1 3691   6.930   0.293  11.703
  598SOL    HW2 3692   6.859   0.398  11.786
  599SOL     OW 3693  13.217  14.570   3.704
  599SOL    HW1 3694  13.252  14.659   3.703
  599SOL    HW2 3695  13.229  14.541   3.795
  600SOL     OW 3696  10.115  12.975   7.038
  600SOL    HW1 3697  10.143  13.055   7.084
  600SOL    HW2 3698  10.191  12.951   6.985
  601SOL     OW 3699  11.376  11.537  13.294
  601SOL    HW1 3700  11.321  11.506  13.221
  601SOL    HW2 3701  11.465  11.536  13.259
  602SOL     OW 3702   6.703   1.548  10.557
  602SOL    HW1 3703   6.732   1.464  10.521
  602SOL    HW2 3704   6.611   1.533  10.580
  603SOL     OW 3705   4.283   0.549   7.388
  603SOL    HW1 3706   4.239   0.545   7.473
  603SOL    HW2 3707   4.226   0.603   7.334
  604SOL     OW 3708   2.020   6.635   8.918
  604SOL    HW1 3709   1.954   6.567   8.932
  604SOL    HW2 3710   2.026   6.679   9.003
  605SOL     OW 3711   9.279   1.040   6.907
  605SOL    HW1 3712   9.261   1.090   6.986
  605SOL    HW2 3713   9.209   1.064   6.846
  606SOL     OW 3714   0.666   9.371   5.868
  606SOL    HW1 3715   0.616   9.438   5.820
  606SOL    HW2 3716   0.640   9.288   5.828
  607SOL     OW 3717  14.041   7.603  10.202
  607SOL    HW1 3718  14.077   7.514  10.198
  607SOL    HW2 3719  14.117   7.660  10.212
  608SOL     OW 3720   0.054   6.677  10.344
  608SOL    HW1 3721   0.061   6.748  10.407
  608SOL    HW2 3722  14.835   6.672  10.324
  609SOL     OW 3723   2.241   2.691   8.993
  609SOL    HW1 3724   2.236   2.611   9.046
  609SOL    HW2 3725   2.185   2.754   9.039
  610SOL     OW 3726   4.261  14.058  13.533
  610SOL    HW1 3727   4.309  14.104  13.602
  610SOL    HW2 3728   4.322  14.053  13.460
  611SOL     OW 3729   7.719   9.609  13.411
  611SOL    HW1 3730   7.657   9.536  13.411
  611SOL    HW2 3731   7.803   9.569  13.388
  612SOL     OW 3732  13.139   5.787   7.094
  612SOL    HW1 3733  13.190   5.862   7.063
  612SOL    HW2 3734  13.162   5.716   7.033
  613SOL     OW 3735   7.643   6.054  10.954
  613SOL    HW1 3736   7.569   6.022  11.005
  613SOL    HW2 3737   7.619   6.143  10.929
  614SOL     OW 3738   6.954   5.043   5.933
  614SOL    HW1 3739   6.946   4.974   5.867
  614SOL    HW2 3740   6.928   5.001   6.015
  615SOL     OW 3741   5.125   5.987  10.671
  615SOL    HW1 3742   5.168   6.055  10.619
  615SOL    HW2 3743   5.050   6.030  10.712
  616SOL     OW 3744  13.993  13.522  10.384
  616SOL    HW1 3745  13.970  13.477  10.302
  616SOL    HW2 3746  13.978  13.615  10.365
  617SOL     OW 3747  13.075   7.902   4.508
  617SOL    HW1 3748  13.103   7.919   4.418
  617SOL    HW2 3749  12.990   7.945   4.515
  618SOL     OW 3750   5.503  12.950  13.024
  618SOL    HW1 3751   5.487  12.950  12.930
  618SOL    HW2 3752   5.557  12.872  13.039
  619SOL     OW 3753  11.476   8.044  14.759
  619SOL    HW1 3754  11.461   8.139  14.751
  619SOL    HW2 3755  11.389   8.007  14.771
  620SOL     OW 3756   8.677  13.053   0.019
  620SOL    HW1 3757   8.666  13.146   0.039
  620SOL    HW2 3758   8.650  13.045  14.803
  621SOL     OW 3759   7.081  10.483   8.350
  621SOL    HW1 3760   7.038  10.400   8.329
  621SOL    HW2 3761   7.009  10.546   8.355
  622SOL     OW 3762   6.753   3.686   1.554
  622SOL    HW1 3763   6.798   3.636   1.485
  622SOL    HW2 3764   6.666   3.703   1.518
  623SOL     OW 3765  13.275   6.149   1.163
  623SOL    HW1 3766  13.278   6.167   1.069
  623SOL    HW2 3767  13.226   6.223   1.200
  624SOL     OW 3768   1.888   8.290   1.538
  624SOL    HW1 3769   1.884   8.272   1.632
  624SOL    HW2 3770   1.975   8.258   1.512
  625SOL     OW 3771   6.260  14.693  11.992
  625SOL    HW1 3772   6.233  14.742  11.915
  625SOL    HW2 3773   6.224  14.606  11.980
  626SOL     OW 3774   6.576   2.701   4.823
  626SOL    HW1 3775   6.563   2.793   4.800
  626SOL    HW2 3776   6.658   2.700   4.871
  627SOL     OW 3777   9.105   2.609   7.905
  627SOL    HW1 3778   9.152   2.639   7.827
  627SOL    HW2 3779   9.069   2.689   7.943
  628SOL     OW 3780  10.310  14.532   6.023
  628SOL    HW1 3781  10.240  14.553   5.961
  628SOL    HW2 3782  10.367  14.472   5.975
  629SOL     OW 3783   5.371   8.139  14.647
  629SOL    HW1 3784   5.297   8.135  14.707
  629SOL    HW2 3785   5.346   8.207  14.584
  630SOL     OW 3786   2.380   3.146  10.892
  630SOL    HW1 3787   2.399   3.228  10.936
  630SOL    HW2 3788   2.457   3.129  10.838
  631SOL     OW 3789  13.021   1.503  13.271
  631SOL    HW1 3790  12.969   1.423  13.278
  631SOL    HW2 3791  13.101   1.476  13.226
  632SOL     OW 3792   8.018   8.086   1.124
  632SOL    HW1 3793   8.031   7.996   1.095
  632SOL    HW2 3794   8.104   8.128   1.114
  633SOL     OW 3795  13.519   0.248   1.419
  633SOL    HW1 3796  13.498   0.231   1.328
  633SOL    HW2 3797  13.518   0.162   1.461
  634SOL     OW 3798   4.639   0.960   9.577
  634SOL    HW1 3799   4.547   0.985   9.568
  634SOL    HW2 3800   4.637   0.879   9.629
  635SOL     OW 3801  10.325  11.721   9.420
  635SOL    HW1 3802  10.301  11.682   9.336
  635SOL    HW2 3803  10.421  11.716   9.422
  636SOL     OW 3804   4.460   0.830  14.360
  636SOL    HW1 3805   4.412   0.808  14.280
  636SOL    HW2 3806   4.393   0.831  14.428
  637SOL     OW 3807   4.398   0.965   1.105
  637SOL    HW1 3808   4.339   0.924   1.042
  637SOL    HW2 3809   4.446   1.030   1.054
  638SOL     OW 3810   4.274   7.990   4.267
  638SOL    HW1 3811   4.357   8.025   4.234
  638SOL    HW2 3812   4.293   7.965   4.357
  639SOL     OW 3813   5.210  12.060   1.411
  639SOL    HW1 3814   5.188  12.151   1.393
  639SOL    HW2 3815   5.287  12.064   1.467
  640SOL     OW 3816  11.752   2.404   7.614
  640SOL    HW1 3817  11.788   2.316   7.604
  640SOL    HW2 3818  11.828   2.459   7.634
  641SOL     OW 3819   7.423  14.286   5.219
  641SOL    HW1 3820   7.345  14.238   5.191
  641SOL    HW2 3821   7.438  14.349   5.148
  642SOL     OW 3822  12.672  12.113  13.563
  642SOL    HW1 3823  12.761  12.131  13.532
  642SOL    HW2 3824  12.683  12.054  13.637
  643SOL     OW 3825   0.575  13.163  10.862
  643SOL    HW1 3826   0.590  13.212  10.943
  643SOL    HW2 3827   0.513  13.217  10.812
  644SOL     OW 3828   8.305   7.583  12.672
  644SOL    HW1 3829   8.339   7.510  12.620
  644SOL    HW2 3830   8.284   7.544  12.757
  645SOL     OW 3831   2.148  10.580   8.360
  645SOL    HW1 3832   2.166  10.569   8.454
  645SOL    HW2 3833   2.116  10.670   8.352
  646SOL     OW 3834   8.141   3.856   6.382
  646SOL    HW1 3835   8.168   3.880   6.471
  646SOL    HW2 3836   8.167   3.764   6.373
  647SOL     OW 3837   7.211   2.046   3.459
  647SOL    HW1 3838   7.276   2.081   3.521
  647SOL    HW2 3839   7.261   2.032   3.378
  648SOL     OW 3840   0.238   5.677   8.643
  648SOL    HW1 3841   0.199   5.733   8.710
  648SOL    HW2 3842   0.271   5.737   8.577
  649SOL     OW 3843   5.004  12.040   2.449
  649SOL    HW1 3844   4.925  12.008   2.406
  649SOL    HW2 3845   5.070  11.973   2.432
  650SOL     OW 3846   9.223   5.913   1.966
  650SOL    HW1 3847   9.158   5.894   1.899
  650SOL    HW2 3848   9.222   6.008   1.974
  651SOL     OW 3849   0.634  13.910  12.826
  651SOL    HW1 3850   0.723  13.912  12.863
  651SOL    HW2 3851   0.620  13.999  12.794
  652SOL     OW 3852   7.092  12.529  10.612
  652SOL    HW1 3853   7.167  12.492  10.659
  652SOL    HW2 3854   7.117  12.620  10.595
  653SOL     OW 3855   6.075   6.871   4.207
  653SOL    HW1 3856   5.998   6.841   4.254
  653SOL    HW2 3857   6.132   6.908   4.275
  654SOL     OW 3858  10.063   2.854   8.209
  654SOL    HW1 3859  10.143   2.828   8.163
  654SOL    HW2 3860  10.088   2.857   8.301
  655SOL     OW 3861   6.573   4.143  10.968
  655SOL    HW1 3862   6.661   4.113  10.992
  655SOL    HW2 3863   6.587   4.202  10.895
  656SOL     OW 3864   8.258   2.074  11.115
  656SOL    HW1 3865   8.229   1.992  11.075
  656SOL    HW2 3866   8.267   2.054  11.208
  657SOL     OW 3867   0.388  14.029  10.752
  657SOL    HW1 3868   0.448  14.103  10.739
  657SOL    HW2 3869   0.348  14.044  10.838
  658SOL     OW 3870  13.886   6.666   5.202
  658SOL    HW1 3871  13.893   6.706   5.288
  658SOL    HW2 3872  13.830   6.590   5.215
  659SOL     OW 3873   5.299  10.347  14.789
  659SOL    HW1 3874   5.214  10.338  14.833
  659SOL    HW2 3875   5.278  10.338  14.696
  660SOL     OW 3876  14.166   5.179   1.038
  660SOL    HW1 3877  14.216   5.261   1.044
  660SOL    HW2 3878  14.123   5.184   0.952
  661SOL     OW 3879   3.580  12.650   4.917
  661SOL    HW1 3880   3.495  12.616   4.946
  661SOL    HW2 3881   3.566  12.744   4.906
  662SOL     OW 3882   6.425   5.450  11.956
  662SOL    HW1 3883   6.341   5.406  11.970
  662SOL    HW2 3884   6.443   5.493  12.040
  663SOL     OW 3885  12.075   6.290  13.942
  663SOL    HW1 3886  12.156   6.314  13.987
  663SOL    HW2 3887  12.083   6.195  13.928
  664SOL     OW 3888   2.283   4.075   9.294
  664SOL    HW1 3889   2.228   4.051   9.220
  664SOL    HW2 3890   2.330   3.994   9.316
  665SOL     OW 3891   0.931  11.081  14.145
  665SOL    HW1 3892   0.889  11.166  14.162
  665SOL    HW2 3893   1.025  11.099  14.147
  666SOL     OW 3894   4.378   3.679  13.747
  666SOL    HW1 3895   4.341   3.611  13.804
  666SOL    HW2 3896   4.311   3.694  13.681
  667SOL     OW 3897  13.572   6.150   0.932
  667SOL    HW1 3898  13.618   6.215   0.880
  667SOL    HW2 3899  13.481   6.178   0.931
  668SOL     OW 3900   8.750   1.336  13.701
  668SOL    HW1 3901   8.789   1.402  13.644
  668SOL    HW2 3902   8.682   1.384  13.750
  669SOL     OW 3903   9.014   3.766   2.069
  669SOL    HW1 3904   9.067   3.810   2.002
  669SOL    HW2 3905   9.067   3.771   2.149
  670SOL     OW 3906   4.181   8.099   9.225
  670SOL    HW1 3907   4.089   8.090   9.204
  670SOL    HW2 3908   4.220   8.017   9.197
  671SOL     OW 3909   4.902  13.173   0.136
  671SOL    HW1 3910   4.844  13.212   0.071
  671SOL    HW2 3911   4.846  13.113   0.186
  672SOL     OW 3912   5.157   3.674  14.516
  672SOL    HW1 3913   5.141   3.721  14.598
  672SOL    HW2 3914   5.094   3.711  14.454
  673SOL     OW 3915  12.768   0.361   9.337
  673SOL    HW1 3916  12.834   0.410   9.385
  673SOL    HW2 3917  12.687   0.410   9.351
  674SOL     OW 3918   8.794   4.662  10.785
  674SOL    HW1 3919   8.738   4.716  10.841
  674SOL    HW2 3920   8.733   4.613  10.729
  675SOL     OW 3921   2.437   2.624  13.759
  675SOL    HW1 3922   2.499   2.569  13.807
  675SOL    HW2 3923   2.491   2.669  13.694
  676SOL     OW 3924   6.902   3.090   5.749
  676SOL    HW1 3925   6.854   3.054   5.675
  676SOL    HW2 3926   6.952   3.163   5.712
  677SOL     OW 3927   6.873  12.858   4.809
  677SOL    HW1 3928   6.919  12.878   4.891
  677SOL    HW2 3929   6.842  12.943   4.778
  678SOL     OW 3930   4.355   9.542  14.637
  678SOL    HW1 3931   4.362   9.619  14.580
  678SOL    HW2 3932   4.421   9.557  14.705
  679SOL     OW 3933   6.991   2.018  14.110
  679SOL    HW1 3934   6.908   2.025  14.062
  679SOL    HW2 3935   6.995   1.927  14.138
  680SOL     OW 3936   9.310  12.335   5.305
  680SOL    HW1 3937   9.339  12.286   5.382
  680SOL    HW2 3938   9.388  12.339   5.249
  681SOL     OW 3939   5.096  13.147   6.141
  681SOL    HW1 3940   5.080  13.212   6.072
  681SOL    HW2 3941   5.010  13.111   6.160
  682SOL     OW 3942  13.229   2.829   6.858
  682SOL    HW1 3943  13.266   2.750   6.818
  682SOL    HW2 3944  13.213   2.805   6.949
  683SOL     OW 3945   5.702   8.110   8.393
  683SOL    HW1 3946   5.712   8.205   8.406
  683SOL    HW2 3947   5.660   8.103   8.307
  684SOL     OW 3948   3.598   0.650  12.522
  684SOL    HW1 3949   3.612   0.557  12.502
  684SOL    HW2 3950   3.504   0.657  12.537
  685SOL     OW 3951   8.725   4.877  13.560
  685SOL    HW1 3952   8.639   4.842  13.536
  685SOL    HW2 3953   8.769   4.804  13.604
  686SOL     OW 3954  14.409   8.141  11.385
  686SOL    HW1 3955  14.467   8.170  11.315
  686SOL    HW2 3956  14.348   8.215  11.398
  687SOL     OW 3957   4.366   5.012   9.279
  687SOL    HW1 3958   4.411   5.001   9.362
  687SOL    HW2 3959   4.403   5.092   9.242
  688SOL     OW 3960   3.770   9.884   6.481
  688SOL    HW1 3961   3.692   9.839   6.450
  688SOL    HW2 3962   3.784   9.955   6.418
  689SOL     OW 3963   9.642  14.497   5.036
  689SOL    HW1 3964   9.575  14.554   5.073
  689SOL    HW2 3965   9.595  14.444   4.971
  690SOL     OW 3966   6.490   3.396   0.382
  690SOL    HW1 3967   6.560   3.433   0.435
  690SOL    HW2 3968   6.514   3.304   0.372
  691SOL     OW 3969   5.026   4.245  14.441
  691SOL    HW1 3970   4.971   4.198  14.378
  691SOL    HW2 3971   5.008   4.338  14.423
  692SOL     OW 3972  11.008   1.013  11.957
  692SOL    HW1 3973  11.054   0.943  12.003
  692SOL    HW2 3974  10.923   0.975  11.933
  693SOL     OW 3975  12.518   1.942   4.455
  693SOL    HW1 3976  12.497   2.034   4.474
  693SOL    HW2 3977  12.502   1.932   4.362
  694SOL     OW 3978   9.348   4.573   4.026
  694SOL    HW1 3979   9.387   4.626   4.095
  694SOL    HW2 3980   9.266   4.617   4.005
  695SOL     OW 3981  12.728   9.605   1.640
  695SOL    HW1 3982  12.792   9.662   1.684
  695SOL    HW2 3983  12.701   9.656   1.564
  696SOL     OW 3984   7.377   0.185   0.605
  696SOL    HW1 3985   7.310   0.219   0.665
  696SOL    HW2 3986   7.365   0.237   0.525
  697SOL     OW 3987   2.955  14.681   0.714
  697SOL    HW1 3988   2.944  14.597   0.759
  697SOL    HW2 3989   3.001  14.736   0.777
  698SOL     OW 3990  10.568   0.167   4.915
  698SOL    HW1 3991  10.565   0.072   4.907
  698SOL    HW2 3992  10.486   0.197   4.877
  699SOL     OW 3993  11.503  13.225   1.964
  699SOL    HW1 3994  11.445  13.180   1.903
  699SOL    HW2 3995  11.475  13.196   2.050
  700SOL     OW 3996   4.575   4.470   4.427
  700SOL    HW1 3997   4.536   4.488   4.512
  700SOL    HW2 3998   4.501   4.468   4.366
  701SOL     OW 3999   6.104  14.115   7.209
  701SOL    HW1 4000   6.078  14.110   7.301
  701SOL    HW2 4001   6.134  14.205   7.198
  702SOL     OW 4002   0.738   6.785  12.186
  702SOL    HW1 4003   0.676   6.790  12.259
  702SOL    HW2 4004   0.686   6.752  12.112
  703SOL     OW 4005   6.635   3.661   3.835
  703SOL    HW1 4006   6.594   3.584   3.873
  703SOL    HW2 4007   6.725   3.633   3.814
  704SOL     OW 4008  12.870  12.901   3.819
  704SOL    HW1 4009  12.835  12.982   3.856
  704SOL    HW2 4010  12.963  12.904   3.840
  705SOL     OW 4011   0.520   2.690   1.761
  705SOL    HW1 4012   0.471   2.622   1.714
  705SOL    HW2 4013   0.596   2.645   1.798
  706SOL     OW 4014   6.408  13.601  10.567
  706SOL    HW1 4015   6.452  13.650  10.497
  706SOL    HW2 4016   6.456  13.519  10.573
  707SOL     OW 4017   4.925   2.356   0.937
  707SOL    HW1 4018   4.993   2.361   0.870
  707SOL    HW2 4019   4.900   2.447   0.953
  708SOL     OW 4020   7.689   7.292   3.243
  708SOL    HW1 4021   7.784   7.301   3.241
  708SOL    HW2 4022   7.656   7.373   3.205
  709SOL     OW 4023   6.794   7.271  10.475
  709SOL    HW1 4024   6.835   7.354  10.450
  709SOL    HW2 4025   6.837   7.248  10.557
  710SOL     OW 4026   6.340   0.324   4.918
  710SOL    HW1 4027   6.300   0.407   4.892
  710SOL    HW2 4028   6.310   0.261   4.853
  711SOL     OW 4029   4.312  14.802  10.112
  711SOL    HW1 4030   4.341  14.748  10.185
  711SOL    HW2 4031   4.227  14.836  10.140
  712SOL     OW 4032  12.601  12.562  13.752
  712SOL    HW1 4033  12.689  12.539  13.781
  712SOL    HW2 4034  12.545  12.494  13.790
  713SOL     OW 4035  12.100   4.547  14.684
  713SOL    HW1 4036  12.180   4.503  14.712
  713SOL    HW2 4037  12.031   4.509  14.738
  714SOL     OW 4038   1.248  14.163  12.866
  714SOL    HW1 4039   1.252  14.072  12.835
  714SOL    HW2 4040   1.266  14.158  12.960
  715SOL     OW 4041   7.521   9.289   8.477
  715SOL    HW1 4042   7.588   9.352   8.451
  715SOL    HW2 4043   7.564   9.234   8.542
  716SOL     OW 4044   7.680   4.326   7.083
  716SOL    HW1 4045   7.650   4.240   7.112
  716SOL    HW2 4046   7.737   4.308   7.009
  717SOL     OW 4047  11.561   8.922  12.555
  717SOL    HW1 4048  11.520   8.835  12.552
  717SOL    HW2 4049  11.597   8.928  12.644
  718SOL     OW 4050   2.032  13.246  14.763
  718SOL    HW1 4051   1.940  13.267  14.749
  718SOL    HW2 4052   2.064  13.220  14.677
  719SOL     OW 4053   5.849  11.883  11.364
  719SOL    HW1 4054   5.890  11.915  11.445
  719SOL    HW2 4055   5.913  11.901  11.296
  720SOL     OW 4056  12.281   7.690   5.464
  720SOL    HW1 4057  12.314   7.755   5.403
  720SOL    HW2 4058  12.359   7.642   5.493
  721SOL     OW 4059   0.778   7.319  14.714
  721SOL    HW1 4060   0.782   7.394  14.773
  721SOL    HW2 4061   0.733   7.351  14.636
  722SOL     OW 4062  10.992   4.685   8.441
  722SOL    HW1 4063  10.987   4.779   8.423
  722SOL    HW2 4064  10.910   4.664   8.486
  723SOL     OW 4065   1.344  13.732   1.139
  723SOL    HW1 4066   1.293  13.773   1.209
  723SOL    HW2 4067   1.399  13.803   1.105
  724SOL     OW 4068   6.813   4.891   9.618
  724SOL    HW1 4069   6.887   4.941   9.652
  724SOL    HW2 4070   6.852   4.810   9.585
  725SOL     OW 4071   9.024  13.796  11.039
  725SOL    HW1 4072   9.097  13.736  11.022
  725SOL    HW2 4073   9.033  13.818  11.132
  726SOL     OW 4074   2.767   9.840  11.934
  726SOL    HW1 4075   2.697   9.835  11.869
  726SOL    HW2 4076   2.780   9.934  11.947
  727SOL     OW 4077  11.139   0.701  13.077
  727SOL    HW1 4078  11.135   0.790  13.111
  727SOL    HW2 4079  11.049   0.678  13.057
  728SOL     OW 4080   9.429   5.396  13.271
  728SOL    HW1 4081   9.470   5.481  13.254
  728SOL    HW2 4082   9.502   5.335  13.280
  729SOL     OW 4083  12.772   7.601   2.374
  729SOL    HW1 4084  12.733   7.514   2.361
  729SOL    HW2 4085  12.796   7.630   2.286
  730SOL     OW 4086  13.281   9.829  14.199
  730SOL    HW1 4087  13.213   9.844  14.265
  730SOL    HW2 4088  13.242   9.765  14.139
  731SOL     OW 4089   9.511  13.717   1.611
  731SOL    HW1 4090   9.594  13.738   1.653
  731SOL    HW2 4091   9.502  13.783   1.542
  732SOL     OW 4092  12.725   7.477  11.291
  732SOL    HW1 4093  12.771   7.561  11.286
  732SOL    HW2 4094  12.718   7.459  11.384
  733SOL     OW 4095   6.884   2.622   4.141
  733SOL    HW1 4096   6.864   2.695   4.083
  733SOL    HW2 4097   6.924   2.556   4.084
  734SOL     OW 4098  11.527   5.474   6.530
  734SOL    HW1 4099  11.596   5.527   6.569
  734SOL    HW2 4100  11.539   5.485   6.435
  735SOL     OW 4101   9.190   3.694  12.938
  735SOL    HW1 4102   9.129   3.698  13.012
  735SOL    HW2 4103   9.173   3.774  12.889
  736SOL     OW 4104   8.882   9.920   8.784
  736SOL    HW1 4105   8.843   9.980   8.848
  736SOL    HW2 4106   8.841   9.943   8.701
  737SOL     OW 4107  12.675   5.824   6.404
  737SOL    HW1 4108  12.675   5.751   6.466
  737SOL    HW2 4109  12.733   5.796   6.333
  738SOL     OW 4110   3.833   3.525  12.275
  738SOL    HW1 4111   3.850   3.615  12.302
  738SOL    HW2 4112   3.910   3.476  12.304
  739SOL     OW 4113   9.551   9.515  14.266
  739SOL    HW1 4114   9.492   9.461  14.214
  739SOL    HW2 4115   9.583   9.582  14.206
  740SOL     OW 4116   4.404   5.738   7.101
  740SOL    HW1 4117   4.334   5.767   7.041
  740SOL    HW2 4118   4.427   5.650   7.070
  741SOL     OW 4119  12.316   3.038  13.514
  741SOL    HW1 4120  12.361   3.112  13.472
  741SOL    HW2 4121  12.350   3.037  13.604
  742SOL     OW 4122   7.641   0.403  11.984
  742SOL    HW1 4123   7.618   0.496  11.971
  742SOL    HW2 4124   7.729   0.395  11.948
  743SOL     OW 4125   7.218   6.896  10.781
  743SOL    HW1 4126   7.293   6.863  10.730
  743SOL    HW2 4127   7.258   6.945  10.853
  744SOL     OW 4128   6.251   0.665   2.445
  744SOL    HW1 4129   6.199   0.681   2.366
  744SOL    HW2 4130   6.334   0.631   2.412
  745SOL     OW 4131   3.201   9.664   3.351
  745SOL    HW1 4132   3.205   9.594   3.285
  745SOL    HW2 4133   3.233   9.622   3.432
  746SOL     OW 4134   9.209   4.979  11.218
  746SOL    HW1 4135   9.204   4.952  11.310
  746SOL    HW2 4136   9.298   5.011  11.207
  747SOL     OW 4137   6.867  10.200   3.401
  747SOL    HW1 4138   6.914  10.266   3.452
  747SOL    HW2 4139   6.880  10.227   3.310
  748SOL     OW 4140   0.247   6.627   5.079
  748SOL    HW1 4141   0.270   6.559   5.143
  748SOL    HW2 4142   0.328   6.678   5.068
  749SOL     OW 4143   9.330   2.592   1.108
  749SOL    HW1 4144   9.295   2.681   1.116
  749SOL    HW2 4145   9.302   2.548   1.188
  750SOL     OW 4146  14.313   1.382  11.051
  750SOL    HW1 4147  14.348   1.306  11.005
  750SOL    HW2 4148  14.223   1.357  11.072
  751SOL     OW 4149  13.223   7.787   5.702
  751SOL    HW1 4150  13.258   7.718   5.645
  751SOL    HW2 4151  13.297   7.847   5.715
  752SOL     OW 4152  11.030  12.463  11.617
  752SOL    HW1 4153  11.105  12.521  11.632
  752SOL    HW2 4154  11.032  12.401  11.689
  753SOL     OW 4155   5.677   6.272   6.549
  753SOL    HW1 4156   5.628   6.232   6.477
  753SOL    HW2 4157   5.698   6.199   6.608
  754SOL     OW 4158   9.824   3.863   1.300
  754SOL    HW1 4159   9.730   3.846   1.292
  754SOL    HW2 4160   9.830   3.955   1.324
  755SOL     OW 4161   8.258   3.249  14.860
  755SOL    HW1 4162   8.314   3.172  14.869
  755SOL    HW2 4163   8.223   3.264   0.072
  756SOL     OW 4164   6.548  10.693   3.296
  756SOL    HW1 4165   6.530  10.786   3.284
  756SOL    HW2 4166   6.532  10.654   3.211
  757SOL     OW 4167   0.809   3.818   2.951
  757SOL    HW1 4168   0.806   3.817   2.855
  757SOL    HW2 4169   0.759   3.741   2.977
  758SOL     OW 4170   2.348  13.854  11.265
  758SOL    HW1 4171   2.312  13.869  11.352
  758SOL    HW2 4172   2.364  13.941  11.230
  759SOL     OW 4173  14.454  14.201   9.885
  759SOL    HW1 4174  14.493  14.246   9.961
  759SOL    HW2 4175  14.445  14.269   9.819
  760SOL     OW 4176   3.552  10.557   3.538
  760SOL    HW1 4177   3.489  10.617   3.498
  760SOL    HW2 4178   3.499  10.501   3.595
  761SOL     OW 4179  14.377   0.501   4.946
  761SOL    HW1 4180  14.285   0.526   4.932
  761SOL    HW2 4181  14.418   0.515   4.860
  762SOL     OW 4182  11.931  13.454  10.388
  762SOL    HW1 4183  11.948  13.447  10.482
  762SOL    HW2 4184  12.001  13.509  10.354
  763SOL     OW 4185   0.744   2.039   1.391
  763SOL    HW1 4186   0.785   2.003   1.312
  763SOL    HW2 4187   0.813   2.038   1.457
  764SOL     OW 4188   0.256   3.871  11.103
  764SOL    HW1 4189   0.219   3.799  11.052
  764SOL    HW2 4190   0.180   3.915  11.141
  765SOL     OW 4191   6.625  13.635  11.369
  765SOL    HW1 4192   6.616  13.553  11.417
  765SOL    HW2 4193   6.693  13.618  11.304
  766SOL     OW 4194  10.659  13.185   4.334
  766SOL    HW1 4195  10.696  13.172   4.247
  766SOL    HW2 4196  10.676  13.103   4.380
  767SOL     OW 4197   2.893   0.064   1.575
  767SOL    HW1 4198   2.857   0.089   1.490
  767SOL    HW2 4199   2.953   0.135   1.598
  768SOL     OW 4200  11.112  10.648  14.192
  768SOL    HW1 4201  11.166  10.593  14.249
  768SOL    HW2 4202  11.114  10.604  14.107
  769SOL     OW 4203   0.289   0.260   6.742
  769SOL    HW1 4204   0.214   0.314   6.768
  769SOL    HW2 4205   0.353   0.274   6.812
  770SOL     OW 4206  10.083  11.476   1.113
  770SOL    HW1 4207  10.053  11.411   1.050
  770SOL    HW2 4208  10.100  11.427   1.193
  771SOL     OW 4209   0.428   3.670   4.488
  771SOL    HW1 4210   0.352   3.676   4.429
  771SOL    HW2 4211   0.443   3.761   4.516
  772SOL     OW 4212   2.656  11.127  13.389
  772SOL    HW1 4213   2.655  11.036  13.419
  772SOL    HW2 4214   2.572  11.163  13.417
  773SOL     OW 4215  14.186   2.346   1.147
  773SOL    HW1 4216  14.212   2.394   1.227
  773SOL    HW2 4217  14.248   2.376   1.081
  774SOL     OW 4218   5.249  11.366   8.752
  774SOL    HW1 4219   5.223  11.368   8.660
  774SOL    HW2 4220   5.243  11.274   8.777
  775SOL     OW 4221  11.287  12.722  10.944
  775SOL    HW1 4222  11.193  12.710  10.930
  775SOL    HW2 4223  11.323  12.633  10.945
  776SOL     OW 4224   8.957   8.251   2.603
  776SOL    HW1 4225   9.019   8.205   2.659
  776SOL    HW2 4226   8.887   8.279   2.662
  777SOL     OW 4227   6.023  13.932   1.432
  777SOL    HW1 4228   6.050  13.947   1.341
  777SOL    HW2 4229   5.948  13.991   1.444
  778SOL     OW 4230   7.948   7.346   3.177
  778SOL    HW1 4231   8.037   7.380   3.191
  778SOL    HW2 4232   7.960   7.251   3.178
  779SOL     OW 4233   9.866  14.581   5.702
  779SOL    HW1 4234   9.833  14.523   5.633
  779SOL    HW2 4235   9.787  14.622   5.739
  780SOL     OW 4236   7.491  10.265  12.304
  780SOL    HW1 4237   7.431  10.197  12.334
  780SOL    HW2 4238   7.505  10.245  12.211
  781SOL     OW 4239   0.929   9.142   8.498
  781SOL    HW1 4240   0.990   9.168   8.428
  781SOL    HW2 4241   0.907   9.051   8.478
  782SOL     OW 4242  10.304   6.114   8.331
  782SOL    HW1 4243  10.315   6.128   8.237
  782SOL    HW2 4244  10.209   6.113   8.344
  783SOL     OW 4245   7.768   9.348   2.787
  783SOL    HW1 4246   7.695   9.405   2.812
  783SOL    HW2 4247   7.772   9.283   2.857
  784SOL     OW 4248  10.020   2.346   4.428
  784SOL    HW1 4249  10.038   2.392   4.346
  784SOL    HW2 4250   9.975   2.410   4.483
  785SOL     OW 4251   5.223  10.590   2.762
  785SOL    HW1 4252   5.187  10.557   2.680
  785SOL    HW2 4253   5.317  10.598   2.746
  786SOL     OW 4254  11.807   7.160   3.680
  786SOL    HW1 4255  11.814   7.234   3.620
  786SOL    HW2 4256  11.781   7.087   3.624
  787SOL     OW 4257   1.357  10.227   5.020
  787SOL    HW1 4258   1.294  10.279   4.970
  787SOL    HW2 4259   1.442  10.267   5.001
  788SOL     OW 4260   1.979  10.277  13.929
  788SOL    HW1 4261   1.930  10.203  13.895
  788SOL    HW2 4262   1.992  10.334  13.853
  789SOL     OW 4263   6.676   0.302   8.876
  789SOL    HW1 4264   6.611   0.366   8.849
  789SOL    HW2 4265   6.643   0.266   8.958
  790SOL     OW 4266  14.687   1.203  13.592
  790SOL    HW1 4267  14.697   1.214  13.497
  790SOL    HW2 4268  14.732   1.279  13.629
  791SOL     OW 4269   0.532  13.890  10.592
  791SOL    HW1 4270   0.613  13.851  10.623
  791SOL    HW2 4271   0.495  13.934  10.669
  792SOL     OW 4272  11.778   3.766   0.438
  792SOL    HW1 4273  11.843   3.750   0.369
  792SOL    HW2 4274  11.711   3.700   0.424
  793SOL     OW 4275   1.711  14.611  11.080
  793SOL    HW1 4276   1.725  14.519  11.057
  793SOL    HW2 4277   1.704  14.656  10.995
  794SOL     OW 4278   8.870   9.669   9.052
  794SOL    HW1 4279   8.920   9.645   8.974
  794SOL    HW2 4280   8.912   9.748   9.084
  795SOL     OW 4281   7.212   7.586  12.824
  795SOL    HW1 4282   7.191   7.634  12.904
  795SOL    HW2 4283   7.230   7.497  12.854
  796SOL     OW 4284   7.205  12.929   2.207
  796SOL    HW1 4285   7.232  12.927   2.299
  796SOL    HW2 4286   7.283  12.901   2.158
  797SOL     OW 4287   6.893   7.697   5.016
  797SOL    HW1 4288   6.967   7.727   5.069
  797SOL    HW2 4289   6.817   7.742   5.053
  798SOL     OW 4290   9.014   6.988  14.262
  798SOL    HW1 4291   8.936   7.003  14.315
  798SOL    HW2 4292   8.989   7.017  14.174
  799SOL     OW 4293  12.757  13.931  13.350
  799SOL    HW1 4294  12.697  14.004  13.354
  799SOL    HW2 4295  12.785  13.918  13.441
  800SOL     OW 4296   6.442  10.179   8.873
  800SOL    HW1 4297   6.387  10.208   8.800
  800SOL    HW2 4298   6.502  10.252   8.889
  801SOL     OW 4299  11.644   0.125  12.647
  801SOL    HW1 4300  11.646   0.029  12.648
  801SOL    HW2 4301  11.624   0.150  12.737
  802SOL     OW 4302   9.438   7.155  12.521
  802SOL    HW1 4303   9.351   7.185  12.494
  802SOL    HW2 4304   9.449   7.070  12.479
  803SOL     OW 4305  13.543  11.372   4.322
  803SOL    HW1 4306  13.454  11.338   4.311
  803SOL    HW2 4307  13.586  11.352   4.239
  804SOL     OW 4308   7.526  13.192   2.194
  804SOL    HW1 4309   7.488  13.133   2.260
  804SOL    HW2 4310   7.584  13.250   2.244
  805SOL     OW 4311  10.643   6.976   7.797
  805SOL    HW1 4312  10.725   7.018   7.771
  805SOL    HW2 4313  10.669   6.911   7.862
  806SOL     OW 4314   9.112   2.017  13.113
  806SOL    HW1 4315   9.104   1.983  13.024
  806SOL    HW2 4316   9.062   1.956  13.167
  807SOL     OW 4317   3.751  12.623   3.362
  807SOL    HW1 4318   3.755  12.598   3.270
  807SOL    HW2 4319   3.658  12.621   3.384
  808SOL     OW 4320   3.132  13.935  11.432
  808SOL    HW1 4321   3.151  13.924  11.525
  808SOL    HW2 4322   3.036  13.932  11.427
  809SOL     OW 4323   2.697  12.668   1.440
  809SOL    HW1 4324   2.778  12.621   1.420
  809SOL    HW2 4325   2.726  12.747   1.487
  810SOL     OW 4326   4.149  11.402  14.001
  810SOL    HW1 4327   4.079  11.340  13.979
  810SOL    HW2 4328   4.230  11.355  13.980
  811SOL     OW 4329   0.093   7.962  14.305
  811SOL    HW1 4330   0.161   7.936  14.367
  811SOL    HW2 4331   0.082   8.056  14.320
  812SOL     OW 4332  13.654   3.045  11.989
  812SOL    HW1 4333  13.699   3.061  12.073
  812SOL    HW2 4334  13.624   3.132  11.962
  813SOL     OW 4335  11.833  11.379  13.458
  813SOL    HW1 4336  11.878  11.298  13.433
  813SOL    HW2 4337  11.880  11.410  13.535
  814SOL     OW 4338   1.402  11.051   0.932
  814SOL    HW1 4339   1.339  11.002   0.986
  814SOL    HW2 4340   1.446  11.109   0.993
  815SOL     OW 4341   0.318   0.319   3.670
  815SOL    HW1 4342   0.251   0.297   3.605
  815SOL    HW2 4343   0.313   0.248   3.734
  816SOL     OW 4344   7.210   4.116  14.238
  816SOL    HW1 4345   7.253   4.076  14.162
  816SOL    HW2 4346   7.280   4.164  14.282
  817SOL     OW 4347   3.467   5.488  14.025
  817SOL    HW1 4348   3.487   5.401  14.060
  817SOL    HW2 4349   3.493   5.484  13.933
  818SOL     OW 4350   4.022   1.798  13.816
  818SOL    HW1 4351   4.067   1.729  13.768
  818SOL    HW2 4352   4.000   1.759  13.901
  819SOL     OW 4353  14.691   2.260  14.273
  819SOL    HW1 4354  14.703   2.294  14.184
  819SOL    HW2 4355  14.776   2.269  14.314
  820SOL     OW 4356   7.932   2.337   4.031
  820SOL    HW1 4357   8.016   2.369   3.998
  820SOL    HW2 4358   7.874   2.413   4.024
  821SOL     OW 4359  11.683   3.550   6.572
  821SOL    HW1 4360  11.755   3.502   6.532
  821SOL    HW2 4361  11.625   3.481   6.606
  822SOL     OW 4362   2.261   2.868   7.879
  822SOL    HW1 4363   2.213   2.950   7.867
  822SOL    HW2 4364   2.219   2.806   7.820
  823SOL     OW 4365  10.076   8.090   3.517
  823SOL    HW1 4366   9.982   8.071   3.514
  823SOL    HW2 4367  10.106   8.075   3.428
  824SOL     OW 4368  13.499   0.386   8.649
  824SOL    HW1 4369  13.414   0.343   8.636
  824SOL    HW2 4370  13.529   0.353   8.734
  825SOL     OW 4371  11.287   5.203  11.697
  825SOL    HW1 4372  11.193   5.184  11.690
  825SOL    HW2 4373  11.325   5.168  11.616
  826SOL     OW 4374  13.511   8.145  14.025
  826SOL    HW1 4375  13.485   8.232  14.055
  826SOL    HW2 4376  13.594   8.128  14.070
  827SOL     OW 4377  12.333  12.415  11.775
  827SOL    HW1 4378  12.255  12.468  11.792
  827SOL    HW2 4379  12.362  12.442  11.688
  828SOL     OW 4380  14.018   6.324  14.576
  828SOL    HW1 4381  14.094   6.267  14.591
  828SOL    HW2 4382  14.053   6.398  14.527
  829SOL     OW 4383   7.129   4.572   3.652
  829SOL    HW1 4384   7.068   4.644   3.633
  829SOL    HW2 4385   7.163   4.593   3.739
  830SOL     OW 4386  10.474   0.736   0.074
  830SOL    HW1 4387  10.454   0.738   0.168
  830SOL    HW2 4388  10.553   0.682   0.068
  831SOL     OW 4389   3.180   1.603   8.822
  831SOL    HW1 4390   3.148   1.666   8.887
  831SOL    HW2 4391   3.168   1.518   8.863
  832SOL     OW 4392   1.199   8.914   8.615
  832SOL    HW1 4393   1.174   8.891   8.526
  832SOL    HW2 4394   1.116   8.920   8.663
  833SOL     OW 4395   4.879  11.055  10.747
  833SOL    HW1 4396   4.873  10.965  10.778
  833SOL    HW2 4397   4.888  11.108  10.827
  834SOL     OW 4398  10.606  10.700   8.797
  834SOL    HW1 4399  10.638  10.714   8.886
  834SOL    HW2 4400  10.671  10.643   8.756
  835SOL     OW 4401   8.799   3.597   5.554
  835SOL    HW1 4402   8.727   3.536   5.568
  835SOL    HW2 4403   8.873   3.560   5.601
  836SOL     OW 4404   3.319   4.332   8.912
  836SOL    HW1 4405   3.340   4.361   8.823
  836SOL    HW2 4406   3.388   4.369   8.966
  837SOL     OW 4407  11.645   6.875   6.500
  837SOL    HW1 4408  11.618   6.942   6.437
  837SOL    HW2 4409  11.664   6.798   6.446
  838SOL     OW 4410  11.479   5.859   8.838
  838SOL    HW1 4411  11.473   5.954   8.829
  838SOL    HW2 4412  11.491   5.827   8.748
  839SOL     OW 4413   3.570   5.613   3.458
  839SOL    HW1 4414   3.662   5.626   3.482
  839SOL    HW2 4415   3.547   5.691   3.407
  840SOL     OW 4416   2.031   9.212   9.923
  840SOL    HW1 4417   1.936   9.220   9.927
  840SOL    HW2 4418   2.049   9.192   9.831
  841SOL     OW 4419   8.548   6.993  11.760
  841SOL    HW1 4420   8.516   7.079  11.788
  841SOL    HW2 4421   8.473   6.952  11.717
  842SOL     OW 4422   0.613  14.359   8.874
  842SOL    HW1 4423   0.676  14.326   8.810
  842SOL    HW2 4424   0.582  14.442   8.837
  843SOL     OW 4425   6.979  12.043   4.410
  843SOL    HW1 4426   6.907  12.104   4.427
  843SOL    HW2 4427   7.027  12.081   4.336
  844SOL     OW 4428  10.936   7.442  10.739
  844SOL    HW1 4429  10.946   7.346  10.737
  844SOL    HW2 4430  10.841   7.456  10.735
  845SOL     OW 4431  13.213   5.949   4.272
  845SOL    HW1 4432  13.257   6.034   4.279
  845SOL    HW2 4433  13.143   5.963   4.208
  846SOL     OW 4434   1.805   9.525   9.468
  846SOL    HW1 4435   1.808   9.590   9.398
  846SOL    HW2 4436   1.716   9.532   9.503
  847SOL     OW 4437   5.970  13.798  10.911
  847SOL    HW1 4438   5.903  13.770  10.849
  847SOL    HW2 4439   6.049  13.751  10.884
  848SOL     OW 4440   8.623   2.417  14.140
  848SOL    HW1 4441   8.611   2.344  14.080
  848SOL    HW2 4442   8.699   2.392  14.193
  849SOL     OW 4443  11.398   5.282   8.968
  849SOL    HW1 4444  11.396   5.315   8.878
  849SOL    HW2 4445  11.412   5.188   8.958
  850SOL     OW 4446  11.568   5.767  13.896
  850SOL    HW1 4447  11.553   5.861  13.908
  850SOL    HW2 4448  11.654   5.752  13.935
  851SOL     OW 4449   4.303   8.991   8.846
  851SOL    HW1 4450   4.366   9.063   8.848
  851SOL    HW2 4451   4.218   9.034   8.837
  852SOL     OW 4452  13.012   7.655  11.575
  852SOL    HW1 4453  13.046   7.575  11.535
  852SOL    HW2 4454  12.977   7.627  11.659
  853SOL     OW 4455   9.524  13.005   8.806
  853SOL    HW1 4456   9.523  13.080   8.747
  853SOL    HW2 4457   9.456  13.023   8.871
  854SOL     OW 4458   1.053  11.749  11.829
  854SOL    HW1 4459   0.987  11.688  11.795
  854SOL    HW2 4460   1.009  11.796  11.899
  855SOL     OW 4461   5.138   7.944  10.985
  855SOL    HW1 4462   5.059   7.940  10.932
  855SOL    HW2 4463   5.113   7.904  11.068
  856SOL     OW 4464  10.544  13.056   8.295
  856SOL    HW1 4465  10.606  12.983   8.304
  856SOL    HW2 4466  10.467  13.017   8.255
  857SOL     OW 4467   3.526   5.764   0.749
  857SOL    HW1 4468   3.610   5.761   0.704
  857SOL    HW2 4469   3.465   5.799   0.684
  858SOL     OW 4470   2.523   2.545  12.699
  858SOL    HW1 4471   2.435   2.541  12.737
  858SOL    HW2 4472   2.534   2.461  12.654
  859SOL     OW 4473   3.327   2.494   0.693
  859SOL    HW1 4474   3.291   2.517   0.779
  859SOL    HW2 4475   3.258   2.442   0.651
  860SOL     OW 4476   4.117   2.502  11.355
  860SOL    HW1 4477   4.120   2.427  11.295
  860SOL    HW2 4478   4.059   2.565  11.312
  861SOL     OW 4479  13.374  11.838  11.774
  861SOL    HW1 4480  13.358  11.906  11.709
  861SOL    HW2 4481  13.469  11.838  11.786
  862SOL     OW 4482   8.836  12.499   4.066
  862SOL    HW1 4483   8.888  12.535   4.138
  862SOL    HW2 4484   8.798  12.418   4.100
  863SOL     OW 4485  14.776   6.000  11.629
  863SOL    HW1 4486  14.871   6.000  11.614
  863SOL    HW2 4487  14.766   6.021  11.722
  864SOL     OW 4488  11.817   8.564   4.810
  864SOL    HW1 4489  11.780   8.651   4.793
  864SOL    HW2 4490  11.806   8.517   4.727
  865SOL     OW 4491  12.967   8.959   1.885
  865SOL    HW1 4492  12.905   9.030   1.900
  865SOL    HW2 4493  12.950   8.931   1.795
  866SOL     OW 4494  14.829  11.340   4.200
  866SOL    HW1 4495  14.823  11.341   4.295
  866SOL    HW2 4496  14.857  11.428   4.176
  867SOL     OW 4497   7.938   5.112  11.637
  867SOL    HW1 4498   7.946   5.076  11.725
  867SOL    HW2 4499   7.889   5.045  11.588
  868SOL     OW 4500   6.989   0.949   9.886
  868SOL    HW1 4501   6.951   0.906   9.810
  868SOL    HW2 4502   6.954   0.901   9.961
  869SOL     OW 4503   2.709   7.146   6.178
  869SOL    HW1 4504   2.614   7.140   6.164
  869SOL    HW2 4505   2.745   7.153   6.089
  870SOL     OW 4506   9.085   9.878   7.684
  870SOL    HW1 4507   9.143   9.872   7.760
  870SOL    HW2 4508   9.088   9.791   7.644
  871SOL     OW 4509   0.331  13.294   9.608
  871SOL    HW1 4510   0.414  13.329   9.641
  871SOL    HW2 4511   0.285  13.371   9.572
  872SOL     OW 4512   1.301   5.024  14.580
  872SOL    HW1 4513   1.308   4.961  14.509
  872SOL    HW2 4514   1.223   5.076  14.558
  873SOL     OW 4515  14.756   8.432   6.014
  873SOL    HW1 4516  14.742   8.419   6.108
  873SOL    HW2 4517  14.788   8.522   6.007
  874SOL     OW 4518   0.346   0.418   2.322
  874SOL    HW1 4519   0.334   0.364   2.244
  874SOL    HW2 4520   0.437   0.449   2.315
  875SOL     OW 4521  14.141  12.397   4.353
  875SOL    HW1 4522  14.117  12.309   4.327
  875SOL    HW2 4523  14.179  12.387   4.441
  876SOL     OW 4524  10.255   4.353  14.756
  876SOL    HW1 4525  10.282   4.410  14.684
  876SOL    HW2 4526  10.169   4.321  14.730
  877SOL     OW 4527   3.366   3.060  12.028
  877SOL    HW1 4528   3.391   3.081  12.118
  877SOL    HW2 4529   3.271   3.069  12.027
  878SOL     OW 4530  14.061   1.680   1.712
  878SOL    HW1 4531  14.099   1.668   1.799
  878SOL    HW2 4532  14.109   1.619   1.656
  879SOL     OW 4533   4.844  12.439  13.481
  879SOL    HW1 4534   4.908  12.407  13.545
  879SOL    HW2 4535   4.797  12.508  13.527
  880SOL     OW 4536  11.517   0.582  11.201
  880SOL    HW1 4537  11.489   0.491  11.188
  880SOL    HW2 4538  11.600   0.588  11.153
  881SOL     OW 4539   5.835   6.634   8.618
  881SOL    HW1 4540   5.794   6.702   8.564
  881SOL    HW2 4541   5.771   6.562   8.617
  882SOL     OW 4542   5.874   4.446   3.454
  882SOL    HW1 4543   5.945   4.488   3.502
  882SOL    HW2 4544   5.822   4.519   3.420
  883SOL     OW 4545   8.654   0.777   2.075
  883SOL    HW1 4546   8.683   0.691   2.044
  883SOL    HW2 4547   8.709   0.839   2.028
  884SOL     OW 4548   6.188   8.810   6.677
  884SOL    HW1 4549   6.183   8.743   6.745
  884SOL    HW2 4550   6.278   8.805   6.646
  885SOL     OW 4551  13.678   9.846  10.702
  885SOL    HW1 4552  13.684   9.867  10.608
  885SOL    HW2 4553  13.586   9.857  10.723
  886SOL     OW 4554  13.090   7.496  11.810
  886SOL    HW1 4555  13.110   7.409  11.845
  886SOL    HW2 4556  13.038   7.538  11.878
  887SOL     OW 4557   3.788   6.038   7.547
  887SOL    HW1 4558   3.846   5.965   7.569
  887SOL    HW2 4559   3.821   6.112   7.597
  888SOL     OW 4560  10.220   0.988   4.088
  888SOL    HW1 4561  10.196   1.051   4.020
  888SOL    HW2 4562  10.226   0.905   4.042
  889SOL     OW 4563   8.351  14.235  13.296
  889SOL    HW1 4564   8.282  14.172  13.319
  889SOL    HW2 4565   8.306  14.299  13.240
  890SOL     OW 4566  13.765  10.063   3.803
  890SOL    HW1 4567  13.723  10.016   3.875
  890SOL    HW2 4568  13.710  10.139   3.787
  891SOL     OW 4569  11.205  11.499  12.860
  891SOL    HW1 4570  11.276  11.450  12.820
  891SOL    HW2 4571  11.207  11.585  12.817
  892SOL     OW 4572   1.096   9.849   8.739
  892SOL    HW1 4573   1.142   9.797   8.806
  892SOL    HW2 4574   1.153   9.843   8.662
  893SOL     OW 4575   8.254  14.142   7.505
  893SOL    HW1 4576   8.244  14.100   7.590
  893SOL    HW2 4577   8.213  14.081   7.443
  894SOL     OW 4578   5.114   9.665  12.772
  894SOL    HW1 4579   5.100   9.583  12.725
  894SOL    HW2 4580   5.208   9.683  12.763
  895SOL     OW 4581   8.061  10.397   2.645
  895SOL    HW1 4582   8.075  10.488   2.671
  895SOL    HW2 4583   8.110  10.388   2.563
  896SOL     OW 4584   6.562  10.370   1.547
  896SOL    HW1 4585   6.519  10.450   1.579
  896SOL    HW2 4586   6.586  10.390   1.457
  897SOL     OW 4587   2.782  14.506   9.930
  897SOL    HW1 4588   2.821  14.593   9.930
  897SOL    HW2 4589   2.822  14.462  10.005
  898SOL     OW 4590  10.603  13.382   8.876
  898SOL    HW1 4591  10.582  13.313   8.939
  898SOL    HW2 4592  10.685  13.353   8.835
  899SOL     OW 4593  11.490  11.250  11.362
  899SOL    HW1 4594  11.397  11.234  11.373
  899SOL    HW2 4595  11.519  11.185  11.298
  900SOL     OW 4596   6.398   6.760  14.791
  900SOL    HW1 4597   6.321   6.729  14.744
  900SOL    HW2 4598   6.447   6.680  14.812
  901SOL     OW 4599   7.753   0.807  13.664
  901SOL    HW1 4600   7.805   0.772  13.592
  901SOL    HW2 4601   7.808   0.877  13.701
  902SOL     OW 4602   6.151   7.684  10.305
  902SOL    HW1 4603   6.199   7.611  10.344
  902SOL    HW2 4604   6.185   7.689  10.215
  903SOL     OW 4605   7.007   6.181   8.133
  903SOL    HW1 4606   7.089   6.222   8.161
  903SOL    HW2 4607   7.031   6.091   8.112
  904SOL     OW 4608  12.578   8.373  13.004
  904SOL    HW1 4609  12.614   8.455  12.968
  904SOL    HW2 4610  12.531   8.334  12.931
  905SOL     OW 4611   2.022  10.428   4.899
  905SOL    HW1 4612   2.001  10.436   4.992
  905SOL    HW2 4613   2.115  10.450   4.892
  906SOL     OW 4614   0.586   3.019   4.973
  906SOL    HW1 4615   0.538   2.973   5.043
  906SOL    HW2 4616   0.654   3.068   5.019
  907SOL     OW 4617   1.438   3.213   9.620
  907SOL    HW1 4618   1.410   3.142   9.679
  907SOL    HW2 4619   1.445   3.171   9.534
  908SOL     OW 4620  11.813   3.203   9.746
  908SOL    HW1 4621  11.769   3.132   9.794
  908SOL    HW2 4622  11.766   3.208   9.663
  909SOL     OW 4623  14.866  14.494   6.452
  909SOL    HW1 4624   0.057  14.524   6.515
  909SOL    HW2 4625  14.789  14.547   6.471
  910SOL     OW 4626   7.815   3.721  12.988
  910SOL    HW1 4627   7.830   3.811  13.015
  910SOL    HW2 4628   7.902   3.682  12.984
  911SOL     OW 4629   3.468   8.239  13.845
  911SOL    HW1 4630   3.439   8.309  13.786
  911SOL    HW2 4631   3.390   8.183  13.856
  912SOL     OW 4632  14.258   4.751  11.020
  912SOL    HW1 4633  14.208   4.677  11.054
  912SOL    HW2 4634  14.241   4.822  11.082
  913SOL     OW 4635   2.611   4.063  14.612
  913SOL    HW1 4636   2.673   4.134  14.626
  913SOL    HW2 4637   2.612   4.049  14.517
  914SOL     OW 4638  11.831   2.493  12.294
  914SOL    HW1 4639  11.915   2.533  12.316
  914SOL    HW2 4640  11.852   2.425  12.231
  915SOL     OW 4641  11.954   5.072  14.080
  915SOL    HW1 4642  11.978   5.151  14.128
  915SOL    HW2 4643  11.965   5.095  13.988
  916SOL     OW 4644   8.664   7.857   8.506
  916SOL    HW1 4645   8.724   7.887   8.438
  916SOL    HW2 4646   8.597   7.807   8.458
  917SOL     OW 4647   1.023   3.321   6.527
  917SOL    HW1 4648   0.932   3.350   6.534
  917SOL    HW2 4649   1.069   3.374   6.592
  918SOL     OW 4650  12.946   6.322   1.184
  918SOL    HW1 4651  12.903   6.238   1.199
  918SOL    HW2 4652  12.922   6.347   1.095
  919SOL     OW 4653   1.419   3.697   9.332
  919SOL    HW1 4654   1.505   3.701   9.290
  919SOL    HW2 4655   1.438   3.707   9.426
  920SOL     OW 4656   3.144  13.947   7.824
  920SOL    HW1 4657   3.163  14.041   7.828
  920SOL    HW2 4658   3.049  13.943   7.819
  921SOL     OW 4659   4.544  13.476   5.250
  921SOL    HW1 4660   4.468  13.417   5.254
  921SOL    HW2 4661   4.612  13.431   5.300
  922SOL     OW 4662   3.806   8.016   5.253
  922SOL    HW1 4663   3.852   8.051   5.329
  922SOL    HW2 4664   3.843   8.064   5.179
  923SOL     OW 4665  13.628   1.677  10.550
  923SOL    HW1 4666  13.685   1.607  10.516
  923SOL    HW2 4667  13.563   1.690  10.481
  924SOL     OW 4668  14.093  13.749  11.191
  924SOL    HW1 4669  14.023  13.809  11.213
  924SOL    HW2 4670  14.156  13.759  11.262
  925SOL     OW 4671  10.178   2.961  13.657
  925SOL    HW1 4672  10.129   3.043  13.665
  925SOL    HW2 4673  10.165   2.935  13.566
  926SOL     OW 4674   8.005   1.645   1.544
  926SOL    HW1 4675   7.979   1.668   1.633
  926SOL    HW2 4676   7.922   1.628   1.499
  927SOL     OW 4677   1.022   7.892   3.312
  927SOL    HW1 4678   1.006   7.979   3.350
  927SOL    HW2 4679   0.987   7.899   3.223
  928SOL     OW 4680   0.104  14.049  13.221
  928SOL    HW1 4681   0.047  13.992  13.170
  928SOL    HW2 4682   0.182  14.061  13.166
  929SOL     OW 4683   0.573  11.210   1.983
  929SOL    HW1 4684   0.621  11.155   1.922
  929SOL    HW2 4685   0.601  11.180   2.070
  930SOL     OW 4686   2.515  11.036   0.667
  930SOL    HW1 4687   2.497  10.948   0.699
  930SOL    HW2 4688   2.600  11.029   0.624
  931SOL     OW 4689  11.954  13.533  12.422
  931SOL    HW1 4690  12.037  13.499  12.455
  931SOL    HW2 4691  11.970  13.549  12.329
  932SOL     OW 4692  12.744  14.283  10.598
  932SOL    HW1 4693  12.772  14.216  10.661
  932SOL    HW2 4694  12.657  14.309  10.628
  933SOL     OW 4695   0.233   8.227   3.553
  933SOL    HW1 4696   0.234   8.138   3.516
  933SOL    HW2 4697   0.324   8.256   3.547
  934SOL     OW 4698   3.824   8.320  10.386
  934SOL    HW1 4699   3.860   8.402  10.420
  934SOL    HW2 4700   3.801   8.271  10.465
  935SOL     OW 4701  11.878   1.680   9.715
  935SOL    HW1 4702  11.876   1.748   9.648
  935SOL    HW2 4703  11.826   1.608   9.679
  936SOL     OW 4704  14.773  10.075   6.062
  936SOL    HW1 4705  14.735  10.068   6.150
  936SOL    HW2 4706  14.795  10.167   6.053
  937SOL     OW 4707   0.428   6.513   3.011
  937SOL    HW1 4708   0.486   6.555   2.948
  937SOL    HW2 4709   0.434   6.567   3.090
  938SOL     OW 4710   8.933   4.881  13.068
  938SOL    HW1 4711   8.996   4.912  13.004
  938SOL    HW2 4712   8.910   4.959  13.119
  939SOL     OW 4713   6.860   6.658   6.729
  939SOL    HW1 4714   6.870   6.613   6.813
  939SOL    HW2 4715   6.805   6.733   6.749
  940SOL     OW 4716   4.628  11.425   9.679
  940SOL    HW1 4717   4.620  11.332   9.700
  940SOL    HW2 4718   4.721  11.443   9.687
  941SOL     OW 4719  13.769   6.499   3.721
  941SOL    HW1 4720  13.719   6.580   3.726
  941SOL    HW2 4721  13.779   6.471   3.812
  942SOL     OW 4722   2.550  10.415  12.830
  942SOL    HW1 4723   2.505  10.340  12.791
  942SOL    HW2 4724   2.496  10.490  12.806
  943SOL     OW 4725   9.339  10.125   0.351
  943SOL    HW1 4726   9.422  10.150   0.310
  943SOL    HW2 4727   9.320  10.196   0.412
  944SOL     OW 4728  11.472   3.009  12.184
  944SOL    HW1 4729  11.415   3.083  12.206
  944SOL    HW2 4730  11.425   2.933  12.220
  945SOL     OW 4731  12.695   9.202   1.885
  945SOL    HW1 4732  12.680   9.212   1.791
  945SOL    HW2 4733  12.763   9.267   1.904
  946SOL     OW 4734  11.276   5.922  12.338
  946SOL    HW1 4735  11.307   5.950  12.252
  946SOL    HW2 4736  11.320   5.980  12.400
  947SOL     OW 4737  14.023  12.906   6.507
  947SOL    HW1 4738  14.069  12.883   6.587
  947SOL    HW2 4739  13.932  12.916   6.533
  948SOL     OW 4740  11.334  10.945   3.862
  948SOL    HW1 4741  11.258  10.990   3.897
  948SOL    HW2 4742  11.325  10.953   3.767
  949SOL     OW 4743   2.756   0.032   7.193
  949SOL    HW1 4744   2.831   0.018   7.251
  949SOL    HW2 4745   2.775  14.852   7.117
  950SOL     OW 4746  14.225   5.720   2.367
  950SOL    HW1 4747  14.219   5.770   2.285
  950SOL    HW2 4748  14.141   5.734   2.410
  951SOL     OW 4749  11.382   9.091   2.334
  951SOL    HW1 4750  11.395   9.005   2.292
  951SOL    HW2 4751  11.343   9.145   2.266
  952SOL     OW 4752  10.007  14.164  10.979
  952SOL    HW1 4753  10.059  14.099  11.025
  952SOL    HW2 4754   9.918  14.130  10.981
  953SOL     OW 4755   0.246  13.674  10.750
  953SOL    HW1 4756   0.245  13.648  10.842
  953SOL    HW2 4757   0.248  13.769  10.752
  954SOL     OW 4758  11.506   3.314   0.555
  954SOL    HW1 4759  11.583   3.269   0.519
  954SOL    HW2 4760  11.432   3.267   0.519
  955SOL     OW 4761   8.361   3.476   1.633
  955SOL    HW1 4762   8.385   3.423   1.709
  955SOL    HW2 4763   8.354   3.414   1.561
  956SOL     OW 4764   0.173  11.935  13.033
  956SOL    HW1 4765   0.202  11.967  12.948
  956SOL    HW2 4766   0.126  11.854  13.014
  957SOL     OW 4767  11.869   0.493   3.071
  957SOL    HW1 4768  11.889   0.415   3.019
  957SOL    HW2 4769  11.805   0.541   3.018
  958SOL     OW 4770   9.657   3.289  12.207
  958SOL    HW1 4771   9.680   3.215  12.263
  958SOL    HW2 4772   9.734   3.300  12.150
  959SOL     OW 4773  11.709   2.083  14.852
  959SOL    HW1 4774  11.655   2.029   0.034
  959SOL    HW2 4775  11.736   2.157   0.033
  960SOL     OW 4776  11.263   9.409   5.640
  960SOL    HW1 4777  11.170   9.395   5.623
  960SOL    HW2 4778  11.287   9.482   5.583
  961SOL     OW 4779   4.923   9.491  11.736
  961SOL    HW1 4780   5.006   9.454  11.765
  961SOL    HW2 4781   4.859   9.423  11.755
  962SOL     OW 4782  13.525   1.939   5.836
  962SOL    HW1 4783  13.531   1.845   5.821
  962SOL    HW2 4784  13.589   1.977   5.776
  963SOL     OW 4785  14.358  13.493  13.465
  963SOL    HW1 4786  14.362  13.420  13.403
  963SOL    HW2 4787  14.432  13.549  13.443
  964SOL     OW 4788   7.354  11.600   3.414
  964SOL    HW1 4789   7.322  11.518   3.451
  964SOL    HW2 4790   7.421  11.573   3.351
  965SOL     OW 4791   9.031  13.149   6.331
  965SOL    HW1 4792   9.061  13.164   6.421
  965SOL    HW2 4793   9.110  13.156   6.278
  966SOL     OW 4794   3.573  12.480   5.199
  966SOL    HW1 4795   3.653  12.505   5.152
  966SOL    HW2 4796   3.505  12.479   5.131
  967SOL     OW 4797  14.684   2.710   7.440
  967SOL    HW1 4798  14.688   2.785   7.499
  967SOL    HW2 4799  14.620   2.651   7.481
  968SOL     OW 4800   8.330   6.649   8.613
  968SOL    HW1 4801   8.293   6.676   8.697
  968SOL    HW2 4802   8.423   6.639   8.630
  969SOL     OW 4803   8.735   4.403   2.172
  969SOL    HW1 4804   8.691   4.318   2.165
  969SOL    HW2 4805   8.728   4.441   2.084
  970SOL     OW 4806   2.399   5.995   8.954
  970SOL    HW1 4807   2.415   5.998   8.859
  970SOL    HW2 4808   2.361   5.908   8.968
  971SOL     OW 4809  11.231  13.936  14.075
  971SOL    HW1 4810  11.159  13.907  14.130
  971SOL    HW2 4811  11.210  14.027  14.053
  972SOL     OW 4812   8.687   3.131   4.250
  972SOL    HW1 4813   8.661   3.143   4.158
  972SOL    HW2 4814   8.754   3.198   4.264
  973SOL     OW 4815   2.436   1.653  14.522
  973SOL    HW1 4816   2.433   1.560  14.544
  973SOL    HW2 4817   2.344   1.677  14.507
  974SOL     OW 4818  13.345  14.274  14.874
  974SOL    HW1 4819  13.418  14.215  14.856
  974SOL    HW2 4820  13.309  14.244   0.083
  975SOL     OW 4821  14.246   4.420   0.979
  975SOL    HW1 4822  14.327   4.425   1.030
  975SOL    HW2 4823  14.250   4.495   0.920
  976SOL     OW 4824   6.009  11.118   7.656
  976SOL    HW1 4825   6.010  11.189   7.721
  976SOL    HW2 4826   5.949  11.053   7.693
  977SOL     OW 4827   8.637   8.925  11.498
  977SOL    HW1 4828   8.583   8.951  11.573
  977SOL    HW2 4829   8.576   8.885  11.437
  978SOL     OW 4830   9.506   4.181  12.549
  978SOL    HW1 4831   9.428   4.132  12.575
  978SOL    HW2 4832   9.474   4.247  12.488
  979SOL     OW 4833   6.070  12.520  12.161
  979SOL    HW1 4834   6.150  12.542  12.209
  979SOL    HW2 4835   6.050  12.431  12.187
  980SOL     OW 4836  11.806   4.066   1.617
  980SOL    HW1 4837  11.717   4.057   1.582
  980SOL    HW2 4838  11.846   4.134   1.563
  981SOL     OW 4839   4.416   1.504   0.600
  981SOL    HW1 4840   4.375   1.503   0.513
  981SOL    HW2 4841   4.404   1.415   0.633
  982SOL     OW 4842  13.010   1.371   7.625
  982SOL    HW1 4843  13.013   1.451   7.573
  982SOL    HW2 4844  12.940   1.319   7.585
  983SOL     OW 4845   8.922  10.238  13.651
  983SOL    HW1 4846   8.957  10.248  13.740
  983SOL    HW2 4847   8.870  10.317  13.636
  984SOL     OW 4848   1.245   2.558  11.488
  984SOL    HW1 4849   1.161   2.600  11.473
  984SOL    HW2 4850   1.291   2.567  11.404
  985SOL     OW 4851   7.148   9.484  11.862
  985SOL    HW1 4852   7.114   9.484  11.772
  985SOL    HW2 4853   7.144   9.392  11.889
  986SOL     OW 4854   3.523  11.381   7.390
  986SOL    HW1 4855   3.508  11.475   7.399
  986SOL    HW2 4856   3.617  11.370   7.406
  987SOL     OW 4857  13.128   4.344   8.480
  987SOL    HW1 4858  13.198   4.363   8.542
  987SOL    HW2 4859  13.081   4.270   8.518
  988SOL     OW 4860   0.476   1.569   2.399
  988SOL    HW1 4861   0.389   1.606   2.386
  988SOL    HW2 4862   0.534   1.644   2.405
  989SOL     OW 4863   3.159   0.627   6.739
  989SOL    HW1 4864   3.088   0.573   6.704
  989SOL    HW2 4865   3.160   0.606   6.833
  990SOL     OW 4866  10.279   4.474   9.480
  990SOL    HW1 4867  10.290   4.454   9.387
  990SOL    HW2 4868  10.186   4.455   9.498
  991SOL     OW 4869   2.251   4.931   1.762
  991SOL    HW1 4870   2.210   5.017   1.770
  991SOL    HW2 4871   2.182   4.869   1.787
  992SOL     OW 4872   8.649  14.420   3.086
  992SOL    HW1 4873   8.737  14.423   3.122
  992SOL    HW2 4874   8.651  14.348   3.023
  993SOL     OW 4875  10.316   8.332   8.661
  993SOL    HW1 4876  10.344   8.286   8.581
  993SOL    HW2 4877  10.335   8.424   8.643
  994SOL     OW 4878   3.714   0.225  10.280
  994SOL    HW1 4879   3.667   0.250  10.200
  994SOL    HW2 4880   3.724   0.130  10.272
  995SOL     OW 4881   5.817  12.245   9.239
  995SOL    HW1 4882   5.801  12.185   9.312
  995SOL    HW2 4883   5.730  12.268   9.206
  996SOL     OW 4884  11.410   4.504   0.104
  996SOL    HW1 4885  11.407   4.599   0.115
  996SOL    HW2 4886  11.390   4.490   0.012
  997SOL     OW 4887   8.660  14.101   9.151
  997SOL    HW1 4888   8.572  14.126   9.178
  997SOL    HW2 4889   8.703  14.075   9.233
  998SOL     OW 4890   8.417   2.312  13.202
  998SOL    HW1 4891   8.492   2.320  13.261
  998SOL    HW2 4892   8.455   2.292  13.117
  999SOL     OW 4893  14.171   3.740   7.728
  999SOL    HW1 4894  14.096   3.759   7.784
  999SOL    HW2 4895  14.241   3.795   7.762
 1000SOL     OW 4896   2.619  11.501  11.987
 1000SOL    HW1 4897   2.710  11.510  11.958
 1000SOL    HW2 4898   2.576  11.451  11.918
 1001SOL     OW 4899   0.085  14.082   3.560
 1001SOL    HW1 4900   0.011  14.027   3.535
 1001SOL    HW2 4901   0.124  14.038   3.636
 1002SOL     OW 4902   1.811  12.942   2.512
 1002SOL    HW1 4903   1.740  12.904   2.564
 1002SOL    HW2 4904   1.768  12.971   2.431
 1003SOL     OW 4905   8.496   6.240   4.276
 1003SOL    HW1 4906   8.577   6.191   4.289
 1003SOL    HW2 4907   8.501   6.270   4.185
 1004SOL     OW 4908   0.573   3.702   0.983
 1004SOL    HW1 4909   0.661   3.674   0.957
 1004SOL    HW2 4910   0.572   3.692   1.078
 1005SOL     OW 4911  13.157  10.528   8.764
 1005SOL    HW1 4912  13.112  10.444   8.758
 1005SOL    HW2 4913  13.156  10.562   8.674
 1006SOL     OW 4914   8.496  12.699   7.932
 1006SOL    HW1 4915   8.501  12.638   7.858
 1006SOL    HW2 4916   8.489  12.785   7.890
 1007SOL     OW 4917   3.455   8.316   6.934
 1007SOL    HW1 4918   3.454   8.396   6.987
 1007SOL    HW2 4919   3.488   8.345   6.848
 1008SOL     OW 4920   8.927   4.864  10.432
 1008SOL    HW1 4921   8.933   4.959  10.438
 1008SOL    HW2 4922   8.833   4.845  10.429
 1009SOL     OW 4923   7.002   8.891   1.451
 1009SOL    HW1 4924   7.084   8.842   1.454
 1009SOL    HW2 4925   6.949   8.854   1.522
 1010SOL     OW 4926  10.577  13.706   8.573
 1010SOL    HW1 4927  10.570  13.783   8.516
 1010SOL    HW2 4928  10.555  13.632   8.517
 1011SOL     OW 4929   8.024  13.628   5.469
 1011SOL    HW1 4930   8.102  13.652   5.419
 1011SOL    HW2 4931   8.045  13.541   5.505
 1012SOL     OW 4932  12.849   2.102  13.948
 1012SOL    HW1 4933  12.823   2.049  13.873
 1012SOL    HW2 4934  12.768   2.114  13.998
 1013SOL     OW 4935   5.514  12.984  12.367
 1013SOL    HW1 4936   5.565  13.011  12.444
 1013SOL    HW2 4937   5.566  12.916  12.326
 1014SOL     OW 4938  11.800  14.653  11.468
 1014SOL    HW1 4939  11.832  14.564  11.460
 1014SOL    HW2 4940  11.874  14.708  11.442
 1015SOL     OW 4941   3.945  11.486  12.068
 1015SOL    HW1 4942   3.986  11.450  12.147
 1015SOL    HW2 4943   3.913  11.409  12.021
 1016SOL     OW 4944  10.421   1.675   0.737
 1016SOL    HW1 4945  10.402   1.608   0.803
 1016SOL    HW2 4946  10.464   1.627   0.666
 1017SOL     OW 4947   3.097  11.148   7.444
 1017SOL    HW1 4948   3.090  11.231   7.395
 1017SOL    HW2 4949   3.119  11.083   7.378
 1018SOL     OW 4950   5.935  10.166  11.373
 1018SOL    HW1 4951   5.936  10.099  11.442
 1018SOL    HW2 4952   5.844  10.172  11.346
 1019SOL     OW 4953  10.649  12.694  13.477
 1019SOL    HW1 4954  10.641  12.602  13.452
 1019SOL    HW2 4955  10.741  12.704  13.502
 1020SOL     OW 4956  11.551  13.848  11.541
 1020SOL    HW1 4957  11.493  13.878  11.611
 1020SOL    HW2 4958  11.582  13.762  11.570
 1021SOL     OW 4959   0.426  12.270  11.880
 1021SOL    HW1 4960   0.347  12.323  11.878
 1021SOL    HW2 4961   0.465  12.287  11.965
 1022SOL     OW 4962  10.209   7.708  13.078
 1022SOL    HW1 4963  10.294   7.705  13.036
 1022SOL    HW2 4964  10.188   7.617  13.098
 1023SOL     OW 4965  10.753   7.888  11.129
 1023SOL    HW1 4966  10.781   7.869  11.039
 1023SOL    HW2 4967  10.725   7.803  11.164
 1024SOL     OW 4968   0.050   8.570  13.889
 1024SOL    HW1 4969  14.845   8.534  13.926
 1024SOL    HW2 4970   0.052   8.536  13.799
 1025SOL     OW 4971   2.200   4.578  14.072
 1025SOL    HW1 4972   2.214   4.647  14.006
 1025SOL    HW2 4973   2.167   4.625  14.149
 1026SOL     OW 4974   6.345   2.990   4.745
 1026SOL    HW1 4975   6.437   2.967   4.730
 1026SOL    HW2 4976   6.349   3.066   4.803
 1027SOL     OW 4977   3.783   0.760   7.815
 1027SOL    HW1 4978   3.869   0.794   7.791
 1027SOL    HW2 4979   3.722   0.806   7.756
 1028SOL     OW 4980   2.021   5.692  14.725
 1028SOL    HW1 4981   2.060   5.689  14.813
 1028SOL    HW2 4982   1.931   5.661  14.738
 1029SOL     OW 4983   5.498   3.006  14.588
 1029SOL    HW1 4984   5.436   3.066  14.630
 1029SOL    HW2 4985   5.489   3.024  14.494
 1030SOL     OW 4986   7.967  14.319   8.105
 1030SOL    HW1 4987   8.026  14.309   8.180
 1030SOL    HW2 4988   7.945  14.412   8.105
 1031SOL     OW 4989  13.199   0.329   3.867
 1031SOL    HW1 4990  13.151   0.380   3.801
 1031SOL    HW2 4991  13.133   0.309   3.934
 1032SOL     OW 4992  11.957  10.463   5.472
 1032SOL    HW1 4993  11.925  10.490   5.558
 1032SOL    HW2 4994  11.914  10.380   5.455
 1033SOL     OW 4995   8.003   3.516  13.028
 1033SOL    HW1 4996   8.067   3.455  12.991
 1033SOL    HW2 4997   7.931   3.459  13.057
 1034SOL     OW 4998   5.430  14.273  12.607
 1034SOL    HW1 4999   5.406  14.194  12.656
 1034SOL    HW2 5000   5.369  14.340  12.639
 1035SOL     OW 5001  10.116   7.879  14.526
 1035SOL    HW1 5002  10.208   7.867  14.504
 1035SOL    HW2 5003  10.084   7.791  14.545
 1036SOL     OW 5004   3.883  11.996   0.043
 1036SOL    HW1 5005   3.902  11.906   0.068
 1036SOL    HW2 5006   3.788  11.997   0.029
 1037SOL     OW 5007   5.909  10.718  12.720
 1037SOL    HW1 5008   5.985  10.740  12.665
 1037SOL    HW2 5009   5.835  10.762  12.676
 1038SOL     OW 5010   9.553   7.373   5.948
 1038SOL    HW1 5011   9.562   7.345   6.039
 1038SOL    HW2 5012   9.589   7.462   5.946
 1039SOL     OW 5013  13.206   7.797   2.308
 1039SOL    HW1 5014  13.288   7.846   2.307
 1039SOL    HW2 5015  13.138   7.865   2.316
 1040SOL     OW 5016   9.072   6.017   0.287
 1040SOL    HW1 5017   9.158   5.978   0.305
 1040SOL    HW2 5018   9.053   6.068   0.365
 1041SOL     OW 5019   4.282   3.552  14.037
 1041SOL    HW1 5020   4.195   3.553  13.996
 1041SOL    HW2 5021   4.266   3.577  14.128
 1042SOL     OW 5022   9.390   9.537  13.859
 1042SOL    HW1 5023   9.390   9.462  13.918
 1042SOL    HW2 5024   9.368   9.501  13.773
 1043SOL     OW 5025  10.624   7.236   8.542
 1043SOL    HW1 5026  10.564   7.234   8.616
 1043SOL    HW2 5027  10.606   7.320   8.499
 1044SOL     OW 5028   2.340   5.888  12.040
 1044SOL    HW1 5029   2.342   5.836  12.120
 1044SOL    HW2 5030   2.429   5.884  12.006
 1045SOL     OW 5031  10.898   3.817   0.562
 1045SOL    HW1 5032  10.921   3.725   0.578
 1045SOL    HW2 5033  10.910   3.860   0.646
 1046SOL     OW 5034   0.629   7.337   9.501
 1046SOL    HW1 5035   0.571   7.398   9.547
 1046SOL    HW2 5036   0.690   7.307   9.568
 1047SOL     OW 5037  11.067  12.328   8.295
 1047SOL    HW1 5038  10.980  12.323   8.255
 1047SOL    HW2 5039  11.065  12.260   8.363
 1048SOL     OW 5040   2.238   0.005  11.765
 1048SOL    HW1 5041   2.255  14.834  11.847
 1048SOL    HW2 5042   2.185   0.081  11.789
 1049SOL     OW 5043   1.656  14.034  14.635
 1049SOL    HW1 5044   1.617  13.947  14.633
 1049SOL    HW2 5045   1.642  14.064  14.725
 1050SOL     OW 5046   6.584   8.615   2.578
 1050SOL    HW1 5047   6.620   8.528   2.564
 1050SOL    HW2 5048   6.528   8.607   2.654
 1051SOL     OW 5049   1.345   7.371  11.955
 1051SOL    HW1 5050   1.282   7.353  11.884
 1051SOL    HW2 5051   1.310   7.449  11.998
 1052SOL     OW 5052  11.162   1.274   4.785
 1052SOL    HW1 5053  11.093   1.309   4.728
 1052SOL    HW2 5054  11.133   1.295   4.874
 1053SOL     OW 5055   4.891   5.440   7.489
 1053SOL    HW1 5056   4.866   5.450   7.398
 1053SOL    HW2 5057   4.819   5.391   7.529
 1054SOL     OW 5058  11.221   9.542   9.088
 1054SOL    HW1 5059  11.309   9.570   9.115
 1054SOL    HW2 5060  11.222   9.447   9.100
 1055SOL     OW 5061   1.272   6.172   1.627
 1055SOL    HW1 5062   1.209   6.218   1.572
 1055SOL    HW2 5063   1.225   6.156   1.709
 1056SOL     OW 5064   4.325  12.093   2.585
 1056SOL    HW1 5065   4.393  12.123   2.646
 1056SOL    HW2 5066   4.362  12.106   2.498
 1057SOL     OW 5067  10.267   7.865  11.586
 1057SOL    HW1 5068  10.362   7.855  11.572
 1057SOL    HW2 5069  10.227   7.812  11.517
 1058SOL     OW 5070   6.558  13.613   2.585
 1058SOL    HW1 5071   6.562  13.522   2.556
 1058SOL    HW2 5072   6.635  13.625   2.641
 1059SOL     OW 5073   8.087   0.156   4.826
 1059SOL    HW1 5074   8.099   0.063   4.807
 1059SOL    HW2 5075   8.010   0.159   4.883
 1060SOL     OW 5076   0.452   3.368  13.653
 1060SOL    HW1 5077   0.451   3.328  13.741
 1060SOL    HW2 5078   0.522   3.433  13.657
 1061SOL     OW 5079  12.232   3.024   1.162
 1061SOL    HW1 5080  12.171   2.960   1.127
 1061SOL    HW2 5081  12.192   3.109   1.142
 1062SOL     OW 5082  13.974   4.038   4.518
 1062SOL    HW1 5083  14.034   4.063   4.589
 1062SOL    HW2 5084  13.954   4.121   4.474
 1063SOL     OW 5085   5.955   9.939   4.324
 1063SOL    HW1 5086   5.970  10.032   4.307
 1063SOL    HW2 5087   5.909   9.937   4.408
 1064SOL     OW 5088   4.735  11.689   6.787
 1064SOL    HW1 5089   4.720  11.660   6.697
 1064SOL    HW2 5090   4.827  11.718   6.788
 1065SOL     OW 5091   1.631  14.277   3.197
 1065SOL    HW1 5092   1.601  14.349   3.142
 1065SOL    HW2 5093   1.616  14.199   3.144
 1066SOL     OW 5094   4.284   7.940  12.947
 1066SOL    HW1 5095   4.312   7.952  12.857
 1066SOL    HW2 5096   4.329   8.009  12.995
 1067SOL     OW 5097   7.066   3.283  11.631
 1067SOL    HW1 5098   6.978   3.306  11.602
 1067SOL    HW2 5099   7.104   3.365  11.661
 1068SOL     OW 5100   9.632   2.539   3.142
 1068SOL    HW1 5101   9.590   2.587   3.213
 1068SOL    HW2 5102   9.600   2.582   3.062
 1069SOL     OW 5103  13.289  12.198   4.963
 1069SOL    HW1 5104  13.256  12.198   5.053
 1069SOL    HW2 5105  13.350  12.272   4.961
 1070SOL     OW 5106   5.383   4.730   7.651
 1070SOL    HW1 5107   5.460   4.779   7.677
 1070SOL    HW2 5108   5.345   4.700   7.734
 1071SOL     OW 5109  11.023   1.471  14.864
 1071SOL    HW1 5110  11.087   1.434   0.050
 1071SOL    HW2 5111  10.951   1.408  14.862
 1072SOL     OW 5112  14.484   2.634   7.200
 1072SOL    HW1 5113  14.575   2.662   7.192
 1072SOL    HW2 5114  14.437   2.688   7.137
 1073SOL     OW 5115   7.731   7.675   9.334
 1073SOL    HW1 5116   7.780   7.667   9.253
 1073SOL    HW2 5117   7.663   7.740   9.315
 1074SOL     OW 5118  14.499   5.117  14.229
 1074SOL    HW1 5119  14.469   5.183  14.167
 1074SOL    HW2 5120  14.430   5.051  14.229
 1075SOL     OW 5121   3.226  12.891   2.410
 1075SOL    HW1 5122   3.321  12.901   2.410
 1075SOL    HW2 5123   3.202  12.892   2.317
 1076SOL     OW 5124   1.328  11.720   8.966
 1076SOL    HW1 5125   1.283  11.801   8.991
 1076SOL    HW2 5126   1.263  11.652   8.978
 1077SOL     OW 5127   5.515   0.409   2.714
 1077SOL    HW1 5128   5.563   0.357   2.778
 1077SOL    HW2 5129   5.460   0.345   2.668
 1078SOL     OW 5130   1.263   3.077   1.289
 1078SOL    HW1 5131   1.264   3.165   1.252
 1078SOL    HW2 5132   1.181   3.073   1.339
 1079SOL     OW 5133  12.095   4.331  10.177
 1079SOL    HW1 5134  12.138   4.405  10.134
 1079SOL    HW2 5135  12.163   4.264  10.183
 1080SOL     OW 5136  11.334   7.996   8.985
 1080SOL    HW1 5137  11.361   8.044   9.062
 1080SOL    HW2 5138  11.318   7.907   9.017
 1081SOL     OW 5139   0.897   7.835   8.024
 1081SOL    HW1 5140   0.936   7.764   8.074
 1081SOL    HW2 5141   0.900   7.910   8.083
 1082SOL     OW 5142  14.312  11.066   7.199
 1082SOL    HW1 5143  14.291  11.002   7.131
 1082SOL    HW2 5144  14.233  11.069   7.254
 1083SOL     OW 5145   8.708   0.710   4.250
 1083SOL    HW1 5146   8.771   0.781   4.260
 1083SOL    HW2 5147   8.710   0.688   4.157
 1084SOL     OW 5148   5.251   9.183  12.351
 1084SOL    HW1 5149   5.167   9.212  12.387
 1084SOL    HW2 5150   5.228   9.138  12.269
 1085SOL     OW 5151  10.442  10.862   7.327
 1085SOL    HW1 5152  10.479  10.948   7.304
 1085SOL    HW2 5153  10.517  10.803   7.326
 1086SOL     OW 5154   4.869  10.926   4.598
 1086SOL    HW1 5155   4.854  11.008   4.552
 1086SOL    HW2 5156   4.964  10.920   4.607
 1087SOL     OW 5157   1.484   0.196  12.273
 1087SOL    HW1 5158   1.407   0.216  12.326
 1087SOL    HW2 5159   1.550   0.168  12.336
 1088SOL     OW 5160   9.283   9.412   4.351
 1088SOL    HW1 5161   9.308   9.390   4.262
 1088SOL    HW2 5162   9.311   9.503   4.362
 1089SOL     OW 5163   3.919   0.504   7.401
 1089SOL    HW1 5164   3.827   0.485   7.421
 1089SOL    HW2 5165   3.955   0.538   7.483
 1090SOL     OW 5166  13.600  12.471   7.386
 1090SOL    HW1 5167  13.579  12.548   7.333
 1090SOL    HW2 5168  13.674  12.499   7.440
 1091SOL     OW 5169  10.570   3.850  14.800
 1091SOL    HW1 5170  10.518   3.805  14.866
 1091SOL    HW2 5171  10.618   3.779  14.756
 1092SOL     OW 5172   1.345   6.295   9.317
 1092SOL    HW1 5173   1.266   6.242   9.317
 1092SOL    HW2 5174   1.397   6.260   9.390
 1093SOL     OW 5175  10.364   9.846   1.941
 1093SOL    HW1 5176  10.368   9.760   1.983
 1093SOL    HW2 5177  10.327   9.903   2.009
 1094SOL     OW 5178  10.489   7.921   3.366
 1094SOL    HW1 5179  10.540   7.948   3.289
 1094SOL    HW2 5180  10.444   7.841   3.339
 1095SOL     OW 5181   9.168  11.160   1.938
 1095SOL    HW1 5182   9.230  11.229   1.915
 1095SOL    HW2 5183   9.206  11.117   2.015
 1096SOL     OW 5184   5.901   5.044   4.778
 1096SOL    HW1 5185   5.843   5.028   4.703
 1096SOL    HW2 5186   5.980   4.993   4.758
 1097SOL     OW 5187   2.695   4.017   9.418
 1097SOL    HW1 5188   2.772   4.062   9.384
 1097SOL    HW2 5189   2.647   4.084   9.466
 1098SOL     OW 5190  13.984   5.339  11.767
 1098SOL    HW1 5191  13.892   5.327  11.790
 1098SOL    HW2 5192  14.003   5.266  11.707
 1099SOL     OW 5193  11.975  10.275  14.733
 1099SOL    HW1 5194  11.948  10.189  14.764
 1099SOL    HW2 5195  11.978  10.329  14.812
 1100SOL     OW 5196   6.700   1.368   0.444
 1100SOL    HW1 5197   6.650   1.439   0.483
 1100SOL    HW2 5198   6.784   1.406   0.421
 1101SOL     OW 5199   5.788   4.338  10.338
 1101SOL    HW1 5200   5.763   4.257  10.382
 1101SOL    HW2 5201   5.882   4.328  10.321
 1102SOL     OW 5202   8.586   1.341   9.631
 1102SOL    HW1 5203   8.618   1.368   9.545
 1102SOL    HW2 5204   8.612   1.411   9.690
 1103SOL     OW 5205  11.110  11.858  14.040
 1103SOL    HW1 5206  11.199  11.825  14.036
 1103SOL    HW2 5207  11.110  11.935  13.982
 1104SOL     OW 5208   7.363   5.252   5.711
 1104SOL    HW1 5209   7.271   5.271   5.693
 1104SOL    HW2 5210   7.362   5.194   5.787
 1105SOL     OW 5211   7.087   2.943  10.755
 1105SOL    HW1 5212   7.175   2.907  10.747
 1105SOL    HW2 5213   7.039   2.908  10.680
 1106SOL     OW 5214  13.550  13.096   0.430
 1106SOL    HW1 5215  13.476  13.095   0.492
 1106SOL    HW2 5216  13.590  13.182   0.442
 1107SOL     OW 5217  10.122   8.895   7.339
 1107SOL    HW1 5218  10.144   8.950   7.264
 1107SOL    HW2 5219  10.059   8.832   7.305
 1108SOL     OW 5220   0.538   6.815   0.816
 1108SOL    HW1 5221   0.595   6.760   0.763
 1108SOL    HW2 5222   0.494   6.872   0.753
 1109SOL     OW 5223  11.926   7.462   2.892
 1109SOL    HW1 5224  12.011   7.451   2.934
 1109SOL    HW2 5225  11.936   7.419   2.807
 1110SOL     OW 5226   5.761   0.542   3.718
 1110SOL    HW1 5227   5.830   0.520   3.780
 1110SOL    HW2 5228   5.685   0.492   3.748
 1111SOL     OW 5229   9.301  13.080   3.168
 1111SOL    HW1 5230   9.384  13.112   3.202
 1111SOL    HW2 5231   9.276  13.010   3.227
 1112SOL     OW 5232   6.169   0.390   4.060
 1112SOL    HW1 5233   6.145   0.380   4.152
 1112SOL    HW2 5234   6.221   0.471   4.057
 1113SOL     OW 5235  14.171   5.293   4.669
 1113SOL    HW1 5236  14.240   5.359   4.678
 1113SOL    HW2 5237  14.162   5.281   4.574
 1114SOL     OW 5238   9.813  11.041   0.989
 1114SOL    HW1 5239   9.861  11.055   0.908
 1114SOL    HW2 5240   9.849  10.959   1.024
 1115SOL     OW 5241  11.926   8.199   2.365
 1115SOL    HW1 5242  11.924   8.215   2.271
 1115SOL    HW2 5243  11.856   8.135   2.380
 1116SOL     OW 5244  11.500   9.163   3.810
 1116SOL    HW1 5245  11.477   9.072   3.795
 1116SOL    HW2 5246  11.595   9.166   3.800
 1117SOL     OW 5247  12.504  14.605  13.885
 1117SOL    HW1 5248  12.506  14.630  13.977
 1117SOL    HW2 5249  12.413  14.623  13.858
 1118SOL     OW 5250   6.817  13.214   9.597
 1118SOL    HW1 5251   6.747  13.152   9.619
 1118SOL    HW2 5252   6.852  13.243   9.681
 1119SOL     OW 5253   7.973   1.844   8.061
 1119SOL    HW1 5254   7.994   1.916   8.121
 1119SOL    HW2 5255   7.882   1.858   8.037
 1120SOL     OW 5256   8.757   2.996   8.893
 1120SOL    HW1 5257   8.762   2.901   8.884
 1120SOL    HW2 5258   8.701   3.023   8.820
 1121SOL     OW 5259   0.617   0.174  10.501
 1121SOL    HW1 5260   0.677   0.241  10.533
 1121SOL    HW2 5261   0.562   0.154  10.576
 1122SOL     OW 5262  14.404   2.023  12.512
 1122SOL    HW1 5263  14.373   2.024  12.422
 1122SOL    HW2 5264  14.355   1.952  12.554
 1123SOL     OW 5265  13.984   8.011  13.745
 1123SOL    HW1 5266  13.922   7.940  13.756
 1123SOL    HW2 5267  13.934   8.081  13.703
 1124SOL     OW 5268  11.137   6.433   2.921
 1124SOL    HW1 5269  11.079   6.362   2.949
 1124SOL    HW2 5270  11.116   6.446   2.828
 1125SOL     OW 5271   4.475  11.148   2.328
 1125SOL    HW1 5272   4.508  11.070   2.373
 1125SOL    HW2 5273   4.410  11.115   2.266
 1126SOL     OW 5274   0.686   2.796  12.394
 1126SOL    HW1 5275   0.703   2.821  12.303
 1126SOL    HW2 5276   0.730   2.862  12.446
 1127SOL     OW 5277  12.527   0.667   7.060
 1127SOL    HW1 5278  12.456   0.699   7.115
 1127SOL    HW2 5279  12.572   0.602   7.115
 1128SOL     OW 5280   2.898   5.468   5.144
 1128SOL    HW1 5281   2.984   5.509   5.149
 1128SOL    HW2 5282   2.916   5.374   5.138
 1129SOL     OW 5283   1.837  11.545   2.075
 1129SOL    HW1 5284   1.775  11.559   2.003
 1129SOL    HW2 5285   1.882  11.628   2.084
 1130SOL     OW 5286  10.297   7.247   8.986
 1130SOL    HW1 5287  10.330   7.237   9.075
 1130SOL    HW2 5288  10.209   7.210   8.989
 1131SOL     OW 5289  11.988  13.678   1.704
 1131SOL    HW1 5290  12.043  13.655   1.629
 1131SOL    HW2 5291  11.967  13.594   1.745
 1132SOL     OW 5292   3.226   7.074   4.977
 1132SOL    HW1 5293   3.214   7.169   4.973
 1132SOL    HW2 5294   3.310   7.058   4.935
 1133SOL     OW 5295   7.859   2.968  14.843
 1133SOL    HW1 5296   7.786   2.906  14.849
 1133SOL    HW2 5297   7.932   2.922   0.009
 1134SOL     OW 5298  12.935  10.437   4.485
 1134SOL    HW1 5299  12.981  10.364   4.526
 1134SOL    HW2 5300  12.842  10.417   4.496
 1135SOL     OW 5301   5.864  11.775  10.909
 1135SOL    HW1 5302   5.795  11.788  10.974
 1135SOL    HW2 5303   5.869  11.858  10.862
 1136SOL     OW 5304   4.139   8.031  11.350
 1136SOL    HW1 5305   4.071   8.040  11.282
 1136SOL    HW2 5306   4.093   7.992  11.424
 1137SOL     OW 5307   5.147  11.534   2.118
 1137SOL    HW1 5308   5.084  11.581   2.172
 1137SOL    HW2 5309   5.101  11.456   2.089
 1138SOL     OW 5310  10.401   9.178   7.744
 1138SOL    HW1 5311  10.491   9.202   7.765
 1138SOL    HW2 5312  10.365   9.146   7.827
 1139SOL     OW 5313   2.828  10.498   8.985
 1139SOL    HW1 5314   2.891  10.506   9.056
 1139SOL    HW2 5315   2.881  10.483   8.907
 1140SOL     OW 5316  13.718   7.206  13.012
 1140SOL    HW1 5317  13.758   7.120  13.008
 1140SOL    HW2 5318  13.637   7.193  13.062
 1141SOL     OW 5319   6.195  13.041   6.601
 1141SOL    HW1 5320   6.190  13.046   6.506
 1141SOL    HW2 5321   6.199  12.947   6.620
 1142SOL     OW 5322   9.428  11.235  13.202
 1142SOL    HW1 5323   9.474  11.295  13.144
 1142SOL    HW2 5324   9.484  11.228  13.279
 1143SOL     OW 5325  10.278   3.933   3.919
 1143SOL    HW1 5326  10.356   3.978   3.886
 1143SOL    HW2 5327  10.239   3.892   3.842
 1144SOL     OW 5328   0.634  14.806   4.199
 1144SOL    HW1 5329   0.544  14.781   4.178
 1144SOL    HW2 5330   0.659  14.864   4.127
 1145SOL     OW 5331   9.743  13.937   0.497
 1145SOL    HW1 5332   9.833  13.928   0.467
 1145SOL    HW2 5333   9.693  13.875   0.443
 1146SOL     OW 5334   1.157   4.703  13.828
 1146SOL    HW1 5335   1.082   4.732  13.880
 1146SOL    HW2 5336   1.186   4.782  13.782
 1147SOL     OW 5337   7.119   6.133  14.050
 1147SOL    HW1 5338   7.177   6.162  14.120
 1147SOL    HW2 5339   7.065   6.065  14.089
 1148SOL     OW 5340   6.101   5.422   2.034
 1148SOL    HW1 5341   6.032   5.486   2.015
 1148SOL    HW2 5342   6.061   5.337   2.013
 1149SOL     OW 5343   8.779   3.962   0.285
 1149SOL    HW1 5344   8.737   3.956   0.371
 1149SOL    HW2 5345   8.872   3.956   0.303
 1150SOL     OW 5346   4.951  12.459  11.360
 1150SOL    HW1 5347   4.982  12.370  11.338
 1150SOL    HW2 5348   4.856  12.452  11.358
 1151SOL     OW 5349   7.401   3.458   2.563
 1151SOL    HW1 5350   7.493   3.453   2.590
 1151SOL    HW2 5351   7.404   3.496   2.475
 1152SOL     OW 5352   2.916   7.835  10.948
 1152SOL    HW1 5353   2.963   7.761  10.909
 1152SOL    HW2 5354   2.941   7.833  11.040
 1153SOL     OW 5355   3.237   5.669  12.492
 1153SOL    HW1 5356   3.315   5.714  12.522
 1153SOL    HW2 5357   3.252   5.653  12.399
 1154SOL     OW 5358   4.585   6.131   5.020
 1154SOL    HW1 5359   4.584   6.105   5.112
 1154SOL    HW2 5360   4.493   6.138   4.996
 1155SOL     OW 5361  13.769  10.290   7.155
 1155SOL    HW1 5362  13.793  10.382   7.162
 1155SOL    HW2 5363  13.677  10.292   7.129
 1156SOL     OW 5364   9.070   6.832  12.312
 1156SOL    HW1 5365   9.088   6.872  12.227
 1156SOL    HW2 5366   9.149   6.850  12.364
 1157SOL     OW 5367   2.534   4.172   4.121
 1157SOL    HW1 5368   2.458   4.115   4.109
 1157SOL    HW2 5369   2.555   4.204   4.033
 1158SOL     OW 5370   2.120   6.853   7.928
 1158SOL    HW1 5371   2.179   6.787   7.893
 1158SOL    HW2 5372   2.094   6.905   7.851
 1159SOL     OW 5373   2.029   2.229   1.094
 1159SOL    HW1 5374   2.111   2.199   1.134
 1159SOL    HW2 5375   1.969   2.240   1.168
 1160SOL     OW 5376   3.416  13.475   5.857
 1160SOL    HW1 5377   3.465  13.392   5.860
 1160SOL    HW2 5378   3.453  13.522   5.783
 1161SOL     OW 5379   2.539  13.695  13.019
 1161SOL    HW1 5380   2.548  13.600  13.012
 1161SOL    HW2 5381   2.629  13.727  13.032
 1162SOL     OW 5382   8.961  12.374  14.713
 1162SOL    HW1 5383   8.940  12.281  14.717
 1162SOL    HW2 5384   9.043  12.378  14.663
 1163SOL     OW 5385   5.442   4.333  13.436
 1163SOL    HW1 5386   5.512   4.340  13.372
 1163SOL    HW2 5387   5.475   4.272  13.502
 1164SOL     OW 5388   5.006  13.848  11.910
 1164SOL    HW1 5389   5.025  13.940  11.892
 1164SOL    HW2 5390   5.088  13.812  11.944
 1165SOL     OW 5391   8.168   3.556  14.434
 1165SOL    HW1 5392   8.242   3.520  14.483
 1165SOL    HW2 5393   8.152   3.493  14.364
 1166SOL     OW 5394   7.152   3.066   9.350
 1166SOL    HW1 5395   7.169   3.091   9.441
 1166SOL    HW2 5396   7.067   3.022   9.353
 1167SOL     OW 5397   9.761   8.376   7.377
 1167SOL    HW1 5398   9.800   8.405   7.459
 1167SOL    HW2 5399   9.789   8.285   7.368
 1168SOL     OW 5400   8.676   0.126   8.487
 1168SOL    HW1 5401   8.635   0.140   8.572
 1168SOL    HW2 5402   8.637   0.044   8.455
 1169SOL     OW 5403   0.452  13.872  13.043
 1169SOL    HW1 5404   0.482  13.857  12.953
 1169SOL    HW2 5405   0.368  13.825  13.048
 1170SOL     OW 5406   0.314   5.272   3.022
 1170SOL    HW1 5407   0.345   5.189   3.059
 1170SOL    HW2 5408   0.233   5.290   3.069
 1171SOL     OW 5409   4.701   5.955   3.498
 1171SOL    HW1 5410   4.660   6.041   3.503
 1171SOL    HW2 5411   4.702   5.923   3.588
 1172SOL     OW 5412  14.693   9.417   1.923
 1172SOL    HW1 5413  14.602   9.387   1.917
 1172SOL    HW2 5414  14.694   9.500   1.876
 1173SOL     OW 5415  12.959  14.561   2.554
 1173SOL    HW1 5416  12.882  14.528   2.509
 1173SOL    HW2 5417  12.982  14.642   2.508
 1174SOL     OW 5418   5.911  11.297   9.661
 1174SOL    HW1 5419   5.852  11.329   9.730
 1174SOL    HW2 5420   5.897  11.202   9.660
 1175SOL     OW 5421   6.314  12.917   4.344
 1175SOL    HW1 5422   6.238  12.930   4.401
 1175SOL    HW2 5423   6.376  12.867   4.396
 1176SOL     OW 5424   7.086   3.701  11.110
 1176SOL    HW1 5425   7.178   3.726  11.101
 1176SOL    HW2 5426   7.041   3.784  11.126
 1177SOL     OW 5427  10.803  13.945   5.436
 1177SOL    HW1 5428  10.793  13.862   5.390
 1177SOL    HW2 5429  10.713  13.975   5.451
 1178SOL     OW 5430   2.280  13.977   2.676
 1178SOL    HW1 5431   2.345  14.043   2.700
 1178SOL    HW2 5432   2.331  13.902   2.647
 1179SOL     OW 5433  13.994  14.756   9.823
 1179SOL    HW1 5434  14.015  14.832   9.877
 1179SOL    HW2 5435  13.995  14.789   9.733
 1180SOL     OW 5436  14.523   5.576   5.205
 1180SOL    HW1 5437  14.467   5.550   5.132
 1180SOL    HW2 5438  14.471   5.640   5.254
 1181SOL     OW 5439   6.338   7.365   8.433
 1181SOL    HW1 5440   6.363   7.336   8.346
 1181SOL    HW2 5441   6.253   7.325   8.449
 1182SOL     OW 5442  14.513   4.866   8.110
 1182SOL    HW1 5443  14.582   4.804   8.082
 1182SOL    HW2 5444  14.450   4.864   8.038
 1183SOL     OW 5445   9.513  11.945   6.018
 1183SOL    HW1 5446   9.553  11.932   5.932
 1183SOL    HW2 5447   9.548  11.874   6.072
 1184SOL     OW 5448   1.268   9.215   8.601
 1184SOL    HW1 5449   1.223   9.131   8.599
 1184SOL    HW2 5450   1.316   9.219   8.518
 1185SOL     OW 5451   7.985   5.906   8.243
 1185SOL    HW1 5452   8.044   5.922   8.317
 1185SOL    HW2 5453   7.995   5.813   8.223
 1186SOL     OW 5454  13.356  10.237  10.679
 1186SOL    HW1 5455  13.278  10.196  10.639
 1186SOL    HW2 5456  13.332  10.250  10.770
 1187SOL     OW 5457   5.441  13.685   4.050
 1187SOL    HW1 5458   5.498  13.720   3.981
 1187SOL    HW2 5459   5.484  13.605   4.078
 1188SOL     OW 5460  13.898   2.543  10.676
 1188SOL    HW1 5461  13.890   2.461  10.627
 1188SOL    HW2 5462  13.973   2.588  10.636
 1189SOL     OW 5463   3.133  11.618   3.219
 1189SOL    HW1 5464   3.114  11.671   3.297
 1189SOL    HW2 5465   3.221  11.586   3.234
 1190SOL     OW 5466   6.011   9.203  12.936
 1190SOL    HW1 5467   6.040   9.239  12.853
 1190SOL    HW2 5468   6.025   9.274  12.999
 1191SOL     OW 5469  10.077   1.103  14.150
 1191SOL    HW1 5470  10.149   1.052  14.113
 1191SOL    HW2 5471  10.119   1.162  14.213
 1192SOL     OW 5472  10.855   6.454   4.004
 1192SOL    HW1 5473  10.820   6.371   4.037
 1192SOL    HW2 5474  10.878   6.436   3.913
 1193SOL     OW 5475   7.937  10.365   3.775
 1193SOL    HW1 5476   7.989  10.442   3.753
 1193SOL    HW2 5477   7.991  10.316   3.836
 1194SOL     OW 5478  12.587  13.531  10.078
 1194SOL    HW1 5479  12.526  13.574  10.019
 1194SOL    HW2 5480  12.574  13.573  10.163
 1195SOL     OW 5481   9.780   5.188  11.236
 1195SOL    HW1 5482   9.768   5.096  11.261
 1195SOL    HW2 5483   9.742   5.194  11.148
 1196SOL     OW 5484  12.708   4.903  14.652
 1196SOL    HW1 5485  12.703   4.999  14.656
 1196SOL    HW2 5486  12.712   4.884  14.558
 1197SOL     OW 5487   8.544   7.832  14.049
 1197SOL    HW1 5488   8.514   7.886  14.122
 1197SOL    HW2 5489   8.479   7.848  13.980
 1198SOL     OW 5490   6.189   3.336   4.860
 1198SOL    HW1 5491   6.217   3.325   4.769
 1198SOL    HW2 5492   6.269   3.353   4.908
 1199SOL     OW 5493  13.788   7.924   4.094
 1199SOL    HW1 5494  13.806   7.843   4.046
 1199SOL    HW2 5495  13.714   7.963   4.049
 1200SOL     OW 5496   7.282   9.631   6.954
 1200SOL    HW1 5497   7.208   9.584   6.992
 1200SOL    HW2 5498   7.358   9.575   6.972
 1201SOL     OW 5499   3.536   2.931   5.274
 1201SOL    HW1 5500   3.617   2.969   5.243
 1201SOL    HW2 5501   3.543   2.838   5.253
 1202SOL     OW 5502   4.373   5.180   3.261
 1202SOL    HW1 5503   4.321   5.108   3.296
 1202SOL    HW2 5504   4.346   5.257   3.310
 1203SOL     OW 5505  10.844  12.136   9.609
 1203SOL    HW1 5506  10.934  12.132   9.578
 1203SOL    HW2 5507  10.846  12.099   9.697
 1204SOL     OW 5508   5.094  11.508   2.429
 1204SOL    HW1 5509   5.174  11.522   2.479
 1204SOL    HW2 5510   5.082  11.413   2.429
 1205SOL     OW 5511   0.443   8.441   5.756
 1205SOL    HW1 5512   0.417   8.482   5.673
 1205SOL    HW2 5513   0.368   8.454   5.814
 1206SOL     OW 5514   7.660  11.769   2.141
 1206SOL    HW1 5515   7.628  11.838   2.082
 1206SOL    HW2 5516   7.630  11.687   2.100
 1207SOL     OW 5517   8.986   9.099   6.662
 1207SOL    HW1 5518   9.017   9.079   6.574
 1207SOL    HW2 5519   9.065   9.099   6.716
 1208SOL     OW 5520   8.316  12.899   7.275
 1208SOL    HW1 5521   8.325  12.944   7.191
 1208SOL    HW2 5522   8.231  12.926   7.308
 1209SOL     OW 5523   0.141  13.879  14.544
 1209SOL    HW1 5524   0.104  13.892  14.631
 1209SOL    HW2 5525   0.121  13.959  14.496
 1210SOL     OW 5526  13.218   5.355   3.635
 1210SOL    HW1 5527  13.271   5.400   3.570
 1210SOL    HW2 5528  13.159   5.422   3.669
 1211SOL     OW 5529   0.343  13.834   3.135
 1211SOL    HW1 5530   0.332  13.918   3.179
 1211SOL    HW2 5531   0.361  13.772   3.206
 1212SOL     OW 5532  12.766   2.417  12.162
 1212SOL    HW1 5533  12.828   2.481  12.128
 1212SOL    HW2 5534  12.684   2.465  12.170
 1213SOL     OW 5535   5.731  14.533  13.146
 1213SOL    HW1 5536   5.791  14.603  13.173
 1213SOL    HW2 5537   5.788  14.458  13.129
 1214SOL     OW 5538  13.091   5.664   8.632
 1214SOL    HW1 5539  13.034   5.662   8.709
 1214SOL    HW2 5540  13.090   5.755   8.603
 1215SOL     OW 5541  14.310  14.471  10.807
 1215SOL    HW1 5542  14.233  14.453  10.860
 1215SOL    HW2 5543  14.309  14.403  10.739
 1216SOL     OW 5544   9.568   0.967   4.888
 1216SOL    HW1 5545   9.574   1.035   4.821
 1216SOL    HW2 5546   9.493   0.993   4.942
 1217SOL     OW 5547  11.006   7.038   5.383
 1217SOL    HW1 5548  10.911   7.049   5.379
 1217SOL    HW2 5549  11.025   6.972   5.316
 1218SOL     OW 5550   0.239  10.475   0.646
 1218SOL    HW1 5551   0.301  10.485   0.573
 1218SOL    HW2 5552   0.198  10.390   0.630
 1219SOL     OW 5553   8.129   2.621  10.879
 1219SOL    HW1 5554   8.137   2.604  10.786
 1219SOL    HW2 5555   8.108   2.535  10.917
 1220SOL     OW 5556   5.994   4.352  11.974
 1220SOL    HW1 5557   5.971   4.444  11.965
 1220SOL    HW2 5558   5.998   4.319  11.884
 1221SOL     OW 5559   1.342  10.492   1.731
 1221SOL    HW1 5560   1.420  10.449   1.766
 1221SOL    HW2 5561   1.372  10.536   1.651
 1222SOL     OW 5562  13.976   2.386  13.425
 1222SOL    HW1 5563  13.906   2.407  13.487
 1222SOL    HW2 5564  14.042   2.341  13.478
 1223SOL     OW 5565  13.959   2.479   7.705
 1223SOL    HW1 5566  13.926   2.432   7.628
 1223SOL    HW2 5567  13.923   2.431   7.779
 1224SOL     OW 5568  14.481   4.244   7.744
 1224SOL    HW1 5569  14.542   4.301   7.789
 1224SOL    HW2 5570  14.419   4.217   7.812
 1225SOL     OW 5571  13.979  14.105  12.337
 1225SOL    HW1 5572  13.974  14.188  12.385
 1225SOL    HW2 5573  13.898  14.059  12.360
 1226SOL     OW 5574   1.394  12.944  13.610
 1226SOL    HW1 5575   1.385  12.979  13.522
 1226SOL    HW2 5576   1.461  12.875  13.602
 1227SOL     OW 5577   3.979   6.379   8.215
 1227SOL    HW1 5578   3.927   6.299   8.207
 1227SOL    HW2 5579   4.020   6.372   8.301
 1228SOL     OW 5580   2.065   8.425   3.527
 1228SOL    HW1 5581   2.043   8.476   3.449
 1228SOL    HW2 5582   2.133   8.476   3.571
 1229SOL     OW 5583  11.800   4.211  13.709
 1229SOL    HW1 5584  11.723   4.161  13.683
 1229SOL    HW2 5585  11.868   4.145  13.724
 1230SOL     OW 5586   0.624  12.167  13.337
 1230SOL    HW1 5587   0.629  12.112  13.259
 1230SOL    HW2 5588   0.547  12.222  13.323
 1231SOL     OW 5589   2.912   4.479   9.155
 1231SOL    HW1 5590   2.820   4.472   9.179
 1231SOL    HW2 5591   2.955   4.513   9.233
 1232SOL     OW 5592   3.829  12.742   4.087
 1232SOL    HW1 5593   3.752  12.742   4.029
 1232SOL    HW2 5594   3.860  12.651   4.085
 1233SOL     OW 5595  11.051  11.986   2.264
 1233SOL    HW1 5596  10.987  11.921   2.292
 1233SOL    HW2 5597  11.038  12.060   2.324
 1234SOL     OW 5598   6.993   1.999   2.678
 1234SOL    HW1 5599   7.076   1.950   2.677
 1234SOL    HW2 5600   6.929   1.938   2.641
 1235SOL     OW 5601   2.995   3.007   1.828
 1235SOL    HW1 5602   3.022   3.081   1.882
 1235SOL    HW2 5603   3.062   2.940   1.844
 1236SOL     OW 5604   6.044   5.856  11.291
 1236SOL    HW1 5605   6.021   5.920  11.224
 1236SOL    HW2 5606   6.138   5.865  11.301
 1237SOL     OW 5607  12.735   0.651  12.983
 1237SOL    HW1 5608  12.820   0.646  12.939
 1237SOL    HW2 5609  12.671   0.644  12.912
 1238SOL     OW 5610   5.571  14.303   1.371
 1238SOL    HW1 5611   5.624  14.382   1.377
 1238SOL    HW2 5612   5.482  14.333   1.386
 1239SOL     OW 5613   0.614  11.133   5.200
 1239SOL    HW1 5614   0.562  11.065   5.157
 1239SOL    HW2 5615   0.639  11.193   5.129
 1240SOL     OW 5616  10.124   2.775   0.554
 1240SOL    HW1 5617  10.040   2.754   0.513
 1240SOL    HW2 5618  10.163   2.841   0.496
 1241SOL     OW 5619   6.890   6.096  13.873
 1241SOL    HW1 5620   6.976   6.058  13.857
 1241SOL    HW2 5621   6.886   6.109  13.968
 1242SOL     OW 5622   2.982  12.937   5.451
 1242SOL    HW1 5623   3.044  12.873   5.414
 1242SOL    HW2 5624   2.982  13.009   5.387
 1243SOL     OW 5625   9.502   0.940  11.005
 1243SOL    HW1 5626   9.415   0.918  11.039
 1243SOL    HW2 5627   9.529   1.016  11.057
 1244SOL     OW 5628   4.787  10.091   3.252
 1244SOL    HW1 5629   4.771  10.006   3.210
 1244SOL    HW2 5630   4.784  10.072   3.345
 1245SOL     OW 5631   5.290   8.397   0.220
 1245SOL    HW1 5632   5.310   8.308   0.190
 1245SOL    HW2 5633   5.250   8.385   0.306
 1246SOL     OW 5634   2.487   0.943   5.089
 1246SOL    HW1 5635   2.396   0.912   5.082
 1246SOL    HW2 5636   2.479   1.037   5.103
 1247SOL     OW 5637  12.326  10.847   7.621
 1247SOL    HW1 5638  12.394  10.910   7.601
 1247SOL    HW2 5639  12.245  10.888   7.590
 1248SOL     OW 5640   1.847   6.159  14.243
 1248SOL    HW1 5641   1.916   6.129  14.303
 1248SOL    HW2 5642   1.772   6.105  14.264
 1249SOL     OW 5643   1.981   1.633  13.531
 1249SOL    HW1 5644   2.005   1.584  13.452
 1249SOL    HW2 5645   1.901   1.680  13.507
 1250SOL     OW 5646  11.747   7.097   0.399
 1250SOL    HW1 5647  11.708   7.160   0.338
 1250SOL    HW2 5648  11.739   7.138   0.485
 1251SOL     OW 5649   7.741  10.148  13.814
 1251SOL    HW1 5650   7.823  10.099  13.805
 1251SOL    HW2 5651   7.717  10.137  13.906
 1252SOL     OW 5652  10.530   5.964   9.683
 1252SOL    HW1 5653  10.446   5.943   9.641
 1252SOL    HW2 5654  10.516   6.049   9.723
 1253SOL     OW 5655   1.426   0.905   7.864
 1253SOL    HW1 5656   1.498   0.931   7.922
 1253SOL    HW2 5657   1.357   0.876   7.924
 1254SOL     OW 5658  14.644  12.890  10.968
 1254SOL    HW1 5659  14.726  12.877  10.919
 1254SOL    HW2 5660  14.629  12.805  11.011
 1255SOL     OW 5661   4.605  14.736  12.663
 1255SOL    HW1 5662   4.525  14.685  12.675
 1255SOL    HW2 5663   4.669  14.693  12.720
 1256SOL     OW 5664  10.872  13.780  13.640
 1256SOL    HW1 5665  10.937  13.842  13.608
 1256SOL    HW2 5666  10.889  13.700  13.591
 1257SOL     OW 5667  10.707  11.982   6.006
 1257SOL    HW1 5668  10.773  11.972   6.074
 1257SOL    HW2 5669  10.702  11.896   5.965
 1258SOL     OW 5670   0.970  14.786  13.540
 1258SOL    HW1 5671   0.888  14.770  13.586
 1258SOL    HW2 5672   0.945  14.833  13.461
 1259SOL     OW 5673   8.287  12.160   1.285
 1259SOL    HW1 5674   8.308  12.169   1.378
 1259SOL    HW2 5675   8.346  12.220   1.241
 1260SOL     OW 5676   2.541  13.054   0.747
 1260SOL    HW1 5677   2.516  13.023   0.835
 1260SOL    HW2 5678   2.462  13.039   0.694
 1261SOL     OW 5679   5.812   1.169   9.796
 1261SOL    HW1 5680   5.770   1.201   9.716
 1261SOL    HW2 5681   5.758   1.095   9.824
 1262SOL     OW 5682   4.200   8.866   0.482
 1262SOL    HW1 5683   4.139   8.932   0.514
 1262SOL    HW2 5684   4.256   8.846   0.557
 1263SOL     OW 5685   3.838   5.803  12.493
 1263SOL    HW1 5686   3.846   5.757  12.410
 1263SOL    HW2 5687   3.835   5.896  12.470
 1264SOL     OW 5688  11.652  10.396   4.419
 1264SOL    HW1 5689  11.645  10.442   4.335
 1264SOL    HW2 5690  11.566  10.359   4.433
 1265SOL     OW 5691   2.153   1.058   3.623
 1265SOL    HW1 5692   2.220   0.991   3.623
 1265SOL    HW2 5693   2.088   1.028   3.686
 1266SOL     OW 5694   0.298  11.576  12.965
 1266SOL    HW1 5695   0.326  11.541  12.880
 1266SOL    HW2 5696   0.224  11.520  12.990
 1267SOL     OW 5697   7.894   3.283  13.154
 1267SOL    HW1 5698   7.903   3.259  13.246
 1267SOL    HW2 5699   7.892   3.199  13.108
 1268SOL     OW 5700  14.792   9.876   0.729
 1268SOL    HW1 5701  14.713   9.879   0.784
 1268SOL    HW2 5702  14.770   9.928   0.652
 1269SOL     OW 5703   2.389   1.004   6.685
 1269SOL    HW1 5704   2.310   0.951   6.676
 1269SOL    HW2 5705   2.358   1.095   6.683
 1270SOL     OW 5706   2.473   2.956  13.899
 1270SOL    HW1 5707   2.477   2.994  13.987
 1270SOL    HW2 5708   2.550   2.901  13.893
 1271SOL     OW 5709   5.520   0.008   0.731
 1271SOL    HW1 5710   5.429  14.870   0.754
 1271SOL    HW2 5711   5.539   0.098   0.758
 1272SOL     OW 5712  10.840  11.746   1.309
 1272SOL    HW1 5713  10.863  11.739   1.217
 1272SOL    HW2 5714  10.853  11.838   1.331
 1273SOL     OW 5715  12.359   9.150   9.208
 1273SOL    HW1 5716  12.448   9.179   9.226
 1273SOL    HW2 5717  12.339   9.088   9.278
 1274SOL     OW 5718  11.561   9.996   1.189
 1274SOL    HW1 5719  11.483   9.983   1.244
 1274SOL    HW2 5720  11.561   9.921   1.131
 1275SOL     OW 5721  10.438   5.971   5.778
 1275SOL    HW1 5722  10.505   5.953   5.844
 1275SOL    HW2 5723  10.427   5.889   5.732
 1276SOL     OW 5724   8.146  12.017  13.213
 1276SOL    HW1 5725   8.180  12.049  13.130
 1276SOL    HW2 5726   8.219  12.027  13.274
 1277SOL     OW 5727   9.594   5.166   8.670
 1277SOL    HW1 5728   9.569   5.213   8.750
 1277SOL    HW2 5729   9.687   5.145   8.682
 1278SOL     OW 5730  11.207   8.764  11.439
 1278SOL    HW1 5731  11.251   8.680  11.429
 1278SOL    HW2 5732  11.277   8.824  11.465
 1279SOL     OW 5733   5.563   6.223   7.708
 1279SOL    HW1 5734   5.565   6.135   7.746
 1279SOL    HW2 5735   5.647   6.232   7.663
 1280SOL     OW 5736   9.505   4.532   3.080
 1280SOL    HW1 5737   9.436   4.530   3.147
 1280SOL    HW2 5738   9.582   4.567   3.125
 1281SOL     OW 5739  14.796   8.051  10.223
 1281SOL    HW1 5740  14.825   8.061  10.314
 1281SOL    HW2 5741  14.789   7.956  10.211
 1282SOL     OW 5742  10.673   9.468   2.366
 1282SOL    HW1 5743  10.718   9.452   2.449
 1282SOL    HW2 5744  10.666   9.563   2.360
 1283SOL     OW 5745   0.111   7.056  10.569
 1283SOL    HW1 5746   0.105   7.110  10.490
 1283SOL    HW2 5747   0.020   7.048  10.599
 1284SOL     OW 5748   0.250   3.651   8.781
 1284SOL    HW1 5749   0.188   3.590   8.821
 1284SOL    HW2 5750   0.194   3.718   8.741
 1285SOL     OW 5751   9.542   6.848   9.929
 1285SOL    HW1 5752   9.495   6.798   9.862
 1285SOL    HW2 5753   9.576   6.924   9.883
 1286SOL     OW 5754  12.512   8.231   1.139
 1286SOL    HW1 5755  12.505   8.298   1.071
 1286SOL    HW2 5756  12.433   8.177   1.128
 1287SOL     OW 5757  13.810  11.191   7.240
 1287SOL    HW1 5758  13.746  11.131   7.278
 1287SOL    HW2 5759  13.766  11.228   7.164
 1288SOL     OW 5760  12.939  14.402   7.554
 1288SOL    HW1 5761  12.901  14.336   7.612
 1288SOL    HW2 5762  12.951  14.478   7.609
 1289SOL     OW 5763   6.706   8.451  11.839
 1289SOL    HW1 5764   6.662   8.424  11.920
 1289SOL    HW2 5765   6.640   8.500  11.790
 1290SOL     OW 5766   8.655  13.797   6.607
 1290SOL    HW1 5767   8.578  13.840   6.644
 1290SOL    HW2 5768   8.631  13.778   6.517
 1291SOL     OW 5769   0.064   8.831   2.908
 1291SOL    HW1 5770   0.135   8.771   2.882
 1291SOL    HW2 5771   0.037   8.872   2.826
 1292SOL     OW 5772   0.299   1.154   8.320
 1292SOL    HW1 5773   0.392   1.172   8.334
 1292SOL    HW2 5774   0.293   1.130   8.228
 1293SOL     OW 5775   7.175   2.008   8.303
 1293SOL    HW1 5776   7.254   2.014   8.358
 1293SOL    HW2 5777   7.186   1.925   8.256
 1294SOL     OW 5778  13.902   4.341  11.743
 1294SOL    HW1 5779  13.953   4.264  11.767
 1294SOL    HW2 5780  13.851   4.314  11.667
 1295SOL     OW 5781   1.278  11.761   3.652
 1295SOL    HW1 5782   1.353  11.701   3.658
 1295SOL    HW2 5783   1.244  11.748   3.563
 1296SOL     OW 5784  13.957   6.709   5.743
 1296SOL    HW1 5785  13.873   6.686   5.782
 1296SOL    HW2 5786  13.999   6.766   5.808
 1297SOL     OW 5787  10.218   7.331   5.570
 1297SOL    HW1 5788  10.249   7.326   5.479
 1297SOL    HW2 5789  10.244   7.247   5.609
 1298SOL     OW 5790   3.061   8.531  10.305
 1298SOL    HW1 5791   3.027   8.616  10.334
 1298SOL    HW2 5792   3.097   8.491  10.384
 1299SOL     OW 5793   2.882   4.302   0.783
 1299SOL    HW1 5794   2.893   4.364   0.854
 1299SOL    HW2 5795   2.971   4.285   0.751
 1300SOL     OW 5796   8.107   3.461  14.185
 1300SOL    HW1 5797   8.114   3.450  14.090
 1300SOL    HW2 5798   8.075   3.550  14.196
 1301SOL     OW 5799   3.591   1.675   1.785
 1301SOL    HW1 5800   3.603   1.581   1.782
 1301SOL    HW2 5801   3.650   1.709   1.717
 1302SOL     OW 5802  14.783  11.539   7.458
 1302SOL    HW1 5803  14.815  11.583   7.379
 1302SOL    HW2 5804  14.693  11.570   7.468
 1303SOL     OW 5805  13.438   2.204   8.375
 1303SOL    HW1 5806  13.400   2.154   8.303
 1303SOL    HW2 5807  13.484   2.276   8.333
 1304SOL     OW 5808   8.407  14.199  12.916
 1304SOL    HW1 5809   8.338  14.255  12.879
 1304SOL    HW2 5810   8.364  14.115  12.931
 1305SOL     OW 5811   6.090   4.892   2.798
 1305SOL    HW1 5812   6.100   4.984   2.821
 1305SOL    HW2 5813   6.018   4.890   2.735
 1306SOL     OW 5814   0.153   3.927   3.490
 1306SOL    HW1 5815   0.120   3.849   3.444
 1306SOL    HW2 5816   0.083   3.949   3.552
 1307SOL     OW 5817   5.984   5.527   2.822
 1307SOL    HW1 5818   6.031   5.546   2.740
 1307SOL    HW2 5819   5.925   5.455   2.800
 1308SOL     OW 5820   3.726   2.617   5.626
 1308SOL    HW1 5821   3.769   2.557   5.566
 1308SOL    HW2 5822   3.635   2.620   5.597
 1309SOL     OW 5823  14.503  10.455   1.028
 1309SOL    HW1 5824  14.444  10.430   1.099
 1309SOL    HW2 5825  14.591  10.435   1.061
 1310SOL     OW 5826   9.119   1.534   0.683
 1310SOL    HW1 5827   9.170   1.547   0.602
 1310SOL    HW2 5828   9.151   1.451   0.718
 1311SOL     OW 5829  13.215  13.874  14.273
 1311SOL    HW1 5830  13.230  13.785  14.240
 1311SOL    HW2 5831  13.121  13.887  14.264
 1312SOL     OW 5832  14.428   4.331   5.045
 1312SOL    HW1 5833  14.347   4.352   4.999
 1312SOL    HW2 5834  14.465   4.258   4.996
 1313SOL     OW 5835   8.723   9.742   7.915
 1313SOL    HW1 5836   8.754   9.654   7.893
 1313SOL    HW2 5837   8.647   9.727   7.972
 1314SOL     OW 5838   8.730  12.920  14.410
 1314SOL    HW1 5839   8.674  12.852  14.373
 1314SOL    HW2 5840   8.812  12.874  14.431
 1315SOL     OW 5841   0.200   8.760   6.804
 1315SOL    HW1 5842   0.200   8.665   6.796
 1315SOL    HW2 5843   0.166   8.777   6.892
 1316SOL     OW 5844   0.532   2.695  10.074
 1316SOL    HW1 5845   0.573   2.628  10.127
 1316SOL    HW2 5846   0.547   2.777  10.122
 1317SOL     OW 5847   8.656   6.447   1.590
 1317SOL    HW1 5848   8.688   6.488   1.671
 1317SOL    HW2 5849   8.585   6.504   1.561
 1318SOL     OW 5850  10.550   9.235  11.083
 1318SOL    HW1 5851  10.623   9.290  11.056
 1318SOL    HW2 5852  10.590   9.159  11.124
 1319SOL     OW 5853   8.980   7.754  11.261
 1319SOL    HW1 5854   8.940   7.673  11.292
 1319SOL    HW2 5855   8.909   7.802  11.218
 1320SOL     OW 5856   7.183   5.727   7.159
 1320SOL    HW1 5857   7.179   5.689   7.247
 1320SOL    HW2 5858   7.200   5.819   7.174
 1321SOL     OW 5859   0.556   3.576  14.799
 1321SOL    HW1 5860   0.489   3.516  14.766
 1321SOL    HW2 5861   0.608   3.523  14.859
 1322SOL     OW 5862   1.268   0.443  13.388
 1322SOL    HW1 5863   1.252   0.448  13.482
 1322SOL    HW2 5864   1.253   0.533  13.357
 1323SOL     OW 5865   4.882   2.637   1.015
 1323SOL    HW1 5866   4.910   2.694   0.942
 1323SOL    HW2 5867   4.800   2.676   1.044
 1324SOL     OW 5868  10.295   9.624   1.274
 1324SOL    HW1 5869  10.206   9.605   1.303
 1324SOL    HW2 5870  10.340   9.652   1.353
 1325SOL     OW 5871  11.402  14.019  10.586
 1325SOL    HW1 5872  11.433  13.964  10.514
 1325SOL    HW2 5873  11.350  13.961  10.641
 1326SOL     OW 5874   7.747   1.262   2.506
 1326SOL    HW1 5875   7.813   1.254   2.575
 1326SOL    HW2 5876   7.786   1.221   2.429
 1327SOL     OW 5877   1.529   4.216  10.398
 1327SOL    HW1 5878   1.530   4.270  10.319
 1327SOL    HW2 5879   1.538   4.279  10.470
 1328SOL     OW 5880   4.182   9.028   0.027
 1328SOL    HW1 5881   4.267   9.068   0.007
 1328SOL    HW2 5882   4.187   8.940  14.865
 1329SOL     OW 5883   3.548  11.580  13.568
 1329SOL    HW1 5884   3.471  11.524  13.571
 1329SOL    HW2 5885   3.616  11.531  13.613
 1330SOL     OW 5886   4.203  12.922   5.403
 1330SOL    HW1 5887   4.227  12.863   5.332
 1330SOL    HW2 5888   4.281  12.928   5.457
 1331SOL     OW 5889  11.169   2.756   4.107
 1331SOL    HW1 5890  11.182   2.735   4.015
 1331SOL    HW2 5891  11.118   2.682   4.141
 1332SOL     OW 5892   1.944   3.223   9.936
 1332SOL    HW1 5893   2.010   3.280   9.975
 1332SOL    HW2 5894   1.981   3.135   9.946
 1333SOL     OW 5895   1.175   4.455  12.181
 1333SOL    HW1 5896   1.146   4.404  12.256
 1333SOL    HW2 5897   1.233   4.395  12.133
 1334SOL     OW 5898   9.344  10.443   3.179
 1334SOL    HW1 5899   9.439  10.455   3.177
 1334SOL    HW2 5900   9.329  10.381   3.251
 1335SOL     OW 5901  11.571   1.630   1.843
 1335SOL    HW1 5902  11.525   1.552   1.874
 1335SOL    HW2 5903  11.504   1.698   1.839
 1336SOL     OW 5904   9.517  10.546   3.519
 1336SOL    HW1 5905   9.577  10.600   3.571
 1336SOL    HW2 5906   9.431  10.561   3.560
 1337SOL     OW 5907   2.094   2.002   6.577
 1337SOL    HW1 5908   2.176   2.050   6.566
 1337SOL    HW2 5909   2.121   1.910   6.589
 1338SOL     OW 5910   4.859   8.468   9.435
 1338SOL    HW1 5911   4.807   8.502   9.508
 1338SOL    HW2 5912   4.840   8.527   9.362
 1339SOL     OW 5913  12.754  14.023   5.181
 1339SOL    HW1 5914  12.768  14.106   5.136
 1339SOL    HW2 5915  12.788  13.956   5.121
 1340SOL     OW 5916   7.342   1.725  11.800
 1340SOL    HW1 5917   7.342   1.678  11.883
 1340SOL    HW2 5918   7.413   1.687  11.750
 1341SOL     OW 5919  10.554   3.557   3.251
 1341SOL    HW1 5920  10.564   3.603   3.167
 1341SOL    HW2 5921  10.468   3.583   3.282
 1342SOL     OW 5922  12.850   2.851   0.610
 1342SOL    HW1 5923  12.762   2.875   0.641
 1342SOL    HW2 5924  12.883   2.932   0.569
 1343SOL     OW 5925   4.225   6.162   6.415
 1343SOL    HW1 5926   4.302   6.167   6.358
 1343SOL    HW2 5927   4.184   6.078   6.391
 1344SOL     OW 5928   7.352   3.166   9.903
 1344SOL    HW1 5929   7.284   3.218   9.945
 1344SOL    HW2 5930   7.356   3.199   9.813
 1345SOL     OW 5931   1.196   4.983   1.946
 1345SOL    HW1 5932   1.242   5.067   1.938
 1345SOL    HW2 5933   1.110   5.006   1.981
 1346SOL     OW 5934   0.053   4.626  11.951
 1346SOL    HW1 5935   0.101   4.589  11.876
 1346SOL    HW2 5936   0.102   4.706  11.973
 1347SOL     OW 5937   6.889   0.879   6.885
 1347SOL    HW1 5938   6.982   0.902   6.886
 1347SOL    HW2 5939   6.876   0.834   6.802
 1348SOL     OW 5940   3.938  10.728   6.890
 1348SOL    HW1 5941   3.938  10.824   6.882
 1348SOL    HW2 5942   3.942  10.696   6.800
 1349SOL     OW 5943   0.085   3.665   2.582
 1349SOL    HW1 5944   0.104   3.744   2.633
 1349SOL    HW2 5945   0.003   3.686   2.537
 1350SOL     OW 5946   2.779   8.809  14.700
 1350SOL    HW1 5947   2.709   8.776  14.643
 1350SOL    HW2 5948   2.842   8.737  14.704
 1351SOL     OW 5949  12.083   7.485   7.845
 1351SOL    HW1 5950  12.169   7.454   7.816
 1351SOL    HW2 5951  12.084   7.475   7.940
 1352SOL     OW 5952   4.645  11.837   5.628
 1352SOL    HW1 5953   4.706  11.844   5.701
 1352SOL    HW2 5954   4.693  11.788   5.561
 1353SOL     OW 5955   1.525  14.088  12.733
 1353SOL    HW1 5956   1.523  13.993  12.728
 1353SOL    HW2 5957   1.560  14.115  12.648
 1354SOL     OW 5958   8.206  14.173   6.479
 1354SOL    HW1 5959   8.287  14.124   6.474
 1354SOL    HW2 5960   8.204  14.208   6.569
 1355SOL     OW 5961   7.209  14.684   8.856
 1355SOL    HW1 5962   7.245  14.652   8.938
 1355SOL    HW2 5963   7.188  14.776   8.874
 1356SOL     OW 5964   0.042   0.343  14.726
 1356SOL    HW1 5965   0.057   0.369  14.817
 1356SOL    HW2 5966  14.843   0.396  14.698
 1357SOL     OW 5967   4.276   0.731  14.754
 1357SOL    HW1 5968   4.369   0.733  14.776
 1357SOL    HW2 5969   4.244   0.649  14.790
 1358SOL     OW 5970   5.882   7.574   1.295
 1358SOL    HW1 5971   5.831   7.533   1.225
 1358SOL    HW2 5972   5.931   7.502   1.334
 1359SOL     OW 5973   8.785  13.997   1.867
 1359SOL    HW1 5974   8.877  13.971   1.868
 1359SOL    HW2 5975   8.773  14.039   1.782
 1360SOL     OW 5976   4.351  13.548   0.351
 1360SOL    HW1 5977   4.277  13.547   0.412
 1360SOL    HW2 5978   4.429  13.549   0.407
 1361SOL     OW 5979  11.579  10.196   7.224
 1361SOL    HW1 5980  11.643  10.154   7.167
 1361SOL    HW2 5981  11.494  10.179   7.182
 1362SOL     OW 5982   1.957   9.899   0.872
 1362SOL    HW1 5983   2.038   9.862   0.838
 1362SOL    HW2 5984   1.909   9.928   0.794
 1363SOL     OW 5985   4.756   0.619   8.523
 1363SOL    HW1 5986   4.828   0.643   8.581
 1363SOL    HW2 5987   4.771   0.672   8.444
 1364SOL     OW 5988  12.627   6.666   8.813
 1364SOL    HW1 5989  12.547   6.714   8.793
 1364SOL    HW2 5990  12.599   6.574   8.817
 1365SOL     OW 5991   2.875   0.365  13.531
 1365SOL    HW1 5992   2.832   0.431  13.584
 1365SOL    HW2 5993   2.814   0.291  13.529
 1366SOL     OW 5994   6.491  14.199  14.592
 1366SOL    HW1 5995   6.404  14.160  14.594
 1366SOL    HW2 5996   6.539  14.156  14.663
 1367SOL     OW 5997  10.010   9.191   9.583
 1367SOL    HW1 5998   9.919   9.195   9.555
 1367SOL    HW2 5999  10.018   9.260   9.649
 1368SOL     OW 6000  13.914  10.291   8.932
 1368SOL    HW1 6001  13.965  10.226   8.980
 1368SOL    HW2 6002  13.824  10.258   8.935
 1369SOL     OW 6003   6.243   1.384  12.886
 1369SOL    HW1 6004   6.189   1.385  12.965
 1369SOL    HW2 6005   6.325   1.425  12.912
 1370SOL     OW 6006   4.725   0.264   6.082
 1370SOL    HW1 6007   4.696   0.279   5.992
 1370SOL    HW2 6008   4.737   0.169   6.088
 1371SOL     OW 6009  13.516  13.974  11.830
 1371SOL    HW1 6010  13.487  13.893  11.871
 1371SOL    HW2 6011  13.461  13.983  11.753
 1372SOL     OW 6012  11.819   3.570  10.205
 1372SOL    HW1 6013  11.793   3.478  10.205
 1372SOL    HW2 6014  11.741   3.618  10.234
 1373SOL     OW 6015   8.368   5.361   3.816
 1373SOL    HW1 6016   8.419   5.440   3.836
 1373SOL    HW2 6017   8.331   5.378   3.730
 1374SOL     OW 6018   0.618  10.311   4.883
 1374SOL    HW1 6019   0.541  10.349   4.842
 1374SOL    HW2 6020   0.590  10.288   4.972
 1375SOL     OW 6021  12.057   0.701   3.119
 1375SOL    HW1 6022  12.118   0.727   3.050
 1375SOL    HW2 6023  12.004   0.632   3.080
 1376SOL     OW 6024  12.305   6.634   6.483
 1376SOL    HW1 6025  12.254   6.566   6.528
 1376SOL    HW2 6026  12.333   6.693   6.553
 1377SOL     OW 6027   4.097   9.985   8.855
 1377SOL    HW1 6028   4.189   9.986   8.829
 1377SOL    HW2 6029   4.080  10.074   8.886
 1378SOL     OW 6030  10.934   3.110  10.991
 1378SOL    HW1 6031  10.870   3.170  10.952
 1378SOL    HW2 6032  10.910   3.106  11.083
 1379SOL     OW 6033  13.593   7.158  11.575
 1379SOL    HW1 6034  13.531   7.124  11.639
 1379SOL    HW2 6035  13.652   7.085  11.557
 1380SOL     OW 6036   0.972  14.102  11.042
 1380SOL    HW1 6037   0.907  14.081  10.975
 1380SOL    HW2 6038   1.042  14.038  11.028
 1381SOL     OW 6039   7.996  13.427   8.437
 1381SOL    HW1 6040   8.019  13.498   8.496
 1381SOL    HW2 6041   8.070  13.422   8.376
 1382SOL     OW 6042  11.272   1.674   5.769
 1382SOL    HW1 6043  11.234   1.588   5.749
 1382SOL    HW2 6044  11.306   1.664   5.858
 1383SOL     OW 6045   0.728   2.792   2.493
 1383SOL    HW1 6046   0.695   2.707   2.463
 1383SOL    HW2 6047   0.652   2.836   2.531
 1384SOL     OW 6048   3.375   8.526   3.573
 1384SOL    HW1 6049   3.359   8.506   3.665
 1384SOL    HW2 6050   3.355   8.620   3.565
 1385SOL     OW 6051  14.167  10.124   4.105
 1385SOL    HW1 6052  14.109  10.175   4.047
 1385SOL    HW2 6053  14.109  10.060   4.146
 1386SOL     OW 6054   0.534   1.723   1.485
 1386SOL    HW1 6055   0.545   1.745   1.392
 1386SOL    HW2 6056   0.594   1.650   1.500
 1387SOL     OW 6057   9.651  13.104   4.831
 1387SOL    HW1 6058   9.671  13.047   4.906
 1387SOL    HW2 6059   9.723  13.089   4.770
 1388SOL     OW 6060  11.893   7.673  13.760
 1388SOL    HW1 6061  11.889   7.587  13.802
 1388SOL    HW2 6062  11.857   7.733  13.824
 1389SOL     OW 6063   8.716  14.292   5.993
 1389SOL    HW1 6064   8.711  14.202   6.028
 1389SOL    HW2 6065   8.807  14.299   5.962
 1390SOL     OW 6066  11.645  10.724   8.087
 1390SOL    HW1 6067  11.624  10.667   8.160
 1390SOL    HW2 6068  11.736  10.751   8.103
 1391SOL     OW 6069  13.325   2.261   0.151
 1391SOL    HW1 6070  13.242   2.275   0.106
 1391SOL    HW2 6071  13.385   2.322   0.110
 1392SOL     OW 6072   3.350  11.497  14.370
 1392SOL    HW1 6073   3.341  11.563  14.439
 1392SOL    HW2 6074   3.302  11.421  14.403
 1393SOL     OW 6075  11.091   4.712  12.419
 1393SOL    HW1 6076  11.100   4.641  12.355
 1393SOL    HW2 6077  11.079   4.667  12.503
 1394SOL     OW 6078   5.819   9.777   1.163
 1394SOL    HW1 6079   5.777   9.692   1.179
 1394SOL    HW2 6080   5.749   9.832   1.129
 1395SOL     OW 6081   8.102   5.491   7.107
 1395SOL    HW1 6082   8.095   5.512   7.200
 1395SOL    HW2 6083   8.140   5.403   7.105
 1396SOL     OW 6084   9.468   5.047  11.166
 1396SOL    HW1 6085   9.467   5.113  11.096
 1396SOL    HW2 6086   9.558   5.015  11.168
 1397SOL     OW 6087   5.979  14.149  11.825
 1397SOL    HW1 6088   6.043  14.149  11.754
 1397SOL    HW2 6089   5.962  14.056  11.842
 1398SOL     OW 6090   3.119  12.087  10.576
 1398SOL    HW1 6091   3.144  12.140  10.500
 1398SOL    HW2 6092   3.189  12.104  10.640
 1399SOL     OW 6093   7.474   5.740  12.363
 1399SOL    HW1 6094   7.381   5.743  12.341
 1399SOL    HW2 6095   7.516   5.699  12.287
 1400SOL     OW 6096   3.121   5.431  13.508
 1400SOL    HW1 6097   3.100   5.347  13.550
 1400SOL    HW2 6098   3.137   5.491  13.580
 1401SOL     OW 6099   5.374  10.331   1.998
 1401SOL    HW1 6100   5.426  10.271   1.945
 1401SOL    HW2 6101   5.439  10.378   2.052
 1402SOL     OW 6102   8.209   2.391   8.007
 1402SOL    HW1 6103   8.225   2.452   7.935
 1402SOL    HW2 6104   8.259   2.427   8.080
 1403SOL     OW 6105   6.363   6.549   1.661
 1403SOL    HW1 6106   6.309   6.471   1.643
 1403SOL    HW2 6107   6.448   6.513   1.687
 1404SOL     OW 6108   3.119  11.248   9.910
 1404SOL    HW1 6109   3.141  11.323   9.856
 1404SOL    HW2 6110   3.040  11.274   9.957
 1405SOL     OW 6111   4.036   4.130   0.358
 1405SOL    HW1 6112   3.973   4.166   0.296
 1405SOL    HW2 6113   4.118   4.126   0.309
 1406SOL     OW 6114  12.936   4.652  12.946
 1406SOL    HW1 6115  12.906   4.704  13.021
 1406SOL    HW2 6116  12.855   4.624  12.903
 1407SOL     OW 6117   3.192   6.404  12.719
 1407SOL    HW1 6118   3.110   6.438  12.684
 1407SOL    HW2 6119   3.175   6.389  12.812
 1408SOL     OW 6120   3.056   5.226  10.381
 1408SOL    HW1 6121   3.069   5.319  10.363
 1408SOL    HW2 6122   3.109   5.181  10.315
 1409SOL     OW 6123   4.345   5.054   1.764
 1409SOL    HW1 6124   4.251   5.035   1.755
 1409SOL    HW2 6125   4.348   5.146   1.789
 1410SOL     OW 6126   7.584   5.882   1.730
 1410SOL    HW1 6127   7.489   5.870   1.731
 1410SOL    HW2 6128   7.599   5.948   1.662
 1411SOL     OW 6129  13.600   2.213   1.697
 1411SOL    HW1 6130  13.606   2.192   1.604
 1411SOL    HW2 6131  13.675   2.270   1.713
 1412SOL     OW 6132   4.139   6.926  13.162
 1412SOL    HW1 6133   4.043   6.926  13.161
 1412SOL    HW2 6134   4.163   6.956  13.074
 1413SOL     OW 6135  12.484   7.213  10.705
 1413SOL    HW1 6136  12.461   7.191  10.795
 1413SOL    HW2 6137  12.429   7.157  10.651
 1414SOL     OW 6138   7.153  10.122  10.662
 1414SOL    HW1 6139   7.064  10.089  10.676
 1414SOL    HW2 6140   7.210  10.047  10.678
 1415SOL     OW 6141   1.489  11.878   2.197
 1415SOL    HW1 6142   1.561  11.921   2.244
 1415SOL    HW2 6143   1.411  11.906   2.244
 1416SOL     OW 6144   9.889  13.633   1.375
 1416SOL    HW1 6145   9.859  13.723   1.388
 1416SOL    HW2 6146   9.979  13.642   1.346
 1417SOL     OW 6147   0.944  13.764   7.694
 1417SOL    HW1 6148   0.951  13.696   7.627
 1417SOL    HW2 6149   0.888  13.831   7.654
 1418SOL     OW 6150   7.683   0.450  11.690
 1418SOL    HW1 6151   7.687   0.354  11.682
 1418SOL    HW2 6152   7.774   0.478  11.680
 1419SOL     OW 6153  10.140  13.550  12.806
 1419SOL    HW1 6154  10.104  13.461  12.802
 1419SOL    HW2 6155  10.062  13.607  12.811
 1420SOL     OW 6156   7.591   8.565   2.848
 1420SOL    HW1 6157   7.551   8.574   2.935
 1420SOL    HW2 6158   7.516   8.557   2.789
 1421SOL     OW 6159  10.764   9.982   5.221
 1421SOL    HW1 6160  10.728  10.064   5.188
 1421SOL    HW2 6161  10.767   9.924   5.144
 1422SOL     OW 6162   4.346   9.830  13.917
 1422SOL    HW1 6163   4.283   9.759  13.929
 1422SOL    HW2 6164   4.428   9.785  13.896
 1423SOL     OW 6165   1.019   4.607   5.886
 1423SOL    HW1 6166   1.050   4.676   5.826
 1423SOL    HW2 6167   0.956   4.557   5.834
 1424SOL     OW 6168   3.853   0.598  11.885
 1424SOL    HW1 6169   3.801   0.521  11.906
 1424SOL    HW2 6170   3.877   0.587  11.793
 1425SOL     OW 6171   2.085   3.124   8.522
 1425SOL    HW1 6172   2.003   3.075   8.516
 1425SOL    HW2 6173   2.067   3.194   8.585
 1426SOL     OW 6174   7.821   1.200   5.637
 1426SOL    HW1 6175   7.825   1.285   5.681
 1426SOL    HW2 6176   7.867   1.140   5.696
 1427SOL     OW 6177   6.937   6.551   1.770
 1427SOL    HW1 6178   7.017   6.562   1.822
 1427SOL    HW2 6179   6.944   6.462   1.735
 1428SOL     OW 6180   7.599   0.162   1.425
 1428SOL    HW1 6181   7.588   0.239   1.480
 1428SOL    HW2 6182   7.513   0.147   1.386
 1429SOL     OW 6183  14.001   3.829   5.980
 1429SOL    HW1 6184  13.978   3.741   5.950
 1429SOL    HW2 6185  14.097   3.827   5.988
 1430SOL     OW 6186   1.726  14.069  13.253
 1430SOL    HW1 6187   1.632  14.068  13.271
 1430SOL    HW2 6188   1.754  13.979  13.270
 1431SOL     OW 6189  11.125  11.713   1.410
 1431SOL    HW1 6190  11.169  11.655   1.348
 1431SOL    HW2 6191  11.049  11.664   1.440
 1432SOL     OW 6192   3.891  11.671   6.197
 1432SOL    HW1 6193   3.891  11.730   6.122
 1432SOL    HW2 6194   3.956  11.708   6.257
 1433SOL     OW 6195   4.841   0.794   8.910
 1433SOL    HW1 6196   4.927   0.754   8.924
 1433SOL    HW2 6197   4.789   0.764   8.985
 1434SOL     OW 6198   2.705  10.833   7.213
 1434SOL    HW1 6199   2.723  10.739   7.204
 1434SOL    HW2 6200   2.659  10.840   7.297
 1435SOL     OW 6201   0.037   9.360   5.715
 1435SOL    HW1 6202  14.820   9.382   5.702
 1435SOL    HW2 6203   0.076   9.367   5.627
 1436SOL     OW 6204   6.626   2.054   9.418
 1436SOL    HW1 6205   6.598   2.144   9.399
 1436SOL    HW2 6206   6.562   2.022   9.481
 1437SOL     OW 6207   4.587  14.775   9.751
 1437SOL    HW1 6208   4.623  14.809   9.669
 1437SOL    HW2 6209   4.497  14.808   9.754
 1438SOL     OW 6210  11.450   1.660  10.184
 1438SOL    HW1 6211  11.398   1.705  10.117
 1438SOL    HW2 6212  11.421   1.570  10.181
 1439SOL     OW 6213   3.436   6.542   2.409
 1439SOL    HW1 6214   3.422   6.631   2.441
 1439SOL    HW2 6215   3.494   6.553   2.333
 1440SOL     OW 6216   2.419   4.980   1.171
 1440SOL    HW1 6217   2.460   5.062   1.143
 1440SOL    HW2 6218   2.387   4.941   1.089
 1441SOL     OW 6219   3.402   5.167  11.441
 1441SOL    HW1 6220   3.431   5.091  11.391
 1441SOL    HW2 6221   3.325   5.136  11.489
 1442SOL     OW 6222   4.862   6.715  11.468
 1442SOL    HW1 6223   4.945   6.699  11.423
 1442SOL    HW2 6224   4.800   6.657  11.424
 1443SOL     OW 6225   3.650   0.581   0.574
 1443SOL    HW1 6226   3.689   0.667   0.559
 1443SOL    HW2 6227   3.566   0.584   0.529
 1444SOL     OW 6228   8.312  13.341   6.373
 1444SOL    HW1 6229   8.333  13.248   6.364
 1444SOL    HW2 6230   8.257  13.361   6.297
 1445SOL     OW 6231   5.115   6.088   4.813
 1445SOL    HW1 6232   5.139   5.998   4.836
 1445SOL    HW2 6233   5.090   6.128   4.897
 1446SOL     OW 6234   8.727   9.619   6.443
 1446SOL    HW1 6235   8.684   9.585   6.522
 1446SOL    HW2 6236   8.748   9.541   6.392
 1447SOL     OW 6237   2.148  13.269   0.900
 1447SOL    HW1 6238   2.057  13.239   0.904
 1447SOL    HW2 6239   2.142  13.359   0.867
 1448SOL     OW 6240  11.398  11.051  14.636
 1448SOL    HW1 6241  11.481  11.008  14.613
 1448SOL    HW2 6242  11.375  11.016  14.721
 1449SOL     OW 6243   8.368  13.961  14.005
 1449SOL    HW1 6244   8.347  13.992  13.917
 1449SOL    HW2 6245   8.434  13.893  13.992
 1450SOL     OW 6246   5.356   0.713  12.020
 1450SOL    HW1 6247   5.263   0.718  12.040
 1450SOL    HW2 6248   5.392   0.653  12.085
 1451SOL     OW 6249   2.250  10.326   3.831
 1451SOL    HW1 6250   2.328  10.334   3.886
 1451SOL    HW2 6251   2.279  10.276   3.755
 1452SOL     OW 6252   9.471  12.116  13.620
 1452SOL    HW1 6253   9.449  12.026  13.595
 1452SOL    HW2 6254   9.500  12.157  13.539
 1453SOL     OW 6255   9.496   8.084   7.484
 1453SOL    HW1 6256   9.508   7.990   7.472
 1453SOL    HW2 6257   9.470   8.093   7.576
 1454SOL     OW 6258   7.903   1.526  11.282
 1454SOL    HW1 6259   7.910   1.532  11.378
 1454SOL    HW2 6260   7.811   1.503  11.267
 1455SOL     OW 6261   8.367   2.322   9.106
 1455SOL    HW1 6262   8.318   2.369   9.038
 1455SOL    HW2 6263   8.455   2.359   9.100
 1456SOL     OW 6264  11.521  14.782   9.273
 1456SOL    HW1 6265  11.429  14.757   9.282
 1456SOL    HW2 6266  11.552  14.732   9.198
 1457SOL     OW 6267   6.884   3.275   1.632
 1457SOL    HW1 6268   6.926   3.361   1.620
 1457SOL    HW2 6269   6.814   3.274   1.566
 1458SOL     OW 6270  14.494   3.126   6.713
 1458SOL    HW1 6271  14.572   3.071   6.702
 1458SOL    HW2 6272  14.492   3.146   6.807
 1459SOL     OW 6273  12.676  12.644  13.069
 1459SOL    HW1 6274  12.635  12.566  13.107
 1459SOL    HW2 6275  12.757  12.612  13.030
 1460SOL     OW 6276  10.114  12.437   6.521
 1460SOL    HW1 6277  10.040  12.378   6.538
 1460SOL    HW2 6278  10.190  12.392   6.558
 1461SOL     OW 6279   9.964   9.780   1.310
 1461SOL    HW1 6280   9.878   9.770   1.351
 1461SOL    HW2 6281   9.954   9.856   1.253
 1462SOL     OW 6282   4.888  13.141   3.056
 1462SOL    HW1 6283   4.931  13.192   2.987
 1462SOL    HW2 6284   4.952  13.136   3.126
 1463SOL     OW 6285  11.089   0.107   0.582
 1463SOL    HW1 6286  11.124   0.144   0.663
 1463SOL    HW2 6287  11.041   0.180   0.542
 1464SOL     OW 6288   6.939   6.059   6.771
 1464SOL    HW1 6289   7.023   6.046   6.813
 1464SOL    HW2 6290   6.929   5.983   6.713
 1465SOL     OW 6291   5.506   9.147   1.336
 1465SOL    HW1 6292   5.459   9.213   1.386
 1465SOL    HW2 6293   5.588   9.134   1.383
 1466SOL     OW 6294   3.655  10.072   1.797
 1466SOL    HW1 6295   3.743  10.110   1.785
 1466SOL    HW2 6296   3.603  10.108   1.725
 1467SOL     OW 6297  11.326   7.858   5.554
 1467SOL    HW1 6298  11.237   7.840   5.584
 1467SOL    HW2 6299  11.346   7.785   5.495
 1468SOL     OW 6300   0.523   9.726   4.418
 1468SOL    HW1 6301   0.463   9.755   4.350
 1468SOL    HW2 6302   0.554   9.806   4.460
 1469SOL     OW 6303   1.752   1.522   6.606
 1469SOL    HW1 6304   1.731   1.429   6.607
 1469SOL    HW2 6305   1.823   1.530   6.543
 1470SOL     OW 6306  12.814   9.923   7.897
 1470SOL    HW1 6307  12.888   9.979   7.875
 1470SOL    HW2 6308  12.826   9.904   7.990
 1471SOL     OW 6309   6.723   7.923   7.580
 1471SOL    HW1 6310   6.731   7.839   7.623
 1471SOL    HW2 6311   6.744   7.987   7.648
 1472SOL     OW 6312  10.345   9.062   9.132
 1472SOL    HW1 6313  10.313   9.076   9.221
 1472SOL    HW2 6314  10.426   9.113   9.127
 1473SOL     OW 6315  12.751   8.823   4.077
 1473SOL    HW1 6316  12.805   8.875   4.137
 1473SOL    HW2 6317  12.730   8.744   4.126
 1474SOL     OW 6318   5.809  10.404   9.604
 1474SOL    HW1 6319   5.715  10.385   9.610
 1474SOL    HW2 6320   5.829  10.451   9.684
 1475SOL     OW 6321   3.801  10.236  13.371
 1475SOL    HW1 6322   3.888  10.232  13.411
 1475SOL    HW2 6323   3.813  10.200  13.283
 1476SOL     OW 6324   6.452   2.079   8.586
 1476SOL    HW1 6325   6.489   1.990   8.584
 1476SOL    HW2 6326   6.522   2.135   8.554
 1477SOL     OW 6327   8.637   9.016   7.312
 1477SOL    HW1 6328   8.732   9.007   7.311
 1477SOL    HW2 6329   8.613   9.036   7.222
 1478SOL     OW 6330   0.421   7.606   0.323
 1478SOL    HW1 6331   0.505   7.572   0.294
 1478SOL    HW2 6332   0.439   7.695   0.351
 1479SOL     OW 6333   8.759   8.936  12.286
 1479SOL    HW1 6334   8.797   8.854  12.317
 1479SOL    HW2 6335   8.835   8.992  12.266
 1480SOL     OW 6336   3.992   8.447  14.697
 1480SOL    HW1 6337   4.084   8.473  14.698
 1480SOL    HW2 6338   3.985   8.384  14.769
 1481SOL     OW 6339  10.960   1.777   2.622
 1481SOL    HW1 6340  10.964   1.734   2.537
 1481SOL    HW2 6341  11.046   1.819   2.632
 1482SOL     OW 6342   0.180  13.763  12.401
 1482SOL    HW1 6343   0.131  13.685  12.373
 1482SOL    HW2 6344   0.183  13.819  12.323
 1483SOL     OW 6345   2.860   2.256   8.259
 1483SOL    HW1 6346   2.863   2.296   8.172
 1483SOL    HW2 6347   2.933   2.297   8.306
 1484SOL     OW 6348   2.195   1.422   4.978
 1484SOL    HW1 6349   2.275   1.467   5.008
 1484SOL    HW2 6350   2.202   1.423   4.883
 1485SOL     OW 6351   8.820   3.228   7.795
 1485SOL    HW1 6352   8.844   3.190   7.711
 1485SOL    HW2 6353   8.845   3.321   7.787
 1486SOL     OW 6354   6.283  11.439   6.963
 1486SOL    HW1 6355   6.194  11.472   6.977
 1486SOL    HW2 6356   6.284  11.354   7.008
 1487SOL     OW 6357  10.903   6.189   1.606
 1487SOL    HW1 6358  10.901   6.283   1.587
 1487SOL    HW2 6359  10.852   6.149   1.535
 1488SOL     OW 6360  10.371  11.689   2.420
 1488SOL    HW1 6361  10.393  11.687   2.513
 1488SOL    HW2 6362  10.280  11.720   2.417
 1489SOL     OW 6363   6.821   0.302  12.285
 1489SOL    HW1 6364   6.888   0.352  12.332
 1489SOL    HW2 6365   6.802   0.355  12.207
 1490SOL     OW 6366   1.908  13.256   6.726
 1490SOL    HW1 6367   1.935  13.236   6.815
 1490SOL    HW2 6368   1.954  13.191   6.672
 1491SOL     OW 6369  11.532   8.798  11.165
 1491SOL    HW1 6370  11.595   8.869  11.149
 1491SOL    HW2 6371  11.485   8.789  11.082
 1492SOL     OW 6372  11.468   0.257  11.087
 1492SOL    HW1 6373  11.402   0.229  11.151
 1492SOL    HW2 6374  11.511   0.176  11.060
 1493SOL     OW 6375   0.043   5.251   4.678
 1493SOL    HW1 6376   0.022   5.193   4.605
 1493SOL    HW2 6377  14.837   5.298   4.695
 1494SOL     OW 6378  14.136   4.763  12.861
 1494SOL    HW1 6379  14.072   4.695  12.884
 1494SOL    HW2 6380  14.103   4.842  12.902
 1495SOL     OW 6381   6.536  12.151  11.635
 1495SOL    HW1 6382   6.554  12.142  11.542
 1495SOL    HW2 6383   6.609  12.201  11.670
 1496SOL     OW 6384  12.946   8.770   5.300
 1496SOL    HW1 6385  12.963   8.795   5.209
 1496SOL    HW2 6386  13.021   8.715   5.323
 1497SOL     OW 6387   5.998   5.016   7.812
 1497SOL    HW1 6388   6.037   5.003   7.898
 1497SOL    HW2 6389   5.905   5.030   7.830
 1498SOL     OW 6390   4.068  13.831  12.410
 1498SOL    HW1 6391   4.048  13.921  12.385
 1498SOL    HW2 6392   4.092  13.787  12.328
 1499SOL     OW 6393  13.243   2.516   8.244
 1499SOL    HW1 6394  13.255   2.488   8.335
 1499SOL    HW2 6395  13.227   2.610   8.250
 1500SOL     OW 6396   5.630   5.555   4.469
 1500SOL    HW1 6397   5.678   5.632   4.438
 1500SOL    HW2 6398   5.567   5.536   4.399
 1501SOL     OW 6399   7.701   7.525   4.683
 1501SOL    HW1 6400   7.690   7.558   4.593
 1501SOL    HW2 6401   7.617   7.542   4.725
 1502SOL     OW 6402   6.864   5.748   0.932
 1502SOL    HW1 6403   6.889   5.695   0.857
 1502SOL    HW2 6404   6.826   5.685   0.994
 1503SOL     OW 6405   5.861  12.397   7.933
 1503SOL    HW1 6406   5.838  12.324   7.875
 1503SOL    HW2 6407   5.777  12.431   7.964
 1504SOL     OW 6408   9.109   8.958   2.641
 1504SOL    HW1 6409   9.164   9.005   2.704
 1504SOL    HW2 6410   9.025   8.948   2.685
 1505SOL     OW 6411   8.124  11.544   8.691
 1505SOL    HW1 6412   8.037  11.522   8.726
 1505SOL    HW2 6413   8.180  11.551   8.768
 1506SOL     OW 6414   9.230   5.077   5.866
 1506SOL    HW1 6415   9.240   5.152   5.924
 1506SOL    HW2 6416   9.233   5.001   5.924
 1507SOL     OW 6417  12.716   5.361  12.050
 1507SOL    HW1 6418  12.724   5.332  12.141
 1507SOL    HW2 6419  12.804   5.352  12.014
 1508SOL     OW 6420   2.361  12.828  12.275
 1508SOL    HW1 6421   2.346  12.795  12.363
 1508SOL    HW2 6422   2.296  12.897  12.263
 1509SOL     OW 6423   3.281  12.958   0.246
 1509SOL    HW1 6424   3.224  12.985   0.318
 1509SOL    HW2 6425   3.337  13.034   0.230
 1510SOL     OW 6426   5.572   3.474   5.732
 1510SOL    HW1 6427   5.552   3.564   5.755
 1510SOL    HW2 6428   5.594   3.477   5.638
 1511SOL     OW 6429   3.424  13.187   0.455
 1511SOL    HW1 6430   3.430  13.201   0.360
 1511SOL    HW2 6431   3.456  13.269   0.493
 1512SOL     OW 6432   6.916   2.305   9.789
 1512SOL    HW1 6433   6.872   2.361   9.726
 1512SOL    HW2 6434   6.913   2.355   9.871
 1513SOL     OW 6435  12.661   6.696   0.427
 1513SOL    HW1 6436  12.656   6.675   0.334
 1513SOL    HW2 6437  12.578   6.666   0.463
 1514SOL     OW 6438   6.386  11.809   9.807
 1514SOL    HW1 6439   6.332  11.795   9.729
 1514SOL    HW2 6440   6.446  11.734   9.808
 1515SOL     OW 6441   2.004   9.527   2.769
 1515SOL    HW1 6442   2.049   9.454   2.728
 1515SOL    HW2 6443   2.074   9.578   2.811
 1516SOL     OW 6444  10.097  11.915  13.281
 1516SOL    HW1 6445  10.174  11.954  13.323
 1516SOL    HW2 6446  10.079  11.836  13.332
 1517SOL     OW 6447  14.338   7.248   1.113
 1517SOL    HW1 6448  14.261   7.295   1.082
 1517SOL    HW2 6449  14.369   7.299   1.187
 1518SOL     OW 6450   7.526   0.078  12.434
 1518SOL    HW1 6451   7.615   0.067  12.469
 1518SOL    HW2 6452   7.532   0.047  12.344
 1519SOL     OW 6453   5.761  12.450   7.528
 1519SOL    HW1 6454   5.732  12.410   7.610
 1519SOL    HW2 6455   5.812  12.382   7.484
 1520SOL     OW 6456   8.578   6.769  12.756
 1520SOL    HW1 6457   8.602   6.718  12.679
 1520SOL    HW2 6458   8.579   6.706  12.829
 1521SOL     OW 6459   7.910   3.075   9.632
 1521SOL    HW1 6460   7.885   3.156   9.678
 1521SOL    HW2 6461   7.945   3.019   9.701
 1522SOL     OW 6462   0.469   4.125   6.300
 1522SOL    HW1 6463   0.442   4.113   6.209
 1522SOL    HW2 6464   0.442   4.044   6.344
 1523SOL     OW 6465   8.330   5.075   3.847
 1523SOL    HW1 6466   8.416   5.034   3.858
 1523SOL    HW2 6467   8.350   5.165   3.821
 1524SOL     OW 6468   2.856   4.425   5.549
 1524SOL    HW1 6469   2.869   4.444   5.642
 1524SOL    HW2 6470   2.766   4.392   5.544
 1525SOL     OW 6471   7.505   7.736   9.022
 1525SOL    HW1 6472   7.599   7.721   9.029
 1525SOL    HW2 6473   7.466   7.660   9.067
 1526SOL     OW 6474  11.645   5.693  14.195
 1526SOL    HW1 6475  11.562   5.725  14.159
 1526SOL    HW2 6476  11.623   5.606  14.230
 1527SOL     OW 6477   3.586   4.182   1.223
 1527SOL    HW1 6478   3.670   4.141   1.244
 1527SOL    HW2 6479   3.609   4.258   1.170
 1528SOL     OW 6480   2.718   1.100  10.988
 1528SOL    HW1 6481   2.666   1.123  11.065
 1528SOL    HW2 6482   2.698   1.169  10.925
 1529SOL     OW 6483  13.956  11.204   9.096
 1529SOL    HW1 6484  13.873  11.248   9.113
 1529SOL    HW2 6485  13.939  11.112   9.114
 1530SOL     OW 6486  13.000   3.099   4.054
 1530SOL    HW1 6487  13.025   3.184   4.018
 1530SOL    HW2 6488  13.010   3.038   3.981
 1531SOL     OW 6489   7.151   1.213  14.333
 1531SOL    HW1 6490   7.068   1.206  14.379
 1531SOL    HW2 6491   7.210   1.253  14.397
 1532SOL     OW 6492  12.788   3.057  14.700
 1532SOL    HW1 6493  12.740   3.082  14.778
 1532SOL    HW2 6494  12.791   3.137  14.647
 1533SOL     OW 6495   0.924   1.034   5.542
 1533SOL    HW1 6496   0.849   1.053   5.485
 1533SOL    HW2 6497   0.991   1.000   5.482
 1534SOL     OW 6498   6.843   8.310  14.775
 1534SOL    HW1 6499   6.867   8.348  14.860
 1534SOL    HW2 6500   6.867   8.218  14.782
 1535SOL     OW 6501   3.290   8.823   8.415
 1535SOL    HW1 6502   3.225   8.877   8.461
 1535SOL    HW2 6503   3.336   8.777   8.485
 1536SOL     OW 6504   9.045  12.404   2.487
 1536SOL    HW1 6505   9.034  12.493   2.521
 1536SOL    HW2 6506   9.139  12.395   2.471
 1537SOL     OW 6507  11.624  11.727   8.399
 1537SOL    HW1 6508  11.679  11.766   8.332
 1537SOL    HW2 6509  11.683  11.711   8.473
 1538SOL     OW 6510  12.384   0.342   1.342
 1538SOL    HW1 6511  12.324   0.267   1.331
 1538SOL    HW2 6512  12.327   0.419   1.335
 1539SOL     OW 6513   6.494  14.722  14.231
 1539SOL    HW1 6514   6.501  14.633  14.197
 1539SOL    HW2 6515   6.531  14.777  14.162
 1540SOL     OW 6516   7.221   5.626   3.054
 1540SOL    HW1 6517   7.269   5.618   3.137
 1540SOL    HW2 6518   7.129   5.620   3.079
 1541SOL     OW 6519   9.041   5.451  13.772
 1541SOL    HW1 6520   9.073   5.470  13.860
 1541SOL    HW2 6521   9.024   5.537  13.733
 1542SOL     OW 6522  12.805   6.508   0.637
 1542SOL    HW1 6523  12.887   6.546   0.669
 1542SOL    HW2 6524  12.750   6.584   0.618
 1543SOL     OW 6525   9.960   6.264   2.817
 1543SOL    HW1 6526   9.889   6.314   2.857
 1543SOL    HW2 6527   9.946   6.174   2.845
 1544SOL     OW 6528   7.745  10.423  12.557
 1544SOL    HW1 6529   7.812  10.473  12.603
 1544SOL    HW2 6530   7.674  10.412  12.621
 1545SOL     OW 6531  12.455   6.102   5.539
 1545SOL    HW1 6532  12.391   6.049   5.586
 1545SOL    HW2 6533  12.509   6.141   5.609
 1546SOL     OW 6534  14.730   1.608  13.824
 1546SOL    HW1 6535  14.805   1.667  13.818
 1546SOL    HW2 6536  14.698   1.618  13.914
 1547SOL     OW 6537   3.969  12.942   6.015
 1547SOL    HW1 6538   3.884  12.904   6.038
 1547SOL    HW2 6539   3.982  13.011   6.080
 1548SOL     OW 6540  11.993   5.835   7.476
 1548SOL    HW1 6541  12.062   5.898   7.496
 1548SOL    HW2 6542  12.010   5.808   7.386
 1549SOL     OW 6543  10.068   4.897   0.652
 1549SOL    HW1 6544   9.987   4.948   0.651
 1549SOL    HW2 6545  10.045   4.816   0.697
 1550SOL     OW 6546   5.182   6.790  12.115
 1550SOL    HW1 6547   5.246   6.805  12.185
 1550SOL    HW2 6548   5.176   6.875  12.071
 1551SOL     OW 6549  13.872   2.494   1.307
 1551SOL    HW1 6550  13.963   2.523   1.308
 1551SOL    HW2 6551  13.877   2.399   1.300
 1552SOL     OW 6552   0.343   0.730   0.079
 1552SOL    HW1 6553   0.345   0.826   0.071
 1552SOL    HW2 6554   0.279   0.713   0.148
 1553SOL     OW 6555   3.460   7.851   3.525
 1553SOL    HW1 6556   3.500   7.862   3.440
 1553SOL    HW2 6557   3.448   7.940   3.558
 1554SOL     OW 6558   0.110   2.376   5.247
 1554SOL    HW1 6559   0.131   2.461   5.208
 1554SOL    HW2 6560   0.194   2.333   5.258
 1555SOL     OW 6561  12.880  10.654  10.346
 1555SOL    HW1 6562  12.889  10.701  10.429
 1555SOL    HW2 6563  12.835  10.573  10.369
 1556SOL     OW 6564  13.757   2.730  14.457
 1556SOL    HW1 6565  13.716   2.782  14.526
 1556SOL    HW2 6566  13.775   2.792  14.387
 1557SOL     OW 6567   5.915   4.844   0.135
 1557SOL    HW1 6568   5.842   4.898   0.104
 1557SOL    HW2 6569   5.875   4.759   0.152
 1558SOL     OW 6570   1.282   9.246   2.219
 1558SOL    HW1 6571   1.240   9.178   2.272
 1558SOL    HW2 6572   1.371   9.213   2.205
 1559SOL     OW 6573   7.390  12.673   0.354
 1559SOL    HW1 6574   7.331  12.616   0.305
 1559SOL    HW2 6575   7.477  12.634   0.341
 1560SOL     OW 6576  13.333   7.035   3.089
 1560SOL    HW1 6577  13.250   6.997   3.061
 1560SOL    HW2 6578  13.350   6.996   3.174
 1561SOL     OW 6579  14.479   3.086  11.776
 1561SOL    HW1 6580  14.482   3.172  11.733
 1561SOL    HW2 6581  14.556   3.040  11.743
 1562SOL     OW 6582   3.296  13.216   1.044
 1562SOL    HW1 6583   3.251  13.132   1.034
 1562SOL    HW2 6584   3.294  13.255   0.957
 1563SOL     OW 6585  11.025   6.885  14.706
 1563SOL    HW1 6586  10.997   6.944  14.637
 1563SOL    HW2 6587  11.084   6.823  14.663
 1564SOL     OW 6588   7.426  12.667   8.201
 1564SOL    HW1 6589   7.398  12.640   8.114
 1564SOL    HW2 6590   7.512  12.708   8.186
 1565SOL     OW 6591   2.474   6.842   2.985
 1565SOL    HW1 6592   2.515   6.771   2.935
 1565SOL    HW2 6593   2.541   6.870   3.047
 1566SOL     OW 6594  13.974  12.474   9.227
 1566SOL    HW1 6595  13.975  12.499   9.320
 1566SOL    HW2 6596  13.889  12.433   9.214
 1567SOL     OW 6597  13.656   0.061  13.122
 1567SOL    HW1 6598  13.745   0.089  13.145
 1567SOL    HW2 6599  13.666   0.016  13.038
 1568SOL     OW 6600   5.425  10.596  11.169
 1568SOL    HW1 6601   5.373  10.586  11.089
 1568SOL    HW2 6602   5.514  10.610  11.137
 1569SOL     OW 6603   6.407   0.628  11.679
 1569SOL    HW1 6604   6.403   0.547  11.729
 1569SOL    HW2 6605   6.340   0.618  11.611
 1570SOL     OW 6606   5.527   1.943   5.844
 1570SOL    HW1 6607   5.436   1.946   5.872
 1570SOL    HW2 6608   5.532   2.007   5.773
 1571SOL     OW 6609   9.221  12.789  12.835
 1571SOL    HW1 6610   9.175  12.832  12.763
 1571SOL    HW2 6611   9.151  12.758  12.893
 1572SOL     OW 6612   0.782   7.575   5.775
 1572SOL    HW1 6613   0.834   7.564   5.855
 1572SOL    HW2 6614   0.718   7.642   5.797
 1573SOL     OW 6615   0.355  12.908   6.089
 1573SOL    HW1 6616   0.326  12.898   5.998
 1573SOL    HW2 6617   0.284  12.957   6.131
 1574SOL     OW 6618   0.080   0.217   0.947
 1574SOL    HW1 6619   0.002   0.161   0.943
 1574SOL    HW2 6620   0.138   0.182   0.879
 1575SOL     OW 6621   9.018  11.038  13.083
 1575SOL    HW1 6622   9.046  10.982  13.156
 1575SOL    HW2 6623   9.065  11.120  13.098
 1576SOL     OW 6624   2.799   7.587   6.221
 1576SOL    HW1 6625   2.864   7.525   6.254
 1576SOL    HW2 6626   2.777   7.555   6.134
 1577SOL     OW 6627   6.892   9.345  11.224
 1577SOL    HW1 6628   6.951   9.310  11.291
 1577SOL    HW2 6629   6.820   9.281  11.220
 1578SOL     OW 6630  11.794  10.260   1.821
 1578SOL    HW1 6631  11.725  10.326   1.835
 1578SOL    HW2 6632  11.810  10.263   1.726
 1579SOL     OW 6633   2.420   1.887   3.511
 1579SOL    HW1 6634   2.451   1.941   3.438
 1579SOL    HW2 6635   2.413   1.799   3.474
 1580SOL     OW 6636  12.112   5.298   3.749
 1580SOL    HW1 6637  12.061   5.344   3.815
 1580SOL    HW2 6638  12.055   5.227   3.719
 1581SOL     OW 6639  14.540   4.952  11.212
 1581SOL    HW1 6640  14.603   4.883  11.233
 1581SOL    HW2 6641  14.501   4.975  11.296
 1582SOL     OW 6642   1.563   5.021   3.720
 1582SOL    HW1 6643   1.603   5.081   3.783
 1582SOL    HW2 6644   1.637   4.973   3.683
 1583SOL     OW 6645  10.450   4.262   8.676
 1583SOL    HW1 6646  10.365   4.303   8.691
 1583SOL    HW2 6647  10.468   4.214   8.757
 1584SOL     OW 6648  13.459   5.237   1.050
 1584SOL    HW1 6649  13.461   5.196   0.964
 1584SOL    HW2 6650  13.366   5.243   1.072
 1585SOL     OW 6651  11.604   2.925   0.154
 1585SOL    HW1 6652  11.576   2.844   0.197
 1585SOL    HW2 6653  11.587   2.910   0.061
 1586SOL     OW 6654   8.241  12.386  11.044
 1586SOL    HW1 6655   8.173  12.374  10.978
 1586SOL    HW2 6656   8.195  12.422  11.120
 1587SOL     OW 6657   3.579  11.266   8.115
 1587SOL    HW1 6658   3.542  11.248   8.202
 1587SOL    HW2 6659   3.503  11.271   8.057
 1588SOL     OW 6660   4.223   8.401   2.101
 1588SOL    HW1 6661   4.307   8.361   2.080
 1588SOL    HW2 6662   4.184   8.422   2.016
 1589SOL     OW 6663   3.933   4.854   7.295
 1589SOL    HW1 6664   3.859   4.882   7.348
 1589SOL    HW2 6665   3.941   4.760   7.312
 1590SOL     OW 6666   8.206  13.609  13.635
 1590SOL    HW1 6667   8.174  13.631  13.722
 1590SOL    HW2 6668   8.145  13.541  13.604
 1591SOL     OW 6669   6.266  12.351   4.064
 1591SOL    HW1 6670   6.285  12.271   4.014
 1591SOL    HW2 6671   6.183  12.333   4.108
 1592SOL     OW 6672   1.309   6.164   2.355
 1592SOL    HW1 6673   1.220   6.199   2.365
 1592SOL    HW2 6674   1.342   6.205   2.275
 1593SOL     OW 6675   3.706   2.970   4.336
 1593SOL    HW1 6676   3.620   2.943   4.370
 1593SOL    HW2 6677   3.730   3.046   4.388
 1594SOL     OW 6678   0.636   2.352   5.645
 1594SOL    HW1 6679   0.707   2.361   5.582
 1594SOL    HW2 6680   0.672   2.295   5.713
 1595SOL     OW 6681   6.017  10.560   1.706
 1595SOL    HW1 6682   6.032  10.624   1.776
 1595SOL    HW2 6683   5.923  10.567   1.687
 1596SOL     OW 6684   9.822   7.837  13.252
 1596SOL    HW1 6685   9.810   7.784  13.331
 1596SOL    HW2 6686   9.885   7.787  13.199
 1597SOL     OW 6687   9.200  12.900  14.153
 1597SOL    HW1 6688   9.137  12.959  14.194
 1597SOL    HW2 6689   9.285  12.944  14.163
 1598SOL     OW 6690  12.335  13.423  12.810
 1598SOL    HW1 6691  12.383  13.431  12.892
 1598SOL    HW2 6692  12.280  13.501  12.806
 1599SOL     OW 6693   7.095   6.505   8.336
 1599SOL    HW1 6694   7.106   6.587   8.384
 1599SOL    HW2 6695   7.079   6.532   8.245
 1600SOL     OW 6696   1.648   7.411   3.830
 1600SOL    HW1 6697   1.553   7.422   3.831
 1600SOL    HW2 6698   1.668   7.371   3.746
 1601SOL     OW 6699   6.926  10.006   7.043
 1601SOL    HW1 6700   6.897  10.089   7.003
 1601SOL    HW2 6701   6.901   9.939   6.979
 1602SOL     OW 6702  10.178   2.324  11.903
 1602SOL    HW1 6703  10.139   2.397  11.951
 1602SOL    HW2 6704  10.270   2.323  11.931
 1603SOL     OW 6705   1.960   6.293   2.750
 1603SOL    HW1 6706   1.900   6.269   2.679
 1603SOL    HW2 6707   1.926   6.245   2.826
 1604SOL     OW 6708   2.522   9.833   0.392
 1604SOL    HW1 6709   2.605   9.796   0.422
 1604SOL    HW2 6710   2.547   9.901   0.330
 1605SOL     OW 6711   7.268   3.296   1.516
 1605SOL    HW1 6712   7.298   3.235   1.584
 1605SOL    HW2 6713   7.218   3.363   1.563
 1606SOL     OW 6714   9.422  10.846   3.811
 1606SOL    HW1 6715   9.440  10.805   3.726
 1606SOL    HW2 6716   9.411  10.772   3.871
 1607SOL     OW 6717   3.421  14.295   2.585
 1607SOL    HW1 6718   3.414  14.367   2.522
 1607SOL    HW2 6719   3.434  14.339   2.669
 1608SOL     OW 6720   2.888  13.233  12.467
 1608SOL    HW1 6721   2.816  13.292  12.446
 1608SOL    HW2 6722   2.889  13.230  12.563
 1609SOL     OW 6723  11.917   4.493  12.790
 1609SOL    HW1 6724  11.826   4.521  12.777
 1609SOL    HW2 6725  11.911   4.427  12.859
 1610SOL     OW 6726   2.113   6.692  11.408
 1610SOL    HW1 6727   2.039   6.749  11.384
 1610SOL    HW2 6728   2.168   6.692  11.330
 1611SOL     OW 6729  11.194  10.306   2.862
 1611SOL    HW1 6730  11.206  10.314   2.956
 1611SOL    HW2 6731  11.199  10.396   2.829
 1612SOL     OW 6732  12.952   4.187   1.777
 1612SOL    HW1 6733  12.885   4.190   1.846
 1612SOL    HW2 6734  12.930   4.109   1.726
 1613SOL     OW 6735  13.893   4.761  11.970
 1613SOL    HW1 6736  13.840   4.769  11.890
 1613SOL    HW2 6737  13.881   4.670  11.997
 1614SOL     OW 6738   3.577   9.717  14.868
 1614SOL    HW1 6739   3.546   9.657  14.800
 1614SOL    HW2 6740   3.634   9.663   0.048
 1615SOL     OW 6741   5.217  13.803   8.983
 1615SOL    HW1 6742   5.236  13.894   9.007
 1615SOL    HW2 6743   5.216  13.756   9.066
 1616SOL     OW 6744   1.970   3.381   5.845
 1616SOL    HW1 6745   1.949   3.421   5.761
 1616SOL    HW2 6746   1.943   3.290   5.836
 1617SOL     OW 6747  12.082   7.884   6.606
 1617SOL    HW1 6748  12.085   7.919   6.516
 1617SOL    HW2 6749  12.091   7.961   6.662
 1618SOL     OW 6750  12.159   1.027   0.199
 1618SOL    HW1 6751  12.117   0.963   0.142
 1618SOL    HW2 6752  12.182   1.100   0.141
 1619SOL     OW 6753  14.315  12.873   8.723
 1619SOL    HW1 6754  14.252  12.918   8.778
 1619SOL    HW2 6755  14.387  12.935   8.711
 1620SOL     OW 6756  10.636  11.041   3.667
 1620SOL    HW1 6757  10.584  11.111   3.706
 1620SOL    HW2 6758  10.701  11.086   3.614
 1621SOL     OW 6759   1.072   5.548  11.548
 1621SOL    HW1 6760   1.152   5.589  11.581
 1621SOL    HW2 6761   1.008   5.558  11.619
 1622SOL     OW 6762   0.274   9.522   9.882
 1622SOL    HW1 6763   0.202   9.497   9.940
 1622SOL    HW2 6764   0.331   9.445   9.881
 1623SOL     OW 6765  11.977  10.752  11.382
 1623SOL    HW1 6766  12.068  10.781  11.374
 1623SOL    HW2 6767  11.928  10.832  11.399
 1624SOL     OW 6768   2.024   0.453  13.039
 1624SOL    HW1 6769   2.047   0.435  13.130
 1624SOL    HW2 6770   2.098   0.502  13.004
 1625SOL     OW 6771  12.018  11.773   8.795
 1625SOL    HW1 6772  12.017  11.715   8.871
 1625SOL    HW2 6773  11.946  11.834   8.811
 1626SOL     OW 6774   0.130   7.278   2.844
 1626SOL    HW1 6775   0.154   7.187   2.863
 1626SOL    HW2 6776   0.056   7.271   2.783
 1627SOL     OW 6777  14.109   5.473   1.268
 1627SOL    HW1 6778  14.157   5.483   1.351
 1627SOL    HW2 6779  14.173   5.496   1.201
 1628SOL     OW 6780  13.513  10.050  11.777
 1628SOL    HW1 6781  13.492   9.997  11.854
 1628SOL    HW2 6782  13.487   9.995  11.703
 1629SOL     OW 6783  13.911   1.329  13.003
 1629SOL    HW1 6784  13.833   1.285  13.035
 1629SOL    HW2 6785  13.964   1.345  13.081
 1630SOL     OW 6786   9.799   1.209  11.364
 1630SOL    HW1 6787   9.769   1.285  11.414
 1630SOL    HW2 6788   9.738   1.202  11.291
 1631SOL     OW 6789   1.019   4.020   2.671
 1631SOL    HW1 6790   0.942   3.984   2.628
 1631SOL    HW2 6791   1.067   4.066   2.603
 1632SOL     OW 6792   7.030   1.754   0.494
 1632SOL    HW1 6793   7.027   1.751   0.398
 1632SOL    HW2 6794   7.103   1.812   0.514
 1633SOL     OW 6795   6.638   7.674  11.721
 1633SOL    HW1 6796   6.708   7.628  11.675
 1633SOL    HW2 6797   6.682   7.747  11.765
 1634SOL     OW 6798   3.797   6.545   0.165
 1634SOL    HW1 6799   3.797   6.635   0.199
 1634SOL    HW2 6800   3.705   6.529   0.142
 1635SOL     OW 6801   5.335  13.208  10.042
 1635SOL    HW1 6802   5.277  13.133  10.032
 1635SOL    HW2 6803   5.392  13.205   9.965
 1636SOL     OW 6804  12.709  10.339  13.682
 1636SOL    HW1 6805  12.651  10.414  13.666
 1636SOL    HW2 6806  12.797  10.376  13.676
 1637SOL     OW 6807   3.123   6.618   3.566
 1637SOL    HW1 6808   3.090   6.700   3.600
 1637SOL    HW2 6809   3.047   6.560   3.562
 1638SOL     OW 6810   0.996   2.665   5.589
 1638SOL    HW1 6811   1.034   2.717   5.660
 1638SOL    HW2 6812   0.963   2.730   5.527
 1639SOL     OW 6813   9.789  11.544  11.404
 1639SOL    HW1 6814   9.807  11.637  11.389
 1639SOL    HW2 6815   9.762  11.510  11.319
 1640SOL     OW 6816   0.347   9.791  10.530
 1640SOL    HW1 6817   0.338   9.785  10.435
 1640SOL    HW2 6818   0.284   9.858  10.556
 1641SOL     OW 6819   4.653  13.923   8.726
 1641SOL    HW1 6820   4.586  13.991   8.716
 1641SOL    HW2 6821   4.606  13.841   8.709
 1642SOL     OW 6822   5.712   8.691   9.694
 1642SOL    HW1 6823   5.649   8.758   9.721
 1642SOL    HW2 6824   5.680   8.660   9.609
 1643SOL     OW 6825   6.794  14.537   1.025
 1643SOL    HW1 6826   6.876  14.492   1.046
 1643SOL    HW2 6827   6.738  14.470   0.988
 1644SOL     OW 6828   4.229   9.792   1.561
 1644SOL    HW1 6829   4.190   9.759   1.480
 1644SOL    HW2 6830   4.236   9.714   1.617
 1645SOL     OW 6831   5.087  12.786   5.623
 1645SOL    HW1 6832   5.086  12.857   5.686
 1645SOL    HW2 6833   5.107  12.828   5.539
 1646SOL     OW 6834   6.851   4.524  11.608
 1646SOL    HW1 6835   6.794   4.584  11.655
 1646SOL    HW2 6836   6.878   4.460  11.674
 1647SOL     OW 6837  14.405  11.112   4.822
 1647SOL    HW1 6838  14.310  11.111   4.812
 1647SOL    HW2 6839  14.422  11.052   4.895
 1648SOL     OW 6840   9.592   9.488  13.013
 1648SOL    HW1 6841   9.684   9.506  12.994
 1648SOL    HW2 6842   9.559   9.569  13.051
 1649SOL     OW 6843  12.621  12.404  14.206
 1649SOL    HW1 6844  12.646  12.477  14.149
 1649SOL    HW2 6845  12.703  12.360  14.227
 1650SOL     OW 6846   6.092   2.523   0.468
 1650SOL    HW1 6847   6.076   2.505   0.376
 1650SOL    HW2 6848   6.170   2.473   0.490
 1651SOL     OW 6849  14.426   8.518   3.979
 1651SOL    HW1 6850  14.444   8.534   4.071
 1651SOL    HW2 6851  14.410   8.604   3.941
 1652SOL     OW 6852   9.988   1.036   6.573
 1652SOL    HW1 6853   9.910   1.090   6.564
 1652SOL    HW2 6854   9.955   0.948   6.594
 1653SOL     OW 6855   0.720   4.140  11.512
 1653SOL    HW1 6856   0.640   4.147  11.562
 1653SOL    HW2 6857   0.782   4.098  11.571
 1654SOL     OW 6858   2.667   7.630   0.164
 1654SOL    HW1 6859   2.683   7.642   0.258
 1654SOL    HW2 6860   2.579   7.665   0.151
 1655SOL     OW 6861   9.783  11.277   4.832
 1655SOL    HW1 6862   9.824  11.216   4.893
 1655SOL    HW2 6863   9.693  11.246   4.824
 1656SOL     OW 6864   9.774   7.343   5.525
 1656SOL    HW1 6865   9.689   7.304   5.545
 1656SOL    HW2 6866   9.821   7.342   5.608
 1657SOL     OW 6867   9.069   0.561  14.836
 1657SOL    HW1 6868   9.145   0.507  14.858
 1657SOL    HW2 6869   9.064   0.557  14.740
 1658SOL     OW 6870   4.588   4.082   1.779
 1658SOL    HW1 6871   4.572   4.161   1.729
 1658SOL    HW2 6872   4.680   4.089   1.807
 1659SOL     OW 6873   9.325  10.328   5.369
 1659SOL    HW1 6874   9.345  10.417   5.398
 1659SOL    HW2 6875   9.401  10.302   5.318
 1660SOL     OW 6876  11.639   4.024  12.875
 1660SOL    HW1 6877  11.618   3.984  12.791
 1660SOL    HW2 6878  11.686   4.105  12.852
 1661SOL     OW 6879   3.341   6.938  12.050
 1661SOL    HW1 6880   3.311   6.981  12.130
 1661SOL    HW2 6881   3.342   6.845  12.072
 1662SOL     OW 6882   7.760   0.503   7.420
 1662SOL    HW1 6883   7.766   0.439   7.349
 1662SOL    HW2 6884   7.667   0.525   7.425
 1663SOL     OW 6885   9.815   1.276   1.271
 1663SOL    HW1 6886   9.858   1.318   1.197
 1663SOL    HW2 6887   9.723   1.302   1.263
 1664SOL     OW 6888  13.727   3.389   6.915
 1664SOL    HW1 6889  13.822   3.380   6.921
 1664SOL    HW2 6890  13.698   3.309   6.872
 1665SOL     OW 6891   5.996   1.377   4.090
 1665SOL    HW1 6892   5.988   1.438   4.163
 1665SOL    HW2 6893   5.931   1.309   4.109
 1666SOL     OW 6894   6.934   3.315  13.835
 1666SOL    HW1 6895   6.965   3.392  13.882
 1666SOL    HW2 6896   6.992   3.244  13.864
 1667SOL     OW 6897   8.065   7.466   1.009
 1667SOL    HW1 6898   8.021   7.458   1.093
 1667SOL    HW2 6899   8.031   7.548   0.973
 1668SOL     OW 6900  13.825   2.691   5.791
 1668SOL    HW1 6901  13.803   2.620   5.852
 1668SOL    HW2 6902  13.919   2.706   5.804
 1669SOL     OW 6903  10.173  10.028   1.541
 1669SOL    HW1 6904  10.200  10.120   1.536
 1669SOL    HW2 6905  10.178  10.007   1.634
 1670SOL     OW 6906   5.241  14.711   3.022
 1670SOL    HW1 6907   5.311  14.762   3.062
 1670SOL    HW2 6908   5.285  14.658   2.955
 1671SOL     OW 6909   7.162  13.008   9.850
 1671SOL    HW1 6910   7.194  13.052   9.929
 1671SOL    HW2 6911   7.136  12.921   9.879
 1672SOL     OW 6912   1.925   2.824  14.588
 1672SOL    HW1 6913   1.884   2.783  14.512
 1672SOL    HW2 6914   1.881   2.908  14.597
 1673SOL     OW 6915  14.380  13.581   7.167
 1673SOL    HW1 6916  14.441  13.561   7.096
 1673SOL    HW2 6917  14.409  13.528   7.240
 1674SOL     OW 6918  10.550  11.182   5.225
 1674SOL    HW1 6919  10.466  11.202   5.183
 1674SOL    HW2 6920  10.607  11.157   5.152
 1675SOL     OW 6921   5.712  13.672  14.214
 1675SOL    HW1 6922   5.686  13.715  14.132
 1675SOL    HW2 6923   5.701  13.579  14.197
 1676SOL     OW 6924   1.223   0.984   1.434
 1676SOL    HW1 6925   1.298   0.953   1.384
 1676SOL    HW2 6926   1.211   1.075   1.408
 1677SOL     OW 6927  11.063   2.963   5.654
 1677SOL    HW1 6928  11.012   2.882   5.645
 1677SOL    HW2 6929  11.122   2.945   5.727
 1678SOL     OW 6930   5.621  14.455   3.476
 1678SOL    HW1 6931   5.562  14.382   3.457
 1678SOL    HW2 6932   5.651  14.439   3.565
 1679SOL     OW 6933  14.463  13.768   3.079
 1679SOL    HW1 6934  14.532  13.830   3.054
 1679SOL    HW2 6935  14.460  13.706   3.006
 1680SOL     OW 6936   5.786  11.228   6.173
 1680SOL    HW1 6937   5.858  11.193   6.226
 1680SOL    HW2 6938   5.811  11.319   6.157
 1681SOL     OW 6939  13.164   5.120   1.397
 1681SOL    HW1 6940  13.226   5.118   1.470
 1681SOL    HW2 6941  13.079   5.103   1.437
 1682SOL     OW 6942   2.011   5.472   9.273
 1682SOL    HW1 6943   1.982   5.401   9.330
 1682SOL    HW2 6944   1.947   5.474   9.202
 1683SOL     OW 6945   9.713  14.443   7.438
 1683SOL    HW1 6946   9.696  14.523   7.388
 1683SOL    HW2 6947   9.764  14.473   7.513
 1684SOL     OW 6948  12.780   9.418   2.631
 1684SOL    HW1 6949  12.819   9.456   2.553
 1684SOL    HW2 6950  12.685   9.429   2.618
 1685SOL     OW 6951  11.162   2.176   3.664
 1685SOL    HW1 6952  11.114   2.147   3.586
 1685SOL    HW2 6953  11.200   2.260   3.638
 1686SOL     OW 6954   4.815   4.332   5.532
 1686SOL    HW1 6955   4.838   4.290   5.450
 1686SOL    HW2 6956   4.819   4.261   5.597
 1687SOL     OW 6957  13.994   6.286   1.261
 1687SOL    HW1 6958  14.081   6.319   1.282
 1687SOL    HW2 6959  13.989   6.202   1.306
 1688SOL     OW 6960   5.480   2.605   0.822
 1688SOL    HW1 6961   5.519   2.523   0.793
 1688SOL    HW2 6962   5.515   2.619   0.910
 1689SOL     OW 6963   2.276  13.708   8.334
 1689SOL    HW1 6964   2.334  13.679   8.404
 1689SOL    HW2 6965   2.239  13.626   8.299
 1690SOL     OW 6966  11.217   9.805  10.987
 1690SOL    HW1 6967  11.261   9.781  11.069
 1690SOL    HW2 6968  11.124   9.797  11.008
 1691SOL     OW 6969   5.240   2.648   3.040
 1691SOL    HW1 6970   5.173   2.581   3.036
 1691SOL    HW2 6971   5.322   2.600   3.046
 1692SOL     OW 6972   1.719   1.275   5.012
 1692SOL    HW1 6973   1.714   1.369   5.027
 1692SOL    HW2 6974   1.747   1.267   4.921
 1693SOL     OW 6975  12.307   3.994   7.673
 1693SOL    HW1 6976  12.316   3.903   7.645
 1693SOL    HW2 6977  12.248   4.032   7.608
 1694SOL     OW 6978   5.606   8.274  13.993
 1694SOL    HW1 6979   5.633   8.274  14.085
 1694SOL    HW2 6980   5.511   8.261  13.996
 1695SOL     OW 6981  14.479  14.093   0.860
 1695SOL    HW1 6982  14.395  14.114   0.902
 1695SOL    HW2 6983  14.471  14.129   0.772
 1696SOL     OW 6984  10.260  11.386  12.596
 1696SOL    HW1 6985  10.195  11.416  12.659
 1696SOL    HW2 6986  10.334  11.447  12.607
 1697SOL     OW 6987  10.853  13.723  10.379
 1697SOL    HW1 6988  10.886  13.787  10.315
 1697SOL    HW2 6989  10.881  13.758  10.464
 1698SOL     OW 6990  11.218   8.131   3.011
 1698SOL    HW1 6991  11.305   8.134   3.050
 1698SOL    HW2 6992  11.234   8.123   2.917
 1699SOL     OW 6993  13.579   9.539  11.763
 1699SOL    HW1 6994  13.513   9.607  11.756
 1699SOL    HW2 6995  13.559   9.493  11.845
 1700SOL     OW 6996   1.275   5.247   0.085
 1700SOL    HW1 6997   1.349   5.190   0.066
 1700SOL    HW2 6998   1.303   5.334   0.055
 1701SOL     OW 6999  10.030   3.785  13.550
 1701SOL    HW1 7000  10.042   3.702  13.596
 1701SOL    HW2 7001   9.950   3.774  13.500
 1702SOL     OW 7002   2.170  13.693  10.367
 1702SOL    HW1 7003   2.141  13.774  10.408
 1702SOL    HW2 7004   2.212  13.720  10.285
 1703SOL     OW 7005   4.665   6.342   4.319
 1703SOL    HW1 7006   4.632   6.262   4.361
 1703SOL    HW2 7007   4.586   6.387   4.289
 1704SOL     OW 7008   7.139   3.413  12.207
 1704SOL    HW1 7009   7.090   3.408  12.125
 1704SOL    HW2 7010   7.205   3.480  12.191
 1705SOL     OW 7011   7.780   5.580   1.902
 1705SOL    HW1 7012   7.855   5.520   1.905
 1705SOL    HW2 7013   7.757   5.586   1.809
 1706SOL     OW 7014   7.961  13.966   8.094
 1706SOL    HW1 7015   7.961  14.061   8.080
 1706SOL    HW2 7016   7.969  13.928   8.006
 1707SOL     OW 7017  13.697   5.752   4.301
 1707SOL    HW1 7018  13.716   5.731   4.210
 1707SOL    HW2 7019  13.769   5.809   4.328
 1708SOL     OW 7020   6.432   4.181  10.321
 1708SOL    HW1 7021   6.414   4.111  10.259
 1708SOL    HW2 7022   6.447   4.258  10.266
 1709SOL     OW 7023  10.272   1.511   2.513
 1709SOL    HW1 7024  10.252   1.604   2.500
 1709SOL    HW2 7025  10.280   1.501   2.608
 1710SOL     OW 7026  12.959  13.978  13.937
 1710SOL    HW1 7027  12.957  14.071  13.961
 1710SOL    HW2 7028  12.872  13.960  13.902
 1711SOL     OW 7029  11.719   3.159   2.044
 1711SOL    HW1 7030  11.749   3.167   1.954
 1711SOL    HW2 7031  11.649   3.094   2.040
 1712SOL     OW 7032   0.630   1.787   2.382
 1712SOL    HW1 7033   0.677   1.837   2.449
 1712SOL    HW2 7034   0.593   1.854   2.324
 1713SOL     OW 7035   0.302  10.938   8.599
 1713SOL    HW1 7036   0.302  10.970   8.689
 1713SOL    HW2 7037   0.281  11.015   8.546
 1714SOL     OW 7038  12.408   6.358   2.352
 1714SOL    HW1 7039  12.329   6.413   2.351
 1714SOL    HW2 7040  12.407   6.313   2.268
 1715SOL     OW 7041  10.579  11.738  10.923
 1715SOL    HW1 7042  10.595  11.817  10.871
 1715SOL    HW2 7043  10.488  11.747  10.952
 1716SOL     OW 7044  12.961   3.662  12.092
 1716SOL    HW1 7045  12.961   3.688  12.184
 1716SOL    HW2 7046  12.891   3.715  12.052
 1717SOL     OW 7047  11.272   0.483  11.545
 1717SOL    HW1 7048  11.207   0.426  11.586
 1717SOL    HW2 7049  11.224   0.528  11.476
 1718SOL     OW 7050   2.162   1.831   4.528
 1718SOL    HW1 7051   2.244   1.784   4.545
 1718SOL    HW2 7052   2.095   1.762   4.526
 1719SOL     OW 7053   7.430   6.523   7.629
 1719SOL    HW1 7054   7.413   6.462   7.557
 1719SOL    HW2 7055   7.519   6.501   7.657
 1720SOL     OW 7056   5.189  14.260   1.606
 1720SOL    HW1 7057   5.258  14.210   1.649
 1720SOL    HW2 7058   5.228  14.290   1.524
 1721SOL     OW 7059   4.395  12.698   1.427
 1721SOL    HW1 7060   4.322  12.661   1.376
 1721SOL    HW2 7061   4.375  12.791   1.433
 1722SOL     OW 7062   4.278  11.542   8.510
 1722SOL    HW1 7063   4.291  11.510   8.421
 1722SOL    HW2 7064   4.196  11.592   8.506
 1723SOL     OW 7065   5.642   6.034  10.313
 1723SOL    HW1 7066   5.611   5.977  10.384
 1723SOL    HW2 7067   5.570   6.035  10.250
 1724SOL     OW 7068   5.161  14.679   6.613
 1724SOL    HW1 7069   5.154  14.769   6.643
 1724SOL    HW2 7070   5.127  14.626   6.686
 1725SOL     OW 7071  10.704   0.894   3.219
 1725SOL    HW1 7072  10.668   0.900   3.131
 1725SOL    HW2 7073  10.720   0.984   3.245
 1726SOL     OW 7074   8.667  12.557   3.854
 1726SOL    HW1 7075   8.739  12.533   3.912
 1726SOL    HW2 7076   8.655  12.651   3.870
 1727SOL     OW 7077   0.256   1.114  14.225
 1727SOL    HW1 7078   0.348   1.132  14.245
 1727SOL    HW2 7079   0.259   1.051  14.153
 1728SOL     OW 7080  10.072   3.588  12.450
 1728SOL    HW1 7081  10.166   3.592  12.465
 1728SOL    HW2 7082  10.061   3.612  12.358
 1729SOL     OW 7083   0.697  10.974   8.564
 1729SOL    HW1 7084   0.644  11.048   8.533
 1729SOL    HW2 7085   0.701  10.985   8.659
 1730SOL     OW 7086   5.532  13.760  10.166
 1730SOL    HW1 7087   5.531  13.837  10.224
 1730SOL    HW2 7088   5.523  13.686  10.226
 1731SOL     OW 7089   7.733   8.150   0.362
 1731SOL    HW1 7090   7.749   8.231   0.315
 1731SOL    HW2 7091   7.817   8.104   0.362
 1732SOL     OW 7092  14.770   6.750   1.119
 1732SOL    HW1 7093  14.756   6.668   1.166
 1732SOL    HW2 7094  14.843   6.731   1.059
 1733SOL     OW 7095  12.222   4.648   2.824
 1733SOL    HW1 7096  12.254   4.558   2.833
 1733SOL    HW2 7097  12.200   4.656   2.731
 1734SOL     OW 7098   0.725   6.175  10.459
 1734SOL    HW1 7099   0.705   6.223  10.539
 1734SOL    HW2 7100   0.804   6.216  10.425
 1735SOL     OW 7101  10.947  13.680   3.536
 1735SOL    HW1 7102  10.912  13.707   3.621
 1735SOL    HW2 7103  11.038  13.708   3.538
 1736SOL     OW 7104   4.946  11.036  10.322
 1736SOL    HW1 7105   5.028  11.040  10.274
 1736SOL    HW2 7106   4.942  10.947  10.356
 1737SOL     OW 7107  12.200  13.464   1.522
 1737SOL    HW1 7108  12.167  13.374   1.513
 1737SOL    HW2 7109  12.130  13.518   1.485
 1738SOL     OW 7110   4.826  11.935  12.968
 1738SOL    HW1 7111   4.900  11.894  12.922
 1738SOL    HW2 7112   4.750  11.882  12.943
 1739SOL     OW 7113  11.733   9.273   5.180
 1739SOL    HW1 7114  11.703   9.251   5.268
 1739SOL    HW2 7115  11.804   9.211   5.163
 1740SOL     OW 7116  10.415  10.731   6.606
 1740SOL    HW1 7117  10.425  10.652   6.553
 1740SOL    HW2 7118  10.327  10.763   6.586
 1741SOL     OW 7119  13.785   1.754   7.783
 1741SOL    HW1 7120  13.699   1.767   7.743
 1741SOL    HW2 7121  13.848   1.773   7.713
 1742SOL     OW 7122   3.431  13.132   7.918
 1742SOL    HW1 7123   3.491  13.111   7.846
 1742SOL    HW2 7124   3.345  13.108   7.884
 1743SOL     OW 7125   0.272   6.785   6.518
 1743SOL    HW1 7126   0.308   6.769   6.431
 1743SOL    HW2 7127   0.334   6.744   6.578
 1744SOL     OW 7128   4.427  13.681   0.596
 1744SOL    HW1 7129   4.360  13.748   0.588
 1744SOL    HW2 7130   4.396  13.624   0.667
 1745SOL     OW 7131  10.870   2.131   5.236
 1745SOL    HW1 7132  10.962   2.132   5.260
 1745SOL    HW2 7133  10.823   2.141   5.319
 1746SOL     OW 7134   4.554   6.852   7.829
 1746SOL    HW1 7135   4.627   6.914   7.826
 1746SOL    HW2 7136   4.582   6.785   7.893
 1747SOL     OW 7137   6.060  12.705   3.176
 1747SOL    HW1 7138   5.976  12.670   3.206
 1747SOL    HW2 7139   6.057  12.798   3.198
 1748SOL     OW 7140  13.984   4.323   3.029
 1748SOL    HW1 7141  13.933   4.385   2.977
 1748SOL    HW2 7142  13.945   4.327   3.116
 1749SOL     OW 7143   8.364   5.077   2.078
 1749SOL    HW1 7144   8.369   4.986   2.048
 1749SOL    HW2 7145   8.447   5.093   2.121
 1750SOL     OW 7146  11.689   9.948  14.034
 1750SOL    HW1 7147  11.772   9.951  14.082
 1750SOL    HW2 7148  11.707   9.996  13.953
 1751SOL     OW 7149   4.551   4.722   3.788
 1751SOL    HW1 7150   4.589   4.711   3.875
 1751SOL    HW2 7151   4.581   4.809   3.759
 1752SOL     OW 7152   1.743  14.256  12.299
 1752SOL    HW1 7153   1.824  14.208  12.282
 1752SOL    HW2 7154   1.759  14.343  12.263
 1753SOL     OW 7155   6.295  13.413   2.227
 1753SOL    HW1 7156   6.237  13.377   2.159
 1753SOL    HW2 7157   6.373  13.440   2.179
 1754SOL     OW 7158   3.195   1.669  11.613
 1754SOL    HW1 7159   3.173   1.762  11.602
 1754SOL    HW2 7160   3.135   1.638  11.680
 1755SOL     OW 7161   4.917   5.416   5.490
 1755SOL    HW1 7162   4.997   5.431   5.541
 1755SOL    HW2 7163   4.948   5.411   5.399
 1756SOL     OW 7164   2.942   1.076   2.655
 1756SOL    HW1 7165   3.020   1.130   2.645
 1756SOL    HW2 7166   2.976   0.987   2.665
 1757SOL     OW 7167   8.182  13.896  12.955
 1757SOL    HW1 7168   8.121  13.848  13.012
 1757SOL    HW2 7169   8.125  13.946  12.897
 1758SOL     OW 7170   2.295   3.611   0.685
 1758SOL    HW1 7171   2.280   3.675   0.755
 1758SOL    HW2 7172   2.322   3.531   0.732
 1759SOL     OW 7173   3.853   4.125   7.243
 1759SOL    HW1 7174   3.943   4.153   7.224
 1759SOL    HW2 7175   3.863   4.043   7.292
 1760SOL     OW 7176   7.923   6.714   8.824
 1760SOL    HW1 7177   7.979   6.785   8.857
 1760SOL    HW2 7178   7.972   6.676   8.751
 1761SOL     OW 7179   9.401  12.002   1.951
 1761SOL    HW1 7180   9.362  11.915   1.954
 1761SOL    HW2 7181   9.412  12.026   2.043
 1762SOL     OW 7182   6.702   5.079   2.051
 1762SOL    HW1 7183   6.630   5.079   2.113
 1762SOL    HW2 7184   6.697   4.994   2.007
 1763SOL     OW 7185   5.302   2.278  10.240
 1763SOL    HW1 7186   5.257   2.203  10.277
 1763SOL    HW2 7187   5.266   2.287  10.152
 1764SOL     OW 7188   0.463  12.534   3.168
 1764SOL    HW1 7189   0.416  12.522   3.086
 1764SOL    HW2 7190   0.412  12.599   3.216
 1765SOL     OW 7191   1.482   7.215  13.772
 1765SOL    HW1 7192   1.497   7.309  13.782
 1765SOL    HW2 7193   1.391   7.208  13.741
 1766SOL     OW 7194   5.658   3.226  14.749
 1766SOL    HW1 7195   5.566   3.211  14.728
 1766SOL    HW2 7196   5.700   3.238  14.664
 1767SOL     OW 7197   2.483   6.516   9.907
 1767SOL    HW1 7198   2.454   6.607   9.906
 1767SOL    HW2 7199   2.556   6.514   9.845
 1768SOL     OW 7200   0.726   9.497  10.375
 1768SOL    HW1 7201   0.669   9.433  10.332
 1768SOL    HW2 7202   0.667   9.554  10.423
 1769SOL     OW 7203  11.185  10.971   9.058
 1769SOL    HW1 7204  11.273  10.935   9.045
 1769SOL    HW2 7205  11.127  10.900   9.031
 1770SOL     OW 7206  12.276   2.135   9.734
 1770SOL    HW1 7207  12.294   2.136   9.828
 1770SOL    HW2 7208  12.191   2.092   9.726
 1771SOL     OW 7209  11.094   6.986  14.257
 1771SOL    HW1 7210  11.081   6.892  14.270
 1771SOL    HW2 7211  11.084   6.999  14.163
 1772SOL     OW 7212  11.791  12.101  10.788
 1772SOL    HW1 7213  11.753  12.022  10.827
 1772SOL    HW2 7214  11.885  12.092  10.802
 1773SOL     OW 7215  10.702   6.206  14.327
 1773SOL    HW1 7216  10.690   6.197  14.233
 1773SOL    HW2 7217  10.702   6.300  14.343
 1774SOL     OW 7218   2.323   1.905   6.945
 1774SOL    HW1 7219   2.363   1.889   6.859
 1774SOL    HW2 7220   2.312   2.000   6.949
 1775SOL     OW 7221   7.597  12.734   7.947
 1775SOL    HW1 7222   7.660  12.709   8.015
 1775SOL    HW2 7223   7.586  12.828   7.957
 1776SOL     OW 7224   6.632  12.743   5.392
 1776SOL    HW1 7225   6.634  12.702   5.479
 1776SOL    HW2 7226   6.553  12.796   5.392
 1777SOL     OW 7227  10.966   9.329   7.402
 1777SOL    HW1 7228  11.050   9.364   7.432
 1777SOL    HW2 7229  10.906   9.403   7.405
 1778SOL     OW 7230   9.612   5.970  11.805
 1778SOL    HW1 7231   9.565   5.983  11.887
 1778SOL    HW2 7232   9.580   5.886  11.772
 1779SOL     OW 7233  10.758   2.498   8.567
 1779SOL    HW1 7234  10.854   2.509   8.570
 1779SOL    HW2 7235  10.730   2.515   8.657
 1780SOL     OW 7236  12.630   1.015   0.447
 1780SOL    HW1 7237  12.696   0.988   0.511
 1780SOL    HW2 7238  12.568   1.067   0.498
 1781SOL     OW 7239   7.251  14.115   5.126
 1781SOL    HW1 7240   7.224  14.073   5.044
 1781SOL    HW2 7241   7.237  14.047   5.193
 1782SOL     OW 7242   0.688  13.525   0.329
 1782SOL    HW1 7243   0.688  13.470   0.251
 1782SOL    HW2 7244   0.603  13.509   0.370
 1783SOL     OW 7245  11.928   2.260   9.693
 1783SOL    HW1 7246  11.961   2.171   9.680
 1783SOL    HW2 7247  11.885   2.258   9.779
 1784SOL     OW 7248   4.687   7.834   0.335
 1784SOL    HW1 7249   4.614   7.855   0.393
 1784SOL    HW2 7250   4.755   7.801   0.394
 1785SOL     OW 7251  14.083   4.434   7.767
 1785SOL    HW1 7252  13.995   4.395   7.764
 1785SOL    HW2 7253  14.100   4.447   7.860
 1786SOL     OW 7254  10.554   2.884   8.637
 1786SOL    HW1 7255  10.512   2.968   8.656
 1786SOL    HW2 7256  10.559   2.881   8.541
 1787SOL     OW 7257   5.385   2.972   5.555
 1787SOL    HW1 7258   5.328   3.043   5.525
 1787SOL    HW2 7259   5.436   2.949   5.477
 1788SOL     OW 7260   8.805  10.311   5.484
 1788SOL    HW1 7261   8.895  10.337   5.467
 1788SOL    HW2 7262   8.767  10.296   5.398
 1789SOL     OW 7263  14.848   3.269   8.172
 1789SOL    HW1 7264  14.790   3.344   8.158
 1789SOL    HW2 7265  14.819   3.231   8.254
 1790SOL     OW 7266  10.164   1.917   4.560
 1790SOL    HW1 7267  10.095   1.895   4.622
 1790SOL    HW2 7268  10.244   1.884   4.600
 1791SOL     OW 7269   9.870   0.524   5.453
 1791SOL    HW1 7270   9.809   0.544   5.524
 1791SOL    HW2 7271   9.823   0.546   5.373
 1792SOL     OW 7272  12.197  10.359   7.553
 1792SOL    HW1 7273  12.196  10.355   7.458
 1792SOL    HW2 7274  12.226  10.272   7.581
 1793SOL     OW 7275   0.707  11.650   8.939
 1793SOL    HW1 7276   0.632  11.710   8.938
 1793SOL    HW2 7277   0.761  11.680   9.011
 1794SOL     OW 7278   8.756  14.456  12.308
 1794SOL    HW1 7279   8.793  14.520  12.247
 1794SOL    HW2 7280   8.785  14.486  12.395
 1795SOL     OW 7281   8.528   0.841   9.312
 1795SOL    HW1 7282   8.514   0.925   9.268
 1795SOL    HW2 7283   8.597   0.859   9.376
 1796SOL     OW 7284   4.602   9.849  12.135
 1796SOL    HW1 7285   4.537   9.881  12.073
 1796SOL    HW2 7286   4.644   9.927  12.169
 1797SOL     OW 7287   2.693   5.016   1.583
 1797SOL    HW1 7288   2.674   5.054   1.669
 1797SOL    HW2 7289   2.635   5.063   1.523
 1798SOL     OW 7290   4.875   6.430   8.977
 1798SOL    HW1 7291   4.783   6.404   8.972
 1798SOL    HW2 7292   4.873   6.526   8.974
 1799SOL     OW 7293   1.322   2.116   1.970
 1799SOL    HW1 7294   1.344   2.100   2.062
 1799SOL    HW2 7295   1.404   2.146   1.931
 1800SOL     OW 7296   2.698   2.610   1.847
 1800SOL    HW1 7297   2.654   2.541   1.898
 1800SOL    HW2 7298   2.790   2.602   1.870
 1801SOL     OW 7299   9.489   6.118   4.506
 1801SOL    HW1 7300   9.471   6.025   4.518
 1801SOL    HW2 7301   9.585   6.124   4.505
 1802SOL     OW 7302  11.075   9.735   6.251
 1802SOL    HW1 7303  11.018   9.676   6.300
 1802SOL    HW2 7304  11.116   9.679   6.185
 1803SOL     OW 7305   1.781   2.511   3.447
 1803SOL    HW1 7306   1.858   2.464   3.416
 1803SOL    HW2 7307   1.779   2.495   3.541
 1804SOL     OW 7308   5.497  12.156   8.101
 1804SOL    HW1 7309   5.493  12.245   8.137
 1804SOL    HW2 7310   5.510  12.100   8.178
 1805SOL     OW 7311   1.196  11.881   6.094
 1805SOL    HW1 7312   1.185  11.951   6.158
 1805SOL    HW2 7313   1.117  11.827   6.103
 1806SOL     OW 7314   6.375  14.421   6.115
 1806SOL    HW1 7315   6.450  14.381   6.072
 1806SOL    HW2 7316   6.367  14.375   6.199
 1807SOL     OW 7317  14.748   2.678   5.868
 1807SOL    HW1 7318  14.757   2.636   5.953
 1807SOL    HW2 7319  14.654   2.679   5.851
 1808SOL     OW 7320   2.341   5.222   6.510
 1808SOL    HW1 7321   2.426   5.178   6.513
 1808SOL    HW2 7322   2.286   5.173   6.572
 1809SOL     OW 7323   2.609   0.746  12.668
 1809SOL    HW1 7324   2.590   0.678  12.733
 1809SOL    HW2 7325   2.665   0.702  12.604
 1810SOL     OW 7326   3.508   5.523   9.252
 1810SOL    HW1 7327   3.496   5.616   9.234
 1810SOL    HW2 7328   3.510   5.517   9.348
 1811SOL     OW 7329   5.927   4.648   8.770
 1811SOL    HW1 7330   5.900   4.587   8.838
 1811SOL    HW2 7331   5.958   4.593   8.699
 1812SOL     OW 7332   4.299   4.891  12.954
 1812SOL    HW1 7333   4.308   4.907  13.048
 1812SOL    HW2 7334   4.209   4.860  12.943
 1813SOL     OW 7335   0.310   7.902   6.526
 1813SOL    HW1 7336   0.398   7.930   6.551
 1813SOL    HW2 7337   0.319   7.873   6.436
 1814SOL     OW 7338   5.284   0.347  11.846
 1814SOL    HW1 7339   5.241   0.320  11.765
 1814SOL    HW2 7340   5.334   0.425  11.823
 1815SOL     OW 7341  12.441  10.939   8.578
 1815SOL    HW1 7342  12.473  10.934   8.668
 1815SOL    HW2 7343  12.508  10.894   8.526
 1816SOL     OW 7344  13.584  14.566   9.321
 1816SOL    HW1 7345  13.639  14.499   9.280
 1816SOL    HW2 7346  13.495  14.543   9.295
 1817SOL     OW 7347   2.536   7.019   4.957
 1817SOL    HW1 7348   2.603   6.952   4.974
 1817SOL    HW2 7349   2.575   7.075   4.890
 1818SOL     OW 7350   5.979   8.284  10.547
 1818SOL    HW1 7351   6.072   8.299  10.531
 1818SOL    HW2 7352   5.964   8.318  10.635
 1819SOL     OW 7353  12.822   2.176   1.555
 1819SOL    HW1 7354  12.906   2.129   1.551
 1819SOL    HW2 7355  12.847   2.268   1.567
 1820SOL     OW 7356   0.145  11.164   9.549
 1820SOL    HW1 7357   0.189  11.092   9.595
 1820SOL    HW2 7358   0.120  11.225   9.619
 1821SOL     OW 7359   5.549   7.531  10.684
 1821SOL    HW1 7360   5.597   7.522  10.766
 1821SOL    HW2 7361   5.589   7.607  10.641
 1822SOL     OW 7362   3.208   0.549   0.222
 1822SOL    HW1 7363   3.206   0.496   0.142
 1822SOL    HW2 7364   3.182   0.488   0.291
 1823SOL     OW 7365  11.015   7.003   2.547
 1823SOL    HW1 7366  10.941   7.006   2.609
 1823SOL    HW2 7367  11.083   7.055   2.589
 1824SOL     OW 7368   6.248  14.838   1.488
 1824SOL    HW1 7369   6.277  14.759   1.444
 1824SOL    HW2 7370   6.322   0.024   1.480
 1825SOL     OW 7371  13.175  13.450   1.336
 1825SOL    HW1 7372  13.178  13.511   1.263
 1825SOL    HW2 7373  13.140  13.501   1.409
 1826SOL     OW 7374   6.154  11.576  10.710
 1826SOL    HW1 7375   6.063  11.553  10.728
 1826SOL    HW2 7376   6.185  11.508  10.650
 1827SOL     OW 7377   5.854  14.546   8.272
 1827SOL    HW1 7378   5.947  14.565   8.282
 1827SOL    HW2 7379   5.841  14.532   8.178
 1828SOL     OW 7380  12.430   6.862  14.628
 1828SOL    HW1 7381  12.452   6.774  14.659
 1828SOL    HW2 7382  12.515   6.903  14.612
 1829SOL     OW 7383  13.711  13.264  12.755
 1829SOL    HW1 7384  13.701  13.307  12.840
 1829SOL    HW2 7385  13.755  13.328  12.700
 1830SOL     OW 7386  10.666  11.866  14.425
 1830SOL    HW1 7387  10.622  11.833  14.346
 1830SOL    HW2 7388  10.753  11.826  14.422
 1831SOL     OW 7389   6.481   7.336  12.517
 1831SOL    HW1 7390   6.505   7.363  12.429
 1831SOL    HW2 7391   6.447   7.247  12.506
 1832SOL     OW 7392  13.028   4.716  11.842
 1832SOL    HW1 7393  13.075   4.714  11.759
 1832SOL    HW2 7394  12.970   4.792  11.834
 1833SOL     OW 7395   0.229  12.556   8.011
 1833SOL    HW1 7396   0.225  12.472   8.055
 1833SOL    HW2 7397   0.242  12.620   8.081
 1834SOL     OW 7398   0.278   9.627  11.724
 1834SOL    HW1 7399   0.342   9.690  11.690
 1834SOL    HW2 7400   0.323   9.543  11.721
 1835SOL     OW 7401   1.363  11.776   2.917
 1835SOL    HW1 7402   1.337  11.807   2.830
 1835SOL    HW2 7403   1.433  11.836   2.943
 1836SOL     OW 7404   9.596  11.046   2.377
 1836SOL    HW1 7405   9.555  10.967   2.342
 1836SOL    HW2 7406   9.620  11.023   2.467
 1837SOL     OW 7407   6.142   0.589   7.728
 1837SOL    HW1 7408   6.059   0.633   7.711
 1837SOL    HW2 7409   6.120   0.523   7.794
 1838SOL     OW 7410   7.750   0.225  14.359
 1838SOL    HW1 7411   7.769   0.277  14.437
 1838SOL    HW2 7412   7.836   0.201  14.324
 1839SOL     OW 7413   0.864   7.338   3.203
 1839SOL    HW1 7414   0.855   7.353   3.297
 1839SOL    HW2 7415   0.776   7.321   3.172
 1840SOL     OW 7416  14.049  10.065  12.864
 1840SOL    HW1 7417  14.131  10.107  12.839
 1840SOL    HW2 7418  14.014  10.028  12.783
 1841SOL     OW 7419  13.733   7.473  10.363
 1841SOL    HW1 7420  13.678   7.418  10.308
 1841SOL    HW2 7421  13.680   7.551  10.380
 1842SOL     OW 7422   0.570   4.341  12.356
 1842SOL    HW1 7423   0.528   4.363  12.273
 1842SOL    HW2 7424   0.498   4.337  12.420
 1843SOL     OW 7425   1.875  10.790   7.081
 1843SOL    HW1 7426   1.789  10.757   7.105
 1843SOL    HW2 7427   1.928  10.779   7.160
 1844SOL     OW 7428  14.766  10.729  11.246
 1844SOL    HW1 7429  14.776  10.696  11.157
 1844SOL    HW2 7430  14.701  10.799  11.239
 1845SOL     OW 7431  10.605   2.300   7.151
 1845SOL    HW1 7432  10.666   2.351   7.205
 1845SOL    HW2 7433  10.524   2.296   7.202
 1846SOL     OW 7434   3.435   6.932   2.831
 1846SOL    HW1 7435   3.398   6.861   2.883
 1846SOL    HW2 7436   3.378   6.939   2.755
 1847SOL     OW 7437  13.434   1.075   3.997
 1847SOL    HW1 7438  13.358   1.130   3.975
 1847SOL    HW2 7439  13.429   1.065   4.092
 1848SOL     OW 7440  12.977  13.816  12.170
 1848SOL    HW1 7441  12.954  13.723  12.177
 1848SOL    HW2 7442  13.044  13.828  12.237
 1849SOL     OW 7443   0.534   0.800   5.279
 1849SOL    HW1 7444   0.510   0.708   5.267
 1849SOL    HW2 7445   0.630   0.799   5.285
 1850SOL     OW 7446   9.551   5.108   7.982
 1850SOL    HW1 7447   9.507   5.069   7.906
 1850SOL    HW2 7448   9.642   5.118   7.954
 1851SOL     OW 7449   7.077   9.140   9.001
 1851SOL    HW1 7450   7.163   9.109   8.971
 1851SOL    HW2 7451   7.015   9.077   8.965
 1852SOL     OW 7452   0.029  11.665   3.096
 1852SOL    HW1 7453  14.869  11.672   3.185
 1852SOL    HW2 7454  14.846  11.604   3.051
 1853SOL     OW 7455   8.268   0.668   1.177
 1853SOL    HW1 7456   8.192   0.660   1.235
 1853SOL    HW2 7457   8.344   0.664   1.235
 1854SOL     OW 7458   7.120   3.435   2.294
 1854SOL    HW1 7459   7.035   3.470   2.267
 1854SOL    HW2 7460   7.177   3.450   2.219
 1855SOL     OW 7461   9.677  11.658  13.516
 1855SOL    HW1 7462   9.601  11.712  13.539
 1855SOL    HW2 7463   9.639  11.574  13.491
 1856SOL     OW 7464   6.422  10.846  10.055
 1856SOL    HW1 7465   6.374  10.866   9.975
 1856SOL    HW2 7466   6.357  10.856  10.125
 1857SOL     OW 7467  13.765   0.421  13.419
 1857SOL    HW1 7468  13.815   0.428  13.500
 1857SOL    HW2 7469  13.782   0.503  13.373
 1858SOL     OW 7470  11.712  13.704   7.883
 1858SOL    HW1 7471  11.789  13.671   7.837
 1858SOL    HW2 7472  11.747  13.745   7.962
 1859SOL     OW 7473   4.643  10.132   9.170
 1859SOL    HW1 7474   4.599  10.047   9.168
 1859SOL    HW2 7475   4.668  10.149   9.079
 1860SOL     OW 7476   8.828   3.332   7.501
 1860SOL    HW1 7477   8.844   3.256   7.445
 1860SOL    HW2 7478   8.914   3.374   7.510
 1861SOL     OW 7479   6.823   9.168   7.755
 1861SOL    HW1 7480   6.883   9.170   7.680
 1861SOL    HW2 7481   6.736   9.173   7.716
 1862SOL     OW 7482   9.383  12.487   6.303
 1862SOL    HW1 7483   9.312  12.516   6.246
 1862SOL    HW2 7484   9.453  12.460   6.244
 1863SOL     OW 7485   3.818  14.086  12.977
 1863SOL    HW1 7486   3.903  14.125  12.955
 1863SOL    HW2 7487   3.835  13.992  12.977
 1864SOL     OW 7488  12.115   1.265   4.320
 1864SOL    HW1 7489  12.145   1.289   4.232
 1864SOL    HW2 7490  12.068   1.342   4.352
 1865SOL     OW 7491   3.691   6.410   5.200
 1865SOL    HW1 7492   3.644   6.390   5.281
 1865SOL    HW2 7493   3.660   6.345   5.137
 1866SOL     OW 7494   9.613   1.644   6.226
 1866SOL    HW1 7495   9.633   1.697   6.148
 1866SOL    HW2 7496   9.676   1.673   6.292
 1867SOL     OW 7497  11.195   7.388   9.153
 1867SOL    HW1 7498  11.153   7.396   9.238
 1867SOL    HW2 7499  11.161   7.306   9.117
 1868SOL     OW 7500  10.268   7.900   8.348
 1868SOL    HW1 7501  10.198   7.964   8.332
 1868SOL    HW2 7502  10.230   7.816   8.324
 1869SOL     OW 7503   4.180  12.862   1.858
 1869SOL    HW1 7504   4.096  12.851   1.902
 1869SOL    HW2 7505   4.176  12.801   1.783
 1870SOL     OW 7506   4.991   1.026   5.336
 1870SOL    HW1 7507   4.959   1.114   5.357
 1870SOL    HW2 7508   5.079   1.040   5.301
 1871SOL     OW 7509   8.450  11.751   7.672
 1871SOL    HW1 7510   8.524  11.715   7.721
 1871SOL    HW2 7511   8.400  11.673   7.645
 1872SOL     OW 7512   3.217  12.624   4.437
 1872SOL    HW1 7513   3.247  12.670   4.359
 1872SOL    HW2 7514   3.137  12.580   4.409
 1873SOL     OW 7515  12.406   1.981   6.444
 1873SOL    HW1 7516  12.408   1.933   6.361
 1873SOL    HW2 7517  12.478   2.044   6.438
 1874SOL     OW 7518  11.969  11.965   6.196
 1874SOL    HW1 7519  12.053  11.935   6.159
 1874SOL    HW2 7520  11.916  11.984   6.119
 1875SOL     OW 7521  12.384   6.999   4.127
 1875SOL    HW1 7522  12.369   7.016   4.034
 1875SOL    HW2 7523  12.327   6.925   4.147
 1876SOL     OW 7524  10.766   8.260   7.743
 1876SOL    HW1 7525  10.724   8.330   7.692
 1876SOL    HW2 7526  10.806   8.306   7.817
 1877SOL     OW 7527   2.170   3.523   9.800
 1877SOL    HW1 7528   2.112   3.479   9.738
 1877SOL    HW2 7529   2.252   3.535   9.752
 1878SOL     OW 7530   9.789   5.574   1.810
 1878SOL    HW1 7531   9.705   5.553   1.769
 1878SOL    HW2 7532   9.792   5.669   1.812
 1879SOL     OW 7533   0.777  12.346  11.174
 1879SOL    HW1 7534   0.733  12.398  11.241
 1879SOL    HW2 7535   0.868  12.374  11.178
 1880SOL     OW 7536  14.070   6.945  14.572
 1880SOL    HW1 7537  14.061   6.997  14.492
 1880SOL    HW2 7538  13.982   6.908  14.586
 1881SOL     OW 7539  11.115   6.912  10.181
 1881SOL    HW1 7540  11.133   6.993  10.133
 1881SOL    HW2 7541  11.038   6.875  10.139
 1882SOL     OW 7542  14.353   2.042   9.199
 1882SOL    HW1 7543  14.297   1.971   9.229
 1882SOL    HW2 7544  14.297   2.094   9.141
 1883SOL     OW 7545   8.191   9.758  10.185
 1883SOL    HW1 7546   8.250   9.812  10.133
 1883SOL    HW2 7547   8.240   9.736  10.264
 1884SOL     OW 7548   6.339  11.672  10.154
 1884SOL    HW1 7549   6.307  11.759  10.131
 1884SOL    HW2 7550   6.269  11.635  10.209
 1885SOL     OW 7551   2.854   3.701   1.335
 1885SOL    HW1 7552   2.763   3.729   1.324
 1885SOL    HW2 7553   2.847   3.609   1.359
 1886SOL     OW 7554  14.483  10.633  12.537
 1886SOL    HW1 7555  14.564  10.677  12.509
 1886SOL    HW2 7556  14.468  10.567  12.468
 1887SOL     OW 7557  11.297  11.211   5.279
 1887SOL    HW1 7558  11.377  11.248   5.317
 1887SOL    HW2 7559  11.284  11.259   5.198
 1888SOL     OW 7560   3.631   9.269  14.087
 1888SOL    HW1 7561   3.541   9.267  14.053
 1888SOL    HW2 7562   3.683   9.303  14.014
 1889SOL     OW 7563   3.034   9.500   3.952
 1889SOL    HW1 7564   3.001   9.509   4.042
 1889SOL    HW2 7565   3.069   9.411   3.948
 1890SOL     OW 7566  13.947  13.464   3.729
 1890SOL    HW1 7567  13.902  13.382   3.711
 1890SOL    HW2 7568  13.884  13.516   3.779
 1891SOL     OW 7569  12.347   1.120  14.036
 1891SOL    HW1 7570  12.381   1.188  13.977
 1891SOL    HW2 7571  12.422   1.095  14.089
 1892SOL     OW 7572  14.595  13.353   6.072
 1892SOL    HW1 7573  14.590  13.273   6.124
 1892SOL    HW2 7574  14.670  13.339   6.014
 1893SOL     OW 7575  12.714   1.406  13.629
 1893SOL    HW1 7576  12.775   1.452  13.572
 1893SOL    HW2 7577  12.768   1.374  13.701
 1894SOL     OW 7578  14.218   9.395   7.953
 1894SOL    HW1 7579  14.180   9.368   8.037
 1894SOL    HW2 7580  14.142   9.400   7.894
 1895SOL     OW 7581   3.642   3.949  14.108
 1895SOL    HW1 7582   3.696   3.952  14.029
 1895SOL    HW2 7583   3.568   3.893  14.085
 1896SOL     OW 7584   4.204   1.641  13.987
 1896SOL    HW1 7585   4.221   1.700  14.061
 1896SOL    HW2 7586   4.174   1.560  14.027
 1897SOL     OW 7587   8.262   7.749   0.578
 1897SOL    HW1 7588   8.180   7.797   0.564
 1897SOL    HW2 7589   8.294   7.782   0.662
 1898SOL     OW 7590   0.198  12.244  12.119
 1898SOL    HW1 7591   0.219  12.152  12.134
 1898SOL    HW2 7592   0.283  12.288  12.116
 1899SOL     OW 7593   9.768  13.585  10.180
 1899SOL    HW1 7594   9.782  13.659  10.238
 1899SOL    HW2 7595   9.802  13.614  10.095
 1900SOL     OW 7596   3.550   2.669   8.862
 1900SOL    HW1 7597   3.457   2.688   8.856
 1900SOL    HW2 7598   3.575   2.698   8.950
 1901SOL     OW 7599   4.047   2.755   6.055
 1901SOL    HW1 7600   4.060   2.672   6.102
 1901SOL    HW2 7601   4.088   2.821   6.111
 1902SOL     OW 7602   4.532   5.346   6.588
 1902SOL    HW1 7603   4.590   5.393   6.647
 1902SOL    HW2 7604   4.486   5.415   6.539
 1903SOL     OW 7605  14.437   8.952   1.811
 1903SOL    HW1 7606  14.377   8.973   1.881
 1903SOL    HW2 7607  14.430   8.857   1.800
 1904SOL     OW 7608  13.853   1.324   1.747
 1904SOL    HW1 7609  13.769   1.317   1.702
 1904SOL    HW2 7610  13.918   1.326   1.676
 1905SOL     OW 7611   4.661   3.769   6.419
 1905SOL    HW1 7612   4.583   3.806   6.461
 1905SOL    HW2 7613   4.732   3.788   6.481
 1906SOL     OW 7614  10.370  14.227  10.079
 1906SOL    HW1 7615  10.403  14.176  10.153
 1906SOL    HW2 7616  10.449  14.256  10.033
 1907SOL     OW 7617   2.701  10.403  10.928
 1907SOL    HW1 7618   2.645  10.469  10.969
 1907SOL    HW2 7619   2.779  10.452  10.900
 1908SOL     OW 7620  12.450  11.400  10.062
 1908SOL    HW1 7621  12.495  11.365  10.138
 1908SOL    HW2 7622  12.357  11.380  10.078
 1909SOL     OW 7623   9.957   6.414   4.297
 1909SOL    HW1 7624   9.914   6.331   4.276
 1909SOL    HW2 7625  10.006   6.395   4.377
 1910SOL     OW 7626   2.152   7.684  10.535
 1910SOL    HW1 7627   2.148   7.780  10.532
 1910SOL    HW2 7628   2.217   7.664  10.602
 1911SOL     OW 7629   5.587  12.464   0.603
 1911SOL    HW1 7630   5.589  12.543   0.657
 1911SOL    HW2 7631   5.608  12.495   0.514
 1912SOL     OW 7632   6.064  12.470   6.552
 1912SOL    HW1 7633   5.985  12.419   6.535
 1912SOL    HW2 7634   6.109  12.474   6.467
 1913SOL     OW 7635  14.124   2.599   1.341
 1913SOL    HW1 7636  14.118   2.654   1.419
 1913SOL    HW2 7637  14.153   2.659   1.272
 1914SOL     OW 7638   8.741   9.234   6.167
 1914SOL    HW1 7639   8.741   9.321   6.126
 1914SOL    HW2 7640   8.677   9.184   6.118
 1915SOL     OW 7641   9.004   8.429  10.576
 1915SOL    HW1 7642   9.090   8.428  10.619
 1915SOL    HW2 7643   8.943   8.402  10.644
 1916SOL     OW 7644  12.578   8.557   8.896
 1916SOL    HW1 7645  12.494   8.516   8.879
 1916SOL    HW2 7646  12.567   8.602   8.979
 1917SOL     OW 7647   4.637  12.263   0.315
 1917SOL    HW1 7648   4.627  12.190   0.254
 1917SOL    HW2 7649   4.630  12.341   0.260
 1918SOL     OW 7650   6.918   9.877   5.971
 1918SOL    HW1 7651   6.946   9.939   5.903
 1918SOL    HW2 7652   6.909   9.931   6.049
 1919SOL     OW 7653   4.241   9.133   4.162
 1919SOL    HW1 7654   4.321   9.088   4.188
 1919SOL    HW2 7655   4.205   9.168   4.244
 1920SOL     OW 7656  10.580   1.861  12.311
 1920SOL    HW1 7657  10.610   1.805  12.240
 1920SOL    HW2 7658  10.513   1.809  12.357
 1921SOL     OW 7659  11.497  10.178   3.121
 1921SOL    HW1 7660  11.557  10.141   3.056
 1921SOL    HW2 7661  11.411  10.144   3.097
 1922SOL     OW 7662   8.931  10.752   2.092
 1922SOL    HW1 7663   8.978  10.682   2.136
 1922SOL    HW2 7664   9.000  10.812   2.063
 1923SOL     OW 7665   7.756  13.184   8.724
 1923SOL    HW1 7666   7.796  13.271   8.720
 1923SOL    HW2 7667   7.669  13.197   8.685
 1924SOL     OW 7668   0.316   4.884   3.915
 1924SOL    HW1 7669   0.407   4.863   3.933
 1924SOL    HW2 7670   0.292   4.827   3.843
 1925SOL     OW 7671   8.410   7.186   8.247
 1925SOL    HW1 7672   8.447   7.106   8.284
 1925SOL    HW2 7673   8.322   7.161   8.219
 1926SOL     OW 7674   9.843   0.772   4.650
 1926SOL    HW1 7675   9.930   0.806   4.671
 1926SOL    HW2 7676   9.798   0.766   4.734
 1927SOL     OW 7677  11.245   4.168   8.538
 1927SOL    HW1 7678  11.291   4.173   8.454
 1927SOL    HW2 7679  11.189   4.091   8.530
 1928SOL     OW 7680   4.454   2.064   7.384
 1928SOL    HW1 7681   4.542   2.083   7.352
 1928SOL    HW2 7682   4.467   2.000   7.453
 1929SOL     OW 7683   6.616   9.573   6.821
 1929SOL    HW1 7684   6.527   9.551   6.847
 1929SOL    HW2 7685   6.613   9.667   6.802
 1930SOL     OW 7686   9.921   5.547  10.193
 1930SOL    HW1 7687   9.853   5.550  10.126
 1930SOL    HW2 7688   9.940   5.453  10.204
 1931SOL     OW 7689   3.038  11.432   4.841
 1931SOL    HW1 7690   2.975  11.465   4.777
 1931SOL    HW2 7691   3.027  11.488   4.918
 1932SOL     OW 7692   0.785   5.005   4.930
 1932SOL    HW1 7693   0.806   5.033   5.019
 1932SOL    HW2 7694   0.726   5.073   4.897
 1933SOL     OW 7695   5.155   9.306   7.842
 1933SOL    HW1 7696   5.250   9.297   7.833
 1933SOL    HW2 7697   5.120   9.268   7.761
 1934SOL     OW 7698   1.052  13.627   6.077
 1934SOL    HW1 7699   1.093  13.713   6.082
 1934SOL    HW2 7700   1.085  13.589   5.996
 1935SOL     OW 7701   9.751   8.195   5.194
 1935SOL    HW1 7702   9.734   8.173   5.102
 1935SOL    HW2 7703   9.821   8.261   5.190
 1936SOL     OW 7704  11.155  14.188   4.203
 1936SOL    HW1 7705  11.199  14.165   4.121
 1936SOL    HW2 7706  11.076  14.235   4.176
 1937SOL     OW 7707   1.911  11.684   8.080
 1937SOL    HW1 7708   1.823  11.704   8.048
 1937SOL    HW2 7709   1.941  11.611   8.025
 1938SOL     OW 7710   6.645   0.021   9.087
 1938SOL    HW1 7711   6.576   0.088   9.088
 1938SOL    HW2 7712   6.600  14.816   9.061
 1939SOL     OW 7713   1.083   1.731   6.016
 1939SOL    HW1 7714   1.119   1.707   6.102
 1939SOL    HW2 7715   0.993   1.756   6.034
 1940SOL     OW 7716   7.241   1.027   5.119
 1940SOL    HW1 7717   7.270   1.099   5.062
 1940SOL    HW2 7718   7.149   1.015   5.098
 1941SOL     OW 7719  10.446   1.813   1.732
 1941SOL    HW1 7720  10.447   1.857   1.647
 1941SOL    HW2 7721  10.354   1.802   1.753
 1942SOL     OW 7722   9.945  10.822   1.135
 1942SOL    HW1 7723  10.019  10.795   1.081
 1942SOL    HW2 7724   9.923  10.744   1.186
 1943SOL     OW 7725   9.835   3.873   8.230
 1943SOL    HW1 7726   9.861   3.880   8.322
 1943SOL    HW2 7727   9.904   3.819   8.190
 1944SOL     OW 7728  11.281  10.899  11.903
 1944SOL    HW1 7729  11.302  10.810  11.932
 1944SOL    HW2 7730  11.308  10.955  11.975
 1945SOL     OW 7731  12.955   9.880  11.351
 1945SOL    HW1 7732  12.992   9.801  11.390
 1945SOL    HW2 7733  13.031   9.931  11.323
 1946SOL     OW 7734  14.749  13.635   4.957
 1946SOL    HW1 7735  14.722  13.587   4.879
 1946SOL    HW2 7736  14.807  13.703   4.924
 1947SOL     OW 7737   2.868   9.102  11.870
 1947SOL    HW1 7738   2.937   9.062  11.817
 1947SOL    HW2 7739   2.915   9.147  11.940
 1948SOL     OW 7740  11.737   3.257  13.685
 1948SOL    HW1 7741  11.810   3.210  13.645
 1948SOL    HW2 7742  11.679   3.189  13.718
 1949SOL     OW 7743  13.345   6.216  10.052
 1949SOL    HW1 7744  13.416   6.279  10.040
 1949SOL    HW2 7745  13.368   6.168  10.131
 1950SOL     OW 7746   4.850   9.058  12.825
 1950SOL    HW1 7747   4.897   9.025  12.902
 1950SOL    HW2 7748   4.774   9.001  12.818
 1951SOL     OW 7749   1.052  11.668  13.350
 1951SOL    HW1 7750   1.036  11.603  13.418
 1951SOL    HW2 7751   1.004  11.746  13.380
 1952SOL     OW 7752   2.526   0.179   7.193
 1952SOL    HW1 7753   2.604   0.127   7.178
 1952SOL    HW2 7754   2.539   0.216   7.281
 1953SOL     OW 7755  12.413   2.891  14.279
 1953SOL    HW1 7756  12.455   2.973  14.306
 1953SOL    HW2 7757  12.341   2.917  14.223
 1954SOL     OW 7758   7.852   7.171   9.156
 1954SOL    HW1 7759   7.866   7.154   9.250
 1954SOL    HW2 7760   7.927   7.226   9.131
 1955SOL     OW 7761  10.622   6.832  10.205
 1955SOL    HW1 7762  10.636   6.770  10.277
 1955SOL    HW2 7763  10.546   6.798  10.158
 1956SOL     OW 7764  11.252   3.773   6.181
 1956SOL    HW1 7765  11.313   3.751   6.111
 1956SOL    HW2 7766  11.300   3.836   6.235
 1957SOL     OW 7767  14.674   2.095   2.080
 1957SOL    HW1 7768  14.750   2.084   2.023
 1957SOL    HW2 7769  14.658   2.190   2.081
 1958SOL     OW 7770  14.190  11.333   4.271
 1958SOL    HW1 7771  14.113  11.379   4.238
 1958SOL    HW2 7772  14.244  11.401   4.311
 1959SOL     OW 7773   5.694  12.260  11.163
 1959SOL    HW1 7774   5.609  12.221  11.144
 1959SOL    HW2 7775   5.685  12.352  11.138
 1960SOL     OW 7776   7.414   0.401  11.354
 1960SOL    HW1 7777   7.444   0.361  11.436
 1960SOL    HW2 7778   7.481   0.465  11.332
 1961SOL     OW 7779   9.356   0.092   8.441
 1961SOL    HW1 7780   9.334   0.153   8.511
 1961SOL    HW2 7781   9.372   0.147   8.365
 1962SOL     OW 7782   3.724   2.944  11.624
 1962SOL    HW1 7783   3.704   2.892  11.701
 1962SOL    HW2 7784   3.819   2.938  11.614
 1963SOL     OW 7785   0.156   3.527  13.885
 1963SOL    HW1 7786   0.070   3.513  13.924
 1963SOL    HW2 7787   0.177   3.618  13.905
 1964SOL     OW 7788  10.198   9.164   9.808
 1964SOL    HW1 7789  10.212   9.193   9.898
 1964SOL    HW2 7790  10.145   9.085   9.817
 1965SOL     OW 7791   3.827  14.412   8.094
 1965SOL    HW1 7792   3.856  14.402   8.004
 1965SOL    HW2 7793   3.806  14.323   8.123
 1966SOL     OW 7794   2.695  14.313   4.309
 1966SOL    HW1 7795   2.785  14.344   4.300
 1966SOL    HW2 7796   2.679  14.311   4.403
 1967SOL     OW 7797   7.472   2.835   9.535
 1967SOL    HW1 7798   7.482   2.809   9.443
 1967SOL    HW2 7799   7.520   2.917   9.542
 1968SOL     OW 7800   9.254   6.467   6.128
 1968SOL    HW1 7801   9.210   6.439   6.047
 1968SOL    HW2 7802   9.335   6.509   6.098
 1969SOL     OW 7803   2.049   0.890   2.284
 1969SOL    HW1 7804   1.974   0.901   2.226
 1969SOL    HW2 7805   2.073   0.979   2.310
 1970SOL     OW 7806   0.276   9.414   0.020
 1970SOL    HW1 7807   0.211   9.344   0.011
 1970SOL    HW2 7808   0.292   9.443  14.805
 1971SOL     OW 7809  11.336  13.612   2.624
 1971SOL    HW1 7810  11.356  13.703   2.603
 1971SOL    HW2 7811  11.389  13.593   2.701
 1972SOL     OW 7812   6.154   3.396   1.768
 1972SOL    HW1 7813   6.131   3.444   1.689
 1972SOL    HW2 7814   6.247   3.416   1.781
 1973SOL     OW 7815  13.042   0.642  12.155
 1973SOL    HW1 7816  12.966   0.685  12.194
 1973SOL    HW2 7817  13.049   0.559  12.202
 1974SOL     OW 7818   7.216  12.422   9.665
 1974SOL    HW1 7819   7.172  12.507   9.664
 1974SOL    HW2 7820   7.231  12.402   9.572
 1975SOL     OW 7821   7.669   4.397  11.627
 1975SOL    HW1 7822   7.597   4.409  11.565
 1975SOL    HW2 7823   7.709   4.314  11.601
 1976SOL     OW 7824   2.706   4.886   6.679
 1976SOL    HW1 7825   2.781   4.906   6.622
 1976SOL    HW2 7826   2.745   4.866   6.764
 1977SOL     OW 7827  11.469   6.182   4.445
 1977SOL    HW1 7828  11.400   6.176   4.379
 1977SOL    HW2 7829  11.514   6.264   4.425
 1978SOL     OW 7830  13.313   5.362  13.822
 1978SOL    HW1 7831  13.249   5.347  13.890
 1978SOL    HW2 7832  13.261   5.381  13.744
 1979SOL     OW 7833  10.843   1.266   2.455
 1979SOL    HW1 7834  10.766   1.209   2.451
 1979SOL    HW2 7835  10.819   1.333   2.519
 1980SOL     OW 7836   5.244  12.423   6.252
 1980SOL    HW1 7837   5.250  12.374   6.170
 1980SOL    HW2 7838   5.264  12.359   6.320
 1981SOL     OW 7839  12.450  11.341  13.701
 1981SOL    HW1 7840  12.495  11.346  13.785
 1981SOL    HW2 7841  12.372  11.288  13.718
 1982SOL     OW 7842   2.517   7.840   3.028
 1982SOL    HW1 7843   2.551   7.925   3.058
 1982SOL    HW2 7844   2.426   7.858   3.005
 1983SOL     OW 7845  14.014  12.029   3.643
 1983SOL    HW1 7846  14.031  12.123   3.650
 1983SOL    HW2 7847  13.933  12.023   3.593
 1984SOL     OW 7848   7.713   7.547   8.028
 1984SOL    HW1 7849   7.648   7.541   7.957
 1984SOL    HW2 7850   7.708   7.462   8.072
 1985SOL     OW 7851   3.297  13.296   0.802
 1985SOL    HW1 7852   3.296  13.230   0.732
 1985SOL    HW2 7853   3.343  13.371   0.764
 1986SOL     OW 7854  13.914   2.052   6.302
 1986SOL    HW1 7855  13.940   2.006   6.382
 1986SOL    HW2 7856  13.987   2.038   6.242
 1987SOL     OW 7857  14.357  12.460   3.233
 1987SOL    HW1 7858  14.382  12.451   3.141
 1987SOL    HW2 7859  14.398  12.386   3.277
 1988SOL     OW 7860   9.093  14.562  14.864
 1988SOL    HW1 7861   9.179  14.581  14.829
 1988SOL    HW2 7862   9.065  14.643   0.032
 1989SOL     OW 7863  14.402   8.539  13.132
 1989SOL    HW1 7864  14.317   8.564  13.169
 1989SOL    HW2 7865  14.424   8.457  13.176
 1990SOL     OW 7866  12.289  13.921   5.725
 1990SOL    HW1 7867  12.225  13.865   5.680
 1990SOL    HW2 7868  12.241  13.957   5.799
 1991SOL     OW 7869   0.629  12.030   3.390
 1991SOL    HW1 7870   0.568  12.056   3.321
 1991SOL    HW2 7871   0.598  12.075   3.468
 1992SOL     OW 7872   4.834   8.497   5.807
 1992SOL    HW1 7873   4.921   8.480   5.843
 1992SOL    HW2 7874   4.775   8.496   5.883
 1993SOL     OW 7875  12.032  14.736   3.791
 1993SOL    HW1 7876  12.114  14.744   3.742
 1993SOL    HW2 7877  11.971  14.696   3.729
 1994SOL     OW 7878   2.159   2.471   6.202
 1994SOL    HW1 7879   2.225   2.465   6.133
 1994SOL    HW2 7880   2.181   2.400   6.263
 1995SOL     OW 7881   9.522  12.766   2.378
 1995SOL    HW1 7882   9.538  12.832   2.446
 1995SOL    HW2 7883   9.604  12.718   2.372
 1996SOL     OW 7884  10.723  11.520  11.373
 1996SOL    HW1 7885  10.775  11.510  11.453
 1996SOL    HW2 7886  10.633  11.527  11.404
 1997SOL     OW 7887   6.414   3.508  13.163
 1997SOL    HW1 7888   6.465   3.464  13.094
 1997SOL    HW2 7889   6.409   3.599  13.134
 1998SOL     OW 7890   9.502   2.093   0.777
 1998SOL    HW1 7891   9.480   2.021   0.718
 1998SOL    HW2 7892   9.591   2.118   0.753
 1999SOL     OW 7893   8.176   3.649  13.209
 1999SOL    HW1 7894   8.121   3.584  13.165
 1999SOL    HW2 7895   8.168   3.728  13.156
 2000SOL     OW 7896  12.119   5.740  11.234
 2000SOL    HW1 7897  12.097   5.777  11.148
 2000SOL    HW2 7898  12.207   5.704  11.222
 2001SOL     OW 7899   6.578   5.630   1.979
 2001SOL    HW1 7900   6.568   5.698   1.912
 2001SOL    HW2 7901   6.545   5.550   1.938
 2002SOL     OW 7902  13.102   9.360   6.755
 2002SOL    HW1 7903  13.040   9.307   6.804
 2002SOL    HW2 7904  13.049   9.406   6.690
 2003SOL     OW 7905  11.125   7.106   0.589
 2003SOL    HW1 7906  11.158   7.016   0.589
 2003SOL    HW2 7907  11.203   7.159   0.609
 2004SOL     OW 7908   8.783   1.379  11.723
 2004SOL    HW1 7909   8.712   1.436  11.750
 2004SOL    HW2 7910   8.766   1.360  11.631
 2005SOL     OW 7911  13.209   8.295   2.019
 2005SOL    HW1 7912  13.136   8.288   2.081
 2005SOL    HW2 7913  13.186   8.370   1.964
 2006SOL     OW 7914   2.982   0.440   2.956
 2006SOL    HW1 7915   2.942   0.510   3.008
 2006SOL    HW2 7916   3.010   0.375   3.020
 2007SOL     OW 7917   4.095   9.027  13.149
 2007SOL    HW1 7918   4.005   9.057  13.161
 2007SOL    HW2 7919   4.146   9.107  13.140
 2008SOL     OW 7920   8.545  12.908  14.082
 2008SOL    HW1 7921   8.542  12.911  13.987
 2008SOL    HW2 7922   8.485  12.977  14.110
 2009SOL     OW 7923   2.344   4.131  10.180
 2009SOL    HW1 7924   2.307   4.219  10.190
 2009SOL    HW2 7925   2.435   4.141  10.207
 2010SOL     OW 7926   5.329  14.050   1.755
 2010SOL    HW1 7927   5.253  13.993   1.754
 2010SOL    HW2 7928   5.394  14.004   1.808
 2011SOL     OW 7929   1.688   0.331  14.538
 2011SOL    HW1 7930   1.727   0.419  14.533
 2011SOL    HW2 7931   1.633   0.335  14.616
 2012SOL     OW 7932  12.258   2.316   7.006
 2012SOL    HW1 7933  12.348   2.314   6.972
 2012SOL    HW2 7934  12.269   2.327   7.100
 2013SOL     OW 7935   6.704  12.906  12.999
 2013SOL    HW1 7936   6.622  12.935  12.960
 2013SOL    HW2 7937   6.679  12.836  13.059
 2014SOL     OW 7938  11.139   7.221  10.462
 2014SOL    HW1 7939  11.165   7.251  10.549
 2014SOL    HW2 7940  11.089   7.142  10.478
 2015SOL     OW 7941   6.800   4.381   9.631
 2015SOL    HW1 7942   6.727   4.359   9.573
 2015SOL    HW2 7943   6.766   4.452   9.686
 2016SOL     OW 7944   0.631   6.642   2.872
 2016SOL    HW1 7945   0.574   6.702   2.823
 2016SOL    HW2 7946   0.698   6.698   2.909
 2017SOL     OW 7947   6.943  14.624   0.726
 2017SOL    HW1 7948   6.918  14.674   0.804
 2017SOL    HW2 7949   6.993  14.686   0.673
 2018SOL     OW 7950   1.589   7.124   4.848
 2018SOL    HW1 7951   1.549   7.187   4.908
 2018SOL    HW2 7952   1.621   7.178   4.775
 2019SOL     OW 7953  12.736  12.172   8.114
 2019SOL    HW1 7954  12.698  12.142   8.196
 2019SOL    HW2 7955  12.812  12.116   8.101
 2020SOL     OW 7956   7.675  13.285   7.922
 2020SOL    HW1 7957   7.638  13.346   7.987
 2020SOL    HW2 7958   7.606  13.275   7.857
 2021SOL     OW 7959   9.897  13.978  11.652
 2021SOL    HW1 7960   9.805  13.970  11.675
 2021SOL    HW2 7961   9.936  13.896  11.684
 2022SOL     OW 7962  11.354   6.296  11.021
 2022SOL    HW1 7963  11.284   6.320  10.960
 2022SOL    HW2 7964  11.322   6.216  11.064
 2023SOL     OW 7965   5.354   1.301   6.848
 2023SOL    HW1 7966   5.298   1.232   6.884
 2023SOL    HW2 7967   5.425   1.254   6.805
 2024SOL     OW 7968   1.259   8.073  10.195
 2024SOL    HW1 7969   1.337   8.121  10.223
 2024SOL    HW2 7970   1.186   8.119  10.236
 2025SOL     OW 7971  10.755   7.644   6.083
 2025SOL    HW1 7972  10.787   7.734   6.094
 2025SOL    HW2 7973  10.749   7.610   6.173
 2026SOL     OW 7974   9.419   3.113   1.640
 2026SOL    HW1 7975   9.509   3.096   1.667
 2026SOL    HW2 7976   9.410   3.208   1.648
 2027SOL     OW 7977  11.311   8.116  12.132
 2027SOL    HW1 7978  11.298   8.200  12.089
 2027SOL    HW2 7979  11.225   8.074  12.129
 2028SOL     OW 7980   5.614   6.373  13.580
 2028SOL    HW1 7981   5.567   6.376  13.497
 2028SOL    HW2 7982   5.566   6.309  13.633
 2029SOL     OW 7983   9.489   6.317  10.704
 2029SOL    HW1 7984   9.434   6.283  10.775
 2029SOL    HW2 7985   9.433   6.314  10.626
 2030SOL     OW 7986   3.371   7.021  14.281
 2030SOL    HW1 7987   3.324   6.963  14.221
 2030SOL    HW2 7988   3.313   7.027  14.357
 2031SOL     OW 7989   5.935  11.407   5.142
 2031SOL    HW1 7990   5.945  11.445   5.230
 2031SOL    HW2 7991   5.887  11.473   5.092
 2032SOL     OW 7992   7.651  11.679   4.096
 2032SOL    HW1 7993   7.699  11.609   4.141
 2032SOL    HW2 7994   7.575  11.695   4.152
 2033SOL     OW 7995   1.285  12.516   4.172
 2033SOL    HW1 7996   1.295  12.505   4.077
 2033SOL    HW2 7997   1.288  12.611   4.185
 2034SOL     OW 7998   0.625   1.424   3.636
 2034SOL    HW1 7999   0.702   1.405   3.581
 2034SOL    HW2 8000   0.550   1.402   3.581
 2035SOL     OW 8001   9.926  10.653   5.650
 2035SOL    HW1 8002   9.885  10.733   5.684
 2035SOL    HW2 8003  10.018  10.661   5.674
 2036SOL     OW 8004   1.316  10.107  10.761
 2036SOL    HW1 8005   1.345  10.179  10.705
 2036SOL    HW2 8006   1.337  10.028  10.711
 2037SOL     OW 8007   4.651  11.995  14.271
 2037SOL    HW1 8008   4.670  12.068  14.213
 2037SOL    HW2 8009   4.636  12.034  14.357
 2038SOL     OW 8010   8.335   0.064  12.648
 2038SOL    HW1 8011   8.314   0.108  12.565
 2038SOL    HW2 8012   8.367   0.135  12.704
 2039SOL     OW 8013   2.104  10.679   7.195
 2039SOL    HW1 8014   2.161  10.643   7.127
 2039SOL    HW2 8015   2.149  10.661   7.277
 2040SOL     OW 8016   3.119  11.164   8.908
 2040SOL    HW1 8017   3.092  11.254   8.922
 2040SOL    HW2 8018   3.084  11.116   8.983
 2041SOL     OW 8019  10.592  13.222   2.049
 2041SOL    HW1 8020  10.546  13.148   2.090
 2041SOL    HW2 8021  10.643  13.261   2.120
 2042SOL     OW 8022   7.119   5.232   2.665
 2042SOL    HW1 8023   7.168   5.197   2.590
 2042SOL    HW2 8024   7.182   5.229   2.737
 2043SOL     OW 8025  10.607   5.065   8.329
 2043SOL    HW1 8026  10.553   5.015   8.389
 2043SOL    HW2 8027  10.581   5.035   8.242
 2044SOL     OW 8028   6.937   5.429   8.912
 2044SOL    HW1 8029   6.996   5.393   8.847
 2044SOL    HW2 8030   6.993   5.451   8.986
 2045SOL     OW 8031  12.344   2.461  10.974
 2045SOL    HW1 8032  12.404   2.420  11.036
 2045SOL    HW2 8033  12.273   2.397  10.965
 2046SOL     OW 8034  13.362  13.643   5.583
 2046SOL    HW1 8035  13.412  13.564   5.600
 2046SOL    HW2 8036  13.311  13.624   5.504
 2047SOL     OW 8037  12.571   1.620  10.769
 2047SOL    HW1 8038  12.607   1.570  10.843
 2047SOL    HW2 8039  12.496   1.667  10.806
 2048SOL     OW 8040   8.200  10.022   6.078
 2048SOL    HW1 8041   8.108  10.017   6.105
 2048SOL    HW2 8042   8.196  10.044   5.985
 2049SOL     OW 8043   4.220   1.918   9.633
 2049SOL    HW1 8044   4.169   1.840   9.610
 2049SOL    HW2 8045   4.311   1.889   9.631
 2050SOL     OW 8046   5.052  14.392   7.607
 2050SOL    HW1 8047   5.128  14.415   7.553
 2050SOL    HW2 8048   4.999  14.336   7.551
 2051SOL     OW 8049  11.379   1.287   1.411
 2051SOL    HW1 8050  11.284   1.289   1.408
 2051SOL    HW2 8051  11.402   1.196   1.390
 2052SOL     OW 8052   0.481  11.207   0.975
 2052SOL    HW1 8053   0.528  11.174   0.898
 2052SOL    HW2 8054   0.405  11.148   0.984
 2053SOL     OW 8055  12.506   7.871   8.425
 2053SOL    HW1 8056  12.455   7.920   8.360
 2053SOL    HW2 8057  12.591   7.859   8.383
 2054SOL     OW 8058   3.577   8.823   1.102
 2054SOL    HW1 8059   3.623   8.875   1.167
 2054SOL    HW2 8060   3.491   8.807   1.141
 2055SOL     OW 8061  10.129  13.166   3.095
 2055SOL    HW1 8062  10.071  13.238   3.119
 2055SOL    HW2 8063  10.120  13.103   3.166
 2056SOL     OW 8064   1.392   3.051   8.878
 2056SOL    HW1 8065   1.486   3.067   8.884
 2056SOL    HW2 8066   1.381   2.961   8.908
 2057SOL     OW 8067   8.346  13.447   1.690
 2057SOL    HW1 8068   8.268  13.482   1.647
 2057SOL    HW2 8069   8.376  13.519   1.746
 2058SOL     OW 8070   9.879   6.030  12.032
 2058SOL    HW1 8071   9.862   6.075  11.950
 2058SOL    HW2 8072   9.864   5.937  12.014
 2059SOL     OW 8073  10.674   6.743   8.706
 2059SOL    HW1 8074  10.689   6.690   8.628
 2059SOL    HW2 8075  10.591   6.787   8.690
 2060SOL     OW 8076   3.117   6.757   0.424
 2060SOL    HW1 8077   3.146   6.829   0.481
 2060SOL    HW2 8078   3.196   6.729   0.378
 2061SOL     OW 8079   9.705   6.720   3.234
 2061SOL    HW1 8080   9.767   6.648   3.228
 2061SOL    HW2 8081   9.757   6.799   3.217
 2062SOL     OW 8082   1.206  13.320   2.883
 2062SOL    HW1 8083   1.274  13.362   2.831
 2062SOL    HW2 8084   1.247  13.240   2.916
 2063SOL     OW 8085   3.374  12.027   7.623
 2063SOL    HW1 8086   3.407  11.953   7.674
 2063SOL    HW2 8087   3.436  12.097   7.638
 2064SOL     OW 8088   0.007   1.437   4.875
 2064SOL    HW1 8089   0.002   1.387   4.794
 2064SOL    HW2 8090  14.812   1.502   4.867
 2065SOL     OW 8091   7.295   2.525  14.199
 2065SOL    HW1 8092   7.284   2.485  14.285
 2065SOL    HW2 8093   7.387   2.508  14.176
 2066SOL     OW 8094   3.602  13.309  12.651
 2066SOL    HW1 8095   3.557  13.226  12.637
 2066SOL    HW2 8096   3.693  13.284  12.668
 2067SOL     OW 8097   4.383  11.406  13.037
 2067SOL    HW1 8098   4.326  11.338  13.001
 2067SOL    HW2 8099   4.468  11.391  12.995
 2068SOL     OW 8100   6.101   0.465   5.551
 2068SOL    HW1 8101   6.125   0.552   5.585
 2068SOL    HW2 8102   6.007   0.470   5.538
 2069SOL     OW 8103  13.239   6.125   6.041
 2069SOL    HW1 8104  13.295   6.060   5.999
 2069SOL    HW2 8105  13.296   6.200   6.057
 2070SOL     OW 8106   3.606   9.561   7.778
 2070SOL    HW1 8107   3.617   9.488   7.839
 2070SOL    HW2 8108   3.530   9.608   7.810
 2071SOL     OW 8109  12.463  13.607   7.704
 2071SOL    HW1 8110  12.367  13.610   7.704
 2071SOL    HW2 8111  12.485  13.547   7.776
 2072SOL     OW 8112   8.511   2.500  12.536
 2072SOL    HW1 8113   8.538   2.409  12.548
 2072SOL    HW2 8114   8.581   2.551  12.576
 2073SOL     OW 8115   8.419   3.527   0.771
 2073SOL    HW1 8116   8.408   3.572   0.855
 2073SOL    HW2 8117   8.351   3.564   0.715
 2074SOL     OW 8118   9.900  14.284   9.037
 2074SOL    HW1 8119   9.860  14.249   9.116
 2074SOL    HW2 8120   9.842  14.255   8.966
 2075SOL     OW 8121   2.237   8.934   7.949
 2075SOL    HW1 8122   2.316   8.879   7.951
 2075SOL    HW2 8123   2.173   8.882   7.900
 2076SOL     OW 8124   7.820   7.409  10.497
 2076SOL    HW1 8125   7.891   7.423  10.560
 2076SOL    HW2 8126   7.773   7.492  10.495
 2077SOL     OW 8127   8.873   6.792  10.519
 2077SOL    HW1 8128   8.887   6.884  10.499
 2077SOL    HW2 8129   8.802   6.791  10.583
 2078SOL     OW 8130   1.734  10.986  14.715
 2078SOL    HW1 8131   1.756  10.930  14.790
 2078SOL    HW2 8132   1.706  11.069  14.755
 2079SOL     OW 8133  13.732   3.572   6.508
 2079SOL    HW1 8134  13.741   3.483   6.540
 2079SOL    HW2 8135  13.802   3.582   6.444
 2080SOL     OW 8136   3.671  14.867   2.822
 2080SOL    HW1 8137   3.726  14.804   2.868
 2080SOL    HW2 8138   3.695  14.857   2.730
 2081SOL     OW 8139  10.346  11.523   2.214
 2081SOL    HW1 8140  10.364  11.434   2.242
 2081SOL    HW2 8141  10.344  11.574   2.295
 2082SOL     OW 8142   4.878   3.471   2.760
 2082SOL    HW1 8143   4.886   3.381   2.728
 2082SOL    HW2 8144   4.950   3.481   2.822
 2083SOL     OW 8145  10.040   6.378  14.094
 2083SOL    HW1 8146   9.950   6.385  14.062
 2083SOL    HW2 8147  10.053   6.285  14.110
 2084SOL     OW 8148   3.119   1.968   4.836
 2084SOL    HW1 8149   3.106   2.058   4.864
 2084SOL    HW2 8150   3.109   1.971   4.741
 2085SOL     OW 8151   0.545   1.139   6.599
 2085SOL    HW1 8152   0.565   1.100   6.514
 2085SOL    HW2 8153   0.623   1.122   6.652
 2086SOL     OW 8154  10.830   3.142   7.426
 2086SOL    HW1 8155  10.739   3.115   7.414
 2086SOL    HW2 8156  10.857   3.175   7.340
 2087SOL     OW 8157   1.481   2.108   9.478
 2087SOL    HW1 8158   1.469   2.196   9.511
 2087SOL    HW2 8159   1.394   2.067   9.486
 2088SOL     OW 8160   5.501   3.120   1.251
 2088SOL    HW1 8161   5.515   3.063   1.327
 2088SOL    HW2 8162   5.484   3.060   1.178
 2089SOL     OW 8163  10.160  11.476  14.796
 2089SOL    HW1 8164  10.094  11.407  14.792
 2089SOL    HW2 8165  10.224  11.451  14.728
 2090SOL     OW 8166   6.389  13.669  11.776
 2090SOL    HW1 8167   6.355  13.671  11.865
 2090SOL    HW2 8168   6.466  13.613  11.781
 2091SOL     OW 8169   0.668  11.473   6.667
 2091SOL    HW1 8170   0.688  11.531   6.740
 2091SOL    HW2 8171   0.745  11.477   6.611
 2092SOL     OW 8172   9.773  13.600   4.403
 2092SOL    HW1 8173   9.801  13.691   4.399
 2092SOL    HW2 8174   9.734  13.583   4.317
 2093SOL     OW 8175   1.871  11.010  11.047
 2093SOL    HW1 8176   1.816  11.023  10.970
 2093SOL    HW2 8177   1.958  10.995  11.011
 2094SOL     OW 8178  11.278  14.568  12.920
 2094SOL    HW1 8179  11.326  14.485  12.918
 2094SOL    HW2 8180  11.206  14.553  12.981
 2095SOL     OW 8181   7.361   5.046  12.252
 2095SOL    HW1 8182   7.334   5.037  12.161
 2095SOL    HW2 8183   7.283   5.020  12.302
 2096SOL     OW 8184   2.333   4.372  11.813
 2096SOL    HW1 8185   2.269   4.420  11.866
 2096SOL    HW2 8186   2.414   4.378  11.863
 2097SOL     OW 8187   1.365  11.046  11.666
 2097SOL    HW1 8188   1.358  11.034  11.571
 2097SOL    HW2 8189   1.315  11.125  11.684
 2098SOL     OW 8190  10.652  10.815  13.059
 2098SOL    HW1 8191  10.602  10.848  12.984
 2098SOL    HW2 8192  10.691  10.733  13.027
 2099SOL     OW 8193   8.992   6.962   9.352
 2099SOL    HW1 8194   8.953   6.972   9.265
 2099SOL    HW2 8195   8.933   6.903   9.398
 2100SOL     OW 8196  12.619   3.086   4.001
 2100SOL    HW1 8197  12.533   3.122   3.979
 2100SOL    HW2 8198  12.637   3.119   4.089
 2101SOL     OW 8199  11.972  10.622  14.500
 2101SOL    HW1 8200  11.956  10.538  14.457
 2101SOL    HW2 8201  12.012  10.676  14.431
 2102SOL     OW 8202   4.558  10.049   4.869
 2102SOL    HW1 8203   4.529   9.958   4.861
 2102SOL    HW2 8204   4.637  10.044   4.923
 2103SOL     OW 8205   7.353  13.946   8.649
 2103SOL    HW1 8206   7.321  14.027   8.609
 2103SOL    HW2 8207   7.281  13.884   8.640
 2104SOL     OW 8208   0.325  12.944   8.715
 2104SOL    HW1 8209   0.360  12.978   8.797
 2104SOL    HW2 8210   0.402  12.918   8.665
 2105SOL     OW 8211  13.174  10.421  13.200
 2105SOL    HW1 8212  13.125  10.377  13.269
 2105SOL    HW2 8213  13.265  10.415  13.227
 2106SOL     OW 8214   2.280  13.590   8.930
 2106SOL    HW1 8215   2.215  13.534   8.972
 2106SOL    HW2 8216   2.359  13.537   8.928
 2107SOL     OW 8217  10.411   8.118  11.987
 2107SOL    HW1 8218  10.360   8.197  12.006
 2107SOL    HW2 8219  10.380   8.054  12.052
 2108SOL     OW 8220  11.267   9.577   6.091
 2108SOL    HW1 8221  11.341   9.620   6.132
 2108SOL    HW2 8222  11.300   9.547   6.006
 2109SOL     OW 8223   5.365   5.516   0.286
 2109SOL    HW1 8224   5.290   5.478   0.240
 2109SOL    HW2 8225   5.404   5.442   0.333
 2110SOL     OW 8226   2.407   7.757   0.135
 2110SOL    HW1 8227   2.449   7.807   0.064
 2110SOL    HW2 8228   2.314   7.761   0.115
 2111SOL     OW 8229   3.880   5.359   9.710
 2111SOL    HW1 8230   3.844   5.413   9.641
 2111SOL    HW2 8231   3.812   5.358   9.778
 2112SOL     OW 8232   5.663  10.769  13.536
 2112SOL    HW1 8233   5.582  10.817  13.520
 2112SOL    HW2 8234   5.732  10.830  13.513
 2113SOL     OW 8235   1.393  11.944   6.494
 2113SOL    HW1 8236   1.453  11.892   6.548
 2113SOL    HW2 8237   1.370  11.886   6.421
 2114SOL     OW 8238   2.040  14.741   9.680
 2114SOL    HW1 8239   1.959  14.792   9.681
 2114SOL    HW2 8240   2.050  14.712   9.590
 2115SOL     OW 8241   5.860   9.004   3.656
 2115SOL    HW1 8242   5.826   8.975   3.740
 2115SOL    HW2 8243   5.950   9.030   3.674
 2116SOL     OW 8244   4.506   3.688   1.550
 2116SOL    HW1 8245   4.553   3.708   1.631
 2116SOL    HW2 8246   4.547   3.745   1.485
 2117SOL     OW 8247  14.362  11.714   8.548
 2117SOL    HW1 8248  14.289  11.661   8.518
 2117SOL    HW2 8249  14.324  11.775   8.612
 2118SOL     OW 8250  10.354   0.568   2.911
 2118SOL    HW1 8251  10.336   0.660   2.893
 2118SOL    HW2 8252  10.406   0.538   2.837
 2119SOL     OW 8253   8.981   1.250   0.364
 2119SOL    HW1 8254   9.062   1.299   0.347
 2119SOL    HW2 8255   8.924   1.313   0.408
 2120SOL     OW 8256   8.379   5.677   3.139
 2120SOL    HW1 8257   8.392   5.732   3.217
 2120SOL    HW2 8258   8.357   5.738   3.070
 2121SOL     OW 8259   0.142  14.547   6.690
 2121SOL    HW1 8260   0.136  14.640   6.668
 2121SOL    HW2 8261   0.090  14.538   6.770
 2122SOL     OW 8262  12.472   3.835   0.667
 2122SOL    HW1 8263  12.417   3.821   0.743
 2122SOL    HW2 8264  12.417   3.811   0.592
 2123SOL     OW 8265   1.541  12.123   5.296
 2123SOL    HW1 8266   1.475  12.156   5.236
 2123SOL    HW2 8267   1.589  12.201   5.325
 2124SOL     OW 8268   7.690   7.444  14.454
 2124SOL    HW1 8269   7.693   7.380  14.525
 2124SOL    HW2 8270   7.652   7.397  14.380
 2125SOL     OW 8271   5.697   8.509   0.658
 2125SOL    HW1 8272   5.602   8.513   0.649
 2125SOL    HW2 8273   5.712   8.448   0.730
 2126SOL     OW 8274   9.081  13.640  12.355
 2126SOL    HW1 8275   9.161  13.688  12.331
 2126SOL    HW2 8276   9.066  13.663  12.447
 2127SOL     OW 8277   9.325  14.268  12.477
 2127SOL    HW1 8278   9.287  14.333  12.535
 2127SOL    HW2 8279   9.373  14.209  12.535
 2128SOL     OW 8280  11.935   3.410   9.374
 2128SOL    HW1 8281  11.947   3.316   9.390
 2128SOL    HW2 8282  11.928   3.449   9.461
 2129SOL     OW 8283   5.604   9.633  11.761
 2129SOL    HW1 8284   5.699   9.630  11.747
 2129SOL    HW2 8285   5.582   9.726  11.757
 2130SOL     OW 8286   1.317   0.603  14.077
 2130SOL    HW1 8287   1.346   0.622  14.166
 2130SOL    HW2 8288   1.277   0.685  14.047
 2131SOL     OW 8289  13.846   4.835   8.494
 2131SOL    HW1 8290  13.931   4.836   8.537
 2131SOL    HW2 8291  13.846   4.754   8.443
 2132SOL     OW 8292   3.881   6.481   4.807
 2132SOL    HW1 8293   3.851   6.439   4.727
 2132SOL    HW2 8294   3.937   6.552   4.778
 2133SOL     OW 8295  14.644   7.163   8.500
 2133SOL    HW1 8296  14.698   7.084   8.494
 2133SOL    HW2 8297  14.705   7.235   8.495
 2134SOL     OW 8298   8.414  10.164   2.763
 2134SOL    HW1 8299   8.324  10.150   2.793
 2134SOL    HW2 8300   8.429  10.258   2.774
 2135SOL     OW 8301  14.859  13.315  11.304
 2135SOL    HW1 8302  14.802  13.304  11.228
 2135SOL    HW2 8303  14.801  13.345  11.373
 2136SOL     OW 8304   4.564  10.299   9.359
 2136SOL    HW1 8305   4.511  10.225   9.387
 2136SOL    HW2 8306   4.617  10.265   9.287
 2137SOL     OW 8307   1.166   9.816  11.758
 2137SOL    HW1 8308   1.126   9.731  11.741
 2137SOL    HW2 8309   1.157   9.828  11.853
 2138SOL     OW 8310   3.656   2.358   7.249
 2138SOL    HW1 8311   3.569   2.318   7.246
 2138SOL    HW2 8312   3.707   2.310   7.183
 2139SOL     OW 8313  12.569   9.958   8.760
 2139SOL    HW1 8314  12.566   9.862   8.761
 2139SOL    HW2 8315  12.656   9.980   8.792
 2140SOL     OW 8316   2.524   4.421   0.032
 2140SOL    HW1 8317   2.529   4.515   0.045
 2140SOL    HW2 8318   2.435   4.397   0.057
 2141SOL     OW 8319   1.170   5.944  12.271
 2141SOL    HW1 8320   1.229   5.962  12.197
 2141SOL    HW2 8321   1.164   6.027  12.318
 2142SOL     OW 8322   9.097   1.594  11.455
 2142SOL    HW1 8323   9.105   1.674  11.508
 2142SOL    HW2 8324   9.029   1.615  11.391
 2143SOL     OW 8325  11.711   6.322   2.935
 2143SOL    HW1 8326  11.714   6.416   2.952
 2143SOL    HW2 8327  11.629   6.293   2.973
 2144SOL     OW 8328  14.664  14.149   8.352
 2144SOL    HW1 8329  14.623  14.075   8.397
 2144SOL    HW2 8330  14.609  14.165   8.275
 2145SOL     OW 8331  14.590   4.249   8.743
 2145SOL    HW1 8332  14.570   4.315   8.809
 2145SOL    HW2 8333  14.596   4.298   8.661
 2146SOL     OW 8334  13.389   0.557   0.711
 2146SOL    HW1 8335  13.459   0.619   0.692
 2146SOL    HW2 8336  13.321   0.576   0.647
 2147SOL     OW 8337   6.184  10.592  11.994
 2147SOL    HW1 8338   6.175  10.687  11.997
 2147SOL    HW2 8339   6.253  10.576  11.930
 2148SOL     OW 8340   9.776   6.144   4.543
 2148SOL    HW1 8341   9.849   6.090   4.575
 2148SOL    HW2 8342   9.795   6.157   4.450
 2149SOL     OW 8343  14.490   2.127  10.736
 2149SOL    HW1 8344  14.429   2.067  10.695
 2149SOL    HW2 8345  14.515   2.084  10.818
 2150SOL     OW 8346   9.740   8.001   0.517
 2150SOL    HW1 8347   9.782   7.930   0.566
 2150SOL    HW2 8348   9.753   7.977   0.425
 2151SOL     OW 8349   3.998   5.227  10.440
 2151SOL    HW1 8350   3.903   5.227  10.437
 2151SOL    HW2 8351   4.021   5.169  10.513
 2152SOL     OW 8352   8.235   8.455   1.252
 2152SOL    HW1 8353   8.320   8.462   1.297
 2152SOL    HW2 8354   8.192   8.539   1.269
 2153SOL     OW 8355   5.318   5.409  11.108
 2153SOL    HW1 8356   5.378   5.344  11.071
 2153SOL    HW2 8357   5.231   5.378  11.084
 2154SOL     OW 8358   1.372  12.799   3.031
 2154SOL    HW1 8359   1.394  12.853   3.107
 2154SOL    HW2 8360   1.319  12.727   3.067
 2155SOL     OW 8361  12.201  13.268  12.109
 2155SOL    HW1 8362  12.228  13.353  12.072
 2155SOL    HW2 8363  12.252  13.260  12.190
 2156SOL     OW 8364   6.400   2.546  11.078
 2156SOL    HW1 8365   6.325   2.600  11.051
 2156SOL    HW2 8366   6.380   2.458  11.045
 2157SOL     OW 8367   4.266   8.306   0.715
 2157SOL    HW1 8368   4.293   8.261   0.795
 2157SOL    HW2 8369   4.206   8.375   0.745
 2158SOL     OW 8370   9.090   7.264   0.286
 2158SOL    HW1 8371   9.121   7.183   0.327
 2158SOL    HW2 8372   9.011   7.238   0.238
 2159SOL     OW 8373  13.093   2.775   4.430
 2159SOL    HW1 8374  13.119   2.805   4.343
 2159SOL    HW2 8375  13.164   2.803   4.487
 2160SOL     OW 8376  13.341   4.510   9.048
 2160SOL    HW1 8377  13.255   4.510   9.005
 2160SOL    HW2 8378  13.329   4.454   9.124
 2161SOL     OW 8379   5.148   4.572  13.066
 2161SOL    HW1 8380   5.203   4.592  13.142
 2161SOL    HW2 8381   5.060   4.561  13.103
 2162SOL     OW 8382   3.479   4.971  14.204
 2162SOL    HW1 8383   3.541   5.035  14.170
 2162SOL    HW2 8384   3.396   5.019  14.210
 2163SOL     OW 8385   6.235   9.814   7.602
 2163SOL    HW1 8386   6.267   9.815   7.693
 2163SOL    HW2 8387   6.157   9.759   7.604
 2164SOL     OW 8388  11.610   8.650   4.344
 2164SOL    HW1 8389  11.578   8.668   4.256
 2164SOL    HW2 8390  11.625   8.555   4.346
 2165SOL     OW 8391   6.189  10.061   0.675
 2165SOL    HW1 8392   6.109  10.090   0.719
 2165SOL    HW2 8393   6.240  10.019   0.744
 2166SOL     OW 8394  12.157   3.800   2.196
 2166SOL    HW1 8395  12.207   3.725   2.165
 2166SOL    HW2 8396  12.076   3.762   2.231
 2167SOL     OW 8397   4.931   0.088  12.666
 2167SOL    HW1 8398   5.013   0.059  12.708
 2167SOL    HW2 8399   4.877   0.119  12.739
 2168SOL     OW 8400   8.156   6.320   4.670
 2168SOL    HW1 8401   8.181   6.229   4.687
 2168SOL    HW2 8402   8.112   6.347   4.751
 2169SOL     OW 8403  12.877  11.243  10.061
 2169SOL    HW1 8404  12.833  11.312  10.111
 2169SOL    HW2 8405  12.805  11.188  10.029
 2170SOL     OW 8406   2.300   0.657   1.653
 2170SOL    HW1 8407   2.332   0.720   1.588
 2170SOL    HW2 8408   2.233   0.607   1.606
 2171SOL     OW 8409   7.355  14.666   0.532
 2171SOL    HW1 8410   7.355  14.715   0.614
 2171SOL    HW2 8411   7.432  14.609   0.538
 2172SOL     OW 8412   6.765   5.996   8.025
 2172SOL    HW1 8413   6.856   5.978   8.050
 2172SOL    HW2 8414   6.713   5.967   8.100
 2173SOL     OW 8415  14.339   5.748   7.326
 2173SOL    HW1 8416  14.399   5.699   7.269
 2173SOL    HW2 8417  14.252   5.716   7.302
 2174SOL     OW 8418   4.876   6.275  14.607
 2174SOL    HW1 8419   4.884   6.311  14.519
 2174SOL    HW2 8420   4.788   6.236  14.609
 2175SOL     OW 8421   2.253   1.238   0.834
 2175SOL    HW1 8422   2.213   1.161   0.794
 2175SOL    HW2 8423   2.183   1.302   0.840
 2176SOL     OW 8424   2.826  13.665   0.407
 2176SOL    HW1 8425   2.894  13.602   0.430
 2176SOL    HW2 8426   2.853  13.699   0.321
 2177SOL     OW 8427   1.816  10.591   3.482
 2177SOL    HW1 8428   1.883  10.557   3.542
 2177SOL    HW2 8429   1.734  10.575   3.528
 2178SOL     OW 8430  13.342  10.771  10.210
 2178SOL    HW1 8431  13.423  10.813  10.181
 2178SOL    HW2 8432  13.361  10.742  10.300
 2179SOL     OW 8433  13.495  10.929   3.555
 2179SOL    HW1 8434  13.436  11.004   3.561
 2179SOL    HW2 8435  13.437  10.854   3.545
 2180SOL     OW 8436  14.520   4.061  14.057
 2180SOL    HW1 8437  14.588   4.040  14.121
 2180SOL    HW2 8438  14.453   3.994  14.071
 2181SOL     OW 8439  13.099   3.322   5.836
 2181SOL    HW1 8440  13.084   3.248   5.777
 2181SOL    HW2 8441  13.139   3.283   5.914
 2182SOL     OW 8442   1.516   0.432   2.386
 2182SOL    HW1 8443   1.488   0.341   2.385
 2182SOL    HW2 8444   1.525   0.456   2.294
 2183SOL     OW 8445   0.807   1.060  14.266
 2183SOL    HW1 8446   0.809   1.101  14.352
 2183SOL    HW2 8447   0.825   0.967  14.282
 2184SOL     OW 8448  13.076  10.765   9.973
 2184SOL    HW1 8449  13.012  10.826   9.937
 2184SOL    HW2 8450  13.154  10.817   9.988
 2185SOL     OW 8451   1.264   6.708   7.599
 2185SOL    HW1 8452   1.258   6.614   7.581
 2185SOL    HW2 8453   1.254   6.715   7.693
 2186SOL     OW 8454  14.809  10.924   5.024
 2186SOL    HW1 8455  14.860  10.899   5.101
 2186SOL    HW2 8456  14.789  10.841   4.980
 2187SOL     OW 8457  10.015   0.463   8.242
 2187SOL    HW1 8458  10.107   0.466   8.218
 2187SOL    HW2 8459   9.971   0.514   8.174
 2188SOL     OW 8460   4.111  12.644   6.864
 2188SOL    HW1 8461   4.170  12.584   6.908
 2188SOL    HW2 8462   4.151  12.730   6.875
 2189SOL     OW 8463  14.612  13.754   6.269
 2189SOL    HW1 8464  14.545  13.717   6.211
 2189SOL    HW2 8465  14.562  13.799   6.337
 2190SOL     OW 8466  10.701  13.532   5.213
 2190SOL    HW1 8467  10.723  13.520   5.305
 2190SOL    HW2 8468  10.770  13.486   5.165
 2191SOL     OW 8469  11.782   7.510  11.732
 2191SOL    HW1 8470  11.743   7.441  11.679
 2191SOL    HW2 8471  11.867   7.474  11.759
 2192SOL     OW 8472  13.396   2.406   9.558
 2192SOL    HW1 8473  13.451   2.462   9.612
 2192SOL    HW2 8474  13.401   2.444   9.470
 2193SOL     OW 8475   3.109   6.677   7.570
 2193SOL    HW1 8476   3.139   6.765   7.592
 2193SOL    HW2 8477   3.031   6.691   7.516
 2194SOL     OW 8478   3.226   3.218   7.217
 2194SOL    HW1 8479   3.166   3.281   7.178
 2194SOL    HW2 8480   3.173   3.173   7.283
 2195SOL     OW 8481   3.078   5.937   4.596
 2195SOL    HW1 8482   3.089   5.865   4.533
 2195SOL    HW2 8483   3.015   5.996   4.553
 2196SOL     OW 8484  12.920   1.148   2.885
 2196SOL    HW1 8485  12.872   1.095   2.822
 2196SOL    HW2 8486  12.892   1.238   2.868
 2197SOL     OW 8487   0.786   5.137   2.750
 2197SOL    HW1 8488   0.880   5.129   2.735
 2197SOL    HW2 8489   0.779   5.201   2.821
 2198SOL     OW 8490  11.065   9.964   8.859
 2198SOL    HW1 8491  11.146  10.015   8.867
 2198SOL    HW2 8492  11.045   9.937   8.949
 2199SOL     OW 8493  14.224   5.142  12.401
 2199SOL    HW1 8494  14.172   5.092  12.463
 2199SOL    HW2 8495  14.281   5.196  12.455
 2200SOL     OW 8496   2.087   5.308   6.000
 2200SOL    HW1 8497   2.081   5.403   5.990
 2200SOL    HW2 8498   2.080   5.294   6.094
 2201SOL     OW 8499   0.641   4.117  12.666
 2201SOL    HW1 8500   0.671   4.037  12.710
 2201SOL    HW2 8501   0.694   4.121  12.586
 2202SOL     OW 8502   4.010   3.317   8.918
 2202SOL    HW1 8503   4.062   3.255   8.970
 2202SOL    HW2 8504   4.068   3.393   8.907
 2203SOL     OW 8505   7.803  14.298   1.989
 2203SOL    HW1 8506   7.741  14.318   2.059
 2203SOL    HW2 8507   7.889  14.304   2.030
 2204SOL     OW 8508  10.317   9.506  11.811
 2204SOL    HW1 8509  10.320   9.599  11.834
 2204SOL    HW2 8510  10.405   9.486  11.779
 2205SOL     OW 8511   6.940  11.102   6.633
 2205SOL    HW1 8512   6.928  11.032   6.570
 2205SOL    HW2 8513   6.951  11.181   6.580
 2206SOL     OW 8514   8.779  14.251   7.487
 2206SOL    HW1 8515   8.797  14.345   7.476
 2206SOL    HW2 8516   8.687  14.241   7.461
 2207SOL     OW 8517   7.583   5.925   8.681
 2207SOL    HW1 8518   7.545   6.000   8.635
 2207SOL    HW2 8519   7.509   5.864   8.691
 2208SOL     OW 8520   1.596   8.430   1.624
 2208SOL    HW1 8521   1.674   8.485   1.620
 2208SOL    HW2 8522   1.621   8.357   1.682
 2209SOL     OW 8523   4.113   5.847   6.414
 2209SOL    HW1 8524   4.051   5.892   6.357
 2209SOL    HW2 8525   4.184   5.820   6.356
 2210SOL     OW 8526   5.499   1.298   3.900
 2210SOL    HW1 8527   5.592   1.316   3.913
 2210SOL    HW2 8528   5.497   1.217   3.848
 2211SOL     OW 8529   0.402   9.575   3.205
 2211SOL    HW1 8530   0.450   9.498   3.235
 2211SOL    HW2 8531   0.354   9.545   3.127
 2212SOL     OW 8532   8.371  11.312   0.723
 2212SOL    HW1 8533   8.340  11.239   0.777
 2212SOL    HW2 8534   8.407  11.375   0.786
 2213SOL     OW 8535   9.560   7.387   4.210
 2213SOL    HW1 8536   9.546   7.302   4.253
 2213SOL    HW2 8537   9.477   7.405   4.166
 2214SOL     OW 8538   0.860   0.546   9.070
 2214SOL    HW1 8539   0.925   0.612   9.097
 2214SOL    HW2 8540   0.880   0.530   8.978
 2215SOL     OW 8541   2.925   3.550  11.117
 2215SOL    HW1 8542   3.015   3.521  11.135
 2215SOL    HW2 8543   2.873   3.470  11.121
 2216SOL     OW 8544   0.483  13.329   9.029
 2216SOL    HW1 8545   0.440  13.370   9.104
 2216SOL    HW2 8546   0.573  13.360   9.032
 2217SOL     OW 8547  12.066   0.752  11.433
 2217SOL    HW1 8548  12.069   0.815  11.361
 2217SOL    HW2 8549  11.977   0.760  11.468
 2218SOL     OW 8550   6.009   7.706   4.392
 2218SOL    HW1 8551   6.018   7.713   4.297
 2218SOL    HW2 8552   6.098   7.693   4.424
 2219SOL     OW 8553   4.686   9.239   2.745
 2219SOL    HW1 8554   4.690   9.259   2.838
 2219SOL    HW2 8555   4.777   9.225   2.719
 2220SOL     OW 8556  14.611  11.224   6.053
 2220SOL    HW1 8557  14.535  11.282   6.060
 2220SOL    HW2 8558  14.595  11.172   5.975
 2221SOL     OW 8559   6.152   1.761   7.407
 2221SOL    HW1 8560   6.220   1.779   7.342
 2221SOL    HW2 8561   6.072   1.798   7.369
 2222SOL     OW 8562  12.537   3.136  10.982
 2222SOL    HW1 8563  12.540   3.110  11.074
 2222SOL    HW2 8564  12.487   3.218  10.983
 2223SOL     OW 8565   6.853   0.168   0.532
 2223SOL    HW1 8566   6.777   0.110   0.535
 2223SOL    HW2 8567   6.845   0.223   0.610
 2224SOL     OW 8568   7.746   9.777  13.093
 2224SOL    HW1 8569   7.807   9.710  13.124
 2224SOL    HW2 8570   7.789   9.816  13.017
 2225SOL     OW 8571   4.088   6.273   3.580
 2225SOL    HW1 8572   4.020   6.269   3.647
 2225SOL    HW2 8573   4.043   6.254   3.498
 2226SOL     OW 8574  10.767   1.513   9.196
 2226SOL    HW1 8575  10.715   1.482   9.122
 2226SOL    HW2 8576  10.782   1.606   9.179
 2227SOL     OW 8577   2.307   9.875   5.530
 2227SOL    HW1 8578   2.258   9.906   5.455
 2227SOL    HW2 8579   2.356   9.951   5.560
 2228SOL     OW 8580   8.730  13.014   1.844
 2228SOL    HW1 8581   8.825  13.028   1.843
 2228SOL    HW2 8582   8.695  13.089   1.892
 2229SOL     OW 8583   7.217  14.611   1.785
 2229SOL    HW1 8584   7.312  14.605   1.793
 2229SOL    HW2 8585   7.191  14.530   1.741
 2230SOL     OW 8586  11.960   5.818   2.158
 2230SOL    HW1 8587  11.987   5.901   2.119
 2230SOL    HW2 8588  11.915   5.843   2.239
 2231SOL     OW 8589  14.422  10.077   5.064
 2231SOL    HW1 8590  14.383   9.993   5.037
 2231SOL    HW2 8591  14.507  10.053   5.102
 2232SOL     OW 8592   7.345  10.533   8.736
 2232SOL    HW1 8593   7.335  10.472   8.664
 2232SOL    HW2 8594   7.347  10.619   8.694
 2233SOL     OW 8595   5.148   4.358   8.778
 2233SOL    HW1 8596   5.136   4.267   8.751
 2233SOL    HW2 8597   5.069   4.379   8.828
 2234SOL     OW 8598   1.752   3.364   7.273
 2234SOL    HW1 8599   1.825   3.395   7.220
 2234SOL    HW2 8600   1.765   3.270   7.279
 2235SOL     OW 8601   5.551   7.649   4.563
 2235SOL    HW1 8602   5.625   7.702   4.591
 2235SOL    HW2 8603   5.477   7.709   4.562
 2236SOL     OW 8604  11.315   4.840  11.602
 2236SOL    HW1 8605  11.352   4.752  11.610
 2236SOL    HW2 8606  11.301   4.851  11.508
 2237SOL     OW 8607   0.619  13.230   0.863
 2237SOL    HW1 8608   0.634  13.162   0.930
 2237SOL    HW2 8609   0.686  13.296   0.881
 2238SOL     OW 8610   4.193   8.108   1.834
 2238SOL    HW1 8611   4.123   8.165   1.802
 2238SOL    HW2 8612   4.265   8.167   1.854
 2239SOL     OW 8613   4.920   8.628  11.563
 2239SOL    HW1 8614   4.942   8.614  11.471
 2239SOL    HW2 8615   4.875   8.713  11.564
 2240SOL     OW 8616  13.643  11.580  11.846
 2240SOL    HW1 8617  13.576  11.534  11.896
 2240SOL    HW2 8618  13.627  11.672  11.863
 2241SOL     OW 8619   9.732  13.634  13.922
 2241SOL    HW1 8620   9.640  13.622  13.898
 2241SOL    HW2 8621   9.780  13.632  13.839
 2242SOL     OW 8622   0.637   2.434   3.760
 2242SOL    HW1 8623   0.645   2.427   3.855
 2242SOL    HW2 8624   0.660   2.524   3.740
 2243SOL     OW 8625   9.386  13.546   6.133
 2243SOL    HW1 8626   9.405  13.530   6.040
 2243SOL    HW2 8627   9.431  13.476   6.179
 2244SOL     OW 8628  13.874   8.775  13.224
 2244SOL    HW1 8629  13.926   8.828  13.163
 2244SOL    HW2 8630  13.818   8.721  13.167
 2245SOL     OW 8631   7.119   1.525   0.090
 2245SOL    HW1 8632   7.140   1.618   0.095
 2245SOL    HW2 8633   7.094   1.510  14.874
 2246SOL     OW 8634  10.979   1.613  14.284
 2246SOL    HW1 8635  11.004   1.572  14.367
 2246SOL    HW2 8636  10.956   1.703  14.308
 2247SOL     OW 8637  14.281   2.683   8.140
 2247SOL    HW1 8638  14.206   2.634   8.107
 2247SOL    HW2 8639  14.255   2.711   8.228
 2248SOL     OW 8640  12.970   4.037   7.456
 2248SOL    HW1 8641  13.040   4.100   7.434
 2248SOL    HW2 8642  12.899   4.092   7.490
 2249SOL     OW 8643  10.315  11.062   9.390
 2249SOL    HW1 8644  10.276  11.075   9.304
 2249SOL    HW2 8645  10.260  10.996   9.432
 2250SOL     OW 8646   4.874  11.013  11.462
 2250SOL    HW1 8647   4.798  11.068  11.478
 2250SOL    HW2 8648   4.896  10.975  11.547
 2251SOL     OW 8649   7.891   8.041   7.709
 2251SOL    HW1 8650   7.981   8.042   7.742
 2251SOL    HW2 8651   7.854   8.124   7.740
 2252SOL     OW 8652   7.181   9.535   5.373
 2252SOL    HW1 8653   7.224   9.548   5.289
 2252SOL    HW2 8654   7.149   9.445   5.371
 2253SOL     OW 8655  14.357   7.990   6.382
 2253SOL    HW1 8656  14.337   7.915   6.438
 2253SOL    HW2 8657  14.442   7.969   6.344
 2254SOL     OW 8658   3.306  12.198   5.325
 2254SOL    HW1 8659   3.242  12.264   5.297
 2254SOL    HW2 8660   3.323  12.219   5.417
 2255SOL     OW 8661   1.116   3.426  13.714
 2255SOL    HW1 8662   1.122   3.429  13.810
 2255SOL    HW2 8663   1.151   3.510  13.685
 2256SOL     OW 8664   2.399   9.995  10.980
 2256SOL    HW1 8665   2.459   9.926  11.009
 2256SOL    HW2 8666   2.433  10.075  11.019
 2257SOL     OW 8667  14.841   8.038   6.515
 2257SOL    HW1 8668  14.842   7.959   6.460
 2257SOL    HW2 8669  14.786   8.100   6.468
 2258SOL     OW 8670   2.722  14.420  13.009
 2258SOL    HW1 8671   2.676  14.338  13.028
 2258SOL    HW2 8672   2.800  14.417  13.064
 2259SOL     OW 8673  13.527   2.167   1.408
 2259SOL    HW1 8674  13.466   2.109   1.363
 2259SOL    HW2 8675  13.613   2.129   1.390
 2260SOL     OW 8676   1.225   0.274   2.216
 2260SOL    HW1 8677   1.302   0.244   2.264
 2260SOL    HW2 8678   1.230   0.369   2.221
 2261SOL     OW 8679   7.241   2.026  12.011
 2261SOL    HW1 8680   7.178   2.051  11.943
 2261SOL    HW2 8681   7.320   2.076  11.991
 2262SOL     OW 8682  10.766  10.483   5.167
 2262SOL    HW1 8683  10.704  10.516   5.102
 2262SOL    HW2 8684  10.725  10.502   5.252
 2263SOL     OW 8685  10.245   4.530   8.785
 2263SOL    HW1 8686  10.206   4.507   8.701
 2263SOL    HW2 8687  10.301   4.605   8.766
 2264SOL     OW 8688   5.594  14.739   9.924
 2264SOL    HW1 8689   5.643  14.742  10.007
 2264SOL    HW2 8690   5.655  14.697   9.862
 2265SOL     OW 8691  13.348  13.265   1.422
 2265SOL    HW1 8692  13.370  13.207   1.349
 2265SOL    HW2 8693  13.274  13.317   1.390
 2266SOL     OW 8694   4.118   4.579   9.935
 2266SOL    HW1 8695   4.182   4.521   9.976
 2266SOL    HW2 8696   4.139   4.577   9.842
 2267SOL     OW 8697   7.576   0.914   1.470
 2267SOL    HW1 8698   7.585   0.865   1.388
 2267SOL    HW2 8699   7.552   0.849   1.535
 2268SOL     OW 8700   8.003   3.300   7.909
 2268SOL    HW1 8701   7.911   3.321   7.888
 2268SOL    HW2 8702   8.019   3.218   7.862
 2269SOL     OW 8703  11.084   6.356   9.990
 2269SOL    HW1 8704  11.142   6.432   9.995
 2269SOL    HW2 8705  11.134   6.289   9.944
 2270SOL     OW 8706   3.268   9.251   7.334
 2270SOL    HW1 8707   3.317   9.316   7.385
 2270SOL    HW2 8708   3.179   9.286   7.330
 2271SOL     OW 8709   5.124   5.471   3.719
 2271SOL    HW1 8710   5.176   5.501   3.644
 2271SOL    HW2 8711   5.067   5.403   3.682
 2272SOL     OW 8712   7.474   0.401   9.823
 2272SOL    HW1 8713   7.526   0.367   9.749
 2272SOL    HW2 8714   7.459   0.325   9.878
 2273SOL     OW 8715   0.425  12.768   2.444
 2273SOL    HW1 8716   0.449  12.746   2.354
 2273SOL    HW2 8717   0.402  12.684   2.483
 2274SOL     OW 8718   7.346  14.157  13.275
 2274SOL    HW1 8719   7.384  14.245  13.263
 2274SOL    HW2 8720   7.385  14.105  13.205
 2275SOL     OW 8721   7.805   5.754   6.635
 2275SOL    HW1 8722   7.783   5.706   6.556
 2275SOL    HW2 8723   7.901   5.757   6.635
 2276SOL     OW 8724  11.687  11.298  12.697
 2276SOL    HW1 8725  11.765  11.311  12.644
 2276SOL    HW2 8726  11.718  11.301  12.788
 2277SOL     OW 8727  13.888  10.422   3.044
 2277SOL    HW1 8728  13.916  10.512   3.062
 2277SOL    HW2 8729  13.801  10.432   3.005
 2278SOL     OW 8730   4.648   6.670   8.040
 2278SOL    HW1 8731   4.590   6.606   8.081
 2278SOL    HW2 8732   4.731   6.624   8.029
 2279SOL     OW 8733   5.043   9.452   4.533
 2279SOL    HW1 8734   5.002   9.384   4.481
 2279SOL    HW2 8735   4.973   9.487   4.588
 2280SOL     OW 8736   9.715   7.821   7.754
 2280SOL    HW1 8737   9.735   7.895   7.696
 2280SOL    HW2 8738   9.788   7.819   7.816
 2281SOL     OW 8739   6.826   4.129   1.222
 2281SOL    HW1 8740   6.918   4.136   1.247
 2281SOL    HW2 8741   6.785   4.080   1.293
 2282SOL     OW 8742   1.833   5.167   5.814
 2282SOL    HW1 8743   1.761   5.133   5.866
 2282SOL    HW2 8744   1.882   5.223   5.874
 2283SOL     OW 8745  10.743  12.887   0.111
 2283SOL    HW1 8746  10.746  12.978   0.138
 2283SOL    HW2 8747  10.700  12.842   0.184
 2284SOL     OW 8748   6.741   1.582   7.617
 2284SOL    HW1 8749   6.683   1.515   7.653
 2284SOL    HW2 8750   6.683   1.652   7.588
 2285SOL     OW 8751   4.130   2.694   1.399
 2285SOL    HW1 8752   4.035   2.696   1.388
 2285SOL    HW2 8753   4.164   2.692   1.309
 2286SOL     OW 8754   3.431   3.934   6.218
 2286SOL    HW1 8755   3.394   4.021   6.207
 2286SOL    HW2 8756   3.375   3.893   6.284
 2287SOL     OW 8757  10.777  13.310   2.250
 2287SOL    HW1 8758  10.744  13.311   2.340
 2287SOL    HW2 8759  10.868  13.281   2.257
 2288SOL     OW 8760  13.811  14.440   6.681
 2288SOL    HW1 8761  13.802  14.492   6.601
 2288SOL    HW2 8762  13.886  14.478   6.726
 2289SOL     OW 8763   3.895  13.906   7.921
 2289SOL    HW1 8764   3.889  13.856   7.839
 2289SOL    HW2 8765   3.938  13.988   7.896
 2290SOL     OW 8766  10.997   3.810   8.263
 2290SOL    HW1 8767  10.920   3.789   8.317
 2290SOL    HW2 8768  11.022   3.726   8.225
 2291SOL     OW 8769   1.715  13.871  12.174
 2291SOL    HW1 8770   1.774  13.882  12.248
 2291SOL    HW2 8771   1.635  13.915  12.201
 2292SOL     OW 8772  13.956   4.424  11.274
 2292SOL    HW1 8773  13.864   4.402  11.288
 2292SOL    HW2 8774  13.954   4.513  11.239
 2293SOL     OW 8775  13.728   9.176   3.154
 2293SOL    HW1 8776  13.746   9.240   3.085
 2293SOL    HW2 8777  13.675   9.224   3.218
 2294SOL     OW 8778   6.502   3.650   6.998
 2294SOL    HW1 8779   6.527   3.570   6.952
 2294SOL    HW2 8780   6.416   3.630   7.036
 2295SOL     OW 8781   6.005   1.076  11.210
 2295SOL    HW1 8782   5.958   1.148  11.168
 2295SOL    HW2 8783   6.060   1.118  11.276
 2296SOL     OW 8784   4.906   2.879   4.293
 2296SOL    HW1 8785   4.874   2.932   4.221
 2296SOL    HW2 8786   4.993   2.850   4.265
 2297SOL     OW 8787  13.733   3.960  12.522
 2297SOL    HW1 8788  13.648   3.998  12.503
 2297SOL    HW2 8789  13.714   3.883  12.576
 2298SOL     OW 8790  13.438  11.581   3.549
 2298SOL    HW1 8791  13.477  11.497   3.524
 2298SOL    HW2 8792  13.447  11.584   3.644
 2299SOL     OW 8793   5.475   5.346  12.224
 2299SOL    HW1 8794   5.467   5.261  12.267
 2299SOL    HW2 8795   5.423   5.336  12.144
 2300SOL     OW 8796   3.091   5.657   5.100
 2300SOL    HW1 8797   3.095   5.710   5.179
 2300SOL    HW2 8798   3.182   5.641   5.076
 2301SOL     OW 8799   8.846   5.755   3.663
 2301SOL    HW1 8800   8.888   5.841   3.663
 2301SOL    HW2 8801   8.896   5.704   3.726
 2302SOL     OW 8802   8.393  14.565   4.974
 2302SOL    HW1 8803   8.337  14.487   4.975
 2302SOL    HW2 8804   8.425  14.570   4.884
 2303SOL     OW 8805  10.583   5.310  13.952
 2303SOL    HW1 8806  10.573   5.229  14.003
 2303SOL    HW2 8807  10.495   5.348  13.952
 2304SOL     OW 8808  10.099   8.895   0.189
 2304SOL    HW1 8809  10.098   8.937   0.103
 2304SOL    HW2 8810  10.160   8.947   0.241
 2305SOL     OW 8811   0.548   8.408   6.451
 2305SOL    HW1 8812   0.465   8.430   6.408
 2305SOL    HW2 8813   0.526   8.335   6.509
 2306SOL     OW 8814   1.637  13.775   5.004
 2306SOL    HW1 8815   1.626  13.870   5.006
 2306SOL    HW2 8816   1.552  13.742   4.973
 2307SOL     OW 8817  13.097  12.235   0.001
 2307SOL    HW1 8818  13.173  12.194   0.043
 2307SOL    HW2 8819  13.061  12.293   0.067
 2308SOL     OW 8820  14.000  13.247   5.211
 2308SOL    HW1 8821  13.958  13.276   5.130
 2308SOL    HW2 8822  14.092  13.233   5.186
 2309SOL     OW 8823   7.304   4.157  11.974
 2309SOL    HW1 8824   7.211   4.137  11.972
 2309SOL    HW2 8825   7.343   4.104  11.905
 2310SOL     OW 8826  10.026   8.076   1.664
 2310SOL    HW1 8827  10.066   8.069   1.751
 2310SOL    HW2 8828   9.975   8.157   1.668
 2311SOL     OW 8829   9.122   5.268   3.884
 2311SOL    HW1 8830   9.091   5.307   3.967
 2311SOL    HW2 8831   9.083   5.323   3.816
 2312SOL     OW 8832   4.743  10.322   7.223
 2312SOL    HW1 8833   4.821  10.368   7.192
 2312SOL    HW2 8834   4.776  10.245   7.268
 2313SOL     OW 8835  10.909  12.938   4.224
 2313SOL    HW1 8836  10.940  12.859   4.180
 2313SOL    HW2 8837  10.988  12.977   4.261
 2314SOL     OW 8838   7.015   5.984  10.194
 2314SOL    HW1 8839   6.972   6.023  10.270
 2314SOL    HW2 8840   7.052   5.902  10.227
 2315SOL     OW 8841   4.168   5.725  10.071
 2315SOL    HW1 8842   4.252   5.693  10.105
 2315SOL    HW2 8843   4.112   5.731  10.148
 2316SOL     OW 8844   8.874   7.563   7.047
 2316SOL    HW1 8845   8.856   7.543   7.139
 2316SOL    HW2 8846   8.880   7.477   7.005
 2317SOL     OW 8847   3.343  10.353   0.677
 2317SOL    HW1 8848   3.360  10.415   0.606
 2317SOL    HW2 8849   3.280  10.397   0.733
 2318SOL     OW 8850   1.808  12.918  13.597
 2318SOL    HW1 8851   1.836  12.863  13.524
 2318SOL    HW2 8852   1.734  12.871  13.635
 2319SOL     OW 8853   5.261   1.129  10.311
 2319SOL    HW1 8854   5.218   1.164  10.233
 2319SOL    HW2 8855   5.309   1.204  10.347
 2320SOL     OW 8856  12.244  12.221  13.652
 2320SOL    HW1 8857  12.242  12.211  13.556
 2320SOL    HW2 8858  12.171  12.168  13.683
 2321SOL     OW 8859   9.597  13.902  12.831
 2321SOL    HW1 8860   9.686  13.893  12.799
 2321SOL    HW2 8861   9.601  13.973  12.895
 2322SOL     OW 8862   9.377   1.557   4.840
 2322SOL    HW1 8863   9.445   1.509   4.888
 2322SOL    HW2 8864   9.377   1.518   4.753
 2323SOL     OW 8865   5.748  11.793   6.086
 2323SOL    HW1 8866   5.680  11.737   6.049
 2323SOL    HW2 8867   5.786  11.838   6.010
 2324SOL     OW 8868   1.903   3.733   9.360
 2324SOL    HW1 8869   1.955   3.673   9.307
 2324SOL    HW2 8870   1.851   3.676   9.418
 2325SOL     OW 8871   7.515   9.557   0.628
 2325SOL    HW1 8872   7.509   9.634   0.683
 2325SOL    HW2 8873   7.443   9.566   0.566
 2326SOL     OW 8874  10.644   7.954   7.280
 2326SOL    HW1 8875  10.692   7.975   7.360
 2326SOL    HW2 8876  10.555   7.986   7.297
 2327SOL     OW 8877   2.022  12.724  13.617
 2327SOL    HW1 8878   1.938  12.740  13.572
 2327SOL    HW2 8879   2.088  12.755  13.555
 2328SOL     OW 8880   5.662   8.269   0.192
 2328SOL    HW1 8881   5.676   8.332   0.264
 2328SOL    HW2 8882   5.609   8.317   0.129
 2329SOL     OW 8883   9.703  14.265   0.759
 2329SOL    HW1 8884   9.635  14.198   0.762
 2329SOL    HW2 8885   9.680  14.327   0.829
 2330SOL     OW 8886  12.828   1.005   8.547
 2330SOL    HW1 8887  12.856   1.097   8.544
 2330SOL    HW2 8888  12.808   0.983   8.456
 2331SOL     OW 8889   4.062  13.966   5.781
 2331SOL    HW1 8890   4.090  14.050   5.745
 2331SOL    HW2 8891   4.143  13.924   5.809
 2332SOL     OW 8892  11.796   9.451   8.285
 2332SOL    HW1 8893  11.828   9.509   8.216
 2332SOL    HW2 8894  11.796   9.505   8.364
 2333SOL     OW 8895   0.409   6.247   0.897
 2333SOL    HW1 8896   0.462   6.325   0.912
 2333SOL    HW2 8897   0.371   6.227   0.982
 2334SOL     OW 8898  12.033   0.805   0.094
 2334SOL    HW1 8899  12.041   0.784   0.187
 2334SOL    HW2 8900  12.023   0.720   0.051
 2335SOL     OW 8901   3.918  13.292   1.477
 2335SOL    HW1 8902   3.859  13.363   1.452
 2335SOL    HW2 8903   3.917  13.232   1.402
 2336SOL     OW 8904   3.323   0.550  13.334
 2336SOL    HW1 8905   3.287   0.614  13.271
 2336SOL    HW2 8906   3.250   0.491  13.351
 2337SOL     OW 8907   0.662   1.114   5.221
 2337SOL    HW1 8908   0.720   1.051   5.179
 2337SOL    HW2 8909   0.680   1.196   5.176
 2338SOL     OW 8910   1.674  14.676  14.435
 2338SOL    HW1 8911   1.635  14.591  14.413
 2338SOL    HW2 8912   1.757  14.654  14.477
 2339SOL     OW 8913  14.108  10.448  13.236
 2339SOL    HW1 8914  14.140  10.370  13.281
 2339SOL    HW2 8915  14.149  10.445  13.150
 2340SOL     OW 8916   4.137   0.215   1.583
 2340SOL    HW1 8917   4.154   0.162   1.661
 2340SOL    HW2 8918   4.220   0.215   1.536
 2341SOL     OW 8919   2.768   4.926   4.690
 2341SOL    HW1 8920   2.715   4.850   4.664
 2341SOL    HW2 8921   2.818   4.948   4.612
 2342SOL     OW 8922   7.886  14.663   6.468
 2342SOL    HW1 8923   7.811  14.687   6.522
 2342SOL    HW2 8924   7.854  14.592   6.412
 2343SOL     OW 8925  12.427   4.680  14.373
 2343SOL    HW1 8926  12.351   4.640  14.332
 2343SOL    HW2 8927  12.407   4.680  14.466
 2344SOL     OW 8928   9.852   5.053  14.242
 2344SOL    HW1 8929   9.920   5.017  14.299
 2344SOL    HW2 8930   9.895   5.066  14.158
 2345SOL     OW 8931   0.910   2.314   0.703
 2345SOL    HW1 8932   0.983   2.370   0.729
 2345SOL    HW2 8933   0.902   2.250   0.773
 2346SOL     OW 8934  14.257   0.032  12.392
 2346SOL    HW1 8935  14.184   0.093  12.391
 2346SOL    HW2 8936  14.272   0.010  12.300
 2347SOL     OW 8937   2.470   3.321   7.920
 2347SOL    HW1 8938   2.487   3.231   7.948
 2347SOL    HW2 8939   2.389   3.345   7.966
 2348SOL     OW 8940   6.514  11.330  11.456
 2348SOL    HW1 8941   6.496  11.323  11.550
 2348SOL    HW2 8942   6.431  11.307  11.414
 2349SOL     OW 8943  13.963   7.985   9.943
 2349SOL    HW1 8944  14.056   7.993   9.963
 2349SOL    HW2 8945  13.922   8.060   9.986
 2350SOL     OW 8946   3.575  13.706   3.558
 2350SOL    HW1 8947   3.593  13.646   3.630
 2350SOL    HW2 8948   3.652  13.762   3.553
 2351SOL     OW 8949   0.883   5.248  11.761
 2351SOL    HW1 8950   0.880   5.322  11.701
 2351SOL    HW2 8951   0.847   5.175  11.710
 2352SOL     OW 8952  10.925   5.062  13.212
 2352SOL    HW1 8953  10.928   5.153  13.242
 2352SOL    HW2 8954  10.844   5.055  13.161
 2353SOL     OW 8955   2.242  12.981  14.779
 2353SOL    HW1 8956   2.322  12.945  14.741
 2353SOL    HW2 8957   2.185  12.998  14.704
 2354SOL     OW 8958   8.278   8.434  10.406
 2354SOL    HW1 8959   8.345   8.454  10.471
 2354SOL    HW2 8960   8.305   8.482  10.328
 2355SOL     OW 8961   4.077  11.896   5.743
 2355SOL    HW1 8962   4.157  11.919   5.791
 2355SOL    HW2 8963   4.058  11.972   5.690
 2356SOL     OW 8964   5.804   3.440   3.365
 2356SOL    HW1 8965   5.833   3.369   3.308
 2356SOL    HW2 8966   5.709   3.443   3.353
 2357SOL     OW 8967   5.234   2.025  10.356
 2357SOL    HW1 8968   5.209   1.959  10.291
 2357SOL    HW2 8969   5.152   2.049  10.399
 2358SOL     OW 8970   3.770   8.144  10.179
 2358SOL    HW1 8971   3.809   8.178  10.098
 2358SOL    HW2 8972   3.771   8.218  10.239
 2359SOL     OW 8973  12.099  13.861  10.667
 2359SOL    HW1 8974  12.014  13.856  10.709
 2359SOL    HW2 8975  12.091  13.936  10.607
 2360SOL     OW 8976   6.656  13.143  10.131
 2360SOL    HW1 8977   6.716  13.099  10.072
 2360SOL    HW2 8978   6.712  13.184  10.197
 2361SOL     OW 8979  11.788   6.828  14.473
 2361SOL    HW1 8980  11.875   6.839  14.512
 2361SOL    HW2 8981  11.758   6.918  14.457
 2362SOL     OW 8982   6.682  12.207   5.574
 2362SOL    HW1 8983   6.716  12.245   5.493
 2362SOL    HW2 8984   6.732  12.127   5.586
 2363SOL     OW 8985   7.445   4.043   3.127
 2363SOL    HW1 8986   7.498   3.964   3.113
 2363SOL    HW2 8987   7.509   4.113   3.139
 2364SOL     OW 8988  11.726  14.528   6.661
 2364SOL    HW1 8989  11.742  14.617   6.631
 2364SOL    HW2 8990  11.754  14.528   6.753
 2365SOL     OW 8991   6.205   6.580   4.897
 2365SOL    HW1 8992   6.265   6.625   4.837
 2365SOL    HW2 8993   6.134   6.550   4.840
 2366SOL     OW 8994   1.613  14.180   3.912
 2366SOL    HW1 8995   1.560  14.104   3.934
 2366SOL    HW2 8996   1.644  14.163   3.823
 2367SOL     OW 8997   8.325   1.026  11.602
 2367SOL    HW1 8998   8.346   1.103  11.549
 2367SOL    HW2 8999   8.393   1.024  11.669
 2368SOL     OW 9000   1.303  14.627   2.984
 2368SOL    HW1 9001   1.372  14.670   3.035
 2368SOL    HW2 9002   1.342  14.545   2.955
 2369SOL     OW 9003   2.100   9.887   8.780
 2369SOL    HW1 9004   2.178   9.839   8.753
 2369SOL    HW2 9005   2.026   9.832   8.754
 2370SOL     OW 9006   8.534   0.329   0.440
 2370SOL    HW1 9007   8.451   0.359   0.476
 2370SOL    HW2 9008   8.584   0.299   0.516
 2371SOL     OW 9009  11.756  12.399   2.125
 2371SOL    HW1 9010  11.694  12.329   2.103
 2371SOL    HW2 9011  11.713  12.448   2.195
 2372SOL     OW 9012   0.173   8.992   9.018
 2372SOL    HW1 9013   0.091   9.032   9.048
 2372SOL    HW2 9014   0.238   9.018   9.084
 2373SOL     OW 9015   8.593  11.402  11.555
 2373SOL    HW1 9016   8.512  11.356  11.577
 2373SOL    HW2 9017   8.568  11.461  11.483
 2374SOL     OW 9018  14.469   8.114  13.764
 2374SOL    HW1 9019  14.560   8.132  13.738
 2374SOL    HW2 9020  14.473   8.107  13.860
 2375SOL     OW 9021  11.184   0.401  10.715
 2375SOL    HW1 9022  11.129   0.338  10.760
 2375SOL    HW2 9023  11.186   0.371  10.624
 2376SOL     OW 9024   1.774   1.809   3.157
 2376SOL    HW1 9025   1.851   1.864   3.143
 2376SOL    HW2 9026   1.787   1.734   3.099
 2377SOL     OW 9027   5.805  14.725  11.938
 2377SOL    HW1 9028   5.721  14.694  11.904
 2377SOL    HW2 9029   5.806  14.818  11.917
 2378SOL     OW 9030  14.184   1.060   5.391
 2378SOL    HW1 9031  14.169   1.021   5.305
 2378SOL    HW2 9032  14.278   1.050   5.406
 2379SOL     OW 9033  13.060  11.688   8.517
 2379SOL    HW1 9034  13.108  11.607   8.535
 2379SOL    HW2 9035  13.085  11.710   8.427
 2380SOL     OW 9036   2.974   7.923   1.154
 2380SOL    HW1 9037   2.911   7.946   1.086
 2380SOL    HW2 9038   3.014   7.842   1.122
 2381SOL     OW 9039   4.048   2.932  12.442
 2381SOL    HW1 9040   4.003   2.849  12.456
 2381SOL    HW2 9041   3.984   2.988  12.400
 2382SOL     OW 9042   3.046   4.897   1.726
 2382SOL    HW1 9043   3.027   4.914   1.634
 2382SOL    HW2 9044   2.964   4.862   1.762
 2383SOL     OW 9045   6.229  10.064   8.580
 2383SOL    HW1 9046   6.188  10.050   8.666
 2383SOL    HW2 9047   6.281   9.984   8.566
 2384SOL     OW 9048   6.559   9.909   5.826
 2384SOL    HW1 9049   6.581   9.989   5.874
 2384SOL    HW2 9050   6.561   9.840   5.893
 2385SOL     OW 9051  10.433  11.070   8.755
 2385SOL    HW1 9052  10.462  10.983   8.784
 2385SOL    HW2 9053  10.338  11.069   8.768
 2386SOL     OW 9054  14.003   7.920  10.478
 2386SOL    HW1 9055  13.976   7.948  10.566
 2386SOL    HW2 9056  14.099   7.917  10.482
 2387SOL     OW 9057   3.160   6.793   2.278
 2387SOL    HW1 9058   3.091   6.727   2.272
 2387SOL    HW2 9059   3.229   6.761   2.219
 2388SOL     OW 9060   8.390  13.427   5.436
 2388SOL    HW1 9061   8.377  13.485   5.511
 2388SOL    HW2 9062   8.480  13.444   5.408
 2389SOL     OW 9063  11.723  11.916   0.926
 2389SOL    HW1 9064  11.754  11.953   1.009
 2389SOL    HW2 9065  11.790  11.943   0.862
 2390SOL     OW 9066   7.019   0.939   1.972
 2390SOL    HW1 9067   7.100   0.950   1.923
 2390SOL    HW2 9068   6.966   1.015   1.946
 2391SOL     OW 9069  14.552   3.042   7.393
 2391SOL    HW1 9070  14.619   3.014   7.330
 2391SOL    HW2 9071  14.470   3.005   7.359
 2392SOL     OW 9072  12.342   6.495   2.956
 2392SOL    HW1 9073  12.427   6.461   2.982
 2392SOL    HW2 9074  12.325   6.454   2.871
 2393SOL     OW 9075   7.429  13.826   5.144
 2393SOL    HW1 9076   7.375  13.750   5.166
 2393SOL    HW2 9077   7.515  13.789   5.123
 2394SOL     OW 9078   5.726   4.970   7.900
 2394SOL    HW1 9079   5.691   4.882   7.890
 2394SOL    HW2 9080   5.764   4.971   7.988
 2395SOL     OW 9081   5.157   2.322  10.021
 2395SOL    HW1 9082   5.137   2.364   9.937
 2395SOL    HW2 9083   5.187   2.234   9.997
 2396SOL     OW 9084   4.014  14.372   6.042
 2396SOL    HW1 9085   4.088  14.432   6.050
 2396SOL    HW2 9086   4.054  14.285   6.043
 2397SOL     OW 9087  13.687   4.681   4.181
 2397SOL    HW1 9088  13.695   4.598   4.134
 2397SOL    HW2 9089  13.593   4.691   4.196
 2398SOL     OW 9090   2.761   7.124  14.275
 2398SOL    HW1 9091   2.809   7.136  14.357
 2398SOL    HW2 9092   2.711   7.044  14.289
 2399SOL     OW 9093  13.426   5.000   8.872
 2399SOL    HW1 9094  13.488   5.026   8.940
 2399SOL    HW2 9095  13.480   4.964   8.801
 2400SOL     OW 9096   0.904   7.083  14.776
 2400SOL    HW1 9097   0.987   7.105  14.735
 2400SOL    HW2 9098   0.851   7.162  14.764
 2401SOL     OW 9099  12.633   5.651   5.440
 2401SOL    HW1 9100  12.641   5.740   5.406
 2401SOL    HW2 9101  12.613   5.598   5.364
 2402SOL     OW 9102   8.596  13.657   0.699
 2402SOL    HW1 9103   8.535  13.649   0.772
 2402SOL    HW2 9104   8.562  13.599   0.631
 2403SOL     OW 9105   2.619  14.347  14.612
 2403SOL    HW1 9106   2.688  14.287  14.588
 2403SOL    HW2 9107   2.587  14.383  14.529
 2404SOL     OW 9108   6.053  11.222   2.003
 2404SOL    HW1 9109   6.125  11.257   1.952
 2404SOL    HW2 9110   5.987  11.198   1.939
 2405SOL     OW 9111   0.060  14.537   9.893
 2405SOL    HW1 9112   0.133  14.588   9.856
 2405SOL    HW2 9113  14.863  14.600   9.901
 2406SOL     OW 9114  13.131   4.148   4.779
 2406SOL    HW1 9115  13.098   4.199   4.706
 2406SOL    HW2 9116  13.087   4.064   4.772
 2407SOL     OW 9117   0.251   5.949   4.504
 2407SOL    HW1 9118   0.234   6.016   4.571
 2407SOL    HW2 9119   0.227   5.867   4.546
 2408SOL     OW 9120   6.796   9.590   1.507
 2408SOL    HW1 9121   6.797   9.595   1.411
 2408SOL    HW2 9122   6.737   9.661   1.534
 2409SOL     OW 9123  12.791  13.519   5.290
 2409SOL    HW1 9124  12.819  13.567   5.368
 2409SOL    HW2 9125  12.865  13.462   5.269
 2410SOL     OW 9126   9.061   7.258  12.825
 2410SOL    HW1 9127   8.988   7.217  12.778
 2410SOL    HW2 9128   9.075   7.341  12.778
 2411SOL     OW 9129   0.180   6.502   8.056
 2411SOL    HW1 9130   0.180   6.574   7.993
 2411SOL    HW2 9131   0.213   6.427   8.007
 2412SOL     OW 9132   5.768   4.786   1.175
 2412SOL    HW1 9133   5.723   4.782   1.260
 2412SOL    HW2 9134   5.821   4.866   1.180
 2413SOL     OW 9135  13.032   9.814   5.833
 2413SOL    HW1 9136  13.011   9.745   5.771
 2413SOL    HW2 9137  13.065   9.886   5.779
 2414SOL     OW 9138  12.922   9.291   4.838
 2414SOL    HW1 9139  12.879   9.367   4.798
 2414SOL    HW2 9140  12.941   9.233   4.764
 2415SOL     OW 9141   5.608   4.106   6.613
 2415SOL    HW1 9142   5.674   4.150   6.562
 2415SOL    HW2 9143   5.527   4.117   6.563
 2416SOL     OW 9144   2.892   4.570   3.615
 2416SOL    HW1 9145   2.891   4.513   3.538
 2416SOL    HW2 9146   2.937   4.649   3.586
 2417SOL     OW 9147   2.212  11.152  12.106
 2417SOL    HW1 9148   2.241  11.236  12.071
 2417SOL    HW2 9149   2.125  11.139  12.067
 2418SOL     OW 9150  11.133   4.674   4.504
 2418SOL    HW1 9151  11.130   4.579   4.496
 2418SOL    HW2 9152  11.219   4.691   4.543
 2419SOL     OW 9153  10.202  13.713   8.450
 2419SOL    HW1 9154  10.216  13.682   8.539
 2419SOL    HW2 9155  10.184  13.806   8.458
 2420SOL     OW 9156  11.923  10.915   2.924
 2420SOL    HW1 9157  11.852  10.852   2.936
 2420SOL    HW2 9158  11.998  10.875   2.968
 2421SOL     OW 9159   4.126  11.397   9.993
 2421SOL    HW1 9160   4.168  11.378   9.909
 2421SOL    HW2 9161   4.103  11.490   9.989
 2422SOL     OW 9162  14.570  12.594   9.009
 2422SOL    HW1 9163  14.474  12.591   9.013
 2422SOL    HW2 9164  14.590  12.682   8.977
 2423SOL     OW 9165   9.946  10.274   4.885
 2423SOL    HW1 9166  10.031  10.279   4.840
 2423SOL    HW2 9167   9.921  10.182   4.879
 2424SOL     OW 9168   8.083  11.370  12.880
 2424SOL    HW1 9169   8.112  11.279  12.878
 2424SOL    HW2 9170   8.080  11.396  12.787
 2425SOL     OW 9171  14.374   2.940   9.671
 2425SOL    HW1 9172  14.318   2.889   9.613
 2425SOL    HW2 9173  14.367   2.897   9.756
 2426SOL     OW 9174   3.967  11.688  12.254
 2426SOL    HW1 9175   3.952  11.636  12.175
 2426SOL    HW2 9176   4.035  11.751  12.228
 2427SOL     OW 9177  13.211   8.208   7.637
 2427SOL    HW1 9178  13.146   8.163   7.691
 2427SOL    HW2 9179  13.178   8.297   7.629
 2428SOL     OW 9180   5.708  12.879   5.156
 2428SOL    HW1 9181   5.716  12.859   5.063
 2428SOL    HW2 9182   5.626  12.928   5.162
 2429SOL     OW 9183   7.320  13.667   6.558
 2429SOL    HW1 9184   7.271  13.590   6.586
 2429SOL    HW2 9185   7.260  13.713   6.499
 2430SOL     OW 9186   6.175   6.679   2.144
 2430SOL    HW1 9187   6.102   6.737   2.125
 2430SOL    HW2 9188   6.253   6.734   2.133
 2431SOL     OW 9189   2.577  10.084   4.772
 2431SOL    HW1 9190   2.567  10.072   4.678
 2431SOL    HW2 9191   2.561  10.178   4.786
 2432SOL     OW 9192   8.490   9.480   0.034
 2432SOL    HW1 9193   8.471   9.529   0.114
 2432SOL    HW2 9194   8.487   9.388   0.061
 2433SOL     OW 9195   2.552   1.000   2.455
 2433SOL    HW1 9196   2.644   1.023   2.457
 2433SOL    HW2 9197   2.527   1.004   2.363
 2434SOL     OW 9198   0.720   6.188  14.327
 2434SOL    HW1 9199   0.767   6.218  14.405
 2434SOL    HW2 9200   0.668   6.263  14.299
 2435SOL     OW 9201   3.878  11.037   5.159
 2435SOL    HW1 9202   3.846  11.007   5.074
 2435SOL    HW2 9203   3.844  10.973   5.222
 2436SOL     OW 9204  13.619   8.115   9.703
 2436SOL    HW1 9205  13.633   8.020   9.712
 2436SOL    HW2 9206  13.544   8.122   9.643
 2437SOL     OW 9207   9.509   3.075  11.691
 2437SOL    HW1 9208   9.536   2.989  11.659
 2437SOL    HW2 9209   9.513   3.068  11.787
 2438SOL     OW 9210  12.820  11.102   8.350
 2438SOL    HW1 9211  12.894  11.114   8.410
 2438SOL    HW2 9212  12.764  11.179   8.366
 2439SOL     OW 9213  12.003   4.586   7.981
 2439SOL    HW1 9214  11.917   4.544   7.973
 2439SOL    HW2 9215  12.027   4.573   8.073
 2440SOL     OW 9216   1.187   6.439   7.899
 2440SOL    HW1 9217   1.134   6.441   7.979
 2440SOL    HW2 9218   1.193   6.347   7.876
 2441SOL     OW 9219   5.725   4.162   0.227
 2441SOL    HW1 9220   5.652   4.110   0.192
 2441SOL    HW2 9221   5.685   4.217   0.294
 2442SOL     OW 9222  11.911   2.398  11.866
 2442SOL    HW1 9223  11.820   2.390  11.894
 2442SOL    HW2 9224  11.962   2.377  11.944
 2443SOL     OW 9225   8.076   3.213   1.271
 2443SOL    HW1 9226   8.101   3.145   1.208
 2443SOL    HW2 9227   8.111   3.294   1.233
 2444SOL     OW 9228  10.278   8.521   3.462
 2444SOL    HW1 9229  10.231   8.520   3.378
 2444SOL    HW2 9230  10.301   8.612   3.476
 2445SOL     OW 9231   6.881   3.431   2.924
 2445SOL    HW1 9232   6.899   3.360   2.862
 2445SOL    HW2 9233   6.933   3.409   3.001
 2446SOL     OW 9234   9.460  12.463   4.667
 2446SOL    HW1 9235   9.455  12.378   4.623
 2446SOL    HW2 9236   9.413  12.451   4.749
 2447SOL     OW 9237   4.784  12.347   0.030
 2447SOL    HW1 9238   4.829  12.431   0.019
 2447SOL    HW2 9239   4.837  12.285  14.855
 2448SOL     OW 9240   5.922  14.529   0.241
 2448SOL    HW1 9241   5.944  14.618   0.268
 2448SOL    HW2 9242   5.845  14.506   0.294
 2449SOL     OW 9243   2.934   3.617  13.095
 2449SOL    HW1 9244   2.927   3.535  13.047
 2449SOL    HW2 9245   2.854   3.665  13.074
 2450SOL     OW 9246  12.894   1.210   7.253
 2450SOL    HW1 9247  12.967   1.171   7.206
 2450SOL    HW2 9248  12.819   1.196   7.195
 2451SOL     OW 9249   7.207  12.789   5.401
 2451SOL    HW1 9250   7.138  12.781   5.467
 2451SOL    HW2 9251   7.242  12.877   5.414
 2452SOL     OW 9252   0.097   1.790   4.027
 2452SOL    HW1 9253   0.102   1.808   3.933
 2452SOL    HW2 9254   0.049   1.707   4.032
 2453SOL     OW 9255   4.556   3.138  11.051
 2453SOL    HW1 9256   4.647   3.130  11.022
 2453SOL    HW2 9257   4.505   3.094  10.982
 2454SOL     OW 9258   0.692   8.155   4.322
 2454SOL    HW1 9259   0.658   8.131   4.408
 2454SOL    HW2 9260   0.785   8.173   4.337
 2455SOL     OW 9261   6.919  10.921   6.420
 2455SOL    HW1 9262   6.891  10.980   6.351
 2455SOL    HW2 9263   7.001  10.883   6.388
 2456SOL     OW 9264   3.753   2.471   7.725
 2456SOL    HW1 9265   3.732   2.556   7.762
 2456SOL    HW2 9266   3.687   2.458   7.656
 2457SOL     OW 9267  12.149   3.813  11.143
 2457SOL    HW1 9268  12.238   3.777  11.139
 2457SOL    HW2 9269  12.148   3.881  11.075
 2458SOL     OW 9270  14.465   3.733   4.831
 2458SOL    HW1 9271  14.425   3.731   4.918
 2458SOL    HW2 9272  14.421   3.805   4.785
 2459SOL     OW 9273  10.579   9.457  10.064
 2459SOL    HW1 9274  10.626   9.465   9.981
 2459SOL    HW2 9275  10.632   9.397  10.116
 2460SOL     OW 9276   5.606   1.146  10.175
 2460SOL    HW1 9277   5.550   1.200  10.231
 2460SOL    HW2 9278   5.663   1.209  10.130
 2461SOL     OW 9279   0.467  11.568   3.140
 2461SOL    HW1 9280   0.544  11.571   3.196
 2461SOL    HW2 9281   0.397  11.603   3.194
 2462SOL     OW 9282   1.158   4.546  11.051
 2462SOL    HW1 9283   1.246   4.509  11.056
 2462SOL    HW2 9284   1.159   4.603  10.974
 2463SOL     OW 9285   3.407  12.420   7.029
 2463SOL    HW1 9286   3.426  12.329   7.007
 2463SOL    HW2 9287   3.313  12.423   7.043
 2464SOL     OW 9288   3.041  10.464   3.073
 2464SOL    HW1 9289   3.026  10.428   3.161
 2464SOL    HW2 9290   3.018  10.393   3.014
 2465SOL     OW 9291  14.473  11.507   9.580
 2465SOL    HW1 9292  14.407  11.556   9.630
 2465SOL    HW2 9293  14.433  11.421   9.568
 2466SOL     OW 9294   4.681  11.277   6.629
 2466SOL    HW1 9295   4.708  11.219   6.700
 2466SOL    HW2 9296   4.656  11.219   6.558
 2467SOL     OW 9297   3.697   2.383  13.913
 2467SOL    HW1 9298   3.730   2.425  13.834
 2467SOL    HW2 9299   3.630   2.444  13.946
 2468SOL     OW 9300  10.939   9.737   0.738
 2468SOL    HW1 9301  10.914   9.733   0.830
 2468SOL    HW2 9302  10.880   9.802   0.699
 2469SOL     OW 9303  10.414   5.951   3.026
 2469SOL    HW1 9304  10.354   5.889   3.068
 2469SOL    HW2 9305  10.376   6.037   3.046
 2470SOL     OW 9306  14.459   2.928  14.079
 2470SOL    HW1 9307  14.526   2.860  14.071
 2470SOL    HW2 9308  14.428   2.942  13.990
 2471SOL     OW 9309   6.586  11.874   5.117
 2471SOL    HW1 9310   6.586  11.797   5.173
 2471SOL    HW2 9311   6.597  11.840   5.028
 2472SOL     OW 9312  13.441  14.408   4.646
 2472SOL    HW1 9313  13.459  14.500   4.631
 2472SOL    HW2 9314  13.351  14.396   4.614
 2473SOL     OW 9315   6.523   3.609  12.017
 2473SOL    HW1 9316   6.491   3.683  11.966
 2473SOL    HW2 9317   6.509   3.635  12.108
 2474SOL     OW 9318   7.877   3.314   1.974
 2474SOL    HW1 9319   7.892   3.239   1.916
 2474SOL    HW2 9320   7.864   3.276   2.060
 2475SOL     OW 9321   5.792   7.359  12.982
 2475SOL    HW1 9322   5.850   7.310  12.924
 2475SOL    HW2 9323   5.844   7.435  13.010
 2476SOL     OW 9324   0.276  12.517   4.664
 2476SOL    HW1 9325   0.268  12.580   4.591
 2476SOL    HW2 9326   0.236  12.437   4.630
 2477SOL     OW 9327  12.002   2.146   0.755
 2477SOL    HW1 9328  12.025   2.202   0.829
 2477SOL    HW2 9329  12.001   2.205   0.679
 2478SOL     OW 9330   6.070   8.278   0.719
 2478SOL    HW1 9331   6.117   8.277   0.803
 2478SOL    HW2 9332   6.052   8.186   0.701
 2479SOL     OW 9333  10.735  10.310   9.486
 2479SOL    HW1 9334  10.644  10.337   9.481
 2479SOL    HW2 9335  10.753  10.303   9.580
 2480SOL     OW 9336  12.548   5.789   4.389
 2480SOL    HW1 9337  12.558   5.815   4.481
 2480SOL    HW2 9338  12.638   5.776   4.358
 2481SOL     OW 9339  10.953   9.496  14.260
 2481SOL    HW1 9340  10.907   9.576  14.287
 2481SOL    HW2 9341  10.888   9.447  14.209
 2482SOL     OW 9342   9.657   6.674  11.523
 2482SOL    HW1 9343   9.648   6.581  11.544
 2482SOL    HW2 9344   9.578   6.714  11.559
 2483SOL     OW 9345   3.242   3.042  11.569
 2483SOL    HW1 9346   3.185   2.973  11.535
 2483SOL    HW2 9347   3.330   3.017  11.542
 2484SOL     OW 9348  14.386   6.748   1.353
 2484SOL    HW1 9349  14.391   6.738   1.258
 2484SOL    HW2 9350  14.412   6.839   1.369
 2485SOL     OW 9351  10.722  11.717   6.877
 2485SOL    HW1 9352  10.638  11.698   6.920
 2485SOL    HW2 9353  10.779  11.746   6.948
 2486SOL     OW 9354  14.810  14.142  11.526
 2486SOL    HW1 9355  14.769  14.227  11.543
 2486SOL    HW2 9356   0.013  14.142  11.583
 2487SOL     OW 9357   3.077  10.836   6.260
 2487SOL    HW1 9358   3.068  10.929   6.240
 2487SOL    HW2 9359   3.154  10.807   6.210
 2488SOL     OW 9360   9.605   2.378   8.145
 2488SOL    HW1 9361   9.594   2.469   8.118
 2488SOL    HW2 9362   9.593   2.328   8.065
 2489SOL     OW 9363   0.749  14.219   9.185
 2489SOL    HW1 9364   0.830  14.271   9.185
 2489SOL    HW2 9365   0.698  14.254   9.112
 2490SOL     OW 9366   9.969  13.142   4.483
 2490SOL    HW1 9367   9.925  13.092   4.414
 2490SOL    HW2 9368   9.965  13.085   4.560
 2491SOL     OW 9369   3.133   0.877   2.307
 2491SOL    HW1 9370   3.206   0.910   2.256
 2491SOL    HW2 9371   3.173   0.834   2.382
 2492SOL     OW 9372   4.520  14.375  13.514
 2492SOL    HW1 9373   4.475  14.454  13.484
 2492SOL    HW2 9374   4.605  14.378  13.471
 2493SOL     OW 9375   1.058  14.873   1.731
 2493SOL    HW1 9376   1.057   0.078   1.678
 2493SOL    HW2 9377   0.992  14.817   1.691
 2494SOL     OW 9378   8.990   0.808  13.659
 2494SOL    HW1 9379   9.016   0.764  13.579
 2494SOL    HW2 9380   9.064   0.796  13.719
 2495SOL     OW 9381   5.533  10.433  12.391
 2495SOL    HW1 9382   5.482  10.467  12.318
 2495SOL    HW2 9383   5.532  10.338  12.380
 2496SOL     OW 9384   3.009  11.881   3.710
 2496SOL    HW1 9385   3.031  11.973   3.721
 2496SOL    HW2 9386   2.925  11.870   3.755
 2497SOL     OW 9387  10.737   9.156   9.799
 2497SOL    HW1 9388  10.650   9.197   9.805
 2497SOL    HW2 9389  10.720   9.070   9.760
 2498SOL     OW 9390   8.983  12.440   8.240
 2498SOL    HW1 9391   8.990  12.462   8.333
 2498SOL    HW2 9392   9.041  12.502   8.196
 2499SOL     OW 9393   8.202   2.797   5.751
 2499SOL    HW1 9394   8.270   2.794   5.683
 2499SOL    HW2 9395   8.247   2.773   5.832
 2500SOL     OW 9396  11.741   7.891  10.487
 2500SOL    HW1 9397  11.691   7.844  10.553
 2500SOL    HW2 9398  11.689   7.969  10.468
 2501SOL     OW 9399   3.279   6.960   0.752
 2501SOL    HW1 9400   3.191   6.924   0.766
 2501SOL    HW2 9401   3.330   6.885   0.719
 2502SOL     OW 9402   4.999  11.547   5.619
 2502SOL    HW1 9403   4.968  11.458   5.635
 2502SOL    HW2 9404   5.012  11.584   5.706
 2503SOL     OW 9405   8.931   9.840  12.567
 2503SOL    HW1 9406   8.914   9.879  12.481
 2503SOL    HW2 9407   8.907   9.907  12.630
 2504SOL     OW 9408   8.823   5.105  13.194
 2504SOL    HW1 9409   8.749   5.053  13.226
 2504SOL    HW2 9410   8.870   5.131  13.273
 2505SOL     OW 9411   1.478  11.740   5.912
 2505SOL    HW1 9412   1.480  11.742   5.816
 2505SOL    HW2 9413   1.494  11.831   5.938
 2506SOL     OW 9414   8.127  12.104   8.748
 2506SOL    HW1 9415   8.124  12.012   8.720
 2506SOL    HW2 9416   8.138  12.100   8.843
 2507SOL     OW 9417   5.548   0.424   3.798
 2507SOL    HW1 9418   5.533   0.355   3.734
 2507SOL    HW2 9419   5.499   0.397   3.875
 2508SOL     OW 9420   9.740   5.387   4.944
 2508SOL    HW1 9421   9.701   5.465   4.903
 2508SOL    HW2 9422   9.668   5.348   4.993
 2509SOL     OW 9423   4.297   8.747  11.873
 2509SOL    HW1 9424   4.380   8.768  11.830
 2509SOL    HW2 9425   4.240   8.719  11.802
 2510SOL     OW 9426   8.481   6.380   0.089
 2510SOL    HW1 9427   8.502   6.423   0.006
 2510SOL    HW2 9428   8.407   6.322   0.068
 2511SOL     OW 9429  10.307   9.418   9.669
 2511SOL    HW1 9430  10.333   9.509   9.655
 2511SOL    HW2 9431  10.217   9.422   9.699
 2512SOL     OW 9432   6.855   5.112   3.849
 2512SOL    HW1 9433   6.879   5.076   3.934
 2512SOL    HW2 9434   6.860   5.207   3.861
 2513SOL     OW 9435   3.181  10.642  11.907
 2513SOL    HW1 9436   3.249  10.694  11.865
 2513SOL    HW2 9437   3.226  10.564  11.940
 2514SOL     OW 9438   7.786  13.966  11.742
 2514SOL    HW1 9439   7.726  13.956  11.668
 2514SOL    HW2 9440   7.873  13.974  11.701
 2515SOL     OW 9441   3.397   4.091   3.062
 2515SOL    HW1 9442   3.414   4.084   3.156
 2515SOL    HW2 9443   3.329   4.026   3.044
 2516SOL     OW 9444  11.841  11.025  11.330
 2516SOL    HW1 9445  11.870  11.115  11.346
 2516SOL    HW2 9446  11.761  11.034  11.277
 2517SOL     OW 9447   0.024   8.357  11.975
 2517SOL    HW1 9448  14.842   8.291  11.936
 2517SOL    HW2 9449   0.061   8.404  11.899
 2518SOL     OW 9450  13.189  11.229   8.938
 2518SOL    HW1 9451  13.259  11.167   8.915
 2518SOL    HW2 9452  13.209  11.307   8.888
 2519SOL     OW 9453  13.736   9.159  11.518
 2519SOL    HW1 9454  13.740   9.254  11.506
 2519SOL    HW2 9455  13.692   9.127  11.440
 2520SOL     OW 9456   0.300   6.172  14.724
 2520SOL    HW1 9457   0.374   6.211  14.771
 2520SOL    HW2 9458   0.225   6.227  14.746
 2521SOL     OW 9459   0.082   4.402   0.638
 2521SOL    HW1 9460   0.171   4.435   0.629
 2521SOL    HW2 9461   0.067   4.399   0.733
 2522SOL     OW 9462   9.754   5.538  13.001
 2522SOL    HW1 9463   9.787   5.458  12.959
 2522SOL    HW2 9464   9.815   5.606  12.974
 2523SOL     OW 9465  11.686   1.585   2.878
 2523SOL    HW1 9466  11.679   1.623   2.790
 2523SOL    HW2 9467  11.599   1.596   2.916
 2524SOL     OW 9468   3.837  10.305   1.426
 2524SOL    HW1 9469   3.793  10.348   1.352
 2524SOL    HW2 9470   3.784  10.228   1.445
 2525SOL     OW 9471   1.085  11.466   9.904
 2525SOL    HW1 9472   1.040  11.480   9.987
 2525SOL    HW2 9473   1.060  11.377   9.878
 2526SOL     OW 9474  10.639   5.006   1.962
 2526SOL    HW1 9475  10.642   5.060   1.883
 2526SOL    HW2 9476  10.715   5.034   2.013
 2527SOL     OW 9477   5.505   3.848  13.887
 2527SOL    HW1 9478   5.482   3.821  13.798
 2527SOL    HW2 9479   5.451   3.793  13.944
 2528SOL     OW 9480   8.403   8.562   9.565
 2528SOL    HW1 9481   8.318   8.605   9.570
 2528SOL    HW2 9482   8.430   8.572   9.474
 2529SOL     OW 9483  10.057  12.630   5.629
 2529SOL    HW1 9484  10.104  12.563   5.579
 2529SOL    HW2 9485  10.036  12.697   5.565
 2530SOL     OW 9486   8.139  14.495   7.232
 2530SOL    HW1 9487   8.105  14.411   7.205
 2530SOL    HW2 9488   8.180  14.478   7.317
 2531SOL     OW 9489  13.773  13.882   5.474
 2531SOL    HW1 9490  13.749  13.962   5.427
 2531SOL    HW2 9491  13.718  13.883   5.552
 2532SOL     OW 9492  10.780   1.608  12.424
 2532SOL    HW1 9493  10.701   1.656  12.399
 2532SOL    HW2 9494  10.850   1.651  12.374
 2533SOL     OW 9495  12.400   5.155   9.546
 2533SOL    HW1 9496  12.309   5.180   9.536
 2533SOL    HW2 9497  12.401   5.092   9.618
 2534SOL     OW 9498   6.553   2.256   4.858
 2534SOL    HW1 9499   6.523   2.247   4.768
 2534SOL    HW2 9500   6.483   2.305   4.902
 2535SOL     OW 9501   7.787  12.410  10.937
 2535SOL    HW1 9502   7.854  12.428  11.003
 2535SOL    HW2 9503   7.749  12.326  10.963
 2536SOL     OW 9504   0.634   4.062  14.017
 2536SOL    HW1 9505   0.671   4.075  13.929
 2536SOL    HW2 9506   0.589   4.144  14.036
 2537SOL     OW 9507   9.251  12.674   2.355
 2537SOL    HW1 9508   9.318  12.727   2.398
 2537SOL    HW2 9509   9.189  12.651   2.425
 2538SOL     OW 9510  11.297   7.026   6.469
 2538SOL    HW1 9511  11.340   6.968   6.405
 2538SOL    HW2 9512  11.368   7.081   6.502
 2539SOL     OW 9513   1.425  14.762   7.111
 2539SOL    HW1 9514   1.474  14.753   7.193
 2539SOL    HW2 9515   1.447  14.850   7.080
 2540SOL     OW 9516   6.784  11.184   7.412
 2540SOL    HW1 9517   6.858  11.123   7.416
 2540SOL    HW2 9518   6.814  11.260   7.462
 2541SOL     OW 9519  10.506  14.866   5.319
 2541SOL    HW1 9520  10.541   0.074   5.289
 2541SOL    HW2 9521  10.443  14.840   5.252
 2542SOL     OW 9522   7.871   8.260   0.918
 2542SOL    HW1 9523   7.859   8.239   0.825
 2542SOL    HW2 9524   7.953   8.216   0.942
 2543SOL     OW 9525   9.681  10.549   0.559
 2543SOL    HW1 9526   9.600  10.546   0.609
 2543SOL    HW2 9527   9.738  10.609   0.607
 2544SOL     OW 9528   9.599  10.235   0.372
 2544SOL    HW1 9529   9.663  10.299   0.341
 2544SOL    HW2 9530   9.652  10.164   0.409
 2545SOL     OW 9531   3.964  13.235   9.296
 2545SOL    HW1 9532   3.927  13.308   9.346
 2545SOL    HW2 9533   3.974  13.269   9.207
 2546SOL     OW 9534   0.305   9.740   4.706
 2546SOL    HW1 9535   0.286   9.671   4.770
 2546SOL    HW2 9536   0.363   9.800   4.753
 2547SOL     OW 9537  10.902  14.664   4.744
 2547SOL    HW1 9538  10.898  14.731   4.675
 2547SOL    HW2 9539  10.850  14.591   4.710
 2548SOL     OW 9540  13.805  10.939   4.030
 2548SOL    HW1 9541  13.852  10.856   4.036
 2548SOL    HW2 9542  13.749  10.929   3.953
 2549SOL     OW 9543  13.714   0.965   6.285
 2549SOL    HW1 9544  13.794   0.933   6.244
 2549SOL    HW2 9545  13.661   0.887   6.300
 2550SOL     OW 9546  13.724   4.351   5.335
 2550SOL    HW1 9547  13.674   4.310   5.265
 2550SOL    HW2 9548  13.798   4.392   5.290
 2551SOL     OW 9549  14.388   2.806   9.926
 2551SOL    HW1 9550  14.467   2.763   9.894
 2551SOL    HW2 9551  14.343   2.739   9.977
 2552SOL     OW 9552  10.064   7.072   9.153
 2552SOL    HW1 9553  10.085   7.057   9.061
 2552SOL    HW2 9554   9.970   7.056   9.159
 2553SOL     OW 9555   5.228  12.657  11.848
 2553SOL    HW1 9556   5.166  12.727  11.828
 2553SOL    HW2 9557   5.200  12.584  11.794
 2554SOL     OW 9558  11.823  11.601   4.148
 2554SOL    HW1 9559  11.890  11.667   4.164
 2554SOL    HW2 9560  11.742  11.639   4.182
 2555SOL     OW 9561   6.170   6.428  10.587
 2555SOL    HW1 9562   6.209   6.484  10.521
 2555SOL    HW2 9563   6.232   6.431  10.661
 2556SOL     OW 9564   9.811   9.314  14.513
 2556SOL    HW1 9565   9.845   9.340  14.598
 2556SOL    HW2 9566   9.719   9.342  14.515
 2557SOL     OW 9567   5.640   9.313  12.164
 2557SOL    HW1 9568   5.656   9.259  12.087
 2557SOL    HW2 9569   5.648   9.252  12.238
 2558SOL     OW 9570   8.460   2.512   3.382
 2558SOL    HW1 9571   8.414   2.562   3.315
 2558SOL    HW2 9572   8.507   2.577   3.434
 2559SOL     OW 9573   5.693   8.003   6.138
 2559SOL    HW1 9574   5.744   7.924   6.154
 2559SOL    HW2 9575   5.671   7.999   6.045
 2560SOL     OW 9576   5.316   9.665   4.203
 2560SOL    HW1 9577   5.304   9.724   4.129
 2560SOL    HW2 9578   5.281   9.713   4.278
 2561SOL     OW 9579   3.628  12.026  14.071
 2561SOL    HW1 9580   3.618  11.942  14.026
 2561SOL    HW2 9581   3.702  12.014  14.130
 2562SOL     OW 9582   7.138  12.881  13.617
 2562SOL    HW1 9583   7.192  12.892  13.539
 2562SOL    HW2 9584   7.102  12.968  13.634
 2563SOL     OW 9585   0.501   9.796  11.653
 2563SOL    HW1 9586   0.538   9.830  11.734
 2563SOL    HW2 9587   0.532   9.706  11.648
 2564SOL     OW 9588  10.838   9.066  11.214
 2564SOL    HW1 9589  10.871   9.011  11.143
 2564SOL    HW2 9590  10.916   9.112  11.246
 2565SOL     OW 9591   2.637  12.371  14.059
 2565SOL    HW1 9592   2.625  12.424  14.138
 2565SOL    HW2 9593   2.730  12.345  14.062
 2566SOL     OW 9594   3.055   6.323   8.219
 2566SOL    HW1 9595   3.145   6.327   8.185
 2566SOL    HW2 9596   3.013   6.402   8.185
 2567SOL     OW 9597  10.423   5.694   0.124
 2567SOL    HW1 9598  10.431   5.732   0.036
 2567SOL    HW2 9599  10.337   5.652   0.124
 2568SOL     OW 9600   8.455  10.953   4.674
 2568SOL    HW1 9601   8.518  11.019   4.702
 2568SOL    HW2 9602   8.463  10.951   4.578
 2569SOL     OW 9603   0.584   3.203  14.185
 2569SOL    HW1 9604   0.655   3.233  14.127
 2569SOL    HW2 9605   0.510   3.258  14.162
 2570SOL     OW 9606  12.192   3.044   7.196
 2570SOL    HW1 9607  12.228   2.957   7.217
 2570SOL    HW2 9608  12.268   3.101   7.193
 2571SOL     OW 9609   4.843   4.568  11.784
 2571SOL    HW1 9610   4.877   4.479  11.791
 2571SOL    HW2 9611   4.919   4.624  11.800
 2572SOL     OW 9612  11.125   3.211   2.000
 2572SOL    HW1 9613  11.031   3.211   2.017
 2572SOL    HW2 9614  11.135   3.264   1.921
 2573SOL     OW 9615  10.909   7.494   0.043
 2573SOL    HW1 9616  10.953   7.494   0.128
 2573SOL    HW2 9617  10.937   7.576   0.002
 2574SOL     OW 9618  12.467   3.375  14.286
 2574SOL    HW1 9619  12.461   3.382  14.381
 2574SOL    HW2 9620  12.484   3.283  14.269
 2575SOL     OW 9621  14.092  14.824  13.316
 2575SOL    HW1 9622  14.152  14.808  13.388
 2575SOL    HW2 9623  14.005  14.809  13.353
 2576SOL     OW 9624   2.847   2.730  11.620
 2576SOL    HW1 9625   2.753   2.748  11.620
 2576SOL    HW2 9626   2.880   2.777  11.697
 2577SOL     OW 9627  11.806   0.862  11.266
 2577SOL    HW1 9628  11.894   0.893  11.245
 2577SOL    HW2 9629  11.748   0.918  11.215
 2578SOL     OW 9630   9.055   7.222   9.310
 2578SOL    HW1 9631   9.115   7.253   9.242
 2578SOL    HW2 9632   9.084   7.134   9.330
 2579SOL     OW 9633   5.899   5.166  11.722
 2579SOL    HW1 9634   5.838   5.221  11.770
 2579SOL    HW2 9635   5.881   5.077  11.753
 2580SOL     OW 9636   0.329   7.441   8.472
 2580SOL    HW1 9637   0.383   7.474   8.400
 2580SOL    HW2 9638   0.385   7.379   8.518
 2581SOL     OW 9639   0.782   6.605   3.251
 2581SOL    HW1 9640   0.745   6.532   3.201
 2581SOL    HW2 9641   0.847   6.644   3.193
 2582SOL     OW 9642   9.968   0.826  11.098
 2582SOL    HW1 9643  10.007   0.747  11.135
 2582SOL    HW2 9644   9.898   0.850  11.158
 2583SOL     OW 9645   4.687   3.310   1.389
 2583SOL    HW1 9646   4.668   3.227   1.434
 2583SOL    HW2 9647   4.695   3.374   1.459
 2584SOL     OW 9648   2.228   7.243   9.247
 2584SOL    HW1 9649   2.275   7.165   9.275
 2584SOL    HW2 9650   2.147   7.241   9.299
 2585SOL     OW 9651  11.396  12.823  12.459
 2585SOL    HW1 9652  11.359  12.903  12.421
 2585SOL    HW2 9653  11.395  12.838  12.553
 2586SOL     OW 9654   3.034   4.464   6.030
 2586SOL    HW1 9655   3.080   4.495   6.108
 2586SOL    HW2 9656   3.022   4.370   6.045
 2587SOL     OW 9657   4.368  13.874   5.577
 2587SOL    HW1 9658   4.280  13.880   5.540
 2587SOL    HW2 9659   4.427  13.883   5.502
 2588SOL     OW 9660  10.140  10.061   9.468
 2588SOL    HW1 9661  10.061  10.028   9.424
 2588SOL    HW2 9662  10.136  10.023   9.556
 2589SOL     OW 9663  12.263   8.714  12.030
 2589SOL    HW1 9664  12.259   8.805  12.056
 2589SOL    HW2 9665  12.172   8.684  12.029
 2590SOL     OW 9666   5.946  13.927  14.178
 2590SOL    HW1 9667   5.967  13.917  14.085
 2590SOL    HW2 9668   5.895  13.848  14.199
 2591SOL     OW 9669   2.081  12.949  14.551
 2591SOL    HW1 9670   2.038  12.998  14.481
 2591SOL    HW2 9671   2.083  12.859  14.520
 2592SOL     OW 9672   6.071   6.699  10.571
 2592SOL    HW1 9673   5.990   6.727  10.528
 2592SOL    HW2 9674   6.052   6.611  10.604
 2593SOL     OW 9675   4.323  10.620   5.813
 2593SOL    HW1 9676   4.244  10.590   5.769
 2593SOL    HW2 9677   4.321  10.576   5.898
 2594SOL     OW 9678   1.898   5.986   7.899
 2594SOL    HW1 9679   1.938   6.062   7.942
 2594SOL    HW2 9680   1.934   5.988   7.810
 2595SOL     OW 9681  14.632   1.776  11.979
 2595SOL    HW1 9682  14.678   1.764  11.896
 2595SOL    HW2 9683  14.546   1.736  11.964
 2596SOL     OW 9684  13.753   8.956   6.592
 2596SOL    HW1 9685  13.838   8.928   6.559
 2596SOL    HW2 9686  13.692   8.889   6.562
 2597SOL     OW 9687   7.136   8.966   9.911
 2597SOL    HW1 9688   7.228   8.959   9.884
 2597SOL    HW2 9689   7.095   8.886   9.877
 2598SOL     OW 9690  14.548  10.795   7.172
 2598SOL    HW1 9691  14.623  10.738   7.154
 2598SOL    HW2 9692  14.570  10.838   7.254
 2599SOL     OW 9693  14.099  12.311   0.863
 2599SOL    HW1 9694  14.087  12.223   0.899
 2599SOL    HW2 9695  14.029  12.363   0.904
 2600SOL     OW 9696   0.730   3.152   6.591
 2600SOL    HW1 9697   0.754   3.200   6.512
 2600SOL    HW2 9698   0.750   3.061   6.571
 2601SOL     OW 9699  10.125  10.409  11.587
 2601SOL    HW1 9700  10.175  10.438  11.510
 2601SOL    HW2 9701  10.159  10.322  11.605
 2602SOL     OW 9702   8.514   7.355  12.886
 2602SOL    HW1 9703   8.566   7.293  12.938
 2602SOL    HW2 9704   8.547   7.441  12.912
 2603SOL     OW 9705   9.608   1.094   5.742
 2603SOL    HW1 9706   9.619   1.178   5.697
 2603SOL    HW2 9707   9.695   1.055   5.742
 2604SOL     OW 9708   2.379   1.076  12.457
 2604SOL    HW1 9709   2.336   1.161  12.468
 2604SOL    HW2 9710   2.342   1.040  12.377
 2605SOL     OW 9711   6.262   7.348  12.037
 2605SOL    HW1 9712   6.300   7.344  11.950
 2605SOL    HW2 9713   6.178   7.392  12.024
 2606SOL     OW 9714  10.692   0.470   5.424
 2606SOL    HW1 9715  10.690   0.530   5.350
 2606SOL    HW2 9716  10.772   0.418   5.411
 2607SOL     OW 9717   9.668  12.054   6.655
 2607SOL    HW1 9718   9.579  12.040   6.620
 2607SOL    HW2 9719   9.718  11.980   6.620
 2608SOL     OW 9720   1.316  13.248   3.355
 2608SOL    HW1 9721   1.250  13.195   3.399
 2608SOL    HW2 9722   1.270  13.328   3.329
 2609SOL     OW 9723   2.275   8.786  13.163
 2609SOL    HW1 9724   2.194   8.818  13.123
 2609SOL    HW2 9725   2.277   8.826  13.249
 2610SOL     OW 9726   0.418   6.844   5.810
 2610SOL    HW1 9727   0.388   6.825   5.721
 2610SOL    HW2 9728   0.375   6.927   5.832
 2611SOL     OW 9729   5.874   8.137  14.116
 2611SOL    HW1 9730   5.939   8.207  14.114
 2611SOL    HW2 9731   5.810   8.165  14.181
 2612SOL     OW 9732   3.962   8.851  10.650
 2612SOL    HW1 9733   3.992   8.930  10.696
 2612SOL    HW2 9734   3.884   8.880  10.602
 2613SOL     OW 9735   6.940   2.443  13.078
 2613SOL    HW1 9736   6.989   2.390  13.140
 2613SOL    HW2 9737   7.000   2.514  13.055
 2614SOL     OW 9738   0.423   6.650   2.410
 2614SOL    HW1 9739   0.341   6.698   2.398
 2614SOL    HW2 9740   0.489   6.718   2.423
 2615SOL     OW 9741  14.513  11.839   9.199
 2615SOL    HW1 9742  14.438  11.880   9.242
 2615SOL    HW2 9743  14.513  11.877   9.111
 2616SOL     OW 9744  10.792   3.130   9.189
 2616SOL    HW1 9745  10.726   3.084   9.241
 2616SOL    HW2 9746  10.766   3.222   9.193
 2617SOL     OW 9747   7.186   1.253   6.974
 2617SOL    HW1 9748   7.138   1.243   7.056
 2617SOL    HW2 9749   7.248   1.324   6.991
 2618SOL     OW 9750   0.583   2.514  11.959
 2618SOL    HW1 9751   0.528   2.461  11.901
 2618SOL    HW2 9752   0.549   2.603  11.949
 2619SOL     OW 9753   2.293  10.540   5.231
 2619SOL    HW1 9754   2.290  10.616   5.290
 2619SOL    HW2 9755   2.386  10.532   5.208
 2620SOL     OW 9756   5.547   7.693   8.964
 2620SOL    HW1 9757   5.512   7.680   9.052
 2620SOL    HW2 9758   5.639   7.665   8.971
 2621SOL     OW 9759  13.819   2.851   1.854
 2621SOL    HW1 9760  13.889   2.797   1.892
 2621SOL    HW2 9761  13.822   2.831   1.760
 2622SOL     OW 9762  14.245   1.142   2.654
 2622SOL    HW1 9763  14.212   1.099   2.575
 2622SOL    HW2 9764  14.216   1.086   2.725
 2623SOL     OW 9765   7.423  13.650   7.349
 2623SOL    HW1 9766   7.448  13.582   7.286
 2623SOL    HW2 9767   7.334  13.627   7.374
 2624SOL     OW 9768  13.496   9.194   8.118
 2624SOL    HW1 9769  13.510   9.108   8.080
 2624SOL    HW2 9770  13.405   9.193   8.148
 2625SOL     OW 9771   8.104   8.817  10.174
 2625SOL    HW1 9772   8.061   8.874  10.110
 2625SOL    HW2 9773   8.197   8.823  10.153
 2626SOL     OW 9774  14.343   7.432  12.795
 2626SOL    HW1 9775  14.399   7.388  12.730
 2626SOL    HW2 9776  14.373   7.523  12.795
 2627SOL     OW 9777  13.692  14.500   2.567
 2627SOL    HW1 9778  13.609  14.503   2.614
 2627SOL    HW2 9779  13.668  14.475   2.478
 2628SOL     OW 9780   3.751   4.298  12.136
 2628SOL    HW1 9781   3.761   4.365  12.068
 2628SOL    HW2 9782   3.800   4.332  12.211
 2629SOL     OW 9783  13.159   5.458  14.549
 2629SOL    HW1 9784  13.222   5.522  14.514
 2629SOL    HW2 9785  13.106   5.508  14.611
 2630SOL     OW 9786   0.113  13.567  10.271
 2630SOL    HW1 9787   0.078  13.565  10.182
 2630SOL    HW2 9788   0.164  13.648  10.275
 2631SOL     OW 9789   4.268  11.979   4.120
 2631SOL    HW1 9790   4.278  12.016   4.033
 2631SOL    HW2 9791   4.213  12.042   4.167
 2632SOL     OW 9792  12.242   6.145  10.487
 2632SOL    HW1 9793  12.242   6.239  10.505
 2632SOL    HW2 9794  12.319   6.131  10.431
 2633SOL     OW 9795   3.644   9.819   8.409
 2633SOL    HW1 9796   3.628   9.791   8.319
 2633SOL    HW2 9797   3.559   9.809   8.453
 2634SOL     OW 9798   6.240   0.507   0.728
 2634SOL    HW1 9799   6.286   0.576   0.680
 2634SOL    HW2 9800   6.309   0.459   0.774
 2635SOL     OW 9801  14.716   3.601   3.402
 2635SOL    HW1 9802  14.761   3.684   3.390
 2635SOL    HW2 9803  14.741   3.549   3.325
 2636SOL     OW 9804  13.815  13.474   1.212
 2636SOL    HW1 9805  13.783  13.562   1.188
 2636SOL    HW2 9806  13.738  13.430   1.248
 2637SOL     OW 9807   0.587   8.613  12.736
 2637SOL    HW1 9808   0.647   8.637  12.665
 2637SOL    HW2 9809   0.576   8.694  12.785
 2638SOL     OW 9810   2.904   7.384   7.323
 2638SOL    HW1 9811   2.983   7.400   7.270
 2638SOL    HW2 9812   2.875   7.472   7.348
 2639SOL     OW 9813   7.864   7.831   9.596
 2639SOL    HW1 9814   7.957   7.834   9.614
 2639SOL    HW2 9815   7.855   7.869   9.508
 2640SOL     OW 9816   3.649   3.776   3.104
 2640SOL    HW1 9817   3.564   3.762   3.063
 2640SOL    HW2 9818   3.635   3.845   3.168
 2641SOL     OW 9819   3.903   4.584   7.254
 2641SOL    HW1 9820   3.828   4.592   7.194
 2641SOL    HW2 9821   3.976   4.559   7.197
 2642SOL     OW 9822   5.271   8.162  11.106
 2642SOL    HW1 9823   5.219   8.243  11.109
 2642SOL    HW2 9824   5.222   8.105  11.047
 2643SOL     OW 9825   2.579   0.321  12.195
 2643SOL    HW1 9826   2.531   0.281  12.267
 2643SOL    HW2 9827   2.606   0.248  12.140
 2644SOL     OW 9828   1.196  11.619   7.781
 2644SOL    HW1 9829   1.127  11.560   7.749
 2644SOL    HW2 9830   1.277  11.580   7.748
 2645SOL     OW 9831  10.620   8.618   3.790
 2645SOL    HW1 9832  10.665   8.545   3.747
 2645SOL    HW2 9833  10.618   8.594   3.883
 2646SOL     OW 9834   6.543  11.166  11.132
 2646SOL    HW1 9835   6.614  11.186  11.193
 2646SOL    HW2 9836   6.539  11.070  11.131
 2647SOL     OW 9837   0.858   6.665   8.743
 2647SOL    HW1 9838   0.844   6.571   8.746
 2647SOL    HW2 9839   0.771   6.703   8.751
 2648SOL     OW 9840  11.885   0.867   6.781
 2648SOL    HW1 9841  11.933   0.795   6.739
 2648SOL    HW2 9842  11.834   0.906   6.710
 2649SOL     OW 9843   9.724   2.773  11.581
 2649SOL    HW1 9844   9.761   2.850  11.538
 2649SOL    HW2 9845   9.630   2.789  11.580
 2650SOL     OW 9846  13.150   7.002   6.108
 2650SOL    HW1 9847  13.179   6.913   6.127
 2650SOL    HW2 9848  13.229   7.048   6.081
 2651SOL     OW 9849  10.947   1.630  13.276
 2651SOL    HW1 9850  10.887   1.641  13.350
 2651SOL    HW2 9851  10.965   1.536  13.273
 2652SOL     OW 9852   6.509  12.315  13.607
 2652SOL    HW1 9853   6.502  12.221  13.589
 2652SOL    HW2 9854   6.551  12.351  13.530
 2653SOL     OW 9855   5.482   5.236   8.706
 2653SOL    HW1 9856   5.508   5.232   8.798
 2653SOL    HW2 9857   5.565   5.230   8.657
 2654SOL     OW 9858   7.260  11.621   9.643
 2654SOL    HW1 9859   7.343  11.589   9.678
 2654SOL    HW2 9860   7.250  11.576   9.559
 2655SOL     OW 9861   0.843   6.854   4.348
 2655SOL    HW1 9862   0.784   6.783   4.373
 2655SOL    HW2 9863   0.785   6.929   4.333
 2656SOL     OW 9864   2.450  10.278  14.457
 2656SOL    HW1 9865   2.476  10.204  14.401
 2656SOL    HW2 9866   2.456  10.244  14.546
 2657SOL     OW 9867   5.576  10.510  10.677
 2657SOL    HW1 9868   5.663  10.493  10.712
 2657SOL    HW2 9869   5.582  10.483  10.585
 2658SOL     OW 9870  13.267  14.223  12.747
 2658SOL    HW1 9871  13.176  14.213  12.720
 2658SOL    HW2 9872  13.268  14.197  12.839
 2659SOL     OW 9873   6.736  11.082   0.396
 2659SOL    HW1 9874   6.749  11.006   0.453
 2659SOL    HW2 9875   6.816  11.133   0.405
 2660SOL     OW 9876   8.746   2.753   0.822
 2660SOL    HW1 9877   8.673   2.692   0.807
 2660SOL    HW2 9878   8.757   2.753   0.917
 2661SOL     OW 9879   1.917  12.037   5.657
 2661SOL    HW1 9880   1.951  12.118   5.696
 2661SOL    HW2 9881   1.883  11.987   5.732
 2662SOL     OW 9882   9.531  14.014   9.694
 2662SOL    HW1 9883   9.574  14.065   9.626
 2662SOL    HW2 9884   9.578  14.036   9.774
 2663SOL     OW 9885   3.763   0.832   0.504
 2663SOL    HW1 9886   3.808   0.802   0.425
 2663SOL    HW2 9887   3.758   0.927   0.493
 2664SOL     OW 9888  14.184  11.601   5.828
 2664SOL    HW1 9889  14.101  11.637   5.797
 2664SOL    HW2 9890  14.199  11.644   5.912
 2665SOL     OW 9891   3.294   6.088  10.410
 2665SOL    HW1 9892   3.344   6.166  10.383
 2665SOL    HW2 9893   3.334   6.016  10.361
 2666SOL     OW 9894   8.901   0.134   9.481
 2666SOL    HW1 9895   8.849   0.054   9.490
 2666SOL    HW2 9896   8.989   0.109   9.509
 2667SOL     OW 9897   1.016   1.393   7.932
 2667SOL    HW1 9898   0.946   1.329   7.932
 2667SOL    HW2 9899   1.053   1.389   8.021
 2668SOL     OW 9900   0.820  10.241  12.922
 2668SOL    HW1 9901   0.822  10.163  12.866
 2668SOL    HW2 9902   0.748  10.223  12.983
 2669SOL     OW 9903   3.953   7.883   9.878
 2669SOL    HW1 9904   3.968   7.873   9.783
 2669SOL    HW2 9905   3.994   7.806   9.917
 2670SOL     OW 9906   4.645   6.512   5.837
 2670SOL    HW1 9907   4.714   6.446   5.842
 2670SOL    HW2 9908   4.563   6.462   5.837
 2671SOL     OW 9909   9.619   2.450  12.203
 2671SOL    HW1 9910   9.675   2.526  12.187
 2671SOL    HW2 9911   9.551   2.456  12.136
 2672SOL     OW 9912   1.531   5.252   5.709
 2672SOL    HW1 9913   1.445   5.272   5.672
 2672SOL    HW2 9914   1.535   5.156   5.707
 2673SOL     OW 9915  12.186   8.171   9.380
 2673SOL    HW1 9916  12.223   8.203   9.462
 2673SOL    HW2 9917  12.217   8.232   9.314
 2674SOL     OW 9918   4.885   6.191   9.880
 2674SOL    HW1 9919   4.824   6.151   9.817
 2674SOL    HW2 9920   4.885   6.284   9.858
 2675SOL     OW 9921  12.061   3.557   2.396
 2675SOL    HW1 9922  12.105   3.597   2.471
 2675SOL    HW2 9923  12.011   3.485   2.434
 2676SOL     OW 9924  14.535   6.742  14.576
 2676SOL    HW1 9925  14.545   6.837  14.572
 2676SOL    HW2 9926  14.558   6.711  14.488
 2677SOL     OW 9927  11.347   0.873   4.454
 2677SOL    HW1 9928  11.299   0.833   4.526
 2677SOL    HW2 9929  11.439   0.863   4.479
 2678SOL     OW 9930   7.669   3.509  10.846
 2678SOL    HW1 9931   7.709   3.424  10.865
 2678SOL    HW2 9932   7.665   3.513  10.750
 2679SOL     OW 9933   5.578   4.422   9.300
 2679SOL    HW1 9934   5.547   4.486   9.365
 2679SOL    HW2 9935   5.522   4.345   9.314
 2680SOL     OW 9936  12.923   8.381   7.067
 2680SOL    HW1 9937  12.898   8.448   7.131
 2680SOL    HW2 9938  12.927   8.300   7.119
 2681SOL     OW 9939   8.286   3.095   4.673
 2681SOL    HW1 9940   8.327   3.058   4.594
 2681SOL    HW2 9941   8.360   3.113   4.731
 2682SOL     OW 9942   9.718   4.791   5.456
 2682SOL    HW1 9943   9.701   4.699   5.439
 2682SOL    HW2 9944   9.632   4.831   5.463
 2683SOL     OW 9945   0.354   5.416   0.837
 2683SOL    HW1 9946   0.445   5.385   0.839
 2683SOL    HW2 9947   0.306   5.347   0.791
 2684SOL     OW 9948   5.061   5.570  12.032
 2684SOL    HW1 9949   5.138   5.628  12.035
 2684SOL    HW2 9950   5.076   5.515  11.955
 2685SOL     OW 9951  11.485   3.674   1.633
 2685SOL    HW1 9952  11.436   3.651   1.554
 2685SOL    HW2 9953  11.558   3.612   1.635
 2686SOL     OW 9954   0.650   1.671   3.920
 2686SOL    HW1 9955   0.639   1.732   3.848
 2686SOL    HW2 9956   0.576   1.611   3.912
 2687SOL     OW 9957   8.226  10.944  10.128
 2687SOL    HW1 9958   8.184  10.875  10.179
 2687SOL    HW2 9959   8.320  10.924  10.133
 2688SOL     OW 9960   7.851   1.130  11.103
 2688SOL    HW1 9961   7.891   1.214  11.079
 2688SOL    HW2 9962   7.917   1.087  11.158
 2689SOL     OW 9963   7.924  11.369  13.872
 2689SOL    HW1 9964   7.876  11.344  13.952
 2689SOL    HW2 9965   7.990  11.301  13.862
 2690SOL     OW 9966  14.788   9.054   3.802
 2690SOL    HW1 9967  14.726   8.982   3.795
 2690SOL    HW2 9968  14.839   9.033   3.881
 2691SOL     OW 9969   7.089   0.385   2.819
 2691SOL    HW1 9970   7.041   0.346   2.893
 2691SOL    HW2 9971   7.085   0.319   2.750
 2692SOL     OW 9972  12.230   1.101   1.087
 2692SOL    HW1 9973  12.200   1.103   0.997
 2692SOL    HW2 9974  12.185   1.175   1.129
 2693SOL     OW 9975  13.288   6.409  12.949
 2693SOL    HW1 9976  13.205   6.405  12.901
 2693SOL    HW2 9977  13.261   6.403  13.041
 2694SOL     OW 9978   7.293   3.113  11.141
 2694SOL    HW1 9979   7.338   3.169  11.204
 2694SOL    HW2 9980   7.203   3.105  11.175
 2695SOL     OW 9981   0.477   7.496  11.374
 2695SOL    HW1 9982   0.472   7.555  11.450
 2695SOL    HW2 9983   0.387   7.492  11.341
 2696SOL     OW 9984  12.743   3.455   7.568
 2696SOL    HW1 9985  12.689   3.523   7.609
 2696SOL    HW2 9986  12.817   3.444   7.628
 2697SOL     OW 9987   8.798  11.051   2.879
 2697SOL    HW1 9988   8.886  11.039   2.914
 2697SOL    HW2 9989   8.741  11.053   2.956
 2698SOL     OW 9990   1.079  12.168   0.746
 2698SOL    HW1 9991   1.173  12.155   0.740
 2698SOL    HW2 9992   1.059  12.158   0.839
 2699SOL     OW 9993   5.333   9.685   9.697
 2699SOL    HW1 9994   5.319   9.594   9.723
 2699SOL    HW2 9995   5.267   9.703   9.631
 2700SOL     OW 9996  11.384   2.259   6.562
 2700SOL    HW1 9997  11.471   2.299   6.560
 2700SOL    HW2 9998  11.402   2.165   6.568
 2701SOL     OW 9999   2.736  11.145  14.554
 2701SOL    HW110000   2.787  11.204  14.498
 2701SOL    HW210001   2.771  11.158  14.642
 2702SOL     OW10002   8.798  14.013   7.910
 2702SOL    HW110003   8.887  13.981   7.913
 2702SOL    HW210004   8.744  13.935   7.901
 2703SOL     OW10005   3.576   0.767   6.645
 2703SOL    HW110006   3.551   0.850   6.607
 2703SOL    HW210007   3.622   0.720   6.575
 2704SOL     OW10008   4.437  11.287   6.810
 2704SOL    HW110009   4.461  11.377   6.835
 2704SOL    HW210010   4.492  11.268   6.733
 2705SOL     OW10011  11.545  10.986  14.263
 2705SOL    HW110012  11.546  11.078  14.290
 2705SOL    HW210013  11.554  10.989  14.168
 2706SOL     OW10014  14.228   9.017   5.674
 2706SOL    HW110015  14.147   8.969   5.692
 2706SOL    HW210016  14.200   9.093   5.623
 2707SOL     OW10017  13.813  13.385   3.055
 2707SOL    HW110018  13.891  13.332   3.038
 2707SOL    HW210019  13.810  13.446   2.982
 2708SOL     OW10020   6.009   4.746  11.535
 2708SOL    HW110021   5.944   4.753  11.465
 2708SOL    HW210022   6.084   4.702  11.495
 2709SOL     OW10023  12.474  14.074   2.242
 2709SOL    HW110024  12.539  14.029   2.297
 2709SOL    HW210025  12.456  14.156   2.287
 2710SOL     OW10026  10.500   0.385   3.474
 2710SOL    HW110027  10.583   0.432   3.463
 2710SOL    HW210028  10.443   0.447   3.518
 2711SOL     OW10029  14.204   9.374  13.482
 2711SOL    HW110030  14.140   9.307  13.457
 2711SOL    HW210031  14.177   9.399  13.571
 2712SOL     OW10032   9.900  11.878   5.710
 2712SOL    HW110033   9.870  11.792   5.681
 2712SOL    HW210034   9.977  11.860   5.764
 2713SOL     OW10035  10.332   7.762   0.263
 2713SOL    HW110036  10.375   7.699   0.205
 2713SOL    HW210037  10.240   7.759   0.238
 2714SOL     OW10038  10.453  11.582  12.624
 2714SOL    HW110039  10.393  11.657  12.623
 2714SOL    HW210040  10.530  11.613  12.576
 2715SOL     OW10041   1.076  11.251  11.151
 2715SOL    HW110042   1.050  11.196  11.224
 2715SOL    HW210043   1.145  11.202  11.107
 2716SOL     OW10044  13.579  13.733   1.848
 2716SOL    HW110045  13.502  13.730   1.790
 2716SOL    HW210046  13.653  13.746   1.789
 2717SOL     OW10047   3.092   3.187   2.010
 2717SOL    HW110048   3.149   3.207   2.084
 2717SOL    HW210049   3.006   3.216   2.038
 2718SOL     OW10050   6.412   5.742   6.259
 2718SOL    HW110051   6.408   5.658   6.306
 2718SOL    HW210052   6.500   5.743   6.220
 2719SOL     OW10053   1.321  10.074   9.462
 2719SOL    HW110054   1.384  10.132   9.507
 2719SOL    HW210055   1.290  10.015   9.531
 2720SOL     OW10056  13.710   0.714  12.401
 2720SOL    HW110057  13.735   0.803  12.428
 2720SOL    HW210058  13.751   0.657  12.465
 2721SOL     OW10059   0.569   8.405   4.799
 2721SOL    HW110060   0.498   8.468   4.789
 2721SOL    HW210061   0.544   8.331   4.745
 2722SOL     OW10062  14.008   1.795   8.943
 2722SOL    HW110063  14.063   1.863   8.904
 2722SOL    HW210064  14.030   1.716   8.893
 2723SOL     OW10065   0.155  10.774   4.098
 2723SOL    HW110066   0.156  10.817   4.013
 2723SOL    HW210067   0.210  10.696   4.087
 2724SOL     OW10068  14.428  14.082   9.338
 2724SOL    HW110069  14.355  14.056   9.394
 2724SOL    HW210070  14.413  14.038   9.255
 2725SOL     OW10071   9.405   8.980   0.459
 2725SOL    HW110072   9.477   8.929   0.495
 2725SOL    HW210073   9.327   8.927   0.478
 2726SOL     OW10074   8.987  12.652  14.718
 2726SOL    HW110075   8.939  12.571  14.735
 2726SOL    HW210076   8.925  12.708  14.671
 2727SOL     OW10077   2.739   8.793   5.096
 2727SOL    HW110078   2.691   8.720   5.056
 2727SOL    HW210079   2.827   8.760   5.109
 2728SOL     OW10080   9.131   9.160  14.436
 2728SOL    HW110081   9.061   9.183  14.496
 2728SOL    HW210082   9.088   9.151  14.351
 2729SOL     OW10083   3.355  10.848   7.831
 2729SOL    HW110084   3.312  10.833   7.747
 2729SOL    HW210085   3.324  10.777   7.887
 2730SOL     OW10086  14.586   2.383   3.764
 2730SOL    HW110087  14.669   2.336   3.772
 2730SOL    HW210088  14.611   2.471   3.736
 2731SOL     OW10089   5.800   9.408  13.838
 2731SOL    HW110090   5.811   9.486  13.891
 2731SOL    HW210091   5.726   9.362  13.877
 2732SOL     OW10092   4.327   9.266   9.918
 2732SOL    HW110093   4.274   9.209   9.974
 2732SOL    HW210094   4.378   9.319   9.979
 2733SOL     OW10095  10.971  14.147   5.331
 2733SOL    HW110096  10.894  14.190   5.296
 2733SOL    HW210097  10.942  14.059   5.352
 2734SOL     OW10098  10.968  11.974  13.719
 2734SOL    HW110099  11.060  12.000  13.730
 2734SOL    HW210100  10.924  12.008  13.797
 2735SOL     OW10101  14.771  11.184   1.565
 2735SOL    HW110102  14.816  11.236   1.499
 2735SOL    HW210103  14.678  11.198   1.548
 2736SOL     OW10104  14.712   3.743  10.853
 2736SOL    HW110105  14.775   3.758  10.783
 2736SOL    HW210106  14.681   3.831  10.876
 2737SOL     OW10107  14.065   9.338  10.766
 2737SOL    HW110108  13.989   9.289  10.734
 2737SOL    HW210109  14.127   9.271  10.793
 2738SOL     OW10110   1.462   4.390  13.624
 2738SOL    HW110111   1.481   4.331  13.696
 2738SOL    HW210112   1.453   4.476  13.665
 2739SOL     OW10113   9.062   7.841   1.863
 2739SOL    HW110114   8.987   7.812   1.811
 2739SOL    HW210115   9.121   7.766   1.865
 2740SOL     OW10116   6.964   7.825  12.601
 2740SOL    HW110117   7.021   7.787  12.668
 2740SOL    HW210118   6.983   7.775  12.521
 2741SOL     OW10119   8.527   7.275  11.824
 2741SOL    HW110120   8.587   7.346  11.802
 2741SOL    HW210121   8.451   7.290  11.769
 2742SOL     OW10122   5.123   9.639   5.720
 2742SOL    HW110123   5.058   9.585   5.764
 2742SOL    HW210124   5.101   9.632   5.627
 2743SOL     OW10125  14.416   9.163  12.876
 2743SOL    HW110126  14.485   9.209  12.924
 2743SOL    HW210127  14.352   9.230  12.856
 2744SOL     OW10128   2.369   1.609   1.592
 2744SOL    HW110129   2.396   1.519   1.579
 2744SOL    HW210130   2.380   1.650   1.506
 2745SOL     OW10131   2.296   5.297   5.781
 2745SOL    HW110132   2.227   5.280   5.846
 2745SOL    HW210133   2.251   5.340   5.709
 2746SOL     OW10134   7.860  14.106   9.414
 2746SOL    HW110135   7.875  14.189   9.370
 2746SOL    HW210136   7.825  14.130   9.500
 2747SOL     OW10137   3.401   3.663   4.817
 2747SOL    HW110138   3.468   3.731   4.831
 2747SOL    HW210139   3.435   3.586   4.863
 2748SOL     OW10140   8.376   9.331   1.339
 2748SOL    HW110141   8.374   9.249   1.290
 2748SOL    HW210142   8.420   9.393   1.281
 2749SOL     OW10143  12.536   9.919   7.861
 2749SOL    HW110144  12.499   9.995   7.905
 2749SOL    HW210145  12.629   9.921   7.883
 2750SOL     OW10146   2.908   7.656  13.170
 2750SOL    HW110147   2.941   7.743  13.192
 2750SOL    HW210148   2.832   7.672  13.115
 2751SOL     OW10149   5.780  11.526   5.949
 2751SOL    HW110150   5.784  11.442   5.903
 2751SOL    HW210151   5.871  11.542   5.977
 2752SOL     OW10152   2.526   0.787   6.403
 2752SOL    HW110153   2.459   0.727   6.370
 2752SOL    HW210154   2.538   0.761   6.494
 2753SOL     OW10155  14.482  12.387  11.397
 2753SOL    HW110156  14.543  12.420  11.463
 2753SOL    HW210157  14.522  12.305  11.367
 2754SOL     OW10158   1.537   0.038   5.882
 2754SOL    HW110159   1.537   0.039   5.977
 2754SOL    HW210160   1.461  14.859   5.858
 2755SOL     OW10161  11.898  12.625  10.979
 2755SOL    HW110162  11.830  12.558  10.985
 2755SOL    HW210163  11.884  12.681  11.055
 2756SOL     OW10164   4.038   9.859   3.623
 2756SOL    HW110165   3.993   9.932   3.581
 2756SOL    HW210166   4.004   9.857   3.712
 2757SOL     OW10167   5.425  13.639   7.571
 2757SOL    HW110168   5.404  13.574   7.638
 2757SOL    HW210169   5.421  13.591   7.488
 2758SOL     OW10170   7.784  11.959  12.875
 2758SOL    HW110171   7.805  11.933  12.965
 2758SOL    HW210172   7.688  11.965  12.875
 2759SOL     OW10173  13.754  13.254  11.369
 2759SOL    HW110174  13.822  13.315  11.400
 2759SOL    HW210175  13.720  13.294  11.290
 2760SOL     OW10176   7.252   0.889   8.559
 2760SOL    HW110177   7.168   0.859   8.524
 2760SOL    HW210178   7.318   0.846   8.503
 2761SOL     OW10179  10.789  10.583   1.155
 2761SOL    HW110180  10.834  10.602   1.073
 2761SOL    HW210181  10.776  10.488   1.153
 2762SOL     OW10182   3.450   9.895  10.604
 2762SOL    HW110183   3.544   9.903  10.616
 2762SOL    HW210184   3.440   9.838  10.527
 2763SOL     OW10185  14.199   1.323   5.962
 2763SOL    HW110186  14.259   1.268   6.013
 2763SOL    HW210187  14.168   1.266   5.892
 2764SOL     OW10188   3.845   7.498   0.027
 2764SOL    HW110189   3.795   7.426  14.863
 2764SOL    HW210190   3.924   7.456   0.062
 2765SOL     OW10191  10.361   8.952  10.083
 2765SOL    HW110192  10.336   8.944   9.991
 2765SOL    HW210193  10.437   8.894  10.091
 2766SOL     OW10194  11.377  13.157   3.406
 2766SOL    HW110195  11.417  13.155   3.319
 2766SOL    HW210196  11.310  13.089   3.403
 2767SOL     OW10197  13.128   9.276   2.568
 2767SOL    HW110198  13.134   9.185   2.598
 2767SOL    HW210199  13.146   9.329   2.646
 2768SOL     OW10200   5.978   9.829  12.663
 2768SOL    HW110201   5.940   9.889  12.728
 2768SOL    HW210202   5.920   9.753  12.664
 2769SOL     OW10203   3.129  10.895   1.620
 2769SOL    HW110204   3.206  10.843   1.645
 2769SOL    HW210205   3.082  10.840   1.557
 2770SOL     OW10206   4.584  12.614   8.123
 2770SOL    HW110207   4.655  12.658   8.170
 2770SOL    HW210208   4.628  12.556   8.061
 2771SOL     OW10209   5.484   0.563   4.951
 2771SOL    HW110210   5.411   0.533   4.898
 2771SOL    HW210211   5.560   0.515   4.917
 2772SOL     OW10212  13.205   6.864   0.849
 2772SOL    HW110213  13.255   6.919   0.910
 2772SOL    HW210214  13.270   6.805   0.811
 2773SOL     OW10215   4.927   9.428   1.542
 2773SOL    HW110216   4.915   9.497   1.607
 2773SOL    HW210217   4.837   9.402   1.518
 2774SOL     OW10218  11.689   2.863   1.676
 2774SOL    HW110219  11.603   2.899   1.697
 2774SOL    HW210220  11.697   2.786   1.733
 2775SOL     OW10221   5.675   1.769  10.399
 2775SOL    HW110222   5.627   1.692  10.369
 2775SOL    HW210223   5.619   1.808  10.466
 2776SOL     OW10224   4.373  12.247   2.000
 2776SOL    HW110225   4.350  12.207   1.916
 2776SOL    HW210226   4.457  12.207   2.022
 2777SOL     OW10227   5.696  12.877  11.942
 2777SOL    HW110228   5.609  12.840  11.925
 2777SOL    HW210229   5.748  12.853  11.866
 2778SOL     OW10230   2.064   0.283   5.475
 2778SOL    HW110231   2.012   0.254   5.550
 2778SOL    HW210232   2.140   0.225   5.474
 2779SOL     OW10233  12.357   3.936   4.890
 2779SOL    HW110234  12.296   3.889   4.947
 2779SOL    HW210235  12.313   4.018   4.870
 2780SOL     OW10236  11.507  11.334  12.193
 2780SOL    HW110237  11.451  11.412  12.193
 2780SOL    HW210238  11.486  11.289  12.111
 2781SOL     OW10239   1.289   5.876   9.556
 2781SOL    HW110240   1.233   5.802   9.532
 2781SOL    HW210241   1.339   5.894   9.477
 2782SOL     OW10242  13.439   7.785  11.986
 2782SOL    HW110243  13.370   7.745  11.932
 2782SOL    HW210244  13.395   7.808  12.068
 2783SOL     OW10245   2.763   0.694   2.234
 2783SOL    HW110246   2.817   0.726   2.161
 2783SOL    HW210247   2.782   0.755   2.306
 2784SOL     OW10248   1.244  13.541   1.713
 2784SOL    HW110249   1.338  13.558   1.714
 2784SOL    HW210250   1.220  13.543   1.620
 2785SOL     OW10251   1.604  12.923   6.671
 2785SOL    HW110252   1.697  12.946   6.674
 2785SOL    HW210253   1.592  12.861   6.743
 2786SOL     OW10254  11.426  11.773  13.833
 2786SOL    HW110255  11.516  11.780  13.802
 2786SOL    HW210256  11.414  11.849  13.890
 2787SOL     OW10257   3.422  14.407  10.180
 2787SOL    HW110258   3.396  14.423  10.089
 2787SOL    HW210259   3.413  14.492  10.223
 2788SOL     OW10260   4.525   6.288   5.402
 2788SOL    HW110261   4.502   6.249   5.487
 2788SOL    HW210262   4.609   6.249   5.380
 2789SOL     OW10263   0.473   6.060   9.049
 2789SOL    HW110264   0.528   6.009   8.989
 2789SOL    HW210265   0.535   6.100   9.110
 2790SOL     OW10266   0.024   2.261   3.332
 2790SOL    HW110267   0.089   2.204   3.373
 2790SOL    HW210268  14.838   2.201   3.288
 2791SOL     OW10269   3.731   5.081   7.018
 2791SOL    HW110270   3.779   5.136   7.079
 2791SOL    HW210271   3.727   4.995   7.061
 2792SOL     OW10272   2.326   2.696   4.552
 2792SOL    HW110273   2.358   2.670   4.466
 2792SOL    HW210274   2.398   2.675   4.612
 2793SOL     OW10275  11.671   3.430   8.633
 2793SOL    HW110276  11.698   3.406   8.722
 2793SOL    HW210277  11.745   3.405   8.578
 2794SOL     OW10278   7.336  10.291   6.487
 2794SOL    HW110279   7.367  10.203   6.510
 2794SOL    HW210280   7.409  10.348   6.508
 2795SOL     OW10281   2.039   6.697   1.862
 2795SOL    HW110282   2.133   6.709   1.876
 2795SOL    HW210283   1.998   6.729   1.942
 2796SOL     OW10284   6.107  10.659   7.581
 2796SOL    HW110285   6.155  10.584   7.546
 2796SOL    HW210286   6.125  10.730   7.520
 2797SOL     OW10287   4.813  13.751  11.376
 2797SOL    HW110288   4.895  13.706  11.354
 2797SOL    HW210289   4.778  13.702  11.449
 2798SOL     OW10290  11.801   7.151  11.997
 2798SOL    HW110291  11.805   7.120  12.087
 2798SOL    HW210292  11.885   7.193  11.982
 2799SOL     OW10293   7.930   3.269   3.354
 2799SOL    HW110294   7.866   3.321   3.306
 2799SOL    HW210295   7.878   3.198   3.393
 2800SOL     OW10296   6.139   7.194   4.950
 2800SOL    HW110297   6.150   7.209   5.044
 2800SOL    HW210298   6.160   7.101   4.938
 2801SOL     OW10299  10.498   7.659   2.924
 2801SOL    HW110300  10.436   7.618   2.864
 2801SOL    HW210301  10.584   7.632   2.891
 2802SOL     OW10302  12.789   3.521   8.250
 2802SOL    HW110303  12.870   3.540   8.202
 2802SOL    HW210304  12.796   3.571   8.330
 2803SOL     OW10305   9.091   4.613   3.159
 2803SOL    HW110306   9.043   4.692   3.182
 2803SOL    HW210307   9.181   4.644   3.143
 2804SOL     OW10308   6.798  12.635   6.525
 2804SOL    HW110309   6.758  12.622   6.439
 2804SOL    HW210310   6.741  12.699   6.568
 2805SOL     OW10311   7.734   9.979  13.482
 2805SOL    HW110312   7.748   9.974  13.577
 2805SOL    HW210313   7.791  10.051  13.453
 2806SOL     OW10314  14.442   7.414   4.724
 2806SOL    HW110315  14.476   7.433   4.812
 2806SOL    HW210316  14.365   7.471   4.716
 2807SOL     OW10317  10.438  10.042   5.117
 2807SOL    HW110318  10.519  10.092   5.114
 2807SOL    HW210319  10.380  10.087   5.054
 2808SOL     OW10320   2.466   5.141   0.090
 2808SOL    HW110321   2.443   5.079   0.159
 2808SOL    HW210322   2.458   5.091   0.009
 2809SOL     OW10323  14.117   8.559   3.537
 2809SOL    HW110324  14.130   8.566   3.632
 2809SOL    HW210325  14.047   8.621   3.518
 2810SOL     OW10326  10.510   0.740   3.671
 2810SOL    HW110327  10.568   0.667   3.696
 2810SOL    HW210328  10.538   0.813   3.726
 2811SOL     OW10329   4.130  11.269  11.514
 2811SOL    HW110330   4.073  11.308  11.580
 2811SOL    HW210331   4.127  11.330  11.440
 2812SOL     OW10332  11.019   2.715   5.874
 2812SOL    HW110333  11.000   2.630   5.915
 2812SOL    HW210334  10.941   2.768   5.890
 2813SOL     OW10335  11.586  12.863   7.991
 2813SOL    HW110336  11.497  12.889   8.012
 2813SOL    HW210337  11.640  12.900   8.060
 2814SOL     OW10338   2.877   3.087   5.770
 2814SOL    HW110339   2.894   2.999   5.804
 2814SOL    HW210340   2.932   3.145   5.823
 2815SOL     OW10341  11.622   7.170   1.525
 2815SOL    HW110342  11.597   7.236   1.460
 2815SOL    HW210343  11.670   7.219   1.592
 2816SOL     OW10344   6.373   9.678   2.868
 2816SOL    HW110345   6.315   9.731   2.814
 2816SOL    HW210346   6.343   9.588   2.853
 2817SOL     OW10347  14.390  10.045  11.680
 2817SOL    HW110348  14.457  10.104  11.715
 2817SOL    HW210349  14.309  10.095  11.684
 2818SOL     OW10350   6.736  11.990   2.414
 2818SOL    HW110351   6.706  11.911   2.368
 2818SOL    HW210352   6.702  11.979   2.503
 2819SOL     OW10353   6.465  11.792   9.168
 2819SOL    HW110354   6.538  11.795   9.106
 2819SOL    HW210355   6.394  11.840   9.124
 2820SOL     OW10356  12.684   6.108  12.855
 2820SOL    HW110357  12.618   6.107  12.924
 2820SOL    HW210358  12.638   6.077  12.777
 2821SOL     OW10359   5.517   3.606   3.547
 2821SOL    HW110360   5.593   3.628   3.600
 2821SOL    HW210361   5.527   3.657   3.467
 2822SOL     OW10362   8.101   3.119  11.854
 2822SOL    HW110363   8.102   3.087  11.944
 2822SOL    HW210364   8.194   3.135  11.833
 2823SOL     OW10365  11.605   2.763  11.425
 2823SOL    HW110366  11.560   2.681  11.444
 2823SOL    HW210367  11.589   2.817  11.503
 2824SOL     OW10368   5.829  10.735   4.743
 2824SOL    HW110369   5.766  10.798   4.778
 2824SOL    HW210370   5.804  10.652   4.782
 2825SOL     OW10371   5.224  10.520   7.329
 2825SOL    HW110372   5.256  10.489   7.414
 2825SOL    HW210373   5.225  10.616   7.337
 2826SOL     OW10374   8.936   3.621  13.976
 2826SOL    HW110375   8.867   3.568  14.018
 2826SOL    HW210376   8.993   3.647  14.048
 2827SOL     OW10377   9.364   1.050   7.754
 2827SOL    HW110378   9.330   1.129   7.710
 2827SOL    HW210379   9.299   1.030   7.820
 2828SOL     OW10380  13.938  12.738   8.384
 2828SOL    HW110381  13.880  12.717   8.310
 2828SOL    HW210382  13.912  12.678   8.453
 2829SOL     OW10383  11.802   3.553   4.069
 2829SOL    HW110384  11.806   3.517   3.981
 2829SOL    HW210385  11.730   3.506   4.111
 2830SOL     OW10386   5.680  14.163   6.201
 2830SOL    HW110387   5.655  14.253   6.224
 2830SOL    HW210388   5.597  14.115   6.200
 2831SOL     OW10389   9.901   0.462   0.321
 2831SOL    HW110390   9.931   0.372   0.310
 2831SOL    HW210391   9.895   0.497   0.232
 2832SOL     OW10392   9.401   2.715   6.188
 2832SOL    HW110393   9.392   2.810   6.180
 2832SOL    HW210394   9.315   2.686   6.219
 2833SOL     OW10395   2.295   5.562   5.560
 2833SOL    HW110396   2.320   5.616   5.635
 2833SOL    HW210397   2.316   5.615   5.483
 2834SOL     OW10398   8.150   4.136   7.114
 2834SOL    HW110399   8.092   4.204   7.149
 2834SOL    HW210400   8.170   4.166   7.025
 2835SOL     OW10401   5.069   5.521  14.258
 2835SOL    HW110402   5.074   5.538  14.164
 2835SOL    HW210403   4.992   5.571  14.287
 2836SOL     OW10404   4.336  10.884   0.723
 2836SOL    HW110405   4.349  10.939   0.800
 2836SOL    HW210406   4.420  10.888   0.677
 2837SOL     OW10407   7.559   5.772  11.893
 2837SOL    HW110408   7.482   5.823  11.868
 2837SOL    HW210409   7.615   5.771  11.815
 2838SOL     OW10410  14.767   3.157   4.438
 2838SOL    HW110411  14.686   3.120   4.404
 2838SOL    HW210412  14.808   3.200   4.363
 2839SOL     OW10413   0.769   2.702  11.788
 2839SOL    HW110414   0.682   2.730  11.758
 2839SOL    HW210415   0.797   2.638  11.722
 2840SOL     OW10416   0.912   3.003  13.387
 2840SOL    HW110417   0.964   2.963  13.456
 2840SOL    HW210418   0.859   3.070  13.432
 2841SOL     OW10419   9.387   1.417   6.759
 2841SOL    HW110420   9.414   1.326   6.770
 2841SOL    HW210421   9.431   1.445   6.678
 2842SOL     OW10422   9.036  13.905   1.793
 2842SOL    HW110423   9.027  13.862   1.708
 2842SOL    HW210424   9.118  13.955   1.786
 2843SOL     OW10425   9.921  14.394   6.431
 2843SOL    HW110426   9.937  14.460   6.364
 2843SOL    HW210427  10.008  14.369   6.461
 2844SOL     OW10428   1.292  13.315   7.460
 2844SOL    HW110429   1.237  13.241   7.483
 2844SOL    HW210430   1.374  13.275   7.430
 2845SOL     OW10431   8.321   3.498  10.589
 2845SOL    HW110432   8.304   3.417  10.636
 2845SOL    HW210433   8.281   3.566  10.643
 2846SOL     OW10434  11.864   8.950   3.338
 2846SOL    HW110435  11.808   9.018   3.299
 2846SOL    HW210436  11.828   8.868   3.303
 2847SOL     OW10437   0.667   5.984  11.242
 2847SOL    HW110438   0.756   6.020  11.240
 2847SOL    HW210439   0.623   6.032  11.312
 2848SOL     OW10440   4.745  12.852  13.429
 2848SOL    HW110441   4.665  12.847  13.481
 2848SOL    HW210442   4.789  12.932  13.459
 2849SOL     OW10443  11.971  11.111  11.938
 2849SOL    HW110444  12.017  11.108  12.022
 2849SOL    HW210445  11.893  11.163  11.956
 2850SOL     OW10446   9.899   5.896   5.362
 2850SOL    HW110447   9.938   5.826   5.414
 2850SOL    HW210448   9.895   5.971   5.421
 2851SOL     OW10449   4.736  11.183  12.005
 2851SOL    HW110450   4.657  11.215  11.963
 2851SOL    HW210451   4.802  11.249  11.985
 2852SOL     OW10452  10.282   5.819   8.717
 2852SOL    HW110453  10.245   5.734   8.692
 2852SOL    HW210454  10.375   5.803   8.728
 2853SOL     OW10455   4.797  12.671  13.659
 2853SOL    HW110456   4.851  12.739  13.619
 2853SOL    HW210457   4.708  12.704  13.654
 2854SOL     OW10458  12.809   5.403   8.969
 2854SOL    HW110459  12.803   5.310   8.993
 2854SOL    HW210460  12.756   5.448   9.035
 2855SOL     OW10461  10.396  10.789  12.885
 2855SOL    HW110462  10.374  10.724  12.818
 2855SOL    HW210463  10.383  10.873  12.841
 2856SOL     OW10464   7.776   9.009   7.893
 2856SOL    HW110465   7.861   8.971   7.916
 2856SOL    HW210466   7.738   8.947   7.831
 2857SOL     OW10467   2.904   8.656   3.040
 2857SOL    HW110468   2.858   8.573   3.052
 2857SOL    HW210469   2.965   8.640   2.969
 2858SOL     OW10470   6.533   2.995  11.920
 2858SOL    HW110471   6.618   2.953  11.903
 2858SOL    HW210472   6.469   2.934  11.885
 2859SOL     OW10473  12.769  12.222   9.114
 2859SOL    HW110474  12.715  12.269   9.177
 2859SOL    HW210475  12.769  12.278   9.036
 2860SOL     OW10476   4.604   0.377   4.328
 2860SOL    HW110477   4.664   0.451   4.326
 2860SOL    HW210478   4.552   0.386   4.248
 2861SOL     OW10479   4.408   3.598  12.114
 2861SOL    HW110480   4.380   3.663  12.178
 2861SOL    HW210481   4.503   3.600  12.117
 2862SOL     OW10482   8.820   5.026   3.596
 2862SOL    HW110483   8.802   5.118   3.581
 2862SOL    HW210484   8.765   4.980   3.532
 2863SOL     OW10485  14.789   3.106   9.224
 2863SOL    HW110486  14.763   3.170   9.290
 2863SOL    HW210487  14.706   3.068   9.195
 2864SOL     OW10488  12.870  11.823   3.244
 2864SOL    HW110489  12.941  11.759   3.246
 2864SOL    HW210490  12.826  11.808   3.160
 2865SOL     OW10491   2.603  12.448  13.431
 2865SOL    HW110492   2.625  12.479  13.343
 2865SOL    HW210493   2.659  12.371  13.444
 2866SOL     OW10494  11.548   1.585   4.665
 2866SOL    HW110495  11.488   1.529   4.714
 2866SOL    HW210496  11.492   1.635   4.606
 2867SOL     OW10497   5.358  14.048  10.910
 2867SOL    HW110498   5.452  14.040  10.891
 2867SOL    HW210499   5.318  14.066  10.825
 2868SOL     OW10500   3.136   2.887  12.756
 2868SOL    HW110501   3.209   2.930  12.712
 2868SOL    HW210502   3.088   2.958  12.799
 2869SOL     OW10503   2.879   7.530  12.146
 2869SOL    HW110504   2.926   7.527  12.229
 2869SOL    HW210505   2.944   7.504  12.081
 2870SOL     OW10506   3.942   4.478  11.242
 2870SOL    HW110507   3.885   4.500  11.316
 2870SOL    HW210508   3.882   4.440  11.177
 2871SOL     OW10509  12.608   6.352  10.665
 2871SOL    HW110510  12.539   6.413  10.692
 2871SOL    HW210511  12.689   6.394  10.692
 2872SOL     OW10512   2.367   1.302   8.946
 2872SOL    HW110513   2.366   1.340   8.858
 2872SOL    HW210514   2.309   1.358   8.997
 2873SOL     OW10515   0.893   5.890   7.407
 2873SOL    HW110516   0.801   5.865   7.395
 2873SOL    HW210517   0.935   5.812   7.443
 2874SOL     OW10518  10.046   2.634  14.529
 2874SOL    HW110519  10.132   2.671  14.511
 2874SOL    HW210520  10.006   2.696  14.590
 2875SOL     OW10521  14.064   1.382   9.798
 2875SOL    HW110522  14.037   1.299   9.838
 2875SOL    HW210523  13.984   1.434   9.795
 2876SOL     OW10524  10.979   1.865   2.885
 2876SOL    HW110525  10.926   1.801   2.934
 2876SOL    HW210526  10.992   1.824   2.799
 2877SOL     OW10527  12.853  14.637  10.060
 2877SOL    HW110528  12.936  14.677  10.033
 2877SOL    HW210529  12.837  14.671  10.148
 2878SOL     OW10530  12.771   3.785   6.919
 2878SOL    HW110531  12.794   3.858   6.976
 2878SOL    HW210532  12.819   3.711   6.954
 2879SOL     OW10533  13.350  14.792   5.392
 2879SOL    HW110534  13.259  14.794   5.361
 2879SOL    HW210535  13.362   0.002   5.436
 2880SOL     OW10536   0.646   2.255  10.965
 2880SOL    HW110537   0.557   2.269  10.997
 2880SOL    HW210538   0.702   2.284  11.037
 2881SOL     OW10539  10.605   2.649  13.388
 2881SOL    HW110540  10.627   2.556  13.401
 2881SOL    HW210541  10.526   2.662  13.440
 2882SOL     OW10542  11.523   8.037   5.670
 2882SOL    HW110543  11.579   8.002   5.740
 2882SOL    HW210544  11.441   7.989   5.679
 2883SOL     OW10545   3.301  13.626   6.418
 2883SOL    HW110546   3.212  13.660   6.417
 2883SOL    HW210547   3.293  13.537   6.453
 2884SOL     OW10548  10.031  12.831   5.786
 2884SOL    HW110549  10.126  12.835   5.798
 2884SOL    HW210550  10.016  12.755   5.730
 2885SOL     OW10551   9.421  12.376  10.234
 2885SOL    HW110552   9.383  12.442  10.291
 2885SOL    HW210553   9.387  12.293  10.266
 2886SOL     OW10554   1.547  13.863   7.400
 2886SOL    HW110555   1.594  13.946   7.395
 2886SOL    HW210556   1.591  13.815   7.470
 2887SOL     OW10557  14.746  12.175   8.125
 2887SOL    HW110558  14.806  12.107   8.156
 2887SOL    HW210559  14.695  12.132   8.056
 2888SOL     OW10560   6.580   9.600  12.836
 2888SOL    HW110561   6.538   9.515  12.825
 2888SOL    HW210562   6.510   9.664  12.826
 2889SOL     OW10563  12.474   1.797  11.526
 2889SOL    HW110564  12.544   1.758  11.474
 2889SOL    HW210565  12.482   1.891  11.509
 2890SOL     OW10566   9.179   7.964  13.768
 2890SOL    HW110567   9.139   8.009  13.842
 2890SOL    HW210568   9.270   7.951  13.794
 2891SOL     OW10569   8.933   8.068   8.549
 2891SOL    HW110570   8.969   7.997   8.601
 2891SOL    HW210571   8.934   8.035   8.459
 2892SOL     OW10572  12.818   5.555   2.399
 2892SOL    HW110573  12.738   5.503   2.394
 2892SOL    HW210574  12.888   5.491   2.405
 2893SOL     OW10575   1.733   2.825   1.695
 2893SOL    HW110576   1.653   2.773   1.698
 2893SOL    HW210577   1.804   2.760   1.695
 2894SOL     OW10578   7.521  13.140  10.864
 2894SOL    HW110579   7.444  13.120  10.917
 2894SOL    HW210580   7.550  13.056  10.830
 2895SOL     OW10581   8.742   9.227  14.258
 2895SOL    HW110582   8.649   9.242  14.275
 2895SOL    HW210583   8.775   9.313  14.231
 2896SOL     OW10584  14.058  11.941  12.502
 2896SOL    HW110585  14.015  11.887  12.436
 2896SOL    HW210586  14.117  11.880  12.547
 2897SOL     OW10587   9.513  12.799   3.436
 2897SOL    HW110588   9.560  12.876   3.467
 2897SOL    HW210589   9.485  12.821   3.347
 2898SOL     OW10590   8.709  11.314   0.741
 2898SOL    HW110591   8.705  11.404   0.708
 2898SOL    HW210592   8.787  11.277   0.700
 2899SOL     OW10593   7.615   9.985   9.559
 2899SOL    HW110594   7.676   9.941   9.499
 2899SOL    HW210595   7.617  10.077   9.532
 2900SOL     OW10596   3.054   8.775   2.563
 2900SOL    HW110597   3.051   8.812   2.651
 2900SOL    HW210598   2.975   8.807   2.521
 2901SOL     OW10599  12.092   2.374  14.450
 2901SOL    HW110600  12.014   2.323  14.473
 2901SOL    HW210601  12.062   2.465  14.451
 2902SOL     OW10602  10.540   5.934   8.247
 2902SOL    HW110603  10.622   5.974   8.277
 2902SOL    HW210604  10.533   5.961   8.155
 2903SOL     OW10605  12.493  14.636  11.838
 2903SOL    HW110606  12.437  14.697  11.886
 2903SOL    HW210607  12.434  14.588  11.781
 2904SOL     OW10608  14.598   8.366  14.269
 2904SOL    HW110609  14.546   8.332  14.196
 2904SOL    HW210610  14.542   8.353  14.345
 2905SOL     OW10611   3.460   2.504   0.077
 2905SOL    HW110612   3.420   2.468   0.156
 2905SOL    HW210613   3.404   2.578   0.054
 2906SOL     OW10614   2.805   1.549   9.407
 2906SOL    HW110615   2.715   1.523   9.425
 2906SOL    HW210616   2.798   1.621   9.345
 2907SOL     OW10617  12.427   8.050   9.495
 2907SOL    HW110618  12.473   8.131   9.473
 2907SOL    HW210619  12.349   8.051   9.440
 2908SOL     OW10620   7.318   6.655   4.709
 2908SOL    HW110621   7.340   6.682   4.798
 2908SOL    HW210622   7.403   6.653   4.664
 2909SOL     OW10623   7.547   9.561   2.538
 2909SOL    HW110624   7.554   9.559   2.634
 2909SOL    HW210625   7.598   9.486   2.508
 2910SOL     OW10626   5.060   4.873  12.755
 2910SOL    HW110627   5.007   4.803  12.717
 2910SOL    HW210628   4.996   4.936  12.789
 2911SOL     OW10629   9.564  12.405   6.111
 2911SOL    HW110630   9.514  12.361   6.042
 2911SOL    HW210631   9.645  12.355   6.117
 2912SOL     OW10632   4.414  11.658   6.535
 2912SOL    HW110633   4.409  11.743   6.492
 2912SOL    HW210634   4.368  11.599   6.476
 2913SOL     OW10635   9.999  13.754  11.402
 2913SOL    HW110636  10.087  13.721  11.418
 2913SOL    HW210637   9.956  13.748  11.487
 2914SOL     OW10638   2.080   9.809   8.429
 2914SOL    HW110639   2.045   9.830   8.342
 2914SOL    HW210640   2.061   9.887   8.482
 2915SOL     OW10641   3.859   1.642   6.783
 2915SOL    HW110642   3.894   1.554   6.770
 2915SOL    HW210643   3.767   1.635   6.757
 2916SOL     OW10644   7.237  14.691  11.671
 2916SOL    HW110645   7.187  14.709  11.591
 2916SOL    HW210646   7.176  14.711  11.742
 2917SOL     OW10647   6.656   5.602   3.014
 2917SOL    HW110648   6.747   5.614   2.987
 2917SOL    HW210649   6.605   5.655   2.952
 2918SOL     OW10650  13.481  12.862   5.320
 2918SOL    HW110651  13.507  12.926   5.386
 2918SOL    HW210652  13.561  12.848   5.268
 2919SOL     OW10653   2.933  11.027  14.090
 2919SOL    HW110654   2.963  11.050  14.002
 2919SOL    HW210655   2.838  11.016  14.081
 2920SOL     OW10656   1.121   9.885  12.050
 2920SOL    HW110657   1.202   9.929  12.077
 2920SOL    HW210658   1.131   9.795  12.082
 2921SOL     OW10659  11.706  10.259   8.373
 2921SOL    HW110660  11.774  10.193   8.361
 2921SOL    HW210661  11.624  10.208   8.376
 2922SOL     OW10662  13.065  11.049  10.152
 2922SOL    HW110663  12.997  10.982  10.151
 2922SOL    HW210664  13.025  11.126  10.111
 2923SOL     OW10665   7.594  13.142  12.007
 2923SOL    HW110666   7.584  13.105  12.094
 2923SOL    HW210667   7.536  13.218  12.006
 2924SOL     OW10668  10.829   1.787   1.036
 2924SOL    HW110669  10.919   1.805   1.062
 2924SOL    HW210670  10.785   1.762   1.117
 2925SOL     OW10671   7.875   1.240   1.751
 2925SOL    HW110672   7.851   1.167   1.693
 2925SOL    HW210673   7.804   1.243   1.816
 2926SOL     OW10674   2.635  14.203  11.191
 2926SOL    HW110675   2.656  14.215  11.284
 2926SOL    HW210676   2.608  14.290  11.161
 2927SOL     OW10677   5.683   5.775  12.442
 2927SOL    HW110678   5.681   5.723  12.362
 2927SOL    HW210679   5.712   5.714  12.509
 2928SOL     OW10680   5.801  14.873   8.308
 2928SOL    HW110681   5.817   0.012   8.214
 2928SOL    HW210682   5.743  14.798   8.312
 2929SOL     OW10683   0.435   3.817  14.524
 2929SOL    HW110684   0.424   3.722  14.513
 2929SOL    HW210685   0.525   3.827  14.555
 2930SOL     OW10686   5.155   3.333   2.742
 2930SOL    HW110687   5.164   3.238   2.756
 2930SOL    HW210688   5.091   3.341   2.671
 2931SOL     OW10689   4.970   8.289   8.580
 2931SOL    HW110690   5.058   8.262   8.606
 2931SOL    HW210691   4.933   8.329   8.659
 2932SOL     OW10692   1.450   5.358  13.015
 2932SOL    HW110693   1.408   5.278  13.046
 2932SOL    HW210694   1.430   5.423  13.082
 2933SOL     OW10695   3.674   3.289   7.400
 2933SOL    HW110696   3.637   3.374   7.376
 2933SOL    HW210697   3.768   3.297   7.382
 2934SOL     OW10698   6.885   2.272   4.280
 2934SOL    HW110699   6.978   2.248   4.288
 2934SOL    HW210700   6.838   2.189   4.293
 2935SOL     OW10701  13.596   4.243   5.109
 2935SOL    HW110702  13.653   4.208   5.040
 2935SOL    HW210703  13.520   4.277   5.062
 2936SOL     OW10704   5.821   6.895   9.419
 2936SOL    HW110705   5.888   6.949   9.462
 2936SOL    HW210706   5.743   6.950   9.420
 2937SOL     OW10707   3.643   4.247  13.070
 2937SOL    HW110708   3.554   4.258  13.105
 2937SOL    HW210709   3.677   4.336  13.062
 2938SOL     OW10710   6.602   1.295   2.108
 2938SOL    HW110711   6.553   1.220   2.076
 2938SOL    HW210712   6.538   1.346   2.157
 2939SOL     OW10713   2.278   1.276   3.773
 2939SOL    HW110714   2.192   1.242   3.800
 2939SOL    HW210715   2.341   1.212   3.806
 2940SOL     OW10716   7.097   0.346   6.869
 2940SOL    HW110717   7.071   0.289   6.797
 2940SOL    HW210718   7.025   0.407   6.879
 2941SOL     OW10719   6.707  14.785   9.976
 2941SOL    HW110720   6.642  14.833  10.026
 2941SOL    HW210721   6.662  14.758   9.896
 2942SOL     OW10722  10.593   9.507  11.769
 2942SOL    HW110723  10.609   9.438  11.705
 2942SOL    HW210724  10.660   9.573  11.751
 2943SOL     OW10725   4.888  10.583  12.197
 2943SOL    HW110726   4.953  10.552  12.260
 2943SOL    HW210727   4.810  10.600  12.251
 2944SOL     OW10728  14.363   0.328   4.398
 2944SOL    HW110729  14.392   0.286   4.479
 2944SOL    HW210730  14.290   0.274   4.367
 2945SOL     OW10731   3.621   1.244   9.164
 2945SOL    HW110732   3.703   1.255   9.212
 2945SOL    HW210733   3.552   1.263   9.228
 2946SOL     OW10734  10.916   4.648   6.154
 2946SOL    HW110735  10.895   4.686   6.240
 2946SOL    HW210736  10.841   4.591   6.135
 2947SOL     OW10737   8.053  10.872   7.027
 2947SOL    HW110738   7.997  10.937   7.070
 2947SOL    HW210739   8.131  10.868   7.082
 2948SOL     OW10740   1.077   9.676   1.412
 2948SOL    HW110741   1.102   9.614   1.479
 2948SOL    HW210742   1.035   9.748   1.460
 2949SOL     OW10743  10.896   7.426  12.558
 2949SOL    HW110744  10.926   7.425  12.649
 2949SOL    HW210745  10.806   7.456  12.563
 2950SOL     OW10746   3.038   2.170  10.900
 2950SOL    HW110747   2.947   2.154  10.876
 2950SOL    HW210748   3.039   2.166  10.996
 2951SOL     OW10749   5.504  13.059   4.777
 2951SOL    HW110750   5.576  13.108   4.817
 2951SOL    HW210751   5.428  13.116   4.790
 2952SOL     OW10752  10.115   2.892  13.397
 2952SOL    HW110753  10.095   2.983  13.375
 2952SOL    HW210754  10.141   2.853  13.314
 2953SOL     OW10755  11.223   4.841  11.330
 2953SOL    HW110756  11.141   4.858  11.376
 2953SOL    HW210757  11.231   4.914  11.269
 2954SOL     OW10758   7.077   9.573   2.714
 2954SOL    HW110759   6.982   9.568   2.707
 2954SOL    HW210760   7.107   9.592   2.625
 2955SOL     OW10761   6.188   5.568  10.677
 2955SOL    HW110762   6.280   5.560  10.701
 2955SOL    HW210763   6.153   5.633  10.738
 2956SOL     OW10764   3.119   8.028  11.701
 2956SOL    HW110765   3.176   8.024  11.777
 2956SOL    HW210766   3.038   7.985  11.729
 2957SOL     OW10767   9.898   0.286   4.642
 2957SOL    HW110768   9.964   0.240   4.695
 2957SOL    HW210769   9.824   0.225   4.638
 2958SOL     OW10770   3.729  14.472   9.591
 2958SOL    HW110771   3.813  14.442   9.554
 2958SOL    HW210772   3.728  14.567   9.574
 2959SOL     OW10773  11.160  11.860   3.324
 2959SOL    HW110774  11.116  11.914   3.389
 2959SOL    HW210775  11.189  11.921   3.257
 2960SOL     OW10776   4.052  12.622   9.511
 2960SOL    HW110777   4.061  12.626   9.416
 2960SOL    HW210778   4.035  12.530   9.530
 2961SOL     OW10779  13.852  13.108   4.243
 2961SOL    HW110780  13.809  13.144   4.320
 2961SOL    HW210781  13.819  13.018   4.236
 2962SOL     OW10782  10.161   6.086  12.048
 2962SOL    HW110783  10.207   6.020  11.996
 2962SOL    HW210784  10.073   6.049  12.061
 2963SOL     OW10785  11.942  11.027   6.978
 2963SOL    HW110786  11.933  10.984   7.063
 2963SOL    HW210787  12.028  11.069   6.981
 2964SOL     OW10788  13.099   8.190  14.081
 2964SOL    HW110789  13.073   8.122  14.143
 2964SOL    HW210790  13.041   8.177  14.006
 2965SOL     OW10791  11.838  13.960   2.028
 2965SOL    HW110792  11.879  13.875   2.013
 2965SOL    HW210793  11.886  14.020   1.970
 2966SOL     OW10794   1.505   9.336  10.432
 2966SOL    HW110795   1.456   9.274  10.485
 2966SOL    HW210796   1.438   9.394  10.394
 2967SOL     OW10797   4.939   3.166   1.128
 2967SOL    HW110798   4.902   3.081   1.149
 2967SOL    HW210799   5.033   3.153   1.131
 2968SOL     OW10800   6.862   9.444   7.463
 2968SOL    HW110801   6.942   9.392   7.454
 2968SOL    HW210802   6.801   9.386   7.509
 2969SOL     OW10803   6.631  12.376   5.109
 2969SOL    HW110804   6.672  12.454   5.145
 2969SOL    HW210805   6.697  12.339   5.050
 2970SOL     OW10806  14.050   6.015   1.696
 2970SOL    HW110807  14.111   5.952   1.733
 2970SOL    HW210808  14.090   6.100   1.713
 2971SOL     OW10809   3.011  10.154   6.069
 2971SOL    HW110810   3.042  10.066   6.051
 2971SOL    HW210811   3.079  10.192   6.126
 2972SOL     OW10812  14.404   3.184   9.840
 2972SOL    HW110813  14.320   3.197   9.883
 2972SOL    HW210814  14.383   3.130   9.764
 2973SOL     OW10815   1.572   2.757  14.567
 2973SOL    HW110816   1.638   2.710  14.516
 2973SOL    HW210817   1.585   2.849  14.544
 2974SOL     OW10818  11.470   3.607   7.089
 2974SOL    HW110819  11.383   3.583   7.057
 2974SOL    HW210820  11.463   3.701   7.108
 2975SOL     OW10821   9.596  12.784  11.073
 2975SOL    HW110822   9.556  12.823  10.995
 2975SOL    HW210823   9.536  12.714  11.099
 2976SOL     OW10824   9.991   9.780   8.866
 2976SOL    HW110825  10.075   9.783   8.820
 2976SOL    HW210826   9.936   9.842   8.818
 2977SOL     OW10827   6.346   2.602   0.954
 2977SOL    HW110828   6.393   2.543   0.895
 2977SOL    HW210829   6.278   2.546   0.994
 2978SOL     OW10830   4.419  12.974   8.807
 2978SOL    HW110831   4.361  13.006   8.876
 2978SOL    HW210832   4.492  12.933   8.853
 2979SOL     OW10833  11.565   4.866   4.614
 2979SOL    HW110834  11.638   4.850   4.553
 2979SOL    HW210835  11.604   4.861   4.701
 2980SOL     OW10836  13.106  14.778   3.024
 2980SOL    HW110837  13.181  14.820   3.065
 2980SOL    HW210838  13.081  14.837   2.952
 2981SOL     OW10839  13.855   8.894  12.021
 2981SOL    HW110840  13.887   8.959  11.960
 2981SOL    HW210841  13.846   8.941  12.104
 2982SOL     OW10842  13.247   0.391   5.736
 2982SOL    HW110843  13.153   0.393   5.753
 2982SOL    HW210844  13.254   0.391   5.641
 2983SOL     OW10845  14.147   7.385  10.134
 2983SOL    HW110846  14.141   7.290  10.118
 2983SOL    HW210847  14.240   7.401  10.149
 2984SOL     OW10848   6.613   5.669  10.970
 2984SOL    HW110849   6.681   5.644  10.908
 2984SOL    HW210850   6.642   5.752  11.006
 2985SOL     OW10851  11.845   1.999  10.315
 2985SOL    HW110852  11.759   1.959  10.305
 2985SOL    HW210853  11.884   1.994  10.228
 2986SOL     OW10854  13.931   6.088  13.286
 2986SOL    HW110855  13.973   6.053  13.365
 2986SOL    HW210856  13.858   6.140  13.320
 2987SOL     OW10857   6.673   0.878   0.716
 2987SOL    HW110858   6.642   0.926   0.639
 2987SOL    HW210859   6.740   0.935   0.754
 2988SOL     OW10860  14.870   8.524   5.556
 2988SOL    HW110861  14.826   8.499   5.637
 2988SOL    HW210862  14.833   8.466   5.490
 2989SOL     OW10863   8.473   0.340  12.445
 2989SOL    HW110864   8.566   0.329  12.425
 2989SOL    HW210865   8.457   0.433  12.432
 2990SOL     OW10866  14.210   9.326  12.312
 2990SOL    HW110867  14.197   9.312  12.218
 2990SOL    HW210868  14.302   9.305  12.326
 2991SOL     OW10869  12.441  14.481   1.506
 2991SOL    HW110870  12.432  14.386   1.503
 2991SOL    HW210871  12.495  14.502   1.430
 2992SOL     OW10872   9.762  12.120   0.815
 2992SOL    HW110873   9.708  12.060   0.763
 2992SOL    HW210874   9.762  12.081   0.902
 2993SOL     OW10875   8.486   6.225  13.456
 2993SOL    HW110876   8.470   6.244  13.364
 2993SOL    HW210877   8.436   6.146  13.474
 2994SOL     OW10878  13.789   1.983  10.014
 2994SOL    HW110879  13.714   1.993   9.956
 2994SOL    HW210880  13.855   2.042   9.979
 2995SOL     OW10881   3.878   7.283  11.624
 2995SOL    HW110882   3.787   7.270  11.597
 2995SOL    HW210883   3.925   7.300  11.543
 2996SOL     OW10884  10.721  13.033  11.713
 2996SOL    HW110885  10.706  12.983  11.633
 2996SOL    HW210886  10.705  12.972  11.784
 2997SOL     OW10887   6.230   4.304   2.991
 2997SOL    HW110888   6.295   4.357   2.945
 2997SOL    HW210889   6.221   4.225   2.937
 2998SOL     OW10890   1.896  11.437  10.187
 2998SOL    HW110891   1.865  11.523  10.158
 2998SOL    HW210892   1.828  11.406  10.247
 2999SOL     OW10893   9.387   9.933   7.393
 2999SOL    HW110894   9.380   9.894   7.306
 2999SOL    HW210895   9.305   9.980   7.404
 3000SOL     OW10896   0.107   9.204  14.853
 3000SOL    HW110897   0.068   9.120  14.828
 3000SOL    HW210898   0.043   9.243   0.038
 3001SOL     OW10899   1.461   6.266   8.464
 3001SOL    HW110900   1.376   6.271   8.420
 3001SOL    HW210901   1.444   6.214   8.543
 3002SOL     OW10902  11.612  14.426   1.111
 3002SOL    HW110903  11.704  14.411   1.091
 3002SOL    HW210904  11.600  14.389   1.198
 3003SOL     OW10905  11.582   4.239   4.563
 3003SOL    HW110906  11.672   4.234   4.595
 3003SOL    HW210907  11.558   4.149   4.544
 3004SOL     OW10908   4.000  10.742  12.253
 3004SOL    HW110909   3.993  10.812  12.189
 3004SOL    HW210910   4.086  10.757  12.294
 3005SOL     OW10911  11.558   7.758  10.653
 3005SOL    HW110912  11.491   7.710  10.604
 3005SOL    HW210913  11.527   7.848  10.653
 3006SOL     OW10914   0.733  14.560   0.990
 3006SOL    HW110915   0.646  14.556   1.030
 3006SOL    HW210916   0.717  14.544   0.897
 3007SOL     OW10917   1.848  10.062   7.281
 3007SOL    HW110918   1.875  10.056   7.189
 3007SOL    HW210919   1.765  10.110   7.279
 3008SOL     OW10920   7.739  10.460   8.658
 3008SOL    HW110921   7.725  10.471   8.564
 3008SOL    HW210922   7.682  10.525   8.698
 3009SOL     OW10923  11.758  14.206   4.015
 3009SOL    HW110924  11.708  14.275   4.060
 3009SOL    HW210925  11.691  14.145   3.983
 3010SOL     OW10926  13.444   0.911  10.317
 3010SOL    HW110927  13.382   0.915  10.244
 3010SOL    HW210928  13.476   0.820  10.315
 3011SOL     OW10929   4.686  10.968   3.106
 3011SOL    HW110930   4.714  10.963   3.014
 3011SOL    HW210931   4.602  11.015   3.103
 3012SOL     OW10932   7.638   2.065  13.795
 3012SOL    HW110933   7.554   2.060  13.750
 3012SOL    HW210934   7.664   1.974  13.809
 3013SOL     OW10935   9.968   0.208  12.492
 3013SOL    HW110936  10.013   0.124  12.492
 3013SOL    HW210937  10.028   0.267  12.538
 3014SOL     OW10938   3.680   0.877   4.089
 3014SOL    HW110939   3.764   0.837   4.112
 3014SOL    HW210940   3.626   0.803   4.060
 3015SOL     OW10941   8.617  14.020   2.404
 3015SOL    HW110942   8.565  13.975   2.338
 3015SOL    HW210943   8.662  14.089   2.357
 3016SOL     OW10944   0.635   7.344  11.716
 3016SOL    HW110945   0.707   7.325  11.776
 3016SOL    HW210946   0.614   7.260  11.675
 3017SOL     OW10947   0.328  12.690   8.490
 3017SOL    HW110948   0.350  12.762   8.431
 3017SOL    HW210949   0.411  12.667   8.532
 3018SOL     OW10950   8.603   7.200   9.351
 3018SOL    HW110951   8.513   7.195   9.384
 3018SOL    HW210952   8.594   7.222   9.258
 3019SOL     OW10953  14.777  12.705   6.714
 3019SOL    HW110954  14.842  12.705   6.785
 3019SOL    HW210955  14.753  12.613   6.704
 3020SOL     OW10956  12.399  12.005   7.788
 3020SOL    HW110957  12.377  12.062   7.861
 3020SOL    HW210958  12.403  12.064   7.712
 3021SOL     OW10959   2.353  12.417   2.369
 3021SOL    HW110960   2.397  12.335   2.346
 3021SOL    HW210961   2.359  12.421   2.464
 3022SOL     OW10962  12.313  11.458   2.139
 3022SOL    HW110963  12.341  11.498   2.221
 3022SOL    HW210964  12.393  11.451   2.087
 3023SOL     OW10965   7.775   4.274   0.016
 3023SOL    HW110966   7.815   4.279  14.805
 3023SOL    HW210967   7.700   4.215   0.005
 3024SOL     OW10968   9.032  10.646  12.702
 3024SOL    HW110969   9.080  10.725  12.727
 3024SOL    HW210970   9.067  10.624  12.615
 3025SOL     OW10971   3.728  13.573  14.481
 3025SOL    HW110972   3.652  13.544  14.429
 3025SOL    HW210973   3.795  13.507  14.463
 3026SOL     OW10974   9.698   2.017   6.480
 3026SOL    HW110975   9.721   1.945   6.421
 3026SOL    HW210976   9.781   2.064   6.493
 3027SOL     OW10977  13.518   5.376   6.056
 3027SOL    HW110978  13.555   5.337   6.135
 3027SOL    HW210979  13.446   5.317   6.032
 3028SOL     OW10980   1.402   1.993  13.541
 3028SOL    HW110981   1.314   2.002  13.578
 3028SOL    HW210982   1.405   1.904  13.507
 3029SOL     OW10983  12.888   7.826   5.076
 3029SOL    HW110984  12.924   7.792   5.158
 3029SOL    HW210985  12.843   7.751   5.036
 3030SOL     OW10986   2.763  11.846  13.874
 3030SOL    HW110987   2.802  11.930  13.898
 3030SOL    HW210988   2.695  11.831  13.940
 3031SOL     OW10989   9.381   1.069   3.226
 3031SOL    HW110990   9.332   1.151   3.222
 3031SOL    HW210991   9.323   1.009   3.273
 3032SOL     OW10992   0.561  11.784   0.535
 3032SOL    HW110993   0.602  11.779   0.449
 3032SOL    HW210994   0.626  11.826   0.591
 3033SOL     OW10995   7.416   0.079   2.183
 3033SOL    HW110996   7.447  14.873   2.224
 3033SOL    HW210997   7.417   0.061   2.089
 3034SOL     OW10998  12.107   6.170   2.986
 3034SOL    HW110999  12.201   6.188   2.987
 3034SOL    HW211000  12.067   6.254   2.963
 3035SOL     OW11001  13.834   9.028   6.841
 3035SOL    HW111002  13.924   8.998   6.853
 3035SOL    HW211003  13.816   9.013   6.748
 3036SOL     OW11004  11.257   0.141  13.668
 3036SOL    HW111005  11.206   0.104  13.596
 3036SOL    HW211006  11.200   0.135  13.744
 3037SOL     OW11007   3.214   2.999   5.777
 3037SOL    HW111008   3.285   2.950   5.736
 3037SOL    HW211009   3.173   2.937   5.837
 3038SOL     OW11010   3.854  10.282   0.176
 3038SOL    HW111011   3.770  10.256   0.137
 3038SOL    HW211012   3.889  10.200   0.212
 3039SOL     OW11013  11.727   7.361   6.646
 3039SOL    HW111014  11.800   7.300   6.639
 3039SOL    HW211015  11.749   7.432   6.586
 3040SOL     OW11016   2.748   8.827   6.597
 3040SOL    HW111017   2.824   8.804   6.543
 3040SOL    HW211018   2.706   8.899   6.549
 3041SOL     OW11019   4.610   9.992   7.095
 3041SOL    HW111020   4.678   9.942   7.141
 3041SOL    HW211021   4.534   9.987   7.152
 3042SOL     OW11022   1.462  11.244   7.102
 3042SOL    HW111023   1.424  11.315   7.154
 3042SOL    HW211024   1.387  11.190   7.078
 3043SOL     OW11025  14.450   0.137  13.287
 3043SOL    HW111026  14.444   0.135  13.192
 3043SOL    HW211027  14.364   0.170  13.316
 3044SOL     OW11028   6.582   0.638  11.456
 3044SOL    HW111029   6.529   0.611  11.380
 3044SOL    HW211030   6.519   0.645  11.527
 3045SOL     OW11031   0.477  12.939   4.259
 3045SOL    HW111032   0.552  12.964   4.205
 3045SOL    HW211033   0.411  13.006   4.241
 3046SOL     OW11034   7.404   9.230  11.894
 3046SOL    HW111035   7.411   9.265  11.805
 3046SOL    HW211036   7.494   9.222  11.924
 3047SOL     OW11037   0.272   9.024   4.969
 3047SOL    HW111038   0.191   9.031   5.019
 3047SOL    HW211039   0.321   9.103   4.992
 3048SOL     OW11040  12.207  11.731   6.198
 3048SOL    HW111041  12.161  11.657   6.158
 3048SOL    HW211042  12.222  11.704   6.288
 3049SOL     OW11043   9.827   5.190   9.580
 3049SOL    HW111044   9.864   5.111   9.540
 3049SOL    HW211045   9.784   5.235   9.507
 3050SOL     OW11046   9.449  12.528   1.391
 3050SOL    HW111047   9.516  12.591   1.364
 3050SOL    HW211048   9.475  12.501   1.479
 3051SOL     OW11049  14.613  11.941   0.998
 3051SOL    HW111050  14.655  11.904   1.075
 3051SOL    HW211051  14.605  12.035   1.018
 3052SOL     OW11052  13.937   5.511   7.628
 3052SOL    HW111053  13.943   5.572   7.702
 3052SOL    HW211054  14.014   5.455   7.637
 3053SOL     OW11055  12.715  11.829  10.711
 3053SOL    HW111056  12.778  11.886  10.667
 3053SOL    HW211057  12.724  11.851  10.804
 3054SOL     OW11058   3.690   6.732   3.838
 3054SOL    HW111059   3.637   6.653   3.823
 3054SOL    HW211060   3.744   6.740   3.759
 3055SOL     OW11061   9.750   8.936   2.333
 3055SOL    HW111062   9.746   8.885   2.414
 3055SOL    HW211063   9.663   8.977   2.326
 3056SOL     OW11064   3.985   0.226   7.756
 3056SOL    HW111065   3.902   0.267   7.729
 3056SOL    HW211066   4.041   0.232   7.679
 3057SOL     OW11067  10.934   4.442   7.537
 3057SOL    HW111068  10.910   4.518   7.590
 3057SOL    HW211069  11.026   4.425   7.561
 3058SOL     OW11070   1.919  12.123   4.059
 3058SOL    HW111071   1.916  12.077   3.975
 3058SOL    HW211072   1.880  12.062   4.121
 3059SOL     OW11073   2.243  12.544  10.745
 3059SOL    HW111074   2.309  12.567  10.679
 3059SOL    HW211075   2.293  12.532  10.826
 3060SOL     OW11076   0.168  12.834   3.104
 3060SOL    HW111077   0.084  12.805   3.140
 3060SOL    HW211078   0.218  12.862   3.181
 3061SOL     OW11079   8.108   7.063   4.201
 3061SOL    HW111080   8.202   7.056   4.180
 3061SOL    HW211081   8.064   7.035   4.121
 3062SOL     OW11082   2.201   1.547  12.017
 3062SOL    HW111083   2.137   1.615  11.995
 3062SOL    HW211084   2.285   1.593  12.021
 3063SOL     OW11085   2.229   0.612  14.747
 3063SOL    HW111086   2.213   0.572  14.832
 3063SOL    HW211087   2.318   0.585  14.724
 3064SOL     OW11088   0.923   2.642  12.700
 3064SOL    HW111089   0.990   2.580  12.672
 3064SOL    HW211090   0.963   2.689  12.774
 3065SOL     OW11091   8.192  13.224  14.461
 3065SOL    HW111092   8.111  13.176  14.446
 3065SOL    HW211093   8.171  13.284  14.533
 3066SOL     OW11094   4.677   7.370   3.618
 3066SOL    HW111095   4.750   7.431   3.633
 3066SOL    HW211096   4.689   7.302   3.684
 3067SOL     OW11097  11.331   6.527  14.392
 3067SOL    HW111098  11.389   6.597  14.423
 3067SOL    HW211099  11.328   6.540  14.297
 3068SOL     OW11100  10.676   5.869   3.013
 3068SOL    HW111101  10.584   5.892   3.026
 3068SOL    HW211102  10.702   5.913   2.932
 3069SOL     OW11103   1.673   2.676   6.456
 3069SOL    HW111104   1.578   2.685   6.449
 3069SOL    HW211105   1.707   2.761   6.427
 3070SOL     OW11106   2.627   7.462  10.654
 3070SOL    HW111107   2.583   7.480  10.571
 3070SOL    HW211108   2.571   7.503  10.720
 3071SOL     OW11109  13.584  13.981  14.012
 3071SOL    HW111110  13.668  14.026  14.010
 3071SOL    HW211111  13.521  14.045  13.978
 3072SOL     OW11112  13.106   4.409  12.940
 3072SOL    HW111113  13.169   4.470  12.902
 3072SOL    HW211114  13.034   4.465  12.970
 3073SOL     OW11115   4.762  13.657  13.028
 3073SOL    HW111116   4.794  13.566  13.029
 3073SOL    HW211117   4.702  13.661  13.103
 3074SOL     OW11118   6.526  11.867  10.870
 3074SOL    HW111119   6.465  11.868  10.795
 3074SOL    HW211120   6.608  11.835  10.833
 3075SOL     OW11121   8.933   7.870   6.230
 3075SOL    HW111122   8.996   7.821   6.177
 3075SOL    HW211123   8.854   7.873   6.176
 3076SOL     OW11124   9.991   4.360   0.112
 3076SOL    HW111125  10.036   4.280   0.084
 3076SOL    HW211126  10.058   4.412   0.156
 3077SOL     OW11127  12.971   5.530  13.243
 3077SOL    HW111128  12.912   5.521  13.318
 3077SOL    HW211129  13.057   5.549  13.282
 3078SOL     OW11130   8.180   8.128   0.493
 3078SOL    HW111131   8.261   8.079   0.481
 3078SOL    HW211132   8.159   8.117   0.586
 3079SOL     OW11133   5.911   8.325   4.654
 3079SOL    HW111134   5.959   8.266   4.712
 3079SOL    HW211135   5.868   8.387   4.713
 3080SOL     OW11136   9.033   2.779   5.201
 3080SOL    HW111137   9.119   2.742   5.182
 3080SOL    HW211138   8.980   2.757   5.124
 3081SOL     OW11139   2.455   9.588   9.644
 3081SOL    HW111140   2.408   9.550   9.719
 3081SOL    HW211141   2.435   9.529   9.571
 3082SOL     OW11142   2.179   1.475  11.644
 3082SOL    HW111143   2.268   1.466  11.678
 3082SOL    HW211144   2.151   1.563  11.672
 3083SOL     OW11145   8.924  11.779   9.431
 3083SOL    HW111146   8.918  11.804   9.339
 3083SOL    HW211147   9.000  11.720   9.435
 3084SOL     OW11148   2.626  10.377   9.182
 3084SOL    HW111149   2.574  10.381   9.101
 3084SOL    HW211150   2.712  10.410   9.157
 3085SOL     OW11151  13.783   6.898  10.514
 3085SOL    HW111152  13.766   6.860  10.600
 3085SOL    HW211153  13.833   6.977  10.532
 3086SOL     OW11154   8.649  12.812   3.905
 3086SOL    HW111155   8.659  12.873   3.832
 3086SOL    HW211156   8.650  12.868   3.983
 3087SOL     OW11157  14.154   5.323   7.722
 3087SOL    HW111158  14.192   5.250   7.770
 3087SOL    HW211159  14.168   5.399   7.779
 3088SOL     OW11160  10.363   9.196   0.988
 3088SOL    HW111161  10.387   9.106   1.008
 3088SOL    HW211162  10.393   9.210   0.898
 3089SOL     OW11163  11.526  12.600   5.178
 3089SOL    HW111164  11.603  12.652   5.154
 3089SOL    HW211165  11.504  12.551   5.098
 3090SOL     OW11166  10.749   5.409   6.639
 3090SOL    HW111167  10.842   5.401   6.659
 3090SOL    HW211168  10.729   5.331   6.587
 3091SOL     OW11169  14.719   2.687   5.516
 3091SOL    HW111170  14.641   2.735   5.489
 3091SOL    HW211171  14.689   2.596   5.523
 3092SOL     OW11172  12.528   0.005   3.541
 3092SOL    HW111173  12.535  14.817   3.470
 3092SOL    HW211174  12.578  14.841   3.613
 3093SOL     OW11175   7.577   6.108   5.362
 3093SOL    HW111176   7.548   6.073   5.446
 3093SOL    HW211177   7.516   6.071   5.298
 3094SOL     OW11178  13.003   0.681   1.440
 3094SOL    HW111179  12.985   0.768   1.477
 3094SOL    HW211180  12.917   0.640   1.432
 3095SOL     OW11181   0.328  10.922  11.059
 3095SOL    HW111182   0.372  11.001  11.091
 3095SOL    HW211183   0.235  10.942  11.064
 3096SOL     OW11184   6.682   0.490   2.393
 3096SOL    HW111185   6.749   0.451   2.337
 3096SOL    HW211186   6.723   0.570   2.426
 3097SOL     OW11187  10.223  14.605  10.225
 3097SOL    HW111188  10.173  14.641  10.152
 3097SOL    HW211189  10.197  14.513  10.229
 3098SOL     OW11190  13.058  13.064   1.549
 3098SOL    HW111191  12.992  13.106   1.493
 3098SOL    HW211192  13.050  13.110   1.633
 3099SOL     OW11193   2.368  10.283   1.629
 3099SOL    HW111194   2.448  10.231   1.631
 3099SOL    HW211195   2.333  10.269   1.540
 3100SOL     OW11196   5.592   8.563   9.502
 3100SOL    HW111197   5.591   8.552   9.407
 3100SOL    HW211198   5.633   8.483   9.535
 3101SOL     OW11199   8.877   7.979  10.166
 3101SOL    HW111200   8.807   8.044  10.171
 3101SOL    HW211201   8.835   7.897  10.190
 3102SOL     OW11202   3.529   8.235   7.194
 3102SOL    HW111203   3.455   8.189   7.233
 3102SOL    HW211204   3.506   8.242   7.101
 3103SOL     OW11205   5.528   5.679  13.614
 3103SOL    HW111206   5.462   5.693  13.682
 3103SOL    HW211207   5.534   5.764  13.569
 3104SOL     OW11208  14.573   7.502   0.927
 3104SOL    HW111209  14.666   7.483   0.920
 3104SOL    HW211210  14.554   7.559   0.852
 3105SOL     OW11211  11.156   8.005   7.125
 3105SOL    HW111212  11.062   7.987   7.121
 3105SOL    HW211213  11.183   8.010   7.034
 3106SOL     OW11214  11.045   9.329   4.602
 3106SOL    HW111215  11.071   9.238   4.593
 3106SOL    HW211216  11.122   9.373   4.636
 3107SOL     OW11217  14.574   0.120   5.414
 3107SOL    HW111218  14.491   0.081   5.389
 3107SOL    HW211219  14.565   0.213   5.394
 3108SOL     OW11220   0.448   2.658   6.511
 3108SOL    HW111221   0.375   2.622   6.461
 3108SOL    HW211222   0.419   2.654   6.602
 3109SOL     OW11223   0.132   0.726   2.888
 3109SOL    HW111224   0.063   0.677   2.932
 3109SOL    HW211225   0.213   0.683   2.914
 3110SOL     OW11226   4.768   4.264  13.706
 3110SOL    HW111227   4.707   4.228  13.643
 3110SOL    HW211228   4.845   4.287  13.654
 3111SOL     OW11229   3.711   8.979  10.584
 3111SOL    HW111230   3.755   9.058  10.551
 3111SOL    HW211231   3.619   8.992  10.561
 3112SOL     OW11232   0.321   8.136   5.571
 3112SOL    HW111233   0.245   8.128   5.628
 3112SOL    HW211234   0.294   8.199   5.504
 3113SOL     OW11235   2.959  12.104  12.835
 3113SOL    HW111236   2.953  12.146  12.921
 3113SOL    HW211237   2.991  12.174  12.777
 3114SOL     OW11238   1.611   6.189  14.765
 3114SOL    HW111239   1.532   6.158  14.720
 3114SOL    HW211240   1.622   6.279  14.736
 3115SOL     OW11241  10.294   1.028   0.789
 3115SOL    HW111242  10.360   1.097   0.794
 3115SOL    HW211243  10.244   1.049   0.711
 3116SOL     OW11244  13.540  10.755   1.453
 3116SOL    HW111245  13.576  10.691   1.391
 3116SOL    HW211246  13.451  10.770   1.423
 3117SOL     OW11247   3.941  10.960  12.089
 3117SOL    HW111248   3.973  10.940  12.001
 3117SOL    HW211249   4.004  11.023  12.123
 3118SOL     OW11250  13.469  11.062  10.985
 3118SOL    HW111251  13.449  11.152  11.011
 3118SOL    HW211252  13.426  11.008  11.051
 3119SOL     OW11253  12.180  11.817   6.892
 3119SOL    HW111254  12.236  11.837   6.967
 3119SOL    HW211255  12.116  11.888   6.890
 3120SOL     OW11256   2.448   7.185   8.952
 3120SOL    HW111257   2.433   7.276   8.928
 3120SOL    HW211258   2.506   7.152   8.884
 3121SOL     OW11259   3.958  14.702  14.691
 3121SOL    HW111260   4.015  14.767  14.650
 3121SOL    HW211261   3.906  14.667  14.619
 3122SOL     OW11262   2.911   5.608   7.267
 3122SOL    HW111263   2.874   5.523   7.291
 3122SOL    HW211264   2.930   5.601   7.174
 3123SOL     OW11265   4.153   9.444   3.868
 3123SOL    HW111266   4.094   9.467   3.939
 3123SOL    HW211267   4.203   9.370   3.902
 3124SOL     OW11268   2.036   0.622   8.891
 3124SOL    HW111269   2.123   0.602   8.857
 3124SOL    HW211270   1.976   0.580   8.829
 3125SOL     OW11271   4.784  11.759   4.860
 3125SOL    HW111272   4.844  11.833   4.868
 3125SOL    HW211273   4.745  11.749   4.947
 3126SOL     OW11274   0.119  12.851   3.830
 3126SOL    HW111275   0.130  12.758   3.810
 3126SOL    HW211276   0.091  12.854   3.921
 3127SOL     OW11277  10.921  13.247   6.292
 3127SOL    HW111278  10.896  13.171   6.240
 3127SOL    HW211279  10.840  13.297   6.302
 3128SOL     OW11280   7.572   1.039  12.810
 3128SOL    HW111281   7.482   1.008  12.804
 3128SOL    HW211282   7.594   1.068  12.722
 3129SOL     OW11283   3.100  10.574   7.535
 3129SOL    HW111284   3.048  10.596   7.458
 3129SOL    HW211285   3.038  10.531   7.594
 3130SOL     OW11286   1.924  13.593  11.125
 3130SOL    HW111287   1.990  13.544  11.076
 3130SOL    HW211288   1.905  13.669  11.070
 3131SOL     OW11289   8.075   6.290   8.278
 3131SOL    HW111290   8.085   6.245   8.361
 3131SOL    HW211291   8.163   6.293   8.241
 3132SOL     OW11292   0.562   8.899   1.792
 3132SOL    HW111293   0.606   8.876   1.710
 3132SOL    HW211294   0.559   8.818   1.842
 3133SOL     OW11295   2.457   5.067   0.372
 3133SOL    HW111296   2.520   5.139   0.371
 3133SOL    HW211297   2.371   5.109   0.369
 3134SOL     OW11298   6.836   4.137   8.686
 3134SOL    HW111299   6.848   4.150   8.592
 3134SOL    HW211300   6.925   4.139   8.722
 3135SOL     OW11301  12.266   2.799   4.937
 3135SOL    HW111302  12.271   2.734   5.007
 3135SOL    HW211303  12.343   2.854   4.950
 3136SOL     OW11304  14.838  12.288  10.416
 3136SOL    HW111305  14.777  12.361  10.401
 3136SOL    HW211306  14.782  12.211  10.425
 3137SOL     OW11307  11.231   0.904   4.149
 3137SOL    HW111308  11.210   0.997   4.138
 3137SOL    HW211309  11.245   0.894   4.243
 3138SOL     OW11310  11.265   0.508   4.080
 3138SOL    HW111311  11.294   0.493   3.990
 3138SOL    HW211312  11.299   0.595   4.101
 3139SOL     OW11313   6.018  13.858  13.920
 3139SOL    HW111314   6.004  13.787  13.858
 3139SOL    HW211315   6.113  13.871  13.921
 3140SOL     OW11316   6.377   8.530   3.485
 3140SOL    HW111317   6.412   8.443   3.465
 3140SOL    HW211318   6.451   8.580   3.518
 3141SOL     OW11319  13.012  14.251  12.431
 3141SOL    HW111320  12.931  14.273  12.476
 3141SOL    HW211321  13.021  14.157  12.443
 3142SOL     OW11322  11.895   9.782   0.858
 3142SOL    HW111323  11.849   9.700   0.876
 3142SOL    HW211324  11.841   9.849   0.899
 3143SOL     OW11325  13.354   9.167   8.473
 3143SOL    HW111326  13.350   9.091   8.530
 3143SOL    HW211327  13.373   9.240   8.532
 3144SOL     OW11328   0.004   5.914  11.079
 3144SOL    HW111329  14.808   5.883  11.136
 3144SOL    HW211330   0.045   5.834  11.046
 3145SOL     OW11331  10.026   6.423  10.087
 3145SOL    HW111332   9.980   6.364  10.027
 3145SOL    HW211333  10.051   6.367  10.161
 3146SOL     OW11334   0.100   4.962  10.001
 3146SOL    HW111335   0.166   4.935  10.065
 3146SOL    HW211336   0.091   4.886   9.942
 3147SOL     OW11337   8.315   4.689  14.094
 3147SOL    HW111338   8.378   4.734  14.037
 3147SOL    HW211339   8.233   4.736  14.079
 3148SOL     OW11340   8.532   8.603   6.210
 3148SOL    HW111341   8.560   8.625   6.299
 3148SOL    HW211342   8.497   8.684   6.175
 3149SOL     OW11343  13.400   4.456   2.432
 3149SOL    HW111344  13.379   4.420   2.346
 3149SOL    HW211345  13.398   4.381   2.491
 3150SOL     OW11346   4.563   9.905  14.487
 3150SOL    HW111347   4.494   9.839  14.472
 3150SOL    HW211348   4.576   9.945  14.401
 3151SOL     OW11349  10.551   9.546   8.540
 3151SOL    HW111350  10.508   9.617   8.588
 3151SOL    HW211351  10.569   9.480   8.606
 3152SOL     OW11352   1.447  12.172  13.053
 3152SOL    HW111353   1.352  12.187  13.047
 3152SOL    HW211354   1.458  12.126  13.136
 3153SOL     OW11355  13.512   3.996  13.757
 3153SOL    HW111356  13.557   3.923  13.797
 3153SOL    HW211357  13.491   3.966  13.668
 3154SOL     OW11358  14.536  14.752   2.120
 3154SOL    HW111359  14.566  14.694   2.190
 3154SOL    HW211360  14.617  14.779   2.076
 3155SOL     OW11361  14.205   4.320   8.818
 3155SOL    HW111362  14.231   4.248   8.761
 3155SOL    HW211363  14.288   4.358   8.848
 3156SOL     OW11364  13.649   9.314  13.339
 3156SOL    HW111365  13.574   9.369  13.361
 3156SOL    HW211366  13.611   9.228  13.319
 3157SOL     OW11367   8.112  11.798  12.659
 3157SOL    HW111368   8.029  11.846  12.661
 3157SOL    HW211369   8.122  11.770  12.568
 3158SOL     OW11370   6.505   9.076   1.347
 3158SOL    HW111371   6.532   9.157   1.390
 3158SOL    HW211372   6.508   9.010   1.416
 3159SOL     OW11373   4.770   6.057   0.986
 3159SOL    HW111374   4.741   6.018   0.904
 3159SOL    HW211375   4.862   6.032   0.993
 3160SOL     OW11376   3.742   2.515   8.266
 3160SOL    HW111377   3.668   2.517   8.205
 3160SOL    HW211378   3.795   2.441   8.236
 3161SOL     OW11379   1.093  10.668   8.791
 3161SOL    HW111380   1.135  10.732   8.849
 3161SOL    HW211381   1.000  10.672   8.813
 3162SOL     OW11382  13.893   5.010   1.561
 3162SOL    HW111383  13.847   5.052   1.489
 3162SOL    HW211384  13.828   4.952   1.601
 3163SOL     OW11385  10.030   5.084   5.972
 3163SOL    HW111386  10.001   5.110   6.060
 3163SOL    HW211387   9.959   5.029   5.939
 3164SOL     OW11388   8.014   1.995  12.456
 3164SOL    HW111389   7.929   1.972  12.419
 3164SOL    HW211390   8.046   1.913  12.494
 3165SOL     OW11391   8.633   4.468   1.622
 3165SOL    HW111392   8.611   4.380   1.591
 3165SOL    HW211393   8.686   4.505   1.551
 3166SOL     OW11394   2.770  13.039  13.370
 3166SOL    HW111395   2.819  13.018  13.449
 3166SOL    HW211396   2.688  12.990  13.378
 3167SOL     OW11397   2.262   9.912  13.462
 3167SOL    HW111398   2.354   9.934  13.475
 3167SOL    HW211399   2.230   9.978  13.401
 3168SOL     OW11400   2.922   8.725   8.514
 3168SOL    HW111401   2.868   8.739   8.436
 3168SOL    HW211402   2.859   8.712   8.584
 3169SOL     OW11403   8.738   5.733   4.748
 3169SOL    HW111404   8.748   5.710   4.656
 3169SOL    HW211405   8.741   5.649   4.794
 3170SOL     OW11406  10.016   6.808   5.193
 3170SOL    HW111407   9.928   6.789   5.227
 3170SOL    HW211408  10.059   6.858   5.263
 3171SOL     OW11409  13.913   3.925   4.016
 3171SOL    HW111410  13.903   3.927   4.111
 3171SOL    HW211411  13.883   3.838   3.990
 3172SOL     OW11412  14.003  12.901  11.150
 3172SOL    HW111413  13.967  12.907  11.239
 3172SOL    HW211414  13.980  12.984  11.109
 3173SOL     OW11415   6.055   4.278  10.250
 3173SOL    HW111416   6.111   4.300  10.176
 3173SOL    HW211417   6.104   4.211  10.298
 3174SOL     OW11418   8.327  12.888   1.147
 3174SOL    HW111419   8.291  12.945   1.215
 3174SOL    HW211420   8.261  12.819   1.137
 3175SOL     OW11421   5.279   6.815  10.617
 3175SOL    HW111422   5.344   6.760  10.661
 3175SOL    HW211423   5.278   6.784  10.527
 3176SOL     OW11424   0.151   9.828   2.765
 3176SOL    HW111425   0.206   9.886   2.713
 3176SOL    HW211426   0.204   9.749   2.779
 3177SOL     OW11427   5.728  13.634   6.260
 3177SOL    HW111428   5.821  13.617   6.246
 3177SOL    HW211429   5.699  13.677   6.179
 3178SOL     OW11430   8.449  13.545  10.664
 3178SOL    HW111431   8.373  13.504  10.706
 3178SOL    HW211432   8.416  13.580  10.582
 3179SOL     OW11433   0.880  10.066  12.407
 3179SOL    HW111434   0.796  10.058  12.362
 3179SOL    HW211435   0.932  10.123  12.351
 3180SOL     OW11436   0.711   1.459   0.300
 3180SOL    HW111437   0.664   1.532   0.339
 3180SOL    HW211438   0.747   1.411   0.375
 3181SOL     OW11439   8.105   1.898   0.893
 3181SOL    HW111440   8.185   1.847   0.879
 3181SOL    HW211441   8.083   1.932   0.806
 3182SOL     OW11442   8.666   1.206   3.047
 3182SOL    HW111443   8.705   1.154   2.977
 3182SOL    HW211444   8.636   1.142   3.111
 3183SOL     OW11445   0.271   7.100   4.770
 3183SOL    HW111446   0.255   7.020   4.719
 3183SOL    HW211447   0.244   7.171   4.712
 3184SOL     OW11448   4.605   6.472   9.293
 3184SOL    HW111449   4.554   6.404   9.336
 3184SOL    HW211450   4.557   6.553   9.310
 3185SOL     OW11451   3.390  13.319  11.917
 3185SOL    HW111452   3.371  13.233  11.953
 3185SOL    HW211453   3.485  13.329  11.926
 3186SOL     OW11454  10.617   6.879  12.253
 3186SOL    HW111455  10.701   6.833  12.245
 3186SOL    HW211456  10.593   6.900  12.163
 3187SOL     OW11457   9.467   8.740   2.384
 3187SOL    HW111458   9.539   8.797   2.414
 3187SOL    HW211459   9.499   8.651   2.401
 3188SOL     OW11460  10.619  12.641   5.378
 3188SOL    HW111461  10.639  12.587   5.454
 3188SOL    HW211462  10.685  12.710   5.379
 3189SOL     OW11463   7.162  13.294   4.540
 3189SOL    HW111464   7.212  13.236   4.597
 3189SOL    HW211465   7.199  13.280   4.453
 3190SOL     OW11466   3.117   0.474  10.509
 3190SOL    HW111467   3.061   0.460  10.433
 3190SOL    HW211468   3.132   0.568  10.510
 3191SOL     OW11469   7.620   2.574  12.682
 3191SOL    HW111470   7.650   2.601  12.594
 3191SOL    HW211471   7.626   2.479  12.681
 3192SOL     OW11472   3.875   6.374  13.086
 3192SOL    HW111473   3.955   6.423  13.107
 3192SOL    HW211474   3.906   6.287  13.061
 3193SOL     OW11475   8.773  10.625   0.046
 3193SOL    HW111476   8.711  10.612  14.848
 3193SOL    HW211477   8.826  10.700   0.019
 3194SOL     OW11478   8.837   0.466  10.669
 3194SOL    HW111479   8.910   0.518  10.635
 3194SOL    HW211480   8.878   0.401  10.726
 3195SOL     OW11481  13.775   2.387   6.649
 3195SOL    HW111482  13.842   2.408   6.714
 3195SOL    HW211483  13.692   2.400   6.695
 3196SOL     OW11484   9.783  10.351   2.321
 3196SOL    HW111485   9.829  10.341   2.404
 3196SOL    HW211486   9.772  10.446   2.311
 3197SOL     OW11487   4.154   9.521   2.497
 3197SOL    HW111488   4.072   9.571   2.485
 3197SOL    HW211489   4.196   9.524   2.411
 3198SOL     OW11490   5.477  10.909   7.762
 3198SOL    HW111491   5.435  10.983   7.806
 3198SOL    HW211492   5.539  10.950   7.701
 3199SOL     OW11493   3.908   8.930   8.419
 3199SOL    HW111494   3.949   8.845   8.435
 3199SOL    HW211495   3.969   8.993   8.457
 3200SOL     OW11496  13.512   6.485   7.651
 3200SOL    HW111497  13.421   6.457   7.658
 3200SOL    HW211498  13.511   6.553   7.584
 3201SOL     OW11499   9.258   1.592   1.355
 3201SOL    HW111500   9.199   1.589   1.429
 3201SOL    HW211501   9.240   1.676   1.312
 3202SOL     OW11502  11.408   3.553   4.512
 3202SOL    HW111503  11.320   3.576   4.482
 3202SOL    HW211504  11.422   3.465   4.478
 3203SOL     OW11505  13.694  10.460  13.357
 3203SOL    HW111506  13.735  10.418  13.280
 3203SOL    HW211507  13.733  10.548  13.359
 3204SOL     OW11508   9.954   7.057   2.907
 3204SOL    HW111509  10.018   7.040   2.976
 3204SOL    HW211510   9.971   7.147   2.879
 3205SOL     OW11511   1.072   9.939   4.363
 3205SOL    HW111512   1.023   9.858   4.378
 3205SOL    HW211513   1.026   9.981   4.290
 3206SOL     OW11514   6.119   3.868  12.199
 3206SOL    HW111515   6.123   3.776  12.222
 3206SOL    HW211516   6.026   3.887  12.191
 3207SOL     OW11517   2.511   3.647   5.184
 3207SOL    HW111518   2.462   3.565   5.173
 3207SOL    HW211519   2.445   3.712   5.206
 3208SOL     OW11520  10.129   1.584   6.774
 3208SOL    HW111521  10.194   1.597   6.842
 3208SOL    HW211522  10.117   1.489   6.771
 3209SOL     OW11523   6.542   1.243  13.616
 3209SOL    HW111524   6.634   1.235  13.593
 3209SOL    HW211525   6.542   1.287  13.701
 3210SOL     OW11526   5.638   0.771  11.447
 3210SOL    HW111527   5.641   0.709  11.520
 3210SOL    HW211528   5.581   0.841  11.477
 3211SOL     OW11529   6.835   7.386  12.282
 3211SOL    HW111530   6.862   7.361  12.194
 3211SOL    HW211531   6.906   7.356  12.339
 3212SOL     OW11532   6.899  11.210  14.228
 3212SOL    HW111533   6.854  11.289  14.199
 3212SOL    HW211534   6.987  11.240  14.250
 3213SOL     OW11535   5.972  13.296  12.745
 3213SOL    HW111536   5.899  13.245  12.781
 3213SOL    HW211537   6.018  13.329  12.822
 3214SOL     OW11538   0.825   6.109   3.504
 3214SOL    HW111539   0.778   6.051   3.563
 3214SOL    HW211540   0.861   6.051   3.436
 3215SOL     OW11541   2.537   4.127   6.111
 3215SOL    HW111542   2.462   4.132   6.171
 3215SOL    HW211543   2.612   4.114   6.168
 3216SOL     OW11544  12.121  11.540   2.395
 3216SOL    HW111545  12.174  11.607   2.437
 3216SOL    HW211546  12.083  11.491   2.467
 3217SOL     OW11547   6.533   2.739   1.584
 3217SOL    HW111548   6.528   2.799   1.509
 3217SOL    HW211549   6.617   2.759   1.625
 3218SOL     OW11550   1.003  12.666   2.039
 3218SOL    HW111551   0.979  12.661   2.132
 3218SOL    HW211552   1.021  12.575   2.015
 3219SOL     OW11553   7.269   6.608  12.545
 3219SOL    HW111554   7.343   6.658  12.512
 3219SOL    HW211555   7.308   6.539  12.599
 3220SOL     OW11556   2.797   3.932   5.235
 3220SOL    HW111557   2.841   3.995   5.292
 3220SOL    HW211558   2.704   3.948   5.251
 3221SOL     OW11559  12.345  10.683  11.161
 3221SOL    HW111560  12.326  10.655  11.072
 3221SOL    HW211561  12.279  10.749  11.181
 3222SOL     OW11562   5.373   6.741   9.173
 3222SOL    HW111563   5.379   6.836   9.163
 3222SOL    HW211564   5.369   6.707   9.083
 3223SOL     OW11565   6.187   8.814   2.736
 3223SOL    HW111566   6.242   8.797   2.813
 3223SOL    HW211567   6.200   8.737   2.681
 3224SOL     OW11568  12.747   4.392  12.703
 3224SOL    HW111569  12.721   4.475  12.744
 3224SOL    HW211570  12.702   4.325  12.755
 3225SOL     OW11571   3.378   8.109   3.218
 3225SOL    HW111572   3.425   8.191   3.236
 3225SOL    HW211573   3.338   8.086   3.302
 3226SOL     OW11574   0.360  12.222   8.541
 3226SOL    HW111575   0.416  12.171   8.483
 3226SOL    HW211576   0.273  12.213   8.504
 3227SOL     OW11577   0.364   2.596  10.812
 3227SOL    HW111578   0.309   2.556  10.880
 3227SOL    HW211579   0.391   2.679  10.850
 3228SOL     OW11580   5.503  12.796   6.179
 3228SOL    HW111581   5.500  12.731   6.248
 3228SOL    HW211582   5.411  12.810   6.156
 3229SOL     OW11583   5.729   3.078   6.218
 3229SOL    HW111584   5.824   3.076   6.223
 3229SOL    HW211585   5.700   3.001   6.267
 3230SOL     OW11586   5.166  12.037   9.173
 3230SOL    HW111587   5.128  12.071   9.091
 3230SOL    HW211588   5.098  12.051   9.238
 3231SOL     OW11589   4.672  13.408   2.379
 3231SOL    HW111590   4.760  13.371   2.389
 3231SOL    HW211591   4.653  13.447   2.464
 3232SOL     OW11592   0.854   6.704   9.622
 3232SOL    HW111593   0.923   6.648   9.585
 3232SOL    HW211594   0.863   6.695   9.716
 3233SOL     OW11595   5.167   8.593   3.094
 3233SOL    HW111596   5.160   8.499   3.110
 3233SOL    HW211597   5.253   8.604   3.054
 3234SOL     OW11598  12.586  13.188  14.751
 3234SOL    HW111599  12.500  13.229  14.742
 3234SOL    HW211600  12.575  13.126  14.823
 3235SOL     OW11601   6.127  13.721   2.863
 3235SOL    HW111602   6.109  13.627   2.857
 3235SOL    HW211603   6.223  13.728   2.855
 3236SOL     OW11604   1.187   0.766  10.121
 3236SOL    HW111605   1.258   0.792  10.063
 3236SOL    HW211606   1.224   0.696  10.175
 3237SOL     OW11607  11.876  13.468   7.204
 3237SOL    HW111608  11.843  13.425   7.283
 3237SOL    HW211609  11.972  13.467   7.215
 3238SOL     OW11610   8.440   9.784   2.506
 3238SOL    HW111611   8.355   9.785   2.462
 3238SOL    HW211612   8.500   9.823   2.443
 3239SOL     OW11613  10.007   4.537  12.749
 3239SOL    HW111614   9.947   4.473  12.787
 3239SOL    HW211615  10.034   4.592  12.824
 3240SOL     OW11616   4.103   8.598   6.395
 3240SOL    HW111617   4.144   8.566   6.315
 3240SOL    HW211618   4.170   8.652   6.437
 3241SOL     OW11619   2.856  10.640  10.846
 3241SOL    HW111620   2.930  10.604  10.895
 3241SOL    HW211621   2.806  10.690  10.910
 3242SOL     OW11622   1.912   4.730  13.843
 3242SOL    HW111623   1.820   4.721  13.817
 3242SOL    HW211624   1.939   4.640  13.863
 3243SOL     OW11625   6.441   9.376   7.031
 3243SOL    HW111626   6.384   9.363   7.107
 3243SOL    HW211627   6.491   9.295   7.025
 3244SOL     OW11628   8.608  10.571   1.702
 3244SOL    HW111629   8.660  10.494   1.676
 3244SOL    HW211630   8.643  10.642   1.649
 3245SOL     OW11631  12.059  13.751  10.363
 3245SOL    HW111632  11.976  13.775  10.404
 3245SOL    HW211633  12.040  13.749  10.270
 3246SOL     OW11634   0.979   3.311  11.166
 3246SOL    HW111635   0.949   3.388  11.117
 3246SOL    HW211636   0.958   3.332  11.257
 3247SOL     OW11637   3.039   7.442  13.862
 3247SOL    HW111638   3.019   7.402  13.947
 3247SOL    HW211639   3.098   7.515  13.883
 3248SOL     OW11640   4.407   2.622   7.365
 3248SOL    HW111641   4.416   2.652   7.455
 3248SOL    HW211642   4.495   2.630   7.328
 3249SOL     OW11643   8.100  10.456  13.359
 3249SOL    HW111644   8.057  10.385  13.406
 3249SOL    HW211645   8.061  10.536  13.395
 3250SOL     OW11646   6.253   9.332  14.141
 3250SOL    HW111647   6.271   9.242  14.116
 3250SOL    HW211648   6.274   9.384  14.063
 3251SOL     OW11649   9.524   7.904  14.604
 3251SOL    HW111650   9.566   7.989  14.592
 3251SOL    HW211651   9.432   7.924  14.620
 3252SOL     OW11652  13.110   2.074   5.334
 3252SOL    HW111653  13.202   2.098   5.330
 3252SOL    HW211654  13.088   2.077   5.427
 3253SOL     OW11655   9.876  13.733   8.471
 3253SOL    HW111656   9.821  13.794   8.520
 3253SOL    HW211657   9.959  13.779   8.458
 3254SOL     OW11658  14.756   3.783   4.925
 3254SOL    HW111659  14.809   3.743   4.857
 3254SOL    HW211660  14.666   3.761   4.902
 3255SOL     OW11661  14.021   8.009   9.240
 3255SOL    HW111662  13.934   8.049   9.247
 3255SOL    HW211663  14.041   7.979   9.329
 3256SOL     OW11664   3.174   0.914   9.287
 3256SOL    HW111665   3.178   0.992   9.231
 3256SOL    HW211666   3.182   0.947   9.376
 3257SOL     OW11667   6.534   5.697   5.760
 3257SOL    HW111668   6.543   5.630   5.828
 3257SOL    HW211669   6.545   5.780   5.807
 3258SOL     OW11670   2.879  10.795   9.381
 3258SOL    HW111671   2.958  10.801   9.435
 3258SOL    HW211672   2.835  10.716   9.412
 3259SOL     OW11673   2.301   2.358   0.623
 3259SOL    HW111674   2.249   2.309   0.558
 3259SOL    HW211675   2.241   2.369   0.697
 3260SOL     OW11676  14.530   4.414  11.501
 3260SOL    HW111677  14.561   4.377  11.419
 3260SOL    HW211678  14.606   4.460  11.537
 3261SOL     OW11679  13.827  11.488   3.526
 3261SOL    HW111680  13.883  11.564   3.512
 3261SOL    HW211681  13.813  11.486   3.621
 3262SOL     OW11682   5.487   8.525   5.602
 3262SOL    HW111683   5.562   8.565   5.645
 3262SOL    HW211684   5.451   8.464   5.667
 3263SOL     OW11685  10.543  10.502  10.618
 3263SOL    HW111686  10.530  10.591  10.585
 3263SOL    HW211687  10.474  10.450  10.578
 3264SOL     OW11688  12.556   0.210   8.682
 3264SOL    HW111689  12.491   0.275   8.657
 3264SOL    HW211690  12.614   0.256   8.743
 3265SOL     OW11691   5.793  10.146  13.021
 3265SOL    HW111692   5.727  10.140  12.952
 3265SOL    HW211693   5.855  10.211  12.990
 3266SOL     OW11694  14.827   4.995   4.215
 3266SOL    HW111695   0.009   4.995   4.138
 3266SOL    HW211696  14.806   5.087   4.229
 3267SOL     OW11697   6.302  13.943  13.904
 3267SOL    HW111698   6.367  13.912  13.841
 3267SOL    HW211699   6.279  14.031  13.873
 3268SOL     OW11700   7.670  14.282   6.096
 3268SOL    HW111701   7.585  14.292   6.054
 3268SOL    HW211702   7.661  14.203   6.150
 3269SOL     OW11703   3.348  13.206  11.361
 3269SOL    HW111704   3.261  13.239  11.381
 3269SOL    HW211705   3.362  13.135  11.424
 3270SOL     OW11706  13.562   6.219   5.111
 3270SOL    HW111707  13.565   6.231   5.016
 3270SOL    HW211708  13.469   6.208   5.130
 3271SOL     OW11709   7.551   3.782   3.090
 3271SOL    HW111710   7.483   3.727   3.128
 3271SOL    HW211711   7.578   3.736   3.010
 3272SOL     OW11712  10.571   6.257   2.583
 3272SOL    HW111713  10.540   6.170   2.606
 3272SOL    HW211714  10.662   6.243   2.556
 3273SOL     OW11715  14.733  12.868   9.828
 3273SOL    HW111716  14.739  12.938   9.763
 3273SOL    HW211717  14.639  12.850   9.835
 3274SOL     OW11718   7.235   5.100   5.959
 3274SOL    HW111719   7.140   5.096   5.948
 3274SOL    HW211720   7.254   5.031   6.023
 3275SOL     OW11721   7.664  11.061   5.707
 3275SOL    HW111722   7.722  11.121   5.661
 3275SOL    HW211723   7.723  10.999   5.751
 3276SOL     OW11724   8.867   3.530  12.390
 3276SOL    HW111725   8.899   3.465  12.453
 3276SOL    HW211726   8.912   3.507  12.308
 3277SOL     OW11727  13.948   6.258   8.381
 3277SOL    HW111728  13.864   6.217   8.404
 3277SOL    HW211729  14.000   6.186   8.344
 3278SOL     OW11730   6.750  12.496   1.594
 3278SOL    HW111731   6.698  12.437   1.650
 3278SOL    HW211732   6.730  12.583   1.628
 3279SOL     OW11733   4.840   9.298   6.298
 3279SOL    HW111734   4.898   9.254   6.236
 3279SOL    HW211735   4.864   9.390   6.291
 3280SOL     OW11736   6.448   8.920   9.509
 3280SOL    HW111737   6.390   8.858   9.466
 3280SOL    HW211738   6.396   8.955   9.582
 3281SOL     OW11739   1.350  11.348  11.756
 3281SOL    HW111740   1.396  11.330  11.838
 3281SOL    HW211741   1.289  11.419  11.778
 3282SOL     OW11742   3.623   2.064   1.325
 3282SOL    HW111743   3.533   2.092   1.341
 3282SOL    HW211744   3.664   2.138   1.280
 3283SOL     OW11745  13.282  10.466   3.793
 3283SOL    HW111746  13.315  10.433   3.876
 3283SOL    HW211747  13.358  10.507   3.752
 3284SOL     OW11748   1.520  14.501   5.262
 3284SOL    HW111749   1.513  14.474   5.354
 3284SOL    HW211750   1.580  14.576   5.264
 3285SOL     OW11751   8.290   3.912   2.482
 3285SOL    HW111752   8.385   3.916   2.488
 3285SOL    HW211753   8.272   3.880   2.394
 3286SOL     OW11754   5.834  13.565   9.623
 3286SOL    HW111755   5.812  13.579   9.715
 3286SOL    HW211756   5.816  13.649   9.581
 3287SOL     OW11757   9.928  14.063  11.966
 3287SOL    HW111758   9.952  14.055  12.058
 3287SOL    HW211759   9.872  13.987  11.948
 3288SOL     OW11760   4.868  11.120   3.859
 3288SOL    HW111761   4.790  11.105   3.806
 3288SOL    HW211762   4.834  11.159   3.940
 3289SOL     OW11763   9.492  14.395  12.734
 3289SOL    HW111764   9.468  14.322  12.791
 3289SOL    HW211765   9.586  14.385  12.721
 3290SOL     OW11766   5.612   4.994   9.128
 3290SOL    HW111767   5.656   4.912   9.107
 3290SOL    HW211768   5.541   4.969   9.187
 3291SOL     OW11769   7.233   2.738   5.636
 3291SOL    HW111770   7.288   2.660   5.629
 3291SOL    HW211771   7.191   2.731   5.721
 3292SOL     OW11772   1.920  12.926  12.375
 3292SOL    HW111773   1.893  12.906  12.286
 3292SOL    HW211774   2.015  12.927  12.373
 3293SOL     OW11775   1.331  12.351  12.300
 3293SOL    HW111776   1.316  12.435  12.343
 3293SOL    HW211777   1.260  12.344  12.236
 3294SOL     OW11778  12.142  11.684   0.307
 3294SOL    HW111779  12.166  11.750   0.371
 3294SOL    HW211780  12.157  11.600   0.352
 3295SOL     OW11781   7.168   4.323   2.757
 3295SOL    HW111782   7.130   4.244   2.793
 3295SOL    HW211783   7.168   4.309   2.662
 3296SOL     OW11784   4.107   6.592   7.199
 3296SOL    HW111785   4.052   6.599   7.277
 3296SOL    HW211786   4.067   6.521   7.148
 3297SOL     OW11787  11.527  11.559  12.971
 3297SOL    HW111788  11.502  11.503  13.044
 3297SOL    HW211789  11.494  11.514  12.893
 3298SOL     OW11790   4.557   9.830  11.155
 3298SOL    HW111791   4.606   9.766  11.207
 3298SOL    HW211792   4.467   9.795  11.154
 3299SOL     OW11793  13.615   3.313   5.177
 3299SOL    HW111794  13.610   3.402   5.212
 3299SOL    HW211795  13.579   3.259   5.247
 3300SOL     OW11796   5.114   8.047   7.739
 3300SOL    HW111797   5.198   8.079   7.706
 3300SOL    HW211798   5.086   7.983   7.673
 3301SOL     OW11799   7.798  13.383  12.885
 3301SOL    HW111800   7.807  13.385  12.789
 3301SOL    HW211801   7.707  13.409  12.900
 3302SOL     OW11802   1.684   2.130   4.427
 3302SOL    HW111803   1.644   2.212   4.457
 3302SOL    HW211804   1.771   2.131   4.467
 3303SOL     OW11805  14.839  14.066   3.896
 3303SOL    HW111806  14.771  14.019   3.848
 3303SOL    HW211807  14.796  14.146   3.927
 3304SOL     OW11808   9.133   1.205   9.560
 3304SOL    HW111809   9.119   1.281   9.503
 3304SOL    HW211810   9.046   1.166   9.569
 3305SOL     OW11811   4.078   2.619   3.267
 3305SOL    HW111812   4.024   2.658   3.336
 3305SOL    HW211813   4.167   2.645   3.288
 3306SOL     OW11814  12.383   9.708   4.299
 3306SOL    HW111815  12.362   9.681   4.388
 3306SOL    HW211816  12.470   9.747   4.306
 3307SOL     OW11817   2.883   7.260   0.483
 3307SOL    HW111818   2.817   7.325   0.507
 3307SOL    HW211819   2.951   7.310   0.439
 3308SOL     OW11820   7.385   7.535  13.679
 3308SOL    HW111821   7.477   7.555  13.661
 3308SOL    HW211822   7.371   7.450  13.637
 3309SOL     OW11823   6.807   8.282   5.313
 3309SOL    HW111824   6.896   8.314   5.302
 3309SOL    HW211825   6.752   8.358   5.294
 3310SOL     OW11826  13.227  13.569   8.573
 3310SOL    HW111827  13.141  13.609   8.573
 3310SOL    HW211828  13.212  13.480   8.606
 3311SOL     OW11829   1.274   6.468   1.200
 3311SOL    HW111830   1.241   6.515   1.277
 3311SOL    HW211831   1.340   6.526   1.163
 3312SOL     OW11832   7.878  10.027   7.607
 3312SOL    HW111833   7.951  10.089   7.606
 3312SOL    HW211834   7.889   9.975   7.528
 3313SOL     OW11835   6.817   6.577   5.884
 3313SOL    HW111836   6.886   6.619   5.834
 3313SOL    HW211837   6.766   6.528   5.820
 3314SOL     OW11838   6.222   3.577   7.962
 3314SOL    HW111839   6.246   3.552   8.051
 3314SOL    HW211840   6.304   3.576   7.913
 3315SOL     OW11841   0.038   3.196   9.662
 3315SOL    HW111842   0.037   3.291   9.650
 3315SOL    HW211843  14.821   3.170   9.657
 3316SOL     OW11844  14.413   3.665   1.977
 3316SOL    HW111845  14.407   3.603   2.049
 3316SOL    HW211846  14.506   3.686   1.970
 3317SOL     OW11847  13.929  11.837   6.835
 3317SOL    HW111848  13.896  11.915   6.789
 3317SOL    HW211849  14.021  11.856   6.851
 3318SOL     OW11850   6.846   7.438  13.883
 3318SOL    HW111851   6.876   7.437  13.973
 3318SOL    HW211852   6.767   7.383  13.883
 3319SOL     OW11853   4.424  13.148   2.490
 3319SOL    HW111854   4.374  13.072   2.458
 3319SOL    HW211855   4.398  13.219   2.431
 3320SOL     OW11856   7.078   6.370  11.899
 3320SOL    HW111857   7.113   6.455  11.924
 3320SOL    HW211858   7.032   6.339  11.977
 3321SOL     OW11859   2.928   0.411   8.759
 3321SOL    HW111860   2.985   0.444   8.689
 3321SOL    HW211861   2.988   0.383   8.827
 3322SOL     OW11862   2.198   4.341   1.273
 3322SOL    HW111863   2.157   4.420   1.306
 3322SOL    HW211864   2.229   4.295   1.351
 3323SOL     OW11865   0.101  10.695   6.034
 3323SOL    HW111866   0.042  10.675   6.107
 3323SOL    HW211867   0.048  10.749   5.975
 3324SOL     OW11868   4.253   4.599  14.846
 3324SOL    HW111869   4.277   4.598  14.754
 3324SOL    HW211870   4.262   4.508   0.000
 3325SOL     OW11871  14.626   3.737  12.482
 3325SOL    HW111872  14.539   3.730  12.441
 3325SOL    HW211873  14.627   3.668  12.548
 3326SOL     OW11874   9.988   7.895   7.980
 3326SOL    HW111875  10.060   7.863   7.926
 3326SOL    HW211876   9.941   7.816   8.006
 3327SOL     OW11877   7.049   5.023   3.372
 3327SOL    HW111878   7.009   4.958   3.429
 3327SOL    HW211879   7.063   5.099   3.429
 3328SOL     OW11880  11.892  14.819   9.137
 3328SOL    HW111881  11.882  14.724   9.141
 3328SOL    HW211882  11.978  14.836   9.174
 3329SOL     OW11883   6.495   7.551  13.394
 3329SOL    HW111884   6.561   7.481  13.394
 3329SOL    HW211885   6.541   7.628  13.361
 3330SOL     OW11886  11.797   8.714   5.885
 3330SOL    HW111887  11.844   8.630   5.879
 3330SOL    HW211888  11.848   8.774   5.830
 3331SOL     OW11889   9.122   1.463   8.263
 3331SOL    HW111890   9.169   1.533   8.218
 3331SOL    HW211891   9.029   1.482   8.249
 3332SOL     OW11892   9.195   4.392   1.035
 3332SOL    HW111893   9.154   4.457   0.978
 3332SOL    HW211894   9.216   4.319   0.977
 3333SOL     OW11895   7.388   0.359   0.949
 3333SOL    HW111896   7.337   0.314   0.882
 3333SOL    HW211897   7.351   0.329   1.032
 3334SOL     OW11898   9.875   9.039   2.593
 3334SOL    HW111899   9.954   8.994   2.564
 3334SOL    HW211900   9.895   9.132   2.579
 3335SOL     OW11901   5.980   4.617   1.503
 3335SOL    HW111902   6.033   4.697   1.505
 3335SOL    HW211903   5.953   4.607   1.411
 3336SOL     OW11904   9.952   9.528   8.984
 3336SOL    HW111905   9.990   9.532   9.072
 3336SOL    HW211906   9.963   9.616   8.949
 3337SOL     OW11907  13.454   8.110  10.257
 3337SOL    HW111908  13.419   8.199  10.247
 3337SOL    HW211909  13.395   8.069  10.321
 3338SOL     OW11910   4.450   2.478   8.602
 3338SOL    HW111911   4.425   2.443   8.517
 3338SOL    HW211912   4.381   2.540   8.625
 3339SOL     OW11913   6.688  13.654  14.756
 3339SOL    HW111914   6.779  13.624  14.760
 3339SOL    HW211915   6.640  13.579  14.719
 3340SOL     OW11916  13.222   3.357   4.719
 3340SOL    HW111917  13.233   3.433   4.777
 3340SOL    HW211918  13.260   3.284   4.768
 3341SOL     OW11919   9.877   2.010   7.966
 3341SOL    HW111920   9.810   1.980   8.026
 3341SOL    HW211921   9.959   1.979   8.004
 3342SOL     OW11922   6.576   4.829   7.899
 3342SOL    HW111923   6.638   4.759   7.881
 3342SOL    HW211924   6.576   4.881   7.819
 3343SOL     OW11925   0.322   3.326   7.792
 3343SOL    HW111926   0.346   3.383   7.865
 3343SOL    HW211927   0.283   3.249   7.833
 3344SOL     OW11928  11.955   7.734   7.015
 3344SOL    HW111929  12.004   7.665   6.971
 3344SOL    HW211930  12.022   7.791   7.053
 3345SOL     OW11931   4.899   2.859   9.361
 3345SOL    HW111932   4.848   2.935   9.390
 3345SOL    HW211933   4.833   2.791   9.344
 3346SOL     OW11934   0.775  12.292  13.543
 3346SOL    HW111935   0.739  12.238  13.472
 3346SOL    HW211936   0.870  12.275  13.540
 3347SOL     OW11937   1.870  10.846   8.770
 3347SOL    HW111938   1.820  10.764   8.767
 3347SOL    HW211939   1.875  10.874   8.679
 3348SOL     OW11940   9.336   1.107   5.810
 3348SOL    HW111941   9.299   1.106   5.722
 3348SOL    HW211942   9.423   1.067   5.799
 3349SOL     OW11943   0.752   3.430   8.628
 3349SOL    HW111944   0.775   3.522   8.630
 3349SOL    HW211945   0.697   3.417   8.706
 3350SOL     OW11946   6.458   3.992   6.496
 3350SOL    HW111947   6.474   3.914   6.548
 3350SOL    HW211948   6.437   3.959   6.409
 3351SOL     OW11949   7.890  10.132  12.698
 3351SOL    HW111950   7.945  10.117  12.621
 3351SOL    HW211951   7.801  10.119  12.667
 3352SOL     OW11952   9.707  13.384   2.207
 3352SOL    HW111953   9.694  13.396   2.301
 3352SOL    HW211954   9.659  13.456   2.167
 3353SOL     OW11955   8.574  14.586   8.631
 3353SOL    HW111956   8.565  14.564   8.724
 3353SOL    HW211957   8.577  14.502   8.586
 3354SOL     OW11958   0.506   6.412   8.437
 3354SOL    HW111959   0.423   6.379   8.401
 3354SOL    HW211960   0.551   6.334   8.469
 3355SOL     OW11961   1.109  13.563   5.124
 3355SOL    HW111962   1.076  13.477   5.152
 3355SOL    HW211963   1.143  13.602   5.204
 3356SOL     OW11964   1.289   2.270  13.505
 3356SOL    HW111965   1.216   2.291  13.446
 3356SOL    HW211966   1.287   2.175  13.513
 3357SOL     OW11967  13.926  12.765   3.696
 3357SOL    HW111968  13.888  12.847   3.727
 3357SOL    HW211969  13.850  12.714   3.667
 3358SOL     OW11970   0.297   4.351   1.238
 3358SOL    HW111971   0.351   4.425   1.265
 3358SOL    HW211972   0.357   4.277   1.233
 3359SOL     OW11973   6.157   9.500   0.898
 3359SOL    HW111974   6.107   9.421   0.919
 3359SOL    HW211975   6.092   9.570   0.894
 3360SOL     OW11976   5.811   1.509   9.434
 3360SOL    HW111977   5.886   1.566   9.452
 3360SOL    HW211978   5.841   1.454   9.362
 3361SOL     OW11979  13.001  13.395   8.631
 3361SOL    HW111980  12.906  13.381   8.629
 3361SOL    HW211981  13.032  13.343   8.705
 3362SOL     OW11982   4.998  10.424   0.212
 3362SOL    HW111983   4.985  10.419   0.117
 3362SOL    HW211984   5.053  10.501   0.224
 3363SOL     OW11985   1.903   0.438  12.171
 3363SOL    HW111986   1.935   0.516  12.127
 3363SOL    HW211987   1.982   0.394  12.202
 3364SOL     OW11988   7.353   4.279   6.512
 3364SOL    HW111989   7.312   4.364   6.494
 3364SOL    HW211990   7.416   4.267   6.441
 3365SOL     OW11991   2.025  10.588  11.441
 3365SOL    HW111992   2.016  10.497  11.468
 3365SOL    HW211993   1.947  10.631  11.477
 3366SOL     OW11994   4.902   8.731  12.868
 3366SOL    HW111995   4.994   8.709  12.882
 3366SOL    HW211996   4.881   8.693  12.782
 3367SOL     OW11997   9.639   9.513   5.297
 3367SOL    HW111998   9.632   9.581   5.364
 3367SOL    HW211999   9.704   9.548   5.236
 3368SOL     OW12000   9.401   2.725  13.891
 3368SOL    HW112001   9.410   2.744  13.797
 3368SOL    HW212002   9.465   2.782  13.933
 3369SOL     OW12003   8.227   2.810   6.031
 3369SOL    HW112004   8.321   2.826   6.036
 3369SOL    HW212005   8.188   2.896   6.017
 3370SOL     OW12006  14.017   6.004   3.589
 3370SOL    HW112007  14.092   6.059   3.565
 3370SOL    HW212008  14.012   5.939   3.519
 3371SOL     OW12009  12.005  12.719  11.454
 3371SOL    HW112010  12.088  12.677  11.431
 3371SOL    HW212011  12.030  12.809  11.477
 3372SOL     OW12012  12.522   5.088  10.762
 3372SOL    HW112013  12.583   5.044  10.821
 3372SOL    HW212014  12.471   5.146  10.818
 3373SOL     OW12015  14.487   6.462  11.349
 3373SOL    HW112016  14.403   6.502  11.326
 3373SOL    HW212017  14.510   6.410  11.272
 3374SOL     OW12018   6.398   1.715   7.237
 3374SOL    HW112019   6.453   1.775   7.187
 3374SOL    HW212020   6.380   1.643   7.177
 3375SOL     OW12021  12.778  13.264   9.440
 3375SOL    HW112022  12.824  13.190   9.400
 3375SOL    HW212023  12.800  13.258   9.533
 3376SOL     OW12024   5.558  14.014   5.896
 3376SOL    HW112025   5.566  13.920   5.879
 3376SOL    HW212026   5.535  14.020   5.988
 3377SOL     OW12027   5.298   8.447  13.623
 3377SOL    HW112028   5.377   8.426  13.672
 3377SOL    HW212029   5.318   8.531  13.581
 3378SOL     OW12030   4.526   5.646   9.458
 3378SOL    HW112031   4.508   5.654   9.552
 3378SOL    HW212032   4.611   5.601   9.453
 3379SOL     OW12033   8.291   8.327   8.810
 3379SOL    HW112034   8.231   8.394   8.844
 3379SOL    HW212035   8.235   8.267   8.761
 3380SOL     OW12036   1.328   1.888  12.537
 3380SOL    HW112037   1.251   1.838  12.560
 3380SOL    HW212038   1.303   1.935  12.457
 3381SOL     OW12039  10.589   8.498   0.348
 3381SOL    HW112040  10.654   8.498   0.277
 3381SOL    HW212041  10.637   8.463   0.424
 3382SOL     OW12042  10.128   1.224   7.307
 3382SOL    HW112043  10.150   1.310   7.342
 3382SOL    HW212044  10.076   1.183   7.376
 3383SOL     OW12045  14.166   7.194   9.793
 3383SOL    HW112046  14.139   7.136   9.723
 3383SOL    HW212047  14.110   7.171   9.867
 3384SOL     OW12048  10.340   9.940   4.722
 3384SOL    HW112049  10.289   9.964   4.799
 3384SOL    HW212050  10.368  10.023   4.684
 3385SOL     OW12051  10.992  11.041  14.347
 3385SOL    HW112052  11.082  11.023  14.378
 3385SOL    HW212053  10.943  11.057  14.428
 3386SOL     OW12054  12.477   0.369   6.579
 3386SOL    HW112055  12.564   0.347   6.545
 3386SOL    HW212056  12.487   0.458   6.614
 3387SOL     OW12057  11.371   4.507  13.776
 3387SOL    HW112058  11.368   4.427  13.828
 3387SOL    HW212059  11.308   4.493  13.705
 3388SOL     OW12060  14.134  14.611  10.122
 3388SOL    HW112061  14.055  14.601  10.174
 3388SOL    HW212062  14.118  14.560  10.043
 3389SOL     OW12063   2.319  11.867  11.833
 3389SOL    HW112064   2.240  11.884  11.781
 3389SOL    HW212065   2.294  11.890  11.922
 3390SOL     OW12066   2.508   9.565  10.381
 3390SOL    HW112067   2.424   9.530  10.352
 3390SOL    HW212068   2.508   9.656  10.351
 3391SOL     OW12069   4.539   5.564   8.542
 3391SOL    HW112070   4.479   5.503   8.499
 3391SOL    HW212071   4.516   5.650   8.505
 3392SOL     OW12072  11.935   4.609   8.728
 3392SOL    HW112073  11.954   4.646   8.814
 3392SOL    HW212074  11.894   4.525   8.747
 3393SOL     OW12075   2.767   2.389  10.780
 3393SOL    HW112076   2.840   2.415  10.837
 3393SOL    HW212077   2.750   2.298  10.802
 3394SOL     OW12078   8.766   1.935   7.844
 3394SOL    HW112079   8.703   1.917   7.914
 3394SOL    HW212080   8.802   2.021   7.867
 3395SOL     OW12081  14.693   0.500   0.529
 3395SOL    HW112082  14.767   0.559   0.517
 3395SOL    HW212083  14.628   0.552   0.576
 3396SOL     OW12084   8.757   0.036  12.468
 3396SOL    HW112085   8.819  14.839  12.460
 3396SOL    HW212086   8.673  14.873  12.443
 3397SOL     OW12087   5.117   7.327   0.747
 3397SOL    HW112088   5.035   7.354   0.787
 3397SOL    HW212089   5.135   7.241   0.785
 3398SOL     OW12090   1.893   8.910  13.279
 3398SOL    HW112091   1.971   8.932  13.227
 3398SOL    HW212092   1.928   8.874  13.361
 3399SOL     OW12093   6.940   8.958   2.722
 3399SOL    HW112094   6.859   8.962   2.671
 3399SOL    HW212095   6.988   9.037   2.697
 3400SOL     OW12096  13.308   0.894   0.879
 3400SOL    HW112097  13.249   0.955   0.925
 3400SOL    HW212098  13.249   0.837   0.830
 3401SOL     OW12099   8.346   7.844   0.161
 3401SOL    HW112100   8.336   7.754   0.193
 3401SOL    HW212101   8.260   7.865   0.124
 3402SOL     OW12102   4.008   0.966   8.367
 3402SOL    HW112103   3.917   0.939   8.382
 3402SOL    HW212104   4.002   1.060   8.350
 3403SOL     OW12105   8.147   0.643   0.399
 3403SOL    HW112106   8.200   0.571   0.432
 3403SOL    HW212107   8.073   0.648   0.459
 3404SOL     OW12108   1.286  14.156   3.209
 3404SOL    HW112109   1.236  14.230   3.244
 3404SOL    HW212110   1.352  14.138   3.276
 3405SOL     OW12111   5.232   7.515   5.507
 3405SOL    HW112112   5.268   7.467   5.582
 3405SOL    HW212113   5.238   7.453   5.434
 3406SOL     OW12114   1.672   0.152   0.910
 3406SOL    HW112115   1.697   0.243   0.926
 3406SOL    HW212116   1.577   0.152   0.913
 3407SOL     OW12117  10.551   1.976   2.020
 3407SOL    HW112118  10.644   1.978   2.043
 3407SOL    HW212119  10.508   2.024   2.090
 3408SOL     OW12120  12.457  13.127   5.142
 3408SOL    HW112121  12.366  13.142   5.168
 3408SOL    HW212122  12.505  13.204   5.173
 3409SOL     OW12123   1.388  10.428  10.784
 3409SOL    HW112124   1.450  10.454  10.852
 3409SOL    HW212125   1.309  10.402  10.832
 3410SOL     OW12126  14.683   2.100  11.126
 3410SOL    HW112127  14.747   2.044  11.170
 3410SOL    HW212128  14.733   2.148  11.061
 3411SOL     OW12129   1.278   2.023   7.900
 3411SOL    HW112130   1.357   2.044   7.850
 3411SOL    HW212131   1.307   2.026   7.992
 3412SOL     OW12132  13.653   1.252  10.828
 3412SOL    HW112133  13.589   1.283  10.763
 3412SOL    HW212134  13.607   1.181  10.874
 3413SOL     OW12135  10.190   2.488  13.386
 3413SOL    HW112136  10.116   2.447  13.342
 3413SOL    HW212137  10.266   2.436  13.359
 3414SOL     OW12138  12.482   0.965   0.220
 3414SOL    HW112139  12.454   0.886   0.266
 3414SOL    HW212140  12.557   0.997   0.270
 3415SOL     OW12141  11.040   4.885   1.040
 3415SOL    HW112142  11.050   4.833   1.119
 3415SOL    HW212143  11.066   4.973   1.065
 3416SOL     OW12144  11.192   4.746   3.143
 3416SOL    HW112145  11.260   4.723   3.079
 3416SOL    HW212146  11.215   4.697   3.221
 3417SOL     OW12147   5.765   1.578  12.845
 3417SOL    HW112148   5.753   1.605  12.936
 3417SOL    HW212149   5.783   1.659  12.798
 3418SOL     OW12150  12.445   7.043   3.536
 3418SOL    HW112151  12.402   7.127   3.550
 3418SOL    HW212152  12.514   7.061   3.471
 3419SOL     OW12153   1.299  11.136   3.917
 3419SOL    HW112154   1.283  11.189   3.996
 3419SOL    HW212155   1.384  11.095   3.933
 3420SOL     OW12156   9.705   4.376  14.430
 3420SOL    HW112157   9.775   4.419  14.479
 3420SOL    HW212158   9.627   4.428  14.450
 3421SOL     OW12159  14.688   8.535  10.063
 3421SOL    HW112160  14.732   8.451  10.075
 3421SOL    HW212161  14.595   8.514  10.070
 3422SOL     OW12162  12.329   2.122  10.025
 3422SOL    HW112163  12.296   2.171  10.100
 3422SOL    HW212164  12.419   2.153  10.015
 3423SOL     OW12165   2.247  12.908   8.386
 3423SOL    HW112166   2.155  12.882   8.384
 3423SOL    HW212167   2.273  12.900   8.478
 3424SOL     OW12168  12.621   9.762   7.657
 3424SOL    HW112169  12.567   9.816   7.715
 3424SOL    HW212170  12.708   9.802   7.662
 3425SOL     OW12171  11.450   4.585   8.098
 3425SOL    HW112172  11.539   4.620   8.104
 3425SOL    HW212173  11.393   4.661   8.106
 3426SOL     OW12174  14.844   9.185   3.389
 3426SOL    HW112175   0.022   9.260   3.361
 3426SOL    HW212176  14.754   9.216   3.384
 3427SOL     OW12177  12.208   7.739   8.324
 3427SOL    HW112178  12.252   7.812   8.280
 3427SOL    HW212179  12.255   7.730   8.407
 3428SOL     OW12180  11.762   8.709   3.507
 3428SOL    HW112181  11.800   8.687   3.422
 3428SOL    HW212182  11.792   8.798   3.523
 3429SOL     OW12183   3.581  11.759  13.920
 3429SOL    HW112184   3.625  11.681  13.953
 3429SOL    HW212185   3.488  11.735  13.920
 3430SOL     OW12186   6.397  10.685  13.892
 3430SOL    HW112187   6.357  10.748  13.952
 3430SOL    HW212188   6.363  10.600  13.919
 3431SOL     OW12189   6.129   9.394   0.300
 3431SOL    HW112190   6.195   9.430   0.241
 3431SOL    HW212191   6.070   9.467   0.318
 3432SOL     OW12192   0.277  13.696  11.028
 3432SOL    HW112193   0.220  13.767  11.058
 3432SOL    HW212194   0.271  13.629  11.097
 3433SOL     OW12195   1.888   6.448  12.888
 3433SOL    HW112196   1.958   6.388  12.914
 3433SOL    HW212197   1.808   6.395  12.895
 3434SOL     OW12198   0.104  12.317   2.976
 3434SOL    HW112199   0.104  12.254   3.048
 3434SOL    HW212200   0.146  12.395   3.012
 3435SOL     OW12201  14.847   6.738   7.238
 3435SOL    HW112202   0.063   6.710   7.228
 3435SOL    HW212203  14.797   6.656   7.242
 3436SOL     OW12204   2.941   9.418   2.937
 3436SOL    HW112205   2.903   9.454   2.857
 3436SOL    HW212206   3.013   9.362   2.906
 3437SOL     OW12207   0.053   0.893  14.697
 3437SOL    HW112208   0.030   0.975  14.741
 3437SOL    HW212209   0.075   0.919  14.607
 3438SOL     OW12210  11.658   5.712   0.755
 3438SOL    HW112211  11.672   5.678   0.844
 3438SOL    HW212212  11.672   5.806   0.763
 3439SOL     OW12213   7.726   6.087   2.933
 3439SOL    HW112214   7.763   6.153   2.992
 3439SOL    HW212215   7.801   6.032   2.908
 3440SOL     OW12216   3.371   3.329  12.287
 3440SOL    HW112217   3.392   3.236  12.288
 3440SOL    HW212218   3.276   3.332  12.273
 3441SOL     OW12219   3.443  14.601   6.963
 3441SOL    HW112220   3.495  14.521   6.977
 3441SOL    HW212221   3.484  14.643   6.888
 3442SOL     OW12222   9.434   8.279   7.758
 3442SOL    HW112223   9.456   8.186   7.756
 3442SOL    HW212224   9.469   8.310   7.841
 3443SOL     OW12225  10.944   5.537   7.374
 3443SOL    HW112226  10.875   5.482   7.336
 3443SOL    HW212227  10.902   5.582   7.447
 3444SOL     OW12228   5.514   6.665   1.196
 3444SOL    HW112229   5.480   6.592   1.247
 3444SOL    HW212230   5.443   6.687   1.135
 3445SOL     OW12231   2.556  11.019   8.108
 3445SOL    HW112232   2.522  10.989   8.192
 3445SOL    HW212233   2.526  11.110   8.102
 3446SOL     OW12234   5.636   6.776   4.200
 3446SOL    HW112235   5.577   6.701   4.204
 3446SOL    HW212236   5.684   6.763   4.118
 3447SOL     OW12237  11.518  11.433  11.065
 3447SOL    HW112238  11.518  11.486  11.145
 3447SOL    HW212239  11.434  11.387  11.067
 3448SOL     OW12240  10.690  13.629   8.246
 3448SOL    HW112241  10.769  13.682   8.243
 3448SOL    HW212242  10.721  13.540   8.264
 3449SOL     OW12243   1.006   3.016   4.682
 3449SOL    HW112244   0.952   3.091   4.659
 3449SOL    HW212245   0.951   2.940   4.663
 3450SOL     OW12246   8.522  14.325   5.219
 3450SOL    HW112247   8.549  14.400   5.271
 3450SOL    HW212248   8.604  14.286   5.189
 3451SOL     OW12249   8.618   7.738   1.350
 3451SOL    HW112250   8.537   7.757   1.398
 3451SOL    HW212251   8.591   7.684   1.276
 3452SOL     OW12252   7.288  14.668   5.310
 3452SOL    HW112253   7.295  14.762   5.327
 3452SOL    HW212254   7.272  14.661   5.216
 3453SOL     OW12255   5.485   6.413  14.693
 3453SOL    HW112256   5.494   6.431  14.599
 3453SOL    HW212257   5.449   6.324  14.697
 3454SOL     OW12258  14.703   2.276  14.754
 3454SOL    HW112259  14.724   2.370  14.754
 3454SOL    HW212260  14.787   2.233  14.738
 3455SOL     OW12261  12.729   5.585  11.834
 3455SOL    HW112262  12.717   5.530  11.911
 3455SOL    HW212263  12.647   5.635  11.827
 3456SOL     OW12264  12.320   8.978   8.274
 3456SOL    HW112265  12.371   8.911   8.229
 3456SOL    HW212266  12.253   8.929   8.321
 3457SOL     OW12267   7.854   0.237  11.123
 3457SOL    HW112268   7.894   0.323  11.136
 3457SOL    HW212269   7.855   0.225  11.028
 3458SOL     OW12270   8.016   8.687   7.317
 3458SOL    HW112271   7.939   8.634   7.338
 3458SOL    HW212272   8.031   8.740   7.395
 3459SOL     OW12273   8.187  14.303  12.744
 3459SOL    HW112274   8.253  14.273  12.681
 3459SOL    HW212275   8.129  14.359  12.693
 3460SOL     OW12276  12.412  13.996   7.150
 3460SOL    HW112277  12.471  14.032   7.217
 3460SOL    HW212278  12.348  14.066   7.135
 3461SOL     OW12279   3.420   2.778  10.844
 3461SOL    HW112280   3.326   2.758  10.851
 3461SOL    HW212281   3.435   2.787  10.750
 3462SOL     OW12282   9.221   8.940   7.945
 3462SOL    HW112283   9.279   9.015   7.957
 3462SOL    HW212284   9.133   8.979   7.941
 3463SOL     OW12285   7.152   3.885   6.979
 3463SOL    HW112286   7.201   3.853   6.903
 3463SOL    HW212287   7.199   3.963   7.006
 3464SOL     OW12288   1.003   6.834  10.776
 3464SOL    HW112289   1.025   6.759  10.720
 3464SOL    HW212290   1.012   6.910  10.719
 3465SOL     OW12291   7.102   1.277   5.650
 3465SOL    HW112292   7.036   1.327   5.602
 3465SOL    HW212293   7.174   1.267   5.588
 3466SOL     OW12294   2.752  10.211   1.429
 3466SOL    HW112295   2.788  10.299   1.419
 3466SOL    HW212296   2.717  10.209   1.518
 3467SOL     OW12297   4.700   3.062  10.564
 3467SOL    HW112298   4.782   3.037  10.522
 3467SOL    HW212299   4.655   2.979  10.580
 3468SOL     OW12300  13.424   6.083   8.114
 3468SOL    HW112301  13.458   5.996   8.098
 3468SOL    HW212302  13.355   6.070   8.179
 3469SOL     OW12303  10.649   7.702   9.859
 3469SOL    HW112304  10.713   7.771   9.842
 3469SOL    HW212305  10.624   7.715   9.951
 3470SOL     OW12306  10.438   7.381  13.961
 3470SOL    HW112307  10.437   7.313  14.028
 3470SOL    HW212308  10.490   7.345  13.889
 3471SOL     OW12309  13.005   6.759  12.006
 3471SOL    HW112310  12.924   6.708  11.999
 3471SOL    HW212311  13.056   6.733  11.929
 3472SOL     OW12312   0.887   9.821   3.004
 3472SOL    HW112313   0.792   9.830   3.013
 3472SOL    HW212314   0.921   9.910   3.015
 3473SOL     OW12315   7.400   6.466   1.576
 3473SOL    HW112316   7.324   6.481   1.518
 3473SOL    HW212317   7.364   6.473   1.664
 3474SOL     OW12318   4.375  13.456   5.577
 3474SOL    HW112319   4.418  13.371   5.584
 3474SOL    HW212320   4.305  13.453   5.642
 3475SOL     OW12321  10.646  12.607  14.306
 3475SOL    HW112322  10.606  12.604  14.393
 3475SOL    HW212323  10.574  12.628  14.247
 3476SOL     OW12324   6.581   2.889   1.347
 3476SOL    HW112325   6.611   2.804   1.317
 3476SOL    HW212326   6.593   2.947   1.271
 3477SOL     OW12327   8.586  11.419  13.991
 3477SOL    HW112328   8.554  11.385  13.907
 3477SOL    HW212329   8.541  11.503  14.001
 3478SOL     OW12330   4.312   6.729   4.512
 3478SOL    HW112331   4.377   6.788   4.552
 3478SOL    HW212332   4.359   6.688   4.439
 3479SOL     OW12333  13.214  14.642  13.632
 3479SOL    HW112334  13.261  14.664  13.551
 3479SOL    HW212335  13.125  14.622  13.604
 3480SOL     OW12336   7.510  12.998   2.573
 3480SOL    HW112337   7.486  13.085   2.607
 3480SOL    HW212338   7.431  12.966   2.531
 3481SOL     OW12339  12.867   9.860   4.690
 3481SOL    HW112340  12.823   9.795   4.635
 3481SOL    HW212341  12.823   9.943   4.667
 3482SOL     OW12342  10.245  13.898   2.368
 3482SOL    HW112343  10.204  13.932   2.289
 3482SOL    HW212344  10.201  13.814   2.384
 3483SOL     OW12345  14.227  10.793   5.831
 3483SOL    HW112346  14.146  10.773   5.784
 3483SOL    HW212347  14.205  10.779   5.923
 3484SOL     OW12348   4.858   7.230   2.349
 3484SOL    HW112349   4.880   7.315   2.387
 3484SOL    HW212350   4.892   7.233   2.260
 3485SOL     OW12351  14.710   1.362  12.248
 3485SOL    HW112352  14.652   1.366  12.324
 3485SOL    HW212353  14.655   1.390  12.175
 3486SOL     OW12354   2.454   7.314  11.906
 3486SOL    HW112355   2.484   7.306  11.815
 3486SOL    HW212356   2.362   7.288  11.903
 3487SOL     OW12357   3.166   5.865  14.563
 3487SOL    HW112358   3.121   5.785  14.590
 3487SOL    HW212359   3.250   5.835  14.529
 3488SOL     OW12360   4.766  14.741  10.492
 3488SOL    HW112361   4.775  14.836  10.501
 3488SOL    HW212362   4.675  14.724  10.514
 3489SOL     OW12363  11.474   7.722   3.415
 3489SOL    HW112364  11.497   7.629   3.412
 3489SOL    HW212365  11.557   7.766   3.431
 3490SOL     OW12366   2.448   3.841  10.465
 3490SOL    HW112367   2.367   3.888  10.446
 3490SOL    HW212368   2.471   3.800  10.381
 3491SOL     OW12369   9.817   4.816   6.173
 3491SOL    HW112370   9.821   4.908   6.200
 3491SOL    HW212371   9.765   4.817   6.092
 3492SOL     OW12372   5.388   3.903  10.378
 3492SOL    HW112373   5.370   3.952  10.298
 3492SOL    HW212374   5.481   3.884  10.374
 3493SOL     OW12375  12.497  13.138   7.957
 3493SOL    HW112376  12.516  13.117   7.865
 3493SOL    HW212377  12.430  13.075   7.982
 3494SOL     OW12378   2.989  10.770   9.656
 3494SOL    HW112379   2.999  10.678   9.679
 3494SOL    HW212380   2.953  10.811   9.734
 3495SOL     OW12381  12.864   1.436   1.035
 3495SOL    HW112382  12.836   1.520   1.001
 3495SOL    HW212383  12.862   1.446   1.130
 3496SOL     OW12384  11.012  11.044  14.037
 3496SOL    HW112385  10.945  10.980  14.013
 3496SOL    HW212386  11.000  11.057  14.131
 3497SOL     OW12387  13.068  10.901   8.417
 3497SOL    HW112388  12.985  10.894   8.464
 3497SOL    HW212389  13.134  10.870   8.480
 3498SOL     OW12390   3.624   5.623  11.871
 3498SOL    HW112391   3.537   5.645  11.836
 3498SOL    HW212392   3.653   5.704  11.915
 3499SOL     OW12393   4.908  11.974  13.891
 3499SOL    HW112394   4.816  11.980  13.862
 3499SOL    HW212395   4.905  11.919  13.969
 3500SOL     OW12396   8.346   9.791   6.099
 3500SOL    HW112397   8.288   9.866   6.088
 3500SOL    HW212398   8.337   9.767   6.191
 3501SOL     OW12399   0.271   3.306   7.544
 3501SOL    HW112400   0.342   3.255   7.504
 3501SOL    HW212401   0.293   3.308   7.637
 3502SOL     OW12402   8.086   7.926  12.075
 3502SOL    HW112403   8.000   7.958  12.051
 3502SOL    HW212404   8.118   7.881  11.996
 3503SOL     OW12405   8.580  11.062  10.099
 3503SOL    HW112406   8.664  11.053  10.145
 3503SOL    HW212407   8.568  11.157  10.090
 3504SOL     OW12408   1.869  12.426  11.543
 3504SOL    HW112409   1.883  12.510  11.588
 3504SOL    HW212410   1.928  12.365  11.588
 3505SOL     OW12411  10.830   3.640   6.905
 3505SOL    HW112412  10.762   3.658   6.970
 3505SOL    HW212413  10.858   3.727   6.876
 3506SOL     OW12414  12.801  11.511   9.777
 3506SOL    HW112415  12.793  11.605   9.764
 3506SOL    HW212416  12.867  11.501   9.845
 3507SOL     OW12417   7.724   0.117  10.018
 3507SOL    HW112418   7.696   0.209  10.023
 3507SOL    HW212419   7.709   0.082  10.105
 3508SOL     OW12420   3.861  13.230  12.629
 3508SOL    HW112421   3.859  13.155  12.689
 3508SOL    HW212422   3.932  13.210  12.569
 3509SOL     OW12423   4.822  13.782  13.393
 3509SOL    HW112424   4.851  13.699  13.432
 3509SOL    HW212425   4.736  13.762  13.357
 3510SOL     OW12426  11.402   4.933   0.825
 3510SOL    HW112427  11.386   5.020   0.862
 3510SOL    HW212428  11.322   4.885   0.841
 3511SOL     OW12429  10.962  10.557  14.551
 3511SOL    HW112430  10.868  10.546  14.565
 3511SOL    HW212431  10.975  10.651  14.540
 3512SOL     OW12432  12.795   1.619   4.850
 3512SOL    HW112433  12.818   1.545   4.907
 3512SOL    HW212434  12.749   1.680   4.907
 3513SOL     OW12435   5.549  10.408   8.328
 3513SOL    HW112436   5.560  10.446   8.416
 3513SOL    HW212437   5.458  10.425   8.306
 3514SOL     OW12438  11.574   7.552   5.467
 3514SOL    HW112439  11.608   7.641   5.474
 3514SOL    HW212440  11.647   7.497   5.496
 3515SOL     OW12441  14.861   4.089  12.188
 3515SOL    HW112442  14.860   4.000  12.225
 3515SOL    HW212443  14.841   4.146  12.262
 3516SOL     OW12444   4.701  12.927   4.974
 3516SOL    HW112445   4.732  12.843   5.009
 3516SOL    HW212446   4.699  12.913   4.879
 3517SOL     OW12447  13.576   3.751   6.235
 3517SOL    HW112448  13.606   3.744   6.325
 3517SOL    HW212449  13.512   3.823   6.236
 3518SOL     OW12450   4.755  10.419   4.443
 3518SOL    HW112451   4.776  10.436   4.535
 3518SOL    HW212452   4.836  10.439   4.396
 3519SOL     OW12453   3.928  12.909   8.449
 3519SOL    HW112454   3.871  12.898   8.373
 3519SOL    HW212455   3.870  12.898   8.524
 3520SOL     OW12456   9.752  14.662  11.978
 3520SOL    HW112457   9.818  14.691  11.916
 3520SOL    HW212458   9.747  14.732  12.043
 3521SOL     OW12459   2.004   5.622   4.824
 3521SOL    HW112460   2.091   5.658   4.841
 3521SOL    HW212461   1.948   5.660   4.891
 3522SOL     OW12462   2.941   6.212   9.781
 3522SOL    HW112463   2.975   6.126   9.805
 3522SOL    HW212464   2.866   6.193   9.725
 3523SOL     OW12465  12.291   7.046   7.219
 3523SOL    HW112466  12.206   7.049   7.263
 3523SOL    HW212467  12.320   6.955   7.229
 3524SOL     OW12468   1.749   2.209   0.182
 3524SOL    HW112469   1.688   2.235   0.114
 3524SOL    HW212470   1.758   2.287   0.237
 3525SOL     OW12471   7.659  14.637  11.477
 3525SOL    HW112472   7.629  14.552  11.509
 3525SOL    HW212473   7.607  14.653  11.399
 3526SOL     OW12474   1.621   6.610   9.459
 3526SOL    HW112475   1.554   6.562   9.507
 3526SOL    HW212476   1.648   6.680   9.518
 3527SOL     OW12477   4.686  10.645   3.654
 3527SOL    HW112478   4.671  10.607   3.740
 3527SOL    HW212479   4.777  10.673   3.656
 3528SOL     OW12480   7.470   5.668  13.228
 3528SOL    HW112481   7.435   5.582  13.206
 3528SOL    HW212482   7.532   5.688  13.159
 3529SOL     OW12483   8.724   6.586   4.874
 3529SOL    HW112484   8.745   6.497   4.845
 3529SOL    HW212485   8.799   6.611   4.929
 3530SOL     OW12486  13.684   2.992   4.268
 3530SOL    HW112487  13.727   2.996   4.183
 3530SOL    HW212488  13.626   2.917   4.262
 3531SOL     OW12489   8.694   5.476   4.327
 3531SOL    HW112490   8.778   5.432   4.339
 3531SOL    HW212491   8.632   5.425   4.378
 3532SOL     OW12492  13.148  10.273   2.425
 3532SOL    HW112493  13.221  10.265   2.363
 3532SOL    HW212494  13.170  10.212   2.495
 3533SOL     OW12495  10.249  11.544   0.658
 3533SOL    HW112496  10.240  11.525   0.751
 3533SOL    HW212497  10.317  11.611   0.654
 3534SOL     OW12498   1.917  10.993   9.495
 3534SOL    HW112499   1.913  10.960   9.585
 3534SOL    HW212500   1.826  10.997   9.468
 3535SOL     OW12501  11.169  13.544   7.626
 3535SOL    HW112502  11.110  13.600   7.575
 3535SOL    HW212503  11.111  13.487   7.676
 3536SOL     OW12504   4.870   7.549   3.651
 3536SOL    HW112505   4.945   7.490   3.662
 3536SOL    HW212506   4.871   7.604   3.730
 3537SOL     OW12507   8.513   5.351   1.184
 3537SOL    HW112508   8.593   5.304   1.163
 3537SOL    HW212509   8.529   5.441   1.155
 3538SOL     OW12510   8.681   3.635  11.495
 3538SOL    HW112511   8.741   3.632  11.570
 3538SOL    HW212512   8.718   3.701  11.437
 3539SOL     OW12513   6.256  14.368   5.309
 3539SOL    HW112514   6.337  14.372   5.258
 3539SOL    HW212515   6.284  14.369   5.400
 3540SOL     OW12516   4.043   3.108   7.666
 3540SOL    HW112517   4.109   3.043   7.691
 3540SOL    HW212518   4.093   3.190   7.657
 3541SOL     OW12519  13.974  11.497  12.590
 3541SOL    HW112520  13.992  11.478  12.499
 3541SOL    HW212521  13.887  11.537  12.589
 3542SOL     OW12522   2.557   6.940  14.062
 3542SOL    HW112523   2.590   6.890  13.988
 3542SOL    HW212524   2.623   7.008  14.076
 3543SOL     OW12525   5.280   3.750  13.350
 3543SOL    HW112526   5.231   3.743  13.268
 3543SOL    HW212527   5.213   3.763  13.417
 3544SOL     OW12528   3.452   1.410   0.773
 3544SOL    HW112529   3.522   1.394   0.836
 3544SOL    HW212530   3.461   1.502   0.750
 3545SOL     OW12531   1.467  11.951   6.894
 3545SOL    HW112532   1.408  11.890   6.938
 3545SOL    HW212533   1.544  11.956   6.951
 3546SOL     OW12534   0.617   0.730  10.419
 3546SOL    HW112535   0.620   0.653  10.362
 3546SOL    HW212536   0.671   0.795  10.375
 3547SOL     OW12537   7.684   3.058   8.077
 3547SOL    HW112538   7.661   3.130   8.135
 3547SOL    HW212539   7.698   3.099   7.992
 3548SOL     OW12540   1.833   9.553   4.954
 3548SOL    HW112541   1.852   9.549   4.860
 3548SOL    HW212542   1.769   9.624   4.963
 3549SOL     OW12543  11.335   6.549  11.787
 3549SOL    HW112544  11.368   6.532  11.699
 3549SOL    HW212545  11.348   6.643  11.800
 3550SOL     OW12546  10.233  12.400  13.726
 3550SOL    HW112547  10.272  12.484  13.701
 3550SOL    HW212548  10.139  12.414  13.722
 3551SOL     OW12549  11.620   3.247  10.717
 3551SOL    HW112550  11.657   3.178  10.772
 3551SOL    HW212551  11.570   3.201  10.651
 3552SOL     OW12552  10.778   3.881   3.826
 3552SOL    HW112553  10.719   3.877   3.901
 3552SOL    HW212554  10.853   3.932   3.857
 3553SOL     OW12555   8.694  14.310   1.544
 3553SOL    HW112556   8.634  14.369   1.590
 3553SOL    HW212557   8.645  14.283   1.466
 3554SOL     OW12558   4.553   2.337   1.301
 3554SOL    HW112559   4.484   2.338   1.367
 3554SOL    HW212560   4.546   2.250   1.261
 3555SOL     OW12561   7.042   2.476  10.505
 3555SOL    HW112562   7.043   2.389  10.545
 3555SOL    HW212563   7.017   2.534  10.577
 3556SOL     OW12564   8.290   8.473  14.861
 3556SOL    HW112565   8.339   8.541  14.815
 3556SOL    HW212566   8.311   8.392  14.814
 3557SOL     OW12567   1.523  14.078   7.166
 3557SOL    HW112568   1.551  14.004   7.113
 3557SOL    HW212569   1.604  14.116   7.200
 3558SOL     OW12570   2.668  13.077  13.637
 3558SOL    HW112571   2.705  13.127  13.711
 3558SOL    HW212572   2.573  13.086  13.648
 3559SOL     OW12573   9.430   3.660   3.319
 3559SOL    HW112574   9.375   3.726   3.360
 3559SOL    HW212575   9.489   3.632   3.389
 3560SOL     OW12576   0.237  13.028   7.292
 3560SOL    HW112577   0.266  13.092   7.357
 3560SOL    HW212578   0.208  12.953   7.343
 3561SOL     OW12579  13.033   1.850   3.938
 3561SOL    HW112580  13.055   1.780   3.877
 3561SOL    HW212581  13.041   1.930   3.885
 3562SOL     OW12582   4.504  13.319  10.243
 3562SOL    HW112583   4.534  13.281  10.326
 3562SOL    HW212584   4.476  13.408  10.267
 3563SOL     OW12585  12.456   4.858   9.860
 3563SOL    HW112586  12.388   4.792   9.853
 3563SOL    HW212587  12.409   4.941   9.867
 3564SOL     OW12588   7.987  14.314   4.446
 3564SOL    HW112589   7.962  14.382   4.508
 3564SOL    HW212590   7.977  14.355   4.360
 3565SOL     OW12591  10.836   4.003   5.000
 3565SOL    HW112592  10.829   4.093   5.032
 3565SOL    HW212593  10.767   3.955   5.046
 3566SOL     OW12594  13.716   9.801  11.943
 3566SOL    HW112595  13.691   9.807  11.851
 3566SOL    HW212596  13.767   9.880  11.960
 3567SOL     OW12597  11.597   5.197   6.086
 3567SOL    HW112598  11.557   5.111   6.067
 3567SOL    HW212599  11.672   5.176   6.142
 3568SOL     OW12600   1.077   7.269  11.337
 3568SOL    HW112601   1.158   7.221  11.319
 3568SOL    HW212602   1.044   7.293  11.251
 3569SOL     OW12603   4.404   6.628   3.134
 3569SOL    HW112604   4.346   6.560   3.098
 3569SOL    HW212605   4.485   6.619   3.083
 3570SOL     OW12606   6.138   0.146   0.197
 3570SOL    HW112607   6.189   0.080   0.243
 3570SOL    HW212608   6.066   0.167   0.256
 3571SOL     OW12609   5.032   8.886   4.893
 3571SOL    HW112610   5.109   8.850   4.850
 3571SOL    HW212611   5.007   8.961   4.838
 3572SOL     OW12612  12.315   3.785  14.839
 3572SOL    HW112613  12.400   3.792  14.795
 3572SOL    HW212614  12.270   3.713  14.793
 3573SOL     OW12615   7.385  10.993   9.187
 3573SOL    HW112616   7.398  11.042   9.106
 3573SOL    HW212617   7.463  10.938   9.194
 3574SOL     OW12618  10.668   6.883  11.316
 3574SOL    HW112619  10.681   6.845  11.403
 3574SOL    HW212620  10.739   6.846  11.263
 3575SOL     OW12621   1.962  14.191  14.764
 3575SOL    HW112622   1.935  14.191  14.856
 3575SOL    HW212623   2.047  14.235  14.764
 3576SOL     OW12624  13.784   5.325  12.112
 3576SOL    HW112625  13.731   5.401  12.088
 3576SOL    HW212626  13.724   5.251  12.104
 3577SOL     OW12627  10.413   8.641  12.180
 3577SOL    HW112628  10.338   8.699  12.172
 3577SOL    HW212629  10.481   8.697  12.219
 3578SOL     OW12630  14.380   4.556   6.827
 3578SOL    HW112631  14.420   4.593   6.748
 3578SOL    HW212632  14.286   4.565   6.814
 3579SOL     OW12633  14.345  10.013  14.777
 3579SOL    HW112634  14.353   9.957  14.700
 3579SOL    HW212635  14.337   9.952  14.851
 3580SOL     OW12636  12.152  13.186   4.680
 3580SOL    HW112637  12.081  13.235   4.721
 3580SOL    HW212638  12.114  13.149   4.600
 3581SOL     OW12639  14.104   7.911  13.325
 3581SOL    HW112640  14.010   7.916  13.340
 3581SOL    HW212641  14.125   7.818  13.337
 3582SOL     OW12642  12.397   9.889  12.688
 3582SOL    HW112643  12.396   9.938  12.606
 3582SOL    HW212644  12.316   9.838  12.687
 3583SOL     OW12645  11.665  12.120   8.726
 3583SOL    HW112646  11.654  12.163   8.811
 3583SOL    HW212647  11.646  12.189   8.662
 3584SOL     OW12648   7.145   8.397  12.293
 3584SOL    HW112649   7.175   8.485  12.314
 3584SOL    HW212650   7.088   8.373  12.366
 3585SOL     OW12651   0.175   8.835   4.398
 3585SOL    HW112652   0.150   8.759   4.346
 3585SOL    HW212653   0.244   8.878   4.346
 3586SOL     OW12654   3.706   7.543  12.559
 3586SOL    HW112655   3.743   7.490  12.630
 3586SOL    HW212656   3.782   7.587  12.521
 3587SOL     OW12657  11.258   6.844  14.517
 3587SOL    HW112658  11.337   6.790  14.506
 3587SOL    HW212659  11.186   6.782  14.512
 3588SOL     OW12660   6.985   4.957   1.168
 3588SOL    HW112661   7.015   4.866   1.177
 3588SOL    HW212662   7.060   5.003   1.130
 3589SOL     OW12663  13.580   5.554  10.850
 3589SOL    HW112664  13.626   5.493  10.907
 3589SOL    HW212665  13.649   5.595  10.798
 3590SOL     OW12666  12.620   8.627   6.451
 3590SOL    HW112667  12.527   8.604   6.445
 3590SOL    HW212668  12.664   8.542   6.457
 3591SOL     OW12669   1.862   4.503   1.381
 3591SOL    HW112670   1.877   4.487   1.474
 3591SOL    HW212671   1.767   4.490   1.370
 3592SOL     OW12672  13.711   7.695   5.148
 3592SOL    HW112673  13.736   7.611   5.109
 3592SOL    HW212674  13.621   7.682   5.177
 3593SOL     OW12675   7.299  13.202   8.016
 3593SOL    HW112676   7.303  13.293   7.988
 3593SOL    HW212677   7.280  13.207   8.110
 3594SOL     OW12678   6.630   6.464  12.449
 3594SOL    HW112679   6.694   6.475  12.520
 3594SOL    HW212680   6.646   6.376  12.415
 3595SOL     OW12681   5.892   0.024   4.715
 3595SOL    HW112682   5.835   0.079   4.768
 3595SOL    HW212683   5.919  14.828   4.773
 3596SOL     OW12684  12.493   0.295  12.682
 3596SOL    HW112685  12.516   0.325  12.594
 3596SOL    HW212686  12.400   0.272  12.676
 3597SOL     OW12687   4.123   2.685  13.687
 3597SOL    HW112688   4.071   2.713  13.763
 3597SOL    HW212689   4.078   2.606  13.656
 3598SOL     OW12690   2.395   1.042  11.546
 3598SOL    HW112691   2.341   1.004  11.616
 3598SOL    HW212692   2.478   0.993  11.551
 3599SOL     OW12693   9.211   6.288   7.964
 3599SOL    HW112694   9.121   6.296   7.994
 3599SOL    HW212695   9.219   6.351   7.893
 3600SOL     OW12696   6.547   6.088   5.205
 3600SOL    HW112697   6.594   6.005   5.208
 3600SOL    HW212698   6.605   6.147   5.157
 3601SOL     OW12699  14.354  13.498  14.227
 3601SOL    HW112700  14.396  13.415  14.204
 3601SOL    HW212701  14.293  13.515  14.156
 3602SOL     OW12702   5.162  14.398  12.293
 3602SOL    HW112703   5.241  14.410  12.347
 3602SOL    HW212704   5.126  14.485  12.284
 3603SOL     OW12705  11.920  13.851  10.922
 3603SOL    HW112706  11.834  13.892  10.917
 3603SOL    HW212707  11.903  13.765  10.961
 3604SOL     OW12708   6.248   0.719   8.652
 3604SOL    HW112709   6.197   0.788   8.609
 3604SOL    HW212710   6.207   0.708   8.737
 3605SOL     OW12711  14.104  10.048   7.173
 3605SOL    HW112712  14.154   9.973   7.142
 3605SOL    HW212713  14.168  10.120   7.176
 3606SOL     OW12714   6.710   8.345   3.566
 3606SOL    HW112715   6.782   8.284   3.583
 3606SOL    HW212716   6.631   8.292   3.574
 3607SOL     OW12717  10.839   5.399   2.519
 3607SOL    HW112718  10.825   5.474   2.460
 3607SOL    HW212719  10.763   5.343   2.504
 3608SOL     OW12720  11.865   2.409  11.582
 3608SOL    HW112721  11.886   2.402  11.675
 3608SOL    HW212722  11.787   2.354  11.571
 3609SOL     OW12723  14.853   3.383   2.268
 3609SOL    HW112724  14.816   3.315   2.210
 3609SOL    HW212725   0.064   3.349   2.291
 3610SOL     OW12726   4.470  12.745  11.441
 3610SOL    HW112727   4.398  12.804  11.463
 3610SOL    HW212728   4.486  12.694  11.520
 3611SOL     OW12729   7.968   8.361   5.190
 3611SOL    HW112730   8.052   8.316   5.195
 3611SOL    HW212731   7.922   8.334   5.270
 3612SOL     OW12732   0.991  13.795  12.028
 3612SOL    HW112733   0.897  13.784  12.016
 3612SOL    HW212734   1.019  13.843  11.950
 3613SOL     OW12735   6.087   9.924   9.315
 3613SOL    HW112736   6.084   9.992   9.383
 3613SOL    HW212737   6.156   9.865   9.343
 3614SOL     OW12738  14.413   1.884  13.940
 3614SOL    HW112739  14.318   1.883  13.949
 3614SOL    HW212740  14.428   1.901  13.847
 3615SOL     OW12741   5.746   5.656   8.909
 3615SOL    HW112742   5.687   5.728   8.931
 3615SOL    HW212743   5.714   5.582   8.960
 3616SOL     OW12744   3.327   3.340  12.928
 3616SOL    HW112745   3.313   3.431  12.954
 3616SOL    HW212746   3.343   3.345  12.834
 3617SOL     OW12747   3.894  13.747   6.021
 3617SOL    HW112748   3.805  13.743   5.987
 3617SOL    HW212749   3.948  13.710   5.951
 3618SOL     OW12750   1.206   9.403   7.771
 3618SOL    HW112751   1.212   9.395   7.676
 3618SOL    HW212752   1.287   9.363   7.804
 3619SOL     OW12753   3.722   2.296   1.228
 3619SOL    HW112754   3.771   2.296   1.146
 3619SOL    HW212755   3.680   2.382   1.230
 3620SOL     OW12756   9.569   9.801  14.153
 3620SOL    HW112757   9.601   9.831  14.238
 3620SOL    HW212758   9.647   9.804  14.097
 3621SOL     OW12759   6.093   1.367   5.872
 3621SOL    HW112760   6.010   1.330   5.902
 3621SOL    HW212761   6.086   1.461   5.892
 3622SOL     OW12762  12.195   9.857  11.029
 3622SOL    HW112763  12.232   9.788  11.085
 3622SOL    HW212764  12.123   9.894  11.080
 3623SOL     OW12765   7.128   6.918   0.136
 3623SOL    HW112766   7.192   6.939   0.205
 3623SOL    HW212767   7.093   7.003   0.110
 3624SOL     OW12768  13.062   6.294   3.452
 3624SOL    HW112769  12.984   6.296   3.507
 3624SOL    HW212770  13.111   6.373   3.476
 3625SOL     OW12771  12.748  11.651  12.879
 3625SOL    HW112772  12.842  11.670  12.872
 3625SOL    HW212773  12.738  11.566  12.837
 3626SOL     OW12774  10.257   2.051  10.428
 3626SOL    HW112775  10.236   2.088  10.342
 3626SOL    HW212776  10.350   2.068  10.439
 3627SOL     OW12777   2.841   3.161   1.626
 3627SOL    HW112778   2.781   3.094   1.592
 3627SOL    HW212779   2.895   3.114   1.690
 3628SOL     OW12780   4.415   3.979  13.910
 3628SOL    HW112781   4.469   3.936  13.844
 3628SOL    HW212782   4.473   4.045  13.948
 3629SOL     OW12783  14.055  10.378   0.655
 3629SOL    HW112784  13.990  10.442   0.627
 3629SOL    HW212785  14.136  10.403   0.609
 3630SOL     OW12786   8.641   4.580  12.149
 3630SOL    HW112787   8.553   4.598  12.117
 3630SOL    HW212788   8.667   4.660  12.194
 3631SOL     OW12789   5.104  12.237   8.331
 3631SOL    HW112790   5.070  12.326   8.324
 3631SOL    HW212791   5.117  12.210   8.240
 3632SOL     OW12792  14.848   6.159  12.383
 3632SOL    HW112793  14.851   6.093  12.314
 3632SOL    HW212794  14.764   6.204  12.369
 3633SOL     OW12795  13.234  13.458   9.817
 3633SOL    HW112796  13.190  13.408   9.885
 3633SOL    HW212797  13.309  13.498   9.861
 3634SOL     OW12798  12.037   5.915   1.361
 3634SOL    HW112799  12.040   5.955   1.448
 3634SOL    HW212800  12.004   5.826   1.377
 3635SOL     OW12801  12.906   1.349  13.044
 3635SOL    HW112802  12.971   1.279  13.048
 3635SOL    HW212803  12.904   1.375  12.952
 3636SOL     OW12804   1.513   3.833   7.358
 3636SOL    HW112805   1.440   3.810   7.300
 3636SOL    HW212806   1.565   3.754   7.365
 3637SOL     OW12807   8.222   1.210   5.925
 3637SOL    HW112808   8.174   1.214   6.007
 3637SOL    HW212809   8.257   1.121   5.920
 3638SOL     OW12810   9.495   7.425   3.785
 3638SOL    HW112811   9.546   7.479   3.845
 3638SOL    HW212812   9.404   7.451   3.800
 3639SOL     OW12813   6.183   5.676  12.017
 3639SOL    HW112814   6.274   5.688  12.046
 3639SOL    HW212815   6.189   5.653  11.925
 3640SOL     OW12816   5.552   7.395   0.246
 3640SOL    HW112817   5.579   7.307   0.220
 3640SOL    HW212818   5.503   7.429   0.170
 3641SOL     OW12819   9.583   3.637  10.560
 3641SOL    HW112820   9.527   3.694  10.507
 3641SOL    HW212821   9.562   3.548  10.529
 3642SOL     OW12822   4.706  12.331   2.425
 3642SOL    HW112823   4.771  12.399   2.445
 3642SOL    HW212824   4.659  12.364   2.349
 3643SOL     OW12825   3.321   0.943   0.878
 3643SOL    HW112826   3.265   1.009   0.837
 3643SOL    HW212827   3.267   0.905   0.947
 3644SOL     OW12828   5.841   3.792   7.125
 3644SOL    HW112829   5.918   3.848   7.136
 3644SOL    HW212830   5.841   3.736   7.203
 3645SOL     OW12831   5.088  12.493   7.152
 3645SOL    HW112832   5.119  12.546   7.225
 3645SOL    HW212833   4.994  12.509   7.148
 3646SOL     OW12834   5.901   5.546   6.186
 3646SOL    HW112835   5.943   5.632   6.183
 3646SOL    HW212836   5.973   5.485   6.204
 3647SOL     OW12837   5.032  14.144  12.385
 3647SOL    HW112838   5.122  14.129  12.414
 3647SOL    HW212839   5.005  14.224  12.431
 3648SOL     OW12840   8.091   3.136   0.286
 3648SOL    HW112841   8.154   3.137   0.357
 3648SOL    HW212842   8.081   3.227   0.260
 3649SOL     OW12843   9.154  12.823   3.177
 3649SOL    HW112844   9.074  12.774   3.160
 3649SOL    HW212845   9.176  12.801   3.268
 3650SOL     OW12846   3.495   3.588   1.517
 3650SOL    HW112847   3.557   3.652   1.550
 3650SOL    HW212848   3.411   3.632   1.519
 3651SOL     OW12849   4.720  11.243   4.935
 3651SOL    HW112850   4.750  11.159   4.970
 3651SOL    HW212851   4.790  11.271   4.875
 3652SOL     OW12852   2.733   3.651   6.220
 3652SOL    HW112853   2.789   3.591   6.269
 3652SOL    HW212854   2.736   3.619   6.130
 3653SOL     OW12855   5.849   9.933   6.805
 3653SOL    HW112856   5.908   9.874   6.759
 3653SOL    HW212857   5.851  10.014   6.755
 3654SOL     OW12858   7.509  10.685  10.354
 3654SOL    HW112859   7.512  10.780  10.366
 3654SOL    HW212860   7.471  10.651  10.435
 3655SOL     OW12861   1.489   6.341  12.329
 3655SOL    HW112862   1.556   6.395  12.288
 3655SOL    HW212863   1.536   6.290  12.395
 3656SOL     OW12864  10.662   2.686   6.362
 3656SOL    HW112865  10.637   2.737   6.285
 3656SOL    HW212866  10.601   2.714   6.430
 3657SOL     OW12867   5.009   3.896  11.476
 3657SOL    HW112868   4.998   3.984  11.511
 3657SOL    HW212869   5.018   3.908  11.381
 3658SOL     OW12870  11.266   2.753   3.219
 3658SOL    HW112871  11.275   2.848   3.222
 3658SOL    HW212872  11.355   2.720   3.215
 3659SOL     OW12873  11.942  13.794  13.213
 3659SOL    HW112874  11.980  13.870  13.257
 3659SOL    HW212875  11.852  13.820  13.192
 3660SOL     OW12876   4.862   6.411   8.332
 3660SOL    HW112877   4.885   6.338   8.390
 3660SOL    HW212878   4.798   6.462   8.383
 3661SOL     OW12879   7.107   3.550  14.806
 3661SOL    HW112880   7.140   3.545  14.716
 3661SOL    HW212881   7.126   3.639  14.833
 3662SOL     OW12882  13.184   1.361   2.811
 3662SOL    HW112883  13.104   1.316   2.838
 3662SOL    HW212884  13.206   1.322   2.726
 3663SOL     OW12885   7.659   8.627   2.062
 3663SOL    HW112886   7.600   8.606   1.990
 3663SOL    HW212887   7.710   8.702   2.031
 3664SOL     OW12888  14.659  10.373   9.252
 3664SOL    HW112889  14.628  10.319   9.325
 3664SOL    HW212890  14.730  10.425   9.288
 3665SOL     OW12891   2.168  10.173   0.106
 3665SOL    HW112892   2.168  10.200   0.014
 3665SOL    HW212893   2.086  10.124   0.115
 3666SOL     OW12894   2.433   5.965   6.341
 3666SOL    HW112895   2.384   5.948   6.421
 3666SOL    HW212896   2.474   6.051   6.355
 3667SOL     OW12897   1.517   5.216  14.238
 3667SOL    HW112898   1.424   5.238  14.233
 3667SOL    HW212899   1.529   5.184  14.328
 3668SOL     OW12900   3.704   5.100   4.894
 3668SOL    HW112901   3.745   5.130   4.975
 3668SOL    HW212902   3.648   5.027   4.920
 3669SOL     OW12903   4.991  10.507   3.446
 3669SOL    HW112904   5.049  10.520   3.371
 3669SOL    HW212905   5.033  10.554   3.518
 3670SOL     OW12906   1.548  11.044   9.393
 3670SOL    HW112907   1.523  11.089   9.473
 3670SOL    HW212908   1.545  11.112   9.325
 3671SOL     OW12909  11.174  13.435   4.195
 3671SOL    HW112910  11.135  13.354   4.229
 3671SOL    HW212911  11.268  13.420   4.201
 3672SOL     OW12912   0.263   0.505   9.324
 3672SOL    HW112913   0.287   0.513   9.232
 3672SOL    HW212914   0.297   0.420   9.350
 3673SOL     OW12915  13.308  14.264  11.440
 3673SOL    HW112916  13.214  14.262  11.427
 3673SOL    HW212917  13.328  14.356  11.457
 3674SOL     OW12918   8.052   5.129   1.299
 3674SOL    HW112919   7.975   5.087   1.337
 3674SOL    HW212920   8.035   5.129   1.205
 3675SOL     OW12921   9.225  14.578   3.648
 3675SOL    HW112922   9.270  14.496   3.629
 3675SOL    HW212923   9.158  14.555   3.712
 3676SOL     OW12924  12.045   2.076  14.303
 3676SOL    HW112925  12.096   2.156  14.314
 3676SOL    HW212926  12.101   2.006  14.335
 3677SOL     OW12927   2.695  11.637   3.225
 3677SOL    HW112928   2.615  11.685   3.245
 3677SOL    HW212929   2.760  11.706   3.209
 3678SOL     OW12930   7.736  11.806   6.087
 3678SOL    HW112931   7.748  11.775   5.998
 3678SOL    HW212932   7.805  11.764   6.138
 3679SOL     OW12933   0.087   8.267   2.254
 3679SOL    HW112934   0.132   8.184   2.239
 3679SOL    HW212935   0.139   8.311   2.321
 3680SOL     OW12936   6.744   1.368   9.360
 3680SOL    HW112937   6.728   1.328   9.274
 3680SOL    HW212938   6.818   1.320   9.396
 3681SOL     OW12939   3.703   3.764   5.640
 3681SOL    HW112940   3.612   3.778   5.613
 3681SOL    HW212941   3.752   3.761   5.558
 3682SOL     OW12942  14.720   0.680   0.802
 3682SOL    HW112943  14.686   0.689   0.890
 3682SOL    HW212944  14.782   0.607   0.808
 3683SOL     OW12945   6.865  11.507  10.816
 3683SOL    HW112946   6.843  11.426  10.770
 3683SOL    HW212947   6.950  11.489  10.857
 3684SOL     OW12948  12.770  11.020   2.978
 3684SOL    HW112949  12.730  10.948   2.929
 3684SOL    HW212950  12.780  11.090   2.914
 3685SOL     OW12951   4.053  10.892   0.142
 3685SOL    HW112952   4.116  10.820   0.151
 3685SOL    HW212953   4.048  10.908   0.048
 3686SOL     OW12954  12.398   3.674  13.880
 3686SOL    HW112955  12.407   3.718  13.964
 3686SOL    HW212956  12.443   3.591  13.891
 3687SOL     OW12957  14.463  11.532   4.000
 3687SOL    HW112958  14.370  11.510   4.005
 3687SOL    HW212959  14.508  11.454   4.034
 3688SOL     OW12960   0.486   0.715  13.385
 3688SOL    HW112961   0.484   0.648  13.454
 3688SOL    HW212962   0.575   0.708  13.348
 3689SOL     OW12963   9.196   0.110   5.195
 3689SOL    HW112964   9.255   0.183   5.212
 3689SOL    HW212965   9.153   0.094   5.279
 3690SOL     OW12966   6.125  11.897   2.321
 3690SOL    HW112967   6.115  11.977   2.270
 3690SOL    HW212968   6.208  11.909   2.368
 3691SOL     OW12969  13.818   6.054  10.264
 3691SOL    HW112970  13.847   6.145  10.276
 3691SOL    HW212971  13.723   6.061  10.252
 3692SOL     OW12972   0.496   4.344   5.663
 3692SOL    HW112973   0.478   4.325   5.571
 3692SOL    HW212974   0.517   4.437   5.664
 3693SOL     OW12975   2.024   4.707  11.534
 3693SOL    HW112976   2.062   4.778  11.586
 3693SOL    HW212977   2.100   4.663  11.494
 3694SOL     OW12978   5.888   3.790   0.853
 3694SOL    HW112979   5.844   3.757   0.775
 3694SOL    HW212980   5.818   3.805   0.916
 3695SOL     OW12981  13.169  12.231   5.222
 3695SOL    HW112982  13.106  12.302   5.209
 3695SOL    HW212983  13.114  12.153   5.236
 3696SOL     OW12984   5.474   7.808   7.238
 3696SOL    HW112985   5.561   7.845   7.222
 3696SOL    HW212986   5.484   7.757   7.318
 3697SOL     OW12987  11.643   5.232  12.667
 3697SOL    HW112988  11.661   5.253  12.759
 3697SOL    HW212989  11.582   5.158  12.672
 3698SOL     OW12990  11.831  12.985   9.035
 3698SOL    HW112991  11.915  12.987   8.990
 3698SOL    HW212992  11.831  12.902   9.082
 3699SOL     OW12993  10.824   8.402   4.970
 3699SOL    HW112994  10.913   8.366   4.969
 3699SOL    HW212995  10.768   8.327   4.989
 3700SOL     OW12996  12.517  11.337   4.783
 3700SOL    HW112997  12.427  11.353   4.811
 3700SOL    HW212998  12.570  11.388   4.844
 3701SOL     OW12999  14.509   7.881   5.475
 3701SOL    HW113000  14.560   7.800   5.480
 3701SOL    HW213001  14.421   7.852   5.451
 3702SOL     OW13002   5.642   8.295  14.645
 3702SOL    HW113003   5.710   8.234  14.616
 3702SOL    HW213004   5.665   8.317  14.735
 3703SOL     OW13005   6.010   7.512  11.992
 3703SOL    HW113006   5.983   7.514  12.084
 3703SOL    HW213007   6.005   7.603  11.964
 3704SOL     OW13008   3.733  11.065   2.403
 3704SOL    HW113009   3.713  11.135   2.466
 3704SOL    HW213010   3.751  11.111   2.321
 3705SOL     OW13011   4.928   4.202  10.904
 3705SOL    HW113012   4.994   4.182  10.838
 3705SOL    HW213013   4.900   4.116  10.937
 3706SOL     OW13014   8.777   9.113  11.792
 3706SOL    HW113015   8.724   9.179  11.746
 3706SOL    HW213016   8.780   9.039  11.731
 3707SOL     OW13017   2.412  13.822  10.836
 3707SOL    HW113018   2.349  13.890  10.815
 3707SOL    HW213019   2.494  13.852  10.794
 3708SOL     OW13020   0.401   5.697   3.131
 3708SOL    HW113021   0.377   5.787   3.111
 3708SOL    HW213022   0.334   5.643   3.088
 3709SOL     OW13023   5.351   7.424   3.417
 3709SOL    HW113024   5.385   7.513   3.427
 3709SOL    HW213025   5.374   7.380   3.498
 3710SOL     OW13026   5.579   7.820   7.620
 3710SOL    HW113027   5.589   7.915   7.622
 3710SOL    HW213028   5.549   7.797   7.708
 3711SOL     OW13029   2.859   6.377   5.561
 3711SOL    HW113030   2.857   6.377   5.466
 3711SOL    HW213031   2.767   6.365   5.587
 3712SOL     OW13032   1.452   7.289   5.757
 3712SOL    HW113033   1.401   7.359   5.718
 3712SOL    HW213034   1.430   7.290   5.850
 3713SOL     OW13035  10.323   5.029   6.979
 3713SOL    HW113036  10.251   4.966   6.971
 3713SOL    HW213037  10.298   5.101   6.920
 3714SOL     OW13038  11.027   3.005   9.121
 3714SOL    HW113039  11.058   3.017   9.031
 3714SOL    HW213040  10.939   3.042   9.121
 3715SOL     OW13041  13.668  12.856  10.130
 3715SOL    HW113042  13.609  12.795  10.175
 3715SOL    HW213043  13.709  12.907  10.201
 3716SOL     OW13044   4.236   3.533   8.901
 3716SOL    HW113045   4.325   3.501   8.889
 3716SOL    HW213046   4.225   3.539   8.996
 3717SOL     OW13047   0.801   4.595  13.992
 3717SOL    HW113048   0.809   4.522  14.053
 3717SOL    HW213049   0.823   4.558  13.906
 3718SOL     OW13050   4.375  14.819   2.901
 3718SOL    HW113051   4.304  14.865   2.857
 3718SOL    HW213052   4.430   0.014   2.938
 3719SOL     OW13053   6.373   2.253   0.104
 3719SOL    HW113054   6.326   2.204   0.171
 3719SOL    HW213055   6.307   2.309   0.063
 3720SOL     OW13056   3.891   2.551  11.866
 3720SOL    HW113057   3.949   2.584  11.797
 3720SOL    HW213058   3.903   2.456  11.864
 3721SOL     OW13059  11.881   3.329   8.020
 3721SOL    HW113060  11.974   3.344   8.039
 3721SOL    HW213061  11.855   3.406   7.970
 3722SOL     OW13062  11.446  10.661  10.441
 3722SOL    HW113063  11.390  10.672  10.518
 3722SOL    HW213064  11.457  10.749  10.405
 3723SOL     OW13065   4.184   5.296  13.917
 3723SOL    HW113066   4.186   5.205  13.947
 3723SOL    HW213067   4.127   5.341  13.979
 3724SOL     OW13068  14.031   1.417  11.328
 3724SOL    HW113069  13.940   1.431  11.352
 3724SOL    HW213070  14.028   1.385  11.238
 3725SOL     OW13071   3.957   6.392   8.514
 3725SOL    HW113072   3.892   6.391   8.584
 3725SOL    HW213073   4.000   6.477   8.523
 3726SOL     OW13074   0.748   9.434   9.954
 3726SOL    HW113075   0.737   9.524   9.924
 3726SOL    HW213076   0.661   9.395   9.943
 3727SOL     OW13077   0.219   8.956   3.742
 3727SOL    HW113078   0.207   8.943   3.648
 3727SOL    HW213079   0.251   9.045   3.750
 3728SOL     OW13080   1.124   5.442  10.421
 3728SOL    HW113081   1.100   5.351  10.438
 3728SOL    HW213082   1.152   5.476  10.506
 3729SOL     OW13083   6.984   7.664  13.866
 3729SOL    HW113084   6.938   7.736  13.910
 3729SOL    HW213085   6.920   7.593  13.864
 3730SOL     OW13086  14.724   3.140   0.397
 3730SOL    HW113087  14.663   3.189   0.342
 3730SOL    HW213088  14.776   3.089   0.336
 3731SOL     OW13089   2.704   6.900  11.385
 3731SOL    HW113090   2.681   6.861  11.300
 3731SOL    HW213091   2.719   6.825  11.442
 3732SOL     OW13092   0.221   5.223   5.536
 3732SOL    HW113093   0.278   5.175   5.476
 3732SOL    HW213094   0.175   5.286   5.481
 3733SOL     OW13095   4.734   2.519   7.588
 3733SOL    HW113096   4.675   2.595   7.584
 3733SOL    HW213097   4.739   2.488   7.498
 3734SOL     OW13098  11.438   3.526   8.522
 3734SOL    HW113099  11.389   3.481   8.453
 3734SOL    HW213100  11.512   3.468   8.541
 3735SOL     OW13101   3.521   6.034   0.290
 3735SOL    HW113102   3.517   6.109   0.232
 3735SOL    HW213103   3.607   5.995   0.274
 3736SOL     OW13104   2.384   4.892   9.512
 3736SOL    HW113105   2.412   4.949   9.440
 3736SOL    HW213106   2.466   4.859   9.549
 3737SOL     OW13107  14.228  10.274   9.145
 3737SOL    HW113108  14.256  10.332   9.216
 3737SOL    HW213109  14.285  10.197   9.154
 3738SOL     OW13110  10.049   4.088   0.049
 3738SOL    HW113111  10.125   4.053   0.003
 3738SOL    HW213112   9.978   4.027   0.027
 3739SOL     OW13113   7.946   4.165  13.671
 3739SOL    HW113114   7.879   4.228  13.644
 3739SOL    HW213115   7.968   4.191  13.761
 3740SOL     OW13116   3.376   5.064   9.834
 3740SOL    HW113117   3.378   5.150   9.877
 3740SOL    HW213118   3.380   5.084   9.741
 3741SOL     OW13119   2.865   6.917   1.685
 3741SOL    HW113120   2.882   6.835   1.640
 3741SOL    HW213121   2.947   6.938   1.730
 3742SOL     OW13122  10.776  12.638  11.528
 3742SOL    HW113123  10.841  12.683  11.580
 3742SOL    HW213124  10.761  12.555  11.573
 3743SOL     OW13125  10.009   2.743  12.746
 3743SOL    HW113126   9.961   2.820  12.713
 3743SOL    HW213127   9.948   2.670  12.735
 3744SOL     OW13128   9.484   0.173   9.457
 3744SOL    HW113129   9.464   0.155   9.549
 3744SOL    HW213130   9.398   0.184   9.416
 3745SOL     OW13131   8.451   5.681   1.888
 3745SOL    HW113132   8.464   5.678   1.983
 3745SOL    HW213133   8.362   5.649   1.875
 3746SOL     OW13134   6.123  12.922   7.171
 3746SOL    HW113135   6.062  12.937   7.098
 3746SOL    HW213136   6.137  13.009   7.208
 3747SOL     OW13137   0.277   8.976   6.616
 3747SOL    HW113138   0.296   8.908   6.681
 3747SOL    HW213139   0.324   9.053   6.648
 3748SOL     OW13140   1.367  14.563  12.165
 3748SOL    HW113141   1.354  14.471  12.186
 3748SOL    HW213142   1.278  14.598  12.156
 3749SOL     OW13143   1.651  12.441   1.839
 3749SOL    HW113144   1.734  12.395   1.843
 3749SOL    HW213145   1.628  12.457   1.931
 3750SOL     OW13146   5.033  14.865   1.247
 3750SOL    HW113147   5.007  14.784   1.290
 3750SOL    HW213148   5.078   0.039   1.316
 3751SOL     OW13149  11.259   3.272  11.203
 3751SOL    HW113150  11.242   3.207  11.271
 3751SOL    HW213151  11.181   3.328  11.204
 3752SOL     OW13152   1.998   2.784   8.718
 3752SOL    HW113153   1.948   2.865   8.731
 3752SOL    HW213154   2.021   2.755   8.806
 3753SOL     OW13155  10.258   1.233  11.715
 3753SOL    HW113156  10.303   1.298  11.661
 3753SOL    HW213157  10.230   1.282  11.792
 3754SOL     OW13158  14.308   3.790  14.046
 3754SOL    HW113159  14.298   3.753  14.134
 3754SOL    HW213160  14.221   3.821  14.023
 3755SOL     OW13161   0.247  10.834   9.944
 3755SOL    HW113162   0.155  10.808   9.937
 3755SOL    HW213163   0.248  10.900  10.013
 3756SOL     OW13164  10.291  10.295   1.533
 3756SOL    HW113165  10.331  10.330   1.453
 3756SOL    HW213166  10.254  10.371   1.577
 3757SOL     OW13167   7.961   4.363   4.968
 3757SOL    HW113168   7.895   4.424   4.937
 3757SOL    HW213169   7.926   4.276   4.946
 3758SOL     OW13170  11.308   6.048   6.456
 3758SOL    HW113171  11.361   5.969   6.463
 3758SOL    HW213172  11.332   6.086   6.371
 3759SOL     OW13173   6.411   2.756  10.599
 3759SOL    HW113174   6.389   2.737  10.508
 3759SOL    HW213175   6.380   2.680  10.648
 3760SOL     OW13176  13.355   0.507  13.381
 3760SOL    HW113177  13.328   0.566  13.310
 3760SOL    HW213178  13.274   0.463  13.408
 3761SOL     OW13179   2.753  10.725   2.596
 3761SOL    HW113180   2.755  10.806   2.546
 3761SOL    HW213181   2.704  10.748   2.676
 3762SOL     OW13182   8.683  13.585   7.387
 3762SOL    HW113183   8.618  13.616   7.324
 3762SOL    HW213184   8.644  13.506   7.424
 3763SOL     OW13185   2.925  11.028   1.768
 3763SOL    HW113186   2.896  11.101   1.713
 3763SOL    HW213187   2.972  10.970   1.708
 3764SOL     OW13188  12.035   4.951  11.076
 3764SOL    HW113189  11.994   5.026  11.032
 3764SOL    HW213190  12.062   4.986  11.161
 3765SOL     OW13191   3.461   2.251   9.121
 3765SOL    HW113192   3.392   2.316   9.116
 3765SOL    HW213193   3.419   2.175   9.163
 3766SOL     OW13194   5.289   5.428  10.289
 3766SOL    HW113195   5.299   5.403  10.381
 3766SOL    HW213196   5.362   5.488  10.273
 3767SOL     OW13197   3.203  14.177  13.724
 3767SOL    HW113198   3.251  14.096  13.741
 3767SOL    HW213199   3.176  14.171  13.632
 3768SOL     OW13200  13.768  10.422   0.938
 3768SOL    HW113201  13.710  10.374   0.878
 3768SOL    HW213202  13.788  10.359   1.007
 3769SOL     OW13203  14.524   1.099  10.517
 3769SOL    HW113204  14.553   1.055  10.597
 3769SOL    HW213205  14.559   1.046  10.446
 3770SOL     OW13206  11.268  10.652   6.456
 3770SOL    HW113207  11.218  10.667   6.536
 3770SOL    HW213208  11.303  10.737   6.432
 3771SOL     OW13209   1.849   7.780   9.704
 3771SOL    HW113210   1.934   7.778   9.661
 3771SOL    HW213211   1.868   7.814   9.792
 3772SOL     OW13212   8.255  14.115   0.959
 3772SOL    HW113213   8.339  14.073   0.942
 3772SOL    HW213214   8.264  14.155   1.045
 3773SOL     OW13215  11.219   5.330  13.069
 3773SOL    HW113216  11.267   5.265  13.120
 3773SOL    HW213217  11.149   5.280  13.026
 3774SOL     OW13218   3.826   1.829   3.194
 3774SOL    HW113219   3.895   1.895   3.194
 3774SOL    HW213220   3.783   1.840   3.109
 3775SOL     OW13221   8.710   1.910  14.735
 3775SOL    HW113222   8.620   1.910  14.703
 3775SOL    HW213223   8.734   1.818  14.740
 3776SOL     OW13224  14.065   6.903  10.067
 3776SOL    HW113225  14.029   6.831  10.015
 3776SOL    HW213226  14.152   6.873  10.092
 3777SOL     OW13227   5.252   5.590   9.116
 3777SOL    HW113228   5.266   5.651   9.044
 3777SOL    HW213229   5.340   5.567   9.145
 3778SOL     OW13230  10.463   1.076  10.527
 3778SOL    HW113231  10.453   0.981  10.538
 3778SOL    HW213232  10.455   1.111  10.615
 3779SOL     OW13233  14.032  11.766   3.498
 3779SOL    HW113234  14.091  11.758   3.424
 3779SOL    HW213235  13.958  11.817   3.465
 3780SOL     OW13236   9.476   1.167  11.472
 3780SOL    HW113237   9.486   1.162  11.567
 3780SOL    HW213238   9.436   1.253  11.457
 3781SOL     OW13239  14.213   7.947   1.737
 3781SOL    HW113240  14.169   7.989   1.811
 3781SOL    HW213241  14.283   7.896   1.776
 3782SOL     OW13242   1.969   6.077   3.652
 3782SOL    HW113243   2.031   6.123   3.595
 3782SOL    HW213244   1.905   6.038   3.592
 3783SOL     OW13245  10.242   6.248   2.895
 3783SOL    HW113246  10.212   6.318   2.954
 3783SOL    HW213247  10.163   6.221   2.849
 3784SOL     OW13248   6.409   4.543   4.149
 3784SOL    HW113249   6.407   4.447   4.150
 3784SOL    HW213250   6.317   4.568   4.160
 3785SOL     OW13251   5.019   6.116   4.417
 3785SOL    HW113252   4.942   6.060   4.429
 3785SOL    HW213253   5.000   6.164   4.336
 3786SOL     OW13254   2.309   6.175   3.125
 3786SOL    HW113255   2.334   6.167   3.033
 3786SOL    HW213256   2.215   6.194   3.122
 3787SOL     OW13257  12.848  10.057   7.561
 3787SOL    HW113258  12.935  10.095   7.574
 3787SOL    HW213259  12.865   9.968   7.529
 3788SOL     OW13260   7.953  13.529   7.067
 3788SOL    HW113261   7.884  13.576   7.020
 3788SOL    HW213262   7.905  13.469   7.125
 3789SOL     OW13263   9.643   8.482   8.424
 3789SOL    HW113264   9.719   8.462   8.479
 3789SOL    HW213265   9.568   8.473   8.483
 3790SOL     OW13266   0.629   7.876   7.179
 3790SOL    HW113267   0.597   7.939   7.115
 3790SOL    HW213268   0.692   7.822   7.131
 3791SOL     OW13269   8.194   7.660  11.181
 3791SOL    HW113270   8.132   7.587  11.178
 3791SOL    HW213271   8.280   7.619  11.173
 3792SOL     OW13272  11.929   6.584   7.113
 3792SOL    HW113273  12.005   6.526   7.110
 3792SOL    HW213274  11.965   6.669   7.139
 3793SOL     OW13275   4.176  13.029  10.979
 3793SOL    HW113276   4.141  12.943  11.004
 3793SOL    HW213277   4.208  13.016  10.890
 3794SOL     OW13278   7.043   2.841   2.476
 3794SOL    HW113279   7.062   2.757   2.517
 3794SOL    HW213280   7.057   2.905   2.547
 3795SOL     OW13281   7.757   2.942  12.938
 3795SOL    HW113282   7.671   2.978  12.958
 3795SOL    HW213283   7.759   2.858  12.985
 3796SOL     OW13284  13.586   7.135   3.272
 3796SOL    HW113285  13.549   7.210   3.227
 3796SOL    HW213286  13.538   7.130   3.355
 3797SOL     OW13287   2.256   0.007   6.047
 3797SOL    HW113288   2.223  14.816   6.108
 3797SOL    HW213289   2.341   0.034   6.084
 3798SOL     OW13290   4.986  10.743   3.710
 3798SOL    HW113291   4.976  10.755   3.805
 3798SOL    HW213292   5.051  10.808   3.684
 3799SOL     OW13293  11.411   7.111  12.440
 3799SOL    HW113294  11.381   7.020  12.433
 3799SOL    HW213295  11.335   7.163  12.415
 3800SOL     OW13296  13.466   0.132  12.656
 3800SOL    HW113297  13.432   0.089  12.578
 3800SOL    HW213298  13.404   0.109  12.725
 3801SOL     OW13299   3.573  13.922  10.860
 3801SOL    HW113300   3.505  13.952  10.799
 3801SOL    HW213301   3.533  13.932  10.946
 3802SOL     OW13302  10.235  10.919   0.006
 3802SOL    HW113303  10.183  10.969  14.817
 3802SOL    HW213304  10.298  10.871  14.828
 3803SOL     OW13305  10.397   6.351   4.064
 3803SOL    HW113306  10.431   6.431   4.025
 3803SOL    HW213307  10.416   6.359   4.157
 3804SOL     OW13308  12.056   0.257  13.364
 3804SOL    HW113309  12.050   0.163  13.382
 3804SOL    HW213310  12.076   0.296  13.449
 3805SOL     OW13311  13.561  10.418  10.666
 3805SOL    HW113312  13.481  10.367  10.679
 3805SOL    HW213313  13.630  10.352  10.663
 3806SOL     OW13314   3.157  13.453   1.478
 3806SOL    HW113315   3.182  13.433   1.388
 3806SOL    HW213316   3.172  13.372   1.527
 3807SOL     OW13317  11.250   9.367   8.428
 3807SOL    HW113318  11.316   9.413   8.376
 3807SOL    HW213319  11.299   9.302   8.477
 3808SOL     OW13320   6.324   9.072   1.116
 3808SOL    HW113321   6.376   9.068   1.197
 3808SOL    HW213322   6.388   9.057   1.046
 3809SOL     OW13323  12.358  13.608   1.901
 3809SOL    HW113324  12.312  13.686   1.869
 3809SOL    HW213325  12.408  13.576   1.826
 3810SOL     OW13326   1.575  10.680   8.219
 3810SOL    HW113327   1.510  10.748   8.204
 3810SOL    HW213328   1.641  10.721   8.273
 3811SOL     OW13329   1.239   8.263  14.042
 3811SOL    HW113330   1.215   8.181  14.085
 3811SOL    HW213331   1.332   8.253  14.020
 3812SOL     OW13332   6.447   1.714  14.511
 3812SOL    HW113333   6.394   1.729  14.433
 3812SOL    HW213334   6.412   1.776  14.576
 3813SOL     OW13335   1.385  11.319  10.364
 3813SOL    HW113336   1.458  11.289  10.309
 3813SOL    HW213337   1.350  11.395  10.318
 3814SOL     OW13338  14.717   0.403  12.560
 3814SOL    HW113339  14.745   0.492  12.581
 3814SOL    HW213340  14.744   0.351  12.636
 3815SOL     OW13341   0.598   5.018  10.374
 3815SOL    HW113342   0.505   4.997  10.375
 3815SOL    HW213343   0.608   5.084  10.443
 3816SOL     OW13344  14.172   8.629  11.732
 3816SOL    HW113345  14.236   8.628  11.662
 3816SOL    HW213346  14.174   8.540  11.768
 3817SOL     OW13347   6.284   7.645   8.628
 3817SOL    HW113348   6.331   7.564   8.611
 3817SOL    HW213349   6.203   7.636   8.577
 3818SOL     OW13350   3.739   1.360  10.743
 3818SOL    HW113351   3.769   1.416  10.814
 3818SOL    HW213352   3.692   1.419  10.684
 3819SOL     OW13353   7.804   4.605   8.288
 3819SOL    HW113354   7.824   4.513   8.271
 3819SOL    HW213355   7.708   4.608   8.295
 3820SOL     OW13356   9.897   3.811   6.532
 3820SOL    HW113357   9.829   3.761   6.577
 3820SOL    HW213358   9.909   3.889   6.586
 3821SOL     OW13359   5.256   7.656  10.669
 3821SOL    HW113360   5.292   7.741  10.693
 3821SOL    HW213361   5.326   7.612  10.622
 3822SOL     OW13362  13.120  11.101  12.408
 3822SOL    HW113363  13.193  11.045  12.434
 3822SOL    HW213364  13.079  11.056  12.334
 3823SOL     OW13365   3.372  11.111  11.962
 3823SOL    HW113366   3.303  11.178  11.953
 3823SOL    HW213367   3.330  11.041  12.013
 3824SOL     OW13368   8.828   0.721  13.890
 3824SOL    HW113369   8.845   0.674  13.809
 3824SOL    HW213370   8.882   0.800  13.884
 3825SOL     OW13371   8.568   9.045  13.756
 3825SOL    HW113372   8.493   9.035  13.815
 3825SOL    HW213373   8.644   9.043  13.814
 3826SOL     OW13374   5.181  10.933   3.683
 3826SOL    HW113375   5.178  10.950   3.777
 3826SOL    HW213376   5.158  11.017   3.643
 3827SOL     OW13377  10.664   0.369   5.668
 3827SOL    HW113378  10.726   0.434   5.701
 3827SOL    HW213379  10.651   0.393   5.576
 3828SOL     OW13380  13.606   6.303   1.211
 3828SOL    HW113381  13.599   6.228   1.152
 3828SOL    HW213382  13.551   6.279   1.286
 3829SOL     OW13383   9.843  11.389  11.726
 3829SOL    HW113384   9.849  11.339  11.807
 3829SOL    HW213385   9.810  11.475  11.752
 3830SOL     OW13386  14.412  12.130  13.214
 3830SOL    HW113387  14.350  12.066  13.179
 3830SOL    HW213388  14.497  12.100  13.183
 3831SOL     OW13389   1.728   0.471   7.158
 3831SOL    HW113390   1.722   0.408   7.230
 3831SOL    HW213391   1.802   0.527   7.182
 3832SOL     OW13392   7.037   3.910   5.908
 3832SOL    HW113393   7.079   3.824   5.908
 3832SOL    HW213394   7.009   3.922   5.998
 3833SOL     OW13395   7.477   4.420  13.831
 3833SOL    HW113396   7.557   4.369  13.842
 3833SOL    HW213397   7.409   4.354  13.815
 3834SOL     OW13398  11.785  10.575   6.056
 3834SOL    HW113399  11.778  10.495   6.108
 3834SOL    HW213400  11.713  10.570   5.994
 3835SOL     OW13401   8.181  14.647   0.590
 3835SOL    HW113402   8.247  14.585   0.559
 3835SOL    HW213403   8.225  14.732   0.589
 3836SOL     OW13404   7.365  10.145  10.940
 3836SOL    HW113405   7.275  10.112  10.943
 3836SOL    HW213406   7.413  10.079  10.891
 3837SOL     OW13407  10.476  14.768  11.486
 3837SOL    HW113408  10.530  14.841  11.457
 3837SOL    HW213409  10.388  14.788  11.455
 3838SOL     OW13410  10.572  14.837  10.409
 3838SOL    HW113411  10.517   0.019  10.462
 3838SOL    HW213412  10.639  14.804  10.470
 3839SOL     OW13413   1.319   4.357   2.810
 3839SOL    HW113414   1.333   4.276   2.858
 3839SOL    HW213415   1.407   4.388   2.789
 3840SOL     OW13416   1.085   1.014  12.125
 3840SOL    HW113417   1.089   1.014  12.221
 3840SOL    HW213418   1.010   0.959  12.105
 3841SOL     OW13419   3.541  12.629   7.173
 3841SOL    HW113420   3.628  12.647   7.135
 3841SOL    HW213421   3.535  12.534   7.176
 3842SOL     OW13422   5.311  12.666  14.621
 3842SOL    HW113423   5.262  12.588  14.648
 3842SOL    HW213424   5.378  12.632  14.561
 3843SOL     OW13425   3.236   7.020   9.381
 3843SOL    HW113426   3.300   7.029   9.310
 3843SOL    HW213427   3.241   7.102   9.429
 3844SOL     OW13428   9.328  13.048   8.976
 3844SOL    HW113429   9.353  13.120   9.034
 3844SOL    HW213430   9.247  13.015   9.014
 3845SOL     OW13431  14.617   1.110   7.333
 3845SOL    HW113432  14.522   1.124   7.336
 3845SOL    HW213433  14.632   1.031   7.384
 3846SOL     OW13434   0.283  13.122   5.799
 3846SOL    HW113435   0.243  13.132   5.713
 3846SOL    HW213436   0.376  13.106   5.780
 3847SOL     OW13437  12.380   3.083  11.910
 3847SOL    HW113438  12.427   3.071  11.827
 3847SOL    HW213439  12.445   3.122  11.969
 3848SOL     OW13440  13.434   0.860   8.284
 3848SOL    HW113441  13.456   0.826   8.371
 3848SOL    HW213442  13.485   0.805   8.224
 3849SOL     OW13443   1.264   1.488   9.076
 3849SOL    HW113444   1.357   1.489   9.052
 3849SOL    HW213445   1.218   1.511   8.996
 3850SOL     OW13446   4.173   8.579  13.064
 3850SOL    HW113447   4.249   8.557  13.119
 3850SOL    HW213448   4.211   8.600  12.979
 3851SOL     OW13449  14.152  13.823  13.995
 3851SOL    HW113450  14.148  13.896  14.058
 3851SOL    HW213451  14.134  13.864  13.911
 3852SOL     OW13452   7.587  10.069   2.371
 3852SOL    HW113453   7.619   9.980   2.391
 3852SOL    HW213454   7.641  10.098   2.298
 3853SOL     OW13455   9.306   7.763   3.402
 3853SOL    HW113456   9.334   7.673   3.421
 3853SOL    HW213457   9.243   7.784   3.471
 3854SOL     OW13458   3.930  10.487   1.969
 3854SOL    HW113459   3.852  10.471   2.022
 3854SOL    HW213460   3.998  10.509   2.032
 3855SOL     OW13461   8.073  11.488  11.253
 3855SOL    HW113462   8.134  11.415  11.254
 3855SOL    HW213463   8.048  11.498  11.161
 3856SOL     OW13464  13.842  10.688   5.521
 3856SOL    HW113465  13.869  10.601   5.494
 3856SOL    HW213466  13.866  10.745   5.447
 3857SOL     OW13467  10.805   2.475  13.986
 3857SOL    HW113468  10.743   2.544  14.008
 3857SOL    HW213469  10.798   2.412  14.058
 3858SOL     OW13470   0.446   7.862   2.573
 3858SOL    HW113471   0.470   7.945   2.614
 3858SOL    HW213472   0.409   7.810   2.644
 3859SOL     OW13473   6.960   1.469  11.992
 3859SOL    HW113474   6.889   1.534  11.993
 3859SOL    HW213475   6.994   1.471  11.903
 3860SOL     OW13476  11.003  12.051   0.574
 3860SOL    HW113477  11.002  11.959   0.599
 3860SOL    HW213478  10.910  12.074   0.568
 3861SOL     OW13479   8.451   3.940   9.416
 3861SOL    HW113480   8.532   3.928   9.368
 3861SOL    HW213481   8.411   4.018   9.377
 3862SOL     OW13482   2.063   3.071   5.186
 3862SOL    HW113483   2.067   3.003   5.119
 3862SOL    HW213484   2.116   3.037   5.258
 3863SOL     OW13485   4.503   4.856   1.532
 3863SOL    HW113486   4.418   4.882   1.499
 3863SOL    HW213487   4.559   4.932   1.519
 3864SOL     OW13488   4.458  12.674   4.031
 3864SOL    HW113489   4.418  12.675   4.118
 3864SOL    HW213490   4.546  12.710   4.044
 3865SOL     OW13491   4.943   1.940   4.039
 3865SOL    HW113492   4.984   1.922   3.954
 3865SOL    HW213493   4.852   1.960   4.018
 3866SOL     OW13494   1.519  13.176   7.364
 3866SOL    HW113495   1.521  13.175   7.268
 3866SOL    HW213496   1.596  13.125   7.390
 3867SOL     OW13497  14.231   6.126   0.564
 3867SOL    HW113498  14.222   6.196   0.628
 3867SOL    HW213499  14.231   6.170   0.479
 3868SOL     OW13500   9.185   9.551   2.756
 3868SOL    HW113501   9.172   9.548   2.850
 3868SOL    HW213502   9.201   9.460   2.731
 3869SOL     OW13503   0.420  12.824   4.833
 3869SOL    HW113504   0.503  12.777   4.832
 3869SOL    HW213505   0.412  12.860   4.744
 3870SOL     OW13506   3.277  14.675   4.957
 3870SOL    HW113507   3.231  14.688   4.874
 3870SOL    HW213508   3.296  14.581   4.959
 3871SOL     OW13509  14.111   6.980   9.581
 3871SOL    HW113510  14.054   6.965   9.506
 3871SOL    HW213511  14.200   6.975   9.545
 3872SOL     OW13512  10.674   3.218   5.266
 3872SOL    HW113513  10.640   3.272   5.195
 3872SOL    HW213514  10.612   3.145   5.272
 3873SOL     OW13515  12.938   6.575   2.986
 3873SOL    HW113516  12.893   6.532   3.059
 3873SOL    HW213517  12.984   6.649   3.026
 3874SOL     OW13518   1.117   3.515   6.150
 3874SOL    HW113519   1.170   3.495   6.227
 3874SOL    HW213520   1.129   3.440   6.092
 3875SOL     OW13521   4.768   8.466   1.413
 3875SOL    HW113522   4.743   8.378   1.442
 3875SOL    HW213523   4.793   8.454   1.321
 3876SOL     OW13524   4.982  13.765  10.714
 3876SOL    HW113525   4.926  13.840  10.735
 3876SOL    HW213526   4.920  13.696  10.689
 3877SOL     OW13527   9.040   3.353  12.575
 3877SOL    HW113528   9.105   3.375  12.642
 3877SOL    HW213529   9.007   3.267  12.602
 3878SOL     OW13530   8.971   7.738  11.666
 3878SOL    HW113531   8.922   7.793  11.604
 3878SOL    HW213532   8.999   7.663  11.613
 3879SOL     OW13533   8.924   3.165   9.269
 3879SOL    HW113534   8.935   3.247   9.221
 3879SOL    HW213535   8.983   3.172   9.344
 3880SOL     OW13536   6.362  14.394   8.776
 3880SOL    HW113537   6.435  14.433   8.727
 3880SOL    HW213538   6.376  14.420   8.866
 3881SOL     OW13539  14.235  10.867   7.442
 3881SOL    HW113540  14.329  10.875   7.458
 3881SOL    HW213541  14.199  10.952   7.467
 3882SOL     OW13542  14.784   5.874  13.640
 3882SOL    HW113543  14.732   5.920  13.706
 3882SOL    HW213544  14.725   5.865  13.565
 3883SOL     OW13545  13.998  10.324   4.007
 3883SOL    HW113546  14.072  10.381   3.985
 3883SOL    HW213547  13.927  10.354   3.950
 3884SOL     OW13548  12.095   7.331   8.921
 3884SOL    HW113549  12.083   7.426   8.925
 3884SOL    HW213550  12.019   7.296   8.968
 3885SOL     OW13551   6.393  11.090   6.107
 3885SOL    HW113552   6.413  11.128   6.021
 3885SOL    HW213553   6.379  11.165   6.164
 3886SOL     OW13554   7.838  10.678   5.590
 3886SOL    HW113555   7.863  10.702   5.500
 3886SOL    HW213556   7.768  10.614   5.579
 3887SOL     OW13557   7.173  11.347  12.466
 3887SOL    HW113558   7.239  11.398  12.418
 3887SOL    HW213559   7.190  11.367  12.558
 3888SOL     OW13560   8.136   0.359  14.021
 3888SOL    HW113561   8.063   0.297  14.019
 3888SOL    HW213562   8.210   0.309  14.055
 3889SOL     OW13563   8.408   9.618  14.200
 3889SOL    HW113564   8.355   9.667  14.263
 3889SOL    HW213565   8.497   9.650  14.213
 3890SOL     OW13566  13.433   7.230   8.664
 3890SOL    HW113567  13.478   7.307   8.700
 3890SOL    HW213568  13.499   7.189   8.608
 3891SOL     OW13569  13.752   5.650   9.747
 3891SOL    HW113570  13.660   5.627   9.759
 3891SOL    HW213571  13.796   5.613   9.822
 3892SOL     OW13572   3.139  11.101   6.112
 3892SOL    HW113573   3.224  11.063   6.090
 3892SOL    HW213574   3.119  11.159   6.039
 3893SOL     OW13575   3.037   6.044   6.417
 3893SOL    HW113576   3.124   6.010   6.438
 3893SOL    HW213577   3.047   6.082   6.330
 3894SOL     OW13578  10.814  11.480   7.895
 3894SOL    HW113579  10.872  11.430   7.838
 3894SOL    HW213580  10.787  11.555   7.842
 3895SOL     OW13581   6.767   5.402   6.887
 3895SOL    HW113582   6.689   5.457   6.878
 3895SOL    HW213583   6.737   5.327   6.937
 3896SOL     OW13584  11.251   3.283   4.184
 3896SOL    HW113585  11.277   3.261   4.095
 3896SOL    HW213586  11.248   3.379   4.185
 3897SOL     OW13587  13.613   5.451  14.853
 3897SOL    HW113588  13.595   5.409   0.062
 3897SOL    HW213589  13.629   5.543  14.874
 3898SOL     OW13590  10.611   4.211  13.645
 3898SOL    HW113591  10.565   4.295  13.650
 3898SOL    HW213592  10.543   4.148  13.624
 3899SOL     OW13593   0.894   2.628  10.369
 3899SOL    HW113594   0.955   2.701  10.363
 3899SOL    HW213595   0.940   2.563  10.421
 3900SOL     OW13596   2.066  13.702  12.894
 3900SOL    HW113597   2.147  13.743  12.926
 3900SOL    HW213598   2.014  13.688  12.972
 3901SOL     OW13599   1.924   3.279   5.317
 3901SOL    HW113600   1.991   3.218   5.285
 3901SOL    HW213601   1.844   3.251   5.272
 3902SOL     OW13602   8.522  14.335   1.341
 3902SOL    HW113603   8.502  14.403   1.276
 3902SOL    HW213604   8.438  14.289   1.354
 3903SOL     OW13605   1.782   4.888   3.652
 3903SOL    HW113606   1.794   4.831   3.728
 3903SOL    HW213607   1.871   4.910   3.624
 3904SOL     OW13608   4.039   0.568  10.590
 3904SOL    HW113609   4.126   0.590  10.556
 3904SOL    HW213610   4.003   0.652  10.620
 3905SOL     OW13611  12.050  11.793  10.159
 3905SOL    HW113612  12.095  11.816  10.240
 3905SOL    HW213613  12.093  11.848  10.092
 3906SOL     OW13614  11.219   8.821   1.520
 3906SOL    HW113615  11.196   8.901   1.566
 3906SOL    HW213616  11.232   8.756   1.588
 3907SOL     OW13617   4.885  11.919   3.963
 3907SOL    HW113618   4.809  11.873   3.996
 3907SOL    HW213619   4.950  11.851   3.947
 3908SOL     OW13620   5.704   2.656   7.602
 3908SOL    HW113621   5.796   2.630   7.598
 3908SOL    HW213622   5.668   2.627   7.517
 3909SOL     OW13623   9.628  10.556   4.627
 3909SOL    HW113624   9.608  10.502   4.551
 3909SOL    HW213625   9.688  10.622   4.595
 3910SOL     OW13626   0.396   8.315   4.587
 3910SOL    HW113627   0.366   8.376   4.519
 3910SOL    HW213628   0.322   8.308   4.647
 3911SOL     OW13629   8.178   7.270   8.503
 3911SOL    HW113630   8.155   7.276   8.596
 3911SOL    HW213631   8.221   7.184   8.495
 3912SOL     OW13632  11.055   5.402   5.144
 3912SOL    HW113633  10.972   5.362   5.169
 3912SOL    HW213634  11.114   5.328   5.132
 3913SOL     OW13635   3.909   6.451   1.275
 3913SOL    HW113636   3.988   6.483   1.319
 3913SOL    HW213637   3.933   6.364   1.245
 3914SOL     OW13638   0.958  14.115  14.314
 3914SOL    HW113639   0.888  14.177  14.295
 3914SOL    HW213640   0.938  14.082  14.401
 3915SOL     OW13641   3.286   7.714   0.131
 3915SOL    HW113642   3.292   7.624   0.161
 3915SOL    HW213643   3.326   7.765   0.202
 3916SOL     OW13644   7.873  14.634  12.077
 3916SOL    HW113645   7.900  14.560  12.023
 3916SOL    HW213646   7.812  14.683  12.021
 3917SOL     OW13647  10.628   8.509   7.053
 3917SOL    HW113648  10.656   8.552   6.972
 3917SOL    HW213649  10.537   8.536   7.064
 3918SOL     OW13650   3.589  12.082   2.985
 3918SOL    HW113651   3.612  11.990   3.000
 3918SOL    HW213652   3.669  12.130   3.009
 3919SOL     OW13653  13.765  12.933   6.542
 3919SOL    HW113654  13.673  12.922   6.519
 3919SOL    HW213655  13.784  13.025   6.522
 3920SOL     OW13656   6.518   8.613   9.603
 3920SOL    HW113657   6.566   8.688   9.638
 3920SOL    HW213658   6.583   8.561   9.558
 3921SOL     OW13659   3.597  13.279   1.013
 3921SOL    HW113660   3.512  13.239   1.033
 3921SOL    HW213661   3.652  13.259   1.089
 3922SOL     OW13662  12.905  14.105  10.849
 3922SOL    HW113663  13.000  14.102  10.862
 3922SOL    HW213664  12.881  14.016  10.825
 3923SOL     OW13665  12.991   6.049   2.604
 3923SOL    HW113666  12.912   6.064   2.657
 3923SOL    HW213667  12.966   5.979   2.544
 3924SOL     OW13668  13.466   1.149  11.655
 3924SOL    HW113669  13.449   1.113  11.742
 3924SOL    HW213670  13.441   1.079  11.595
 3925SOL     OW13671   6.657   0.292   5.382
 3925SOL    HW113672   6.710   0.246   5.316
 3925SOL    HW213673   6.567   0.280   5.352
 3926SOL     OW13674   1.745  11.254   6.997
 3926SOL    HW113675   1.728  11.314   6.924
 3926SOL    HW213676   1.658  11.241   7.037
 3927SOL     OW13677  13.522   7.844   8.071
 3927SOL    HW113678  13.546   7.752   8.062
 3927SOL    HW213679  13.550   7.884   7.988
 3928SOL     OW13680   0.378   3.585   2.850
 3928SOL    HW113681   0.314   3.518   2.825
 3928SOL    HW213682   0.427   3.545   2.922
 3929SOL     OW13683  12.154   7.037   5.362
 3929SOL    HW113684  12.203   6.970   5.315
 3929SOL    HW213685  12.069   6.997   5.378
 3930SOL     OW13686  13.134  11.535   4.785
 3930SOL    HW113687  13.112  11.452   4.827
 3930SOL    HW213688  13.075  11.599   4.825
 3931SOL     OW13689  14.134   0.503   9.528
 3931SOL    HW113690  14.145   0.409   9.535
 3931SOL    HW213691  14.047   0.515   9.490
 3932SOL     OW13692   3.920   4.289  14.819
 3932SOL    HW113693   3.839   4.286  14.768
 3932SOL    HW213694   3.987   4.314  14.755
 3933SOL     OW13695   7.614   0.010   3.174
 3933SOL    HW113696   7.709   0.012   3.169
 3933SOL    HW213697   7.589  14.815   3.113
 3934SOL     OW13698  12.112  13.289   5.699
 3934SOL    HW113699  12.127  13.203   5.661
 3934SOL    HW213700  12.030  13.319   5.661
 3935SOL     OW13701  11.003   3.449   0.379
 3935SOL    HW113702  10.997   3.497   0.462
 3935SOL    HW213703  11.055   3.371   0.401
 3936SOL     OW13704   2.504  12.906  14.321
 3936SOL    HW113705   2.588  12.911  14.274
 3936SOL    HW213706   2.471  12.819  14.301
 3937SOL     OW13707   8.889   6.085   2.046
 3937SOL    HW113708   8.846   6.028   2.110
 3937SOL    HW213709   8.820   6.111   1.986
 3938SOL     OW13710  13.740   3.383   9.793
 3938SOL    HW113711  13.826   3.349   9.769
 3938SOL    HW213712  13.759   3.459   9.847
 3939SOL     OW13713   9.142  11.354   2.284
 3939SOL    HW113714   9.213  11.295   2.257
 3939SOL    HW213715   9.068  11.296   2.301
 3940SOL     OW13716   0.806   0.547   0.055
 3940SOL    HW113717   0.756   0.629   0.050
 3940SOL    HW213718   0.845   0.538  14.842
 3941SOL     OW13719   6.912   3.544   5.075
 3941SOL    HW113720   6.844   3.520   5.012
 3941SOL    HW213721   6.936   3.461   5.117
 3942SOL     OW13722   7.086  13.935  13.766
 3942SOL    HW113723   7.002  13.889  13.756
 3942SOL    HW213724   7.076  13.985  13.847
 3943SOL     OW13725   1.350   0.035   4.610
 3943SOL    HW113726   1.438   0.071   4.597
 3943SOL    HW213727   1.361  14.816   4.598
 3944SOL     OW13728   5.866  11.862   1.189
 3944SOL    HW113729   5.784  11.833   1.230
 3944SOL    HW213730   5.840  11.933   1.131
 3945SOL     OW13731  13.604  14.546   0.961
 3945SOL    HW113732  13.525  14.587   0.995
 3945SOL    HW213733  13.603  14.457   0.997
 3946SOL     OW13734  11.866   0.740   5.294
 3946SOL    HW113735  11.926   0.682   5.247
 3946SOL    HW213736  11.839   0.689   5.370
 3947SOL     OW13737   5.990  13.641   6.227
 3947SOL    HW113738   5.999  13.669   6.136
 3947SOL    HW213739   6.065  13.582   6.241
 3948SOL     OW13740   8.641   2.522  14.430
 3948SOL    HW113741   8.675   2.570  14.354
 3948SOL    HW213742   8.553   2.495  14.403
 3949SOL     OW13743   3.255   0.237  10.595
 3949SOL    HW113744   3.174   0.245  10.544
 3949SOL    HW213745   3.311   0.307  10.562
 3950SOL     OW13746  10.146   3.481   4.301
 3950SOL    HW113747  10.238   3.490   4.328
 3950SOL    HW213748  10.135   3.387   4.284
 3951SOL     OW13749   2.953   5.891   6.886
 3951SOL    HW113750   3.032   5.914   6.936
 3951SOL    HW213751   2.942   5.797   6.902
 3952SOL     OW13752   3.352  14.086   6.058
 3952SOL    HW113753   3.438  14.090   6.018
 3952SOL    HW213754   3.356  14.148   6.131
 3953SOL     OW13755   7.566   9.902  13.271
 3953SOL    HW113756   7.620   9.880  13.347
 3953SOL    HW213757   7.611   9.860  13.197
 3954SOL     OW13758  14.333   8.877  13.873
 3954SOL    HW113759  14.340   8.969  13.850
 3954SOL    HW213760  14.252   8.848  13.830
 3955SOL     OW13761  12.528   7.645   9.383
 3955SOL    HW113762  12.493   7.557   9.372
 3955SOL    HW213763  12.473   7.700   9.329
 3956SOL     OW13764   7.255   1.793   4.596
 3956SOL    HW113765   7.264   1.796   4.500
 3956SOL    HW213766   7.325   1.735   4.625
 3957SOL     OW13767   5.316  12.639   5.633
 3957SOL    HW113768   5.226  12.672   5.639
 3957SOL    HW213769   5.368  12.716   5.610
 3958SOL     OW13770  10.379   4.868   8.339
 3958SOL    HW113771  10.410   4.791   8.291
 3958SOL    HW213772  10.285   4.869   8.324
 3959SOL     OW13773  13.449  13.187  10.340
 3959SOL    HW113774  13.397  13.131  10.398
 3959SOL    HW213775  13.447  13.273  10.382
 3960SOL     OW13776   4.946  11.940   8.687
 3960SOL    HW113777   4.854  11.933   8.661
 3960SOL    HW213778   4.957  11.871   8.754
 3961SOL     OW13779   6.770   0.853   9.032
 3961SOL    HW113780   6.730   0.933   9.065
 3961SOL    HW213781   6.800   0.877   8.944
 3962SOL     OW13782   6.861  14.512   1.545
 3962SOL    HW113783   6.932  14.452   1.521
 3962SOL    HW213784   6.880  14.535   1.636
 3963SOL     OW13785  10.871   1.791   4.641
 3963SOL    HW113786  10.836   1.797   4.552
 3963SOL    HW213787  10.836   1.868   4.686
 3964SOL     OW13788  13.870  10.815   8.034
 3964SOL    HW113789  13.854  10.888   8.093
 3964SOL    HW213790  13.929  10.758   8.083
 3965SOL     OW13791   9.606   1.528   0.059
 3965SOL    HW113792   9.619   1.440   0.092
 3965SOL    HW213793   9.554   1.572   0.126
 3966SOL     OW13794   2.521  10.667   9.368
 3966SOL    HW113795   2.596  10.621   9.407
 3966SOL    HW213796   2.474  10.599   9.321
 3967SOL     OW13797   5.562   9.166   5.042
 3967SOL    HW113798   5.553   9.111   4.964
 3967SOL    HW213799   5.472   9.173   5.076
 3968SOL     OW13800   7.012   4.293   3.138
 3968SOL    HW113801   6.951   4.271   3.208
 3968SOL    HW213802   6.957   4.323   3.066
 3969SOL     OW13803  12.781  13.191   3.673
 3969SOL    HW113804  12.702  13.188   3.728
 3969SOL    HW213805  12.780  13.279   3.634
 3970SOL     OW13806   3.736   6.329  11.504
 3970SOL    HW113807   3.766   6.294  11.421
 3970SOL    HW213808   3.727   6.423  11.489
 3971SOL     OW13809   8.758  12.560   5.081
 3971SOL    HW113810   8.753  12.651   5.112
 3971SOL    HW213811   8.816  12.565   5.004
 3972SOL     OW13812  13.205  14.618   8.982
 3972SOL    HW113813  13.221  14.566   8.903
 3972SOL    HW213814  13.155  14.694   8.951
 3973SOL     OW13815   7.175   7.264   2.901
 3973SOL    HW113816   7.171   7.183   2.851
 3973SOL    HW213817   7.094   7.264   2.953
 3974SOL     OW13818  14.628   3.544   5.639
 3974SOL    HW113819  14.590   3.614   5.585
 3974SOL    HW213820  14.654   3.587   5.720
 3975SOL     OW13821   2.792  12.832  13.037
 3975SOL    HW113822   2.836  12.885  12.970
 3975SOL    HW213823   2.701  12.830  13.009
 3976SOL     OW13824   1.305   1.978   7.351
 3976SOL    HW113825   1.379   1.998   7.293
 3976SOL    HW213826   1.228   2.004   7.299
 3977SOL     OW13827   2.133   3.695   4.637
 3977SOL    HW113828   2.086   3.627   4.684
 3977SOL    HW213829   2.116   3.775   4.687
 3978SOL     OW13830   6.990   4.270   9.838
 3978SOL    HW113831   6.958   4.357   9.816
 3978SOL    HW213832   7.079   4.268   9.804
 3979SOL     OW13833  10.935  11.401  12.798
 3979SOL    HW113834  11.030  11.408  12.804
 3979SOL    HW213835  10.919  11.368  12.709
 3980SOL     OW13836   8.696  13.523  12.713
 3980SOL    HW113837   8.753  13.561  12.780
 3980SOL    HW213838   8.633  13.470  12.762
 3981SOL     OW13839  11.693  13.975  13.510
 3981SOL    HW113840  11.738  14.035  13.451
 3981SOL    HW213841  11.757  13.955  13.578
 3982SOL     OW13842  12.539  11.232   6.641
 3982SOL    HW113843  12.466  11.261   6.696
 3982SOL    HW213844  12.498  11.207   6.558
 3983SOL     OW13845   3.003   0.609  13.193
 3983SOL    HW113846   3.058   0.563  13.130
 3983SOL    HW213847   2.948   0.542  13.231
 3984SOL     OW13848   5.425   4.889   9.304
 3984SOL    HW113849   5.487   4.873   9.374
 3984SOL    HW213850   5.369   4.960   9.336
 3985SOL     OW13851   1.027   2.250   4.362
 3985SOL    HW113852   1.114   2.254   4.322
 3985SOL    HW213853   1.002   2.342   4.374
 3986SOL     OW13854  14.060  10.824   4.245
 3986SOL    HW113855  14.090  10.914   4.234
 3986SOL    HW213856  14.117  10.772   4.188
 3987SOL     OW13857   0.930  11.722   7.543
 3987SOL    HW113858   0.858  11.701   7.601
 3987SOL    HW213859   0.892  11.716   7.455
 3988SOL     OW13860   9.676  11.070   9.966
 3988SOL    HW113861   9.648  10.979   9.962
 3988SOL    HW213862   9.697  11.086  10.058
 3989SOL     OW13863   1.449   3.995   4.852
 3989SOL    HW113864   1.364   3.987   4.895
 3989SOL    HW213865   1.512   3.978   4.922
 3990SOL     OW13866   6.891   8.837   7.091
 3990SOL    HW113867   6.894   8.744   7.114
 3990SOL    HW213868   6.806   8.849   7.050
 3991SOL     OW13869   2.069   4.900  11.311
 3991SOL    HW113870   2.076   4.805  11.321
 3991SOL    HW213871   2.054   4.914  11.218
 3992SOL     OW13872   3.179   3.419   8.008
 3992SOL    HW113873   3.125   3.497   7.994
 3992SOL    HW213874   3.132   3.349   7.962
 3993SOL     OW13875   7.134   7.385   3.968
 3993SOL    HW113876   7.072   7.319   3.937
 3993SOL    HW213877   7.175   7.346   4.045
 3994SOL     OW13878   9.068  14.228   9.770
 3994SOL    HW113879   9.149  14.188   9.739
 3994SOL    HW213880   9.067  14.314   9.729
 3995SOL     OW13881   6.187   4.995  12.644
 3995SOL    HW113882   6.251   5.066  12.634
 3995SOL    HW213883   6.190   4.948  12.560
 3996SOL     OW13884   2.530   8.522   5.271
 3996SOL    HW113885   2.541   8.428   5.286
 3996SOL    HW213886   2.619   8.558   5.277
 3997SOL     OW13887   4.492   8.239   9.345
 3997SOL    HW113888   4.480   8.333   9.328
 3997SOL    HW213889   4.409   8.211   9.383
 3998SOL     OW13890  10.273   7.805  10.686
 3998SOL    HW113891  10.285   7.711  10.692
 3998SOL    HW213892  10.179   7.817  10.670
 3999SOL     OW13893  13.166  12.694   8.469
 3999SOL    HW113894  13.117  12.698   8.387
 3999SOL    HW213895  13.163  12.602   8.495
 4000SOL     OW13896   7.862   7.606  14.342
 4000SOL    HW113897   7.805   7.540  14.382
 4000SOL    HW213898   7.813   7.635  14.265
 4001SOL     OW13899   2.614   8.979   4.282
 4001SOL    HW113900   2.646   9.054   4.333
 4001SOL    HW213901   2.640   8.903   4.334
 4002SOL     OW13902   4.108  13.745   1.516
 4002SOL    HW113903   4.057  13.664   1.517
 4002SOL    HW213904   4.110  13.771   1.423
 4003SOL     OW13905   7.777   0.106  10.327
 4003SOL    HW113906   7.714   0.178  10.316
 4003SOL    HW213907   7.748   0.061  10.407
 4004SOL     OW13908   9.968  12.018  10.310
 4004SOL    HW113909   9.932  12.104  10.332
 4004SOL    HW213910  10.051  12.038  10.267
 4005SOL     OW13911  14.164   5.067   6.960
 4005SOL    HW113912  14.144   5.035   6.872
 4005SOL    HW213913  14.092   5.034   7.015
 4006SOL     OW13914   3.446   8.366   4.667
 4006SOL    HW113915   3.478   8.379   4.757
 4006SOL    HW213916   3.409   8.450   4.642
 4007SOL     OW13917   5.927   8.396  13.122
 4007SOL    HW113918   6.007   8.349  13.146
 4007SOL    HW213919   5.908   8.450  13.200
 4008SOL     OW13920   3.509   1.881   1.636
 4008SOL    HW113921   3.534   1.834   1.557
 4008SOL    HW213922   3.536   1.824   1.708
 4009SOL     OW13923   5.863  11.286   7.485
 4009SOL    HW113924   5.926  11.232   7.532
 4009SOL    HW213925   5.801  11.314   7.552
 4010SOL     OW13926   9.216   9.908   1.740
 4010SOL    HW113927   9.244   9.902   1.649
 4010SOL    HW213928   9.217   9.818   1.772
 4011SOL     OW13929  13.214  14.121   5.762
 4011SOL    HW113930  13.171  14.039   5.737
 4011SOL    HW213931  13.180  14.186   5.701
 4012SOL     OW13932   3.762  13.833   5.292
 4012SOL    HW113933   3.794  13.744   5.303
 4012SOL    HW213934   3.836  13.880   5.253
 4013SOL     OW13935  14.860   2.983  12.632
 4013SOL    HW113936  14.829   3.069  12.662
 4013SOL    HW213937   0.030   2.946  12.708
 4014SOL     OW13938  13.799   2.187   9.280
 4014SOL    HW113939  13.737   2.250   9.244
 4014SOL    HW213940  13.858   2.166   9.207
 4015SOL     OW13941   9.076  14.827  13.485
 4015SOL    HW113942   8.981  14.823  13.498
 4015SOL    HW213943   9.105  14.736  13.497
 4016SOL     OW13944  12.972   0.304   1.926
 4016SOL    HW113945  12.949   0.311   1.834
 4016SOL    HW213946  12.896   0.263   1.967
 4017SOL     OW13947  14.190   5.543  13.237
 4017SOL    HW113948  14.161   5.607  13.302
 4017SOL    HW213949  14.280   5.568  13.216
 4018SOL     OW13950   0.693  10.029   7.620
 4018SOL    HW113951   0.765   9.988   7.668
 4018SOL    HW213952   0.615  10.005   7.670
 4019SOL     OW13953   9.844   0.564  10.990
 4019SOL    HW113954   9.935   0.547  11.014
 4019SOL    HW213955   9.803   0.592  11.072
 4020SOL     OW13956  13.119   1.877   8.003
 4020SOL    HW113957  13.151   1.792   8.035
 4020SOL    HW213958  13.043   1.896   8.058
 4021SOL     OW13959   0.680  14.295   9.462
 4021SOL    HW113960   0.595  14.322   9.495
 4021SOL    HW213961   0.663  14.266   9.372
 4022SOL     OW13962  12.760   6.301   5.327
 4022SOL    HW113963  12.726   6.300   5.416
 4022SOL    HW213964  12.807   6.218   5.318
 4023SOL     OW13965  11.454  10.818   7.681
 4023SOL    HW113966  11.537  10.771   7.677
 4023SOL    HW213967  11.462  10.888   7.617
 4024SOL     OW13968   4.830   3.711   0.105
 4024SOL    HW113969   4.876   3.783   0.149
 4024SOL    HW213970   4.747   3.749   0.078
 4025SOL     OW13971   3.573   3.927   4.911
 4025SOL    HW113972   3.588   3.973   4.828
 4025SOL    HW213973   3.494   3.968   4.947
 4026SOL     OW13974   6.150   7.981   9.042
 4026SOL    HW113975   6.197   7.997   8.960
 4026SOL    HW213976   6.070   8.033   9.033
 4027SOL     OW13977   4.967   1.643   4.952
 4027SOL    HW113978   5.035   1.659   5.017
 4027SOL    HW213979   4.905   1.715   4.963
 4028SOL     OW13980  10.075   3.484   1.970
 4028SOL    HW113981  10.110   3.452   2.053
 4028SOL    HW213982  10.130   3.442   1.903
 4029SOL     OW13983   8.373   6.016  12.233
 4029SOL    HW113984   8.445   6.079  12.241
 4029SOL    HW213985   8.295   6.070  12.222
 4030SOL     OW13986   9.079   8.849   0.305
 4030SOL    HW113987   9.027   8.770   0.288
 4030SOL    HW213988   9.096   8.846   0.400
 4031SOL     OW13989  11.786   0.156  13.135
 4031SOL    HW113990  11.822   0.070  13.157
 4031SOL    HW213991  11.739   0.183  13.213
 4032SOL     OW13992   9.129   6.105  11.261
 4032SOL    HW113993   9.186   6.090  11.186
 4032SOL    HW213994   9.105   6.018  11.291
 4033SOL     OW13995  12.807   9.805   4.945
 4033SOL    HW113996  12.835   9.824   4.855
 4033SOL    HW213997  12.732   9.862   4.959
 4034SOL     OW13998   0.375   2.918   2.996
 4034SOL    HW113999   0.412   2.831   3.013
 4034SOL    HW214000   0.296   2.921   3.050
 4035SOL     OW14001   3.058   3.206  12.347
 4035SOL    HW114002   3.059   3.299  12.371
 4035SOL    HW214003   2.989   3.198  12.281
 4036SOL     OW14004   0.692   1.526  13.691
 4036SOL    HW114005   0.768   1.491  13.645
 4036SOL    HW214006   0.725   1.552  13.777
 4037SOL     OW14007  14.407   7.602   7.686
 4037SOL    HW114008  14.479   7.541   7.704
 4037SOL    HW214009  14.426   7.677   7.743
 4038SOL     OW14010   5.010   8.935   3.310
 4038SOL    HW114011   4.942   8.994   3.340
 4038SOL    HW214012   5.061   8.914   3.389
 4039SOL     OW14013  12.204   2.056   4.618
 4039SOL    HW114014  12.127   2.113   4.612
 4039SOL    HW214015  12.270   2.098   4.563
 4040SOL     OW14016   6.192   7.569  14.406
 4040SOL    HW114017   6.103   7.570  14.440
 4040SOL    HW214018   6.210   7.660  14.382
 4041SOL     OW14019  14.013   9.456   7.383
 4041SOL    HW114020  13.948   9.427   7.319
 4041SOL    HW214021  14.034   9.546   7.357
 4042SOL     OW14022  12.525   3.358   3.056
 4042SOL    HW114023  12.609   3.324   3.027
 4042SOL    HW214024  12.540   3.387   3.146
 4043SOL     OW14025   5.902  13.789   4.538
 4043SOL    HW114026   5.969  13.741   4.490
 4043SOL    HW214027   5.951  13.841   4.602
 4044SOL     OW14028   1.224   8.443  14.289
 4044SOL    HW114029   1.287   8.515  14.286
 4044SOL    HW214030   1.250   8.386  14.216
 4045SOL     OW14031   1.082   2.710   3.823
 4045SOL    HW114032   1.053   2.652   3.753
 4045SOL    HW214033   1.138   2.656   3.878
 4046SOL     OW14034   0.075   8.668   9.038
 4046SOL    HW114035   0.140   8.709   9.096
 4046SOL    HW214036   0.034   8.741   8.992
 4047SOL     OW14037  10.643   2.203  11.693
 4047SOL    HW114038  10.666   2.292  11.718
 4047SOL    HW214039  10.613   2.211  11.602
 4048SOL     OW14040  11.272  14.591   3.430
 4048SOL    HW114041  11.239  14.655   3.367
 4048SOL    HW214042  11.195  14.560   3.477
 4049SOL     OW14043  12.387  12.188   5.722
 4049SOL    HW114044  12.390  12.223   5.632
 4049SOL    HW214045  12.454  12.120   5.723
 4050SOL     OW14046  12.803  14.649   0.997
 4050SOL    HW114047  12.757  14.573   0.960
 4050SOL    HW214048  12.760  14.665   1.081
 4051SOL     OW14049  13.919   9.178   4.691
 4051SOL    HW114050  13.932   9.244   4.623
 4051SOL    HW214051  14.005   9.167   4.730
 4052SOL     OW14052   6.911   5.646  11.256
 4052SOL    HW114053   6.887   5.737  11.270
 4052SOL    HW214054   6.942   5.643  11.165
 4053SOL     OW14055   0.860   4.187   0.417
 4053SOL    HW114056   0.870   4.274   0.455
 4053SOL    HW214057   0.896   4.128   0.483
 4054SOL     OW14058   2.664  12.039   5.998
 4054SOL    HW114059   2.708  11.964   6.038
 4054SOL    HW214060   2.623  12.084   6.072
 4055SOL     OW14061   0.424   7.110  14.152
 4055SOL    HW114062   0.381   7.193  14.170
 4055SOL    HW214063   0.489   7.130  14.085
 4056SOL     OW14064   1.863   5.249  13.976
 4056SOL    HW114065   1.896   5.161  13.955
 4056SOL    HW214066   1.833   5.241  14.067
 4057SOL     OW14067  11.803   6.978   0.046
 4057SOL    HW114068  11.844   6.892   0.055
 4057SOL    HW214069  11.734   6.979   0.112
 4058SOL     OW14070   3.257  12.153   3.462
 4058SOL    HW114071   3.251  12.073   3.410
 4058SOL    HW214072   3.230  12.127   3.550
 4059SOL     OW14073   7.788   7.515   1.133
 4059SOL    HW114074   7.775   7.428   1.096
 4059SOL    HW214075   7.726   7.519   1.207
 4060SOL     OW14076  14.078   4.951   2.464
 4060SOL    HW114077  14.035   4.879   2.417
 4060SOL    HW214078  14.008   4.988   2.518
 4061SOL     OW14079   6.448   6.407   3.687
 4061SOL    HW114080   6.375   6.465   3.709
 4061SOL    HW214081   6.407   6.334   3.641
 4062SOL     OW14082   3.646  11.090   3.398
 4062SOL    HW114083   3.551  11.091   3.386
 4062SOL    HW214084   3.673  11.001   3.373
 4063SOL     OW14085  10.759   2.127   8.119
 4063SOL    HW114086  10.747   2.055   8.057
 4063SOL    HW214087  10.780   2.203   8.064
 4064SOL     OW14088  13.584   2.347   5.306
 4064SOL    HW114089  13.606   2.377   5.217
 4064SOL    HW214090  13.489   2.362   5.313
 4065SOL     OW14091   5.884   3.074  13.963
 4065SOL    HW114092   5.914   3.151  13.915
 4065SOL    HW214093   5.924   3.083  14.049
 4066SOL     OW14094   6.252   1.369   3.687
 4066SOL    HW114095   6.214   1.343   3.603
 4066SOL    HW214096   6.177   1.392   3.741
 4067SOL     OW14097   1.237   5.571   0.108
 4067SOL    HW114098   1.190   5.551   0.189
 4067SOL    HW214099   1.329   5.574   0.135
 4068SOL     OW14100  13.837   6.960  13.262
 4068SOL    HW114101  13.804   6.910  13.187
 4068SOL    HW214102  13.766   6.960  13.325
 4069SOL     OW14103  12.536   9.333   4.227
 4069SOL    HW114104  12.475   9.263   4.250
 4069SOL    HW214105  12.561   9.315   4.137
 4070SOL     OW14106  14.727  12.564   3.798
 4070SOL    HW114107  14.687  12.542   3.882
 4070SOL    HW214108  14.715  12.658   3.789
 4071SOL     OW14109  10.586   4.067   5.996
 4071SOL    HW114110  10.655   4.023   6.046
 4071SOL    HW214111  10.607   4.160   6.003
 4072SOL     OW14112  14.182   4.528   1.894
 4072SOL    HW114113  14.245   4.574   1.838
 4072SOL    HW214114  14.147   4.459   1.838
 4073SOL     OW14115   6.826   1.866   0.281
 4073SOL    HW114116   6.897   1.840   0.222
 4073SOL    HW214117   6.755   1.892   0.222
 4074SOL     OW14118   8.540   7.257   4.308
 4074SOL    HW114119   8.489   7.181   4.334
 4074SOL    HW214120   8.629   7.237   4.337
 4075SOL     OW14121   4.766  11.648   7.292
 4075SOL    HW114122   4.731  11.655   7.203
 4075SOL    HW214123   4.755  11.735   7.330
 4076SOL     OW14124  11.687   2.910   7.995
 4076SOL    HW114125  11.656   2.821   8.012
 4076SOL    HW214126  11.759   2.922   8.056
 4077SOL     OW14127   4.734   2.150  12.430
 4077SOL    HW114128   4.752   2.063  12.395
 4077SOL    HW214129   4.689   2.196  12.360
 4078SOL     OW14130  11.701   5.064  12.099
 4078SOL    HW114131  11.728   5.155  12.084
 4078SOL    HW214132  11.691   5.057  12.194
 4079SOL     OW14133   7.947   0.551  11.666
 4079SOL    HW114134   8.039   0.575  11.666
 4079SOL    HW214135   7.942   0.471  11.614
 4080SOL     OW14136   0.140   5.342  12.967
 4080SOL    HW114137   0.094   5.419  12.935
 4080SOL    HW214138   0.227   5.373  12.991
 4081SOL     OW14139  14.027   0.007   9.329
 4081SOL    HW114140  14.024   0.087   9.277
 4081SOL    HW214141  14.110  14.841   9.306
 4082SOL     OW14142   4.492   0.995   3.963
 4082SOL    HW114143   4.556   1.019   4.030
 4082SOL    HW214144   4.498   0.900   3.957
 4083SOL     OW14145  10.189   5.416   0.346
 4083SOL    HW114146  10.211   5.369   0.427
 4083SOL    HW214147  10.163   5.347   0.285
 4084SOL     OW14148   9.182   6.976   5.709
 4084SOL    HW114149   9.258   7.011   5.754
 4084SOL    HW214150   9.156   7.045   5.647
 4085SOL     OW14151   2.620  14.662   6.163
 4085SOL    HW114152   2.693  14.720   6.143
 4085SOL    HW214153   2.656  14.597   6.224
 4086SOL     OW14154   4.854  11.546   9.619
 4086SOL    HW114155   4.912  11.555   9.543
 4086SOL    HW214156   4.818  11.634   9.632
 4087SOL     OW14157  14.100   9.004   8.093
 4087SOL    HW114158  14.058   8.989   8.009
 4087SOL    HW214159  14.192   9.019   8.072
 4088SOL     OW14160   1.323   3.928  10.860
 4088SOL    HW114161   1.316   3.895  10.771
 4088SOL    HW214162   1.411   3.902  10.888
 4089SOL     OW14163   8.045   5.806  13.746
 4089SOL    HW114164   7.952   5.786  13.742
 4089SOL    HW214165   8.063   5.854  13.665
 4090SOL     OW14166   8.690   9.423   3.890
 4090SOL    HW114167   8.683   9.432   3.795
 4090SOL    HW214168   8.600   9.414   3.920
 4091SOL     OW14169   5.612   0.900  14.443
 4091SOL    HW114170   5.681   0.836  14.460
 4091SOL    HW214171   5.658   0.984  14.436
 4092SOL     OW14172   4.971  14.789   3.075
 4092SOL    HW114173   5.053  14.754   3.038
 4092SOL    HW214174   4.921  14.819   2.999
 4093SOL     OW14175   4.216  10.324   9.812
 4093SOL    HW114176   4.264  10.241   9.816
 4093SOL    HW214177   4.188  10.331   9.720
 4094SOL     OW14178   8.002   2.859   9.830
 4094SOL    HW114179   7.976   2.926   9.894
 4094SOL    HW214180   7.999   2.777   9.878
 4095SOL     OW14181   9.657   3.408   8.481
 4095SOL    HW114182   9.608   3.407   8.399
 4095SOL    HW214183   9.623   3.332   8.529
 4096SOL     OW14184  13.423   4.774   0.332
 4096SOL    HW114185  13.338   4.755   0.294
 4096SOL    HW214186  13.482   4.783   0.257
 4097SOL     OW14187  13.758   8.393  12.838
 4097SOL    HW114188  13.805   8.345  12.907
 4097SOL    HW214189  13.669   8.402  12.871
 4098SOL     OW14190  10.342   5.421  14.047
 4098SOL    HW114191  10.260   5.419  14.097
 4098SOL    HW214192  10.333   5.496  13.989
 4099SOL     OW14193  13.708   5.840   9.467
 4099SOL    HW114194  13.803   5.841   9.467
 4099SOL    HW214195  13.684   5.795   9.386
 4100SOL     OW14196   6.792   3.779  11.929
 4100SOL    HW114197   6.856   3.851  11.933
 4100SOL    HW214198   6.810   3.735  11.846
 4101SOL     OW14199   1.748  11.009   7.386
 4101SOL    HW114200   1.808  10.939   7.412
 4101SOL    HW214201   1.803  11.087   7.382
 4102SOL     OW14202   2.411  13.214   5.678
 4102SOL    HW114203   2.388  13.290   5.625
 4102SOL    HW214204   2.374  13.140   5.631
 4103SOL     OW14205  12.073  12.041   5.088
 4103SOL    HW114206  12.154  12.090   5.103
 4103SOL    HW214207  12.005  12.109   5.081
 4104SOL     OW14208   3.645   0.161   9.666
 4104SOL    HW114209   3.589   0.189   9.739
 4104SOL    HW214210   3.668   0.242   9.621
 4105SOL     OW14211   4.732   5.041  10.238
 4105SOL    HW114212   4.821   5.077  10.229
 4105SOL    HW214213   4.721   4.987  10.159
 4106SOL     OW14214  11.431   6.993   7.183
 4106SOL    HW114215  11.378   7.050   7.240
 4106SOL    HW214216  11.429   7.036   7.098
 4107SOL     OW14217  12.298   4.207   3.489
 4107SOL    HW114218  12.252   4.128   3.463
 4107SOL    HW214219  12.236   4.278   3.472
 4108SOL     OW14220   2.793  11.506   0.512
 4108SOL    HW114221   2.864  11.484   0.572
 4108SOL    HW214222   2.824  11.478   0.426
 4109SOL     OW14223   2.084   1.823   4.831
 4109SOL    HW114224   2.092   1.832   4.737
 4109SOL    HW214225   2.105   1.731   4.848
 4110SOL     OW14226  14.750   5.223   3.812
 4110SOL    HW114227  14.759   5.314   3.785
 4110SOL    HW214228  14.832   5.182   3.785
 4111SOL     OW14229  13.161   6.322   1.370
 4111SOL    HW114230  13.077   6.343   1.331
 4111SOL    HW214231  13.161   6.368   1.454
 4112SOL     OW14232   8.991   8.839  14.067
 4112SOL    HW114233   9.049   8.762  14.066
 4112SOL    HW214234   9.028   8.896  14.135
 4113SOL     OW14235   5.628   5.145   1.207
 4113SOL    HW114236   5.651   5.091   1.283
 4113SOL    HW214237   5.666   5.231   1.227
 4114SOL     OW14238   3.664  12.429   6.221
 4114SOL    HW114239   3.600  12.491   6.186
 4114SOL    HW214240   3.719  12.482   6.279
 4115SOL     OW14241   3.249   4.767   6.450
 4115SOL    HW114242   3.308   4.808   6.514
 4115SOL    HW214243   3.286   4.792   6.365
 4116SOL     OW14244   2.151   3.115   7.770
 4116SOL    HW114245   2.083   3.182   7.765
 4116SOL    HW214246   2.230   3.159   7.738
 4117SOL     OW14247   8.985  12.465   3.300
 4117SOL    HW114248   8.909  12.445   3.356
 4117SOL    HW214249   8.950  12.519   3.230
 4118SOL     OW14250   3.006  11.732   9.235
 4118SOL    HW114251   2.953  11.724   9.314
 4118SOL    HW214252   3.030  11.825   9.231
 4119SOL     OW14253  14.735   6.744   6.981
 4119SOL    HW114254  14.659   6.687   6.968
 4119SOL    HW214255  14.761   6.727   7.072
 4120SOL     OW14256   4.987   6.869   9.407
 4120SOL    HW114257   4.936   6.949   9.419
 4120SOL    HW214258   5.037   6.859   9.488
 4121SOL     OW14259  10.870   1.794   7.616
 4121SOL    HW114260  10.965   1.784   7.621
 4121SOL    HW214261  10.855   1.845   7.536
 4122SOL     OW14262  13.949   1.004   4.088
 4122SOL    HW114263  13.881   0.981   4.151
 4122SOL    HW214264  14.014   0.933   4.096
 4123SOL     OW14265  13.367   9.603  13.886
 4123SOL    HW114266  13.317   9.547  13.945
 4123SOL    HW214267  13.377   9.552  13.806
 4124SOL     OW14268   4.122  11.826   7.366
 4124SOL    HW114269   4.193  11.890   7.356
 4124SOL    HW214270   4.162  11.753   7.413
 4125SOL     OW14271   5.341  12.489   3.967
 4125SOL    HW114272   5.329  12.584   3.956
 4125SOL    HW214273   5.280  12.450   3.905
 4126SOL     OW14274  12.761   9.009   6.755
 4126SOL    HW114275  12.838   9.057   6.725
 4126SOL    HW214276  12.688   9.044   6.704
 4127SOL     OW14277   9.634   0.461   2.892
 4127SOL    HW114278   9.650   0.479   2.799
 4127SOL    HW214279   9.560   0.517   2.915
 4128SOL     OW14280   1.867   0.118  14.507
 4128SOL    HW114281   1.818   0.093  14.429
 4128SOL    HW214282   1.824   0.198  14.538
 4129SOL     OW14283  12.424   6.886   2.129
 4129SOL    HW114284  12.374   6.947   2.181
 4129SOL    HW214285  12.420   6.921   2.040
 4130SOL     OW14286   8.454   4.576   2.315
 4130SOL    HW114287   8.408   4.640   2.369
 4130SOL    HW214288   8.513   4.628   2.261
 4131SOL     OW14289   4.650   0.834   1.750
 4131SOL    HW114290   4.571   0.812   1.699
 4131SOL    HW214291   4.644   0.779   1.828
 4132SOL     OW14292   2.462   7.765   5.905
 4132SOL    HW114293   2.440   7.853   5.876
 4132SOL    HW214294   2.507   7.778   5.989
 4133SOL     OW14295  11.138   9.220  13.973
 4133SOL    HW114296  11.203   9.190  14.038
 4133SOL    HW214297  11.055   9.185  14.005
 4134SOL     OW14298   4.021  11.061   6.017
 4134SOL    HW114299   4.036  11.067   6.112
 4134SOL    HW214300   3.950  11.123   6.001
 4135SOL     OW14301   2.402   3.085   2.833
 4135SOL    HW114302   2.459   3.071   2.909
 4135SOL    HW214303   2.457   3.064   2.758
 4136SOL     OW14304  12.762   2.584   9.644
 4136SOL    HW114305  12.758   2.512   9.581
 4136SOL    HW214306  12.740   2.544   9.728
 4137SOL     OW14307  11.175  10.267   3.587
 4137SOL    HW114308  11.081  10.265   3.608
 4137SOL    HW214309  11.217  10.294   3.668
 4138SOL     OW14310   5.035   4.295   8.184
 4138SOL    HW114311   5.032   4.293   8.280
 4138SOL    HW214312   4.984   4.373   8.160
 4139SOL     OW14313   0.130   2.569   6.114
 4139SOL    HW114314   0.037   2.580   6.138
 4139SOL    HW214315   0.147   2.639   6.052
 4140SOL     OW14316   5.373  12.324  13.547
 4140SOL    HW114317   5.426  12.403  13.556
 4140SOL    HW214318   5.407  12.282  13.468
 4141SOL     OW14319   6.899   6.367   1.443
 4141SOL    HW114320   6.803   6.372   1.448
 4141SOL    HW214321   6.917   6.276   1.419
 4142SOL     OW14322  10.921  14.285  10.214
 4142SOL    HW114323  10.922  14.353  10.147
 4142SOL    HW214324  10.829  14.258  10.220
 4143SOL     OW14325   6.956   1.596   3.174
 4143SOL    HW114326   7.027   1.541   3.207
 4143SOL    HW214327   6.990   1.685   3.178
 4144SOL     OW14328   8.064  14.872   9.245
 4144SOL    HW114329   7.990  14.812   9.256
 4144SOL    HW214330   8.130  14.821   9.198
 4145SOL     OW14331   9.770   1.696   3.795
 4145SOL    HW114332   9.809   1.614   3.764
 4145SOL    HW214333   9.699   1.714   3.734
 4146SOL     OW14334   7.349   5.265   8.604
 4146SOL    HW114335   7.402   5.187   8.587
 4146SOL    HW214336   7.355   5.278   8.699
 4147SOL     OW14337  13.367   9.221   5.068
 4147SOL    HW114338  13.416   9.287   5.018
 4147SOL    HW214339  13.281   9.260   5.082
 4148SOL     OW14340   1.570   1.579   1.817
 4148SOL    HW114341   1.655   1.622   1.809
 4148SOL    HW214342   1.590   1.489   1.841
 4149SOL     OW14343   8.340   0.471   2.394
 4149SOL    HW114344   8.266   0.461   2.334
 4149SOL    HW214345   8.409   0.417   2.356
 4150SOL     OW14346   7.118  13.680   4.357
 4150SOL    HW114347   7.133  13.763   4.313
 4150SOL    HW214348   7.036  13.693   4.406
 4151SOL     OW14349   8.654   9.507   3.610
 4151SOL    HW114350   8.689   9.594   3.596
 4151SOL    HW214351   8.678   9.458   3.531
 4152SOL     OW14352   2.311   8.864  10.322
 4152SOL    HW114353   2.253   8.863  10.246
 4152SOL    HW214354   2.361   8.945  10.312
 4153SOL     OW14355   2.028   5.450   3.469
 4153SOL    HW114356   2.115   5.433   3.507
 4153SOL    HW214357   2.045   5.461   3.375
 4154SOL     OW14358  10.627   0.647  12.407
 4154SOL    HW114359  10.647   0.554  12.411
 4154SOL    HW214360  10.675   0.685  12.480
 4155SOL     OW14361   4.437  12.775   5.004
 4155SOL    HW114362   4.448  12.709   4.936
 4155SOL    HW214363   4.499  12.750   5.072
 4156SOL     OW14364  12.049  10.169   0.326
 4156SOL    HW114365  12.055  10.143   0.418
 4156SOL    HW214366  12.140  10.178   0.298
 4157SOL     OW14367   6.472  13.648   8.901
 4157SOL    HW114368   6.461  13.621   8.810
 4157SOL    HW214369   6.383  13.667   8.931
 4158SOL     OW14370  12.692  10.171   6.341
 4158SOL    HW114371  12.660  10.160   6.251
 4158SOL    HW214372  12.780  10.208   6.331
 4159SOL     OW14373   5.199   7.628  11.587
 4159SOL    HW114374   5.153   7.709  11.608
 4159SOL    HW214375   5.292   7.651  11.590
 4160SOL     OW14376  10.474   1.228   9.852
 4160SOL    HW114377  10.449   1.199   9.940
 4160SOL    HW214378  10.450   1.321   9.850
 4161SOL     OW14379   7.560  10.863  13.968
 4161SOL    HW114380   7.623  10.932  13.950
 4161SOL    HW214381   7.568  10.802  13.894
 4162SOL     OW14382   7.157  12.294   9.916
 4162SOL    HW114383   7.171  12.323   9.826
 4162SOL    HW214384   7.067  12.263   9.918
 4163SOL     OW14385  13.717   3.798   0.974
 4163SOL    HW114386  13.786   3.751   1.021
 4163SOL    HW214387  13.751   3.886   0.962
 4164SOL     OW14388   5.174  13.081  10.731
 4164SOL    HW114389   5.178  13.138  10.654
 4164SOL    HW214390   5.237  13.118  10.792
 4165SOL     OW14391  13.721   1.848   0.755
 4165SOL    HW114392  13.770   1.889   0.826
 4165SOL    HW214393  13.786   1.833   0.687
 4166SOL     OW14394   6.097  11.104  11.256
 4166SOL    HW114395   6.036  11.098  11.330
 4166SOL    HW214396   6.060  11.044  11.191
 4167SOL     OW14397   6.532   3.875  11.612
 4167SOL    HW114398   6.579   3.954  11.585
 4167SOL    HW214399   6.444   3.885  11.575
 4168SOL     OW14400  13.672   6.025   5.251
 4168SOL    HW114401  13.613   6.097   5.229
 4168SOL    HW214402  13.635   5.949   5.207
 4169SOL     OW14403   4.447   5.894   8.408
 4169SOL    HW114404   4.365   5.868   8.366
 4169SOL    HW214405   4.430   5.981   8.444
 4170SOL     OW14406   3.711   3.440   1.216
 4170SOL    HW114407   3.779   3.375   1.197
 4170SOL    HW214408   3.669   3.410   1.295
 4171SOL     OW14409  12.780   1.647   9.968
 4171SOL    HW114410  12.826   1.614   9.891
 4171SOL    HW214411  12.715   1.579   9.987
 4172SOL     OW14412  12.259  13.734   3.309
 4172SOL    HW114413  12.258  13.674   3.383
 4172SOL    HW214414  12.263  13.821   3.348
 4173SOL     OW14415   5.468   5.789  14.214
 4173SOL    HW114416   5.434   5.700  14.226
 4173SOL    HW214417   5.536   5.797  14.282
 4174SOL     OW14418  11.221   3.425   3.469
 4174SOL    HW114419  11.274   3.397   3.394
 4174SOL    HW214420  11.136   3.445   3.431
 4175SOL     OW14421  13.667   7.072   7.182
 4175SOL    HW114422  13.650   7.009   7.112
 4175SOL    HW214423  13.722   7.139   7.142
 4176SOL     OW14424   5.444   9.872   2.513
 4176SOL    HW114425   5.385   9.797   2.499
 4176SOL    HW214426   5.456   9.875   2.608
 4177SOL     OW14427   1.817   0.206   2.641
 4177SOL    HW114428   1.808   0.225   2.735
 4177SOL    HW214429   1.856   0.285   2.604
 4178SOL     OW14430   9.534   8.170  14.045
 4178SOL    HW114431   9.589   8.132  14.113
 4178SOL    HW214432   9.478   8.098  14.016
 4179SOL     OW14433  11.042   6.767   7.861
 4179SOL    HW114434  11.028   6.680   7.898
 4179SOL    HW214435  10.990   6.825   7.916
 4180SOL     OW14436  11.506   9.788   4.939
 4180SOL    HW114437  11.446   9.786   5.013
 4180SOL    HW214438  11.484   9.711   4.887
 4181SOL     OW14439   4.712   6.580  10.031
 4181SOL    HW114440   4.705   6.629  10.113
 4181SOL    HW214441   4.697   6.489  10.056
 4182SOL     OW14442   3.311   5.742  13.500
 4182SOL    HW114443   3.232   5.786  13.531
 4182SOL    HW214444   3.325   5.670  13.561
 4183SOL     OW14445  14.622   0.713   1.765
 4183SOL    HW114446  14.598   0.622   1.783
 4183SOL    HW214447  14.679   0.708   1.689
 4184SOL     OW14448   8.024   2.483   0.140
 4184SOL    HW114449   7.967   2.417   0.180
 4184SOL    HW214450   8.105   2.437   0.122
 4185SOL     OW14451   0.079   1.494  14.690
 4185SOL    HW114452   0.158   1.476  14.741
 4185SOL    HW214453   0.014   1.521  14.755
 4186SOL     OW14454   4.128  14.150  12.687
 4186SOL    HW114455   4.072  14.200  12.747
 4186SOL    HW214456   4.099  14.059  12.698
 4187SOL     OW14457   9.947  13.409  11.668
 4187SOL    HW114458   9.882  13.353  11.711
 4187SOL    HW214459  10.029  13.388  11.711
 4188SOL     OW14460   3.541   8.350   5.964
 4188SOL    HW114461   3.617   8.408   5.964
 4188SOL    HW214462   3.486   8.381   5.892
 4189SOL     OW14463  12.082  14.283   2.689
 4189SOL    HW114464  12.104  14.190   2.694
 4189SOL    HW214465  12.150  14.327   2.740
 4190SOL     OW14466  13.606  13.439  11.970
 4190SOL    HW114467  13.646  13.515  12.011
 4190SOL    HW214468  13.668  13.368  11.985
 4191SOL     OW14469  12.467   5.945   8.384
 4191SOL    HW114470  12.556   5.979   8.386
 4191SOL    HW214471  12.446   5.936   8.291
 4192SOL     OW14472   9.815   7.104  12.530
 4192SOL    HW114473   9.905   7.074  12.546
 4192SOL    HW214474   9.824   7.168  12.459
 4193SOL     OW14475  13.295   4.400   4.470
 4193SOL    HW114476  13.347   4.321   4.457
 4193SOL    HW214477  13.333   4.464   4.410
 4194SOL     OW14478  11.221   4.313  12.704
 4194SOL    HW114479  11.280   4.273  12.640
 4194SOL    HW214480  11.173   4.239  12.742
 4195SOL     OW14481  10.156  11.722   4.316
 4195SOL    HW114482  10.061  11.712   4.305
 4195SOL    HW214483  10.190  11.731   4.227
 4196SOL     OW14484  10.971  14.014   4.648
 4196SOL    HW114485  10.965  14.034   4.555
 4196SOL    HW214486  10.882  14.023   4.681
 4197SOL     OW14487   5.250   3.693  11.791
 4197SOL    HW114488   5.315   3.625  11.772
 4197SOL    HW214489   5.223   3.726  11.706
 4198SOL     OW14490   5.714  13.851   1.762
 4198SOL    HW114491   5.666  13.789   1.706
 4198SOL    HW214492   5.710  13.934   1.714
 4199SOL     OW14493  11.882   1.876   6.556
 4199SOL    HW114494  11.872   1.960   6.512
 4199SOL    HW214495  11.867   1.895   6.648
 4200SOL     OW14496   4.758   4.237   6.255
 4200SOL    HW114497   4.821   4.288   6.306
 4200SOL    HW214498   4.680   4.292   6.252
 4201SOL     OW14499  12.280  12.248  10.052
 4201SOL    HW114500  12.283  12.333  10.096
 4201SOL    HW214501  12.357  12.248   9.995
 4202SOL     OW14502   8.552  14.759  10.430
 4202SOL    HW114503   8.524  14.806  10.509
 4202SOL    HW214504   8.550  14.825  10.361
 4203SOL     OW14505  12.560  11.186   3.662
 4203SOL    HW114506  12.577  11.091   3.660
 4203SOL    HW214507  12.581  11.215   3.573
 4204SOL     OW14508  14.717  13.248  14.262
 4204SOL    HW114509  14.745  13.307  14.192
 4204SOL    HW214510  14.635  13.210  14.230
 4205SOL     OW14511   1.196   0.185   6.931
 4205SOL    HW114512   1.127   0.188   6.997
 4205SOL    HW214513   1.156   0.143   6.855
 4206SOL     OW14514   3.564   4.998   1.195
 4206SOL    HW114515   3.657   4.984   1.179
 4206SOL    HW214516   3.524   4.995   1.108
 4207SOL     OW14517  13.282  10.631   8.232
 4207SOL    HW114518  13.235  10.714   8.227
 4207SOL    HW214519  13.359  10.644   8.177
 4208SOL     OW14520   1.727   9.773   6.137
 4208SOL    HW114521   1.657   9.791   6.200
 4208SOL    HW214522   1.705   9.825   6.060
 4209SOL     OW14523   6.437   7.850  12.829
 4209SOL    HW114524   6.509   7.829  12.768
 4209SOL    HW214525   6.479   7.899  12.899
 4210SOL     OW14526   4.853  12.004  10.467
 4210SOL    HW114527   4.899  11.976  10.388
 4210SOL    HW214528   4.916  12.056  10.515
 4211SOL     OW14529   7.473   5.062   5.160
 4211SOL    HW114530   7.467   5.054   5.255
 4211SOL    HW214531   7.556   5.107   5.145
 4212SOL     OW14532   4.446  10.239  12.707
 4212SOL    HW114533   4.508  10.265  12.775
 4212SOL    HW214534   4.480  10.279  12.627
 4213SOL     OW14535  10.407  14.440  12.318
 4213SOL    HW114536  10.396  14.352  12.353
 4213SOL    HW214537  10.501  14.458  12.325
 4214SOL     OW14538   0.550   6.020   6.572
 4214SOL    HW114539   0.484   6.076   6.533
 4214SOL    HW214540   0.631   6.071   6.567
 4215SOL     OW14541  10.861   5.278   2.085
 4215SOL    HW114542  10.895   5.255   1.999
 4215SOL    HW214543  10.922   5.239   2.147
 4216SOL     OW14544   9.609   0.041  10.207
 4216SOL    HW114545   9.585   0.132  10.193
 4216SOL    HW214546   9.548   0.010  10.275
 4217SOL     OW14547   6.524   7.957   1.008
 4217SOL    HW114548   6.484   7.948   1.094
 4217SOL    HW214549   6.474   7.898   0.952
 4218SOL     OW14550   5.443   2.829   3.632
 4218SOL    HW114551   5.423   2.892   3.562
 4218SOL    HW214552   5.457   2.883   3.710
 4219SOL     OW14553   8.585   3.890   1.741
 4219SOL    HW114554   8.676   3.869   1.764
 4219SOL    HW214555   8.566   3.835   1.665
 4220SOL     OW14556   9.904   4.083   1.043
 4220SOL    HW114557   9.822   4.035   1.052
 4220SOL    HW214558   9.886   4.151   0.978
 4221SOL     OW14559   4.328   9.902  12.043
 4221SOL    HW114560   4.276   9.876  11.967
 4221SOL    HW214561   4.305   9.840  12.111
 4222SOL     OW14562  12.910   5.047  14.003
 4222SOL    HW114563  12.889   5.102  13.928
 4222SOL    HW214564  12.826   5.034  14.047
 4223SOL     OW14565  12.602   2.265  11.628
 4223SOL    HW114566  12.685   2.301  11.661
 4223SOL    HW214567  12.594   2.299  11.539
 4224SOL     OW14568   5.779  14.663  14.049
 4224SOL    HW114569   5.774  14.575  14.086
 4224SOL    HW214570   5.716  14.714  14.099
 4225SOL     OW14571  14.437  10.743   7.718
 4225SOL    HW114572  14.398  10.775   7.799
 4225SOL    HW214573  14.490  10.816   7.686
 4226SOL     OW14574   9.245   7.114  11.156
 4226SOL    HW114575   9.253   7.027  11.118
 4226SOL    HW214576   9.278   7.173  11.088
 4227SOL     OW14577   7.205   9.083   1.425
 4227SOL    HW114578   7.192   9.158   1.482
 4227SOL    HW214579   7.122   9.036   1.428
 4228SOL     OW14580   1.037  14.331   3.640
 4228SOL    HW114581   0.967  14.387   3.673
 4228SOL    HW214582   1.083  14.301   3.719
 4229SOL     OW14583  12.802   4.462   0.842
 4229SOL    HW114584  12.878   4.484   0.789
 4229SOL    HW214585  12.730   4.509   0.802
 4230SOL     OW14586   0.910  11.028   9.967
 4230SOL    HW114587   0.894  10.972   9.891
 4230SOL    HW214588   0.857  10.990  10.037
 4231SOL     OW14589   5.348   5.692  13.820
 4231SOL    HW114590   5.333   5.744  13.898
 4231SOL    HW214591   5.324   5.603  13.845
 4232SOL     OW14592  11.136  12.961  14.151
 4232SOL    HW114593  11.065  12.901  14.129
 4232SOL    HW214594  11.093  13.036  14.192
 4233SOL     OW14595   0.072  10.566  10.438
 4233SOL    HW114596   0.068  10.653  10.399
 4233SOL    HW214597   0.046  10.579  10.529
 4234SOL     OW14598   2.827   5.514   2.312
 4234SOL    HW114599   2.875   5.448   2.362
 4234SOL    HW214600   2.844   5.596   2.358
 4235SOL     OW14601   7.540   7.447   0.159
 4235SOL    HW114602   7.467   7.384   0.157
 4235SOL    HW214603   7.520   7.505   0.232
 4236SOL     OW14604   3.361   4.951   9.274
 4236SOL    HW114605   3.380   5.044   9.265
 4236SOL    HW214606   3.436   4.908   9.232
 4237SOL     OW14607   9.832   0.558   3.878
 4237SOL    HW114608   9.742   0.559   3.909
 4237SOL    HW214609   9.885   0.547   3.958
 4238SOL     OW14610   6.278   2.860   2.486
 4238SOL    HW114611   6.354   2.815   2.450
 4238SOL    HW214612   6.235   2.795   2.541
 4239SOL     OW14613   5.278  10.052   5.023
 4239SOL    HW114614   5.261  10.108   5.098
 4239SOL    HW214615   5.371  10.030   5.029
 4240SOL     OW14616   1.523   6.205  13.724
 4240SOL    HW114617   1.488   6.153  13.651
 4240SOL    HW214618   1.472   6.177  13.800
 4241SOL     OW14619  13.146  14.664   3.298
 4241SOL    HW114620  13.216  14.726   3.315
 4241SOL    HW214621  13.090  14.707   3.233
 4242SOL     OW14622   8.811   7.455   8.295
 4242SOL    HW114623   8.741   7.447   8.230
 4242SOL    HW214624   8.843   7.366   8.308
 4243SOL     OW14625  10.510   1.692   2.567
 4243SOL    HW114626  10.429   1.741   2.579
 4243SOL    HW214627  10.505   1.659   2.477
 4244SOL     OW14628  10.246   1.049   6.519
 4244SOL    HW114629  10.152   1.030   6.515
 4244SOL    HW214630  10.255   1.133   6.474
 4245SOL     OW14631  10.007   8.344   2.915
 4245SOL    HW114632   9.967   8.387   2.991
 4245SOL    HW214633  10.101   8.357   2.927
 4246SOL     OW14634   4.810   6.369   5.362
 4246SOL    HW114635   4.887   6.365   5.419
 4246SOL    HW214636   4.845   6.353   5.274
 4247SOL     OW14637   8.419   8.215   7.518
 4247SOL    HW114638   8.378   8.223   7.431
 4247SOL    HW214639   8.511   8.197   7.499
 4248SOL     OW14640  13.592   9.625   4.213
 4248SOL    HW114641  13.600   9.613   4.119
 4248SOL    HW214642  13.673   9.588   4.249
 4249SOL     OW14643   3.843  10.889   0.645
 4249SOL    HW114644   3.863  10.815   0.702
 4249SOL    HW214645   3.867  10.859   0.557
 4250SOL     OW14646   3.407  12.259   1.504
 4250SOL    HW114647   3.474  12.267   1.435
 4250SOL    HW214648   3.455  12.228   1.580
 4251SOL     OW14649   9.085   2.411   6.792
 4251SOL    HW114650   9.056   2.333   6.745
 4251SOL    HW214651   9.167   2.435   6.749
 4252SOL     OW14652   6.402  14.460  14.269
 4252SOL    HW114653   6.330  14.398  14.280
 4252SOL    HW214654   6.411  14.503  14.354
 4253SOL     OW14655   2.552   9.929   7.807
 4253SOL    HW114656   2.636   9.902   7.770
 4253SOL    HW214657   2.489   9.914   7.736
 4254SOL     OW14658   9.219   3.090   7.638
 4254SOL    HW114659   9.198   3.168   7.586
 4254SOL    HW214660   9.144   3.032   7.626
 4255SOL     OW14661   7.589  11.930  11.899
 4255SOL    HW114662   7.621  12.020  11.896
 4255SOL    HW214663   7.615  11.898  11.986
 4256SOL     OW14664   3.400   8.667  14.788
 4256SOL    HW114665   3.455   8.688  14.713
 4256SOL    HW214666   3.356   8.749  14.810
 4257SOL     OW14667   8.426   0.316   2.864
 4257SOL    HW114668   8.376   0.354   2.792
 4257SOL    HW214669   8.487   0.385   2.891
 4258SOL     OW14670   6.180   2.574   9.231
 4258SOL    HW114671   6.234   2.632   9.285
 4258SOL    HW214672   6.096   2.570   9.276
 4259SOL     OW14673   7.605   0.434  12.786
 4259SOL    HW114674   7.544   0.481  12.843
 4259SOL    HW214675   7.584   0.464  12.698
 4260SOL     OW14676   9.410   0.743  11.579
 4260SOL    HW114677   9.416   0.662  11.630
 4260SOL    HW214678   9.373   0.807  11.641
 4261SOL     OW14679  10.827   3.485   2.551
 4261SOL    HW114680  10.823   3.519   2.462
 4261SOL    HW214681  10.803   3.393   2.543
 4262SOL     OW14682  13.245   9.114   6.453
 4262SOL    HW114683  13.303   9.081   6.521
 4262SOL    HW214684  13.206   9.036   6.414
 4263SOL     OW14685  11.934  14.164  14.595
 4263SOL    HW114686  11.862  14.120  14.551
 4263SOL    HW214687  11.907  14.168  14.687
 4264SOL     OW14688  13.803  10.071   8.390
 4264SOL    HW114689  13.713  10.098   8.374
 4264SOL    HW214690  13.839  10.139   8.447
 4265SOL     OW14691   2.024   0.648   6.804
 4265SOL    HW114692   2.060   0.731   6.770
 4265SOL    HW214693   1.948   0.675   6.857
 4266SOL     OW14694  14.641   4.607   9.734
 4266SOL    HW114695  14.707   4.654   9.683
 4266SOL    HW214696  14.618   4.531   9.680
 4267SOL     OW14697   7.327  10.832   2.126
 4267SOL    HW114698   7.268  10.791   2.189
 4267SOL    HW214699   7.390  10.880   2.180
 4268SOL     OW14700  14.695   3.567  10.400
 4268SOL    HW114701  14.682   3.503  10.330
 4268SOL    HW214702  14.615   3.620  10.398
 4269SOL     OW14703   2.750   6.512   7.784
 4269SOL    HW114704   2.811   6.442   7.759
 4269SOL    HW214705   2.787   6.591   7.745
 4270SOL     OW14706   4.631  13.012   3.038
 4270SOL    HW114707   4.595  13.042   3.122
 4270SOL    HW214708   4.726  13.025   3.047
 4271SOL     OW14709   2.793   6.951  13.419
 4271SOL    HW114710   2.751   6.948  13.333
 4271SOL    HW214711   2.783   6.863  13.454
 4272SOL     OW14712   8.566   7.439   5.805
 4272SOL    HW114713   8.497   7.382   5.771
 4272SOL    HW214714   8.569   7.422   5.899
 4273SOL     OW14715   6.122  10.814   4.850
 4273SOL    HW114716   6.031  10.789   4.841
 4273SOL    HW214717   6.171  10.732   4.843
 4274SOL     OW14718  11.062   9.060   7.294
 4274SOL    HW114719  10.997   9.130   7.302
 4274SOL    HW214720  11.010   8.982   7.275
 4275SOL     OW14721   2.910   0.623   0.018
 4275SOL    HW114722   2.831   0.570   0.007
 4275SOL    HW214723   2.895   0.671   0.100
 4276SOL     OW14724   1.975   1.580   3.958
 4276SOL    HW114725   2.012   1.649   4.012
 4276SOL    HW214726   1.917   1.531   4.016
 4277SOL     OW14727   0.069   1.187   1.289
 4277SOL    HW114728   0.149   1.201   1.340
 4277SOL    HW214729   0.007   1.251   1.323
 4278SOL     OW14730  11.143   0.824  11.305
 4278SOL    HW114731  11.233   0.802  11.329
 4278SOL    HW214732  11.145   0.831  11.209
 4279SOL     OW14733  11.725   5.795   7.590
 4279SOL    HW114734  11.749   5.801   7.682
 4279SOL    HW214735  11.805   5.818   7.543
 4280SOL     OW14736   7.107   6.598   3.877
 4280SOL    HW114737   7.081   6.517   3.921
 4280SOL    HW214738   7.175   6.635   3.934
 4281SOL     OW14739   0.124  12.738   4.789
 4281SOL    HW114740   0.109  12.644   4.792
 4281SOL    HW214741   0.219  12.748   4.789
 4282SOL     OW14742   5.652   5.492  10.334
 4282SOL    HW114743   5.735   5.539  10.331
 4282SOL    HW214744   5.587   5.556  10.303
 4283SOL     OW14745   3.967   4.634   0.554
 4283SOL    HW114746   4.002   4.645   0.466
 4283SOL    HW214747   3.920   4.551   0.552
 4284SOL     OW14748   4.860  11.067  11.175
 4284SOL    HW114749   4.820  10.990  11.135
 4284SOL    HW214750   4.861  11.048  11.269
 4285SOL     OW14751   6.049   2.693   6.596
 4285SOL    HW114752   5.985   2.685   6.525
 4285SOL    HW214753   6.072   2.785   6.598
 4286SOL     OW14754  14.066   5.139   9.920
 4286SOL    HW114755  13.977   5.121   9.890
 4286SOL    HW214756  14.088   5.064   9.975
 4287SOL     OW14757   7.260   5.933   8.067
 4287SOL    HW114758   7.328   5.991   8.101
 4287SOL    HW214759   7.303   5.882   7.998
 4288SOL     OW14760   8.620   3.886   0.844
 4288SOL    HW114761   8.664   3.928   0.918
 4288SOL    HW214762   8.688   3.879   0.776
 4289SOL     OW14763   4.807  12.381   8.348
 4289SOL    HW114764   4.753  12.416   8.419
 4289SOL    HW214765   4.746  12.329   8.295
 4290SOL     OW14766   2.417   9.876  12.037
 4290SOL    HW114767   2.464   9.840  11.962
 4290SOL    HW214768   2.449   9.826  12.112
 4291SOL     OW14769  13.537   4.485   3.326
 4291SOL    HW114770  13.567   4.430   3.254
 4291SOL    HW214771  13.528   4.425   3.400
 4292SOL     OW14772  12.133   8.109   0.421
 4292SOL    HW114773  12.082   8.172   0.371
 4292SOL    HW214774  12.114   8.131   0.513
 4293SOL     OW14775   2.332   6.086  12.898
 4293SOL    HW114776   2.379   6.145  12.838
 4293SOL    HW214777   2.263   6.140  12.936
 4294SOL     OW14778   4.648   8.543   5.220
 4294SOL    HW114779   4.742   8.542   5.202
 4294SOL    HW214780   4.635   8.470   5.281
 4295SOL     OW14781   6.424   8.982   6.822
 4295SOL    HW114782   6.449   8.947   6.736
 4295SOL    HW214783   6.332   9.005   6.812
 4296SOL     OW14784  10.011  14.139   7.188
 4296SOL    HW114785  10.058  14.217   7.217
 4296SOL    HW214786   9.920  14.155   7.212
 4297SOL     OW14787  12.463   1.015   5.149
 4297SOL    HW114788  12.381   1.028   5.102
 4297SOL    HW214789  12.517   1.089   5.124
 4298SOL     OW14790   8.124   8.127   2.775
 4298SOL    HW114791   8.151   8.081   2.854
 4298SOL    HW214792   8.168   8.212   2.779
 4299SOL     OW14793   3.247   4.796   2.602
 4299SOL    HW114794   3.233   4.857   2.674
 4299SOL    HW214795   3.322   4.832   2.554
 4300SOL     OW14796   6.637   9.786  14.627
 4300SOL    HW114797   6.620   9.836  14.707
 4300SOL    HW214798   6.556   9.737  14.612
 4301SOL     OW14799   3.644  11.204  10.517
 4301SOL    HW114800   3.646  11.133  10.581
 4301SOL    HW214801   3.572  11.182  10.459
 4302SOL     OW14802  13.465   9.866   2.458
 4302SOL    HW114803  13.484   9.836   2.547
 4302SOL    HW214804  13.538   9.832   2.406
 4303SOL     OW14805  13.737   9.321   4.874
 4303SOL    HW114806  13.765   9.266   4.801
 4303SOL    HW214807  13.771   9.277   4.952
 4304SOL     OW14808  11.268  14.202  11.143
 4304SOL    HW114809  11.356  14.175  11.168
 4304SOL    HW214810  11.281  14.260  11.068
 4305SOL     OW14811   2.423  10.540   3.558
 4305SOL    HW114812   2.465  10.456   3.580
 4305SOL    HW214813   2.496  10.600   3.544
 4306SOL     OW14814   3.405   3.846   1.007
 4306SOL    HW114815   3.414   3.780   0.938
 4306SOL    HW214816   3.481   3.832   1.063
 4307SOL     OW14817   7.405   5.297   7.145
 4307SOL    HW114818   7.338   5.297   7.213
 4307SOL    HW214819   7.453   5.216   7.158
 4308SOL     OW14820   4.674   5.842   0.848
 4308SOL    HW114821   4.725   5.761   0.852
 4308SOL    HW214822   4.593   5.817   0.804
 4309SOL     OW14823  12.773   1.073  11.562
 4309SOL    HW114824  12.682   1.102  11.563
 4309SOL    HW214825  12.823   1.152  11.540
 4310SOL     OW14826   0.462   8.911  10.139
 4310SOL    HW114827   0.547   8.876  10.164
 4310SOL    HW214828   0.471   9.006  10.153
 4311SOL     OW14829  13.544  13.010   5.073
 4311SOL    HW114830  13.450  13.028   5.081
 4311SOL    HW214831  13.585  13.062   5.142
 4312SOL     OW14832   7.963   2.017   9.940
 4312SOL    HW114833   7.980   2.032   9.847
 4312SOL    HW214834   7.887   1.958   9.942
 4313SOL     OW14835   5.973   1.066   6.884
 4313SOL    HW114836   6.026   1.104   6.815
 4313SOL    HW214837   5.894   1.034   6.840
 4314SOL     OW14838   5.467   0.895   1.044
 4314SOL    HW114839   5.530   0.838   1.088
 4314SOL    HW214840   5.499   0.984   1.060
 4315SOL     OW14841   6.520  10.339  13.341
 4315SOL    HW114842   6.573  10.287  13.281
 4315SOL    HW214843   6.463  10.275  13.384
 4316SOL     OW14844  13.030   9.967  10.984
 4316SOL    HW114845  13.049  10.008  11.068
 4316SOL    HW214846  12.997   9.880  11.006
 4317SOL     OW14847   0.374   6.524  13.593
 4317SOL    HW114848   0.444   6.546  13.654
 4317SOL    HW214849   0.349   6.608  13.554
 4318SOL     OW14850   9.178   8.176  11.423
 4318SOL    HW114851   9.184   8.093  11.376
 4318SOL    HW214852   9.101   8.167  11.478
 4319SOL     OW14853   6.019   7.177   8.051
 4319SOL    HW114854   6.050   7.127   7.976
 4319SOL    HW214855   5.952   7.236   8.014
 4320SOL     OW14856   4.913   5.316   9.614
 4320SOL    HW114857   4.940   5.280   9.698
 4320SOL    HW214858   4.864   5.246   9.572
 4321SOL     OW14859  10.732   2.521  12.985
 4321SOL    HW114860  10.688   2.466  13.050
 4321SOL    HW214861  10.662   2.575  12.948
 4322SOL     OW14862   8.773  12.406   3.449
 4322SOL    HW114863   8.800  12.459   3.524
 4322SOL    HW214864   8.685  12.376   3.471
 4323SOL     OW14865   7.396  13.962  10.152
 4323SOL    HW114866   7.341  13.904  10.099
 4323SOL    HW214867   7.334  14.003  10.214
 4324SOL     OW14868  11.129   3.124  11.591
 4324SOL    HW114869  11.051   3.176  11.610
 4324SOL    HW214870  11.202   3.175  11.625
 4325SOL     OW14871   1.956   0.356  11.407
 4325SOL    HW114872   1.996   0.442  11.419
 4325SOL    HW214873   1.879   0.373  11.352
 4326SOL     OW14874  10.204   2.167   1.765
 4326SOL    HW114875  10.181   2.228   1.835
 4326SOL    HW214876  10.202   2.080   1.807
 4327SOL     OW14877   2.152   7.403   5.323
 4327SOL    HW114878   2.126   7.489   5.291
 4327SOL    HW214879   2.146   7.410   5.419
 4328SOL     OW14880   5.928  11.617   9.135
 4328SOL    HW114881   5.949  11.703   9.172
 4328SOL    HW214882   6.012  11.572   9.129
 4329SOL     OW14883   9.016   0.471   8.226
 4329SOL    HW114884   9.108   0.446   8.214
 4329SOL    HW214885   8.992   0.434   8.311
 4330SOL     OW14886  12.592   7.327   9.940
 4330SOL    HW114887  12.563   7.244   9.902
 4330SOL    HW214888  12.514   7.382   9.940
 4331SOL     OW14889  10.759   0.704   4.988
 4331SOL    HW114890  10.781   0.797   4.988
 4331SOL    HW214891  10.744   0.683   4.896
 4332SOL     OW14892   0.762  12.972   0.496
 4332SOL    HW114893   0.825  13.007   0.559
 4332SOL    HW214894   0.758  12.878   0.516
 4333SOL     OW14895  10.699   3.891  12.261
 4333SOL    HW114896  10.791   3.874  12.281
 4333SOL    HW214897  10.685   3.982  12.287
 4334SOL     OW14898  14.244  12.951  12.277
 4334SOL    HW114899  14.173  12.939  12.340
 4334SOL    HW214900  14.203  12.943  12.191
 4335SOL     OW14901   5.791  13.093  13.738
 4335SOL    HW114902   5.705  13.083  13.696
 4335SOL    HW214903   5.854  13.088  13.666
 4336SOL     OW14904   9.696   3.989  11.928
 4336SOL    HW114905   9.760   3.932  11.886
 4336SOL    HW214906   9.665   4.046  11.858
 4337SOL     OW14907  10.176   2.778   1.796
 4337SOL    HW114908  10.133   2.699   1.764
 4337SOL    HW214909  10.244   2.796   1.731
 4338SOL     OW14910  12.458  12.532   8.072
 4338SOL    HW114911  12.437  12.601   8.134
 4338SOL    HW214912  12.398  12.461   8.095
 4339SOL     OW14913   6.790   9.761   2.638
 4339SOL    HW114914   6.702   9.788   2.613
 4339SOL    HW214915   6.815   9.821   2.708
 4340SOL     OW14916  14.868   5.581   9.152
 4340SOL    HW114917  14.838   5.651   9.094
 4340SOL    HW214918   0.084   5.604   9.173
 4341SOL     OW14919  14.140  10.366   6.034
 4341SOL    HW114920  14.227  10.385   5.997
 4341SOL    HW214921  14.080  10.416   5.980
 4342SOL     OW14922  14.494   7.231   1.674
 4342SOL    HW114923  14.421   7.189   1.629
 4342SOL    HW214924  14.546   7.270   1.604
 4343SOL     OW14925   5.382   1.672  12.816
 4343SOL    HW114926   5.428   1.747  12.779
 4343SOL    HW214927   5.349   1.703  12.900
 4344SOL     OW14928  13.786   1.993  12.451
 4344SOL    HW114929  13.726   1.945  12.393
 4344SOL    HW214930  13.739   2.074  12.472
 4345SOL     OW14931  10.082   5.172   6.567
 4345SOL    HW114932  10.026   5.189   6.491
 4345SOL    HW214933  10.163   5.221   6.549
 4346SOL     OW14934   6.687   1.088  12.050
 4346SOL    HW114935   6.781   1.097  12.031
 4346SOL    HW214936   6.652   1.176  12.039
 4347SOL     OW14937   2.127  12.998   4.376
 4347SOL    HW114938   2.054  12.945   4.408
 4347SOL    HW214939   2.180  13.014   4.454
 4348SOL     OW14940  10.967  10.000   4.858
 4348SOL    HW114941  11.018  10.059   4.913
 4348SOL    HW214942  11.029   9.971   4.790
 4349SOL     OW14943   9.749  13.390  14.386
 4349SOL    HW114944   9.726  13.440  14.308
 4349SOL    HW214945   9.772  13.457  14.451
 4350SOL     OW14946   8.463  10.511  13.029
 4350SOL    HW114947   8.411  10.556  12.962
 4350SOL    HW214948   8.536  10.571  13.047
 4351SOL     OW14949   8.385   3.832  12.075
 4351SOL    HW114950   8.453   3.831  12.143
 4351SOL    HW214951   8.414   3.768  12.010
 4352SOL     OW14952   1.204   2.290   1.505
 4352SOL    HW114953   1.174   2.253   1.587
 4352SOL    HW214954   1.195   2.385   1.517
 4353SOL     OW14955   0.224   7.944   3.905
 4353SOL    HW114956   0.251   8.036   3.905
 4353SOL    HW214957   0.299   7.897   3.867
 4354SOL     OW14958  11.812  14.815   6.611
 4354SOL    HW114959  11.874   0.001   6.571
 4354SOL    HW214960  11.727  14.840   6.573
 4355SOL     OW14961   9.737  12.220   1.429
 4355SOL    HW114962   9.752  12.180   1.515
 4355SOL    HW214963   9.810  12.190   1.375
 4356SOL     OW14964  14.434   2.822  11.241
 4356SOL    HW114965  14.465   2.878  11.312
 4356SOL    HW214966  14.511   2.811  11.185
 4357SOL     OW14967  10.463   4.857   3.279
 4357SOL    HW114968  10.548   4.816   3.297
 4357SOL    HW214969  10.483   4.950   3.273
 4358SOL     OW14970  13.921  10.214  11.615
 4358SOL    HW114971  13.881  10.300  11.630
 4358SOL    HW214972  13.859  10.152  11.654
 4359SOL     OW14973   1.616  11.324   9.835
 4359SOL    HW114974   1.669  11.268   9.892
 4359SOL    HW214975   1.544  11.352   9.892
 4360SOL     OW14976   5.523   5.264   6.601
 4360SOL    HW114977   5.574   5.223   6.671
 4360SOL    HW214978   5.433   5.264   6.635
 4361SOL     OW14979   2.652  10.816   5.784
 4361SOL    HW114980   2.726  10.826   5.845
 4361SOL    HW214981   2.576  10.809   5.841
 4362SOL     OW14982   6.174  12.539  10.539
 4362SOL    HW114983   6.127  12.486  10.605
 4362SOL    HW214984   6.235  12.592  10.590
 4363SOL     OW14985   4.106   4.435   5.295
 4363SOL    HW114986   4.200   4.436   5.313
 4363SOL    HW214987   4.070   4.500   5.356
 4364SOL     OW14988   6.786  12.954   4.055
 4364SOL    HW114989   6.862  12.899   4.037
 4364SOL    HW214990   6.783  13.017   3.983
 4365SOL     OW14991  14.686   0.225  14.472
 4365SOL    HW114992  14.718   0.297  14.527
 4365SOL    HW214993  14.621   0.181  14.526
 4366SOL     OW14994  11.720   7.819   8.418
 4366SOL    HW114995  11.736   7.791   8.328
 4366SOL    HW214996  11.659   7.753   8.453
 4367SOL     OW14997   0.654   8.724  13.564
 4367SOL    HW114998   0.711   8.694  13.635
 4367SOL    HW214999   0.710   8.721  13.486
 4368SOL     OW15000  10.496  10.841  11.715
 4368SOL    HW115001  10.548  10.896  11.774
 4368SOL    HW215002  10.458  10.901  11.652
 4369SOL     OW15003   2.557  13.005   9.023
 4369SOL    HW115004   2.566  13.052   9.106
 4369SOL    HW215005   2.643  13.011   8.982
 4370SOL     OW15006   1.917   8.398  13.761
 4370SOL    HW115007   2.011   8.418  13.765
 4370SOL    HW215008   1.904   8.330  13.827
 4371SOL     OW15009   2.965  13.027  13.567
 4371SOL    HW115010   3.008  13.079  13.635
 4371SOL    HW215011   3.030  13.019  13.498
 4372SOL     OW15012   3.983   8.604   8.582
 4372SOL    HW115013   3.994   8.604   8.677
 4372SOL    HW215014   4.065   8.570   8.547
 4373SOL     OW15015   7.119  14.781  11.882
 4373SOL    HW115016   7.079  14.867  11.870
 4373SOL    HW215017   7.101  14.759  11.973
 4374SOL     OW15018  13.110   6.478  14.652
 4374SOL    HW115019  13.170   6.425  14.600
 4374SOL    HW215020  13.112   6.439  14.739
 4375SOL     OW15021   6.287  10.827   3.509
 4375SOL    HW115022   6.254  10.867   3.429
 4375SOL    HW215023   6.311  10.738   3.483
 4376SOL     OW15024   9.794   3.808  14.103
 4376SOL    HW115025   9.808   3.832  14.011
 4376SOL    HW215026   9.727   3.740  14.100
 4377SOL     OW15027   6.789   8.577   8.293
 4377SOL    HW115028   6.815   8.485   8.294
 4377SOL    HW215029   6.787   8.600   8.200
 4378SOL     OW15030   9.117  14.348  13.899
 4378SOL    HW115031   9.065  14.287  13.951
 4378SOL    HW215032   9.154  14.409  13.963
 4379SOL     OW15033   0.474  12.699   0.321
 4379SOL    HW115034   0.484  12.792   0.302
 4379SOL    HW215035   0.393  12.674   0.277
 4380SOL     OW15036   9.663   3.597   5.522
 4380SOL    HW115037   9.581   3.646   5.510
 4380SOL    HW215038   9.646   3.512   5.483
 4381SOL     OW15039   1.041   6.895   8.777
 4381SOL    HW115040   0.967   6.834   8.779
 4381SOL    HW215041   1.058   6.916   8.868
 4382SOL     OW15042  14.214   8.659  12.955
 4382SOL    HW115043  14.306   8.655  12.978
 4382SOL    HW215044  14.188   8.749  12.977
 4383SOL     OW15045   0.991   4.766   7.792
 4383SOL    HW115046   0.947   4.774   7.876
 4383SOL    HW215047   1.034   4.851   7.780
 4384SOL     OW15048   9.251   9.657   5.489
 4384SOL    HW115049   9.204   9.624   5.413
 4384SOL    HW215050   9.186   9.657   5.559
 4385SOL     OW15051   3.935   6.043  10.299
 4385SOL    HW115052   3.857   6.099  10.301
 4385SOL    HW215053   3.926   5.992  10.219
 4386SOL     OW15054   0.431   0.904   6.254
 4386SOL    HW115055   0.387   0.830   6.211
 4386SOL    HW215056   0.460   0.869   6.338
 4387SOL     OW15057   5.265   9.078   0.646
 4387SOL    HW115058   5.264   9.135   0.570
 4387SOL    HW215059   5.333   9.114   0.703
 4388SOL     OW15060   6.281   6.674   3.138
 4388SOL    HW115061   6.262   6.626   3.218
 4388SOL    HW215062   6.344   6.620   3.092
 4389SOL     OW15063  11.760   8.473   5.268
 4389SOL    HW115064  11.799   8.460   5.355
 4389SOL    HW215065  11.688   8.534   5.283
 4390SOL     OW15066  10.835   0.097   4.131
 4390SOL    HW115067  10.765   0.094   4.196
 4390SOL    HW215068  10.884   0.016   4.145
 4391SOL     OW15069  14.636  12.515   4.425
 4391SOL    HW115070  14.703  12.582   4.440
 4391SOL    HW215071  14.597  12.540   4.341
 4392SOL     OW15072   6.019   3.101   7.602
 4392SOL    HW115073   6.044   3.017   7.640
 4392SOL    HW215074   6.100   3.152   7.601
 4393SOL     OW15075   3.762  14.418  10.446
 4393SOL    HW115076   3.699  14.361  10.401
 4393SOL    HW215077   3.812  14.358  10.502
 4394SOL     OW15078   0.064   4.097   1.453
 4394SOL    HW115079  14.852   4.078   1.490
 4394SOL    HW215080   0.078   4.190   1.473
 4395SOL     OW15081   3.263  10.762   0.566
 4395SOL    HW115082   3.324  10.836   0.562
 4395SOL    HW215083   3.260  10.739   0.659
 4396SOL     OW15084   7.967   4.008   6.000
 4396SOL    HW115085   8.057   3.983   6.019
 4396SOL    HW215086   7.949   4.080   6.060
 4397SOL     OW15087   1.022  10.256   9.641
 4397SOL    HW115088   1.092  10.321   9.647
 4397SOL    HW215089   1.008  10.244   9.547
 4398SOL     OW15090   7.500   6.771   9.235
 4398SOL    HW115091   7.505   6.716   9.313
 4398SOL    HW215092   7.590   6.794   9.215
 4399SOL     OW15093  14.523   3.235   1.135
 4399SOL    HW115094  14.494   3.176   1.066
 4399SOL    HW215095  14.529   3.179   1.213
 4400SOL     OW15096  12.139   3.065  10.581
 4400SOL    HW115097  12.117   2.972  10.574
 4400SOL    HW215098  12.189   3.084  10.502
 4401SOL     OW15099   7.209   2.142  14.192
 4401SOL    HW115100   7.129   2.094  14.170
 4401SOL    HW215101   7.185   2.234  14.181
 4402SOL     OW15102   2.077  13.054  12.593
 4402SOL    HW115103   2.010  13.083  12.654
 4402SOL    HW215104   2.111  12.973  12.630
 4403SOL     OW15105   5.135  12.199   6.836
 4403SOL    HW115106   5.203  12.131   6.834
 4403SOL    HW215107   5.126  12.220   6.929
 4404SOL     OW15108   1.974   8.662  14.475
 4404SOL    HW115109   1.984   8.723  14.403
 4404SOL    HW215110   2.035   8.694  14.542
 4405SOL     OW15111   2.154   7.459   9.843
 4405SOL    HW115112   2.072   7.418   9.869
 4405SOL    HW215113   2.173   7.423   9.756
 4406SOL     OW15114  14.754   7.961  14.118
 4406SOL    HW115115  14.821   7.961  14.187
 4406SOL    HW215116  14.775   8.037  14.064
 4407SOL     OW15117   3.206  13.684   3.015
 4407SOL    HW115118   3.244  13.717   3.097
 4407SOL    HW215119   3.217  13.756   2.953
 4408SOL     OW15120  10.523  11.243   0.129
 4408SOL    HW115121  10.557  11.286   0.207
 4408SOL    HW215122  10.478  11.165   0.163
 4409SOL     OW15123  14.266  14.590   9.766
 4409SOL    HW115124  14.343  14.535   9.753
 4409SOL    HW215125  14.212  14.542   9.829
 4410SOL     OW15126  11.835   3.752  11.901
 4410SOL    HW115127  11.908   3.691  11.910
 4410SOL    HW215128  11.859   3.827  11.955
 4411SOL     OW15129   2.735   7.918   1.730
 4411SOL    HW115130   2.829   7.917   1.748
 4411SOL    HW215131   2.725   7.981   1.658
 4412SOL     OW15132   6.186  14.284  14.373
 4412SOL    HW115133   6.227  14.337  14.441
 4412SOL    HW215134   6.096  14.272  14.404
 4413SOL     OW15135   9.272  10.609   3.633
 4413SOL    HW115136   9.179  10.585   3.627
 4413SOL    HW215137   9.290  10.609   3.727
 4414SOL     OW15138   3.471   5.019  12.786
 4414SOL    HW115139   3.448   4.949  12.847
 4414SOL    HW215140   3.433   5.098  12.825
 4415SOL     OW15141  10.082   6.213   6.023
 4415SOL    HW115142  10.013   6.148   6.007
 4415SOL    HW215143  10.042   6.274   6.085
 4416SOL     OW15144   0.184   3.816  13.854
 4416SOL    HW115145   0.277   3.833  13.869
 4416SOL    HW215146   0.144   3.903  13.853
 4417SOL     OW15147  10.600   7.953  14.206
 4417SOL    HW115148  10.577   7.993  14.122
 4417SOL    HW215149  10.549   8.003  14.271
 4418SOL     OW15150  12.894  12.104   2.386
 4418SOL    HW115151  12.832  12.125   2.316
 4418SOL    HW215152  12.839  12.084   2.462
 4419SOL     OW15153  10.358  11.765   0.375
 4419SOL    HW115154  10.369  11.741   0.283
 4419SOL    HW215155  10.432  11.724   0.420
 4420SOL     OW15156   0.421   1.799   5.467
 4420SOL    HW115157   0.407   1.887   5.431
 4420SOL    HW215158   0.440   1.813   5.559
 4421SOL     OW15159  10.561   4.746   7.643
 4421SOL    HW115160  10.621   4.821   7.642
 4421SOL    HW215161  10.599   4.684   7.582
 4422SOL     OW15162   1.886   9.598   7.114
 4422SOL    HW115163   1.806   9.560   7.077
 4422SOL    HW215164   1.907   9.541   7.188
 4423SOL     OW15165   9.045  12.898   6.198
 4423SOL    HW115166   9.121  12.896   6.139
 4423SOL    HW215167   9.047  12.985   6.237
 4424SOL     OW15168   1.744   7.660   2.378
 4424SOL    HW115169   1.702   7.603   2.313
 4424SOL    HW215170   1.817   7.699   2.330
 4425SOL     OW15171  12.791  14.465  10.875
 4425SOL    HW115172  12.886  14.460  10.870
 4425SOL    HW215173  12.763  14.484  10.785
 4426SOL     OW15174   9.560   9.409   9.262
 4426SOL    HW115175   9.602   9.423   9.177
 4426SOL    HW215176   9.483   9.465   9.260
 4427SOL     OW15177  12.290  14.774   0.737
 4427SOL    HW115178  12.271  14.711   0.667
 4427SOL    HW215179  12.378  14.807   0.716
 4428SOL     OW15180   9.286   4.704  11.176
 4428SOL    HW115181   9.245   4.669  11.097
 4428SOL    HW215182   9.244   4.789  11.189
 4429SOL     OW15183  10.733   2.467   6.234
 4429SOL    HW115184  10.714   2.545   6.286
 4429SOL    HW215185  10.755   2.400   6.299
 4430SOL     OW15186   4.079  11.633  13.374
 4430SOL    HW115187   4.093  11.575  13.299
 4430SOL    HW215188   4.096  11.578  13.450
 4431SOL     OW15189   7.710  13.232  11.218
 4431SOL    HW115190   7.674  13.143  11.223
 4431SOL    HW215191   7.681  13.274  11.299
 4432SOL     OW15192   7.668   7.628   9.681
 4432SOL    HW115193   7.595   7.680   9.648
 4432SOL    HW215194   7.746   7.675   9.653
 4433SOL     OW15195   4.268   8.396   6.764
 4433SOL    HW115196   4.285   8.490   6.758
 4433SOL    HW215197   4.188   8.383   6.712
 4434SOL     OW15198   3.841   5.163   5.155
 4434SOL    HW115199   3.865   5.089   5.210
 4434SOL    HW215200   3.910   5.228   5.170
 4435SOL     OW15201  11.872   6.246   0.673
 4435SOL    HW115202  11.950   6.203   0.637
 4435SOL    HW215203  11.800   6.186   0.653
 4436SOL     OW15204   5.973   3.199   6.327
 4436SOL    HW115205   5.919   3.225   6.403
 4436SOL    HW215206   6.032   3.273   6.314
 4437SOL     OW15207   1.784  12.429  13.390
 4437SOL    HW115208   1.775  12.425  13.486
 4437SOL    HW215209   1.867  12.385  13.373
 4438SOL     OW15210   0.430   1.356   1.654
 4438SOL    HW115211   0.386   1.440   1.649
 4438SOL    HW215212   0.392   1.313   1.731
 4439SOL     OW15213   8.796   4.849  13.931
 4439SOL    HW115214   8.823   4.760  13.954
 4439SOL    HW215215   8.799   4.852  13.836
 4440SOL     OW15216  14.503   9.755  13.679
 4440SOL    HW115217  14.460   9.837  13.657
 4440SOL    HW215218  14.433   9.699  13.713
 4441SOL     OW15219   2.196   4.288  13.046
 4441SOL    HW115220   2.101   4.275  13.039
 4441SOL    HW215221   2.205   4.380  13.074
 4442SOL     OW15222   0.472   1.588   6.570
 4442SOL    HW115223   0.540   1.637   6.617
 4442SOL    HW215224   0.463   1.634   6.486
 4443SOL     OW15225   6.046   4.960  13.100
 4443SOL    HW115226   6.041   4.908  13.180
 4443SOL    HW215227   6.089   5.041  13.127
 4444SOL     OW15228   9.608   9.967  14.698
 4444SOL    HW115229   9.574   9.941  14.783
 4444SOL    HW215230   9.685   9.913  14.685
 4445SOL     OW15231   9.856  13.241   3.227
 4445SOL    HW115232   9.838  13.335   3.234
 4445SOL    HW215233   9.897  13.219   3.311
 4446SOL     OW15234   0.728   4.226   7.384
 4446SOL    HW115235   0.695   4.136   7.391
 4446SOL    HW215236   0.773   4.241   7.467
 4447SOL     OW15237   4.199   7.973  10.886
 4447SOL    HW115238   4.258   8.045  10.909
 4447SOL    HW215239   4.194   7.974  10.791
 4448SOL     OW15240   6.143   5.452  10.248
 4448SOL    HW115241   6.204   5.460  10.175
 4448SOL    HW215242   6.158   5.531  10.300
 4449SOL     OW15243   9.137  10.575  12.446
 4449SOL    HW115244   9.077  10.501  12.457
 4449SOL    HW215245   9.216  10.537  12.407
 4450SOL     OW15246  11.256   7.147   2.615
 4450SOL    HW115247  11.268   7.145   2.520
 4450SOL    HW215248  11.284   7.235   2.641
 4451SOL     OW15249   7.412  12.220   9.077
 4451SOL    HW115250   7.400  12.196   8.986
 4451SOL    HW215251   7.448  12.308   9.075
 4452SOL     OW15252   9.831   8.532  14.373
 4452SOL    HW115253   9.909   8.573  14.412
 4452SOL    HW215254   9.813   8.585  14.295
 4453SOL     OW15255  14.069  11.527   8.792
 4453SOL    HW115256  14.165  11.526   8.788
 4453SOL    HW215257  14.040  11.515   8.702
 4454SOL     OW15258   9.738  14.639  10.481
 4454SOL    HW115259   9.715  14.721  10.525
 4454SOL    HW215260   9.678  14.634  10.407
 4455SOL     OW15261  14.399   6.819  10.469
 4455SOL    HW115262  14.358   6.748  10.419
 4455SOL    HW215263  14.334   6.890  10.467
 4456SOL     OW15264   9.516   2.477   0.021
 4456SOL    HW115265   9.528   2.382   0.021
 4456SOL    HW215266   9.462   2.493   0.098
 4457SOL     OW15267   6.140   7.172  11.477
 4457SOL    HW115268   6.101   7.232  11.541
 4457SOL    HW215269   6.157   7.092  11.527
 4458SOL     OW15270   3.909  12.709  10.056
 4458SOL    HW115271   3.929  12.623  10.020
 4458SOL    HW215272   3.942  12.771   9.991
 4459SOL     OW15273   5.382  12.039   2.267
 4459SOL    HW115274   5.439  11.976   2.313
 4459SOL    HW215275   5.351  12.097   2.337
 4460SOL     OW15276  14.618   3.675   9.009
 4460SOL    HW115277  14.712   3.679   9.023
 4460SOL    HW215278  14.584   3.633   9.088
 4461SOL     OW15279   4.267   3.901  10.307
 4461SOL    HW115280   4.260   3.895  10.211
 4461SOL    HW215281   4.210   3.974  10.330
 4462SOL     OW15282  10.592   9.906   7.712
 4462SOL    HW115283  10.614   9.884   7.802
 4462SOL    HW215284  10.669   9.952   7.679
 4463SOL     OW15285   1.507  11.412  11.978
 4463SOL    HW115286   1.487  11.501  12.009
 4463SOL    HW215287   1.601  11.403  11.991
 4464SOL     OW15288  13.630   2.930   0.317
 4464SOL    HW115289  13.720   2.923   0.285
 4464SOL    HW215290  13.599   2.839   0.322
 4465SOL     OW15291   5.108   9.371   9.127
 4465SOL    HW115292   5.170   9.395   9.057
 4465SOL    HW215293   5.023   9.401   9.095
 4466SOL     OW15294   2.466   3.643  12.462
 4466SOL    HW115295   2.518   3.593  12.525
 4466SOL    HW215296   2.509   3.729  12.458
 4467SOL     OW15297  10.047  13.998   4.473
 4467SOL    HW115298  10.119  13.941   4.448
 4467SOL    HW215299   9.968  13.951   4.445
 4468SOL     OW15300  13.101   3.074   3.001
 4468SOL    HW115301  13.040   3.057   2.929
 4468SOL    HW215302  13.148   2.991   3.012
 4469SOL     OW15303   1.452   8.784  10.168
 4469SOL    HW115304   1.449   8.834  10.087
 4469SOL    HW215305   1.539   8.742  10.167
 4470SOL     OW15306   6.182   5.991   2.301
 4470SOL    HW115307   6.167   5.984   2.207
 4470SOL    HW215308   6.192   6.085   2.317
 4471SOL     OW15309  14.235   9.679  13.829
 4471SOL    HW115310  14.218   9.739  13.756
 4471SOL    HW215311  14.177   9.605  13.814
 4472SOL     OW15312   4.842   7.995   5.704
 4472SOL    HW115313   4.924   8.043   5.707
 4472SOL    HW215314   4.775   8.059   5.728
 4473SOL     OW15315  13.354   9.347  13.380
 4473SOL    HW115316  13.299   9.313  13.451
 4473SOL    HW215317  13.296   9.405  13.330
 4474SOL     OW15318   3.487   0.986   3.005
 4474SOL    HW115319   3.440   1.069   3.015
 4474SOL    HW215320   3.568   0.998   3.055
 4475SOL     OW15321   1.599  11.940  13.345
 4475SOL    HW115322   1.586  11.846  13.359
 4475SOL    HW215323   1.609  11.976  13.433
 4476SOL     OW15324   4.324  12.857  12.817
 4476SOL    HW115325   4.324  12.769  12.853
 4476SOL    HW215326   4.329  12.915  12.893
 4477SOL     OW15327   8.086  14.380  14.434
 4477SOL    HW115328   8.062  14.437  14.507
 4477SOL    HW215329   8.181  14.374  14.438
 4478SOL     OW15330  13.810   6.957   4.109
 4478SOL    HW115331  13.874   6.921   4.048
 4478SOL    HW215332  13.862   6.982   4.186
 4479SOL     OW15333   8.186  10.287   2.884
 4479SOL    HW115334   8.160  10.351   2.949
 4479SOL    HW215335   8.153  10.322   2.801
 4480SOL     OW15336  10.622   7.511  12.614
 4480SOL    HW115337  10.635   7.470  12.700
 4480SOL    HW215338  10.544   7.469  12.579
 4481SOL     OW15339   2.411   9.039   8.493
 4481SOL    HW115340   2.320   9.034   8.465
 4481SOL    HW215341   2.433   9.132   8.488
 4482SOL     OW15342   7.310  10.102  11.602
 4482SOL    HW115343   7.237  10.078  11.545
 4482SOL    HW215344   7.385  10.054  11.567
 4483SOL     OW15345   3.379   6.027   5.690
 4483SOL    HW115346   3.294   5.985   5.697
 4483SOL    HW215347   3.435   5.979   5.752
 4484SOL     OW15348  14.682  13.764   0.391
 4484SOL    HW115349  14.650  13.775   0.301
 4484SOL    HW215350  14.677  13.670   0.407
 4485SOL     OW15351  11.951   3.803   7.936
 4485SOL    HW115352  11.929   3.781   8.027
 4485SOL    HW215353  11.954   3.899   7.935
 4486SOL     OW15354   7.804  10.872   2.948
 4486SOL    HW115355   7.778  10.792   2.992
 4486SOL    HW215356   7.771  10.942   3.004
 4487SOL     OW15357  10.765  13.099   4.056
 4487SOL    HW115358  10.807  13.033   4.112
 4487SOL    HW215359  10.813  13.094   3.973
 4488SOL     OW15360   2.335   6.569   3.745
 4488SOL    HW115361   2.312   6.659   3.722
 4488SOL    HW215362   2.357   6.528   3.661
 4489SOL     OW15363   1.690  11.506   8.417
 4489SOL    HW115364   1.680  11.441   8.348
 4489SOL    HW215365   1.766  11.476   8.467
 4490SOL     OW15366   6.112   0.883   3.452
 4490SOL    HW115367   6.150   0.929   3.526
 4490SOL    HW215368   6.164   0.911   3.376
 4491SOL     OW15369  12.478   0.092   6.641
 4491SOL    HW115370  12.455   0.184   6.628
 4491SOL    HW215371  12.416   0.061   6.707
 4492SOL     OW15372   2.116   9.872  11.348
 4492SOL    HW115373   2.078   9.801  11.399
 4492SOL    HW215374   2.047   9.938  11.343
 4493SOL     OW15375  13.062  13.024   6.518
 4493SOL    HW115376  13.081  13.029   6.612
 4493SOL    HW215377  13.054  13.116   6.491
 4494SOL     OW15378   7.262  12.726  13.287
 4494SOL    HW115379   7.186  12.705  13.341
 4494SOL    HW215380   7.257  12.820  13.274
 4495SOL     OW15381  14.562   7.920   9.820
 4495SOL    HW115382  14.568   7.959   9.907
 4495SOL    HW215383  14.494   7.971   9.776
 4496SOL     OW15384  14.576   9.570   6.695
 4496SOL    HW115385  14.604   9.642   6.638
 4496SOL    HW215386  14.593   9.601   6.783
 4497SOL     OW15387  14.732  12.310   9.526
 4497SOL    HW115388  14.651  12.321   9.475
 4497SOL    HW215389  14.703  12.268   9.607
 4498SOL     OW15390   5.680   8.360   7.643
 4498SOL    HW115391   5.744   8.429   7.657
 4498SOL    HW215392   5.676   8.350   7.548
 4499SOL     OW15393  13.246   3.067  11.683
 4499SOL    HW115394  13.303   3.136  11.716
 4499SOL    HW215395  13.158   3.091  11.713
 4500SOL     OW15396  11.969   4.835   2.942
 4500SOL    HW115397  11.941   4.852   2.852
 4500SOL    HW215398  12.062   4.812   2.933
 4501SOL     OW15399  10.051  13.296   9.334
 4501SOL    HW115400   9.982  13.231   9.345
 4501SOL    HW215401  10.079  13.316   9.423
 4502SOL     OW15402   2.836   9.691  13.139
 4502SOL    HW115403   2.791   9.757  13.192
 4502SOL    HW215404   2.891   9.741  13.079
 4503SOL     OW15405   5.925   8.021   3.089
 4503SOL    HW115406   5.854   7.998   3.028
 4503SOL    HW215407   5.894   8.100   3.132
 4504SOL     OW15408   0.814   2.830  14.367
 4504SOL    HW115409   0.772   2.842  14.452
 4504SOL    HW215410   0.747   2.855  14.303
 4505SOL     OW15411  13.143   4.861   6.932
 4505SOL    HW115412  13.216   4.873   6.871
 4505SOL    HW215413  13.067   4.846   6.875
 4506SOL     OW15414   4.664  13.521   1.008
 4506SOL    HW115415   4.685  13.561   1.092
 4506SOL    HW215416   4.635  13.594   0.953
 4507SOL     OW15417  12.572   3.878   4.268
 4507SOL    HW115418  12.537   3.790   4.256
 4507SOL    HW215419  12.650   3.866   4.323
 4508SOL     OW15420   7.561   6.811  10.370
 4508SOL    HW115421   7.632   6.752  10.344
 4508SOL    HW215422   7.597   6.860  10.444
 4509SOL     OW15423   3.493   7.087   3.184
 4509SOL    HW115424   3.399   7.080   3.200
 4509SOL    HW215425   3.516   7.008   3.135
 4510SOL     OW15426   8.856  12.126   1.117
 4510SOL    HW115427   8.788  12.059   1.108
 4510SOL    HW215428   8.938  12.077   1.121
 4511SOL     OW15429   6.658  11.763   8.964
 4511SOL    HW115430   6.740  11.724   8.933
 4511SOL    HW215431   6.590  11.704   8.932
 4512SOL     OW15432   2.542   6.645   2.123
 4512SOL    HW115433   2.547   6.564   2.072
 4512SOL    HW215434   2.627   6.687   2.112
 4513SOL     OW15435   1.375  10.126  12.786
 4513SOL    HW115436   1.366  10.077  12.868
 4513SOL    HW215437   1.469  10.131  12.770
 4514SOL     OW15438   5.212   6.357   4.013
 4514SOL    HW115439   5.133   6.386   3.967
 4514SOL    HW215440   5.207   6.261   4.011
 4515SOL     OW15441   8.410   2.393  14.367
 4515SOL    HW115442   8.397   2.321  14.429
 4515SOL    HW215443   8.384   2.357  14.282
 4516SOL     OW15444  10.326  10.543   2.095
 4516SOL    HW115445  10.238  10.568   2.122
 4516SOL    HW215446  10.379  10.553   2.175
 4517SOL     OW15447   6.786   1.926   9.557
 4517SOL    HW115448   6.797   1.991   9.626
 4517SOL    HW215449   6.732   1.971   9.491
 4518SOL     OW15450   2.530  12.369   3.346
 4518SOL    HW115451   2.557  12.342   3.434
 4518SOL    HW215452   2.437  12.388   3.354
 4519SOL     OW15453   5.280  11.223   3.949
 4519SOL    HW115454   5.286  11.313   3.917
 4519SOL    HW215455   5.369  11.202   3.976
 4520SOL     OW15456   3.728   3.418   2.821
 4520SOL    HW115457   3.780   3.472   2.880
 4520SOL    HW215458   3.704   3.478   2.750
 4521SOL     OW15459   4.389   3.060   2.098
 4521SOL    HW115460   4.350   3.141   2.129
 4521SOL    HW215461   4.347   3.044   2.014
 4522SOL     OW15462  13.911  14.361   6.002
 4522SOL    HW115463  13.819  14.385   6.000
 4522SOL    HW215464  13.938  14.359   5.910
 4523SOL     OW15465   7.190   9.753  11.953
 4523SOL    HW115466   7.195   9.664  11.920
 4523SOL    HW215467   7.111   9.789  11.912
 4524SOL     OW15468   5.293  14.792  10.403
 4524SOL    HW115469   5.233  14.798  10.329
 4524SOL    HW215470   5.355  14.723  10.379
 4525SOL     OW15471   5.684  13.605   8.420
 4525SOL    HW115472   5.615  13.671   8.425
 4525SOL    HW215473   5.764  13.656   8.408
 4526SOL     OW15474   7.126   8.461  13.129
 4526SOL    HW115475   7.071   8.457  13.207
 4526SOL    HW215476   7.066   8.487  13.059
 4527SOL     OW15477   5.321   9.430   0.301
 4527SOL    HW115478   5.409   9.445   0.266
 4527SOL    HW215479   5.263   9.444   0.226
 4528SOL     OW15480   6.961  13.947   8.844
 4528SOL    HW115481   6.898  14.011   8.810
 4528SOL    HW215482   6.981  13.890   8.770
 4529SOL     OW15483   4.951  12.362  10.311
 4529SOL    HW115484   4.927  12.447  10.347
 4529SOL    HW215485   4.877  12.305  10.333
 4530SOL     OW15486  14.580   2.679  10.511
 4530SOL    HW115487  14.543   2.664  10.424
 4530SOL    HW215488  14.533   2.755  10.544
 4531SOL     OW15489   9.550   3.812   5.783
 4531SOL    HW115490   9.496   3.738   5.811
 4531SOL    HW215491   9.512   3.838   5.699
 4532SOL     OW15492   5.305  13.850   2.696
 4532SOL    HW115493   5.307  13.825   2.788
 4532SOL    HW215494   5.220  13.819   2.664
 4533SOL     OW15495   8.621  10.416   6.447
 4533SOL    HW115496   8.698  10.448   6.402
 4533SOL    HW215497   8.626  10.455   6.534
 4534SOL     OW15498   6.508  12.744   8.492
 4534SOL    HW115499   6.592  12.787   8.473
 4534SOL    HW215500   6.518  12.711   8.581
 4535SOL     OW15501   7.571   1.493   9.660
 4535SOL    HW115502   7.636   1.466   9.595
 4535SOL    HW215503   7.539   1.578   9.627
 4536SOL     OW15504  13.622   7.145   8.468
 4536SOL    HW115505  13.710   7.178   8.486
 4536SOL    HW215506  13.602   7.175   8.379
 4537SOL     OW15507  11.888   1.706  10.010
 4537SOL    HW115508  11.819   1.773  10.009
 4537SOL    HW215509  11.885   1.668   9.922
 4538SOL     OW15510   6.413   6.671   0.580
 4538SOL    HW115511   6.500   6.659   0.618
 4538SOL    HW215512   6.392   6.763   0.595
 4539SOL     OW15513   0.211   9.651   5.168
 4539SOL    HW115514   0.246   9.646   5.079
 4539SOL    HW215515   0.283   9.621   5.223
 4540SOL     OW15516   6.866  13.233   1.199
 4540SOL    HW115517   6.883  13.148   1.238
 4540SOL    HW215518   6.944  13.251   1.146
 4541SOL     OW15519  10.711  10.388  11.945
 4541SOL    HW115520  10.663  10.460  11.903
 4541SOL    HW215521  10.798  10.424  11.963
 4542SOL     OW15522  13.177   1.643   2.841
 4542SOL    HW115523  13.195   1.672   2.752
 4542SOL    HW215524  13.172   1.548   2.835
 4543SOL     OW15525   3.191  11.672  14.852
 4543SOL    HW115526   3.246  11.657   0.054
 4543SOL    HW215527   3.232  11.746  14.808
 4544SOL     OW15528  12.028  10.919   5.349
 4544SOL    HW115529  12.002  10.997   5.300
 4544SOL    HW215530  11.946  10.885   5.385
 4545SOL     OW15531   3.059   1.765   3.661
 4545SOL    HW115532   3.055   1.815   3.743
 4545SOL    HW215533   2.970   1.768   3.626
 4546SOL     OW15534   4.795   6.405   4.554
 4546SOL    HW115535   4.866   6.465   4.579
 4546SOL    HW215536   4.763   6.441   4.471
 4547SOL     OW15537  10.885   4.635  10.495
 4547SOL    HW115538  10.834   4.574  10.441
 4547SOL    HW215539  10.973   4.633  10.457
 4548SOL     OW15540  13.300   4.200   7.711
 4548SOL    HW115541  13.371   4.135   7.712
 4548SOL    HW215542  13.274   4.208   7.803
 4549SOL     OW15543  13.785   7.964   2.715
 4549SOL    HW115544  13.742   8.047   2.733
 4549SOL    HW215545  13.792   7.961   2.619
 4550SOL     OW15546  10.039   4.277   7.001
 4550SOL    HW115547  10.016   4.325   7.081
 4550SOL    HW215548   9.961   4.285   6.946
 4551SOL     OW15549   1.610   4.316  10.676
 4551SOL    HW115550   1.668   4.308  10.600
 4551SOL    HW215551   1.663   4.285  10.750
 4552SOL     OW15552  14.222  11.696   6.064
 4552SOL    HW115553  14.199  11.778   6.108
 4552SOL    HW215554  14.310  11.676   6.096
 4553SOL     OW15555   2.504   3.050  10.212
 4553SOL    HW115556   2.467   3.124  10.163
 4553SOL    HW215557   2.497   2.976  10.151
 4554SOL     OW15558   7.965   7.813   3.579
 4554SOL    HW115559   7.876   7.791   3.553
 4554SOL    HW215560   7.962   7.819   3.674
 4555SOL     OW15561   7.064  12.512   8.817
 4555SOL    HW115562   7.063  12.434   8.872
 4555SOL    HW215563   6.974  12.546   8.822
 4556SOL     OW15564  10.271   4.605   5.467
 4556SOL    HW115565  10.221   4.683   5.489
 4556SOL    HW215566  10.266   4.550   5.545
 4557SOL     OW15567   0.717   6.705   0.646
 4557SOL    HW115568   0.739   6.615   0.668
 4557SOL    HW215569   0.795   6.756   0.667
 4558SOL     OW15570   1.102   1.252   7.673
 4558SOL    HW115571   1.090   1.324   7.735
 4558SOL    HW215572   1.016   1.210   7.667
 4559SOL     OW15573  12.087   2.412   4.152
 4559SOL    HW115574  12.109   2.380   4.239
 4559SOL    HW215575  12.013   2.471   4.166
 4560SOL     OW15576  10.885  10.063  12.237
 4560SOL    HW115577  10.878  10.158  12.249
 4560SOL    HW215578  10.796  10.034  12.217
 4561SOL     OW15579   8.968   2.949   7.232
 4561SOL    HW115580   8.895   2.938   7.171
 4561SOL    HW215581   9.044   2.913   7.185
 4562SOL     OW15582   4.318  13.410   9.219
 4562SOL    HW115583   4.276  13.491   9.248
 4562SOL    HW215584   4.317  13.416   9.123
 4563SOL     OW15585  10.662  14.289   0.213
 4563SOL    HW115586  10.754  14.315   0.212
 4563SOL    HW215587  10.626  14.323   0.131
 4564SOL     OW15588  12.735   2.896  12.641
 4564SOL    HW115589  12.706   2.824  12.697
 4564SOL    HW215590  12.767   2.962  12.701
 4565SOL     OW15591   8.310  13.056   6.103
 4565SOL    HW115592   8.233  13.109   6.124
 4565SOL    HW215593   8.368  13.066   6.179
 4566SOL     OW15594  11.687   4.933  10.875
 4566SOL    HW115595  11.648   5.001  10.931
 4566SOL    HW215596  11.692   4.973  10.788
 4567SOL     OW15597  14.162  11.041   9.269
 4567SOL    HW115598  14.102  11.112   9.248
 4567SOL    HW215599  14.168  11.042   9.365
 4568SOL     OW15600   3.439  12.328   6.725
 4568SOL    HW115601   3.489  12.282   6.657
 4568SOL    HW215602   3.477  12.299   6.807
 4569SOL     OW15603   4.045   4.283   1.755
 4569SOL    HW115604   4.044   4.190   1.734
 4569SOL    HW215605   4.021   4.288   1.847
 4570SOL     OW15606  14.710   7.808   9.146
 4570SOL    HW115607  14.664   7.725   9.153
 4570SOL    HW215608  14.789   7.787   9.097
 4571SOL     OW15609   4.163  14.563   1.481
 4571SOL    HW115610   4.114  14.626   1.532
 4571SOL    HW215611   4.107  14.485   1.480
 4572SOL     OW15612   7.122   5.830   0.328
 4572SOL    HW115613   7.123   5.790   0.415
 4572SOL    HW215614   7.050   5.786   0.282
 4573SOL     OW15615   6.700   4.199  10.517
 4573SOL    HW115616   6.670   4.108  10.519
 4573SOL    HW215617   6.620   4.251  10.509
 4574SOL     OW15618   7.129   5.827   7.618
 4574SOL    HW115619   7.110   5.737   7.647
 4574SOL    HW215620   7.046   5.873   7.630
 4575SOL     OW15621   0.509   7.570  11.823
 4575SOL    HW115622   0.561   7.493  11.800
 4575SOL    HW215623   0.421   7.549  11.793
 4576SOL     OW15624  13.260   5.913   0.185
 4576SOL    HW115625  13.165   5.926   0.180
 4576SOL    HW215626  13.274   5.870   0.269
 4577SOL     OW15627  13.810   6.820   6.093
 4577SOL    HW115628  13.838   6.848   6.181
 4577SOL    HW215629  13.744   6.753   6.110
 4578SOL     OW15630   3.819  11.850  11.517
 4578SOL    HW115631   3.805  11.761  11.485
 4578SOL    HW215632   3.732  11.880  11.544
 4579SOL     OW15633   2.877   7.026  11.142
 4579SOL    HW115634   2.820   7.089  11.186
 4579SOL    HW215635   2.829   6.943  11.146
 4580SOL     OW15636  14.243   3.425   4.824
 4580SOL    HW115637  14.296   3.449   4.900
 4580SOL    HW215638  14.236   3.506   4.774
 4581SOL     OW15639  14.378  14.366   7.437
 4581SOL    HW115640  14.315  14.359   7.365
 4581SOL    HW215641  14.463  14.370   7.394
 4582SOL     OW15642   9.666   4.157  14.004
 4582SOL    HW115643   9.656   4.185  13.913
 4582SOL    HW215644   9.629   4.229  14.055
 4583SOL     OW15645   2.667   7.256  11.008
 4583SOL    HW115646   2.660   7.220  11.096
 4583SOL    HW215647   2.619   7.339  11.012
 4584SOL     OW15648  13.469   6.305   6.926
 4584SOL    HW115649  13.468   6.353   7.009
 4584SOL    HW215650  13.378   6.306   6.897
 4585SOL     OW15651   8.968  12.856   6.536
 4585SOL    HW115652   8.931  12.810   6.461
 4585SOL    HW215653   8.919  12.823   6.612
 4586SOL     OW15654   7.128  13.724   5.108
 4586SOL    HW115655   7.107  13.784   5.037
 4586SOL    HW215656   7.127  13.778   5.187
 4587SOL     OW15657   5.361   5.720   8.871
 4587SOL    HW115658   5.428   5.693   8.808
 4587SOL    HW215659   5.377   5.814   8.884
 4588SOL     OW15660   2.072   2.148   8.069
 4588SOL    HW115661   2.085   2.094   8.148
 4588SOL    HW215662   1.999   2.205   8.092
 4589SOL     OW15663   5.268  12.359   1.195
 4589SOL    HW115664   5.230  12.377   1.281
 4589SOL    HW215665   5.362  12.370   1.207
 4590SOL     OW15666  10.024   2.938   0.750
 4590SOL    HW115667   9.935   2.960   0.724
 4590SOL    HW215668  10.049   2.867   0.691
 4591SOL     OW15669   3.129   1.437   5.621
 4591SOL    HW115670   3.100   1.465   5.534
 4591SOL    HW215671   3.224   1.445   5.618
 4592SOL     OW15672  14.384   7.874  11.439
 4592SOL    HW115673  14.379   7.969  11.426
 4592SOL    HW215674  14.356   7.837  11.355
 4593SOL     OW15675   6.629   3.748   5.470
 4593SOL    HW115676   6.720   3.776   5.473
 4593SOL    HW215677   6.581   3.825   5.440
 4594SOL     OW15678  10.227   0.110   6.041
 4594SOL    HW115679  10.306   0.057   6.035
 4594SOL    HW215680  10.155   0.047   6.029
 4595SOL     OW15681   9.682   1.398  10.312
 4595SOL    HW115682   9.760   1.454  10.316
 4595SOL    HW215683   9.611   1.453  10.345
 4596SOL     OW15684   2.401   6.214  13.149
 4596SOL    HW115685   2.420   6.301  13.114
 4596SOL    HW215686   2.321   6.225  13.200
 4597SOL     OW15687  13.929  10.234   7.533
 4597SOL    HW115688  13.971  10.155   7.498
 4597SOL    HW215689  13.936  10.298   7.462
 4598SOL     OW15690   2.443   1.947  13.915
 4598SOL    HW115691   2.504   1.875  13.906
 4598SOL    HW215692   2.362   1.915  13.876
 4599SOL     OW15693   6.350   1.906  11.229
 4599SOL    HW115694   6.415   1.854  11.182
 4599SOL    HW215695   6.369   1.997  11.204
 4600SOL     OW15696   6.037   3.559   5.347
 4600SOL    HW115697   6.023   3.465   5.342
 4600SOL    HW215698   6.029   3.590   5.256
 4601SOL     OW15699   4.719  13.086   6.957
 4601SOL    HW115700   4.773  13.030   6.901
 4601SOL    HW215701   4.782  13.143   7.000
 4602SOL     OW15702  14.426   1.596   6.602
 4602SOL    HW115703  14.430   1.679   6.649
 4602SOL    HW215704  14.393   1.620   6.515
 4603SOL     OW15705  14.640   4.121   4.438
 4603SOL    HW115706  14.597   4.038   4.423
 4603SOL    HW215707  14.733   4.104   4.420
 4604SOL     OW15708   7.933   1.073   5.865
 4604SOL    HW115709   7.940   1.130   5.942
 4604SOL    HW215710   7.957   0.986   5.898
 4605SOL     OW15711   6.169  11.996   4.508
 4605SOL    HW115712   6.149  12.018   4.599
 4605SOL    HW215713   6.209  12.075   4.473
 4606SOL     OW15714  10.120   0.861  11.437
 4606SOL    HW115715  10.037   0.819  11.459
 4606SOL    HW215716  10.096   0.950  11.412
 4607SOL     OW15717   2.025   0.090   4.302
 4607SOL    HW115718   2.051   0.180   4.282
 4607SOL    HW215719   2.024   0.086   4.398
 4608SOL     OW15720  14.243   4.939  11.192
 4608SOL    HW115721  14.198   4.906  11.270
 4608SOL    HW215722  14.335   4.939  11.215
 4609SOL     OW15723   0.260   1.814   0.068
 4609SOL    HW115724   0.258   1.725   0.103
 4609SOL    HW215725   0.175   1.851   0.092
 4610SOL     OW15726   6.000   9.116  11.292
 4610SOL    HW115727   5.986   9.195  11.239
 4610SOL    HW215728   6.017   9.047  11.229
 4611SOL     OW15729   9.575  12.823   3.913
 4611SOL    HW115730   9.589  12.771   3.834
 4611SOL    HW215731   9.504  12.779   3.959
 4612SOL     OW15732  10.624   9.158   7.114
 4612SOL    HW115733  10.537   9.180   7.146
 4612SOL    HW215734  10.680   9.164   7.192
 4613SOL     OW15735  11.898   0.187   1.884
 4613SOL    HW115736  11.855   0.257   1.934
 4613SOL    HW215737  11.872   0.202   1.794
 4614SOL     OW15738   4.463  12.945   5.539
 4614SOL    HW115739   4.531  12.919   5.478
 4614SOL    HW215740   4.499  12.925   5.626
 4615SOL     OW15741   4.959  13.457  13.878
 4615SOL    HW115742   4.916  13.523  13.933
 4615SOL    HW215743   5.040  13.499  13.850
 4616SOL     OW15744  12.545  13.962   5.863
 4616SOL    HW115745  12.599  13.896   5.820
 4616SOL    HW215746  12.470  13.972   5.804
 4617SOL     OW15747  10.857  13.358   7.564
 4617SOL    HW115748  10.791  13.425   7.547
 4617SOL    HW215749  10.891  13.379   7.651
 4618SOL     OW15750   2.494   5.111   2.422
 4618SOL    HW115751   2.419   5.052   2.421
 4618SOL    HW215752   2.542   5.091   2.342
 4619SOL     OW15753   8.619   2.739   9.999
 4619SOL    HW115754   8.625   2.705   9.910
 4619SOL    HW215755   8.531   2.775  10.005
 4620SOL     OW15756   9.880   4.112   3.440
 4620SOL    HW115757   9.844   4.186   3.489
 4620SOL    HW215758   9.854   4.035   3.490
 4621SOL     OW15759  10.197  12.504   5.227
 4621SOL    HW115760  10.144  12.577   5.194
 4621SOL    HW215761  10.134  12.432   5.237
 4622SOL     OW15762   3.703   6.884   4.851
 4622SOL    HW115763   3.748   6.829   4.914
 4622SOL    HW215764   3.770   6.947   4.822
 4623SOL     OW15765  10.908  11.426  14.381
 4623SOL    HW115766  10.924  11.334  14.403
 4623SOL    HW215767  10.994  11.461  14.359
 4624SOL     OW15768   6.871  14.266   1.827
 4624SOL    HW115769   6.864  14.361   1.825
 4624SOL    HW215770   6.780  14.235   1.826
 4625SOL     OW15771  12.092   2.936   8.486
 4625SOL    HW115772  12.157   3.006   8.481
 4625SOL    HW215773  12.101   2.889   8.403
 4626SOL     OW15774   5.424   3.270   9.883
 4626SOL    HW115775   5.334   3.279   9.851
 4626SOL    HW215776   5.450   3.359   9.907
 4627SOL     OW15777   9.627   0.516  10.016
 4627SOL    HW115778   9.580   0.473   9.945
 4627SOL    HW215779   9.645   0.604   9.983
 4628SOL     OW15780   2.891   3.017  13.938
 4628SOL    HW115781   2.832   2.961  13.889
 4628SOL    HW215782   2.917   2.965  14.014
 4629SOL     OW15783   8.153   3.997  12.001
 4629SOL    HW115784   8.194   4.083  12.007
 4629SOL    HW215785   8.206   3.941  12.057
 4630SOL     OW15786   1.747   2.960   2.548
 4630SOL    HW115787   1.825   3.013   2.562
 4630SOL    HW215788   1.778   2.870   2.554
 4631SOL     OW15789  12.047   0.923   8.593
 4631SOL    HW115790  12.143   0.917   8.585
 4631SOL    HW215791  12.034   0.980   8.669
 4632SOL     OW15792   1.244   1.048   7.402
 4632SOL    HW115793   1.165   1.080   7.360
 4632SOL    HW215794   1.297   1.127   7.418
 4633SOL     OW15795   7.436   1.357  10.507
 4633SOL    HW115796   7.356   1.387  10.465
 4633SOL    HW215797   7.407   1.325  10.593
 4634SOL     OW15798   2.760   2.629   6.257
 4634SOL    HW115799   2.680   2.675   6.232
 4634SOL    HW215800   2.743   2.597   6.345
 4635SOL     OW15801   7.030  10.080   9.021
 4635SOL    HW115802   7.101  10.038   8.973
 4635SOL    HW215803   7.068  10.101   9.107
 4636SOL     OW15804  11.480   0.793   1.227
 4636SOL    HW115805  11.540   0.803   1.301
 4636SOL    HW215806  11.418   0.866   1.236
 4637SOL     OW15807  10.323  10.924   2.057
 4637SOL    HW115808  10.405  10.879   2.078
 4637SOL    HW215809  10.351  11.005   2.014
 4638SOL     OW15810   7.451  14.087  11.348
 4638SOL    HW115811   7.427  14.163  11.401
 4638SOL    HW215812   7.367  14.045  11.327
 4639SOL     OW15813  10.043   4.829   9.680
 4639SOL    HW115814   9.969   4.773   9.657
 4639SOL    HW215815  10.117   4.794   9.629
 4640SOL     OW15816  13.562  14.059   1.230
 4640SOL    HW115817  13.561  14.139   1.179
 4640SOL    HW215818  13.510  13.997   1.179
 4641SOL     OW15819   3.574   3.863   7.890
 4641SOL    HW115820   3.646   3.800   7.898
 4641SOL    HW215821   3.500   3.810   7.862
 4642SOL     OW15822  12.332   1.708   7.672
 4642SOL    HW115823  12.325   1.712   7.577
 4642SOL    HW215824  12.345   1.615   7.691
 4643SOL     OW15825   2.571  11.551   1.014
 4643SOL    HW115826   2.611  11.545   0.928
 4643SOL    HW215827   2.610  11.479   1.064
 4644SOL     OW15828   4.953   3.347   2.082
 4644SOL    HW115829   5.034   3.321   2.038
 4644SOL    HW215830   4.978   3.423   2.135
 4645SOL     OW15831   9.300  12.862  12.144
 4645SOL    HW115832   9.309  12.804  12.221
 4645SOL    HW215833   9.244  12.933  12.175
 4646SOL     OW15834   9.985   1.954   8.700
 4646SOL    HW115835   9.980   1.902   8.780
 4646SOL    HW215836  10.025   1.895   8.636
 4647SOL     OW15837   9.060   1.682   5.042
 4647SOL    HW115838   9.107   1.745   4.987
 4647SOL    HW215839   9.008   1.631   4.980
 4648SOL     OW15840   0.130  11.149   2.582
 4648SOL    HW115841   0.192  11.080   2.606
 4648SOL    HW215842   0.170  11.230   2.615
 4649SOL     OW15843   6.610   6.633  11.349
 4649SOL    HW115844   6.617   6.651  11.443
 4649SOL    HW215845   6.585   6.541  11.345
 4650SOL     OW15846   6.419   1.697   8.262
 4650SOL    HW115847   6.471   1.671   8.186
 4650SOL    HW215848   6.432   1.791   8.269
 4651SOL     OW15849  13.569   2.097   8.690
 4651SOL    HW115850  13.503   2.157   8.657
 4651SOL    HW215851  13.567   2.023   8.629
 4652SOL     OW15852  14.107   7.414   3.528
 4652SOL    HW115853  14.083   7.474   3.598
 4652SOL    HW215854  14.047   7.340   3.539
 4653SOL     OW15855   1.397   0.618   6.059
 4653SOL    HW115856   1.485   0.598   6.027
 4653SOL    HW215857   1.360   0.532   6.080
 4654SOL     OW15858   6.896   5.204  11.452
 4654SOL    HW115859   6.960   5.270  11.424
 4654SOL    HW215860   6.946   5.123  11.455
 4655SOL     OW15861   2.120  11.280  11.738
 4655SOL    HW115862   2.142  11.363  11.781
 4655SOL    HW215863   2.155  11.289  11.650
 4656SOL     OW15864   5.371   7.787  11.244
 4656SOL    HW115865   5.435   7.761  11.178
 4656SOL    HW215866   5.395   7.877  11.267
 4657SOL     OW15867  10.876   0.227  11.791
 4657SOL    HW115868  10.798   0.282  11.780
 4657SOL    HW215869  10.887   0.220  11.886
 4658SOL     OW15870   1.327   4.205   1.096
 4658SOL    HW115871   1.360   4.224   1.008
 4658SOL    HW215872   1.294   4.290   1.127
 4659SOL     OW15873  12.452   2.203   4.477
 4659SOL    HW115874  12.522   2.239   4.422
 4659SOL    HW215875  12.477   2.229   4.566
 4660SOL     OW15876   2.877   6.425   3.358
 4660SOL    HW115877   2.840   6.381   3.434
 4660SOL    HW215878   2.878   6.358   3.290
 4661SOL     OW15879   2.538   9.157  11.080
 4661SOL    HW115880   2.470   9.183  11.018
 4661SOL    HW215881   2.537   9.225  11.148
 4662SOL     OW15882   3.941   4.660   1.168
 4662SOL    HW115883   3.895   4.576   1.172
 4662SOL    HW215884   3.881   4.722   1.210
 4663SOL     OW15885  14.367   8.700   0.722
 4663SOL    HW115886  14.281   8.732   0.697
 4663SOL    HW215887  14.385   8.742   0.806
 4664SOL     OW15888  12.055   7.890   8.074
 4664SOL    HW115889  12.086   7.828   8.140
 4664SOL    HW215890  12.042   7.972   8.122
 4665SOL     OW15891   1.899  12.958   9.917
 4665SOL    HW115892   1.895  12.928   9.827
 4665SOL    HW215893   1.984  13.001   9.925
 4666SOL     OW15894  12.530   5.302   4.146
 4666SOL    HW115895  12.503   5.394   4.140
 4666SOL    HW215896  12.554   5.279   4.056
 4667SOL     OW15897  12.244   1.361   0.915
 4667SOL    HW115898  12.329   1.348   0.956
 4667SOL    HW215899  12.185   1.383   0.987
 4668SOL     OW15900  14.062   2.323   2.352
 4668SOL    HW115901  14.046   2.400   2.406
 4668SOL    HW215902  14.043   2.249   2.410
 4669SOL     OW15903   1.222   6.847   8.593
 4669SOL    HW115904   1.182   6.861   8.679
 4669SOL    HW215905   1.303   6.799   8.611
 4670SOL     OW15906   5.881  12.394   2.947
 4670SOL    HW115907   5.859  12.385   3.040
 4670SOL    HW215908   5.977  12.400   2.946
 4671SOL     OW15909   5.331   2.865   2.878
 4671SOL    HW115910   5.297   2.785   2.918
 4671SOL    HW215911   5.352   2.922   2.952
 4672SOL     OW15912   2.708   6.543  14.397
 4672SOL    HW115913   2.722   6.455  14.431
 4672SOL    HW215914   2.692   6.531  14.304
 4673SOL     OW15915   4.279   6.468  10.798
 4673SOL    HW115916   4.336   6.505  10.865
 4673SOL    HW215917   4.190   6.489  10.828
 4674SOL     OW15918   0.147   9.384  13.866
 4674SOL    HW115919   0.241   9.371  13.853
 4674SOL    HW215920   0.113   9.297  13.887
 4675SOL     OW15921   5.611   6.424  13.240
 4675SOL    HW115922   5.652   6.510  13.247
 4675SOL    HW215923   5.630   6.396  13.150
 4676SOL     OW15924   1.387  11.888   5.037
 4676SOL    HW115925   1.394  11.983   5.051
 4676SOL    HW215926   1.324  11.879   4.965
 4677SOL     OW15927   1.743   2.985   4.767
 4677SOL    HW115928   1.741   3.062   4.825
 4677SOL    HW215929   1.809   3.006   4.701
 4678SOL     OW15930   3.607   4.588   4.603
 4678SOL    HW115931   3.588   4.637   4.683
 4678SOL    HW215932   3.652   4.509   4.633
 4679SOL     OW15933   0.708  14.682   0.683
 4679SOL    HW115934   0.746  14.596   0.701
 4679SOL    HW215935   0.620  14.663   0.650
 4680SOL     OW15936   5.338  14.715   7.207
 4680SOL    HW115937   5.413  14.774   7.216
 4680SOL    HW215938   5.269  14.770   7.169
 4681SOL     OW15939   2.153  10.169   6.532
 4681SOL    HW115940   2.099  10.105   6.579
 4681SOL    HW215941   2.120  10.254   6.563
 4682SOL     OW15942   4.320  10.567   9.914
 4682SOL    HW115943   4.406  10.605   9.896
 4682SOL    HW215944   4.327  10.476   9.884
 4683SOL     OW15945   3.991   1.521   4.724
 4683SOL    HW115946   3.916   1.578   4.705
 4683SOL    HW215947   3.959   1.462   4.793
 4684SOL     OW15948   1.359   3.281  14.388
 4684SOL    HW115949   1.319   3.367  14.393
 4684SOL    HW215950   1.422   3.288  14.316
 4685SOL     OW15951   3.942  12.241  11.256
 4685SOL    HW115952   3.930  12.163  11.202
 4685SOL    HW215953   3.856  12.256  11.296
 4686SOL     OW15954   9.078  11.388   7.526
 4686SOL    HW115955   8.985  11.388   7.550
 4686SOL    HW215956   9.078  11.378   7.431
 4687SOL     OW15957   2.106   1.154   9.025
 4687SOL    HW115958   2.167   1.100   9.076
 4687SOL    HW215959   2.160   1.191   8.955
 4688SOL     OW15960   5.167   5.712   2.798
 4688SOL    HW115961   5.137   5.665   2.720
 4688SOL    HW215962   5.262   5.719   2.787
 4689SOL     OW15963   8.893   4.317   2.412
 4689SOL    HW115964   8.886   4.223   2.428
 4689SOL    HW215965   8.883   4.327   2.318
 4690SOL     OW15966   5.173  10.980   5.837
 4690SOL    HW115967   5.096  10.983   5.894
 4690SOL    HW215968   5.190  10.887   5.823
 4691SOL     OW15969  13.045   6.880  10.216
 4691SOL    HW115970  13.016   6.841  10.134
 4691SOL    HW215971  13.047   6.807  10.278
 4692SOL     OW15972  13.712  10.094   4.709
 4692SOL    HW115973  13.755  10.012   4.684
 4692SOL    HW215974  13.659  10.071   4.785
 4693SOL     OW15975  10.159   2.488  11.605
 4693SOL    HW115976  10.203   2.449  11.680
 4693SOL    HW215977  10.071   2.452  11.607
 4694SOL     OW15978   2.885  11.740   9.482
 4694SOL    HW115979   2.790  11.738   9.491
 4694SOL    HW215980   2.912  11.648   9.493
 4695SOL     OW15981  11.351   0.819  10.439
 4695SOL    HW115982  11.350   0.745  10.378
 4695SOL    HW215983  11.432   0.867  10.418
 4696SOL     OW15984   3.594  11.783   4.076
 4696SOL    HW115985   3.513  11.748   4.113
 4696SOL    HW215986   3.578  11.787   3.982
 4697SOL     OW15987  12.178   5.258  10.685
 4697SOL    HW115988  12.169   5.163  10.690
 4697SOL    HW215989  12.224   5.281  10.766
 4698SOL     OW15990  14.815   6.387   6.651
 4698SOL    HW115991  14.834   6.473   6.690
 4698SOL    HW215992   0.023   6.340   6.655
 4699SOL     OW15993   1.599   8.570   3.203
 4699SOL    HW115994   1.540   8.499   3.226
 4699SOL    HW215995   1.683   8.527   3.186
 4700SOL     OW15996   9.853  13.032   9.462
 4700SOL    HW115997   9.781  13.047   9.401
 4700SOL    HW215998   9.860  12.937   9.468
 4701SOL     OW15999  10.836  11.788   3.958
 4701SOL    HW116000  10.930  11.788   3.976
 4701SOL    HW216001  10.830  11.778   3.863
 4702SOL     OW16002  12.283  11.836   0.487
 4702SOL    HW116003  12.356  11.893   0.509
 4702SOL    HW216004  12.237  11.822   0.570
 4703SOL     OW16005  11.350   8.919   9.513
 4703SOL    HW116006  11.284   8.853   9.534
 4703SOL    HW216007  11.303   9.002   9.513
 4704SOL     OW16008  12.513   3.535   8.248
 4704SOL    HW116009  12.467   3.618   8.233
 4704SOL    HW216010  12.606   3.557   8.241
 4705SOL     OW16011   1.516   4.414   7.702
 4705SOL    HW116012   1.440   4.461   7.735
 4705SOL    HW216013   1.569   4.481   7.658
 4706SOL     OW16014   4.631   8.160   8.845
 4706SOL    HW116015   4.716   8.116   8.837
 4706SOL    HW216016   4.572   8.108   8.791
 4707SOL     OW16017   6.539   9.463   8.345
 4707SOL    HW116018   6.604   9.398   8.316
 4707SOL    HW216019   6.472   9.461   8.277
 4708SOL     OW16020  14.218  11.236   2.572
 4708SOL    HW116021  14.278  11.292   2.523
 4708SOL    HW216022  14.271  11.200   2.643
 4709SOL     OW16023  14.190   7.987   4.961
 4709SOL    HW116024  14.234   7.902   4.952
 4709SOL    HW216025  14.105   7.966   4.999
 4710SOL     OW16026  12.168   7.785   3.586
 4710SOL    HW116027  12.251   7.828   3.603
 4710SOL    HW216028  12.171   7.705   3.639
 4711SOL     OW16029  13.428  14.198  12.526
 4711SOL    HW116030  13.364  14.219  12.593
 4711SOL    HW216031  13.402  14.250  12.450
 4712SOL     OW16032   9.691   9.237   8.720
 4712SOL    HW116033   9.651   9.161   8.762
 4712SOL    HW216034   9.772   9.252   8.769
 4713SOL     OW16035  13.184   0.478  14.418
 4713SOL    HW116036  13.202   0.562  14.377
 4713SOL    HW216037  13.150   0.423  14.346
 4714SOL     OW16038  10.401   6.414   6.503
 4714SOL    HW116039  10.424   6.423   6.411
 4714SOL    HW216040  10.397   6.504   6.535
 4715SOL     OW16041   0.795  13.310   1.431
 4715SOL    HW116042   0.810  13.290   1.524
 4715SOL    HW216043   0.791  13.406   1.428
 4716SOL     OW16044  11.730   9.102   9.573
 4716SOL    HW116045  11.755   9.194   9.584
 4716SOL    HW216046  11.714   9.093   9.479
 4717SOL     OW16047   8.715   7.067  10.110
 4717SOL    HW116048   8.623   7.072  10.135
 4717SOL    HW216049   8.744   6.982  10.143
 4718SOL     OW16050   0.727   7.722  10.711
 4718SOL    HW116051   0.686   7.801  10.747
 4718SOL    HW216052   0.765   7.678  10.788
 4719SOL     OW16053   1.246  10.417  12.868
 4719SOL    HW116054   1.213  10.505  12.850
 4719SOL    HW216055   1.185  10.359  12.822
 4720SOL     OW16056   5.890   5.345   4.790
 4720SOL    HW116057   5.905   5.251   4.781
 4720SOL    HW216058   5.862   5.356   4.881
 4721SOL     OW16059  13.111  11.412  11.426
 4721SOL    HW116060  13.156  11.421  11.342
 4721SOL    HW216061  13.067  11.496  11.439
 4722SOL     OW16062  13.330  12.601   3.384
 4722SOL    HW116063  13.288  12.541   3.447
 4722SOL    HW216064  13.399  12.549   3.344
 4723SOL     OW16065   2.255   9.712  10.668
 4723SOL    HW116066   2.256   9.791  10.722
 4723SOL    HW216067   2.191   9.730  10.599
 4724SOL     OW16068   9.871   9.603  11.566
 4724SOL    HW116069   9.792   9.560  11.600
 4724SOL    HW216070   9.943   9.547  11.595
 4725SOL     OW16071   5.622   1.681   3.189
 4725SOL    HW116072   5.615   1.776   3.177
 4725SOL    HW216073   5.693   1.655   3.131
 4726SOL     OW16074   9.047  12.528   7.574
 4726SOL    HW116075   9.089  12.558   7.655
 4726SOL    HW216076   8.983  12.596   7.554
 4727SOL     OW16077  12.375   1.164   5.455
 4727SOL    HW116078  12.457   1.130   5.420
 4727SOL    HW216079  12.375   1.257   5.432
 4728SOL     OW16080   1.643  11.210  14.843
 4728SOL    HW116081   1.680  11.291   0.003
 4728SOL    HW216082   1.587  11.177   0.038
 4729SOL     OW16083   5.899   0.237  14.070
 4729SOL    HW116084   5.831   0.265  14.131
 4729SOL    HW216085   5.978   0.231  14.123
 4730SOL     OW16086  10.312   0.931  13.321
 4730SOL    HW116087  10.335   1.020  13.294
 4730SOL    HW216088  10.274   0.942  13.408
 4731SOL     OW16089  14.677  12.508   2.169
 4731SOL    HW116090  14.705  12.433   2.222
 4731SOL    HW216091  14.589  12.528   2.200
 4732SOL     OW16092   6.888   0.074   9.500
 4732SOL    HW116093   6.917   0.140   9.436
 4732SOL    HW216094   6.924   0.104   9.583
 4733SOL     OW16095   5.890  13.827   8.698
 4733SOL    HW116096   5.909  13.909   8.743
 4733SOL    HW216097   5.866  13.854   8.609
 4734SOL     OW16098  12.312   7.607  10.689
 4734SOL    HW116099  12.246   7.659  10.644
 4734SOL    HW216100  12.319   7.646  10.776
 4735SOL     OW16101  13.462   0.767   5.298
 4735SOL    HW116102  13.518   0.711   5.244
 4735SOL    HW216103  13.421   0.827   5.236
 4736SOL     OW16104  11.087   7.533   5.907
 4736SOL    HW116105  11.000   7.509   5.876
 4736SOL    HW216106  11.084   7.628   5.916
 4737SOL     OW16107   9.375   6.932   2.286
 4737SOL    HW116108   9.281   6.924   2.268
 4737SOL    HW216109   9.386   7.024   2.310
 4738SOL     OW16110   2.171  11.543  11.838
 4738SOL    HW116111   2.165  11.587  11.923
 4738SOL    HW216112   2.098  11.581  11.787
 4739SOL     OW16113   4.896   9.221   8.960
 4739SOL    HW116114   4.971   9.164   8.942
 4739SOL    HW216115   4.821   9.162   8.961
 4740SOL     OW16116   0.299  11.997   7.282
 4740SOL    HW116117   0.265  12.021   7.368
 4740SOL    HW216118   0.389  12.027   7.281
 4741SOL     OW16119   7.130  12.430   5.248
 4741SOL    HW116120   7.207  12.466   5.291
 4741SOL    HW216121   7.100  12.500   5.189
 4742SOL     OW16122   8.311   5.853  12.978
 4742SOL    HW116123   8.304   5.826  12.887
 4742SOL    HW216124   8.402   5.833  13.002
 4743SOL     OW16125  11.935   2.666   1.028
 4743SOL    HW116126  11.928   2.571   1.035
 4743SOL    HW216127  11.912   2.698   1.115
 4744SOL     OW16128   5.708  13.606  13.200
 4744SOL    HW116129   5.740  13.696  13.204
 4744SOL    HW216130   5.621  13.613  13.160
 4745SOL     OW16131  10.253  13.594  10.421
 4745SOL    HW116132  10.325  13.609  10.359
 4745SOL    HW216133  10.271  13.508  10.458
 4746SOL     OW16134   8.345  11.876   6.383
 4746SOL    HW116135   8.339  11.912   6.294
 4746SOL    HW216136   8.437  11.886   6.406
 4747SOL     OW16137  11.023   0.842   0.716
 4747SOL    HW116138  11.077   0.814   0.790
 4747SOL    HW216139  11.019   0.937   0.724
 4748SOL     OW16140  10.646  11.202  11.007
 4748SOL    HW116141  10.651  11.209  11.102
 4748SOL    HW216142  10.600  11.281  10.980
 4749SOL     OW16143   6.193   8.030   0.488
 4749SOL    HW116144   6.145   8.016   0.569
 4749SOL    HW216145   6.125   8.049   0.423
 4750SOL     OW16146   1.669  10.642   7.648
 4750SOL    HW116147   1.758  10.669   7.628
 4750SOL    HW216148   1.679  10.562   7.700
 4751SOL     OW16149   9.394   2.040   8.858
 4751SOL    HW116150   9.447   2.040   8.938
 4751SOL    HW216151   9.445   2.090   8.795
 4752SOL     OW16152  11.899   0.620   8.571
 4752SOL    HW116153  11.888   0.614   8.476
 4752SOL    HW216154  11.965   0.688   8.584
 4753SOL     OW16155   4.446  14.116   4.688
 4753SOL    HW116156   4.477  14.133   4.777
 4753SOL    HW216157   4.515  14.063   4.648
 4754SOL     OW16158   9.187   3.009   2.976
 4754SOL    HW116159   9.131   3.065   3.030
 4754SOL    HW216160   9.252   2.975   3.036
 4755SOL     OW16161   1.529  10.385  12.128
 4755SOL    HW116162   1.538  10.373  12.034
 4755SOL    HW216163   1.590  10.322  12.167
 4756SOL     OW16164   7.436  10.603   1.607
 4756SOL    HW116165   7.473  10.520   1.576
 4756SOL    HW216166   7.470  10.612   1.696
 4757SOL     OW16167   5.033  11.369   3.968
 4757SOL    HW116168   5.114  11.322   3.947
 4757SOL    HW216169   5.020  11.355   4.062
 4758SOL     OW16170  13.187   4.489  14.451
 4758SOL    HW116171  13.275   4.476  14.416
 4758SOL    HW216172  13.130   4.484  14.375
 4759SOL     OW16173  11.881   5.609   4.767
 4759SOL    HW116174  11.876   5.522   4.728
 4759SOL    HW216175  11.951   5.602   4.832
 4760SOL     OW16176  14.332  12.912   4.569
 4760SOL    HW116177  14.352  12.822   4.544
 4760SOL    HW216178  14.329  12.911   4.664
 4761SOL     OW16179   3.565  12.581   1.682
 4761SOL    HW116180   3.506  12.527   1.734
 4761SOL    HW216181   3.518  12.596   1.600
 4762SOL     OW16182  11.413   0.362   8.831
 4762SOL    HW116183  11.367   0.360   8.914
 4762SOL    HW216184  11.500   0.327   8.850
 4763SOL     OW16185   1.935   5.692   3.013
 4763SOL    HW116186   1.999   5.675   2.943
 4763SOL    HW216187   1.981   5.666   3.093
 4764SOL     OW16188  10.717   2.643  10.390
 4764SOL    HW116189  10.662   2.681  10.321
 4764SOL    HW216190  10.798   2.618  10.345
 4765SOL     OW16191   1.373   7.337   4.767
 4765SOL    HW116192   1.388   7.303   4.855
 4765SOL    HW216193   1.327   7.266   4.721
 4766SOL     OW16194   0.372  12.574  13.446
 4766SOL    HW116195   0.332  12.598  13.529
 4766SOL    HW216196   0.459  12.613  13.449
 4767SOL     OW16197  12.023  11.442   3.490
 4767SOL    HW116198  12.035  11.447   3.395
 4767SOL    HW216199  12.071  11.364   3.517
 4768SOL     OW16200  11.509   3.320   5.014
 4768SOL    HW116201  11.534   3.233   4.984
 4768SOL    HW216202  11.506   3.313   5.110
 4769SOL     OW16203   8.408   8.186  10.372
 4769SOL    HW116204   8.410   8.163  10.464
 4769SOL    HW216205   8.358   8.268  10.368
 4770SOL     OW16206  14.032   4.754   8.085
 4770SOL    HW116207  14.021   4.843   8.118
 4770SOL    HW216208  13.983   4.752   8.003
 4771SOL     OW16209   8.796   1.956   3.606
 4771SOL    HW116210   8.879   1.934   3.650
 4771SOL    HW216211   8.811   2.043   3.570
 4772SOL     OW16212   5.717  14.588   4.512
 4772SOL    HW116213   5.765  14.537   4.577
 4772SOL    HW216214   5.664  14.524   4.465
 4773SOL     OW16215   3.448   3.183   1.271
 4773SOL    HW116216   3.498   3.237   1.332
 4773SOL    HW216217   3.512   3.123   1.233
 4774SOL     OW16218  13.870  14.052  12.771
 4774SOL    HW116219  13.880  13.999  12.849
 4774SOL    HW216220  13.904  13.998  12.700
 4775SOL     OW16221  10.429   9.781   4.977
 4775SOL    HW116222  10.474   9.797   4.894
 4775SOL    HW216223  10.416   9.868   5.014
 4776SOL     OW16224   2.972  11.908  14.172
 4776SOL    HW116225   2.937  11.955  14.096
 4776SOL    HW216226   2.994  11.977  14.234
 4777SOL     OW16227   2.922   1.016   6.702
 4777SOL    HW116228   2.885   0.928   6.702
 4777SOL    HW216229   2.850   1.072   6.671
 4778SOL     OW16230   4.021   8.982   1.925
 4778SOL    HW116231   4.016   9.043   1.999
 4778SOL    HW216232   3.934   8.984   1.887
 4779SOL     OW16233  12.793   0.654  10.583
 4779SOL    HW116234  12.710   0.701  10.583
 4779SOL    HW216235  12.850   0.705  10.526
 4780SOL     OW16236   0.709  14.175   3.583
 4780SOL    HW116237   0.749  14.262   3.584
 4780SOL    HW216238   0.766  14.122   3.639
 4781SOL     OW16239   0.773   5.043   8.258
 4781SOL    HW116240   0.719   5.112   8.296
 4781SOL    HW216241   0.858   5.055   8.299
 4782SOL     OW16242   5.894   5.684   2.547
 4782SOL    HW116243   5.898   5.645   2.460
 4782SOL    HW216244   5.961   5.753   2.545
 4783SOL     OW16245   9.739   1.173   6.513
 4783SOL    HW116246   9.668   1.188   6.450
 4783SOL    HW216247   9.792   1.253   6.508
 4784SOL     OW16248   8.878  11.911  11.748
 4784SOL    HW116249   8.799  11.861  11.771
 4784SOL    HW216250   8.848  11.971  11.679
 4785SOL     OW16251   2.694   2.580   9.952
 4785SOL    HW116252   2.697   2.596  10.046
 4785SOL    HW216253   2.786   2.579   9.925
 4786SOL     OW16254  10.994  12.925   2.071
 4786SOL    HW116255  11.030  12.901   2.157
 4786SOL    HW216256  10.904  12.954   2.090
 4787SOL     OW16257   0.413   3.708   9.025
 4787SOL    HW116258   0.393   3.698   8.932
 4787SOL    HW216259   0.402   3.620   9.061
 4788SOL     OW16260   8.620   0.096   0.231
 4788SOL    HW116261   8.542   0.141   0.198
 4788SOL    HW216262   8.692   0.156   0.213
 4789SOL     OW16263  10.016   5.438   4.971
 4789SOL    HW116264  10.069   5.490   4.911
 4789SOL    HW216265   9.935   5.422   4.924
 4790SOL     OW16266   5.341  14.006   9.100
 4790SOL    HW116267   5.436  13.992   9.100
 4790SOL    HW216268   5.325  14.062   9.024
 4791SOL     OW16269  10.329  11.325   9.402
 4791SOL    HW116270  10.404  11.330   9.343
 4791SOL    HW216271  10.310  11.231   9.409
 4792SOL     OW16272   6.564   2.548   1.216
 4792SOL    HW116273   6.632   2.581   1.274
 4792SOL    HW216274   6.570   2.603   1.138
 4793SOL     OW16275   6.893  12.749  13.780
 4793SOL    HW116276   6.857  12.769  13.694
 4793SOL    HW216277   6.974  12.801  13.784
 4794SOL     OW16278  10.124  11.330   1.344
 4794SOL    HW116279  10.071  11.256   1.316
 4794SOL    HW216280  10.132  11.319   1.439
 4795SOL     OW16281  13.636  10.129   9.981
 4795SOL    HW116282  13.573  10.069   9.940
 4795SOL    HW216283  13.617  10.124  10.074
 4796SOL     OW16284  13.392  13.800   3.602
 4796SOL    HW116285  13.473  13.849   3.616
 4796SOL    HW216286  13.327  13.845   3.657
 4797SOL     OW16287   5.616  11.440   7.905
 4797SOL    HW116288   5.672  11.431   7.982
 4797SOL    HW216289   5.626  11.531   7.878
 4798SOL     OW16290  10.895  12.643  13.646
 4798SOL    HW116291  10.963  12.703  13.677
 4798SOL    HW216292  10.938  12.594  13.576
 4799SOL     OW16293  13.329   6.317   2.088
 4799SOL    HW116294  13.323   6.396   2.142
 4799SOL    HW216295  13.313   6.349   1.999
 4800SOL     OW16296  14.662  12.381   7.677
 4800SOL    HW116297  14.720  12.391   7.753
 4800SOL    HW216298  14.637  12.470   7.654
 4801SOL     OW16299   5.211  10.572   6.089
 4801SOL    HW116300   5.182  10.510   6.156
 4801SOL    HW216301   5.306  10.563   6.087
 4802SOL     OW16302   8.623  14.005  10.117
 4802SOL    HW116303   8.700  14.042  10.075
 4802SOL    HW216304   8.573  14.082  10.147
 4803SOL     OW16305   1.973   0.429   3.831
 4803SOL    HW116306   1.962   0.340   3.864
 4803SOL    HW216307   2.012   0.477   3.904
 4804SOL     OW16308   1.157   9.984   0.193
 4804SOL    HW116309   1.062   9.983   0.183
 4804SOL    HW216310   1.185  10.064   0.150
 4805SOL     OW16311  11.946  13.253   3.851
 4805SOL    HW116312  11.870  13.267   3.795
 4805SOL    HW216313  11.991  13.178   3.812
 4806SOL     OW16314   5.996   0.076  14.410
 4806SOL    HW116315   6.072   0.055  14.356
 4806SOL    HW216316   6.011   0.166  14.439
 4807SOL     OW16317   5.253   8.966   4.395
 4807SOL    HW116318   5.169   8.942   4.435
 4807SOL    HW216319   5.237   8.960   4.301
 4808SOL     OW16320  11.982   5.437  13.583
 4808SOL    HW116321  12.056   5.493  13.559
 4808SOL    HW216322  12.017   5.348  13.574
 4809SOL     OW16323   0.672   2.236   5.900
 4809SOL    HW116324   0.610   2.259   5.969
 4809SOL    HW216325   0.758   2.259   5.936
 4810SOL     OW16326   9.084   8.323   5.555
 4810SOL    HW116327   9.056   8.305   5.465
 4810SOL    HW216328   9.004   8.346   5.601
 4811SOL     OW16329   8.771   3.726   4.916
 4811SOL    HW116330   8.808   3.778   4.988
 4811SOL    HW216331   8.677   3.744   4.920
 4812SOL     OW16332  12.447   9.432   7.349
 4812SOL    HW116333  12.493   9.451   7.267
 4812SOL    HW216334  12.487   9.490   7.414
 4813SOL     OW16335  12.401   3.833   3.981
 4813SOL    HW116336  12.339   3.878   4.038
 4813SOL    HW216337  12.487   3.851   4.020
 4814SOL     OW16338  12.771   4.487  11.839
 4814SOL    HW116339  12.861   4.471  11.810
 4814SOL    HW216340  12.777   4.496  11.934
 4815SOL     OW16341  11.609   3.160   2.808
 4815SOL    HW116342  11.516   3.167   2.829
 4815SOL    HW216343  11.613   3.168   2.713
 4816SOL     OW16344   6.271  12.438  11.637
 4816SOL    HW116345   6.206  12.432  11.707
 4816SOL    HW216346   6.354  12.449  11.683
 4817SOL     OW16347  10.178   9.388   8.008
 4817SOL    HW116348  10.213   9.456   7.951
 4817SOL    HW216349  10.118   9.434   8.067
 4818SOL     OW16350   0.446  10.718   1.627
 4818SOL    HW116351   0.423  10.668   1.706
 4818SOL    HW216352   0.539  10.699   1.613
 4819SOL     OW16353   0.439   5.891   0.443
 4819SOL    HW116354   0.437   5.917   0.535
 4819SOL    HW216355   0.419   5.798   0.443
 4820SOL     OW16356  10.054   8.197   6.647
 4820SOL    HW116357  10.146   8.171   6.649
 4820SOL    HW216358  10.057   8.293   6.640
 4821SOL     OW16359   9.979   1.085   7.461
 4821SOL    HW116360   9.946   1.055   7.546
 4821SOL    HW216361   9.947   1.020   7.399
 4822SOL     OW16362   2.368   7.737  14.080
 4822SOL    HW116363   2.324   7.780  14.153
 4822SOL    HW216364   2.309   7.748  14.006
 4823SOL     OW16365  10.857  14.680  12.596
 4823SOL    HW116366  10.857  14.770  12.564
 4823SOL    HW216367  10.838  14.627  12.518
 4824SOL     OW16368   7.739  11.293   8.679
 4824SOL    HW116369   7.649  11.260   8.678
 4824SOL    HW216370   7.766  11.292   8.588
 4825SOL     OW16371   7.578  11.945  13.374
 4825SOL    HW116372   7.596  12.026  13.422
 4825SOL    HW216373   7.593  11.967  13.282
 4826SOL     OW16374   9.452   7.489  14.040
 4826SOL    HW116375   9.465   7.398  14.014
 4826SOL    HW216376   9.370   7.490  14.089
 4827SOL     OW16377   3.248   9.327  11.046
 4827SOL    HW116378   3.187   9.387  11.088
 4827SOL    HW216379   3.333   9.346  11.087
 4828SOL     OW16380   9.533   1.353   9.958
 4828SOL    HW116381   9.501   1.427   9.905
 4828SOL    HW216382   9.455   1.302   9.978
 4829SOL     OW16383   0.549  12.343  10.247
 4829SOL    HW116384   0.551  12.303  10.333
 4829SOL    HW216385   0.518  12.274  10.188
 4830SOL     OW16386   9.324   4.602   1.507
 4830SOL    HW116387   9.348   4.539   1.438
 4830SOL    HW216388   9.348   4.687   1.470
 4831SOL     OW16389   3.429  14.008  13.328
 4831SOL    HW116390   3.454  13.924  13.366
 4831SOL    HW216391   3.494  14.070  13.361
 4832SOL     OW16392   3.704   6.218   3.944
 4832SOL    HW116393   3.691   6.278   4.016
 4832SOL    HW216394   3.616   6.192   3.917
 4833SOL     OW16395  10.910   1.291   7.022
 4833SOL    HW116396  10.832   1.237   7.033
 4833SOL    HW216397  10.959   1.249   6.951
 4834SOL     OW16398  11.222   7.353   9.856
 4834SOL    HW116399  11.196   7.296   9.783
 4834SOL    HW216400  11.153   7.340   9.922
 4835SOL     OW16401  13.788  11.383   7.938
 4835SOL    HW116402  13.837  11.323   7.883
 4835SOL    HW216403  13.727  11.328   7.986
 4836SOL     OW16404   5.666  13.929   1.278
 4836SOL    HW116405   5.706  13.986   1.344
 4836SOL    HW216406   5.685  13.840   1.309
 4837SOL     OW16407  12.158   3.469   6.726
 4837SOL    HW116408  12.233   3.447   6.671
 4837SOL    HW216409  12.087   3.414   6.693
 4838SOL     OW16410   1.452  14.385  11.646
 4838SOL    HW116411   1.534  14.396  11.693
 4838SOL    HW216412   1.386  14.423  11.704
 4839SOL     OW16413  11.950   9.507   2.226
 4839SOL    HW116414  11.938   9.570   2.155
 4839SOL    HW216415  12.045   9.493   2.229
 4840SOL     OW16416  10.709   1.023   9.074
 4840SOL    HW116417  10.800   1.054   9.065
 4840SOL    HW216418  10.657   1.103   9.080
 4841SOL     OW16419  10.409   8.880   2.524
 4841SOL    HW116420  10.503   8.895   2.516
 4841SOL    HW216421  10.402   8.804   2.582
 4842SOL     OW16422   4.608   0.398   8.609
 4842SOL    HW116423   4.622   0.396   8.704
 4842SOL    HW216424   4.665   0.468   8.577
 4843SOL     OW16425   8.516  11.405   9.561
 4843SOL    HW116426   8.475  11.319   9.565
 4843SOL    HW216427   8.476  11.448   9.486
 4844SOL     OW16428   5.367  10.556  12.889
 4844SOL    HW116429   5.348  10.520  12.802
 4844SOL    HW216430   5.447  10.511  12.916
 4845SOL     OW16431   5.878   8.571   6.930
 4845SOL    HW116432   5.930   8.494   6.907
 4845SOL    HW216433   5.892   8.631   6.857
 4846SOL     OW16434   5.095   7.492  10.106
 4846SOL    HW116435   5.054   7.513  10.022
 4846SOL    HW216436   5.158   7.423  10.085
 4847SOL     OW16437   2.892  12.504   6.366
 4847SOL    HW116438   2.965  12.448   6.338
 4847SOL    HW216439   2.824  12.442   6.392
 4848SOL     OW16440   6.874  10.893   1.914
 4848SOL    HW116441   6.866  10.800   1.890
 4848SOL    HW216442   6.966  10.913   1.900
 4849SOL     OW16443   8.735  14.808  14.418
 4849SOL    HW116444   8.789  14.729  14.414
 4849SOL    HW216445   8.651  14.782  14.381
 4850SOL     OW16446   0.003  11.334   1.003
 4850SOL    HW116447  14.792  11.300   0.977
 4850SOL    HW216448   0.064  11.290   0.945
 4851SOL     OW16449   0.012   6.910   2.688
 4851SOL    HW116450   0.028   6.822   2.654
 4851SOL    HW216451  14.801   6.904   2.731
 4852SOL     OW16452   8.969   6.906   1.595
 4852SOL    HW116453   9.060   6.921   1.619
 4852SOL    HW216454   8.968   6.818   1.557
 4853SOL     OW16455   6.581   4.749   4.175
 4853SOL    HW116456   6.531   4.669   4.192
 4853SOL    HW216457   6.516   4.810   4.139
 4854SOL     OW16458   2.012   0.802   5.057
 4854SOL    HW116459   1.971   0.795   4.971
 4854SOL    HW216460   1.997   0.893   5.084
 4855SOL     OW16461  10.020   5.977   5.869
 4855SOL    HW116462  10.042   6.025   5.789
 4855SOL    HW216463   9.971   5.901   5.840
 4856SOL     OW16464   1.555   9.536  12.126
 4856SOL    HW116465   1.478   9.526  12.070
 4856SOL    HW216466   1.520   9.528  12.215
 4857SOL     OW16467  10.062   8.472   9.344
 4857SOL    HW116468  10.040   8.457   9.436
 4857SOL    HW216469   9.985   8.443   9.296
 4858SOL     OW16470  12.568   7.488   6.665
 4858SOL    HW116471  12.649   7.487   6.614
 4858SOL    HW216472  12.570   7.571   6.712
 4859SOL     OW16473  11.207   4.146   3.445
 4859SOL    HW116474  11.131   4.113   3.494
 4859SOL    HW216475  11.263   4.070   3.433
 4860SOL     OW16476   2.631  11.136   6.845
 4860SOL    HW116477   2.587  11.075   6.904
 4860SOL    HW216478   2.563  11.199   6.822
 4861SOL     OW16479   4.185  11.392  12.180
 4861SOL    HW116480   4.183  11.379  12.274
 4861SOL    HW216481   4.269  11.435  12.163
 4862SOL     OW16482   5.607   5.272   9.343
 4862SOL    HW116483   5.526   5.255   9.391
 4862SOL    HW216484   5.663   5.197   9.363
 4863SOL     OW16485   4.598  11.858   1.937
 4863SOL    HW116486   4.554  11.910   2.004
 4863SOL    HW216487   4.526  11.818   1.887
 4864SOL     OW16488   5.263  10.231  14.551
 4864SOL    HW116489   5.277  10.140  14.523
 4864SOL    HW216490   5.191  10.262  14.497
 4865SOL     OW16491   1.479   8.897  11.034
 4865SOL    HW116492   1.432   8.840  10.973
 4865SOL    HW216493   1.540   8.839  11.079
 4866SOL     OW16494  11.734   5.349   9.703
 4866SOL    HW116495  11.758   5.256   9.712
 4866SOL    HW216496  11.657   5.348   9.646
 4867SOL     OW16497  12.469   7.447  14.305
 4867SOL    HW116498  12.559   7.478  14.310
 4867SOL    HW216499  12.417   7.526  14.289
 4868SOL     OW16500   8.843  11.277  13.270
 4868SOL    HW116501   8.808  11.348  13.324
 4868SOL    HW216502   8.887  11.219  13.333
 4869SOL     OW16503   1.064   1.165   6.713
 4869SOL    HW116504   1.066   1.207   6.627
 4869SOL    HW216505   1.113   1.084   6.702
 4870SOL     OW16506  14.394  10.492   2.709
 4870SOL    HW116507  14.348  10.454   2.784
 4870SOL    HW216508  14.337  10.475   2.634
 4871SOL     OW16509   0.061  11.606   7.233
 4871SOL    HW116510   0.027  11.692   7.210
 4871SOL    HW216511   0.156  11.614   7.219
 4872SOL     OW16512  12.578   3.273  10.493
 4872SOL    HW116513  12.570   3.218  10.571
 4872SOL    HW216514  12.627   3.219  10.431
 4873SOL     OW16515   4.762  14.765   0.080
 4873SOL    HW116516   4.804  14.797   0.160
 4873SOL    HW216517   4.743  14.673   0.098
 4874SOL     OW16518   3.098  12.639   5.991
 4874SOL    HW116519   3.053  12.632   6.075
 4874SOL    HW216520   3.052  12.708   5.945
 4875SOL     OW16521   0.172  10.210   9.114
 4875SOL    HW116522   0.246  10.261   9.082
 4875SOL    HW216523   0.095  10.253   9.077
 4876SOL     OW16524  12.764  13.812   1.067
 4876SOL    HW116525  12.768  13.796   1.161
 4876SOL    HW216526  12.821  13.746   1.028
 4877SOL     OW16527   1.131  10.229   4.039
 4877SOL    HW116528   1.143  10.248   4.132
 4877SOL    HW216529   1.042  10.259   4.020
 4878SOL     OW16530   8.902   9.172  12.863
 4878SOL    HW116531   8.908   9.212  12.950
 4878SOL    HW216532   8.898   9.078  12.880
 4879SOL     OW16533   5.036   4.905   6.837
 4879SOL    HW116534   4.996   4.968   6.776
 4879SOL    HW216535   5.129   4.906   6.816
 4880SOL     OW16536  13.055   9.164   4.526
 4880SOL    HW116537  12.962   9.151   4.506
 4880SOL    HW216538  13.097   9.172   4.440
 4881SOL     OW16539   9.421  13.265   4.296
 4881SOL    HW116540   9.502  13.257   4.245
 4881SOL    HW216541   9.450  13.295   4.382
 4882SOL     OW16542   9.352  11.174   6.162
 4882SOL    HW116543   9.274  11.121   6.144
 4882SOL    HW216544   9.384  11.141   6.245
 4883SOL     OW16545  11.782   0.696   0.801
 4883SOL    HW116546  11.700   0.726   0.842
 4883SOL    HW216547  11.754   0.642   0.727
 4884SOL     OW16548   2.569   4.364   2.874
 4884SOL    HW116549   2.658   4.398   2.891
 4884SOL    HW216550   2.578   4.311   2.795
 4885SOL     OW16551  11.357  12.428   2.212
 4885SOL    HW116552  11.278  12.445   2.161
 4885SOL    HW216553  11.367  12.507   2.266
 4886SOL     OW16554  11.775   6.439   4.110
 4886SOL    HW116555  11.680   6.440   4.109
 4886SOL    HW216556  11.801   6.436   4.018
 4887SOL     OW16557   7.220   9.796  11.110
 4887SOL    HW116558   7.253   9.880  11.142
 4887SOL    HW216559   7.138   9.819  11.066
 4888SOL     OW16560   1.628  11.987  10.700
 4888SOL    HW116561   1.601  11.970  10.610
 4888SOL    HW216562   1.549  12.022  10.742
 4889SOL     OW16563   9.787  11.573   8.975
 4889SOL    HW116564   9.723  11.566   9.046
 4889SOL    HW216565   9.862  11.616   9.016
 4890SOL     OW16566   5.115  10.821  10.880
 4890SOL    HW116567   5.068  10.810  10.962
 4890SOL    HW216568   5.165  10.902  10.892
 4891SOL     OW16569   7.221   5.970  10.604
 4891SOL    HW116570   7.260   6.008  10.525
 4891SOL    HW216571   7.279   5.898  10.627
 4892SOL     OW16572   1.655   2.352   1.177
 4892SOL    HW116573   1.581   2.310   1.222
 4892SOL    HW216574   1.685   2.286   1.114
 4893SOL     OW16575  14.714   6.316  14.647
 4893SOL    HW116576  14.621   6.318  14.668
 4893SOL    HW216577  14.758   6.329  14.731
 4894SOL     OW16578  14.843   9.775  10.239
 4894SOL    HW116579   0.001   9.686  10.251
 4894SOL    HW216580  14.767   9.780  10.296
 4895SOL     OW16581  14.275   0.191   6.823
 4895SOL    HW116582  14.194   0.195   6.773
 4895SOL    HW216583  14.343   0.215   6.760
 4896SOL     OW16584  10.867   2.135   8.380
 4896SOL    HW116585  10.781   2.140   8.421
 4896SOL    HW216586  10.849   2.126   8.286
 4897SOL     OW16587   2.910   1.250  13.754
 4897SOL    HW116588   2.914   1.345  13.744
 4897SOL    HW216589   2.826   1.226  13.716
 4898SOL     OW16590  14.345   2.203   5.402
 4898SOL    HW116591  14.350   2.222   5.496
 4898SOL    HW216592  14.435   2.181   5.377
 4899SOL     OW16593   4.446   4.027   7.403
 4899SOL    HW116594   4.442   3.974   7.323
 4899SOL    HW216595   4.500   4.103   7.378
 4900SOL     OW16596  12.772  10.467  13.224
 4900SOL    HW116597  12.779  10.547  13.172
 4900SOL    HW216598  12.682  10.437  13.212
 4901SOL     OW16599  14.499   2.789  12.293
 4901SOL    HW116600  14.506   2.781  12.198
 4901SOL    HW216601  14.545   2.870  12.314
 4902SOL     OW16602   9.030   8.076   9.130
 4902SOL    HW116603   8.965   8.146   9.128
 4902SOL    HW216604   8.983   7.999   9.097
 4903SOL     OW16605   4.401   0.200  14.010
 4903SOL    HW116606   4.378   0.110  13.986
 4903SOL    HW216607   4.350   0.255  13.950
 4904SOL     OW16608   7.011   9.274  10.762
 4904SOL    HW116609   7.070   9.328  10.814
 4904SOL    HW216610   6.941   9.334  10.734
 4905SOL     OW16611  12.766   7.922  12.959
 4905SOL    HW116612  12.730   7.958  12.878
 4905SOL    HW216613  12.749   7.828  12.953
 4906SOL     OW16614   4.868   9.871   7.157
 4906SOL    HW116615   4.811   9.797   7.177
 4906SOL    HW216616   4.957   9.839   7.177
 4907SOL     OW16617   7.109   6.523  14.067
 4907SOL    HW116618   7.131   6.472  14.145
 4907SOL    HW216619   7.113   6.614  14.096
 4908SOL     OW16620   1.982   4.428  14.114
 4908SOL    HW116621   1.928   4.440  14.036
 4908SOL    HW216622   2.068   4.461  14.090
 4909SOL     OW16623   2.853   8.989   0.193
 4909SOL    HW116624   2.851   8.929   0.119
 4909SOL    HW216625   2.886   8.936   0.266
 4910SOL     OW16626  13.975   3.344  11.987
 4910SOL    HW116627  13.986   3.252  11.964
 4910SOL    HW216628  13.984   3.346  12.082
 4911SOL     OW16629   0.167  13.563   6.058
 4911SOL    HW116630   0.104  13.621   6.100
 4911SOL    HW216631   0.119  13.526   5.984
 4912SOL     OW16632  10.204   7.977  13.260
 4912SOL    HW116633  10.287   8.020  13.238
 4912SOL    HW216634  10.215   7.886  13.232
 4913SOL     OW16635   8.072  13.658  14.788
 4913SOL    HW116636   7.989  13.693  14.755
 4913SOL    HW216637   8.053  13.631   0.003
 4914SOL     OW16638  13.583   3.394   7.180
 4914SOL    HW116639  13.582   3.376   7.086
 4914SOL    HW216640  13.658   3.452   7.193
 4915SOL     OW16641   2.032  10.921   8.400
 4915SOL    HW116642   1.966  10.969   8.450
 4915SOL    HW216643   2.089  10.989   8.363
 4916SOL     OW16644   2.213  10.675  10.659
 4916SOL    HW116645   2.292  10.685  10.607
 4916SOL    HW216646   2.195  10.581  10.657
 4917SOL     OW16647   9.685   9.756   1.823
 4917SOL    HW116648   9.730   9.673   1.806
 4917SOL    HW216649   9.725   9.789   1.904
 4918SOL     OW16650  13.220   8.106  13.160
 4918SOL    HW116651  13.204   8.032  13.219
 4918SOL    HW216652  13.174   8.083  13.079
 4919SOL     OW16653  10.424  11.630   5.547
 4919SOL    HW116654  10.495  11.572   5.573
 4919SOL    HW216655  10.346  11.574   5.546
 4920SOL     OW16656   5.168   9.142   8.770
 4920SOL    HW116657   5.234   9.075   8.753
 4920SOL    HW216658   5.203   9.190   8.845
 4921SOL     OW16659  13.901   8.970   8.759
 4921SOL    HW116660  13.929   9.062   8.760
 4921SOL    HW216661  13.806   8.975   8.756
 4922SOL     OW16662   6.146   2.358  12.730
 4922SOL    HW116663   6.179   2.445  12.710
 4922SOL    HW216664   6.156   2.351  12.825
 4923SOL     OW16665   2.560   6.411   6.590
 4923SOL    HW116666   2.493   6.476   6.567
 4923SOL    HW216667   2.573   6.422   6.684
 4924SOL     OW16668   3.351   3.820   2.717
 4924SOL    HW116669   3.311   3.826   2.630
 4924SOL    HW216670   3.292   3.869   2.774
 4925SOL     OW16671  14.714   7.042   8.116
 4925SOL    HW116672  14.684   7.098   8.188
 4925SOL    HW216673  14.667   7.074   8.039
 4926SOL     OW16674  14.326   1.652   7.570
 4926SOL    HW116675  14.298   1.741   7.591
 4926SOL    HW216676  14.355   1.657   7.479
 4927SOL     OW16677   2.174   2.633   3.364
 4927SOL    HW116678   2.180   2.556   3.420
 4927SOL    HW216679   2.129   2.698   3.418
 4928SOL     OW16680  12.844  11.195   6.900
 4928SOL    HW116681  12.869  11.246   6.977
 4928SOL    HW216682  12.888  11.110   6.912
 4929SOL     OW16683   2.567   1.659  12.878
 4929SOL    HW116684   2.496   1.649  12.815
 4929SOL    HW216685   2.523   1.681  12.960
 4930SOL     OW16686   4.038   0.215   9.828
 4930SOL    HW116687   4.025   0.210   9.733
 4930SOL    HW216688   3.965   0.269   9.859
 4931SOL     OW16689   8.978   3.772  12.081
 4931SOL    HW116690   8.998   3.833  12.152
 4931SOL    HW216691   9.061   3.762  12.034
 4932SOL     OW16692   1.098  10.682  14.193
 4932SOL    HW116693   1.142  10.597  14.189
 4932SOL    HW216694   1.153  10.740  14.141
 4933SOL     OW16695   5.169   8.558   4.904
 4933SOL    HW116696   5.195   8.625   4.841
 4933SOL    HW216697   5.118   8.607   4.969
 4934SOL     OW16698   3.402   5.879   0.531
 4934SOL    HW116699   3.307   5.882   0.526
 4934SOL    HW216700   3.431   5.946   0.469
 4935SOL     OW16701  10.686  12.436  11.689
 4935SOL    HW116702  10.614  12.373  11.695
 4935SOL    HW216703  10.677  12.490  11.768
 4936SOL     OW16704  14.538   2.056  11.449
 4936SOL    HW116705  14.462   2.114  11.456
 4936SOL    HW216706  14.613   2.117  11.440
 4937SOL     OW16707  13.166   4.019   1.576
 4937SOL    HW116708  13.093   4.077   1.554
 4937SOL    HW216709  13.232   4.077   1.613
 4938SOL     OW16710   0.807   9.647  12.513
 4938SOL    HW116711   0.777   9.583  12.577
 4938SOL    HW216712   0.883   9.688  12.553
 4939SOL     OW16713   6.754   6.223   7.567
 4939SOL    HW116714   6.797   6.145   7.602
 4939SOL    HW216715   6.785   6.228   7.476
 4940SOL     OW16716   3.326   5.401   0.117
 4940SOL    HW116717   3.402   5.458   0.116
 4940SOL    HW216718   3.361   5.313   0.129
 4941SOL     OW16719   4.868  14.035  13.928
 4941SOL    HW116720   4.799  14.019  13.992
 4941SOL    HW216721   4.850  14.122  13.894
 4942SOL     OW16722   7.418   5.395  13.203
 4942SOL    HW116723   7.377   5.406  13.117
 4942SOL    HW216724   7.356   5.342  13.253
 4943SOL     OW16725  12.230  10.437   8.441
 4943SOL    HW116726  12.220  10.353   8.396
 4943SOL    HW216727  12.285  10.489   8.382
 4944SOL     OW16728   8.789   0.869   5.173
 4944SOL    HW116729   8.859   0.819   5.215
 4944SOL    HW216730   8.718   0.869   5.237
 4945SOL     OW16731   9.335   8.446  12.421
 4945SOL    HW116732   9.337   8.443  12.325
 4945SOL    HW216733   9.405   8.387  12.448
 4946SOL     OW16734   1.840   0.392   0.679
 4946SOL    HW116735   1.851   0.433   0.593
 4946SOL    HW216736   1.804   0.306   0.660
 4947SOL     OW16737   3.969  10.757   8.173
 4947SOL    HW116738   3.995  10.772   8.082
 4947SOL    HW216739   4.051  10.760   8.222
 4948SOL     OW16740  11.367   6.857   4.789
 4948SOL    HW116741  11.304   6.917   4.749
 4948SOL    HW216742  11.365   6.879   4.882
 4949SOL     OW16743  11.809   0.836  13.173
 4949SOL    HW116744  11.846   0.775  13.110
 4949SOL    HW216745  11.800   0.918  13.125
 4950SOL     OW16746   0.916   8.488  14.176
 4950SOL    HW116747   0.849   8.480  14.244
 4950SOL    HW216748   0.996   8.512  14.223
 4951SOL     OW16749   1.540  10.128   2.019
 4951SOL    HW116750   1.623  10.079   2.022
 4951SOL    HW216751   1.561  10.213   2.057
 4952SOL     OW16752   0.842   8.943   5.028
 4952SOL    HW116753   0.858   9.023   4.977
 4952SOL    HW216754   0.751   8.949   5.054
 4953SOL     OW16755   9.380   9.958  10.884
 4953SOL    HW116756   9.418   9.999  10.961
 4953SOL    HW216757   9.450   9.960  10.819
 4954SOL     OW16758   0.312   9.327   3.019
 4954SOL    HW116759   0.358   9.243   3.009
 4954SOL    HW216760   0.300   9.357   2.929
 4955SOL     OW16761   6.410   7.933   6.495
 4955SOL    HW116762   6.445   7.852   6.533
 4955SOL    HW216763   6.481   7.996   6.505
 4956SOL     OW16764   0.652   0.409  13.514
 4956SOL    HW116765   0.594   0.349  13.467
 4956SOL    HW216766   0.596   0.450  13.580
 4957SOL     OW16767   9.733   3.524  11.068
 4957SOL    HW116768   9.690   3.547  11.150
 4957SOL    HW216769   9.735   3.606  11.019
 4958SOL     OW16770  11.870   8.185   4.512
 4958SOL    HW116771  11.874   8.130   4.591
 4958SOL    HW216772  11.822   8.131   4.449
 4959SOL     OW16773  11.598  11.198   9.108
 4959SOL    HW116774  11.512  11.218   9.070
 4959SOL    HW216775  11.650  11.276   9.092
 4960SOL     OW16776  12.354   7.276  14.110
 4960SOL    HW116777  12.388   7.352  14.157
 4960SOL    HW216778  12.328   7.214  14.179
 4961SOL     OW16779   7.222   6.638  12.942
 4961SOL    HW116780   7.223   6.559  12.887
 4961SOL    HW216781   7.130   6.647  12.968
 4962SOL     OW16782   5.462  13.833   4.493
 4962SOL    HW116783   5.386  13.778   4.476
 4962SOL    HW216784   5.534  13.771   4.508
 4963SOL     OW16785  10.132   0.220  14.599
 4963SOL    HW116786  10.192   0.154  14.566
 4963SOL    HW216787  10.151   0.298  14.547
 4964SOL     OW16788   4.252   1.382  12.345
 4964SOL    HW116789   4.285   1.366  12.256
 4964SOL    HW216790   4.317   1.342  12.403
 4965SOL     OW16791   5.548  13.471   5.810
 4965SOL    HW116792   5.466  13.486   5.763
 4965SOL    HW216793   5.580  13.388   5.776
 4966SOL     OW16794  11.824   3.624   1.800
 4966SOL    HW116795  11.801   3.641   1.891
 4966SOL    HW216796  11.895   3.560   1.805
 4967SOL     OW16797   5.877   4.319   7.320
 4967SOL    HW116798   5.866   4.240   7.267
 4967SOL    HW216799   5.917   4.383   7.261
 4968SOL     OW16800  13.103  12.788   8.774
 4968SOL    HW116801  13.128  12.844   8.700
 4968SOL    HW216802  13.158  12.817   8.846
 4969SOL     OW16803   1.579   9.048  12.001
 4969SOL    HW116804   1.628   9.111  12.054
 4969SOL    HW216805   1.643   9.017  11.936
 4970SOL     OW16806  14.530   4.773  13.124
 4970SOL    HW116807  14.542   4.848  13.183
 4970SOL    HW216808  14.547   4.809  13.037
 4971SOL     OW16809  10.443  11.927   3.989
 4971SOL    HW116810  10.516  11.987   3.976
 4971SOL    HW216811  10.376  11.955   3.927
 4972SOL     OW16812  10.071   1.948   2.686
 4972SOL    HW116813  10.057   2.032   2.730
 4972SOL    HW216814   9.983   1.917   2.665
 4973SOL     OW16815   9.479   7.341   6.233
 4973SOL    HW116816   9.517   7.386   6.309
 4973SOL    HW216817   9.393   7.312   6.263
 4974SOL     OW16818   0.266   7.596  11.614
 4974SOL    HW116819   0.217   7.530  11.564
 4974SOL    HW216820   0.228   7.593  11.702
 4975SOL     OW16821  14.274  13.756   7.405
 4975SOL    HW116822  14.195  13.702   7.398
 4975SOL    HW216823  14.270  13.816   7.330
 4976SOL     OW16824   2.203   5.569  10.172
 4976SOL    HW116825   2.154   5.591  10.093
 4976SOL    HW216826   2.207   5.474  10.173
 4977SOL     OW16827  13.490   3.631  14.394
 4977SOL    HW116828  13.526   3.619  14.307
 4977SOL    HW216829  13.536   3.567  14.448
 4978SOL     OW16830  10.292   1.203  13.289
 4978SOL    HW116831  10.363   1.260  13.258
 4978SOL    HW216832  10.212   1.246  13.258
 4979SOL     OW16833  11.898  10.036  12.794
 4979SOL    HW116834  11.860  10.116  12.756
 4979SOL    HW216835  11.827   9.999  12.846
 4980SOL     OW16836   2.299  12.207   5.317
 4980SOL    HW116837   2.393  12.218   5.305
 4980SOL    HW216838   2.260  12.225   5.231
 4981SOL     OW16839  13.063   4.124  12.262
 4981SOL    HW116840  12.981   4.135  12.213
 4981SOL    HW216841  13.038   4.074  12.340
 4982SOL     OW16842  12.615   6.005   2.804
 4982SOL    HW116843  12.644   5.957   2.727
 4982SOL    HW216844  12.519   6.006   2.797
 4983SOL     OW16845  11.259  12.642   8.562
 4983SOL    HW116846  11.341  12.637   8.512
 4983SOL    HW216847  11.191  12.653   8.495
 4984SOL     OW16848  10.450   8.777   3.599
 4984SOL    HW116849  10.399   8.830   3.659
 4984SOL    HW216850  10.483   8.705   3.653
 4985SOL     OW16851   8.471  11.452   9.283
 4985SOL    HW116852   8.483  11.432   9.191
 4985SOL    HW216853   8.529  11.527   9.299
 4986SOL     OW16854  11.808  11.688  11.167
 4986SOL    HW116855  11.801  11.595  11.143
 4986SOL    HW216856  11.723  11.709  11.206
 4987SOL     OW16857   5.837  11.237  11.282
 4987SOL    HW116858   5.898  11.235  11.208
 4987SOL    HW216859   5.778  11.164  11.267
 4988SOL     OW16860  11.548   5.361   9.514
 4988SOL    HW116861  11.466   5.408   9.532
 4988SOL    HW216862  11.560   5.371   9.419
 4989SOL     OW16863   6.412   3.610   3.608
 4989SOL    HW116864   6.472   3.627   3.681
 4989SOL    HW216865   6.435   3.676   3.542
 4990SOL     OW16866  11.032   2.852  13.976
 4990SOL    HW116867  11.026   2.947  13.981
 4990SOL    HW216868  11.002   2.830  13.888
 4991SOL     OW16869   8.870   6.607   5.938
 4991SOL    HW116870   8.858   6.608   6.033
 4991SOL    HW216871   8.805   6.544   5.906
 4992SOL     OW16872   0.185  10.854   3.578
 4992SOL    HW116873   0.186  10.903   3.495
 4992SOL    HW216874   0.134  10.775   3.558
 4993SOL     OW16875   9.063  10.894   2.684
 4993SOL    HW116876   8.985  10.905   2.740
 4993SOL    HW216877   9.125  10.848   2.740
 4994SOL     OW16878  13.664   1.692   8.046
 4994SOL    HW116879  13.744   1.665   8.091
 4994SOL    HW216880  13.689   1.700   7.954
 4995SOL     OW16881   9.991  14.134  13.134
 4995SOL    HW116882   9.903  14.142  13.170
 4995SOL    HW216883   9.983  14.070  13.063
 4996SOL     OW16884  14.437   1.668  12.611
 4996SOL    HW116885  14.512   1.675  12.552
 4996SOL    HW216886  14.361   1.690  12.557
 4997SOL     OW16887   6.070   4.354   6.008
 4997SOL    HW116888   6.114   4.321   5.930
 4997SOL    HW216889   5.983   4.378   5.979
 4998SOL     OW16890   3.327  14.031   7.032
 4998SOL    HW116891   3.402  13.975   7.011
 4998SOL    HW216892   3.262  13.971   7.069
 4999SOL     OW16893   8.920  10.554   1.541
 4999SOL    HW116894   8.861  10.629   1.528
 4999SOL    HW216895   8.948  10.531   1.453
 5000SOL     OW16896   2.735   5.544  13.452
 5000SOL    HW116897   2.757   5.541  13.545
 5000SOL    HW216898   2.819   5.532  13.407
 5001SOL     OW16899   5.032   6.874   0.078
 5001SOL    HW116900   5.070   6.812   0.139
 5001SOL    HW216901   5.057   6.960   0.112
 5002SOL     OW16902   7.372   1.937   6.836
 5002SOL    HW116903   7.367   2.030   6.815
 5002SOL    HW216904   7.451   1.906   6.792
 5003SOL     OW16905   4.078   8.265  10.585
 5003SOL    HW116906   4.088   8.269  10.490
 5003SOL    HW216907   4.121   8.184  10.611
 5004SOL     OW16908   2.128   0.581   8.339
 5004SOL    HW116909   2.135   0.674   8.361
 5004SOL    HW216910   2.049   0.551   8.382
 5005SOL     OW16911   7.990   6.247  11.908
 5005SOL    HW116912   8.001   6.246  11.813
 5005SOL    HW216913   7.950   6.332  11.926
 5006SOL     OW16914   4.101   2.518   5.160
 5006SOL    HW116915   4.034   2.469   5.111
 5006SOL    HW216916   4.067   2.521   5.250
 5007SOL     OW16917   6.468  13.469  11.521
 5007SOL    HW116918   6.500  13.423  11.599
 5007SOL    HW216919   6.392  13.418  11.494
 5008SOL     OW16920   7.539   6.698   1.513
 5008SOL    HW116921   7.487   6.622   1.537
 5008SOL    HW216922   7.573   6.731   1.596
 5009SOL     OW16923   4.942   3.936   6.438
 5009SOL    HW116924   4.948   3.860   6.496
 5009SOL    HW216925   4.949   4.011   6.497
 5010SOL     OW16926   8.224  12.364   5.207
 5010SOL    HW116927   8.258  12.276   5.227
 5010SOL    HW216928   8.238  12.413   5.287
 5011SOL     OW16929   7.199   9.363   8.441
 5011SOL    HW116930   7.214   9.455   8.420
 5011SOL    HW216931   7.271   9.340   8.499
 5012SOL     OW16932   3.614  12.001  11.878
 5012SOL    HW116933   3.697  12.047  11.892
 5012SOL    HW216934   3.547  12.067  11.891
 5013SOL     OW16935   3.440   4.417   5.681
 5013SOL    HW116936   3.467   4.463   5.602
 5013SOL    HW216937   3.378   4.350   5.651
 5014SOL     OW16938   2.635   0.549   4.030
 5014SOL    HW116939   2.555   0.499   4.017
 5014SOL    HW216940   2.620   0.632   3.984
 5015SOL     OW16941   5.838   2.029  11.204
 5015SOL    HW116942   5.906   2.027  11.271
 5015SOL    HW216943   5.797   2.114  11.213
 5016SOL     OW16944   9.361  13.903   4.253
 5016SOL    HW116945   9.442  13.947   4.225
 5016SOL    HW216946   9.389  13.845   4.324
 5017SOL     OW16947   1.485   8.211  10.242
 5017SOL    HW116948   1.552   8.148  10.215
 5017SOL    HW216949   1.533   8.282  10.284
 5018SOL     OW16950   6.451   5.448  10.105
 5018SOL    HW116951   6.517   5.406  10.050
 5018SOL    HW216952   6.498   5.475  10.184
 5019SOL     OW16953   2.179   8.143  14.816
 5019SOL    HW116954   2.162   8.175  14.728
 5019SOL    HW216955   2.274   8.152  14.827
 5020SOL     OW16956   0.783  12.534  14.442
 5020SOL    HW116957   0.755  12.443  14.455
 5020SOL    HW216958   0.751  12.580  14.519
 5021SOL     OW16959  13.519   9.667   5.835
 5021SOL    HW116960  13.470   9.749   5.841
 5021SOL    HW216961  13.562   9.658   5.920
 5022SOL     OW16962   8.425   0.035   0.842
 5022SOL    HW116963   8.364  14.850   0.885
 5022SOL    HW216964   8.370   0.101   0.801
 5023SOL     OW16965   3.196   8.544   7.750
 5023SOL    HW116966   3.274   8.501   7.716
 5023SOL    HW216967   3.219   8.570   7.839
 5024SOL     OW16968  13.075   9.649  11.157
 5024SOL    HW116969  13.109   9.576  11.105
 5024SOL    HW216970  12.995   9.676  11.112
 5025SOL     OW16971  10.287   9.968  11.891
 5025SOL    HW116972  10.362   9.937  11.840
 5025SOL    HW216973  10.308   9.945  11.981
 5026SOL     OW16974   1.418   6.979  10.966
 5026SOL    HW116975   1.454   6.962  10.879
 5026SOL    HW216976   1.426   6.896  11.012
 5027SOL     OW16977   1.804   8.030   5.611
 5027SOL    HW116978   1.849   8.084   5.675
 5027SOL    HW216979   1.834   7.941   5.629
 5028SOL     OW16980   3.024  13.065   3.299
 5028SOL    HW116981   2.977  13.089   3.219
 5028SOL    HW216982   3.113  13.098   3.285
 5029SOL     OW16983  14.205   6.014   0.885
 5029SOL    HW116984  14.111   6.002   0.900
 5029SOL    HW216985  14.211   6.048   0.795
 5030SOL     OW16986  13.060   4.909   2.937
 5030SOL    HW116987  13.106   4.826   2.939
 5030SOL    HW216988  13.102   4.958   2.866
 5031SOL     OW16989   3.213   5.543  13.745
 5031SOL    HW116990   3.181   5.467  13.794
 5031SOL    HW216991   3.177   5.619  13.791
 5032SOL     OW16992   4.182  10.267  11.858
 5032SOL    HW116993   4.159  10.181  11.893
 5032SOL    HW216994   4.150  10.266  11.767
 5033SOL     OW16995   8.231  14.779   0.978
 5033SOL    HW116996   8.152  14.729   0.957
 5033SOL    HW216997   8.218  14.807   1.068
 5034SOL     OW16998  14.825  10.997   2.402
 5034SOL    HW116999  14.870  10.945   2.336
 5034SOL    HW217000   0.019  11.053   2.440
 5035SOL     OW17001   1.971   7.576   5.125
 5035SOL    HW117002   1.966   7.481   5.113
 5035SOL    HW217003   1.918   7.611   5.053
 5036SOL     OW17004   7.554  14.064   3.365
 5036SOL    HW117005   7.523  13.979   3.333
 5036SOL    HW217006   7.648  14.051   3.380
 5037SOL     OW17007   3.058   0.116   2.620
 5037SOL    HW117008   3.132   0.166   2.654
 5037SOL    HW217009   2.996   0.112   2.693
 5038SOL     OW17010   3.147   0.740  14.045
 5038SOL    HW117011   3.226   0.741  14.100
 5038SOL    HW217012   3.074   0.745  14.107
 5039SOL     OW17013   9.201   9.075  13.985
 5039SOL    HW117014   9.284   9.096  14.027
 5039SOL    HW217015   9.217   8.992  13.941
 5040SOL     OW17016   4.103   0.976  11.064
 5040SOL    HW117017   4.139   0.929  10.989
 5040SOL    HW217018   4.015   1.002  11.037
 5041SOL     OW17019   5.224   4.449   8.460
 5041SOL    HW117020   5.309   4.476   8.426
 5041SOL    HW217021   5.242   4.420   8.550
 5042SOL     OW17022   1.606   5.456   3.781
 5042SOL    HW117023   1.673   5.418   3.725
 5042SOL    HW217024   1.637   5.440   3.870
 5043SOL     OW17025   0.396   4.188   4.693
 5043SOL    HW117026   0.329   4.221   4.753
 5043SOL    HW217027   0.479   4.212   4.734
 5044SOL     OW17028   7.849  10.135   5.213
 5044SOL    HW117029   7.828  10.173   5.298
 5044SOL    HW217030   7.883  10.047   5.234
 5045SOL     OW17031  14.245  13.844   5.210
 5045SOL    HW117032  14.284  13.792   5.280
 5045SOL    HW217033  14.159  13.806   5.195
 5046SOL     OW17034  10.200   6.962  14.728
 5046SOL    HW117035  10.159   7.048  14.739
 5046SOL    HW217036  10.287   6.981  14.692
 5047SOL     OW17037  10.242   4.734  11.047
 5047SOL    HW117038  10.300   4.796  11.005
 5047SOL    HW217039  10.299   4.662  11.074
 5048SOL     OW17040   9.860   0.412  14.579
 5048SOL    HW117041   9.841   0.493  14.625
 5048SOL    HW217042   9.807   0.346  14.624
 5049SOL     OW17043  11.432  14.602  14.148
 5049SOL    HW117044  11.344  14.639  14.135
 5049SOL    HW217045  11.491  14.674  14.126
 5050SOL     OW17046   7.714   8.704   4.845
 5050SOL    HW117047   7.777   8.632   4.850
 5050SOL    HW217048   7.750   8.771   4.902
 5051SOL     OW17049   5.701   7.452   0.748
 5051SOL    HW117050   5.611   7.462   0.778
 5051SOL    HW217051   5.712   7.520   0.682
 5052SOL     OW17052   9.477  14.111   0.815
 5052SOL    HW117053   9.505  14.029   0.854
 5052SOL    HW217054   9.473  14.172   0.889
 5053SOL     OW17055   7.335   4.038   2.864
 5053SOL    HW117056   7.386   4.035   2.945
 5053SOL    HW217057   7.289   4.122   2.867
 5054SOL     OW17058   3.875   1.452  10.130
 5054SOL    HW117059   3.850   1.432  10.220
 5054SOL    HW217060   3.834   1.537  10.112
 5055SOL     OW17061   1.137  11.492  14.606
 5055SOL    HW117062   1.109  11.583  14.600
 5055SOL    HW217063   1.195  11.491  14.683
 5056SOL     OW17064   3.549  13.730   7.184
 5056SOL    HW117065   3.550  13.825   7.173
 5056SOL    HW217066   3.611  13.713   7.255
 5057SOL     OW17067   2.823   2.800   7.502
 5057SOL    HW117068   2.913   2.770   7.516
 5057SOL    HW217069   2.826   2.894   7.519
 5058SOL     OW17070  14.704  10.197   3.715
 5058SOL    HW117071  14.625  10.157   3.752
 5058SOL    HW217072  14.768  10.194   3.787
 5059SOL     OW17073  14.568  13.629  10.441
 5059SOL    HW117074  14.591  13.575  10.517
 5059SOL    HW217075  14.588  13.574  10.365
 5060SOL     OW17076   1.361  13.435   2.680
 5060SOL    HW117077   1.448  13.416   2.647
 5060SOL    HW217078   1.303  13.415   2.606
 5061SOL     OW17079   7.991   0.354   7.662
 5061SOL    HW117080   7.955   0.439   7.640
 5061SOL    HW217081   7.997   0.354   7.758
 5062SOL     OW17082  10.037   0.460   8.551
 5062SOL    HW117083   9.996   0.480   8.467
 5062SOL    HW217084  10.027   0.365   8.561
 5063SOL     OW17085  13.968   4.965   7.158
 5063SOL    HW117086  13.944   5.022   7.231
 5063SOL    HW217087  13.886   4.954   7.109
 5064SOL     OW17088   4.648  10.854   8.400
 5064SOL    HW117089   4.587  10.894   8.462
 5064SOL    HW217090   4.600  10.851   8.318
 5065SOL     OW17091   9.461   7.588   5.214
 5065SOL    HW117092   9.456   7.663   5.156
 5065SOL    HW217093   9.551   7.556   5.204
 5066SOL     OW17094   2.248   2.551   1.074
 5066SOL    HW117095   2.184   2.538   1.144
 5066SOL    HW217096   2.222   2.634   1.033
 5067SOL     OW17097  10.438   5.215   8.739
 5067SOL    HW117098  10.373   5.162   8.786
 5067SOL    HW217099  10.406   5.217   8.648
 5068SOL     OW17100  11.201   6.299  13.089
 5068SOL    HW117101  11.197   6.289  12.994
 5068SOL    HW217102  11.290   6.327  13.107
 5069SOL     OW17103   7.685  10.237   4.945
 5069SOL    HW117104   7.656  10.203   4.860
 5069SOL    HW217105   7.774  10.202   4.955
 5070SOL     OW17106   3.848   2.409   4.222
 5070SOL    HW117107   3.904   2.426   4.298
 5070SOL    HW217108   3.834   2.495   4.182
 5071SOL     OW17109  12.140  12.175  11.457
 5071SOL    HW117110  12.090  12.229  11.519
 5071SOL    HW217111  12.082  12.101  11.438
 5072SOL     OW17112   5.781   7.425   5.099
 5072SOL    HW117113   5.685   7.424   5.092
 5072SOL    HW217114   5.801   7.367   5.172
 5073SOL     OW17115   9.205   8.963   8.635
 5073SOL    HW117116   9.233   8.907   8.707
 5073SOL    HW217117   9.263   8.940   8.563
 5074SOL     OW17118   9.526  12.851  14.752
 5074SOL    HW117119   9.447  12.867  14.700
 5074SOL    HW217120   9.578  12.931  14.743
 5075SOL     OW17121   8.853  10.147   8.502
 5075SOL    HW117122   8.936  10.193   8.514
 5075SOL    HW217123   8.878  10.055   8.490
 5076SOL     OW17124   3.115   3.580  10.501
 5076SOL    HW117125   3.062   3.645  10.547
 5076SOL    HW217126   3.057   3.504  10.491
 5077SOL     OW17127  12.883   0.890   4.228
 5077SOL    HW117128  12.834   0.969   4.206
 5077SOL    HW217129  12.975   0.913   4.212
 5078SOL     OW17130   0.069  13.831   3.168
 5078SOL    HW117131   0.094  13.776   3.094
 5078SOL    HW217132   0.152  13.867   3.201
 5079SOL     OW17133  10.054  10.754   0.782
 5079SOL    HW117134  10.078  10.672   0.738
 5079SOL    HW217135  10.100  10.751   0.866
 5080SOL     OW17136   0.229  10.332  10.666
 5080SOL    HW117137   0.254  10.315  10.575
 5080SOL    HW217138   0.159  10.397  10.660
 5081SOL     OW17139   2.286  14.641   5.248
 5081SOL    HW117140   2.264  14.570   5.188
 5081SOL    HW217141   2.224  14.632   5.319
 5082SOL     OW17142   8.901   9.165   2.540
 5082SOL    HW117143   8.916   9.259   2.530
 5082SOL    HW217144   8.988   9.129   2.558
 5083SOL     OW17145   2.605  14.027   1.468
 5083SOL    HW117146   2.512  14.047   1.482
 5083SOL    HW217147   2.617  13.943   1.512
 5084SOL     OW17148   2.012   8.017  10.788
 5084SOL    HW117149   1.963   8.016  10.870
 5084SOL    HW217150   1.964   7.956  10.731
 5085SOL     OW17151   8.292   5.456   5.407
 5085SOL    HW117152   8.385   5.438   5.419
 5085SOL    HW217153   8.252   5.369   5.396
 5086SOL     OW17154  14.083  10.619  11.130
 5086SOL    HW117155  14.028  10.696  11.114
 5086SOL    HW217156  14.073  10.602  11.224
 5087SOL     OW17157   0.956   9.876  14.635
 5087SOL    HW117158   0.876   9.894  14.685
 5087SOL    HW217159   1.009   9.955  14.648
 5088SOL     OW17160  13.095   2.951   9.083
 5088SOL    HW117161  13.164   2.996   9.131
 5088SOL    HW217162  13.128   2.945   8.993
 5089SOL     OW17163  14.228   6.075   4.334
 5089SOL    HW117164  14.170   6.141   4.295
 5089SOL    HW217165  14.174   6.030   4.398
 5090SOL     OW17166  12.492  12.043   0.561
 5090SOL    HW117167  12.554  12.114   0.578
 5090SOL    HW217168  12.547  11.967   0.542
 5091SOL     OW17169   5.020  12.881  12.682
 5091SOL    HW117170   5.003  12.889  12.588
 5091SOL    HW217171   5.115  12.893  12.690
 5092SOL     OW17172  14.387  12.915   6.540
 5092SOL    HW117173  14.327  12.863   6.487
 5092SOL    HW217174  14.378  12.880   6.628
 5093SOL     OW17175   1.417   2.774   8.748
 5093SOL    HW117176   1.469   2.727   8.812
 5093SOL    HW217177   1.482   2.821   8.694
 5094SOL     OW17178   7.411   2.580   7.228
 5094SOL    HW117179   7.323   2.562   7.260
 5094SOL    HW217180   7.452   2.633   7.297
 5095SOL     OW17181   6.745  10.071  14.102
 5095SOL    HW117182   6.815  10.134  14.117
 5095SOL    HW217183   6.761  10.002  14.166
 5096SOL     OW17184   4.860  10.658   2.945
 5096SOL    HW117185   4.882  10.684   3.034
 5096SOL    HW217186   4.907  10.720   2.889
 5097SOL     OW17187  11.388   2.941   5.603
 5097SOL    HW117188  11.340   2.931   5.521
 5097SOL    HW217189  11.371   2.860   5.651
 5098SOL     OW17190  12.808   2.288  10.192
 5098SOL    HW117191  12.830   2.196  10.210
 5098SOL    HW217192  12.806   2.293  10.096
 5099SOL     OW17193  13.897   8.852   8.272
 5099SOL    HW117194  13.834   8.923   8.257
 5099SOL    HW217195  13.982   8.896   8.275
 5100SOL     OW17196   6.274   5.932   8.297
 5100SOL    HW117197   6.269   6.003   8.361
 5100SOL    HW217198   6.293   5.854   8.349
 5101SOL     OW17199   7.250  13.713  11.675
 5101SOL    HW117200   7.162  13.677  11.669
 5101SOL    HW217201   7.284  13.711  11.586
 5102SOL     OW17202   3.706  13.662   3.791
 5102SOL    HW117203   3.682  13.754   3.801
 5102SOL    HW217204   3.797  13.657   3.819
 5103SOL     OW17205  12.893   6.126   7.602
 5103SOL    HW117206  12.820   6.091   7.653
 5103SOL    HW217207  12.929   6.196   7.657
 5104SOL     OW17208   9.879   0.195   9.058
 5104SOL    HW117209   9.888   0.155   9.144
 5104SOL    HW217210   9.875   0.121   8.997
 5105SOL     OW17211  13.791   4.426  10.599
 5105SOL    HW117212  13.882   4.404  10.621
 5105SOL    HW217213  13.793   4.448  10.506
 5106SOL     OW17214  11.877   9.775   2.353
 5106SOL    HW117215  11.798   9.803   2.400
 5106SOL    HW217216  11.859   9.686   2.326
 5107SOL     OW17217   3.621   9.387  12.968
 5107SOL    HW117218   3.595   9.471  12.930
 5107SOL    HW217219   3.596   9.323  12.902
 5108SOL     OW17220   1.260  11.371   9.449
 5108SOL    HW117221   1.201  11.297   9.444
 5108SOL    HW217222   1.210  11.439   9.494
 5109SOL     OW17223  14.321   8.177  10.522
 5109SOL    HW117224  14.397   8.224  10.487
 5109SOL    HW217225  14.246   8.229  10.493
 5110SOL     OW17226  14.494   7.143  12.492
 5110SOL    HW117227  14.568   7.120  12.549
 5110SOL    HW217228  14.443   7.062  12.486
 5111SOL     OW17229   4.319  14.683  12.776
 5111SOL    HW117230   4.227  14.659  12.789
 5111SOL    HW217231   4.347  14.718  12.861
 5112SOL     OW17232   8.038   2.531  10.608
 5112SOL    HW117233   7.994   2.552  10.525
 5112SOL    HW217234   8.008   2.442  10.630
 5113SOL     OW17235  12.572   0.821  10.467
 5113SOL    HW117236  12.497   0.762  10.475
 5113SOL    HW217237  12.588   0.827  10.373
 5114SOL     OW17238   8.850  14.056   9.336
 5114SOL    HW117239   8.929  14.087   9.294
 5114SOL    HW217240   8.874  14.046   9.428
 5115SOL     OW17241   6.490   9.875  14.230
 5115SOL    HW117242   6.405   9.918  14.240
 5115SOL    HW217243   6.550   9.927  14.284
 5116SOL     OW17244  14.770   9.749  13.015
 5116SOL    HW117245  14.832   9.682  12.987
 5116SOL    HW217246  14.776   9.817  12.948
 5117SOL     OW17247   9.669  12.768  12.934
 5117SOL    HW117248   9.755  12.798  12.906
 5117SOL    HW217249   9.642  12.831  13.001
 5118SOL     OW17250  14.082   6.298  12.917
 5118SOL    HW117251  14.168   6.261  12.899
 5118SOL    HW217252  14.022   6.223  12.914
 5119SOL     OW17253   7.046   4.094   1.996
 5119SOL    HW117254   7.068   4.156   1.926
 5119SOL    HW217255   6.950   4.093   1.997
 5120SOL     OW17256  14.053  11.220  12.446
 5120SOL    HW117257  14.009  11.136  12.434
 5120SOL    HW217258  14.052  11.234  12.540
 5121SOL     OW17259  10.527   1.786  10.536
 5121SOL    HW117260  10.445   1.736  10.528
 5121SOL    HW217261  10.545   1.817  10.447
 5122SOL     OW17262   0.431   4.041   2.483
 5122SOL    HW117263   0.362   4.107   2.492
 5122SOL    HW217264   0.464   4.029   2.572
 5123SOL     OW17265  14.751   1.737   0.961
 5123SOL    HW117266  14.788   1.666   1.012
 5123SOL    HW217267  14.684   1.696   0.906
 5124SOL     OW17268  13.551  10.742   6.732
 5124SOL    HW117269  13.523  10.658   6.697
 5124SOL    HW217270  13.582  10.791   6.655
 5125SOL     OW17271   5.963   7.534  10.104
 5125SOL    HW117272   6.045   7.584  10.107
 5125SOL    HW217273   5.990   7.445  10.084
 5126SOL     OW17274   2.808  13.008   1.082
 5126SOL    HW117275   2.855  12.997   0.999
 5126SOL    HW217276   2.737  13.068   1.061
 5127SOL     OW17277  13.289   1.788  14.593
 5127SOL    HW117278  13.201   1.749  14.603
 5127SOL    HW217279  13.290   1.823  14.503
 5128SOL     OW17280  11.322   1.439   8.945
 5128SOL    HW117281  11.272   1.384   8.884
 5128SOL    HW217282  11.272   1.434   9.027
 5129SOL     OW17283   2.890  10.317   3.527
 5129SOL    HW117284   2.880  10.306   3.621
 5129SOL    HW217285   2.984  10.306   3.511
 5130SOL     OW17286  11.116  12.775  12.131
 5130SOL    HW117287  11.168  12.839  12.082
 5130SOL    HW217288  11.145  12.784  12.222
 5131SOL     OW17289   8.487  10.150  13.820
 5131SOL    HW117290   8.442  10.067  13.835
 5131SOL    HW217291   8.569  10.126  13.778
 5132SOL     OW17292   9.045  11.803   2.946
 5132SOL    HW117293   9.084  11.719   2.923
 5132SOL    HW217294   8.957  11.781   2.976
 5133SOL     OW17295   1.027  12.479   8.173
 5133SOL    HW117296   1.063  12.552   8.222
 5133SOL    HW217297   0.966  12.519   8.111
 5134SOL     OW17298   5.294   6.875  10.101
 5134SOL    HW117299   5.233   6.833  10.040
 5134SOL    HW217300   5.379   6.870  10.058
 5135SOL     OW17301   8.918   9.238   1.380
 5135SOL    HW117302   9.004   9.260   1.346
 5135SOL    HW217303   8.931   9.225   1.474
 5136SOL     OW17304   3.211   0.520   2.028
 5136SOL    HW117305   3.207   0.428   2.002
 5136SOL    HW217306   3.120   0.551   2.023
 5137SOL     OW17307   4.507  11.498   7.661
 5137SOL    HW117308   4.555  11.428   7.704
 5137SOL    HW217309   4.447  11.453   7.601
 5138SOL     OW17310  11.423   9.728  12.845
 5138SOL    HW117311  11.330   9.752  12.842
 5138SOL    HW217312  11.441   9.688  12.760
 5139SOL     OW17313   1.212   2.434   9.440
 5139SOL    HW117314   1.120   2.459   9.445
 5139SOL    HW217315   1.211   2.338   9.434
 5140SOL     OW17316  13.051  10.815   1.595
 5140SOL    HW117317  12.998  10.736   1.604
 5140SOL    HW217318  13.082  10.834   1.684
 5141SOL     OW17319   3.963  14.504  13.493
 5141SOL    HW117320   4.003  14.507  13.580
 5141SOL    HW217321   3.911  14.584  13.488
 5142SOL     OW17322  13.884  13.762   8.053
 5142SOL    HW117323  13.963  13.767   7.998
 5142SOL    HW217324  13.832  13.692   8.014
 5143SOL     OW17325   0.119   4.694   1.451
 5143SOL    HW117326   0.133   4.764   1.515
 5143SOL    HW217327   0.043   4.722   1.400
 5144SOL     OW17328  10.136  11.633  14.481
 5144SOL    HW117329  10.208  11.574  14.502
 5144SOL    HW217330  10.178  11.716  14.459
 5145SOL     OW17331   3.481   6.368   5.371
 5145SOL    HW117332   3.418   6.304   5.405
 5145SOL    HW217333   3.475   6.442   5.432
 5146SOL     OW17334   8.452   7.734   6.197
 5146SOL    HW117335   8.485   7.644   6.200
 5146SOL    HW217336   8.434   7.750   6.105
 5147SOL     OW17337   9.755  13.287  10.767
 5147SOL    HW117338   9.830  13.310  10.823
 5147SOL    HW217339   9.697  13.363  10.773
 5148SOL     OW17340   0.198   0.456   7.671
 5148SOL    HW117341   0.252   0.391   7.716
 5148SOL    HW217342   0.125   0.406   7.635
 5149SOL     OW17343   2.398   0.841   8.010
 5149SOL    HW117344   2.336   0.878   8.072
 5149SOL    HW217345   2.379   0.748   8.008
 5150SOL     OW17346   4.654  12.428   5.135
 5150SOL    HW117347   4.600  12.350   5.134
 5150SOL    HW217348   4.646  12.465   5.047
 5151SOL     OW17349   9.826  14.021  11.374
 5151SOL    HW117350   9.885  13.951  11.401
 5151SOL    HW217351   9.826  14.082  11.448
 5152SOL     OW17352   3.875  11.587  11.399
 5152SOL    HW117353   3.940  11.596  11.468
 5152SOL    HW217354   3.821  11.513  11.426
 5153SOL     OW17355   9.291   9.708  14.577
 5153SOL    HW117356   9.272   9.770  14.647
 5153SOL    HW217357   9.252   9.626  14.607
 5154SOL     OW17358   7.646   0.698   7.706
 5154SOL    HW117359   7.670   0.703   7.613
 5154SOL    HW217360   7.563   0.651   7.707
 5155SOL     OW17361   6.616   5.056  11.844
 5155SOL    HW117362   6.691   5.003  11.871
 5155SOL    HW217363   6.557   4.993  11.802
 5156SOL     OW17364   8.324  14.860   0.551
 5156SOL    HW117365   8.287   0.053   0.495
 5156SOL    HW217366   8.419  14.868   0.538
 5157SOL     OW17367  10.021   5.555  12.654
 5157SOL    HW117368  10.095   5.516  12.608
 5157SOL    HW217369   9.966   5.593  12.586
 5158SOL     OW17370   5.216   9.184  13.403
 5158SOL    HW117371   5.235   9.193  13.310
 5158SOL    HW217372   5.125   9.211  13.412
 5159SOL     OW17373   0.700  11.581  12.739
 5159SOL    HW117374   0.770  11.595  12.802
 5159SOL    HW217375   0.740  11.532  12.668
 5160SOL     OW17376   5.252   5.248   0.132
 5160SOL    HW117377   5.179   5.236   0.071
 5160SOL    HW217378   5.232   5.189   0.204
 5161SOL     OW17379   8.352  12.958   0.796
 5161SOL    HW117380   8.426  12.958   0.735
 5161SOL    HW217381   8.337  12.866   0.816
 5162SOL     OW17382  10.764   8.615  11.199
 5162SOL    HW117383  10.731   8.656  11.279
 5162SOL    HW217384  10.859   8.614  11.210
 5163SOL     OW17385   3.428   8.400   7.761
 5163SOL    HW117386   3.518   8.429   7.777
 5163SOL    HW217387   3.400   8.363   7.845
 5164SOL     OW17388  13.195   0.493  12.829
 5164SOL    HW117389  13.276   0.545  12.836
 5164SOL    HW217390  13.182   0.482  12.735
 5165SOL     OW17391   0.501   2.794   5.878
 5165SOL    HW117392   0.595   2.807   5.887
 5165SOL    HW217393   0.492   2.727   5.809
 5166SOL     OW17394   9.669  13.257   1.776
 5166SOL    HW117395   9.628  13.265   1.863
 5166SOL    HW217396   9.649  13.340   1.733
 5167SOL     OW17397  11.764  11.544  14.150
 5167SOL    HW117398  11.837  11.529  14.089
 5167SOL    HW217399  11.795  11.509  14.234
 5168SOL     OW17400   8.266   7.985   8.691
 5168SOL    HW117401   8.237   7.974   8.601
 5168SOL    HW217402   8.196   7.947   8.745
 5169SOL     OW17403   1.530   8.613   9.398
 5169SOL    HW117404   1.507   8.704   9.381
 5169SOL    HW217405   1.473   8.587   9.471
 5170SOL     OW17406  10.370  14.721   7.564
 5170SOL    HW117407  10.394  14.657   7.631
 5170SOL    HW217408  10.382  14.674   7.481
 5171SOL     OW17409  13.776   3.401   3.677
 5171SOL    HW117410  13.704   3.463   3.690
 5171SOL    HW217411  13.813   3.425   3.591
 5172SOL     OW17412   5.404  10.293   3.488
 5172SOL    HW117413   5.373  10.300   3.398
 5172SOL    HW217414   5.460  10.370   3.500
 5173SOL     OW17415  12.872   5.195  12.805
 5173SOL    HW117416  12.877   5.271  12.864
 5173SOL    HW217417  12.871   5.234  12.717
 5174SOL     OW17418  10.016   7.942   2.165
 5174SOL    HW117419  10.018   7.934   2.070
 5174SOL    HW217420  10.104   7.918   2.193
 5175SOL     OW17421   2.579   6.035   2.053
 5175SOL    HW117422   2.544   6.115   2.015
 5175SOL    HW217423   2.520   5.966   2.024
 5176SOL     OW17424   6.821   2.461   8.890
 5176SOL    HW117425   6.891   2.525   8.876
 5176SOL    HW217426   6.744   2.515   8.910
 5177SOL     OW17427   9.667   5.189  13.791
 5177SOL    HW117428   9.668   5.215  13.699
 5177SOL    HW217429   9.600   5.245  13.831
 5178SOL     OW17430   8.197   7.163   7.530
 5178SOL    HW117431   8.197   7.095   7.597
 5178SOL    HW217432   8.245   7.236   7.570
 5179SOL     OW17433   5.939  13.255  11.259
 5179SOL    HW117434   5.895  13.305  11.327
 5179SOL    HW217435   5.872  13.241  11.192
 5180SOL     OW17436   7.308   1.293   5.443
 5180SOL    HW117437   7.227   1.311   5.395
 5180SOL    HW217438   7.377   1.334   5.391
 5181SOL     OW17439   6.353   8.312  14.083
 5181SOL    HW117440   6.377   8.299  14.175
 5181SOL    HW217441   6.315   8.228  14.057
 5182SOL     OW17442   3.102  10.156   6.353
 5182SOL    HW117443   3.117  10.242   6.314
 5182SOL    HW217444   3.172  10.102   6.316
 5183SOL     OW17445  13.910  10.561   0.528
 5183SOL    HW117446  13.901  10.595   0.439
 5183SOL    HW217447  13.830  10.512   0.543
 5184SOL     OW17448   5.020  12.545   8.342
 5184SOL    HW117449   4.996  12.613   8.278
 5184SOL    HW217450   4.948  12.481   8.337
 5185SOL     OW17451  14.114   6.058   2.001
 5185SOL    HW117452  14.027   6.089   2.027
 5185SOL    HW217453  14.097   5.994   1.932
 5186SOL     OW17454   4.592   4.963   7.392
 5186SOL    HW117455   4.592   4.900   7.464
 5186SOL    HW217456   4.684   4.968   7.365
 5187SOL     OW17457   4.667  13.664   2.975
 5187SOL    HW117458   4.612  13.594   2.940
 5187SOL    HW217459   4.742  13.619   3.013
 5188SOL     OW17460   5.880  12.759  12.470
 5188SOL    HW117461   5.875  12.672  12.430
 5188SOL    HW217462   5.960  12.797  12.434
 5189SOL     OW17463  11.607   0.535   2.797
 5189SOL    HW117464  11.671   0.468   2.818
 5189SOL    HW217465  11.584   0.519   2.705
 5190SOL     OW17466  11.303   6.845   2.286
 5190SOL    HW117467  11.327   6.927   2.242
 5190SOL    HW217468  11.341   6.776   2.232
 5191SOL     OW17469   3.483  12.724  12.560
 5191SOL    HW117470   3.513  12.662  12.626
 5191SOL    HW217471   3.523  12.693  12.478
 5192SOL     OW17472   9.399   3.737   1.803
 5192SOL    HW117473   9.440   3.761   1.720
 5192SOL    HW217474   9.465   3.683   1.847
 5193SOL     OW17475  12.594  12.858   6.953
 5193SOL    HW117476  12.509  12.835   6.988
 5193SOL    HW217477  12.621  12.935   7.003
 5194SOL     OW17478   7.644  11.691   8.714
 5194SOL    HW117479   7.701  11.666   8.642
 5194SOL    HW217480   7.582  11.753   8.675
 5195SOL     OW17481  13.933  11.320   3.844
 5195SOL    HW117482  13.869  11.390   3.841
 5195SOL    HW217483  13.900  11.254   3.782
 5196SOL     OW17484   2.394  12.052  12.946
 5196SOL    HW117485   2.472  11.998  12.939
 5196SOL    HW217486   2.368  12.069  12.856
 5197SOL     OW17487   1.898   0.512  13.757
 5197SOL    HW117488   1.969   0.480  13.812
 5197SOL    HW217489   1.909   0.607  13.758
 5198SOL     OW17490   4.989  11.087  12.161
 5198SOL    HW117491   5.038  11.161  12.124
 5198SOL    HW217492   4.900  11.122  12.173
 5199SOL     OW17493   8.237  12.182  10.624
 5199SOL    HW117494   8.215  12.197  10.532
 5199SOL    HW217495   8.332  12.191  10.628
 5200SOL     OW17496   1.088   3.410  13.988
 5200SOL    HW117497   1.084   3.317  14.012
 5200SOL    HW217498   1.146   3.449  14.053
 5201SOL     OW17499   6.317  13.942  10.504
 5201SOL    HW117500   6.311  13.938  10.599
 5201SOL    HW217501   6.404  13.906  10.483
 5202SOL     OW17502   1.654   0.677   1.157
 5202SOL    HW117503   1.692   0.649   1.240
 5202SOL    HW217504   1.694   0.620   1.092
 5203SOL     OW17505   7.551   4.033   9.046
 5203SOL    HW117506   7.569   3.966   9.112
 5203SOL    HW217507   7.635   4.045   9.000
 5204SOL     OW17508   3.449   9.713   4.286
 5204SOL    HW117509   3.409   9.800   4.285
 5204SOL    HW217510   3.383   9.656   4.249
 5205SOL     OW17511  11.490   3.292   8.043
 5205SOL    HW117512  11.431   3.314   7.970
 5205SOL    HW217513  11.459   3.207   8.073
 5206SOL     OW17514   2.899   0.012   2.428
 5206SOL    HW117515   2.826  14.857   2.482
 5206SOL    HW217516   2.960   0.053   2.489
 5207SOL     OW17517  12.205   0.633   7.466
 5207SOL    HW117518  12.230   0.589   7.547
 5207SOL    HW217519  12.137   0.695   7.492
 5208SOL     OW17520   5.910   0.553   0.162
 5208SOL    HW117521   5.866   0.470   0.143
 5208SOL    HW217522   5.968   0.567   0.087
 5209SOL     OW17523   3.324   3.192   8.030
 5209SOL    HW117524   3.270   3.271   8.026
 5209SOL    HW217525   3.286   3.134   7.964
 5210SOL     OW17526   0.907   5.320  12.447
 5210SOL    HW117527   0.828   5.340  12.398
 5210SOL    HW217528   0.880   5.325  12.539
 5211SOL     OW17529   3.498   7.077   9.243
 5211SOL    HW117530   3.556   7.119   9.307
 5211SOL    HW217531   3.555   7.016   9.195
 5212SOL     OW17532   7.433   0.745   6.383
 5212SOL    HW117533   7.360   0.744   6.445
 5212SOL    HW217534   7.465   0.836   6.385
 5213SOL     OW17535   3.762   0.489   1.052
 5213SOL    HW117536   3.682   0.440   1.069
 5213SOL    HW217537   3.733   0.578   1.033
 5214SOL     OW17538   7.990  13.143  11.411
 5214SOL    HW117539   8.040  13.128  11.491
 5214SOL    HW217540   7.913  13.086  11.419
 5215SOL     OW17541   5.219   7.308   5.330
 5215SOL    HW117542   5.281   7.283   5.263
 5215SOL    HW217543   5.133   7.295   5.290
 5216SOL     OW17544   6.690   9.037  10.585
 5216SOL    HW117545   6.650   8.984  10.516
 5216SOL    HW217546   6.657   9.126  10.569
 5217SOL     OW17547   1.927   7.625  11.882
 5217SOL    HW117548   2.010   7.657  11.845
 5217SOL    HW217549   1.861   7.687  11.851
 5218SOL     OW17550   2.410   9.670   5.392
 5218SOL    HW117551   2.334   9.635   5.345
 5218SOL    HW217552   2.375   9.742   5.444
 5219SOL     OW17553  11.302   7.568   1.895
 5219SOL    HW117554  11.303   7.637   1.962
 5219SOL    HW217555  11.289   7.616   1.812
 5220SOL     OW17556   9.594   8.564  10.707
 5220SOL    HW117557   9.668   8.616  10.738
 5220SOL    HW217558   9.569   8.510  10.782
 5221SOL     OW17559   0.798   1.353   3.453
 5221SOL    HW117560   0.828   1.403   3.377
 5221SOL    HW217561   0.875   1.306   3.484
 5222SOL     OW17562  11.290  12.230   8.599
 5222SOL    HW117563  11.352  12.299   8.622
 5222SOL    HW217564  11.298  12.166   8.670
 5223SOL     OW17565   8.941  13.033   1.282
 5223SOL    HW117566   8.925  13.070   1.369
 5223SOL    HW217567   8.869  12.972   1.268
 5224SOL     OW17568  10.389  11.407   1.239
 5224SOL    HW117569  10.300  11.420   1.270
 5224SOL    HW217570  10.396  11.313   1.225
 5225SOL     OW17571   6.934   2.055  11.871
 5225SOL    HW117572   6.843   2.062  11.843
 5225SOL    HW217573   6.933   1.988  11.939
 5226SOL     OW17574  13.624   7.979   2.001
 5226SOL    HW117575  13.657   7.902   1.954
 5226SOL    HW217576  13.548   8.007   1.950
 5227SOL     OW17577  13.586   3.677   5.123
 5227SOL    HW117578  13.670   3.715   5.147
 5227SOL    HW217579  13.557   3.631   5.202
 5228SOL     OW17580   6.115   0.937  12.441
 5228SOL    HW117581   6.177   0.952  12.370
 5228SOL    HW217582   6.086   1.025  12.466
 5229SOL     OW17583  11.686   6.975  13.520
 5229SOL    HW117584  11.602   6.931  13.536
 5229SOL    HW217585  11.662   7.063  13.491
 5230SOL     OW17586   0.690   7.246   8.951
 5230SOL    HW117587   0.691   7.219   9.043
 5230SOL    HW217588   0.639   7.179   8.907
 5231SOL     OW17589   2.303  10.397  11.093
 5231SOL    HW117590   2.223  10.362  11.132
 5231SOL    HW217591   2.369  10.329  11.107
 5232SOL     OW17592   9.361  14.705   6.816
 5232SOL    HW117593   9.320  14.777   6.865
 5232SOL    HW217594   9.440  14.684   6.865
 5233SOL     OW17595   0.569   7.521  12.236
 5233SOL    HW117596   0.653   7.483  12.209
 5233SOL    HW217597   0.565   7.605  12.191
 5234SOL     OW17598   7.662   0.120  13.504
 5234SOL    HW117599   7.593   0.179  13.533
 5234SOL    HW217600   7.712   0.171  13.440
 5235SOL     OW17601   7.725   0.776  14.299
 5235SOL    HW117602   7.732   0.814  14.212
 5235SOL    HW217603   7.649   0.819  14.339
 5236SOL     OW17604   1.876   3.787  12.492
 5236SOL    HW117605   1.782   3.802  12.482
 5236SOL    HW217606   1.898   3.825  12.577
 5237SOL     OW17607  12.250   2.288   2.602
 5237SOL    HW117608  12.201   2.208   2.581
 5237SOL    HW217609  12.308   2.301   2.527
 5238SOL     OW17610   9.426   5.842   6.645
 5238SOL    HW117611   9.496   5.789   6.682
 5238SOL    HW217612   9.422   5.919   6.702
 5239SOL     OW17613   9.432  10.882  10.951
 5239SOL    HW117614   9.355  10.878  10.895
 5239SOL    HW217615   9.416  10.816  11.019
 5240SOL     OW17616  11.778   4.048  10.779
 5240SOL    HW117617  11.803   4.094  10.699
 5240SOL    HW217618  11.817   4.100  10.850
 5241SOL     OW17619   3.002  12.666  12.554
 5241SOL    HW117620   3.083  12.663  12.604
 5241SOL    HW217621   2.956  12.744  12.585
 5242SOL     OW17622  10.892  11.810   5.064
 5242SOL    HW117623  10.857  11.748   5.128
 5242SOL    HW217624  10.884  11.895   5.107
 5243SOL     OW17625   7.935  12.080   6.115
 5243SOL    HW117626   8.014  12.101   6.065
 5243SOL    HW217627   7.865  12.079   6.050
 5244SOL     OW17628   7.979   4.019   5.125
 5244SOL    HW117629   7.910   4.039   5.062
 5244SOL    HW217630   7.967   3.926   5.145
 5245SOL     OW17631   6.443   1.428   1.076
 5245SOL    HW117632   6.497   1.481   1.017
 5245SOL    HW217633   6.364   1.409   1.026
 5246SOL     OW17634   5.524   5.915   9.743
 5246SOL    HW117635   5.486   6.002   9.755
 5246SOL    HW217636   5.615   5.931   9.721
 5247SOL     OW17637   7.726  14.301   7.964
 5247SOL    HW117638   7.712  14.211   7.935
 5247SOL    HW217639   7.820  14.307   7.981
 5248SOL     OW17640   5.888  12.914   8.953
 5248SOL    HW117641   5.877  13.008   8.934
 5248SOL    HW217642   5.976  12.907   8.989
 5249SOL     OW17643   8.440  13.730   1.370
 5249SOL    HW117644   8.374  13.774   1.316
 5249SOL    HW217645   8.473  13.660   1.314
 5250SOL     OW17646   2.032   3.199   8.096
 5250SOL    HW117647   2.084   3.123   8.068
 5250SOL    HW217648   2.083   3.237   8.168
 5251SOL     OW17649   1.235   5.051   6.241
 5251SOL    HW117650   1.168   5.115   6.266
 5251SOL    HW217651   1.316   5.101   6.240
 5252SOL     OW17652   0.784  11.783  14.260
 5252SOL    HW117653   0.788  11.839  14.182
 5252SOL    HW217654   0.871  11.743  14.265
 5253SOL     OW17655   8.199   1.193   7.662
 5253SOL    HW117656   8.221   1.281   7.692
 5253SOL    HW217657   8.275   1.164   7.612
 5254SOL     OW17658   7.632  11.080  14.184
 5254SOL    HW117659   7.704  11.083  14.120
 5254SOL    HW217660   7.578  11.006  14.156
 5255SOL     OW17661   6.711  14.131   5.293
 5255SOL    HW117662   6.748  14.077   5.224
 5255SOL    HW217663   6.691  14.070   5.364
 5256SOL     OW17664  12.773  11.529   4.170
 5256SOL    HW117665  12.811  11.517   4.083
 5256SOL    HW217666  12.737  11.618   4.168
 5257SOL     OW17667  12.540   3.111  14.374
 5257SOL    HW117668  12.519   3.101  14.467
 5257SOL    HW217669  12.633   3.088  14.368
 5258SOL     OW17670   7.127  12.696   9.634
 5258SOL    HW117671   7.032  12.701   9.645
 5258SOL    HW217672   7.149  12.770   9.577
 5259SOL     OW17673   7.705   9.342   2.493
 5259SOL    HW117674   7.716   9.257   2.452
 5259SOL    HW217675   7.762   9.339   2.570
 5260SOL     OW17676   7.815   4.646   5.981
 5260SOL    HW117677   7.720   4.655   5.986
 5260SOL    HW217678   7.831   4.552   5.992
 5261SOL     OW17679   2.698   7.972  12.818
 5261SOL    HW117680   2.709   7.882  12.789
 5261SOL    HW217681   2.701   7.967  12.914
 5262SOL     OW17682   5.777   6.566   7.431
 5262SOL    HW117683   5.839   6.572   7.504
 5262SOL    HW217684   5.832   6.544   7.355
 5263SOL     OW17685   9.548   6.223   3.727
 5263SOL    HW117686   9.505   6.305   3.706
 5263SOL    HW217687   9.590   6.196   3.644
 5264SOL     OW17688   9.336  10.142   1.992
 5264SOL    HW117689   9.421  10.153   1.949
 5264SOL    HW217690   9.272  10.156   1.922
 5265SOL     OW17691   4.000   7.598  11.619
 5265SOL    HW117692   4.076   7.649  11.591
 5265SOL    HW217693   4.036   7.512  11.642
 5266SOL     OW17694  12.456   7.456   8.153
 5266SOL    HW117695  12.518   7.492   8.217
 5266SOL    HW217696  12.476   7.363   8.150
 5267SOL     OW17697  12.021   6.144   7.936
 5267SOL    HW117698  11.951   6.149   7.872
 5267SOL    HW217699  11.994   6.202   8.007
 5268SOL     OW17700  12.630   9.228   9.016
 5268SOL    HW117701  12.584   9.301   8.975
 5268SOL    HW217702  12.650   9.259   9.104
 5269SOL     OW17703   9.962   8.958  10.347
 5269SOL    HW117704   9.928   8.887  10.293
 5269SOL    HW217705  10.033   8.918  10.397
 5270SOL     OW17706  12.456   6.085   0.199
 5270SOL    HW117707  12.422   6.135   0.273
 5270SOL    HW217708  12.448   5.993   0.227
 5271SOL     OW17709   7.100  10.193   5.273
 5271SOL    HW117710   7.170  10.249   5.307
 5271SOL    HW217711   7.123  10.105   5.302
 5272SOL     OW17712   0.924  12.201  11.471
 5272SOL    HW117713   0.935  12.120  11.421
 5272SOL    HW217714   0.977  12.265  11.423
 5273SOL     OW17715   1.638   3.496   7.615
 5273SOL    HW117716   1.634   3.589   7.640
 5273SOL    HW217717   1.709   3.491   7.551
 5274SOL     OW17718   9.606   4.312   8.092
 5274SOL    HW117719   9.677   4.368   8.061
 5274SOL    HW217720   9.611   4.318   8.188
 5275SOL     OW17721   8.012   9.628   0.951
 5275SOL    HW117722   8.068   9.643   1.027
 5275SOL    HW217723   7.931   9.675   0.971
 5276SOL     OW17724  12.632  10.434   1.401
 5276SOL    HW117725  12.629  10.424   1.306
 5276SOL    HW217726  12.588  10.517   1.418
 5277SOL     OW17727   4.665   3.459   6.077
 5277SOL    HW117728   4.750   3.501   6.089
 5277SOL    HW217729   4.608   3.503   6.140
 5278SOL     OW17730   5.298  12.804   0.740
 5278SOL    HW117731   5.244  12.820   0.662
 5278SOL    HW217732   5.326  12.891   0.767
 5279SOL     OW17733   2.667   8.821  10.916
 5279SOL    HW117734   2.671   8.840  11.009
 5279SOL    HW217735   2.629   8.900  10.877
 5280SOL     OW17736   8.364  10.030  10.466
 5280SOL    HW117737   8.410  10.096  10.517
 5280SOL    HW217738   8.286  10.075  10.433
 5281SOL     OW17739   3.614   9.336  14.761
 5281SOL    HW117740   3.616   9.422  14.719
 5281SOL    HW217741   3.701   9.326  14.800
 5282SOL     OW17742   1.182  13.003   9.477
 5282SOL    HW117743   1.269  12.985   9.513
 5282SOL    HW217744   1.156  13.086   9.517
 5283SOL     OW17745  11.673   2.079  13.962
 5283SOL    HW117746  11.765   2.057  13.980
 5283SOL    HW217747  11.645   2.014  13.897
 5284SOL     OW17748   6.092  13.871   7.091
 5284SOL    HW117749   6.051  13.869   7.005
 5284SOL    HW217750   6.095  13.963   7.115
 5285SOL     OW17751   8.354   7.815   7.454
 5285SOL    HW117752   8.418   7.812   7.383
 5285SOL    HW217753   8.354   7.726   7.491
 5286SOL     OW17754   4.024   3.984   0.738
 5286SOL    HW117755   4.077   3.907   0.720
 5286SOL    HW217756   3.936   3.949   0.751
 5287SOL     OW17757   6.102  11.269   9.070
 5287SOL    HW117758   6.111  11.364   9.059
 5287SOL    HW217759   6.075  11.258   9.162
 5288SOL     OW17760  14.698   8.631  14.478
 5288SOL    HW117761  14.756   8.590  14.542
 5288SOL    HW217762  14.739   8.613  14.394
 5289SOL     OW17763   3.113  13.317  11.947
 5289SOL    HW117764   3.050  13.389  11.943
 5289SOL    HW217765   3.194  13.355  11.911
 5290SOL     OW17766   6.224  12.549  12.632
 5290SOL    HW117767   6.264  12.570  12.548
 5290SOL    HW217768   6.219  12.633  12.678
 5291SOL     OW17769   8.325  11.943   8.957
 5291SOL    HW117770   8.377  11.881   8.908
 5291SOL    HW217771   8.250  11.892   8.990
 5292SOL     OW17772   3.191   9.872   8.642
 5292SOL    HW117773   3.204   9.777   8.648
 5292SOL    HW217774   3.115   9.882   8.584
 5293SOL     OW17775   1.412   9.611   2.846
 5293SOL    HW117776   1.374   9.690   2.809
 5293SOL    HW217777   1.474   9.580   2.780
 5294SOL     OW17778   3.082   0.161   5.320
 5294SOL    HW117779   3.117   0.082   5.360
 5294SOL    HW217780   3.142   0.180   5.248
 5295SOL     OW17781  13.133  13.715  12.451
 5295SOL    HW117782  13.110  13.669  12.531
 5295SOL    HW217783  13.229  13.714  12.450
 5296SOL     OW17784   6.495   7.997   7.087
 5296SOL    HW117785   6.538   8.069   7.132
 5296SOL    HW217786   6.563   7.930   7.078
 5297SOL     OW17787   4.177   3.692   9.830
 5297SOL    HW117788   4.144   3.620   9.883
 5297SOL    HW217789   4.109   3.706   9.763
 5298SOL     OW17790   8.378  12.895  12.365
 5298SOL    HW117791   8.356  12.855  12.449
 5298SOL    HW217792   8.467  12.866  12.347
 5299SOL     OW17793  13.821   1.678   1.556
 5299SOL    HW117794  13.901   1.656   1.605
 5299SOL    HW217795  13.750   1.667   1.620
 5300SOL     OW17796   0.102   3.491   0.491
 5300SOL    HW117797   0.168   3.530   0.548
 5300SOL    HW217798   0.115   3.396   0.500
 5301SOL     OW17799  10.638   5.196  11.200
 5301SOL    HW117800  10.704   5.128  11.217
 5301SOL    HW217801  10.622   5.237  11.285
 5302SOL     OW17802  11.588   4.003   0.409
 5302SOL    HW117803  11.640   3.985   0.331
 5302SOL    HW217804  11.615   3.937   0.472
 5303SOL     OW17805  10.773  10.679   5.474
 5303SOL    HW117806  10.857  10.634   5.467
 5303SOL    HW217807  10.794  10.771   5.461
 5304SOL     OW17808   3.963  11.417  11.062
 5304SOL    HW117809   4.018  11.346  11.030
 5304SOL    HW217810   3.881  11.407  11.013
 5305SOL     OW17811  13.323   1.139   4.914
 5305SOL    HW117812  13.359   1.225   4.894
 5305SOL    HW217813  13.399   1.082   4.920
 5306SOL     OW17814  14.379   0.003   1.450
 5306SOL    HW117815  14.291   0.031   1.474
 5306SOL    HW217816  14.422  14.860   1.533
 5307SOL     OW17817   7.253  12.456   0.252
 5307SOL    HW117818   7.254  12.385   0.188
 5307SOL    HW217819   7.216  12.416   0.331
 5308SOL     OW17820   1.022   5.696  10.880
 5308SOL    HW117821   1.015   5.653  10.965
 5308SOL    HW217822   1.114   5.720  10.873
 5309SOL     OW17823   6.848   3.790  10.040
 5309SOL    HW117824   6.848   3.885  10.031
 5309SOL    HW217825   6.782   3.772  10.106
 5310SOL     OW17826   0.375  14.436   1.341
 5310SOL    HW117827   0.279  14.434   1.339
 5310SOL    HW217828   0.396  14.512   1.396
 5311SOL     OW17829   4.603   2.376   5.224
 5311SOL    HW117830   4.579   2.334   5.307
 5311SOL    HW217831   4.520   2.407   5.187
 5312SOL     OW17832  13.797   4.471   8.704
 5312SOL    HW117833  13.888   4.497   8.690
 5312SOL    HW217834  13.790   4.459   8.799
 5313SOL     OW17835   3.516   9.776   6.997
 5313SOL    HW117836   3.430   9.816   6.985
 5313SOL    HW217837   3.498   9.691   7.036
 5314SOL     OW17838   0.308   7.412   3.286
 5314SOL    HW117839   0.379   7.366   3.329
 5314SOL    HW217840   0.349   7.490   3.248
 5315SOL     OW17841   7.916   0.234   2.730
 5315SOL    HW117842   7.944   0.301   2.792
 5315SOL    HW217843   7.870   0.169   2.784
 5316SOL     OW17844   6.956  12.662   7.709
 5316SOL    HW117845   6.955  12.752   7.742
 5316SOL    HW217846   6.912  12.666   7.625
 5317SOL     OW17847   3.163  10.537   2.331
 5317SOL    HW117848   3.118  10.534   2.246
 5317SOL    HW217849   3.134  10.619   2.370
 5318SOL     OW17850  14.766   7.806  13.181
 5318SOL    HW117851  14.779   7.867  13.108
 5318SOL    HW217852  14.683   7.762  13.161
 5319SOL     OW17853   2.951  11.750   1.875
 5319SOL    HW117854   2.984  11.662   1.895
 5319SOL    HW217855   3.022  11.792   1.827
 5320SOL     OW17856   5.333  13.843   9.987
 5320SOL    HW117857   5.398  13.830  10.056
 5320SOL    HW217858   5.281  13.763   9.987
 5321SOL     OW17859   1.855   2.393   7.114
 5321SOL    HW117860   1.830   2.477   7.077
 5321SOL    HW217861   1.903   2.349   7.044
 5322SOL     OW17862  12.197   3.259  14.174
 5322SOL    HW117863  12.122   3.207  14.146
 5322SOL    HW217864  12.217   3.228  14.262
 5323SOL     OW17865  11.849   0.253  11.461
 5323SOL    HW117866  11.773   0.204  11.492
 5323SOL    HW217867  11.831   0.269  11.368
 5324SOL     OW17868   0.940  10.623  13.129
 5324SOL    HW117869   0.988  10.632  13.046
 5324SOL    HW217870   1.005  10.592  13.191
 5325SOL     OW17871   0.717  10.691   6.790
 5325SOL    HW117872   0.669  10.608   6.794
 5325SOL    HW217873   0.785  10.675   6.725
 5326SOL     OW17874  13.484   0.067   8.360
 5326SOL    HW117875  13.446   0.073   8.272
 5326SOL    HW217876  13.422   0.016   8.410
 5327SOL     OW17877   4.337   5.196   4.879
 5327SOL    HW117878   4.341   5.103   4.857
 5327SOL    HW217879   4.422   5.232   4.851
 5328SOL     OW17880   8.157   0.366   5.408
 5328SOL    HW117881   8.128   0.450   5.445
 5328SOL    HW217882   8.087   0.342   5.347
 5329SOL     OW17883   9.995  10.745  13.923
 5329SOL    HW117884   9.912  10.700  13.934
 5329SOL    HW217885  10.055  10.700  13.982
 5330SOL     OW17886   9.517  13.733   3.275
 5330SOL    HW117887   9.485  13.765   3.190
 5330SOL    HW217888   9.452  13.763   3.338
 5331SOL     OW17889  11.527   6.339  11.794
 5331SOL    HW117890  11.470   6.263  11.801
 5331SOL    HW217891  11.476   6.411  11.829
 5332SOL     OW17892  10.667  14.099   5.142
 5332SOL    HW117893  10.643  14.128   5.230
 5332SOL    HW217894  10.712  14.016   5.156
 5333SOL     OW17895   8.731   0.472  11.279
 5333SOL    HW117896   8.652   0.494  11.329
 5333SOL    HW217897   8.745   0.379  11.298
 5334SOL     OW17898   6.643   2.334  11.860
 5334SOL    HW117899   6.662   2.242  11.845
 5334SOL    HW217900   6.571   2.355  11.800
 5335SOL     OW17901  13.807  14.296  10.506
 5335SOL    HW117902  13.876  14.352  10.469
 5335SOL    HW217903  13.833  14.284  10.597
 5336SOL     OW17904  13.976   9.918  14.621
 5336SOL    HW117905  13.970   9.858  14.547
 5336SOL    HW217906  13.972   9.862  14.698
 5337SOL     OW17907  10.583   6.615   2.151
 5337SOL    HW117908  10.661   6.656   2.187
 5337SOL    HW217909  10.560   6.547   2.215
 5338SOL     OW17910  14.042   2.556  12.290
 5338SOL    HW117911  14.119   2.606  12.314
 5338SOL    HW217912  13.984   2.619  12.247
 5339SOL     OW17913   9.482   8.073   1.446
 5339SOL    HW117914   9.460   8.165   1.461
 5339SOL    HW217915   9.411   8.024   1.488
 5340SOL     OW17916   5.200   4.900  10.628
 5340SOL    HW117917   5.285   4.892  10.584
 5340SOL    HW217918   5.146   4.951  10.567
 5341SOL     OW17919   7.357   0.153  11.224
 5341SOL    HW117920   7.388   0.242  11.242
 5341SOL    HW217921   7.355   0.111  11.310
 5342SOL     OW17922   5.210  13.074   7.403
 5342SOL    HW117923   5.122  13.042   7.421
 5342SOL    HW217924   5.208  13.165   7.432
 5343SOL     OW17925  10.234   0.674   9.892
 5343SOL    HW117926  10.148   0.708   9.917
 5343SOL    HW217927  10.217   0.585   9.861
 5344SOL     OW17928   0.525   7.515   1.045
 5344SOL    HW117929   0.532   7.605   1.012
 5344SOL    HW217930   0.432   7.494   1.038
 5345SOL     OW17931   6.525   0.639   5.096
 5345SOL    HW117932   6.602   0.662   5.043
 5345SOL    HW217933   6.492   0.722   5.128
 5346SOL     OW17934   1.090   2.957   3.689
 5346SOL    HW117935   1.077   2.874   3.735
 5346SOL    HW217936   1.178   2.950   3.651
 5347SOL     OW17937   1.743  11.735   2.329
 5347SOL    HW117938   1.724  11.669   2.262
 5347SOL    HW217939   1.736  11.819   2.283
 5348SOL     OW17940  14.730   5.496  11.215
 5348SOL    HW117941  14.710   5.475  11.124
 5348SOL    HW217942  14.699   5.420  11.264
 5349SOL     OW17943  13.520   6.194   1.803
 5349SOL    HW117944  13.581   6.258   1.839
 5349SOL    HW217945  13.575   6.133   1.754
 5350SOL     OW17946   3.616   4.383   3.600
 5350SOL    HW117947   3.645   4.400   3.510
 5350SOL    HW217948   3.682   4.323   3.635
 5351SOL     OW17949   3.804   9.958   5.404
 5351SOL    HW117950   3.791   9.901   5.328
 5351SOL    HW217951   3.882  10.010   5.382
 5352SOL     OW17952   0.244   8.805   4.014
 5352SOL    HW117953   0.232   8.850   3.930
 5352SOL    HW217954   0.303   8.733   3.994
 5353SOL     OW17955  11.500  10.875   6.731
 5353SOL    HW117956  11.475  10.950   6.677
 5353SOL    HW217957  11.583  10.902   6.771
 5354SOL     OW17958   7.012  13.346  11.506
 5354SOL    HW117959   6.937  13.290  11.488
 5354SOL    HW217960   7.087  13.297  11.472
 5355SOL     OW17961  10.717  13.393   3.418
 5355SOL    HW117962  10.760  13.467   3.376
 5355SOL    HW217963  10.624  13.405   3.399
 5356SOL     OW17964   4.043  10.989  11.825
 5356SOL    HW117965   4.005  10.985  11.737
 5356SOL    HW217966   4.136  10.968  11.811
 5357SOL     OW17967   6.537  10.635   3.608
 5357SOL    HW117968   6.510  10.575   3.677
 5357SOL    HW217969   6.585  10.580   3.546
 5358SOL     OW17970   0.898   4.203  10.806
 5358SOL    HW117971   0.954   4.144  10.756
 5358SOL    HW217972   0.950   4.228  10.882
 5359SOL     OW17973   4.556   4.839  11.195
 5359SOL    HW117974   4.554   4.820  11.101
 5359SOL    HW217975   4.496   4.913  11.205
 5360SOL     OW17976   1.129   7.409   5.863
 5360SOL    HW117977   1.055   7.467   5.846
 5360SOL    HW217978   1.167   7.441   5.945
 5361SOL     OW17979   6.056  13.992  11.079
 5361SOL    HW117980   6.107  13.947  11.146
 5361SOL    HW217981   6.020  13.921  11.024
 5362SOL     OW17982   7.290  11.841  13.448
 5362SOL    HW117983   7.351  11.898  13.493
 5362SOL    HW217984   7.325  11.753  13.462
 5363SOL     OW17985   1.988   1.202  12.759
 5363SOL    HW117986   2.025   1.288  12.740
 5363SOL    HW217987   1.894   1.214  12.751
 5364SOL     OW17988   9.616   1.884  12.374
 5364SOL    HW117989   9.623   1.902  12.280
 5364SOL    HW217990   9.578   1.796  12.378
 5365SOL     OW17991   5.355   0.231   7.026
 5365SOL    HW117992   5.402   0.234   6.943
 5365SOL    HW217993   5.264   0.213   7.002
 5366SOL     OW17994   1.670  13.537   8.394
 5366SOL    HW117995   1.707  13.448   8.396
 5366SOL    HW217996   1.693  13.574   8.480
 5367SOL     OW17997   6.434  12.845   0.510
 5367SOL    HW117998   6.452  12.866   0.419
 5367SOL    HW217999   6.516  12.861   0.557
 5368SOL     OW18000  13.330   4.505  10.974
 5368SOL    HW118001  13.418   4.467  10.974
 5368SOL    HW218002  13.325   4.555  10.893
 5369SOL     OW18003   2.333  13.150   0.115
 5369SOL    HW118004   2.318  13.102   0.034
 5369SOL    HW218005   2.245  13.164   0.151
 5370SOL     OW18006  11.743  11.214   6.195
 5370SOL    HW118007  11.652  11.224   6.165
 5370SOL    HW218008  11.734  11.188   6.287
 5371SOL     OW18009   0.951   2.539   9.500
 5371SOL    HW118010   0.914   2.568   9.417
 5371SOL    HW218011   1.015   2.606   9.523
 5372SOL     OW18012   3.289  11.530   7.164
 5372SOL    HW118013   3.358  11.593   7.185
 5372SOL    HW218014   3.209  11.568   7.200
 5373SOL     OW18015   8.244   7.403   4.043
 5373SOL    HW118016   8.203   7.431   4.125
 5373SOL    HW218017   8.301   7.330   4.068
 5374SOL     OW18018   5.208   1.329  10.102
 5374SOL    HW118019   5.283   1.387  10.116
 5374SOL    HW218020   5.132   1.384  10.122
 5375SOL     OW18021  12.588   6.442   3.030
 5375SOL    HW118022  12.636   6.460   3.111
 5375SOL    HW218023  12.594   6.347   3.019
 5376SOL     OW18024   0.863   4.346  14.874
 5376SOL    HW118025   0.879   4.429  14.829
 5376SOL    HW218026   0.919   4.283  14.828
 5377SOL     OW18027  12.556   2.691  10.943
 5377SOL    HW118028  12.592   2.739  11.018
 5377SOL    HW218029  12.474   2.655  10.976
 5378SOL     OW18030  14.327  13.738  10.730
 5378SOL    HW118031  14.276  13.709  10.654
 5378SOL    HW218032  14.297  13.827  10.747
 5379SOL     OW18033  11.720  13.163   0.747
 5379SOL    HW118034  11.742  13.072   0.770
 5379SOL    HW218035  11.625  13.169   0.760
 5380SOL     OW18036   6.880   5.957   7.750
 5380SOL    HW118037   6.850   5.911   7.828
 5380SOL    HW218038   6.925   6.034   7.784
 5381SOL     OW18039   8.719   0.750   1.435
 5381SOL    HW118040   8.690   0.841   1.445
 5381SOL    HW218041   8.785   0.738   1.504
 5382SOL     OW18042   9.006   9.329   7.313
 5382SOL    HW118043   9.097   9.303   7.327
 5382SOL    HW218044   9.008   9.424   7.306
 5383SOL     OW18045   3.433   9.585  13.765
 5383SOL    HW118046   3.385   9.609  13.686
 5383SOL    HW218047   3.365   9.579  13.833
 5384SOL     OW18048   5.187  11.449  12.826
 5384SOL    HW118049   5.197  11.537  12.863
 5384SOL    HW218050   5.198  11.391  12.901
 5385SOL     OW18051   5.404  13.666   9.290
 5385SOL    HW118052   5.447  13.644   9.208
 5385SOL    HW218053   5.310  13.652   9.273
 5386SOL     OW18054   5.925   0.056   8.759
 5386SOL    HW118055   5.895   0.064   8.850
 5386SOL    HW218056   5.848   0.077   8.707
 5387SOL     OW18057  12.037  12.351   6.923
 5387SOL    HW118058  12.031  12.325   7.015
 5387SOL    HW218059  11.983  12.288   6.876
 5388SOL     OW18060   4.405  13.643  12.658
 5388SOL    HW118061   4.419  13.562  12.609
 5388SOL    HW218062   4.486  13.654  12.708
 5389SOL     OW18063  11.438  13.119  12.401
 5389SOL    HW118064  11.437  13.215  12.402
 5389SOL    HW218065  11.521  13.096  12.358
 5390SOL     OW18066   0.557   1.496   7.758
 5390SOL    HW118067   0.510   1.428   7.805
 5390SOL    HW218068   0.626   1.525   7.818
 5391SOL     OW18069  13.113   6.761  14.592
 5391SOL    HW118070  13.165   6.809  14.656
 5391SOL    HW218071  13.126   6.669  14.614
 5392SOL     OW18072  10.405  12.053   1.296
 5392SOL    HW118073  10.316  12.067   1.264
 5392SOL    HW218074  10.413  12.109   1.373
 5393SOL     OW18075  10.834   6.550   7.930
 5393SOL    HW118076  10.774   6.523   8.000
 5393SOL    HW218077  10.895   6.477   7.921
 5394SOL     OW18078   2.015  11.937   8.032
 5394SOL    HW118079   1.922  11.958   8.021
 5394SOL    HW218080   2.016  11.846   8.061
 5395SOL     OW18081  12.685   0.250   5.581
 5395SOL    HW118082  12.660   0.261   5.489
 5395SOL    HW218083  12.773   0.287   5.587
 5396SOL     OW18084   9.710  12.713   1.663
 5396SOL    HW118085   9.680  12.804   1.669
 5396SOL    HW218086   9.766  12.711   1.586
 5397SOL     OW18087  14.860   4.812  12.956
 5397SOL    HW118088   0.015   4.873  13.024
 5397SOL    HW218089  14.771   4.840  12.935
 5398SOL     OW18090   8.572   8.450   5.418
 5398SOL    HW118091   8.578   8.366   5.464
 5398SOL    HW218092   8.570   8.515   5.489
 5399SOL     OW18093   4.313   1.288   4.867
 5399SOL    HW118094   4.387   1.325   4.819
 5399SOL    HW218095   4.315   1.331   4.952
 5400SOL     OW18096   2.740   3.143   8.498
 5400SOL    HW118097   2.702   3.174   8.416
 5400SOL    HW218098   2.687   3.068   8.523
 5401SOL     OW18099   2.414  12.523   8.726
 5401SOL    HW118100   2.483  12.506   8.790
 5401SOL    HW218101   2.416  12.618   8.712
 5402SOL     OW18102   9.892   6.938  10.848
 5402SOL    HW118103   9.937   7.019  10.871
 5402SOL    HW218104   9.953   6.894  10.788
 5403SOL     OW18105   1.549   9.502   2.628
 5403SOL    HW118106   1.636   9.465   2.616
 5403SOL    HW218107   1.512   9.503   2.539
 5404SOL     OW18108  11.671   1.442  14.508
 5404SOL    HW118109  11.653   1.360  14.555
 5404SOL    HW218110  11.704   1.413  14.423
 5405SOL     OW18111   6.448  12.122   9.069
 5405SOL    HW118112   6.403  12.065   9.006
 5405SOL    HW218113   6.393  12.200   9.075
 5406SOL     OW18114   9.624  13.602  10.994
 5406SOL    HW118115   9.544  13.648  11.020
 5406SOL    HW218116   9.693  13.644  11.045
 5407SOL     OW18117   6.330   8.787   5.959
 5407SOL    HW118118   6.385   8.827   5.890
 5407SOL    HW218119   6.304   8.703   5.923
 5408SOL     OW18120  12.572   7.053   5.995
 5408SOL    HW118121  12.494   7.098   5.963
 5408SOL    HW218122  12.638   7.122   6.004
 5409SOL     OW18123   4.704   3.460   1.637
 5409SOL    HW118124   4.709   3.550   1.669
 5409SOL    HW218125   4.645   3.417   1.698
 5410SOL     OW18126  11.077   1.199  11.327
 5410SOL    HW118127  11.123   1.282  11.317
 5410SOL    HW218128  11.083   1.158  11.241
 5411SOL     OW18129   5.831   2.579   9.020
 5411SOL    HW118130   5.788   2.637   8.958
 5411SOL    HW218131   5.771   2.575   9.095
 5412SOL     OW18132  11.165   3.561   2.338
 5412SOL    HW118133  11.159   3.466   2.338
 5412SOL    HW218134  11.256   3.580   2.316
 5413SOL     OW18135  11.417   9.226   0.599
 5413SOL    HW118136  11.383   9.314   0.589
 5413SOL    HW218137  11.453   9.224   0.688
 5414SOL     OW18138  13.799   4.236   0.433
 5414SOL    HW118139  13.761   4.299   0.372
 5414SOL    HW218140  13.893   4.254   0.430
 5415SOL     OW18141   5.876   2.201   9.804
 5415SOL    HW118142   5.912   2.120   9.769
 5415SOL    HW218143   5.945   2.266   9.791
 5416SOL     OW18144  12.292  10.411   1.027
 5416SOL    HW118145  12.295  10.432   0.934
 5416SOL    HW218146  12.268  10.319   1.031
 5417SOL     OW18147   2.343   2.963   4.327
 5417SOL    HW118148   2.347   3.012   4.245
 5417SOL    HW218149   2.350   2.872   4.301
 5418SOL     OW18150   2.646  14.421  12.433
 5418SOL    HW118151   2.663  14.406  12.526
 5418SOL    HW218152   2.595  14.502  12.430
 5419SOL     OW18153  12.962  11.076   8.617
 5419SOL    HW118154  12.960  11.167   8.645
 5419SOL    HW218155  12.968  11.026   8.699
 5420SOL     OW18156  12.109   2.006   6.800
 5420SOL    HW118157  12.070   2.035   6.718
 5420SOL    HW218158  12.092   2.077   6.862
 5421SOL     OW18159   6.753   9.206   5.096
 5421SOL    HW118160   6.665   9.231   5.066
 5421SOL    HW218161   6.744   9.114   5.120
 5422SOL     OW18162  12.535  12.227   4.445
 5422SOL    HW118163  12.581  12.201   4.366
 5422SOL    HW218164  12.515  12.320   4.432
 5423SOL     OW18165  11.321  13.764   7.646
 5423SOL    HW118166  11.382  13.770   7.719
 5423SOL    HW218167  11.288  13.674   7.649
 5424SOL     OW18168   8.640   6.053   9.291
 5424SOL    HW118169   8.700   6.108   9.342
 5424SOL    HW218170   8.693   5.978   9.264
 5425SOL     OW18171  11.606   5.124   9.333
 5425SOL    HW118172  11.693   5.163   9.342
 5425SOL    HW218173  11.587   5.085   9.418
 5426SOL     OW18174   6.682   6.708  11.102
 5426SOL    HW118175   6.739   6.631  11.089
 5426SOL    HW218176   6.670   6.712  11.196
 5427SOL     OW18177   0.874  13.996   3.715
 5427SOL    HW118178   0.908  13.932   3.653
 5427SOL    HW218179   0.847  13.945   3.791
 5428SOL     OW18180  11.602   6.102   9.878
 5428SOL    HW118181  11.624   6.029   9.936
 5428SOL    HW218182  11.554   6.062   9.806
 5429SOL     OW18183  12.538  12.678  10.500
 5429SOL    HW118184  12.489  12.730  10.437
 5429SOL    HW218185  12.526  12.723  10.584
 5430SOL     OW18186   8.987   3.927   9.414
 5430SOL    HW118187   9.011   3.985   9.486
 5430SOL    HW218188   8.973   3.985   9.340
 5431SOL     OW18189   3.893   3.101  12.869
 5431SOL    HW118190   3.838   3.154  12.927
 5431SOL    HW218191   3.913   3.022  12.921
 5432SOL     OW18192   1.491   9.378   9.131
 5432SOL    HW118193   1.414   9.390   9.076
 5432SOL    HW218194   1.458   9.385   9.221
 5433SOL     OW18195  10.627   7.293  12.798
 5433SOL    HW118196  10.610   7.243  12.718
 5433SOL    HW218197  10.675   7.231  12.854
 5434SOL     OW18198  11.674   9.625   7.092
 5434SOL    HW118199  11.665   9.680   7.015
 5434SOL    HW218200  11.654   9.536   7.061
 5435SOL     OW18201  11.296   7.085   0.275
 5435SOL    HW118202  11.328   7.064   0.187
 5435SOL    HW218203  11.247   7.166   0.263
 5436SOL     OW18204   5.385   3.578  11.365
 5436SOL    HW118205   5.377   3.486  11.388
 5436SOL    HW218206   5.369   3.625  11.447
 5437SOL     OW18207   1.939   6.630   1.016
 5437SOL    HW118208   2.008   6.597   1.073
 5437SOL    HW218209   1.944   6.574   0.938
 5438SOL     OW18210  14.832  13.649   7.173
 5438SOL    HW118211   0.046  13.648   7.136
 5438SOL    HW218212  14.790  13.571   7.135
 5439SOL     OW18213   3.520   4.358  11.165
 5439SOL    HW118214   3.455   4.308  11.214
 5439SOL    HW218215   3.585   4.384  11.230
 5440SOL     OW18216   1.724  14.767   3.813
 5440SOL    HW118217   1.770  14.723   3.884
 5440SOL    HW218218   1.793  14.804   3.758
 5441SOL     OW18219   9.940   5.596  10.964
 5441SOL    HW118220   9.850   5.567  10.980
 5441SOL    HW218221   9.943   5.613  10.870
 5442SOL     OW18222  12.698   4.238   2.011
 5442SOL    HW118223  12.750   4.205   2.084
 5442SOL    HW218224  12.683   4.330   2.033
 5443SOL     OW18225   8.067  11.378  12.579
 5443SOL    HW118226   8.158  11.394  12.554
 5443SOL    HW218227   8.042  11.301  12.527
 5444SOL     OW18228  12.604   0.016   5.398
 5444SOL    HW118229  12.680   0.024   5.455
 5444SOL    HW218230  12.608  14.801   5.365
 5445SOL     OW18231   7.753   2.561  11.824
 5445SOL    HW118232   7.770   2.615  11.901
 5445SOL    HW218233   7.834   2.512  11.811
 5446SOL     OW18234  12.292   3.374   2.471
 5446SOL    HW118235  12.300   3.425   2.551
 5446SOL    HW218236  12.199   3.376   2.450
 5447SOL     OW18237  11.446   6.886  12.909
 5447SOL    HW118238  11.380   6.887  12.840
 5447SOL    HW218239  11.444   6.974  12.946
 5448SOL     OW18240   0.681   9.755  14.826
 5448SOL    HW118241   0.673   9.774  14.733
 5448SOL    HW218242   0.642   9.668  14.837
 5449SOL     OW18243   2.747   0.178  11.585
 5449SOL    HW118244   2.741   0.119  11.660
 5449SOL    HW218245   2.680   0.147  11.525
 5450SOL     OW18246   9.780   2.717   8.756
 5450SOL    HW118247   9.789   2.652   8.686
 5450SOL    HW218248   9.756   2.798   8.711
 5451SOL     OW18249  11.746   4.025   5.340
 5451SOL    HW118250  11.674   3.965   5.323
 5451SOL    HW218251  11.719   4.108   5.300
 5452SOL     OW18252   1.331   1.981   5.575
 5452SOL    HW118253   1.314   2.023   5.490
 5452SOL    HW218254   1.276   1.903   5.574
 5453SOL     OW18255   2.088   0.655  10.238
 5453SOL    HW118256   2.014   0.689  10.188
 5453SOL    HW218257   2.125   0.586  10.183
 5454SOL     OW18258   4.666   2.864  10.029
 5454SOL    HW118259   4.681   2.837   9.938
 5454SOL    HW218260   4.724   2.808  10.081
 5455SOL     OW18261   6.776   4.020   3.619
 5455SOL    HW118262   6.771   3.996   3.527
 5455SOL    HW218263   6.862   4.062   3.627
 5456SOL     OW18264   3.548   3.551  12.390
 5456SOL    HW118265   3.628   3.499  12.383
 5456SOL    HW218266   3.489   3.514  12.324
 5457SOL     OW18267  10.182   8.574   3.182
 5457SOL    HW118268  10.145   8.488   3.162
 5457SOL    HW218269  10.127   8.635   3.132
 5458SOL     OW18270  12.750   0.031   4.484
 5458SOL    HW118271  12.727   0.032   4.391
 5458SOL    HW218272  12.668   0.009   4.529
 5459SOL     OW18273  12.838   3.710  10.379
 5459SOL    HW118274  12.877   3.701  10.466
 5459SOL    HW218275  12.764   3.650  10.380
 5460SOL     OW18276  10.140   5.703   9.190
 5460SOL    HW118277  10.136   5.657   9.107
 5460SOL    HW218278  10.075   5.773   9.182
 5461SOL     OW18279   1.467   9.138   9.475
 5461SOL    HW118280   1.504   9.059   9.436
 5461SOL    HW218281   1.389   9.156   9.423
 5462SOL     OW18282  10.880   1.013  14.640
 5462SOL    HW118283  10.802   1.067  14.624
 5462SOL    HW218284  10.946   1.048  14.581
 5463SOL     OW18285   7.918   6.771   9.791
 5463SOL    HW118286   7.856   6.782   9.863
 5463SOL    HW218287   7.864   6.779   9.712
 5464SOL     OW18288  14.044   2.531   8.078
 5464SOL    HW118289  14.044   2.464   8.009
 5464SOL    HW218290  13.974   2.504   8.138
 5465SOL     OW18291   7.071  13.184   2.551
 5465SOL    HW118292   7.163  13.200   2.575
 5465SOL    HW218293   7.031  13.271   2.550
 5466SOL     OW18294   5.058   5.903   6.228
 5466SOL    HW118295   5.132   5.843   6.237
 5466SOL    HW218296   4.993   5.868   6.289
 5467SOL     OW18297  11.357   7.430   6.459
 5467SOL    HW118298  11.382   7.411   6.550
 5467SOL    HW218299  11.326   7.346   6.426
 5468SOL     OW18300   7.902  12.397   2.470
 5468SOL    HW118301   7.962  12.322   2.471
 5468SOL    HW218302   7.923  12.446   2.549
 5469SOL     OW18303  10.149   2.392   0.074
 5469SOL    HW118304  10.204   2.429   0.005
 5469SOL    HW218305  10.066   2.439   0.066
 5470SOL     OW18306  11.116  14.695  13.594
 5470SOL    HW118307  11.191  14.703  13.652
 5470SOL    HW218308  11.100  14.600  13.589
 5471SOL     OW18309   6.176   1.937   3.361
 5471SOL    HW118310   6.119   1.866   3.332
 5471SOL    HW218311   6.121   2.015   3.355
 5472SOL     OW18312  10.102   2.956   9.784
 5472SOL    HW118313  10.078   3.043   9.818
 5472SOL    HW218314  10.042   2.942   9.711
 5473SOL     OW18315  10.121   7.269  14.717
 5473SOL    HW118316  10.164   7.350  14.744
 5473SOL    HW218317  10.031   7.294  14.699
 5474SOL     OW18318  14.061   7.044   1.473
 5474SOL    HW118319  14.012   7.033   1.555
 5474SOL    HW218320  14.014   6.990   1.410
 5475SOL     OW18321  14.060  12.686  13.889
 5475SOL    HW118322  14.138  12.642  13.856
 5475SOL    HW218323  14.070  12.777  13.859
 5476SOL     OW18324   5.677   5.642   1.946
 5476SOL    HW118325   5.662   5.651   1.852
 5476SOL    HW218326   5.592   5.658   1.987
 5477SOL     OW18327  13.967   4.151  12.595
 5477SOL    HW118328  13.913   4.225  12.567
 5477SOL    HW218329  13.917   4.111  12.666
 5478SOL     OW18330   5.971  10.511   5.028
 5478SOL    HW118331   5.896  10.472   4.983
 5478SOL    HW218332   5.962  10.482   5.119
 5479SOL     OW18333  10.568   6.806   4.688
 5479SOL    HW118334  10.622   6.882   4.666
 5479SOL    HW218335  10.522   6.831   4.768
 5480SOL     OW18336  14.743  11.285   0.701
 5480SOL    HW118337  14.741  11.380   0.699
 5480SOL    HW218338  14.681  11.257   0.634
 5481SOL     OW18339   4.249   5.567   6.072
 5481SOL    HW118340   4.330   5.528   6.103
 5481SOL    HW218341   4.239   5.534   5.982
 5482SOL     OW18342   2.570   3.464   7.717
 5482SOL    HW118343   2.505   3.434   7.781
 5482SOL    HW218344   2.564   3.560   7.721
 5483SOL     OW18345   7.806   4.879   5.816
 5483SOL    HW118346   7.823   4.810   5.879
 5483SOL    HW218347   7.730   4.925   5.851
 5484SOL     OW18348   3.190   0.408   5.701
 5484SOL    HW118349   3.139   0.382   5.624
 5484SOL    HW218350   3.179   0.503   5.707
 5485SOL     OW18351   5.328   5.843  10.824
 5485SOL    HW118352   5.260   5.902  10.794
 5485SOL    HW218353   5.400   5.900  10.852
 5486SOL     OW18354   1.439  11.519   2.552
 5486SOL    HW118355   1.502  11.544   2.619
 5486SOL    HW218356   1.356  11.555   2.582
 5487SOL     OW18357   5.023   0.134   9.376
 5487SOL    HW118358   5.087   0.130   9.447
 5487SOL    HW218359   5.004   0.042   9.357
 5488SOL     OW18360   6.704   7.831   2.512
 5488SOL    HW118361   6.622   7.870   2.480
 5488SOL    HW218362   6.717   7.870   2.598
 5489SOL     OW18363   3.256  12.854  14.608
 5489SOL    HW118364   3.168  12.829  14.580
 5489SOL    HW218365   3.270  12.804  14.688
 5490SOL     OW18366   1.018   0.632   1.115
 5490SOL    HW118367   0.980   0.583   1.188
 5490SOL    HW218368   0.943   0.670   1.070
 5491SOL     OW18369   6.568  13.754   9.590
 5491SOL    HW118370   6.529  13.666   9.581
 5491SOL    HW218371   6.513  13.810   9.536
 5492SOL     OW18372  13.813   4.195   8.711
 5492SOL    HW118373  13.765   4.262   8.663
 5492SOL    HW218374  13.811   4.118   8.654
 5493SOL     OW18375  11.054  11.772   9.311
 5493SOL    HW118376  11.119  11.763   9.241
 5493SOL    HW218377  11.104  11.767   9.392
 5494SOL     OW18378   0.578  12.034   4.394
 5494SOL    HW118379   0.565  12.121   4.431
 5494SOL    HW218380   0.671  12.029   4.375
 5495SOL     OW18381   6.256   1.296  13.590
 5495SOL    HW118382   6.192   1.245  13.640
 5495SOL    HW218383   6.338   1.287  13.639
 5496SOL     OW18384   5.474   6.648   0.732
 5496SOL    HW118385   5.562   6.685   0.744
 5496SOL    HW218386   5.460   6.593   0.809
 5497SOL     OW18387   8.123   7.619   6.136
 5497SOL    HW118388   8.121   7.644   6.044
 5497SOL    HW218389   8.158   7.530   6.137
 5498SOL     OW18390   1.645   8.860   6.419
 5498SOL    HW118391   1.558   8.860   6.380
 5498SOL    HW218392   1.637   8.802   6.495
 5499SOL     OW18393  12.889   4.944   9.337
 5499SOL    HW118394  12.974   4.910   9.364
 5499SOL    HW218395  12.860   4.884   9.267
 5500SOL     OW18396  10.785  10.460   9.069
 5500SOL    HW118397  10.780  10.422   8.981
 5500SOL    HW218398  10.780  10.554   9.054
 5501SOL     OW18399   6.850   7.014  13.559
 5501SOL    HW118400   6.924   6.983  13.508
 5501SOL    HW218401   6.890   7.058  13.635
 5502SOL     OW18402   0.788   5.620   1.555
 5502SOL    HW118403   0.706   5.618   1.606
 5502SOL    HW218404   0.825   5.533   1.568
 5503SOL     OW18405  11.708   1.024   7.810
 5503SOL    HW118406  11.670   1.082   7.876
 5503SOL    HW218407  11.722   0.941   7.856
 5504SOL     OW18408   7.477   9.473  11.417
 5504SOL    HW118409   7.463   9.509  11.330
 5504SOL    HW218410   7.547   9.408  11.406
 5505SOL     OW18411   1.532   0.738  12.321
 5505SOL    HW118412   1.460   0.684  12.354
 5505SOL    HW218413   1.603   0.677  12.304
 5506SOL     OW18414   9.859  14.189   8.505
 5506SOL    HW118415   9.951  14.176   8.529
 5506SOL    HW218416   9.857  14.175   8.410
 5507SOL     OW18417   6.637  12.061   6.791
 5507SOL    HW118418   6.671  11.980   6.754
 5507SOL    HW218419   6.611  12.113   6.715
 5508SOL     OW18420   6.856   5.473   9.498
 5508SOL    HW118421   6.877   5.410   9.429
 5508SOL    HW218422   6.763   5.457   9.517
 5509SOL     OW18423   5.472   9.508   1.965
 5509SOL    HW118424   5.508   9.597   1.966
 5509SOL    HW218425   5.378   9.520   1.955
 5510SOL     OW18426   9.576   2.896   7.778
 5510SOL    HW118427   9.522   2.897   7.857
 5510SOL    HW218428   9.557   2.812   7.737
 5511SOL     OW18429  13.225   9.437   7.385
 5511SOL    HW118430  13.178   9.359   7.415
 5511SOL    HW218431  13.159   9.507   7.388
 5512SOL     OW18432   3.806  11.020   6.288
 5512SOL    HW118433   3.785  11.113   6.280
 5512SOL    HW218434   3.806  11.003   6.382
 5513SOL     OW18435   3.774   3.158   2.743
 5513SOL    HW118436   3.758   3.242   2.787
 5513SOL    HW218437   3.865   3.163   2.714
 5514SOL     OW18438  12.592  10.135   6.645
 5514SOL    HW118439  12.590  10.055   6.697
 5514SOL    HW218440  12.601  10.105   6.554
 5515SOL     OW18441  13.212   1.388  13.152
 5515SOL    HW118442  13.210   1.296  13.123
 5515SOL    HW218443  13.258   1.434  13.082
 5516SOL     OW18444   4.730   6.765   4.894
 5516SOL    HW118445   4.716   6.739   4.802
 5516SOL    HW218446   4.705   6.687   4.944
 5517SOL     OW18447   2.087  12.934   9.254
 5517SOL    HW118448   2.070  12.853   9.303
 5517SOL    HW218449   2.073  13.003   9.318
 5518SOL     OW18450   0.131   0.537  11.188
 5518SOL    HW118451   0.220   0.515  11.216
 5518SOL    HW218452   0.118   0.627  11.218
 5519SOL     OW18453   9.403  11.333   3.513
 5519SOL    HW118454   9.332  11.370   3.461
 5519SOL    HW218455   9.452  11.409   3.543
 5520SOL     OW18456  12.051  11.174   3.666
 5520SOL    HW118457  12.087  11.185   3.754
 5520SOL    HW218458  11.958  11.197   3.674
 5521SOL     OW18459   7.997   4.401  13.472
 5521SOL    HW118460   7.923   4.381  13.529
 5521SOL    HW218461   8.074   4.378  13.524
 5522SOL     OW18462  10.176   1.996   1.162
 5522SOL    HW118463  10.108   1.950   1.113
 5522SOL    HW218464  10.134   2.018   1.246
 5523SOL     OW18465   9.483   4.263   4.878
 5523SOL    HW118466   9.502   4.339   4.824
 5523SOL    HW218467   9.397   4.233   4.847
 5524SOL     OW18468  14.021   0.638   7.699
 5524SOL    HW118469  14.102   0.588   7.707
 5524SOL    HW218470  13.977   0.602   7.622
 5525SOL     OW18471   0.712   0.332   8.693
 5525SOL    HW118472   0.678   0.293   8.612
 5525SOL    HW218473   0.765   0.262   8.732
 5526SOL     OW18474   4.217   1.201   0.917
 5526SOL    HW118475   4.157   1.164   0.853
 5526SOL    HW218476   4.176   1.182   1.002
 5527SOL     OW18477  10.568  14.152   3.217
 5527SOL    HW118478  10.648  14.159   3.269
 5527SOL    HW218479  10.505  14.207   3.263
 5528SOL     OW18480  13.920   4.860   6.072
 5528SOL    HW118481  13.883   4.866   5.984
 5528SOL    HW218482  13.893   4.773   6.103
 5529SOL     OW18483   6.597   7.494  13.704
 5529SOL    HW118484   6.688   7.464  13.707
 5529SOL    HW218485   6.604   7.589  13.694
 5530SOL     OW18486   9.728   7.734   4.448
 5530SOL    HW118487   9.766   7.800   4.389
 5530SOL    HW218488   9.772   7.653   4.424
 5531SOL     OW18489  10.507   7.975   2.204
 5531SOL    HW118490  10.482   8.013   2.119
 5531SOL    HW218491  10.532   7.885   2.183
 5532SOL     OW18492   6.733   7.667   0.482
 5532SOL    HW118493   6.805   7.726   0.464
 5532SOL    HW218494   6.736   7.602   0.412
 5533SOL     OW18495   0.481   1.449  10.915
 5533SOL    HW118496   0.501   1.365  10.873
 5533SOL    HW218497   0.448   1.424  11.002
 5534SOL     OW18498   8.665  11.816  13.445
 5534SOL    HW118499   8.720  11.892  13.423
 5534SOL    HW218500   8.636  11.782  13.360
 5535SOL     OW18501  13.946   0.745   5.822
 5535SOL    HW118502  14.010   0.692   5.870
 5535SOL    HW218503  13.997   0.815   5.783
 5536SOL     OW18504  13.641   9.800  10.437
 5536SOL    HW118505  13.581   9.734  10.470
 5536SOL    HW218506  13.707   9.751  10.389
 5537SOL     OW18507  10.814   8.251   2.334
 5537SOL    HW118508  10.787   8.243   2.242
 5537SOL    HW218509  10.822   8.160   2.365
 5538SOL     OW18510   8.230  12.623  13.767
 5538SOL    HW118511   8.157  12.623  13.829
 5538SOL    HW218512   8.209  12.554  13.705
 5539SOL     OW18513   5.898  12.706  14.331
 5539SOL    HW118514   5.857  12.718  14.417
 5539SOL    HW218515   5.991  12.722  14.347
 5540SOL     OW18516   1.477   2.216  11.907
 5540SOL    HW118517   1.520   2.279  11.849
 5540SOL    HW218518   1.511   2.236  11.994
 5541SOL     OW18519   4.937   0.999   0.179
 5541SOL    HW118520   4.971   0.978   0.091
 5541SOL    HW218521   4.867   1.062   0.164
 5542SOL     OW18522  10.183   5.862   5.545
 5542SOL    HW118523  10.266   5.824   5.572
 5542SOL    HW218524  10.130   5.788   5.516
 5543SOL     OW18525   0.082  13.931   2.840
 5543SOL    HW118526   0.177  13.933   2.827
 5543SOL    HW218527   0.068  13.864   2.907
 5544SOL     OW18528  12.808   6.091  10.506
 5544SOL    HW118529  12.883   6.120  10.454
 5544SOL    HW218530  12.830   6.117  10.596
 5545SOL     OW18531   0.170   8.447  11.297
 5545SOL    HW118532   0.143   8.426  11.207
 5545SOL    HW218533   0.111   8.395  11.352
 5546SOL     OW18534   0.861  11.187   6.413
 5546SOL    HW118535   0.949  11.192   6.376
 5546SOL    HW218536   0.819  11.116   6.365
 5547SOL     OW18537   0.364   9.765  10.242
 5547SOL    HW118538   0.423   9.747  10.168
 5547SOL    HW218539   0.300   9.693  10.239
 5548SOL     OW18540   7.109   3.690   1.998
 5548SOL    HW118541   7.068   3.699   2.084
 5548SOL    HW218542   7.041   3.649   1.943
 5549SOL     OW18543   9.593   6.351   3.364
 5549SOL    HW118544   9.533   6.282   3.338
 5549SOL    HW218545   9.542   6.432   3.355
 5550SOL     OW18546  12.357   1.676   1.427
 5550SOL    HW118547  12.360   1.642   1.516
 5550SOL    HW218548  12.445   1.709   1.410
 5551SOL     OW18549  10.667   7.782   4.395
 5551SOL    HW118550  10.584   7.829   4.399
 5551SOL    HW218551  10.657   7.724   4.319
 5552SOL     OW18552  14.091   3.302  14.515
 5552SOL    HW118553  14.134   3.317  14.431
 5552SOL    HW218554  14.125   3.372  14.572
 5553SOL     OW18555  13.016   6.706   9.989
 5553SOL    HW118556  13.062   6.767   9.932
 5553SOL    HW218557  13.043   6.619   9.959
 5554SOL     OW18558  12.798   9.276  13.636
 5554SOL    HW118559  12.799   9.181  13.632
 5554SOL    HW218560  12.864   9.304  13.573
 5555SOL     OW18561   2.391   2.785  11.813
 5555SOL    HW118562   2.310   2.735  11.811
 5555SOL    HW218563   2.425   2.773  11.902
 5556SOL     OW18564  10.247  13.633  11.804
 5556SOL    HW118565  10.299  13.704  11.765
 5556SOL    HW218566  10.304  13.596  11.872
 5557SOL     OW18567  11.493  13.869  10.381
 5557SOL    HW118568  11.527  13.873  10.291
 5557SOL    HW218569  11.488  13.775  10.399
 5558SOL     OW18570  13.392   7.728   9.225
 5558SOL    HW118571  13.385   7.816   9.189
 5558SOL    HW218572  13.476   7.695   9.192
 5559SOL     OW18573   9.994   6.209   1.094
 5559SOL    HW118574   9.905   6.212   1.059
 5559SOL    HW218575  10.001   6.285   1.151
 5560SOL     OW18576   2.770  12.502  11.650
 5560SOL    HW118577   2.826  12.460  11.585
 5560SOL    HW218578   2.707  12.434  11.676
 5561SOL     OW18579   2.711  14.716   9.663
 5561SOL    HW118580   2.778  14.729   9.730
 5561SOL    HW218581   2.690  14.623   9.668
 5562SOL     OW18582   9.029  14.580   9.921
 5562SOL    HW118583   8.941  14.566   9.955
 5562SOL    HW218584   9.037  14.675   9.913
 5563SOL     OW18585   9.434   2.726  10.842
 5563SOL    HW118586   9.441   2.725  10.746
 5563SOL    HW218587   9.494   2.657  10.871
 5564SOL     OW18588   8.600   1.461   2.949
 5564SOL    HW118589   8.683   1.504   2.933
 5564SOL    HW218590   8.623   1.371   2.974
 5565SOL     OW18591  14.130   5.572   5.315
 5565SOL    HW118592  14.207   5.626   5.298
 5565SOL    HW218593  14.166   5.487   5.340
 5566SOL     OW18594  13.674   7.327  14.351
 5566SOL    HW118595  13.734   7.401  14.356
 5566SOL    HW218596  13.620   7.345  14.275
 5567SOL     OW18597   7.145   0.567   3.935
 5567SOL    HW118598   7.197   0.639   3.899
 5567SOL    HW218599   7.208   0.516   3.987
 5568SOL     OW18600  11.707   8.145   8.900
 5568SOL    HW118601  11.791   8.138   8.945
 5568SOL    HW218602  11.661   8.215   8.947
 5569SOL     OW18603  14.454   3.731  10.729
 5569SOL    HW118604  14.423   3.821  10.736
 5569SOL    HW218605  14.549   3.737  10.737
 5570SOL     OW18606  11.155   4.043  11.455
 5570SOL    HW118607  11.174   4.051  11.362
 5570SOL    HW218608  11.135   4.133  11.483
 5571SOL     OW18609   3.958   5.087   2.912
 5571SOL    HW118610   3.921   5.153   2.971
 5571SOL    HW218611   4.052   5.088   2.931
 5572SOL     OW18612   7.363   5.378  10.431
 5572SOL    HW118613   7.422   5.447  10.461
 5572SOL    HW218614   7.325   5.343  10.512
 5573SOL     OW18615   5.680  14.335   5.513
 5573SOL    HW118616   5.654  14.410   5.566
 5573SOL    HW218617   5.623  14.338   5.436
 5574SOL     OW18618   2.711   1.551   0.273
 5574SOL    HW118619   2.713   1.643   0.300
 5574SOL    HW218620   2.697   1.503   0.354
 5575SOL     OW18621  10.586   6.247   3.108
 5575SOL    HW118622  10.645   6.312   3.148
 5575SOL    HW218623  10.513   6.241   3.169
 5576SOL     OW18624  12.668  13.331   8.344
 5576SOL    HW118625  12.582  13.338   8.385
 5576SOL    HW218626  12.699  13.421   8.337
 5577SOL     OW18627  11.767  13.566   1.448
 5577SOL    HW118628  11.774  13.499   1.516
 5577SOL    HW218629  11.814  13.530   1.373
 5578SOL     OW18630  13.623  11.140   2.137
 5578SOL    HW118631  13.556  11.090   2.090
 5578SOL    HW218632  13.624  11.225   2.093
 5579SOL     OW18633   5.850   2.276   9.449
 5579SOL    HW118634   5.822   2.184   9.453
 5579SOL    HW218635   5.944   2.273   9.464
 5580SOL     OW18636   8.600  11.094   7.170
 5580SOL    HW118637   8.651  11.056   7.099
 5580SOL    HW218638   8.546  11.160   7.127
 5581SOL     OW18639  13.360  10.061   7.905
 5581SOL    HW118640  13.287  10.001   7.923
 5581SOL    HW218641  13.368  10.060   7.809
 5582SOL     OW18642  10.206   7.927   4.003
 5582SOL    HW118643  10.194   7.957   3.913
 5582SOL    HW218644  10.169   7.839   4.004
 5583SOL     OW18645   4.461   1.446   4.672
 5583SOL    HW118646   4.447   1.540   4.673
 5583SOL    HW218647   4.427   1.417   4.588
 5584SOL     OW18648   5.342   1.440   0.228
 5584SOL    HW118649   5.287   1.436   0.307
 5584SOL    HW218650   5.280   1.452   0.156
 5585SOL     OW18651   1.781   7.161  13.257
 5585SOL    HW118652   1.781   7.186  13.349
 5585SOL    HW218653   1.717   7.090  13.251
 5586SOL     OW18654  11.103  13.829   9.349
 5586SOL    HW118655  11.017  13.798   9.319
 5586SOL    HW218656  11.165  13.790   9.288
 5587SOL     OW18657   5.717   6.638   5.147
 5587SOL    HW118658   5.734   6.731   5.155
 5587SOL    HW218659   5.650   6.620   5.213
 5588SOL     OW18660   3.339   3.411  12.635
 5588SOL    HW118661   3.265   3.456  12.595
 5588SOL    HW218662   3.413   3.432  12.579
 5589SOL     OW18663   9.570   4.632   2.487
 5589SOL    HW118664   9.664   4.653   2.490
 5589SOL    HW218665   9.537   4.658   2.573
 5590SOL     OW18666   1.920   9.800   9.242
 5590SOL    HW118667   1.825   9.788   9.235
 5590SOL    HW218668   1.933   9.842   9.327
 5591SOL     OW18669  10.902   9.310   9.285
 5591SOL    HW118670  10.895   9.337   9.194
 5591SOL    HW218671  10.965   9.371   9.323
 5592SOL     OW18672  11.151  10.295  10.364
 5592SOL    HW118673  11.080  10.335  10.414
 5592SOL    HW218674  11.108  10.232  10.307
 5593SOL     OW18675   1.112  14.269   7.805
 5593SOL    HW118676   1.149  14.285   7.718
 5593SOL    HW218677   1.182  14.227   7.854
 5594SOL     OW18678  14.623   7.215  13.450
 5594SOL    HW118679  14.697   7.184  13.398
 5594SOL    HW218680  14.616   7.308  13.427
 5595SOL     OW18681   1.581  14.319   5.580
 5595SOL    HW118682   1.553  14.256   5.646
 5595SOL    HW218683   1.643  14.270   5.525
 5596SOL     OW18684   8.562   3.523  13.405
 5596SOL    HW118685   8.618   3.592  13.439
 5596SOL    HW218686   8.623   3.453  13.381
 5597SOL     OW18687   8.201   4.089   6.715
 5597SOL    HW118688   8.282   4.048   6.746
 5597SOL    HW218689   8.198   4.174   6.759
 5598SOL     OW18690   9.422   2.315   7.319
 5598SOL    HW118691   9.443   2.276   7.234
 5598SOL    HW218692   9.326   2.315   7.322
 5599SOL     OW18693   9.699   1.677   7.940
 5599SOL    HW118694   9.734   1.724   8.016
 5599SOL    HW218695   9.650   1.743   7.892
 5600SOL     OW18696   8.135  13.355   6.977
 5600SOL    HW118697   8.109  13.316   6.893
 5600SOL    HW218698   8.069  13.422   6.994
 5601SOL     OW18699   1.202   3.798  10.166
 5601SOL    HW118700   1.185   3.887  10.196
 5601SOL    HW218701   1.212   3.747  10.247
 5602SOL     OW18702  13.357   8.195   5.817
 5602SOL    HW118703  13.316   8.141   5.884
 5602SOL    HW218704  13.312   8.171   5.736
 5603SOL     OW18705   6.200   3.593  11.522
 5603SOL    HW118706   6.258   3.568  11.451
 5603SOL    HW218707   6.175   3.510  11.563
 5604SOL     OW18708  10.725  11.882   8.645
 5604SOL    HW118709  10.695  11.793   8.661
 5604SOL    HW218710  10.802  11.871   8.588
 5605SOL     OW18711   3.528   4.890   4.828
 5605SOL    HW118712   3.586   4.909   4.754
 5605SOL    HW218713   3.441   4.912   4.796
 5606SOL     OW18714   1.655   1.810   1.213
 5606SOL    HW118715   1.651   1.810   1.309
 5606SOL    HW218716   1.749   1.816   1.194
 5607SOL     OW18717  13.683  14.316  11.890
 5607SOL    HW118718  13.707  14.338  11.800
 5607SOL    HW218719  13.767  14.303  11.934
 5608SOL     OW18720   6.541   8.025  11.137
 5608SOL    HW118721   6.635   8.031  11.117
 5608SOL    HW218722   6.536   7.965  11.212
 5609SOL     OW18723   4.520  10.180   9.738
 5609SOL    HW118724   4.471  10.213   9.662
 5609SOL    HW218725   4.469  10.106   9.769
 5610SOL     OW18726   4.859   1.294  10.322
 5610SOL    HW118727   4.816   1.241  10.255
 5610SOL    HW218728   4.905   1.230  10.376
 5611SOL     OW18729  14.247   7.722  13.527
 5611SOL    HW118730  14.204   7.648  13.570
 5611SOL    HW218731  14.275   7.778  13.599
 5612SOL     OW18732   5.805   3.422   2.760
 5612SOL    HW118733   5.794   3.517   2.762
 5612SOL    HW218734   5.881   3.405   2.817
 5613SOL     OW18735  11.033  11.682   3.096
 5613SOL    HW118736  11.103  11.747   3.088
 5613SOL    HW218737  10.959  11.731   3.130
 5614SOL     OW18738   9.106  13.085   6.590
 5614SOL    HW118739   9.072  13.000   6.563
 5614SOL    HW218740   9.185  13.065   6.640
 5615SOL     OW18741   8.723   5.528  14.217
 5615SOL    HW118742   8.749   5.581  14.142
 5615SOL    HW218743   8.632   5.503  14.199
 5616SOL     OW18744  12.200  14.581   3.122
 5616SOL    HW118745  12.123  14.630   3.095
 5616SOL    HW218746  12.165  14.505   3.169
 5617SOL     OW18747  12.146   5.034   7.609
 5617SOL    HW118748  12.236   5.068   7.602
 5617SOL    HW218749  12.146   4.957   7.553
 5618SOL     OW18750  11.673   0.538   0.625
 5618SOL    HW118751  11.656   0.603   0.557
 5618SOL    HW218752  11.604   0.473   0.614
 5619SOL     OW18753  10.707  13.073   4.751
 5619SOL    HW118754  10.776  13.065   4.817
 5619SOL    HW218755  10.724  13.002   4.689
 5620SOL     OW18756  11.982   8.699  10.368
 5620SOL    HW118757  12.060   8.743  10.333
 5620SOL    HW218758  11.909   8.749  10.332
 5621SOL     OW18759  12.649   6.494   6.652
 5621SOL    HW118760  12.656   6.423   6.588
 5621SOL    HW218761  12.555   6.503   6.667
 5622SOL     OW18762  13.826   1.782   5.831
 5622SOL    HW118763  13.816   1.853   5.894
 5622SOL    HW218764  13.913   1.794   5.793
 5623SOL     OW18765   0.378  10.467   0.387
 5623SOL    HW118766   0.340  10.381   0.369
 5623SOL    HW218767   0.328  10.528   0.331
 5624SOL     OW18768   0.860   4.476  13.765
 5624SOL    HW118769   0.952   4.460  13.743
 5624SOL    HW218770   0.831   4.541  13.701
 5625SOL     OW18771   0.568   3.601  12.626
 5625SOL    HW118772   0.655   3.600  12.587
 5625SOL    HW218773   0.560   3.687  12.667
 5626SOL     OW18774   9.754  12.505   5.356
 5626SOL    HW118775   9.671  12.539   5.322
 5626SOL    HW218776   9.777  12.566   5.426
 5627SOL     OW18777   6.168   6.992  12.364
 5627SOL    HW118778   6.209   6.916  12.324
 5627SOL    HW218779   6.161   6.969  12.457
 5628SOL     OW18780  10.950   7.673   6.785
 5628SOL    HW118781  10.902   7.601   6.745
 5628SOL    HW218782  10.901   7.751   6.760
 5629SOL     OW18783  12.888  14.229   9.008
 5629SOL    HW118784  12.804  14.206   8.969
 5629SOL    HW218785  12.895  14.324   8.997
 5630SOL     OW18786   7.432   6.328   3.678
 5630SOL    HW118787   7.513   6.299   3.635
 5630SOL    HW218788   7.460   6.399   3.736
 5631SOL     OW18789   5.564   7.627   9.247
 5631SOL    HW118790   5.513   7.688   9.300
 5631SOL    HW218791   5.639   7.605   9.302
 5632SOL     OW18792  11.831   2.840   2.738
 5632SOL    HW118793  11.798   2.807   2.655
 5632SOL    HW218794  11.871   2.924   2.716
 5633SOL     OW18795   0.112   5.396   5.333
 5633SOL    HW118796   0.135   5.479   5.293
 5633SOL    HW218797   0.131   5.330   5.266
 5634SOL     OW18798  10.411  13.222   4.460
 5634SOL    HW118799  10.483  13.222   4.396
 5634SOL    HW218800  10.333  13.241   4.408
 5635SOL     OW18801   3.491   8.036   3.770
 5635SOL    HW118802   3.559   7.986   3.726
 5635SOL    HW218803   3.490   8.120   3.725
 5636SOL     OW18804   8.546   8.386   9.091
 5636SOL    HW118805   8.481   8.437   9.042
 5636SOL    HW218806   8.619   8.376   9.030
 5637SOL     OW18807   0.829   1.460   3.169
 5637SOL    HW118808   0.837   1.516   3.092
 5637SOL    HW218809   0.748   1.488   3.211
 5638SOL     OW18810   7.803  11.264  10.297
 5638SOL    HW118811   7.873  11.205  10.270
 5638SOL    HW218812   7.843  11.322  10.361
 5639SOL     OW18813   0.016  13.546   3.784
 5639SOL    HW118814  14.835  13.598   3.726
 5639SOL    HW218815   0.024  13.599   3.863
 5640SOL     OW18816   7.494   0.618  10.358
 5640SOL    HW118817   7.563   0.637  10.421
 5640SOL    HW218818   7.516   0.671  10.281
 5641SOL     OW18819  12.546  14.577   0.896
 5641SOL    HW118820  12.491  14.570   0.974
 5641SOL    HW218821  12.536  14.492   0.852
 5642SOL     OW18822   9.852   7.613   4.801
 5642SOL    HW118823   9.841   7.524   4.834
 5642SOL    HW218824   9.764   7.651   4.806
 5643SOL     OW18825  13.510   1.198   7.799
 5643SOL    HW118826  13.570   1.192   7.724
 5643SOL    HW218827  13.427   1.227   7.761
 5644SOL     OW18828   7.201   5.567   4.309
 5644SOL    HW118829   7.162   5.509   4.242
 5644SOL    HW218830   7.133   5.633   4.325
 5645SOL     OW18831   3.398   5.111   2.401
 5645SOL    HW118832   3.412   5.120   2.307
 5645SOL    HW218833   3.303   5.106   2.411
 5646SOL     OW18834   9.369  11.517  11.711
 5646SOL    HW118835   9.307  11.567  11.658
 5646SOL    HW218836   9.315  11.448  11.751
 5647SOL     OW18837   9.690   7.383  13.821
 5647SOL    HW118838   9.642   7.460  13.791
 5647SOL    HW218839   9.622   7.320  13.844
 5648SOL     OW18840   7.250  13.491   7.980
 5648SOL    HW118841   7.277  13.582   7.991
 5648SOL    HW218842   7.157  13.491   8.000
 5649SOL     OW18843   9.797   6.488   6.566
 5649SOL    HW118844   9.766   6.558   6.623
 5649SOL    HW218845   9.886   6.469   6.597
 5650SOL     OW18846   3.122   5.594   4.830
 5650SOL    HW118847   3.180   5.660   4.792
 5650SOL    HW218848   3.120   5.615   4.923
 5651SOL     OW18849   2.952   5.895  11.705
 5651SOL    HW118850   2.917   5.940  11.781
 5651SOL    HW218851   3.036   5.938  11.688
 5652SOL     OW18852   0.644   6.552  10.293
 5652SOL    HW118853   0.711   6.608  10.333
 5652SOL    HW218854   0.693   6.485  10.245
 5653SOL     OW18855   0.146  11.342  13.374
 5653SOL    HW118856   0.071  11.400  13.367
 5653SOL    HW218857   0.123  11.280  13.443
 5654SOL     OW18858   7.004   0.460  13.842
 5654SOL    HW118859   6.915   0.441  13.813
 5654SOL    HW218860   7.029   0.384  13.895
 5655SOL     OW18861  14.564   5.513   9.953
 5655SOL    HW118862  14.590   5.432   9.910
 5655SOL    HW218863  14.539   5.572   9.881
 5656SOL     OW18864   9.629   0.063   6.616
 5656SOL    HW118865   9.593   0.137   6.665
 5656SOL    HW218866   9.582   0.064   6.532
 5657SOL     OW18867   1.899  13.732   5.804
 5657SOL    HW118868   1.835  13.662   5.791
 5657SOL    HW218869   1.850  13.813   5.785
 5658SOL     OW18870   3.031  10.770  12.984
 5658SOL    HW118871   2.938  10.752  12.999
 5658SOL    HW218872   3.032  10.848  12.929
 5659SOL     OW18873   4.715   0.693   8.042
 5659SOL    HW118874   4.712   0.745   7.962
 5659SOL    HW218875   4.646   0.627   8.031
 5660SOL     OW18876  13.527  13.208   5.797
 5660SOL    HW118877  13.524  13.271   5.869
 5660SOL    HW218878  13.591  13.143   5.825
 5661SOL     OW18879   4.315   4.700  13.377
 5661SOL    HW118880   4.344   4.631  13.318
 5661SOL    HW218881   4.253   4.752  13.325
 5662SOL     OW18882   6.030   9.531   4.962
 5662SOL    HW118883   6.064   9.525   4.872
 5662SOL    HW218884   6.108   9.531   5.017
 5663SOL     OW18885  10.507  11.350   8.597
 5663SOL    HW118886  10.476  11.284   8.660
 5663SOL    HW218887  10.600  11.358   8.617
 5664SOL     OW18888  10.142   4.839   6.989
 5664SOL    HW118889  10.078   4.835   6.918
 5664SOL    HW218890  10.098   4.796   7.063
 5665SOL     OW18891   6.707   4.740  11.041
 5665SOL    HW118892   6.690   4.746  11.136
 5665SOL    HW218893   6.764   4.664  11.032
 5666SOL     OW18894  10.466   1.174  11.989
 5666SOL    HW118895  10.386   1.226  11.980
 5666SOL    HW218896  10.489   1.150  11.899
 5667SOL     OW18897   6.908  13.995   8.263
 5667SOL    HW118898   6.839  13.935   8.233
 5667SOL    HW218899   6.909  13.985   8.358
 5668SOL     OW18900  10.551   4.629  12.537
 5668SOL    HW118901  10.473   4.594  12.579
 5668SOL    HW218902  10.536   4.617  12.444
 5669SOL     OW18903   2.847   6.074   8.709
 5669SOL    HW118904   2.781   6.059   8.777
 5669SOL    HW218905   2.811   6.145   8.656
 5670SOL     OW18906   0.540   9.994   0.793
 5670SOL    HW118907   0.629  10.028   0.784
 5670SOL    HW218908   0.538   9.916   0.737
 5671SOL     OW18909  14.612  11.310   1.821
 5671SOL    HW118910  14.708  11.310   1.817
 5671SOL    HW218911  14.590  11.229   1.866
 5672SOL     OW18912   1.141  14.292  11.677
 5672SOL    HW118913   1.190  14.216  11.645
 5672SOL    HW218914   1.183  14.367  11.635
 5673SOL     OW18915   6.078   3.244   3.675
 5673SOL    HW118916   6.160   3.274   3.715
 5673SOL    HW218917   6.020   3.226   3.749
 5674SOL     OW18918   4.417   5.591  12.260
 5674SOL    HW118919   4.439   5.594  12.167
 5674SOL    HW218920   4.354   5.661  12.272
 5675SOL     OW18921  14.161   7.206   5.162
 5675SOL    HW118922  14.223   7.150   5.209
 5675SOL    HW218923  14.106   7.243   5.230
 5676SOL     OW18924   4.511  10.608   4.411
 5676SOL    HW118925   4.536  10.518   4.432
 5676SOL    HW218926   4.495  10.649   4.496
 5677SOL     OW18927   2.197   8.158  12.064
 5677SOL    HW118928   2.218   8.186  12.154
 5677SOL    HW218929   2.163   8.069  12.075
 5678SOL     OW18930   2.905   8.376  11.996
 5678SOL    HW118931   2.959   8.362  11.918
 5678SOL    HW218932   2.878   8.289  12.023
 5679SOL     OW18933   9.980   8.501  10.587
 5679SOL    HW118934   9.980   8.542  10.673
 5679SOL    HW218935   9.914   8.550  10.537
 5680SOL     OW18936   4.304   4.669   6.791
 5680SOL    HW118937   4.332   4.758   6.768
 5680SOL    HW218938   4.307   4.666   6.886
 5681SOL     OW18939   5.630   6.920  10.750
 5681SOL    HW118940   5.549   6.963  10.777
 5681SOL    HW218941   5.604   6.859  10.681
 5682SOL     OW18942   9.155  12.568  11.796
 5682SOL    HW118943   9.211  12.522  11.734
 5682SOL    HW218944   9.081  12.508  11.810
 5683SOL     OW18945   3.458  10.125  12.965
 5683SOL    HW118946   3.512  10.073  12.905
 5683SOL    HW218947   3.455  10.073  13.045
 5684SOL     OW18948   6.325  12.229   1.787
 5684SOL    HW118949   6.316  12.192   1.699
 5684SOL    HW218950   6.283  12.314   1.782
 5685SOL     OW18951  11.829   7.171   6.156
 5685SOL    HW118952  11.825   7.240   6.090
 5685SOL    HW218953  11.890   7.107   6.120
 5686SOL     OW18954   8.910   8.749  11.193
 5686SOL    HW118955   8.880   8.753  11.284
 5686SOL    HW218956   8.993   8.797  11.194
 5687SOL     OW18957  12.942   7.938  13.265
 5687SOL    HW118958  12.936   7.845  13.284
 5687SOL    HW218959  12.871   7.977  13.317
 5688SOL     OW18960   0.775  13.042  12.309
 5688SOL    HW118961   0.803  12.961  12.351
 5688SOL    HW218962   0.813  13.112  12.363
 5689SOL     OW18963  11.716  11.375  11.297
 5689SOL    HW118964  11.780  11.384  11.367
 5689SOL    HW218965  11.645  11.324  11.334
 5690SOL     OW18966   0.923  10.112   6.853
 5690SOL    HW118967   0.853  10.089   6.914
 5690SOL    HW218968   0.897  10.071   6.770
 5691SOL     OW18969  14.770   3.917  11.187
 5691SOL    HW118970  14.677   3.937  11.179
 5691SOL    HW218971  14.811   4.001  11.208
 5692SOL     OW18972  11.520   1.866   7.165
 5692SOL    HW118973  11.566   1.883   7.248
 5692SOL    HW218974  11.441   1.919   7.170
 5693SOL     OW18975   1.785   1.974   9.326
 5693SOL    HW118976   1.754   2.047   9.380
 5693SOL    HW218977   1.789   1.900   9.386
 5694SOL     OW18978   0.518  12.075   8.354
 5694SOL    HW118979   0.581  12.026   8.408
 5694SOL    HW218980   0.572  12.142   8.311
 5695SOL     OW18981  13.468   7.799   7.151
 5695SOL    HW118982  13.399   7.821   7.088
 5695SOL    HW218983  13.455   7.861   7.223
 5696SOL     OW18984   8.771   3.110   3.736
 5696SOL    HW118985   8.770   3.044   3.667
 5696SOL    HW218986   8.862   3.110   3.767
 5697SOL     OW18987   6.891  10.257  11.874
 5697SOL    HW118988   6.983  10.232  11.880
 5697SOL    HW218989   6.867  10.238  11.783
 5698SOL     OW18990  10.457   5.480   2.466
 5698SOL    HW118991  10.448   5.487   2.561
 5698SOL    HW218992  10.520   5.410   2.452
 5699SOL     OW18993  13.713  14.481   2.257
 5699SOL    HW118994  13.641  14.543   2.246
 5699SOL    HW218995  13.709  14.426   2.179
 5700SOL     OW18996  13.178   5.864  10.946
 5700SOL    HW118997  13.188   5.828  10.858
 5700SOL    HW218998  13.222   5.949  10.942
 5701SOL     OW18999   1.923  11.286   8.697
 5701SOL    HW119000   1.957  11.352   8.757
 5701SOL    HW219001   1.838  11.261   8.733
 5702SOL     OW19002   7.945  14.472  13.548
 5702SOL    HW119003   7.960  14.566  13.543
 5702SOL    HW219004   8.033  14.434  13.557
 5703SOL     OW19005   3.600   1.866   7.159
 5703SOL    HW119006   3.526   1.810   7.183
 5703SOL    HW219007   3.566   1.955   7.165
 5704SOL     OW19008  11.795   1.200   1.937
 5704SOL    HW119009  11.776   1.271   1.875
 5704SOL    HW219010  11.858   1.237   1.998
 5705SOL     OW19011  13.605   5.437   1.192
 5705SOL    HW119012  13.542   5.418   1.262
 5705SOL    HW219013  13.566   5.397   1.114
 5706SOL     OW19014  11.466   7.412   7.009
 5706SOL    HW119015  11.549   7.444   7.044
 5706SOL    HW219016  11.403   7.425   7.080
 5707SOL     OW19017   1.308   4.644  12.375
 5707SOL    HW119018   1.269   4.561  12.349
 5707SOL    HW219019   1.320   4.692  12.294
 5708SOL     OW19020  14.270   4.126  12.631
 5708SOL    HW119021  14.203   4.173  12.581
 5708SOL    HW219022  14.277   4.040  12.589
 5709SOL     OW19023   2.794  13.056   4.737
 5709SOL    HW119024   2.803  13.142   4.778
 5709SOL    HW219025   2.820  13.070   4.646
 5710SOL     OW19026   0.839  12.421   3.815
 5710SOL    HW119027   0.855  12.514   3.798
 5710SOL    HW219028   0.848  12.379   3.730
 5711SOL     OW19029  11.623   5.580  11.208
 5711SOL    HW119030  11.528   5.567  11.208
 5711SOL    HW219031  11.656   5.514  11.147
 5712SOL     OW19032   1.904  10.542   2.425
 5712SOL    HW119033   1.904  10.492   2.343
 5712SOL    HW219034   1.812  10.545   2.451
 5713SOL     OW19035  13.979   3.389   0.776
 5713SOL    HW119036  14.039   3.393   0.851
 5713SOL    HW219037  13.892   3.393   0.814
 5714SOL     OW19038   5.736   8.013   0.094
 5714SOL    HW119039   5.678   8.022   0.018
 5714SOL    HW219040   5.722   8.093   0.145
 5715SOL     OW19041   9.691  11.674   4.997
 5715SOL    HW119042   9.781  11.682   4.965
 5715SOL    HW219043   9.640  11.652   4.919
 5716SOL     OW19044   3.519  13.160   1.941
 5716SOL    HW119045   3.538  13.221   1.870
 5716SOL    HW219046   3.550  13.075   1.909
 5717SOL     OW19047   9.769   7.812  14.514
 5717SOL    HW119048   9.798   7.893  14.472
 5717SOL    HW219049   9.699   7.840  14.573
 5718SOL     OW19050   3.951   2.283   6.038
 5718SOL    HW119051   3.968   2.288   5.944
 5718SOL    HW219052   3.864   2.321   6.049
 5719SOL     OW19053   5.803  13.097   2.853
 5719SOL    HW119054   5.767  13.040   2.922
 5719SOL    HW219055   5.853  13.163   2.901
 5720SOL     OW19056   4.705  12.963  13.196
 5720SOL    HW119057   4.787  12.962  13.148
 5720SOL    HW219058   4.723  12.914  13.277
 5721SOL     OW19059   7.876   4.136   4.859
 5721SOL    HW119060   7.835   4.148   4.774
 5721SOL    HW219061   7.956   4.087   4.840
 5722SOL     OW19062   5.343   3.534   8.691
 5722SOL    HW119063   5.260   3.552   8.646
 5722SOL    HW219064   5.411   3.560   8.628
 5723SOL     OW19065   4.794   1.865   1.792
 5723SOL    HW119066   4.859   1.797   1.773
 5723SOL    HW219067   4.775   1.904   1.707
 5724SOL     OW19068   3.564   9.895  11.597
 5724SOL    HW119069   3.586   9.935  11.681
 5724SOL    HW219070   3.646   9.856  11.568
 5725SOL     OW19071   6.123   2.756  11.329
 5725SOL    HW119072   6.082   2.693  11.270
 5725SOL    HW219073   6.204   2.712  11.358
 5726SOL     OW19074   8.160  14.866   0.169
 5726SOL    HW119075   8.076  14.837   0.134
 5726SOL    HW219076   8.220  14.864   0.094
 5727SOL     OW19077   1.497  13.928   1.058
 5727SOL    HW119078   1.556  13.951   0.986
 5727SOL    HW219079   1.461  14.012   1.087
 5728SOL     OW19080   5.370  14.577   2.145
 5728SOL    HW119081   5.284  14.619   2.156
 5728SOL    HW219082   5.364  14.496   2.195
 5729SOL     OW19083   2.984   9.331  11.228
 5729SOL    HW119084   2.968   9.236  11.229
 5729SOL    HW219085   2.902   9.369  11.258
 5730SOL     OW19086  10.838   4.185   7.484
 5730SOL    HW119087  10.796   4.150   7.562
 5730SOL    HW219088  10.868   4.273   7.509
 5731SOL     OW19089   8.166   1.996  14.579
 5731SOL    HW119090   8.105   2.068  14.563
 5731SOL    HW219091   8.115   1.931  14.628
 5732SOL     OW19092   9.175   8.309  13.120
 5732SOL    HW119093   9.134   8.288  13.036
 5732SOL    HW219094   9.249   8.248  13.125
 5733SOL     OW19095   6.549   1.994   0.954
 5733SOL    HW119096   6.472   2.036   0.915
 5733SOL    HW219097   6.569   2.047   1.031
 5734SOL     OW19098  10.369   1.048  11.171
 5734SOL    HW119099  10.276   1.062  11.151
 5734SOL    HW219100  10.389   1.114  11.238
 5735SOL     OW19101   4.852  12.598  12.866
 5735SOL    HW119102   4.829  12.646  12.786
 5735SOL    HW219103   4.901  12.522  12.835
 5736SOL     OW19104   6.128  10.536  11.175
 5736SOL    HW119105   6.221  10.516  11.166
 5736SOL    HW219106   6.087  10.452  11.196
 5737SOL     OW19107  11.148   4.304   8.122
 5737SOL    HW119108  11.115   4.275   8.037
 5737SOL    HW219109  11.079   4.363   8.155
 5738SOL     OW19110  12.142  14.252   8.013
 5738SOL    HW119111  12.133  14.346   8.029
 5738SOL    HW219112  12.071  14.212   8.064
 5739SOL     OW19113   2.548   4.654   0.192
 5739SOL    HW119114   2.567   4.595   0.265
 5739SOL    HW219115   2.622   4.715   0.191
 5740SOL     OW19116   8.199  14.719   9.646
 5740SOL    HW119117   8.213  14.670   9.564
 5740SOL    HW219118   8.203  14.811   9.620
 5741SOL     OW19119  10.581   1.169   0.479
 5741SOL    HW119120  10.609   1.211   0.561
 5741SOL    HW219121  10.638   1.206   0.412
 5742SOL     OW19122   3.595   2.282   4.191
 5742SOL    HW119123   3.571   2.335   4.114
 5742SOL    HW219124   3.679   2.318   4.219
 5743SOL     OW19125  11.795   9.130  14.440
 5743SOL    HW119126  11.708   9.166  14.458
 5743SOL    HW219127  11.783   9.035  14.444
 5744SOL     OW19128   8.322   8.459  11.814
 5744SOL    HW119129   8.237   8.434  11.775
 5744SOL    HW219130   8.359   8.522  11.753
 5745SOL     OW19131   0.733   0.153   6.251
 5745SOL    HW119132   0.725   0.220   6.319
 5745SOL    HW219133   0.659   0.094   6.267
 5746SOL     OW19134   9.306   6.256   8.985
 5746SOL    HW119135   9.315   6.226   9.076
 5746SOL    HW219136   9.372   6.206   8.937
 5747SOL     OW19137   0.724  12.386   4.515
 5747SOL    HW119138   0.669  12.343   4.581
 5747SOL    HW219139   0.795  12.324   4.499
 5748SOL     OW19140  14.654  14.257   9.118
 5748SOL    HW119141  14.641  14.286   9.028
 5748SOL    HW219142  14.618  14.168   9.119
 5749SOL     OW19143   7.071   1.925  14.793
 5749SOL    HW119144   7.037   2.000  14.841
 5749SOL    HW219145   7.093   1.959  14.706
 5750SOL     OW19146  11.218   3.032   9.985
 5750SOL    HW119147  11.228   3.126   9.974
 5750SOL    HW219148  11.200   3.021  10.078
 5751SOL     OW19149  13.438   0.607  10.614
 5751SOL    HW119150  13.364   0.666  10.628
 5751SOL    HW219151  13.515   0.662  10.620
 5752SOL     OW19152  14.446   2.144   0.686
 5752SOL    HW119153  14.352   2.138   0.671
 5752SOL    HW219154  14.473   2.055   0.707
 5753SOL     OW19155   4.695  12.856   2.572
 5753SOL    HW119156   4.655  12.931   2.527
 5753SOL    HW219157   4.781  12.848   2.533
 5754SOL     OW19158  11.960   6.235  14.571
 5754SOL    HW119159  11.912   6.314  14.544
 5754SOL    HW219160  11.891   6.175  14.600
 5755SOL     OW19161   0.954  13.513   4.346
 5755SOL    HW119162   0.897  13.439   4.326
 5755SOL    HW219163   0.972  13.505   4.440
 5756SOL     OW19164   2.572   5.972   4.051
 5756SOL    HW119165   2.636   6.043   4.049
 5756SOL    HW219166   2.490   6.013   4.026
 5757SOL     OW19167  10.978   9.444   4.359
 5757SOL    HW119168  10.965   9.539   4.366
 5757SOL    HW219169  10.981   9.413   4.449
 5758SOL     OW19170   5.644  12.983   3.292
 5758SOL    HW119171   5.710  13.047   3.317
 5758SOL    HW219172   5.562  13.033   3.289
 5759SOL     OW19173   3.094   1.806   5.582
 5759SOL    HW119174   3.147   1.783   5.658
 5759SOL    HW219175   3.021   1.744   5.584
 5760SOL     OW19176  10.315  10.576  11.411
 5760SOL    HW119177  10.378  10.638  11.448
 5760SOL    HW219178  10.280  10.622  11.334
 5761SOL     OW19179   5.686   7.254   6.892
 5761SOL    HW119180   5.722   7.330   6.846
 5761SOL    HW219181   5.616   7.289   6.947
 5762SOL     OW19182   4.335   7.406   5.231
 5762SOL    HW119183   4.392   7.459   5.175
 5762SOL    HW219184   4.272   7.469   5.267
 5763SOL     OW19185   7.194   4.463   9.585
 5763SOL    HW119186   7.279   4.503   9.570
 5763SOL    HW219187   7.170   4.489   9.674
 5764SOL     OW19188   1.060  10.459   3.462
 5764SOL    HW119189   0.969  10.447   3.488
 5764SOL    HW219190   1.069  10.553   3.448
 5765SOL     OW19191  14.705   1.034  12.081
 5765SOL    HW119192  14.765   0.961  12.094
 5765SOL    HW219193  14.762   1.111  12.078
 5766SOL     OW19194  13.897  11.840   8.553
 5766SOL    HW119195  13.890  11.855   8.459
 5766SOL    HW219196  13.897  11.744   8.562
 5767SOL     OW19197  11.087   9.429  11.476
 5767SOL    HW119198  11.075   9.357  11.414
 5767SOL    HW219199  11.024   9.411  11.546
 5768SOL     OW19200   4.821   7.309   9.838
 5768SOL    HW119201   4.849   7.399   9.822
 5768SOL    HW219202   4.896   7.255   9.812
 5769SOL     OW19203   8.944  11.337   9.591
 5769SOL    HW119204   8.909  11.424   9.576
 5769SOL    HW219205   9.035  11.342   9.563
 5770SOL     OW19206  12.820   2.688  11.564
 5770SOL    HW119207  12.848   2.698  11.655
 5770SOL    HW219208  12.881   2.743  11.514
 5771SOL     OW19209   4.499   6.976   1.933
 5771SOL    HW119210   4.562   7.041   1.963
 5771SOL    HW219211   4.547   6.922   1.871
 5772SOL     OW19212  12.285  13.714   0.202
 5772SOL    HW119213  12.252  13.668   0.279
 5772SOL    HW219214  12.370  13.749   0.230
 5773SOL     OW19215  14.458  13.288   2.155
 5773SOL    HW119216  14.495  13.225   2.093
 5773SOL    HW219217  14.517  13.364   2.150
 5774SOL     OW19218   5.834   3.484   8.380
 5774SOL    HW119219   5.800   3.569   8.352
 5774SOL    HW219220   5.781   3.461   8.456
 5775SOL     OW19221   3.260  10.654   0.175
 5775SOL    HW119222   3.201  10.649   0.250
 5775SOL    HW219223   3.267  10.747   0.155
 5776SOL     OW19224   9.600  13.958  11.095
 5776SOL    HW119225   9.649  13.891  11.143
 5776SOL    HW219226   9.556  14.008  11.163
 5777SOL     OW19227   1.518  13.580   1.584
 5777SOL    HW119228   1.485  13.536   1.505
 5777SOL    HW219229   1.534  13.670   1.557
 5778SOL     OW19230   9.994  14.595   7.923
 5778SOL    HW119231   9.920  14.641   7.883
 5778SOL    HW219232  10.066  14.657   7.917
 5779SOL     OW19233   8.235   3.621   3.387
 5779SOL    HW119234   8.160   3.571   3.419
 5779SOL    HW219235   8.200   3.707   3.365
 5780SOL     OW19236  14.353  14.401   7.870
 5780SOL    HW119237  14.315  14.462   7.806
 5780SOL    HW219238  14.405  14.457   7.927
 5781SOL     OW19239   0.048   0.913  13.490
 5781SOL    HW119240   0.046   0.835  13.546
 5781SOL    HW219241   0.113   0.969  13.531
 5782SOL     OW19242   4.084   5.321  10.196
 5782SOL    HW119243   4.163   5.372  10.212
 5782SOL    HW219244   4.051   5.300  10.283
 5783SOL     OW19245   3.979   0.341  13.194
 5783SOL    HW119246   3.976   0.364  13.287
 5783SOL    HW219247   3.987   0.425  13.149
 5784SOL     OW19248   0.553   1.051  12.830
 5784SOL    HW119249   0.552   0.987  12.901
 5784SOL    HW219250   0.473   1.102  12.843
 5785SOL     OW19251  14.856  14.064   9.814
 5785SOL    HW119252  14.837  14.113   9.894
 5785SOL    HW219253  14.799  14.103   9.748
 5786SOL     OW19254   9.037  11.426   6.114
 5786SOL    HW119255   9.056  11.359   6.048
 5786SOL    HW219256   9.090  11.501   6.089
 5787SOL     OW19257   7.505   9.920   8.434
 5787SOL    HW119258   7.565   9.878   8.374
 5787SOL    HW219259   7.472   9.850   8.489
 5788SOL     OW19260  12.542  14.632   7.022
 5788SOL    HW119261  12.564  14.593   7.107
 5788SOL    HW219262  12.461  14.680   7.038
 5789SOL     OW19263  12.911   4.969   1.977
 5789SOL    HW119264  12.986   5.026   1.961
 5789SOL    HW219265  12.923   4.895   1.916
 5790SOL     OW19266  13.616   9.058   4.089
 5790SOL    HW119267  13.560   8.982   4.106
 5790SOL    HW219268  13.663   9.036   4.009
 5791SOL     OW19269   3.736   4.813   7.097
 5791SOL    HW119270   3.816   4.834   7.144
 5791SOL    HW219271   3.753   4.727   7.059
 5792SOL     OW19272   3.708   4.033   0.071
 5792SOL    HW119273   3.634   3.973   0.068
 5792SOL    HW219274   3.737   4.040  14.855
 5793SOL     OW19275   5.322  14.499   8.493
 5793SOL    HW119276   5.229  14.487   8.471
 5793SOL    HW219277   5.339  14.591   8.473
 5794SOL     OW19278   0.421   1.023   3.690
 5794SOL    HW119279   0.398   1.001   3.600
 5794SOL    HW219280   0.455   0.941   3.727
 5795SOL     OW19281  14.581   8.500   0.209
 5795SOL    HW119282  14.630   8.548   0.276
 5795SOL    HW219283  14.551   8.421   0.253
 5796SOL     OW19284   3.424  10.511   4.165
 5796SOL    HW119285   3.439  10.449   4.236
 5796SOL    HW219286   3.378  10.584   4.207
 5797SOL     OW19287   5.504   7.644  13.437
 5797SOL    HW119288   5.500   7.625  13.343
 5797SOL    HW219289   5.597   7.660  13.453
 5798SOL     OW19290   1.649   5.419  11.630
 5798SOL    HW119291   1.610   5.476  11.696
 5798SOL    HW219292   1.646   5.331  11.669
 5799SOL     OW19293   7.745   8.891  11.631
 5799SOL    HW119294   7.678   8.822  11.628
 5799SOL    HW219295   7.774   8.900  11.540
 5800SOL     OW19296   4.605  11.517   0.632
 5800SOL    HW119297   4.561  11.600   0.648
 5800SOL    HW219298   4.680  11.517   0.691
 5801SOL     OW19299  11.979   9.450   5.307
 5801SOL    HW119300  12.013   9.484   5.390
 5801SOL    HW219301  12.041   9.380   5.283
 5802SOL     OW19302  10.467   9.754   3.714
 5802SOL    HW119303  10.441   9.772   3.804
 5802SOL    HW219304  10.399   9.697   3.680
 5803SOL     OW19305  12.230   9.863   0.403
 5803SOL    HW119306  12.297   9.915   0.358
 5803SOL    HW219307  12.275   9.782   0.427
 5804SOL     OW19308  14.600   1.254   6.604
 5804SOL    HW119309  14.549   1.335   6.613
 5804SOL    HW219310  14.568   1.197   6.672
 5805SOL     OW19311  12.619  13.911   4.169
 5805SOL    HW119312  12.657  13.832   4.207
 5805SOL    HW219313  12.525  13.900   4.180
 5806SOL     OW19314   1.656  13.599  13.910
 5806SOL    HW119315   1.612  13.526  13.866
 5806SOL    HW219316   1.673  13.661  13.839
 5807SOL     OW19317  10.878  10.782  14.316
 5807SOL    HW119318  10.952  10.737  14.274
 5807SOL    HW219319  10.901  10.875  14.312
 5808SOL     OW19320   8.643  13.591  13.512
 5808SOL    HW119321   8.689  13.534  13.451
 5808SOL    HW219322   8.554  13.598  13.477
 5809SOL     OW19323  11.819   3.048   7.533
 5809SOL    HW119324  11.814   2.990   7.609
 5809SOL    HW219325  11.732   3.086   7.526
 5810SOL     OW19326   2.503  10.408   5.811
 5810SOL    HW119327   2.498  10.488   5.864
 5810SOL    HW219328   2.597  10.386   5.811
 5811SOL     OW19329   7.601   9.702  10.885
 5811SOL    HW119330   7.585   9.626  10.942
 5811SOL    HW219331   7.694   9.698  10.866
 5812SOL     OW19332   4.434  11.389   5.205
 5812SOL    HW119333   4.396  11.477   5.212
 5812SOL    HW219334   4.413  11.347   5.289
 5813SOL     OW19335  10.203   0.754   3.963
 5813SOL    HW119336  10.166   0.765   3.876
 5813SOL    HW219337  10.166   0.671   3.994
 5814SOL     OW19338  10.111  13.986   8.435
 5814SOL    HW119339  10.070  14.019   8.355
 5814SOL    HW219340  10.142  14.065   8.480
 5815SOL     OW19341  11.591   2.067   8.385
 5815SOL    HW119342  11.541   2.092   8.463
 5815SOL    HW219343  11.601   2.147   8.335
 5816SOL     OW19344   4.659  11.423   5.995
 5816SOL    HW119345   4.716  11.382   5.929
 5816SOL    HW219346   4.697  11.398   6.079
 5817SOL     OW19347   1.535   5.272  10.438
 5817SOL    HW119348   1.521   5.242  10.348
 5817SOL    HW219349   1.524   5.367  10.434
 5818SOL     OW19350   3.790   2.086   8.284
 5818SOL    HW119351   3.852   2.158   8.268
 5818SOL    HW219352   3.801   2.065   8.377
 5819SOL     OW19353   2.797   5.822   5.509
 5819SOL    HW119354   2.704   5.815   5.528
 5819SOL    HW219355   2.800   5.868   5.425
 5820SOL     OW19356   0.864   9.860   7.794
 5820SOL    HW119357   0.820   9.784   7.833
 5820SOL    HW219358   0.911   9.900   7.867
 5821SOL     OW19359   8.703   0.568   3.232
 5821SOL    HW119360   8.763   0.522   3.290
 5821SOL    HW219361   8.624   0.582   3.284
 5822SOL     OW19362   5.451  10.816   1.588
 5822SOL    HW119363   5.536  10.785   1.557
 5822SOL    HW219364   5.470  10.853   1.675
 5823SOL     OW19365   9.832   8.624  13.655
 5823SOL    HW119366   9.906   8.564  13.665
 5823SOL    HW219367   9.801   8.608  13.566
 5824SOL     OW19368   5.551   4.143  10.629
 5824SOL    HW119369   5.613   4.087  10.582
 5824SOL    HW219370   5.583   4.232  10.614
 5825SOL     OW19371  12.739   8.223   5.757
 5825SOL    HW119372  12.824   8.256   5.786
 5825SOL    HW219373  12.760   8.149   5.701
 5826SOL     OW19374   9.118   3.154   5.446
 5826SOL    HW119375   9.167   3.181   5.368
 5826SOL    HW219376   9.121   3.231   5.504
 5827SOL     OW19377  10.928  13.550   0.747
 5827SOL    HW119378  10.941  13.514   0.835
 5827SOL    HW219379  10.860  13.496   0.708
 5828SOL     OW19380  11.587   1.138   2.453
 5828SOL    HW119381  11.597   1.058   2.506
 5828SOL    HW219382  11.646   1.201   2.494
 5829SOL     OW19383  11.870   1.141  11.179
 5829SOL    HW119384  11.796   1.199  11.197
 5829SOL    HW219385  11.851   1.104  11.093
 5830SOL     OW19386  11.118  14.806  11.215
 5830SOL    HW119387  11.051  14.802  11.147
 5830SOL    HW219388  11.151  14.716  11.221
 5831SOL     OW19389  10.284  11.671   1.978
 5831SOL    HW119390  10.290  11.626   2.062
 5831SOL    HW219391  10.210  11.628   1.934
 5832SOL     OW19392   9.828   4.214  12.045
 5832SOL    HW119393   9.792   4.260  12.121
 5832SOL    HW219394   9.782   4.130  12.043
 5833SOL     OW19395  13.226   9.504   9.025
 5833SOL    HW119396  13.170   9.466   9.093
 5833SOL    HW219397  13.244   9.594   9.055
 5834SOL     OW19398   9.067  13.696  11.627
 5834SOL    HW119399   9.097  13.676  11.539
 5834SOL    HW219400   9.081  13.790  11.637
 5835SOL     OW19401   6.702   6.214  10.623
 5835SOL    HW119402   6.767   6.267  10.668
 5835SOL    HW219403   6.629   6.274  10.606
 5836SOL     OW19404   0.883   8.279   0.990
 5836SOL    HW119405   0.938   8.203   1.009
 5836SOL    HW219406   0.932   8.353   1.027
 5837SOL     OW19407   0.233  12.576   0.269
 5837SOL    HW119408   0.217  12.518   0.344
 5837SOL    HW219409   0.263  12.518   0.199
 5838SOL     OW19410   9.964   6.653   2.924
 5838SOL    HW119411   9.902   6.725   2.911
 5838SOL    HW219412   9.952   6.627   3.015
 5839SOL     OW19413   7.553   9.306   0.055
 5839SOL    HW119414   7.620   9.372   0.069
 5839SOL    HW219415   7.539   9.267   0.142
 5840SOL     OW19416   4.098   4.422   5.009
 5840SOL    HW119417   4.041   4.351   4.980
 5840SOL    HW219418   4.094   4.418   5.105
 5841SOL     OW19419   0.150  12.022  11.725
 5841SOL    HW119420   0.107  12.049  11.806
 5841SOL    HW219421   0.213  11.955  11.752
 5842SOL     OW19422  14.559   8.424  14.787
 5842SOL    HW119423  14.535   8.333  14.804
 5842SOL    HW219424  14.601   8.453  14.868
 5843SOL     OW19425   6.162   8.684   3.559
 5843SOL    HW119426   6.244   8.645   3.531
 5843SOL    HW219427   6.146   8.755   3.497
 5844SOL     OW19428   0.419   4.336   3.970
 5844SOL    HW119429   0.361   4.290   4.030
 5844SOL    HW219430   0.490   4.370   4.025
 5845SOL     OW19431  14.673   1.010   5.195
 5845SOL    HW119432  14.740   1.077   5.187
 5845SOL    HW219433  14.658   0.980   5.105
 5846SOL     OW19434   2.216   2.178  13.061
 5846SOL    HW119435   2.199   2.085  13.080
 5846SOL    HW219436   2.260   2.210  13.139
 5847SOL     OW19437   5.179   0.085   9.118
 5847SOL    HW119438   5.207  14.870   9.103
 5847SOL    HW219439   5.101   0.077   9.172
 5848SOL     OW19440   7.890  10.590   1.856
 5848SOL    HW119441   7.914  10.504   1.823
 5848SOL    HW219442   7.973  10.634   1.874
 5849SOL     OW19443   0.947  12.920   5.057
 5849SOL    HW119444   1.020  12.948   5.002
 5849SOL    HW219445   0.961  12.964   5.141
 5850SOL     OW19446   1.189   4.609  12.628
 5850SOL    HW119447   1.214   4.517  12.622
 5850SOL    HW219448   1.223   4.649  12.547
 5851SOL     OW19449  11.412   2.528  10.033
 5851SOL    HW119450  11.367   2.527  10.118
 5851SOL    HW219451  11.388   2.612   9.994
 5852SOL     OW19452  11.978  11.546   7.084
 5852SOL    HW119453  12.018  11.556   6.997
 5852SOL    HW219454  11.905  11.487   7.070
 5853SOL     OW19455   2.603   3.641   1.662
 5853SOL    HW119456   2.560   3.648   1.577
 5853SOL    HW219457   2.577   3.556   1.696
 5854SOL     OW19458   6.590   9.195   3.644
 5854SOL    HW119459   6.527   9.138   3.689
 5854SOL    HW219460   6.672   9.145   3.644
 5855SOL     OW19461  10.707   3.686   2.050
 5855SOL    HW119462  10.647   3.679   1.976
 5855SOL    HW219463  10.731   3.779   2.053
 5856SOL     OW19464   0.857  13.696  10.017
 5856SOL    HW119465   0.908  13.646  10.082
 5856SOL    HW219466   0.804  13.756  10.070
 5857SOL     OW19467  12.776   2.076   7.194
 5857SOL    HW119468  12.832   2.130   7.139
 5857SOL    HW219469  12.696   2.127   7.204
 5858SOL     OW19470   0.709  11.003   0.373
 5858SOL    HW119471   0.711  10.966   0.462
 5858SOL    HW219472   0.631  10.965   0.333
 5859SOL     OW19473   1.624   9.997   7.713
 5859SOL    HW119474   1.573  10.078   7.712
 5859SOL    HW219475   1.712  10.025   7.688
 5860SOL     OW19476   6.208   4.457   4.918
 5860SOL    HW119477   6.281   4.519   4.918
 5860SOL    HW219478   6.169   4.466   4.831
 5861SOL     OW19479   5.629   5.741   7.438
 5861SOL    HW119480   5.618   5.787   7.522
 5861SOL    HW219481   5.540   5.719   7.411
 5862SOL     OW19482  12.019  13.884  13.757
 5862SOL    HW119483  12.107  13.865  13.790
 5862SOL    HW219484  11.970  13.910  13.835
 5863SOL     OW19485  11.200   8.207   8.873
 5863SOL    HW119486  11.160   8.214   8.960
 5863SOL    HW219487  11.251   8.126   8.877
 5864SOL     OW19488   3.735   8.026  12.232
 5864SOL    HW119489   3.726   8.038  12.327
 5864SOL    HW219490   3.827   8.003  12.220
 5865SOL     OW19491  13.443   5.831   9.982
 5865SOL    HW119492  13.498   5.814   9.906
 5865SOL    HW219493  13.428   5.745  10.021
 5866SOL     OW19494   2.060  12.692   9.402
 5866SOL    HW119495   2.003  12.616   9.415
 5866SOL    HW219496   2.146  12.654   9.383
 5867SOL     OW19497   3.441   1.554   4.478
 5867SOL    HW119498   3.419   1.623   4.416
 5867SOL    HW219499   3.462   1.601   4.559
 5868SOL     OW19500  13.693   6.954   3.080
 5868SOL    HW119501  13.636   7.008   3.136
 5868SOL    HW219502  13.748   6.906   3.142
 5869SOL     OW19503   7.461   7.082   2.007
 5869SOL    HW119504   7.514   7.146   1.959
 5869SOL    HW219505   7.496   7.083   2.096
 5870SOL     OW19506   2.123   4.676  13.282
 5870SOL    HW119507   2.057   4.740  13.255
 5870SOL    HW219508   2.145   4.701  13.372
 5871SOL     OW19509   1.824   3.885  12.779
 5871SOL    HW119510   1.909   3.927  12.789
 5871SOL    HW219511   1.837   3.796  12.813
 5872SOL     OW19512   0.357   4.980  14.213
 5872SOL    HW119513   0.276   5.013  14.254
 5872SOL    HW219514   0.327   4.908  14.157
 5873SOL     OW19515  12.741   1.624   4.089
 5873SOL    HW119516  12.782   1.640   4.174
 5873SOL    HW219517  12.800   1.563   4.045
 5874SOL     OW19518   8.756   8.482   9.854
 5874SOL    HW119519   8.734   8.476   9.947
 5874SOL    HW219520   8.850   8.462   9.850
 5875SOL     OW19521   4.929  14.238   4.991
 5875SOL    HW119522   4.940  14.306   5.057
 5875SOL    HW219523   4.932  14.285   4.907
 5876SOL     OW19524   7.499   7.578   6.627
 5876SOL    HW119525   7.555   7.636   6.576
 5876SOL    HW219526   7.530   7.490   6.607
 5877SOL     OW19527  12.783   2.047   2.353
 5877SOL    HW119528  12.787   2.093   2.269
 5877SOL    HW219529  12.838   1.970   2.342
 5878SOL     OW19530   6.173  14.853   7.905
 5878SOL    HW119531   6.265  14.855   7.879
 5878SOL    HW219532   6.125  14.850   7.822
 5879SOL     OW19533   5.621  13.786  11.114
 5879SOL    HW119534   5.535  13.761  11.081
 5879SOL    HW219535   5.603  13.851  11.182
 5880SOL     OW19536   8.291   9.081   1.624
 5880SOL    HW119537   8.340   9.115   1.699
 5880SOL    HW219538   8.217   9.141   1.614
 5881SOL     OW19539  11.833  14.094   9.829
 5881SOL    HW119540  11.792  14.010   9.850
 5881SOL    HW219541  11.908  14.099   9.889
 5882SOL     OW19542  13.749  14.864  13.838
 5882SOL    HW119543  13.666  14.847  13.882
 5882SOL    HW219544  13.728   0.053  13.770
 5883SOL     OW19545  10.219  12.635   8.671
 5883SOL    HW119546  10.313  12.639   8.657
 5883SOL    HW219547  10.181  12.629   8.584
 5884SOL     OW19548   3.540   7.923  11.093
 5884SOL    HW119549   3.445   7.913  11.094
 5884SOL    HW219550   3.574   7.839  11.124
 5885SOL     OW19551   3.419  13.065   8.835
 5885SOL    HW119552   3.506  13.104   8.821
 5885SOL    HW219553   3.425  12.978   8.795
 5886SOL     OW19554   8.957  13.242  14.704
 5886SOL    HW119555   8.940  13.327  14.663
 5886SOL    HW219556   8.886  13.231  14.766
 5887SOL     OW19557   9.831  14.059  13.688
 5887SOL    HW119558   9.825  14.093  13.778
 5887SOL    HW219559   9.747  14.081  13.649
 5888SOL     OW19560   9.094  11.011   3.766
 5888SOL    HW119561   9.050  11.091   3.795
 5888SOL    HW219562   9.163  11.041   3.707
 5889SOL     OW19563   1.675  13.441  14.578
 5889SOL    HW119564   1.710  13.522  14.541
 5889SOL    HW219565   1.699  13.445  14.671
 5890SOL     OW19566   3.429   5.773  11.750
 5890SOL    HW119567   3.433   5.810  11.662
 5890SOL    HW219568   3.452   5.846  11.807
 5891SOL     OW19569   8.624  13.739   1.910
 5891SOL    HW119570   8.631  13.831   1.936
 5891SOL    HW219571   8.576  13.741   1.827
 5892SOL     OW19572  13.834   5.340  13.274
 5892SOL    HW119573  13.827   5.394  13.194
 5892SOL    HW219574  13.855   5.403  13.343
 5893SOL     OW19575  12.258  13.252  10.199
 5893SOL    HW119576  12.249  13.157  10.200
 5893SOL    HW219577  12.272  13.275  10.291
 5894SOL     OW19578   7.962  13.818   0.627
 5894SOL    HW119579   7.880  13.861   0.651
 5894SOL    HW219580   7.964  13.739   0.680
 5895SOL     OW19581   3.371   8.536   9.995
 5895SOL    HW119582   3.429   8.573   9.929
 5895SOL    HW219583   3.372   8.442   9.978
 5896SOL     OW19584   5.885   5.674  10.356
 5896SOL    HW119585   5.973   5.698  10.328
 5896SOL    HW219586   5.828   5.734  10.307
 5897SOL     OW19587   4.027  13.469   3.875
 5897SOL    HW119588   4.045  13.551   3.920
 5897SOL    HW219589   4.112  13.426   3.868
 5898SOL     OW19590   5.600   6.841   6.618
 5898SOL    HW119591   5.604   6.852   6.713
 5898SOL    HW219592   5.542   6.765   6.605
 5899SOL     OW19593   2.435  11.420   9.979
 5899SOL    HW119594   2.521  11.434  10.019
 5899SOL    HW219595   2.390  11.362  10.041
 5900SOL     OW19596  13.114   4.096  12.959
 5900SOL    HW119597  13.034   4.053  12.988
 5900SOL    HW219598  13.098   4.189  12.975
 5901SOL     OW19599   5.184  10.742   1.574
 5901SOL    HW119600   5.275  10.766   1.592
 5901SOL    HW219601   5.188  10.684   1.498
 5902SOL     OW19602   0.167   9.382  11.054
 5902SOL    HW119603   0.089   9.374  10.998
 5902SOL    HW219604   0.163   9.471  11.089
 5903SOL     OW19605   3.201  10.619  14.367
 5903SOL    HW119606   3.222  10.563  14.442
 5903SOL    HW219607   3.106  10.616  14.361
 5904SOL     OW19608   7.483  12.243   5.186
 5904SOL    HW119609   7.470  12.298   5.263
 5904SOL    HW219610   7.574  12.215   5.191
 5905SOL     OW19611  14.824   4.053  14.523
 5905SOL    HW119612   0.002   4.132  14.535
 5905SOL    HW219613   0.008   3.990  14.482
 5906SOL     OW19614  13.000   8.541  13.216
 5906SOL    HW119615  13.084   8.495  13.211
 5906SOL    HW219616  12.934   8.472  13.213
 5907SOL     OW19617   3.035   0.282   1.502
 5907SOL    HW119618   3.054   0.280   1.408
 5907SOL    HW219619   3.111   0.328   1.540
 5908SOL     OW19620   5.491   6.201   0.231
 5908SOL    HW119621   5.513   6.294   0.235
 5908SOL    HW219622   5.422   6.195   0.165
 5909SOL     OW19623   6.399   1.358  14.270
 5909SOL    HW119624   6.450   1.307  14.207
 5909SOL    HW219625   6.454   1.434  14.290
 5910SOL     OW19626  12.745  12.660   2.211
 5910SOL    HW119627  12.709  12.604   2.281
 5910SOL    HW219628  12.813  12.711   2.254
 5911SOL     OW19629   2.825   5.386  10.394
 5911SOL    HW119630   2.866   5.336  10.465
 5911SOL    HW219631   2.732   5.364  10.399
 5912SOL     OW19632   3.341  10.696  12.457
 5912SOL    HW119633   3.407  10.766  12.461
 5912SOL    HW219634   3.384  10.627  12.407
 5913SOL     OW19635   0.125   2.587   0.326
 5913SOL    HW119636   0.121   2.498   0.292
 5913SOL    HW219637   0.042   2.598   0.373
 5914SOL     OW19638   4.193   9.727   2.029
 5914SOL    HW119639   4.273   9.676   2.016
 5914SOL    HW219640   4.195   9.751   2.122
 5915SOL     OW19641   8.104   0.511   8.614
 5915SOL    HW119642   8.111   0.424   8.655
 5915SOL    HW219643   8.115   0.572   8.686
 5916SOL     OW19644   1.766   0.695  14.610
 5916SOL    HW119645   1.732   0.681  14.521
 5916SOL    HW219646   1.848   0.645  14.612
 5917SOL     OW19647   9.590  14.720   2.525
 5917SOL    HW119648   9.651  14.680   2.587
 5917SOL    HW219649   9.512  14.740   2.577
 5918SOL     OW19650   7.016   5.416  12.104
 5918SOL    HW119651   7.098   5.465  12.098
 5918SOL    HW219652   7.026   5.346  12.040
 5919SOL     OW19653   5.892   2.739   3.968
 5919SOL    HW119654   5.880   2.677   3.896
 5919SOL    HW219655   5.987   2.752   3.973
 5920SOL     OW19656   9.771   2.236  13.749
 5920SOL    HW119657   9.816   2.163  13.791
 5920SOL    HW219658   9.841   2.295  13.720
 5921SOL     OW19659  10.561   0.101   1.417
 5921SOL    HW119660  10.537   0.010   1.432
 5921SOL    HW219661  10.647   0.110   1.459
 5922SOL     OW19662  14.073   2.123   7.579
 5922SOL    HW119663  14.159   2.123   7.620
 5922SOL    HW219664  14.090   2.099   7.488
 5923SOL     OW19665   2.280   9.727   4.946
 5923SOL    HW119666   2.351   9.665   4.965
 5923SOL    HW219667   2.324   9.811   4.936
 5924SOL     OW19668   1.258   6.829  14.382
 5924SOL    HW119669   1.186   6.851  14.322
 5924SOL    HW219670   1.337   6.840  14.329
 5925SOL     OW19671  10.421  14.020   5.042
 5925SOL    HW119672  10.432  13.937   4.995
 5925SOL    HW219673  10.505  14.035   5.085
 5926SOL     OW19674   0.137   1.441  13.072
 5926SOL    HW119675   0.102   1.367  13.121
 5926SOL    HW219676   0.086   1.442  12.991
 5927SOL     OW19677  14.437   0.976   1.569
 5927SOL    HW119678  14.357   1.023   1.590
 5927SOL    HW219679  14.479   0.960   1.653
 5928SOL     OW19680   2.775  11.415  12.315
 5928SOL    HW119681   2.804  11.429  12.405
 5928SOL    HW219682   2.824  11.338  12.286
 5929SOL     OW19683  14.511  12.512   6.436
 5929SOL    HW119684  14.522  12.591   6.383
 5929SOL    HW219685  14.444  12.535   6.500
 5930SOL     OW19686   7.279   6.602  11.959
 5930SOL    HW119687   7.226   6.634  12.033
 5930SOL    HW219688   7.367   6.636  11.976
 5931SOL     OW19689   2.008   8.759   5.076
 5931SOL    HW119690   2.008   8.688   5.140
 5931SOL    HW219691   2.098   8.790   5.075
 5932SOL     OW19692   5.896  14.016   5.540
 5932SOL    HW119693   5.924  14.020   5.631
 5932SOL    HW219694   5.832  13.945   5.538
 5933SOL     OW19695   3.358   8.259   7.969
 5933SOL    HW119696   3.440   8.214   7.989
 5933SOL    HW219697   3.290   8.202   8.003
 5934SOL     OW19698  13.925   0.909   8.622
 5934SOL    HW119699  13.869   0.907   8.544
 5934SOL    HW219700  14.010   0.877   8.591
 5935SOL     OW19701  11.846   3.133  11.067
 5935SOL    HW119702  11.874   3.046  11.096
 5935SOL    HW219703  11.928   3.179  11.050
 5936SOL     OW19704   6.081  12.160   5.555
 5936SOL    HW119705   6.169  12.123   5.550
 5936SOL    HW219706   6.091  12.237   5.612
 5937SOL     OW19707  12.382   7.622   5.906
 5937SOL    HW119708  12.338   7.703   5.883
 5937SOL    HW219709  12.466   7.650   5.942
 5938SOL     OW19710   4.881  10.123   7.305
 5938SOL    HW119711   4.854  10.043   7.260
 5938SOL    HW219712   4.971  10.105   7.334
 5939SOL     OW19713   0.295  12.620   5.437
 5939SOL    HW119714   0.262  12.530   5.433
 5939SOL    HW219715   0.297  12.640   5.531
 5940SOL     OW19716   7.069   7.588   2.800
 5940SOL    HW119717   6.980   7.624   2.797
 5940SOL    HW219718   7.097   7.586   2.709
 5941SOL     OW19719   4.840   5.808   8.204
 5941SOL    HW119720   4.794   5.827   8.285
 5941SOL    HW219721   4.844   5.712   8.201
 5942SOL     OW19722   6.485  14.114   7.113
 5942SOL    HW119723   6.443  14.174   7.174
 5942SOL    HW219724   6.474  14.028   7.152
 5943SOL     OW19725  14.752   9.878   7.394
 5943SOL    HW119726  14.758   9.901   7.487
 5943SOL    HW219727  14.659   9.869   7.377
 5944SOL     OW19728   1.717   3.673   0.952
 5944SOL    HW119729   1.654   3.743   0.937
 5944SOL    HW219730   1.795   3.700   0.903
 5945SOL     OW19731   7.675  14.557   2.103
 5945SOL    HW119732   7.655  14.468   2.133
 5945SOL    HW219733   7.696  14.605   2.183
 5946SOL     OW19734   7.532  10.705  12.755
 5946SOL    HW119735   7.463  10.769  12.739
 5946SOL    HW219736   7.491  10.638  12.810
 5947SOL     OW19737   4.379   7.881  10.138
 5947SOL    HW119738   4.314   7.917  10.198
 5947SOL    HW219739   4.328   7.843  10.067
 5948SOL     OW19740   1.792   1.327   9.855
 5948SOL    HW119741   1.766   1.364   9.939
 5948SOL    HW219742   1.799   1.403   9.796
 5949SOL     OW19743   4.485  14.632  10.979
 5949SOL    HW119744   4.462  14.545  10.946
 5949SOL    HW219745   4.467  14.627  11.073
 5950SOL     OW19746   5.826  10.616   9.393
 5950SOL    HW119747   5.824  10.538   9.448
 5950SOL    HW219748   5.915  10.650   9.403
 5951SOL     OW19749   4.592  13.229  11.420
 5951SOL    HW119750   4.618  13.244  11.329
 5951SOL    HW219751   4.497  13.221  11.417
 5952SOL     OW19752   7.651   8.131  12.550
 5952SOL    HW119753   7.569   8.136  12.500
 5952SOL    HW219754   7.624   8.152  12.640
 5953SOL     OW19755   2.494   9.363   0.121
 5953SOL    HW119756   2.533   9.341   0.036
 5953SOL    HW219757   2.427   9.427   0.100
 5954SOL     OW19758  14.555  13.445   0.229
 5954SOL    HW119759  14.471  13.399   0.234
 5954SOL    HW219760  14.613  13.394   0.286
 5955SOL     OW19761   1.546  12.819  10.960
 5955SOL    HW119762   1.524  12.789  11.048
 5955SOL    HW219763   1.638  12.793  10.949
 5956SOL     OW19764  14.652   6.900  12.596
 5956SOL    HW119765  14.724   6.845  12.626
 5956SOL    HW219766  14.594   6.841  12.550
 5957SOL     OW19767   2.147   4.448   2.286
 5957SOL    HW119768   2.160   4.415   2.374
 5957SOL    HW219769   2.126   4.541   2.298
 5958SOL     OW19770  11.211   6.524   6.137
 5958SOL    HW119771  11.189   6.576   6.060
 5958SOL    HW219772  11.307   6.523   6.138
 5959SOL     OW19773   1.551   9.629  11.577
 5959SOL    HW119774   1.484   9.694  11.556
 5959SOL    HW219775   1.502   9.556  11.616
 5960SOL     OW19776  12.423   9.273   6.098
 5960SOL    HW119777  12.497   9.216   6.078
 5960SOL    HW219778  12.463   9.358   6.120
 5961SOL     OW19779   6.037   7.935  12.499
 5961SOL    HW119780   6.084   7.942  12.582
 5961SOL    HW219781   5.951   7.901  12.524
 5962SOL     OW19782  12.811   1.551   6.367
 5962SOL    HW119783  12.868   1.627   6.366
 5962SOL    HW219784  12.724   1.587   6.385
 5963SOL     OW19785   5.567   9.421  10.223
 5963SOL    HW119786   5.500   9.424  10.292
 5963SOL    HW219787   5.650   9.414  10.271
 5964SOL     OW19788   1.758   4.234  12.003
 5964SOL    HW119789   1.773   4.153  12.051
 5964SOL    HW219790   1.846   4.264  11.979
 5965SOL     OW19791   1.144   0.811   3.506
 5965SOL    HW119792   1.176   0.829   3.595
 5965SOL    HW219793   1.088   0.886   3.486
 5966SOL     OW19794   5.082   3.599   9.894
 5966SOL    HW119795   5.015   3.596   9.963
 5966SOL    HW219796   5.145   3.663   9.925
 5967SOL     OW19797  13.680   5.516  13.046
 5967SOL    HW119798  13.704   5.560  12.964
 5967SOL    HW219799  13.697   5.581  13.114
 5968SOL     OW19800   4.870  11.944   5.747
 5968SOL    HW119801   4.961  11.925   5.725
 5968SOL    HW219802   4.870  11.948   5.843
 5969SOL     OW19803   3.971  10.140   6.481
 5969SOL    HW119804   3.900  10.161   6.542
 5969SOL    HW219805   4.011  10.061   6.516
 5970SOL     OW19806  11.508   9.649   1.400
 5970SOL    HW119807  11.543   9.676   1.485
 5970SOL    HW219808  11.472   9.561   1.416
 5971SOL     OW19809   8.999   8.226   5.296
 5971SOL    HW119810   8.939   8.179   5.354
 5971SOL    HW219811   9.003   8.173   5.217
 5972SOL     OW19812   1.631   4.563  14.510
 5972SOL    HW119813   1.706   4.581  14.452
 5972SOL    HW219814   1.604   4.474  14.485
 5973SOL     OW19815  14.277   2.632  12.376
 5973SOL    HW119816  14.302   2.539  12.380
 5973SOL    HW219817  14.353   2.675  12.336
 5974SOL     OW19818  10.285   6.958  10.412
 5974SOL    HW119819  10.195   6.976  10.387
 5974SOL    HW219820  10.289   6.862  10.420
 5975SOL     OW19821  14.351   8.528  10.599
 5975SOL    HW119822  14.384   8.598  10.542
 5975SOL    HW219823  14.392   8.448  10.566
 5976SOL     OW19824  10.515  11.080  11.295
 5976SOL    HW119825  10.591  11.138  11.281
 5976SOL    HW219826  10.475  11.072  11.208
 5977SOL     OW19827   5.822   9.266   1.807
 5977SOL    HW119828   5.816   9.171   1.817
 5977SOL    HW219829   5.764   9.301   1.874
 5978SOL     OW19830   2.609   6.654   8.709
 5978SOL    HW119831   2.661   6.734   8.715
 5978SOL    HW219832   2.560   6.651   8.791
 5979SOL     OW19833   6.236   1.986   7.198
 5979SOL    HW119834   6.235   2.062   7.140
 5979SOL    HW219835   6.267   2.021   7.282
 5980SOL     OW19836  12.003   8.992  14.830
 5980SOL    HW119837  11.996   9.074   0.003
 5980SOL    HW219838  12.088   8.996  14.787
 5981SOL     OW19839   4.342   0.373   4.172
 5981SOL    HW119840   4.282   0.310   4.132
 5981SOL    HW219841   4.343   0.447   4.111
 5982SOL     OW19842   0.561   5.937  12.280
 5982SOL    HW119843   0.523   6.020  12.251
 5982SOL    HW219844   0.486   5.878  12.290
 5983SOL     OW19845  14.725   6.274   3.298
 5983SOL    HW119846  14.723   6.370   3.298
 5983SOL    HW219847  14.732   6.250   3.206
 5984SOL     OW19848   9.611  10.506   3.104
 5984SOL    HW119849   9.657  10.583   3.072
 5984SOL    HW219850   9.660  10.432   3.069
 5985SOL     OW19851  14.067  13.439   3.468
 5985SOL    HW119852  14.086  13.532   3.452
 5985SOL    HW219853  14.035  13.436   3.558
 5986SOL     OW19854   8.388  14.061  10.679
 5986SOL    HW119855   8.419  14.029  10.764
 5986SOL    HW219856   8.294  14.045  10.681
 5987SOL     OW19857  11.770  10.071   1.365
 5987SOL    HW119858  11.825  10.062   1.287
 5987SOL    HW219859  11.682  10.047   1.335
 5988SOL     OW19860  13.819  12.093   5.334
 5988SOL    HW119861  13.751  12.127   5.392
 5988SOL    HW219862  13.824  11.999   5.355
 5989SOL     OW19863   0.869   2.325  13.444
 5989SOL    HW119864   0.820   2.390  13.394
 5989SOL    HW219865   0.960   2.354  13.436
 5990SOL     OW19866   1.092   6.454   7.046
 5990SOL    HW119867   1.086   6.369   7.090
 5990SOL    HW219868   1.174   6.450   6.996
 5991SOL     OW19869   4.928   1.120   1.839
 5991SOL    HW119870   4.950   1.047   1.782
 5991SOL    HW219871   4.996   1.185   1.823
 5992SOL     OW19872   8.820   2.983  12.041
 5992SOL    HW119873   8.724   2.980  12.032
 5992SOL    HW219874   8.845   3.066  12.000
 5993SOL     OW19875  14.636   0.769  10.884
 5993SOL    HW119876  14.705   0.710  10.914
 5993SOL    HW219877  14.556   0.738  10.928
 5994SOL     OW19878  14.263   9.570  11.620
 5994SOL    HW119879  14.305   9.579  11.705
 5994SOL    HW219880  14.322   9.615  11.559
 5995SOL     OW19881  14.095   8.312   5.887
 5995SOL    HW119882  14.189   8.300   5.874
 5995SOL    HW219883  14.072   8.248   5.954
 5996SOL     OW19884   6.889   5.877   5.013
 5996SOL    HW119885   6.879   5.782   5.009
 5996SOL    HW219886   6.883   5.898   5.106
 5997SOL     OW19887   6.265  14.519   6.996
 5997SOL    HW119888   6.236  14.487   6.911
 5997SOL    HW219889   6.186  14.516   7.051
 5998SOL     OW19890   4.208   3.212   0.255
 5998SOL    HW119891   4.238   3.197   0.344
 5998SOL    HW219892   4.113   3.198   0.259
 5999SOL     OW19893  13.080  12.660   4.602
 5999SOL    HW119894  13.126  12.742   4.622
 5999SOL    HW219895  12.990  12.686   4.584
 6000SOL     OW19896   3.022   7.660   2.669
 6000SOL    HW119897   3.097   7.605   2.692
 6000SOL    HW219898   2.953   7.598   2.646
 6001SOL     OW19899   4.078   9.987  13.716
 6001SOL    HW119900   4.059   9.924  13.647
 6001SOL    HW219901   4.165   9.962  13.748
 6002SOL     OW19902   5.140   1.121   9.471
 6002SOL    HW119903   5.112   1.055   9.534
 6002SOL    HW219904   5.128   1.079   9.385
 6003SOL     OW19905   3.430   2.593   5.942
 6003SOL    HW119906   3.409   2.528   5.875
 6003SOL    HW219907   3.401   2.554   6.024
 6004SOL     OW19908   1.573  11.065  13.370
 6004SOL    HW119909   1.542  11.144  13.327
 6004SOL    HW219910   1.668  11.077  13.378
 6005SOL     OW19911   8.490   8.889  12.284
 6005SOL    HW119912   8.580   8.921  12.283
 6005SOL    HW219913   8.467   8.883  12.377
 6006SOL     OW19914  12.944   1.790  13.855
 6006SOL    HW119915  12.911   1.862  13.802
 6006SOL    HW219916  13.010   1.829  13.912
 6007SOL     OW19917  13.305   6.732   0.016
 6007SOL    HW119918  13.312   6.784  14.811
 6007SOL    HW219919  13.321   6.795   0.086
 6008SOL     OW19920  11.526  13.133  11.929
 6008SOL    HW119921  11.449  13.078  11.942
 6008SOL    HW219922  11.535  13.140  11.833
 6009SOL     OW19923  12.822   8.276  12.310
 6009SOL    HW119924  12.895   8.300  12.253
 6009SOL    HW219925  12.830   8.334  12.385
 6010SOL     OW19926   7.421   7.773  13.073
 6010SOL    HW119927   7.446   7.841  13.011
 6010SOL    HW219928   7.380   7.820  13.145
 6011SOL     OW19929   6.382   1.731  12.943
 6011SOL    HW119930   6.331   1.687  13.011
 6011SOL    HW219931   6.473   1.708  12.963
 6012SOL     OW19932   6.367   6.273   5.280
 6012SOL    HW119933   6.402   6.190   5.249
 6012SOL    HW219934   6.359   6.326   5.200
 6013SOL     OW19935   7.989   0.098   3.514
 6013SOL    HW119936   7.955   0.171   3.462
 6013SOL    HW219937   8.076   0.082   3.479
 6014SOL     OW19938   3.021  14.628  11.130
 6014SOL    HW119939   2.942  14.664  11.170
 6014SOL    HW219940   3.093  14.674  11.173
 6015SOL     OW19941  11.147  13.911   5.329
 6015SOL    HW119942  11.139  13.895   5.235
 6015SOL    HW219943  11.123  14.003   5.340
 6016SOL     OW19944   7.350   9.933   2.495
 6016SOL    HW119945   7.415  10.002   2.486
 6016SOL    HW219946   7.378   9.883   2.572
 6017SOL     OW19947   6.700  10.904  14.075
 6017SOL    HW119948   6.614  10.936  14.104
 6017SOL    HW219949   6.682  10.865  13.990
 6018SOL     OW19950   5.161   8.646  10.028
 6018SOL    HW119951   5.172   8.556  10.059
 6018SOL    HW219952   5.113   8.637   9.945
 6019SOL     OW19953  12.050   6.771   8.436
 6019SOL    HW119954  12.048   6.708   8.363
 6019SOL    HW219955  12.086   6.851   8.397
 6020SOL     OW19956   2.212   9.159   5.300
 6020SOL    HW119957   2.277   9.126   5.238
 6020SOL    HW219958   2.130   9.161   5.250
 6021SOL     OW19959   7.950  14.771   8.977
 6021SOL    HW119960   7.923  14.861   8.960
 6021SOL    HW219961   7.925  14.755   9.068
 6022SOL     OW19962  12.727   9.247  11.005
 6022SOL    HW119963  12.822   9.249  11.019
 6022SOL    HW219964  12.717   9.255  10.910
 6023SOL     OW19965  13.970  10.920  13.356
 6023SOL    HW119966  13.950  10.898  13.447
 6023SOL    HW219967  14.037  10.988  13.363
 6024SOL     OW19968  10.448  11.071   0.676
 6024SOL    HW119969  10.432  11.141   0.613
 6024SOL    HW219970  10.377  11.080   0.740
 6025SOL     OW19971   4.360   3.197   3.382
 6025SOL    HW119972   4.295   3.262   3.354
 6025SOL    HW219973   4.343   3.186   3.475
 6026SOL     OW19974   7.045   6.682   9.800
 6026SOL    HW119975   7.020   6.593   9.824
 6026SOL    HW219976   7.099   6.712   9.873
 6027SOL     OW19977   3.851  10.523   3.685
 6027SOL    HW119978   3.854  10.609   3.642
 6027SOL    HW219979   3.875  10.461   3.617
 6028SOL     OW19980   0.334  11.199   4.564
 6028SOL    HW119981   0.348  11.189   4.658
 6028SOL    HW219982   0.240  11.186   4.552
 6029SOL     OW19983   5.003  12.936   4.481
 6029SOL    HW119984   5.076  12.970   4.429
 6029SOL    HW219985   4.994  12.845   4.453
 6030SOL     OW19986   2.300   4.396   2.939
 6030SOL    HW119987   2.389   4.379   2.907
 6030SOL    HW219988   2.246   4.328   2.898
 6031SOL     OW19989  10.551  13.422  12.612
 6031SOL    HW119990  10.518  13.512  12.615
 6031SOL    HW219991  10.527  13.391  12.524
 6032SOL     OW19992  11.165   2.768  10.286
 6032SOL    HW119993  11.202   2.756  10.373
 6032SOL    HW219994  11.152   2.862  10.277
 6033SOL     OW19995   6.999   9.303   4.205
 6033SOL    HW119996   7.083   9.257   4.203
 6033SOL    HW219997   6.933   9.235   4.193
 6034SOL     OW19998   4.013  12.532   0.497
 6034SOL    HW119999   4.001  12.445   0.458
 6034SOL    HW220000   4.106  12.535   0.518
 6035SOL     OW20001   8.185   3.154   1.908
 6035SOL    HW120002   8.092   3.144   1.892
 6035SOL    HW220003   8.227   3.099   1.841
 6036SOL     OW20004  12.156  10.789  12.243
 6036SOL    HW120005  12.242  10.748  12.250
 6036SOL    HW220006  12.097  10.717  12.220
 6037SOL     OW20007  14.355  13.674   2.284
 6037SOL    HW120008  14.400  13.668   2.368
 6037SOL    HW220009  14.264  13.692   2.307
 6038SOL     OW20010   4.599   6.970  13.477
 6038SOL    HW120011   4.534   6.919  13.525
 6038SOL    HW220012   4.676   6.970  13.534
 6039SOL     OW20013   6.924   0.315   0.767
 6039SOL    HW120014   6.905   0.408   0.782
 6039SOL    HW220015   6.911   0.274   0.853
 6040SOL     OW20016   0.331  10.948   2.660
 6040SOL    HW120017   0.344  10.890   2.735
 6040SOL    HW220018   0.416  10.988   2.645
 6041SOL     OW20019   5.102   1.891  10.140
 6041SOL    HW120020   5.024   1.942  10.118
 6041SOL    HW220021   5.068   1.817  10.190
 6042SOL     OW20022  13.616  13.017  14.194
 6042SOL    HW120023  13.628  13.085  14.128
 6042SOL    HW220024  13.630  13.061  14.278
 6043SOL     OW20025   2.191   4.755   8.762
 6043SOL    HW120026   2.127   4.826   8.770
 6043SOL    HW220027   2.223   4.762   8.672
 6044SOL     OW20028   5.057   9.604   3.013
 6044SOL    HW120029   5.078   9.668   2.945
 6044SOL    HW220030   5.036   9.657   3.090
 6045SOL     OW20031   2.785   6.312   8.990
 6045SOL    HW120032   2.767   6.219   8.976
 6045SOL    HW220033   2.701   6.349   9.016
 6046SOL     OW20034   2.653   9.032   1.673
 6046SOL    HW120035   2.614   8.978   1.741
 6046SOL    HW220036   2.693   8.969   1.613
 6047SOL     OW20037  14.765  12.428  10.656
 6047SOL    HW120038  14.821  12.394  10.586
 6047SOL    HW220039  14.704  12.487  10.611
 6048SOL     OW20040   2.741  13.945   5.038
 6048SOL    HW120041   2.799  13.877   5.073
 6048SOL    HW220042   2.792  13.986   4.967
 6049SOL     OW20043   8.390  10.190  12.787
 6049SOL    HW120044   8.428  10.214  12.871
 6049SOL    HW220045   8.464  10.186  12.727
 6050SOL     OW20046   1.019   7.643  14.272
 6050SOL    HW120047   0.966   7.598  14.338
 6050SOL    HW220048   1.100   7.666  14.318
 6051SOL     OW20049  14.584  11.725  13.349
 6051SOL    HW120050  14.526  11.797  13.325
 6051SOL    HW220051  14.554  11.700  13.437
 6052SOL     OW20052   0.978   4.573  12.008
 6052SOL    HW120053   1.003   4.492  12.053
 6052SOL    HW220054   0.955   4.633  12.079
 6053SOL     OW20055  14.363   2.655   5.987
 6053SOL    HW120056  14.403   2.679   6.071
 6053SOL    HW220057  14.333   2.565   6.000
 6054SOL     OW20058   9.682   6.787   7.249
 6054SOL    HW120059   9.655   6.869   7.209
 6054SOL    HW220060   9.617   6.723   7.220
 6055SOL     OW20061   3.703  13.762   4.732
 6055SOL    HW120062   3.666  13.708   4.802
 6055SOL    HW220063   3.782  13.800   4.771
 6056SOL     OW20064   5.817  14.583   9.716
 6056SOL    HW120065   5.903  14.566   9.756
 6056SOL    HW220066   5.757  14.528   9.765
 6057SOL     OW20067  10.993   3.085  14.767
 6057SOL    HW120068  10.963   3.096  14.677
 6057SOL    HW220069  10.970   3.167  14.810
 6058SOL     OW20070   3.942  10.109  11.028
 6058SOL    HW120071   3.979  10.166  11.096
 6058SOL    HW220072   3.943  10.162  10.949
 6059SOL     OW20073   1.582  11.180  14.020
 6059SOL    HW120074   1.575  11.150  13.930
 6059SOL    HW220075   1.663  11.141  14.052
 6060SOL     OW20076   6.216   9.962  14.331
 6060SOL    HW120077   6.188   9.872  14.349
 6060SOL    HW220078   6.135  10.008  14.310
 6061SOL     OW20079  10.150   0.241  10.497
 6061SOL    HW120080  10.092   0.317  10.496
 6061SOL    HW220081  10.177   0.230  10.406
 6062SOL     OW20082   4.856   9.607   8.083
 6062SOL    HW120083   4.847   9.558   8.165
 6062SOL    HW220084   4.933   9.662   8.096
 6063SOL     OW20085   3.767   9.511  12.708
 6063SOL    HW120086   3.693   9.467  12.665
 6063SOL    HW220087   3.815   9.441  12.751
 6064SOL     OW20088   8.849  13.160   6.548
 6064SOL    HW120089   8.940  13.144   6.573
 6064SOL    HW220090   8.831  13.095   6.481
 6065SOL     OW20091  11.911  10.868  11.035
 6065SOL    HW120092  11.910  10.962  11.017
 6065SOL    HW220093  11.822  10.849  11.066
 6066SOL     OW20094   9.309   0.369   2.420
 6066SOL    HW120095   9.238   0.316   2.384
 6066SOL    HW220096   9.335   0.427   2.348
 6067SOL     OW20097   5.558  10.715   8.297
 6067SOL    HW120098   5.625  10.769   8.256
 6067SOL    HW220099   5.580  10.625   8.272
 6068SOL     OW20100  11.427  14.359   0.222
 6068SOL    HW120101  11.457  14.440   0.179
 6068SOL    HW220102  11.508  14.318   0.252
 6069SOL     OW20103   1.969  12.823   7.432
 6069SOL    HW120104   2.003  12.834   7.520
 6069SOL    HW220105   2.038  12.775   7.385
 6070SOL     OW20106   1.798   6.869   0.604
 6070SOL    HW120107   1.757   6.923   0.537
 6070SOL    HW220108   1.750   6.889   0.685
 6071SOL     OW20109  12.886   3.892   1.779
 6071SOL    HW120110  12.791   3.884   1.767
 6071SOL    HW220111  12.923   3.855   1.699
 6072SOL     OW20112   9.995   9.324   1.127
 6072SOL    HW120113  10.083   9.326   1.165
 6072SOL    HW220114   9.936   9.338   1.201
 6073SOL     OW20115   4.996   4.500   9.052
 6073SOL    HW120116   5.035   4.565   8.993
 6073SOL    HW220117   5.054   4.497   9.128
 6074SOL     OW20118   5.909   2.164   6.606
 6074SOL    HW120119   5.925   2.200   6.518
 6074SOL    HW220120   5.832   2.107   6.595
 6075SOL     OW20121  10.288  10.251  11.991
 6075SOL    HW120122  10.376  10.240  11.955
 6075SOL    HW220123  10.263  10.163  12.021
 6076SOL     OW20124  14.494  14.762  10.505
 6076SOL    HW120125  14.548  14.749  10.583
 6076SOL    HW220126  14.409  14.792  10.540
 6077SOL     OW20127   4.304  11.206   3.567
 6077SOL    HW120128   4.373  11.261   3.531
 6077SOL    HW220129   4.335  11.117   3.555
 6078SOL     OW20130   4.160   1.110   5.854
 6078SOL    HW120131   4.159   1.147   5.766
 6078SOL    HW220132   4.238   1.054   5.856
 6079SOL     OW20133   7.159   7.077   5.859
 6079SOL    HW120134   7.236   7.126   5.830
 6079SOL    HW220135   7.186   7.034   5.940
 6080SOL     OW20136   2.375  11.346   9.207
 6080SOL    HW120137   2.395  11.257   9.238
 6080SOL    HW220138   2.289  11.338   9.167
 6081SOL     OW20139  13.188  11.475   7.117
 6081SOL    HW120140  13.220  11.422   7.190
 6081SOL    HW220141  13.224  11.562   7.134
 6082SOL     OW20142  14.854  10.797   9.896
 6082SOL    HW120143  14.810  10.866   9.846
 6082SOL    HW220144  14.797  10.721   9.887
 6083SOL     OW20145  14.481  11.755   2.948
 6083SOL    HW120146  14.464  11.799   3.031
 6083SOL    HW220147  14.540  11.683   2.970
 6084SOL     OW20148   4.525   4.030   6.435
 6084SOL    HW120149   4.473   4.109   6.421
 6084SOL    HW220150   4.546   3.999   6.347
 6085SOL     OW20151  11.621  12.090   1.653
 6085SOL    HW120152  11.575  12.173   1.642
 6085SOL    HW220153  11.601  12.063   1.743
 6086SOL     OW20154   0.036   8.113   4.989
 6086SOL    HW120155  14.840   8.132   4.928
 6086SOL    HW220156   0.009   8.031   5.031
 6087SOL     OW20157  13.682  14.356   4.747
 6087SOL    HW120158  13.595  14.359   4.707
 6087SOL    HW220159  13.699  14.446   4.775
 6088SOL     OW20160   4.908   3.029   7.612
 6088SOL    HW120161   4.975   3.059   7.673
 6088SOL    HW220162   4.957   2.991   7.539
 6089SOL     OW20163  13.438  13.659   6.860
 6089SOL    HW120164  13.402  13.705   6.784
 6089SOL    HW220165  13.437  13.724   6.930
 6090SOL     OW20166   1.548  13.357   3.514
 6090SOL    HW120167   1.594  13.290   3.465
 6090SOL    HW220168   1.530  13.317   3.599
 6091SOL     OW20169   8.591   1.496   1.992
 6091SOL    HW120170   8.518   1.437   1.972
 6091SOL    HW220171   8.593   1.501   2.087
 6092SOL     OW20172  13.581   3.256   2.305
 6092SOL    HW120173  13.516   3.186   2.299
 6092SOL    HW220174  13.665   3.212   2.307
 6093SOL     OW20175  10.519   7.404   6.157
 6093SOL    HW120176  10.553   7.322   6.122
 6093SOL    HW220177  10.598   7.455   6.179
 6094SOL     OW20178  13.906   9.873   5.386
 6094SOL    HW120179  13.831   9.838   5.434
 6094SOL    HW220180  13.881   9.963   5.364
 6095SOL     OW20181  11.508   6.881   1.543
 6095SOL    HW120182  11.596   6.843   1.544
 6095SOL    HW220183  11.515   6.956   1.484
 6096SOL     OW20184  10.816  12.289   8.017
 6096SOL    HW120185  10.744  12.234   8.048
 6096SOL    HW220186  10.887  12.227   8.000
 6097SOL     OW20187   2.682   7.067   3.536
 6097SOL    HW120188   2.721   6.980   3.532
 6097SOL    HW220189   2.723   7.115   3.463
 6098SOL     OW20190   0.367   1.837  14.691
 6098SOL    HW120191   0.292   1.827  14.633
 6098SOL    HW220192   0.336   1.805  14.776
 6099SOL     OW20193   8.783   9.449   1.269
 6099SOL    HW120194   8.827   9.367   1.294
 6099SOL    HW220195   8.763   9.438   1.176
 6100SOL     OW20196  12.025  11.326   6.528
 6100SOL    HW120197  11.987  11.305   6.443
 6100SOL    HW220198  11.949  11.340   6.585
 6101SOL     OW20199   2.443   3.190  14.677
 6101SOL    HW120200   2.475   3.231  14.596
 6101SOL    HW220201   2.505   3.119  14.694
 6102SOL     OW20202   5.278   6.768   2.322
 6102SOL    HW120203   5.274   6.844   2.264
 6102SOL    HW220204   5.340   6.708   2.279
 6103SOL     OW20205  11.617   9.731  10.264
 6103SOL    HW120206  11.591   9.729  10.172
 6103SOL    HW220207  11.565   9.801  10.302
 6104SOL     OW20208  11.162   4.841   9.523
 6104SOL    HW120209  11.099   4.818   9.591
 6104SOL    HW220210  11.109   4.876   9.451
 6105SOL     OW20211   3.737  10.112   8.912
 6105SOL    HW120212   3.678  10.059   8.859
 6105SOL    HW220213   3.797  10.153   8.848
 6106SOL     OW20214   4.010  11.126   4.305
 6106SOL    HW120215   4.037  11.200   4.251
 6106SOL    HW220216   4.090  11.098   4.350
 6107SOL     OW20217   0.885   0.298  13.622
 6107SOL    HW120218   0.809   0.341  13.583
 6107SOL    HW220219   0.939   0.271  13.547
 6108SOL     OW20220   6.543   8.545   9.881
 6108SOL    HW120221   6.574   8.631   9.853
 6108SOL    HW220222   6.475   8.522   9.818
 6109SOL     OW20223   9.177  13.545   1.662
 6109SOL    HW120224   9.090  13.536   1.700
 6109SOL    HW220225   9.185  13.639   1.643
 6110SOL     OW20226   2.765   4.034  11.856
 6110SOL    HW120227   2.850   4.003  11.888
 6110SOL    HW220228   2.767   4.018  11.762
 6111SOL     OW20229   0.429   2.602   7.240
 6111SOL    HW120230   0.372   2.571   7.310
 6111SOL    HW220231   0.414   2.697   7.237
 6112SOL     OW20232   3.742   7.232   8.927
 6112SOL    HW120233   3.694   7.181   8.862
 6112SOL    HW220234   3.726   7.324   8.903
 6113SOL     OW20235   6.466   2.466   0.758
 6113SOL    HW120236   6.441   2.390   0.707
 6113SOL    HW220237   6.539   2.435   0.813
 6114SOL     OW20238   8.296   3.579   7.789
 6114SOL    HW120239   8.302   3.573   7.884
 6114SOL    HW220240   8.283   3.672   7.772
 6115SOL     OW20241  14.776   7.389   8.432
 6115SOL    HW120242  14.859   7.409   8.388
 6115SOL    HW220243  14.756   7.468   8.483
 6116SOL     OW20244   3.903   5.388   8.251
 6116SOL    HW120245   3.849   5.456   8.291
 6116SOL    HW220246   3.891   5.312   8.307
 6117SOL     OW20247   6.012  12.112   0.901
 6117SOL    HW120248   5.929  12.072   0.924
 6117SOL    HW220249   6.078  12.047   0.926
 6118SOL     OW20250   5.085   5.366   3.316
 6118SOL    HW120251   5.093   5.461   3.327
 6118SOL    HW220252   5.155   5.329   3.369
 6119SOL     OW20253   6.301  13.660   7.089
 6119SOL    HW120254   6.249  13.738   7.069
 6119SOL    HW220255   6.376  13.693   7.139
 6120SOL     OW20256   5.444   8.154   4.548
 6120SOL    HW120257   5.435   8.157   4.453
 6120SOL    HW220258   5.539   8.154   4.563
 6121SOL     OW20259  14.503  10.347   8.689
 6121SOL    HW120260  14.473  10.269   8.735
 6121SOL    HW220261  14.586  10.370   8.730
 6122SOL     OW20262   0.480  13.924   8.279
 6122SOL    HW120263   0.437  13.970   8.207
 6122SOL    HW220264   0.501  13.838   8.243
 6123SOL     OW20265   4.581   0.440   9.333
 6123SOL    HW120266   4.498   0.489   9.339
 6123SOL    HW220267   4.583   0.387   9.413
 6124SOL     OW20268  13.905  12.534   7.471
 6124SOL    HW120269  13.908  12.444   7.437
 6124SOL    HW220270  13.936  12.588   7.399
 6125SOL     OW20271  12.323  10.818   2.461
 6125SOL    HW120272  12.330  10.857   2.374
 6125SOL    HW220273  12.391  10.862   2.513
 6126SOL     OW20274  12.609   1.467  12.343
 6126SOL    HW120275  12.664   1.528  12.294
 6126SOL    HW220276  12.523   1.509  12.346
 6127SOL     OW20277   9.575   7.844  10.590
 6127SOL    HW120278   9.629   7.857  10.512
 6127SOL    HW220279   9.488   7.873  10.563
 6128SOL     OW20280  13.649   2.385   9.119
 6128SOL    HW120281  13.665   2.314   9.057
 6128SOL    HW220282  13.555   2.402   9.113
 6129SOL     OW20283   7.847   4.190   3.642
 6129SOL    HW120284   7.825   4.097   3.654
 6129SOL    HW220285   7.938   4.190   3.613
 6130SOL     OW20286  12.969  11.092   5.455
 6130SOL    HW120287  12.908  11.159   5.485
 6130SOL    HW220288  13.054  11.137   5.453
 6131SOL     OW20289   1.017   0.347  13.028
 6131SOL    HW120290   1.090   0.298  13.068
 6131SOL    HW220291   0.946   0.339  13.091
 6132SOL     OW20292   2.154   5.108   3.955
 6132SOL    HW120293   2.214   5.155   4.013
 6132SOL    HW220294   2.118   5.038   4.010
 6133SOL     OW20295   5.735   6.800   3.301
 6133SOL    HW120296   5.670   6.865   3.274
 6133SOL    HW220297   5.817   6.831   3.264
 6134SOL     OW20298   7.513   8.602  11.175
 6134SOL    HW120299   7.488   8.693  11.191
 6134SOL    HW220300   7.537   8.601  11.082
 6135SOL     OW20301   8.836  10.026   7.881
 6135SOL    HW120302   8.806   9.940   7.911
 6135SOL    HW220303   8.817  10.027   7.787
 6136SOL     OW20304   6.778  12.721   0.869
 6136SOL    HW120305   6.832  12.772   0.929
 6136SOL    HW220306   6.699  12.700   0.920
 6137SOL     OW20307   5.470   5.813   2.645
 6137SOL    HW120308   5.520   5.883   2.602
 6137SOL    HW220309   5.457   5.845   2.735
 6138SOL     OW20310  11.559   5.244   6.687
 6138SOL    HW120311  11.511   5.269   6.765
 6138SOL    HW220312  11.577   5.326   6.642
 6139SOL     OW20313   1.853  11.933  10.835
 6139SOL    HW120314   1.769  11.939  10.790
 6139SOL    HW220315   1.856  12.010  10.892
 6140SOL     OW20316   8.736   8.388   7.283
 6140SOL    HW120317   8.723   8.408   7.190
 6140SOL    HW220318   8.673   8.445   7.328
 6141SOL     OW20319  10.927  10.534  10.654
 6141SOL    HW120320  10.870  10.548  10.730
 6141SOL    HW220321  10.910  10.609  10.597
 6142SOL     OW20322   8.550   2.891   1.486
 6142SOL    HW120323   8.556   2.812   1.540
 6142SOL    HW220324   8.538   2.962   1.549
 6143SOL     OW20325  12.860   8.443   9.728
 6143SOL    HW120326  12.770   8.425   9.756
 6143SOL    HW220327  12.913   8.375   9.769
 6144SOL     OW20328  14.341  11.745  11.436
 6144SOL    HW120329  14.426  11.741  11.393
 6144SOL    HW220330  14.361  11.764  11.527
 6145SOL     OW20331  13.871   8.597   8.233
 6145SOL    HW120332  13.850   8.674   8.285
 6145SOL    HW220333  13.965   8.604   8.216
 6146SOL     OW20334   5.116   9.354   8.392
 6146SOL    HW120335   5.044   9.384   8.447
 6146SOL    HW220336   5.123   9.419   8.323
 6147SOL     OW20337   8.669   6.593   2.142
 6147SOL    HW120338   8.610   6.644   2.198
 6147SOL    HW220339   8.680   6.510   2.188
 6148SOL     OW20340   9.040  12.690  14.188
 6148SOL    HW120341   9.073  12.780  14.185
 6148SOL    HW220342   9.118  12.635  14.182
 6149SOL     OW20343   3.349  11.876  10.626
 6149SOL    HW120344   3.321  11.951  10.678
 6149SOL    HW220345   3.369  11.808  10.691
 6150SOL     OW20346   7.125  14.598   5.963
 6150SOL    HW120347   7.140  14.654   6.039
 6150SOL    HW220348   7.189  14.527   5.972
 6151SOL     OW20349   8.043   9.759  11.418
 6151SOL    HW120350   8.090   9.807  11.350
 6151SOL    HW220351   7.969   9.719  11.372
 6152SOL     OW20352   0.192   0.856   9.315
 6152SOL    HW120353   0.221   0.829   9.228
 6152SOL    HW220354   0.272   0.863   9.366
 6153SOL     OW20355   9.468   1.987   1.513
 6153SOL    HW120356   9.490   1.899   1.483
 6153SOL    HW220357   9.537   2.043   1.477
 6154SOL     OW20358   3.659   6.905   9.123
 6154SOL    HW120359   3.640   6.827   9.070
 6154SOL    HW220360   3.751   6.895   9.149
 6155SOL     OW20361  11.874   9.457   4.240
 6155SOL    HW120362  11.958   9.495   4.216
 6155SOL    HW220363  11.885   9.428   4.330
 6156SOL     OW20364   4.315  10.384   3.920
 6156SOL    HW120365   4.234  10.342   3.889
 6156SOL    HW220366   4.384  10.346   3.865
 6157SOL     OW20367  10.911   5.779  12.658
 6157SOL    HW120368  10.979   5.714  12.679
 6157SOL    HW220369  10.894   5.765  12.565
 6158SOL     OW20370  14.023  13.895  13.733
 6158SOL    HW120371  13.963  13.877  13.661
 6158SOL    HW220372  14.028  13.991  13.737
 6159SOL     OW20373   4.473   6.030   1.026
 6159SOL    HW120374   4.554   5.994   0.991
 6159SOL    HW220375   4.488   6.125   1.029
 6160SOL     OW20376   7.177   3.377   3.702
 6160SOL    HW120377   7.228   3.365   3.782
 6160SOL    HW220378   7.099   3.323   3.715
 6161SOL     OW20379  14.585   6.199  12.291
 6161SOL    HW120380  14.585   6.290  12.320
 6161SOL    HW220381  14.622   6.202  12.203
 6162SOL     OW20382   4.868   8.532   0.477
 6162SOL    HW120383   4.870   8.625   0.500
 6162SOL    HW220384   4.856   8.531   0.382
 6163SOL     OW20385   7.139  14.230   3.008
 6163SOL    HW120386   7.094  14.173   3.071
 6163SOL    HW220387   7.094  14.315   3.016
 6164SOL     OW20388  12.452  12.845   3.488
 6164SOL    HW120389  12.537  12.886   3.471
 6164SOL    HW220390  12.422  12.885   3.569
 6165SOL     OW20391   1.844   7.032   5.795
 6165SOL    HW120392   1.772   7.074   5.748
 6165SOL    HW220393   1.923   7.060   5.748
 6166SOL     OW20394   5.563   9.306   3.821
 6166SOL    HW120395   5.506   9.290   3.897
 6166SOL    HW220396   5.519   9.262   3.748
 6167SOL     OW20397  10.888   1.985   5.752
 6167SOL    HW120398  10.807   1.955   5.794
 6167SOL    HW220399  10.918   2.057   5.807
 6168SOL     OW20400  11.824   2.917   6.885
 6168SOL    HW120401  11.808   2.840   6.939
 6168SOL    HW220402  11.900   2.894   6.832
 6169SOL     OW20403  12.837  11.187  12.718
 6169SOL    HW120404  12.795  11.273  12.724
 6169SOL    HW220405  12.796  11.135  12.787
 6170SOL     OW20406   3.048   2.260   9.315
 6170SOL    HW120407   2.996   2.323   9.365
 6170SOL    HW220408   3.084   2.201   9.381
 6171SOL     OW20409  13.976   4.551  14.798
 6171SOL    HW120410  13.950   4.562   0.015
 6171SOL    HW220411  14.016   4.635  14.775
 6172SOL     OW20412   5.022   8.020  14.440
 6172SOL    HW120413   5.054   8.099  14.483
 6172SOL    HW220414   4.929   8.038  14.423
 6173SOL     OW20415   6.270   8.874  12.884
 6173SOL    HW120416   6.232   8.884  12.796
 6173SOL    HW220417   6.364   8.891  12.871
 6174SOL     OW20418   0.164  13.163   2.223
 6174SOL    HW120419   0.099  13.114   2.274
 6174SOL    HW220420   0.230  13.190   2.287
 6175SOL     OW20421   2.879   1.739   7.031
 6175SOL    HW120422   2.909   1.817   6.986
 6175SOL    HW220423   2.864   1.768   7.121
 6176SOL     OW20424  10.107   9.540   3.693
 6176SOL    HW120425  10.062   9.625   3.694
 6176SOL    HW220426  10.188   9.557   3.646
 6177SOL     OW20427   4.826   1.052  13.832
 6177SOL    HW120428   4.905   1.067  13.780
 6177SOL    HW220429   4.754   1.076  13.774
 6178SOL     OW20430  10.082   5.299   9.303
 6178SOL    HW120431  10.136   5.308   9.224
 6178SOL    HW220432   9.992   5.295   9.269
 6179SOL     OW20433   3.727   3.039   3.264
 6179SOL    HW120434   3.772   2.968   3.217
 6179SOL    HW220435   3.698   3.099   3.196
 6180SOL     OW20436   8.464   7.707   8.437
 6180SOL    HW120437   8.430   7.618   8.423
 6180SOL    HW220438   8.453   7.750   8.352
 6181SOL     OW20439  11.048   4.910   4.382
 6181SOL    HW120440  11.096   4.832   4.410
 6181SOL    HW220441  11.073   4.922   4.291
 6182SOL     OW20442   4.038   5.230  12.344
 6182SOL    HW120443   4.053   5.194  12.431
 6182SOL    HW220444   4.063   5.322  12.352
 6183SOL     OW20445   0.080   5.139   8.081
 6183SOL    HW120446   0.001   5.148   8.027
 6183SOL    HW220447   0.060   5.189   8.161
 6184SOL     OW20448   2.919   6.371   0.315
 6184SOL    HW120449   2.972   6.371   0.235
 6184SOL    HW220450   2.829   6.382   0.284
 6185SOL     OW20451  11.533   4.023   1.597
 6185SOL    HW120452  11.478   3.987   1.667
 6185SOL    HW220453  11.545   3.950   1.536
 6186SOL     OW20454   9.753   1.483   8.583
 6186SOL    HW120455   9.723   1.561   8.631
 6186SOL    HW220456   9.679   1.458   8.528
 6187SOL     OW20457   2.089  10.549   7.879
 6187SOL    HW120458   2.035  10.477   7.912
 6187SOL    HW220459   2.094  10.611   7.952
 6188SOL     OW20460  13.165   9.425   5.541
 6188SOL    HW120461  13.191   9.338   5.570
 6188SOL    HW220462  13.070   9.422   5.533
 6189SOL     OW20463   3.394   9.250   3.805
 6189SOL    HW120464   3.372   9.299   3.726
 6189SOL    HW220465   3.477   9.287   3.834
 6190SOL     OW20466   8.998   6.670  10.038
 6190SOL    HW120467   8.978   6.595   9.981
 6190SOL    HW220468   9.065   6.637  10.098
 6191SOL     OW20469  13.611  12.471  11.405
 6191SOL    HW120470  13.695  12.481  11.361
 6191SOL    HW220471  13.622  12.513  11.490
 6192SOL     OW20472  13.304   9.467   4.138
 6192SOL    HW120473  13.305   9.513   4.222
 6192SOL    HW220474  13.224   9.498   4.096
 6193SOL     OW20475   6.428   2.572   7.793
 6193SOL    HW120476   6.483   2.639   7.752
 6193SOL    HW220477   6.340   2.589   7.760
 6194SOL     OW20478   2.528   3.114  11.343
 6194SOL    HW120479   2.457   3.152  11.292
 6194SOL    HW220480   2.585   3.073  11.278
 6195SOL     OW20481   1.243   8.142   7.240
 6195SOL    HW120482   1.199   8.172   7.161
 6195SOL    HW220483   1.206   8.056   7.258
 6196SOL     OW20484   0.530  13.720   1.068
 6196SOL    HW120485   0.529  13.636   1.113
 6196SOL    HW220486   0.521  13.785   1.137
 6197SOL     OW20487  11.528   3.776  14.689
 6197SOL    HW120488  11.449   3.781  14.635
 6197SOL    HW220489  11.497   3.794  14.778
 6198SOL     OW20490   0.608   7.760   3.014
 6198SOL    HW120491   0.619   7.795   2.926
 6198SOL    HW220492   0.691   7.716   3.033
 6199SOL     OW20493   3.709   7.223   3.362
 6199SOL    HW120494   3.771   7.215   3.289
 6199SOL    HW220495   3.623   7.206   3.322
 6200SOL     OW20496   2.674  13.134   1.825
 6200SOL    HW120497   2.617  13.169   1.757
 6200SOL    HW220498   2.763  13.155   1.795
 6201SOL     OW20499  13.387   7.670  14.796
 6201SOL    HW120500  13.305   7.714  14.776
 6201SOL    HW220501  13.454   7.728  14.761
 6202SOL     OW20502  12.976   5.519   7.146
 6202SOL    HW120503  13.017   5.457   7.206
 6202SOL    HW220504  12.900   5.472   7.111
 6203SOL     OW20505   8.325   9.064   7.951
 6203SOL    HW120506   8.418   9.044   7.956
 6203SOL    HW220507   8.306   9.068   7.857
 6204SOL     OW20508   3.050   8.025   6.954
 6204SOL    HW120509   3.139   8.025   6.988
 6204SOL    HW220510   3.017   8.112   6.973
 6205SOL     OW20511   3.615  10.150   0.167
 6205SOL    HW120512   3.535  10.177   0.212
 6205SOL    HW220513   3.584  10.097   0.093
 6206SOL     OW20514   5.106   5.561  13.537
 6206SOL    HW120515   5.186   5.534  13.492
 6206SOL    HW220516   5.041   5.494  13.514
 6207SOL     OW20517   4.584   2.090   7.029
 6207SOL    HW120518   4.583   2.108   6.935
 6207SOL    HW220519   4.548   2.170   7.068
 6208SOL     OW20520   6.904  10.319   2.157
 6208SOL    HW120521   6.935  10.322   2.067
 6208SOL    HW220522   6.978  10.353   2.209
 6209SOL     OW20523   4.089   6.283  14.470
 6209SOL    HW120524   4.036   6.280  14.549
 6209SOL    HW220525   4.069   6.368  14.431
 6210SOL     OW20526   7.129  13.911  12.980
 6210SOL    HW120527   7.171  13.861  12.911
 6210SOL    HW220528   7.070  13.971  12.934
 6211SOL     OW20529   1.137   3.452  13.369
 6211SOL    HW120530   1.057   3.423  13.412
 6211SOL    HW220531   1.123   3.545  13.351
 6212SOL     OW20532   3.337   2.300  10.024
 6212SOL    HW120533   3.356   2.236   9.955
 6212SOL    HW220534   3.409   2.363  10.019
 6213SOL     OW20535  12.830   0.704   9.277
 6213SOL    HW120536  12.862   0.667   9.359
 6213SOL    HW220537  12.735   0.696   9.282
 6214SOL     OW20538   2.533   4.160  13.606
 6214SOL    HW120539   2.608   4.215  13.582
 6214SOL    HW220540   2.468   4.221  13.640
 6215SOL     OW20541   5.112  14.155   0.495
 6215SOL    HW120542   5.115  14.132   0.402
 6215SOL    HW220543   5.026  14.127   0.525
 6216SOL     OW20544   0.475   5.759   2.614
 6216SOL    HW120545   0.524   5.678   2.627
 6216SOL    HW220546   0.385   5.737   2.639
 6217SOL     OW20547  10.022  11.213  11.957
 6217SOL    HW120548  10.092  11.277  11.944
 6217SOL    HW220549   9.992  11.228  12.046
 6218SOL     OW20550  11.893  12.807   1.322
 6218SOL    HW120551  11.985  12.782   1.333
 6218SOL    HW220552  11.895  12.899   1.295
 6219SOL     OW20553   4.200   6.414   3.055
 6219SOL    HW120554   4.168   6.356   3.124
 6219SOL    HW220555   4.131   6.411   2.988
 6220SOL     OW20556  13.496  10.276   5.207
 6220SOL    HW120557  13.504  10.355   5.154
 6220SOL    HW220558  13.424  10.227   5.168
 6221SOL     OW20559   6.578   4.764   3.281
 6221SOL    HW120560   6.506   4.700   3.285
 6221SOL    HW220561   6.657   4.712   3.298
 6222SOL     OW20562   3.072  10.593   0.394
 6222SOL    HW120563   3.134  10.643   0.447
 6222SOL    HW220564   3.010  10.557   0.458
 6223SOL     OW20565   8.914   5.106   3.883
 6223SOL    HW120566   9.000   5.147   3.888
 6223SOL    HW220567   8.922   5.041   3.813
 6224SOL     OW20568   3.868   5.406   4.538
 6224SOL    HW120569   3.867   5.480   4.598
 6224SOL    HW220570   3.806   5.344   4.575
 6225SOL     OW20571   7.053   8.687  11.885
 6225SOL    HW120572   7.015   8.627  11.949
 6225SOL    HW220573   6.982   8.704  11.823
 6226SOL     OW20574  11.616  12.463   6.859
 6226SOL    HW120575  11.641  12.528   6.794
 6226SOL    HW220576  11.646  12.499   6.942
 6227SOL     OW20577  10.183  10.948  14.360
 6227SOL    HW120578  10.136  10.888  14.418
 6227SOL    HW220579  10.229  11.007  14.419
 6228SOL     OW20580   6.522  13.792   5.659
 6228SOL    HW120581   6.606  13.807   5.701
 6228SOL    HW220582   6.521  13.852   5.585
 6229SOL     OW20583  13.544  11.759  11.391
 6229SOL    HW120584  13.579  11.801  11.469
 6229SOL    HW220585  13.472  11.704  11.423
 6230SOL     OW20586  13.554  13.627  10.244
 6230SOL    HW120587  13.523  13.718  10.242
 6230SOL    HW220588  13.540  13.596  10.154
 6231SOL     OW20589   8.253   2.664  11.155
 6231SOL    HW120590   8.238   2.589  11.098
 6231SOL    HW220591   8.180   2.662  11.217
 6232SOL     OW20592   1.170   4.952   6.587
 6232SOL    HW120593   1.138   5.008   6.516
 6232SOL    HW220594   1.129   4.867   6.571
 6233SOL     OW20595  10.875   9.041   7.583
 6233SOL    HW120596  10.947   9.095   7.615
 6233SOL    HW220597  10.893   8.954   7.619
 6234SOL     OW20598   8.431  11.334  14.461
 6234SOL    HW120599   8.361  11.342  14.527
 6234SOL    HW220600   8.480  11.416  14.469
 6235SOL     OW20601  11.668   4.465  10.395
 6235SOL    HW120602  11.733   4.425  10.338
 6235SOL    HW220603  11.587   4.417  10.377
 6236SOL     OW20604   3.847  11.608   9.742
 6236SOL    HW120605   3.907  11.541   9.710
 6236SOL    HW220606   3.773  11.606   9.681
 6237SOL     OW20607   7.016   2.586   2.630
 6237SOL    HW120608   7.104   2.591   2.667
 6237SOL    HW220609   6.994   2.493   2.633
 6238SOL     OW20610   7.055   7.722   1.133
 6238SOL    HW120611   6.970   7.693   1.165
 6238SOL    HW220612   7.081   7.792   1.192
 6239SOL     OW20613   5.666  11.930  12.674
 6239SOL    HW120614   5.732  11.998  12.666
 6239SOL    HW220615   5.643  11.930  12.767
 6240SOL     OW20616   0.295   2.356   2.269
 6240SOL    HW120617   0.229   2.372   2.336
 6240SOL    HW220618   0.370   2.322   2.318
 6241SOL     OW20619  11.745   8.885   5.486
 6241SOL    HW120620  11.679   8.896   5.555
 6241SOL    HW220621  11.697   8.900   5.405
 6242SOL     OW20622  13.918  14.264   3.993
 6242SOL    HW120623  13.904  14.212   4.072
 6242SOL    HW220624  14.005  14.301   4.002
 6243SOL     OW20625  10.112  11.491  11.979
 6243SOL    HW120626  10.053  11.554  11.937
 6243SOL    HW220627  10.100  11.505  12.072
 6244SOL     OW20628  10.401   2.893   9.692
 6244SOL    HW120629  10.350   2.965   9.654
 6244SOL    HW220630  10.343   2.818   9.689
 6245SOL     OW20631   1.778   3.253   0.817
 6245SOL    HW120632   1.752   3.291   0.733
 6245SOL    HW220633   1.838   3.317   0.854
 6246SOL     OW20634   3.644   2.950  12.382
 6246SOL    HW120635   3.625   2.856  12.381
 6246SOL    HW220636   3.718   2.961  12.322
 6247SOL     OW20637  10.395   3.697  13.114
 6247SOL    HW120638  10.376   3.603  13.110
 6247SOL    HW220639  10.488   3.701  13.136
 6248SOL     OW20640   6.849   5.529   0.368
 6248SOL    HW120641   6.827   5.442   0.399
 6248SOL    HW220642   6.945   5.533   0.374
 6249SOL     OW20643   8.558   5.604   8.926
 6249SOL    HW120644   8.507   5.604   9.008
 6249SOL    HW220645   8.533   5.522   8.883
 6250SOL     OW20646  13.045   9.714  12.890
 6250SOL    HW120647  13.032   9.715  12.795
 6250SOL    HW220648  13.138   9.697  12.902
 6251SOL     OW20649  12.885   0.767   7.795
 6251SOL    HW120650  12.792   0.747   7.802
 6251SOL    HW220651  12.897   0.845   7.850
 6252SOL     OW20652  13.951   9.986   6.654
 6252SOL    HW120653  13.907   9.967   6.571
 6252SOL    HW220654  14.038   9.948   6.643
 6253SOL     OW20655   1.044   6.080   0.769
 6253SOL    HW120656   0.981   6.013   0.741
 6253SOL    HW220657   0.989   6.152   0.801
 6254SOL     OW20658   0.437  10.218   7.878
 6254SOL    HW120659   0.425  10.146   7.816
 6254SOL    HW220660   0.354  10.265   7.877
 6255SOL     OW20661  11.859   1.743  13.256
 6255SOL    HW120662  11.886   1.667  13.308
 6255SOL    HW220663  11.765   1.729  13.240
 6256SOL     OW20664   0.681   8.145  11.440
 6256SOL    HW120665   0.634   8.141  11.357
 6256SOL    HW220666   0.614   8.130  11.507
 6257SOL     OW20667   8.634   2.098  10.046
 6257SOL    HW120668   8.721   2.118  10.081
 6257SOL    HW220669   8.611   2.175   9.994
 6258SOL     OW20670   3.743  13.497   9.167
 6258SOL    HW120671   3.779  13.511   9.255
 6258SOL    HW220672   3.794  13.555   9.111
 6259SOL     OW20673   4.840   4.014   9.412
 6259SOL    HW120674   4.801   3.992   9.327
 6259SOL    HW220675   4.920   4.061   9.391
 6260SOL     OW20676  10.296   8.227   1.676
 6260SOL    HW120677  10.232   8.199   1.742
 6260SOL    HW220678  10.243   8.251   1.600
 6261SOL     OW20679  11.705  11.143  14.601
 6261SOL    HW120680  11.725  11.185  14.684
 6261SOL    HW220681  11.645  11.204  14.558
 6262SOL     OW20682   0.273  13.988   7.056
 6262SOL    HW120683   0.180  13.976   7.038
 6262SOL    HW220684   0.284  13.960   7.146
 6263SOL     OW20685   0.578   1.399  12.837
 6263SOL    HW120686   0.632   1.457  12.782
 6263SOL    HW220687   0.511   1.365  12.777
 6264SOL     OW20688   0.419  14.234   7.574
 6264SOL    HW120689   0.336  14.186   7.577
 6264SOL    HW220690   0.408  14.294   7.501
 6265SOL     OW20691  10.132  14.536   2.912
 6265SOL    HW120692  10.103  14.509   2.999
 6265SOL    HW220693  10.078  14.613   2.892
 6266SOL     OW20694   2.494   4.977   3.973
 6266SOL    HW120695   2.524   5.066   3.993
 6266SOL    HW220696   2.405   4.973   4.007
 6267SOL     OW20697   4.346  11.357  13.334
 6267SOL    HW120698   4.417  11.421  13.330
 6267SOL    HW220699   4.310  11.354  13.245
 6268SOL     OW20700  13.080   7.227   8.135
 6268SOL    HW120701  13.121   7.313   8.122
 6268SOL    HW220702  13.014   7.241   8.203
 6269SOL     OW20703   8.316  11.026  12.532
 6269SOL    HW120704   8.357  11.099  12.579
 6269SOL    HW220705   8.377  11.007  12.461
 6270SOL     OW20706  14.727   2.380   4.242
 6270SOL    HW120707  14.803   2.411   4.193
 6270SOL    HW220708  14.695   2.305   4.192
 6271SOL     OW20709   2.104   4.393   6.711
 6271SOL    HW120710   2.169   4.389   6.641
 6271SOL    HW220711   2.136   4.332   6.778
 6272SOL     OW20712   3.308  10.415   1.789
 6272SOL    HW120713   3.342  10.339   1.837
 6272SOL    HW220714   3.360  10.418   1.709
 6273SOL     OW20715   6.135  13.388  12.036
 6273SOL    HW120716   6.161  13.315  11.980
 6273SOL    HW220717   6.194  13.382  12.112
 6274SOL     OW20718  11.099   8.590   3.631
 6274SOL    HW120719  11.073   8.678   3.659
 6274SOL    HW220720  11.175   8.569   3.685
 6275SOL     OW20721   9.077  11.966  13.063
 6275SOL    HW120722   9.059  11.872  13.064
 6275SOL    HW220723   9.172  11.972  13.054
 6276SOL     OW20724  10.349   6.675   5.347
 6276SOL    HW120725  10.343   6.753   5.291
 6276SOL    HW220726  10.419   6.622   5.308
 6277SOL     OW20727   9.840  13.851   4.770
 6277SOL    HW120728   9.864  13.923   4.711
 6277SOL    HW220729   9.921  13.803   4.783
 6278SOL     OW20730   1.215   2.306   5.124
 6278SOL    HW120731   1.285   2.361   5.089
 6278SOL    HW220732   1.204   2.237   5.059
 6279SOL     OW20733  13.705   0.006   5.534
 6279SOL    HW120734  13.642   0.039   5.471
 6279SOL    HW220735  13.718   0.079   5.595
 6280SOL     OW20736  13.339  10.913  12.200
 6280SOL    HW120737  13.419  10.951  12.236
 6280SOL    HW220738  13.306  10.856  12.270
 6281SOL     OW20739   7.970   3.563   0.767
 6281SOL    HW120740   7.989   3.552   0.674
 6281SOL    HW220741   8.011   3.646   0.790
 6282SOL     OW20742   4.551   8.043   4.282
 6282SOL    HW120743   4.536   8.125   4.330
 6282SOL    HW220744   4.639   8.017   4.306
 6283SOL     OW20745  10.917   5.080  14.714
 6283SOL    HW120746  10.834   5.105  14.752
 6283SOL    HW220747  10.907   4.986  14.695
 6284SOL     OW20748   5.312  14.531  11.162
 6284SOL    HW120749   5.392  14.511  11.212
 6284SOL    HW220750   5.304  14.459  11.101
 6285SOL     OW20751  10.377   8.248  10.518
 6285SOL    HW120752  10.339   8.234  10.604
 6285SOL    HW220753  10.308   8.291  10.467
 6286SOL     OW20754   9.254   9.982   0.679
 6286SOL    HW120755   9.275  10.071   0.651
 6286SOL    HW220756   9.185   9.953   0.619
 6287SOL     OW20757   2.703   6.423   1.643
 6287SOL    HW120758   2.727   6.414   1.551
 6287SOL    HW220759   2.787   6.419   1.690
 6288SOL     OW20760   8.895   8.824   6.969
 6288SOL    HW120761   8.917   8.736   7.001
 6288SOL    HW220762   8.972   8.877   6.989
 6289SOL     OW20763   3.539   6.915  13.758
 6289SOL    HW120764   3.590   6.995  13.749
 6289SOL    HW220765   3.450   6.945  13.778
 6290SOL     OW20766   3.355   6.704  13.987
 6290SOL    HW120767   3.405   6.729  13.909
 6290SOL    HW220768   3.420   6.703  14.057
 6291SOL     OW20769   9.310   9.314  10.385
 6291SOL    HW120770   9.233   9.369  10.393
 6291SOL    HW220771   9.317   9.296  10.291
 6292SOL     OW20772   5.073   4.286  10.680
 6292SOL    HW120773   5.128   4.226  10.629
 6292SOL    HW220774   5.102   4.373  10.655
 6293SOL     OW20775   7.648   3.174   1.756
 6293SOL    HW120776   7.634   3.103   1.818
 6293SOL    HW220777   7.741   3.195   1.763
 6294SOL     OW20778   4.872   9.777   7.499
 6294SOL    HW120779   4.781   9.767   7.472
 6294SOL    HW220780   4.921   9.716   7.443
 6295SOL     OW20781   7.927   2.812   3.419
 6295SOL    HW120782   7.966   2.729   3.394
 6295SOL    HW220783   7.888   2.795   3.505
 6296SOL     OW20784   8.990  14.071   5.964
 6296SOL    HW120785   8.985  14.001   5.899
 6296SOL    HW220786   8.904  14.071   6.006
 6297SOL     OW20787   7.711   3.050   8.918
 6297SOL    HW120788   7.639   3.084   8.969
 6297SOL    HW220789   7.701   2.955   8.923
 6298SOL     OW20790   1.750   9.876   4.237
 6298SOL    HW120791   1.808   9.800   4.248
 6298SOL    HW220792   1.733   9.906   4.326
 6299SOL     OW20793   7.612  12.981  10.482
 6299SOL    HW120794   7.589  13.015  10.395
 6299SOL    HW220795   7.696  13.023  10.503
 6300SOL     OW20796   6.457  10.957   4.784
 6300SOL    HW120797   6.396  10.901   4.736
 6300SOL    HW220798   6.528  10.975   4.722
 6301SOL     OW20799   4.106   5.253   0.430
 6301SOL    HW120800   4.031   5.285   0.481
 6301SOL    HW220801   4.174   5.238   0.494
 6302SOL     OW20802  13.433  12.568  10.560
 6302SOL    HW120803  13.410  12.607  10.645
 6302SOL    HW220804  13.513  12.518  10.578
 6303SOL     OW20805   3.839   6.657  14.607
 6303SOL    HW120806   3.886   6.628  14.685
 6303SOL    HW220807   3.762   6.703  14.642
 6304SOL     OW20808  14.618   3.945   9.308
 6304SOL    HW120809  14.700   3.988   9.333
 6304SOL    HW220810  14.609   3.873   9.371
 6305SOL     OW20811  10.853  12.052   3.345
 6305SOL    HW120812  10.865  12.072   3.438
 6305SOL    HW220813  10.845  12.137   3.303
 6306SOL     OW20814  10.271   4.840   2.188
 6306SOL    HW120815  10.251   4.828   2.095
 6306SOL    HW220816  10.242   4.929   2.208
 6307SOL     OW20817   3.687  11.572  10.431
 6307SOL    HW120818   3.599  11.565  10.394
 6307SOL    HW220819   3.687  11.655  10.479
 6308SOL     OW20820   7.317   1.996   9.834
 6308SOL    HW120821   7.374   2.009   9.759
 6308SOL    HW220822   7.230   2.020   9.803
 6309SOL     OW20823  11.981   1.614   6.622
 6309SOL    HW120824  12.063   1.626   6.576
 6309SOL    HW220825  11.928   1.690   6.598
 6310SOL     OW20826  10.675  14.057   9.501
 6310SOL    HW120827  10.670  14.020   9.413
 6310SOL    HW220828  10.749  14.011   9.542
 6311SOL     OW20829   6.920  10.673  14.162
 6311SOL    HW120830   6.915  10.688  14.068
 6311SOL    HW220831   6.829  10.678  14.192
 6312SOL     OW20832   6.964   7.678   8.735
 6312SOL    HW120833   7.003   7.685   8.822
 6312SOL    HW220834   6.874   7.650   8.752
 6313SOL     OW20835  14.450  13.169   4.503
 6313SOL    HW120836  14.451  13.204   4.593
 6313SOL    HW220837  14.421  13.079   4.513
 6314SOL     OW20838   3.611   7.442   6.197
 6314SOL    HW120839   3.608   7.476   6.108
 6314SOL    HW220840   3.638   7.516   6.251
 6315SOL     OW20841  14.850   7.916  10.732
 6315SOL    HW120842   0.001   8.007  10.748
 6315SOL    HW220843  14.754   7.918  10.733
 6316SOL     OW20844   3.632   6.615  12.249
 6316SOL    HW120845   3.666   6.703  12.231
 6316SOL    HW220846   3.668   6.592  12.334
 6317SOL     OW20847  12.800  12.427   8.854
 6317SOL    HW120848  12.777  12.337   8.833
 6317SOL    HW220849  12.895  12.429   8.852
 6318SOL     OW20850  10.763  11.696   1.588
 6318SOL    HW120851  10.722  11.609   1.589
 6318SOL    HW220852  10.789  11.709   1.497
 6319SOL     OW20853   0.567   7.466   7.606
 6319SOL    HW120854   0.626   7.451   7.679
 6319SOL    HW220855   0.617   7.520   7.545
 6320SOL     OW20856   5.942   2.723   4.284
 6320SOL    HW120857   5.853   2.754   4.265
 6320SOL    HW220858   5.999   2.779   4.230
 6321SOL     OW20859   5.891   4.481   0.887
 6321SOL    HW120860   5.874   4.395   0.847
 6321SOL    HW220861   5.983   4.476   0.916
 6322SOL     OW20862  11.891   7.403   1.182
 6322SOL    HW120863  11.893   7.374   1.273
 6322SOL    HW220864  11.948   7.342   1.136
 6323SOL     OW20865   6.963   7.328   5.837
 6323SOL    HW120866   6.984   7.311   5.745
 6323SOL    HW220867   6.972   7.423   5.847
 6324SOL     OW20868   2.757   8.268  10.423
 6324SOL    HW120869   2.796   8.196  10.375
 6324SOL    HW220870   2.674   8.234  10.455
 6325SOL     OW20871   7.377  14.644   1.202
 6325SOL    HW120872   7.412  14.602   1.280
 6325SOL    HW220873   7.441  14.624   1.134
 6326SOL     OW20874   5.029   6.234   9.320
 6326SOL    HW120875   5.121   6.211   9.335
 6326SOL    HW220876   5.003   6.182   9.244
 6327SOL     OW20877   6.259   2.242   7.054
 6327SOL    HW120878   6.207   2.278   6.982
 6327SOL    HW220879   6.341   2.215   7.013
 6328SOL     OW20880   2.843  13.709   7.343
 6328SOL    HW120881   2.806  13.621   7.355
 6328SOL    HW220882   2.771  13.761   7.308
 6329SOL     OW20883   5.881   0.374   2.507
 6329SOL    HW120884   5.845   0.289   2.529
 6329SOL    HW220885   5.952   0.387   2.570
 6330SOL     OW20886  13.703   2.973   3.580
 6330SOL    HW120887  13.772   3.028   3.617
 6330SOL    HW220888  13.622   3.009   3.615
 6331SOL     OW20889   7.316   6.383  12.691
 6331SOL    HW120890   7.309   6.355  12.783
 6331SOL    HW220891   7.298   6.303  12.641
 6332SOL     OW20892  14.346   2.997   2.746
 6332SOL    HW120893  14.306   3.017   2.830
 6332SOL    HW220894  14.433   2.963   2.768
 6333SOL     OW20895   2.310   7.450   0.639
 6333SOL    HW120896   2.262   7.524   0.677
 6333SOL    HW220897   2.325   7.390   0.712
 6334SOL     OW20898   0.277  10.644  14.279
 6334SOL    HW120899   0.216  10.571  14.272
 6334SOL    HW220900   0.326  10.627  14.359
 6335SOL     OW20901   9.721   5.768  14.629
 6335SOL    HW120902   9.737   5.674  14.624
 6335SOL    HW220903   9.781   5.806  14.564
 6336SOL     OW20904   5.511   0.779   0.127
 6336SOL    HW120905   5.485   0.699   0.172
 6336SOL    HW220906   5.551   0.750   0.045
 6337SOL     OW20907   1.164   8.884   5.987
 6337SOL    HW120908   1.106   8.869   5.912
 6337SOL    HW220909   1.189   8.797   6.017
 6338SOL     OW20910  13.645  12.700   8.622
 6338SOL    HW120911  13.733  12.663   8.612
 6338SOL    HW220912  13.614  12.712   8.532
 6339SOL     OW20913  12.573   0.085   2.878
 6339SOL    HW120914  12.533   0.171   2.893
 6339SOL    HW220915  12.633   0.099   2.805
 6340SOL     OW20916   3.213  11.002  10.056
 6340SOL    HW120917   3.166  11.074  10.014
 6340SOL    HW220918   3.265  10.964   9.985
 6341SOL     OW20919   0.407  11.219  12.704
 6341SOL    HW120920   0.440  11.150  12.647
 6341SOL    HW220921   0.374  11.173  12.781
 6342SOL     OW20922   3.008   0.701   8.526
 6342SOL    HW120923   3.022   0.624   8.470
 6342SOL    HW220924   3.001   0.774   8.465
 6343SOL     OW20925  14.396   0.655  11.506
 6343SOL    HW120926  14.431   0.644  11.595
 6343SOL    HW220927  14.472   0.679  11.453
 6344SOL     OW20928   6.274   9.827   1.595
 6344SOL    HW120929   6.317   9.819   1.510
 6344SOL    HW220930   6.335   9.877   1.649
 6345SOL     OW20931  14.405  12.841   0.599
 6345SOL    HW120932  14.407  12.746   0.607
 6345SOL    HW220933  14.454  12.860   0.519
 6346SOL     OW20934   9.030   6.732  14.783
 6346SOL    HW120935   8.985   6.665  14.835
 6346SOL    HW220936   8.987   6.729  14.698
 6347SOL     OW20937   0.349   1.348  11.948
 6347SOL    HW120938   0.299   1.412  11.998
 6347SOL    HW220939   0.363   1.390  11.863
 6348SOL     OW20940  10.098   1.415   9.097
 6348SOL    HW120941  10.078   1.407   9.190
 6348SOL    HW220942  10.080   1.328   9.061
 6349SOL     OW20943   3.256   6.499  13.741
 6349SOL    HW120944   3.196   6.430  13.771
 6349SOL    HW220945   3.333   6.489  13.796
 6350SOL     OW20946   8.547  13.709   3.153
 6350SOL    HW120947   8.521  13.788   3.106
 6350SOL    HW220948   8.470  13.652   3.148
 6351SOL     OW20949  13.249   7.700  11.807
 6351SOL    HW120950  13.286   7.696  11.719
 6351SOL    HW220951  13.186   7.627  11.810
 6352SOL     OW20952   9.341   8.300   5.516
 6352SOL    HW120953   9.257   8.338   5.540
 6352SOL    HW220954   9.384   8.282   5.600
 6353SOL     OW20955   1.333   0.744   2.482
 6353SOL    HW120956   1.399   0.810   2.504
 6353SOL    HW220957   1.367   0.663   2.518
 6354SOL     OW20958  10.422   8.501  10.147
 6354SOL    HW120959  10.434   8.502  10.052
 6354SOL    HW220960  10.327   8.505  10.158
 6355SOL     OW20961   3.824   1.987   7.758
 6355SOL    HW120962   3.860   1.909   7.802
 6355SOL    HW220963   3.882   2.058   7.784
 6356SOL     OW20964   2.494   5.900  14.085
 6356SOL    HW120965   2.444   5.898  14.003
 6356SOL    HW220966   2.585   5.901  14.057
 6357SOL     OW20967   9.372   9.637  12.276
 6357SOL    HW120968   9.280   9.620  12.253
 6357SOL    HW220969   9.385   9.588  12.358
 6358SOL     OW20970  12.829   3.244   7.381
 6358SOL    HW120971  12.781   3.300   7.441
 6358SOL    HW220972  12.770   3.230   7.307
 6359SOL     OW20973   4.640   8.980   3.440
 6359SOL    HW120974   4.646   8.902   3.496
 6359SOL    HW220975   4.614   9.050   3.499
 6360SOL     OW20976   0.734   0.423  13.183
 6360SOL    HW120977   0.702   0.423  13.093
 6360SOL    HW220978   0.689   0.350  13.225
 6361SOL     OW20979  10.103  10.724  12.396
 6361SOL    HW120980  10.067  10.754  12.312
 6361SOL    HW220981  10.028  10.728  12.456
 6362SOL     OW20982   7.438  10.443  11.365
 6362SOL    HW120983   7.376  10.476  11.300
 6362SOL    HW220984   7.524  10.464  11.330
 6363SOL     OW20985   6.597  11.534   7.314
 6363SOL    HW120986   6.522  11.570   7.266
 6363SOL    HW220987   6.561  11.461   7.364
 6364SOL     OW20988   3.021   3.379  10.120
 6364SOL    HW120989   2.966   3.458  10.116
 6364SOL    HW220990   3.107   3.408  10.089
 6365SOL     OW20991  11.707   9.094  12.947
 6365SOL    HW120992  11.702   9.188  12.933
 6365SOL    HW220993  11.638   9.058  12.891
 6366SOL     OW20994  13.638   1.292  13.074
 6366SOL    HW120995  13.631   1.298  13.169
 6366SOL    HW220996  13.636   1.384  13.045
 6367SOL     OW20997  10.312  12.878   1.598
 6367SOL    HW120998  10.238  12.926   1.560
 6367SOL    HW220999  10.295  12.787   1.575
 6368SOL     OW21000   7.342  14.506  11.833
 6368SOL    HW121001   7.338  14.579  11.771
 6368SOL    HW221002   7.329  14.547  11.919
 6369SOL     OW21003   5.583  14.273   7.813
 6369SOL    HW121004   5.534  14.258   7.893
 6369SOL    HW221005   5.579  14.367   7.798
 6370SOL     OW21006  13.126   3.431   3.726
 6370SOL    HW121007  13.131   3.340   3.754
 6370SOL    HW221008  13.040   3.461   3.758
 6371SOL     OW21009  12.588   5.406   1.538
 6371SOL    HW121010  12.543   5.324   1.558
 6371SOL    HW221011  12.680   5.390   1.562
 6372SOL     OW21012   4.896   6.135   9.098
 6372SOL    HW121013   4.890   6.133   9.003
 6372SOL    HW221014   4.815   6.092   9.128
 6373SOL     OW21015  11.428   1.159  11.166
 6373SOL    HW121016  11.502   1.110  11.130
 6373SOL    HW221017  11.454   1.182  11.255
 6374SOL     OW21018   9.068   6.352  13.688
 6374SOL    HW121019   8.979   6.371  13.718
 6374SOL    HW221020   9.120   6.348  13.768
 6375SOL     OW21021   3.791  12.336   8.999
 6375SOL    HW121022   3.727  12.303   9.062
 6375SOL    HW221023   3.750  12.415   8.963
 6376SOL     OW21024   1.182  11.120  12.885
 6376SOL    HW121025   1.199  11.071  12.805
 6376SOL    HW221026   1.088  11.140  12.881
 6377SOL     OW21027  14.458  13.667  13.226
 6377SOL    HW121028  14.367  13.682  13.252
 6377SOL    HW221029  14.502  13.639  13.307
 6378SOL     OW21030  14.031   3.210   4.928
 6378SOL    HW121031  14.108   3.262   4.905
 6378SOL    HW221032  14.066   3.126   4.957
 6379SOL     OW21033  10.942   1.566   3.634
 6379SOL    HW121034  10.955   1.495   3.570
 6379SOL    HW221035  11.008   1.631   3.611
 6380SOL     OW21036   4.610   4.554  11.233
 6380SOL    HW121037   4.610   4.628  11.293
 6380SOL    HW221038   4.517   4.540  11.212
 6381SOL     OW21039   1.675   5.951   0.382
 6381SOL    HW121040   1.582   5.971   0.398
 6381SOL    HW221041   1.722   6.029   0.411
 6382SOL     OW21042  12.966   2.563   4.501
 6382SOL    HW121043  13.016   2.486   4.473
 6382SOL    HW221044  13.018   2.638   4.473
 6383SOL     OW21045  13.262   6.763   5.586
 6383SOL    HW121046  13.280   6.782   5.678
 6383SOL    HW221047  13.188   6.702   5.587
 6384SOL     OW21048   6.786   5.842  14.707
 6384SOL    HW121049   6.783   5.799  14.621
 6384SOL    HW221050   6.875   5.826  14.739
 6385SOL     OW21051   2.079  10.417  14.844
 6385SOL    HW121052   2.142  10.444   0.036
 6385SOL    HW221053   2.013  10.486  14.844
 6386SOL     OW21054   6.568  10.177   1.963
 6386SOL    HW121055   6.584  10.271   1.976
 6386SOL    HW221056   6.640  10.133   2.008
 6387SOL     OW21057   6.023   5.680   8.989
 6387SOL    HW121058   5.933   5.684   8.959
 6387SOL    HW221059   6.047   5.771   9.005
 6388SOL     OW21060   4.903   0.351   5.327
 6388SOL    HW121061   4.879   0.357   5.235
 6388SOL    HW221062   4.835   0.401   5.373
 6389SOL     OW21063   8.022   1.394  10.082
 6389SOL    HW121064   8.046   1.351  10.000
 6389SOL    HW221065   7.947   1.344  10.114
 6390SOL     OW21066   3.860   3.414   4.551
 6390SOL    HW121067   3.788   3.475   4.536
 6390SOL    HW221068   3.924   3.433   4.482
 6391SOL     OW21069  13.080   2.752   2.183
 6391SOL    HW121070  13.134   2.776   2.109
 6391SOL    HW221071  13.033   2.674   2.155
 6392SOL     OW21072   2.487   5.640   8.782
 6392SOL    HW121073   2.527   5.683   8.706
 6392SOL    HW221074   2.535   5.557   8.790
 6393SOL     OW21075  12.236  13.066   6.541
 6393SOL    HW121076  12.317  13.023   6.514
 6393SOL    HW221077  12.241  13.153   6.502
 6394SOL     OW21078   2.332   6.701   4.176
 6394SOL    HW121079   2.260   6.756   4.146
 6394SOL    HW221080   2.374   6.670   4.096
 6395SOL     OW21081   5.036   4.829   0.075
 6395SOL    HW121082   5.021   4.922   0.055
 6395SOL    HW221083   5.026   4.824   0.170
 6396SOL     OW21084  13.268   1.864  13.609
 6396SOL    HW121085  13.236   1.850  13.520
 6396SOL    HW221086  13.362   1.879  13.600
 6397SOL     OW21087  11.084   4.961   4.112
 6397SOL    HW121088  11.164   4.936   4.066
 6397SOL    HW221089  11.088   5.057   4.116
 6398SOL     OW21090   1.483   4.024   0.190
 6398SOL    HW121091   1.423   3.993   0.258
 6398SOL    HW221092   1.532   4.095   0.232
 6399SOL     OW21093   6.428   3.056   0.925
 6399SOL    HW121094   6.356   2.992   0.928
 6399SOL    HW221095   6.488   3.028   0.994
 6400SOL     OW21096   7.912  13.021   2.194
 6400SOL    HW121097   7.871  12.980   2.270
 6400SOL    HW221098   7.957  12.949   2.149
 6401SOL     OW21099   2.429  14.766  14.609
 6401SOL    HW121100   2.498  14.806  14.556
 6401SOL    HW221101   2.432  14.813  14.692
 6402SOL     OW21102   2.280   9.823   3.355
 6402SOL    HW121103   2.242   9.845   3.270
 6402SOL    HW221104   2.208   9.834   3.417
 6403SOL     OW21105   8.316  14.355  10.699
 6403SOL    HW121106   8.352  14.267  10.688
 6403SOL    HW221107   8.273  14.353  10.785
 6404SOL     OW21108   2.867   5.613   8.473
 6404SOL    HW121109   2.878   5.704   8.445
 6404SOL    HW221110   2.952   5.573   8.459
 6405SOL     OW21111   6.888  11.508  14.249
 6405SOL    HW121112   6.965  11.534  14.300
 6405SOL    HW221113   6.848  11.591  14.222
 6406SOL     OW21114   8.181  10.089  12.691
 6406SOL    HW121115   8.256  10.112  12.745
 6406SOL    HW221116   8.107  10.133  12.733
 6407SOL     OW21117  13.584   1.630   1.920
 6407SOL    HW121118  13.520   1.562   1.946
 6407SOL    HW221119  13.669   1.589   1.936
 6408SOL     OW21120   3.261   0.020  10.288
 6408SOL    HW121121   3.179   0.067  10.278
 6408SOL    HW221122   3.327   0.078  10.249
 6409SOL     OW21123   4.860   0.086   0.307
 6409SOL    HW121124   4.836   0.128   0.225
 6409SOL    HW221125   4.954   0.101   0.315
 6410SOL     OW21126   6.685   5.408   8.752
 6410SOL    HW121127   6.615   5.351   8.784
 6410SOL    HW221128   6.760   5.389   8.809
 6411SOL     OW21129  13.629   6.831  14.354
 6411SOL    HW121130  13.550   6.777  14.354
 6411SOL    HW221131  13.678   6.802  14.277
 6412SOL     OW21132   4.361  14.392   5.292
 6412SOL    HW121133   4.394  14.437   5.370
 6412SOL    HW221134   4.266  14.405   5.296
 6413SOL     OW21135   6.979  10.959   0.537
 6413SOL    HW121136   7.022  10.939   0.620
 6413SOL    HW221137   6.908  10.895   0.530
 6414SOL     OW21138  12.354   8.073  11.725
 6414SOL    HW121139  12.331   8.152  11.774
 6414SOL    HW221140  12.444   8.054  11.751
 6415SOL     OW21141   0.276  14.800   4.792
 6415SOL    HW121142   0.239   0.013   4.784
 6415SOL    HW221143   0.351  14.810   4.850
 6416SOL     OW21144  10.736   5.344   1.177
 6416SOL    HW121145  10.690   5.298   1.106
 6416SOL    HW221146  10.691   5.428   1.185
 6417SOL     OW21147  12.067   4.610   7.210
 6417SOL    HW121148  11.985   4.616   7.259
 6417SOL    HW221149  12.134   4.634   7.274
 6418SOL     OW21150  11.529  12.247  12.383
 6418SOL    HW121151  11.440  12.273  12.358
 6418SOL    HW221152  11.558  12.314  12.444
 6419SOL     OW21153  12.595   0.882   2.515
 6419SOL    HW121154  12.505   0.881   2.549
 6419SOL    HW221155  12.601   0.965   2.467
 6420SOL     OW21156   8.130   0.174  13.342
 6420SOL    HW121157   8.147   0.164  13.435
 6420SOL    HW221158   8.143   0.087  13.305
 6421SOL     OW21159   1.275   1.151   2.679
 6421SOL    HW121160   1.230   1.184   2.757
 6421SOL    HW221161   1.206   1.141   2.613
 6422SOL     OW21162   1.985   8.381  11.102
 6422SOL    HW121163   1.942   8.395  11.186
 6422SOL    HW221164   1.915   8.390  11.037
 6423SOL     OW21165   3.388   9.621  11.355
 6423SOL    HW121166   3.383   9.534  11.394
 6423SOL    HW221167   3.346   9.679  11.419
 6424SOL     OW21168   5.440   8.587  11.037
 6424SOL    HW121169   5.464   8.552  11.123
 6424SOL    HW221170   5.353   8.624  11.050
 6425SOL     OW21171   7.003  12.482   6.247
 6425SOL    HW121172   7.081  12.535   6.264
 6425SOL    HW221173   6.971  12.458   6.335
 6426SOL     OW21174   3.923  14.617   2.738
 6426SOL    HW121175   3.840  14.571   2.729
 6426SOL    HW221176   3.912  14.673   2.814
 6427SOL     OW21177  14.828  11.724  13.218
 6427SOL    HW121178  14.737  11.729  13.250
 6427SOL    HW221179   0.003  11.772  13.284
 6428SOL     OW21180   5.119  13.674   6.570
 6428SOL    HW121181   5.174  13.597   6.587
 6428SOL    HW221182   5.066  13.683   6.650
 6429SOL     OW21183  10.567  11.969   1.114
 6429SOL    HW121184  10.532  11.881   1.105
 6429SOL    HW221185  10.525  12.004   1.193
 6430SOL     OW21186   1.738   3.548  14.255
 6430SOL    HW121187   1.801   3.601  14.304
 6430SOL    HW221188   1.760   3.564  14.163
 6431SOL     OW21189  11.553   0.461   1.631
 6431SOL    HW121190  11.622   0.522   1.656
 6431SOL    HW221191  11.490   0.515   1.583
 6432SOL     OW21192   9.047  10.619   1.769
 6432SOL    HW121193   9.001  10.584   1.694
 6432SOL    HW221194   9.083  10.542   1.813
 6433SOL     OW21195   6.913   9.743   9.854
 6433SOL    HW121196   6.875   9.692   9.783
 6433SOL    HW221197   6.838   9.770   9.907
 6434SOL     OW21198   5.669   8.270  12.658
 6434SOL    HW121199   5.643   8.200  12.719
 6434SOL    HW221200   5.744   8.311  12.700
 6435SOL     OW21201   6.565   8.693   3.644
 6435SOL    HW121202   6.533   8.677   3.733
 6435SOL    HW221203   6.648   8.645   3.639
 6436SOL     OW21204  13.771   5.791  10.104
 6436SOL    HW121205  13.820   5.850  10.161
 6436SOL    HW221206  13.834   5.764  10.037
 6437SOL     OW21207   5.940   5.570  14.410
 6437SOL    HW121208   5.904   5.655  14.436
 6437SOL    HW221209   5.931   5.570  14.314
 6438SOL     OW21210   8.928   6.985  14.721
 6438SOL    HW121211   8.962   6.897  14.737
 6438SOL    HW221212   8.833   6.975  14.726
 6439SOL     OW21213  12.157   0.113   8.737
 6439SOL    HW121214  12.141   0.139   8.647
 6439SOL    HW221215  12.089   0.049   8.756
 6440SOL     OW21216   6.066   3.111   9.280
 6440SOL    HW121217   6.089   3.135   9.190
 6440SOL    HW221218   6.145   3.069   9.315
 6441SOL     OW21219  14.160   2.224  10.308
 6441SOL    HW121220  14.194   2.201  10.221
 6441SOL    HW221221  14.230   2.200  10.368
 6442SOL     OW21222  12.588   7.508  12.455
 6442SOL    HW121223  12.629   7.422  12.447
 6442SOL    HW221224  12.629   7.546  12.533
 6443SOL     OW21225   4.965   8.355   7.637
 6443SOL    HW121226   4.950   8.316   7.723
 6443SOL    HW221227   4.884   8.401   7.617
 6444SOL     OW21228  11.195   2.267   6.132
 6444SOL    HW121229  11.209   2.357   6.161
 6444SOL    HW221230  11.233   2.213   6.201
 6445SOL     OW21231  12.264   8.683   9.135
 6445SOL    HW121232  12.234   8.666   9.224
 6445SOL    HW221233  12.234   8.772   9.116
 6446SOL     OW21234  14.335   2.254   9.776
 6446SOL    HW121235  14.353   2.162   9.799
 6446SOL    HW221236  14.313   2.251   9.683
 6447SOL     OW21237   7.184  12.539   5.853
 6447SOL    HW121238   7.119  12.472   5.871
 6447SOL    HW221239   7.245  12.534   5.928
 6448SOL     OW21240   6.173   5.969  13.694
 6448SOL    HW121241   6.100   6.023  13.725
 6448SOL    HW221242   6.135   5.918  13.622
 6449SOL     OW21243  13.440   3.017  10.272
 6449SOL    HW121244  13.450   3.046  10.181
 6449SOL    HW221245  13.503   2.945  10.281
 6450SOL     OW21246   2.885   8.142  12.729
 6450SOL    HW121247   2.811   8.089  12.760
 6450SOL    HW221248   2.962   8.087  12.743
 6451SOL     OW21249  12.149   9.740  13.562
 6451SOL    HW121250  12.226   9.696  13.525
 6451SOL    HW221251  12.134   9.695  13.645
 6452SOL     OW21252  11.232   0.470   2.107
 6452SOL    HW121253  11.298   0.447   2.042
 6452SOL    HW221254  11.187   0.388   2.127
 6453SOL     OW21255   9.600  14.515  14.406
 6453SOL    HW121256   9.663  14.443  14.417
 6453SOL    HW221257   9.607  14.539  14.314
 6454SOL     OW21258   1.765   2.373   5.172
 6454SOL    HW121259   1.842   2.331   5.209
 6454SOL    HW221260   1.701   2.303   5.162
 6455SOL     OW21261  12.637   7.827  14.134
 6455SOL    HW121262  12.671   7.754  14.187
 6455SOL    HW221263  12.623   7.789  14.048
 6456SOL     OW21264   2.044  10.774   0.759
 6456SOL    HW121265   2.127  10.813   0.731
 6456SOL    HW221266   1.985  10.848   0.771
 6457SOL     OW21267   4.166  11.553   9.351
 6457SOL    HW121268   4.222  11.614   9.302
 6457SOL    HW221269   4.080  11.595   9.353
 6458SOL     OW21270  12.882   3.540   7.005
 6458SOL    HW121271  12.864   3.498   6.921
 6458SOL    HW221272  12.973   3.518   7.023
 6459SOL     OW21273   5.306   0.872  10.151
 6459SOL    HW121274   5.276   0.804  10.212
 6459SOL    HW221275   5.318   0.949  10.206
 6460SOL     OW21276   9.485   6.358   0.624
 6460SOL    HW121277   9.533   6.279   0.598
 6460SOL    HW221278   9.412   6.326   0.676
 6461SOL     OW21279   0.106   8.249   0.860
 6461SOL    HW121280   0.055   8.330   0.850
 6461SOL    HW221281   0.110   8.235   0.955
 6462SOL     OW21282   5.298  12.530   2.101
 6462SOL    HW121283   5.366  12.480   2.057
 6462SOL    HW221284   5.324  12.622   2.090
 6463SOL     OW21285   4.912   5.379   8.788
 6463SOL    HW121286   4.963   5.298   8.789
 6463SOL    HW221287   4.842   5.363   8.725
 6464SOL     OW21288   2.194  12.224  13.827
 6464SOL    HW121289   2.130  12.296  13.823
 6464SOL    HW221290   2.279  12.268  13.832
 6465SOL     OW21291   8.207   3.694   7.094
 6465SOL    HW121292   8.136   3.755   7.075
 6465SOL    HW221293   8.259   3.738   7.162
 6466SOL     OW21294  14.142  12.229   2.213
 6466SOL    HW121295  14.195  12.245   2.291
 6466SOL    HW221296  14.052  12.225   2.245
 6467SOL     OW21297   4.470   7.525   4.556
 6467SOL    HW121298   4.493   7.611   4.592
 6467SOL    HW221299   4.492   7.531   4.463
 6468SOL     OW21300  10.789   2.898   5.884
 6468SOL    HW121301  10.765   2.884   5.792
 6468SOL    HW221302  10.781   2.993   5.897
 6469SOL     OW21303   5.926  13.106  13.105
 6469SOL    HW121304   5.925  13.144  13.193
 6469SOL    HW221305   5.991  13.157  13.057
 6470SOL     OW21306  11.365  13.266   7.396
 6470SOL    HW121307  11.423  13.216   7.454
 6470SOL    HW221308  11.417  13.279   7.317
 6471SOL     OW21309  10.798   0.378  13.146
 6471SOL    HW121310  10.751   0.337  13.073
 6471SOL    HW221311  10.890   0.361  13.127
 6472SOL     OW21312  12.614   6.004  14.306
 6472SOL    HW121313  12.700   6.037  14.331
 6472SOL    HW221314  12.558   6.082  14.305
 6473SOL     OW21315   9.575  13.543   6.382
 6473SOL    HW121316   9.564  13.467   6.325
 6473SOL    HW221317   9.518  13.610   6.343
 6474SOL     OW21318  11.761   5.152   5.708
 6474SOL    HW121319  11.745   5.176   5.616
 6474SOL    HW221320  11.754   5.235   5.755
 6475SOL     OW21321  13.563  14.323   6.756
 6475SOL    HW121322  13.514  14.349   6.678
 6475SOL    HW221323  13.655  14.334   6.730
 6476SOL     OW21324   2.786   4.639   5.808
 6476SOL    HW121325   2.749   4.605   5.889
 6476SOL    HW221326   2.872   4.674   5.833
 6477SOL     OW21327   4.435   9.948  14.233
 6477SOL    HW121328   4.370   9.879  14.221
 6477SOL    HW221329   4.462   9.972  14.144
 6478SOL     OW21330   0.372   2.688   7.563
 6478SOL    HW121331   0.317   2.702   7.640
 6478SOL    HW221332   0.332   2.613   7.519
 6479SOL     OW21333   2.185   7.207   3.492
 6479SOL    HW121334   2.124   7.145   3.452
 6479SOL    HW221335   2.129   7.281   3.519
 6480SOL     OW21336   9.458   4.294   3.884
 6480SOL    HW121337   9.522   4.364   3.899
 6480SOL    HW221338   9.409   4.289   3.966
 6481SOL     OW21339  14.354  14.525  11.686
 6481SOL    HW121340  14.268  14.567  11.690
 6481SOL    HW221341  14.340  14.448  11.631
 6482SOL     OW21342   5.016   2.405  12.076
 6482SOL    HW121343   5.078   2.381  12.008
 6482SOL    HW221344   5.059   2.475  12.125
 6483SOL     OW21345   4.624  14.274   3.557
 6483SOL    HW121346   4.661  14.286   3.470
 6483SOL    HW221347   4.698  14.282   3.616
 6484SOL     OW21348   3.211   8.326   6.817
 6484SOL    HW121349   3.299   8.311   6.851
 6484SOL    HW221350   3.153   8.307   6.890
 6485SOL     OW21351   3.830   6.272  10.945
 6485SOL    HW121352   3.774   6.196  10.928
 6485SOL    HW221353   3.789   6.316  11.019
 6486SOL     OW21354  12.490  14.315  13.236
 6486SOL    HW121355  12.395  14.329  13.242
 6486SOL    HW221356  12.510  14.255  13.308
 6487SOL     OW21357   9.890   8.924   9.029
 6487SOL    HW121358   9.846   8.853   9.075
 6487SOL    HW221359   9.901   8.892   8.939
 6488SOL     OW21360   8.474  12.896   9.219
 6488SOL    HW121361   8.563  12.883   9.252
 6488SOL    HW221362   8.429  12.813   9.236
 6489SOL     OW21363   0.773   7.791  12.994
 6489SOL    HW121364   0.838   7.808  12.925
 6489SOL    HW221365   0.825   7.776  13.073
 6490SOL     OW21366   3.574   5.627  10.227
 6490SOL    HW121367   3.488   5.599  10.194
 6490SOL    HW221368   3.637   5.580  10.172
 6491SOL     OW21369  12.486  14.811   7.357
 6491SOL    HW121370  12.455   0.025   7.373
 6491SOL    HW221371  12.552  14.796   7.425
 6492SOL     OW21372   9.951  13.716   7.546
 6492SOL    HW121373  10.014  13.716   7.618
 6492SOL    HW221374   9.979  13.787   7.489
 6493SOL     OW21375   9.413  13.971   2.766
 6493SOL    HW121376   9.380  13.885   2.740
 6493SOL    HW221377   9.451  14.007   2.686
 6494SOL     OW21378   1.572   6.326   4.434
 6494SOL    HW121379   1.493   6.352   4.387
 6494SOL    HW221380   1.571   6.379   4.513
 6495SOL     OW21381   8.934   9.621   8.234
 6495SOL    HW121382   8.847   9.660   8.244
 6495SOL    HW221383   8.921   9.552   8.168
 6496SOL     OW21384   0.275   8.488  10.105
 6496SOL    HW121385   0.267   8.582  10.122
 6496SOL    HW221386   0.368   8.475  10.086
 6497SOL     OW21387   2.478  13.394  10.617
 6497SOL    HW121388   2.450  13.342  10.541
 6497SOL    HW221389   2.571  13.371  10.628
 6498SOL     OW21390  10.475   9.243  14.039
 6498SOL    HW121391  10.455   9.172  14.100
 6498SOL    HW221392  10.567   9.230  14.017
 6499SOL     OW21393  12.886  10.265  11.277
 6499SOL    HW121394  12.832  10.241  11.202
 6499SOL    HW221395  12.826  10.265  11.351
 6500SOL     OW21396   2.642   1.271  12.310
 6500SOL    HW121397   2.572   1.321  12.351
 6500SOL    HW221398   2.714   1.333  12.301
 6501SOL     OW21399  12.893   3.780   3.055
 6501SOL    HW121400  12.965   3.731   3.014
 6501SOL    HW221401  12.829   3.713   3.080
 6502SOL     OW21402   8.800  11.247   6.007
 6502SOL    HW121403   8.851  11.278   5.932
 6502SOL    HW221404   8.780  11.327   6.057
 6503SOL     OW21405   7.375   9.035  14.048
 6503SOL    HW121406   7.327   8.973  13.992
 6503SOL    HW221407   7.462   9.040  14.009
 6504SOL     OW21408   9.310   7.940   5.724
 6504SOL    HW121409   9.314   8.005   5.794
 6504SOL    HW221410   9.400   7.911   5.712
 6505SOL     OW21411  11.608  11.902   5.816
 6505SOL    HW121412  11.692  11.881   5.856
 6505SOL    HW221413  11.544  11.856   5.870
 6506SOL     OW21414   2.210   2.729   8.142
 6506SOL    HW121415   2.263   2.752   8.218
 6506SOL    HW221416   2.264   2.755   8.067
 6507SOL     OW21417   8.428   2.593   9.272
 6507SOL    HW121418   8.435   2.550   9.357
 6507SOL    HW221419   8.500   2.657   9.272
 6508SOL     OW21420  11.908   3.460  13.759
 6508SOL    HW121421  11.977   3.475  13.695
 6508SOL    HW221422  11.855   3.390  13.721
 6509SOL     OW21423   5.692  13.151   8.888
 6509SOL    HW121424   5.714  13.229   8.837
 6509SOL    HW221425   5.689  13.081   8.823
 6510SOL     OW21426   8.255   5.316  13.623
 6510SOL    HW121427   8.345   5.288  13.608
 6510SOL    HW221428   8.211   5.238  13.656
 6511SOL     OW21429   3.998   3.818  14.146
 6511SOL    HW121430   3.989   3.750  14.079
 6511SOL    HW221431   4.088   3.848  14.139
 6512SOL     OW21432  11.478   3.421  12.281
 6512SOL    HW121433  11.420   3.368  12.226
 6512SOL    HW221434  11.565   3.403  12.248
 6513SOL     OW21435   9.961   0.116  13.268
 6513SOL    HW121436   9.991   0.112  13.358
 6513SOL    HW221437   9.869   0.140  13.274
 6514SOL     OW21438   2.289   2.334  11.055
 6514SOL    HW121439   2.275   2.400  10.987
 6514SOL    HW221440   2.363   2.283  11.025
 6515SOL     OW21441  14.839   5.273   4.237
 6515SOL    HW121442  14.786   5.322   4.174
 6515SOL    HW221443   0.052   5.273   4.198
 6516SOL     OW21444  12.215  12.814   4.167
 6516SOL    HW121445  12.209  12.881   4.235
 6516SOL    HW221446  12.164  12.740   4.201
 6517SOL     OW21447   1.812  12.033   3.553
 6517SOL    HW121448   1.864  12.033   3.472
 6517SOL    HW221449   1.727  12.068   3.526
 6518SOL     OW21450   5.651   3.248  13.018
 6518SOL    HW121451   5.705   3.297  12.957
 6518SOL    HW221452   5.687   3.159  13.016
 6519SOL     OW21453  11.294   4.779   4.888
 6519SOL    HW121454  11.298   4.830   4.807
 6519SOL    HW221455  11.219   4.721   4.876
 6520SOL     OW21456   2.816   9.561   2.746
 6520SOL    HW121457   2.778   9.625   2.806
 6520SOL    HW221458   2.746   9.541   2.684
 6521SOL     OW21459   5.118   3.683   7.297
 6521SOL    HW121460   5.069   3.764   7.279
 6521SOL    HW221461   5.167   3.703   7.376
 6522SOL     OW21462   6.643  10.494  13.540
 6522SOL    HW121463   6.608  10.437  13.472
 6522SOL    HW221464   6.643  10.440  13.619
 6523SOL     OW21465   2.200   1.981   3.330
 6523SOL    HW121466   2.227   1.921   3.400
 6523SOL    HW221467   2.211   2.068   3.367
 6524SOL     OW21468   4.050   9.823   6.530
 6524SOL    HW121469   4.123   9.824   6.592
 6524SOL    HW221470   4.000   9.745   6.552
 6525SOL     OW21471   4.919   6.297   4.208
 6525SOL    HW121472   4.831   6.308   4.244
 6525SOL    HW221473   4.957   6.385   4.210
 6526SOL     OW21474   3.901   8.738   6.836
 6526SOL    HW121475   3.881   8.653   6.874
 6526SOL    HW221476   3.836   8.797   6.873
 6527SOL     OW21477   2.184   5.446   2.215
 6527SOL    HW121478   2.183   5.419   2.123
 6527SOL    HW221479   2.277   5.452   2.237
 6528SOL     OW21480   3.189   7.033   7.800
 6528SOL    HW121481   3.217   7.124   7.800
 6528SOL    HW221482   3.266   6.983   7.774
 6529SOL     OW21483  14.041   4.589  11.746
 6529SOL    HW121484  14.005   4.501  11.757
 6529SOL    HW221485  13.966   4.641  11.715
 6530SOL     OW21486   5.974   0.588   1.566
 6530SOL    HW121487   6.026   0.666   1.584
 6530SOL    HW221488   6.036   0.516   1.572
 6531SOL     OW21489   1.360   8.116   2.166
 6531SOL    HW121490   1.285   8.141   2.220
 6531SOL    HW221491   1.427   8.088   2.228
 6532SOL     OW21492   7.768   3.567  10.286
 6532SOL    HW121493   7.721   3.553  10.203
 6532SOL    HW221494   7.726   3.644  10.324
 6533SOL     OW21495   8.535   6.522  14.743
 6533SOL    HW121496   8.498   6.605  14.712
 6533SOL    HW221497   8.491   6.455  14.691
 6534SOL     OW21498   5.712  14.459   3.179
 6534SOL    HW121499   5.747  14.546   3.198
 6534SOL    HW221500   5.681  14.426   3.263
 6535SOL     OW21501   5.990   5.667   3.737
 6535SOL    HW121502   6.049   5.726   3.785
 6535SOL    HW221503   5.966   5.715   3.658
 6536SOL     OW21504  10.378  11.881  10.712
 6536SOL    HW121505  10.455  11.927  10.745
 6536SOL    HW221506  10.310  11.898  10.777
 6537SOL     OW21507  12.594   7.280   0.443
 6537SOL    HW121508  12.578   7.375   0.445
 6537SOL    HW221509  12.653   7.268   0.369
 6538SOL     OW21510   8.337   7.507   9.201
 6538SOL    HW121511   8.407   7.570   9.181
 6538SOL    HW221512   8.373   7.422   9.176
 6539SOL     OW21513   9.664   7.303  11.070
 6539SOL    HW121514   9.613   7.383  11.059
 6539SOL    HW221515   9.752   7.325  11.040
 6540SOL     OW21516   0.081   5.038   6.909
 6540SOL    HW121517   0.072   4.962   6.967
 6540SOL    HW221518   0.038   5.011   6.828
 6541SOL     OW21519   5.168   2.395   3.206
 6541SOL    HW121520   5.211   2.384   3.121
 6541SOL    HW221521   5.141   2.306   3.231
 6542SOL     OW21522  13.997   3.896   7.372
 6542SOL    HW121523  14.027   3.821   7.423
 6542SOL    HW221524  13.903   3.883   7.362
 6543SOL     OW21525   6.210  12.771   3.468
 6543SOL    HW121526   6.260  12.762   3.387
 6543SOL    HW221527   6.277  12.788   3.535
 6544SOL     OW21528   2.624  13.746  12.308
 6544SOL    HW121529   2.533  13.725  12.286
 6544SOL    HW221530   2.634  13.713  12.397
 6545SOL     OW21531   0.753   6.736   5.524
 6545SOL    HW121532   0.846   6.724   5.543
 6545SOL    HW221533   0.733   6.823   5.558
 6546SOL     OW21534   8.789  11.213   9.792
 6546SOL    HW121535   8.722  11.277   9.815
 6546SOL    HW221536   8.824  11.243   9.708
 6547SOL     OW21537   0.750   1.455   6.474
 6547SOL    HW121538   0.657   1.464   6.497
 6547SOL    HW221539   0.751   1.389   6.404
 6548SOL     OW21540   3.893  12.182   4.372
 6548SOL    HW121541   3.806  12.165   4.334
 6548SOL    HW221542   3.874  12.234   4.450
 6549SOL     OW21543   6.482  14.370   6.973
 6549SOL    HW121544   6.404  14.423   6.994
 6549SOL    HW221545   6.491  14.311   7.047
 6550SOL     OW21546   9.880  13.132  12.849
 6550SOL    HW121547   9.881  13.038  12.827
 6550SOL    HW221548   9.802  13.143  12.903
 6551SOL     OW21549  10.863  11.773   9.887
 6551SOL    HW121550  10.894  11.856   9.923
 6551SOL    HW221551  10.806  11.738   9.956
 6552SOL     OW21552  12.675   7.791   3.652
 6552SOL    HW121553  12.640   7.835   3.574
 6552SOL    HW221554  12.730   7.857   3.694
 6553SOL     OW21555   8.563   6.594   4.621
 6553SOL    HW121556   8.609   6.622   4.700
 6553SOL    HW221557   8.515   6.515   4.648
 6554SOL     OW21558   0.891   1.390  14.423
 6554SOL    HW121559   0.846   1.468  14.391
 6554SOL    HW221560   0.956   1.424  14.485
 6555SOL     OW21561   0.478   3.572  10.718
 6555SOL    HW121562   0.448   3.557  10.629
 6555SOL    HW221563   0.466   3.666  10.732
 6556SOL     OW21564   2.838   7.159   8.130
 6556SOL    HW121565   2.831   7.169   8.035
 6556SOL    HW221566   2.933   7.158   8.147
 6557SOL     OW21567   0.500   2.742  11.741
 6557SOL    HW121568   0.457   2.679  11.683
 6557SOL    HW221569   0.431   2.768  11.802
 6558SOL     OW21570  11.635   0.633  11.913
 6558SOL    HW121571  11.731   0.633  11.909
 6558SOL    HW221572  11.608   0.601  11.827
 6559SOL     OW21573   7.996   2.451   2.098
 6559SOL    HW121574   8.044   2.384   2.147
 6559SOL    HW221575   7.973   2.516   2.163
 6560SOL     OW21576   1.093  12.219  14.456
 6560SOL    HW121577   1.107  12.303  14.501
 6560SOL    HW221578   1.076  12.157  14.527
 6561SOL     OW21579   1.825  10.199   9.014
 6561SOL    HW121580   1.893  10.191   8.947
 6561SOL    HW221581   1.870  10.176   9.096
 6562SOL     OW21582   5.709  14.543   1.452
 6562SOL    HW121583   5.622  14.569   1.480
 6562SOL    HW221584   5.753  14.625   1.430
 6563SOL     OW21585  10.914   1.539   4.654
 6563SOL    HW121586  10.872   1.625   4.643
 6563SOL    HW221587  10.964   1.547   4.735
 6564SOL     OW21588   7.973   3.883   8.369
 6564SOL    HW121589   7.958   3.948   8.300
 6564SOL    HW221590   8.006   3.806   8.323
 6565SOL     OW21591   2.815   9.644   0.852
 6565SOL    HW121592   2.832   9.736   0.868
 6565SOL    HW221593   2.731   9.642   0.807
 6566SOL     OW21594   9.481   6.469   6.732
 6566SOL    HW121595   9.449   6.414   6.804
 6566SOL    HW221596   9.420   6.451   6.660
 6567SOL     OW21597   0.228  13.070   6.689
 6567SOL    HW121598   0.210  13.156   6.653
 6567SOL    HW221599   0.206  13.009   6.618
 6568SOL     OW21600   5.343  11.518   2.558
 6568SOL    HW121601   5.360  11.473   2.475
 6568SOL    HW221602   5.398  11.596   2.555
 6569SOL     OW21603   6.094  13.553   4.865
 6569SOL    HW121604   6.089  13.584   4.956
 6569SOL    HW221605   6.003  13.532   4.842
 6570SOL     OW21606   3.079   4.248   9.930
 6570SOL    HW121607   2.990   4.226   9.903
 6570SOL    HW221608   3.091   4.340   9.905
 6571SOL     OW21609   9.723  12.006   4.882
 6571SOL    HW121610   9.805  11.973   4.845
 6571SOL    HW221611   9.662  11.933   4.875
 6572SOL     OW21612   1.796   2.450   6.421
 6572SOL    HW121613   1.742   2.528   6.436
 6572SOL    HW221614   1.834   2.463   6.334
 6573SOL     OW21615  10.897   5.457   8.169
 6573SOL    HW121616  10.920   5.539   8.213
 6573SOL    HW221617  10.863   5.483   8.083
 6574SOL     OW21618   8.215   0.709  13.529
 6574SOL    HW121619   8.214   0.767  13.606
 6574SOL    HW221620   8.294   0.735  13.481
 6575SOL     OW21621   5.103  14.053   9.230
 6575SOL    HW121622   5.192  14.032   9.203
 6575SOL    HW221623   5.062  14.090   9.151
 6576SOL     OW21624  11.802   7.425  12.398
 6576SOL    HW121625  11.779   7.446  12.488
 6576SOL    HW221626  11.765   7.338  12.383
 6577SOL     OW21627   0.450   2.769   9.248
 6577SOL    HW121628   0.518   2.716   9.290
 6577SOL    HW221629   0.428   2.835   9.313
 6578SOL     OW21630  12.414   5.936  13.074
 6578SOL    HW121631  12.319   5.928  13.060
 6578SOL    HW221632  12.426   5.918  13.167
 6579SOL     OW21633  10.527   5.525  11.566
 6579SOL    HW121634  10.524   5.615  11.599
 6579SOL    HW221635  10.444   5.487  11.594
 6580SOL     OW21636   8.825  10.059   2.368
 6580SOL    HW121637   8.740  10.016   2.378
 6580SOL    HW221638   8.829  10.122   2.441
 6581SOL     OW21639   9.506   2.011  10.505
 6581SOL    HW121640   9.497   2.085  10.565
 6581SOL    HW221641   9.435   1.952  10.529
 6582SOL     OW21642   0.414   2.726  12.395
 6582SOL    HW121643   0.507   2.715  12.415
 6582SOL    HW221644   0.374   2.643  12.422
 6583SOL     OW21645   8.375   3.026  13.022
 6583SOL    HW121646   8.416   3.069  12.947
 6583SOL    HW221647   8.430   3.051  13.096
 6584SOL     OW21648   3.093  14.765   7.871
 6584SOL    HW121649   3.142  14.715   7.936
 6584SOL    HW221650   3.026  14.705   7.839
 6585SOL     OW21651   0.958   4.231   2.828
 6585SOL    HW121652   0.980   4.152   2.779
 6585SOL    HW221653   0.865   4.220   2.850
 6586SOL     OW21654  11.272   0.075   7.358
 6586SOL    HW121655  11.181   0.045   7.355
 6586SOL    HW221656  11.287   0.098   7.450
 6587SOL     OW21657  12.052   4.372   0.603
 6587SOL    HW121658  12.087   4.410   0.683
 6587SOL    HW221659  12.007   4.292   0.631
 6588SOL     OW21660   5.384   4.630  10.298
 6588SOL    HW121661   5.472   4.667  10.295
 6588SOL    HW221662   5.375   4.581  10.217
 6589SOL     OW21663   4.474  13.880   2.963
 6589SOL    HW121664   4.533  13.807   2.977
 6589SOL    HW221665   4.509  13.926   2.887
 6590SOL     OW21666  13.882  14.128   2.454
 6590SOL    HW121667  13.935  14.195   2.412
 6590SOL    HW221668  13.798  14.132   2.409
 6591SOL     OW21669   2.982   3.833  12.701
 6591SOL    HW121670   2.888   3.816  12.695
 6591SOL    HW221671   2.991   3.926  12.681
 6592SOL     OW21672   9.026   6.835   1.916
 6592SOL    HW121673   9.050   6.885   1.838
 6592SOL    HW221674   8.932   6.851   1.927
 6593SOL     OW21675  12.185  10.134   1.019
 6593SOL    HW121676  12.159  10.042   1.019
 6593SOL    HW221677  12.259  10.137   0.957
 6594SOL     OW21678  10.946  14.419   3.270
 6594SOL    HW121679  11.039  14.405   3.253
 6594SOL    HW221680  10.902  14.394   3.189
 6595SOL     OW21681   3.020   6.613   4.858
 6595SOL    HW121682   3.103   6.572   4.833
 6595SOL    HW221683   3.037   6.707   4.852
 6596SOL     OW21684   7.862   6.450   9.201
 6596SOL    HW121685   7.828   6.506   9.131
 6596SOL    HW221686   7.851   6.503   9.281
 6597SOL     OW21687  13.126   1.681   4.476
 6597SOL    HW121688  13.062   1.635   4.531
 6597SOL    HW221689  13.208   1.673   4.523
 6598SOL     OW21690   8.225  11.684   1.296
 6598SOL    HW121691   8.283  11.711   1.225
 6598SOL    HW221692   8.177  11.763   1.320
 6599SOL     OW21693   3.899   9.320   6.408
 6599SOL    HW121694   3.965   9.323   6.340
 6599SOL    HW221695   3.893   9.410   6.441
 6600SOL     OW21696   7.523   4.043   5.346
 6600SOL    HW121697   7.464   3.977   5.384
 6600SOL    HW221698   7.605   3.995   5.331
 6601SOL     OW21699   7.520  14.057  12.549
 6601SOL    HW121700   7.534  14.138  12.498
 6601SOL    HW221701   7.565  13.989  12.498
 6602SOL     OW21702   6.763   6.102   3.707
 6602SOL    HW121703   6.825   6.079   3.637
 6602SOL    HW221704   6.764   6.198   3.708
 6603SOL     OW21705   1.946   4.620   9.322
 6603SOL    HW121706   2.014   4.683   9.347
 6603SOL    HW221707   1.974   4.586   9.237
 6604SOL     OW21708  12.556   8.961  12.755
 6604SOL    HW121709  12.501   8.931  12.827
 6604SOL    HW221710  12.496   9.010  12.698
 6605SOL     OW21711   8.500  11.077   8.672
 6605SOL    HW121712   8.438  11.087   8.743
 6605SOL    HW221713   8.583  11.110   8.707
 6606SOL     OW21714   3.260  11.437  11.496
 6606SOL    HW121715   3.226  11.357  11.536
 6606SOL    HW221716   3.194  11.462  11.432
 6607SOL     OW21717  11.901   5.156  13.157
 6607SOL    HW121718  11.842   5.085  13.183
 6607SOL    HW221719  11.872   5.180  13.070
 6608SOL     OW21720   0.995   0.568   2.939
 6608SOL    HW121721   1.046   0.636   2.983
 6608SOL    HW221722   1.029   0.566   2.850
 6609SOL     OW21723  13.841  12.442   5.772
 6609SOL    HW121724  13.800  12.509   5.827
 6609SOL    HW221725  13.924  12.422   5.815
 6610SOL     OW21726  12.078   6.748   1.315
 6610SOL    HW121727  11.983   6.738   1.308
 6610SOL    HW221728  12.107   6.674   1.368
 6611SOL     OW21729   7.785   6.765  12.077
 6611SOL    HW121730   7.880   6.751  12.077
 6611SOL    HW221731   7.761   6.767  11.984
 6612SOL     OW21732   0.153   8.917   9.858
 6612SOL    HW121733   0.166   8.837   9.807
 6612SOL    HW221734   0.163   8.888   9.949
 6613SOL     OW21735   8.685   5.169  11.106
 6613SOL    HW121736   8.593   5.142  11.100
 6613SOL    HW221737   8.735   5.088  11.098
 6614SOL     OW21738  11.990   5.780  10.778
 6614SOL    HW121739  12.034   5.808  10.858
 6614SOL    HW221740  12.061   5.765  10.715
 6615SOL     OW21741  11.263  12.204  14.874
 6615SOL    HW121742  11.336  12.241  14.826
 6615SOL    HW221743  11.185  12.242  14.834
 6616SOL     OW21744   3.103   5.800   5.331
 6616SOL    HW121745   3.131   5.881   5.289
 6616SOL    HW221746   3.047   5.829   5.404
 6617SOL     OW21747   9.765   6.897   3.707
 6617SOL    HW121748   9.789   6.913   3.798
 6617SOL    HW221749   9.736   6.806   3.705
 6618SOL     OW21750  12.614  12.608   9.716
 6618SOL    HW121751  12.683  12.621   9.650
 6618SOL    HW221752  12.550  12.552   9.672
 6619SOL     OW21753  14.501   5.077  12.273
 6619SOL    HW121754  14.406   5.074  12.271
 6619SOL    HW221755  14.525   5.024  12.349
 6620SOL     OW21756  11.812  12.519   2.540
 6620SOL    HW121757  11.800  12.570   2.620
 6620SOL    HW221758  11.895  12.550   2.504
 6621SOL     OW21759   0.416  13.705  14.269
 6621SOL    HW121760   0.459  13.677  14.350
 6621SOL    HW221761   0.488  13.733  14.212
 6622SOL     OW21762   3.231   0.201  13.100
 6622SOL    HW121763   3.140   0.175  13.113
 6622SOL    HW221764   3.282   0.123  13.122
 6623SOL     OW21765   6.698   7.124   3.383
 6623SOL    HW121766   6.757   7.050   3.371
 6623SOL    HW221767   6.611   7.091   3.360
 6624SOL     OW21768   1.536  10.730   2.069
 6624SOL    HW121769   1.565  10.815   2.101
 6624SOL    HW221770   1.606  10.701   2.010
 6625SOL     OW21771  14.137  10.604  10.049
 6625SOL    HW121772  14.127  10.513  10.023
 6625SOL    HW221773  14.189  10.643   9.978
 6626SOL     OW21774   0.714  11.186   4.336
 6626SOL    HW121775   0.766  11.170   4.415
 6626SOL    HW221776   0.646  11.248   4.365
 6627SOL     OW21777   4.794  11.020   2.816
 6627SOL    HW121778   4.880  10.985   2.794
 6627SOL    HW221779   4.811  11.090   2.879
 6628SOL     OW21780   8.764   3.381  11.931
 6628SOL    HW121781   8.744   3.418  12.017
 6628SOL    HW221782   8.680   3.378  11.886
 6629SOL     OW21783  13.921   9.206  14.471
 6629SOL    HW121784  13.996   9.260  14.497
 6629SOL    HW221785  13.853   9.270  14.448
 6630SOL     OW21786   0.962   2.308   5.272
 6630SOL    HW121787   0.950   2.339   5.362
 6630SOL    HW221788   1.040   2.253   5.276
 6631SOL     OW21789  12.653   2.905   3.257
 6631SOL    HW121790  12.609   2.929   3.338
 6631SOL    HW221791  12.583   2.871   3.201
 6632SOL     OW21792  12.972  13.063   4.715
 6632SOL    HW121793  13.050  13.008   4.715
 6632SOL    HW221794  12.994  13.137   4.772
 6633SOL     OW21795   6.930   0.228   3.802
 6633SOL    HW121796   6.917   0.221   3.897
 6633SOL    HW221797   6.844   0.214   3.764
 6634SOL     OW21798   1.684  10.303   3.591
 6634SOL    HW121799   1.620  10.287   3.521
 6634SOL    HW221800   1.631  10.313   3.670
 6635SOL     OW21801  13.032  12.279   6.946
 6635SOL    HW121802  13.073  12.269   7.032
 6635SOL    HW221803  13.063  12.364   6.914
 6636SOL     OW21804   3.260   7.918  10.809
 6636SOL    HW121805   3.219   8.002  10.788
 6636SOL    HW221806   3.201   7.853  10.771
 6637SOL     OW21807   7.539   6.380  12.264
 6637SOL    HW121808   7.475   6.323  12.220
 6637SOL    HW221809   7.624   6.350  12.231
 6638SOL     OW21810   7.076   2.487   9.105
 6638SOL    HW121811   6.987   2.459   9.088
 6638SOL    HW221812   7.126   2.406   9.115
 6639SOL     OW21813   6.079   6.575  12.281
 6639SOL    HW121814   6.090   6.533  12.196
 6639SOL    HW221815   6.006   6.530  12.321
 6640SOL     OW21816   6.049   3.658  14.378
 6640SOL    HW121817   6.139   3.660  14.412
 6640SOL    HW221818   6.008   3.736  14.416
 6641SOL     OW21819  14.571   0.975  14.000
 6641SOL    HW121820  14.644   0.998  13.943
 6641SOL    HW221821  14.551   0.884  13.979
 6642SOL     OW21822   9.967  12.125   4.523
 6642SOL    HW121823  10.029  12.181   4.476
 6642SOL    HW221824   9.886  12.177   4.526
 6643SOL     OW21825  11.054  13.981   8.045
 6643SOL    HW121826  11.140  13.968   8.006
 6643SOL    HW221827  11.054  14.072   8.075
 6644SOL     OW21828   8.273  11.974   1.747
 6644SOL    HW121829   8.269  11.992   1.841
 6644SOL    HW221830   8.294  11.880   1.742
 6645SOL     OW21831  11.484   5.976   9.681
 6645SOL    HW121832  11.451   6.018   9.602
 6645SOL    HW221833  11.457   5.884   9.672
 6646SOL     OW21834   2.873   5.352   7.683
 6646SOL    HW121835   2.866   5.429   7.739
 6646SOL    HW221836   2.952   5.307   7.713
 6647SOL     OW21837   1.244   3.805   0.895
 6647SOL    HW121838   1.215   3.887   0.854
 6647SOL    HW221839   1.314   3.832   0.955
 6648SOL     OW21840   0.446   0.022   7.000
 6648SOL    HW121841   0.540   0.015   6.984
 6648SOL    HW221842   0.406  14.868   6.919
 6649SOL     OW21843  14.142   1.293   4.045
 6649SOL    HW121844  14.110   1.207   4.071
 6649SOL    HW221845  14.129   1.297   3.950
 6650SOL     OW21846  13.157  13.514  13.230
 6650SOL    HW121847  13.089  13.493  13.166
 6650SOL    HW221848  13.144  13.606  13.250
 6651SOL     OW21849  13.009   3.854   8.042
 6651SOL    HW121850  12.998   3.889   7.954
 6651SOL    HW221851  13.094   3.809   8.039
 6652SOL     OW21852   4.745  10.704   9.679
 6652SOL    HW121853   4.762  10.659   9.596
 6652SOL    HW221854   4.825  10.754   9.696
 6653SOL     OW21855  13.167   5.681  14.068
 6653SOL    HW121856  13.146   5.726  14.150
 6653SOL    HW221857  13.085   5.641  14.042
 6654SOL     OW21858   1.348   6.156  14.663
 6654SOL    HW121859   1.290   6.232  14.667
 6654SOL    HW221860   1.314   6.104  14.590
 6655SOL     OW21861   1.672   4.359   3.273
 6655SOL    HW121862   1.603   4.403   3.322
 6655SOL    HW221863   1.648   4.370   3.181
 6656SOL     OW21864   9.108  14.524  14.167
 6656SOL    HW121865   9.171  14.582  14.209
 6656SOL    HW221866   9.130  14.437  14.199
 6657SOL     OW21867   7.481   8.473  12.475
 6657SOL    HW121868   7.390   8.484  12.449
 6657SOL    HW221869   7.519   8.561  12.470
 6658SOL     OW21870   3.159  12.779   8.807
 6658SOL    HW121871   3.202  12.842   8.865
 6658SOL    HW221872   3.130  12.832   8.732
 6659SOL     OW21873   9.254   7.327  10.988
 6659SOL    HW121874   9.333   7.323  10.934
 6659SOL    HW221875   9.263   7.407  11.039
 6660SOL     OW21876   2.680   9.259   9.439
 6660SOL    HW121877   2.748   9.196   9.415
 6660SOL    HW221878   2.721   9.345   9.427
 6661SOL     OW21879   3.528   8.651   9.193
 6661SOL    HW121880   3.520   8.746   9.198
 6661SOL    HW221881   3.438   8.618   9.203
 6662SOL     OW21882  13.995   4.386   9.190
 6662SOL    HW121883  13.994   4.321   9.119
 6662SOL    HW221884  14.053   4.456   9.157
 6663SOL     OW21885   0.974   2.170   4.760
 6663SOL    HW121886   0.974   2.262   4.735
 6663SOL    HW221887   0.933   2.169   4.846
 6664SOL     OW21888   9.160   5.277   6.677
 6664SOL    HW121889   9.158   5.372   6.665
 6664SOL    HW221890   9.079   5.257   6.725
 6665SOL     OW21891  13.296   8.081   8.120
 6665SOL    HW121892  13.332   8.111   8.037
 6665SOL    HW221893  13.330   8.142   8.185
 6666SOL     OW21894   6.061   9.211   5.322
 6666SOL    HW121895   6.032   9.120   5.308
 6666SOL    HW221896   6.103   9.209   5.408
 6667SOL     OW21897   1.270   0.864  12.034
 6667SOL    HW121898   1.260   0.804  12.107
 6667SOL    HW221899   1.211   0.937  12.053
 6668SOL     OW21900   1.475  13.404   2.304
 6668SOL    HW121901   1.384  13.376   2.290
 6668SOL    HW221902   1.505  13.351   2.378
 6669SOL     OW21903  14.023  14.281  13.300
 6669SOL    HW121904  13.994  14.302  13.211
 6669SOL    HW221905  13.956  14.222  13.335
 6670SOL     OW21906   8.547   7.576   1.158
 6670SOL    HW121907   8.580   7.550   1.072
 6670SOL    HW221908   8.453   7.559   1.154
 6671SOL     OW21909  14.781   6.136  11.322
 6671SOL    HW121910  14.838   6.213  11.320
 6671SOL    HW221911  14.839   6.063  11.303
 6672SOL     OW21912   5.183   5.455   4.094
 6672SOL    HW121913   5.093   5.487   4.088
 6672SOL    HW221914   5.190   5.391   4.023
 6673SOL     OW21915   6.374  13.967  13.516
 6673SOL    HW121916   6.375  14.062  13.527
 6673SOL    HW221917   6.395  13.953  13.424
 6674SOL     OW21918   7.652  12.528  14.635
 6674SOL    HW121919   7.666  12.589  14.708
 6674SOL    HW221920   7.581  12.568  14.585
 6675SOL     OW21921   6.797   7.613  10.752
 6675SOL    HW121922   6.859   7.642  10.819
 6675SOL    HW221923   6.716   7.660  10.773
 6676SOL     OW21924   4.928   0.442  12.285
 6676SOL    HW121925   4.891   0.400  12.207
 6676SOL    HW221926   4.947   0.532  12.257
 6677SOL     OW21927  13.123  11.136  12.785
 6677SOL    HW121928  13.030  11.129  12.803
 6677SOL    HW221929  13.151  11.046  12.767
 6678SOL     OW21930   9.021  11.329   3.874
 6678SOL    HW121931   9.092  11.359   3.931
 6678SOL    HW221932   9.045  11.360   3.787
 6679SOL     OW21933   9.755  13.628   9.704
 6679SOL    HW121934   9.673  13.613   9.657
 6679SOL    HW221935   9.771  13.547   9.753
 6680SOL     OW21936   5.941  12.583   4.645
 6680SOL    HW121937   5.933  12.562   4.552
 6680SOL    HW221938   6.035  12.577   4.662
 6681SOL     OW21939  14.018   2.158   2.568
 6681SOL    HW121940  13.938   2.206   2.587
 6681SOL    HW221941  14.076   2.177   2.642
 6682SOL     OW21942   1.993  12.226   5.335
 6682SOL    HW121943   1.965  12.135   5.346
 6682SOL    HW221944   2.088  12.222   5.340
 6683SOL     OW21945   1.871   6.464   8.217
 6683SOL    HW121946   1.872   6.521   8.294
 6683SOL    HW221947   1.836   6.520   8.147
 6684SOL     OW21948   5.968   1.559  13.263
 6684SOL    HW121949   5.873   1.556  13.275
 6684SOL    HW221950   5.992   1.650  13.282
 6685SOL     OW21951   9.967  12.970   9.975
 6685SOL    HW121952   9.889  12.932  10.014
 6685SOL    HW221953   9.945  12.983   9.883
 6686SOL     OW21954   9.462   5.658   7.834
 6686SOL    HW121955   9.541   5.709   7.851
 6686SOL    HW221956   9.481   5.571   7.870
 6687SOL     OW21957  11.904   6.241   2.751
 6687SOL    HW121958  11.846   6.184   2.700
 6687SOL    HW221959  11.857   6.258   2.832
 6688SOL     OW21960   6.500  11.653  11.043
 6688SOL    HW121961   6.485  11.732  10.990
 6688SOL    HW221962   6.585  11.668  11.085
 6689SOL     OW21963   2.122   7.067   6.151
 6689SOL    HW121964   2.143   7.058   6.244
 6689SOL    HW221965   2.063   7.142   6.148
 6690SOL     OW21966   3.398   1.381   7.068
 6690SOL    HW121967   3.387   1.463   7.021
 6690SOL    HW221968   3.387   1.313   7.001
 6691SOL     OW21969  11.472  11.027  12.565
 6691SOL    HW121970  11.510  11.046  12.650
 6691SOL    HW221971  11.541  10.981  12.517
 6692SOL     OW21972   2.797   6.925   8.862
 6692SOL    HW121973   2.837   7.009   8.841
 6692SOL    HW221974   2.814   6.871   8.785
 6693SOL     OW21975   0.297  11.711   7.303
 6693SOL    HW121976   0.313  11.799   7.269
 6693SOL    HW221977   0.374  11.692   7.357
 6694SOL     OW21978   7.957   1.917   5.751
 6694SOL    HW121979   8.035   1.938   5.802
 6694SOL    HW221980   7.917   2.003   5.734
 6695SOL     OW21981   8.655   2.977   7.651
 6695SOL    HW121982   8.662   2.881   7.648
 6695SOL    HW221983   8.619   3.002   7.566
 6696SOL     OW21984  11.544   8.821   3.217
 6696SOL    HW121985  11.481   8.788   3.281
 6696SOL    HW221986  11.524   8.915   3.210
 6697SOL     OW21987  12.627   3.112  10.718
 6697SOL    HW121988  12.628   3.128  10.813
 6697SOL    HW221989  12.653   3.020  10.709
 6698SOL     OW21990  10.798  12.007   2.762
 6698SOL    HW121991  10.875  12.065   2.761
 6698SOL    HW221992  10.815  11.944   2.692
 6699SOL     OW21993   4.501  14.229  12.858
 6699SOL    HW121994   4.461  14.303  12.813
 6699SOL    HW221995   4.510  14.162  12.790
 6700SOL     OW21996   5.086   2.382   5.364
 6700SOL    HW121997   5.154   2.447   5.382
 6700SOL    HW221998   5.134   2.299   5.357
 6701SOL     OW21999   4.888  13.087   5.956
 6701SOL    HW122000   4.859  13.168   5.999
 6701SOL    HW222001   4.833  13.019   5.993
 6702SOL     OW22002   4.232   7.287   7.044
 6702SOL    HW122003   4.308   7.229   7.057
 6702SOL    HW222004   4.179   7.242   6.979
 6703SOL     OW22005  12.810   6.938   6.274
 6703SOL    HW122006  12.813   7.032   6.254
 6703SOL    HW222007  12.861   6.930   6.354
 6704SOL     OW22008   2.854   3.064   7.594
 6704SOL    HW122009   2.809   3.149   7.603
 6704SOL    HW222010   2.851   3.026   7.681
 6705SOL     OW22011   5.566   2.791   5.393
 6705SOL    HW122012   5.613   2.856   5.341
 6705SOL    HW222013   5.513   2.743   5.329
 6706SOL     OW22014   7.949   3.049  11.297
 6706SOL    HW122015   7.974   3.139  11.317
 6706SOL    HW222016   7.857   3.055  11.270
 6707SOL     OW22017   8.293  12.564   8.371
 6707SOL    HW122018   8.303  12.471   8.394
 6707SOL    HW222019   8.347  12.575   8.293
 6708SOL     OW22020  13.896  11.594  11.437
 6708SOL    HW122021  13.944  11.649  11.376
 6708SOL    HW222022  13.881  11.650  11.513
 6709SOL     OW22023   4.252   8.195   3.605
 6709SOL    HW122024   4.254   8.288   3.629
 6709SOL    HW222025   4.235   8.150   3.688
 6710SOL     OW22026   5.035   7.450   9.180
 6710SOL    HW122027   5.099   7.404   9.126
 6710SOL    HW222028   5.068   7.439   9.270
 6711SOL     OW22029   7.236  10.951   6.413
 6711SOL    HW122030   7.329  10.976   6.412
 6711SOL    HW222031   7.205  10.972   6.326
 6712SOL     OW22032   1.420   1.004  12.788
 6712SOL    HW122033   1.436   1.095  12.812
 6712SOL    HW222034   1.477   0.988  12.713
 6713SOL     OW22035  13.757   6.659   9.530
 6713SOL    HW122036  13.703   6.589   9.569
 6713SOL    HW222037  13.751   6.731   9.591
 6714SOL     OW22038   8.186  14.613  11.948
 6714SOL    HW122039   8.236  14.693  11.961
 6714SOL    HW222040   8.130  14.631  11.872
 6715SOL     OW22041  10.906  13.451   6.032
 6715SOL    HW122042  10.834  13.401   5.994
 6715SOL    HW222043  10.884  13.458   6.125
 6716SOL     OW22044  11.413   4.286   0.264
 6716SOL    HW122045  11.402   4.353   0.198
 6716SOL    HW222046  11.489   4.235   0.234
 6717SOL     OW22047  14.048   1.322  11.077
 6717SOL    HW122048  13.979   1.346  11.016
 6717SOL    HW222049  14.049   1.226  11.075
 6718SOL     OW22050  14.505   9.519  14.404
 6718SOL    HW122051  14.558   9.564  14.469
 6718SOL    HW222052  14.415   9.541  14.427
 6719SOL     OW22053   8.749   4.933   5.832
 6719SOL    HW122054   8.706   4.987   5.898
 6719SOL    HW222055   8.824   4.895   5.878
 6720SOL     OW22056  14.721   6.118   7.959
 6720SOL    HW122057  14.687   6.038   7.917
 6720SOL    HW222058  14.693   6.189   7.900
 6721SOL     OW22059   5.647  13.994   6.611
 6721SOL    HW122060   5.592  13.967   6.685
 6721SOL    HW222061   5.637  13.923   6.547
 6722SOL     OW22062  10.444   8.602   6.190
 6722SOL    HW122063  10.425   8.510   6.207
 6722SOL    HW222064  10.539   8.609   6.201
 6723SOL     OW22065   7.629   8.814   8.713
 6723SOL    HW122066   7.657   8.891   8.762
 6723SOL    HW222067   7.590   8.849   8.633
 6724SOL     OW22068   8.328   2.156   1.742
 6724SOL    HW122069   8.340   2.061   1.743
 6724SOL    HW222070   8.276   2.173   1.663
 6725SOL     OW22071   9.313   6.811  13.874
 6725SOL    HW122072   9.366   6.747  13.827
 6725SOL    HW222073   9.375   6.857  13.930
 6726SOL     OW22074   8.963   2.706   2.036
 6726SOL    HW122075   9.002   2.786   2.072
 6726SOL    HW222076   8.999   2.636   2.089
 6727SOL     OW22077  11.588   0.035   2.532
 6727SOL    HW122078  11.515   0.036   2.595
 6727SOL    HW222079  11.666   0.035   2.586
 6728SOL     OW22080  12.007   8.555  11.079
 6728SOL    HW122081  12.021   8.648  11.057
 6728SOL    HW222082  12.092   8.526  11.111
 6729SOL     OW22083   9.326   4.164   0.917
 6729SOL    HW122084   9.355   4.074   0.926
 6729SOL    HW222085   9.405   4.216   0.935
 6730SOL     OW22086   2.335   9.914   3.649
 6730SOL    HW122087   2.241   9.909   3.665
 6730SOL    HW222088   2.371   9.837   3.693
 6731SOL     OW22089   2.913   6.341   1.836
 6731SOL    HW122090   2.882   6.282   1.905
 6731SOL    HW222091   2.972   6.402   1.881
 6732SOL     OW22092   5.010   9.917   0.578
 6732SOL    HW122093   5.062   9.942   0.501
 6732SOL    HW222094   5.041   9.976   0.647
 6733SOL     OW22095   6.562   0.026  13.914
 6733SOL    HW122096   6.596  14.823  13.870
 6733SOL    HW222097   6.640   0.079  13.934
 6734SOL     OW22098   6.615   9.314  10.787
 6734SOL    HW122099   6.573   9.276  10.709
 6734SOL    HW222100   6.636   9.239  10.842
 6735SOL     OW22101   1.269   0.617   4.398
 6735SOL    HW122102   1.283   0.651   4.310
 6735SOL    HW222103   1.355   0.584   4.425
 6736SOL     OW22104  11.724   3.525   5.639
 6736SOL    HW122105  11.747   3.436   5.666
 6736SOL    HW222106  11.808   3.569   5.628
 6737SOL     OW22107  12.912   3.227   2.615
 6737SOL    HW122108  12.967   3.257   2.687
 6737SOL    HW222109  12.973   3.188   2.553
 6738SOL     OW22110  10.328  14.355   8.345
 6738SOL    HW122111  10.264  14.377   8.412
 6738SOL    HW222112  10.277  14.309   8.278
 6739SOL     OW22113   8.949   8.089   0.438
 6739SOL    HW122114   8.885   8.141   0.390
 6739SOL    HW222115   8.996   8.040   0.370
 6740SOL     OW22116  10.923   4.200   0.241
 6740SOL    HW122117  10.840   4.232   0.205
 6740SOL    HW222118  10.990   4.240   0.186
 6741SOL     OW22119   8.840  10.270  12.655
 6741SOL    HW122120   8.858  10.239  12.743
 6741SOL    HW222121   8.792  10.352  12.668
 6742SOL     OW22122   9.216  11.973  11.986
 6742SOL    HW122123   9.127  12.007  11.988
 6742SOL    HW222124   9.227  11.937  11.899
 6743SOL     OW22125  13.637  12.375  10.922
 6743SOL    HW122126  13.575  12.396  10.992
 6743SOL    HW222127  13.671  12.460  10.894
 6744SOL     OW22128   7.397   7.778   4.173
 6744SOL    HW122129   7.354   7.837   4.111
 6744SOL    HW222130   7.338   7.775   4.248
 6745SOL     OW22131   0.132   5.296   1.530
 6745SOL    HW122132   0.164   5.209   1.554
 6745SOL    HW222133   0.202   5.334   1.477
 6746SOL     OW22134   4.163   2.049   8.016
 6746SOL    HW122135   4.206   2.069   8.099
 6746SOL    HW222136   4.150   1.954   8.018
 6747SOL     OW22137   9.909   9.937  10.401
 6747SOL    HW122138   9.862   9.877  10.344
 6747SOL    HW222139  10.001   9.929  10.375
 6748SOL     OW22140   5.546  14.649  11.870
 6748SOL    HW122141   5.521  14.712  11.802
 6748SOL    HW222142   5.480  14.660  11.938
 6749SOL     OW22143  12.340   8.748   6.497
 6749SOL    HW122144  12.405   8.745   6.566
 6749SOL    HW222145  12.348   8.835   6.459
 6750SOL     OW22146   7.503   5.185   3.957
 6750SOL    HW122147   7.534   5.180   3.867
 6750SOL    HW222148   7.539   5.266   3.991
 6751SOL     OW22149   7.216  13.201   3.916
 6751SOL    HW122150   7.123  13.225   3.914
 6751SOL    HW222151   7.221  13.127   3.976
 6752SOL     OW22152  11.482  10.313   6.077
 6752SOL    HW122153  11.477  10.231   6.126
 6752SOL    HW222154  11.403  10.361   6.102
 6753SOL     OW22155   4.789   3.389  13.388
 6753SOL    HW122156   4.860   3.335  13.353
 6753SOL    HW222157   4.715   3.373  13.329
 6754SOL     OW22158  11.222   2.237   5.570
 6754SOL    HW122159  11.146   2.290   5.592
 6754SOL    HW222160  11.186   2.153   5.542
 6755SOL     OW22161   9.312   8.388   4.962
 6755SOL    HW122162   9.367   8.461   4.989
 6755SOL    HW222163   9.243   8.384   5.028
 6756SOL     OW22164   9.024   2.974   6.580
 6756SOL    HW122165   8.938   2.990   6.542
 6756SOL    HW222166   9.011   2.979   6.675
 6757SOL     OW22167  13.726   0.323   9.219
 6757SOL    HW122168  13.748   0.289   9.132
 6757SOL    HW222169  13.706   0.245   9.271
 6758SOL     OW22170   6.576   7.728   4.551
 6758SOL    HW122171   6.536   7.806   4.588
 6758SOL    HW222172   6.671   7.743   4.558
 6759SOL     OW22173  12.974  13.298  12.754
 6759SOL    HW122174  12.905  13.358  12.784
 6759SOL    HW222175  12.996  13.329  12.666
 6760SOL     OW22176  11.921   7.728   5.591
 6760SOL    HW122177  11.852   7.751   5.654
 6760SOL    HW222178  11.982   7.674   5.642
 6761SOL     OW22179   5.298  12.589   5.274
 6761SOL    HW122180   5.308  12.547   5.359
 6761SOL    HW222181   5.342  12.673   5.283
 6762SOL     OW22182   2.716   6.593   1.340
 6762SOL    HW122183   2.685   6.531   1.274
 6762SOL    HW222184   2.639   6.647   1.360
 6763SOL     OW22185   7.988   6.908  14.869
 6763SOL    HW122186   7.914   6.874  14.818
 6763SOL    HW222187   7.959   6.994   0.025
 6764SOL     OW22188   4.115   8.696   4.542
 6764SOL    HW122189   4.115   8.601   4.546
 6764SOL    HW222190   4.188   8.723   4.597
 6765SOL     OW22191   8.616   0.090  14.136
 6765SOL    HW122192   8.648   0.005  14.106
 6765SOL    HW222193   8.648   0.098  14.226
 6766SOL     OW22194   7.419   6.434   9.042
 6766SOL    HW122195   7.498   6.420   9.095
 6766SOL    HW222196   7.428   6.373   8.969
 6767SOL     OW22197   6.354  11.584   4.555
 6767SOL    HW122198   6.390  11.597   4.467
 6767SOL    HW222199   6.260  11.597   4.544
 6768SOL     OW22200   4.583  10.940   9.724
 6768SOL    HW122201   4.634  10.859   9.734
 6768SOL    HW222202   4.529  10.924   9.646
 6769SOL     OW22203  14.066  11.217   8.580
 6769SOL    HW122204  14.131  11.249   8.518
 6769SOL    HW222205  13.997  11.284   8.578
 6770SOL     OW22206  10.663  10.283   6.860
 6770SOL    HW122207  10.747  10.244   6.884
 6770SOL    HW222208  10.617  10.214   6.813
 6771SOL     OW22209   9.900  14.669   3.396
 6771SOL    HW122210   9.867  14.727   3.464
 6771SOL    HW222211   9.952  14.726   3.339
 6772SOL     OW22212   9.700  14.380   6.750
 6772SOL    HW122213   9.622  14.349   6.794
 6772SOL    HW222214   9.745  14.301   6.722
 6773SOL     OW22215  10.377  11.941   5.298
 6773SOL    HW122216  10.380  12.015   5.238
 6773SOL    HW222217  10.340  11.869   5.247
 6774SOL     OW22218  10.859   7.503  10.313
 6774SOL    HW122219  10.788   7.440  10.298
 6774SOL    HW222220  10.881   7.535  10.226
 6775SOL     OW22221   9.395  12.713   5.980
 6775SOL    HW122222   9.487  12.691   5.994
 6775SOL    HW222223   9.348  12.631   5.993
 6776SOL     OW22224   0.136  11.482  11.016
 6776SOL    HW122225   0.212  11.511  10.966
 6776SOL    HW222226   0.164  11.484  11.107
 6777SOL     OW22227  10.533  13.075   8.686
 6777SOL    HW122228  10.494  13.096   8.601
 6777SOL    HW222229  10.510  13.149   8.742
 6778SOL     OW22230   7.856   9.848  11.145
 6778SOL    HW122231   7.905   9.836  11.064
 6778SOL    HW222232   7.888   9.781  11.204
 6779SOL     OW22233   1.489  13.287   3.781
 6779SOL    HW122234   1.420  13.347   3.809
 6779SOL    HW222235   1.550  13.285   3.855
 6780SOL     OW22236   7.133  11.592   6.084
 6780SOL    HW122237   7.195  11.656   6.120
 6780SOL    HW222238   7.053  11.642   6.068
 6781SOL     OW22239   6.572   3.941   9.893
 6781SOL    HW122240   6.561   4.000   9.818
 6781SOL    HW222241   6.656   3.968   9.932
 6782SOL     OW22242  14.862  10.166   0.225
 6782SOL    HW122243  14.842  10.216   0.304
 6782SOL    HW222244  14.795  10.193   0.162
 6783SOL     OW22245  10.724   5.949   6.490
 6783SOL    HW122246  10.805   5.994   6.467
 6783SOL    HW222247  10.750   5.858   6.504
 6784SOL     OW22248  12.271   5.167   5.826
 6784SOL    HW122249  12.296   5.189   5.915
 6784SOL    HW222250  12.198   5.106   5.836
 6785SOL     OW22251  12.119   3.967   0.033
 6785SOL    HW122252  12.152   4.043  14.861
 6785SOL    HW222253  12.189   3.902   0.025
 6786SOL     OW22254   9.141   3.661   3.879
 6786SOL    HW122255   9.122   3.618   3.962
 6786SOL    HW222256   9.145   3.754   3.901
 6787SOL     OW22257  10.366   3.471   1.243
 6787SOL    HW122258  10.335   3.430   1.162
 6787SOL    HW222259  10.350   3.565   1.229
 6788SOL     OW22260   2.848   8.172   6.284
 6788SOL    HW122261   2.778   8.195   6.223
 6788SOL    HW222262   2.881   8.088   6.254
 6789SOL     OW22263  11.131   7.940   4.199
 6789SOL    HW122264  11.072   8.002   4.157
 6789SOL    HW222265  11.194   7.995   4.246
 6790SOL     OW22266   0.469   9.178   1.701
 6790SOL    HW122267   0.459   9.087   1.727
 6790SOL    HW222268   0.557   9.202   1.732
 6791SOL     OW22269   3.935   1.290   9.919
 6791SOL    HW122270   3.968   1.212   9.963
 6791SOL    HW222271   3.908   1.348   9.990
 6792SOL     OW22272  11.998   2.480   0.266
 6792SOL    HW122273  12.085   2.464   0.230
 6792SOL    HW222274  12.008   2.558   0.320
 6793SOL     OW22275   1.515   2.938   5.824
 6793SOL    HW122276   1.497   2.976   5.738
 6793SOL    HW222277   1.610   2.924   5.825
 6794SOL     OW22278   0.545   6.608   1.735
 6794SOL    HW122279   0.521   6.527   1.691
 6794SOL    HW222280   0.481   6.672   1.705
 6795SOL     OW22281  12.617  14.636   2.460
 6795SOL    HW122282  12.530  14.672   2.477
 6795SOL    HW222283  12.608  14.590   2.376
 6796SOL     OW22284  10.937   8.372   7.951
 6796SOL    HW122285  11.029   8.369   7.975
 6796SOL    HW222286  10.890   8.359   8.034
 6797SOL     OW22287   5.780   0.458  11.933
 6797SOL    HW122288   5.754   0.376  11.891
 6797SOL    HW222289   5.838   0.431  12.004
 6798SOL     OW22290   8.442  11.045   9.082
 6798SOL    HW122291   8.489  11.128   9.092
 6798SOL    HW222292   8.482  10.988   9.147
 6799SOL     OW22293   4.891   2.349   0.056
 6799SOL    HW122294   4.807   2.366   0.098
 6799SOL    HW222295   4.902   2.254   0.062
 6800SOL     OW22296   0.672  10.498   9.661
 6800SOL    HW122297   0.580  10.517   9.680
 6800SOL    HW222298   0.700  10.569   9.604
 6801SOL     OW22299   1.053   8.964   6.212
 6801SOL    HW122300   1.110   8.932   6.142
 6801SOL    HW222301   1.031   9.053   6.186
 6802SOL     OW22302   9.773   8.152   3.216
 6802SOL    HW122303   9.824   8.077   3.184
 6802SOL    HW222304   9.817   8.178   3.297
 6803SOL     OW22305   2.133   6.123   5.624
 6803SOL    HW122306   2.162   6.035   5.648
 6803SOL    HW222307   2.168   6.180   5.693
 6804SOL     OW22308   6.114  14.706   0.933
 6804SOL    HW122309   6.103  14.625   0.882
 6804SOL    HW222310   6.040  14.761   0.906
 6805SOL     OW22311   8.229   8.616   3.702
 6805SOL    HW122312   8.216   8.578   3.788
 6805SOL    HW222313   8.178   8.697   3.703
 6806SOL     OW22314  14.621   2.736   5.052
 6806SOL    HW122315  14.593   2.645   5.057
 6806SOL    HW222316  14.562   2.783   5.111
 6807SOL     OW22317   2.995   0.190   4.649
 6807SOL    HW122318   2.900   0.173   4.644
 6807SOL    HW222319   3.027   0.167   4.562
 6808SOL     OW22320   8.370  11.716   5.426
 6808SOL    HW122321   8.375  11.624   5.454
 6808SOL    HW222322   8.458  11.735   5.394
 6809SOL     OW22323  14.192  14.694  11.504
 6809SOL    HW122324  14.181  14.787  11.520
 6809SOL    HW222325  14.287  14.680  11.504
 6810SOL     OW22326   9.368  10.434   9.353
 6810SOL    HW122327   9.369  10.508   9.292
 6810SOL    HW222328   9.373  10.357   9.296
 6811SOL     OW22329  10.215  13.414   9.662
 6811SOL    HW122330  10.271  13.336   9.662
 6811SOL    HW222331  10.235  13.457   9.578
 6812SOL     OW22332   3.672   5.275   7.437
 6812SOL    HW122333   3.667   5.203   7.500
 6812SOL    HW222334   3.615   5.343   7.474
 6813SOL     OW22335   6.739   4.076   0.937
 6813SOL    HW122336   6.664   4.025   0.969
 6813SOL    HW222337   6.772   4.121   1.015
 6814SOL     OW22338   7.422  10.957  12.727
 6814SOL    HW122339   7.394  11.033  12.675
 6814SOL    HW222340   7.370  10.963  12.807
 6815SOL     OW22341   5.569   0.848  12.245
 6815SOL    HW122342   5.625   0.799  12.183
 6815SOL    HW222343   5.623   0.921  12.273
 6816SOL     OW22344   2.190   7.909   7.186
 6816SOL    HW122345   2.111   7.940   7.142
 6816SOL    HW222346   2.254   7.979   7.171
 6817SOL     OW22347   2.783  12.337   8.945
 6817SOL    HW122348   2.768  12.346   9.039
 6817SOL    HW222349   2.832  12.416   8.921
 6818SOL     OW22350   6.297  13.622   1.645
 6818SOL    HW122351   6.280  13.696   1.703
 6818SOL    HW222352   6.364  13.571   1.691
 6819SOL     OW22353   7.616  13.830  12.432
 6819SOL    HW122354   7.569  13.775  12.494
 6819SOL    HW222355   7.708  13.822  12.458
 6820SOL     OW22356   5.273   1.431  14.753
 6820SOL    HW122357   5.242   1.426  14.663
 6820SOL    HW222358   5.196   1.414  14.806
 6821SOL     OW22359   6.500   3.638   7.967
 6821SOL    HW122360   6.479   3.596   8.050
 6821SOL    HW222361   6.584   3.599   7.941
 6822SOL     OW22362   9.687  11.918   7.691
 6822SOL    HW122363   9.597  11.930   7.719
 6822SOL    HW222364   9.680  11.885   7.601
 6823SOL     OW22365   3.844   6.016   2.520
 6823SOL    HW122366   3.931   6.047   2.545
 6823SOL    HW222367   3.789   6.033   2.597
 6824SOL     OW22368  14.028   4.526   7.374
 6824SOL    HW122369  13.961   4.591   7.394
 6824SOL    HW222370  14.053   4.545   7.284
 6825SOL     OW22371  14.291  11.182   1.075
 6825SOL    HW122372  14.249  11.252   1.126
 6825SOL    HW222373  14.384  11.189   1.097
 6826SOL     OW22374  11.175   7.357   1.069
 6826SOL    HW122375  11.109   7.422   1.044
 6826SOL    HW222376  11.198   7.381   1.159
 6827SOL     OW22377  11.717  10.182   9.804
 6827SOL    HW122378  11.741  10.113   9.867
 6827SOL    HW222379  11.792  10.187   9.745
 6828SOL     OW22380   6.321   3.725   3.190
 6828SOL    HW122381   6.354   3.771   3.112
 6828SOL    HW222382   6.386   3.744   3.258
 6829SOL     OW22383   4.162  11.209  10.938
 6829SOL    HW122384   4.230  11.276  10.948
 6829SOL    HW222385   4.140  11.212  10.845
 6830SOL     OW22386   7.995   3.827  10.424
 6830SOL    HW122387   8.040   3.755  10.381
 6830SOL    HW222388   8.058   3.899  10.421
 6831SOL     OW22389   6.347  12.036   4.095
 6831SOL    HW122390   6.436  12.056   4.064
 6831SOL    HW222391   6.361  11.983   4.174
 6832SOL     OW22392   4.764  13.337   9.348
 6832SOL    HW122393   4.680  13.305   9.314
 6832SOL    HW222394   4.772  13.425   9.313
 6833SOL     OW22395  10.682   9.248  10.225
 6833SOL    HW122396  10.606   9.196  10.250
 6833SOL    HW222397  10.706   9.297  10.304
 6834SOL     OW22398  12.073   4.787  10.376
 6834SOL    HW122399  12.139   4.818  10.438
 6834SOL    HW222400  12.120   4.724  10.321
 6835SOL     OW22401   6.894   3.341   4.051
 6835SOL    HW122402   6.965   3.277   4.061
 6835SOL    HW222403   6.868   3.362   4.140
 6836SOL     OW22404  12.871   0.084   5.173
 6836SOL    HW122405  12.804   0.122   5.116
 6836SOL    HW222406  12.822   0.026   5.231
 6837SOL     OW22407   6.178  14.828   8.467
 6837SOL    HW122408   6.269  14.799   8.477
 6837SOL    HW222409   6.127  14.748   8.466
 6838SOL     OW22410   3.577   5.140   5.170
 6838SOL    HW122411   3.670   5.160   5.159
 6838SOL    HW222412   3.563   5.146   5.265
 6839SOL     OW22413  14.536   5.770   2.948
 6839SOL    HW122414  14.588   5.846   2.974
 6839SOL    HW222415  14.582   5.735   2.871
 6840SOL     OW22416   5.653   0.817  13.368
 6840SOL    HW122417   5.653   0.765  13.288
 6840SOL    HW222418   5.564   0.808  13.403
 6841SOL     OW22419  12.447   2.326   4.989
 6841SOL    HW122420  12.532   2.281   4.989
 6841SOL    HW222421  12.383   2.256   4.972
 6842SOL     OW22422  13.039   0.818   2.133
 6842SOL    HW122423  13.119   0.798   2.085
 6842SOL    HW222424  12.980   0.855   2.068
 6843SOL     OW22425   4.066   6.317   6.570
 6843SOL    HW122426   4.062   6.273   6.654
 6843SOL    HW222427   4.108   6.254   6.512
 6844SOL     OW22428   9.379   6.288  10.448
 6844SOL    HW122429   9.463   6.320  10.414
 6844SOL    HW222430   9.320   6.363  10.439
 6845SOL     OW22431   0.067   8.147   8.345
 6845SOL    HW122432   0.004   8.202   8.392
 6845SOL    HW222433   0.100   8.086   8.411
 6846SOL     OW22434   5.292  10.661  11.957
 6846SOL    HW122435   5.201  10.643  11.978
 6846SOL    HW222436   5.333  10.575  11.951
 6847SOL     OW22437   0.864   4.529   9.073
 6847SOL    HW122438   0.921   4.502   9.001
 6847SOL    HW222439   0.904   4.490   9.151
 6848SOL     OW22440  10.328  11.847  11.001
 6848SOL    HW122441  10.234  11.844  11.016
 6848SOL    HW222442  10.361  11.908  11.068
 6849SOL     OW22443  14.674   3.936   1.769
 6849SOL    HW122444  14.744   3.923   1.704
 6849SOL    HW222445  14.598   3.892   1.731
 6850SOL     OW22446  13.042   2.331  11.913
 6850SOL    HW122447  13.136   2.320  11.925
 6850SOL    HW222448  13.024   2.420  11.943
 6851SOL     OW22449   7.857  10.357  14.148
 6851SOL    HW122450   7.860  10.265  14.122
 6851SOL    HW222451   7.872  10.405  14.067
 6852SOL     OW22452   4.278  13.578   7.450
 6852SOL    HW122453   4.188  13.574   7.482
 6852SOL    HW222454   4.270  13.569   7.355
 6853SOL     OW22455  12.118   7.791   2.859
 6853SOL    HW122456  12.188   7.813   2.798
 6853SOL    HW222457  12.040   7.829   2.820
 6854SOL     OW22458   7.511   6.528   8.216
 6854SOL    HW122459   7.443   6.569   8.162
 6854SOL    HW222460   7.531   6.445   8.171
 6855SOL     OW22461   9.889   9.264   0.294
 6855SOL    HW122462   9.899   9.356   0.273
 6855SOL    HW222463   9.813   9.260   0.352
 6856SOL     OW22464   2.375   2.043  12.388
 6856SOL    HW122465   2.338   2.122  12.348
 6856SOL    HW222466   2.425   2.001  12.318
 6857SOL     OW22467   3.974   4.830   1.909
 6857SOL    HW122468   3.939   4.847   1.821
 6857SOL    HW222469   3.934   4.897   1.964
 6858SOL     OW22470   0.305   9.061   6.360
 6858SOL    HW122471   0.346   8.977   6.340
 6858SOL    HW222472   0.271   9.051   6.448
 6859SOL     OW22473   1.225   6.382  14.777
 6859SOL    HW122474   1.265   6.436  14.844
 6859SOL    HW222475   1.137   6.417  14.766
 6860SOL     OW22476  13.597  14.843  10.524
 6860SOL    HW122477  13.591  14.769  10.464
 6860SOL    HW222478  13.636  14.806  10.604
 6861SOL     OW22479   6.980  12.482  13.818
 6861SOL    HW122480   7.037  12.445  13.750
 6861SOL    HW222481   6.961  12.571  13.788
 6862SOL     OW22482  13.562  11.465   0.678
 6862SOL    HW122483  13.591  11.409   0.606
 6862SOL    HW222484  13.503  11.410   0.729
 6863SOL     OW22485   2.527   4.671   1.856
 6863SOL    HW122486   2.477   4.594   1.830
 6863SOL    HW222487   2.618   4.647   1.842
 6864SOL     OW22488   7.548   4.183   2.156
 6864SOL    HW122489   7.509   4.196   2.070
 6864SOL    HW222490   7.488   4.123   2.201
 6865SOL     OW22491  11.836   3.427   0.933
 6865SOL    HW122492  11.903   3.494   0.923
 6865SOL    HW222493  11.754   3.475   0.938
 6866SOL     OW22494   8.256   1.426   7.831
 6866SOL    HW122495   8.268   1.409   7.924
 6866SOL    HW222496   8.330   1.481   7.807
 6867SOL     OW22497  14.198   6.021   0.106
 6867SOL    HW122498  14.164   6.010   0.194
 6867SOL    HW222499  14.121   6.038   0.052
 6868SOL     OW22500   5.357   3.981   7.110
 6868SOL    HW122501   5.377   3.890   7.086
 6868SOL    HW222502   5.431   4.031   7.076
 6869SOL     OW22503   0.086   4.484  12.345
 6869SOL    HW122504   0.159   4.543  12.327
 6869SOL    HW222505   0.030   4.490  12.268
 6870SOL     OW22506  13.574  11.055   1.786
 6870SOL    HW122507  13.595  10.961   1.784
 6870SOL    HW222508  13.549  11.075   1.696
 6871SOL     OW22509   3.442   6.979   0.319
 6871SOL    HW122510   3.402   7.022   0.243
 6871SOL    HW222511   3.519   7.033   0.339
 6872SOL     OW22512   4.245  12.925  11.466
 6872SOL    HW122513   4.301  12.997  11.436
 6872SOL    HW222514   4.158  12.965  11.475
 6873SOL     OW22515   3.887   9.848   3.868
 6873SOL    HW122516   3.927   9.836   3.954
 6873SOL    HW222517   3.827   9.921   3.879
 6874SOL     OW22518  13.516  11.130   6.803
 6874SOL    HW122519  13.463  11.206   6.780
 6874SOL    HW222520  13.518  11.078   6.723
 6875SOL     OW22521   2.883  10.837   7.485
 6875SOL    HW122522   2.965  10.830   7.436
 6875SOL    HW222523   2.826  10.891   7.430
 6876SOL     OW22524   7.308   3.266   0.924
 6876SOL    HW122525   7.250   3.225   0.860
 6876SOL    HW222526   7.376   3.307   0.872
 6877SOL     OW22527   1.419   8.343   9.493
 6877SOL    HW122528   1.339   8.309   9.531
 6877SOL    HW222529   1.466   8.266   9.461
 6878SOL     OW22530  13.359   7.809  11.280
 6878SOL    HW122531  13.296   7.870  11.241
 6878SOL    HW222532  13.392   7.855  11.358
 6879SOL     OW22533   7.688   7.357  13.243
 6879SOL    HW122534   7.599   7.377  13.215
 6879SOL    HW222535   7.744   7.390  13.173
 6880SOL     OW22536   9.052   8.557   9.843
 6880SOL    HW122537   8.995   8.630   9.864
 6880SOL    HW222538   9.075   8.519   9.928
 6881SOL     OW22539   8.087   0.266  11.336
 6881SOL    HW122540   8.183   0.268  11.332
 6881SOL    HW222541   8.060   0.338  11.279
 6882SOL     OW22542   6.929   4.384   2.049
 6882SOL    HW122543   6.981   4.312   2.084
 6882SOL    HW222544   6.986   4.424   1.983
 6883SOL     OW22545   8.628  11.100  11.728
 6883SOL    HW122546   8.715  11.135  11.750
 6883SOL    HW222547   8.599  11.055  11.807
 6884SOL     OW22548   0.579   3.235   7.579
 6884SOL    HW122549   0.561   3.318   7.534
 6884SOL    HW222550   0.589   3.260   7.671
 6885SOL     OW22551  10.571   0.024  14.097
 6885SOL    HW122552  10.614   0.043  14.181
 6885SOL    HW222553  10.627   0.066  14.032
 6886SOL     OW22554   5.058   2.131   6.691
 6886SOL    HW122555   4.966   2.126   6.717
 6886SOL    HW222556   5.063   2.082   6.609
 6887SOL     OW22557  12.805   6.398   9.547
 6887SOL    HW122558  12.871   6.446   9.598
 6887SOL    HW222559  12.722   6.420   9.589
 6888SOL     OW22560   6.626   0.742  12.402
 6888SOL    HW122561   6.622   0.689  12.322
 6888SOL    HW222562   6.714   0.725  12.437
 6889SOL     OW22563  11.509   4.865   7.952
 6889SOL    HW122564  11.454   4.809   7.898
 6889SOL    HW222565  11.575   4.806   7.988
 6890SOL     OW22566   5.707   6.844   8.900
 6890SOL    HW122567   5.754   6.840   8.816
 6890SOL    HW222568   5.653   6.923   8.893
 6891SOL     OW22569   8.671  10.459   2.530
 6891SOL    HW122570   8.708  10.546   2.514
 6891SOL    HW222571   8.637  10.431   2.445
 6892SOL     OW22572   6.709   5.794  12.923
 6892SOL    HW122573   6.667   5.723  12.972
 6892SOL    HW222574   6.772   5.831  12.985
 6893SOL     OW22575   1.007   5.031   8.435
 6893SOL    HW122576   1.099   5.056   8.435
 6893SOL    HW222577   1.005   4.946   8.478
 6894SOL     OW22578   6.171   9.910  14.665
 6894SOL    HW122579   6.128   9.877  14.744
 6894SOL    HW222580   6.198   9.831  14.618
 6895SOL     OW22581  12.731   4.582   4.929
 6895SOL    HW122582  12.789   4.579   4.852
 6895SOL    HW222583  12.643   4.572   4.893
 6896SOL     OW22584   6.709   9.849  10.864
 6896SOL    HW122585   6.635   9.804  10.905
 6896SOL    HW222586   6.752   9.894  10.937
 6897SOL     OW22587   0.514   8.433   0.857
 6897SOL    HW122588   0.445   8.486   0.897
 6897SOL    HW222589   0.593   8.487   0.863
 6898SOL     OW22590  11.830   1.642   3.116
 6898SOL    HW122591  11.743   1.620   3.083
 6898SOL    HW222592  11.842   1.586   3.192
 6899SOL     OW22593  12.018   6.697   6.021
 6899SOL    HW122594  11.973   6.662   6.097
 6899SOL    HW222595  12.098   6.738   6.056
 6900SOL     OW22596  14.191  13.955   4.027
 6900SOL    HW122597  14.249  13.981   3.956
 6900SOL    HW222598  14.202  14.022   4.094
 6901SOL     OW22599   8.472  11.461  10.336
 6901SOL    HW122600   8.469  11.553  10.307
 6901SOL    HW222601   8.380  11.437  10.348
 6902SOL     OW22602   2.238   1.492   7.907
 6902SOL    HW122603   2.177   1.544   7.960
 6902SOL    HW222604   2.259   1.548   7.833
 6903SOL     OW22605   8.744  10.512   2.846
 6903SOL    HW122606   8.791  10.467   2.916
 6903SOL    HW222607   8.812  10.544   2.788
 6904SOL     OW22608   8.325  11.243   5.723
 6904SOL    HW122609   8.408  11.240   5.770
 6904SOL    HW222610   8.259  11.218   5.787
 6905SOL     OW22611   4.984  11.651   6.598
 6905SOL    HW122612   4.949  11.569   6.634
 6905SOL    HW222613   5.070  11.627   6.564
 6906SOL     OW22614   7.784  10.689  12.868
 6906SOL    HW122615   7.820  10.609  12.830
 6906SOL    HW222616   7.706  10.708  12.814
 6907SOL     OW22617  11.167   4.154   6.435
 6907SOL    HW122618  11.074   4.175   6.442
 6907SOL    HW222619  11.205   4.229   6.388
 6908SOL     OW22620   4.806   5.741   7.627
 6908SOL    HW122621   4.767   5.718   7.542
 6908SOL    HW222622   4.872   5.808   7.605
 6909SOL     OW22623   9.068   7.920   2.145
 6909SOL    HW122624   9.078   8.013   2.123
 6909SOL    HW222625   9.029   7.880   2.068
 6910SOL     OW22626  11.853   5.162   0.375
 6910SOL    HW122627  11.841   5.202   0.461
 6910SOL    HW222628  11.778   5.103   0.365
 6911SOL     OW22629   4.164  14.734   5.330
 6911SOL    HW122630   4.096  14.797   5.353
 6911SOL    HW222631   4.146  14.657   5.385
 6912SOL     OW22632  11.963   6.840   7.168
 6912SOL    HW122633  11.869   6.820   7.170
 6912SOL    HW222634  11.983   6.873   7.255
 6913SOL     OW22635   5.604  12.274   5.244
 6913SOL    HW122636   5.585  12.273   5.150
 6913SOL    HW222637   5.699  12.273   5.249
 6914SOL     OW22638   4.493   3.171  12.425
 6914SOL    HW122639   4.523   3.083  12.405
 6914SOL    HW222640   4.529   3.225  12.354
 6915SOL     OW22641   2.954   0.148   0.257
 6915SOL    HW122642   2.902   0.092   0.199
 6915SOL    HW222643   3.016   0.089   0.298
 6916SOL     OW22644   2.486   8.145   4.882
 6916SOL    HW122645   2.425   8.135   4.955
 6916SOL    HW222646   2.571   8.118   4.918
 6917SOL     OW22647   8.885   5.287   4.409
 6917SOL    HW122648   8.889   5.240   4.326
 6917SOL    HW222649   8.837   5.227   4.468
 6918SOL     OW22650   6.650   1.899   5.793
 6918SOL    HW122651   6.697   1.974   5.829
 6918SOL    HW222652   6.683   1.824   5.842
 6919SOL     OW22653   3.197   5.850   4.319
 6919SOL    HW122654   3.258   5.814   4.383
 6919SOL    HW222655   3.242   5.838   4.235
 6920SOL     OW22656   0.481   2.686   4.248
 6920SOL    HW122657   0.473   2.681   4.343
 6920SOL    HW222658   0.454   2.600   4.217
 6921SOL     OW22659   9.167   3.309   9.398
 6921SOL    HW122660   9.162   3.375   9.330
 6921SOL    HW222661   9.230   3.343   9.461
 6922SOL     OW22662  10.712  13.832   8.776
 6922SOL    HW122663  10.678  13.796   8.694
 6922SOL    HW222664  10.660  13.791   8.845
 6923SOL     OW22665   5.818   7.794   0.257
 6923SOL    HW122666   5.825   7.872   0.202
 6923SOL    HW222667   5.843   7.722   0.199
 6924SOL     OW22668   3.482   6.693  12.531
 6924SOL    HW122669   3.459   6.774  12.486
 6924SOL    HW222670   3.407   6.675  12.588
 6925SOL     OW22671  13.673   5.863  13.152
 6925SOL    HW122672  13.609   5.828  13.091
 6925SOL    HW222673  13.621   5.893  13.227
 6926SOL     OW22674   7.531  12.296   0.656
 6926SOL    HW122675   7.481  12.368   0.694
 6926SOL    HW222676   7.507  12.219   0.708
 6927SOL     OW22677   5.101  10.241   1.649
 6927SOL    HW122678   5.139  10.324   1.678
 6927SOL    HW222679   5.013  10.241   1.687
 6928SOL     OW22680   9.949  11.214   7.478
 6928SOL    HW122681  10.033  11.259   7.475
 6928SOL    HW222682   9.927  11.197   7.387
 6929SOL     OW22683   8.125   7.118   3.459
 6929SOL    HW122684   8.037   7.139   3.491
 6929SOL    HW222685   8.112   7.094   3.367
 6930SOL     OW22686  10.477   3.578  10.912
 6930SOL    HW122687  10.414   3.649  10.922
 6930SOL    HW222688  10.561   3.617  10.935
 6931SOL     OW22689   5.334   0.586  11.729
 6931SOL    HW122690   5.256   0.642  11.723
 6931SOL    HW222691   5.381   0.602  11.647
 6932SOL     OW22692  11.539  14.042   9.638
 6932SOL    HW122693  11.568  14.103   9.706
 6932SOL    HW222694  11.444  14.053   9.635
 6933SOL     OW22695   3.119  14.450  12.353
 6933SOL    HW122696   3.106  14.366  12.309
 6933SOL    HW222697   3.213  14.463  12.353
 6934SOL     OW22698   2.193  12.961  11.185
 6934SOL    HW122699   2.256  12.942  11.255
 6934SOL    HW222700   2.149  13.041  11.214
 6935SOL     OW22701  13.747   4.232   1.441
 6935SOL    HW122702  13.814   4.300   1.439
 6935SOL    HW222703  13.772   4.175   1.513
 6936SOL     OW22704  14.296   0.516   3.609
 6936SOL    HW122705  14.332   0.435   3.574
 6936SOL    HW222706  14.270   0.494   3.698
 6937SOL     OW22707   5.292   1.761   3.140
 6937SOL    HW122708   5.329   1.698   3.202
 6937SOL    HW222709   5.230   1.812   3.191
 6938SOL     OW22710   3.647  11.806   2.974
 6938SOL    HW122711   3.741  11.819   2.965
 6938SOL    HW222712   3.615  11.798   2.884
 6939SOL     OW22713   4.402   2.593   4.862
 6939SOL    HW122714   4.485   2.628   4.892
 6939SOL    HW222715   4.349   2.670   4.840
 6940SOL     OW22716   2.249   0.463  13.258
 6940SOL    HW122717   2.327   0.470  13.314
 6940SOL    HW222718   2.227   0.370  13.260
 6941SOL     OW22719   8.098  12.304   4.772
 6941SOL    HW122720   8.015  12.350   4.780
 6941SOL    HW222721   8.079  12.213   4.795
 6942SOL     OW22722  12.846   5.692   9.141
 6942SOL    HW122723  12.846   5.603   9.177
 6942SOL    HW222724  12.784   5.739   9.195
 6943SOL     OW22725   7.101  10.902  13.029
 6943SOL    HW122726   7.158  10.974  13.003
 6943SOL    HW222727   7.012  10.937  13.020
 6944SOL     OW22728   2.247   3.356   2.880
 6944SOL    HW122729   2.264   3.276   2.830
 6944SOL    HW222730   2.162   3.386   2.850
 6945SOL     OW22731  12.420   3.638   5.142
 6945SOL    HW122732  12.372   3.721   5.137
 6945SOL    HW222733  12.463   3.641   5.228
 6946SOL     OW22734   6.458   7.423  10.951
 6946SOL    HW122735   6.552   7.409  10.956
 6946SOL    HW222736   6.438   7.425  10.858
 6947SOL     OW22737   7.815   9.866  14.401
 6947SOL    HW122738   7.760   9.847  14.477
 6947SOL    HW222739   7.891   9.808  14.411
 6948SOL     OW22740  14.469  11.230   4.509
 6948SOL    HW122741  14.534  11.177   4.555
 6948SOL    HW222742  14.417  11.167   4.460
 6949SOL     OW22743   7.725  11.003   4.232
 6949SOL    HW122744   7.750  10.915   4.206
 6949SOL    HW222745   7.637  11.015   4.198
 6950SOL     OW22746   0.216   4.218  14.046
 6950SOL    HW122747   0.160   4.209  14.122
 6950SOL    HW222748   0.194   4.143  13.990
 6951SOL     OW22749   5.410  13.710   7.172
 6951SOL    HW122750   5.366  13.708   7.087
 6951SOL    HW222751   5.377  13.788   7.215
 6952SOL     OW22752   3.859  14.379   6.913
 6952SOL    HW122753   3.891  14.466   6.937
 6952SOL    HW222754   3.859  14.379   6.817
 6953SOL     OW22755  11.763  10.296   7.412
 6953SOL    HW122756  11.749  10.277   7.505
 6953SOL    HW222757  11.678  10.277   7.371
 6954SOL     OW22758   7.312   2.235   3.656
 6954SOL    HW122759   7.375   2.302   3.681
 6954SOL    HW222760   7.291   2.190   3.738
 6955SOL     OW22761   0.063   2.135  14.610
 6955SOL    HW122762   0.004   2.061  14.626
 6955SOL    HW222763   0.057   2.151  14.516
 6956SOL     OW22764   9.750   9.657   9.330
 6956SOL    HW122765   9.828   9.672   9.383
 6956SOL    HW222766   9.756   9.565   9.303
 6957SOL     OW22767  10.781   8.158  14.851
 6957SOL    HW122768  10.807   8.178   0.066
 6957SOL    HW222769  10.774   8.063  14.849
 6958SOL     OW22770   5.165  13.747  11.305
 6958SOL    HW122771   5.155  13.797  11.386
 6958SOL    HW222772   5.212  13.806  11.246
 6959SOL     OW22773   6.297  11.078   2.202
 6959SOL    HW122774   6.257  11.150   2.251
 6959SOL    HW222775   6.334  11.021   2.269
 6960SOL     OW22776   4.376   5.312   5.123
 6960SOL    HW122777   4.363   5.290   5.031
 6960SOL    HW222778   4.405   5.230   5.163
 6961SOL     OW22779   6.037   2.161   7.513
 6961SOL    HW122780   5.989   2.211   7.578
 6961SOL    HW222781   6.000   2.189   7.429
 6962SOL     OW22782   2.329   6.219   6.646
 6962SOL    HW122783   2.249   6.241   6.600
 6962SOL    HW222784   2.349   6.129   6.619
 6963SOL     OW22785  10.592   3.069   6.687
 6963SOL    HW122786  10.602   3.085   6.781
 6963SOL    HW222787  10.680   3.049   6.656
 6964SOL     OW22788   0.520   2.274   8.967
 6964SOL    HW122789   0.482   2.212   8.906
 6964SOL    HW222790   0.613   2.280   8.942
 6965SOL     OW22791   0.499   3.565   0.359
 6965SOL    HW122792   0.537   3.563   0.446
 6965SOL    HW222793   0.516   3.654   0.327
 6966SOL     OW22794   2.715   7.843   3.252
 6966SOL    HW122795   2.782   7.884   3.198
 6966SOL    HW222796   2.640   7.833   3.194
 6967SOL     OW22797   6.327   7.023   1.908
 6967SOL    HW122798   6.248   6.972   1.925
 6967SOL    HW222799   6.393   6.959   1.884
 6968SOL     OW22800   2.562  12.810  12.077
 6968SOL    HW122801   2.602  12.890  12.111
 6968SOL    HW222802   2.481  12.800  12.129
 6969SOL     OW22803   5.099  14.255   7.831
 6969SOL    HW122804   5.036  14.184   7.828
 6969SOL    HW222805   5.087  14.302   7.749
 6970SOL     OW22806   9.540   3.229  10.219
 6970SOL    HW122807   9.579   3.201  10.302
 6970SOL    HW222808   9.487   3.305  10.242
 6971SOL     OW22809   4.072   0.865   7.951
 6971SOL    HW122810   4.057   0.787   8.003
 6971SOL    HW222811   4.059   0.837   7.861
 6972SOL     OW22812  14.484   9.037   3.924
 6972SOL    HW122813  14.515   9.106   3.865
 6972SOL    HW222814  14.431   9.083   3.989
 6973SOL     OW22815   1.240  13.801   4.724
 6973SOL    HW122816   1.145  13.795   4.712
 6973SOL    HW222817   1.269  13.856   4.652
 6974SOL     OW22818   4.781   3.959   6.195
 6974SOL    HW122819   4.812   3.924   6.278
 6974SOL    HW222820   4.789   4.054   6.204
 6975SOL     OW22821   7.962   1.632   7.090
 6975SOL    HW122822   7.871   1.654   7.073
 6975SOL    HW222823   8.007   1.649   7.007
 6976SOL     OW22824  14.235   1.090   1.683
 6976SOL    HW122825  14.216   1.180   1.654
 6976SOL    HW222826  14.193   1.083   1.769
 6977SOL     OW22827   3.132  10.910  12.360
 6977SOL    HW122828   3.078  10.882  12.434
 6977SOL    HW222829   3.219  10.924  12.398
 6978SOL     OW22830   9.647   2.505   9.371
 6978SOL    HW122831   9.726   2.557   9.385
 6978SOL    HW222832   9.609   2.540   9.291
 6979SOL     OW22833  12.705  11.816   5.513
 6979SOL    HW122834  12.630  11.851   5.561
 6979SOL    HW222835  12.733  11.740   5.564
 6980SOL     OW22836  12.346   7.069  12.014
 6980SOL    HW122837  12.264   7.041  11.974
 6980SOL    HW222838  12.333   7.162  12.033
 6981SOL     OW22839  13.732   3.384   0.870
 6981SOL    HW122840  13.643   3.417   0.885
 6981SOL    HW222841  13.743   3.314   0.934
 6982SOL     OW22842   2.570  13.674   5.762
 6982SOL    HW122843   2.658  13.704   5.740
 6982SOL    HW222844   2.580  13.580   5.779
 6983SOL     OW22845   7.494   9.300   7.424
 6983SOL    HW122846   7.467   9.274   7.512
 6983SOL    HW222847   7.416   9.286   7.370
 6984SOL     OW22848   3.058  14.116   5.507
 6984SOL    HW122849   3.020  14.169   5.437
 6984SOL    HW222850   2.986  14.060   5.537
 6985SOL     OW22851   8.716   3.135  11.155
 6985SOL    HW122852   8.753   3.174  11.234
 6985SOL    HW222853   8.669   3.206  11.112
 6986SOL     OW22854   7.540   8.094   6.077
 6986SOL    HW122855   7.612   8.092   6.014
 6986SOL    HW222856   7.500   8.180   6.066
 6987SOL     OW22857   7.216  10.298  14.627
 6987SOL    HW122858   7.156  10.256  14.564
 6987SOL    HW222859   7.284  10.234  14.642
 6988SOL     OW22860   1.720   1.514   2.356
 6988SOL    HW122861   1.704   1.520   2.262
 6988SOL    HW222862   1.815   1.513   2.365
 6989SOL     OW22863  13.280   8.311   0.448
 6989SOL    HW122864  13.363   8.348   0.419
 6989SOL    HW222865  13.268   8.234   0.394
 6990SOL     OW22866   7.263   6.128   8.950
 6990SOL    HW122867   7.336   6.167   8.901
 6990SOL    HW222868   7.304   6.059   9.003
 6991SOL     OW22869   3.274   2.625  11.481
 6991SOL    HW122870   3.362   2.643  11.516
 6991SOL    HW222871   3.289   2.559  11.413
 6992SOL     OW22872   2.889   9.702   5.363
 6992SOL    HW122873   2.968   9.654   5.388
 6992SOL    HW222874   2.817   9.647   5.395
 6993SOL     OW22875  10.515   2.115  10.343
 6993SOL    HW122876  10.599   2.070  10.353
 6993SOL    HW222877  10.498   2.113  10.249
 6994SOL     OW22878  10.700   0.916  14.232
 6994SOL    HW122879  10.745   0.986  14.186
 6994SOL    HW222880  10.607   0.940  14.228
 6995SOL     OW22881  13.005  13.930   4.766
 6995SOL    HW122882  12.935  13.922   4.701
 6995SOL    HW222883  12.968  13.989   4.832
 6996SOL     OW22884  11.321  11.387   2.309
 6996SOL    HW122885  11.386  11.317   2.297
 6996SOL    HW222886  11.276  11.392   2.225
 6997SOL     OW22887  10.698  11.538   5.639
 6997SOL    HW122888  10.689  11.446   5.613
 6997SOL    HW222889  10.706  11.585   5.556
 6998SOL     OW22890   3.580   7.024  14.098
 6998SOL    HW122891   3.671   7.050  14.110
 6998SOL    HW222892   3.534   7.063  14.173
 6999SOL     OW22893   9.271   7.130   0.943
 6999SOL    HW122894   9.358   7.151   0.909
 6999SOL    HW222895   9.288   7.071   1.016
 7000SOL     OW22896   6.632   2.793   9.580
 7000SOL    HW122897   6.635   2.860   9.649
 7000SOL    HW222898   6.629   2.710   9.628
 7001SOL     OW22899   4.374  13.673  12.035
 7001SOL    HW122900   4.445  13.701  12.094
 7001SOL    HW222901   4.296  13.714  12.070
 7002SOL     OW22902   4.452   7.657   6.179
 7002SOL    HW122903   4.402   7.586   6.139
 7002SOL    HW222904   4.543   7.633   6.167
 7003SOL     OW22905  12.725   5.012   8.166
 7003SOL    HW122906  12.649   4.964   8.197
 7003SOL    HW222907  12.766   5.045   8.246
 7004SOL     OW22908   3.972   8.690  12.551
 7004SOL    HW122909   4.029   8.760  12.519
 7004SOL    HW222910   3.885   8.713  12.519
 7005SOL     OW22911  10.488  11.047  14.540
 7005SOL    HW122912  10.491  10.976  14.604
 7005SOL    HW222913  10.539  11.015  14.465
 7006SOL     OW22914  14.532   7.543  10.802
 7006SOL    HW122915  14.603   7.479  10.813
 7006SOL    HW222916  14.555   7.615  10.861
 7007SOL     OW22917   3.356   6.160   1.287
 7007SOL    HW122918   3.423   6.098   1.316
 7007SOL    HW222919   3.406   6.240   1.265
 7008SOL     OW22920   9.931   0.441   2.406
 7008SOL    HW122921   9.908   0.456   2.314
 7008SOL    HW222922   9.889   0.358   2.428
 7009SOL     OW22923  12.479   2.941  13.978
 7009SOL    HW122924  12.398   2.949  14.028
 7009SOL    HW222925  12.508   2.851  13.995
 7010SOL     OW22926  13.682  12.302   8.314
 7010SOL    HW122927  13.723  12.375   8.267
 7010SOL    HW222928  13.592  12.299   8.279
 7011SOL     OW22929  12.322   2.868   0.798
 7011SOL    HW122930  12.241   2.919   0.792
 7011SOL    HW222931  12.389   2.931   0.825
 7012SOL     OW22932   0.647   4.750   5.057
 7012SOL    HW122933   0.687   4.828   5.018
 7012SOL    HW222934   0.641   4.771   5.150
 7013SOL     OW22935  14.349  11.818  11.745
 7013SOL    HW122936  14.262  11.793  11.778
 7013SOL    HW222937  14.410  11.780  11.808
 7014SOL     OW22938   4.764   2.103   8.141
 7014SOL    HW122939   4.812   2.134   8.218
 7014SOL    HW222940   4.830   2.059   8.087
 7015SOL     OW22941   1.761   6.414  14.484
 7015SOL    HW122942   1.847   6.428  14.523
 7015SOL    HW222943   1.710   6.490  14.511
 7016SOL     OW22944   0.347  10.645   7.306
 7016SOL    HW122945   0.255  10.628   7.285
 7016SOL    HW222946   0.395  10.574   7.264
 7017SOL     OW22947   2.380   6.131   3.584
 7017SOL    HW122948   2.414   6.183   3.657
 7017SOL    HW222949   2.456   6.086   3.549
 7018SOL     OW22950  12.394   1.990  10.826
 7018SOL    HW122951  12.322   1.983  10.763
 7018SOL    HW222952  12.473   1.986  10.772
 7019SOL     OW22953   6.334  12.611  12.360
 7019SOL    HW122954   6.353  12.703  12.375
 7019SOL    HW222955   6.420  12.568  12.359
 7020SOL     OW22956  11.851  12.714   3.798
 7020SOL    HW122957  11.761  12.700   3.826
 7020SOL    HW222958  11.843  12.762   3.716
 7021SOL     OW22959   5.505   1.242   6.085
 7021SOL    HW122960   5.423   1.200   6.061
 7021SOL    HW222961   5.546   1.265   6.001
 7022SOL     OW22962   2.536   0.813  10.580
 7022SOL    HW122963   2.580   0.755  10.642
 7022SOL    HW222964   2.490   0.753  10.520
 7023SOL     OW22965  14.828   2.267   0.681
 7023SOL    HW122966  14.778   2.197   0.724
 7023SOL    HW222967   0.003   2.308   0.751
 7024SOL     OW22968   5.064   8.101   2.988
 7024SOL    HW122969   4.987   8.132   2.940
 7024SOL    HW222970   5.139   8.133   2.938
 7025SOL     OW22971   7.454   2.118   4.806
 7025SOL    HW122972   7.377   2.070   4.835
 7025SOL    HW222973   7.517   2.107   4.876
 7026SOL     OW22974  12.233   2.929   5.844
 7026SOL    HW122975  12.138   2.916   5.840
 7026SOL    HW222976  12.246   3.017   5.809
 7027SOL     OW22977  14.296   5.178   5.216
 7027SOL    HW122978  14.277   5.240   5.145
 7027SOL    HW222979  14.271   5.224   5.296
 7028SOL     OW22980  13.769   9.489   5.480
 7028SOL    HW122981  13.714   9.435   5.536
 7028SOL    HW222982  13.741   9.468   5.391
 7029SOL     OW22983  10.173  11.127  12.957
 7029SOL    HW122984  10.107  11.063  12.931
 7029SOL    HW222985  10.251  11.102  12.906
 7030SOL     OW22986  11.530   8.190   4.447
 7030SOL    HW122987  11.596   8.136   4.404
 7030SOL    HW222988  11.535   8.165   4.540
 7031SOL     OW22989   5.797  11.525   1.799
 7031SOL    HW122990   5.712  11.561   1.825
 7031SOL    HW222991   5.787  11.504   1.706
 7032SOL     OW22992   3.458   5.888   8.291
 7032SOL    HW122993   3.498   5.940   8.360
 7032SOL    HW222994   3.365   5.910   8.295
 7033SOL     OW22995   0.150  10.354   3.091
 7033SOL    HW122996   0.208  10.294   3.138
 7033SOL    HW222997   0.120  10.304   3.015
 7034SOL     OW22998   2.260   1.343   0.474
 7034SOL    HW122999   2.334   1.349   0.534
 7034SOL    HW223000   2.300   1.322   0.389
 7035SOL     OW23001   9.715   1.369   9.116
 7035SOL    HW123002   9.631   1.323   9.125
 7035SOL    HW223003   9.731   1.370   9.021
 7036SOL     OW23004  11.776   4.953  14.265
 7036SOL    HW123005  11.834   4.974  14.192
 7036SOL    HW223006  11.836   4.930  14.336
 7037SOL     OW23007   1.665   3.015  10.900
 7037SOL    HW123008   1.690   3.093  10.849
 7037SOL    HW223009   1.599   2.972  10.846
 7038SOL     OW23010  14.729   4.319  10.659
 7038SOL    HW123011  14.672   4.395  10.675
 7038SOL    HW223012  14.743   4.281  10.745
 7039SOL     OW23013   2.638   8.467   9.385
 7039SOL    HW123014   2.640   8.433   9.475
 7039SOL    HW223015   2.578   8.408   9.339
 7040SOL     OW23016   1.020   6.439  10.957
 7040SOL    HW123017   0.963   6.408  10.887
 7040SOL    HW223018   1.109   6.427  10.924
 7041SOL     OW23019   2.863  14.558  11.804
 7041SOL    HW123020   2.770  14.580  11.791
 7041SOL    HW223021   2.905  14.641  11.825
 7042SOL     OW23022   9.465   2.916   8.009
 7042SOL    HW123023   9.503   2.981   8.068
 7042SOL    HW223024   9.370   2.925   8.022
 7043SOL     OW23025   4.273   8.321   2.786
 7043SOL    HW123026   4.253   8.329   2.693
 7043SOL    HW223027   4.215   8.251   2.817
 7044SOL     OW23028   2.310   1.845   2.221
 7044SOL    HW123029   2.295   1.898   2.299
 7044SOL    HW223030   2.223   1.822   2.190
 7045SOL     OW23031   8.353  13.074  14.770
 7045SOL    HW123032   8.278  13.036  14.724
 7045SOL    HW223033   8.426  13.064  14.708
 7046SOL     OW23034   4.706   5.571   1.456
 7046SOL    HW123035   4.623   5.611   1.484
 7046SOL    HW223036   4.771   5.640   1.469
 7047SOL     OW23037  14.485   0.461   2.293
 7047SOL    HW123038  14.445   0.380   2.323
 7047SOL    HW223039  14.574   0.436   2.267
 7048SOL     OW23040   3.949   1.688  11.499
 7048SOL    HW123041   4.034   1.646  11.512
 7048SOL    HW223042   3.970   1.776  11.467
 7049SOL     OW23043   9.868  12.587   1.862
 7049SOL    HW123044   9.960  12.579   1.839
 7049SOL    HW223045   9.842  12.672   1.826
 7050SOL     OW23046   8.660  14.079   8.346
 7050SOL    HW123047   8.698  14.002   8.389
 7050SOL    HW223048   8.732  14.142   8.341
 7051SOL     OW23049   7.424   6.938   4.106
 7051SOL    HW123050   7.515   6.967   4.114
 7051SOL    HW223051   7.388   6.992   4.036
 7052SOL     OW23052   0.441   3.700  10.961
 7052SOL    HW123053   0.372   3.642  10.929
 7052SOL    HW223054   0.397   3.784  10.975
 7053SOL     OW23055   5.750   3.575  10.395
 7053SOL    HW123056   5.661   3.551  10.368
 7053SOL    HW223057   5.743   3.587  10.489
 7054SOL     OW23058   6.083  14.379   6.541
 7054SOL    HW123059   6.114  14.443   6.478
 7054SOL    HW223060   6.001  14.346   6.503
 7055SOL     OW23061   0.541   5.805   6.222
 7055SOL    HW123062   0.454   5.817   6.184
 7055SOL    HW223063   0.565   5.715   6.201
 7056SOL     OW23064  14.748   3.364  14.689
 7056SOL    HW123065  14.753   3.356  14.594
 7056SOL    HW223066  14.716   3.279  14.719
 7057SOL     OW23067   8.674   0.837  13.590
 7057SOL    HW123068   8.714   0.800  13.511
 7057SOL    HW223069   8.705   0.927  13.592
 7058SOL     OW23070   1.482   8.078   0.430
 7058SOL    HW123071   1.501   8.041   0.517
 7058SOL    HW223072   1.456   8.003   0.377
 7059SOL     OW23073   5.626  12.581   3.554
 7059SOL    HW123074   5.669  12.535   3.626
 7059SOL    HW223075   5.633  12.674   3.576
 7060SOL     OW23076  10.798   8.844  11.591
 7060SOL    HW123077  10.744   8.915  11.625
 7060SOL    HW223078  10.882   8.886  11.570
 7061SOL     OW23079   1.086   7.342  11.065
 7061SOL    HW123080   1.159   7.343  11.004
 7061SOL    HW223081   1.009   7.354  11.010
 7062SOL     OW23082   1.767   1.287   7.191
 7062SOL    HW123083   1.783   1.198   7.222
 7062SOL    HW223084   1.828   1.341   7.240
 7063SOL     OW23085   0.145   7.531  11.868
 7063SOL    HW123086   0.134   7.570  11.955
 7063SOL    HW223087   0.134   7.437  11.882
 7064SOL     OW23088  12.751   6.656   5.579
 7064SOL    HW123089  12.725   6.678   5.490
 7064SOL    HW223090  12.730   6.735   5.630
 7065SOL     OW23091  13.893  11.760  10.037
 7065SOL    HW123092  13.934  11.833   9.992
 7065SOL    HW223093  13.843  11.714   9.970
 7066SOL     OW23094   0.728   0.127  13.999
 7066SOL    HW123095   0.805   0.185  14.002
 7066SOL    HW223096   0.657   0.183  13.968
 7067SOL     OW23097  14.168  13.482   8.779
 7067SOL    HW123098  14.108  13.428   8.831
 7067SOL    HW223099  14.111  13.540   8.729
 7068SOL     OW23100   3.485   1.491  11.194
 7068SOL    HW123101   3.445   1.569  11.231
 7068SOL    HW223102   3.534   1.523  11.118
 7069SOL     OW23103  10.779  10.144   3.187
 7069SOL    HW123104  10.846  10.076   3.181
 7069SOL    HW223105  10.827  10.226   3.191
 7070SOL     OW23106   3.540  13.479   0.553
 7070SOL    HW123107   3.574  13.434   0.630
 7070SOL    HW223108   3.526  13.570   0.582
 7071SOL     OW23109  14.159  12.630   0.640
 7071SOL    HW123110  14.122  12.710   0.601
 7071SOL    HW223111  14.120  12.559   0.589
 7072SOL     OW23112  10.018   9.935  14.351
 7072SOL    HW123113   9.981   9.962  14.434
 7072SOL    HW223114   9.957   9.869  14.318
 7073SOL     OW23115   1.008   8.144   2.044
 7073SOL    HW123116   0.996   8.238   2.033
 7073SOL    HW223117   1.017   8.110   1.955
 7074SOL     OW23118   9.335   0.326  14.295
 7074SOL    HW123119   9.343   0.338  14.201
 7074SOL    HW223120   9.299   0.409  14.327
 7075SOL     OW23121   1.043  12.627   5.248
 7075SOL    HW123122   1.085  12.685   5.184
 7075SOL    HW223123   1.100  12.630   5.324
 7076SOL     OW23124   5.968  10.013  10.294
 7076SOL    HW123125   6.010   9.935  10.330
 7076SOL    HW223126   5.958   9.993  10.200
 7077SOL     OW23127   9.450   8.979   2.844
 7077SOL    HW123128   9.471   8.914   2.777
 7077SOL    HW223129   9.497   9.058   2.817
 7078SOL     OW23130  13.967   5.697  11.112
 7078SOL    HW123131  13.931   5.637  11.178
 7078SOL    HW223132  13.900   5.764  11.101
 7079SOL     OW23133   2.470   3.350  13.544
 7079SOL    HW123134   2.479   3.300  13.463
 7079SOL    HW223135   2.454   3.284  13.611
 7080SOL     OW23136   0.958   8.228   8.774
 7080SOL    HW123137   0.921   8.141   8.790
 7080SOL    HW223138   0.897   8.269   8.713
 7081SOL     OW23139  11.445  10.137   4.599
 7081SOL    HW123140  11.528  10.137   4.648
 7081SOL    HW223141  11.400  10.216   4.629
 7082SOL     OW23142   1.659   7.169  14.246
 7082SOL    HW123143   1.745   7.150  14.284
 7082SOL    HW223144   1.598   7.151  14.317
 7083SOL     OW23145   5.680   1.437   9.909
 7083SOL    HW123146   5.755   1.380   9.891
 7083SOL    HW223147   5.694   1.514   9.853
 7084SOL     OW23148   3.608  13.707  14.682
 7084SOL    HW123149   3.649  13.653  14.614
 7084SOL    HW223150   3.681  13.754  14.722
 7085SOL     OW23151   8.497  11.352   6.596
 7085SOL    HW123152   8.447  11.433   6.594
 7085SOL    HW223153   8.487  11.319   6.685
 7086SOL     OW23154  12.696   6.084   7.806
 7086SOL    HW123155  12.645   6.156   7.843
 7086SOL    HW223156  12.653   6.005   7.839
 7087SOL     OW23157   5.508  11.952  10.959
 7087SOL    HW123158   5.490  11.879  10.900
 7087SOL    HW223159   5.545  11.912  11.038
 7088SOL     OW23160   5.281   4.433   1.676
 7088SOL    HW123161   5.203   4.422   1.731
 7088SOL    HW223162   5.250   4.415   1.587
 7089SOL     OW23163  13.307  10.140   8.255
 7089SOL    HW123164  13.379  10.183   8.208
 7089SOL    HW223165  13.273  10.207   8.314
 7090SOL     OW23166   2.057   5.742  12.440
 7090SOL    HW123167   2.104   5.676  12.491
 7090SOL    HW223168   1.998   5.691  12.384
 7091SOL     OW23169  14.044   4.886   1.973
 7091SOL    HW123170  14.127   4.894   2.019
 7091SOL    HW223171  13.988   4.953   2.012
 7092SOL     OW23172   7.573  12.625   6.968
 7092SOL    HW123173   7.618  12.541   6.979
 7092SOL    HW223174   7.604  12.679   7.040
 7093SOL     OW23175  10.472   5.730  13.118
 7093SOL    HW123176  10.439   5.795  13.180
 7093SOL    HW223177  10.415   5.738  13.042
 7094SOL     OW23178   2.977  14.737   9.363
 7094SOL    HW123179   3.029  14.685   9.302
 7094SOL    HW223180   3.009  14.710   9.449
 7095SOL     OW23181   6.952  14.214   7.519
 7095SOL    HW123182   6.932  14.272   7.592
 7095SOL    HW223183   6.872  14.213   7.466
 7096SOL     OW23184   8.486  12.606   2.793
 7096SOL    HW123185   8.495  12.667   2.866
 7096SOL    HW223186   8.561  12.625   2.737
 7097SOL     OW23187   7.822  10.989   2.332
 7097SOL    HW123188   7.860  10.975   2.419
 7097SOL    HW223189   7.815  10.902   2.295
 7098SOL     OW23190   3.970   0.898  10.695
 7098SOL    HW123191   3.912   0.972  10.713
 7098SOL    HW223192   4.053   0.922  10.736
 7099SOL     OW23193   3.377  11.893   9.603
 7099SOL    HW123194   3.344  11.833   9.537
 7099SOL    HW223195   3.309  11.961   9.609
 7100SOL     OW23196   8.746   5.567  13.715
 7100SOL    HW123197   8.672   5.603  13.667
 7100SOL    HW223198   8.822   5.615  13.682
 7101SOL     OW23199   6.315  10.445   7.249
 7101SOL    HW123200   6.298  10.361   7.293
 7101SOL    HW223201   6.286  10.431   7.159
 7102SOL     OW23202  10.073   5.874   7.623
 7102SOL    HW123203  10.064   5.953   7.676
 7102SOL    HW223204   9.989   5.829   7.632
 7103SOL     OW23205   9.636  12.093  10.275
 7103SOL    HW123206   9.563  12.146  10.305
 7103SOL    HW223207   9.595  12.022  10.226
 7104SOL     OW23208   9.490   4.267   7.824
 7104SOL    HW123209   9.491   4.290   7.731
 7104SOL    HW223210   9.580   4.240   7.843
 7105SOL     OW23211   2.322  11.307   4.482
 7105SOL    HW123212   2.275  11.281   4.402
 7105SOL    HW223213   2.377  11.231   4.503
 7106SOL     OW23214  13.169  11.856  11.257
 7106SOL    HW123215  13.209  11.802  11.325
 7106SOL    HW223216  13.083  11.816  11.243
 7107SOL     OW23217  11.016   2.291   6.876
 7107SOL    HW123218  11.023   2.383   6.902
 7107SOL    HW223219  10.932   2.262   6.911
 7108SOL     OW23220   1.809   9.996   8.420
 7108SOL    HW123221   1.782  10.069   8.476
 7108SOL    HW223222   1.737   9.933   8.425
 7109SOL     OW23223   3.112   6.775   5.277
 7109SOL    HW123224   3.198   6.785   5.237
 7109SOL    HW223225   3.070   6.705   5.226
 7110SOL     OW23226   4.785  11.746  13.305
 7110SOL    HW123227   4.827  11.807  13.366
 7110SOL    HW223228   4.708  11.794  13.273
 7111SOL     OW23229   7.672   0.708   4.119
 7111SOL    HW123230   7.699   0.718   4.028
 7111SOL    HW223231   7.680   0.796   4.156
 7112SOL     OW23232  12.898   5.844  14.761
 7112SOL    HW123233  12.807   5.823  14.785
 7112SOL    HW223234  12.890   5.892  14.678
 7113SOL     OW23235   7.615   8.617   5.844
 7113SOL    HW123236   7.570   8.658   5.918
 7113SOL    HW223237   7.670   8.687   5.809
 7114SOL     OW23238   7.505   1.507   6.961
 7114SOL    HW123239   7.540   1.432   7.010
 7114SOL    HW223240   7.444   1.549   7.023
 7115SOL     OW23241   8.210  10.091  11.031
 7115SOL    HW123242   8.193  10.016  10.974
 7115SOL    HW223243   8.124  10.132  11.043
 7116SOL     OW23244   5.856  14.775   6.454
 7116SOL    HW123245   5.949  14.770   6.476
 7116SOL    HW223246   5.818  14.696   6.491
 7117SOL     OW23247   6.184   4.629   3.858
 7117SOL    HW123248   6.138   4.632   3.942
 7117SOL    HW223249   6.197   4.720   3.834
 7118SOL     OW23250   7.758   8.581   1.748
 7118SOL    HW123251   7.717   8.534   1.675
 7118SOL    HW223252   7.684   8.621   1.794
 7119SOL     OW23253   7.521   4.791  13.389
 7119SOL    HW123254   7.451   4.727  13.380
 7119SOL    HW223255   7.545   4.812  13.299
 7120SOL     OW23256   9.131  10.723   7.988
 7120SOL    HW123257   9.075  10.700   8.062
 7120SOL    HW223258   9.111  10.815   7.971
 7121SOL     OW23259   1.087  10.500   6.126
 7121SOL    HW123260   1.148  10.426   6.123
 7121SOL    HW223261   1.083  10.525   6.219
 7122SOL     OW23262  11.061   8.374   1.967
 7122SOL    HW123263  11.114   8.294   1.966
 7122SOL    HW223264  11.019   8.376   1.881
 7123SOL     OW23265   1.609   7.812   3.974
 7123SOL    HW123266   1.546   7.740   3.978
 7123SOL    HW223267   1.689   7.773   3.938
 7124SOL     OW23268   1.891   5.358  13.716
 7124SOL    HW123269   1.861   5.281  13.667
 7124SOL    HW223270   1.922   5.323  13.799
 7125SOL     OW23271   0.421   4.701  10.096
 7125SOL    HW123272   0.345   4.757  10.081
 7125SOL    HW223273   0.385   4.613  10.107
 7126SOL     OW23274   2.055   1.502   2.275
 7126SOL    HW123275   2.143   1.507   2.315
 7126SOL    HW223276   2.034   1.592   2.253
 7127SOL     OW23277  13.294  10.529   6.784
 7127SOL    HW123278  13.284  10.445   6.828
 7127SOL    HW223279  13.237  10.588   6.833
 7128SOL     OW23280   2.734   9.558   8.798
 7128SOL    HW123281   2.708   9.469   8.774
 7128SOL    HW223282   2.778   9.592   8.720
 7129SOL     OW23283   7.859   9.813   8.778
 7129SOL    HW123284   7.841   9.894   8.731
 7129SOL    HW223285   7.800   9.816   8.854
 7130SOL     OW23286   2.211   4.660   7.816
 7130SOL    HW123287   2.143   4.659   7.884
 7130SOL    HW223288   2.209   4.750   7.781
 7131SOL     OW23289  14.350   7.410   5.397
 7131SOL    HW123290  14.404   7.352   5.344
 7131SOL    HW223291  14.340   7.364   5.481
 7132SOL     OW23292   6.818  12.834  12.028
 7132SOL    HW123293   6.879  12.874  11.966
 7132SOL    HW223294   6.791  12.907  12.084
 7133SOL     OW23295   3.092   9.761  13.941
 7133SOL    HW123296   3.166   9.713  13.979
 7133SOL    HW223297   3.043   9.793  14.016
 7134SOL     OW23298  12.902   8.300   1.354
 7134SOL    HW123299  12.995   8.315   1.372
 7134SOL    HW223300  12.866   8.387   1.340
 7135SOL     OW23301   0.382  14.807  11.556
 7135SOL    HW123302   0.363  14.856  11.636
 7135SOL    HW223303   0.395  14.717  11.586
 7136SOL     OW23304   0.901   4.971   7.211
 7136SOL    HW123305   0.958   4.895   7.203
 7136SOL    HW223306   0.857   4.959   7.296
 7137SOL     OW23307  12.578   9.933   8.193
 7137SOL    HW123308  12.560  10.017   8.149
 7137SOL    HW223309  12.492   9.899   8.215
 7138SOL     OW23310   3.149  12.635   3.325
 7138SOL    HW123311   3.217  12.686   3.282
 7138SOL    HW223312   3.190  12.551   3.346
 7139SOL     OW23313   9.132   4.395   7.984
 7139SOL    HW123314   9.064   4.461   7.977
 7139SOL    HW223315   9.097   4.330   8.045
 7140SOL     OW23316  10.646   4.919   9.821
 7140SOL    HW123317  10.732   4.958   9.837
 7140SOL    HW223318  10.621   4.880   9.904
 7141SOL     OW23319   1.205   2.886   9.289
 7141SOL    HW123320   1.139   2.890   9.359
 7141SOL    HW223321   1.193   2.968   9.240
 7142SOL     OW23322   2.580   3.865   9.107
 7142SOL    HW123323   2.545   3.811   9.037
 7142SOL    HW223324   2.549   3.953   9.088
 7143SOL     OW23325   0.741   3.242   8.133
 7143SOL    HW123326   0.804   3.305   8.099
 7143SOL    HW223327   0.762   3.234   8.226
 7144SOL     OW23328  11.172  13.710   4.259
 7144SOL    HW123329  11.129  13.760   4.189
 7144SOL    HW223330  11.176  13.620   4.225
 7145SOL     OW23331   9.543  13.170   9.552
 7145SOL    HW123332   9.523  13.245   9.495
 7145SOL    HW223333   9.629  13.141   9.525
 7146SOL     OW23334   8.760   6.107  13.456
 7146SOL    HW123335   8.677   6.152  13.471
 7146SOL    HW223336   8.765   6.096  13.361
 7147SOL     OW23337   2.546   9.935  13.510
 7147SOL    HW123338   2.536   9.841  13.497
 7147SOL    HW223339   2.576   9.944  13.600
 7148SOL     OW23340   0.726   7.581  11.573
 7148SOL    HW123341   0.677   7.580  11.491
 7148SOL    HW223342   0.679   7.521  11.631
 7149SOL     OW23343   7.837   7.496   7.304
 7149SOL    HW123344   7.862   7.404   7.312
 7149SOL    HW223345   7.904   7.544   7.353
 7150SOL     OW23346   5.739   0.198   4.040
 7150SOL    HW123347   5.788   0.128   4.082
 7150SOL    HW223348   5.647   0.172   4.049
 7151SOL     OW23349   5.220   2.556  12.210
 7151SOL    HW123350   5.200   2.589  12.298
 7151SOL    HW223351   5.301   2.507  12.221
 7152SOL     OW23352   0.787  10.903  10.603
 7152SOL    HW123353   0.856  10.935  10.545
 7152SOL    HW223354   0.789  10.808  10.591
 7153SOL     OW23355   2.555   9.594  12.551
 7153SOL    HW123356   2.633   9.588  12.496
 7153SOL    HW223357   2.482   9.594  12.489
 7154SOL     OW23358  14.071   5.328   1.693
 7154SOL    HW123359  14.026   5.245   1.681
 7154SOL    HW223360  14.108   5.322   1.781
 7155SOL     OW23361   2.740   7.798   6.622
 7155SOL    HW123362   2.799   7.776   6.693
 7155SOL    HW223363   2.673   7.853   6.662
 7156SOL     OW23364   0.996   6.693   4.761
 7156SOL    HW123365   0.945   6.727   4.834
 7156SOL    HW223366   1.035   6.613   4.795
 7157SOL     OW23367   1.631   9.423   3.121
 7157SOL    HW123368   1.544   9.460   3.108
 7157SOL    HW223369   1.678   9.442   3.039
 7158SOL     OW23370   3.079   6.155  14.516
 7158SOL    HW123371   2.992   6.117  14.528
 7158SOL    HW223372   3.135   6.080  14.493
 7159SOL     OW23373   8.364   1.817  12.355
 7159SOL    HW123374   8.293   1.880  12.344
 7159SOL    HW223375   8.397   1.834  12.444
 7160SOL     OW23376   7.038   3.069   6.604
 7160SOL    HW123377   7.119   3.018   6.595
 7160SOL    HW223378   6.983   3.038   6.532
 7161SOL     OW23379   2.673  14.168   0.259
 7161SOL    HW123380   2.711  14.207   0.180
 7161SOL    HW223381   2.741  14.179   0.326
 7162SOL     OW23382   8.669   3.191   0.933
 7162SOL    HW123383   8.606   3.256   0.963
 7162SOL    HW223384   8.631   3.107   0.956
 7163SOL     OW23385  10.397   4.414   1.245
 7163SOL    HW123386  10.376   4.321   1.243
 7163SOL    HW223387  10.312   4.458   1.233
 7164SOL     OW23388   2.023   0.005   2.622
 7164SOL    HW123389   1.955   0.070   2.639
 7164SOL    HW223390   2.010  14.856   2.530
 7165SOL     OW23391  13.123  14.337  10.108
 7165SOL    HW123392  13.102  14.244  10.122
 7165SOL    HW223393  13.113  14.350  10.014
 7166SOL     OW23394   5.134   3.275   4.677
 7166SOL    HW123395   5.173   3.190   4.696
 7166SOL    HW223396   5.144   3.286   4.582
 7167SOL     OW23397   6.945   7.163   4.956
 7167SOL    HW123398   6.981   7.245   4.990
 7167SOL    HW223399   7.019   7.103   4.951
 7168SOL     OW23400   4.691   0.629   6.081
 7168SOL    HW123401   4.704   0.723   6.070
 7168SOL    HW223402   4.608   0.610   6.037
 7169SOL     OW23403   0.492  11.860  13.541
 7169SOL    HW123404   0.443  11.931  13.582
 7169SOL    HW223405   0.448  11.846  13.457
 7170SOL     OW23406  14.053  11.359   9.845
 7170SOL    HW123407  14.012  11.276   9.870
 7170SOL    HW223408  14.055  11.410   9.927
 7171SOL     OW23409   5.069   8.597  11.322
 7171SOL    HW123410   5.139   8.534  11.307
 7171SOL    HW223411   5.091   8.672  11.267
 7172SOL     OW23412   8.135  12.666   1.007
 7172SOL    HW123413   8.131  12.606   0.933
 7172SOL    HW223414   8.055  12.718   1.000
 7173SOL     OW23415  10.944   1.064   2.762
 7173SOL    HW123416  10.998   0.985   2.773
 7173SOL    HW223417  11.007   1.134   2.747
 7174SOL     OW23418   5.766   1.116   3.115
 7174SOL    HW123419   5.826   1.042   3.125
 7174SOL    HW223420   5.804   1.168   3.045
 7175SOL     OW23421   1.481  13.458  10.658
 7175SOL    HW123422   1.549  13.460  10.589
 7175SOL    HW223423   1.511  13.522  10.722
 7176SOL     OW23424  10.023   4.371  11.225
 7176SOL    HW123425   9.932   4.394  11.244
 7176SOL    HW223426  10.019   4.329  11.139
 7177SOL     OW23427   9.224  12.367   0.884
 7177SOL    HW123428   9.311  12.384   0.849
 7177SOL    HW223429   9.205  12.443   0.939
 7178SOL     OW23430  11.423   9.508   2.906
 7178SOL    HW123431  11.336   9.547   2.901
 7178SOL    HW223432  11.477   9.576   2.946
 7179SOL     OW23433   9.061   3.663   9.348
 7179SOL    HW123434   9.045   3.623   9.433
 7179SOL    HW223435   9.030   3.753   9.358
 7180SOL     OW23436   3.791  11.770   8.653
 7180SOL    HW123437   3.868  11.811   8.693
 7180SOL    HW223438   3.815  11.678   8.644
 7181SOL     OW23439  14.651   6.729   6.575
 7181SOL    HW123440  14.680   6.711   6.486
 7181SOL    HW223441  14.732   6.736   6.626
 7182SOL     OW23442   4.649   2.114  14.762
 7182SOL    HW123443   4.667   2.039  14.705
 7182SOL    HW223444   4.607   2.177  14.704
 7183SOL     OW23445   8.476   5.258   0.570
 7183SOL    HW123446   8.565   5.233   0.595
 7183SOL    HW223447   8.480   5.270   0.475
 7184SOL     OW23448   0.601  12.473   0.977
 7184SOL    HW123449   0.524  12.470   0.920
 7184SOL    HW223450   0.613  12.566   0.996
 7185SOL     OW23451  13.483   0.645   0.275
 7185SOL    HW123452  13.453   0.711   0.338
 7185SOL    HW223453  13.405   0.593   0.256
 7186SOL     OW23454   4.739   4.434   5.960
 7186SOL    HW123455   4.794   4.497   6.006
 7186SOL    HW223456   4.664   4.420   6.018
 7187SOL     OW23457   5.537   2.615   6.992
 7187SOL    HW123458   5.537   2.702   7.032
 7187SOL    HW223459   5.492   2.626   6.909
 7188SOL     OW23460  11.533   3.085  11.905
 7188SOL    HW123461  11.482   3.097  11.985
 7188SOL    HW223462  11.588   3.163  11.900
 7189SOL     OW23463  13.172   1.057   3.776
 7189SOL    HW123464  13.103   1.084   3.716
 7189SOL    HW223465  13.196   0.969   3.748
 7190SOL     OW23466  11.084  14.856  10.618
 7190SOL    HW123467  11.102   0.032  10.539
 7190SOL    HW223468  11.169  14.819  10.643
 7191SOL     OW23469  10.460   5.237   6.322
 7191SOL    HW123470  10.366   5.225   6.313
 7191SOL    HW223471  10.479   5.315   6.270
 7192SOL     OW23472   6.885  12.213   0.791
 7192SOL    HW123473   6.889  12.309   0.795
 7192SOL    HW223474   6.948  12.184   0.857
 7193SOL     OW23475   9.459   7.664   4.586
 7193SOL    HW123476   9.550   7.664   4.556
 7193SOL    HW223477   9.462   7.628   4.675
 7194SOL     OW23478   4.668   8.794   5.452
 7194SOL    HW123479   4.702   8.734   5.386
 7194SOL    HW223480   4.727   8.784   5.527
 7195SOL     OW23481   5.105   3.845   1.337
 7195SOL    HW123482   5.092   3.940   1.342
 7195SOL    HW223483   5.125   3.818   1.427
 7196SOL     OW23484   1.112   9.310  14.160
 7196SOL    HW123485   1.068   9.384  14.200
 7196SOL    HW223486   1.204   9.334  14.159
 7197SOL     OW23487   5.274   6.318   5.649
 7197SOL    HW123488   5.293   6.411   5.657
 7197SOL    HW223489   5.356   6.274   5.671
 7198SOL     OW23490   1.108  12.513   9.854
 7198SOL    HW123491   1.039  12.575   9.877
 7198SOL    HW223492   1.144  12.486   9.939
 7199SOL     OW23493   1.897   1.905   0.588
 7199SOL    HW123494   1.823   1.864   0.632
 7199SOL    HW223495   1.948   1.946   0.658
 7200SOL     OW23496   3.113  13.221  13.715
 7200SOL    HW123497   3.084  13.285  13.780
 7200SOL    HW223498   3.185  13.265  13.669
 7201SOL     OW23499   5.635   8.897   8.593
 7201SOL    HW123500   5.721   8.858   8.579
 7201SOL    HW223501   5.596   8.900   8.505
 7202SOL     OW23502  14.620   2.333  11.553
 7202SOL    HW123503  14.552   2.400  11.565
 7202SOL    HW223504  14.632   2.329  11.458
 7203SOL     OW23505  10.640   7.391   4.494
 7203SOL    HW123506  10.560   7.370   4.447
 7203SOL    HW223507  10.710   7.352   4.441
 7204SOL     OW23508  12.571   9.597   7.163
 7204SOL    HW123509  12.593   9.669   7.223
 7204SOL    HW223510  12.606   9.625   7.078
 7205SOL     OW23511   9.133   6.050   4.343
 7205SOL    HW123512   9.123   5.995   4.420
 7205SOL    HW223513   9.227   6.055   4.329
 7206SOL     OW23514  13.246  14.128   9.705
 7206SOL    HW123515  13.325  14.110   9.757
 7206SOL    HW223516  13.280  14.158   9.620
 7207SOL     OW23517  11.507  11.107  13.773
 7207SOL    HW123518  11.446  11.035  13.791
 7207SOL    HW223519  11.454  11.186  13.782
 7208SOL     OW23520  12.168   0.942   0.457
 7208SOL    HW123521  12.101   1.001   0.493
 7208SOL    HW223522  12.161   0.952   0.362
 7209SOL     OW23523   4.314   4.258   8.319
 7209SOL    HW123524   4.298   4.227   8.408
 7209SOL    HW223525   4.387   4.319   8.328
 7210SOL     OW23526   7.048  10.746  10.473
 7210SOL    HW123527   7.118  10.810  10.458
 7210SOL    HW223528   6.968  10.791  10.448
 7211SOL     OW23529   0.896  12.492   5.440
 7211SOL    HW123530   0.892  12.397   5.452
 7211SOL    HW223531   0.954  12.504   5.364
 7212SOL     OW23532   3.962  14.486   5.076
 7212SOL    HW123533   3.889  14.547   5.064
 7212SOL    HW223534   3.937  14.408   5.026
 7213SOL     OW23535   2.095   9.985   2.486
 7213SOL    HW123536   2.125  10.010   2.399
 7213SOL    HW223537   2.084  10.068   2.533
 7214SOL     OW23538  12.589   3.831  12.885
 7214SOL    HW123539  12.544   3.824  12.801
 7214SOL    HW223540  12.540   3.898  12.933
 7215SOL     OW23541   1.338   3.894   7.013
 7215SOL    HW123542   1.414   3.846   6.981
 7215SOL    HW223543   1.370   3.983   7.028
 7216SOL     OW23544   2.746  10.546   9.485
 7216SOL    HW123545   2.791  10.560   9.569
 7216SOL    HW223546   2.745  10.451   9.474
 7217SOL     OW23547   4.805   2.930   1.163
 7217SOL    HW123548   4.765   2.866   1.103
 7217SOL    HW223549   4.824   2.879   1.242
 7218SOL     OW23550  13.870   1.042   3.524
 7218SOL    HW123551  13.931   0.969   3.526
 7218SOL    HW223552  13.925   1.120   3.532
 7219SOL     OW23553   0.260  10.818   1.042
 7219SOL    HW123554   0.313  10.789   1.116
 7219SOL    HW223555   0.241  10.737   0.993
 7220SOL     OW23556   0.577   1.145   6.261
 7220SOL    HW123557   0.509   1.079   6.249
 7220SOL    HW223558   0.552   1.216   6.202
 7221SOL     OW23559   1.787   2.841   5.600
 7221SOL    HW123560   1.869   2.820   5.556
 7221SOL    HW223561   1.767   2.931   5.572
 7222SOL     OW23562  13.035   3.031   8.134
 7222SOL    HW123563  13.093   3.055   8.207
 7222SOL    HW223564  13.070   2.947   8.103
 7223SOL     OW23565   9.213  10.701   7.533
 7223SOL    HW123566   9.124  10.736   7.535
 7223SOL    HW223567   9.259  10.747   7.603
 7224SOL     OW23568   2.246  12.535  13.965
 7224SOL    HW123569   2.261  12.630  13.967
 7224SOL    HW223570   2.179  12.523  13.899
 7225SOL     OW23571   3.619   7.620   1.267
 7225SOL    HW123572   3.629   7.627   1.361
 7225SOL    HW223573   3.527   7.644   1.250
 7226SOL     OW23574  10.325   7.451   3.083
 7226SOL    HW123575  10.236   7.477   3.060
 7226SOL    HW223576  10.376   7.467   3.003
 7227SOL     OW23577   4.056  13.914   2.372
 7227SOL    HW123578   4.025  13.887   2.458
 7227SOL    HW223579   4.053  14.009   2.374
 7228SOL     OW23580  14.745  14.193   0.646
 7228SOL    HW123581  14.706  14.119   0.692
 7228SOL    HW223582  14.768  14.159   0.559
 7229SOL     OW23583   6.061   0.364   7.493
 7229SOL    HW123584   6.064   0.440   7.435
 7229SOL    HW223585   6.000   0.388   7.562
 7230SOL     OW23586   3.685  12.257  11.357
 7230SOL    HW123587   3.614  12.318  11.337
 7230SOL    HW223588   3.643  12.186  11.405
 7231SOL     OW23589   5.215   3.349   8.878
 7231SOL    HW123590   5.254   3.412   8.817
 7231SOL    HW223591   5.290   3.301   8.913
 7232SOL     OW23592  10.821   1.630   8.728
 7232SOL    HW123593  10.767   1.550   8.731
 7232SOL    HW223594  10.788   1.677   8.651
 7233SOL     OW23595  11.656  11.256   2.010
 7233SOL    HW123596  11.618  11.309   2.080
 7233SOL    HW223597  11.738  11.299   1.988
 7234SOL     OW23598  10.289   0.805   6.781
 7234SOL    HW123599  10.195   0.821   6.775
 7234SOL    HW223600  10.328   0.892   6.789
 7235SOL     OW23601  14.201   7.471   7.575
 7235SOL    HW123602  14.265   7.541   7.588
 7235SOL    HW223603  14.150   7.471   7.656
 7236SOL     OW23604  11.936  14.328   7.276
 7236SOL    HW123605  11.954  14.319   7.182
 7236SOL    HW223606  11.939  14.422   7.291
 7237SOL     OW23607   2.052  14.653   9.082
 7237SOL    HW123608   2.044  14.713   9.008
 7237SOL    HW223609   1.983  14.682   9.143
 7238SOL     OW23610   0.484   6.492   0.336
 7238SOL    HW123611   0.571   6.530   0.341
 7238SOL    HW223612   0.493   6.405   0.375
 7239SOL     OW23613   7.768  11.697   9.089
 7239SOL    HW123614   7.677  11.675   9.069
 7239SOL    HW223615   7.788  11.769   9.029
 7240SOL     OW23616   6.109  12.855   2.224
 7240SOL    HW123617   6.152  12.940   2.228
 7240SOL    HW223618   6.135  12.818   2.140
 7241SOL     OW23619   8.663  11.148  13.538
 7241SOL    HW123620   8.732  11.096  13.578
 7241SOL    HW223621   8.584  11.094  13.547
 7242SOL     OW23622  13.107  10.334   3.226
 7242SOL    HW123623  13.145  10.299   3.307
 7242SOL    HW223624  13.012  10.322   3.237
 7243SOL     OW23625   5.128   0.756   2.830
 7243SOL    HW123626   5.153   0.663   2.830
 7243SOL    HW223627   5.184   0.796   2.764
 7244SOL     OW23628   4.024   3.065   1.775
 7244SOL    HW123629   4.001   3.139   1.832
 7244SOL    HW223630   3.948   3.007   1.778
 7245SOL     OW23631   1.118   4.199   1.380
 7245SOL    HW123632   1.143   4.291   1.371
 7245SOL    HW223633   1.031   4.195   1.339
 7246SOL     OW23634   3.486   1.779   6.483
 7246SOL    HW123635   3.446   1.853   6.529
 7246SOL    HW223636   3.565   1.815   6.444
 7247SOL     OW23637   1.961   1.007  12.069
 7247SOL    HW123638   1.961   0.976  11.979
 7247SOL    HW223639   2.010   1.089  12.066
 7248SOL     OW23640   0.705   0.460   5.382
 7248SOL    HW123641   0.792   0.471   5.420
 7248SOL    HW223642   0.710   0.377   5.334
 7249SOL     OW23643   7.587   2.279  14.844
 7249SOL    HW123644   7.545   2.272  14.759
 7249SOL    HW223645   7.612   2.190  14.866
 7250SOL     OW23646  14.752   6.313  10.150
 7250SOL    HW123647  14.779   6.225  10.173
 7250SOL    HW223648  14.740   6.311  10.055
 7251SOL     OW23649   2.987  11.905  12.646
 7251SOL    HW123650   2.971  11.958  12.724
 7251SOL    HW223651   3.050  11.955  12.595
 7252SOL     OW23652  12.667  10.793   1.571
 7252SOL    HW123653  12.729  10.853   1.530
 7252SOL    HW223654  12.721  10.736   1.626
 7253SOL     OW23655   3.501   7.586   1.800
 7253SOL    HW123656   3.516   7.574   1.894
 7253SOL    HW223657   3.549   7.666   1.778
 7254SOL     OW23658   7.638   1.765   0.709
 7254SOL    HW123659   7.677   1.735   0.791
 7254SOL    HW223660   7.555   1.804   0.734
 7255SOL     OW23661   9.628   8.531   3.761
 7255SOL    HW123662   9.612   8.620   3.792
 7255SOL    HW223663   9.676   8.489   3.833
 7256SOL     OW23664  13.513   7.447   9.949
 7256SOL    HW123665  13.516   7.466   9.856
 7256SOL    HW223666  13.480   7.527   9.989
 7257SOL     OW23667   1.690   3.123  13.078
 7257SOL    HW123668   1.613   3.109  13.134
 7257SOL    HW223669   1.657   3.172  13.003
 7258SOL     OW23670   3.213  13.836   6.034
 7258SOL    HW123671   3.269  13.770   6.077
 7258SOL    HW223672   3.260  13.918   6.047
 7259SOL     OW23673   2.158   2.293   4.905
 7259SOL    HW123674   2.103   2.284   4.983
 7259SOL    HW223675   2.197   2.380   4.914
 7260SOL     OW23676   2.864   1.979   9.520
 7260SOL    HW123677   2.889   2.024   9.439
 7260SOL    HW223678   2.924   2.013   9.586
 7261SOL     OW23679   3.781   4.931   4.316
 7261SOL    HW123680   3.861   4.976   4.288
 7261SOL    HW223681   3.809   4.841   4.332
 7262SOL     OW23682   0.015   2.684   7.085
 7262SOL    HW123683   0.049   2.736   7.158
 7262SOL    HW223684   0.015   2.594   7.118
 7263SOL     OW23685   3.823   8.333  12.239
 7263SOL    HW123686   3.814   8.298  12.150
 7263SOL    HW223687   3.840   8.427  12.225
 7264SOL     OW23688   2.302   6.778   9.287
 7264SOL    HW123689   2.339   6.842   9.225
 7264SOL    HW223690   2.314   6.819   9.373
 7265SOL     OW23691  13.944   7.905  14.834
 7265SOL    HW123692  13.973   7.996  14.829
 7265SOL    HW223693  13.940   7.886   0.053
 7266SOL     OW23694  14.040   3.718   9.862
 7266SOL    HW123695  13.987   3.674   9.929
 7266SOL    HW223696  14.041   3.810   9.889
 7267SOL     OW23697   3.403   0.640   6.132
 7267SOL    HW123698   3.369   0.632   6.221
 7267SOL    HW223699   3.485   0.689   6.142
 7268SOL     OW23700   2.785   5.378   7.309
 7268SOL    HW123701   2.735   5.334   7.241
 7268SOL    HW223702   2.835   5.308   7.352
 7269SOL     OW23703   3.742   9.005   4.629
 7269SOL    HW123704   3.704   8.917   4.629
 7269SOL    HW223705   3.835   8.991   4.611
 7270SOL     OW23706  14.700  11.368   3.489
 7270SOL    HW123707  14.770  11.401   3.545
 7270SOL    HW223708  14.693  11.432   3.418
 7271SOL     OW23709  10.988  13.762   4.948
 7271SOL    HW123710  10.906  13.784   4.904
 7271SOL    HW223711  11.010  13.674   4.916
 7272SOL     OW23712   6.081  11.518   5.332
 7272SOL    HW123713   6.040  11.497   5.416
 7272SOL    HW223714   6.171  11.542   5.355
 7273SOL     OW23715   1.815   5.152  12.648
 7273SOL    HW123716   1.782   5.134  12.560
 7273SOL    HW223717   1.745   5.123  12.706
 7274SOL     OW23718   9.207  12.821   0.377
 7274SOL    HW123719   9.266  12.839   0.303
 7274SOL    HW223720   9.190  12.727   0.371
 7275SOL     OW23721   5.061  11.399   7.599
 7275SOL    HW123722   4.986  11.344   7.576
 7275SOL    HW223723   5.130  11.371   7.540
 7276SOL     OW23724   4.229   1.517   1.783
 7276SOL    HW123725   4.243   1.589   1.844
 7276SOL    HW223726   4.217   1.560   1.698
 7277SOL     OW23727   4.566   3.826  10.049
 7277SOL    HW123728   4.562   3.731  10.049
 7277SOL    HW223729   4.552   3.850   9.957
 7278SOL     OW23730   5.025  12.182   2.712
 7278SOL    HW123731   5.049  12.269   2.680
 7278SOL    HW223732   5.021  12.127   2.634
 7279SOL     OW23733  11.455  10.233   4.145
 7279SOL    HW123734  11.462  10.240   4.049
 7279SOL    HW223735  11.543  10.208   4.173
 7280SOL     OW23736   7.608  12.039   4.181
 7280SOL    HW123737   7.583  12.112   4.124
 7280SOL    HW223738   7.628  11.967   4.121
 7281SOL     OW23739   1.439   8.891  14.468
 7281SOL    HW123740   1.406   8.866  14.554
 7281SOL    HW223741   1.534   8.882  14.475
 7282SOL     OW23742  11.348  14.358   9.722
 7282SOL    HW123743  11.420  14.310   9.763
 7282SOL    HW223744  11.381  14.383   9.636
 7283SOL     OW23745  12.845  11.702   0.047
 7283SOL    HW123746  12.922  11.655   0.080
 7283SOL    HW223747  12.873  11.793   0.041
 7284SOL     OW23748   2.346   1.154  10.688
 7284SOL    HW123749   2.253   1.130  10.691
 7284SOL    HW223750   2.380   1.130  10.774
 7285SOL     OW23751  12.885   2.539   9.349
 7285SOL    HW123752  12.937   2.458   9.356
 7285SOL    HW223753  12.913   2.578   9.267
 7286SOL     OW23754  13.476   1.237   0.937
 7286SOL    HW123755  13.390   1.275   0.918
 7286SOL    HW223756  13.467   1.145   0.912
 7287SOL     OW23757  13.032   4.885  12.381
 7287SOL    HW123758  13.101   4.836  12.427
 7287SOL    HW223759  13.031   4.848  12.293
 7288SOL     OW23760  12.166  12.675   7.666
 7288SOL    HW123761  12.101  12.716   7.723
 7288SOL    HW223762  12.145  12.707   7.578
 7289SOL     OW23763  10.258   1.793   2.544
 7289SOL    HW123764  10.182   1.772   2.598
 7289SOL    HW223765  10.280   1.883   2.567
 7290SOL     OW23766   3.723   1.990   0.138
 7290SOL    HW123767   3.818   1.983   0.130
 7290SOL    HW223768   3.703   2.080   0.112
 7291SOL     OW23769  12.879   7.299   8.962
 7291SOL    HW123770  12.929   7.284   9.042
 7291SOL    HW223771  12.945   7.301   8.892
 7292SOL     OW23772  12.559  11.029   8.031
 7292SOL    HW123773  12.512  11.094   7.979
 7292SOL    HW223774  12.526  10.945   7.999
 7293SOL     OW23775   4.815   2.162   2.919
 7293SOL    HW123776   4.834   2.116   2.837
 7293SOL    HW223777   4.731   2.205   2.904
 7294SOL     OW23778  14.552  13.809   4.937
 7294SOL    HW123779  14.558  13.853   5.022
 7294SOL    HW223780  14.596  13.725   4.951
 7295SOL     OW23781   0.669   3.562   9.884
 7295SOL    HW123782   0.754   3.595   9.911
 7295SOL    HW223783   0.667   3.573   9.789
 7296SOL     OW23784   1.584  13.123  14.253
 7296SOL    HW123785   1.537  13.052  14.298
 7296SOL    HW223786   1.676  13.097  14.257
 7297SOL     OW23787   4.163  12.872  10.707
 7297SOL    HW123788   4.185  12.962  10.681
 7297SOL    HW223789   4.241  12.840  10.752
 7298SOL     OW23790   2.717  12.026   3.695
 7298SOL    HW123791   2.682  11.949   3.741
 7298SOL    HW223792   2.725  12.093   3.762
 7299SOL     OW23793   8.464  13.646  10.986
 7299SOL    HW123794   8.428  13.559  10.970
 7299SOL    HW223795   8.559  13.635  10.977
 7300SOL     OW23796  13.387   3.585   6.414
 7300SOL    HW123797  13.369   3.556   6.324
 7300SOL    HW223798  13.476   3.555   6.432
 7301SOL     OW23799  12.133   2.693  14.053
 7301SOL    HW123800  12.149   2.644  13.972
 7301SOL    HW223801  12.189   2.649  14.118
 7302SOL     OW23802   9.590   5.368   7.072
 7302SOL    HW123803   9.540   5.293   7.041
 7302SOL    HW223804   9.603   5.352   7.165
 7303SOL     OW23805   5.787  12.852  13.913
 7303SOL    HW123806   5.786  12.780  13.850
 7303SOL    HW223807   5.785  12.931  13.859
 7304SOL     OW23808   4.269  10.542   1.643
 7304SOL    HW123809   4.182  10.502   1.637
 7304SOL    HW223810   4.315  10.510   1.566
 7305SOL     OW23811  13.908   1.172  10.744
 7305SOL    HW123812  13.913   1.128  10.660
 7305SOL    HW223813  13.818   1.206  10.748
 7306SOL     OW23814  10.106   4.452   2.373
 7306SOL    HW123815  10.031   4.410   2.414
 7306SOL    HW223816  10.182   4.406   2.409
 7307SOL     OW23817   2.555   8.215  13.574
 7307SOL    HW123818   2.521   8.254  13.654
 7307SOL    HW223819   2.591   8.131  13.601
 7308SOL     OW23820  11.878   6.926  11.799
 7308SOL    HW123821  11.914   6.958  11.716
 7308SOL    HW223822  11.891   6.998  11.860
 7309SOL     OW23823   0.796   1.463   4.326
 7309SOL    HW123824   0.808   1.406   4.250
 7309SOL    HW223825   0.865   1.438   4.386
 7310SOL     OW23826   2.896  10.094   3.349
 7310SOL    HW123827   2.894  10.075   3.443
 7310SOL    HW223828   2.912  10.009   3.308
 7311SOL     OW23829  12.798  12.296   7.399
 7311SOL    HW123830  12.780  12.275   7.491
 7311SOL    HW223831  12.845  12.380   7.402
 7312SOL     OW23832   4.177   6.092   2.898
 7312SOL    HW123833   4.130   6.064   2.976
 7312SOL    HW223834   4.263   6.050   2.906
 7313SOL     OW23835   6.556   9.209  14.506
 7313SOL    HW123836   6.648   9.183  14.513
 7313SOL    HW223837   6.519   9.150  14.441
 7314SOL     OW23838   2.454  13.324   8.179
 7314SOL    HW123839   2.474  13.325   8.085
 7314SOL    HW223840   2.530  13.283   8.220
 7315SOL     OW23841  11.759   1.708  10.249
 7315SOL    HW123842  11.667   1.707  10.220
 7315SOL    HW223843  11.808   1.675  10.174
 7316SOL     OW23844   7.636   9.119  14.419
 7316SOL    HW123845   7.622   9.189  14.356
 7316SOL    HW223846   7.674   9.162  14.495
 7317SOL     OW23847  10.219  12.321   1.218
 7317SOL    HW123848  10.171  12.293   1.140
 7317SOL    HW223849  10.224  12.417   1.210
 7318SOL     OW23850   5.135   2.535  13.122
 7318SOL    HW123851   5.102   2.615  13.081
 7318SOL    HW223852   5.056   2.487  13.147
 7319SOL     OW23853   9.400  13.057   7.320
 7319SOL    HW123854   9.379  12.965   7.305
 7319SOL    HW223855   9.344  13.082   7.394
 7320SOL     OW23856   5.810  10.231   8.855
 7320SOL    HW123857   5.847  10.189   8.933
 7320SOL    HW223858   5.741  10.171   8.827
 7321SOL     OW23859   9.340  14.658   7.648
 7321SOL    HW123860   9.376  14.738   7.610
 7321SOL    HW223861   9.281  14.689   7.717
 7322SOL     OW23862  11.153   6.586   8.919
 7322SOL    HW123863  11.078   6.550   8.871
 7322SOL    HW223864  11.113   6.642   8.986
 7323SOL     OW23865   6.405  13.764   6.343
 7323SOL    HW123866   6.337  13.832   6.342
 7323SOL    HW223867   6.370  13.696   6.401
 7324SOL     OW23868   4.962   8.942   5.545
 7324SOL    HW123869   4.886   8.941   5.487
 7324SOL    HW223870   4.967   8.853   5.579
 7325SOL     OW23871   9.577   2.911  12.940
 7325SOL    HW123872   9.484   2.892  12.926
 7325SOL    HW223873   9.612   2.832  12.979
 7326SOL     OW23874  10.500   4.475  12.327
 7326SOL    HW123875  10.457   4.398  12.365
 7326SOL    HW223876  10.452   4.491  12.246
 7327SOL     OW23877   8.639   3.252   8.073
 7327SOL    HW123878   8.724   3.240   8.115
 7327SOL    HW223879   8.634   3.345   8.055
 7328SOL     OW23880   3.473   4.282   6.662
 7328SOL    HW123881   3.495   4.192   6.686
 7328SOL    HW223882   3.522   4.336   6.725
 7329SOL     OW23883   8.577   0.512  12.960
 7329SOL    HW123884   8.572   0.588  13.017
 7329SOL    HW223885   8.608   0.441  13.016
 7330SOL     OW23886  14.208   7.044   6.704
 7330SOL    HW123887  14.296   7.075   6.683
 7330SOL    HW223888  14.187   6.982   6.635
 7331SOL     OW23889  12.183   6.070  14.606
 7331SOL    HW123890  12.242   6.093  14.678
 7331SOL    HW223891  12.105   6.122  14.621
 7332SOL     OW23892   3.541   5.458   5.252
 7332SOL    HW123893   3.628   5.465   5.211
 7332SOL    HW223894   3.487   5.413   5.187
 7333SOL     OW23895  14.508  12.852  13.805
 7333SOL    HW123896  14.530  12.776  13.860
 7333SOL    HW223897  14.439  12.821  13.747
 7334SOL     OW23898  11.590  13.319  11.448
 7334SOL    HW123899  11.591  13.259  11.373
 7334SOL    HW223900  11.635  13.397  11.418
 7335SOL     OW23901  10.811  13.474   9.497
 7335SOL    HW123902  10.743  13.450   9.433
 7335SOL    HW223903  10.893  13.460   9.451
 7336SOL     OW23904   6.338   0.265   2.977
 7336SOL    HW123905   6.308   0.183   2.940
 7336SOL    HW223906   6.266   0.327   2.960
 7337SOL     OW23907   8.226  14.621   2.089
 7337SOL    HW123908   8.218  14.711   2.058
 7337SOL    HW223909   8.290  14.626   2.160
 7338SOL     OW23910   7.048   0.067   4.250
 7338SOL    HW123911   7.035   0.161   4.263
 7338SOL    HW223912   6.991   0.044   4.176
 7339SOL     OW23913   0.764  10.970   1.585
 7339SOL    HW123914   0.829  11.007   1.525
 7339SOL    HW223915   0.780  10.875   1.582
 7340SOL     OW23916  10.132  10.885   2.728
 7340SOL    HW123917  10.178  10.923   2.804
 7340SOL    HW223918  10.177  10.922   2.652
 7341SOL     OW23919   9.830   5.770   5.774
 7341SOL    HW123920   9.794   5.691   5.735
 7341SOL    HW223921   9.776   5.841   5.740
 7342SOL     OW23922   1.127   0.059  10.163
 7342SOL    HW123923   1.111  14.872  10.233
 7342SOL    HW223924   1.100   0.144  10.198
 7343SOL     OW23925   8.670   3.197  14.781
 7343SOL    HW123926   8.764   3.186  14.798
 7343SOL    HW223927   8.628   3.140  14.845
 7344SOL     OW23928   8.391   5.055   5.652
 7344SOL    HW123929   8.394   5.128   5.714
 7344SOL    HW223930   8.404   4.977   5.705
 7345SOL     OW23931   2.863  14.503   4.832
 7345SOL    HW123932   2.829  14.456   4.756
 7345SOL    HW223933   2.811  14.583   4.836
 7346SOL     OW23934   9.088   4.306  13.950
 7346SOL    HW123935   9.076   4.401  13.945
 7346SOL    HW223936   9.003   4.272  13.979
 7347SOL     OW23937   1.328   2.424   8.004
 7347SOL    HW123938   1.277   2.499   8.036
 7347SOL    HW223939   1.401   2.464   7.957
 7348SOL     OW23940   2.401   9.516   8.255
 7348SOL    HW123941   2.487   9.501   8.214
 7348SOL    HW223942   2.342   9.531   8.181
 7349SOL     OW23943   0.536   2.872   3.542
 7349SOL    HW123944   0.575   2.862   3.628
 7349SOL    HW223945   0.450   2.831   3.550
 7350SOL     OW23946   3.517   5.026   7.585
 7350SOL    HW123947   3.441   5.070   7.548
 7350SOL    HW223948   3.496   5.015   7.678
 7351SOL     OW23949   9.531   3.314   2.354
 7351SOL    HW123950   9.600   3.311   2.420
 7351SOL    HW223951   9.464   3.371   2.392
 7352SOL     OW23952   9.595   5.355   2.047
 7352SOL    HW123953   9.631   5.419   2.109
 7352SOL    HW223954   9.523   5.314   2.094
 7353SOL     OW23955   2.342   9.401  11.949
 7353SOL    HW123956   2.288   9.397  12.028
 7353SOL    HW223957   2.432   9.391  11.982
 7354SOL     OW23958   5.220   9.613  11.161
 7354SOL    HW123959   5.166   9.687  11.133
 7354SOL    HW223960   5.267   9.586  11.082
 7355SOL     OW23961   1.821   1.337   3.436
 7355SOL    HW123962   1.913   1.343   3.461
 7355SOL    HW223963   1.776   1.400   3.492
 7356SOL     OW23964  11.253   9.831   9.979
 7356SOL    HW123965  11.166   9.817   9.942
 7356SOL    HW223966  11.266   9.926   9.973
 7357SOL     OW23967   0.033   6.128   1.744
 7357SOL    HW123968  14.870   6.171   1.820
 7357SOL    HW223969  14.856   6.160   1.670
 7358SOL     OW23970  13.347   6.288  12.148
 7358SOL    HW123971  13.440   6.270  12.162
 7358SOL    HW223972  13.329   6.251  12.062
 7359SOL     OW23973   3.749  14.043   2.235
 7359SOL    HW123974   3.677  14.085   2.189
 7359SOL    HW223975   3.820  14.107   2.231
 7360SOL     OW23976   1.095   9.454   0.539
 7360SOL    HW123977   1.024   9.495   0.489
 7360SOL    HW223978   1.059   9.446   0.628
 7361SOL     OW23979   9.919   5.139  13.034
 7361SOL    HW123980   9.882   5.196  12.966
 7361SOL    HW223981   9.920   5.052  12.994
 7362SOL     OW23982  12.848   6.274  13.273
 7362SOL    HW123983  12.855   6.212  13.201
 7362SOL    HW223984  12.890   6.230  13.347
 7363SOL     OW23985   2.636   2.114   3.745
 7363SOL    HW123986   2.622   2.112   3.840
 7363SOL    HW223987   2.620   2.024   3.717
 7364SOL     OW23988  14.429   1.143  11.374
 7364SOL    HW123989  14.382   1.079  11.427
 7364SOL    HW223990  14.398   1.228  11.406
 7365SOL     OW23991  12.228   9.267   0.357
 7365SOL    HW123992  12.137   9.237   0.356
 7365SOL    HW223993  12.269   9.217   0.428
 7366SOL     OW23994   4.415   7.475  12.816
 7366SOL    HW123995   4.362   7.512  12.745
 7366SOL    HW223996   4.432   7.549  12.874
 7367SOL     OW23997  13.356   1.830   8.538
 7367SOL    HW123998  13.299   1.906   8.528
 7367SOL    HW223999  13.441   1.859   8.506
 7368SOL     OW24000   9.813   7.015  14.022
 7368SOL    HW124001   9.856   7.095  14.054
 7368SOL    HW224002   9.763   6.984  14.097
 7369SOL     OW24003   8.070   5.353   0.814
 7369SOL    HW124004   8.057   5.379   0.723
 7369SOL    HW224005   8.142   5.409   0.845
 7370SOL     OW24006   4.413   2.508  11.341
 7370SOL    HW124007   4.322   2.496  11.367
 7370SOL    HW224008   4.411   2.580  11.278
 7371SOL     OW24009  12.920   6.238   3.196
 7371SOL    HW124010  12.974   6.245   3.275
 7371SOL    HW224011  12.892   6.147   3.194
 7372SOL     OW24012   4.584   4.069   5.605
 7372SOL    HW124013   4.645   4.116   5.662
 7372SOL    HW224014   4.569   3.986   5.651
 7373SOL     OW24015   7.037  12.870  10.093
 7373SOL    HW124016   6.953  12.845  10.056
 7373SOL    HW224017   7.087  12.788  10.096
 7374SOL     OW24018   9.559  12.205  11.892
 7374SOL    HW124019   9.589  12.256  11.816
 7374SOL    HW224020   9.620  12.132  11.897
 7375SOL     OW24021   5.617  14.208  11.636
 7375SOL    HW124022   5.533  14.222  11.593
 7375SOL    HW224023   5.614  14.265  11.712
 7376SOL     OW24024   6.324   0.960   1.684
 7376SOL    HW124025   6.402   0.961   1.628
 7376SOL    HW224026   6.261   1.015   1.639
 7377SOL     OW24027   7.525  10.568   1.874
 7377SOL    HW124028   7.605  10.518   1.885
 7377SOL    HW224029   7.458  10.503   1.852
 7378SOL     OW24030   4.654   0.548  12.020
 7378SOL    HW124031   4.560   0.527  12.019
 7378SOL    HW224032   4.691   0.491  11.953
 7379SOL     OW24033   5.294  12.628   8.156
 7379SOL    HW124034   5.336  12.601   8.238
 7379SOL    HW224035   5.326  12.717   8.141
 7380SOL     OW24036  13.296   3.398  13.299
 7380SOL    HW124037  13.272   3.490  13.310
 7380SOL    HW224038  13.219   3.357  13.261
 7381SOL     OW24039   3.717   0.357   3.754
 7381SOL    HW124040   3.719   0.435   3.698
 7381SOL    HW224041   3.626   0.352   3.785
 7382SOL     OW24042   3.532  11.895   1.289
 7382SOL    HW124043   3.454  11.869   1.240
 7382SOL    HW224044   3.505  11.892   1.381
 7383SOL     OW24045  14.792   1.122   7.864
 7383SOL    HW124046  14.808   1.181   7.938
 7383SOL    HW224047  14.706   1.149   7.831
 7384SOL     OW24048  14.523   6.495  12.919
 7384SOL    HW124049  14.550   6.558  12.986
 7384SOL    HW224050  14.439   6.462  12.949
 7385SOL     OW24051   9.868   6.705   5.827
 7385SOL    HW124052   9.940   6.720   5.888
 7385SOL    HW224053   9.900   6.741   5.744
 7386SOL     OW24054   0.609   2.549   0.845
 7386SOL    HW124055   0.701   2.552   0.868
 7386SOL    HW224056   0.606   2.567   0.751
 7387SOL     OW24057   2.812  14.572   8.071
 7387SOL    HW124058   2.764  14.516   8.010
 7387SOL    HW224059   2.766  14.562   8.154
 7388SOL     OW24060   3.941   3.228  11.565
 7388SOL    HW124061   3.943   3.324  11.563
 7388SOL    HW224062   3.961   3.206  11.656
 7389SOL     OW24063   1.373  11.934  11.701
 7389SOL    HW124064   1.420  11.997  11.646
 7389SOL    HW224065   1.329  11.988  11.766
 7390SOL     OW24066  11.034   9.759   1.296
 7390SOL    HW124067  10.939   9.760   1.291
 7390SOL    HW224068  11.057   9.668   1.315
 7391SOL     OW24069   6.234  12.802   8.369
 7391SOL    HW124070   6.311  12.754   8.399
 7391SOL    HW224071   6.266  12.890   8.352
 7392SOL     OW24072  10.802   0.150   7.783
 7392SOL    HW124073  10.755   0.087   7.728
 7392SOL    HW224074  10.860   0.197   7.723
 7393SOL     OW24075  11.356   6.102  10.177
 7393SOL    HW124076  11.414   6.027  10.162
 7393SOL    HW224077  11.278   6.083  10.124
 7394SOL     OW24078  13.364   7.972   9.073
 7394SOL    HW124079  13.333   8.061   9.056
 7394SOL    HW224080  13.301   7.916   9.028
 7395SOL     OW24081   8.765   2.287   1.984
 7395SOL    HW124082   8.671   2.300   1.982
 7395SOL    HW224083   8.791   2.277   1.893
 7396SOL     OW24084   0.729   5.595   7.677
 7396SOL    HW124085   0.655   5.633   7.724
 7396SOL    HW224086   0.757   5.663   7.616
 7397SOL     OW24087   8.449   6.964  10.250
 7397SOL    HW124088   8.395   6.893  10.216
 7397SOL    HW224089   8.471   6.937  10.339
 7398SOL     OW24090  11.308   9.306   3.668
 7398SOL    HW124091  11.381   9.266   3.715
 7398SOL    HW224092  11.236   9.244   3.680
 7399SOL     OW24093   4.065   3.808   5.804
 7399SOL    HW124094   4.061   3.903   5.793
 7399SOL    HW224095   4.154   3.785   5.775
 7400SOL     OW24096  12.004   7.761   1.878
 7400SOL    HW124097  11.930   7.798   1.926
 7400SOL    HW224098  12.072   7.749   1.945
 7401SOL     OW24099   4.745   9.141   0.664
 7401SOL    HW124100   4.798   9.220   0.651
 7401SOL    HW224101   4.800   9.069   0.634
 7402SOL     OW24102   1.839  13.925  11.689
 7402SOL    HW124103   1.769  13.872  11.651
 7402SOL    HW224104   1.854  13.994  11.624
 7403SOL     OW24105   8.605   6.916   5.061
 7403SOL    HW124106   8.649   6.986   5.013
 7403SOL    HW224107   8.570   6.958   5.139
 7404SOL     OW24108  12.016   3.059   6.039
 7404SOL    HW124109  11.984   3.030   5.955
 7404SOL    HW224110  12.034   3.153   6.028
 7405SOL     OW24111   1.574  10.766   4.531
 7405SOL    HW124112   1.577  10.710   4.453
 7405SOL    HW224113   1.494  10.818   4.519
 7406SOL     OW24114   7.700   7.717   3.502
 7406SOL    HW124115   7.677   7.704   3.595
 7406SOL    HW224116   7.629   7.772   3.468
 7407SOL     OW24117  11.607   2.645  11.049
 7407SOL    HW124118  11.556   2.714  11.091
 7407SOL    HW224119  11.580   2.648  10.957
 7408SOL     OW24120   1.601   1.956   6.488
 7408SOL    HW124121   1.593   1.884   6.425
 7408SOL    HW224122   1.546   2.025   6.453
 7409SOL     OW24123   9.501   9.717   1.633
 7409SOL    HW124124   9.541   9.743   1.716
 7409SOL    HW224125   9.461   9.797   1.599
 7410SOL     OW24126   9.010  12.170  12.265
 7410SOL    HW124127   9.053  12.244  12.220
 7410SOL    HW224128   9.072  12.098  12.257
 7411SOL     OW24129   6.374   4.447  12.494
 7411SOL    HW124130   6.427   4.379  12.452
 7411SOL    HW224131   6.371   4.420  12.586
 7412SOL     OW24132  13.373  10.809  14.186
 7412SOL    HW124133  13.346  10.877  14.247
 7412SOL    HW224134  13.433  10.754  14.235
 7413SOL     OW24135   1.400   2.604   4.116
 7413SOL    HW124136   1.310   2.616   4.145
 7413SOL    HW224137   1.451   2.665   4.169
 7414SOL     OW24138  13.137   7.173  14.689
 7414SOL    HW124139  13.176   7.247  14.642
 7414SOL    HW224140  13.109   7.210  14.773
 7415SOL     OW24141  10.794  10.986   4.082
 7415SOL    HW124142  10.712  10.936   4.083
 7415SOL    HW224143  10.786  11.044   4.158
 7416SOL     OW24144  10.759   8.048   4.717
 7416SOL    HW124145  10.749   8.077   4.807
 7416SOL    HW224146  10.841   7.999   4.716
 7417SOL     OW24147   0.451   8.004   3.080
 7417SOL    HW124148   0.381   7.987   3.143
 7417SOL    HW224149   0.481   7.917   3.053
 7418SOL     OW24150   7.613   3.951   4.420
 7418SOL    HW124151   7.548   3.911   4.363
 7418SOL    HW224152   7.601   3.908   4.505
 7419SOL     OW24153   0.075   1.316   4.372
 7419SOL    HW124154   0.001   1.264   4.342
 7419SOL    HW224155   0.048   1.407   4.355
 7420SOL     OW24156   4.957  11.008  12.964
 7420SOL    HW124157   4.926  10.976  12.880
 7420SOL    HW224158   4.945  11.103  12.960
 7421SOL     OW24159   3.416   1.017  13.538
 7421SOL    HW124160   3.395   0.925  13.553
 7421SOL    HW224161   3.335   1.064  13.557
 7422SOL     OW24162   0.005   4.893  13.897
 7422SOL    HW124163   0.001   4.978  13.852
 7422SOL    HW224164  14.838   4.908  13.981
 7423SOL     OW24165   3.115   0.501   8.273
 7423SOL    HW124166   3.171   0.537   8.342
 7423SOL    HW224167   3.161   0.422   8.245
 7424SOL     OW24168   4.417   9.400  11.448
 7424SOL    HW124169   4.334   9.442  11.469
 7424SOL    HW224170   4.400   9.307  11.458
 7425SOL     OW24171  14.611   4.492   6.031
 7425SOL    HW124172  14.530   4.541   6.045
 7425SOL    HW224173  14.681   4.554   6.050
 7426SOL     OW24174  13.389   4.133   3.478
 7426SOL    HW124175  13.324   4.079   3.523
 7426SOL    HW224176  13.347   4.155   3.394
 7427SOL     OW24177  11.481   1.518   3.824
 7427SOL    HW124178  11.502   1.429   3.852
 7427SOL    HW224179  11.385   1.522   3.828
 7428SOL     OW24180   5.385   3.836   8.546
 7428SOL    HW124181   5.292   3.848   8.527
 7428SOL    HW224182   5.403   3.898   8.617
 7429SOL     OW24183   1.087   1.693   6.593
 7429SOL    HW124184   1.040   1.627   6.645
 7429SOL    HW224185   1.173   1.653   6.578
 7430SOL     OW24186   2.646   5.115   3.341
 7430SOL    HW124187   2.552   5.133   3.335
 7430SOL    HW224188   2.676   5.118   3.250
 7431SOL     OW24189  10.614   1.745   6.793
 7431SOL    HW124190  10.594   1.680   6.860
 7431SOL    HW224191  10.546   1.732   6.726
 7432SOL     OW24192  11.355  13.869   3.969
 7432SOL    HW124193  11.336  13.952   4.013
 7432SOL    HW224194  11.366  13.806   4.040
 7433SOL     OW24195  12.867   4.299   5.712
 7433SOL    HW124196  12.833   4.235   5.648
 7433SOL    HW224197  12.812   4.287   5.789
 7434SOL     OW24198   9.704  13.414  13.010
 7434SOL    HW124199   9.628  13.392  13.064
 7434SOL    HW224200   9.774  13.432  13.073
 7435SOL     OW24201  13.842   4.146  14.129
 7435SOL    HW124202  13.804   4.201  14.198
 7435SOL    HW224203  13.809   4.183  14.048
 7436SOL     OW24204   8.929   4.158  10.955
 7436SOL    HW124205   8.948   4.144  11.048
 7436SOL    HW224206   8.910   4.252  10.949
 7437SOL     OW24207   2.388   7.714   9.183
 7437SOL    HW124208   2.434   7.744   9.105
 7437SOL    HW224209   2.300   7.693   9.152
 7438SOL     OW24210   3.956  11.381  11.709
 7438SOL    HW124211   3.895  11.316  11.675
 7438SOL    HW224212   3.920  11.406  11.794
 7439SOL     OW24213  12.761   4.071   2.634
 7439SOL    HW124214  12.748   3.982   2.666
 7439SOL    HW224215  12.811   4.060   2.552
 7440SOL     OW24216   2.807   6.123  13.011
 7440SOL    HW124217   2.755   6.152  12.936
 7440SOL    HW224218   2.853   6.201  13.041
 7441SOL     OW24219  12.807  11.662   2.186
 7441SOL    HW124220  12.872  11.724   2.153
 7441SOL    HW224221  12.859  11.591   2.224
 7442SOL     OW24222   0.229  11.125   4.024
 7442SOL    HW124223   0.300  11.072   3.988
 7442SOL    HW224224   0.216  11.091   4.112
 7443SOL     OW24225  14.161   2.771   0.481
 7443SOL    HW124226  14.184   2.715   0.406
 7443SOL    HW224227  14.113   2.844   0.442
 7444SOL     OW24228   1.589   4.528  11.604
 7444SOL    HW124229   1.668   4.553  11.556
 7444SOL    HW224230   1.531   4.604  11.599
 7445SOL     OW24231   0.578  10.053   2.574
 7445SOL    HW124232   0.598  10.103   2.654
 7445SOL    HW224233   0.551   9.967   2.606
 7446SOL     OW24234  14.297   5.677   4.646
 7446SOL    HW124235  14.228   5.648   4.706
 7446SOL    HW224236  14.260   5.663   4.558
 7447SOL     OW24237  13.019   2.471   9.897
 7447SOL    HW124238  12.994   2.519   9.976
 7447SOL    HW224239  13.088   2.525   9.858
 7448SOL     OW24240   9.289   8.939   6.993
 7448SOL    HW124241   9.262   8.957   7.083
 7448SOL    HW224242   9.262   8.848   6.978
 7449SOL     OW24243   5.376  10.150  12.398
 7449SOL    HW124244   5.318  10.164  12.323
 7449SOL    HW224245   5.339  10.074  12.443
 7450SOL     OW24246  12.368   2.231   2.098
 7450SOL    HW124247  12.443   2.277   2.060
 7450SOL    HW224248  12.397   2.140   2.104
 7451SOL     OW24249   1.598  10.502   0.673
 7451SOL    HW124250   1.622  10.569   0.737
 7451SOL    HW224251   1.664  10.434   0.684
 7452SOL     OW24252   5.733  11.648   3.056
 7452SOL    HW124253   5.764  11.739   3.058
 7452SOL    HW224254   5.777  11.607   3.130
 7453SOL     OW24255  10.433   9.428   4.050
 7453SOL    HW124256  10.445   9.405   4.142
 7453SOL    HW224257  10.344   9.398   4.030
 7454SOL     OW24258  11.083   3.660  10.208
 7454SOL    HW124259  11.108   3.602  10.280
 7454SOL    HW224260  11.136   3.630  10.134
 7455SOL     OW24261   9.513  11.460   6.057
 7455SOL    HW124262   9.451  11.388   6.045
 7455SOL    HW224263   9.524  11.497   5.970
 7456SOL     OW24264  12.896   2.674  11.223
 7456SOL    HW124265  12.800   2.682  11.223
 7456SOL    HW224266  12.913   2.604  11.160
 7457SOL     OW24267  11.105   7.577   4.711
 7457SOL    HW124268  11.054   7.524   4.649
 7457SOL    HW224269  11.130   7.655   4.661
 7458SOL     OW24270  14.033   2.437   2.902
 7458SOL    HW124271  14.049   2.343   2.901
 7458SOL    HW224272  14.106   2.475   2.852
 7459SOL     OW24273  12.215   9.257   5.054
 7459SOL    HW124274  12.309   9.268   5.046
 7459SOL    HW224275  12.196   9.273   5.147
 7460SOL     OW24276   3.060   4.593   6.274
 7460SOL    HW124277   3.118   4.636   6.337
 7460SOL    HW224278   2.989   4.557   6.327
 7461SOL     OW24279   9.690   0.230  11.413
 7461SOL    HW124280   9.757   0.172  11.450
 7461SOL    HW224281   9.700   0.220  11.318
 7462SOL     OW24282  13.612   2.457   7.277
 7462SOL    HW124283  13.608   2.369   7.313
 7462SOL    HW224284  13.675   2.452   7.206
 7463SOL     OW24285  11.775  12.662   2.752
 7463SOL    HW124286  11.740  12.745   2.721
 7463SOL    HW224287  11.811  12.681   2.839
 7464SOL     OW24288   4.183   1.391   3.911
 7464SOL    HW124289   4.204   1.300   3.933
 7464SOL    HW224290   4.088   1.397   3.924
 7465SOL     OW24291  11.505   8.212  12.797
 7465SOL    HW124292  11.523   8.134  12.743
 7465SOL    HW224293  11.438   8.183  12.858
 7466SOL     OW24294   8.525  14.535   4.673
 7466SOL    HW124295   8.593  14.600   4.689
 7466SOL    HW224296   8.573  14.452   4.664
 7467SOL     OW24297   4.038   7.523  12.013
 7467SOL    HW124298   4.014   7.457  11.948
 7467SOL    HW224299   3.958   7.574  12.026
 7468SOL     OW24300   3.789   8.813   7.767
 7468SOL    HW124301   3.880   8.842   7.766
 7468SOL    HW224302   3.783   8.757   7.844
 7469SOL     OW24303   2.121  12.080  14.257
 7469SOL    HW124304   2.205  12.041  14.280
 7469SOL    HW224305   2.141  12.143  14.187
 7470SOL     OW24306   8.866  11.010   6.143
 7470SOL    HW124307   8.828  11.069   6.079
 7470SOL    HW224308   8.832  11.040   6.227
 7471SOL     OW24309  11.734   0.502  13.640
 7471SOL    HW124310  11.737   0.543  13.554
 7471SOL    HW224311  11.708   0.411  13.623
 7472SOL     OW24312   5.294   9.101   9.497
 7472SOL    HW124313   5.199   9.104   9.508
 7472SOL    HW224314   5.308   9.039   9.426
 7473SOL     OW24315   6.706   9.545   6.269
 7473SOL    HW124316   6.717   9.639   6.258
 7473SOL    HW224317   6.757   9.505   6.198
 7474SOL     OW24318  13.920   3.213   1.175
 7474SOL    HW124319  13.948   3.164   1.253
 7474SOL    HW224320  13.903   3.301   1.208
 7475SOL     OW24321   3.087   7.513   0.909
 7475SOL    HW124322   3.099   7.480   0.820
 7475SOL    HW224323   3.098   7.436   0.965
 7476SOL     OW24324   1.561   4.037  13.055
 7476SOL    HW124325   1.517   3.985  13.121
 7476SOL    HW224326   1.618   4.096  13.105
 7477SOL     OW24327  12.127   8.874   6.239
 7477SOL    HW124328  12.053   8.904   6.185
 7477SOL    HW224329  12.096   8.887   6.329
 7478SOL     OW24330  14.547  11.359  13.613
 7478SOL    HW124331  14.612  11.289  13.604
 7478SOL    HW224332  14.464  11.318  13.590
 7479SOL     OW24333   9.355  14.461   5.472
 7479SOL    HW124334   9.392  14.515   5.541
 7479SOL    HW224335   9.352  14.373   5.509
 7480SOL     OW24336  10.757  10.382   8.822
 7480SOL    HW124337  10.820  10.312   8.804
 7480SOL    HW224338  10.790  10.457   8.773
 7481SOL     OW24339   7.166  10.313   7.809
 7481SOL    HW124340   7.259  10.295   7.817
 7481SOL    HW224341   7.123  10.244   7.860
 7482SOL     OW24342  14.873  11.023   2.900
 7482SOL    HW124343   0.013  10.942   2.850
 7482SOL    HW224344  14.836  11.084   2.837
 7483SOL     OW24345   7.722   8.466  11.549
 7483SOL    HW124346   7.733   8.375  11.523
 7483SOL    HW224347   7.808   8.493  11.580
 7484SOL     OW24348  11.445   6.084   7.253
 7484SOL    HW124349  11.493   6.003   7.273
 7484SOL    HW224350  11.453   6.094   7.158
 7485SOL     OW24351   8.939   7.416   6.048
 7485SOL    HW124352   8.901   7.335   6.081
 7485SOL    HW224353   9.005   7.387   5.984
 7486SOL     OW24354  12.714   6.154   6.975
 7486SOL    HW124355  12.738   6.194   6.892
 7486SOL    HW224356  12.792   6.165   7.030
 7487SOL     OW24357   7.569   9.976   1.101
 7487SOL    HW124358   7.605  10.051   1.148
 7487SOL    HW224359   7.526  10.014   1.024
 7488SOL     OW24360   3.208   1.320   5.172
 7488SOL    HW124361   3.287   1.367   5.198
 7488SOL    HW224362   3.139   1.357   5.226
 7489SOL     OW24363   6.204   1.521  14.154
 7489SOL    HW124364   6.256   1.442  14.169
 7489SOL    HW224365   6.166   1.508  14.067
 7490SOL     OW24366  13.166   7.201  11.300
 7490SOL    HW124367  13.135   7.157  11.221
 7490SOL    HW224368  13.260   7.187  11.300
 7491SOL     OW24369   5.289   3.122  12.292
 7491SOL    HW124370   5.281   3.135  12.197
 7491SOL    HW224371   5.300   3.028  12.303
 7492SOL     OW24372  12.174   2.987  11.370
 7492SOL    HW124373  12.162   2.995  11.276
 7492SOL    HW224374  12.131   2.905  11.393
 7493SOL     OW24375   6.437   0.300   8.547
 7493SOL    HW124376   6.343   0.282   8.549
 7493SOL    HW224377   6.458   0.330   8.636
 7494SOL     OW24378  13.344  10.466  11.586
 7494SOL    HW124379  13.384  10.404  11.647
 7494SOL    HW224380  13.259  10.427  11.565
 7495SOL     OW24381   9.621   0.730   7.570
 7495SOL    HW124382   9.637   0.637   7.584
 7495SOL    HW224383   9.576   0.759   7.648
 7496SOL     OW24384  11.819   1.558   8.705
 7496SOL    HW124385  11.767   1.520   8.635
 7496SOL    HW224386  11.764   1.550   8.783
 7497SOL     OW24387   8.084   6.299  13.966
 7497SOL    HW124388   8.033   6.226  14.001
 7497SOL    HW224389   8.130   6.263  13.890
 7498SOL     OW24390   3.229  12.036  11.466
 7498SOL    HW124391   3.260  11.953  11.500
 7498SOL    HW224392   3.289  12.057  11.395
 7499SOL     OW24393   3.211   9.779   1.385
 7499SOL    HW124394   3.220   9.685   1.397
 7499SOL    HW224395   3.149   9.789   1.313
 7500SOL     OW24396   2.958  10.362   2.412
 7500SOL    HW124397   3.047  10.396   2.398
 7500SOL    HW224398   2.909  10.391   2.335
 7501SOL     OW24399  12.774   8.500   0.754
 7501SOL    HW124400  12.802   8.462   0.671
 7501SOL    HW224401  12.695   8.450   0.778
 7502SOL     OW24402   7.039   5.822   8.592
 7502SOL    HW124403   6.963   5.794   8.642
 7502SOL    HW224404   7.098   5.859   8.657
 7503SOL     OW24405   6.718   5.914   8.546
 7503SOL    HW124406   6.754   5.955   8.624
 7503SOL    HW224407   6.710   5.821   8.569
 7504SOL     OW24408  14.156   4.313   6.714
 7504SOL    HW124409  14.075   4.266   6.692
 7504SOL    HW224410  14.214   4.245   6.748
 7505SOL     OW24411  11.633   0.184   5.340
 7505SOL    HW124412  11.595   0.165   5.426
 7505SOL    HW224413  11.717   0.225   5.360
 7506SOL     OW24414   1.767   4.059  14.652
 7506SOL    HW124415   1.710   4.071  14.576
 7506SOL    HW224416   1.727   3.988  14.702
 7507SOL     OW24417   5.519   5.407  11.754
 7507SOL    HW124418   5.592   5.420  11.814
 7507SOL    HW224419   5.458   5.478  11.773
 7508SOL     OW24420   1.023   8.052  13.944
 7508SOL    HW124421   0.955   8.112  13.973
 7508SOL    HW224422   1.037   7.992  14.018
 7509SOL     OW24423   2.497   3.642  14.870
 7509SOL    HW124424   2.548   3.723  14.864
 7509SOL    HW224425   2.458   3.631  14.783
 7510SOL     OW24426   5.942   4.118   5.192
 7510SOL    HW124427   5.950   4.085   5.102
 7510SOL    HW224428   6.020   4.171   5.206
 7511SOL     OW24429  10.168   5.203   6.227
 7511SOL    HW124430  10.094   5.255   6.194
 7511SOL    HW224431  10.144   5.113   6.208
 7512SOL     OW24432   0.857  12.775  12.341
 7512SOL    HW124433   0.786  12.728  12.298
 7512SOL    HW224434   0.842  12.760  12.435
 7513SOL     OW24435  13.834  11.711   6.500
 7513SOL    HW124436  13.811  11.709   6.593
 7513SOL    HW224437  13.753  11.686   6.454
 7514SOL     OW24438  10.704   0.922   2.543
 7514SOL    HW124439  10.661   1.002   2.512
 7514SOL    HW224440  10.785   0.953   2.583
 7515SOL     OW24441  12.963   0.075   5.687
 7515SOL    HW124442  12.931   0.032   5.766
 7515SOL    HW224443  12.959   0.168   5.707
 7516SOL     OW24444   9.649   3.970   9.043
 7516SOL    HW124445   9.708   3.963   9.118
 7516SOL    HW224446   9.565   3.998   9.080
 7517SOL     OW24447   5.836   8.929  14.569
 7517SOL    HW124448   5.927   8.910  14.595
 7517SOL    HW224449   5.823   8.876  14.491
 7518SOL     OW24450   9.695  11.297   4.179
 7518SOL    HW124451   9.635  11.249   4.121
 7518SOL    HW224452   9.743  11.229   4.226
 7519SOL     OW24453  10.658  13.777   5.832
 7519SOL    HW124454  10.621  13.830   5.761
 7519SOL    HW224455  10.686  13.840   5.897
 7520SOL     OW24456   8.690  13.352   2.619
 7520SOL    HW124457   8.671  13.443   2.643
 7520SOL    HW224458   8.785  13.349   2.613
 7521SOL     OW24459   7.943  10.717   2.770
 7521SOL    HW124460   7.878  10.683   2.708
 7521SOL    HW224461   7.897  10.788   2.815
 7522SOL     OW24462   2.443  13.099  13.100
 7522SOL    HW124463   2.537  13.106  13.089
 7522SOL    HW224464   2.410  13.074  13.013
 7523SOL     OW24465   7.171   5.836  13.576
 7523SOL    HW124466   7.146   5.896  13.646
 7523SOL    HW224467   7.262   5.813  13.596
 7524SOL     OW24468  13.811   9.323   6.564
 7524SOL    HW124469  13.726   9.325   6.521
 7524SOL    HW224470  13.848   9.410   6.547
 7525SOL     OW24471   4.031   7.034   5.167
 7525SOL    HW124472   3.952   6.986   5.141
 7525SOL    HW224473   4.103   6.988   5.124
 7526SOL     OW24474   2.389   1.194   5.271
 7526SOL    HW124475   2.320   1.194   5.204
 7526SOL    HW224476   2.352   1.145   5.344
 7527SOL     OW24477  13.348   4.860   5.974
 7527SOL    HW124478  13.434   4.903   5.984
 7527SOL    HW224479  13.298   4.920   5.919
 7528SOL     OW24480   1.174   2.241   3.342
 7528SOL    HW124481   1.241   2.279   3.285
 7528SOL    HW224482   1.152   2.311   3.404
 7529SOL     OW24483   1.951   4.601  14.525
 7529SOL    HW124484   1.939   4.507  14.513
 7529SOL    HW224485   1.974   4.610  14.618
 7530SOL     OW24486   6.289   5.071   5.371
 7530SOL    HW124487   6.268   4.986   5.411
 7530SOL    HW224488   6.255   5.064   5.282
 7531SOL     OW24489  12.060   1.034   3.977
 7531SOL    HW124490  11.988   1.094   3.963
 7531SOL    HW224491  12.115   1.043   3.899
 7532SOL     OW24492   9.271   2.411   9.743
 7532SOL    HW124493   9.292   2.318   9.754
 7532SOL    HW224494   9.208   2.413   9.671
 7533SOL     OW24495   1.826   6.336   9.884
 7533SOL    HW124496   1.761   6.312   9.950
 7533SOL    HW224497   1.866   6.416   9.918
 7534SOL     OW24498   8.376  12.897  10.314
 7534SOL    HW124499   8.309  12.919  10.379
 7534SOL    HW224500   8.433  12.974  10.312
 7535SOL     OW24501  11.711   1.373   2.555
 7535SOL    HW124502  11.662   1.431   2.497
 7535SOL    HW224503  11.790   1.421   2.577
 7536SOL     OW24504  12.148  11.853   0.026
 7536SOL    HW124505  12.228  11.865  14.850
 7536SOL    HW224506  12.179  11.817   0.109
 7537SOL     OW24507  13.200  11.480  13.367
 7537SOL    HW124508  13.274  11.484  13.306
 7537SOL    HW224509  13.132  11.535  13.328
 7538SOL     OW24510   3.259   0.270   2.752
 7538SOL    HW124511   3.237   0.302   2.839
 7538SOL    HW224512   3.255   0.348   2.696
 7539SOL     OW24513   1.009  11.485   0.013
 7539SOL    HW124514   1.037  11.462  14.800
 7539SOL    HW224515   0.924  11.443   0.024
 7540SOL     OW24516  12.363   0.231   1.008
 7540SOL    HW124517  12.298   0.183   1.059
 7540SOL    HW224518  12.443   0.180   1.016
 7541SOL     OW24519   4.716   5.789   7.137
 7541SOL    HW124520   4.724   5.837   7.220
 7541SOL    HW224521   4.654   5.842   7.086
 7542SOL     OW24522   2.795   0.784   9.559
 7542SOL    HW124523   2.765   0.718   9.497
 7542SOL    HW224524   2.864   0.741   9.609
 7543SOL     OW24525   7.433   2.427   4.523
 7543SOL    HW124526   7.509   2.484   4.511
 7543SOL    HW224527   7.448   2.385   4.608
 7544SOL     OW24528  13.846   0.995   4.581
 7544SOL    HW124529  13.751   1.006   4.577
 7544SOL    HW224530  13.873   1.046   4.657
 7545SOL     OW24531  12.082   2.349  12.352
 7545SOL    HW124532  12.161   2.309  12.389
 7545SOL    HW224533  12.106   2.440  12.337
 7546SOL     OW24534   8.755  11.057   6.878
 7546SOL    HW124535   8.819  11.128   6.875
 7546SOL    HW224536   8.672  11.098   6.853
 7547SOL     OW24537   0.785   8.145   1.460
 7547SOL    HW124538   0.708   8.134   1.516
 7547SOL    HW224539   0.750   8.146   1.371
 7548SOL     OW24540  14.621   9.352  11.653
 7548SOL    HW124541  14.695   9.411  11.668
 7548SOL    HW224542  14.662   9.268  11.632
 7549SOL     OW24543   8.568   3.697   5.332
 7549SOL    HW124544   8.499   3.651   5.380
 7549SOL    HW224545   8.530   3.781   5.308
 7550SOL     OW24546  13.455   7.003   6.334
 7550SOL    HW124547  13.463   7.077   6.274
 7550SOL    HW224548  13.540   6.960   6.331
 7551SOL     OW24549   1.164   7.868   1.854
 7551SOL    HW124550   1.128   7.807   1.789
 7551SOL    HW224551   1.118   7.950   1.838
 7552SOL     OW24552  11.718  12.250   0.413
 7552SOL    HW124553  11.725  12.308   0.489
 7552SOL    HW224554  11.774  12.292   0.346
 7553SOL     OW24555   1.846   3.431   0.194
 7553SOL    HW124556   1.851   3.517   0.151
 7553SOL    HW224557   1.928   3.426   0.244
 7554SOL     OW24558   9.374  11.203   5.885
 7554SOL    HW124559   9.360  11.205   5.980
 7554SOL    HW224560   9.302  11.150   5.851
 7555SOL     OW24561  13.148   2.137   3.057
 7555SOL    HW124562  13.201   2.184   2.992
 7555SOL    HW224563  13.156   2.045   3.032
 7556SOL     OW24564   1.990   2.051  13.917
 7556SOL    HW124565   2.032   1.967  13.903
 7556SOL    HW224566   2.058   2.106  13.957
 7557SOL     OW24567   3.130   9.029  11.005
 7557SOL    HW124568   3.105   9.121  10.995
 7557SOL    HW224569   3.117   8.990  10.919
 7558SOL     OW24570   1.116  11.917  13.611
 7558SOL    HW124571   1.104  11.934  13.518
 7558SOL    HW224572   1.195  11.863  13.615
 7559SOL     OW24573   8.568   3.803  12.278
 7559SOL    HW124574   8.653   3.828  12.314
 7559SOL    HW224575   8.515   3.782  12.354
 7560SOL     OW24576   5.850   1.051  12.376
 7560SOL    HW124577   5.801   1.127  12.343
 7560SOL    HW224578   5.805   1.027  12.457
 7561SOL     OW24579   4.240  12.749   0.466
 7561SOL    HW124580   4.287  12.762   0.549
 7561SOL    HW224581   4.167  12.812   0.470
 7562SOL     OW24582   1.969   2.739  11.272
 7562SOL    HW124583   2.029   2.687  11.325
 7562SOL    HW224584   2.006   2.735  11.184
 7563SOL     OW24585   5.404  10.404   6.718
 7563SOL    HW124586   5.423  10.320   6.678
 7563SOL    HW224587   5.322  10.391   6.767
 7564SOL     OW24588   5.495   9.766  10.540
 7564SOL    HW124589   5.415   9.810  10.569
 7564SOL    HW224590   5.519   9.709  10.614
 7565SOL     OW24591   8.243  12.398   0.012
 7565SOL    HW124592   8.301  12.415  14.813
 7565SOL    HW224593   8.300  12.361   0.079
 7566SOL     OW24594   4.106   9.428   1.824
 7566SOL    HW124595   4.151   9.399   1.904
 7566SOL    HW224596   4.027   9.471   1.856
 7567SOL     OW24597  12.611   5.404   5.846
 7567SOL    HW124598  12.537   5.344   5.843
 7567SOL    HW224599  12.650   5.391   5.932
 7568SOL     OW24600  14.426   5.827   9.521
 7568SOL    HW124601  14.515   5.849   9.493
 7568SOL    HW224602  14.396   5.905   9.567
 7569SOL     OW24603   7.687  11.103   1.507
 7569SOL    HW124604   7.756  11.037   1.507
 7569SOL    HW224605   7.615  11.064   1.557
 7570SOL     OW24606   5.908   3.505  14.119
 7570SOL    HW124607   5.893   3.441  14.050
 7570SOL    HW224608   5.938   3.584  14.073
 7571SOL     OW24609   9.664   4.032   2.829
 7571SOL    HW124610   9.706   4.008   2.912
 7571SOL    HW224611   9.729   4.086   2.784
 7572SOL     OW24612  10.840   3.050   0.507
 7572SOL    HW124613  10.830   3.116   0.438
 7572SOL    HW224614  10.847   3.101   0.588
 7573SOL     OW24615   6.155  14.180   6.021
 7573SOL    HW124616   6.157  14.275   6.017
 7573SOL    HW224617   6.062  14.158   6.027
 7574SOL     OW24618   9.568  12.438  10.027
 7574SOL    HW124619   9.587  12.347  10.003
 7574SOL    HW224620   9.504  12.430  10.098
 7575SOL     OW24621   1.587   1.621   6.801
 7575SOL    HW124622   1.650   1.593   6.734
 7575SOL    HW224623   1.581   1.716   6.790
 7576SOL     OW24624  13.266  14.090   1.043
 7576SOL    HW124625  13.360  14.072   1.054
 7576SOL    HW224626  13.258  14.124   0.954
 7577SOL     OW24627   9.094  13.865   9.159
 7577SOL    HW124628   9.175  13.826   9.193
 7577SOL    HW224629   9.026  13.836   9.220
 7578SOL     OW24630   6.968   8.863  14.143
 7578SOL    HW124631   7.005   8.855  14.231
 7578SOL    HW224632   7.015   8.937  14.104
 7579SOL     OW24633   9.169   4.934  11.487
 7579SOL    HW124634   9.215   5.008  11.527
 7579SOL    HW224635   9.151   4.874  11.560
 7580SOL     OW24636  11.180   3.634   8.629
 7580SOL    HW124637  11.105   3.592   8.586
 7580SOL    HW224638  11.256   3.601   8.582
 7581SOL     OW24639   9.010   0.678   4.900
 7581SOL    HW124640   9.045   0.634   4.977
 7581SOL    HW224641   8.916   0.661   4.904
 7582SOL     OW24642   0.770   0.698   2.971
 7582SOL    HW124643   0.850   0.645   2.974
 7582SOL    HW224644   0.721   0.662   2.897
 7583SOL     OW24645  10.154   2.509   1.211
 7583SOL    HW124646  10.211   2.561   1.154
 7583SOL    HW224647  10.181   2.418   1.196
 7584SOL     OW24648  14.309   4.024   9.344
 7584SOL    HW124649  14.402   4.003   9.335
 7584SOL    HW224650  14.268   3.989   9.265
 7585SOL     OW24651   1.352  13.452   4.038
 7585SOL    HW124652   1.430  13.506   4.044
 7585SOL    HW224653   1.282  13.506   4.073
 7586SOL     OW24654   8.466  13.060   2.952
 7586SOL    HW124655   8.429  13.108   3.026
 7586SOL    HW224656   8.473  12.970   2.983
 7587SOL     OW24657   8.331   7.877   2.873
 7587SOL    HW124658   8.258   7.817   2.885
 7587SOL    HW224659   8.408   7.826   2.897
 7588SOL     OW24660  10.385   3.178  12.152
 7588SOL    HW124661  10.450   3.124  12.107
 7588SOL    HW224662  10.314   3.187  12.089
 7589SOL     OW24663  10.359  10.314  10.673
 7589SOL    HW124664  10.305  10.393  10.675
 7589SOL    HW224665  10.384  10.301  10.765
 7590SOL     OW24666   2.932   5.611   6.983
 7590SOL    HW124667   2.960   5.616   6.891
 7590SOL    HW224668   2.837   5.604   6.979
 7591SOL     OW24669  14.199   8.475   6.673
 7591SOL    HW124670  14.226   8.463   6.764
 7591SOL    HW224671  14.261   8.539   6.638
 7592SOL     OW24672   7.225  12.860   7.889
 7592SOL    HW124673   7.190  12.924   7.828
 7592SOL    HW224674   7.308  12.897   7.919
 7593SOL     OW24675   4.369   7.172   2.663
 7593SOL    HW124676   4.292   7.193   2.715
 7593SOL    HW224677   4.436   7.148   2.728
 7594SOL     OW24678   1.385   8.596   9.615
 7594SOL    HW124679   1.369   8.595   9.709
 7594SOL    HW224680   1.373   8.505   9.588
 7595SOL     OW24681  11.950   7.676   9.647
 7595SOL    HW124682  11.896   7.600   9.628
 7595SOL    HW224683  11.949   7.684   9.742
 7596SOL     OW24684   9.004   9.038  12.204
 7596SOL    HW124685   8.974   9.061  12.116
 7596SOL    HW224686   9.070   9.104  12.225
 7597SOL     OW24687   3.428  10.126   5.691
 7597SOL    HW124688   3.450  10.096   5.603
 7597SOL    HW224689   3.492  10.082   5.748
 7598SOL     OW24690   8.293   6.116   8.364
 7598SOL    HW124691   8.317   6.063   8.440
 7598SOL    HW224692   8.314   6.060   8.289
 7599SOL     OW24693   5.692   2.648  10.021
 7599SOL    HW124694   5.696   2.611   9.933
 7599SOL    HW224695   5.633   2.589  10.069
 7600SOL     OW24696  12.193   1.211  11.851
 7600SOL    HW124697  12.260   1.279  11.849
 7600SOL    HW224698  12.116   1.255  11.888
 7601SOL     OW24699   4.090  12.242   1.258
 7601SOL    HW124700   4.030  12.207   1.192
 7601SOL    HW224701   4.053  12.214   1.342
 7602SOL     OW24702   1.566   6.483  13.216
 7602SOL    HW124703   1.616   6.526  13.285
 7602SOL    HW224704   1.523   6.555  13.169
 7603SOL     OW24705   2.196   8.396  10.014
 7603SOL    HW124706   2.256   8.372  10.084
 7603SOL    HW224707   2.253   8.410   9.938
 7604SOL     OW24708  12.980   7.585  13.584
 7604SOL    HW124709  13.073   7.562  13.583
 7604SOL    HW224710  12.937   7.508  13.621
 7605SOL     OW24711   2.672   9.809   2.131
 7605SOL    HW124712   2.711   9.871   2.069
 7605SOL    HW224713   2.743   9.751   2.155
 7606SOL     OW24714   6.574   1.859   1.330
 7606SOL    HW124715   6.570   1.783   1.273
 7606SOL    HW224716   6.511   1.842   1.399
 7607SOL     OW24717   2.495   5.874  14.579
 7607SOL    HW124718   2.525   5.799  14.630
 7607SOL    HW224719   2.534   5.861  14.492
 7608SOL     OW24720   9.479  10.807   7.396
 7608SOL    HW124721   9.454  10.890   7.438
 7608SOL    HW224722   9.437  10.810   7.310
 7609SOL     OW24723   8.641  13.428  10.122
 7609SOL    HW124724   8.553  13.396  10.107
 7609SOL    HW224725   8.678  13.440  10.035
 7610SOL     OW24726   6.427   0.298   7.844
 7610SOL    HW124727   6.375   0.256   7.775
 7610SOL    HW224728   6.376   0.283   7.924
 7611SOL     OW24729   3.331  12.521   4.975
 7611SOL    HW124730   3.344  12.457   4.905
 7611SOL    HW224731   3.249  12.566   4.951
 7612SOL     OW24732  10.874   9.399  12.136
 7612SOL    HW124733  10.956   9.417  12.183
 7612SOL    HW224734  10.884   9.308  12.106
 7613SOL     OW24735  14.680   7.434   2.905
 7613SOL    HW124736  14.671   7.523   2.871
 7613SOL    HW224737  14.748   7.441   2.972
 7614SOL     OW24738  11.968   0.938   2.425
 7614SOL    HW124739  12.035   0.998   2.391
 7614SOL    HW224740  11.965   0.955   2.519
 7615SOL     OW24741   9.476   1.167  13.645
 7615SOL    HW124742   9.544   1.216  13.691
 7615SOL    HW224743   9.394   1.191  13.690
 7616SOL     OW24744   3.968  12.865   5.741
 7616SOL    HW124745   4.006  12.902   5.821
 7616SOL    HW224746   3.877  12.893   5.743
 7617SOL     OW24747  12.930   2.464  10.752
 7617SOL    HW124748  12.976   2.393  10.797
 7617SOL    HW224749  12.840   2.458  10.782
 7618SOL     OW24750   0.189   3.784   7.018
 7618SOL    HW124751   0.103   3.815   6.989
 7618SOL    HW224752   0.238   3.771   6.938
 7619SOL     OW24753   6.566   4.620  10.035
 7619SOL    HW124754   6.590   4.712  10.049
 7619SOL    HW224755   6.561   4.610   9.940
 7620SOL     OW24756   8.934  14.510   6.685
 7620SOL    HW124757   8.947  14.520   6.591
 7620SOL    HW224758   8.940  14.416   6.701
 7621SOL     OW24759  13.816   9.128   8.272
 7621SOL    HW124760  13.772   9.177   8.341
 7621SOL    HW224761  13.886   9.187   8.242
 7622SOL     OW24762  14.514   9.475   4.093
 7622SOL    HW124763  14.558   9.504   4.012
 7622SOL    HW224764  14.505   9.555   4.145
 7623SOL     OW24765   9.424  12.613   9.888
 7623SOL    HW124766   9.460  12.551   9.952
 7623SOL    HW224767   9.437  12.699   9.928
 7624SOL     OW24768  10.409   1.435   5.952
 7624SOL    HW124769  10.485   1.378   5.942
 7624SOL    HW224770  10.423   1.505   5.888
 7625SOL     OW24771  14.714   4.205  10.390
 7625SOL    HW124772  14.782   4.138  10.376
 7625SOL    HW224773  14.714   4.218  10.485
 7626SOL     OW24774   9.067   5.029   8.291
 7626SOL    HW124775   9.092   5.051   8.381
 7626SOL    HW224776   8.978   5.064   8.282
 7627SOL     OW24777   7.517   5.508  10.818
 7627SOL    HW124778   7.600   5.470  10.789
 7627SOL    HW224779   7.483   5.553  10.741
 7628SOL     OW24780   9.411   8.637   3.284
 7628SOL    HW124781   9.397   8.674   3.372
 7628SOL    HW224782   9.414   8.713   3.226
 7629SOL     OW24783   8.510   5.053  13.853
 7629SOL    HW124784   8.499   5.147  13.871
 7629SOL    HW224785   8.441   5.034  13.789
 7630SOL     OW24786   3.289   8.559   8.350
 7630SOL    HW124787   3.296   8.637   8.406
 7630SOL    HW224788   3.210   8.575   8.298
 7631SOL     OW24789   5.735   6.696   3.031
 7631SOL    HW124790   5.788   6.771   3.004
 7631SOL    HW224791   5.742   6.695   3.126
 7632SOL     OW24792   2.592  14.688   0.211
 7632SOL    HW124793   2.627  14.630   0.144
 7632SOL    HW224794   2.512  14.725   0.172
 7633SOL     OW24795  11.169   5.706   9.207
 7633SOL    HW124796  11.212   5.778   9.162
 7633SOL    HW224797  11.139   5.648   9.137
 7634SOL     OW24798   3.386  14.192  14.023
 7634SOL    HW124799   3.478  14.201  14.046
 7634SOL    HW224800   3.368  14.269  13.968
 7635SOL     OW24801   2.485   9.286   7.560
 7635SOL    HW124802   2.390   9.277   7.571
 7635SOL    HW224803   2.509   9.214   7.501
 7636SOL     OW24804  14.795   6.873  13.664
 7636SOL    HW124805  14.799   6.817  13.741
 7636SOL    HW224806  14.739   6.946  13.690
 7637SOL     OW24807   2.989   6.616   9.952
 7637SOL    HW124808   3.024   6.705   9.961
 7637SOL    HW224809   3.004   6.576  10.037
 7638SOL     OW24810  10.167   2.049   9.269
 7638SOL    HW124811  10.143   2.116   9.204
 7638SOL    HW224812  10.248   2.010   9.234
 7639SOL     OW24813   8.264   3.267  13.296
 7639SOL    HW124814   8.345   3.221  13.322
 7639SOL    HW224815   8.258   3.339  13.358
 7640SOL     OW24816   9.123   5.151   1.346
 7640SOL    HW124817   9.118   5.178   1.438
 7640SOL    HW224818   9.060   5.207   1.301
 7641SOL     OW24819  11.878   4.517   3.170
 7641SOL    HW124820  11.881   4.579   3.242
 7641SOL    HW224821  11.958   4.466   3.179
 7642SOL     OW24822   9.241   0.654   8.288
 7642SOL    HW124823   9.254   0.597   8.213
 7642SOL    HW224824   9.146   0.655   8.302
 7643SOL     OW24825   8.247   4.608   4.029
 7643SOL    HW124826   8.244   4.700   4.004
 7643SOL    HW224827   8.205   4.605   4.115
 7644SOL     OW24828   8.047   6.864   7.993
 7644SOL    HW124829   8.018   6.798   7.929
 7644SOL    HW224830   8.118   6.910   7.949
 7645SOL     OW24831   0.773   9.956  13.053
 7645SOL    HW124832   0.860   9.917  13.040
 7645SOL    HW224833   0.720   9.885  13.090
 7646SOL     OW24834   7.806   1.485   8.720
 7646SOL    HW124835   7.881   1.492   8.779
 7646SOL    HW224836   7.795   1.391   8.707
 7647SOL     OW24837   8.680   0.974   4.511
 7647SOL    HW124838   8.739   0.963   4.436
 7647SOL    HW224839   8.661   0.884   4.539
 7648SOL     OW24840   8.391  11.785   8.491
 7648SOL    HW124841   8.434  11.859   8.449
 7648SOL    HW224842   8.400  11.714   8.427
 7649SOL     OW24843  10.187  11.627  10.394
 7649SOL    HW124844  10.223  11.688  10.329
 7649SOL    HW224845  10.223  11.542  10.370
 7650SOL     OW24846   2.783   1.802  14.581
 7650SOL    HW124847   2.699   1.808  14.627
 7650SOL    HW224848   2.848   1.828  14.646
 7651SOL     OW24849   2.789   3.824  11.455
 7651SOL    HW124850   2.861   3.762  11.449
 7651SOL    HW224851   2.714   3.773  11.485
 7652SOL     OW24852   0.258   7.394  10.041
 7652SOL    HW124853   0.275   7.488  10.048
 7652SOL    HW224854   0.228   7.369  10.128
 7653SOL     OW24855   2.239   4.095   6.652
 7653SOL    HW124856   2.188   4.116   6.574
 7653SOL    HW224857   2.217   4.004   6.672
 7654SOL     OW24858  12.793  11.003   2.507
 7654SOL    HW124859  12.766  10.920   2.469
 7654SOL    HW224860  12.851  11.042   2.442
 7655SOL     OW24861   5.431   3.386   2.001
 7655SOL    HW124862   5.390   3.316   1.949
 7655SOL    HW224863   5.525   3.375   1.986
 7656SOL     OW24864   2.980  10.900   5.580
 7656SOL    HW124865   3.001  10.984   5.540
 7656SOL    HW224866   2.924  10.923   5.655
 7657SOL     OW24867   7.402  11.694  10.473
 7657SOL    HW124868   7.340  11.661  10.408
 7657SOL    HW224869   7.351  11.702  10.554
 7658SOL     OW24870   1.708  14.747   8.646
 7658SOL    HW124871   1.621  14.713   8.667
 7658SOL    HW224872   1.692  14.835   8.613
 7659SOL     OW24873  13.119   7.947   0.126
 7659SOL    HW124874  13.068   7.919   0.202
 7659SOL    HW224875  13.178   8.015   0.160
 7660SOL     OW24876   0.302   4.948  10.181
 7660SOL    HW124877   0.396   4.961  10.169
 7660SOL    HW224878   0.286   4.969  10.273
 7661SOL     OW24879   7.107   3.509  11.428
 7661SOL    HW124880   7.150   3.497  11.344
 7661SOL    HW224881   7.176   3.499  11.493
 7662SOL     OW24882   2.947   6.320  10.424
 7662SOL    HW124883   2.899   6.402  10.427
 7662SOL    HW224884   2.881   6.254  10.405
 7663SOL     OW24885   9.106   4.044   9.606
 7663SOL    HW124886   9.191   4.088   9.613
 7663SOL    HW224887   9.060   4.066   9.687
 7664SOL     OW24888  12.582   7.356   9.639
 7664SOL    HW124889  12.612   7.339   9.549
 7664SOL    HW224890  12.654   7.326   9.694
 7665SOL     OW24891   0.379  11.072  10.681
 7665SOL    HW124892   0.380  11.079  10.585
 7665SOL    HW224893   0.400  10.981  10.698
 7666SOL     OW24894   6.056  13.714   3.304
 7666SOL    HW124895   5.969  13.753   3.292
 7666SOL    HW224896   6.115  13.771   3.254
 7667SOL     OW24897   7.583   3.033   4.243
 7667SOL    HW124898   7.662   3.068   4.284
 7667SOL    HW224899   7.519   3.028   4.315
 7668SOL     OW24900   6.878   8.032  14.291
 7668SOL    HW124901   6.924   8.112  14.317
 7668SOL    HW224902   6.811   8.061  14.231
 7669SOL     OW24903   2.829   2.341  13.352
 7669SOL    HW124904   2.844   2.413  13.290
 7669SOL    HW224905   2.866   2.265  13.308
 7670SOL     OW24906   1.924   6.754  13.303
 7670SOL    HW124907   1.849   6.730  13.357
 7670SOL    HW224908   1.950   6.673  13.260
 7671SOL     OW24909   7.252  11.590  14.867
 7671SOL    HW124910   7.290  11.575   0.079
 7671SOL    HW224911   7.287  11.675  14.840
 7672SOL     OW24912  14.453   9.752   8.077
 7672SOL    HW124913  14.520   9.813   8.047
 7672SOL    HW224914  14.503   9.679   8.115
 7673SOL     OW24915   5.928   1.814  11.053
 7673SOL    HW124916   5.888   1.893  11.088
 7673SOL    HW224917   5.978   1.778  11.127
 7674SOL     OW24918  10.229   2.109  10.137
 7674SOL    HW124919  10.212   2.023  10.098
 7674SOL    HW224920  10.313   2.136  10.099
 7675SOL     OW24921   0.329   0.453   4.766
 7675SOL    HW124922   0.311   0.359   4.754
 7675SOL    HW224923   0.285   0.495   4.692
 7676SOL     OW24924   4.553   4.291   1.573
 7676SOL    HW124925   4.555   4.287   1.477
 7676SOL    HW224926   4.481   4.351   1.593
 7677SOL     OW24927   9.282   1.728  10.244
 7677SOL    HW124928   9.301   1.802  10.187
 7677SOL    HW224929   9.224   1.672  10.192
 7678SOL     OW24930   4.903  12.204   4.531
 7678SOL    HW124931   4.933  12.254   4.607
 7678SOL    HW224932   4.936  12.253   4.456
 7679SOL     OW24933   8.153   5.762  13.229
 7679SOL    HW124934   8.154   5.789  13.137
 7679SOL    HW224935   8.186   5.672  13.228
 7680SOL     OW24936  13.266  14.041   1.701
 7680SOL    HW124937  13.309  14.083   1.627
 7680SOL    HW224938  13.173  14.042   1.678
 7681SOL     OW24939   8.600  12.663   7.447
 7681SOL    HW124940   8.692  12.685   7.466
 7681SOL    HW224941   8.579  12.712   7.368
 7682SOL     OW24942   1.165   7.045  13.515
 7682SOL    HW124943   1.167   6.998  13.598
 7682SOL    HW224944   1.092   7.007  13.467
 7683SOL     OW24945   2.620   2.280   7.723
 7683SOL    HW124946   2.584   2.305   7.638
 7683SOL    HW224947   2.710   2.255   7.704
 7684SOL     OW24948  14.812   5.672  10.635
 7684SOL    HW124949  14.815   5.581  10.605
 7684SOL    HW224950  14.733   5.677  10.689
 7685SOL     OW24951   2.753   1.760  13.455
 7685SOL    HW124952   2.766   1.750  13.360
 7685SOL    HW224953   2.745   1.671  13.488
 7686SOL     OW24954   3.954   3.775  13.343
 7686SOL    HW124955   3.862   3.798  13.355
 7686SOL    HW224956   3.953   3.708  13.274
 7687SOL     OW24957  14.783   7.187   3.110
 7687SOL    HW124958  14.778   7.232   3.194
 7687SOL    HW224959  14.789   7.094   3.133
 7688SOL     OW24960   2.898  11.539   5.683
 7688SOL    HW124961   2.863  11.468   5.736
 7688SOL    HW224962   2.934  11.495   5.605
 7689SOL     OW24963   4.500   7.593   3.500
 7689SOL    HW124964   4.560   7.617   3.429
 7689SOL    HW224965   4.547   7.524   3.548
 7690SOL     OW24966  10.354  13.557   4.381
 7690SOL    HW124967  10.356  13.625   4.314
 7690SOL    HW224968  10.430  13.502   4.363
 7691SOL     OW24969  14.276   5.459   2.258
 7691SOL    HW124970  14.193   5.421   2.228
 7691SOL    HW224971  14.252   5.545   2.293
 7692SOL     OW24972  14.873   0.215  12.718
 7692SOL    HW124973  14.861   0.207  12.812
 7692SOL    HW224974  14.819   0.144  12.681
 7693SOL     OW24975   3.187   2.450  13.019
 7693SOL    HW124976   3.124   2.485  12.957
 7693SOL    HW224977   3.144   2.454  13.104
 7694SOL     OW24978  12.400   1.765   7.117
 7694SOL    HW124979  12.372   1.846   7.162
 7694SOL    HW224980  12.487   1.786   7.083
 7695SOL     OW24981   3.144   0.934  13.848
 7695SOL    HW124982   3.123   0.908  13.759
 7695SOL    HW224983   3.180   0.855  13.889
 7696SOL     OW24984   4.712  10.791   8.833
 7696SOL    HW124985   4.717  10.711   8.781
 7696SOL    HW224986   4.645  10.773   8.899
 7697SOL     OW24987  13.135  12.081  11.477
 7697SOL    HW124988  13.118  12.174  11.464
 7697SOL    HW224989  13.129  12.043  11.390
 7698SOL     OW24990   5.354   0.269   8.270
 7698SOL    HW124991   5.448   0.267   8.287
 7698SOL    HW224992   5.342   0.213   8.194
 7699SOL     OW24993   8.046   3.830   5.418
 7699SOL    HW124994   8.017   3.921   5.430
 7699SOL    HW224995   8.014   3.807   5.330
 7700SOL     OW24996   5.839   1.890   3.825
 7700SOL    HW124997   5.889   1.926   3.751
 7700SOL    HW224998   5.747   1.900   3.799
 7701SOL     OW24999   4.384  13.976   8.648
 7701SOL    HW125000   4.431  14.011   8.573
 7701SOL    HW225001   4.322  13.913   8.611
 7702SOL     OW25002   4.359   4.923   4.841
 7702SOL    HW125003   4.285   4.881   4.885
 7702SOL    HW225004   4.437   4.880   4.878
 7703SOL     OW25005   7.262   8.362  12.039
 7703SOL    HW125006   7.233   8.360  12.130
 7703SOL    HW225007   7.183   8.343  11.988
 7704SOL     OW25008  12.691   3.530   5.055
 7704SOL    HW125009  12.687   3.455   4.996
 7704SOL    HW225010  12.600   3.553   5.071
 7705SOL     OW25011   6.868   4.824   5.735
 7705SOL    HW125012   6.836   4.814   5.646
 7705SOL    HW225013   6.943   4.765   5.741
 7706SOL     OW25014  13.184  11.659   8.271
 7706SOL    HW125015  13.127  11.636   8.197
 7706SOL    HW225016  13.268  11.682   8.231
 7707SOL     OW25017   5.253   3.521   3.701
 7707SOL    HW125018   5.265   3.561   3.786
 7707SOL    HW225019   5.301   3.577   3.640
 7708SOL     OW25020  10.780  12.819  11.186
 7708SOL    HW125021  10.726  12.746  11.215
 7708SOL    HW225022  10.867  12.801  11.222
 7709SOL     OW25023  14.327   4.700   2.791
 7709SOL    HW125024  14.243   4.736   2.763
 7709SOL    HW225025  14.382   4.776   2.810
 7710SOL     OW25026   9.164   7.300   4.165
 7710SOL    HW125027   9.078   7.279   4.126
 7710SOL    HW225028   9.221   7.313   4.089
 7711SOL     OW25029  12.420   5.109  13.802
 7711SOL    HW125030  12.413   5.014  13.810
 7711SOL    HW225031  12.464   5.123  13.718
 7712SOL     OW25032   3.701   8.120   2.582
 7712SOL    HW125033   3.626   8.168   2.615
 7712SOL    HW225034   3.774   8.146   2.639
 7713SOL     OW25035   1.094   6.937   5.641
 7713SOL    HW125036   1.093   6.877   5.715
 7713SOL    HW225037   1.104   7.023   5.680
 7714SOL     OW25038  13.587  12.155  14.526
 7714SOL    HW125039  13.573  12.070  14.568
 7714SOL    HW225040  13.637  12.206  14.590
 7715SOL     OW25041   5.412  12.384   0.347
 7715SOL    HW125042   5.393  12.442   0.273
 7715SOL    HW225043   5.487  12.425   0.391
 7716SOL     OW25044   1.487   4.733  11.091
 7716SOL    HW125045   1.431   4.794  11.138
 7716SOL    HW225046   1.428   4.669  11.053
 7717SOL     OW25047   3.595   1.930   4.211
 7717SOL    HW125048   3.587   2.024   4.195
 7717SOL    HW225049   3.648   1.898   4.138
 7718SOL     OW25050   7.051   9.115   0.058
 7718SOL    HW125051   7.056   9.027   0.021
 7718SOL    HW225052   7.138   9.152   0.043
 7719SOL     OW25053  13.423   6.858   9.939
 7719SOL    HW125054  13.373   6.937   9.920
 7719SOL    HW225055  13.500   6.889   9.987
 7720SOL     OW25056  14.552  10.903  13.580
 7720SOL    HW125057  14.530  10.891  13.673
 7720SOL    HW225058  14.556  10.998  13.568
 7721SOL     OW25059  13.037   1.880   1.851
 7721SOL    HW125060  12.972   1.950   1.838
 7721SOL    HW225061  13.098   1.916   1.915
 7722SOL     OW25062   5.210  12.353  10.188
 7722SOL    HW125063   5.217  12.259  10.170
 7722SOL    HW225064   5.124  12.363  10.229
 7723SOL     OW25065   0.760  13.307   5.135
 7723SOL    HW125066   0.729  13.397   5.120
 7723SOL    HW225067   0.697  13.270   5.198
 7724SOL     OW25068   7.959  10.525  13.953
 7724SOL    HW125069   7.958  10.610  13.909
 7724SOL    HW225070   8.029  10.532  14.018
 7725SOL     OW25071   5.843   3.532   6.248
 7725SOL    HW125072   5.868   3.493   6.332
 7725SOL    HW225073   5.764   3.485   6.222
 7726SOL     OW25074   6.895   6.106  10.404
 7726SOL    HW125075   6.860   6.193  10.386
 7726SOL    HW225076   6.899   6.101  10.500
 7727SOL     OW25077   7.745   2.165   3.933
 7727SOL    HW125078   7.810   2.216   3.980
 7727SOL    HW225079   7.748   2.078   3.975
 7728SOL     OW25080   4.881  10.568   1.531
 7728SOL    HW125081   4.918  10.551   1.445
 7728SOL    HW225082   4.940  10.633   1.570
 7729SOL     OW25083  10.467  11.955   4.485
 7729SOL    HW125084  10.494  12.047   4.479
 7729SOL    HW225085  10.510  11.922   4.564
 7730SOL     OW25086   7.702   0.311  12.326
 7730SOL    HW125087   7.756   0.232  12.325
 7730SOL    HW225088   7.619   0.284  12.286
 7731SOL     OW25089   1.872   2.609   2.758
 7731SOL    HW125090   1.791   2.559   2.765
 7731SOL    HW225091   1.884   2.623   2.664
 7732SOL     OW25092  13.216   0.574   8.329
 7732SOL    HW125093  13.136   0.524   8.344
 7732SOL    HW225094  13.205   0.610   8.241
 7733SOL     OW25095   7.661   7.811  13.238
 7733SOL    HW125096   7.721   7.741  13.212
 7733SOL    HW225097   7.588   7.804  13.176
 7734SOL     OW25098  11.273   8.154   5.881
 7734SOL    HW125099  11.274   8.201   5.798
 7734SOL    HW225100  11.188   8.174   5.920
 7735SOL     OW25101  12.473   8.858  10.484
 7735SOL    HW125102  12.502   8.788  10.543
 7735SOL    HW225103  12.548   8.917  10.476
 7736SOL     OW25104   3.112   5.870  10.392
 7736SOL    HW125105   3.117   5.957  10.433
 7736SOL    HW225106   3.166   5.814  10.448
 7737SOL     OW25107   1.022  10.082   0.642
 7737SOL    HW125108   1.056  10.019   0.579
 7737SOL    HW225109   0.968  10.141   0.591
 7738SOL     OW25110   1.348   9.829   7.172
 7738SOL    HW125111   1.301   9.865   7.098
 7738SOL    HW225112   1.344   9.898   7.239
 7739SOL     OW25113   0.346   6.076   5.305
 7739SOL    HW125114   0.398   6.089   5.384
 7739SOL    HW225115   0.292   6.000   5.324
 7740SOL     OW25116   3.322   6.011   2.946
 7740SOL    HW125117   3.280   5.928   2.923
 7740SOL    HW225118   3.416   5.992   2.943
 7741SOL     OW25119   3.709   6.353  14.407
 7741SOL    HW125120   3.726   6.329  14.316
 7741SOL    HW225121   3.782   6.410  14.431
 7742SOL     OW25122   4.757  10.444   6.803
 7742SOL    HW125123   4.670  10.470   6.836
 7742SOL    HW225124   4.767  10.353   6.832
 7743SOL     OW25125  11.400   9.148  11.465
 7743SOL    HW125126  11.415   9.177  11.375
 7743SOL    HW225127  11.380   9.228  11.513
 7744SOL     OW25128   9.319  12.689   8.960
 7744SOL    HW125129   9.388  12.624   8.970
 7744SOL    HW225130   9.347  12.763   9.014
 7745SOL     OW25131  13.655   4.721   2.121
 7745SOL    HW125132  13.669   4.815   2.113
 7745SOL    HW225133  13.568   4.712   2.159
 7746SOL     OW25134   3.233   6.700   5.534
 7746SOL    HW125135   3.285   6.627   5.500
 7746SOL    HW225136   3.170   6.719   5.465
 7747SOL     OW25137   0.358   3.578   6.523
 7747SOL    HW125138   0.427   3.514   6.539
 7747SOL    HW225139   0.331   3.562   6.432
 7748SOL     OW25140  14.317   8.493   5.471
 7748SOL    HW125141  14.290   8.457   5.555
 7748SOL    HW225142  14.243   8.475   5.413
 7749SOL     OW25143   5.800   4.287  10.940
 7749SOL    HW125144   5.844   4.248  10.864
 7749SOL    HW225145   5.712   4.248  10.939
 7750SOL     OW25146   2.147   0.095   7.768
 7750SOL    HW125147   2.192   0.126   7.847
 7750SOL    HW225148   2.077   0.159   7.754
 7751SOL     OW25149   1.551   1.805  14.254
 7751SOL    HW125150   1.633   1.839  14.288
 7751SOL    HW225151   1.560   1.809  14.159
 7752SOL     OW25152   8.289  13.529   4.366
 7752SOL    HW125153   8.261  13.449   4.410
 7752SOL    HW225154   8.217  13.591   4.382
 7753SOL     OW25155   5.487   6.174   4.143
 7753SOL    HW125156   5.392   6.181   4.151
 7753SOL    HW225157   5.516   6.146   4.230
 7754SOL     OW25158  14.170   7.998   0.150
 7754SOL    HW125159  14.145   8.085   0.183
 7754SOL    HW225160  14.141   7.998   0.059
 7755SOL     OW25161  12.130   4.732   7.785
 7755SOL    HW125162  12.182   4.808   7.812
 7755SOL    HW225163  12.125   4.677   7.863
 7756SOL     OW25164  10.613   3.154   9.954
 7756SOL    HW125165  10.521   3.174   9.941
 7756SOL    HW225166  10.646   3.226  10.008
 7757SOL     OW25167   8.539   1.087  10.689
 7757SOL    HW125168   8.612   1.025  10.690
 7757SOL    HW225169   8.495   1.073  10.773
 7758SOL     OW25170   2.442   8.789   0.402
 7758SOL    HW125171   2.495   8.723   0.357
 7758SOL    HW225172   2.351   8.765   0.383
 7759SOL     OW25173   5.814   8.807   6.103
 7759SOL    HW125174   5.789   8.729   6.154
 7759SOL    HW225175   5.906   8.822   6.126
 7760SOL     OW25176  14.078   7.032  13.187
 7760SOL    HW125177  13.996   7.020  13.234
 7760SOL    HW225178  14.052   7.057  13.098
 7761SOL     OW25179   1.293   1.169   8.060
 7761SOL    HW125180   1.349   1.245   8.047
 7761SOL    HW225181   1.231   1.172   7.987
 7762SOL     OW25182   8.945   6.069  10.096
 7762SOL    HW125183   8.971   5.986  10.054
 7762SOL    HW225184   9.023   6.099  10.141
 7763SOL     OW25185  12.522   2.355   6.885
 7763SOL    HW125186  12.607   2.387   6.854
 7763SOL    HW225187  12.534   2.340   6.978
 7764SOL     OW25188   7.176  14.606   6.635
 7764SOL    HW125189   7.239  14.553   6.587
 7764SOL    HW225190   7.106  14.545   6.658
 7765SOL     OW25191  11.497   1.754  10.795
 7765SOL    HW125192  11.537   1.798  10.719
 7765SOL    HW225193  11.447   1.823  10.839
 7766SOL     OW25194   7.026   3.506  12.546
 7766SOL    HW125195   7.109   3.502  12.593
 7766SOL    HW225196   7.005   3.599  12.542
 7767SOL     OW25197  14.108   8.659   2.788
 7767SOL    HW125198  14.159   8.634   2.711
 7767SOL    HW225199  14.028   8.606   2.782
 7768SOL     OW25200  13.011  13.830   9.818
 7768SOL    HW125201  13.014  13.920   9.784
 7768SOL    HW225202  13.009  13.841   9.913
 7769SOL     OW25203   7.897   8.754   0.928
 7769SOL    HW125204   7.829   8.777   0.865
 7769SOL    HW225205   7.896   8.658   0.930
 7770SOL     OW25206   5.997  11.007   5.071
 7770SOL    HW125207   6.080  10.990   5.028
 7770SOL    HW225208   5.956  10.921   5.082
 7771SOL     OW25209   3.531   0.514   1.508
 7771SOL    HW125210   3.619   0.550   1.497
 7771SOL    HW225211   3.509   0.477   1.423
 7772SOL     OW25212  13.627  13.383  13.017
 7772SOL    HW125213  13.592  13.470  12.996
 7772SOL    HW225214  13.621  13.377  13.113
 7773SOL     OW25215   4.216  12.307   9.719
 7773SOL    HW125216   4.288  12.325   9.658
 7773SOL    HW225217   4.219  12.380   9.781
 7774SOL     OW25218  12.019   9.974   1.215
 7774SOL    HW125219  12.084   9.927   1.162
 7774SOL    HW225220  11.937   9.961   1.168
 7775SOL     OW25221  11.956   9.617  11.930
 7775SOL    HW125222  11.879   9.579  11.888
 7775SOL    HW225223  11.979   9.556  12.000
 7776SOL     OW25224  10.065   1.295  13.863
 7776SOL    HW125225  10.041   1.228  13.927
 7776SOL    HW225226  10.088   1.372  13.916
 7777SOL     OW25227   5.649   6.627  14.255
 7777SOL    HW125228   5.671   6.588  14.171
 7777SOL    HW225229   5.575   6.685  14.236
 7778SOL     OW25230   3.614  12.805  13.166
 7778SOL    HW125231   3.612  12.859  13.244
 7778SOL    HW225232   3.642  12.864  13.096
 7779SOL     OW25233   6.634   3.382   7.835
 7779SOL    HW125234   6.575   3.314   7.867
 7779SOL    HW225235   6.692   3.400   7.909
 7780SOL     OW25236   1.462  10.403  13.031
 7780SOL    HW125237   1.458  10.476  13.093
 7780SOL    HW225238   1.377  10.404  12.987
 7781SOL     OW25239   1.639  10.143  10.711
 7781SOL    HW125240   1.637  10.231  10.748
 7781SOL    HW225241   1.671  10.087  10.782
 7782SOL     OW25242   9.268   8.529   5.744
 7782SOL    HW125243   9.342   8.589   5.756
 7782SOL    HW225244   9.282   8.461   5.809
 7783SOL     OW25245  11.664  12.409   0.983
 7783SOL    HW125246  11.682  12.386   1.074
 7783SOL    HW225247  11.614  12.335   0.949
 7784SOL     OW25248  10.870  14.833  10.258
 7784SOL    HW125249  10.865  14.791  10.172
 7784SOL    HW225250  10.807   0.030  10.253
 7785SOL     OW25251  13.402   4.984   1.281
 7785SOL    HW125252  13.322   5.035   1.296
 7785SOL    HW225253  13.373   4.911   1.225
 7786SOL     OW25254  12.008   9.737   5.239
 7786SOL    HW125255  11.978   9.647   5.229
 7786SOL    HW225256  11.960   9.786   5.172
 7787SOL     OW25257   2.277   8.136  14.047
 7787SOL    HW125258   2.227   8.205  14.004
 7787SOL    HW225259   2.273   8.061  13.986
 7788SOL     OW25260   8.396  12.830   6.370
 7788SOL    HW125261   8.460  12.852   6.303
 7788SOL    HW225262   8.353  12.913   6.389
 7789SOL     OW25263   5.694   5.023  14.592
 7789SOL    HW125264   5.786   5.028  14.566
 7789SOL    HW225265   5.695   4.985  14.680
 7790SOL     OW25266  10.075   1.887   3.109
 7790SOL    HW125267  10.082   1.841   3.193
 7790SOL    HW225268  10.144   1.849   3.055
 7791SOL     OW25269   8.993   8.455  11.531
 7791SOL    HW125270   9.051   8.507  11.475
 7791SOL    HW225271   8.954   8.391  11.471
 7792SOL     OW25272   6.033   7.066  11.878
 7792SOL    HW125273   6.003   7.105  11.959
 7792SOL    HW225274   6.128   7.056  11.890
 7793SOL     OW25275   1.489  11.028   7.460
 7793SOL    HW125276   1.450  10.943   7.436
 7793SOL    HW225277   1.581  11.019   7.437
 7794SOL     OW25278   0.996  12.334   5.903
 7794SOL    HW125279   0.931  12.294   5.845
 7794SOL    HW225280   1.073  12.277   5.896
 7795SOL     OW25281   0.077   8.686   7.191
 7795SOL    HW125282   0.030   8.609   7.159
 7795SOL    HW225283   0.145   8.650   7.248
 7796SOL     OW25284   5.133  11.972   5.596
 7796SOL    HW125285   5.083  11.992   5.517
 7796SOL    HW225286   5.224  11.991   5.574
 7797SOL     OW25287   4.996   3.372  12.470
 7797SOL    HW125288   5.054   3.338  12.538
 7797SOL    HW225289   4.922   3.312  12.469
 7798SOL     OW25290   9.229   1.330   7.988
 7798SOL    HW125291   9.277   1.314   8.069
 7798SOL    HW225292   9.202   1.242   7.959
 7799SOL     OW25293   2.855   3.919   0.705
 7799SOL    HW125294   2.871   4.008   0.674
 7799SOL    HW225295   2.763   3.902   0.683
 7800SOL     OW25296   3.650   9.759   2.368
 7800SOL    HW125297   3.680   9.758   2.459
 7800SOL    HW225298   3.617   9.671   2.353
 7801SOL     OW25299   1.299   1.470  11.422
 7801SOL    HW125300   1.367   1.418  11.378
 7801SOL    HW225301   1.306   1.557  11.382
 7802SOL     OW25302  10.191   4.879   3.158
 7802SOL    HW125303  10.164   4.799   3.113
 7802SOL    HW225304  10.280   4.861   3.188
 7803SOL     OW25305   8.707  12.752  14.683
 7803SOL    HW125306   8.665  12.825  14.638
 7803SOL    HW225307   8.649  12.732  14.756
 7804SOL     OW25308   1.525  12.168  11.694
 7804SOL    HW125309   1.487  12.256  11.702
 7804SOL    HW225310   1.530  12.152  11.600
 7805SOL     OW25311  13.750   1.322   4.090
 7805SOL    HW125312  13.709   1.387   4.033
 7805SOL    HW225313  13.784   1.256   4.031
 7806SOL     OW25314   2.024   3.483  13.923
 7806SOL    HW125315   1.966   3.550  13.957
 7806SOL    HW225316   1.967   3.409  13.902
 7807SOL     OW25317   6.258   1.850   4.013
 7807SOL    HW125318   6.174   1.810   4.036
 7807SOL    HW225319   6.305   1.854   4.097
 7808SOL     OW25320  13.179  12.511   2.886
 7808SOL    HW125321  13.189  12.483   2.795
 7808SOL    HW225322  13.086  12.500   2.904
 7809SOL     OW25323   8.208  13.633   0.753
 7809SOL    HW125324   8.203  13.624   0.848
 7809SOL    HW225325   8.197  13.544   0.719
 7810SOL     OW25326   8.810   0.841  12.178
 7810SOL    HW125327   8.842   0.773  12.236
 7810SOL    HW225328   8.837   0.923  12.220
 7811SOL     OW25329   6.943   7.142   7.358
 7811SOL    HW125330   6.859   7.101   7.379
 7811SOL    HW225331   6.922   7.205   7.289
 7812SOL     OW25332  12.748   0.669   1.914
 7812SOL    HW125333  12.758   0.733   1.984
 7812SOL    HW225334  12.701   0.596   1.955
 7813SOL     OW25335  12.521   3.216  13.047
 7813SOL    HW125336  12.568   3.206  12.965
 7813SOL    HW225337  12.457   3.285  13.030
 7814SOL     OW25338   7.868  12.191   8.499
 7814SOL    HW125339   7.911  12.271   8.529
 7814SOL    HW225340   7.900  12.179   8.410
 7815SOL     OW25341   4.608  14.470  13.100
 7815SOL    HW125342   4.683  14.454  13.044
 7815SOL    HW225343   4.602  14.565  13.106
 7816SOL     OW25344   9.464  10.192  14.190
 7816SOL    HW125345   9.479  10.147  14.273
 7816SOL    HW225346   9.384  10.152  14.155
 7817SOL     OW25347   8.421  13.955   4.681
 7817SOL    HW125348   8.516  13.966   4.684
 7817SOL    HW225349   8.387  14.027   4.734
 7818SOL     OW25350   9.763   6.671  12.037
 7818SOL    HW125351   9.752   6.761  12.005
 7818SOL    HW225352   9.817   6.629  11.970
 7819SOL     OW25353   3.140   0.789  10.448
 7819SOL    HW125354   3.128   0.758  10.359
 7819SOL    HW225355   3.094   0.873  10.451
 7820SOL     OW25356   8.424  13.944  11.689
 7820SOL    HW125357   8.392  13.898  11.612
 7820SOL    HW225358   8.483  14.011  11.654
 7821SOL     OW25359   9.523   8.823   4.448
 7821SOL    HW125360   9.609   8.797   4.479
 7821SOL    HW225361   9.484   8.742   4.415
 7822SOL     OW25362   9.016   0.938   2.452
 7822SOL    HW125363   8.950   0.980   2.506
 7822SOL    HW225364   8.985   0.950   2.362
 7823SOL     OW25365  13.944  12.563   4.317
 7823SOL    HW125366  14.021  12.507   4.324
 7823SOL    HW225367  13.894  12.547   4.398
 7824SOL     OW25368   0.973   9.744  13.023
 7824SOL    HW125369   0.966   9.739  12.928
 7824SOL    HW225370   1.044   9.683  13.045
 7825SOL     OW25371   7.754   4.542   0.079
 7825SOL    HW125372   7.787   4.550  14.864
 7825SOL    HW225373   7.761   4.449   0.098
 7826SOL     OW25374   9.787  11.981   6.311
 7826SOL    HW125375   9.806  11.930   6.390
 7826SOL    HW225376   9.870  12.022   6.288
 7827SOL     OW25377   8.679   9.018   3.205
 7827SOL    HW125378   8.650   9.108   3.188
 7827SOL    HW225379   8.712   9.020   3.296
 7828SOL     OW25380   5.685   1.024   5.549
 7828SOL    HW125381   5.612   1.049   5.493
 7828SOL    HW225382   5.755   1.086   5.526
 7829SOL     OW25383   5.661  10.220   5.937
 7829SOL    HW125384   5.734  10.162   5.918
 7829SOL    HW225385   5.700  10.308   5.941
 7830SOL     OW25386  11.273   3.268   4.750
 7830SOL    HW125387  11.242   3.310   4.831
 7830SOL    HW225388  11.243   3.177   4.758
 7831SOL     OW25389  11.429   7.138  11.797
 7831SOL    HW125390  11.502   7.196  11.820
 7831SOL    HW225391  11.455   7.100  11.713
 7832SOL     OW25392   2.134   6.735  14.720
 7832SOL    HW125393   2.044   6.763  14.735
 7832SOL    HW225394   2.170   6.800  14.660
 7833SOL     OW25395  11.704   9.613   9.006
 7833SOL    HW125396  11.656   9.571   8.934
 7833SOL    HW225397  11.697   9.552   9.079
 7834SOL     OW25398   0.437  11.362   0.096
 7834SOL    HW125399   0.528  11.343   0.071
 7834SOL    HW225400   0.445  11.422   0.170
 7835SOL     OW25401   2.379   7.089  12.170
 7835SOL    HW125402   2.329   7.116  12.094
 7835SOL    HW225403   2.421   7.170  12.201
 7836SOL     OW25404  13.887   9.858  11.239
 7836SOL    HW125405  13.980   9.864  11.218
 7836SOL    HW225406  13.842   9.876  11.156
 7837SOL     OW25407   1.294   6.627   1.444
 7837SOL    HW125408   1.227   6.693   1.429
 7837SOL    HW225409   1.366   6.675   1.486
 7838SOL     OW25410   7.666   6.216   3.587
 7838SOL    HW125411   7.703   6.300   3.560
 7838SOL    HW225412   7.721   6.150   3.545
 7839SOL     OW25413   7.581  10.168   9.029
 7839SOL    HW125414   7.547  10.257   9.019
 7839SOL    HW225415   7.504  10.112   9.025
 7840SOL     OW25416   5.087   3.011   0.862
 7840SOL    HW125417   5.174   2.990   0.829
 7840SOL    HW225418   5.099   3.094   0.910
 7841SOL     OW25419   8.565   3.823  11.695
 7841SOL    HW125420   8.642   3.873  11.722
 7841SOL    HW225421   8.573   3.816  11.600
 7842SOL     OW25422  12.663   8.214   6.251
 7842SOL    HW125423  12.650   8.285   6.189
 7842SOL    HW225424  12.606   8.144   6.220
 7843SOL     OW25425  11.381  13.862   2.508
 7843SOL    HW125426  11.430  13.944   2.501
 7843SOL    HW225427  11.396  13.818   2.424
 7844SOL     OW25428  10.878  12.797  12.801
 7844SOL    HW125429  10.893  12.703  12.816
 7844SOL    HW225430  10.802  12.800  12.743
 7845SOL     OW25431   6.542  10.667   3.000
 7845SOL    HW125432   6.615  10.624   3.045
 7845SOL    HW225433   6.583  10.727   2.938
 7846SOL     OW25434   4.142   4.997  11.332
 7846SOL    HW125435   4.082   5.058  11.375
 7846SOL    HW225436   4.097   4.973  11.251
 7847SOL     OW25437   2.000   5.425  11.298
 7847SOL    HW125438   2.020   5.473  11.218
 7847SOL    HW225439   1.948   5.487  11.350
 7848SOL     OW25440  12.838  10.100   6.867
 7848SOL    HW125441  12.854  10.076   6.776
 7848SOL    HW225442  12.782  10.178   6.862
 7849SOL     OW25443   1.007   2.895   4.262
 7849SOL    HW125444   1.052   2.962   4.211
 7849SOL    HW225445   0.944   2.943   4.315
 7850SOL     OW25446   6.232   0.609   7.476
 7850SOL    HW125447   6.147   0.631   7.438
 7850SOL    HW225448   6.216   0.607   7.571
 7851SOL     OW25449   5.677  13.350   5.337
 7851SOL    HW125450   5.595  13.351   5.287
 7851SOL    HW225451   5.723  13.272   5.306
 7852SOL     OW25452   0.557  13.133   7.297
 7852SOL    HW125453   0.512  13.216   7.282
 7852SOL    HW225454   0.510  13.093   7.371
 7853SOL     OW25455   1.353   5.311  12.716
 7853SOL    HW125456   1.424   5.324  12.779
 7853SOL    HW225457   1.365   5.381  12.651
 7854SOL     OW25458  14.290   0.976   6.658
 7854SOL    HW125459  14.363   0.927   6.696
 7854SOL    HW225460  14.222   0.910   6.642
 7855SOL     OW25461  10.989   0.494  12.376
 7855SOL    HW125462  10.954   0.565  12.322
 7855SOL    HW225463  11.052   0.450  12.319
 7856SOL     OW25464   2.773  13.429   0.037
 7856SOL    HW125465   2.763  13.481  14.832
 7856SOL    HW225466   2.690  13.383   0.047
 7857SOL     OW25467   5.143   8.537   0.647
 7857SOL    HW125468   5.052   8.562   0.628
 7857SOL    HW225469   5.137   8.447   0.679
 7858SOL     OW25470  14.107  10.090   8.612
 7858SOL    HW125471  14.125  10.102   8.705
 7858SOL    HW225472  14.024  10.043   8.610
 7859SOL     OW25473  10.945   4.301   7.134
 7859SOL    HW125474  10.977   4.268   7.050
 7859SOL    HW225475  10.860   4.340   7.115
 7860SOL     OW25476   3.155  14.455   4.778
 7860SOL    HW125477   3.158  14.456   4.683
 7860SOL    HW225478   3.062  14.463   4.800
 7861SOL     OW25479  12.073   5.508   8.926
 7861SOL    HW125480  12.144   5.469   8.874
 7861SOL    HW225481  12.024   5.561   8.863
 7862SOL     OW25482   7.342   4.980   9.320
 7862SOL    HW125483   7.326   5.023   9.404
 7862SOL    HW225484   7.436   4.964   9.319
 7863SOL     OW25485  12.338  10.089  11.275
 7863SOL    HW125486  12.397  10.142  11.329
 7863SOL    HW225487  12.397  10.043  11.215
 7864SOL     OW25488   3.357   1.106   3.745
 7864SOL    HW125489   3.271   1.100   3.786
 7864SOL    HW225490   3.403   1.172   3.796
 7865SOL     OW25491   8.641   9.918   0.457
 7865SOL    HW125492   8.589   9.931   0.537
 7865SOL    HW225493   8.730   9.904   0.489
 7866SOL     OW25494   6.904  13.274  10.907
 7866SOL    HW125495   7.000  13.283  10.900
 7866SOL    HW225496   6.886  13.289  11.000
 7867SOL     OW25497  10.388  14.601   0.623
 7867SOL    HW125498  10.399  14.506   0.620
 7867SOL    HW225499  10.436  14.628   0.701
 7868SOL     OW25500   8.396  13.597   7.206
 7868SOL    HW125501   8.447  13.573   7.129
 7868SOL    HW225502   8.386  13.515   7.254
 7869SOL     OW25503   6.873  10.707  13.894
 7869SOL    HW125504   6.806  10.769  13.862
 7869SOL    HW225505   6.933  10.697  13.820
 7870SOL     OW25506   4.673  13.953  11.515
 7870SOL    HW125507   4.739  13.923  11.452
 7870SOL    HW225508   4.702  13.917  11.599
 7871SOL     OW25509  13.560  12.672   2.776
 7871SOL    HW125510  13.651  12.686   2.751
 7871SOL    HW225511  13.526  12.611   2.711
 7872SOL     OW25512   4.471   9.948   5.995
 7872SOL    HW125513   4.560   9.934   6.026
 7872SOL    HW225514   4.451   9.870   5.943
 7873SOL     OW25515  14.571   7.123  10.007
 7873SOL    HW125516  14.518   7.082  10.075
 7873SOL    HW225517  14.647   7.159  10.054
 7874SOL     OW25518   9.286   5.018   6.214
 7874SOL    HW125519   9.224   5.033   6.285
 7874SOL    HW225520   9.235   4.975   6.146
 7875SOL     OW25521  13.565   2.701  13.663
 7875SOL    HW125522  13.477   2.720  13.695
 7875SOL    HW225523  13.569   2.745  13.578
 7876SOL     OW25524   9.633   3.375   4.990
 7876SOL    HW125525   9.715   3.393   4.943
 7876SOL    HW225526   9.572   3.348   4.921
 7877SOL     OW25527  13.405   7.118   7.363
 7877SOL    HW125528  13.492   7.118   7.323
 7877SOL    HW225529  13.371   7.206   7.347
 7878SOL     OW25530  14.659   3.564  13.094
 7878SOL    HW125531  14.729   3.627  13.113
 7878SOL    HW225532  14.649   3.515  13.176
 7879SOL     OW25533  12.404  13.988   6.868
 7879SOL    HW125534  12.472  13.938   6.823
 7879SOL    HW225535  12.432  13.989   6.960
 7880SOL     OW25536   7.412   6.539   9.419
 7880SOL    HW125537   7.332   6.508   9.376
 7880SOL    HW225538   7.396   6.526   9.512
 7881SOL     OW25539   0.162   5.074   8.469
 7881SOL    HW125540   0.123   5.011   8.408
 7881SOL    HW225541   0.117   5.156   8.450
 7882SOL     OW25542   5.467  12.403  10.588
 7882SOL    HW125543   5.482  12.494  10.613
 7882SOL    HW225544   5.423  12.365  10.664
 7883SOL     OW25545  13.294   1.323   1.283
 7883SOL    HW125546  13.246   1.241   1.277
 7883SOL    HW225547  13.270   1.359   1.369
 7884SOL     OW25548  10.251  14.439   1.416
 7884SOL    HW125549  10.261  14.434   1.511
 7884SOL    HW225550  10.185  14.372   1.395
 7885SOL     OW25551   6.589   9.161   6.966
 7885SOL    HW125552   6.510   9.123   6.927
 7885SOL    HW225553   6.658   9.097   6.947
 7886SOL     OW25554   7.240   7.382   5.967
 7886SOL    HW125555   7.293   7.311   6.002
 7886SOL    HW225556   7.154   7.342   5.953
 7887SOL     OW25557   8.780   8.374  12.896
 7887SOL    HW125558   8.685   8.384  12.898
 7887SOL    HW225559   8.795   8.296  12.843
 7888SOL     OW25560   7.794   5.616   9.547
 7888SOL    HW125561   7.843   5.549   9.499
 7888SOL    HW225562   7.707   5.577   9.560
 7889SOL     OW25563   0.611  12.819  11.225
 7889SOL    HW125564   0.597  12.760  11.151
 7889SOL    HW225565   0.640  12.901  11.186
 7890SOL     OW25566   5.419   8.945   0.025
 7890SOL    HW125567   5.469   9.019   0.056
 7890SOL    HW225568   5.479   8.897  14.843
 7891SOL     OW25569   7.837   9.545   6.383
 7891SOL    HW125570   7.826   9.623   6.438
 7891SOL    HW225571   7.753   9.500   6.389
 7892SOL     OW25572   3.665   2.710   1.858
 7892SOL    HW125573   3.621   2.627   1.839
 7892SOL    HW225574   3.648   2.765   1.782
 7893SOL     OW25575  11.278   2.978   0.749
 7893SOL    HW125576  11.301   2.998   0.659
 7893SOL    HW225577  11.341   2.911   0.776
 7894SOL     OW25578   2.582  11.419   0.163
 7894SOL    HW125579   2.528  11.492   0.194
 7894SOL    HW225580   2.522  11.346   0.154
 7895SOL     OW25581   1.672  10.168   5.651
 7895SOL    HW125582   1.754  10.127   5.622
 7895SOL    HW225583   1.678  10.166   5.747
 7896SOL     OW25584   6.282   6.961  11.208
 7896SOL    HW125585   6.282   7.057  11.199
 7896SOL    HW225586   6.271   6.946  11.301
 7897SOL     OW25587   8.066   9.511  10.016
 7897SOL    HW125588   8.158   9.491  10.035
 7897SOL    HW225589   8.044   9.581  10.077
 7898SOL     OW25590   3.062  13.535   6.162
 7898SOL    HW125591   3.105  13.618   6.144
 7898SOL    HW225592   2.973  13.545   6.128
 7899SOL     OW25593  12.739   3.961  12.428
 7899SOL    HW125594  12.683   3.884  12.440
 7899SOL    HW225595  12.694   4.031  12.475
 7900SOL     OW25596   1.729   5.960  13.572
 7900SOL    HW125597   1.759   6.022  13.639
 7900SOL    HW225598   1.676   5.897  13.620
 7901SOL     OW25599  14.198  12.766  13.112
 7901SOL    HW125600  14.112  12.725  13.112
 7901SOL    HW225601  14.253  12.704  13.063
 7902SOL     OW25602  14.262  14.156   7.951
 7902SOL    HW125603  14.298  14.240   7.921
 7902SOL    HW225604  14.224  14.117   7.872
 7903SOL     OW25605  13.238  10.340  14.670
 7903SOL    HW125606  13.174  10.411  14.668
 7903SOL    HW225607  13.313  10.375  14.621
 7904SOL     OW25608   7.354  14.226  14.596
 7904SOL    HW125609   7.403  14.281  14.657
 7904SOL    HW225610   7.269  14.214  14.639
 7905SOL     OW25611   3.780   6.481   9.947
 7905SOL    HW125612   3.867   6.455   9.976
 7905SOL    HW225613   3.747   6.537  10.018
 7906SOL     OW25614   6.343  10.987  10.607
 7906SOL    HW125615   6.393  11.011  10.685
 7906SOL    HW225616   6.405  10.996  10.535
 7907SOL     OW25617  13.141  10.719  11.489
 7907SOL    HW125618  13.066  10.674  11.529
 7907SOL    HW225619  13.207  10.650  11.480
 7908SOL     OW25620   4.362   4.186   5.455
 7908SOL    HW125621   4.446   4.161   5.493
 7908SOL    HW225622   4.313   4.104   5.447
 7909SOL     OW25623  14.764   9.301   8.085
 7909SOL    HW125624  14.801   9.388   8.065
 7909SOL    HW225625  14.670   9.313   8.079
 7910SOL     OW25626   9.379   4.807  13.786
 7910SOL    HW125627   9.420   4.869  13.725
 7910SOL    HW225628   9.431   4.812  13.865
 7911SOL     OW25629   6.487   9.266   4.422
 7911SOL    HW125630   6.500   9.287   4.329
 7911SOL    HW225631   6.417   9.325   4.450
 7912SOL     OW25632   9.813   3.021   5.586
 7912SOL    HW125633   9.727   2.979   5.582
 7912SOL    HW225634   9.795   3.110   5.615
 7913SOL     OW25635  10.066   1.572   7.410
 7913SOL    HW125636   9.976   1.552   7.436
 7913SOL    HW225637  10.070   1.548   7.317
 7914SOL     OW25638   7.526   3.450   9.009
 7914SOL    HW125639   7.432   3.468   9.017
 7914SOL    HW225640   7.543   3.383   9.075
 7915SOL     OW25641   7.776  13.257   6.702
 7915SOL    HW125642   7.705  13.299   6.654
 7915SOL    HW225643   7.731  13.205   6.769
 7916SOL     OW25644   5.255  13.175  12.930
 7916SOL    HW125645   5.298  13.257  12.908
 7916SOL    HW225646   5.277  13.116  12.858
 7917SOL     OW25647   4.147   7.988  10.620
 7917SOL    HW125648   4.068   7.951  10.581
 7917SOL    HW225649   4.217   7.965  10.560
 7918SOL     OW25650   2.570   6.458   1.122
 7918SOL    HW125651   2.520   6.528   1.080
 7918SOL    HW225652   2.628   6.425   1.054
 7919SOL     OW25653  11.927  14.821   8.714
 7919SOL    HW125654  11.894  14.816   8.624
 7919SOL    HW225655  11.873  14.758   8.763
 7920SOL     OW25656   3.617   0.233   7.134
 7920SOL    HW125657   3.523   0.242   7.122
 7920SOL    HW225658   3.632   0.255   7.226
 7921SOL     OW25659  12.595  14.460   2.750
 7921SOL    HW125660  12.686  14.432   2.765
 7921SOL    HW225661  12.544  14.413   2.816
 7922SOL     OW25662   0.633   5.153   6.311
 7922SOL    HW125663   0.548   5.195   6.298
 7922SOL    HW225664   0.657   5.175   6.401
 7923SOL     OW25665  11.625  10.998   5.149
 7923SOL    HW125666  11.644  11.018   5.058
 7923SOL    HW225667  11.685  10.926   5.171
 7924NA      NA25668   7.852   3.071  14.622
 7925NA      NA25669  12.385   9.151  11.732
 7926NA      NA25670   9.615   9.884   6.961
 7927NA      NA25671   8.242   8.529   0.212
 7928NA      NA25672   8.192   4.649   5.469
 7929NA      NA25673   5.753   9.032   4.079
 7930NA      NA25674   6.621   8.108   0.750
 7931NA      NA25675   7.849   4.058   3.022
 7932NA      NA25676   6.274   6.888   8.571
 7933NA      NA25677   8.799   1.790   5.190
 7934NA      NA25678   2.421  10.693  13.102
 7935NA      NA25679   8.232   5.586  12.361
 7936NA      NA25680  14.355  11.875   8.359
 7937NA      NA25681   5.918  10.084   5.183
 7938NA      NA25682   7.179   7.599   9.876
 7939NA      NA25683  11.460  14.217   4.528
 7940NA      NA25684   7.445   3.167   5.592
 7941NA      NA25685   7.760   3.529   6.637
 7942NA      NA25686   7.571   2.778  10.052
 7943NA      NA25687   8.169   5.138  11.574
 7944NA      NA25688   7.598   3.844   5.114
 7945NA      NA25689   9.238   3.104   6.525
 7946NA      NA25690  14.521  11.288   3.658
 7947NA      NA25691   0.511   3.166   6.124
 7948NA      NA25692   8.379   3.389   7.603
 7949NA      NA25693   9.068   2.722   6.634
 7950NA      NA25694   7.140   4.776  10.521
 7951NA      NA25695   7.304   5.751  11.465
 7952NA      NA25696   9.459   3.694   8.732
 7953NA      NA25697  10.132   3.676   4.592
 7954NA      NA25698  11.267   6.563   6.478
 7955NA      NA25699   9.885   3.529   5.982
 7956NA      NA25700   8.507   2.821   4.466
 7957NA      NA25701   8.521   2.813   8.697
 7958NA      NA25702   9.082   4.714  10.530
 7959NA      NA25703   8.975  12.681   9.723
 7960NA      NA25704   7.556   5.735  10.132
 7961NA      NA25705   6.960   5.781   7.047
 7962NA      NA25706   9.294   5.350   9.814
 7963NA      NA25707   8.396   6.248  10.587
 7964NA      NA25708   9.599   7.270   8.830
 7965NA      NA25709  10.326   2.421   3.880
 7966NA      NA25710  12.421   8.940   0.229
 7967NA      NA25711   9.746   5.928  14.795
 7968NA      NA25712   9.965   4.516   9.094
 7969NA      NA25713  10.761   7.787   7.124
 7970NA      NA25714   5.915   3.534   5.841
 7971NA      NA25715   7.647   4.816   9.898
 7972NA      NA25716   0.629   8.652   4.144
 7973NA      NA25717   3.904  13.033   3.160
 7974NA      NA25718   7.424   4.629   7.236
 7975NA      NA25719   5.613  10.675   9.340
 7976NA      NA25720   6.867   7.238   6.016
 7977NA      NA25721   9.959   3.785   6.296
 7978NA      NA25722   9.382   4.343   8.009
 7979NA      NA25723   8.065   4.701   8.305
 7980NA      NA25724   9.509   5.270  12.123
 7981NA      NA25725   5.245   5.112   7.457
 7982NA      NA25726   6.991   1.981  12.849
 7983NA      NA25727   8.947   2.969   5.302
 7984NA      NA25728   9.561   4.395   6.504
 7985NA      NA25729   9.894   2.316   3.210
 7986NA      NA25730   7.631   5.773   8.451
 7987NA      NA25731   9.524   8.084   0.498
  14.87500  14.87500  14.87500
